Protein in water t=   0.00000 step= 0
325731
    1DC5    H5T    1   6.674   6.411   3.807
    1DC5    O5'    2   6.668   6.505   3.787
    1DC5    C5'    3   6.545   6.537   3.739
    1DC5   H5'1    4   6.528   6.487   3.644
    1DC5   H5'2    5   6.530   6.643   3.718
    1DC5    C4'    6   6.433   6.504   3.840
    1DC5    H4'    7   6.339   6.529   3.789
    1DC5    O4'    8   6.428   6.365   3.869
    1DC5    C1'    9   6.351   6.350   3.990
    1DC5    H1'   10   6.248   6.378   3.970
    1DC5     N1   11   6.362   6.213   4.052
    1DC5     C6   12   6.482   6.155   4.084
    1DC5     H6   13   6.576   6.203   4.061
    1DC5     C5   14   6.482   6.027   4.136
    1DC5     H5   15   6.575   5.976   4.152
    1DC5     C4   16   6.359   5.962   4.156
    1DC5     N4   17   6.351   5.842   4.209
    1DC5    H41   18   6.261   5.798   4.215
    1DC5    H42   19   6.432   5.801   4.253
    1DC5     N3   20   6.246   6.011   4.112
    1DC5     C2   21   6.241   6.142   4.066
    1DC5     O2   22   6.127   6.195   4.047
    1DC5    C3'   23   6.432   6.576   3.980
    1DC5    H3'   24   6.529   6.617   4.007
    1DC5    C2'   25   6.402   6.465   4.078
    1DC5   H2'1   26   6.496   6.425   4.117
    1DC5   H2'2   27   6.325   6.494   4.149
    1DC5    O3'   28   6.329   6.667   3.985
    2DG       P   29   6.349   6.821   4.028
    2DG     O1P   30   6.248   6.898   3.953
    2DG     O2P   31   6.489   6.868   4.005
    2DG     O5'   32   6.313   6.822   4.184
    2DG     C5'   33   6.174   6.832   4.234
    2DG    H5'1   34   6.102   6.821   4.153
    2DG    H5'2   35   6.156   6.932   4.274
    2DG     C4'   36   6.135   6.729   4.342
    2DG     H4'   37   6.029   6.708   4.338
    2DG     O4'   38   6.199   6.604   4.314
    2DG     C1'   39   6.227   6.548   4.436
    2DG     H1'   40   6.135   6.503   4.472
    2DG      N9   41   6.320   6.434   4.416
    2DG      C8   42   6.462   6.438   4.416
    2DG      H8   43   6.525   6.526   4.415
    2DG      N7   44   6.514   6.320   4.428
    2DG      C5   45   6.404   6.231   4.435
    2DG      C6   46   6.397   6.089   4.451
    2DG      O6   47   6.493   6.007   4.456
    2DG      N1   48   6.270   6.039   4.443
    2DG      H1   49   6.268   5.940   4.459
    2DG      C2   50   6.154   6.115   4.428
    2DG      N2   51   6.039   6.058   4.417
    2DG     H21   52   6.013   5.967   4.453
    2DG     H22   53   5.962   6.117   4.389
    2DG      N3   54   6.159   6.248   4.416
    2DG      C4   55   6.288   6.300   4.415
    2DG     C3'   56   6.176   6.771   4.490
    2DG     H3'   57   6.210   6.874   4.499
    2DG     C2'   58   6.283   6.666   4.506
    2DG    H2'1   59   6.375   6.695   4.455
    2DG    H2'2   60   6.305   6.651   4.611
    2DG     O3'   61   6.063   6.738   4.567
    3DC       P   62   5.971   6.849   4.632
    3DC     O1P   63   5.934   6.949   4.531
    3DC     O2P   64   6.032   6.898   4.760
    3DC     O5'   65   5.845   6.772   4.660
    3DC     C5'   66   5.760   6.711   4.563
    3DC    H5'1   67   5.821   6.692   4.475
    3DC    H5'2   68   5.673   6.767   4.527
    3DC     C4'   69   5.702   6.573   4.610
    3DC     H4'   70   5.627   6.545   4.536
    3DC     O4'   71   5.807   6.477   4.593
    3DC     C1'   72   5.827   6.405   4.710
    3DC     H1'   73   5.767   6.315   4.696
    3DC      N1   74   5.973   6.375   4.734
    3DC      C6   75   6.061   6.479   4.753
    3DC      H6   76   6.015   6.577   4.758
    3DC      C5   77   6.195   6.447   4.769
    3DC      H5   78   6.273   6.521   4.774
    3DC      C4   79   6.230   6.309   4.765
    3DC      N4   80   6.359   6.275   4.775
    3DC     H41   81   6.379   6.176   4.767
    3DC     H42   82   6.429   6.346   4.792
    3DC      N3   83   6.146   6.215   4.751
    3DC      C2   84   6.014   6.246   4.730
    3DC      O2   85   5.936   6.151   4.724
    3DC     C3'   86   5.644   6.565   4.751
    3DC     H3'   87   5.612   6.662   4.788
    3DC     C2'   88   5.763   6.497   4.820
    3DC    H2'1   89   5.828   6.582   4.842
    3DC    H2'2   90   5.731   6.439   4.906
    3DC     O3'   91   5.531   6.472   4.739
    4DA       P   92   5.424   6.442   4.855
    4DA     O1P   93   5.309   6.378   4.781
    4DA     O2P   94   5.398   6.568   4.925
    4DA     O5'   95   5.489   6.338   4.958
    4DA     C5'   96   5.505   6.209   4.921
    4DA    H5'1   97   5.543   6.203   4.819
    4DA    H5'2   98   5.410   6.156   4.926
    4DA     C4'   99   5.606   6.129   5.009
    4DA     H4'  100   5.596   6.021   4.993
    4DA     O4'  101   5.744   6.162   4.985
    4DA     C1'  102   5.808   6.135   5.108
    4DA     H1'  103   5.814   6.029   5.134
    4DA      N9  104   5.945   6.179   5.103
    4DA      C8  105   5.982   6.313   5.086
    4DA      H8  106   5.913   6.396   5.078
    4DA      N7  107   6.113   6.334   5.090
    4DA      C5  108   6.164   6.207   5.109
    4DA      C6  109   6.296   6.156   5.128
    4DA      N6  110   6.416   6.213   5.137
    4DA     H61  111   6.495   6.152   5.157
    4DA     H62  112   6.416   6.314   5.142
    4DA      N1  113   6.314   6.026   5.141
    4DA      C2  114   6.208   5.945   5.155
    4DA      H2  115   6.231   5.840   5.162
    4DA      N3  116   6.081   5.977   5.148
    4DA      C4  117   6.065   6.111   5.120
    4DA     C3'  118   5.579   6.158   5.160
    4DA     H3'  119   5.505   6.236   5.175
    4DA     C2'  120   5.717   6.197   5.211
    4DA    H2'1  121   5.710   6.306   5.208
    4DA    H2'2  122   5.729   6.149   5.308
    4DA     O3'  123   5.539   6.043   5.220
    5DT       P  124   5.491   6.029   5.370
    5DT     O1P  125   5.380   5.927   5.388
    5DT     O2P  126   5.476   6.171   5.428
    5DT     O5'  127   5.611   5.971   5.455
    5DT     C5'  128   5.651   5.839   5.415
    5DT    H5'1  129   5.660   5.836   5.306
    5DT    H5'2  130   5.575   5.767   5.445
    5DT     C4'  131   5.790   5.808   5.474
    5DT     H4'  132   5.817   5.705   5.450
    5DT     O4'  133   5.892   5.893   5.429
    5DT     C1'  134   5.974   5.921   5.538
    5DT     H1'  135   6.037   5.833   5.553
    5DT      N1  136   6.062   6.041   5.507
    5DT      C6  137   6.010   6.169   5.501
    5DT      H6  138   5.909   6.183   5.538
    5DT      C5  139   6.101   6.271   5.478
    5DT      C7  140   6.041   6.411   5.472
    5DT     H71  141   6.060   6.477   5.557
    5DT     H72  142   6.086   6.472   5.393
    5DT     H73  143   5.940   6.406   5.433
    5DT      C4  144   6.244   6.249   5.449
    5DT      O4  145   6.324   6.331   5.410
    5DT      N3  146   6.281   6.122   5.451
    5DT      H3  147   6.378   6.106   5.428
    5DT      C2  148   6.198   6.011   5.482
    5DT      O2  149   6.244   5.899   5.489
    5DT     C3'  150   5.786   5.812   5.627
    5DT     H3'  151   5.683   5.832   5.658
    5DT     C2'  152   5.879   5.929   5.653
    5DT    H2'1  153   5.831   6.027   5.647
    5DT    H2'2  154   5.933   5.921   5.748
    5DT     O3'  155   5.832   5.688   5.685
    6DG       P  156   5.838   5.672   5.848
    6DG     O1P  157   5.813   5.528   5.879
    6DG     O2P  158   5.743   5.764   5.910
    6DG     O5'  159   5.983   5.708   5.891
    6DG     C5'  160   6.093   5.633   5.843
    6DG    H5'1  161   6.077   5.623   5.736
    6DG    H5'2  162   6.083   5.537   5.894
    6DG     C4'  163   6.227   5.693   5.879
    6DG     H4'  164   6.312   5.635   5.844
    6DG     O4'  165   6.232   5.814   5.812
    6DG     C1'  166   6.332   5.892   5.887
    6DG     H1'  167   6.432   5.851   5.872
    6DG      N9  168   6.331   6.037   5.852
    6DG      C8  169   6.220   6.110   5.814
    6DG      H8  170   6.120   6.070   5.823
    6DG      N7  171   6.246   6.229   5.767
    6DG      C5  172   6.387   6.228   5.758
    6DG      C6  173   6.480   6.329   5.706
    6DG      O6  174   6.455   6.437   5.664
    6DG      N1  175   6.612   6.284   5.710
    6DG      H1  176   6.679   6.354   5.679
    6DG      C2  177   6.652   6.172   5.780
    6DG      N2  178   6.778   6.162   5.806
    6DG     H21  179   6.837   6.240   5.781
    6DG     H22  180   6.814   6.085   5.860
    6DG      N3  181   6.572   6.075   5.823
    6DG      C4  182   6.441   6.115   5.816
    6DG     C3'  183   6.245   5.715   6.026
    6DG     H3'  184   6.159   5.686   6.086
    6DG     C2'  185   6.289   5.862   6.033
    6DG    H2'1  186   6.201   5.923   6.054
    6DG    H2'2  187   6.366   5.883   6.107
    6DG     O3'  188   6.360   5.636   6.060
    7DT       P  189   6.401   5.614   6.216
    7DT     O1P  190   6.442   5.472   6.217
    7DT     O2P  191   6.287   5.651   6.300
    7DT     O5'  192   6.529   5.702   6.242
    7DT     C5'  193   6.653   5.690   6.168
    7DT    H5'1  194   6.627   5.720   6.067
    7DT    H5'2  195   6.679   5.584   6.178
    7DT     C4'  196   6.774   5.782   6.212
    7DT     H4'  197   6.867   5.733   6.180
    7DT     O4'  198   6.751   5.907   6.150
    7DT     C1'  199   6.776   6.004   6.248
    7DT     H1'  200   6.881   6.030   6.257
    7DT      N1  201   6.702   6.129   6.208
    7DT      C6  202   6.564   6.126   6.219
    7DT      H6  203   6.513   6.043   6.267
    7DT      C5  204   6.484   6.220   6.161
    7DT      C7  205   6.334   6.215   6.171
    7DT     H71  206   6.283   6.189   6.078
    7DT     H72  207   6.305   6.146   6.250
    7DT     H73  208   6.293   6.313   6.194
    7DT      C4  209   6.546   6.326   6.087
    7DT      O4  210   6.489   6.419   6.037
    7DT      N3  211   6.681   6.321   6.077
    7DT      H3  212   6.727   6.388   6.017
    7DT      C2  213   6.764   6.231   6.138
    7DT      O2  214   6.887   6.250   6.122
    7DT     C3'  215   6.788   5.803   6.360
    7DT     H3'  216   6.740   5.729   6.424
    7DT     C2'  217   6.732   5.944   6.377
    7DT    H2'1  218   6.625   5.929   6.387
    7DT    H2'2  219   6.772   5.994   6.465
    7DT     O3'  220   6.925   5.801   6.391
    8DG       P  221   6.975   5.793   6.541
    8DG     O1P  222   7.110   5.738   6.525
    8DG     O2P  223   6.875   5.721   6.621
    8DG     O5'  224   6.976   5.948   6.586
    8DG     C5'  225   7.076   6.034   6.532
    8DG    H5'1  226   7.084   6.031   6.423
    8DG    H5'2  227   7.169   6.013   6.585
    8DG     C4'  228   7.033   6.180   6.555
    8DG     H4'  229   7.117   6.242   6.525
    8DG     O4'  230   6.924   6.225   6.479
    8DG     C1'  231   6.856   6.332   6.548
    8DG     H1'  232   6.921   6.418   6.560
    8DG      N9  233   6.730   6.387   6.487
    8DG      C8  234   6.593   6.358   6.494
    8DG      H8  235   6.543   6.281   6.552
    8DG      N7  236   6.516   6.433   6.410
    8DG      C5  237   6.613   6.521   6.349
    8DG      C6  238   6.585   6.629   6.260
    8DG      O6  239   6.481   6.669   6.207
    8DG      N1  240   6.696   6.707   6.229
    8DG      H1  241   6.689   6.766   6.147
    8DG      C2  242   6.818   6.670   6.277
    8DG      N2  243   6.924   6.725   6.221
    8DG     H21  244   6.914   6.796   6.150
    8DG     H22  245   7.013   6.681   6.238
    8DG      N3  246   6.845   6.563   6.356
    8DG      C4  247   6.738   6.494   6.393
    8DG     C3'  248   6.992   6.207   6.703
    8DG     H3'  249   6.983   6.116   6.761
    8DG     C2'  250   6.852   6.264   6.684
    8DG    H2'1  251   6.775   6.187   6.674
    8DG    H2'2  252   6.829   6.336   6.763
    8DG     O3'  253   7.062   6.318   6.764
    9DC       P  254   7.202   6.291   6.846
    9DC     O1P  255   7.276   6.176   6.792
    9DC     O2P  256   7.173   6.306   6.993
    9DC     O5'  257   7.288   6.414   6.811
    9DC     C5'  258   7.347   6.415   6.686
    9DC    H5'1  259   7.280   6.364   6.616
    9DC    H5'2  260   7.440   6.359   6.695
    9DC     C4'  261   7.360   6.551   6.618
    9DC     H4'  262   7.431   6.538   6.537
    9DC     O4'  263   7.235   6.596   6.570
    9DC     C1'  264   7.202   6.719   6.635
    9DC     H1'  265   7.241   6.799   6.572
    9DC      N1  266   7.059   6.745   6.656
    9DC      C6  267   6.979   6.657   6.728
    9DC      H6  268   7.029   6.585   6.791
    9DC      C5  269   6.844   6.662   6.726
    9DC      H5  270   6.783   6.595   6.783
    9DC      C4  271   6.790   6.765   6.637
    9DC      N4  272   6.664   6.775   6.611
    9DC     H41  273   6.642   6.845   6.542
    9DC     H42  274   6.597   6.726   6.668
    9DC      N3  275   6.861   6.851   6.569
    9DC      C2  276   6.997   6.844   6.579
    9DC      O2  277   7.071   6.927   6.523
    9DC     C3'  278   7.416   6.664   6.710
    9DC     H3'  279   7.464   6.615   6.794
    9DC     C2'  280   7.289   6.733   6.759
    9DC    H2'1  281   7.243   6.682   6.844
    9DC    H2'2  282   7.308   6.838   6.778
    9DC     O3'  283   7.499   6.756   6.635
   10DG       P  284   7.604   6.855   6.702
   10DG     O1P  285   7.698   6.901   6.594
   10DG     O2P  286   7.657   6.784   6.823
   10DG     O5'  287   7.519   6.982   6.747
   10DG     C5'  288   7.498   7.090   6.666
   10DG    H5'1  289   7.594   7.134   6.638
   10DG    H5'2  290   7.450   7.055   6.575
   10DG     C4'  291   7.407   7.191   6.736
   10DG     H4'  292   7.423   7.282   6.679
   10DG     O4'  293   7.269   7.142   6.719
   10DG     C1'  294   7.202   7.182   6.838
   10DG     H1'  295   7.176   7.288   6.833
   10DG      N9  296   7.077   7.098   6.864
   10DG      C8  297   7.056   6.991   6.944
   10DG      H8  298   7.136   6.940   6.995
   10DG      N7  299   6.930   6.955   6.958
   10DG      C5  300   6.859   7.039   6.864
   10DG      C6  301   6.721   7.056   6.835
   10DG      O6  302   6.623   6.988   6.879
   10DG      N1  303   6.691   7.166   6.762
   10DG      H1  304   6.595   7.177   6.732
   10DG      C2  305   6.788   7.251   6.721
   10DG      N2  306   6.747   7.358   6.655
   10DG     H21  307   6.654   7.361   6.615
   10DG     H22  308   6.819   7.426   6.635
   10DG      N3  309   6.918   7.242   6.743
   10DG      C4  310   6.949   7.130   6.815
   10DG     C3'  311   7.431   7.222   6.889
   10DG     H3'  312   7.516   7.172   6.935
   10DG     C2'  313   7.303   7.162   6.953
   10DG    H2'1  314   7.321   7.058   6.978
   10DG    H2'2  315   7.263   7.212   7.041
   10DG     O3'  316   7.427   7.364   6.904
   11DT       P  317   7.557   7.449   6.883
   11DT     O1P  318   7.643   7.392   6.776
   11DT     O2P  319   7.609   7.465   7.019
   11DT     O5'  320   7.496   7.588   6.833
   11DT     C5'  321   7.452   7.606   6.704
   11DT    H5'1  322   7.440   7.509   6.654
   11DT    H5'2  323   7.516   7.676   6.651
   11DT     C4'  324   7.315   7.667   6.706
   11DT     H4'  325   7.268   7.687   6.610
   11DT     O4'  326   7.220   7.575   6.770
   11DT     C1'  327   7.112   7.655   6.816
   11DT     H1'  328   7.062   7.697   6.729
   11DT      N1  329   7.030   7.569   6.901
   11DT      C6  330   7.091   7.510   7.017
   11DT      H6  331   7.196   7.527   7.037
   11DT      C5  332   7.022   7.424   7.099
   11DT      C7  333   7.098   7.357   7.220
   11DT     H71  334   7.055   7.260   7.244
   11DT     H72  335   7.205   7.357   7.199
   11DT     H73  336   7.075   7.416   7.309
   11DT      C4  337   6.877   7.401   7.072
   11DT      O4  338   6.802   7.334   7.143
   11DT      N3  339   6.826   7.473   6.966
   11DT      H3  340   6.726   7.484   6.956
   11DT      C2  341   6.895   7.550   6.868
   11DT      O2  342   6.840   7.602   6.771
   11DT     C3'  343   7.307   7.797   6.787
   11DT     H3'  344   7.394   7.813   6.849
   11DT     C2'  345   7.181   7.775   6.877
   11DT    H2'1  346   7.212   7.755   6.979
   11DT    H2'2  347   7.113   7.860   6.869
   11DT     O3'  348   7.289   7.917   6.712
   12DA       P  349   7.281   8.069   6.767
   12DA     O1P  350   7.333   8.151   6.658
   12DA     O2P  351   7.355   8.067   6.899
   12DA     O5'  352   7.127   8.114   6.795
   12DA     C5'  353   7.043   8.152   6.692
   12DA    H5'1  354   7.027   8.070   6.622
   12DA    H5'2  355   7.090   8.237   6.643
   12DA     C4'  356   6.898   8.188   6.742
   12DA     H4'  357   6.838   8.212   6.654
   12DA     O4'  358   6.842   8.078   6.807
   12DA     C1'  359   6.813   8.113   6.941
   12DA     H1'  360   6.708   8.134   6.963
   12DA      N9  361   6.851   7.999   7.024
   12DA      C8  362   6.967   7.965   7.091
   12DA      H8  363   7.063   8.012   7.074
   12DA      N7  364   6.954   7.859   7.165
   12DA      C5  365   6.815   7.830   7.161
   12DA      C6  366   6.726   7.732   7.199
   12DA      N6  367   6.758   7.635   7.281
   12DA     H61  368   6.684   7.572   7.310
   12DA     H62  369   6.850   7.634   7.322
   12DA      N1  370   6.601   7.717   7.155
   12DA      C2  371   6.551   7.812   7.074
   12DA      H2  372   6.445   7.802   7.054
   12DA      N3  373   6.621   7.920   7.041
   12DA      C4  374   6.753   7.918   7.079
   12DA     C3'  375   6.894   8.312   6.840
   12DA     H3'  376   6.989   8.364   6.832
   12DA     C2'  377   6.892   8.240   6.972
   12DA    H2'1  378   6.996   8.209   6.983
   12DA    H2'2  379   6.860   8.298   7.059
   12DA     O3'  380   6.781   8.399   6.824
   13DT       P  381   6.779   8.555   6.877
   13DT     O1P  382   6.686   8.633   6.790
   13DT     O2P  383   6.917   8.603   6.895
   13DT     O5'  384   6.717   8.548   7.021
   13DT     C5'  385   6.591   8.479   7.037
   13DT    H5'1  386   6.602   8.399   6.963
   13DT    H5'2  387   6.509   8.551   7.029
   13DT     C4'  388   6.576   8.413   7.182
   13DT     H4'  389   6.469   8.395   7.182
   13DT     O4'  390   6.649   8.288   7.207
   13DT     C1'  391   6.639   8.271   7.343
   13DT     H1'  392   6.534   8.255   7.369
   13DT      N1  393   6.718   8.161   7.404
   13DT      C6  394   6.857   8.158   7.398
   13DT      H6  395   6.909   8.248   7.367
   13DT      C5  396   6.924   8.053   7.439
   13DT      C7  397   7.083   8.063   7.451
   13DT     H71  398   7.114   8.049   7.555
   13DT     H72  399   7.117   7.975   7.396
   13DT     H73  400   7.115   8.161   7.418
   13DT      C4  401   6.857   7.932   7.479
   13DT      O4  402   6.908   7.831   7.527
   13DT      N3  403   6.719   7.935   7.466
   13DT      H3  404   6.669   7.862   7.515
   13DT      C2  405   6.644   8.048   7.437
   13DT      O2  406   6.526   8.041   7.456
   13DT     C3'  407   6.607   8.508   7.304
   13DT     H3'  408   6.685   8.583   7.290
   13DT     C2'  409   6.671   8.409   7.409
   13DT    H2'1  410   6.779   8.424   7.407
   13DT    H2'2  411   6.629   8.422   7.509
   13DT     O3'  412   6.485   8.576   7.334
   14DT       P  413   6.426   8.633   7.482
   14DT     O1P  414   6.323   8.730   7.448
   14DT     O2P  415   6.539   8.679   7.568
   14DT     O5'  416   6.360   8.508   7.560
   14DT     C5'  417   6.243   8.440   7.502
   14DT    H5'1  418   6.261   8.385   7.410
   14DT    H5'2  419   6.168   8.516   7.484
   14DT     C4'  420   6.185   8.334   7.589
   14DT     H4'  421   6.086   8.316   7.546
   14DT     O4'  422   6.254   8.210   7.588
   14DT     C1'  423   6.283   8.177   7.728
   14DT     H1'  424   6.239   8.079   7.747
   14DT      N1  425   6.433   8.161   7.738
   14DT      C6  426   6.511   8.276   7.731
   14DT      H6  427   6.472   8.374   7.708
   14DT      C5  428   6.646   8.261   7.742
   14DT      C7  429   6.733   8.387   7.744
   14DT     H71  430   6.811   8.378   7.667
   14DT     H72  431   6.688   8.478   7.703
   14DT     H73  432   6.787   8.395   7.838
   14DT      C4  433   6.710   8.130   7.768
   14DT      O4  434   6.828   8.104   7.771
   14DT      N3  435   6.624   8.023   7.771
   14DT      H3  436   6.665   7.930   7.773
   14DT      C2  437   6.490   8.037   7.769
   14DT      O2  438   6.420   7.941   7.802
   14DT     C3'  439   6.162   8.384   7.734
   14DT     H3'  440   6.203   8.485   7.744
   14DT     C2'  441   6.231   8.290   7.828
   14DT    H2'1  442   6.310   8.345   7.879
   14DT    H2'2  443   6.161   8.244   7.898
   14DT     O3'  444   6.021   8.393   7.758
   15DA       P  445   5.948   8.465   7.878
   15DA     O1P  446   5.813   8.497   7.830
   15DA     O2P  447   6.035   8.576   7.924
   15DA     O5'  448   5.920   8.353   7.991
   15DA     C5'  449   5.855   8.232   7.964
   15DA    H5'1  450   5.894   8.179   7.877
   15DA    H5'2  451   5.754   8.238   7.924
   15DA     C4'  452   5.849   8.143   8.085
   15DA     H4'  453   5.780   8.062   8.062
   15DA     O4'  454   5.970   8.099   8.121
   15DA     C1'  455   6.021   8.158   8.242
   15DA     H1'  456   6.028   8.075   8.313
   15DA      N9  457   6.153   8.216   8.225
   15DA      C8  458   6.186   8.346   8.176
   15DA      H8  459   6.113   8.422   8.154
   15DA      N7  460   6.308   8.345   8.131
   15DA      C5  461   6.369   8.220   8.163
   15DA      C6  462   6.494   8.154   8.153
   15DA      N6  463   6.600   8.214   8.109
   15DA     H61  464   6.687   8.162   8.107
   15DA     H62  465   6.595   8.312   8.086
   15DA      N1  466   6.514   8.030   8.205
   15DA      C2  467   6.410   7.962   8.247
   15DA      H2  468   6.422   7.860   8.280
   15DA      N3  469   6.281   8.009   8.257
   15DA      C4  470   6.269   8.142   8.223
   15DA     C3'  471   5.787   8.207   8.207
   15DA     H3'  472   5.728   8.293   8.173
   15DA     C2'  473   5.910   8.252   8.291
   15DA    H2'1  474   5.926   8.355   8.261
   15DA    H2'2  475   5.900   8.242   8.399
   15DA     O3'  476   5.691   8.119   8.277
   16DT       P  477   5.632   8.156   8.422
   16DT     O1P  478   5.504   8.088   8.437
   16DT     O2P  479   5.636   8.302   8.442
   16DT     O5'  480   5.728   8.074   8.520
   16DT     C5'  481   5.766   8.126   8.651
   16DT    H5'1  482   5.694   8.093   8.726
   16DT    H5'2  483   5.770   8.234   8.639
   16DT     C4'  484   5.907   8.065   8.673
   16DT     H4'  485   5.914   7.956   8.664
   16DT     O4'  486   6.004   8.119   8.586
   16DT     C1'  487   6.123   8.116   8.656
   16DT     H1'  488   6.153   8.011   8.645
   16DT      N1  489   6.217   8.208   8.593
   16DT      C6  490   6.178   8.337   8.565
   16DT      H6  491   6.085   8.384   8.591
   16DT      C5  492   6.265   8.414   8.496
   16DT      C7  493   6.225   8.550   8.454
   16DT     H71  494   6.208   8.543   8.347
   16DT     H72  495   6.136   8.588   8.502
   16DT     H73  496   6.306   8.620   8.478
   16DT      C4  497   6.402   8.368   8.461
   16DT      O4  498   6.496   8.423   8.391
   16DT      N3  499   6.435   8.237   8.494
   16DT      H3  500   6.535   8.222   8.490
   16DT      C2  501   6.348   8.156   8.561
   16DT      O2  502   6.382   8.045   8.586
   16DT     C3'  503   5.965   8.090   8.822
   16DT     H3'  504   5.911   8.167   8.877
   16DT     C2'  505   6.102   8.154   8.800
   16DT    H2'1  506   6.085   8.261   8.801
   16DT    H2'2  507   6.164   8.116   8.881
   16DT     O3'  508   5.968   7.960   8.891
   17DA       P  509   5.992   7.948   9.042
   17DA     O1P  510   5.902   7.845   9.095
   17DA     O2P  511   5.997   8.083   9.102
   17DA     O5'  512   6.143   7.900   9.066
   17DA     C5'  513   6.198   7.781   9.014
   17DA    H5'1  514   6.182   7.775   8.907
   17DA    H5'2  515   6.150   7.697   9.065
   17DA     C4'  516   6.352   7.759   9.040
   17DA     H4'  517   6.373   7.658   9.003
   17DA     O4'  518   6.434   7.850   8.962
   17DA     C1'  519   6.490   7.941   9.064
   17DA     H1'  520   6.594   7.910   9.079
   17DA      N9  521   6.495   8.074   9.008
   17DA      C8  522   6.390   8.161   9.005
   17DA      H8  523   6.293   8.152   9.052
   17DA      N7  524   6.415   8.264   8.927
   17DA      C5  525   6.546   8.245   8.888
   17DA      C6  526   6.633   8.320   8.804
   17DA      N6  527   6.607   8.440   8.758
   17DA     H61  528   6.686   8.490   8.720
   17DA     H62  529   6.515   8.478   8.774
   17DA      N1  530   6.762   8.284   8.785
   17DA      C2  531   6.797   8.170   8.845
   17DA      H2  532   6.895   8.140   8.813
   17DA      N3  533   6.728   8.092   8.929
   17DA      C4  534   6.600   8.137   8.946
   17DA     C3'  535   6.387   7.775   9.189
   17DA     H3'  536   6.299   7.751   9.248
   17DA     C2'  537   6.426   7.919   9.203
   17DA    H2'1  538   6.340   7.984   9.219
   17DA    H2'2  539   6.503   7.926   9.279
   17DA     O3'  540   6.496   7.685   9.206
   18DC       P  541   6.554   7.645   9.349
   18DC     O1P  542   6.624   7.514   9.325
   18DC     O2P  543   6.439   7.648   9.452
   18DC     O5'  544   6.652   7.757   9.403
   18DC     C5'  545   6.786   7.772   9.339
   18DC    H5'1  546   6.783   7.746   9.233
   18DC    H5'2  547   6.846   7.694   9.386
   18DC     C4'  548   6.848   7.912   9.353
   18DC     H4'  549   6.951   7.906   9.318
   18DC     O4'  550   6.790   8.004   9.266
   18DC     C1'  551   6.808   8.128   9.327
   18DC     H1'  552   6.914   8.153   9.323
   18DC      N1  553   6.729   8.243   9.274
   18DC      C6  554   6.593   8.260   9.284
   18DC      H6  555   6.541   8.178   9.331
   18DC      C5  556   6.528   8.368   9.225
   18DC      H5  557   6.422   8.382   9.236
   18DC      C4  558   6.607   8.464   9.158
   18DC      N4  559   6.551   8.571   9.111
   18DC     H41  560   6.614   8.635   9.065
   18DC     H42  561   6.452   8.573   9.090
   18DC      N3  562   6.736   8.453   9.150
   18DC      C2  563   6.803   8.346   9.211
   18DC      O2  564   6.923   8.345   9.194
   18DC     C3'  565   6.845   7.962   9.498
   18DC     H3'  566   6.784   7.895   9.558
   18DC     C2'  567   6.777   8.099   9.472
   18DC    H2'1  568   6.668   8.095   9.484
   18DC    H2'2  569   6.809   8.172   9.546
   18DC     O3'  570   6.983   7.961   9.538
   19DA       P  571   7.054   8.066   9.634
   19DA     O1P  572   7.167   7.985   9.691
   19DA     O2P  573   6.967   8.129   9.731
   19DA     O5'  574   7.118   8.178   9.540
   19DA     C5'  575   7.209   8.146   9.439
   19DA    H5'1  576   7.160   8.117   9.346
   19DA    H5'2  577   7.269   8.059   9.467
   19DA     C4'  578   7.305   8.258   9.414
   19DA     H4'  579   7.381   8.219   9.347
   19DA     O4'  580   7.250   8.367   9.345
   19DA     C1'  581   7.246   8.486   9.432
   19DA     H1'  582   7.309   8.568   9.397
   19DA      N9  583   7.112   8.543   9.432
   19DA      C8  584   7.000   8.490   9.482
   19DA      H8  585   6.997   8.396   9.535
   19DA      N7  586   6.889   8.558   9.466
   19DA      C5  587   6.937   8.665   9.387
   19DA      C6  588   6.874   8.770   9.318
   19DA      N6  589   6.745   8.786   9.297
   19DA     H61  590   6.724   8.858   9.230
   19DA     H62  591   6.686   8.706   9.311
   19DA      N1  592   6.950   8.862   9.258
   19DA      C2  593   7.086   8.859   9.269
   19DA      H2  594   7.147   8.930   9.215
   19DA      N3  595   7.156   8.759   9.321
   19DA      C4  596   7.073   8.667   9.380
   19DA     C3'  597   7.379   8.313   9.534
   19DA     H3'  598   7.376   8.249   9.622
   19DA     C2'  599   7.287   8.439   9.570
   19DA    H2'1  600   7.198   8.412   9.627
   19DA    H2'2  601   7.348   8.515   9.620
   19DA     O3'  602   7.513   8.356   9.505
   20DT       P  603   7.601   8.458   9.601
   20DT     O1P  604   7.744   8.434   9.582
   20DT     O2P  605   7.551   8.440   9.741
   20DT     O5'  606   7.575   8.604   9.550
   20DT     C5'  607   7.606   8.637   9.414
   20DT    H5'1  608   7.550   8.573   9.346
   20DT    H5'2  609   7.713   8.619   9.401
   20DT     C4'  610   7.596   8.790   9.381
   20DT     H4'  611   7.647   8.799   9.285
   20DT     O4'  612   7.457   8.829   9.377
   20DT     C1'  613   7.432   8.958   9.437
   20DT     H1'  614   7.429   9.024   9.350
   20DT      N1  615   7.304   8.959   9.521
   20DT      C6  616   7.269   8.853   9.602
   20DT      H6  617   7.346   8.785   9.635
   20DT      C5  618   7.141   8.841   9.645
   20DT      C7  619   7.110   8.739   9.752
   20DT     H71  620   7.005   8.709   9.754
   20DT     H72  621   7.158   8.643   9.738
   20DT     H73  622   7.142   8.764   9.853
   20DT      C4  623   7.046   8.947   9.614
   20DT      O4  624   6.926   8.957   9.647
   20DT      N3  625   7.091   9.049   9.534
   20DT      H3  626   7.021   9.108   9.492
   20DT      C2  627   7.214   9.054   9.472
   20DT      O2  628   7.238   9.146   9.394
   20DT     C3'  629   7.654   8.895   9.473
   20DT     H3'  630   7.708   8.843   9.552
   20DT     C2'  631   7.542   8.978   9.536
   20DT    H2'1  632   7.517   8.929   9.631
   20DT    H2'2  633   7.571   9.081   9.554
   20DT     O3'  634   7.744   8.982   9.405
   21DT       P  635   7.840   9.088   9.475
   21DT     O1P  636   7.968   9.088   9.401
   21DT     O2P  637   7.849   9.060   9.622
   21DT     O5'  638   7.774   9.239   9.449
   21DT     C5'  639   7.726   9.292   9.321
   21DT    H5'1  640   7.669   9.209   9.282
   21DT    H5'2  641   7.809   9.322   9.257
   21DT     C4'  642   7.621   9.410   9.336
   21DT     H4'  643   7.595   9.449   9.237
   21DT     O4'  644   7.501   9.361   9.393
   21DT     C1'  645   7.448   9.457   9.489
   21DT     H1'  646   7.392   9.529   9.430
   21DT      N1  647   7.359   9.375   9.576
   21DT      C6  648   7.403   9.294   9.677
   21DT      H6  649   7.508   9.269   9.690
   21DT      C5  650   7.312   9.243   9.760
   21DT      C7  651   7.359   9.146   9.867
   21DT     H71  652   7.467   9.152   9.883
   21DT     H72  653   7.313   9.185   9.958
   21DT     H73  654   7.328   9.045   9.838
   21DT      C4  655   7.172   9.282   9.751
   21DT      O4  656   7.079   9.219   9.807
   21DT      N3  657   7.136   9.380   9.660
   21DT      H3  658   7.040   9.390   9.631
   21DT      C2  659   7.228   9.422   9.567
   21DT      O2  660   7.183   9.489   9.482
   21DT     C3'  661   7.674   9.519   9.427
   21DT     H3'  662   7.775   9.498   9.465
   21DT     C2'  663   7.578   9.510   9.543
   21DT    H2'1  664   7.616   9.432   9.609
   21DT    H2'2  665   7.574   9.604   9.599
   21DT     O3'  666   7.674   9.643   9.353
   22DG       P  667   7.670   9.784   9.423
   22DG     O1P  668   7.723   9.887   9.334
   22DG     O2P  669   7.747   9.761   9.556
   22DG     O5'  670   7.521   9.823   9.456
   22DG     C5'  671   7.442   9.850   9.343
   22DG    H5'1  672   7.404   9.751   9.319
   22DG    H5'2  673   7.512   9.879   9.265
   22DG     C4'  674   7.324   9.945   9.364
   22DG     H4'  675   7.283   9.972   9.267
   22DG     O4'  676   7.226   9.867   9.442
   22DG     C1'  677   7.223   9.927   9.572
   22DG     H1'  678   7.134   9.989   9.570
   22DG      N9  679   7.212   9.816   9.674
   22DG      C8  680   7.317   9.738   9.713
   22DG      H8  681   7.416   9.748   9.669
   22DG      N7  682   7.285   9.651   9.798
   22DG      C5  683   7.142   9.672   9.813
   22DG      C6  684   7.049   9.605   9.896
   22DG      O6  685   7.065   9.512   9.975
   22DG      N1  686   6.926   9.664   9.895
   22DG      H1  687   6.858   9.625   9.959
   22DG      C2  688   6.887   9.766   9.808
   22DG      N2  689   6.763   9.810   9.818
   22DG     H21  690   6.697   9.761   9.877
   22DG     H22  691   6.744   9.900   9.777
   22DG      N3  692   6.972   9.832   9.726
   22DG      C4  693   7.099   9.777   9.736
   22DG     C3'  694   7.368  10.068   9.444
   22DG     H3'  695   7.472  10.101   9.434
   22DG     C2'  696   7.343  10.025   9.592
   22DG    H2'1  697   7.427   9.964   9.626
   22DG    H2'2  698   7.334  10.112   9.657
   22DG     O3'  699   7.286  10.177   9.398
   23DT       P  700   7.262  10.321   9.482
   23DT     O1P  701   7.202  10.422   9.389
   23DT     O2P  702   7.396  10.355   9.537
   23DT     O5'  703   7.163  10.301   9.605
   23DT     C5'  704   7.025  10.327   9.595
   23DT    H5'1  705   6.980  10.257   9.525
   23DT    H5'2  706   7.008  10.430   9.564
   23DT     C4'  707   6.948  10.309   9.733
   23DT     H4'  708   6.844  10.330   9.709
   23DT     O4'  709   6.970  10.181   9.793
   23DT     C1'  710   6.997  10.209   9.930
   23DT     H1'  711   6.897  10.232   9.966
   23DT      N1  712   7.069  10.093   9.991
   23DT      C6  713   7.204  10.061   9.958
   23DT      H6  714   7.253  10.122   9.883
   23DT      C5  715   7.270   9.959  10.020
   23DT      C7  716   7.418   9.918   9.992
   23DT     H71  717   7.446   9.978   9.905
   23DT     H72  718   7.483   9.932  10.078
   23DT     H73  719   7.421   9.815   9.957
   23DT      C4  720   7.196   9.873  10.119
   23DT      O4  721   7.236   9.776  10.184
   23DT      N3  722   7.068   9.905  10.130
   23DT      H3  723   7.014   9.839  10.184
   23DT      C2  724   6.998  10.008  10.073
   23DT      O2  725   6.875  10.019  10.081
   23DT     C3'  726   6.996  10.420   9.830
   23DT     H3'  727   7.062  10.494   9.787
   23DT     C2'  728   7.079  10.340   9.931
   23DT    H2'1  729   7.176  10.313   9.889
   23DT    H2'2  730   7.090  10.389  10.028
   23DT     O3'  731   6.882  10.477   9.895
   24DA       P  732   6.852  10.634   9.888
   24DA     O1P  733   6.805  10.679   9.752
   24DA     O2P  734   6.965  10.701   9.946
   24DA     O5'  735   6.736  10.642  10.004
   24DA     C5'  736   6.602  10.590   9.978
   24DA    H5'1  737   6.604  10.501   9.915
   24DA    H5'2  738   6.546  10.670   9.929
   24DA     C4'  739   6.516  10.552  10.095
   24DA     H4'  740   6.419  10.536  10.047
   24DA     O4'  741   6.560  10.427  10.145
   24DA     C1'  742   6.602  10.456  10.277
   24DA     H1'  743   6.539  10.408  10.351
   24DA      N9  744   6.739  10.404  10.288
   24DA      C8  745   6.859  10.454  10.239
   24DA      H8  746   6.862  10.534  10.167
   24DA      N7  747   6.963  10.384  10.272
   24DA      C5  748   6.913  10.281  10.349
   24DA      C6  749   6.972  10.170  10.419
   24DA      N6  750   7.104  10.139  10.422
   24DA     H61  751   7.114  10.055  10.476
   24DA     H62  752   7.173  10.204  10.385
   24DA      N1  753   6.887  10.086  10.479
   24DA      C2  754   6.761  10.113  10.482
   24DA      H2  755   6.700  10.038  10.531
   24DA      N3  756   6.692  10.208  10.430
   24DA      C4  757   6.776  10.296  10.366
   24DA     C3'  758   6.503  10.662  10.201
   24DA     H3'  759   6.536  10.755  10.156
   24DA     C2'  760   6.599  10.609  10.304
   24DA    H2'1  761   6.698  10.652  10.289
   24DA    H2'2  762   6.578  10.623  10.410
   24DA     O3'  763   6.365  10.674  10.227
   25DC       P  764   6.307  10.750  10.356
   25DC     O1P  765   6.161  10.761  10.341
   25DC     O2P  766   6.372  10.878  10.363
   25DC     O5'  767   6.355  10.670  10.485
   25DC     C5'  768   6.283  10.561  10.537
   25DC    H5'1  769   6.256  10.485  10.464
   25DC    H5'2  770   6.184  10.596  10.567
   25DC     C4'  771   6.357  10.502  10.655
   25DC     H4'  772   6.302  10.415  10.693
   25DC     O4'  773   6.490  10.452  10.620
   25DC     C1'  774   6.572  10.501  10.725
   25DC     H1'  775   6.553  10.442  10.814
   25DC      N1  776   6.714  10.478  10.702
   25DC      C6  777   6.797  10.570  10.639
   25DC      H6  778   6.760  10.670  10.621
   25DC      C5  779   6.929  10.548  10.619
   25DC      H5  780   6.999  10.622  10.582
   25DC      C4  781   6.978  10.417  10.657
   25DC      N4  782   7.101  10.388  10.632
   25DC     H41  783   7.145  10.301  10.660
   25DC     H42  784   7.171  10.452  10.595
   25DC      N3  785   6.902  10.331  10.718
   25DC      C2  786   6.770  10.359  10.748
   25DC      O2  787   6.702  10.282  10.816
   25DC     C3'  788   6.378  10.609  10.767
   25DC     H3'  789   6.322  10.700  10.748
   25DC     C2'  790   6.527  10.640  10.756
   25DC    H2'1  791   6.542  10.696  10.663
   25DC    H2'2  792   6.565  10.683  10.848
   25DC     O3'  793   6.338  10.549  10.887
   26DG       P  794   6.190  10.556  10.945
   26DG     O1P  795   6.093  10.501  10.846
   26DG     O2P  796   6.165  10.690  11.006
   26DG     O5'  797   6.178  10.457  11.062
   26DG     C5'  798   6.170  10.315  11.042
   26DG    H5'1  799   6.208  10.288  10.944
   26DG    H5'2  800   6.067  10.280  11.048
   26DG     C4'  801   6.268  10.242  11.132
   26DG     H4'  802   6.235  10.139  11.130
   26DG     O4'  803   6.403  10.258  11.090
   26DG     C1'  804   6.472  10.311  11.194
   26DG     H1'  805   6.517  10.233  11.256
   26DG      N9  806   6.579  10.395  11.139
   26DG      C8  807   6.576  10.521  11.082
   26DG      H8  808   6.489  10.584  11.075
   26DG      N7  809   6.691  10.557  11.031
   26DG      C5  810   6.775  10.453  11.064
   26DG      C6  811   6.917  10.441  11.035
   26DG      O6  812   6.991  10.518  10.973
   26DG      N1  813   6.971  10.333  11.100
   26DG      H1  814   7.072  10.329  11.096
   26DG      C2  815   6.900  10.248  11.179
   26DG      N2  816   6.961  10.131  11.214
   26DG     H21  817   7.061  10.126  11.204
   26DG     H22  818   6.914  10.071  11.280
   26DG      N3  819   6.769  10.249  11.205
   26DG      C4  820   6.711  10.359  11.142
   26DG     C3'  821   6.255  10.299  11.278
   26DG     H3'  822   6.165  10.359  11.290
   26DG     C2'  823   6.379  10.385  11.286
   26DG    H2'1  824   6.355  10.488  11.260
   26DG    H2'2  825   6.416  10.375  11.388
   26DG     O3'  826   6.255  10.201  11.379
   27DC       P  827   6.217  10.225  11.535
   27DC     O1P  828   6.143  10.108  11.585
   27DC     O2P  829   6.157  10.358  11.546
   27DC     O5'  830   6.364  10.239  11.604
   27DC     C5'  831   6.439  10.122  11.631
   27DC    H5'1  832   6.419  10.064  11.540
   27DC    H5'2  833   6.401  10.073  11.721
   27DC     C4'  834   6.588  10.152  11.647
   27DC     H4'  835   6.639  10.056  11.652
   27DC     O4'  836   6.641  10.227  11.539
   27DC     C1'  837   6.710  10.334  11.593
   27DC     H1'  838   6.808  10.296  11.622
   27DC      N1  839   6.739  10.441  11.497
   27DC      C6  840   6.641  10.538  11.463
   27DC      H6  841   6.543  10.540  11.507
   27DC      C5  842   6.678  10.644  11.390
   27DC      H5  843   6.593  10.708  11.367
   27DC      C4  844   6.807  10.644  11.330
   27DC      N4  845   6.838  10.742  11.244
   27DC     H41  846   6.931  10.736  11.206
   27DC     H42  847   6.774  10.819  11.230
   27DC      N3  848   6.897  10.551  11.353
   27DC      C2  849   6.865  10.450  11.438
   27DC      O2  850   6.953  10.371  11.471
   27DC     C3'  851   6.606  10.230  11.779
   27DC     H3'  852   6.510  10.241  11.829
   27DC     C2'  853   6.642  10.371  11.721
   27DC    H2'1  854   6.549  10.422  11.695
   27DC    H2'2  855   6.709  10.431  11.784
   27DC     O3'  856   6.710  10.181  11.848
   28DA       P  857   6.689  10.058  11.948
   28DA     O1P  858   6.641   9.943  11.861
   28DA     O2P  859   6.620  10.097  12.074
   28DA     O5'  860   6.842  10.042  11.974
   28DA     C5'  861   6.922   9.960  11.892
   28DA    H5'1  862   6.886   9.950  11.789
   28DA    H5'2  863   6.910   9.860  11.934
   28DA     C4'  864   7.069   9.989  11.876
   28DA     H4'  865   7.128   9.908  11.835
   28DA     O4'  866   7.101  10.098  11.786
   28DA     C1'  867   7.161  10.208  11.853
   28DA     H1'  868   7.268  10.197  11.839
   28DA      N9  869   7.106  10.338  11.802
   28DA      C8  870   6.986  10.387  11.825
   28DA      H8  871   6.916  10.330  11.884
   28DA      N7  872   6.960  10.502  11.777
   28DA      C5  873   7.080  10.536  11.715
   28DA      C6  874   7.135  10.650  11.651
   28DA      N6  875   7.072  10.764  11.626
   28DA     H61  876   7.117  10.837  11.572
   28DA     H62  877   6.975  10.769  11.655
   28DA      N1  878   7.264  10.660  11.619
   28DA      C2  879   7.337  10.555  11.644
   28DA      H2  880   7.441  10.567  11.618
   28DA      N3  881   7.301  10.438  11.695
   28DA      C4  882   7.174  10.439  11.733
   28DA     C3'  883   7.128  10.032  12.011
   28DA     H3'  884   7.067  10.001  12.096
   28DA     C2'  885   7.132  10.182  12.005
   28DA    H2'1  886   7.035  10.227  12.025
   28DA    H2'2  887   7.203  10.238  12.067
   28DA     O3'  888   7.262   9.977  12.031
   29DT       P  889   7.365  10.020  12.147
   29DT     O1P  890   7.454   9.904  12.167
   29DT     O2P  891   7.290  10.073  12.264
   29DT     O5'  892   7.453  10.144  12.088
   29DT     C5'  893   7.544  10.122  11.987
   29DT    H5'1  894   7.502  10.117  11.886
   29DT    H5'2  895   7.583  10.021  12.001
   29DT     C4'  896   7.657  10.232  11.983
   29DT     H4'  897   7.732  10.184  11.920
   29DT     O4'  898   7.600  10.353  11.939
   29DT     C1'  899   7.599  10.449  12.045
   29DT     H1'  900   7.681  10.519  12.033
   29DT      N1  901   7.470  10.525  12.033
   29DT      C6  902   7.349  10.492  12.092
   29DT      H6  903   7.340  10.402  12.152
   29DT      C5  904   7.238  10.573  12.078
   29DT      C7  905   7.107  10.537  12.143
   29DT     H71  906   7.093  10.618  12.215
   29DT     H72  907   7.015  10.535  12.084
   29DT     H73  908   7.113  10.463  12.222
   29DT      C4  909   7.252  10.696  12.001
   29DT      O4  910   7.156  10.779  11.994
   29DT      N3  911   7.369  10.721  11.935
   29DT      H3  912   7.370  10.798  11.870
   29DT      C2  913   7.484  10.645  11.957
   29DT      O2  914   7.592  10.688  11.913
   29DT     C3'  915   7.713  10.256  12.130
   29DT     H3'  916   7.699  10.168  12.192
   29DT     C2'  917   7.626  10.374  12.177
   29DT    H2'1  918   7.542  10.322  12.223
   29DT    H2'2  919   7.679  10.433  12.252
   29DT     O3'  920   7.855  10.275  12.115
   30DA       P  921   7.950  10.315  12.241
   30DA     O1P  922   8.084  10.279  12.198
   30DA     O2P  923   7.895  10.253  12.363
   30DA     O5'  924   7.939  10.473  12.272
   30DA     C5'  925   7.980  10.571  12.179
   30DA    H5'1  926   7.939  10.558  12.079
   30DA    H5'2  927   8.089  10.581  12.175
   30DA     C4'  928   7.919  10.703  12.218
   30DA     H4'  929   7.971  10.774  12.153
   30DA     O4'  930   7.781  10.711  12.193
   30DA     C1'  931   7.755  10.846  12.224
   30DA     H1'  932   7.814  10.903  12.152
   30DA      N9  933   7.612  10.866  12.197
   30DA      C8  934   7.502  10.797  12.242
   30DA      H8  935   7.522  10.706  12.297
   30DA      N7  936   7.387  10.854  12.222
   30DA      C5  937   7.429  10.972  12.163
   30DA      C6  938   7.357  11.083  12.109
   30DA      N6  939   7.229  11.097  12.121
   30DA     H61  940   7.187  11.176  12.074
   30DA     H62  941   7.173  11.021  12.158
   30DA      N1  942   7.416  11.186  12.053
   30DA      C2  943   7.541  11.179  12.043
   30DA      H2  944   7.584  11.268  11.999
   30DA      N3  945   7.633  11.087  12.092
   30DA      C4  946   7.562  10.981  12.144
   30DA     C3'  947   7.932  10.764  12.363
   30DA     H3'  948   7.936  10.685  12.437
   30DA     C2'  949   7.812  10.860  12.372
   30DA    H2'1  950   7.739  10.819  12.442
   30DA    H2'2  951   7.840  10.964  12.389
   30DA     O3'  952   8.058  10.833  12.364
   31DT       P  953   8.134  10.908  12.483
   31DT     O1P  954   8.277  10.875  12.458
   31DT     O2P  955   8.067  10.872  12.606
   31DT     O5'  956   8.114  11.065  12.452
   31DT     C5'  957   8.163  11.129  12.339
   31DT    H5'1  958   8.162  11.072  12.246
   31DT    H5'2  959   8.271  11.141  12.351
   31DT     C4'  960   8.100  11.266  12.313
   31DT     H4'  961   8.150  11.313  12.229
   31DT     O4'  962   7.961  11.266  12.286
   31DT     C1'  963   7.888  11.363  12.371
   31DT     H1'  964   7.887  11.463  12.326
   31DT      N1  965   7.741  11.315  12.393
   31DT      C6  966   7.702  11.208  12.476
   31DT      H6  967   7.779  11.159  12.534
   31DT      C5  968   7.575  11.156  12.474
   31DT      C7  969   7.551  11.030  12.548
   31DT     H71  970   7.516  10.955  12.477
   31DT     H72  971   7.635  10.992  12.607
   31DT     H73  972   7.459  11.034  12.605
   31DT      C4  973   7.471  11.224  12.394
   31DT      O4  974   7.355  11.192  12.394
   31DT      N3  975   7.510  11.335  12.319
   31DT      H3  976   7.443  11.387  12.264
   31DT      C2  977   7.642  11.389  12.321
   31DT      O2  978   7.663  11.502  12.279
   31DT     C3'  979   8.117  11.360  12.435
   31DT     H3'  980   8.177  11.315  12.514
   31DT     C2'  981   7.974  11.380  12.492
   31DT    H2'1  982   7.957  11.310  12.574
   31DT    H2'2  983   7.966  11.480  12.535
   31DT     O3'  984   8.182  11.473  12.382
   32DG       P  985   8.237  11.594  12.478
   32DG     O1P  986   8.316  11.677  12.389
   32DG     O2P  987   8.305  11.542  12.601
   32DG     O5'  988   8.109  11.684  12.525
   32DG     C5'  989   8.043  11.757  12.421
   32DG    H5'1  990   8.043  11.711  12.322
   32DG    H5'2  991   8.097  11.852  12.415
   32DG     C4'  992   7.901  11.793  12.448
   32DG     H4'  993   7.864  11.852  12.364
   32DG     O4'  994   7.819  11.678  12.472
   32DG     C1'  995   7.705  11.739  12.520
   32DG     H1'  996   7.657  11.789  12.436
   32DG      N9  997   7.612  11.641  12.582
   32DG      C8  998   7.636  11.514  12.623
   32DG      H8  999   7.735  11.484  12.652
   32DG      N7 1000   7.531  11.456  12.670
   32DG      C5 1001   7.427  11.534  12.628
   32DG      C6 1002   7.287  11.516  12.634
   32DG      O6 1003   7.221  11.432  12.695
   32DG      N1 1004   7.217  11.618  12.574
   32DG      H1 1005   7.118  11.604  12.558
   32DG      C2 1006   7.278  11.727  12.524
   32DG      N2 1007   7.198  11.816  12.469
   32DG     H21 1008   7.098  11.805  12.459
   32DG     H22 1009   7.243  11.886  12.410
   32DG      N3 1010   7.408  11.746  12.511
   32DG      C4 1011   7.478  11.651  12.574
   32DG     C3' 1012   7.898  11.871  12.578
   32DG     H3' 1013   7.971  11.835  12.651
   32DG     C2' 1014   7.759  11.838  12.629
   32DG    H2'1 1015   7.754  11.786  12.725
   32DG    H2'2 1016   7.692  11.924  12.623
   32DG     O3' 1017   7.909  12.002  12.549
   33DC3      P 1018   7.957  12.106  12.656
   33DC3    O1P 1019   8.015  12.217  12.575
   33DC3    O2P 1020   8.032  12.040  12.763
   33DC3    O5' 1021   7.825  12.171  12.728
   33DC3    C5' 1022   7.715  12.226  12.649
   33DC3   H5'1 1023   7.691  12.177  12.555
   33DC3   H5'2 1024   7.744  12.329  12.628
   33DC3    C4' 1025   7.585  12.232  12.741
   33DC3    H4' 1026   7.511  12.290  12.686
   33DC3    O4' 1027   7.531  12.099  12.751
   33DC3    C1' 1028   7.491  12.069  12.883
   33DC3    H1' 1029   7.396  12.122  12.893
   33DC3     N1 1030   7.482  11.921  12.905
   33DC3     C6 1031   7.593  11.846  12.941
   33DC3     H6 1032   7.694  11.885  12.942
   33DC3     C5 1033   7.576  11.722  12.962
   33DC3     H5 1034   7.667  11.664  12.976
   33DC3     C4 1035   7.448  11.661  12.954
   33DC3     N4 1036   7.442  11.538  12.995
   33DC3    H41 1037   7.357  11.485  13.009
   33DC3    H42 1038   7.532  11.501  13.023
   33DC3     N3 1039   7.343  11.730  12.915
   33DC3     C2 1040   7.360  11.858  12.882
   33DC3     O2 1041   7.258  11.922  12.845
   33DC3    C3' 1042   7.603  12.276  12.893
   33DC3    H3' 1043   7.702  12.317  12.914
   33DC3    C2' 1044   7.586  12.148  12.975
   33DC3   H2'1 1045   7.687  12.112  12.993
   33DC3   H2'2 1046   7.537  12.169  13.071
   33DC3    O3' 1047   7.514  12.377  12.928
   33DC3    H3T 1048   7.566  12.457  12.940
   34DG5    H5T 1049   6.479  11.394  13.035
   34DG5    O5' 1050   6.383  11.386  13.033
   34DG5    C5' 1051   6.338  11.498  12.949
   34DG5   H5'1 1052   6.343  11.590  13.006
   34DG5   H5'2 1053   6.236  11.472  12.921
   34DG5    C4' 1054   6.432  11.522  12.830
   34DG5    H4' 1055   6.421  11.626  12.797
   34DG5    O4' 1056   6.562  11.523  12.873
   34DG5    C1' 1057   6.642  11.440  12.790
   34DG5    H1' 1058   6.668  11.504  12.707
   34DG5     N9 1059   6.762  11.402  12.864
   34DG5     C8 1060   6.813  11.283  12.897
   34DG5     H8 1061   6.763  11.189  12.884
   34DG5     N7 1062   6.924  11.282  12.963
   34DG5     C5 1063   6.966  11.416  12.951
   34DG5     C6 1064   7.086  11.485  12.991
   34DG5     O6 1065   7.184  11.445  13.053
   34DG5     N1 1066   7.086  11.615  12.947
   34DG5     H1 1067   7.173  11.665  12.958
   34DG5     C2 1068   6.975  11.678  12.901
   34DG5     N2 1069   6.996  11.802  12.869
   34DG5    H21 1070   7.088  11.842  12.879
   34DG5    H22 1071   6.914  11.847  12.831
   34DG5     N3 1072   6.863  11.623  12.858
   34DG5     C4 1073   6.864  11.490  12.887
   34DG5    C3' 1074   6.415  11.417  12.722
   34DG5    H3' 1075   6.330  11.353  12.748
   34DG5    C2' 1076   6.541  11.334  12.749
   34DG5   H2'1 1077   6.520  11.265  12.831
   34DG5   H2'2 1078   6.569  11.275  12.662
   34DG5    O3' 1079   6.409  11.466  12.589
   35DC       P 1080   6.270  11.494  12.519
   35DC     O1P 1081   6.168  11.519  12.620
   35DC     O2P 1082   6.243  11.390  12.413
   35DC     O5' 1083   6.283  11.634  12.440
   35DC     C5' 1084   6.326  11.752  12.505
   35DC    H5'1 1085   6.347  11.721  12.607
   35DC    H5'2 1086   6.242  11.823  12.508
   35DC     C4' 1087   6.445  11.822  12.442
   35DC     H4' 1088   6.440  11.924  12.480
   35DC     O4' 1089   6.563  11.754  12.484
   35DC     C1' 1090   6.647  11.724  12.376
   35DC     H1' 1091   6.720  11.803  12.356
   35DC      N1 1092   6.737  11.613  12.413
   35DC      C6 1093   6.697  11.482  12.410
   35DC      H6 1094   6.603  11.462  12.360
   35DC      C5 1095   6.768  11.382  12.466
   35DC      H5 1096   6.738  11.278  12.465
   35DC      C4 1097   6.894  11.424  12.528
   35DC      N4 1098   6.976  11.341  12.596
   35DC     H41 1099   7.065  11.379  12.627
   35DC     H42 1100   6.970  11.241  12.583
   35DC      N3 1101   6.939  11.550  12.521
   35DC      C2 1102   6.859  11.647  12.464
   35DC      O2 1103   6.907  11.764  12.463
   35DC     C3' 1104   6.445  11.818  12.283
   35DC     H3' 1105   6.347  11.791  12.242
   35DC     C2' 1106   6.550  11.710  12.266
   35DC    H2'1 1107   6.505  11.612  12.276
   35DC    H2'2 1108   6.603  11.732  12.173
   35DC     O3' 1109   6.494  11.940  12.220
   36DA       P 1110   6.499  11.977  12.068
   36DA     O1P 1111   6.424  12.100  12.044
   36DA     O2P 1112   6.458  11.863  11.986
   36DA     O5' 1113   6.661  11.998  12.046
   36DA     C5' 1114   6.739  12.103  12.113
   36DA    H5'1 1115   6.720  12.105  12.220
   36DA    H5'2 1116   6.710  12.203  12.080
   36DA     C4' 1117   6.887  12.084  12.086
   36DA     H4' 1118   6.944  12.175  12.105
   36DA     O4' 1119   6.938  11.969  12.151
   36DA     C1' 1120   7.004  11.889  12.056
   36DA     H1' 1121   7.108  11.921  12.055
   36DA      N9 1122   7.002  11.744  12.091
   36DA      C8 1123   6.896  11.659  12.086
   36DA      H8 1124   6.795  11.687  12.062
   36DA      N7 1125   6.920  11.538  12.136
   36DA      C5 1126   7.052  11.547  12.175
   36DA      C6 1127   7.140  11.457  12.244
   36DA      N6 1128   7.120  11.334  12.280
   36DA     H61 1129   7.194  11.290  12.333
   36DA     H62 1130   7.030  11.289  12.282
   36DA      N1 1131   7.272  11.491  12.257
   36DA      C2 1132   7.301  11.620  12.227
   36DA      H2 1133   7.405  11.636  12.248
   36DA      N3 1134   7.227  11.716  12.181
   36DA      C4 1135   7.102  11.675  12.157
   36DA     C3' 1136   6.905  12.061  11.936
   36DA     H3' 1137   6.817  12.086  11.878
   36DA     C2' 1138   6.951  11.918  11.924
   36DA    H2'1 1139   6.862  11.862  11.894
   36DA    H2'2 1140   7.026  11.902  11.847
   36DA     O3' 1141   7.014  12.145  11.892
   37DT       P 1142   7.045  12.168  11.741
   37DT     O1P 1143   7.085  12.311  11.731
   37DT     O2P 1144   6.935  12.111  11.664
   37DT     O5' 1145   7.169  12.071  11.712
   37DT     C5' 1146   7.277  12.089  11.804
   37DT    H5'1 1147   7.244  12.109  11.905
   37DT    H5'2 1148   7.334  12.173  11.766
   37DT     C4' 1149   7.382  11.974  11.801
   37DT     H4' 1150   7.473  12.005  11.851
   37DT     O4' 1151   7.322  11.867  11.866
   37DT     C1' 1152   7.365  11.751  11.797
   37DT     H1' 1153   7.470  11.731  11.817
   37DT      N1 1154   7.290  11.634  11.845
   37DT      C6 1155   7.159  11.618  11.796
   37DT      H6 1156   7.106  11.695  11.742
   37DT      C5 1157   7.085  11.510  11.827
   37DT      C7 1158   6.937  11.496  11.791
   37DT     H71 1159   6.907  11.580  11.728
   37DT     H72 1160   6.943  11.410  11.724
   37DT     H73 1161   6.880  11.483  11.882
   37DT      C4 1162   7.148  11.401  11.903
   37DT      O4 1163   7.105  11.291  11.940
   37DT      N3 1164   7.275  11.429  11.944
   37DT      H3 1165   7.311  11.351  11.998
   37DT      C2 1166   7.353  11.532  11.911
   37DT      O2 1167   7.476  11.518  11.917
   37DT     C3' 1168   7.430  11.926  11.663
   37DT     H3' 1169   7.391  11.987  11.582
   37DT     C2' 1170   7.368  11.784  11.647
   37DT    H2'1 1171   7.269  11.783  11.602
   37DT    H2'2 1172   7.442  11.718  11.600
   37DT     O3' 1173   7.573  11.931  11.674
   38DA       P 1174   7.666  11.924  11.539
   38DA     O1P 1175   7.804  11.960  11.573
   38DA     O2P 1176   7.601  11.984  11.427
   38DA     O5' 1177   7.660  11.773  11.507
   38DA     C5' 1178   7.755  11.682  11.566
   38DA    H5'1 1179   7.745  11.703  11.672
   38DA    H5'2 1180   7.857  11.704  11.533
   38DA     C4' 1181   7.728  11.533  11.539
   38DA     H4' 1182   7.826  11.491  11.562
   38DA     O4' 1183   7.625  11.483  11.626
   38DA     C1' 1184   7.571  11.374  11.550
   38DA     H1' 1185   7.647  11.295  11.551
   38DA      N9 1186   7.439  11.319  11.607
   38DA      C8 1187   7.313  11.357  11.595
   38DA      H8 1188   7.277  11.441  11.539
   38DA      N7 1189   7.224  11.264  11.629
   38DA      C5 1190   7.304  11.169  11.685
   38DA      C6 1191   7.293  11.042  11.752
   38DA      N6 1192   7.178  10.999  11.797
   38DA     H61 1193   7.178  10.922  11.862
   38DA     H62 1194   7.101  11.059  11.772
   38DA      N1 1195   7.393  10.962  11.797
   38DA      C2 1196   7.514  11.009  11.769
   38DA      H2 1197   7.599  10.953  11.804
   38DA      N3 1198   7.543  11.126  11.709
   38DA      C4 1199   7.435  11.200  11.675
   38DA     C3' 1200   7.693  11.505  11.394
   38DA     H3' 1201   7.687  11.603  11.347
   38DA     C2' 1202   7.556  11.441  11.415
   38DA    H2'1 1203   7.477  11.514  11.426
   38DA    H2'2 1204   7.530  11.366  11.339
   38DA     O3' 1205   7.777  11.407  11.334
   39DT       P 1206   7.918  11.448  11.273
   39DT     O1P 1207   8.001  11.524  11.376
   39DT     O2P 1208   7.890  11.508  11.145
   39DT     O5' 1209   7.977  11.304  11.245
   39DT     C5' 1210   8.017  11.223  11.356
   39DT    H5'1 1211   8.008  11.286  11.444
   39DT    H5'2 1212   8.124  11.204  11.348
   39DT     C4' 1213   7.949  11.090  11.369
   39DT     H4' 1214   8.007  11.030  11.440
   39DT     O4' 1215   7.811  11.099  11.413
   39DT     C1' 1216   7.764  10.973  11.372
   39DT     H1' 1217   7.805  10.892  11.433
   39DT      N1 1218   7.617  10.968  11.383
   39DT      C6 1219   7.531  11.062  11.318
   39DT      H6 1220   7.580  11.146  11.271
   39DT      C5 1221   7.394  11.056  11.328
   39DT      C7 1222   7.310  11.165  11.264
   39DT     H71 1223   7.254  11.133  11.176
   39DT     H72 1224   7.246  11.210  11.340
   39DT     H73 1225   7.381  11.243  11.240
   39DT      C4 1226   7.334  10.958  11.414
   39DT      O4 1227   7.215  10.947  11.445
   39DT      N3 1228   7.422  10.874  11.490
   39DT      H3 1229   7.382  10.811  11.558
   39DT      C2 1230   7.560  10.868  11.472
   39DT      O2 1231   7.623  10.785  11.535
   39DT     C3' 1232   7.959  11.013  11.236
   39DT     H3' 1233   7.966  11.080  11.150
   39DT     C2' 1234   7.820  10.953  11.229
   39DT    H2'1 1235   7.768  11.001  11.146
   39DT    H2'2 1236   7.835  10.847  11.210
   39DT     O3' 1237   8.075  10.926  11.225
   40DG       P 1238   8.114  10.844  11.091
   40DG     O1P 1239   8.249  10.793  11.098
   40DG     O2P 1240   8.079  10.925  10.973
   40DG     O5' 1241   8.008  10.726  11.104
   40DG     C5' 1242   7.998  10.643  11.225
   40DG    H5'1 1243   7.993  10.701  11.318
   40DG    H5'2 1244   8.086  10.582  11.240
   40DG     C4' 1245   7.881  10.547  11.226
   40DG     H4' 1246   7.893  10.488  11.317
   40DG     O4' 1247   7.758  10.613  11.244
   40DG     C1' 1248   7.664  10.555  11.160
   40DG     H1' 1249   7.629  10.459  11.197
   40DG      N9 1250   7.549  10.643  11.148
   40DG      C8 1251   7.540  10.768  11.089
   40DG      H8 1252   7.620  10.806  11.029
   40DG      N7 1253   7.422  10.819  11.090
   40DG      C5 1254   7.346  10.717  11.158
   40DG      C6 1255   7.206  10.707  11.192
   40DG      O6 1256   7.117  10.786  11.158
   40DG      N1 1257   7.172  10.594  11.268
   40DG      H1 1258   7.078  10.598  11.305
   40DG      C2 1259   7.259  10.491  11.292
   40DG      N2 1260   7.217  10.385  11.362
   40DG     H21 1261   7.122  10.384  11.396
   40DG     H22 1262   7.278  10.308  11.385
   40DG      N3 1263   7.385  10.492  11.263
   40DG      C4 1264   7.423  10.610  11.198
   40DG     C3' 1265   7.864  10.468  11.093
   40DG     H3' 1266   7.951  10.473  11.028
   40DG     C2' 1267   7.745  10.537  11.030
   40DG    H2'1 1268   7.774  10.630  10.980
   40DG    H2'2 1269   7.686  10.476  10.961
   40DG     O3' 1270   7.829  10.336  11.110
   41DC       P 1271   7.928  10.220  11.097
   41DC     O1P 1272   8.051  10.265  11.166
   41DC     O2P 1273   7.934  10.181  10.953
   41DC     O5' 1274   7.866  10.090  11.168
   41DC     C5' 1275   7.846  10.082  11.304
   41DC    H5'1 1276   7.823  10.179  11.348
   41DC    H5'2 1277   7.927  10.033  11.357
   41DC     C4' 1278   7.717  10.000  11.343
   41DC     H4' 1279   7.732   9.977  11.448
   41DC     O4' 1280   7.606  10.087  11.321
   41DC     C1' 1281   7.514  10.023  11.238
   41DC     H1' 1282   7.447   9.963  11.300
   41DC      N1 1283   7.446  10.125  11.158
   41DC      C6 1284   7.517  10.188  11.058
   41DC      H6 1285   7.623  10.174  11.044
   41DC      C5 1286   7.449  10.269  10.973
   41DC      H5 1287   7.497  10.325  10.894
   41DC      C4 1288   7.312  10.289  10.999
   41DC      N4 1289   7.255  10.388  10.936
   41DC     H41 1290   7.155  10.400  10.948
   41DC     H42 1291   7.306  10.434  10.863
   41DC      N3 1292   7.241  10.226  11.091
   41DC      C2 1293   7.307  10.142  11.174
   41DC      O2 1294   7.242  10.088  11.260
   41DC     C3' 1295   7.703   9.880  11.253
   41DC     H3' 1296   7.795   9.856  11.200
   41DC     C2' 1297   7.597   9.930  11.153
   41DC    H2'1 1298   7.654   9.978  11.073
   41DC    H2'2 1299   7.540   9.848  11.110
   41DC     O3' 1300   7.660   9.767  11.332
   42DG       P 1301   7.612   9.637  11.260
   42DG     O1P 1302   7.627   9.523  11.355
   42DG     O2P 1303   7.673   9.632  11.126
   42DG     O5' 1304   7.459   9.656  11.248
   42DG     C5' 1305   7.381   9.670  11.363
   42DG    H5'1 1306   7.384   9.773  11.399
   42DG    H5'2 1307   7.402   9.601  11.445
   42DG     C4' 1308   7.236   9.643  11.346
   42DG     H4' 1309   7.192   9.653  11.445
   42DG     O4' 1310   7.191   9.750  11.263
   42DG     C1' 1311   7.146   9.686  11.138
   42DG     H1' 1312   7.038   9.675  11.145
   42DG      N9 1313   7.190   9.773  11.025
   42DG      C8 1314   7.309   9.777  10.962
   42DG      H8 1315   7.388   9.706  10.982
   42DG      N7 1316   7.326   9.879  10.883
   42DG      C5 1317   7.199   9.943  10.886
   42DG      C6 1318   7.143  10.055  10.812
   42DG      O6 1319   7.194  10.136  10.727
   42DG      N1 1320   7.010  10.076  10.833
   42DG      H1 1321   6.973  10.164  10.801
   42DG      C2 1322   6.936  10.003  10.913
   42DG      N2 1323   6.812  10.024  10.922
   42DG     H21 1324   6.768  10.111  10.894
   42DG     H22 1325   6.756   9.944  10.946
   42DG      N3 1326   6.981   9.903  10.991
   42DG      C4 1327   7.114   9.875  10.967
   42DG     C3' 1328   7.197   9.508  11.285
   42DG     H3' 1329   7.279   9.438  11.303
   42DG     C2' 1330   7.198   9.540  11.137
   42DG    H2'1 1331   7.303   9.541  11.110
   42DG    H2'2 1332   7.129   9.478  11.080
   42DG     O3' 1333   7.077   9.449  11.336
   43DT       P 1334   7.017   9.317  11.275
   43DT     O1P 1335   6.919   9.270  11.375
   43DT     O2P 1336   7.124   9.228  11.232
   43DT     O5' 1337   6.935   9.361  11.147
   43DT     C5' 1338   6.819   9.441  11.163
   43DT    H5'1 1339   6.836   9.538  11.211
   43DT    H5'2 1340   6.740   9.381  11.207
   43DT     C4' 1341   6.783   9.495  11.025
   43DT     H4' 1342   6.685   9.543  11.033
   43DT     O4' 1343   6.875   9.591  10.968
   43DT     C1' 1344   6.821   9.614  10.840
   43DT     H1' 1345   6.740   9.685  10.856
   43DT      N1 1346   6.926   9.669  10.747
   43DT      C6 1347   7.055   9.612  10.732
   43DT      H6 1348   7.080   9.517  10.777
   43DT      C5 1349   7.151   9.682  10.663
   43DT      C7 1350   7.291   9.616  10.646
   43DT     H71 1351   7.285   9.511  10.674
   43DT     H72 1352   7.321   9.631  10.542
   43DT     H73 1353   7.365   9.677  10.699
   43DT      C4 1354   7.119   9.803  10.594
   43DT      O4 1355   7.193   9.869  10.515
   43DT      N3 1356   6.989   9.845  10.598
   43DT      H3 1357   6.949   9.914  10.536
   43DT      C2 1358   6.893   9.780  10.668
   43DT      O2 1359   6.775   9.818  10.664
   43DT     C3' 1360   6.776   9.391  10.916
   43DT     H3' 1361   6.868   9.333  10.913
   43DT     C2' 1362   6.773   9.478  10.792
   43DT    H2'1 1363   6.834   9.442  10.710
   43DT    H2'2 1364   6.674   9.495  10.748
   43DT     O3' 1365   6.665   9.317  10.925
   44DA       P 1366   6.612   9.215  10.821
   44DA     O1P 1367   6.525   9.129  10.897
   44DA     O2P 1368   6.718   9.156  10.736
   44DA     O5' 1369   6.523   9.301  10.714
   44DA     C5' 1370   6.415   9.384  10.758
   44DA    H5'1 1371   6.338   9.314  10.791
   44DA    H5'2 1372   6.446   9.450  10.840
   44DA     C4' 1373   6.356   9.463  10.642
   44DA     H4' 1374   6.287   9.534  10.687
   44DA     O4' 1375   6.450   9.542  10.573
   44DA     C1' 1376   6.469   9.492  10.445
   44DA     H1' 1377   6.437   9.562  10.368
   44DA      N9 1378   6.618   9.476  10.433
   44DA      C8 1379   6.701   9.374  10.473
   44DA      H8 1380   6.660   9.286  10.522
   44DA      N7 1381   6.827   9.382  10.442
   44DA      C5 1382   6.828   9.512  10.387
   44DA      C6 1383   6.931   9.594  10.332
   44DA      N6 1384   7.054   9.563  10.315
   44DA     H61 1385   7.105   9.629  10.259
   44DA     H62 1386   7.083   9.466  10.327
   44DA      N1 1387   6.906   9.720  10.294
   44DA      C2 1388   6.777   9.753  10.300
   44DA      H2 1389   6.757   9.855  10.273
   44DA      N3 1390   6.670   9.690  10.335
   44DA      C4 1391   6.706   9.570  10.382
   44DA     C3' 1392   6.286   9.366  10.549
   44DA     H3' 1393   6.265   9.267  10.590
   44DA     C2' 1394   6.384   9.361  10.431
   44DA    H2'1 1395   6.454   9.280  10.446
   44DA    H2'2 1396   6.335   9.336  10.337
   44DA     O3' 1397   6.158   9.416  10.517
   45DC       P 1398   6.049   9.343  10.426
   45DC     O1P 1399   5.918   9.399  10.449
   45DC     O2P 1400   6.062   9.203  10.436
   45DC     O5' 1401   6.075   9.381  10.274
   45DC     C5' 1402   6.069   9.523  10.240
   45DC    H5'1 1403   6.091   9.583  10.328
   45DC    H5'2 1404   5.968   9.551  10.212
   45DC     C4' 1405   6.162   9.559  10.129
   45DC     H4' 1406   6.160   9.665  10.103
   45DC     O4' 1407   6.300   9.531  10.165
   45DC     C1' 1408   6.369   9.491  10.050
   45DC     H1' 1409   6.372   9.576   9.982
   45DC      N1 1410   6.504   9.442  10.069
   45DC      C6 1411   6.526   9.319  10.120
   45DC      H6 1412   6.445   9.256  10.156
   45DC      C5 1413   6.654   9.271  10.124
   45DC      H5 1414   6.681   9.177  10.169
   45DC      C4 1415   6.756   9.356  10.074
   45DC      N4 1416   6.883   9.323  10.080
   45DC     H41 1417   6.946   9.393  10.043
   45DC     H42 1418   6.908   9.227  10.099
   45DC      N3 1419   6.736   9.478  10.031
   45DC      C2 1420   6.614   9.524  10.020
   45DC      O2 1421   6.598   9.642   9.973
   45DC     C3' 1422   6.135   9.478   9.995
   45DC     H3' 1423   6.050   9.411   9.998
   45DC     C2' 1424   6.267   9.400   9.984
   45DC    H2'1 1425   6.244   9.310  10.041
   45DC    H2'2 1426   6.292   9.367   9.883
   45DC     O3' 1427   6.148   9.564   9.882
   46DA       P 1428   6.052   9.546   9.755
   46DA     O1P 1429   5.917   9.582   9.787
   46DA     O2P 1430   6.086   9.415   9.709
   46DA     O5' 1431   6.093   9.645   9.642
   46DA     C5' 1432   6.129   9.776   9.678
   46DA    H5'1 1433   6.046   9.847   9.673
   46DA    H5'2 1434   6.164   9.786   9.781
   46DA     C4' 1435   6.234   9.839   9.598
   46DA     H4' 1436   6.214   9.946   9.605
   46DA     O4' 1437   6.364   9.801   9.630
   46DA     C1' 1438   6.436   9.724   9.535
   46DA     H1' 1439   6.512   9.792   9.498
   46DA      N9 1440   6.492   9.600   9.598
   46DA      C8 1441   6.432   9.502   9.678
   46DA      H8 1442   6.326   9.488   9.692
   46DA      N7 1443   6.516   9.415   9.724
   46DA      C5 1444   6.640   9.459   9.673
   46DA      C6 1445   6.767   9.411   9.686
   46DA      N6 1446   6.792   9.296   9.743
   46DA     H61 1447   6.887   9.262   9.755
   46DA     H62 1448   6.707   9.249   9.772
   46DA      N1 1449   6.868   9.472   9.628
   46DA      C2 1450   6.843   9.580   9.559
   46DA      H2 1451   6.931   9.625   9.515
   46DA      N3 1452   6.726   9.631   9.526
   46DA      C4 1453   6.624   9.568   9.592
   46DA     C3' 1454   6.217   9.804   9.451
   46DA     H3' 1455   6.117   9.764   9.437
   46DA     C2' 1456   6.321   9.694   9.441
   46DA    H2'1 1457   6.276   9.600   9.474
   46DA    H2'2 1458   6.353   9.687   9.337
   46DA     O3' 1459   6.245   9.919   9.372
   47DA       P 1460   6.212   9.912   9.214
   47DA     O1P 1461   6.201  10.047   9.157
   47DA     O2P 1462   6.096   9.819   9.190
   47DA     O5' 1463   6.344   9.839   9.160
   47DA     C5' 1464   6.467   9.905   9.163
   47DA    H5'1 1465   6.486   9.936   9.266
   47DA    H5'2 1466   6.457   9.990   9.097
   47DA     C4' 1467   6.586   9.819   9.127
   47DA     H4' 1468   6.680   9.874   9.131
   47DA     O4' 1469   6.589   9.713   9.225
   47DA     C1' 1470   6.664   9.605   9.174
   47DA     H1' 1471   6.772   9.621   9.174
   47DA      N9 1472   6.640   9.477   9.245
   47DA      C8 1473   6.522   9.425   9.291
   47DA      H8 1474   6.424   9.463   9.268
   47DA      N7 1475   6.533   9.314   9.358
   47DA      C5 1476   6.671   9.294   9.359
   47DA      C6 1477   6.754   9.192   9.417
   47DA      N6 1478   6.725   9.092   9.489
   47DA     H61 1479   6.802   9.034   9.520
   47DA     H62 1480   6.635   9.080   9.534
   47DA      N1 1481   6.889   9.208   9.398
   47DA      C2 1482   6.935   9.306   9.325
   47DA      H2 1483   7.042   9.303   9.311
   47DA      N3 1484   6.869   9.399   9.264
   47DA      C4 1485   6.737   9.389   9.288
   47DA     C3' 1486   6.578   9.742   8.993
   47DA     H3' 1487   6.472   9.753   8.970
   47DA     C2' 1488   6.621   9.596   9.023
   47DA    H2'1 1489   6.538   9.528   9.003
   47DA    H2'2 1490   6.714   9.572   8.972
   47DA     O3' 1491   6.652   9.810   8.889
   48DT       P 1492   6.663   9.747   8.736
   48DT     O1P 1493   6.692   9.842   8.627
   48DT     O2P 1494   6.558   9.650   8.715
   48DT     O5' 1495   6.785   9.653   8.732
   48DT     C5' 1496   6.911   9.708   8.766
   48DT    H5'1 1497   6.897   9.757   8.862
   48DT    H5'2 1498   6.933   9.778   8.686
   48DT     C4' 1499   7.017   9.605   8.791
   48DT     H4' 1500   7.104   9.656   8.832
   48DT     O4' 1501   6.975   9.523   8.894
   48DT     C1' 1502   7.008   9.392   8.870
   48DT     H1' 1503   7.111   9.373   8.902
   48DT      N1 1504   6.908   9.303   8.941
   48DT      C6 1505   6.770   9.303   8.916
   48DT      H6 1506   6.728   9.376   8.848
   48DT      C5 1507   6.690   9.211   8.972
   48DT      C7 1508   6.546   9.215   8.955
   48DT     H71 1509   6.499   9.240   9.050
   48DT     H72 1510   6.515   9.287   8.879
   48DT     H73 1511   6.506   9.116   8.929
   48DT      C4 1512   6.735   9.115   9.071
   48DT      O4 1513   6.668   9.040   9.142
   48DT      N3 1514   6.862   9.116   9.095
   48DT      H3 1515   6.902   9.044   9.154
   48DT      C2 1516   6.954   9.201   9.030
   48DT      O2 1517   7.073   9.187   9.053
   48DT     C3' 1518   7.041   9.510   8.666
   48DT     H3' 1519   6.988   9.539   8.576
   48DT     C2' 1520   6.984   9.379   8.718
   48DT    H2'1 1521   6.878   9.372   8.696
   48DT    H2'2 1522   7.041   9.290   8.691
   48DT     O3' 1523   7.184   9.517   8.640
   49DG       P 1524   7.248   9.420   8.529
   49DG     O1P 1525   7.372   9.491   8.490
   49DG     O2P 1526   7.151   9.396   8.423
   49DG     O5' 1527   7.279   9.287   8.614
   49DG     C5' 1528   7.351   9.287   8.731
   49DG    H5'1 1529   7.303   9.337   8.816
   49DG    H5'2 1530   7.439   9.349   8.712
   49DG     C4' 1531   7.402   9.150   8.766
   49DG     H4' 1532   7.492   9.172   8.823
   49DG     O4' 1533   7.311   9.072   8.840
   49DG     C1' 1534   7.285   8.946   8.780
   49DG     H1' 1535   7.346   8.873   8.833
   49DG      N9 1536   7.140   8.921   8.800
   49DG      C8 1537   7.043   8.997   8.747
   49DG      H8 1538   7.064   9.077   8.678
   49DG      N7 1539   6.922   8.959   8.770
   49DG      C5 1540   6.945   8.846   8.855
   49DG      C6 1541   6.856   8.761   8.938
   49DG      O6 1542   6.733   8.761   8.945
   49DG      N1 1543   6.916   8.658   9.004
   49DG      H1 1544   6.862   8.603   9.070
   49DG      C2 1545   7.055   8.642   9.016
   49DG      N2 1546   7.092   8.528   9.060
   49DG     H21 1547   7.019   8.462   9.084
   49DG     H22 1548   7.190   8.503   9.061
   49DG      N3 1549   7.138   8.721   8.956
   49DG      C4 1550   7.077   8.822   8.877
   49DG     C3' 1551   7.452   9.057   8.646
   49DG     H3' 1552   7.463   9.111   8.552
   49DG     C2' 1553   7.327   8.962   8.631
   49DG    H2'1 1554   7.255   9.026   8.581
   49DG    H2'2 1555   7.352   8.877   8.568
   49DG     O3' 1556   7.577   8.982   8.669
   50DT       P 1557   7.639   8.892   8.558
   50DT     O1P 1558   7.785   8.895   8.561
   50DT     O2P 1559   7.578   8.924   8.429
   50DT     O5' 1560   7.588   8.753   8.596
   50DT     C5' 1561   7.615   8.702   8.726
   50DT    H5'1 1562   7.574   8.771   8.799
   50DT    H5'2 1563   7.723   8.694   8.739
   50DT     C4' 1564   7.546   8.569   8.744
   50DT     H4' 1565   7.585   8.522   8.835
   50DT     O4' 1566   7.410   8.592   8.765
   50DT     C1' 1567   7.342   8.500   8.680
   50DT     H1' 1568   7.351   8.401   8.725
   50DT      N1 1569   7.202   8.527   8.653
   50DT      C6 1570   7.163   8.621   8.557
   50DT      H6 1571   7.237   8.683   8.508
   50DT      C5 1572   7.034   8.659   8.538
   50DT      C7 1573   7.004   8.775   8.438
   50DT     H71 1574   6.947   8.851   8.491
   50DT     H72 1575   7.090   8.823   8.392
   50DT     H73 1576   6.942   8.743   8.354
   50DT      C4 1577   6.926   8.585   8.607
   50DT      O4 1578   6.806   8.615   8.623
   50DT      N3 1579   6.970   8.481   8.687
   50DT      H3 1580   6.904   8.421   8.735
   50DT      C2 1581   7.103   8.446   8.711
   50DT      O2 1582   7.132   8.353   8.787
   50DT     C3' 1583   7.566   8.468   8.636
   50DT     H3' 1584   7.650   8.483   8.567
   50DT     C2' 1585   7.434   8.482   8.554
   50DT    H2'1 1586   7.420   8.574   8.498
   50DT    H2'2 1587   7.416   8.396   8.489
   50DT     O3' 1588   7.581   8.346   8.704
   51DA       P 1589   7.603   8.206   8.629
   51DA     O1P 1590   7.713   8.142   8.705
   51DA     O2P 1591   7.616   8.225   8.480
   51DA     O5' 1592   7.474   8.120   8.660
   51DA     C5' 1593   7.460   8.066   8.790
   51DA    H5'1 1594   7.452   8.151   8.859
   51DA    H5'2 1595   7.543   8.002   8.820
   51DA     C4' 1596   7.327   7.983   8.806
   51DA     H4' 1597   7.309   7.957   8.911
   51DA     O4' 1598   7.218   8.056   8.767
   51DA     C1' 1599   7.142   7.984   8.679
   51DA     H1' 1600   7.064   7.926   8.729
   51DA      N9 1601   7.083   8.078   8.582
   51DA      C8 1602   7.148   8.176   8.512
   51DA      H8 1603   7.253   8.198   8.522
   51DA      N7 1604   7.070   8.263   8.449
   51DA      C5 1605   6.941   8.199   8.463
   51DA      C6 1606   6.808   8.229   8.421
   51DA      N6 1607   6.763   8.338   8.361
   51DA     H61 1608   6.663   8.349   8.361
   51DA     H62 1609   6.831   8.398   8.315
   51DA      N1 1610   6.713   8.147   8.465
   51DA      C2 1611   6.737   8.044   8.541
   51DA      H2 1612   6.658   7.980   8.576
   51DA      N3 1613   6.856   8.006   8.585
   51DA      C4 1614   6.953   8.090   8.546
   51DA     C3' 1615   7.340   7.857   8.722
   51DA     H3' 1616   7.432   7.847   8.665
   51DA     C2' 1617   7.232   7.882   8.614
   51DA    H2'1 1618   7.279   7.927   8.526
   51DA    H2'2 1619   7.175   7.795   8.583
   51DA     O3' 1620   7.321   7.739   8.811
   52DT       P 1621   7.356   7.591   8.769
   52DT     O1P 1622   7.368   7.502   8.883
   52DT     O2P 1623   7.471   7.601   8.678
   52DT     O5' 1624   7.232   7.529   8.695
   52DT     C5' 1625   7.104   7.518   8.757
   52DT    H5'1 1626   7.088   7.608   8.816
   52DT    H5'2 1627   7.107   7.429   8.821
   52DT     C4' 1628   6.989   7.517   8.659
   52DT     H4' 1629   6.895   7.495   8.709
   52DT     O4' 1630   6.959   7.641   8.597
   52DT     C1' 1631   6.898   7.612   8.470
   52DT     H1' 1632   6.797   7.573   8.477
   52DT      N1 1633   6.894   7.740   8.391
   52DT      C6 1634   7.009   7.807   8.349
   52DT      H6 1635   7.102   7.768   8.389
   52DT      C5 1636   7.008   7.911   8.262
   52DT      C7 1637   7.135   7.969   8.207
   52DT     H71 1638   7.120   7.982   8.100
   52DT     H72 1639   7.173   8.050   8.269
   52DT     H73 1640   7.214   7.897   8.229
   52DT      C4 1641   6.879   7.961   8.210
   52DT      O4 1642   6.857   8.064   8.142
   52DT      N3 1643   6.769   7.886   8.250
   52DT      H3 1644   6.681   7.934   8.242
   52DT      C2 1645   6.771   7.789   8.344
   52DT      O2 1646   6.662   7.746   8.391
   52DT     C3' 1647   7.009   7.419   8.543
   52DT     H3' 1648   7.115   7.396   8.537
   52DT     C2' 1649   6.976   7.493   8.414
   52DT    H2'1 1650   7.067   7.519   8.360
   52DT    H2'2 1651   6.917   7.431   8.346
   52DT     O3' 1652   6.932   7.298   8.560
   53DA       P 1653   6.949   7.154   8.488
   53DA     O1P 1654   6.921   7.042   8.584
   53DA     O2P 1655   7.065   7.148   8.407
   53DA     O5' 1656   6.825   7.162   8.389
   53DA     C5' 1657   6.689   7.207   8.423
   53DA    H5'1 1658   6.696   7.288   8.496
   53DA    H5'2 1659   6.627   7.137   8.478
   53DA     C4' 1660   6.609   7.256   8.300
   53DA     H4' 1661   6.510   7.285   8.334
   53DA     O4' 1662   6.678   7.371   8.254
   53DA     C1' 1663   6.700   7.348   8.112
   53DA     H1' 1664   6.604   7.372   8.066
   53DA      N9 1665   6.809   7.435   8.057
   53DA      C8 1666   6.943   7.421   8.029
   53DA      H8 1667   7.003   7.336   8.058
   53DA      N7 1668   6.999   7.523   7.982
   53DA      C5 1669   6.891   7.613   7.963
   53DA      C6 1670   6.877   7.741   7.903
   53DA      N6 1671   6.975   7.815   7.858
   53DA     H61 1672   6.949   7.901   7.811
   53DA     H62 1673   7.070   7.782   7.864
   53DA      N1 1674   6.762   7.804   7.899
   53DA      C2 1675   6.659   7.739   7.951
   53DA      H2 1676   6.570   7.800   7.942
   53DA      N3 1677   6.650   7.623   8.016
   53DA      C4 1678   6.772   7.560   8.013
   53DA     C3' 1679   6.606   7.152   8.187
   53DA     H3' 1680   6.618   7.050   8.223
   53DA     C2' 1681   6.726   7.197   8.099
   53DA    H2'1 1682   6.819   7.176   8.151
   53DA    H2'2 1683   6.729   7.163   7.996
   53DA     O3' 1684   6.487   7.164   8.101
   54DA       P 1685   6.388   7.054   8.059
   54DA     O1P 1686   6.326   6.986   8.179
   54DA     O2P 1687   6.469   6.981   7.958
   54DA     O5' 1688   6.270   7.127   7.971
   54DA     C5' 1689   6.199   7.233   8.034
   54DA    H5'1 1690   6.267   7.296   8.091
   54DA    H5'2 1691   6.124   7.180   8.093
   54DA     C4' 1692   6.123   7.325   7.940
   54DA     H4' 1693   6.061   7.387   8.005
   54DA     O4' 1694   6.198   7.426   7.876
   54DA     C1' 1695   6.217   7.393   7.736
   54DA     H1' 1696   6.181   7.475   7.674
   54DA      N9 1697   6.365   7.403   7.711
   54DA      C8 1698   6.465   7.309   7.732
   54DA      H8 1699   6.446   7.218   7.787
   54DA      N7 1700   6.587   7.351   7.706
   54DA      C5 1701   6.566   7.482   7.660
   54DA      C6 1702   6.646   7.584   7.605
   54DA      N6 1703   6.775   7.579   7.592
   54DA     H61 1704   6.822   7.663   7.559
   54DA     H62 1705   6.827   7.499   7.626
   54DA      N1 1706   6.590   7.698   7.561
   54DA      C2 1707   6.457   7.710   7.566
   54DA      H2 1708   6.419   7.800   7.519
   54DA      N3 1709   6.371   7.625   7.612
   54DA      C4 1710   6.430   7.513   7.659
   54DA     C3' 1711   6.047   7.253   7.825
   54DA     H3' 1712   6.027   7.153   7.863
   54DA     C2' 1713   6.149   7.259   7.706
   54DA    H2'1 1714   6.223   7.180   7.704
   54DA    H2'2 1715   6.095   7.264   7.612
   54DA     O3' 1716   5.924   7.324   7.810
   55DT       P 1717   5.810   7.278   7.714
   55DT     O1P 1718   5.677   7.319   7.767
   55DT     O2P 1719   5.833   7.131   7.693
   55DT     O5' 1720   5.836   7.356   7.578
   55DT     C5' 1721   5.796   7.490   7.573
   55DT    H5'1 1722   5.841   7.546   7.655
   55DT    H5'2 1723   5.688   7.505   7.575
   55DT     C4' 1724   5.842   7.559   7.440
   55DT     H4' 1725   5.800   7.659   7.439
   55DT     O4' 1726   5.987   7.567   7.439
   55DT     C1' 1727   6.027   7.532   7.308
   55DT     H1' 1728   6.015   7.611   7.233
   55DT      N1 1729   6.175   7.498   7.312
   55DT      C6 1730   6.215   7.374   7.351
   55DT      H6 1731   6.142   7.296   7.365
   55DT      C5 1732   6.346   7.347   7.350
   55DT      C7 1733   6.390   7.208   7.370
   55DT     H71 1734   6.449   7.211   7.462
   55DT     H72 1735   6.311   7.133   7.374
   55DT     H73 1736   6.467   7.192   7.295
   55DT      C4 1737   6.447   7.448   7.319
   55DT      O4 1738   6.569   7.431   7.336
   55DT      N3 1739   6.399   7.565   7.274
   55DT      H3 1740   6.470   7.628   7.241
   55DT      C2 1741   6.265   7.600   7.275
   55DT      O2 1742   6.234   7.716   7.239
   55DT     C3' 1743   5.794   7.480   7.322
   55DT     H3' 1744   5.729   7.395   7.344
   55DT     C2' 1745   5.925   7.423   7.271
   55DT    H2'1 1746   5.944   7.330   7.325
   55DT    H2'2 1747   5.927   7.409   7.163
   55DT     O3' 1748   5.722   7.549   7.230
   56DA       P 1749   5.691   7.495   7.077
   56DA     O1P 1750   5.567   7.563   7.033
   56DA     O2P 1751   5.694   7.351   7.069
   56DA     O5' 1752   5.818   7.554   6.992
   56DA     C5' 1753   5.846   7.698   6.986
   56DA    H5'1 1754   5.908   7.737   7.066
   56DA    H5'2 1755   5.755   7.758   6.987
   56DA     C4' 1756   5.921   7.739   6.863
   56DA     H4' 1757   5.904   7.846   6.848
   56DA     O4' 1758   6.052   7.703   6.871
   56DA     C1' 1759   6.081   7.609   6.775
   56DA     H1' 1760   6.145   7.656   6.701
   56DA      N9 1761   6.147   7.503   6.853
   56DA      C8 1762   6.101   7.409   6.945
   56DA      H8 1763   5.996   7.394   6.962
   56DA      N7 1764   6.190   7.330   7.001
   56DA      C5 1765   6.308   7.390   6.948
   56DA      C6 1766   6.451   7.378   6.965
   56DA      N6 1767   6.516   7.301   7.048
   56DA     H61 1768   6.617   7.304   7.046
   56DA     H62 1769   6.473   7.235   7.112
   56DA      N1 1770   6.539   7.451   6.898
   56DA      C2 1771   6.490   7.549   6.827
   56DA      H2 1772   6.570   7.612   6.791
   56DA      N3 1773   6.366   7.584   6.801
   56DA      C4 1774   6.282   7.496   6.858
   56DA     C3' 1775   5.867   7.683   6.728
   56DA     H3' 1776   5.762   7.658   6.742
   56DA     C2' 1777   5.950   7.560   6.712
   56DA    H2'1 1778   5.910   7.472   6.763
   56DA    H2'2 1779   5.971   7.536   6.608
   56DA     O3' 1780   5.887   7.792   6.633
   57DC       P 1781   5.837   7.792   6.487
   57DC     O1P 1782   5.850   7.924   6.428
   57DC     O2P 1783   5.706   7.727   6.481
   57DC     O5' 1784   5.942   7.692   6.418
   57DC     C5' 1785   6.083   7.738   6.395
   57DC    H5'1 1786   6.118   7.776   6.491
   57DC    H5'2 1787   6.065   7.820   6.326
   57DC     C4' 1788   6.180   7.638   6.336
   57DC     H4' 1789   6.267   7.687   6.292
   57DC     O4' 1790   6.225   7.560   6.449
   57DC     C1' 1791   6.241   7.427   6.398
   57DC     H1' 1792   6.320   7.422   6.323
   57DC      N1 1793   6.271   7.325   6.507
   57DC      C6 1794   6.166   7.257   6.565
   57DC      H6 1795   6.060   7.268   6.552
   57DC      C5 1796   6.199   7.168   6.662
   57DC      H5 1797   6.118   7.109   6.702
   57DC      C4 1798   6.337   7.145   6.688
   57DC      N4 1799   6.361   7.081   6.801
   57DC     H41 1800   6.449   7.095   6.848
   57DC     H42 1801   6.280   7.056   6.856
   57DC      N3 1802   6.432   7.212   6.642
   57DC      C2 1803   6.405   7.303   6.543
   57DC      O2 1804   6.501   7.370   6.506
   57DC     C3' 1805   6.110   7.538   6.245
   57DC     H3' 1806   6.009   7.574   6.227
   57DC     C2' 1807   6.113   7.400   6.315
   57DC    H2'1 1808   6.025   7.380   6.376
   57DC    H2'2 1809   6.127   7.317   6.246
   57DC     O3' 1810   6.173   7.519   6.112
   58DG       P 1811   6.229   7.638   6.020
   58DG     O1P 1812   6.168   7.764   6.062
   58DG     O2P 1813   6.235   7.603   5.878
   58DG     O5' 1814   6.383   7.632   6.073
   58DG     C5' 1815   6.468   7.744   6.102
   58DG    H5'1 1816   6.446   7.780   6.202
   58DG    H5'2 1817   6.460   7.823   6.027
   58DG     C4' 1818   6.618   7.700   6.099
   58DG     H4' 1819   6.683   7.784   6.124
   58DG     O4' 1820   6.639   7.594   6.196
   58DG     C1' 1821   6.682   7.480   6.121
   58DG     H1' 1822   6.790   7.470   6.125
   58DG      N9 1823   6.616   7.353   6.167
   58DG      C8 1824   6.485   7.314   6.159
   58DG      H8 1825   6.409   7.371   6.109
   58DG      N7 1826   6.458   7.206   6.225
   58DG      C5 1827   6.583   7.161   6.279
   58DG      C6 1828   6.623   7.050   6.363
   58DG      O6 1829   6.560   6.964   6.423
   58DG      N1 1830   6.761   7.051   6.389
   58DG      H1 1831   6.799   6.978   6.447
   58DG      C2 1832   6.840   7.156   6.350
   58DG      N2 1833   6.967   7.148   6.393
   58DG     H21 1834   6.984   7.084   6.470
   58DG     H22 1835   7.029   7.222   6.363
   58DG      N3 1836   6.804   7.257   6.275
   58DG      C4 1837   6.672   7.257   6.247
   58DG     C3' 1838   6.671   7.650   5.963
   58DG     H3' 1839   6.608   7.689   5.884
   58DG     C2' 1840   6.653   7.498   5.974
   58DG    H2'1 1841   6.546   7.479   5.959
   58DG    H2'2 1842   6.711   7.429   5.913
   58DG     O3' 1843   6.804   7.693   5.949
   59DC       P 1844   6.876   7.684   5.809
   59DC     O1P 1845   6.987   7.785   5.815
   59DC     O2P 1846   6.775   7.704   5.701
   59DC     O5' 1847   6.933   7.536   5.800
   59DC     C5' 1848   7.047   7.493   5.871
   59DC    H5'1 1849   7.039   7.520   5.977
   59DC    H5'2 1850   7.143   7.532   5.838
   59DC     C4' 1851   7.059   7.342   5.869
   59DC     H4' 1852   7.149   7.321   5.928
   59DC     O4' 1853   6.950   7.283   5.942
   59DC     C1' 1854   6.912   7.161   5.881
   59DC     H1' 1855   6.993   7.089   5.890
   59DC      N1 1856   6.778   7.106   5.926
   59DC      C6 1857   6.656   7.151   5.880
   59DC      H6 1858   6.643   7.244   5.825
   59DC      C5 1859   6.545   7.087   5.925
   59DC      H5 1860   6.448   7.127   5.900
   59DC      C4 1861   6.564   6.979   6.012
   59DC      N4 1862   6.464   6.916   6.059
   59DC     H41 1863   6.466   6.829   6.109
   59DC     H42 1864   6.373   6.951   6.033
   59DC      N3 1865   6.678   6.927   6.057
   59DC      C2 1866   6.789   6.990   6.010
   59DC      O2 1867   6.896   6.933   6.033
   59DC     C3' 1868   7.052   7.280   5.730
   59DC     H3' 1869   7.064   7.358   5.655
   59DC     C2' 1870   6.922   7.206   5.735
   59DC    H2'1 1871   6.835   7.265   5.708
   59DC    H2'2 1872   6.913   7.123   5.665
   59DC     O3' 1873   7.155   7.177   5.722
   60DA       P 1874   7.307   7.211   5.691
   60DA     O1P 1875   7.375   7.256   5.819
   60DA     O2P 1876   7.307   7.306   5.579
   60DA     O5' 1877   7.398   7.083   5.633
   60DA     C5' 1878   7.414   6.958   5.709
   60DA    H5'1 1879   7.388   6.975   5.813
   60DA    H5'2 1880   7.519   6.933   5.698
   60DA     C4' 1881   7.336   6.840   5.662
   60DA     H4' 1882   7.400   6.753   5.683
   60DA     O4' 1883   7.210   6.839   5.725
   60DA     C1' 1884   7.115   6.777   5.642
   60DA     H1' 1885   7.152   6.675   5.630
   60DA      N9 1886   6.976   6.787   5.683
   60DA      C8 1887   6.876   6.864   5.638
   60DA      H8 1888   6.884   6.933   5.556
   60DA      N7 1889   6.760   6.835   5.691
   60DA      C5 1890   6.787   6.730   5.780
   60DA      C6 1891   6.716   6.643   5.859
   60DA      N6 1892   6.591   6.658   5.892
   60DA     H61 1893   6.543   6.591   5.951
   60DA     H62 1894   6.548   6.736   5.844
   60DA      N1 1895   6.781   6.544   5.921
   60DA      C2 1896   6.909   6.528   5.906
   60DA      H2 1897   6.946   6.440   5.956
   60DA      N3 1898   6.986   6.596   5.826
   60DA      C4 1899   6.922   6.703   5.772
   60DA     C3' 1900   7.302   6.843   5.507
   60DA     H3' 1901   7.339   6.925   5.445
   60DA     C2' 1902   7.154   6.849   5.512
   60DA    H2'1 1903   7.124   6.953   5.522
   60DA    H2'2 1904   7.107   6.822   5.417
   60DA     O3' 1905   7.331   6.712   5.457
   61DC       P 1906   7.467   6.684   5.375
   61DC     O1P 1907   7.576   6.753   5.446
   61DC     O2P 1908   7.433   6.734   5.241
   61DC     O5' 1909   7.493   6.522   5.361
   61DC     C5' 1910   7.537   6.445   5.467
   61DC    H5'1 1911   7.561   6.503   5.556
   61DC    H5'2 1912   7.620   6.381   5.437
   61DC     C4' 1913   7.418   6.350   5.503
   61DC     H4' 1914   7.454   6.274   5.572
   61DC     O4' 1915   7.305   6.408   5.556
   61DC     C1' 1916   7.195   6.343   5.492
   61DC     H1' 1917   7.180   6.251   5.549
   61DC      N1 1918   7.062   6.424   5.510
   61DC      C6 1919   7.036   6.526   5.426
   61DC      H6 1920   7.117   6.566   5.367
   61DC      C5 1921   6.907   6.573   5.419
   61DC      H5 1922   6.879   6.658   5.357
   61DC      C4 1923   6.806   6.515   5.497
   61DC      N4 1924   6.685   6.557   5.494
   61DC     H41 1925   6.610   6.518   5.550
   61DC     H42 1926   6.663   6.635   5.434
   61DC      N3 1927   6.827   6.416   5.586
   61DC      C2 1928   6.959   6.374   5.600
   61DC      O2 1929   6.984   6.295   5.687
   61DC     C3' 1930   7.369   6.264   5.383
   61DC     H3' 1931   7.438   6.288   5.302
   61DC     C2' 1932   7.230   6.323   5.353
   61DC    H2'1 1933   7.233   6.414   5.293
   61DC    H2'2 1934   7.168   6.244   5.309
   61DC     O3' 1935   7.354   6.125   5.416
   62DA       P 1936   7.476   6.027   5.392
   62DA     O1P 1937   7.586   6.054   5.490
   62DA     O2P 1938   7.502   6.040   5.250
   62DA     O5' 1939   7.405   5.885   5.412
   62DA     C5' 1940   7.388   5.826   5.541
   62DA    H5'1 1941   7.403   5.904   5.616
   62DA    H5'2 1942   7.464   5.748   5.549
   62DA     C4' 1943   7.245   5.765   5.555
   62DA     H4' 1944   7.249   5.702   5.644
   62DA     O4' 1945   7.144   5.860   5.579
   62DA     C1' 1946   7.019   5.819   5.520
   62DA     H1' 1947   6.948   5.766   5.584
   62DA      N9 1948   6.941   5.943   5.480
   62DA      C8 1949   6.983   6.041   5.397
   62DA      H8 1950   7.085   6.035   5.363
   62DA      N7 1951   6.898   6.140   5.368
   62DA      C5 1952   6.778   6.092   5.430
   62DA      C6 1953   6.644   6.133   5.431
   62DA      N6 1954   6.598   6.241   5.378
   62DA     H61 1955   6.501   6.257   5.400
   62DA     H62 1956   6.665   6.308   5.342
   62DA      N1 1957   6.553   6.053   5.480
   62DA      C2 1958   6.590   5.940   5.542
   62DA      H2 1959   6.512   5.873   5.576
   62DA      N3 1960   6.711   5.891   5.561
   62DA      C4 1961   6.802   5.974   5.498
   62DA     C3' 1962   7.205   5.675   5.432
   62DA     H3' 1963   7.279   5.694   5.354
   62DA     C2' 1964   7.068   5.727   5.406
   62DA    H2'1 1965   7.061   5.784   5.313
   62DA    H2'2 1966   6.995   5.646   5.410
   62DA     O3' 1967   7.201   5.545   5.468
   63DT       P 1968   7.198   5.431   5.362
   63DT     O1P 1969   7.258   5.310   5.422
   63DT     O2P 1970   7.253   5.478   5.234
   63DT     O5' 1971   7.039   5.394   5.348
   63DT     C5' 1972   6.958   5.362   5.465
   63DT    H5'1 1973   7.000   5.424   5.545
   63DT    H5'2 1974   6.981   5.264   5.506
   63DT     C4' 1975   6.806   5.384   5.442
   63DT     H4' 1976   6.761   5.348   5.535
   63DT     O4' 1977   6.752   5.515   5.423
   63DT     C1' 1978   6.664   5.507   5.310
   63DT     H1' 1979   6.567   5.480   5.351
   63DT      N1 1980   6.658   5.645   5.253
   63DT      C6 1981   6.766   5.702   5.199
   63DT      H6 1982   6.854   5.640   5.201
   63DT      C5 1983   6.763   5.826   5.148
   63DT      C7 1984   6.885   5.883   5.081
   63DT     H71 1985   6.864   5.903   4.976
   63DT     H72 1986   6.915   5.975   5.130
   63DT     H73 1987   6.963   5.807   5.088
   63DT      C4 1988   6.636   5.902   5.146
   63DT      O4 1989   6.618   6.014   5.108
   63DT      N3 1990   6.535   5.838   5.207
   63DT      H3 1991   6.447   5.888   5.212
   63DT      C2 1992   6.536   5.712   5.264
   63DT      O2 1993   6.438   5.661   5.312
   63DT     C3' 1994   6.753   5.299   5.321
   63DT     H3' 1995   6.834   5.229   5.300
   63DT     C2' 1996   6.711   5.396   5.214
   63DT    H2'1 1997   6.802   5.417   5.158
   63DT    H2'2 1998   6.626   5.365   5.153
   63DT     O3' 1999   6.644   5.221   5.374
   64DG       P 2000   6.562   5.104   5.293
   64DG     O1P 2001   6.490   5.022   5.395
   64DG     O2P 2002   6.650   5.040   5.195
   64DG     O5' 2003   6.455   5.191   5.203
   64DG     C5' 2004   6.341   5.260   5.265
   64DG    H5'1 2005   6.389   5.341   5.320
   64DG    H5'2 2006   6.281   5.201   5.334
   64DG     C4' 2007   6.242   5.322   5.166
   64DG     H4' 2008   6.145   5.338   5.213
   64DG     O4' 2009   6.294   5.452   5.138
   64DG     C1' 2010   6.291   5.469   4.996
   64DG     H1' 2011   6.188   5.496   4.971
   64DG      N9 2012   6.368   5.589   4.958
   64DG      C8 2013   6.504   5.605   4.959
   64DG      H8 2014   6.572   5.529   4.994
   64DG      N7 2015   6.544   5.712   4.893
   64DG      C5 2016   6.426   5.774   4.858
   64DG      C6 2017   6.391   5.897   4.795
   64DG      O6 2018   6.460   5.985   4.744
   64DG      N1 2019   6.254   5.929   4.789
   64DG      H1 2020   6.230   6.025   4.768
   64DG      C2 2021   6.158   5.851   4.845
   64DG      N2 2022   6.037   5.903   4.835
   64DG     H21 2023   6.022   5.988   4.781
   64DG     H22 2024   5.956   5.860   4.876
   64DG      N3 2025   6.181   5.732   4.902
   64DG      C4 2026   6.316   5.699   4.905
   64DG     C3' 2027   6.233   5.247   5.030
   64DG     H3' 2028   6.265   5.143   5.034
   64DG     C2' 2029   6.333   5.331   4.951
   64DG    H2'1 2030   6.433   5.311   4.990
   64DG    H2'2 2031   6.321   5.335   4.842
   64DG     O3' 2032   6.105   5.251   4.978
   65DC       P 2033   6.047   5.173   4.854
   65DC     O1P 2034   5.952   5.068   4.894
   65DC     O2P 2035   6.157   5.137   4.768
   65DC     O5' 2036   5.963   5.291   4.783
   65DC     C5' 2037   5.822   5.318   4.819
   65DC    H5'1 2038   5.822   5.345   4.924
   65DC    H5'2 2039   5.767   5.225   4.805
   65DC     C4' 2040   5.757   5.423   4.737
   65DC     H4' 2041   5.667   5.456   4.789
   65DC     O4' 2042   5.847   5.534   4.720
   65DC     C1' 2043   5.883   5.545   4.581
   65DC     H1' 2044   5.814   5.615   4.534
   65DC      N1 2045   6.025   5.598   4.572
   65DC      C6 2046   6.130   5.522   4.622
   65DC      H6 2047   6.110   5.427   4.671
   65DC      C5 2048   6.256   5.567   4.613
   65DC      H5 2049   6.341   5.515   4.653
   65DC      C4 2050   6.278   5.690   4.541
   65DC      N4 2051   6.399   5.739   4.538
   65DC     H41 2052   6.413   5.829   4.493
   65DC     H42 2053   6.471   5.670   4.552
   65DC      N3 2054   6.175   5.771   4.505
   65DC      C2 2055   6.047   5.724   4.520
   65DC      O2 2056   5.957   5.798   4.490
   65DC     C3' 2057   5.734   5.358   4.596
   65DC     H3' 2058   5.727   5.249   4.599
   65DC     C2' 2059   5.855   5.405   4.522
   65DC    H2'1 2060   5.934   5.335   4.547
   65DC    H2'2 2061   5.837   5.398   4.415
   65DC     O3' 2062   5.617   5.415   4.536
   66DG3      P 2063   5.513   5.311   4.458
   66DG3    O1P 2064   5.419   5.264   4.562
   66DG3    O2P 2065   5.586   5.221   4.368
   66DG3    O5' 2066   5.431   5.418   4.371
   66DG3    C5' 2067   5.338   5.516   4.415
   66DG3   H5'1 2068   5.366   5.563   4.510
   66DG3   H5'2 2069   5.240   5.469   4.417
   66DG3    C4' 2070   5.336   5.633   4.315
   66DG3    H4' 2071   5.261   5.697   4.362
   66DG3    O4' 2072   5.463   5.697   4.310
   66DG3    C1' 2073   5.515   5.678   4.179
   66DG3    H1' 2074   5.503   5.765   4.116
   66DG3     N9 2075   5.661   5.643   4.184
   66DG3     C8 2076   5.718   5.519   4.199
   66DG3     H8 2077   5.658   5.429   4.206
   66DG3     N7 2078   5.847   5.516   4.209
   66DG3     C5 2079   5.883   5.650   4.187
   66DG3     C6 2080   6.009   5.720   4.183
   66DG3     O6 2081   6.121   5.677   4.191
   66DG3     N1 2082   5.998   5.854   4.158
   66DG3     H1 2083   6.083   5.906   4.143
   66DG3     C2 2084   5.882   5.922   4.134
   66DG3     N2 2085   5.900   6.052   4.123
   66DG3    H21 2086   5.993   6.086   4.147
   66DG3    H22 2087   5.821   6.114   4.123
   66DG3     N3 2088   5.762   5.868   4.149
   66DG3     C4 2089   5.768   5.727   4.177
   66DG3    C3' 2090   5.295   5.592   4.178
   66DG3    H3' 2091   5.234   5.501   4.175
   66DG3    C2' 2092   5.430   5.565   4.112
   66DG3   H2'1 2093   5.461   5.463   4.136
   66DG3   H2'2 2094   5.427   5.584   4.005
   66DG3    O3' 2095   5.228   5.689   4.098
   66DG3    H3T 2096   5.147   5.708   4.146
   67SOL     OW 2097  13.524  11.579  10.452
   67SOL    HW1 2098  13.429  11.577  10.456
   67SOL    HW2 2099  13.551  11.609  10.539
   68SOL     OW 2100   6.902   1.738   0.956
   68SOL    HW1 2101   6.995   1.750   0.940
   68SOL    HW2 2102   6.875   1.670   0.894
   69SOL     OW 2103   9.643   6.876   7.624
   69SOL    HW1 2104   9.656   6.970   7.635
   69SOL    HW2 2105   9.559   6.857   7.666
   70SOL     OW 2106  14.358  13.075   3.458
   70SOL    HW1 2107  14.372  13.170   3.461
   70SOL    HW2 2108  14.283  13.063   3.401
   71SOL     OW 2109   0.354   6.134   5.166
   71SOL    HW1 2110   0.324   6.180   5.244
   71SOL    HW2 2111   0.323   6.188   5.093
   72SOL     OW 2112   0.466   0.832   2.928
   72SOL    HW1 2113   0.414   0.888   2.870
   72SOL    HW2 2114   0.409   0.757   2.947
   73SOL     OW 2115   7.720   6.841  10.136
   73SOL    HW1 2116   7.647   6.890  10.099
   73SOL    HW2 2117   7.679   6.767  10.181
   74SOL     OW 2118   6.755   2.080   3.863
   74SOL    HW1 2119   6.718   2.067   3.776
   74SOL    HW2 2120   6.800   2.165   3.858
   75SOL     OW 2121  11.381   9.405   0.264
   75SOL    HW1 2122  11.316   9.472   0.242
   75SOL    HW2 2123  11.451   9.452   0.309
   76SOL     OW 2124  13.446   1.141   3.139
   76SOL    HW1 2125  13.472   1.232   3.152
   76SOL    HW2 2126  13.471   1.096   3.219
   77SOL     OW 2127  14.364  12.000   4.390
   77SOL    HW1 2128  14.414  12.042   4.460
   77SOL    HW2 2129  14.430  11.968   4.329
   78SOL     OW 2130   9.903   9.752   1.743
   78SOL    HW1 2131   9.937   9.685   1.803
   78SOL    HW2 2132   9.892   9.829   1.798
   79SOL     OW 2133  13.234   9.430   7.526
   79SOL    HW1 2134  13.172   9.503   7.525
   79SOL    HW2 2135  13.216   9.385   7.608
   80SOL     OW 2136  14.145   2.393  14.063
   80SOL    HW1 2137  14.161   2.484  14.040
   80SOL    HW2 2138  14.056   2.392  14.098
   81SOL     OW 2139   7.365   8.363   9.890
   81SOL    HW1 2140   7.435   8.409   9.844
   81SOL    HW2 2141   7.408   8.284   9.925
   82SOL     OW 2142  10.398   1.019   9.245
   82SOL    HW1 2143  10.342   1.087   9.283
   82SOL    HW2 2144  10.412   0.957   9.317
   83SOL     OW 2145   2.976  12.614   1.523
   83SOL    HW1 2146   2.950  12.630   1.432
   83SOL    HW2 2147   3.063  12.575   1.516
   84SOL     OW 2148   2.753   0.333  12.513
   84SOL    HW1 2149   2.837   0.287  12.514
   84SOL    HW2 2150   2.765   0.406  12.452
   85SOL     OW 2151   7.638   3.187   2.216
   85SOL    HW1 2152   7.553   3.175   2.173
   85SOL    HW2 2153   7.636   3.124   2.289
   86SOL     OW 2154   4.846   2.835   9.023
   86SOL    HW1 2155   4.837   2.815   9.116
   86SOL    HW2 2156   4.912   2.774   8.992
   87SOL     OW 2157   1.364  12.197  13.194
   87SOL    HW1 2158   1.419  12.265  13.234
   87SOL    HW2 2159   1.364  12.126  13.258
   88SOL     OW 2160   5.463  13.471   5.383
   88SOL    HW1 2161   5.475  13.390   5.433
   88SOL    HW2 2162   5.530  13.531   5.418
   89SOL     OW 2163   1.589   0.920  10.898
   89SOL    HW1 2164   1.528   0.935  10.971
   89SOL    HW2 2165   1.538   0.872  10.834
   90SOL     OW 2166   8.785   7.972   7.228
   90SOL    HW1 2167   8.782   7.911   7.301
   90SOL    HW2 2168   8.757   7.921   7.153
   91SOL     OW 2169  12.757   3.007   4.729
   91SOL    HW1 2170  12.844   3.012   4.769
   91SOL    HW2 2171  12.733   2.915   4.735
   92SOL     OW 2172   5.027  13.561   2.211
   92SOL    HW1 2173   5.024  13.653   2.184
   92SOL    HW2 2174   5.121  13.540   2.214
   93SOL     OW 2175   1.772   9.472   8.549
   93SOL    HW1 2176   1.771   9.532   8.475
   93SOL    HW2 2177   1.760   9.528   8.626
   94SOL     OW 2178  14.030  10.241  12.985
   94SOL    HW1 2179  13.948  10.290  12.988
   94SOL    HW2 2180  14.039  10.217  12.893
   95SOL     OW 2181   5.573   0.680   8.162
   95SOL    HW1 2182   5.528   0.666   8.079
   95SOL    HW2 2183   5.506   0.713   8.221
   96SOL     OW 2184   6.886   9.636   0.086
   96SOL    HW1 2185   6.885   9.692   0.008
   96SOL    HW2 2186   6.795   9.605   0.093
   97SOL     OW 2187  13.716   0.497   2.289
   97SOL    HW1 2188  13.621   0.502   2.302
   97SOL    HW2 2189  13.750   0.469   2.374
   98SOL     OW 2190   0.211   5.630  13.914
   98SOL    HW1 2191   0.211   5.537  13.939
   98SOL    HW2 2192   0.260   5.632  13.832
   99SOL     OW 2193  12.570   0.247   5.610
   99SOL    HW1 2194  12.636   0.294   5.662
   99SOL    HW2 2195  12.616   0.168   5.579
  100SOL     OW 2196  12.413  12.114   3.222
  100SOL    HW1 2197  12.383  12.098   3.312
  100SOL    HW2 2198  12.335  12.144   3.175
  101SOL     OW 2199   9.206   7.047  14.113
  101SOL    HW1 2200   9.228   7.032  14.205
  101SOL    HW2 2201   9.143   7.119  14.115
  102SOL     OW 2202   8.052  10.380  13.448
  102SOL    HW1 2203   8.051  10.475  13.465
  102SOL    HW2 2204   7.992  10.369  13.374
  103SOL     OW 2205   9.873  13.965   6.352
  103SOL    HW1 2206   9.834  14.048   6.324
  103SOL    HW2 2207   9.812  13.931   6.418
  104SOL     OW 2208   9.113   7.041   0.240
  104SOL    HW1 2209   9.027   7.000   0.251
  104SOL    HW2 2210   9.112   7.078   0.152
  105SOL     OW 2211   4.925   8.951   0.850
  105SOL    HW1 2212   4.848   8.942   0.794
  105SOL    HW2 2213   4.894   9.001   0.925
  106SOL     OW 2214   3.662   9.683  14.585
  106SOL    HW1 2215   3.653   9.597  14.625
  106SOL    HW2 2216   3.757   9.695  14.575
  107SOL     OW 2217  12.644   9.552   9.756
  107SOL    HW1 2218  12.709   9.591   9.697
  107SOL    HW2 2219  12.605   9.481   9.705
  108SOL     OW 2220   7.517   1.512   0.693
  108SOL    HW1 2221   7.569   1.592   0.694
  108SOL    HW2 2222   7.552   1.459   0.764
  109SOL     OW 2223  13.695   3.871  12.087
  109SOL    HW1 2224  13.691   3.777  12.067
  109SOL    HW2 2225  13.628   3.911  12.032
  110SOL     OW 2226   9.568   5.825   8.142
  110SOL    HW1 2227   9.548   5.792   8.229
  110SOL    HW2 2228   9.634   5.763   8.108
  111SOL     OW 2229  10.083   3.037  10.715
  111SOL    HW1 2230  10.056   2.982  10.642
  111SOL    HW2 2231  10.003   3.052  10.766
  112SOL     OW 2232   1.638   3.298   0.491
  112SOL    HW1 2233   1.615   3.208   0.515
  112SOL    HW2 2234   1.556   3.335   0.458
  113SOL     OW 2235  11.569  12.309   7.783
  113SOL    HW1 2236  11.527  12.395   7.781
  113SOL    HW2 2237  11.501  12.249   7.814
  114SOL     OW 2238   4.321   7.076   1.831
  114SOL    HW1 2239   4.381   7.124   1.773
  114SOL    HW2 2240   4.361   6.989   1.839
  115SOL     OW 2241   1.015   0.721   2.036
  115SOL    HW1 2242   1.078   0.786   2.004
  115SOL    HW2 2243   0.931   0.750   2.002
  116SOL     OW 2244  14.483  14.400  13.104
  116SOL    HW1 2245  14.457  14.482  13.061
  116SOL    HW2 2246  14.410  14.340  13.086
  117SOL     OW 2247   6.747   0.840  12.825
  117SOL    HW1 2248   6.778   0.894  12.897
  117SOL    HW2 2249   6.651   0.844  12.832
  118SOL     OW 2250   7.662   8.324   1.146
  118SOL    HW1 2251   7.636   8.295   1.059
  118SOL    HW2 2252   7.581   8.323   1.197
  119SOL     OW 2253   6.298  10.791   7.187
  119SOL    HW1 2254   6.269  10.852   7.255
  119SOL    HW2 2255   6.319  10.710   7.235
  120SOL     OW 2256   9.123   9.346   3.263
  120SOL    HW1 2257   9.069   9.393   3.327
  120SOL    HW2 2258   9.083   9.365   3.178
  121SOL     OW 2259  10.065   4.361  14.579
  121SOL    HW1 2260  10.002   4.291  14.562
  121SOL    HW2 2261  10.149   4.325  14.552
  122SOL     OW 2262  11.787   9.582  13.995
  122SOL    HW1 2263  11.861   9.566  14.053
  122SOL    HW2 2264  11.812   9.660  13.945
  123SOL     OW 2265   7.382  11.231   5.630
  123SOL    HW1 2266   7.345  11.146   5.606
  123SOL    HW2 2267   7.329  11.295   5.582
  124SOL     OW 2268   3.005   8.365   3.482
  124SOL    HW1 2269   3.026   8.429   3.549
  124SOL    HW2 2270   3.088   8.321   3.464
  125SOL     OW 2271  12.194   3.258   7.641
  125SOL    HW1 2272  12.266   3.276   7.580
  125SOL    HW2 2273  12.139   3.195   7.594
  126SOL     OW 2274  10.604   4.825   2.043
  126SOL    HW1 2275  10.662   4.851   1.971
  126SOL    HW2 2276  10.591   4.905   2.093
  127SOL     OW 2277   5.090  10.727  11.571
  127SOL    HW1 2278   4.995  10.713  11.574
  127SOL    HW2 2279   5.106  10.800  11.630
  128SOL     OW 2280   9.696   3.479   5.474
  128SOL    HW1 2281   9.773   3.426   5.452
  128SOL    HW2 2282   9.678   3.529   5.395
  129SOL     OW 2283   5.318   3.716   2.238
  129SOL    HW1 2284   5.331   3.664   2.317
  129SOL    HW2 2285   5.342   3.658   2.166
  130SOL     OW 2286   2.820   0.568   8.257
  130SOL    HW1 2287   2.749   0.580   8.194
  130SOL    HW2 2288   2.808   0.480   8.291
  131SOL     OW 2289   9.126  13.781   7.229
  131SOL    HW1 2290   9.051  13.830   7.264
  131SOL    HW2 2291   9.119  13.793   7.134
  132SOL     OW 2292  13.956  13.776   2.752
  132SOL    HW1 2293  13.925  13.759   2.663
  132SOL    HW2 2294  14.011  13.854   2.744
  133SOL     OW 2295  14.039   7.178   3.684
  133SOL    HW1 2296  14.109   7.142   3.738
  133SOL    HW2 2297  14.061   7.270   3.674
  134SOL     OW 2298   1.862  12.394  13.969
  134SOL    HW1 2299   1.853  12.479  13.928
  134SOL    HW2 2300   1.925  12.347  13.914
  135SOL     OW 2301  12.599   8.994   7.397
  135SOL    HW1 2302  12.528   8.946   7.353
  135SOL    HW2 2303  12.571   9.003   7.487
  136SOL     OW 2304  13.738  10.089  12.461
  136SOL    HW1 2305  13.779  10.005  12.441
  136SOL    HW2 2306  13.780  10.117  12.542
  137SOL     OW 2307   2.021   4.652   4.927
  137SOL    HW1 2308   1.950   4.675   4.986
  137SOL    HW2 2309   2.040   4.560   4.947
  138SOL     OW 2310   0.706   0.906   4.200
  138SOL    HW1 2311   0.651   0.972   4.242
  138SOL    HW2 2312   0.790   0.912   4.246
  139SOL     OW 2313   5.279   9.939  11.022
  139SOL    HW1 2314   5.255   9.888  11.099
  139SOL    HW2 2315   5.374   9.948  11.028
  140SOL     OW 2316  14.050   4.133  12.392
  140SOL    HW1 2317  14.052   4.174  12.306
  140SOL    HW2 2318  13.974   4.173  12.436
  141SOL     OW 2319  11.253   7.038   3.320
  141SOL    HW1 2320  11.239   7.103   3.388
  141SOL    HW2 2321  11.334   7.066   3.276
  142SOL     OW 2322   3.585   2.621   7.950
  142SOL    HW1 2323   3.533   2.624   8.030
  142SOL    HW2 2324   3.673   2.647   7.977
  143SOL     OW 2325   7.389   5.968   0.428
  143SOL    HW1 2326   7.337   5.986   0.507
  143SOL    HW2 2327   7.471   5.931   0.460
  144SOL     OW 2328   7.993  10.545   4.254
  144SOL    HW1 2329   7.939  10.620   4.276
  144SOL    HW2 2330   8.082  10.570   4.280
  145SOL     OW 2331   3.762  11.749   8.984
  145SOL    HW1 2332   3.750  11.844   8.986
  145SOL    HW2 2333   3.854  11.736   9.004
  146SOL     OW 2334  11.850  14.847  12.327
  146SOL    HW1 2335  11.778  14.797  12.288
  146SOL    HW2 2336  11.868   0.045  12.265
  147SOL     OW 2337  11.497   2.152   8.991
  147SOL    HW1 2338  11.510   2.097   9.069
  147SOL    HW2 2339  11.511   2.093   8.917
  148SOL     OW 2340   3.875   8.493   7.642
  148SOL    HW1 2341   3.963   8.503   7.677
  148SOL    HW2 2342   3.870   8.401   7.615
  149SOL     OW 2343  13.491   1.072  13.157
  149SOL    HW1 2344  13.492   1.148  13.099
  149SOL    HW2 2345  13.441   1.006  13.109
  150SOL     OW 2346   8.216  13.725   8.661
  150SOL    HW1 2347   8.153  13.684   8.720
  150SOL    HW2 2348   8.291  13.745   8.716
  151SOL     OW 2349  13.052   8.927   7.001
  151SOL    HW1 2350  13.003   8.845   7.005
  151SOL    HW2 2351  13.098   8.924   6.917
  152SOL     OW 2352  12.030   5.641  12.115
  152SOL    HW1 2353  12.055   5.727  12.149
  152SOL    HW2 2354  12.009   5.590  12.193
  153SOL     OW 2355   0.046  13.133  14.166
  153SOL    HW1 2356   0.127  13.183  14.176
  153SOL    HW2 2357  14.852  13.184  14.214
  154SOL     OW 2358   2.187   0.622  10.779
  154SOL    HW1 2359   2.134   0.702  10.771
  154SOL    HW2 2360   2.223   0.608  10.692
  155SOL     OW 2361   1.632  12.362  13.732
  155SOL    HW1 2362   1.559  12.381  13.791
  155SOL    HW2 2363   1.690  12.438  13.741
  156SOL     OW 2364  13.927   3.483   7.239
  156SOL    HW1 2365  13.939   3.388   7.247
  156SOL    HW2 2366  13.862   3.494   7.170
  157SOL     OW 2367  10.609   8.418   5.358
  157SOL    HW1 2368  10.609   8.493   5.417
  157SOL    HW2 2369  10.661   8.352   5.403
  158SOL     OW 2370  12.914   2.761   7.359
  158SOL    HW1 2371  12.843   2.769   7.422
  158SOL    HW2 2372  12.929   2.667   7.351
  159SOL     OW 2373  12.024  10.166  10.109
  159SOL    HW1 2374  12.030  10.072  10.128
  159SOL    HW2 2375  12.004  10.207  10.193
  160SOL     OW 2376  14.198  12.262  10.274
  160SOL    HW1 2377  14.217  12.344  10.228
  160SOL    HW2 2378  14.122  12.281  10.328
  161SOL     OW 2379  13.461   9.983   3.532
  161SOL    HW1 2380  13.441  10.059   3.477
  161SOL    HW2 2381  13.504  10.020   3.609
  162SOL     OW 2382  10.240   5.610   6.424
  162SOL    HW1 2383  10.323   5.579   6.387
  162SOL    HW2 2384  10.219   5.688   6.373
  163SOL     OW 2385   4.661   2.359  11.639
  163SOL    HW1 2386   4.610   2.439  11.634
  163SOL    HW2 2387   4.600   2.293  11.672
  164SOL     OW 2388   7.871  14.098  10.535
  164SOL    HW1 2389   7.949  14.057  10.571
  164SOL    HW2 2390   7.904  14.174  10.486
  165SOL     OW 2391  13.746  10.558   0.933
  165SOL    HW1 2392  13.714  10.486   0.878
  165SOL    HW2 2393  13.819  10.595   0.884
  166SOL     OW 2394  10.658   2.646   3.712
  166SOL    HW1 2395  10.616   2.563   3.735
  166SOL    HW2 2396  10.696   2.630   3.626
  167SOL     OW 2397   2.270   6.721   7.632
  167SOL    HW1 2398   2.194   6.778   7.623
  167SOL    HW2 2399   2.343   6.780   7.651
  168SOL     OW 2400  11.228  12.590   1.747
  168SOL    HW1 2401  11.182  12.659   1.795
  168SOL    HW2 2402  11.237  12.625   1.658
  169SOL     OW 2403   5.749   0.815  10.711
  169SOL    HW1 2404   5.754   0.875  10.786
  169SOL    HW2 2405   5.669   0.841  10.665
  170SOL     OW 2406   7.851  12.332   4.628
  170SOL    HW1 2407   7.762  12.363   4.612
  170SOL    HW2 2408   7.907  12.390   4.577
  171SOL     OW 2409   6.722   4.206   0.209
  171SOL    HW1 2410   6.642   4.178   0.165
  171SOL    HW2 2411   6.784   4.135   0.193
  172SOL     OW 2412  10.780  13.457   9.500
  172SOL    HW1 2413  10.812  13.367   9.505
  172SOL    HW2 2414  10.856  13.509   9.474
  173SOL     OW 2415   0.149   4.518   1.471
  173SOL    HW1 2416   0.107   4.472   1.398
  173SOL    HW2 2417   0.107   4.482   1.549
  174SOL     OW 2418   6.510  11.916  14.609
  174SOL    HW1 2419   6.555  11.996  14.636
  174SOL    HW2 2420   6.443  11.903  14.676
  175SOL     OW 2421   8.610  13.102   8.355
  175SOL    HW1 2422   8.645  13.097   8.444
  175SOL    HW2 2423   8.638  13.188   8.322
  176SOL     OW 2424   4.879  11.558   6.669
  176SOL    HW1 2425   4.914  11.531   6.584
  176SOL    HW2 2426   4.936  11.516   6.733
  177SOL     OW 2427   1.098   3.824  11.640
  177SOL    HW1 2428   1.101   3.778  11.556
  177SOL    HW2 2429   1.047   3.766  11.697
  178SOL     OW 2430   4.469  10.485   9.009
  178SOL    HW1 2431   4.455  10.566   9.059
  178SOL    HW2 2432   4.551  10.450   9.044
  179SOL     OW 2433   5.887   2.369   6.985
  179SOL    HW1 2434   5.813   2.350   6.926
  179SOL    HW2 2435   5.954   2.405   6.927
  180SOL     OW 2436  12.200   1.966   2.240
  180SOL    HW1 2437  12.208   1.903   2.311
  180SOL    HW2 2438  12.194   2.051   2.284
  181SOL     OW 2439  14.536   5.093  12.146
  181SOL    HW1 2440  14.631   5.106  12.145
  181SOL    HW2 2441  14.500   5.180  12.129
  182SOL     OW 2442   8.129   1.196  13.998
  182SOL    HW1 2443   8.043   1.159  13.976
  182SOL    HW2 2444   8.184   1.119  14.012
  183SOL     OW 2445  10.427   5.474  13.258
  183SOL    HW1 2446  10.491   5.403  13.255
  183SOL    HW2 2447  10.384   5.471  13.173
  184SOL     OW 2448   9.360   3.549   7.630
  184SOL    HW1 2449   9.297   3.511   7.691
  184SOL    HW2 2450   9.371   3.639   7.660
  185SOL     OW 2451   9.422  10.808   9.726
  185SOL    HW1 2452   9.457  10.812   9.815
  185SOL    HW2 2453   9.329  10.831   9.736
  186SOL     OW 2454   7.102  13.189   9.267
  186SOL    HW1 2455   7.183  13.235   9.290
  186SOL    HW2 2456   7.083  13.217   9.178
  187SOL     OW 2457   7.194   5.149  13.817
  187SOL    HW1 2458   7.162   5.070  13.861
  187SOL    HW2 2459   7.122   5.211  13.825
  188SOL     OW 2460   8.492   2.745  12.790
  188SOL    HW1 2461   8.456   2.744  12.701
  188SOL    HW2 2462   8.421   2.776  12.845
  189SOL     OW 2463   0.906  12.186   6.339
  189SOL    HW1 2464   0.875  12.109   6.291
  189SOL    HW2 2465   0.983  12.216   6.290
  190SOL     OW 2466  13.472   1.473   4.605
  190SOL    HW1 2467  13.427   1.487   4.521
  190SOL    HW2 2468  13.426   1.400   4.645
  191SOL     OW 2469  12.463  13.338   8.326
  191SOL    HW1 2470  12.425  13.279   8.261
  191SOL    HW2 2471  12.536  13.288   8.363
  192SOL     OW 2472   7.749   7.410   4.446
  192SOL    HW1 2473   7.744   7.437   4.538
  192SOL    HW2 2474   7.658   7.416   4.414
  193SOL     OW 2475  11.070   0.632   3.838
  193SOL    HW1 2476  11.025   0.706   3.879
  193SOL    HW2 2477  11.091   0.662   3.750
  194SOL     OW 2478   7.861   4.684  14.776
  194SOL    HW1 2479   7.886   4.635  14.854
  194SOL    HW2 2480   7.903   4.637  14.704
  195SOL     OW 2481   7.477   2.752  12.786
  195SOL    HW1 2482   7.419   2.807  12.733
  195SOL    HW2 2483   7.552   2.734  12.730
  196SOL     OW 2484  10.412   1.021  12.717
  196SOL    HW1 2485  10.382   1.093  12.772
  196SOL    HW2 2486  10.432   1.061  12.633
  197SOL     OW 2487   3.386   9.784  11.146
  197SOL    HW1 2488   3.403   9.848  11.077
  197SOL    HW2 2489   3.296   9.756  11.132
  198SOL     OW 2490   8.581  11.156  10.131
  198SOL    HW1 2491   8.663  11.109  10.112
  198SOL    HW2 2492   8.512  11.092  10.115
  199SOL     OW 2493   1.243  12.763   4.565
  199SOL    HW1 2494   1.304  12.701   4.526
  199SOL    HW2 2495   1.250  12.748   4.659
  200SOL     OW 2496  13.839   6.162   7.907
  200SOL    HW1 2497  13.782   6.100   7.953
  200SOL    HW2 2498  13.816   6.153   7.815
  201SOL     OW 2499   9.461   0.013   6.211
  201SOL    HW1 2500   9.532   0.001   6.274
  201SOL    HW2 2501   9.437  14.796   6.185
  202SOL     OW 2502  10.966   9.324   0.866
  202SOL    HW1 2503  10.913   9.336   0.945
  202SOL    HW2 2504  10.967   9.409   0.824
  203SOL     OW 2505   9.719   2.018   4.171
  203SOL    HW1 2506   9.732   2.019   4.077
  203SOL    HW2 2507   9.659   1.944   4.186
  204SOL     OW 2508   0.547   8.983  14.718
  204SOL    HW1 2509   0.595   8.934  14.784
  204SOL    HW2 2510   0.540   8.923  14.643
  205SOL     OW 2511   0.113   7.936   9.864
  205SOL    HW1 2512   0.093   7.879   9.938
  205SOL    HW2 2513   0.200   7.908   9.835
  206SOL     OW 2514   3.365  12.768   2.219
  206SOL    HW1 2515   3.428  12.820   2.169
  206SOL    HW2 2516   3.288  12.764   2.163
  207SOL     OW 2517   4.479   8.456   8.326
  207SOL    HW1 2518   4.429   8.538   8.331
  207SOL    HW2 2519   4.532   8.456   8.405
  208SOL     OW 2520   0.899   6.185   7.486
  208SOL    HW1 2521   0.861   6.264   7.526
  208SOL    HW2 2522   0.912   6.125   7.559
  209SOL     OW 2523   3.523   6.771   2.981
  209SOL    HW1 2524   3.582   6.698   2.962
  209SOL    HW2 2525   3.444   6.729   3.014
  210SOL     OW 2526   2.468  12.851  12.147
  210SOL    HW1 2527   2.527  12.925  12.133
  210SOL    HW2 2528   2.449  12.819  12.058
  211SOL     OW 2529  13.659  12.291   6.381
  211SOL    HW1 2530  13.703  12.213   6.414
  211SOL    HW2 2531  13.646  12.346   6.459
  212SOL     OW 2532   0.724  11.744   6.397
  212SOL    HW1 2533   0.667  11.713   6.468
  212SOL    HW2 2534   0.809  11.706   6.416
  213SOL     OW 2535   3.255   4.131  14.786
  213SOL    HW1 2536   3.228   4.100  14.700
  213SOL    HW2 2537   3.305   4.059  14.824
  214SOL     OW 2538   9.425   9.636   3.191
  214SOL    HW1 2539   9.456   9.548   3.214
  214SOL    HW2 2540   9.333   9.623   3.167
  215SOL     OW 2541  14.311  13.757  10.902
  215SOL    HW1 2542  14.328  13.725  10.990
  215SOL    HW2 2543  14.223  13.792  10.906
  216SOL     OW 2544   6.558   0.680   2.985
  216SOL    HW1 2545   6.560   0.769   3.021
  216SOL    HW2 2546   6.650   0.657   2.973
  217SOL     OW 2547  13.715  10.428   3.314
  217SOL    HW1 2548  13.796  10.438   3.364
  217SOL    HW2 2549  13.709  10.508   3.261
  218SOL     OW 2550   2.536   1.630  13.050
  218SOL    HW1 2551   2.490   1.700  13.005
  218SOL    HW2 2552   2.546   1.561  12.984
  219SOL     OW 2553   1.738  11.015   1.267
  219SOL    HW1 2554   1.784  11.084   1.219
  219SOL    HW2 2555   1.710  10.953   1.199
  220SOL     OW 2556   8.508  11.161   8.000
  220SOL    HW1 2557   8.513  11.251   8.030
  220SOL    HW2 2558   8.532  11.108   8.076
  221SOL     OW 2559  12.191   9.034   5.531
  221SOL    HW1 2560  12.136   8.970   5.486
  221SOL    HW2 2561  12.130   9.102   5.560
  222SOL     OW 2562   8.583   8.861   6.742
  222SOL    HW1 2563   8.626   8.782   6.777
  222SOL    HW2 2564   8.539   8.899   6.818
  223SOL     OW 2565   3.217   2.974   0.584
  223SOL    HW1 2566   3.207   3.057   0.631
  223SOL    HW2 2567   3.160   2.913   0.631
  224SOL     OW 2568   9.510  10.755  14.474
  224SOL    HW1 2569   9.508  10.682  14.412
  224SOL    HW2 2570   9.603  10.769  14.492
  225SOL     OW 2571   8.467   3.429   7.938
  225SOL    HW1 2572   8.482   3.387   7.853
  225SOL    HW2 2573   8.518   3.510   7.934
  226SOL     OW 2574   4.169  13.556  12.779
  226SOL    HW1 2575   4.165  13.610  12.858
  226SOL    HW2 2576   4.125  13.609  12.712
  227SOL     OW 2577   1.220   4.503  11.336
  227SOL    HW1 2578   1.268   4.525  11.416
  227SOL    HW2 2579   1.239   4.574  11.276
  228SOL     OW 2580   6.273   3.960  13.923
  228SOL    HW1 2581   6.234   4.032  13.973
  228SOL    HW2 2582   6.291   3.996  13.837
  229SOL     OW 2583  11.986   9.052   9.021
  229SOL    HW1 2584  11.947   9.010   9.097
  229SOL    HW2 2585  11.983   9.146   9.041
  230SOL     OW 2586   4.238  10.094  13.278
  230SOL    HW1 2587   4.167  10.159  13.279
  230SOL    HW2 2588   4.290  10.113  13.356
  231SOL     OW 2589  10.387  14.806   3.892
  231SOL    HW1 2590  10.338  14.792   3.812
  231SOL    HW2 2591  10.479  14.803   3.865
  232SOL     OW 2592   4.546  13.022   5.121
  232SOL    HW1 2593   4.589  12.982   5.197
  232SOL    HW2 2594   4.609  13.014   5.050
  233SOL     OW 2595   7.947   6.606  10.042
  233SOL    HW1 2596   7.889   6.591   9.967
  233SOL    HW2 2597   7.955   6.520  10.083
  234SOL     OW 2598   7.234  10.024  14.378
  234SOL    HW1 2599   7.230  10.052  14.287
  234SOL    HW2 2600   7.328  10.014  14.396
  235SOL     OW 2601  14.312   4.532  13.819
  235SOL    HW1 2602  14.298   4.440  13.796
  235SOL    HW2 2603  14.225   4.568  13.832
  236SOL     OW 2604  12.171   5.010   5.926
  236SOL    HW1 2605  12.199   4.924   5.894
  236SOL    HW2 2606  12.108   4.991   5.995
  237SOL     OW 2607  11.648   6.084   9.437
  237SOL    HW1 2608  11.707   6.159   9.428
  237SOL    HW2 2609  11.671   6.027   9.363
  238SOL     OW 2610   6.451   6.905  13.202
  238SOL    HW1 2611   6.543   6.883  13.215
  238SOL    HW2 2612   6.433   6.973  13.268
  239SOL     OW 2613  14.204   5.173  13.831
  239SOL    HW1 2614  14.192   5.079  13.840
  239SOL    HW2 2615  14.290   5.191  13.870
  240SOL     OW 2616  10.523  12.197   7.588
  240SOL    HW1 2617  10.597  12.207   7.527
  240SOL    HW2 2618  10.561  12.155   7.665
  241SOL     OW 2619   7.476  13.258  13.411
  241SOL    HW1 2620   7.514  13.270  13.499
  241SOL    HW2 2621   7.448  13.167  13.410
  242SOL     OW 2622   4.163   5.440   0.240
  242SOL    HW1 2623   4.075   5.477   0.238
  242SOL    HW2 2624   4.169   5.387   0.160
  243SOL     OW 2625   4.780   0.236  13.367
  243SOL    HW1 2626   4.858   0.184  13.386
  243SOL    HW2 2627   4.731   0.183  13.304
  244SOL     OW 2628   4.689   9.114   0.466
  244SOL    HW1 2629   4.752   9.053   0.505
  244SOL    HW2 2630   4.668   9.174   0.537
  245SOL     OW 2631   6.224   4.553  11.082
  245SOL    HW1 2632   6.244   4.561  11.175
  245SOL    HW2 2633   6.141   4.507  11.079
  246SOL     OW 2634   0.778   9.825  10.559
  246SOL    HW1 2635   0.784   9.880  10.480
  246SOL    HW2 2636   0.734   9.746  10.529
  247SOL     OW 2637   7.256  13.990   0.300
  247SOL    HW1 2638   7.176  13.941   0.284
  247SOL    HW2 2639   7.259  14.056   0.230
  248SOL     OW 2640  12.928   6.633  11.058
  248SOL    HW1 2641  12.938   6.541  11.082
  248SOL    HW2 2642  12.951   6.636  10.965
  249SOL     OW 2643   5.992  14.497   2.155
  249SOL    HW1 2644   6.084  14.472   2.154
  249SOL    HW2 2645   5.957  14.458   2.235
  250SOL     OW 2646   9.092   5.661   4.589
  250SOL    HW1 2647   9.163   5.698   4.641
  250SOL    HW2 2648   9.013   5.680   4.639
  251SOL     OW 2649   3.499   6.997   1.735
  251SOL    HW1 2650   3.546   6.998   1.651
  251SOL    HW2 2651   3.411   6.967   1.712
  252SOL     OW 2652  12.399  13.871  14.516
  252SOL    HW1 2653  12.436  13.945  14.468
  252SOL    HW2 2654  12.319  13.906  14.556
  253SOL     OW 2655  11.552   8.463  14.239
  253SOL    HW1 2656  11.516   8.512  14.313
  253SOL    HW2 2657  11.618   8.521  14.201
  254SOL     OW 2658  11.931  11.862   6.619
  254SOL    HW1 2659  11.953  11.887   6.529
  254SOL    HW2 2660  11.872  11.932   6.649
  255SOL     OW 2661  13.745   1.156   0.113
  255SOL    HW1 2662  13.668   1.204   0.082
  255SOL    HW2 2663  13.709   1.085   0.167
  256SOL     OW 2664   6.196  11.374  11.046
  256SOL    HW1 2665   6.244  11.341  11.122
  256SOL    HW2 2666   6.112  11.329  11.048
  257SOL     OW 2667  11.748   2.452   6.183
  257SOL    HW1 2668  11.698   2.393   6.240
  257SOL    HW2 2669  11.776   2.522   6.241
  258SOL     OW 2670   3.246   8.336  14.841
  258SOL    HW1 2671   3.280   8.392   0.039
  258SOL    HW2 2672   3.244   8.248   0.009
  259SOL     OW 2673  10.041  14.198   0.396
  259SOL    HW1 2674   9.965  14.213   0.452
  259SOL    HW2 2675  10.073  14.286   0.375
  260SOL     OW 2676  14.098   0.198   8.486
  260SOL    HW1 2677  14.088   0.112   8.443
  260SOL    HW2 2678  14.056   0.187   8.571
  261SOL     OW 2679   5.656   3.762   6.004
  261SOL    HW1 2680   5.675   3.698   6.072
  261SOL    HW2 2681   5.735   3.764   5.950
  262SOL     OW 2682   9.952  14.717   0.368
  262SOL    HW1 2683  10.022  14.776   0.396
  262SOL    HW2 2684   9.894  14.710   0.444
  263SOL     OW 2685  10.834  14.042   5.521
  263SOL    HW1 2686  10.903  13.978   5.538
  263SOL    HW2 2687  10.866  14.123   5.561
  264SOL     OW 2688   8.844   5.303   6.076
  264SOL    HW1 2689   8.911   5.336   6.136
  264SOL    HW2 2690   8.775   5.271   6.134
  265SOL     OW 2691   6.212   0.573   1.239
  265SOL    HW1 2692   6.184   0.662   1.220
  265SOL    HW2 2693   6.148   0.517   1.195
  266SOL     OW 2694   2.896   6.873  14.355
  266SOL    HW1 2695   2.949   6.935  14.405
  266SOL    HW2 2696   2.813   6.868  14.404
  267SOL     OW 2697   2.085   1.850   9.525
  267SOL    HW1 2698   2.147   1.916   9.555
  267SOL    HW2 2699   2.005   1.899   9.506
  268SOL     OW 2700   3.542   4.422   6.907
  268SOL    HW1 2701   3.455   4.387   6.927
  268SOL    HW2 2702   3.547   4.504   6.956
  269SOL     OW 2703   3.286   1.451   8.736
  269SOL    HW1 2704   3.302   1.522   8.674
  269SOL    HW2 2705   3.280   1.373   8.682
  270SOL     OW 2706  11.189   5.338   5.212
  270SOL    HW1 2707  11.158   5.381   5.292
  270SOL    HW2 2708  11.117   5.281   5.186
  271SOL     OW 2709   0.224   3.366   1.828
  271SOL    HW1 2710   0.232   3.419   1.907
  271SOL    HW2 2711   0.257   3.279   1.854
  272SOL     OW 2712   8.830  13.383   4.807
  272SOL    HW1 2713   8.860  13.471   4.826
  272SOL    HW2 2714   8.800  13.386   4.717
  273SOL     OW 2715  14.105  12.800   3.406
  273SOL    HW1 2716  14.158  12.727   3.374
  273SOL    HW2 2717  14.018  12.782   3.373
  274SOL     OW 2718   7.333  12.167  14.130
  274SOL    HW1 2719   7.270  12.218  14.079
  274SOL    HW2 2720   7.415  12.216  14.122
  275SOL     OW 2721  12.210   2.996   6.105
  275SOL    HW1 2722  12.305   2.999   6.088
  275SOL    HW2 2723  12.196   3.064   6.171
  276SOL     OW 2724   3.405   5.013   2.406
  276SOL    HW1 2725   3.338   4.946   2.423
  276SOL    HW2 2726   3.362   5.075   2.348
  277SOL     OW 2727  10.942  10.491   5.514
  277SOL    HW1 2728  10.925  10.440   5.434
  277SOL    HW2 2729  11.010  10.553   5.489
  278SOL     OW 2730  10.391  13.985   9.650
  278SOL    HW1 2731  10.480  13.962   9.676
  278SOL    HW2 2732  10.400  14.019   9.561
  279SOL     OW 2733  11.201   8.042  10.026
  279SOL    HW1 2734  11.184   8.135  10.038
  279SOL    HW2 2735  11.231   8.035   9.935
  280SOL     OW 2736   4.824   3.792   0.581
  280SOL    HW1 2737   4.825   3.874   0.532
  280SOL    HW2 2738   4.751   3.801   0.642
  281SOL     OW 2739  13.306   4.955   3.390
  281SOL    HW1 2740  13.306   4.859   3.397
  281SOL    HW2 2741  13.242   4.974   3.322
  282SOL     OW 2742   1.142   1.138   8.010
  282SOL    HW1 2743   1.047   1.129   8.014
  282SOL    HW2 2744   1.156   1.203   7.941
  283SOL     OW 2745   0.991   6.781   7.855
  283SOL    HW1 2746   0.929   6.707   7.849
  283SOL    HW2 2747   0.938   6.857   7.833
  284SOL     OW 2748   6.388  10.632   0.128
  284SOL    HW1 2749   6.477  10.599   0.113
  284SOL    HW2 2750   6.335  10.591   0.060
  285SOL     OW 2751   9.109  10.512   8.457
  285SOL    HW1 2752   9.188  10.547   8.498
  285SOL    HW2 2753   9.047  10.585   8.457
  286SOL     OW 2754   3.116   7.626   1.158
  286SOL    HW1 2755   3.125   7.629   1.254
  286SOL    HW2 2756   3.197   7.665   1.126
  287SOL     OW 2757  11.563   9.205   2.129
  287SOL    HW1 2758  11.531   9.157   2.053
  287SOL    HW2 2759  11.485   9.221   2.182
  288SOL     OW 2760   2.403   0.696   1.212
  288SOL    HW1 2761   2.395   0.665   1.302
  288SOL    HW2 2762   2.324   0.666   1.169
  289SOL     OW 2763   9.572   5.917   4.191
  289SOL    HW1 2764   9.568   6.007   4.224
  289SOL    HW2 2765   9.624   5.923   4.111
  290SOL     OW 2766  13.995  11.267   3.221
  290SOL    HW1 2767  13.949  11.213   3.284
  290SOL    HW2 2768  13.943  11.261   3.141
  291SOL     OW 2769   1.720   0.683   3.930
  291SOL    HW1 2770   1.747   0.684   3.838
  291SOL    HW2 2771   1.772   0.751   3.972
  292SOL     OW 2772  13.946  10.317   4.294
  292SOL    HW1 2773  13.994  10.244   4.253
  292SOL    HW2 2774  13.951  10.299   4.388
  293SOL     OW 2775  10.259  11.055   9.401
  293SOL    HW1 2776  10.345  11.087   9.431
  293SOL    HW2 2777  10.221  11.015   9.479
  294SOL     OW 2778   4.377   1.227   6.041
  294SOL    HW1 2779   4.358   1.136   6.065
  294SOL    HW2 2780   4.361   1.277   6.121
  295SOL     OW 2781   8.134   7.155   1.677
  295SOL    HW1 2782   8.215   7.201   1.655
  295SOL    HW2 2783   8.074   7.224   1.707
  296SOL     OW 2784   8.384   2.522   7.862
  296SOL    HW1 2785   8.467   2.556   7.895
  296SOL    HW2 2786   8.335   2.599   7.833
  297SOL     OW 2787   4.334   4.388   0.053
  297SOL    HW1 2788   4.422   4.354   0.066
  297SOL    HW2 2789   4.277   4.325   0.096
  298SOL     OW 2790   0.957  10.886   9.552
  298SOL    HW1 2791   1.020  10.816   9.566
  298SOL    HW2 2792   0.928  10.911   9.640
  299SOL     OW 2793  13.169   3.186   4.249
  299SOL    HW1 2794  13.197   3.185   4.157
  299SOL    HW2 2795  13.216   3.113   4.288
  300SOL     OW 2796   6.369   0.809   9.673
  300SOL    HW1 2797   6.396   0.722   9.703
  300SOL    HW2 2798   6.274   0.805   9.668
  301SOL     OW 2799   3.378   5.565  12.969
  301SOL    HW1 2800   3.327   5.622  12.911
  301SOL    HW2 2801   3.414   5.499  12.910
  302SOL     OW 2802  13.465   1.951  14.450
  302SOL    HW1 2803  13.491   2.027  14.396
  302SOL    HW2 2804  13.382   1.923  14.412
  303SOL     OW 2805   7.096  11.174   8.697
  303SOL    HW1 2806   7.040  11.149   8.624
  303SOL    HW2 2807   7.135  11.092   8.727
  304SOL     OW 2808  12.584   1.379   8.614
  304SOL    HW1 2809  12.620   1.468   8.606
  304SOL    HW2 2810  12.489   1.392   8.614
  305SOL     OW 2811   8.807  12.467   4.050
  305SOL    HW1 2812   8.749  12.479   4.125
  305SOL    HW2 2813   8.749  12.456   3.975
  306SOL     OW 2814   5.787   0.398   7.137
  306SOL    HW1 2815   5.781   0.464   7.068
  306SOL    HW2 2816   5.828   0.443   7.211
  307SOL     OW 2817  11.186   2.432   9.986
  307SOL    HW1 2818  11.271   2.388   9.981
  307SOL    HW2 2819  11.206   2.516  10.028
  308SOL     OW 2820   4.864   4.126   5.948
  308SOL    HW1 2821   4.822   4.040   5.936
  308SOL    HW2 2822   4.835   4.154   6.035
  309SOL     OW 2823   3.966  14.751   0.421
  309SOL    HW1 2824   3.913  14.814   0.372
  309SOL    HW2 2825   3.910  14.675   0.433
  310SOL     OW 2826   8.572   6.386  11.069
  310SOL    HW1 2827   8.620   6.407  11.149
  310SOL    HW2 2828   8.610   6.443  11.002
  311SOL     OW 2829  12.529   6.117   2.216
  311SOL    HW1 2830  12.558   6.195   2.169
  311SOL    HW2 2831  12.464   6.077   2.158
  312SOL     OW 2832   2.331   0.123   5.867
  312SOL    HW1 2833   2.324   0.046   5.924
  312SOL    HW2 2834   2.403   0.102   5.808
  313SOL     OW 2835  14.707   5.674   0.926
  313SOL    HW1 2836  14.716   5.650   1.018
  313SOL    HW2 2837  14.703   5.590   0.879
  314SOL     OW 2838   5.509   0.430   8.419
  314SOL    HW1 2839   5.543   0.392   8.338
  314SOL    HW2 2840   5.466   0.357   8.464
  315SOL     OW 2841   8.818  14.757   5.932
  315SOL    HW1 2842   8.851  14.805   5.856
  315SOL    HW2 2843   8.784  14.825   5.990
  316SOL     OW 2844   6.132   8.952   9.093
  316SOL    HW1 2845   6.212   8.901   9.086
  316SOL    HW2 2846   6.151   9.034   9.048
  317SOL     OW 2847   5.637   6.638  12.426
  317SOL    HW1 2848   5.653   6.622  12.333
  317SOL    HW2 2849   5.724   6.639  12.466
  318SOL     OW 2850  11.632   6.196   1.275
  318SOL    HW1 2851  11.604   6.165   1.361
  318SOL    HW2 2852  11.725   6.215   1.285
  319SOL     OW 2853  10.320   7.301  11.490
  319SOL    HW1 2854  10.304   7.272  11.400
  319SOL    HW2 2855  10.234   7.328  11.523
  320SOL     OW 2856   2.645   3.705  14.798
  320SOL    HW1 2857   2.558   3.666  14.794
  320SOL    HW2 2858   2.698   3.652  14.739
  321SOL     OW 2859   0.123  12.954   8.063
  321SOL    HW1 2860   0.118  12.859   8.074
  321SOL    HW2 2861   0.160  12.966   7.976
  322SOL     OW 2862   7.044  10.871   4.143
  322SOL    HW1 2863   7.036  10.964   4.165
  322SOL    HW2 2864   6.987  10.827   4.206
  323SOL     OW 2865  10.388  10.969  14.835
  323SOL    HW1 2866  10.383  11.063  14.852
  323SOL    HW2 2867  10.337  10.956  14.755
  324SOL     OW 2868   6.381   2.855  13.942
  324SOL    HW1 2869   6.471   2.881  13.962
  324SOL    HW2 2870   6.388   2.808  13.858
  325SOL     OW 2871  13.707   2.745   3.880
  325SOL    HW1 2872  13.642   2.805   3.844
  325SOL    HW2 2873  13.657   2.689   3.939
  326SOL     OW 2874  10.733   8.836   5.808
  326SOL    HW1 2875  10.802   8.868   5.750
  326SOL    HW2 2876  10.767   8.752   5.841
  327SOL     OW 2877   9.327  10.621   8.587
  327SOL    HW1 2878   9.367  10.706   8.606
  327SOL    HW2 2879   9.284  10.596   8.668
  328SOL     OW 2880   2.629  12.635   1.127
  328SOL    HW1 2881   2.613  12.598   1.040
  328SOL    HW2 2882   2.543  12.642   1.167
  329SOL     OW 2883  13.370   5.870   1.144
  329SOL    HW1 2884  13.300   5.874   1.209
  329SOL    HW2 2885  13.337   5.921   1.070
  330SOL     OW 2886  14.249  13.792   5.686
  330SOL    HW1 2887  14.237  13.734   5.761
  330SOL    HW2 2888  14.168  13.842   5.681
  331SOL     OW 2889   2.785   7.783  12.558
  331SOL    HW1 2890   2.852   7.769  12.492
  331SOL    HW2 2891   2.706   7.742  12.522
  332SOL     OW 2892   9.875  13.696  13.947
  332SOL    HW1 2893   9.811  13.767  13.951
  332SOL    HW2 2894   9.939  13.717  14.015
  333SOL     OW 2895   7.063   0.512   9.780
  333SOL    HW1 2896   6.977   0.471   9.788
  333SOL    HW2 2897   7.104   0.498   9.866
  334SOL     OW 2898   5.393   9.660  13.642
  334SOL    HW1 2899   5.356   9.656  13.730
  334SOL    HW2 2900   5.371   9.575  13.603
  335SOL     OW 2901  13.741  14.523  11.965
  335SOL    HW1 2902  13.700  14.522  11.879
  335SOL    HW2 2903  13.710  14.443  12.008
  336SOL     OW 2904   3.200   5.594   0.223
  336SOL    HW1 2905   3.274   5.544   0.257
  336SOL    HW2 2906   3.214   5.683   0.255
  337SOL     OW 2907   6.334   2.688   8.431
  337SOL    HW1 2908   6.394   2.760   8.409
  337SOL    HW2 2909   6.260   2.731   8.474
  338SOL     OW 2910  10.779   2.363   1.377
  338SOL    HW1 2911  10.836   2.439   1.364
  338SOL    HW2 2912  10.835   2.298   1.419
  339SOL     OW 2913   9.278   3.349   4.242
  339SOL    HW1 2914   9.227   3.371   4.165
  339SOL    HW2 2915   9.259   3.420   4.305
  340SOL     OW 2916   1.380   5.416   7.615
  340SOL    HW1 2917   1.458   5.430   7.670
  340SOL    HW2 2918   1.356   5.325   7.631
  341SOL     OW 2919  12.711   0.006   8.293
  341SOL    HW1 2920  12.785   0.052   8.333
  341SOL    HW2 2921  12.751  14.809   8.240
  342SOL     OW 2922  12.694   4.146   4.967
  342SOL    HW1 2923  12.783   4.115   4.979
  342SOL    HW2 2924  12.642   4.067   4.952
  343SOL     OW 2925   9.289  12.159  14.239
  343SOL    HW1 2926   9.310  12.169  14.331
  343SOL    HW2 2927   9.211  12.213  14.226
  344SOL     OW 2928  14.302  12.572   8.685
  344SOL    HW1 2929  14.346  12.491   8.658
  344SOL    HW2 2930  14.362  12.642   8.659
  345SOL     OW 2931   0.296  12.633  11.347
  345SOL    HW1 2932   0.383  12.600  11.371
  345SOL    HW2 2933   0.312  12.722  11.316
  346SOL     OW 2934   4.793   6.281   0.548
  346SOL    HW1 2935   4.760   6.204   0.594
  346SOL    HW2 2936   4.714   6.332   0.527
  347SOL     OW 2937  10.416   5.547  14.473
  347SOL    HW1 2938  10.460   5.504  14.400
  347SOL    HW2 2939  10.398   5.636  14.442
  348SOL     OW 2940   6.510   1.754  10.530
  348SOL    HW1 2941   6.518   1.751  10.435
  348SOL    HW2 2942   6.581   1.811  10.559
  349SOL     OW 2943  12.948   7.313  13.354
  349SOL    HW1 2944  12.917   7.375  13.289
  349SOL    HW2 2945  12.993   7.245  13.303
  350SOL     OW 2946   2.514  11.831  12.169
  350SOL    HW1 2947   2.546  11.885  12.241
  350SOL    HW2 2948   2.453  11.888  12.122
  351SOL     OW 2949   8.045   2.745  14.467
  351SOL    HW1 2950   8.049   2.841  14.471
  351SOL    HW2 2951   8.079   2.716  14.552
  352SOL     OW 2952   8.211   4.887   2.999
  352SOL    HW1 2953   8.281   4.943   2.965
  352SOL    HW2 2954   8.147   4.948   3.035
  353SOL     OW 2955   4.388   0.466   3.586
  353SOL    HW1 2956   4.328   0.424   3.647
  353SOL    HW2 2957   4.360   0.558   3.584
  354SOL     OW 2958   5.284   3.776   4.688
  354SOL    HW1 2959   5.242   3.690   4.689
  354SOL    HW2 2960   5.372   3.761   4.723
  355SOL     OW 2961   9.621   1.769   4.158
  355SOL    HW1 2962   9.652   1.696   4.105
  355SOL    HW2 2963   9.562   1.730   4.222
  356SOL     OW 2964   8.021   8.383   9.138
  356SOL    HW1 2965   7.938   8.409   9.179
  356SOL    HW2 2966   8.077   8.358   9.212
  357SOL     OW 2967   4.619   6.843  14.479
  357SOL    HW1 2968   4.568   6.764  14.494
  357SOL    HW2 2969   4.710   6.812  14.479
  358SOL     OW 2970   9.722   8.640  12.022
  358SOL    HW1 2971   9.767   8.568  11.979
  358SOL    HW2 2972   9.769   8.719  11.994
  359SOL     OW 2973   6.377  10.962  11.443
  359SOL    HW1 2974   6.284  10.974  11.458
  359SOL    HW2 2975   6.388  10.974  11.348
  360SOL     OW 2976  14.692   4.439   6.573
  360SOL    HW1 2977  14.603   4.432   6.538
  360SOL    HW2 2978  14.737   4.497   6.512
  361SOL     OW 2979   6.285   5.475   7.920
  361SOL    HW1 2980   6.343   5.457   7.846
  361SOL    HW2 2981   6.197   5.467   7.884
  362SOL     OW 2982  12.225   0.897   8.473
  362SOL    HW1 2983  12.321   0.894   8.471
  362SOL    HW2 2984  12.204   0.990   8.477
  363SOL     OW 2985   6.986   6.635   8.814
  363SOL    HW1 2986   6.934   6.711   8.788
  363SOL    HW2 2987   6.924   6.562   8.813
  364SOL     OW 2988   4.222  13.555   4.451
  364SOL    HW1 2989   4.133  13.530   4.426
  364SOL    HW2 2990   4.213  13.591   4.540
  365SOL     OW 2991   2.564   5.774  11.267
  365SOL    HW1 2992   2.644   5.721  11.271
  365SOL    HW2 2993   2.537   5.769  11.175
  366SOL     OW 2994   1.791   9.688  10.859
  366SOL    HW1 2995   1.748   9.699  10.944
  366SOL    HW2 2996   1.882   9.711  10.875
  367SOL     OW 2997   0.337   0.101   1.100
  367SOL    HW1 2998   0.297   0.081   1.016
  367SOL    HW2 2999   0.426   0.128   1.079
  368SOL     OW 3000  12.973   2.821   3.994
  368SOL    HW1 3001  13.000   2.790   4.081
  368SOL    HW2 3002  12.937   2.908   4.010
  369SOL     OW 3003   5.931   4.261   1.630
  369SOL    HW1 3004   5.862   4.324   1.610
  369SOL    HW2 3005   5.982   4.255   1.549
  370SOL     OW 3006   1.339  10.874   4.426
  370SOL    HW1 3007   1.343  10.823   4.507
  370SOL    HW2 3008   1.253  10.915   4.428
  371SOL     OW 3009  11.309  13.947   8.293
  371SOL    HW1 3010  11.214  13.941   8.307
  371SOL    HW2 3011  11.346  13.881   8.351
  372SOL     OW 3012   3.967   4.683   8.870
  372SOL    HW1 3013   3.878   4.660   8.899
  372SOL    HW2 3014   3.968   4.778   8.869
  373SOL     OW 3015   8.473   7.219   5.154
  373SOL    HW1 3016   8.547   7.256   5.202
  373SOL    HW2 3017   8.446   7.289   5.094
  374SOL     OW 3018   8.971   9.799   0.045
  374SOL    HW1 3019   9.029   9.744  14.863
  374SOL    HW2 3020   8.960   9.750   0.126
  375SOL     OW 3021   0.674   8.790   0.433
  375SOL    HW1 3022   0.592   8.763   0.392
  375SOL    HW2 3023   0.735   8.718   0.413
  376SOL     OW 3024  14.575   7.165  12.364
  376SOL    HW1 3025  14.532   7.213  12.435
  376SOL    HW2 3026  14.668   7.178  12.379
  377SOL     OW 3027  12.639   8.020   5.379
  377SOL    HW1 3028  12.598   8.099   5.343
  377SOL    HW2 3029  12.632   8.031   5.474
  378SOL     OW 3030   6.154   8.986   2.577
  378SOL    HW1 3031   6.206   9.058   2.543
  378SOL    HW2 3032   6.063   9.015   2.568
  379SOL     OW 3033   1.200   0.703   0.840
  379SOL    HW1 3034   1.194   0.794   0.810
  379SOL    HW2 3035   1.221   0.654   0.760
  380SOL     OW 3036  11.622  14.537   8.673
  380SOL    HW1 3037  11.537  14.513   8.636
  380SOL    HW2 3038  11.682  14.535   8.599
  381SOL     OW 3039  10.481   2.190   5.750
  381SOL    HW1 3040  10.517   2.276   5.730
  381SOL    HW2 3041  10.461   2.151   5.665
  382SOL     OW 3042   7.818   7.593   3.188
  382SOL    HW1 3043   7.892   7.582   3.129
  382SOL    HW2 3044   7.844   7.547   3.268
  383SOL     OW 3045   2.904   2.212  11.225
  383SOL    HW1 3046   2.888   2.125  11.260
  383SOL    HW2 3047   2.828   2.263  11.252
  384SOL     OW 3048   9.642   5.189  13.768
  384SOL    HW1 3049   9.708   5.229  13.711
  384SOL    HW2 3050   9.560   5.200  13.720
  385SOL     OW 3051  10.291   7.686   4.972
  385SOL    HW1 3052  10.381   7.681   5.004
  385SOL    HW2 3053  10.282   7.612   4.912
  386SOL     OW 3054   8.545   8.281   7.179
  386SOL    HW1 3055   8.597   8.230   7.117
  386SOL    HW2 3056   8.468   8.309   7.128
  387SOL     OW 3057   5.874  10.151   7.052
  387SOL    HW1 3058   5.946  10.102   7.013
  387SOL    HW2 3059   5.814  10.084   7.085
  388SOL     OW 3060   3.301   8.120   1.449
  388SOL    HW1 3061   3.223   8.097   1.499
  388SOL    HW2 3062   3.296   8.216   1.440
  389SOL     OW 3063   6.938  10.705   1.945
  389SOL    HW1 3064   6.892  10.777   1.988
  389SOL    HW2 3065   6.989  10.663   2.014
  390SOL     OW 3066   6.142   2.680   3.107
  390SOL    HW1 3067   6.056   2.723   3.102
  390SOL    HW2 3068   6.204   2.749   3.087
  391SOL     OW 3069   7.253   5.954   7.704
  391SOL    HW1 3070   7.204   5.980   7.626
  391SOL    HW2 3071   7.302   5.877   7.677
  392SOL     OW 3072  10.418  14.749   1.672
  392SOL    HW1 3073  10.433  14.735   1.766
  392SOL    HW2 3074  10.469  14.828   1.651
  393SOL     OW 3075   1.581   5.151   4.913
  393SOL    HW1 3076   1.547   5.240   4.907
  393SOL    HW2 3077   1.669   5.161   4.949
  394SOL     OW 3078  11.604   9.458  13.595
  394SOL    HW1 3079  11.609   9.369  13.559
  394SOL    HW2 3080  11.594   9.514  13.518
  395SOL     OW 3081  12.574  11.033   9.691
  395SOL    HW1 3082  12.522  11.082   9.755
  395SOL    HW2 3083  12.661  11.027   9.730
  396SOL     OW 3084  10.992   1.204  14.161
  396SOL    HW1 3085  10.963   1.250  14.241
  396SOL    HW2 3086  11.044   1.131  14.194
  397SOL     OW 3087   7.492  14.166  12.719
  397SOL    HW1 3088   7.397  14.167  12.734
  397SOL    HW2 3089   7.519  14.257  12.728
  398SOL     OW 3090   2.233   0.580   3.220
  398SOL    HW1 3091   2.313   0.549   3.264
  398SOL    HW2 3092   2.265   0.631   3.146
  399SOL     OW 3093   5.103   0.629   3.099
  399SOL    HW1 3094   5.077   0.717   3.126
  399SOL    HW2 3095   5.182   0.642   3.047
  400SOL     OW 3096   1.212   2.903   7.017
  400SOL    HW1 3097   1.231   2.905   7.111
  400SOL    HW2 3098   1.126   2.945   7.009
  401SOL     OW 3099   2.129   7.045  14.075
  401SOL    HW1 3100   2.119   7.058  13.980
  401SOL    HW2 3101   2.203   6.985  14.083
  402SOL     OW 3102   7.656   8.219   1.761
  402SOL    HW1 3103   7.735   8.233   1.813
  402SOL    HW2 3104   7.687   8.211   1.671
  403SOL     OW 3105  14.148  10.316   8.546
  403SOL    HW1 3106  14.203  10.244   8.574
  403SOL    HW2 3107  14.171  10.389   8.604
  404SOL     OW 3108   6.598  10.436   9.051
  404SOL    HW1 3109   6.504  10.457   9.053
  404SOL    HW2 3110   6.640  10.511   9.093
  405SOL     OW 3111  14.511   3.860  13.693
  405SOL    HW1 3112  14.582   3.885  13.635
  405SOL    HW2 3113  14.433   3.859  13.637
  406SOL     OW 3114   3.222  12.270   2.777
  406SOL    HW1 3115   3.244  12.243   2.866
  406SOL    HW2 3116   3.138  12.316   2.786
  407SOL     OW 3117   6.069   8.478  14.736
  407SOL    HW1 3118   6.112   8.395  14.714
  407SOL    HW2 3119   6.008   8.456  14.806
  408SOL     OW 3120  14.740   8.270   1.394
  408SOL    HW1 3121  14.646   8.254   1.401
  408SOL    HW2 3122  14.781   8.190   1.426
  409SOL     OW 3123   6.132   8.686   8.159
  409SOL    HW1 3124   6.062   8.697   8.224
  409SOL    HW2 3125   6.087   8.668   8.077
  410SOL     OW 3126  11.579  10.389   5.888
  410SOL    HW1 3127  11.507  10.327   5.895
  410SOL    HW2 3128  11.550  10.452   5.822
  411SOL     OW 3129   3.759  13.697   1.257
  411SOL    HW1 3130   3.748  13.773   1.200
  411SOL    HW2 3131   3.671  13.674   1.285
  412SOL     OW 3132   7.833   8.466  12.320
  412SOL    HW1 3133   7.883   8.387  12.340
  412SOL    HW2 3134   7.829   8.514  12.403
  413SOL     OW 3135  13.441  12.050   6.144
  413SOL    HW1 3136  13.424  12.101   6.224
  413SOL    HW2 3137  13.451  11.960   6.176
  414SOL     OW 3138  10.652   8.109   3.006
  414SOL    HW1 3139  10.563   8.140   2.987
  414SOL    HW2 3140  10.640   8.017   3.031
  415SOL     OW 3141   6.602   2.358   3.583
  415SOL    HW1 3142   6.562   2.418   3.646
  415SOL    HW2 3143   6.555   2.276   3.595
  416SOL     OW 3144  14.342  11.476  12.437
  416SOL    HW1 3145  14.374  11.390  12.466
  416SOL    HW2 3146  14.255  11.459  12.403
  417SOL     OW 3147   1.509   7.764   8.448
  417SOL    HW1 3148   1.600   7.735   8.450
  417SOL    HW2 3149   1.499   7.816   8.528
  418SOL     OW 3150   2.362  14.617  13.972
  418SOL    HW1 3151   2.288  14.620  14.033
  418SOL    HW2 3152   2.433  14.576  14.022
  419SOL     OW 3153   2.752   5.482  12.095
  419SOL    HW1 3154   2.735   5.573  12.117
  419SOL    HW2 3155   2.807   5.449  12.166
  420SOL     OW 3156   6.748  12.873   6.319
  420SOL    HW1 3157   6.840  12.899   6.320
  420SOL    HW2 3158   6.736  12.823   6.399
  421SOL     OW 3159   2.970   7.033   6.476
  421SOL    HW1 3160   2.951   7.094   6.405
  421SOL    HW2 3161   2.897   7.046   6.538
  422SOL     OW 3162  13.434   9.033   6.875
  422SOL    HW1 3163  13.405   9.111   6.923
  422SOL    HW2 3164  13.499   9.067   6.812
  423SOL     OW 3165   4.746   1.216   5.376
  423SOL    HW1 3166   4.729   1.209   5.471
  423SOL    HW2 3167   4.677   1.163   5.336
  424SOL     OW 3168   1.205   7.885   1.606
  424SOL    HW1 3169   1.157   7.856   1.528
  424SOL    HW2 3170   1.150   7.858   1.680
  425SOL     OW 3171   2.348   0.058   6.458
  425SOL    HW1 3172   2.435   0.089   6.431
  425SOL    HW2 3173   2.287   0.107   6.403
  426SOL     OW 3174  13.124   2.952   6.406
  426SOL    HW1 3175  13.220   2.960   6.403
  426SOL    HW2 3176  13.104   2.943   6.499
  427SOL     OW 3177  12.156   4.958  14.626
  427SOL    HW1 3178  12.115   4.989  14.545
  427SOL    HW2 3179  12.096   4.891  14.660
  428SOL     OW 3180  12.629   7.283  13.271
  428SOL    HW1 3181  12.685   7.360  13.266
  428SOL    HW2 3182  12.578   7.284  13.190
  429SOL     OW 3183  12.222   8.658   0.949
  429SOL    HW1 3184  12.128   8.647   0.963
  429SOL    HW2 3185  12.255   8.693   1.031
  430SOL     OW 3186   1.443  10.153   3.172
  430SOL    HW1 3187   1.489  10.071   3.155
  430SOL    HW2 3188   1.479  10.214   3.108
  431SOL     OW 3189   5.619   7.683  13.590
  431SOL    HW1 3190   5.598   7.641  13.507
  431SOL    HW2 3191   5.677   7.756  13.566
  432SOL     OW 3192   6.812   7.320  11.558
  432SOL    HW1 3193   6.831   7.307  11.465
  432SOL    HW2 3194   6.717   7.333  11.561
  433SOL     OW 3195   3.063   7.928   0.859
  433SOL    HW1 3196   3.114   7.871   0.917
  433SOL    HW2 3197   3.000   7.971   0.917
  434SOL     OW 3198   9.605   2.434  14.306
  434SOL    HW1 3199   9.634   2.405  14.220
  434SOL    HW2 3200   9.550   2.510  14.288
  435SOL     OW 3201   7.290  11.845   3.597
  435SOL    HW1 3202   7.195  11.839   3.590
  435SOL    HW2 3203   7.307  11.938   3.614
  436SOL     OW 3204   1.365  14.534   0.438
  436SOL    HW1 3205   1.325  14.609   0.483
  436SOL    HW2 3206   1.300  14.508   0.373
  437SOL     OW 3207   1.761  11.766   8.822
  437SOL    HW1 3208   1.750  11.857   8.793
  437SOL    HW2 3209   1.830  11.731   8.765
  438SOL     OW 3210  10.980  12.502   3.864
  438SOL    HW1 3211  10.933  12.571   3.910
  438SOL    HW2 3212  11.060  12.489   3.915
  439SOL     OW 3213  11.172   9.877   0.015
  439SOL    HW1 3214  11.177   9.890   0.109
  439SOL    HW2 3215  11.244   9.929  14.851
  440SOL     OW 3216  14.870  11.614  10.045
  440SOL    HW1 3217  14.802  11.608  10.112
  440SOL    HW2 3218  14.824  11.627   9.963
  441SOL     OW 3219   4.125   9.572   1.046
  441SOL    HW1 3220   4.161   9.632   1.111
  441SOL    HW2 3221   4.180   9.494   1.052
  442SOL     OW 3222  12.700  10.743  14.246
  442SOL    HW1 3223  12.754  10.675  14.286
  442SOL    HW2 3224  12.610  10.714  14.261
  443SOL     OW 3225   5.356   5.560  13.902
  443SOL    HW1 3226   5.391   5.632  13.955
  443SOL    HW2 3227   5.365   5.590  13.811
  444SOL     OW 3228   6.839   1.908  13.897
  444SOL    HW1 3229   6.874   1.838  13.952
  444SOL    HW2 3230   6.824   1.981  13.956
  445SOL     OW 3231  12.979   5.746   7.947
  445SOL    HW1 3232  12.902   5.733   8.002
  445SOL    HW2 3233  13.027   5.664   7.953
  446SOL     OW 3234   6.775  13.119  13.142
  446SOL    HW1 3235   6.695  13.078  13.109
  446SOL    HW2 3236   6.783  13.088  13.232
  447SOL     OW 3237   0.687  11.884   3.879
  447SOL    HW1 3238   0.718  11.904   3.967
  447SOL    HW2 3239   0.747  11.816   3.847
  448SOL     OW 3240   7.274  12.844   2.882
  448SOL    HW1 3241   7.244  12.830   2.972
  448SOL    HW2 3242   7.194  12.860   2.832
  449SOL     OW 3243   3.846  12.291  11.084
  449SOL    HW1 3244   3.846  12.318  10.992
  449SOL    HW2 3245   3.909  12.349  11.126
  450SOL     OW 3246  13.371  14.177  12.752
  450SOL    HW1 3247  13.298  14.223  12.709
  450SOL    HW2 3248  13.442  14.181  12.689
  451SOL     OW 3249  12.142   0.224   4.173
  451SOL    HW1 3250  12.220   0.202   4.224
  451SOL    HW2 3251  12.139   0.320   4.174
  452SOL     OW 3252   2.098   8.124  11.893
  452SOL    HW1 3253   2.154   8.180  11.946
  452SOL    HW2 3254   2.118   8.150  11.803
  453SOL     OW 3255   3.262   0.316  11.785
  453SOL    HW1 3256   3.249   0.268  11.703
  453SOL    HW2 3257   3.337   0.373  11.768
  454SOL     OW 3258   5.321   0.572   8.807
  454SOL    HW1 3259   5.317   0.487   8.851
  454SOL    HW2 3260   5.415   0.587   8.792
  455SOL     OW 3261   5.558   5.469   5.976
  455SOL    HW1 3262   5.631   5.469   5.914
  455SOL    HW2 3263   5.505   5.543   5.949
  456SOL     OW 3264  10.162   3.070   5.179
  456SOL    HW1 3265  10.091   3.044   5.121
  456SOL    HW2 3266  10.242   3.043   5.133
  457SOL     OW 3267   8.581  13.502  11.036
  457SOL    HW1 3268   8.612  13.496  11.126
  457SOL    HW2 3269   8.641  13.447  10.986
  458SOL     OW 3270   4.255  11.465   3.278
  458SOL    HW1 3271   4.340  11.500   3.252
  458SOL    HW2 3272   4.249  11.380   3.234
  459SOL     OW 3273  11.500   3.056  12.101
  459SOL    HW1 3274  11.411   3.024  12.087
  459SOL    HW2 3275  11.495   3.104  12.183
  460SOL     OW 3276  13.934   6.269  10.998
  460SOL    HW1 3277  13.870   6.250  11.066
  460SOL    HW2 3278  13.925   6.196  10.936
  461SOL     OW 3279   4.084   8.423  10.167
  461SOL    HW1 3280   3.991   8.403  10.168
  461SOL    HW2 3281   4.111   8.404  10.077
  462SOL     OW 3282  11.395  13.958  14.697
  462SOL    HW1 3283  11.362  14.011  14.769
  462SOL    HW2 3284  11.332  13.886  14.691
  463SOL     OW 3285   9.585   0.570   9.188
  463SOL    HW1 3286   9.632   0.522   9.256
  463SOL    HW2 3287   9.623   0.658   9.191
  464SOL     OW 3288  13.821   9.586  10.388
  464SOL    HW1 3289  13.731   9.616  10.374
  464SOL    HW2 3290  13.845   9.545  10.304
  465SOL     OW 3291   1.710  11.736   2.008
  465SOL    HW1 3292   1.797  11.705   2.033
  465SOL    HW2 3293   1.727  11.793   1.932
  466SOL     OW 3294   5.502   5.269   1.365
  466SOL    HW1 3295   5.574   5.332   1.357
  466SOL    HW2 3296   5.476   5.272   1.457
  467SOL     OW 3297  12.017  13.025  11.338
  467SOL    HW1 3298  11.986  13.101  11.289
  467SOL    HW2 3299  11.973  13.030  11.422
  468SOL     OW 3300  14.378  10.940   5.596
  468SOL    HW1 3301  14.432  10.868   5.562
  468SOL    HW2 3302  14.400  11.015   5.540
  469SOL     OW 3303  13.285   5.117   6.867
  469SOL    HW1 3304  13.200   5.077   6.885
  469SOL    HW2 3305  13.299   5.105   6.773
  470SOL     OW 3306   6.465  12.642   7.943
  470SOL    HW1 3307   6.447  12.552   7.973
  470SOL    HW2 3308   6.456  12.695   8.022
  471SOL     OW 3309   7.725   9.943   6.239
  471SOL    HW1 3310   7.662   9.895   6.186
  471SOL    HW2 3311   7.799   9.883   6.248
  472SOL     OW 3312   4.899  10.728   6.262
  472SOL    HW1 3313   4.953  10.804   6.244
  472SOL    HW2 3314   4.809  10.760   6.257
  473SOL     OW 3315   0.393  10.329   3.805
  473SOL    HW1 3316   0.467  10.385   3.827
  473SOL    HW2 3317   0.432  10.249   3.771
  474SOL     OW 3318  10.742  10.506  11.066
  474SOL    HW1 3319  10.767  10.590  11.104
  474SOL    HW2 3320  10.716  10.452  11.141
  475SOL     OW 3321   8.302  10.254  13.271
  475SOL    HW1 3322   8.245  10.299  13.209
  475SOL    HW2 3323   8.253  10.254  13.353
  476SOL     OW 3324   4.631   4.852   7.227
  476SOL    HW1 3325   4.607   4.945   7.234
  476SOL    HW2 3326   4.661   4.829   7.314
  477SOL     OW 3327   3.996  14.532   6.887
  477SOL    HW1 3328   3.914  14.492   6.915
  477SOL    HW2 3329   4.038  14.466   6.831
  478SOL     OW 3330   2.003   5.434   8.385
  478SOL    HW1 3331   1.934   5.479   8.336
  478SOL    HW2 3332   1.985   5.341   8.373
  479SOL     OW 3333   8.004   7.805   3.768
  479SOL    HW1 3334   8.096   7.780   3.771
  479SOL    HW2 3335   8.002   7.880   3.709
  480SOL     OW 3336   0.498  10.481   3.422
  480SOL    HW1 3337   0.439  10.407   3.439
  480SOL    HW2 3338   0.574  10.464   3.477
  481SOL     OW 3339   2.932   2.227   3.245
  481SOL    HW1 3340   3.025   2.224   3.222
  481SOL    HW2 3341   2.912   2.320   3.254
  482SOL     OW 3342   2.807   2.988   9.024
  482SOL    HW1 3343   2.898   2.962   9.007
  482SOL    HW2 3344   2.783   2.941   9.104
  483SOL     OW 3345  12.836   2.002  14.377
  483SOL    HW1 3346  12.896   2.028  14.308
  483SOL    HW2 3347  12.749   2.028  14.345
  484SOL     OW 3348   7.839   6.124  13.813
  484SOL    HW1 3349   7.854   6.031  13.798
  484SOL    HW2 3350   7.786   6.128  13.893
  485SOL     OW 3351   0.858  10.687   2.316
  485SOL    HW1 3352   0.938  10.726   2.281
  485SOL    HW2 3353   0.830  10.625   2.248
  486SOL     OW 3354   1.963   0.689   2.606
  486SOL    HW1 3355   2.016   0.767   2.619
  486SOL    HW2 3356   2.022   0.626   2.563
  487SOL     OW 3357   9.792  11.119   4.824
  487SOL    HW1 3358   9.727  11.162   4.880
  487SOL    HW2 3359   9.871  11.113   4.877
  488SOL     OW 3360   8.138  12.209   3.318
  488SOL    HW1 3361   8.160  12.227   3.227
  488SOL    HW2 3362   8.080  12.281   3.344
  489SOL     OW 3363   4.858   0.733  13.963
  489SOL    HW1 3364   4.950   0.736  13.991
  489SOL    HW2 3365   4.831   0.824  13.959
  490SOL     OW 3366   7.320   8.015   0.134
  490SOL    HW1 3367   7.340   7.922   0.144
  490SOL    HW2 3368   7.250   8.031   0.197
  491SOL     OW 3369   6.094  14.284   1.652
  491SOL    HW1 3370   6.002  14.262   1.644
  491SOL    HW2 3371   6.134  14.250   1.572
  492SOL     OW 3372  10.602   0.239   6.940
  492SOL    HW1 3373  10.567   0.319   6.901
  492SOL    HW2 3374  10.532   0.175   6.929
  493SOL     OW 3375   3.841   5.300  12.272
  493SOL    HW1 3376   3.760   5.298  12.323
  493SOL    HW2 3377   3.844   5.388  12.234
  494SOL     OW 3378   5.786   8.389   8.975
  494SOL    HW1 3379   5.756   8.299   8.975
  494SOL    HW2 3380   5.858   8.391   9.039
  495SOL     OW 3381   5.321   8.261   7.601
  495SOL    HW1 3382   5.364   8.314   7.534
  495SOL    HW2 3383   5.265   8.200   7.552
  496SOL     OW 3384  11.743   9.968   2.202
  496SOL    HW1 3385  11.838   9.964   2.209
  496SOL    HW2 3386  11.727  10.027   2.128
  497SOL     OW 3387   7.882   2.298   2.067
  497SOL    HW1 3388   7.880   2.214   2.022
  497SOL    HW2 3389   7.833   2.284   2.148
  498SOL     OW 3390   3.687   8.529  12.468
  498SOL    HW1 3391   3.706   8.515  12.560
  498SOL    HW2 3392   3.772   8.520  12.424
  499SOL     OW 3393  12.214   6.866   6.260
  499SOL    HW1 3394  12.161   6.945   6.256
  499SOL    HW2 3395  12.297   6.895   6.298
  500SOL     OW 3396  14.568  13.118   1.289
  500SOL    HW1 3397  14.539  13.205   1.259
  500SOL    HW2 3398  14.581  13.069   1.208
  501SOL     OW 3399   9.557   3.096   4.995
  501SOL    HW1 3400   9.594   3.183   5.009
  501SOL    HW2 3401   9.571   3.078   4.902
  502SOL     OW 3402   3.365  13.034   5.371
  502SOL    HW1 3403   3.303  13.022   5.299
  502SOL    HW2 3404   3.357  13.127   5.394
  503SOL     OW 3405   5.274   0.576  10.346
  503SOL    HW1 3406   5.301   0.485  10.331
  503SOL    HW2 3407   5.244   0.607  10.261
  504SOL     OW 3408   6.178  11.346  13.224
  504SOL    HW1 3409   6.141  11.257  13.227
  504SOL    HW2 3410   6.250  11.339  13.161
  505SOL     OW 3411  12.306   3.938   0.944
  505SOL    HW1 3412  12.317   3.844   0.936
  505SOL    HW2 3413  12.364   3.975   0.878
  506SOL     OW 3414   2.587   9.391  10.015
  506SOL    HW1 3415   2.668   9.431   9.982
  506SOL    HW2 3416   2.526   9.464  10.025
  507SOL     OW 3417  10.139   5.006   8.272
  507SOL    HW1 3418  10.082   5.039   8.203
  507SOL    HW2 3419  10.080   4.959   8.332
  508SOL     OW 3420  12.833   5.237   4.652
  508SOL    HW1 3421  12.919   5.274   4.630
  508SOL    HW2 3422  12.830   5.238   4.748
  509SOL     OW 3423  14.660   9.410  12.197
  509SOL    HW1 3424  14.674   9.328  12.149
  509SOL    HW2 3425  14.569   9.434  12.177
  510SOL     OW 3426   6.800   3.079   2.731
  510SOL    HW1 3427   6.743   3.016   2.775
  510SOL    HW2 3428   6.882   3.075   2.779
  511SOL     OW 3429  10.934   2.681   7.824
  511SOL    HW1 3430  10.885   2.736   7.763
  511SOL    HW2 3431  11.009   2.650   7.774
  512SOL     OW 3432   8.667   2.949   2.279
  512SOL    HW1 3433   8.621   3.020   2.325
  512SOL    HW2 3434   8.719   2.994   2.212
  513SOL     OW 3435  14.173   4.181   0.250
  513SOL    HW1 3436  14.146   4.273   0.241
  513SOL    HW2 3437  14.091   4.133   0.256
  514SOL     OW 3438   7.702   3.841   9.436
  514SOL    HW1 3439   7.628   3.811   9.490
  514SOL    HW2 3440   7.778   3.836   9.494
  515SOL     OW 3441   2.744  10.402   8.482
  515SOL    HW1 3442   2.760  10.318   8.439
  515SOL    HW2 3443   2.832  10.438   8.495
  516SOL     OW 3444   7.821  12.274   0.103
  516SOL    HW1 3445   7.764  12.206   0.064
  516SOL    HW2 3446   7.883  12.225   0.156
  517SOL     OW 3447   8.817   1.114   7.381
  517SOL    HW1 3448   8.881   1.112   7.452
  517SOL    HW2 3449   8.823   1.027   7.341
  518SOL     OW 3450   8.598   2.851   1.374
  518SOL    HW1 3451   8.584   2.939   1.339
  518SOL    HW2 3452   8.571   2.793   1.303
  519SOL     OW 3453  12.801   6.816   2.230
  519SOL    HW1 3454  12.758   6.731   2.233
  519SOL    HW2 3455  12.882   6.802   2.182
  520SOL     OW 3456  14.415   1.925   7.827
  520SOL    HW1 3457  14.402   1.927   7.922
  520SOL    HW2 3458  14.327   1.918   7.791
  521SOL     OW 3459  14.486  14.627   0.053
  521SOL    HW1 3460  14.569  14.640   0.100
  521SOL    HW2 3461  14.460  14.537   0.074
  522SOL     OW 3462   8.028  11.716   5.338
  522SOL    HW1 3463   8.034  11.746   5.429
  522SOL    HW2 3464   7.934  11.718   5.318
  523SOL     OW 3465   3.852   3.229   6.721
  523SOL    HW1 3466   3.809   3.286   6.658
  523SOL    HW2 3467   3.866   3.284   6.798
  524SOL     OW 3468  13.269   4.847   7.563
  524SOL    HW1 3469  13.282   4.768   7.511
  524SOL    HW2 3470  13.312   4.916   7.514
  525SOL     OW 3471  10.487   5.706  10.346
  525SOL    HW1 3472  10.450   5.628  10.388
  525SOL    HW2 3473  10.511   5.677  10.258
  526SOL     OW 3474   3.659   3.980  12.269
  526SOL    HW1 3475   3.628   3.919  12.203
  526SOL    HW2 3476   3.594   4.051  12.269
  527SOL     OW 3477  12.157   2.867  11.197
  527SOL    HW1 3478  12.244   2.832  11.216
  527SOL    HW2 3479  12.097   2.802  11.233
  528SOL     OW 3480  14.438   0.778   0.419
  528SOL    HW1 3481  14.420   0.787   0.513
  528SOL    HW2 3482  14.382   0.844   0.378
  529SOL     OW 3483   7.257  11.610   6.944
  529SOL    HW1 3484   7.336  11.640   6.988
  529SOL    HW2 3485   7.286  11.538   6.889
  530SOL     OW 3486  14.777   3.798   6.504
  530SOL    HW1 3487  14.750   3.869   6.446
  530SOL    HW2 3488  14.867   3.820   6.529
  531SOL     OW 3489   4.968  10.150   5.779
  531SOL    HW1 3490   4.890  10.136   5.832
  531SOL    HW2 3491   4.947  10.223   5.722
  532SOL     OW 3492   3.115  13.380  11.507
  532SOL    HW1 3493   3.101  13.317  11.578
  532SOL    HW2 3494   3.209  13.397  11.509
  533SOL     OW 3495  10.965   3.057   3.195
  533SOL    HW1 3496  10.995   3.059   3.286
  533SOL    HW2 3497  10.916   3.139   3.184
  534SOL     OW 3498   3.256   4.317  11.402
  534SOL    HW1 3499   3.243   4.316  11.307
  534SOL    HW2 3500   3.327   4.255  11.418
  535SOL     OW 3501   6.182   5.686   1.700
  535SOL    HW1 3502   6.240   5.644   1.637
  535SOL    HW2 3503   6.172   5.623   1.770
  536SOL     OW 3504  10.201   9.785   8.371
  536SOL    HW1 3505  10.211   9.818   8.460
  536SOL    HW2 3506  10.159   9.857   8.324
  537SOL     OW 3507  14.738  12.244   0.376
  537SOL    HW1 3508  14.655  12.203   0.400
  537SOL    HW2 3509  14.797  12.170   0.360
  538SOL     OW 3510   8.013   5.460   6.569
  538SOL    HW1 3511   8.066   5.538   6.588
  538SOL    HW2 3512   8.005   5.415   6.653
  539SOL     OW 3513   8.554   2.388   0.184
  539SOL    HW1 3514   8.493   2.335   0.236
  539SOL    HW2 3515   8.633   2.335   0.179
  540SOL     OW 3516  11.796  11.542  14.454
  540SOL    HW1 3517  11.879  11.501  14.479
  540SOL    HW2 3518  11.788  11.523  14.360
  541SOL     OW 3519   8.318   5.593  14.722
  541SOL    HW1 3520   8.344   5.528  14.656
  541SOL    HW2 3521   8.369   5.570  14.800
  542SOL     OW 3522  12.404  12.381  12.200
  542SOL    HW1 3523  12.422  12.338  12.283
  542SOL    HW2 3524  12.337  12.446  12.220
  543SOL     OW 3525   7.874   1.063   2.298
  543SOL    HW1 3526   7.899   1.059   2.391
  543SOL    HW2 3527   7.799   1.123   2.296
  544SOL     OW 3528   3.244   2.644  12.863
  544SOL    HW1 3529   3.221   2.551  12.861
  544SOL    HW2 3530   3.181   2.683  12.924
  545SOL     OW 3531  13.372   1.304   6.400
  545SOL    HW1 3532  13.424   1.293   6.480
  545SOL    HW2 3533  13.339   1.394   6.406
  546SOL     OW 3534   1.956  12.725   0.096
  546SOL    HW1 3535   2.038  12.756   0.134
  546SOL    HW2 3536   1.975  12.718   0.002
  547SOL     OW 3537  12.148   3.514   6.342
  547SOL    HW1 3538  12.162   3.473   6.256
  547SOL    HW2 3539  12.211   3.587   6.344
  548SOL     OW 3540   7.975   8.327   8.197
  548SOL    HW1 3541   8.019   8.369   8.271
  548SOL    HW2 3542   7.882   8.328   8.221
  549SOL     OW 3543  11.156   2.605   7.657
  549SOL    HW1 3544  11.164   2.642   7.569
  549SOL    HW2 3545  11.162   2.510   7.645
  550SOL     OW 3546   3.371   7.164   0.368
  550SOL    HW1 3547   3.326   7.176   0.285
  550SOL    HW2 3548   3.435   7.095   0.352
  551SOL     OW 3549   5.033  14.636   6.000
  551SOL    HW1 3550   5.099  14.690   5.956
  551SOL    HW2 3551   5.065  14.547   5.992
  552SOL     OW 3552   2.546   3.719  10.909
  552SOL    HW1 3553   2.472   3.668  10.876
  552SOL    HW2 3554   2.541   3.802  10.861
  553SOL     OW 3555   5.938  10.306   7.550
  553SOL    HW1 3556   5.980  10.392   7.545
  553SOL    HW2 3557   6.010  10.243   7.542
  554SOL     OW 3558   3.889  13.284   1.840
  554SOL    HW1 3559   3.961  13.231   1.807
  554SOL    HW2 3560   3.856  13.330   1.763
  555SOL     OW 3561  11.122   3.207   9.859
  555SOL    HW1 3562  11.039   3.224   9.904
  555SOL    HW2 3563  11.167   3.142   9.913
  556SOL     OW 3564   5.248   6.465   4.209
  556SOL    HW1 3565   5.176   6.502   4.157
  556SOL    HW2 3566   5.205   6.415   4.278
  557SOL     OW 3567   9.467   9.737   8.487
  557SOL    HW1 3568   9.530   9.726   8.415
  557SOL    HW2 3569   9.415   9.813   8.462
  558SOL     OW 3570   7.203   3.181   7.441
  558SOL    HW1 3571   7.238   3.228   7.517
  558SOL    HW2 3572   7.114   3.157   7.467
  559SOL     OW 3573   9.447  13.396  10.655
  559SOL    HW1 3574   9.542  13.398  10.642
  559SOL    HW2 3575   9.432  13.452  10.731
  560SOL     OW 3576   8.366   6.395   3.903
  560SOL    HW1 3577   8.287   6.433   3.943
  560SOL    HW2 3578   8.333   6.323   3.850
  561SOL     OW 3579  11.967   6.749   0.149
  561SOL    HW1 3580  11.890   6.806   0.140
  561SOL    HW2 3581  12.026   6.798   0.206
  562SOL     OW 3582  12.504   2.850   8.235
  562SOL    HW1 3583  12.447   2.786   8.193
  562SOL    HW2 3584  12.572   2.798   8.277
  563SOL     OW 3585   6.760  12.599   8.570
  563SOL    HW1 3586   6.746  12.545   8.492
  563SOL    HW2 3587   6.793  12.682   8.535
  564SOL     OW 3588  10.604   2.476   5.724
  564SOL    HW1 3589  10.598   2.519   5.639
  564SOL    HW2 3590  10.604   2.547   5.788
  565SOL     OW 3591   5.055   3.231   1.546
  565SOL    HW1 3592   5.141   3.196   1.523
  565SOL    HW2 3593   4.994   3.164   1.515
  566SOL     OW 3594   0.976   5.767   4.250
  566SOL    HW1 3595   0.970   5.699   4.317
  566SOL    HW2 3596   0.921   5.736   4.179
  567SOL     OW 3597   4.450   9.095   8.937
  567SOL    HW1 3598   4.510   9.152   8.890
  567SOL    HW2 3599   4.491   9.082   9.023
  568SOL     OW 3600   5.637   3.701   2.000
  568SOL    HW1 3601   5.548   3.709   2.035
  568SOL    HW2 3602   5.665   3.613   2.024
  569SOL     OW 3603  13.718   6.665  12.120
  569SOL    HW1 3604  13.659   6.714  12.177
  569SOL    HW2 3605  13.796   6.721  12.112
  570SOL     OW 3606  13.873  13.226   0.333
  570SOL    HW1 3607  13.814  13.158   0.366
  570SOL    HW2 3608  13.936  13.178   0.278
  571SOL     OW 3609   9.395   6.022   9.742
  571SOL    HW1 3610   9.327   6.028   9.675
  571SOL    HW2 3611   9.347   6.020   9.824
  572SOL     OW 3612   3.579  13.137   3.195
  572SOL    HW1 3613   3.545  13.222   3.222
  572SOL    HW2 3614   3.672  13.152   3.179
  573SOL     OW 3615   0.255   2.422  12.282
  573SOL    HW1 3616   0.247   2.438  12.188
  573SOL    HW2 3617   0.338   2.463  12.306
  574SOL     OW 3618   4.994   8.958   9.918
  574SOL    HW1 3619   5.049   8.914   9.983
  574SOL    HW2 3620   5.054   9.015   9.869
  575SOL     OW 3621   6.730   6.251   3.836
  575SOL    HW1 3622   6.726   6.191   3.761
  575SOL    HW2 3623   6.781   6.203   3.902
  576SOL     OW 3624   8.148   5.911   9.847
  576SOL    HW1 3625   8.093   5.952   9.781
  576SOL    HW2 3626   8.120   5.950   9.930
  577SOL     OW 3627   5.073   8.922   7.544
  577SOL    HW1 3628   5.038   8.836   7.519
  577SOL    HW2 3629   5.093   8.914   7.637
  578SOL     OW 3630   0.780  12.622   3.891
  578SOL    HW1 3631   0.771  12.560   3.964
  578SOL    HW2 3632   0.872  12.613   3.863
  579SOL     OW 3633  14.671   5.631   8.773
  579SOL    HW1 3634  14.673   5.726   8.786
  579SOL    HW2 3635  14.681   5.621   8.678
  580SOL     OW 3636   0.222   0.482   7.334
  580SOL    HW1 3637   0.314   0.482   7.310
  580SOL    HW2 3638   0.221   0.463   7.428
  581SOL     OW 3639  13.815   3.854   0.204
  581SOL    HW1 3640  13.731   3.868   0.160
  581SOL    HW2 3641  13.838   3.763   0.183
  582SOL     OW 3642   5.365   2.850   8.267
  582SOL    HW1 3643   5.298   2.782   8.270
  582SOL    HW2 3644   5.425   2.822   8.198
  583SOL     OW 3645   2.186   9.844   7.338
  583SOL    HW1 3646   2.207   9.752   7.355
  583SOL    HW2 3647   2.204   9.856   7.245
  584SOL     OW 3648   7.172   2.200   7.572
  584SOL    HW1 3649   7.161   2.292   7.549
  584SOL    HW2 3650   7.171   2.199   7.668
  585SOL     OW 3651   0.380   2.938   1.729
  585SOL    HW1 3652   0.461   2.895   1.703
  585SOL    HW2 3653   0.396   3.031   1.715
  586SOL     OW 3654   4.972   3.236   5.309
  586SOL    HW1 3655   5.064   3.262   5.323
  586SOL    HW2 3656   4.939   3.220   5.397
  587SOL     OW 3657   4.218   8.276   4.871
  587SOL    HW1 3658   4.199   8.361   4.831
  587SOL    HW2 3659   4.151   8.217   4.836
  588SOL     OW 3660   9.015   8.545   0.458
  588SOL    HW1 3661   8.966   8.579   0.532
  588SOL    HW2 3662   9.020   8.450   0.474
  589SOL     OW 3663  10.034   2.562   3.077
  589SOL    HW1 3664   9.954   2.529   3.037
  589SOL    HW2 3665  10.049   2.505   3.153
  590SOL     OW 3666   4.159  11.402  14.323
  590SOL    HW1 3667   4.104  11.469  14.282
  590SOL    HW2 3668   4.108  11.373  14.400
  591SOL     OW 3669   4.957   2.347   0.007
  591SOL    HW1 3670   4.951   2.441   0.025
  591SOL    HW2 3671   4.892   2.307   0.065
  592SOL     OW 3672   7.120   8.430  10.670
  592SOL    HW1 3673   7.107   8.397  10.581
  592SOL    HW2 3674   7.099   8.523  10.665
  593SOL     OW 3675  11.961   9.368  10.659
  593SOL    HW1 3676  11.891   9.308  10.686
  593SOL    HW2 3677  11.984   9.339  10.570
  594SOL     OW 3678  12.009   7.352  12.178
  594SOL    HW1 3679  11.976   7.442  12.184
  594SOL    HW2 3680  11.933   7.300  12.153
  595SOL     OW 3681   1.006  10.323   8.254
  595SOL    HW1 3682   0.917  10.356   8.269
  595SOL    HW2 3683   1.039  10.302   8.341
  596SOL     OW 3684   2.521   1.308   0.730
  596SOL    HW1 3685   2.613   1.281   0.730
  596SOL    HW2 3686   2.486   1.273   0.812
  597SOL     OW 3687  10.799  12.803   6.132
  597SOL    HW1 3688  10.772  12.882   6.086
  597SOL    HW2 3689  10.794  12.734   6.066
  598SOL     OW 3690  11.719   4.594   0.349
  598SOL    HW1 3691  11.633   4.583   0.309
  598SOL    HW2 3692  11.717   4.537   0.426
  599SOL     OW 3693   4.841   7.672  12.532
  599SOL    HW1 3694   4.833   7.747  12.472
  599SOL    HW2 3695   4.761   7.622  12.518
  600SOL     OW 3696   4.631   6.615   3.938
  600SOL    HW1 3697   4.536   6.621   3.938
  600SOL    HW2 3698   4.661   6.703   3.960
  601SOL     OW 3699  11.377   1.020   7.716
  601SOL    HW1 3700  11.352   0.928   7.727
  601SOL    HW2 3701  11.294   1.066   7.704
  602SOL     OW 3702   2.939   5.069  13.346
  602SOL    HW1 3703   2.933   5.058  13.251
  602SOL    HW2 3704   2.999   5.142  13.358
  603SOL     OW 3705  14.209  14.480  12.799
  603SOL    HW1 3706  14.144  14.511  12.735
  603SOL    HW2 3707  14.214  14.551  12.863
  604SOL     OW 3708   5.218   4.272   6.333
  604SOL    HW1 3709   5.259   4.248   6.251
  604SOL    HW2 3710   5.283   4.325   6.379
  605SOL     OW 3711   5.647  12.247   2.326
  605SOL    HW1 3712   5.599  12.166   2.344
  605SOL    HW2 3713   5.733  12.217   2.295
  606SOL     OW 3714   7.338  14.369  12.549
  606SOL    HW1 3715   7.303  14.329  12.628
  606SOL    HW2 3716   7.353  14.296  12.489
  607SOL     OW 3717   4.944   1.998  10.873
  607SOL    HW1 3718   5.002   1.996  10.949
  607SOL    HW2 3719   4.865   2.042  10.905
  608SOL     OW 3720  14.437   2.393  10.635
  608SOL    HW1 3721  14.522   2.428  10.658
  608SOL    HW2 3722  14.426   2.415  10.542
  609SOL     OW 3723  11.677   4.466   0.818
  609SOL    HW1 3724  11.752   4.480   0.760
  609SOL    HW2 3725  11.608   4.522   0.781
  610SOL     OW 3726  13.930  14.663  10.489
  610SOL    HW1 3727  14.003  14.604  10.472
  610SOL    HW2 3728  13.923  14.716  10.409
  611SOL     OW 3729  13.963  11.256   3.915
  611SOL    HW1 3730  14.038  11.215   3.872
  611SOL    HW2 3731  14.001  11.324   3.970
  612SOL     OW 3732   8.986   4.808  11.790
  612SOL    HW1 3733   8.944   4.805  11.704
  612SOL    HW2 3734   9.034   4.891  11.790
  613SOL     OW 3735   7.436   7.669  10.505
  613SOL    HW1 3736   7.463   7.621  10.426
  613SOL    HW2 3737   7.341   7.671  10.500
  614SOL     OW 3738   9.581  14.388   8.827
  614SOL    HW1 3739   9.553  14.418   8.741
  614SOL    HW2 3740   9.615  14.466   8.870
  615SOL     OW 3741   3.154   7.245  11.077
  615SOL    HW1 3742   3.114   7.331  11.065
  615SOL    HW2 3743   3.084   7.190  11.111
  616SOL     OW 3744  13.995   5.899   4.210
  616SOL    HW1 3745  14.066   5.949   4.250
  616SOL    HW2 3746  13.915   5.941   4.243
  617SOL     OW 3747   3.960   4.217   8.759
  617SOL    HW1 3748   4.047   4.178   8.755
  617SOL    HW2 3749   3.975   4.310   8.743
  618SOL     OW 3750   5.759   7.149   9.991
  618SOL    HW1 3751   5.741   7.163  10.084
  618SOL    HW2 3752   5.853   7.164   9.981
  619SOL     OW 3753   0.334   6.780  14.059
  619SOL    HW1 3754   0.399   6.838  14.099
  619SOL    HW2 3755   0.385   6.705  14.027
  620SOL     OW 3756   4.528   7.238   3.472
  620SOL    HW1 3757   4.588   7.163   3.481
  620SOL    HW2 3758   4.586   7.312   3.452
  621SOL     OW 3759  14.298  14.763   7.623
  621SOL    HW1 3760  14.262  14.681   7.590
  621SOL    HW2 3761  14.225  14.825   7.617
  622SOL     OW 3762   5.442  10.126   7.504
  622SOL    HW1 3763   5.497  10.149   7.578
  622SOL    HW2 3764   5.476  10.042   7.474
  623SOL     OW 3765   7.305   7.950  12.547
  623SOL    HW1 3766   7.218   7.964  12.584
  623SOL    HW2 3767   7.314   7.855  12.540
  624SOL     OW 3768   7.766   5.248   4.156
  624SOL    HW1 3769   7.711   5.243   4.234
  624SOL    HW2 3770   7.706   5.236   4.083
  625SOL     OW 3771  11.423   8.140  10.604
  625SOL    HW1 3772  11.404   8.055  10.644
  625SOL    HW2 3773  11.370   8.202  10.653
  626SOL     OW 3774  13.952   6.041   8.818
  626SOL    HW1 3775  14.004   6.085   8.886
  626SOL    HW2 3776  13.875   6.008   8.864
  627SOL     OW 3777   6.127  14.218   2.715
  627SOL    HW1 3778   6.213  14.190   2.744
  627SOL    HW2 3779   6.142  14.304   2.674
  628SOL     OW 3780  12.511   2.188   9.591
  628SOL    HW1 3781  12.432   2.144   9.623
  628SOL    HW2 3782  12.477   2.268   9.550
  629SOL     OW 3783  12.640   2.151   5.937
  629SOL    HW1 3784  12.563   2.201   5.964
  629SOL    HW2 3785  12.704   2.218   5.911
  630SOL     OW 3786   5.970   3.454   7.074
  630SOL    HW1 3787   5.939   3.545   7.079
  630SOL    HW2 3788   6.054   3.460   7.027
  631SOL     OW 3789  12.491  11.338   2.778
  631SOL    HW1 3790  12.568  11.395   2.777
  631SOL    HW2 3791  12.418  11.397   2.759
  632SOL     OW 3792   2.251   6.831   0.379
  632SOL    HW1 3793   2.248   6.867   0.468
  632SOL    HW2 3794   2.205   6.896   0.325
  633SOL     OW 3795   3.358   8.775   0.003
  633SOL    HW1 3796   3.333   8.691  14.838
  633SOL    HW2 3797   3.281   8.805   0.051
  634SOL     OW 3798  11.380   1.585   6.007
  634SOL    HW1 3799  11.314   1.521   5.983
  634SOL    HW2 3800  11.331   1.667   6.018
  635SOL     OW 3801  13.783   4.904   0.559
  635SOL    HW1 3802  13.738   4.978   0.518
  635SOL    HW2 3803  13.813   4.938   0.643
  636SOL     OW 3804   4.836   6.194   5.095
  636SOL    HW1 3805   4.772   6.131   5.128
  636SOL    HW2 3806   4.799   6.280   5.117
  637SOL     OW 3807   8.428   4.042   9.869
  637SOL    HW1 3808   8.451   4.030   9.777
  637SOL    HW2 3809   8.489   4.108   9.902
  638SOL     OW 3810   5.102  14.230   8.914
  638SOL    HW1 3811   5.099  14.140   8.946
  638SOL    HW2 3812   5.059  14.282   8.982
  639SOL     OW 3813   5.322   8.346  10.097
  639SOL    HW1 3814   5.310   8.253  10.078
  639SOL    HW2 3815   5.372   8.380  10.023
  640SOL     OW 3816   6.327   3.471  12.654
  640SOL    HW1 3817   6.317   3.424  12.738
  640SOL    HW2 3818   6.415   3.507  12.658
  641SOL     OW 3819   6.770  11.904   4.835
  641SOL    HW1 3820   6.761  11.809   4.835
  641SOL    HW2 3821   6.837  11.922   4.901
  642SOL     OW 3822   2.964   3.549   7.792
  642SOL    HW1 3823   2.885   3.604   7.787
  642SOL    HW2 3824   2.956   3.490   7.717
  643SOL     OW 3825  13.553  12.608   0.057
  643SOL    HW1 3826  13.498  12.653  14.864
  643SOL    HW2 3827  13.519  12.636   0.142
  644SOL     OW 3828   8.027   8.523   5.810
  644SOL    HW1 3829   8.081   8.503   5.734
  644SOL    HW2 3830   8.059   8.464   5.878
  645SOL     OW 3831   4.804   4.131  10.858
  645SOL    HW1 3832   4.857   4.177  10.923
  645SOL    HW2 3833   4.729   4.190  10.842
  646SOL     OW 3834   6.238   4.230   9.546
  646SOL    HW1 3835   6.176   4.250   9.617
  646SOL    HW2 3836   6.303   4.301   9.550
  647SOL     OW 3837   6.910  11.842   5.722
  647SOL    HW1 3838   6.875  11.753   5.718
  647SOL    HW2 3839   6.955  11.848   5.806
  648SOL     OW 3840  10.076   8.354   3.864
  648SOL    HW1 3841  10.165   8.373   3.834
  648SOL    HW2 3842  10.064   8.260   3.847
  649SOL     OW 3843   4.565   7.961   7.112
  649SOL    HW1 3844   4.541   8.000   7.196
  649SOL    HW2 3845   4.512   8.009   7.048
  650SOL     OW 3846   5.659   7.741  11.869
  650SOL    HW1 3847   5.637   7.725  11.961
  650SOL    HW2 3848   5.753   7.759  11.870
  651SOL     OW 3849  13.421   5.915   1.870
  651SOL    HW1 3850  13.469   5.857   1.811
  651SOL    HW2 3851  13.331   5.916   1.835
  652SOL     OW 3852   3.268   0.991   1.918
  652SOL    HW1 3853   3.320   1.066   1.887
  652SOL    HW2 3854   3.177   1.022   1.912
  653SOL     OW 3855  14.419   1.528  12.601
  653SOL    HW1 3856  14.382   1.561  12.520
  653SOL    HW2 3857  14.433   1.606  12.654
  654SOL     OW 3858   1.621  11.565   7.169
  654SOL    HW1 3859   1.550  11.501   7.173
  654SOL    HW2 3860   1.620  11.597   7.079
  655SOL     OW 3861  12.904   2.310   5.898
  655SOL    HW1 3862  12.933   2.237   5.953
  655SOL    HW2 3863  12.861   2.370   5.959
  656SOL     OW 3864   0.653   6.373   7.153
  656SOL    HW1 3865   0.704   6.441   7.198
  656SOL    HW2 3866   0.711   6.297   7.152
  657SOL     OW 3867   2.093   3.222  13.971
  657SOL    HW1 3868   2.132   3.191  13.889
  657SOL    HW2 3869   2.004   3.248  13.947
  658SOL     OW 3870  11.202   5.144   1.950
  658SOL    HW1 3871  11.214   5.229   1.993
  658SOL    HW2 3872  11.224   5.160   1.858
  659SOL     OW 3873  10.686  13.249   4.665
  659SOL    HW1 3874  10.763  13.298   4.636
  659SOL    HW2 3875  10.693  13.247   4.760
  660SOL     OW 3876   6.262   2.300   8.263
  660SOL    HW1 3877   6.181   2.318   8.310
  660SOL    HW2 3878   6.268   2.370   8.198
  661SOL     OW 3879   6.520   3.522  14.602
  661SOL    HW1 3880   6.435   3.494  14.570
  661SOL    HW2 3881   6.519   3.617  14.596
  662SOL     OW 3882   4.995   5.960   4.998
  662SOL    HW1 3883   4.977   5.898   5.069
  662SOL    HW2 3884   4.915   6.012   4.991
  663SOL     OW 3885  13.542   9.204   1.651
  663SOL    HW1 3886  13.467   9.148   1.632
  663SOL    HW2 3887  13.578   9.171   1.733
  664SOL     OW 3888   5.004   6.091  12.774
  664SOL    HW1 3889   4.955   6.151  12.831
  664SOL    HW2 3890   4.970   6.004  12.795
  665SOL     OW 3891   0.014   8.035   7.110
  665SOL    HW1 3892  14.840   7.951   7.103
  665SOL    HW2 3893   0.094   8.024   7.059
  666SOL     OW 3894  11.743  10.405  13.263
  666SOL    HW1 3895  11.808  10.474  13.275
  666SOL    HW2 3896  11.661  10.451  13.247
  667SOL     OW 3897  11.369  12.660  12.789
  667SOL    HW1 3898  11.363  12.662  12.693
  667SOL    HW2 3899  11.442  12.600  12.807
  668SOL     OW 3900   3.477   8.137   8.085
  668SOL    HW1 3901   3.389   8.106   8.103
  668SOL    HW2 3902   3.530   8.103   8.158
  669SOL     OW 3903   5.774  11.219   3.332
  669SOL    HW1 3904   5.850  11.245   3.280
  669SOL    HW2 3905   5.703  11.274   3.300
  670SOL     OW 3906   9.401   2.594   5.778
  670SOL    HW1 3907   9.426   2.634   5.694
  670SOL    HW2 3908   9.395   2.668   5.839
  671SOL     OW 3909  14.438   7.061  10.868
  671SOL    HW1 3910  14.471   7.148  10.845
  671SOL    HW2 3911  14.508   7.021  10.919
  672SOL     OW 3912   4.693   9.942   8.915
  672SOL    HW1 3913   4.741  10.022   8.891
  672SOL    HW2 3914   4.646   9.965   8.995
  673SOL     OW 3915   0.150  12.495  14.145
  673SOL    HW1 3916   0.137  12.400  14.139
  673SOL    HW2 3917   0.106  12.529  14.067
  674SOL     OW 3918  13.063   5.878   2.153
  674SOL    HW1 3919  13.100   5.939   2.090
  674SOL    HW2 3920  12.995   5.928   2.198
  675SOL     OW 3921  14.600  11.461   9.810
  675SOL    HW1 3922  14.651  11.387   9.776
  675SOL    HW2 3923  14.533  11.476   9.744
  676SOL     OW 3924  14.779   0.463  10.637
  676SOL    HW1 3925  14.699   0.507  10.608
  676SOL    HW2 3926  14.849   0.524  10.618
  677SOL     OW 3927   4.872   7.598   6.393
  677SOL    HW1 3928   4.856   7.577   6.301
  677SOL    HW2 3929   4.885   7.693   6.394
  678SOL     OW 3930   5.122  10.196   7.432
  678SOL    HW1 3931   5.105  10.115   7.383
  678SOL    HW2 3932   5.194  10.238   7.385
  679SOL     OW 3933   6.130  11.509   7.950
  679SOL    HW1 3934   6.078  11.435   7.983
  679SOL    HW2 3935   6.171  11.546   8.028
  680SOL     OW 3936   3.367  13.474   4.407
  680SOL    HW1 3937   3.419  13.549   4.380
  680SOL    HW2 3938   3.428  13.418   4.454
  681SOL     OW 3939   4.105   9.789   9.513
  681SOL    HW1 3940   4.186   9.827   9.478
  681SOL    HW2 3941   4.126   9.769   9.604
  682SOL     OW 3942   0.622   5.062   9.725
  682SOL    HW1 3943   0.646   4.970   9.719
  682SOL    HW2 3944   0.551   5.072   9.661
  683SOL     OW 3945   7.617  12.687   5.170
  683SOL    HW1 3946   7.652  12.599   5.160
  683SOL    HW2 3947   7.610  12.720   5.080
  684SOL     OW 3948   7.470  12.168   6.664
  684SOL    HW1 3949   7.456  12.196   6.754
  684SOL    HW2 3950   7.565  12.156   6.657
  685SOL     OW 3951   6.181   1.060  11.561
  685SOL    HW1 3952   6.264   1.100  11.585
  685SOL    HW2 3953   6.198   1.018  11.477
  686SOL     OW 3954   1.785   4.735   9.382
  686SOL    HW1 3955   1.764   4.730   9.289
  686SOL    HW2 3956   1.878   4.754   9.385
  687SOL     OW 3957  13.285  11.317   1.821
  687SOL    HW1 3958  13.372  11.336   1.786
  687SOL    HW2 3959  13.278  11.372   1.899
  688SOL     OW 3960   2.617   5.516   6.555
  688SOL    HW1 3961   2.589   5.455   6.624
  688SOL    HW2 3962   2.540   5.569   6.538
  689SOL     OW 3963   2.683   7.947   0.496
  689SOL    HW1 3964   2.709   7.971   0.585
  689SOL    HW2 3965   2.753   7.982   0.440
  690SOL     OW 3966  14.733   2.476   5.923
  690SOL    HW1 3967  14.754   2.402   5.981
  690SOL    HW2 3968  14.648   2.454   5.886
  691SOL     OW 3969   7.826  10.734   1.528
  691SOL    HW1 3970   7.735  10.727   1.558
  691SOL    HW2 3971   7.842  10.654   1.478
  692SOL     OW 3972   7.072   2.571   5.566
  692SOL    HW1 3973   7.080   2.495   5.624
  692SOL    HW2 3974   6.995   2.618   5.599
  693SOL     OW 3975   7.831  12.208   4.169
  693SOL    HW1 3976   7.752  12.186   4.218
  693SOL    HW2 3977   7.862  12.125   4.132
  694SOL     OW 3978   4.318  13.385  10.190
  694SOL    HW1 3979   4.354  13.436  10.263
  694SOL    HW2 3980   4.392  13.372  10.131
  695SOL     OW 3981   4.116  14.119   6.242
  695SOL    HW1 3982   4.160  14.038   6.268
  695SOL    HW2 3983   4.044  14.090   6.186
  696SOL     OW 3984   7.197   8.545   2.400
  696SOL    HW1 3985   7.256   8.610   2.361
  696SOL    HW2 3986   7.196   8.473   2.336
  697SOL     OW 3987   8.712   4.423   0.813
  697SOL    HW1 3988   8.707   4.461   0.900
  697SOL    HW2 3989   8.711   4.328   0.828
  698SOL     OW 3990  13.479   0.105  14.621
  698SOL    HW1 3991  13.401   0.073  14.666
  698SOL    HW2 3992  13.460   0.197  14.602
  699SOL     OW 3993  12.434  12.354   0.699
  699SOL    HW1 3994  12.403  12.358   0.609
  699SOL    HW2 3995  12.505  12.290   0.697
  700SOL     OW 3996  10.278   1.999   2.371
  700SOL    HW1 3997  10.222   1.964   2.301
  700SOL    HW2 3998  10.266   2.094   2.365
  701SOL     OW 3999  11.402   1.758  11.824
  701SOL    HW1 4000  11.469   1.750  11.891
  701SOL    HW2 4001  11.375   1.668  11.805
  702SOL     OW 4002  13.338   2.676  11.683
  702SOL    HW1 4003  13.254   2.721  11.687
  702SOL    HW2 4004  13.379   2.695  11.768
  703SOL     OW 4005   4.522  13.533  13.317
  703SOL    HW1 4006   4.525  13.438  13.305
  703SOL    HW2 4007   4.552  13.568  13.233
  704SOL     OW 4008   2.380  10.364   1.993
  704SOL    HW1 4009   2.332  10.329   1.918
  704SOL    HW2 4010   2.459  10.311   1.999
  705SOL     OW 4011   7.270  14.772   4.783
  705SOL    HW1 4012   7.303  14.687   4.812
  705SOL    HW2 4013   7.294  14.833   4.853
  706SOL     OW 4014   8.296  11.594   7.614
  706SOL    HW1 4015   8.366  11.529   7.612
  706SOL    HW2 4016   8.225  11.556   7.562
  707SOL     OW 4017   1.003   3.063  13.374
  707SOL    HW1 4018   1.070   3.129  13.392
  707SOL    HW2 4019   1.053   2.982  13.361
  708SOL     OW 4020  11.761  10.266   9.033
  708SOL    HW1 4021  11.789  10.351   9.064
  708SOL    HW2 4022  11.762  10.210   9.111
  709SOL     OW 4023  11.284  13.604  11.115
  709SOL    HW1 4024  11.196  13.576  11.091
  709SOL    HW2 4025  11.318  13.648  11.037
  710SOL     OW 4026   9.232   5.375   5.675
  710SOL    HW1 4027   9.187   5.429   5.740
  710SOL    HW2 4028   9.294   5.435   5.633
  711SOL     OW 4029   8.568   9.838  12.513
  711SOL    HW1 4030   8.502   9.777  12.481
  711SOL    HW2 4031   8.520   9.920  12.526
  712SOL     OW 4032  10.090   9.464   7.889
  712SOL    HW1 4033  10.108   9.527   7.959
  712SOL    HW2 4034  10.138   9.498   7.814
  713SOL     OW 4035   9.695  14.434   1.239
  713SOL    HW1 4036   9.619  14.380   1.261
  713SOL    HW2 4037   9.685  14.453   1.146
  714SOL     OW 4038   3.809   9.132   6.114
  714SOL    HW1 4039   3.875   9.088   6.166
  714SOL    HW2 4040   3.732   9.075   6.118
  715SOL     OW 4041   5.241   3.906   7.415
  715SOL    HW1 4042   5.206   3.905   7.504
  715SOL    HW2 4043   5.171   3.947   7.363
  716SOL     OW 4044   7.622   5.670  14.431
  716SOL    HW1 4045   7.557   5.674  14.361
  716SOL    HW2 4046   7.614   5.581  14.466
  717SOL     OW 4047   8.079   9.312   3.621
  717SOL    HW1 4048   8.054   9.398   3.656
  717SOL    HW2 4049   8.161   9.291   3.666
  718SOL     OW 4050   2.457  10.784   6.654
  718SOL    HW1 4051   2.531  10.843   6.669
  718SOL    HW2 4052   2.421  10.813   6.570
  719SOL     OW 4053  13.004   5.462   0.558
  719SOL    HW1 4054  12.929   5.415   0.522
  719SOL    HW2 4055  13.070   5.458   0.488
  720SOL     OW 4056   6.818   7.635   4.130
  720SOL    HW1 4057   6.723   7.643   4.139
  720SOL    HW2 4058   6.834   7.643   4.036
  721SOL     OW 4059   0.167   8.783   1.148
  721SOL    HW1 4060   0.177   8.691   1.172
  721SOL    HW2 4061   0.254   8.811   1.120
  722SOL     OW 4062   1.378   1.519  12.862
  722SOL    HW1 4063   1.355   1.552  12.775
  722SOL    HW2 4064   1.317   1.562  12.921
  723SOL     OW 4065   2.175   9.802  10.233
  723SOL    HW1 4066   2.086   9.772  10.252
  723SOL    HW2 4067   2.232   9.737  10.274
  724SOL     OW 4068   6.014   3.800   2.099
  724SOL    HW1 4069   6.032   3.894   2.101
  724SOL    HW2 4070   6.022   3.775   2.007
  725SOL     OW 4071  12.789  11.696   1.238
  725SOL    HW1 4072  12.860  11.757   1.258
  725SOL    HW2 4073  12.719  11.721   1.298
  726SOL     OW 4074   1.517   3.003   5.162
  726SOL    HW1 4075   1.477   3.086   5.135
  726SOL    HW2 4076   1.572   3.026   5.237
  727SOL     OW 4077  13.892   1.204   7.155
  727SOL    HW1 4078  13.821   1.168   7.102
  727SOL    HW2 4079  13.945   1.255   7.093
  728SOL     OW 4080   6.680  11.636  10.637
  728SOL    HW1 4081   6.655  11.647  10.729
  728SOL    HW2 4082   6.767  11.674  10.631
  729SOL     OW 4083  10.154   3.955  14.570
  729SOL    HW1 4084  10.062   3.968  14.547
  729SOL    HW2 4085  10.154   3.882  14.631
  730SOL     OW 4086   2.045   2.805   7.994
  730SOL    HW1 4087   1.981   2.851   8.048
  730SOL    HW2 4088   2.123   2.860   7.998
  731SOL     OW 4089   7.230   4.770   1.460
  731SOL    HW1 4090   7.296   4.701   1.467
  731SOL    HW2 4091   7.210   4.775   1.367
  732SOL     OW 4092   0.498   0.007  13.470
  732SOL    HW1 4093   0.580   0.040  13.434
  732SOL    HW2 4094   0.508  14.783  13.469
  733SOL     OW 4095   0.523   8.576   6.575
  733SOL    HW1 4096   0.477   8.575   6.492
  733SOL    HW2 4097   0.532   8.668   6.598
  734SOL     OW 4098   8.851   0.597  13.444
  734SOL    HW1 4099   8.775   0.539  13.450
  734SOL    HW2 4100   8.845   0.634  13.355
  735SOL     OW 4101   1.069   0.949   0.723
  735SOL    HW1 4102   1.023   0.894   0.660
  735SOL    HW2 4103   1.017   0.943   0.803
  736SOL     OW 4104   7.224   8.108   5.179
  736SOL    HW1 4105   7.228   8.026   5.228
  736SOL    HW2 4106   7.311   8.147   5.191
  737SOL     OW 4107   1.428   8.748   5.850
  737SOL    HW1 4108   1.394   8.677   5.795
  737SOL    HW2 4109   1.459   8.705   5.929
  738SOL     OW 4110   5.987   4.032   6.582
  738SOL    HW1 4111   6.041   4.111   6.583
  738SOL    HW2 4112   5.964   4.020   6.490
  739SOL     OW 4113   6.044   3.565   2.237
  739SOL    HW1 4114   6.036   3.659   2.220
  739SOL    HW2 4115   6.023   3.524   2.153
  740SOL     OW 4116   4.055   6.175   6.596
  740SOL    HW1 4117   4.073   6.148   6.686
  740SOL    HW2 4118   4.127   6.236   6.575
  741SOL     OW 4119  13.422   1.354   1.357
  741SOL    HW1 4120  13.427   1.367   1.451
  741SOL    HW2 4121  13.508   1.380   1.324
  742SOL     OW 4122  10.399   4.564   6.789
  742SOL    HW1 4123  10.475   4.545   6.733
  742SOL    HW2 4124  10.430   4.547   6.877
  743SOL     OW 4125  10.340   5.895  12.552
  743SOL    HW1 4126  10.416   5.859  12.597
  743SOL    HW2 4127  10.315   5.827  12.489
  744SOL     OW 4128   3.158   4.724   3.619
  744SOL    HW1 4129   3.067   4.716   3.647
  744SOL    HW2 4130   3.152   4.753   3.528
  745SOL     OW 4131  13.356  11.459   6.249
  745SOL    HW1 4132  13.426  11.394   6.239
  745SOL    HW2 4133  13.383  11.531   6.192
  746SOL     OW 4134   7.641   3.955  10.114
  746SOL    HW1 4135   7.696   3.980  10.040
  746SOL    HW2 4136   7.555   3.991  10.093
  747SOL     OW 4137   2.937   1.655   2.797
  747SOL    HW1 4138   3.014   1.648   2.741
  747SOL    HW2 4139   2.971   1.680   2.883
  748SOL     OW 4140   1.122   6.690   0.761
  748SOL    HW1 4141   1.042   6.672   0.712
  748SOL    HW2 4142   1.106   6.774   0.804
  749SOL     OW 4143   7.679   9.842   5.948
  749SOL    HW1 4144   7.700   9.762   5.900
  749SOL    HW2 4145   7.595   9.822   5.991
  750SOL     OW 4146   4.147   0.906   0.141
  750SOL    HW1 4147   4.193   0.826   0.167
  750SOL    HW2 4148   4.207   0.976   0.164
  751SOL     OW 4149  12.707   4.840  12.073
  751SOL    HW1 4150  12.655   4.901  12.019
  751SOL    HW2 4151  12.764   4.897  12.124
  752SOL     OW 4152  13.699   6.351   3.303
  752SOL    HW1 4153  13.661   6.283   3.248
  752SOL    HW2 4154  13.774   6.383   3.253
  753SOL     OW 4155  10.969   9.096   1.684
  753SOL    HW1 4156  10.929   9.153   1.618
  753SOL    HW2 4157  10.894   9.057   1.731
  754SOL     OW 4158   3.641   6.357   2.574
  754SOL    HW1 4159   3.712   6.419   2.560
  754SOL    HW2 4160   3.577   6.378   2.506
  755SOL     OW 4161  10.274   6.646   3.014
  755SOL    HW1 4162  10.291   6.647   2.920
  755SOL    HW2 4163  10.179   6.656   3.021
  756SOL     OW 4164  10.076   5.038   1.864
  756SOL    HW1 4165  10.068   4.964   1.804
  756SOL    HW2 4166   9.985   5.062   1.885
  757SOL     OW 4167   3.647  11.898   2.712
  757SOL    HW1 4168   3.696  11.823   2.746
  757SOL    HW2 4169   3.646  11.884   2.617
  758SOL     OW 4170   4.799   0.302   4.774
  758SOL    HW1 4171   4.710   0.314   4.742
  758SOL    HW2 4172   4.790   0.288   4.868
  759SOL     OW 4173  12.967  12.088   7.604
  759SOL    HW1 4174  12.890  12.058   7.652
  759SOL    HW2 4175  12.947  12.068   7.512
  760SOL     OW 4176   1.795   6.137   1.181
  760SOL    HW1 4177   1.856   6.074   1.220
  760SOL    HW2 4178   1.710   6.092   1.184
  761SOL     OW 4179   9.720   4.430  12.390
  761SOL    HW1 4180   9.638   4.384  12.377
  761SOL    HW2 4181   9.731   4.483  12.311
  762SOL     OW 4182   5.912   1.126   2.883
  762SOL    HW1 4183   5.975   1.183   2.839
  762SOL    HW2 4184   5.913   1.045   2.831
  763SOL     OW 4185   5.963   9.359  11.682
  763SOL    HW1 4186   5.972   9.267  11.657
  763SOL    HW2 4187   5.894   9.393  11.625
  764SOL     OW 4188  13.814   2.006   6.867
  764SOL    HW1 4189  13.779   2.022   6.955
  764SOL    HW2 4190  13.835   2.093   6.834
  765SOL     OW 4191   5.739   5.327  11.821
  765SOL    HW1 4192   5.778   5.414  11.823
  765SOL    HW2 4193   5.658   5.334  11.871
  766SOL     OW 4194  11.281   6.695  10.393
  766SOL    HW1 4195  11.255   6.760  10.327
  766SOL    HW2 4196  11.220   6.623  10.379
  767SOL     OW 4197   9.955   1.722   2.880
  767SOL    HW1 4198   9.863   1.735   2.857
  767SOL    HW2 4199   9.964   1.761   2.967
  768SOL     OW 4200   5.543   7.054  13.044
  768SOL    HW1 4201   5.571   7.078  13.132
  768SOL    HW2 4202   5.584   7.119  12.987
  769SOL     OW 4203   9.083  11.338   4.381
  769SOL    HW1 4204   9.106  11.319   4.472
  769SOL    HW2 4205   8.988  11.336   4.379
  770SOL     OW 4206   6.323   9.627   6.782
  770SOL    HW1 4207   6.317   9.544   6.830
  770SOL    HW2 4208   6.415   9.632   6.755
  771SOL     OW 4209   1.644  11.238  14.436
  771SOL    HW1 4210   1.662  11.253  14.529
  771SOL    HW2 4211   1.719  11.188  14.405
  772SOL     OW 4212  11.115  11.910   5.656
  772SOL    HW1 4213  11.096  11.967   5.730
  772SOL    HW2 4214  11.184  11.955   5.607
  773SOL     OW 4215   9.931   1.578   8.075
  773SOL    HW1 4216   9.932   1.502   8.134
  773SOL    HW2 4217   9.998   1.636   8.110
  774SOL     OW 4218   7.566  11.363  10.164
  774SOL    HW1 4219   7.517  11.307  10.103
  774SOL    HW2 4220   7.627  11.412  10.109
  775SOL     OW 4221  14.543   6.356  11.482
  775SOL    HW1 4222  14.485   6.387  11.412
  775SOL    HW2 4223  14.582   6.435  11.518
  776SOL     OW 4224   2.495   7.297  11.328
  776SOL    HW1 4225   2.573   7.242  11.327
  776SOL    HW2 4226   2.507   7.356  11.402
  777SOL     OW 4227  13.438   2.432   1.093
  777SOL    HW1 4228  13.444   2.528   1.095
  777SOL    HW2 4229  13.385   2.411   1.171
  778SOL     OW 4230   6.803   5.921   3.394
  778SOL    HW1 4231   6.786   5.991   3.331
  778SOL    HW2 4232   6.857   5.962   3.461
  779SOL     OW 4233   9.642   4.347   9.818
  779SOL    HW1 4234   9.689   4.264   9.826
  779SOL    HW2 4235   9.589   4.352   9.898
  780SOL     OW 4236   7.067   7.075   8.801
  780SOL    HW1 4237   7.002   7.055   8.734
  780SOL    HW2 4238   7.028   7.147   8.851
  781SOL     OW 4239   5.812  12.852  14.642
  781SOL    HW1 4240   5.797  12.855  14.737
  781SOL    HW2 4241   5.830  12.943  14.618
  782SOL     OW 4242   9.660  14.319  13.031
  782SOL    HW1 4243   9.704  14.296  13.113
  782SOL    HW2 4244   9.696  14.405  13.008
  783SOL     OW 4245  10.061   6.676   8.592
  783SOL    HW1 4246  10.009   6.746   8.554
  783SOL    HW2 4247  10.110   6.639   8.518
  784SOL     OW 4248  10.947   9.280   6.996
  784SOL    HW1 4249  10.872   9.266   7.055
  784SOL    HW2 4250  11.023   9.278   7.054
  785SOL     OW 4251  13.995   5.956   6.600
  785SOL    HW1 4252  13.926   5.991   6.543
  785SOL    HW2 4253  13.994   6.014   6.676
  786SOL     OW 4254   5.510   9.058  10.298
  786SOL    HW1 4255   5.552   9.097  10.375
  786SOL    HW2 4256   5.517   8.963  10.313
  787SOL     OW 4257  12.506   3.198   4.506
  787SOL    HW1 4258  12.585   3.145   4.495
  787SOL    HW2 4259  12.536   3.288   4.503
  788SOL     OW 4260  12.823   9.085  14.727
  788SOL    HW1 4261  12.814   9.057  14.818
  788SOL    HW2 4262  12.899   9.037  14.694
  789SOL     OW 4263   4.449   3.880   5.052
  789SOL    HW1 4264   4.443   3.946   5.121
  789SOL    HW2 4265   4.405   3.803   5.089
  790SOL     OW 4266   2.111   9.884   5.240
  790SOL    HW1 4267   2.155   9.804   5.268
  790SOL    HW2 4268   2.061   9.858   5.163
  791SOL     OW 4269  10.665  11.385   9.173
  791SOL    HW1 4270  10.754  11.356   9.154
  791SOL    HW2 4271  10.661  11.393   9.268
  792SOL     OW 4272  13.877   0.332  11.733
  792SOL    HW1 4273  13.961   0.344  11.689
  792SOL    HW2 4274  13.822   0.403  11.700
  793SOL     OW 4275  10.467  10.315   0.205
  793SOL    HW1 4276  10.419  10.314   0.123
  793SOL    HW2 4277  10.559  10.320   0.179
  794SOL     OW 4278   4.029  14.790   5.659
  794SOL    HW1 4279   3.998   0.002   5.692
  794SOL    HW2 4280   3.978  14.724   5.706
  795SOL     OW 4281  10.887  13.983   3.670
  795SOL    HW1 4282  10.823  13.929   3.716
  795SOL    HW2 4283  10.836  14.053   3.629
  796SOL     OW 4284   7.491   6.129   7.730
  796SOL    HW1 4285   7.536   6.109   7.812
  796SOL    HW2 4286   7.401   6.097   7.743
  797SOL     OW 4287  13.440   6.054   8.224
  797SOL    HW1 4288  13.387   5.996   8.279
  797SOL    HW2 4289  13.379   6.121   8.194
  798SOL     OW 4290   4.196   3.555   1.433
  798SOL    HW1 4291   4.226   3.620   1.370
  798SOL    HW2 4292   4.131   3.602   1.486
  799SOL     OW 4293  10.938  14.076   0.953
  799SOL    HW1 4294  10.873  14.146   0.945
  799SOL    HW2 4295  10.912  14.028   1.032
  800SOL     OW 4296   2.569   7.470   0.800
  800SOL    HW1 4297   2.602   7.465   0.889
  800SOL    HW2 4298   2.501   7.402   0.795
  801SOL     OW 4299  11.639   7.095  12.971
  801SOL    HW1 4300  11.731   7.070  12.969
  801SOL    HW2 4301  11.633   7.159  13.042
  802SOL     OW 4302   0.940  12.688   1.720
  802SOL    HW1 4303   0.884  12.701   1.644
  802SOL    HW2 4304   0.982  12.603   1.704
  803SOL     OW 4305   3.571   9.935  12.045
  803SOL    HW1 4306   3.654   9.949  12.000
  803SOL    HW2 4307   3.566   9.840  12.057
  804SOL     OW 4308   5.396  12.079  10.731
  804SOL    HW1 4309   5.322  12.024  10.705
  804SOL    HW2 4310   5.474  12.030  10.704
  805SOL     OW 4311  10.344  11.790  10.896
  805SOL    HW1 4312  10.354  11.715  10.954
  805SOL    HW2 4313  10.256  11.823  10.915
  806SOL     OW 4314   3.217  14.333  10.900
  806SOL    HW1 4315   3.253  14.250  10.932
  806SOL    HW2 4316   3.146  14.353  10.961
  807SOL     OW 4317   3.447   2.649  13.725
  807SOL    HW1 4318   3.423   2.683  13.638
  807SOL    HW2 4319   3.447   2.554  13.715
  808SOL     OW 4320   6.281   9.762   5.000
  808SOL    HW1 4321   6.187   9.769   4.988
  808SOL    HW2 4322   6.294   9.774   5.094
  809SOL     OW 4323   0.625   4.423  14.545
  809SOL    HW1 4324   0.603   4.373  14.467
  809SOL    HW2 4325   0.620   4.360  14.616
  810SOL     OW 4326   7.607   1.915   4.978
  810SOL    HW1 4327   7.602   1.820   4.968
  810SOL    HW2 4328   7.641   1.928   5.067
  811SOL     OW 4329   5.474  14.114   2.174
  811SOL    HW1 4330   5.457  14.048   2.107
  811SOL    HW2 4331   5.392  14.119   2.224
  812SOL     OW 4332  10.701   5.224   8.734
  812SOL    HW1 4333  10.657   5.292   8.682
  812SOL    HW2 4334  10.754   5.176   8.670
  813SOL     OW 4335  11.859  13.590   7.549
  813SOL    HW1 4336  11.798  13.636   7.606
  813SOL    HW2 4337  11.817  13.505   7.532
  814SOL     OW 4338  13.893   1.386   0.127
  814SOL    HW1 4339  13.837   1.436   0.068
  814SOL    HW2 4340  13.856   1.298   0.126
  815SOL     OW 4341   1.723   4.402  13.635
  815SOL    HW1 4342   1.644   4.356  13.608
  815SOL    HW2 4343   1.794   4.358  13.588
  816SOL     OW 4344  13.828   5.478   6.321
  816SOL    HW1 4345  13.764   5.424   6.367
  816SOL    HW2 4346  13.845   5.551   6.379
  817SOL     OW 4347  14.578  11.166   8.677
  817SOL    HW1 4348  14.579  11.093   8.614
  817SOL    HW2 4349  14.543  11.129   8.757
  818SOL     OW 4350  11.524  12.634   3.418
  818SOL    HW1 4351  11.504  12.558   3.363
  818SOL    HW2 4352  11.619  12.644   3.414
  819SOL     OW 4353   8.279   1.640  12.286
  819SOL    HW1 4354   8.287   1.545  12.298
  819SOL    HW2 4355   8.207   1.665  12.344
  820SOL     OW 4356   3.911   0.228   3.472
  820SOL    HW1 4357   3.964   0.240   3.393
  820SOL    HW2 4358   3.831   0.278   3.454
  821SOL     OW 4359   1.836   4.602   5.788
  821SOL    HW1 4360   1.855   4.581   5.697
  821SOL    HW2 4361   1.743   4.585   5.799
  822SOL     OW 4362   7.958   0.617   0.190
  822SOL    HW1 4363   7.877   0.631   0.239
  822SOL    HW2 4364   7.958   0.523   0.172
  823SOL     OW 4365   6.769   7.221   0.703
  823SOL    HW1 4366   6.725   7.157   0.647
  823SOL    HW2 4367   6.726   7.212   0.788
  824SOL     OW 4368   8.770  14.598  14.729
  824SOL    HW1 4369   8.754  14.674  14.785
  824SOL    HW2 4370   8.691  14.544  14.738
  825SOL     OW 4371   5.091   9.524  13.548
  825SOL    HW1 4372   5.001   9.511  13.518
  825SOL    HW2 4373   5.136   9.565  13.475
  826SOL     OW 4374  12.609  11.397   0.447
  826SOL    HW1 4375  12.564  11.424   0.366
  826SOL    HW2 4376  12.546  11.416   0.517
  827SOL     OW 4377  14.112   0.339   4.584
  827SOL    HW1 4378  14.020   0.338   4.556
  827SOL    HW2 4379  14.147   0.256   4.552
  828SOL     OW 4380  12.948   5.205   5.163
  828SOL    HW1 4381  13.013   5.165   5.221
  828SOL    HW2 4382  12.865   5.195   5.210
  829SOL     OW 4383   2.878   8.645   1.122
  829SOL    HW1 4384   2.944   8.635   1.190
  829SOL    HW2 4385   2.926   8.681   1.047
  830SOL     OW 4386   1.240   3.718  14.029
  830SOL    HW1 4387   1.188   3.663  14.087
  830SOL    HW2 4388   1.259   3.797  14.080
  831SOL     OW 4389   0.009  14.319   4.336
  831SOL    HW1 4390   0.066  14.262   4.388
  831SOL    HW2 4391   0.069  14.384   4.298
  832SOL     OW 4392  13.875   7.653   8.052
  832SOL    HW1 4393  13.900   7.618   7.967
  832SOL    HW2 4394  13.927   7.602   8.115
  833SOL     OW 4395  12.854  13.996  12.476
  833SOL    HW1 4396  12.920  14.005  12.545
  833SOL    HW2 4397  12.858  13.904  12.451
  834SOL     OW 4398   2.086   3.030  12.583
  834SOL    HW1 4399   2.150   3.095  12.555
  834SOL    HW2 4400   2.006   3.053  12.536
  835SOL     OW 4401   1.997  14.106  14.088
  835SOL    HW1 4402   2.058  14.161  14.138
  835SOL    HW2 4403   2.050  14.069  14.018
  836SOL     OW 4404   1.051  12.231  13.659
  836SOL    HW1 4405   0.955  12.228  13.658
  836SOL    HW2 4406   1.076  12.154  13.710
  837SOL     OW 4407   2.328   2.243  11.265
  837SOL    HW1 4408   2.342   2.276  11.354
  837SOL    HW2 4409   2.249   2.189  11.272
  838SOL     OW 4410  14.232   7.651  14.338
  838SOL    HW1 4411  14.252   7.587  14.269
  838SOL    HW2 4412  14.174   7.714  14.296
  839SOL     OW 4413   4.886   6.270   8.288
  839SOL    HW1 4414   4.970   6.292   8.249
  839SOL    HW2 4415   4.870   6.340   8.352
  840SOL     OW 4416  10.178   3.401   2.335
  840SOL    HW1 4417  10.100   3.399   2.280
  840SOL    HW2 4418  10.250   3.419   2.273
  841SOL     OW 4419  12.230  13.677   1.999
  841SOL    HW1 4420  12.210  13.674   2.093
  841SOL    HW2 4421  12.222  13.586   1.970
  842SOL     OW 4422   8.426   2.130   5.193
  842SOL    HW1 4423   8.351   2.185   5.217
  842SOL    HW2 4424   8.413   2.112   5.100
  843SOL     OW 4425   3.351   3.094   1.193
  843SOL    HW1 4426   3.407   3.150   1.247
  843SOL    HW2 4427   3.350   3.010   1.239
  844SOL     OW 4428   1.207   5.347  10.113
  844SOL    HW1 4429   1.198   5.256  10.085
  844SOL    HW2 4430   1.117   5.378  10.121
  845SOL     OW 4431  12.219   5.205  13.762
  845SOL    HW1 4432  12.314   5.208  13.753
  845SOL    HW2 4433  12.196   5.114  13.740
  846SOL     OW 4434   4.658  11.298  11.543
  846SOL    HW1 4435   4.692  11.249  11.618
  846SOL    HW2 4436   4.690  11.250  11.466
  847SOL     OW 4437   1.235   4.135   9.077
  847SOL    HW1 4438   1.187   4.085   9.011
  847SOL    HW2 4439   1.174   4.142   9.150
  848SOL     OW 4440   0.270   4.096   2.313
  848SOL    HW1 4441   0.343   4.046   2.348
  848SOL    HW2 4442   0.193   4.061   2.357
  849SOL     OW 4443   8.687  14.465   6.649
  849SOL    HW1 4444   8.684  14.474   6.744
  849SOL    HW2 4445   8.628  14.533   6.616
  850SOL     OW 4446  13.404   5.477   8.046
  850SOL    HW1 4447  13.318   5.443   8.069
  850SOL    HW2 4448  13.389   5.570   8.029
  851SOL     OW 4449   6.295   1.963  12.121
  851SOL    HW1 4450   6.244   1.910  12.060
  851SOL    HW2 4451   6.301   2.049  12.079
  852SOL     OW 4452   9.922   8.629   4.521
  852SOL    HW1 4453   9.950   8.710   4.565
  852SOL    HW2 4454   9.964   8.559   4.571
  853SOL     OW 4455   7.855   1.940   0.691
  853SOL    HW1 4456   7.902   1.902   0.617
  853SOL    HW2 4457   7.923   1.969   0.751
  854SOL     OW 4458   3.603  10.496   1.571
  854SOL    HW1 4459   3.645  10.524   1.653
  854SOL    HW2 4460   3.600  10.400   1.577
  855SOL     OW 4461  11.938   7.990   8.811
  855SOL    HW1 4462  11.995   8.007   8.885
  855SOL    HW2 4463  11.943   7.895   8.799
  856SOL     OW 4464   7.481   7.450   5.220
  856SOL    HW1 4465   7.535   7.449   5.299
  856SOL    HW2 4466   7.527   7.391   5.160
  857SOL     OW 4467   5.164  11.957  10.671
  857SOL    HW1 4468   5.136  11.870  10.698
  857SOL    HW2 4469   5.129  11.967  10.582
  858SOL     OW 4470   1.896   6.733   8.805
  858SOL    HW1 4471   1.962   6.675   8.841
  858SOL    HW2 4472   1.890   6.805   8.867
  859SOL     OW 4473   6.937   8.596  14.535
  859SOL    HW1 4474   7.012   8.627  14.586
  859SOL    HW2 4475   6.969   8.590  14.446
  860SOL     OW 4476   4.328   8.178   1.053
  860SOL    HW1 4477   4.391   8.201   1.121
  860SOL    HW2 4478   4.364   8.099   1.012
  861SOL     OW 4479   9.809  14.592   6.632
  861SOL    HW1 4480   9.785  14.507   6.670
  861SOL    HW2 4481   9.903  14.585   6.615
  862SOL     OW 4482   8.879  14.230   9.628
  862SOL    HW1 4483   8.877  14.251   9.722
  862SOL    HW2 4484   8.844  14.141   9.623
  863SOL     OW 4485  12.102  14.018   5.326
  863SOL    HW1 4486  12.193  14.047   5.314
  863SOL    HW2 4487  12.096  13.998   5.420
  864SOL     OW 4488   6.831   3.572   6.160
  864SOL    HW1 4489   6.888   3.605   6.230
  864SOL    HW2 4490   6.759   3.529   6.205
  865SOL     OW 4491   8.969   1.548   7.406
  865SOL    HW1 4492   9.001   1.615   7.346
  865SOL    HW2 4493   8.970   1.467   7.355
  866SOL     OW 4494   6.864  14.060   8.298
  866SOL    HW1 4495   6.835  14.002   8.369
  866SOL    HW2 4496   6.830  14.019   8.218
  867SOL     OW 4497  13.348   9.796  10.512
  867SOL    HW1 4498  13.274   9.843  10.474
  867SOL    HW2 4499  13.309   9.748  10.585
  868SOL     OW 4500   4.814  11.998   5.376
  868SOL    HW1 4501   4.869  11.937   5.327
  868SOL    HW2 4502   4.772  11.943   5.442
  869SOL     OW 4503  13.344  12.657  11.883
  869SOL    HW1 4504  13.405  12.596  11.924
  869SOL    HW2 4505  13.320  12.614  11.801
  870SOL     OW 4506   9.520  12.926  11.684
  870SOL    HW1 4507   9.429  12.937  11.711
  870SOL    HW2 4508   9.536  12.832  11.692
  871SOL     OW 4509  13.667   9.623   6.981
  871SOL    HW1 4510  13.748   9.637   7.028
  871SOL    HW2 4511  13.636   9.710   6.958
  872SOL     OW 4512  10.620  12.809  14.550
  872SOL    HW1 4513  10.594  12.774  14.635
  872SOL    HW2 4514  10.550  12.870  14.527
  873SOL     OW 4515   4.231   8.876   9.171
  873SOL    HW1 4516   4.186   8.795   9.193
  873SOL    HW2 4517   4.246   8.870   9.076
  874SOL     OW 4518   7.926  13.796   3.515
  874SOL    HW1 4519   7.836  13.822   3.493
  874SOL    HW2 4520   7.948  13.729   3.449
  875SOL     OW 4521   9.442   1.834   4.673
  875SOL    HW1 4522   9.480   1.845   4.760
  875SOL    HW2 4523   9.490   1.895   4.617
  876SOL     OW 4524  12.199  10.816  12.940
  876SOL    HW1 4525  12.263  10.877  12.902
  876SOL    HW2 4526  12.126  10.872  12.966
  877SOL     OW 4527   4.069  13.822   6.634
  877SOL    HW1 4528   3.974  13.837   6.640
  877SOL    HW2 4529   4.106  13.910   6.626
  878SOL     OW 4530   3.831  14.407  12.109
  878SOL    HW1 4531   3.922  14.380  12.097
  878SOL    HW2 4532   3.819  14.409  12.204
  879SOL     OW 4533   0.557   9.271  14.697
  879SOL    HW1 4534   0.532   9.180  14.677
  879SOL    HW2 4535   0.604   9.265  14.780
  880SOL     OW 4536   5.613  13.556   5.590
  880SOL    HW1 4537   5.648  13.644   5.601
  880SOL    HW2 4538   5.598  13.526   5.680
  881SOL     OW 4539  13.065   5.168   2.086
  881SOL    HW1 4540  13.069   5.147   1.992
  881SOL    HW2 4541  13.150   5.206   2.105
  882SOL     OW 4542   7.159  14.230   1.780
  882SOL    HW1 4543   7.162  14.326   1.778
  882SOL    HW2 4544   7.178  14.203   1.690
  883SOL     OW 4545   5.477   9.603   4.142
  883SOL    HW1 4546   5.532   9.529   4.167
  883SOL    HW2 4547   5.533   9.658   4.088
  884SOL     OW 4548   7.439  14.682   4.253
  884SOL    HW1 4549   7.456  14.750   4.319
  884SOL    HW2 4550   7.397  14.730   4.181
  885SOL     OW 4551  10.163  13.454   6.887
  885SOL    HW1 4552  10.242  13.456   6.833
  885SOL    HW2 4553  10.142  13.361   6.895
  886SOL     OW 4554   3.108   6.638   8.596
  886SOL    HW1 4555   3.097   6.549   8.631
  886SOL    HW2 4556   3.203   6.651   8.594
  887SOL     OW 4557   0.584  10.239   1.755
  887SOL    HW1 4558   0.662  10.241   1.810
  887SOL    HW2 4559   0.514  10.274   1.810
  888SOL     OW 4560  14.372   5.232   3.200
  888SOL    HW1 4561  14.468   5.229   3.208
  888SOL    HW2 4562  14.342   5.258   3.287
  889SOL     OW 4563   6.695   8.622   8.090
  889SOL    HW1 4564   6.603   8.643   8.108
  889SOL    HW2 4565   6.699   8.615   7.994
  890SOL     OW 4566  13.651   8.656   7.661
  890SOL    HW1 4567  13.590   8.729   7.660
  890SOL    HW2 4568  13.719   8.682   7.723
  891SOL     OW 4569  10.507   8.577   4.196
  891SOL    HW1 4570  10.592   8.535   4.184
  891SOL    HW2 4571  10.503   8.598   4.289
  892SOL     OW 4572  13.905   4.002  12.881
  892SOL    HW1 4573  13.938   4.060  12.813
  892SOL    HW2 4574  13.837   4.053  12.925
  893SOL     OW 4575  14.562   5.452  11.643
  893SOL    HW1 4576  14.606   5.443  11.727
  893SOL    HW2 4577  14.547   5.363  11.613
  894SOL     OW 4578   5.595  12.166  12.996
  894SOL    HW1 4579   5.575  12.166  13.089
  894SOL    HW2 4580   5.659  12.095  12.985
  895SOL     OW 4581   2.840   2.935   3.615
  895SOL    HW1 4582   2.753   2.896   3.605
  895SOL    HW2 4583   2.850   2.949   3.710
  896SOL     OW 4584  13.119   5.525   0.137
  896SOL    HW1 4585  13.108   5.570   0.053
  896SOL    HW2 4586  13.118   5.432   0.114
  897SOL     OW 4587   9.516  12.541  10.061
  897SOL    HW1 4588   9.508  12.539   9.965
  897SOL    HW2 4589   9.598  12.587  10.076
  898SOL     OW 4590   8.625  11.428   5.812
  898SOL    HW1 4591   8.653  11.508   5.767
  898SOL    HW2 4592   8.635  11.359   5.746
  899SOL     OW 4593   1.031  11.753   6.604
  899SOL    HW1 4594   1.074  11.692   6.544
  899SOL    HW2 4595   1.001  11.698   6.677
  900SOL     OW 4596   6.935   1.170  10.105
  900SOL    HW1 4597   6.974   1.127  10.181
  900SOL    HW2 4598   7.004   1.228  10.072
  901SOL     OW 4599  14.515   2.937  13.265
  901SOL    HW1 4600  14.597   2.910  13.224
  901SOL    HW2 4601  14.521   3.032  13.270
  902SOL     OW 4602   9.672   2.284   1.702
  902SOL    HW1 4603   9.713   2.216   1.755
  902SOL    HW2 4604   9.617   2.333   1.763
  903SOL     OW 4605   0.567  10.910   4.437
  903SOL    HW1 4606   0.645  10.855   4.449
  903SOL    HW2 4607   0.594  10.997   4.467
  904SOL     OW 4608   2.735   0.803   3.667
  904SOL    HW1 4609   2.801   0.735   3.651
  904SOL    HW2 4610   2.783   0.872   3.713
  905SOL     OW 4611  12.354   4.067   6.901
  905SOL    HW1 4612  12.420   4.035   6.840
  905SOL    HW2 4613  12.355   4.004   6.973
  906SOL     OW 4614  12.769   7.954   8.872
  906SOL    HW1 4615  12.857   7.980   8.902
  906SOL    HW2 4616  12.785   7.896   8.798
  907SOL     OW 4617  11.409   7.479   2.777
  907SOL    HW1 4618  11.350   7.551   2.754
  907SOL    HW2 4619  11.352   7.402   2.781
  908SOL     OW 4620  14.453   5.258   4.204
  908SOL    HW1 4621  14.470   5.215   4.288
  908SOL    HW2 4622  14.358   5.260   4.196
  909SOL     OW 4623   9.897   8.565   6.206
  909SOL    HW1 4624   9.946   8.519   6.138
  909SOL    HW2 4625   9.930   8.655   6.203
  910SOL     OW 4626   0.386   3.055   9.720
  910SOL    HW1 4627   0.330   3.021   9.790
  910SOL    HW2 4628   0.409   3.143   9.748
  911SOL     OW 4629   6.176   6.326   6.485
  911SOL    HW1 4630   6.218   6.302   6.568
  911SOL    HW2 4631   6.189   6.421   6.478
  912SOL     OW 4632   6.247  11.871   3.014
  912SOL    HW1 4633   6.339  11.876   3.040
  912SOL    HW2 4634   6.233  11.950   2.962
  913SOL     OW 4635   6.865  14.795   0.876
  913SOL    HW1 4636   6.913  14.739   0.814
  913SOL    HW2 4637   6.835  14.869   0.823
  914SOL     OW 4638   6.546   0.759   8.366
  914SOL    HW1 4639   6.520   0.840   8.322
  914SOL    HW2 4640   6.485   0.751   8.439
  915SOL     OW 4641  11.314   4.876   1.207
  915SOL    HW1 4642  11.375   4.849   1.276
  915SOL    HW2 4643  11.273   4.956   1.240
  916SOL     OW 4644   5.167  13.166  10.055
  916SOL    HW1 4645   5.178  13.171   9.960
  916SOL    HW2 4646   5.194  13.252  10.087
  917SOL     OW 4647   1.603  10.919  10.646
  917SOL    HW1 4648   1.619  10.846  10.706
  917SOL    HW2 4649   1.611  10.997  10.701
  918SOL     OW 4650   6.446  13.432   6.974
  918SOL    HW1 4651   6.375  13.371   6.955
  918SOL    HW2 4652   6.467  13.472   6.890
  919SOL     OW 4653   0.463  13.090   3.793
  919SOL    HW1 4654   0.496  13.001   3.806
  919SOL    HW2 4655   0.464  13.103   3.698
  920SOL     OW 4656   0.632   4.840   7.190
  920SOL    HW1 4657   0.664   4.787   7.117
  920SOL    HW2 4658   0.652   4.788   7.268
  921SOL     OW 4659  12.162  14.378   4.234
  921SOL    HW1 4660  12.147  14.384   4.140
  921SOL    HW2 4661  12.076  14.357   4.271
  922SOL     OW 4662   6.012   5.738   6.800
  922SOL    HW1 4663   5.951   5.803   6.836
  922SOL    HW2 4664   6.045   5.691   6.877
  923SOL     OW 4665  13.784  12.551   2.433
  923SOL    HW1 4666  13.814  12.468   2.397
  923SOL    HW2 4667  13.797  12.543   2.527
  924SOL     OW 4668   5.711  14.706  11.575
  924SOL    HW1 4669   5.801  14.728  11.552
  924SOL    HW2 4670   5.657  14.752  11.511
  925SOL     OW 4671  11.949   9.140   3.884
  925SOL    HW1 4672  12.031   9.099   3.912
  925SOL    HW2 4673  11.917   9.084   3.813
  926SOL     OW 4674   9.467   5.242   0.629
  926SOL    HW1 4675   9.517   5.163   0.650
  926SOL    HW2 4676   9.446   5.234   0.536
  927SOL     OW 4677   6.704  12.512   0.680
  927SOL    HW1 4678   6.625  12.508   0.627
  927SOL    HW2 4679   6.697  12.595   0.727
  928SOL     OW 4680   4.971  11.707   9.925
  928SOL    HW1 4681   4.990  11.780   9.866
  928SOL    HW2 4682   4.973  11.746  10.012
  929SOL     OW 4683   6.629  11.297   4.669
  929SOL    HW1 4684   6.576  11.330   4.741
  929SOL    HW2 4685   6.718  11.326   4.689
  930SOL     OW 4686   7.881  13.918   0.902
  930SOL    HW1 4687   7.931  13.844   0.935
  930SOL    HW2 4688   7.820  13.880   0.839
  931SOL     OW 4689   4.180   5.469   7.918
  931SOL    HW1 4690   4.164   5.430   8.004
  931SOL    HW2 4691   4.140   5.408   7.856
  932SOL     OW 4692   3.110  11.851   3.824
  932SOL    HW1 4693   3.035  11.892   3.782
  932SOL    HW2 4694   3.080  11.832   3.913
  933SOL     OW 4695   2.515   3.684   2.648
  933SOL    HW1 4696   2.536   3.595   2.677
  933SOL    HW2 4697   2.583   3.739   2.686
  934SOL     OW 4698   8.681  10.183   8.870
  934SOL    HW1 4699   8.643  10.248   8.929
  934SOL    HW2 4700   8.723  10.234   8.801
  935SOL     OW 4701   6.721   7.957   0.665
  935SOL    HW1 4702   6.770   7.897   0.721
  935SOL    HW2 4703   6.776   8.034   0.658
  936SOL     OW 4704   4.611  12.067   0.585
  936SOL    HW1 4705   4.696  12.025   0.599
  936SOL    HW2 4706   4.583  12.038   0.498
  937SOL     OW 4707   2.872   5.312  10.616
  937SOL    HW1 4708   2.935   5.277  10.679
  937SOL    HW2 4709   2.912   5.394  10.586
  938SOL     OW 4710  14.364  13.974  11.189
  938SOL    HW1 4711  14.277  13.989  11.227
  938SOL    HW2 4712  14.371  14.038  11.118
  939SOL     OW 4713   8.906   6.745   2.662
  939SOL    HW1 4714   9.001   6.735   2.665
  939SOL    HW2 4715   8.872   6.666   2.705
  940SOL     OW 4716   4.575  14.423   2.044
  940SOL    HW1 4717   4.660  14.464   2.055
  940SOL    HW2 4718   4.577  14.387   1.955
  941SOL     OW 4719   8.856   0.211   4.173
  941SOL    HW1 4720   8.773   0.234   4.132
  941SOL    HW2 4721   8.899   0.155   4.109
  942SOL     OW 4722   0.085  10.612   0.720
  942SOL    HW1 4723   0.042  10.574   0.643
  942SOL    HW2 4724   0.034  10.581   0.794
  943SOL     OW 4725   2.778   6.263  10.564
  943SOL    HW1 4726   2.713   6.299  10.503
  943SOL    HW2 4727   2.735   6.267  10.650
  944SOL     OW 4728   6.078  10.662   1.295
  944SOL    HW1 4729   6.134  10.734   1.269
  944SOL    HW2 4730   6.000  10.670   1.241
  945SOL     OW 4731  12.098   6.631   4.819
  945SOL    HW1 4732  12.098   6.536   4.829
  945SOL    HW2 4733  12.027   6.649   4.758
  946SOL     OW 4734   0.527   5.635   6.049
  946SOL    HW1 4735   0.530   5.557   5.993
  946SOL    HW2 4736   0.506   5.706   5.989
  947SOL     OW 4737  11.572  14.002  12.795
  947SOL    HW1 4738  11.566  13.997  12.700
  947SOL    HW2 4739  11.482  14.015  12.824
  948SOL     OW 4740   7.237  12.403  13.985
  948SOL    HW1 4741   7.203  12.487  14.014
  948SOL    HW2 4742   7.331  12.416  13.977
  949SOL     OW 4743   7.258  11.188  12.857
  949SOL    HW1 4744   7.218  11.270  12.827
  949SOL    HW2 4745   7.216  11.121  12.804
  950SOL     OW 4746  14.587   9.059   3.457
  950SOL    HW1 4747  14.622   8.970   3.449
  950SOL    HW2 4748  14.521   9.065   3.388
  951SOL     OW 4749   7.575  12.720   4.095
  951SOL    HW1 4750   7.534  12.697   4.012
  951SOL    HW2 4751   7.625  12.799   4.076
  952SOL     OW 4752  14.487  10.720  12.643
  952SOL    HW1 4753  14.419  10.672  12.690
  952SOL    HW2 4754  14.491  10.678  12.556
  953SOL     OW 4755  13.399   7.267   6.511
  953SOL    HW1 4756  13.369   7.317   6.587
  953SOL    HW2 4757  13.493   7.259   6.523
  954SOL     OW 4758  14.808   3.042  13.127
  954SOL    HW1 4759   0.012   3.091  13.095
  954SOL    HW2 4760  14.747   3.109  13.157
  955SOL     OW 4761   8.847  13.935  13.937
  955SOL    HW1 4762   8.834  13.970  13.849
  955SOL    HW2 4763   8.783  13.864  13.944
  956SOL     OW 4764   8.367   5.104   8.802
  956SOL    HW1 4765   8.357   5.037   8.869
  956SOL    HW2 4766   8.441   5.075   8.749
  957SOL     OW 4767   4.181   9.552   4.390
  957SOL    HW1 4768   4.091   9.527   4.369
  957SOL    HW2 4769   4.231   9.531   4.311
  958SOL     OW 4770  11.633   6.329   9.072
  958SOL    HW1 4771  11.715   6.280   9.067
  958SOL    HW2 4772  11.569   6.273   9.029
  959SOL     OW 4773   6.169   6.674   2.928
  959SOL    HW1 4774   6.076   6.660   2.913
  959SOL    HW2 4775   6.183   6.646   3.019
  960SOL     OW 4776  14.595   3.377   0.490
  960SOL    HW1 4777  14.563   3.425   0.566
  960SOL    HW2 4778  14.682   3.414   0.474
  961SOL     OW 4779   5.935  11.143  12.381
  961SOL    HW1 4780   6.030  11.136  12.391
  961SOL    HW2 4781   5.919  11.119  12.290
  962SOL     OW 4782  13.309   4.898  11.486
  962SOL    HW1 4783  13.367   4.880  11.561
  962SOL    HW2 4784  13.351   4.970  11.440
  963SOL     OW 4785   3.378   5.949   2.492
  963SOL    HW1 4786   3.330   6.026   2.522
  963SOL    HW2 4787   3.464   5.983   2.468
  964SOL     OW 4788   3.588  13.400   0.990
  964SOL    HW1 4789   3.652  13.332   0.966
  964SOL    HW2 4790   3.585  13.457   0.913
  965SOL     OW 4791   2.006  11.534   3.624
  965SOL    HW1 4792   1.992  11.539   3.529
  965SOL    HW2 4793   2.097  11.504   3.633
  966SOL     OW 4794  11.358   8.942   6.977
  966SOL    HW1 4795  11.451   8.951   6.956
  966SOL    HW2 4796  11.351   8.971   7.068
  967SOL     OW 4797  13.170   0.227   7.011
  967SOL    HW1 4798  13.124   0.160   7.060
  967SOL    HW2 4799  13.160   0.307   7.063
  968SOL     OW 4800   8.238   5.760  10.065
  968SOL    HW1 4801   8.202   5.802  10.142
  968SOL    HW2 4802   8.164   5.751  10.005
  969SOL     OW 4803   1.217  12.810  12.587
  969SOL    HW1 4804   1.123  12.803  12.603
  969SOL    HW2 4805   1.254  12.835  12.671
  970SOL     OW 4806  10.480  12.382  12.022
  970SOL    HW1 4807  10.553  12.337  11.979
  970SOL    HW2 4808  10.518  12.420  12.101
  971SOL     OW 4809  10.533   1.347   0.352
  971SOL    HW1 4810  10.466   1.351   0.284
  971SOL    HW2 4811  10.552   1.254   0.361
  972SOL     OW 4812  14.398   7.529   8.082
  972SOL    HW1 4813  14.376   7.437   8.071
  972SOL    HW2 4814  14.324   7.577   8.043
  973SOL     OW 4815  13.886  13.452   8.279
  973SOL    HW1 4816  13.975  13.426   8.303
  973SOL    HW2 4817  13.842  13.467   8.363
  974SOL     OW 4818   6.139   2.525   4.955
  974SOL    HW1 4819   6.211   2.467   4.981
  974SOL    HW2 4820   6.087   2.536   5.034
  975SOL     OW 4821  14.716  13.537  11.940
  975SOL    HW1 4822  14.720  13.520  12.034
  975SOL    HW2 4823  14.685  13.454  11.903
  976SOL     OW 4824   1.726  10.259   7.009
  976SOL    HW1 4825   1.792  10.315   7.050
  976SOL    HW2 4826   1.728  10.283   6.916
  977SOL     OW 4827   2.740  10.274  11.201
  977SOL    HW1 4828   2.769  10.237  11.284
  977SOL    HW2 4829   2.653  10.237  11.187
  978SOL     OW 4830   8.071   7.578  11.465
  978SOL    HW1 4831   8.086   7.646  11.530
  978SOL    HW2 4832   8.002   7.613  11.409
  979SOL     OW 4833   3.261   5.763   9.954
  979SOL    HW1 4834   3.293   5.674   9.966
  979SOL    HW2 4835   3.238   5.793  10.042
  980SOL     OW 4836   3.322   0.900   8.468
  980SOL    HW1 4837   3.271   0.841   8.524
  980SOL    HW2 4838   3.371   0.841   8.410
  981SOL     OW 4839   9.534   9.155   5.673
  981SOL    HW1 4840   9.519   9.161   5.579
  981SOL    HW2 4841   9.626   9.176   5.685
  982SOL     OW 4842  12.854   0.073  12.883
  982SOL    HW1 4843  12.839   0.165  12.904
  982SOL    HW2 4844  12.851   0.069  12.788
  983SOL     OW 4845   3.556   7.072   4.280
  983SOL    HW1 4846   3.621   7.131   4.243
  983SOL    HW2 4847   3.503   7.044   4.205
  984SOL     OW 4848   5.052   4.102  10.686
  984SOL    HW1 4849   4.975   4.155  10.705
  984SOL    HW2 4850   5.126   4.163  10.695
  985SOL     OW 4851  11.256   1.350  12.616
  985SOL    HW1 4852  11.202   1.419  12.578
  985SOL    HW2 4853  11.219   1.269  12.582
  986SOL     OW 4854   2.187   7.898   3.017
  986SOL    HW1 4855   2.167   7.813   2.979
  986SOL    HW2 4856   2.232   7.946   2.948
  987SOL     OW 4857  14.060   3.422   1.729
  987SOL    HW1 4858  14.139   3.370   1.745
  987SOL    HW2 4859  14.024   3.385   1.648
  988SOL     OW 4860   0.387  13.352  13.349
  988SOL    HW1 4861   0.435  13.404  13.414
  988SOL    HW2 4862   0.309  13.404  13.329
  989SOL     OW 4863  10.122   0.472   8.204
  989SOL    HW1 4864  10.078   0.390   8.180
  989SOL    HW2 4865  10.215   0.449   8.206
  990SOL     OW 4866   4.238  11.002   9.266
  990SOL    HW1 4867   4.282  10.925   9.230
  990SOL    HW2 4868   4.306  11.068   9.274
  991SOL     OW 4869   7.997   7.322   2.623
  991SOL    HW1 4870   7.923   7.261   2.613
  991SOL    HW2 4871   8.074   7.268   2.607
  992SOL     OW 4872  13.591   4.629   8.258
  992SOL    HW1 4873  13.622   4.718   8.244
  992SOL    HW2 4874  13.547   4.606   8.177
  993SOL     OW 4875   5.280   0.314  13.150
  993SOL    HW1 4876   5.238   0.389  13.191
  993SOL    HW2 4877   5.208   0.255  13.129
  994SOL     OW 4878  13.991   7.468  13.699
  994SOL    HW1 4879  13.961   7.473  13.608
  994SOL    HW2 4880  13.912   7.454  13.750
  995SOL     OW 4881   2.290   7.267   7.842
  995SOL    HW1 4882   2.380   7.248   7.816
  995SOL    HW2 4883   2.268   7.200   7.907
  996SOL     OW 4884  10.913   1.974  11.143
  996SOL    HW1 4885  10.903   2.018  11.059
  996SOL    HW2 4886  10.998   2.003  11.175
  997SOL     OW 4887  11.063   4.994  12.529
  997SOL    HW1 4888  11.087   4.903  12.516
  997SOL    HW2 4889  11.059   5.030  12.440
  998SOL     OW 4890  12.266   5.350   8.444
  998SOL    HW1 4891  12.329   5.416   8.474
  998SOL    HW2 4892  12.183   5.378   8.483
  999SOL     OW 4893  11.931   4.572   0.686
  999SOL    HW1 4894  11.991   4.640   0.655
  999SOL    HW2 4895  11.970   4.540   0.767
 1000SOL     OW 4896   1.534  13.080   0.545
 1000SOL    HW1 4897   1.462  13.122   0.592
 1000SOL    HW2 4898   1.498  12.996   0.516
 1001SOL     OW 4899   5.312   6.972   7.052
 1001SOL    HW1 4900   5.300   6.880   7.029
 1001SOL    HW2 4901   5.365   7.009   6.981
 1002SOL     OW 4902  12.958   2.129   1.705
 1002SOL    HW1 4903  13.011   2.050   1.715
 1002SOL    HW2 4904  12.910   2.137   1.787
 1003SOL     OW 4905   7.031  13.994   7.075
 1003SOL    HW1 4906   6.944  13.955   7.071
 1003SOL    HW2 4907   7.026  14.056   7.148
 1004SOL     OW 4908   2.008  13.541   2.681
 1004SOL    HW1 4909   2.057  13.623   2.675
 1004SOL    HW2 4910   2.024  13.497   2.597
 1005SOL     OW 4911  11.758   9.405   1.174
 1005SOL    HW1 4912  11.816   9.391   1.249
 1005SOL    HW2 4913  11.767   9.498   1.153
 1006SOL     OW 4914  11.068  12.155  12.597
 1006SOL    HW1 4915  11.156  12.178  12.565
 1006SOL    HW2 4916  11.075  12.159  12.692
 1007SOL     OW 4917   8.410   5.020   5.344
 1007SOL    HW1 4918   8.334   5.040   5.290
 1007SOL    HW2 4919   8.379   5.027   5.434
 1008SOL     OW 4920   4.511   3.478  14.400
 1008SOL    HW1 4921   4.460   3.529  14.336
 1008SOL    HW2 4922   4.480   3.388  14.389
 1009SOL     OW 4923   9.090   4.418   4.619
 1009SOL    HW1 4924   9.046   4.476   4.681
 1009SOL    HW2 4925   9.023   4.354   4.596
 1010SOL     OW 4926   8.133   4.004   6.181
 1010SOL    HW1 4927   8.139   3.970   6.271
 1010SOL    HW2 4928   8.141   3.926   6.126
 1011SOL     OW 4929  11.007   7.644   5.553
 1011SOL    HW1 4930  10.951   7.707   5.508
 1011SOL    HW2 4931  11.054   7.696   5.618
 1012SOL     OW 4932   0.345   7.451  12.143
 1012SOL    HW1 4933   0.325   7.522  12.082
 1012SOL    HW2 4934   0.259   7.421  12.174
 1013SOL     OW 4935  13.146   0.842  12.390
 1013SOL    HW1 4936  13.188   0.887  12.317
 1013SOL    HW2 4937  13.057   0.877  12.392
 1014SOL     OW 4938  10.011  11.395   4.999
 1014SOL    HW1 4939  10.024  11.381   4.906
 1014SOL    HW2 4940   9.947  11.466   5.004
 1015SOL     OW 4941   3.246  14.756   4.134
 1015SOL    HW1 4942   3.230  14.725   4.223
 1015SOL    HW2 4943   3.172  14.814   4.116
 1016SOL     OW 4944   0.480   2.335   3.426
 1016SOL    HW1 4945   0.558   2.280   3.425
 1016SOL    HW2 4946   0.485   2.382   3.509
 1017SOL     OW 4947   6.204   2.473  13.353
 1017SOL    HW1 4948   6.143   2.415  13.399
 1017SOL    HW2 4949   6.147   2.532  13.303
 1018SOL     OW 4950  10.619   3.093   2.860
 1018SOL    HW1 4951  10.558   3.020   2.872
 1018SOL    HW2 4952  10.570   3.157   2.808
 1019SOL     OW 4953   9.778   4.725   7.731
 1019SOL    HW1 4954   9.737   4.810   7.748
 1019SOL    HW2 4955   9.746   4.701   7.644
 1020SOL     OW 4956  12.555   0.052  13.481
 1020SOL    HW1 4957  12.572   0.142  13.454
 1020SOL    HW2 4958  12.485   0.058  13.545
 1021SOL     OW 4959  10.238  13.916   2.759
 1021SOL    HW1 4960  10.158  13.866   2.770
 1021SOL    HW2 4961  10.304  13.868   2.809
 1022SOL     OW 4962  13.793   3.822  14.022
 1022SOL    HW1 4963  13.842   3.743  14.045
 1022SOL    HW2 4964  13.801   3.828  13.927
 1023SOL     OW 4965   0.980   8.553   3.970
 1023SOL    HW1 4966   1.029   8.531   3.890
 1023SOL    HW2 4967   1.029   8.510   4.040
 1024SOL     OW 4968   1.916  14.158   6.070
 1024SOL    HW1 4969   1.835  14.191   6.108
 1024SOL    HW2 4970   1.939  14.222   6.003
 1025SOL     OW 4971   6.211   8.739   6.860
 1025SOL    HW1 4972   6.231   8.692   6.941
 1025SOL    HW2 4973   6.296   8.751   6.817
 1026SOL     OW 4974   3.828  10.332   5.609
 1026SOL    HW1 4975   3.880  10.252   5.597
 1026SOL    HW2 4976   3.776  10.315   5.688
 1027SOL     OW 4977  10.309  12.910   0.307
 1027SOL    HW1 4978  10.266  12.949   0.230
 1027SOL    HW2 4979  10.377  12.854   0.270
 1028SOL     OW 4980   3.348   0.296   3.566
 1028SOL    HW1 4981   3.374   0.205   3.553
 1028SOL    HW2 4982   3.423   0.347   3.535
 1029SOL     OW 4983  12.217  11.642   8.474
 1029SOL    HW1 4984  12.160  11.680   8.406
 1029SOL    HW2 4985  12.212  11.704   8.547
 1030SOL     OW 4986   1.255   8.516   2.022
 1030SOL    HW1 4987   1.281   8.429   2.052
 1030SOL    HW2 4988   1.314   8.576   2.068
 1031SOL     OW 4989   4.275   6.878  14.488
 1031SOL    HW1 4990   4.270   6.792  14.445
 1031SOL    HW2 4991   4.315   6.935  14.423
 1032SOL     OW 4992   9.847   2.780   6.835
 1032SOL    HW1 4993   9.875   2.691   6.816
 1032SOL    HW2 4994   9.772   2.794   6.777
 1033SOL     OW 4995   0.118  13.308   1.213
 1033SOL    HW1 4996   0.109  13.222   1.254
 1033SOL    HW2 4997   0.046  13.312   1.150
 1034SOL     OW 4998   3.933  12.591   0.223
 1034SOL    HW1 4999   3.858  12.650   0.231
 1034SOL    HW2 5000   3.993  12.637   0.165
 1035SOL     OW 5001   0.109   6.388  12.657
 1035SOL    HW1 5002   0.028   6.338  12.666
 1035SOL    HW2 5003   0.178   6.326  12.679
 1036SOL     OW 5004   1.135   0.466   3.350
 1036SOL    HW1 5005   1.048   0.460   3.389
 1036SOL    HW2 5006   1.134   0.548   3.301
 1037SOL     OW 5007   1.842   2.686  14.489
 1037SOL    HW1 5008   1.781   2.703  14.560
 1037SOL    HW2 5009   1.894   2.766  14.482
 1038SOL     OW 5010  14.016  11.716  14.674
 1038SOL    HW1 5011  14.061  11.732  14.591
 1038SOL    HW2 5012  13.925  11.739  14.657
 1039SOL     OW 5013   1.985   1.768  12.766
 1039SOL    HW1 5014   2.010   1.789  12.677
 1039SOL    HW2 5015   1.961   1.853  12.805
 1040SOL     OW 5016   9.005   9.745   6.524
 1040SOL    HW1 5017   8.993   9.689   6.601
 1040SOL    HW2 5018   8.990   9.686   6.450
 1041SOL     OW 5019  13.614   7.308   4.462
 1041SOL    HW1 5020  13.639   7.400   4.468
 1041SOL    HW2 5021  13.593   7.283   4.552
 1042SOL     OW 5022   3.954   4.702  11.313
 1042SOL    HW1 5023   3.862   4.694  11.339
 1042SOL    HW2 5024   3.983   4.612  11.302
 1043SOL     OW 5025   6.020   3.463   3.705
 1043SOL    HW1 5026   5.940   3.448   3.654
 1043SOL    HW2 5027   6.014   3.554   3.734
 1044SOL     OW 5028  12.962   6.369   4.797
 1044SOL    HW1 5029  12.950   6.274   4.787
 1044SOL    HW2 5030  12.887   6.407   4.752
 1045SOL     OW 5031   6.205   1.740   8.849
 1045SOL    HW1 5032   6.150   1.815   8.871
 1045SOL    HW2 5033   6.185   1.723   8.757
 1046SOL     OW 5034  11.960  13.480  13.049
 1046SOL    HW1 5035  11.919  13.526  13.122
 1046SOL    HW2 5036  12.035  13.435  13.088
 1047SOL     OW 5037   2.377   2.372  10.349
 1047SOL    HW1 5038   2.344   2.375  10.439
 1047SOL    HW2 5039   2.414   2.284  10.340
 1048SOL     OW 5040  13.413  10.977  12.143
 1048SOL    HW1 5041  13.344  11.008  12.084
 1048SOL    HW2 5042  13.469  11.053  12.156
 1049SOL     OW 5043  13.571   3.884   9.124
 1049SOL    HW1 5044  13.507   3.956   9.129
 1049SOL    HW2 5045  13.582   3.856   9.214
 1050SOL     OW 5046   2.691   2.897   8.774
 1050SOL    HW1 5047   2.684   2.973   8.832
 1050SOL    HW2 5048   2.608   2.896   8.727
 1051SOL     OW 5049   3.797   9.674  13.490
 1051SOL    HW1 5050   3.742   9.644  13.417
 1051SOL    HW2 5051   3.794   9.769  13.486
 1052SOL     OW 5052  11.061  10.907   5.259
 1052SOL    HW1 5053  11.003  10.877   5.189
 1052SOL    HW2 5054  11.096  10.991   5.228
 1053SOL     OW 5055  13.139  12.809  11.057
 1053SOL    HW1 5056  13.200  12.802  11.131
 1053SOL    HW2 5057  13.093  12.892  11.073
 1054SOL     OW 5058  12.046   4.703  14.825
 1054SOL    HW1 5059  11.964   4.705   0.003
 1054SOL    HW2 5060  12.111   4.671   0.017
 1055SOL     OW 5061   9.078   3.463   4.067
 1055SOL    HW1 5062   9.039   3.463   3.980
 1055SOL    HW2 5063   9.009   3.433   4.126
 1056SOL     OW 5064   9.596  10.131  12.717
 1056SOL    HW1 5065   9.649  10.092  12.786
 1056SOL    HW2 5066   9.598  10.225  12.735
 1057SOL     OW 5067   3.124   7.618   9.049
 1057SOL    HW1 5068   3.202   7.572   9.018
 1057SOL    HW2 5069   3.053   7.556   9.038
 1058SOL     OW 5070   5.540   6.247  14.766
 1058SOL    HW1 5071   5.458   6.201  14.781
 1058SOL    HW2 5072   5.515   6.337  14.746
 1059SOL     OW 5073   5.259   8.839   2.772
 1059SOL    HW1 5074   5.327   8.777   2.746
 1059SOL    HW2 5075   5.178   8.803   2.736
 1060SOL     OW 5076  11.786  13.531   0.119
 1060SOL    HW1 5077  11.873  13.501   0.092
 1060SOL    HW2 5078  11.801  13.617   0.158
 1061SOL     OW 5079  11.260  11.567   6.751
 1061SOL    HW1 5080  11.243  11.484   6.795
 1061SOL    HW2 5081  11.275  11.543   6.659
 1062SOL     OW 5082   8.158  11.823   2.715
 1062SOL    HW1 5083   8.138  11.912   2.686
 1062SOL    HW2 5084   8.092  11.804   2.782
 1063SOL     OW 5085   2.990  13.391   8.017
 1063SOL    HW1 5086   3.047  13.463   7.991
 1063SOL    HW2 5087   3.045  13.313   8.010
 1064SOL     OW 5088   6.315   4.654  13.328
 1064SOL    HW1 5089   6.273   4.571  13.307
 1064SOL    HW2 5090   6.309   4.660  13.424
 1065SOL     OW 5091  12.747   0.622   7.847
 1065SOL    HW1 5092  12.791   0.554   7.796
 1065SOL    HW2 5093  12.810   0.648   7.913
 1066SOL     OW 5094   4.547  11.790   3.391
 1066SOL    HW1 5095   4.511  11.859   3.447
 1066SOL    HW2 5096   4.627  11.762   3.436
 1067SOL     OW 5097  13.331   0.452  12.450
 1067SOL    HW1 5098  13.348   0.407  12.533
 1067SOL    HW2 5099  13.398   0.420  12.390
 1068SOL     OW 5100  12.238   7.595  13.439
 1068SOL    HW1 5101  12.282   7.673  13.471
 1068SOL    HW2 5102  12.274   7.581  13.351
 1069SOL     OW 5103   0.604  10.800   2.661
 1069SOL    HW1 5104   0.553  10.813   2.581
 1069SOL    HW2 5105   0.613  10.705   2.669
 1070SOL     OW 5106   7.754   3.806   0.483
 1070SOL    HW1 5107   7.693   3.870   0.447
 1070SOL    HW2 5108   7.805   3.777   0.408
 1071SOL     OW 5109   2.920   4.000   3.776
 1071SOL    HW1 5110   2.861   3.927   3.792
 1071SOL    HW2 5111   2.873   4.055   3.713
 1072SOL     OW 5112   1.269   3.776   8.101
 1072SOL    HW1 5113   1.291   3.686   8.128
 1072SOL    HW2 5114   1.179   3.789   8.131
 1073SOL     OW 5115  14.733   1.194  10.931
 1073SOL    HW1 5116  14.732   1.227  11.021
 1073SOL    HW2 5117  14.825   1.186  10.909
 1074SOL     OW 5118   4.127   3.567  10.548
 1074SOL    HW1 5119   4.178   3.601  10.622
 1074SOL    HW2 5120   4.036   3.579  10.574
 1075SOL     OW 5121  14.556  12.975   2.053
 1075SOL    HW1 5122  14.523  13.002   2.139
 1075SOL    HW2 5123  14.561  13.057   2.003
 1076SOL     OW 5124   8.757  11.878  14.162
 1076SOL    HW1 5125   8.741  11.860  14.069
 1076SOL    HW2 5126   8.845  11.915  14.164
 1077SOL     OW 5127   3.906   0.955   2.105
 1077SOL    HW1 5128   3.912   0.863   2.081
 1077SOL    HW2 5129   3.981   0.970   2.163
 1078SOL     OW 5130  13.628   0.325   2.619
 1078SOL    HW1 5131  13.602   0.257   2.681
 1078SOL    HW2 5132  13.567   0.315   2.546
 1079SOL     OW 5133   5.232   5.448   1.864
 1079SOL    HW1 5134   5.191   5.506   1.928
 1079SOL    HW2 5135   5.175   5.372   1.860
 1080SOL     OW 5136   3.894   5.690  12.792
 1080SOL    HW1 5137   3.915   5.778  12.823
 1080SOL    HW2 5138   3.810   5.700  12.748
 1081SOL     OW 5139  10.138  11.212  12.122
 1081SOL    HW1 5140  10.193  11.286  12.095
 1081SOL    HW2 5141  10.122  11.163  12.042
 1082SOL     OW 5142   8.525   4.204   8.091
 1082SOL    HW1 5143   8.534   4.272   8.024
 1082SOL    HW2 5144   8.613   4.168   8.100
 1083SOL     OW 5145  14.709   8.518   7.054
 1083SOL    HW1 5146  14.775   8.456   7.022
 1083SOL    HW2 5147  14.628   8.467   7.057
 1084SOL     OW 5148  14.743  12.422  13.917
 1084SOL    HW1 5149  14.820  12.387  13.872
 1084SOL    HW2 5150  14.670  12.370  13.883
 1085SOL     OW 5151   1.409   1.958   1.592
 1085SOL    HW1 5152   1.318   1.929   1.590
 1085SOL    HW2 5153   1.407   2.036   1.647
 1086SOL     OW 5154   2.082   7.007   6.329
 1086SOL    HW1 5155   2.006   7.020   6.271
 1086SOL    HW2 5156   2.106   7.096   6.357
 1087SOL     OW 5157  13.991   4.009   3.437
 1087SOL    HW1 5158  13.919   4.035   3.494
 1087SOL    HW2 5159  13.982   4.064   3.359
 1088SOL     OW 5160   2.275   8.944  11.097
 1088SOL    HW1 5161   2.186   8.964  11.069
 1088SOL    HW2 5162   2.300   9.018  11.153
 1089SOL     OW 5163  10.784   3.107   1.813
 1089SOL    HW1 5164  10.866   3.127   1.770
 1089SOL    HW2 5165  10.731   3.064   1.746
 1090SOL     OW 5166   3.303   6.232   1.151
 1090SOL    HW1 5167   3.261   6.148   1.133
 1090SOL    HW2 5168   3.230   6.291   1.170
 1091SOL     OW 5169   0.679   8.477   9.320
 1091SOL    HW1 5170   0.673   8.490   9.415
 1091SOL    HW2 5171   0.620   8.404   9.302
 1092SOL     OW 5172  12.583   4.551  13.750
 1092SOL    HW1 5173  12.587   4.514  13.839
 1092SOL    HW2 5174  12.673   4.575  13.730
 1093SOL     OW 5175  12.103   7.087   3.302
 1093SOL    HW1 5176  12.120   7.013   3.360
 1093SOL    HW2 5177  12.007   7.097   3.304
 1094SOL     OW 5178  10.268  11.731  13.144
 1094SOL    HW1 5179  10.208  11.677  13.195
 1094SOL    HW2 5180  10.282  11.809  13.197
 1095SOL     OW 5181   4.595  14.453  13.292
 1095SOL    HW1 5182   4.530  14.518  13.266
 1095SOL    HW2 5183   4.590  14.385  13.225
 1096SOL     OW 5184  10.794   2.205   6.722
 1096SOL    HW1 5185  10.805   2.282   6.778
 1096SOL    HW2 5186  10.800   2.130   6.782
 1097SOL     OW 5187  13.601  12.970  13.509
 1097SOL    HW1 5188  13.546  13.047  13.525
 1097SOL    HW2 5189  13.632  12.944  13.596
 1098SOL     OW 5190  11.576   7.402  14.183
 1098SOL    HW1 5191  11.627   7.454  14.245
 1098SOL    HW2 5192  11.556   7.463  14.112
 1099SOL     OW 5193   3.648  11.788   7.527
 1099SOL    HW1 5194   3.708  11.755   7.461
 1099SOL    HW2 5195   3.647  11.883   7.515
 1100SOL     OW 5196   9.668   6.687   6.323
 1100SOL    HW1 5197   9.616   6.764   6.345
 1100SOL    HW2 5198   9.641   6.665   6.234
 1101SOL     OW 5199  13.167   9.604   6.762
 1101SOL    HW1 5200  13.245   9.586   6.815
 1101SOL    HW2 5201  13.128   9.518   6.746
 1102SOL     OW 5202   0.066   2.419  10.372
 1102SOL    HW1 5203   0.060   2.378  10.459
 1102SOL    HW2 5204   0.137   2.483  10.381
 1103SOL     OW 5205   0.202   8.652  14.286
 1103SOL    HW1 5206   0.217   8.576  14.229
 1103SOL    HW2 5207   0.172   8.614  14.369
 1104SOL     OW 5208  10.461  13.816  14.864
 1104SOL    HW1 5209  10.368  13.801  14.845
 1104SOL    HW2 5210  10.468  13.910   0.005
 1105SOL     OW 5211   8.964   8.718  10.890
 1105SOL    HW1 5212   8.988   8.689  10.802
 1105SOL    HW2 5213   8.949   8.812  10.882
 1106SOL     OW 5214   0.503   2.453   9.306
 1106SOL    HW1 5215   0.476   2.363   9.287
 1106SOL    HW2 5216   0.550   2.447   9.389
 1107SOL     OW 5217   0.565   0.142   5.154
 1107SOL    HW1 5218   0.595   0.209   5.215
 1107SOL    HW2 5219   0.630   0.071   5.161
 1108SOL     OW 5220   7.051  12.219   3.569
 1108SOL    HW1 5221   6.997  12.158   3.519
 1108SOL    HW2 5222   7.132  12.172   3.586
 1109SOL     OW 5223   5.462   8.379  13.561
 1109SOL    HW1 5224   5.398   8.318  13.599
 1109SOL    HW2 5225   5.438   8.464  13.598
 1110SOL     OW 5226   9.152  11.605  12.323
 1110SOL    HW1 5227   9.060  11.581  12.311
 1110SOL    HW2 5228   9.192  11.589  12.237
 1111SOL     OW 5229   1.846   8.673  14.515
 1111SOL    HW1 5230   1.764   8.672  14.564
 1111SOL    HW2 5231   1.914   8.681  14.581
 1112SOL     OW 5232   7.470  10.343  10.409
 1112SOL    HW1 5233   7.458  10.288  10.487
 1112SOL    HW2 5234   7.400  10.314  10.350
 1113SOL     OW 5235  11.531   8.619  10.463
 1113SOL    HW1 5236  11.514   8.525  10.460
 1113SOL    HW2 5237  11.445   8.660  10.456
 1114SOL     OW 5238   5.682   3.203   0.539
 1114SOL    HW1 5239   5.648   3.196   0.449
 1114SOL    HW2 5240   5.688   3.297   0.554
 1115SOL     OW 5241   5.408  11.950   0.052
 1115SOL    HW1 5242   5.459  11.956  14.843
 1115SOL    HW2 5243   5.335  12.011   0.038
 1116SOL     OW 5244   2.908   0.126   8.355
 1116SOL    HW1 5245   2.942   0.158   8.439
 1116SOL    HW2 5246   2.840   0.189   8.331
 1117SOL     OW 5247   5.820   6.619   9.932
 1117SOL    HW1 5248   5.912   6.618   9.959
 1117SOL    HW2 5249   5.780   6.685   9.989
 1118SOL     OW 5250   1.317  13.130  12.051
 1118SOL    HW1 5251   1.380  13.097  12.115
 1118SOL    HW2 5252   1.269  13.199  12.098
 1119SOL     OW 5253  12.568   7.828   9.924
 1119SOL    HW1 5254  12.538   7.917   9.944
 1119SOL    HW2 5255  12.525   7.773   9.990
 1120SOL     OW 5256  14.623  10.428  13.024
 1120SOL    HW1 5257  14.560  10.435  13.095
 1120SOL    HW2 5258  14.686  10.498  13.040
 1121SOL     OW 5259   4.725   5.972  13.607
 1121SOL    HW1 5260   4.645   5.922  13.590
 1121SOL    HW2 5261   4.745   5.955  13.700
 1122SOL     OW 5262   1.063   8.141   2.020
 1122SOL    HW1 5263   1.061   8.046   2.026
 1122SOL    HW2 5264   1.151   8.165   2.050
 1123SOL     OW 5265  12.279   6.254  11.732
 1123SOL    HW1 5266  12.294   6.265  11.638
 1123SOL    HW2 5267  12.186   6.277  11.743
 1124SOL     OW 5268   6.955   3.125   7.578
 1124SOL    HW1 5269   6.895   3.158   7.511
 1124SOL    HW2 5270   6.909   3.138   7.661
 1125SOL     OW 5271   1.540   4.135   1.690
 1125SOL    HW1 5272   1.581   4.215   1.657
 1125SOL    HW2 5273   1.599   4.105   1.759
 1126SOL     OW 5274  13.581   2.974   2.531
 1126SOL    HW1 5275  13.607   2.908   2.595
 1126SOL    HW2 5276  13.644   2.965   2.460
 1127SOL     OW 5277   2.579  10.024   2.036
 1127SOL    HW1 5278   2.602  10.111   2.007
 1127SOL    HW2 5279   2.661   9.974   2.031
 1128SOL     OW 5280  11.579   6.718   9.184
 1128SOL    HW1 5281  11.489   6.684   9.182
 1128SOL    HW2 5282  11.605   6.710   9.276
 1129SOL     OW 5283   3.325   5.052   5.747
 1129SOL    HW1 5284   3.257   5.073   5.812
 1129SOL    HW2 5285   3.286   4.984   5.693
 1130SOL     OW 5286   3.266   3.461   6.950
 1130SOL    HW1 5287   3.217   3.381   6.965
 1130SOL    HW2 5288   3.213   3.511   6.888
 1131SOL     OW 5289   2.088   7.879   7.251
 1131SOL    HW1 5290   2.177   7.856   7.222
 1131SOL    HW2 5291   2.045   7.910   7.171
 1132SOL     OW 5292   8.876   4.297   1.438
 1132SOL    HW1 5293   8.782   4.278   1.439
 1132SOL    HW2 5294   8.914   4.227   1.386
 1133SOL     OW 5295   5.381  14.257   3.650
 1133SOL    HW1 5296   5.303  14.307   3.673
 1133SOL    HW2 5297   5.347  14.170   3.627
 1134SOL     OW 5298   9.308   0.438   4.613
 1134SOL    HW1 5299   9.388   0.388   4.599
 1134SOL    HW2 5300   9.239   0.385   4.572
 1135SOL     OW 5301   8.251   2.826  14.687
 1135SOL    HW1 5302   8.278   2.790  14.772
 1135SOL    HW2 5303   8.257   2.751  14.627
 1136SOL     OW 5304   8.906  14.714   6.446
 1136SOL    HW1 5305   8.938  14.710   6.356
 1136SOL    HW2 5306   8.954  14.786   6.486
 1137SOL     OW 5307   0.829  14.814   9.500
 1137SOL    HW1 5308   0.739  14.844   9.490
 1137SOL    HW2 5309   0.820  14.719   9.513
 1138SOL     OW 5310   4.917   5.325  12.522
 1138SOL    HW1 5311   5.013   5.323  12.516
 1138SOL    HW2 5312   4.888   5.251  12.468
 1139SOL     OW 5313   1.720  11.098  11.839
 1139SOL    HW1 5314   1.758  11.083  11.926
 1139SOL    HW2 5315   1.794  11.092  11.779
 1140SOL     OW 5316   9.961  12.097   3.284
 1140SOL    HW1 5317   9.911  12.020   3.254
 1140SOL    HW2 5318   9.924  12.117   3.370
 1141SOL     OW 5319  14.854   0.873   7.345
 1141SOL    HW1 5320  14.822   0.812   7.410
 1141SOL    HW2 5321  14.842   0.959   7.384
 1142SOL     OW 5322   5.962   0.709   8.029
 1142SOL    HW1 5323   5.995   0.645   7.966
 1142SOL    HW2 5324   6.041   0.741   8.074
 1143SOL     OW 5325  10.504  13.442   8.821
 1143SOL    HW1 5326  10.542  13.354   8.826
 1143SOL    HW2 5327  10.422  13.431   8.773
 1144SOL     OW 5328   4.069   5.164  12.485
 1144SOL    HW1 5329   4.065   5.146  12.391
 1144SOL    HW2 5330   4.014   5.242  12.496
 1145SOL     OW 5331   2.058   7.216   7.180
 1145SOL    HW1 5332   1.981   7.269   7.160
 1145SOL    HW2 5333   2.075   7.167   7.100
 1146SOL     OW 5334  11.264  10.501   5.961
 1146SOL    HW1 5335  11.342  10.519   6.013
 1146SOL    HW2 5336  11.230  10.419   5.998
 1147SOL     OW 5337   1.838   7.489   8.630
 1147SOL    HW1 5338   1.827   7.574   8.588
 1147SOL    HW2 5339   1.897   7.506   8.704
 1148SOL     OW 5340  12.876   2.518   4.151
 1148SOL    HW1 5341  12.905   2.505   4.061
 1148SOL    HW2 5342  12.940   2.470   4.204
 1149SOL     OW 5343   5.200   8.455   3.370
 1149SOL    HW1 5344   5.155   8.529   3.412
 1149SOL    HW2 5345   5.181   8.466   3.277
 1150SOL     OW 5346   4.853  12.377  14.821
 1150SOL    HW1 5347   4.899  12.387   0.033
 1150SOL    HW2 5348   4.785  12.311  14.839
 1151SOL     OW 5349  12.481   7.470   8.149
 1151SOL    HW1 5350  12.491   7.375   8.156
 1151SOL    HW2 5351  12.499   7.490   8.057
 1152SOL     OW 5352   2.985   9.049  14.737
 1152SOL    HW1 5353   3.043   9.125  14.745
 1152SOL    HW2 5354   3.044   8.975  14.722
 1153SOL     OW 5355  12.445   7.989   6.079
 1153SOL    HW1 5356  12.469   7.928   6.149
 1153SOL    HW2 5357  12.357   8.018   6.101
 1154SOL     OW 5358   7.631   7.917   0.349
 1154SOL    HW1 5359   7.562   7.880   0.404
 1154SOL    HW2 5360   7.621   7.875   0.264
 1155SOL     OW 5361  11.399   9.524   9.890
 1155SOL    HW1 5362  11.309   9.509   9.863
 1155SOL    HW2 5363  11.428   9.599   9.838
 1156SOL     OW 5364  12.923  12.110  10.832
 1156SOL    HW1 5365  12.870  12.065  10.766
 1156SOL    HW2 5366  12.859  12.150  10.891
 1157SOL     OW 5367   7.553   7.487   0.250
 1157SOL    HW1 5368   7.639   7.485   0.293
 1157SOL    HW2 5369   7.569   7.451   0.163
 1158SOL     OW 5370   5.757   7.769   3.697
 1158SOL    HW1 5371   5.696   7.788   3.626
 1158SOL    HW2 5372   5.701   7.752   3.773
 1159SOL     OW 5373   3.124   7.662  14.442
 1159SOL    HW1 5374   3.039   7.698  14.469
 1159SOL    HW2 5375   3.104   7.572  14.414
 1160SOL     OW 5376  12.653  14.231   8.986
 1160SOL    HW1 5377  12.740  14.252   9.021
 1160SOL    HW2 5378  12.669  14.155   8.929
 1161SOL     OW 5379   3.357   2.955  11.284
 1161SOL    HW1 5380   3.430   2.896  11.264
 1161SOL    HW2 5381   3.385   3.040  11.249
 1162SOL     OW 5382   2.762  13.712   9.024
 1162SOL    HW1 5383   2.800  13.724   9.111
 1162SOL    HW2 5384   2.715  13.629   9.030
 1163SOL     OW 5385   1.545   6.931   6.688
 1163SOL    HW1 5386   1.473   6.943   6.626
 1163SOL    HW2 5387   1.507   6.951   6.774
 1164SOL     OW 5388  11.247   1.606  11.266
 1164SOL    HW1 5389  11.268   1.513  11.260
 1164SOL    HW2 5390  11.332   1.650  11.276
 1165SOL     OW 5391   5.526   8.991  11.386
 1165SOL    HW1 5392   5.482   8.977  11.302
 1165SOL    HW2 5393   5.502   9.081  11.411
 1166SOL     OW 5394   4.626  10.130   8.620
 1166SOL    HW1 5395   4.577  10.203   8.656
 1166SOL    HW2 5396   4.685  10.103   8.690
 1167SOL     OW 5397   2.642   5.308   6.098
 1167SOL    HW1 5398   2.573   5.313   6.032
 1167SOL    HW2 5399   2.652   5.398   6.129
 1168SOL     OW 5400   2.073  11.118   6.593
 1168SOL    HW1 5401   1.994  11.164   6.621
 1168SOL    HW2 5402   2.143  11.183   6.599
 1169SOL     OW 5403  14.555   6.315   9.265
 1169SOL    HW1 5404  14.614   6.288   9.195
 1169SOL    HW2 5405  14.575   6.408   9.279
 1170SOL     OW 5406  13.638   7.910  12.922
 1170SOL    HW1 5407  13.662   7.999  12.947
 1170SOL    HW2 5408  13.552   7.918  12.881
 1171SOL     OW 5409   5.533   0.143   8.615
 1171SOL    HW1 5410   5.534   0.047   8.627
 1171SOL    HW2 5411   5.626   0.167   8.611
 1172SOL     OW 5412  12.567  13.874   5.676
 1172SOL    HW1 5413  12.606  13.813   5.613
 1172SOL    HW2 5414  12.628  13.948   5.677
 1173SOL     OW 5415   3.824   1.989  12.044
 1173SOL    HW1 5416   3.794   2.052  12.110
 1173SOL    HW2 5417   3.752   1.927  12.035
 1174SOL     OW 5418   9.262  12.154  10.047
 1174SOL    HW1 5419   9.231  12.214   9.979
 1174SOL    HW2 5420   9.317  12.208  10.103
 1175SOL     OW 5421  12.576   8.812  12.090
 1175SOL    HW1 5422  12.486   8.829  12.117
 1175SOL    HW2 5423  12.628   8.825  12.170
 1176SOL     OW 5424  11.464   9.548   4.524
 1176SOL    HW1 5425  11.517   9.477   4.560
 1176SOL    HW2 5426  11.496   9.558   4.434
 1177SOL     OW 5427   8.611   8.951   1.052
 1177SOL    HW1 5428   8.671   8.933   1.124
 1177SOL    HW2 5429   8.524   8.938   1.090
 1178SOL     OW 5430   1.083   6.805   1.616
 1178SOL    HW1 5431   1.089   6.879   1.556
 1178SOL    HW2 5432   1.153   6.746   1.587
 1179SOL     OW 5433   4.024   9.919   2.995
 1179SOL    HW1 5434   4.002   9.916   3.088
 1179SOL    HW2 5435   4.052   9.829   2.974
 1180SOL     OW 5436  10.601   0.248   0.760
 1180SOL    HW1 5437  10.563   0.163   0.782
 1180SOL    HW2 5438  10.530   0.296   0.716
 1181SOL     OW 5439  11.781   5.987  12.466
 1181SOL    HW1 5440  11.734   6.069  12.449
 1181SOL    HW2 5441  11.733   5.921  12.416
 1182SOL     OW 5442   3.325   5.361   8.077
 1182SOL    HW1 5443   3.261   5.295   8.101
 1182SOL    HW2 5444   3.356   5.396   8.161
 1183SOL     OW 5445   1.084   9.134   5.203
 1183SOL    HW1 5446   1.020   9.083   5.253
 1183SOL    HW2 5447   1.128   9.188   5.269
 1184SOL     OW 5448   1.095   8.695  10.294
 1184SOL    HW1 5449   1.153   8.770  10.308
 1184SOL    HW2 5450   1.085   8.689  10.199
 1185SOL     OW 5451  11.856  13.787   5.454
 1185SOL    HW1 5452  11.828  13.878   5.452
 1185SOL    HW2 5453  11.932  13.784   5.397
 1186SOL     OW 5454   4.939  10.450  11.805
 1186SOL    HW1 5455   4.865  10.440  11.745
 1186SOL    HW2 5456   4.949  10.363  11.844
 1187SOL     OW 5457   2.905   7.413   2.274
 1187SOL    HW1 5458   2.853   7.492   2.289
 1187SOL    HW2 5459   2.982   7.424   2.329
 1188SOL     OW 5460   2.894   3.666   2.953
 1188SOL    HW1 5461   2.822   3.643   3.013
 1188SOL    HW2 5462   2.922   3.753   2.982
 1189SOL     OW 5463  12.044  12.377  14.195
 1189SOL    HW1 5464  12.060  12.462  14.152
 1189SOL    HW2 5465  12.074  12.389  14.285
 1190SOL     OW 5466  12.958  10.872   2.233
 1190SOL    HW1 5467  13.012  10.861   2.312
 1190SOL    HW2 5468  12.934  10.965   2.233
 1191SOL     OW 5469  14.456   8.652   2.331
 1191SOL    HW1 5470  14.391   8.676   2.265
 1191SOL    HW2 5471  14.458   8.728   2.390
 1192SOL     OW 5472   3.691   6.671   4.295
 1192SOL    HW1 5473   3.686   6.646   4.203
 1192SOL    HW2 5474   3.664   6.592   4.343
 1193SOL     OW 5475   4.208   9.709   5.803
 1193SOL    HW1 5476   4.176   9.621   5.784
 1193SOL    HW2 5477   4.132   9.754   5.842
 1194SOL     OW 5478   0.291   2.143   2.718
 1194SOL    HW1 5479   0.341   2.079   2.667
 1194SOL    HW2 5480   0.258   2.205   2.653
 1195SOL     OW 5481   3.870   3.581   7.812
 1195SOL    HW1 5482   3.964   3.568   7.802
 1195SOL    HW2 5483   3.860   3.632   7.892
 1196SOL     OW 5484   1.087   5.766  14.465
 1196SOL    HW1 5485   1.025   5.693  14.462
 1196SOL    HW2 5486   1.044   5.833  14.519
 1197SOL     OW 5487   0.480  13.483   0.156
 1197SOL    HW1 5488   0.387  13.470   0.175
 1197SOL    HW2 5489   0.523  13.482   0.241
 1198SOL     OW 5490   8.625   1.788   8.371
 1198SOL    HW1 5491   8.668   1.853   8.315
 1198SOL    HW2 5492   8.634   1.823   8.460
 1199SOL     OW 5493   4.238   3.316   1.572
 1199SOL    HW1 5494   4.332   3.299   1.576
 1199SOL    HW2 5495   4.230   3.389   1.510
 1200SOL     OW 5496   2.159   3.269   2.982
 1200SOL    HW1 5497   2.191   3.355   3.010
 1200SOL    HW2 5498   2.166   3.271   2.887
 1201SOL     OW 5499  10.312   4.546  14.471
 1201SOL    HW1 5500  10.303   4.552  14.566
 1201SOL    HW2 5501  10.311   4.636  14.440
 1202SOL     OW 5502  14.327   1.878   3.367
 1202SOL    HW1 5503  14.287   1.882   3.280
 1202SOL    HW2 5504  14.289   1.952   3.415
 1203SOL     OW 5505  14.370  10.220   0.607
 1203SOL    HW1 5506  14.421  10.231   0.687
 1203SOL    HW2 5507  14.436  10.208   0.538
 1204SOL     OW 5508  11.707  14.276   5.181
 1204SOL    HW1 5509  11.711  14.330   5.102
 1204SOL    HW2 5510  11.788  14.225   5.179
 1205SOL     OW 5511  10.672   5.739   6.257
 1205SOL    HW1 5512  10.603   5.728   6.323
 1205SOL    HW2 5513  10.665   5.660   6.203
 1206SOL     OW 5514   7.688   1.727   3.263
 1206SOL    HW1 5515   7.773   1.760   3.233
 1206SOL    HW2 5516   7.647   1.802   3.305
 1207SOL     OW 5517   7.597   8.583   5.484
 1207SOL    HW1 5518   7.532   8.640   5.523
 1207SOL    HW2 5519   7.680   8.629   5.497
 1208SOL     OW 5520   7.609   2.673  14.705
 1208SOL    HW1 5521   7.580   2.640  14.790
 1208SOL    HW2 5522   7.633   2.595  14.656
 1209SOL     OW 5523  14.822   2.680  12.359
 1209SOL    HW1 5524  14.815   2.585  12.369
 1209SOL    HW2 5525  14.820   2.714  12.449
 1210SOL     OW 5526   9.291  13.545  13.021
 1210SOL    HW1 5527   9.223  13.580  12.963
 1210SOL    HW2 5528   9.372  13.557  12.973
 1211SOL     OW 5529   2.734   2.330   6.030
 1211SOL    HW1 5530   2.759   2.246   5.992
 1211SOL    HW2 5531   2.680   2.372   5.964
 1212SOL     OW 5532   4.538  12.153   3.647
 1212SOL    HW1 5533   4.626  12.182   3.620
 1212SOL    HW2 5534   4.511  12.216   3.714
 1213SOL     OW 5535  10.972   7.771   0.941
 1213SOL    HW1 5536  10.982   7.857   0.983
 1213SOL    HW2 5537  10.891   7.779   0.890
 1214SOL     OW 5538   8.241  11.549   0.502
 1214SOL    HW1 5539   8.309  11.491   0.467
 1214SOL    HW2 5540   8.248  11.629   0.451
 1215SOL     OW 5541  10.740   2.538   6.412
 1215SOL    HW1 5542  10.791   2.460   6.394
 1215SOL    HW2 5543  10.659   2.526   6.363
 1216SOL     OW 5544   9.370   4.064  14.304
 1216SOL    HW1 5545   9.394   4.095  14.217
 1216SOL    HW2 5546   9.306   3.995  14.287
 1217SOL     OW 5547   4.660   5.856   6.176
 1217SOL    HW1 5548   4.578   5.860   6.127
 1217SOL    HW2 5549   4.728   5.865   6.109
 1218SOL     OW 5550   6.801  14.284   5.991
 1218SOL    HW1 5551   6.852  14.268   6.070
 1218SOL    HW2 5552   6.822  14.210   5.934
 1219SOL     OW 5553   0.262  10.987   1.756
 1219SOL    HW1 5554   0.352  11.003   1.727
 1219SOL    HW2 5555   0.222  10.937   1.684
 1220SOL     OW 5556  10.036   6.266   9.844
 1220SOL    HW1 5557  10.008   6.321   9.771
 1220SOL    HW2 5558  10.022   6.176   9.814
 1221SOL     OW 5559  13.382   7.826   4.563
 1221SOL    HW1 5560  13.469   7.862   4.545
 1221SOL    HW2 5561  13.390   7.784   4.649
 1222SOL     OW 5562   4.996  10.710   8.779
 1222SOL    HW1 5563   5.061  10.692   8.711
 1222SOL    HW2 5564   5.048  10.717   8.860
 1223SOL     OW 5565  14.267   2.954  13.147
 1223SOL    HW1 5566  14.212   2.982  13.220
 1223SOL    HW2 5567  14.351   2.931  13.187
 1224SOL     OW 5568   6.007   0.626  13.849
 1224SOL    HW1 5569   5.949   0.676  13.906
 1224SOL    HW2 5570   5.957   0.614  13.768
 1225SOL     OW 5571   9.746  14.017   9.727
 1225SOL    HW1 5572   9.681  14.039   9.792
 1225SOL    HW2 5573   9.723  13.928   9.699
 1226SOL     OW 5574   5.817  14.596   1.970
 1226SOL    HW1 5575   5.871  14.577   2.047
 1226SOL    HW2 5576   5.857  14.545   1.900
 1227SOL     OW 5577  12.074   8.752   2.352
 1227SOL    HW1 5578  12.029   8.668   2.357
 1227SOL    HW2 5579  12.007   8.814   2.325
 1228SOL     OW 5580   1.722  12.367  12.978
 1228SOL    HW1 5581   1.648  12.403  13.027
 1228SOL    HW2 5582   1.718  12.410  12.892
 1229SOL     OW 5583   0.752   5.928   3.537
 1229SOL    HW1 5584   0.799   5.923   3.454
 1229SOL    HW2 5585   0.690   5.855   3.534
 1230SOL     OW 5586  13.780  10.714   1.382
 1230SOL    HW1 5587  13.823  10.789   1.423
 1230SOL    HW2 5588  13.697  10.750   1.349
 1231SOL     OW 5589   1.111  12.994   7.503
 1231SOL    HW1 5590   1.053  13.068   7.490
 1231SOL    HW2 5591   1.186  13.012   7.445
 1232SOL     OW 5592   0.023   8.825   3.660
 1232SOL    HW1 5593  14.803   8.800   3.648
 1232SOL    HW2 5594   0.043   8.880   3.584
 1233SOL     OW 5595   6.986   5.467   6.683
 1233SOL    HW1 5596   6.925   5.540   6.672
 1233SOL    HW2 5597   7.012   5.444   6.594
 1234SOL     OW 5598   4.438  11.672  13.365
 1234SOL    HW1 5599   4.448  11.650  13.272
 1234SOL    HW2 5600   4.493  11.608  13.410
 1235SOL     OW 5601  10.186  13.197   8.125
 1235SOL    HW1 5602  10.178  13.119   8.070
 1235SOL    HW2 5603  10.265  13.182   8.176
 1236SOL     OW 5604   2.446   0.470  11.645
 1236SOL    HW1 5605   2.360   0.435  11.670
 1236SOL    HW2 5606   2.502   0.393  11.639
 1237SOL     OW 5607   7.962   9.289  14.633
 1237SOL    HW1 5608   7.942   9.343  14.709
 1237SOL    HW2 5609   8.058   9.293  14.626
 1238SOL     OW 5610   6.367   1.014  13.808
 1238SOL    HW1 5611   6.460   0.996  13.790
 1238SOL    HW2 5612   6.368   1.087  13.870
 1239SOL     OW 5613   9.857   7.627  14.129
 1239SOL    HW1 5614   9.767   7.595  14.123
 1239SOL    HW2 5615   9.851   7.705  14.184
 1240SOL     OW 5616   2.799   7.657   7.491
 1240SOL    HW1 5617   2.882   7.687   7.453
 1240SOL    HW2 5618   2.793   7.704   7.574
 1241SOL     OW 5619   5.076   8.866   2.404
 1241SOL    HW1 5620   5.064   8.814   2.484
 1241SOL    HW2 5621   4.997   8.919   2.398
 1242SOL     OW 5622  13.450   7.761  14.147
 1242SOL    HW1 5623  13.442   7.751  14.053
 1242SOL    HW2 5624  13.520   7.826  14.159
 1243SOL     OW 5625   9.912   3.294   4.450
 1243SOL    HW1 5626   9.934   3.386   4.439
 1243SOL    HW2 5627   9.981   3.246   4.405
 1244SOL     OW 5628  11.343   7.583   7.413
 1244SOL    HW1 5629  11.251   7.556   7.422
 1244SOL    HW2 5630  11.354   7.599   7.320
 1245SOL     OW 5631   3.113  10.221   7.848
 1245SOL    HW1 5632   3.204  10.249   7.860
 1245SOL    HW2 5633   3.061  10.296   7.875
 1246SOL     OW 5634   2.054  14.714   8.073
 1246SOL    HW1 5635   1.982  14.751   8.022
 1246SOL    HW2 5636   2.046  14.755   8.159
 1247SOL     OW 5637   4.767   6.971   6.451
 1247SOL    HW1 5638   4.769   6.994   6.543
 1247SOL    HW2 5639   4.737   7.050   6.406
 1248SOL     OW 5640   0.539   0.811   0.372
 1248SOL    HW1 5641   0.452   0.791   0.408
 1248SOL    HW2 5642   0.523   0.879   0.306
 1249SOL     OW 5643   0.886   4.275   7.486
 1249SOL    HW1 5644   0.801   4.233   7.494
 1249SOL    HW2 5645   0.883   4.322   7.403
 1250SOL     OW 5646  14.313   0.317  13.350
 1250SOL    HW1 5647  14.268   0.384  13.298
 1250SOL    HW2 5648  14.325   0.359  13.436
 1251SOL     OW 5649   7.041   4.812   9.953
 1251SOL    HW1 5650   7.106   4.812   9.883
 1251SOL    HW2 5651   7.025   4.905   9.970
 1252SOL     OW 5652   1.120   4.713   1.756
 1252SOL    HW1 5653   1.032   4.692   1.790
 1252SOL    HW2 5654   1.109   4.799   1.715
 1253SOL     OW 5655   8.846   1.806  13.622
 1253SOL    HW1 5656   8.841   1.764  13.708
 1253SOL    HW2 5657   8.910   1.755  13.574
 1254SOL     OW 5658   6.187  10.780   9.796
 1254SOL    HW1 5659   6.142  10.740   9.871
 1254SOL    HW2 5660   6.214  10.705   9.743
 1255SOL     OW 5661   1.016   8.182   7.432
 1255SOL    HW1 5662   1.061   8.265   7.448
 1255SOL    HW2 5663   1.009   8.176   7.336
 1256SOL     OW 5664   3.734   5.620   3.011
 1256SOL    HW1 5665   3.710   5.712   2.999
 1256SOL    HW2 5666   3.673   5.572   2.955
 1257SOL     OW 5667   8.431   7.512   8.049
 1257SOL    HW1 5668   8.476   7.595   8.041
 1257SOL    HW2 5669   8.348   7.524   8.002
 1258SOL     OW 5670   3.283   1.508  10.653
 1258SOL    HW1 5671   3.276   1.425  10.701
 1258SOL    HW2 5672   3.353   1.493  10.590
 1259SOL     OW 5673  13.256   6.363   0.105
 1259SOL    HW1 5674  13.185   6.410   0.149
 1259SOL    HW2 5675  13.237   6.271   0.122
 1260SOL     OW 5676   1.235   6.721  13.215
 1260SOL    HW1 5677   1.283   6.646  13.249
 1260SOL    HW2 5678   1.158   6.728  13.272
 1261SOL     OW 5679   1.291   2.615   0.999
 1261SOL    HW1 5680   1.338   2.542   0.958
 1261SOL    HW2 5681   1.343   2.636   1.077
 1262SOL     OW 5682   3.769   1.177  12.485
 1262SOL    HW1 5683   3.704   1.114  12.514
 1262SOL    HW2 5684   3.788   1.153  12.394
 1263SOL     OW 5685   3.891  12.524   9.386
 1263SOL    HW1 5686   3.940  12.604   9.365
 1263SOL    HW2 5687   3.956  12.454   9.380
 1264SOL     OW 5688   7.667  10.799   2.813
 1264SOL    HW1 5689   7.755  10.794   2.851
 1264SOL    HW2 5690   7.679  10.840   2.728
 1265SOL     OW 5691   5.051   0.078   4.709
 1265SOL    HW1 5692   5.014   0.070   4.621
 1265SOL    HW2 5693   4.989   0.030   4.765
 1266SOL     OW 5694   8.684   0.048   6.453
 1266SOL    HW1 5695   8.731   0.025   6.373
 1266SOL    HW2 5696   8.598   0.007   6.443
 1267SOL     OW 5697  14.168  14.814  12.250
 1267SOL    HW1 5698  14.072  14.819  12.255
 1267SOL    HW2 5699  14.198   0.032  12.263
 1268SOL     OW 5700   5.567   5.664   2.399
 1268SOL    HW1 5701   5.536   5.614   2.474
 1268SOL    HW2 5702   5.627   5.729   2.436
 1269SOL     OW 5703  13.211  11.222   9.839
 1269SOL    HW1 5704  13.235  11.270   9.918
 1269SOL    HW2 5705  13.248  11.134   9.852
 1270SOL     OW 5706   2.530  12.906  11.717
 1270SOL    HW1 5707   2.542  12.845  11.645
 1270SOL    HW2 5708   2.597  12.882  11.781
 1271SOL     OW 5709  13.141   8.349  14.437
 1271SOL    HW1 5710  13.120   8.267  14.481
 1271SOL    HW2 5711  13.161   8.324  14.347
 1272SOL     OW 5712   1.387   9.853  10.059
 1272SOL    HW1 5713   1.331   9.778  10.078
 1272SOL    HW2 5714   1.342   9.928  10.097
 1273SOL     OW 5715   8.877   1.644  14.856
 1273SOL    HW1 5716   8.886   1.709   0.055
 1273SOL    HW2 5717   8.827   1.689  14.788
 1274SOL     OW 5718   0.804   6.167  12.586
 1274SOL    HW1 5719   0.790   6.169  12.492
 1274SOL    HW2 5720   0.896   6.191  12.598
 1275SOL     OW 5721   2.407   9.228   1.706
 1275SOL    HW1 5722   2.434   9.240   1.797
 1275SOL    HW2 5723   2.312   9.216   1.711
 1276SOL     OW 5724   6.548   1.007   3.825
 1276SOL    HW1 5725   6.500   1.001   3.908
 1276SOL    HW2 5726   6.482   0.990   3.758
 1277SOL     OW 5727   6.388   6.481  14.630
 1277SOL    HW1 5728   6.455   6.543  14.660
 1277SOL    HW2 5729   6.437   6.414  14.583
 1278SOL     OW 5730  11.247  12.463   6.951
 1278SOL    HW1 5731  11.247  12.505   6.865
 1278SOL    HW2 5732  11.162  12.420   6.957
 1279SOL     OW 5733   2.603   4.519   2.049
 1279SOL    HW1 5734   2.654   4.468   1.986
 1279SOL    HW2 5735   2.636   4.492   2.134
 1280SOL     OW 5736  13.919  10.394   6.748
 1280SOL    HW1 5737  13.874  10.343   6.816
 1280SOL    HW2 5738  13.892  10.353   6.666
 1281SOL     OW 5739   3.748   0.844   4.175
 1281SOL    HW1 5740   3.710   0.882   4.254
 1281SOL    HW2 5741   3.841   0.867   4.180
 1282SOL     OW 5742  10.431   2.779  13.800
 1282SOL    HW1 5743  10.399   2.689  13.796
 1282SOL    HW2 5744  10.359   2.829  13.837
 1283SOL     OW 5745  14.356   9.510  14.813
 1283SOL    HW1 5746  14.420   9.462  14.864
 1283SOL    HW2 5747  14.409   9.568  14.757
 1284SOL     OW 5748  12.682   8.813  14.853
 1284SOL    HW1 5749  12.672   8.783   0.072
 1284SOL    HW2 5750  12.773   8.796  14.832
 1285SOL     OW 5751  10.540   9.248  10.674
 1285SOL    HW1 5752  10.512   9.333  10.707
 1285SOL    HW2 5753  10.481   9.229  10.601
 1286SOL     OW 5754   1.297   7.800  12.449
 1286SOL    HW1 5755   1.388   7.789  12.476
 1286SOL    HW2 5756   1.294   7.889  12.414
 1287SOL     OW 5757   5.983   8.330   3.215
 1287SOL    HW1 5758   6.029   8.348   3.298
 1287SOL    HW2 5759   6.039   8.267   3.170
 1288SOL     OW 5760   9.302  13.493   9.188
 1288SOL    HW1 5761   9.354  13.528   9.260
 1288SOL    HW2 5762   9.361  13.494   9.113
 1289SOL     OW 5763   8.346  10.807   2.703
 1289SOL    HW1 5764   8.374  10.715   2.702
 1289SOL    HW2 5765   8.364  10.836   2.792
 1290SOL     OW 5766  12.903  12.906  11.516
 1290SOL    HW1 5767  12.810  12.891  11.530
 1290SOL    HW2 5768  12.907  12.978  11.453
 1291SOL     OW 5769   3.985   6.341   9.962
 1291SOL    HW1 5770   3.928   6.337  10.038
 1291SOL    HW2 5771   3.929   6.318   9.888
 1292SOL     OW 5772  11.518  13.446   3.784
 1292SOL    HW1 5773  11.459  13.403   3.846
 1292SOL    HW2 5774  11.476  13.435   3.699
 1293SOL     OW 5775   0.999   2.089  11.751
 1293SOL    HW1 5776   1.017   2.026  11.681
 1293SOL    HW2 5777   1.061   2.065  11.821
 1294SOL     OW 5778   8.913  10.439  13.067
 1294SOL    HW1 5779   8.834  10.470  13.023
 1294SOL    HW2 5780   8.927  10.503  13.138
 1295SOL     OW 5781   5.047   7.415  13.079
 1295SOL    HW1 5782   4.991   7.343  13.108
 1295SOL    HW2 5783   5.090   7.383  13.000
 1296SOL     OW 5784   7.328  14.020  14.360
 1296SOL    HW1 5785   7.257  14.073  14.395
 1296SOL    HW2 5786   7.303  14.003  14.269
 1297SOL     OW 5787   8.254   4.448   6.480
 1297SOL    HW1 5788   8.254   4.537   6.517
 1297SOL    HW2 5789   8.210   4.457   6.395
 1298SOL     OW 5790   8.055  11.952   5.053
 1298SOL    HW1 5791   8.044  12.022   4.989
 1298SOL    HW2 5792   8.052  11.996   5.138
 1299SOL     OW 5793   1.835   8.720   1.003
 1299SOL    HW1 5794   1.855   8.711   0.910
 1299SOL    HW2 5795   1.803   8.810   1.013
 1300SOL     OW 5796  13.752   1.247   4.282
 1300SOL    HW1 5797  13.740   1.292   4.366
 1300SOL    HW2 5798  13.741   1.154   4.302
 1301SOL     OW 5799  13.888  12.194   5.551
 1301SOL    HW1 5800  13.855  12.120   5.499
 1301SOL    HW2 5801  13.891  12.160   5.641
 1302SOL     OW 5802   7.225   4.177   5.966
 1302SOL    HW1 5803   7.178   4.094   5.956
 1302SOL    HW2 5804   7.165   4.242   5.928
 1303SOL     OW 5805  13.437   2.283   3.728
 1303SOL    HW1 5806  13.455   2.201   3.681
 1303SOL    HW2 5807  13.341   2.290   3.727
 1304SOL     OW 5808   0.145  13.585   1.757
 1304SOL    HW1 5809   0.179  13.523   1.692
 1304SOL    HW2 5810   0.182  13.555   1.840
 1305SOL     OW 5811   8.945   1.616   0.693
 1305SOL    HW1 5812   8.879   1.658   0.749
 1305SOL    HW2 5813   8.960   1.531   0.734
 1306SOL     OW 5814   1.416   9.003   1.538
 1306SOL    HW1 5815   1.337   9.034   1.494
 1306SOL    HW2 5816   1.399   8.910   1.555
 1307SOL     OW 5817   9.972   0.530  13.310
 1307SOL    HW1 5818   9.923   0.447  13.306
 1307SOL    HW2 5819   9.905   0.596  13.328
 1308SOL     OW 5820  11.055   8.289  13.752
 1308SOL    HW1 5821  11.099   8.359  13.703
 1308SOL    HW2 5822  11.090   8.209  13.713
 1309SOL     OW 5823   9.008  14.832   8.187
 1309SOL    HW1 5824   8.961   0.037   8.221
 1309SOL    HW2 5825   8.938  14.772   8.160
 1310SOL     OW 5826   3.224   2.782   7.660
 1310SOL    HW1 5827   3.192   2.722   7.727
 1310SOL    HW2 5828   3.317   2.761   7.651
 1311SOL     OW 5829   9.952   0.939   1.274
 1311SOL    HW1 5830   9.928   0.997   1.202
 1311SOL    HW2 5831   9.910   0.855   1.253
 1312SOL     OW 5832   9.951   6.927   8.515
 1312SOL    HW1 5833   9.920   7.005   8.468
 1312SOL    HW2 5834   9.971   6.959   8.603
 1313SOL     OW 5835   6.460   9.039   2.710
 1313SOL    HW1 5836   6.425   9.081   2.631
 1313SOL    HW2 5837   6.442   8.946   2.697
 1314SOL     OW 5838  14.797   6.609   3.433
 1314SOL    HW1 5839  14.842   6.631   3.351
 1314SOL    HW2 5840  14.793   6.691   3.481
 1315SOL     OW 5841  14.423  14.032   9.232
 1315SOL    HW1 5842  14.421  13.940   9.260
 1315SOL    HW2 5843  14.349  14.040   9.172
 1316SOL     OW 5844   2.298  13.276  12.770
 1316SOL    HW1 5845   2.356  13.258  12.844
 1316SOL    HW2 5846   2.265  13.190  12.743
 1317SOL     OW 5847   4.715   6.508  14.364
 1317SOL    HW1 5848   4.712   6.597  14.330
 1317SOL    HW2 5849   4.800   6.501  14.407
 1318SOL     OW 5850  11.652  10.159   3.771
 1318SOL    HW1 5851  11.562  10.179   3.742
 1318SOL    HW2 5852  11.665  10.217   3.846
 1319SOL     OW 5853  14.178   3.234   4.877
 1319SOL    HW1 5854  14.144   3.306   4.931
 1319SOL    HW2 5855  14.103   3.175   4.867
 1320SOL     OW 5856  11.815   9.046  11.260
 1320SOL    HW1 5857  11.866   9.054  11.179
 1320SOL    HW2 5858  11.735   9.096  11.243
 1321SOL     OW 5859   2.275   9.613   7.525
 1321SOL    HW1 5860   2.281   9.538   7.465
 1321SOL    HW2 5861   2.285   9.575   7.612
 1322SOL     OW 5862  14.532  14.627   7.991
 1322SOL    HW1 5863  14.613  14.576   7.988
 1322SOL    HW2 5864  14.463  14.563   7.977
 1323SOL     OW 5865   1.746  10.439   3.474
 1323SOL    HW1 5866   1.766  10.436   3.568
 1323SOL    HW2 5867   1.655  10.470   3.470
 1324SOL     OW 5868   9.229   8.970  13.530
 1324SOL    HW1 5869   9.194   8.881  13.526
 1324SOL    HW2 5870   9.203   9.010  13.447
 1325SOL     OW 5871  11.594   6.885   4.962
 1325SOL    HW1 5872  11.624   6.975   4.955
 1325SOL    HW2 5873  11.674   6.832   4.965
 1326SOL     OW 5874  13.199   2.671   2.840
 1326SOL    HW1 5875  13.104   2.667   2.841
 1326SOL    HW2 5876  13.226   2.600   2.782
 1327SOL     OW 5877   8.644  11.324  10.746
 1327SOL    HW1 5878   8.670  11.242  10.704
 1327SOL    HW2 5879   8.583  11.364  10.684
 1328SOL     OW 5880   5.181  13.395  12.504
 1328SOL    HW1 5881   5.217  13.338  12.436
 1328SOL    HW2 5882   5.093  13.360  12.521
 1329SOL     OW 5883  11.618   6.293   9.933
 1329SOL    HW1 5884  11.619   6.368   9.993
 1329SOL    HW2 5885  11.642   6.218   9.988
 1330SOL     OW 5886   5.985  10.370   8.476
 1330SOL    HW1 5887   6.051  10.349   8.542
 1330SOL    HW2 5888   5.948  10.286   8.451
 1331SOL     OW 5889  11.320   2.686  13.371
 1331SOL    HW1 5890  11.291   2.721  13.287
 1331SOL    HW2 5891  11.267   2.607  13.383
 1332SOL     OW 5892   2.665   3.551   0.259
 1332SOL    HW1 5893   2.707   3.483   0.207
 1332SOL    HW2 5894   2.689   3.633   0.215
 1333SOL     OW 5895   0.921  14.452   0.318
 1333SOL    HW1 5896   0.864  14.512   0.270
 1333SOL    HW2 5897   0.869  14.372   0.327
 1334SOL     OW 5898  14.856   3.801  10.440
 1334SOL    HW1 5899  14.792   3.872  10.446
 1334SOL    HW2 5900   0.046   3.819  10.511
 1335SOL     OW 5901  10.311  10.715   9.467
 1335SOL    HW1 5902  10.248  10.760   9.411
 1335SOL    HW2 5903  10.322  10.773   9.543
 1336SOL     OW 5904  11.145   7.139   4.096
 1336SOL    HW1 5905  11.103   7.187   4.025
 1336SOL    HW2 5906  11.114   7.049   4.085
 1337SOL     OW 5907  13.546  13.099   2.468
 1337SOL    HW1 5908  13.473  13.057   2.513
 1337SOL    HW2 5909  13.569  13.039   2.397
 1338SOL     OW 5910  13.173   5.917   7.207
 1338SOL    HW1 5911  13.220   5.864   7.271
 1338SOL    HW2 5912  13.094   5.867   7.187
 1339SOL     OW 5913  14.525  12.845   6.070
 1339SOL    HW1 5914  14.525  12.895   5.988
 1339SOL    HW2 5915  14.503  12.756   6.043
 1340SOL     OW 5916  11.807   5.235   4.267
 1340SOL    HW1 5917  11.809   5.323   4.230
 1340SOL    HW2 5918  11.881   5.190   4.227
 1341SOL     OW 5919   6.086   8.809   3.861
 1341SOL    HW1 5920   6.109   8.765   3.942
 1341SOL    HW2 5921   6.162   8.795   3.804
 1342SOL     OW 5922   0.715  12.666  13.661
 1342SOL    HW1 5923   0.650  12.597  13.649
 1342SOL    HW2 5924   0.799  12.619  13.663
 1343SOL     OW 5925   1.195   4.166   8.160
 1343SOL    HW1 5926   1.196   4.193   8.252
 1343SOL    HW2 5927   1.193   4.070   8.164
 1344SOL     OW 5928  10.672  12.582  14.410
 1344SOL    HW1 5929  10.651  12.664  14.454
 1344SOL    HW2 5930  10.604  12.573  14.343
 1345SOL     OW 5931   0.074   0.643   1.398
 1345SOL    HW1 5932   0.048   0.725   1.438
 1345SOL    HW2 5933   0.052   0.652   1.305
 1346SOL     OW 5934   6.932  12.436   9.964
 1346SOL    HW1 5935   6.903  12.526   9.946
 1346SOL    HW2 5936   6.850  12.388   9.980
 1347SOL     OW 5937   4.889   1.260   8.672
 1347SOL    HW1 5938   4.809   1.230   8.714
 1347SOL    HW2 5939   4.890   1.215   8.587
 1348SOL     OW 5940   2.196   0.463  13.638
 1348SOL    HW1 5941   2.128   0.400  13.662
 1348SOL    HW2 5942   2.156   0.548  13.654
 1349SOL     OW 5943   1.927   5.051  10.665
 1349SOL    HW1 5944   1.916   5.146  10.655
 1349SOL    HW2 5945   1.893   5.032  10.752
 1350SOL     OW 5946   9.772   0.532   2.305
 1350SOL    HW1 5947   9.817   0.601   2.354
 1350SOL    HW2 5948   9.772   0.457   2.364
 1351SOL     OW 5949   7.458  14.089   5.284
 1351SOL    HW1 5950   7.545  14.109   5.251
 1351SOL    HW2 5951   7.399  14.144   5.232
 1352SOL     OW 5952  11.551   0.817  10.838
 1352SOL    HW1 5953  11.484   0.865  10.789
 1352SOL    HW2 5954  11.563   0.736  10.788
 1353SOL     OW 5955   4.153   2.493   6.733
 1353SOL    HW1 5956   4.140   2.460   6.822
 1353SOL    HW2 5957   4.246   2.477   6.715
 1354SOL     OW 5958   3.623   8.951   6.163
 1354SOL    HW1 5959   3.564   8.980   6.232
 1354SOL    HW2 5960   3.590   8.864   6.138
 1355SOL     OW 5961  13.135   6.197  13.883
 1355SOL    HW1 5962  13.192   6.203  13.959
 1355SOL    HW2 5963  13.046   6.196  13.919
 1356SOL     OW 5964   0.868   3.199   8.810
 1356SOL    HW1 5965   0.834   3.242   8.888
 1356SOL    HW2 5966   0.879   3.107   8.836
 1357SOL     OW 5967   1.069   1.375   1.481
 1357SOL    HW1 5968   1.095   1.434   1.410
 1357SOL    HW2 5969   1.060   1.289   1.440
 1358SOL     OW 5970   7.841  13.519   8.479
 1358SOL    HW1 5971   7.862  13.436   8.437
 1358SOL    HW2 5972   7.748  13.532   8.461
 1359SOL     OW 5973  10.044   7.745   7.911
 1359SOL    HW1 5974  10.092   7.826   7.891
 1359SOL    HW2 5975  10.111   7.683   7.938
 1360SOL     OW 5976   7.158   6.289   1.581
 1360SOL    HW1 5977   7.086   6.254   1.528
 1360SOL    HW2 5978   7.139   6.382   1.589
 1361SOL     OW 5979   5.593  12.776   9.855
 1361SOL    HW1 5980   5.623  12.690   9.828
 1361SOL    HW2 5981   5.524  12.799   9.793
 1362SOL     OW 5982   0.078   2.102  13.078
 1362SOL    HW1 5983   0.100   2.108  13.171
 1362SOL    HW2 5984   0.121   2.022  13.048
 1363SOL     OW 5985   6.453   4.474   4.081
 1363SOL    HW1 5986   6.408   4.436   4.005
 1363SOL    HW2 5987   6.388   4.472   4.151
 1364SOL     OW 5988  10.021   5.933  11.243
 1364SOL    HW1 5989  10.044   6.023  11.221
 1364SOL    HW2 5990  10.088   5.879  11.201
 1365SOL     OW 5991  10.589   7.617  13.738
 1365SOL    HW1 5992  10.599   7.529  13.773
 1365SOL    HW2 5993  10.502   7.617  13.697
 1366SOL     OW 5994   6.288   3.739   3.649
 1366SOL    HW1 5995   6.297   3.704   3.737
 1366SOL    HW2 5996   6.216   3.802   3.655
 1367SOL     OW 5997   7.866   2.188   4.528
 1367SOL    HW1 5998   7.945   2.134   4.519
 1367SOL    HW2 5999   7.795   2.131   4.501
 1368SOL     OW 6000   4.415  14.208   2.151
 1368SOL    HW1 6001   4.473  14.271   2.108
 1368SOL    HW2 6002   4.354  14.181   2.082
 1369SOL     OW 6003   6.924   6.169  13.737
 1369SOL    HW1 6004   6.880   6.179  13.822
 1369SOL    HW2 6005   6.925   6.258  13.700
 1370SOL     OW 6006   1.275   9.685   4.670
 1370SOL    HW1 6007   1.186   9.667   4.640
 1370SOL    HW2 6008   1.289   9.778   4.651
 1371SOL     OW 6009   2.511   7.443   5.014
 1371SOL    HW1 6010   2.569   7.366   5.014
 1371SOL    HW2 6011   2.544   7.498   5.084
 1372SOL     OW 6012   8.348   5.671   9.000
 1372SOL    HW1 6013   8.255   5.650   8.988
 1372SOL    HW2 6014   8.380   5.604   9.060
 1373SOL     OW 6015  13.751  11.790  14.670
 1373SOL    HW1 6016  13.716  11.861  14.616
 1373SOL    HW2 6017  13.673  11.749  14.708
 1374SOL     OW 6018   6.934  12.366   5.953
 1374SOL    HW1 6019   6.870  12.313   5.904
 1374SOL    HW2 6020   7.018  12.325   5.933
 1375SOL     OW 6021   4.499   3.333   1.597
 1375SOL    HW1 6022   4.536   3.368   1.516
 1375SOL    HW2 6023   4.575   3.324   1.655
 1376SOL     OW 6024   0.262   0.826   8.209
 1376SOL    HW1 6025   0.236   0.751   8.155
 1376SOL    HW2 6026   0.186   0.842   8.265
 1377SOL     OW 6027  13.074   0.766   6.405
 1377SOL    HW1 6028  13.001   0.722   6.364
 1377SOL    HW2 6029  13.114   0.700   6.462
 1378SOL     OW 6030   3.141   9.202  13.607
 1378SOL    HW1 6031   3.220   9.157  13.579
 1378SOL    HW2 6032   3.071   9.138  13.594
 1379SOL     OW 6033   2.864  14.693   8.668
 1379SOL    HW1 6034   2.949  14.690   8.712
 1379SOL    HW2 6035   2.874  14.762   8.602
 1380SOL     OW 6036   7.115  11.117  13.088
 1380SOL    HW1 6037   7.174  11.149  13.020
 1380SOL    HW2 6038   7.031  11.159  13.069
 1381SOL     OW 6039   4.785   4.900  13.758
 1381SOL    HW1 6040   4.827   4.868  13.678
 1381SOL    HW2 6041   4.759   4.990  13.738
 1382SOL     OW 6042   7.956  11.273   5.525
 1382SOL    HW1 6043   7.875  11.266   5.576
 1382SOL    HW2 6044   8.023  11.232   5.581
 1383SOL     OW 6045   8.210   1.240   8.088
 1383SOL    HW1 6046   8.158   1.318   8.109
 1383SOL    HW2 6047   8.251   1.216   8.171
 1384SOL     OW 6048  11.390  12.582   2.922
 1384SOL    HW1 6049  11.400  12.539   3.007
 1384SOL    HW2 6050  11.318  12.644   2.935
 1385SOL     OW 6051   5.545   9.678   1.739
 1385SOL    HW1 6052   5.523   9.688   1.832
 1385SOL    HW2 6053   5.535   9.765   1.702
 1386SOL     OW 6054  13.066   3.739  12.061
 1386SOL    HW1 6055  13.012   3.660  12.052
 1386SOL    HW2 6056  13.152   3.707  12.088
 1387SOL     OW 6057   4.174  13.180  10.297
 1387SOL    HW1 6058   4.098  13.230  10.324
 1387SOL    HW2 6059   4.241  13.246  10.278
 1388SOL     OW 6060  12.457   0.522  10.473
 1388SOL    HW1 6061  12.552   0.507  10.474
 1388SOL    HW2 6062  12.448   0.617  10.461
 1389SOL     OW 6063   5.338   3.920  11.215
 1389SOL    HW1 6064   5.368   3.847  11.161
 1389SOL    HW2 6065   5.306   3.985  11.152
 1390SOL     OW 6066   9.275   6.600  12.532
 1390SOL    HW1 6067   9.283   6.682  12.581
 1390SOL    HW2 6068   9.181   6.584  12.527
 1391SOL     OW 6069  12.446   5.065   4.783
 1391SOL    HW1 6070  12.372   5.069   4.843
 1391SOL    HW2 6071  12.411   5.095   4.699
 1392SOL     OW 6072  13.519   9.553   9.523
 1392SOL    HW1 6073  13.536   9.592   9.438
 1392SOL    HW2 6074  13.467   9.475   9.504
 1393SOL     OW 6075   2.679   6.433   9.223
 1393SOL    HW1 6076   2.609   6.447   9.159
 1393SOL    HW2 6077   2.758   6.427   9.170
 1394SOL     OW 6078   0.384   4.304   7.443
 1394SOL    HW1 6079   0.325   4.333   7.373
 1394SOL    HW2 6080   0.341   4.227   7.479
 1395SOL     OW 6081  11.940   9.280  14.467
 1395SOL    HW1 6082  11.883   9.256  14.394
 1395SOL    HW2 6083  11.931   9.208  14.529
 1396SOL     OW 6084  12.168  10.306   5.898
 1396SOL    HW1 6085  12.164  10.301   5.994
 1396SOL    HW2 6086  12.148  10.218   5.868
 1397SOL     OW 6087   9.808   7.065   9.897
 1397SOL    HW1 6088   9.729   7.109   9.929
 1397SOL    HW2 6089   9.786   6.971   9.900
 1398SOL     OW 6090  11.974   2.090   7.547
 1398SOL    HW1 6091  11.910   2.160   7.560
 1398SOL    HW2 6092  11.940   2.016   7.597
 1399SOL     OW 6093  10.281   6.547   1.225
 1399SOL    HW1 6094  10.285   6.458   1.259
 1399SOL    HW2 6095  10.247   6.599   1.298
 1400SOL     OW 6096   1.306   5.040   4.751
 1400SOL    HW1 6097   1.299   5.130   4.717
 1400SOL    HW2 6098   1.391   5.010   4.720
 1401SOL     OW 6099   5.781  10.876   7.391
 1401SOL    HW1 6100   5.770  10.785   7.418
 1401SOL    HW2 6101   5.837  10.915   7.459
 1402SOL     OW 6102  13.849   4.354   8.107
 1402SOL    HW1 6103  13.897   4.421   8.059
 1402SOL    HW2 6104  13.882   4.271   8.073
 1403SOL     OW 6105   0.002   3.289   7.995
 1403SOL    HW1 6106   0.002   3.378   8.031
 1403SOL    HW2 6107  14.868   3.232   8.071
 1404SOL     OW 6108  10.227   2.396   7.098
 1404SOL    HW1 6109  10.254   2.306   7.115
 1404SOL    HW2 6110  10.262   2.415   7.011
 1405SOL     OW 6111   8.332  12.452   0.385
 1405SOL    HW1 6112   8.373  12.374   0.422
 1405SOL    HW2 6113   8.353  12.522   0.447
 1406SOL     OW 6114   7.483   6.813   0.087
 1406SOL    HW1 6115   7.531   6.804   0.005
 1406SOL    HW2 6116   7.544   6.857   0.146
 1407SOL     OW 6117  10.921   6.319   1.970
 1407SOL    HW1 6118  10.994   6.377   1.950
 1407SOL    HW2 6119  10.846   6.378   1.979
 1408SOL     OW 6120   0.862   1.720   6.585
 1408SOL    HW1 6121   0.774   1.755   6.597
 1408SOL    HW2 6122   0.849   1.636   6.541
 1409SOL     OW 6123  11.760  14.522  14.655
 1409SOL    HW1 6124  11.737  14.593  14.714
 1409SOL    HW2 6125  11.721  14.444  14.696
 1410SOL     OW 6126  12.643   9.309  11.060
 1410SOL    HW1 6127  12.620   9.293  10.968
 1410SOL    HW2 6128  12.695   9.389  11.058
 1411SOL     OW 6129   1.478   9.630   3.266
 1411SOL    HW1 6130   1.443   9.579   3.193
 1411SOL    HW2 6131   1.530   9.568   3.317
 1412SOL     OW 6132   4.153   8.058   1.989
 1412SOL    HW1 6133   4.246   8.041   1.974
 1412SOL    HW2 6134   4.134   8.136   1.938
 1413SOL     OW 6135   2.943   6.272   5.059
 1413SOL    HW1 6136   2.997   6.301   5.132
 1413SOL    HW2 6137   2.879   6.213   5.098
 1414SOL     OW 6138   1.991   3.832  13.490
 1414SOL    HW1 6139   2.084   3.813  13.475
 1414SOL    HW2 6140   1.956   3.749  13.524
 1415SOL     OW 6141   7.360  10.134   7.477
 1415SOL    HW1 6142   7.375  10.105   7.567
 1415SOL    HW2 6143   7.271  10.105   7.457
 1416SOL     OW 6144  10.968   4.633   2.688
 1416SOL    HW1 6145  10.938   4.629   2.597
 1416SOL    HW2 6146  10.954   4.724   2.714
 1417SOL     OW 6147  14.158   7.353   0.377
 1417SOL    HW1 6148  14.077   7.335   0.329
 1417SOL    HW2 6149  14.130   7.399   0.456
 1418SOL     OW 6150   6.865   0.146  14.371
 1418SOL    HW1 6151   6.796   0.097  14.325
 1418SOL    HW2 6152   6.821   0.185  14.446
 1419SOL     OW 6153   7.011   7.698   4.859
 1419SOL    HW1 6154   7.021   7.641   4.782
 1419SOL    HW2 6155   6.930   7.745   4.844
 1420SOL     OW 6156   2.384   2.170   8.311
 1420SOL    HW1 6157   2.463   2.199   8.265
 1420SOL    HW2 6158   2.415   2.102   8.371
 1421SOL     OW 6159   8.868   5.673   6.124
 1421SOL    HW1 6160   8.785   5.627   6.138
 1421SOL    HW2 6161   8.884   5.666   6.030
 1422SOL     OW 6162  13.384   8.836  11.937
 1422SOL    HW1 6163  13.417   8.905  11.880
 1422SOL    HW2 6164  13.463   8.798  11.976
 1423SOL     OW 6165   5.018   6.281  11.254
 1423SOL    HW1 6166   4.926   6.257  11.243
 1423SOL    HW2 6167   5.037   6.339  11.180
 1424SOL     OW 6168   7.345   0.982  11.743
 1424SOL    HW1 6169   7.259   0.998  11.782
 1424SOL    HW2 6170   7.383   1.069  11.731
 1425SOL     OW 6171   3.169  13.570   6.466
 1425SOL    HW1 6172   3.101  13.637   6.466
 1425SOL    HW2 6173   3.188  13.554   6.558
 1426SOL     OW 6174   4.622   9.279   8.780
 1426SOL    HW1 6175   4.645   9.286   8.687
 1426SOL    HW2 6176   4.704   9.296   8.826
 1427SOL     OW 6177  11.107   8.227   4.059
 1427SOL    HW1 6178  11.093   8.312   4.018
 1427SOL    HW2 6179  11.200   8.208   4.043
 1428SOL     OW 6180  13.122   8.784  11.950
 1428SOL    HW1 6181  13.212   8.813  11.965
 1428SOL    HW2 6182  13.069   8.841  12.006
 1429SOL     OW 6183   0.103   9.705  13.279
 1429SOL    HW1 6184   0.024   9.652  13.289
 1429SOL    HW2 6185   0.148   9.697  13.363
 1430SOL     OW 6186  10.707   2.405   7.931
 1430SOL    HW1 6187  10.724   2.415   7.838
 1430SOL    HW2 6188  10.726   2.313   7.950
 1431SOL     OW 6189   8.874   9.255   8.288
 1431SOL    HW1 6190   8.928   9.176   8.279
 1431SOL    HW2 6191   8.828   9.243   8.371
 1432SOL     OW 6192  14.234  10.536   5.526
 1432SOL    HW1 6193  14.173  10.480   5.478
 1432SOL    HW2 6194  14.179  10.607   5.560
 1433SOL     OW 6195   7.337  11.403  14.213
 1433SOL    HW1 6196   7.400  11.475  14.220
 1433SOL    HW2 6197   7.295  11.416  14.128
 1434SOL     OW 6198   4.655  14.324  13.949
 1434SOL    HW1 6199   4.631  14.407  13.989
 1434SOL    HW2 6200   4.751  14.321  13.955
 1435SOL     OW 6201  12.308  13.468  14.561
 1435SOL    HW1 6202  12.264  13.537  14.612
 1435SOL    HW2 6203  12.349  13.515  14.488
 1436SOL     OW 6204   3.884   6.205   3.542
 1436SOL    HW1 6205   3.933   6.131   3.504
 1436SOL    HW2 6206   3.950   6.273   3.554
 1437SOL     OW 6207   6.774   0.045  10.462
 1437SOL    HW1 6208   6.753   0.014  10.374
 1437SOL    HW2 6209   6.765  14.840  10.518
 1438SOL     OW 6210   9.450   9.352   5.989
 1438SOL    HW1 6211   9.463   9.291   6.062
 1438SOL    HW2 6212   9.456   9.439   6.030
 1439SOL     OW 6213   8.845   8.893   2.893
 1439SOL    HW1 6214   8.830   8.967   2.953
 1439SOL    HW2 6215   8.767   8.838   2.903
 1440SOL     OW 6216  14.665   3.674   5.106
 1440SOL    HW1 6217  14.673   3.703   5.015
 1440SOL    HW2 6218  14.594   3.728   5.142
 1441SOL     OW 6219  12.789  10.003   9.930
 1441SOL    HW1 6220  12.759  10.023  10.019
 1441SOL    HW2 6221  12.803   9.908   9.930
 1442SOL     OW 6222   0.442   8.102   8.054
 1442SOL    HW1 6223   0.455   8.012   8.083
 1442SOL    HW2 6224   0.401   8.094   7.968
 1443SOL     OW 6225  12.467   3.949   2.046
 1443SOL    HW1 6226  12.383   3.982   2.078
 1443SOL    HW2 6227  12.483   3.999   1.966
 1444SOL     OW 6228   8.025  10.838   3.395
 1444SOL    HW1 6229   8.094  10.774   3.380
 1444SOL    HW2 6230   8.067  10.910   3.442
 1445SOL     OW 6231   7.920   3.759  11.943
 1445SOL    HW1 6232   7.860   3.773  11.869
 1445SOL    HW2 6233   8.007   3.778  11.907
 1446SOL     OW 6234  13.266   2.493  13.258
 1446SOL    HW1 6235  13.196   2.495  13.193
 1446SOL    HW2 6236  13.257   2.407  13.300
 1447SOL     OW 6237  13.350   2.162  11.828
 1447SOL    HW1 6238  13.296   2.237  11.804
 1447SOL    HW2 6239  13.363   2.115  11.745
 1448SOL     OW 6240   9.085  11.007  14.241
 1448SOL    HW1 6241   9.178  11.002  14.260
 1448SOL    HW2 6242   9.080  11.054  14.157
 1449SOL     OW 6243   9.072   3.188  11.742
 1449SOL    HW1 6244   9.082   3.198  11.647
 1449SOL    HW2 6245   8.986   3.224  11.761
 1450SOL     OW 6246   3.598   3.943   2.973
 1450SOL    HW1 6247   3.505   3.923   2.964
 1450SOL    HW2 6248   3.638   3.859   2.997
 1451SOL     OW 6249   3.157   6.618   2.159
 1451SOL    HW1 6250   3.157   6.684   2.229
 1451SOL    HW2 6251   3.212   6.656   2.091
 1452SOL     OW 6252  10.585  12.060  12.965
 1452SOL    HW1 6253  10.522  12.089  12.899
 1452SOL    HW2 6254  10.630  11.986  12.924
 1453SOL     OW 6255   8.769   6.105  11.494
 1453SOL    HW1 6256   8.806   6.141  11.574
 1453SOL    HW2 6257   8.760   6.012  11.511
 1454SOL     OW 6258   0.852  10.683   7.828
 1454SOL    HW1 6259   0.809  10.765   7.805
 1454SOL    HW2 6260   0.843  10.677   7.923
 1455SOL     OW 6261  13.645   4.801   3.249
 1455SOL    HW1 6262  13.606   4.888   3.241
 1455SOL    HW2 6263  13.726   4.806   3.197
 1456SOL     OW 6264  11.180   8.100  12.792
 1456SOL    HW1 6265  11.222   8.098  12.878
 1456SOL    HW2 6266  11.186   8.010  12.760
 1457SOL     OW 6267   6.635   3.998  13.151
 1457SOL    HW1 6268   6.656   3.953  13.069
 1457SOL    HW2 6269   6.714   3.988  13.205
 1458SOL     OW 6270   0.320   8.817   8.751
 1458SOL    HW1 6271   0.389   8.883   8.738
 1458SOL    HW2 6272   0.359   8.752   8.809
 1459SOL     OW 6273   8.250  11.828  10.423
 1459SOL    HW1 6274   8.289  11.915  10.436
 1459SOL    HW2 6275   8.218  11.803  10.509
 1460SOL     OW 6276   1.542   7.764  12.144
 1460SOL    HW1 6277   1.517   7.681  12.184
 1460SOL    HW2 6278   1.603   7.804  12.206
 1461SOL     OW 6279   9.490  13.876   6.746
 1461SOL    HW1 6280   9.551  13.816   6.702
 1461SOL    HW2 6281   9.407  13.863   6.701
 1462SOL     OW 6282  12.529  10.632   1.683
 1462SOL    HW1 6283  12.448  10.682   1.672
 1462SOL    HW2 6284  12.583  10.659   1.609
 1463SOL     OW 6285   5.135  10.457   2.176
 1463SOL    HW1 6286   5.057  10.432   2.126
 1463SOL    HW2 6287   5.105  10.525   2.236
 1464SOL     OW 6288  12.087   1.622  13.999
 1464SOL    HW1 6289  12.028   1.642  14.071
 1464SOL    HW2 6290  12.061   1.535  13.969
 1465SOL     OW 6291   5.391   6.467   7.134
 1465SOL    HW1 6292   5.481   6.438   7.117
 1465SOL    HW2 6293   5.339   6.424   7.066
 1466SOL     OW 6294   8.437   1.754   4.545
 1466SOL    HW1 6295   8.506   1.787   4.488
 1466SOL    HW2 6296   8.475   1.677   4.588
 1467SOL     OW 6297  11.413   4.511   6.306
 1467SOL    HW1 6298  11.378   4.500   6.394
 1467SOL    HW2 6299  11.393   4.601   6.282
 1468SOL     OW 6300   8.346   6.826   5.652
 1468SOL    HW1 6301   8.426   6.855   5.608
 1468SOL    HW2 6302   8.327   6.896   5.715
 1469SOL     OW 6303  14.535   7.022   5.551
 1469SOL    HW1 6304  14.629   7.030   5.567
 1469SOL    HW2 6305  14.494   7.083   5.612
 1470SOL     OW 6306   6.889  13.055   9.828
 1470SOL    HW1 6307   6.889  12.990   9.757
 1470SOL    HW2 6308   6.929  13.133   9.790
 1471SOL     OW 6309   4.002   8.666   6.489
 1471SOL    HW1 6310   4.032   8.672   6.580
 1471SOL    HW2 6311   3.938   8.595   6.490
 1472SOL     OW 6312  14.561   4.670   9.124
 1472SOL    HW1 6313  14.578   4.605   9.191
 1472SOL    HW2 6314  14.478   4.710   9.149
 1473SOL     OW 6315   7.348  12.017  13.878
 1473SOL    HW1 6316   7.435  12.047  13.853
 1473SOL    HW2 6317   7.332  12.060  13.962
 1474SOL     OW 6318  13.389  12.528  13.416
 1474SOL    HW1 6319  13.406  12.554  13.326
 1474SOL    HW2 6320  13.474  12.535  13.460
 1475SOL     OW 6321   3.690   8.687   0.518
 1475SOL    HW1 6322   3.657   8.630   0.588
 1475SOL    HW2 6323   3.782   8.664   0.509
 1476SOL     OW 6324  12.960   2.812  13.880
 1476SOL    HW1 6325  12.971   2.898  13.922
 1476SOL    HW2 6326  13.047   2.773  13.881
 1477SOL     OW 6327   4.078  14.408  11.862
 1477SOL    HW1 6328   4.132  14.361  11.798
 1477SOL    HW2 6329   4.012  14.452  11.810
 1478SOL     OW 6330  12.698   6.123   7.859
 1478SOL    HW1 6331  12.780   6.122   7.809
 1478SOL    HW2 6332  12.645   6.053   7.820
 1479SOL     OW 6333  13.776  10.129   9.233
 1479SOL    HW1 6334  13.833  10.204   9.220
 1479SOL    HW2 6335  13.823  10.056   9.192
 1480SOL     OW 6336   8.758   5.541   0.804
 1480SOL    HW1 6337   8.700   5.588   0.863
 1480SOL    HW2 6338   8.708   5.533   0.722
 1481SOL     OW 6339   8.095  11.590  11.626
 1481SOL    HW1 6340   8.056  11.568  11.541
 1481SOL    HW2 6341   8.077  11.683  11.637
 1482SOL     OW 6342  13.951   4.807   1.669
 1482SOL    HW1 6343  14.002   4.732   1.637
 1482SOL    HW2 6344  13.896   4.832   1.595
 1483SOL     OW 6345  13.900  11.449   2.883
 1483SOL    HW1 6346  13.935  11.509   2.949
 1483SOL    HW2 6347  13.908  11.496   2.800
 1484SOL     OW 6348   4.557  10.904  12.083
 1484SOL    HW1 6349   4.606  10.985  12.094
 1484SOL    HW2 6350   4.477  10.917  12.134
 1485SOL     OW 6351  11.062   3.199   3.470
 1485SOL    HW1 6352  10.991   3.156   3.519
 1485SOL    HW2 6353  11.130   3.132   3.464
 1486SOL     OW 6354  10.137   5.306  11.597
 1486SOL    HW1 6355  10.126   5.312  11.502
 1486SOL    HW2 6356  10.228   5.330  11.613
 1487SOL     OW 6357   5.264   2.905   3.427
 1487SOL    HW1 6358   5.206   2.971   3.388
 1487SOL    HW2 6359   5.349   2.949   3.432
 1488SOL     OW 6360   1.673   0.243   8.505
 1488SOL    HW1 6361   1.706   0.182   8.571
 1488SOL    HW2 6362   1.579   0.245   8.520
 1489SOL     OW 6363  11.585   3.564   4.892
 1489SOL    HW1 6364  11.622   3.600   4.973
 1489SOL    HW2 6365  11.576   3.639   4.834
 1490SOL     OW 6366   9.043  12.578   5.383
 1490SOL    HW1 6367   9.066  12.654   5.437
 1490SOL    HW2 6368   8.955  12.596   5.352
 1491SOL     OW 6369   0.695   1.781  14.507
 1491SOL    HW1 6370   0.615   1.743  14.472
 1491SOL    HW2 6371   0.761   1.763  14.440
 1492SOL     OW 6372   7.286   8.570   7.681
 1492SOL    HW1 6373   7.373   8.565   7.642
 1492SOL    HW2 6374   7.234   8.506   7.633
 1493SOL     OW 6375   2.628   6.299  10.075
 1493SOL    HW1 6376   2.555   6.269  10.130
 1493SOL    HW2 6377   2.590   6.310   9.988
 1494SOL     OW 6378   2.343   9.535   8.732
 1494SOL    HW1 6379   2.319   9.448   8.764
 1494SOL    HW2 6380   2.353   9.525   8.638
 1495SOL     OW 6381   2.124   6.710  12.916
 1495SOL    HW1 6382   2.162   6.780  12.969
 1495SOL    HW2 6383   2.064   6.664  12.975
 1496SOL     OW 6384   8.833   2.272   0.937
 1496SOL    HW1 6385   8.870   2.348   0.983
 1496SOL    HW2 6386   8.860   2.197   0.990
 1497SOL     OW 6387  12.988   1.137  11.619
 1497SOL    HW1 6388  12.934   1.127  11.697
 1497SOL    HW2 6389  13.077   1.117  11.649
 1498SOL     OW 6390   0.397   1.208  10.003
 1498SOL    HW1 6391   0.453   1.136  10.032
 1498SOL    HW2 6392   0.455   1.283   9.995
 1499SOL     OW 6393   8.940  11.586   1.710
 1499SOL    HW1 6394   8.983  11.664   1.675
 1499SOL    HW2 6395   8.887  11.619   1.783
 1500SOL     OW 6396   6.303   8.714  11.742
 1500SOL    HW1 6397   6.306   8.803  11.706
 1500SOL    HW2 6398   6.377   8.710  11.802
 1501SOL     OW 6399  14.429   5.361   8.118
 1501SOL    HW1 6400  14.474   5.327   8.195
 1501SOL    HW2 6401  14.433   5.456   8.127
 1502SOL     OW 6402   3.019   4.524   9.360
 1502SOL    HW1 6403   2.944   4.563   9.406
 1502SOL    HW2 6404   2.995   4.530   9.267
 1503SOL     OW 6405   3.882   3.071   2.670
 1503SOL    HW1 6406   3.848   2.996   2.719
 1503SOL    HW2 6407   3.856   3.054   2.579
 1504SOL     OW 6408   8.135   0.438   7.898
 1504SOL    HW1 6409   8.202   0.442   7.966
 1504SOL    HW2 6410   8.063   0.491   7.931
 1505SOL     OW 6411  11.139  11.008  12.321
 1505SOL    HW1 6412  11.077  11.079  12.339
 1505SOL    HW2 6413  11.158  10.971  12.407
 1506SOL     OW 6414   0.570   7.544   5.462
 1506SOL    HW1 6415   0.590   7.452   5.446
 1506SOL    HW2 6416   0.479   7.555   5.434
 1507SOL     OW 6417   6.617  11.964  10.256
 1507SOL    HW1 6418   6.588  11.974  10.166
 1507SOL    HW2 6419   6.602  11.872  10.277
 1508SOL     OW 6420   3.843  14.793   4.696
 1508SOL    HW1 6421   3.919  14.794   4.637
 1508SOL    HW2 6422   3.879  14.820   4.780
 1509SOL     OW 6423   2.571   4.773   2.137
 1509SOL    HW1 6424   2.569   4.678   2.123
 1509SOL    HW2 6425   2.486   4.793   2.177
 1510SOL     OW 6426  13.598  11.116   2.283
 1510SOL    HW1 6427  13.584  11.143   2.192
 1510SOL    HW2 6428  13.591  11.021   2.282
 1511SOL     OW 6429   5.420   4.171  13.236
 1511SOL    HW1 6430   5.366   4.238  13.193
 1511SOL    HW2 6431   5.491   4.220  13.277
 1512SOL     OW 6432   3.311  14.284   1.973
 1512SOL    HW1 6433   3.299  14.352   2.040
 1512SOL    HW2 6434   3.318  14.202   2.023
 1513SOL     OW 6435   8.607   6.476   0.381
 1513SOL    HW1 6436   8.619   6.420   0.304
 1513SOL    HW2 6437   8.611   6.565   0.346
 1514SOL     OW 6438  12.398   6.748   0.962
 1514SOL    HW1 6439  12.447   6.665   0.964
 1514SOL    HW2 6440  12.453   6.809   1.009
 1515SOL     OW 6441  14.643   9.948   1.132
 1515SOL    HW1 6442  14.706   9.982   1.069
 1515SOL    HW2 6443  14.558   9.973   1.096
 1516SOL     OW 6444   3.079  10.516  10.754
 1516SOL    HW1 6445   3.079  10.531  10.849
 1516SOL    HW2 6446   3.062  10.422  10.745
 1517SOL     OW 6447  10.012  11.427  13.588
 1517SOL    HW1 6448  10.039  11.411  13.679
 1517SOL    HW2 6449   9.997  11.339  13.553
 1518SOL     OW 6450   5.449   1.151   3.043
 1518SOL    HW1 6451   5.435   1.244   3.059
 1518SOL    HW2 6452   5.368   1.109   3.073
 1519SOL     OW 6453   5.255   5.640   6.318
 1519SOL    HW1 6454   5.330   5.693   6.293
 1519SOL    HW2 6455   5.259   5.564   6.260
 1520SOL     OW 6456   4.907   6.746   7.074
 1520SOL    HW1 6457   4.886   6.789   7.157
 1520SOL    HW2 6458   4.963   6.672   7.099
 1521SOL     OW 6459   5.806  10.295   8.703
 1521SOL    HW1 6460   5.756  10.219   8.731
 1521SOL    HW2 6461   5.827  10.278   8.611
 1522SOL     OW 6462  12.836  14.065   8.839
 1522SOL    HW1 6463  12.893  14.015   8.897
 1522SOL    HW2 6464  12.806  14.001   8.774
 1523SOL     OW 6465   7.930  11.219  10.027
 1523SOL    HW1 6466   7.851  11.166  10.028
 1523SOL    HW2 6467   7.914  11.288  10.092
 1524SOL     OW 6468  10.708   9.497   5.473
 1524SOL    HW1 6469  10.791   9.458   5.502
 1524SOL    HW2 6470  10.648   9.481   5.545
 1525SOL     OW 6471  13.738  13.172  14.428
 1525SOL    HW1 6472  13.688  13.213  14.358
 1525SOL    HW2 6473  13.740  13.237  14.498
 1526SOL     OW 6474  11.623   6.958   8.334
 1526SOL    HW1 6475  11.645   6.935   8.244
 1526SOL    HW2 6476  11.530   6.979   8.332
 1527SOL     OW 6477  11.369  11.358   7.740
 1527SOL    HW1 6478  11.278  11.384   7.732
 1527SOL    HW2 6479  11.409  11.381   7.656
 1528SOL     OW 6480   8.082   3.863   5.104
 1528SOL    HW1 6481   8.116   3.951   5.124
 1528SOL    HW2 6482   8.051   3.829   5.188
 1529SOL     OW 6483  12.860   0.346   3.392
 1529SOL    HW1 6484  12.818   0.386   3.316
 1529SOL    HW2 6485  12.844   0.253   3.382
 1530SOL     OW 6486   0.866  13.093  14.325
 1530SOL    HW1 6487   0.864  13.007  14.367
 1530SOL    HW2 6488   0.795  13.142  14.366
 1531SOL     OW 6489   3.938   9.271  12.520
 1531SOL    HW1 6490   3.903   9.334  12.583
 1531SOL    HW2 6491   4.015   9.313  12.482
 1532SOL     OW 6492  14.106   8.404   0.387
 1532SOL    HW1 6493  14.180   8.368   0.337
 1532SOL    HW2 6494  14.028   8.373   0.339
 1533SOL     OW 6495  13.036   7.866   7.390
 1533SOL    HW1 6496  13.088   7.817   7.454
 1533SOL    HW2 6497  12.955   7.816   7.382
 1534SOL     OW 6498   8.100   7.266  13.868
 1534SOL    HW1 6499   8.074   7.194  13.810
 1534SOL    HW2 6500   8.091   7.230  13.956
 1535SOL     OW 6501   2.533   4.952   4.606
 1535SOL    HW1 6502   2.531   5.002   4.688
 1535SOL    HW2 6503   2.455   4.898   4.609
 1536SOL     OW 6504   5.755  13.629   8.444
 1536SOL    HW1 6505   5.683  13.578   8.481
 1536SOL    HW2 6506   5.800  13.665   8.521
 1537SOL     OW 6507   8.147  14.186   8.083
 1537SOL    HW1 6508   8.060  14.145   8.087
 1537SOL    HW2 6509   8.166  14.192   7.989
 1538SOL     OW 6510   0.907   2.734   4.144
 1538SOL    HW1 6511   0.971   2.674   4.107
 1538SOL    HW2 6512   0.856   2.681   4.205
 1539SOL     OW 6513   6.376   3.284   2.140
 1539SOL    HW1 6514   6.349   3.200   2.176
 1539SOL    HW2 6515   6.365   3.345   2.213
 1540SOL     OW 6516   8.611   0.611  11.644
 1540SOL    HW1 6517   8.600   0.571  11.730
 1540SOL    HW2 6518   8.591   0.704  11.658
 1541SOL     OW 6519   5.574   8.772  12.156
 1541SOL    HW1 6520   5.657   8.773  12.108
 1541SOL    HW2 6521   5.509   8.805  12.094
 1542SOL     OW 6522   2.045   9.166   5.226
 1542SOL    HW1 6523   2.002   9.172   5.141
 1542SOL    HW2 6524   1.980   9.127   5.283
 1543SOL     OW 6525   5.580   4.955   2.840
 1543SOL    HW1 6526   5.547   4.873   2.875
 1543SOL    HW2 6527   5.673   4.956   2.861
 1544SOL     OW 6528   3.025   2.190   3.730
 1544SOL    HW1 6529   3.002   2.281   3.712
 1544SOL    HW2 6530   2.942   2.145   3.739
 1545SOL     OW 6531   3.824  11.631   8.170
 1545SOL    HW1 6532   3.919  11.636   8.158
 1545SOL    HW2 6533   3.799  11.550   8.127
 1546SOL     OW 6534  11.657   9.794   0.613
 1546SOL    HW1 6535  11.724   9.759   0.672
 1546SOL    HW2 6536  11.698   9.872   0.575
 1547SOL     OW 6537  10.914   0.197   6.043
 1547SOL    HW1 6538  10.829   0.240   6.035
 1547SOL    HW2 6539  10.959   0.245   6.113
 1548SOL     OW 6540   0.760   8.524   3.303
 1548SOL    HW1 6541   0.849   8.491   3.289
 1548SOL    HW2 6542   0.708   8.445   3.320
 1549SOL     OW 6543  12.728  13.656   1.314
 1549SOL    HW1 6544  12.643  13.617   1.336
 1549SOL    HW2 6545  12.790  13.584   1.324
 1550SOL     OW 6546  12.116   3.326   0.913
 1550SOL    HW1 6547  12.106   3.413   0.952
 1550SOL    HW2 6548  12.032   3.309   0.871
 1551SOL     OW 6549   2.278   2.086   3.081
 1551SOL    HW1 6550   2.189   2.110   3.055
 1551SOL    HW2 6551   2.294   2.002   3.036
 1552SOL     OW 6552   4.099  13.752   9.021
 1552SOL    HW1 6553   4.042  13.786   9.090
 1552SOL    HW2 6554   4.159  13.825   9.002
 1553SOL     OW 6555  14.404   7.112   9.366
 1553SOL    HW1 6556  14.485   7.117   9.418
 1553SOL    HW2 6557  14.357   7.192   9.390
 1554SOL     OW 6558   3.428   4.587   4.493
 1554SOL    HW1 6559   3.344   4.541   4.482
 1554SOL    HW2 6560   3.472   4.577   4.409
 1555SOL     OW 6561   1.279   7.176   7.633
 1555SOL    HW1 6562   1.223   7.103   7.660
 1555SOL    HW2 6563   1.255   7.247   7.693
 1556SOL     OW 6564  12.117   7.711  14.179
 1556SOL    HW1 6565  12.174   7.767  14.232
 1556SOL    HW2 6566  12.052   7.771  14.143
 1557SOL     OW 6567   3.604   9.301   3.256
 1557SOL    HW1 6568   3.621   9.394   3.271
 1557SOL    HW2 6569   3.582   9.295   3.163
 1558SOL     OW 6570   3.242   1.030   9.923
 1558SOL    HW1 6571   3.214   1.006  10.011
 1558SOL    HW2 6572   3.219   1.123   9.915
 1559SOL     OW 6573  14.056   2.360  12.288
 1559SOL    HW1 6574  14.146   2.329  12.299
 1559SOL    HW2 6575  14.003   2.281  12.288
 1560SOL     OW 6576   9.157   2.686  10.895
 1560SOL    HW1 6577   9.101   2.695  10.818
 1560SOL    HW2 6578   9.118   2.745  10.960
 1561SOL     OW 6579   5.820   7.283  10.247
 1561SOL    HW1 6580   5.907   7.321  10.257
 1561SOL    HW2 6581   5.768   7.352  10.206
 1562SOL     OW 6582  11.137   5.572   8.449
 1562SOL    HW1 6583  11.156   5.629   8.523
 1562SOL    HW2 6584  11.208   5.588   8.387
 1563SOL     OW 6585  12.134  13.504   8.140
 1563SOL    HW1 6586  12.160  13.438   8.205
 1563SOL    HW2 6587  12.040  13.518   8.157
 1564SOL     OW 6588   6.522  14.544  14.236
 1564SOL    HW1 6589   6.475  14.471  14.275
 1564SOL    HW2 6590   6.614  14.526  14.255
 1565SOL     OW 6591   1.282   8.309  12.768
 1565SOL    HW1 6592   1.266   8.386  12.714
 1565SOL    HW2 6593   1.376   8.311  12.785
 1566SOL     OW 6594  13.743   4.758   4.860
 1566SOL    HW1 6595  13.665   4.812   4.858
 1566SOL    HW2 6596  13.753   4.735   4.953
 1567SOL     OW 6597   2.015   1.856   8.973
 1567SOL    HW1 6598   2.018   1.905   8.891
 1567SOL    HW2 6599   1.955   1.907   9.029
 1568SOL     OW 6600  13.424   9.446  14.521
 1568SOL    HW1 6601  13.341   9.468  14.564
 1568SOL    HW2 6602  13.398   9.412  14.436
 1569SOL     OW 6603   9.385   6.305  10.115
 1569SOL    HW1 6604   9.410   6.231  10.171
 1569SOL    HW2 6605   9.291   6.314  10.127
 1570SOL     OW 6606   7.710  14.569  14.409
 1570SOL    HW1 6607   7.750  14.649  14.375
 1570SOL    HW2 6608   7.669  14.596  14.492
 1571SOL     OW 6609   9.485   4.479   2.284
 1571SOL    HW1 6610   9.550   4.538   2.246
 1571SOL    HW2 6611   9.506   4.477   2.378
 1572SOL     OW 6612   7.444  11.840   4.038
 1572SOL    HW1 6613   7.404  11.775   4.097
 1572SOL    HW2 6614   7.375  11.861   3.976
 1573SOL     OW 6615  10.581   8.554   4.607
 1573SOL    HW1 6616  10.668   8.555   4.567
 1573SOL    HW2 6617  10.538   8.478   4.569
 1574SOL     OW 6618  12.472  11.482   1.823
 1574SOL    HW1 6619  12.524  11.562   1.815
 1574SOL    HW2 6620  12.382  11.511   1.808
 1575SOL     OW 6621  14.129   0.809   3.465
 1575SOL    HW1 6622  14.136   0.811   3.560
 1575SOL    HW2 6623  14.163   0.723   3.440
 1576SOL     OW 6624   8.249   2.320   5.258
 1576SOL    HW1 6625   8.259   2.414   5.246
 1576SOL    HW2 6626   8.220   2.310   5.349
 1577SOL     OW 6627  11.076  14.857   7.899
 1577SOL    HW1 6628  10.988  14.826   7.877
 1577SOL    HW2 6629  11.063   0.042   7.975
 1578SOL     OW 6630   4.932  10.432   7.200
 1578SOL    HW1 6631   4.975  10.511   7.232
 1578SOL    HW2 6632   5.001  10.386   7.151
 1579SOL     OW 6633   4.879   7.606  10.909
 1579SOL    HW1 6634   4.822   7.659  10.964
 1579SOL    HW2 6635   4.824   7.582  10.834
 1580SOL     OW 6636  10.926   9.707  11.785
 1580SOL    HW1 6637  10.962   9.782  11.738
 1580SOL    HW2 6638  11.002   9.652  11.804
 1581SOL     OW 6639   4.449  11.163   6.421
 1581SOL    HW1 6640   4.531  11.117   6.403
 1581SOL    HW2 6641   4.416  11.186   6.334
 1582SOL     OW 6642   1.110  12.781   0.161
 1582SOL    HW1 6643   1.167  12.848   0.124
 1582SOL    HW2 6644   1.148  12.761   0.247
 1583SOL     OW 6645  10.450  14.084   0.027
 1583SOL    HW1 6646  10.495  14.148  14.844
 1583SOL    HW2 6647  10.392  14.138   0.082
 1584SOL     OW 6648   4.227   5.295  11.989
 1584SOL    HW1 6649   4.280   5.277  12.067
 1584SOL    HW2 6650   4.260   5.379  11.956
 1585SOL     OW 6651  12.278   0.066   8.284
 1585SOL    HW1 6652  12.276   0.005   8.358
 1585SOL    HW2 6653  12.188   0.069   8.252
 1586SOL     OW 6654   3.964   9.617  13.744
 1586SOL    HW1 6655   4.054   9.618  13.711
 1586SOL    HW2 6656   3.910   9.627  13.666
 1587SOL     OW 6657   0.109  14.466   8.562
 1587SOL    HW1 6658   0.100  14.480   8.656
 1587SOL    HW2 6659   0.022  14.484   8.526
 1588SOL     OW 6660   6.389  11.205   3.699
 1588SOL    HW1 6661   6.449  11.211   3.624
 1588SOL    HW2 6662   6.318  11.266   3.678
 1589SOL     OW 6663   7.697   2.768   2.572
 1589SOL    HW1 6664   7.740   2.687   2.543
 1589SOL    HW2 6665   7.678   2.753   2.664
 1590SOL     OW 6666   5.937   3.129  13.837
 1590SOL    HW1 6667   6.015   3.085  13.871
 1590SOL    HW2 6668   5.956   3.223  13.846
 1591SOL     OW 6669   1.866   0.744   8.463
 1591SOL    HW1 6670   1.803   0.811   8.437
 1591SOL    HW2 6671   1.912   0.781   8.538
 1592SOL     OW 6672  13.219  13.119  10.774
 1592SOL    HW1 6673  13.213  13.025  10.785
 1592SOL    HW2 6674  13.263  13.150  10.853
 1593SOL     OW 6675   9.987  14.509   1.840
 1593SOL    HW1 6676   9.930  14.442   1.802
 1593SOL    HW2 6677   9.941  14.591   1.825
 1594SOL     OW 6678  14.811   5.347  10.940
 1594SOL    HW1 6679  14.849   5.427  10.903
 1594SOL    HW2 6680  14.755   5.378  11.011
 1595SOL     OW 6681   1.517  11.968  11.422
 1595SOL    HW1 6682   1.599  11.987  11.376
 1595SOL    HW2 6683   1.495  12.050  11.467
 1596SOL     OW 6684  11.941   1.997  10.022
 1596SOL    HW1 6685  12.018   2.047   9.997
 1596SOL    HW2 6686  11.878   2.011   9.951
 1597SOL     OW 6687  13.486   2.918   2.068
 1597SOL    HW1 6688  13.416   2.967   2.111
 1597SOL    HW2 6689  13.554   2.909   2.135
 1598SOL     OW 6690   9.299  11.562  12.607
 1598SOL    HW1 6691   9.209  11.594  12.616
 1598SOL    HW2 6692   9.353  11.641  12.609
 1599SOL     OW 6693   5.349   5.334  13.712
 1599SOL    HW1 6694   5.274   5.295  13.666
 1599SOL    HW2 6695   5.319   5.343  13.802
 1600SOL     OW 6696   1.217  13.872   6.414
 1600SOL    HW1 6697   1.231  13.882   6.508
 1600SOL    HW2 6698   1.236  13.780   6.397
 1601SOL     OW 6699  12.981   7.758   9.588
 1601SOL    HW1 6700  12.917   7.738   9.655
 1601SOL    HW2 6701  12.993   7.676   9.539
 1602SOL     OW 6702   9.283   9.024   0.055
 1602SOL    HW1 6703   9.246   9.053  14.844
 1602SOL    HW2 6704   9.267   8.929   0.057
 1603SOL     OW 6705  12.315   6.701  11.413
 1603SOL    HW1 6706  12.353   6.660  11.491
 1603SOL    HW2 6707  12.234   6.653  11.398
 1604SOL     OW 6708   1.446   5.625   5.153
 1604SOL    HW1 6709   1.401   5.559   5.205
 1604SOL    HW2 6710   1.421   5.708   5.195
 1605SOL     OW 6711  13.462   6.381   2.215
 1605SOL    HW1 6712  13.436   6.332   2.293
 1605SOL    HW2 6713  13.540   6.430   2.242
 1606SOL     OW 6714   7.072   3.802  12.314
 1606SOL    HW1 6715   7.142   3.853  12.354
 1606SOL    HW2 6716   7.081   3.714  12.351
 1607SOL     OW 6717   7.682   5.147   0.646
 1607SOL    HW1 6718   7.729   5.064   0.656
 1607SOL    HW2 6719   7.747   5.214   0.665
 1608SOL     OW 6720   9.632   5.720   6.001
 1608SOL    HW1 6721   9.547   5.755   6.027
 1608SOL    HW2 6722   9.650   5.761   5.917
 1609SOL     OW 6723   7.110   0.180  12.582
 1609SOL    HW1 6724   7.045   0.214  12.642
 1609SOL    HW2 6725   7.194   0.196  12.626
 1610SOL     OW 6726   1.229  14.596   0.133
 1610SOL    HW1 6727   1.271  14.661   0.078
 1610SOL    HW2 6728   1.201  14.527   0.073
 1611SOL     OW 6729   3.977   8.560   5.217
 1611SOL    HW1 6730   3.895   8.528   5.178
 1611SOL    HW2 6731   3.989   8.505   5.295
 1612SOL     OW 6732  14.213  13.665   5.923
 1612SOL    HW1 6733  14.242  13.653   6.013
 1612SOL    HW2 6734  14.222  13.579   5.883
 1613SOL     OW 6735   2.104   2.247   7.626
 1613SOL    HW1 6736   2.128   2.259   7.718
 1613SOL    HW2 6737   2.187   2.232   7.581
 1614SOL     OW 6738  12.897   2.063   4.372
 1614SOL    HW1 6739  12.903   2.108   4.456
 1614SOL    HW2 6740  12.919   2.130   4.307
 1615SOL     OW 6741   7.920   4.602   0.152
 1615SOL    HW1 6742   7.875   4.652   0.219
 1615SOL    HW2 6743   8.001   4.652   0.135
 1616SOL     OW 6744   3.830   6.364   1.690
 1616SOL    HW1 6745   3.920   6.337   1.672
 1616SOL    HW2 6746   3.834   6.412   1.772
 1617SOL     OW 6747  14.184   0.977   9.001
 1617SOL    HW1 6748  14.269   0.958   8.963
 1617SOL    HW2 6749  14.122   0.925   8.949
 1618SOL     OW 6750  11.558   9.732   7.307
 1618SOL    HW1 6751  11.583   9.649   7.347
 1618SOL    HW2 6752  11.640   9.782   7.302
 1619SOL     OW 6753   3.313   1.937   0.362
 1619SOL    HW1 6754   3.231   1.915   0.317
 1619SOL    HW2 6755   3.307   2.031   0.379
 1620SOL     OW 6756   4.487   5.871  10.686
 1620SOL    HW1 6757   4.550   5.833  10.748
 1620SOL    HW2 6758   4.491   5.812  10.610
 1621SOL     OW 6759   4.553  10.049  10.170
 1621SOL    HW1 6760   4.623  10.024  10.230
 1621SOL    HW2 6761   4.481   9.989  10.192
 1622SOL     OW 6762   1.193   2.981   6.597
 1622SOL    HW1 6763   1.117   2.982   6.657
 1622SOL    HW2 6764   1.168   3.039   6.526
 1623SOL     OW 6765   8.114  11.177   9.314
 1623SOL    HW1 6766   8.020  11.160   9.320
 1623SOL    HW2 6767   8.121  11.268   9.284
 1624SOL     OW 6768   6.734   7.500  10.532
 1624SOL    HW1 6769   6.765   7.523  10.445
 1624SOL    HW2 6770   6.643   7.474  10.519
 1625SOL     OW 6771   5.920   5.434   2.092
 1625SOL    HW1 6772   5.882   5.509   2.137
 1625SOL    HW2 6773   5.881   5.436   2.004
 1626SOL     OW 6774   2.822   4.128   0.038
 1626SOL    HW1 6775   2.739   4.137  14.863
 1626SOL    HW2 6776   2.848   4.037   0.025
 1627SOL     OW 6777  12.224   1.522   3.712
 1627SOL    HW1 6778  12.276   1.451   3.750
 1627SOL    HW2 6779  12.287   1.579   3.670
 1628SOL     OW 6780  13.346  12.978   2.618
 1628SOL    HW1 6781  13.372  12.892   2.652
 1628SOL    HW2 6782  13.254  12.986   2.642
 1629SOL     OW 6783  11.078   7.615   2.636
 1629SOL    HW1 6784  11.131   7.665   2.573
 1629SOL    HW2 6785  11.007   7.674   2.660
 1630SOL     OW 6786  14.444   0.602   9.509
 1630SOL    HW1 6787  14.463   0.690   9.476
 1630SOL    HW2 6788  14.360   0.611   9.554
 1631SOL     OW 6789   1.482  13.592   3.643
 1631SOL    HW1 6790   1.536  13.622   3.716
 1631SOL    HW2 6791   1.519  13.507   3.619
 1632SOL     OW 6792   4.316  10.734   8.610
 1632SOL    HW1 6793   4.245  10.671   8.617
 1632SOL    HW2 6794   4.379  10.707   8.677
 1633SOL     OW 6795  12.099   0.468  11.079
 1633SOL    HW1 6796  12.018   0.504  11.041
 1633SOL    HW2 6797  12.167   0.529  11.051
 1634SOL     OW 6798   0.653  12.919   1.293
 1634SOL    HW1 6799   0.661  12.870   1.375
 1634SOL    HW2 6800   0.579  12.978   1.308
 1635SOL     OW 6801  12.292   4.960   6.679
 1635SOL    HW1 6802  12.205   4.937   6.646
 1635SOL    HW2 6803  12.352   4.915   6.620
 1636SOL     OW 6804   0.887   4.726   9.623
 1636SOL    HW1 6805   0.855   4.743   9.712
 1636SOL    HW2 6806   0.871   4.632   9.610
 1637SOL     OW 6807   9.406   9.613   4.722
 1637SOL    HW1 6808   9.485   9.661   4.700
 1637SOL    HW2 6809   9.386   9.562   4.644
 1638SOL     OW 6810   8.981  13.398   5.666
 1638SOL    HW1 6811   8.928  13.443   5.732
 1638SOL    HW2 6812   9.066  13.386   5.707
 1639SOL     OW 6813   2.898   6.492  13.809
 1639SOL    HW1 6814   2.817   6.540  13.826
 1639SOL    HW2 6815   2.907   6.492  13.714
 1640SOL     OW 6816   4.932   2.182   3.622
 1640SOL    HW1 6817   4.957   2.275   3.620
 1640SOL    HW2 6818   4.869   2.173   3.551
 1641SOL     OW 6819  10.564  12.237   5.637
 1641SOL    HW1 6820  10.651  12.204   5.613
 1641SOL    HW2 6821  10.511  12.158   5.650
 1642SOL     OW 6822   7.579   8.942   3.813
 1642SOL    HW1 6823   7.583   8.960   3.719
 1642SOL    HW2 6824   7.625   9.015   3.853
 1643SOL     OW 6825   9.004   4.958   6.763
 1643SOL    HW1 6826   9.098   4.938   6.763
 1643SOL    HW2 6827   8.966   4.891   6.706
 1644SOL     OW 6828   9.209   5.493   1.069
 1644SOL    HW1 6829   9.161   5.576   1.066
 1644SOL    HW2 6830   9.201   5.457   0.981
 1645SOL     OW 6831  10.519  12.456   3.137
 1645SOL    HW1 6832  10.542  12.466   3.230
 1645SOL    HW2 6833  10.455  12.526   3.121
 1646SOL     OW 6834   9.175   6.128  13.828
 1646SOL    HW1 6835   9.137   6.200  13.879
 1646SOL    HW2 6836   9.254   6.103  13.877
 1647SOL     OW 6837   1.840  13.594  13.205
 1647SOL    HW1 6838   1.909  13.633  13.258
 1647SOL    HW2 6839   1.830  13.505  13.239
 1648SOL     OW 6840  10.863   9.349  11.808
 1648SOL    HW1 6841  10.910   9.395  11.738
 1648SOL    HW2 6842  10.848   9.416  11.875
 1649SOL     OW 6843   0.938   5.845  13.154
 1649SOL    HW1 6844   1.025   5.831  13.192
 1649SOL    HW2 6845   0.950   5.918  13.093
 1650SOL     OW 6846  10.014  12.502   8.567
 1650SOL    HW1 6847  10.002  12.414   8.603
 1650SOL    HW2 6848  10.076  12.544   8.627
 1651SOL     OW 6849   2.085   4.497   6.383
 1651SOL    HW1 6850   2.033   4.417   6.370
 1651SOL    HW2 6851   2.021   4.564   6.406
 1652SOL     OW 6852   0.666  10.844   6.478
 1652SOL    HW1 6853   0.575  10.815   6.475
 1652SOL    HW2 6854   0.689  10.839   6.571
 1653SOL     OW 6855   5.182   5.137  12.719
 1653SOL    HW1 6856   5.135   5.061  12.685
 1653SOL    HW2 6857   5.274   5.115  12.710
 1654SOL     OW 6858   3.898   9.586   4.366
 1654SOL    HW1 6859   3.927   9.651   4.430
 1654SOL    HW2 6860   3.803   9.580   4.379
 1655SOL     OW 6861   7.441   1.981   8.980
 1655SOL    HW1 6862   7.449   2.003   9.073
 1655SOL    HW2 6863   7.424   2.064   8.937
 1656SOL     OW 6864   2.801   9.885   0.447
 1656SOL    HW1 6865   2.880   9.872   0.500
 1656SOL    HW2 6866   2.767   9.970   0.477
 1657SOL     OW 6867   8.380  14.464   7.910
 1657SOL    HW1 6868   8.446  14.516   7.865
 1657SOL    HW2 6869   8.369  14.507   7.995
 1658SOL     OW 6870  10.768   7.452   2.666
 1658SOL    HW1 6871  10.838   7.492   2.614
 1658SOL    HW2 6872  10.696   7.514   2.661
 1659SOL     OW 6873   8.573  11.024   5.449
 1659SOL    HW1 6874   8.663  11.058   5.455
 1659SOL    HW2 6875   8.584  10.929   5.437
 1660SOL     OW 6876   9.289  12.382   4.818
 1660SOL    HW1 6877   9.238  12.306   4.845
 1660SOL    HW2 6878   9.272  12.448   4.886
 1661SOL     OW 6879   4.354   5.352   6.162
 1661SOL    HW1 6880   4.425   5.412   6.185
 1661SOL    HW2 6881   4.291   5.405   6.113
 1662SOL     OW 6882   5.125  13.023   5.063
 1662SOL    HW1 6883   5.203  13.045   5.012
 1662SOL    HW2 6884   5.054  13.022   4.999
 1663SOL     OW 6885   2.263  10.734   7.475
 1663SOL    HW1 6886   2.322  10.804   7.501
 1663SOL    HW2 6887   2.288  10.660   7.530
 1664SOL     OW 6888   9.478   0.209  14.751
 1664SOL    HW1 6889   9.573   0.203  14.756
 1664SOL    HW2 6890   9.457   0.183  14.661
 1665SOL     OW 6891   2.516   4.734   8.003
 1665SOL    HW1 6892   2.577   4.800   7.971
 1665SOL    HW2 6893   2.561   4.693   8.077
 1666SOL     OW 6894   2.865   8.100  13.604
 1666SOL    HW1 6895   2.895   8.162  13.670
 1666SOL    HW2 6896   2.770   8.096  13.616
 1667SOL     OW 6897   2.660   5.163   9.571
 1667SOL    HW1 6898   2.674   5.114   9.652
 1667SOL    HW2 6899   2.583   5.217   9.588
 1668SOL     OW 6900   1.690   0.859  13.842
 1668SOL    HW1 6901   1.686   0.951  13.819
 1668SOL    HW2 6902   1.763   0.852  13.903
 1669SOL     OW 6903   1.714  14.504  11.095
 1669SOL    HW1 6904   1.645  14.530  11.157
 1669SOL    HW2 6905   1.676  14.521  11.009
 1670SOL     OW 6906   3.806  10.888  10.052
 1670SOL    HW1 6907   3.757  10.970  10.042
 1670SOL    HW2 6908   3.856  10.880   9.970
 1671SOL     OW 6909   5.745   6.777   3.132
 1671SOL    HW1 6910   5.673   6.716   3.113
 1671SOL    HW2 6911   5.819   6.742   3.082
 1672SOL     OW 6912   6.592   7.975  13.028
 1672SOL    HW1 6913   6.632   7.945  12.947
 1672SOL    HW2 6914   6.555   8.061  13.005
 1673SOL     OW 6915   7.611   9.710   7.444
 1673SOL    HW1 6916   7.639   9.716   7.535
 1673SOL    HW2 6917   7.675   9.651   7.403
 1674SOL     OW 6918   8.944  10.859   3.995
 1674SOL    HW1 6919   8.854  10.844   3.965
 1674SOL    HW2 6920   8.965  10.780   4.045
 1675SOL     OW 6921   7.685   5.624  13.261
 1675SOL    HW1 6922   7.718   5.593  13.345
 1675SOL    HW2 6923   7.730   5.707  13.246
 1676SOL     OW 6924  12.932   4.195   2.424
 1676SOL    HW1 6925  13.002   4.140   2.388
 1676SOL    HW2 6926  12.864   4.193   2.357
 1677SOL     OW 6927   0.272  14.694   3.492
 1677SOL    HW1 6928   0.292  14.714   3.583
 1677SOL    HW2 6929   0.235  14.606   3.494
 1678SOL     OW 6930  13.215   3.590   8.148
 1678SOL    HW1 6931  13.250   3.673   8.113
 1678SOL    HW2 6932  13.197   3.608   8.240
 1679SOL     OW 6933  13.113   0.906   3.518
 1679SOL    HW1 6934  13.093   0.981   3.573
 1679SOL    HW2 6935  13.088   0.830   3.570
 1680SOL     OW 6936   4.815  11.121   8.620
 1680SOL    HW1 6937   4.823  11.043   8.566
 1680SOL    HW2 6938   4.852  11.096   8.705
 1681SOL     OW 6939  10.057   8.835  11.622
 1681SOL    HW1 6940  10.072   8.792  11.706
 1681SOL    HW2 6941  10.107   8.783  11.559
 1682SOL     OW 6942   9.054   9.595  14.077
 1682SOL    HW1 6943   8.983   9.658  14.065
 1682SOL    HW2 6944   9.126   9.630  14.025
 1683SOL     OW 6945   2.730  11.637   7.708
 1683SOL    HW1 6946   2.705  11.584   7.633
 1683SOL    HW2 6947   2.720  11.578   7.783
 1684SOL     OW 6948   1.606   6.362   2.881
 1684SOL    HW1 6949   1.513   6.347   2.897
 1684SOL    HW2 6950   1.636   6.285   2.833
 1685SOL     OW 6951   8.829   2.229   6.365
 1685SOL    HW1 6952   8.921   2.203   6.374
 1685SOL    HW2 6953   8.783   2.147   6.344
 1686SOL     OW 6954   9.787   3.981   4.709
 1686SOL    HW1 6955   9.835   4.041   4.766
 1686SOL    HW2 6956   9.847   3.965   4.636
 1687SOL     OW 6957   2.461   0.939   2.369
 1687SOL    HW1 6958   2.379   0.975   2.335
 1687SOL    HW2 6959   2.438   0.851   2.399
 1688SOL     OW 6960  10.482  13.371   7.860
 1688SOL    HW1 6961  10.530  13.342   7.783
 1688SOL    HW2 6962  10.395  13.396   7.827
 1689SOL     OW 6963   4.159   1.845  11.781
 1689SOL    HW1 6964   4.212   1.868  11.858
 1689SOL    HW2 6965   4.092   1.913  11.776
 1690SOL     OW 6966   7.737   4.401   3.455
 1690SOL    HW1 6967   7.656   4.449   3.438
 1690SOL    HW2 6968   7.781   4.451   3.524
 1691SOL     OW 6969   1.964  11.147   9.561
 1691SOL    HW1 6970   2.002  11.063   9.588
 1691SOL    HW2 6971   1.875  11.125   9.534
 1692SOL     OW 6972   7.314   6.092   2.269
 1692SOL    HW1 6973   7.222   6.078   2.290
 1692SOL    HW2 6974   7.343   6.160   2.330
 1693SOL     OW 6975   8.369  12.219   9.581
 1693SOL    HW1 6976   8.331  12.302   9.552
 1693SOL    HW2 6977   8.418  12.187   9.504
 1694SOL     OW 6978   5.915   5.041  13.861
 1694SOL    HW1 6979   5.956   5.128  13.858
 1694SOL    HW2 6980   5.826   5.058  13.892
 1695SOL     OW 6981   5.118   9.466  11.175
 1695SOL    HW1 6982   5.068   9.431  11.102
 1695SOL    HW2 6983   5.193   9.509  11.135
 1696SOL     OW 6984   8.852   4.267   0.094
 1696SOL    HW1 6985   8.901   4.244   0.015
 1696SOL    HW2 6986   8.868   4.360   0.106
 1697SOL     OW 6987   4.686   9.841   3.835
 1697SOL    HW1 6988   4.733   9.835   3.919
 1697SOL    HW2 6989   4.599   9.804   3.854
 1698SOL     OW 6990   6.581  12.657   8.776
 1698SOL    HW1 6991   6.507  12.681   8.721
 1698SOL    HW2 6992   6.649  12.630   8.714
 1699SOL     OW 6993  13.665   5.725  14.579
 1699SOL    HW1 6994  13.739   5.668  14.598
 1699SOL    HW2 6995  13.591   5.665  14.566
 1700SOL     OW 6996  10.195  13.075   4.958
 1700SOL    HW1 6997  10.238  13.048   5.039
 1700SOL    HW2 6998  10.188  13.171   4.966
 1701SOL     OW 6999  10.743   3.082  11.440
 1701SOL    HW1 7000  10.815   3.020  11.426
 1701SOL    HW2 7001  10.666   3.027  11.448
 1702SOL     OW 7002  10.945   8.178  12.524
 1702SOL    HW1 7003  10.988   8.167  12.439
 1702SOL    HW2 7004  10.976   8.103  12.576
 1703SOL     OW 7005   4.147  12.838   7.265
 1703SOL    HW1 7006   4.081  12.832   7.195
 1703SOL    HW2 7007   4.179  12.928   7.260
 1704SOL     OW 7008   4.766   2.195  10.643
 1704SOL    HW1 7009   4.783   2.208  10.736
 1704SOL    HW2 7010   4.837   2.242  10.599
 1705SOL     OW 7011  11.415  13.462   1.750
 1705SOL    HW1 7012  11.332  13.423   1.723
 1705SOL    HW2 7013  11.390  13.522   1.821
 1706SOL     OW 7014  14.672   7.507   1.284
 1706SOL    HW1 7015  14.643   7.416   1.290
 1706SOL    HW2 7016  14.761   7.507   1.318
 1707SOL     OW 7017  13.714   8.546   9.002
 1707SOL    HW1 7018  13.796   8.556   8.955
 1707SOL    HW2 7019  13.679   8.635   9.009
 1708SOL     OW 7020   0.514   2.905  12.684
 1708SOL    HW1 7021   0.457   2.831  12.708
 1708SOL    HW2 7022   0.464   2.982  12.711
 1709SOL     OW 7023  12.766   9.558   6.999
 1709SOL    HW1 7024  12.691   9.614   6.979
 1709SOL    HW2 7025  12.787   9.578   7.091
 1710SOL     OW 7026   3.649   3.159   8.875
 1710SOL    HW1 7027   3.592   3.098   8.922
 1710SOL    HW2 7028   3.602   3.243   8.878
 1711SOL     OW 7029  14.148   7.172   4.356
 1711SOL    HW1 7030  14.173   7.126   4.437
 1711SOL    HW2 7031  14.053   7.177   4.360
 1712SOL     OW 7032   9.506   2.456   2.944
 1712SOL    HW1 7033   9.522   2.550   2.935
 1712SOL    HW2 7034   9.455   2.434   2.866
 1713SOL     OW 7035   1.765   9.926  12.424
 1713SOL    HW1 7036   1.748  10.001  12.366
 1713SOL    HW2 7037   1.860   9.925  12.435
 1714SOL     OW 7038   6.168  11.813   5.949
 1714SOL    HW1 7039   6.151  11.755   5.874
 1714SOL    HW2 7040   6.084  11.856   5.966
 1715SOL     OW 7041  14.268  12.058  14.264
 1715SOL    HW1 7042  14.296  12.088  14.350
 1715SOL    HW2 7043  14.336  12.090  14.204
 1716SOL     OW 7044   1.531   5.335  14.266
 1716SOL    HW1 7045   1.459   5.297  14.316
 1716SOL    HW2 7046   1.494   5.353  14.180
 1717SOL     OW 7047  10.884   6.894  10.499
 1717SOL    HW1 7048  10.947   6.961  10.474
 1717SOL    HW2 7049  10.825   6.938  10.560
 1718SOL     OW 7050  12.047   7.563   3.240
 1718SOL    HW1 7051  12.009   7.651   3.241
 1718SOL    HW2 7052  11.981   7.508   3.282
 1719SOL     OW 7053   4.669   1.754  12.507
 1719SOL    HW1 7054   4.605   1.739  12.578
 1719SOL    HW2 7055   4.732   1.683  12.518
 1720SOL     OW 7056   8.100  13.033   7.173
 1720SOL    HW1 7057   8.034  13.101   7.157
 1720SOL    HW2 7058   8.125  13.004   7.085
 1721SOL     OW 7059   8.956  11.660   8.928
 1721SOL    HW1 7060   8.951  11.651   9.024
 1721SOL    HW2 7061   9.015  11.590   8.900
 1722SOL     OW 7062   8.347  13.336   2.283
 1722SOL    HW1 7063   8.323  13.246   2.308
 1722SOL    HW2 7064   8.405  13.324   2.207
 1723SOL     OW 7065  12.053   8.487   1.177
 1723SOL    HW1 7066  12.017   8.517   1.093
 1723SOL    HW2 7067  12.122   8.426   1.152
 1724SOL     OW 7068  11.818  11.540   8.958
 1724SOL    HW1 7069  11.766  11.460   8.958
 1724SOL    HW2 7070  11.784  11.590   8.883
 1725SOL     OW 7071   6.166   1.984  11.438
 1725SOL    HW1 7072   6.085   1.959  11.483
 1725SOL    HW2 7073   6.233   1.927  11.476
 1726SOL     OW 7074   5.809   6.782   8.507
 1726SOL    HW1 7075   5.750   6.749   8.439
 1726SOL    HW2 7076   5.771   6.865   8.535
 1727SOL     OW 7077  12.232  12.159   1.113
 1727SOL    HW1 7078  12.252  12.249   1.087
 1727SOL    HW2 7079  12.167  12.168   1.182
 1728SOL     OW 7080   3.362   0.535  12.884
 1728SOL    HW1 7081   3.348   0.628  12.864
 1728SOL    HW2 7082   3.397   0.498  12.803
 1729SOL     OW 7083   5.967   4.154  14.236
 1729SOL    HW1 7084   5.946   4.247  14.237
 1729SOL    HW2 7085   6.009   4.140  14.151
 1730SOL     OW 7086  13.661   2.865   4.921
 1730SOL    HW1 7087  13.697   2.951   4.945
 1730SOL    HW2 7088  13.693   2.806   4.988
 1731SOL     OW 7089  11.348   7.073   6.565
 1731SOL    HW1 7090  11.342   7.003   6.631
 1731SOL    HW2 7091  11.287   7.140   6.595
 1732SOL     OW 7092   4.135   9.144   9.362
 1732SOL    HW1 7093   4.218   9.098   9.354
 1732SOL    HW2 7094   4.107   9.126   9.452
 1733SOL     OW 7095   8.553   5.275   6.757
 1733SOL    HW1 7096   8.628   5.219   6.774
 1733SOL    HW2 7097   8.588   5.347   6.705
 1734SOL     OW 7098  13.446   0.369   8.125
 1734SOL    HW1 7099  13.377   0.428   8.095
 1734SOL    HW2 7100  13.412   0.282   8.107
 1735SOL     OW 7101  13.029  11.650   1.091
 1735SOL    HW1 7102  12.953  11.659   1.148
 1735SOL    HW2 7103  13.030  11.729   1.038
 1736SOL     OW 7104   6.809   6.213   7.059
 1736SOL    HW1 7105   6.853   6.292   7.028
 1736SOL    HW2 7106   6.802   6.225   7.153
 1737SOL     OW 7107   4.944   4.328   0.815
 1737SOL    HW1 7108   5.016   4.296   0.761
 1737SOL    HW2 7109   4.907   4.400   0.765
 1738SOL     OW 7110  14.262   2.463   4.829
 1738SOL    HW1 7111  14.277   2.532   4.765
 1738SOL    HW2 7112  14.243   2.385   4.777
 1739SOL     OW 7113   6.899  10.159   5.386
 1739SOL    HW1 7114   6.808  10.138   5.366
 1739SOL    HW2 7115   6.939  10.075   5.409
 1740SOL     OW 7116   0.422   6.206   6.080
 1740SOL    HW1 7117   0.488   6.139   6.060
 1740SOL    HW2 7118   0.351   6.189   6.018
 1741SOL     OW 7119  10.538   0.256  14.807
 1741SOL    HW1 7120  10.632   0.268  14.789
 1741SOL    HW2 7121  10.536   0.192   0.006
 1742SOL     OW 7122   3.677   7.383   0.642
 1742SOL    HW1 7123   3.723   7.348   0.566
 1742SOL    HW2 7124   3.589   7.402   0.610
 1743SOL     OW 7125   1.730   6.289   0.631
 1743SOL    HW1 7126   1.712   6.357   0.566
 1743SOL    HW2 7127   1.656   6.229   0.625
 1744SOL     OW 7128   6.097  10.542   2.559
 1744SOL    HW1 7129   6.187  10.545   2.591
 1744SOL    HW2 7130   6.078  10.449   2.549
 1745SOL     OW 7131   8.149  13.976  10.469
 1745SOL    HW1 7132   8.118  13.885  10.462
 1745SOL    HW2 7133   8.143  14.010  10.380
 1746SOL     OW 7134   0.377  14.871   8.621
 1746SOL    HW1 7135   0.288  14.849   8.596
 1746SOL    HW2 7136   0.416  14.787   8.648
 1747SOL     OW 7137   1.940   9.216   9.684
 1747SOL    HW1 7138   2.034   9.229   9.701
 1747SOL    HW2 7139   1.916   9.141   9.740
 1748SOL     OW 7140  14.219   7.408   5.557
 1748SOL    HW1 7141  14.202   7.330   5.504
 1748SOL    HW2 7142  14.179   7.480   5.509
 1749SOL     OW 7143   5.854  12.839   5.878
 1749SOL    HW1 7144   5.777  12.809   5.926
 1749SOL    HW2 7145   5.837  12.932   5.862
 1750SOL     OW 7146   7.388  14.314  12.130
 1750SOL    HW1 7147   7.463  14.368  12.154
 1750SOL    HW2 7148   7.395  14.237  12.187
 1751SOL     OW 7149   6.108  11.736   6.888
 1751SOL    HW1 7150   6.103  11.789   6.968
 1751SOL    HW2 7151   6.119  11.647   6.920
 1752SOL     OW 7152  13.967   5.961  13.457
 1752SOL    HW1 7153  13.892   5.904  13.472
 1752SOL    HW2 7154  13.955   6.033  13.519
 1753SOL     OW 7155   0.423  13.177  10.060
 1753SOL    HW1 7156   0.454  13.126   9.986
 1753SOL    HW2 7157   0.415  13.266  10.025
 1754SOL     OW 7158  10.776   9.629   9.000
 1754SOL    HW1 7159  10.707   9.628   9.066
 1754SOL    HW2 7160  10.738   9.584   8.925
 1755SOL     OW 7161  14.268   8.064   5.024
 1755SOL    HW1 7162  14.290   8.157   5.024
 1755SOL    HW2 7163  14.337   8.023   5.075
 1756SOL     OW 7164   9.046   3.061  12.687
 1756SOL    HW1 7165   9.060   3.156  12.696
 1756SOL    HW2 7166   9.086   3.039  12.603
 1757SOL     OW 7167   1.881   1.251   6.572
 1757SOL    HW1 7168   1.862   1.243   6.478
 1757SOL    HW2 7169   1.940   1.326   6.578
 1758SOL     OW 7170   6.054  13.650  12.562
 1758SOL    HW1 7171   5.977  13.610  12.603
 1758SOL    HW2 7172   6.020  13.693  12.484
 1759SOL     OW 7173  12.274   7.580   0.579
 1759SOL    HW1 7174  12.281   7.664   0.534
 1759SOL    HW2 7175  12.334   7.587   0.653
 1760SOL     OW 7176   4.897   3.590   6.929
 1760SOL    HW1 7177   4.854   3.526   6.873
 1760SOL    HW2 7178   4.989   3.564   6.930
 1761SOL     OW 7179   9.990   8.580   9.478
 1761SOL    HW1 7180   9.928   8.555   9.547
 1761SOL    HW2 7181   9.995   8.676   9.484
 1762SOL     OW 7182  13.880   0.499   7.370
 1762SOL    HW1 7183  13.791   0.474   7.391
 1762SOL    HW2 7184  13.929   0.486   7.452
 1763SOL     OW 7185  12.255  11.692   1.069
 1763SOL    HW1 7186  12.172  11.691   1.020
 1763SOL    HW2 7187  12.274  11.599   1.085
 1764SOL     OW 7188   1.042  13.877   3.731
 1764SOL    HW1 7189   1.127  13.851   3.694
 1764SOL    HW2 7190   1.060  13.894   3.823
 1765SOL     OW 7191   6.093   2.700   8.840
 1765SOL    HW1 7192   6.014   2.753   8.830
 1765SOL    HW2 7193   6.071   2.635   8.907
 1766SOL     OW 7194   7.662  14.131   2.279
 1766SOL    HW1 7195   7.719  14.122   2.355
 1766SOL    HW2 7196   7.705  14.197   2.225
 1767SOL     OW 7197   0.994   0.183   0.748
 1767SOL    HW1 7198   1.044   0.153   0.672
 1767SOL    HW2 7199   0.976   0.104   0.798
 1768SOL     OW 7200   0.843   3.146   7.726
 1768SOL    HW1 7201   0.929   3.128   7.688
 1768SOL    HW2 7202   0.781   3.117   7.660
 1769SOL     OW 7203  13.009   7.480   9.429
 1769SOL    HW1 7204  12.976   7.478   9.339
 1769SOL    HW2 7205  13.098   7.447   9.423
 1770SOL     OW 7206  10.540   6.575  13.649
 1770SOL    HW1 7207  10.531   6.598  13.557
 1770SOL    HW2 7208  10.613   6.629  13.680
 1771SOL     OW 7209   9.897  11.007   8.272
 1771SOL    HW1 7210   9.828  11.073   8.280
 1771SOL    HW2 7211   9.929  10.996   8.361
 1772SOL     OW 7212   7.942   1.006   3.194
 1772SOL    HW1 7213   7.878   0.997   3.265
 1772SOL    HW2 7214   7.913   0.943   3.128
 1773SOL     OW 7215  13.099   0.248   4.960
 1773SOL    HW1 7216  13.009   0.239   4.991
 1773SOL    HW2 7217  13.146   0.174   5.001
 1774SOL     OW 7218   4.177   1.932   8.160
 1774SOL    HW1 7219   4.188   2.021   8.125
 1774SOL    HW2 7220   4.262   1.890   8.147
 1775SOL     OW 7221   2.928   0.244   7.830
 1775SOL    HW1 7222   2.956   0.313   7.890
 1775SOL    HW2 7223   2.986   0.253   7.754
 1776SOL     OW 7224   0.476   4.815  14.189
 1776SOL    HW1 7225   0.539   4.838  14.121
 1776SOL    HW2 7226   0.391   4.818  14.145
 1777SOL     OW 7227   4.209   9.775   9.162
 1777SOL    HW1 7228   4.118   9.773   9.192
 1777SOL    HW2 7229   4.220   9.693   9.114
 1778SOL     OW 7230  13.981   2.335  11.334
 1778SOL    HW1 7231  13.979   2.431  11.335
 1778SOL    HW2 7232  14.029   2.311  11.413
 1779SOL     OW 7233   6.773   0.831   6.727
 1779SOL    HW1 7234   6.702   0.860   6.670
 1779SOL    HW2 7235   6.756   0.873   6.811
 1780SOL     OW 7236  14.440   0.121  14.321
 1780SOL    HW1 7237  14.395   0.058  14.263
 1780SOL    HW2 7238  14.370   0.161  14.372
 1781SOL     OW 7239   5.052   1.937   2.071
 1781SOL    HW1 7240   5.059   1.978   2.157
 1781SOL    HW2 7241   5.036   2.009   2.011
 1782SOL     OW 7242  11.738   7.882   7.881
 1782SOL    HW1 7243  11.723   7.900   7.973
 1782SOL    HW2 7244  11.820   7.927   7.861
 1783SOL     OW 7245  12.399   7.872   4.399
 1783SOL    HW1 7246  12.438   7.955   4.427
 1783SOL    HW2 7247  12.470   7.809   4.405
 1784SOL     OW 7248   2.411   5.319   2.873
 1784SOL    HW1 7249   2.390   5.311   2.967
 1784SOL    HW2 7250   2.498   5.282   2.865
 1785SOL     OW 7251  10.432   9.704   1.081
 1785SOL    HW1 7252  10.508   9.649   1.062
 1785SOL    HW2 7253  10.457   9.753   1.159
 1786SOL     OW 7254   7.786  10.911   0.164
 1786SOL    HW1 7255   7.707  10.909   0.110
 1786SOL    HW2 7256   7.858  10.918   0.101
 1787SOL     OW 7257  10.301   9.921   0.804
 1787SOL    HW1 7258  10.390   9.948   0.781
 1787SOL    HW2 7259  10.249   9.942   0.726
 1788SOL     OW 7260   7.346   3.455   5.867
 1788SOL    HW1 7261   7.392   3.532   5.832
 1788SOL    HW2 7262   7.412   3.411   5.921
 1789SOL     OW 7263  11.937  10.595   9.676
 1789SOL    HW1 7264  11.905  10.505   9.680
 1789SOL    HW2 7265  12.023  10.592   9.718
 1790SOL     OW 7266  13.091   3.933   8.465
 1790SOL    HW1 7267  13.096   3.968   8.554
 1790SOL    HW2 7268  13.015   3.978   8.426
 1791SOL     OW 7269   9.204   1.178  13.073
 1791SOL    HW1 7270   9.285   1.140  13.105
 1791SOL    HW2 7271   9.211   1.173  12.978
 1792SOL     OW 7272  12.334  12.412   5.580
 1792SOL    HW1 7273  12.309  12.442   5.668
 1792SOL    HW2 7274  12.428  12.395   5.587
 1793SOL     OW 7275   5.484   6.270   1.599
 1793SOL    HW1 7276   5.412   6.226   1.554
 1793SOL    HW2 7277   5.512   6.208   1.665
 1794SOL     OW 7278  13.130   7.446   1.751
 1794SOL    HW1 7279  13.211   7.415   1.711
 1794SOL    HW2 7280  13.149   7.449   1.845
 1795SOL     OW 7281  11.754   4.333   3.084
 1795SOL    HW1 7282  11.776   4.367   3.170
 1795SOL    HW2 7283  11.660   4.316   3.088
 1796SOL     OW 7284  12.087  11.624  11.130
 1796SOL    HW1 7285  12.067  11.559  11.198
 1796SOL    HW2 7286  12.073  11.578  11.048
 1797SOL     OW 7287   7.737  12.318   6.598
 1797SOL    HW1 7288   7.822  12.276   6.588
 1797SOL    HW2 7289   7.692  12.301   6.515
 1798SOL     OW 7290  10.344   5.042   9.677
 1798SOL    HW1 7291  10.314   4.981   9.745
 1798SOL    HW2 7292  10.278   5.036   9.608
 1799SOL     OW 7293   4.781  14.605   4.896
 1799SOL    HW1 7294   4.689  14.612   4.919
 1799SOL    HW2 7295   4.824  14.575   4.977
 1800SOL     OW 7296   2.882   3.051   4.567
 1800SOL    HW1 7297   2.866   2.962   4.535
 1800SOL    HW2 7298   2.801   3.098   4.548
 1801SOL     OW 7299   5.751   5.523  12.261
 1801SOL    HW1 7300   5.780   5.525  12.352
 1801SOL    HW2 7301   5.694   5.446  12.256
 1802SOL     OW 7302   8.269  13.036   1.017
 1802SOL    HW1 7303   8.242  13.051   0.927
 1802SOL    HW2 7304   8.225  12.955   1.042
 1803SOL     OW 7305  10.653   1.242   9.354
 1803SOL    HW1 7306  10.622   1.324   9.317
 1803SOL    HW2 7307  10.586   1.217   9.418
 1804SOL     OW 7308  11.571   5.325   2.286
 1804SOL    HW1 7309  11.600   5.318   2.195
 1804SOL    HW2 7310  11.532   5.412   2.293
 1805SOL     OW 7311   4.014  14.357   8.083
 1805SOL    HW1 7312   4.060  14.441   8.086
 1805SOL    HW2 7313   3.922  14.380   8.097
 1806SOL     OW 7314   6.313   2.449  12.321
 1806SOL    HW1 7315   6.233   2.425  12.368
 1806SOL    HW2 7316   6.367   2.370  12.323
 1807SOL     OW 7317   0.307   5.493   4.316
 1807SOL    HW1 7318   0.399   5.517   4.327
 1807SOL    HW2 7319   0.277   5.472   4.405
 1808SOL     OW 7320   4.591   7.928  10.093
 1808SOL    HW1 7321   4.651   7.861  10.125
 1808SOL    HW2 7322   4.552   7.889  10.014
 1809SOL     OW 7323   4.987  13.156  14.525
 1809SOL    HW1 7324   4.895  13.183  14.522
 1809SOL    HW2 7325   5.035  13.236  14.546
 1810SOL     OW 7326  10.589   1.301   7.219
 1810SOL    HW1 7327  10.517   1.345   7.266
 1810SOL    HW2 7328  10.631   1.247   7.286
 1811SOL     OW 7329   0.976   5.553   1.188
 1811SOL    HW1 7330   1.024   5.625   1.229
 1811SOL    HW2 7331   0.898   5.542   1.242
 1812SOL     OW 7332   1.972  12.438   5.477
 1812SOL    HW1 7333   2.054  12.445   5.527
 1812SOL    HW2 7334   1.977  12.353   5.435
 1813SOL     OW 7335   5.658  14.127   0.664
 1813SOL    HW1 7336   5.650  14.140   0.569
 1813SOL    HW2 7337   5.685  14.035   0.673
 1814SOL     OW 7338   7.547  12.933   6.023
 1814SOL    HW1 7339   7.461  12.955   5.989
 1814SOL    HW2 7340   7.571  12.851   5.978
 1815SOL     OW 7341   6.987   2.212   9.595
 1815SOL    HW1 7342   7.042   2.133   9.594
 1815SOL    HW2 7343   7.009   2.257   9.513
 1816SOL     OW 7344   1.699   8.787  13.500
 1816SOL    HW1 7345   1.660   8.773  13.586
 1816SOL    HW2 7346   1.723   8.700  13.469
 1817SOL     OW 7347  11.554   3.226   8.079
 1817SOL    HW1 7348  11.489   3.178   8.131
 1817SOL    HW2 7349  11.636   3.176   8.092
 1818SOL     OW 7350  14.599   1.877  12.094
 1818SOL    HW1 7351  14.573   1.794  12.134
 1818SOL    HW2 7352  14.617   1.855  12.003
 1819SOL     OW 7353   7.073   0.938  11.456
 1819SOL    HW1 7354   7.026   0.895  11.527
 1819SOL    HW2 7355   7.130   0.871  11.420
 1820SOL     OW 7356   8.773   7.048  12.650
 1820SOL    HW1 7357   8.776   7.128  12.597
 1820SOL    HW2 7358   8.851   7.054  12.706
 1821SOL     OW 7359   4.701  10.390  14.868
 1821SOL    HW1 7360   4.660  10.323   0.051
 1821SOL    HW2 7361   4.756  10.341  14.808
 1822SOL     OW 7362   0.153  12.835   4.043
 1822SOL    HW1 7363   0.116  12.876   4.121
 1822SOL    HW2 7364   0.179  12.908   3.988
 1823SOL     OW 7365   3.979  12.652   6.564
 1823SOL    HW1 7366   3.932  12.685   6.641
 1823SOL    HW2 7367   4.064  12.697   6.567
 1824SOL     OW 7368   6.473  11.673   4.624
 1824SOL    HW1 7369   6.523  11.612   4.571
 1824SOL    HW2 7370   6.510  11.759   4.604
 1825SOL     OW 7371  11.327   7.521  14.715
 1825SOL    HW1 7372  11.422   7.515  14.698
 1825SOL    HW2 7373  11.307   7.614  14.702
 1826SOL     OW 7374   9.286   2.834  12.219
 1826SOL    HW1 7375   9.281   2.811  12.311
 1826SOL    HW2 7376   9.270   2.929  12.216
 1827SOL     OW 7377  14.289   1.657   9.673
 1827SOL    HW1 7378  14.217   1.711   9.641
 1827SOL    HW2 7379  14.310   1.694   9.759
 1828SOL     OW 7380   4.671  10.643   9.962
 1828SOL    HW1 7381   4.760  10.648   9.998
 1828SOL    HW2 7382   4.676  10.574   9.896
 1829SOL     OW 7383   4.931   4.370  12.715
 1829SOL    HW1 7384   4.879   4.324  12.650
 1829SOL    HW2 7385   5.004   4.407  12.665
 1830SOL     OW 7386  11.442  10.269   9.867
 1830SOL    HW1 7387  11.395  10.218   9.933
 1830SOL    HW2 7388  11.514  10.212   9.839
 1831SOL     OW 7389  14.484   5.182  12.441
 1831SOL    HW1 7390  14.441   5.235  12.374
 1831SOL    HW2 7391  14.495   5.096  12.399
 1832SOL     OW 7392   1.294   8.598  14.010
 1832SOL    HW1 7393   1.305   8.660  14.082
 1832SOL    HW2 7394   1.282   8.513  14.053
 1833SOL     OW 7395   0.795   5.303   8.488
 1833SOL    HW1 7396   0.838   5.380   8.526
 1833SOL    HW2 7397   0.760   5.334   8.404
 1834SOL     OW 7398  10.250  14.154   9.251
 1834SOL    HW1 7399  10.223  14.195   9.333
 1834SOL    HW2 7400  10.171  14.109   9.220
 1835SOL     OW 7401   9.251   4.834   6.750
 1835SOL    HW1 7402   9.297   4.791   6.678
 1835SOL    HW2 7403   9.231   4.764   6.812
 1836SOL     OW 7404   4.462  14.400   3.937
 1836SOL    HW1 7405   4.495  14.336   3.999
 1836SOL    HW2 7406   4.510  14.384   3.856
 1837SOL     OW 7407   4.068   2.367  13.177
 1837SOL    HW1 7408   4.144   2.337  13.127
 1837SOL    HW2 7409   4.075   2.462  13.177
 1838SOL     OW 7410   3.914   2.401  11.478
 1838SOL    HW1 7411   3.992   2.443  11.443
 1838SOL    HW2 7412   3.940   2.370  11.564
 1839SOL     OW 7413   2.291  13.910   0.350
 1839SOL    HW1 7414   2.246  13.846   0.406
 1839SOL    HW2 7415   2.220  13.964   0.313
 1840SOL     OW 7416  14.325   1.741   7.080
 1840SOL    HW1 7417  14.252   1.800   7.096
 1840SOL    HW2 7418  14.286   1.653   7.082
 1841SOL     OW 7419  10.003  12.260   6.566
 1841SOL    HW1 7420   9.975  12.228   6.480
 1841SOL    HW2 7421  10.098  12.268   6.558
 1842SOL     OW 7422   7.019  10.903   3.411
 1842SOL    HW1 7423   7.046  10.826   3.361
 1842SOL    HW2 7424   6.989  10.867   3.495
 1843SOL     OW 7425   7.490  14.020  13.821
 1843SOL    HW1 7426   7.493  13.993  13.729
 1843SOL    HW2 7427   7.408  14.068  13.830
 1844SOL     OW 7428   6.182  11.650   9.533
 1844SOL    HW1 7429   6.222  11.605   9.607
 1844SOL    HW2 7430   6.090  11.624   9.536
 1845SOL     OW 7431   9.431   1.891   3.071
 1845SOL    HW1 7432   9.414   1.985   3.070
 1845SOL    HW2 7433   9.515   1.882   3.117
 1846SOL     OW 7434   6.423   0.223  14.037
 1846SOL    HW1 7435   6.454   0.290  14.098
 1846SOL    HW2 7436   6.432   0.264  13.951
 1847SOL     OW 7437  12.317   0.526   9.731
 1847SOL    HW1 7438  12.406   0.519   9.766
 1847SOL    HW2 7439  12.283   0.607   9.770
 1848SOL     OW 7440  11.106   0.732   8.054
 1848SOL    HW1 7441  11.174   0.734   7.987
 1848SOL    HW2 7442  11.121   0.650   8.101
 1849SOL     OW 7443   7.969   9.060  10.448
 1849SOL    HW1 7444   7.974   9.116  10.371
 1849SOL    HW2 7445   7.951   8.973  10.413
 1850SOL     OW 7446   0.097  13.782  14.545
 1850SOL    HW1 7447   0.157  13.836  14.597
 1850SOL    HW2 7448   0.151  13.709  14.514
 1851SOL     OW 7449  10.559   8.376  13.251
 1851SOL    HW1 7450  10.653   8.381  13.267
 1851SOL    HW2 7451  10.546   8.420  13.167
 1852SOL     OW 7452   8.522   9.315   0.968
 1852SOL    HW1 7453   8.438   9.333   0.925
 1852SOL    HW2 7454   8.506   9.332   1.060
 1853SOL     OW 7455   1.362  11.070   8.698
 1853SOL    HW1 7456   1.316  11.007   8.643
 1853SOL    HW2 7457   1.449  11.032   8.711
 1854SOL     OW 7458   9.317  10.111  11.309
 1854SOL    HW1 7459   9.339  10.070  11.392
 1854SOL    HW2 7460   9.245  10.058  11.275
 1855SOL     OW 7461   9.759   6.161  12.227
 1855SOL    HW1 7462   9.708   6.112  12.162
 1855SOL    HW2 7463   9.849   6.133  12.211
 1856SOL     OW 7464  11.396  10.692   9.434
 1856SOL    HW1 7465  11.490  10.707   9.431
 1856SOL    HW2 7466  11.372  10.705   9.526
 1857SOL     OW 7467   0.580   3.409   1.322
 1857SOL    HW1 7468   0.629   3.488   1.340
 1857SOL    HW2 7469   0.531   3.428   1.241
 1858SOL     OW 7470   1.026   5.923   7.133
 1858SOL    HW1 7471   1.116   5.895   7.119
 1858SOL    HW2 7472   1.015   5.922   7.228
 1859SOL     OW 7473  13.924   1.579  10.151
 1859SOL    HW1 7474  13.923   1.484  10.162
 1859SOL    HW2 7475  13.980   1.593  10.074
 1860SOL     OW 7476  11.050   1.425   1.090
 1860SOL    HW1 7477  11.146   1.426   1.095
 1860SOL    HW2 7478  11.030   1.351   1.033
 1861SOL     OW 7479  11.681  14.308   7.151
 1861SOL    HW1 7480  11.628  14.272   7.222
 1861SOL    HW2 7481  11.683  14.402   7.168
 1862SOL     OW 7482   3.440   5.402   6.966
 1862SOL    HW1 7483   3.421   5.494   6.949
 1862SOL    HW2 7484   3.369   5.373   7.023
 1863SOL     OW 7485   8.348   9.956   0.277
 1863SOL    HW1 7486   8.429   9.994   0.242
 1863SOL    HW2 7487   8.350   9.978   0.370
 1864SOL     OW 7488  12.800   6.183   8.865
 1864SOL    HW1 7489  12.895   6.197   8.861
 1864SOL    HW2 7490  12.764   6.237   8.795
 1865SOL     OW 7491  10.177  12.381   2.001
 1865SOL    HW1 7492  10.227  12.310   1.960
 1865SOL    HW2 7493  10.163  12.443   1.930
 1866SOL     OW 7494  11.673   4.530   6.109
 1866SOL    HW1 7495  11.579   4.529   6.126
 1866SOL    HW2 7496  11.710   4.583   6.180
 1867SOL     OW 7497   3.487   8.877   1.425
 1867SOL    HW1 7498   3.583   8.881   1.422
 1867SOL    HW2 7499   3.458   8.928   1.349
 1868SOL     OW 7500  11.113   9.726   9.172
 1868SOL    HW1 7501  11.109   9.797   9.107
 1868SOL    HW2 7502  11.022   9.711   9.197
 1869SOL     OW 7503  10.359   6.349  14.865
 1869SOL    HW1 7504  10.404   6.433  14.854
 1869SOL    HW2 7505  10.382   6.322   0.083
 1870SOL     OW 7506  14.244   9.367   9.807
 1870SOL    HW1 7507  14.247   9.425   9.731
 1870SOL    HW2 7508  14.151   9.358   9.827
 1871SOL     OW 7509   3.192   1.649  11.280
 1871SOL    HW1 7510   3.157   1.734  11.254
 1871SOL    HW2 7511   3.228   1.665  11.368
 1872SOL     OW 7512  12.443   8.749   1.969
 1872SOL    HW1 7513  12.418   8.760   2.060
 1872SOL    HW2 7514  12.416   8.659   1.948
 1873SOL     OW 7515  13.519   4.726   8.753
 1873SOL    HW1 7516  13.530   4.719   8.658
 1873SOL    HW2 7517  13.483   4.814   8.766
 1874SOL     OW 7518   8.059   6.303   1.611
 1874SOL    HW1 7519   8.083   6.367   1.678
 1874SOL    HW2 7520   7.965   6.288   1.626
 1875SOL     OW 7521   4.369   9.053   5.684
 1875SOL    HW1 7522   4.350   8.985   5.620
 1875SOL    HW2 7523   4.342   9.014   5.768
 1876SOL     OW 7524  10.301   2.507   9.463
 1876SOL    HW1 7525  10.379   2.516   9.517
 1876SOL    HW2 7526  10.307   2.578   9.400
 1877SOL     OW 7527  11.002  14.182  14.503
 1877SOL    HW1 7528  10.965  14.096  14.484
 1877SOL    HW2 7529  11.097  14.169  14.499
 1878SOL     OW 7530  11.283   5.419   6.160
 1878SOL    HW1 7531  11.318   5.411   6.071
 1878SOL    HW2 7532  11.246   5.507   6.163
 1879SOL     OW 7533   9.107   3.782  13.222
 1879SOL    HW1 7534   9.026   3.731  13.213
 1879SOL    HW2 7535   9.091   3.839  13.297
 1880SOL     OW 7536  13.145   6.208  12.734
 1880SOL    HW1 7537  13.124   6.165  12.651
 1880SOL    HW2 7538  13.076   6.274  12.745
 1881SOL     OW 7539  14.062  12.603  12.135
 1881SOL    HW1 7540  13.966  12.594  12.134
 1881SOL    HW2 7541  14.083  12.623  12.226
 1882SOL     OW 7542  10.080  12.036   7.936
 1882SOL    HW1 7543  10.135  12.110   7.912
 1882SOL    HW2 7544   9.991  12.068   7.930
 1883SOL     OW 7545  12.627   3.889   0.584
 1883SOL    HW1 7546  12.692   3.937   0.635
 1883SOL    HW2 7547  12.668   3.804   0.566
 1884SOL     OW 7548   1.855   6.189   4.620
 1884SOL    HW1 7549   1.882   6.274   4.655
 1884SOL    HW2 7550   1.883   6.190   4.529
 1885SOL     OW 7551  12.646   1.799   5.500
 1885SOL    HW1 7552  12.636   1.706   5.482
 1885SOL    HW2 7553  12.558   1.835   5.486
 1886SOL     OW 7554  12.775   4.686   5.175
 1886SOL    HW1 7555  12.704   4.747   5.197
 1886SOL    HW2 7556  12.825   4.731   5.107
 1887SOL     OW 7557   2.312   4.016  12.421
 1887SOL    HW1 7558   2.219   4.025  12.400
 1887SOL    HW2 7559   2.332   4.092  12.475
 1888SOL     OW 7560  11.665  12.806  10.439
 1888SOL    HW1 7561  11.733  12.866  10.409
 1888SOL    HW2 7562  11.634  12.763  10.359
 1889SOL     OW 7563   3.546  11.426   1.800
 1889SOL    HW1 7564   3.533  11.503   1.744
 1889SOL    HW2 7565   3.472  11.369   1.780
 1890SOL     OW 7566  10.795   8.776   1.945
 1890SOL    HW1 7567  10.830   8.760   1.857
 1890SOL    HW2 7568  10.769   8.689   1.976
 1891SOL     OW 7569   7.587  13.174   4.171
 1891SOL    HW1 7570   7.605  13.263   4.143
 1891SOL    HW2 7571   7.608  13.174   4.265
 1892SOL     OW 7572   5.616  14.015   1.723
 1892SOL    HW1 7573   5.578  13.951   1.783
 1892SOL    HW2 7574   5.555  14.019   1.650
 1893SOL     OW 7575   3.038   5.049   0.230
 1893SOL    HW1 7576   3.058   5.038   0.137
 1893SOL    HW2 7577   3.004   4.964   0.257
 1894SOL     OW 7578  12.095   2.413   6.479
 1894SOL    HW1 7579  12.089   2.474   6.405
 1894SOL    HW2 7580  12.156   2.346   6.450
 1895SOL     OW 7581  11.625   3.633   8.324
 1895SOL    HW1 7582  11.718   3.653   8.325
 1895SOL    HW2 7583  11.611   3.587   8.242
 1896SOL     OW 7584  13.887   8.609   9.251
 1896SOL    HW1 7585  13.853   8.616   9.162
 1896SOL    HW2 7586  13.958   8.673   9.255
 1897SOL     OW 7587   0.394  10.652   1.832
 1897SOL    HW1 7588   0.314  10.678   1.788
 1897SOL    HW2 7589   0.376  10.563   1.863
 1898SOL     OW 7590  13.397   6.977   3.802
 1898SOL    HW1 7591  13.457   7.012   3.867
 1898SOL    HW2 7592  13.396   7.043   3.732
 1899SOL     OW 7593   2.704   9.508   2.249
 1899SOL    HW1 7594   2.762   9.435   2.271
 1899SOL    HW2 7595   2.656   9.478   2.172
 1900SOL     OW 7596   5.192   6.647   0.174
 1900SOL    HW1 7597   5.130   6.718   0.190
 1900SOL    HW2 7598   5.277   6.690   0.171
 1901SOL     OW 7599  13.007   7.177  10.073
 1901SOL    HW1 7600  13.074   7.245  10.067
 1901SOL    HW2 7601  13.047   7.109  10.126
 1902SOL     OW 7602   2.624   0.280  11.646
 1902SOL    HW1 7603   2.647   0.210  11.585
 1902SOL    HW2 7604   2.623   0.238  11.732
 1903SOL     OW 7605   4.643   6.225   9.011
 1903SOL    HW1 7606   4.660   6.136   8.980
 1903SOL    HW2 7607   4.580   6.213   9.082
 1904SOL     OW 7608  10.706   1.654   3.533
 1904SOL    HW1 7609  10.763   1.717   3.490
 1904SOL    HW2 7610  10.684   1.694   3.617
 1905SOL     OW 7611   9.736   9.849  14.787
 1905SOL    HW1 7612   9.763   9.931  14.829
 1905SOL    HW2 7613   9.755   9.862  14.694
 1906SOL     OW 7614  11.700   3.048  12.428
 1906SOL    HW1 7615  11.613   3.063  12.466
 1906SOL    HW2 7616  11.758   3.044  12.504
 1907SOL     OW 7617   1.464  12.252  14.247
 1907SOL    HW1 7618   1.448  12.280  14.157
 1907SOL    HW2 7619   1.553  12.216  14.245
 1908SOL     OW 7620  12.257   2.730   8.092
 1908SOL    HW1 7621  12.292   2.660   8.036
 1908SOL    HW2 7622  12.175   2.694   8.126
 1909SOL     OW 7623   4.787  11.996  10.364
 1909SOL    HW1 7624   4.717  12.029  10.308
 1909SOL    HW2 7625   4.801  11.906  10.334
 1910SOL     OW 7626   2.723  12.464   4.747
 1910SOL    HW1 7627   2.718  12.369   4.762
 1910SOL    HW2 7628   2.808  12.478   4.707
 1911SOL     OW 7629   6.739   1.225  14.514
 1911SOL    HW1 7630   6.725   1.132  14.532
 1911SOL    HW2 7631   6.825   1.244  14.552
 1912SOL     OW 7632   0.068   1.088   2.883
 1912SOL    HW1 7633  14.866   1.035   2.851
 1912SOL    HW2 7634   0.036   1.126   2.965
 1913SOL     OW 7635  13.196  10.705   0.042
 1913SOL    HW1 7636  13.270  10.744  14.866
 1913SOL    HW2 7637  13.234  10.633   0.092
 1914SOL     OW 7638   4.141   4.448   7.990
 1914SOL    HW1 7639   4.061   4.441   8.043
 1914SOL    HW2 7640   4.149   4.362   7.948
 1915SOL     OW 7641   9.700   1.880  11.526
 1915SOL    HW1 7642   9.605   1.874  11.533
 1915SOL    HW2 7643   9.716   1.909  11.436
 1916SOL     OW 7644   5.038  14.186   6.469
 1916SOL    HW1 7645   5.107  14.252   6.467
 1916SOL    HW2 7646   5.063  14.127   6.540
 1917SOL     OW 7647  10.943   6.740   3.186
 1917SOL    HW1 7648  11.025   6.766   3.229
 1917SOL    HW2 7649  10.874   6.778   3.241
 1918SOL     OW 7650   6.386   3.003   4.193
 1918SOL    HW1 7651   6.332   2.961   4.126
 1918SOL    HW2 7652   6.326   3.021   4.265
 1919SOL     OW 7653   3.005   4.070   8.250
 1919SOL    HW1 7654   2.948   4.052   8.325
 1919SOL    HW2 7655   2.985   4.161   8.227
 1920SOL     OW 7656   1.945   7.616   6.108
 1920SOL    HW1 7657   1.911   7.615   6.018
 1920SOL    HW2 7658   1.929   7.528   6.141
 1921SOL     OW 7659   5.372   1.377  12.131
 1921SOL    HW1 7660   5.315   1.315  12.088
 1921SOL    HW2 7661   5.448   1.325  12.158
 1922SOL     OW 7662   6.763  10.048   9.664
 1922SOL    HW1 7663   6.760  10.067   9.570
 1922SOL    HW2 7664   6.857  10.044   9.685
 1923SOL     OW 7665  13.256   7.131  12.940
 1923SOL    HW1 7666  13.260   7.202  12.876
 1923SOL    HW2 7667  13.185   7.075  12.908
 1924SOL     OW 7668  13.958  12.081   9.854
 1924SOL    HW1 7669  13.986  12.046   9.770
 1924SOL    HW2 7670  14.039  12.089   9.905
 1925SOL     OW 7671   6.350  12.239   1.736
 1925SOL    HW1 7672   6.442  12.264   1.730
 1925SOL    HW2 7673   6.351  12.144   1.747
 1926SOL     OW 7674   5.374   3.353   6.353
 1926SOL    HW1 7675   5.452   3.322   6.307
 1926SOL    HW2 7676   5.386   3.448   6.357
 1927SOL     OW 7677   5.882   7.021   2.563
 1927SOL    HW1 7678   5.878   7.018   2.659
 1927SOL    HW2 7679   5.949   7.086   2.544
 1928SOL     OW 7680   9.127   8.550   8.457
 1928SOL    HW1 7681   9.071   8.473   8.460
 1928SOL    HW2 7682   9.159   8.559   8.547
 1929SOL     OW 7683   5.315   2.099  10.379
 1929SOL    HW1 7684   5.279   2.162  10.316
 1929SOL    HW2 7685   5.406   2.127  10.390
 1930SOL     OW 7686   8.865   0.479   0.735
 1930SOL    HW1 7687   8.864   0.408   0.800
 1930SOL    HW2 7688   8.932   0.452   0.672
 1931SOL     OW 7689   7.260  14.146   0.064
 1931SOL    HW1 7690   7.299  14.215   0.010
 1931SOL    HW2 7691   7.167  14.147   0.041
 1932SOL     OW 7692   5.484   9.533   9.522
 1932SOL    HW1 7693   5.512   9.485   9.600
 1932SOL    HW2 7694   5.398   9.569   9.545
 1933SOL     OW 7695   8.364   8.288   1.810
 1933SOL    HW1 7696   8.269   8.299   1.808
 1933SOL    HW2 7697   8.385   8.276   1.903
 1934SOL     OW 7698   3.475   5.765  10.627
 1934SOL    HW1 7699   3.462   5.850  10.586
 1934SOL    HW2 7700   3.424   5.704  10.574
 1935SOL     OW 7701   1.526   5.018  11.563
 1935SOL    HW1 7702   1.465   5.025  11.489
 1935SOL    HW2 7703   1.554   5.108  11.580
 1936SOL     OW 7704   6.971   3.622   8.204
 1936SOL    HW1 7705   6.934   3.652   8.121
 1936SOL    HW2 7706   6.949   3.529   8.208
 1937SOL     OW 7707  14.773   2.798  13.195
 1937SOL    HW1 7708  14.810   2.880  13.162
 1937SOL    HW2 7709  14.771   2.740  13.119
 1938SOL     OW 7710   4.240   9.960  12.523
 1938SOL    HW1 7711   4.274   9.897  12.460
 1938SOL    HW2 7712   4.283   9.937  12.606
 1939SOL     OW 7713   9.707   9.579   4.868
 1939SOL    HW1 7714   9.693   9.647   4.934
 1939SOL    HW2 7715   9.687   9.621   4.785
 1940SOL     OW 7716  14.593   1.817   2.743
 1940SOL    HW1 7717  14.535   1.848   2.674
 1940SOL    HW2 7718  14.575   1.723   2.749
 1941SOL     OW 7719   1.908   7.304   9.611
 1941SOL    HW1 7720   1.979   7.368   9.604
 1941SOL    HW2 7721   1.888   7.301   9.705
 1942SOL     OW 7722   7.384   8.797   8.310
 1942SOL    HW1 7723   7.324   8.864   8.277
 1942SOL    HW2 7724   7.445   8.844   8.366
 1943SOL     OW 7725   6.237   1.641  13.033
 1943SOL    HW1 7726   6.265   1.726  13.001
 1943SOL    HW2 7727   6.296   1.579  12.990
 1944SOL     OW 7728   2.857  12.019   4.559
 1944SOL    HW1 7729   2.887  11.950   4.618
 1944SOL    HW2 7730   2.878  11.986   4.471
 1945SOL     OW 7731  11.194   5.841   0.685
 1945SOL    HW1 7732  11.103   5.870   0.684
 1945SOL    HW2 7733  11.245   5.922   0.694
 1946SOL     OW 7734  12.397   0.946  11.416
 1946SOL    HW1 7735  12.454   0.918  11.488
 1946SOL    HW2 7736  12.457   0.972  11.347
 1947SOL     OW 7737   9.709  14.434  12.147
 1947SOL    HW1 7738   9.790  14.390  12.120
 1947SOL    HW2 7739   9.725  14.461  12.237
 1948SOL     OW 7740  12.658   6.368   5.034
 1948SOL    HW1 7741  12.644   6.302   4.966
 1948SOL    HW2 7742  12.593   6.435   5.015
 1949SOL     OW 7743   3.738  14.265   4.896
 1949SOL    HW1 7744   3.828  14.250   4.927
 1949SOL    HW2 7745   3.737  14.357   4.872
 1950SOL     OW 7746   0.140  13.916   3.291
 1950SOL    HW1 7747   0.080  13.990   3.281
 1950SOL    HW2 7748   0.100  13.861   3.358
 1951SOL     OW 7749  13.961  10.738  14.144
 1951SOL    HW1 7750  14.017  10.813  14.125
 1951SOL    HW2 7751  13.985  10.673  14.079
 1952SOL     OW 7752  14.421   4.619   4.348
 1952SOL    HW1 7753  14.328   4.598   4.356
 1952SOL    HW2 7754  14.423   4.700   4.298
 1953SOL     OW 7755  12.961   4.949   2.758
 1953SOL    HW1 7756  12.902   5.024   2.758
 1953SOL    HW2 7757  13.046   4.985   2.782
 1954SOL     OW 7758   7.318   4.797   6.450
 1954SOL    HW1 7759   7.278   4.882   6.463
 1954SOL    HW2 7760   7.288   4.768   6.364
 1955SOL     OW 7761   0.541   2.531   2.985
 1955SOL    HW1 7762   0.565   2.483   2.906
 1955SOL    HW2 7763   0.508   2.464   3.045
 1956SOL     OW 7764   4.072  13.044   0.437
 1956SOL    HW1 7765   4.097  12.955   0.461
 1956SOL    HW2 7766   4.121  13.100   0.497
 1957SOL     OW 7767   1.919   7.044  11.669
 1957SOL    HW1 7768   1.872   7.034  11.752
 1957SOL    HW2 7769   1.997   7.094  11.692
 1958SOL     OW 7770   3.134   8.180   7.928
 1958SOL    HW1 7771   3.047   8.153   7.898
 1958SOL    HW2 7772   3.192   8.164   7.854
 1959SOL     OW 7773   4.652   1.197   6.178
 1959SOL    HW1 7774   4.664   1.104   6.160
 1959SOL    HW2 7775   4.602   1.230   6.103
 1960SOL     OW 7776  10.861   4.985  14.806
 1960SOL    HW1 7777  10.783   4.995  14.751
 1960SOL    HW2 7778  10.857   4.894  14.835
 1961SOL     OW 7779   7.283   3.022   1.140
 1961SOL    HW1 7780   7.213   2.978   1.093
 1961SOL    HW2 7781   7.333   2.951   1.182
 1962SOL     OW 7782  12.421  10.300   7.204
 1962SOL    HW1 7783  12.480  10.357   7.153
 1962SOL    HW2 7784  12.474  10.222   7.222
 1963SOL     OW 7785   3.033  10.255   7.509
 1963SOL    HW1 7786   3.062  10.311   7.581
 1963SOL    HW2 7787   2.986  10.313   7.450
 1964SOL     OW 7788   0.168   5.500   7.013
 1964SOL    HW1 7789   0.130   5.587   7.022
 1964SOL    HW2 7790   0.097   5.440   7.032
 1965SOL     OW 7791   0.970  10.472  10.102
 1965SOL    HW1 7792   1.017  10.461  10.019
 1965SOL    HW2 7793   0.954  10.566  10.108
 1966SOL     OW 7794   3.803   5.924   1.886
 1966SOL    HW1 7795   3.793   5.878   1.969
 1966SOL    HW2 7796   3.818   5.855   1.821
 1967SOL     OW 7797  14.704   5.739  12.366
 1967SOL    HW1 7798  14.694   5.644  12.373
 1967SOL    HW2 7799  14.792   5.757  12.400
 1968SOL     OW 7800   6.545   8.246   6.526
 1968SOL    HW1 7801   6.528   8.198   6.607
 1968SOL    HW2 7802   6.576   8.179   6.465
 1969SOL     OW 7803  10.889   1.437  10.294
 1969SOL    HW1 7804  10.909   1.521  10.334
 1969SOL    HW2 7805  10.974   1.394  10.283
 1970SOL     OW 7806   7.113  13.294   5.876
 1970SOL    HW1 7807   7.084  13.232   5.809
 1970SOL    HW2 7808   7.155  13.364   5.826
 1971SOL     OW 7809  10.152  12.946  13.172
 1971SOL    HW1 7810  10.202  13.025  13.151
 1971SOL    HW2 7811  10.137  12.903  13.088
 1972SOL     OW 7812  12.659   2.820  13.227
 1972SOL    HW1 7813  12.645   2.798  13.135
 1972SOL    HW2 7814  12.608   2.755  13.275
 1973SOL     OW 7815  11.657   4.414   5.283
 1973SOL    HW1 7816  11.587   4.478   5.268
 1973SOL    HW2 7817  11.689   4.392   5.196
 1974SOL     OW 7818   1.497  13.941  12.982
 1974SOL    HW1 7819   1.470  13.964  12.893
 1974SOL    HW2 7820   1.519  14.024  13.023
 1975SOL     OW 7821   4.636   2.164   1.896
 1975SOL    HW1 7822   4.699   2.095   1.919
 1975SOL    HW2 7823   4.586   2.127   1.823
 1976SOL     OW 7824   3.017   2.792  11.627
 1976SOL    HW1 7825   3.010   2.700  11.604
 1976SOL    HW2 7826   2.934   2.812  11.672
 1977SOL     OW 7827  11.557   5.951   4.601
 1977SOL    HW1 7828  11.490   5.946   4.669
 1977SOL    HW2 7829  11.629   5.898   4.635
 1978SOL     OW 7830   2.554  12.026   9.935
 1978SOL    HW1 7831   2.631  12.067   9.974
 1978SOL    HW2 7832   2.582  11.936   9.918
 1979SOL     OW 7833   4.456  14.150   9.700
 1979SOL    HW1 7834   4.421  14.068   9.735
 1979SOL    HW2 7835   4.530  14.169   9.758
 1980SOL     OW 7836   1.480   4.066   4.309
 1980SOL    HW1 7837   1.509   4.109   4.228
 1980SOL    HW2 7838   1.561   4.031   4.347
 1981SOL     OW 7839   8.811   9.682  11.992
 1981SOL    HW1 7840   8.752   9.752  12.018
 1981SOL    HW2 7841   8.818   9.626  12.069
 1982SOL     OW 7842   3.070   2.793   8.948
 1982SOL    HW1 7843   3.107   2.707   8.967
 1982SOL    HW2 7844   3.003   2.775   8.882
 1983SOL     OW 7845   3.741  11.518   5.019
 1983SOL    HW1 7846   3.815  11.574   5.042
 1983SOL    HW2 7847   3.697  11.501   5.102
 1984SOL     OW 7848  11.692   6.934  10.643
 1984SOL    HW1 7849  11.721   6.965  10.729
 1984SOL    HW2 7850  11.622   6.872  10.662
 1985SOL     OW 7851   8.316  10.162  14.209
 1985SOL    HW1 7852   8.356  10.086  14.166
 1985SOL    HW2 7853   8.227  10.164  14.175
 1986SOL     OW 7854   3.128   3.186   6.341
 1986SOL    HW1 7855   3.061   3.254   6.337
 1986SOL    HW2 7856   3.169   3.187   6.254
 1987SOL     OW 7857   9.280   4.391  13.448
 1987SOL    HW1 7858   9.236   4.415  13.529
 1987SOL    HW2 7859   9.304   4.475  13.407
 1988SOL     OW 7860  13.153   1.352   8.395
 1988SOL    HW1 7861  13.119   1.327   8.481
 1988SOL    HW2 7862  13.248   1.349   8.405
 1989SOL     OW 7863  12.892   5.101   4.100
 1989SOL    HW1 7864  12.872   5.135   4.187
 1989SOL    HW2 7865  12.898   5.179   4.045
 1990SOL     OW 7866   4.810   7.661   8.029
 1990SOL    HW1 7867   4.777   7.588   8.082
 1990SOL    HW2 7868   4.904   7.643   8.019
 1991SOL     OW 7869   0.440   4.497  10.335
 1991SOL    HW1 7870   0.383   4.564  10.373
 1991SOL    HW2 7871   0.517   4.545  10.306
 1992SOL     OW 7872  14.344   3.876  14.366
 1992SOL    HW1 7873  14.345   3.931  14.288
 1992SOL    HW2 7874  14.393   3.927  14.431
 1993SOL     OW 7875   0.803   8.139   6.359
 1993SOL    HW1 7876   0.751   8.199   6.305
 1993SOL    HW2 7877   0.752   8.128   6.439
 1994SOL     OW 7878  12.493   3.975   7.813
 1994SOL    HW1 7879  12.477   3.881   7.827
 1994SOL    HW2 7880  12.442   3.997   7.735
 1995SOL     OW 7881   2.985   6.953   6.774
 1995SOL    HW1 7882   2.903   6.907   6.795
 1995SOL    HW2 7883   2.958   7.022   6.713
 1996SOL     OW 7884   2.968  13.566   3.584
 1996SOL    HW1 7885   2.900  13.500   3.591
 1996SOL    HW2 7886   3.005  13.554   3.496
 1997SOL     OW 7887   4.074   4.529  13.572
 1997SOL    HW1 7888   4.144   4.468  13.548
 1997SOL    HW2 7889   4.026   4.544  13.491
 1998SOL     OW 7890  12.712   9.876   2.421
 1998SOL    HW1 7891  12.710   9.810   2.489
 1998SOL    HW2 7892  12.667   9.952   2.459
 1999SOL     OW 7893   2.664   8.883   2.737
 1999SOL    HW1 7894   2.578   8.857   2.704
 1999SOL    HW2 7895   2.659   8.978   2.744
 2000SOL     OW 7896   1.723  14.199   9.185
 2000SOL    HW1 7897   1.771  14.181   9.266
 2000SOL    HW2 7898   1.784  14.175   9.115
 2001SOL     OW 7899  12.762   6.869   6.509
 2001SOL    HW1 7900  12.795   6.831   6.590
 2001SOL    HW2 7901  12.841   6.895   6.461
 2002SOL     OW 7902   5.282   2.579   4.968
 2002SOL    HW1 7903   5.369   2.613   4.989
 2002SOL    HW2 7904   5.227   2.603   5.042
 2003SOL     OW 7905   6.152   8.998  11.412
 2003SOL    HW1 7906   6.155   9.077  11.359
 2003SOL    HW2 7907   6.105   9.024  11.492
 2004SOL     OW 7908  14.091   5.473  10.150
 2004SOL    HW1 7909  14.020   5.433  10.100
 2004SOL    HW2 7910  14.057   5.558  10.176
 2005SOL     OW 7911   1.657   0.067   5.596
 2005SOL    HW1 7912   1.569   0.104   5.598
 2005SOL    HW2 7913   1.679   0.053   5.689
 2006SOL     OW 7914   3.798   2.917   8.429
 2006SOL    HW1 7915   3.883   2.914   8.387
 2006SOL    HW2 7916   3.818   2.914   8.523
 2007SOL     OW 7917   5.749   3.265  13.227
 2007SOL    HW1 7918   5.775   3.200  13.162
 2007SOL    HW2 7919   5.663   3.296  13.196
 2008SOL     OW 7920   9.995   6.459   5.340
 2008SOL    HW1 7921  10.048   6.509   5.278
 2008SOL    HW2 7922   9.943   6.401   5.284
 2009SOL     OW 7923   1.017   9.000   1.411
 2009SOL    HW1 7924   1.045   8.930   1.352
 2009SOL    HW2 7925   1.080   9.071   1.396
 2010SOL     OW 7926   5.774   5.193   8.551
 2010SOL    HW1 7927   5.820   5.123   8.505
 2010SOL    HW2 7928   5.814   5.273   8.518
 2011SOL     OW 7929   8.311   9.796   5.230
 2011SOL    HW1 7930   8.361   9.843   5.164
 2011SOL    HW2 7931   8.296   9.860   5.300
 2012SOL     OW 7932   9.209   2.294   3.401
 2012SOL    HW1 7933   9.275   2.264   3.339
 2012SOL    HW2 7934   9.178   2.214   3.443
 2013SOL     OW 7935   0.603  13.354   9.680
 2013SOL    HW1 7936   0.596  13.311   9.765
 2013SOL    HW2 7937   0.660  13.429   9.695
 2014SOL     OW 7938   4.232   9.110  11.795
 2014SOL    HW1 7939   4.310   9.166  11.802
 2014SOL    HW2 7940   4.172   9.160  11.740
 2015SOL     OW 7941   5.287   8.377   6.957
 2015SOL    HW1 7942   5.352   8.311   6.934
 2015SOL    HW2 7943   5.255   8.351   7.044
 2016SOL     OW 7944   4.940  13.727   3.336
 2016SOL    HW1 7945   4.999  13.783   3.286
 2016SOL    HW2 7946   4.942  13.643   3.290
 2017SOL     OW 7947   4.038  14.827   4.461
 2017SOL    HW1 7948   4.091   0.003   4.525
 2017SOL    HW2 7949   4.076  14.849   4.376
 2018SOL     OW 7950   6.071  14.232  14.759
 2018SOL    HW1 7951   6.100  14.194  14.842
 2018SOL    HW2 7952   6.137  14.299  14.739
 2019SOL     OW 7953   4.438   7.284  12.228
 2019SOL    HW1 7954   4.408   7.342  12.158
 2019SOL    HW2 7955   4.367   7.287  12.292
 2020SOL     OW 7956  12.135   3.788   6.032
 2020SOL    HW1 7957  12.156   3.852   6.099
 2020SOL    HW2 7958  12.219   3.752   6.005
 2021SOL     OW 7959   5.842   6.540  14.603
 2021SOL    HW1 7960   5.875   6.487  14.675
 2021SOL    HW2 7961   5.780   6.601  14.644
 2022SOL     OW 7962   2.236   4.133   3.934
 2022SOL    HW1 7963   2.249   4.221   3.897
 2022SOL    HW2 7964   2.151   4.106   3.899
 2023SOL     OW 7965   3.312  13.792   5.907
 2023SOL    HW1 7966   3.330  13.883   5.931
 2023SOL    HW2 7967   3.257  13.798   5.829
 2024SOL     OW 7968   4.766  10.400   3.129
 2024SOL    HW1 7969   4.729  10.350   3.201
 2024SOL    HW2 7970   4.708  10.475   3.119
 2025SOL     OW 7971   1.994   5.162   8.384
 2025SOL    HW1 7972   1.908   5.120   8.376
 2025SOL    HW2 7973   2.057   5.092   8.370
 2026SOL     OW 7974   8.771  12.278  13.055
 2026SOL    HW1 7975   8.724  12.231  12.987
 2026SOL    HW2 7976   8.862  12.279  13.026
 2027SOL     OW 7977   6.779  13.358  13.960
 2027SOL    HW1 7978   6.689  13.330  13.943
 2027SOL    HW2 7979   6.782  13.448  13.927
 2028SOL     OW 7980   1.599   5.043   4.676
 2028SOL    HW1 7981   1.630   5.068   4.764
 2028SOL    HW2 7982   1.600   5.125   4.627
 2029SOL     OW 7983  14.071   5.180   1.499
 2029SOL    HW1 7984  13.995   5.147   1.547
 2029SOL    HW2 7985  14.143   5.122   1.525
 2030SOL     OW 7986   1.933  10.002   0.244
 2030SOL    HW1 7987   1.911   9.937   0.310
 2030SOL    HW2 7988   1.850  10.045   0.224
 2031SOL     OW 7989   7.861  14.213   8.610
 2031SOL    HW1 7990   7.882  14.214   8.704
 2031SOL    HW2 7991   7.943  14.187   8.568
 2032SOL     OW 7992   2.781   1.242   3.737
 2032SOL    HW1 7993   2.740   1.292   3.666
 2032SOL    HW2 7994   2.867   1.282   3.749
 2033SOL     OW 7995   4.124   2.990   0.075
 2033SOL    HW1 7996   4.040   3.002   0.120
 2033SOL    HW2 7997   4.179   3.061   0.107
 2034SOL     OW 7998   5.531   7.818  14.763
 2034SOL    HW1 7999   5.525   7.725  14.741
 2034SOL    HW2 8000   5.439   7.846  14.768
 2035SOL     OW 8001  11.446   3.620   1.156
 2035SOL    HW1 8002  11.520   3.671   1.121
 2035SOL    HW2 8003  11.374   3.640   1.097
 2036SOL     OW 8004   2.886  13.083  10.766
 2036SOL    HW1 8005   2.958  13.108  10.823
 2036SOL    HW2 8006   2.899  12.990  10.749
 2037SOL     OW 8007  12.481   2.435   3.770
 2037SOL    HW1 8008  12.389   2.460   3.779
 2037SOL    HW2 8009  12.521   2.458   3.855
 2038SOL     OW 8010   9.247   4.809   5.920
 2038SOL    HW1 8011   9.218   4.881   5.974
 2038SOL    HW2 8012   9.238   4.841   5.830
 2039SOL     OW 8013   8.244  11.611  13.501
 2039SOL    HW1 8014   8.195  11.693  13.500
 2039SOL    HW2 8015   8.332  11.636  13.472
 2040SOL     OW 8016   3.594   8.773   4.751
 2040SOL    HW1 8017   3.651   8.850   4.758
 2040SOL    HW2 8018   3.633   8.720   4.682
 2041SOL     OW 8019  11.026  10.396   4.267
 2041SOL    HW1 8020  11.034  10.307   4.233
 2041SOL    HW2 8021  10.955  10.391   4.332
 2042SOL     OW 8022  11.998   7.682   2.355
 2042SOL    HW1 8023  12.091   7.704   2.362
 2042SOL    HW2 8024  11.996   7.587   2.367
 2043SOL     OW 8025  10.595   5.119   6.640
 2043SOL    HW1 8026  10.590   5.092   6.731
 2043SOL    HW2 8027  10.540   5.197   6.634
 2044SOL     OW 8028  12.633  11.833  10.425
 2044SOL    HW1 8029  12.654  11.774  10.353
 2044SOL    HW2 8030  12.584  11.904  10.384
 2045SOL     OW 8031   6.890  12.831   1.898
 2045SOL    HW1 8032   6.808  12.784   1.882
 2045SOL    HW2 8033   6.956  12.762   1.907
 2046SOL     OW 8034   0.004  11.196  13.644
 2046SOL    HW1 8035  14.866  11.159  13.556
 2046SOL    HW2 8036  14.850  11.288  13.634
 2047SOL     OW 8037  12.137   2.986   1.067
 2047SOL    HW1 8038  12.199   3.035   1.122
 2047SOL    HW2 8039  12.098   2.922   1.126
 2048SOL     OW 8040   4.187   7.252   7.381
 2048SOL    HW1 8041   4.096   7.233   7.357
 2048SOL    HW2 8042   4.186   7.257   7.476
 2049SOL     OW 8043   3.597  13.611   0.757
 2049SOL    HW1 8044   3.669  13.585   0.700
 2049SOL    HW2 8045   3.628  13.690   0.801
 2050SOL     OW 8046   5.026   8.755   6.355
 2050SOL    HW1 8047   4.997   8.671   6.389
 2050SOL    HW2 8048   5.032   8.811   6.432
 2051SOL     OW 8049   3.086   1.573   0.363
 2051SOL    HW1 8050   3.174   1.557   0.398
 2051SOL    HW2 8051   3.047   1.636   0.423
 2052SOL     OW 8052   1.022   3.771   6.352
 2052SOL    HW1 8053   0.974   3.696   6.388
 2052SOL    HW2 8054   0.955   3.825   6.311
 2053SOL     OW 8055   7.993   7.340   7.852
 2053SOL    HW1 8056   8.002   7.281   7.776
 2053SOL    HW2 8057   8.083   7.358   7.879
 2054SOL     OW 8058  14.377   8.258   1.867
 2054SOL    HW1 8059  14.377   8.342   1.912
 2054SOL    HW2 8060  14.469   8.232   1.865
 2055SOL     OW 8061  11.669   9.758   4.778
 2055SOL    HW1 8062  11.611   9.682   4.770
 2055SOL    HW2 8063  11.753   9.721   4.804
 2056SOL     OW 8064   4.011   1.707  14.504
 2056SOL    HW1 8065   4.000   1.633  14.444
 2056SOL    HW2 8066   3.924   1.722  14.540
 2057SOL     OW 8067  12.288   7.073   0.427
 2057SOL    HW1 8068  12.283   7.164   0.458
 2057SOL    HW2 8069  12.257   7.021   0.500
 2058SOL     OW 8070   9.109   9.405  11.624
 2058SOL    HW1 8071   9.046   9.418  11.554
 2058SOL    HW2 8072   9.057   9.410  11.704
 2059SOL     OW 8073   7.459  14.630   5.816
 2059SOL    HW1 8074   7.500  14.655   5.733
 2059SOL    HW2 8075   7.378  14.586   5.790
 2060SOL     OW 8076   7.339   6.877   8.321
 2060SOL    HW1 8077   7.336   6.947   8.385
 2060SOL    HW2 8078   7.370   6.919   8.241
 2061SOL     OW 8079   1.434  11.066  13.839
 2061SOL    HW1 8080   1.485  11.047  13.761
 2061SOL    HW2 8081   1.494  11.053  13.912
 2062SOL     OW 8082   2.211  10.252   3.312
 2062SOL    HW1 8083   2.155  10.209   3.376
 2062SOL    HW2 8084   2.186  10.213   3.228
 2063SOL     OW 8085   6.987   1.971  11.504
 2063SOL    HW1 8086   7.026   2.035  11.563
 2063SOL    HW2 8087   7.029   1.888  11.528
 2064SOL     OW 8088  11.191   7.956  10.324
 2064SOL    HW1 8089  11.256   7.938  10.256
 2064SOL    HW2 8090  11.108   7.956  10.277
 2065SOL     OW 8091   8.322   3.598   1.274
 2065SOL    HW1 8092   8.289   3.511   1.296
 2065SOL    HW2 8093   8.245   3.655   1.276
 2066SOL     OW 8094   1.034  11.665   2.126
 2066SOL    HW1 8095   1.101  11.613   2.080
 2066SOL    HW2 8096   0.963  11.603   2.143
 2067SOL     OW 8097   5.118   8.954   8.918
 2067SOL    HW1 8098   5.158   8.882   8.967
 2067SOL    HW2 8099   5.178   9.027   8.931
 2068SOL     OW 8100   9.149  13.979   9.189
 2068SOL    HW1 8101   9.083  13.934   9.242
 2068SOL    HW2 8102   9.112  13.980   9.100
 2069SOL     OW 8103  10.350   2.602  10.046
 2069SOL    HW1 8104  10.260   2.614  10.015
 2069SOL    HW2 8105  10.392   2.549   9.978
 2070SOL     OW 8106   4.288   3.240   2.071
 2070SOL    HW1 8107   4.249   3.257   1.985
 2070SOL    HW2 8108   4.311   3.147   2.068
 2071SOL     OW 8109   2.180   4.739  13.561
 2071SOL    HW1 8110   2.099   4.746  13.610
 2071SOL    HW2 8111   2.219   4.657  13.591
 2072SOL     OW 8112   8.276  12.386   9.225
 2072SOL    HW1 8113   8.357  12.357   9.183
 2072SOL    HW2 8114   8.206  12.348   9.171
 2073SOL     OW 8115   4.777   3.804   3.538
 2073SOL    HW1 8116   4.833   3.797   3.461
 2073SOL    HW2 8117   4.773   3.716   3.573
 2074SOL     OW 8118  12.581  10.008  14.851
 2074SOL    HW1 8119  12.608   9.925   0.016
 2074SOL    HW2 8120  12.608  10.074   0.044
 2075SOL     OW 8121  14.058  13.062  11.570
 2075SOL    HW1 8122  14.136  13.073  11.624
 2075SOL    HW2 8123  13.985  13.077  11.631
 2076SOL     OW 8124  13.552   3.071   1.858
 2076SOL    HW1 8125  13.628   3.033   1.815
 2076SOL    HW2 8126  13.521   3.002   1.917
 2077SOL     OW 8127  11.690   9.572  10.457
 2077SOL    HW1 8128  11.621   9.534  10.511
 2077SOL    HW2 8129  11.758   9.598  10.519
 2078SOL     OW 8130   8.221  11.225   2.430
 2078SOL    HW1 8131   8.286  11.163   2.464
 2078SOL    HW2 8132   8.137  11.186   2.451
 2079SOL     OW 8133  11.979   3.576  12.229
 2079SOL    HW1 8134  12.029   3.503  12.193
 2079SOL    HW2 8135  11.975   3.640  12.158
 2080SOL     OW 8136   7.644   1.209   6.165
 2080SOL    HW1 8137   7.689   1.194   6.248
 2080SOL    HW2 8138   7.632   1.122   6.128
 2081SOL     OW 8139   6.228   0.490  13.739
 2081SOL    HW1 8140   6.179   0.486  13.657
 2081SOL    HW2 8141   6.169   0.535  13.800
 2082SOL     OW 8142   7.712  10.888   8.485
 2082SOL    HW1 8143   7.635  10.926   8.442
 2082SOL    HW2 8144   7.679  10.856   8.569
 2083SOL     OW 8145  12.054   3.553   2.747
 2083SOL    HW1 8146  12.041   3.561   2.841
 2083SOL    HW2 8147  12.034   3.461   2.727
 2084SOL     OW 8148   0.390   7.782   2.064
 2084SOL    HW1 8149   0.473   7.736   2.075
 2084SOL    HW2 8150   0.407   7.847   1.995
 2085SOL     OW 8151   3.905   0.035  14.248
 2085SOL    HW1 8152   3.951  14.824  14.260
 2085SOL    HW2 8153   3.822   0.024  14.294
 2086SOL     OW 8154  10.241   9.705   5.545
 2086SOL    HW1 8155  10.325   9.713   5.499
 2086SOL    HW2 8156  10.253   9.757   5.624
 2087SOL     OW 8157   7.584   9.065  10.546
 2087SOL    HW1 8158   7.492   9.038  10.544
 2087SOL    HW2 8159   7.631   8.989  10.580
 2088SOL     OW 8160  10.058  10.200  12.695
 2088SOL    HW1 8161  10.054  10.199  12.791
 2088SOL    HW2 8162  10.049  10.108  12.670
 2089SOL     OW 8163  13.977  11.671   6.854
 2089SOL    HW1 8164  13.972  11.717   6.770
 2089SOL    HW2 8165  13.969  11.578   6.831
 2090SOL     OW 8166  11.071   1.406  13.970
 2090SOL    HW1 8167  11.033   1.339  14.026
 2090SOL    HW2 8168  10.997   1.463  13.948
 2091SOL     OW 8169   1.829   7.952   8.272
 2091SOL    HW1 8170   1.768   7.908   8.213
 2091SOL    HW2 8171   1.855   7.885   8.335
 2092SOL     OW 8172   4.290  10.157   8.836
 2092SOL    HW1 8173   4.272  10.251   8.833
 2092SOL    HW2 8174   4.268  10.131   8.926
 2093SOL     OW 8175   3.993   6.917  13.640
 2093SOL    HW1 8176   3.971   7.009  13.652
 2093SOL    HW2 8177   3.919   6.880  13.592
 2094SOL     OW 8178   2.885   9.116   8.071
 2094SOL    HW1 8179   2.941   9.039   8.059
 2094SOL    HW2 8180   2.802   9.081   8.103
 2095SOL     OW 8181  10.836  12.154   6.241
 2095SOL    HW1 8182  10.764  12.121   6.187
 2095SOL    HW2 8183  10.903  12.181   6.178
 2096SOL     OW 8184   2.423   1.731   1.605
 2096SOL    HW1 8185   2.448   1.639   1.606
 2096SOL    HW2 8186   2.340   1.734   1.652
 2097SOL     OW 8187   6.169   5.445   3.255
 2097SOL    HW1 8188   6.110   5.370   3.259
 2097SOL    HW2 8189   6.224   5.436   3.333
 2098SOL     OW 8190   0.836   9.489   7.959
 2098SOL    HW1 8191   0.833   9.510   7.866
 2098SOL    HW2 8192   0.765   9.427   7.972
 2099SOL     OW 8193   1.869   1.986   3.395
 2099SOL    HW1 8194   1.959   1.956   3.384
 2099SOL    HW2 8195   1.837   2.000   3.306
 2100SOL     OW 8196   6.584   5.613  11.900
 2100SOL    HW1 8197   6.520   5.681  11.921
 2100SOL    HW2 8198   6.652   5.657  11.849
 2101SOL     OW 8199   2.788   7.998   9.622
 2101SOL    HW1 8200   2.790   7.946   9.541
 2101SOL    HW2 8201   2.859   7.962   9.675
 2102SOL     OW 8202   6.262   7.891  14.670
 2102SOL    HW1 8203   6.294   7.972  14.711
 2102SOL    HW2 8204   6.263   7.910  14.576
 2103SOL     OW 8205   3.557   5.869  13.017
 2103SOL    HW1 8206   3.651   5.885  13.029
 2103SOL    HW2 8207   3.542   5.785  13.060
 2104SOL     OW 8208   0.277   5.580   3.072
 2104SOL    HW1 8209   0.347   5.553   3.013
 2104SOL    HW2 8210   0.321   5.602   3.154
 2105SOL     OW 8211   7.490   9.629   1.747
 2105SOL    HW1 8212   7.560   9.626   1.681
 2105SOL    HW2 8213   7.432   9.557   1.723
 2106SOL     OW 8214  12.567   2.229   3.243
 2106SOL    HW1 8215  12.634   2.162   3.257
 2106SOL    HW2 8216  12.557   2.271   3.329
 2107SOL     OW 8217  12.828   8.659   4.909
 2107SOL    HW1 8218  12.885   8.736   4.912
 2107SOL    HW2 8219  12.863   8.600   4.975
 2108SOL     OW 8220   8.246   0.165  12.079
 2108SOL    HW1 8221   8.228   0.073  12.060
 2108SOL    HW2 8222   8.161   0.203  12.097
 2109SOL     OW 8223  13.804   9.435  12.942
 2109SOL    HW1 8224  13.833   9.402  12.857
 2109SOL    HW2 8225  13.827   9.365  13.004
 2110SOL     OW 8226   9.077  11.586   4.188
 2110SOL    HW1 8227   8.982  11.598   4.182
 2110SOL    HW2 8228   9.088  11.494   4.212
 2111SOL     OW 8229   8.461   0.734   4.813
 2111SOL    HW1 8230   8.463   0.826   4.837
 2111SOL    HW2 8231   8.476   0.687   4.896
 2112SOL     OW 8232  10.990   5.205   5.061
 2112SOL    HW1 8233  10.982   5.188   4.967
 2112SOL    HW2 8234  10.904   5.238   5.087
 2113SOL     OW 8235  12.753   4.281  11.909
 2113SOL    HW1 8236  12.839   4.321  11.924
 2113SOL    HW2 8237  12.715   4.331  11.837
 2114SOL     OW 8238  12.573   7.571   4.003
 2114SOL    HW1 8239  12.640   7.503   4.009
 2114SOL    HW2 8240  12.505   7.543   4.065
 2115SOL     OW 8241   2.873   7.871   5.656
 2115SOL    HW1 8242   2.967   7.891   5.655
 2115SOL    HW2 8243   2.830   7.957   5.660
 2116SOL     OW 8244   7.274   8.404  11.598
 2116SOL    HW1 8245   7.231   8.400  11.683
 2116SOL    HW2 8246   7.309   8.493  11.593
 2117SOL     OW 8247  11.757   0.175  11.125
 2117SOL    HW1 8248  11.662   0.188  11.115
 2117SOL    HW2 8249  11.784   0.243  11.186
 2118SOL     OW 8250   7.598  10.226  11.676
 2118SOL    HW1 8251   7.683  10.246  11.637
 2118SOL    HW2 8252   7.581  10.299  11.736
 2119SOL     OW 8253  14.776   0.184   4.975
 2119SOL    HW1 8254  14.865   0.177   4.942
 2119SOL    HW2 8255  14.721   0.171   4.897
 2120SOL     OW 8256  13.215   2.018   9.874
 2120SOL    HW1 8257  13.221   1.950   9.941
 2120SOL    HW2 8258  13.151   2.080   9.910
 2121SOL     OW 8259   7.332  13.416   7.735
 2121SOL    HW1 8260   7.289  13.334   7.711
 2121SOL    HW2 8261   7.299  13.480   7.672
 2122SOL     OW 8262  10.300   8.571   7.591
 2122SOL    HW1 8263  10.207   8.586   7.571
 2122SOL    HW2 8264  10.312   8.614   7.676
 2123SOL     OW 8265   4.987   9.478   1.149
 2123SOL    HW1 8266   4.985   9.526   1.066
 2123SOL    HW2 8267   4.916   9.414   1.141
 2124SOL     OW 8268  10.769   6.459  10.382
 2124SOL    HW1 8269  10.748   6.445  10.290
 2124SOL    HW2 8270  10.709   6.529  10.410
 2125SOL     OW 8271   2.341   8.938  14.569
 2125SOL    HW1 8272   2.374   8.974  14.651
 2125SOL    HW2 8273   2.387   8.987  14.501
 2126SOL     OW 8274   5.903  12.147   3.357
 2126SOL    HW1 8275   5.999  12.145   3.360
 2126SOL    HW2 8276   5.883  12.216   3.294
 2127SOL     OW 8277   9.569   2.458  10.352
 2127SOL    HW1 8278   9.650   2.460  10.403
 2127SOL    HW2 8279   9.579   2.529  10.289
 2128SOL     OW 8280   6.867   0.297  11.944
 2128SOL    HW1 8281   6.790   0.276  11.997
 2128SOL    HW2 8282   6.904   0.375  11.987
 2129SOL     OW 8283   3.924   5.920   6.768
 2129SOL    HW1 8284   3.939   5.885   6.680
 2129SOL    HW2 8285   3.849   5.978   6.759
 2130SOL     OW 8286   7.952  13.792   2.104
 2130SOL    HW1 8287   8.015  13.734   2.147
 2130SOL    HW2 8288   7.957  13.767   2.011
 2131SOL     OW 8289  11.679   7.502   4.851
 2131SOL    HW1 8290  11.746   7.446   4.811
 2131SOL    HW2 8291  11.722   7.588   4.859
 2132SOL     OW 8292  10.941  10.133   3.881
 2132SOL    HW1 8293  10.991  10.135   3.962
 2132SOL    HW2 8294  10.859  10.178   3.902
 2133SOL     OW 8295   8.960   6.078  11.163
 2133SOL    HW1 8296   9.031   6.087  11.226
 2133SOL    HW2 8297   8.991   6.011  11.102
 2134SOL     OW 8298   2.414   6.114  12.417
 2134SOL    HW1 8299   2.337   6.131  12.472
 2134SOL    HW2 8300   2.485   6.160  12.462
 2135SOL     OW 8301   9.094  13.415  10.402
 2135SOL    HW1 8302   9.188  13.400  10.391
 2135SOL    HW2 8303   9.089  13.477  10.475
 2136SOL     OW 8304  12.231   1.873  11.402
 2136SOL    HW1 8305  12.140   1.885  11.429
 2136SOL    HW2 8306  12.258   1.791  11.443
 2137SOL     OW 8307   1.673   0.469   6.377
 2137SOL    HW1 8308   1.714   0.382   6.375
 2137SOL    HW2 8309   1.734   0.523   6.428
 2138SOL     OW 8310   4.970  14.823  11.489
 2138SOL    HW1 8311   4.982  14.810  11.395
 2138SOL    HW2 8312   4.941  14.737  11.521
 2139SOL     OW 8313   0.252  11.492   3.862
 2139SOL    HW1 8314   0.237  11.425   3.796
 2139SOL    HW2 8315   0.165  11.520   3.889
 2140SOL     OW 8316   2.689  12.143   6.135
 2140SOL    HW1 8317   2.597  12.118   6.139
 2140SOL    HW2 8318   2.690  12.223   6.083
 2141SOL     OW 8319  13.905   7.293   2.953
 2141SOL    HW1 8320  13.828   7.240   2.931
 2141SOL    HW2 8321  13.925   7.342   2.873
 2142SOL     OW 8322  10.232   5.493   7.438
 2142SOL    HW1 8323  10.287   5.488   7.516
 2142SOL    HW2 8324  10.292   5.519   7.368
 2143SOL     OW 8325   1.820   7.600   0.427
 2143SOL    HW1 8326   1.898   7.627   0.378
 2143SOL    HW2 8327   1.751   7.660   0.398
 2144SOL     OW 8328  11.495   3.805  13.435
 2144SOL    HW1 8329  11.453   3.862  13.371
 2144SOL    HW2 8330  11.482   3.717  13.402
 2145SOL     OW 8331   5.063   8.049  11.777
 2145SOL    HW1 8332   5.082   8.141  11.760
 2145SOL    HW2 8333   5.149   8.007  11.781
 2146SOL     OW 8334   8.160  13.495  13.092
 2146SOL    HW1 8335   8.198  13.572  13.048
 2146SOL    HW2 8336   8.073  13.523  13.119
 2147SOL     OW 8337   2.811   3.956   0.916
 2147SOL    HW1 8338   2.716   3.966   0.923
 2147SOL    HW2 8339   2.843   3.961   1.006
 2148SOL     OW 8340  13.816  14.531   6.916
 2148SOL    HW1 8341  13.876  14.493   6.980
 2148SOL    HW2 8342  13.751  14.577   6.968
 2149SOL     OW 8343   7.164  12.914   7.172
 2149SOL    HW1 8344   7.099  12.893   7.239
 2149SOL    HW2 8345   7.131  12.995   7.132
 2150SOL     OW 8346  10.993   2.097   0.826
 2150SOL    HW1 8347  10.906   2.059   0.839
 2150SOL    HW2 8348  11.052   2.037   0.872
 2151SOL     OW 8349   8.605   4.203   1.405
 2151SOL    HW1 8350   8.645   4.165   1.327
 2151SOL    HW2 8351   8.601   4.131   1.467
 2152SOL     OW 8352   2.509   3.466  13.619
 2152SOL    HW1 8353   2.554   3.411  13.556
 2152SOL    HW2 8354   2.454   3.524  13.565
 2153SOL     OW 8355   8.240  11.267   6.283
 2153SOL    HW1 8356   8.197  11.192   6.242
 2153SOL    HW2 8357   8.236  11.336   6.216
 2154SOL     OW 8358   2.523   4.816  14.010
 2154SOL    HW1 8359   2.590   4.884  14.015
 2154SOL    HW2 8360   2.440   4.864  14.016
 2155SOL     OW 8361   8.477  14.826   9.224
 2155SOL    HW1 8362   8.537  14.810   9.297
 2155SOL    HW2 8363   8.452   0.047   9.233
 2156SOL     OW 8364   0.281   0.425   7.821
 2156SOL    HW1 8365   0.289   0.370   7.743
 2156SOL    HW2 8366   0.279   0.362   7.894
 2157SOL     OW 8367  11.498   4.837   1.421
 2157SOL    HW1 8368  11.579   4.887   1.434
 2157SOL    HW2 8369  11.477   4.803   1.508
 2158SOL     OW 8370   8.563  13.015   1.021
 2158SOL    HW1 8371   8.553  13.059   0.937
 2158SOL    HW2 8372   8.473  13.001   1.051
 2159SOL     OW 8373   1.233   5.574   1.723
 2159SOL    HW1 8374   1.223   5.664   1.753
 2159SOL    HW2 8375   1.314   5.544   1.764
 2160SOL     OW 8376   0.605   5.384  10.744
 2160SOL    HW1 8377   0.612   5.458  10.805
 2160SOL    HW2 8378   0.694   5.369  10.714
 2161SOL     OW 8379   0.705   3.030   4.117
 2161SOL    HW1 8380   0.724   2.978   4.196
 2161SOL    HW2 8381   0.778   3.011   4.058
 2162SOL     OW 8382   3.217   2.815  13.307
 2162SOL    HW1 8383   3.309   2.840  13.305
 2162SOL    HW2 8384   3.217   2.723  13.282
 2163SOL     OW 8385  10.053   1.838   3.554
 2163SOL    HW1 8386  10.128   1.892   3.528
 2163SOL    HW2 8387  10.086   1.784   3.626
 2164SOL     OW 8388   5.992   5.210   9.610
 2164SOL    HW1 8389   5.962   5.235   9.697
 2164SOL    HW2 8390   5.921   5.237   9.552
 2165SOL     OW 8391   4.737   3.633   8.243
 2165SOL    HW1 8392   4.684   3.713   8.236
 2165SOL    HW2 8393   4.784   3.629   8.159
 2166SOL     OW 8394  13.973   0.675  10.648
 2166SOL    HW1 8395  13.890   0.687  10.693
 2166SOL    HW2 8396  14.012   0.763  10.645
 2167SOL     OW 8397   0.509   5.192   3.554
 2167SOL    HW1 8398   0.602   5.212   3.561
 2167SOL    HW2 8399   0.475   5.204   3.642
 2168SOL     OW 8400   5.580   7.690   9.222
 2168SOL    HW1 8401   5.613   7.754   9.159
 2168SOL    HW2 8402   5.631   7.705   9.301
 2169SOL     OW 8403   3.000   3.733   2.396
 2169SOL    HW1 8404   2.924   3.676   2.393
 2169SOL    HW2 8405   2.967   3.819   2.370
 2170SOL     OW 8406  10.753   6.979  12.016
 2170SOL    HW1 8407  10.670   7.027  12.010
 2170SOL    HW2 8408  10.761   6.958  12.109
 2171SOL     OW 8409  14.243  14.295   9.523
 2171SOL    HW1 8410  14.164  14.250   9.492
 2171SOL    HW2 8411  14.239  14.286   9.619
 2172SOL     OW 8412   5.808   1.730   6.135
 2172SOL    HW1 8413   5.835   1.651   6.089
 2172SOL    HW2 8414   5.874   1.795   6.111
 2173SOL     OW 8415  12.706   6.351  14.832
 2173SOL    HW1 8416  12.676   6.260  14.822
 2173SOL    HW2 8417  12.660   6.383   0.038
 2174SOL     OW 8418   4.106  11.610   1.829
 2174SOL    HW1 8419   4.093  11.696   1.870
 2174SOL    HW2 8420   4.195  11.614   1.793
 2175SOL     OW 8421   5.773  11.196   5.820
 2175SOL    HW1 8422   5.729  11.186   5.905
 2175SOL    HW2 8423   5.768  11.289   5.801
 2176SOL     OW 8424  13.244   3.032   8.982
 2176SOL    HW1 8425  13.271   3.044   8.891
 2176SOL    HW2 8426  13.310   3.079   9.033
 2177SOL     OW 8427   7.336   5.980   2.565
 2177SOL    HW1 8428   7.430   5.976   2.548
 2177SOL    HW2 8429   7.326   5.940   2.652
 2178SOL     OW 8430   5.571   8.859   7.646
 2178SOL    HW1 8431   5.554   8.898   7.732
 2178SOL    HW2 8432   5.643   8.912   7.609
 2179SOL     OW 8433   9.234  14.729   2.305
 2179SOL    HW1 8434   9.138  14.723   2.310
 2179SOL    HW2 8435   9.262  14.733   2.397
 2180SOL     OW 8436   9.436   8.987   4.490
 2180SOL    HW1 8437   9.506   9.021   4.433
 2180SOL    HW2 8438   9.390   9.065   4.521
 2181SOL     OW 8439  11.154  13.045   8.404
 2181SOL    HW1 8440  11.155  12.949   8.397
 2181SOL    HW2 8441  11.246  13.070   8.405
 2182SOL     OW 8442   2.356   2.040  13.675
 2182SOL    HW1 8443   2.391   1.957  13.644
 2182SOL    HW2 8444   2.264   2.038  13.650
 2183SOL     OW 8445  14.056   3.915  13.446
 2183SOL    HW1 8446  14.012   3.923  13.361
 2183SOL    HW2 8447  14.053   3.822  13.466
 2184SOL     OW 8448   0.758   8.021  10.630
 2184SOL    HW1 8449   0.769   7.995  10.538
 2184SOL    HW2 8450   0.684   8.082  10.629
 2185SOL     OW 8451   4.589   9.974   5.322
 2185SOL    HW1 8452   4.642   9.946   5.397
 2185SOL    HW2 8453   4.619  10.063   5.304
 2186SOL     OW 8454   2.594   6.226  12.073
 2186SOL    HW1 8455   2.512   6.199  12.115
 2186SOL    HW2 8456   2.611   6.313  12.109
 2187SOL     OW 8457   4.161  14.763   4.074
 2187SOL    HW1 8458   4.098  14.811   4.129
 2187SOL    HW2 8459   4.159  14.674   4.108
 2188SOL     OW 8460   7.536   6.783   1.405
 2188SOL    HW1 8461   7.506   6.692   1.396
 2188SOL    HW2 8462   7.629   6.775   1.425
 2189SOL     OW 8463  14.816   8.192  11.914
 2189SOL    HW1 8464   0.024   8.152  11.878
 2189SOL    HW2 8465  14.789   8.256  11.848
 2190SOL     OW 8466   6.614   4.858  10.637
 2190SOL    HW1 8467   6.704   4.861  10.668
 2190SOL    HW2 8468   6.602   4.769  10.603
 2191SOL     OW 8469   3.110  13.050   3.878
 2191SOL    HW1 8470   3.115  12.968   3.927
 2191SOL    HW2 8471   3.084  13.115   3.943
 2192SOL     OW 8472   1.050  12.661  13.706
 2192SOL    HW1 8473   1.085  12.731  13.762
 2192SOL    HW2 8474   1.048  12.584  13.763
 2193SOL     OW 8475   2.597  11.399   3.536
 2193SOL    HW1 8476   2.545  11.421   3.459
 2193SOL    HW2 8477   2.579  11.307   3.552
 2194SOL     OW 8478  14.755   1.916   9.217
 2194SOL    HW1 8479  14.776   1.942   9.127
 2194SOL    HW2 8480  14.704   1.836   9.208
 2195SOL     OW 8481  14.153   7.008   7.930
 2195SOL    HW1 8482  14.146   7.004   8.026
 2195SOL    HW2 8483  14.084   7.069   7.904
 2196SOL     OW 8484  13.775   4.045   5.673
 2196SOL    HW1 8485  13.688   4.056   5.710
 2196SOL    HW2 8486  13.802   4.133   5.647
 2197SOL     OW 8487   9.558   7.161  11.964
 2197SOL    HW1 8488   9.499   7.183  12.036
 2197SOL    HW2 8489   9.646   7.175  12.000
 2198SOL     OW 8490  11.593   1.629  12.079
 2198SOL    HW1 8491  11.678   1.658  12.045
 2198SOL    HW2 8492  11.613   1.595  12.167
 2199SOL     OW 8493   7.854   4.699   0.410
 2199SOL    HW1 8494   7.929   4.730   0.461
 2199SOL    HW2 8495   7.808   4.639   0.470
 2200SOL     OW 8496   9.253  10.090   0.633
 2200SOL    HW1 8497   9.237   9.996   0.641
 2200SOL    HW2 8498   9.292  10.100   0.546
 2201SOL     OW 8499  10.275   2.072  13.005
 2201SOL    HW1 8500  10.221   1.993  13.016
 2201SOL    HW2 8501  10.255   2.102  12.916
 2202SOL     OW 8502   7.547  14.465  10.580
 2202SOL    HW1 8503   7.581  14.423  10.659
 2202SOL    HW2 8504   7.545  14.395  10.515
 2203SOL     OW 8505   7.241   3.244  12.227
 2203SOL    HW1 8506   7.305   3.223  12.159
 2203SOL    HW2 8507   7.293   3.262  12.305
 2204SOL     OW 8508   1.437  12.566   3.513
 2204SOL    HW1 8509   1.474  12.624   3.580
 2204SOL    HW2 8510   1.431  12.621   3.434
 2205SOL     OW 8511  10.400  12.118   1.626
 2205SOL    HW1 8512  10.317  12.159   1.604
 2205SOL    HW2 8513  10.463  12.156   1.565
 2206SOL     OW 8514   9.306  13.147   1.875
 2206SOL    HW1 8515   9.267  13.159   1.961
 2206SOL    HW2 8516   9.370  13.218   1.868
 2207SOL     OW 8517   9.460  10.792   2.183
 2207SOL    HW1 8518   9.468  10.736   2.106
 2207SOL    HW2 8519   9.541  10.843   2.185
 2208SOL     OW 8520  10.974   8.366   3.653
 2208SOL    HW1 8521  10.958   8.321   3.736
 2208SOL    HW2 8522  11.046   8.319   3.613
 2209SOL     OW 8523  12.740   5.085  13.837
 2209SOL    HW1 8524  12.676   5.065  13.905
 2209SOL    HW2 8525  12.825   5.066  13.876
 2210SOL     OW 8526   5.526  10.129   4.576
 2210SOL    HW1 8527   5.562  10.046   4.607
 2210SOL    HW2 8528   5.441  10.106   4.538
 2211SOL     OW 8529   7.718   6.762   3.584
 2211SOL    HW1 8530   7.661   6.838   3.571
 2211SOL    HW2 8531   7.784   6.792   3.646
 2212SOL     OW 8532   9.295   7.067  14.551
 2212SOL    HW1 8533   9.350   7.077  14.628
 2212SOL    HW2 8534   9.342   7.114  14.482
 2213SOL     OW 8535  11.511  10.085  12.150
 2213SOL    HW1 8536  11.445  10.143  12.111
 2213SOL    HW2 8537  11.593  10.113  12.110
 2214SOL     OW 8538  11.655   7.914   8.186
 2214SOL    HW1 8539  11.726   7.886   8.243
 2214SOL    HW2 8540  11.655   8.009   8.191
 2215SOL     OW 8541  13.636   7.107   8.543
 2215SOL    HW1 8542  13.565   7.077   8.487
 2215SOL    HW2 8543  13.593   7.129   8.626
 2216SOL     OW 8544   5.019   7.552   3.195
 2216SOL    HW1 8545   5.054   7.506   3.119
 2216SOL    HW2 8546   4.936   7.588   3.166
 2217SOL     OW 8547   0.627   5.981   7.753
 2217SOL    HW1 8548   0.671   5.896   7.753
 2217SOL    HW2 8549   0.697   6.044   7.770
 2218SOL     OW 8550   4.641   7.690   7.140
 2218SOL    HW1 8551   4.638   7.648   7.054
 2218SOL    HW2 8552   4.618   7.781   7.123
 2219SOL     OW 8553   4.960   6.104   4.458
 2219SOL    HW1 8554   4.904   6.160   4.511
 2219SOL    HW2 8555   5.032   6.078   4.515
 2220SOL     OW 8556  12.435  10.093   0.372
 2220SOL    HW1 8557  12.501  10.160   0.390
 2220SOL    HW2 8558  12.396  10.120   0.289
 2221SOL     OW 8559   4.900   7.181   2.692
 2221SOL    HW1 8560   4.951   7.262   2.685
 2221SOL    HW2 8561   4.833   7.200   2.758
 2222SOL     OW 8562   9.899  10.679  12.544
 2222SOL    HW1 8563   9.962  10.611  12.568
 2222SOL    HW2 8564   9.911  10.690  12.449
 2223SOL     OW 8565   6.887   1.544   0.751
 2223SOL    HW1 8566   6.795   1.554   0.728
 2223SOL    HW2 8567   6.887   1.486   0.827
 2224SOL     OW 8568   4.191   7.040   3.804
 2224SOL    HW1 8569   4.182   6.953   3.767
 2224SOL    HW2 8570   4.272   7.074   3.766
 2225SOL     OW 8571   4.872   6.173   5.805
 2225SOL    HW1 8572   4.935   6.114   5.765
 2225SOL    HW2 8573   4.839   6.227   5.733
 2226SOL     OW 8574  10.316   4.744  10.227
 2226SOL    HW1 8575  10.404   4.713  10.246
 2226SOL    HW2 8576  10.261   4.704  10.294
 2227SOL     OW 8577   4.752  14.281   5.893
 2227SOL    HW1 8578   4.763  14.309   5.984
 2227SOL    HW2 8579   4.787  14.353   5.841
 2228SOL     OW 8580  13.788   5.444   7.072
 2228SOL    HW1 8581  13.734   5.374   7.108
 2228SOL    HW2 8582  13.861   5.451   7.133
 2229SOL     OW 8583   1.146  11.842  13.397
 2229SOL    HW1 8584   1.105  11.778  13.340
 2229SOL    HW2 8585   1.084  11.853  13.469
 2230SOL     OW 8586   3.267   5.978   4.026
 2230SOL    HW1 8587   3.342   5.922   4.001
 2230SOL    HW2 8588   3.201   5.916   4.058
 2231SOL     OW 8589   4.046   6.698   5.722
 2231SOL    HW1 8590   4.110   6.660   5.783
 2231SOL    HW2 8591   4.085   6.686   5.636
 2232SOL     OW 8592   1.186   2.052   9.716
 2232SOL    HW1 8593   1.208   1.974   9.767
 2232SOL    HW2 8594   1.095   2.070   9.737
 2233SOL     OW 8595   9.285   5.983  14.261
 2233SOL    HW1 8596   9.207   5.937  14.292
 2233SOL    HW2 8597   9.300   6.050  14.327
 2234SOL     OW 8598   5.155  12.624  12.600
 2234SOL    HW1 8599   5.241  12.657  12.626
 2234SOL    HW2 8600   5.173  12.539  12.560
 2235SOL     OW 8601   0.242  12.280  10.186
 2235SOL    HW1 8602   0.212  12.202  10.139
 2235SOL    HW2 8603   0.278  12.246  10.268
 2236SOL     OW 8604  14.354  10.119   0.097
 2236SOL    HW1 8605  14.389  10.160   0.177
 2236SOL    HW2 8606  14.369  10.026   0.110
 2237SOL     OW 8607   0.259   7.684   9.231
 2237SOL    HW1 8608   0.323   7.687   9.160
 2237SOL    HW2 8609   0.189   7.743   9.203
 2238SOL     OW 8610   4.838  11.088  12.326
 2238SOL    HW1 8611   4.751  11.074  12.363
 2238SOL    HW2 8612   4.890  11.015  12.360
 2239SOL     OW 8613  13.460   1.783  11.827
 2239SOL    HW1 8614  13.538   1.831  11.854
 2239SOL    HW2 8615  13.452   1.711  11.890
 2240SOL     OW 8616  12.136   2.199   4.597
 2240SOL    HW1 8617  12.161   2.284   4.635
 2240SOL    HW2 8618  12.044   2.210   4.573
 2241SOL     OW 8619   2.979   5.785  11.504
 2241SOL    HW1 8620   3.000   5.861  11.451
 2241SOL    HW2 8621   3.033   5.715  11.468
 2242SOL     OW 8622  10.952   8.382   6.221
 2242SOL    HW1 8623  10.972   8.298   6.263
 2242SOL    HW2 8624  10.953   8.445   6.294
 2243SOL     OW 8625  11.924   8.557   6.309
 2243SOL    HW1 8626  11.860   8.518   6.250
 2243SOL    HW2 8627  11.972   8.483   6.345
 2244SOL     OW 8628   2.620   3.192   0.393
 2244SOL    HW1 8629   2.587   3.130   0.458
 2244SOL    HW2 8630   2.594   3.278   0.427
 2245SOL     OW 8631   7.818   8.752  14.226
 2245SOL    HW1 8632   7.796   8.799  14.307
 2245SOL    HW2 8633   7.737   8.708  14.201
 2246SOL     OW 8634   7.791   0.633  12.198
 2246SOL    HW1 8635   7.763   0.724  12.206
 2246SOL    HW2 8636   7.849   0.633  12.122
 2247SOL     OW 8637   1.319   4.229  14.028
 2247SOL    HW1 8638   1.410   4.249  14.050
 2247SOL    HW2 8639   1.322   4.140  13.994
 2248SOL     OW 8640  14.479   2.055  10.418
 2248SOL    HW1 8641  14.492   2.129  10.359
 2248SOL    HW2 8642  14.398   2.014  10.388
 2249SOL     OW 8643   3.780  11.023   5.958
 2249SOL    HW1 8644   3.848  11.087   5.938
 2249SOL    HW2 8645   3.698  11.067   5.934
 2250SOL     OW 8646   6.610   2.805   2.182
 2250SOL    HW1 8647   6.573   2.782   2.098
 2250SOL    HW2 8648   6.687   2.858   2.161
 2251SOL     OW 8649   2.222  11.221   4.449
 2251SOL    HW1 8650   2.174  11.278   4.510
 2251SOL    HW2 8651   2.164  11.214   4.373
 2252SOL     OW 8652   0.994   1.685   0.763
 2252SOL    HW1 8653   1.074   1.688   0.816
 2252SOL    HW2 8654   1.021   1.645   0.681
 2253SOL     OW 8655   4.686   3.096   0.414
 2253SOL    HW1 8656   4.660   3.144   0.493
 2253SOL    HW2 8657   4.726   3.016   0.448
 2254SOL     OW 8658   0.121   9.251   4.958
 2254SOL    HW1 8659   0.156   9.200   4.885
 2254SOL    HW2 8660   0.029   9.263   4.936
 2255SOL     OW 8661  12.093   4.588   0.271
 2255SOL    HW1 8662  12.068   4.515   0.328
 2255SOL    HW2 8663  12.144   4.548   0.201
 2256SOL     OW 8664   4.012  14.741   9.907
 2256SOL    HW1 8665   4.000  14.790   9.825
 2256SOL    HW2 8666   3.939  14.680   9.909
 2257SOL     OW 8667  11.283   6.681   0.083
 2257SOL    HW1 8668  11.252   6.592   0.099
 2257SOL    HW2 8669  11.206   6.729   0.053
 2258SOL     OW 8670   0.315   8.494   5.713
 2258SOL    HW1 8671   0.394   8.538   5.743
 2258SOL    HW2 8672   0.275   8.459   5.792
 2259SOL     OW 8673   0.144   3.796  12.468
 2259SOL    HW1 8674   0.166   3.885  12.495
 2259SOL    HW2 8675   0.227   3.759  12.438
 2260SOL     OW 8676  14.292   6.910   1.062
 2260SOL    HW1 8677  14.228   6.842   1.040
 2260SOL    HW2 8678  14.239   6.989   1.074
 2261SOL     OW 8679   7.849   9.442   8.404
 2261SOL    HW1 8680   7.914   9.388   8.448
 2261SOL    HW2 8681   7.765   9.403   8.429
 2262SOL     OW 8682  11.082  11.706   1.242
 2262SOL    HW1 8683  10.987  11.694   1.240
 2262SOL    HW2 8684  11.116  11.632   1.192
 2263SOL     OW 8685   7.924   0.840  13.224
 2263SOL    HW1 8686   7.973   0.873  13.300
 2263SOL    HW2 8687   7.992   0.800  13.169
 2264SOL     OW 8688   4.908   0.866   1.054
 2264SOL    HW1 8689   4.915   0.783   1.102
 2264SOL    HW2 8690   4.821   0.864   1.015
 2265SOL     OW 8691   4.910   9.118   5.604
 2265SOL    HW1 8692   4.827   9.071   5.590
 2265SOL    HW2 8693   4.944   9.133   5.516
 2266SOL     OW 8694  11.906   8.917   6.058
 2266SOL    HW1 8695  11.874   8.931   6.147
 2266SOL    HW2 8696  11.886   8.999   6.013
 2267SOL     OW 8697  12.177  10.049   4.800
 2267SOL    HW1 8698  12.201  10.023   4.889
 2267SOL    HW2 8699  12.083  10.032   4.796
 2268SOL     OW 8700  14.413   3.890  12.279
 2268SOL    HW1 8701  14.489   3.831  12.286
 2268SOL    HW2 8702  14.372   3.886  12.366
 2269SOL     OW 8703  12.129   5.196  12.578
 2269SOL    HW1 8704  12.128   5.260  12.507
 2269SOL    HW2 8705  12.043   5.154  12.573
 2270SOL     OW 8706   0.932  14.732  11.170
 2270SOL    HW1 8707   0.853  14.782  11.189
 2270SOL    HW2 8708   0.977  14.725  11.254
 2271SOL     OW 8709  14.831   6.750   4.718
 2271SOL    HW1 8710  14.745   6.721   4.686
 2271SOL    HW2 8711   0.018   6.678   4.695
 2272SOL     OW 8712   8.399   0.312   7.291
 2272SOL    HW1 8713   8.477   0.367   7.281
 2272SOL    HW2 8714   8.340   0.364   7.345
 2273SOL     OW 8715   0.406   2.317   6.109
 2273SOL    HW1 8716   0.399   2.390   6.048
 2273SOL    HW2 8717   0.375   2.241   6.059
 2274SOL     OW 8718   7.686  13.769   0.047
 2274SOL    HW1 8719   7.739  13.791   0.123
 2274SOL    HW2 8720   7.607  13.821   0.056
 2275SOL     OW 8721  14.596   5.847   6.691
 2275SOL    HW1 8722  14.598   5.754   6.669
 2275SOL    HW2 8723  14.649   5.889   6.624
 2276SOL     OW 8724   5.776   5.545  11.461
 2276SOL    HW1 8725   5.730   5.461  11.464
 2276SOL    HW2 8726   5.752   5.582  11.376
 2277SOL     OW 8727  12.855   4.922  14.643
 2277SOL    HW1 8728  12.894   4.949  14.560
 2277SOL    HW2 8729  12.795   4.852  14.620
 2278SOL     OW 8730   5.736   4.024   2.537
 2278SOL    HW1 8731   5.756   4.112   2.570
 2278SOL    HW2 8732   5.660   4.036   2.481
 2279SOL     OW 8733  11.079   5.629   4.458
 2279SOL    HW1 8734  11.170   5.657   4.466
 2279SOL    HW2 8735  11.035   5.704   4.416
 2280SOL     OW 8736   0.789   5.780   6.458
 2280SOL    HW1 8737   0.737   5.717   6.408
 2280SOL    HW2 8738   0.804   5.853   6.398
 2281SOL     OW 8739  12.311  10.012   2.952
 2281SOL    HW1 8740  12.275  10.050   3.033
 2281SOL    HW2 8741  12.288  10.075   2.884
 2282SOL     OW 8742  12.494   9.048   3.034
 2282SOL    HW1 8743  12.491   8.998   2.952
 2282SOL    HW2 8744  12.470   8.986   3.102
 2283SOL     OW 8745  12.179   8.128   2.105
 2283SOL    HW1 8746  12.275   8.136   2.104
 2283SOL    HW2 8747  12.161   8.055   2.045
 2284SOL     OW 8748  12.530   3.162  13.071
 2284SOL    HW1 8749  12.555   3.253  13.084
 2284SOL    HW2 8750  12.580   3.114  13.138
 2285SOL     OW 8751  11.810  10.036   3.404
 2285SOL    HW1 8752  11.810  10.093   3.481
 2285SOL    HW2 8753  11.722   9.997   3.403
 2286SOL     OW 8754   3.509   1.030   5.699
 2286SOL    HW1 8755   3.519   1.116   5.660
 2286SOL    HW2 8756   3.504   0.970   5.625
 2287SOL     OW 8757   4.419  12.315   9.299
 2287SOL    HW1 8758   4.478  12.240   9.288
 2287SOL    HW2 8759   4.333  12.276   9.316
 2288SOL     OW 8760  14.093   0.986   7.899
 2288SOL    HW1 8761  14.136   1.045   7.961
 2288SOL    HW2 8762  14.075   0.907   7.951
 2289SOL     OW 8763  11.396   3.771  12.863
 2289SOL    HW1 8764  11.444   3.854  12.854
 2289SOL    HW2 8765  11.340   3.785  12.940
 2290SOL     OW 8766   0.475   0.300   4.367
 2290SOL    HW1 8767   0.568   0.309   4.389
 2290SOL    HW2 8768   0.434   0.267   4.447
 2291SOL     OW 8769   9.425  10.108   9.482
 2291SOL    HW1 8770   9.425  10.085   9.389
 2291SOL    HW2 8771   9.516  10.128   9.502
 2292SOL     OW 8772   7.241  12.363  11.270
 2292SOL    HW1 8773   7.254  12.283  11.218
 2292SOL    HW2 8774   7.246  12.334  11.361
 2293SOL     OW 8775   3.325  14.365   9.663
 2293SOL    HW1 8776   3.365  14.332   9.743
 2293SOL    HW2 8777   3.235  14.333   9.666
 2294SOL     OW 8778  10.872  12.579   3.383
 2294SOL    HW1 8779  10.948  12.523   3.401
 2294SOL    HW2 8780  10.910  12.664   3.362
 2295SOL     OW 8781  10.192   2.247   4.198
 2295SOL    HW1 8782  10.172   2.250   4.291
 2295SOL    HW2 8783  10.108   2.262   4.154
 2296SOL     OW 8784   3.107  12.477   6.459
 2296SOL    HW1 8785   3.076  12.386   6.460
 2296SOL    HW2 8786   3.118  12.497   6.366
 2297SOL     OW 8787   6.727   6.303   4.614
 2297SOL    HW1 8788   6.653   6.289   4.556
 2297SOL    HW2 8789   6.732   6.223   4.666
 2298SOL     OW 8790  14.338   4.255  11.057
 2298SOL    HW1 8791  14.400   4.216  11.118
 2298SOL    HW2 8792  14.372   4.342  11.039
 2299SOL     OW 8793  14.153   3.824  12.175
 2299SOL    HW1 8794  14.240   3.857  12.196
 2299SOL    HW2 8795  14.169   3.746  12.123
 2300SOL     OW 8796  13.805   6.064   5.570
 2300SOL    HW1 8797  13.727   6.054   5.516
 2300SOL    HW2 8798  13.825   6.157   5.567
 2301SOL     OW 8799  12.535   2.027   2.258
 2301SOL    HW1 8800  12.588   1.951   2.235
 2301SOL    HW2 8801  12.482   2.044   2.180
 2302SOL     OW 8802   5.702   9.324   4.651
 2302SOL    HW1 8803   5.662   9.340   4.736
 2302SOL    HW2 8804   5.795   9.312   4.670
 2303SOL     OW 8805  13.246  10.412  14.680
 2303SOL    HW1 8806  13.307  10.379  14.746
 2303SOL    HW2 8807  13.279  10.376  14.598
 2304SOL     OW 8808   3.669  11.330   7.849
 2304SOL    HW1 8809   3.644  11.380   7.771
 2304SOL    HW2 8810   3.677  11.396   7.918
 2305SOL     OW 8811   5.946   2.681   4.790
 2305SOL    HW1 8812   6.007   2.622   4.835
 2305SOL    HW2 8813   5.882   2.623   4.749
 2306SOL     OW 8814  11.504   9.459  12.177
 2306SOL    HW1 8815  11.541   9.380  12.217
 2306SOL    HW2 8816  11.460   9.504  12.250
 2307SOL     OW 8817   3.254  13.006  11.884
 2307SOL    HW1 8818   3.179  12.962  11.925
 2307SOL    HW2 8819   3.269  13.084  11.937
 2308SOL     OW 8820  13.648   9.268  12.102
 2308SOL    HW1 8821  13.557   9.243  12.120
 2308SOL    HW2 8822  13.699   9.218  12.166
 2309SOL     OW 8823   5.656   7.072   0.426
 2309SOL    HW1 8824   5.606   7.030   0.497
 2309SOL    HW2 8825   5.701   7.145   0.469
 2310SOL     OW 8826   7.128  10.290   8.375
 2310SOL    HW1 8827   7.156  10.200   8.392
 2310SOL    HW2 8828   7.039  10.282   8.340
 2311SOL     OW 8829   9.770   5.682  13.969
 2311SOL    HW1 8830   9.734   5.771  13.971
 2311SOL    HW2 8831   9.709   5.632  13.915
 2312SOL     OW 8832   4.121  11.745   9.870
 2312SOL    HW1 8833   4.136  11.740   9.964
 2312SOL    HW2 8834   4.037  11.791   9.862
 2313SOL     OW 8835  11.425  12.581   7.599
 2313SOL    HW1 8836  11.344  12.584   7.650
 2313SOL    HW2 8837  11.423  12.494   7.557
 2314SOL     OW 8838  14.826  12.375  14.492
 2314SOL    HW1 8839  14.853  12.365  14.583
 2314SOL    HW2 8840   0.029  12.417  14.449
 2315SOL     OW 8841   6.809  11.918   2.876
 2315SOL    HW1 8842   6.790  11.831   2.841
 2315SOL    HW2 8843   6.879  11.952   2.820
 2316SOL     OW 8844   4.827   4.698   1.275
 2316SOL    HW1 8845   4.883   4.634   1.319
 2316SOL    HW2 8846   4.792   4.651   1.199
 2317SOL     OW 8847   5.391  12.580  11.528
 2317SOL    HW1 8848   5.446  12.527  11.471
 2317SOL    HW2 8849   5.312  12.527  11.541
 2318SOL     OW 8850  10.896   0.024   9.029
 2318SOL    HW1 8851  10.899   0.113   9.064
 2318SOL    HW2 8852  10.946  14.843   9.092
 2319SOL     OW 8853   7.437  14.738   8.804
 2319SOL    HW1 8854   7.465  14.649   8.821
 2319SOL    HW2 8855   7.365  14.754   8.865
 2320SOL     OW 8856   8.795  13.848   9.028
 2320SOL    HW1 8857   8.732  13.879   8.963
 2320SOL    HW2 8858   8.880  13.870   8.991
 2321SOL     OW 8859   4.103  14.082   5.205
 2321SOL    HW1 8860   4.181  14.086   5.260
 2321SOL    HW2 8861   4.047  14.017   5.248
 2322SOL     OW 8862   3.712  11.658   8.741
 2322SOL    HW1 8863   3.749  11.705   8.815
 2322SOL    HW2 8864   3.656  11.591   8.781
 2323SOL     OW 8865   6.447   6.028   1.892
 2323SOL    HW1 8866   6.502   5.980   1.954
 2323SOL    HW2 8867   6.434   6.114   1.933
 2324SOL     OW 8868   8.512  12.591   1.120
 2324SOL    HW1 8869   8.446  12.627   1.179
 2324SOL    HW2 8870   8.586  12.652   1.127
 2325SOL     OW 8871   4.450   7.186   4.778
 2325SOL    HW1 8872   4.422   7.096   4.759
 2325SOL    HW2 8873   4.538   7.176   4.814
 2326SOL     OW 8874  11.699   1.632   9.253
 2326SOL    HW1 8875  11.697   1.551   9.304
 2326SOL    HW2 8876  11.610   1.642   9.220
 2327SOL     OW 8877   9.109   7.168   7.758
 2327SOL    HW1 8878   9.173   7.156   7.828
 2327SOL    HW2 8879   9.072   7.081   7.743
 2328SOL     OW 8880  11.535  11.730  12.845
 2328SOL    HW1 8881  11.630  11.721  12.846
 2328SOL    HW2 8882  11.503  11.650  12.887
 2329SOL     OW 8883   1.514   3.969   1.275
 2329SOL    HW1 8884   1.445   3.925   1.226
 2329SOL    HW2 8885   1.468   4.027   1.336
 2330SOL     OW 8886   3.751  13.934   7.748
 2330SOL    HW1 8887   3.733  13.848   7.785
 2330SOL    HW2 8888   3.672  13.954   7.697
 2331SOL     OW 8889   5.687  13.312   2.745
 2331SOL    HW1 8890   5.698  13.375   2.816
 2331SOL    HW2 8891   5.694  13.226   2.786
 2332SOL     OW 8892   1.219   0.256   9.200
 2332SOL    HW1 8893   1.231   0.184   9.262
 2332SOL    HW2 8894   1.136   0.296   9.226
 2333SOL     OW 8895   4.672   3.243  14.667
 2333SOL    HW1 8896   4.645   3.333  14.685
 2333SOL    HW2 8897   4.598   3.189  14.695
 2334SOL     OW 8898   6.107  14.855   8.689
 2334SOL    HW1 8899   6.157  14.784   8.730
 2334SOL    HW2 8900   6.073  14.817   8.608
 2335SOL     OW 8901   4.870   6.414  13.240
 2335SOL    HW1 8902   4.870   6.430  13.334
 2335SOL    HW2 8903   4.960   6.429  13.212
 2336SOL     OW 8904  13.428   3.876  12.393
 2336SOL    HW1 8905  13.516   3.909  12.412
 2336SOL    HW2 8906  13.369   3.943  12.426
 2337SOL     OW 8907  10.294  13.503   4.101
 2337SOL    HW1 8908  10.228  13.486   4.168
 2337SOL    HW2 8909  10.282  13.433   4.037
 2338SOL     OW 8910   2.551   2.297  11.470
 2338SOL    HW1 8911   2.482   2.318  11.533
 2338SOL    HW2 8912   2.632   2.316  11.516
 2339SOL     OW 8913   1.844   3.286   7.252
 2339SOL    HW1 8914   1.804   3.313   7.169
 2339SOL    HW2 8915   1.822   3.193   7.259
 2340SOL     OW 8916  11.262   6.085   1.222
 2340SOL    HW1 8917  11.310   6.132   1.154
 2340SOL    HW2 8918  11.251   6.150   1.292
 2341SOL     OW 8919   1.645   6.969   2.119
 2341SOL    HW1 8920   1.686   7.056   2.121
 2341SOL    HW2 8921   1.666   6.935   2.032
 2342SOL     OW 8922  12.424   5.423  13.952
 2342SOL    HW1 8923  12.456   5.450  13.866
 2342SOL    HW2 8924  12.371   5.497  13.982
 2343SOL     OW 8925   9.830   8.819  13.863
 2343SOL    HW1 8926   9.821   8.902  13.817
 2343SOL    HW2 8927   9.855   8.756  13.795
 2344SOL     OW 8928   8.821   9.409   8.053
 2344SOL    HW1 8929   8.861   9.496   8.064
 2344SOL    HW2 8930   8.854   9.358   8.126
 2345SOL     OW 8931   0.090   5.822  10.047
 2345SOL    HW1 8932   0.137   5.867  10.118
 2345SOL    HW2 8933   0.000   5.815  10.078
 2346SOL     OW 8934  14.844  10.268   1.087
 2346SOL    HW1 8935  14.834  10.189   1.035
 2346SOL    HW2 8936  14.866  10.237   1.175
 2347SOL     OW 8937   3.776   6.837  13.407
 2347SOL    HW1 8938   3.702   6.792  13.366
 2347SOL    HW2 8939   3.758   6.930  13.396
 2348SOL     OW 8940   4.441   0.863   9.398
 2348SOL    HW1 8941   4.531   0.837   9.418
 2348SOL    HW2 8942   4.439   0.957   9.414
 2349SOL     OW 8943   8.844   4.285  14.093
 2349SOL    HW1 8944   8.800   4.204  14.067
 2349SOL    HW2 8945   8.932   4.277  14.056
 2350SOL     OW 8946  10.563   2.383   7.490
 2350SOL    HW1 8947  10.635   2.333   7.452
 2350SOL    HW2 8948  10.595   2.411   7.575
 2351SOL     OW 8949   0.353  11.319   6.920
 2351SOL    HW1 8950   0.263  11.352   6.930
 2351SOL    HW2 8951   0.349  11.262   6.844
 2352SOL     OW 8952  12.244   7.854   8.879
 2352SOL    HW1 8953  12.331   7.894   8.880
 2352SOL    HW2 8954  12.225   7.840   8.786
 2353SOL     OW 8955   6.491  14.358   6.469
 2353SOL    HW1 8956   6.504  14.452   6.455
 2353SOL    HW2 8957   6.402  14.342   6.438
 2354SOL     OW 8958   2.381  11.371  12.073
 2354SOL    HW1 8959   2.474  11.366  12.095
 2354SOL    HW2 8960   2.367  11.301  12.009
 2355SOL     OW 8961  12.505   1.227   8.392
 2355SOL    HW1 8962  12.575   1.225   8.327
 2355SOL    HW2 8963  12.527   1.301   8.449
 2356SOL     OW 8964   8.147   2.092   0.982
 2356SOL    HW1 8965   8.163   2.183   0.958
 2356SOL    HW2 8966   8.233   2.059   1.009
 2357SOL     OW 8967  14.685   5.021   1.714
 2357SOL    HW1 8968  14.716   5.021   1.805
 2357SOL    HW2 8969  14.761   4.995   1.663
 2358SOL     OW 8970  13.098   8.436   8.226
 2358SOL    HW1 8971  13.155   8.389   8.287
 2358SOL    HW2 8972  13.156   8.466   8.156
 2359SOL     OW 8973   6.039   7.147  10.022
 2359SOL    HW1 8974   6.078   7.205  10.087
 2359SOL    HW2 8975   6.066   7.059  10.049
 2360SOL     OW 8976   6.293  12.094   6.805
 2360SOL    HW1 8977   6.368  12.083   6.865
 2360SOL    HW2 8978   6.219  12.112   6.863
 2361SOL     OW 8979   5.310  12.504   8.409
 2361SOL    HW1 8980   5.296  12.588   8.452
 2361SOL    HW2 8981   5.389  12.517   8.355
 2362SOL     OW 8982  14.085   7.073   9.205
 2362SOL    HW1 8983  13.996   7.062   9.172
 2362SOL    HW2 8984  14.134   7.000   9.168
 2363SOL     OW 8985  13.653   9.374   6.386
 2363SOL    HW1 8986  13.596   9.307   6.348
 2363SOL    HW2 8987  13.740   9.352   6.353
 2364SOL     OW 8988   7.878  13.157   6.664
 2364SOL    HW1 8989   7.916  13.160   6.577
 2364SOL    HW2 8990   7.838  13.070   6.671
 2365SOL     OW 8991   6.084   5.105   7.129
 2365SOL    HW1 8992   5.994   5.087   7.103
 2365SOL    HW2 8993   6.095   5.057   7.211
 2366SOL     OW 8994  10.062  12.378   1.097
 2366SOL    HW1 8995  10.031  12.402   1.009
 2366SOL    HW2 8996  10.154  12.406   1.098
 2367SOL     OW 8997   3.845  12.035  10.998
 2367SOL    HW1 8998   3.860  12.117  11.044
 2367SOL    HW2 8999   3.787  11.985  11.055
 2368SOL     OW 9000   0.016   3.547  11.928
 2368SOL    HW1 9001  14.817   3.512  11.983
 2368SOL    HW2 9002  14.865   3.521  11.839
 2369SOL     OW 9003   0.262   5.473   1.286
 2369SOL    HW1 9004   0.298   5.461   1.198
 2369SOL    HW2 9005   0.303   5.553   1.318
 2370SOL     OW 9006  12.211  13.897   2.414
 2370SOL    HW1 9007  12.208  13.846   2.495
 2370SOL    HW2 9008  12.132  13.952   2.418
 2371SOL     OW 9009   4.123   0.854  14.047
 2371SOL    HW1 9010   4.111   0.928  13.987
 2371SOL    HW2 9011   4.051   0.795  14.026
 2372SOL     OW 9012   6.727   5.892  10.373
 2372SOL    HW1 9013   6.818   5.863  10.376
 2372SOL    HW2 9014   6.731   5.987  10.372
 2373SOL     OW 9015  13.963   6.346   5.361
 2373SOL    HW1 9016  13.979   6.284   5.290
 2373SOL    HW2 9017  14.044   6.345   5.412
 2374SOL     OW 9018   0.145   2.984  11.187
 2374SOL    HW1 9019   0.178   2.978  11.277
 2374SOL    HW2 9020   0.056   2.949  11.192
 2375SOL     OW 9021   1.219   7.431  11.765
 2375SOL    HW1 9022   1.258   7.355  11.723
 2375SOL    HW2 9023   1.125   7.419  11.753
 2376SOL     OW 9024  11.499   4.321   1.322
 2376SOL    HW1 9025  11.513   4.404   1.277
 2376SOL    HW2 9026  11.490   4.345   1.414
 2377SOL     OW 9027   8.381   8.699   0.054
 2377SOL    HW1 9028   8.443   8.698   0.127
 2377SOL    HW2 9029   8.432   8.731  14.851
 2378SOL     OW 9030  10.557  12.160  13.754
 2378SOL    HW1 9031  10.604  12.153  13.837
 2378SOL    HW2 9032  10.598  12.093  13.698
 2379SOL     OW 9033   1.329   3.804   1.890
 2379SOL    HW1 9034   1.410   3.767   1.857
 2379SOL    HW2 9035   1.261   3.742   1.864
 2380SOL     OW 9036   3.160   6.075   6.688
 2380SOL    HW1 9037   3.172   6.163   6.652
 2380SOL    HW2 9038   3.175   6.085   6.782
 2381SOL     OW 9039   7.318   3.427  12.766
 2381SOL    HW1 9040   7.373   3.353  12.739
 2381SOL    HW2 9041   7.326   3.490  12.694
 2382SOL     OW 9042   4.556  12.284   5.834
 2382SOL    HW1 9043   4.476  12.332   5.811
 2382SOL    HW2 9044   4.622  12.353   5.847
 2383SOL     OW 9045  10.661   9.878   0.912
 2383SOL    HW1 9046  10.678   9.970   0.933
 2383SOL    HW2 9047  10.629   9.879   0.822
 2384SOL     OW 9048   7.841  12.281  13.679
 2384SOL    HW1 9049   7.794  12.361  13.702
 2384SOL    HW2 9050   7.808  12.216  13.741
 2385SOL     OW 9051   4.437   2.400   5.202
 2385SOL    HW1 9052   4.350   2.405   5.163
 2385SOL    HW2 9053   4.491   2.355   5.136
 2386SOL     OW 9054  11.719   1.999  11.451
 2386SOL    HW1 9055  11.636   1.991  11.499
 2386SOL    HW2 9056  11.706   1.943  11.374
 2387SOL     OW 9057   9.963   7.978   1.784
 2387SOL    HW1 9058   9.936   7.889   1.760
 2387SOL    HW2 9059   9.950   7.983   1.879
 2388SOL     OW 9060   7.395  10.944   3.537
 2388SOL    HW1 9061   7.392  10.938   3.441
 2388SOL    HW2 9062   7.309  10.979   3.561
 2389SOL     OW 9063  12.992  13.740   8.636
 2389SOL    HW1 9064  12.971  13.734   8.542
 2389SOL    HW2 9065  12.908  13.764   8.677
 2390SOL     OW 9066  12.248   7.763   6.078
 2390SOL    HW1 9067  12.240   7.853   6.109
 2390SOL    HW2 9068  12.268   7.771   5.984
 2391SOL     OW 9069   3.092   4.460   3.385
 2391SOL    HW1 9070   3.122   4.394   3.446
 2391SOL    HW2 9071   3.102   4.420   3.298
 2392SOL     OW 9072  14.094  13.967  11.260
 2392SOL    HW1 9073  14.091  13.948  11.166
 2392SOL    HW2 9074  14.025  14.032  11.274
 2393SOL     OW 9075   6.604  14.347   0.740
 2393SOL    HW1 9076   6.635  14.257   0.740
 2393SOL    HW2 9077   6.587  14.367   0.832
 2394SOL     OW 9078   6.249  14.142   1.208
 2394SOL    HW1 9079   6.234  14.236   1.213
 2394SOL    HW2 9080   6.246  14.112   1.299
 2395SOL     OW 9081  10.852   0.257   9.127
 2395SOL    HW1 9082  10.762   0.288   9.135
 2395SOL    HW2 9083  10.900   0.331   9.091
 2396SOL     OW 9084   4.969   0.708   3.724
 2396SOL    HW1 9085   5.010   0.623   3.711
 2396SOL    HW2 9086   4.876   0.688   3.739
 2397SOL     OW 9087   7.945   3.667  14.424
 2397SOL    HW1 9088   7.904   3.581  14.415
 2397SOL    HW2 9089   8.027   3.650  14.469
 2398SOL     OW 9090   4.638   6.040  12.873
 2398SOL    HW1 9091   4.660   6.131  12.854
 2398SOL    HW2 9092   4.723   5.995  12.876
 2399SOL     OW 9093   5.325   6.590   6.130
 2399SOL    HW1 9094   5.372   6.632   6.059
 2399SOL    HW2 9095   5.372   6.617   6.209
 2400SOL     OW 9096   8.900   9.841   8.138
 2400SOL    HW1 9097   8.958   9.905   8.097
 2400SOL    HW2 9098   8.936   9.756   8.112
 2401SOL     OW 9099   6.196   7.796   3.118
 2401SOL    HW1 9100   6.144   7.831   3.190
 2401SOL    HW2 9101   6.228   7.712   3.150
 2402SOL     OW 9102  11.237   2.135   5.088
 2402SOL    HW1 9103  11.226   2.188   5.166
 2402SOL    HW2 9104  11.163   2.159   5.032
 2403SOL     OW 9105  14.371  12.462   0.309
 2403SOL    HW1 9106  14.454  12.435   0.270
 2403SOL    HW2 9107  14.332  12.520   0.243
 2404SOL     OW 9108  10.987  12.844   3.800
 2404SOL    HW1 9109  10.946  12.923   3.763
 2404SOL    HW2 9110  10.962  12.774   3.740
 2405SOL     OW 9111  12.353  11.723   6.893
 2405SOL    HW1 9112  12.268  11.693   6.861
 2405SOL    HW2 9113  12.332  11.792   6.956
 2406SOL     OW 9114  12.856   1.376   5.546
 2406SOL    HW1 9115  12.902   1.429   5.610
 2406SOL    HW2 9116  12.911   1.299   5.533
 2407SOL     OW 9117  11.428   4.052   1.320
 2407SOL    HW1 9118  11.476   4.135   1.310
 2407SOL    HW2 9119  11.340   4.079   1.344
 2408SOL     OW 9120   2.124   8.842   1.037
 2408SOL    HW1 9121   2.112   8.925   1.083
 2408SOL    HW2 9122   2.113   8.775   1.105
 2409SOL     OW 9123   0.205  10.118   6.990
 2409SOL    HW1 9124   0.201  10.188   6.926
 2409SOL    HW2 9125   0.293  10.081   6.979
 2410SOL     OW 9126  14.294   3.741  14.835
 2410SOL    HW1 9127  14.370   3.799  14.839
 2410SOL    HW2 9128  14.221   3.799  14.814
 2411SOL     OW 9129  14.421   7.949   3.474
 2411SOL    HW1 9130  14.484   7.894   3.428
 2411SOL    HW2 9131  14.469   8.028   3.498
 2412SOL     OW 9132   7.090  13.468   8.234
 2412SOL    HW1 9133   7.051  13.382   8.252
 2412SOL    HW2 9134   7.162  13.450   8.173
 2413SOL     OW 9135   5.758  11.187   9.962
 2413SOL    HW1 9136   5.791  11.249  10.027
 2413SOL    HW2 9137   5.835  11.139   9.934
 2414SOL     OW 9138   7.677   6.902   0.675
 2414SOL    HW1 9139   7.700   6.966   0.743
 2414SOL    HW2 9140   7.582   6.894   0.681
 2415SOL     OW 9141   2.686   7.214   0.650
 2415SOL    HW1 9142   2.667   7.269   0.575
 2415SOL    HW2 9143   2.610   7.157   0.658
 2416SOL     OW 9144  12.328  13.172  14.599
 2416SOL    HW1 9145  12.318  13.261  14.565
 2416SOL    HW2 9146  12.395  13.132  14.543
 2417SOL     OW 9147   8.320   0.162  11.013
 2417SOL    HW1 9148   8.292   0.176  11.104
 2417SOL    HW2 9149   8.238   0.164  10.963
 2418SOL     OW 9150   8.766  13.340  12.087
 2418SOL    HW1 9151   8.717  13.331  12.169
 2418SOL    HW2 9152   8.795  13.431  12.087
 2419SOL     OW 9153   6.828   0.532   2.954
 2419SOL    HW1 9154   6.827   0.621   2.988
 2419SOL    HW2 9155   6.900   0.530   2.892
 2420SOL     OW 9156   4.243   8.109   2.877
 2420SOL    HW1 9157   4.234   8.167   2.953
 2420SOL    HW2 9158   4.190   8.151   2.809
 2421SOL     OW 9159   1.960   0.949   3.612
 2421SOL    HW1 9160   2.010   0.998   3.547
 2421SOL    HW2 9161   1.974   0.996   3.694
 2422SOL     OW 9162  12.515   7.548  11.485
 2422SOL    HW1 9163  12.473   7.533  11.400
 2422SOL    HW2 9164  12.449   7.523  11.549
 2423SOL     OW 9165   6.866   8.591   1.482
 2423SOL    HW1 9166   6.825   8.662   1.531
 2423SOL    HW2 9167   6.824   8.594   1.396
 2424SOL     OW 9168   4.575  12.887   8.096
 2424SOL    HW1 9169   4.501  12.940   8.123
 2424SOL    HW2 9170   4.629  12.878   8.175
 2425SOL     OW 9171  12.381   3.091  10.584
 2425SOL    HW1 9172  12.326   3.143  10.526
 2425SOL    HW2 9173  12.420   3.154  10.644
 2426SOL     OW 9174  10.377   4.932   8.539
 2426SOL    HW1 9175  10.308   4.979   8.492
 2426SOL    HW2 9176  10.341   4.919   8.627
 2427SOL     OW 9177   1.872   5.557   9.442
 2427SOL    HW1 9178   1.889   5.518   9.357
 2427SOL    HW2 9179   1.824   5.489   9.490
 2428SOL     OW 9180   5.934   3.778  13.508
 2428SOL    HW1 9181   5.963   3.708  13.448
 2428SOL    HW2 9182   5.983   3.762  13.588
 2429SOL     OW 9183   2.105  12.117   9.533
 2429SOL    HW1 9184   2.090  12.155   9.446
 2429SOL    HW2 9185   2.038  12.049   9.541
 2430SOL     OW 9186   5.396   2.568  14.076
 2430SOL    HW1 9187   5.358   2.631  14.015
 2430SOL    HW2 9188   5.485   2.601  14.092
 2431SOL     OW 9189  12.177   6.962   1.492
 2431SOL    HW1 9190  12.176   7.042   1.544
 2431SOL    HW2 9191  12.090   6.957   1.452
 2432SOL     OW 9192   2.406   8.535   1.014
 2432SOL    HW1 9193   2.406   8.444   1.043
 2432SOL    HW2 9194   2.484   8.573   1.054
 2433SOL     OW 9195   3.063   3.704   1.818
 2433SOL    HW1 9196   3.099   3.782   1.860
 2433SOL    HW2 9197   2.991   3.737   1.764
 2434SOL     OW 9198  14.366   7.181   2.097
 2434SOL    HW1 9199  14.276   7.198   2.070
 2434SOL    HW2 9200  14.360   7.100   2.149
 2435SOL     OW 9201  14.658   1.716   3.384
 2435SOL    HW1 9202  14.677   1.808   3.400
 2435SOL    HW2 9203  14.563   1.709   3.393
 2436SOL     OW 9204  11.596  14.406  10.540
 2436SOL    HW1 9205  11.500  14.403  10.545
 2436SOL    HW2 9206  11.625  14.397  10.631
 2437SOL     OW 9207  10.674   0.995   5.797
 2437SOL    HW1 9208  10.643   1.002   5.707
 2437SOL    HW2 9209  10.596   0.973   5.848
 2438SOL     OW 9210  11.758   5.510  13.356
 2438SOL    HW1 9211  11.773   5.495  13.262
 2438SOL    HW2 9212  11.692   5.445  13.380
 2439SOL     OW 9213   7.209  11.287  10.873
 2439SOL    HW1 9214   7.176  11.197  10.869
 2439SOL    HW2 9215   7.304  11.278  10.861
 2440SOL     OW 9216   6.559   6.745  11.803
 2440SOL    HW1 9217   6.532   6.662  11.842
 2440SOL    HW2 9218   6.582   6.722  11.713
 2441SOL     OW 9219   7.439   3.388   9.848
 2441SOL    HW1 9220   7.365   3.332   9.869
 2441SOL    HW2 9221   7.435   3.458   9.913
 2442SOL     OW 9222   5.620  14.198   8.858
 2442SOL    HW1 9223   5.680  14.133   8.895
 2442SOL    HW2 9224   5.645  14.204   8.766
 2443SOL     OW 9225   4.477   1.387   4.602
 2443SOL    HW1 9226   4.513   1.392   4.514
 2443SOL    HW2 9227   4.543   1.429   4.657
 2444SOL     OW 9228   2.396   7.836  13.996
 2444SOL    HW1 9229   2.317   7.803  13.954
 2444SOL    HW2 9230   2.459   7.846  13.925
 2445SOL     OW 9231   6.728   6.068  10.817
 2445SOL    HW1 9232   6.659   6.059  10.883
 2445SOL    HW2 9233   6.684   6.105  10.741
 2446SOL     OW 9234   0.068   5.126   7.400
 2446SOL    HW1 9235   0.024   5.143   7.484
 2446SOL    HW2 9236  14.867   5.106   7.340
 2447SOL     OW 9237   3.756   4.829   4.963
 2447SOL    HW1 9238   3.751   4.912   4.915
 2447SOL    HW2 9239   3.762   4.762   4.895
 2448SOL     OW 9240  11.182  10.555   0.247
 2448SOL    HW1 9241  11.156  10.639   0.286
 2448SOL    HW2 9242  11.202  10.499   0.321
 2449SOL     OW 9243   5.921   3.165  11.487
 2449SOL    HW1 9244   5.933   3.255  11.456
 2449SOL    HW2 9245   5.896   3.116  11.409
 2450SOL     OW 9246   7.666   2.059  13.797
 2450SOL    HW1 9247   7.725   2.123  13.755
 2450SOL    HW2 9248   7.679   1.979  13.746
 2451SOL     OW 9249   8.249   1.778   3.372
 2451SOL    HW1 9250   8.245   1.781   3.276
 2451SOL    HW2 9251   8.207   1.694   3.394
 2452SOL     OW 9252   3.212  10.082   3.121
 2452SOL    HW1 9253   3.302  10.107   3.101
 2452SOL    HW2 9254   3.175  10.157   3.168
 2453SOL     OW 9255   1.484   0.383   3.214
 2453SOL    HW1 9256   1.403   0.333   3.215
 2453SOL    HW2 9257   1.527   0.358   3.132
 2454SOL     OW 9258   4.154   1.697   3.905
 2454SOL    HW1 9259   4.089   1.758   3.940
 2454SOL    HW2 9260   4.238   1.740   3.919
 2455SOL     OW 9261  10.187   2.810   0.838
 2455SOL    HW1 9262  10.213   2.744   0.901
 2455SOL    HW2 9263  10.138   2.875   0.888
 2456SOL     OW 9264  13.306  10.374   6.361
 2456SOL    HW1 9265  13.253  10.369   6.441
 2456SOL    HW2 9266  13.249  10.417   6.297
 2457SOL     OW 9267  14.334   7.341  13.819
 2457SOL    HW1 9268  14.420   7.360  13.858
 2457SOL    HW2 9269  14.351   7.268  13.759
 2458SOL     OW 9270  12.024  14.283   7.711
 2458SOL    HW1 9271  11.941  14.265   7.756
 2458SOL    HW2 9272  12.081  14.320   7.778
 2459SOL     OW 9273  14.695  11.206  14.749
 2459SOL    HW1 9274  14.702  11.250  14.833
 2459SOL    HW2 9275  14.611  11.236  14.713
 2460SOL     OW 9276  13.043  11.654   5.514
 2460SOL    HW1 9277  13.101  11.581   5.494
 2460SOL    HW2 9278  12.956  11.624   5.489
 2461SOL     OW 9279   1.406  11.126   4.280
 2461SOL    HW1 9280   1.358  11.043   4.288
 2461SOL    HW2 9281   1.409  11.161   4.369
 2462SOL     OW 9282  12.231   7.888   2.297
 2462SOL    HW1 9283  12.291   7.909   2.226
 2462SOL    HW2 9284  12.148   7.928   2.271
 2463SOL     OW 9285   4.847   6.793   7.936
 2463SOL    HW1 9286   4.875   6.730   7.871
 2463SOL    HW2 9287   4.767   6.756   7.973
 2464SOL     OW 9288   8.742   3.299   7.727
 2464SOL    HW1 9289   8.654   3.337   7.725
 2464SOL    HW2 9290   8.753   3.268   7.817
 2465SOL     OW 9291   9.478   6.719   4.975
 2465SOL    HW1 9292   9.408   6.779   5.002
 2465SOL    HW2 9293   9.451   6.634   5.008
 2466SOL     OW 9294   8.994  13.651   4.477
 2466SOL    HW1 9295   9.037  13.566   4.466
 2466SOL    HW2 9296   9.066  13.713   4.494
 2467SOL     OW 9297   1.618  14.187  14.041
 2467SOL    HW1 9298   1.642  14.277  14.017
 2467SOL    HW2 9299   1.610  14.188  14.136
 2468SOL     OW 9300   8.334   5.639   6.246
 2468SOL    HW1 9301   8.282   5.671   6.172
 2468SOL    HW2 9302   8.400   5.582   6.206
 2469SOL     OW 9303  14.529  11.495   2.084
 2469SOL    HW1 9304  14.620  11.468   2.073
 2469SOL    HW2 9305  14.478  11.419   2.056
 2470SOL     OW 9306  13.779   9.182   1.013
 2470SOL    HW1 9307  13.696   9.226   1.031
 2470SOL    HW2 9308  13.777   9.164   0.919
 2471SOL     OW 9309   0.421   1.583  10.775
 2471SOL    HW1 9310   0.476   1.632  10.713
 2471SOL    HW2 9311   0.399   1.647  10.843
 2472SOL     OW 9312   1.571   4.717   4.038
 2472SOL    HW1 9313   1.508   4.787   4.023
 2472SOL    HW2 9314   1.523   4.652   4.090
 2473SOL     OW 9315   4.709   3.281  12.044
 2473SOL    HW1 9316   4.711   3.241  11.957
 2473SOL    HW2 9317   4.726   3.374  12.029
 2474SOL     OW 9318   4.588   1.887  11.419
 2474SOL    HW1 9319   4.666   1.943  11.428
 2474SOL    HW2 9320   4.568   1.860  11.509
 2475SOL     OW 9321   0.136  10.118   2.935
 2475SOL    HW1 9322   0.227  10.092   2.952
 2475SOL    HW2 9323   0.119  10.189   2.997
 2476SOL     OW 9324   9.652   1.642   1.442
 2476SOL    HW1 9325   9.664   1.560   1.491
 2476SOL    HW2 9326   9.709   1.705   1.486
 2477SOL     OW 9327   0.147   5.410  14.729
 2477SOL    HW1 9328   0.065   5.418  14.679
 2477SOL    HW2 9329   0.193   5.492  14.712
 2478SOL     OW 9330   5.809  11.524   8.489
 2478SOL    HW1 9331   5.798  11.477   8.406
 2478SOL    HW2 9332   5.904  11.525   8.503
 2479SOL     OW 9333   5.966   7.978   0.688
 2479SOL    HW1 9334   6.040   8.010   0.636
 2479SOL    HW2 9335   5.977   8.020   0.773
 2480SOL     OW 9336   4.964  12.255   4.953
 2480SOL    HW1 9337   4.929  12.343   4.937
 2480SOL    HW2 9338   4.982  12.252   5.047
 2481SOL     OW 9339   3.603   0.853   8.574
 2481SOL    HW1 9340   3.525   0.896   8.539
 2481SOL    HW2 9341   3.584   0.759   8.564
 2482SOL     OW 9342  10.717   2.781   2.013
 2482SOL    HW1 9343  10.715   2.861   2.065
 2482SOL    HW2 9344  10.625   2.757   2.001
 2483SOL     OW 9345   3.304   5.859  14.826
 2483SOL    HW1 9346   3.327   5.817  14.743
 2483SOL    HW2 9347   3.303   5.953  14.806
 2484SOL     OW 9348   0.805   3.677   0.236
 2484SOL    HW1 9349   0.820   3.621   0.160
 2484SOL    HW2 9350   0.822   3.621   0.311
 2485SOL     OW 9351   3.751   6.540  12.309
 2485SOL    HW1 9352   3.837   6.509  12.281
 2485SOL    HW2 9353   3.689   6.484  12.262
 2486SOL     OW 9354   4.307   5.943   9.765
 2486SOL    HW1 9355   4.236   6.000   9.737
 2486SOL    HW2 9356   4.267   5.856   9.775
 2487SOL     OW 9357   5.324   1.510  13.561
 2487SOL    HW1 9358   5.398   1.570  13.554
 2487SOL    HW2 9359   5.314   1.494  13.654
 2488SOL     OW 9360  13.406   1.446   4.942
 2488SOL    HW1 9361  13.382   1.463   5.033
 2488SOL    HW2 9362  13.495   1.481   4.934
 2489SOL     OW 9363   3.071   7.593  13.078
 2489SOL    HW1 9364   3.003   7.651  13.113
 2489SOL    HW2 9365   3.089   7.626  12.990
 2490SOL     OW 9366  10.137  12.242   0.394
 2490SOL    HW1 9367  10.088  12.249   0.476
 2490SOL    HW2 9368  10.203  12.311   0.400
 2491SOL     OW 9369  14.052   8.080   3.228
 2491SOL    HW1 9370  13.960   8.082   3.200
 2491SOL    HW2 9371  14.081   7.991   3.209
 2492SOL     OW 9372   3.408  14.259  12.023
 2492SOL    HW1 9373   3.376  14.304  11.945
 2492SOL    HW2 9374   3.378  14.169  12.012
 2493SOL     OW 9375   4.457  11.404   9.960
 2493SOL    HW1 9376   4.468  11.491   9.922
 2493SOL    HW2 9377   4.545  11.366   9.956
 2494SOL     OW 9378  11.210   4.088   5.556
 2494SOL    HW1 9379  11.207   4.182   5.538
 2494SOL    HW2 9380  11.222   4.047   5.470
 2495SOL     OW 9381  10.140   1.744   2.697
 2495SOL    HW1 9382  10.113   1.820   2.645
 2495SOL    HW2 9383  10.066   1.727   2.755
 2496SOL     OW 9384   9.796   8.294   8.797
 2496SOL    HW1 9385   9.796   8.227   8.728
 2496SOL    HW2 9386   9.749   8.368   8.759
 2497SOL     OW 9387  11.442   8.865   9.367
 2497SOL    HW1 9388  11.373   8.927   9.340
 2497SOL    HW2 9389  11.524   8.910   9.346
 2498SOL     OW 9390   1.904   4.837   6.982
 2498SOL    HW1 9391   1.879   4.929   6.974
 2498SOL    HW2 9392   1.864   4.794   6.907
 2499SOL     OW 9393   9.324   3.145  12.363
 2499SOL    HW1 9394   9.331   3.233  12.400
 2499SOL    HW2 9395   9.320   3.087  12.439
 2500SOL     OW 9396   8.467   7.167   6.176
 2500SOL    HW1 9397   8.458   7.091   6.234
 2500SOL    HW2 9398   8.461   7.242   6.235
 2501SOL     OW 9399  11.992  13.271  14.498
 2501SOL    HW1 9400  11.968  13.363  14.509
 2501SOL    HW2 9401  12.010  13.240  14.586
 2502SOL     OW 9402   5.923   8.602  10.475
 2502SOL    HW1 9403   5.871   8.592  10.554
 2502SOL    HW2 9404   5.877   8.549  10.409
 2503SOL     OW 9405   8.148   9.718  10.328
 2503SOL    HW1 9406   8.129   9.792  10.385
 2503SOL    HW2 9407   8.158   9.757  10.241
 2504SOL     OW 9408   5.416   6.645  14.360
 2504SOL    HW1 9409   5.351   6.663  14.293
 2504SOL    HW2 9410   5.366   6.610  14.434
 2505SOL     OW 9411   4.781   5.218   8.037
 2505SOL    HW1 9412   4.690   5.193   8.021
 2505SOL    HW2 9413   4.829   5.182   7.963
 2506SOL     OW 9414   6.753   3.058   4.495
 2506SOL    HW1 9415   6.833   3.102   4.466
 2506SOL    HW2 9416   6.785   2.986   4.550
 2507SOL     OW 9417   7.068   1.185   8.686
 2507SOL    HW1 9418   7.084   1.126   8.759
 2507SOL    HW2 9419   7.125   1.260   8.701
 2508SOL     OW 9420   0.078  11.188   4.161
 2508SOL    HW1 9421   0.087  11.273   4.204
 2508SOL    HW2 9422   0.136  11.192   4.085
 2509SOL     OW 9423   4.473   3.564  12.812
 2509SOL    HW1 9424   4.393   3.577  12.863
 2509SOL    HW2 9425   4.541   3.546  12.877
 2510SOL     OW 9426   7.561   1.729  14.016
 2510SOL    HW1 9427   7.591   1.645  14.049
 2510SOL    HW2 9428   7.539   1.713  13.924
 2511SOL     OW 9429  10.126   6.679   3.957
 2511SOL    HW1 9430  10.134   6.743   4.028
 2511SOL    HW2 9431  10.164   6.724   3.881
 2512SOL     OW 9432   3.464   9.035   2.305
 2512SOL    HW1 9433   3.374   9.041   2.335
 2512SOL    HW2 9434   3.514   9.013   2.384
 2513SOL     OW 9435  10.619  12.406   6.841
 2513SOL    HW1 9436  10.672  12.372   6.768
 2513SOL    HW2 9437  10.529  12.404   6.809
 2514SOL     OW 9438  11.255   3.087   3.032
 2514SOL    HW1 9439  11.165   3.085   3.063
 2514SOL    HW2 9440  11.272   2.999   2.998
 2515SOL     OW 9441  11.594   1.297   9.783
 2515SOL    HW1 9442  11.583   1.392   9.773
 2515SOL    HW2 9443  11.574   1.262   9.697
 2516SOL     OW 9444   7.894   8.033   0.214
 2516SOL    HW1 9445   7.869   7.952   0.258
 2516SOL    HW2 9446   7.983   8.017   0.182
 2517SOL     OW 9447   8.133   7.162  10.485
 2517SOL    HW1 9448   8.052   7.113  10.469
 2517SOL    HW2 9449   8.171   7.122  10.563
 2518SOL     OW 9450  11.132   5.026   7.600
 2518SOL    HW1 9451  11.110   4.964   7.530
 2518SOL    HW2 9452  11.060   5.089   7.599
 2519SOL     OW 9453   3.712  12.415   5.322
 2519SOL    HW1 9454   3.635  12.462   5.354
 2519SOL    HW2 9455   3.764  12.481   5.278
 2520SOL     OW 9456   2.841   5.569  10.404
 2520SOL    HW1 9457   2.819   5.662  10.401
 2520SOL    HW2 9458   2.759   5.524  10.381
 2521SOL     OW 9459  14.595  14.520   5.285
 2521SOL    HW1 9460  14.558  14.604   5.256
 2521SOL    HW2 9461  14.603  14.469   5.205
 2522SOL     OW 9462   4.341   9.330   9.368
 2522SOL    HW1 9463   4.257   9.315   9.324
 2522SOL    HW2 9464   4.319   9.387   9.442
 2523SOL     OW 9465  14.047  11.634   5.383
 2523SOL    HW1 9466  14.114  11.627   5.315
 2523SOL    HW2 9467  14.061  11.558   5.439
 2524SOL     OW 9468   4.807   0.778  10.347
 2524SOL    HW1 9469   4.731   0.733  10.383
 2524SOL    HW2 9470   4.811   0.749  10.256
 2525SOL     OW 9471   0.772   4.728   3.238
 2525SOL    HW1 9472   0.803   4.641   3.262
 2525SOL    HW2 9473   0.841   4.764   3.182
 2526SOL     OW 9474   9.278   3.146   6.067
 2526SOL    HW1 9475   9.311   3.147   5.977
 2526SOL    HW2 9476   9.205   3.207   6.067
 2527SOL     OW 9477   7.481  12.231   7.426
 2527SOL    HW1 9478   7.576  12.227   7.420
 2527SOL    HW2 9479   7.456  12.152   7.474
 2528SOL     OW 9480  10.025   4.466   1.342
 2528SOL    HW1 9481  10.111   4.464   1.301
 2528SOL    HW2 9482  10.029   4.541   1.402
 2529SOL     OW 9483  11.007  13.196  12.716
 2529SOL    HW1 9484  10.935  13.246  12.753
 2529SOL    HW2 9485  11.061  13.172  12.792
 2530SOL     OW 9486  14.634   0.366  12.482
 2530SOL    HW1 9487  14.684   0.373  12.564
 2530SOL    HW2 9488  14.680   0.299  12.432
 2531SOL     OW 9489  13.936   6.095   6.071
 2531SOL    HW1 9490  13.898   6.048   5.997
 2531SOL    HW2 9491  14.004   6.150   6.033
 2532SOL     OW 9492  11.659   1.943  10.561
 2532SOL    HW1 9493  11.677   2.006  10.631
 2532SOL    HW2 9494  11.570   1.964  10.533
 2533SOL     OW 9495   7.233   0.902   0.378
 2533SOL    HW1 9496   7.173   0.973   0.397
 2533SOL    HW2 9497   7.241   0.901   0.283
 2534SOL     OW 9498   3.500   7.517  13.745
 2534SOL    HW1 9499   3.485   7.549  13.834
 2534SOL    HW2 9500   3.473   7.589  13.688
 2535SOL     OW 9501   1.368  13.162   1.863
 2535SOL    HW1 9502   1.408  13.227   1.805
 2535SOL    HW2 9503   1.276  13.158   1.834
 2536SOL     OW 9504   2.605  13.134  10.149
 2536SOL    HW1 9505   2.686  13.086  10.170
 2536SOL    HW2 9506   2.589  13.114  10.057
 2537SOL     OW 9507  14.528   2.170   0.618
 2537SOL    HW1 9508  14.609   2.217   0.601
 2537SOL    HW2 9509  14.483   2.168   0.533
 2538SOL     OW 9510   3.668   7.253  12.927
 2538SOL    HW1 9511   3.755   7.215  12.939
 2538SOL    HW2 9512   3.678   7.345  12.952
 2539SOL     OW 9513  10.990   3.016  10.560
 2539SOL    HW1 9514  10.923   3.065  10.607
 2539SOL    HW2 9515  11.067   3.020  10.617
 2540SOL     OW 9516   2.376   1.578  10.661
 2540SOL    HW1 9517   2.316   1.596  10.734
 2540SOL    HW2 9518   2.459   1.618  10.687
 2541SOL     OW 9519  12.183   1.889   8.544
 2541SOL    HW1 9520  12.173   1.925   8.632
 2541SOL    HW2 9521  12.222   1.960   8.493
 2542SOL     OW 9522   5.117   7.417  12.083
 2542SOL    HW1 9523   5.119   7.321  12.084
 2542SOL    HW2 9524   5.061   7.438  12.008
 2543SOL     OW 9525   3.148   9.462  12.100
 2543SOL    HW1 9526   3.218   9.418  12.150
 2543SOL    HW2 9527   3.087   9.494  12.167
 2544SOL     OW 9528  13.172   5.138   2.855
 2544SOL    HW1 9529  13.152   5.078   2.926
 2544SOL    HW2 9530  13.264   5.121   2.834
 2545SOL     OW 9531   8.036   5.414   7.324
 2545SOL    HW1 9532   8.012   5.419   7.416
 2545SOL    HW2 9533   8.013   5.324   7.299
 2546SOL     OW 9534  12.395  12.036  13.446
 2546SOL    HW1 9535  12.479  11.999  13.473
 2546SOL    HW2 9536  12.418  12.115  13.398
 2547SOL     OW 9537  10.519   9.241   4.489
 2547SOL    HW1 9538  10.547   9.228   4.399
 2547SOL    HW2 9539  10.432   9.201   4.493
 2548SOL     OW 9540   0.245   0.520   5.614
 2548SOL    HW1 9541   0.272   0.501   5.524
 2548SOL    HW2 9542   0.324   0.553   5.656
 2549SOL     OW 9543   1.837   9.865   7.330
 2549SOL    HW1 9544   1.851   9.838   7.239
 2549SOL    HW2 9545   1.785   9.945   7.323
 2550SOL     OW 9546   5.593   7.972   3.015
 2550SOL    HW1 9547   5.620   8.000   3.102
 2550SOL    HW2 9548   5.671   7.931   2.977
 2551SOL     OW 9549   7.411   2.842   0.669
 2551SOL    HW1 9550   7.462   2.888   0.736
 2551SOL    HW2 9551   7.468   2.842   0.592
 2552SOL     OW 9552   7.827   4.728   9.881
 2552SOL    HW1 9553   7.736   4.754   9.894
 2552SOL    HW2 9554   7.822   4.646   9.832
 2553SOL     OW 9555   4.688   5.003  13.066
 2553SOL    HW1 9556   4.664   4.922  13.111
 2553SOL    HW2 9557   4.770   5.030  13.106
 2554SOL     OW 9558   6.919   7.858   6.607
 2554SOL    HW1 9559   6.877   7.922   6.665
 2554SOL    HW2 9560   6.960   7.911   6.539
 2555SOL     OW 9561  14.081  12.656   0.905
 2555SOL    HW1 9562  14.093  12.561   0.897
 2555SOL    HW2 9563  14.040  12.682   0.823
 2556SOL     OW 9564  12.900  10.101   2.098
 2556SOL    HW1 9565  12.811  10.077   2.071
 2556SOL    HW2 9566  12.957  10.043   2.048
 2557SOL     OW 9567   9.258   4.405  10.309
 2557SOL    HW1 9568   9.338   4.458  10.313
 2557SOL    HW2 9569   9.257   4.357  10.391
 2558SOL     OW 9570   6.930   6.392  13.597
 2558SOL    HW1 9571   6.851   6.414  13.548
 2558SOL    HW2 9572   6.986   6.469  13.588
 2559SOL     OW 9573  11.956   9.645  10.056
 2559SOL    HW1 9574  11.867   9.619  10.030
 2559SOL    HW2 9575  12.009   9.631   9.977
 2560SOL     OW 9576  14.466   3.998   3.977
 2560SOL    HW1 9577  14.399   4.004   3.909
 2560SOL    HW2 9578  14.435   3.929   4.035
 2561SOL     OW 9579   6.445  12.827   4.038
 2561SOL    HW1 9580   6.450  12.909   4.087
 2561SOL    HW2 9581   6.358  12.793   4.058
 2562SOL     OW 9582  12.491   4.075  11.897
 2562SOL    HW1 9583  12.560   4.141  11.899
 2562SOL    HW2 9584  12.438   4.094  11.974
 2563SOL     OW 9585   5.859  10.867  10.284
 2563SOL    HW1 9586   5.908  10.789  10.309
 2563SOL    HW2 9587   5.768  10.838  10.282
 2564SOL     OW 9588   1.352  13.549  12.085
 2564SOL    HW1 9589   1.364  13.629  12.034
 2564SOL    HW2 9590   1.386  13.479  12.029
 2565SOL     OW 9591   1.001   6.403   1.856
 2565SOL    HW1 9592   1.053   6.481   1.875
 2565SOL    HW2 9593   1.023   6.342   1.927
 2566SOL     OW 9594   4.445  10.163   7.145
 2566SOL    HW1 9595   4.527  10.203   7.175
 2566SOL    HW2 9596   4.381  10.183   7.213
 2567SOL     OW 9597   7.454   9.367  12.837
 2567SOL    HW1 9598   7.440   9.431  12.907
 2567SOL    HW2 9599   7.459   9.420  12.757
 2568SOL     OW 9600   6.546   1.911   3.319
 2568SOL    HW1 9601   6.507   1.952   3.241
 2568SOL    HW2 9602   6.640   1.919   3.305
 2569SOL     OW 9603   0.650   2.769   4.579
 2569SOL    HW1 9604   0.700   2.704   4.627
 2569SOL    HW2 9605   0.593   2.717   4.521
 2570SOL     OW 9606  14.838   7.244   8.870
 2570SOL    HW1 9607  14.798   7.309   8.813
 2570SOL    HW2 9608  14.866   7.294   8.947
 2571SOL     OW 9609   0.748  10.879   8.604
 2571SOL    HW1 9610   0.759  10.803   8.661
 2571SOL    HW2 9611   0.832  10.889   8.560
 2572SOL     OW 9612   3.608   6.710   8.960
 2572SOL    HW1 9613   3.665   6.713   9.037
 2572SOL    HW2 9614   3.520   6.710   8.996
 2573SOL     OW 9615   3.950   2.549  13.689
 2573SOL    HW1 9616   3.987   2.519  13.772
 2573SOL    HW2 9617   3.880   2.608  13.714
 2574SOL     OW 9618   1.221   2.394   0.408
 2574SOL    HW1 9619   1.283   2.356   0.346
 2574SOL    HW2 9620   1.185   2.470   0.361
 2575SOL     OW 9621   4.997  14.583  14.306
 2575SOL    HW1 9622   5.014  14.639  14.230
 2575SOL    HW2 9623   4.902  14.572  14.306
 2576SOL     OW 9624  13.078   3.405   2.170
 2576SOL    HW1 9625  13.056   3.374   2.258
 2576SOL    HW2 9626  13.084   3.325   2.117
 2577SOL     OW 9627   2.990  10.704   1.371
 2577SOL    HW1 9628   2.997  10.625   1.319
 2577SOL    HW2 9629   3.023  10.678   1.458
 2578SOL     OW 9630  13.390   9.691   8.352
 2578SOL    HW1 9631  13.304   9.720   8.383
 2578SOL    HW2 9632  13.413   9.753   8.283
 2579SOL     OW 9633  11.937   3.028  13.855
 2579SOL    HW1 9634  11.969   2.942  13.829
 2579SOL    HW2 9635  11.855   3.039  13.806
 2580SOL     OW 9636  11.997   8.354   9.023
 2580SOL    HW1 9637  11.926   8.328   9.081
 2580SOL    HW2 9638  11.969   8.438   8.986
 2581SOL     OW 9639  14.233   6.182  12.404
 2581SOL    HW1 9640  14.151   6.231  12.413
 2581SOL    HW2 9641  14.302   6.248  12.414
 2582SOL     OW 9642   8.427   4.048   9.578
 2582SOL    HW1 9643   8.383   4.127   9.545
 2582SOL    HW2 9644   8.451   3.999   9.499
 2583SOL     OW 9645   4.349  11.767   4.326
 2583SOL    HW1 9646   4.312  11.767   4.237
 2583SOL    HW2 9647   4.280  11.803   4.381
 2584SOL     OW 9648   9.489   8.523  11.944
 2584SOL    HW1 9649   9.525   8.436  11.964
 2584SOL    HW2 9650   9.562   8.583  11.958
 2585SOL     OW 9651  11.056   2.069  13.513
 2585SOL    HW1 9652  11.012   2.034  13.590
 2585SOL    HW2 9653  10.987   2.115  13.465
 2586SOL     OW 9654  14.340   7.157   5.669
 2586SOL    HW1 9655  14.296   7.165   5.584
 2586SOL    HW2 9656  14.270   7.160   5.734
 2587SOL     OW 9657   0.865   4.439   7.262
 2587SOL    HW1 9658   0.916   4.444   7.181
 2587SOL    HW2 9659   0.775   4.425   7.233
 2588SOL     OW 9660   1.849   5.480  12.448
 2588SOL    HW1 9661   1.935   5.520  12.440
 2588SOL    HW2 9662   1.830   5.481  12.542
 2589SOL     OW 9663  10.200   9.426   2.594
 2589SOL    HW1 9664  10.252   9.359   2.549
 2589SOL    HW2 9665  10.264   9.481   2.638
 2590SOL     OW 9666   7.441   5.505   9.767
 2590SOL    HW1 9667   7.443   5.582   9.711
 2590SOL    HW2 9668   7.456   5.432   9.707
 2591SOL     OW 9669   8.269   9.276   8.454
 2591SOL    HW1 9670   8.196   9.236   8.502
 2591SOL    HW2 9671   8.233   9.293   8.367
 2592SOL     OW 9672   3.222   7.590  11.770
 2592SOL    HW1 9673   3.205   7.683  11.755
 2592SOL    HW2 9674   3.317   7.582  11.762
 2593SOL     OW 9675  12.501  11.042  10.059
 2593SOL    HW1 9676  12.483  10.959  10.014
 2593SOL    HW2 9677  12.469  11.028  10.148
 2594SOL     OW 9678  10.680   8.227  13.538
 2594SOL    HW1 9679  10.757   8.185  13.499
 2594SOL    HW2 9680  10.702   8.234  13.631
 2595SOL     OW 9681   9.891   4.319   6.681
 2595SOL    HW1 9682   9.966   4.268   6.712
 2595SOL    HW2 9683   9.920   4.410   6.686
 2596SOL     OW 9684   0.545  10.122   0.459
 2596SOL    HW1 9685   0.571  10.032   0.476
 2596SOL    HW2 9686   0.487  10.117   0.383
 2597SOL     OW 9687   5.273   9.862   7.962
 2597SOL    HW1 9688   5.228   9.873   8.045
 2597SOL    HW2 9689   5.359   9.902   7.976
 2598SOL     OW 9690   4.933   4.041   7.960
 2598SOL    HW1 9691   5.010   4.078   7.917
 2598SOL    HW2 9692   4.897   4.114   8.011
 2599SOL     OW 9693   0.985  13.577  10.688
 2599SOL    HW1 9694   0.998  13.490  10.650
 2599SOL    HW2 9695   1.065  13.594  10.739
 2600SOL     OW 9696   8.939  11.797   0.297
 2600SOL    HW1 9697   9.018  11.833   0.257
 2600SOL    HW2 9698   8.969  11.722   0.347
 2601SOL     OW 9699   1.211   1.913   5.980
 2601SOL    HW1 9700   1.216   1.974   6.054
 2601SOL    HW2 9701   1.301   1.904   5.950
 2602SOL     OW 9702  10.194   1.642   2.305
 2602SOL    HW1 9703  10.208   1.653   2.400
 2602SOL    HW2 9704  10.147   1.720   2.279
 2603SOL     OW 9705  13.103  14.634   3.202
 2603SOL    HW1 9706  13.010  14.617   3.190
 2603SOL    HW2 9707  13.111  14.729   3.202
 2604SOL     OW 9708   7.156   2.109  10.215
 2604SOL    HW1 9709   7.213   2.099  10.292
 2604SOL    HW2 9710   7.215   2.096  10.141
 2605SOL     OW 9711  10.278   3.159   2.568
 2605SOL    HW1 9712  10.234   3.212   2.502
 2605SOL    HW2 9713  10.328   3.094   2.518
 2606SOL     OW 9714   1.241   8.884   3.315
 2606SOL    HW1 9715   1.311   8.820   3.307
 2606SOL    HW2 9716   1.239   8.929   3.231
 2607SOL     OW 9717   3.491   0.986   4.108
 2607SOL    HW1 9718   3.502   0.973   4.014
 2607SOL    HW2 9719   3.560   0.934   4.148
 2608SOL     OW 9720   9.474   8.442   0.125
 2608SOL    HW1 9721   9.485   8.391   0.205
 2608SOL    HW2 9722   9.380   8.439   0.107
 2609SOL     OW 9723   0.940  10.672   4.640
 2609SOL    HW1 9724   0.915  10.764   4.631
 2609SOL    HW2 9725   0.859  10.623   4.626
 2610SOL     OW 9726  12.282   9.668   2.184
 2610SOL    HW1 9727  12.261   9.654   2.276
 2610SOL    HW2 9728  12.311   9.760   2.180
 2611SOL     OW 9729  10.051   1.687   7.158
 2611SOL    HW1 9730  10.000   1.646   7.227
 2611SOL    HW2 9731  10.127   1.724   7.203
 2612SOL     OW 9732   3.043   7.243   1.576
 2612SOL    HW1 9733   3.050   7.295   1.496
 2612SOL    HW2 9734   2.996   7.299   1.637
 2613SOL     OW 9735  13.192  13.029   4.611
 2613SOL    HW1 9736  13.110  13.038   4.660
 2613SOL    HW2 9737  13.219  12.939   4.627
 2614SOL     OW 9738   7.409   2.998  13.633
 2614SOL    HW1 9739   7.398   3.054  13.710
 2614SOL    HW2 9740   7.324   2.956  13.621
 2615SOL     OW 9741   6.063  11.600  13.140
 2615SOL    HW1 9742   6.139  11.634  13.092
 2615SOL    HW2 9743   6.086  11.510  13.160
 2616SOL     OW 9744   4.216  13.244   0.759
 2616SOL    HW1 9745   4.244  13.314   0.700
 2616SOL    HW2 9746   4.283  13.241   0.827
 2617SOL     OW 9747   1.141  14.715   6.731
 2617SOL    HW1 9748   1.169  14.639   6.680
 2617SOL    HW2 9749   1.218  14.742   6.780
 2618SOL     OW 9750   0.226   6.784  12.045
 2618SOL    HW1 9751   0.262   6.715  11.990
 2618SOL    HW2 9752   0.144   6.749  12.079
 2619SOL     OW 9753   2.334   9.227  11.233
 2619SOL    HW1 9754   2.412   9.268  11.269
 2619SOL    HW2 9755   2.290   9.188  11.309
 2620SOL     OW 9756  13.449  14.196   6.532
 2620SOL    HW1 9757  13.523  14.256   6.522
 2620SOL    HW2 9758  13.411  14.190   6.445
 2621SOL     OW 9759   2.656   6.594   2.191
 2621SOL    HW1 9760   2.743   6.634   2.192
 2621SOL    HW2 9761   2.635   6.585   2.099
 2622SOL     OW 9762  14.539  14.275  10.960
 2622SOL    HW1 9763  14.481  14.272  11.036
 2622SOL    HW2 9764  14.619  14.317  10.992
 2623SOL     OW 9765   0.094   5.092   6.682
 2623SOL    HW1 9766   0.077   5.109   6.775
 2623SOL    HW2 9767   0.175   5.141   6.663
 2624SOL     OW 9768  13.460  12.565   5.003
 2624SOL    HW1 9769  13.444  12.639   4.944
 2624SOL    HW2 9770  13.550  12.578   5.033
 2625SOL     OW 9771   9.434   6.581  10.105
 2625SOL    HW1 9772   9.406   6.490  10.105
 2625SOL    HW2 9773   9.527   6.577  10.128
 2626SOL     OW 9774   9.498  14.501   6.585
 2626SOL    HW1 9775   9.495  14.497   6.680
 2626SOL    HW2 9776   9.497  14.595   6.565
 2627SOL     OW 9777   9.290   2.474  10.763
 2627SOL    HW1 9778   9.296   2.406  10.830
 2627SOL    HW2 9779   9.246   2.547  10.807
 2628SOL     OW 9780  10.031  14.843  10.783
 2628SOL    HW1 9781  10.057   0.048  10.731
 2628SOL    HW2 9782   9.960  14.803  10.733
 2629SOL     OW 9783  10.877   8.295   7.613
 2629SOL    HW1 9784  10.838   8.346   7.683
 2629SOL    HW2 9785  10.950   8.249   7.654
 2630SOL     OW 9786  11.738   6.199   4.235
 2630SOL    HW1 9787  11.688   6.221   4.313
 2630SOL    HW2 9788  11.768   6.284   4.201
 2631SOL     OW 9789   9.422   1.079  11.898
 2631SOL    HW1 9790   9.455   1.013  11.959
 2631SOL    HW2 9791   9.378   1.028  11.829
 2632SOL     OW 9792  12.271  12.449  13.886
 2632SOL    HW1 9793  12.254  12.379  13.949
 2632SOL    HW2 9794  12.348  12.494  13.920
 2633SOL     OW 9795   8.404   9.701   6.120
 2633SOL    HW1 9796   8.336   9.638   6.096
 2633SOL    HW2 9797   8.377   9.733   6.206
 2634SOL     OW 9798   9.758   3.959   3.558
 2634SOL    HW1 9799   9.696   3.901   3.514
 2634SOL    HW2 9800   9.727   4.047   3.538
 2635SOL     OW 9801   7.960  12.694  12.643
 2635SOL    HW1 9802   7.964  12.617  12.587
 2635SOL    HW2 9803   8.039  12.744  12.621
 2636SOL     OW 9804  12.651   6.264  13.122
 2636SOL    HW1 9805  12.659   6.177  13.083
 2636SOL    HW2 9806  12.556   6.279  13.128
 2637SOL     OW 9807   4.326   6.958   7.192
 2637SOL    HW1 9808   4.315   6.921   7.279
 2637SOL    HW2 9809   4.372   7.041   7.207
 2638SOL     OW 9810   9.855   1.630  14.013
 2638SOL    HW1 9811   9.811   1.618  14.097
 2638SOL    HW2 9812   9.926   1.565  14.014
 2639SOL     OW 9813   1.025   2.290   1.468
 2639SOL    HW1 9814   1.022   2.213   1.525
 2639SOL    HW2 9815   0.949   2.280   1.411
 2640SOL     OW 9816   3.429  10.626   9.447
 2640SOL    HW1 9817   3.433  10.618   9.352
 2640SOL    HW2 9818   3.349  10.580   9.472
 2641SOL     OW 9819  13.395   3.328   0.495
 2641SOL    HW1 9820  13.427   3.395   0.434
 2641SOL    HW2 9821  13.358   3.260   0.439
 2642SOL     OW 9822   6.155  12.330   0.611
 2642SOL    HW1 9823   6.224  12.301   0.671
 2642SOL    HW2 9824   6.164  12.425   0.608
 2643SOL     OW 9825  11.749  10.005   6.068
 2643SOL    HW1 9826  11.752  10.030   5.976
 2643SOL    HW2 9827  11.718  10.084   6.113
 2644SOL     OW 9828  14.806   5.969   0.632
 2644SOL    HW1 9829   0.009   6.030   0.630
 2644SOL    HW2 9830  14.802   5.939   0.723
 2645SOL     OW 9831   5.846   6.830  14.692
 2645SOL    HW1 9832   5.896   6.774  14.632
 2645SOL    HW2 9833   5.909   6.854  14.760
 2646SOL     OW 9834   4.364  13.408   2.292
 2646SOL    HW1 9835   4.435  13.345   2.305
 2646SOL    HW2 9836   4.318  13.409   2.376
 2647SOL     OW 9837  13.744   3.321  10.697
 2647SOL    HW1 9838  13.652   3.295  10.706
 2647SOL    HW2 9839  13.763   3.309  10.604
 2648SOL     OW 9840   0.350   6.884   5.569
 2648SOL    HW1 9841   0.318   6.928   5.648
 2648SOL    HW2 9842   0.312   6.796   5.574
 2649SOL     OW 9843  13.838  14.344  13.543
 2649SOL    HW1 9844  13.791  14.273  13.586
 2649SOL    HW2 9845  13.924  14.344  13.584
 2650SOL     OW 9846   1.287  12.790   4.852
 2650SOL    HW1 9847   1.265  12.709   4.897
 2650SOL    HW2 9848   1.325  12.846   4.920
 2651SOL     OW 9849   0.760  11.897   9.756
 2651SOL    HW1 9850   0.814  11.960   9.803
 2651SOL    HW2 9851   0.745  11.827   9.820
 2652SOL     OW 9852   8.241   6.804   6.377
 2652SOL    HW1 9853   8.201   6.879   6.333
 2652SOL    HW2 9854   8.260   6.836   6.466
 2653SOL     OW 9855   4.562  13.106  12.390
 2653SOL    HW1 9856   4.651  13.078  12.369
 2653SOL    HW2 9857   4.508  13.071  12.320
 2654SOL     OW 9858   0.991   3.052   6.935
 2654SOL    HW1 9859   0.976   3.013   6.849
 2654SOL    HW2 9860   0.917   3.111   6.947
 2655SOL     OW 9861   6.947  14.767   6.302
 2655SOL    HW1 9862   6.958  14.861   6.291
 2655SOL    HW2 9863   6.924  14.734   6.215
 2656SOL     OW 9864   9.596   7.729   4.636
 2656SOL    HW1 9865   9.673   7.678   4.612
 2656SOL    HW2 9866   9.547   7.740   4.555
 2657SOL     OW 9867  10.063   0.297   7.065
 2657SOL    HW1 9868  10.006   0.362   7.107
 2657SOL    HW2 9869  10.123   0.270   7.134
 2658SOL     OW 9870   5.917   3.708   0.640
 2658SOL    HW1 9871   5.964   3.712   0.723
 2658SOL    HW2 9872   5.980   3.673   0.578
 2659SOL     OW 9873   0.201   7.376  10.502
 2659SOL    HW1 9874   0.277   7.413  10.547
 2659SOL    HW2 9875   0.162   7.316  10.566
 2660SOL     OW 9876  12.508   3.101   3.458
 2660SOL    HW1 9877  12.506   3.187   3.500
 2660SOL    HW2 9878  12.582   3.057   3.499
 2661SOL     OW 9879   7.769  13.581   6.847
 2661SOL    HW1 9880   7.770  13.499   6.897
 2661SOL    HW2 9881   7.840  13.633   6.884
 2662SOL     OW 9882   3.479  12.433  10.562
 2662SOL    HW1 9883   3.393  12.392  10.560
 2662SOL    HW2 9884   3.537  12.365  10.596
 2663SOL     OW 9885   3.092   0.306   1.930
 2663SOL    HW1 9886   3.140   0.384   1.960
 2663SOL    HW2 9887   3.071   0.258   2.010
 2664SOL     OW 9888   5.864  11.299  11.759
 2664SOL    HW1 9889   5.847  11.234  11.690
 2664SOL    HW2 9890   5.859  11.383  11.714
 2665SOL     OW 9891   4.783  10.608   2.850
 2665SOL    HW1 9892   4.869  10.615   2.889
 2665SOL    HW2 9893   4.723  10.643   2.916
 2666SOL     OW 9894   2.220   5.359   2.376
 2666SOL    HW1 9895   2.261   5.273   2.381
 2666SOL    HW2 9896   2.136   5.348   2.421
 2667SOL     OW 9897  12.447  11.078   0.256
 2667SOL    HW1 9898  12.542  11.089   0.245
 2667SOL    HW2 9899  12.438  11.008   0.320
 2668SOL     OW 9900  11.936   2.218   2.185
 2668SOL    HW1 9901  12.006   2.186   2.127
 2668SOL    HW2 9902  11.982   2.271   2.250
 2669SOL     OW 9903  12.614   4.997   5.879
 2669SOL    HW1 9904  12.659   4.916   5.901
 2669SOL    HW2 9905  12.540   5.001   5.941
 2670SOL     OW 9906  11.907   6.015   5.666
 2670SOL    HW1 9907  11.853   5.948   5.708
 2670SOL    HW2 9908  11.922   6.080   5.734
 2671SOL     OW 9909   8.458   8.496   8.711
 2671SOL    HW1 9910   8.496   8.417   8.749
 2671SOL    HW2 9911   8.479   8.566   8.773
 2672SOL     OW 9912   9.100   1.929   0.493
 2672SOL    HW1 9913   9.038   1.922   0.566
 2672SOL    HW2 9914   9.099   2.022   0.470
 2673SOL     OW 9915   9.174  12.137   4.862
 2673SOL    HW1 9916   9.172  12.085   4.942
 2673SOL    HW2 9917   9.245  12.098   4.810
 2674SOL     OW 9918  10.672  10.706  10.881
 2674SOL    HW1 9919  10.752  10.702  10.829
 2674SOL    HW2 9920  10.677  10.629  10.938
 2675SOL     OW 9921  12.820   7.129   7.504
 2675SOL    HW1 9922  12.855   7.196   7.446
 2675SOL    HW2 9923  12.759   7.079   7.450
 2676SOL     OW 9924   7.395  11.706   9.174
 2676SOL    HW1 9925   7.489  11.689   9.178
 2676SOL    HW2 9926   7.378  11.719   9.081
 2677SOL     OW 9927   3.377   7.349   2.337
 2677SOL    HW1 9928   3.455   7.400   2.316
 2677SOL    HW2 9929   3.386   7.270   2.283
 2678SOL     OW 9930   4.813   9.292  14.384
 2678SOL    HW1 9931   4.731   9.252  14.415
 2678SOL    HW2 9932   4.830   9.363  14.446
 2679SOL     OW 9933   1.354   4.059   2.742
 2679SOL    HW1 9934   1.370   3.972   2.705
 2679SOL    HW2 9935   1.404   4.061   2.823
 2680SOL     OW 9936   8.355   8.525  14.329
 2680SOL    HW1 9937   8.402   8.459  14.278
 2680SOL    HW2 9938   8.381   8.608  14.290
 2681SOL     OW 9939  11.382   8.536   5.967
 2681SOL    HW1 9940  11.291   8.552   5.994
 2681SOL    HW2 9941  11.378   8.531   5.872
 2682SOL     OW 9942   1.528   8.679  10.603
 2682SOL    HW1 9943   1.434   8.691  10.597
 2682SOL    HW2 9944   1.542   8.639  10.689
 2683SOL     OW 9945   6.620   1.475   6.047
 2683SOL    HW1 9946   6.635   1.563   6.011
 2683SOL    HW2 9947   6.548   1.487   6.109
 2684SOL     OW 9948   3.937   4.192   1.413
 2684SOL    HW1 9949   3.884   4.171   1.490
 2684SOL    HW2 9950   3.877   4.183   1.339
 2685SOL     OW 9951   1.607   2.086  12.929
 2685SOL    HW1 9952   1.550   2.020  12.968
 2685SOL    HW2 9953   1.628   2.145  13.001
 2686SOL     OW 9954   9.804   0.204  12.635
 2686SOL    HW1 9955   9.800   0.129  12.693
 2686SOL    HW2 9956   9.824   0.278  12.692
 2687SOL     OW 9957   7.687  10.310   9.299
 2687SOL    HW1 9958   7.759  10.248   9.292
 2687SOL    HW2 9959   7.615  10.268   9.252
 2688SOL     OW 9960   2.546   5.699  10.415
 2688SOL    HW1 9961   2.510   5.622  10.372
 2688SOL    HW2 9962   2.504   5.700  10.501
 2689SOL     OW 9963   1.115   4.976   5.957
 2689SOL    HW1 9964   1.115   5.039   5.884
 2689SOL    HW2 9965   1.152   5.025   6.030
 2690SOL     OW 9966   6.199   7.494   1.660
 2690SOL    HW1 9967   6.273   7.498   1.599
 2690SOL    HW2 9968   6.202   7.578   1.706
 2691SOL     OW 9969  11.535   7.279   6.139
 2691SOL    HW1 9970  11.491   7.364   6.136
 2691SOL    HW2 9971  11.534   7.247   6.048
 2692SOL     OW 9972   0.311   0.378   3.741
 2692SOL    HW1 9973   0.400   0.344   3.744
 2692SOL    HW2 9974   0.287   0.390   3.833
 2693SOL     OW 9975   4.859   8.193   2.124
 2693SOL    HW1 9976   4.857   8.252   2.050
 2693SOL    HW2 9977   4.898   8.112   2.090
 2694SOL     OW 9978   1.907   5.604   2.744
 2694SOL    HW1 9979   1.934   5.671   2.807
 2694SOL    HW2 9980   1.949   5.524   2.775
 2695SOL     OW 9981   9.454   4.977  10.980
 2695SOL    HW1 9982   9.532   4.979  10.925
 2695SOL    HW2 9983   9.396   4.913  10.939
 2696SOL     OW 9984  11.815   7.238   2.075
 2696SOL    HW1 9985  11.825   7.196   1.989
 2696SOL    HW2 9986  11.827   7.332   2.057
 2697SOL     OW 9987   3.583   7.606   7.992
 2697SOL    HW1 9988   3.668   7.601   8.036
 2697SOL    HW2 9989   3.565   7.700   7.987
 2698SOL     OW 9990   4.120   7.752   2.652
 2698SOL    HW1 9991   4.164   7.785   2.730
 2698SOL    HW2 9992   4.071   7.827   2.619
 2699SOL     OW 9993   1.501  10.486  12.310
 2699SOL    HW1 9994   1.580  10.535  12.331
 2699SOL    HW2 9995   1.448  10.490  12.390
 2700SOL     OW 9996   5.053   5.862  13.386
 2700SOL    HW1 9997   5.147   5.877  13.395
 2700SOL    HW2 9998   5.037   5.781  13.435
 2701SOL     OW 9999  14.312   0.249   3.677
 2701SOL    HW110000  14.344   0.164   3.707
 2701SOL    HW210001  14.373   0.313   3.716
 2702SOL     OW10002   2.043   6.832  10.216
 2702SOL    HW110003   1.998   6.793  10.141
 2702SOL    HW210004   2.016   6.924  10.215
 2703SOL     OW10005   3.021  13.934  14.504
 2703SOL    HW110006   3.109  13.969  14.516
 2703SOL    HW210007   3.008  13.932  14.409
 2704SOL     OW10008  12.540   5.124   8.553
 2704SOL    HW110009  12.630   5.149   8.571
 2704SOL    HW210010  12.543   5.086   8.465
 2705SOL     OW10011   7.409  11.333   8.904
 2705SOL    HW110012   7.395  11.277   8.981
 2705SOL    HW210013   7.391  11.276   8.829
 2706SOL     OW10014  13.107   1.223   4.540
 2706SOL    HW110015  13.125   1.311   4.507
 2706SOL    HW210016  13.156   1.217   4.622
 2707SOL     OW10017   9.333   3.775  13.078
 2707SOL    HW110018   9.249   3.788  13.122
 2707SOL    HW210019   9.328   3.830  13.000
 2708SOL     OW10020   8.709   9.766   4.394
 2708SOL    HW110021   8.616   9.754   4.412
 2708SOL    HW210022   8.737   9.683   4.354
 2709SOL     OW10023  13.039   6.765  14.026
 2709SOL    HW110024  12.953   6.805  14.011
 2709SOL    HW210025  13.101   6.833  14.004
 2710SOL     OW10026  14.152   6.082   5.422
 2710SOL    HW110027  14.112   6.066   5.337
 2710SOL    HW210028  14.166   6.177   5.425
 2711SOL     OW10029  10.542   6.965  14.384
 2711SOL    HW110030  10.465   6.911  14.368
 2711SOL    HW210031  10.561   6.953  14.477
 2712SOL     OW10032   4.071   2.788   6.635
 2712SOL    HW110033   4.076   2.799   6.540
 2712SOL    HW210034   4.088   2.695   6.650
 2713SOL     OW10035   7.894   6.087   2.684
 2713SOL    HW110036   7.912   6.146   2.758
 2713SOL    HW210037   7.808   6.113   2.653
 2714SOL     OW10038   8.737   2.797   7.727
 2714SOL    HW110039   8.821   2.807   7.771
 2714SOL    HW210040   8.753   2.827   7.638
 2715SOL     OW10041   5.889  11.334  12.031
 2715SOL    HW110042   5.882  11.309  11.939
 2715SOL    HW210043   5.804  11.370  12.054
 2716SOL     OW10044   2.832   4.378  14.644
 2716SOL    HW110045   2.777   4.300  14.649
 2716SOL    HW210046   2.770   4.451  14.639
 2717SOL     OW10047   3.925  13.899   5.402
 2717SOL    HW110048   3.844  13.876   5.357
 2717SOL    HW210049   3.908  13.877   5.494
 2718SOL     OW10050   5.767   1.954  11.402
 2718SOL    HW110051   5.827   1.991  11.467
 2718SOL    HW210052   5.806   1.869  11.379
 2719SOL     OW10053   6.193  12.133   3.279
 2719SOL    HW110054   6.241  12.159   3.357
 2719SOL    HW210055   6.232  12.184   3.208
 2720SOL     OW10056   5.637  13.764   9.046
 2720SOL    HW110057   5.679  13.804   8.970
 2720SOL    HW210058   5.660  13.671   9.041
 2721SOL     OW10059  11.122  14.162  11.257
 2721SOL    HW110060  11.159  14.244  11.223
 2721SOL    HW210061  11.098  14.113  11.178
 2722SOL     OW10062  13.333  11.162  10.809
 2722SOL    HW110063  13.425  11.159  10.834
 2722SOL    HW210064  13.289  11.104  10.872
 2723SOL     OW10065   6.270   1.679   3.976
 2723SOL    HW110066   6.184   1.691   4.016
 2723SOL    HW210067   6.256   1.618   3.904
 2724SOL     OW10068   5.872   7.636  14.172
 2724SOL    HW110069   5.833   7.712  14.214
 2724SOL    HW210070   5.808   7.566  14.185
 2725SOL     OW10071   6.907   9.867   3.183
 2725SOL    HW110072   6.874   9.790   3.136
 2725SOL    HW210073   6.831   9.924   3.193
 2726SOL     OW10074  14.159  11.934   0.878
 2726SOL    HW110075  14.136  11.942   0.785
 2726SOL    HW210076  14.234  11.993   0.889
 2727SOL     OW10077   9.950   1.996   8.872
 2727SOL    HW110078   9.898   1.929   8.916
 2727SOL    HW210079   9.987   2.048   8.944
 2728SOL     OW10080   2.798  14.471  10.145
 2728SOL    HW110081   2.852  14.462  10.223
 2728SOL    HW210082   2.842  14.418  10.078
 2729SOL     OW10083   1.870  12.453  10.357
 2729SOL    HW110084   1.790  12.505  10.357
 2729SOL    HW210085   1.912  12.473  10.273
 2730SOL     OW10086   1.948  11.725  10.303
 2730SOL    HW110087   1.881  11.658  10.289
 2730SOL    HW210088   1.899  11.807  10.305
 2731SOL     OW10089   1.485   4.286  13.553
 2731SOL    HW110090   1.405   4.334  13.536
 2731SOL    HW210091   1.468   4.199  13.517
 2732SOL     OW10092   9.611   4.600   5.532
 2732SOL    HW110093   9.672   4.657   5.577
 2732SOL    HW210094   9.585   4.649   5.454
 2733SOL     OW10095   9.003  11.693   6.831
 2733SOL    HW110096   8.931  11.692   6.767
 2733SOL    HW210097   8.971  11.641   6.904
 2734SOL     OW10098   1.564  13.281   8.558
 2734SOL    HW110099   1.637  13.337   8.586
 2734SOL    HW210100   1.581  13.265   8.465
 2735SOL     OW10101   0.126   6.702   3.948
 2735SOL    HW110102   0.063   6.631   3.937
 2735SOL    HW210103   0.171   6.706   3.864
 2736SOL     OW10104   1.458  12.833  11.621
 2736SOL    HW110105   1.541  12.786  11.612
 2736SOL    HW210106   1.435  12.823  11.713
 2737SOL     OW10107   7.221   0.729   9.435
 2737SOL    HW110108   7.260   0.670   9.498
 2737SOL    HW210109   7.251   0.698   9.350
 2738SOL     OW10110   1.645  11.629  10.309
 2738SOL    HW110111   1.711  11.560  10.315
 2738SOL    HW210112   1.660  11.670  10.224
 2739SOL     OW10113  12.830   2.687   3.802
 2739SOL    HW110114  12.869   2.610   3.759
 2739SOL    HW210115  12.896   2.713   3.867
 2740SOL     OW10116  10.000   1.642  12.445
 2740SOL    HW110117  10.060   1.695  12.392
 2740SOL    HW210118   9.946   1.706  12.492
 2741SOL     OW10119   9.902  11.665   8.303
 2741SOL    HW110120   9.972  11.605   8.277
 2741SOL    HW210121   9.839  11.661   8.231
 2742SOL     OW10122   9.935  11.985   4.905
 2742SOL    HW110123   9.845  11.996   4.936
 2742SOL    HW210124   9.925  11.968   4.811
 2743SOL     OW10125  10.694  11.164   5.511
 2743SOL    HW110126  10.619  11.111   5.483
 2743SOL    HW210127  10.701  11.147   5.605
 2744SOL     OW10128   7.487   9.605  13.283
 2744SOL    HW110129   7.469   9.664  13.357
 2744SOL    HW210130   7.549   9.541  13.317
 2745SOL     OW10131   7.191   0.014  13.839
 2745SOL    HW110132   7.235   0.037  13.921
 2745SOL    HW210133   7.099   0.035  13.855
 2746SOL     OW10134   6.938   3.660   3.957
 2746SOL    HW110135   7.030   3.637   3.975
 2746SOL    HW210136   6.914   3.719   4.029
 2747SOL     OW10137  12.025   2.606   5.848
 2747SOL    HW110138  12.105   2.659   5.856
 2747SOL    HW210139  11.983   2.639   5.769
 2748SOL     OW10140   5.210   7.942   1.399
 2748SOL    HW110141   5.228   7.914   1.489
 2748SOL    HW210142   5.172   8.030   1.408
 2749SOL     OW10143   4.787  12.273   6.830
 2749SOL    HW110144   4.861  12.250   6.774
 2749SOL    HW210145   4.808  12.235   6.915
 2750SOL     OW10146   2.867  11.390   0.041
 2750SOL    HW110147   2.887  11.482   0.022
 2750SOL    HW210148   2.943  11.342   0.008
 2751SOL     OW10149  12.942   2.066   5.000
 2751SOL    HW110150  12.936   2.147   4.951
 2751SOL    HW210151  12.910   2.087   5.087
 2752SOL     OW10152   0.430   2.724   9.234
 2752SOL    HW110153   0.446   2.774   9.314
 2752SOL    HW210154   0.416   2.634   9.264
 2753SOL     OW10155   4.342   1.161  11.537
 2753SOL    HW110156   4.406   1.195  11.475
 2753SOL    HW210157   4.377   1.186  11.623
 2754SOL     OW10158  11.086   0.508   9.390
 2754SOL    HW110159  11.105   0.563   9.314
 2754SOL    HW210160  11.143   0.431   9.379
 2755SOL     OW10161  10.634  12.067   3.195
 2755SOL    HW110162  10.688  11.993   3.222
 2755SOL    HW210163  10.598  12.040   3.110
 2756SOL     OW10164   0.709   3.639   1.342
 2756SOL    HW110165   0.790   3.588   1.336
 2756SOL    HW210166   0.733   3.715   1.394
 2757SOL     OW10167  11.393   0.230   3.398
 2757SOL    HW110168  11.436   0.152   3.365
 2757SOL    HW210169  11.420   0.300   3.338
 2758SOL     OW10170   5.575   0.653   8.714
 2758SOL    HW110171   5.615   0.624   8.632
 2758SOL    HW210172   5.574   0.748   8.708
 2759SOL     OW10173   7.415   2.497   1.343
 2759SOL    HW110174   7.393   2.411   1.308
 2759SOL    HW210175   7.400   2.489   1.437
 2760SOL     OW10176  11.378   9.540  12.666
 2760SOL    HW110177  11.332   9.537  12.750
 2760SOL    HW210178  11.422   9.625  12.666
 2761SOL     OW10179   0.175  13.543   4.052
 2761SOL    HW110180   0.248  13.554   3.992
 2761SOL    HW210181   0.193  13.461   4.097
 2762SOL     OW10182  11.576   1.239  13.773
 2762SOL    HW110183  11.573   1.155  13.727
 2762SOL    HW210184  11.484   1.264  13.782
 2763SOL     OW10185  13.390   4.955   2.708
 2763SOL    HW110186  13.467   4.944   2.652
 2763SOL    HW210187  13.317   4.927   2.652
 2764SOL     OW10188  12.526   2.659   8.963
 2764SOL    HW110189  12.598   2.721   8.976
 2764SOL    HW210190  12.533   2.634   8.871
 2765SOL     OW10191   1.133   4.528  13.301
 2765SOL    HW110192   1.069   4.597  13.313
 2765SOL    HW210193   1.142   4.519  13.206
 2766SOL     OW10194   4.786   1.959   1.997
 2766SOL    HW110195   4.744   1.952   2.083
 2766SOL    HW210196   4.875   1.925   2.011
 2767SOL     OW10197  10.077   0.396   7.426
 2767SOL    HW110198  10.142   0.330   7.402
 2767SOL    HW210199  10.053   0.438   7.343
 2768SOL     OW10200   4.864   7.911  11.910
 2768SOL    HW110201   4.836   7.842  11.850
 2768SOL    HW210202   4.928   7.962  11.860
 2769SOL     OW10203   8.349  11.176   0.309
 2769SOL    HW110204   8.418  11.117   0.279
 2769SOL    HW210205   8.276  11.160   0.250
 2770SOL     OW10206  11.349  14.185  11.934
 2770SOL    HW110207  11.351  14.230  12.019
 2770SOL    HW210208  11.425  14.219  11.887
 2771SOL     OW10209   1.922   4.117  11.891
 2771SOL    HW110210   1.974   4.151  11.818
 2771SOL    HW210211   1.861   4.188  11.911
 2772SOL     OW10212   3.836   4.386   4.979
 2772SOL    HW110213   3.930   4.373   4.991
 2772SOL    HW210214   3.812   4.453   5.043
 2773SOL     OW10215   5.042  14.785  14.619
 2773SOL    HW110216   5.089  14.722  14.673
 2773SOL    HW210217   5.104  14.807  14.549
 2774SOL     OW10218   2.002  11.067   3.798
 2774SOL    HW110219   1.961  11.034   3.878
 2774SOL    HW210220   1.952  11.027   3.727
 2775SOL     OW10221   8.673  10.619   6.718
 2775SOL    HW110222   8.727  10.698   6.714
 2775SOL    HW210223   8.646  10.605   6.627
 2776SOL     OW10224  14.601  13.109   0.021
 2776SOL    HW110225  14.545  13.037  14.866
 2776SOL    HW210226  14.690  13.075   0.013
 2777SOL     OW10227   7.849   8.125   6.650
 2777SOL    HW110228   7.850   8.137   6.745
 2777SOL    HW210229   7.774   8.069   6.633
 2778SOL     OW10230   1.583   2.017   1.856
 2778SOL    HW110231   1.580   2.054   1.944
 2778SOL    HW210232   1.503   2.050   1.814
 2779SOL     OW10233   4.719  12.432   7.393
 2779SOL    HW110234   4.678  12.413   7.309
 2779SOL    HW210235   4.678  12.514   7.422
 2780SOL     OW10236  13.722  14.828   0.444
 2780SOL    HW110237  13.681   0.026   0.495
 2780SOL    HW210238  13.764   0.001   0.371
 2781SOL     OW10239  10.804  14.847   8.288
 2781SOL    HW110240  10.744  14.784   8.330
 2781SOL    HW210241  10.891  14.813   8.308
 2782SOL     OW10242  11.142  12.676  10.448
 2782SOL    HW110243  11.120  12.605  10.508
 2782SOL    HW210244  11.195  12.736  10.500
 2783SOL     OW10245  11.814   7.740  12.335
 2783SOL    HW110246  11.779   7.678  12.270
 2783SOL    HW210247  11.894   7.698  12.367
 2784SOL     OW10248   5.188  12.950   7.655
 2784SOL    HW110249   5.100  12.919   7.674
 2784SOL    HW210250   5.194  13.035   7.699
 2785SOL     OW10251  10.029   3.095   8.441
 2785SOL    HW110252  10.064   3.166   8.388
 2785SOL    HW210253   9.965   3.052   8.384
 2786SOL     OW10254  13.449   8.618   1.180
 2786SOL    HW110255  13.516   8.563   1.220
 2786SOL    HW210256  13.478   8.707   1.195
 2787SOL     OW10257   0.633  13.858   2.088
 2787SOL    HW110258   0.543  13.833   2.066
 2787SOL    HW210259   0.684  13.835   2.010
 2788SOL     OW10260   7.858   1.130   5.397
 2788SOL    HW110261   7.777   1.130   5.347
 2788SOL    HW210262   7.844   1.063   5.465
 2789SOL     OW10263   9.909   1.775   1.537
 2789SOL    HW110264   9.938   1.702   1.481
 2789SOL    HW210265   9.959   1.764   1.618
 2790SOL     OW10266   8.028   3.281   1.062
 2790SOL    HW110267   7.953   3.306   1.116
 2790SOL    HW210268   8.020   3.187   1.051
 2791SOL     OW10269  11.348   0.068   7.839
 2791SOL    HW110270  11.255   0.047   7.850
 2791SOL    HW210271  11.384  14.867   7.788
 2792SOL     OW10272  12.930   9.005   4.233
 2792SOL    HW110273  12.865   8.934   4.225
 2792SOL    HW210274  12.991   8.990   4.161
 2793SOL     OW10275  14.248   2.526  10.024
 2793SOL    HW110276  14.317   2.592  10.018
 2793SOL    HW210277  14.211   2.537  10.112
 2794SOL     OW10278   4.237   6.859   6.955
 2794SOL    HW110279   4.287   6.900   7.026
 2794SOL    HW210280   4.217   6.771   6.987
 2795SOL     OW10281  12.643   3.098  11.486
 2795SOL    HW110282  12.582   3.026  11.502
 2795SOL    HW210283  12.729   3.061  11.505
 2796SOL     OW10284   3.307   7.879  11.216
 2796SOL    HW110285   3.299   7.973  11.229
 2796SOL    HW210286   3.357   7.870  11.135
 2797SOL     OW10287   0.741  14.416   4.299
 2797SOL    HW110288   0.764  14.451   4.213
 2797SOL    HW210289   0.731  14.322   4.285
 2798SOL     OW10290   7.753   7.273  12.949
 2798SOL    HW110291   7.743   7.250  12.856
 2798SOL    HW210292   7.726   7.365  12.954
 2799SOL     OW10293   2.054   1.522   5.748
 2799SOL    HW110294   2.011   1.450   5.795
 2799SOL    HW210295   1.998   1.539   5.673
 2800SOL     OW10296  10.641   8.388  11.949
 2800SOL    HW110297  10.723   8.386  11.900
 2800SOL    HW210298  10.591   8.460  11.910
 2801SOL     OW10299   5.341   6.008   0.918
 2801SOL    HW110300   5.420   6.055   0.948
 2801SOL    HW210301   5.284   6.006   0.995
 2802SOL     OW10302   6.035  11.059  10.932
 2802SOL    HW110303   6.000  10.970  10.923
 2802SOL    HW210304   6.115  11.058  10.879
 2803SOL     OW10305   9.507   1.065   0.167
 2803SOL    HW110306   9.453   1.073   0.245
 2803SOL    HW210307   9.574   1.133   0.177
 2804SOL     OW10308  13.814   6.888  13.160
 2804SOL    HW110309  13.873   6.945  13.208
 2804SOL    HW210310  13.865   6.809  13.142
 2805SOL     OW10311  10.363  14.187  13.891
 2805SOL    HW110312  10.432  14.125  13.915
 2805SOL    HW210313  10.282  14.138  13.901
 2806SOL     OW10314   1.305   8.199  11.680
 2806SOL    HW110315   1.276   8.110  11.658
 2806SOL    HW210316   1.397   8.189  11.704
 2807SOL     OW10317   7.913   1.099   2.588
 2807SOL    HW110318   7.920   1.156   2.665
 2807SOL    HW210319   7.950   1.016   2.615
 2808SOL     OW10320  10.057   5.356  12.421
 2808SOL    HW110321  10.107   5.303  12.359
 2808SOL    HW210322   9.968   5.320  12.417
 2809SOL     OW10323   5.772   0.102   9.673
 2809SOL    HW110324   5.791   0.159   9.599
 2809SOL    HW210325   5.746   0.018   9.633
 2810SOL     OW10326   0.390   7.797  10.462
 2810SOL    HW110327   0.449   7.755  10.525
 2810SOL    HW210328   0.400   7.890  10.478
 2811SOL     OW10329   8.622   1.154   6.554
 2811SOL    HW110330   8.555   1.215   6.585
 2811SOL    HW210331   8.597   1.133   6.464
 2812SOL     OW10332   4.348  12.729   8.698
 2812SOL    HW110333   4.413  12.737   8.627
 2812SOL    HW210334   4.400  12.725   8.778
 2813SOL     OW10335  12.404   4.974   4.362
 2813SOL    HW110336  12.468   5.042   4.342
 2813SOL    HW210337  12.449   4.916   4.423
 2814SOL     OW10338   3.956   6.411   8.026
 2814SOL    HW110339   3.933   6.428   7.935
 2814SOL    HW210340   4.037   6.460   8.039
 2815SOL     OW10341   9.171   1.829   2.560
 2815SOL    HW110342   9.187   1.865   2.647
 2815SOL    HW210343   9.088   1.781   2.569
 2816SOL     OW10344  12.083  13.404   5.975
 2816SOL    HW110345  12.022  13.350   5.925
 2816SOL    HW210346  12.027  13.464   6.024
 2817SOL     OW10347   2.278   9.191   6.675
 2817SOL    HW110348   2.197   9.239   6.655
 2817SOL    HW210349   2.274   9.177   6.770
 2818SOL     OW10350  12.771   7.966   1.769
 2818SOL    HW110351  12.830   7.891   1.762
 2818SOL    HW210352  12.707   7.941   1.836
 2819SOL     OW10353   7.133   6.923  11.442
 2819SOL    HW110354   7.177   6.927  11.527
 2819SOL    HW210355   7.079   6.844  11.447
 2820SOL     OW10356   9.023   3.314   6.691
 2820SOL    HW110357   8.943   3.316   6.743
 2820SOL    HW210358   8.995   3.337   6.602
 2821SOL     OW10359   5.218  10.728   2.349
 2821SOL    HW110360   5.199  10.763   2.435
 2821SOL    HW210361   5.133  10.727   2.304
 2822SOL     OW10362   1.626   3.819  13.518
 2822SOL    HW110363   1.653   3.828  13.427
 2822SOL    HW210364   1.663   3.896  13.562
 2823SOL     OW10365  10.522   9.679   5.100
 2823SOL    HW110366  10.604   9.638   5.073
 2823SOL    HW210367  10.454   9.627   5.057
 2824SOL     OW10368  14.115   6.895   3.305
 2824SOL    HW110369  14.051   6.949   3.258
 2824SOL    HW210370  14.197   6.909   3.257
 2825SOL     OW10371  14.595   0.404  11.200
 2825SOL    HW110372  14.580   0.468  11.270
 2825SOL    HW210373  14.628   0.457  11.127
 2826SOL     OW10374   2.304  13.354  11.229
 2826SOL    HW110375   2.372  13.333  11.293
 2826SOL    HW210376   2.329  13.439  11.194
 2827SOL     OW10377  13.131   1.895   1.465
 2827SOL    HW110378  13.226   1.888   1.460
 2827SOL    HW210379  13.099   1.810   1.433
 2828SOL     OW10380   0.830   1.426  13.942
 2828SOL    HW110381   0.804   1.429  13.849
 2828SOL    HW210382   0.818   1.335  13.967
 2829SOL     OW10383   2.665   5.365   3.068
 2829SOL    HW110384   2.642   5.275   3.046
 2829SOL    HW210385   2.719   5.358   3.146
 2830SOL     OW10386   1.089  10.995   8.273
 2830SOL    HW110387   1.102  11.075   8.223
 2830SOL    HW210388   1.143  10.929   8.228
 2831SOL     OW10389   9.858   2.845   9.623
 2831SOL    HW110390   9.868   2.937   9.599
 2831SOL    HW210391   9.943   2.821   9.661
 2832SOL     OW10392   3.721   7.319  12.356
 2832SOL    HW110393   3.799   7.368  12.382
 2832SOL    HW210394   3.753   7.231  12.335
 2833SOL     OW10395   1.815   7.337   3.970
 2833SOL    HW110396   1.732   7.374   3.942
 2833SOL    HW210397   1.879   7.407   3.959
 2834SOL     OW10398   4.041   8.236   6.084
 2834SOL    HW110399   4.020   8.151   6.046
 2834SOL    HW210400   4.094   8.280   6.017
 2835SOL     OW10401   3.647   4.984   5.766
 2835SOL    HW110402   3.646   4.949   5.856
 2835SOL    HW210403   3.555   4.997   5.744
 2836SOL     OW10404   1.450   7.480   9.558
 2836SOL    HW110405   1.478   7.401   9.604
 2836SOL    HW210406   1.382   7.450   9.498
 2837SOL     OW10407   1.102   0.218  14.704
 2837SOL    HW110408   1.106   0.313  14.698
 2837SOL    HW210409   1.145   0.187  14.624
 2838SOL     OW10410   9.188   4.412   6.726
 2838SOL    HW110411   9.112   4.421   6.783
 2838SOL    HW210412   9.263   4.421   6.784
 2839SOL     OW10413   8.327   9.785  14.498
 2839SOL    HW110414   8.415   9.796  14.462
 2839SOL    HW210415   8.319   9.857  14.562
 2840SOL     OW10416   4.525   7.275   9.206
 2840SOL    HW110417   4.437   7.247   9.232
 2840SOL    HW210418   4.583   7.205   9.237
 2841SOL     OW10419  11.576   5.864   0.425
 2841SOL    HW110420  11.604   5.817   0.347
 2841SOL    HW210421  11.491   5.902   0.402
 2842SOL     OW10422  11.321   3.421   4.890
 2842SOL    HW110423  11.249   3.359   4.889
 2842SOL    HW210424  11.400   3.367   4.881
 2843SOL     OW10425   4.431   0.996  10.199
 2843SOL    HW110426   4.408   1.065  10.137
 2843SOL    HW210427   4.521   1.016  10.227
 2844SOL     OW10428  13.677   4.858   0.194
 2844SOL    HW110429  13.761   4.860   0.241
 2844SOL    HW210430  13.611   4.855   0.264
 2845SOL     OW10431  14.775   7.765  11.108
 2845SOL    HW110432  14.816   7.698  11.052
 2845SOL    HW210433  14.845   7.794  11.166
 2846SOL     OW10434   1.048  14.117  13.129
 2846SOL    HW110435   1.125  14.118  13.186
 2846SOL    HW210436   1.062  14.044  13.069
 2847SOL     OW10437   4.792   4.332  11.251
 2847SOL    HW110438   4.783   4.362  11.160
 2847SOL    HW210439   4.769   4.409  11.304
 2848SOL     OW10440   4.534  10.518  10.813
 2848SOL    HW110441   4.608  10.460  10.797
 2848SOL    HW210442   4.535  10.533  10.908
 2849SOL     OW10443   4.848  10.157  13.298
 2849SOL    HW110444   4.941  10.141  13.279
 2849SOL    HW210445   4.832  10.246  13.266
 2850SOL     OW10446   6.342   2.726  10.920
 2850SOL    HW110447   6.414   2.670  10.892
 2850SOL    HW210448   6.385   2.802  10.959
 2851SOL     OW10449  14.362  13.252   5.069
 2851SOL    HW110450  14.396  13.341   5.079
 2851SOL    HW210451  14.435  13.203   5.031
 2852SOL     OW10452   4.985   2.519  13.606
 2852SOL    HW110453   5.022   2.528  13.694
 2852SOL    HW210454   4.891   2.508  13.621
 2853SOL     OW10455   5.786   0.880   6.115
 2853SOL    HW110456   5.775   0.966   6.154
 2853SOL    HW210457   5.733   0.882   6.035
 2854SOL     OW10458   4.196   3.504  14.553
 2854SOL    HW110459   4.199   3.535  14.463
 2854SOL    HW210460   4.251   3.565  14.602
 2855SOL     OW10461  11.492   1.879  11.610
 2855SOL    HW110462  11.551   1.808  11.586
 2855SOL    HW210463  11.428   1.838  11.668
 2856SOL     OW10464  12.105   2.052   2.906
 2856SOL    HW110465  12.046   2.125   2.887
 2856SOL    HW210466  12.160   2.084   2.978
 2857SOL     OW10467   5.600   5.781  14.287
 2857SOL    HW110468   5.691   5.812  14.289
 2857SOL    HW210469   5.575   5.785  14.195
 2858SOL     OW10470   3.448   3.203   6.883
 2858SOL    HW110471   3.450   3.235   6.793
 2858SOL    HW210472   3.515   3.255   6.928
 2859SOL     OW10473   8.280  13.343   1.381
 2859SOL    HW110474   8.349  13.301   1.329
 2859SOL    HW210475   8.199  13.318   1.337
 2860SOL     OW10476   0.689   9.510  12.008
 2860SOL    HW110477   0.783   9.494  11.998
 2860SOL    HW210478   0.677   9.528  12.101
 2861SOL     OW10479   2.351   4.717   4.672
 2861SOL    HW110480   2.329   4.668   4.593
 2861SOL    HW210481   2.381   4.651   4.734
 2862SOL     OW10482   6.938  12.707  13.628
 2862SOL    HW110483   7.016  12.655  13.608
 2862SOL    HW210484   6.889  12.709  13.545
 2863SOL     OW10485   1.248  10.854   9.247
 2863SOL    HW110486   1.300  10.880   9.171
 2863SOL    HW210487   1.270  10.918   9.314
 2864SOL     OW10488  12.763   2.411   8.567
 2864SOL    HW110489  12.712   2.340   8.606
 2864SOL    HW210490  12.797   2.374   8.485
 2865SOL     OW10491  12.788   9.921   6.917
 2865SOL    HW110492  12.834   9.846   6.878
 2865SOL    HW210493  12.750   9.967   6.842
 2866SOL     OW10494   6.990  13.757  12.725
 2866SOL    HW110495   7.041  13.677  12.715
 2866SOL    HW210496   6.903  13.735  12.690
 2867SOL     OW10497  13.179   8.352  12.511
 2867SOL    HW110498  13.100   8.400  12.534
 2867SOL    HW210499  13.245   8.383  12.573
 2868SOL     OW10500   5.904   9.123   6.878
 2868SOL    HW110501   5.824   9.132   6.929
 2868SOL    HW210502   5.923   9.029   6.881
 2869SOL     OW10503   0.347   5.114   5.469
 2869SOL    HW110504   0.377   5.108   5.378
 2869SOL    HW210505   0.398   5.048   5.515
 2870SOL     OW10506  13.216   0.060   0.771
 2870SOL    HW110507  13.154   0.011   0.824
 2870SOL    HW210508  13.253  14.866   0.711
 2871SOL     OW10509   1.050   9.537   7.090
 2871SOL    HW110510   1.024   9.624   7.118
 2871SOL    HW210511   1.084   9.495   7.169
 2872SOL     OW10512   3.712   6.914   4.417
 2872SOL    HW110513   3.697   6.825   4.383
 2872SOL    HW210514   3.656   6.970   4.363
 2873SOL     OW10515   3.545   2.589   5.425
 2873SOL    HW110516   3.613   2.522   5.415
 2873SOL    HW210517   3.566   2.631   5.509
 2874SOL     OW10518  13.328  14.575  14.303
 2874SOL    HW110519  13.265  14.628  14.253
 2874SOL    HW210520  13.382  14.640  14.349
 2875SOL     OW10521   1.648   7.100   2.660
 2875SOL    HW110522   1.728   7.080   2.707
 2875SOL    HW210523   1.615   7.181   2.700
 2876SOL     OW10524   0.919   4.763  11.096
 2876SOL    HW110525   0.829   4.730  11.097
 2876SOL    HW210526   0.964   4.709  11.031
 2877SOL     OW10527   9.486   0.023  13.798
 2877SOL    HW110528   9.424   0.087  13.763
 2877SOL    HW210529   9.459  14.812  13.759
 2878SOL     OW10530  12.311   4.755  11.098
 2878SOL    HW110531  12.257   4.686  11.136
 2878SOL    HW210532  12.317   4.733  11.005
 2879SOL     OW10533   3.158   2.943  10.962
 2879SOL    HW110534   3.208   2.867  10.993
 2879SOL    HW210535   3.131   2.988  11.042
 2880SOL     OW10536   3.795   6.640   4.945
 2880SOL    HW110537   3.784   6.735   4.935
 2880SOL    HW210538   3.886   6.624   4.921
 2881SOL     OW10539  14.670   7.247  14.377
 2881SOL    HW110540  14.697   7.311  14.442
 2881SOL    HW210541  14.710   7.277  14.295
 2882SOL     OW10542   3.329  10.662  14.052
 2882SOL    HW110543   3.264  10.670  14.121
 2882SOL    HW210544   3.285  10.611  13.984
 2883SOL     OW10545  11.734  10.730   2.290
 2883SOL    HW110546  11.691  10.696   2.368
 2883SOL    HW210547  11.815  10.680   2.283
 2884SOL     OW10548  13.970   3.936  14.437
 2884SOL    HW110549  14.000   3.868  14.497
 2884SOL    HW210550  14.015   4.015  14.465
 2885SOL     OW10551  14.786   7.048   9.809
 2885SOL    HW110552  14.836   7.048   9.727
 2885SOL    HW210553  14.840   7.100   9.869
 2886SOL     OW10554  11.843   4.730   7.868
 2886SOL    HW110555  11.912   4.701   7.809
 2886SOL    HW210556  11.840   4.825   7.858
 2887SOL     OW10557   4.157   5.626   3.001
 2887SOL    HW110558   4.235   5.676   2.977
 2887SOL    HW210559   4.189   5.559   3.061
 2888SOL     OW10560  14.856  11.775  11.116
 2888SOL    HW110561  14.869  11.855  11.064
 2888SOL    HW210562  14.832  11.708  11.053
 2889SOL     OW10563   6.911   8.929   1.406
 2889SOL    HW110564   6.867   8.890   1.481
 2889SOL    HW210565   6.864   9.011   1.389
 2890SOL     OW10566   8.005   5.473   0.558
 2890SOL    HW110567   7.948   5.474   0.482
 2890SOL    HW210568   8.019   5.566   0.578
 2891SOL     OW10569   5.851   1.326   7.886
 2891SOL    HW110570   5.824   1.258   7.948
 2891SOL    HW210571   5.829   1.291   7.800
 2892SOL     OW10572   5.237   0.121  11.043
 2892SOL    HW110573   5.319   0.127  10.995
 2892SOL    HW210574   5.222   0.027  11.055
 2893SOL     OW10575   1.190   7.150   3.787
 2893SOL    HW110576   1.242   7.106   3.854
 2893SOL    HW210577   1.191   7.242   3.811
 2894SOL     OW10578  12.587  12.826   2.306
 2894SOL    HW110579  12.625  12.905   2.269
 2894SOL    HW210580  12.616  12.756   2.248
 2895SOL     OW10581   4.133   5.056  11.283
 2895SOL    HW110582   4.095   5.004  11.211
 2895SOL    HW210583   4.171   4.991  11.342
 2896SOL     OW10584  10.435  12.182  10.678
 2896SOL    HW110585  10.440  12.252  10.613
 2896SOL    HW210586  10.508  12.124  10.655
 2897SOL     OW10587   8.076  11.048   8.229
 2897SOL    HW110588   7.997  11.043   8.176
 2897SOL    HW210589   8.148  11.056   8.166
 2898SOL     OW10590   5.746   3.645   2.773
 2898SOL    HW110591   5.693   3.566   2.783
 2898SOL    HW210592   5.735   3.670   2.681
 2899SOL     OW10593  10.346   7.750   2.032
 2899SOL    HW110594  10.364   7.831   2.080
 2899SOL    HW210595  10.268   7.714   2.074
 2900SOL     OW10596   5.206   1.404  11.429
 2900SOL    HW110597   5.213   1.472  11.496
 2900SOL    HW210598   5.157   1.445  11.358
 2901SOL     OW10599  13.301   7.591  11.205
 2901SOL    HW110600  13.375   7.532  11.193
 2901SOL    HW210601  13.230   7.536  11.238
 2902SOL     OW10602   5.534  12.234   4.199
 2902SOL    HW110603   5.552  12.319   4.160
 2902SOL    HW210604   5.532  12.250   4.293
 2903SOL     OW10605   4.566   4.012  12.250
 2903SOL    HW110606   4.590   4.094  12.292
 2903SOL    HW210607   4.622   4.008  12.172
 2904SOL     OW10608  10.842  10.831   8.823
 2904SOL    HW110609  10.876  10.849   8.910
 2904SOL    HW210610  10.789  10.752   8.834
 2905SOL     OW10611  11.906  10.390   5.188
 2905SOL    HW110612  11.876  10.392   5.279
 2905SOL    HW210613  11.995  10.354   5.193
 2906SOL     OW10614   4.295   1.200  12.094
 2906SOL    HW110615   4.252   1.187  12.179
 2906SOL    HW210616   4.335   1.116  12.074
 2907SOL     OW10617   9.117   6.032   4.677
 2907SOL    HW110618   9.073   6.025   4.762
 2907SOL    HW210619   9.208   6.012   4.696
 2908SOL     OW10620   9.515   4.060   9.075
 2908SOL    HW110621   9.533   3.985   9.133
 2908SOL    HW210622   9.425   4.046   9.045
 2909SOL     OW10623   1.578   7.442  14.093
 2909SOL    HW110624   1.574   7.396  14.176
 2909SOL    HW210625   1.563   7.375  14.027
 2910SOL     OW10626  12.551   3.902   4.892
 2910SOL    HW110627  12.465   3.864   4.906
 2910SOL    HW210628  12.613   3.836   4.922
 2911SOL     OW10629   5.543  11.287   1.880
 2911SOL    HW110630   5.510  11.263   1.793
 2911SOL    HW210631   5.568  11.204   1.920
 2912SOL     OW10632  14.402  10.195   3.163
 2912SOL    HW110633  14.371  10.140   3.091
 2912SOL    HW210634  14.366  10.282   3.144
 2913SOL     OW10635  13.352   3.512   6.098
 2913SOL    HW110636  13.324   3.598   6.066
 2913SOL    HW210637  13.347   3.454   6.022
 2914SOL     OW10638   5.015  10.793  14.258
 2914SOL    HW110639   5.110  10.802  14.246
 2914SOL    HW210640   4.984  10.758  14.174
 2915SOL     OW10641   1.625   0.591   0.686
 2915SOL    HW110642   1.603   0.622   0.598
 2915SOL    HW210643   1.591   0.501   0.689
 2916SOL     OW10644  10.805   6.943   5.193
 2916SOL    HW110645  10.801   7.033   5.225
 2916SOL    HW210646  10.824   6.891   5.271
 2917SOL     OW10647  13.102  10.764   1.021
 2917SOL    HW110648  13.129  10.675   1.041
 2917SOL    HW210649  13.023  10.755   0.968
 2918SOL     OW10650  11.513   1.451   5.796
 2918SOL    HW110651  11.509   1.501   5.877
 2918SOL    HW210652  11.470   1.368   5.816
 2919SOL     OW10653   8.353   5.598  11.501
 2919SOL    HW110654   8.316   5.660  11.438
 2919SOL    HW210655   8.338   5.512  11.461
 2920SOL     OW10656   0.337   0.099  10.891
 2920SOL    HW110657   0.244   0.084  10.907
 2920SOL    HW210658   0.375   0.110  10.978
 2921SOL     OW10659   3.227   0.938   4.230
 2921SOL    HW110660   3.160   0.978   4.175
 2921SOL    HW210661   3.308   0.948   4.180
 2922SOL     OW10662  12.490   7.588   2.969
 2922SOL    HW110663  12.583   7.587   2.949
 2922SOL    HW210664  12.469   7.498   2.993
 2923SOL     OW10665   3.685   4.259  11.593
 2923SOL    HW110666   3.774   4.235  11.565
 2923SOL    HW210667   3.697   4.341  11.641
 2924SOL     OW10668   9.885   5.623   1.788
 2924SOL    HW110669   9.956   5.685   1.803
 2924SOL    HW210670   9.835   5.661   1.716
 2925SOL     OW10671   2.593   8.825  12.454
 2925SOL    HW110672   2.597   8.875  12.373
 2925SOL    HW210673   2.558   8.740  12.428
 2926SOL     OW10674   5.900  12.602   5.636
 2926SOL    HW110675   5.824  12.661   5.642
 2926SOL    HW210676   5.939  12.622   5.551
 2927SOL     OW10677   7.897   4.456  11.571
 2927SOL    HW110678   7.894   4.522  11.502
 2927SOL    HW210679   7.813   4.464  11.616
 2928SOL     OW10680  14.502   2.355   5.839
 2928SOL    HW110681  14.429   2.326   5.784
 2928SOL    HW210682  14.462   2.369   5.925
 2929SOL     OW10683   2.900   6.328   9.741
 2929SOL    HW110684   2.849   6.251   9.768
 2929SOL    HW210685   2.836   6.398   9.735
 2930SOL     OW10686   8.480   7.312   7.708
 2930SOL    HW110687   8.470   7.405   7.689
 2930SOL    HW210688   8.573   7.302   7.728
 2931SOL     OW10689  10.519  14.743  11.627
 2931SOL    HW110690  10.523  14.661  11.578
 2931SOL    HW210691  10.457  14.726  11.698
 2932SOL     OW10692   4.082   7.720  13.800
 2932SOL    HW110693   4.017   7.700  13.733
 2932SOL    HW210694   4.122   7.635  13.820
 2933SOL     OW10695   7.328   7.047   4.606
 2933SOL    HW110696   7.240   7.081   4.590
 2933SOL    HW210697   7.317   6.978   4.671
 2934SOL     OW10698   7.859   0.799  10.413
 2934SOL    HW110699   7.835   0.739  10.342
 2934SOL    HW210700   7.803   0.773  10.487
 2935SOL     OW10701   2.080   3.227   8.106
 2935SOL    HW110702   2.149   3.273   8.153
 2935SOL    HW210703   2.078   3.140   8.147
 2936SOL     OW10704   0.009   6.730  13.368
 2936SOL    HW110705  14.796   6.772  13.383
 2936SOL    HW210706   0.005   6.701  13.277
 2937SOL     OW10707   1.909  13.560  14.033
 2937SOL    HW110708   1.847  13.488  14.028
 2937SOL    HW210709   1.966  13.548  13.957
 2938SOL     OW10710   0.058   2.839   0.838
 2938SOL    HW110711   0.011   2.905   0.888
 2938SOL    HW210712  14.866   2.806   0.774
 2939SOL     OW10713  11.827   6.810  10.857
 2939SOL    HW110714  11.867   6.887  10.898
 2939SOL    HW210715  11.901   6.751  10.840
 2940SOL     OW10716   3.159   9.716  10.658
 2940SOL    HW110717   3.236   9.678  10.701
 2940SOL    HW210718   3.158   9.675  10.571
 2941SOL     OW10719   4.885  13.498  13.622
 2941SOL    HW110720   4.907  13.432  13.556
 2941SOL    HW210721   4.790  13.507  13.615
 2942SOL     OW10722  14.425  10.680   9.866
 2942SOL    HW110723  14.466  10.593   9.858
 2942SOL    HW210724  14.388  10.697   9.780
 2943SOL     OW10725   1.772  13.304   1.299
 2943SOL    HW110726   1.726  13.278   1.219
 2943SOL    HW210727   1.706  13.353   1.350
 2944SOL     OW10728   1.460  14.095   7.323
 2944SOL    HW110729   1.381  14.070   7.274
 2944SOL    HW210730   1.531  14.086   7.259
 2945SOL     OW10731   2.317   4.940  13.838
 2945SOL    HW110732   2.316   4.935  13.742
 2945SOL    HW210733   2.229   4.916  13.865
 2946SOL     OW10734   5.921   1.545   5.928
 2946SOL    HW110735   5.869   1.540   5.848
 2946SOL    HW210736   6.007   1.573   5.899
 2947SOL     OW10737  11.000  11.200   0.121
 2947SOL    HW110738  11.087  11.178   0.154
 2947SOL    HW210739  11.008  11.193   0.026
 2948SOL     OW10740   1.708   9.679   0.461
 2948SOL    HW110741   1.759   9.718   0.532
 2948SOL    HW210742   1.774   9.642   0.402
 2949SOL     OW10743   8.581  14.785   9.473
 2949SOL    HW110744   8.556  14.854   9.535
 2949SOL    HW210745   8.571  14.704   9.522
 2950SOL     OW10746   4.996   1.841   9.269
 2950SOL    HW110747   4.984   1.747   9.283
 2950SOL    HW210748   4.908   1.875   9.257
 2951SOL     OW10749   0.380   6.541  13.677
 2951SOL    HW110750   0.335   6.617  13.640
 2951SOL    HW210751   0.310   6.486  13.711
 2952SOL     OW10752  14.093   0.510   8.531
 2952SOL    HW110753  14.018   0.482   8.585
 2952SOL    HW210754  14.110   0.434   8.474
 2953SOL     OW10755   1.550   7.087   6.246
 2953SOL    HW110756   1.607   7.010   6.249
 2953SOL    HW210757   1.554   7.116   6.155
 2954SOL     OW10758   6.112   4.289  10.519
 2954SOL    HW110759   6.059   4.243  10.583
 2954SOL    HW210760   6.182   4.227  10.497
 2955SOL     OW10761   9.072   0.560   9.560
 2955SOL    HW110762   9.085   0.489   9.498
 2955SOL    HW210763   9.006   0.616   9.518
 2956SOL     OW10764   3.950   1.776  13.689
 2956SOL    HW110765   4.003   1.852  13.666
 2956SOL    HW210766   3.885   1.769  13.619
 2957SOL     OW10767   4.065  11.758   3.875
 2957SOL    HW110768   3.983  11.758   3.924
 2957SOL    HW210769   4.060  11.682   3.818
 2958SOL     OW10770  10.547   0.481   6.804
 2958SOL    HW110771  10.632   0.505   6.841
 2958SOL    HW210772  10.511   0.564   6.772
 2959SOL     OW10773   6.321   6.868   6.448
 2959SOL    HW110774   6.406   6.903   6.422
 2959SOL    HW210775   6.285   6.934   6.508
 2960SOL     OW10776   3.806   9.950  12.469
 2960SOL    HW110777   3.787   9.941  12.562
 2960SOL    HW210778   3.883  10.007  12.466
 2961SOL     OW10779   6.430   0.291   3.871
 2961SOL    HW110780   6.453   0.335   3.789
 2961SOL    HW210781   6.361   0.346   3.909
 2962SOL     OW10782   1.389  12.850   0.387
 2962SOL    HW110783   1.319  12.785   0.397
 2962SOL    HW210784   1.386  12.874   0.294
 2963SOL     OW10785   8.153   4.719   0.036
 2963SOL    HW110786   8.125   4.705  14.818
 2963SOL    HW210787   8.218   4.789   0.031
 2964SOL     OW10788   4.008   3.973   4.572
 2964SOL    HW110789   3.997   4.055   4.619
 2964SOL    HW210790   4.101   3.971   4.550
 2965SOL     OW10791   8.676  11.787   7.094
 2965SOL    HW110792   8.712  11.869   7.063
 2965SOL    HW210793   8.593  11.811   7.137
 2966SOL     OW10794   7.867  14.511   1.617
 2966SOL    HW110795   7.845  14.470   1.701
 2966SOL    HW210796   7.959  14.491   1.603
 2967SOL     OW10797   8.098   1.458   2.545
 2967SOL    HW110798   8.141   1.493   2.467
 2967SOL    HW210799   8.155   1.484   2.617
 2968SOL     OW10800  12.215   9.488  10.637
 2968SOL    HW110801  12.259   9.406  10.616
 2968SOL    HW210802  12.122   9.465  10.640
 2969SOL     OW10803  10.559  12.034  11.555
 2969SOL    HW110804  10.628  12.083  11.599
 2969SOL    HW210805  10.539  12.085  11.477
 2970SOL     OW10806   0.019  13.305   0.140
 2970SOL    HW110807  14.854  13.230   0.093
 2970SOL    HW210808   0.079  13.267   0.204
 2971SOL     OW10809   2.751   6.167   7.502
 2971SOL    HW110810   2.696   6.241   7.529
 2971SOL    HW210811   2.771   6.184   7.410
 2972SOL     OW10812   1.017   2.247   6.058
 2972SOL    HW110813   1.111   2.260   6.065
 2972SOL    HW210814   0.979   2.327   6.094
 2973SOL     OW10815   2.080   3.555  13.134
 2973SOL    HW110816   2.023   3.595  13.068
 2973SOL    HW210817   2.023   3.543  13.210
 2974SOL     OW10818  12.439  10.459   3.450
 2974SOL    HW110819  12.439  10.370   3.417
 2974SOL    HW210820  12.481  10.511   3.381
 2975SOL     OW10821   1.668   5.609   1.332
 2975SOL    HW110822   1.708   5.673   1.273
 2975SOL    HW210823   1.612   5.661   1.389
 2976SOL     OW10824   7.977  14.721   3.815
 2976SOL    HW110825   7.907  14.681   3.763
 2976SOL    HW210826   8.043  14.746   3.750
 2977SOL     OW10827   3.502  12.978   0.431
 2977SOL    HW110828   3.571  12.982   0.497
 2977SOL    HW210829   3.430  12.933   0.475
 2978SOL     OW10830  13.491   1.260   5.602
 2978SOL    HW110831  13.575   1.247   5.558
 2978SOL    HW210832  13.490   1.193   5.671
 2979SOL     OW10833   6.532   1.589   6.629
 2979SOL    HW110834   6.468   1.639   6.681
 2979SOL    HW210835   6.617   1.616   6.663
 2980SOL     OW10836   9.892  10.049   3.200
 2980SOL    HW110837   9.813   9.999   3.222
 2980SOL    HW210838   9.958  10.019   3.264
 2981SOL     OW10839   6.783  11.613   7.976
 2981SOL    HW110840   6.788  11.518   7.972
 2981SOL    HW210841   6.842  11.637   8.047
 2982SOL     OW10842  13.516  11.583   3.710
 2982SOL    HW110843  13.502  11.555   3.800
 2982SOL    HW210844  13.462  11.524   3.657
 2983SOL     OW10845   5.637  12.477   6.402
 2983SOL    HW110846   5.688  12.415   6.351
 2983SOL    HW210847   5.629  12.437   6.489
 2984SOL     OW10848   8.837   8.991   7.976
 2984SOL    HW110849   8.828   8.947   8.061
 2984SOL    HW210850   8.748   8.998   7.943
 2985SOL     OW10851   7.089  13.142   8.794
 2985SOL    HW110852   7.093  13.112   8.704
 2985SOL    HW210853   7.167  13.198   8.804
 2986SOL     OW10854   4.866   8.203   6.450
 2986SOL    HW110855   4.948   8.239   6.416
 2986SOL    HW210856   4.862   8.114   6.415
 2987SOL     OW10857   4.254   7.047  10.713
 2987SOL    HW110858   4.284   7.074  10.627
 2987SOL    HW210859   4.328   7.000  10.751
 2988SOL     OW10860   5.542  10.080  12.148
 2988SOL    HW110861   5.469  10.125  12.191
 2988SOL    HW210862   5.620  10.125  12.180
 2989SOL     OW10863   2.319   7.812   1.824
 2989SOL    HW110864   2.343   7.903   1.838
 2989SOL    HW210865   2.280   7.810   1.737
 2990SOL     OW10866  10.311  13.493   2.214
 2990SOL    HW110867  10.323  13.578   2.171
 2990SOL    HW210868  10.307  13.430   2.142
 2991SOL     OW10869   8.129   0.665   3.212
 2991SOL    HW110870   8.125   0.746   3.263
 2991SOL    HW210871   8.037   0.643   3.196
 2992SOL     OW10872  13.003   5.683   0.320
 2992SOL    HW110873  13.033   5.628   0.248
 2992SOL    HW210874  12.909   5.664   0.326
 2993SOL     OW10875  11.879  12.672   8.301
 2993SOL    HW110876  11.909  12.735   8.236
 2993SOL    HW210877  11.790  12.699   8.323
 2994SOL     OW10878   8.612  14.549   2.089
 2994SOL    HW110879   8.615  14.489   2.163
 2994SOL    HW210880   8.522  14.541   2.056
 2995SOL     OW10881   0.169   1.233   4.609
 2995SOL    HW110882   0.119   1.247   4.689
 2995SOL    HW210883   0.256   1.206   4.639
 2996SOL     OW10884  11.129   9.758  13.148
 2996SOL    HW110885  11.117   9.834  13.091
 2996SOL    HW210886  11.077   9.689  13.106
 2997SOL     OW10887  12.580   6.830  12.298
 2997SOL    HW110888  12.546   6.742  12.314
 2997SOL    HW210889  12.530   6.886  12.357
 2998SOL     OW10890  10.745   9.284  11.003
 2998SOL    HW110891  10.657   9.245  11.006
 2998SOL    HW210892  10.765   9.303  11.095
 2999SOL     OW10893   8.919   5.007   2.474
 2999SOL    HW110894   8.856   5.009   2.401
 2999SOL    HW210895   8.990   5.064   2.445
 3000SOL     OW10896  13.118  14.054   4.515
 3000SOL    HW110897  13.089  13.988   4.579
 3000SOL    HW210898  13.213  14.057   4.525
 3001SOL     OW10899   4.642   0.218   5.931
 3001SOL    HW110900   4.728   0.178   5.919
 3001SOL    HW210901   4.631   0.224   6.026
 3002SOL     OW10902  14.393   8.840  13.669
 3002SOL    HW110903  14.398   8.759  13.720
 3002SOL    HW210904  14.324   8.891  13.712
 3003SOL     OW10905   7.205   5.176   4.837
 3003SOL    HW110906   7.147   5.140   4.771
 3003SOL    HW210907   7.154   5.172   4.918
 3004SOL     OW10908   2.088   8.402   8.839
 3004SOL    HW110909   2.140   8.452   8.777
 3004SOL    HW210910   2.123   8.425   8.925
 3005SOL     OW10911   5.022  10.919   7.001
 3005SOL    HW110912   5.008  10.911   6.907
 3005SOL    HW210913   4.967  10.850   7.040
 3006SOL     OW10914   3.947  13.234   8.013
 3006SOL    HW110915   3.952  13.144   7.979
 3006SOL    HW210916   3.887  13.279   7.953
 3007SOL     OW10917   5.267  14.737   7.842
 3007SOL    HW110918   5.312  14.747   7.926
 3007SOL    HW210919   5.249  14.643   7.836
 3008SOL     OW10920   3.029  11.401   7.717
 3008SOL    HW110921   3.082  11.321   7.711
 3008SOL    HW210922   2.950  11.380   7.667
 3009SOL     OW10923  13.891   6.762  14.842
 3009SOL    HW110924  13.898   6.762   0.066
 3009SOL    HW210925  13.863   6.673  14.820
 3010SOL     OW10926   1.850  13.243   4.668
 3010SOL    HW110927   1.940  13.219   4.690
 3010SOL    HW210928   1.857  13.328   4.626
 3011SOL     OW10929   3.965   8.430   2.273
 3011SOL    HW110930   3.972   8.338   2.297
 3011SOL    HW210931   3.876   8.455   2.298
 3012SOL     OW10932   6.209  11.894   4.411
 3012SOL    HW110933   6.203  11.874   4.504
 3012SOL    HW210934   6.210  11.990   4.407
 3013SOL     OW10935   4.559   7.441  13.362
 3013SOL    HW110936   4.581   7.424  13.454
 3013SOL    HW210937   4.635   7.409  13.313
 3014SOL     OW10938  10.063   1.107   4.921
 3014SOL    HW110939  10.037   1.162   4.847
 3014SOL    HW210940  10.143   1.148   4.954
 3015SOL     OW10941   7.205  14.044  10.249
 3015SOL    HW110942   7.192  14.063  10.342
 3015SOL    HW210943   7.137  14.095  10.204
 3016SOL     OW10944  11.276  14.451   7.560
 3016SOL    HW110945  11.253  14.534   7.603
 3016SOL    HW210946  11.219  14.387   7.602
 3017SOL     OW10947   8.791  12.767  13.525
 3017SOL    HW110948   8.732  12.730  13.459
 3017SOL    HW210949   8.868  12.795  13.477
 3018SOL     OW10950  14.181   3.894   2.905
 3018SOL    HW110951  14.261   3.940   2.878
 3018SOL    HW210952  14.112   3.960   2.897
 3019SOL     OW10953   5.958  13.269   3.441
 3019SOL    HW110954   5.956  13.362   3.418
 3019SOL    HW210955   6.047  13.241   3.419
 3020SOL     OW10956   4.205   5.308   5.640
 3020SOL    HW110957   4.218   5.224   5.596
 3020SOL    HW210958   4.270   5.366   5.601
 3021SOL     OW10959   6.105   0.327   1.684
 3021SOL    HW110960   6.151   0.399   1.640
 3021SOL    HW210961   6.020   0.365   1.708
 3022SOL     OW10962  14.652   1.296   3.894
 3022SOL    HW110963  14.676   1.337   3.977
 3022SOL    HW210964  14.576   1.345   3.863
 3023SOL     OW10965  14.750   9.250   7.576
 3023SOL    HW110966  14.722   9.165   7.611
 3023SOL    HW210967  14.792   9.294   7.650
 3024SOL     OW10968   0.131   6.891  14.480
 3024SOL    HW110969   0.091   6.931  14.557
 3024SOL    HW210970   0.073   6.817  14.459
 3025SOL     OW10971   6.734   9.548  12.493
 3025SOL    HW110972   6.670   9.619  12.506
 3025SOL    HW210973   6.761   9.557  12.401
 3026SOL     OW10974  14.196  13.785   8.067
 3026SOL    HW110975  14.244  13.863   8.094
 3026SOL    HW210976  14.247  13.750   7.994
 3027SOL     OW10977   5.717  10.765   2.251
 3027SOL    HW110978   5.744  10.830   2.316
 3027SOL    HW210979   5.667  10.701   2.301
 3028SOL     OW10980   6.481   6.698  12.708
 3028SOL    HW110981   6.535   6.627  12.674
 3028SOL    HW210982   6.469   6.757  12.633
 3029SOL     OW10983  14.475   7.672   1.204
 3029SOL    HW110984  14.534   7.604   1.236
 3029SOL    HW210985  14.441   7.713   1.283
 3030SOL     OW10986   8.273   8.821  14.505
 3030SOL    HW110987   8.318   8.802  14.422
 3030SOL    HW210988   8.192   8.771  14.500
 3031SOL     OW10989   9.535   9.210   8.557
 3031SOL    HW110990   9.523   9.305   8.559
 3031SOL    HW210991   9.468   9.178   8.497
 3032SOL     OW10992   4.147  10.515   8.644
 3032SOL    HW110993   4.124  10.474   8.561
 3032SOL    HW210994   4.117  10.453   8.710
 3033SOL     OW10995   0.226   3.993   0.772
 3033SOL    HW110996   0.173   3.916   0.752
 3033SOL    HW210997   0.293   3.962   0.832
 3034SOL     OW10998  10.673   2.965   7.026
 3034SOL    HW110999  10.640   2.956   7.116
 3034SOL    HW211000  10.608   3.020   6.982
 3035SOL     OW11001   3.417  12.390   7.989
 3035SOL    HW111002   3.496  12.439   8.012
 3035SOL    HW211003   3.406  12.327   8.060
 3036SOL     OW11004   3.720   2.475  13.117
 3036SOL    HW111005   3.683   2.548  13.065
 3036SOL    HW211006   3.812   2.498  13.127
 3037SOL     OW11007  11.715   3.541  12.243
 3037SOL    HW111008  11.803   3.569  12.217
 3037SOL    HW211009  11.729   3.476  12.312
 3038SOL     OW11010  13.688   0.582  11.809
 3038SOL    HW111011  13.701   0.674  11.833
 3038SOL    HW211012  13.638   0.585  11.727
 3039SOL     OW11013   0.052   2.104   9.349
 3039SOL    HW111014   0.118   2.050   9.393
 3039SOL    HW211015  14.856   2.042   9.323
 3040SOL     OW11016   5.494  11.735  10.603
 3040SOL    HW111017   5.548  11.810  10.632
 3040SOL    HW211018   5.461  11.697  10.685
 3041SOL     OW11019   7.549   7.303   9.884
 3041SOL    HW111020   7.566   7.287   9.977
 3041SOL    HW211021   7.490   7.379   9.884
 3042SOL     OW11022  11.737   5.988   5.912
 3042SOL    HW111023  11.746   5.948   5.999
 3042SOL    HW211024  11.735   6.082   5.929
 3043SOL     OW11025  14.394  10.166   3.923
 3043SOL    HW111026  14.404  10.071   3.917
 3043SOL    HW211027  14.395  10.197   3.832
 3044SOL     OW11028   3.231  10.180  11.044
 3044SOL    HW111029   3.136  10.163  11.045
 3044SOL    HW211030   3.242  10.247  10.976
 3045SOL     OW11031   3.856   5.941   9.177
 3045SOL    HW111032   3.771   5.961   9.216
 3045SOL    HW211033   3.903   6.024   9.179
 3046SOL     OW11034  14.807   5.240   8.845
 3046SOL    HW111035  14.732   5.288   8.811
 3046SOL    HW211036  14.811   5.262   8.938
 3047SOL     OW11037  10.893   6.168   5.315
 3047SOL    HW111038  10.813   6.116   5.323
 3047SOL    HW211039  10.955   6.124   5.374
 3048SOL     OW11040  14.546   6.453   1.349
 3048SOL    HW111041  14.470   6.468   1.293
 3048SOL    HW211042  14.569   6.540   1.383
 3049SOL     OW11043   6.213  13.176  13.705
 3049SOL    HW111044   6.130  13.190  13.751
 3049SOL    HW211045   6.256  13.106  13.755
 3050SOL     OW11046   6.324   7.235   5.349
 3050SOL    HW111047   6.304   7.193   5.432
 3050SOL    HW211048   6.316   7.329   5.368
 3051SOL     OW11049   3.897  12.961   8.039
 3051SOL    HW111050   3.836  12.912   7.983
 3051SOL    HW211051   3.841  13.022   8.087
 3052SOL     OW11052   1.653   4.365   1.584
 3052SOL    HW111053   1.598   4.367   1.505
 3052SOL    HW211054   1.674   4.457   1.600
 3053SOL     OW11055  12.954  12.530   1.231
 3053SOL    HW111056  13.048  12.549   1.228
 3053SOL    HW211057  12.918  12.598   1.289
 3054SOL     OW11058   1.365   7.942   2.010
 3054SOL    HW111059   1.272   7.921   2.004
 3054SOL    HW211060   1.393   7.955   1.920
 3055SOL     OW11061   5.633  10.779   9.627
 3055SOL    HW111062   5.578  10.719   9.577
 3055SOL    HW211063   5.573  10.829   9.681
 3056SOL     OW11064   9.578   2.868   1.226
 3056SOL    HW111065   9.585   2.821   1.309
 3056SOL    HW211066   9.607   2.804   1.161
 3057SOL     OW11067   3.038  13.929   7.911
 3057SOL    HW111068   3.125  13.912   7.874
 3057SOL    HW211069   2.999  13.993   7.851
 3058SOL     OW11070  11.392  11.279   1.752
 3058SOL    HW111071  11.340  11.313   1.825
 3058SOL    HW211072  11.327  11.256   1.686
 3059SOL     OW11073   2.055  12.240  12.486
 3059SOL    HW111074   1.999  12.301  12.533
 3059SOL    HW211075   2.105  12.295  12.426
 3060SOL     OW11076  13.841   9.172   7.206
 3060SOL    HW111077  13.817   9.185   7.298
 3060SOL    HW211078  13.936   9.165   7.207
 3061SOL     OW11079   5.099   3.173   8.800
 3061SOL    HW111080   5.088   3.211   8.887
 3061SOL    HW211081   5.017   3.192   8.754
 3062SOL     OW11082  13.574  12.757   9.848
 3062SOL    HW111083  13.534  12.832   9.894
 3062SOL    HW211084  13.554  12.682   9.903
 3063SOL     OW11085   6.058   4.591   3.219
 3063SOL    HW111086   6.140   4.632   3.246
 3063SOL    HW211087   6.081   4.500   3.202
 3064SOL     OW11088   9.710   7.529   1.556
 3064SOL    HW111089   9.664   7.542   1.474
 3064SOL    HW211090   9.641   7.510   1.620
 3065SOL     OW11091   7.113   4.469  10.818
 3065SOL    HW111092   7.066   4.501  10.741
 3065SOL    HW211093   7.044   4.444  10.880
 3066SOL     OW11094  12.324  12.449   4.068
 3066SOL    HW111095  12.288  12.488   4.148
 3066SOL    HW211096  12.397  12.395   4.099
 3067SOL     OW11097   3.044  12.218   7.647
 3067SOL    HW111098   3.090  12.229   7.563
 3067SOL    HW211099   2.970  12.160   7.626
 3068SOL     OW11100  11.524  14.358   2.379
 3068SOL    HW111101  11.453  14.325   2.433
 3068SOL    HW211102  11.498  14.448   2.357
 3069SOL     OW11103   1.308   6.823   5.302
 3069SOL    HW111104   1.227   6.858   5.265
 3069SOL    HW211105   1.377   6.874   5.259
 3070SOL     OW11106   1.588   5.829  13.926
 3070SOL    HW111107   1.605   5.889  13.854
 3070SOL    HW211108   1.657   5.762  13.918
 3071SOL     OW11109   1.119   3.335   3.699
 3071SOL    HW111110   1.060   3.264   3.725
 3071SOL    HW211111   1.149   3.311   3.611
 3072SOL     OW11112  12.953   9.226  10.765
 3072SOL    HW111113  12.936   9.149  10.711
 3072SOL    HW211114  12.866   9.259  10.788
 3073SOL     OW11115   3.390  11.971   0.151
 3073SOL    HW111116   3.452  11.950   0.080
 3073SOL    HW211117   3.345  11.889   0.169
 3074SOL     OW11118   2.863   7.469  12.827
 3074SOL    HW111119   2.847   7.513  12.744
 3074SOL    HW211120   2.808   7.390  12.823
 3075SOL     OW11121   0.466   3.810   2.109
 3075SOL    HW111122   0.489   3.887   2.057
 3075SOL    HW211123   0.412   3.757   2.051
 3076SOL     OW11124   4.130   6.339   3.649
 3076SOL    HW111125   4.157   6.249   3.633
 3076SOL    HW211126   4.176   6.364   3.730
 3077SOL     OW11127   9.515   4.127  10.566
 3077SOL    HW111128   9.531   4.183  10.491
 3077SOL    HW211129   9.537   4.039  10.536
 3078SOL     OW11130   4.934  12.700  11.321
 3078SOL    HW111131   4.983  12.770  11.365
 3078SOL    HW211132   4.870  12.671  11.386
 3079SOL     OW11133   8.157  13.384  13.917
 3079SOL    HW111134   8.114  13.469  13.918
 3079SOL    HW211135   8.163  13.361  13.825
 3080SOL     OW11136  13.371   2.593   7.629
 3080SOL    HW111137  13.320   2.618   7.705
 3080SOL    HW211138  13.373   2.671   7.575
 3081SOL     OW11139   3.775   6.506  10.804
 3081SOL    HW111140   3.787   6.478  10.895
 3081SOL    HW211141   3.684   6.536  10.800
 3082SOL     OW11142   9.794   0.865   6.032
 3082SOL    HW111143   9.819   0.772   6.033
 3082SOL    HW211144   9.850   0.905   6.099
 3083SOL     OW11145   3.644  13.958   8.936
 3083SOL    HW111146   3.640  13.981   8.843
 3083SOL    HW211147   3.618  13.867   8.940
 3084SOL     OW11148   2.893   2.787   4.492
 3084SOL    HW111149   2.959   2.744   4.438
 3084SOL    HW211150   2.813   2.737   4.476
 3085SOL     OW11151  11.377  10.345   6.282
 3085SOL    HW111152  11.352  10.332   6.374
 3085SOL    HW211153  11.439  10.275   6.263
 3086SOL     OW11154  12.619   5.855   4.815
 3086SOL    HW111155  12.651   5.883   4.729
 3086SOL    HW211156  12.636   5.761   4.817
 3087SOL     OW11157   5.317  14.236   4.044
 3087SOL    HW111158   5.411  14.244   4.060
 3087SOL    HW211159   5.285  14.182   4.116
 3088SOL     OW11160   4.113  10.604  10.726
 3088SOL    HW111161   4.018  10.592  10.735
 3088SOL    HW211162   4.128  10.604  10.632
 3089SOL     OW11163   7.851   3.472   9.862
 3089SOL    HW111164   7.807   3.556   9.860
 3089SOL    HW211165   7.941   3.493   9.888
 3090SOL     OW11166   7.364   3.633  13.359
 3090SOL    HW111167   7.314   3.659  13.436
 3090SOL    HW211168   7.313   3.666  13.285
 3091SOL     OW11169   7.963   7.009   0.610
 3091SOL    HW111170   7.877   7.030   0.575
 3091SOL    HW211171   8.008   6.962   0.540
 3092SOL     OW11172   8.569  14.818  13.875
 3092SOL    HW111173   8.588  14.790  13.964
 3092SOL    HW211174   8.562   0.042  13.880
 3093SOL     OW11175  13.162  14.443   5.096
 3093SOL    HW111176  13.237  14.440   5.155
 3093SOL    HW211177  13.086  14.426   5.152
 3094SOL     OW11178   4.466  11.112   2.039
 3094SOL    HW111179   4.414  11.050   1.989
 3094SOL    HW211180   4.554  11.106   2.001
 3095SOL     OW11181  10.829  11.153   8.216
 3095SOL    HW111182  10.862  11.107   8.140
 3095SOL    HW211183  10.901  11.151   8.279
 3096SOL     OW11184  13.233   8.562  14.832
 3096SOL    HW111185  13.251   8.656  14.843
 3096SOL    HW211186  13.319   8.521  14.829
 3097SOL     OW11187  13.185  14.836   2.694
 3097SOL    HW111188  13.188  14.782   2.772
 3097SOL    HW211189  13.267  14.818   2.648
 3098SOL     OW11190   2.018   4.670  11.327
 3098SOL    HW111191   2.089   4.638  11.271
 3098SOL    HW211192   1.938   4.637  11.285
 3099SOL     OW11193   5.756   3.572   0.158
 3099SOL    HW111194   5.825   3.526   0.206
 3099SOL    HW211195   5.714   3.504   0.106
 3100SOL     OW11196  12.600  12.767   5.117
 3100SOL    HW111197  12.560  12.691   5.158
 3100SOL    HW211198  12.529  12.809   5.068
 3101SOL     OW11199   6.631   4.592   9.990
 3101SOL    HW111200   6.605   4.684   9.984
 3101SOL    HW211201   6.723   4.595  10.017
 3102SOL     OW11202  10.641   1.695   9.469
 3102SOL    HW111203  10.712   1.631   9.468
 3102SOL    HW211204  10.686   1.780   9.478
 3103SOL     OW11205  14.771   7.106   3.551
 3103SOL    HW111206  14.751   7.123   3.643
 3103SOL    HW211207  14.828   7.178   3.525
 3104SOL     OW11208   3.505   3.412   4.687
 3104SOL    HW111209   3.502   3.460   4.603
 3104SOL    HW211210   3.521   3.480   4.752
 3105SOL     OW11211  11.965   0.135   2.742
 3105SOL    HW111212  11.989   0.227   2.754
 3105SOL    HW211213  11.904   0.116   2.814
 3106SOL     OW11214   8.779   1.657   4.952
 3106SOL    HW111215   8.846   1.707   4.904
 3106SOL    HW211216   8.696   1.692   4.919
 3107SOL     OW11217   4.327   1.068  13.693
 3107SOL    HW111218   4.351   0.997  13.752
 3107SOL    HW211219   4.313   1.025  13.609
 3108SOL     OW11220   4.318   7.276   7.966
 3108SOL    HW111221   4.273   7.207   8.014
 3108SOL    HW211222   4.345   7.338   8.034
 3109SOL     OW11223   3.602   5.340   8.799
 3109SOL    HW111224   3.623   5.263   8.746
 3109SOL    HW211225   3.521   5.373   8.760
 3110SOL     OW11226   6.172  11.219  14.231
 3110SOL    HW111227   6.243  11.157  14.245
 3110SOL    HW211228   6.148  11.250  14.318
 3111SOL     OW11229   0.344   2.906   5.195
 3111SOL    HW111230   0.267   2.934   5.245
 3111SOL    HW211231   0.396   2.854   5.257
 3112SOL     OW11232   6.726   5.637  13.245
 3112SOL    HW111233   6.676   5.650  13.165
 3112SOL    HW211234   6.769   5.552  13.233
 3113SOL     OW11235   1.954   1.653   1.725
 3113SOL    HW111236   1.866   1.639   1.758
 3113SOL    HW211237   1.943   1.658   1.630
 3114SOL     OW11238   5.370  14.841   2.925
 3114SOL    HW111239   5.440  14.776   2.925
 3114SOL    HW211240   5.290  14.792   2.905
 3115SOL     OW11241   8.336   0.127   1.137
 3115SOL    HW111242   8.320   0.196   1.201
 3115SOL    HW211243   8.339   0.047   1.188
 3116SOL     OW11244  12.986   6.385   6.440
 3116SOL    HW111245  12.966   6.321   6.508
 3116SOL    HW211246  12.911   6.444   6.440
 3117SOL     OW11247   2.653  14.320  11.950
 3117SOL    HW111248   2.726  14.272  11.988
 3117SOL    HW211249   2.580  14.259  11.953
 3118SOL     OW11250   7.365  11.963  12.237
 3118SOL    HW111251   7.458  11.944  12.219
 3118SOL    HW211252   7.318  11.891  12.194
 3119SOL     OW11253  14.201   0.388   7.957
 3119SOL    HW111254  14.135   0.323   7.983
 3119SOL    HW211255  14.235   0.421   8.040
 3120SOL     OW11256  14.701  10.444   3.361
 3120SOL    HW111257  14.686  10.521   3.416
 3120SOL    HW211258  14.677  10.472   3.273
 3121SOL     OW11259   9.867   0.624   1.343
 3121SOL    HW111260   9.946   0.659   1.303
 3121SOL    HW211261   9.839   0.553   1.285
 3122SOL     OW11262   1.148   0.102  12.702
 3122SOL    HW111263   1.080   0.040  12.674
 3122SOL    HW211264   1.219   0.089  12.639
 3123SOL     OW11265  13.231   1.777   2.912
 3123SOL    HW111266  13.196   1.829   2.840
 3123SOL    HW211267  13.159   1.770   2.974
 3124SOL     OW11268   5.816   1.593  14.229
 3124SOL    HW111269   5.743   1.535  14.250
 3124SOL    HW211270   5.796   1.675  14.275
 3125SOL     OW11271  13.452   9.021  11.750
 3125SOL    HW111272  13.385   9.089  11.739
 3125SOL    HW211273  13.528   9.068  11.784
 3126SOL     OW11274   9.122  14.118   8.348
 3126SOL    HW111275   9.057  14.182   8.318
 3126SOL    HW211276   9.152  14.153   8.432
 3127SOL     OW11277   1.333   6.742   8.265
 3127SOL    HW111278   1.361   6.660   8.224
 3127SOL    HW211279   1.250   6.763   8.223
 3128SOL     OW11280   5.287   8.779   2.013
 3128SOL    HW111281   5.306   8.863   2.055
 3128SOL    HW211282   5.209   8.747   2.057
 3129SOL     OW11283  11.918   2.940   8.939
 3129SOL    HW111284  11.880   2.927   8.852
 3129SOL    HW211285  11.846   2.974   8.992
 3130SOL     OW11286   7.188   9.794   0.044
 3130SOL    HW111287   7.098   9.794   0.012
 3130SOL    HW211288   7.179   9.783   0.139
 3131SOL     OW11289  10.402   4.610   9.955
 3131SOL    HW111290  10.447   4.612  10.039
 3131SOL    HW211291  10.322   4.560   9.972
 3132SOL     OW11292   2.710   5.135  12.312
 3132SOL    HW111293   2.788   5.090  12.278
 3132SOL    HW211294   2.673   5.179  12.236
 3133SOL     OW11295   4.586   5.935   9.977
 3133SOL    HW111296   4.618   5.931  10.067
 3133SOL    HW211297   4.549   6.023   9.968
 3134SOL     OW11298   0.040   3.547  14.760
 3134SOL    HW111299   0.052   3.456  14.787
 3134SOL    HW211300   0.127   3.576  14.734
 3135SOL     OW11301  11.538   1.322  12.748
 3135SOL    HW111302  11.547   1.286  12.837
 3135SOL    HW211303  11.448   1.301  12.723
 3136SOL     OW11304   8.730   6.387   2.160
 3136SOL    HW111305   8.731   6.318   2.095
 3136SOL    HW211306   8.777   6.350   2.235
 3137SOL     OW11307   1.723   3.215   3.492
 3137SOL    HW111308   1.680   3.300   3.499
 3137SOL    HW211309   1.717   3.177   3.580
 3138SOL     OW11310  13.184   3.864  13.679
 3138SOL    HW111311  13.183   3.768  13.680
 3138SOL    HW211312  13.251   3.887  13.743
 3139SOL     OW11313  13.635  10.070   6.444
 3139SOL    HW111314  13.570  10.000   6.439
 3139SOL    HW211315  13.616  10.125   6.368
 3140SOL     OW11316  10.226  12.248   7.640
 3140SOL    HW111317  10.239  12.331   7.684
 3140SOL    HW211318  10.310  12.203   7.646
 3141SOL     OW11319  10.089   5.645  10.005
 3141SOL    HW111320  10.085   5.550  10.000
 3141SOL    HW211321  10.172   5.668   9.962
 3142SOL     OW11322   8.254   6.649   0.115
 3142SOL    HW111323   8.238   6.558   0.090
 3142SOL    HW211324   8.186   6.698   0.069
 3143SOL     OW11325   2.963  11.504   9.879
 3143SOL    HW111326   3.023  11.551   9.820
 3143SOL    HW211327   3.016  11.432   9.914
 3144SOL     OW11328  10.809   8.042  10.448
 3144SOL    HW111329  10.799   8.095  10.527
 3144SOL    HW211330  10.732   8.062  10.395
 3145SOL     OW11331   8.018   6.790  10.347
 3145SOL    HW111332   8.025   6.848  10.423
 3145SOL    HW211333   7.962   6.718  10.377
 3146SOL     OW11334   9.033   7.463   0.768
 3146SOL    HW111335   8.989   7.420   0.842
 3146SOL    HW211336   8.969   7.527   0.736
 3147SOL     OW11337   8.726  13.052   1.659
 3147SOL    HW111338   8.752  12.971   1.617
 3147SOL    HW211339   8.679  13.025   1.738
 3148SOL     OW11340   1.588   3.341   2.880
 3148SOL    HW111341   1.664   3.283   2.878
 3148SOL    HW211342   1.558   3.338   2.971
 3149SOL     OW11343  13.811  14.810  12.896
 3149SOL    HW111344  13.806  14.778  12.806
 3149SOL    HW211345  13.791  14.734  12.950
 3150SOL     OW11346   5.872   2.120   7.189
 3150SOL    HW111347   5.884   2.151   7.278
 3150SOL    HW211348   5.892   2.196   7.134
 3151SOL     OW11349   0.056   3.679   8.539
 3151SOL    HW111350   0.124   3.746   8.538
 3151SOL    HW211351  14.846   3.727   8.553
 3152SOL     OW11352   6.625  10.107  12.616
 3152SOL    HW111353   6.656  10.168  12.683
 3152SOL    HW211354   6.564  10.158  12.563
 3153SOL     OW11355   6.248  13.052   7.099
 3153SOL    HW111356   6.219  12.988   7.034
 3153SOL    HW211357   6.232  13.137   7.058
 3154SOL     OW11358   8.004   0.268  13.209
 3154SOL    HW111359   7.975   0.344  13.158
 3154SOL    HW211360   7.944   0.265  13.283
 3155SOL     OW11361   3.203   2.698   7.109
 3155SOL    HW111362   3.264   2.752   7.059
 3155SOL    HW211363   3.218   2.723   7.200
 3156SOL     OW11364   8.502   4.320  13.798
 3156SOL    HW111365   8.571   4.372  13.757
 3156SOL    HW211366   8.546   4.238  13.823
 3157SOL     OW11367  11.686  13.083  14.210
 3157SOL    HW111368  11.781  13.071  14.213
 3157SOL    HW211369  11.673  13.174  14.236
 3158SOL     OW11370   5.434  10.125  12.627
 3158SOL    HW111371   5.457  10.165  12.711
 3158SOL    HW211372   5.519  10.102  12.588
 3159SOL     OW11373   9.293   2.010  14.825
 3159SOL    HW111374   9.200   1.998  14.802
 3159SOL    HW211375   9.293   2.013   0.049
 3160SOL     OW11376   9.649   6.966   6.043
 3160SOL    HW111377   9.740   6.959   6.016
 3160SOL    HW211378   9.645   7.047   6.093
 3161SOL     OW11379  13.736   6.455   8.651
 3161SOL    HW111380  13.769   6.513   8.582
 3161SOL    HW211381  13.780   6.372   8.634
 3162SOL     OW11382  11.079  10.864  10.920
 3162SOL    HW111383  11.165  10.906  10.912
 3162SOL    HW211384  11.037  10.912  10.992
 3163SOL     OW11385  12.503   3.558   3.772
 3163SOL    HW111386  12.488   3.652   3.764
 3163SOL    HW211387  12.589   3.550   3.813
 3164SOL     OW11388   6.470  11.569   0.426
 3164SOL    HW111389   6.387  11.542   0.387
 3164SOL    HW211390   6.475  11.520   0.508
 3165SOL     OW11391   4.558   3.653  13.719
 3165SOL    HW111392   4.547   3.686  13.629
 3165SOL    HW211393   4.631   3.705  13.754
 3166SOL     OW11394  10.221   1.562   3.102
 3166SOL    HW111395  10.297   1.513   3.071
 3166SOL    HW211396  10.257   1.645   3.133
 3167SOL     OW11397  11.389   3.955   1.063
 3167SOL    HW111398  11.382   4.001   1.146
 3167SOL    HW211399  11.455   4.005   1.013
 3168SOL     OW11400  11.819   9.217  13.705
 3168SOL    HW111401  11.876   9.245  13.634
 3168SOL    HW211402  11.784   9.298  13.742
 3169SOL     OW11403  12.111   5.096   2.764
 3169SOL    HW111404  12.174   5.058   2.703
 3169SOL    HW211405  12.163   5.131   2.836
 3170SOL     OW11406   7.273   1.550   2.000
 3170SOL    HW111407   7.243   1.460   1.985
 3170SOL    HW211408   7.195   1.603   1.985
 3171SOL     OW11409  11.168  12.775   1.277
 3171SOL    HW111410  11.176  12.848   1.215
 3171SOL    HW211411  11.170  12.696   1.223
 3172SOL     OW11412   4.711   9.574  11.130
 3172SOL    HW111413   4.723   9.550  11.039
 3172SOL    HW211414   4.623   9.543  11.152
 3173SOL     OW11415   5.265   8.980   0.306
 3173SOL    HW111416   5.226   8.897   0.278
 3173SOL    HW211417   5.206   9.011   0.375
 3174SOL     OW11418  11.594   3.382   7.438
 3174SOL    HW111419  11.596   3.405   7.345
 3174SOL    HW211420  11.686   3.381   7.464
 3175SOL     OW11421  10.633   8.894   4.197
 3175SOL    HW111422  10.612   8.839   4.272
 3175SOL    HW211423  10.608   8.982   4.224
 3176SOL     OW11424  11.846   9.980   1.409
 3176SOL    HW111425  11.791   9.914   1.367
 3176SOL    HW211426  11.787  10.056   1.420
 3177SOL     OW11427  13.331   3.461  12.597
 3177SOL    HW111428  13.321   3.424  12.684
 3177SOL    HW211429  13.375   3.545  12.611
 3178SOL     OW11430   0.612   8.020   6.023
 3178SOL    HW111431   0.632   7.958   6.092
 3178SOL    HW211432   0.537   8.070   6.056
 3179SOL     OW11433   8.101  11.418   3.076
 3179SOL    HW111434   8.072  11.330   3.053
 3179SOL    HW211435   8.148  11.449   2.998
 3180SOL     OW11436   8.257  11.223   4.101
 3180SOL    HW111437   8.344  11.222   4.142
 3180SOL    HW211438   8.211  11.148   4.140
 3181SOL     OW11439   7.756   0.829   3.332
 3181SOL    HW111440   7.763   0.746   3.284
 3181SOL    HW211441   7.762   0.803   3.424
 3182SOL     OW11442  12.678   3.030   8.579
 3182SOL    HW111443  12.772   3.014   8.585
 3182SOL    HW211444  12.660   3.093   8.649
 3183SOL     OW11445  12.239  10.496   0.545
 3183SOL    HW111446  12.234  10.589   0.525
 3183SOL    HW211447  12.276  10.492   0.633
 3184SOL     OW11448  12.815   6.197  12.859
 3184SOL    HW111449  12.888   6.252  12.830
 3184SOL    HW211450  12.749   6.259  12.891
 3185SOL     OW11451   2.684  11.768   9.424
 3185SOL    HW111452   2.732  11.795   9.502
 3185SOL    HW211453   2.664  11.849   9.378
 3186SOL     OW11454   9.955   6.930   2.101
 3186SOL    HW111455   9.866   6.956   2.079
 3186SOL    HW211456   9.986   6.882   2.024
 3187SOL     OW11457  11.306  10.099  11.255
 3187SOL    HW111458  11.220  10.081  11.216
 3187SOL    HW211459  11.315  10.035  11.325
 3188SOL     OW11460  13.049  14.582   6.233
 3188SOL    HW111461  12.966  14.622   6.206
 3188SOL    HW211462  13.083  14.541   6.154
 3189SOL     OW11463   2.738   9.788  14.243
 3189SOL    HW111464   2.689   9.828  14.171
 3189SOL    HW211465   2.737   9.694  14.223
 3190SOL     OW11466  13.432  11.775   8.157
 3190SOL    HW111467  13.434  11.687   8.197
 3190SOL    HW211468  13.524  11.798   8.147
 3191SOL     OW11469   5.887   0.810   7.676
 3191SOL    HW111470   5.893   0.905   7.664
 3191SOL    HW211471   5.795   0.789   7.657
 3192SOL     OW11472   5.167   1.911  11.881
 3192SOL    HW111473   5.220   1.964  11.821
 3192SOL    HW211474   5.202   1.930  11.968
 3193SOL     OW11475   6.088  11.153  12.125
 3193SOL    HW111476   6.092  11.079  12.064
 3193SOL    HW211477   6.045  11.223  12.075
 3194SOL     OW11478   1.795  11.780   3.809
 3194SOL    HW111479   1.832  11.723   3.877
 3194SOL    HW211480   1.859  11.777   3.738
 3195SOL     OW11481  11.537   5.978   5.450
 3195SOL    HW111482  11.472   6.007   5.386
 3195SOL    HW211483  11.601   6.049   5.453
 3196SOL     OW11484   9.673   6.768  12.517
 3196SOL    HW111485   9.654   6.686  12.563
 3196SOL    HW211486   9.732   6.743  12.446
 3197SOL     OW11487   6.041   8.078  11.431
 3197SOL    HW111488   6.086   8.110  11.353
 3197SOL    HW211489   6.110   8.044  11.487
 3198SOL     OW11490   2.415  14.746   4.601
 3198SOL    HW111491   2.386  14.790   4.521
 3198SOL    HW211492   2.366  14.664   4.603
 3199SOL     OW11493   4.215   3.573   9.207
 3199SOL    HW111494   4.126   3.569   9.171
 3199SOL    HW211495   4.211   3.643   9.272
 3200SOL     OW11496  10.284   3.507  14.501
 3200SOL    HW111497  10.354   3.572  14.493
 3200SOL    HW211498  10.229   3.523  14.424
 3201SOL     OW11499   3.918  10.101   0.820
 3201SOL    HW111500   3.965  10.171   0.774
 3201SOL    HW211501   3.832  10.100   0.778
 3202SOL     OW11502   9.774   0.502   6.562
 3202SOL    HW111503   9.723   0.521   6.483
 3202SOL    HW211504   9.806   0.413   6.549
 3203SOL     OW11505   6.806  14.783   5.722
 3203SOL    HW111506   6.898  14.802   5.740
 3203SOL    HW211507   6.791  14.697   5.762
 3204SOL     OW11508  14.113  11.193  10.201
 3204SOL    HW111509  14.149  11.139  10.271
 3204SOL    HW211510  14.115  11.137  10.124
 3205SOL     OW11511   9.478   3.320  13.260
 3205SOL    HW111512   9.503   3.360  13.176
 3205SOL    HW211513   9.485   3.391  13.323
 3206SOL     OW11514   7.127   9.836   1.106
 3206SOL    HW111515   7.195   9.774   1.080
 3206SOL    HW211516   7.086   9.796   1.183
 3207SOL     OW11517  11.383   4.325   2.603
 3207SOL    HW111518  11.455   4.387   2.601
 3207SOL    HW211519  11.421   4.243   2.635
 3208SOL     OW11520   2.874   1.514  13.251
 3208SOL    HW111521   2.783   1.507  13.280
 3208SOL    HW211522   2.922   1.459  13.313
 3209SOL     OW11523   8.634  10.458   6.055
 3209SOL    HW111524   8.677  10.483   5.973
 3209SOL    HW211525   8.567  10.394   6.028
 3210SOL     OW11526  13.767   6.438  11.394
 3210SOL    HW111527  13.826   6.501  11.352
 3210SOL    HW211528  13.748   6.476  11.480
 3211SOL     OW11529   0.755  13.783   2.338
 3211SOL    HW111530   0.800  13.699   2.326
 3211SOL    HW211531   0.691  13.785   2.266
 3212SOL     OW11532   7.831  10.770  12.943
 3212SOL    HW111533   7.866  10.772  12.854
 3212SOL    HW211534   7.892  10.825  12.994
 3213SOL     OW11535   8.279   2.688  11.700
 3213SOL    HW111536   8.265   2.595  11.721
 3213SOL    HW211537   8.226   2.702  11.621
 3214SOL     OW11538   3.092   2.949   5.832
 3214SOL    HW111539   3.178   2.984   5.812
 3214SOL    HW211540   3.063   3.000   5.908
 3215SOL     OW11541  10.971   4.536   7.035
 3215SOL    HW111542  11.055   4.581   7.027
 3215SOL    HW211543  10.925   4.555   6.952
 3216SOL     OW11544   7.237   8.843  12.626
 3216SOL    HW111545   7.252   8.822  12.719
 3216SOL    HW211546   7.322   8.829  12.585
 3217SOL     OW11547   2.620   1.642   1.386
 3217SOL    HW111548   2.580   1.593   1.458
 3217SOL    HW211549   2.558   1.713   1.369
 3218SOL     OW11550  12.976   7.903  11.509
 3218SOL    HW111551  13.027   7.982  11.492
 3218SOL    HW211552  12.921   7.893  11.431
 3219SOL     OW11553  12.170  14.246   7.229
 3219SOL    HW111554  12.192  14.186   7.299
 3219SOL    HW211555  12.075  14.235   7.216
 3220SOL     OW11556   9.026  11.313   4.042
 3220SOL    HW111557   8.976  11.252   3.987
 3220SOL    HW211558   9.008  11.284   4.132
 3221SOL     OW11559   9.472   2.103  13.505
 3221SOL    HW111560   9.506   2.013  13.507
 3221SOL    HW211561   9.486   2.132  13.415
 3222SOL     OW11562   5.876   1.228  11.291
 3222SOL    HW111563   5.856   1.141  11.326
 3222SOL    HW211564   5.953   1.215  11.236
 3223SOL     OW11565  10.240   2.056  14.510
 3223SOL    HW111566  10.303   1.984  14.503
 3223SOL    HW211567  10.156   2.012  14.524
 3224SOL     OW11568   8.856   2.727   9.131
 3224SOL    HW111569   8.884   2.735   9.223
 3224SOL    HW211570   8.787   2.792   9.122
 3225SOL     OW11571  12.504   2.273  12.131
 3225SOL    HW111572  12.564   2.346  12.144
 3225SOL    HW211573  12.467   2.257  12.218
 3226SOL     OW11574   1.396   3.719  11.294
 3226SOL    HW111575   1.424   3.709  11.203
 3226SOL    HW211576   1.393   3.630  11.329
 3227SOL     OW11577  14.754   5.351   1.284
 3227SOL    HW111578  14.708   5.304   1.353
 3227SOL    HW211579  14.770   5.285   1.217
 3228SOL     OW11580  14.421   8.534  13.456
 3228SOL    HW111581  14.332   8.505  13.436
 3228SOL    HW211582  14.421   8.549  13.551
 3229SOL     OW11583  13.914  13.117   7.785
 3229SOL    HW111584  13.819  13.109   7.776
 3229SOL    HW211585  13.949  13.042   7.737
 3230SOL     OW11586   5.331   8.865   5.764
 3230SOL    HW111587   5.246   8.908   5.754
 3230SOL    HW211588   5.310   8.772   5.770
 3231SOL     OW11589   6.943  13.928  10.546
 3231SOL    HW111590   7.032  13.964  10.544
 3231SOL    HW211591   6.887  14.003  10.568
 3232SOL     OW11592   3.805   6.957  10.193
 3232SOL    HW111593   3.798   6.883  10.253
 3232SOL    HW211594   3.867   6.928  10.126
 3233SOL     OW11595  11.150   7.090  12.277
 3233SOL    HW111596  11.082   7.153  12.303
 3233SOL    HW211597  11.133   7.013  12.333
 3234SOL     OW11598   3.542   3.763  10.593
 3234SOL    HW111599   3.532   3.763  10.498
 3234SOL    HW211600   3.599   3.838  10.610
 3235SOL     OW11601   7.361   7.293  13.306
 3235SOL    HW111602   7.372   7.387  13.322
 3235SOL    HW211603   7.447   7.265  13.273
 3236SOL     OW11604   6.189   3.501   4.980
 3236SOL    HW111605   6.257   3.453   4.932
 3236SOL    HW211606   6.219   3.501   5.070
 3237SOL     OW11607   8.132  10.908   1.894
 3237SOL    HW111608   8.170  10.863   1.970
 3237SOL    HW211609   8.199  10.901   1.826
 3238SOL     OW11610   9.422   8.422   1.016
 3238SOL    HW111611   9.404   8.335   0.978
 3238SOL    HW211612   9.336   8.454   1.043
 3239SOL     OW11613  13.647   6.742   9.570
 3239SOL    HW111614  13.733   6.724   9.532
 3239SOL    HW211615  13.635   6.674   9.636
 3240SOL     OW11616   0.207   6.160   3.503
 3240SOL    HW111617   0.202   6.111   3.584
 3240SOL    HW211618   0.116   6.183   3.484
 3241SOL     OW11619   5.419   5.244   3.788
 3241SOL    HW111620   5.434   5.183   3.716
 3241SOL    HW211621   5.467   5.322   3.764
 3242SOL     OW11622   2.609  11.877   7.518
 3242SOL    HW111623   2.625  11.797   7.569
 3242SOL    HW211624   2.630  11.948   7.579
 3243SOL     OW11625  13.422   8.517   1.829
 3243SOL    HW111626  13.480   8.541   1.902
 3243SOL    HW211627  13.471   8.449   1.782
 3244SOL     OW11628   3.927   4.658   8.162
 3244SOL    HW111629   3.977   4.738   8.174
 3244SOL    HW211630   3.964   4.597   8.226
 3245SOL     OW11631   8.239   0.473   6.018
 3245SOL    HW111632   8.275   0.440   5.936
 3245SOL    HW211633   8.277   0.416   6.085
 3246SOL     OW11634   2.962  10.464   7.971
 3246SOL    HW111635   2.886  10.410   7.990
 3246SOL    HW211636   2.937  10.517   7.896
 3247SOL     OW11637   6.750  10.479   5.159
 3247SOL    HW111638   6.802  10.400   5.146
 3247SOL    HW211639   6.773  10.509   5.247
 3248SOL     OW11640  13.186   4.833   6.753
 3248SOL    HW111641  13.109   4.849   6.698
 3248SOL    HW211642  13.259   4.871   6.703
 3249SOL     OW11643   4.178   9.184   8.965
 3249SOL    HW111644   4.265   9.146   8.978
 3249SOL    HW211645   4.159   9.170   8.873
 3250SOL     OW11646  13.957  14.320   2.531
 3250SOL    HW111647  13.956  14.274   2.616
 3250SOL    HW211648  13.865  14.325   2.506
 3251SOL     OW11649   7.262   1.939   5.163
 3251SOL    HW111650   7.216   2.022   5.152
 3251SOL    HW211651   7.212   1.876   5.112
 3252SOL     OW11652   6.166  13.760   1.616
 3252SOL    HW111653   6.073  13.782   1.623
 3252SOL    HW211654   6.175  13.724   1.528
 3253SOL     OW11655   6.010  12.163   9.797
 3253SOL    HW111656   5.966  12.213   9.866
 3253SOL    HW211657   6.011  12.073   9.829
 3254SOL     OW11658  14.376  14.278  11.170
 3254SOL    HW111659  14.282  14.283  11.183
 3254SOL    HW211660  14.411  14.356  11.214
 3255SOL     OW11661   9.494   8.062   7.415
 3255SOL    HW111662   9.566   8.043   7.475
 3255SOL    HW211663   9.493   7.987   7.355
 3256SOL     OW11664   7.650   6.270  13.554
 3256SOL    HW111665   7.639   6.202  13.620
 3256SOL    HW211666   7.572   6.262  13.498
 3257SOL     OW11667   3.925  10.151   8.666
 3257SOL    HW111668   3.933  10.075   8.608
 3257SOL    HW211669   3.848  10.197   8.635
 3258SOL     OW11670   6.130  13.812   4.240
 3258SOL    HW111671   6.096  13.902   4.245
 3258SOL    HW211672   6.209  13.820   4.185
 3259SOL     OW11673   6.854   1.517  11.787
 3259SOL    HW111674   6.882   1.444  11.843
 3259SOL    HW211675   6.762   1.499  11.769
 3260SOL     OW11676  11.946   6.164   2.965
 3260SOL    HW111677  12.023   6.115   2.936
 3260SOL    HW211678  11.894   6.101   3.014
 3261SOL     OW11679   0.450   7.342   8.594
 3261SOL    HW111680   0.366   7.385   8.606
 3261SOL    HW211681   0.492   7.391   8.523
 3262SOL     OW11682   9.436   2.614  12.133
 3262SOL    HW111683   9.388   2.695  12.152
 3262SOL    HW211684   9.389   2.576  12.059
 3263SOL     OW11685   7.163   4.875  13.915
 3263SOL    HW111686   7.136   4.784  13.914
 3263SOL    HW211687   7.258   4.873  13.902
 3264SOL     OW11688  13.432  11.072   6.202
 3264SOL    HW111689  13.511  11.018   6.205
 3264SOL    HW211690  13.463  11.160   6.224
 3265SOL     OW11691  13.214  10.732  12.302
 3265SOL    HW111692  13.173  10.819  12.297
 3265SOL    HW211693  13.301  10.749  12.339
 3266SOL     OW11694  14.196   3.686  14.235
 3266SOL    HW111695  14.277   3.661  14.191
 3266SOL    HW211696  14.222   3.762  14.289
 3267SOL     OW11697   5.573  12.215   6.208
 3267SOL    HW111698   5.645  12.234   6.148
 3267SOL    HW211699   5.578  12.120   6.222
 3268SOL     OW11700   6.118   3.310   0.520
 3268SOL    HW111701   6.090   3.220   0.540
 3268SOL    HW211702   6.207   3.300   0.485
 3269SOL     OW11703   9.636   5.552  13.783
 3269SOL    HW111704   9.724   5.529  13.754
 3269SOL    HW211705   9.616   5.488  13.852
 3270SOL     OW11706   5.726  13.729   7.690
 3270SOL    HW111707   5.737  13.684   7.606
 3270SOL    HW211708   5.746  13.821   7.670
 3271SOL     OW11709   5.507   7.447   4.423
 3271SOL    HW111710   5.542   7.483   4.341
 3271SOL    HW211711   5.581   7.403   4.463
 3272SOL     OW11712   0.778  11.633  11.012
 3272SOL    HW111713   0.768  11.538  11.005
 3272SOL    HW211714   0.873  11.647  11.014
 3273SOL     OW11715  10.397   1.945  10.213
 3273SOL    HW111716  10.372   2.006  10.282
 3273SOL    HW211717  10.424   2.000  10.140
 3274SOL     OW11718  12.246  14.218   6.268
 3274SOL    HW111719  12.167  14.251   6.226
 3274SOL    HW211720  12.242  14.123   6.255
 3275SOL     OW11721   1.130  11.760   7.584
 3275SOL    HW111722   1.224  11.767   7.602
 3275SOL    HW211723   1.121  11.676   7.539
 3276SOL     OW11724   1.955   7.441  10.409
 3276SOL    HW111725   1.911   7.514  10.453
 3276SOL    HW211726   1.893   7.369  10.415
 3277SOL     OW11727   8.854   6.353   7.134
 3277SOL    HW111728   8.813   6.287   7.077
 3277SOL    HW211729   8.828   6.327   7.222
 3278SOL     OW11730   1.605  13.228  11.151
 3278SOL    HW111731   1.666  13.209  11.079
 3278SOL    HW211732   1.662  13.254  11.223
 3279SOL     OW11733   9.350   6.721  10.755
 3279SOL    HW111734   9.257   6.723  10.733
 3279SOL    HW211735   9.390   6.672  10.683
 3280SOL     OW11736   5.078  13.514   1.088
 3280SOL    HW111737   5.046  13.446   1.029
 3280SOL    HW211738   5.072  13.475   1.175
 3281SOL     OW11739  14.245   2.740   2.981
 3281SOL    HW111740  14.256   2.689   2.901
 3281SOL    HW211741  14.330   2.734   3.025
 3282SOL     OW11742   8.458   6.845   7.426
 3282SOL    HW111743   8.394   6.860   7.357
 3282SOL    HW211744   8.495   6.759   7.407
 3283SOL     OW11745   0.170   4.761  11.106
 3283SOL    HW111746   0.216   4.841  11.082
 3283SOL    HW211747   0.081   4.773  11.074
 3284SOL     OW11748   1.959   0.624   7.728
 3284SOL    HW111749   1.889   0.689   7.728
 3284SOL    HW211750   2.039   0.675   7.744
 3285SOL     OW11751   2.482  11.366  12.670
 3285SOL    HW111752   2.426  11.439  12.696
 3285SOL    HW211753   2.527  11.341  12.750
 3286SOL     OW11754   8.312  10.707   3.669
 3286SOL    HW111755   8.237  10.666   3.711
 3286SOL    HW211756   8.384  10.645   3.681
 3287SOL     OW11757   8.424  13.772   8.811
 3287SOL    HW111758   8.403  13.761   8.903
 3287SOL    HW211759   8.469  13.691   8.786
 3288SOL     OW11760   7.112  12.805   2.639
 3288SOL    HW111761   7.113  12.716   2.603
 3288SOL    HW211762   7.197  12.841   2.616
 3289SOL     OW11763  13.943   8.256  13.953
 3289SOL    HW111764  13.874   8.200  13.989
 3289SOL    HW211765  14.011   8.194  13.925
 3290SOL     OW11766   1.553  11.658   6.932
 3290SOL    HW111767   1.478  11.712   6.956
 3290SOL    HW211768   1.515  11.581   6.890
 3291SOL     OW11769   1.182   7.727   3.453
 3291SOL    HW111770   1.134   7.747   3.373
 3291SOL    HW211771   1.260   7.679   3.423
 3292SOL     OW11772   1.647  14.792  13.703
 3292SOL    HW111773   1.697  14.762  13.628
 3292SOL    HW211774   1.618   0.009  13.679
 3293SOL     OW11775   3.860   0.016   6.027
 3293SOL    HW111776   3.932   0.041   6.085
 3293SOL    HW211777   3.867  14.793   6.020
 3294SOL     OW11778   6.741   8.657   6.290
 3294SOL    HW111779   6.737   8.616   6.376
 3294SOL    HW211780   6.766   8.748   6.307
 3295SOL     OW11781   9.661  11.210  14.791
 3295SOL    HW111782   9.576  11.250  14.770
 3295SOL    HW211783   9.643  11.116  14.796
 3296SOL     OW11784   1.788   4.480   6.617
 3296SOL    HW111785   1.745   4.394   6.608
 3296SOL    HW211786   1.873   4.469   6.573
 3297SOL     OW11787   8.028   9.490  11.503
 3297SOL    HW111788   7.971   9.452  11.437
 3297SOL    HW211789   8.045   9.419  11.565
 3298SOL     OW11790   4.885   8.696   4.094
 3298SOL    HW111791   4.862   8.607   4.119
 3298SOL    HW211792   4.941   8.686   4.017
 3299SOL     OW11793   4.266   9.997  11.628
 3299SOL    HW111794   4.212   9.974  11.704
 3299SOL    HW211795   4.208  10.045  11.570
 3300SOL     OW11796   7.041   6.046  12.315
 3300SOL    HW111797   7.004   5.959  12.326
 3300SOL    HW211798   7.131   6.031  12.287
 3301SOL     OW11799   9.904  14.154   7.025
 3301SOL    HW111800   9.970  14.095   6.988
 3301SOL    HW211801   9.944  14.188   7.105
 3302SOL     OW11802   3.655   4.734   7.263
 3302SOL    HW111803   3.745   4.724   7.295
 3302SOL    HW211804   3.656   4.814   7.211
 3303SOL     OW11805  11.156   4.915   9.095
 3303SOL    HW111806  11.248   4.899   9.119
 3303SOL    HW211807  11.152   4.897   9.001
 3304SOL     OW11808  13.031   7.000   3.704
 3304SOL    HW111809  13.063   6.910   3.713
 3304SOL    HW211810  12.994   7.021   3.789
 3305SOL     OW11811  10.916   7.165   0.071
 3305SOL    HW111812  10.863   7.234   0.031
 3305SOL    HW211813  10.996   7.163   0.019
 3306SOL     OW11814   2.783  14.491   5.496
 3306SOL    HW111815   2.815  14.402   5.484
 3306SOL    HW211816   2.711  14.499   5.432
 3307SOL     OW11817   3.118   8.846   0.155
 3307SOL    HW111818   3.083   8.861   0.067
 3307SOL    HW211819   3.057   8.783   0.194
 3308SOL     OW11820   9.647   2.696   8.144
 3308SOL    HW111821   9.689   2.617   8.108
 3308SOL    HW211822   9.557   2.670   8.159
 3309SOL     OW11823  13.429   2.596   7.216
 3309SOL    HW111824  13.359   2.552   7.265
 3309SOL    HW211825  13.510   2.563   7.256
 3310SOL     OW11826   7.394  12.745   7.103
 3310SOL    HW111827   7.323  12.802   7.133
 3310SOL    HW211828   7.452  12.803   7.053
 3311SOL     OW11829  11.941   9.893   8.396
 3311SOL    HW111830  11.872   9.884   8.462
 3311SOL    HW211831  11.904   9.953   8.331
 3312SOL     OW11832  13.360  12.508  10.961
 3312SOL    HW111833  13.307  12.435  10.930
 3312SOL    HW211834  13.326  12.527  11.048
 3313SOL     OW11835   4.775   9.582  11.833
 3313SOL    HW111836   4.739   9.657  11.880
 3313SOL    HW211837   4.726   9.581  11.750
 3314SOL     OW11838   4.125   6.818  11.049
 3314SOL    HW111839   4.219   6.801  11.060
 3314SOL    HW211840   4.104   6.777  10.965
 3315SOL     OW11841   8.013   0.452  12.959
 3315SOL    HW111842   8.058   0.536  12.962
 3315SOL    HW211843   8.044   0.411  12.878
 3316SOL     OW11844  13.986   6.901   3.860
 3316SOL    HW111845  14.010   6.971   3.799
 3316SOL    HW211846  14.049   6.909   3.932
 3317SOL     OW11847   8.902  10.931   0.790
 3317SOL    HW111848   8.877  10.948   0.881
 3317SOL    HW211849   8.959  10.855   0.795
 3318SOL     OW11850   0.720  10.207  12.273
 3318SOL    HW111851   0.653  10.258  12.227
 3318SOL    HW211852   0.789  10.193  12.208
 3319SOL     OW11853   2.151   9.292   0.124
 3319SOL    HW111854   2.215   9.362   0.107
 3319SOL    HW211855   2.077   9.314   0.068
 3320SOL     OW11856   6.985   4.144   7.744
 3320SOL    HW111857   6.942   4.197   7.811
 3320SOL    HW211858   7.079   4.154   7.762
 3321SOL     OW11859   9.349   2.264  11.438
 3321SOL    HW111860   9.378   2.173  11.435
 3321SOL    HW211861   9.254   2.259  11.449
 3322SOL     OW11862  12.006   0.644  14.023
 3322SOL    HW111863  11.924   0.614  13.983
 3322SOL    HW211864  11.981   0.723  14.072
 3323SOL     OW11865  13.407   0.759  14.520
 3323SOL    HW111866  13.429   0.771  14.613
 3323SOL    HW211867  13.340   0.825  14.503
 3324SOL     OW11868   9.575  10.114   1.727
 3324SOL    HW111869   9.642  10.052   1.754
 3324SOL    HW211870   9.523  10.129   1.805
 3325SOL     OW11871   1.829   5.399   6.787
 3325SOL    HW111872   1.892   5.328   6.767
 3325SOL    HW211873   1.854   5.429   6.874
 3326SOL     OW11874   4.993  14.217   9.745
 3326SOL    HW111875   5.066  14.258   9.792
 3326SOL    HW211876   5.014  14.229   9.653
 3327SOL     OW11877   2.367   5.930   1.226
 3327SOL    HW111878   2.415   6.010   1.205
 3327SOL    HW211879   2.315   5.912   1.147
 3328SOL     OW11880  11.764  13.805   4.638
 3328SOL    HW111881  11.826  13.759   4.581
 3328SOL    HW211882  11.745  13.742   4.708
 3329SOL     OW11883  11.199   1.003  13.958
 3329SOL    HW111884  11.230   1.055  14.032
 3329SOL    HW211885  11.267   0.937  13.945
 3330SOL     OW11886   8.952   5.371   0.938
 3330SOL    HW111887   8.893   5.436   0.899
 3330SOL    HW211888   9.036   5.387   0.896
 3331SOL     OW11889   3.747   9.853  10.902
 3331SOL    HW111890   3.722   9.918  10.837
 3331SOL    HW211891   3.805   9.900  10.962
 3332SOL     OW11892  12.351   8.677   4.139
 3332SOL    HW111893  12.320   8.601   4.187
 3332SOL    HW211894  12.396   8.640   4.062
 3333SOL     OW11895  10.916   9.252   9.843
 3333SOL    HW111896  10.968   9.245   9.763
 3333SOL    HW211897  10.980   9.255   9.914
 3334SOL     OW11898   5.858   4.309  11.916
 3334SOL    HW111899   5.926   4.270  11.861
 3334SOL    HW211900   5.898   4.388  11.951
 3335SOL     OW11901   6.708  12.256   8.184
 3335SOL    HW111902   6.691  12.193   8.254
 3335SOL    HW211903   6.794  12.293   8.205
 3336SOL     OW11904  11.477   5.621   0.127
 3336SOL    HW111905  11.453   5.541   0.173
 3336SOL    HW211906  11.395   5.652   0.089
 3337SOL     OW11907  11.365   5.684  11.340
 3337SOL    HW111908  11.421   5.699  11.416
 3337SOL    HW211909  11.419   5.632  11.280
 3338SOL     OW11910   6.993   3.554   1.151
 3338SOL    HW111911   7.087   3.538   1.160
 3338SOL    HW211912   6.970   3.515   1.067
 3339SOL     OW11913  10.123   2.677   7.152
 3339SOL    HW111914  10.097   2.585   7.162
 3339SOL    HW211915  10.041   2.723   7.134
 3340SOL     OW11916   8.732   7.686   3.990
 3340SOL    HW111917   8.750   7.779   4.000
 3340SOL    HW211918   8.814   7.643   4.015
 3341SOL     OW11919   8.247   2.490  12.404
 3341SOL    HW111920   8.279   2.576  12.377
 3341SOL    HW211921   8.209   2.504  12.491
 3342SOL     OW11922  11.244   5.083   9.397
 3342SOL    HW111923  11.157   5.121   9.382
 3342SOL    HW211924  11.281   5.136   9.468
 3343SOL     OW11925   7.352   0.056   7.580
 3343SOL    HW111926   7.295   0.045   7.657
 3343SOL    HW211927   7.371  14.838   7.552
 3344SOL     OW11928  10.918   0.579   4.660
 3344SOL    HW111929  10.868   0.651   4.699
 3344SOL    HW211930  11.002   0.580   4.706
 3345SOL     OW11931   6.898   6.156  14.526
 3345SOL    HW111932   6.896   6.226  14.591
 3345SOL    HW211933   6.878   6.077  14.575
 3346SOL     OW11934   4.250   0.753  10.485
 3346SOL    HW111935   4.323   0.779  10.542
 3346SOL    HW211936   4.191   0.705  10.543
 3347SOL     OW11937   2.371  11.767   5.757
 3347SOL    HW111938   2.381  11.810   5.672
 3347SOL    HW211939   2.360  11.840   5.819
 3348SOL     OW11940   1.399   6.544   0.441
 3348SOL    HW111941   1.460   6.617   0.447
 3348SOL    HW211942   1.323   6.579   0.395
 3349SOL     OW11943  12.915  14.561  11.781
 3349SOL    HW111944  12.895  14.512  11.701
 3349SOL    HW211945  12.959  14.640  11.750
 3350SOL     OW11946   7.270  13.164   8.308
 3350SOL    HW111947   7.192  13.152   8.254
 3350SOL    HW211948   7.335  13.106   8.268
 3351SOL     OW11949  11.186  13.493   4.493
 3351SOL    HW111950  11.140  13.572   4.521
 3351SOL    HW211951  11.277  13.519   4.485
 3352SOL     OW11952   5.988   5.626  12.176
 3352SOL    HW111953   5.906   5.586  12.204
 3352SOL    HW211954   6.009   5.582  12.093
 3353SOL     OW11955   9.723   6.825  11.946
 3353SOL    HW111956   9.656   6.817  11.878
 3353SOL    HW211957   9.759   6.913  11.934
 3354SOL     OW11958  14.760   7.681   6.363
 3354SOL    HW111959  14.816   7.668   6.286
 3354SOL    HW211960  14.749   7.593   6.399
 3355SOL     OW11961  12.166   2.771   6.641
 3355SOL    HW111962  12.109   2.847   6.651
 3355SOL    HW211963  12.160   2.725   6.724
 3356SOL     OW11964   3.410  11.585   1.631
 3356SOL    HW111965   3.403  11.661   1.573
 3356SOL    HW211966   3.333  11.591   1.688
 3357SOL     OW11967  10.897   9.872  11.146
 3357SOL    HW111968  10.868   9.870  11.054
 3357SOL    HW211969  10.945   9.954  11.154
 3358SOL     OW11970   6.412   3.191   7.157
 3358SOL    HW111971   6.370   3.108   7.133
 3358SOL    HW211972   6.345   3.257   7.141
 3359SOL     OW11973   1.228   1.980  11.885
 3359SOL    HW111974   1.314   1.976  11.926
 3359SOL    HW211975   1.237   2.047  11.817
 3360SOL     OW11976   0.134   6.605  13.998
 3360SOL    HW111977   0.175   6.681  13.957
 3360SOL    HW211978   0.130   6.627  14.091
 3361SOL     OW11979   0.382   5.614  10.196
 3361SOL    HW111980   0.346   5.528  10.217
 3361SOL    HW211981   0.326   5.676  10.243
 3362SOL     OW11982  10.137   9.526   8.493
 3362SOL    HW111983  10.186   9.455   8.451
 3362SOL    HW211984  10.197   9.601   8.492
 3363SOL     OW11985   5.517   9.564  12.947
 3363SOL    HW111986   5.603   9.560  12.907
 3363SOL    HW211987   5.472   9.635  12.901
 3364SOL     OW11988   0.021   9.264   2.650
 3364SOL    HW111989   0.107   9.286   2.616
 3364SOL    HW211990   0.020   9.298   2.740
 3365SOL     OW11991   6.218   6.557  14.418
 3365SOL    HW111992   6.265   6.500  14.479
 3365SOL    HW211993   6.229   6.645  14.453
 3366SOL     OW11994   9.345   3.945   9.452
 3366SOL    HW111995   9.292   4.021   9.430
 3366SOL    HW211996   9.336   3.886   9.377
 3367SOL     OW11997   1.445   4.443  13.285
 3367SOL    HW111998   1.399   4.504  13.227
 3367SOL    HW211999   1.404   4.454  13.370
 3368SOL     OW12000   0.921  13.856   7.498
 3368SOL    HW112001   0.957  13.877   7.584
 3368SOL    HW212002   0.827  13.846   7.513
 3369SOL     OW12003   5.141   1.562   7.275
 3369SOL    HW112004   5.217   1.533   7.225
 3369SOL    HW212005   5.174   1.578   7.363
 3370SOL     OW12006  12.732   8.357   8.603
 3370SOL    HW112007  12.811   8.320   8.642
 3370SOL    HW212008  12.749   8.357   8.508
 3371SOL     OW12009   7.592   8.931   7.084
 3371SOL    HW112010   7.658   8.941   7.016
 3371SOL    HW212011   7.509   8.927   7.036
 3372SOL     OW12012  11.143   8.192   5.018
 3372SOL    HW112013  11.149   8.172   4.925
 3372SOL    HW212014  11.207   8.134   5.059
 3373SOL     OW12015  13.263   5.895  13.461
 3373SOL    HW112016  13.200   5.852  13.518
 3373SOL    HW212017  13.215   5.910  13.379
 3374SOL     OW12018  12.488   4.866   8.696
 3374SOL    HW112019  12.416   4.830   8.645
 3374SOL    HW212020  12.509   4.949   8.653
 3375SOL     OW12021   2.484   2.200   9.431
 3375SOL    HW112022   2.484   2.212   9.336
 3375SOL    HW212023   2.571   2.164   9.449
 3376SOL     OW12024  13.988   6.600  13.207
 3376SOL    HW112025  13.959   6.565  13.292
 3376SOL    HW212026  13.930   6.558  13.143
 3377SOL     OW12027   3.622   2.606   0.109
 3377SOL    HW112028   3.635   2.701   0.103
 3377SOL    HW212029   3.709   2.570   0.092
 3378SOL     OW12030  10.000   5.319   4.236
 3378SOL    HW112031  10.033   5.257   4.171
 3378SOL    HW212032   9.975   5.264   4.310
 3379SOL     OW12033   9.442   6.853   9.487
 3379SOL    HW112034   9.524   6.897   9.465
 3379SOL    HW212035   9.385   6.924   9.519
 3380SOL     OW12036   1.514   7.879  13.507
 3380SOL    HW112037   1.451   7.900  13.438
 3380SOL    HW212038   1.502   7.947  13.572
 3381SOL     OW12039  11.037   3.286   0.913
 3381SOL    HW112040  11.124   3.308   0.948
 3381SOL    HW212041  10.983   3.362   0.936
 3382SOL     OW12042  13.171   2.722   7.039
 3382SOL    HW112043  13.207   2.713   7.127
 3382SOL    HW212044  13.247   2.710   6.981
 3383SOL     OW12045   5.907   7.758   3.340
 3383SOL    HW112046   5.927   7.728   3.429
 3383SOL    HW212047   5.942   7.847   3.338
 3384SOL     OW12048   1.502   0.430   8.910
 3384SOL    HW112049   1.500   0.524   8.894
 3384SOL    HW212050   1.573   0.398   8.854
 3385SOL     OW12051  12.246  11.948  10.512
 3385SOL    HW112052  12.278  12.005  10.441
 3385SOL    HW212053  12.173  11.901  10.473
 3386SOL     OW12054  11.812  13.004   1.304
 3386SOL    HW112055  11.801  12.917   1.342
 3386SOL    HW212056  11.770  13.063   1.366
 3387SOL     OW12057  11.347   7.808   3.128
 3387SOL    HW112058  11.354   7.750   3.051
 3387SOL    HW212059  11.413   7.775   3.188
 3388SOL     OW12060   0.078   9.434  12.153
 3388SOL    HW112061   0.091   9.391  12.069
 3388SOL    HW212062  14.859   9.414  12.176
 3389SOL     OW12063   4.726   8.176   5.598
 3389SOL    HW112064   4.659   8.235   5.564
 3389SOL    HW212065   4.684   8.091   5.603
 3390SOL     OW12066   4.808  12.901   4.624
 3390SOL    HW112067   4.884  12.876   4.570
 3390SOL    HW212068   4.738  12.843   4.595
 3391SOL     OW12069  14.231   8.491   5.050
 3391SOL    HW112070  14.304   8.483   4.988
 3391SOL    HW212071  14.272   8.502   5.135
 3392SOL     OW12072   2.261   4.338   3.501
 3392SOL    HW112073   2.311   4.265   3.537
 3392SOL    HW212074   2.205   4.367   3.573
 3393SOL     OW12075   4.376   7.232   8.791
 3393SOL    HW112076   4.332   7.250   8.708
 3393SOL    HW212077   4.417   7.316   8.814
 3394SOL     OW12078   5.934   5.178  14.254
 3394SOL    HW112079   5.942   5.099  14.201
 3394SOL    HW212080   6.014   5.181  14.306
 3395SOL     OW12081   5.162   2.512  11.973
 3395SOL    HW112082   5.186   2.519  12.065
 3395SOL    HW212083   5.171   2.419  11.953
 3396SOL     OW12084  12.686   4.917   4.749
 3396SOL    HW112085  12.762   4.939   4.696
 3396SOL    HW212086  12.628   4.994   4.741
 3397SOL     OW12087  12.291   2.020   5.995
 3397SOL    HW112088  12.244   1.943   5.964
 3397SOL    HW212089  12.363   1.984   6.047
 3398SOL     OW12090  13.364  11.970  12.517
 3398SOL    HW112091  13.390  12.059  12.540
 3398SOL    HW212092  13.326  11.934  12.597
 3399SOL     OW12093   9.759   7.947   2.620
 3399SOL    HW112094   9.725   7.876   2.564
 3399SOL    HW212095   9.757   7.910   2.708
 3400SOL     OW12096  13.433   1.206   4.410
 3400SOL    HW112097  13.497   1.151   4.365
 3400SOL    HW212098  13.353   1.153   4.411
 3401SOL     OW12099   0.741  12.376  11.997
 3401SOL    HW112100   0.828  12.415  12.007
 3401SOL    HW212101   0.684  12.451  11.977
 3402SOL     OW12102   8.962   1.802  11.409
 3402SOL    HW112103   8.959   1.898  11.410
 3402SOL    HW212104   9.041   1.780  11.459
 3403SOL     OW12105   2.364   0.356  14.442
 3403SOL    HW112106   2.445   0.379  14.488
 3403SOL    HW212107   2.388   0.352  14.350
 3404SOL     OW12108   8.883   9.066  13.559
 3404SOL    HW112109   8.817   9.133  13.576
 3404SOL    HW212110   8.893   9.066  13.464
 3405SOL     OW12111  13.373   5.336   9.249
 3405SOL    HW112112  13.394   5.413   9.300
 3405SOL    HW212113  13.447   5.277   9.263
 3406SOL     OW12114   1.536  10.173  12.425
 3406SOL    HW112115   1.485  10.097  12.397
 3406SOL    HW212116   1.475  10.224  12.480
 3407SOL     OW12117  10.006   2.367  13.535
 3407SOL    HW112118   9.945   2.395  13.467
 3407SOL    HW212119   9.954   2.309  13.592
 3408SOL     OW12120   9.709  13.042   0.262
 3408SOL    HW112121   9.778  12.984   0.293
 3408SOL    HW212122   9.674  12.998   0.184
 3409SOL     OW12123  13.536   7.433  11.528
 3409SOL    HW112124  13.612   7.377  11.513
 3409SOL    HW212125  13.461   7.382  11.496
 3410SOL     OW12126   2.252  14.560   5.211
 3410SOL    HW112127   2.241  14.607   5.128
 3410SOL    HW212128   2.299  14.621   5.267
 3411SOL     OW12129   2.300   1.096   6.540
 3411SOL    HW112130   2.329   1.176   6.585
 3411SOL    HW212131   2.379   1.061   6.499
 3412SOL     OW12132  11.489   0.666   5.063
 3412SOL    HW112133  11.545   0.738   5.093
 3412SOL    HW212134  11.528   0.638   4.980
 3413SOL     OW12135   0.462   4.824  10.687
 3413SOL    HW112136   0.367   4.818  10.686
 3413SOL    HW212137   0.481   4.904  10.735
 3414SOL     OW12138  14.774   7.181   8.188
 3414SOL    HW112139  14.810   7.099   8.155
 3414SOL    HW212140  14.683   7.161   8.209
 3415SOL     OW12141   7.610  10.289   3.178
 3415SOL    HW112142   7.546  10.346   3.219
 3415SOL    HW212143   7.642  10.233   3.249
 3416SOL     OW12144  13.871   4.513   9.964
 3416SOL    HW112145  13.846   4.493  10.054
 3416SOL    HW212146  13.943   4.453   9.945
 3417SOL     OW12147   6.511   2.677   4.026
 3417SOL    HW112148   6.591   2.654   4.074
 3417SOL    HW212149   6.536   2.753   3.973
 3418SOL     OW12150   9.450  14.191   9.623
 3418SOL    HW112151   9.521  14.254   9.610
 3418SOL    HW212152   9.469  14.122   9.559
 3419SOL     OW12153  12.653   1.352   0.408
 3419SOL    HW112154  12.678   1.262   0.426
 3419SOL    HW212155  12.569   1.363   0.450
 3420SOL     OW12156  13.368   7.258  13.340
 3420SOL    HW112157  13.317   7.179  13.326
 3420SOL    HW212158  13.356   7.278  13.433
 3421SOL     OW12159   9.458   3.541   2.267
 3421SOL    HW112160   9.443   3.540   2.173
 3421SOL    HW212161   9.372   3.526   2.306
 3422SOL     OW12162   4.139   0.671   2.627
 3422SOL    HW112163   4.051   0.636   2.643
 3422SOL    HW212164   4.186   0.599   2.585
 3423SOL     OW12165   7.340  14.369  11.581
 3423SOL    HW112166   7.395  14.327  11.515
 3423SOL    HW212167   7.295  14.439  11.534
 3424SOL     OW12168  10.861   2.924   4.440
 3424SOL    HW112169  10.948   2.920   4.481
 3424SOL    HW212170  10.877   2.957   4.352
 3425SOL     OW12171  13.086   5.835  11.790
 3425SOL    HW112172  13.119   5.886  11.864
 3425SOL    HW212173  13.088   5.744  11.820
 3426SOL     OW12174   5.321   0.162   3.378
 3426SOL    HW112175   5.249   0.124   3.328
 3426SOL    HW212176   5.374   0.087   3.404
 3427SOL     OW12177   6.132   9.970   0.982
 3427SOL    HW112178   6.056  10.013   0.944
 3427SOL    HW212179   6.207  10.013   0.941
 3428SOL     OW12180   7.816   3.821   7.795
 3428SOL    HW112181   7.885   3.805   7.859
 3428SOL    HW212182   7.851   3.789   7.712
 3429SOL     OW12183   7.774   8.923   7.301
 3429SOL    HW112184   7.710   8.949   7.236
 3429SOL    HW212185   7.840   8.992   7.299
 3430SOL     OW12186  14.010  10.064  13.336
 3430SOL    HW112187  13.967   9.990  13.378
 3430SOL    HW212188  13.979  10.140  13.384
 3431SOL     OW12189   2.650   9.194   2.361
 3431SOL    HW112190   2.557   9.174   2.356
 3431SOL    HW212191   2.685   9.127   2.419
 3432SOL     OW12192   4.727   5.465   1.829
 3432SOL    HW112193   4.766   5.482   1.915
 3432SOL    HW212194   4.679   5.546   1.809
 3433SOL     OW12195   5.077   6.895   6.775
 3433SOL    HW112196   5.096   6.962   6.709
 3433SOL    HW212197   5.054   6.945   6.854
 3434SOL     OW12198  10.059   1.057   3.840
 3434SOL    HW112199   9.994   0.993   3.811
 3434SOL    HW212200  10.008   1.133   3.866
 3435SOL     OW12201   7.038   0.796   6.771
 3435SOL    HW112202   6.944   0.813   6.766
 3435SOL    HW212203   7.073   0.871   6.818
 3436SOL     OW12204   0.759  14.497   9.016
 3436SOL    HW112205   0.783  14.577   8.969
 3436SOL    HW212206   0.762  14.522   9.108
 3437SOL     OW12207   1.916  12.515  11.397
 3437SOL    HW112208   1.908  12.567  11.317
 3437SOL    HW212209   1.826  12.491  11.419
 3438SOL     OW12210   8.633  10.194   5.902
 3438SOL    HW112211   8.599  10.140   5.831
 3438SOL    HW212212   8.726  10.174   5.906
 3439SOL     OW12213   5.675   8.075   5.820
 3439SOL    HW112214   5.594   8.114   5.785
 3439SOL    HW212215   5.717   8.034   5.745
 3440SOL     OW12216   8.964  13.086  13.507
 3440SOL    HW112217   9.056  13.112  13.501
 3440SOL    HW212218   8.950  13.028  13.433
 3441SOL     OW12219  10.945  11.719   7.911
 3441SOL    HW112220  11.032  11.714   7.952
 3441SOL    HW212221  10.962  11.710   7.818
 3442SOL     OW12222  10.422   7.936  13.116
 3442SOL    HW112223  10.464   7.999  13.174
 3442SOL    HW212224  10.430   7.975  13.029
 3443SOL     OW12225   6.417  10.485   6.231
 3443SOL    HW112226   6.420  10.417   6.164
 3443SOL    HW212227   6.365  10.555   6.191
 3444SOL     OW12228   6.367   5.929   9.344
 3444SOL    HW112229   6.415   5.962   9.420
 3444SOL    HW212230   6.323   5.851   9.377
 3445SOL     OW12231  11.583   4.500   2.313
 3445SOL    HW112232  11.583   4.485   2.408
 3445SOL    HW212233  11.563   4.415   2.275
 3446SOL     OW12234   4.806   4.636  12.501
 3446SOL    HW112235   4.808   4.655  12.595
 3446SOL    HW212236   4.769   4.714  12.461
 3447SOL     OW12237  10.797   4.616   0.651
 3447SOL    HW112238  10.782   4.545   0.589
 3447SOL    HW212239  10.794   4.695   0.599
 3448SOL     OW12240   2.330   9.063  12.677
 3448SOL    HW112241   2.279   8.995  12.634
 3448SOL    HW212242   2.305   9.144  12.632
 3449SOL     OW12243   7.678   7.890   6.605
 3449SOL    HW112244   7.615   7.885   6.533
 3449SOL    HW212245   7.625   7.911   6.682
 3450SOL     OW12246   9.606  10.362   9.619
 3450SOL    HW112247   9.597  10.450   9.657
 3450SOL    HW212248   9.666  10.317   9.679
 3451SOL     OW12249   8.853  10.952  10.154
 3451SOL    HW112250   8.889  10.895  10.086
 3451SOL    HW212251   8.792  10.896  10.202
 3452SOL     OW12252   1.886   6.592   1.604
 3452SOL    HW112253   1.964   6.624   1.559
 3452SOL    HW212254   1.913   6.585   1.696
 3453SOL     OW12255  14.006   9.826   1.945
 3453SOL    HW112256  13.969   9.897   1.892
 3453SOL    HW212257  14.097   9.852   1.959
 3454SOL     OW12258   3.299   3.013   2.479
 3454SOL    HW112259   3.213   3.007   2.522
 3454SOL    HW212260   3.279   3.024   2.386
 3455SOL     OW12261  12.396   6.810   3.656
 3455SOL    HW112262  12.386   6.754   3.579
 3455SOL    HW212263  12.426   6.893   3.620
 3456SOL     OW12264   6.429   5.501   8.590
 3456SOL    HW112265   6.506   5.461   8.632
 3456SOL    HW212266   6.456   5.591   8.572
 3457SOL     OW12267   3.697   7.428   1.878
 3457SOL    HW112268   3.685   7.354   1.819
 3457SOL    HW212269   3.731   7.390   1.959
 3458SOL     OW12270   2.728   0.270   4.867
 3458SOL    HW112271   2.813   0.267   4.911
 3458SOL    HW212272   2.665   0.247   4.935
 3459SOL     OW12273  11.029   4.073   1.815
 3459SOL    HW112274  11.074   4.129   1.877
 3459SOL    HW212275  11.098   4.041   1.756
 3460SOL     OW12276   2.248   3.807  13.398
 3460SOL    HW112277   2.301   3.871  13.350
 3460SOL    HW212278   2.306   3.731  13.406
 3461SOL     OW12279   4.328   6.038   9.390
 3461SOL    HW112280   4.367   6.076   9.469
 3461SOL    HW212281   4.349   5.945   9.394
 3462SOL     OW12282   9.327   2.503   9.324
 3462SOL    HW112283   9.319   2.598   9.338
 3462SOL    HW212284   9.381   2.473   9.397
 3463SOL     OW12285   3.494  10.806   2.212
 3463SOL    HW112286   3.417  10.776   2.163
 3463SOL    HW212287   3.472  10.791   2.304
 3464SOL     OW12288   7.712   9.289   7.341
 3464SOL    HW112289   7.634   9.233   7.354
 3464SOL    HW212290   7.726   9.289   7.246
 3465SOL     OW12291  12.450   9.772   3.836
 3465SOL    HW112292  12.424   9.799   3.748
 3465SOL    HW212293  12.512   9.839   3.864
 3466SOL     OW12294   9.467  14.634   4.293
 3466SOL    HW112295   9.468  14.570   4.363
 3466SOL    HW212296   9.557  14.664   4.285
 3467SOL     OW12297   8.059   2.591   5.449
 3467SOL    HW112298   8.019   2.572   5.365
 3467SOL    HW212299   7.987   2.620   5.505
 3468SOL     OW12300   4.748  14.430  11.777
 3468SOL    HW112301   4.714  14.343  11.796
 3468SOL    HW212302   4.672  14.487  11.783
 3469SOL     OW12303   0.449   6.200  10.548
 3469SOL    HW112304   0.478   6.161  10.630
 3469SOL    HW212305   0.404   6.280  10.573
 3470SOL     OW12306   2.533  13.809   8.693
 3470SOL    HW112307   2.619  13.778   8.720
 3470SOL    HW212308   2.543  13.831   8.600
 3471SOL     OW12309   4.237  13.781  10.194
 3471SOL    HW112310   4.192  13.767  10.111
 3471SOL    HW212311   4.217  13.872  10.218
 3472SOL     OW12312   9.936   2.600   3.462
 3472SOL    HW112313   9.866   2.569   3.404
 3472SOL    HW212314   9.907   2.687   3.490
 3473SOL     OW12315   6.336  14.316   8.587
 3473SOL    HW112316   6.318  14.229   8.621
 3473SOL    HW212317   6.432  14.321   8.583
 3474SOL     OW12318   7.019   8.048  13.195
 3474SOL    HW112319   6.971   8.130  13.200
 3474SOL    HW212320   7.064   8.050  13.111
 3475SOL     OW12321   6.924   5.625   3.439
 3475SOL    HW112322   6.924   5.631   3.344
 3475SOL    HW212323   6.940   5.714   3.469
 3476SOL     OW12324   8.782   4.888   3.073
 3476SOL    HW112325   8.830   4.924   2.998
 3476SOL    HW212326   8.849   4.867   3.137
 3477SOL     OW12327   4.573  14.294   3.710
 3477SOL    HW112328   4.545  14.293   3.619
 3477SOL    HW212329   4.591  14.203   3.731
 3478SOL     OW12330  14.631  10.067   8.709
 3478SOL    HW112331  14.714  10.051   8.754
 3478SOL    HW212332  14.617   9.989   8.656
 3479SOL     OW12333   0.139  12.719  14.648
 3479SOL    HW112334   0.145  12.762  14.563
 3479SOL    HW212335   0.172  12.630  14.632
 3480SOL     OW12336   5.504   3.286   1.584
 3480SOL    HW112337   5.510   3.363   1.528
 3480SOL    HW212338   5.457   3.222   1.530
 3481SOL     OW12339  13.095  13.667  14.296
 3481SOL    HW112340  13.025  13.693  14.356
 3481SOL    HW212341  13.156  13.741  14.295
 3482SOL     OW12342   3.468   5.867   9.019
 3482SOL    HW112343   3.519   5.858   9.099
 3482SOL    HW212344   3.533   5.867   8.949
 3483SOL     OW12345   2.094   6.823   4.237
 3483SOL    HW112346   2.152   6.821   4.161
 3483SOL    HW212347   2.009   6.794   4.202
 3484SOL     OW12348   7.036  13.847   5.529
 3484SOL    HW112349   6.999  13.839   5.617
 3484SOL    HW212350   7.127  13.819   5.539
 3485SOL     OW12351  10.388  14.796  13.154
 3485SOL    HW112352  10.369   0.012  13.123
 3485SOL    HW212353  10.420  14.749  13.076
 3486SOL     OW12354   9.602  10.314   9.990
 3486SOL    HW112355   9.559  10.267  10.061
 3486SOL    HW212356   9.538  10.381   9.964
 3487SOL     OW12357   6.773   9.321   3.077
 3487SOL    HW112358   6.691   9.312   3.126
 3487SOL    HW212359   6.747   9.318   2.985
 3488SOL     OW12360   3.349   1.860  11.964
 3488SOL    HW112361   3.313   1.792  11.907
 3488SOL    HW212362   3.345   1.940  11.912
 3489SOL     OW12363   3.463   1.464  10.420
 3489SOL    HW112364   3.510   1.540  10.385
 3489SOL    HW212365   3.443   1.411  10.344
 3490SOL     OW12366  13.765  10.444   5.306
 3490SOL    HW112367  13.756  10.460   5.400
 3490SOL    HW212368  13.717  10.517   5.265
 3491SOL     OW12369  10.358  11.470   0.248
 3491SOL    HW112370  10.359  11.525   0.327
 3491SOL    HW212371  10.361  11.381   0.281
 3492SOL     OW12372   8.276   1.290   5.614
 3492SOL    HW112373   8.204   1.327   5.665
 3492SOL    HW212374   8.235   1.253   5.536
 3493SOL     OW12375  11.601  11.746   5.560
 3493SOL    HW112376  11.612  11.829   5.606
 3493SOL    HW212377  11.687  11.704   5.568
 3494SOL     OW12378   1.404   9.884   5.222
 3494SOL    HW112379   1.404   9.857   5.130
 3494SOL    HW212380   1.349   9.818   5.266
 3495SOL     OW12381   1.118   5.582   2.356
 3495SOL    HW112382   1.152   5.670   2.336
 3495SOL    HW212383   1.163   5.524   2.294
 3496SOL     OW12384   9.400   3.090  14.651
 3496SOL    HW112385   9.305   3.099  14.646
 3496SOL    HW212386   9.417   3.062  14.741
 3497SOL     OW12387   1.111   3.659   1.810
 3497SOL    HW112388   1.034   3.667   1.754
 3497SOL    HW212389   1.135   3.566   1.806
 3498SOL     OW12390   1.110   9.772   5.578
 3498SOL    HW112391   1.054   9.721   5.637
 3498SOL    HW212392   1.197   9.768   5.617
 3499SOL     OW12393   1.054   6.539   5.438
 3499SOL    HW112394   1.005   6.621   5.445
 3499SOL    HW212395   1.096   6.529   5.523
 3500SOL     OW12396   1.177   7.026   6.301
 3500SOL    HW112397   1.188   7.093   6.233
 3500SOL    HW212398   1.148   7.075   6.378
 3501SOL     OW12399  10.694  11.883  10.905
 3501SOL    HW112400  10.638  11.907  10.979
 3501SOL    HW212401  10.751  11.959  10.893
 3502SOL     OW12402   9.027  12.291  12.949
 3502SOL    HW112403   9.020  12.352  12.875
 3502SOL    HW212404   9.046  12.207  12.909
 3503SOL     OW12405   0.307   4.518   0.624
 3503SOL    HW112406   0.219   4.481   0.615
 3503SOL    HW212407   0.334   4.534   0.533
 3504SOL     OW12408   3.128   3.739   2.630
 3504SOL    HW112409   3.222   3.723   2.626
 3504SOL    HW212410   3.102   3.748   2.538
 3505SOL     OW12411   9.279   9.715  14.451
 3505SOL    HW112412   9.228   9.796  14.450
 3505SOL    HW212413   9.338   9.722  14.376
 3506SOL     OW12414  14.683   4.988   2.892
 3506SOL    HW112415  14.654   5.056   2.830
 3506SOL    HW212416  14.698   4.911   2.838
 3507SOL     OW12417   2.613   2.357  13.641
 3507SOL    HW112418   2.692   2.409  13.628
 3507SOL    HW212419   2.541   2.416  13.616
 3508SOL     OW12420   7.778  10.462  12.952
 3508SOL    HW112421   7.807  10.547  12.983
 3508SOL    HW212422   7.701  10.480  12.898
 3509SOL     OW12423   9.783   6.654  10.975
 3509SOL    HW112424   9.814   6.711  11.046
 3509SOL    HW212425   9.772   6.568  11.016
 3510SOL     OW12426   6.000   2.958  12.350
 3510SOL    HW112427   5.983   2.864  12.358
 3510SOL    HW212428   5.997   2.991  12.439
 3511SOL     OW12429   2.760   3.004   7.014
 3511SOL    HW112430   2.828   2.990   6.948
 3511SOL    HW212431   2.790   2.955   7.090
 3512SOL     OW12432   9.563   3.625   4.068
 3512SOL    HW112433   9.470   3.647   4.063
 3512SOL    HW212434   9.565   3.535   4.101
 3513SOL     OW12435  12.914  12.780   4.471
 3513SOL    HW112436  12.943  12.792   4.381
 3513SOL    HW212437  12.995  12.778   4.522
 3514SOL     OW12438   5.109  10.420  11.601
 3514SOL    HW112439   5.054  10.460  11.668
 3514SOL    HW212440   5.106  10.326  11.621
 3515SOL     OW12441  14.391   7.603   5.717
 3515SOL    HW112442  14.319   7.542   5.701
 3515SOL    HW212443  14.433   7.613   5.631
 3516SOL     OW12444   2.107  10.051  12.012
 3516SOL    HW112445   2.102  10.044  11.916
 3516SOL    HW212446   2.029  10.004  12.043
 3517SOL     OW12447   2.970   7.600   6.510
 3517SOL    HW112448   3.028   7.524   6.505
 3517SOL    HW212449   2.967   7.622   6.603
 3518SOL     OW12450  11.463  11.972   5.305
 3518SOL    HW112451  11.399  11.956   5.236
 3518SOL    HW212452  11.482  12.065   5.299
 3519SOL     OW12453   6.521   3.611  13.477
 3519SOL    HW112454   6.468   3.531  13.483
 3519SOL    HW212455   6.534   3.625  13.384
 3520SOL     OW12456  13.587  12.897  11.699
 3520SOL    HW112457  13.680  12.884  11.715
 3520SOL    HW212458  13.563  12.828  11.638
 3521SOL     OW12459   4.949   3.646   8.431
 3521SOL    HW112460   4.879   3.659   8.367
 3521SOL    HW212461   4.985   3.733   8.445
 3522SOL     OW12462   2.637   2.174   3.414
 3522SOL    HW112463   2.544   2.157   3.398
 3522SOL    HW212464   2.683   2.116   3.353
 3523SOL     OW12465  14.145   8.974   4.805
 3523SOL    HW112466  14.053   8.998   4.793
 3523SOL    HW212467  14.192   9.027   4.740
 3524SOL     OW12468   9.842   2.738   7.577
 3524SOL    HW112469   9.811   2.773   7.494
 3524SOL    HW212470   9.868   2.648   7.557
 3525SOL     OW12471   6.101   4.488   2.206
 3525SOL    HW112472   6.174   4.490   2.268
 3525SOL    HW212473   6.068   4.398   2.212
 3526SOL     OW12474   0.514  12.618  10.213
 3526SOL    HW112475   0.603  12.596  10.240
 3526SOL    HW212476   0.518  12.623  10.118
 3527SOL     OW12477   3.113   0.172  10.007
 3527SOL    HW112478   3.136   0.132  10.090
 3527SOL    HW212479   3.127   0.103   9.942
 3528SOL     OW12480   8.177  13.052  12.563
 3528SOL    HW112481   8.093  13.038  12.520
 3528SOL    HW212482   8.230  13.097  12.498
 3529SOL     OW12483  14.446   6.477   5.437
 3529SOL    HW112484  14.525   6.435   5.402
 3529SOL    HW212485  14.443   6.562   5.393
 3530SOL     OW12486  12.608   0.513   0.129
 3530SOL    HW112487  12.548   0.477   0.195
 3530SOL    HW212488  12.608   0.449   0.058
 3531SOL     OW12489   9.065   1.047  12.353
 3531SOL    HW112490   9.016   1.087  12.281
 3531SOL    HW212491   9.087   0.960  12.320
 3532SOL     OW12492  10.923   3.384   7.508
 3532SOL    HW112493  10.927   3.446   7.580
 3532SOL    HW212494  11.011   3.383   7.472
 3533SOL     OW12495   7.912  12.743  12.906
 3533SOL    HW112496   7.907  12.836  12.928
 3533SOL    HW212497   7.936  12.742  12.813
 3534SOL     OW12498   2.683   3.837   2.787
 3534SOL    HW112499   2.765   3.834   2.738
 3534SOL    HW212500   2.703   3.886   2.867
 3535SOL     OW12501   4.253   6.421   2.802
 3535SOL    HW112502   4.162   6.391   2.811
 3535SOL    HW212503   4.300   6.374   2.871
 3536SOL     OW12504  12.447  13.275  12.272
 3536SOL    HW112505  12.492  13.317  12.198
 3536SOL    HW212506  12.373  13.333  12.290
 3537SOL     OW12507   0.968  10.868   1.941
 3537SOL    HW112508   0.997  10.897   1.855
 3537SOL    HW212509   0.928  10.945   1.981
 3538SOL     OW12510   5.178  14.175   1.465
 3538SOL    HW112511   5.136  14.118   1.401
 3538SOL    HW212512   5.270  14.180   1.436
 3539SOL     OW12513   3.719   6.680   7.994
 3539SOL    HW112514   3.680   6.667   7.908
 3539SOL    HW212515   3.723   6.592   8.031
 3540SOL     OW12516  13.352   2.016   8.874
 3540SOL    HW112517  13.434   1.972   8.898
 3540SOL    HW212518  13.347   2.005   8.779
 3541SOL     OW12519   4.028  12.657   7.449
 3541SOL    HW112520   4.073  12.736   7.419
 3541SOL    HW212521   3.944  12.659   7.404
 3542SOL     OW12522   1.608   3.117   9.261
 3542SOL    HW112523   1.575   3.206   9.246
 3542SOL    HW212524   1.667   3.126   9.336
 3543SOL     OW12525   1.560   7.435   8.520
 3543SOL    HW112526   1.635   7.491   8.499
 3543SOL    HW212527   1.585   7.349   8.486
 3544SOL     OW12528   6.891  11.621   9.220
 3544SOL    HW112529   6.826  11.688   9.239
 3544SOL    HW212530   6.928  11.598   9.305
 3545SOL     OW12531  14.807   6.505   1.105
 3545SOL    HW112532   0.007   6.480   1.163
 3545SOL    HW212533  14.766   6.422   1.079
 3546SOL     OW12534   9.273   4.814   6.338
 3546SOL    HW112535   9.190   4.767   6.326
 3546SOL    HW212536   9.275   4.836   6.432
 3547SOL     OW12537   3.872  13.975   4.334
 3547SOL    HW112538   3.812  13.987   4.407
 3547SOL    HW212539   3.903  14.063   4.313
 3548SOL     OW12540  14.844   5.825  11.743
 3548SOL    HW112541   0.053   5.788  11.708
 3548SOL    HW212542  14.869   5.911  11.776
 3549SOL     OW12543   3.483   6.827  13.554
 3549SOL    HW112544   3.459   6.832  13.461
 3549SOL    HW212545   3.574   6.799  13.553
 3550SOL     OW12546   3.081   3.597   7.459
 3550SOL    HW112547   3.125   3.680   7.479
 3550SOL    HW212548   3.120   3.568   7.377
 3551SOL     OW12549   2.779   4.238  11.084
 3551SOL    HW112550   2.797   4.156  11.129
 3551SOL    HW212551   2.843   4.240  11.012
 3552SOL     OW12552  14.525   1.924   2.106
 3552SOL    HW112553  14.536   2.000   2.049
 3552SOL    HW212554  14.460   1.952   2.171
 3553SOL     OW12555   4.013   8.833   8.174
 3553SOL    HW112556   4.095   8.859   8.216
 3553SOL    HW212557   4.034   8.830   8.080
 3554SOL     OW12558  12.652  12.930   4.011
 3554SOL    HW112559  12.639  12.915   4.105
 3554SOL    HW212560  12.565  12.914   3.973
 3555SOL     OW12561  13.004   1.506   1.008
 3555SOL    HW112562  13.076   1.472   0.955
 3555SOL    HW212563  13.043   1.579   1.056
 3556SOL     OW12564   5.814   8.845  10.369
 3556SOL    HW112565   5.806   8.830  10.275
 3556SOL    HW212566   5.868   8.772  10.401
 3557SOL     OW12567   0.001  12.196   2.199
 3557SOL    HW112568   0.005  12.233   2.110
 3557SOL    HW212569  14.834  12.110   2.187
 3558SOL     OW12570  13.951  10.582  10.162
 3558SOL    HW112571  13.989  10.589  10.250
 3558SOL    HW212572  14.025  10.597  10.104
 3559SOL     OW12573   5.044   0.907   2.001
 3559SOL    HW112574   4.956   0.933   2.028
 3559SOL    HW212575   5.102   0.962   2.053
 3560SOL     OW12576   8.076   1.598   5.422
 3560SOL    HW112577   8.145   1.602   5.356
 3560SOL    HW212578   8.002   1.558   5.377
 3561SOL     OW12579   3.532   0.674   9.252
 3561SOL    HW112580   3.510   0.684   9.345
 3561SOL    HW212581   3.477   0.601   9.223
 3562SOL     OW12582   8.136  10.485   1.169
 3562SOL    HW112583   8.182  10.556   1.125
 3562SOL    HW212584   8.073  10.453   1.104
 3563SOL     OW12585  10.129   7.800  12.777
 3563SOL    HW112586  10.161   7.742  12.846
 3563SOL    HW212587  10.105   7.741  12.705
 3564SOL     OW12588   3.959   9.812   4.530
 3564SOL    HW112589   3.905   9.862   4.469
 3564SOL    HW212590   4.038   9.865   4.541
 3565SOL     OW12591   4.351  13.294   2.893
 3565SOL    HW112592   4.409  13.255   2.827
 3565SOL    HW212593   4.267  13.304   2.848
 3566SOL     OW12594  10.193  13.919  14.840
 3566SOL    HW112595  10.126  13.872   0.018
 3566SOL    HW212596  10.200  14.003   0.013
 3567SOL     OW12597  12.566  12.648   5.508
 3567SOL    HW112598  12.492  12.639   5.569
 3567SOL    HW212599  12.642  12.619   5.558
 3568SOL     OW12600   2.705   7.431  11.610
 3568SOL    HW112601   2.643   7.473  11.550
 3568SOL    HW212602   2.758   7.503  11.643
 3569SOL     OW12603  11.068   2.375  13.687
 3569SOL    HW112604  11.147   2.356  13.636
 3569SOL    HW212605  11.012   2.424  13.626
 3570SOL     OW12606   1.659  14.731   7.015
 3570SOL    HW112607   1.587  14.689   6.967
 3570SOL    HW212608   1.632  14.727   7.107
 3571SOL     OW12609   8.341  14.616   5.713
 3571SOL    HW112610   8.378  14.647   5.795
 3571SOL    HW212611   8.298  14.534   5.735
 3572SOL     OW12612  10.718   5.326   2.201
 3572SOL    HW112613  10.666   5.394   2.243
 3572SOL    HW212614  10.788   5.307   2.263
 3573SOL     OW12615   0.574   0.376   3.378
 3573SOL    HW112616   0.505   0.441   3.392
 3573SOL    HW212617   0.655   0.427   3.375
 3574SOL     OW12618   7.960   5.759   3.912
 3574SOL    HW112619   7.946   5.800   3.997
 3574SOL    HW212620   7.984   5.669   3.932
 3575SOL     OW12621   7.601   1.140   9.558
 3575SOL    HW112622   7.562   1.217   9.517
 3575SOL    HW212623   7.649   1.175   9.633
 3576SOL     OW12624   9.812  13.614   9.791
 3576SOL    HW112625   9.855  13.611   9.877
 3576SOL    HW212626   9.735  13.670   9.806
 3577SOL     OW12627   7.654   5.126  11.345
 3577SOL    HW112628   7.587   5.060  11.362
 3577SOL    HW212629   7.709   5.126  11.423
 3578SOL     OW12630   0.834   1.933   7.785
 3578SOL    HW112631   0.871   1.903   7.702
 3578SOL    HW212632   0.757   1.877   7.799
 3579SOL     OW12633   4.316   6.803  13.161
 3579SOL    HW112634   4.226   6.778  13.138
 3579SOL    HW212635   4.346   6.732  13.218
 3580SOL     OW12636   8.736   6.820  13.753
 3580SOL    HW112637   8.661   6.780  13.707
 3580SOL    HW212638   8.697   6.890  13.805
 3581SOL     OW12639  12.205  12.237   9.612
 3581SOL    HW112640  12.187  12.319   9.566
 3581SOL    HW212641  12.164  12.248   9.698
 3582SOL     OW12642   8.594   4.009   7.859
 3582SOL    HW112643   8.539   4.073   7.814
 3582SOL    HW212644   8.668   3.995   7.799
 3583SOL     OW12645   5.963   6.101  11.339
 3583SOL    HW112646   5.927   6.034  11.397
 3583SOL    HW212647   5.957   6.182  11.389
 3584SOL     OW12648  10.168   5.617   2.486
 3584SOL    HW112649  10.178   5.573   2.571
 3584SOL    HW212650  10.095   5.678   2.499
 3585SOL     OW12651  11.264  12.191   8.730
 3585SOL    HW112652  11.333  12.126   8.739
 3585SOL    HW212653  11.287  12.241   8.651
 3586SOL     OW12654   3.489   1.181  12.288
 3586SOL    HW112655   3.425   1.251  12.274
 3586SOL    HW212656   3.495   1.138  12.203
 3587SOL     OW12657   8.520  12.047   8.059
 3587SOL    HW112658   8.482  12.086   7.980
 3587SOL    HW212659   8.445  12.017   8.110
 3588SOL     OW12660   7.409   9.202  10.253
 3588SOL    HW112661   7.464   9.129  10.225
 3588SOL    HW212662   7.438   9.276  10.199
 3589SOL     OW12663   5.464  13.837   3.807
 3589SOL    HW112664   5.544  13.851   3.857
 3589SOL    HW212665   5.407  13.789   3.866
 3590SOL     OW12666   1.020   3.933   3.909
 3590SOL    HW112667   0.993   4.017   3.946
 3590SOL    HW212668   1.096   3.907   3.962
 3591SOL     OW12669   8.702   4.963  14.376
 3591SOL    HW112670   8.700   5.026  14.305
 3591SOL    HW212671   8.795   4.945  14.391
 3592SOL     OW12672  12.417   4.036  10.103
 3592SOL    HW112673  12.477   4.053  10.175
 3592SOL    HW212674  12.377   4.121  10.085
 3593SOL     OW12675   2.757   2.365  11.643
 3593SOL    HW112676   2.723   2.394  11.727
 3593SOL    HW212677   2.800   2.442  11.606
 3594SOL     OW12678  12.214   9.426   4.247
 3594SOL    HW112679  12.136   9.371   4.243
 3594SOL    HW212680  12.180   9.516   4.253
 3595SOL     OW12681   5.394   6.951   4.579
 3595SOL    HW112682   5.487   6.973   4.570
 3595SOL    HW212683   5.376   6.892   4.506
 3596SOL     OW12684  12.629   5.023   5.449
 3596SOL    HW112685  12.600   4.942   5.408
 3596SOL    HW212686  12.613   5.090   5.382
 3597SOL     OW12687  13.368   6.277   7.848
 3597SOL    HW112688  13.323   6.350   7.806
 3597SOL    HW212689  13.409   6.229   7.776
 3598SOL     OW12690   1.999   0.655   5.995
 3598SOL    HW112691   1.907   0.676   6.005
 3598SOL    HW212692   2.002   0.590   5.924
 3599SOL     OW12693  13.653   0.359   8.612
 3599SOL    HW112694  13.743   0.377   8.638
 3599SOL    HW212695  13.648   0.387   8.521
 3600SOL     OW12696   2.799   9.976   4.593
 3600SOL    HW112697   2.883   9.964   4.548
 3600SOL    HW212698   2.822  10.020   4.676
 3601SOL     OW12699  14.357  11.056  12.388
 3601SOL    HW112700  14.393  11.136  12.349
 3601SOL    HW212701  14.300  11.020  12.320
 3602SOL     OW12702   9.078  11.102   0.485
 3602SOL    HW112703   9.012  11.046   0.444
 3602SOL    HW212704   9.065  11.188   0.446
 3603SOL     OW12705   5.609   1.217   7.977
 3603SOL    HW112706   5.535   1.180   8.026
 3603SOL    HW212707   5.642   1.287   8.033
 3604SOL     OW12708   9.219   4.804  12.854
 3604SOL    HW112709   9.282   4.751  12.903
 3604SOL    HW212710   9.194   4.874  12.914
 3605SOL     OW12711   8.002   3.374  10.639
 3605SOL    HW112712   7.912   3.406  10.627
 3605SOL    HW212713   7.998   3.282  10.614
 3606SOL     OW12714  14.671   1.502   7.314
 3606SOL    HW112715  14.643   1.593   7.318
 3606SOL    HW212716  14.692   1.487   7.222
 3607SOL     OW12717   4.295   7.639   6.602
 3607SOL    HW112718   4.210   7.665   6.567
 3607SOL    HW212719   4.288   7.656   6.696
 3608SOL     OW12720  13.673   4.921  13.337
 3608SOL    HW112721  13.714   4.852  13.284
 3608SOL    HW212722  13.744   4.951  13.394
 3609SOL     OW12723   2.637  14.381   8.933
 3609SOL    HW112724   2.709  14.346   8.880
 3609SOL    HW212725   2.626  14.317   9.003
 3610SOL     OW12726  13.123   1.544  11.786
 3610SOL    HW112727  13.111   1.566  11.879
 3610SOL    HW212728  13.168   1.619  11.749
 3611SOL     OW12729  12.960   8.794  11.723
 3611SOL    HW112730  12.891   8.778  11.787
 3611SOL    HW212731  13.033   8.829  11.775
 3612SOL     OW12732   4.961   2.213  11.734
 3612SOL    HW112733   5.022   2.223  11.661
 3612SOL    HW212734   4.915   2.296  11.739
 3613SOL     OW12735   5.531  11.444   5.575
 3613SOL    HW112736   5.586  11.456   5.653
 3613SOL    HW212737   5.533  11.529   5.532
 3614SOL     OW12738   5.192  14.485   7.768
 3614SOL    HW112739   5.200  14.410   7.828
 3614SOL    HW212740   5.180  14.446   7.682
 3615SOL     OW12741   2.318   4.370   8.687
 3615SOL    HW112742   2.344   4.325   8.767
 3615SOL    HW212743   2.223   4.358   8.683
 3616SOL     OW12744  12.522   7.336   6.156
 3616SOL    HW112745  12.475   7.419   6.158
 3616SOL    HW212746  12.549   7.326   6.065
 3617SOL     OW12747  11.894   5.579   2.716
 3617SOL    HW112748  11.958   5.511   2.692
 3617SOL    HW212749  11.812   5.531   2.726
 3618SOL     OW12750   6.142   0.689   3.779
 3618SOL    HW112751   6.169   0.694   3.687
 3618SOL    HW212752   6.141   0.780   3.808
 3619SOL     OW12753  10.833  13.408   1.026
 3619SOL    HW112754  10.904  13.357   0.986
 3619SOL    HW212755  10.757  13.390   0.971
 3620SOL     OW12756   9.785   6.047  14.261
 3620SOL    HW112757   9.705   6.040  14.312
 3620SOL    HW212758   9.825   6.128  14.290
 3621SOL     OW12759   5.089   8.213  14.608
 3621SOL    HW112760   5.011   8.234  14.557
 3621SOL    HW212761   5.138   8.295  14.612
 3622SOL     OW12762   3.701  12.360   3.791
 3622SOL    HW112763   3.777  12.309   3.762
 3622SOL    HW212764   3.636  12.294   3.816
 3623SOL     OW12765   8.303   3.383   5.440
 3623SOL    HW112766   8.234   3.377   5.374
 3623SOL    HW212767   8.352   3.301   5.431
 3624SOL     OW12768   2.231   3.532   3.072
 3624SOL    HW112769   2.266   3.527   3.161
 3624SOL    HW212770   2.143   3.569   3.083
 3625SOL     OW12771  10.897   6.027   1.705
 3625SOL    HW112772  10.806   6.030   1.734
 3625SOL    HW212773  10.892   6.018   1.610
 3626SOL     OW12774  14.366  14.795   2.733
 3626SOL    HW112775  14.287  14.835   2.695
 3626SOL    HW212776  14.427  14.868   2.741
 3627SOL     OW12777   9.089   0.955   5.109
 3627SOL    HW112778   9.055   0.970   5.021
 3627SOL    HW212779   9.151   1.027   5.124
 3628SOL     OW12780  11.271   4.473  13.448
 3628SOL    HW112781  11.359   4.491  13.414
 3628SOL    HW212782  11.275   4.382  13.477
 3629SOL     OW12783   2.613  10.076  14.837
 3629SOL    HW112784   2.615  10.156   0.018
 3629SOL    HW212785   2.653  10.010   0.022
 3630SOL     OW12786   1.926   6.813   4.004
 3630SOL    HW112787   1.932   6.818   3.909
 3630SOL    HW212788   1.917   6.905   4.032
 3631SOL     OW12789   0.053   9.660  11.209
 3631SOL    HW112790   0.009   9.671  11.125
 3631SOL    HW212791   0.147   9.662  11.188
 3632SOL     OW12792   2.395   6.145   4.267
 3632SOL    HW112793   2.439   6.172   4.348
 3632SOL    HW212794   2.378   6.051   4.280
 3633SOL     OW12795   5.488   2.651   0.290
 3633SOL    HW112796   5.545   2.663   0.366
 3633SOL    HW212797   5.494   2.557   0.271
 3634SOL     OW12798   1.847   3.707   2.287
 3634SOL    HW112799   1.821   3.790   2.247
 3634SOL    HW212800   1.800   3.705   2.371
 3635SOL     OW12801  12.696   0.700  12.724
 3635SOL    HW112802  12.666   0.780  12.767
 3635SOL    HW212803  12.661   0.706  12.635
 3636SOL     OW12804   1.878   5.933   9.150
 3636SOL    HW112805   1.871   5.964   9.240
 3636SOL    HW212806   1.803   5.875   9.138
 3637SOL     OW12807  13.772  13.614   0.908
 3637SOL    HW112808  13.688  13.612   0.953
 3637SOL    HW212809  13.802  13.704   0.919
 3638SOL     OW12810   2.392   8.624  10.888
 3638SOL    HW112811   2.410   8.548  10.832
 3638SOL    HW212812   2.437   8.696  10.845
 3639SOL     OW12813   4.104  11.223   6.028
 3639SOL    HW112814   4.028  11.215   5.969
 3639SOL    HW212815   4.068  11.211   6.116
 3640SOL     OW12816   5.835  14.727   7.807
 3640SOL    HW112817   5.774  14.757   7.875
 3640SOL    HW212818   5.840  14.633   7.820
 3641SOL     OW12819   8.322   3.308   2.614
 3641SOL    HW112820   8.295   3.317   2.522
 3641SOL    HW212821   8.377   3.384   2.630
 3642SOL     OW12822   4.134   1.971   7.183
 3642SOL    HW112823   4.065   1.947   7.245
 3642SOL    HW212824   4.087   2.004   7.106
 3643SOL     OW12825   5.118  11.720   0.426
 3643SOL    HW112826   5.159  11.659   0.364
 3643SOL    HW212827   5.151  11.806   0.401
 3644SOL     OW12828  11.510   0.335   9.043
 3644SOL    HW112829  11.590   0.339   8.991
 3644SOL    HW212830  11.439   0.326   8.979
 3645SOL     OW12831   2.865  13.367   3.797
 3645SOL    HW112832   2.921  13.430   3.842
 3645SOL    HW212833   2.825  13.316   3.867
 3646SOL     OW12834   5.804  13.611  10.738
 3646SOL    HW112835   5.822  13.679  10.804
 3646SOL    HW212836   5.817  13.529  10.784
 3647SOL     OW12837   4.271   8.858   5.841
 3647SOL    HW112838   4.313   8.799   5.777
 3647SOL    HW212839   4.233   8.799   5.906
 3648SOL     OW12840  11.241   5.477   0.852
 3648SOL    HW112841  11.282   5.525   0.780
 3648SOL    HW212842  11.260   5.385   0.832
 3649SOL     OW12843   6.899   6.826  10.741
 3649SOL    HW112844   6.880   6.764  10.671
 3649SOL    HW212845   6.994   6.838  10.738
 3650SOL     OW12846  11.212   9.944   4.918
 3650SOL    HW112847  11.276   9.920   4.851
 3650SOL    HW212848  11.198  10.038   4.906
 3651SOL     OW12849   4.783  14.055  10.414
 3651SOL    HW112850   4.761  14.038  10.322
 3651SOL    HW212851   4.722  14.124  10.440
 3652SOL     OW12852   2.246  10.458  10.546
 3652SOL    HW112853   2.221  10.542  10.509
 3652SOL    HW212854   2.175  10.436  10.606
 3653SOL     OW12855  14.317  12.268   5.142
 3653SOL    HW112856  14.269  12.187   5.127
 3653SOL    HW212857  14.273  12.333   5.087
 3654SOL     OW12858  13.792  12.263   8.193
 3654SOL    HW112859  13.841  12.221   8.263
 3654SOL    HW212860  13.735  12.194   8.159
 3655SOL     OW12861   7.719  14.184  12.054
 3655SOL    HW112862   7.716  14.279  12.064
 3655SOL    HW212863   7.699  14.169  11.961
 3656SOL     OW12864  12.908  12.584  10.456
 3656SOL    HW112865  12.831  12.639  10.441
 3656SOL    HW212866  12.959  12.631  10.522
 3657SOL     OW12867  14.274  12.726   5.398
 3657SOL    HW112868  14.240  12.640   5.376
 3657SOL    HW212869  14.224  12.786   5.342
 3658SOL     OW12870   4.500   6.753  12.087
 3658SOL    HW112871   4.408   6.746  12.061
 3658SOL    HW212872   4.519   6.847  12.081
 3659SOL     OW12873   3.095   2.876  14.041
 3659SOL    HW112874   3.042   2.805  14.007
 3659SOL    HW212875   3.184   2.857  14.010
 3660SOL     OW12876   2.394  13.459  13.937
 3660SOL    HW112877   2.431  13.409  13.864
 3660SOL    HW212878   2.419  13.411  14.015
 3661SOL     OW12879   1.330  13.441   4.616
 3661SOL    HW112880   1.338  13.356   4.574
 3661SOL    HW212881   1.413  13.485   4.598
 3662SOL     OW12882   5.863   4.688  13.104
 3662SOL    HW112883   5.863   4.770  13.153
 3662SOL    HW212884   5.881   4.621  13.170
 3663SOL     OW12885   6.696  11.807   1.583
 3663SOL    HW112886   6.726  11.769   1.666
 3663SOL    HW212887   6.674  11.897   1.605
 3664SOL     OW12888   6.510  12.270  11.855
 3664SOL    HW112889   6.554  12.221  11.785
 3664SOL    HW212890   6.498  12.206  11.926
 3665SOL     OW12891   6.626  10.991   7.830
 3665SOL    HW112892   6.656  10.901   7.843
 3665SOL    HW212893   6.532  10.988   7.849
 3666SOL     OW12894   5.309   1.352   9.854
 3666SOL    HW112895   5.399   1.381   9.863
 3666SOL    HW212896   5.311   1.286   9.785
 3667SOL     OW12897   9.999   7.413   5.378
 3667SOL    HW112898   9.908   7.416   5.348
 3667SOL    HW212899  10.039   7.491   5.338
 3668SOL     OW12900  12.054   2.375  10.740
 3668SOL    HW112901  12.067   2.346  10.650
 3668SOL    HW212902  12.090   2.464  10.742
 3669SOL     OW12903  14.807   3.938  13.251
 3669SOL    HW112904  14.719   3.963  13.221
 3669SOL    HW212905  14.860   4.016  13.236
 3670SOL     OW12906   1.529   1.375  10.952
 3670SOL    HW112907   1.576   1.293  10.968
 3670SOL    HW212908   1.461   1.377  11.020
 3671SOL     OW12909   5.358   0.840   6.066
 3671SOL    HW112910   5.305   0.798   5.998
 3671SOL    HW212911   5.425   0.888   6.017
 3672SOL     OW12912  10.022  10.855   8.053
 3672SOL    HW112913  10.082  10.909   8.001
 3672SOL    HW212914   9.994  10.913   8.124
 3673SOL     OW12915  11.011   5.726   1.003
 3673SOL    HW112916  10.926   5.742   1.044
 3673SOL    HW212917  10.993   5.663   0.934
 3674SOL     OW12918  11.282   7.412   3.773
 3674SOL    HW112919  11.208   7.353   3.784
 3674SOL    HW212920  11.262   7.463   3.695
 3675SOL     OW12921   0.769   7.936  14.339
 3675SOL    HW112922   0.748   7.848  14.369
 3675SOL    HW212923   0.686   7.971  14.307
 3676SOL     OW12924   5.834   6.507   7.520
 3676SOL    HW112925   5.741   6.488   7.511
 3676SOL    HW212926   5.837   6.582   7.580
 3677SOL     OW12927  10.507   8.078  14.145
 3677SOL    HW112928  10.569   8.138  14.104
 3677SOL    HW212929  10.441   8.062  14.079
 3678SOL     OW12930   8.404   8.392  14.576
 3678SOL    HW112931   8.340   8.327  14.548
 3678SOL    HW212932   8.409   8.454  14.503
 3679SOL     OW12933   7.299  12.829   0.130
 3679SOL    HW112934   7.251  12.910   0.113
 3679SOL    HW212935   7.389  12.857   0.148
 3680SOL     OW12936   3.624   2.729   9.537
 3680SOL    HW112937   3.599   2.803   9.592
 3680SOL    HW212938   3.716   2.712   9.559
 3681SOL     OW12939   7.943   0.977   0.440
 3681SOL    HW112940   7.975   0.935   0.361
 3681SOL    HW212941   7.850   0.957   0.442
 3682SOL     OW12942  11.836   0.895   8.595
 3682SOL    HW112943  11.902   0.878   8.528
 3682SOL    HW212944  11.753   0.886   8.550
 3683SOL     OW12945   9.169   1.104   5.428
 3683SOL    HW112946   9.178   1.143   5.341
 3683SOL    HW212947   9.175   1.179   5.488
 3684SOL     OW12948   9.794   6.052   9.388
 3684SOL    HW112949   9.887   6.055   9.365
 3684SOL    HW212950   9.752   6.015   9.310
 3685SOL     OW12951   3.640   3.579  12.293
 3685SOL    HW112952   3.610   3.625  12.214
 3685SOL    HW212953   3.716   3.529  12.263
 3686SOL     OW12954   9.678  13.077  14.763
 3686SOL    HW112955   9.748  13.142  14.764
 3686SOL    HW212956   9.602  13.125  14.729
 3687SOL     OW12957  10.317   1.800   3.191
 3687SOL    HW112958  10.389   1.831   3.135
 3687SOL    HW212959  10.360   1.756   3.264
 3688SOL     OW12960   7.925   5.814   6.503
 3688SOL    HW112961   7.830   5.812   6.515
 3688SOL    HW212962   7.937   5.805   6.408
 3689SOL     OW12963   9.864   4.205   2.026
 3689SOL    HW112964   9.852   4.136   1.962
 3689SOL    HW212965   9.958   4.223   2.026
 3690SOL     OW12966   2.722   0.737  14.126
 3690SOL    HW112967   2.641   0.716  14.081
 3690SOL    HW212968   2.711   0.827  14.156
 3691SOL     OW12969   4.360   7.958  14.533
 3691SOL    HW112970   4.326   7.891  14.474
 3691SOL    HW212971   4.454   7.959  14.517
 3692SOL     OW12972   8.488   2.467  11.973
 3692SOL    HW112973   8.583   2.483  11.974
 3692SOL    HW212974   8.478   2.380  12.011
 3693SOL     OW12975   1.134   6.573   0.134
 3693SOL    HW112976   1.178   6.628   0.200
 3693SOL    HW212977   1.191   6.577   0.058
 3694SOL     OW12978   1.620  13.140  13.424
 3694SOL    HW112979   1.592  13.153  13.514
 3694SOL    HW212980   1.621  13.227  13.385
 3695SOL     OW12981  10.075   3.203   3.879
 3695SOL    HW112982  10.099   3.272   3.817
 3695SOL    HW212983   9.992   3.233   3.917
 3696SOL     OW12984  13.992   1.715   4.393
 3696SOL    HW112985  13.938   1.782   4.435
 3696SOL    HW212986  13.929   1.659   4.348
 3697SOL     OW12987   5.803   0.670  13.619
 3697SOL    HW112988   5.781   0.672  13.526
 3697SOL    HW212989   5.846   0.754  13.635
 3698SOL     OW12990   4.432   4.811   0.983
 3698SOL    HW112991   4.384   4.810   1.066
 3698SOL    HW212992   4.502   4.875   0.997
 3699SOL     OW12993  11.884   1.463  10.146
 3699SOL    HW112994  11.906   1.395  10.083
 3699SOL    HW212995  11.887   1.545  10.096
 3700SOL     OW12996   0.647   7.288   2.230
 3700SOL    HW112997   0.603   7.339   2.298
 3700SOL    HW212998   0.738   7.282   2.259
 3701SOL     OW12999   6.676   4.696   8.608
 3701SOL    HW113000   6.633   4.740   8.681
 3701SOL    HW213001   6.628   4.614   8.597
 3702SOL     OW13002   9.174  10.656   5.732
 3702SOL    HW113003   9.204  10.726   5.790
 3702SOL    HW213004   9.178  10.695   5.644
 3703SOL     OW13005   5.511  12.831  13.056
 3703SOL    HW113006   5.443  12.816  13.122
 3703SOL    HW213007   5.542  12.744  13.033
 3704SOL     OW13008  14.085   9.638  13.097
 3704SOL    HW113009  14.105   9.552  13.062
 3704SOL    HW213010  14.091   9.628  13.192
 3705SOL     OW13011   6.571  14.784  13.078
 3705SOL    HW113012   6.594  14.810  13.167
 3705SOL    HW213013   6.629  14.711  13.058
 3706SOL     OW13014  11.587  11.944   7.460
 3706SOL    HW113015  11.499  11.981   7.463
 3706SOL    HW213016  11.646  12.018   7.475
 3707SOL     OW13017   7.243   7.832  11.232
 3707SOL    HW113018   7.320   7.888  11.238
 3707SOL    HW213019   7.196   7.865  11.155
 3708SOL     OW13020  10.239   5.846  11.104
 3708SOL    HW113021  10.323   5.852  11.151
 3708SOL    HW213022  10.232   5.929  11.056
 3709SOL     OW13023   7.900  14.502  14.184
 3709SOL    HW113024   7.848  14.573  14.221
 3709SOL    HW213025   7.984  14.543  14.162
 3710SOL     OW13026   0.429  10.939  11.720
 3710SOL    HW113027   0.398  10.965  11.633
 3710SOL    HW213028   0.463  10.850  11.707
 3711SOL     OW13029  10.439   0.712   4.564
 3711SOL    HW113030  10.494   0.783   4.596
 3711SOL    HW213031  10.467   0.699   4.473
 3712SOL     OW13032   5.488  10.321   5.659
 3712SOL    HW113033   5.463  10.230   5.672
 3712SOL    HW213034   5.514  10.352   5.746
 3713SOL     OW13035   9.083   4.087   0.636
 3713SOL    HW113036   9.074   4.181   0.650
 3713SOL    HW213037   8.996   4.058   0.610
 3714SOL     OW13038   9.905   5.475   2.858
 3714SOL    HW113039   9.840   5.437   2.799
 3714SOL    HW213040   9.854   5.502   2.935
 3715SOL     OW13041   7.185  14.414   8.411
 3715SOL    HW113042   7.277  14.395   8.392
 3715SOL    HW213043   7.140  14.332   8.393
 3716SOL     OW13044   2.906   6.208   8.715
 3716SOL    HW113045   2.889   6.202   8.621
 3716SOL    HW213046   2.820   6.195   8.755
 3717SOL     OW13047   3.733   9.159   6.910
 3717SOL    HW113048   3.815   9.111   6.913
 3717SOL    HW213049   3.759   9.251   6.909
 3718SOL     OW13050   0.747   1.424  13.687
 3718SOL    HW113051   0.768   1.490  13.621
 3718SOL    HW213052   0.676   1.373  13.649
 3719SOL     OW13053  13.541  11.154  12.701
 3719SOL    HW113054  13.498  11.082  12.746
 3719SOL    HW213055  13.497  11.232  12.734
 3720SOL     OW13056  10.079   5.703  10.418
 3720SOL    HW113057  10.006   5.703  10.355
 3720SOL    HW213058  10.138   5.770  10.386
 3721SOL     OW13059   8.161  13.523  13.431
 3721SOL    HW113060   8.151  13.602  13.378
 3721SOL    HW213061   8.095  13.531  13.500
 3722SOL     OW13062  14.768   3.937  14.569
 3722SOL    HW113063  14.834   3.909  14.633
 3722SOL    HW213064  14.781   4.032  14.563
 3723SOL     OW13065   3.378   3.154   3.004
 3723SOL    HW113066   3.326   3.210   2.946
 3723SOL    HW213067   3.321   3.136   3.078
 3724SOL     OW13068   3.611   5.768   6.296
 3724SOL    HW113069   3.682   5.739   6.239
 3724SOL    HW213070   3.571   5.687   6.329
 3725SOL     OW13071  11.212   0.520   3.147
 3725SOL    HW113072  11.165   0.573   3.082
 3725SOL    HW213073  11.209   0.431   3.111
 3726SOL     OW13074   8.780   6.590  12.358
 3726SOL    HW113075   8.820   6.569  12.442
 3726SOL    HW213076   8.780   6.507  12.310
 3727SOL     OW13077  14.516  12.163  11.477
 3727SOL    HW113078  14.512  12.151  11.383
 3727SOL    HW213079  14.438  12.216  11.498
 3728SOL     OW13080  14.103  12.550   1.212
 3728SOL    HW113081  14.054  12.472   1.237
 3728SOL    HW213082  14.042  12.601   1.160
 3729SOL     OW13083   0.596  14.189  10.800
 3729SOL    HW113084   0.551  14.160  10.720
 3729SOL    HW213085   0.626  14.278  10.780
 3730SOL     OW13086   4.507   3.980   9.945
 3730SOL    HW113087   4.507   4.010   9.854
 3730SOL    HW213088   4.465   3.894   9.941
 3731SOL     OW13089  12.684   3.186  11.883
 3731SOL    HW113090  12.682   3.183  11.978
 3731SOL    HW213091  12.701   3.096  11.856
 3732SOL     OW13092  14.013   6.193  11.346
 3732SOL    HW113093  13.993   6.169  11.437
 3732SOL    HW213094  13.944   6.255  11.322
 3733SOL     OW13095   7.444   8.354  12.085
 3733SOL    HW113096   7.492   8.299  12.147
 3733SOL    HW213097   7.482   8.331  12.000
 3734SOL     OW13098  12.108   3.230   1.268
 3734SOL    HW113099  12.035   3.274   1.226
 3734SOL    HW213100  12.067   3.172   1.333
 3735SOL     OW13101   6.433  14.266   4.539
 3735SOL    HW113102   6.342  14.242   4.524
 3735SOL    HW213103   6.476  14.184   4.566
 3736SOL     OW13104  13.894  12.582   2.031
 3736SOL    HW113105  13.886  12.493   2.065
 3736SOL    HW213106  13.890  12.572   1.936
 3737SOL     OW13107   3.479  12.656  14.643
 3737SOL    HW113108   3.572  12.637  14.648
 3737SOL    HW213109   3.439  12.601  14.711
 3738SOL     OW13110   5.184   1.044   0.046
 3738SOL    HW113111   5.158   1.072  14.830
 3738SOL    HW213112   5.277   1.067   0.052
 3739SOL     OW13113  10.496   9.770  13.162
 3739SOL    HW113114  10.443   9.797  13.087
 3739SOL    HW213115  10.432   9.751  13.231
 3740SOL     OW13116  14.758   5.637   3.286
 3740SOL    HW113117  14.734   5.550   3.254
 3740SOL    HW213118  14.784   5.621   3.377
 3741SOL     OW13119   4.370   6.553   3.118
 3741SOL    HW113120   4.429   6.535   3.191
 3741SOL    HW213121   4.357   6.468   3.076
 3742SOL     OW13122   4.167  13.221  14.030
 3742SOL    HW113123   4.220  13.143  14.047
 3742SOL    HW213124   4.226  13.281  13.985
 3743SOL     OW13125  12.165   3.916  11.817
 3743SOL    HW113126  12.087   3.863  11.803
 3743SOL    HW213127  12.231   3.854  11.848
 3744SOL     OW13128  14.215   4.401   0.840
 3744SOL    HW113129  14.270   4.404   0.918
 3744SOL    HW213130  14.223   4.488   0.802
 3745SOL     OW13131  14.061   1.422  12.187
 3745SOL    HW113132  14.037   1.421  12.280
 3745SOL    HW213133  13.978   1.427  12.141
 3746SOL     OW13134   9.949   8.229   9.306
 3746SOL    HW113135   9.870   8.283   9.292
 3746SOL    HW213136  10.020   8.293   9.310
 3747SOL     OW13137   3.433  10.938  14.748
 3747SOL    HW113138   3.351  10.930  14.699
 3747SOL    HW213139   3.408  10.921  14.839
 3748SOL     OW13140  11.671  14.129   6.488
 3748SOL    HW113141  11.739  14.097   6.547
 3748SOL    HW213142  11.601  14.063   6.494
 3749SOL     OW13143   8.287   9.635   3.787
 3749SOL    HW113144   8.296   9.540   3.788
 3749SOL    HW213145   8.284   9.659   3.695
 3750SOL     OW13146  13.208  14.709   6.378
 3750SOL    HW113147  13.197  14.636   6.438
 3750SOL    HW213148  13.142  14.693   6.310
 3751SOL     OW13149  10.197   7.358  10.151
 3751SOL    HW113150  10.281   7.321  10.178
 3751SOL    HW213151  10.193   7.340  10.057
 3752SOL     OW13152   1.381   7.241  12.002
 3752SOL    HW113153   1.375   7.247  11.907
 3752SOL    HW213154   1.296   7.208  12.030
 3753SOL     OW13155   9.721  11.881  10.135
 3753SOL    HW113156   9.778  11.957  10.126
 3753SOL    HW213157   9.674  11.876  10.052
 3754SOL     OW13158   6.651  11.463  13.173
 3754SOL    HW113159   6.742  11.464  13.203
 3754SOL    HW213160   6.621  11.373  13.189
 3755SOL     OW13161  12.769   2.473   1.140
 3755SOL    HW113162  12.808   2.410   1.201
 3755SOL    HW213163  12.814   2.457   1.057
 3756SOL     OW13164   1.651   3.856   2.874
 3756SOL    HW113165   1.579   3.802   2.842
 3756SOL    HW213166   1.608   3.931   2.915
 3757SOL     OW13167   3.078   8.967   2.097
 3757SOL    HW113168   3.074   9.016   2.015
 3757SOL    HW213169   3.102   8.878   2.071
 3758SOL     OW13170   6.395   8.519  14.822
 3758SOL    HW113171   6.401   8.611  14.796
 3758SOL    HW213172   6.476   8.503  14.871
 3759SOL     OW13173  11.606  12.409   5.396
 3759SOL    HW113174  11.551  12.464   5.452
 3759SOL    HW213175  11.634  12.467   5.326
 3760SOL     OW13176   0.523   9.506   9.476
 3760SOL    HW113177   0.616   9.498   9.457
 3760SOL    HW213178   0.518   9.507   9.572
 3761SOL     OW13179   3.424  13.572   9.141
 3761SOL    HW113180   3.478  13.511   9.191
 3761SOL    HW213181   3.454  13.659   9.168
 3762SOL     OW13182   9.507   4.808   2.524
 3762SOL    HW113183   9.451   4.836   2.452
 3762SOL    HW213184   9.596   4.822   2.492
 3763SOL     OW13185  10.929   5.142   6.686
 3763SOL    HW113186  10.843   5.099   6.682
 3763SOL    HW213187  10.915   5.219   6.742
 3764SOL     OW13188  13.503  10.631   1.109
 3764SOL    HW113189  13.449  10.620   1.030
 3764SOL    HW213190  13.592  10.616   1.079
 3765SOL     OW13191   3.717   3.397  13.912
 3765SOL    HW113192   3.692   3.371  14.001
 3765SOL    HW213193   3.771   3.326  13.879
 3766SOL     OW13194   9.257  10.692   2.831
 3766SOL    HW113195   9.290  10.602   2.835
 3766SOL    HW213196   9.246  10.718   2.923
 3767SOL     OW13197   0.892   2.656  10.194
 3767SOL    HW113198   0.798   2.650  10.174
 3767SOL    HW213199   0.924   2.726  10.138
 3768SOL     OW13200  11.663   3.141  14.161
 3768SOL    HW113201  11.664   3.079  14.087
 3768SOL    HW213202  11.682   3.087  14.237
 3769SOL     OW13203   9.409  14.703   2.031
 3769SOL    HW113204   9.371  14.654   1.958
 3769SOL    HW213205   9.358  14.676   2.107
 3770SOL     OW13206  14.675  10.347  11.633
 3770SOL    HW113207  14.691  10.409  11.562
 3770SOL    HW213208  14.748  10.361  11.694
 3771SOL     OW13209  14.509   0.342   3.471
 3771SOL    HW113210  14.501   0.391   3.389
 3771SOL    HW213211  14.422   0.349   3.511
 3772SOL     OW13212  12.296   6.218   5.599
 3772SOL    HW113213  12.247   6.216   5.517
 3772SOL    HW213214  12.310   6.311   5.617
 3773SOL     OW13215   1.681   9.147  10.772
 3773SOL    HW113216   1.722   9.104  10.847
 3773SOL    HW213217   1.592   9.111  10.769
 3774SOL     OW13218   0.133   5.265  11.492
 3774SOL    HW113219   0.149   5.333  11.558
 3774SOL    HW213220   0.084   5.309  11.423
 3775SOL     OW13221   1.567   9.296   7.340
 3775SOL    HW113222   1.494   9.296   7.403
 3775SOL    HW213223   1.547   9.369   7.282
 3776SOL     OW13224   4.921  13.652  14.137
 3776SOL    HW113225   4.863  13.620  14.068
 3776SOL    HW213226   4.967  13.573  14.168
 3777SOL     OW13227   6.338  13.082   5.685
 3777SOL    HW113228   6.278  13.062   5.758
 3777SOL    HW213229   6.415  13.028   5.702
 3778SOL     OW13230  10.968   3.658  11.143
 3778SOL    HW113231  10.906   3.719  11.105
 3778SOL    HW213232  10.961   3.579  11.088
 3779SOL     OW13233   2.602  12.519   1.885
 3779SOL    HW113234   2.533  12.555   1.941
 3779SOL    HW213235   2.578  12.546   1.797
 3780SOL     OW13236   1.903  10.951   2.427
 3780SOL    HW113237   1.864  10.908   2.503
 3780SOL    HW213238   1.897  11.045   2.447
 3781SOL     OW13239  12.997  13.452  14.675
 3781SOL    HW113240  13.088  13.482  14.673
 3781SOL    HW213241  12.945  13.532  14.687
 3782SOL     OW13242   6.589   3.334   5.806
 3782SOL    HW113243   6.679   3.347   5.836
 3782SOL    HW213244   6.570   3.243   5.825
 3783SOL     OW13245  13.427   9.273  13.501
 3783SOL    HW113246  13.355   9.335  13.486
 3783SOL    HW213247  13.452   9.245  13.413
 3784SOL     OW13248   7.991  14.116   3.541
 3784SOL    HW113249   7.909  14.124   3.492
 3784SOL    HW213250   7.995  14.023   3.566
 3785SOL     OW13251   9.430   1.879   0.256
 3785SOL    HW113252   9.451   1.823   0.330
 3785SOL    HW213253   9.440   1.823   0.179
 3786SOL     OW13254   7.549   1.884   7.694
 3786SOL    HW113255   7.469   1.930   7.720
 3786SOL    HW213256   7.570   1.828   7.768
 3787SOL     OW13257   3.519   6.082   9.789
 3787SOL    HW113258   3.533   6.000   9.740
 3787SOL    HW213259   3.437   6.117   9.755
 3788SOL     OW13260   3.545  11.254  10.703
 3788SOL    HW113261   3.530  11.291  10.790
 3788SOL    HW213262   3.591  11.322  10.655
 3789SOL     OW13263  12.520  14.565   0.010
 3789SOL    HW113264  12.478  14.531   0.089
 3789SOL    HW213265  12.452  14.563  14.815
 3790SOL     OW13266   4.133   2.020   7.870
 3790SOL    HW113267   4.218   2.064   7.861
 3790SOL    HW213268   4.156   1.928   7.881
 3791SOL     OW13269  12.800   9.494  12.769
 3791SOL    HW113270  12.817   9.446  12.851
 3791SOL    HW213271  12.731   9.445  12.726
 3792SOL     OW13272   0.080   0.119  12.440
 3792SOL    HW113273   0.060   0.200  12.393
 3792SOL    HW213274   0.052   0.049  12.380
 3793SOL     OW13275   8.435   6.050  10.969
 3793SOL    HW113276   8.407   6.139  10.950
 3793SOL    HW213277   8.531   6.054  10.969
 3794SOL     OW13278   6.791   8.134   5.584
 3794SOL    HW113279   6.710   8.087   5.567
 3794SOL    HW213280   6.854   8.065   5.606
 3795SOL     OW13281   3.070   8.343   4.303
 3795SOL    HW113282   3.157   8.380   4.323
 3795SOL    HW213283   3.023   8.349   4.386
 3796SOL     OW13284   1.563  14.697   6.095
 3796SOL    HW113285   1.499  14.711   6.025
 3796SOL    HW213286   1.620  14.628   6.061
 3797SOL     OW13287   8.318  11.705   3.342
 3797SOL    HW113288   8.361  11.776   3.294
 3797SOL    HW213289   8.387  11.640   3.357
 3798SOL     OW13290   2.677   1.527  10.094
 3798SOL    HW113291   2.582   1.538  10.089
 3798SOL    HW213292   2.708   1.546  10.006
 3799SOL     OW13293   5.531   7.217  10.300
 3799SOL    HW113294   5.551   7.310  10.288
 3799SOL    HW213295   5.609   7.182  10.343
 3800SOL     OW13296  14.631   0.549   8.249
 3800SOL    HW113297  14.676   0.464   8.259
 3800SOL    HW213298  14.673   0.606   8.314
 3801SOL     OW13299  11.252   0.362  11.139
 3801SOL    HW113300  11.273   0.284  11.087
 3801SOL    HW213301  11.335   0.408  11.148
 3802SOL     OW13302   8.522  11.964   8.409
 3802SOL    HW113303   8.462  11.994   8.342
 3802SOL    HW213304   8.468  11.953   8.487
 3803SOL     OW13305   9.377  11.444  13.271
 3803SOL    HW113306   9.325  11.366  13.249
 3803SOL    HW213307   9.434  11.457  13.195
 3804SOL     OW13308   2.150  13.133   5.026
 3804SOL    HW113309   2.094  13.054   5.027
 3804SOL    HW213310   2.131  13.176   5.109
 3805SOL     OW13311   8.886   3.728   5.486
 3805SOL    HW113312   8.926   3.814   5.485
 3805SOL    HW213313   8.884   3.702   5.578
 3806SOL     OW13314   6.917   8.717   7.767
 3806SOL    HW113315   6.967   8.739   7.845
 3806SOL    HW213316   6.825   8.721   7.795
 3807SOL     OW13317  13.531   4.078   8.627
 3807SOL    HW113318  13.497   4.140   8.692
 3807SOL    HW213319  13.473   4.002   8.634
 3808SOL     OW13320  12.267  14.013   0.414
 3808SOL    HW113321  12.204  13.950   0.449
 3808SOL    HW213322  12.253  14.093   0.465
 3809SOL     OW13323   2.196   4.394  12.307
 3809SOL    HW113324   2.292   4.392  12.300
 3809SOL    HW213325   2.168   4.441  12.228
 3810SOL     OW13326   6.934  12.192   4.123
 3810SOL    HW113327   6.958  12.179   4.031
 3810SOL    HW213328   6.907  12.283   4.128
 3811SOL     OW13329   7.246  10.329  13.596
 3811SOL    HW113330   7.313  10.292  13.653
 3811SOL    HW213331   7.291  10.398  13.547
 3812SOL     OW13332   9.092   1.910  12.620
 3812SOL    HW113333   9.109   1.935  12.529
 3812SOL    HW213334   9.072   1.993  12.664
 3813SOL     OW13335   5.727   6.990  12.426
 3813SOL    HW113336   5.758   6.923  12.365
 3813SOL    HW213337   5.738   7.073  12.378
 3814SOL     OW13338   5.664   5.971   1.357
 3814SOL    HW113339   5.651   5.975   1.451
 3814SOL    HW213340   5.577   5.951   1.321
 3815SOL     OW13341   9.948   7.230  13.239
 3815SOL    HW113342  10.008   7.303  13.255
 3815SOL    HW213343   9.941   7.225  13.144
 3816SOL     OW13344   2.013   1.895   5.078
 3816SOL    HW113345   2.036   1.930   5.164
 3816SOL    HW213346   2.003   1.801   5.093
 3817SOL     OW13347  10.037   0.772  11.208
 3817SOL    HW113348  10.110   0.777  11.269
 3817SOL    HW213349   9.960   0.792  11.260
 3818SOL     OW13350   8.868  14.851   4.356
 3818SOL    HW113351   8.898   0.062   4.318
 3818SOL    HW213352   8.930  14.833   4.427
 3819SOL     OW13353   9.682   5.043  14.002
 3819SOL    HW113354   9.760   5.084  14.040
 3819SOL    HW213355   9.685   5.066  13.909
 3820SOL     OW13356   5.252  12.860   8.407
 3820SOL    HW113357   5.178  12.840   8.349
 3820SOL    HW213358   5.324  12.882   8.347
 3821SOL     OW13359   3.619   3.945   1.309
 3821SOL    HW113360   3.560   3.910   1.377
 3821SOL    HW213361   3.566   4.010   1.263
 3822SOL     OW13362   9.633  10.856  10.930
 3822SOL    HW113363   9.684  10.897  11.000
 3822SOL    HW213364   9.553  10.827  10.974
 3823SOL     OW13365   6.129   1.772  10.150
 3823SOL    HW113366   6.100   1.688  10.184
 3823SOL    HW213367   6.164   1.818  10.227
 3824SOL     OW13368   6.176   3.115   8.745
 3824SOL    HW113369   6.135   3.201   8.731
 3824SOL    HW213370   6.127   3.076   8.817
 3825SOL     OW13371   1.026   3.849   2.092
 3825SOL    HW113372   1.046   3.933   2.133
 3825SOL    HW213373   1.094   3.838   2.026
 3826SOL     OW13374   8.754   6.818   6.242
 3826SOL    HW113375   8.659   6.813   6.233
 3826SOL    HW213376   8.784   6.727   6.243
 3827SOL     OW13377   8.192  14.590   8.912
 3827SOL    HW113378   8.239  14.523   8.863
 3827SOL    HW213379   8.237  14.594   8.997
 3828SOL     OW13380   0.446   4.966  12.036
 3828SOL    HW113381   0.484   5.050  12.061
 3828SOL    HW213382   0.498   4.901  12.084
 3829SOL     OW13383   9.934  11.271   2.986
 3829SOL    HW113384   9.957  11.245   3.075
 3829SOL    HW213385   9.999  11.337   2.962
 3830SOL     OW13386   9.585   6.944  11.256
 3830SOL    HW113387   9.592   7.000  11.333
 3830SOL    HW213388   9.508   6.889  11.273
 3831SOL     OW13389  14.393   1.934   2.575
 3831SOL    HW113390  14.351   1.848   2.572
 3831SOL    HW213391  14.359   1.980   2.498
 3832SOL     OW13392  12.381  14.451   2.500
 3832SOL    HW113393  12.312  14.429   2.563
 3832SOL    HW213394  12.350  14.531   2.458
 3833SOL     OW13395  11.141   1.664   4.869
 3833SOL    HW113396  11.212   1.600   4.871
 3833SOL    HW213397  11.153   1.716   4.947
 3834SOL     OW13398  11.354   1.497   5.132
 3834SOL    HW113399  11.328   1.458   5.049
 3834SOL    HW213400  11.274   1.541   5.164
 3835SOL     OW13401   1.493  11.797   7.322
 3835SOL    HW113402   1.540  11.748   7.254
 3835SOL    HW213403   1.553  11.869   7.344
 3836SOL     OW13404   3.353   8.072  12.880
 3836SOL    HW113405   3.323   8.161  12.899
 3836SOL    HW213406   3.332   8.059  12.787
 3837SOL     OW13407  14.061  12.604  12.416
 3837SOL    HW113408  14.134  12.544  12.407
 3837SOL    HW213409  14.094  12.675  12.471
 3838SOL     OW13410  13.708   0.397   5.595
 3838SOL    HW113411  13.699   0.364   5.506
 3838SOL    HW213412  13.775   0.466   5.588
 3839SOL     OW13413   2.224   0.292   9.229
 3839SOL    HW113414   2.188   0.339   9.305
 3839SOL    HW213415   2.182   0.333   9.154
 3840SOL     OW13416   0.574   2.048   1.755
 3840SOL    HW113417   0.655   2.074   1.799
 3840SOL    HW213418   0.510   2.113   1.783
 3841SOL     OW13419   6.279  10.764   8.653
 3841SOL    HW113420   6.333  10.817   8.711
 3841SOL    HW213421   6.243  10.695   8.709
 3842SOL     OW13422   2.645   7.029   1.705
 3842SOL    HW113423   2.704   7.104   1.697
 3842SOL    HW213424   2.567   7.055   1.655
 3843SOL     OW13425  13.932   0.867  12.875
 3843SOL    HW113426  13.896   0.939  12.824
 3843SOL    HW213427  13.987   0.819  12.814
 3844SOL     OW13428   4.344  14.451   1.211
 3844SOL    HW113429   4.288  14.487   1.142
 3844SOL    HW213430   4.416  14.514   1.219
 3845SOL     OW13431   3.286   5.616  10.485
 3845SOL    HW113432   3.266   5.523  10.495
 3845SOL    HW213433   3.201   5.660  10.492
 3846SOL     OW13434  14.645   2.341   7.391
 3846SOL    HW113435  14.582   2.270   7.377
 3846SOL    HW213436  14.630   2.368   7.481
 3847SOL     OW13437  11.656  11.292   0.741
 3847SOL    HW113438  11.622  11.207   0.769
 3847SOL    HW213439  11.678  11.280   0.649
 3848SOL     OW13440   2.710  12.784   5.138
 3848SOL    HW113441   2.649  12.711   5.125
 3848SOL    HW213442   2.794  12.750   5.107
 3849SOL     OW13443   9.505   7.649  13.170
 3849SOL    HW113444   9.577   7.695  13.213
 3849SOL    HW213445   9.453   7.612  13.241
 3850SOL     OW13446  13.943  12.073   1.495
 3850SOL    HW113447  13.875  12.034   1.551
 3850SOL    HW213448  14.020  12.019   1.509
 3851SOL     OW13449  12.340  11.970   9.546
 3851SOL    HW113450  12.307  12.054   9.576
 3851SOL    HW213451  12.285  11.905   9.589
 3852SOL     OW13452   6.909   8.724   2.280
 3852SOL    HW113453   6.905   8.700   2.187
 3852SOL    HW213454   6.848   8.664   2.323
 3853SOL     OW13455   8.145  12.366  11.810
 3853SOL    HW113456   8.169  12.275  11.792
 3853SOL    HW213457   8.097  12.363  11.892
 3854SOL     OW13458   5.401   9.216   8.707
 3854SOL    HW113459   5.414   9.137   8.655
 3854SOL    HW213460   5.485   9.261   8.705
 3855SOL     OW13461  11.594  13.381  11.401
 3855SOL    HW113462  11.501  13.361  11.386
 3855SOL    HW213463  11.598  13.477  11.402
 3856SOL     OW13464   5.137   3.307  10.713
 3856SOL    HW113465   5.203   3.354  10.765
 3856SOL    HW213466   5.156   3.215  10.729
 3857SOL     OW13467   1.587   5.002   7.571
 3857SOL    HW113468   1.506   4.972   7.529
 3857SOL    HW213469   1.654   4.944   7.537
 3858SOL     OW13470   9.796   2.586   8.705
 3858SOL    HW113471   9.786   2.524   8.777
 3858SOL    HW213472   9.839   2.662   8.744
 3859SOL     OW13473   4.950   7.065   4.053
 3859SOL    HW113474   4.987   6.997   4.110
 3859SOL    HW213475   4.865   7.030   4.027
 3860SOL     OW13476   8.698   9.898   5.746
 3860SOL    HW113477   8.631   9.836   5.776
 3860SOL    HW213478   8.778   9.871   5.791
 3861SOL     OW13479   5.616  13.177  14.862
 3861SOL    HW113480   5.532  13.190   0.034
 3861SOL    HW213481   5.602  13.099  14.807
 3862SOL     OW13482   2.245   7.019   2.155
 3862SOL    HW113483   2.214   6.929   2.163
 3862SOL    HW213484   2.326   7.012   2.103
 3863SOL     OW13485   2.994   4.922  14.185
 3863SOL    HW113486   3.016   4.884  14.100
 3863SOL    HW213487   3.018   5.014  14.178
 3864SOL     OW13488  11.037  13.281   0.026
 3864SOL    HW113489  11.032  13.368   0.066
 3864SOL    HW213490  11.072  13.225   0.096
 3865SOL     OW13491  13.786   9.159   2.107
 3865SOL    HW113492  13.709   9.163   2.164
 3865SOL    HW213493  13.860   9.148   2.166
 3866SOL     OW13494   3.612   8.162  11.432
 3866SOL    HW113495   3.637   8.229  11.495
 3866SOL    HW213496   3.684   8.159  11.369
 3867SOL     OW13497   0.022   3.377   4.592
 3867SOL    HW113498  14.824   3.433   4.558
 3867SOL    HW213499  14.847   3.303   4.632
 3868SOL     OW13500  13.220   0.202   4.078
 3868SOL    HW113501  13.218   0.290   4.114
 3868SOL    HW213502  13.136   0.164   4.103
 3869SOL     OW13503   7.125  14.210   8.635
 3869SOL    HW113504   7.126  14.225   8.730
 3869SOL    HW213505   7.106  14.296   8.598
 3870SOL     OW13506   4.851  10.239   0.264
 3870SOL    HW113507   4.909  10.224   0.338
 3870SOL    HW213508   4.855  10.333   0.248
 3871SOL     OW13509  13.239  11.427   4.424
 3871SOL    HW113510  13.212  11.474   4.345
 3871SOL    HW213511  13.320  11.383   4.399
 3872SOL     OW13512  10.615   9.287   9.517
 3872SOL    HW113513  10.703   9.325   9.525
 3872SOL    HW213514  10.594   9.258   9.606
 3873SOL     OW13515   4.733   4.050  13.308
 3873SOL    HW113516   4.740   3.967  13.261
 3873SOL    HW213517   4.727   4.025  13.400
 3874SOL     OW13518   2.662   9.329   3.652
 3874SOL    HW113519   2.685   9.364   3.738
 3874SOL    HW213520   2.568   9.314   3.656
 3875SOL     OW13521   0.247   9.585   1.177
 3875SOL    HW113522   0.243   9.538   1.094
 3875SOL    HW213523   0.328   9.556   1.217
 3876SOL     OW13524   6.456   3.785   5.080
 3876SOL    HW113525   6.394   3.856   5.093
 3876SOL    HW213526   6.515   3.818   5.012
 3877SOL     OW13527   6.009   6.448   2.657
 3877SOL    HW113528   5.963   6.428   2.575
 3877SOL    HW213529   5.962   6.523   2.694
 3878SOL     OW13530   4.137   1.564   5.999
 3878SOL    HW113531   4.164   1.599   6.084
 3878SOL    HW213532   4.216   1.527   5.962
 3879SOL     OW13533   0.396   7.299   2.441
 3879SOL    HW113534   0.434   7.352   2.510
 3879SOL    HW213535   0.364   7.362   2.376
 3880SOL     OW13536   4.506   9.067   5.369
 3880SOL    HW113537   4.468   9.151   5.343
 3880SOL    HW213538   4.453   9.001   5.323
 3881SOL     OW13539   1.500   6.435  10.679
 3881SOL    HW113540   1.445   6.370  10.635
 3881SOL    HW213541   1.438   6.491  10.726
 3882SOL     OW13542  10.624   5.811   1.677
 3882SOL    HW113543  10.681   5.753   1.728
 3882SOL    HW213544  10.605   5.883   1.737
 3883SOL     OW13545  11.587   3.022   3.001
 3883SOL    HW113546  11.603   3.104   3.048
 3883SOL    HW213547  11.579   3.048   2.909
 3884SOL     OW13548  14.580  11.597  10.767
 3884SOL    HW113549  14.580  11.692  10.772
 3884SOL    HW213550  14.555  11.568  10.855
 3885SOL     OW13551   7.435  12.024   9.054
 3885SOL    HW113552   7.435  11.939   9.010
 3885SOL    HW213553   7.409  12.087   8.986
 3886SOL     OW13554   8.973   5.012   1.568
 3886SOL    HW113555   9.009   4.987   1.483
 3886SOL    HW213556   8.976   5.107   1.569
 3887SOL     OW13557   2.885   0.881  11.517
 3887SOL    HW113558   2.813   0.852  11.461
 3887SOL    HW213559   2.861   0.850  11.604
 3888SOL     OW13560   3.978  10.025   8.430
 3888SOL    HW113561   4.050   9.964   8.440
 3888SOL    HW213562   4.018  10.111   8.445
 3889SOL     OW13563   2.301  12.257   8.305
 3889SOL    HW113564   2.279  12.315   8.378
 3889SOL    HW213565   2.396  12.247   8.311
 3890SOL     OW13566   1.892   5.617   8.864
 3890SOL    HW113567   1.854   5.562   8.796
 3890SOL    HW213568   1.982   5.587   8.872
 3891SOL     OW13569  13.830   7.422  10.506
 3891SOL    HW113570  13.854   7.340  10.548
 3891SOL    HW213571  13.849   7.489  10.571
 3892SOL     OW13572   3.286  11.947  14.033
 3892SOL    HW113573   3.280  11.999  14.113
 3892SOL    HW213574   3.258  12.007  13.963
 3893SOL     OW13575   9.771   5.406   7.114
 3893SOL    HW113576   9.758   5.357   7.032
 3893SOL    HW213577   9.788   5.496   7.085
 3894SOL     OW13578  13.253   8.146   6.186
 3894SOL    HW113579  13.159   8.162   6.185
 3894SOL    HW213580  13.287   8.202   6.115
 3895SOL     OW13581   8.675   9.600   0.269
 3895SOL    HW113582   8.605   9.651   0.230
 3895SOL    HW213583   8.631   9.522   0.303
 3896SOL     OW13584  12.885   0.359  11.916
 3896SOL    HW113585  12.884   0.448  11.949
 3896SOL    HW213586  12.952   0.314  11.967
 3897SOL     OW13587   1.368  14.399   3.126
 3897SOL    HW113588   1.322  14.483   3.116
 3897SOL    HW213589   1.459  14.420   3.108
 3898SOL     OW13590  13.445  12.469   1.522
 3898SOL    HW113591  13.504  12.394   1.523
 3898SOL    HW213592  13.381  12.448   1.454
 3899SOL     OW13593   9.664   0.683   6.746
 3899SOL    HW113594   9.592   0.741   6.720
 3899SOL    HW213595   9.682   0.631   6.667
 3900SOL     OW13596   3.168   9.085   4.075
 3900SOL    HW113597   3.250   9.135   4.079
 3900SOL    HW213598   3.104   9.147   4.042
 3901SOL     OW13599   3.107   9.979  10.734
 3901SOL    HW113600   3.187   9.953  10.779
 3901SOL    HW213601   3.087   9.905  10.676
 3902SOL     OW13602  13.773   3.809   5.104
 3902SOL    HW113603  13.762   3.742   5.172
 3902SOL    HW213604  13.684   3.834   5.080
 3903SOL     OW13605   6.175   9.055   2.841
 3903SOL    HW113606   6.165   9.033   2.749
 3903SOL    HW213607   6.239   9.127   2.842
 3904SOL     OW13608   8.532   5.826   5.893
 3904SOL    HW113609   8.497   5.743   5.925
 3904SOL    HW213610   8.627   5.817   5.899
 3905SOL     OW13611   9.172   8.871   0.475
 3905SOL    HW113612   9.107   8.848   0.408
 3905SOL    HW213613   9.121   8.880   0.555
 3906SOL     OW13614  13.529   6.786   2.369
 3906SOL    HW113615  13.489   6.742   2.444
 3906SOL    HW213616  13.488   6.746   2.292
 3907SOL     OW13617  13.863   0.360   2.844
 3907SOL    HW113618  13.929   0.429   2.853
 3907SOL    HW213619  13.781   0.401   2.871
 3908SOL     OW13620  13.975   6.114   3.882
 3908SOL    HW113621  14.065   6.105   3.915
 3908SOL    HW213622  13.942   6.194   3.923
 3909SOL     OW13623   3.174  13.651  12.457
 3909SOL    HW113624   3.266  13.629  12.476
 3909SOL    HW213625   3.170  13.746  12.468
 3910SOL     OW13626   3.385   3.522   8.786
 3910SOL    HW113627   3.425   3.488   8.706
 3910SOL    HW213628   3.447   3.588   8.818
 3911SOL     OW13629  11.745   8.195   8.253
 3911SOL    HW113630  11.836   8.167   8.264
 3911SOL    HW213631  11.734   8.204   8.158
 3912SOL     OW13632   0.537  12.296   3.257
 3912SOL    HW113633   0.545  12.314   3.163
 3912SOL    HW213634   0.562  12.379   3.299
 3913SOL     OW13635   1.751  10.243   9.676
 3913SOL    HW113636   1.693  10.298   9.624
 3913SOL    HW213637   1.839  10.262   9.644
 3914SOL     OW13638   1.336   6.939  13.636
 3914SOL    HW113639   1.350   6.891  13.554
 3914SOL    HW213640   1.312   6.872  13.700
 3915SOL     OW13641   0.892  10.423   5.229
 3915SOL    HW113642   0.890  10.406   5.135
 3915SOL    HW213643   0.978  10.462   5.244
 3916SOL     OW13644   9.868   6.570   6.828
 3916SOL    HW113645   9.879   6.482   6.864
 3916SOL    HW213646   9.899   6.628   6.897
 3917SOL     OW13647   2.059   9.335   1.151
 3917SOL    HW113648   2.123   9.405   1.137
 3917SOL    HW213649   1.980   9.380   1.180
 3918SOL     OW13650  11.599  14.044   8.561
 3918SOL    HW113651  11.600  13.984   8.635
 3918SOL    HW213652  11.686  14.086   8.563
 3919SOL     OW13653   5.159   1.864   7.196
 3919SOL    HW113654   5.153   1.825   7.283
 3919SOL    HW213655   5.074   1.846   7.155
 3920SOL     OW13656   8.367   9.174   1.392
 3920SOL    HW113657   8.293   9.224   1.358
 3920SOL    HW213658   8.371   9.096   1.336
 3921SOL     OW13659   0.188   3.443   1.571
 3921SOL    HW113660   0.211   3.404   1.656
 3921SOL    HW213661   0.130   3.516   1.594
 3922SOL     OW13662   5.683  14.868   0.037
 3922SOL    HW113663   5.673  14.780   0.002
 3922SOL    HW213664   5.766  14.865   0.085
 3923SOL     OW13665  11.986   3.578   9.415
 3923SOL    HW113666  11.979   3.517   9.341
 3923SOL    HW213667  12.058   3.542   9.468
 3924SOL     OW13668   1.703   7.457   0.907
 3924SOL    HW113669   1.664   7.478   0.822
 3924SOL    HW213670   1.794   7.437   0.887
 3925SOL     OW13671   9.924   7.370  14.240
 3925SOL    HW113672   9.872   7.317  14.178
 3925SOL    HW213673   9.917   7.459  14.207
 3926SOL     OW13674   8.777  14.598   2.804
 3926SOL    HW113675   8.686  14.628   2.804
 3926SOL    HW213676   8.823  14.660   2.860
 3927SOL     OW13677   9.663   8.375  14.572
 3927SOL    HW113678   9.694   8.300  14.522
 3927SOL    HW213679   9.686   8.451  14.518
 3928SOL     OW13680   3.014   5.925   6.105
 3928SOL    HW113681   3.031   5.885   6.190
 3928SOL    HW213682   3.093   5.907   6.054
 3929SOL     OW13683  12.256   0.658   1.562
 3929SOL    HW113684  12.341   0.630   1.526
 3929SOL    HW213685  12.198   0.661   1.486
 3930SOL     OW13686   2.276   2.968   2.019
 3930SOL    HW113687   2.202   2.990   2.075
 3930SOL    HW213688   2.313   3.052   1.994
 3931SOL     OW13689   3.458   4.715   8.760
 3931SOL    HW113690   3.482   4.635   8.807
 3931SOL    HW213691   3.541   4.762   8.748
 3932SOL     OW13692  13.103   9.244  11.457
 3932SOL    HW113693  13.189   9.211  11.482
 3932SOL    HW213694  13.094   9.327  11.502
 3933SOL     OW13695  10.032   6.544   4.351
 3933SOL    HW113696  10.117   6.565   4.389
 3933SOL    HW213697   9.997   6.474   4.406
 3934SOL     OW13698   5.804  11.935  14.834
 3934SOL    HW113699   5.726  11.942  14.779
 3934SOL    HW213700   5.872  11.981  14.785
 3935SOL     OW13701   1.267  12.105   8.042
 3935SOL    HW113702   1.214  12.158   7.982
 3935SOL    HW213703   1.243  12.015   8.021
 3936SOL     OW13704   0.468   3.823  10.879
 3936SOL    HW113705   0.402   3.891  10.864
 3936SOL    HW213706   0.432   3.746  10.836
 3937SOL     OW13707   9.959   0.937   9.327
 3937SOL    HW113708  10.011   0.868   9.287
 3937SOL    HW213709  10.000   1.019   9.298
 3938SOL     OW13710   9.088   0.737  10.429
 3938SOL    HW113711   9.090   0.766  10.520
 3938SOL    HW213712   8.998   0.709  10.414
 3939SOL     OW13713  14.332   6.697   4.819
 3939SOL    HW113714  14.253   6.750   4.827
 3939SOL    HW213715  14.313   6.617   4.868
 3940SOL     OW13716  13.112   2.840  12.659
 3940SOL    HW113717  13.114   2.936  12.658
 3940SOL    HW213718  13.203   2.814  12.667
 3941SOL     OW13719   0.984  14.313   2.488
 3941SOL    HW113720   1.033  14.391   2.513
 3941SOL    HW213721   1.045  14.240   2.505
 3942SOL     OW13722  10.844  14.845   5.476
 3942SOL    HW113723  10.898  14.840   5.555
 3942SOL    HW213724  10.755  14.825   5.506
 3943SOL     OW13725   3.982   5.225   5.009
 3943SOL    HW113726   3.923   5.283   4.960
 3943SOL    HW213727   3.932   5.199   5.086
 3944SOL     OW13728   4.083  13.176   3.978
 3944SOL    HW113729   4.038  13.198   3.896
 3944SOL    HW213730   4.175  13.165   3.952
 3945SOL     OW13731   8.788  12.743   3.472
 3945SOL    HW113732   8.710  12.754   3.526
 3945SOL    HW213733   8.859  12.727   3.534
 3946SOL     OW13734   0.290   6.082  11.771
 3946SOL    HW113735   0.204   6.059  11.805
 3946SOL    HW213736   0.309   6.168  11.809
 3947SOL     OW13737  13.823  11.494   1.678
 3947SOL    HW113738  13.877  11.572   1.693
 3947SOL    HW213739  13.818  11.487   1.583
 3948SOL     OW13740   2.310   8.644  13.308
 3948SOL    HW113741   2.244   8.588  13.349
 3948SOL    HW213742   2.327   8.712  13.373
 3949SOL     OW13743   6.262  13.144   5.420
 3949SOL    HW113744   6.199  13.211   5.447
 3949SOL    HW213745   6.307  13.120   5.501
 3950SOL     OW13746  12.665  10.986   6.237
 3950SOL    HW113747  12.661  10.894   6.212
 3950SOL    HW213748  12.746  10.995   6.286
 3951SOL     OW13749   0.747   3.248   1.938
 3951SOL    HW113750   0.807   3.177   1.915
 3951SOL    HW213751   0.676   3.204   1.985
 3952SOL     OW13752   8.727  11.702   1.884
 3952SOL    HW113753   8.701  11.789   1.914
 3952SOL    HW213754   8.741  11.651   1.964
 3953SOL     OW13755   1.942  12.027  11.952
 3953SOL    HW113756   2.001  11.996  11.882
 3953SOL    HW213757   1.976  11.986  12.031
 3954SOL     OW13758   9.876   4.745  10.121
 3954SOL    HW113759   9.939   4.802  10.165
 3954SOL    HW213760   9.822   4.709  10.191
 3955SOL     OW13761   5.865   8.690  12.959
 3955SOL    HW113762   5.773   8.710  12.978
 3955SOL    HW213763   5.875   8.598  12.984
 3956SOL     OW13764   4.938  13.875   8.730
 3956SOL    HW113765   4.869  13.832   8.679
 3956SOL    HW213766   4.903  13.963   8.747
 3957SOL     OW13767   6.335  12.356  10.883
 3957SOL    HW113768   6.381  12.312  10.954
 3957SOL    HW213769   6.402  12.372  10.817
 3958SOL     OW13770  11.376  14.473   3.829
 3958SOL    HW113771  11.421  14.391   3.850
 3958SOL    HW213772  11.321  14.490   3.906
 3959SOL     OW13773  11.970   9.455   2.567
 3959SOL    HW113774  11.879   9.472   2.544
 3959SOL    HW213775  12.021   9.489   2.493
 3960SOL     OW13776  13.876   8.335   6.033
 3960SOL    HW113777  13.869   8.293   6.118
 3960SOL    HW213778  13.804   8.298   5.982
 3961SOL     OW13779  14.795  11.285  13.255
 3961SOL    HW113780  14.761  11.316  13.340
 3961SOL    HW213781  14.730  11.223  13.224
 3962SOL     OW13782  10.833   6.712  11.878
 3962SOL    HW113783  10.781   6.714  11.957
 3962SOL    HW213784  10.839   6.804  11.851
 3963SOL     OW13785  14.353   4.857   0.767
 3963SOL    HW113786  14.265   4.892   0.750
 3963SOL    HW213787  14.379   4.898   0.850
 3964SOL     OW13788  14.115   3.907   8.796
 3964SOL    HW113789  14.169   3.981   8.822
 3964SOL    HW213790  14.058   3.891   8.872
 3965SOL     OW13791   5.599   4.827   6.500
 3965SOL    HW113792   5.672   4.872   6.458
 3965SOL    HW213793   5.602   4.858   6.591
 3966SOL     OW13794  10.138   4.907   7.856
 3966SOL    HW113795  10.064   4.856   7.887
 3966SOL    HW213796  10.166   4.863   7.775
 3967SOL     OW13797  14.686   5.705   7.458
 3967SOL    HW113798  14.728   5.775   7.407
 3967SOL    HW213799  14.755   5.672   7.515
 3968SOL     OW13800   0.239   2.050  10.687
 3968SOL    HW113801   0.306   2.057  10.755
 3968SOL    HW213802   0.285   2.069  10.605
 3969SOL     OW13803   5.535   3.604   8.414
 3969SOL    HW113804   5.622   3.618   8.450
 3969SOL    HW213805   5.475   3.637   8.481
 3970SOL     OW13806   3.019  12.985  13.231
 3970SOL    HW113807   3.095  12.930  13.211
 3970SOL    HW213808   2.998  13.028  13.148
 3971SOL     OW13809   9.307  10.858   7.236
 3971SOL    HW113810   9.400  10.847   7.254
 3971SOL    HW213811   9.265  10.851   7.322
 3972SOL     OW13812   4.896  11.207   2.155
 3972SOL    HW113813   4.979  11.252   2.164
 3972SOL    HW213814   4.900  11.136   2.219
 3973SOL     OW13815   7.849   4.188   3.714
 3973SOL    HW113816   7.910   4.198   3.642
 3973SOL    HW213817   7.901   4.207   3.793
 3974SOL     OW13818   3.218   4.058  14.512
 3974SOL    HW113819   3.274   4.058  14.434
 3974SOL    HW213820   3.129   4.053  14.478
 3975SOL     OW13821   7.626   6.581  12.622
 3975SOL    HW113822   7.570   6.643  12.669
 3975SOL    HW213823   7.686   6.637  12.572
 3976SOL     OW13824  11.540   3.643   4.562
 3976SOL    HW113825  11.591   3.562   4.556
 3976SOL    HW213826  11.449   3.615   4.552
 3977SOL     OW13827   1.245   3.239   5.920
 3977SOL    HW113828   1.197   3.157   5.916
 3977SOL    HW213829   1.230   3.280   5.834
 3978SOL     OW13830   1.884   1.837   3.118
 3978SOL    HW113831   1.903   1.756   3.071
 3978SOL    HW213832   1.827   1.810   3.190
 3979SOL     OW13833   0.180   6.671   3.648
 3979SOL    HW113834   0.102   6.721   3.624
 3979SOL    HW213835   0.184   6.601   3.584
 3980SOL     OW13836   8.854   7.728   4.329
 3980SOL    HW113837   8.806   7.742   4.248
 3980SOL    HW213838   8.813   7.650   4.368
 3981SOL     OW13839   3.103   4.461   9.821
 3981SOL    HW113840   3.019   4.420   9.798
 3981SOL    HW213841   3.138   4.491   9.737
 3982SOL     OW13842  14.148   5.269   0.477
 3982SOL    HW113843  14.101   5.318   0.544
 3982SOL    HW213844  14.238   5.263   0.510
 3983SOL     OW13845  10.429   6.622   8.298
 3983SOL    HW113846  10.411   6.714   8.318
 3983SOL    HW213847  10.508   6.625   8.243
 3984SOL     OW13848  12.213   2.502  11.203
 3984SOL    HW113849  12.118   2.486  11.202
 3984SOL    HW213850  12.230   2.539  11.290
 3985SOL     OW13851   0.164  13.736  10.997
 3985SOL    HW113852   0.120  13.747  11.082
 3985SOL    HW213853   0.197  13.824  10.975
 3986SOL     OW13854   2.853  13.405   6.822
 3986SOL    HW113855   2.860  13.417   6.727
 3986SOL    HW213856   2.761  13.382   6.837
 3987SOL     OW13857   9.157   5.748   6.966
 3987SOL    HW113858   9.244   5.766   6.929
 3987SOL    HW213859   9.118   5.835   6.978
 3988SOL     OW13860  11.020   5.983  11.417
 3988SOL    HW113861  11.021   5.888  11.415
 3988SOL    HW213862  11.036   6.010  11.326
 3989SOL     OW13863  11.024  13.248   0.866
 3989SOL    HW113864  10.954  13.252   0.800
 3989SOL    HW213865  11.043  13.155   0.875
 3990SOL     OW13866   1.369   9.139   6.117
 3990SOL    HW113867   1.299   9.086   6.156
 3990SOL    HW213868   1.355   9.227   6.152
 3991SOL     OW13869   8.393  11.793  14.369
 3991SOL    HW113870   8.362  11.782  14.459
 3991SOL    HW213871   8.430  11.708  14.346
 3992SOL     OW13872  14.513   6.019   7.642
 3992SOL    HW113873  14.498   5.926   7.625
 3992SOL    HW213874  14.569   6.048   7.570
 3993SOL     OW13875   2.034   4.723  10.770
 3993SOL    HW113876   2.040   4.773  10.689
 3993SOL    HW213877   2.125   4.703  10.793
 3994SOL     OW13878   9.074  11.578  10.829
 3994SOL    HW113879   9.080  11.485  10.809
 3994SOL    HW213880   9.005  11.584  10.896
 3995SOL     OW13881  11.598   6.814  11.316
 3995SOL    HW113882  11.693   6.815  11.304
 3995SOL    HW213883  11.583   6.874  11.388
 3996SOL     OW13884   2.917   5.698   3.631
 3996SOL    HW113885   2.999   5.735   3.661
 3996SOL    HW213886   2.921   5.606   3.658
 3997SOL     OW13887  10.280   1.698   4.692
 3997SOL    HW113888  10.201   1.644   4.699
 3997SOL    HW213889  10.300   1.700   4.599
 3998SOL     OW13890   9.745   4.995   1.856
 3998SOL    HW113891   9.673   5.008   1.796
 3998SOL    HW213892   9.750   5.076   1.907
 3999SOL     OW13893   2.817  12.306  11.266
 3999SOL    HW113894   2.807  12.329  11.174
 3999SOL    HW213895   2.846  12.386  11.308
 4000SOL     OW13896   8.754  13.440  14.715
 4000SOL    HW113897   8.749  13.354  14.757
 4000SOL    HW213898   8.670  13.482  14.738
 4001SOL     OW13899   6.514   0.181  14.400
 4001SOL    HW113900   6.469   0.133  14.470
 4001SOL    HW213901   6.561   0.114  14.351
 4002SOL     OW13902  10.618   5.729   3.100
 4002SOL    HW113903  10.532   5.692   3.119
 4002SOL    HW213904  10.658   5.742   3.186
 4003SOL     OW13905   2.221   0.154   8.345
 4003SOL    HW113906   2.192   0.142   8.255
 4003SOL    HW213907   2.317   0.151   8.340
 4004SOL     OW13908   0.313   5.624   8.066
 4004SOL    HW113909   0.340   5.710   8.036
 4004SOL    HW213910   0.376   5.563   8.026
 4005SOL     OW13911   6.282   3.246  12.445
 4005SOL    HW113912   6.311   3.329  12.483
 4005SOL    HW213913   6.189   3.259  12.428
 4006SOL     OW13914   8.515   6.307  14.470
 4006SOL    HW113915   8.433   6.260  14.458
 4006SOL    HW213916   8.548   6.321  14.381
 4007SOL     OW13917   4.352   2.289   8.866
 4007SOL    HW113918   4.272   2.258   8.908
 4007SOL    HW213919   4.420   2.276   8.933
 4008SOL     OW13920   9.307   5.268   5.302
 4008SOL    HW113921   9.385   5.262   5.357
 4008SOL    HW213922   9.251   5.196   5.330
 4009SOL     OW13923  11.470   4.398   3.561
 4009SOL    HW113924  11.419   4.480   3.557
 4009SOL    HW213925  11.405   4.331   3.581
 4010SOL     OW13926   8.997   9.595   3.999
 4010SOL    HW113927   9.063   9.546   4.047
 4010SOL    HW213928   8.953   9.647   4.065
 4011SOL     OW13929   1.508   8.368  12.459
 4011SOL    HW113930   1.480   8.459  12.453
 4011SOL    HW213931   1.601   8.370  12.437
 4012SOL     OW13932  10.198   7.218   3.555
 4012SOL    HW113933  10.222   7.274   3.629
 4012SOL    HW213934  10.155   7.142   3.596
 4013SOL     OW13935   4.860   0.938  11.845
 4013SOL    HW113936   4.824   1.019  11.883
 4013SOL    HW213937   4.941   0.923  11.894
 4014SOL     OW13938   3.657  12.178  14.845
 4014SOL    HW113939   3.620  12.099  14.808
 4014SOL    HW213940   3.644  12.169   0.068
 4015SOL     OW13941  12.842  14.711  14.411
 4015SOL    HW113942  12.783  14.671  14.347
 4015SOL    HW213943  12.791  14.713  14.492
 4016SOL     OW13944   5.234  10.417   8.535
 4016SOL    HW113945   5.246  10.432   8.441
 4016SOL    HW213946   5.283  10.337   8.553
 4017SOL     OW13947   7.717   9.051  13.647
 4017SOL    HW113948   7.646   9.032  13.586
 4017SOL    HW213949   7.673   9.087  13.724
 4018SOL     OW13950   0.162  10.025   7.778
 4018SOL    HW113951   0.068  10.018   7.796
 4018SOL    HW213952   0.204  10.007   7.862
 4019SOL     OW13953  14.592   5.368   8.747
 4019SOL    HW113954  14.504   5.375   8.711
 4019SOL    HW213955  14.608   5.452   8.789
 4020SOL     OW13956  11.915   8.318   2.749
 4020SOL    HW113957  11.858   8.372   2.804
 4020SOL    HW213958  11.986   8.377   2.723
 4021SOL     OW13959   7.334  10.158   2.152
 4021SOL    HW113960   7.411  10.205   2.122
 4021SOL    HW213961   7.304  10.108   2.076
 4022SOL     OW13962  11.264  10.355  10.532
 4022SOL    HW113963  11.344  10.329  10.577
 4022SOL    HW213964  11.194  10.318  10.585
 4023SOL     OW13965   3.939   8.275   9.261
 4023SOL    HW113966   3.954   8.296   9.169
 4023SOL    HW213967   4.012   8.316   9.307
 4024SOL     OW13968   4.004  12.198  12.088
 4024SOL    HW113969   3.989  12.103  12.083
 4024SOL    HW213970   4.069  12.216  12.020
 4025SOL     OW13971   0.449  10.430   6.156
 4025SOL    HW113972   0.436  10.402   6.065
 4025SOL    HW213973   0.411  10.518   6.160
 4026SOL     OW13974  11.170   8.467   2.712
 4026SOL    HW113975  11.156   8.499   2.623
 4026SOL    HW213976  11.230   8.530   2.751
 4027SOL     OW13977  11.589   3.028   6.675
 4027SOL    HW113978  11.560   2.962   6.737
 4027SOL    HW213979  11.512   3.082   6.659
 4028SOL     OW13980  13.820   9.174   7.478
 4028SOL    HW113981  13.889   9.176   7.544
 4028SOL    HW213982  13.796   9.082   7.471
 4029SOL     OW13983  14.324   9.371   1.372
 4029SOL    HW113984  14.290   9.302   1.316
 4029SOL    HW213985  14.410   9.392   1.336
 4030SOL     OW13986   6.417  11.177  12.084
 4030SOL    HW113987   6.387  11.111  12.021
 4030SOL    HW213988   6.488  11.222  12.038
 4031SOL     OW13989   9.529   9.532   7.769
 4031SOL    HW113990   9.552   9.472   7.699
 4031SOL    HW213991   9.603   9.526   7.831
 4032SOL     OW13992   0.034   8.303   5.343
 4032SOL    HW113993   0.065   8.213   5.349
 4032SOL    HW213994   0.101   8.354   5.389
 4033SOL     OW13995   0.031   5.394   5.640
 4033SOL    HW113996  14.864   5.451   5.707
 4033SOL    HW213997   0.088   5.453   5.590
 4034SOL     OW13998  13.700   1.634   9.306
 4034SOL    HW113999  13.706   1.728   9.287
 4034SOL    HW214000  13.620   1.625   9.357
 4035SOL     OW14001  14.805   6.150   9.181
 4035SOL    HW114002   0.006   6.210   9.163
 4035SOL    HW214003  14.841   6.086   9.242
 4036SOL     OW14004   3.135   4.970   2.066
 4036SOL    HW114005   3.144   5.000   2.157
 4036SOL    HW214006   3.134   5.051   2.015
 4037SOL     OW14007   4.526   4.221   5.635
 4037SOL    HW114008   4.581   4.294   5.606
 4037SOL    HW214009   4.555   4.203   5.724
 4038SOL     OW14010   8.423   4.079   1.028
 4038SOL    HW114011   8.426   4.172   1.007
 4038SOL    HW214012   8.333   4.053   1.011
 4039SOL     OW14013   7.182  14.075   4.796
 4039SOL    HW114014   7.114  14.096   4.732
 4039SOL    HW214015   7.142  14.012   4.855
 4040SOL     OW14016   4.381   0.174  12.140
 4040SOL    HW114017   4.429   0.095  12.113
 4040SOL    HW214018   4.293   0.143  12.158
 4041SOL     OW14019   0.317   3.469  10.079
 4041SOL    HW114020   0.401   3.507  10.103
 4041SOL    HW214021   0.257   3.498  10.149
 4042SOL     OW14022   8.622  11.503  12.864
 4042SOL    HW114023   8.646  11.426  12.814
 4042SOL    HW214024   8.572  11.469  12.939
 4043SOL     OW14025   8.719   5.295   2.580
 4043SOL    HW114026   8.672   5.215   2.558
 4043SOL    HW214027   8.703   5.354   2.506
 4044SOL     OW14028   1.109   7.434   5.651
 4044SOL    HW114029   1.060   7.380   5.713
 4044SOL    HW214030   1.043   7.494   5.615
 4045SOL     OW14031  12.296  11.801   6.570
 4045SOL    HW114032  12.238  11.738   6.614
 4045SOL    HW214033  12.371  11.811   6.629
 4046SOL     OW14034   8.550   6.577   9.581
 4046SOL    HW114035   8.616   6.629   9.535
 4046SOL    HW214036   8.577   6.579   9.673
 4047SOL     OW14037   5.720   1.145   3.070
 4047SOL    HW114038   5.634   1.140   3.028
 4047SOL    HW214039   5.782   1.144   2.997
 4048SOL     OW14040   9.322   5.627   5.625
 4048SOL    HW114041   9.267   5.686   5.574
 4048SOL    HW214042   9.405   5.673   5.634
 4049SOL     OW14043  10.816  12.759  14.117
 4049SOL    HW114044  10.856  12.736  14.201
 4049SOL    HW214045  10.880  12.731  14.052
 4050SOL     OW14046  12.915   1.260   9.188
 4050SOL    HW114047  12.864   1.336   9.218
 4050SOL    HW214048  12.884   1.188   9.243
 4051SOL     OW14049  11.552   2.366  13.343
 4051SOL    HW114050  11.554   2.459  13.367
 4051SOL    HW214051  11.578   2.365  13.251
 4052SOL     OW14052   2.362   1.073   1.811
 4052SOL    HW114053   2.355   1.160   1.851
 4052SOL    HW214054   2.351   1.089   1.717
 4053SOL     OW14055   2.574  11.264   4.131
 4053SOL    HW114056   2.637  11.232   4.195
 4053SOL    HW214057   2.498  11.207   4.141
 4054SOL     OW14058  14.298   6.163   0.494
 4054SOL    HW114059  14.315   6.110   0.416
 4054SOL    HW214060  14.267   6.247   0.461
 4055SOL     OW14061   0.769  10.004   9.471
 4055SOL    HW114062   0.800  10.093   9.487
 4055SOL    HW214063   0.674  10.011   9.474
 4056SOL     OW14064   8.130   8.286   2.153
 4056SOL    HW114065   8.126   8.206   2.101
 4056SOL    HW214066   8.068   8.271   2.224
 4057SOL     OW14067   0.208   2.016   7.036
 4057SOL    HW114068   0.237   1.980   7.119
 4057SOL    HW214069   0.285   2.062   7.002
 4058SOL     OW14070   4.150   2.099   8.959
 4058SOL    HW114071   4.184   2.077   9.045
 4058SOL    HW214072   4.066   2.141   8.976
 4059SOL     OW14073   0.299   4.051  10.773
 4059SOL    HW114074   0.246   4.075  10.697
 4059SOL    HW214075   0.331   4.134  10.807
 4060SOL     OW14076  11.525   3.622   2.427
 4060SOL    HW114077  11.597   3.559   2.435
 4060SOL    HW214078  11.486   3.602   2.342
 4061SOL     OW14079  10.674  11.981   5.488
 4061SOL    HW114080  10.711  11.898   5.458
 4061SOL    HW214081  10.581  11.963   5.502
 4062SOL     OW14082   9.156  13.840   0.496
 4062SOL    HW114083   9.217  13.781   0.452
 4062SOL    HW214084   9.077  13.838   0.442
 4063SOL     OW14085   7.325   9.688  14.394
 4063SOL    HW114086   7.255   9.636  14.357
 4063SOL    HW214087   7.294   9.711  14.482
 4064SOL     OW14088   7.634  11.197   3.302
 4064SOL    HW114089   7.595  11.283   3.282
 4064SOL    HW214090   7.687  11.177   3.224
 4065SOL     OW14091  12.056  11.636   1.760
 4065SOL    HW114092  12.129  11.605   1.707
 4065SOL    HW214093  11.984  11.650   1.698
 4066SOL     OW14094   7.108   8.882  13.943
 4066SOL    HW114095   7.044   8.823  13.903
 4066SOL    HW214096   7.165   8.825  13.994
 4067SOL     OW14097   7.131   3.308  10.424
 4067SOL    HW114098   7.074   3.385  10.420
 4067SOL    HW214099   7.147   3.284  10.333
 4068SOL     OW14100   7.126   4.793   7.203
 4068SOL    HW114101   7.183   4.828   7.271
 4068SOL    HW214102   7.050   4.852   7.202
 4069SOL     OW14103   3.294   7.587   4.692
 4069SOL    HW114104   3.303   7.492   4.679
 4069SOL    HW214105   3.380   7.622   4.669
 4070SOL     OW14106   7.544   0.571   4.001
 4070SOL    HW114107   7.636   0.553   3.984
 4070SOL    HW214108   7.507   0.588   3.914
 4071SOL     OW14109   0.936   4.337   5.582
 4071SOL    HW114110   0.843   4.331   5.606
 4071SOL    HW214111   0.976   4.258   5.617
 4072SOL     OW14112   9.671   3.674  12.575
 4072SOL    HW114113   9.763   3.698  12.586
 4072SOL    HW214114   9.674   3.586  12.538
 4073SOL     OW14115   0.165   0.582  14.605
 4073SOL    HW114116   0.210   0.511  14.559
 4073SOL    HW214117   0.074   0.574  14.578
 4074SOL     OW14118  14.638   1.277  12.165
 4074SOL    HW114119  14.609   1.225  12.090
 4074SOL    HW214120  14.566   1.269  12.229
 4075SOL     OW14121   7.986  11.332   1.276
 4075SOL    HW114122   7.924  11.326   1.203
 4075SOL    HW214123   8.071  11.338   1.234
 4076SOL     OW14124  13.939   3.607   1.553
 4076SOL    HW114125  14.025   3.587   1.590
 4076SOL    HW214126  13.897   3.522   1.541
 4077SOL     OW14127   9.348   9.898   5.267
 4077SOL    HW114128   9.290   9.828   5.297
 4077SOL    HW214129   9.426   9.890   5.322
 4078SOL     OW14130   9.750  10.488   4.296
 4078SOL    HW114131   9.670  10.460   4.250
 4078SOL    HW214132   9.782  10.408   4.338
 4079SOL     OW14133  11.899   3.035   3.039
 4079SOL    HW114134  11.885   3.105   3.103
 4079SOL    HW214135  11.825   2.976   3.051
 4080SOL     OW14136   1.199   7.123   9.934
 4080SOL    HW114137   1.244   7.053   9.887
 4080SOL    HW214138   1.128   7.078   9.981
 4081SOL     OW14139   6.904  10.365   0.882
 4081SOL    HW114140   6.945  10.383   0.966
 4081SOL    HW214141   6.866  10.278   0.891
 4082SOL     OW14142  11.612  14.374   8.910
 4082SOL    HW114143  11.604  14.386   8.815
 4082SOL    HW214144  11.663  14.293   8.919
 4083SOL     OW14145   0.976   7.228  14.863
 4083SOL    HW114146   0.998   7.252  14.774
 4083SOL    HW214147   0.925   7.302   0.025
 4084SOL     OW14148   1.886  12.319   0.210
 4084SOL    HW114149   1.858  12.312   0.119
 4084SOL    HW214150   1.856  12.237   0.251
 4085SOL     OW14151  12.347   3.127   2.420
 4085SOL    HW114152  12.420   3.076   2.383
 4085SOL    HW214153  12.307   3.067   2.483
 4086SOL     OW14154   6.821   3.534   4.241
 4086SOL    HW114155   6.758   3.545   4.170
 4086SOL    HW214156   6.851   3.623   4.261
 4087SOL     OW14157   1.981   0.798  14.541
 4087SOL    HW114158   2.005   0.766  14.454
 4087SOL    HW214159   2.038   0.751  14.601
 4088SOL     OW14160   5.295   1.113   4.659
 4088SOL    HW114161   5.300   1.091   4.752
 4088SOL    HW214162   5.211   1.158   4.649
 4089SOL     OW14163   2.778   1.530   1.213
 4089SOL    HW114164   2.728   1.577   1.280
 4089SOL    HW214165   2.785   1.441   1.247
 4090SOL     OW14166   0.131   3.405   6.930
 4090SOL    HW114167   0.139   3.461   7.007
 4090SOL    HW214168   0.220   3.397   6.897
 4091SOL     OW14169  10.777   0.092   7.697
 4091SOL    HW114170  10.784   0.187   7.691
 4091SOL    HW214171  10.735   0.076   7.782
 4092SOL     OW14172  14.575   8.655   1.384
 4092SOL    HW114173  14.664   8.621   1.383
 4092SOL    HW214174  14.581   8.738   1.432
 4093SOL     OW14175   9.340   1.237   9.731
 4093SOL    HW114176   9.382   1.192   9.658
 4093SOL    HW214177   9.413   1.264   9.787
 4094SOL     OW14178  10.844   9.863   2.144
 4094SOL    HW114179  10.799   9.782   2.168
 4094SOL    HW214180  10.838   9.918   2.222
 4095SOL     OW14181   4.850  11.741   8.342
 4095SOL    HW114182   4.819  11.771   8.427
 4095SOL    HW214183   4.945  11.737   8.350
 4096SOL     OW14184  13.374   9.653  12.827
 4096SOL    HW114185  13.285   9.645  12.859
 4096SOL    HW214186  13.367   9.637  12.733
 4097SOL     OW14187  14.020  12.757   8.590
 4097SOL    HW114188  14.034  12.851   8.584
 4097SOL    HW214189  14.083  12.719   8.529
 4098SOL     OW14190   5.763   9.994   6.526
 4098SOL    HW114191   5.807   9.950   6.454
 4098SOL    HW214192   5.810   9.965   6.604
 4099SOL     OW14193   7.343   3.598   2.930
 4099SOL    HW114194   7.249   3.615   2.915
 4099SOL    HW214195   7.381   3.596   2.842
 4100SOL     OW14196   5.915  13.292  13.789
 4100SOL    HW114197   5.877  13.369  13.831
 4100SOL    HW214198   5.905  13.222  13.853
 4101SOL     OW14199   8.377   9.351  12.177
 4101SOL    HW114200   8.350   9.423  12.120
 4101SOL    HW214201   8.301   9.295  12.183
 4102SOL     OW14202  12.174   8.745  14.467
 4102SOL    HW114203  12.238   8.729  14.536
 4102SOL    HW214204  12.227   8.759  14.388
 4103SOL     OW14205  14.482   0.035   9.102
 4103SOL    HW114206  14.459   0.022   9.194
 4103SOL    HW214207  14.529   0.119   9.101
 4104SOL     OW14208   3.254  12.553   1.489
 4104SOL    HW114209   3.236  12.483   1.427
 4104SOL    HW214210   3.295  12.510   1.564
 4105SOL     OW14211   5.303   9.146   5.805
 4105SOL    HW114212   5.248   9.074   5.835
 4105SOL    HW214213   5.379   9.144   5.864
 4106SOL     OW14214  14.366   8.789   3.567
 4106SOL    HW114215  14.316   8.771   3.646
 4106SOL    HW214216  14.341   8.878   3.543
 4107SOL     OW14217  13.817   5.755  13.177
 4107SOL    HW114218  13.819   5.851  13.185
 4107SOL    HW214219  13.870   5.724  13.250
 4108SOL     OW14220   8.661  13.429  11.305
 4108SOL    HW114221   8.635  13.518  11.328
 4108SOL    HW214222   8.716  13.400  11.378
 4109SOL     OW14223   6.919   4.849   8.204
 4109SOL    HW114224   6.904   4.936   8.167
 4109SOL    HW214225   6.888   4.856   8.294
 4110SOL     OW14226   8.756   7.000  14.026
 4110SOL    HW114227   8.805   6.990  14.108
 4110SOL    HW214228   8.665   6.979  14.050
 4111SOL     OW14229   2.504   1.365   3.361
 4111SOL    HW114230   2.475   1.401   3.444
 4111SOL    HW214231   2.449   1.409   3.295
 4112SOL     OW14232   7.073  13.364   7.941
 4112SOL    HW114233   7.025  13.283   7.922
 4112SOL    HW214234   7.154  13.335   7.984
 4113SOL     OW14235   4.682   1.780  14.361
 4113SOL    HW114236   4.676   1.857  14.418
 4113SOL    HW214237   4.756   1.798  14.304
 4114SOL     OW14238  10.097   4.007  11.261
 4114SOL    HW114239  10.046   3.952  11.201
 4114SOL    HW214240  10.116   4.086  11.211
 4115SOL     OW14241   0.562   0.141   0.457
 4115SOL    HW114242   0.558   0.102   0.544
 4115SOL    HW214243   0.563   0.235   0.472
 4116SOL     OW14244  11.837   7.085   2.405
 4116SOL    HW114245  11.904   7.038   2.354
 4116SOL    HW214246  11.807   7.021   2.470
 4117SOL     OW14247   1.661  14.369   5.154
 4117SOL    HW114248   1.663  14.390   5.060
 4117SOL    HW214249   1.607  14.290   5.159
 4118SOL     OW14250   6.948   7.461   3.055
 4118SOL    HW114251   6.998   7.464   2.973
 4118SOL    HW214252   6.925   7.552   3.073
 4119SOL     OW14253   4.130   5.711   0.782
 4119SOL    HW114254   4.152   5.618   0.778
 4119SOL    HW214255   4.196   5.754   0.727
 4120SOL     OW14256  13.988   1.975  13.674
 4120SOL    HW114257  14.042   1.936  13.743
 4120SOL    HW214258  14.043   2.042  13.636
 4121SOL     OW14259  10.924   6.741  11.179
 4121SOL    HW114260  10.851   6.794  11.212
 4121SOL    HW214261  10.935   6.671  11.243
 4122SOL     OW14262   6.189   6.028  12.261
 4122SOL    HW114263   6.275   6.017  12.302
 4122SOL    HW214264   6.159   6.114  12.292
 4123SOL     OW14265  13.927  14.214   5.665
 4123SOL    HW114266  13.947  14.275   5.594
 4123SOL    HW214267  13.928  14.267   5.744
 4124SOL     OW14268   1.540   4.738  11.243
 4124SOL    HW114269   1.543   4.795  11.319
 4124SOL    HW214270   1.525   4.798  11.169
 4125SOL     OW14271   6.718   7.555  14.580
 4125SOL    HW114272   6.695   7.648  14.576
 4125SOL    HW214273   6.798   7.547  14.529
 4126SOL     OW14274   2.344   6.154   4.723
 4126SOL    HW114275   2.417   6.094   4.740
 4126SOL    HW214276   2.297   6.159   4.805
 4127SOL     OW14277  10.455   6.697  11.511
 4127SOL    HW114278  10.373   6.655  11.537
 4127SOL    HW214279  10.519   6.627  11.511
 4128SOL     OW14280  10.211   5.728   7.757
 4128SOL    HW114281  10.116   5.727   7.769
 4128SOL    HW214282  10.230   5.648   7.709
 4129SOL     OW14283   3.144   3.603   1.157
 4129SOL    HW114284   3.117   3.638   1.073
 4129SOL    HW214285   3.240   3.605   1.155
 4130SOL     OW14286   7.216   0.908   2.138
 4130SOL    HW114287   7.144   0.900   2.200
 4130SOL    HW214288   7.176   0.944   2.059
 4131SOL     OW14289   7.204   2.589  14.776
 4131SOL    HW114290   7.120   2.588  14.821
 4131SOL    HW214291   7.242   2.675  14.795
 4132SOL     OW14292   4.846   4.681   8.303
 4132SOL    HW114293   4.939   4.679   8.324
 4132SOL    HW214294   4.841   4.648   8.213
 4133SOL     OW14295   5.759  13.074   2.847
 4133SOL    HW114296   5.840  13.036   2.882
 4133SOL    HW214297   5.690  13.016   2.879
 4134SOL     OW14298   2.959   1.282   6.327
 4134SOL    HW114299   2.960   1.193   6.362
 4134SOL    HW214300   2.964   1.338   6.404
 4135SOL     OW14301  12.842  10.266   0.822
 4135SOL    HW114302  12.870  10.292   0.734
 4135SOL    HW214303  12.816  10.174   0.813
 4136SOL     OW14304   6.814   7.839   0.027
 4136SOL    HW114305   6.840   7.912  14.843
 4136SOL    HW214306   6.861   7.763  14.863
 4137SOL     OW14307   6.858   5.368   9.776
 4137SOL    HW114308   6.904   5.291   9.809
 4137SOL    HW214309   6.879   5.437   9.839
 4138SOL     OW14310  13.136   1.108   8.519
 4138SOL    HW114311  13.155   1.062   8.601
 4138SOL    HW214312  13.209   1.085   8.462
 4139SOL     OW14313   0.527   6.946  14.161
 4139SOL    HW114314   0.491   7.027  14.127
 4139SOL    HW214315   0.496   6.942  14.252
 4140SOL     OW14316   1.033   4.064   5.158
 4140SOL    HW114317   1.102   4.002   5.133
 4140SOL    HW214318   1.053   4.086   5.249
 4141SOL     OW14319  10.455   7.391   9.632
 4141SOL    HW114320  10.516   7.382   9.559
 4141SOL    HW214321  10.462   7.308   9.680
 4142SOL     OW14322   5.630  13.441   7.571
 4142SOL    HW114323   5.708  13.412   7.619
 4142SOL    HW214324   5.571  13.366   7.575
 4143SOL     OW14325   4.244   4.132   6.971
 4143SOL    HW114326   4.236   4.131   7.067
 4143SOL    HW214327   4.330   4.171   6.955
 4144SOL     OW14328  12.175   0.852   5.632
 4144SOL    HW114329  12.135   0.848   5.545
 4144SOL    HW214330  12.101   0.866   5.691
 4145SOL     OW14331  11.698   3.160   5.535
 4145SOL    HW114332  11.664   3.216   5.465
 4145SOL    HW214333  11.645   3.183   5.612
 4146SOL     OW14334  13.258  10.070   2.248
 4146SOL    HW114335  13.174  10.061   2.293
 4146SOL    HW214336  13.302  10.142   2.294
 4147SOL     OW14337  13.515  12.309   6.038
 4147SOL    HW114338  13.512  12.288   5.944
 4147SOL    HW214339  13.500  12.225   6.081
 4148SOL     OW14340   2.912   4.324  12.790
 4148SOL    HW114341   2.831   4.273  12.782
 4148SOL    HW214342   2.888   4.411  12.757
 4149SOL     OW14343   7.059   5.686   2.637
 4149SOL    HW114344   7.043   5.630   2.713
 4149SOL    HW214345   7.089   5.626   2.569
 4150SOL     OW14346  11.860   8.898   5.202
 4150SOL    HW114347  11.868   8.829   5.137
 4150SOL    HW214348  11.788   8.869   5.258
 4151SOL     OW14349   6.786   5.002  11.497
 4151SOL    HW114350   6.767   5.042  11.413
 4151SOL    HW214351   6.718   4.936  11.509
 4152SOL     OW14352  10.669   2.123   3.744
 4152SOL    HW114353  10.626   2.099   3.826
 4152SOL    HW214354  10.685   2.039   3.701
 4153SOL     OW14355   5.376   2.534  10.054
 4153SOL    HW114356   5.356   2.480   9.977
 4153SOL    HW214357   5.313   2.606  10.049
 4154SOL     OW14358   2.807   1.986  11.342
 4154SOL    HW114359   2.712   1.993  11.340
 4154SOL    HW214360   2.831   1.992  11.434
 4155SOL     OW14361   3.479   8.123  13.995
 4155SOL    HW114362   3.559   8.145  13.948
 4155SOL    HW214363   3.492   8.033  14.024
 4156SOL     OW14364   0.196   9.991   1.109
 4156SOL    HW114365   0.287   9.971   1.088
 4156SOL    HW214366   0.184   9.955   1.197
 4157SOL     OW14367  10.726   0.607   4.239
 4157SOL    HW114368  10.782   0.598   4.316
 4157SOL    HW214369  10.646   0.647   4.272
 4158SOL     OW14370  14.551   5.497   5.278
 4158SOL    HW114371  14.456   5.494   5.280
 4158SOL    HW214372  14.577   5.411   5.244
 4159SOL     OW14373  14.809   6.305   5.977
 4159SOL    HW114374  14.753   6.371   5.937
 4159SOL    HW214375  14.807   6.326   6.071
 4160SOL     OW14376   3.231   5.926   7.186
 4160SOL    HW114377   3.201   5.949   7.274
 4160SOL    HW214378   3.327   5.928   7.192
 4161SOL     OW14379  12.025   7.381   9.112
 4161SOL    HW114380  12.065   7.354   9.029
 4161SOL    HW214381  12.013   7.300   9.161
 4162SOL     OW14382   2.719   3.811  10.571
 4162SOL    HW114383   2.786   3.844  10.631
 4162SOL    HW214384   2.698   3.723  10.603
 4163SOL     OW14385   8.422  11.949   3.653
 4163SOL    HW114386   8.424  11.857   3.680
 4163SOL    HW214387   8.348  11.955   3.593
 4164SOL     OW14388  14.095  12.234   1.801
 4164SOL    HW114389  14.120  12.158   1.749
 4164SOL    HW214390  14.093  12.306   1.738
 4165SOL     OW14391   8.451   0.855  10.998
 4165SOL    HW114392   8.464   0.815  11.084
 4165SOL    HW214393   8.482   0.945  11.009
 4166SOL     OW14394  10.753  12.330  13.585
 4166SOL    HW114395  10.780  12.339  13.493
 4166SOL    HW214396  10.691  12.401  13.599
 4167SOL     OW14397   7.330  12.429   8.039
 4167SOL    HW114398   7.369  12.475   8.113
 4167SOL    HW214399   7.283  12.497   7.991
 4168SOL     OW14400  10.713  13.780   4.137
 4168SOL    HW114401  10.621  13.785   4.111
 4168SOL    HW214402  10.753  13.721   4.074
 4169SOL     OW14403   2.691   3.859   8.261
 4169SOL    HW114404   2.711   3.941   8.305
 4169SOL    HW214405   2.656   3.802   8.331
 4170SOL     OW14406   6.685   1.882   9.011
 4170SOL    HW114407   6.598   1.843   9.013
 4170SOL    HW214408   6.744   1.810   9.033
 4171SOL     OW14409   6.461   5.408   4.004
 4171SOL    HW114410   6.510   5.490   3.999
 4171SOL    HW214411   6.396   5.423   4.073
 4172SOL     OW14412   6.557   0.156   4.871
 4172SOL    HW114413   6.504   0.095   4.922
 4172SOL    HW214414   6.647   0.125   4.883
 4173SOL     OW14415   3.264   7.227   6.317
 4173SOL    HW114416   3.237   7.135   6.326
 4173SOL    HW214417   3.246   7.249   6.226
 4174SOL     OW14418   6.673  10.023   2.892
 4174SOL    HW114419   6.704   9.933   2.896
 4174SOL    HW214420   6.749  10.074   2.865
 4175SOL     OW14421   6.834  13.648   5.214
 4175SOL    HW114422   6.741  13.640   5.232
 4175SOL    HW214423   6.838  13.679   5.123
 4176SOL     OW14424   4.922   9.290   3.119
 4176SOL    HW114425   4.958   9.356   3.178
 4176SOL    HW214426   4.910   9.337   3.036
 4177SOL     OW14427   2.005  10.458  10.734
 4177SOL    HW114428   1.937  10.449  10.668
 4177SOL    HW214429   1.964  10.431  10.816
 4178SOL     OW14430  12.825   7.777   9.819
 4178SOL    HW114431  12.732   7.795   9.835
 4178SOL    HW214432  12.870   7.818   9.892
 4179SOL     OW14433   7.785   7.036  14.134
 4179SOL    HW114434   7.760   7.030  14.042
 4179SOL    HW214435   7.706   7.011  14.182
 4180SOL     OW14436   4.913   1.560   9.179
 4180SOL    HW114437   4.972   1.487   9.197
 4180SOL    HW214438   4.879   1.543   9.091
 4181SOL     OW14439   1.349   1.360   2.548
 4181SOL    HW114440   1.297   1.441   2.550
 4181SOL    HW214441   1.388   1.359   2.461
 4182SOL     OW14442   6.989  10.858  13.090
 4182SOL    HW114443   6.994  10.762  13.087
 4182SOL    HW214444   7.029  10.886  13.007
 4183SOL     OW14445   9.393   7.683   7.873
 4183SOL    HW114446   9.313   7.632   7.885
 4183SOL    HW214447   9.436   7.682   7.958
 4184SOL     OW14448   3.827  11.233  10.931
 4184SOL    HW114449   3.906  11.259  10.883
 4184SOL    HW214450   3.760  11.295  10.903
 4185SOL     OW14451   3.171   5.417   3.949
 4185SOL    HW114452   3.177   5.336   3.999
 4185SOL    HW214453   3.101   5.467   3.990
 4186SOL     OW14454   1.269   2.605   3.323
 4186SOL    HW114455   1.261   2.512   3.342
 4186SOL    HW214456   1.219   2.648   3.392
 4187SOL     OW14457   5.797   9.633   1.611
 4187SOL    HW114458   5.724   9.577   1.635
 4187SOL    HW214459   5.793   9.639   1.516
 4188SOL     OW14460  11.550  11.025   6.505
 4188SOL    HW114461  11.455  11.029   6.495
 4188SOL    HW214462  11.572  10.935   6.482
 4189SOL     OW14463   5.487   6.772   0.256
 4189SOL    HW114464   5.450   6.725   0.331
 4189SOL    HW214465   5.518   6.703   0.198
 4190SOL     OW14466  11.447  12.478   1.523
 4190SOL    HW114467  11.393  12.557   1.533
 4190SOL    HW214468  11.504  12.497   1.449
 4191SOL     OW14469   9.033   8.785   8.756
 4191SOL    HW114470   9.090   8.725   8.804
 4191SOL    HW214471   8.991   8.730   8.690
 4192SOL     OW14472  12.152  13.722   7.971
 4192SOL    HW114473  12.112  13.641   8.003
 4192SOL    HW214474  12.225  13.692   7.916
 4193SOL     OW14475  13.831   5.262   6.580
 4193SOL    HW114476  13.797   5.266   6.490
 4193SOL    HW214477  13.779   5.326   6.628
 4194SOL     OW14478   3.649  10.864   6.690
 4194SOL    HW114479   3.614  10.790   6.641
 4194SOL    HW214480   3.591  10.937   6.668
 4195SOL     OW14481   6.772  10.142  14.247
 4195SOL    HW114482   6.756  10.048  14.261
 4195SOL    HW214483   6.821  10.170  14.324
 4196SOL     OW14484   1.816   7.280   4.551
 4196SOL    HW114485   1.758   7.211   4.582
 4196SOL    HW214486   1.757   7.350   4.523
 4197SOL     OW14487   3.040   0.360   2.451
 4197SOL    HW114488   3.071   0.450   2.445
 4197SOL    HW214489   3.046   0.326   2.361
 4198SOL     OW14490  11.901   4.680  13.915
 4198SOL    HW114491  11.940   4.708  13.998
 4198SOL    HW214492  11.849   4.603  13.938
 4199SOL     OW14493  12.444   6.615   5.649
 4199SOL    HW114494  12.375   6.579   5.594
 4199SOL    HW214495  12.510   6.648   5.587
 4200SOL     OW14496   2.204   5.208   5.180
 4200SOL    HW114497   2.272   5.213   5.112
 4200SOL    HW214498   2.140   5.274   5.155
 4201SOL     OW14499  13.362   6.981   8.448
 4201SOL    HW114500  13.341   6.937   8.365
 4201SOL    HW214501  13.299   7.053   8.453
 4202SOL     OW14502  13.346   0.883  11.820
 4202SOL    HW114503  13.375   0.799  11.857
 4202SOL    HW214504  13.422   0.917  11.774
 4203SOL     OW14505   3.035   8.475   4.075
 4203SOL    HW114506   3.011   8.422   3.999
 4203SOL    HW214507   3.066   8.412   4.140
 4204SOL     OW14508  10.690  11.767   6.402
 4204SOL    HW114509  10.637  11.732   6.473
 4204SOL    HW214510  10.643  11.743   6.322
 4205SOL     OW14511   4.183   3.392   7.032
 4205SOL    HW114512   4.097   3.397   6.991
 4205SOL    HW214513   4.245   3.383   6.959
 4206SOL     OW14514   2.395  14.651  13.695
 4206SOL    HW114515   2.486  14.630  13.718
 4206SOL    HW214516   2.350  14.655  13.779
 4207SOL     OW14517   7.196   6.568  10.908
 4207SOL    HW114518   7.262   6.535  10.969
 4207SOL    HW214519   7.221   6.660  10.893
 4208SOL     OW14520   1.945   1.367   9.473
 4208SOL    HW114521   1.927   1.435   9.537
 4208SOL    HW214522   1.959   1.414   9.391
 4209SOL     OW14523   0.746   9.480   3.722
 4209SOL    HW114524   0.812   9.412   3.733
 4209SOL    HW214525   0.737   9.519   3.808
 4210SOL     OW14526  10.624  10.822   2.742
 4210SOL    HW114527  10.594  10.816   2.832
 4210SOL    HW214528  10.676  10.902   2.739
 4211SOL     OW14529   7.707  12.823  14.852
 4211SOL    HW114530   7.720  12.731   0.002
 4211SOL    HW214531   7.794  12.855  14.828
 4212SOL     OW14532  11.927   6.377  12.641
 4212SOL    HW114533  11.862   6.443  12.617
 4212SOL    HW214534  11.932   6.320  12.564
 4213SOL     OW14535  13.979   9.989   2.436
 4213SOL    HW114536  13.932  10.034   2.365
 4213SOL    HW214537  13.916   9.925   2.470
 4214SOL     OW14538   6.431  13.881   8.864
 4214SOL    HW114539   6.420  13.857   8.955
 4214SOL    HW214540   6.519  13.920   8.860
 4215SOL     OW14541   5.187   7.771   2.830
 4215SOL    HW114542   5.095   7.797   2.823
 4215SOL    HW214543   5.220   7.821   2.904
 4216SOL     OW14544  12.637  10.740   1.047
 4216SOL    HW114545  12.587  10.812   1.085
 4216SOL    HW214546  12.570  10.681   1.012
 4217SOL     OW14547  10.258   3.009   8.338
 4217SOL    HW114548  10.186   3.039   8.393
 4217SOL    HW214549  10.242   2.915   8.326
 4218SOL     OW14550  14.227   8.469   8.954
 4218SOL    HW114551  14.206   8.522   9.031
 4218SOL    HW214552  14.210   8.379   8.982
 4219SOL     OW14553  13.287   7.415   3.658
 4219SOL    HW114554  13.236   7.452   3.586
 4219SOL    HW214555  13.297   7.323   3.635
 4220SOL     OW14556  12.150   1.794   2.026
 4220SOL    HW114557  12.175   1.874   2.071
 4220SOL    HW214558  12.184   1.805   1.937
 4221SOL     OW14559  14.340  13.179   5.462
 4221SOL    HW114560  14.369  13.089   5.476
 4221SOL    HW214561  14.395  13.212   5.391
 4222SOL     OW14562   9.222  13.004   3.893
 4222SOL    HW114563   9.257  13.092   3.885
 4222SOL    HW214564   9.240  12.978   3.984
 4223SOL     OW14565   1.033   1.315  14.235
 4223SOL    HW114566   1.011   1.299  14.143
 4223SOL    HW214567   1.122   1.282  14.245
 4224SOL     OW14568   5.918  14.679   5.430
 4224SOL    HW114569   5.915  14.679   5.526
 4224SOL    HW214570   6.007  14.705   5.409
 4225SOL     OW14571   4.334   6.068   8.884
 4225SOL    HW114572   4.241   6.046   8.882
 4225SOL    HW214573   4.353   6.081   8.977
 4226SOL     OW14574   5.098  14.122   7.281
 4226SOL    HW114575   5.105  14.213   7.251
 4226SOL    HW214576   5.024  14.087   7.232
 4227SOL     OW14577  10.099   0.616   0.313
 4227SOL    HW114578  10.118   0.564   0.235
 4227SOL    HW214579  10.008   0.594   0.335
 4228SOL     OW14580   3.985   3.884   2.969
 4228SOL    HW114581   3.962   3.849   2.883
 4228SOL    HW214582   4.079   3.904   2.963
 4229SOL     OW14583   2.174   2.226   8.655
 4229SOL    HW114584   2.110   2.244   8.586
 4229SOL    HW214585   2.160   2.297   8.719
 4230SOL     OW14586   7.183   7.625  10.431
 4230SOL    HW114587   7.234   7.587  10.360
 4230SOL    HW214588   7.105   7.660  10.389
 4231SOL     OW14589   6.325  12.732   7.284
 4231SOL    HW114590   6.302  12.797   7.351
 4231SOL    HW214591   6.359  12.783   7.211
 4232SOL     OW14592  13.882   2.793   3.396
 4232SOL    HW114593  13.901   2.871   3.447
 4232SOL    HW214594  13.871   2.723   3.461
 4233SOL     OW14595  12.256   6.230  12.436
 4233SOL    HW114596  12.322   6.226  12.367
 4233SOL    HW214597  12.306   6.237  12.518
 4234SOL     OW14598   5.791  12.741  12.924
 4234SOL    HW114599   5.885  12.749  12.907
 4234SOL    HW214600   5.780  12.777  13.012
 4235SOL     OW14601   9.021   2.844   8.931
 4235SOL    HW114602   8.975   2.797   9.001
 4235SOL    HW214603   8.952   2.872   8.871
 4236SOL     OW14604  10.604   9.377  13.711
 4236SOL    HW114605  10.518   9.409  13.736
 4236SOL    HW214606  10.649   9.363  13.794
 4237SOL     OW14607   5.982  12.659   3.095
 4237SOL    HW114608   5.979  12.739   3.149
 4237SOL    HW214609   6.040  12.681   3.023
 4238SOL     OW14610  13.640  14.227  13.934
 4238SOL    HW114611  13.547  14.228  13.912
 4238SOL    HW214612  13.658  14.314  13.968
 4239SOL     OW14613  12.246   0.226  11.992
 4239SOL    HW114614  12.234   0.245  11.899
 4239SOL    HW214615  12.157   0.226  12.028
 4240SOL     OW14616   9.262   2.554   2.509
 4240SOL    HW114617   9.301   2.631   2.467
 4240SOL    HW214618   9.180   2.540   2.462
 4241SOL     OW14619  11.373   2.706  10.726
 4241SOL    HW114620  11.382   2.629  10.781
 4241SOL    HW214621  11.453   2.757  10.742
 4242SOL     OW14622   6.460   4.493   9.791
 4242SOL    HW114623   6.511   4.507   9.871
 4242SOL    HW214624   6.386   4.554   9.798
 4243SOL     OW14625  13.885   3.424  13.665
 4243SOL    HW114626  13.836   3.353  13.707
 4243SOL    HW214627  13.832   3.502  13.679
 4244SOL     OW14628   0.018  12.932  13.424
 4244SOL    HW114629  14.847  12.872  13.486
 4244SOL    HW214630  14.865  12.899  13.338
 4245SOL     OW14631  13.275   2.940   9.958
 4245SOL    HW114632  13.223   3.010   9.997
 4245SOL    HW214633  13.255   2.863  10.011
 4246SOL     OW14634   3.254   7.946   1.211
 4246SOL    HW114635   3.265   8.041   1.206
 4246SOL    HW214636   3.165   7.933   1.243
 4247SOL     OW14637   9.591   7.244   3.717
 4247SOL    HW114638   9.614   7.167   3.769
 4247SOL    HW214639   9.499   7.260   3.736
 4248SOL     OW14640  12.745   1.845   6.305
 4248SOL    HW114641  12.730   1.939   6.306
 4248SOL    HW214642  12.671   1.807   6.351
 4249SOL     OW14643   2.981  11.152   0.864
 4249SOL    HW114644   3.045  11.194   0.807
 4249SOL    HW214645   2.896  11.178   0.830
 4250SOL     OW14646  13.963   7.252  14.197
 4250SOL    HW114647  13.971   7.229  14.289
 4250SOL    HW214648  13.918   7.177  14.157
 4251SOL     OW14649   0.364   8.581   0.953
 4251SOL    HW114650   0.406   8.663   0.980
 4251SOL    HW214651   0.326   8.546   1.034
 4252SOL     OW14652   3.201   0.429   6.122
 4252SOL    HW114653   3.196   0.510   6.070
 4252SOL    HW214654   3.127   0.376   6.090
 4253SOL     OW14655   2.933  14.823   3.567
 4253SOL    HW114656   2.883  14.784   3.494
 4253SOL    HW214657   3.003  14.760   3.584
 4254SOL     OW14658   7.481  12.243   9.224
 4254SOL    HW114659   7.403  12.291   9.251
 4254SOL    HW214660   7.449  12.157   9.197
 4255SOL     OW14661   0.944   3.572  11.687
 4255SOL    HW114662   0.908   3.583  11.599
 4255SOL    HW214663   0.917   3.484  11.714
 4256SOL     OW14664   5.383   3.427  11.238
 4256SOL    HW114665   5.446   3.470  11.297
 4256SOL    HW214666   5.297   3.449  11.275
 4257SOL     OW14667   0.056  13.331   9.339
 4257SOL    HW114668   0.025  13.241   9.334
 4257SOL    HW214669   0.143  13.328   9.298
 4258SOL     OW14670   3.548   3.028  14.029
 4258SOL    HW114671   3.625   3.065  14.073
 4258SOL    HW214672   3.475   3.047  14.088
 4259SOL     OW14673   0.268   8.608   7.793
 4259SOL    HW114674   0.248   8.663   7.869
 4259SOL    HW214675   0.239   8.659   7.718
 4260SOL     OW14676   8.493   9.660   8.192
 4260SOL    HW114677   8.412   9.708   8.174
 4260SOL    HW214678   8.515   9.682   8.282
 4261SOL     OW14679   1.310   8.828  11.578
 4261SOL    HW114680   1.268   8.818  11.664
 4261SOL    HW214681   1.294   8.744  11.534
 4262SOL     OW14682   6.998  13.285  10.445
 4262SOL    HW114683   7.016  13.308  10.354
 4262SOL    HW214684   7.077  13.309  10.492
 4263SOL     OW14685  11.266  12.528   8.845
 4263SOL    HW114686  11.211  12.450   8.851
 4263SOL    HW214687  11.204  12.601   8.839
 4264SOL     OW14688   2.219   4.750   1.401
 4264SOL    HW114689   2.287   4.793   1.452
 4264SOL    HW214690   2.213   4.801   1.320
 4265SOL     OW14691   8.127   2.968   4.214
 4265SOL    HW114692   8.033   2.971   4.232
 4265SOL    HW214693   8.139   3.027   4.140
 4266SOL     OW14694   5.061  13.131   5.902
 4266SOL    HW114695   5.082  13.080   5.824
 4266SOL    HW214696   4.967  13.117   5.915
 4267SOL     OW14697   3.235  10.979   7.265
 4267SOL    HW114698   3.207  11.049   7.324
 4267SOL    HW214699   3.308  10.937   7.310
 4268SOL     OW14700   2.105   1.425   1.756
 4268SOL    HW114701   2.057   1.367   1.816
 4268SOL    HW214702   2.044   1.496   1.737
 4269SOL     OW14703   4.743   5.145   5.290
 4269SOL    HW114704   4.720   5.052   5.290
 4269SOL    HW214705   4.727   5.174   5.201
 4270SOL     OW14706   5.507   3.106   7.545
 4270SOL    HW114707   5.593   3.064   7.544
 4270SOL    HW214708   5.522   3.193   7.582
 4271SOL     OW14709   4.088   7.572  12.555
 4271SOL    HW114710   4.014   7.512  12.564
 4271SOL    HW214711   4.142   7.556  12.632
 4272SOL     OW14712  13.338   8.155   7.816
 4272SOL    HW114713  13.284   8.192   7.747
 4272SOL    HW214714  13.353   8.064   7.788
 4273SOL     OW14715   1.237   4.800   2.465
 4273SOL    HW114716   1.150   4.767   2.489
 4273SOL    HW214717   1.291   4.780   2.541
 4274SOL     OW14718  12.119   9.956   7.664
 4274SOL    HW114719  12.117   9.984   7.755
 4274SOL    HW214720  12.027   9.952   7.637
 4275SOL     OW14721   3.565  12.556   4.685
 4275SOL    HW114722   3.518  12.547   4.768
 4275SOL    HW214723   3.504  12.522   4.619
 4276SOL     OW14724   0.747  14.525   9.528
 4276SOL    HW114725   0.714  14.525   9.618
 4276SOL    HW214726   0.805  14.450   9.523
 4277SOL     OW14727  12.359   7.638   2.696
 4277SOL    HW114728  12.421   7.610   2.764
 4277SOL    HW214729  12.289   7.572   2.700
 4278SOL     OW14730   7.256   7.225   9.378
 4278SOL    HW114731   7.298   7.287   9.437
 4278SOL    HW214732   7.242   7.274   9.297
 4279SOL     OW14733  14.726  14.043   0.152
 4279SOL    HW114734  14.644  14.008   0.188
 4279SOL    HW214735  14.794  14.008   0.210
 4280SOL     OW14736   0.143   0.375   0.224
 4280SOL    HW114737   0.150   0.406   0.133
 4280SOL    HW214738   0.070   0.425   0.261
 4281SOL     OW14739  11.009   9.215   6.127
 4281SOL    HW114740  10.969   9.148   6.071
 4281SOL    HW214741  11.075   9.256   6.071
 4282SOL     OW14742   1.667   9.744   4.069
 4282SOL    HW114743   1.638   9.738   3.978
 4282SOL    HW214744   1.751   9.697   4.071
 4283SOL     OW14745   5.947   1.640  10.854
 4283SOL    HW114746   5.881   1.588  10.900
 4283SOL    HW214747   5.900   1.681  10.782
 4284SOL     OW14748  12.990   0.374   0.095
 4284SOL    HW114749  13.003   0.372   0.190
 4284SOL    HW214750  12.966   0.284   0.072
 4285SOL     OW14751   4.244  13.789  10.501
 4285SOL    HW114752   4.187  13.865  10.488
 4285SOL    HW214753   4.268  13.762  10.413
 4286SOL     OW14754   6.679   1.618   4.428
 4286SOL    HW114755   6.588   1.630   4.454
 4286SOL    HW214756   6.703   1.534   4.466
 4287SOL     OW14757   2.742   3.533  10.878
 4287SOL    HW114758   2.660   3.575  10.903
 4287SOL    HW214759   2.728   3.440  10.897
 4288SOL     OW14760   2.295   9.231  14.112
 4288SOL    HW114761   2.294   9.244  14.017
 4288SOL    HW214762   2.276   9.138  14.124
 4289SOL     OW14763   3.335  10.407   1.001
 4289SOL    HW114764   3.284  10.327   0.987
 4289SOL    HW214765   3.276  10.478   0.974
 4290SOL     OW14766   4.450   2.140   3.911
 4290SOL    HW114767   4.423   2.231   3.923
 4290SOL    HW214768   4.469   2.132   3.818
 4291SOL     OW14769   2.417   9.918   9.774
 4291SOL    HW114770   2.351   9.959   9.718
 4291SOL    HW214771   2.450   9.990   9.828
 4292SOL     OW14772  11.618   5.387   2.024
 4292SOL    HW114773  11.673   5.310   2.010
 4292SOL    HW214774  11.655   5.454   1.966
 4293SOL     OW14775  14.615  12.490   7.546
 4293SOL    HW114776  14.606  12.586   7.552
 4293SOL    HW214777  14.614  12.461   7.637
 4294SOL     OW14778   8.955   4.834  14.866
 4294SOL    HW114779   9.036   4.885  14.855
 4294SOL    HW214780   8.911   4.875   0.069
 4295SOL     OW14781  10.837  14.409  10.645
 4295SOL    HW114782  10.882  14.345  10.701
 4295SOL    HW214783  10.821  14.484  10.703
 4296SOL     OW14784   3.960  13.647   9.566
 4296SOL    HW114785   3.895  13.708   9.601
 4296SOL    HW214786   3.912  13.567   9.550
 4297SOL     OW14787  14.842  12.410   9.115
 4297SOL    HW114788  14.847  12.443   9.205
 4297SOL    HW214789   0.058  12.378   9.096
 4298SOL     OW14790   5.662   6.264  12.159
 4298SOL    HW114791   5.724   6.231  12.224
 4298SOL    HW214792   5.603   6.190  12.143
 4299SOL     OW14793   0.747  12.591   2.245
 4299SOL    HW114794   0.722  12.562   2.157
 4299SOL    HW214795   0.827  12.541   2.265
 4300SOL     OW14796  11.193   8.660   6.382
 4300SOL    HW114797  11.110   8.624   6.413
 4300SOL    HW214798  11.176   8.753   6.370
 4301SOL     OW14799  12.861  14.483   9.063
 4301SOL    HW114800  12.876  14.405   9.117
 4301SOL    HW214801  12.913  14.467   8.984
 4302SOL     OW14802   0.577  13.579   5.364
 4302SOL    HW114803   0.619  13.615   5.442
 4302SOL    HW214804   0.589  13.647   5.297
 4303SOL     OW14805   8.617   4.722  12.296
 4303SOL    HW114806   8.613   4.630  12.269
 4303SOL    HW214807   8.540   4.762  12.255
 4304SOL     OW14808   2.352  11.026   6.505
 4304SOL    HW114809   2.258  11.009   6.499
 4304SOL    HW214810   2.379  11.044   6.415
 4305SOL     OW14811   6.788  13.416  10.112
 4305SOL    HW114812   6.723  13.383  10.051
 4305SOL    HW214813   6.742  13.481  10.165
 4306SOL     OW14814   5.938  14.287   0.332
 4306SOL    HW114815   6.014  14.252   0.380
 4306SOL    HW214816   5.907  14.359   0.386
 4307SOL     OW14817   0.468   1.952  11.761
 4307SOL    HW114818   0.412   1.902  11.820
 4307SOL    HW214819   0.472   1.901  11.681
 4308SOL     OW14820  10.256   6.048   0.029
 4308SOL    HW114821  10.299   6.133   0.017
 4308SOL    HW214822  10.294   6.013   0.109
 4309SOL     OW14823   3.562   2.587  14.664
 4309SOL    HW114824   3.539   2.585  14.571
 4309SOL    HW214825   3.657   2.577  14.666
 4310SOL     OW14826   3.885  13.780  13.376
 4310SOL    HW114827   3.849  13.868  13.389
 4310SOL    HW214828   3.973  13.795  13.341
 4311SOL     OW14829  13.107   4.717  12.854
 4311SOL    HW114830  13.098   4.787  12.789
 4311SOL    HW214831  13.130   4.763  12.935
 4312SOL     OW14832  13.037   3.324  14.628
 4312SOL    HW114833  13.054   3.291  14.540
 4312SOL    HW214834  12.964   3.384  14.617
 4313SOL     OW14835  11.911   5.229   3.917
 4313SOL    HW114836  11.957   5.201   3.838
 4313SOL    HW214837  11.981   5.263   3.974
 4314SOL     OW14838   4.080   0.905   6.475
 4314SOL    HW114839   4.166   0.940   6.498
 4314SOL    HW214840   4.035   0.977   6.432
 4315SOL     OW14841   4.040   9.170   9.632
 4315SOL    HW114842   4.058   9.078   9.651
 4315SOL    HW214843   4.016   9.207   9.717
 4316SOL     OW14844   9.211   7.272   3.036
 4316SOL    HW114845   9.202   7.367   3.026
 4316SOL    HW214846   9.226   7.240   2.947
 4317SOL     OW14847   0.497   0.287  12.421
 4317SOL    HW114848   0.457   0.354  12.476
 4317SOL    HW214849   0.580   0.268  12.465
 4318SOL     OW14850  10.126  11.703   5.937
 4318SOL    HW114851  10.197  11.647   5.969
 4318SOL    HW214852  10.069  11.644   5.889
 4319SOL     OW14853  11.168  12.289   2.039
 4319SOL    HW114854  11.201  12.345   2.109
 4319SOL    HW214855  11.236  12.223   2.026
 4320SOL     OW14856  10.463  13.451   9.117
 4320SOL    HW114857  10.553  13.422   9.132
 4320SOL    HW214858  10.465  13.489   9.029
 4321SOL     OW14859   4.956  14.111   2.733
 4321SOL    HW114860   4.874  14.085   2.692
 4321SOL    HW214861   4.965  14.051   2.807
 4322SOL     OW14862  10.352   3.179   3.909
 4322SOL    HW114863  10.259   3.168   3.892
 4322SOL    HW214864  10.375   3.261   3.866
 4323SOL     OW14865   6.074  11.332  12.827
 4323SOL    HW114866   6.077  11.385  12.748
 4323SOL    HW214867   6.044  11.392  12.895
 4324SOL     OW14868  13.068   9.826  10.909
 4324SOL    HW114869  13.141   9.803  10.966
 4324SOL    HW214870  13.032   9.742  10.880
 4325SOL     OW14871   9.559   4.041   5.424
 4325SOL    HW114872   9.589   4.085   5.504
 4325SOL    HW214873   9.525   4.111   5.369
 4326SOL     OW14874   1.388   4.782  12.334
 4326SOL    HW114875   1.432   4.787  12.249
 4326SOL    HW214876   1.426   4.854  12.385
 4327SOL     OW14877   8.127   0.181   9.870
 4327SOL    HW114878   8.179   0.255   9.838
 4327SOL    HW214879   8.192   0.118   9.901
 4328SOL     OW14880  13.573  13.037   1.074
 4328SOL    HW114881  13.547  12.969   1.137
 4328SOL    HW214882  13.492  13.086   1.057
 4329SOL     OW14883  10.172   3.813   6.247
 4329SOL    HW114884  10.115   3.816   6.324
 4329SOL    HW214885  10.130   3.751   6.188
 4330SOL     OW14886  10.280  11.404   1.945
 4330SOL    HW114887  10.266  11.474   2.010
 4330SOL    HW214888  10.337  11.444   1.879
 4331SOL     OW14889   2.395  11.951   6.205
 4331SOL    HW114890   2.374  11.962   6.113
 4331SOL    HW214891   2.322  11.992   6.252
 4332SOL     OW14892   5.389   2.411   1.027
 4332SOL    HW114893   5.347   2.387   1.110
 4332SOL    HW214894   5.333   2.480   0.992
 4333SOL     OW14895  11.216   5.824  13.719
 4333SOL    HW114896  11.251   5.818  13.630
 4333SOL    HW214897  11.221   5.917  13.741
 4334SOL     OW14898  13.225  10.513   1.012
 4334SOL    HW114899  13.263  10.531   0.926
 4334SOL    HW214900  13.252  10.424   1.032
 4335SOL     OW14901   0.161   8.538  11.374
 4335SOL    HW114902   0.204   8.494  11.301
 4335SOL    HW214903   0.229   8.592  11.414
 4336SOL     OW14904   1.926   0.729   7.260
 4336SOL    HW114905   1.845   0.679   7.251
 4336SOL    HW214906   1.981   0.676   7.317
 4337SOL     OW14907  12.576   9.151   8.387
 4337SOL    HW114908  12.556   9.058   8.391
 4337SOL    HW214909  12.495   9.195   8.415
 4338SOL     OW14910   2.151  13.969   7.676
 4338SOL    HW114911   2.165  13.954   7.770
 4338SOL    HW214912   2.238  13.990   7.642
 4339SOL     OW14913   6.983   2.691  13.597
 4339SOL    HW114914   6.987   2.725  13.508
 4339SOL    HW214915   6.891   2.701  13.623
 4340SOL     OW14916  10.369   5.567   3.189
 4340SOL    HW114917  10.275   5.570   3.167
 4340SOL    HW214918  10.409   5.520   3.116
 4341SOL     OW14919  13.369   7.473   2.982
 4341SOL    HW114920  13.413   7.445   2.902
 4341SOL    HW214921  13.290   7.419   2.986
 4342SOL     OW14922   6.682   6.393   9.511
 4342SOL    HW114923   6.762   6.400   9.563
 4342SOL    HW214924   6.640   6.478   9.521
 4343SOL     OW14925   0.294  10.389  10.150
 4343SOL    HW114926   0.215  10.423  10.109
 4343SOL    HW214927   0.363  10.403  10.085
 4344SOL     OW14928   9.284   7.512   7.060
 4344SOL    HW114929   9.216   7.532   7.124
 4344SOL    HW214930   9.364   7.500   7.112
 4345SOL     OW14931   5.690   5.538   6.861
 4345SOL    HW114932   5.609   5.551   6.911
 4345SOL    HW214933   5.676   5.458   6.812
 4346SOL     OW14934   6.170   1.814   8.594
 4346SOL    HW114935   6.192   1.898   8.634
 4346SOL    HW214936   6.076   1.806   8.606
 4347SOL     OW14937  10.503   8.180   4.092
 4347SOL    HW114938  10.475   8.174   4.001
 4347SOL    HW214939  10.457   8.256   4.126
 4348SOL     OW14940   3.654   7.265   6.593
 4348SOL    HW114941   3.673   7.238   6.503
 4348SOL    HW214942   3.724   7.227   6.645
 4349SOL     OW14943   1.378   5.198   7.096
 4349SOL    HW114944   1.321   5.272   7.076
 4349SOL    HW214945   1.447   5.234   7.151
 4350SOL     OW14946   8.500   3.823  14.169
 4350SOL    HW114947   8.541   3.754  14.117
 4350SOL    HW214948   8.424   3.780  14.210
 4351SOL     OW14949   7.227   2.071  10.971
 4351SOL    HW114950   7.221   2.096  11.063
 4351SOL    HW214951   7.230   1.975  10.972
 4352SOL     OW14952   4.062   4.882   8.166
 4352SOL    HW114953   4.013   4.884   8.084
 4352SOL    HW214954   4.101   4.968   8.173
 4353SOL     OW14955   8.057   3.557   2.870
 4353SOL    HW114956   8.056   3.482   2.930
 4353SOL    HW214957   8.029   3.631   2.923
 4354SOL     OW14958   0.509   6.473   9.331
 4354SOL    HW114959   0.460   6.524   9.396
 4354SOL    HW214960   0.442   6.443   9.269
 4355SOL     OW14961  12.253   9.599   4.703
 4355SOL    HW114962  12.166   9.569   4.678
 4355SOL    HW214963  12.312   9.529   4.671
 4356SOL     OW14964   9.854   4.413   5.095
 4356SOL    HW114965   9.925   4.385   5.153
 4356SOL    HW214966   9.834   4.502   5.124
 4357SOL     OW14967   4.948  13.106  10.572
 4357SOL    HW114968   5.037  13.097  10.604
 4357SOL    HW214969   4.956  13.109  10.477
 4358SOL     OW14970  11.331   8.207   2.946
 4358SOL    HW114971  11.338   8.162   2.862
 4358SOL    HW214972  11.421   8.212   2.978
 4359SOL     OW14973  10.380   9.024  13.722
 4359SOL    HW114974  10.432   9.027  13.642
 4359SOL    HW214975  10.300   8.978  13.698
 4360SOL     OW14976   4.356   3.266   8.378
 4360SOL    HW114977   4.352   3.249   8.472
 4360SOL    HW214978   4.419   3.202   8.345
 4361SOL     OW14979   6.479  10.096   7.623
 4361SOL    HW114980   6.464  10.012   7.581
 4361SOL    HW214981   6.408  10.104   7.688
 4362SOL     OW14982   5.152   5.308  11.668
 4362SOL    HW114983   5.193   5.269  11.745
 4362SOL    HW214984   5.058   5.302  11.684
 4363SOL     OW14985  11.760  13.579   9.080
 4363SOL    HW114986  11.679  13.527   9.079
 4363SOL    HW214987  11.825  13.522   9.040
 4364SOL     OW14988   1.975   3.365   8.729
 4364SOL    HW114989   2.013   3.450   8.708
 4364SOL    HW214990   2.050   3.306   8.734
 4365SOL     OW14991   8.435  14.365   3.091
 4365SOL    HW114992   8.438  14.461   3.094
 4365SOL    HW214993   8.520  14.340   3.054
 4366SOL     OW14994  12.974   0.841   9.595
 4366SOL    HW114995  13.053   0.793   9.621
 4366SOL    HW214996  12.979   0.923   9.643
 4367SOL     OW14997  14.028   8.587  14.685
 4367SOL    HW114998  14.029   8.674  14.644
 4367SOL    HW214999  13.952   8.590  14.743
 4368SOL     OW15000   5.285   7.635   0.021
 4368SOL    HW115001   5.192   7.650   0.034
 4368SOL    HW215002   5.325   7.721   0.037
 4369SOL     OW15003   3.141  12.612  11.853
 4369SOL    HW115004   3.220  12.604  11.800
 4369SOL    HW215005   3.146  12.537  11.913
 4370SOL     OW15006   6.011  13.409   2.046
 4370SOL    HW115007   6.066  13.365   1.981
 4370SOL    HW215008   5.948  13.458   1.993
 4371SOL     OW15009  11.774   0.331   4.212
 4371SOL    HW115010  11.770   0.372   4.125
 4371SOL    HW215011  11.857   0.362   4.249
 4372SOL     OW15012  13.266  12.443   5.124
 4372SOL    HW115013  13.322  12.493   5.064
 4372SOL    HW215014  13.182  12.437   5.079
 4373SOL     OW15015   0.065   2.090   7.558
 4373SOL    HW115016   0.004   2.142   7.610
 4373SOL    HW215017   0.012   2.020   7.520
 4374SOL     OW15018   8.402  13.433  10.512
 4374SOL    HW115019   8.362  13.520  10.504
 4374SOL    HW215020   8.422  13.424  10.605
 4375SOL     OW15021  12.929   1.289  12.821
 4375SOL    HW115022  12.966   1.357  12.877
 4375SOL    HW215023  12.879   1.337  12.754
 4376SOL     OW15024  13.953  11.085  14.328
 4376SOL    HW115025  14.006  11.033  14.268
 4376SOL    HW215026  13.863  11.068  14.301
 4377SOL     OW15027  12.592   0.375   7.477
 4377SOL    HW115028  12.672   0.424   7.498
 4377SOL    HW215029  12.521   0.438   7.492
 4378SOL     OW15030   4.312   2.368   7.496
 4378SOL    HW115031   4.272   2.367   7.583
 4378SOL    HW215032   4.380   2.300   7.500
 4379SOL     OW15033   0.477   0.203  13.685
 4379SOL    HW115034   0.467   0.136  13.618
 4379SOL    HW215035   0.486   0.285  13.636
 4380SOL     OW15036   2.851   7.428   9.348
 4380SOL    HW115037   2.778   7.458   9.293
 4380SOL    HW215038   2.896   7.362   9.295
 4381SOL     OW15039  11.219  13.137   5.524
 4381SOL    HW115040  11.310  13.128   5.495
 4381SOL    HW215041  11.197  13.053   5.563
 4382SOL     OW15042  14.777   9.975  11.980
 4382SOL    HW115043  14.706   9.988  11.918
 4382SOL    HW215044  14.857   9.994  11.930
 4383SOL     OW15045  10.568   3.227   6.980
 4383SOL    HW115046  10.530   3.299   6.930
 4383SOL    HW215047  10.650   3.262   7.015
 4384SOL     OW15048   6.762  14.355  10.758
 4384SOL    HW115049   6.711  14.423  10.714
 4384SOL    HW215050   6.766  14.382  10.849
 4385SOL     OW15051   4.054  11.449   5.684
 4385SOL    HW115052   4.034  11.539   5.708
 4385SOL    HW215053   4.137  11.429   5.729
 4386SOL     OW15054  13.699  14.870   3.369
 4386SOL    HW115055  13.665  14.794   3.417
 4386SOL    HW215056  13.630   0.019   3.305
 4387SOL     OW15057   4.065   5.211   7.828
 4387SOL    HW115058   4.081   5.125   7.868
 4387SOL    HW215059   3.993   5.196   7.767
 4388SOL     OW15060  13.866  11.762   8.669
 4388SOL    HW115061  13.934  11.697   8.688
 4388SOL    HW215062  13.804  11.716   8.612
 4389SOL     OW15063  10.486   8.769   5.169
 4389SOL    HW115064  10.469   8.801   5.258
 4389SOL    HW215065  10.540   8.837   5.129
 4390SOL     OW15066   2.155  10.597   3.431
 4390SOL    HW115067   2.209  10.642   3.496
 4390SOL    HW215068   2.217  10.567   3.365
 4391SOL     OW15069   2.719   3.642   1.008
 4391SOL    HW115070   2.749   3.664   0.920
 4391SOL    HW215071   2.690   3.726   1.045
 4392SOL     OW15072  12.915   0.599   0.732
 4392SOL    HW115073  12.843   0.615   0.793
 4392SOL    HW215074  12.949   0.686   0.711
 4393SOL     OW15075   5.179   8.849   0.705
 4393SOL    HW115076   5.190   8.926   0.649
 4393SOL    HW215077   5.105   8.872   0.762
 4394SOL     OW15078   4.031   4.291   2.245
 4394SOL    HW115079   4.012   4.325   2.158
 4394SOL    HW215080   4.080   4.361   2.288
 4395SOL     OW15081  13.060  11.708  13.533
 4395SOL    HW115082  13.057  11.804  13.532
 4395SOL    HW215083  13.027  11.684  13.620
 4396SOL     OW15084   5.918  14.635  13.202
 4396SOL    HW115085   5.944  14.689  13.127
 4396SOL    HW215086   5.833  14.671  13.228
 4397SOL     OW15087   9.302   9.222   3.504
 4397SOL    HW115088   9.333   9.214   3.414
 4397SOL    HW215089   9.304   9.132   3.538
 4398SOL     OW15090   4.269  10.885   0.390
 4398SOL    HW115091   4.357  10.903   0.357
 4398SOL    HW215092   4.232  10.971   0.411
 4399SOL     OW15093   1.539   6.447   7.298
 4399SOL    HW115094   1.572   6.439   7.388
 4399SOL    HW215095   1.470   6.512   7.304
 4400SOL     OW15096   1.835   4.708  11.740
 4400SOL    HW115097   1.881   4.762  11.675
 4400SOL    HW215098   1.850   4.618  11.711
 4401SOL     OW15099  11.231   6.720  11.040
 4401SOL    HW115100  11.244   6.633  11.001
 4401SOL    HW215101  11.138   6.724  11.059
 4402SOL     OW15102   7.103   2.246  13.975
 4402SOL    HW115103   7.024   2.272  14.023
 4402SOL    HW215104   7.097   2.292  13.892
 4403SOL     OW15105   0.315  10.325  11.426
 4403SOL    HW115106   0.271  10.406  11.403
 4403SOL    HW215107   0.245  10.270  11.462
 4404SOL     OW15108   1.327   7.070   3.552
 4404SOL    HW115109   1.348   6.977   3.560
 4404SOL    HW215110   1.276   7.089   3.631
 4405SOL     OW15111   6.040   7.255   2.515
 4405SOL    HW115112   6.031   7.320   2.445
 4405SOL    HW215113   5.984   7.286   2.585
 4406SOL     OW15114   0.897   3.053   1.794
 4406SOL    HW115115   0.904   3.055   1.698
 4406SOL    HW215116   0.983   3.021   1.823
 4407SOL     OW15117   6.669   4.000   5.210
 4407SOL    HW115118   6.601   3.999   5.278
 4407SOL    HW215119   6.668   3.911   5.174
 4408SOL     OW15120  14.756  14.214   7.721
 4408SOL    HW115121  14.755  14.143   7.657
 4408SOL    HW215122  14.664  14.229   7.741
 4409SOL     OW15123   6.418   2.498   1.880
 4409SOL    HW115124   6.466   2.419   1.906
 4409SOL    HW215125   6.468   2.570   1.917
 4410SOL     OW15126  10.919   4.646   4.630
 4410SOL    HW115127  10.877   4.670   4.547
 4410SOL    HW215128  10.903   4.552   4.638
 4411SOL     OW15129   7.008   3.505   7.536
 4411SOL    HW115130   7.023   3.527   7.444
 4411SOL    HW215131   6.916   3.478   7.540
 4412SOL     OW15132  14.336   6.161   4.923
 4412SOL    HW115133  14.347   6.095   4.854
 4412SOL    HW215134  14.242   6.163   4.939
 4413SOL     OW15135   4.883  14.295   4.164
 4413SOL    HW115136   4.813  14.285   4.229
 4413SOL    HW215137   4.893  14.390   4.154
 4414SOL     OW15138   9.384   6.750   7.667
 4414SOL    HW115139   9.389   6.710   7.581
 4414SOL    HW215140   9.316   6.700   7.713
 4415SOL     OW15141  13.784   3.244  14.082
 4415SOL    HW115142  13.712   3.196  14.040
 4415SOL    HW215143  13.847   3.257  14.011
 4416SOL     OW15144  14.437  10.718   6.762
 4416SOL    HW115145  14.500  10.783   6.730
 4416SOL    HW215146  14.380  10.701   6.687
 4417SOL     OW15147   6.417  13.081   8.065
 4417SOL    HW115148   6.340  13.025   8.077
 4417SOL    HW215149   6.473  13.032   8.005
 4418SOL     OW15150  14.818   2.884   1.151
 4418SOL    HW115151   0.001   2.909   1.224
 4418SOL    HW215152  14.823   2.958   1.090
 4419SOL     OW15153  14.351   6.538   2.934
 4419SOL    HW115154  14.380   6.591   2.859
 4419SOL    HW215155  14.431   6.504   2.973
 4420SOL     OW15156   0.447  13.804   8.404
 4420SOL    HW115157   0.503  13.728   8.421
 4420SOL    HW215158   0.428  13.839   8.491
 4421SOL     OW15159   8.458   5.890  10.067
 4421SOL    HW115160   8.517   5.831  10.021
 4421SOL    HW215161   8.374   5.844  10.066
 4422SOL     OW15162   4.404   3.177  13.350
 4422SOL    HW115163   4.375   3.255  13.302
 4422SOL    HW215164   4.448   3.124  13.283
 4423SOL     OW15165  13.677   8.904  14.064
 4423SOL    HW115166  13.600   8.933  14.016
 4423SOL    HW215167  13.646   8.890  14.153
 4424SOL     OW15168  13.615  11.239   5.027
 4424SOL    HW115169  13.690  11.299   5.029
 4424SOL    HW215170  13.647  11.161   5.072
 4425SOL     OW15171   3.630  14.224   9.506
 4425SOL    HW115172   3.711  14.174   9.492
 4425SOL    HW215173   3.642  14.303   9.453
 4426SOL     OW15174   2.725  13.464   4.444
 4426SOL    HW115175   2.674  13.401   4.496
 4426SOL    HW215176   2.697  13.549   4.475
 4427SOL     OW15177   8.269   9.963  12.592
 4427SOL    HW115178   8.210  10.036  12.574
 4427SOL    HW215179   8.235   9.923  12.672
 4428SOL     OW15180   0.617  10.974   9.578
 4428SOL    HW115181   0.615  11.031   9.655
 4428SOL    HW215182   0.618  11.035   9.504
 4429SOL     OW15183   6.248  10.268   4.845
 4429SOL    HW115184   6.289  10.323   4.911
 4429SOL    HW215185   6.155  10.271   4.865
 4430SOL     OW15186  11.960   2.843  10.781
 4430SOL    HW115187  12.025   2.886  10.837
 4430SOL    HW215188  11.883   2.835  10.837
 4431SOL     OW15189   9.386   2.679  11.835
 4431SOL    HW115190   9.405   2.760  11.882
 4431SOL    HW215191   9.403   2.700  11.743
 4432SOL     OW15192  12.257   8.373   5.787
 4432SOL    HW115193  12.258   8.444   5.723
 4432SOL    HW215194  12.249   8.416   5.871
 4433SOL     OW15195   4.089   7.407  11.416
 4433SOL    HW115196   4.167   7.462  11.414
 4433SOL    HW215197   4.064   7.398  11.324
 4434SOL     OW15198   8.109  13.619   2.240
 4434SOL    HW115199   8.153  13.589   2.320
 4434SOL    HW215200   8.172  13.600   2.170
 4435SOL     OW15201  10.306   4.853  13.108
 4435SOL    HW115202  10.362   4.794  13.159
 4435SOL    HW215203  10.221   4.810  13.107
 4436SOL     OW15204   8.924   2.665  12.047
 4436SOL    HW115205   8.845   2.715  12.064
 4436SOL    HW215206   8.966   2.711  11.974
 4437SOL     OW15207   2.441   8.641   1.515
 4437SOL    HW115208   2.390   8.683   1.584
 4437SOL    HW215209   2.385   8.645   1.438
 4438SOL     OW15210  13.561   4.253  13.960
 4438SOL    HW115211  13.576   4.251  14.054
 4438SOL    HW215212  13.540   4.344  13.940
 4439SOL     OW15213  11.177   5.351   7.991
 4439SOL    HW115214  11.168   5.424   7.931
 4439SOL    HW215215  11.156   5.274   7.938
 4440SOL     OW15216  11.700   1.810  13.591
 4440SOL    HW115217  11.712   1.855  13.675
 4440SOL    HW215218  11.787   1.811  13.551
 4441SOL     OW15219   3.912   1.096   1.061
 4441SOL    HW115220   3.884   1.050   0.982
 4441SOL    HW215221   3.909   1.030   1.130
 4442SOL     OW15222   0.228   3.816   4.674
 4442SOL    HW115223   0.210   3.731   4.713
 4442SOL    HW215224   0.182   3.816   4.591
 4443SOL     OW15225   8.943   9.646   0.275
 4443SOL    HW115226   8.849   9.625   0.274
 4443SOL    HW215227   8.986   9.563   0.297
 4444SOL     OW15228   7.859   3.422  10.279
 4444SOL    HW115229   7.933   3.387  10.329
 4444SOL    HW215230   7.837   3.504  10.323
 4445SOL     OW15231   2.231  12.540   5.259
 4445SOL    HW115232   2.166  12.601   5.294
 4445SOL    HW215233   2.276  12.589   5.190
 4446SOL     OW15234  12.115   6.333  12.053
 4446SOL    HW115235  12.083   6.309  11.966
 4446SOL    HW215236  12.199   6.288  12.061
 4447SOL     OW15237   5.986  10.913  14.159
 4447SOL    HW115238   5.984  10.870  14.073
 4447SOL    HW215239   6.077  10.906  14.188
 4448SOL     OW15240   3.349   8.164  11.341
 4448SOL    HW115241   3.440   8.152  11.367
 4448SOL    HW215242   3.299   8.154  11.423
 4449SOL     OW15243   9.164  12.154   5.287
 4449SOL    HW115244   9.165  12.243   5.252
 4449SOL    HW215245   9.080  12.118   5.257
 4450SOL     OW15246   2.161  11.111   1.295
 4450SOL    HW115247   2.247  11.150   1.277
 4450SOL    HW215248   2.108  11.185   1.325
 4451SOL     OW15249   8.366   5.567   4.115
 4451SOL    HW115250   8.457   5.547   4.096
 4451SOL    HW215251   8.320   5.485   4.096
 4452SOL     OW15252  11.489   5.923   4.325
 4452SOL    HW115253  11.527   5.929   4.413
 4452SOL    HW215254  11.561   5.943   4.266
 4453SOL     OW15255   9.351   8.383   8.751
 4453SOL    HW115256   9.285   8.340   8.697
 4453SOL    HW215257   9.407   8.312   8.781
 4454SOL     OW15258   7.927   9.146  11.084
 4454SOL    HW115259   7.853   9.148  11.145
 4454SOL    HW215260   7.961   9.057  11.091
 4455SOL     OW15261   1.752   5.007   8.348
 4455SOL    HW115262   1.718   4.998   8.260
 4455SOL    HW215263   1.800   4.925   8.364
 4456SOL     OW15264   0.146  14.772   8.900
 4456SOL    HW115265   0.077  14.791   8.963
 4456SOL    HW215266   0.116  14.813   8.818
 4457SOL     OW15267   8.296   6.416   3.456
 4457SOL    HW115268   8.369   6.454   3.505
 4457SOL    HW215269   8.293   6.464   3.374
 4458SOL     OW15270   5.327   5.838  12.396
 4458SOL    HW115271   5.269   5.903  12.434
 4458SOL    HW215272   5.398   5.828  12.459
 4459SOL     OW15273   9.946   8.158   6.063
 4459SOL    HW115274   9.936   8.194   6.151
 4459SOL    HW215275   9.909   8.225   6.005
 4460SOL     OW15276   4.017   2.050   7.554
 4460SOL    HW115277   4.108   2.027   7.535
 4460SOL    HW215278   4.020   2.085   7.643
 4461SOL     OW15279   7.928   5.243  12.425
 4461SOL    HW115280   7.967   5.160  12.454
 4461SOL    HW215281   7.874   5.271  12.499
 4462SOL     OW15282   4.015  13.832  11.200
 4462SOL    HW115283   4.024  13.860  11.109
 4462SOL    HW215284   4.102  13.802  11.224
 4463SOL     OW15285   3.115   7.455  11.522
 4463SOL    HW115286   3.150   7.504  11.596
 4463SOL    HW215287   3.122   7.515  11.447
 4464SOL     OW15288  11.432   7.081   6.970
 4464SOL    HW115289  11.387   7.162   6.947
 4464SOL    HW215290  11.377   7.041   7.037
 4465SOL     OW15291   2.414   0.554  13.230
 4465SOL    HW115292   2.400   0.506  13.311
 4465SOL    HW215293   2.506   0.539  13.209
 4466SOL     OW15294   6.136   2.343   4.154
 4466SOL    HW115295   6.139   2.309   4.243
 4466SOL    HW215296   6.177   2.429   4.160
 4467SOL     OW15297  10.971  14.523   3.324
 4467SOL    HW115298  11.031  14.584   3.367
 4467SOL    HW215299  10.902  14.507   3.388
 4468SOL     OW15300   2.502  14.131   3.187
 4468SOL    HW115301   2.582  14.081   3.170
 4468SOL    HW215302   2.456  14.133   3.103
 4469SOL     OW15303   8.315   0.813  13.780
 4469SOL    HW115304   8.327   0.899  13.819
 4469SOL    HW215305   8.383   0.807  13.713
 4470SOL     OW15306  10.253  11.466   1.168
 4470SOL    HW115307  10.296  11.486   1.251
 4470SOL    HW215308  10.287  11.532   1.107
 4471SOL     OW15309   7.818   8.900   4.640
 4471SOL    HW115310   7.813   8.964   4.569
 4471SOL    HW215311   7.727   8.879   4.660
 4472SOL     OW15312   0.747   8.509   7.176
 4472SOL    HW115313   0.754   8.604   7.164
 4472SOL    HW215314   0.653   8.493   7.186
 4473SOL     OW15315   4.974  10.299   1.293
 4473SOL    HW115316   4.961  10.212   1.332
 4473SOL    HW215317   4.980  10.358   1.368
 4474SOL     OW15318  11.475   6.368   0.864
 4474SOL    HW115319  11.514   6.353   0.949
 4474SOL    HW215320  11.391   6.321   0.867
 4475SOL     OW15321   9.532  10.408   9.306
 4475SOL    HW115322   9.447  10.438   9.337
 4475SOL    HW215323   9.568  10.358   9.380
 4476SOL     OW15324   7.525   5.006   6.949
 4476SOL    HW115325   7.494   4.920   6.922
 4476SOL    HW215326   7.476   5.067   6.896
 4477SOL     OW15327   7.726   0.594  12.638
 4477SOL    HW115328   7.667   0.593  12.714
 4477SOL    HW215329   7.691   0.664  12.582
 4478SOL     OW15330  13.908   4.519  10.540
 4478SOL    HW115331  13.982   4.514  10.600
 4478SOL    HW215332  13.948   4.527  10.454
 4479SOL     OW15333  10.487   5.548   0.437
 4479SOL    HW115334  10.398   5.567   0.406
 4479SOL    HW215335  10.544   5.578   0.367
 4480SOL     OW15336   9.231  12.693   9.959
 4480SOL    HW115337   9.297  12.645   9.909
 4480SOL    HW215338   9.207  12.635  10.031
 4481SOL     OW15339  12.088   0.297  11.771
 4481SOL    HW115340  12.010   0.352  11.765
 4481SOL    HW215341  12.094   0.254  11.686
 4482SOL     OW15342  12.592   8.625  10.782
 4482SOL    HW115343  12.508   8.613  10.738
 4482SOL    HW215344  12.569   8.637  10.874
 4483SOL     OW15345  11.826   6.615  11.244
 4483SOL    HW115346  11.903   6.576  11.203
 4483SOL    HW215347  11.764   6.627  11.171
 4484SOL     OW15348  11.580   9.207   1.337
 4484SOL    HW115349  11.525   9.151   1.282
 4484SOL    HW215350  11.641   9.247   1.276
 4485SOL     OW15351   4.573  13.281  10.476
 4485SOL    HW115352   4.554  13.230  10.555
 4485SOL    HW215353   4.596  13.216  10.410
 4486SOL     OW15354  12.915   1.297   4.897
 4486SOL    HW115355  12.959   1.381   4.882
 4486SOL    HW215356  12.832   1.305   4.851
 4487SOL     OW15357   9.746  13.842   1.383
 4487SOL    HW115358   9.671  13.796   1.419
 4487SOL    HW215359   9.818  13.779   1.387
 4488SOL     OW15360   8.354   6.873   4.044
 4488SOL    HW115361   8.432   6.852   4.096
 4488SOL    HW215362   8.353   6.969   4.042
 4489SOL     OW15363  13.684   1.524   5.239
 4489SOL    HW115364  13.735   1.481   5.170
 4489SOL    HW215365  13.749   1.567   5.294
 4490SOL     OW15366   2.104   9.427   2.021
 4490SOL    HW115367   2.187   9.382   2.036
 4490SOL    HW215368   2.081   9.464   2.107
 4491SOL     OW15369  12.584   7.216   3.788
 4491SOL    HW115370  12.531   7.296   3.795
 4491SOL    HW215371  12.658   7.231   3.847
 4492SOL     OW15372   0.223   0.615   2.017
 4492SOL    HW115373   0.271   0.688   1.978
 4492SOL    HW215374   0.288   0.570   2.071
 4493SOL     OW15375   8.684   4.884  12.876
 4493SOL    HW115376   8.745   4.924  12.814
 4493SOL    HW215377   8.726   4.896  12.962
 4494SOL     OW15378  11.265   2.492   1.199
 4494SOL    HW115379  11.312   2.574   1.183
 4494SOL    HW215380  11.272   2.444   1.116
 4495SOL     OW15381   2.376  14.342   8.819
 4495SOL    HW115382   2.423  14.259   8.815
 4495SOL    HW215383   2.442  14.406   8.846
 4496SOL     OW15384   2.983   6.970  11.325
 4496SOL    HW115385   2.925   7.035  11.364
 4496SOL    HW215386   3.070   7.011  11.326
 4497SOL     OW15387  12.792  14.531   0.039
 4497SOL    HW115388  12.712  14.580   0.018
 4497SOL    HW215389  12.863  14.588   0.011
 4498SOL     OW15390   3.181   3.391  10.291
 4498SOL    HW115391   3.138   3.436  10.219
 4498SOL    HW215392   3.230   3.460  10.336
 4499SOL     OW15393  14.067   3.487   5.290
 4499SOL    HW115394  14.118   3.568   5.288
 4499SOL    HW215395  14.074   3.452   5.202
 4500SOL     OW15396   8.107  13.376   5.420
 4500SOL    HW115397   8.137  13.328   5.343
 4500SOL    HW215398   8.023  13.337   5.441
 4501SOL     OW15399  12.553  10.093   6.765
 4501SOL    HW115400  12.497  10.040   6.821
 4501SOL    HW215401  12.555  10.179   6.807
 4502SOL     OW15402   0.453  13.967   3.517
 4502SOL    HW115403   0.534  14.011   3.541
 4502SOL    HW215404   0.424  14.011   3.437
 4503SOL     OW15405   8.035   6.027  12.806
 4503SOL    HW115406   8.106   5.963  12.805
 4503SOL    HW215407   8.074   6.106  12.844
 4504SOL     OW15408   6.425   1.145   3.383
 4504SOL    HW115409   6.348   1.178   3.430
 4504SOL    HW215410   6.391   1.072   3.331
 4505SOL     OW15411  11.744   7.894   5.910
 4505SOL    HW115412  11.727   7.948   5.987
 4505SOL    HW215413  11.669   7.834   5.907
 4506SOL     OW15414   2.156   3.345   4.684
 4506SOL    HW115415   2.172   3.265   4.634
 4506SOL    HW215416   2.222   3.345   4.753
 4507SOL     OW15417   8.174   0.033   2.386
 4507SOL    HW115418   8.122   0.108   2.416
 4507SOL    HW215419   8.113  14.831   2.387
 4508SOL     OW15420   0.331  12.926   2.346
 4508SOL    HW115421   0.238  12.925   2.369
 4508SOL    HW215422   0.344  12.847   2.293
 4509SOL     OW15423  12.375  10.502  12.247
 4509SOL    HW115424  12.377  10.595  12.270
 4509SOL    HW215425  12.436  10.493  12.174
 4510SOL     OW15426   7.128  12.810  11.373
 4510SOL    HW115427   7.161  12.746  11.310
 4510SOL    HW215428   7.205  12.857  11.403
 4511SOL     OW15429  10.241   6.907  13.083
 4511SOL    HW115430  10.197   6.952  13.010
 4511SOL    HW215431  10.326   6.949  13.090
 4512SOL     OW15432   6.836   5.197  10.489
 4512SOL    HW115433   6.793   5.264  10.543
 4512SOL    HW215434   6.880   5.140  10.552
 4513SOL     OW15435   1.790   7.081   1.448
 4513SOL    HW115436   1.768   7.054   1.359
 4513SOL    HW215437   1.869   7.032   1.470
 4514SOL     OW15438   6.867  13.091   1.281
 4514SOL    HW115439   6.783  13.132   1.262
 4514SOL    HW215440   6.897  13.058   1.196
 4515SOL     OW15441   6.605   8.100   1.256
 4515SOL    HW115442   6.650   8.057   1.183
 4515SOL    HW215443   6.655   8.181   1.271
 4516SOL     OW15444  13.796  13.186   2.183
 4516SOL    HW115445  13.881  13.160   2.220
 4516SOL    HW215446  13.735  13.121   2.217
 4517SOL     OW15447  14.734   4.604   1.252
 4517SOL    HW115448  14.729   4.544   1.327
 4517SOL    HW215449  14.799   4.563   1.193
 4518SOL     OW15450   4.236   9.721   3.794
 4518SOL    HW115451   4.310   9.724   3.855
 4518SOL    HW215452   4.167   9.770   3.839
 4519SOL     OW15453   3.827  12.303   6.084
 4519SOL    HW115454   3.788  12.378   6.039
 4519SOL    HW215455   3.831  12.330   6.176
 4520SOL     OW15456   4.614  10.327   1.831
 4520SOL    HW115457   4.632  10.259   1.766
 4520SOL    HW215458   4.551  10.287   1.891
 4521SOL     OW15459   7.991   3.181   0.683
 4521SOL    HW115460   7.996   3.148   0.773
 4521SOL    HW215461   8.031   3.268   0.687
 4522SOL     OW15462   1.466   3.966  10.954
 4522SOL    HW115463   1.464   4.060  10.970
 4522SOL    HW215464   1.393   3.950  10.894
 4523SOL     OW15465   1.802   9.295   6.608
 4523SOL    HW115466   1.746   9.329   6.678
 4523SOL    HW215467   1.800   9.364   6.541
 4524SOL     OW15468   4.023  13.265   9.412
 4524SOL    HW115469   4.100  13.223   9.375
 4524SOL    HW215470   3.961  13.272   9.340
 4525SOL     OW15471  12.126   7.102   8.599
 4525SOL    HW115472  12.062   7.034   8.576
 4525SOL    HW215473  12.098   7.179   8.551
 4526SOL     OW15474   8.713   6.922  10.182
 4526SOL    HW115475   8.808   6.907  10.188
 4526SOL    HW215476   8.701   7.010  10.218
 4527SOL     OW15477  12.592  10.502   9.022
 4527SOL    HW115478  12.523  10.507   9.088
 4527SOL    HW215479  12.604  10.408   9.007
 4528SOL     OW15480   0.091   3.081   4.507
 4528SOL    HW115481   0.128   3.167   4.485
 4528SOL    HW215482   0.030   3.099   4.578
 4529SOL     OW15483  12.193   1.779   7.248
 4529SOL    HW115484  12.271   1.757   7.197
 4529SOL    HW215485  12.128   1.712   7.223
 4530SOL     OW15486   4.341   5.651   4.495
 4530SOL    HW115487   4.333   5.604   4.578
 4530SOL    HW215488   4.436   5.658   4.480
 4531SOL     OW15489   8.146  13.225   7.583
 4531SOL    HW115490   8.142  13.169   7.661
 4531SOL    HW215491   8.102  13.306   7.609
 4532SOL     OW15492  12.604   3.346   8.980
 4532SOL    HW115493  12.595   3.439   9.001
 4532SOL    HW215494  12.698   3.328   8.989
 4533SOL     OW15495   3.761   4.187   1.662
 4533SOL    HW115496   3.772   4.117   1.727
 4533SOL    HW215497   3.667   4.203   1.660
 4534SOL     OW15498   9.276  10.865  11.565
 4534SOL    HW115499   9.189  10.901  11.545
 4534SOL    HW215500   9.336  10.920  11.515
 4535SOL     OW15501   3.301   0.422  11.343
 4535SOL    HW115502   3.258   0.429  11.258
 4535SOL    HW215503   3.301   0.511  11.377
 4536SOL     OW15504   0.971   9.899  13.877
 4536SOL    HW115505   1.009   9.919  13.792
 4536SOL    HW215506   1.045   9.876  13.932
 4537SOL     OW15507  13.269  14.784  14.666
 4537SOL    HW115508  13.226  14.736  14.596
 4537SOL    HW215509  13.333  14.722  14.702
 4538SOL     OW15510  12.605  10.801   5.029
 4538SOL    HW115511  12.648  10.877   5.068
 4538SOL    HW215512  12.597  10.738   5.100
 4539SOL     OW15513  11.753   9.465   4.097
 4539SOL    HW115514  11.733   9.485   4.005
 4539SOL    HW215515  11.780   9.373   4.096
 4540SOL     OW15516   6.800   4.653  11.330
 4540SOL    HW115517   6.836   4.695  11.252
 4540SOL    HW215518   6.709   4.684  11.334
 4541SOL     OW15519  12.549   7.186  10.002
 4541SOL    HW115520  12.513   7.117   9.946
 4541SOL    HW215521  12.568   7.258   9.942
 4542SOL     OW15522  13.896   4.652   8.068
 4542SOL    HW115523  13.821   4.698   8.105
 4542SOL    HW215524  13.972   4.690   8.113
 4543SOL     OW15525   5.888  13.987   2.249
 4543SOL    HW115526   5.951  14.026   2.309
 4543SOL    HW215527   5.837  14.061   2.216
 4544SOL     OW15528  13.170   8.740  10.411
 4544SOL    HW115529  13.110   8.669  10.432
 4544SOL    HW215530  13.251   8.697  10.385
 4545SOL     OW15531   9.568   7.641   8.069
 4545SOL    HW115532   9.564   7.624   8.163
 4545SOL    HW215533   9.661   7.628   8.047
 4546SOL     OW15534  11.504   2.187   9.591
 4546SOL    HW115535  11.449   2.144   9.525
 4546SOL    HW215536  11.472   2.154   9.675
 4547SOL     OW15537  12.920  12.727   3.976
 4547SOL    HW115538  12.915  12.720   3.880
 4547SOL    HW215539  12.833  12.703   4.006
 4548SOL     OW15540   4.024   6.821   4.315
 4548SOL    HW115541   4.026   6.857   4.227
 4548SOL    HW215542   3.939   6.779   4.321
 4549SOL     OW15543   1.183   7.757  13.103
 4549SOL    HW115544   1.224   7.826  13.051
 4549SOL    HW215545   1.123   7.714  13.041
 4550SOL     OW15546   7.834  13.622  11.042
 4550SOL    HW115547   7.913  13.638  10.991
 4550SOL    HW215548   7.820  13.703  11.092
 4551SOL     OW15549   8.418   9.702   2.550
 4551SOL    HW115550   8.490   9.670   2.495
 4551SOL    HW215551   8.383   9.777   2.502
 4552SOL     OW15552   0.666   3.589  12.761
 4552SOL    HW115553   0.678   3.624  12.849
 4552SOL    HW215554   0.679   3.665  12.704
 4553SOL     OW15555   2.256   8.156   6.656
 4553SOL    HW115556   2.181   8.112   6.696
 4553SOL    HW215557   2.258   8.243   6.696
 4554SOL     OW15558   4.780  12.150   3.313
 4554SOL    HW115559   4.736  12.231   3.284
 4554SOL    HW215560   4.799  12.166   3.405
 4555SOL     OW15561   4.604  14.843   6.297
 4555SOL    HW115562   4.530  14.782   6.298
 4555SOL    HW215563   4.660  14.811   6.226
 4556SOL     OW15564   6.523   8.849   6.452
 4556SOL    HW115565   6.488   8.928   6.412
 4556SOL    HW215566   6.530   8.786   6.381
 4557SOL     OW15567   9.114   9.710   2.425
 4557SOL    HW115568   9.100   9.657   2.503
 4557SOL    HW215569   9.196   9.678   2.388
 4558SOL     OW15570   2.648   0.015  11.272
 4558SOL    HW115571   2.595   0.083  11.232
 4558SOL    HW215572   2.669  14.827  11.199
 4559SOL     OW15573   8.148   2.902  10.215
 4559SOL    HW115574   8.131   2.995  10.225
 4559SOL    HW215575   8.183   2.874  10.300
 4560SOL     OW15576  12.833  10.732  12.833
 4560SOL    HW115577  12.862  10.823  12.834
 4560SOL    HW215578  12.893  10.686  12.892
 4561SOL     OW15579   5.936   8.424   6.082
 4561SOL    HW115580   5.887   8.500   6.051
 4561SOL    HW215581   5.875   8.351   6.072
 4562SOL     OW15582   1.688   5.743  10.819
 4562SOL    HW115583   1.753   5.805  10.852
 4562SOL    HW215584   1.730   5.702  10.743
 4563SOL     OW15585   6.957  11.340   5.004
 4563SOL    HW115586   7.046  11.373   5.012
 4563SOL    HW215587   6.933  11.357   4.913
 4564SOL     OW15588   3.789  14.652  12.728
 4564SOL    HW115589   3.883  14.663  12.744
 4564SOL    HW215590   3.747  14.693  12.804
 4565SOL     OW15591   8.789   3.944  12.535
 4565SOL    HW115592   8.779   3.850  12.524
 4565SOL    HW215593   8.882   3.961  12.519
 4566SOL     OW15594  11.835   7.107   9.773
 4566SOL    HW115595  11.830   7.057   9.855
 4566SOL    HW215596  11.748   7.143   9.762
 4567SOL     OW15597  13.694   7.025   2.381
 4567SOL    HW115598  13.622   7.085   2.402
 4567SOL    HW215599  13.656   6.937   2.391
 4568SOL     OW15600   9.437   1.269   5.667
 4568SOL    HW115601   9.493   1.202   5.626
 4568SOL    HW215602   9.469   1.352   5.632
 4569SOL     OW15603  14.737   7.335   3.063
 4569SOL    HW115604  14.768   7.329   2.973
 4569SOL    HW215605  14.801   7.284   3.114
 4570SOL     OW15606   0.774   9.705   9.784
 4570SOL    HW115607   0.691   9.659   9.776
 4570SOL    HW215608   0.751   9.791   9.818
 4571SOL     OW15609   6.400  12.135   9.212
 4571SOL    HW115610   6.407  12.045   9.245
 4571SOL    HW215611   6.390  12.125   9.117
 4572SOL     OW15612   1.170   0.712   9.790
 4572SOL    HW115613   1.154   0.767   9.714
 4572SOL    HW215614   1.254   0.741   9.825
 4573SOL     OW15615  14.437   5.041  10.182
 4573SOL    HW115616  14.461   4.952  10.207
 4573SOL    HW215617  14.454   5.093  10.260
 4574SOL     OW15618   1.079   7.825   1.360
 4574SOL    HW115619   1.095   7.769   1.283
 4574SOL    HW215620   0.998   7.790   1.398
 4575SOL     OW15621   0.031   2.047   3.165
 4575SOL    HW115622  14.833   2.005   3.115
 4575SOL    HW215623  14.860   2.119   3.212
 4576SOL     OW15624   5.594   7.391   8.524
 4576SOL    HW115625   5.649   7.408   8.601
 4576SOL    HW215626   5.624   7.307   8.491
 4577SOL     OW15627   3.240   1.739   8.079
 4577SOL    HW115628   3.188   1.788   8.016
 4577SOL    HW215629   3.291   1.678   8.026
 4578SOL     OW15630   8.108  12.980   3.829
 4578SOL    HW115631   8.122  13.074   3.817
 4578SOL    HW215632   8.013  12.970   3.832
 4579SOL     OW15633   0.592   7.141  12.422
 4579SOL    HW115634   0.687   7.130  12.420
 4579SOL    HW215635   0.565   7.129  12.331
 4580SOL     OW15636   9.984   1.279   7.964
 4580SOL    HW115637   9.959   1.361   7.922
 4580SOL    HW215638   9.935   1.278   8.047
 4581SOL     OW15639  14.260  13.034   6.885
 4581SOL    HW115640  14.293  13.058   6.798
 4581SOL    HW215641  14.293  12.945   6.899
 4582SOL     OW15642   5.466   7.872  10.755
 4582SOL    HW115643   5.436   7.938  10.817
 4582SOL    HW215644   5.386   7.844  10.710
 4583SOL     OW15645  12.342   6.128   5.228
 4583SOL    HW115646  12.309   6.069   5.295
 4583SOL    HW215647  12.431   6.098   5.211
 4584SOL     OW15648   7.459   5.346   3.137
 4584SOL    HW115649   7.430   5.256   3.126
 4584SOL    HW215650   7.526   5.358   3.070
 4585SOL     OW15651   0.478  11.229   7.474
 4585SOL    HW115652   0.514  11.157   7.423
 4585SOL    HW215653   0.538  11.240   7.547
 4586SOL     OW15654  12.684   2.355   3.022
 4586SOL    HW115655  12.637   2.319   3.098
 4586SOL    HW215656  12.686   2.283   2.959
 4587SOL     OW15657  10.645  12.406   0.918
 4587SOL    HW115658  10.569  12.380   0.970
 4587SOL    HW215659  10.717  12.355   0.954
 4588SOL     OW15660   3.548   7.417   8.196
 4588SOL    HW115661   3.557   7.469   8.116
 4588SOL    HW215662   3.638   7.403   8.226
 4589SOL     OW15663   9.986   2.468   6.197
 4589SOL    HW115664   9.931   2.396   6.229
 4589SOL    HW215665  10.062   2.424   6.159
 4590SOL     OW15666   4.634  10.726   1.277
 4590SOL    HW115667   4.560  10.683   1.321
 4590SOL    HW215668   4.699  10.739   1.346
 4591SOL     OW15669   6.012  10.141   2.756
 4591SOL    HW115670   5.925  10.179   2.746
 4591SOL    HW215671   6.005  10.085   2.833
 4592SOL     OW15672   7.609   4.174  11.476
 4592SOL    HW115673   7.606   4.249  11.535
 4592SOL    HW215674   7.537   4.189  11.415
 4593SOL     OW15675  10.390   2.865   9.568
 4593SOL    HW115676  10.378   2.773   9.547
 4593SOL    HW215677  10.340   2.912   9.501
 4594SOL     OW15678  10.560  14.406   8.600
 4594SOL    HW115679  10.467  14.386   8.589
 4594SOL    HW215680  10.569  14.432   8.692
 4595SOL     OW15681   1.494  10.288   1.168
 4595SOL    HW115682   1.510  10.338   1.088
 4595SOL    HW215683   1.581  10.271   1.204
 4596SOL     OW15684  12.648   4.995   9.697
 4596SOL    HW115685  12.623   5.071   9.644
 4596SOL    HW215686  12.615   5.016   9.785
 4597SOL     OW15687   0.003  12.846   6.754
 4597SOL    HW115688   0.084  12.828   6.706
 4597SOL    HW215689   0.025  12.917   6.813
 4598SOL     OW15690   3.429   6.101  10.667
 4598SOL    HW115691   3.377   6.035  10.622
 4598SOL    HW215692   3.450   6.166  10.600
 4599SOL     OW15693  13.949  12.645  12.700
 4599SOL    HW115694  13.920  12.656  12.610
 4599SOL    HW215695  14.044  12.637  12.694
 4600SOL     OW15696   0.779  13.354   0.655
 4600SOL    HW115697   0.867  13.324   0.677
 4600SOL    HW215698   0.736  13.367   0.740
 4601SOL     OW15699   5.658   2.315   0.291
 4601SOL    HW115700   5.573   2.334   0.252
 4601SOL    HW215701   5.662   2.219   0.295
 4602SOL     OW15702  14.320   6.902  14.070
 4602SOL    HW115703  14.320   6.997  14.061
 4602SOL    HW215704  14.228   6.878  14.081
 4603SOL     OW15705  10.083   4.636  11.727
 4603SOL    HW115706  10.117   4.707  11.781
 4603SOL    HW215707  10.131   4.643  11.644
 4604SOL     OW15708  13.934   6.060   0.285
 4604SOL    HW115709  13.956   6.115   0.209
 4604SOL    HW215710  13.959   5.972   0.259
 4605SOL     OW15711  12.427  14.829  13.980
 4605SOL    HW115712  12.351   0.006  13.947
 4605SOL    HW215713  12.502   0.002  13.942
 4606SOL     OW15714   5.517  11.172   2.725
 4606SOL    HW115715   5.577  11.113   2.771
 4606SOL    HW215716   5.560  11.257   2.728
 4607SOL     OW15717   0.970   2.154   8.377
 4607SOL    HW115718   0.941   2.135   8.288
 4607SOL    HW215719   1.066   2.149   8.373
 4608SOL     OW15720  13.367   2.918   9.292
 4608SOL    HW115721  13.332   2.852   9.352
 4608SOL    HW215722  13.295   2.980   9.281
 4609SOL     OW15723   1.389   4.358   8.204
 4609SOL    HW115724   1.384   4.284   8.144
 4609SOL    HW215725   1.299   4.372   8.233
 4610SOL     OW15726   7.627   1.148  11.386
 4610SOL    HW115727   7.665   1.235  11.381
 4610SOL    HW215728   7.672   1.098  11.318
 4611SOL     OW15729   3.725   8.899   1.097
 4611SOL    HW115730   3.699   8.873   1.009
 4611SOL    HW215731   3.745   8.992   1.089
 4612SOL     OW15732  10.864   0.989   2.471
 4612SOL    HW115733  10.854   0.905   2.516
 4612SOL    HW215734  10.930   0.973   2.404
 4613SOL     OW15735   9.593   2.580   6.046
 4613SOL    HW115736   9.546   2.652   6.004
 4613SOL    HW215737   9.525   2.526   6.085
 4614SOL     OW15738   9.053  14.138   2.325
 4614SOL    HW115739   8.994  14.071   2.289
 4614SOL    HW215740   9.136  14.092   2.339
 4615SOL     OW15741   9.785   0.292  13.939
 4615SOL    HW115742   9.705   0.344  13.936
 4615SOL    HW215743   9.782   0.248  14.024
 4616SOL     OW15744   5.013  13.608  11.557
 4616SOL    HW115745   5.061  13.627  11.476
 4616SOL    HW215746   4.931  13.569  11.528
 4617SOL     OW15747   3.647   1.470   2.295
 4617SOL    HW115748   3.671   1.461   2.388
 4617SOL    HW215749   3.715   1.525   2.257
 4618SOL     OW15750   2.229  10.173   4.529
 4618SOL    HW115751   2.217  10.133   4.443
 4618SOL    HW215752   2.294  10.242   4.515
 4619SOL     OW15753   7.788   9.482  11.792
 4619SOL    HW115754   7.813   9.435  11.713
 4619SOL    HW215755   7.693   9.477  11.794
 4620SOL     OW15756   0.443   9.358  12.138
 4620SOL    HW115757   0.387   9.411  12.195
 4620SOL    HW215758   0.514   9.417  12.113
 4621SOL     OW15759  11.002   0.953   3.032
 4621SOL    HW115760  11.023   1.043   3.008
 4621SOL    HW215761  10.920   0.934   2.987
 4622SOL     OW15762   8.866  14.363   7.945
 4622SOL    HW115763   8.779  14.361   7.906
 4622SOL    HW215764   8.903  14.276   7.925
 4623SOL     OW15765  11.070   7.995  10.565
 4623SOL    HW115766  11.135   8.002  10.496
 4623SOL    HW215767  10.986   7.993  10.519
 4624SOL     OW15768  11.968  14.249   9.947
 4624SOL    HW115769  11.922  14.228   9.866
 4624SOL    HW215770  11.954  14.343   9.959
 4625SOL     OW15771   7.316   4.342   0.057
 4625SOL    HW115772   7.300   4.248   0.047
 4625SOL    HW215773   7.233   4.378   0.088
 4626SOL     OW15774   2.421  12.724  10.569
 4626SOL    HW115775   2.346  12.705  10.513
 4626SOL    HW215776   2.385  12.773  10.642
 4627SOL     OW15777   1.426  11.907   7.578
 4627SOL    HW115778   1.421  11.847   7.652
 4627SOL    HW215779   1.493  11.870   7.521
 4628SOL     OW15780  13.459   8.706   6.933
 4628SOL    HW115781  13.459   8.764   7.010
 4628SOL    HW215782  13.545   8.665   6.934
 4629SOL     OW15783   8.612   0.429  13.551
 4629SOL    HW115784   8.629   0.370  13.625
 4629SOL    HW215785   8.519   0.451  13.558
 4630SOL     OW15786   9.833   6.530   2.849
 4630SOL    HW115787   9.780   6.603   2.882
 4630SOL    HW215788   9.792   6.452   2.887
 4631SOL     OW15789   5.584   6.420  10.667
 4631SOL    HW115790   5.623   6.506  10.657
 4631SOL    HW215791   5.647   6.360  10.626
 4632SOL     OW15792   6.690   1.283  12.220
 4632SOL    HW115793   6.782   1.264  12.239
 4632SOL    HW215794   6.666   1.349  12.285
 4633SOL     OW15795   2.035  14.857   3.393
 4633SOL    HW115796   2.091  14.787   3.425
 4633SOL    HW215797   1.947  14.819   3.392
 4634SOL     OW15798   2.922   8.971   5.014
 4634SOL    HW115799   2.875   8.972   5.097
 4634SOL    HW215800   3.010   9.000   5.035
 4635SOL     OW15801   5.873   1.196   1.988
 4635SOL    HW115802   5.810   1.134   1.950
 4635SOL    HW215803   5.871   1.178   2.082
 4636SOL     OW15804   7.690   5.093   9.837
 4636SOL    HW115805   7.597   5.115   9.842
 4636SOL    HW215806   7.720   5.094   9.927
 4637SOL     OW15807   4.486   8.496   6.444
 4637SOL    HW115808   4.422   8.460   6.382
 4637SOL    HW215809   4.548   8.424   6.458
 4638SOL     OW15810  12.224   4.260   0.857
 4638SOL    HW115811  12.210   4.166   0.840
 4638SOL    HW215812  12.317   4.273   0.841
 4639SOL     OW15813   1.115   5.413  14.441
 4639SOL    HW115814   1.180   5.438  14.375
 4639SOL    HW215815   1.040   5.470  14.423
 4640SOL     OW15816   7.634   0.361  10.991
 4640SOL    HW115817   7.643   0.281  11.044
 4640SOL    HW215818   7.667   0.336  10.904
 4641SOL     OW15819   1.868   2.530   0.356
 4641SOL    HW115820   1.829   2.614   0.332
 4641SOL    HW215821   1.805   2.465   0.325
 4642SOL     OW15822  14.028   9.608  14.832
 4642SOL    HW115823  13.991   9.592   0.048
 4642SOL    HW215824  14.115   9.568  14.836
 4643SOL     OW15825   5.640  12.643  10.560
 4643SOL    HW115826   5.683  12.591  10.629
 4643SOL    HW215827   5.610  12.722  10.606
 4644SOL     OW15828   0.484  14.654   0.981
 4644SOL    HW115829   0.399  14.650   1.025
 4644SOL    HW215830   0.463  14.652   0.888
 4645SOL     OW15831  12.304   1.609   5.941
 4645SOL    HW115832  12.383   1.602   5.887
 4645SOL    HW215833  12.331   1.579   6.028
 4646SOL     OW15834   6.412   1.555   5.769
 4646SOL    HW115835   6.458   1.578   5.688
 4646SOL    HW215836   6.466   1.488   5.810
 4647SOL     OW15837   2.968  12.635  14.864
 4647SOL    HW115838   2.978  12.549   0.033
 4647SOL    HW215839   3.049  12.682   0.014
 4648SOL     OW15840  14.799   4.282   2.938
 4648SOL    HW115841  14.849   4.202   2.920
 4648SOL    HW215842  14.864   4.352   2.935
 4649SOL     OW15843   0.389  10.033  10.942
 4649SOL    HW115844   0.473   9.996  10.916
 4649SOL    HW215845   0.324   9.969  10.913
 4650SOL     OW15846  12.992   9.460   9.379
 4650SOL    HW115847  12.898   9.462   9.359
 4650SOL    HW215848  13.007   9.374   9.418
 4651SOL     OW15849   7.865  13.674   2.385
 4651SOL    HW115850   7.817  13.706   2.309
 4651SOL    HW215851   7.954  13.661   2.353
 4652SOL     OW15852   2.564   4.478  11.412
 4652SOL    HW115853   2.584   4.549  11.352
 4652SOL    HW215854   2.573   4.516  11.499
 4653SOL     OW15855   9.051   5.144  10.155
 4653SOL    HW115856   9.022   5.060  10.118
 4653SOL    HW215857   8.970   5.185  10.186
 4654SOL     OW15858   1.809   9.708  14.422
 4654SOL    HW115859   1.781   9.762  14.348
 4654SOL    HW215860   1.870   9.763  14.471
 4655SOL     OW15861   8.162  12.091  11.839
 4655SOL    HW115862   8.153  12.002  11.805
 4655SOL    HW215863   8.090  12.100  11.902
 4656SOL     OW15864  13.211   5.951   9.920
 4656SOL    HW115865  13.137   5.892   9.936
 4656SOL    HW215866  13.279   5.894   9.884
 4657SOL     OW15867  11.273  11.943   4.336
 4657SOL    HW115868  11.305  11.943   4.245
 4657SOL    HW215869  11.267  12.036   4.359
 4658SOL     OW15870  12.443   9.148  14.337
 4658SOL    HW115871  12.536   9.125  14.339
 4658SOL    HW215872  12.437   9.217  14.271
 4659SOL     OW15873   3.078   6.405  13.284
 4659SOL    HW115874   3.037   6.491  13.285
 4659SOL    HW215875   3.052   6.365  13.367
 4660SOL     OW15876   8.743  11.202   6.378
 4660SOL    HW115877   8.777  11.184   6.466
 4660SOL    HW215878   8.650  11.218   6.390
 4661SOL     OW15879   3.815   0.483   9.612
 4661SOL    HW115880   3.835   0.558   9.556
 4661SOL    HW215881   3.780   0.417   9.552
 4662SOL     OW15882   9.313  10.946   4.718
 4662SOL    HW115883   9.385  10.892   4.749
 4662SOL    HW215884   9.348  11.035   4.715
 4663SOL     OW15885  10.366  14.869   2.443
 4663SOL    HW115886  10.315  14.789   2.455
 4663SOL    HW215887  10.349   0.024   2.353
 4664SOL     OW15888   5.287   2.078   7.558
 4664SOL    HW115889   5.347   2.101   7.629
 4664SOL    HW215890   5.219   2.146   7.560
 4665SOL     OW15891  13.282   3.092  12.950
 4665SOL    HW115892  13.371   3.100  12.916
 4665SOL    HW215893  13.273   3.162  13.014
 4666SOL     OW15894   0.420   7.495   3.560
 4666SOL    HW115895   0.360   7.486   3.634
 4666SOL    HW215896   0.371   7.462   3.485
 4667SOL     OW15897   1.532  10.783   1.400
 4667SOL    HW115898   1.511  10.864   1.354
 4667SOL    HW215899   1.477  10.784   1.478
 4668SOL     OW15900   7.129   5.984   3.365
 4668SOL    HW115901   7.218   5.968   3.331
 4668SOL    HW215902   7.135   6.069   3.408
 4669SOL     OW15903  10.853  12.125   8.145
 4669SOL    HW115904  10.836  12.052   8.085
 4669SOL    HW215905  10.779  12.184   8.131
 4670SOL     OW15906  14.210   6.282  13.842
 4670SOL    HW115907  14.246   6.204  13.801
 4670SOL    HW215908  14.279   6.312  13.901
 4671SOL     OW15909  13.446  11.260   9.502
 4671SOL    HW115910  13.417  11.204   9.575
 4671SOL    HW215911  13.512  11.317   9.541
 4672SOL     OW15912   7.717   2.761   9.827
 4672SOL    HW115913   7.712   2.855   9.843
 4672SOL    HW215914   7.776   2.728   9.895
 4673SOL     OW15915   2.086   9.941   4.573
 4673SOL    HW115916   2.152   9.872   4.578
 4673SOL    HW215917   2.135  10.022   4.585
 4674SOL     OW15918   4.969   4.203  12.940
 4674SOL    HW115919   5.061   4.175  12.935
 4674SOL    HW215920   4.961   4.271  12.874
 4675SOL     OW15921   7.549   2.265   6.348
 4675SOL    HW115922   7.484   2.335   6.351
 4675SOL    HW215923   7.633   2.311   6.344
 4676SOL     OW15924  11.230   2.879   4.321
 4676SOL    HW115925  11.242   2.784   4.323
 4676SOL    HW215926  11.137   2.893   4.337
 4677SOL     OW15927   7.773  11.452   5.409
 4677SOL    HW115928   7.822  11.530   5.382
 4677SOL    HW215929   7.833  11.405   5.466
 4678SOL     OW15930   9.328   5.698   7.612
 4678SOL    HW115931   9.369   5.652   7.539
 4678SOL    HW215932   9.340   5.791   7.590
 4679SOL     OW15933   4.089   2.152   2.300
 4679SOL    HW115934   4.062   2.234   2.257
 4679SOL    HW215935   4.164   2.121   2.248
 4680SOL     OW15936   0.831   5.240   5.821
 4680SOL    HW115937   0.769   5.212   5.888
 4680SOL    HW215938   0.777   5.263   5.746
 4681SOL     OW15939   0.623   6.664   8.374
 4681SOL    HW115940   0.676   6.632   8.447
 4681SOL    HW215941   0.533   6.649   8.402
 4682SOL     OW15942   0.995  10.128  14.012
 4682SOL    HW115943   0.920  10.184  14.032
 4682SOL    HW215944   0.956  10.048  13.977
 4683SOL     OW15945   3.089   0.353  13.325
 4683SOL    HW115946   3.077   0.291  13.397
 4683SOL    HW215947   3.016   0.414  13.334
 4684SOL     OW15948  11.868   1.177   2.713
 4684SOL    HW115949  11.887   1.199   2.622
 4684SOL    HW215950  11.912   1.093   2.727
 4685SOL     OW15951   8.570  14.416  10.595
 4685SOL    HW115952   8.581  14.502  10.555
 4685SOL    HW215953   8.479  14.392  10.578
 4686SOL     OW15954   1.997   5.726  13.243
 4686SOL    HW115955   1.938   5.753  13.172
 4686SOL    HW215956   1.960   5.766  13.321
 4687SOL     OW15957  11.734   4.095   5.960
 4687SOL    HW115958  11.652   4.140   5.942
 4687SOL    HW215959  11.751   4.044   5.880
 4688SOL     OW15960  10.493  13.198  13.110
 4688SOL    HW115961  10.445  13.248  13.045
 4688SOL    HW215962  10.435  13.126  13.132
 4689SOL     OW15963  10.018   3.387   8.902
 4689SOL    HW115964  10.002   3.481   8.908
 4689SOL    HW215965   9.971   3.349   8.976
 4690SOL     OW15966  13.155   3.970  12.171
 4690SOL    HW115967  13.118   3.890  12.134
 4690SOL    HW215968  13.098   4.040  12.138
 4691SOL     OW15969   0.563   1.979   8.358
 4691SOL    HW115970   0.522   2.027   8.286
 4691SOL    HW215971   0.645   2.026   8.374
 4692SOL     OW15972  14.189  10.515  13.326
 4692SOL    HW115973  14.200  10.521  13.421
 4692SOL    HW215974  14.152  10.600  13.301
 4693SOL     OW15975  13.609  11.317   6.995
 4693SOL    HW115976  13.661  11.393   7.021
 4693SOL    HW215977  13.518  11.345   7.001
 4694SOL     OW15978   9.564   5.404  14.518
 4694SOL    HW115979   9.655   5.422  14.542
 4694SOL    HW215980   9.515   5.477  14.556
 4695SOL     OW15981  13.414  10.055   4.914
 4695SOL    HW115982  13.327  10.068   4.952
 4695SOL    HW215983  13.398  10.040   4.821
 4696SOL     OW15984  10.615   6.398  10.629
 4696SOL    HW115985  10.620   6.305  10.647
 4696SOL    HW215986  10.673   6.411  10.554
 4697SOL     OW15987  12.745   5.237   3.257
 4697SOL    HW115988  12.762   5.329   3.241
 4697SOL    HW215989  12.829   5.194   3.243
 4698SOL     OW15990   9.556   6.009   8.922
 4698SOL    HW115991   9.540   6.079   8.985
 4698SOL    HW215992   9.520   6.041   8.840
 4699SOL     OW15993  13.243  12.220  11.512
 4699SOL    HW115994  13.269  12.210  11.420
 4699SOL    HW215995  13.319  12.191  11.562
 4700SOL     OW15996   9.366   7.492   0.382
 4700SOL    HW115997   9.317   7.454   0.455
 4700SOL    HW215998   9.446   7.526   0.421
 4701SOL     OW15999   7.051  12.092   2.291
 4701SOL    HW116000   7.147  12.098   2.292
 4701SOL    HW216001   7.034  12.004   2.257
 4702SOL     OW16002  12.977  12.345   7.963
 4702SOL    HW116003  12.933  12.276   7.912
 4702SOL    HW216004  13.046  12.377   7.905
 4703SOL     OW16005  12.791  10.122  12.259
 4703SOL    HW116006  12.784  10.157  12.348
 4703SOL    HW216007  12.701  10.097  12.237
 4704SOL     OW16008   3.888   9.312   6.662
 4704SOL    HW116009   3.867   9.257   6.738
 4704SOL    HW216010   3.804   9.343   6.630
 4705SOL     OW16011   9.447  12.528   1.104
 4705SOL    HW116012   9.534  12.494   1.122
 4705SOL    HW216013   9.415  12.473   1.032
 4706SOL     OW16014  13.711  14.340   2.420
 4706SOL    HW116015  13.664  14.381   2.347
 4706SOL    HW216016  13.677  14.250   2.423
 4707SOL     OW16017   4.448   1.018   6.992
 4707SOL    HW116018   4.437   0.938   7.043
 4707SOL    HW216019   4.380   1.014   6.925
 4708SOL     OW16020   3.250  12.318  14.551
 4708SOL    HW116021   3.307  12.316  14.628
 4708SOL    HW216022   3.263  12.405  14.513
 4709SOL     OW16023   3.022   2.312   0.475
 4709SOL    HW116024   2.939   2.336   0.434
 4709SOL    HW216025   3.087   2.368   0.433
 4710SOL     OW16026  12.876   7.222   5.212
 4710SOL    HW116027  12.959   7.177   5.226
 4710SOL    HW216028  12.879   7.296   5.273
 4711SOL     OW16029   7.917  11.659   8.921
 4711SOL    HW116030   7.874  11.744   8.923
 4711SOL    HW216031   7.893  11.622   8.836
 4712SOL     OW16032   2.017   5.500   5.207
 4712SOL    HW116033   2.073   5.575   5.186
 4712SOL    HW216034   1.928   5.534   5.198
 4713SOL     OW16035  13.220   3.318   2.617
 4713SOL    HW116036  13.271   3.395   2.640
 4713SOL    HW216037  13.222   3.263   2.695
 4714SOL     OW16038   2.509   2.325   5.515
 4714SOL    HW116039   2.553   2.247   5.482
 4714SOL    HW216040   2.417   2.312   5.493
 4715SOL     OW16041   1.133  13.048   8.577
 4715SOL    HW116042   1.136  13.111   8.505
 4715SOL    HW216043   1.221  13.052   8.615
 4716SOL     OW16044   2.458   6.475   5.675
 4716SOL    HW116045   2.461   6.453   5.582
 4716SOL    HW216046   2.423   6.564   5.676
 4717SOL     OW16047   8.038   1.119   1.862
 4717SOL    HW116048   8.099   1.191   1.877
 4717SOL    HW216049   8.015   1.125   1.769
 4718SOL     OW16050   8.715   5.664   2.278
 4718SOL    HW116051   8.641   5.686   2.221
 4718SOL    HW216052   8.743   5.577   2.248
 4719SOL     OW16053   1.172   5.444  11.931
 4719SOL    HW116054   1.100   5.507  11.935
 4719SOL    HW216055   1.152   5.390  11.854
 4720SOL     OW16056  10.741   4.378   8.973
 4720SOL    HW116057  10.835   4.364   8.982
 4720SOL    HW216058  10.710   4.304   8.921
 4721SOL     OW16059  14.032  10.304  11.983
 4721SOL    HW116060  14.069  10.346  12.060
 4721SOL    HW216061  13.997  10.221  12.015
 4722SOL     OW16062   0.741   4.595  13.851
 4722SOL    HW116063   0.746   4.618  13.944
 4722SOL    HW216064   0.832   4.581  13.824
 4723SOL     OW16065  11.353   0.359   7.282
 4723SOL    HW116066  11.401   0.437   7.254
 4723SOL    HW216067  11.374   0.293   7.216
 4724SOL     OW16068   4.866   0.193   7.851
 4724SOL    HW116069   4.875   0.104   7.817
 4724SOL    HW216070   4.789   0.229   7.806
 4725SOL     OW16071  10.731   6.183   4.213
 4725SOL    HW116072  10.784   6.106   4.193
 4725SOL    HW216073  10.723   6.229   4.130
 4726SOL     OW16074  11.916   1.203   0.254
 4726SOL    HW116075  11.962   1.120   0.242
 4726SOL    HW216076  11.890   1.203   0.346
 4727SOL     OW16077   4.651   4.983  10.560
 4727SOL    HW116078   4.694   4.909  10.518
 4727SOL    HW216079   4.677   4.978  10.652
 4728SOL     OW16080  10.682  10.790   5.786
 4728SOL    HW116081  10.725  10.780   5.701
 4728SOL    HW216082  10.590  10.807   5.764
 4729SOL     OW16083   2.915   6.627   9.283
 4729SOL    HW116084   2.919   6.532   9.298
 4729SOL    HW216085   2.995   6.661   9.322
 4730SOL     OW16086   3.598   6.792  12.449
 4730SOL    HW116087   3.693   6.788  12.440
 4730SOL    HW216088   3.570   6.857  12.385
 4731SOL     OW16089  11.444   0.869   3.332
 4731SOL    HW116090  11.416   0.892   3.421
 4731SOL    HW216091  11.366   0.879   3.279
 4732SOL     OW16092   4.727   2.339   8.920
 4732SOL    HW116093   4.792   2.277   8.886
 4732SOL    HW216094   4.747   2.422   8.875
 4733SOL     OW16095  12.103  11.236   9.190
 4733SOL    HW116096  12.072  11.301   9.126
 4733SOL    HW216097  12.051  11.254   9.269
 4734SOL     OW16098  12.162   5.304   4.045
 4734SOL    HW116099  12.243   5.296   3.995
 4734SOL    HW216100  12.158   5.225   4.098
 4735SOL     OW16101   8.348   7.652  12.928
 4735SOL    HW116102   8.342   7.582  12.992
 4735SOL    HW216103   8.418   7.625  12.869
 4736SOL     OW16104  10.650   3.869   1.440
 4736SOL    HW116105  10.709   3.893   1.368
 4736SOL    HW216106  10.581   3.935   1.438
 4737SOL     OW16107  13.288   4.466   8.157
 4737SOL    HW116108  13.379   4.450   8.132
 4737SOL    HW216109  13.259   4.383   8.195
 4738SOL     OW16110  13.122   1.828   6.606
 4738SOL    HW116111  13.216   1.833   6.584
 4738SOL    HW216112  13.083   1.902   6.560
 4739SOL     OW16113   4.278   6.947  11.762
 4739SOL    HW116114   4.322   7.021  11.803
 4739SOL    HW216115   4.223   6.986  11.694
 4740SOL     OW16116   0.692   1.892   1.125
 4740SOL    HW116117   0.668   1.896   1.032
 4740SOL    HW216118   0.638   1.822   1.161
 4741SOL     OW16119  12.773  13.170  12.266
 4741SOL    HW116120  12.786  13.083  12.229
 4741SOL    HW216121  12.849  13.184  12.323
 4742SOL     OW16122   6.774   1.721   1.361
 4742SOL    HW116123   6.771   1.652   1.295
 4742SOL    HW216124   6.868   1.740   1.370
 4743SOL     OW16125  11.875  12.457   4.569
 4743SOL    HW116126  11.823  12.470   4.490
 4743SOL    HW216127  11.959  12.423   4.538
 4744SOL     OW16128  10.040   6.103   4.677
 4744SOL    HW116129  10.045   6.103   4.582
 4744SOL    HW216130  10.126   6.133   4.706
 4745SOL     OW16131   9.531  12.584  12.588
 4745SOL    HW116132   9.601  12.608  12.649
 4745SOL    HW216133   9.577  12.539  12.517
 4746SOL     OW16134   2.605   0.689  13.374
 4746SOL    HW116135   2.648   0.737  13.445
 4746SOL    HW216136   2.518   0.669  13.409
 4747SOL     OW16137  13.617   4.381  12.492
 4747SOL    HW116138  13.582   4.365  12.404
 4747SOL    HW216139  13.625   4.476  12.498
 4748SOL     OW16140   2.050  10.882  14.308
 4748SOL    HW116141   2.121  10.946  14.319
 4748SOL    HW216142   2.094  10.803  14.278
 4749SOL     OW16143   8.641  12.942  11.240
 4749SOL    HW116144   8.683  13.027  11.234
 4749SOL    HW216145   8.631  12.913  11.149
 4750SOL     OW16146   8.805   6.901   9.722
 4750SOL    HW116147   8.827   6.993   9.740
 4750SOL    HW216148   8.791   6.898   9.628
 4751SOL     OW16149  11.477  14.308  11.213
 4751SOL    HW116150  11.487  14.371  11.284
 4751SOL    HW216151  11.511  14.226  11.250
 4752SOL     OW16152   6.205  13.963   8.474
 4752SOL    HW116153   6.294  13.996   8.469
 4752SOL    HW216154   6.211  13.883   8.526
 4753SOL     OW16155   2.410   9.895  10.089
 4753SOL    HW116156   2.423   9.942  10.006
 4753SOL    HW216157   2.325   9.926  10.120
 4754SOL     OW16158   3.373   9.967  10.904
 4754SOL    HW116159   3.327  10.037  10.951
 4754SOL    HW216160   3.449  10.010  10.866
 4755SOL     OW16161  13.775   6.302   9.542
 4755SOL    HW116162  13.842   6.268   9.483
 4755SOL    HW216163  13.822   6.321   9.623
 4756SOL     OW16164  14.299  12.309   4.797
 4756SOL    HW116165  14.282  12.367   4.872
 4756SOL    HW216166  14.335  12.367   4.730
 4757SOL     OW16167  13.266   6.323  13.145
 4757SOL    HW116168  13.203   6.347  13.213
 4757SOL    HW216169  13.332   6.391  13.148
 4758SOL     OW16170   1.120   7.999  14.038
 4758SOL    HW116171   1.064   7.961  13.970
 4758SOL    HW216172   1.205   8.011  13.995
 4759SOL     OW16173   0.455  10.781   5.745
 4759SOL    HW116174   0.536  10.830   5.757
 4759SOL    HW216175   0.437  10.789   5.651
 4760SOL     OW16176   0.690   6.653   8.700
 4760SOL    HW116177   0.744   6.587   8.744
 4760SOL    HW216178   0.751   6.723   8.677
 4761SOL     OW16179   1.081  13.183   8.921
 4761SOL    HW116180   1.081  13.225   9.007
 4761SOL    HW216181   1.173  13.161   8.906
 4762SOL     OW16182   8.864   3.428  12.614
 4762SOL    HW116183   8.954   3.413  12.643
 4762SOL    HW216184   8.810   3.397  12.687
 4763SOL     OW16185   1.687  12.857   7.093
 4763SOL    HW116186   1.615  12.878   7.153
 4763SOL    HW216187   1.662  12.774   7.054
 4764SOL     OW16188  14.739   2.496  10.625
 4764SOL    HW116189  14.732   2.590  10.614
 4764SOL    HW216190  14.696   2.459  10.548
 4765SOL     OW16191   4.483   9.366   4.544
 4765SOL    HW116192   4.491   9.374   4.449
 4765SOL    HW216193   4.570   9.340   4.573
 4766SOL     OW16194   4.783   0.548   0.604
 4766SOL    HW116195   4.854   0.485   0.622
 4766SOL    HW216196   4.801   0.578   0.515
 4767SOL     OW16197  12.496   2.137  10.142
 4767SOL    HW116198  12.519   2.157  10.051
 4767SOL    HW216199  12.523   2.214  10.191
 4768SOL     OW16200   2.304   6.033   3.482
 4768SOL    HW116201   2.364   5.987   3.541
 4768SOL    HW216202   2.275   5.966   3.420
 4769SOL     OW16203  14.664   7.783  14.326
 4769SOL    HW116204  14.670   7.879  14.330
 4769SOL    HW216205  14.740   7.753  14.375
 4770SOL     OW16206   7.742  14.253   5.204
 4770SOL    HW116207   7.834  14.227   5.205
 4770SOL    HW216208   7.712  14.231   5.116
 4771SOL     OW16209   4.876  12.842   6.500
 4771SOL    HW116210   4.971  12.856   6.500
 4771SOL    HW216211   4.865  12.754   6.465
 4772SOL     OW16212   4.766   1.644   7.991
 4772SOL    HW116213   4.829   1.715   7.981
 4772SOL    HW216214   4.685   1.677   7.950
 4773SOL     OW16215   3.090  14.766  12.596
 4773SOL    HW116216   3.078  14.757  12.691
 4773SOL    HW216217   3.010  14.730  12.558
 4774SOL     OW16218  13.294   3.807   2.902
 4774SOL    HW116219  13.206   3.844   2.912
 4774SOL    HW216220  13.280   3.712   2.900
 4775SOL     OW16221  12.117   5.082   2.298
 4775SOL    HW116222  12.138   5.140   2.371
 4775SOL    HW216223  12.183   5.101   2.232
 4776SOL     OW16224   4.330  13.994   6.588
 4776SOL    HW116225   4.302  14.081   6.561
 4776SOL    HW216226   4.366  14.007   6.676
 4777SOL     OW16227   1.291  10.629  11.526
 4777SOL    HW116228   1.213  10.620  11.471
 4777SOL    HW216229   1.289  10.719  11.557
 4778SOL     OW16230   5.953  12.642   4.203
 4778SOL    HW116231   5.901  12.658   4.282
 4778SOL    HW216232   5.888  12.633   4.133
 4779SOL     OW16233  11.119   3.008   5.663
 4779SOL    HW116234  11.068   2.958   5.599
 4779SOL    HW216235  11.055   3.034   5.729
 4780SOL     OW16236   6.548   7.623   6.462
 4780SOL    HW116237   6.506   7.537   6.466
 4780SOL    HW216238   6.587   7.626   6.374
 4781SOL     OW16239   6.816  11.963  12.624
 4781SOL    HW116240   6.882  11.914  12.575
 4781SOL    HW216241   6.759  11.999  12.556
 4782SOL     OW16242   4.173  10.306  10.436
 4782SOL    HW116243   4.193  10.302  10.343
 4782SOL    HW216244   4.222  10.234  10.475
 4783SOL     OW16245   9.740   4.860   2.083
 4783SOL    HW116246   9.744   4.894   1.993
 4783SOL    HW216247   9.799   4.917   2.133
 4784SOL     OW16248   3.146   2.841   0.041
 4784SOL    HW116249   3.125   2.930   0.013
 4784SOL    HW216250   3.149   2.847   0.137
 4785SOL     OW16251  11.865  13.494   3.327
 4785SOL    HW116252  11.819  13.557   3.383
 4785SOL    HW216253  11.950  13.480   3.370
 4786SOL     OW16254   9.434   7.916   2.832
 4786SOL    HW116255   9.495   7.869   2.775
 4786SOL    HW216256   9.439   8.007   2.803
 4787SOL     OW16257   1.828  14.280   4.354
 4787SOL    HW116258   1.807  14.325   4.436
 4787SOL    HW216259   1.787  14.194   4.363
 4788SOL     OW16260   2.338  13.271   9.979
 4788SOL    HW116261   2.270  13.227   9.927
 4788SOL    HW216262   2.290  13.337  10.030
 4789SOL     OW16263   6.483   3.790   9.505
 4789SOL    HW116264   6.563   3.842   9.503
 4789SOL    HW216265   6.422   3.842   9.557
 4790SOL     OW16266   3.835  11.354   2.165
 4790SOL    HW116267   3.751  11.329   2.203
 4790SOL    HW216268   3.817  11.363   2.071
 4791SOL     OW16269   0.266   5.382   8.256
 4791SOL    HW116270   0.300   5.469   8.277
 4791SOL    HW216271   0.289   5.368   8.165
 4792SOL     OW16272   6.007  10.678   4.483
 4792SOL    HW116273   6.009  10.760   4.433
 4792SOL    HW216274   6.022  10.610   4.417
 4793SOL     OW16275   6.085   6.716   9.675
 4793SOL    HW116276   6.161   6.721   9.733
 4793SOL    HW216277   6.049   6.805   9.675
 4794SOL     OW16278  12.436   5.511   4.545
 4794SOL    HW116279  12.473   5.451   4.609
 4794SOL    HW216280  12.372   5.459   4.496
 4795SOL     OW16281   3.429  14.660   6.648
 4795SOL    HW116282   3.356  14.717   6.673
 4795SOL    HW216283   3.436  14.670   6.553
 4796SOL     OW16284   6.853   5.120   3.871
 4796SOL    HW116285   6.793   5.046   3.862
 4796SOL    HW216286   6.812   5.191   3.821
 4797SOL     OW16287  11.115   6.692   5.067
 4797SOL    HW116288  11.179   6.762   5.068
 4797SOL    HW216289  11.166   6.612   5.050
 4798SOL     OW16290   6.462   9.717   1.062
 4798SOL    HW116291   6.389   9.664   1.030
 4798SOL    HW216292   6.446   9.724   1.156
 4799SOL     OW16293   9.171   4.445   9.089
 4799SOL    HW116294   9.154   4.499   9.166
 4799SOL    HW216295   9.240   4.384   9.117
 4800SOL     OW16296  10.810  10.332   4.426
 4800SOL    HW116297  10.770  10.304   4.509
 4800SOL    HW216298  10.740  10.324   4.361
 4801SOL     OW16299  11.554   2.025  11.105
 4801SOL    HW116300  11.609   1.975  11.045
 4801SOL    HW216301  11.579   2.116  11.091
 4802SOL     OW16302   0.942   3.943   8.673
 4802SOL    HW116303   0.988   3.928   8.590
 4802SOL    HW216304   0.850   3.956   8.647
 4803SOL     OW16305   2.620   9.135  10.712
 4803SOL    HW116306   2.575   9.158  10.630
 4803SOL    HW216307   2.653   9.046  10.697
 4804SOL     OW16308   7.277   7.341   9.635
 4804SOL    HW116309   7.329   7.399   9.690
 4804SOL    HW216310   7.229   7.399   9.576
 4805SOL     OW16311  13.981   0.388  12.318
 4805SOL    HW116312  13.929   0.334  12.258
 4805SOL    HW216313  13.919   0.453  12.351
 4806SOL     OW16314   5.845  10.221  13.246
 4806SOL    HW116315   5.913  10.185  13.302
 4806SOL    HW216316   5.893  10.267  13.176
 4807SOL     OW16317   4.045  10.808   3.439
 4807SOL    HW116318   4.067  10.841   3.352
 4807SOL    HW216319   4.106  10.852   3.498
 4808SOL     OW16320   4.661   8.195   4.299
 4808SOL    HW116321   4.590   8.221   4.240
 4808SOL    HW216322   4.734   8.172   4.241
 4809SOL     OW16323   0.700   1.182   4.809
 4809SOL    HW116324   0.715   1.186   4.903
 4809SOL    HW216325   0.709   1.089   4.787
 4810SOL     OW16326   3.382   5.820   4.584
 4810SOL    HW116327   3.387   5.883   4.656
 4810SOL    HW216328   3.338   5.867   4.513
 4811SOL     OW16329   8.652  12.468   7.260
 4811SOL    HW116330   8.572  12.497   7.305
 4811SOL    HW216331   8.659  12.527   7.185
 4812SOL     OW16332  13.740   0.914  11.439
 4812SOL    HW116333  13.793   0.880  11.366
 4812SOL    HW216334  13.713   1.001  11.410
 4813SOL     OW16335   1.397  12.679   3.920
 4813SOL    HW116336   1.360  12.598   3.955
 4813SOL    HW216337   1.397  12.740   3.994
 4814SOL     OW16338   2.127   3.327   0.926
 4814SOL    HW116339   2.090   3.400   0.976
 4814SOL    HW216340   2.052   3.288   0.882
 4815SOL     OW16341   8.953  10.509  10.481
 4815SOL    HW116342   8.886  10.522  10.414
 4815SOL    HW216343   8.989  10.422  10.464
 4816SOL     OW16344  10.764  13.064   0.228
 4816SOL    HW116345  10.797  13.057   0.138
 4816SOL    HW216346  10.795  12.984   0.271
 4817SOL     OW16347  10.873   8.261  11.230
 4817SOL    HW116348  10.879   8.167  11.209
 4817SOL    HW216349  10.780   8.278  11.238
 4818SOL     OW16350   2.445  14.253   9.747
 4818SOL    HW116351   2.413  14.164   9.738
 4818SOL    HW216352   2.493  14.254   9.830
 4819SOL     OW16353   8.581   7.195   6.868
 4819SOL    HW116354   8.624   7.125   6.917
 4819SOL    HW216355   8.651   7.238   6.820
 4820SOL     OW16356  13.362   3.265   8.785
 4820SOL    HW116357  13.336   3.333   8.722
 4820SOL    HW216358  13.439   3.225   8.746
 4821SOL     OW16359   1.310  10.261   2.712
 4821SOL    HW116360   1.400  10.244   2.738
 4821SOL    HW216361   1.294  10.352   2.736
 4822SOL     OW16362  10.674  11.413  13.582
 4822SOL    HW116363  10.711  11.470  13.650
 4822SOL    HW216364  10.730  11.336  13.582
 4823SOL     OW16365  13.383  14.357  12.971
 4823SOL    HW116366  13.387  14.287  12.906
 4823SOL    HW216367  13.294  14.354  13.005
 4824SOL     OW16368   1.765  12.059   8.450
 4824SOL    HW116369   1.830  12.123   8.480
 4824SOL    HW216370   1.718  12.035   8.529
 4825SOL     OW16371   4.855   1.889   7.276
 4825SOL    HW116372   4.822   1.848   7.357
 4825SOL    HW216373   4.872   1.815   7.218
 4826SOL     OW16374   3.019   8.797   9.497
 4826SOL    HW116375   2.928   8.777   9.479
 4826SOL    HW216376   3.041   8.867   9.435
 4827SOL     OW16377   4.147  11.908   4.477
 4827SOL    HW116378   4.217  11.890   4.540
 4827SOL    HW216379   4.068  11.873   4.519
 4828SOL     OW16380  11.013   6.172  11.628
 4828SOL    HW116381  11.019   6.098  11.567
 4828SOL    HW216382  10.991   6.131  11.712
 4829SOL     OW16383   5.638   8.909   2.710
 4829SOL    HW116384   5.724   8.930   2.675
 4829SOL    HW216385   5.655   8.842   2.776
 4830SOL     OW16386   2.595   4.032   9.263
 4830SOL    HW116387   2.630   3.948   9.293
 4830SOL    HW216388   2.509   4.011   9.227
 4831SOL     OW16389  10.881  11.256   0.490
 4831SOL    HW116390  10.926  11.176   0.518
 4831SOL    HW216391  10.838  11.231   0.408
 4832SOL     OW16392   9.981   1.189  12.423
 4832SOL    HW116393   9.938   1.252  12.481
 4832SOL    HW216394  10.038   1.243  12.368
 4833SOL     OW16395   8.332   2.200  11.360
 4833SOL    HW116396   8.237   2.190  11.352
 4833SOL    HW216397   8.348   2.293  11.344
 4834SOL     OW16398   2.573  11.469   0.508
 4834SOL    HW116399   2.614  11.388   0.477
 4834SOL    HW216400   2.638  11.536   0.490
 4835SOL     OW16401   3.791  12.414  10.537
 4835SOL    HW116402   3.817  12.455  10.454
 4835SOL    HW216403   3.748  12.484  10.586
 4836SOL     OW16404   5.317  12.014  14.243
 4836SOL    HW116405   5.318  12.049  14.333
 4836SOL    HW216406   5.373  11.936  14.248
 4837SOL     OW16407  13.141   5.244  11.199
 4837SOL    HW116408  13.203   5.313  11.223
 4837SOL    HW216409  13.069   5.291  11.157
 4838SOL     OW16410   8.790   4.685   6.197
 4838SOL    HW116411   8.791   4.589   6.205
 4838SOL    HW216412   8.794   4.701   6.103
 4839SOL     OW16413  10.117   6.144   2.809
 4839SOL    HW116414  10.035   6.104   2.781
 4839SOL    HW216415  10.111   6.149   2.904
 4840SOL     OW16416  14.113   1.349   4.020
 4840SOL    HW116417  14.148   1.389   4.099
 4840SOL    HW216418  14.153   1.262   4.016
 4841SOL     OW16419   7.249   0.450   6.069
 4841SOL    HW116420   7.340   0.421   6.074
 4841SOL    HW216421   7.231   0.485   6.156
 4842SOL     OW16422  13.276   2.283   8.458
 4842SOL    HW116423  13.277   2.299   8.552
 4842SOL    HW216424  13.250   2.366   8.419
 4843SOL     OW16425   4.727  10.840   0.184
 4843SOL    HW116426   4.823  10.849   0.185
 4843SOL    HW216427   4.709  10.770   0.248
 4844SOL     OW16428   4.153   6.536   9.855
 4844SOL    HW116429   4.228   6.479   9.869
 4844SOL    HW216430   4.079   6.489   9.892
 4845SOL     OW16431   5.423   8.380  11.627
 4845SOL    HW116432   5.430   8.439  11.702
 4845SOL    HW216433   5.512   8.347  11.614
 4846SOL     OW16434   2.195  14.388   6.363
 4846SOL    HW116435   2.224  14.358   6.450
 4846SOL    HW216436   2.138  14.318   6.332
 4847SOL     OW16437   1.972   7.178  14.805
 4847SOL    HW116438   1.956   7.242  14.736
 4847SOL    HW216439   1.910   7.200   0.003
 4848SOL     OW16440   5.798   1.114   4.816
 4848SOL    HW116441   5.813   1.021   4.837
 4848SOL    HW216442   5.833   1.161   4.891
 4849SOL     OW16443   7.075   1.513  11.120
 4849SOL    HW116444   7.090   1.550  11.206
 4849SOL    HW216445   7.131   1.435  11.117
 4850SOL     OW16446  12.218  11.252   4.189
 4850SOL    HW116447  12.267  11.205   4.256
 4850SOL    HW216448  12.249  11.343   4.196
 4851SOL     OW16449   8.519   9.636   8.724
 4851SOL    HW116450   8.501   9.695   8.797
 4851SOL    HW216451   8.432   9.611   8.692
 4852SOL     OW16452   4.188  11.769  11.491
 4852SOL    HW116453   4.132  11.788  11.416
 4852SOL    HW216454   4.259  11.716  11.455
 4853SOL     OW16455   3.722   7.619  12.588
 4853SOL    HW116456   3.628   7.604  12.593
 4853SOL    HW216457   3.740   7.624  12.494
 4854SOL     OW16458  12.288  12.271  13.169
 4854SOL    HW116459  12.378  12.289  13.195
 4854SOL    HW216460  12.239  12.348  13.196
 4855SOL     OW16461  14.344   9.134   3.874
 4855SOL    HW116462  14.410   9.107   3.810
 4855SOL    HW216463  14.394   9.180   3.942
 4856SOL     OW16464  12.107  11.747   2.893
 4856SOL    HW116465  12.046  11.787   2.830
 4856SOL    HW216466  12.147  11.821   2.938
 4857SOL     OW16467   1.235   2.643  11.499
 4857SOL    HW116468   1.258   2.555  11.468
 4857SOL    HW216469   1.319   2.685  11.518
 4858SOL     OW16470  12.161  13.670   6.438
 4858SOL    HW116471  12.224  13.638   6.502
 4858SOL    HW216472  12.077  13.669   6.483
 4859SOL     OW16473   0.677  10.121  11.737
 4859SOL    HW116474   0.626  10.049  11.700
 4859SOL    HW216475   0.718  10.163  11.662
 4860SOL     OW16476   3.777   7.299   9.481
 4860SOL    HW116477   3.773   7.317   9.575
 4860SOL    HW216478   3.686   7.294   9.453
 4861SOL     OW16479   9.538   3.763  13.874
 4861SOL    HW116480   9.477   3.835  13.860
 4861SOL    HW216481   9.625   3.803  13.866
 4862SOL     OW16482   9.251   2.477  11.974
 4862SOL    HW116483   9.306   2.538  11.925
 4862SOL    HW216484   9.226   2.411  11.910
 4863SOL     OW16485   5.196   8.454  14.569
 4863SOL    HW116486   5.191   8.460  14.473
 4863SOL    HW216487   5.287   8.475  14.589
 4864SOL     OW16488   6.530   0.071  14.847
 4864SOL    HW116489   6.517  14.850  14.870
 4864SOL    HW216490   6.515   0.075  14.753
 4865SOL     OW16491   0.595  11.003   3.815
 4865SOL    HW116492   0.545  10.921   3.817
 4865SOL    HW216493   0.657  10.991   3.743
 4866SOL     OW16494   9.796  12.909   2.955
 4866SOL    HW116495   9.814  12.816   2.967
 4866SOL    HW216496   9.853  12.936   2.883
 4867SOL     OW16497   6.420  10.575   7.299
 4867SOL    HW116498   6.515  10.579   7.283
 4867SOL    HW216499   6.394  10.490   7.263
 4868SOL     OW16500   1.602  14.857  14.685
 4868SOL    HW116501   1.515  14.862  14.725
 4868SOL    HW216502   1.597   0.046  14.611
 4869SOL     OW16503   4.577   3.577   7.850
 4869SOL    HW116504   4.525   3.532   7.916
 4869SOL    HW216505   4.517   3.591   7.776
 4870SOL     OW16506   7.939   9.567  10.810
 4870SOL    HW116507   7.919   9.478  10.782
 4870SOL    HW216508   8.004   9.598  10.747
 4871SOL     OW16509   2.093   4.223   6.178
 4871SOL    HW116510   2.014   4.246   6.129
 4871SOL    HW216511   2.126   4.144   6.134
 4872SOL     OW16512   2.605   6.950  12.806
 4872SOL    HW116513   2.576   6.864  12.775
 4872SOL    HW216514   2.525   6.993  12.836
 4873SOL     OW16515   1.509  13.399   3.891
 4873SOL    HW116516   1.587  13.421   3.941
 4873SOL    HW216517   1.471  13.324   3.937
 4874SOL     OW16518   5.206  12.809   2.360
 4874SOL    HW116519   5.291  12.847   2.335
 4874SOL    HW216520   5.142  12.860   2.310
 4875SOL     OW16521   9.307   4.328   4.465
 4875SOL    HW116522   9.288   4.253   4.409
 4875SOL    HW216523   9.226   4.342   4.515
 4876SOL     OW16524   3.167  13.109   5.804
 4876SOL    HW116525   3.140  13.174   5.738
 4876SOL    HW216526   3.232  13.056   5.759
 4877SOL     OW16527   1.888   5.517   0.947
 4877SOL    HW116528   1.795   5.538   0.948
 4877SOL    HW216529   1.918   5.544   0.861
 4878SOL     OW16530   7.208   1.348  10.691
 4878SOL    HW116531   7.208   1.320  10.600
 4878SOL    HW216532   7.116   1.348  10.717
 4879SOL     OW16533   8.260   3.542   7.528
 4879SOL    HW116534   8.289   3.628   7.498
 4879SOL    HW216535   8.182   3.523   7.476
 4880SOL     OW16536   7.050   6.237   9.750
 4880SOL    HW116537   6.985   6.178   9.788
 4880SOL    HW216538   7.134   6.201   9.777
 4881SOL     OW16539   5.141  12.065   9.536
 4881SOL    HW116540   5.216  12.097   9.487
 4881SOL    HW216541   5.136  12.120   9.614
 4882SOL     OW16542   0.296   8.568   4.386
 4882SOL    HW116543   0.203   8.590   4.381
 4882SOL    HW216544   0.301   8.501   4.455
 4883SOL     OW16545   2.812   9.612  13.372
 4883SOL    HW116546   2.824   9.625  13.278
 4883SOL    HW216547   2.850   9.525  13.389
 4884SOL     OW16548  14.006   0.865   2.605
 4884SOL    HW116549  13.943   0.795   2.621
 4884SOL    HW216550  14.029   0.897   2.692
 4885SOL     OW16551  11.027   7.268   4.963
 4885SOL    HW116552  11.071   7.256   5.047
 4885SOL    HW216553  11.037   7.361   4.943
 4886SOL     OW16554   6.799  12.079   8.390
 4886SOL    HW116555   6.810  12.161   8.438
 4886SOL    HW216556   6.861  12.019   8.430
 4887SOL     OW16557  10.720   9.192  14.078
 4887SOL    HW116558  10.733   9.099  14.061
 4887SOL    HW216559  10.633   9.212  14.043
 4888SOL     OW16560   4.143   3.433   8.473
 4888SOL    HW116561   4.088   3.356   8.459
 4888SOL    HW216562   4.232   3.402   8.460
 4889SOL     OW16563  14.375   6.720   9.660
 4889SOL    HW116564  14.447   6.772   9.695
 4889SOL    HW216565  14.312   6.785   9.629
 4890SOL     OW16566   5.491  11.400   9.648
 4890SOL    HW116567   5.440  11.339   9.701
 4890SOL    HW216568   5.541  11.343   9.589
 4891SOL     OW16569   1.243   4.017   0.464
 4891SOL    HW116570   1.154   4.049   0.480
 4891SOL    HW216571   1.268   4.059   0.382
 4892SOL     OW16572   1.133   0.153   4.049
 4892SOL    HW116573   1.157   0.243   4.026
 4892SOL    HW216574   1.047   0.162   4.091
 4893SOL     OW16575   0.619   2.263   6.727
 4893SOL    HW116576   0.550   2.329   6.716
 4893SOL    HW216577   0.593   2.192   6.669
 4894SOL     OW16578  11.669   5.620  14.801
 4894SOL    HW116579  11.616   5.603   0.008
 4894SOL    HW216580  11.648   5.711  14.778
 4895SOL     OW16581   8.823  13.404   0.877
 4895SOL    HW116582   8.844  13.390   0.785
 4895SOL    HW216583   8.899  13.451   0.912
 4896SOL     OW16584   8.887   9.540   4.860
 4896SOL    HW116585   8.885   9.451   4.896
 4896SOL    HW216586   8.980   9.562   4.854
 4897SOL     OW16587  11.591  13.990   4.930
 4897SOL    HW116588  11.623  13.987   5.020
 4897SOL    HW216589  11.499  14.016   4.938
 4898SOL     OW16590  12.065   8.599   4.418
 4898SOL    HW116591  12.161   8.595   4.418
 4898SOL    HW216592  12.038   8.543   4.490
 4899SOL     OW16593   9.270  10.150   7.196
 4899SOL    HW116594   9.300  10.192   7.277
 4899SOL    HW216595   9.252  10.223   7.137
 4900SOL     OW16596   9.498   2.052   7.404
 4900SOL    HW116597   9.511   1.964   7.438
 4900SOL    HW216598   9.418   2.083   7.447
 4901SOL     OW16599   9.002  14.696   9.481
 4901SOL    HW116600   8.928  14.642   9.508
 4901SOL    HW216601   8.984  14.718   9.390
 4902SOL     OW16602   4.211  13.869   8.695
 4902SOL    HW116603   4.214  13.870   8.790
 4902SOL    HW216604   4.224  13.960   8.670
 4903SOL     OW16605  10.836  12.238   8.712
 4903SOL    HW116606  10.793  12.201   8.788
 4903SOL    HW216607  10.782  12.211   8.638
 4904SOL     OW16608  12.396   1.460  10.127
 4904SOL    HW116609  12.420   1.499  10.043
 4904SOL    HW216610  12.480   1.428  10.163
 4905SOL     OW16611  13.314   4.252   3.910
 4905SOL    HW116612  13.338   4.331   3.959
 4905SOL    HW216613  13.244   4.280   3.851
 4906SOL     OW16614   8.465  11.399  13.058
 4906SOL    HW116615   8.381  11.355  13.043
 4906SOL    HW216616   8.513  11.340  13.117
 4907SOL     OW16617   7.245  14.641  14.527
 4907SOL    HW116618   7.219  14.599  14.609
 4907SOL    HW216619   7.163  14.654  14.479
 4908SOL     OW16620  11.121  11.468   9.254
 4908SOL    HW116621  11.046  11.481   9.196
 4908SOL    HW216622  11.194  11.448   9.194
 4909SOL     OW16623   4.311   2.569   8.196
 4909SOL    HW116624   4.403   2.588   8.175
 4909SOL    HW216625   4.313   2.542   8.288
 4910SOL     OW16626   9.351   5.350   9.716
 4910SOL    HW116627   9.399   5.324   9.638
 4910SOL    HW216628   9.278   5.288   9.722
 4911SOL     OW16629   0.436   9.609   8.430
 4911SOL    HW116630   0.344   9.586   8.425
 4911SOL    HW216631   0.473   9.576   8.348
 4912SOL     OW16632  11.889  12.585   7.781
 4912SOL    HW116633  11.910  12.647   7.712
 4912SOL    HW216634  11.973  12.568   7.825
 4913SOL     OW16635  12.902   4.243   3.089
 4913SOL    HW116636  12.869   4.191   3.162
 4913SOL    HW216637  12.964   4.186   3.045
 4914SOL     OW16638   8.868   7.822  12.775
 4914SOL    HW116639   8.864   7.792  12.684
 4914SOL    HW216640   8.805   7.767  12.821
 4915SOL     OW16641  11.942   9.345   1.390
 4915SOL    HW116642  12.008   9.409   1.419
 4915SOL    HW216643  11.919   9.298   1.470
 4916SOL     OW16644   1.153   0.721  11.063
 4916SOL    HW116645   1.111   0.676  11.136
 4916SOL    HW216646   1.166   0.652  10.997
 4917SOL     OW16647  13.886   3.619  14.320
 4917SOL    HW116648  13.907   3.617  14.413
 4917SOL    HW216649  13.967   3.648  14.277
 4918SOL     OW16650   3.059  10.019   2.237
 4918SOL    HW116651   3.096   9.936   2.268
 4918SOL    HW216652   3.136  10.074   2.220
 4919SOL     OW16653  11.384  11.880   9.630
 4919SOL    HW116654  11.424  11.966   9.621
 4919SOL    HW216655  11.424  11.827   9.561
 4920SOL     OW16656   1.066   2.449   5.096
 4920SOL    HW116657   1.081   2.455   5.002
 4920SOL    HW216658   1.145   2.485   5.136
 4921SOL     OW16659   4.342  10.825  14.548
 4921SOL    HW116660   4.300  10.908  14.526
 4921SOL    HW216661   4.421  10.849  14.595
 4922SOL     OW16662  10.243  13.905   8.818
 4922SOL    HW116663  10.280  13.971   8.759
 4922SOL    HW216664  10.165  13.874   8.772
 4923SOL     OW16665  12.567   3.909   0.120
 4923SOL    HW116666  12.556   3.928   0.213
 4923SOL    HW216667  12.583   3.995   0.080
 4924SOL     OW16668  14.185   6.194   5.736
 4924SOL    HW116669  14.279   6.208   5.741
 4924SOL    HW216670  14.175   6.120   5.677
 4925SOL     OW16671   5.377   1.484   7.139
 4925SOL    HW116672   5.448   1.537   7.103
 4925SOL    HW216673   5.396   1.395   7.109
 4926SOL     OW16674  11.955  14.587  10.258
 4926SOL    HW116675  11.973  14.507  10.308
 4926SOL    HW216676  12.037  14.636  10.261
 4927SOL     OW16677   4.509   2.840   9.961
 4927SOL    HW116678   4.416   2.822   9.968
 4927SOL    HW216679   4.543   2.828  10.050
 4928SOL     OW16680   7.651   5.435   7.380
 4928SOL    HW116681   7.672   5.525   7.404
 4928SOL    HW216682   7.684   5.426   7.291
 4929SOL     OW16683   9.165   0.878   5.596
 4929SOL    HW116684   9.169   0.959   5.545
 4929SOL    HW216685   9.096   0.826   5.554
 4930SOL     OW16686   4.584   7.254   0.506
 4930SOL    HW116687   4.607   7.341   0.474
 4930SOL    HW216688   4.598   7.259   0.601
 4931SOL     OW16689  11.725   8.277   0.156
 4931SOL    HW116690  11.631   8.264   0.172
 4931SOL    HW216691  11.733   8.371   0.139
 4932SOL     OW16692  14.053   4.764   2.853
 4932SOL    HW116693  14.142   4.797   2.840
 4932SOL    HW216694  14.002   4.842   2.873
 4933SOL     OW16695   1.592   5.651   3.129
 4933SOL    HW116696   1.498   5.637   3.118
 4933SOL    HW216697   1.631   5.609   3.052
 4934SOL     OW16698   6.055  11.080   6.779
 4934SOL    HW116699   6.087  11.019   6.846
 4934SOL    HW216700   6.121  11.076   6.710
 4935SOL     OW16701   5.420   3.676  11.096
 4935SOL    HW116702   5.410   3.593  11.142
 4935SOL    HW216703   5.508   3.672  11.059
 4936SOL     OW16704   8.677  11.973   7.376
 4936SOL    HW116705   8.729  12.030   7.319
 4936SOL    HW216706   8.636  12.032   7.438
 4937SOL     OW16707   3.866   4.205   6.173
 4937SOL    HW116708   3.808   4.281   6.185
 4937SOL    HW216709   3.917   4.202   6.254
 4938SOL     OW16710   7.030  12.467   3.647
 4938SOL    HW116711   7.034  12.377   3.617
 4938SOL    HW216712   6.968  12.510   3.588
 4939SOL     OW16713   6.333   9.332   0.531
 4939SOL    HW116714   6.387   9.395   0.578
 4939SOL    HW216715   6.333   9.363   0.440
 4940SOL     OW16716   4.568  14.361   8.861
 4940SOL    HW116717   4.549  14.277   8.904
 4940SOL    HW216718   4.538  14.427   8.924
 4941SOL     OW16719   0.147   0.325  12.888
 4941SOL    HW116720   0.211   0.312  12.818
 4941SOL    HW216721   0.180   0.399  12.938
 4942SOL     OW16722   9.675   3.659  13.479
 4942SOL    HW116723   9.608   3.620  13.535
 4942SOL    HW216724   9.694   3.591  13.414
 4943SOL     OW16725   4.921  10.078   0.598
 4943SOL    HW116726   4.962  10.148   0.547
 4943SOL    HW216727   4.851  10.046   0.542
 4944SOL     OW16728   0.603  13.628   6.919
 4944SOL    HW116729   0.557  13.654   6.839
 4944SOL    HW216730   0.692  13.660   6.908
 4945SOL     OW16731   3.165   8.533   3.226
 4945SOL    HW116732   3.096   8.591   3.257
 4945SOL    HW216733   3.122   8.448   3.216
 4946SOL     OW16734   4.130   5.376   3.426
 4946SOL    HW116735   4.152   5.429   3.503
 4946SOL    HW216736   4.203   5.314   3.418
 4947SOL     OW16737   8.580   5.126   5.855
 4947SOL    HW116738   8.486   5.141   5.869
 4947SOL    HW216739   8.607   5.075   5.930
 4948SOL     OW16740  10.585   0.624  10.955
 4948SOL    HW116741  10.506   0.627  11.009
 4948SOL    HW216742  10.641   0.560  10.998
 4949SOL     OW16743  12.297   5.362   4.348
 4949SOL    HW116744  12.221   5.411   4.377
 4949SOL    HW216745  12.324   5.405   4.267
 4950SOL     OW16746   3.403   3.564  14.521
 4950SOL    HW116747   3.321   3.534  14.483
 4950SOL    HW216748   3.394   3.545  14.615
 4951SOL     OW16749   6.794   4.245   1.905
 4951SOL    HW116750   6.877   4.263   1.949
 4951SOL    HW216751   6.789   4.311   1.836
 4952SOL     OW16752  13.902   2.626   2.395
 4952SOL    HW116753  13.974   2.678   2.359
 4952SOL    HW216754  13.932   2.535   2.388
 4953SOL     OW16755   2.850  12.986   3.001
 4953SOL    HW116756   2.783  12.962   3.066
 4953SOL    HW216757   2.884  12.902   2.971
 4954SOL     OW16758   7.101  11.896   8.357
 4954SOL    HW116759   7.033  11.912   8.422
 4954SOL    HW216760   7.076  11.952   8.283
 4955SOL     OW16761  11.311  11.139   6.277
 4955SOL    HW116762  11.256  11.183   6.212
 4955SOL    HW216763  11.260  11.146   6.359
 4956SOL     OW16764   0.411   8.084   1.596
 4956SOL    HW116765   0.420   8.171   1.635
 4956SOL    HW216766   0.354   8.098   1.520
 4957SOL     OW16767   3.940   2.018   9.908
 4957SOL    HW116768   3.995   1.990   9.835
 4957SOL    HW216769   3.973   1.969   9.983
 4958SOL     OW16770   1.074   7.577   5.101
 4958SOL    HW116771   0.995   7.586   5.155
 4958SOL    HW216772   1.108   7.666   5.094
 4959SOL     OW16773  13.354  12.449  12.173
 4959SOL    HW116774  13.425  12.508  12.198
 4959SOL    HW216775  13.324  12.412  12.256
 4960SOL     OW16776   2.608   3.738   5.254
 4960SOL    HW116777   2.615   3.830   5.227
 4960SOL    HW216778   2.651   3.689   5.184
 4961SOL     OW16779   4.844  10.117  12.802
 4961SOL    HW116780   4.843  10.060  12.880
 4961SOL    HW216781   4.752  10.138  12.787
 4962SOL     OW16782   5.610  14.364   1.251
 4962SOL    HW116783   5.526  14.402   1.224
 4962SOL    HW216784   5.671  14.438   1.249
 4963SOL     OW16785   0.995  11.655  13.902
 4963SOL    HW116786   1.014  11.581  13.844
 4963SOL    HW216787   0.907  11.682  13.878
 4964SOL     OW16788   1.243  11.505  10.737
 4964SOL    HW116789   1.222  11.529  10.827
 4964SOL    HW216790   1.335  11.531  10.726
 4965SOL     OW16791  10.182   5.476  10.534
 4965SOL    HW116792  10.217   5.531  10.605
 4965SOL    HW216793  10.137   5.537  10.476
 4966SOL     OW16794   0.908   4.000  14.023
 4966SOL    HW116795   0.966   4.039  13.958
 4966SOL    HW216796   0.820   4.026  13.996
 4967SOL     OW16797   1.751  10.580   0.185
 4967SOL    HW116798   1.777  10.573   0.093
 4967SOL    HW216799   1.656  10.583   0.183
 4968SOL     OW16800   2.123   6.133   4.155
 4968SOL    HW116801   2.196   6.165   4.207
 4968SOL    HW216802   2.164   6.098   4.075
 4969SOL     OW16803  12.220   7.927  12.197
 4969SOL    HW116804  12.255   8.013  12.172
 4969SOL    HW216805  12.131   7.945  12.227
 4970SOL     OW16806   9.243  12.832   0.106
 4970SOL    HW116807   9.263  12.784   0.185
 4970SOL    HW216808   9.320  12.820   0.050
 4971SOL     OW16809   7.548  11.080   6.865
 4971SOL    HW116810   7.593  11.160   6.839
 4971SOL    HW216811   7.456  11.107   6.876
 4972SOL     OW16812   5.199  11.003   5.014
 4972SOL    HW116813   5.252  10.924   5.029
 4972SOL    HW216814   5.247  11.052   4.947
 4973SOL     OW16815   1.059   0.187   4.469
 4973SOL    HW116816   1.056   0.241   4.548
 4973SOL    HW216817   0.971   0.152   4.460
 4974SOL     OW16818   2.027   4.489   7.220
 4974SOL    HW116819   2.070   4.518   7.300
 4974SOL    HW216820   2.087   4.425   7.182
 4975SOL     OW16821   4.040  14.436   4.636
 4975SOL    HW116822   4.001  14.349   4.643
 4975SOL    HW216823   3.977  14.494   4.680
 4976SOL     OW16824   3.779   1.802   8.070
 4976SOL    HW116825   3.706   1.849   8.110
 4976SOL    HW216826   3.820   1.755   8.144
 4977SOL     OW16827   7.892   6.316   5.034
 4977SOL    HW116828   7.809   6.275   5.058
 4977SOL    HW216829   7.887   6.404   5.071
 4978SOL     OW16830  12.353   6.127   8.306
 4978SOL    HW116831  12.433   6.165   8.270
 4978SOL    HW216832  12.285   6.147   8.242
 4979SOL     OW16833   7.562   4.662   4.328
 4979SOL    HW116834   7.623   4.595   4.296
 4979SOL    HW216835   7.485   4.653   4.272
 4980SOL     OW16836   4.024   6.069   8.958
 4980SOL    HW116837   4.056   6.098   9.043
 4980SOL    HW216838   3.944   6.119   8.944
 4981SOL     OW16839  14.348   3.422   5.303
 4981SOL    HW116840  14.358   3.488   5.372
 4981SOL    HW216841  14.287   3.358   5.341
 4982SOL     OW16842   0.943   5.382  13.679
 4982SOL    HW116843   1.008   5.326  13.638
 4982SOL    HW216844   0.927   5.342  13.764
 4983SOL     OW16845   1.120  14.743  13.295
 4983SOL    HW116846   1.153  14.666  13.249
 4983SOL    HW216847   1.038  14.713  13.336
 4984SOL     OW16848   3.362   6.200  12.846
 4984SOL    HW116849   3.429   6.263  12.819
 4984SOL    HW216850   3.310   6.245  12.912
 4985SOL     OW16851  11.468   0.817   3.606
 4985SOL    HW116852  11.472   0.754   3.678
 4985SOL    HW216853  11.557   0.819   3.571
 4986SOL     OW16854   3.934  12.552  11.551
 4986SOL    HW116855   3.930  12.456  11.546
 4986SOL    HW216856   3.844  12.581  11.533
 4987SOL     OW16857  10.384   7.537  12.182
 4987SOL    HW116858  10.371   7.455  12.134
 4987SOL    HW216859  10.374   7.605  12.116
 4988SOL     OW16860   4.512   9.719  12.049
 4988SOL    HW116861   4.570   9.701  12.123
 4988SOL    HW216862   4.561   9.781  11.994
 4989SOL     OW16863  11.730   0.018  12.585
 4989SOL    HW116864  11.772  14.817  12.632
 4989SOL    HW216865  11.756   0.005  12.494
 4990SOL     OW16866   1.204   8.253  13.235
 4990SOL    HW116867   1.150   8.313  13.286
 4990SOL    HW216868   1.281   8.304  13.211
 4991SOL     OW16869   7.043  12.153  14.869
 4991SOL    HW116870   7.009  12.105  14.794
 4991SOL    HW216871   6.974  12.148   0.063
 4992SOL     OW16872  10.366  14.849  11.199
 4992SOL    HW116873  10.290  14.834  11.142
 4992SOL    HW216874  10.359   0.070  11.223
 4993SOL     OW16875  12.169   8.268  11.167
 4993SOL    HW116876  12.161   8.349  11.218
 4993SOL    HW216877  12.200   8.203  11.230
 4994SOL     OW16878   0.371   3.723   6.218
 4994SOL    HW116879   0.404   3.645   6.173
 4994SOL    HW216880   0.299   3.753   6.163
 4995SOL     OW16881   0.513   0.948   0.808
 4995SOL    HW116882   0.492   0.862   0.770
 4995SOL    HW216883   0.430   0.996   0.804
 4996SOL     OW16884   4.275   6.383   3.890
 4996SOL    HW116885   4.331   6.325   3.941
 4996SOL    HW216886   4.310   6.471   3.908
 4997SOL     OW16887  13.747  10.873   4.807
 4997SOL    HW116888  13.672  10.919   4.770
 4997SOL    HW216889  13.711  10.791   4.841
 4998SOL     OW16890   2.692   3.507  12.790
 4998SOL    HW116891   2.630   3.513  12.717
 4998SOL    HW216892   2.749   3.434  12.767
 4999SOL     OW16893  12.595   6.618   9.151
 4999SOL    HW116894  12.509   6.659   9.157
 4999SOL    HW216895  12.592   6.545   9.213
 5000SOL     OW16896  12.149  14.170   3.759
 5000SOL    HW116897  12.090  14.232   3.716
 5000SOL    HW216898  12.217  14.224   3.798
 5001SOL     OW16899   6.260   1.862   2.800
 5001SOL    HW116900   6.239   1.940   2.852
 5001SOL    HW216901   6.279   1.895   2.713
 5002SOL     OW16902   8.770   9.596   3.765
 5002SOL    HW116903   8.851   9.547   3.781
 5002SOL    HW216904   8.795   9.688   3.773
 5003SOL     OW16905   7.539   6.644  12.306
 5003SOL    HW116906   7.630   6.645  12.335
 5003SOL    HW216907   7.489   6.615  12.382
 5004SOL     OW16908   1.438   9.064   7.644
 5004SOL    HW116909   1.416   9.157   7.637
 5004SOL    HW216910   1.495   9.059   7.721
 5005SOL     OW16911  13.790  10.423  11.158
 5005SOL    HW116912  13.734  10.404  11.083
 5005SOL    HW216913  13.850  10.348  11.163
 5006SOL     OW16914  12.328   5.137  11.077
 5006SOL    HW116915  12.382   5.059  11.065
 5006SOL    HW216916  12.241   5.103  11.099
 5007SOL     OW16917   8.134  13.220   2.608
 5007SOL    HW116918   8.206  13.158   2.614
 5007SOL    HW216919   8.108  13.217   2.516
 5008SOL     OW16920   4.497  10.551   6.996
 5008SOL    HW116921   4.449  10.479   6.954
 5008SOL    HW216922   4.481  10.540   7.090
 5009SOL     OW16923   2.060   8.614   3.785
 5009SOL    HW116924   2.032   8.664   3.862
 5009SOL    HW216925   1.981   8.568   3.757
 5010SOL     OW16926   4.074   4.405   3.704
 5010SOL    HW116927   4.149   4.348   3.724
 5010SOL    HW216928   4.114   4.491   3.686
 5011SOL     OW16929  13.221   6.275   6.088
 5011SOL    HW116930  13.233   6.370   6.086
 5011SOL    HW216931  13.181   6.255   6.004
 5012SOL     OW16932   2.808   1.568   9.840
 5012SOL    HW116933   2.807   1.476   9.814
 5012SOL    HW216934   2.855   1.612   9.769
 5013SOL     OW16935   3.054   9.743   2.675
 5013SOL    HW116936   3.130   9.771   2.624
 5013SOL    HW216937   2.983   9.802   2.647
 5014SOL     OW16938   7.141  10.553   0.047
 5014SOL    HW116939   7.109  10.463   0.048
 5014SOL    HW216940   7.064  10.606   0.025
 5015SOL     OW16941   1.111   0.615   2.508
 5015SOL    HW116942   1.198   0.629   2.470
 5015SOL    HW216943   1.050   0.655   2.447
 5016SOL     OW16944  14.453   6.803   5.447
 5016SOL    HW116945  14.480   6.827   5.359
 5016SOL    HW216946  14.468   6.881   5.500
 5017SOL     OW16947  14.020   8.792  12.263
 5017SOL    HW116948  14.011   8.833  12.349
 5017SOL    HW216949  13.936   8.810  12.220
 5018SOL     OW16950  10.062   5.500  14.326
 5018SOL    HW116951  10.103   5.577  14.366
 5018SOL    HW216952  10.044   5.526  14.236
 5019SOL     OW16953  13.806   9.424  11.932
 5019SOL    HW116954  13.847   9.475  12.002
 5019SOL    HW216955  13.740   9.371  11.976
 5020SOL     OW16956   4.051   5.555  12.081
 5020SOL    HW116957   3.976   5.531  12.135
 5020SOL    HW216958   4.022   5.631  12.031
 5021SOL     OW16959  10.969   7.650  13.155
 5021SOL    HW116960  10.924   7.582  13.105
 5021SOL    HW216961  10.901   7.715  13.173
 5022SOL     OW16962   1.075   7.244   9.447
 5022SOL    HW116963   1.076   7.165   9.502
 5022SOL    HW216964   1.036   7.215   9.364
 5023SOL     OW16965   3.224   8.118   7.667
 5023SOL    HW116966   3.170   8.160   7.600
 5023SOL    HW216967   3.314   8.130   7.635
 5024SOL     OW16968  13.046   2.078   5.586
 5024SOL    HW116969  13.090   2.161   5.567
 5024SOL    HW216970  12.954   2.095   5.568
 5025SOL     OW16971  12.609  14.070  12.484
 5025SOL    HW116972  12.586  14.095  12.394
 5025SOL    HW216973  12.698  14.035  12.477
 5026SOL     OW16974   4.323  12.268  13.739
 5026SOL    HW116975   4.253  12.301  13.684
 5026SOL    HW216976   4.320  12.323  13.817
 5027SOL     OW16977   2.770   7.684  14.127
 5027SOL    HW116978   2.683   7.671  14.166
 5027SOL    HW216979   2.814   7.744  14.188
 5028SOL     OW16980   5.830   7.522   5.509
 5028SOL    HW116981   5.747   7.523   5.557
 5028SOL    HW216982   5.897   7.526   5.577
 5029SOL     OW16983   3.920  13.762   7.541
 5029SOL    HW116984   3.922  13.764   7.445
 5029SOL    HW216985   3.971  13.839   7.568
 5030SOL     OW16986  12.437   2.941   6.659
 5030SOL    HW116987  12.449   3.029   6.624
 5030SOL    HW216988  12.373   2.901   6.600
 5031SOL     OW16989  11.817   6.924   3.270
 5031SOL    HW116990  11.820   6.953   3.362
 5031SOL    HW216991  11.816   7.005   3.219
 5032SOL     OW16992   6.155   8.022  12.530
 5032SOL    HW116993   6.244   8.013  12.494
 5032SOL    HW216994   6.123   8.104  12.494
 5033SOL     OW16995   1.169   0.095   1.391
 5033SOL    HW116996   1.082   0.096   1.351
 5033SOL    HW216997   1.228   0.071   1.319
 5034SOL     OW16998  10.289  11.378   9.317
 5034SOL    HW116999  10.356  11.314   9.342
 5034SOL    HW217000  10.215  11.359   9.376
 5035SOL     OW17001  11.762   8.504  13.768
 5035SOL    HW117002  11.673   8.540  13.758
 5035SOL    HW217003  11.783   8.470  13.681
 5036SOL     OW17004   6.117   0.829   1.614
 5036SOL    HW117005   6.098   0.826   1.520
 5036SOL    HW217006   6.202   0.786   1.623
 5037SOL     OW17007  11.937  11.221  14.220
 5037SOL    HW117008  11.935  11.179  14.305
 5037SOL    HW217009  12.009  11.177  14.173
 5038SOL     OW17010   3.797   5.941  10.826
 5038SOL    HW117011   3.818   6.034  10.818
 5038SOL    HW217012   3.865   5.906  10.885
 5039SOL     OW17013  10.875   8.109  10.176
 5039SOL    HW117014  10.851   8.058  10.254
 5039SOL    HW217015  10.822   8.073  10.106
 5040SOL     OW17016   2.972   6.982   9.933
 5040SOL    HW117017   2.901   7.030   9.889
 5040SOL    HW217018   2.930   6.903   9.965
 5041SOL     OW17019  13.973   4.138   1.589
 5041SOL    HW117020  13.919   4.071   1.631
 5041SOL    HW217021  14.054   4.093   1.568
 5042SOL     OW17022   3.576   4.603   0.391
 5042SOL    HW117023   3.586   4.609   0.486
 5042SOL    HW217024   3.664   4.580   0.359
 5043SOL     OW17025  12.976   8.900  14.547
 5043SOL    HW117026  12.964   8.823  14.602
 5043SOL    HW217027  12.969   8.866  14.457
 5044SOL     OW17028  12.474  10.272   3.235
 5044SOL    HW117029  12.493  10.179   3.250
 5044SOL    HW217030  12.539  10.300   3.170
 5045SOL     OW17031   7.301   3.439   5.197
 5045SOL    HW117032   7.383   3.399   5.167
 5045SOL    HW217033   7.323   3.531   5.213
 5046SOL     OW17034   0.104   2.725   6.871
 5046SOL    HW117035   0.153   2.665   6.814
 5046SOL    HW217036   0.117   2.811   6.832
 5047SOL     OW17037   2.612   9.712   2.049
 5047SOL    HW117038   2.638   9.708   2.141
 5047SOL    HW217039   2.690   9.744   2.003
 5048SOL     OW17040   2.428  11.740   7.307
 5048SOL    HW117041   2.452  11.781   7.391
 5048SOL    HW217042   2.399  11.812   7.252
 5049SOL     OW17043   8.445   8.973   8.677
 5049SOL    HW117044   8.411   8.893   8.716
 5049SOL    HW217045   8.401   9.044   8.724
 5050SOL     OW17046   3.488   4.394   2.135
 5050SOL    HW117047   3.399   4.403   2.169
 5050SOL    HW217048   3.543   4.438   2.199
 5051SOL     OW17049   3.433  14.188   0.587
 5051SOL    HW117050   3.525  14.200   0.611
 5051SOL    HW217051   3.431  14.103   0.543
 5052SOL     OW17052   9.497   6.526   2.256
 5052SOL    HW117053   9.572   6.467   2.243
 5052SOL    HW217054   9.423   6.480   2.218
 5053SOL     OW17055  11.557   3.261   1.640
 5053SOL    HW117056  11.625   3.200   1.609
 5053SOL    HW217057  11.552   3.327   1.571
 5054SOL     OW17058   7.808  10.528   5.877
 5054SOL    HW117059   7.898  10.554   5.896
 5054SOL    HW217060   7.765  10.525   5.962
 5055SOL     OW17061  13.184   8.709  14.439
 5055SOL    HW117062  13.111   8.669  14.486
 5055SOL    HW217063  13.142   8.762  14.371
 5056SOL     OW17064   0.886  10.849   0.584
 5056SOL    HW117065   0.862  10.938   0.555
 5056SOL    HW217066   0.937  10.863   0.664
 5057SOL     OW17067   9.298   3.690   4.024
 5057SOL    HW117068   9.250   3.772   4.040
 5057SOL    HW217069   9.230   3.623   4.017
 5058SOL     OW17070  12.566   7.076   4.751
 5058SOL    HW117071  12.615   6.995   4.737
 5058SOL    HW217072  12.608   7.118   4.826
 5059SOL     OW17073   5.533   7.835  12.393
 5059SOL    HW117074   5.466   7.767  12.392
 5059SOL    HW217075   5.500   7.901  12.454
 5060SOL     OW17076   4.483  13.589  12.890
 5060SOL    HW117077   4.496  13.568  12.982
 5060SOL    HW217078   4.483  13.504  12.845
 5061SOL     OW17079  11.680   6.861   8.077
 5061SOL    HW117080  11.632   6.873   7.995
 5061SOL    HW217081  11.699   6.767   8.081
 5062SOL     OW17082   1.952   0.428   5.853
 5062SOL    HW117083   2.014   0.399   5.786
 5062SOL    HW217084   1.866   0.403   5.819
 5063SOL     OW17085   1.292  10.482  11.195
 5063SOL    HW117086   1.356  10.553  11.200
 5063SOL    HW217087   1.217  10.514  11.245
 5064SOL     OW17088   4.629  10.781   0.666
 5064SOL    HW117089   4.562  10.760   0.731
 5064SOL    HW217090   4.664  10.866   0.694
 5065SOL     OW17091   3.845   9.294   0.895
 5065SOL    HW117092   3.785   9.236   0.942
 5065SOL    HW217093   3.798   9.320   0.816
 5066SOL     OW17094   0.237   5.685  13.236
 5066SOL    HW117095   0.253   5.611  13.295
 5066SOL    HW217096   0.290   5.666  13.159
 5067SOL     OW17097  11.523   8.821   3.692
 5067SOL    HW117098  11.603   8.859   3.729
 5067SOL    HW217099  11.549   8.734   3.662
 5068SOL     OW17100   8.729   0.455   5.024
 5068SOL    HW117101   8.793   0.438   4.955
 5068SOL    HW217102   8.688   0.537   4.998
 5069SOL     OW17103  11.711  11.316  13.096
 5069SOL    HW117104  11.658  11.239  13.111
 5069SOL    HW217105  11.687  11.376  13.167
 5070SOL     OW17106   8.371  12.584  10.274
 5070SOL    HW117107   8.284  12.623  10.287
 5070SOL    HW217108   8.354  12.494  10.248
 5071SOL     OW17109  10.014   7.568   4.392
 5071SOL    HW117110  10.069   7.543   4.465
 5071SOL    HW217111   9.931   7.596   4.432
 5072SOL     OW17112  10.057   7.408   2.081
 5072SOL    HW117113  10.112   7.447   2.149
 5072SOL    HW217114  10.044   7.317   2.109
 5073SOL     OW17115  10.000   5.514   8.372
 5073SOL    HW117116   9.962   5.584   8.426
 5073SOL    HW217117  10.041   5.455   8.435
 5074SOL     OW17118   7.538   1.642   9.289
 5074SOL    HW117119   7.584   1.694   9.224
 5074SOL    HW217120   7.564   1.552   9.271
 5075SOL     OW17121  14.113  10.638   1.788
 5075SOL    HW117122  14.204  10.618   1.810
 5075SOL    HW217123  14.111  10.635   1.693
 5076SOL     OW17124   3.801   4.467   3.755
 5076SOL    HW117125   3.886   4.423   3.751
 5076SOL    HW217126   3.775   4.462   3.847
 5077SOL     OW17127   4.604   5.416   5.335
 5077SOL    HW117128   4.657   5.344   5.370
 5077SOL    HW217129   4.653   5.448   5.260
 5078SOL     OW17130  12.312  12.253  14.085
 5078SOL    HW117131  12.360  12.174  14.109
 5078SOL    HW217132  12.276  12.285  14.167
 5079SOL     OW17133   3.328   9.512  10.709
 5079SOL    HW117134   3.381   9.470  10.641
 5079SOL    HW217135   3.383   9.511  10.787
 5080SOL     OW17136  12.235   2.691   0.214
 5080SOL    HW117137  12.257   2.614   0.161
 5080SOL    HW217138  12.251   2.765   0.156
 5081SOL     OW17139   4.878  12.252  10.105
 5081SOL    HW117140   4.937  12.181  10.130
 5081SOL    HW217141   4.890  12.318  10.173
 5082SOL     OW17142   8.264   1.487   6.682
 5082SOL    HW117143   8.297   1.448   6.602
 5082SOL    HW217144   8.169   1.470   6.680
 5083SOL     OW17145   7.313   3.646   4.924
 5083SOL    HW117146   7.253   3.691   4.865
 5083SOL    HW217147   7.330   3.562   4.881
 5084SOL     OW17148   1.181   6.431   1.460
 5084SOL    HW117149   1.101   6.463   1.418
 5084SOL    HW217150   1.249   6.447   1.394
 5085SOL     OW17151   4.657   5.016   5.956
 5085SOL    HW117152   4.698   5.102   5.956
 5085SOL    HW217153   4.623   5.005   6.045
 5086SOL     OW17154   5.936   2.257  10.393
 5086SOL    HW117155   6.023   2.257  10.353
 5086SOL    HW217156   5.882   2.202  10.336
 5087SOL     OW17157  11.330  10.969   3.485
 5087SOL    HW117158  11.349  11.054   3.446
 5087SOL    HW217159  11.408  10.916   3.469
 5088SOL     OW17160  13.120   3.666   8.380
 5088SOL    HW117161  13.057   3.603   8.414
 5088SOL    HW217162  13.088   3.751   8.411
 5089SOL     OW17163   0.272  10.899   3.687
 5089SOL    HW117164   0.188  10.908   3.642
 5089SOL    HW217165   0.338  10.916   3.620
 5090SOL     OW17166   3.035   2.235   8.383
 5090SOL    HW117167   2.997   2.173   8.445
 5090SOL    HW217168   3.085   2.181   8.322
 5091SOL     OW17169  14.693  11.184   9.190
 5091SOL    HW117170  14.694  11.090   9.205
 5091SOL    HW217171  14.716  11.222   9.275
 5092SOL     OW17172   8.089   2.758   5.706
 5092SOL    HW117173   8.008   2.792   5.669
 5092SOL    HW217174   8.123   2.829   5.760
 5093SOL     OW17175  10.122  11.601  11.775
 5093SOL    HW117176  10.170  11.525  11.807
 5093SOL    HW217177  10.183  11.645  11.717
 5094SOL     OW17178   5.361   6.918   1.101
 5094SOL    HW117179   5.274   6.936   1.064
 5094SOL    HW217180   5.361   6.965   1.185
 5095SOL     OW17181  10.359   5.747  10.055
 5095SOL    HW117182  10.444   5.791  10.053
 5095SOL    HW217183  10.362   5.686   9.982
 5096SOL     OW17184   7.517   3.153   6.408
 5096SOL    HW117185   7.523   3.060   6.384
 5096SOL    HW217186   7.608   3.183   6.410
 5097SOL     OW17187   4.713  12.059  12.249
 5097SOL    HW117188   4.715  11.975  12.202
 5097SOL    HW217189   4.625  12.064  12.286
 5098SOL     OW17190   1.910  11.100   4.960
 5098SOL    HW117191   1.854  11.122   4.884
 5098SOL    HW217192   1.885  11.164   5.027
 5099SOL     OW17193   3.706   5.173  13.135
 5099SOL    HW117194   3.731   5.153  13.226
 5099SOL    HW217195   3.784   5.151  13.084
 5100SOL     OW17196  10.774  14.467   7.817
 5100SOL    HW117197  10.687  14.473   7.776
 5100SOL    HW217198  10.770  14.389   7.871
 5101SOL     OW17199   3.487  13.179   3.643
 5101SOL    HW117200   3.460  13.198   3.733
 5101SOL    HW217201   3.559  13.239   3.627
 5102SOL     OW17202  10.264   6.843  14.819
 5102SOL    HW117203  10.185   6.844  14.765
 5102SOL    HW217204  10.260   6.922  14.871
 5103SOL     OW17205  13.082   3.618  13.334
 5103SOL    HW117206  13.136   3.605  13.411
 5103SOL    HW217207  13.056   3.710  13.337
 5104SOL     OW17208   2.451   9.573   1.904
 5104SOL    HW117209   2.514   9.624   1.954
 5104SOL    HW217210   2.468   9.482   1.929
 5105SOL     OW17211  12.900   8.471   6.305
 5105SOL    HW117212  12.889   8.381   6.336
 5105SOL    HW217213  12.936   8.518   6.380
 5106SOL     OW17214   1.440   5.883   8.150
 5106SOL    HW117215   1.362   5.894   8.204
 5106SOL    HW217216   1.495   5.959   8.170
 5107SOL     OW17217   7.219   8.931  10.115
 5107SOL    HW117218   7.299   8.954  10.068
 5107SOL    HW217219   7.247   8.921  10.206
 5108SOL     OW17220  12.904  11.826  10.392
 5108SOL    HW117221  12.930  11.893  10.456
 5108SOL    HW217222  12.809  11.819  10.402
 5109SOL     OW17223   9.591   6.786   9.067
 5109SOL    HW117224   9.527   6.850   9.033
 5109SOL    HW217225   9.637   6.834   9.135
 5110SOL     OW17226   6.467   0.697   0.040
 5110SOL    HW117227   6.530   0.639   0.083
 5110SOL    HW217228   6.492   0.784   0.069
 5111SOL     OW17229   4.426  11.183  11.259
 5111SOL    HW117230   4.371  11.178  11.181
 5111SOL    HW217231   4.477  11.263  11.248
 5112SOL     OW17232   8.916  10.029   0.270
 5112SOL    HW117233   8.858  10.035   0.346
 5112SOL    HW217234   8.995   9.987   0.303
 5113SOL     OW17235   5.573   4.839   9.383
 5113SOL    HW117236   5.593   4.916   9.437
 5113SOL    HW217237   5.658   4.811   9.349
 5114SOL     OW17238   9.878   8.783   6.713
 5114SOL    HW117239   9.824   8.805   6.789
 5114SOL    HW217240   9.967   8.781   6.747
 5115SOL     OW17241   8.741   6.046   9.847
 5115SOL    HW117242   8.651   6.024   9.823
 5115SOL    HW217243   8.793   6.018   9.772
 5116SOL     OW17244   4.235   2.748   0.340
 5116SOL    HW117245   4.326   2.759   0.365
 5116SOL    HW217246   4.193   2.831   0.363
 5117SOL     OW17247  14.198   1.344   5.093
 5117SOL    HW117248  14.219   1.251   5.102
 5117SOL    HW217249  14.268   1.389   5.140
 5118SOL     OW17250   2.502   5.941   9.757
 5118SOL    HW117251   2.535   6.022   9.718
 5118SOL    HW217252   2.574   5.879   9.748
 5119SOL     OW17253   7.001  13.578   9.502
 5119SOL    HW117254   6.937  13.512   9.475
 5119SOL    HW217255   7.057  13.532   9.565
 5120SOL     OW17256   4.188  14.589   7.072
 5120SOL    HW117257   4.154  14.523   7.133
 5120SOL    HW217258   4.122  14.592   7.002
 5121SOL     OW17259   6.492   4.479  10.998
 5121SOL    HW117260   6.411   4.506  11.041
 5121SOL    HW217261   6.486   4.384  10.993
 5122SOL     OW17262   5.831  14.634   4.028
 5122SOL    HW117263   5.745  14.603   4.054
 5122SOL    HW217264   5.890  14.605   4.098
 5123SOL     OW17265   2.947  12.356   0.605
 5123SOL    HW117266   2.959  12.261   0.609
 5123SOL    HW217267   3.036  12.391   0.600
 5124SOL     OW17268  12.855  11.934   1.570
 5124SOL    HW117269  12.935  11.957   1.617
 5124SOL    HW217270  12.865  11.974   1.484
 5125SOL     OW17271   2.782  13.171   9.916
 5125SOL    HW117272   2.736  13.095   9.881
 5125SOL    HW217273   2.742  13.246   9.871
 5126SOL     OW17274  12.835   7.937   5.754
 5126SOL    HW117275  12.779   7.870   5.791
 5126SOL    HW217276  12.894   7.962   5.826
 5127SOL     OW17277  14.201   8.351   9.988
 5127SOL    HW117278  14.276   8.374   9.933
 5127SOL    HW217279  14.209   8.409  10.064
 5128SOL     OW17280   7.238   3.615   2.460
 5128SOL    HW117281   7.266   3.654   2.377
 5128SOL    HW217282   7.248   3.521   2.446
 5129SOL     OW17283   7.865   7.371   0.345
 5129SOL    HW117284   7.929   7.340   0.282
 5129SOL    HW217285   7.885   7.464   0.357
 5130SOL     OW17286   7.545   2.521   6.574
 5130SOL    HW117287   7.567   2.605   6.613
 5130SOL    HW217288   7.452   2.508   6.596
 5131SOL     OW17289  12.771  12.021   8.174
 5131SOL    HW117290  12.708  11.954   8.201
 5131SOL    HW217291  12.856  11.977   8.176
 5132SOL     OW17292   5.839   5.508   7.125
 5132SOL    HW117293   5.764   5.547   7.080
 5132SOL    HW217294   5.860   5.430   7.072
 5133SOL     OW17295   0.715   2.194   3.078
 5133SOL    HW117296   0.677   2.113   3.110
 5133SOL    HW217297   0.750   2.237   3.157
 5134SOL     OW17298   9.930  12.058  10.160
 5134SOL    HW117299   9.898  12.132  10.212
 5134SOL    HW217300   9.953  11.992  10.226
 5135SOL     OW17301  10.007  10.506   3.355
 5135SOL    HW117302   9.939  10.445   3.326
 5135SOL    HW217303  10.087  10.453   3.357
 5136SOL     OW17304   7.354   6.305   9.650
 5136SOL    HW117305   7.286   6.312   9.582
 5136SOL    HW217306   7.415   6.240   9.616
 5137SOL     OW17307   0.768  10.292  14.092
 5137SOL    HW117308   0.715  10.356  14.045
 5137SOL    HW217309   0.828  10.344  14.145
 5138SOL     OW17310   7.413   2.369   4.514
 5138SOL    HW117311   7.482   2.348   4.451
 5138SOL    HW217312   7.393   2.285   4.555
 5139SOL     OW17313   6.876   2.872  14.825
 5139SOL    HW117314   6.913   2.783  14.828
 5139SOL    HW217315   6.918   2.917   0.027
 5140SOL     OW17316  14.216   1.542   7.967
 5140SOL    HW117317  14.159   1.471   7.995
 5140SOL    HW217318  14.157   1.616   7.952
 5141SOL     OW17319   1.483   1.078   5.189
 5141SOL    HW117320   1.419   1.075   5.118
 5141SOL    HW217321   1.555   1.130   5.154
 5142SOL     OW17322   6.231   1.818   4.490
 5142SOL    HW117323   6.181   1.823   4.572
 5142SOL    HW217324   6.185   1.752   4.438
 5143SOL     OW17325   2.624   3.662  14.362
 5143SOL    HW117326   2.554   3.723  14.383
 5143SOL    HW217327   2.585   3.575  14.375
 5144SOL     OW17328  14.383   6.519  11.737
 5144SOL    HW117329  14.422   6.601  11.764
 5144SOL    HW217330  14.451   6.453  11.752
 5145SOL     OW17331  12.149   2.386   8.608
 5145SOL    HW117332  12.092   2.463   8.616
 5145SOL    HW217333  12.129   2.350   8.522
 5146SOL     OW17334   1.158   0.811  10.663
 5146SOL    HW117335   1.117   0.824  10.749
 5146SOL    HW217336   1.129   0.886  10.611
 5147SOL     OW17337   5.429  11.373   1.323
 5147SOL    HW117338   5.484  11.310   1.278
 5147SOL    HW217339   5.381  11.322   1.388
 5148SOL     OW17340  12.810   1.343  12.214
 5148SOL    HW117341  12.795   1.437  12.216
 5148SOL    HW217342  12.855   1.323  12.295
 5149SOL     OW17343   3.509   8.911   8.096
 5149SOL    HW117344   3.577   8.933   8.160
 5149SOL    HW217345   3.472   8.829   8.128
 5150SOL     OW17346   2.469  10.297  10.547
 5150SOL    HW117347   2.406  10.369  10.545
 5150SOL    HW217348   2.515  10.308  10.631
 5151SOL     OW17349  12.583   1.441   6.825
 5151SOL    HW117350  12.554   1.396   6.904
 5151SOL    HW217351  12.647   1.505   6.856
 5152SOL     OW17352  12.441   9.323  14.117
 5152SOL    HW117353  12.523   9.349  14.076
 5152SOL    HW217354  12.417   9.398  14.172
 5153SOL     OW17355   9.730   8.032   0.283
 5153SOL    HW117356   9.817   7.994   0.272
 5153SOL    HW217357   9.703   8.055   0.194
 5154SOL     OW17358   3.544   0.718  14.181
 5154SOL    HW117359   3.528   0.705  14.275
 5154SOL    HW217360   3.563   0.630  14.148
 5155SOL     OW17361  12.246  10.348   8.339
 5155SOL    HW117362  12.226  10.333   8.247
 5155SOL    HW217363  12.318  10.288   8.358
 5156SOL     OW17364   6.140   0.420  10.184
 5156SOL    HW117365   6.143   0.505  10.139
 5156SOL    HW217366   6.055   0.420  10.229
 5157SOL     OW17367  12.974   6.220   0.412
 5157SOL    HW117368  13.032   6.217   0.488
 5157SOL    HW217369  12.949   6.129   0.398
 5158SOL     OW17370   2.432  14.122   4.423
 5158SOL    HW117371   2.498  14.054   4.412
 5158SOL    HW217372   2.413  14.123   4.517
 5159SOL     OW17373   9.282   9.651   7.821
 5159SOL    HW117374   9.229   9.629   7.897
 5159SOL    HW217375   9.355   9.590   7.823
 5160SOL     OW17376  13.430  13.452  12.411
 5160SOL    HW117377  13.409  13.386  12.476
 5160SOL    HW217378  13.430  13.535  12.460
 5161SOL     OW17379  10.387  13.369   4.635
 5161SOL    HW117380  10.448  13.344   4.566
 5161SOL    HW217381  10.394  13.299   4.700
 5162SOL     OW17382   7.469   5.156   4.927
 5162SOL    HW117383   7.383   5.170   4.887
 5162SOL    HW217384   7.480   5.229   4.987
 5163SOL     OW17385  14.213   6.868   9.119
 5163SOL    HW117386  14.250   6.928   9.054
 5163SOL    HW217387  14.236   6.781   9.086
 5164SOL     OW17388   2.877  12.466   9.121
 5164SOL    HW117389   2.915  12.427   9.042
 5164SOL    HW217390   2.901  12.558   9.116
 5165SOL     OW17391   3.102   7.201  13.657
 5165SOL    HW117392   3.068   7.131  13.712
 5165SOL    HW217393   3.197   7.190  13.660
 5166SOL     OW17394   3.114   8.249  10.858
 5166SOL    HW117395   3.135   8.239  10.950
 5166SOL    HW217396   3.195   8.281  10.818
 5167SOL     OW17397   6.248  11.779  13.235
 5167SOL    HW117398   6.265  11.872  13.251
 5167SOL    HW217399   6.206  11.777  13.150
 5168SOL     OW17400  13.978   8.250  11.174
 5168SOL    HW117401  13.949   8.163  11.147
 5168SOL    HW217402  13.904   8.307  11.153
 5169SOL     OW17403   7.781  13.223  14.085
 5169SOL    HW117404   7.815  13.297  14.137
 5169SOL    HW217405   7.755  13.158  14.150
 5170SOL     OW17406   5.733   2.847   5.041
 5170SOL    HW117407   5.786   2.846   4.962
 5170SOL    HW217408   5.753   2.932   5.082
 5171SOL     OW17409   9.877   3.498   6.319
 5171SOL    HW117410   9.938   3.572   6.325
 5171SOL    HW217411   9.851   3.482   6.410
 5172SOL     OW17412   4.429   3.810   2.124
 5172SOL    HW117413   4.343   3.771   2.136
 5172SOL    HW217414   4.490   3.738   2.141
 5173SOL     OW17415   7.777  10.224   6.336
 5173SOL    HW117416   7.801  10.267   6.254
 5173SOL    HW217417   7.771  10.131   6.314
 5174SOL     OW17418   3.089   4.387   2.918
 5174SOL    HW117419   3.034   4.419   2.846
 5174SOL    HW217420   3.134   4.465   2.950
 5175SOL     OW17421   8.944   8.380   2.415
 5175SOL    HW117422   8.849   8.389   2.404
 5175SOL    HW217423   8.954   8.349   2.505
 5176SOL     OW17424  12.942   4.038   4.984
 5176SOL    HW117425  13.017   4.023   5.041
 5176SOL    HW217426  12.951   3.974   4.914
 5177SOL     OW17427   4.633  13.897   5.273
 5177SOL    HW117428   4.603  13.966   5.333
 5177SOL    HW217429   4.713  13.932   5.234
 5178SOL     OW17430   5.753   1.051   8.361
 5178SOL    HW117431   5.770   0.971   8.410
 5178SOL    HW217432   5.659   1.047   8.340
 5179SOL     OW17433  14.199   3.607   6.207
 5179SOL    HW117434  14.166   3.531   6.255
 5179SOL    HW217435  14.272   3.639   6.260
 5180SOL     OW17436   1.945   3.020   2.655
 5180SOL    HW117437   1.882   3.092   2.649
 5180SOL    HW217438   1.933   2.971   2.574
 5181SOL     OW17439   0.105  14.510  14.433
 5181SOL    HW117440   0.121  14.549  14.347
 5181SOL    HW217441   0.132  14.578  14.495
 5182SOL     OW17442  11.263   3.945  13.949
 5182SOL    HW117443  11.280   3.884  14.020
 5182SOL    HW217444  11.292   3.899  13.870
 5183SOL     OW17445   6.868   9.084  12.176
 5183SOL    HW117446   6.804   9.020  12.145
 5183SOL    HW217447   6.932   9.091  12.106
 5184SOL     OW17448  13.790   7.579   5.171
 5184SOL    HW117449  13.846   7.652   5.199
 5184SOL    HW217450  13.730   7.618   5.107
 5185SOL     OW17451   0.498   6.802   2.691
 5185SOL    HW117452   0.412   6.776   2.725
 5185SOL    HW217453   0.494   6.897   2.684
 5186SOL     OW17454   7.965   1.560  13.448
 5186SOL    HW117455   7.944   1.574  13.355
 5186SOL    HW217456   7.973   1.465  13.457
 5187SOL     OW17457   8.515   0.757   0.156
 5187SOL    HW117458   8.592   0.708   0.128
 5187SOL    HW217459   8.539   0.795   0.240
 5188SOL     OW17460  11.263   0.501   4.004
 5188SOL    HW117461  11.304   0.539   4.082
 5188SOL    HW217462  11.213   0.574   3.966
 5189SOL     OW17463  10.717  10.578   1.847
 5189SOL    HW117464  10.626  10.604   1.859
 5189SOL    HW217465  10.761  10.658   1.817
 5190SOL     OW17466   4.771   7.094   0.359
 5190SOL    HW117467   4.830   7.132   0.423
 5190SOL    HW217468   4.685   7.131   0.379
 5191SOL     OW17469   6.284   6.730   1.578
 5191SOL    HW117470   6.190   6.746   1.574
 5191SOL    HW217471   6.321   6.788   1.512
 5192SOL     OW17472   1.872  13.539  12.114
 5192SOL    HW117473   1.836  13.551  12.027
 5192SOL    HW217474   1.820  13.469  12.153
 5193SOL     OW17475  11.052   3.732   4.662
 5193SOL    HW117476  10.988   3.798   4.688
 5193SOL    HW217477  11.000   3.655   4.641
 5194SOL     OW17478  11.763  14.506   3.586
 5194SOL    HW117479  11.745  14.560   3.509
 5194SOL    HW217480  11.692  14.528   3.647
 5195SOL     OW17481  11.098  12.468   5.747
 5195SOL    HW117482  11.173  12.526   5.752
 5195SOL    HW217483  11.027  12.523   5.715
 5196SOL     OW17484   8.801   0.638  10.393
 5196SOL    HW117485   8.710   0.635  10.361
 5196SOL    HW217486   8.810   0.559  10.446
 5197SOL     OW17487   7.742   8.689   7.768
 5197SOL    HW117488   7.666   8.633   7.756
 5197SOL    HW217489   7.778   8.698   7.679
 5198SOL     OW17490   9.212   4.997  11.666
 5198SOL    HW117491   9.225   5.064  11.598
 5198SOL    HW217492   9.281   4.933  11.649
 5199SOL     OW17493   8.577   3.968   1.571
 5199SOL    HW117494   8.658   3.955   1.620
 5199SOL    HW217495   8.549   3.880   1.548
 5200SOL     OW17496   2.171   6.999  12.983
 5200SOL    HW117497   2.088   7.016  12.940
 5200SOL    HW217498   2.157   7.022  13.075
 5201SOL     OW17499  11.656   6.131  11.593
 5201SOL    HW117500  11.648   6.226  11.584
 5201SOL    HW217501  11.681   6.118  11.685
 5202SOL     OW17502  14.591   2.434   7.003
 5202SOL    HW117503  14.537   2.466   6.931
 5202SOL    HW217504  14.573   2.340   7.006
 5203SOL     OW17505   9.550   9.100  10.943
 5203SOL    HW117506   9.620   9.039  10.921
 5203SOL    HW217507   9.472   9.045  10.952
 5204SOL     OW17508   9.645  13.420   1.431
 5204SOL    HW117509   9.595  13.340   1.449
 5204SOL    HW217510   9.654  13.421   1.336
 5205SOL     OW17511  14.150   1.131   9.208
 5205SOL    HW117512  14.153   1.068   9.135
 5205SOL    HW217513  14.057   1.151   9.219
 5206SOL     OW17514  10.464  14.227   7.527
 5206SOL    HW117515  10.400  14.185   7.469
 5206SOL    HW217516  10.534  14.162   7.535
 5207SOL     OW17517   4.687   1.175   9.390
 5207SOL    HW117518   4.780   1.154   9.382
 5207SOL    HW217519   4.668   1.164   9.483
 5208SOL     OW17520   4.058  13.657   0.093
 5208SOL    HW117521   3.984  13.717   0.096
 5208SOL    HW217522   4.020  13.572   0.072
 5209SOL     OW17523   3.144   0.703   3.254
 5209SOL    HW117524   3.065   0.665   3.216
 5209SOL    HW217525   3.213   0.681   3.192
 5210SOL     OW17526  13.379   9.191  12.123
 5210SOL    HW117527  13.399   9.150  12.207
 5210SOL    HW217528  13.289   9.162  12.104
 5211SOL     OW17529   7.175   6.389   2.237
 5211SOL    HW117530   7.130   6.326   2.293
 5211SOL    HW217531   7.268   6.376   2.257
 5212SOL     OW17532  14.122   2.236   7.371
 5212SOL    HW117533  14.186   2.189   7.425
 5212SOL    HW217534  14.048   2.175   7.364
 5213SOL     OW17535   7.344  14.724   9.519
 5213SOL    HW117536   7.398  14.745   9.594
 5213SOL    HW217537   7.318  14.633   9.533
 5214SOL     OW17538   0.403  13.800  12.871
 5214SOL    HW117539   0.403  13.742  12.947
 5214SOL    HW217540   0.494  13.800  12.839
 5215SOL     OW17541   7.182   3.914   7.379
 5215SOL    HW117542   7.224   3.861   7.311
 5215SOL    HW217543   7.196   4.004   7.351
 5216SOL     OW17544   5.327  12.618   6.883
 5216SOL    HW117545   5.364  12.588   6.966
 5216SOL    HW217546   5.249  12.563   6.871
 5217SOL     OW17547   2.073   8.422   7.186
 5217SOL    HW117548   2.122   8.503   7.175
 5217SOL    HW217549   2.132   8.354   7.154
 5218SOL     OW17550  12.665   2.302  11.513
 5218SOL    HW117551  12.735   2.237  11.504
 5218SOL    HW217552  12.604   2.282  11.442
 5219SOL     OW17553  13.499   6.687   2.769
 5219SOL    HW117554  13.533   6.624   2.831
 5219SOL    HW217555  13.563   6.689   2.698
 5220SOL     OW17556  11.808   7.760  13.525
 5220SOL    HW117557  11.902   7.741  13.536
 5220SOL    HW217558  11.805   7.828  13.457
 5221SOL     OW17559   0.491  10.369   0.331
 5221SOL    HW117560   0.396  10.372   0.325
 5221SOL    HW217561   0.510  10.301   0.396
 5222SOL     OW17562   0.168   2.345   9.474
 5222SOL    HW117563   0.130   2.270   9.428
 5222SOL    HW217564   0.245   2.368   9.422
 5223SOL     OW17565  12.485  12.517   4.705
 5223SOL    HW117566  12.403  12.559   4.730
 5223SOL    HW217567  12.478  12.428   4.741
 5224SOL     OW17568   9.513  12.961   2.649
 5224SOL    HW117569   9.583  12.992   2.592
 5224SOL    HW217570   9.551  12.963   2.737
 5225SOL     OW17571   3.881  10.745   5.249
 5225SOL    HW117572   3.909  10.685   5.180
 5225SOL    HW217573   3.852  10.687   5.320
 5226SOL     OW17574   1.804   7.100   6.615
 5226SOL    HW117575   1.787   7.015   6.575
 5226SOL    HW217576   1.833   7.080   6.704
 5227SOL     OW17577   0.965   3.968  14.830
 5227SOL    HW117578   0.874   3.941  14.843
 5227SOL    HW217579   0.977   3.970  14.735
 5228SOL     OW17580   3.303   2.724   1.270
 5228SOL    HW117581   3.331   2.767   1.351
 5228SOL    HW217582   3.376   2.667   1.247
 5229SOL     OW17583   3.416  13.298   5.802
 5229SOL    HW117584   3.344  13.235   5.807
 5229SOL    HW217585   3.375  13.379   5.771
 5230SOL     OW17586   5.342   4.092  13.549
 5230SOL    HW117587   5.401   4.024  13.517
 5230SOL    HW217588   5.267   4.089  13.489
 5231SOL     OW17589   4.221   2.075   1.867
 5231SOL    HW117590   4.138   2.116   1.841
 5231SOL    HW217591   4.285   2.146   1.863
 5232SOL     OW17592  10.235   2.960   3.217
 5232SOL    HW117593  10.318   2.936   3.175
 5232SOL    HW217594  10.236   3.055   3.220
 5233SOL     OW17595   6.539   6.204   1.034
 5233SOL    HW117596   6.541   6.232   1.125
 5233SOL    HW217597   6.559   6.110   1.037
 5234SOL     OW17598   4.213   6.015  14.167
 5234SOL    HW117599   4.234   5.932  14.126
 5234SOL    HW217600   4.194   6.074  14.094
 5235SOL     OW17601   5.499  12.518   5.778
 5235SOL    HW117602   5.426  12.522   5.839
 5235SOL    HW217603   5.465  12.557   5.697
 5236SOL     OW17604   6.602  13.170  13.552
 5236SOL    HW117605   6.680  13.175  13.609
 5236SOL    HW217606   6.566  13.083  13.569
 5237SOL     OW17607   1.507  11.260  12.534
 5237SOL    HW117608   1.491  11.265  12.628
 5237SOL    HW217609   1.425  11.288  12.494
 5238SOL     OW17610   1.167   7.430   6.062
 5238SOL    HW117611   1.197   7.511   6.104
 5238SOL    HW217612   1.080   7.415   6.099
 5239SOL     OW17613  11.510   1.455   0.664
 5239SOL    HW117614  11.460   1.536   0.654
 5239SOL    HW217615  11.452   1.387   0.631
 5240SOL     OW17616   1.770   2.429   6.375
 5240SOL    HW117617   1.687   2.433   6.423
 5240SOL    HW217618   1.811   2.514   6.391
 5241SOL     OW17619  10.755   8.641   7.546
 5241SOL    HW117620  10.708   8.695   7.610
 5241SOL    HW217621  10.844   8.633   7.581
 5242SOL     OW17622   9.108  10.325  14.700
 5242SOL    HW117623   9.025  10.278  14.697
 5242SOL    HW217624   9.167  10.267  14.748
 5243SOL     OW17625   6.102  10.608   1.817
 5243SOL    HW117626   6.165  10.583   1.885
 5243SOL    HW217627   6.061  10.688   1.851
 5244SOL     OW17628  14.402  12.345   3.275
 5244SOL    HW117629  14.493  12.320   3.291
 5244SOL    HW217630  14.377  12.294   3.198
 5245SOL     OW17631  13.234   2.955   8.407
 5245SOL    HW117632  13.220   2.943   8.313
 5245SOL    HW217633  13.326   2.936   8.421
 5246SOL     OW17634   8.217  13.830   6.207
 5246SOL    HW117635   8.211  13.742   6.171
 5246SOL    HW217636   8.284  13.873   6.154
 5247SOL     OW17637   3.525  12.052   6.416
 5247SOL    HW117638   3.538  11.965   6.379
 5247SOL    HW217639   3.477  12.100   6.348
 5248SOL     OW17640   4.430  12.946  13.946
 5248SOL    HW117641   4.484  12.874  13.977
 5248SOL    HW217642   4.431  13.010  14.017
 5249SOL     OW17643   6.287   2.400  11.089
 5249SOL    HW117644   6.362   2.411  11.031
 5249SOL    HW217645   6.288   2.307  11.111
 5250SOL     OW17646  12.759   9.370   1.623
 5250SOL    HW117647  12.805   9.391   1.542
 5250SOL    HW217648  12.828   9.345   1.684
 5251SOL     OW17649   5.528   4.596   9.824
 5251SOL    HW117650   5.439   4.577   9.794
 5251SOL    HW217651   5.570   4.637   9.749
 5252SOL     OW17652  11.096   2.408   4.779
 5252SOL    HW117653  11.066   2.454   4.701
 5252SOL    HW217654  11.150   2.471   4.826
 5253SOL     OW17655   9.964   9.179  14.099
 5253SOL    HW117656   9.923   9.235  14.034
 5253SOL    HW217657   9.895   9.118  14.125
 5254SOL     OW17658  12.133  11.795  13.753
 5254SOL    HW117659  12.150  11.830  13.665
 5254SOL    HW217660  12.214  11.812  13.801
 5255SOL     OW17661   2.181   4.364  13.039
 5255SOL    HW117662   2.100   4.357  13.090
 5255SOL    HW217663   2.242   4.304  13.082
 5256SOL     OW17664   4.800  12.566   1.577
 5256SOL    HW117665   4.741  12.528   1.513
 5256SOL    HW217666   4.851  12.630   1.528
 5257SOL     OW17667   2.265   1.261   4.686
 5257SOL    HW117668   2.355   1.283   4.664
 5257SOL    HW217669   2.233   1.336   4.735
 5258SOL     OW17670   0.076   0.655   5.235
 5258SOL    HW117671   0.121   0.654   5.151
 5258SOL    HW217672   0.147   0.651   5.300
 5259SOL     OW17673   7.428   8.712   7.458
 5259SOL    HW117674   7.341   8.684   7.429
 5259SOL    HW217675   7.411   8.773   7.530
 5260SOL     OW17676   7.522   5.193   8.567
 5260SOL    HW117677   7.532   5.102   8.594
 5260SOL    HW217678   7.431   5.214   8.585
 5261SOL     OW17679   7.589   1.925   4.621
 5261SOL    HW117680   7.671   1.899   4.663
 5261SOL    HW217681   7.616   1.964   4.538
 5262SOL     OW17682   5.704  14.368   5.157
 5262SOL    HW117683   5.756  14.361   5.237
 5262SOL    HW217684   5.705  14.462   5.137
 5263SOL     OW17685   1.617   5.432  12.346
 5263SOL    HW117686   1.697   5.468  12.386
 5263SOL    HW217687   1.569   5.393  12.419
 5264SOL     OW17688   2.750   9.235  12.060
 5264SOL    HW117689   2.667   9.247  12.014
 5264SOL    HW217690   2.806   9.188  11.997
 5265SOL     OW17691   4.228  13.676  13.552
 5265SOL    HW117692   4.148  13.670  13.605
 5265SOL    HW217693   4.287  13.732  13.603
 5266SOL     OW17694   5.890   9.813  14.633
 5266SOL    HW117695   5.957   9.881  14.621
 5266SOL    HW217696   5.940   9.736  14.660
 5267SOL     OW17697   2.846   3.292  12.681
 5267SOL    HW117698   2.862   3.320  12.590
 5267SOL    HW217699   2.925   3.243  12.705
 5268SOL     OW17700   0.498  10.427   4.604
 5268SOL    HW117701   0.462  10.434   4.693
 5268SOL    HW217702   0.552  10.347   4.607
 5269SOL     OW17703   6.399  14.544   5.727
 5269SOL    HW117704   6.442  14.499   5.800
 5269SOL    HW217705   6.421  14.490   5.651
 5270SOL     OW17706   1.110  12.168   7.091
 5270SOL    HW117707   1.202  12.173   7.117
 5270SOL    HW217708   1.064  12.143   7.171
 5271SOL     OW17709   8.733  12.582   0.786
 5271SOL    HW117710   8.759  12.592   0.878
 5271SOL    HW217711   8.737  12.670   0.750
 5272SOL     OW17712   3.172   9.134   2.301
 5272SOL    HW117713   3.126   9.091   2.229
 5272SOL    HW217714   3.103   9.177   2.352
 5273SOL     OW17715   1.106   2.994   3.588
 5273SOL    HW117716   1.113   3.067   3.527
 5273SOL    HW217717   1.012   2.977   3.595
 5274SOL     OW17718   6.709  14.030   1.376
 5274SOL    HW117719   6.713  13.961   1.310
 5274SOL    HW217720   6.631  14.081   1.352
 5275SOL     OW17721   2.266   5.997   2.488
 5275SOL    HW117722   2.247   5.905   2.471
 5275SOL    HW217723   2.257   6.007   2.583
 5276SOL     OW17724   7.778  13.466   1.896
 5276SOL    HW117725   7.840  13.531   1.863
 5276SOL    HW217726   7.711  13.518   1.940
 5277SOL     OW17727   1.552   8.572   9.337
 5277SOL    HW117728   1.636   8.557   9.293
 5277SOL    HW217729   1.568   8.647   9.395
 5278SOL     OW17730  13.820   0.042   6.977
 5278SOL    HW117731  13.881  14.846   6.946
 5278SOL    HW217732  13.799   0.093   6.899
 5279SOL     OW17733   2.552   5.676   9.449
 5279SOL    HW117734   2.492   5.730   9.399
 5279SOL    HW217735   2.496   5.629   9.511
 5280SOL     OW17736  13.890   7.905   1.302
 5280SOL    HW117737  13.968   7.942   1.262
 5280SOL    HW217738  13.850   7.978   1.350
 5281SOL     OW17739  10.714   8.157   4.714
 5281SOL    HW117740  10.621   8.135   4.713
 5281SOL    HW217741  10.729   8.194   4.801
 5282SOL     OW17742  12.806   5.284   0.455
 5282SOL    HW117743  12.714   5.285   0.425
 5282SOL    HW217744  12.852   5.233   0.388
 5283SOL     OW17745   5.681   8.699   7.403
 5283SOL    HW117746   5.689   8.664   7.492
 5283SOL    HW217747   5.710   8.628   7.346
 5284SOL     OW17748   9.028  10.173   4.141
 5284SOL    HW117749   8.967  10.206   4.207
 5284SOL    HW217750   9.098  10.131   4.191
 5285SOL     OW17751  13.460   8.033   2.376
 5285SOL    HW117752  13.398   8.042   2.448
 5285SOL    HW217753  13.414   8.072   2.301
 5286SOL     OW17754   4.913   4.600   2.107
 5286SOL    HW117755   4.935   4.542   2.180
 5286SOL    HW217756   4.932   4.688   2.140
 5287SOL     OW17757  10.060  10.394  14.776
 5287SOL    HW117758  10.030  10.370  14.688
 5287SOL    HW217759   9.983  10.381  14.832
 5288SOL     OW17760   0.756   0.281   0.058
 5288SOL    HW117761   0.807   0.361   0.046
 5288SOL    HW217762   0.813   0.222   0.107
 5289SOL     OW17763  14.834  14.642   3.550
 5289SOL    HW117764   0.013  14.567   3.519
 5289SOL    HW217765   0.008  14.672   3.628
 5290SOL     OW17766   4.875   3.685  10.428
 5290SOL    HW117767   4.906   3.748  10.493
 5290SOL    HW217768   4.877   3.733  10.345
 5291SOL     OW17769   2.681   3.251   3.904
 5291SOL    HW117770   2.663   3.344   3.917
 5291SOL    HW217771   2.611   3.206   3.951
 5292SOL     OW17772   4.584  12.958  14.688
 5292SOL    HW117773   4.663  12.927  14.732
 5292SOL    HW217774   4.598  12.939  14.596
 5293SOL     OW17775   0.321   5.020   3.159
 5293SOL    HW117776   0.404   4.973   3.149
 5293SOL    HW217777   0.334   5.075   3.236
 5294SOL     OW17778   0.029   8.917   5.837
 5294SOL    HW117779  14.826   8.969   5.807
 5294SOL    HW217780   0.047   8.857   5.764
 5295SOL     OW17781  10.661   2.451  14.008
 5295SOL    HW117782  10.731   2.484  14.064
 5295SOL    HW217783  10.689   2.473  13.919
 5296SOL     OW17784   8.952  11.743   5.831
 5296SOL    HW117785   8.960  11.650   5.810
 5296SOL    HW217786   8.858  11.761   5.825
 5297SOL     OW17787   4.698   3.711   1.947
 5297SOL    HW117788   4.734   3.658   2.019
 5297SOL    HW217789   4.722   3.801   1.970
 5298SOL     OW17790  12.151  14.829  14.824
 5298SOL    HW117791  12.115   0.046  14.818
 5298SOL    HW217792  12.240  14.841  14.855
 5299SOL     OW17793  12.762   7.248  14.200
 5299SOL    HW117794  12.708   7.244  14.121
 5299SOL    HW217795  12.701   7.238  14.272
 5300SOL     OW17796   4.917  13.027   8.425
 5300SOL    HW117797   4.846  13.090   8.439
 5300SOL    HW217798   4.924  12.980   8.509
 5301SOL     OW17799   9.525   2.132   8.988
 5301SOL    HW117800   9.508   2.041   9.012
 5301SOL    HW217801   9.439   2.174   8.989
 5302SOL     OW17802   7.606   6.283   2.204
 5302SOL    HW117803   7.546   6.321   2.269
 5302SOL    HW217804   7.681   6.252   2.255
 5303SOL     OW17805   2.650   9.571   6.880
 5303SOL    HW117806   2.554   9.575   6.880
 5303SOL    HW217807   2.671   9.490   6.834
 5304SOL     OW17808  10.120   8.631  11.806
 5304SOL    HW117809  10.139   8.558  11.747
 5304SOL    HW217810  10.206   8.670  11.824
 5305SOL     OW17811  11.574   7.691  11.729
 5305SOL    HW117812  11.665   7.721  11.733
 5305SOL    HW217813  11.555   7.686  11.635
 5306SOL     OW17814   0.576   9.672   5.625
 5306SOL    HW117815   0.560   9.672   5.531
 5306SOL    HW217816   0.572   9.579   5.650
 5307SOL     OW17817   9.115  14.203   2.985
 5307SOL    HW117818   9.058  14.166   2.918
 5307SOL    HW217819   9.067  14.280   3.017
 5308SOL     OW17820   9.150  13.290  13.822
 5308SOL    HW117821   9.088  13.264  13.890
 5308SOL    HW217822   9.101  13.351  13.766
 5309SOL     OW17823   2.535   7.546   6.801
 5309SOL    HW117824   2.445   7.515   6.809
 5309SOL    HW217825   2.529   7.622   6.743
 5310SOL     OW17826  13.891   2.648   3.657
 5310SOL    HW117827  13.817   2.682   3.706
 5310SOL    HW217828  13.967   2.663   3.714
 5311SOL     OW17829   2.613   9.797   7.572
 5311SOL    HW117830   2.538   9.820   7.627
 5311SOL    HW217831   2.586   9.716   7.528
 5312SOL     OW17832   8.148   0.254  14.352
 5312SOL    HW117833   8.185   0.224  14.435
 5312SOL    HW217834   8.084   0.187  14.328
 5313SOL     OW17835   6.382  12.656  13.141
 5313SOL    HW117836   6.326  12.583  13.166
 5313SOL    HW217837   6.399  12.703  13.223
 5314SOL     OW17838   1.325  12.358   1.064
 5314SOL    HW117839   1.310  12.265   1.078
 5314SOL    HW217840   1.408  12.376   1.108
 5315SOL     OW17841   2.614  10.061   5.032
 5315SOL    HW117842   2.558  10.112   5.090
 5315SOL    HW217843   2.685  10.029   5.088
 5316SOL     OW17844  11.137   0.488   7.729
 5316SOL    HW117845  11.139   0.425   7.657
 5316SOL    HW217846  11.224   0.483   7.768
 5317SOL     OW17847  12.269   7.740   4.595
 5317SOL    HW117848  12.300   7.808   4.535
 5317SOL    HW217849  12.347   7.712   4.642
 5318SOL     OW17850   0.902   6.118   9.605
 5318SOL    HW117851   0.888   6.123   9.510
 5318SOL    HW217852   0.814   6.109   9.641
 5319SOL     OW17853   8.024   6.776  14.076
 5319SOL    HW117854   8.005   6.774  14.170
 5319SOL    HW217855   8.114   6.808  14.071
 5320SOL     OW17856   2.616  13.455   6.355
 5320SOL    HW117857   2.536  13.436   6.307
 5320SOL    HW217858   2.605  13.545   6.386
 5321SOL     OW17859   4.688   4.508   2.771
 5321SOL    HW117860   4.640   4.501   2.688
 5321SOL    HW217861   4.727   4.421   2.782
 5322SOL     OW17862  10.673   5.254   5.454
 5322SOL    HW117863  10.597   5.203   5.481
 5322SOL    HW217864  10.746   5.192   5.459
 5323SOL     OW17865   8.886   8.594   1.481
 5323SOL    HW117866   8.821   8.543   1.433
 5323SOL    HW217867   8.939   8.636   1.412
 5324SOL     OW17868   1.220  12.257   5.705
 5324SOL    HW117869   1.248  12.323   5.642
 5324SOL    HW217870   1.125  12.252   5.693
 5325SOL     OW17871  12.376  10.045   2.091
 5325SOL    HW117872  12.283  10.061   2.108
 5325SOL    HW217873  12.392  10.088   2.007
 5326SOL     OW17874   5.836   0.469   3.335
 5326SOL    HW117875   5.815   0.524   3.411
 5326SOL    HW217876   5.759   0.413   3.324
 5327SOL     OW17877   1.163   6.538   7.911
 5327SOL    HW117878   1.114   6.611   7.875
 5327SOL    HW217879   1.254   6.556   7.886
 5328SOL     OW17880   9.076   1.301   8.956
 5328SOL    HW117881   9.150   1.262   8.910
 5328SOL    HW217882   9.107   1.312   9.046
 5329SOL     OW17883  12.770  12.508   9.169
 5329SOL    HW117884  12.770  12.580   9.232
 5329SOL    HW217885  12.862  12.493   9.149
 5330SOL     OW17886   4.130   9.794   5.157
 5330SOL    HW117887   4.070   9.813   5.229
 5330SOL    HW217888   4.208   9.845   5.176
 5331SOL     OW17889  12.047  13.698   4.909
 5331SOL    HW117890  12.131  13.656   4.890
 5331SOL    HW217891  12.006  13.642   4.974
 5332SOL     OW17892   7.861  14.021  10.210
 5332SOL    HW117893   7.900  14.101  10.174
 5332SOL    HW217894   7.834  14.045  10.299
 5333SOL     OW17895   4.941   3.118   6.846
 5333SOL    HW117896   5.033   3.104   6.824
 5333SOL    HW217897   4.940   3.120   6.942
 5334SOL     OW17898   8.755   7.946   1.634
 5334SOL    HW117899   8.840   7.925   1.596
 5334SOL    HW217900   8.768   8.030   1.678
 5335SOL     OW17901  13.350   6.432   3.071
 5335SOL    HW117902  13.395   6.500   3.121
 5335SOL    HW217903  13.259   6.438   3.099
 5336SOL     OW17904   4.318   1.708  12.918
 5336SOL    HW117905   4.240   1.744  12.960
 5336SOL    HW217906   4.349   1.640  12.978
 5337SOL     OW17907  14.221  11.288   9.293
 5337SOL    HW117908  14.142  11.318   9.337
 5337SOL    HW217909  14.251  11.214   9.345
 5338SOL     OW17910  11.482  11.683   3.543
 5338SOL    HW117911  11.414  11.732   3.588
 5338SOL    HW217912  11.540  11.749   3.507
 5339SOL     OW17913  12.586   5.181   2.304
 5339SOL    HW117914  12.577   5.091   2.337
 5339SOL    HW217915  12.680   5.199   2.309
 5340SOL     OW17916   8.709   5.005   4.111
 5340SOL    HW117917   8.664   5.081   4.149
 5340SOL    HW217918   8.648   4.933   4.121
 5341SOL     OW17919   8.880   0.355  11.632
 5341SOL    HW117920   8.848   0.411  11.562
 5341SOL    HW217921   8.804   0.337  11.687
 5342SOL     OW17922   2.776  13.716   8.773
 5342SOL    HW117923   2.862  13.692   8.738
 5342SOL    HW217924   2.781  13.696   8.866
 5343SOL     OW17925   8.148   2.213  13.231
 5343SOL    HW117926   8.181   2.221  13.141
 5343SOL    HW217927   8.109   2.126  13.234
 5344SOL     OW17928  10.680   7.168   0.529
 5344SOL    HW117929  10.624   7.107   0.480
 5344SOL    HW217930  10.645   7.254   0.506
 5345SOL     OW17931  13.743   5.280   0.323
 5345SOL    HW117932  13.826   5.244   0.291
 5345SOL    HW217933  13.698   5.310   0.244
 5346SOL     OW17934  14.153   7.652  12.285
 5346SOL    HW117935  14.087   7.667  12.353
 5346SOL    HW217936  14.101   7.633  12.207
 5347SOL     OW17937   4.380   1.285  13.376
 5347SOL    HW117938   4.392   1.365  13.427
 5347SOL    HW217939   4.289   1.261  13.390
 5348SOL     OW17940   0.386   8.236  13.374
 5348SOL    HW117941   0.297   8.226  13.408
 5348SOL    HW217942   0.406   8.328  13.385
 5349SOL     OW17943   1.916   5.495   9.142
 5349SOL    HW117944   1.936   5.402   9.132
 5349SOL    HW217945   2.000   5.539   9.126
 5350SOL     OW17946   4.307  14.565  13.713
 5350SOL    HW117947   4.227  14.514  13.723
 5350SOL    HW217948   4.334  14.586  13.803
 5351SOL     OW17949   0.572  13.336  11.708
 5351SOL    HW117950   0.524  13.406  11.753
 5351SOL    HW217951   0.508  13.295  11.651
 5352SOL     OW17952   9.123   8.168   4.969
 5352SOL    HW117953   9.061   8.177   4.896
 5352SOL    HW217954   9.209   8.161   4.928
 5353SOL     OW17955   0.692  13.441   7.643
 5353SOL    HW117956   0.735  13.385   7.708
 5353SOL    HW217957   0.615  13.475   7.689
 5354SOL     OW17958  12.406   1.152   7.919
 5354SOL    HW117959  12.410   1.196   7.835
 5354SOL    HW217960  12.365   1.067   7.900
 5355SOL     OW17961   9.809  10.468   2.005
 5355SOL    HW117962   9.850  10.547   1.968
 5355SOL    HW217963   9.872  10.398   1.988
 5356SOL     OW17964   6.809   9.961   8.113
 5356SOL    HW117965   6.720   9.992   8.132
 5356SOL    HW217966   6.807   9.939   8.020
 5357SOL     OW17967  10.499   2.780   6.509
 5357SOL    HW117968  10.486   2.835   6.432
 5357SOL    HW217969  10.567   2.718   6.483
 5358SOL     OW17970  13.333  10.470   7.343
 5358SOL    HW117971  13.294  10.413   7.408
 5358SOL    HW217972  13.399  10.416   7.299
 5359SOL     OW17973   8.749   9.136   8.522
 5359SOL    HW117974   8.797   9.054   8.533
 5359SOL    HW217975   8.664   9.121   8.564
 5360SOL     OW17976   6.985  13.964   8.669
 5360SOL    HW117977   7.022  14.052   8.663
 5360SOL    HW217978   6.985  13.931   8.579
 5361SOL     OW17979  14.099   5.616  11.481
 5361SOL    HW117980  14.176   5.646  11.528
 5361SOL    HW217981  14.077   5.532  11.522
 5362SOL     OW17982  11.512   0.755  11.099
 5362SOL    HW117983  11.500   0.837  11.146
 5362SOL    HW217984  11.537   0.780  11.011
 5363SOL     OW17985   7.323   0.418   1.407
 5363SOL    HW117986   7.314   0.494   1.349
 5363SOL    HW217987   7.313   0.454   1.495
 5364SOL     OW17988   0.418   8.937   3.835
 5364SOL    HW117989   0.484   8.868   3.844
 5364SOL    HW217990   0.350   8.914   3.900
 5365SOL     OW17991   0.727  14.535   0.728
 5365SOL    HW117992   0.647  14.485   0.745
 5365SOL    HW217993   0.716  14.615   0.779
 5366SOL     OW17994  12.693   7.292   2.030
 5366SOL    HW117995  12.730   7.206   2.009
 5366SOL    HW217996  12.729   7.313   2.116
 5367SOL     OW17997   8.800   3.533   8.353
 5367SOL    HW117998   8.777   3.478   8.278
 5367SOL    HW217999   8.717   3.571   8.382
 5368SOL     OW18000   2.496   7.018   7.435
 5368SOL    HW118001   2.562   7.049   7.373
 5368SOL    HW218002   2.418   7.069   7.415
 5369SOL     OW18003  10.478  13.700  11.747
 5369SOL    HW118004  10.400  13.738  11.705
 5369SOL    HW218005  10.491  13.754  11.825
 5370SOL     OW18006  12.781   6.862   2.948
 5370SOL    HW118007  12.693   6.895   2.931
 5370SOL    HW218008  12.772   6.807   3.026
 5371SOL     OW18009   1.375   0.912  10.170
 5371SOL    HW118010   1.360   0.911  10.265
 5371SOL    HW218011   1.378   1.005  10.147
 5372SOL     OW18012   2.835   2.744   6.526
 5372SOL    HW118013   2.904   2.704   6.579
 5372SOL    HW218014   2.771   2.776   6.590
 5373SOL     OW18015   2.466  12.031   4.536
 5373SOL    HW118016   2.421  12.062   4.457
 5373SOL    HW218017   2.499  11.944   4.513
 5374SOL     OW18018   2.293   0.519   0.352
 5374SOL    HW118019   2.320   0.457   0.284
 5374SOL    HW218020   2.339   0.600   0.331
 5375SOL     OW18021  10.664  11.465  10.854
 5375SOL    HW118022  10.741  11.453  10.798
 5375SOL    HW218023  10.694  11.523  10.924
 5376SOL     OW18024  10.679   1.572  10.136
 5376SOL    HW118025  10.651   1.624  10.211
 5376SOL    HW218026  10.746   1.514  10.170
 5377SOL     OW18027  10.324   6.576   1.749
 5377SOL    HW118028  10.287   6.507   1.694
 5377SOL    HW218029  10.414   6.585   1.718
 5378SOL     OW18030  12.004  11.239   3.537
 5378SOL    HW118031  11.995  11.209   3.446
 5378SOL    HW218032  12.085  11.290   3.537
 5379SOL     OW18033   1.801  14.036  13.606
 5379SOL    HW118034   1.844  14.078  13.681
 5379SOL    HW218035   1.708  14.057  13.617
 5380SOL     OW18036   1.344   0.476   6.568
 5380SOL    HW118037   1.426   0.485   6.519
 5380SOL    HW218038   1.345   0.548   6.630
 5381SOL     OW18039   5.943  10.465   0.179
 5381SOL    HW118040   5.949  10.374   0.208
 5381SOL    HW218041   5.897  10.510   0.250
 5382SOL     OW18042   7.905   9.206   4.616
 5382SOL    HW118043   7.999   9.197   4.600
 5382SOL    HW218044   7.871   9.243   4.535
 5383SOL     OW18045   5.525  11.249  13.989
 5383SOL    HW118046   5.617  11.245  13.961
 5383SOL    HW218047   5.476  11.258  13.907
 5384SOL     OW18048   8.861   7.134   7.988
 5384SOL    HW118049   8.925   7.124   8.059
 5384SOL    HW218050   8.800   7.061   8.000
 5385SOL     OW18051   6.074  13.513   4.668
 5385SOL    HW118052   6.006  13.454   4.636
 5385SOL    HW218053   6.148  13.455   4.687
 5386SOL     OW18054   6.043   5.940  10.465
 5386SOL    HW118055   6.088   5.997  10.402
 5386SOL    HW218056   6.094   5.859  10.465
 5387SOL     OW18057   0.523   7.044   3.149
 5387SOL    HW118058   0.606   6.997   3.153
 5387SOL    HW218059   0.491   7.030   3.060
 5388SOL     OW18060  12.284   8.665   6.373
 5388SOL    HW118061  12.214   8.726   6.349
 5388SOL    HW218062  12.347   8.672   6.301
 5389SOL     OW18063   2.525   6.433   8.736
 5389SOL    HW118064   2.432   6.410   8.734
 5389SOL    HW218065   2.539   6.482   8.656
 5390SOL     OW18066  12.868   2.512   7.746
 5390SOL    HW118067  12.783   2.524   7.703
 5390SOL    HW218068  12.862   2.568   7.824
 5391SOL     OW18069   1.106   9.903   4.459
 5391SOL    HW118070   1.158   9.833   4.420
 5391SOL    HW218071   1.171   9.961   4.499
 5392SOL     OW18072  10.441   3.225   0.543
 5392SOL    HW118073  10.424   3.269   0.627
 5392SOL    HW218074  10.362   3.238   0.492
 5393SOL     OW18075   8.790  12.061   2.097
 5393SOL    HW118076   8.846  12.130   2.134
 5393SOL    HW218077   8.795  11.989   2.160
 5394SOL     OW18078   0.353   8.092   4.095
 5394SOL    HW118079   0.380   8.150   4.024
 5394SOL    HW218080   0.318   8.151   4.162
 5395SOL     OW18081   1.136   3.248   3.414
 5395SOL    HW118082   1.221   3.239   3.370
 5395SOL    HW218083   1.088   3.311   3.360
 5396SOL     OW18084  11.430   7.885   9.466
 5396SOL    HW118085  11.502   7.835   9.428
 5396SOL    HW218086  11.361   7.882   9.400
 5397SOL     OW18087   0.130  10.611   6.851
 5397SOL    HW118088   0.166  10.696   6.827
 5397SOL    HW218089   0.053  10.601   6.795
 5398SOL     OW18090  14.242   6.542   1.719
 5398SOL    HW118091  14.334   6.531   1.694
 5398SOL    HW218092  14.194   6.480   1.664
 5399SOL     OW18093   2.393   6.211   6.529
 5399SOL    HW118094   2.381   6.301   6.560
 5399SOL    HW218095   2.365   6.213   6.438
 5400SOL     OW18096   5.979  11.347   2.202
 5400SOL    HW118097   5.989  11.292   2.125
 5400SOL    HW218098   5.916  11.301   2.257
 5401SOL     OW18099  10.814  11.450  13.344
 5401SOL    HW118100  10.748  11.454  13.413
 5401SOL    HW218101  10.766  11.470  13.264
 5402SOL     OW18102   8.309   9.083  12.989
 5402SOL    HW118103   8.262   9.125  13.061
 5402SOL    HW218104   8.254   9.097  12.912
 5403SOL     OW18105   9.263   1.841   5.074
 5403SOL    HW118106   9.235   1.928   5.048
 5403SOL    HW218107   9.323   1.855   5.148
 5404SOL     OW18108   2.274  14.502   1.290
 5404SOL    HW118109   2.181  14.483   1.282
 5404SOL    HW218110   2.283  14.544   1.376
 5405SOL     OW18111   4.331   1.455  12.027
 5405SOL    HW118112   4.415   1.470  11.983
 5405SOL    HW218113   4.330   1.361  12.045
 5406SOL     OW18114  12.120  14.132   8.107
 5406SOL    HW118115  12.213  14.110   8.108
 5406SOL    HW218116  12.088  14.096   8.024
 5407SOL     OW18117   3.105  11.942   8.262
 5407SOL    HW118118   3.136  11.906   8.179
 5407SOL    HW218119   3.027  11.993   8.238
 5408SOL     OW18120  10.930  12.408   2.878
 5408SOL    HW118121  10.896  12.471   2.941
 5408SOL    HW218122  10.905  12.322   2.912
 5409SOL     OW18123   8.283  12.616  11.349
 5409SOL    HW118124   8.188  12.629  11.343
 5409SOL    HW218125   8.319  12.705  11.352
 5410SOL     OW18126   3.868   0.938   9.193
 5410SOL    HW118127   3.794   0.925   9.135
 5410SOL    HW218128   3.830   0.971   9.274
 5411SOL     OW18129   0.596   5.499   4.433
 5411SOL    HW118130   0.675   5.484   4.486
 5411SOL    HW218131   0.552   5.572   4.476
 5412SOL     OW18132  13.024   0.303   3.736
 5412SOL    HW118133  13.040   0.218   3.778
 5412SOL    HW218134  12.929   0.305   3.724
 5413SOL     OW18135  14.177   8.512   1.708
 5413SOL    HW118136  14.233   8.536   1.634
 5413SOL    HW218137  14.234   8.519   1.784
 5414SOL     OW18138  14.484  12.836  14.785
 5414SOL    HW118139  14.546  12.835  14.712
 5414SOL    HW218140  14.412  12.780  14.756
 5415SOL     OW18141  10.958   7.215  11.233
 5415SOL    HW118142  11.013   7.199  11.310
 5415SOL    HW218143  10.878   7.254  11.268
 5416SOL     OW18144  13.004   4.354  13.052
 5416SOL    HW118145  12.955   4.395  13.123
 5416SOL    HW218146  13.041   4.275  13.091
 5417SOL     OW18147  10.443   4.768   0.037
 5417SOL    HW118148  10.480   4.714  14.838
 5417SOL    HW218149  10.390   4.706   0.088
 5418SOL     OW18150   8.552  12.941   1.462
 5418SOL    HW118151   8.576  13.017   1.514
 5418SOL    HW218152   8.621  12.877   1.481
 5419SOL     OW18153   6.758  13.316   3.129
 5419SOL    HW118154   6.736  13.230   3.166
 5419SOL    HW218155   6.845  13.304   3.090
 5420SOL     OW18156   8.070   2.993  11.313
 5420SOL    HW118157   8.073   3.044  11.232
 5420SOL    HW218158   7.979   2.967  11.322
 5421SOL     OW18159   8.203   6.060   8.347
 5421SOL    HW118160   8.250   6.090   8.425
 5421SOL    HW218161   8.176   6.141   8.302
 5422SOL     OW18162   0.806   2.080   6.040
 5422SOL    HW118163   0.841   2.028   6.112
 5422SOL    HW218164   0.875   2.142   6.018
 5423SOL     OW18165   1.823   9.362  14.094
 5423SOL    HW118166   1.867   9.279  14.111
 5423SOL    HW218167   1.779   9.383  14.176
 5424SOL     OW18168  13.673   8.146   2.563
 5424SOL    HW118169  13.655   8.231   2.602
 5424SOL    HW218170  13.691   8.089   2.637
 5425SOL     OW18171  10.028  13.914   0.587
 5425SOL    HW118172  10.089  13.849   0.621
 5425SOL    HW218173   9.965  13.926   0.658
 5426SOL     OW18174   6.599  10.526   2.145
 5426SOL    HW118175   6.655  10.449   2.138
 5426SOL    HW218176   6.533  10.502   2.210
 5427SOL     OW18177   3.056  10.882   1.741
 5427SOL    HW118178   3.053  10.977   1.756
 5427SOL    HW218179   3.118  10.871   1.669
 5428SOL     OW18180   9.371   1.373   0.410
 5428SOL    HW118181   9.308   1.332   0.351
 5428SOL    HW218182   9.343   1.464   0.417
 5429SOL     OW18183  12.359   7.269  10.826
 5429SOL    HW118184  12.454   7.281  10.825
 5429SOL    HW218185  12.324   7.358  10.823
 5430SOL     OW18186   3.772  12.747   8.748
 5430SOL    HW118187   3.841  12.814   8.740
 5430SOL    HW218188   3.769  12.706   8.662
 5431SOL     OW18189   2.862  12.525  10.575
 5431SOL    HW118190   2.785  12.563  10.616
 5431SOL    HW218191   2.827  12.464  10.510
 5432SOL     OW18192   1.766   0.721   3.667
 5432SOL    HW118193   1.818   0.799   3.688
 5432SOL    HW218194   1.735   0.737   3.578
 5433SOL     OW18195   6.891   1.783  13.385
 5433SOL    HW118196   6.942   1.728  13.446
 5433SOL    HW218197   6.846   1.720  13.329
 5434SOL     OW18198  13.349   7.076   5.615
 5434SOL    HW118199  13.289   7.100   5.545
 5434SOL    HW218200  13.436   7.091   5.578
 5435SOL     OW18201   0.752  14.519   6.742
 5435SOL    HW118202   0.673  14.509   6.689
 5435SOL    HW218203   0.733  14.591   6.801
 5436SOL     OW18204  12.867   4.559  12.713
 5436SOL    HW118205  12.924   4.611  12.770
 5436SOL    HW218206  12.923   4.536  12.638
 5437SOL     OW18207   6.022   5.059   8.854
 5437SOL    HW118208   6.070   5.046   8.772
 5437SOL    HW218209   5.995   5.151   8.851
 5438SOL     OW18210   5.276   9.757   0.500
 5438SOL    HW118211   5.331   9.781   0.425
 5438SOL    HW218212   5.320   9.796   0.575
 5439SOL     OW18213  10.250  10.877  13.390
 5439SOL    HW118214  10.264  10.839  13.476
 5439SOL    HW218215  10.157  10.865  13.373
 5440SOL     OW18216   5.382   5.800   2.216
 5440SOL    HW118217   5.410   5.808   2.124
 5440SOL    HW218218   5.447   5.743   2.256
 5441SOL     OW18219  14.772   6.155  11.233
 5441SOL    HW118220  14.815   6.203  11.304
 5441SOL    HW218221  14.723   6.086  11.278
 5442SOL     OW18222   0.557   2.374   7.447
 5442SOL    HW118223   0.491   2.360   7.380
 5442SOL    HW218224   0.540   2.306   7.512
 5443SOL     OW18225  10.995   1.146   6.742
 5443SOL    HW118226  10.930   1.213   6.763
 5443SOL    HW218227  10.962   1.104   6.663
 5444SOL     OW18228  12.788  14.348   8.265
 5444SOL    HW118229  12.726  14.311   8.202
 5444SOL    HW218230  12.746  14.428   8.295
 5445SOL     OW18231   6.384   4.904   1.883
 5445SOL    HW118232   6.354   4.962   1.813
 5445SOL    HW218233   6.315   4.909   1.949
 5446SOL     OW18234  13.236   2.442  14.065
 5446SOL    HW118235  13.331   2.436  14.058
 5446SOL    HW218236  13.218   2.440  14.159
 5447SOL     OW18237   4.358   1.214   4.038
 5447SOL    HW118238   4.452   1.213   4.019
 5447SOL    HW218239   4.353   1.225   4.133
 5448SOL     OW18240  10.352   9.733   8.686
 5448SOL    HW118241  10.396   9.650   8.665
 5448SOL    HW218242  10.408   9.800   8.647
 5449SOL     OW18243  12.902   0.203  10.289
 5449SOL    HW118244  12.855   0.142  10.346
 5449SOL    HW218245  12.918   0.155  10.209
 5450SOL     OW18246  12.137  11.993   6.802
 5450SOL    HW118247  12.137  11.904   6.767
 5450SOL    HW218248  12.155  11.982   6.895
 5451SOL     OW18249   9.979   4.826   3.608
 5451SOL    HW118250   9.897   4.797   3.648
 5451SOL    HW218251  10.022   4.878   3.676
 5452SOL     OW18252   0.728   2.716  11.527
 5452SOL    HW118253   0.807   2.764  11.500
 5452SOL    HW218254   0.730   2.718  11.623
 5453SOL     OW18255   0.381  10.959   7.287
 5453SOL    HW118256   0.384  10.875   7.334
 5453SOL    HW218257   0.306  11.004   7.325
 5454SOL     OW18258  14.105   8.790   6.634
 5454SOL    HW118259  14.169   8.861   6.626
 5454SOL    HW218260  14.023   8.827   6.601
 5455SOL     OW18261  10.025   5.229   2.660
 5455SOL    HW118262  10.042   5.175   2.738
 5455SOL    HW218263  10.093   5.297   2.663
 5456SOL     OW18264  11.229  10.749   6.471
 5456SOL    HW118265  11.222  10.760   6.376
 5456SOL    HW218266  11.296  10.681   6.482
 5457SOL     OW18267  13.153   6.180   5.564
 5457SOL    HW118268  13.117   6.201   5.477
 5457SOL    HW218269  13.228   6.239   5.573
 5458SOL     OW18270   1.683  13.771   3.753
 5458SOL    HW118271   1.641  13.836   3.696
 5458SOL    HW218272   1.749  13.820   3.801
 5459SOL     OW18273   2.372  13.907   7.226
 5459SOL    HW118274   2.329  13.990   7.246
 5459SOL    HW218275   2.394  13.870   7.312
 5460SOL     OW18276   1.218   8.257   6.158
 5460SOL    HW118277   1.239   8.341   6.119
 5460SOL    HW218278   1.173   8.279   6.240
 5461SOL     OW18279   8.360  12.725   0.523
 5461SOL    HW118280   8.328  12.674   0.598
 5461SOL    HW218281   8.428  12.781   0.560
 5462SOL     OW18282   2.156   4.577   8.446
 5462SOL    HW118283   2.229   4.590   8.507
 5462SOL    HW218284   2.192   4.598   8.360
 5463SOL     OW18285  12.354   6.095   1.624
 5463SOL    HW118286  12.340   6.127   1.535
 5463SOL    HW218287  12.449   6.084   1.631
 5464SOL     OW18288   3.735   5.556   8.917
 5464SOL    HW118289   3.694   5.477   8.882
 5464SOL    HW218290   3.772   5.599   8.840
 5465SOL     OW18291   5.421   6.957   3.684
 5465SOL    HW118292   5.354   6.900   3.646
 5465SOL    HW218293   5.447   6.913   3.765
 5466SOL     OW18294   4.664   0.225   0.036
 5466SOL    HW118295   4.612   0.147   0.053
 5466SOL    HW218296   4.746   0.191  14.870
 5467SOL     OW18297   4.318   1.153   0.220
 5467SOL    HW118298   4.347   1.113   0.303
 5467SOL    HW218299   4.232   1.189   0.240
 5468SOL     OW18300   9.592   2.451   0.489
 5468SOL    HW118301   9.630   2.365   0.467
 5468SOL    HW218302   9.623   2.509   0.420
 5469SOL     OW18303  10.484  14.862   8.844
 5469SOL    HW118304  10.451   0.076   8.871
 5469SOL    HW218305  10.412  14.822   8.797
 5470SOL     OW18306   5.472  12.276  12.761
 5470SOL    HW118307   5.521  12.224  12.824
 5470SOL    HW218308   5.380  12.258  12.781
 5471SOL     OW18309   4.290   9.527   9.063
 5471SOL    HW118310   4.227   9.462   9.095
 5471SOL    HW218311   4.310   9.498   8.974
 5472SOL     OW18312   7.445   2.663  11.901
 5472SOL    HW118313   7.455   2.605  11.825
 5472SOL    HW218314   7.462   2.750  11.866
 5473SOL     OW18315  10.412  10.814   3.026
 5473SOL    HW118316  10.368  10.838   3.107
 5473SOL    HW218317  10.504  10.837   3.041
 5474SOL     OW18318   6.678   9.125   1.329
 5474SOL    HW118319   6.611   9.065   1.363
 5474SOL    HW218320   6.633   9.208   1.318
 5475SOL     OW18321  11.970  12.392   7.025
 5475SOL    HW118322  11.921  12.319   6.987
 5475SOL    HW218323  11.917  12.469   7.004
 5476SOL     OW18324   1.856   3.473   0.613
 5476SOL    HW118325   1.779   3.429   0.576
 5476SOL    HW218326   1.929   3.436   0.564
 5477SOL     OW18327  12.267   4.163   0.008
 5477SOL    HW118328  12.198   4.106   0.044
 5477SOL    HW218329  12.221   4.243  14.855
 5478SOL     OW18330   0.636   6.351  10.743
 5478SOL    HW118331   0.553   6.388  10.715
 5478SOL    HW218332   0.638   6.365  10.838
 5479SOL     OW18333  12.010   0.897   8.040
 5479SOL    HW118334  12.085   0.932   8.087
 5479SOL    HW218335  12.019   0.802   8.048
 5480SOL     OW18336   1.213   0.414  11.935
 5480SOL    HW118337   1.231   0.471  12.010
 5480SOL    HW218338   1.189   0.473  11.864
 5481SOL     OW18339   6.311  11.381   8.540
 5481SOL    HW118340   6.359  11.359   8.461
 5481SOL    HW218341   6.278  11.297   8.573
 5482SOL     OW18342   8.059   3.039  14.745
 5482SOL    HW118343   8.108   2.958  14.729
 5482SOL    HW218344   7.983   3.011  14.796
 5483SOL     OW18345   4.631   9.269   0.689
 5483SOL    HW118346   4.587   9.269   0.774
 5483SOL    HW218347   4.677   9.353   0.686
 5484SOL     OW18348  12.429   4.454   3.056
 5484SOL    HW118349  12.524   4.447   3.043
 5484SOL    HW218350  12.408   4.383   3.117
 5485SOL     OW18351   9.509  10.720  13.080
 5485SOL    HW118352   9.428  10.683  13.115
 5485SOL    HW218353   9.552  10.646  13.037
 5486SOL     OW18354   9.309   5.206  11.511
 5486SOL    HW118355   9.243   5.228  11.445
 5486SOL    HW218356   9.390   5.246  11.479
 5487SOL     OW18357   1.903   7.122   8.035
 5487SOL    HW118358   1.851   7.065   7.979
 5487SOL    HW218359   1.942   7.186   7.975
 5488SOL     OW18360   4.738   8.689   4.987
 5488SOL    HW118361   4.702   8.771   5.023
 5488SOL    HW218362   4.780   8.715   4.906
 5489SOL     OW18363   9.219   8.628   7.677
 5489SOL    HW118364   9.252   8.699   7.733
 5489SOL    HW218365   9.271   8.635   7.597
 5490SOL     OW18366   4.135   4.773   6.067
 5490SOL    HW118367   4.128   4.802   5.976
 5490SOL    HW218368   4.228   4.759   6.081
 5491SOL     OW18369   8.578  10.876   4.245
 5491SOL    HW118370   8.539  10.871   4.157
 5491SOL    HW218371   8.621  10.791   4.257
 5492SOL     OW18372   3.286   3.105  13.197
 5492SOL    HW118373   3.330   3.034  13.244
 5492SOL    HW218374   3.248   3.159  13.266
 5493SOL     OW18375  10.917   1.079   5.236
 5493SOL    HW118376  10.950   1.078   5.326
 5493SOL    HW218377  10.823   1.067   5.244
 5494SOL     OW18378  13.190  10.996  10.961
 5494SOL    HW118379  13.241  10.973  11.039
 5494SOL    HW218380  13.101  11.008  10.993
 5495SOL     OW18381   1.247   5.653  11.341
 5495SOL    HW118382   1.250   5.719  11.271
 5495SOL    HW218383   1.163   5.609  11.328
 5496SOL     OW18384   1.372  12.162   7.482
 5496SOL    HW118385   1.354  12.221   7.555
 5496SOL    HW218386   1.398  12.080   7.523
 5497SOL     OW18387   3.357   7.231  13.789
 5497SOL    HW118388   3.329   7.293  13.857
 5497SOL    HW218389   3.411   7.284  13.730
 5498SOL     OW18390  14.511   1.536  11.922
 5498SOL    HW118391  14.470   1.558  12.006
 5498SOL    HW218392  14.501   1.615  11.869
 5499SOL     OW18393   1.077   5.001   2.388
 5499SOL    HW118394   0.999   4.990   2.441
 5499SOL    HW218395   1.121   4.916   2.392
 5500SOL     OW18396   9.169   8.269   7.323
 5500SOL    HW118397   9.119   8.188   7.319
 5500SOL    HW218398   9.191   8.280   7.415
 5501SOL     OW18399   9.529   2.788  12.593
 5501SOL    HW118400   9.512   2.711  12.647
 5501SOL    HW218401   9.557   2.752  12.509
 5502SOL     OW18402   2.572   0.726   1.008
 5502SOL    HW118403   2.578   0.809   1.056
 5502SOL    HW218404   2.517   0.671   1.063
 5503SOL     OW18405   3.258   9.670   9.177
 5503SOL    HW118406   3.329   9.618   9.139
 5503SOL    HW218407   3.263   9.754   9.131
 5504SOL     OW18408  12.088  13.896  12.219
 5504SOL    HW118409  12.007  13.872  12.263
 5504SOL    HW218410  12.110  13.820  12.165
 5505SOL     OW18411  10.053  10.826   0.898
 5505SOL    HW118412  10.103  10.802   0.976
 5505SOL    HW218413   9.996  10.751   0.882
 5506SOL     OW18414  14.288   2.307   4.096
 5506SOL    HW118415  14.329   2.314   4.182
 5506SOL    HW218416  14.196   2.292   4.115
 5507SOL     OW18417   7.718   3.194  14.646
 5507SOL    HW118418   7.632   3.228  14.621
 5507SOL    HW218419   7.745   3.138  14.573
 5508SOL     OW18420  14.780  10.966  14.386
 5508SOL    HW118421  14.723  10.898  14.350
 5508SOL    HW218422  14.858  10.965  14.330
 5509SOL     OW18423   0.913   0.466  12.082
 5509SOL    HW118424   0.855   0.541  12.066
 5509SOL    HW218425   0.988   0.504  12.127
 5510SOL     OW18426   3.960   8.699  12.569
 5510SOL    HW118427   3.945   8.713  12.476
 5510SOL    HW218428   4.054   8.714  12.580
 5511SOL     OW18429  11.568   0.603   2.202
 5511SOL    HW118430  11.630   0.534   2.178
 5511SOL    HW218431  11.601   0.637   2.285
 5512SOL     OW18432  11.312   5.037   4.589
 5512SOL    HW118433  11.358   5.004   4.666
 5512SOL    HW218434  11.308   5.132   4.602
 5513SOL     OW18435   4.960  12.769  13.223
 5513SOL    HW118436   4.954  12.685  13.177
 5513SOL    HW218437   5.052  12.777  13.247
 5514SOL     OW18438  13.910   0.828  13.156
 5514SOL    HW118439  13.918   0.841  13.062
 5514SOL    HW218440  13.967   0.895  13.194
 5515SOL     OW18441   0.581   4.349  11.454
 5515SOL    HW118442   0.671   4.325  11.436
 5515SOL    HW218443   0.584   4.394  11.538
 5516SOL     OW18444  11.811  11.310  12.444
 5516SOL    HW118445  11.765  11.237  12.486
 5516SOL    HW218446  11.879  11.267  12.392
 5517SOL     OW18447  12.882   0.078   3.352
 5517SOL    HW118448  12.859  14.858   3.368
 5517SOL    HW218449  12.978   0.077   3.345
 5518SOL     OW18450   5.166   0.489   1.153
 5518SOL    HW118451   5.147   0.487   1.247
 5518SOL    HW218452   5.092   0.444   1.113
 5519SOL     OW18453  13.274   5.646   8.318
 5519SOL    HW118454  13.244   5.562   8.286
 5519SOL    HW218455  13.309   5.691   8.241
 5520SOL     OW18456   4.613   0.674  13.778
 5520SOL    HW118457   4.691   0.714  13.816
 5520SOL    HW218458   4.605   0.716  13.692
 5521SOL     OW18459   7.514   5.123   0.889
 5521SOL    HW118460   7.543   5.048   0.941
 5521SOL    HW218461   7.569   5.120   0.811
 5522SOL     OW18462   8.504   4.669  13.836
 5522SOL    HW118463   8.561   4.604  13.796
 5522SOL    HW218464   8.469   4.626  13.914
 5523SOL     OW18465  13.179  11.786  14.590
 5523SOL    HW118466  13.125  11.857  14.626
 5523SOL    HW218467  13.221  11.748  14.667
 5524SOL     OW18468   7.414   2.079   2.295
 5524SOL    HW118469   7.340   2.031   2.333
 5524SOL    HW218470   7.378   2.165   2.273
 5525SOL     OW18471   0.294  10.529   0.892
 5525SOL    HW118472   0.348  10.450   0.884
 5525SOL    HW218473   0.225  10.518   0.827
 5526SOL     OW18474  14.410   1.972   3.711
 5526SOL    HW118475  14.484   1.987   3.653
 5526SOL    HW218476  14.335   2.010   3.665
 5527SOL     OW18477  10.661  10.469  11.999
 5527SOL    HW118478  10.570  10.499  11.992
 5527SOL    HW218479  10.695  10.513  12.077
 5528SOL     OW18480  13.103  10.522  11.431
 5528SOL    HW118481  13.146  10.514  11.516
 5528SOL    HW218482  13.136  10.447  11.381
 5529SOL     OW18483   0.879  13.747   4.336
 5529SOL    HW118484   0.824  13.705   4.402
 5529SOL    HW218485   0.825  13.819   4.303
 5530SOL     OW18486  13.544   5.289   3.811
 5530SOL    HW118487  13.612   5.352   3.835
 5530SOL    HW218488  13.529   5.238   3.891
 5531SOL     OW18489   9.560   3.479  10.978
 5531SOL    HW118490   9.559   3.541  11.050
 5531SOL    HW218491   9.496   3.412  11.002
 5532SOL     OW18492   9.397   4.110   3.842
 5532SOL    HW118493   9.367   4.052   3.772
 5532SOL    HW218494   9.331   4.100   3.910
 5533SOL     OW18495   9.369  10.509   4.905
 5533SOL    HW118496   9.417  10.448   4.961
 5533SOL    HW218497   9.389  10.482   4.816
 5534SOL     OW18498  10.613  12.056  14.705
 5534SOL    HW118499  10.676  12.121  14.675
 5534SOL    HW218500  10.664  11.975  14.712
 5535SOL     OW18501  10.653   8.399  12.834
 5535SOL    HW118502  10.723   8.387  12.898
 5535SOL    HW218503  10.691   8.370  12.751
 5536SOL     OW18504   7.020   9.344  13.423
 5536SOL    HW118505   7.109   9.324  13.394
 5536SOL    HW218506   7.024   9.342  13.519
 5537SOL     OW18507  10.595   4.625  10.210
 5537SOL    HW118508  10.683   4.612  10.176
 5537SOL    HW218509  10.586   4.560  10.280
 5538SOL     OW18510   8.565   3.121  11.448
 5538SOL    HW118511   8.516   3.195  11.413
 5538SOL    HW218512   8.650   3.126  11.404
 5539SOL     OW18513   3.036   1.618   3.543
 5539SOL    HW118514   2.967   1.668   3.499
 5539SOL    HW218515   3.106   1.612   3.478
 5540SOL     OW18516   1.426   6.357   0.214
 5540SOL    HW118517   1.427   6.395   0.302
 5540SOL    HW218518   1.513   6.377   0.179
 5541SOL     OW18519   0.407  11.324  11.521
 5541SOL    HW118520   0.372  11.269  11.451
 5541SOL    HW218521   0.388  11.276  11.601
 5542SOL     OW18522  12.650   4.066   4.676
 5542SOL    HW118523  12.739   4.054   4.644
 5542SOL    HW218524  12.641   4.000   4.746
 5543SOL     OW18525   1.859  12.433   6.053
 5543SOL    HW118526   1.927  12.492   6.021
 5543SOL    HW218527   1.781  12.488   6.061
 5544SOL     OW18528   7.281   7.579   4.953
 5544SOL    HW118529   7.333   7.562   4.875
 5544SOL    HW218530   7.206   7.629   4.922
 5545SOL     OW18531   2.184  13.727   0.841
 5545SOL    HW118532   2.246  13.656   0.856
 5545SOL    HW218533   2.098  13.684   0.841
 5546SOL     OW18534   1.827   3.170   8.254
 5546SOL    HW118535   1.785   3.247   8.292
 5546SOL    HW218536   1.853   3.198   8.166
 5547SOL     OW18537  11.140   4.067   8.032
 5547SOL    HW118538  11.191   4.126   7.977
 5547SOL    HW218539  11.056   4.112   8.044
 5548SOL     OW18540  12.031  13.626   8.600
 5548SOL    HW118541  12.049  13.679   8.678
 5548SOL    HW218542  11.969  13.560   8.631
 5549SOL     OW18543   1.478  13.599  10.450
 5549SOL    HW118544   1.502  13.685  10.415
 5549SOL    HW218545   1.413  13.565  10.389
 5550SOL     OW18546   2.477   8.825   4.247
 5550SOL    HW118547   2.423   8.779   4.183
 5550SOL    HW218548   2.552   8.857   4.197
 5551SOL     OW18549   0.572   2.050   1.461
 5551SOL    HW118550   0.529   2.027   1.543
 5551SOL    HW218551   0.527   1.998   1.394
 5552SOL     OW18552   2.636   5.024   4.319
 5552SOL    HW118553   2.618   4.999   4.410
 5552SOL    HW218554   2.598   4.952   4.267
 5553SOL     OW18555   7.791   9.879   5.041
 5553SOL    HW118556   7.866   9.898   5.098
 5553SOL    HW218557   7.755   9.797   5.075
 5554SOL     OW18558   8.963   5.557  11.922
 5554SOL    HW118559   9.041   5.503  11.908
 5554SOL    HW218560   8.893   5.494  11.939
 5555SOL     OW18561  12.575   5.080   7.704
 5555SOL    HW118562  12.522   5.007   7.735
 5555SOL    HW218563  12.666   5.050   7.715
 5556SOL     OW18564   8.243   9.040   2.182
 5556SOL    HW118565   8.219   8.950   2.206
 5556SOL    HW218566   8.323   9.030   2.131
 5557SOL     OW18567  10.521   1.554   9.902
 5557SOL    HW118568  10.576   1.557   9.981
 5557SOL    HW218569  10.434   1.533   9.934
 5558SOL     OW18570   5.431   5.176  10.254
 5558SOL    HW118571   5.412   5.218  10.337
 5558SOL    HW218572   5.477   5.096  10.277
 5559SOL     OW18573   5.289   3.337  11.846
 5559SOL    HW118574   5.365   3.315  11.791
 5559SOL    HW218575   5.283   3.432  11.841
 5560SOL     OW18576  12.999   9.922  13.948
 5560SOL    HW118577  13.076   9.946  14.000
 5560SOL    HW218578  12.924   9.939  14.006
 5561SOL     OW18579   2.964  11.059   7.647
 5561SOL    HW118580   2.935  11.132   7.594
 5561SOL    HW218581   3.037  11.021   7.598
 5562SOL     OW18582   1.443  10.467  10.280
 5562SOL    HW118583   1.361  10.510  10.254
 5562SOL    HW218584   1.503  10.540  10.296
 5563SOL     OW18585  14.175   9.804   6.902
 5563SOL    HW118586  14.196   9.728   6.847
 5563SOL    HW218587  14.245   9.807   6.967
 5564SOL     OW18588  14.552   9.489  13.132
 5564SOL    HW118589  14.595   9.466  13.049
 5564SOL    HW218590  14.498   9.565  13.110
 5565SOL     OW18591   1.943   3.886  12.654
 5565SOL    HW118592   2.019   3.832  12.632
 5565SOL    HW218593   1.946   3.894  12.749
 5566SOL     OW18594   7.788   2.880   2.132
 5566SOL    HW118595   7.718   2.837   2.082
 5566SOL    HW218596   7.800   2.964   2.088
 5567SOL     OW18597   2.505   3.379   7.825
 5567SOL    HW118598   2.535   3.416   7.908
 5567SOL    HW218599   2.411   3.366   7.838
 5568SOL     OW18600   5.388  14.180   0.754
 5568SOL    HW118601   5.483  14.169   0.745
 5568SOL    HW218602   5.352  14.095   0.730
 5569SOL     OW18603   9.470   4.641   1.913
 5569SOL    HW118604   9.412   4.684   1.851
 5569SOL    HW218605   9.457   4.548   1.898
 5570SOL     OW18606   3.105  10.179   2.713
 5570SOL    HW118607   3.034  10.127   2.675
 5570SOL    HW218608   3.091  10.171   2.808
 5571SOL     OW18609   8.072   7.778   4.568
 5571SOL    HW118610   8.041   7.866   4.587
 5571SOL    HW218611   8.018   7.721   4.623
 5572SOL     OW18612   5.200   8.631   4.614
 5572SOL    HW118613   5.242   8.705   4.569
 5572SOL    HW218614   5.117   8.619   4.567
 5573SOL     OW18615   8.211   9.389   6.936
 5573SOL    HW118616   8.173   9.376   6.850
 5573SOL    HW218617   8.140   9.427   6.989
 5574SOL     OW18618  10.871  13.963   2.416
 5574SOL    HW118619  10.837  13.923   2.496
 5574SOL    HW218620  10.805  14.028   2.391
 5575SOL     OW18621  10.278  11.125   8.087
 5575SOL    HW118622  10.188  11.159   8.088
 5575SOL    HW218623  10.285  11.079   8.004
 5576SOL     OW18624   8.675   5.545  13.823
 5576SOL    HW118625   8.650   5.601  13.749
 5576SOL    HW218626   8.758   5.506  13.797
 5577SOL     OW18627   0.235   0.455   3.990
 5577SOL    HW118628   0.263   0.416   4.073
 5577SOL    HW218629   0.240   0.549   4.004
 5578SOL     OW18630  13.439   8.845   2.869
 5578SOL    HW118631  13.532   8.840   2.889
 5578SOL    HW218632  13.398   8.781   2.926
 5579SOL     OW18633  13.072   4.910  10.244
 5579SOL    HW118634  13.009   4.956  10.300
 5579SOL    HW218635  13.136   4.977  10.221
 5580SOL     OW18636  10.669   5.024  14.626
 5580SOL    HW118637  10.666   4.953  14.561
 5580SOL    HW218638  10.650   5.103  14.576
 5581SOL     OW18639   8.138  11.033   4.231
 5581SOL    HW118640   8.061  11.043   4.286
 5581SOL    HW218641   8.182  10.954   4.265
 5582SOL     OW18642  14.356   3.953  13.218
 5582SOL    HW118643  14.423   3.934  13.153
 5582SOL    HW218644  14.276   3.914  13.181
 5583SOL     OW18645   0.504   8.109   9.709
 5583SOL    HW118646   0.524   8.016   9.696
 5583SOL    HW218647   0.520   8.123   9.802
 5584SOL     OW18648   1.155   0.544   8.776
 5584SOL    HW118649   1.209   0.615   8.743
 5584SOL    HW218650   1.097   0.521   8.704
 5585SOL     OW18651   3.558   6.294   1.716
 5585SOL    HW118652   3.527   6.271   1.628
 5585SOL    HW218653   3.653   6.298   1.707
 5586SOL     OW18654   4.236   1.986   4.324
 5586SOL    HW118655   4.218   2.074   4.356
 5586SOL    HW218656   4.322   1.964   4.361
 5587SOL     OW18657  10.154   2.701  12.635
 5587SOL    HW118658  10.145   2.742  12.720
 5587SOL    HW218659  10.065   2.695  12.601
 5588SOL     OW18660   6.726   8.256   5.339
 5588SOL    HW118661   6.805   8.239   5.286
 5588SOL    HW218662   6.751   8.233   5.428
 5589SOL     OW18663  13.984  13.114  12.318
 5589SOL    HW118664  13.923  13.187  12.328
 5589SOL    HW218665  14.068  13.148  12.349
 5590SOL     OW18666   8.165   0.950   2.337
 5590SOL    HW118667   8.177   1.035   2.381
 5590SOL    HW218668   8.218   0.957   2.258
 5591SOL     OW18669  12.631  11.293  14.346
 5591SOL    HW118670  12.632  11.243  14.428
 5591SOL    HW218671  12.539  11.297  14.322
 5592SOL     OW18672  10.623  13.765   7.862
 5592SOL    HW118673  10.562  13.754   7.790
 5592SOL    HW218674  10.595  13.702   7.928
 5593SOL     OW18675  14.572   4.492   5.320
 5593SOL    HW118676  14.538   4.578   5.346
 5593SOL    HW218677  14.541   4.481   5.230
 5594SOL     OW18678  10.311   2.230   9.213
 5594SOL    HW118679  10.380   2.263   9.156
 5594SOL    HW218680  10.353   2.162   9.265
 5595SOL     OW18681  14.393   9.442   8.637
 5595SOL    HW118682  14.329   9.456   8.707
 5595SOL    HW218683  14.401   9.347   8.630
 5596SOL     OW18684   9.866  12.690   6.488
 5596SOL    HW118685   9.924  12.615   6.507
 5596SOL    HW218686   9.805  12.657   6.422
 5597SOL     OW18687   7.538  13.401   1.067
 5597SOL    HW118688   7.602  13.438   1.008
 5597SOL    HW218689   7.558  13.307   1.069
 5598SOL     OW18690   3.971   3.788  12.196
 5598SOL    HW118691   3.881   3.757  12.184
 5598SOL    HW218692   3.961   3.882  12.212
 5599SOL     OW18693  12.596  12.094  14.143
 5599SOL    HW118694  12.608  12.059  14.231
 5599SOL    HW218695  12.607  12.018  14.085
 5600SOL     OW18696   8.829  11.971   9.021
 5600SOL    HW118697   8.801  12.013   8.939
 5600SOL    HW218698   8.847  11.880   8.996
 5601SOL     OW18699  13.969  13.022  11.320
 5601SOL    HW118700  13.873  13.021  11.318
 5601SOL    HW218701  13.991  13.047  11.410
 5602SOL     OW18702  10.006  14.026   3.852
 5602SOL    HW118703  10.019  13.945   3.803
 5602SOL    HW218704  10.022  14.095   3.788
 5603SOL     OW18705  14.198  13.875   1.327
 5603SOL    HW118706  14.217  13.827   1.247
 5603SOL    HW218707  14.284  13.900   1.361
 5604SOL     OW18708   6.945   1.333   7.360
 5604SOL    HW118709   7.008   1.351   7.291
 5604SOL    HW218710   6.890   1.262   7.325
 5605SOL     OW18711   7.977   9.842   5.814
 5605SOL    HW118712   7.975   9.746   5.808
 5605SOL    HW218713   7.894   9.864   5.856
 5606SOL     OW18714   4.892   7.755   4.474
 5606SOL    HW118715   4.912   7.844   4.447
 5606SOL    HW218716   4.958   7.701   4.430
 5607SOL     OW18717   4.368  13.873   8.431
 5607SOL    HW118718   4.289  13.869   8.377
 5607SOL    HW218719   4.340  13.914   8.512
 5608SOL     OW18720  11.091  10.510   4.984
 5608SOL    HW118721  11.067  10.472   4.899
 5608SOL    HW218722  11.008  10.537   5.023
 5609SOL     OW18723  11.861   2.589   2.070
 5609SOL    HW118724  11.921   2.637   2.013
 5609SOL    HW218725  11.774   2.615   2.039
 5610SOL     OW18726   1.248  13.616   9.393
 5610SOL    HW118727   1.159  13.622   9.428
 5610SOL    HW218728   1.270  13.705   9.367
 5611SOL     OW18729  14.396  13.567   9.001
 5611SOL    HW118730  14.368  13.585   8.911
 5611SOL    HW218731  14.369  13.477   9.018
 5612SOL     OW18732   3.610  13.120  11.579
 5612SOL    HW118733   3.612  13.179  11.503
 5612SOL    HW218734   3.520  13.088  11.581
 5613SOL     OW18735   3.398   9.303   4.386
 5613SOL    HW118736   3.380   9.242   4.458
 5613SOL    HW218737   3.444   9.376   4.428
 5614SOL     OW18738   1.518   9.752   6.509
 5614SOL    HW118739   1.467   9.673   6.527
 5614SOL    HW218740   1.528   9.755   6.414
 5615SOL     OW18741   5.584   5.058   1.744
 5615SOL    HW118742   5.605   5.049   1.837
 5615SOL    HW218743   5.668   5.051   1.699
 5616SOL     OW18744   4.687  13.526   0.484
 5616SOL    HW118745   4.671  13.614   0.451
 5616SOL    HW218746   4.621  13.472   0.440
 5617SOL     OW18747   2.985   3.340   9.421
 5617SOL    HW118748   2.902   3.350   9.468
 5617SOL    HW218749   2.984   3.410   9.356
 5618SOL     OW18750   0.626  10.555   9.276
 5618SOL    HW118751   0.666  10.563   9.363
 5618SOL    HW218752   0.650  10.467   9.247
 5619SOL     OW18753   4.840   4.610   5.752
 5619SOL    HW118754   4.874   4.697   5.734
 5619SOL    HW218755   4.816   4.575   5.665
 5620SOL     OW18756   5.197  13.550  11.780
 5620SOL    HW118757   5.150  13.556  11.697
 5620SOL    HW218758   5.129  13.565  11.847
 5621SOL     OW18759   5.711  13.846   7.053
 5621SOL    HW118760   5.773  13.845   7.126
 5621SOL    HW218761   5.627  13.820   7.093
 5622SOL     OW18762  11.570   0.506   4.829
 5622SOL    HW118763  11.528   0.420   4.829
 5622SOL    HW218764  11.518   0.558   4.768
 5623SOL     OW18765   5.867   9.755   3.077
 5623SOL    HW118766   5.957   9.723   3.075
 5623SOL    HW218767   5.855   9.790   3.165
 5624SOL     OW18768   6.329   9.318  14.341
 5624SOL    HW118769   6.340   9.339  14.248
 5624SOL    HW218770   6.338   9.222  14.344
 5625SOL     OW18771   8.664   8.882  12.072
 5625SOL    HW118772   8.584   8.908  12.026
 5625SOL    HW218773   8.701   8.964  12.104
 5626SOL     OW18774  11.917   3.395   1.628
 5626SOL    HW118775  11.830   3.386   1.667
 5626SOL    HW218776  11.915   3.480   1.584
 5627SOL     OW18777   5.769   0.038   7.612
 5627SOL    HW118778   5.797  14.828   7.654
 5627SOL    HW218779   5.697   0.070   7.667
 5628SOL     OW18780   4.262  10.248   0.253
 5628SOL    HW118781   4.298  10.161   0.236
 5628SOL    HW218782   4.252  10.287   0.166
 5629SOL     OW18783   4.438   5.108   6.855
 5629SOL    HW118784   4.521   5.129   6.897
 5629SOL    HW218785   4.375   5.168   6.895
 5630SOL     OW18786   3.680  13.723   3.706
 5630SOL    HW118787   3.773  13.743   3.698
 5630SOL    HW218788   3.674  13.629   3.691
 5631SOL     OW18789  11.652  11.942   8.596
 5631SOL    HW118790  11.649  12.038   8.607
 5631SOL    HW218791  11.579  11.923   8.537
 5632SOL     OW18792   9.385   7.165   2.266
 5632SOL    HW118793   9.428   7.087   2.301
 5632SOL    HW218794   9.308   7.130   2.220
 5633SOL     OW18795   2.448  10.531   2.311
 5633SOL    HW118796   2.496  10.612   2.330
 5633SOL    HW218797   2.511  10.476   2.265
 5634SOL     OW18798   9.823   3.804  12.281
 5634SOL    HW118799   9.879   3.744  12.329
 5634SOL    HW218800   9.844   3.788  12.189
 5635SOL     OW18801   6.755  13.464   4.221
 5635SOL    HW118802   6.765  13.556   4.197
 5635SOL    HW218803   6.845  13.431   4.228
 5636SOL     OW18804  10.208  11.040   9.979
 5636SOL    HW118805  10.237  11.023  10.069
 5636SOL    HW218806  10.144  11.111   9.987
 5637SOL     OW18807   8.972   8.320   8.387
 5637SOL    HW118808   9.020   8.330   8.305
 5637SOL    HW218809   8.880   8.322   8.362
 5638SOL     OW18810  12.767   4.953   3.026
 5638SOL    HW118811  12.697   4.908   3.072
 5638SOL    HW218812  12.722   5.017   2.970
 5639SOL     OW18813  10.528  12.063  10.374
 5639SOL    HW118814  10.437  12.036  10.388
 5639SOL    HW218815  10.570  12.050  10.459
 5640SOL     OW18816  12.448   8.296  12.512
 5640SOL    HW118817  12.439   8.341  12.428
 5640SOL    HW218818  12.455   8.203  12.489
 5641SOL     OW18819   3.580   0.168   2.386
 5641SOL    HW118820   3.522   0.233   2.425
 5641SOL    HW218821   3.617   0.121   2.460
 5642SOL     OW18822  11.433   2.192  11.736
 5642SOL    HW118823  11.385   2.271  11.714
 5642SOL    HW218824  11.379   2.148  11.802
 5643SOL     OW18825   2.672   8.109  14.363
 5643SOL    HW118826   2.629   8.042  14.310
 5643SOL    HW218827   2.751   8.132  14.314
 5644SOL     OW18828  13.302   8.158   4.738
 5644SOL    HW118829  13.279   8.218   4.668
 5644SOL    HW218830  13.238   8.087   4.731
 5645SOL     OW18831   8.982   5.237  12.214
 5645SOL    HW118832   8.968   5.182  12.291
 5645SOL    HW218833   8.985   5.176  12.141
 5646SOL     OW18834   7.908   5.494  11.022
 5646SOL    HW118835   7.969   5.554  10.978
 5646SOL    HW218836   7.885   5.540  11.103
 5647SOL     OW18837   9.019  10.591  14.481
 5647SOL    HW118838   8.984  10.581  14.569
 5647SOL    HW218839   8.947  10.628  14.430
 5648SOL     OW18840  11.510   3.275   4.443
 5648SOL    HW118841  11.574   3.306   4.507
 5648SOL    HW218842  11.500   3.182   4.461
 5649SOL     OW18843  14.118  12.647   7.803
 5649SOL    HW118844  14.114  12.599   7.720
 5649SOL    HW218845  14.200  12.618   7.843
 5650SOL     OW18846   6.413  10.486   3.905
 5650SOL    HW118847   6.487  10.433   3.878
 5650SOL    HW218848   6.450  10.571   3.928
 5651SOL     OW18849  11.291   4.534   1.605
 5651SOL    HW118850  11.371   4.483   1.600
 5651SOL    HW218851  11.320   4.625   1.616
 5652SOL     OW18852   0.207  13.849   8.235
 5652SOL    HW118853   0.284  13.828   8.288
 5652SOL    HW218854   0.201  13.945   8.239
 5653SOL     OW18855   9.561   8.956  12.357
 5653SOL    HW118856   9.570   8.872  12.312
 5653SOL    HW218857   9.480   8.948  12.407
 5654SOL     OW18858   2.392  10.614   3.622
 5654SOL    HW118859   2.386  10.542   3.560
 5654SOL    HW218860   2.455  10.675   3.582
 5655SOL     OW18861  10.492   7.970   0.294
 5655SOL    HW118862  10.515   7.877   0.288
 5655SOL    HW218863  10.469   7.995   0.204
 5656SOL     OW18864   2.667  10.079   5.664
 5656SOL    HW118865   2.652  10.058   5.757
 5656SOL    HW218866   2.731  10.150   5.666
 5657SOL     OW18867  13.916   7.641   2.305
 5657SOL    HW118868  13.994   7.688   2.276
 5657SOL    HW218869  13.949   7.575   2.366
 5658SOL     OW18870   0.019  10.082   7.505
 5658SOL    HW118871   0.047  10.024   7.577
 5658SOL    HW218872   0.098  10.097   7.454
 5659SOL     OW18873   7.080   4.437  12.306
 5659SOL    HW118874   7.006   4.439  12.367
 5659SOL    HW218875   7.149   4.487  12.349
 5660SOL     OW18876   5.382   3.939   1.496
 5660SOL    HW118877   5.334   3.949   1.578
 5660SOL    HW218878   5.473   3.958   1.519
 5661SOL     OW18879   7.705   2.387  14.052
 5661SOL    HW118880   7.616   2.397  14.018
 5661SOL    HW218881   7.695   2.328  14.127
 5662SOL     OW18882   6.167   4.818   5.276
 5662SOL    HW118883   6.148   4.856   5.190
 5662SOL    HW218884   6.104   4.746   5.284
 5663SOL     OW18885   3.545  14.716   1.951
 5663SOL    HW118886   3.534  14.787   2.015
 5663SOL    HW218887   3.634  14.728   1.918
 5664SOL     OW18888  14.862   0.639   6.598
 5664SOL    HW118889   0.020   0.610   6.512
 5664SOL    HW218890  14.850   0.558   6.648
 5665SOL     OW18891   9.456   3.956  10.193
 5665SOL    HW118892   9.406   4.036  10.177
 5665SOL    HW218893   9.515   3.949  10.118
 5666SOL     OW18894   2.743   6.116   4.757
 5666SOL    HW118895   2.807   6.055   4.794
 5666SOL    HW218896   2.661   6.068   4.757
 5667SOL     OW18897   0.792   0.357  13.352
 5667SOL    HW118898   0.877   0.380  13.389
 5667SOL    HW218899   0.795   0.389  13.262
 5668SOL     OW18900   8.323   6.333   7.975
 5668SOL    HW118901   8.292   6.308   7.888
 5668SOL    HW218902   8.394   6.271   7.993
 5669SOL     OW18903   3.418   8.669  13.937
 5669SOL    HW118904   3.425   8.732  14.009
 5669SOL    HW218905   3.324   8.660  13.923
 5670SOL     OW18906   3.252  11.310  11.647
 5670SOL    HW118907   3.189  11.367  11.691
 5670SOL    HW218908   3.330  11.314  11.701
 5671SOL     OW18909   2.757   5.732  12.399
 5671SOL    HW118910   2.782   5.649  12.439
 5671SOL    HW218911   2.735   5.788  12.473
 5672SOL     OW18912   6.805  14.140   9.731
 5672SOL    HW118913   6.713  14.115   9.741
 5672SOL    HW218914   6.844  14.070   9.680
 5673SOL     OW18915  12.140   1.094   9.170
 5673SOL    HW118916  12.162   1.147   9.094
 5673SOL    HW218917  12.111   1.010   9.134
 5674SOL     OW18918   2.853  12.727  12.168
 5674SOL    HW118919   2.824  12.637  12.153
 5674SOL    HW218920   2.796  12.759  12.238
 5675SOL     OW18921   4.101   4.729   2.964
 5675SOL    HW118922   4.016   4.708   2.926
 5675SOL    HW218923   4.115   4.821   2.944
 5676SOL     OW18924   1.442   4.081   9.516
 5676SOL    HW118925   1.398   4.009   9.471
 5676SOL    HW218926   1.375   4.149   9.523
 5677SOL     OW18927   2.028   5.411   2.888
 5677SOL    HW118928   2.116   5.394   2.854
 5677SOL    HW218929   1.992   5.324   2.905
 5678SOL     OW18930  11.843   1.305   9.895
 5678SOL    HW118931  11.870   1.214   9.882
 5678SOL    HW218932  11.753   1.308   9.862
 5679SOL     OW18933  13.831   1.881  10.724
 5679SOL    HW118934  13.881   1.894  10.643
 5679SOL    HW218935  13.803   1.790  10.720
 5680SOL     OW18936  14.644  12.002   9.679
 5680SOL    HW118937  14.669  11.990   9.771
 5680SOL    HW218938  14.690  11.932   9.633
 5681SOL     OW18939   6.948   3.697   6.608
 5681SOL    HW118940   6.886   3.746   6.663
 5681SOL    HW218941   6.982   3.628   6.666
 5682SOL     OW18942   7.695  13.905   3.409
 5682SOL    HW118943   7.731  13.957   3.338
 5682SOL    HW218944   7.616  13.865   3.372
 5683SOL     OW18945   1.293   1.479   8.652
 5683SOL    HW118946   1.350   1.403   8.655
 5683SOL    HW218947   1.283   1.498   8.559
 5684SOL     OW18948   8.931   2.040   8.394
 5684SOL    HW118949   9.007   2.032   8.451
 5684SOL    HW218950   8.877   2.108   8.434
 5685SOL     OW18951   1.863   4.095  14.377
 5685SOL    HW118952   1.927   4.164  14.396
 5685SOL    HW218953   1.889   4.062  14.291
 5686SOL     OW18954   2.220   9.666   3.344
 5686SOL    HW118955   2.139   9.634   3.382
 5686SOL    HW218956   2.284   9.596   3.360
 5687SOL     OW18957  10.860  14.865   5.020
 5687SOL    HW118958  10.866  14.771   5.005
 5687SOL    HW218959  10.772   0.007   5.055
 5688SOL     OW18960   5.143   4.408   8.026
 5688SOL    HW118961   5.148   4.491   8.074
 5688SOL    HW218962   5.213   4.414   7.961
 5689SOL     OW18963   1.305   8.724  11.840
 5689SOL    HW118964   1.236   8.714  11.905
 5689SOL    HW218965   1.368   8.783  11.881
 5690SOL     OW18966  11.719   2.636   5.679
 5690SOL    HW118967  11.723   2.614   5.773
 5690SOL    HW218968  11.665   2.715   5.676
 5691SOL     OW18969   2.726   8.652  10.750
 5691SOL    HW118970   2.657   8.711  10.719
 5691SOL    HW218971   2.680   8.570  10.770
 5692SOL     OW18972  14.210   6.263   7.846
 5692SOL    HW118973  14.278   6.196   7.856
 5692SOL    HW218974  14.257   6.346   7.854
 5693SOL     OW18975   7.169  12.633   6.587
 5693SOL    HW118976   7.106  12.617   6.516
 5693SOL    HW218977   7.219  12.552   6.593
 5694SOL     OW18978  12.015  12.812   8.138
 5694SOL    HW118979  12.006  12.801   8.043
 5694SOL    HW218980  12.106  12.837   8.151
 5695SOL     OW18981   0.902   7.454   0.406
 5695SOL    HW118982   0.851   7.379   0.375
 5695SOL    HW218983   0.837   7.516   0.439
 5696SOL     OW18984   2.968  12.012  14.333
 5696SOL    HW118985   3.004  11.928  14.364
 5696SOL    HW218986   2.977  12.071  14.408
 5697SOL     OW18987   9.832  10.518  11.705
 5697SOL    HW118988   9.918  10.560  11.711
 5697SOL    HW218989   9.849  10.435  11.662
 5698SOL     OW18990   1.140   3.165  14.041
 5698SOL    HW118991   1.179   3.124  14.118
 5698SOL    HW218992   1.151   3.101  13.971
 5699SOL     OW18993  10.835   3.906   5.345
 5699SOL    HW118994  10.909   3.947   5.301
 5699SOL    HW218995  10.799   3.975   5.401
 5700SOL     OW18996   8.682   3.420  10.315
 5700SOL    HW118997   8.705   3.427  10.223
 5700SOL    HW218998   8.764   3.396  10.358
 5701SOL     OW18999   5.218   7.090   3.064
 5701SOL    HW119000   5.251   7.175   3.092
 5701SOL    HW219001   5.141   7.110   3.011
 5702SOL     OW19002  13.033  13.559   5.767
 5702SOL    HW119003  13.046  13.586   5.858
 5702SOL    HW219004  12.940  13.536   5.762
 5703SOL     OW19005  14.528  14.479  14.184
 5703SOL    HW119006  14.449  14.528  14.207
 5703SOL    HW219007  14.592  14.546  14.160
 5704SOL     OW19008   7.906  10.078  12.711
 5704SOL    HW119009   7.939  10.138  12.778
 5704SOL    HW219010   7.919   9.991  12.748
 5705SOL     OW19011   7.783   8.366  11.517
 5705SOL    HW119012   7.703   8.332  11.557
 5705SOL    HW219013   7.852   8.347  11.580
 5706SOL     OW19014   6.150   5.807   0.297
 5706SOL    HW119015   6.108   5.822   0.212
 5706SOL    HW219016   6.207   5.883   0.310
 5707SOL     OW19017   4.883  11.056   2.379
 5707SOL    HW119018   4.954  11.071   2.442
 5707SOL    HW219019   4.807  11.098   2.418
 5708SOL     OW19020  10.745   2.722   6.942
 5708SOL    HW119021  10.726   2.807   6.983
 5708SOL    HW219022  10.694   2.723   6.861
 5709SOL     OW19023   1.938   0.151   6.762
 5709SOL    HW119024   1.955   0.079   6.702
 5709SOL    HW219025   1.857   0.127   6.807
 5710SOL     OW19026   8.618  13.328   4.991
 5710SOL    HW119027   8.702  13.359   4.959
 5710SOL    HW219028   8.596  13.387   5.064
 5711SOL     OW19029   6.742   5.284   5.808
 5711SOL    HW119030   6.717   5.199   5.772
 5711SOL    HW219031   6.659   5.329   5.823
 5712SOL     OW19032   2.306  10.104   8.395
 5712SOL    HW119033   2.387  10.072   8.356
 5712SOL    HW219034   2.237  10.047   8.360
 5713SOL     OW19035   7.334  13.898   5.418
 5713SOL    HW119036   7.384  13.966   5.375
 5713SOL    HW219037   7.313  13.935   5.504
 5714SOL     OW19038   8.840   7.787   5.844
 5714SOL    HW119039   8.780   7.811   5.914
 5714SOL    HW219040   8.789   7.796   5.764
 5715SOL     OW19041   4.564  10.092  12.325
 5715SOL    HW119042   4.635  10.036  12.295
 5715SOL    HW219043   4.607  10.170  12.358
 5716SOL     OW19044  14.422   8.854   2.839
 5716SOL    HW119045  14.342   8.855   2.891
 5716SOL    HW219046  14.473   8.781   2.874
 5717SOL     OW19047  12.887   5.660  10.534
 5717SOL    HW119048  12.824   5.683  10.465
 5717SOL    HW219049  12.833   5.646  10.612
 5718SOL     OW19050   1.036   8.530   0.548
 5718SOL    HW119051   1.122   8.501   0.519
 5718SOL    HW219052   1.045   8.541   0.642
 5719SOL     OW19053  11.582  14.653   5.201
 5719SOL    HW119054  11.577  14.695   5.287
 5719SOL    HW219055  11.526  14.707   5.145
 5720SOL     OW19056   9.502   9.814  11.088
 5720SOL    HW119057   9.534   9.836  11.175
 5720SOL    HW219058   9.483   9.720  11.092
 5721SOL     OW19059  13.008   9.020   5.297
 5721SOL    HW119060  13.025   8.936   5.254
 5721SOL    HW219061  12.914   9.018   5.317
 5722SOL     OW19062  11.579  12.776   7.680
 5722SOL    HW119063  11.635  12.798   7.605
 5722SOL    HW219064  11.525  12.704   7.648
 5723SOL     OW19065   5.194   9.177   8.453
 5723SOL    HW119066   5.272   9.121   8.455
 5723SOL    HW219067   5.223   9.256   8.408
 5724SOL     OW19068   3.856  14.835   5.309
 5724SOL    HW119069   3.842   0.055   5.334
 5724SOL    HW219070   3.849  14.786   5.391
 5725SOL     OW19071  13.970   0.409   6.212
 5725SOL    HW119072  13.883   0.434   6.245
 5725SOL    HW219073  13.985   0.322   6.249
 5726SOL     OW19074   7.918  12.887  14.084
 5726SOL    HW119075   7.938  12.796  14.064
 5726SOL    HW219076   7.918  12.892  14.179
 5727SOL     OW19077  12.677  14.034   0.317
 5727SOL    HW119078  12.723  13.970   0.262
 5727SOL    HW219079  12.643  14.099   0.255
 5728SOL     OW19080  10.133  11.796   1.120
 5728SOL    HW119081  10.096  11.726   1.174
 5728SOL    HW219082  10.078  11.872   1.138
 5729SOL     OW19083  11.364   8.377   6.685
 5729SOL    HW119084  11.433   8.389   6.750
 5729SOL    HW219085  11.393   8.428   6.610
 5730SOL     OW19086   7.168   4.198   2.276
 5730SOL    HW119087   7.073   4.198   2.289
 5730SOL    HW219088   7.204   4.223   2.361
 5731SOL     OW19089   5.039  12.025   8.479
 5731SOL    HW119090   4.992  12.046   8.399
 5731SOL    HW219091   4.973  11.984   8.536
 5732SOL     OW19092   5.185  11.934  13.339
 5732SOL    HW119093   5.255  11.880  13.302
 5732SOL    HW219094   5.111  11.874  13.348
 5733SOL     OW19095   8.653   2.270   6.566
 5733SOL    HW119096   8.567   2.242   6.534
 5733SOL    HW219097   8.713   2.244   6.497
 5734SOL     OW19098  12.572   4.158  14.070
 5734SOL    HW119099  12.515   4.173  14.146
 5734SOL    HW219100  12.526   4.198  13.997
 5735SOL     OW19101   8.937   3.917  12.131
 5735SOL    HW119102   9.000   3.851  12.103
 5735SOL    HW219103   8.942   3.985  12.065
 5736SOL     OW19104   0.299  10.101   1.369
 5736SOL    HW119105   0.366  10.121   1.435
 5736SOL    HW219106   0.300  10.005   1.363
 5737SOL     OW19107  11.201   9.994   8.534
 5737SOL    HW119108  11.173   9.938   8.462
 5737SOL    HW219109  11.297   9.985   8.536
 5738SOL     OW19110  12.599   7.032   8.894
 5738SOL    HW119111  12.671   7.044   8.956
 5738SOL    HW219112  12.601   6.939   8.872
 5739SOL     OW19113  13.744   6.507  14.079
 5739SOL    HW119114  13.835   6.486  14.100
 5739SOL    HW219115  13.715   6.566  14.149
 5740SOL     OW19116  11.374  13.560  14.509
 5740SOL    HW119117  11.304  13.623  14.493
 5740SOL    HW219118  11.454  13.612  14.502
 5741SOL     OW19119  10.144  11.703  13.987
 5741SOL    HW119120  10.237  11.726  13.991
 5741SOL    HW219121  10.105  11.772  13.933
 5742SOL     OW19122  14.252   7.782   9.968
 5742SOL    HW119123  14.237   7.711   9.905
 5742SOL    HW219124  14.306   7.742  10.036
 5743SOL     OW19125   0.202   7.260  13.744
 5743SOL    HW119126   0.149   7.335  13.717
 5743SOL    HW219127   0.226   7.278  13.835
 5744SOL     OW19128   6.868  12.368  11.056
 5744SOL    HW119129   6.900  12.379  11.145
 5744SOL    HW219130   6.856  12.274  11.046
 5745SOL     OW19131   0.410   2.770  14.428
 5745SOL    HW119132   0.374   2.735  14.346
 5745SOL    HW219133   0.373   2.715  14.496
 5746SOL     OW19134   5.153  10.154   0.085
 5746SOL    HW119135   5.100  10.122   0.011
 5746SOL    HW219136   5.107  10.123   0.163
 5747SOL     OW19137   6.322   4.430   2.379
 5747SOL    HW119138   6.372   4.426   2.460
 5747SOL    HW219139   6.373   4.380   2.316
 5748SOL     OW19140  12.441   6.290  10.177
 5748SOL    HW119141  12.418   6.380  10.154
 5748SOL    HW219142  12.536   6.291  10.188
 5749SOL     OW19143   4.598   3.724   3.828
 5749SOL    HW119144   4.538   3.668   3.878
 5749SOL    HW219145   4.569   3.715   3.738
 5750SOL     OW19146   1.357   5.944   7.897
 5750SOL    HW119147   1.393   5.892   7.969
 5750SOL    HW219148   1.377   6.035   7.920
 5751SOL     OW19149   1.400   4.362  10.380
 5751SOL    HW119150   1.471   4.319  10.332
 5751SOL    HW219151   1.400   4.452  10.346
 5752SOL     OW19152  12.344   1.729   8.392
 5752SOL    HW119153  12.306   1.801   8.441
 5752SOL    HW219154  12.289   1.653   8.414
 5753SOL     OW19155  13.570   3.810  12.994
 5753SOL    HW119156  13.475   3.818  12.982
 5753SOL    HW219157  13.608   3.847  12.915
 5754SOL     OW19158  12.502   9.658  14.554
 5754SOL    HW119159  12.512   9.750  14.530
 5754SOL    HW219160  12.422   9.655  14.606
 5755SOL     OW19161   6.572  14.447   3.351
 5755SOL    HW119162   6.564  14.426   3.258
 5755SOL    HW219163   6.603  14.365   3.391
 5756SOL     OW19164   4.498   9.111   1.523
 5756SOL    HW119165   4.506   9.188   1.466
 5756SOL    HW219166   4.516   9.144   1.611
 5757SOL     OW19167   5.869  11.033   2.275
 5757SOL    HW119168   5.810  11.075   2.212
 5757SOL    HW219169   5.945  11.006   2.223
 5758SOL     OW19170   9.718   5.817   0.895
 5758SOL    HW119171   9.749   5.740   0.847
 5758SOL    HW219172   9.786   5.833   0.961
 5759SOL     OW19173  12.254  14.406  12.284
 5759SOL    HW119174  12.323  14.420  12.219
 5759SOL    HW219175  12.176  14.389  12.232
 5760SOL     OW19176   2.869   4.123   9.275
 5760SOL    HW119177   2.888   4.054   9.211
 5760SOL    HW219178   2.787   4.096   9.316
 5761SOL     OW19179   4.308  11.624   5.096
 5761SOL    HW119180   4.344  11.543   5.060
 5761SOL    HW219181   4.371  11.650   5.163
 5762SOL     OW19182   8.071  12.637  10.384
 5762SOL    HW119183   8.115  12.685  10.455
 5762SOL    HW219184   8.029  12.564  10.428
 5763SOL     OW19185   4.345   8.684   7.297
 5763SOL    HW119186   4.377   8.709   7.209
 5763SOL    HW219187   4.424   8.657   7.343
 5764SOL     OW19188  13.960   2.040   0.370
 5764SOL    HW119189  13.871   2.060   0.341
 5764SOL    HW219190  13.995   2.123   0.401
 5765SOL     OW19191   7.776   2.158   9.688
 5765SOL    HW119192   7.777   2.069   9.652
 5765SOL    HW219193   7.819   2.150   9.773
 5766SOL     OW19194   4.632   3.728   2.949
 5766SOL    HW119195   4.649   3.659   2.884
 5766SOL    HW219196   4.611   3.805   2.897
 5767SOL     OW19197   9.249   4.929   8.633
 5767SOL    HW119198   9.281   5.018   8.618
 5767SOL    HW219199   9.269   4.882   8.552
 5768SOL     OW19200   5.643  12.278   9.811
 5768SOL    HW119201   5.668  12.188   9.787
 5768SOL    HW219202   5.666  12.284   9.904
 5769SOL     OW19203   1.017  13.344  11.594
 5769SOL    HW119204   1.081  13.312  11.530
 5769SOL    HW219205   0.941  13.287  11.582
 5770SOL     OW19206   8.090   9.231   5.845
 5770SOL    HW119207   8.030   9.266   5.911
 5770SOL    HW219208   8.124   9.150   5.884
 5771SOL     OW19209   6.348   5.092   7.611
 5771SOL    HW119210   6.353   5.015   7.667
 5771SOL    HW219211   6.272   5.077   7.555
 5772SOL     OW19212   0.991  13.161   5.049
 5772SOL    HW119213   1.058  13.225   5.023
 5772SOL    HW219214   0.960  13.192   5.134
 5773SOL     OW19215   5.554   5.305  10.029
 5773SOL    HW119216   5.524   5.394  10.051
 5773SOL    HW219217   5.549   5.257  10.112
 5774SOL     OW19218  12.210  13.071   7.828
 5774SOL    HW119219  12.211  13.133   7.901
 5774SOL    HW219220  12.288  13.017   7.841
 5775SOL     OW19221   9.097  12.274   0.226
 5775SOL    HW119222   9.165  12.230   0.174
 5775SOL    HW219223   9.096  12.364   0.193
 5776SOL     OW19224  12.511   5.952   8.748
 5776SOL    HW119225  12.522   6.009   8.671
 5776SOL    HW219226  12.477   5.870   8.712
 5777SOL     OW19227   8.335   0.398   8.378
 5777SOL    HW119228   8.416   0.449   8.377
 5777SOL    HW219229   8.318   0.377   8.286
 5778SOL     OW19230   3.436   2.047   2.395
 5778SOL    HW119231   3.446   1.962   2.439
 5778SOL    HW219232   3.499   2.104   2.439
 5779SOL     OW19233   4.129   2.470   3.039
 5779SOL    HW119234   4.117   2.482   2.945
 5779SOL    HW219235   4.174   2.549   3.068
 5780SOL     OW19236   4.569   5.901  12.632
 5780SOL    HW119237   4.589   5.929  12.721
 5780SOL    HW219238   4.565   5.982  12.581
 5781SOL     OW19239   3.793   4.160  14.836
 5781SOL    HW119240   3.872   4.204  14.804
 5781SOL    HW219241   3.804   4.157   0.059
 5782SOL     OW19242  12.675   0.640   6.074
 5782SOL    HW119243  12.598   0.646   6.131
 5782SOL    HW219244  12.658   0.563   6.019
 5783SOL     OW19245   8.145   4.011  10.396
 5783SOL    HW119246   8.052   4.001  10.419
 5783SOL    HW219247   8.167   4.099  10.429
 5784SOL     OW19248   9.274  10.796   8.837
 5784SOL    HW119249   9.357  10.820   8.796
 5784SOL    HW219250   9.282  10.828   8.927
 5785SOL     OW19251  12.251   3.186   9.070
 5785SOL    HW119252  12.162   3.190   9.103
 5785SOL    HW219253  12.289   3.271   9.094
 5786SOL     OW19254  11.089   1.074   0.674
 5786SOL    HW119255  11.097   1.032   0.588
 5786SOL    HW219256  11.013   1.132   0.665
 5787SOL     OW19257  10.444   5.110   5.537
 5787SOL    HW119258  10.407   5.165   5.468
 5787SOL    HW219259  10.369   5.091   5.594
 5788SOL     OW19260   7.768   4.410  12.826
 5788SOL    HW119261   7.823   4.462  12.885
 5788SOL    HW219262   7.735   4.339  12.881
 5789SOL     OW19263  10.695   0.278  12.423
 5789SOL    HW119264  10.616   0.234  12.455
 5789SOL    HW219265  10.728   0.220  12.354
 5790SOL     OW19266   3.184  13.025   5.176
 5790SOL    HW119267   3.183  13.094   5.111
 5790SOL    HW219268   3.102  12.977   5.162
 5791SOL     OW19269  11.153   5.391   0.552
 5791SOL    HW119270  11.063   5.399   0.518
 5791SOL    HW219271  11.196   5.472   0.524
 5792SOL     OW19272   5.215   1.469   3.390
 5792SOL    HW119273   5.239   1.430   3.474
 5792SOL    HW219274   5.142   1.416   3.358
 5793SOL     OW19275   2.164   4.418   2.838
 5793SOL    HW119276   2.214   4.498   2.819
 5793SOL    HW219277   2.206   4.383   2.917
 5794SOL     OW19278   9.964   4.747  13.250
 5794SOL    HW119279   9.869   4.749  13.240
 5794SOL    HW219280   9.989   4.658  13.225
 5795SOL     OW19281  10.079   3.430   7.572
 5795SOL    HW119282   9.995   3.440   7.528
 5795SOL    HW219283  10.100   3.337   7.564
 5796SOL     OW19284   7.188  12.998   5.491
 5796SOL    HW119285   7.280  12.994   5.517
 5796SOL    HW219286   7.171  12.911   5.454
 5797SOL     OW19287   9.050  11.353   3.242
 5797SOL    HW119288   9.100  11.277   3.273
 5797SOL    HW219289   8.966  11.347   3.287
 5798SOL     OW19290   4.488   3.285   7.664
 5798SOL    HW119291   4.470   3.234   7.585
 5798SOL    HW219292   4.469   3.375   7.638
 5799SOL     OW19293  14.477  11.000  10.974
 5799SOL    HW119294  14.394  11.040  11.000
 5799SOL    HW219295  14.543  11.066  10.996
 5800SOL     OW19296   6.464   4.220  10.979
 5800SOL    HW119297   6.542   4.164  10.973
 5800SOL    HW219298   6.391   4.160  10.964
 5801SOL     OW19299  10.864  13.710   2.608
 5801SOL    HW119300  10.875  13.804   2.621
 5801SOL    HW219301  10.950  13.672   2.625
 5802SOL     OW19302   7.283   5.331   2.217
 5802SOL    HW119303   7.341   5.366   2.150
 5802SOL    HW219304   7.243   5.254   2.176
 5803SOL     OW19305   9.362   5.250   1.906
 5803SOL    HW119306   9.429   5.240   1.974
 5803SOL    HW219307   9.329   5.161   1.892
 5804SOL     OW19308   2.419   3.747  10.082
 5804SOL    HW119309   2.366   3.710  10.011
 5804SOL    HW219310   2.503   3.769  10.040
 5805SOL     OW19311   6.211   5.999  13.623
 5805SOL    HW119312   6.214   5.906  13.601
 5805SOL    HW219313   6.209   6.001  13.719
 5806SOL     OW19314   0.292   4.103  10.152
 5806SOL    HW119315   0.249   4.021  10.176
 5806SOL    HW219316   0.264   4.119  10.062
 5807SOL     OW19317   7.655   4.271   6.387
 5807SOL    HW119318   7.665   4.185   6.347
 5807SOL    HW219319   7.699   4.263   6.472
 5808SOL     OW19320  13.099  12.525  10.260
 5808SOL    HW119321  13.089  12.437  10.224
 5808SOL    HW219322  13.023  12.536  10.317
 5809SOL     OW19323  12.802  13.783  11.093
 5809SOL    HW119324  12.821  13.697  11.129
 5809SOL    HW219325  12.876  13.838  11.120
 5810SOL     OW19326   6.763  11.307  12.104
 5810SOL    HW119327   6.804  11.392  12.117
 5810SOL    HW219328   6.799  11.252  12.174
 5811SOL     OW19329  11.780   9.262   0.518
 5811SOL    HW119330  11.689   9.239   0.536
 5811SOL    HW219331  11.811   9.302   0.598
 5812SOL     OW19332   1.501   2.668   9.587
 5812SOL    HW119333   1.542   2.628   9.510
 5812SOL    HW219334   1.470   2.593   9.638
 5813SOL     OW19335   8.808  13.037   2.038
 5813SOL    HW119336   8.867  12.968   2.007
 5813SOL    HW219337   8.737  13.038   1.974
 5814SOL     OW19338   6.283   9.588   9.038
 5814SOL    HW119339   6.300   9.662   9.097
 5814SOL    HW219340   6.212   9.540   9.080
 5815SOL     OW19341   8.265   3.045  11.749
 5815SOL    HW119342   8.274   2.991  11.670
 5815SOL    HW219343   8.273   2.983  11.822
 5816SOL     OW19344   8.360   9.937  12.220
 5816SOL    HW119345   8.373  10.026  12.188
 5816SOL    HW219346   8.278   9.941  12.269
 5817SOL     OW19347  14.251   5.088   8.409
 5817SOL    HW119348  14.291   5.008   8.376
 5817SOL    HW219349  14.270   5.088   8.503
 5818SOL     OW19350   0.098   2.975  10.750
 5818SOL    HW119351   0.081   2.886  10.780
 5818SOL    HW219352   0.155   3.013  10.816
 5819SOL     OW19353   9.379   8.254  10.997
 5819SOL    HW119354   9.382   8.168  10.954
 5819SOL    HW219355   9.289   8.283  10.985
 5820SOL     OW19356  13.619  11.741   5.192
 5820SOL    HW119357  13.676  11.733   5.268
 5820SOL    HW219358  13.546  11.796   5.222
 5821SOL     OW19359  13.494  12.795  11.077
 5821SOL    HW119360  13.421  12.837  11.122
 5821SOL    HW219361  13.478  12.701  11.087
 5822SOL     OW19362  13.979  10.325  14.489
 5822SOL    HW119363  14.026  10.356  14.411
 5822SOL    HW219364  13.974  10.402  14.545
 5823SOL     OW19365   1.795   8.357   9.236
 5823SOL    HW119366   1.792   8.308   9.153
 5823SOL    HW219367   1.838   8.440   9.213
 5824SOL     OW19368   8.904   9.836   3.815
 5824SOL    HW119369   8.869   9.917   3.853
 5824SOL    HW219370   8.941   9.788   3.889
 5825SOL     OW19371   8.789   0.293   1.962
 5825SOL    HW119372   8.694   0.284   1.959
 5825SOL    HW219373   8.816   0.285   1.870
 5826SOL     OW19374   7.646  10.704   8.675
 5826SOL    HW119375   7.716  10.638   8.672
 5826SOL    HW219376   7.581  10.668   8.735
 5827SOL     OW19377  13.605   5.836   2.137
 5827SOL    HW119378  13.623   5.926   2.166
 5827SOL    HW219379  13.530   5.845   2.078
 5828SOL     OW19380   6.817  11.843   0.240
 5828SOL    HW119381   6.782  11.807   0.321
 5828SOL    HW219382   6.761  11.808   0.171
 5829SOL     OW19383   0.396   9.938   8.268
 5829SOL    HW119384   0.486   9.920   8.243
 5829SOL    HW219385   0.386   9.895   8.353
 5830SOL     OW19386  10.943   4.913   8.663
 5830SOL    HW119387  10.903   4.843   8.611
 5830SOL    HW219388  10.875   4.940   8.724
 5831SOL     OW19389   3.447   8.205  12.319
 5831SOL    HW119390   3.515   8.159  12.270
 5831SOL    HW219391   3.375   8.142  12.324
 5832SOL     OW19392   7.951  12.563   6.280
 5832SOL    HW119393   7.865  12.564   6.238
 5832SOL    HW219394   7.945  12.495   6.347
 5833SOL     OW19395   9.926   5.987   2.682
 5833SOL    HW119396   9.888   6.073   2.664
 5833SOL    HW219397   9.958   5.957   2.597
 5834SOL     OW19398  14.717  12.056   7.152
 5834SOL    HW119399  14.686  12.045   7.062
 5834SOL    HW219400  14.789  12.120   7.144
 5835SOL     OW19401   6.947   8.861   6.968
 5835SOL    HW119402   6.944   8.769   6.940
 5835SOL    HW219403   6.884   8.866   7.040
 5836SOL     OW19404  13.786   0.795  12.159
 5836SOL    HW119405  13.737   0.860  12.208
 5836SOL    HW219406  13.829   0.742  12.226
 5837SOL     OW19407   2.404   6.444   9.150
 5837SOL    HW119408   2.417   6.425   9.243
 5837SOL    HW219409   2.340   6.379   9.121
 5838SOL     OW19410   6.375   7.593  13.553
 5838SOL    HW119411   6.302   7.582  13.614
 5838SOL    HW219412   6.432   7.518  13.571
 5839SOL     OW19413   1.021  13.647   1.902
 5839SOL    HW119414   1.061  13.710   1.963
 5839SOL    HW219415   1.089  13.582   1.887
 5840SOL     OW19416   8.199   4.168   9.336
 5840SOL    HW119417   8.109   4.137   9.333
 5840SOL    HW219418   8.204   4.233   9.266
 5841SOL     OW19419   1.887  14.136   3.871
 5841SOL    HW119420   1.889  14.186   3.952
 5841SOL    HW219421   1.978  14.132   3.842
 5842SOL     OW19422   4.752   8.797   8.380
 5842SOL    HW119423   4.735   8.774   8.471
 5842SOL    HW219424   4.824   8.739   8.353
 5843SOL     OW19425  12.779  14.603   3.896
 5843SOL    HW119426  12.781  14.507   3.890
 5843SOL    HW219427  12.831  14.623   3.973
 5844SOL     OW19428   6.188  10.425   0.039
 5844SOL    HW119429   6.139  10.415  14.829
 5844SOL    HW219430   6.121  10.430   0.107
 5845SOL     OW19431   0.408  13.955   3.939
 5845SOL    HW119432   0.320  13.931   3.969
 5845SOL    HW219433   0.400  13.962   3.844
 5846SOL     OW19434  10.495  11.291   3.767
 5846SOL    HW119435  10.406  11.257   3.754
 5846SOL    HW219436  10.546  11.215   3.795
 5847SOL     OW19437   1.696  10.124   0.276
 5847SOL    HW119438   1.603  10.148   0.278
 5847SOL    HW219439   1.740  10.197   0.318
 5848SOL     OW19440  12.653  14.866   8.763
 5848SOL    HW119441  12.651   0.052   8.840
 5848SOL    HW219442  12.649   0.054   8.689
 5849SOL     OW19443   9.944  12.975  14.265
 5849SOL    HW119444  10.012  12.912  14.240
 5849SOL    HW219445   9.992  13.055  14.287
 5850SOL     OW19446  10.631   3.216  10.144
 5850SOL    HW119447  10.555   3.240  10.091
 5850SOL    HW219448  10.624   3.121  10.155
 5851SOL     OW19449   9.205   4.535   2.295
 5851SOL    HW119450   9.173   4.567   2.380
 5851SOL    HW219451   9.295   4.570   2.290
 5852SOL     OW19452  13.348   8.613   5.886
 5852SOL    HW119453  13.421   8.573   5.840
 5852SOL    HW219454  13.383   8.696   5.919
 5853SOL     OW19455   4.106   9.707  13.491
 5853SOL    HW119456   4.122   9.784  13.545
 5853SOL    HW219457   4.045   9.737  13.424
 5854SOL     OW19458  12.609  10.223  11.420
 5854SOL    HW119459  12.694  10.250  11.454
 5854SOL    HW219460  12.625  10.137  11.381
 5855SOL     OW19461   9.164   9.944   0.350
 5855SOL    HW119462   9.253   9.978   0.349
 5855SOL    HW219463   9.175   9.849   0.353
 5856SOL     OW19464   8.605  11.703   8.462
 5856SOL    HW119465   8.564  11.782   8.427
 5856SOL    HW219466   8.685  11.734   8.505
 5857SOL     OW19467   2.367   1.106   8.058
 5857SOL    HW119468   2.353   1.024   8.012
 5857SOL    HW219469   2.402   1.081   8.143
 5858SOL     OW19470   1.756   4.106   0.563
 5858SOL    HW119471   1.813   4.182   0.565
 5858SOL    HW219472   1.675   4.135   0.606
 5859SOL     OW19473   9.372  12.443  12.135
 5859SOL    HW119474   9.321  12.415  12.059
 5859SOL    HW219475   9.458  12.467  12.098
 5860SOL     OW19476  13.835  14.131   6.217
 5860SOL    HW119477  13.920  14.145   6.175
 5860SOL    HW219478  13.827  14.202   6.281
 5861SOL     OW19479   6.567  13.259  14.215
 5861SOL    HW119480   6.589  13.253  14.122
 5861SOL    HW219481   6.519  13.342  14.223
 5862SOL     OW19482  13.253   7.314  12.762
 5862SOL    HW119483  13.300   7.397  12.770
 5862SOL    HW219484  13.244   7.300  12.668
 5863SOL     OW19485   3.339   1.729   9.407
 5863SOL    HW119486   3.267   1.689   9.456
 5863SOL    HW219487   3.346   1.817   9.444
 5864SOL     OW19488   7.745  12.214  14.046
 5864SOL    HW119489   7.767  12.188  13.956
 5864SOL    HW219490   7.829  12.240  14.084
 5865SOL     OW19491   9.795   4.646   8.588
 5865SOL    HW119492   9.708   4.685   8.578
 5865SOL    HW219493   9.821   4.667   8.678
 5866SOL     OW19494  11.538   9.075   3.127
 5866SOL    HW119495  11.494   8.992   3.111
 5866SOL    HW219496  11.617   9.071   3.073
 5867SOL     OW19497   8.060   5.161   8.793
 5867SOL    HW119498   8.150   5.131   8.801
 5867SOL    HW219499   8.048   5.223   8.864
 5868SOL     OW19500  10.183   3.250   3.200
 5868SOL    HW119501  10.218   3.332   3.236
 5868SOL    HW219502  10.173   3.267   3.106
 5869SOL     OW19503  11.568  13.003  13.983
 5869SOL    HW119504  11.643  12.947  13.963
 5869SOL    HW219505  11.589  13.043  14.067
 5870SOL     OW19506   9.945   9.578   1.200
 5870SOL    HW119507   9.912   9.659   1.239
 5870SOL    HW219508  10.039   9.594   1.188
 5871SOL     OW19509   5.770   3.220  10.325
 5871SOL    HW119510   5.683   3.179  10.328
 5871SOL    HW219511   5.752   3.314  10.329
 5872SOL     OW19512   9.323   3.625   8.065
 5872SOL    HW119513   9.388   3.555   8.059
 5872SOL    HW219514   9.308   3.636   8.159
 5873SOL     OW19515  12.441  11.504   4.652
 5873SOL    HW119516  12.493  11.561   4.596
 5873SOL    HW219517  12.502  11.471   4.717
 5874SOL     OW19518   2.668  14.567  12.614
 5874SOL    HW119519   2.727  14.642  12.611
 5874SOL    HW219520   2.723  14.495  12.643
 5875SOL     OW19521  12.032  11.656   0.868
 5875SOL    HW119522  12.008  11.723   0.804
 5875SOL    HW219523  11.997  11.574   0.831
 5876SOL     OW19524   5.599   9.939   7.363
 5876SOL    HW119525   5.665  10.008   7.357
 5876SOL    HW219526   5.649   9.857   7.354
 5877SOL     OW19527  12.055  13.150  12.158
 5877SOL    HW119528  12.010  13.219  12.109
 5877SOL    HW219529  12.094  13.095  12.090
 5878SOL     OW19530  14.859  12.401   1.535
 5878SOL    HW119531   0.057  12.335   1.523
 5878SOL    HW219532  14.850  12.409   1.630
 5879SOL     OW19533   7.417   0.839   7.639
 5879SOL    HW119534   7.414   0.851   7.544
 5879SOL    HW219535   7.383   0.751   7.653
 5880SOL     OW19536   8.876   8.298  11.409
 5880SOL    HW119537   8.843   8.361  11.346
 5880SOL    HW219538   8.965   8.327  11.427
 5881SOL     OW19539   6.909   7.855   3.510
 5881SOL    HW119540   6.837   7.849   3.573
 5881SOL    HW219541   6.890   7.786   3.446
 5882SOL     OW19542   9.054   9.768  12.440
 5882SOL    HW119543   9.099   9.852  12.450
 5882SOL    HW219544   9.088   9.731  12.359
 5883SOL     OW19545   9.359   2.165  12.019
 5883SOL    HW119546   9.402   2.239  12.061
 5883SOL    HW219547   9.276   2.155  12.066
 5884SOL     OW19548   6.964  14.806   4.994
 5884SOL    HW119549   6.945   0.026   4.972
 5884SOL    HW219550   7.044  14.811   5.048
 5885SOL     OW19551  13.613   6.468   0.806
 5885SOL    HW119552  13.697   6.514   0.811
 5885SOL    HW219553  13.548   6.536   0.822
 5886SOL     OW19554   2.396   5.116  10.283
 5886SOL    HW119555   2.342   5.186  10.319
 5886SOL    HW219556   2.483   5.131  10.320
 5887SOL     OW19557   2.077   2.017   0.453
 5887SOL    HW119558   2.003   1.976   0.408
 5887SOL    HW219559   2.037   2.062   0.527
 5888SOL     OW19560  12.726   1.103   3.942
 5888SOL    HW119561  12.752   1.024   3.895
 5888SOL    HW219562  12.632   1.092   3.957
 5889SOL     OW19563  12.453   6.617   2.577
 5889SOL    HW119564  12.385   6.664   2.626
 5889SOL    HW219565  12.522   6.682   2.562
 5890SOL     OW19566   6.248  14.547   1.009
 5890SOL    HW119567   6.202  14.494   0.945
 5890SOL    HW219568   6.288  14.617   0.958
 5891SOL     OW19569   3.051   8.162   1.552
 5891SOL    HW119570   2.982   8.099   1.533
 5891SOL    HW219571   3.021   8.243   1.513
 5892SOL     OW19572  10.477   2.447   9.882
 5892SOL    HW119573  10.572   2.435   9.887
 5892SOL    HW219574  10.445   2.372   9.832
 5893SOL     OW19575   5.702  11.341   6.083
 5893SOL    HW119576   5.783  11.364   6.129
 5893SOL    HW219577   5.640  11.321   6.152
 5894SOL     OW19578   4.585   1.642   6.958
 5894SOL    HW119579   4.679   1.645   6.935
 5894SOL    HW219580   4.560   1.734   6.967
 5895SOL     OW19581   2.865   3.298   1.419
 5895SOL    HW119582   2.948   3.309   1.464
 5895SOL    HW219583   2.825   3.221   1.460
 5896SOL     OW19584   4.045   4.468   9.639
 5896SOL    HW119585   4.124   4.427   9.604
 5896SOL    HW219586   4.048   4.448   9.733
 5897SOL     OW19587  12.804  10.730  10.971
 5897SOL    HW119588  12.818  10.635  10.966
 5897SOL    HW219589  12.771  10.745  11.059
 5898SOL     OW19590   3.615   7.181   4.923
 5898SOL    HW119591   3.567   7.100   4.941
 5898SOL    HW219592   3.577   7.245   4.984
 5899SOL     OW19593  12.413   1.810  13.678
 5899SOL    HW119594  12.371   1.863  13.611
 5899SOL    HW219595  12.352   1.811  13.752
 5900SOL     OW19596  13.140   9.252   7.809
 5900SOL    HW119597  13.206   9.208   7.863
 5900SOL    HW219598  13.112   9.326   7.862
 5901SOL     OW19599   3.392   5.132   4.035
 5901SOL    HW119600   3.331   5.186   4.086
 5901SOL    HW219601   3.339   5.057   4.007
 5902SOL     OW19602   0.036  10.167   1.341
 5902SOL    HW119603   0.041  10.115   1.422
 5902SOL    HW219604   0.109  10.135   1.288
 5903SOL     OW19605   2.304   6.858   3.667
 5903SOL    HW119606   2.270   6.947   3.660
 5903SOL    HW219607   2.241   6.812   3.722
 5904SOL     OW19608   6.953   3.318   9.144
 5904SOL    HW119609   6.990   3.406   9.134
 5904SOL    HW219610   6.925   3.294   9.055
 5905SOL     OW19611  12.607   4.921  11.425
 5905SOL    HW119612  12.512   4.910  11.422
 5905SOL    HW219613  12.623   5.006  11.383
 5906SOL     OW19614   4.819   9.297   8.039
 5906SOL    HW119615   4.793   9.224   8.095
 5906SOL    HW219616   4.894   9.264   7.989
 5907SOL     OW19617  12.030   2.956   6.434
 5907SOL    HW119618  11.961   3.003   6.386
 5907SOL    HW219619  11.983   2.905   6.499
 5908SOL     OW19620   6.173   0.835   0.211
 5908SOL    HW119621   6.160   0.842   0.117
 5908SOL    HW219622   6.223   0.754   0.222
 5909SOL     OW19623   5.911   5.606   8.084
 5909SOL    HW119624   5.849   5.614   8.157
 5909SOL    HW219625   5.858   5.620   8.006
 5910SOL     OW19626   5.779   8.029  11.877
 5910SOL    HW119627   5.721   7.999  11.808
 5910SOL    HW219628   5.853   8.068  11.831
 5911SOL     OW19629   3.240  12.604   7.979
 5911SOL    HW119630   3.160  12.552   7.967
 5911SOL    HW219631   3.310  12.539   7.983
 5912SOL     OW19632  12.400   0.016   5.362
 5912SOL    HW119633  12.320  14.850   5.397
 5912SOL    HW219634  12.460  14.813   5.354
 5913SOL     OW19635   3.217   7.005   9.838
 5913SOL    HW119636   3.271   6.948   9.893
 5913SOL    HW219637   3.127   6.988   9.865
 5914SOL     OW19638   8.427   4.706   6.090
 5914SOL    HW119639   8.424   4.666   6.003
 5914SOL    HW219640   8.447   4.634   6.149
 5915SOL     OW19641   8.439  12.136   9.824
 5915SOL    HW119642   8.431  12.142   9.728
 5915SOL    HW219643   8.350  12.118   9.855
 5916SOL     OW19644   1.816   1.640  11.134
 5916SOL    HW119645   1.813   1.609  11.225
 5916SOL    HW219646   1.907   1.670  11.123
 5917SOL     OW19647   6.974   4.051   6.904
 5917SOL    HW119648   7.025   3.971   6.916
 5917SOL    HW219649   6.903   4.027   6.844
 5918SOL     OW19650  11.512   0.066  13.721
 5918SOL    HW119651  11.596   0.060  13.675
 5918SOL    HW219652  11.499  14.850  13.757
 5919SOL     OW19653  12.312  12.128   7.668
 5919SOL    HW119654  12.219  12.138   7.650
 5919SOL    HW219655  12.343  12.215   7.691
 5920SOL     OW19656   9.661   5.543  11.942
 5920SOL    HW119657   9.647   5.455  11.977
 5920SOL    HW219658   9.744   5.572  11.979
 5921SOL     OW19659   7.936  10.796   7.310
 5921SOL    HW119660   8.029  10.801   7.288
 5921SOL    HW219661   7.902  10.724   7.257
 5922SOL     OW19662   5.789  12.321   0.031
 5922SOL    HW119663   5.858  12.385   0.017
 5922SOL    HW219664   5.767  12.289  14.815
 5923SOL     OW19665   0.386   8.671  12.668
 5923SOL    HW119666   0.330   8.654  12.744
 5923SOL    HW219667   0.330   8.651  12.592
 5924SOL     OW19668  10.347   1.876   7.584
 5924SOL    HW119669  10.302   1.796   7.611
 5924SOL    HW219670  10.386   1.910   7.665
 5925SOL     OW19671   3.556  13.034  10.582
 5925SOL    HW119672   3.471  13.070  10.559
 5925SOL    HW219673   3.536  12.947  10.617
 5926SOL     OW19674   3.574   1.846  11.646
 5926SOL    HW119675   3.630   1.769  11.658
 5926SOL    HW219676   3.587   1.872  11.555
 5927SOL     OW19677  13.653   8.601   0.125
 5927SOL    HW119678  13.641   8.506   0.127
 5927SOL    HW219679  13.567   8.636   0.150
 5928SOL     OW19680   4.600  12.753  14.042
 5928SOL    HW119681   4.590  12.661  14.014
 5928SOL    HW219682   4.689  12.776  14.016
 5929SOL     OW19683   0.428  13.959   4.442
 5929SOL    HW119684   0.353  14.010   4.410
 5929SOL    HW219685   0.468  14.015   4.509
 5930SOL     OW19686   0.668  13.038  12.765
 5930SOL    HW119687   0.686  12.957  12.812
 5930SOL    HW219688   0.692  13.107  12.827
 5931SOL     OW19689   2.747   8.041   0.761
 5931SOL    HW119690   2.801   8.060   0.837
 5931SOL    HW219691   2.659   8.070   0.786
 5932SOL     OW19692   5.864  13.759   4.457
 5932SOL    HW119693   5.768  13.753   4.456
 5932SOL    HW219694   5.891  13.723   4.372
 5933SOL     OW19695   5.090   2.694   3.891
 5933SOL    HW119696   5.147   2.632   3.845
 5933SOL    HW219697   5.076   2.765   3.828
 5934SOL     OW19698  11.251  10.774   6.171
 5934SOL    HW119699  11.271  10.866   6.153
 5934SOL    HW219700  11.186  10.750   6.105
 5935SOL     OW19701   7.375   8.189   7.572
 5935SOL    HW119702   7.425   8.142   7.505
 5935SOL    HW219703   7.335   8.262   7.525
 5936SOL     OW19704  13.873   9.677   4.073
 5936SOL    HW119705  13.949   9.684   4.130
 5936SOL    HW219706  13.812   9.742   4.107
 5937SOL     OW19707   9.606   6.288   1.236
 5937SOL    HW119708   9.516   6.255   1.235
 5937SOL    HW219709   9.656   6.217   1.277
 5938SOL     OW19710   7.383   4.423   2.424
 5938SOL    HW119711   7.454   4.374   2.465
 5938SOL    HW219712   7.424   4.469   2.351
 5939SOL     OW19713   9.711  13.709   4.400
 5939SOL    HW119714   9.714  13.683   4.492
 5939SOL    HW219715   9.644  13.778   4.397
 5940SOL     OW19716   6.271   6.021   7.857
 5940SOL    HW119717   6.183   5.984   7.849
 5940SOL    HW219718   6.257   6.115   7.861
 5941SOL     OW19719  10.957   3.481  14.248
 5941SOL    HW119720  11.019   3.409  14.240
 5941SOL    HW219721  10.947   3.514  14.159
 5942SOL     OW19722   0.698  12.349   1.790
 5942SOL    HW119723   0.687  12.256   1.809
 5942SOL    HW219724   0.683  12.357   1.696
 5943SOL     OW19725   2.867   8.914  14.129
 5943SOL    HW119726   2.802   8.870  14.185
 5943SOL    HW219727   2.912   8.974  14.188
 5944SOL     OW19728   2.304  13.049   0.888
 5944SOL    HW119729   2.384  12.996   0.885
 5944SOL    HW219730   2.287  13.062   0.981
 5945SOL     OW19731   7.630   4.322  12.582
 5945SOL    HW119732   7.675   4.362  12.657
 5945SOL    HW219733   7.548   4.372  12.575
 5946SOL     OW19734   6.098   5.093  10.333
 5946SOL    HW119735   6.167   5.044  10.289
 5946SOL    HW219736   6.049   5.027  10.382
 5947SOL     OW19737   6.461  13.757  10.896
 5947SOL    HW119738   6.556  13.765  10.885
 5947SOL    HW219739   6.451  13.721  10.985
 5948SOL     OW19740   4.781   0.195   0.848
 5948SOL    HW119741   4.723   0.223   0.777
 5948SOL    HW219742   4.862   0.169   0.804
 5949SOL     OW19743  10.757   6.286  10.908
 5949SOL    HW119744  10.734   6.233  10.832
 5949SOL    HW219745  10.677   6.334  10.929
 5950SOL     OW19746  10.360   1.195  12.931
 5950SOL    HW119747  10.389   1.131  12.996
 5950SOL    HW219748  10.408   1.275  12.952
 5951SOL     OW19749   5.284  13.693   2.584
 5951SOL    HW119750   5.361  13.750   2.578
 5951SOL    HW219751   5.210  13.753   2.590
 5952SOL     OW19752   7.394   1.288  12.155
 5952SOL    HW119753   7.427   1.199  12.155
 5952SOL    HW219754   7.300   1.279  12.139
 5953SOL     OW19755   4.608   1.423   7.124
 5953SOL    HW119756   4.657   1.367   7.063
 5953SOL    HW219757   4.574   1.494   7.069
 5954SOL     OW19758  10.019  12.908   4.781
 5954SOL    HW119759  10.057  12.956   4.854
 5954SOL    HW219760  10.092  12.892   4.721
 5955SOL     OW19761   2.603   4.290   6.193
 5955SOL    HW119762   2.656   4.215   6.220
 5955SOL    HW219763   2.559   4.261   6.113
 5956SOL     OW19764   9.527   2.779   1.864
 5956SOL    HW119765   9.450   2.832   1.885
 5956SOL    HW219766   9.534   2.784   1.769
 5957SOL     OW19767   4.371   1.532  12.467
 5957SOL    HW119768   4.413   1.600  12.520
 5957SOL    HW219769   4.366   1.570  12.379
 5958SOL     OW19770  10.198  13.558   9.160
 5958SOL    HW119771  10.220  13.633   9.216
 5958SOL    HW219772  10.283  13.530   9.125
 5959SOL     OW19773   1.522  12.150   6.947
 5959SOL    HW119774   1.615  12.132   6.934
 5959SOL    HW219775   1.503  12.222   6.887
 5960SOL     OW19776  11.425   8.779   5.707
 5960SOL    HW119777  11.409   8.684   5.705
 5960SOL    HW219778  11.495   8.792   5.643
 5961SOL     OW19779   9.284  14.789   0.915
 5961SOL    HW119780   9.225  14.832   0.854
 5961SOL    HW219781   9.341  14.859   0.947
 5962SOL     OW19782   9.252   2.083   1.288
 5962SOL    HW119783   9.311   2.125   1.351
 5962SOL    HW219784   9.236   2.150   1.222
 5963SOL     OW19785   2.770   7.700   1.784
 5963SOL    HW119786   2.685   7.720   1.822
 5963SOL    HW219787   2.811   7.639   1.845
 5964SOL     OW19788   9.258   1.776   3.561
 5964SOL    HW119789   9.261   1.841   3.492
 5964SOL    HW219790   9.344   1.733   3.558
 5965SOL     OW19791  13.458  10.678   4.526
 5965SOL    HW119792  13.553  10.687   4.520
 5965SOL    HW219793  13.424  10.767   4.517
 5966SOL     OW19794   4.051  12.760  12.587
 5966SOL    HW119795   4.006  12.677  12.595
 5966SOL    HW219796   4.013  12.801  12.510
 5967SOL     OW19797  13.407   6.835   3.023
 5967SOL    HW119798  13.391   6.921   2.984
 5967SOL    HW219799  13.451   6.785   2.954
 5968SOL     OW19800   6.638   3.525   4.052
 5968SOL    HW119801   6.627   3.444   4.001
 5968SOL    HW219802   6.561   3.529   4.108
 5969SOL     OW19803   3.887  13.940   2.424
 5969SOL    HW119804   3.884  13.871   2.358
 5969SOL    HW219805   3.892  13.893   2.507
 5970SOL     OW19806   8.263   0.991   0.718
 5970SOL    HW119807   8.196   0.955   0.661
 5970SOL    HW219808   8.344   0.986   0.666
 5971SOL     OW19809   3.071   5.761  10.515
 5971SOL    HW119810   3.009   5.795  10.579
 5971SOL    HW219811   3.020   5.696  10.465
 5972SOL     OW19812   7.326   8.262   3.384
 5972SOL    HW119813   7.261   8.289   3.449
 5972SOL    HW219814   7.323   8.167   3.385
 5973SOL     OW19815   9.887  10.327   7.280
 5973SOL    HW119816   9.856  10.383   7.209
 5973SOL    HW219817   9.858  10.372   7.360
 5974SOL     OW19818   0.358  12.657  14.098
 5974SOL    HW119819   0.315  12.708  14.030
 5974SOL    HW219820   0.293  12.592  14.124
 5975SOL     OW19821  13.223   0.144   9.855
 5975SOL    HW119822  13.302   0.128   9.906
 5975SOL    HW219823  13.228   0.082   9.782
 5976SOL     OW19824   2.262  14.661  13.249
 5976SOL    HW119825   2.263  14.566  13.262
 5976SOL    HW219826   2.330  14.677  13.184
 5977SOL     OW19827   6.555   0.343   8.034
 5977SOL    HW119828   6.635   0.293   8.017
 5977SOL    HW219829   6.574   0.431   8.001
 5978SOL     OW19830  10.489   7.287   0.231
 5978SOL    HW119831  10.403   7.319   0.204
 5978SOL    HW219832  10.513   7.343   0.305
 5979SOL     OW19833  14.049   7.594   8.893
 5979SOL    HW119834  14.121   7.539   8.863
 5979SOL    HW219835  14.018   7.551   8.973
 5980SOL     OW19836   0.713  10.253   2.954
 5980SOL    HW119837   0.801  10.238   2.920
 5980SOL    HW219838   0.655  10.227   2.882
 5981SOL     OW19839   9.440  12.572   3.955
 5981SOL    HW119840   9.484  12.600   3.875
 5981SOL    HW219841   9.488  12.494   3.983
 5982SOL     OW19842   4.088   5.125  14.114
 5982SOL    HW119843   4.045   5.129  14.200
 5982SOL    HW219844   4.180   5.109  14.134
 5983SOL     OW19845   0.630   5.820   5.773
 5983SOL    HW119846   0.711   5.823   5.824
 5983SOL    HW219847   0.659   5.815   5.682
 5984SOL     OW19848   8.978  10.599   4.097
 5984SOL    HW119849   9.020  10.540   4.035
 5984SOL    HW219850   8.998  10.561   4.183
 5985SOL     OW19851  12.472   1.907   6.164
 5985SOL    HW119852  12.526   1.845   6.115
 5985SOL    HW219853  12.459   1.865   6.249
 5986SOL     OW19854   2.403   9.955   9.347
 5986SOL    HW119855   2.370   9.924   9.431
 5986SOL    HW219856   2.354   9.905   9.282
 5987SOL     OW19857  10.588   0.129   5.315
 5987SOL    HW119858  10.572   0.039   5.344
 5987SOL    HW219859  10.614   0.120   5.223
 5988SOL     OW19860   2.330  11.889  11.116
 5988SOL    HW119861   2.260  11.898  11.181
 5988SOL    HW219862   2.409  11.873  11.168
 5989SOL     OW19863  12.271   5.025   7.267
 5989SOL    HW119864  12.358   4.985   7.269
 5989SOL    HW219865  12.287   5.117   7.287
 5990SOL     OW19866  10.656  10.229  11.646
 5990SOL    HW119867  10.567  10.212  11.614
 5990SOL    HW219868  10.713  10.186  11.582
 5991SOL     OW19869   3.902   4.948   8.885
 5991SOL    HW119870   3.968   4.968   8.820
 5991SOL    HW219871   3.916   5.012   8.955
 5992SOL     OW19872   4.953   9.604   0.840
 5992SOL    HW119873   5.015   9.644   0.901
 5992SOL    HW219874   4.980   9.637   0.754
 5993SOL     OW19875   4.761   6.643   6.603
 5993SOL    HW119876   4.855   6.654   6.595
 5993SOL    HW219877   4.738   6.691   6.683
 5994SOL     OW19878  12.219  12.163   0.293
 5994SOL    HW119879  12.272  12.103   0.240
 5994SOL    HW219880  12.139  12.174   0.241
 5995SOL     OW19881   0.953   8.630   4.343
 5995SOL    HW119882   1.014   8.559   4.364
 5995SOL    HW219883   0.887   8.626   4.413
 5996SOL     OW19884  12.758   7.162  10.178
 5996SOL    HW119885  12.682   7.166  10.119
 5996SOL    HW219886  12.821   7.223  10.139
 5997SOL     OW19887  14.763   6.515  13.802
 5997SOL    HW119888  14.836   6.533  13.862
 5997SOL    HW219889  14.691   6.569  13.834
 5998SOL     OW19890   0.694   9.242   8.941
 5998SOL    HW119891   0.763   9.271   9.000
 5998SOL    HW219892   0.699   9.301   8.866
 5999SOL     OW19893   5.363  11.538   4.536
 5999SOL    HW119894   5.300  11.607   4.553
 5999SOL    HW219895   5.326  11.460   4.578
 6000SOL     OW19896  12.322  11.741  12.236
 6000SOL    HW119897  12.298  11.793  12.313
 6000SOL    HW219898  12.271  11.660  12.246
 6001SOL     OW19899  11.906   3.651  11.537
 6001SOL    HW119900  11.948   3.737  11.537
 6001SOL    HW219901  11.830   3.662  11.479
 6002SOL     OW19902   5.244   9.391   7.948
 6002SOL    HW119903   5.323   9.376   7.999
 6002SOL    HW219904   5.264   9.471   7.898
 6003SOL     OW19905   6.326   0.998   0.712
 6003SOL    HW119906   6.236   1.027   0.699
 6003SOL    HW219907   6.331   0.977   0.805
 6004SOL     OW19908   7.317   2.953  12.387
 6004SOL    HW119909   7.373   2.992  12.321
 6004SOL    HW219910   7.235   2.933  12.341
 6005SOL     OW19911   7.571   4.005   7.827
 6005SOL    HW119912   7.619   3.932   7.789
 6005SOL    HW219913   7.481   3.993   7.797
 6006SOL     OW19914  11.218   6.344   3.789
 6006SOL    HW119915  11.289   6.299   3.834
 6006SOL    HW219916  11.242   6.437   3.792
 6007SOL     OW19917  12.622  11.150   5.671
 6007SOL    HW119918  12.584  11.206   5.603
 6007SOL    HW219919  12.662  11.211   5.733
 6008SOL     OW19920   7.421  13.792  13.310
 6008SOL    HW119921   7.440  13.799  13.217
 6008SOL    HW219922   7.357  13.722  13.316
 6009SOL     OW19923   5.569  13.594   3.662
 6009SOL    HW119924   5.523  13.677   3.646
 6009SOL    HW219925   5.659  13.620   3.679
 6010SOL     OW19926   4.494   4.584   0.414
 6010SOL    HW119927   4.424   4.607   0.353
 6010SOL    HW219928   4.525   4.498   0.384
 6011SOL     OW19929  13.490   3.638   7.182
 6011SOL    HW119930  13.487   3.542   7.185
 6011SOL    HW219931  13.575   3.658   7.144
 6012SOL     OW19932  14.386  10.309   9.782
 6012SOL    HW119933  14.370  10.317   9.876
 6012SOL    HW219934  14.310  10.351   9.742
 6013SOL     OW19935   7.602  10.440   9.033
 6013SOL    HW119936   7.564  10.352   9.035
 6013SOL    HW219937   7.591  10.468   8.942
 6014SOL     OW19938  10.996   3.908   4.952
 6014SOL    HW119939  10.996   3.974   5.021
 6014SOL    HW219940  10.937   3.944   4.885
 6015SOL     OW19941   7.873   6.411  14.536
 6015SOL    HW119942   7.927   6.340  14.502
 6015SOL    HW219943   7.794   6.368  14.568
 6016SOL     OW19944   0.140   6.551  11.851
 6016SOL    HW119945   0.207   6.487  11.827
 6016SOL    HW219946   0.062   6.497  11.871
 6017SOL     OW19947  14.447  14.707  13.761
 6017SOL    HW119948  14.490  14.793  13.757
 6017SOL    HW219949  14.520  14.645  13.761
 6018SOL     OW19950   7.985  11.487   0.413
 6018SOL    HW119951   7.922  11.557   0.431
 6018SOL    HW219952   8.064  11.512   0.461
 6019SOL     OW19953   7.026   2.128  10.655
 6019SOL    HW119954   6.941   2.112  10.696
 6019SOL    HW219955   7.007   2.135  10.562
 6020SOL     OW19956  10.791  11.123   0.971
 6020SOL    HW119957  10.729  11.154   1.037
 6020SOL    HW219958  10.770  11.173   0.892
 6021SOL     OW19959  12.915  14.440  14.622
 6021SOL    HW119960  12.972  14.393  14.682
 6021SOL    HW219961  12.971  14.506  14.581
 6022SOL     OW19962  10.820   6.163   7.772
 6022SOL    HW119963  10.733   6.200   7.756
 6022SOL    HW219964  10.813   6.122   7.858
 6023SOL     OW19965   1.609   7.461   6.912
 6023SOL    HW119966   1.542   7.397   6.938
 6023SOL    HW219967   1.634   7.504   6.994
 6024SOL     OW19968  12.452  11.676   7.918
 6024SOL    HW119969  12.433  11.759   7.873
 6024SOL    HW219970  12.431  11.609   7.854
 6025SOL     OW19971   7.326  14.355   1.402
 6025SOL    HW119972   7.356  14.409   1.475
 6025SOL    HW219973   7.406  14.318   1.364
 6026SOL     OW19974   5.637   5.251   5.478
 6026SOL    HW119975   5.621   5.156   5.477
 6026SOL    HW219976   5.603   5.280   5.562
 6027SOL     OW19977   2.529   4.783   1.227
 6027SOL    HW119978   2.527   4.859   1.285
 6027SOL    HW219979   2.600   4.801   1.166
 6028SOL     OW19980   1.183  13.432   7.367
 6028SOL    HW119981   1.151  13.520   7.390
 6028SOL    HW219982   1.153  13.419   7.277
 6029SOL     OW19983  12.529   7.700  12.398
 6029SOL    HW119984  12.556   7.749  12.320
 6029SOL    HW219985  12.575   7.744  12.470
 6030SOL     OW19986   3.788   6.907   7.819
 6030SOL    HW119987   3.803   6.861   7.736
 6030SOL    HW219988   3.785   6.837   7.885
 6031SOL     OW19989  13.066  11.363   2.385
 6031SOL    HW119990  13.101  11.276   2.403
 6031SOL    HW219991  12.978  11.347   2.352
 6032SOL     OW19992  14.092  13.284   7.979
 6032SOL    HW119993  14.084  13.242   8.065
 6032SOL    HW219994  14.107  13.211   7.919
 6033SOL     OW19995   7.985  11.901   0.205
 6033SOL    HW119996   7.951  11.891   0.116
 6033SOL    HW219997   7.918  11.861   0.261
 6034SOL     OW19998   4.405  11.143  10.719
 6034SOL    HW119999   4.420  11.059  10.763
 6034SOL    HW220000   4.460  11.139  10.640
 6035SOL     OW20001   0.982   6.474   4.340
 6035SOL    HW120002   1.065   6.461   4.385
 6035SOL    HW220003   0.973   6.398   4.283
 6036SOL     OW20004   7.086   8.163  13.441
 6036SOL    HW120005   7.065   8.095  13.504
 6036SOL    HW220006   7.088   8.118  13.357
 6037SOL     OW20007   5.865  11.237   6.682
 6037SOL    HW120008   5.785  11.193   6.708
 6037SOL    HW220009   5.935  11.180   6.713
 6038SOL     OW20010  11.643  10.009  13.728
 6038SOL    HW120011  11.682   9.977  13.646
 6038SOL    HW220012  11.644  10.105  13.718
 6039SOL     OW20013   1.456  13.857  13.617
 6039SOL    HW120014   1.381  13.877  13.561
 6039SOL    HW220015   1.509  13.936  13.616
 6040SOL     OW20016  12.645  14.587   3.044
 6040SOL    HW120017  12.682  14.502   3.064
 6040SOL    HW220018  12.569  14.568   2.988
 6041SOL     OW20019  12.819   7.384  11.023
 6041SOL    HW120020  12.819   7.302  11.071
 6041SOL    HW220021  12.910   7.398  10.999
 6042SOL     OW20022   4.806  10.485   5.272
 6042SOL    HW120023   4.771  10.563   5.316
 6042SOL    HW220024   4.884  10.516   5.227
 6043SOL     OW20025  11.936  11.609  10.245
 6043SOL    HW120026  11.910  11.675  10.309
 6043SOL    HW220027  11.858  11.592  10.194
 6044SOL     OW20028   2.082  14.091   3.451
 6044SOL    HW120029   2.106  14.049   3.368
 6044SOL    HW220030   2.129  14.042   3.517
 6045SOL     OW20031  12.055   7.608   9.265
 6045SOL    HW120032  12.007   7.683   9.230
 6045SOL    HW220033  12.038   7.537   9.203
 6046SOL     OW20034   7.484   5.569  10.419
 6046SOL    HW120035   7.578   5.570  10.435
 6046SOL    HW220036   7.473   5.614  10.335
 6047SOL     OW20037  11.135   0.625   2.506
 6047SOL    HW120038  11.229   0.642   2.516
 6047SOL    HW220039  11.104   0.611   2.595
 6048SOL     OW20040   5.976  10.552  12.838
 6048SOL    HW120041   5.994  10.567  12.931
 6048SOL    HW220042   5.985  10.638  12.798
 6049SOL     OW20043   6.785   0.445  12.382
 6049SOL    HW120044   6.728   0.475  12.452
 6049SOL    HW220045   6.755   0.356  12.363
 6050SOL     OW20046   3.005   1.428  14.302
 6050SOL    HW120047   2.953   1.418  14.222
 6050SOL    HW220048   2.951   1.390  14.371
 6051SOL     OW20049  11.602   1.442   3.305
 6051SOL    HW120050  11.632   1.532   3.314
 6051SOL    HW220051  11.557   1.440   3.221
 6052SOL     OW20052   3.645   7.854   3.633
 6052SOL    HW120053   3.630   7.762   3.612
 6052SOL    HW220054   3.558   7.889   3.650
 6053SOL     OW20055   6.187   7.440   2.863
 6053SOL    HW120056   6.243   7.512   2.833
 6053SOL    HW220057   6.199   7.372   2.797
 6054SOL     OW20058   7.886  10.580   3.025
 6054SOL    HW120059   7.826  10.600   2.953
 6054SOL    HW220060   7.968  10.556   2.981
 6055SOL     OW20061   8.622   8.536  12.927
 6055SOL    HW120062   8.551   8.555  12.865
 6055SOL    HW220063   8.594   8.458  12.973
 6056SOL     OW20064  10.500   5.039  10.163
 6056SOL    HW120065  10.427   5.004  10.112
 6056SOL    HW220066  10.578   5.010  10.115
 6057SOL     OW20067   6.077   2.837   8.078
 6057SOL    HW120068   6.164   2.803   8.055
 6057SOL    HW220069   6.023   2.759   8.088
 6058SOL     OW20070   6.406   2.433   9.815
 6058SOL    HW120071   6.479   2.372   9.820
 6058SOL    HW220072   6.372   2.437   9.904
 6059SOL     OW20073  10.570  10.153   9.364
 6059SOL    HW120074  10.519  10.139   9.444
 6059SOL    HW220075  10.505  10.173   9.297
 6060SOL     OW20076  10.444  14.105   1.587
 6060SOL    HW120077  10.368  14.082   1.641
 6060SOL    HW220078  10.494  14.166   1.641
 6061SOL     OW20079   2.926   6.762   3.610
 6061SOL    HW120080   2.975   6.839   3.640
 6061SOL    HW220081   2.891   6.723   3.689
 6062SOL     OW20082   1.210  11.903  14.283
 6062SOL    HW120083   1.214  11.827  14.225
 6062SOL    HW220084   1.172  11.869  14.364
 6063SOL     OW20085  13.067   1.128   1.074
 6063SOL    HW120086  13.126   1.156   1.144
 6063SOL    HW220087  13.092   1.037   1.057
 6064SOL     OW20088   7.547   3.461  14.800
 6064SOL    HW120089   7.535   3.544  14.846
 6064SOL    HW220090   7.513   3.395  14.860
 6065SOL     OW20091  12.630  12.638  14.561
 6065SOL    HW120092  12.707  12.597  14.522
 6065SOL    HW220093  12.664  12.716  14.605
 6066SOL     OW20094   1.208  10.073   7.440
 6066SOL    HW120095   1.228  10.125   7.363
 6066SOL    HW220096   1.114  10.055   7.434
 6067SOL     OW20097   9.666  14.418   3.058
 6067SOL    HW120098   9.698  14.328   3.071
 6067SOL    HW220099   9.743  14.473   3.074
 6068SOL     OW20100   4.637  11.247   8.944
 6068SOL    HW120101   4.619  11.341   8.945
 6068SOL    HW220102   4.694  11.233   9.019
 6069SOL     OW20103   3.176   1.702  14.527
 6069SOL    HW120104   3.247   1.760  14.553
 6069SOL    HW220105   3.100   1.760  14.516
 6070SOL     OW20106  11.203   0.654   0.078
 6070SOL    HW120107  11.137   0.609   0.024
 6070SOL    HW220108  11.152   0.708   0.138
 6071SOL     OW20109   8.549  11.882  13.258
 6071SOL    HW120110   8.563  11.976  13.262
 6071SOL    HW220111   8.577  11.857  13.170
 6072SOL     OW20112   0.164   7.065   8.789
 6072SOL    HW120113   0.229   7.117   8.741
 6072SOL    HW220114   0.089   7.123   8.799
 6073SOL     OW20115  13.457   6.855  13.497
 6073SOL    HW120116  13.550   6.848  13.517
 6073SOL    HW220117  13.424   6.766  13.501
 6074SOL     OW20118   7.127   4.571  11.564
 6074SOL    HW120119   7.211   4.600  11.530
 6074SOL    HW220120   7.100   4.501  11.505
 6075SOL     OW20121  11.802   0.955  12.549
 6075SOL    HW120122  11.858   1.033  12.546
 6075SOL    HW220123  11.845   0.898  12.613
 6076SOL     OW20124   5.788   3.426  11.112
 6076SOL    HW120125   5.787   3.351  11.171
 6076SOL    HW220126   5.784   3.387  11.024
 6077SOL     OW20127   9.503   5.884  13.374
 6077SOL    HW120128   9.510   5.919  13.462
 6077SOL    HW220129   9.576   5.822  13.368
 6078SOL     OW20130  11.949   6.678   4.202
 6078SOL    HW120131  11.973   6.607   4.261
 6078SOL    HW220132  11.862   6.656   4.171
 6079SOL     OW20133   3.706   5.203  14.832
 6079SOL    HW120134   3.732   5.140   0.027
 6079SOL    HW220135   3.623   5.239  14.864
 6080SOL     OW20136  13.608  10.271   7.512
 6080SOL    HW120137  13.519  10.242   7.528
 6080SOL    HW220138  13.610  10.289   7.417
 6081SOL     OW20139   5.506   4.868   8.805
 6081SOL    HW120140   5.501   4.818   8.887
 6081SOL    HW220141   5.574   4.933   8.820
 6082SOL     OW20142  12.681   4.961   3.318
 6082SOL    HW120143  12.706   5.051   3.337
 6082SOL    HW220144  12.708   4.911   3.395
 6083SOL     OW20145   1.557   5.737   0.551
 6083SOL    HW120146   1.586   5.776   0.633
 6083SOL    HW220147   1.463   5.723   0.562
 6084SOL     OW20148   3.276   7.116  14.674
 6084SOL    HW120149   3.316   7.098  14.759
 6084SOL    HW220150   3.350   7.133  14.616
 6085SOL     OW20151   5.881  10.940  12.571
 6085SOL    HW120152   5.916  10.997  12.503
 6085SOL    HW220153   5.836  10.998  12.631
 6086SOL     OW20154   0.633  11.664  12.167
 6086SOL    HW120155   0.579  11.595  12.206
 6086SOL    HW220156   0.616  11.657  12.073
 6087SOL     OW20157   5.074   4.518   6.150
 6087SOL    HW120158   5.121   4.595   6.183
 6087SOL    HW220159   5.040   4.475   6.228
 6088SOL     OW20160   7.475  12.684  12.737
 6088SOL    HW120161   7.495  12.634  12.657
 6088SOL    HW220162   7.380  12.696  12.735
 6089SOL     OW20163   1.471   2.591  13.607
 6089SOL    HW120164   1.558   2.611  13.642
 6089SOL    HW220165   1.411   2.625  13.673
 6090SOL     OW20166   8.795   3.085  12.628
 6090SOL    HW120167   8.746   3.093  12.710
 6090SOL    HW220168   8.884   3.065  12.656
 6091SOL     OW20169   6.436   2.452   3.795
 6091SOL    HW120170   6.436   2.521   3.862
 6091SOL    HW220171   6.375   2.483   3.728
 6092SOL     OW20172   3.859   0.144   1.872
 6092SOL    HW120173   3.894   0.148   1.960
 6092SOL    HW220174   3.799   0.070   1.873
 6093SOL     OW20175  14.348   2.135   4.417
 6093SOL    HW120176  14.285   2.063   4.416
 6093SOL    HW220177  14.421   2.103   4.365
 6094SOL     OW20178  10.600   3.438   4.930
 6094SOL    HW120179  10.672   3.376   4.933
 6094SOL    HW220180  10.643   3.524   4.921
 6095SOL     OW20181   6.294  11.392   1.236
 6095SOL    HW120182   6.230  11.406   1.165
 6095SOL    HW220183   6.274  11.461   1.299
 6096SOL     OW20184   3.993  10.581   7.306
 6096SOL    HW120185   3.972  10.673   7.324
 6096SOL    HW220186   3.909  10.535   7.311
 6097SOL     OW20187  11.853   3.238  14.794
 6097SOL    HW120188  11.936   3.255  14.839
 6097SOL    HW220189  11.810   3.172  14.849
 6098SOL     OW20190   7.913   9.064  10.723
 6098SOL    HW120191   7.931   9.061  10.630
 6098SOL    HW220192   7.835   9.009  10.735
 6099SOL     OW20193   2.608  11.955   2.632
 6099SOL    HW120194   2.647  11.896   2.697
 6099SOL    HW220195   2.561  11.897   2.572
 6100SOL     OW20196   3.452   3.697   5.420
 6100SOL    HW120197   3.544   3.689   5.447
 6100SOL    HW220198   3.407   3.731   5.497
 6101SOL     OW20199   9.066  13.311   9.630
 6101SOL    HW120200   9.027  13.318   9.717
 6101SOL    HW220201   9.001  13.349   9.572
 6102SOL     OW20202   5.262   2.844   4.222
 6102SOL    HW120203   5.202   2.818   4.291
 6102SOL    HW220204   5.254   2.939   4.217
 6103SOL     OW20205   6.388  12.261   4.547
 6103SOL    HW120206   6.307  12.227   4.509
 6103SOL    HW220207   6.382  12.356   4.534
 6104SOL     OW20208  13.857   9.911   5.552
 6104SOL    HW120209  13.911   9.987   5.576
 6104SOL    HW220210  13.789   9.947   5.496
 6105SOL     OW20211   0.195   5.184   5.017
 6105SOL    HW120212   0.284   5.168   5.048
 6105SOL    HW220213   0.145   5.201   5.097
 6106SOL     OW20214   4.491  11.747   5.278
 6106SOL    HW120215   4.553  11.789   5.338
 6106SOL    HW220216   4.514  11.654   5.282
 6107SOL     OW20217  11.964   3.206   8.003
 6107SOL    HW120218  12.045   3.225   7.956
 6107SOL    HW220219  11.985   3.128   8.055
 6108SOL     OW20220   9.369   4.280   9.179
 6108SOL    HW120221   9.404   4.209   9.126
 6108SOL    HW220222   9.446   4.331   9.206
 6109SOL     OW20223   8.826  12.882   6.253
 6109SOL    HW120224   8.840  12.975   6.268
 6109SOL    HW220225   8.735  12.867   6.277
 6110SOL     OW20226  11.326   9.891  12.249
 6110SOL    HW120227  11.386   9.950  12.204
 6110SOL    HW220228  11.330   9.810  12.199
 6111SOL     OW20229   4.076   0.076  12.676
 6111SOL    HW120230   4.061   0.053  12.585
 6111SOL    HW220231   4.171   0.081  12.684
 6112SOL     OW20232   8.809   4.967   8.705
 6112SOL    HW120233   8.837   5.009   8.624
 6112SOL    HW220234   8.864   5.006   8.773
 6113SOL     OW20235  14.819  14.332  12.502
 6113SOL    HW120236  14.869  14.294  12.573
 6113SOL    HW220237  14.769  14.403  12.542
 6114SOL     OW20238  11.392  13.759  10.591
 6114SOL    HW120239  11.316  13.746  10.534
 6114SOL    HW220240  11.413  13.852  10.582
 6115SOL     OW20241   3.980  10.364   4.671
 6115SOL    HW120242   3.922  10.329   4.738
 6115SOL    HW220243   3.942  10.449   4.648
 6116SOL     OW20244   4.092  10.682  11.334
 6116SOL    HW120245   4.188  10.677  11.333
 6116SOL    HW220246   4.066  10.660  11.245
 6117SOL     OW20247   1.506  12.889   2.197
 6117SOL    HW120248   1.482  12.928   2.280
 6117SOL    HW220249   1.573  12.825   2.219
 6118SOL     OW20250   7.056   3.016   0.495
 6118SOL    HW120251   7.126   3.080   0.508
 6118SOL    HW220252   6.977   3.063   0.522
 6119SOL     OW20253  11.998   1.704   8.626
 6119SOL    HW120254  12.042   1.623   8.653
 6119SOL    HW220255  12.066   1.756   8.584
 6120SOL     OW20256   4.224  12.970  10.050
 6120SOL    HW120257   4.238  12.879  10.077
 6120SOL    HW220258   4.216  13.019  10.132
 6121SOL     OW20259   2.999   0.237   9.611
 6121SOL    HW120260   2.956   0.305   9.559
 6121SOL    HW220261   2.966   0.250   9.700
 6122SOL     OW20262  12.094   6.358   8.765
 6122SOL    HW120263  12.162   6.350   8.698
 6122SOL    HW220264  12.034   6.423   8.730
 6123SOL     OW20265   9.989  10.877  13.351
 6123SOL    HW120266   9.938  10.913  13.423
 6123SOL    HW220267   9.923  10.842  13.290
 6124SOL     OW20268  12.405   0.568  10.119
 6124SOL    HW120269  12.490   0.526  10.125
 6124SOL    HW220270  12.423   0.654  10.080
 6125SOL     OW20271   6.805   5.475   2.932
 6125SOL    HW120272   6.736   5.463   2.867
 6125SOL    HW220273   6.851   5.391   2.934
 6126SOL     OW20274   8.572  10.676   4.935
 6126SOL    HW120275   8.552  10.769   4.919
 6126SOL    HW220276   8.663  10.666   4.908
 6127SOL     OW20277   3.979  14.640   0.739
 6127SOL    HW120278   3.957  14.605   0.653
 6127SOL    HW220279   3.921  14.715   0.750
 6128SOL     OW20280   5.630  12.169  12.124
 6128SOL    HW120281   5.608  12.147  12.034
 6128SOL    HW220282   5.548  12.161  12.172
 6129SOL     OW20283   9.160  11.786   4.360
 6129SOL    HW120284   9.138  11.713   4.303
 6129SOL    HW220285   9.145  11.753   4.449
 6130SOL     OW20286  13.654   7.301  14.206
 6130SOL    HW120287  13.735   7.352  14.214
 6130SOL    HW220288  13.666   7.227  14.264
 6131SOL     OW20289  14.289  13.492   1.341
 6131SOL    HW120290  14.271  13.564   1.281
 6131SOL    HW220291  14.218  13.495   1.405
 6132SOL     OW20292   0.400  11.635  14.509
 6132SOL    HW120293   0.447  11.686  14.575
 6132SOL    HW220294   0.307  11.653  14.527
 6133SOL     OW20295   6.026   4.241   4.047
 6133SOL    HW120296   6.050   4.332   4.061
 6133SOL    HW220297   5.988   4.212   4.130
 6134SOL     OW20298  11.880   8.577   7.979
 6134SOL    HW120299  11.838   8.662   7.989
 6134SOL    HW220300  11.968   8.590   8.014
 6135SOL     OW20301   0.487  12.592   7.888
 6135SOL    HW120302   0.552  12.620   7.823
 6135SOL    HW220303   0.415  12.557   7.837
 6136SOL     OW20304   9.879  11.317   8.961
 6136SOL    HW120305   9.829  11.257   9.016
 6136SOL    HW220306   9.968  11.282   8.963
 6137SOL     OW20307  10.986  12.085   1.382
 6137SOL    HW120308  11.020  12.061   1.296
 6137SOL    HW220309  11.059  12.128   1.426
 6138SOL     OW20310  13.057   1.489  11.499
 6138SOL    HW120311  12.979   1.434  11.505
 6138SOL    HW220312  13.082   1.504  11.591
 6139SOL     OW20313   9.397   8.753   0.972
 6139SOL    HW120314   9.380   8.754   0.878
 6139SOL    HW220315   9.385   8.844   1.000
 6140SOL     OW20316   4.952  12.903   4.229
 6140SOL    HW120317   4.865  12.871   4.250
 6140SOL    HW220318   5.003  12.892   4.309
 6141SOL     OW20319   6.036   3.836   1.485
 6141SOL    HW120320   6.056   3.907   1.545
 6141SOL    HW220321   6.118   3.820   1.439
 6142SOL     OW20322   3.078   9.132   1.482
 6142SOL    HW120323   3.124   9.133   1.398
 6142SOL    HW220324   3.148   9.127   1.547
 6143SOL     OW20325   6.949   9.124   0.092
 6143SOL    HW120326   7.008   9.176   0.037
 6143SOL    HW220327   6.917   9.186   0.157
 6144SOL     OW20328  11.354   1.925  10.018
 6144SOL    HW120329  11.354   1.835   9.985
 6144SOL    HW220330  11.272   1.932  10.068
 6145SOL     OW20331   9.933  10.574  14.334
 6145SOL    HW120332  10.015  10.595  14.378
 6145SOL    HW220333   9.899  10.499  14.383
 6146SOL     OW20334   8.344   7.066   0.588
 6146SOL    HW120335   8.261   7.031   0.618
 6146SOL    HW220336   8.397   6.988   0.568
 6147SOL     OW20337   4.958   6.024   2.741
 6147SOL    HW120338   5.045   6.055   2.715
 6147SOL    HW220339   4.959   6.025   2.836
 6148SOL     OW20340  12.391   9.657  10.863
 6148SOL    HW120341  12.480   9.678  10.835
 6148SOL    HW220342  12.350   9.618  10.785
 6149SOL     OW20343   1.517   7.742   7.627
 6149SOL    HW120344   1.513   7.689   7.547
 6149SOL    HW220345   1.471   7.690   7.693
 6150SOL     OW20346  10.993   9.449   9.126
 6150SOL    HW120347  10.980   9.491   9.041
 6150SOL    HW220348  10.966   9.515   9.190
 6151SOL     OW20349  14.536  13.424  13.835
 6151SOL    HW120350  14.448  13.455  13.813
 6151SOL    HW220351  14.527  13.385  13.921
 6152SOL     OW20352  14.365   0.860   4.889
 6152SOL    HW120353  14.345   0.767   4.890
 6152SOL    HW220354  14.446   0.868   4.939
 6153SOL     OW20355   1.123  10.926   6.202
 6153SOL    HW120356   1.106  10.833   6.191
 6153SOL    HW220357   1.153  10.935   6.293
 6154SOL     OW20358   8.610   4.775   5.216
 6154SOL    HW120359   8.610   4.716   5.292
 6154SOL    HW220360   8.522   4.813   5.217
 6155SOL     OW20361  13.334   7.742  13.523
 6155SOL    HW120362  13.288   7.825  13.514
 6155SOL    HW220363  13.386   7.735  13.443
 6156SOL     OW20364  12.878   3.409  13.774
 6156SOL    HW120365  12.786   3.386  13.760
 6156SOL    HW220366  12.877   3.500  13.802
 6157SOL     OW20367   3.879  11.853   9.282
 6157SOL    HW120368   3.809  11.788   9.284
 6157SOL    HW220369   3.843  11.929   9.328
 6158SOL     OW20370   3.908   6.592   4.533
 6158SOL    HW120371   3.816   6.578   4.554
 6158SOL    HW220372   3.926   6.682   4.563
 6159SOL     OW20373   9.548  13.330   9.940
 6159SOL    HW120374   9.593  13.342   9.857
 6159SOL    HW220375   9.563  13.411   9.988
 6160SOL     OW20376   5.786   7.268   5.124
 6160SOL    HW120377   5.710   7.240   5.073
 6160SOL    HW220378   5.861   7.229   5.079
 6161SOL     OW20379   1.289   5.542   0.343
 6161SOL    HW120380   1.290   5.510   0.253
 6161SOL    HW220381   1.325   5.470   0.395
 6162SOL     OW20382   9.497   2.212   3.948
 6162SOL    HW120383   9.460   2.135   3.991
 6162SOL    HW220384   9.459   2.211   3.860
 6163SOL     OW20385  10.491   6.344   4.560
 6163SOL    HW120386  10.536   6.395   4.627
 6163SOL    HW220387  10.471   6.408   4.491
 6164SOL     OW20388  11.236   3.062   0.090
 6164SOL    HW120389  11.302   3.047   0.157
 6164SOL    HW220390  11.210   2.975   0.061
 6165SOL     OW20391   0.765   4.666   8.711
 6165SOL    HW120392   0.780   4.757   8.685
 6165SOL    HW220393   0.723   4.626   8.634
 6166SOL     OW20394   1.456  13.598   7.365
 6166SOL    HW120395   1.386  13.534   7.359
 6166SOL    HW220396   1.444  13.655   7.289
 6167SOL     OW20397   0.858   7.390   4.731
 6167SOL    HW120398   0.822   7.321   4.675
 6167SOL    HW220399   0.829   7.472   4.691
 6168SOL     OW20400   5.082  12.309   0.995
 6168SOL    HW120401   5.165  12.266   1.015
 6168SOL    HW220402   5.023  12.282   1.065
 6169SOL     OW20403   1.763   7.420   6.162
 6169SOL    HW120404   1.785   7.363   6.235
 6169SOL    HW220405   1.731   7.501   6.203
 6170SOL     OW20406  10.024  12.413   2.921
 6170SOL    HW120407  10.087  12.345   2.895
 6170SOL    HW220408  10.028  12.413   3.017
 6171SOL     OW20409  10.515   5.099  14.227
 6171SOL    HW120410  10.570   5.023  14.208
 6171SOL    HW220411  10.533   5.120  14.318
 6172SOL     OW20412  11.324   4.248   9.332
 6172SOL    HW120413  11.322   4.291   9.418
 6172SOL    HW220414  11.240   4.203   9.326
 6173SOL     OW20415   7.577   8.675  14.090
 6173SOL    HW120416   7.537   8.757  14.064
 6173SOL    HW220417   7.577   8.621  14.011
 6174SOL     OW20418  11.480   7.495   4.390
 6174SOL    HW120419  11.549   7.556   4.362
 6174SOL    HW220420  11.407   7.514   4.331
 6175SOL     OW20421   7.675   8.821  10.631
 6175SOL    HW120422   7.655   8.824  10.725
 6175SOL    HW220423   7.676   8.728  10.609
 6176SOL     OW20424  10.464   2.239   1.755
 6176SOL    HW120425  10.388   2.228   1.698
 6176SOL    HW220426  10.441   2.193   1.836
 6177SOL     OW20427   0.720  14.140  11.833
 6177SOL    HW120428   0.718  14.045  11.834
 6177SOL    HW220429   0.670  14.164  11.755
 6178SOL     OW20430   7.960   5.570  10.202
 6178SOL    HW120431   7.965   5.494  10.145
 6178SOL    HW220432   7.979   5.644  10.145
 6179SOL     OW20433  14.470   3.274   8.313
 6179SOL    HW120434  14.389   3.324   8.300
 6179SOL    HW220435  14.456   3.194   8.262
 6180SOL     OW20436  12.157  11.642   3.666
 6180SOL    HW120437  12.085  11.600   3.713
 6180SOL    HW220438  12.196  11.571   3.614
 6181SOL     OW20439   6.886   0.066   3.479
 6181SOL    HW120440   6.828   0.044   3.552
 6181SOL    HW220441   6.969   0.025   3.502
 6182SOL     OW20442  12.071   4.670   1.879
 6182SOL    HW120443  12.011   4.722   1.825
 6182SOL    HW220444  12.093   4.728   1.952
 6183SOL     OW20445   5.309  10.854   3.236
 6183SOL    HW120446   5.359  10.796   3.178
 6183SOL    HW220447   5.373  10.880   3.303
 6184SOL     OW20448  12.701   9.187   7.859
 6184SOL    HW120449  12.685   9.170   7.952
 6184SOL    HW220450  12.738   9.105   7.826
 6185SOL     OW20451   3.008   8.081   0.069
 6185SOL    HW120452   3.055   8.060  14.860
 6185SOL    HW220453   2.970   8.168   0.053
 6186SOL     OW20454   9.570   0.952   6.828
 6186SOL    HW120455   9.652   0.965   6.876
 6186SOL    HW220456   9.511   1.018   6.864
 6187SOL     OW20457   2.639   5.192   3.986
 6187SOL    HW120458   2.611   5.259   4.049
 6187SOL    HW220459   2.692   5.132   4.038
 6188SOL     OW20460   3.586   7.261   1.104
 6188SOL    HW120461   3.643   7.236   1.177
 6188SOL    HW220462   3.497   7.245   1.136
 6189SOL     OW20463   5.121  10.476  11.338
 6189SOL    HW120464   5.161  10.399  11.296
 6189SOL    HW220465   5.105  10.449  11.428
 6190SOL     OW20466  13.484   1.070  12.215
 6190SOL    HW120467  13.563   1.123  12.202
 6190SOL    HW220468  13.417   1.134  12.242
 6191SOL     OW20469   5.222  12.978   0.079
 6191SOL    HW120470   5.282  12.918   0.123
 6191SOL    HW220471   5.178  13.024   0.151
 6192SOL     OW20472  10.457   2.260   9.510
 6192SOL    HW120473  10.548   2.267   9.482
 6192SOL    HW220474  10.412   2.332   9.466
 6193SOL     OW20475  10.816   3.289   9.361
 6193SOL    HW120476  10.785   3.378   9.342
 6193SOL    HW220477  10.844   3.292   9.452
 6194SOL     OW20478   9.309   0.962   8.138
 6194SOL    HW120479   9.302   1.019   8.062
 6194SOL    HW220480   9.404   0.951   8.151
 6195SOL     OW20481   1.073   8.279   1.045
 6195SOL    HW120482   0.993   8.228   1.031
 6195SOL    HW220483   1.110   8.243   1.126
 6196SOL     OW20484   8.414   9.702   0.816
 6196SOL    HW120485   8.420   9.699   0.721
 6196SOL    HW220486   8.467   9.777   0.841
 6197SOL     OW20487  13.840   3.730   6.387
 6197SOL    HW120488  13.819   3.666   6.319
 6197SOL    HW220489  13.755   3.753   6.425
 6198SOL     OW20490   1.325  14.478  12.246
 6198SOL    HW120491   1.410  14.485  12.288
 6198SOL    HW220492   1.265  14.524  12.305
 6199SOL     OW20493   4.792  13.035   5.896
 6199SOL    HW120494   4.704  13.028   5.933
 6199SOL    HW220495   4.786  12.991   5.811
 6200SOL     OW20496   6.795   4.816  14.256
 6200SOL    HW120497   6.881   4.842  14.222
 6200SOL    HW220498   6.799   4.721  14.263
 6201SOL     OW20499   7.373   1.871   8.087
 6201SOL    HW120500   7.356   1.894   7.996
 6201SOL    HW220501   7.341   1.947   8.137
 6202SOL     OW20502  12.990   7.230  12.794
 6202SOL    HW120503  12.973   7.276  12.876
 6202SOL    HW220504  13.076   7.260  12.766
 6203SOL     OW20505   6.610   5.011   1.065
 6203SOL    HW120506   6.574   5.060   1.138
 6203SOL    HW220507   6.676   5.069   1.027
 6204SOL     OW20508  13.090   5.061   4.946
 6204SOL    HW120509  13.181   5.083   4.926
 6204SOL    HW220510  13.057   5.135   4.997
 6205SOL     OW20511  13.767  12.164   4.041
 6205SOL    HW120512  13.780  12.123   4.126
 6205SOL    HW220513  13.855  12.191   4.014
 6206SOL     OW20514   4.489   0.512   0.819
 6206SOL    HW120515   4.562   0.534   0.877
 6206SOL    HW220516   4.463   0.596   0.780
 6207SOL     OW20517   1.061   9.843  13.346
 6207SOL    HW120518   1.109   9.924  13.359
 6207SOL    HW220519   1.121   9.774  13.375
 6208SOL     OW20520   6.819   0.679   9.896
 6208SOL    HW120521   6.798   0.754   9.951
 6208SOL    HW220522   6.887   0.712   9.836
 6209SOL     OW20523  10.652  11.422   3.502
 6209SOL    HW120524  10.623  11.448   3.590
 6209SOL    HW220525  10.571  11.400   3.456
 6210SOL     OW20526  14.530  11.064   8.962
 6210SOL    HW120527  14.606  11.095   9.013
 6210SOL    HW220528  14.476  11.018   9.025
 6211SOL     OW20529   9.342   4.846   1.222
 6211SOL    HW120530   9.370   4.925   1.176
 6211SOL    HW220531   9.281   4.803   1.162
 6212SOL     OW20532   2.517   6.392  13.949
 6212SOL    HW120533   2.509   6.356  14.037
 6212SOL    HW220534   2.579   6.334  13.904
 6213SOL     OW20535   8.655  10.368   9.702
 6213SOL    HW120536   8.697  10.401   9.782
 6213SOL    HW220537   8.562  10.387   9.714
 6214SOL     OW20538  12.945  13.633   1.684
 6214SOL    HW120539  13.006  13.637   1.610
 6214SOL    HW220540  12.926  13.724   1.704
 6215SOL     OW20541   5.080   8.479   5.650
 6215SOL    HW120542   5.167   8.499   5.685
 6215SOL    HW220543   5.043   8.565   5.627
 6216SOL     OW20544   8.081   3.670   1.139
 6216SOL    HW120545   8.010   3.651   1.077
 6216SOL    HW220546   8.038   3.717   1.211
 6217SOL     OW20547   9.883  13.159   0.727
 6217SOL    HW120548   9.853  13.071   0.751
 6217SOL    HW220549   9.943  13.144   0.655
 6218SOL     OW20550   1.861   3.927   2.703
 6218SOL    HW120551   1.810   3.892   2.776
 6218SOL    HW220552   1.857   4.022   2.715
 6219SOL     OW20553  11.806   1.220  12.733
 6219SOL    HW120554  11.715   1.224  12.704
 6219SOL    HW220555  11.857   1.236  12.654
 6220SOL     OW20556  10.868  13.376   1.302
 6220SOL    HW120557  10.876  13.464   1.340
 6220SOL    HW220558  10.856  13.392   1.208
 6221SOL     OW20559   1.786   3.708   8.042
 6221SOL    HW120560   1.871   3.699   8.085
 6221SOL    HW220561   1.741   3.776   8.092
 6222SOL     OW20562   4.743  13.192   8.742
 6222SOL    HW120563   4.771  13.225   8.657
 6222SOL    HW220564   4.719  13.270   8.792
 6223SOL     OW20565   4.863   5.530  10.154
 6223SOL    HW120566   4.858   5.590  10.080
 6223SOL    HW220567   4.866   5.587  10.231
 6224SOL     OW20568   3.049  14.611  13.035
 6224SOL    HW120569   2.989  14.550  13.077
 6224SOL    HW220570   3.066  14.678  13.101
 6225SOL     OW20571  10.777  12.247   7.457
 6225SOL    HW120572  10.870  12.257   7.439
 6225SOL    HW220573  10.733  12.293   7.385
 6226SOL     OW20574   9.486   6.760  12.879
 6226SOL    HW120575   9.582   6.752  12.884
 6226SOL    HW220576   9.471   6.824  12.810
 6227SOL     OW20577   7.241   2.604   7.328
 6227SOL    HW120578   7.257   2.510   7.334
 6227SOL    HW220579   7.198   2.627   7.410
 6228SOL     OW20580   0.923   6.488   3.979
 6228SOL    HW120581   0.889   6.444   4.057
 6228SOL    HW220582   0.992   6.430   3.947
 6229SOL     OW20583   6.965   6.936   5.089
 6229SOL    HW120584   6.975   6.979   5.174
 6229SOL    HW220585   7.019   6.857   5.096
 6230SOL     OW20586  10.263  10.288  14.409
 6230SOL    HW120587  10.356  10.303  14.427
 6230SOL    HW220588  10.262  10.223  14.339
 6231SOL     OW20589   0.064  13.516  12.490
 6231SOL    HW120590   0.043  13.450  12.555
 6231SOL    HW220591   0.032  13.598  12.528
 6232SOL     OW20592   9.033   2.652   5.027
 6232SOL    HW120593   9.127   2.666   5.037
 6232SOL    HW220594   8.993   2.731   5.064
 6233SOL     OW20595  10.760   2.111   5.405
 6233SOL    HW120596  10.698   2.091   5.476
 6233SOL    HW220597  10.796   2.025   5.382
 6234SOL     OW20598   8.661   1.664  12.917
 6234SOL    HW120599   8.716   1.629  12.987
 6234SOL    HW220600   8.708   1.742  12.886
 6235SOL     OW20601   7.734  14.559   9.458
 6235SOL    HW120602   7.794  14.568   9.384
 6235SOL    HW220603   7.736  14.643   9.502
 6236SOL     OW20604   1.844  10.228   8.590
 6236SOL    HW120605   1.937  10.221   8.610
 6236SOL    HW220606   1.824  10.322   8.598
 6237SOL     OW20607   7.883   2.549   9.274
 6237SOL    HW120608   7.862   2.624   9.329
 6237SOL    HW220609   7.928   2.488   9.332
 6238SOL     OW20610   8.681   9.260   3.947
 6238SOL    HW120611   8.737   9.290   4.018
 6238SOL    HW220612   8.632   9.186   3.984
 6239SOL     OW20613  11.425   5.206   5.507
 6239SOL    HW120614  11.399   5.282   5.559
 6239SOL    HW220615  11.375   5.215   5.426
 6240SOL     OW20616   8.987   4.181  14.737
 6240SOL    HW120617   9.018   4.199  14.649
 6240SOL    HW220618   9.049   4.117  14.772
 6241SOL     OW20619   6.332  10.803   4.141
 6241SOL    HW120620   6.398  10.754   4.093
 6241SOL    HW220621   6.327  10.759   4.227
 6242SOL     OW20622   9.101   1.932  14.365
 6242SOL    HW120623   9.108   2.023  14.334
 6242SOL    HW220624   9.044   1.937  14.442
 6243SOL     OW20625   7.981  12.704   6.803
 6243SOL    HW120626   7.911  12.683   6.741
 6243SOL    HW220627   8.028  12.622   6.814
 6244SOL     OW20628   4.868   4.880   5.116
 6244SOL    HW120629   4.878   4.802   5.061
 6244SOL    HW220630   4.802   4.856   5.180
 6245SOL     OW20631   3.116   4.172   3.978
 6245SOL    HW120632   3.092   4.093   3.930
 6245SOL    HW220633   3.178   4.142   4.044
 6246SOL     OW20634   6.820   7.105   7.624
 6246SOL    HW120635   6.797   7.154   7.545
 6246SOL    HW220636   6.738   7.067   7.654
 6247SOL     OW20637   2.008   1.668   6.429
 6247SOL    HW120638   1.968   1.753   6.409
 6247SOL    HW220639   1.953   1.633   6.499
 6248SOL     OW20640  14.855   0.829  14.461
 6248SOL    HW120641   0.022   0.744  14.439
 6248SOL    HW220642  14.818   0.817  14.548
 6249SOL     OW20643  14.213   9.112   5.456
 6249SOL    HW120644  14.219   9.075   5.544
 6249SOL    HW220645  14.259   9.049   5.400
 6250SOL     OW20646   1.431   2.578   0.073
 6250SOL    HW120647   1.516   2.564   0.032
 6250SOL    HW220648   1.387   2.641   0.017
 6251SOL     OW20649   4.175   2.459   2.392
 6251SOL    HW120650   4.267   2.450   2.418
 6251SOL    HW220651   4.127   2.405   2.455
 6252SOL     OW20652   5.529   1.680  10.413
 6252SOL    HW120653   5.534   1.656  10.505
 6252SOL    HW220654   5.599   1.630  10.371
 6253SOL     OW20655   6.539   2.633  14.395
 6253SOL    HW120656   6.508   2.570  14.460
 6253SOL    HW220657   6.466   2.693  14.383
 6254SOL     OW20658   9.697   0.237  11.357
 6254SOL    HW120659   9.790   0.248  11.379
 6254SOL    HW220660   9.675   0.150  11.391
 6255SOL     OW20661  10.170   6.777  12.091
 6255SOL    HW120662  10.227   6.782  12.015
 6255SOL    HW220663  10.117   6.698  12.077
 6256SOL     OW20664   5.057   1.367   3.169
 6256SOL    HW120665   5.073   1.336   3.080
 6256SOL    HW220666   5.039   1.460   3.160
 6257SOL     OW20667  14.061  13.135   1.277
 6257SOL    HW120668  14.048  13.091   1.194
 6257SOL    HW220669  13.980  13.121   1.325
 6258SOL     OW20670   7.987  12.833   4.794
 6258SOL    HW120671   7.919  12.886   4.835
 6258SOL    HW220672   8.069  12.865   4.832
 6259SOL     OW20673   9.645  10.620  10.186
 6259SOL    HW120674   9.686  10.567  10.254
 6259SOL    HW220675   9.670  10.710  10.207
 6260SOL     OW20676   2.511   0.895   1.952
 6260SOL    HW120677   2.477   0.941   1.876
 6260SOL    HW220678   2.534   0.808   1.920
 6261SOL     OW20679  12.567   1.173  11.671
 6261SOL    HW120680  12.499   1.172  11.738
 6261SOL    HW220681  12.583   1.081  11.651
 6262SOL     OW20682   4.712   8.214  10.575
 6262SOL    HW120683   4.650   8.146  10.600
 6262SOL    HW220684   4.683   8.292  10.621
 6263SOL     OW20685   5.957   7.036   5.828
 6263SOL    HW120686   5.972   7.120   5.871
 6263SOL    HW220687   5.877   7.002   5.868
 6264SOL     OW20688  11.861   6.181   5.279
 6264SOL    HW120689  11.856   6.277   5.275
 6264SOL    HW220690  11.828   6.152   5.195
 6265SOL     OW20691   4.408   0.367  14.074
 6265SOL    HW120692   4.467   0.377  14.000
 6265SOL    HW220693   4.412   0.452  14.119
 6266SOL     OW20694   6.083  11.743  10.079
 6266SOL    HW120695   6.082  11.665  10.134
 6266SOL    HW220696   6.162  11.790  10.105
 6267SOL     OW20697   0.507   2.628   1.709
 6267SOL    HW120698   0.584   2.654   1.660
 6267SOL    HW220699   0.528   2.649   1.800
 6268SOL     OW20700   2.180  12.898  13.698
 6268SOL    HW120701   2.135  12.974  13.660
 6268SOL    HW220702   2.166  12.828  13.634
 6269SOL     OW20703  10.226  12.976   4.044
 6269SOL    HW120704  10.214  12.979   3.949
 6269SOL    HW220705  10.151  12.925   4.076
 6270SOL     OW20706  10.637  10.061   5.113
 6270SOL    HW120707  10.652  10.054   5.208
 6270SOL    HW220708  10.542  10.055   5.104
 6271SOL     OW20709   5.639   8.500   2.740
 6271SOL    HW120710   5.724   8.468   2.771
 6271SOL    HW220711   5.654   8.522   2.648
 6272SOL     OW20712   8.080   3.438   9.300
 6272SOL    HW120713   8.006   3.442   9.240
 6272SOL    HW220714   8.156   3.428   9.242
 6273SOL     OW20715   3.920   2.986   9.373
 6273SOL    HW120716   3.893   3.036   9.450
 6273SOL    HW220717   3.985   2.923   9.406
 6274SOL     OW20718  10.588  10.474  11.724
 6274SOL    HW120719  10.612  10.381  11.713
 6274SOL    HW220720  10.581  10.486  11.818
 6275SOL     OW20721  12.706   9.168   3.556
 6275SOL    HW120722  12.665   9.199   3.475
 6275SOL    HW220723  12.785   9.222   3.565
 6276SOL     OW20724  12.808   1.412  10.312
 6276SOL    HW120725  12.829   1.394  10.404
 6276SOL    HW220726  12.741   1.346  10.290
 6277SOL     OW20727  14.859  13.069   9.585
 6277SOL    HW120728   0.016  13.077   9.494
 6277SOL    HW220729  14.790  13.003   9.583
 6278SOL     OW20730   5.358   9.641   4.436
 6278SOL    HW120731   5.367   9.557   4.390
 6278SOL    HW220732   5.410   9.632   4.515
 6279SOL     OW20733   3.798  13.471   6.008
 6279SOL    HW120734   3.762  13.413   5.941
 6279SOL    HW220735   3.725  13.489   6.067
 6280SOL     OW20736  12.139   9.349   2.060
 6280SOL    HW120737  12.064   9.293   2.038
 6280SOL    HW220738  12.104   9.438   2.056
 6281SOL     OW20739   2.914  10.405   5.392
 6281SOL    HW120740   2.824  10.411   5.360
 6281SOL    HW220741   2.968  10.438   5.320
 6282SOL     OW20742   8.318  13.159   4.492
 6282SOL    HW120743   8.302  13.230   4.430
 6282SOL    HW220744   8.315  13.201   4.578
 6283SOL     OW20745  10.539   8.253  11.659
 6283SOL    HW120746  10.499   8.279  11.742
 6283SOL    HW220747  10.473   8.199  11.616
 6284SOL     OW20748  14.569   3.656  13.459
 6284SOL    HW120749  14.625   3.728  13.489
 6284SOL    HW220750  14.549   3.606  13.538
 6285SOL     OW20751   4.876   3.140   9.917
 6285SOL    HW120752   4.816   3.123   9.989
 6285SOL    HW220753   4.820   3.169   9.845
 6286SOL     OW20754  14.797   5.375   3.391
 6286SOL    HW120755  14.801   5.280   3.405
 6286SOL    HW220756   0.006   5.395   3.343
 6287SOL     OW20757   7.017   8.186   7.937
 6287SOL    HW120758   6.953   8.170   7.868
 6287SOL    HW220759   6.974   8.157   8.017
 6288SOL     OW20760   8.374   7.651   8.899
 6288SOL    HW120761   8.361   7.735   8.944
 6288SOL    HW220762   8.286   7.622   8.877
 6289SOL     OW20763   4.474  11.859   9.281
 6289SOL    HW120764   4.386  11.829   9.304
 6289SOL    HW220765   4.518  11.782   9.246
 6290SOL     OW20766   3.891   0.609   7.738
 6290SOL    HW120767   3.908   0.675   7.805
 6290SOL    HW220768   3.943   0.533   7.765
 6291SOL     OW20769   5.292   6.381   2.007
 6291SOL    HW120770   5.275   6.343   2.093
 6291SOL    HW220771   5.275   6.309   1.946
 6292SOL     OW20772   3.135   0.650   7.330
 6292SOL    HW120773   3.164   0.688   7.413
 6292SOL    HW220774   3.051   0.693   7.312
 6293SOL     OW20775  13.332   6.793   6.880
 6293SOL    HW120776  13.407   6.845   6.850
 6293SOL    HW220777  13.311   6.737   6.806
 6294SOL     OW20778  11.532   7.720  11.050
 6294SOL    HW120779  11.618   7.681  11.064
 6294SOL    HW220780  11.526   7.789  11.116
 6295SOL     OW20781   8.296  13.537   7.443
 6295SOL    HW120782   8.296  13.631   7.463
 6295SOL    HW220783   8.319  13.495   7.526
 6296SOL     OW20784   5.441   9.848  10.150
 6296SOL    HW120785   5.535   9.859  10.163
 6296SOL    HW220786   5.430   9.755  10.132
 6297SOL     OW20787   8.206   2.362  10.554
 6297SOL    HW120788   8.162   2.290  10.509
 6297SOL    HW220789   8.230   2.423  10.484
 6298SOL     OW20790   8.810   3.199   5.479
 6298SOL    HW120791   8.851   3.232   5.398
 6298SOL    HW220792   8.746   3.134   5.449
 6299SOL     OW20793  10.463  10.619  11.027
 6299SOL    HW120794  10.528  10.689  11.022
 6299SOL    HW220795  10.452  10.603  11.121
 6300SOL     OW20796  11.122  10.811  13.092
 6300SOL    HW120797  11.030  10.837  13.087
 6300SOL    HW220798  11.126  10.727  13.047
 6301SOL     OW20799  13.084  10.509  12.268
 6301SOL    HW120800  13.036  10.498  12.350
 6301SOL    HW220801  13.115  10.600  12.270
 6302SOL     OW20802   2.088   4.138  12.286
 6302SOL    HW120803   2.036   4.160  12.363
 6302SOL    HW220804   2.151   4.209  12.278
 6303SOL     OW20805   4.651   3.832   6.115
 6303SOL    HW120806   4.605   3.762   6.161
 6303SOL    HW220807   4.644   3.908   6.174
 6304SOL     OW20808   6.251   0.490  14.503
 6304SOL    HW120809   6.163   0.460  14.526
 6304SOL    HW220810   6.306   0.457  14.574
 6305SOL     OW20811   1.922   6.592  11.070
 6305SOL    HW120812   1.987   6.632  11.012
 6305SOL    HW220813   1.862   6.664  11.092
 6306SOL     OW20814   5.412   6.815   6.638
 6306SOL    HW120815   5.496   6.834   6.597
 6306SOL    HW220816   5.405   6.878   6.710
 6307SOL     OW20817   0.780   5.098   4.980
 6307SOL    HW120818   0.767   5.181   4.935
 6307SOL    HW220819   0.861   5.111   5.030
 6308SOL     OW20820   1.026   0.544   3.003
 6308SOL    HW120821   1.009   0.534   2.909
 6308SOL    HW220822   1.000   0.460   3.041
 6309SOL     OW20823   2.941   0.284   8.595
 6309SOL    HW120824   2.935   0.207   8.651
 6309SOL    HW220825   2.852   0.319   8.593
 6310SOL     OW20826   9.004   8.911  14.391
 6310SOL    HW120827   9.097   8.891  14.397
 6310SOL    HW220828   9.000   9.006  14.385
 6311SOL     OW20829  13.810   5.849   9.294
 6311SOL    HW120830  13.780   5.763   9.265
 6311SOL    HW220831  13.730   5.894   9.323
 6312SOL     OW20832   5.849   8.968   5.185
 6312SOL    HW120833   5.760   8.955   5.150
 6312SOL    HW220834   5.835   9.006   5.272
 6313SOL     OW20835   4.911   9.627  14.362
 6313SOL    HW120836   4.905   9.695  14.429
 6313SOL    HW220837   5.000   9.593  14.370
 6314SOL     OW20838   9.597  12.051  13.332
 6314SOL    HW120839   9.559  12.138  13.342
 6314SOL    HW220840   9.578  12.027  13.241
 6315SOL     OW20841  14.540   8.055   0.791
 6315SOL    HW120842  14.492   8.111   0.730
 6315SOL    HW220843  14.542   8.104   0.873
 6316SOL     OW20844   6.598  14.026   7.219
 6316SOL    HW120845   6.632  13.975   7.146
 6316SOL    HW220846   6.664  14.014   7.288
 6317SOL     OW20847   7.175   0.854   6.357
 6317SOL    HW120848   7.179   0.924   6.291
 6317SOL    HW220849   7.091   0.867   6.401
 6318SOL     OW20850   8.371   8.611  13.757
 6318SOL    HW120851   8.282   8.601  13.793
 6318SOL    HW220852   8.370   8.558  13.678
 6319SOL     OW20853   7.854  10.451   8.459
 6319SOL    HW120854   7.765  10.434   8.490
 6319SOL    HW220855   7.868  10.544   8.475
 6320SOL     OW20856   3.684   9.326   1.936
 6320SOL    HW120857   3.628   9.314   2.012
 6320SOL    HW220858   3.756   9.265   1.948
 6321SOL     OW20859   7.005   5.169  11.616
 6321SOL    HW120860   7.024   5.122  11.697
 6321SOL    HW220861   6.927   5.127  11.581
 6322SOL     OW20862   9.448  10.970  14.743
 6322SOL    HW120863   9.427  10.876  14.745
 6322SOL    HW220864   9.421  11.002  14.829
 6323SOL     OW20865   4.930  14.644  12.713
 6323SOL    HW120866   5.005  14.703  12.721
 6323SOL    HW220867   4.953  14.568  12.765
 6324SOL     OW20868   9.270  13.799   3.573
 6324SOL    HW120869   9.329  13.734   3.611
 6324SOL    HW220870   9.206  13.817   3.642
 6325SOL     OW20871  10.608  13.066   3.636
 6325SOL    HW120872  10.538  13.128   3.615
 6325SOL    HW220873  10.564  12.982   3.647
 6326SOL     OW20874   0.937   7.321   9.998
 6326SOL    HW120875   0.972   7.297   9.913
 6326SOL    HW220876   0.991   7.395  10.026
 6327SOL     OW20877   5.547  14.133   5.298
 6327SOL    HW120878   5.470  14.161   5.248
 6327SOL    HW220879   5.576  14.212   5.342
 6328SOL     OW20880  10.149  12.410   9.104
 6328SOL    HW120881  10.231  12.458   9.112
 6328SOL    HW220882  10.088  12.473   9.064
 6329SOL     OW20883   3.089   0.528   9.418
 6329SOL    HW120884   3.092   0.612   9.374
 6329SOL    HW220885   3.005   0.490   9.392
 6330SOL     OW20886   8.212   2.890   1.931
 6330SOL    HW120887   8.167   2.818   1.976
 6330SOL    HW220888   8.290   2.907   1.985
 6331SOL     OW20889   7.071   1.064   8.995
 6331SOL    HW120890   7.087   1.074   9.089
 6331SOL    HW220891   7.158   1.054   8.957
 6332SOL     OW20892  10.255   5.272   5.005
 6332SOL    HW120893  10.206   5.300   4.927
 6332SOL    HW220894  10.193   5.218   5.054
 6333SOL     OW20895   1.432  12.181   5.415
 6333SOL    HW120896   1.501  12.224   5.465
 6333SOL    HW220897   1.402  12.247   5.353
 6334SOL     OW20898   2.028   9.663  12.830
 6334SOL    HW120899   2.061   9.631  12.914
 6334SOL    HW220900   1.960   9.726  12.854
 6335SOL     OW20901   9.224   6.857  14.843
 6335SOL    HW120902   9.289   6.872   0.040
 6335SOL    HW220903   9.201   6.764  14.852
 6336SOL     OW20904  13.545   2.341   2.529
 6336SOL    HW120905  13.569   2.341   2.622
 6336SOL    HW220906  13.564   2.431   2.500
 6337SOL     OW20907   7.963  11.037   8.711
 6337SOL    HW120908   7.925  11.073   8.630
 6337SOL    HW220909   7.971  11.113   8.769
 6338SOL     OW20910   7.210   9.438   0.124
 6338SOL    HW120911   7.154   9.474   0.193
 6338SOL    HW220912   7.226   9.347   0.151
 6339SOL     OW20913   8.993  13.454   2.485
 6339SOL    HW120914   8.987  13.360   2.464
 6339SOL    HW220915   9.008  13.457   2.579
 6340SOL     OW20916   3.155  11.739   0.120
 6340SOL    HW120917   3.118  11.810   0.172
 6340SOL    HW220918   3.080  11.706   0.070
 6341SOL     OW20919  12.285   7.796   6.450
 6341SOL    HW120920  12.329   7.780   6.533
 6341SOL    HW220921  12.307   7.886   6.428
 6342SOL     OW20922  10.087   2.949   9.423
 6342SOL    HW120923  10.042   3.006   9.484
 6342SOL    HW220924  10.157   3.003   9.385
 6343SOL     OW20925   5.751   1.089  10.129
 6343SOL    HW120926   5.724   1.009  10.084
 6343SOL    HW220927   5.756   1.155  10.059
 6344SOL     OW20928  14.379  14.412  13.883
 6344SOL    HW120929  14.433  14.402  13.962
 6344SOL    HW220930  14.441  14.410  13.811
 6345SOL     OW20931   0.136   3.513   1.318
 6345SOL    HW120932   0.186   3.592   1.300
 6345SOL    HW220933   0.159   3.491   1.408
 6346SOL     OW20934  11.668   9.543   3.811
 6346SOL    HW120935  11.587   9.546   3.761
 6346SOL    HW220936  11.731   9.501   3.753
 6347SOL     OW20937   6.083  10.890   3.178
 6347SOL    HW120938   6.005  10.933   3.211
 6347SOL    HW220939   6.137  10.876   3.256
 6348SOL     OW20940  10.428   7.940   8.961
 6348SOL    HW120941  10.512   7.984   8.971
 6348SOL    HW220942  10.377   7.999   8.905
 6349SOL     OW20943   3.870   8.808   9.182
 6349SOL    HW120944   3.947   8.753   9.172
 6349SOL    HW220945   3.903   8.892   9.213
 6350SOL     OW20946   9.370   5.896   1.835
 6350SOL    HW120947   9.316   5.897   1.756
 6350SOL    HW220948   9.419   5.813   1.830
 6351SOL     OW20949  14.238   3.421   8.344
 6351SOL    HW120950  14.210   3.494   8.288
 6351SOL    HW220951  14.159   3.397   8.393
 6352SOL     OW20952   3.785  13.735  11.124
 6352SOL    HW120953   3.862  13.769  11.170
 6352SOL    HW220954   3.820  13.673  11.060
 6353SOL     OW20955  14.577  13.735  11.801
 6353SOL    HW120956  14.651  13.793  11.818
 6353SOL    HW220957  14.605  13.650  11.834
 6354SOL     OW20958   7.818   8.431   7.060
 6354SOL    HW120959   7.781   8.515   7.089
 6354SOL    HW220960   7.772   8.366   7.112
 6355SOL     OW20961   8.218  12.480   1.581
 6355SOL    HW120962   8.160  12.463   1.655
 6355SOL    HW220963   8.296  12.518   1.620
 6356SOL     OW20964  10.666   3.100   3.296
 6356SOL    HW120965  10.724   3.138   3.230
 6356SOL    HW220966  10.647   3.171   3.356
 6357SOL     OW20967   0.749   1.562  14.208
 6357SOL    HW120968   0.782   1.523  14.127
 6357SOL    HW220969   0.808   1.634  14.226
 6358SOL     OW20970   7.704  12.986   5.771
 6358SOL    HW120971   7.617  13.017   5.744
 6358SOL    HW220972   7.692  12.893   5.788
 6359SOL     OW20973   0.755   8.380   6.216
 6359SOL    HW120974   0.782   8.353   6.128
 6359SOL    HW220975   0.771   8.474   6.217
 6360SOL     OW20976   3.945  13.880   5.667
 6360SOL    HW120977   4.004  13.915   5.733
 6360SOL    HW220978   3.893  13.813   5.713
 6361SOL     OW20979  13.972   7.903   9.970
 6361SOL    HW120980  13.990   7.990  10.006
 6361SOL    HW220981  14.051   7.852   9.988
 6362SOL     OW20982   2.086  11.818   7.919
 6362SOL    HW120983   2.115  11.817   7.827
 6362SOL    HW220984   2.137  11.888   7.959
 6363SOL     OW20985   7.609   2.850   9.420
 6363SOL    HW120986   7.675   2.805   9.473
 6363SOL    HW220987   7.658   2.889   9.348
 6364SOL     OW20988   6.861   1.136  11.458
 6364SOL    HW120989   6.866   1.113  11.551
 6364SOL    HW220990   6.903   1.063  11.413
 6365SOL     OW20991   5.403  12.241   9.058
 6365SOL    HW120992   5.411  12.188   8.978
 6365SOL    HW220993   5.465  12.200   9.120
 6366SOL     OW20994  14.844  14.401   1.308
 6366SOL    HW120995  14.797  14.347   1.372
 6366SOL    HW220996  14.776  14.459   1.272
 6367SOL     OW20997   0.790   6.879   1.143
 6367SOL    HW120998   0.791   6.801   1.088
 6367SOL    HW220999   0.707   6.922   1.122
 6368SOL     OW21000   1.043   8.019   4.632
 6368SOL    HW121001   1.136   8.037   4.616
 6368SOL    HW221002   1.012   8.094   4.683
 6369SOL     OW21003   8.545  14.065   6.923
 6369SOL    HW121004   8.572  14.113   6.845
 6369SOL    HW221005   8.610  13.995   6.933
 6370SOL     OW21006   0.001  12.227   3.370
 6370SOL    HW121007   0.079  12.244   3.316
 6370SOL    HW221008   0.031  12.165   3.436
 6371SOL     OW21009  13.365   1.413   8.604
 6371SOL    HW121010  13.414   1.428   8.684
 6371SOL    HW221011  13.361   1.317   8.596
 6372SOL     OW21012   8.959  13.310   7.772
 6372SOL    HW121013   8.882  13.365   7.757
 6372SOL    HW221014   9.031  13.359   7.732
 6373SOL     OW21015   6.712   1.780  12.065
 6373SOL    HW121016   6.779   1.746  12.124
 6373SOL    HW221017   6.629   1.766  12.112
 6374SOL     OW21018   1.349   8.205  11.142
 6374SOL    HW121019   1.443   8.223  11.133
 6374SOL    HW221020   1.320   8.188  11.053
 6375SOL     OW21021   8.559  13.356   5.571
 6375SOL    HW121022   8.581  13.333   5.661
 6375SOL    HW221023   8.636  13.334   5.520
 6376SOL     OW21024   4.984   2.411  10.120
 6376SOL    HW121025   4.998   2.397  10.026
 6376SOL    HW221026   4.897   2.374  10.137
 6377SOL     OW21027   0.293   4.148   0.534
 6377SOL    HW121028   0.289   4.091   0.611
 6377SOL    HW221029   0.376   4.195   0.544
 6378SOL     OW21030   9.522  14.556   1.617
 6378SOL    HW121031   9.517  14.475   1.667
 6378SOL    HW221032   9.586  14.610   1.665
 6379SOL     OW21033   8.571   1.358   5.409
 6379SOL    HW121034   8.497   1.374   5.467
 6379SOL    HW221035   8.541   1.386   5.323
 6380SOL     OW21036   1.028   4.183   1.797
 6380SOL    HW121037   1.110   4.134   1.804
 6380SOL    HW221038   1.054   4.267   1.757
 6381SOL     OW21039  10.154   4.530   6.949
 6381SOL    HW121040  10.113   4.464   6.893
 6381SOL    HW221041  10.176   4.601   6.889
 6382SOL     OW21042  11.490  10.440  11.332
 6382SOL    HW121043  11.404  10.403  11.351
 6382SOL    HW221044  11.540  10.367  11.296
 6383SOL     OW21045  11.072   8.693   8.532
 6383SOL    HW121046  11.053   8.618   8.589
 6383SOL    HW221047  11.046   8.769   8.583
 6384SOL     OW21048  14.395  11.131  11.589
 6384SOL    HW121049  14.317  11.081  11.566
 6384SOL    HW221050  14.451  11.126  11.512
 6385SOL     OW21051  12.087   7.897   5.651
 6385SOL    HW121052  12.011   7.887   5.594
 6385SOL    HW221053  12.081   7.987   5.682
 6386SOL     OW21054  13.256  11.559  10.468
 6386SOL    HW121055  13.167  11.594  10.462
 6386SOL    HW221056  13.255  11.481  10.413
 6387SOL     OW21057  10.819   0.599   5.292
 6387SOL    HW121058  10.865   0.644   5.363
 6387SOL    HW221059  10.795   0.514   5.329
 6388SOL     OW21060   7.884   8.113   8.466
 6388SOL    HW121061   7.930   8.181   8.417
 6388SOL    HW221062   7.823   8.161   8.522
 6389SOL     OW21063  13.646   1.134  11.306
 6389SOL    HW121064  13.650   1.222  11.269
 6389SOL    HW221065  13.595   1.145  11.387
 6390SOL     OW21066  10.526   7.115  13.617
 6390SOL    HW121067  10.440   7.079  13.641
 6390SOL    HW221068  10.588   7.062  13.666
 6391SOL     OW21069  11.255   3.693   9.099
 6391SOL    HW121070  11.264   3.599   9.079
 6391SOL    HW221071  11.164   3.702   9.130
 6392SOL     OW21072   3.632  14.542  12.539
 6392SOL    HW121073   3.592  14.624  12.509
 6392SOL    HW221074   3.683  14.568  12.616
 6393SOL     OW21075   8.848  10.261  10.846
 6393SOL    HW121076   8.880  10.337  10.798
 6393SOL    HW221077   8.779  10.296  10.902
 6394SOL     OW21078   4.817   2.723  13.017
 6394SOL    HW121079   4.786   2.814  13.009
 6394SOL    HW221080   4.880   2.726  13.089
 6395SOL     OW21081   9.252   2.585   1.309
 6395SOL    HW121082   9.238   2.668   1.355
 6395SOL    HW221083   9.263   2.610   1.218
 6396SOL     OW21084   5.272   2.681   2.386
 6396SOL    HW121085   5.254   2.735   2.463
 6396SOL    HW221086   5.264   2.591   2.417
 6397SOL     OW21087  10.564  10.493   6.115
 6397SOL    HW121088  10.596  10.475   6.204
 6397SOL    HW221089  10.630  10.550   6.077
 6398SOL     OW21090   4.324   5.431   3.659
 6398SOL    HW121091   4.409   5.399   3.688
 6398SOL    HW221092   4.261   5.383   3.712
 6399SOL     OW21093   3.036  14.255   9.949
 6399SOL    HW121094   3.051  14.204  10.028
 6399SOL    HW221095   2.948  14.290   9.959
 6400SOL     OW21096   1.210  13.341   0.401
 6400SOL    HW121097   1.295  13.368   0.436
 6400SOL    HW221098   1.146  13.379   0.460
 6401SOL     OW21099   4.365  10.554  11.380
 6401SOL    HW121100   4.430  10.513  11.323
 6401SOL    HW221101   4.307  10.482  11.406
 6402SOL     OW21102   6.907  13.080   4.315
 6402SOL    HW121103   6.973  13.024   4.273
 6402SOL    HW221104   6.876  13.029   4.389
 6403SOL     OW21105  12.089   2.864   9.149
 6403SOL    HW121106  12.144   2.797   9.109
 6403SOL    HW221107  12.023   2.883   9.083
 6404SOL     OW21108  11.222  12.456   4.005
 6404SOL    HW121109  11.263  12.529   4.051
 6404SOL    HW221110  11.293  12.414   3.958
 6405SOL     OW21111  13.804  12.946  12.552
 6405SOL    HW121112  13.817  13.007  12.625
 6405SOL    HW221113  13.891  12.939  12.512
 6406SOL     OW21114   2.750  13.974  13.074
 6406SOL    HW121115   2.716  14.055  13.111
 6406SOL    HW221116   2.674  13.916  13.069
 6407SOL     OW21117   0.754   7.732  13.994
 6407SOL    HW121118   0.833   7.733  13.940
 6407SOL    HW221119   0.722   7.822  13.990
 6408SOL     OW21120  11.902   4.206  13.606
 6408SOL    HW121121  11.946   4.153  13.672
 6408SOL    HW221122  11.964   4.208  13.532
 6409SOL     OW21123  10.787  10.681  11.658
 6409SOL    HW121124  10.731  10.605  11.675
 6409SOL    HW221125  10.872  10.657  11.696
 6410SOL     OW21126  11.391   2.295   7.104
 6410SOL    HW121127  11.440   2.359   7.155
 6410SOL    HW221128  11.321   2.265   7.162
 6411SOL     OW21129   0.171  12.778  10.244
 6411SOL    HW121130   0.105  12.826  10.294
 6411SOL    HW221131   0.255  12.809  10.278
 6412SOL     OW21132   2.391  12.086   6.967
 6412SOL    HW121133   2.369  12.178   6.955
 6412SOL    HW221134   2.430  12.060   6.883
 6413SOL     OW21135  13.337  12.981   5.455
 6413SOL    HW121136  13.368  12.895   5.482
 6413SOL    HW221137  13.393  13.004   5.381
 6414SOL     OW21138   8.567   5.232   4.191
 6414SOL    HW121139   8.639   5.292   4.171
 6414SOL    HW221140   8.529   5.268   4.272
 6415SOL     OW21141   2.056   4.673   8.691
 6415SOL    HW121142   2.064   4.627   8.608
 6415SOL    HW221143   2.143   4.670   8.729
 6416SOL     OW21144   0.195   9.503   8.334
 6416SOL    HW121145   0.111   9.547   8.324
 6416SOL    HW221146   0.199   9.443   8.259
 6417SOL     OW21147   8.299   1.896   9.721
 6417SOL    HW121148   8.335   1.845   9.649
 6417SOL    HW221149   8.269   1.977   9.680
 6418SOL     OW21150   7.891   9.417  13.603
 6418SOL    HW121151   7.894   9.349  13.671
 6418SOL    HW221152   7.983   9.436  13.585
 6419SOL     OW21153  14.238   3.151  13.506
 6419SOL    HW121154  14.246   3.197  13.589
 6419SOL    HW221155  14.251   3.219  13.440
 6420SOL     OW21156   8.835   4.641   5.878
 6420SOL    HW121157   8.748   4.661   5.843
 6420SOL    HW221158   8.895   4.694   5.825
 6421SOL     OW21159   4.420  12.204  12.071
 6421SOL    HW121160   4.480  12.191  11.998
 6421SOL    HW221161   4.336  12.171  12.039
 6422SOL     OW21162   7.339  13.656   9.592
 6422SOL    HW121163   7.405  13.663   9.661
 6422SOL    HW221164   7.267  13.607   9.633
 6423SOL     OW21165  14.136   0.435   1.556
 6423SOL    HW121166  14.215   0.443   1.609
 6423SOL    HW221167  14.167   0.447   1.466
 6424SOL     OW21168  11.584   0.990  12.043
 6424SOL    HW121169  11.577   0.986  12.139
 6424SOL    HW221170  11.632   0.911  12.020
 6425SOL     OW21171  12.897   2.192  11.479
 6425SOL    HW121172  12.979   2.233  11.450
 6425SOL    HW221173  12.897   2.205  11.574
 6426SOL     OW21174   9.569   7.273   0.263
 6426SOL    HW121175   9.482   7.311   0.279
 6426SOL    HW221176   9.553   7.204   0.199
 6427SOL     OW21177  11.354   8.016  11.592
 6427SOL    HW121178  11.273   8.047  11.633
 6427SOL    HW221179  11.408   8.094  11.583
 6428SOL     OW21180   0.753   0.972  13.350
 6428SOL    HW121181   0.815   0.906  13.317
 6428SOL    HW221182   0.800   1.015  13.422
 6429SOL     OW21183   4.054   1.307   2.669
 6429SOL    HW121184   4.021   1.226   2.708
 6429SOL    HW221185   4.013   1.376   2.720
 6430SOL     OW21186  11.110   9.378   2.037
 6430SOL    HW121187  11.027   9.346   2.002
 6430SOL    HW221188  11.160   9.299   2.057
 6431SOL     OW21189   5.142   6.512   8.889
 6431SOL    HW121190   5.218   6.459   8.913
 6431SOL    HW221191   5.175   6.602   8.885
 6432SOL     OW21192  12.018   7.193   3.650
 6432SOL    HW121193  11.958   7.267   3.657
 6432SOL    HW221194  12.077   7.202   3.725
 6433SOL     OW21195   2.872   6.788  11.164
 6433SOL    HW121196   2.936   6.840  11.212
 6433SOL    HW221197   2.920   6.711  11.135
 6434SOL     OW21198   2.840   7.266   8.224
 6434SOL    HW121199   2.915   7.304   8.177
 6434SOL    HW221200   2.870   7.257   8.314
 6435SOL     OW21201   8.628  14.229   8.264
 6435SOL    HW121202   8.539  14.248   8.237
 6435SOL    HW221203   8.634  14.265   8.353
 6436SOL     OW21204   6.306   6.280   6.745
 6436SOL    HW121205   6.319   6.367   6.782
 6436SOL    HW221206   6.260   6.231   6.813
 6437SOL     OW21207  11.168  12.831   4.029
 6437SOL    HW121208  11.220  12.789   3.961
 6437SOL    HW221209  11.093  12.868   3.982
 6438SOL     OW21210   9.048   4.072   3.295
 6438SOL    HW121211   8.984   4.141   3.274
 6438SOL    HW221212   9.132   4.108   3.266
 6439SOL     OW21213   2.516   8.964   5.128
 6439SOL    HW121214   2.487   8.880   5.094
 6439SOL    HW221215   2.512   9.024   5.053
 6440SOL     OW21216   6.459  10.924   3.115
 6440SOL    HW121217   6.487  10.992   3.176
 6440SOL    HW221218   6.389  10.878   3.161
 6441SOL     OW21219   5.594   4.637   5.704
 6441SOL    HW121220   5.577   4.693   5.779
 6441SOL    HW221221   5.636   4.559   5.741
 6442SOL     OW21222   6.477   7.393  12.738
 6442SOL    HW121223   6.542   7.434  12.681
 6442SOL    HW221224   6.459   7.459  12.805
 6443SOL     OW21225   8.709  14.783  12.422
 6443SOL    HW121226   8.770  14.748  12.357
 6443SOL    HW221227   8.641  14.826  12.370
 6444SOL     OW21228  12.701  12.879   1.453
 6444SOL    HW121229  12.647  12.848   1.380
 6444SOL    HW221230  12.790  12.855   1.429
 6445SOL     OW21231   9.205   3.544   2.383
 6445SOL    HW121232   9.121   3.499   2.388
 6445SOL    HW221233   9.216   3.586   2.468
 6446SOL     OW21234  13.218   4.422   8.534
 6446SOL    HW121235  13.280   4.386   8.470
 6446SOL    HW221236  13.256   4.399   8.619
 6447SOL     OW21237   0.276   2.778   9.567
 6447SOL    HW121238   0.302   2.855   9.517
 6447SOL    HW221239   0.358   2.737   9.593
 6448SOL     OW21240   4.961   0.806   9.734
 6448SOL    HW121241   4.907   0.883   9.713
 6448SOL    HW221242   5.051   0.834   9.714
 6449SOL     OW21243   6.887  11.154  12.289
 6449SOL    HW121244   6.939  11.087  12.244
 6449SOL    HW221245   6.855  11.110  12.368
 6450SOL     OW21246  14.121   1.535   4.729
 6450SOL    HW121247  14.186   1.561   4.795
 6450SOL    HW221248  14.039   1.573   4.761
 6451SOL     OW21249   0.323  12.680   2.895
 6451SOL    HW121250   0.362  12.767   2.902
 6451SOL    HW221251   0.263  12.675   2.970
 6452SOL     OW21252  13.927   9.156   7.779
 6452SOL    HW121253  13.963   9.135   7.865
 6452SOL    HW221254  13.878   9.237   7.793
 6453SOL     OW21255   2.074  13.403   3.711
 6453SOL    HW121256   2.019  13.326   3.700
 6453SOL    HW221257   2.013  13.474   3.731
 6454SOL     OW21258   5.231  14.719   3.674
 6454SOL    HW121259   5.202  14.630   3.654
 6454SOL    HW221260   5.163  14.776   3.637
 6455SOL     OW21261   9.572   2.709  10.198
 6455SOL    HW121262   9.562   2.768  10.272
 6455SOL    HW221263   9.515   2.745  10.130
 6456SOL     OW21264  11.800  10.896   3.300
 6456SOL    HW121265  11.825  10.936   3.217
 6456SOL    HW221266  11.770  10.969   3.354
 6457SOL     OW21267   7.956  13.240  12.283
 6457SOL    HW121268   7.943  13.333  12.263
 6457SOL    HW221269   7.920  13.194  12.206
 6458SOL     OW21270   7.917   0.192   2.373
 6458SOL    HW121271   7.847   0.256   2.361
 6458SOL    HW221272   7.899   0.153   2.459
 6459SOL     OW21273  14.131   4.150  14.490
 6459SOL    HW121274  14.174   4.172  14.408
 6459SOL    HW221275  14.175   4.205  14.555
 6460SOL     OW21276  10.051   1.412   2.958
 6460SOL    HW121277  10.095   1.493   2.981
 6460SOL    HW221278   9.989   1.436   2.889
 6461SOL     OW21279   0.172   2.771   2.811
 6461SOL    HW121280   0.130   2.857   2.818
 6461SOL    HW221281   0.191   2.747   2.901
 6462SOL     OW21282  13.870   0.074   6.614
 6462SOL    HW121283  13.788   0.083   6.565
 6462SOL    HW221284  13.872  14.853   6.640
 6463SOL     OW21285  12.956  13.189   4.259
 6463SOL    HW121286  12.905  13.148   4.328
 6463SOL    HW221287  12.939  13.136   4.181
 6464SOL     OW21288  12.358   2.944   8.887
 6464SOL    HW121289  12.304   3.000   8.943
 6464SOL    HW221290  12.446   2.951   8.925
 6465SOL     OW21291   3.335  12.703   4.267
 6465SOL    HW121292   3.317  12.778   4.323
 6465SOL    HW221293   3.429  12.705   4.253
 6466SOL     OW21294   1.673   0.572  11.520
 6466SOL    HW121295   1.630   0.652  11.550
 6466SOL    HW221296   1.763   0.598  11.501
 6467SOL     OW21297   8.842  12.539   5.854
 6467SOL    HW121298   8.894  12.515   5.777
 6467SOL    HW221299   8.774  12.597   5.821
 6468SOL     OW21300   5.164   7.840   0.739
 6468SOL    HW121301   5.249   7.825   0.697
 6468SOL    HW221302   5.120   7.903   0.683
 6469SOL     OW21303  12.515   5.223   4.388
 6469SOL    HW121304  12.454   5.292   4.362
 6469SOL    HW221305  12.516   5.227   4.484
 6470SOL     OW21306   8.257  10.368   4.898
 6470SOL    HW121307   8.343  10.357   4.858
 6470SOL    HW221308   8.274  10.415   4.979
 6471SOL     OW21309  13.144   0.812   5.592
 6471SOL    HW121310  13.127   0.856   5.509
 6471SOL    HW221311  13.086   0.735   5.591
 6472SOL     OW21312  10.106  10.074  13.292
 6472SOL    HW121313  10.126   9.995  13.342
 6472SOL    HW221314  10.145  10.145  13.343
 6473SOL     OW21315   6.140   3.115   6.348
 6473SOL    HW121316   6.172   3.131   6.438
 6473SOL    HW221317   6.170   3.027   6.327
 6474SOL     OW21318   7.670   1.753  13.194
 6474SOL    HW121319   7.656   1.842  13.225
 6474SOL    HW221320   7.591   1.706  13.219
 6475SOL     OW21321  11.997   1.769   6.213
 6475SOL    HW121322  11.941   1.760   6.136
 6475SOL    HW221323  12.003   1.863   6.228
 6476SOL     OW21324   1.108   0.086  11.427
 6476SOL    HW121325   1.054   0.112  11.352
 6476SOL    HW221326   1.131   0.169  11.470
 6477SOL     OW21327   4.748   0.041   6.856
 6477SOL    HW121328   4.689  14.851   6.812
 6477SOL    HW221329   4.764   0.001   6.941
 6478SOL     OW21330   4.682   5.074   3.189
 6478SOL    HW121331   4.610   5.132   3.162
 6478SOL    HW221332   4.761   5.122   3.166
 6479SOL     OW21333   7.682   4.806  11.209
 6479SOL    HW121334   7.626   4.747  11.158
 6479SOL    HW221335   7.630   4.827  11.286
 6480SOL     OW21336   2.150   4.420   0.345
 6480SOL    HW121337   2.206   4.390   0.417
 6480SOL    HW221338   2.152   4.348   0.282
 6481SOL     OW21339   4.494   2.641   5.373
 6481SOL    HW121340   4.480   2.562   5.321
 6481SOL    HW221341   4.589   2.645   5.385
 6482SOL     OW21342   1.213  11.739  14.082
 6482SOL    HW121343   1.161  11.685  14.022
 6482SOL    HW221344   1.239  11.679  14.151
 6483SOL     OW21345  13.189  13.817   7.350
 6483SOL    HW121346  13.231  13.751   7.405
 6483SOL    HW221347  13.248  13.892   7.354
 6484SOL     OW21348   4.173   0.887   8.379
 6484SOL    HW121349   4.197   0.806   8.333
 6484SOL    HW221350   4.182   0.865   8.472
 6485SOL     OW21351   3.375   9.172   1.992
 6485SOL    HW121352   3.341   9.084   1.984
 6485SOL    HW221353   3.437   9.167   2.065
 6486SOL     OW21354   0.721  11.198   2.707
 6486SOL    HW121355   0.690  11.150   2.630
 6486SOL    HW221356   0.806  11.159   2.726
 6487SOL     OW21357  14.122   4.129  10.432
 6487SOL    HW121358  14.061   4.095  10.497
 6487SOL    HW221359  14.209   4.109  10.467
 6488SOL     OW21360   7.969   5.487   6.261
 6488SOL    HW121361   7.878   5.518   6.256
 6488SOL    HW221362   7.990   5.490   6.355
 6489SOL     OW21363   3.878   7.007   2.337
 6489SOL    HW121364   3.965   7.044   2.325
 6489SOL    HW221365   3.847   7.043   2.420
 6490SOL     OW21366   9.365  12.348   0.924
 6490SOL    HW121367   9.332  12.318   0.839
 6490SOL    HW221368   9.302  12.315   0.987
 6491SOL     OW21369  13.666   2.103  10.756
 6491SOL    HW121370  13.707   2.017  10.766
 6491SOL    HW221371  13.653   2.112  10.661
 6492SOL     OW21372   2.314   2.638  10.340
 6492SOL    HW121373   2.323   2.543  10.342
 6492SOL    HW221374   2.402   2.671  10.358
 6493SOL     OW21375   5.140  13.540  12.883
 6493SOL    HW121376   5.116  13.631  12.866
 6493SOL    HW221377   5.196  13.543  12.960
 6494SOL     OW21378   6.292   3.789   1.323
 6494SOL    HW121379   6.326   3.841   1.250
 6494SOL    HW221380   6.350   3.810   1.396
 6495SOL     OW21381  13.325   2.027  13.675
 6495SOL    HW121382  13.323   2.005  13.582
 6495SOL    HW221383  13.268   1.962  13.716
 6496SOL     OW21384   8.324   8.286   4.416
 6496SOL    HW121385   8.250   8.263   4.360
 6496SOL    HW221386   8.306   8.243   4.500
 6497SOL     OW21387  14.395  12.033   7.609
 6497SOL    HW121388  14.420  11.965   7.672
 6497SOL    HW221389  14.463  12.029   7.542
 6498SOL     OW21390   0.063   0.331  12.264
 6498SOL    HW121391   0.155   0.332  12.238
 6498SOL    HW221392   0.051   0.412  12.314
 6499SOL     OW21393   8.291   7.355  10.007
 6499SOL    HW121394   8.230   7.402   9.950
 6499SOL    HW221395   8.258   7.265  10.008
 6500SOL     OW21396   9.718  14.005   2.262
 6500SOL    HW121397   9.639  14.041   2.224
 6500SOL    HW221398   9.694  13.915   2.286
 6501SOL     OW21399   4.453  13.315   0.908
 6501SOL    HW121400   4.469  13.402   0.945
 6501SOL    HW221401   4.425  13.262   0.982
 6502SOL     OW21402   7.379   9.722   5.857
 6502SOL    HW121403   7.348   9.812   5.872
 6502SOL    HW221404   7.298   9.672   5.844
 6503SOL     OW21405  13.009  14.605   7.798
 6503SOL    HW121406  13.042  14.570   7.715
 6503SOL    HW221407  13.056  14.556   7.865
 6504SOL     OW21408   8.586  11.255   1.816
 6504SOL    HW121409   8.492  11.272   1.812
 6504SOL    HW221410   8.626  11.330   1.772
 6505SOL     OW21411   2.658   7.363   0.328
 6505SOL    HW121412   2.673   7.402   0.242
 6505SOL    HW221413   2.694   7.426   0.390
 6506SOL     OW21414  14.509  12.587  13.616
 6506SOL    HW121415  14.467  12.552  13.695
 6506SOL    HW221416  14.486  12.524  13.547
 6507SOL     OW21417   1.223   5.919  10.490
 6507SOL    HW121418   1.282   5.994  10.483
 6507SOL    HW221419   1.209   5.890  10.400
 6508SOL     OW21420   1.652   6.374  11.072
 6508SOL    HW121421   1.561   6.356  11.098
 6508SOL    HW221422   1.701   6.373  11.155
 6509SOL     OW21423  11.001   5.268  11.652
 6509SOL    HW121424  11.004   5.174  11.635
 6509SOL    HW221425  11.086   5.301  11.623
 6510SOL     OW21426   6.847   8.265  11.081
 6510SOL    HW121427   6.890   8.282  10.997
 6510SOL    HW221428   6.775   8.328  11.085
 6511SOL     OW21429   8.014  10.764  14.489
 6511SOL    HW121430   8.098  10.728  14.519
 6511SOL    HW221431   7.951  10.733  14.554
 6512SOL     OW21432  14.515  11.625   0.219
 6512SOL    HW121433  14.540  11.673   0.140
 6512SOL    HW221434  14.559  11.672   0.290
 6513SOL     OW21435   6.907   6.332   4.891
 6513SOL    HW121436   6.969   6.270   4.853
 6513SOL    HW221437   6.833   6.277   4.920
 6514SOL     OW21438   5.617   6.080   0.499
 6514SOL    HW121439   5.597   6.173   0.496
 6514SOL    HW221440   5.544   6.042   0.548
 6515SOL     OW21441   2.298  13.509  11.819
 6515SOL    HW121442   2.322  13.587  11.768
 6515SOL    HW221443   2.382  13.472  11.847
 6516SOL     OW21444  14.028   5.914   6.249
 6516SOL    HW121445  13.993   5.985   6.195
 6516SOL    HW221446  14.001   5.936   6.338
 6517SOL     OW21447   9.239   9.993   4.218
 6517SOL    HW121448   9.197   9.911   4.189
 6517SOL    HW221449   9.323   9.965   4.253
 6518SOL     OW21450   6.506  13.417   9.428
 6518SOL    HW121451   6.447  13.489   9.406
 6518SOL    HW221452   6.449  13.350   9.464
 6519SOL     OW21453  11.541   7.192   2.913
 6519SOL    HW121454  11.607   7.207   2.846
 6519SOL    HW221455  11.469   7.249   2.889
 6520SOL     OW21456   0.815   1.541   3.048
 6520SOL    HW121457   0.727   1.533   3.085
 6520SOL    HW221458   0.810   1.494   2.964
 6521SOL     OW21459   3.692   6.422   6.219
 6521SOL    HW121460   3.658   6.499   6.264
 6521SOL    HW221461   3.766   6.454   6.168
 6522SOL     OW21462  12.200   1.734   9.417
 6522SOL    HW121463  12.290   1.702   9.426
 6522SOL    HW221464  12.163   1.725   9.505
 6523SOL     OW21465  11.635   2.316   5.841
 6523SOL    HW121466  11.692   2.242   5.860
 6523SOL    HW221467  11.691   2.393   5.857
 6524SOL     OW21468   9.161   7.803   8.381
 6524SOL    HW121469   9.223   7.846   8.322
 6524SOL    HW221470   9.076   7.839   8.358
 6525SOL     OW21471   0.979  11.005  11.241
 6525SOL    HW121472   1.008  10.917  11.214
 6525SOL    HW221473   1.054  11.061  11.222
 6526SOL     OW21474   5.276   2.300  14.868
 6526SOL    HW121475   5.188   2.308  14.832
 6526SOL    HW221476   5.332   2.286  14.791
 6527SOL     OW21477   8.940   2.881   6.550
 6527SOL    HW121478   8.854   2.903   6.515
 6527SOL    HW221479   8.922   2.838   6.634
 6528SOL     OW21480   4.719  14.583   4.487
 6528SOL    HW121481   4.789  14.556   4.546
 6528SOL    HW221482   4.716  14.514   4.420
 6529SOL     OW21483   6.780   9.309  11.824
 6529SOL    HW121484   6.704   9.251  11.826
 6529SOL    HW221485   6.850   9.259  11.865
 6530SOL     OW21486  10.792  12.512   4.372
 6530SOL    HW121487  10.738  12.506   4.451
 6530SOL    HW221488  10.731  12.540   4.304
 6531SOL     OW21489   8.621   9.222  13.221
 6531SOL    HW121490   8.583   9.166  13.289
 6531SOL    HW221491   8.588   9.185  13.139
 6532SOL     OW21492   8.690   3.175  10.765
 6532SOL    HW121493   8.651   3.174  10.852
 6532SOL    HW221494   8.706   3.083  10.745
 6533SOL     OW21495   7.511   4.250   0.229
 6533SOL    HW121496   7.596   4.237   0.188
 6533SOL    HW221497   7.458   4.295   0.163
 6534SOL     OW21498   1.464   1.269   8.645
 6534SOL    HW121499   1.541   1.247   8.697
 6534SOL    HW221500   1.459   1.199   8.579
 6535SOL     OW21501  12.356  11.431   8.607
 6535SOL    HW121502  12.450  11.412   8.610
 6535SOL    HW221503  12.351  11.520   8.573
 6536SOL     OW21504  14.039   9.353  11.782
 6536SOL    HW121505  13.968   9.350  11.846
 6536SOL    HW221506  14.075   9.265  11.783
 6537SOL     OW21507  10.030   1.543   0.397
 6537SOL    HW121508  10.058   1.568   0.485
 6537SOL    HW221509   9.989   1.458   0.409
 6538SOL     OW21510  11.525   7.018  11.477
 6538SOL    HW121511  11.528   7.100  11.527
 6538SOL    HW221512  11.476   7.040  11.398
 6539SOL     OW21513   0.610   0.918   3.147
 6539SOL    HW121514   0.531   0.930   3.096
 6539SOL    HW221515   0.660   0.852   3.099
 6540SOL     OW21516   3.978   6.392   2.884
 6540SOL    HW121517   3.924   6.315   2.867
 6540SOL    HW221518   3.915   6.460   2.909
 6541SOL     OW21519   6.051   0.403   7.304
 6541SOL    HW121520   6.026   0.340   7.371
 6541SOL    HW221521   6.015   0.486   7.334
 6542SOL     OW21522  12.469   8.182   4.307
 6542SOL    HW121523  12.377   8.168   4.284
 6542SOL    HW221524  12.472   8.172   4.402
 6543SOL     OW21525   4.297   0.838   2.789
 6543SOL    HW121526   4.327   0.901   2.724
 6543SOL    HW221527   4.244   0.776   2.738
 6544SOL     OW21528  11.791  10.373  11.552
 6544SOL    HW121529  11.700  10.395  11.572
 6544SOL    HW221530  11.835  10.370  11.637
 6545SOL     OW21531  10.511   9.429  11.163
 6545SOL    HW121532  10.490   9.367  11.093
 6545SOL    HW221533  10.503   9.515  11.122
 6546SOL     OW21534  10.659   7.094  11.533
 6546SOL    HW121535  10.659   7.171  11.589
 6546SOL    HW221536  10.579   7.047  11.556
 6547SOL     OW21537   0.091  12.653  12.049
 6547SOL    HW121538   0.168  12.630  12.101
 6547SOL    HW221539   0.054  12.730  12.094
 6548SOL     OW21540   6.277   9.974   4.388
 6548SOL    HW121541   6.264  10.006   4.299
 6548SOL    HW221542   6.286  10.053   4.441
 6549SOL     OW21543  12.906   4.578   9.806
 6549SOL    HW121544  12.929   4.493   9.767
 6549SOL    HW221545  12.812   4.572   9.820
 6550SOL     OW21546   1.565   1.683   7.104
 6550SOL    HW121547   1.603   1.745   7.166
 6550SOL    HW221548   1.563   1.600   7.151
 6551SOL     OW21549   6.464   9.221   0.993
 6551SOL    HW121550   6.505   9.139   1.023
 6551SOL    HW221551   6.469   9.279   1.069
 6552SOL     OW21552   3.036   8.012   8.498
 6552SOL    HW121553   3.132   8.009   8.495
 6552SOL    HW221554   3.010   8.034   8.409
 6553SOL     OW21555  12.556   9.017   9.828
 6553SOL    HW121556  12.572   8.948   9.892
 6553SOL    HW221557  12.560   8.972   9.743
 6554SOL     OW21558  11.147  10.390   5.692
 6554SOL    HW121559  11.063  10.422   5.660
 6554SOL    HW221560  11.163  10.439   5.773
 6555SOL     OW21561   8.292   0.453   3.163
 6555SOL    HW121562   8.320   0.466   3.072
 6555SOL    HW221563   8.254   0.537   3.189
 6556SOL     OW21564  11.330   8.332   7.124
 6556SOL    HW121565  11.289   8.258   7.079
 6556SOL    HW221566  11.424   8.322   7.108
 6557SOL     OW21567   6.151   0.124  10.879
 6557SOL    HW121568   6.143   0.200  10.936
 6557SOL    HW221569   6.162   0.050  10.939
 6558SOL     OW21570   3.388   2.323   2.087
 6558SOL    HW121571   3.331   2.306   2.162
 6558SOL    HW221572   3.349   2.273   2.015
 6559SOL     OW21573   2.073   0.743  13.720
 6559SOL    HW121574   2.066   0.835  13.694
 6559SOL    HW221575   2.139   0.743  13.790
 6560SOL     OW21576  11.357  10.194   6.021
 6560SOL    HW121577  11.293  10.203   6.091
 6560SOL    HW221578  11.388  10.104   6.029
 6561SOL     OW21579  12.861   7.249   9.498
 6561SOL    HW121580  12.777   7.260   9.455
 6561SOL    HW221581  12.897   7.337   9.504
 6562SOL     OW21582   4.316   2.472   3.395
 6562SOL    HW121583   4.286   2.443   3.482
 6562SOL    HW221584   4.401   2.429   3.384
 6563SOL     OW21585   6.108  12.598   9.500
 6563SOL    HW121586   6.121  12.528   9.437
 6563SOL    HW221587   6.084  12.674   9.447
 6564SOL     OW21588   1.494   1.170   0.395
 6564SOL    HW121589   1.402   1.189   0.378
 6564SOL    HW221590   1.540   1.201   0.317
 6565SOL     OW21591   1.969   4.133  12.530
 6565SOL    HW121592   1.953   4.047  12.568
 6565SOL    HW221593   1.971   4.193  12.604
 6566SOL     OW21594   8.297  12.177   2.021
 6566SOL    HW121595   8.294  12.094   2.068
 6566SOL    HW221596   8.384  12.212   2.039
 6567SOL     OW21597  13.231   5.059  11.985
 6567SOL    HW121598  13.316   5.094  11.960
 6567SOL    HW221599  13.229   4.971  11.947
 6568SOL     OW21600  14.851   6.360   2.458
 6568SOL    HW121601  14.771   6.344   2.407
 6568SOL    HW221602   0.050   6.353   2.394
 6569SOL     OW21603   9.919   2.618   7.862
 6569SOL    HW121604   9.997   2.610   7.917
 6569SOL    HW221605   9.952   2.649   7.778
 6570SOL     OW21606   8.417  13.419  10.769
 6570SOL    HW121607   8.387  13.338  10.810
 6570SOL    HW221608   8.478  13.456  10.833
 6571SOL     OW21609   5.916   4.939  10.539
 6571SOL    HW121610   5.971   4.870  10.500
 6571SOL    HW221611   5.948   4.947  10.629
 6572SOL     OW21612   6.737   8.981  11.519
 6572SOL    HW121613   6.755   8.953  11.608
 6572SOL    HW221614   6.657   9.034  11.525
 6573SOL     OW21615   3.181   5.222   1.467
 6573SOL    HW121616   3.114   5.155   1.467
 6573SOL    HW221617   3.136   5.302   1.440
 6574SOL     OW21618  14.758   2.459   6.417
 6574SOL    HW121619  14.701   2.393   6.377
 6574SOL    HW221620  14.821   2.481   6.349
 6575SOL     OW21621   7.231  13.169   6.382
 6575SOL    HW121622   7.242  13.248   6.328
 6575SOL    HW221623   7.301  13.110   6.353
 6576SOL     OW21624  14.170  10.585  10.370
 6576SOL    HW121625  14.261  10.616  10.371
 6576SOL    HW221626  14.170  10.508  10.427
 6577SOL     OW21627   4.608   7.691   0.524
 6577SOL    HW121628   4.577   7.745   0.596
 6577SOL    HW221629   4.552   7.715   0.450
 6578SOL     OW21630   1.016   3.123   7.991
 6578SOL    HW121631   1.022   3.042   8.041
 6578SOL    HW221632   0.930   3.118   7.948
 6579SOL     OW21633   3.729  10.424   3.220
 6579SOL    HW121634   3.642  10.452   3.195
 6579SOL    HW221635   3.772  10.503   3.252
 6580SOL     OW21636   5.205  10.109  10.527
 6580SOL    HW121637   5.226  10.127  10.618
 6580SOL    HW221638   5.187  10.195  10.489
 6581SOL     OW21639  11.846   5.466   6.248
 6581SOL    HW121640  11.783   5.538   6.240
 6581SOL    HW221641  11.842   5.441   6.340
 6582SOL     OW21642   3.245   7.787   8.321
 6582SOL    HW121643   3.298   7.848   8.371
 6582SOL    HW221644   3.258   7.813   8.230
 6583SOL     OW21645   8.914   4.060  11.909
 6583SOL    HW121646   8.848   4.026  11.848
 6583SOL    HW221647   8.926   4.151  11.882
 6584SOL     OW21648   7.735   7.351  14.064
 6584SOL    HW121649   7.825   7.373  14.091
 6584SOL    HW221650   7.703   7.293  14.133
 6585SOL     OW21651  10.769   3.656   5.278
 6585SOL    HW121652  10.722   3.623   5.354
 6585SOL    HW221653  10.798   3.744   5.303
 6586SOL     OW21654   2.746   4.120  11.765
 6586SOL    HW121655   2.792   4.158  11.690
 6586SOL    HW221656   2.745   4.026  11.747
 6587SOL     OW21657  13.096  13.789  12.757
 6587SOL    HW121658  13.105  13.846  12.681
 6587SOL    HW221659  13.002  13.791  12.777
 6588SOL     OW21660   1.806   8.801   5.166
 6588SOL    HW121661   1.886   8.753   5.145
 6588SOL    HW221662   1.795   8.789   5.260
 6589SOL     OW21663   4.931   1.634  10.170
 6589SOL    HW121664   4.994   1.642  10.098
 6589SOL    HW221665   4.967   1.566  10.226
 6590SOL     OW21666   4.859  10.348  11.087
 6590SOL    HW121667   4.917  10.307  11.023
 6590SOL    HW221668   4.899  10.433  11.105
 6591SOL     OW21669   4.032  13.708  10.022
 6591SOL    HW121670   3.946  13.725  10.060
 6591SOL    HW221671   4.036  13.766   9.946
 6592SOL     OW21672   1.020   4.729   5.224
 6592SOL    HW121673   0.945   4.736   5.165
 6592SOL    HW221674   0.987   4.680   5.300
 6593SOL     OW21675   7.500   1.969   5.568
 6593SOL    HW121676   7.487   1.919   5.487
 6593SOL    HW221677   7.450   1.920   5.634
 6594SOL     OW21678   2.392   3.868   3.098
 6594SOL    HW121679   2.457   3.931   3.067
 6594SOL    HW221680   2.426   3.783   3.070
 6595SOL     OW21681  10.433   8.785   5.445
 6595SOL    HW121682  10.450   8.714   5.507
 6595SOL    HW221683  10.358   8.832   5.482
 6596SOL     OW21684   3.655   0.979  11.262
 6596SOL    HW121685   3.674   0.986  11.356
 6596SOL    HW221686   3.624   1.065  11.237
 6597SOL     OW21687   4.996  13.334   0.891
 6597SOL    HW121688   5.081  13.296   0.913
 6597SOL    HW221689   4.932  13.271   0.923
 6598SOL     OW21690   9.656   6.637   3.165
 6598SOL    HW121691   9.618   6.549   3.172
 6598SOL    HW221692   9.639   6.663   3.074
 6599SOL     OW21693  14.181  12.776   2.983
 6599SOL    HW121694  14.249  12.787   3.049
 6599SOL    HW221695  14.128  12.855   2.991
 6600SOL     OW21696  12.909   1.036  12.696
 6600SOL    HW121697  12.815   1.052  12.687
 6600SOL    HW221698  12.946   1.119  12.726
 6601SOL     OW21699   8.069  11.030  13.335
 6601SOL    HW121700   7.985  11.074  13.341
 6601SOL    HW221701   8.134  11.101  13.340
 6602SOL     OW21702   9.540   1.781   4.965
 6602SOL    HW121703   9.458   1.801   5.010
 6602SOL    HW221704   9.585   1.865   4.960
 6603SOL     OW21705   7.118  11.464   9.104
 6603SOL    HW121706   7.093  11.399   9.039
 6603SOL    HW221707   7.036  11.504   9.132
 6604SOL     OW21708  14.182   6.713  13.407
 6604SOL    HW121709  14.136   6.690  13.327
 6604SOL    HW221710  14.249   6.646  13.417
 6605SOL     OW21711  12.527   4.704   9.842
 6605SOL    HW121712  12.510   4.714   9.748
 6605SOL    HW221713  12.592   4.771   9.861
 6606SOL     OW21714   5.937   7.072   4.309
 6606SOL    HW121715   5.946   7.026   4.393
 6606SOL    HW221716   5.858   7.036   4.269
 6607SOL     OW21717   8.561   8.905   4.078
 6607SOL    HW121718   8.649   8.939   4.061
 6607SOL    HW221719   8.576   8.820   4.119
 6608SOL     OW21720   5.838   1.387  13.580
 6608SOL    HW121721   5.879   1.473  13.573
 6608SOL    HW221722   5.811   1.381  13.672
 6609SOL     OW21723  14.816   0.534   0.294
 6609SOL    HW121724  14.757   0.547   0.369
 6609SOL    HW221725  14.761   0.549   0.217
 6610SOL     OW21726  12.191  13.714  10.255
 6610SOL    HW121727  12.127  13.670  10.311
 6610SOL    HW221728  12.139  13.779  10.207
 6611SOL     OW21729   7.499   7.458  14.552
 6611SOL    HW121730   7.461   7.537  14.515
 6611SOL    HW221731   7.426   7.396  14.556
 6612SOL     OW21732  13.024   1.697  14.158
 6612SOL    HW121733  12.981   1.771  14.115
 6612SOL    HW221734  12.951   1.641  14.185
 6613SOL     OW21735  11.332  14.443   4.875
 6613SOL    HW121736  11.253  14.458   4.822
 6613SOL    HW221737  11.347  14.526   4.921
 6614SOL     OW21738  14.354   8.509   1.959
 6614SOL    HW121739  14.312   8.539   2.039
 6614SOL    HW221740  14.429   8.567   1.948
 6615SOL     OW21741  12.248   3.216   4.524
 6615SOL    HW121742  12.343   3.224   4.519
 6615SOL    HW221743  12.223   3.277   4.594
 6616SOL     OW21744  11.627   3.490  11.982
 6616SOL    HW121745  11.659   3.502  12.072
 6616SOL    HW221746  11.585   3.573  11.960
 6617SOL     OW21747   1.296  10.362   9.757
 6617SOL    HW121748   1.353  10.298   9.800
 6617SOL    HW221749   1.352  10.439   9.744
 6618SOL     OW21750   5.756   7.681  11.592
 6618SOL    HW121751   5.664   7.655  11.584
 6618SOL    HW221752   5.797   7.610  11.641
 6619SOL     OW21753   6.947   2.851  11.924
 6619SOL    HW121754   6.967   2.916  11.992
 6619SOL    HW221755   6.857   2.825  11.941
 6620SOL     OW21756   0.845   6.516   8.878
 6620SOL    HW121757   0.930   6.524   8.835
 6620SOL    HW221758   0.866   6.496   8.969
 6621SOL     OW21759   1.525   8.230  11.420
 6621SOL    HW121760   1.605   8.217  11.470
 6621SOL    HW221761   1.554   8.264  11.335
 6622SOL     OW21762  10.361   8.347  10.834
 6622SOL    HW121763  10.310   8.422  10.865
 6622SOL    HW221764  10.444   8.353  10.882
 6623SOL     OW21765   6.644   0.593   8.150
 6623SOL    HW121766   6.587   0.622   8.222
 6623SOL    HW221767   6.730   0.584   8.190
 6624SOL     OW21768   7.307   1.071  14.380
 6624SOL    HW121769   7.298   1.046  14.471
 6624SOL    HW221770   7.224   1.045  14.339
 6625SOL     OW21771   9.925   3.541  12.974
 6625SOL    HW121772   9.902   3.634  12.968
 6625SOL    HW221773   9.990   3.537  13.045
 6626SOL     OW21774  12.823   7.343  12.549
 6626SOL    HW121775  12.875   7.338  12.629
 6626SOL    HW221776  12.750   7.283  12.563
 6627SOL     OW21777   8.328   3.620  10.983
 6627SOL    HW121778   8.259   3.580  10.930
 6627SOL    HW221779   8.309   3.592  11.073
 6628SOL     OW21780   1.517  12.435  12.000
 6628SOL    HW121781   1.431  12.407  12.030
 6628SOL    HW221782   1.565  12.454  12.081
 6629SOL     OW21783   0.321   9.273   4.315
 6629SOL    HW121784   0.330   9.368   4.324
 6629SOL    HW221785   0.246   9.252   4.371
 6630SOL     OW21786   7.003   8.171  13.943
 6630SOL    HW121787   6.996   8.265  13.927
 6630SOL    HW221788   6.928   8.133  13.898
 6631SOL     OW21789   1.159   6.426   8.538
 6631SOL    HW121790   1.222   6.372   8.490
 6631SOL    HW221791   1.150   6.383   8.623
 6632SOL     OW21792  11.677   5.081  13.692
 6632SOL    HW121793  11.760   5.037  13.707
 6632SOL    HW221794  11.626   5.064  13.771
 6633SOL     OW21795   7.249  13.379   8.881
 6633SOL    HW121796   7.182  13.445   8.898
 6633SOL    HW221797   7.296  13.369   8.964
 6634SOL     OW21798  12.982   0.604   1.981
 6634SOL    HW121799  13.074   0.589   1.959
 6634SOL    HW221800  12.985   0.676   2.043
 6635SOL     OW21801   1.953   8.106   7.759
 6635SOL    HW121802   1.869   8.106   7.712
 6635SOL    HW221803   1.961   8.018   7.793
 6636SOL     OW21804  12.881   3.944   4.544
 6636SOL    HW121805  12.959   3.985   4.508
 6636SOL    HW221806  12.838   3.902   4.469
 6637SOL     OW21807   1.568   1.464   7.279
 6637SOL    HW121808   1.615   1.463   7.362
 6637SOL    HW221809   1.564   1.372   7.252
 6638SOL     OW21810  12.702   9.385   6.139
 6638SOL    HW121811  12.767   9.326   6.101
 6638SOL    HW221812  12.700   9.361   6.232
 6639SOL     OW21813  10.763   3.742   3.180
 6639SOL    HW121814  10.842   3.763   3.229
 6639SOL    HW221815  10.692   3.747   3.244
 6640SOL     OW21816   4.788   3.995   9.973
 6640SOL    HW121817   4.802   4.087   9.994
 6640SOL    HW221818   4.694   3.990   9.955
 6641SOL     OW21819  10.291  13.679  10.656
 6641SOL    HW121820  10.337  13.623  10.594
 6641SOL    HW221821  10.320  13.648  10.742
 6642SOL     OW21822   1.439   1.995   2.995
 6642SOL    HW121823   1.428   1.988   2.900
 6642SOL    HW221824   1.464   1.907   3.023
 6643SOL     OW21825   5.007   7.164  11.921
 6643SOL    HW121826   5.031   7.071  11.930
 6643SOL    HW221827   4.924   7.162  11.874
 6644SOL     OW21828  11.829   0.765   2.692
 6644SOL    HW121829  11.845   0.684   2.740
 6644SOL    HW221830  11.745   0.797   2.726
 6645SOL     OW21831  13.523   9.341  13.006
 6645SOL    HW121832  13.486   9.423  13.038
 6645SOL    HW221833  13.594   9.368  12.947
 6646SOL     OW21834   4.175   9.704  12.921
 6646SOL    HW121835   4.133   9.757  12.989
 6646SOL    HW221836   4.123   9.624  12.917
 6647SOL     OW21837   3.290   0.105  13.580
 6647SOL    HW121838   3.371   0.132  13.623
 6647SOL    HW221839   3.311   0.107  13.486
 6648SOL     OW21840  10.826   5.829  10.275
 6648SOL    HW121841  10.784   5.909  10.306
 6648SOL    HW221842  10.915   5.835  10.310
 6649SOL     OW21843  14.525  12.860   5.151
 6649SOL    HW121844  14.475  12.936   5.124
 6649SOL    HW221845  14.461  12.789   5.155
 6650SOL     OW21846  14.253   0.091  11.379
 6650SOL    HW121847  14.201   0.113  11.302
 6650SOL    HW221848  14.332   0.051  11.344
 6651SOL     OW21849   0.168  12.800  10.892
 6651SOL    HW121850   0.125  12.729  10.940
 6651SOL    HW221851   0.188  12.762  10.807
 6652SOL     OW21852  14.707   8.288  11.671
 6652SOL    HW121853  14.671   8.314  11.586
 6652SOL    HW221854  14.753   8.206  11.653
 6653SOL     OW21855   0.407   7.599   6.496
 6653SOL    HW121856   0.319   7.587   6.531
 6653SOL    HW221857   0.399   7.579   6.403
 6654SOL     OW21858  14.676  10.266  11.220
 6654SOL    HW121859  14.587  10.233  11.231
 6654SOL    HW221860  14.689  10.268  11.125
 6655SOL     OW21861  10.231   3.648   7.942
 6655SOL    HW121862  10.265   3.712   7.880
 6655SOL    HW221863  10.305   3.590   7.960
 6656SOL     OW21864   6.526   9.029   9.821
 6656SOL    HW121865   6.505   9.045   9.913
 6656SOL    HW221866   6.619   9.009   9.821
 6657SOL     OW21867   1.597  12.627   7.489
 6657SOL    HW121868   1.502  12.637   7.489
 6657SOL    HW221869   1.614  12.562   7.558
 6658SOL     OW21870  13.615   8.116   4.454
 6658SOL    HW121871  13.600   8.102   4.548
 6658SOL    HW221872  13.538   8.078   4.412
 6659SOL     OW21873  14.591  12.429   4.464
 6659SOL    HW121874  14.516  12.439   4.406
 6659SOL    HW221875  14.628  12.344   4.441
 6660SOL     OW21876   4.427   1.942  12.238
 6660SOL    HW121877   4.461   1.919  12.324
 6660SOL    HW221878   4.478   1.888  12.177
 6661SOL     OW21879  14.349   8.656  13.847
 6661SOL    HW121880  14.310   8.612  13.923
 6661SOL    HW221881  14.405   8.590  13.807
 6662SOL     OW21882  10.056   9.095  12.740
 6662SOL    HW121883   9.966   9.099  12.770
 6662SOL    HW221884  10.103   9.154  12.799
 6663SOL     OW21885   8.968  14.406   3.065
 6663SOL    HW121886   8.958  14.461   3.143
 6663SOL    HW221887   9.012  14.463   3.002
 6664SOL     OW21888   2.222   9.171   3.358
 6664SOL    HW121889   2.161   9.131   3.296
 6664SOL    HW221890   2.208   9.122   3.440
 6665SOL     OW21891  11.042   9.574   2.208
 6665SOL    HW121892  10.967   9.528   2.246
 6665SOL    HW221893  11.078   9.513   2.144
 6666SOL     OW21894   9.097  13.153   4.590
 6666SOL    HW121895   9.009  13.117   4.598
 6666SOL    HW221896   9.154  13.076   4.594
 6667SOL     OW21897   2.791   1.512  12.027
 6667SOL    HW121898   2.740   1.578  12.073
 6667SOL    HW221899   2.861   1.489  12.090
 6668SOL     OW21900   4.780   2.357   9.530
 6668SOL    HW121901   4.838   2.352   9.455
 6668SOL    HW221902   4.826   2.413   9.593
 6669SOL     OW21903   2.444  14.436   8.472
 6669SOL    HW121904   2.512  14.473   8.528
 6669SOL    HW221905   2.369  14.495   8.483
 6670SOL     OW21906   9.309   6.783  14.595
 6670SOL    HW121907   9.226   6.741  14.569
 6670SOL    HW221908   9.292   6.819  14.682
 6671SOL     OW21909   4.061   8.263  11.896
 6671SOL    HW121910   4.034   8.179  11.933
 6671SOL    HW221911   4.149   8.277  11.930
 6672SOL     OW21912  11.303   0.117   5.587
 6672SOL    HW121913  11.239   0.179   5.621
 6672SOL    HW221914  11.256   0.068   5.519
 6673SOL     OW21915   8.270  13.923   5.528
 6673SOL    HW121916   8.191  13.938   5.578
 6673SOL    HW221917   8.248  13.852   5.467
 6674SOL     OW21918   6.466   1.852   0.010
 6674SOL    HW121919   6.472   1.782  14.817
 6674SOL    HW221920   6.556   1.867   0.038
 6675SOL     OW21921  11.838   1.924   7.702
 6675SOL    HW121922  11.847   1.832   7.725
 6675SOL    HW221923  11.745   1.943   7.715
 6676SOL     OW21924   5.223  13.434  10.116
 6676SOL    HW121925   5.173  13.498  10.167
 6676SOL    HW221926   5.269  13.486  10.051
 6677SOL     OW21927   0.844  12.769   8.410
 6677SOL    HW121928   0.752  12.771   8.436
 6677SOL    HW221929   0.892  12.766   8.493
 6678SOL     OW21930   8.948  10.072   0.951
 6678SOL    HW121931   8.910  10.003   1.005
 6678SOL    HW221932   8.937  10.041   0.861
 6679SOL     OW21933   0.774  13.091  13.568
 6679SOL    HW121934   0.779  13.002  13.533
 6679SOL    HW221935   0.709  13.135  13.513
 6680SOL     OW21936  11.050   3.251   5.301
 6680SOL    HW121937  11.036   3.345   5.290
 6680SOL    HW221938  11.145   3.241   5.298
 6681SOL     OW21939   6.216   7.941   7.387
 6681SOL    HW121940   6.193   7.916   7.476
 6681SOL    HW221941   6.218   7.858   7.338
 6682SOL     OW21942   6.978   9.697  13.349
 6682SOL    HW121943   7.005   9.743  13.429
 6682SOL    HW221944   6.970   9.767  13.284
 6683SOL     OW21945  11.876  14.475  11.046
 6683SOL    HW121946  11.880  14.405  10.980
 6683SOL    HW221947  11.824  14.544  11.004
 6684SOL     OW21948  12.145   4.077  13.100
 6684SOL    HW121949  12.121   3.996  13.145
 6684SOL    HW221950  12.230   4.058  13.060
 6685SOL     OW21951   4.594   5.798   2.452
 6685SOL    HW121952   4.606   5.706   2.428
 6685SOL    HW221953   4.671   5.819   2.505
 6686SOL     OW21954   1.575   4.016   0.911
 6686SOL    HW121955   1.552   3.923   0.902
 6686SOL    HW221956   1.659   4.015   0.958
 6687SOL     OW21957   9.211  12.129   9.059
 6687SOL    HW121958   9.162  12.123   8.976
 6687SOL    HW221959   9.297  12.092   9.039
 6688SOL     OW21960   6.918  11.222   3.868
 6688SOL    HW121961   6.873  11.283   3.927
 6688SOL    HW221962   7.007  11.257   3.861
 6689SOL     OW21963   3.904  14.000   6.079
 6689SOL    HW121964   3.830  13.969   6.131
 6689SOL    HW221965   3.954  13.922   6.057
 6690SOL     OW21966  12.871  13.878   0.220
 6690SOL    HW121967  12.863  13.783   0.214
 6690SOL    HW221968  12.951  13.893   0.270
 6691SOL     OW21969   5.898   5.767  13.682
 6691SOL    HW121970   5.965   5.802  13.741
 6691SOL    HW221971   5.892   5.831  13.611
 6692SOL     OW21972  10.047  14.634  11.992
 6692SOL    HW121973  10.106  14.564  12.020
 6692SOL    HW221974  10.006  14.601  11.912
 6693SOL     OW21975  10.039   2.016   0.484
 6693SOL    HW121976  10.056   2.106   0.512
 6693SOL    HW221977  10.082   2.009   0.399
 6694SOL     OW21978   7.139   4.008   8.666
 6694SOL    HW121979   7.081   3.939   8.634
 6694SOL    HW221980   7.219   3.997   8.614
 6695SOL     OW21981   9.994   4.845   4.798
 6695SOL    HW121982  10.089   4.834   4.788
 6695SOL    HW221983   9.958   4.809   4.717
 6696SOL     OW21984   1.033   2.536   7.348
 6696SOL    HW121985   1.031   2.518   7.254
 6696SOL    HW221986   0.957   2.489   7.383
 6697SOL     OW21987   1.153   1.647  12.952
 6697SOL    HW121988   1.135   1.712  13.020
 6697SOL    HW221989   1.067   1.620  12.921
 6698SOL     OW21990   6.740   7.263   9.939
 6698SOL    HW121991   6.736   7.234  10.030
 6698SOL    HW221992   6.727   7.183   9.888
 6699SOL     OW21993  13.887   8.291  11.999
 6699SOL    HW121994  13.834   8.217  11.970
 6699SOL    HW221995  13.967   8.251  12.035
 6700SOL     OW21996   7.114  12.392  14.652
 6700SOL    HW121997   7.045  12.458  14.657
 6700SOL    HW221998   7.096  12.344  14.571
 6701SOL     OW21999  11.686   3.800   1.191
 6701SOL    HW122000  11.756   3.863   1.208
 6701SOL    HW222001  11.624   3.812   1.262
 6702SOL     OW22002   1.667   3.221  12.615
 6702SOL    HW122003   1.630   3.256  12.534
 6702SOL    HW222004   1.600   3.236  12.681
 6703SOL     OW22005   6.394   4.526   9.529
 6703SOL    HW122006   6.419   4.504   9.619
 6703SOL    HW222007   6.331   4.597   9.539
 6704SOL     OW22008   9.020   3.611   1.063
 6704SOL    HW122009   8.925   3.606   1.056
 6704SOL    HW222010   9.035   3.676   1.132
 6705SOL     OW22011   2.979   5.595   4.510
 6705SOL    HW122012   3.058   5.623   4.463
 6705SOL    HW222013   3.004   5.514   4.554
 6706SOL     OW22014  13.218   4.909   0.757
 6706SOL    HW122015  13.179   4.937   0.675
 6706SOL    HW222016  13.303   4.954   0.761
 6707SOL     OW22017   0.066  11.612   8.467
 6707SOL    HW122018   0.118  11.532   8.461
 6707SOL    HW222019   0.037  11.615   8.558
 6708SOL     OW22020  10.689   2.344   1.684
 6708SOL    HW122021  10.735   2.356   1.767
 6708SOL    HW222022  10.603   2.309   1.708
 6709SOL     OW22023  10.728   5.049   3.092
 6709SOL    HW122024  10.655   5.079   3.039
 6709SOL    HW222025  10.761   5.129   3.135
 6710SOL     OW22026   7.997  14.853  13.544
 6710SOL    HW122027   8.082  14.816  13.569
 6710SOL    HW222028   7.999  14.858  13.449
 6711SOL     OW22029  10.155  14.538  10.360
 6711SOL    HW122030  10.150  14.523  10.265
 6711SOL    HW222031  10.240  14.580  10.373
 6712SOL     OW22032   4.565  13.308  12.972
 6712SOL    HW122033   4.570  13.287  13.065
 6712SOL    HW222034   4.511  13.239  12.935
 6713SOL     OW22035   0.263  11.580  12.138
 6713SOL    HW122036   0.239  11.672  12.129
 6713SOL    HW222037   0.226  11.537  12.061
 6714SOL     OW22038  13.096   3.590   1.934
 6714SOL    HW122039  13.085   3.515   1.993
 6714SOL    HW222040  13.070   3.556   1.848
 6715SOL     OW22041   3.421   4.822   8.513
 6715SOL    HW122042   3.510   4.842   8.483
 6715SOL    HW222043   3.434   4.776   8.596
 6716SOL     OW22044  14.539  11.617   4.611
 6716SOL    HW122045  14.553  11.523   4.594
 6716SOL    HW222046  14.483  11.646   4.539
 6717SOL     OW22047   2.071   9.066   7.367
 6717SOL    HW122048   2.094   9.096   7.454
 6717SOL    HW222049   2.116   8.982   7.357
 6718SOL     OW22050   1.716  13.308  12.133
 6718SOL    HW122051   1.786  13.245  12.122
 6718SOL    HW222052   1.667  13.276  12.209
 6719SOL     OW22053   5.612   4.870   7.714
 6719SOL    HW122054   5.586   4.917   7.794
 6719SOL    HW222055   5.561   4.912   7.644
 6720SOL     OW22056  12.784   9.342   2.143
 6720SOL    HW122057  12.855   9.334   2.208
 6720SOL    HW222058  12.717   9.394   2.187
 6721SOL     OW22059   1.084   9.467  13.050
 6721SOL    HW122060   1.125   9.473  12.963
 6721SOL    HW222061   1.001   9.422  13.035
 6722SOL     OW22062   7.053   4.645  14.661
 6722SOL    HW122063   6.997   4.670  14.734
 6722SOL    HW222064   7.131   4.700  14.670
 6723SOL     OW22065   2.967   9.823  12.769
 6723SOL    HW122066   2.960   9.731  12.796
 6723SOL    HW222067   2.889   9.837  12.714
 6724SOL     OW22068  12.357  14.538  10.987
 6724SOL    HW122069  12.295  14.511  11.054
 6724SOL    HW222070  12.305  14.586  10.923
 6725SOL     OW22071   2.115   1.652   0.993
 6725SOL    HW122072   2.189   1.617   0.944
 6725SOL    HW222073   2.127   1.618   1.081
 6726SOL     OW22074   4.542   0.385  11.489
 6726SOL    HW122075   4.636   0.400  11.496
 6726SOL    HW222076   4.503   0.445  11.551
 6727SOL     OW22077  10.217   0.921  12.030
 6727SOL    HW122078  10.143   0.981  12.035
 6727SOL    HW222079  10.178   0.834  12.039
 6728SOL     OW22080   4.673   1.318   8.329
 6728SOL    HW122081   4.738   1.369   8.280
 6728SOL    HW222082   4.718   1.235   8.347
 6729SOL     OW22083   2.460   4.895  10.690
 6729SOL    HW122084   2.538   4.866  10.737
 6729SOL    HW222085   2.416   4.954  10.751
 6730SOL     OW22086  14.826  14.291  13.949
 6730SOL    HW122087   0.045  14.297  13.979
 6730SOL    HW222088  14.774  14.292  14.029
 6731SOL     OW22089  10.843   1.465   3.925
 6731SOL    HW122090  10.799   1.481   4.009
 6731SOL    HW222091  10.871   1.373   3.930
 6732SOL     OW22092   8.257   9.672  14.244
 6732SOL    HW122093   8.294   9.726  14.314
 6732SOL    HW222094   8.259   9.727  14.167
 6733SOL     OW22095  12.457  10.857   6.502
 6733SOL    HW122096  12.487  10.909   6.427
 6733SOL    HW222097  12.522  10.787   6.510
 6734SOL     OW22098  10.039  12.826   4.196
 6734SOL    HW122099   9.945  12.832   4.214
 6734SOL    HW222100  10.075  12.780   4.271
 6735SOL     OW22101   6.967  13.894   3.033
 6735SOL    HW122102   7.058  13.867   3.050
 6735SOL    HW222103   6.951  13.867   2.943
 6736SOL     OW22104   0.545   9.029   9.501
 6736SOL    HW122105   0.552   8.989   9.415
 6736SOL    HW222106   0.609   9.100   9.500
 6737SOL     OW22107   5.326   5.931   9.709
 6737SOL    HW122108   5.268   5.983   9.765
 6737SOL    HW222109   5.337   5.985   9.630
 6738SOL     OW22110   0.023   9.239   9.998
 6738SOL    HW122111   0.064   9.278   9.921
 6738SOL    HW222112   0.068   9.280  10.072
 6739SOL     OW22113   5.399  11.313   5.335
 6739SOL    HW122114   5.453  11.361   5.272
 6739SOL    HW222115   5.439  11.333   5.420
 6740SOL     OW22116   7.211  12.307  10.941
 6740SOL    HW122117   7.302  12.278  10.936
 6740SOL    HW222118   7.215  12.402  10.929
 6741SOL     OW22119   4.922   4.012  11.568
 6741SOL    HW122120   5.003   3.992  11.520
 6741SOL    HW222121   4.952   4.044  11.653
 6742SOL     OW22122   7.438   4.967  13.897
 6742SOL    HW122123   7.484   5.001  13.973
 6742SOL    HW222124   7.427   5.042  13.839
 6743SOL     OW22125   2.672  11.106  10.128
 6743SOL    HW122126   2.759  11.132  10.097
 6743SOL    HW222127   2.643  11.041  10.064
 6744SOL     OW22128   1.710   2.885   9.656
 6744SOL    HW122129   1.744   2.882   9.566
 6744SOL    HW222130   1.643   2.816   9.658
 6745SOL     OW22131   0.965   3.189  13.718
 6745SOL    HW122132   0.906   3.194  13.643
 6745SOL    HW222133   1.005   3.103  13.712
 6746SOL     OW22134   8.898  12.600   2.702
 6746SOL    HW122135   8.993  12.600   2.687
 6746SOL    HW222136   8.865  12.672   2.647
 6747SOL     OW22137   8.218  11.346   1.633
 6747SOL    HW122138   8.245  11.321   1.722
 6747SOL    HW222139   8.300  11.366   1.589
 6748SOL     OW22140   7.269  13.489   8.490
 6748SOL    HW122141   7.322  13.430   8.436
 6748SOL    HW222142   7.245  13.561   8.431
 6749SOL     OW22143   0.475   5.804   9.981
 6749SOL    HW122144   0.437   5.810   9.893
 6749SOL    HW222145   0.419   5.743  10.028
 6750SOL     OW22146  10.473  10.821   2.089
 6750SOL    HW122147  10.464  10.772   2.007
 6750SOL    HW222148  10.495  10.755   2.154
 6751SOL     OW22149   7.450  13.530  11.394
 6751SOL    HW122150   7.394  13.594  11.438
 6751SOL    HW222151   7.501  13.490  11.464
 6752SOL     OW22152  13.167   6.527   4.853
 6752SOL    HW122153  13.093   6.470   4.830
 6752SOL    HW222154  13.126   6.612   4.872
 6753SOL     OW22155   7.197  13.904  13.713
 6753SOL    HW122156   7.170  13.824  13.669
 6753SOL    HW222157   7.274  13.934  13.665
 6754SOL     OW22158   1.066  13.893   3.035
 6754SOL    HW122159   1.114  13.964   2.992
 6754SOL    HW222160   1.022  13.935   3.109
 6755SOL     OW22161  13.009   6.326   0.981
 6755SOL    HW122162  12.989   6.336   1.074
 6755SOL    HW222163  13.003   6.232   0.965
 6756SOL     OW22164  13.994  12.322   8.991
 6756SOL    HW122165  13.933  12.363   9.052
 6756SOL    HW222166  13.981  12.370   8.909
 6757SOL     OW22167   9.570   7.436   2.925
 6757SOL    HW122168   9.581   7.387   2.843
 6757SOL    HW222169   9.598   7.376   2.993
 6758SOL     OW22170  13.494   9.368   3.448
 6758SOL    HW122171  13.552   9.438   3.477
 6758SOL    HW222172  13.539   9.328   3.373
 6759SOL     OW22173   3.076  14.426  11.125
 6759SOL    HW122174   3.089  14.419  11.219
 6759SOL    HW222175   3.044  14.516  11.112
 6760SOL     OW22176   8.816  12.741  10.822
 6760SOL    HW122177   8.757  12.816  10.833
 6760SOL    HW222178   8.869  12.741  10.901
 6761SOL     OW22179  12.828  10.831  11.689
 6761SOL    HW122180  12.774  10.908  11.708
 6761SOL    HW222181  12.788  10.761  11.741
 6762SOL     OW22182  14.525  11.767   5.148
 6762SOL    HW122183  14.533  11.745   5.055
 6762SOL    HW222184  14.613  11.792   5.175
 6763SOL     OW22185   0.508   6.145   3.094
 6763SOL    HW122186   0.548   6.206   3.155
 6763SOL    HW222187   0.463   6.082   3.149
 6764SOL     OW22188   8.247  14.530   1.334
 6764SOL    HW122189   8.211  14.480   1.407
 6764SOL    HW222190   8.184  14.517   1.263
 6765SOL     OW22191   9.085  13.607  12.770
 6765SOL    HW122192   9.061  13.515  12.759
 6765SOL    HW222193   9.005  13.649  12.803
 6766SOL     OW22194  13.432  11.209   2.883
 6766SOL    HW122195  13.510  11.177   2.836
 6766SOL    HW222196  13.396  11.130   2.924
 6767SOL     OW22197  11.183   0.896  12.824
 6767SOL    HW122198  11.120   0.918  12.756
 6767SOL    HW222199  11.267   0.925  12.789
 6768SOL     OW22200   6.244   9.449   2.472
 6768SOL    HW122201   6.263   9.542   2.460
 6768SOL    HW222202   6.235   9.414   2.383
 6769SOL     OW22203   6.650  12.390  12.467
 6769SOL    HW122204   6.661  12.376  12.373
 6769SOL    HW222205   6.567  12.436  12.475
 6770SOL     OW22206   1.943  12.576   9.824
 6770SOL    HW122207   1.859  12.613   9.795
 6770SOL    HW222208   1.973  12.524   9.750
 6771SOL     OW22209  10.204  10.567  14.395
 6771SOL    HW122210  10.206  10.472  14.399
 6771SOL    HW222211  10.243  10.596  14.478
 6772SOL     OW22212   8.394  13.520   8.250
 6772SOL    HW122213   8.353  13.441   8.215
 6772SOL    HW222214   8.322  13.581   8.262
 6773SOL     OW22215  13.762   5.516   8.285
 6773SOL    HW122216  13.752   5.567   8.365
 6773SOL    HW222217  13.857   5.508   8.274
 6774SOL     OW22218  10.621   0.242   2.979
 6774SOL    HW122219  10.586   0.330   2.970
 6774SOL    HW222220  10.544   0.185   2.974
 6775SOL     OW22221   5.457  13.338   6.100
 6775SOL    HW122222   5.365  13.343   6.073
 6775SOL    HW222223   5.476  13.244   6.105
 6776SOL     OW22224  14.256  13.496   0.960
 6776SOL    HW122225  14.161  13.493   0.949
 6776SOL    HW222226  14.290  13.501   0.870
 6777SOL     OW22227   1.118   6.368  12.147
 6777SOL    HW122228   1.169   6.309  12.091
 6777SOL    HW222229   1.030   6.369  12.109
 6778SOL     OW22230   6.486   2.550   1.056
 6778SOL    HW122231   6.579   2.545   1.034
 6778SOL    HW222232   6.442   2.510   0.981
 6779SOL     OW22233   3.715  14.751  10.322
 6779SOL    HW122234   3.668  14.827  10.289
 6779SOL    HW222235   3.805  14.763  10.293
 6780SOL     OW22236   5.130   3.967   1.315
 6780SOL    HW122237   5.195   3.898   1.323
 6780SOL    HW222238   5.081   3.945   1.235
 6781SOL     OW22239   7.984   5.923  10.964
 6781SOL    HW122240   8.058   5.923  10.904
 6781SOL    HW222241   7.949   6.012  10.958
 6782SOL     OW22242   0.596  12.528   1.084
 6782SOL    HW122243   0.642  12.610   1.063
 6782SOL    HW222244   0.505  12.545   1.061
 6783SOL     OW22245  13.726  10.771  11.443
 6783SOL    HW122246  13.717  10.755  11.537
 6783SOL    HW222247  13.730  10.684  11.403
 6784SOL     OW22248   6.770   5.353   4.102
 6784SOL    HW122249   6.682   5.345   4.139
 6784SOL    HW222250   6.776   5.280   4.039
 6785SOL     OW22251   1.944  11.466   8.214
 6785SOL    HW122252   1.992  11.516   8.148
 6785SOL    HW222253   1.939  11.378   8.179
 6786SOL     OW22254   8.939  12.151  11.685
 6786SOL    HW122255   9.012  12.091  11.673
 6786SOL    HW222256   8.972  12.236  11.654
 6787SOL     OW22257  13.949   0.316   2.215
 6787SOL    HW122258  13.975   0.381   2.280
 6787SOL    HW222259  13.859   0.338   2.193
 6788SOL     OW22260  14.534   0.148   0.076
 6788SOL    HW122261  14.557   0.087   0.005
 6788SOL    HW222262  14.454   0.112   0.114
 6789SOL     OW22263  12.092  13.412   5.087
 6789SOL    HW122264  12.163  13.458   5.041
 6789SOL    HW222265  12.136  13.341   5.133
 6790SOL     OW22266   3.196   8.515   6.189
 6790SOL    HW122267   3.143   8.453   6.239
 6790SOL    HW222268   3.268   8.538   6.248
 6791SOL     OW22269   7.545   4.228  13.817
 6791SOL    HW122270   7.460   4.255  13.850
 6791SOL    HW222271   7.536   4.134  13.801
 6792SOL     OW22272  12.832  10.114   2.644
 6792SOL    HW122273  12.743  10.084   2.625
 6792SOL    HW222274  12.830  10.208   2.626
 6793SOL     OW22275   6.578  10.922   9.486
 6793SOL    HW122276   6.558  10.843   9.536
 6793SOL    HW222277   6.506  10.929   9.422
 6794SOL     OW22278   5.009   2.749   6.241
 6794SOL    HW122279   5.046   2.692   6.309
 6794SOL    HW222280   5.013   2.836   6.279
 6795SOL     OW22281   0.589  12.739   8.540
 6795SOL    HW122282   0.573  12.649   8.510
 6795SOL    HW222283   0.521  12.754   8.606
 6796SOL     OW22284  13.884   0.913  13.756
 6796SOL    HW122285  13.863   0.830  13.715
 6796SOL    HW222286  13.799   0.955  13.770
 6797SOL     OW22287  12.320   5.239   7.770
 6797SOL    HW122288  12.375   5.162   7.751
 6797SOL    HW222289  12.356   5.308   7.714
 6798SOL     OW22290   7.540   2.624   6.980
 6798SOL    HW122291   7.565   2.532   6.991
 6798SOL    HW222292   7.499   2.626   6.893
 6799SOL     OW22293   0.767   9.484   0.569
 6799SOL    HW122294   0.851   9.441   0.587
 6799SOL    HW222295   0.706   9.413   0.551
 6800SOL     OW22296   9.147   7.110  10.971
 6800SOL    HW122297   9.102   7.141  11.049
 6800SOL    HW222298   9.096   7.035  10.941
 6801SOL     OW22299   6.617  12.532   3.022
 6801SOL    HW122300   6.623  12.476   2.944
 6801SOL    HW222301   6.708  12.543   3.049
 6802SOL     OW22302  14.043  13.538  13.969
 6802SOL    HW122303  14.125  13.539  13.920
 6802SOL    HW222304  14.067  13.568  14.056
 6803SOL     OW22305   0.247  11.542   7.563
 6803SOL    HW122306   0.243  11.501   7.650
 6803SOL    HW222307   0.271  11.470   7.504
 6804SOL     OW22308  14.831  12.303   0.768
 6804SOL    HW122309   0.025  12.349   0.822
 6804SOL    HW222310   0.011  12.248   0.709
 6805SOL     OW22311   0.670   7.611   2.154
 6805SOL    HW122312   0.675   7.644   2.244
 6805SOL    HW222313   0.746   7.552   2.146
 6806SOL     OW22314   8.687   5.268   9.293
 6806SOL    HW122315   8.594   5.262   9.315
 6806SOL    HW222316   8.727   5.313   9.368
 6807SOL     OW22317   1.088  13.057   4.761
 6807SOL    HW122318   1.139  13.128   4.798
 6807SOL    HW222319   1.125  12.978   4.800
 6808SOL     OW22320   4.245   9.290   3.669
 6808SOL    HW122321   4.190   9.315   3.595
 6808SOL    HW222322   4.276   9.202   3.648
 6809SOL     OW22323  12.337   1.079   1.590
 6809SOL    HW122324  12.254   1.051   1.552
 6809SOL    HW222325  12.372   1.000   1.632
 6810SOL     OW22326   3.796  14.223  14.233
 6810SOL    HW122327   3.757  14.172  14.304
 6810SOL    HW222328   3.888  14.234  14.259
 6811SOL     OW22329  11.409   7.168   4.198
 6811SOL    HW122330  11.322   7.132   4.179
 6811SOL    HW222331  11.433   7.217   4.119
 6812SOL     OW22332   1.107   2.867   8.780
 6812SOL    HW122333   1.157   2.940   8.745
 6812SOL    HW222334   1.017   2.901   8.788
 6813SOL     OW22335  11.356   0.841   4.804
 6813SOL    HW122336  11.316   0.784   4.738
 6813SOL    HW222337  11.283   0.872   4.856
 6814SOL     OW22338   2.932   9.416  10.620
 6814SOL    HW122339   2.906   9.505  10.646
 6814SOL    HW222340   2.978   9.381  10.696
 6815SOL     OW22341  11.466   9.459  11.228
 6815SOL    HW122342  11.381   9.418  11.216
 6815SOL    HW222343  11.504   9.462  11.140
 6816SOL     OW22344   0.988  14.665   7.666
 6816SOL    HW122345   1.010  14.631   7.579
 6816SOL    HW222346   0.899  14.698   7.656
 6817SOL     OW22347   4.743   5.786   2.104
 6817SOL    HW122348   4.824   5.783   2.156
 6817SOL    HW222349   4.706   5.698   2.111
 6818SOL     OW22350   0.927  14.121   6.088
 6818SOL    HW122351   1.022  14.127   6.100
 6818SOL    HW222352   0.892  14.192   6.141
 6819SOL     OW22353   4.713   0.210   6.402
 6819SOL    HW122354   4.773   0.201   6.476
 6819SOL    HW222355   4.689   0.120   6.379
 6820SOL     OW22356   9.007  13.376  13.617
 6820SOL    HW122357   9.086  13.414  13.578
 6820SOL    HW222358   9.012  13.283  13.594
 6821SOL     OW22359   5.137   0.030   3.240
 6821SOL    HW122360   5.080   0.020   3.316
 6821SOL    HW222361   5.082   0.007   3.165
 6822SOL     OW22362   4.307   7.136   3.376
 6822SOL    HW122363   4.255   7.209   3.409
 6822SOL    HW222364   4.398   7.162   3.392
 6823SOL     OW22365   1.707   6.288  10.798
 6823SOL    HW122366   1.676   6.319  10.883
 6823SOL    HW222367   1.634   6.302  10.738
 6824SOL     OW22368   4.874   0.116  10.766
 6824SOL    HW122369   4.870   0.156  10.852
 6824SOL    HW222370   4.922   0.180  10.712
 6825SOL     OW22371  12.498   8.243   8.959
 6825SOL    HW122372  12.459   8.157   8.943
 6825SOL    HW222373  12.569   8.250   8.896
 6826SOL     OW22374   7.417   3.608   2.662
 6826SOL    HW122375   7.460   3.526   2.638
 6826SOL    HW222376   7.357   3.626   2.589
 6827SOL     OW22377   8.250  12.787   2.727
 6827SOL    HW122378   8.193  12.796   2.651
 6827SOL    HW222379   8.270  12.877   2.752
 6828SOL     OW22380   7.018   4.897  11.614
 6828SOL    HW122381   6.943   4.940  11.574
 6828SOL    HW222382   6.985   4.864  11.698
 6829SOL     OW22383   3.458   4.373  13.227
 6829SOL    HW122384   3.410   4.307  13.277
 6829SOL    HW222385   3.524   4.406  13.288
 6830SOL     OW22386   3.769   2.536  12.151
 6830SOL    HW122387   3.695   2.500  12.100
 6830SOL    HW222388   3.815   2.459  12.184
 6831SOL     OW22389   1.531   0.037   2.599
 6831SOL    HW122390   1.495  14.863   2.674
 6831SOL    HW222391   1.626   0.022   2.605
 6832SOL     OW22392   5.980  12.839   1.885
 6832SOL    HW122393   5.961  12.853   1.792
 6832SOL    HW222394   5.920  12.898   1.930
 6833SOL     OW22395  12.337  12.066   1.921
 6833SOL    HW122396  12.292  11.994   1.878
 6833SOL    HW222397  12.271  12.103   1.981
 6834SOL     OW22398   6.059  13.364   0.522
 6834SOL    HW122399   6.004  13.389   0.447
 6834SOL    HW222400   6.089  13.447   0.559
 6835SOL     OW22401   6.254   2.523   7.532
 6835SOL    HW122402   6.258   2.611   7.494
 6835SOL    HW222403   6.171   2.521   7.579
 6836SOL     OW22404   3.200   4.025   1.420
 6836SOL    HW122405   3.132   3.960   1.403
 6836SOL    HW222406   3.152   4.108   1.428
 6837SOL     OW22407   5.490   4.459  10.883
 6837SOL    HW122408   5.457   4.523  10.820
 6837SOL    HW222409   5.552   4.405  10.832
 6838SOL     OW22410   1.112   4.901  10.738
 6838SOL    HW122411   1.158   4.951  10.806
 6838SOL    HW222412   1.080   4.968  10.678
 6839SOL     OW22413   5.569   4.294  11.944
 6839SOL    HW122414   5.658   4.326  11.932
 6839SOL    HW222415   5.515   4.352  11.890
 6840SOL     OW22416  13.156   6.796   6.347
 6840SOL    HW122417  13.073   6.805   6.301
 6840SOL    HW222418  13.132   6.777   6.438
 6841SOL     OW22419   4.989   6.344   7.154
 6841SOL    HW122420   4.953   6.319   7.239
 6841SOL    HW222421   5.057   6.409   7.174
 6842SOL     OW22422   7.953  13.865   5.143
 6842SOL    HW122423   8.046  13.885   5.148
 6842SOL    HW222424   7.917  13.936   5.090
 6843SOL     OW22425   3.855  13.846   8.716
 6843SOL    HW122426   3.808  13.789   8.778
 6843SOL    HW222427   3.912  13.786   8.668
 6844SOL     OW22428  10.204   4.713  13.390
 6844SOL    HW122429  10.145   4.666  13.449
 6844SOL    HW222430  10.145   4.764  13.334
 6845SOL     OW22431  13.770  12.194  11.311
 6845SOL    HW122432  13.830  12.122  11.330
 6845SOL    HW222433  13.706  12.156  11.251
 6846SOL     OW22434  10.313   2.267   3.909
 6846SOL    HW122435  10.232   2.270   3.960
 6846SOL    HW222436  10.323   2.174   3.886
 6847SOL     OW22437   1.381  14.209   9.329
 6847SOL    HW122438   1.313  14.258   9.374
 6847SOL    HW222439   1.453  14.271   9.317
 6848SOL     OW22440   7.647   9.321   8.056
 6848SOL    HW122441   7.553   9.339   8.062
 6848SOL    HW222442   7.672   9.296   8.145
 6849SOL     OW22443   8.020   2.813   4.977
 6849SOL    HW122444   8.105   2.771   4.966
 6849SOL    HW222445   8.013   2.874   4.904
 6850SOL     OW22446   9.780  10.906  10.258
 6850SOL    HW122447   9.869  10.931  10.281
 6850SOL    HW222448   9.725  10.964  10.310
 6851SOL     OW22449  12.453   0.115  13.037
 6851SOL    HW122450  12.398   0.122  12.958
 6851SOL    HW222451  12.515   0.045  13.017
 6852SOL     OW22452  11.131   4.026   8.447
 6852SOL    HW122453  11.146   3.932   8.442
 6852SOL    HW222454  11.179   4.062   8.372
 6853SOL     OW22455   1.916  13.875   0.605
 6853SOL    HW122456   1.970  13.886   0.683
 6853SOL    HW222457   1.847  13.814   0.633
 6854SOL     OW22458  14.846   6.070   8.897
 6854SOL    HW122459   0.045   6.110   8.847
 6854SOL    HW222460  14.808   6.143   8.946
 6855SOL     OW22461   0.316   3.560   5.798
 6855SOL    HW122462   0.242   3.554   5.859
 6855SOL    HW222463   0.308   3.647   5.760
 6856SOL     OW22464   9.516  14.737  13.268
 6856SOL    HW122465   9.536  14.798  13.339
 6856SOL    HW222466   9.543  14.652  13.302
 6857SOL     OW22467  10.538   6.656   9.648
 6857SOL    HW122468  10.562   6.675   9.557
 6857SOL    HW222469  10.508   6.740   9.683
 6858SOL     OW22470   1.929   6.949   3.701
 6858SOL    HW122471   1.948   6.917   3.613
 6858SOL    HW222472   1.969   7.037   3.703
 6859SOL     OW22473   1.864   9.923   1.515
 6859SOL    HW122474   1.883   9.934   1.608
 6859SOL    HW222475   1.921   9.986   1.471
 6860SOL     OW22476  12.426  14.338   9.756
 6860SOL    HW122477  12.483  14.322   9.831
 6860SOL    HW222478  12.430  14.257   9.705
 6861SOL     OW22479   2.473   0.520   4.727
 6861SOL    HW122480   2.558   0.480   4.708
 6861SOL    HW222481   2.490   0.576   4.803
 6862SOL     OW22482   3.171  10.604  12.694
 6862SOL    HW122483   3.215  10.581  12.611
 6862SOL    HW222484   3.210  10.545  12.759
 6863SOL     OW22485  14.786  14.633  13.160
 6863SOL    HW122486  14.837  14.565  13.116
 6863SOL    HW222487  14.852  14.687  13.204
 6864SOL     OW22488   2.317  11.014  10.154
 6864SOL    HW122489   2.231  11.010  10.196
 6864SOL    HW222490   2.379  11.001  10.226
 6865SOL     OW22491   1.867   6.848  10.665
 6865SOL    HW122492   1.948   6.873  10.620
 6865SOL    HW222493   1.877   6.755  10.683
 6866SOL     OW22494   9.800  11.358   0.114
 6866SOL    HW122495   9.789  11.300   0.038
 6866SOL    HW222496   9.712  11.390   0.132
 6867SOL     OW22497   4.514  12.091   7.480
 6867SOL    HW122498   4.593  12.089   7.426
 6867SOL    HW222499   4.487  12.183   7.480
 6868SOL     OW22500   9.045   1.570  13.801
 6868SOL    HW122501   9.043   1.475  13.793
 6868SOL    HW222502   8.953   1.596  13.812
 6869SOL     OW22503   7.480   4.952  11.926
 6869SOL    HW122504   7.484   4.898  12.005
 6869SOL    HW222505   7.514   5.038  11.953
 6870SOL     OW22506   2.101  11.338  12.909
 6870SOL    HW122507   2.167  11.277  12.875
 6870SOL    HW222508   2.084  11.308  12.998
 6871SOL     OW22509   1.465   5.088   3.216
 6871SOL    HW122510   1.430   5.111   3.130
 6871SOL    HW222511   1.407   5.019   3.248
 6872SOL     OW22512  13.136   4.274  10.766
 6872SOL    HW122513  13.133   4.335  10.692
 6872SOL    HW222514  13.062   4.300  10.821
 6873SOL     OW22515   3.352  12.975  10.349
 6873SOL    HW122516   3.358  12.888  10.390
 6873SOL    HW222517   3.363  12.958  10.256
 6874SOL     OW22518   0.172   8.459   3.738
 6874SOL    HW122519   0.158   8.542   3.783
 6874SOL    HW222520   0.097   8.450   3.679
 6875SOL     OW22521   6.996   6.628  14.550
 6875SOL    HW122522   6.947   6.702  14.587
 6875SOL    HW222523   6.944   6.551  14.573
 6876SOL     OW22524  13.924   5.088   8.932
 6876SOL    HW122525  13.917   4.997   8.904
 6876SOL    HW222526  13.968   5.133   8.860
 6877SOL     OW22527   9.746  12.395  13.964
 6877SOL    HW122528   9.814  12.371  14.028
 6877SOL    HW222529   9.789  12.385  13.879
 6878SOL     OW22530   5.142   9.255  11.365
 6878SOL    HW122531   5.101   9.184  11.314
 6878SOL    HW222532   5.117   9.335  11.319
 6879SOL     OW22533   6.721   3.289   9.974
 6879SOL    HW122534   6.641   3.256   9.932
 6879SOL    HW222535   6.792   3.246   9.928
 6880SOL     OW22536  12.936   4.340  10.945
 6880SOL    HW122537  12.869   4.408  10.955
 6880SOL    HW222538  12.892   4.259  10.970
 6881SOL     OW22539   0.819   1.123  12.912
 6881SOL    HW122540   0.768   1.107  12.833
 6881SOL    HW222541   0.805   1.216  12.931
 6882SOL     OW22542   4.662   1.525  10.007
 6882SOL    HW122543   4.727   1.592  10.026
 6882SOL    HW222544   4.670   1.463  10.080
 6883SOL     OW22545   2.956  14.692   4.645
 6883SOL    HW122546   2.912  14.774   4.623
 6883SOL    HW222547   3.048  14.716   4.655
 6884SOL     OW22548   4.821   0.554  14.318
 6884SOL    HW122549   4.822   0.610  14.396
 6884SOL    HW222550   4.913   0.545  14.294
 6885SOL     OW22551  13.805   3.595   5.338
 6885SOL    HW122552  13.813   3.612   5.431
 6885SOL    HW222553  13.889   3.556   5.313
 6886SOL     OW22554  11.409  12.425   4.327
 6886SOL    HW122555  11.404  12.452   4.235
 6886SOL    HW222556  11.432  12.504   4.375
 6887SOL     OW22557  11.958   1.970  12.870
 6887SOL    HW122558  11.913   1.902  12.920
 6887SOL    HW222559  11.944   1.946  12.779
 6888SOL     OW22560   0.756   7.065   2.805
 6888SOL    HW122561   0.819   7.003   2.769
 6888SOL    HW222562   0.808   7.120   2.864
 6889SOL     OW22563   6.828   0.080   2.616
 6889SOL    HW122564   6.737   0.109   2.615
 6889SOL    HW222565   6.844   0.048   2.528
 6890SOL     OW22566   0.722   8.826   7.143
 6890SOL    HW122567   0.714   8.909   7.097
 6890SOL    HW222568   0.641   8.819   7.194
 6891SOL     OW22569   5.721   2.481  13.061
 6891SOL    HW122570   5.660   2.428  13.009
 6891SOL    HW222571   5.677   2.494  13.145
 6892SOL     OW22572  14.681  13.504   8.203
 6892SOL    HW122573  14.605  13.549   8.241
 6892SOL    HW222574  14.706  13.559   8.129
 6893SOL     OW22575   8.278   5.098   0.548
 6893SOL    HW122576   8.283   5.186   0.512
 6893SOL    HW222577   8.313   5.106   0.637
 6894SOL     OW22578   4.461   8.356  10.604
 6894SOL    HW122579   4.383   8.411  10.605
 6894SOL    HW222580   4.524   8.402  10.660
 6895SOL     OW22581  14.206  11.226   7.436
 6895SOL    HW122582  14.110  11.224   7.438
 6895SOL    HW222583  14.227  11.237   7.343
 6896SOL     OW22584   4.419   9.537   9.912
 6896SOL    HW122585   4.457   9.478   9.847
 6896SOL    HW222586   4.450   9.624   9.887
 6897SOL     OW22587   5.328   2.303  14.072
 6897SOL    HW122588   5.364   2.391  14.085
 6897SOL    HW222589   5.273   2.312  13.994
 6898SOL     OW22590   1.329  13.045   8.264
 6898SOL    HW122591   1.257  12.982   8.257
 6898SOL    HW222592   1.290  13.121   8.308
 6899SOL     OW22593   2.894   6.293   2.283
 6899SOL    HW122594   2.805   6.294   2.247
 6899SOL    HW222595   2.949   6.324   2.211
 6900SOL     OW22596   5.281  11.912   4.504
 6900SOL    HW122597   5.307  11.894   4.594
 6900SOL    HW222598   5.353  11.963   4.468
 6901SOL     OW22599   6.691   3.946   4.054
 6901SOL    HW122600   6.759   4.003   4.017
 6901SOL    HW222601   6.739   3.868   4.084
 6902SOL     OW22602   8.936   1.691   2.463
 6902SOL    HW122603   8.858   1.638   2.481
 6902SOL    HW222604   8.944   1.690   2.368
 6903SOL     OW22605  12.282   4.587  13.462
 6903SOL    HW122606  12.291   4.670  13.415
 6903SOL    HW222607  12.340   4.527  13.416
 6904SOL     OW22608   9.444   6.867   0.140
 6904SOL    HW122609   9.416   6.881   0.231
 6904SOL    HW222610   9.540   6.862   0.146
 6905SOL     OW22611   2.797   3.060  10.747
 6905SOL    HW122612   2.733   2.989  10.746
 6905SOL    HW222613   2.882   3.017  10.736
 6906SOL     OW22614   1.837  11.623   8.567
 6906SOL    HW122615   1.742  11.633   8.562
 6906SOL    HW222616   1.851  11.529   8.578
 6907SOL     OW22617  14.625   2.803   1.581
 6907SOL    HW122618  14.670   2.719   1.596
 6907SOL    HW222619  14.664   2.862   1.645
 6908SOL     OW22620  11.630   2.330   4.553
 6908SOL    HW122621  11.638   2.325   4.648
 6908SOL    HW222622  11.619   2.239   4.524
 6909SOL     OW22623  13.146   6.465  14.064
 6909SOL    HW122624  13.065   6.418  14.084
 6909SOL    HW222625  13.117   6.550  14.030
 6910SOL     OW22626  10.111   6.607  10.104
 6910SOL    HW122627  10.181   6.653  10.059
 6910SOL    HW222628  10.134   6.514  10.097
 6911SOL     OW22629  11.245  14.145  11.515
 6911SOL    HW122630  11.280  14.058  11.531
 6911SOL    HW222631  11.189  14.135  11.438
 6912SOL     OW22632   2.954  14.518   9.181
 6912SOL    HW122633   2.982  14.593   9.234
 6912SOL    HW222634   2.887  14.475   9.234
 6913SOL     OW22635   8.508   7.028  10.485
 6913SOL    HW122636   8.497   7.091  10.557
 6913SOL    HW222637   8.593   7.048  10.447
 6914SOL     OW22638   8.678   9.762   0.586
 6914SOL    HW122639   8.608   9.766   0.520
 6914SOL    HW222640   8.635   9.786   0.668
 6915SOL     OW22641   7.020   9.754  13.721
 6915SOL    HW122642   7.086   9.689  13.747
 6915SOL    HW222643   6.945   9.701  13.693
 6916SOL     OW22644   5.282  10.594  13.992
 6916SOL    HW122645   5.357  10.595  13.932
 6916SOL    HW222646   5.268  10.501  14.010
 6917SOL     OW22647   5.102   3.621   2.666
 6917SOL    HW122648   5.027   3.633   2.608
 6917SOL    HW222649   5.171   3.588   2.608
 6918SOL     OW22650   6.127   8.083  13.244
 6918SOL    HW122651   6.217   8.094  13.213
 6918SOL    HW222652   6.134   8.075  13.339
 6919SOL     OW22653  12.752   9.855   8.819
 6919SOL    HW122654  12.791   9.846   8.906
 6919SOL    HW222655  12.662   9.824   8.829
 6920SOL     OW22656   6.593   7.424   1.716
 6920SOL    HW122657   6.531   7.457   1.781
 6920SOL    HW222658   6.558   7.339   1.691
 6921SOL     OW22659   7.753   3.449   0.878
 6921SOL    HW122660   7.688   3.460   0.808
 6921SOL    HW222661   7.793   3.536   0.888
 6922SOL     OW22662   3.586   5.687  12.347
 6922SOL    HW122663   3.544   5.659  12.266
 6922SOL    HW222664   3.559   5.778  12.359
 6923SOL     OW22665   5.294  12.945   4.392
 6923SOL    HW122666   5.341  12.941   4.308
 6923SOL    HW222667   5.236  13.021   4.383
 6924SOL     OW22668  14.381   7.308   9.650
 6924SOL    HW122669  14.471   7.327   9.678
 6924SOL    HW222670  14.368   7.216   9.672
 6925SOL     OW22671   6.363   8.112   9.552
 6925SOL    HW122672   6.437   8.154   9.595
 6925SOL    HW222673   6.304   8.184   9.530
 6926SOL     OW22674   4.950  14.236  13.302
 6926SOL    HW122675   5.030  14.194  13.271
 6926SOL    HW222676   4.921  14.182  13.375
 6927SOL     OW22677   9.028  14.441   0.336
 6927SOL    HW122678   9.013  14.389   0.415
 6927SOL    HW222679   9.029  14.376   0.266
 6928SOL     OW22680   9.065  14.023   0.109
 6928SOL    HW122681   9.045  14.115   0.127
 6928SOL    HW222682   9.032  13.976   0.186
 6929SOL     OW22683   7.092   8.737   0.099
 6929SOL    HW122684   7.075   8.680   0.173
 6929SOL    HW222685   7.116   8.822   0.138
 6930SOL     OW22686  10.376  13.675   8.608
 6930SOL    HW122687  10.423  13.723   8.676
 6930SOL    HW222688  10.293  13.649   8.648
 6931SOL     OW22689  12.490   9.602  10.315
 6931SOL    HW122690  12.501   9.671  10.380
 6931SOL    HW222691  12.572   9.600  10.267
 6932SOL     OW22692   6.428   0.808   5.740
 6932SOL    HW122693   6.398   0.802   5.831
 6932SOL    HW222694   6.406   0.723   5.702
 6933SOL     OW22695  11.060   4.491   1.791
 6933SOL    HW122696  11.096   4.454   1.872
 6933SOL    HW222697  11.133   4.488   1.729
 6934SOL     OW22698  10.335   0.027   7.810
 6934SOL    HW122699  10.346  14.826   7.749
 6934SOL    HW222700  10.418   0.031   7.858
 6935SOL     OW22701  10.159  10.243  12.200
 6935SOL    HW122702  10.174  10.153  12.172
 6935SOL    HW222703  10.245  10.273  12.231
 6936SOL     OW22704   9.936  13.167  12.520
 6936SOL    HW122705   9.854  13.210  12.499
 6936SOL    HW222706   9.918  13.120  12.601
 6937SOL     OW22707   3.715   6.876   9.577
 6937SOL    HW122708   3.804   6.847   9.598
 6937SOL    HW222709   3.720   6.910   9.488
 6938SOL     OW22710   4.537  11.204  14.836
 6938SOL    HW122711   4.485  11.125  14.849
 6938SOL    HW222712   4.484  11.257  14.776
 6939SOL     OW22713  10.579   1.843   0.124
 6939SOL    HW122714  10.672   1.822   0.128
 6939SOL    HW222715  10.539   1.788   0.191
 6940SOL     OW22716   9.366   9.689   6.914
 6940SOL    HW122717   9.421   9.648   6.981
 6940SOL    HW222718   9.408   9.773   6.896
 6941SOL     OW22719  11.893  13.927   2.299
 6941SOL    HW122720  11.888  13.831   2.300
 6941SOL    HW222721  11.907  13.949   2.207
 6942SOL     OW22722   9.597   4.167  11.872
 6942SOL    HW122723   9.643   4.170  11.789
 6942SOL    HW222724   9.662   4.196  11.937
 6943SOL     OW22725  11.185  10.182  12.604
 6943SOL    HW122726  11.113  10.192  12.666
 6943SOL    HW222727  11.147  10.134  12.531
 6944SOL     OW22728   5.528  12.898  14.749
 6944SOL    HW122729   5.547  12.868  14.838
 6944SOL    HW222730   5.555  12.825  14.693
 6945SOL     OW22731   5.194   4.253  14.616
 6945SOL    HW122732   5.119   4.224  14.564
 6945SOL    HW222733   5.164   4.335  14.656
 6946SOL     OW22734   4.816  12.500  13.448
 6946SOL    HW122735   4.741  12.530  13.396
 6946SOL    HW222736   4.881  12.475  13.382
 6947SOL     OW22737   8.326  14.026   3.773
 6947SOL    HW122738   8.258  14.090   3.796
 6947SOL    HW222739   8.401  14.080   3.746
 6948SOL     OW22740  10.033   9.398   8.770
 6948SOL    HW122741  10.045   9.457   8.695
 6948SOL    HW222742  10.002   9.316   8.731
 6949SOL     OW22743  12.717   3.515   9.343
 6949SOL    HW122744  12.654   3.532   9.274
 6949SOL    HW222745  12.703   3.586   9.407
 6950SOL     OW22746   7.222   5.399  14.663
 6950SOL    HW122747   7.200   5.432  14.576
 6950SOL    HW222748   7.156   5.332  14.680
 6951SOL     OW22749   1.726  13.418   5.439
 6951SOL    HW122750   1.728  13.451   5.349
 6951SOL    HW222751   1.817  13.420   5.467
 6952SOL     OW22752   7.878  12.099  13.246
 6952SOL    HW122753   7.902  12.044  13.171
 6952SOL    HW222754   7.947  12.165  13.250
 6953SOL     OW22755   9.349  13.818   8.011
 6953SOL    HW122756   9.351  13.729   7.976
 6953SOL    HW222757   9.319  13.808   8.101
 6954SOL     OW22758   2.551  14.090  12.113
 6954SOL    HW122759   2.557  14.015  12.172
 6954SOL    HW222760   2.459  14.089  12.084
 6955SOL     OW22761   6.633   2.213   6.164
 6955SOL    HW122762   6.686   2.176   6.234
 6955SOL    HW222763   6.647   2.154   6.090
 6956SOL     OW22764   7.676   2.176   3.613
 6956SOL    HW122765   7.684   2.112   3.542
 6956SOL    HW222766   7.642   2.255   3.571
 6957SOL     OW22767  13.511  13.910   7.508
 6957SOL    HW122768  13.475  13.956   7.584
 6957SOL    HW222769  13.473  13.955   7.433
 6958SOL     OW22770   0.659   9.659   3.314
 6958SOL    HW122771   0.693   9.717   3.383
 6958SOL    HW222772   0.662   9.572   3.352
 6959SOL     OW22773   5.050   3.367   0.295
 6959SOL    HW122774   5.103   3.444   0.277
 6959SOL    HW222775   5.001   3.389   0.374
 6960SOL     OW22776   3.033   9.241   3.667
 6960SOL    HW122777   3.031   9.209   3.577
 6960SOL    HW222778   2.942   9.242   3.695
 6961SOL     OW22779   4.007   6.250   9.508
 6961SOL    HW122780   3.966   6.288   9.430
 6961SOL    HW222781   4.030   6.326   9.562
 6962SOL     OW22782  14.069   7.173  12.497
 6962SOL    HW122783  14.140   7.114  12.470
 6962SOL    HW222784  14.070   7.243  12.432
 6963SOL     OW22785   8.616   7.539  13.133
 6963SOL    HW122786   8.707   7.522  13.155
 6963SOL    HW222787   8.579   7.578  13.212
 6964SOL     OW22788  13.499   2.449   2.070
 6964SOL    HW122789  13.462   2.399   2.143
 6964SOL    HW222790  13.508   2.385   1.999
 6965SOL     OW22791   4.259   1.042   4.717
 6965SOL    HW122792   4.278   1.062   4.625
 6965SOL    HW222793   4.255   0.946   4.720
 6966SOL     OW22794   7.045   5.002   1.219
 6966SOL    HW122795   7.117   4.941   1.234
 6966SOL    HW222796   7.059   5.034   1.130
 6967SOL     OW22797   2.222   5.006   4.143
 6967SOL    HW122798   2.228   5.045   4.231
 6967SOL    HW222799   2.162   4.932   4.154
 6968SOL     OW22800   7.193   8.889   4.196
 6968SOL    HW122801   7.134   8.879   4.270
 6968SOL    HW222802   7.259   8.821   4.208
 6969SOL     OW22803   2.727  11.766   6.505
 6969SOL    HW122804   2.760  11.755   6.594
 6969SOL    HW222805   2.650  11.709   6.501
 6970SOL     OW22806   2.751   6.392   0.176
 6970SOL    HW122807   2.731   6.467   0.120
 6970SOL    HW222808   2.667   6.367   0.214
 6971SOL     OW22809   6.060   3.349   8.670
 6971SOL    HW122810   6.056   3.407   8.745
 6971SOL    HW222811   5.970   3.348   8.635
 6972SOL     OW22812   4.147   4.966   5.006
 6972SOL    HW122813   4.146   4.918   4.923
 6972SOL    HW222814   4.114   5.053   4.985
 6973SOL     OW22815   4.806   1.658  11.826
 6973SOL    HW122816   4.865   1.640  11.899
 6973SOL    HW222817   4.837   1.741  11.790
 6974SOL     OW22818   8.090   5.331   6.805
 6974SOL    HW122819   8.081   5.241   6.836
 6974SOL    HW222820   8.169   5.329   6.750
 6975SOL     OW22821  14.203   7.747   8.384
 6975SOL    HW122822  14.276   7.761   8.445
 6975SOL    HW222823  14.244   7.748   8.298
 6976SOL     OW22824   6.184  13.701   9.032
 6976SOL    HW122825   6.265  13.750   9.046
 6976SOL    HW222826   6.163  13.666   9.118
 6977SOL     OW22827   3.188  12.767  11.578
 6977SOL    HW122828   3.208  12.731  11.665
 6977SOL    HW222829   3.094  12.784  11.579
 6978SOL     OW22830   6.105   6.652  10.724
 6978SOL    HW122831   6.032   6.705  10.758
 6978SOL    HW222832   6.088   6.645  10.630
 6979SOL     OW22833   5.866   2.040   0.093
 6979SOL    HW122834   5.841   2.014   0.004
 6979SOL    HW222835   5.844   1.964   0.147
 6980SOL     OW22836  14.670   1.410  10.086
 6980SOL    HW122837  14.761   1.432  10.065
 6980SOL    HW222838  14.665   1.315  10.075
 6981SOL     OW22839   9.150  10.476   6.856
 6981SOL    HW122840   9.070  10.456   6.807
 6981SOL    HW222841   9.120  10.488   6.946
 6982SOL     OW22842   0.399   5.107   2.237
 6982SOL    HW122843   0.456   5.176   2.272
 6982SOL    HW222844   0.448   5.026   2.252
 6983SOL     OW22845   9.443   7.367   6.680
 6983SOL    HW122846   9.469   7.459   6.683
 6983SOL    HW222847   9.356   7.366   6.720
 6984SOL     OW22848   7.017   2.737   1.451
 6984SOL    HW122849   7.088   2.788   1.489
 6984SOL    HW222850   6.981   2.687   1.525
 6985SOL     OW22851   3.384   0.086  13.285
 6985SOL    HW122852   3.438   0.007  13.282
 6985SOL    HW222853   3.305   0.062  13.238
 6986SOL     OW22854  10.468   4.851   2.338
 6986SOL    HW122855  10.560   4.840   2.363
 6986SOL    HW222856  10.460   4.944   2.316
 6987SOL     OW22857   5.338   6.122  13.268
 6987SOL    HW122858   5.378   6.207  13.254
 6987SOL    HW222859   5.317   6.120  13.361
 6988SOL     OW22860   6.967  11.411  14.697
 6988SOL    HW122861   6.984  11.328  14.651
 6988SOL    HW222862   6.967  11.477  14.628
 6989SOL     OW22863  12.678   2.029   9.031
 6989SOL    HW122864  12.625   2.107   9.042
 6989SOL    HW222865  12.616   1.959   9.014
 6990SOL     OW22866   4.763   2.877   0.928
 6990SOL    HW122867   4.785   2.830   0.848
 6990SOL    HW222868   4.768   2.970   0.904
 6991SOL     OW22869   2.594  13.939   6.889
 6991SOL    HW122870   2.672  13.968   6.937
 6991SOL    HW222871   2.604  13.844   6.884
 6992SOL     OW22872  14.498  11.714   2.302
 6992SOL    HW122873  14.564  11.661   2.257
 6992SOL    HW222874  14.484  11.670   2.386
 6993SOL     OW22875   0.253   5.617   3.822
 6993SOL    HW122876   0.198   5.633   3.898
 6993SOL    HW222877   0.306   5.695   3.813
 6994SOL     OW22878   6.416  11.939  12.871
 6994SOL    HW122879   6.416  12.020  12.820
 6994SOL    HW222880   6.483  11.885  12.829
 6995SOL     OW22881   9.393   9.437  14.731
 6995SOL    HW122882   9.457   9.378  14.772
 6995SOL    HW222883   9.444   9.516  14.710
 6996SOL     OW22884   3.464  11.976   4.501
 6996SOL    HW122885   3.464  12.036   4.427
 6996SOL    HW222886   3.538  12.004   4.555
 6997SOL     OW22887   9.704   7.815   1.154
 6997SOL    HW122888   9.648   7.814   1.233
 6997SOL    HW222889   9.653   7.768   1.088
 6998SOL     OW22890  10.278  10.783   8.305
 6998SOL    HW122891  10.203  10.768   8.363
 6998SOL    HW222892  10.302  10.875   8.321
 6999SOL     OW22893  12.750   5.651   8.520
 6999SOL    HW122894  12.832   5.618   8.556
 6999SOL    HW222895  12.768   5.742   8.498
 7000SOL     OW22896   6.673   0.452   3.533
 7000SOL    HW122897   6.669   0.450   3.438
 7000SOL    HW222898   6.767   0.457   3.553
 7001SOL     OW22899  10.599   3.098   4.666
 7001SOL    HW122900  10.542   3.143   4.727
 7001SOL    HW222901  10.550   3.096   4.584
 7002SOL     OW22902  11.063   2.110  11.528
 7002SOL    HW122903  10.977   2.149  11.539
 7002SOL    HW222904  11.047   2.016  11.530
 7003SOL     OW22905  10.426   5.465  10.444
 7003SOL    HW122906  10.461   5.393  10.392
 7003SOL    HW222907  10.334   5.443  10.458
 7004SOL     OW22908   2.390  12.760   2.347
 7004SOL    HW122909   2.422  12.850   2.351
 7004SOL    HW222910   2.455  12.714   2.293
 7005SOL     OW22911  12.837   2.166   2.853
 7005SOL    HW122912  12.917   2.187   2.901
 7005SOL    HW222913  12.796   2.095   2.903
 7006SOL     OW22914   0.260   9.046   0.070
 7006SOL    HW122915   0.192   9.104   0.036
 7006SOL    HW222916   0.325   9.044  14.871
 7007SOL     OW22917  14.123  13.140   9.152
 7007SOL    HW122918  14.162  13.093   9.226
 7007SOL    HW222919  14.178  13.217   9.140
 7008SOL     OW22920  14.503  10.170  11.517
 7008SOL    HW122921  14.570  10.238  11.517
 7008SOL    HW222922  14.540  10.099  11.465
 7009SOL     OW22923  12.615   2.523   4.056
 7009SOL    HW122924  12.540   2.526   4.116
 7009SOL    HW222925  12.691   2.536   4.112
 7010SOL     OW22926   2.831   0.938   1.108
 7010SOL    HW122927   2.833   0.873   1.177
 7010SOL    HW222928   2.903   0.998   1.128
 7011SOL     OW22929   2.665   6.815   3.501
 7011SOL    HW122930   2.748   6.768   3.508
 7011SOL    HW222931   2.628   6.785   3.418
 7012SOL     OW22932   5.476   3.651  13.741
 7012SOL    HW122933   5.559   3.688  13.772
 7012SOL    HW222934   5.466   3.571  13.791
 7013SOL     OW22935   7.001   3.781   7.570
 7013SOL    HW122936   7.075   3.811   7.517
 7013SOL    HW222937   6.924   3.809   7.520
 7014SOL     OW22938   8.410   0.460   3.484
 7014SOL    HW122939   8.434   0.383   3.534
 7014SOL    HW222940   8.476   0.526   3.508
 7015SOL     OW22941   6.233   1.551   1.253
 7015SOL    HW122942   6.200   1.640   1.248
 7015SOL    HW222943   6.159   1.496   1.228
 7016SOL     OW22944  12.378   7.983  10.997
 7016SOL    HW122945  12.370   7.992  11.092
 7016SOL    HW222946  12.404   7.891  10.984
 7017SOL     OW22947  13.457   7.790   6.793
 7017SOL    HW122948  13.374   7.780   6.838
 7017SOL    HW222949  13.467   7.885   6.781
 7018SOL     OW22950   7.991   1.862   7.849
 7018SOL    HW122951   7.971   1.940   7.796
 7018SOL    HW222952   8.087   1.857   7.846
 7019SOL     OW22953   4.933  14.673   9.181
 7019SOL    HW122954   5.021  14.644   9.206
 7019SOL    HW222955   4.888  14.687   9.265
 7020SOL     OW22956   8.195   1.066  12.171
 7020SOL    HW122957   8.290   1.072  12.165
 7020SOL    HW222958   8.178   1.039  12.261
 7021SOL     OW22959  11.043  10.623   9.615
 7021SOL    HW122960  10.993  10.638   9.695
 7021SOL    HW222961  10.986  10.653   9.545
 7022SOL     OW22962   9.043   0.764   5.836
 7022SOL    HW122963   9.090   0.817   5.771
 7022SOL    HW222964   9.004   0.828   5.896
 7023SOL     OW22965   6.878   9.599  12.898
 7023SOL    HW122966   6.890   9.688  12.933
 7023SOL    HW222967   6.937   9.545  12.950
 7024SOL     OW22968   8.023   4.795   2.821
 7024SOL    HW122969   8.076   4.790   2.901
 7024SOL    HW222970   7.956   4.728   2.833
 7025SOL     OW22971   6.146  12.973   2.261
 7025SOL    HW122972   6.197  12.934   2.190
 7025SOL    HW222973   6.209  12.983   2.333
 7026SOL     OW22974   1.332  14.296   6.947
 7026SOL    HW122975   1.277  14.361   6.990
 7026SOL    HW222976   1.312  14.214   6.992
 7027SOL     OW22977   5.852   9.203  13.527
 7027SOL    HW122978   5.839   9.130  13.587
 7027SOL    HW222979   5.821   9.170  13.442
 7028SOL     OW22980   6.830   7.673   3.870
 7028SOL    HW122981   6.921   7.657   3.844
 7028SOL    HW222982   6.796   7.731   3.802
 7029SOL     OW22983  13.984   3.456   0.068
 7029SOL    HW122984  13.898   3.497   0.065
 7029SOL    HW222985  13.995   3.419  14.852
 7030SOL     OW22986  10.246  11.235  14.509
 7030SOL    HW122987  10.221  11.327  14.516
 7030SOL    HW222988  10.262  11.222  14.415
 7031SOL     OW22989   0.141   9.874   9.729
 7031SOL    HW122990   0.149   9.812   9.656
 7031SOL    HW222991   0.119   9.819   9.805
 7032SOL     OW22992   8.627  14.712  14.180
 7032SOL    HW122993   8.631  14.784  14.242
 7032SOL    HW222994   8.535  14.685  14.179
 7033SOL     OW22995   8.219   2.415   6.298
 7033SOL    HW122996   8.176   2.410   6.383
 7033SOL    HW222997   8.199   2.503   6.267
 7034SOL     OW22998   1.505   5.327   7.318
 7034SOL    HW122999   1.542   5.404   7.274
 7034SOL    HW223000   1.563   5.313   7.394
 7035SOL     OW23001   7.218  11.898  14.857
 7035SOL    HW123002   7.206  11.990  14.832
 7035SOL    HW223003   7.312  11.882  14.846
 7036SOL     OW23004   5.090   9.418   5.470
 7036SOL    HW123005   5.086   9.384   5.560
 7036SOL    HW223006   5.039   9.355   5.419
 7037SOL     OW23007   6.275  10.455   5.403
 7037SOL    HW123008   6.181  10.458   5.381
 7037SOL    HW223009   6.282  10.386   5.468
 7038SOL     OW23010  10.717   2.598  12.166
 7038SOL    HW123011  10.667   2.543  12.106
 7038SOL    HW223012  10.791   2.542  12.193
 7039SOL     OW23013   1.251   7.019  11.510
 7039SOL    HW123014   1.163   6.990  11.533
 7039SOL    HW223015   1.250   7.026  11.415
 7040SOL     OW23016   4.664  11.823  12.104
 7040SOL    HW123017   4.670  11.739  12.149
 7040SOL    HW223018   4.607  11.806  12.029
 7041SOL     OW23019   6.312   0.668   4.440
 7041SOL    HW123020   6.310   0.754   4.397
 7041SOL    HW223021   6.325   0.606   4.368
 7042SOL     OW23022   5.489   2.645   8.987
 7042SOL    HW123023   5.578   2.616   8.965
 7042SOL    HW223024   5.466   2.706   8.917
 7043SOL     OW23025   9.059  14.455   8.164
 7043SOL    HW123026   9.131  14.486   8.109
 7043SOL    HW223027   8.995  14.419   8.102
 7044SOL     OW23028   0.909   9.369   4.479
 7044SOL    HW123029   0.925   9.375   4.573
 7044SOL    HW223030   0.947   9.285   4.453
 7045SOL     OW23031   4.954   0.276   8.337
 7045SOL    HW123032   4.909   0.243   8.260
 7045SOL    HW223033   4.983   0.198   8.383
 7046SOL     OW23034   0.473   5.690   9.517
 7046SOL    HW123035   0.564   5.675   9.541
 7046SOL    HW223036   0.441   5.604   9.489
 7047SOL     OW23037   5.697   9.680  14.528
 7047SOL    HW123038   5.759   9.637  14.469
 7047SOL    HW223039   5.745   9.755  14.564
 7048SOL     OW23040   6.318   8.972  11.645
 7048SOL    HW123041   6.287   9.042  11.703
 7048SOL    HW223042   6.381   9.015  11.588
 7049SOL     OW23043  14.709   5.952  11.393
 7049SOL    HW123044  14.616   5.931  11.377
 7049SOL    HW223045  14.718   5.952  11.488
 7050SOL     OW23046   9.211  14.755   0.187
 7050SOL    HW123047   9.190  14.811   0.112
 7050SOL    HW223048   9.203  14.666   0.152
 7051SOL     OW23049   5.773   7.369  14.101
 7051SOL    HW123050   5.809   7.327  14.179
 7051SOL    HW223051   5.748   7.296  14.044
 7052SOL     OW23052   4.917  10.076   9.992
 7052SOL    HW123053   4.965  10.077  10.075
 7052SOL    HW223054   4.965  10.136   9.935
 7053SOL     OW23055   2.083   2.573   5.593
 7053SOL    HW123056   2.097   2.580   5.688
 7053SOL    HW223057   2.090   2.663   5.562
 7054SOL     OW23058   6.572   7.356   0.964
 7054SOL    HW123059   6.631   7.282   0.978
 7054SOL    HW223060   6.519   7.330   0.888
 7055SOL     OW23061  11.172   4.559   5.830
 7055SOL    HW123062  11.101   4.563   5.766
 7055SOL    HW223063  11.221   4.640   5.818
 7056SOL     OW23064  14.039   1.803   0.777
 7056SOL    HW123065  14.095   1.740   0.822
 7056SOL    HW223066  14.019   1.870   0.843
 7057SOL     OW23067   3.943  12.869   0.738
 7057SOL    HW123068   3.948  12.963   0.720
 7057SOL    HW223069   4.033  12.838   0.728
 7058SOL     OW23070   1.381   1.167  10.097
 7058SOL    HW123071   1.437   1.231  10.141
 7058SOL    HW223072   1.430   1.143  10.018
 7059SOL     OW23073   0.085   2.636   5.040
 7059SOL    HW123074   0.080   2.698   5.113
 7059SOL    HW223075  14.867   2.632   5.006
 7060SOL     OW23076  13.196  14.520   0.649
 7060SOL    HW123077  13.117  14.546   0.603
 7060SOL    HW223078  13.198  14.425   0.643
 7061SOL     OW23079   1.884   1.886   0.354
 7061SOL    HW123080   1.848   1.845   0.433
 7061SOL    HW223081   1.808   1.917   0.305
 7062SOL     OW23082   4.405  13.979   0.003
 7062SOL    HW123083   4.435  13.965   0.093
 7062SOL    HW223084   4.353  13.901  14.855
 7063SOL     OW23085   3.532   1.682   8.333
 7063SOL    HW123086   3.617   1.689   8.375
 7063SOL    HW223087   3.497   1.771   8.334
 7064SOL     OW23088   0.242   8.575  12.964
 7064SOL    HW123089   0.166   8.615  13.006
 7064SOL    HW223090   0.312   8.581  13.029
 7065SOL     OW23091   2.511   7.289  11.902
 7065SOL    HW123092   2.429   7.250  11.935
 7065SOL    HW223093   2.580   7.237  11.944
 7066SOL     OW23094   4.198  10.267  12.999
 7066SOL    HW123095   4.106  10.238  12.999
 7066SOL    HW223096   4.194  10.360  13.022
 7067SOL     OW23097   5.552   6.447  12.766
 7067SOL    HW123098   5.546   6.399  12.848
 7067SOL    HW223099   5.575   6.536  12.792
 7068SOL     OW23100   1.500   2.216  14.701
 7068SOL    HW123101   1.460   2.299  14.672
 7068SOL    HW223102   1.494   2.159  14.625
 7069SOL     OW23103   6.558   2.137   6.505
 7069SOL    HW123104   6.574   2.199   6.576
 7069SOL    HW223105   6.634   2.147   6.447
 7070SOL     OW23106   5.955   7.667   8.663
 7070SOL    HW123107   5.978   7.746   8.712
 7070SOL    HW223108   5.860   7.661   8.669
 7071SOL     OW23109   6.897   2.205   3.469
 7071SOL    HW123110   6.881   2.294   3.500
 7071SOL    HW223111   6.964   2.170   3.527
 7072SOL     OW23112   7.091   2.832  12.583
 7072SOL    HW123113   7.009   2.879  12.571
 7072SOL    HW223114   7.155   2.881  12.531
 7073SOL     OW23115  11.625  10.244   6.153
 7073SOL    HW123116  11.598  10.308   6.088
 7073SOL    HW223117  11.688  10.291   6.208
 7074SOL     OW23118   8.815   5.765   2.819
 7074SOL    HW123119   8.761   5.802   2.750
 7074SOL    HW223120   8.866   5.839   2.852
 7075SOL     OW23121  11.450  10.150  12.688
 7075SOL    HW123122  11.483  10.110  12.608
 7075SOL    HW223123  11.354  10.144  12.680
 7076SOL     OW23124  11.366   1.704   0.630
 7076SOL    HW123125  11.272   1.690   0.639
 7076SOL    HW223126  11.394   1.739   0.714
 7077SOL     OW23127  13.338   5.841   7.626
 7077SOL    HW123128  13.249   5.828   7.658
 7077SOL    HW223129  13.353   5.935   7.635
 7078SOL     OW23130   9.058   1.321   7.291
 7078SOL    HW123131   9.132   1.382   7.287
 7078SOL    HW223132   9.085   1.256   7.356
 7079SOL     OW23133   3.563   2.241   5.648
 7079SOL    HW123134   3.587   2.171   5.709
 7079SOL    HW223135   3.550   2.318   5.703
 7080SOL     OW23136  12.159   6.666   2.646
 7080SOL    HW123137  12.144   6.709   2.730
 7080SOL    HW223138  12.094   6.705   2.587
 7081SOL     OW23139   4.476   4.736  12.997
 7081SOL    HW123140   4.507   4.652  13.032
 7081SOL    HW223141   4.383   4.739  13.019
 7082SOL     OW23142  11.377   6.556   1.248
 7082SOL    HW123143  11.347   6.545   1.158
 7082SOL    HW223144  11.297   6.573   1.298
 7083SOL     OW23145  11.588   9.072  13.996
 7083SOL    HW123146  11.666   9.127  13.992
 7083SOL    HW223147  11.514   9.133  13.989
 7084SOL     OW23148  10.528   7.686  12.541
 7084SOL    HW123149  10.594   7.708  12.607
 7084SOL    HW223150  10.453   7.742  12.562
 7085SOL     OW23151   5.217   0.407   2.781
 7085SOL    HW123152   5.240   0.500   2.783
 7085SOL    HW223153   5.301   0.362   2.773
 7086SOL     OW23154  13.307  12.371  14.824
 7086SOL    HW123155  13.342  12.284  14.803
 7086SOL    HW223156  13.383  12.420  14.856
 7087SOL     OW23157   7.383  11.390  14.607
 7087SOL    HW123158   7.384  11.395  14.703
 7087SOL    HW223159   7.306  11.439  14.581
 7088SOL     OW23160   1.121   9.864   6.505
 7088SOL    HW123161   1.096   9.867   6.412
 7088SOL    HW223162   1.184   9.792   6.511
 7089SOL     OW23163   1.466   6.853   0.333
 7089SOL    HW123164   1.456   6.948   0.342
 7089SOL    HW223165   1.538   6.831   0.392
 7090SOL     OW23166  13.378   8.356  11.812
 7090SOL    HW123167  13.426   8.365  11.894
 7090SOL    HW223168  13.446   8.347  11.745
 7091SOL     OW23169   3.245   5.736   5.277
 7091SOL    HW123170   3.176   5.798   5.302
 7091SOL    HW223171   3.326   5.777   5.305
 7092SOL     OW23172   6.363   8.847   8.332
 7092SOL    HW123173   6.311   8.880   8.405
 7092SOL    HW223174   6.446   8.819   8.371
 7093SOL     OW23175   1.571  11.184   6.591
 7093SOL    HW123176   1.499  11.247   6.597
 7093SOL    HW223177   1.530  11.100   6.611
 7094SOL     OW23178  14.392  13.182  14.564
 7094SOL    HW123179  14.460  13.214  14.623
 7094SOL    HW223180  14.311  13.222  14.597
 7095SOL     OW23181   0.031   5.602   4.625
 7095SOL    HW123182   0.046   5.680   4.678
 7095SOL    HW223183   0.072   5.531   4.674
 7096SOL     OW23184   2.352   3.128   2.259
 7096SOL    HW123185   2.448   3.127   2.264
 7096SOL    HW223186   2.332   3.203   2.203
 7097SOL     OW23187   4.872   6.982   1.792
 7097SOL    HW123188   4.872   7.077   1.801
 7097SOL    HW223189   4.939   6.952   1.854
 7098SOL     OW23190   6.709   9.150  14.785
 7098SOL    HW123191   6.769   9.099  14.840
 7098SOL    HW223192   6.636   9.171  14.843
 7099SOL     OW23193  11.263   7.359   8.306
 7099SOL    HW123194  11.169   7.353   8.290
 7099SOL    HW223195  11.286   7.448   8.280
 7100SOL     OW23196  14.312  11.215   8.927
 7100SOL    HW123197  14.387  11.159   8.942
 7100SOL    HW223198  14.238  11.166   8.963
 7101SOL     OW23199   2.191  11.339   1.553
 7101SOL    HW123200   2.276  11.356   1.512
 7101SOL    HW223201   2.127  11.368   1.487
 7102SOL     OW23202  10.573   1.648   6.934
 7102SOL    HW123203  10.481   1.643   6.959
 7102SOL    HW223204  10.612   1.710   6.995
 7103SOL     OW23205  11.588  12.465  12.387
 7103SOL    HW123206  11.611  12.445  12.478
 7103SOL    HW223207  11.671  12.479  12.343
 7104SOL     OW23208  12.515   1.595  11.670
 7104SOL    HW123209  12.593   1.600  11.615
 7104SOL    HW223210  12.549   1.582  11.759
 7105SOL     OW23211  12.396  14.835   5.853
 7105SOL    HW123212  12.379   0.057   5.868
 7105SOL    HW223213  12.310  14.794   5.856
 7106SOL     OW23214   7.179   4.425   1.259
 7106SOL    HW123215   7.219   4.444   1.173
 7106SOL    HW223216   7.087   4.412   1.240
 7107SOL     OW23217   1.123  11.052   4.460
 7107SOL    HW123218   1.122  11.148   4.462
 7107SOL    HW223219   1.053  11.026   4.520
 7108SOL     OW23220   3.366  13.811   8.348
 7108SOL    HW123221   3.419  13.772   8.417
 7108SOL    HW223222   3.336  13.895   8.384
 7109SOL     OW23223   8.878   6.324   4.585
 7109SOL    HW123224   8.972   6.305   4.583
 7109SOL    HW223225   8.866   6.378   4.663
 7110SOL     OW23226   1.671  11.496   5.935
 7110SOL    HW123227   1.635  11.416   5.896
 7110SOL    HW223228   1.595  11.549   5.957
 7111SOL     OW23229  10.661  11.303   3.037
 7111SOL    HW123230  10.702  11.285   3.122
 7111SOL    HW223231  10.719  11.368   2.996
 7112SOL     OW23232  11.276  14.110   0.040
 7112SOL    HW123233  11.263  14.205   0.039
 7112SOL    HW223234  11.314  14.092   0.126
 7113SOL     OW23235   6.676   8.353   4.248
 7113SOL    HW123236   6.689   8.407   4.327
 7113SOL    HW223237   6.758   8.359   4.201
 7114SOL     OW23238   0.367   0.593  14.309
 7114SOL    HW123239   0.387   0.502  14.331
 7114SOL    HW223240   0.275   0.591  14.283
 7115SOL     OW23241  13.141   2.907   7.321
 7115SOL    HW123242  13.059   2.859   7.331
 7115SOL    HW223243  13.202   2.863   7.380
 7116SOL     OW23244  14.391   4.786  11.849
 7116SOL    HW123245  14.465   4.725  11.847
 7116SOL    HW223246  14.354   4.783  11.761
 7117SOL     OW23247  10.066  14.081  10.920
 7117SOL    HW123248   9.986  14.035  10.892
 7117SOL    HW223249  10.137  14.028  10.885
 7118SOL     OW23250   1.273   8.381  14.194
 7118SOL    HW123251   1.191   8.368  14.147
 7118SOL    HW223252   1.259   8.340  14.279
 7119SOL     OW23253   4.633   6.802   0.004
 7119SOL    HW123254   4.710   6.752  14.847
 7119SOL    HW223255   4.583   6.740   0.058
 7120SOL     OW23256   5.492   8.357   7.398
 7120SOL    HW123257   5.530   8.301   7.330
 7120SOL    HW223258   5.567   8.383   7.451
 7121SOL     OW23259   0.591  12.580  12.549
 7121SOL    HW123260   0.629  12.539  12.471
 7121SOL    HW223261   0.497  12.581  12.532
 7122SOL     OW23262   6.004  13.065  12.314
 7122SOL    HW123263   6.097  13.084  12.332
 7122SOL    HW223264   6.000  13.059  12.219
 7123SOL     OW23265   2.582   2.512   8.982
 7123SOL    HW123266   2.636   2.552   9.050
 7123SOL    HW223267   2.642   2.498   8.909
 7124SOL     OW23268   0.825  14.265   5.385
 7124SOL    HW123269   0.809  14.296   5.296
 7124SOL    HW223270   0.745  14.219   5.409
 7125SOL     OW23271   7.955   7.085   4.087
 7125SOL    HW123272   7.894   7.105   4.159
 7125SOL    HW223273   8.027   7.147   4.100
 7126SOL     OW23274   4.208   1.880   1.614
 7126SOL    HW123275   4.148   1.830   1.559
 7126SOL    HW223276   4.199   1.970   1.584
 7127SOL     OW23277  10.241   3.573   6.917
 7127SOL    HW123278  10.197   3.658   6.916
 7127SOL    HW223279  10.173   3.510   6.894
 7128SOL     OW23280  14.542  14.688   7.704
 7128SOL    HW123281  14.456  14.723   7.679
 7128SOL    HW223282  14.532  14.663   7.796
 7129SOL     OW23283  13.617   1.045   6.206
 7129SOL    HW123284  13.537   1.097   6.211
 7129SOL    HW223285  13.603   0.985   6.133
 7130SOL     OW23286   6.310  13.476  11.780
 7130SOL    HW123287   6.375  13.454  11.847
 7130SOL    HW223288   6.349  13.549  11.732
 7131SOL     OW23289   8.783   6.203  12.777
 7131SOL    HW123290   8.739   6.251  12.708
 7131SOL    HW223291   8.877   6.214  12.758
 7132SOL     OW23292   3.928   3.590   5.367
 7132SOL    HW123293   3.957   3.674   5.404
 7132SOL    HW223294   3.995   3.569   5.301
 7133SOL     OW23295   8.499   2.824  10.509
 7133SOL    HW123296   8.566   2.757  10.497
 7133SOL    HW223297   8.547   2.902  10.537
 7134SOL     OW23298  11.013  14.117   5.187
 7134SOL    HW123299  10.928  14.092   5.150
 7134SOL    HW223300  11.036  14.198   5.141
 7135SOL     OW23301   6.727   9.833   4.809
 7135SOL    HW123302   6.713   9.744   4.776
 7135SOL    HW223303   6.661   9.843   4.877
 7136SOL     OW23304   0.136  11.000  14.637
 7136SOL    HW123305   0.093  11.034  14.559
 7136SOL    HW223306   0.201  11.067  14.660
 7137SOL     OW23307  14.554   5.873   0.987
 7137SOL    HW123308  14.595   5.799   0.942
 7137SOL    HW223309  14.584   5.950   0.941
 7138SOL     OW23310   4.179  12.462   6.038
 7138SOL    HW123311   4.134  12.485   6.119
 7138SOL    HW223312   4.149  12.527   5.974
 7139SOL     OW23313  13.679   5.167   2.471
 7139SOL    HW123314  13.704   5.252   2.509
 7139SOL    HW223315  13.763   5.125   2.451
 7140SOL     OW23316  13.741   9.995   5.312
 7140SOL    HW123317  13.671  10.043   5.357
 7140SOL    HW223318  13.762  10.050   5.236
 7141SOL     OW23319   9.967  14.202   9.661
 7141SOL    HW123320   9.912  14.129   9.688
 7141SOL    HW223321  10.050  14.162   9.636
 7142SOL     OW23322  14.199   5.353   3.761
 7142SOL    HW123323  14.263   5.289   3.795
 7142SOL    HW223324  14.114   5.310   3.773
 7143SOL     OW23325   7.184   9.254   5.862
 7143SOL    HW123326   7.147   9.342   5.859
 7143SOL    HW223327   7.245   9.256   5.935
 7144SOL     OW23328  10.099   9.349   9.918
 7144SOL    HW123329  10.070   9.346   9.827
 7144SOL    HW223330  10.052   9.278   9.961
 7145SOL     OW23331   7.276   1.430   0.715
 7145SOL    HW123332   7.362   1.464   0.688
 7145SOL    HW223333   7.213   1.482   0.665
 7146SOL     OW23334   7.874   7.017   9.229
 7146SOL    HW123335   7.959   7.002   9.271
 7146SOL    HW223336   7.847   6.930   9.199
 7147SOL     OW23337  12.494   6.800   6.478
 7147SOL    HW123338  12.467   6.806   6.570
 7147SOL    HW223339  12.589   6.807   6.481
 7148SOL     OW23340   3.595  10.354  11.848
 7148SOL    HW123341   3.538  10.278  11.865
 7148SOL    HW223342   3.570  10.383  11.761
 7149SOL     OW23343  11.593   3.173   6.088
 7149SOL    HW123344  11.679   3.202   6.057
 7149SOL    HW223345  11.588   3.203   6.178
 7150SOL     OW23346  13.309   3.099   4.550
 7150SOL    HW123347  13.286   3.147   4.630
 7150SOL    HW223348  13.379   3.150   4.511
 7151SOL     OW23349   4.206   0.017  10.713
 7151SOL    HW123350   4.117  14.856  10.699
 7151SOL    HW223351   4.220   0.081  10.643
 7152SOL     OW23352   9.867   2.175  11.095
 7152SOL    HW123353   9.880   2.265  11.067
 7152SOL    HW223354   9.884   2.122  11.017
 7153SOL     OW23355   5.133   4.202  13.934
 7153SOL    HW123356   5.209   4.151  13.908
 7153SOL    HW223357   5.161   4.250  14.012
 7154SOL     OW23358  14.676   9.753   9.955
 7154SOL    HW123359  14.636   9.840   9.954
 7154SOL    HW223360  14.603   9.692   9.961
 7155SOL     OW23361   8.505   5.392   0.986
 7155SOL    HW123362   8.512   5.485   0.964
 7155SOL    HW223363   8.449   5.391   1.063
 7156SOL     OW23364   8.057   6.383   7.498
 7156SOL    HW123365   7.962   6.388   7.487
 7156SOL    HW223366   8.082   6.304   7.450
 7157SOL     OW23367  11.924   7.862   5.440
 7157SOL    HW123368  11.843   7.870   5.490
 7157SOL    HW223369  11.896   7.825   5.356
 7158SOL     OW23370  11.069  10.669  10.229
 7158SOL    HW123371  11.123  10.597  10.261
 7158SOL    HW223372  11.103  10.687  10.141
 7159SOL     OW23373  11.051   8.053   1.008
 7159SOL    HW123374  11.087   8.078   0.923
 7159SOL    HW223375  10.959   8.034   0.990
 7160SOL     OW23376   6.795   1.347   6.264
 7160SOL    HW123377   6.731   1.377   6.200
 7160SOL    HW223378   6.783   1.406   6.339
 7161SOL     OW23379   2.223  13.726   2.587
 7161SOL    HW123380   2.312  13.759   2.577
 7161SOL    HW223381   2.178  13.750   2.506
 7162SOL     OW23382   1.709   8.620  14.268
 7162SOL    HW123383   1.772   8.611  14.339
 7162SOL    HW223384   1.648   8.687  14.297
 7163SOL     OW23385   1.202   4.519   8.421
 7163SOL    HW123386   1.150   4.597   8.441
 7163SOL    HW223387   1.284   4.534   8.469
 7164SOL     OW23388   3.695   2.009   2.621
 7164SOL    HW123389   3.693   1.942   2.553
 7164SOL    HW223390   3.767   2.067   2.595
 7165SOL     OW23391  11.171   6.989   2.563
 7165SOL    HW123392  11.090   7.038   2.553
 7165SOL    HW223393  11.144   6.905   2.599
 7166SOL     OW23394   0.495  13.949   4.783
 7166SOL    HW123395   0.522  14.015   4.720
 7166SOL    HW223396   0.410  13.979   4.816
 7167SOL     OW23397  13.783  12.009  14.319
 7167SOL    HW123398  13.762  12.037  14.408
 7167SOL    HW223399  13.717  11.942  14.299
 7168SOL     OW23400   0.335   2.465   0.405
 7168SOL    HW123401   0.368   2.376   0.393
 7168SOL    HW223402   0.396   2.504   0.469
 7169SOL     OW23403  12.629   1.878  11.487
 7169SOL    HW123404  12.689   1.813  11.522
 7169SOL    HW223405  12.686   1.949  11.455
 7170SOL     OW23406  13.939   1.505  10.901
 7170SOL    HW123407  14.010   1.566  10.884
 7170SOL    HW223408  13.865   1.560  10.925
 7171SOL     OW23409   8.989   7.958  13.307
 7171SOL    HW123410   8.945   7.900  13.245
 7171SOL    HW223411   9.038   8.019  13.252
 7172SOL     OW23412  13.125   7.008  12.542
 7172SOL    HW123413  13.077   6.999  12.459
 7172SOL    HW223414  13.110   7.099  12.568
 7173SOL     OW23415  11.341   8.599   8.218
 7173SOL    HW123416  11.350   8.504   8.204
 7173SOL    HW223417  11.275   8.626   8.155
 7174SOL     OW23418   9.416  12.567   9.799
 7174SOL    HW123419   9.391  12.598   9.712
 7174SOL    HW223420   9.425  12.472   9.788
 7175SOL     OW23421  14.409   7.499  14.713
 7175SOL    HW123422  14.387   7.462  14.627
 7175SOL    HW223423  14.377   7.589  14.709
 7176SOL     OW23424  10.561  14.570  13.976
 7176SOL    HW123425  10.584  14.493  13.924
 7176SOL    HW223426  10.633  14.579  14.038
 7177SOL     OW23427   8.779   6.218  13.258
 7177SOL    HW123428   8.689   6.247  13.270
 7177SOL    HW223429   8.831   6.298  13.254
 7178SOL     OW23430   6.819   3.506   1.442
 7178SOL    HW123431   6.752   3.528   1.377
 7178SOL    HW223432   6.769   3.472   1.517
 7179SOL     OW23433   9.015   4.140   1.982
 7179SOL    HW123434   9.056   4.202   2.043
 7179SOL    HW223435   9.074   4.065   1.980
 7180SOL     OW23436  14.616  11.184   7.667
 7180SOL    HW123437  14.703  11.207   7.699
 7180SOL    HW223438  14.602  11.094   7.696
 7181SOL     OW23439   0.962   3.976  14.558
 7181SOL    HW123440   1.011   3.945  14.482
 7181SOL    HW223441   0.912   4.051  14.525
 7182SOL     OW23442  10.141   3.977  12.236
 7182SOL    HW123443  10.221   3.943  12.196
 7182SOL    HW223444  10.075   3.909  12.222
 7183SOL     OW23445   1.036   5.165   9.964
 7183SOL    HW123446   0.960   5.161   9.905
 7183SOL    HW223447   1.027   5.089  10.021
 7184SOL     OW23448   5.697   7.470   0.853
 7184SOL    HW123449   5.693   7.395   0.793
 7184SOL    HW223450   5.619   7.522   0.832
 7185SOL     OW23451   3.798   5.734   6.121
 7185SOL    HW123452   3.857   5.671   6.080
 7185SOL    HW223453   3.817   5.817   6.077
 7186SOL     OW23454   1.318   9.488  12.215
 7186SOL    HW123455   1.328   9.456  12.304
 7186SOL    HW223456   1.228   9.465  12.190
 7187SOL     OW23457  12.170   6.874   1.016
 7187SOL    HW123458  12.260   6.853   0.988
 7187SOL    HW223459  12.117   6.859   0.937
 7188SOL     OW23460   6.205   6.239   8.475
 7188SOL    HW123461   6.203   6.146   8.498
 7188SOL    HW223462   6.167   6.283   8.551
 7189SOL     OW23463   0.500   7.478   8.112
 7189SOL    HW123464   0.461   7.499   8.027
 7189SOL    HW223465   0.556   7.401   8.095
 7190SOL     OW23466   1.493   4.697  11.752
 7190SOL    HW123467   1.587   4.681  11.740
 7190SOL    HW223468   1.485   4.729  11.841
 7191SOL     OW23469  12.877  10.462  10.994
 7191SOL    HW123470  12.814  10.415  11.049
 7191SOL    HW223471  12.951  10.402  10.987
 7192SOL     OW23472   4.831  10.911  10.422
 7192SOL    HW123473   4.901  10.866  10.470
 7192SOL    HW223474   4.858  11.002  10.420
 7193SOL     OW23475   2.904   1.324   3.483
 7193SOL    HW123476   2.841   1.262   3.446
 7193SOL    HW223477   2.875   1.410   3.452
 7194SOL     OW23478   1.328   7.618  13.597
 7194SOL    HW123479   1.323   7.544  13.657
 7194SOL    HW223480   1.284   7.587  13.517
 7195SOL     OW23481  12.459  13.719  12.367
 7195SOL    HW123482  12.421  13.669  12.294
 7195SOL    HW223483  12.385  13.763  12.407
 7196SOL     OW23484   4.022   6.203  13.744
 7196SOL    HW123485   3.982   6.280  13.705
 7196SOL    HW223486   3.974   6.129  13.707
 7197SOL     OW23487   7.655  12.958   4.001
 7197SOL    HW123488   7.616  12.974   3.915
 7197SOL    HW223489   7.644  13.040   4.048
 7198SOL     OW23490  12.812   0.364   4.528
 7198SOL    HW123491  12.818   0.278   4.568
 7198SOL    HW223492  12.903   0.389   4.511
 7199SOL     OW23493   6.937   0.394  10.258
 7199SOL    HW123494   7.031   0.374  10.257
 7199SOL    HW223495   6.930   0.470  10.316
 7200SOL     OW23496   3.115   5.557   2.926
 7200SOL    HW123497   3.070   5.620   2.982
 7200SOL    HW223498   3.046   5.521   2.870
 7201SOL     OW23499   6.620   7.794  13.604
 7201SOL    HW123500   6.566   7.725  13.566
 7201SOL    HW223501   6.582   7.875  13.569
 7202SOL     OW23502   2.677   1.501   9.092
 7202SOL    HW123503   2.770   1.483   9.077
 7202SOL    HW223504   2.670   1.596   9.093
 7203SOL     OW23505  11.655  12.134  10.436
 7203SOL    HW123506  11.633  12.172  10.521
 7203SOL    HW223507  11.603  12.185  10.374
 7204SOL     OW23508   1.865   7.702  11.394
 7204SOL    HW123509   1.943   7.673  11.441
 7204SOL    HW223510   1.809   7.740  11.462
 7205SOL     OW23511  14.857   3.370   3.968
 7205SOL    HW123512  14.774   3.409   3.942
 7205SOL    HW223513   0.047   3.396   3.899
 7206SOL     OW23514   3.758  12.025   1.122
 7206SOL    HW123515   3.742  12.023   1.216
 7206SOL    HW223516   3.850  12.051   1.115
 7207SOL     OW23517   0.966   8.867   3.348
 7207SOL    HW123518   1.050   8.893   3.310
 7207SOL    HW223519   0.911   8.945   3.340
 7208SOL     OW23520   5.597   7.438   9.128
 7208SOL    HW123521   5.590   7.523   9.170
 7208SOL    HW223522   5.671   7.447   9.068
 7209SOL     OW23523   4.653   9.145   7.438
 7209SOL    HW123524   4.675   9.214   7.500
 7209SOL    HW223525   4.727   9.143   7.377
 7210SOL     OW23526  11.116  13.860   8.017
 7210SOL    HW123527  11.127  13.948   7.981
 7210SOL    HW223528  11.152  13.802   7.950
 7211SOL     OW23529   7.690  13.888   4.339
 7211SOL    HW123530   7.774  13.844   4.351
 7211SOL    HW223531   7.629  13.818   4.315
 7212SOL     OW23532  11.225  12.306  13.053
 7212SOL    HW123533  11.144  12.357  13.063
 7212SOL    HW223534  11.236  12.262  13.137
 7213SOL     OW23535  10.325   2.512   5.231
 7213SOL    HW123536  10.235   2.479   5.235
 7213SOL    HW223537  10.319   2.603   5.261
 7214SOL     OW23538   4.815   1.534  12.577
 7214SOL    HW123539   4.907   1.509  12.575
 7214SOL    HW223540   4.768   1.452  12.592
 7215SOL     OW23541   0.161  13.853  13.056
 7215SOL    HW123542   0.226  13.784  13.042
 7215SOL    HW223543   0.079  13.814  13.026
 7216SOL     OW23544   2.709  13.316  12.031
 7216SOL    HW123545   2.632  13.346  12.081
 7216SOL    HW223546   2.770  13.389  12.035
 7217SOL     OW23547  13.546   5.332  13.469
 7217SOL    HW123548  13.525   5.398  13.535
 7217SOL    HW223549  13.570   5.254  13.519
 7218SOL     OW23550   9.217  10.142   0.897
 7218SOL    HW123551   9.136  10.112   0.938
 7218SOL    HW223552   9.213  10.108   0.807
 7219SOL     OW23553   8.592   9.269   8.006
 7219SOL    HW123554   8.591   9.231   8.094
 7219SOL    HW223555   8.681   9.305   7.997
 7220SOL     OW23556  12.593   1.311  10.990
 7220SOL    HW123557  12.571   1.315  11.084
 7220SOL    HW223558  12.649   1.387  10.975
 7221SOL     OW23559  11.690   4.978   4.302
 7221SOL    HW123560  11.603   5.007   4.274
 7221SOL    HW223561  11.724   5.052   4.353
 7222SOL     OW23562   8.042  12.425  10.886
 7222SOL    HW123563   8.047  12.521  10.885
 7222SOL    HW223564   8.063  12.401  10.977
 7223SOL     OW23565  12.656   4.069   1.859
 7223SOL    HW123566  12.662   4.155   1.817
 7223SOL    HW223567  12.710   4.078   1.938
 7224SOL     OW23568   0.778   7.611   4.567
 7224SOL    HW123569   0.763   7.558   4.488
 7224SOL    HW223570   0.692   7.616   4.609
 7225SOL     OW23571   4.345   6.126   2.051
 7225SOL    HW123572   4.291   6.119   1.972
 7225SOL    HW223573   4.434   6.105   2.021
 7226SOL     OW23574   2.014   2.897   1.486
 7226SOL    HW123575   2.023   2.888   1.581
 7226SOL    HW223576   1.994   2.809   1.455
 7227SOL     OW23577   8.376  14.691   8.495
 7227SOL    HW123578   8.301  14.634   8.478
 7227SOL    HW223579   8.342  14.759   8.553
 7228SOL     OW23580  14.232  11.371   0.626
 7228SOL    HW123581  14.278  11.361   0.710
 7228SOL    HW223582  14.172  11.298   0.623
 7229SOL     OW23583   5.730  12.422  12.058
 7229SOL    HW123584   5.824  12.405  12.064
 7229SOL    HW223585   5.690  12.344  12.097
 7230SOL     OW23586   8.652  10.708  13.410
 7230SOL    HW123587   8.614  10.642  13.353
 7230SOL    HW223588   8.579  10.764  13.436
 7231SOL     OW23589  13.574  13.986   3.018
 7231SOL    HW123590  13.485  14.020   3.007
 7231SOL    HW223591  13.562  13.897   3.051
 7232SOL     OW23592  12.012  11.358   1.191
 7232SOL    HW123593  11.930  11.374   1.237
 7232SOL    HW223594  12.071  11.323   1.258
 7233SOL     OW23595   2.252  13.030  12.676
 7233SOL    HW123596   2.276  12.939  12.692
 7233SOL    HW223597   2.248  13.037  12.581
 7234SOL     OW23598   3.295  13.435   6.970
 7234SOL    HW123599   3.225  13.452   7.034
 7234SOL    HW223600   3.373  13.473   7.009
 7235SOL     OW23601   3.655  10.553   5.109
 7235SOL    HW123602   3.747  10.540   5.130
 7235SOL    HW223603   3.611  10.475   5.143
 7236SOL     OW23604   2.807  11.255   0.539
 7236SOL    HW123605   2.801  11.230   0.447
 7236SOL    HW223606   2.899  11.242   0.562
 7237SOL     OW23607   4.847   6.639   0.397
 7237SOL    HW123608   4.939   6.614   0.386
 7237SOL    HW223609   4.798   6.567   0.356
 7238SOL     OW23610   7.099  13.432   7.291
 7238SOL    HW123611   7.164  13.495   7.260
 7238SOL    HW223612   7.148  13.350   7.303
 7239SOL     OW23613   7.599   1.200   4.823
 7239SOL    HW123614   7.691   1.208   4.849
 7239SOL    HW223615   7.603   1.163   4.734
 7240SOL     OW23616   3.181   1.989  12.977
 7240SOL    HW123617   3.197   2.055  13.044
 7240SOL    HW223618   3.120   2.031  12.916
 7241SOL     OW23619   2.976   4.757  12.207
 7241SOL    HW123620   3.044   4.740  12.141
 7241SOL    HW223621   3.006   4.710  12.285
 7242SOL     OW23622   6.002   8.139  11.751
 7242SOL    HW123623   5.991   8.225  11.712
 7242SOL    HW223624   6.082   8.104  11.711
 7243SOL     OW23625   1.222   1.920   8.454
 7243SOL    HW123626   1.253   2.001   8.414
 7243SOL    HW223627   1.278   1.852   8.417
 7244SOL     OW23628  12.265   1.744   7.522
 7244SOL    HW123629  12.262   1.821   7.578
 7244SOL    HW223630  12.238   1.776   7.436
 7245SOL     OW23631   5.334  10.811   0.164
 7245SOL    HW123632   5.413  10.761   0.145
 7245SOL    HW223633   5.362  10.876   0.229
 7246SOL     OW23634   1.426   0.429   4.651
 7246SOL    HW123635   1.466   0.369   4.588
 7246SOL    HW223636   1.333   0.404   4.651
 7247SOL     OW23637  10.590   8.910   8.415
 7247SOL    HW123638  10.566   8.993   8.456
 7247SOL    HW223639  10.558   8.844   8.476
 7248SOL     OW23640  14.080  13.918   5.351
 7248SOL    HW123641  14.136  13.941   5.277
 7248SOL    HW223642  14.114  13.970   5.424
 7249SOL     OW23643   2.680   7.122   8.058
 7249SOL    HW123644   2.691   7.032   8.088
 7249SOL    HW223645   2.736   7.174   8.117
 7250SOL     OW23646  11.128   5.028   9.777
 7250SOL    HW123647  11.086   5.072   9.851
 7250SOL    HW223648  11.059   5.018   9.712
 7251SOL     OW23649   0.454   5.511   4.008
 7251SOL    HW123650   0.390   5.539   3.942
 7251SOL    HW223651   0.412   5.438   4.053
 7252SOL     OW23652   4.776   3.484   0.798
 7252SOL    HW123653   4.855   3.537   0.787
 7252SOL    HW223654   4.737   3.479   0.711
 7253SOL     OW23655   6.217  13.881   7.774
 7253SOL    HW123656   6.280  13.931   7.827
 7253SOL    HW223657   6.142  13.940   7.764
 7254SOL     OW23658   8.141  11.721   4.939
 7254SOL    HW123659   8.114  11.719   4.847
 7254SOL    HW223660   8.100  11.800   4.974
 7255SOL     OW23661   9.506   4.731   2.154
 7255SOL    HW123662   9.590   4.769   2.128
 7255SOL    HW223663   9.463   4.710   2.071
 7256SOL     OW23664   8.670   3.118   6.700
 7256SOL    HW123665   8.685   3.207   6.667
 7256SOL    HW223666   8.642   3.069   6.623
 7257SOL     OW23667   4.566   7.698  10.904
 7257SOL    HW123668   4.606   7.685  10.990
 7257SOL    HW223669   4.478   7.730  10.922
 7258SOL     OW23670   4.122  11.739  12.729
 7258SOL    HW123671   4.202  11.791  12.730
 7258SOL    HW223672   4.149  11.652  12.759
 7259SOL     OW23673   0.100  11.539  13.909
 7259SOL    HW123674   0.121  11.522  14.001
 7259SOL    HW223675   0.179  11.514  13.861
 7260SOL     OW23676   6.491   0.031   0.522
 7260SOL    HW123677   6.479  14.818   0.564
 7260SOL    HW223678   6.586   0.041   0.515
 7261SOL     OW23679   3.826  10.591  10.611
 7261SOL    HW123680   3.767  10.527  10.651
 7261SOL    HW223681   3.800  10.675  10.650
 7262SOL     OW23682   8.173  10.582   8.470
 7262SOL    HW123683   8.209  10.503   8.511
 7262SOL    HW223684   8.107  10.613   8.531
 7263SOL     OW23685   5.271  14.076   2.380
 7263SOL    HW123686   5.204  14.007   2.391
 7263SOL    HW223687   5.295  14.100   2.469
 7264SOL     OW23688  10.137  10.401   5.801
 7264SOL    HW123689  10.188  10.474   5.836
 7264SOL    HW223690  10.152  10.403   5.706
 7265SOL     OW23691   8.195   1.766   4.397
 7265SOL    HW123692   8.271   1.798   4.447
 7265SOL    HW223693   8.229   1.690   4.349
 7266SOL     OW23694   3.347  14.053  13.792
 7266SOL    HW123695   3.419  14.112  13.772
 7266SOL    HW223696   3.293  14.053  13.713
 7267SOL     OW23697   9.599   9.962  13.600
 7267SOL    HW123698   9.644   9.879  13.616
 7267SOL    HW223699   9.662  10.029  13.628
 7268SOL     OW23700   7.407  10.390  13.132
 7268SOL    HW123701   7.339  10.454  13.111
 7268SOL    HW223702   7.397  10.322  13.065
 7269SOL     OW23703   6.767   2.563   3.794
 7269SOL    HW123704   6.698   2.563   3.861
 7269SOL    HW223705   6.765   2.651   3.758
 7270SOL     OW23706  11.151  11.289   3.117
 7270SOL    HW123707  11.204  11.317   3.043
 7270SOL    HW223708  11.109  11.208   3.087
 7271SOL     OW23709  10.444  11.588   3.978
 7271SOL    HW123710  10.416  11.654   4.041
 7271SOL    HW223711  10.429  11.627   3.893
 7272SOL     OW23712   4.077   1.636   6.746
 7272SOL    HW123713   4.046   1.575   6.679
 7272SOL    HW223714   4.167   1.608   6.764
 7273SOL     OW23715  14.502   2.663  12.587
 7273SOL    HW123716  14.535   2.574  12.572
 7273SOL    HW223717  14.434   2.675  12.520
 7274SOL     OW23718  14.198  12.721   7.269
 7274SOL    HW123719  14.264  12.744   7.204
 7274SOL    HW223720  14.206  12.626   7.278
 7275SOL     OW23721   7.125  13.615   5.252
 7275SOL    HW123722   7.030  13.617   5.239
 7275SOL    HW223723   7.162  13.622   5.164
 7276SOL     OW23724   5.136   7.085   8.986
 7276SOL    HW123725   5.063   7.046   8.938
 7276SOL    HW223726   5.096   7.153   9.040
 7277SOL     OW23727  11.480  10.841   5.663
 7277SOL    HW123728  11.502  10.916   5.607
 7277SOL    HW223729  11.446  10.776   5.602
 7278SOL     OW23730   7.655   5.984  11.512
 7278SOL    HW123731   7.562   6.005  11.516
 7278SOL    HW223732   7.675   5.949  11.598
 7279SOL     OW23733  13.733   8.252  13.733
 7279SOL    HW123734  13.782   8.174  13.761
 7279SOL    HW223735  13.798   8.305  13.687
 7280SOL     OW23736  11.571  10.090   7.976
 7280SOL    HW123737  11.559  10.175   8.017
 7280SOL    HW223738  11.646  10.102   7.918
 7281SOL     OW23739   8.980  14.227  10.784
 7281SOL    HW123740   8.906  14.182  10.744
 7281SOL    HW223741   8.942  14.273  10.859
 7282SOL     OW23742   5.450   4.631  13.294
 7282SOL    HW123743   5.387   4.652  13.362
 7282SOL    HW223744   5.531   4.675  13.321
 7283SOL     OW23745   3.250   9.902  10.393
 7283SOL    HW123746   3.246   9.994  10.367
 7283SOL    HW223747   3.167   9.865  10.362
 7284SOL     OW23748   9.441  14.817  14.831
 7284SOL    HW123749   9.464  14.765  14.753
 7284SOL    HW223750   9.475   0.033  14.812
 7285SOL     OW23751  12.546   6.674   0.010
 7285SOL    HW123752  12.532   6.626   0.092
 7285SOL    HW223753  12.610   6.741   0.033
 7286SOL     OW23754   7.118   4.285   4.880
 7286SOL    HW123755   7.088   4.368   4.916
 7286SOL    HW223756   7.061   4.268   4.805
 7287SOL     OW23757   8.519   6.850   0.440
 7287SOL    HW123758   8.580   6.804   0.383
 7287SOL    HW223759   8.433   6.834   0.402
 7288SOL     OW23760   2.997   3.681  10.948
 7288SOL    HW123761   2.973   3.757  10.896
 7288SOL    HW223762   2.922   3.622  10.940
 7289SOL     OW23763   8.261   5.426   2.488
 7289SOL    HW123764   8.200   5.476   2.543
 7289SOL    HW223765   8.339   5.481   2.483
 7290SOL     OW23766  14.832  11.077   6.470
 7290SOL    HW123767  14.764  11.131   6.429
 7290SOL    HW223768   0.026  11.141   6.499
 7291SOL     OW23769  14.716   7.886  10.848
 7291SOL    HW123770  14.764   7.851  10.773
 7291SOL    HW223771  14.766   7.859  10.925
 7292SOL     OW23772   9.204   9.455  14.547
 7292SOL    HW123773   9.229   9.531  14.495
 7292SOL    HW223774   9.283   9.434  14.598
 7293SOL     OW23775  14.276   0.671   2.468
 7293SOL    HW123776  14.219   0.630   2.403
 7293SOL    HW223777  14.235   0.650   2.552
 7294SOL     OW23778   6.534   4.811   5.529
 7294SOL    HW123779   6.601   4.754   5.490
 7294SOL    HW223780   6.526   4.884   5.467
 7295SOL     OW23781   8.259  14.054   7.171
 7295SOL    HW123782   8.350  14.059   7.142
 7295SOL    HW223783   8.236  13.962   7.161
 7296SOL     OW23784   9.830  14.417   5.040
 7296SOL    HW123785   9.781  14.468   4.976
 7296SOL    HW223786   9.922  14.427   5.014
 7297SOL     OW23787   5.946  11.909   9.910
 7297SOL    HW123788   6.003  11.857   9.968
 7297SOL    HW223789   5.893  11.844   9.864
 7298SOL     OW23790   8.629  13.126   7.504
 7298SOL    HW123791   8.687  13.202   7.507
 7298SOL    HW223792   8.689  13.051   7.499
 7299SOL     OW23793  10.201  11.124  10.493
 7299SOL    HW123794  10.289  11.160  10.488
 7299SOL    HW223795  10.201  11.071  10.572
 7300SOL     OW23796  14.815  10.239   0.305
 7300SOL    HW123797   0.016  10.220   0.245
 7300SOL    HW223798  14.762  10.304   0.260
 7301SOL     OW23799   7.439   0.527   8.757
 7301SOL    HW123800   7.524   0.497   8.789
 7301SOL    HW223801   7.458   0.611   8.714
 7302SOL     OW23802  12.919   6.332   1.915
 7302SOL    HW123803  12.982   6.360   1.849
 7302SOL    HW223804  12.914   6.237   1.904
 7303SOL     OW23805  14.040  14.399   6.542
 7303SOL    HW123806  14.100  14.334   6.578
 7303SOL    HW223807  14.058  14.479   6.590
 7304SOL     OW23808   1.005  14.411   6.795
 7304SOL    HW123809   0.920  14.455   6.794
 7304SOL    HW223810   1.051  14.447   6.871
 7305SOL     OW23811  12.384   4.626   7.735
 7305SOL    HW123812  12.400   4.720   7.743
 7305SOL    HW223813  12.387   4.609   7.640
 7306SOL     OW23814   9.770   1.468   7.643
 7306SOL    HW123815   9.777   1.404   7.572
 7306SOL    HW223816   9.675   1.482   7.652
 7307SOL     OW23817  13.926   2.133  12.220
 7307SOL    HW123818  13.832   2.136  12.201
 7307SOL    HW223819  13.968   2.158  12.137
 7308SOL     OW23820   6.893  11.276   0.351
 7308SOL    HW123821   6.886  11.289   0.445
 7308SOL    HW223822   6.865  11.359   0.313
 7309SOL     OW23823   4.056   1.525  13.106
 7309SOL    HW123824   4.132   1.496  13.057
 7309SOL    HW223825   4.053   1.620  13.092
 7310SOL     OW23826   7.779   1.267  14.527
 7310SOL    HW123827   7.689   1.243  14.504
 7310SOL    HW223828   7.809   1.319  14.452
 7311SOL     OW23829   2.392   9.194   3.645
 7311SOL    HW123830   2.425   9.195   3.735
 7311SOL    HW223831   2.349   9.108   3.636
 7312SOL     OW23832   3.592   8.571   7.261
 7312SOL    HW123833   3.582   8.495   7.203
 7312SOL    HW223834   3.572   8.646   7.206
 7313SOL     OW23835   8.498  12.966  10.294
 7313SOL    HW123836   8.419  12.952  10.242
 7313SOL    HW223837   8.493  12.900  10.364
 7314SOL     OW23838   5.395   4.033   8.980
 7314SOL    HW123839   5.300   4.036   8.984
 7314SOL    HW223840   5.423   4.014   9.069
 7315SOL     OW23841  11.885  12.959   9.245
 7315SOL    HW123842  11.887  12.920   9.157
 7315SOL    HW223843  11.796  12.992   9.254
 7316SOL     OW23844   1.076   9.397   5.933
 7316SOL    HW123845   1.138   9.422   6.001
 7316SOL    HW223846   1.004   9.353   5.980
 7317SOL     OW23847   6.311   7.452  11.225
 7317SOL    HW123848   6.387   7.495  11.185
 7317SOL    HW223849   6.245   7.451  11.155
 7318SOL     OW23850  12.619  11.054  10.731
 7318SOL    HW123851  12.528  11.081  10.719
 7318SOL    HW223852  12.625  11.028  10.823
 7319SOL     OW23853   0.528   5.003   1.657
 7319SOL    HW123854   0.503   5.015   1.749
 7319SOL    HW223855   0.494   5.081   1.613
 7320SOL     OW23856   1.567   9.747   3.818
 7320SOL    HW123857   1.473   9.767   3.825
 7320SOL    HW223858   1.610   9.832   3.823
 7321SOL     OW23859  11.536  13.507   3.375
 7321SOL    HW123860  11.521  13.576   3.440
 7321SOL    HW223861  11.561  13.430   3.427
 7322SOL     OW23862   1.502   0.350   0.726
 7322SOL    HW123863   1.431   0.337   0.664
 7322SOL    HW223864   1.468   0.316   0.809
 7323SOL     OW23865  14.457   7.438   2.684
 7323SOL    HW123866  14.428   7.520   2.725
 7323SOL    HW223867  14.462   7.458   2.591
 7324SOL     OW23868   1.033  13.357   8.151
 7324SOL    HW123869   1.075  13.379   8.068
 7324SOL    HW223870   0.967  13.291   8.127
 7325SOL     OW23871   8.786   1.967   0.393
 7325SOL    HW123872   8.798   2.035   0.458
 7325SOL    HW223873   8.757   1.890   0.444
 7326SOL     OW23874   5.984   6.025   8.167
 7326SOL    HW123875   5.947   6.079   8.098
 7326SOL    HW223876   6.077   6.046   8.168
 7327SOL     OW23877   6.530   1.994   2.168
 7327SOL    HW123878   6.501   1.923   2.224
 7327SOL    HW223879   6.503   2.074   2.213
 7328SOL     OW23880  11.468  13.287   5.343
 7328SOL    HW123881  11.429  13.294   5.256
 7328SOL    HW223882  11.459  13.195   5.367
 7329SOL     OW23883   4.026  14.293   1.418
 7329SOL    HW123884   3.957  14.231   1.392
 7329SOL    HW223885   4.059  14.328   1.335
 7330SOL     OW23886  11.821  13.793   8.264
 7330SOL    HW123887  11.792  13.710   8.302
 7330SOL    HW223888  11.904  13.813   8.308
 7331SOL     OW23889   1.082   1.519   9.944
 7331SOL    HW123890   1.103   1.441   9.892
 7331SOL    HW223891   0.996   1.501   9.982
 7332SOL     OW23892   0.504  14.444   3.428
 7332SOL    HW123893   0.599  14.430   3.423
 7332SOL    HW223894   0.475  14.385   3.498
 7333SOL     OW23895   5.934   9.870  11.149
 7333SOL    HW123896   5.973   9.940  11.202
 7333SOL    HW223897   5.873   9.916  11.091
 7334SOL     OW23898   4.482   7.335   3.926
 7334SOL    HW123899   4.540   7.410   3.933
 7334SOL    HW223900   4.495   7.287   4.008
 7335SOL     OW23901   3.289   9.803   1.323
 7335SOL    HW123902   3.380   9.829   1.334
 7335SOL    HW223903   3.250   9.816   1.409
 7336SOL     OW23904   8.243   4.041   5.301
 7336SOL    HW123905   8.200   4.099   5.238
 7336SOL    HW223906   8.317   4.092   5.334
 7337SOL     OW23907  10.791   5.480   3.332
 7337SOL    HW123908  10.879   5.516   3.332
 7337SOL    HW223909  10.734   5.555   3.348
 7338SOL     OW23910   7.592   5.805   5.154
 7338SOL    HW123911   7.572   5.892   5.186
 7338SOL    HW223912   7.509   5.758   5.159
 7339SOL     OW23913  12.248   7.157   7.532
 7339SOL    HW123914  12.247   7.086   7.596
 7339SOL    HW223915  12.164   7.201   7.545
 7340SOL     OW23916   3.782   5.225   5.814
 7340SOL    HW123917   3.754   5.274   5.737
 7340SOL    HW223918   3.761   5.134   5.794
 7341SOL     OW23919   9.108  13.146   8.880
 7341SOL    HW123920   9.020  13.128   8.847
 7341SOL    HW223921   9.095  13.180   8.968
 7342SOL     OW23922   9.272   1.176   4.596
 7342SOL    HW123923   9.236   1.262   4.576
 7342SOL    HW223924   9.359   1.193   4.631
 7343SOL     OW23925   6.652   8.034  14.729
 7343SOL    HW123926   6.658   8.083  14.811
 7343SOL    HW223927   6.562   8.047  14.700
 7344SOL     OW23928  10.281   5.178   1.291
 7344SOL    HW123929  10.238   5.260   1.317
 7344SOL    HW223930  10.327   5.199   1.210
 7345SOL     OW23931   8.184  10.654   4.864
 7345SOL    HW123932   8.269  10.642   4.908
 7345SOL    HW223933   8.160  10.567   4.834
 7346SOL     OW23934  13.225   7.914  10.106
 7346SOL    HW123935  13.303   7.860  10.094
 7346SOL    HW223936  13.159   7.874  10.050
 7347SOL     OW23937   3.830   0.649  13.667
 7347SOL    HW123938   3.800   0.692  13.747
 7347SOL    HW223939   3.850   0.721  13.607
 7348SOL     OW23940   0.971  11.061  14.040
 7348SOL    HW123941   0.926  11.069  13.956
 7348SOL    HW223942   0.958  11.146  14.082
 7349SOL     OW23943   1.150   9.851   4.946
 7349SOL    HW123944   1.092   9.830   5.020
 7349SOL    HW223945   1.101   9.823   4.869
 7350SOL     OW23946   2.861   9.776  13.831
 7350SOL    HW123947   2.865   9.769  13.735
 7350SOL    HW223948   2.816   9.859  13.847
 7351SOL     OW23949   6.329   7.906   4.163
 7351SOL    HW123950   6.301   7.851   4.236
 7351SOL    HW223951   6.384   7.973   4.203
 7352SOL     OW23952   9.107   9.420   5.923
 7352SOL    HW123953   9.169   9.479   5.881
 7352SOL    HW223954   9.021   9.448   5.891
 7353SOL     OW23955   7.099   1.951   6.590
 7353SOL    HW123956   7.175   1.913   6.634
 7353SOL    HW223957   7.067   2.017   6.652
 7354SOL     OW23958  11.278   5.569  12.034
 7354SOL    HW123959  11.265   5.572  12.129
 7354SOL    HW223960  11.310   5.480  12.017
 7355SOL     OW23961   2.828   8.676  13.547
 7355SOL    HW123962   2.786   8.679  13.461
 7355SOL    HW223963   2.902   8.616  13.537
 7356SOL     OW23964   0.980  10.872   9.168
 7356SOL    HW123965   0.929  10.796   9.139
 7356SOL    HW223966   1.047  10.835   9.226
 7357SOL     OW23967   1.995   2.718   6.964
 7357SOL    HW123968   2.027   2.629   6.949
 7357SOL    HW223969   2.028   2.768   6.889
 7358SOL     OW23970  13.785  12.139   9.043
 7358SOL    HW123971  13.840  12.068   9.011
 7358SOL    HW223972  13.844  12.213   9.053
 7359SOL     OW23973  12.210   8.680   3.588
 7359SOL    HW123974  12.119   8.709   3.585
 7359SOL    HW223975  12.230   8.655   3.498
 7360SOL     OW23976   1.056   4.684   0.697
 7360SOL    HW123977   1.073   4.600   0.654
 7360SOL    HW223978   1.034   4.660   0.788
 7361SOL     OW23979  11.206  11.071   4.128
 7361SOL    HW123980  11.211  11.137   4.198
 7361SOL    HW223981  11.297  11.044   4.115
 7362SOL     OW23982  11.224   3.720   0.986
 7362SOL    HW123983  11.276   3.800   0.989
 7362SOL    HW223984  11.164   3.733   0.913
 7363SOL     OW23985   3.092  12.805   9.209
 7363SOL    HW123986   3.116  12.772   9.296
 7363SOL    HW223987   3.173  12.801   9.159
 7364SOL     OW23988  14.797   8.782  13.465
 7364SOL    HW123989   0.013   8.822  13.471
 7364SOL    HW223990  14.783   8.744  13.551
 7365SOL     OW23991   0.518  12.037   3.691
 7365SOL    HW123992   0.572  11.989   3.754
 7365SOL    HW223993   0.524  11.985   3.610
 7366SOL     OW23994   4.848   8.678   0.018
 7366SOL    HW123995   4.887   8.666   0.104
 7366SOL    HW223996   4.770   8.730   0.034
 7367SOL     OW23997   9.484   3.583  11.434
 7367SOL    HW123998   9.480   3.677  11.448
 7367SOL    HW223999   9.537   3.550  11.506
 7368SOL     OW24000  12.463   8.396   9.165
 7368SOL    HW124001  12.458   8.339   9.088
 7368SOL    HW224002  12.522   8.349   9.224
 7369SOL     OW24003   9.938   1.285   3.869
 7369SOL    HW124004   9.852   1.280   3.910
 7369SOL    HW224005   9.927   1.346   3.795
 7370SOL     OW24006  13.271   5.974   6.963
 7370SOL    HW124007  13.247   5.966   7.055
 7370SOL    HW224008  13.188   5.989   6.917
 7371SOL     OW24009   1.678  13.961   7.616
 7371SOL    HW124010   1.767  13.962   7.579
 7371SOL    HW224011   1.679  13.888   7.677
 7372SOL     OW24012  12.933  10.838  12.374
 7372SOL    HW124013  12.947  10.838  12.469
 7372SOL    HW224014  12.997  10.900  12.340
 7373SOL     OW24015   1.038   8.936   6.451
 7373SOL    HW124016   0.955   8.903   6.484
 7373SOL    HW224017   1.072   8.991   6.521
 7374SOL     OW24018   7.131   1.365  10.010
 7374SOL    HW124019   7.173   1.412   9.938
 7374SOL    HW224020   7.133   1.426  10.084
 7375SOL     OW24021  11.691   1.145   3.721
 7375SOL    HW124022  11.776   1.120   3.759
 7375SOL    HW224023  11.714   1.185   3.637
 7376SOL     OW24024   7.149   7.005   1.229
 7376SOL    HW124025   7.074   6.991   1.172
 7376SOL    HW224026   7.160   7.100   1.232
 7377SOL     OW24027   5.764  10.967  13.413
 7377SOL    HW124028   5.696  10.976  13.479
 7377SOL    HW224029   5.718  10.941  13.334
 7378SOL     OW24030   3.887   2.749  11.095
 7378SOL    HW124031   3.881   2.764  11.189
 7378SOL    HW224032   3.940   2.822  11.063
 7379SOL     OW24033   9.596   8.941   0.770
 7379SOL    HW124034   9.649   9.004   0.820
 7379SOL    HW224035   9.660   8.885   0.726
 7380SOL     OW24036  12.669   3.431  11.149
 7380SOL    HW124037  12.574   3.430  11.138
 7380SOL    HW224038  12.683   3.461  11.238
 7381SOL     OW24039  12.515   5.164  13.700
 7381SOL    HW124040  12.522   5.258  13.715
 7381SOL    HW224041  12.590   5.127  13.747
 7382SOL     OW24042   3.177   4.754   9.235
 7382SOL    HW124043   3.086   4.745   9.262
 7382SOL    HW224044   3.183   4.842   9.197
 7383SOL     OW24045  11.642   5.466   2.680
 7383SOL    HW124046  11.684   5.395   2.631
 7383SOL    HW224047  11.598   5.421   2.752
 7384SOL     OW24048   9.910   2.742  11.723
 7384SOL    HW124049   9.905   2.660  11.771
 7384SOL    HW224050   9.893   2.809  11.789
 7385SOL     OW24051   8.975   3.124   4.358
 7385SOL    HW124052   9.015   3.174   4.430
 7385SOL    HW224053   9.048   3.094   4.305
 7386SOL     OW24054  14.723   8.038   9.513
 7386SOL    HW124055  14.652   8.090   9.550
 7386SOL    HW224056  14.792   8.101   9.494
 7387SOL     OW24057   7.817   2.722   5.596
 7387SOL    HW124058   7.787   2.811   5.615
 7387SOL    HW224059   7.784   2.703   5.508
 7388SOL     OW24060   0.329   3.375  12.015
 7388SOL    HW124061   0.292   3.417  11.938
 7388SOL    HW224062   0.256   3.325  12.052
 7389SOL     OW24063   6.148   5.439  10.852
 7389SOL    HW124064   6.206   5.515  10.855
 7389SOL    HW224065   6.194   5.372  10.903
 7390SOL     OW24066  10.696  11.813  11.653
 7390SOL    HW124067  10.648  11.823  11.736
 7390SOL    HW224068  10.632  11.835  11.585
 7391SOL     OW24069   7.811   3.230   7.226
 7391SOL    HW124070   7.847   3.141   7.236
 7391SOL    HW224071   7.850   3.263   7.146
 7392SOL     OW24072   2.229   2.580   4.163
 7392SOL    HW124073   2.274   2.640   4.104
 7392SOL    HW224074   2.137   2.604   4.156
 7393SOL     OW24075  14.255  12.365   9.623
 7393SOL    HW124076  14.219  12.450   9.648
 7393SOL    HW224077  14.313  12.383   9.550
 7394SOL     OW24078  13.533   0.972   8.888
 7394SOL    HW124079  13.457   0.974   8.946
 7394SOL    HW224080  13.605   1.007   8.942
 7395SOL     OW24081   8.414   8.328   6.713
 7395SOL    HW124082   8.378   8.293   6.794
 7395SOL    HW224083   8.452   8.413   6.737
 7396SOL     OW24084  11.607   7.297   0.395
 7396SOL    HW124085  11.561   7.216   0.417
 7396SOL    HW224086  11.555   7.366   0.438
 7397SOL     OW24087   9.741   7.115  12.204
 7397SOL    HW124088   9.685   7.072  12.269
 7397SOL    HW224089   9.819   7.059  12.198
 7398SOL     OW24090  10.827   7.279   3.993
 7398SOL    HW124091  10.818   7.363   4.038
 7398SOL    HW224092  10.782   7.217   4.049
 7399SOL     OW24093  12.756   7.412  10.007
 7399SOL    HW124094  12.748   7.463   9.927
 7399SOL    HW224095  12.773   7.477  10.075
 7400SOL     OW24096  14.579   0.538   0.438
 7400SOL    HW124097  14.525   0.482   0.382
 7400SOL    HW224098  14.537   0.624   0.433
 7401SOL     OW24099  14.084   7.535   1.268
 7401SOL    HW124100  14.161   7.584   1.296
 7401SOL    HW224101  14.028   7.532   1.346
 7402SOL     OW24102  13.900   2.889   7.140
 7402SOL    HW124103  13.807   2.866   7.139
 7402SOL    HW224104  13.937   2.837   7.211
 7403SOL     OW24105   0.000  13.768   3.062
 7403SOL    HW124106  14.837  13.713   3.132
 7403SOL    HW224107   0.039  13.843   3.107
 7404SOL     OW24108  13.413   8.513  10.029
 7404SOL    HW124109  13.368   8.591   9.998
 7404SOL    HW224110  13.505   8.526  10.005
 7405SOL     OW24111   7.197  12.511   4.351
 7405SOL    HW124112   7.233  12.581   4.296
 7405SOL    HW224113   7.254  12.436   4.333
 7406SOL     OW24114   3.670   1.112  10.471
 7406SOL    HW124115   3.731   1.054  10.517
 7406SOL    HW224116   3.615   1.053  10.420
 7407SOL     OW24117   2.500   4.674   3.425
 7407SOL    HW124118   2.439   4.747   3.413
 7407SOL    HW224119   2.498   4.657   3.519
 7408SOL     OW24120   0.145   4.474   3.796
 7408SOL    HW124121   0.108   4.406   3.852
 7408SOL    HW224122   0.131   4.442   3.707
 7409SOL     OW24123  13.155   8.956   3.062
 7409SOL    HW124124  13.062   8.975   3.049
 7409SOL    HW224125  13.167   8.869   3.024
 7410SOL     OW24126  11.535   6.181  12.833
 7410SOL    HW124127  11.565   6.221  12.751
 7410SOL    HW224128  11.440   6.195  12.832
 7411SOL     OW24129  14.621   0.224   3.918
 7411SOL    HW124130  14.571   0.306   3.921
 7411SOL    HW224131  14.711   0.251   3.902
 7412SOL     OW24132   1.941   8.407  11.749
 7412SOL    HW124133   1.967   8.440  11.835
 7412SOL    HW224134   1.846   8.400  11.754
 7413SOL     OW24135   6.564  10.089  14.560
 7413SOL    HW124136   6.552   9.996  14.582
 7413SOL    HW224137   6.493  10.108  14.499
 7414SOL     OW24138  11.474   2.734   7.361
 7414SOL    HW124139  11.448   2.693   7.444
 7414SOL    HW224140  11.426   2.817   7.360
 7415SOL     OW24141   4.372   6.624   3.980
 7415SOL    HW124142   4.310   6.668   3.921
 7415SOL    HW224143   4.363   6.671   4.063
 7416SOL     OW24144   4.948   6.532   4.536
 7416SOL    HW124145   4.903   6.461   4.583
 7416SOL    HW224146   5.028   6.547   4.586
 7417SOL     OW24147   4.485  10.250   7.468
 7417SOL    HW124148   4.393  10.238   7.443
 7417SOL    HW224149   4.501  10.343   7.456
 7418SOL     OW24150   9.092  12.182   4.485
 7418SOL    HW124151   9.053  12.212   4.566
 7418SOL    HW224152   9.018  12.154   4.431
 7419SOL     OW24153   6.285  11.636  12.013
 7419SOL    HW124154   6.320  11.572  12.076
 7419SOL    HW224155   6.336  11.716  12.029
 7420SOL     OW24156   1.447  14.723  11.622
 7420SOL    HW124157   1.426  14.800  11.568
 7420SOL    HW224158   1.393  14.653  11.585
 7421SOL     OW24159   1.499  14.605   6.623
 7421SOL    HW124160   1.545  14.527   6.654
 7421SOL    HW224161   1.495  14.595   6.528
 7422SOL     OW24162   9.288   9.348  12.850
 7422SOL    HW124163   9.266   9.257  12.872
 7422SOL    HW224164   9.219   9.400  12.891
 7423SOL     OW24165   1.617   3.546   9.032
 7423SOL    HW124166   1.661   3.477   8.984
 7423SOL    HW224167   1.546   3.501   9.079
 7424SOL     OW24168  13.922  10.484   0.275
 7424SOL    HW124169  13.977  10.490   0.197
 7424SOL    HW224170  13.912  10.575   0.305
 7425SOL     OW24171  12.412   8.071   6.448
 7425SOL    HW124172  12.506   8.081   6.457
 7425SOL    HW224173  12.377   8.083   6.536
 7426SOL     OW24174   0.401  12.048   8.777
 7426SOL    HW124175   0.438  12.119   8.830
 7426SOL    HW224176   0.383  11.978   8.840
 7427SOL     OW24177  11.900   5.711   3.393
 7427SOL    HW124178  11.982   5.712   3.441
 7427SOL    HW224179  11.852   5.787   3.425
 7428SOL     OW24180   2.076  13.138  12.923
 7428SOL    HW124181   2.008  13.097  12.869
 7428SOL    HW224182   2.157  13.097  12.895
 7429SOL     OW24183  13.978  12.054   7.386
 7429SOL    HW124184  14.072  12.062   7.375
 7429SOL    HW224185  13.941  12.128   7.338
 7430SOL     OW24186   0.536  12.109  12.484
 7430SOL    HW124187   0.613  12.146  12.441
 7430SOL    HW224188   0.527  12.022  12.445
 7431SOL     OW24189   6.307   5.224   3.427
 7431SOL    HW124190   6.242   5.161   3.397
 7431SOL    HW224191   6.391   5.178   3.420
 7432SOL     OW24192   1.945   6.682   3.395
 7432SOL    HW124193   2.027   6.637   3.373
 7432SOL    HW224194   1.972   6.773   3.412
 7433SOL     OW24195  12.634   9.723  10.776
 7433SOL    HW124196  12.640   9.810  10.737
 7433SOL    HW224197  12.715   9.679  10.748
 7434SOL     OW24198  14.533  13.848   8.667
 7434SOL    HW124199  14.578  13.923   8.627
 7434SOL    HW224200  14.570  13.771   8.623
 7435SOL     OW24201   2.909   9.244   2.321
 7435SOL    HW124202   2.814   9.234   2.329
 7435SOL    HW224203   2.921   9.291   2.239
 7436SOL     OW24204   4.340  14.722   0.831
 7436SOL    HW124205   4.436  14.719   0.827
 7436SOL    HW224206   4.312  14.724   0.740
 7437SOL     OW24207   7.898   8.841   5.896
 7437SOL    HW124208   7.944   8.830   5.979
 7437SOL    HW224209   7.968   8.846   5.831
 7438SOL     OW24210  10.426   2.696   7.391
 7438SOL    HW124211  10.427   2.789   7.369
 7438SOL    HW224212  10.511   2.680   7.431
 7439SOL     OW24213   8.843   8.306  12.613
 7439SOL    HW124214   8.879   8.374  12.556
 7439SOL    HW224215   8.873   8.329  12.701
 7440SOL     OW24216   1.826  12.139   9.164
 7440SOL    HW124217   1.838  12.052   9.203
 7440SOL    HW224218   1.871  12.134   9.080
 7441SOL     OW24219  14.422  11.093   9.582
 7441SOL    HW124220  14.392  11.182   9.597
 7441SOL    HW224221  14.501  11.102   9.529
 7442SOL     OW24222  12.025   8.159   5.009
 7442SOL    HW124223  11.992   8.247   4.992
 7442SOL    HW224224  12.114   8.159   4.973
 7443SOL     OW24225  10.696   6.347  14.492
 7443SOL    HW124226  10.726   6.387  14.410
 7443SOL    HW224227  10.629   6.407  14.525
 7444SOL     OW24228   8.951  11.063   8.267
 7444SOL    HW124229   9.019  11.130   8.259
 7444SOL    HW224230   8.988  10.999   8.329
 7445SOL     OW24231  11.867  13.121   6.533
 7445SOL    HW124232  11.799  13.167   6.583
 7445SOL    HW224233  11.818  13.068   6.470
 7446SOL     OW24234   9.465   6.219  13.453
 7446SOL    HW124235   9.399   6.149  13.460
 7446SOL    HW224236   9.432   6.275  13.383
 7447SOL     OW24237   4.254   4.200   6.462
 7447SOL    HW124238   4.277   4.114   6.429
 7447SOL    HW224239   4.285   4.200   6.553
 7448SOL     OW24240   9.560   8.761   9.679
 7448SOL    HW124241   9.499   8.795   9.614
 7448SOL    HW224242   9.544   8.814   9.757
 7449SOL     OW24243  11.866  13.955   9.943
 7449SOL    HW124244  11.781  13.972   9.983
 7449SOL    HW224245  11.891  14.037   9.901
 7450SOL     OW24246   4.690   1.459   1.010
 7450SOL    HW124247   4.743   1.454   1.089
 7450SOL    HW224248   4.612   1.507   1.037
 7451SOL     OW24249   9.346   7.628   5.856
 7451SOL    HW124250   9.433   7.621   5.816
 7451SOL    HW224251   9.353   7.701   5.918
 7452SOL     OW24252   6.290   4.967  11.681
 7452SOL    HW124253   6.283   4.905  11.754
 7452SOL    HW224254   6.261   4.917  11.605
 7453SOL     OW24255  10.958   0.782  14.577
 7453SOL    HW124256  11.016   0.737  14.516
 7453SOL    HW224257  10.977   0.744  14.662
 7454SOL     OW24258   7.846   4.391  10.806
 7454SOL    HW124259   7.877   4.480  10.789
 7454SOL    HW224260   7.897   4.336  10.746
 7455SOL     OW24261   3.849  13.244   3.688
 7455SOL    HW124262   3.826  13.219   3.598
 7455SOL    HW224263   3.927  13.193   3.708
 7456SOL     OW24264  10.008  10.750  12.285
 7456SOL    HW124265  10.025  10.673  12.230
 7456SOL    HW224266  10.086  10.805  12.273
 7457SOL     OW24267  12.390   3.787   4.112
 7457SOL    HW124268  12.432   3.769   4.028
 7457SOL    HW224269  12.409   3.879   4.130
 7458SOL     OW24270  12.663  11.218   8.391
 7458SOL    HW124271  12.581  11.169   8.397
 7458SOL    HW224272  12.686  11.238   8.481
 7459SOL     OW24273   0.166   3.596  13.385
 7459SOL    HW124274   0.120   3.529  13.435
 7459SOL    HW224275   0.097   3.643  13.338
 7460SOL     OW24276   2.386   9.523   8.442
 7460SOL    HW124277   2.358   9.438   8.408
 7460SOL    HW224278   2.475   9.533   8.409
 7461SOL     OW24279  13.238   6.715   2.693
 7461SOL    HW124280  13.331   6.691   2.696
 7461SOL    HW224281  13.205   6.695   2.781
 7462SOL     OW24282   4.604   6.688  10.122
 7462SOL    HW124283   4.604   6.703  10.028
 7462SOL    HW224284   4.582   6.773  10.161
 7463SOL     OW24285   3.462   5.622   1.503
 7463SOL    HW124286   3.523   5.556   1.471
 7463SOL    HW224287   3.464   5.692   1.437
 7464SOL     OW24288   1.908  11.298  13.413
 7464SOL    HW124289   1.851  11.296  13.490
 7464SOL    HW224290   1.988  11.255  13.441
 7465SOL     OW24291   6.399   3.637   8.839
 7465SOL    HW124292   6.406   3.560   8.894
 7465SOL    HW224293   6.471   3.629   8.776
 7466SOL     OW24294   2.638   3.721  13.841
 7466SOL    HW124295   2.729   3.730  13.870
 7466SOL    HW224296   2.644   3.697  13.749
 7467SOL     OW24297  11.125  13.554   5.418
 7467SOL    HW124298  11.068  13.629   5.400
 7467SOL    HW224299  11.156  13.527   5.332
 7468SOL     OW24300   5.032   2.917  13.775
 7468SOL    HW124301   5.004   2.956  13.692
 7468SOL    HW224302   4.954   2.871  13.807
 7469SOL     OW24303   2.382   2.240   6.138
 7469SOL    HW124304   2.305   2.195   6.103
 7469SOL    HW224305   2.449   2.173   6.142
 7470SOL     OW24306   0.534   6.531  11.504
 7470SOL    HW124307   0.567   6.441  11.513
 7470SOL    HW224308   0.528   6.563  11.593
 7471SOL     OW24309  11.378  10.013   8.997
 7471SOL    HW124310  11.353  10.082   9.059
 7471SOL    HW224311  11.377  10.056   8.911
 7472SOL     OW24312   6.484  13.425   0.764
 7472SOL    HW124313   6.407  13.386   0.723
 7472SOL    HW224314   6.504  13.502   0.710
 7473SOL     OW24315   2.780   8.424  12.770
 7473SOL    HW124316   2.699   8.475  12.775
 7473SOL    HW224317   2.845   8.487  12.739
 7474SOL     OW24318  10.160   9.778  12.767
 7474SOL    HW124319  10.104   9.849  12.737
 7474SOL    HW224320  10.240   9.821  12.798
 7475SOL     OW24321   5.753  11.273   7.792
 7475SOL    HW124322   5.712  11.358   7.808
 7475SOL    HW224323   5.679  11.213   7.781
 7476SOL     OW24324   0.544   0.993   2.065
 7476SOL    HW124325   0.517   0.902   2.073
 7476SOL    HW224326   0.554   1.023   2.156
 7477SOL     OW24327  13.227  13.952  13.449
 7477SOL    HW124328  13.154  14.014  13.437
 7477SOL    HW224329  13.280  13.963  13.370
 7478SOL     OW24330   8.733   7.190   8.510
 7478SOL    HW124331   8.661   7.127   8.515
 7478SOL    HW224332   8.792   7.164   8.581
 7479SOL     OW24333   8.800   7.042   6.398
 7479SOL    HW124334   8.800   6.972   6.333
 7479SOL    HW224335   8.723   7.025   6.452
 7480SOL     OW24336   3.479   3.967   3.356
 7480SOL    HW124337   3.571   3.955   3.330
 7480SOL    HW224338   3.446   3.879   3.369
 7481SOL     OW24339  10.839  13.533   9.053
 7481SOL    HW124340  10.914  13.580   9.017
 7481SOL    HW224341  10.765  13.564   9.002
 7482SOL     OW24342   2.724   8.190  13.310
 7482SOL    HW124343   2.732   8.140  13.228
 7482SOL    HW224344   2.789   8.150  13.368
 7483SOL     OW24345  11.241  12.639  13.502
 7483SOL    HW124346  11.186  12.592  13.439
 7483SOL    HW224347  11.199  12.626  13.587
 7484SOL     OW24348   0.044  13.368  13.987
 7484SOL    HW124349   0.082  13.445  14.031
 7484SOL    HW224350   0.116  13.306  13.982
 7485SOL     OW24351   9.734   6.448   5.024
 7485SOL    HW124352   9.784   6.382   5.072
 7485SOL    HW224353   9.703   6.402   4.946
 7486SOL     OW24354  10.237   4.041   2.154
 7486SOL    HW124355  10.202   4.066   2.069
 7486SOL    HW224356  10.196   3.957   2.173
 7487SOL     OW24357  14.539   7.008   6.843
 7487SOL    HW124358  14.479   7.034   6.913
 7487SOL    HW224359  14.512   6.919   6.820
 7488SOL     OW24360  14.506   9.425   6.986
 7488SOL    HW124361  14.449   9.493   7.023
 7488SOL    HW224362  14.595   9.453   7.010
 7489SOL     OW24363  11.787   7.014   3.868
 7489SOL    HW124364  11.695   7.039   3.856
 7489SOL    HW224365  11.824   7.081   3.925
 7490SOL     OW24366  14.319   9.865   4.159
 7490SOL    HW124367  14.376   9.935   4.189
 7490SOL    HW224368  14.315   9.876   4.064
 7491SOL     OW24369   6.964  14.769   3.077
 7491SOL    HW124370   7.054  14.801   3.079
 7491SOL    HW224371   6.921  14.824   3.011
 7492SOL     OW24372  14.361   8.287   5.924
 7492SOL    HW124373  14.408   8.320   5.847
 7492SOL    HW224374  14.276   8.330   5.920
 7493SOL     OW24375   8.993   1.411   7.846
 7493SOL    HW124376   8.952   1.493   7.818
 7493SOL    HW224377   8.939   1.381   7.919
 7494SOL     OW24378  12.755   4.315   4.749
 7494SOL    HW124379  12.726   4.226   4.770
 7494SOL    HW224380  12.836   4.303   4.699
 7495SOL     OW24381   0.818  11.110   3.148
 7495SOL    HW124382   0.867  11.152   3.077
 7495SOL    HW224383   0.841  11.161   3.226
 7496SOL     OW24384  11.204  13.995  10.733
 7496SOL    HW124385  11.146  14.028  10.665
 7496SOL    HW224386  11.290  13.994  10.693
 7497SOL     OW24387   1.065   5.791   8.010
 7497SOL    HW124388   1.111   5.857   7.958
 7497SOL    HW224389   1.096   5.707   7.977
 7498SOL     OW24390   1.580   2.626   8.820
 7498SOL    HW124391   1.539   2.700   8.777
 7498SOL    HW224392   1.530   2.550   8.789
 7499SOL     OW24393   3.261   2.255   9.163
 7499SOL    HW124394   3.183   2.283   9.114
 7499SOL    HW224395   3.321   2.330   9.158
 7500SOL     OW24396   6.468   8.479   1.268
 7500SOL    HW124397   6.524   8.509   1.196
 7500SOL    HW224398   6.507   8.518   1.346
 7501SOL     OW24399   2.013   7.824   8.077
 7501SOL    HW124400   2.082   7.890   8.070
 7501SOL    HW224401   1.955   7.857   8.145
 7502SOL     OW24402  10.062  10.580   4.691
 7502SOL    HW124403  10.122  10.507   4.679
 7502SOL    HW224404  10.019  10.563   4.775
 7503SOL     OW24405  14.677  13.552  14.794
 7503SOL    HW124406  14.759  13.527  14.835
 7503SOL    HW224407  14.701  13.619  14.730
 7504SOL     OW24408   6.118   7.958   4.608
 7504SOL    HW124409   6.081   8.034   4.653
 7504SOL    HW224410   6.199   7.939   4.655
 7505SOL     OW24411  10.209   1.397  13.550
 7505SOL    HW124412  10.275   1.339  13.588
 7505SOL    HW224413  10.126   1.354  13.568
 7506SOL     OW24414   8.957   8.313  12.302
 7506SOL    HW124415   8.968   8.366  12.223
 7506SOL    HW224416   8.966   8.375  12.374
 7507SOL     OW24417   3.061   0.649   0.758
 7507SOL    HW124418   2.986   0.593   0.736
 7507SOL    HW224419   3.024   0.722   0.806
 7508SOL     OW24420   1.521  10.086  11.060
 7508SOL    HW124421   1.614  10.077  11.079
 7508SOL    HW224422   1.492   9.997  11.038
 7509SOL     OW24423   9.286   9.073   6.809
 7509SOL    HW124424   9.319   9.047   6.724
 7509SOL    HW224425   9.212   9.014   6.826
 7510SOL     OW24426   9.072   9.410   8.690
 7510SOL    HW124427   9.046   9.492   8.648
 7510SOL    HW224428   9.126   9.436   8.764
 7511SOL     OW24429   8.542   0.844   5.206
 7511SOL    HW124430   8.559   0.934   5.233
 7511SOL    HW224431   8.590   0.834   5.124
 7512SOL     OW24432   7.127   5.557  12.922
 7512SOL    HW124433   7.117   5.551  13.017
 7512SOL    HW224434   7.222   5.553  12.908
 7513SOL     OW24435  10.652   7.470  11.092
 7513SOL    HW124436  10.583   7.502  11.034
 7513SOL    HW224437  10.732   7.475  11.040
 7514SOL     OW24438   8.555   8.641   1.347
 7514SOL    HW124439   8.592   8.703   1.284
 7514SOL    HW224440   8.576   8.679   1.433
 7515SOL     OW24441  11.451  11.101  12.031
 7515SOL    HW124442  11.521  11.159  12.059
 7515SOL    HW224443  11.439  11.041  12.105
 7516SOL     OW24444   6.653   0.982   4.436
 7516SOL    HW124445   6.614   1.068   4.424
 7516SOL    HW224446   6.736   0.986   4.389
 7517SOL     OW24447   7.431  10.344   7.322
 7517SOL    HW124448   7.430  10.252   7.350
 7517SOL    HW224449   7.424  10.394   7.403
 7518SOL     OW24450  11.527  10.895   7.804
 7518SOL    HW124451  11.491  10.868   7.888
 7518SOL    HW224452  11.562  10.983   7.820
 7519SOL     OW24453  11.410  10.652   5.429
 7519SOL    HW124454  11.451  10.735   5.403
 7519SOL    HW224455  11.457  10.586   5.378
 7520SOL     OW24456   3.993  10.306   9.556
 7520SOL    HW124457   3.991  10.401   9.558
 7520SOL    HW224458   3.903  10.279   9.572
 7521SOL     OW24459  11.813   0.472   1.470
 7521SOL    HW124460  11.859   0.470   1.554
 7521SOL    HW224461  11.725   0.439   1.491
 7522SOL     OW24462   6.791   5.232   7.083
 7522SOL    HW124463   6.826   5.279   7.007
 7522SOL    HW224464   6.696   5.241   7.076
 7523SOL     OW24465  10.189   4.314   6.135
 7523SOL    HW124466  10.157   4.368   6.207
 7523SOL    HW224467  10.281   4.297   6.157
 7524SOL     OW24468  10.788  13.015   4.526
 7524SOL    HW124469  10.734  13.094   4.524
 7524SOL    HW224470  10.857  13.032   4.462
 7525SOL     OW24471   8.327  11.314   1.889
 7525SOL    HW124472   8.336  11.270   1.974
 7525SOL    HW224473   8.262  11.383   1.904
 7526SOL     OW24474  11.626  10.072  10.192
 7526SOL    HW124475  11.680  10.089  10.114
 7526SOL    HW224476  11.666   9.995  10.232
 7527SOL     OW24477   9.621   9.876   1.246
 7527SOL    HW124478   9.678   9.811   1.288
 7527SOL    HW224479   9.609   9.944   1.312
 7528SOL     OW24480   3.806  11.412   6.099
 7528SOL    HW124481   3.802  11.399   6.004
 7528SOL    HW224482   3.716  11.395   6.128
 7529SOL     OW24483   9.635   9.794   8.055
 7529SOL    HW124484   9.619   9.700   8.063
 7529SOL    HW224485   9.591   9.820   7.975
 7530SOL     OW24486   1.389   8.147   1.137
 7530SOL    HW124487   1.390   8.073   1.198
 7530SOL    HW224488   1.480   8.156   1.109
 7531SOL     OW24489  13.235   3.648  10.808
 7531SOL    HW124490  13.279   3.628  10.891
 7531SOL    HW224491  13.142   3.647  10.830
 7532SOL     OW24492   6.284  10.515   2.025
 7532SOL    HW124493   6.303  10.576   2.096
 7532SOL    HW224494   6.240  10.442   2.067
 7533SOL     OW24495   5.822   6.640   5.267
 7533SOL    HW124496   5.907   6.648   5.223
 7533SOL    HW224497   5.758   6.645   5.196
 7534SOL     OW24498   5.322   5.456  10.451
 7534SOL    HW124499   5.306   5.364  10.433
 7534SOL    HW224500   5.417   5.466  10.447
 7535SOL     OW24501   7.972   6.896  14.327
 7535SOL    HW124502   7.922   6.825  14.366
 7535SOL    HW224503   7.909   6.941  14.270
 7536SOL     OW24504  13.768   4.841  13.820
 7536SOL    HW124505  13.844   4.803  13.864
 7536SOL    HW224506  13.741   4.774  13.757
 7537SOL     OW24507   1.843   4.524   5.274
 7537SOL    HW124508   1.796   4.444   5.252
 7537SOL    HW224509   1.882   4.507   5.359
 7538SOL     OW24510  14.608   7.662  14.080
 7538SOL    HW124511  14.640   7.574  14.099
 7538SOL    HW224512  14.614   7.708  14.164
 7539SOL     OW24513   4.577  12.570  12.694
 7539SOL    HW124514   4.634  12.637  12.732
 7539SOL    HW224515   4.595  12.575  12.600
 7540SOL     OW24516   4.677  14.644   5.437
 7540SOL    HW124517   4.595  14.653   5.388
 7540SOL    HW224518   4.659  14.574   5.500
 7541SOL     OW24519  12.005   6.277  11.784
 7541SOL    HW124520  11.936   6.338  11.813
 7541SOL    HW224521  11.985   6.260  11.692
 7542SOL     OW24522  12.638   3.550  14.053
 7542SOL    HW124523  12.593   3.522  13.973
 7542SOL    HW224524  12.674   3.469  14.090
 7543SOL     OW24525   0.977  11.502   8.188
 7543SOL    HW124526   0.925  11.581   8.174
 7543SOL    HW224527   1.007  11.507   8.278
 7544SOL     OW24528   7.872   3.790  11.274
 7544SOL    HW124529   7.949   3.787  11.218
 7544SOL    HW224530   7.907   3.801  11.362
 7545SOL     OW24531  12.887   6.569  14.463
 7545SOL    HW124532  12.900   6.662  14.448
 7545SOL    HW224533  12.793   6.555  14.447
 7546SOL     OW24534   7.044   5.885   9.703
 7546SOL    HW124535   6.981   5.920   9.766
 7546SOL    HW224536   7.129   5.917   9.733
 7547SOL     OW24537   9.152   7.447   1.917
 7547SOL    HW124538   9.115   7.485   1.996
 7547SOL    HW224539   9.227   7.396   1.947
 7548SOL     OW24540   0.073  10.790   7.508
 7548SOL    HW124541   0.086  10.741   7.427
 7548SOL    HW224542   0.160  10.794   7.548
 7549SOL     OW24543  11.189  11.435   8.246
 7549SOL    HW124544  11.105  11.441   8.290
 7549SOL    HW224545  11.183  11.496   8.173
 7550SOL     OW24546   6.366   2.128  11.131
 7550SOL    HW124547   6.448   2.120  11.180
 7550SOL    HW224548   6.387   2.093  11.044
 7551SOL     OW24549  13.216   4.166   1.855
 7551SOL    HW124550  13.168   4.091   1.821
 7551SOL    HW224551  13.181   4.241   1.807
 7552SOL     OW24552   4.436   0.508   2.821
 7552SOL    HW124553   4.352   0.529   2.863
 7552SOL    HW224554   4.414   0.443   2.754
 7553SOL     OW24555   7.692  13.890   9.127
 7553SOL    HW124556   7.671  13.797   9.112
 7553SOL    HW224557   7.627  13.919   9.191
 7554SOL     OW24558   3.699   2.208   8.532
 7554SOL    HW124559   3.772   2.150   8.508
 7554SOL    HW224560   3.737   2.268   8.596
 7555SOL     OW24561  14.648   6.642  12.657
 7555SOL    HW124562  14.628   6.631  12.750
 7555SOL    HW224563  14.714   6.712  12.656
 7556SOL     OW24564   0.034   3.774   2.306
 7556SOL    HW124565   0.024   3.843   2.240
 7556SOL    HW224566   0.004   3.816   2.388
 7557SOL     OW24567   9.488  12.515  11.486
 7557SOL    HW124568   9.568  12.475  11.520
 7557SOL    HW224569   9.454  12.567  11.559
 7558SOL     OW24570   4.486   3.907   8.557
 7558SOL    HW124571   4.429   3.870   8.625
 7558SOL    HW224572   4.510   3.833   8.502
 7559SOL     OW24573  11.613   4.720   9.506
 7559SOL    HW124574  11.526   4.680   9.501
 7559SOL    HW224575  11.667   4.669   9.446
 7560SOL     OW24576   3.318   0.378   9.882
 7560SOL    HW124577   3.311   0.387   9.977
 7560SOL    HW224578   3.243   0.427   9.847
 7561SOL     OW24579  12.935  10.050   6.275
 7561SOL    HW124580  12.910  10.019   6.362
 7561SOL    HW224581  12.863  10.109   6.249
 7562SOL     OW24582   2.807  11.802  11.130
 7562SOL    HW124583   2.766  11.802  11.044
 7562SOL    HW224584   2.760  11.735  11.180
 7563SOL     OW24585   8.190  10.292  10.837
 7563SOL    HW124586   8.274  10.271  10.878
 7563SOL    HW224587   8.126  10.240  10.884
 7564SOL     OW24588   6.393   9.827   8.529
 7564SOL    HW124589   6.360   9.791   8.611
 7564SOL    HW224590   6.488   9.826   8.539
 7565SOL     OW24591   5.949   3.394  11.963
 7565SOL    HW124592   5.947   3.344  11.882
 7565SOL    HW224593   5.974   3.331  12.030
 7566SOL     OW24594   8.548   1.891   0.902
 7566SOL    HW124595   8.624   1.834   0.890
 7566SOL    HW224596   8.506   1.893   0.816
 7567SOL     OW24597  13.441   6.657   3.226
 7567SOL    HW124598  13.429   6.722   3.157
 7567SOL    HW224599  13.526   6.677   3.264
 7568SOL     OW24600   3.871  12.217  13.649
 7568SOL    HW124601   3.802  12.281  13.632
 7568SOL    HW224602   3.937  12.234  13.582
 7569SOL     OW24603   1.302  11.617  12.024
 7569SOL    HW124604   1.386  11.660  12.036
 7569SOL    HW224605   1.249  11.646  12.098
 7570SOL     OW24606   9.317   5.482   1.487
 7570SOL    HW124607   9.375   5.439   1.550
 7570SOL    HW224608   9.354   5.460   1.402
 7571SOL     OW24609  14.645   0.867   2.377
 7571SOL    HW124610  14.652   0.934   2.446
 7571SOL    HW224611  14.639   0.784   2.425
 7572SOL     OW24612   5.313   2.831  13.655
 7572SOL    HW124613   5.286   2.751  13.610
 7572SOL    HW224614   5.235   2.886  13.656
 7573SOL     OW24615  11.269   5.429   2.717
 7573SOL    HW124616  11.259   5.334   2.709
 7573SOL    HW224617  11.326   5.440   2.793
 7574SOL     OW24618   9.833   4.256  12.005
 7574SOL    HW124619   9.855   4.340  11.967
 7574SOL    HW224620   9.886   4.251  12.085
 7575SOL     OW24621   6.974   6.304  10.132
 7575SOL    HW124622   6.932   6.218  10.129
 7575SOL    HW224623   6.934   6.354  10.061
 7576SOL     OW24624   8.911  11.739   2.436
 7576SOL    HW124625   8.829  11.732   2.484
 7576SOL    HW224626   8.883  11.754   2.345
 7577SOL     OW24627   7.635  13.678   7.944
 7577SOL    HW124628   7.659  13.602   7.890
 7577SOL    HW224629   7.541  13.667   7.959
 7578SOL     OW24630   1.911  10.324  11.293
 7578SOL    HW124631   1.846  10.386  11.325
 7578SOL    HW224632   1.885  10.240  11.329
 7579SOL     OW24633   2.496   9.718  12.634
 7579SOL    HW124634   2.534   9.640  12.594
 7579SOL    HW224635   2.448   9.684  12.710
 7580SOL     OW24636   8.085   5.418   2.962
 7580SOL    HW124637   8.048   5.382   2.881
 7580SOL    HW224638   8.164   5.463   2.935
 7581SOL     OW24639   0.876  13.005   2.285
 7581SOL    HW124640   0.879  13.039   2.195
 7581SOL    HW224641   0.794  12.955   2.289
 7582SOL     OW24642  14.154   8.193   8.002
 7582SOL    HW124643  14.100   8.198   7.924
 7582SOL    HW224644  14.163   8.284   8.031
 7583SOL     OW24645  12.890  13.469  12.617
 7583SOL    HW124646  12.870  13.391  12.566
 7583SOL    HW224647  12.841  13.459  12.699
 7584SOL     OW24648   1.413  12.434  13.025
 7584SOL    HW124649   1.397  12.346  13.060
 7584SOL    HW224650   1.368  12.493  13.086
 7585SOL     OW24651  10.504   8.465   6.534
 7585SOL    HW124652  10.545   8.471   6.447
 7585SOL    HW224653  10.412   8.486   6.518
 7586SOL     OW24654   6.450   7.890   4.991
 7586SOL    HW124655   6.529   7.930   4.954
 7586SOL    HW224656   6.378   7.941   4.954
 7587SOL     OW24657   6.503   2.204   3.132
 7587SOL    HW124658   6.479   2.269   3.198
 7587SOL    HW224659   6.587   2.170   3.162
 7588SOL     OW24660  12.901   0.322  10.661
 7588SOL    HW124661  12.976   0.270  10.633
 7588SOL    HW224662  12.892   0.304  10.754
 7589SOL     OW24663   1.414  10.679   8.366
 7589SOL    HW124664   1.479  10.661   8.298
 7589SOL    HW224665   1.463  10.727   8.433
 7590SOL     OW24666   7.869   5.761   4.414
 7590SOL    HW124667   7.909   5.707   4.482
 7590SOL    HW224668   7.803   5.704   4.374
 7591SOL     OW24669   2.308   1.093   5.320
 7591SOL    HW124670   2.349   1.065   5.402
 7591SOL    HW224671   2.218   1.115   5.345
 7592SOL     OW24672   5.770  14.124   6.526
 7592SOL    HW124673   5.715  14.202   6.522
 7592SOL    HW224674   5.732  14.072   6.597
 7593SOL     OW24675   2.932   2.931   1.808
 7593SOL    HW124676   3.019   2.896   1.823
 7593SOL    HW224677   2.897   2.947   1.896
 7594SOL     OW24678   0.583  14.245  11.626
 7594SOL    HW124679   0.617  14.335  11.629
 7594SOL    HW224680   0.563  14.231  11.533
 7595SOL     OW24681   2.168  10.141  11.059
 7595SOL    HW124682   2.140  10.115  10.971
 7595SOL    HW224683   2.177  10.236  11.054
 7596SOL     OW24684   7.045   1.160  12.803
 7596SOL    HW124685   7.026   1.089  12.742
 7596SOL    HW224686   7.009   1.238  12.761
 7597SOL     OW24687   2.487  14.852  10.046
 7597SOL    HW124688   2.449  14.867  10.132
 7597SOL    HW224689   2.516  14.760  10.049
 7598SOL     OW24690   9.653   7.485  13.888
 7598SOL    HW124691   9.608   7.438  13.818
 7598SOL    HW224692   9.664   7.574  13.854
 7599SOL     OW24693  12.523   4.405   1.358
 7599SOL    HW124694  12.486   4.478   1.408
 7599SOL    HW224695  12.450   4.345   1.345
 7600SOL     OW24696  12.996  12.137   4.619
 7600SOL    HW124697  12.947  12.169   4.696
 7600SOL    HW224698  13.045  12.213   4.588
 7601SOL     OW24699   7.271   5.327  11.082
 7601SOL    HW124700   7.286   5.341  10.989
 7601SOL    HW224701   7.335   5.383  11.126
 7602SOL     OW24702  12.676   1.778  13.535
 7602SOL    HW124703  12.605   1.817  13.587
 7602SOL    HW224704  12.653   1.797  13.444
 7603SOL     OW24705   5.722   5.889   4.441
 7603SOL    HW124706   5.807   5.850   4.458
 7603SOL    HW224707   5.703   5.866   4.350
 7604SOL     OW24708   4.963   9.754  10.895
 7604SOL    HW124709   4.881   9.705  10.901
 7604SOL    HW224710   4.975   9.791  10.983
 7605SOL     OW24711  13.327   1.653   8.450
 7605SOL    HW124712  13.233   1.660   8.434
 7605SOL    HW224713  13.343   1.559   8.459
 7606SOL     OW24714  10.272   1.235   3.132
 7606SOL    HW124715  10.276   1.328   3.113
 7606SOL    HW224716  10.187   1.222   3.175
 7607SOL     OW24717   9.197  11.455   2.477
 7607SOL    HW124718   9.117  11.404   2.469
 7607SOL    HW224719   9.236  11.454   2.390
 7608SOL     OW24720   1.967   6.520   1.878
 7608SOL    HW124721   1.960   6.573   1.958
 7608SOL    HW224722   1.969   6.430   1.908
 7609SOL     OW24723   4.502   4.274  14.575
 7609SOL    HW124724   4.494   4.192  14.624
 7609SOL    HW224725   4.581   4.314  14.609
 7610SOL     OW24726   7.451  12.717   5.661
 7610SOL    HW124727   7.480  12.714   5.570
 7610SOL    HW224728   7.531  12.711   5.712
 7611SOL     OW24729   0.931   2.757   7.726
 7611SOL    HW124730   0.917   2.662   7.730
 7611SOL    HW224731   0.978   2.777   7.807
 7612SOL     OW24732  14.348   0.651   4.567
 7612SOL    HW124733  14.361   0.727   4.510
 7612SOL    HW224734  14.253   0.642   4.575
 7613SOL     OW24735   2.535   7.445   3.488
 7613SOL    HW124736   2.599   7.390   3.532
 7613SOL    HW224737   2.579   7.529   3.478
 7614SOL     OW24738   8.963  12.984  11.092
 7614SOL    HW124739   8.925  12.897  11.103
 7614SOL    HW224740   8.943  13.007  11.002
 7615SOL     OW24741   5.575   1.471  14.305
 7615SOL    HW124742   5.546   1.381  14.321
 7615SOL    HW224743   5.497   1.524  14.319
 7616SOL     OW24744   4.198   1.981  12.086
 7616SOL    HW124745   4.267   1.987  12.152
 7616SOL    HW224746   4.142   1.909  12.115
 7617SOL     OW24747   0.299  13.945  10.806
 7617SOL    HW124748   0.364  13.978  10.744
 7617SOL    HW224749   0.351  13.903  10.874
 7618SOL     OW24750   1.520   8.087  12.479
 7618SOL    HW124751   1.515   8.182  12.490
 7618SOL    HW224752   1.455   8.052  12.540
 7619SOL     OW24753  13.621  10.074   6.749
 7619SOL    HW124754  13.615   9.981   6.772
 7619SOL    HW224755  13.626  10.075   6.654
 7620SOL     OW24756   3.251   6.097   6.958
 7620SOL    HW124757   3.239   6.043   7.036
 7620SOL    HW224758   3.343   6.125   6.963
 7621SOL     OW24759   1.095   4.252  11.226
 7621SOL    HW124760   1.164   4.192  11.251
 7621SOL    HW224761   1.120   4.336  11.265
 7622SOL     OW24762  11.086  12.409  11.129
 7622SOL    HW124763  11.140  12.401  11.208
 7622SOL    HW224764  10.996  12.395  11.160
 7623SOL     OW24765   9.249  13.164   3.153
 7623SOL    HW124766   9.260  13.069   3.156
 7623SOL    HW224767   9.158  13.177   3.128
 7624SOL     OW24768   6.564   4.927   0.315
 7624SOL    HW124769   6.659   4.933   0.306
 7624SOL    HW224770   6.535   4.891   0.231
 7625SOL     OW24771  13.237   2.537   3.700
 7625SOL    HW124772  13.175   2.488   3.645
 7625SOL    HW224773  13.183   2.604   3.743
 7626SOL     OW24774   2.605   3.349  12.310
 7626SOL    HW124775   2.534   3.400  12.272
 7626SOL    HW224776   2.667   3.336  12.238
 7627SOL     OW24777  12.587   1.448   0.731
 7627SOL    HW124778  12.540   1.525   0.698
 7627SOL    HW224779  12.625   1.476   0.814
 7628SOL     OW24780  13.893  10.019   3.349
 7628SOL    HW124781  13.857   9.992   3.434
 7628SOL    HW224782  13.824   9.997   3.286
 7629SOL     OW24783  11.102   4.655   5.164
 7629SOL    HW124784  11.115   4.692   5.251
 7629SOL    HW224785  11.156   4.577   5.162
 7630SOL     OW24786   0.973   9.318   9.046
 7630SOL    HW124787   1.026   9.244   9.075
 7630SOL    HW224788   0.979   9.316   8.950
 7631SOL     OW24789  11.955   0.077   3.107
 7631SOL    HW124790  12.049   0.096   3.107
 7631SOL    HW224791  11.941   0.030   3.189
 7632SOL     OW24792   8.579  13.479   1.564
 7632SOL    HW124793   8.600  13.394   1.526
 7632SOL    HW224794   8.604  13.542   1.496
 7633SOL     OW24795  10.826  10.766  10.140
 7633SOL    HW124796  10.756  10.715  10.181
 7633SOL    HW224797  10.907  10.724  10.170
 7634SOL     OW24798   5.087   6.183  10.330
 7634SOL    HW124799   5.122   6.266  10.300
 7634SOL    HW224800   5.035   6.150  10.257
 7635SOL     OW24801  10.982   3.592   0.709
 7635SOL    HW124802  10.972   3.535   0.785
 7635SOL    HW224803  10.946   3.676   0.738
 7636SOL     OW24804   6.904   8.298  13.627
 7636SOL    HW124805   6.969   8.309  13.696
 7636SOL    HW224806   6.944   8.237  13.565
 7637SOL     OW24807   8.846  12.410   2.498
 7637SOL    HW124808   8.867  12.459   2.578
 7637SOL    HW224809   8.771  12.356   2.522
 7638SOL     OW24810   7.611   6.250   4.375
 7638SOL    HW124811   7.580   6.289   4.457
 7638SOL    HW224812   7.644   6.164   4.400
 7639SOL     OW24813   3.513   0.980  13.814
 7639SOL    HW124814   3.568   1.030  13.875
 7639SOL    HW224815   3.431   1.030  13.810
 7640SOL     OW24816   4.166   9.363   3.290
 7640SOL    HW124817   4.170   9.458   3.303
 7640SOL    HW224818   4.257   9.337   3.277
 7641SOL     OW24819   7.928   3.565   5.856
 7641SOL    HW124820   7.938   3.591   5.948
 7641SOL    HW224821   7.925   3.648   5.808
 7642SOL     OW24822   4.339   6.085   7.128
 7642SOL    HW124823   4.428   6.050   7.118
 7642SOL    HW224824   4.319   6.125   7.044
 7643SOL     OW24825   9.462   0.328   4.300
 7643SOL    HW124826   9.372   0.361   4.308
 7643SOL    HW224827   9.501   0.344   4.385
 7644SOL     OW24828   3.091  10.928   4.884
 7644SOL    HW124829   3.160  10.862   4.894
 7644SOL    HW224830   3.132  10.998   4.833
 7645SOL     OW24831   3.216  12.161  13.853
 7645SOL    HW124832   3.299  12.168  13.806
 7645SOL    HW224833   3.175  12.247  13.842
 7646SOL     OW24834  11.812   9.636   3.128
 7646SOL    HW124835  11.821   9.708   3.067
 7646SOL    HW224836  11.718   9.618   3.132
 7647SOL     OW24837  10.568  10.787  10.638
 7647SOL    HW124838  10.570  10.752  10.727
 7647SOL    HW224839  10.482  10.763  10.604
 7648SOL     OW24840  14.119   8.583  11.764
 7648SOL    HW124841  14.155   8.651  11.706
 7648SOL    HW224842  14.032   8.615  11.787
 7649SOL     OW24843   6.287  12.488   2.854
 7649SOL    HW124844   6.340  12.483   2.933
 7649SOL    HW224845   6.350  12.506   2.784
 7650SOL     OW24846   4.286  14.713  14.746
 7650SOL    HW124847   4.221  14.753  14.804
 7650SOL    HW224848   4.369  14.750  14.775
 7651SOL     OW24849   1.517  11.634   0.310
 7651SOL    HW124850   1.494  11.693   0.239
 7651SOL    HW224851   1.446  11.570   0.312
 7652SOL     OW24852   0.399  14.609   8.007
 7652SOL    HW124853   0.443  14.537   8.052
 7652SOL    HW224854   0.429  14.688   8.053
 7653SOL     OW24855  12.332   2.200   1.709
 7653SOL    HW124856  12.373   2.133   1.763
 7653SOL    HW224857  12.351   2.282   1.755
 7654SOL     OW24858  12.274   0.394  14.500
 7654SOL    HW124859  12.259   0.489  14.497
 7654SOL    HW224860  12.187   0.356  14.495
 7655SOL     OW24861   4.479   1.212  11.314
 7655SOL    HW124862   4.448   1.143  11.255
 7655SOL    HW224863   4.573   1.197  11.322
 7656SOL     OW24864   4.032   2.586   9.387
 7656SOL    HW124865   3.985   2.598   9.470
 7656SOL    HW224866   4.046   2.675   9.354
 7657SOL     OW24867   9.867   9.358   9.241
 7657SOL    HW124868   9.787   9.358   9.292
 7657SOL    HW224869   9.886   9.266   9.225
 7658SOL     OW24870   4.848  12.151   6.270
 7658SOL    HW124871   4.863  12.201   6.190
 7658SOL    HW224872   4.851  12.215   6.340
 7659SOL     OW24873  12.512   6.366   2.708
 7659SOL    HW124874  12.473   6.288   2.668
 7659SOL    HW224875  12.440   6.430   2.709
 7660SOL     OW24876  14.859   9.694   0.351
 7660SOL    HW124877  14.839   9.773   0.300
 7660SOL    HW224878   0.038   9.727   0.425
 7661SOL     OW24879   4.151   5.212  14.822
 7661SOL    HW124880   4.156   5.173  14.736
 7661SOL    HW224881   4.237   5.198  14.861
 7662SOL     OW24882   8.666  11.951  12.224
 7662SOL    HW124883   8.692  11.971  12.134
 7662SOL    HW224884   8.576  11.984  12.230
 7663SOL     OW24885  13.078   7.751  14.411
 7663SOL    HW124886  13.135   7.828  14.403
 7663SOL    HW224887  13.026   7.768  14.490
 7664SOL     OW24888  12.668   2.640   6.826
 7664SOL    HW124889  12.622   2.596   6.897
 7664SOL    HW224890  12.600   2.658   6.761
 7665SOL     OW24891   3.569   4.473  13.963
 7665SOL    HW124892   3.597   4.561  13.939
 7665SOL    HW224893   3.522   4.484  14.046
 7666SOL     OW24894  13.372   5.210   9.820
 7666SOL    HW124895  13.362   5.268   9.895
 7666SOL    HW224896  13.292   5.157   9.820
 7667SOL     OW24897   8.372   5.620  13.398
 7667SOL    HW124898   8.386   5.714  13.403
 7667SOL    HW224899   8.337   5.605  13.310
 7668SOL     OW24900   8.008   4.880   5.564
 7668SOL    HW124901   7.938   4.928   5.520
 7668SOL    HW224902   7.970   4.855   5.648
 7669SOL     OW24903  13.111   6.389   2.633
 7669SOL    HW124904  13.060   6.459   2.592
 7669SOL    HW224905  13.047   6.340   2.684
 7670SOL     OW24906  11.899   2.366   0.871
 7670SOL    HW124907  11.984   2.322   0.877
 7670SOL    HW224908  11.920   2.456   0.846
 7671SOL     OW24909  13.409   0.703   5.637
 7671SOL    HW124910  13.319   0.731   5.622
 7671SOL    HW224911  13.433   0.742   5.721
 7672SOL     OW24912   2.170   6.048   4.528
 7672SOL    HW124913   2.097   6.106   4.507
 7672SOL    HW224914   2.223   6.098   4.590
 7673SOL     OW24915   5.466  11.546  11.887
 7673SOL    HW124916   5.388  11.602  11.883
 7673SOL    HW224917   5.538  11.604  11.863
 7674SOL     OW24918   1.583   3.523   1.399
 7674SOL    HW124919   1.676   3.535   1.378
 7674SOL    HW224920   1.564   3.432   1.375
 7675SOL     OW24921   3.784   1.778   9.540
 7675SOL    HW124922   3.717   1.715   9.565
 7675SOL    HW224923   3.736   1.854   9.509
 7676SOL     OW24924  12.327  11.105   1.993
 7676SOL    HW124925  12.365  11.061   2.069
 7676SOL    HW224926  12.403  11.139   1.945
 7677SOL     OW24927  13.397   9.400   8.524
 7677SOL    HW124928  13.412   9.479   8.472
 7677SOL    HW224929  13.421   9.425   8.613
 7678SOL     OW24930   4.012  10.724   4.242
 7678SOL    HW124931   3.998  10.630   4.259
 7678SOL    HW224932   3.924  10.761   4.239
 7679SOL     OW24933   5.365   4.400   7.180
 7679SOL    HW124934   5.337   4.425   7.268
 7679SOL    HW224935   5.461   4.401   7.184
 7680SOL     OW24936   0.018   9.395   2.357
 7680SOL    HW124937   0.032   9.301   2.351
 7680SOL    HW224938   0.099   9.434   2.324
 7681SOL     OW24939   1.102   4.286  11.565
 7681SOL    HW124940   1.157   4.209  11.548
 7681SOL    HW224941   1.161   4.350  11.604
 7682SOL     OW24942   3.235   9.104   5.614
 7682SOL    HW124943   3.177   9.093   5.690
 7682SOL    HW224944   3.291   9.178   5.637
 7683SOL     OW24945   4.180   5.881  11.736
 7683SOL    HW124946   4.207   5.870  11.645
 7683SOL    HW224947   4.257   5.858  11.787
 7684SOL     OW24948  10.009   4.528   1.793
 7684SOL    HW124949   9.945   4.488   1.735
 7684SOL    HW224950   9.956   4.580   1.854
 7685SOL     OW24951   2.294  12.109  14.056
 7685SOL    HW124952   2.362  12.125  14.122
 7685SOL    HW224953   2.241  12.189  14.056
 7686SOL     OW24954   2.512  11.711   8.285
 7686SOL    HW124955   2.471  11.793   8.315
 7686SOL    HW224956   2.536  11.665   8.365
 7687SOL     OW24957   8.193  12.957   3.133
 7687SOL    HW124958   8.125  12.936   3.070
 7687SOL    HW224959   8.194  12.883   3.194
 7688SOL     OW24960  13.186   4.581   0.307
 7688SOL    HW124961  13.196   4.522   0.232
 7688SOL    HW224962  13.272   4.579   0.350
 7689SOL     OW24963   7.345   9.570   2.346
 7689SOL    HW124964   7.322   9.651   2.390
 7689SOL    HW224965   7.284   9.505   2.381
 7690SOL     OW24966   4.199  14.366   2.819
 7690SOL    HW124967   4.198  14.288   2.763
 7690SOL    HW224968   4.124  14.417   2.789
 7691SOL     OW24969  11.104   2.774  12.044
 7691SOL    HW124970  11.015   2.806  12.061
 7691SOL    HW224971  11.111   2.693  12.094
 7692SOL     OW24972   5.639   7.200   6.332
 7692SOL    HW124973   5.611   7.112   6.309
 7692SOL    HW224974   5.730   7.204   6.303
 7693SOL     OW24975  14.142   4.804   5.644
 7693SOL    HW124976  14.168   4.794   5.735
 7693SOL    HW224977  14.210   4.760   5.594
 7694SOL     OW24978   8.767   3.622   3.483
 7694SOL    HW124979   8.844   3.640   3.430
 7694SOL    HW224980   8.786   3.538   3.525
 7695SOL     OW24981  14.239  11.426  11.022
 7695SOL    HW124982  14.202  11.482  11.090
 7695SOL    HW224983  14.232  11.478  10.941
 7696SOL     OW24984   8.053  11.530  13.698
 7696SOL    HW124985   8.129  11.561  13.649
 7696SOL    HW224986   8.029  11.603  13.754
 7697SOL     OW24987   4.396   2.972  10.493
 7697SOL    HW124988   4.364   2.907  10.431
 7697SOL    HW224989   4.368   3.056  10.457
 7698SOL     OW24990   6.146   3.229   5.951
 7698SOL    HW124991   6.086   3.156   5.968
 7698SOL    HW224992   6.158   3.270   6.037
 7699SOL     OW24993  13.943   1.036   4.948
 7699SOL    HW124994  13.934   1.021   5.042
 7699SOL    HW224995  14.020   0.986   4.923
 7700SOL     OW24996   7.544  10.724   6.777
 7700SOL    HW124997   7.591  10.765   6.849
 7700SOL    HW224998   7.604  10.658   6.743
 7701SOL     OW24999  10.436   8.758  11.147
 7701SOL    HW125000  10.456   8.754  11.054
 7701SOL    HW225001  10.441   8.667  11.176
 7702SOL     OW25002  12.549  14.739   0.350
 7702SOL    HW125003  12.470  14.705   0.306
 7702SOL    HW225004  12.523  14.747   0.442
 7703SOL     OW25005   1.883   5.856  12.147
 7703SOL    HW125006   1.827   5.924  12.108
 7703SOL    HW225007   1.907   5.892  12.233
 7704SOL     OW25008   0.594   3.697  10.509
 7704SOL    HW125009   0.541   3.775  10.525
 7704SOL    HW225010   0.580   3.677  10.417
 7705SOL     OW25011  14.774  13.157   0.542
 7705SOL    HW125012  14.731  13.242   0.540
 7705SOL    HW225013  14.746  13.114   0.461
 7706SOL     OW25014   1.809  10.614   6.674
 7706SOL    HW125015   1.750  10.689   6.679
 7706SOL    HW225016   1.886  10.640   6.726
 7707SOL     OW25017   2.791  12.311  10.978
 7707SOL    HW125018   2.755  12.223  10.963
 7707SOL    HW225019   2.843  12.329  10.899
 7708SOL     OW25020   0.540   0.715   6.706
 7708SOL    HW125021   0.592   0.688   6.782
 7708SOL    HW225022   0.450   0.691   6.729
 7709SOL     OW25023   7.791   2.526  13.756
 7709SOL    HW125024   7.740   2.460  13.804
 7709SOL    HW225025   7.772   2.507  13.664
 7710SOL     OW25026   2.343  12.348   6.836
 7710SOL    HW125027   2.342  12.317   6.745
 7710SOL    HW225028   2.402  12.423   6.836
 7711SOL     OW25029   7.061   6.974   0.733
 7711SOL    HW125030   7.054   6.900   0.673
 7711SOL    HW225031   7.060   7.051   0.676
 7712SOL     OW25032   8.611   4.583   5.409
 7712SOL    HW125033   8.527   4.619   5.438
 7712SOL    HW225034   8.617   4.499   5.454
 7713SOL     OW25035   5.414   7.589   3.193
 7713SOL    HW125036   5.361   7.665   3.172
 7713SOL    HW225037   5.501   7.609   3.157
 7714SOL     OW25038   0.848  14.254   0.803
 7714SOL    HW125039   0.855  14.241   0.898
 7714SOL    HW225040   0.811  14.342   0.794
 7715SOL     OW25041  13.628   4.942   1.753
 7715SOL    HW125042  13.599   5.033   1.746
 7715SOL    HW225043  13.618   4.921   1.846
 7716SOL     OW25044   2.644  13.321  10.336
 7716SOL    HW125045   2.638  13.256  10.266
 7716SOL    HW225046   2.716  13.290  10.391
 7717SOL     OW25047   2.737   4.980  14.728
 7717SOL    HW125048   2.758   5.031  14.650
 7717SOL    HW225049   2.737   5.044  14.799
 7718SOL     OW25050   6.774  13.714   1.446
 7718SOL    HW125051   6.691  13.716   1.495
 7718SOL    HW225052   6.753  13.756   1.363
 7719SOL     OW25053   8.444   3.852   5.135
 7719SOL    HW125054   8.398   3.922   5.181
 7719SOL    HW225055   8.409   3.771   5.174
 7720SOL     OW25056   3.857   5.323   1.339
 7720SOL    HW125057   3.828   5.398   1.392
 7720SOL    HW225058   3.851   5.248   1.397
 7721SOL     OW25059   9.727  12.428  13.114
 7721SOL    HW125060   9.712  12.378  13.033
 7721SOL    HW225061   9.641  12.432  13.155
 7722SOL     OW25062   7.162  14.772   4.302
 7722SOL    HW125063   7.220  14.696   4.306
 7722SOL    HW225064   7.106  14.764   4.379
 7723SOL     OW25065   0.447   8.949   6.886
 7723SOL    HW125066   0.534   8.989   6.895
 7723SOL    HW225067   0.394   9.016   6.843
 7724SOL     OW25068   1.206  11.034  12.752
 7724SOL    HW125069   1.267  10.997  12.688
 7724SOL    HW225070   1.187  11.122  12.719
 7725SOL     OW25071   5.999   2.640  14.266
 7725SOL    HW125072   5.939   2.674  14.199
 7725SOL    HW225073   6.007   2.547  14.246
 7726SOL     OW25074   0.948  11.289   9.782
 7726SOL    HW125075   0.907  11.203   9.783
 7726SOL    HW225076   1.004  11.291   9.859
 7727SOL     OW25077  10.582  10.338   4.277
 7727SOL    HW125078  10.495  10.308   4.251
 7727SOL    HW225079  10.574  10.433   4.283
 7728SOL     OW25080   1.933   7.641   9.877
 7728SOL    HW125081   1.843   7.671   9.886
 7728SOL    HW225082   1.964   7.630   9.967
 7729SOL     OW25083   3.063  12.972   2.337
 7729SOL    HW125084   2.975  13.010   2.338
 7729SOL    HW225085   3.049  12.879   2.320
 7730SOL     OW25086   2.647   7.315   9.117
 7730SOL    HW125087   2.685   7.228   9.105
 7730SOL    HW225088   2.598   7.308   9.199
 7731SOL     OW25089   4.074   5.618  13.981
 7731SOL    HW125090   4.100   5.598  13.891
 7731SOL    HW225091   4.033   5.537  14.012
 7732SOL     OW25092   6.152  12.553  13.756
 7732SOL    HW125093   6.118  12.621  13.698
 7732SOL    HW225094   6.081  12.536  13.818
 7733SOL     OW25095  13.619   9.016   8.996
 7733SOL    HW125096  13.541   8.974   8.959
 7733SOL    HW225097  13.649   8.954   9.062
 7734SOL     OW25098   1.807  11.346  10.924
 7734SOL    HW125099   1.843  11.431  10.901
 7734SOL    HW225100   1.863  11.314  10.995
 7735SOL     OW25101   7.246   8.470  10.944
 7735SOL    HW125102   7.206   8.438  10.864
 7735SOL    HW225103   7.338   8.485  10.921
 7736SOL     OW25104  11.119   1.143   6.067
 7736SOL    HW125105  11.143   1.219   6.013
 7736SOL    HW225106  11.164   1.158   6.150
 7737SOL     OW25107  10.579   9.177   7.456
 7737SOL    HW125108  10.575   9.084   7.478
 7737SOL    HW225109  10.503   9.215   7.500
 7738SOL     OW25110   8.858   6.046   2.529
 7738SOL    HW125111   8.953   6.050   2.518
 7738SOL    HW225112   8.831   5.971   2.475
 7739SOL     OW25113   4.717   9.042  12.426
 7739SOL    HW125114   4.808   9.015  12.440
 7739SOL    HW225115   4.721   9.137  12.417
 7740SOL     OW25116   5.562  12.706   2.525
 7740SOL    HW125117   5.642  12.655   2.538
 7740SOL    HW225118   5.592  12.797   2.521
 7741SOL     OW25119   4.091   5.735   9.435
 7741SOL    HW125120   4.097   5.681   9.514
 7741SOL    HW225121   4.141   5.814   9.457
 7742SOL     OW25122   1.163   6.240  11.877
 7742SOL    HW125123   1.256   6.219  11.881
 7742SOL    HW225124   1.119   6.156  11.881
 7743SOL     OW25125   1.750   1.901   1.688
 7743SOL    HW125126   1.740   1.813   1.723
 7743SOL    HW225127   1.699   1.957   1.746
 7744SOL     OW25128   4.067   5.398  14.141
 7744SOL    HW125129   4.072   5.305  14.118
 7744SOL    HW225130   4.027   5.399  14.228
 7745SOL     OW25131   5.929   9.284   0.725
 7745SOL    HW125132   5.841   9.320   0.717
 7745SOL    HW225133   5.933   9.251   0.815
 7746SOL     OW25134   6.079   6.894   1.356
 7746SOL    HW125135   6.124   6.960   1.409
 7746SOL    HW225136   5.987   6.901   1.382
 7747SOL     OW25137  10.851  14.459   7.256
 7747SOL    HW125138  10.940  14.493   7.265
 7747SOL    HW225139  10.818  14.453   7.346
 7748SOL     OW25140  13.077  13.828   6.649
 7748SOL    HW125141  13.021  13.891   6.603
 7748SOL    HW225142  13.113  13.878   6.723
 7749SOL     OW25143  12.055   0.873   1.870
 7749SOL    HW125144  12.033   0.939   1.805
 7749SOL    HW225145  12.005   0.898   1.948
 7750SOL     OW25146   5.519  14.195   7.918
 7750SOL    HW125147   5.432  14.216   7.952
 7750SOL    HW225148   5.508  14.195   7.823
 7751SOL     OW25149   8.722   7.724   0.977
 7751SOL    HW125150   8.791   7.739   1.042
 7751SOL    HW225151   8.769   7.715   0.894
 7752SOL     OW25152   4.720  12.027   7.303
 7752SOL    HW125153   4.719  11.931   7.304
 7752SOL    HW225154   4.764  12.050   7.222
 7753SOL     OW25155  12.325  11.114  14.854
 7753SOL    HW125156  12.385  11.051  14.814
 7753SOL    HW225157  12.335  11.101   0.076
 7754SOL     OW25158  14.603   5.782   0.642
 7754SOL    HW125159  14.663   5.713   0.670
 7754SOL    HW225160  14.660   5.854   0.614
 7755SOL     OW25161   6.998  13.513  11.022
 7755SOL    HW125162   6.917  13.539  11.065
 7755SOL    HW225163   7.056  13.588  11.035
 7756SOL     OW25164  10.604   2.679  10.530
 7756SOL    HW125165  10.670   2.615  10.558
 7756SOL    HW225166  10.528   2.661  10.586
 7757SOL     OW25167   9.894  12.635   6.100
 7757SOL    HW125168   9.800  12.642   6.117
 7757SOL    HW225169   9.925  12.568   6.161
 7758SOL     OW25170   6.266  12.580   0.754
 7758SOL    HW125171   6.220  12.612   0.676
 7758SOL    HW225172   6.341  12.531   0.719
 7759SOL     OW25173  10.390   2.689   5.619
 7759SOL    HW125174  10.387   2.705   5.525
 7759SOL    HW225175  10.332   2.614   5.632
 7760SOL     OW25176   6.062   1.689  13.408
 7760SOL    HW125177   6.156   1.697  13.425
 7760SOL    HW225178   6.021   1.694  13.495
 7761SOL     OW25179   9.212  11.489   0.124
 7761SOL    HW125180   9.280  11.555   0.111
 7761SOL    HW225181   9.141  11.516   0.065
 7762SOL     OW25182   5.610   4.793  10.008
 7762SOL    HW125183   5.600   4.730   9.937
 7762SOL    HW225184   5.527   4.790  10.055
 7763SOL     OW25185   2.849  10.771  12.084
 7763SOL    HW125186   2.815  10.700  12.029
 7763SOL    HW225187   2.940  10.746  12.102
 7764SOL     OW25188   2.357   0.186   5.419
 7764SOL    HW125189   2.371   0.195   5.513
 7764SOL    HW225190   2.293   0.115   5.411
 7765SOL     OW25191   1.523  14.095   9.554
 7765SOL    HW125192   1.446  14.137   9.516
 7765SOL    HW225193   1.511  14.103   9.648
 7766SOL     OW25194   8.468  12.662   2.622
 7766SOL    HW125195   8.398  12.694   2.680
 7766SOL    HW225196   8.489  12.575   2.655
 7767SOL     OW25197  11.093   0.065   1.577
 7767SOL    HW125198  11.120   0.037   1.664
 7767SOL    HW225199  11.150   0.016   1.517
 7768SOL     OW25200   3.758  10.632  14.037
 7768SOL    HW125201   3.845  10.628  13.997
 7768SOL    HW225202   3.697  10.627  13.964
 7769SOL     OW25203   5.636   8.704   4.474
 7769SOL    HW125204   5.572   8.672   4.537
 7769SOL    HW225205   5.671   8.625   4.433
 7770SOL     OW25206   4.250   1.252  13.021
 7770SOL    HW125207   4.249   1.242  12.926
 7770SOL    HW225208   4.213   1.170  13.054
 7771SOL     OW25209  10.993   0.916  13.260
 7771SOL    HW125210  11.009   1.010  13.255
 7771SOL    HW225211  10.911   0.908  13.310
 7772SOL     OW25212  10.909   5.090   8.474
 7772SOL    HW125213  10.936   5.044   8.553
 7772SOL    HW225214  10.819   5.063   8.459
 7773SOL     OW25215   1.467   0.585   2.130
 7773SOL    HW125216   1.373   0.567   2.129
 7773SOL    HW225217   1.507   0.504   2.097
 7774SOL     OW25218   1.102  14.766   8.896
 7774SOL    HW125219   1.105  14.828   8.824
 7774SOL    HW225220   1.051  14.810   8.964
 7775SOL     OW25221   1.219  13.529   5.984
 7775SOL    HW125222   1.243  13.621   5.996
 7775SOL    HW225223   1.250  13.486   6.064
 7776SOL     OW25224   3.873   9.231  14.849
 7776SOL    HW125225   3.810   9.169  14.813
 7776SOL    HW225226   3.825   9.280   0.043
 7777SOL     OW25227   3.643   2.669  12.730
 7777SOL    HW125228   3.595   2.729  12.787
 7777SOL    HW225229   3.589   2.662  12.652
 7778SOL     OW25230  14.705  11.307   3.258
 7778SOL    HW125231  14.694  11.395   3.221
 7778SOL    HW225232  14.792  11.308   3.298
 7779SOL     OW25233  13.697   0.925  14.161
 7779SOL    HW125234  13.641   1.003  14.161
 7779SOL    HW225235  13.649   0.861  14.214
 7780SOL     OW25236  11.471  12.388   0.124
 7780SOL    HW125237  11.488  12.339   0.043
 7780SOL    HW225238  11.557  12.400   0.164
 7781SOL     OW25239   1.743   2.453   4.074
 7781SOL    HW125240   1.796   2.383   4.036
 7781SOL    HW225241   1.657   2.413   4.087
 7782SOL     OW25242   7.254   5.002  11.778
 7782SOL    HW125243   7.348   4.986  11.778
 7782SOL    HW225244   7.216   4.917  11.754
 7783SOL     OW25245  13.909   4.194   5.091
 7783SOL    HW125246  13.869   4.276   5.118
 7783SOL    HW225247  14.003   4.210   5.095
 7784SOL     OW25248  13.095   1.552   5.425
 7784SOL    HW125249  13.092   1.646   5.446
 7784SOL    HW225250  13.064   1.509   5.505
 7785SOL     OW25251   8.502   7.369   1.417
 7785SOL    HW125252   8.570   7.421   1.375
 7785SOL    HW225253   8.449   7.336   1.344
 7786SOL     OW25254   7.648  10.454  11.475
 7786SOL    HW125255   7.571  10.416  11.433
 7786SOL    HW225256   7.676  10.524  11.416
 7787SOL     OW25257   8.526   5.076   2.417
 7787SOL    HW125258   8.517   5.060   2.511
 7787SOL    HW225259   8.520   4.989   2.377
 7788SOL     OW25260  13.071   7.435  14.573
 7788SOL    HW125261  13.156   7.451  14.614
 7788SOL    HW225262  13.014   7.504  14.607
 7789SOL     OW25263   0.914   9.158   2.895
 7789SOL    HW125264   0.839   9.121   2.847
 7789SOL    HW225265   0.986   9.098   2.876
 7790SOL     OW25266   1.043   5.912  11.217
 7790SOL    HW125267   1.106   5.973  11.257
 7790SOL    HW225268   0.962   5.927  11.266
 7791SOL     OW25269   3.927  13.514  10.657
 7791SOL    HW125270   3.874  13.484  10.730
 7791SOL    HW225271   3.864  13.550  10.594
 7792SOL     OW25272   6.649   7.928   5.760
 7792SOL    HW125273   6.670   7.840   5.730
 7792SOL    HW225274   6.602   7.969   5.687
 7793SOL     OW25275  11.489   4.820   9.125
 7793SOL    HW125276  11.524   4.782   9.205
 7793SOL    HW225277  11.485   4.914   9.143
 7794SOL     OW25278  14.136   1.328   1.455
 7794SOL    HW125279  14.102   1.242   1.431
 7794SOL    HW225280  14.078   1.390   1.410
 7795SOL     OW25281   4.721   7.721  14.135
 7795SOL    HW125282   4.798   7.698  14.188
 7795SOL    HW225283   4.749   7.705  14.045
 7796SOL     OW25284  13.613   0.602   6.934
 7796SOL    HW125285  13.547   0.648   6.987
 7796SOL    HW225286  13.696   0.641   6.960
 7797SOL     OW25287   6.901  13.425   1.058
 7797SOL    HW125288   6.929  13.482   1.129
 7797SOL    HW225289   6.895  13.338   1.097
 7798SOL     OW25290  14.642   7.626   3.433
 7798SOL    HW125291  14.620   7.682   3.358
 7798SOL    HW225292  14.735   7.608   3.423
 7799SOL     OW25293   7.386   3.673   0.035
 7799SOL    HW125294   7.372   3.755  14.859
 7799SOL    HW225295   7.334   3.608  14.859
 7800SOL     OW25296   4.706  14.648   9.010
 7800SOL    HW125297   4.727  14.615   8.922
 7800SOL    HW225298   4.790  14.681   9.043
 7801SOL     OW25299   0.626  10.038   8.528
 7801SOL    HW125300   0.670  10.122   8.536
 7801SOL    HW225301   0.544  10.049   8.578
 7802SOL     OW25302   1.759   0.597  10.161
 7802SOL    HW125303   1.725   0.572  10.075
 7802SOL    HW225304   1.853   0.605  10.149
 7803SOL     OW25305   0.926   9.386   1.187
 7803SOL    HW125306   0.899   9.373   1.277
 7803SOL    HW225307   0.874   9.324   1.137
 7804SOL     OW25308  14.840   5.064  10.983
 7804SOL    HW125309  14.815   5.157  10.989
 7804SOL    HW225310   0.036   5.063  10.914
 7805SOL     OW25311  10.559  12.328  10.901
 7805SOL    HW125312  10.477  12.287  10.871
 7805SOL    HW225313  10.591  12.375  10.825
 7806SOL     OW25314   0.724   7.498  14.548
 7806SOL    HW125315   0.740   7.510  14.454
 7806SOL    HW225316   0.797   7.544  14.590
 7807SOL     OW25317   6.683   2.660  11.902
 7807SOL    HW125318   6.617   2.712  11.856
 7807SOL    HW225319   6.632   2.604  11.960
 7808SOL     OW25320   3.742   9.564  11.850
 7808SOL    HW125321   3.705   9.596  11.932
 7808SOL    HW225322   3.809   9.501  11.877
 7809SOL     OW25323   6.860   4.826  10.776
 7809SOL    HW125324   6.897   4.847  10.861
 7809SOL    HW225325   6.879   4.733  10.763
 7810SOL     OW25326  10.917   8.698   9.076
 7810SOL    HW125327  10.988   8.651   9.121
 7810SOL    HW225328  10.852   8.631   9.058
 7811SOL     OW25329   4.099   3.313  13.801
 7811SOL    HW125330   4.026   3.251  13.802
 7811SOL    HW225331   4.145   3.295  13.720
 7812SOL     OW25332   0.891  10.842  14.662
 7812SOL    HW125333   0.814  10.811  14.614
 7812SOL    HW225334   0.858  10.914  14.716
 7813SOL     OW25335  11.516   9.039   1.859
 7813SOL    HW125336  11.430   9.023   1.821
 7813SOL    HW225337  11.574   9.050   1.784
 7814SOL     OW25338   9.592   6.434  14.511
 7814SOL    HW125339   9.529   6.369  14.541
 7814SOL    HW225340   9.543   6.489  14.449
 7815SOL     OW25341   9.088  11.483  10.487
 7815SOL    HW125342   9.040  11.400  10.484
 7815SOL    HW225343   9.037  11.541  10.430
 7816SOL     OW25344   3.244   7.247   9.460
 7816SOL    HW125345   3.156   7.211   9.454
 7816SOL    HW225346   3.263   7.280   9.372
 7817SOL     OW25347   8.359   9.878   7.060
 7817SOL    HW125348   8.446   9.862   7.095
 7817SOL    HW225349   8.369   9.958   7.008
 7818SOL     OW25350  12.928   9.632  11.990
 7818SOL    HW125351  12.956   9.653  11.901
 7818SOL    HW225352  12.889   9.713  12.023
 7819SOL     OW25353  14.374   1.185   4.364
 7819SOL    HW125354  14.282   1.207   4.377
 7819SOL    HW225355  14.407   1.253   4.305
 7820SOL     OW25356   3.112   6.861   4.337
 7820SOL    HW125357   3.207   6.864   4.326
 7820SOL    HW225358   3.093   6.927   4.404
 7821SOL     OW25359   5.799   9.404   0.226
 7821SOL    HW125360   5.827   9.344   0.157
 7821SOL    HW225361   5.716   9.368   0.257
 7822SOL     OW25362   1.465   1.043  13.766
 7822SOL    HW125363   1.398   0.980  13.791
 7822SOL    HW225364   1.497   1.012  13.681
 7823SOL     OW25365   3.242   5.120   7.161
 7823SOL    HW125366   3.264   5.211   7.182
 7823SOL    HW225367   3.217   5.122   7.069
 7824SOL     OW25368   5.266  13.643   6.086
 7824SOL    HW125369   5.302  13.654   5.997
 7824SOL    HW225370   5.241  13.551   6.090
 7825SOL     OW25371   9.889   5.570  13.547
 7825SOL    HW125372   9.982   5.577  13.525
 7825SOL    HW225373   9.887   5.520  13.628
 7826SOL     OW25374   5.523   5.643   9.264
 7826SOL    HW125375   5.458   5.612   9.327
 7826SOL    HW225376   5.513   5.585   9.189
 7827SOL     OW25377  13.901   2.287   4.875
 7827SOL    HW125378  13.912   2.266   4.782
 7827SOL    HW225379  13.814   2.328   4.879
 7828SOL     OW25380   8.389  10.576  12.065
 7828SOL    HW125381   8.325  10.506  12.048
 7828SOL    HW225382   8.340  10.641  12.116
 7829SOL     OW25383   5.759   9.195   2.653
 7829SOL    HW125384   5.834   9.253   2.670
 7829SOL    HW225385   5.795   9.124   2.601
 7830SOL     OW25386  13.968   3.675  11.231
 7830SOL    HW125387  14.025   3.704  11.302
 7830SOL    HW225388  13.993   3.730  11.157
 7831SOL     OW25389   4.395   8.596   4.520
 7831SOL    HW125390   4.350   8.672   4.483
 7831SOL    HW225391   4.346   8.577   4.600
 7832SOL     OW25392   9.649   1.516   4.051
 7832SOL    HW125393   9.665   1.469   3.969
 7832SOL    HW225394   9.599   1.454   4.105
 7833SOL     OW25395   7.689   0.427   8.786
 7833SOL    HW125396   7.710   0.387   8.702
 7833SOL    HW225397   7.747   0.503   8.792
 7834SOL     OW25398   4.595  13.725   1.173
 7834SOL    HW125399   4.662  13.759   1.232
 7834SOL    HW225400   4.536  13.799   1.159
 7835SOL     OW25401   6.493   9.845   4.322
 7835SOL    HW125402   6.411   9.887   4.346
 7835SOL    HW225403   6.558   9.916   4.327
 7836SOL     OW25404  12.280  14.558   8.330
 7836SOL    HW125405  12.190  14.542   8.303
 7836SOL    HW225406  12.322  14.597   8.254
 7837SOL     OW25407   0.579   7.391   2.640
 7837SOL    HW125408   0.659   7.413   2.592
 7837SOL    HW225409   0.582   7.295   2.647
 7838SOL     OW25410   2.145   4.505  10.491
 7838SOL    HW125411   2.128   4.581  10.434
 7838SOL    HW225412   2.060   4.463  10.501
 7839SOL     OW25413  12.145   1.876   6.941
 7839SOL    HW125414  12.117   1.822   6.867
 7839SOL    HW225415  12.202   1.819   6.992
 7840SOL     OW25416  13.635  12.016  13.234
 7840SOL    HW125417  13.688  11.968  13.170
 7840SOL    HW225418  13.549  12.023  13.193
 7841SOL     OW25419   2.472   0.793   9.124
 7841SOL    HW125420   2.389   0.746   9.132
 7841SOL    HW225421   2.525   0.761   9.198
 7842SOL     OW25422   6.351   6.324   0.865
 7842SOL    HW125423   6.389   6.257   0.921
 7842SOL    HW225424   6.327   6.278   0.784
 7843SOL     OW25425  11.330   6.264   4.722
 7843SOL    HW125426  11.370   6.310   4.648
 7843SOL    HW225427  11.249   6.312   4.740
 7844SOL     OW25428   8.306   2.303   8.068
 7844SOL    HW125429   8.223   2.274   8.029
 7844SOL    HW225430   8.347   2.356   8.000
 7845SOL     OW25431   9.650  13.470  10.849
 7845SOL    HW125432   9.667  13.481  10.942
 7845SOL    HW225433   9.718  13.408  10.820
 7846SOL     OW25434   2.188   8.689   0.384
 7846SOL    HW125435   2.112   8.664   0.330
 7846SOL    HW225436   2.260   8.696   0.321
 7847SOL     OW25437  11.483  14.697   0.614
 7847SOL    HW125438  11.438  14.707   0.699
 7847SOL    HW225439  11.548  14.628   0.630
 7848SOL     OW25440  12.360  11.459   3.184
 7848SOL    HW125441  12.446  11.422   3.202
 7848SOL    HW225442  12.373  11.553   3.190
 7849SOL     OW25443   1.455  13.998   1.387
 7849SOL    HW125444   1.371  14.035   1.360
 7849SOL    HW225445   1.520  14.051   1.342
 7850SOL     OW25446   1.198  14.654   3.506
 7850SOL    HW125447   1.204  14.563   3.476
 7850SOL    HW225448   1.133  14.694   3.448
 7851SOL     OW25449   3.063   6.134  11.539
 7851SOL    HW125450   3.080   6.086  11.458
 7851SOL    HW225451   3.023   6.216  11.509
 7852SOL     OW25452   9.589   8.099   3.659
 7852SOL    HW125453   9.535   8.061   3.730
 7852SOL    HW225454   9.632   8.024   3.620
 7853SOL     OW25455   5.922   2.591  13.483
 7853SOL    HW125456   5.959   2.503  13.487
 7853SOL    HW225457   5.827   2.577  13.475
 7854SOL     OW25458   4.625   5.252   9.793
 7854SOL    HW125459   4.584   5.211   9.869
 7854SOL    HW225460   4.646   5.341   9.823
 7855SOL     OW25461   5.849   2.636   7.977
 7855SOL    HW125462   5.845   2.691   7.899
 7855SOL    HW225463   5.794   2.561   7.956
 7856SOL     OW25464  13.891   7.684  13.331
 7856SOL    HW125465  13.824   7.752  13.337
 7856SOL    HW225466  13.895   7.662  13.238
 7857SOL     OW25467   0.338   3.598  10.746
 7857SOL    HW125468   0.301   3.573  10.662
 7857SOL    HW225469   0.272   3.573  10.810
 7858SOL     OW25470   5.552  12.817   7.862
 7858SOL    HW125471   5.549  12.858   7.776
 7858SOL    HW225472   5.616  12.869   7.911
 7859SOL     OW25473  13.280   9.153   8.877
 7859SOL    HW125474  13.269   9.196   8.961
 7859SOL    HW225475  13.194   9.113   8.859
 7860SOL     OW25476  12.448   2.447   9.450
 7860SOL    HW125477  12.393   2.522   9.425
 7860SOL    HW225478  12.519   2.486   9.501
 7861SOL     OW25479   6.477  14.467   9.001
 7861SOL    HW125480   6.572  14.468   9.010
 7861SOL    HW225481   6.455  14.376   8.983
 7862SOL     OW25482  12.003   6.012  11.872
 7862SOL    HW125483  12.071   5.972  11.927
 7862SOL    HW225484  12.031   6.102  11.860
 7863SOL     OW25485   2.416  10.160   0.229
 7863SOL    HW125486   2.397  10.206   0.148
 7863SOL    HW225487   2.367  10.078   0.223
 7864SOL     OW25488   4.262   1.408   2.956
 7864SOL    HW125489   4.325   1.362   2.899
 7864SOL    HW225490   4.180   1.406   2.906
 7865SOL     OW25491   2.718   2.583  11.044
 7865SOL    HW125492   2.807   2.615  11.035
 7865SOL    HW225493   2.724   2.512  11.108
 7866SOL     OW25494   1.551  12.721   3.706
 7866SOL    HW125495   1.554  12.816   3.706
 7866SOL    HW225496   1.494  12.698   3.779
 7867SOL     OW25497   4.789  11.738  10.278
 7867SOL    HW125498   4.870  11.707  10.318
 7867SOL    HW225499   4.722  11.722  10.344
 7868SOL     OW25500   9.875   5.861   8.264
 7868SOL    HW125501   9.888   5.838   8.172
 7868SOL    HW225502   9.905   5.952   8.270
 7869SOL     OW25503  10.567   9.573   0.463
 7869SOL    HW125504  10.559   9.485   0.426
 7869SOL    HW225505  10.613   9.560   0.546
 7870SOL     OW25506   7.568   3.182  11.554
 7870SOL    HW125507   7.481   3.221  11.541
 7870SOL    HW225508   7.566   3.146  11.642
 7871SOL     OW25509  11.515  14.602   3.136
 7871SOL    HW125510  11.475  14.578   3.052
 7871SOL    HW225511  11.452  14.660   3.178
 7872SOL     OW25512   7.084   0.769  10.785
 7872SOL    HW125513   7.138   0.793  10.710
 7872SOL    HW225514   7.131   0.697  10.826
 7873SOL     OW25515   8.345   2.161   6.046
 7873SOL    HW125516   8.403   2.090   6.016
 7873SOL    HW225517   8.404   2.234   6.063
 7874SOL     OW25518  13.054   4.593   8.157
 7874SOL    HW125519  13.045   4.606   8.251
 7874SOL    HW225520  13.128   4.533   8.148
 7875SOL     OW25521   2.656   0.125   9.056
 7875SOL    HW125522   2.578   0.083   9.092
 7875SOL    HW225523   2.625   0.169   8.977
 7876SOL     OW25524   4.243  11.634   3.583
 7876SOL    HW125525   4.323  11.653   3.632
 7876SOL    HW225526   4.258  11.673   3.497
 7877SOL     OW25527   7.754   5.524   1.746
 7877SOL    HW125528   7.777   5.583   1.818
 7877SOL    HW225529   7.698   5.576   1.688
 7878SOL     OW25530  12.882   4.526   0.713
 7878SOL    HW125531  12.962   4.507   0.665
 7878SOL    HW225532  12.908   4.523   0.805
 7879SOL     OW25533   1.644   5.725   6.249
 7879SOL    HW125534   1.730   5.717   6.290
 7879SOL    HW225535   1.609   5.636   6.247
 7880SOL     OW25536  13.329  13.908   1.514
 7880SOL    HW125537  13.345  13.987   1.566
 7880SOL    HW225538  13.361  13.931   1.426
 7881SOL     OW25539   9.505   1.571  13.239
 7881SOL    HW125540   9.558   1.565  13.319
 7881SOL    HW225541   9.569   1.578  13.168
 7882SOL     OW25542  12.479   3.178  14.549
 7882SOL    HW125543  12.414   3.172  14.479
 7882SOL    HW225544  12.476   3.093  14.593
 7883SOL     OW25545   9.830   8.069   6.825
 7883SOL    HW125546   9.827   8.100   6.735
 7883SOL    HW225547   9.808   7.976   6.820
 7884SOL     OW25548   7.475   2.719  13.045
 7884SOL    HW125549   7.430   2.637  13.064
 7884SOL    HW225550   7.461   2.733  12.951
 7885SOL     OW25551  14.808   1.895   7.396
 7885SOL    HW125552  14.787   1.955   7.325
 7885SOL    HW225553  14.731   1.840   7.405
 7886SOL     OW25554   1.850   0.608   6.530
 7886SOL    HW125555   1.821   0.692   6.564
 7886SOL    HW225556   1.869   0.555   6.608
 7887SOL     OW25557   0.940  13.498   3.238
 7887SOL    HW125558   1.007  13.439   3.204
 7887SOL    HW225559   0.985  13.547   3.308
 7888SOL     OW25560   2.354   6.467  14.707
 7888SOL    HW125561   2.446   6.457  14.681
 7888SOL    HW225562   2.313   6.515  14.635
 7889SOL     OW25563   1.283   0.159   0.829
 7889SOL    HW125564   1.234   0.080   0.808
 7889SOL    HW225565   1.245   0.226   0.772
 7890SOL     OW25566  10.248   1.238  11.310
 7890SOL    HW125567  10.200   1.303  11.361
 7890SOL    HW225568  10.208   1.155  11.335
 7891SOL     OW25569  14.414   0.885  12.962
 7891SOL    HW125570  14.504   0.919  12.972
 7891SOL    HW225571  14.397   0.889  12.868
 7892SOL     OW25572  11.863   8.940  13.779
 7892SOL    HW125573  11.896   8.934  13.690
 7892SOL    HW225574  11.880   9.031  13.806
 7893SOL     OW25575   9.956  11.169   9.737
 7893SOL    HW125576   9.927  11.201   9.822
 7893SOL    HW225577   9.877  11.162   9.685
 7894SOL     OW25578   3.127   6.325   0.101
 7894SOL    HW125579   3.205   6.291   0.145
 7894SOL    HW225580   3.131   6.419   0.114
 7895SOL     OW25581  10.428  13.285  12.845
 7895SOL    HW125582  10.401  13.377  12.840
 7895SOL    HW225583  10.433  13.256  12.754
 7896SOL     OW25584   1.211   9.114   1.080
 7896SOL    HW125585   1.234   9.199   1.044
 7896SOL    HW225586   1.293   9.080   1.115
 7897SOL     OW25587  14.703   6.058   5.463
 7897SOL    HW125588  14.617   6.074   5.423
 7897SOL    HW225589  14.696   5.969   5.499
 7898SOL     OW25590   8.441  13.483   6.625
 7898SOL    HW125591   8.418  13.391   6.608
 7898SOL    HW225592   8.472  13.484   6.715
 7899SOL     OW25593   1.826  11.635  13.431
 7899SOL    HW125594   1.776  11.658  13.353
 7899SOL    HW225595   1.781  11.558  13.467
 7900SOL     OW25596   8.356   5.945   9.019
 7900SOL    HW125597   8.405   5.975   9.095
 7900SOL    HW225598   8.392   5.859   8.999
 7901SOL     OW25599   2.016  11.628  11.881
 7901SOL    HW125600   2.091  11.568  11.886
 7901SOL    HW225601   1.979  11.626  11.969
 7902SOL     OW25602   5.093   4.651   6.646
 7902SOL    HW125603   5.158   4.702   6.599
 7902SOL    HW225604   5.138   4.570   6.670
 7903SOL     OW25605   0.886   4.946   8.015
 7903SOL    HW125606   0.958   5.005   7.993
 7903SOL    HW225607   0.917   4.900   8.094
 7904SOL     OW25608  10.650   3.456   0.763
 7904SOL    HW125609  10.570   3.404   0.762
 7904SOL    HW225610  10.658   3.490   0.674
 7905SOL     OW25611  12.827   2.440  11.010
 7905SOL    HW125612  12.788   2.480  10.933
 7905SOL    HW225613  12.836   2.512  11.073
 7906SOL     OW25614  13.716   3.958   8.101
 7906SOL    HW125615  13.644   3.980   8.160
 7906SOL    HW225616  13.679   3.964   8.013
 7907SOL     OW25617   5.895   3.552   7.863
 7907SOL    HW125618   5.898   3.570   7.956
 7907SOL    HW225619   5.803   3.531   7.845
 7908SOL     OW25620   2.734  13.489   5.383
 7908SOL    HW125621   2.762  13.572   5.345
 7908SOL    HW225622   2.813  13.435   5.385
 7909SOL     OW25623  11.154  10.982   4.599
 7909SOL    HW125624  11.215  11.038   4.550
 7909SOL    HW225625  11.155  11.017   4.688
 7910SOL     OW25626  10.332   7.328   5.984
 7910SOL    HW125627  10.274   7.293   5.916
 7910SOL    HW225628  10.377   7.401   5.941
 7911SOL     OW25629   8.947   2.860   2.043
 7911SOL    HW125630   8.996   2.779   2.054
 7911SOL    HW225631   8.974   2.893   1.957
 7912SOL     OW25632   9.590   9.408  10.475
 7912SOL    HW125633   9.501   9.379  10.453
 7912SOL    HW225634   9.582   9.441  10.565
 7913SOL     OW25635  12.662   5.128  12.631
 7913SOL    HW125636  12.570   5.152  12.620
 7913SOL    HW225637  12.694   5.184  12.701
 7914SOL     OW25638  10.491  13.181  10.916
 7914SOL    HW125639  10.539  13.099  10.912
 7914SOL    HW225640  10.494  13.206  11.009
 7915SOL     OW25641   2.981   0.049   6.646
 7915SOL    HW125642   2.984   0.125   6.705
 7915SOL    HW225643   2.945   0.084   6.564
 7916SOL     OW25644   0.698   1.704   0.399
 7916SOL    HW125645   0.772   1.643   0.390
 7916SOL    HW225646   0.662   1.685   0.485
 7917SOL     OW25647  13.464  10.972  11.749
 7917SOL    HW125648  13.544  10.961  11.800
 7917SOL    HW225649  13.401  11.009  11.811
 7918SOL     OW25650   9.973   6.297  10.937
 7918SOL    HW125651   9.988   6.296  11.032
 7918SOL    HW225652   9.883   6.327  10.926
 7919SOL     OW25653   8.184  12.031  10.167
 7919SOL    HW125654   8.093  12.043  10.194
 7919SOL    HW225655   8.215  11.955  10.217
 7920SOL     OW25656   0.868  12.029   2.202
 7920SOL    HW125657   0.958  12.050   2.177
 7920SOL    HW225658   0.857  12.066   2.289
 7921SOL     OW25659  12.977  12.205   9.779
 7921SOL    HW125660  12.948  12.139   9.842
 7921SOL    HW225661  12.923  12.189   9.701
 7922SOL     OW25662   0.525  11.988   3.423
 7922SOL    HW125663   0.595  12.051   3.438
 7922SOL    HW225664   0.461  12.034   3.369
 7923SOL     OW25665   9.520  14.574   9.603
 7923SOL    HW125666   9.429  14.553   9.581
 7923SOL    HW225667   9.514  14.638   9.674
 7924SOL     OW25668  11.402   4.622  12.460
 7924SOL    HW125669  11.342   4.584  12.523
 7924SOL    HW225670  11.447   4.692  12.508
 7925SOL     OW25671  11.726  14.409  14.153
 7925SOL    HW125672  11.745  14.316  14.164
 7925SOL    HW225673  11.633  14.417  14.175
 7926SOL     OW25674   4.801  13.240   3.450
 7926SOL    HW125675   4.839  13.322   3.483
 7926SOL    HW225676   4.707  13.260   3.440
 7927SOL     OW25677  12.279   6.794   1.315
 7927SOL    HW125678  12.226   6.814   1.238
 7927SOL    HW225679  12.263   6.866   1.376
 7928SOL     OW25680   0.274   1.999   1.655
 7928SOL    HW125681   0.348   2.038   1.701
 7928SOL    HW225682   0.200   2.009   1.716
 7929SOL     OW25683   3.339  11.246   1.829
 7929SOL    HW125684   3.363  11.267   1.919
 7929SOL    HW225685   3.254  11.203   1.836
 7930SOL     OW25686   1.803   7.344   2.722
 7930SOL    HW125687   1.750   7.397   2.664
 7930SOL    HW225688   1.849   7.283   2.664
 7931SOL     OW25689  10.892   2.519  12.457
 7931SOL    HW125690  10.935   2.470  12.526
 7931SOL    HW225691  10.820   2.565  12.500
 7932SOL     OW25692  13.200   6.552  10.116
 7932SOL    HW125693  13.208   6.475  10.059
 7932SOL    HW225694  13.131   6.605  10.075
 7933SOL     OW25695  10.804  12.324   6.659
 7933SOL    HW125696  10.758  12.241   6.652
 7933SOL    HW225697  10.833  12.343   6.569
 7934SOL     OW25698  13.267  14.039  10.680
 7934SOL    HW125699  13.212  14.104  10.636
 7934SOL    HW225700  13.211  13.963  10.691
 7935SOL     OW25701  14.871   7.952   8.522
 7935SOL    HW125702   0.071   8.015   8.516
 7935SOL    HW225703  14.792   8.006   8.521
 7936SOL     OW25704   9.600  11.581   9.906
 7936SOL    HW125705   9.663  11.654   9.909
 7936SOL    HW225706   9.617  11.539   9.822
 7937SOL     OW25707  12.562   9.763  13.450
 7937SOL    HW125708  12.468   9.774  13.464
 7937SOL    HW225709  12.590   9.701  13.517
 7938SOL     OW25710  12.597   2.333  10.288
 7938SOL    HW125711  12.616   2.272  10.359
 7938SOL    HW225712  12.679   2.380  10.274
 7939SOL     OW25713  12.677   0.098  10.648
 7939SOL    HW125714  12.759   0.148  10.640
 7939SOL    HW225715  12.703   0.007  10.633
 7940SOL     OW25716   8.036   5.013  12.088
 7940SOL    HW125717   7.957   5.034  12.138
 7940SOL    HW225718   8.049   4.919  12.102
 7941SOL     OW25719   9.530   2.068   1.106
 7941SOL    HW125720   9.464   2.010   1.069
 7941SOL    HW225721   9.481   2.127   1.164
 7942SOL     OW25722   0.436   7.369  12.453
 7942SOL    HW125723   0.493   7.299  12.421
 7942SOL    HW225724   0.467   7.386  12.543
 7943SOL     OW25725   2.993   4.954  13.696
 7943SOL    HW125726   3.078   4.984  13.663
 7943SOL    HW225727   2.952   5.034  13.731
 7944SOL     OW25728   2.666   5.914   0.206
 7944SOL    HW125729   2.754   5.897   0.241
 7944SOL    HW225730   2.642   5.999   0.244
 7945SOL     OW25731   4.703   9.243   1.815
 7945SOL    HW125732   4.743   9.275   1.896
 7945SOL    HW225733   4.777   9.231   1.755
 7946SOL     OW25734   7.795   8.306  12.670
 7946SOL    HW125735   7.849   8.287  12.746
 7946SOL    HW225736   7.833   8.385  12.632
 7947SOL     OW25737   1.684   9.899   9.053
 7947SOL    HW125738   1.598   9.940   9.044
 7947SOL    HW225739   1.671   9.830   9.119
 7948SOL     OW25740  11.973  10.161   6.292
 7948SOL    HW125741  11.938  10.245   6.324
 7948SOL    HW225742  11.918  10.095   6.334
 7949SOL     OW25743   8.100   0.132  10.886
 7949SOL    HW125744   8.093   0.040  10.862
 7949SOL    HW225745   8.122   0.177  10.805
 7950SOL     OW25746   1.236   9.468   6.179
 7950SOL    HW125747   1.306   9.533   6.169
 7950SOL    HW225748   1.194   9.489   6.262
 7951SOL     OW25749   3.823   1.701  10.788
 7951SOL    HW125750   3.775   1.637  10.841
 7951SOL    HW225751   3.838   1.774  10.848
 7952SOL     OW25752   4.639   3.372   2.219
 7952SOL    HW125753   4.704   3.407   2.158
 7952SOL    HW225754   4.610   3.290   2.178
 7953SOL     OW25755   2.280   2.938  14.656
 7953SOL    HW125756   2.290   2.992  14.734
 7953SOL    HW225757   2.208   2.979  14.607
 7954SOL     OW25758   7.185  12.270   5.532
 7954SOL    HW125759   7.110  12.248   5.588
 7954SOL    HW225760   7.247  12.199   5.546
 7955SOL     OW25761  12.541  11.842   6.712
 7955SOL    HW125762  12.499  11.791   6.781
 7955SOL    HW225763  12.593  11.907   6.759
 7956SOL     OW25764   6.471   1.394   5.121
 7956SOL    HW125765   6.539   1.409   5.055
 7956SOL    HW225766   6.519   1.364   5.198
 7957SOL     OW25767   7.338  10.268  12.671
 7957SOL    HW125768   7.431  10.272  12.693
 7957SOL    HW225769   7.337  10.252  12.576
 7958SOL     OW25770  12.548  12.466   1.883
 7958SOL    HW125771  12.626  12.504   1.843
 7958SOL    HW225772  12.556  12.372   1.866
 7959SOL     OW25773   5.544   6.211   3.600
 7959SOL    HW125774   5.620   6.158   3.622
 7959SOL    HW225775   5.503   6.165   3.526
 7960SOL     OW25776   0.902   7.112   1.247
 7960SOL    HW125777   0.847   7.041   1.214
 7960SOL    HW225778   0.947   7.075   1.323
 7961SOL     OW25779   5.609   6.173   4.253
 7961SOL    HW125780   5.625   6.201   4.343
 7961SOL    HW225781   5.621   6.078   4.254
 7962SOL     OW25782   4.258   8.897   2.292
 7962SOL    HW125783   4.304   8.863   2.216
 7962SOL    HW225784   4.226   8.983   2.265
 7963SOL     OW25785   2.560  12.425  11.991
 7963SOL    HW125786   2.508  12.389  11.918
 7963SOL    HW225787   2.510  12.401  12.069
 7964SOL     OW25788   7.951   1.680   7.540
 7964SOL    HW125789   7.867   1.724   7.530
 7964SOL    HW225790   7.971   1.686   7.634
 7965SOL     OW25791  11.017   3.730   3.370
 7965SOL    HW125792  11.102   3.773   3.359
 7965SOL    HW225793  10.973   3.781   3.438
 7966SOL     OW25794   8.324   6.674  11.226
 7966SOL    HW125795   8.267   6.668  11.150
 7966SOL    HW225796   8.327   6.585  11.261
 7967SOL     OW25797   4.143   9.017   8.578
 7967SOL    HW125798   4.220   8.960   8.576
 7967SOL    HW225799   4.069   8.957   8.568
 7968SOL     OW25800  11.808   8.663   7.111
 7968SOL    HW125801  11.731   8.681   7.058
 7968SOL    HW225802  11.871   8.626   7.050
 7969SOL     OW25803   7.522   4.613   3.492
 7969SOL    HW125804   7.526   4.643   3.583
 7969SOL    HW225805   7.543   4.690   3.440
 7970SOL     OW25806  10.785   3.585   8.979
 7970SOL    HW125807  10.740   3.502   8.969
 7970SOL    HW225808  10.821   3.604   8.893
 7971SOL     OW25809   8.738  10.492  13.848
 7971SOL    HW125810   8.827  10.468  13.822
 7971SOL    HW225811   8.692  10.508  13.766
 7972SOL     OW25812  14.377   2.050  11.993
 7972SOL    HW125813  14.436   2.056  11.918
 7972SOL    HW225814  14.423   1.992  12.054
 7973SOL     OW25815   7.121   1.386   5.047
 7973SOL    HW125816   7.100   1.478   5.061
 7973SOL    HW225817   7.207   1.374   5.087
 7974SOL     OW25818  13.613  13.989  13.167
 7974SOL    HW125819  13.606  14.012  13.074
 7974SOL    HW225820  13.608  13.893  13.168
 7975SOL     OW25821   9.555   4.746   8.458
 7975SOL    HW125822   9.590   4.833   8.474
 7975SOL    HW225823   9.464   4.761   8.431
 7976SOL     OW25824   2.333  14.582   6.218
 7976SOL    HW125825   2.266  14.557   6.155
 7976SOL    HW225826   2.296  14.559   6.303
 7977SOL     OW25827   6.592   9.788  11.038
 7977SOL    HW125828   6.608   9.858  11.101
 7977SOL    HW225829   6.528   9.731  11.082
 7978SOL     OW25830   2.500  12.312   1.247
 7978SOL    HW125831   2.480  12.405   1.253
 7978SOL    HW225832   2.577  12.308   1.190
 7979SOL     OW25833   4.471   1.352   5.195
 7979SOL    HW125834   4.412   1.390   5.130
 7979SOL    HW225835   4.455   1.401   5.275
 7980SOL     OW25836   4.347  13.264   9.791
 7980SOL    HW125837   4.353  13.291   9.700
 7980SOL    HW225838   4.261  13.294   9.820
 7981SOL     OW25839   1.064   2.300   5.688
 7981SOL    HW125840   1.008   2.307   5.611
 7981SOL    HW225841   1.047   2.380   5.737
 7982SOL     OW25842  11.092   3.245  12.364
 7982SOL    HW125843  11.080   3.266  12.272
 7982SOL    HW225844  11.131   3.323  12.402
 7983SOL     OW25845  12.312   6.642   8.299
 7983SOL    HW125846  12.356   6.698   8.362
 7983SOL    HW225847  12.382   6.598   8.252
 7984SOL     OW25848   4.232  12.780   0.630
 7984SOL    HW125849   4.298  12.847   0.646
 7984SOL    HW225850   4.256  12.743   0.545
 7985SOL     OW25851   3.713   2.520   6.630
 7985SOL    HW125852   3.806   2.520   6.609
 7985SOL    HW225853   3.682   2.606   6.600
 7986SOL     OW25854   9.179   5.411   3.295
 7986SOL    HW125855   9.200   5.394   3.387
 7986SOL    HW225856   9.104   5.470   3.298
 7987SOL     OW25857   4.331   3.562   2.736
 7987SOL    HW125858   4.307   3.551   2.828
 7987SOL    HW225859   4.335   3.657   2.724
 7988SOL     OW25860  12.237   3.689   7.751
 7988SOL    HW125861  12.233   3.709   7.658
 7988SOL    HW225862  12.175   3.751   7.791
 7989SOL     OW25863   7.355   5.009   1.503
 7989SOL    HW125864   7.393   5.020   1.591
 7989SOL    HW225865   7.308   4.926   1.508
 7990SOL     OW25866   0.362   1.814  12.194
 7990SOL    HW125867   0.299   1.745  12.214
 7990SOL    HW225868   0.447   1.769  12.191
 7991SOL     OW25869   4.190  12.507   9.144
 7991SOL    HW125870   4.230  12.504   9.057
 7991SOL    HW225871   4.263  12.493   9.205
 7992SOL     OW25872   2.309   4.037   4.445
 7992SOL    HW125873   2.363   4.029   4.524
 7992SOL    HW225874   2.264   3.953   4.439
 7993SOL     OW25875   0.896  11.100   2.088
 7993SOL    HW125876   0.982  11.135   2.111
 7993SOL    HW225877   0.846  11.176   2.059
 7994SOL     OW25878   7.910   6.751  11.607
 7994SOL    HW125879   7.967   6.755  11.530
 7994SOL    HW225880   7.825   6.783  11.577
 7995SOL     OW25881   1.299   1.962   5.054
 7995SOL    HW125882   1.219   1.919   5.086
 7995SOL    HW225883   1.367   1.896   5.066
 7996SOL     OW25884   6.818   6.163   8.176
 7996SOL    HW125885   6.771   6.113   8.243
 7996SOL    HW225886   6.781   6.252   8.182
 7997SOL     OW25887   7.583   4.971   4.164
 7997SOL    HW125888   7.539   5.042   4.212
 7997SOL    HW225889   7.542   4.891   4.196
 7998SOL     OW25890   0.580   1.240  14.228
 7998SOL    HW125891   0.669   1.268  14.203
 7998SOL    HW225892   0.593   1.184  14.304
 7999SOL     OW25893   3.068  12.022   3.125
 7999SOL    HW125894   3.027  12.109   3.126
 7999SOL    HW225895   3.136  12.027   3.192
 8000SOL     OW25896   0.260  13.415  12.740
 8000SOL    HW125897   0.165  13.405  12.737
 8000SOL    HW225898   0.293  13.325  12.747
 8001SOL     OW25899  14.691   6.585  11.071
 8001SOL    HW125900  14.715   6.535  10.994
 8001SOL    HW225901  14.602   6.556  11.092
 8002SOL     OW25902   0.209   6.880  12.900
 8002SOL    HW125903   0.175   6.849  12.984
 8002SOL    HW225904   0.196   6.807  12.840
 8003SOL     OW25905   7.028   8.049   1.397
 8003SOL    HW125906   7.096   8.020   1.457
 8003SOL    HW225907   6.984   8.120   1.444
 8004SOL     OW25908   3.670   1.458  14.425
 8004SOL    HW125909   3.595   1.401  14.405
 8004SOL    HW225910   3.636   1.520  14.490
 8005SOL     OW25911   5.284  14.673  13.728
 8005SOL    HW125912   5.204  14.723  13.747
 8005SOL    HW225913   5.280  14.656  13.634
 8006SOL     OW25914  13.493   2.981   8.460
 8006SOL    HW125915  13.468   3.073   8.470
 8006SOL    HW225916  13.570   2.971   8.515
 8007SOL     OW25917   2.556  14.611  10.076
 8007SOL    HW125918   2.514  14.581  10.156
 8007SOL    HW225919   2.641  14.568  10.076
 8008SOL     OW25920   9.125  12.659   1.424
 8008SOL    HW125921   9.178  12.652   1.504
 8008SOL    HW225922   9.159  12.737   1.380
 8009SOL     OW25923  14.436  12.648   3.594
 8009SOL    HW125924  14.368  12.715   3.607
 8009SOL    HW225925  14.499  12.689   3.535
 8010SOL     OW25926   5.997   4.590   5.227
 8010SOL    HW125927   6.012   4.601   5.133
 8010SOL    HW225928   5.927   4.653   5.247
 8011SOL     OW25929  13.795  14.198   3.290
 8011SOL    HW125930  13.845  14.201   3.371
 8011SOL    HW225931  13.770  14.289   3.274
 8012SOL     OW25932  13.636   2.064  10.502
 8012SOL    HW125933  13.681   2.091  10.422
 8012SOL    HW225934  13.628   1.969  10.494
 8013SOL     OW25935   8.847   5.980   3.896
 8013SOL    HW125936   8.868   5.892   3.928
 8013SOL    HW225937   8.813   6.026   3.972
 8014SOL     OW25938   6.906   8.177  14.475
 8014SOL    HW125939   6.839   8.240  14.501
 8014SOL    HW225940   6.923   8.197  14.383
 8015SOL     OW25941   9.168  14.247   9.045
 8015SOL    HW125942   9.231  14.307   9.085
 8015SOL    HW225943   9.199  14.160   9.071
 8016SOL     OW25944   9.268   1.505   7.275
 8016SOL    HW125945   9.363   1.511   7.272
 8016SOL    HW225946   9.238   1.596   7.275
 8017SOL     OW25947   3.239   9.684   0.743
 8017SOL    HW125948   3.211   9.771   0.773
 8017SOL    HW225949   3.285   9.647   0.818
 8018SOL     OW25950   6.585   2.195   2.359
 8018SOL    HW125951   6.517   2.261   2.375
 8018SOL    HW225952   6.660   2.245   2.327
 8019SOL     OW25953   3.449  10.243   0.097
 8019SOL    HW125954   3.513  10.225   0.028
 8019SOL    HW225955   3.484  10.197   0.174
 8020SOL     OW25956   2.742   2.824   9.862
 8020SOL    HW125957   2.709   2.896   9.808
 8020SOL    HW225958   2.787   2.867   9.935
 8021SOL     OW25959  11.467   5.937  10.229
 8021SOL    HW125960  11.450   5.901  10.316
 8021SOL    HW225961  11.381   5.962  10.196
 8022SOL     OW25962   2.612  11.461  12.362
 8022SOL    HW125963   2.609  11.379  12.313
 8022SOL    HW225964   2.653  11.523  12.302
 8023SOL     OW25965   0.013   6.314   4.893
 8023SOL    HW125966   0.044   6.223   4.890
 8023SOL    HW225967   0.017   6.344   4.803
 8024SOL     OW25968   5.170   9.930   8.205
 8024SOL    HW125969   5.103   9.975   8.256
 8024SOL    HW225970   5.246   9.927   8.262
 8025SOL     OW25971   6.317  12.488  12.776
 8025SOL    HW125972   6.242  12.459  12.828
 8025SOL    HW225973   6.327  12.580  12.799
 8026SOL     OW25974   3.838   0.286   9.804
 8026SOL    HW125975   3.831   0.372   9.764
 8026SOL    HW225976   3.750   0.248   9.795
 8027SOL     OW25977   7.685   7.243  11.789
 8027SOL    HW125978   7.609   7.193  11.759
 8027SOL    HW225979   7.704   7.303  11.716
 8028SOL     OW25980   7.795  14.461   9.802
 8028SOL    HW125981   7.843  14.457   9.719
 8028SOL    HW225982   7.713  14.416   9.785
 8029SOL     OW25983  13.449  12.755   0.282
 8029SOL    HW125984  13.537  12.792   0.292
 8029SOL    HW225985  13.390  12.825   0.312
 8030SOL     OW25986   6.135  13.653  10.323
 8030SOL    HW125987   6.042  13.663  10.303
 8030SOL    HW225988   6.138  13.627  10.415
 8031SOL     OW25989  13.807   0.603   1.362
 8031SOL    HW125990  13.879   0.561   1.315
 8031SOL    HW225991  13.805   0.693   1.329
 8032SOL     OW25992   6.062  14.629   0.085
 8032SOL    HW125993   5.990  14.574   0.115
 8032SOL    HW225994   6.041  14.648  14.865
 8033SOL     OW25995   5.746   9.596   8.783
 8033SOL    HW125996   5.707   9.516   8.819
 8033SOL    HW225997   5.829   9.567   8.745
 8034SOL     OW25998  11.006   6.038   2.727
 8034SOL    HW125999  11.054   6.120   2.722
 8034SOL    HW226000  10.970   6.036   2.816
 8035SOL     OW26001   7.946   1.294   3.832
 8035SOL    HW126002   7.945   1.312   3.926
 8035SOL    HW226003   7.933   1.199   3.825
 8036SOL     OW26004   2.966  10.790  10.428
 8036SOL    HW126005   2.875  10.778  10.400
 8036SOL    HW226006   3.017  10.738  10.367
 8037SOL     OW26007   0.882   8.609   5.065
 8037SOL    HW126008   0.968   8.623   5.027
 8037SOL    HW226009   0.841   8.544   5.007
 8038SOL     OW26010   5.538   8.781  10.326
 8038SOL    HW126011   5.628   8.775  10.357
 8038SOL    HW226012   5.522   8.697  10.282
 8039SOL     OW26013  12.496   9.928  14.194
 8039SOL    HW126014  12.467   9.974  14.273
 8039SOL    HW226015  12.439   9.851  14.189
 8040SOL     OW26016   6.010   0.929  11.004
 8040SOL    HW126017   6.095   0.886  10.991
 8040SOL    HW226018   6.031   1.012  11.046
 8041SOL     OW26019   0.971  10.360  11.701
 8041SOL    HW126020   1.035  10.289  11.700
 8041SOL    HW226021   0.930  10.357  11.614
 8042SOL     OW26022   2.171  12.377   7.049
 8042SOL    HW126023   2.254  12.350   7.087
 8042SOL    HW226024   2.186  12.377   6.955
 8043SOL     OW26025  12.694   2.803   7.802
 8043SOL    HW126026  12.644   2.873   7.844
 8043SOL    HW226027  12.785   2.824   7.822
 8044SOL     OW26028   7.836   3.521   3.497
 8044SOL    HW126029   7.897   3.593   3.517
 8044SOL    HW226030   7.885   3.466   3.435
 8045SOL     OW26031   7.022   8.255   0.011
 8045SOL    HW126032   7.100   8.304   0.034
 8045SOL    HW226033   7.054   8.182  14.829
 8046SOL     OW26034   8.927  11.865   6.567
 8046SOL    HW126035   8.877  11.790   6.600
 8046SOL    HW226036   8.874  11.897   6.494
 8047SOL     OW26037   4.917   7.367   7.598
 8047SOL    HW126038   4.938   7.459   7.611
 8047SOL    HW226039   4.839   7.352   7.652
 8048SOL     OW26040   4.177   0.328   9.658
 8048SOL    HW126041   4.098   0.380   9.644
 8048SOL    HW226042   4.216   0.365   9.737
 8049SOL     OW26043  11.346   7.240   8.993
 8049SOL    HW126044  11.402   7.247   9.070
 8049SOL    HW226045  11.391   7.178   8.936
 8050SOL     OW26046   4.542  13.400  12.415
 8050SOL    HW126047   4.534  13.448  12.332
 8050SOL    HW226048   4.554  13.309  12.389
 8051SOL     OW26049   2.383  12.276   2.154
 8051SOL    HW126050   2.363  12.297   2.245
 8051SOL    HW226051   2.460  12.328   2.133
 8052SOL     OW26052   5.963  12.419  12.523
 8052SOL    HW126053   5.978  12.442  12.432
 8052SOL    HW226054   6.032  12.357  12.545
 8053SOL     OW26055  12.286   8.163   4.922
 8053SOL    HW126056  12.344   8.221   4.873
 8053SOL    HW226057  12.254   8.100   4.857
 8054SOL     OW26058   5.003   2.726   8.005
 8054SOL    HW126059   5.060   2.692   8.073
 8054SOL    HW226060   5.055   2.793   7.960
 8055SOL     OW26061   8.532  12.229  13.614
 8055SOL    HW126062   8.449  12.262  13.579
 8055SOL    HW226063   8.598  12.265  13.556
 8056SOL     OW26064  11.524   6.604  13.871
 8056SOL    HW126065  11.585   6.557  13.815
 8056SOL    HW226066  11.558   6.693  13.875
 8057SOL     OW26067  11.951  14.775   3.322
 8057SOL    HW126068  12.000  14.693   3.322
 8057SOL    HW226069  11.988  14.825   3.395
 8058SOL     OW26070   5.117   7.722  10.736
 8058SOL    HW126071   5.070   7.694  10.815
 8058SOL    HW226072   5.088   7.812  10.722
 8059SOL     OW26073  14.647  12.306   8.617
 8059SOL    HW126074  14.555  12.302   8.644
 8059SOL    HW226075  14.669  12.399   8.623
 8060SOL     OW26076   2.083   7.231   0.356
 8060SOL    HW126077   2.047   7.302   0.302
 8060SOL    HW226078   2.072   7.153   0.303
 8061SOL     OW26079   1.528   8.388  14.106
 8061SOL    HW126080   1.440   8.406  14.138
 8061SOL    HW226081   1.585   8.446  14.157
 8062SOL     OW26082   4.552   9.970   7.346
 8062SOL    HW126083   4.471   9.957   7.297
 8062SOL    HW226084   4.526  10.019   7.423
 8063SOL     OW26085  12.326   9.542   1.817
 8063SOL    HW126086  12.407   9.509   1.856
 8063SOL    HW226087  12.346   9.632   1.793
 8064SOL     OW26088   4.804   5.104  14.141
 8064SOL    HW126089   4.866   5.177  14.145
 8064SOL    HW226090   4.728   5.140  14.095
 8065SOL     OW26091  14.662   5.113   0.863
 8065SOL    HW126092  14.670   5.182   0.797
 8065SOL    HW226093  14.723   5.139   0.932
 8066SOL     OW26094  10.764   4.776   6.557
 8066SOL    HW126095  10.691   4.832   6.530
 8066SOL    HW226096  10.835   4.800   6.498
 8067SOL     OW26097  11.977   3.670   3.351
 8067SOL    HW126098  11.910   3.608   3.380
 8067SOL    HW226099  12.050   3.655   3.410
 8068SOL     OW26100   0.094   5.049  14.705
 8068SOL    HW126101   0.058   5.128  14.664
 8068SOL    HW226102   0.123   4.996  14.631
 8069SOL     OW26103   2.302   5.533  11.997
 8069SOL    HW126104   2.287   5.447  12.037
 8069SOL    HW226105   2.284   5.596  12.067
 8070SOL     OW26106  13.091  11.941   3.052
 8070SOL    HW126107  13.169  11.986   3.085
 8070SOL    HW226108  13.051  12.004   2.992
 8071SOL     OW26109   2.529   1.593   0.701
 8071SOL    HW126110   2.450   1.584   0.754
 8071SOL    HW226111   2.550   1.504   0.674
 8072SOL     OW26112   9.969   1.042   3.138
 8072SOL    HW126113   9.888   0.996   3.162
 8072SOL    HW226114   9.966   1.123   3.189
 8073SOL     OW26115  11.865  10.469   9.199
 8073SOL    HW126116  11.817  10.529   9.143
 8073SOL    HW226117  11.956  10.499   9.196
 8074SOL     OW26118   7.173   7.371  11.345
 8074SOL    HW126119   7.219   7.318  11.410
 8074SOL    HW226120   7.200   7.333  11.261
 8075SOL     OW26121  11.254  11.111   5.730
 8075SOL    HW126122  11.242  11.131   5.637
 8075SOL    HW226123  11.292  11.190   5.768
 8076SOL     OW26124   4.340  13.807   5.760
 8076SOL    HW126125   4.410  13.871   5.749
 8076SOL    HW226126   4.372  13.748   5.829
 8077SOL     OW26127  13.830  10.208  10.203
 8077SOL    HW126128  13.738  10.234  10.202
 8077SOL    HW226129  13.855  10.201  10.111
 8078SOL     OW26130   5.812   2.822   7.232
 8078SOL    HW126131   5.797   2.915   7.247
 8078SOL    HW226132   5.726   2.781   7.246
 8079SOL     OW26133  11.957  13.399   2.301
 8079SOL    HW126134  12.043  13.359   2.287
 8079SOL    HW226135  11.936  13.380   2.392
 8080SOL     OW26136   4.243   8.848   5.521
 8080SOL    HW126137   4.230   8.754   5.535
 8080SOL    HW226138   4.182   8.871   5.451
 8081SOL     OW26139   0.022   2.275  14.625
 8081SOL    HW126140  14.866   2.193  14.666
 8081SOL    HW226141  14.811   2.315  14.596
 8082SOL     OW26142   1.612   7.171   3.141
 8082SOL    HW126143   1.595   7.083   3.107
 8082SOL    HW226144   1.564   7.173   3.224
 8083SOL     OW26145   4.086  10.743   2.835
 8083SOL    HW126146   4.056  10.780   2.753
 8083SOL    HW226147   4.078  10.648   2.823
 8084SOL     OW26148   2.514   7.028   5.554
 8084SOL    HW126149   2.468   7.079   5.620
 8084SOL    HW226150   2.600   7.011   5.592
 8085SOL     OW26151  13.320   7.442  10.862
 8085SOL    HW126152  13.364   7.505  10.918
 8085SOL    HW226153  13.386   7.375  10.843
 8086SOL     OW26154   1.363   8.861  11.170
 8086SOL    HW126155   1.313   8.817  11.238
 8086SOL    HW226156   1.332   8.952  11.172
 8087SOL     OW26157   1.889   7.538  13.033
 8087SOL    HW126158   1.949   7.464  13.042
 8087SOL    HW226159   1.929   7.608  13.085
 8088SOL     OW26160   3.582   1.891   9.296
 8088SOL    HW126161   3.498   1.931   9.275
 8088SOL    HW226162   3.596   1.910   9.388
 8089SOL     OW26163  11.261   3.965   4.877
 8089SOL    HW126164  11.294   3.908   4.808
 8089SOL    HW226165  11.184   3.920   4.911
 8090SOL     OW26166  13.682   1.942  13.550
 8090SOL    HW126167  13.647   1.948  13.461
 8090SOL    HW226168  13.715   2.030  13.568
 8091SOL     OW26169   6.719   0.857   2.414
 8091SOL    HW126170   6.770   0.838   2.335
 8091SOL    HW226171   6.632   0.822   2.395
 8092SOL     OW26172   2.452   6.677   2.758
 8092SOL    HW126173   2.544   6.703   2.750
 8092SOL    HW226174   2.446   6.638   2.845
 8093SOL     OW26175   7.943   4.382  10.020
 8093SOL    HW126176   7.988   4.327   9.956
 8093SOL    HW226177   7.853   4.388   9.988
 8094SOL     OW26178  11.858  11.217  10.451
 8094SOL    HW126179  11.795  11.201  10.521
 8094SOL    HW226180  11.805  11.234  10.374
 8095SOL     OW26181   2.348   9.404   2.983
 8095SOL    HW126182   2.442   9.384   2.982
 8095SOL    HW226183   2.321   9.397   2.892
 8096SOL     OW26184  13.733   7.958  10.111
 8096SOL    HW126185  13.806   7.936  10.053
 8096SOL    HW226186  13.770   8.023  10.171
 8097SOL     OW26187   6.181  10.057   5.290
 8097SOL    HW126188   6.144   9.998   5.224
 8097SOL    HW226189   6.109  10.114   5.315
 8098SOL     OW26190   6.230   0.238   1.916
 8098SOL    HW126191   6.184   0.271   1.839
 8098SOL    HW226192   6.315   0.282   1.914
 8099SOL     OW26193  11.099  12.117   6.697
 8099SOL    HW126194  11.089  12.138   6.605
 8099SOL    HW226195  11.058  12.031   6.707
 8100SOL     OW26196   6.169   2.937   3.999
 8100SOL    HW126197   6.213   2.927   3.915
 8100SOL    HW226198   6.135   3.027   3.997
 8101SOL     OW26199   3.694   9.659   5.989
 8101SOL    HW126200   3.633   9.596   6.027
 8101SOL    HW226201   3.643   9.739   5.979
 8102SOL     OW26202   9.467   3.777  14.816
 8102SOL    HW126203   9.387   3.736  14.784
 8102SOL    HW226204   9.481   3.738   0.030
 8103SOL     OW26205   6.577   6.491  11.971
 8103SOL    HW126206   6.534   6.411  11.999
 8103SOL    HW226207   6.664   6.463  11.942
 8104SOL     OW26208   2.284  11.748   8.539
 8104SOL    HW126209   2.231  11.676   8.504
 8104SOL    HW226210   2.333  11.709   8.611
 8105SOL     OW26211  12.195   6.533  14.594
 8105SOL    HW126212  12.184   6.627  14.603
 8105SOL    HW226213  12.133   6.495  14.657
 8106SOL     OW26214   1.824  14.851  12.386
 8106SOL    HW126215   1.824   0.008  12.478
 8106SOL    HW226216   1.763   0.038  12.342
 8107SOL     OW26217   4.361   2.122   1.484
 8107SOL    HW126218   4.404   2.148   1.565
 8107SOL    HW226219   4.401   2.039   1.460
 8108SOL     OW26220   6.057   5.897  13.880
 8108SOL    HW126221   6.143   5.875  13.916
 8108SOL    HW226222   6.016   5.952  13.947
 8109SOL     OW26223   7.926   1.608  14.528
 8109SOL    HW126224   7.968   1.686  14.564
 8109SOL    HW226225   7.957   1.536  14.583
 8110SOL     OW26226  11.136   2.934  10.320
 8110SOL    HW126227  11.074   2.973  10.381
 8110SOL    HW226228  11.206   2.899  10.375
 8111SOL     OW26229   7.796  13.248   5.322
 8111SOL    HW126230   7.721  13.192   5.299
 8111SOL    HW226231   7.759  13.337   5.324
 8112SOL     OW26232  10.051   4.345   9.231
 8112SOL    HW126233  10.096   4.316   9.152
 8112SOL    HW226234  10.122   4.368   9.292
 8113SOL     OW26235   9.563  13.932   6.068
 8113SOL    HW126236   9.535  13.842   6.088
 8113SOL    HW226237   9.656  13.924   6.048
 8114SOL     OW26238  11.483  13.551  10.401
 8114SOL    HW126239  11.435  13.618  10.448
 8114SOL    HW226240  11.515  13.595  10.322
 8115SOL     OW26241  11.132   1.858   1.591
 8115SOL    HW126242  11.177   1.923   1.538
 8115SOL    HW226243  11.120   1.899   1.676
 8116SOL     OW26244   2.241  11.739   4.753
 8116SOL    HW126245   2.235  11.799   4.678
 8116SOL    HW226246   2.336  11.729   4.767
 8117SOL     OW26247   5.193  10.707   8.581
 8117SOL    HW126248   5.225  10.617   8.576
 8117SOL    HW226249   5.145  10.720   8.499
 8118SOL     OW26250   9.143   2.066   4.957
 8118SOL    HW126251   9.145   2.155   4.992
 8118SOL    HW226252   9.056   2.034   4.979
 8119SOL     OW26253   6.576  11.416   6.534
 8119SOL    HW126254   6.601  11.360   6.461
 8119SOL    HW226255   6.647  11.405   6.598
 8120SOL     OW26256   0.713   3.643   8.948
 8120SOL    HW126257   0.626   3.668   8.917
 8120SOL    HW226258   0.762   3.622   8.868
 8121SOL     OW26259   9.392  12.133   0.113
 8121SOL    HW126260   9.321  12.080   0.078
 8121SOL    HW226261   9.463  12.071   0.130
 8122SOL     OW26262   6.800  11.972   9.559
 8122SOL    HW126263   6.893  11.951   9.546
 8122SOL    HW226264   6.797  12.011   9.647
 8123SOL     OW26265   1.021  10.128   2.366
 8123SOL    HW126266   0.985  10.042   2.344
 8123SOL    HW226267   1.092  10.142   2.303
 8124SOL     OW26268   0.769   7.277   7.678
 8124SOL    HW126269   0.686   7.321   7.658
 8124SOL    HW226270   0.819   7.342   7.726
 8125SOL     OW26271  12.265  12.347  11.913
 8125SOL    HW126272  12.325  12.416  11.940
 8125SOL    HW226273  12.189  12.358  11.971
 8126SOL     OW26274  13.385   6.795  14.582
 8126SOL    HW126275  13.386   6.866  14.646
 8126SOL    HW226276  13.395   6.716  14.635
 8127SOL     OW26277   1.761   7.835  13.693
 8127SOL    HW126278   1.716   7.753  13.672
 8127SOL    HW226279   1.707   7.877  13.759
 8128SOL     OW26280   5.353   4.943   9.692
 8128SOL    HW126281   5.334   5.033   9.669
 8128SOL    HW226282   5.412   4.949   9.768
 8129SOL     OW26283  11.860   3.181   9.446
 8129SOL    HW126284  11.929   3.243   9.469
 8129SOL    HW226285  11.820   3.157   9.529
 8130SOL     OW26286   4.239   7.295  14.382
 8130SOL    HW126287   4.206   7.382  14.402
 8130SOL    HW226288   4.195   7.237  14.445
 8131SOL     OW26289   9.746  11.642   8.034
 8131SOL    HW126290   9.778  11.695   7.961
 8131SOL    HW226291   9.701  11.569   7.992
 8132SOL     OW26292   6.557  12.969   2.632
 8132SOL    HW126293   6.627  13.023   2.595
 8132SOL    HW226294   6.599  12.922   2.704
 8133SOL     OW26295  12.582  13.524   7.031
 8133SOL    HW126296  12.639  13.465   6.981
 8133SOL    HW226297  12.637  13.555   7.103
 8134SOL     OW26298   8.064   6.747  13.116
 8134SOL    HW126299   8.123   6.821  13.102
 8134SOL    HW226300   7.982   6.787  13.147
 8135SOL     OW26301  14.224   8.919  12.118
 8135SOL    HW126302  14.144   8.880  12.152
 8135SOL    HW226303  14.206   8.935  12.025
 8136SOL     OW26304   2.032   6.025   5.903
 8136SOL    HW126305   1.937   6.019   5.895
 8136SOL    HW226306   2.057   6.094   5.841
 8137SOL     OW26307   1.996   7.618   7.054
 8137SOL    HW126308   2.032   7.626   7.143
 8137SOL    HW226309   1.931   7.548   7.062
 8138SOL     OW26310   2.132   6.825   4.900
 8138SOL    HW126311   2.168   6.888   4.962
 8138SOL    HW226312   2.105   6.751   4.955
 8139SOL     OW26313  11.712   2.768  10.075
 8139SOL    HW126314  11.808   2.763  10.080
 8139SOL    HW226315  11.695   2.854  10.036
 8140SOL     OW26316  12.972   1.812  14.524
 8140SOL    HW126317  12.932   1.849  14.446
 8140SOL    HW226318  13.006   1.727  14.496
 8141SOL     OW26319  11.133   0.023   3.716
 8141SOL    HW126320  11.204   0.082   3.691
 8141SOL    HW226321  11.094   0.063   3.794
 8142SOL     OW26322   7.498   0.324   7.906
 8142SOL    HW126323   7.519   0.238   7.942
 8142SOL    HW226324   7.402   0.330   7.914
 8143SOL     OW26325  13.496  11.732   3.313
 8143SOL    HW126326  13.553  11.735   3.390
 8143SOL    HW226327  13.470  11.640   3.306
 8144SOL     OW26328   6.271  11.605  10.770
 8144SOL    HW126329   6.315  11.690  10.773
 8144SOL    HW226330   6.259  11.581  10.862
 8145SOL     OW26331   0.860  11.050  12.183
 8145SOL    HW126332   0.774  11.069  12.221
 8145SOL    HW226333   0.902  10.994  12.248
 8146SOL     OW26334   3.955   0.894  11.468
 8146SOL    HW126335   3.920   0.908  11.557
 8146SOL    HW226336   3.935   0.803  11.449
 8147SOL     OW26337  14.608  14.235  14.839
 8147SOL    HW126338  14.572  14.147  14.847
 8147SOL    HW226339  14.692  14.231   0.012
 8148SOL     OW26340  14.402   9.624   2.846
 8148SOL    HW126341  14.497   9.619   2.836
 8148SOL    HW226342  14.384   9.717   2.860
 8149SOL     OW26343  11.059  11.588  13.330
 8149SOL    HW126344  10.969  11.557  13.342
 8149SOL    HW226345  11.065  11.665  13.387
 8150SOL     OW26346  12.851   1.771   6.666
 8150SOL    HW126347  12.841   1.864   6.682
 8150SOL    HW226348  12.922   1.764   6.602
 8151SOL     OW26349  14.777   8.295   5.916
 8151SOL    HW126350  14.748   8.371   5.865
 8151SOL    HW226351  14.712   8.287   5.986
 8152SOL     OW26352  11.241   0.604   0.894
 8152SOL    HW126353  11.203   0.622   0.808
 8152SOL    HW226354  11.259   0.690   0.931
 8153SOL     OW26355   6.573   1.372   8.755
 8153SOL    HW126356   6.591   1.421   8.835
 8153SOL    HW226357   6.492   1.411   8.721
 8154SOL     OW26358   9.868   0.319   4.324
 8154SOL    HW126359   9.951   0.339   4.368
 8154SOL    HW226360   9.850   0.228   4.348
 8155SOL     OW26361   8.001   6.205  12.587
 8155SOL    HW126362   7.975   6.128  12.536
 8155SOL    HW226363   8.010   6.172  12.677
 8156SOL     OW26364   4.681  10.925  13.992
 8156SOL    HW126365   4.708  10.886  14.075
 8156SOL    HW226366   4.761  10.965  13.957
 8157SOL     OW26367  12.253   5.147   9.034
 8157SOL    HW126368  12.191   5.211   9.068
 8157SOL    HW226369  12.274   5.179   8.946
 8158SOL     OW26370   5.724   3.130   6.998
 8158SOL    HW126371   5.685   3.061   6.944
 8158SOL    HW226372   5.801   3.157   6.949
 8159SOL     OW26373   2.352  14.020   5.450
 8159SOL    HW126374   2.400  14.096   5.485
 8159SOL    HW226375   2.420  13.954   5.436
 8160SOL     OW26376   0.653  11.683   4.558
 8160SOL    HW126377   0.582  11.710   4.499
 8160SOL    HW226378   0.674  11.762   4.608
 8161SOL     OW26379   0.927   6.155  13.991
 8161SOL    HW126380   0.921   6.086  14.056
 8161SOL    HW226381   0.971   6.228  14.036
 8162SOL     OW26382   1.295   9.625   6.618
 8162SOL    HW126383   1.264   9.610   6.707
 8162SOL    HW226384   1.278   9.543   6.572
 8163SOL     OW26385  11.169   6.999  13.544
 8163SOL    HW126386  11.098   6.946  13.507
 8163SOL    HW226387  11.249   6.951  13.522
 8164SOL     OW26388  10.776   0.507  14.704
 8164SOL    HW126389  10.838   0.434  14.708
 8164SOL    HW226390  10.777   0.534  14.612
 8165SOL     OW26391  14.646   2.857   9.171
 8165SOL    HW126392  14.710   2.788   9.190
 8165SOL    HW226393  14.603   2.873   9.255
 8166SOL     OW26394   7.944   1.118  11.516
 8166SOL    HW126395   7.992   1.038  11.540
 8166SOL    HW226396   7.856   1.104  11.552
 8167SOL     OW26397  10.708   2.884  14.276
 8167SOL    HW126398  10.684   2.957  14.220
 8167SOL    HW226399  10.637   2.821  14.265
 8168SOL     OW26400   8.639   6.900  10.907
 8168SOL    HW126401   8.589   6.978  10.932
 8168SOL    HW226402   8.656   6.855  10.989
 8169SOL     OW26403   2.105  13.182  12.452
 8169SOL    HW126404   2.154  13.256  12.489
 8169SOL    HW226405   2.105  13.198  12.358
 8170SOL     OW26406   6.968  10.880   9.659
 8170SOL    HW126407   6.910  10.810   9.687
 8170SOL    HW226408   6.981  10.934   9.737
 8171SOL     OW26409  11.846   6.542   1.799
 8171SOL    HW126410  11.855   6.509   1.888
 8171SOL    HW226411  11.917   6.606   1.790
 8172SOL     OW26412   5.831  14.821  12.410
 8172SOL    HW126413   5.758   0.000  12.445
 8172SOL    HW226414   5.853  14.864  12.327
 8173SOL     OW26415   5.454  11.044   7.314
 8173SOL    HW126416   5.501  10.984   7.255
 8173SOL    HW226417   5.380  10.993   7.345
 8174SOL     OW26418   1.123  12.703   8.007
 8174SOL    HW126419   1.055  12.689   8.073
 8174SOL    HW226420   1.202  12.663   8.045
 8175SOL     OW26421   1.002   6.290   2.309
 8175SOL    HW126422   0.993   6.304   2.404
 8175SOL    HW226423   0.985   6.377   2.271
 8176SOL     OW26424   7.553  12.669  11.408
 8176SOL    HW126425   7.559  12.597  11.345
 8176SOL    HW226426   7.583  12.631  11.490
 8177SOL     OW26427   8.718   1.799  14.179
 8177SOL    HW126428   8.637   1.755  14.155
 8177SOL    HW226429   8.703   1.891  14.157
 8178SOL     OW26430   9.256   1.708  12.592
 8178SOL    HW126431   9.207   1.788  12.612
 8178SOL    HW226432   9.212   1.672  12.514
 8179SOL     OW26433   1.623   3.614  11.892
 8179SOL    HW126434   1.535   3.603  11.928
 8179SOL    HW226435   1.660   3.526  11.893
 8180SOL     OW26436   9.431  11.220   3.493
 8180SOL    HW126437   9.496  11.205   3.425
 8180SOL    HW226438   9.479  11.207   3.575
 8181SOL     OW26439   2.474   2.537  14.455
 8181SOL    HW126440   2.496   2.452  14.417
 8181SOL    HW226441   2.379   2.538  14.459
 8182SOL     OW26442  12.679   0.031  10.301
 8182SOL    HW126443  12.632   0.075  10.372
 8182SOL    HW226444  12.628   0.051  10.223
 8183SOL     OW26445   0.857   8.235   4.572
 8183SOL    HW126446   0.943   8.252   4.609
 8183SOL    HW226447   0.875   8.214   4.480
 8184SOL     OW26448  14.036  11.858  10.961
 8184SOL    HW126449  13.975  11.789  10.987
 8184SOL    HW226450  14.120  11.831  10.997
 8185SOL     OW26451  11.575   8.462   4.422
 8185SOL    HW126452  11.543   8.372   4.420
 8185SOL    HW226453  11.499   8.515   4.396
 8186SOL     OW26454   3.090   4.853   9.530
 8186SOL    HW126455   3.118   4.942   9.549
 8186SOL    HW226456   2.997   4.860   9.511
 8187SOL     OW26457  12.846  12.185   3.073
 8187SOL    HW126458  12.793  12.244   3.127
 8187SOL    HW226459  12.782  12.138   3.020
 8188SOL     OW26460  11.257   1.060   6.569
 8188SOL    HW126461  11.307   0.986   6.604
 8188SOL    HW226462  11.276   1.132   6.628
 8189SOL     OW26463   4.568   4.961   7.705
 8189SOL    HW126464   4.591   4.923   7.790
 8189SOL    HW226465   4.495   5.020   7.724
 8190SOL     OW26466   2.443   7.194   8.442
 8190SOL    HW126467   2.379   7.214   8.511
 8190SOL    HW226468   2.509   7.263   8.449
 8191SOL     OW26469   9.888   8.127   4.250
 8191SOL    HW126470   9.804   8.112   4.205
 8191SOL    HW226471   9.897   8.052   4.309
 8192SOL     OW26472   6.259   3.418   7.110
 8192SOL    HW126473   6.244   3.429   7.204
 8192SOL    HW226474   6.329   3.480   7.090
 8193SOL     OW26475   2.861   5.126   7.830
 8193SOL    HW126476   2.945   5.155   7.866
 8193SOL    HW226477   2.849   5.178   7.750
 8194SOL     OW26478   8.037   9.562   3.373
 8194SOL    HW126479   8.023   9.487   3.431
 8194SOL    HW226480   7.965   9.557   3.310
 8195SOL     OW26481   7.878   7.849   2.068
 8195SOL    HW126482   7.916   7.849   2.156
 8195SOL    HW226483   7.836   7.763   2.060
 8196SOL     OW26484   3.434  13.397   0.691
 8196SOL    HW126485   3.480  13.479   0.705
 8196SOL    HW226486   3.361  13.420   0.634
 8197SOL     OW26487  11.267   4.205  14.102
 8197SOL    HW126488  11.253   4.131  14.044
 8197SOL    HW226489  11.180   4.239  14.120
 8198SOL     OW26490   2.674   5.691   0.784
 8198SOL    HW126491   2.676   5.786   0.770
 8198SOL    HW226492   2.588   5.675   0.823
 8199SOL     OW26493  13.639  12.578   0.520
 8199SOL    HW126494  13.684  12.536   0.593
 8199SOL    HW226495  13.608  12.505   0.466
 8200SOL     OW26496   8.526  14.612  14.497
 8200SOL    HW126497   8.568  14.678  14.442
 8200SOL    HW226498   8.560  14.528  14.465
 8201SOL     OW26499   5.697   3.096  11.627
 8201SOL    HW126500   5.771   3.113  11.569
 8201SOL    HW226501   5.665   3.010  11.602
 8202SOL     OW26502  11.619   3.243   0.138
 8202SOL    HW126503  11.605   3.293   0.058
 8202SOL    HW226504  11.541   3.259   0.191
 8203SOL     OW26505   9.214   0.739   5.317
 8203SOL    HW126506   9.151   0.783   5.374
 8203SOL    HW226507   9.218   0.794   5.239
 8204SOL     OW26508  13.628   6.473   5.989
 8204SOL    HW126509  13.628   6.497   6.082
 8204SOL    HW226510  13.607   6.554   5.943
 8205SOL     OW26511  13.796  14.074   6.666
 8205SOL    HW126512  13.762  14.068   6.576
 8205SOL    HW226513  13.758  14.155   6.700
 8206SOL     OW26514   2.742   6.679  12.896
 8206SOL    HW126515   2.766   6.619  12.966
 8206SOL    HW226516   2.803   6.660  12.825
 8207SOL     OW26517   0.755  13.687  10.802
 8207SOL    HW126518   0.825  13.646  10.750
 8207SOL    HW226519   0.780  13.780  10.807
 8208SOL     OW26520   1.357  12.431  11.503
 8208SOL    HW126521   1.335  12.513  11.459
 8208SOL    HW226522   1.346  12.451  11.596
 8209SOL     OW26523  14.565  13.936   5.142
 8209SOL    HW126524  14.580  13.955   5.234
 8209SOL    HW226525  14.490  13.990   5.118
 8210SOL     OW26526   3.184   6.144   3.609
 8210SOL    HW126527   3.230   6.074   3.563
 8210SOL    HW226528   3.228   6.224   3.582
 8211SOL     OW26529  12.122   8.621  10.535
 8211SOL    HW126530  12.148   8.536  10.499
 8211SOL    HW226531  12.061   8.600  10.606
 8212SOL     OW26532  14.323   4.293  13.104
 8212SOL    HW126533  14.331   4.251  13.018
 8212SOL    HW226534  14.353   4.382  13.090
 8213SOL     OW26535   7.485   6.216   3.824
 8213SOL    HW126536   7.452   6.133   3.788
 8213SOL    HW226537   7.557   6.240   3.766
 8214SOL     OW26538  11.044   3.215  13.681
 8214SOL    HW126539  11.053   3.170  13.597
 8214SOL    HW226540  10.953   3.243  13.683
 8215SOL     OW26541  12.260  10.190  13.851
 8215SOL    HW126542  12.304  10.262  13.897
 8215SOL    HW226543  12.258  10.119  13.915
 8216SOL     OW26544   1.863   0.317   4.964
 8216SOL    HW126545   1.827   0.254   4.901
 8216SOL    HW226546   1.889   0.392   4.911
 8217SOL     OW26547   0.594   1.204   7.414
 8217SOL    HW126548   0.641   1.128   7.447
 8217SOL    HW226549   0.613   1.274   7.476
 8218SOL     OW26550  10.021   5.730  14.854
 8218SOL    HW126551  10.017   5.808   0.038
 8218SOL    HW226552  10.029   5.764  14.765
 8219SOL     OW26553   8.345   6.045   4.340
 8219SOL    HW126554   8.425   6.072   4.384
 8219SOL    HW226555   8.313   5.971   4.392
 8220SOL     OW26556   5.822   2.214   2.098
 8220SOL    HW126557   5.827   2.240   2.190
 8220SOL    HW226558   5.890   2.149   2.087
 8221SOL     OW26559  13.571   1.729  14.081
 8221SOL    HW126560  13.510   1.657  14.065
 8221SOL    HW226561  13.547   1.795  14.016
 8222SOL     OW26562   5.149  10.860   3.512
 8222SOL    HW126563   5.145  10.774   3.552
 8222SOL    HW226564   5.242  10.881   3.509
 8223SOL     OW26565  13.252  11.709   1.582
 8223SOL    HW126566  13.308  11.648   1.535
 8223SOL    HW226567  13.218  11.658   1.656
 8224SOL     OW26568   7.486  12.026   9.437
 8224SOL    HW126569   7.521  11.942   9.467
 8224SOL    HW226570   7.437  12.004   9.357
 8225SOL     OW26571   8.246  14.705   3.734
 8225SOL    HW126572   8.279  14.745   3.814
 8225SOL    HW226573   8.322  14.696   3.677
 8226SOL     OW26574  12.563   5.686   4.386
 8226SOL    HW126575  12.501   5.702   4.314
 8226SOL    HW226576  12.517   5.625   4.444
 8227SOL     OW26577  14.102   4.157  10.951
 8227SOL    HW126578  14.182   4.210  10.954
 8227SOL    HW226579  14.103   4.109  11.034
 8228SOL     OW26580   6.980   0.443  13.804
 8228SOL    HW126581   6.998   0.526  13.760
 8228SOL    HW226582   6.890   0.421  13.779
 8229SOL     OW26583  12.122   9.534   3.200
 8229SOL    HW126584  12.036   9.522   3.159
 8229SOL    HW226585  12.171   9.587   3.137
 8230SOL     OW26586   2.136   3.577   1.899
 8230SOL    HW126587   2.127   3.634   1.823
 8230SOL    HW226588   2.204   3.514   1.874
 8231SOL     OW26589   9.132   8.578   6.501
 8231SOL    HW126590   9.144   8.672   6.513
 8231SOL    HW226591   9.174   8.558   6.417
 8232SOL     OW26592   5.356   6.049   2.334
 8232SOL    HW126593   5.349   5.964   2.291
 8232SOL    HW226594   5.438   6.086   2.301
 8233SOL     OW26595   0.957  11.503  10.713
 8233SOL    HW126596   0.939  11.592  10.683
 8233SOL    HW226597   1.053  11.496  10.712
 8234SOL     OW26598   8.462   8.193   6.497
 8234SOL    HW126599   8.477   8.111   6.543
 8234SOL    HW226600   8.470   8.260   6.565
 8235SOL     OW26601  11.871  11.136  12.871
 8235SOL    HW126602  11.936  11.072  12.899
 8235SOL    HW226603  11.867  11.199  12.943
 8236SOL     OW26604  11.268   2.984   1.892
 8236SOL    HW126605  11.229   3.057   1.940
 8236SOL    HW226606  11.362   3.006   1.888
 8237SOL     OW26607   7.317   4.994  14.246
 8237SOL    HW126608   7.323   5.054  14.172
 8237SOL    HW226609   7.408   4.969  14.263
 8238SOL     OW26610   5.492   0.760   1.715
 8238SOL    HW126611   5.534   0.697   1.775
 8238SOL    HW226612   5.404   0.772   1.752
 8239SOL     OW26613   1.297   1.513   3.264
 8239SOL    HW126614   1.368   1.523   3.328
 8239SOL    HW226615   1.283   1.418   3.260
 8240SOL     OW26616  14.790  14.860   8.280
 8240SOL    HW126617  14.790   0.017   8.372
 8240SOL    HW226618  14.712  14.804   8.273
 8241SOL     OW26619  12.068   8.522  10.824
 8241SOL    HW126620  12.028   8.463  10.888
 8241SOL    HW226621  12.100   8.464  10.755
 8242SOL     OW26622   1.634   6.985  10.896
 8242SOL    HW126623   1.709   7.035  10.929
 8242SOL    HW226624   1.672   6.909  10.853
 8243SOL     OW26625  11.977  11.686  11.900
 8243SOL    HW126626  12.061  11.732  11.903
 8243SOL    HW226627  11.996  11.600  11.938
 8244SOL     OW26628   7.527   7.510   5.762
 8244SOL    HW126629   7.577   7.545   5.836
 8244SOL    HW226630   7.475   7.439   5.799
 8245SOL     OW26631   1.239  10.146   9.577
 8245SOL    HW126632   1.159  10.185   9.541
 8245SOL    HW226633   1.267  10.209   9.644
 8246SOL     OW26634   4.877   0.369   1.731
 8246SOL    HW126635   4.815   0.370   1.804
 8246SOL    HW226636   4.911   0.280   1.729
 8247SOL     OW26637  13.804   3.711  11.546
 8247SOL    HW126638  13.780   3.622  11.520
 8247SOL    HW226639  13.720   3.758  11.550
 8248SOL     OW26640   2.207   4.113  10.077
 8248SOL    HW126641   2.198   4.089  10.170
 8248SOL    HW226642   2.165   4.041  10.030
 8249SOL     OW26643   7.619   2.377   7.066
 8249SOL    HW126644   7.578   2.295   7.093
 8249SOL    HW226645   7.708   2.371   7.102
 8250SOL     OW26646   7.344   0.797  13.701
 8250SOL    HW126647   7.390   0.770  13.780
 8250SOL    HW226648   7.336   0.717  13.649
 8251SOL     OW26649  12.050   9.449   6.714
 8251SOL    HW126650  12.118   9.381   6.721
 8251SOL    HW226651  12.096   9.531   6.732
 8252SOL     OW26652   9.189   5.325   3.560
 8252SOL    HW126653   9.253   5.358   3.623
 8252SOL    HW226654   9.172   5.235   3.589
 8253SOL     OW26655  13.574  11.499   7.462
 8253SOL    HW126656  13.554  11.543   7.545
 8253SOL    HW226657  13.528  11.552   7.396
 8254SOL     OW26658   7.881   3.137   0.395
 8254SOL    HW126659   7.883   3.043   0.377
 8254SOL    HW226660   7.925   3.146   0.480
 8255SOL     OW26661   9.323   2.950  12.561
 8255SOL    HW126662   9.336   3.031  12.612
 8255SOL    HW226663   9.397   2.894  12.587
 8256SOL     OW26664   3.507   2.169  12.527
 8256SOL    HW126665   3.600   2.183  12.544
 8256SOL    HW226666   3.479   2.249  12.481
 8257SOL     OW26667   1.072   4.931   2.814
 8257SOL    HW126668   1.036   4.845   2.794
 8257SOL    HW226669   0.996   4.983   2.842
 8258SOL     OW26670   9.839  11.529   3.177
 8258SOL    HW126671   9.756  11.483   3.191
 8258SOL    HW226672   9.827  11.575   3.094
 8259SOL     OW26673  10.506  12.917   1.291
 8259SOL    HW126674  10.548  13.001   1.273
 8259SOL    HW226675  10.570  12.852   1.265
 8260SOL     OW26676   4.992   5.075  12.364
 8260SOL    HW126677   5.065   5.122  12.323
 8260SOL    HW226678   5.035   5.005  12.415
 8261SOL     OW26679  12.103   6.477  11.397
 8261SOL    HW126680  12.082   6.451  11.307
 8261SOL    HW226681  12.102   6.395  11.446
 8262SOL     OW26682  14.012  11.322  10.507
 8262SOL    HW126683  13.965  11.245  10.476
 8262SOL    HW226684  14.090  11.327  10.452
 8263SOL     OW26685   1.153  11.531  11.829
 8263SOL    HW126686   1.099  11.467  11.876
 8263SOL    HW226687   1.208  11.570  11.896
 8264SOL     OW26688  14.834  13.997   9.472
 8264SOL    HW126689  14.751  14.014   9.428
 8264SOL    HW226690  14.818  13.919   9.526
 8265SOL     OW26691   0.053  14.644   3.160
 8265SOL    HW126692  14.849  14.670   3.212
 8265SOL    HW226693   0.016  14.598   3.085
 8266SOL     OW26694   5.602   2.372  11.189
 8266SOL    HW126695   5.625   2.457  11.151
 8266SOL    HW226696   5.684   2.323  11.188
 8267SOL     OW26697  11.594   7.665  11.452
 8267SOL    HW126698  11.685   7.672  11.422
 8267SOL    HW226699  11.552   7.745  11.419
 8268SOL     OW26700  13.462   2.943   4.119
 8268SOL    HW126701  13.398   2.874   4.141
 8268SOL    HW226702  13.486   2.981   4.203
 8269SOL     OW26703   8.843   9.914   4.570
 8269SOL    HW126704   8.806   9.872   4.647
 8269SOL    HW226705   8.802   9.870   4.496
 8270SOL     OW26706   9.530   4.110   6.905
 8270SOL    HW126707   9.567   4.022   6.899
 8270SOL    HW226708   9.485   4.111   6.989
 8271SOL     OW26709  11.662  11.171   1.853
 8271SOL    HW126710  11.604  11.243   1.829
 8271SOL    HW226711  11.733  11.174   1.789
 8272SOL     OW26712   3.245   5.846   0.308
 8272SOL    HW126713   3.271   5.867   0.219
 8272SOL    HW226714   3.287   5.913   0.362
 8273SOL     OW26715   5.790   1.027  10.867
 8273SOL    HW126716   5.872   0.989  10.899
 8273SOL    HW226717   5.815   1.111  10.829
 8274SOL     OW26718  14.138   3.683   6.773
 8274SOL    HW126719  14.162   3.774   6.756
 8274SOL    HW226720  14.212   3.648   6.823
 8275SOL     OW26721   4.792  13.584  13.910
 8275SOL    HW126722   4.862  13.553  13.852
 8275SOL    HW226723   4.749  13.654  13.862
 8276SOL     OW26724   7.096   5.638   7.740
 8276SOL    HW126725   7.164   5.680   7.687
 8276SOL    HW226726   7.021   5.698   7.734
 8277SOL     OW26727   2.556  11.144  10.720
 8277SOL    HW126728   2.595  11.180  10.641
 8277SOL    HW226729   2.623  11.087  10.757
 8278SOL     OW26730  10.745   4.203   2.041
 8278SOL    HW126731  10.757   4.237   1.952
 8278SOL    HW226732  10.833   4.182   2.071
 8279SOL     OW26733   5.791   8.854   3.159
 8279SOL    HW126734   5.765   8.909   3.233
 8279SOL    HW226735   5.789   8.765   3.193
 8280SOL     OW26736   9.881   3.056  13.087
 8280SOL    HW126737   9.925   3.108  13.154
 8280SOL    HW226738   9.794   3.096  13.078
 8281SOL     OW26739   3.490   3.404   9.672
 8281SOL    HW126740   3.523   3.374   9.756
 8281SOL    HW226741   3.395   3.400   9.680
 8282SOL     OW26742  14.082   4.165   0.730
 8282SOL    HW126743  14.099   4.230   0.798
 8282SOL    HW226744  14.007   4.116   0.762
 8283SOL     OW26745  13.095   9.453   0.491
 8283SOL    HW126746  13.149   9.413   0.559
 8283SOL    HW226747  13.086   9.386   0.424
 8284SOL     OW26748   8.342   8.892   1.232
 8284SOL    HW126749   8.304   8.850   1.155
 8284SOL    HW226750   8.306   8.843   1.306
 8285SOL     OW26751   4.842   5.152   4.822
 8285SOL    HW126752   4.815   5.107   4.902
 8285SOL    HW226753   4.829   5.245   4.840
 8286SOL     OW26754   8.300   4.663   2.905
 8286SOL    HW126755   8.393   4.677   2.891
 8286SOL    HW226756   8.267   4.748   2.934
 8287SOL     OW26757   4.452   1.673   5.798
 8287SOL    HW126758   4.539   1.668   5.757
 8287SOL    HW226759   4.433   1.583   5.825
 8288SOL     OW26760  13.015   1.357   1.339
 8288SOL    HW126761  13.053   1.277   1.302
 8288SOL    HW226762  13.071   1.428   1.306
 8289SOL     OW26763   8.468   5.935   7.348
 8289SOL    HW126764   8.433   5.848   7.329
 8289SOL    HW226765   8.530   5.921   7.420
 8290SOL     OW26766   6.291   1.637  11.181
 8290SOL    HW126767   6.253   1.549  11.181
 8290SOL    HW226768   6.317   1.653  11.091
 8291SOL     OW26769   4.516   3.888   8.925
 8291SOL    HW126770   4.538   3.969   8.971
 8291SOL    HW226771   4.581   3.881   8.855
 8292SOL     OW26772   2.268  12.625   7.447
 8292SOL    HW126773   2.224  12.638   7.363
 8292SOL    HW226774   2.201  12.646   7.513
 8293SOL     OW26775   9.584  11.445  13.462
 8293SOL    HW126776   9.538  11.462  13.545
 8293SOL    HW226777   9.515  11.448  13.395
 8294SOL     OW26778   3.615   1.634  10.167
 8294SOL    HW126779   3.668   1.560  10.137
 8294SOL    HW226780   3.636   1.704  10.105
 8295SOL     OW26781   9.514   9.136  13.910
 8295SOL    HW126782   9.495   9.115  13.818
 8295SOL    HW226783   9.432   9.122  13.956
 8296SOL     OW26784   4.530   1.246   2.529
 8296SOL    HW126785   4.614   1.205   2.549
 8296SOL    HW226786   4.553   1.328   2.486
 8297SOL     OW26787   0.951   8.166   4.335
 8297SOL    HW126788   0.892   8.104   4.292
 8297SOL    HW226789   1.037   8.147   4.297
 8298SOL     OW26790   4.965   4.829   3.527
 8298SOL    HW126791   4.975   4.803   3.619
 8298SOL    HW226792   5.025   4.903   3.517
 8299SOL     OW26793   7.275  14.276   7.200
 8299SOL    HW126794   7.365  14.309   7.192
 8299SOL    HW226795   7.227  14.320   7.130
 8300SOL     OW26796   9.443  14.800   5.481
 8300SOL    HW126797   9.491  14.720   5.462
 8300SOL    HW226798   9.350  14.775   5.473
 8301SOL     OW26799  10.205   8.389   5.709
 8301SOL    HW126800  10.279   8.343   5.670
 8301SOL    HW226801  10.131   8.329   5.697
 8302SOL     OW26802   2.246   2.117   9.170
 8302SOL    HW126803   2.265   2.074   9.087
 8302SOL    HW226804   2.248   2.047   9.235
 8303SOL     OW26805   6.970   2.418  13.787
 8303SOL    HW126806   6.946   2.393  13.698
 8303SOL    HW226807   6.888   2.451  13.825
 8304SOL     OW26808  12.073  12.558  11.294
 8304SOL    HW126809  12.126  12.520  11.224
 8304SOL    HW226810  12.118  12.639  11.317
 8305SOL     OW26811   1.378  14.794   9.356
 8305SOL    HW126812   1.390  14.810   9.450
 8305SOL    HW226813   1.440  14.853   9.314
 8306SOL     OW26814   6.553   4.769  10.967
 8306SOL    HW126815   6.618   4.722  11.020
 8306SOL    HW226816   6.570   4.740  10.877
 8307SOL     OW26817   9.596   4.405   9.258
 8307SOL    HW126818   9.660   4.334   9.259
 8307SOL    HW226819   9.611   4.452   9.340
 8308SOL     OW26820   1.091   9.044   2.718
 8308SOL    HW126821   1.174   9.002   2.695
 8308SOL    HW226822   1.104   9.136   2.698
 8309SOL     OW26823   8.252  10.816   4.321
 8309SOL    HW126824   8.250  10.722   4.308
 8309SOL    HW226825   8.236  10.828   4.415
 8310SOL     OW26826   6.632  14.578   3.577
 8310SOL    HW126827   6.608  14.535   3.496
 8310SOL    HW226828   6.575  14.538   3.644
 8311SOL     OW26829   8.577   3.819   2.907
 8311SOL    HW126830   8.532   3.903   2.917
 8311SOL    HW226831   8.541   3.764   2.977
 8312SOL     OW26832   6.476   1.003   7.920
 8312SOL    HW126833   6.486   1.095   7.894
 8312SOL    HW226834   6.386   0.982   7.895
 8313SOL     OW26835  12.584   1.773   4.398
 8313SOL    HW126836  12.601   1.767   4.304
 8313SOL    HW226837  12.503   1.724   4.411
 8314SOL     OW26838   6.706   8.165  13.408
 8314SOL    HW126839   6.616   8.159  13.438
 8314SOL    HW226840   6.755   8.105  13.464
 8315SOL     OW26841   2.680   9.478  13.102
 8315SOL    HW126842   2.605   9.488  13.160
 8315SOL    HW226843   2.724   9.399  13.133
 8316SOL     OW26844  11.515  13.425  13.276
 8316SOL    HW126845  11.433  13.458  13.312
 8316SOL    HW226846  11.561  13.388  13.351
 8317SOL     OW26847   7.463  11.788   3.131
 8317SOL    HW126848   7.384  11.763   3.179
 8317SOL    HW226849   7.531  11.795   3.198
 8318SOL     OW26850   7.177   4.848   5.534
 8318SOL    HW126851   7.210   4.787   5.467
 8318SOL    HW226852   7.220   4.931   5.514
 8319SOL     OW26853   3.008  12.882  10.419
 8319SOL    HW126854   2.999  12.835  10.337
 8319SOL    HW226855   2.918  12.897  10.449
 8320SOL     OW26856   1.032   8.781   4.614
 8320SOL    HW126857   1.104   8.830   4.576
 8320SOL    HW226858   1.014   8.826   4.697
 8321SOL     OW26859  10.483   5.264   6.918
 8321SOL    HW126860  10.470   5.356   6.900
 8321SOL    HW226861  10.566   5.261   6.966
 8322SOL     OW26862   3.770   8.248   9.485
 8322SOL    HW126863   3.840   8.215   9.542
 8322SOL    HW226864   3.802   8.231   9.396
 8323SOL     OW26865  10.025   5.851   2.896
 8323SOL    HW126866  10.025   5.921   2.961
 8323SOL    HW226867   9.981   5.889   2.820
 8324SOL     OW26868   0.284  13.292  11.999
 8324SOL    HW126869   0.242  13.353  12.060
 8324SOL    HW226870   0.366  13.334  11.975
 8325SOL     OW26871  11.397  11.590  13.237
 8325SOL    HW126872  11.462  11.535  13.193
 8325SOL    HW226873  11.326  11.599  13.174
 8326SOL     OW26874   2.434   8.909   2.565
 8326SOL    HW126875   2.485   8.868   2.495
 8326SOL    HW226876   2.349   8.864   2.563
 8327SOL     OW26877   6.788  12.917   2.354
 8327SOL    HW126878   6.747  12.958   2.278
 8327SOL    HW226879   6.727  12.847   2.380
 8328SOL     OW26880   2.830   5.063   4.125
 8328SOL    HW126881   2.853   4.971   4.134
 8328SOL    HW226882   2.770   5.079   4.198
 8329SOL     OW26883   1.536   8.194   2.012
 8329SOL    HW126884   1.518   8.105   1.981
 8329SOL    HW226885   1.573   8.239   1.936
 8330SOL     OW26886   3.387  10.108  13.651
 8330SOL    HW126887   3.368  10.070  13.565
 8330SOL    HW226888   3.313  10.082  13.706
 8331SOL     OW26889  13.490  13.781  12.663
 8331SOL    HW126890  13.448  13.833  12.731
 8331SOL    HW226891  13.446  13.696  12.666
 8332SOL     OW26892   5.614  14.300  11.780
 8332SOL    HW126893   5.598  14.321  11.872
 8332SOL    HW226894   5.526  14.292  11.742
 8333SOL     OW26895   0.804   4.305   8.999
 8333SOL    HW126896   0.831   4.362   8.928
 8333SOL    HW226897   0.731   4.350   9.040
 8334SOL     OW26898   2.834   9.170   5.639
 8334SOL    HW126899   2.896   9.126   5.697
 8334SOL    HW226900   2.817   9.108   5.569
 8335SOL     OW26901   4.692   0.755   7.105
 8335SOL    HW126902   4.774   0.762   7.153
 8335SOL    HW226903   4.650   0.676   7.139
 8336SOL     OW26904   7.317   2.405   8.305
 8336SOL    HW126905   7.280   2.317   8.316
 8336SOL    HW226906   7.313   2.443   8.393
 8337SOL     OW26907   9.525   3.404   3.451
 8337SOL    HW126908   9.559   3.370   3.368
 8337SOL    HW226909   9.433   3.424   3.432
 8338SOL     OW26910   2.699   0.414   4.173
 8338SOL    HW126911   2.772   0.398   4.114
 8338SOL    HW226912   2.657   0.493   4.138
 8339SOL     OW26913  13.053   3.325   8.796
 8339SOL    HW126914  13.058   3.419   8.814
 8339SOL    HW226915  13.139   3.304   8.759
 8340SOL     OW26916   9.555  13.605  13.805
 8340SOL    HW126917   9.522  13.675  13.860
 8340SOL    HW226918   9.606  13.649  13.737
 8341SOL     OW26919   4.447   1.726  12.668
 8341SOL    HW126920   4.416   1.704  12.756
 8341SOL    HW226921   4.399   1.805  12.645
 8342SOL     OW26922  12.264   8.560   2.488
 8342SOL    HW126923  12.338   8.519   2.443
 8342SOL    HW226924  12.238   8.632   2.430
 8343SOL     OW26925   3.519   1.008  12.056
 8343SOL    HW126926   3.593   1.021  11.997
 8343SOL    HW226927   3.543   0.932  12.109
 8344SOL     OW26928   3.658   9.408  14.658
 8344SOL    HW126929   3.580   9.359  14.633
 8344SOL    HW226930   3.721   9.340  14.684
 8345SOL     OW26931  11.196   3.389   7.422
 8345SOL    HW126932  11.268   3.344   7.466
 8345SOL    HW226933  11.202   3.480   7.453
 8346SOL     OW26934  12.135  11.623  10.763
 8346SOL    HW126935  12.170  11.536  10.746
 8346SOL    HW226936  12.087  11.646  10.683
 8347SOL     OW26937  10.915   9.919   6.524
 8347SOL    HW126938  10.867   9.882   6.598
 8347SOL    HW226939  10.941   9.844   6.472
 8348SOL     OW26940  12.854   6.569  13.901
 8348SOL    HW126941  12.793   6.542  13.971
 8348SOL    HW226942  12.921   6.620  13.946
 8349SOL     OW26943   8.495   8.896   7.504
 8349SOL    HW126944   8.458   8.856   7.583
 8349SOL    HW226945   8.434   8.968   7.484
 8350SOL     OW26946   1.996   7.815   8.998
 8350SOL    HW126947   2.020   7.887   9.056
 8350SOL    HW226948   2.003   7.736   9.052
 8351SOL     OW26949   6.034   6.875  13.338
 8351SOL    HW126950   5.982   6.795  13.347
 8351SOL    HW226951   5.970   6.946  13.339
 8352SOL     OW26952   7.716   9.825  10.180
 8352SOL    HW126953   7.769   9.855  10.254
 8352SOL    HW226954   7.632   9.801  10.219
 8353SOL     OW26955  11.035  10.246  14.119
 8353SOL    HW126956  11.116  10.270  14.165
 8353SOL    HW226957  11.016  10.157  14.149
 8354SOL     OW26958   1.726   3.571   5.938
 8354SOL    HW126959   1.642   3.592   5.978
 8354SOL    HW226960   1.715   3.593   5.845
 8355SOL     OW26961   5.064   4.224   0.483
 8355SOL    HW126962   5.017   4.284   0.426
 8355SOL    HW226963   5.113   4.281   0.543
 8356SOL     OW26964  12.775   9.716   6.451
 8356SOL    HW126965  12.762   9.700   6.358
 8356SOL    HW226966  12.828   9.641   6.481
 8357SOL     OW26967   6.202   2.645   7.009
 8357SOL    HW126968   6.296   2.659   7.000
 8357SOL    HW226969   6.180   2.585   6.938
 8358SOL     OW26970   1.087   1.793  13.200
 8358SOL    HW126971   0.995   1.818  13.208
 8358SOL    HW226972   1.094   1.710  13.247
 8359SOL     OW26973   6.780   3.140  11.443
 8359SOL    HW126974   6.685   3.137  11.456
 8359SOL    HW226975   6.816   3.152  11.531
 8360SOL     OW26976   3.127  14.110   8.765
 8360SOL    HW126977   3.092  14.199   8.769
 8360SOL    HW226978   3.050  14.055   8.749
 8361SOL     OW26979   1.003   8.280  11.747
 8361SOL    HW126980   1.092   8.314  11.743
 8361SOL    HW226981   0.980   8.262  11.656
 8362SOL     OW26982   4.406   0.742  11.116
 8362SOL    HW126983   4.366   0.815  11.164
 8362SOL    HW226984   4.464   0.784  11.053
 8363SOL     OW26985   3.789  13.170   1.330
 8363SOL    HW126986   3.859  13.213   1.280
 8363SOL    HW226987   3.709  13.212   1.299
 8364SOL     OW26988   5.603   7.689   6.059
 8364SOL    HW126989   5.635   7.770   6.020
 8364SOL    HW226990   5.614   7.701   6.153
 8365SOL     OW26991   9.525  13.314  13.056
 8365SOL    HW126992   9.459  13.300  12.988
 8365SOL    HW226993   9.493  13.264  13.131
 8366SOL     OW26994  13.105   1.151  10.086
 8366SOL    HW126995  13.169   1.087  10.118
 8366SOL    HW226996  13.138   1.175   9.999
 8367SOL     OW26997   1.595  11.010   5.315
 8367SOL    HW126998   1.608  11.092   5.362
 8367SOL    HW226999   1.597  10.942   5.383
 8368SOL     OW27000   6.347   5.191  10.065
 8368SOL    HW127001   6.401   5.216   9.991
 8368SOL    HW227002   6.329   5.098  10.052
 8369SOL     OW27003   1.819   8.287   5.666
 8369SOL    HW127004   1.894   8.331   5.706
 8369SOL    HW227005   1.824   8.309   5.573
 8370SOL     OW27006   1.897   0.503   4.702
 8370SOL    HW127007   1.993   0.501   4.709
 8370SOL    HW227008   1.879   0.506   4.608
 8371SOL     OW27009   2.715   3.475   5.616
 8371SOL    HW127010   2.759   3.494   5.533
 8371SOL    HW227011   2.772   3.514   5.683
 8372SOL     OW27012   8.314  12.022   0.386
 8372SOL    HW127013   8.241  11.970   0.421
 8372SOL    HW227014   8.280  12.058   0.304
 8373SOL     OW27015   4.577   4.373  10.011
 8373SOL    HW127016   4.599   4.442  10.073
 8373SOL    HW227017   4.661   4.341   9.978
 8374SOL     OW27018   0.111   2.103  11.096
 8374SOL    HW127019   0.203   2.120  11.116
 8374SOL    HW227020   0.066   2.185  11.118
 8375SOL     OW27021  14.764   2.305   0.576
 8375SOL    HW127022  14.768   2.288   0.481
 8375SOL    HW227023  14.853   2.332   0.598
 8376SOL     OW27024   5.038   9.406   8.155
 8376SOL    HW127025   4.961   9.377   8.105
 8376SOL    HW227026   5.109   9.408   8.090
 8377SOL     OW27027  14.519  10.336   6.642
 8377SOL    HW127028  14.574  10.292   6.706
 8377SOL    HW227029  14.465  10.395   6.694
 8378SOL     OW27030   2.944   3.126   9.603
 8378SOL    HW127031   2.954   3.036   9.572
 8378SOL    HW227032   2.973   3.179   9.529
 8379SOL     OW27033   4.520  12.247   4.472
 8379SOL    HW127034   4.557  12.170   4.516
 8379SOL    HW227035   4.482  12.212   4.391
 8380SOL     OW27036  12.733   7.208   0.046
 8380SOL    HW127037  12.788   7.133   0.067
 8380SOL    HW227038  12.643   7.176   0.056
 8381SOL     OW27039   2.346   0.422   5.977
 8381SOL    HW127040   2.383   0.339   6.004
 8381SOL    HW227041   2.274   0.398   5.918
 8382SOL     OW27042  12.915   0.511   2.698
 8382SOL    HW127043  12.993   0.485   2.649
 8382SOL    HW227044  12.923   0.606   2.707
 8383SOL     OW27045  13.599  10.542  14.120
 8383SOL    HW127046  13.655  10.487  14.065
 8383SOL    HW227047  13.660  10.585  14.180
 8384SOL     OW27048   6.638  14.860   1.052
 8384SOL    HW127049   6.703  14.799   1.019
 8384SOL    HW227050   6.661   0.073   1.012
 8385SOL     OW27051   3.411  11.408  13.015
 8385SOL    HW127052   3.440  11.458  12.939
 8385SOL    HW227053   3.385  11.323  12.978
 8386SOL     OW27054   3.728   0.353   3.158
 8386SOL    HW127055   3.810   0.401   3.144
 8386SOL    HW227056   3.668   0.390   3.092
 8387SOL     OW27057   9.755   3.133   2.734
 8387SOL    HW127058   9.801   3.211   2.764
 8387SOL    HW227059   9.773   3.128   2.640
 8388SOL     OW27060  11.781   6.120   2.727
 8388SOL    HW127061  11.836   6.127   2.649
 8388SOL    HW227062  11.824   6.177   2.791
 8389SOL     OW27063   4.534   8.114   1.442
 8389SOL    HW127064   4.455   8.066   1.466
 8389SOL    HW227065   4.502   8.196   1.404
 8390SOL     OW27066   1.968   7.725   9.614
 8390SOL    HW127067   1.901   7.786   9.583
 8390SOL    HW227068   1.925   7.677   9.685
 8391SOL     OW27069  14.053   9.042   8.552
 8391SOL    HW127070  14.041   9.001   8.466
 8391SOL    HW227071  14.023   9.132   8.540
 8392SOL     OW27072   0.050   7.110  12.651
 8392SOL    HW127073  14.868   7.189  12.646
 8392SOL    HW227074   0.059   7.081  12.561
 8393SOL     OW27075  12.067   6.689  13.366
 8393SOL    HW127076  12.103   6.693  13.455
 8393SOL    HW227077  11.974   6.671  13.379
 8394SOL     OW27078  13.469  10.711   7.778
 8394SOL    HW127079  13.520  10.641   7.737
 8394SOL    HW227080  13.404  10.736   7.712
 8395SOL     OW27081  13.526  12.852   4.324
 8395SOL    HW127082  13.553  12.900   4.247
 8395SOL    HW227083  13.512  12.762   4.293
 8396SOL     OW27084   0.507  12.511   3.463
 8396SOL    HW127085   0.499  12.437   3.524
 8396SOL    HW227086   0.446  12.577   3.497
 8397SOL     OW27087   4.758   1.331   9.124
 8397SOL    HW127088   4.669   1.354   9.152
 8397SOL    HW227089   4.746   1.290   9.039
 8398SOL     OW27090  14.557   0.567   5.518
 8398SOL    HW127091  14.544   0.508   5.444
 8398SOL    HW227092  14.648   0.553   5.545
 8399SOL     OW27093  10.983   3.187  11.259
 8399SOL    HW127094  11.018   3.275  11.273
 8399SOL    HW227095  10.899   3.187  11.304
 8400SOL     OW27096  11.326   5.946  14.010
 8400SOL    HW127097  11.422   5.939  14.005
 8400SOL    HW227098  11.297   5.950  13.919
 8401SOL     OW27099   9.870   6.995   7.220
 8401SOL    HW127100   9.860   7.000   7.125
 8401SOL    HW227101   9.795   6.943   7.249
 8402SOL     OW27102   8.674   2.273  13.146
 8402SOL    HW127103   8.626   2.285  13.064
 8402SOL    HW227104   8.762   2.246  13.118
 8403SOL     OW27105   4.882   1.570   2.025
 8403SOL    HW127106   4.883   1.476   2.012
 8403SOL    HW227107   4.790   1.595   2.017
 8404SOL     OW27108  10.850   5.952   5.002
 8404SOL    HW127109  10.762   5.974   4.972
 8404SOL    HW227110  10.837   5.878   5.062
 8405SOL     OW27111  14.417   0.920   9.503
 8405SOL    HW127112  14.442   1.009   9.529
 8405SOL    HW227113  14.331   0.907   9.543
 8406SOL     OW27114  13.852  11.894   6.186
 8406SOL    HW127115  13.899  11.867   6.107
 8406SOL    HW227116  13.782  11.830   6.196
 8407SOL     OW27117   2.701   6.777   7.849
 8407SOL    HW127118   2.693   6.806   7.940
 8407SOL    HW227119   2.627   6.817   7.804
 8408SOL     OW27120   0.569   9.173   4.283
 8408SOL    HW127121   0.557   9.118   4.206
 8408SOL    HW227122   0.480   9.199   4.309
 8409SOL     OW27123  11.903   9.167   5.949
 8409SOL    HW127124  11.834   9.215   5.995
 8409SOL    HW227125  11.922   9.220   5.871
 8410SOL     OW27126  13.478   6.152  12.708
 8410SOL    HW127127  13.408   6.205  12.746
 8410SOL    HW227128  13.460   6.063  12.741
 8411SOL     OW27129   5.816   6.187   6.567
 8411SOL    HW127130   5.771   6.270   6.548
 8411SOL    HW227131   5.907   6.203   6.543
 8412SOL     OW27132   1.128  14.582  11.860
 8412SOL    HW127133   1.095  14.524  11.791
 8412SOL    HW227134   1.107  14.537  11.942
 8413SOL     OW27135   7.366   0.780   4.275
 8413SOL    HW127136   7.306   0.854   4.261
 8413SOL    HW227137   7.357   0.760   4.368
 8414SOL     OW27138   9.523  13.301  11.067
 8414SOL    HW127139   9.514  13.220  11.017
 8414SOL    HW227140   9.435  13.316  11.103
 8415SOL     OW27141  10.656   5.457   7.247
 8415SOL    HW127142  10.610   5.483   7.167
 8415SOL    HW227143  10.630   5.367   7.262
 8416SOL     OW27144  12.271  10.548   3.887
 8416SOL    HW127145  12.298  10.614   3.951
 8416SOL    HW227146  12.347  10.490   3.879
 8417SOL     OW27147   2.157   6.282   2.268
 8417SOL    HW127148   2.100   6.288   2.345
 8417SOL    HW227149   2.206   6.201   2.282
 8418SOL     OW27150  13.394   4.106   9.119
 8418SOL    HW127151  13.343   4.122   9.039
 8418SOL    HW227152  13.387   4.188   9.168
 8419SOL     OW27153   7.606  14.489   1.822
 8419SOL    HW127154   7.538  14.481   1.888
 8419SOL    HW227155   7.677  14.434   1.853
 8420SOL     OW27156   4.192   0.576  11.283
 8420SOL    HW127157   4.255   0.608  11.218
 8420SOL    HW227158   4.229   0.601  11.368
 8421SOL     OW27159   9.481  13.526   0.049
 8421SOL    HW127160   9.407  13.484   0.005
 8421SOL    HW227161   9.537  13.452   0.077
 8422SOL     OW27162  11.723  11.138   1.109
 8422SOL    HW127163  11.637  11.138   1.151
 8422SOL    HW227164  11.724  11.218   1.057
 8423SOL     OW27165  11.811   3.366   2.980
 8423SOL    HW127166  11.798   3.461   2.976
 8423SOL    HW227167  11.782   3.341   3.067
 8424SOL     OW27168   8.464  10.143   8.088
 8424SOL    HW127169   8.369  10.131   8.087
 8424SOL    HW227170   8.488  10.133   8.180
 8425SOL     OW27171  11.853   7.660   1.266
 8425SOL    HW127172  11.920   7.685   1.329
 8425SOL    HW227173  11.844   7.736   1.208
 8426SOL     OW27174   8.602   3.000  10.049
 8426SOL    HW127175   8.542   3.075  10.053
 8426SOL    HW227176   8.548   2.926  10.076
 8427SOL     OW27177   4.102  12.713   2.870
 8427SOL    HW127178   4.066  12.659   2.799
 8427SOL    HW227179   4.137  12.649   2.932
 8428SOL     OW27180   6.552   4.529   1.645
 8428SOL    HW127181   6.513   4.586   1.711
 8428SOL    HW227182   6.583   4.588   1.576
 8429SOL     OW27183   3.383   6.754   2.463
 8429SOL    HW127184   3.338   6.674   2.437
 8429SOL    HW227185   3.374   6.758   2.558
 8430SOL     OW27186  11.902   7.626  10.782
 8430SOL    HW127187  11.919   7.532  10.773
 8430SOL    HW227188  11.988   7.667  10.767
 8431SOL     OW27189   2.500  10.601   2.791
 8431SOL    HW127190   2.420  10.550   2.777
 8431SOL    HW227191   2.570  10.544   2.758
 8432SOL     OW27192  14.677  10.744   0.116
 8432SOL    HW127193  14.709  10.834   0.108
 8432SOL    HW227194  14.696  10.704   0.031
 8433SOL     OW27195   7.283  12.395   0.504
 8433SOL    HW127196   7.233  12.418   0.426
 8433SOL    HW227197   7.278  12.300   0.509
 8434SOL     OW27198   0.854   5.093   2.883
 8434SOL    HW127199   0.870   5.182   2.850
 8434SOL    HW227200   0.872   5.100   2.977
 8435SOL     OW27201   3.150  13.431  13.158
 8435SOL    HW127202   3.167  13.516  13.199
 8435SOL    HW227203   3.236  13.400  13.131
 8436SOL     OW27204   5.817  11.589   5.565
 8436SOL    HW127205   5.831  11.494   5.563
 8436SOL    HW227206   5.846  11.619   5.478
 8437SOL     OW27207   5.848   7.628   4.995
 8437SOL    HW127208   5.833   7.581   5.077
 8437SOL    HW227209   5.771   7.683   4.984
 8438SOL     OW27210   9.485   3.810   2.589
 8438SOL    HW127211   9.459   3.779   2.676
 8438SOL    HW227212   9.561   3.867   2.606
 8439SOL     OW27213  11.319   3.555   8.281
 8439SOL    HW127214  11.337   3.484   8.342
 8439SOL    HW227215  11.371   3.535   8.204
 8440SOL     OW27216   3.135   1.637  10.892
 8440SOL    HW127217   3.182   1.628  10.808
 8440SOL    HW227218   3.188   1.587  10.954
 8441SOL     OW27219   3.628   2.184   5.064
 8441SOL    HW127220   3.664   2.163   4.978
 8441SOL    HW227221   3.546   2.230   5.046
 8442SOL     OW27222   8.013  11.939   8.371
 8442SOL    HW127223   7.922  11.947   8.345
 8442SOL    HW227224   8.011  11.888   8.452
 8443SOL     OW27225   5.010   7.451   2.685
 8443SOL    HW127226   4.959   7.524   2.650
 8443SOL    HW227227   5.079   7.436   2.619
 8444SOL     OW27228  13.035   8.454   0.698
 8444SOL    HW127229  13.024   8.387   0.631
 8444SOL    HW227230  12.980   8.426   0.771
 8445SOL     OW27231  12.878  12.253  10.495
 8445SOL    HW127232  12.810  12.208  10.545
 8445SOL    HW227233  12.876  12.343  10.526
 8446SOL     OW27234  14.727  10.994   8.299
 8446SOL    HW127235  14.663  10.965   8.234
 8446SOL    HW227236  14.763  11.076   8.264
 8447SOL     OW27237  12.989  12.943   5.655
 8447SOL    HW127238  13.036  12.984   5.583
 8447SOL    HW227239  12.996  13.006   5.727
 8448SOL     OW27240   7.586  14.802   2.563
 8448SOL    HW127241   7.590  14.719   2.516
 8448SOL    HW227242   7.552  14.865   2.499
 8449SOL     OW27243   1.855   3.875   6.069
 8449SOL    HW127244   1.891   3.786   6.073
 8449SOL    HW227245   1.898   3.921   6.142
 8450SOL     OW27246   9.545  12.056   7.240
 8450SOL    HW127247   9.629  12.015   7.218
 8450SOL    HW227248   9.501  12.068   7.155
 8451SOL     OW27249  14.592   6.913   2.968
 8451SOL    HW127250  14.643   6.899   2.889
 8451SOL    HW227251  14.568   6.825   2.998
 8452SOL     OW27252   2.335  13.293   7.654
 8452SOL    HW127253   2.369  13.213   7.614
 8452SOL    HW227254   2.386  13.363   7.613
 8453SOL     OW27255  12.037   7.702   6.424
 8453SOL    HW127256  12.122   7.747   6.425
 8453SOL    HW227257  12.021   7.682   6.331
 8454SOL     OW27258   9.155   3.234   1.328
 8454SOL    HW127259   9.085   3.275   1.378
 8454SOL    HW227260   9.202   3.307   1.287
 8455SOL     OW27261   8.874   4.767   1.616
 8455SOL    HW127262   8.923   4.848   1.602
 8455SOL    HW227263   8.930   4.716   1.675
 8456SOL     OW27264  14.442   5.692   9.557
 8456SOL    HW127265  14.457   5.615   9.503
 8456SOL    HW227266  14.516   5.693   9.618
 8457SOL     OW27267   1.212  11.648  13.188
 8457SOL    HW127268   1.128  11.649  13.141
 8457SOL    HW227269   1.205  11.573  13.247
 8458SOL     OW27270  11.759  11.493   3.982
 8458SOL    HW127271  11.779  11.510   4.074
 8458SOL    HW227272  11.709  11.411   3.983
 8459SOL     OW27273   4.339  13.698   8.110
 8459SOL    HW127274   4.268  13.732   8.164
 8459SOL    HW227275   4.318  13.605   8.099
 8460SOL     OW27276   9.463   2.744  11.555
 8460SOL    HW127277   9.407   2.737  11.479
 8460SOL    HW227278   9.495   2.834  11.554
 8461SOL     OW27279  11.879  14.851   6.043
 8461SOL    HW127280  11.864   0.070   6.017
 8461SOL    HW227281  11.792  14.815   6.058
 8462SOL     OW27282  12.185   0.635   9.448
 8462SOL    HW127283  12.104   0.658   9.494
 8462SOL    HW227284  12.254   0.650   9.512
 8463SOL     OW27285  14.308   8.727  11.056
 8463SOL    HW127286  14.282   8.635  11.065
 8463SOL    HW227287  14.293   8.746  10.963
 8464SOL     OW27288   1.353   5.329  12.653
 8464SOL    HW127289   1.329   5.394  12.587
 8464SOL    HW227290   1.429   5.367  12.697
 8465SOL     OW27291   6.254   3.315   5.228
 8465SOL    HW127292   6.319   3.273   5.285
 8465SOL    HW227293   6.260   3.266   5.146
 8466SOL     OW27294   7.697  14.350  13.700
 8466SOL    HW127295   7.770  14.341  13.761
 8466SOL    HW227296   7.622  14.372  13.755
 8467SOL     OW27297   5.340   7.434   9.543
 8467SOL    HW127298   5.435   7.427   9.553
 8467SOL    HW227299   5.305   7.360   9.592
 8468SOL     OW27300  14.622   9.164   6.470
 8468SOL    HW127301  14.641   9.152   6.563
 8468SOL    HW227302  14.677   9.238   6.443
 8469SOL     OW27303   6.278  13.255   0.665
 8469SOL    HW127304   6.264  13.213   0.750
 8469SOL    HW227305   6.189  13.269   0.630
 8470SOL     OW27306  13.318  10.475   6.948
 8470SOL    HW127307  13.358  10.545   7.000
 8470SOL    HW227308  13.392  10.435   6.901
 8471SOL     OW27309   0.588  14.177   7.493
 8471SOL    HW127310   0.592  14.155   7.586
 8471SOL    HW227311   0.527  14.112   7.457
 8472SOL     OW27312   6.888   3.585  13.491
 8472SOL    HW127313   6.957   3.520  13.474
 8472SOL    HW227314   6.817   3.534  13.530
 8473SOL     OW27315  10.986  11.542   5.352
 8473SOL    HW127316  10.977  11.486   5.430
 8473SOL    HW227317  11.080  11.544   5.336
 8474SOL     OW27318  13.192   7.490  13.812
 8474SOL    HW127319  13.213   7.483  13.906
 8474SOL    HW227320  13.098   7.476  13.807
 8475SOL     OW27321  14.275   5.223   6.123
 8475SOL    HW127322  14.200   5.283   6.131
 8475SOL    HW227323  14.314   5.245   6.039
 8476SOL     OW27324  13.167  11.795   1.936
 8476SOL    HW127325  13.124  11.816   2.019
 8476SOL    HW227326  13.103  11.743   1.888
 8477SOL     OW27327   4.562   7.358   2.032
 8477SOL    HW127328   4.491   7.420   2.045
 8477SOL    HW227329   4.585   7.366   1.940
 8478SOL     OW27330   2.104   5.112   6.432
 8478SOL    HW127331   2.037   5.157   6.380
 8478SOL    HW227332   2.156   5.065   6.367
 8479SOL     OW27333   5.717   7.154   8.407
 8479SOL    HW127334   5.806   7.129   8.432
 8479SOL    HW227335   5.683   7.079   8.359
 8480SOL     OW27336   6.947   2.298  12.453
 8480SOL    HW127337   6.945   2.393  12.465
 8480SOL    HW227338   6.924   2.284  12.361
 8481SOL     OW27339   9.553  12.076  13.719
 8481SOL    HW127340   9.561  12.133  13.795
 8481SOL    HW227341   9.485  12.116  13.665
 8482SOL     OW27342   6.298   0.487  13.032
 8482SOL    HW127343   6.210   0.519  13.055
 8482SOL    HW227344   6.305   0.403  13.077
 8483SOL     OW27345   6.269   6.790  11.625
 8483SOL    HW127346   6.351   6.740  11.632
 8483SOL    HW227347   6.266   6.817  11.533
 8484SOL     OW27348   5.611   0.625  10.087
 8484SOL    HW127349   5.588   0.711  10.123
 8484SOL    HW227350   5.577   0.626   9.998
 8485SOL     OW27351  11.317   9.975   3.903
 8485SOL    HW127352  11.375   9.936   3.837
 8485SOL    HW227353  11.377  10.020   3.963
 8486SOL     OW27354  12.411   7.580   3.617
 8486SOL    HW127355  12.392   7.601   3.525
 8486SOL    HW227356  12.466   7.652   3.647
 8487SOL     OW27357   1.414   5.702   6.515
 8487SOL    HW127358   1.509   5.707   6.505
 8487SOL    HW227359   1.390   5.622   6.469
 8488SOL     OW27360   6.913   0.425  11.478
 8488SOL    HW127361   6.985   0.485  11.461
 8488SOL    HW227362   6.886   0.445  11.568
 8489SOL     OW27363   2.294  10.804   9.846
 8489SOL    HW127364   2.332  10.872   9.790
 8489SOL    HW227365   2.284  10.729   9.788
 8490SOL     OW27366   6.005   9.860   0.297
 8490SOL    HW127367   5.970   9.784   0.345
 8490SOL    HW227368   5.935   9.883   0.236
 8491SOL     OW27369   1.558  10.083   4.701
 8491SOL    HW127370   1.608  10.084   4.783
 8491SOL    HW227371   1.602  10.147   4.645
 8492SOL     OW27372   4.059  12.390  14.585
 8492SOL    HW127373   4.001  12.381  14.661
 8492SOL    HW227374   4.067  12.484  14.571
 8493SOL     OW27375  11.379  13.542  13.035
 8493SOL    HW127376  11.438  13.615  13.055
 8493SOL    HW227377  11.436  13.470  13.010
 8494SOL     OW27378  13.924   8.438  13.606
 8494SOL    HW127379  13.952   8.432  13.698
 8494SOL    HW227380  14.003   8.422  13.555
 8495SOL     OW27381  11.684  14.699   1.305
 8495SOL    HW127382  11.718  14.619   1.266
 8495SOL    HW227383  11.635  14.741   1.234
 8496SOL     OW27384   8.406   9.732  13.888
 8496SOL    HW127385   8.332   9.771  13.935
 8496SOL    HW227386   8.427   9.654  13.938
 8497SOL     OW27387   0.047   0.366  11.264
 8497SOL    HW127388   0.112   0.298  11.246
 8497SOL    HW227389   0.008   0.384  11.178
 8498SOL     OW27390   0.345  11.746   6.491
 8498SOL    HW127391   0.384  11.796   6.420
 8498SOL    HW227392   0.295  11.810   6.542
 8499SOL     OW27393   2.935   3.450   3.222
 8499SOL    HW127394   2.920   3.412   3.309
 8499SOL    HW227395   2.849   3.447   3.180
 8500SOL     OW27396   6.783   1.062   7.625
 8500SOL    HW127397   6.692   1.089   7.627
 8500SOL    HW227398   6.812   1.068   7.716
 8501SOL     OW27399  10.067   8.871   9.541
 8501SOL    HW127400  10.082   8.962   9.569
 8501SOL    HW227401  10.145   8.824   9.569
 8502SOL     OW27402  11.790   5.098   2.938
 8502SOL    HW127403  11.856   5.063   2.998
 8502SOL    HW227404  11.827   5.086   2.851
 8503SOL     OW27405   4.534  10.988   2.403
 8503SOL    HW127406   4.588  10.936   2.462
 8503SOL    HW227407   4.560  11.079   2.419
 8504SOL     OW27408   6.078  10.681   3.393
 8504SOL    HW127409   6.016  10.615   3.423
 8504SOL    HW227410   6.051  10.761   3.439
 8505SOL     OW27411   7.262   4.142   7.841
 8505SOL    HW127412   7.248   4.072   7.906
 8505SOL    HW227413   7.277   4.096   7.759
 8506SOL     OW27414   6.422   1.556   8.279
 8506SOL    HW127415   6.430   1.465   8.309
 8506SOL    HW227416   6.382   1.602   8.352
 8507SOL     OW27417   4.924   7.804   9.546
 8507SOL    HW127418   4.920   7.764   9.458
 8507SOL    HW227419   5.010   7.846   9.549
 8508SOL     OW27420  14.299  10.775  14.021
 8508SOL    HW127421  14.245  10.849  14.049
 8508SOL    HW227422  14.267  10.754  13.933
 8509SOL     OW27423  11.145   2.600   0.914
 8509SOL    HW127424  11.062   2.567   0.949
 8509SOL    HW227425  11.204   2.525   0.919
 8510SOL     OW27426   0.060   0.549   6.357
 8510SOL    HW127427   0.018   0.529   6.274
 8510SOL    HW227428   0.148   0.510   6.349
 8511SOL     OW27429   7.978   5.292  10.143
 8511SOL    HW127430   7.894   5.328  10.114
 8511SOL    HW227431   7.969   5.283  10.238
 8512SOL     OW27432  11.089  11.451   4.277
 8512SOL    HW127433  11.093  11.541   4.310
 8512SOL    HW227434  11.063  11.461   4.186
 8513SOL     OW27435   0.537  11.193   5.226
 8513SOL    HW127436   0.538  11.286   5.203
 8513SOL    HW227437   0.570  11.190   5.316
 8514SOL     OW27438   8.184  14.603   3.397
 8514SOL    HW127439   8.155  14.541   3.464
 8514SOL    HW227440   8.207  14.682   3.446
 8515SOL     OW27441  12.091  11.856  12.926
 8515SOL    HW127442  12.083  11.928  12.864
 8515SOL    HW227443  12.179  11.864  12.962
 8516SOL     OW27444   9.510  12.785   6.681
 8516SOL    HW127445   9.546  12.872   6.660
 8516SOL    HW227446   9.584  12.736   6.717
 8517SOL     OW27447   7.069   0.690   7.145
 8517SOL    HW127448   6.977   0.704   7.123
 8517SOL    HW227449   7.102   0.637   7.072
 8518SOL     OW27450   2.665   6.702  10.557
 8518SOL    HW127451   2.742   6.731  10.509
 8518SOL    HW227452   2.630   6.782  10.596
 8519SOL     OW27453   0.827   6.457   9.876
 8519SOL    HW127454   0.774   6.459   9.797
 8519SOL    HW227455   0.902   6.402   9.855
 8520SOL     OW27456   6.154   4.858  14.254
 8520SOL    HW127457   6.170   4.902  14.171
 8520SOL    HW227458   6.138   4.929  14.316
 8521SOL     OW27459   2.290   2.539  14.195
 8521SOL    HW127460   2.206   2.521  14.154
 8521SOL    HW227461   2.268   2.577  14.280
 8522SOL     OW27462   1.055  12.030   0.769
 8522SOL    HW127463   1.087  12.102   0.715
 8522SOL    HW227464   0.992  12.070   0.828
 8523SOL     OW27465  13.807  11.800   8.945
 8523SOL    HW127466  13.825  11.797   8.851
 8523SOL    HW227467  13.875  11.856   8.981
 8524SOL     OW27468   4.881  12.719   5.729
 8524SOL    HW127469   4.844  12.807   5.716
 8524SOL    HW227470   4.923  12.698   5.646
 8525SOL     OW27471   0.014   8.503   6.681
 8525SOL    HW127472  14.871   8.411   6.702
 8525SOL    HW227473  14.798   8.538   6.665
 8526SOL     OW27474   8.896   7.751  10.736
 8526SOL    HW127475   8.953   7.675  10.730
 8526SOL    HW227476   8.850   7.753  10.652
 8527SOL     OW27477  11.071   6.216  10.817
 8527SOL    HW127478  11.038   6.129  10.796
 8527SOL    HW227479  10.995   6.273  10.808
 8528SOL     OW27480   0.376   0.227   6.464
 8528SOL    HW127481   0.447   0.225   6.399
 8528SOL    HW227482   0.409   0.176   6.537
 8529SOL     OW27483  12.357   7.771  13.751
 8529SOL    HW127484  12.273   7.816  13.759
 8529SOL    HW227485  12.385   7.757  13.842
 8530SOL     OW27486   9.569   2.403   8.021
 8530SOL    HW127487   9.496   2.368   7.970
 8530SOL    HW227488   9.595   2.483   7.975
 8531SOL     OW27489   4.102  14.628   8.039
 8531SOL    HW127490   4.038  14.628   7.967
 8531SOL    HW227491   4.088  14.711   8.084
 8532SOL     OW27492   6.894  12.485   1.695
 8532SOL    HW127493   6.825  12.534   1.649
 8532SOL    HW227494   6.861  12.477   1.785
 8533SOL     OW27495   3.615  10.215   1.573
 8533SOL    HW127496   3.707  10.212   1.547
 8533SOL    HW227497   3.569  10.171   1.502
 8534SOL     OW27498   5.481  14.411   5.990
 8534SOL    HW127499   5.470  14.496   6.034
 8534SOL    HW227500   5.506  14.351   6.060
 8535SOL     OW27501   7.853   9.921  11.967
 8535SOL    HW127502   7.905   9.994  11.936
 8535SOL    HW227503   7.862   9.854  11.900
 8536SOL     OW27504  11.974  11.195  14.681
 8536SOL    HW127505  11.940  11.119  14.728
 8536SOL    HW227506  12.028  11.241  14.745
 8537SOL     OW27507  10.018   7.152   7.518
 8537SOL    HW127508   9.934   7.146   7.564
 8537SOL    HW227509  10.025   7.069   7.470
 8538SOL     OW27510   6.046   1.658   0.724
 8538SOL    HW127511   6.046   1.719   0.798
 8538SOL    HW227512   6.138   1.635   0.712
 8539SOL     OW27513  12.354  14.722   9.259
 8539SOL    HW127514  12.329  14.681   9.342
 8539SOL    HW227515  12.435  14.677   9.233
 8540SOL     OW27516   4.019   4.349   2.868
 8540SOL    HW127517   4.055   4.431   2.834
 8540SOL    HW227518   4.086   4.317   2.929
 8541SOL     OW27519   8.797   1.727   9.294
 8541SOL    HW127520   8.765   1.751   9.381
 8541SOL    HW227521   8.718   1.711   9.243
 8542SOL     OW27522  11.155  14.703   3.453
 8542SOL    HW127523  11.103  14.753   3.516
 8542SOL    HW227524  11.219  14.766   3.419
 8543SOL     OW27525   8.137   6.151   7.392
 8543SOL    HW127526   8.177   6.140   7.306
 8543SOL    HW227527   8.124   6.062   7.424
 8544SOL     OW27528   7.238  12.394  13.019
 8544SOL    HW127529   7.210  12.302  13.022
 8544SOL    HW227530   7.327  12.390  12.984
 8545SOL     OW27531   1.089  10.303  14.473
 8545SOL    HW127532   1.066  10.393  14.495
 8545SOL    HW227533   1.173  10.288  14.517
 8546SOL     OW27534   0.577   5.820  10.676
 8546SOL    HW127535   0.597   5.733  10.710
 8546SOL    HW227536   0.584   5.810  10.581
 8547SOL     OW27537  13.402   6.127   7.619
 8547SOL    HW127538  13.474   6.121   7.556
 8547SOL    HW227539  13.323   6.131   7.565
 8548SOL     OW27540   6.537   0.105  11.101
 8548SOL    HW127541   6.459   0.154  11.129
 8548SOL    HW227542   6.503   0.038  11.042
 8549SOL     OW27543   2.108   3.804   5.412
 8549SOL    HW127544   2.097   3.711   5.395
 8549SOL    HW227545   2.019   3.837   5.428
 8550SOL     OW27546   2.567   2.504   8.571
 8550SOL    HW127547   2.471   2.504   8.575
 8550SOL    HW227548   2.587   2.516   8.478
 8551SOL     OW27549  14.723  14.718   3.310
 8551SOL    HW127550  14.659  14.646   3.312
 8551SOL    HW227551  14.751  14.727   3.401
 8552SOL     OW27552   4.802   6.040  14.532
 8552SOL    HW127553   4.758   5.960  14.505
 8552SOL    HW227554   4.812   6.031  14.627
 8553SOL     OW27555   0.275   0.253   1.863
 8553SOL    HW127556   0.237   0.175   1.902
 8553SOL    HW227557   0.205   0.318   1.865
 8554SOL     OW27558   1.878   0.921  14.023
 8554SOL    HW127559   1.841   1.005  13.998
 8554SOL    HW227560   1.943   0.942  14.090
 8555SOL     OW27561   2.177   2.875   2.682
 8555SOL    HW127562   2.106   2.937   2.702
 8555SOL    HW227563   2.165   2.854   2.590
 8556SOL     OW27564  14.485   4.468  14.869
 8556SOL    HW127565  14.568   4.507   0.026
 8556SOL    HW227566  14.432   4.464   0.078
 8557SOL     OW27567   3.087  11.548   7.946
 8557SOL    HW127568   3.035  11.498   8.008
 8557SOL    HW227569   3.067  11.509   7.861
 8558SOL     OW27570   9.241   1.472   6.464
 8558SOL    HW127571   9.164   1.453   6.411
 8558SOL    HW227572   9.207   1.525   6.537
 8559SOL     OW27573   1.764   2.743   5.374
 8559SOL    HW127574   1.846   2.779   5.339
 8559SOL    HW227575   1.707   2.819   5.382
 8560SOL     OW27576  12.621   5.955   4.261
 8560SOL    HW127577  12.655   5.874   4.224
 8560SOL    HW227578  12.532   5.933   4.288
 8561SOL     OW27579   2.954   2.582   7.041
 8561SOL    HW127580   2.886   2.627   7.090
 8561SOL    HW227581   3.035   2.628   7.065
 8562SOL     OW27582   6.283  11.154  10.435
 8562SOL    HW127583   6.286  11.059  10.427
 8562SOL    HW227584   6.354  11.175  10.496
 8563SOL     OW27585   0.434   6.757   0.285
 8563SOL    HW127586   0.512   6.786   0.236
 8563SOL    HW227587   0.369   6.826   0.269
 8564SOL     OW27588   1.942  14.619   6.752
 8564SOL    HW127589   1.920  14.696   6.699
 8564SOL    HW227590   2.019  14.582   6.709
 8565SOL     OW27591  10.050  14.427  13.475
 8565SOL    HW127592  10.122  14.392  13.527
 8565SOL    HW227593  10.003  14.349  13.443
 8566SOL     OW27594   2.701  10.904  10.338
 8566SOL    HW127595   2.694  10.990  10.378
 8566SOL    HW227596   2.715  10.921  10.245
 8567SOL     OW27597   3.454   9.968   8.876
 8567SOL    HW127598   3.451  10.059   8.848
 8567SOL    HW227599   3.396   9.964   8.951
 8568SOL     OW27600   5.243  11.461   2.863
 8568SOL    HW127601   5.200  11.402   2.801
 8568SOL    HW227602   5.216  11.548   2.834
 8569SOL     OW27603  10.714   0.976  12.665
 8569SOL    HW127604  10.737   1.068  12.654
 8569SOL    HW227605  10.620   0.975  12.682
 8570SOL     OW27606   1.789   9.661   2.098
 8570SOL    HW127607   1.874   9.622   2.080
 8570SOL    HW227608   1.784   9.663   2.194
 8571SOL     OW27609   2.381   8.665   9.920
 8571SOL    HW127610   2.327   8.727   9.970
 8571SOL    HW227611   2.450   8.719   9.882
 8572SOL     OW27612   3.226   9.006   8.984
 8572SOL    HW127613   3.248   9.009   8.891
 8572SOL    HW227614   3.247   8.917   9.011
 8573SOL     OW27615   8.185   3.850   7.209
 8573SOL    HW127616   8.111   3.904   7.182
 8573SOL    HW227617   8.253   3.868   7.144
 8574SOL     OW27618  14.430  10.369   2.777
 8574SOL    HW127619  14.357  10.310   2.796
 8574SOL    HW227620  14.421  10.440   2.840
 8575SOL     OW27621   4.380   4.537   6.017
 8575SOL    HW127622   4.399   4.630   6.019
 8575SOL    HW227623   4.384   4.510   6.109
 8576SOL     OW27624   3.252  12.570  12.826
 8576SOL    HW127625   3.157  12.567  12.835
 8576SOL    HW227626   3.277  12.480  12.806
 8577SOL     OW27627  14.186  13.126   6.595
 8577SOL    HW127628  14.096  13.117   6.563
 8577SOL    HW227629  14.240  13.097   6.522
 8578SOL     OW27630  13.561   4.752   0.791
 8578SOL    HW127631  13.554   4.684   0.723
 8578SOL    HW227632  13.497   4.725   0.857
 8579SOL     OW27633  13.216   9.356   6.598
 8579SOL    HW127634  13.176   9.406   6.527
 8579SOL    HW227635  13.310   9.369   6.588
 8580SOL     OW27636  13.560   4.914   2.481
 8580SOL    HW127637  13.646   4.871   2.485
 8580SOL    HW227638  13.581   5.007   2.468
 8581SOL     OW27639   7.947  13.157   3.177
 8581SOL    HW127640   8.024  13.200   3.213
 8581SOL    HW227641   7.980  13.107   3.102
 8582SOL     OW27642   5.927   2.021  11.616
 8582SOL    HW127643   5.896   2.037  11.705
 8582SOL    HW227644   5.972   2.102  11.592
 8583SOL     OW27645   7.726   5.366   9.677
 8583SOL    HW127646   7.754   5.291   9.728
 8583SOL    HW227647   7.677   5.329   9.604
 8584SOL     OW27648   1.744   8.156   5.923
 8584SOL    HW127649   1.713   8.065   5.926
 8584SOL    HW227650   1.782   8.165   5.836
 8585SOL     OW27651   9.107   5.440  10.061
 8585SOL    HW127652   9.169   5.368  10.048
 8585SOL    HW227653   9.105   5.452  10.156
 8586SOL     OW27654   5.367   1.724  10.159
 8586SOL    HW127655   5.275   1.705  10.180
 8586SOL    HW227656   5.414   1.705  10.240
 8587SOL     OW27657  11.630   6.931   4.220
 8587SOL    HW127658  11.606   6.979   4.141
 8587SOL    HW227659  11.568   6.858   4.223
 8588SOL     OW27660  10.677  10.372   2.392
 8588SOL    HW127661  10.732  10.350   2.317
 8588SOL    HW227662  10.739  10.388   2.463
 8589SOL     OW27663   2.314  13.572   9.302
 8589SOL    HW127664   2.397  13.619   9.302
 8589SOL    HW227665   2.336  13.483   9.275
 8590SOL     OW27666  12.961  10.818   4.550
 8590SOL    HW127667  12.876  10.775   4.559
 8590SOL    HW227668  13.020  10.767   4.606
 8591SOL     OW27669   6.180   5.044   4.039
 8591SOL    HW127670   6.140   5.118   4.084
 8591SOL    HW227671   6.112   4.977   4.037
 8592SOL     OW27672  11.377  12.733  13.268
 8592SOL    HW127673  11.434  12.657  13.257
 8592SOL    HW227674  11.320  12.710  13.342
 8593SOL     OW27675   5.138   5.476   4.832
 8593SOL    HW127676   5.193   5.551   4.854
 8593SOL    HW227677   5.149   5.415   4.905
 8594SOL     OW27678   6.860   3.958  12.293
 8594SOL    HW127679   6.923   3.890  12.316
 8594SOL    HW227680   6.775   3.916  12.301
 8595SOL     OW27681   8.110   2.528  10.105
 8595SOL    HW127682   8.169   2.518  10.030
 8595SOL    HW227683   8.036   2.470  10.086
 8596SOL     OW27684  13.296   7.592  12.732
 8596SOL    HW127685  13.314   7.604  12.639
 8596SOL    HW227686  13.377   7.617  12.776
 8597SOL     OW27687   5.810  10.723   1.191
 8597SOL    HW127688   5.751  10.739   1.117
 8597SOL    HW227689   5.773  10.646   1.235
 8598SOL     OW27690  13.030   3.740   0.349
 8598SOL    HW127691  13.028   3.650   0.382
 8598SOL    HW227692  13.055   3.793   0.425
 8599SOL     OW27693  10.854   6.150   3.470
 8599SOL    HW127694  10.882   6.233   3.431
 8599SOL    HW227695  10.871   6.161   3.563
 8600SOL     OW27696   2.327   1.012  12.216
 8600SOL    HW127697   2.344   1.006  12.122
 8600SOL    HW227698   2.232   1.011  12.224
 8601SOL     OW27699   7.703   9.686   1.934
 8601SOL    HW127700   7.621   9.692   1.884
 8601SOL    HW227701   7.696   9.602   1.979
 8602SOL     OW27702   8.392   0.326   6.192
 8602SOL    HW127703   8.391   0.235   6.222
 8602SOL    HW227704   8.484   0.351   6.192
 8603SOL     OW27705   1.799   4.345  11.929
 8603SOL    HW127706   1.705   4.327  11.934
 8603SOL    HW227707   1.810   4.431  11.969
 8604SOL     OW27708  12.766   3.773  11.231
 8604SOL    HW127709  12.751   3.720  11.152
 8604SOL    HW227710  12.861   3.779  11.238
 8605SOL     OW27711  11.610  13.860   8.765
 8605SOL    HW127712  11.680  13.828   8.822
 8605SOL    HW227713  11.543  13.893   8.824
 8606SOL     OW27714   1.912   8.343   9.480
 8606SOL    HW127715   1.853   8.342   9.404
 8606SOL    HW227716   1.949   8.254   9.483
 8607SOL     OW27717   8.274   3.753   4.133
 8607SOL    HW127718   8.247   3.709   4.214
 8607SOL    HW227719   8.226   3.707   4.064
 8608SOL     OW27720  13.690  11.829   3.994
 8608SOL    HW127721  13.771  11.850   3.947
 8608SOL    HW227722  13.645  11.913   4.001
 8609SOL     OW27723   5.796   9.849   2.648
 8609SOL    HW127724   5.806   9.804   2.565
 8609SOL    HW227725   5.755   9.933   2.626
 8610SOL     OW27726   0.460  13.687   0.623
 8610SOL    HW127727   0.404  13.764   0.625
 8610SOL    HW227728   0.524  13.701   0.693
 8611SOL     OW27729   3.475   7.818  13.789
 8611SOL    HW127730   3.448   7.823  13.881
 8611SOL    HW227731   3.395   7.838  13.740
 8612SOL     OW27732   6.663   1.132   8.845
 8612SOL    HW127733   6.736   1.186   8.876
 8612SOL    HW227734   6.605   1.193   8.800
 8613SOL     OW27735   1.544  11.525  11.707
 8613SOL    HW127736   1.502  11.507  11.623
 8613SOL    HW227737   1.550  11.620  11.712
 8614SOL     OW27738   8.564   5.394   1.746
 8614SOL    HW127739   8.601   5.324   1.692
 8614SOL    HW227740   8.631   5.463   1.746
 8615SOL     OW27741   8.620   0.171  14.130
 8615SOL    HW127742   8.659   0.254  14.103
 8615SOL    HW227743   8.532   0.174  14.094
 8616SOL     OW27744  11.716   1.893   6.719
 8616SOL    HW127745  11.726   1.847   6.802
 8616SOL    HW227746  11.741   1.829   6.652
 8617SOL     OW27747   7.462   4.980   0.116
 8617SOL    HW127748   7.505   4.955   0.198
 8617SOL    HW227749   7.389   5.036   0.143
 8618SOL     OW27750   5.482   0.506   4.779
 8618SOL    HW127751   5.542   0.477   4.711
 8618SOL    HW227752   5.524   0.583   4.817
 8619SOL     OW27753   0.030   7.605  14.074
 8619SOL    HW127754   0.071   7.663  14.138
 8619SOL    HW227755  14.826   7.655  14.042
 8620SOL     OW27756  14.383   4.373   5.902
 8620SOL    HW127757  14.383   4.468   5.911
 8620SOL    HW227758  14.464   4.353   5.855
 8621SOL     OW27759   9.309   1.091  12.832
 8621SOL    HW127760   9.404   1.079  12.822
 8621SOL    HW227761   9.278   1.104  12.742
 8622SOL     OW27762   9.441   2.019  11.319
 8622SOL    HW127763   9.475   2.060  11.240
 8622SOL    HW227764   9.457   1.925  11.306
 8623SOL     OW27765   1.620   2.666   0.796
 8623SOL    HW127766   1.601   2.585   0.844
 8623SOL    HW227767   1.711   2.656   0.767
 8624SOL     OW27768  13.558   2.653  11.899
 8624SOL    HW127769  13.562   2.579  11.960
 8624SOL    HW227770  13.648   2.665  11.870
 8625SOL     OW27771   0.319  14.834  12.476
 8625SOL    HW127772   0.257   0.028  12.446
 8625SOL    HW227773   0.318  14.766  12.408
 8626SOL     OW27774  14.447   8.728  12.484
 8626SOL    HW127775  14.452   8.786  12.408
 8626SOL    HW227776  14.536   8.726  12.519
 8627SOL     OW27777   5.262   9.004  13.829
 8627SOL    HW127778   5.207   8.987  13.752
 8627SOL    HW227779   5.200   9.020  13.900
 8628SOL     OW27780   7.890  12.641   4.618
 8628SOL    HW127781   7.897  12.682   4.532
 8628SOL    HW227782   7.929  12.704   4.679
 8629SOL     OW27783   3.481  12.759   1.633
 8629SOL    HW127784   3.408  12.712   1.675
 8629SOL    HW227785   3.544  12.690   1.610
 8630SOL     OW27786   0.304   5.376  14.441
 8630SOL    HW127787   0.278   5.306  14.501
 8630SOL    HW227788   0.223   5.422  14.422
 8631SOL     OW27789   7.050   7.624   7.433
 8631SOL    HW127790   7.035   7.697   7.494
 8631SOL    HW227791   7.101   7.662   7.362
 8632SOL     OW27792   2.509   7.127   6.478
 8632SOL    HW127793   2.572   7.170   6.420
 8632SOL    HW227794   2.456   7.072   6.420
 8633SOL     OW27795   7.494   3.259  11.820
 8633SOL    HW127796   7.546   3.339  11.818
 8633SOL    HW227797   7.554   3.192  11.852
 8634SOL     OW27798   0.941   3.617   4.856
 8634SOL    HW127799   0.927   3.617   4.950
 8634SOL    HW227800   0.855   3.597   4.819
 8635SOL     OW27801   0.734   1.221   1.498
 8635SOL    HW127802   0.681   1.217   1.578
 8635SOL    HW227803   0.702   1.148   1.445
 8636SOL     OW27804   5.289   8.044  10.486
 8636SOL    HW127805   5.273   8.121  10.430
 8636SOL    HW227806   5.316   7.976  10.425
 8637SOL     OW27807   6.061  10.243   0.644
 8637SOL    HW127808   6.009  10.322   0.628
 8637SOL    HW227809   6.142  10.257   0.596
 8638SOL     OW27810   2.377   1.183  10.601
 8638SOL    HW127811   2.457   1.130  10.596
 8638SOL    HW227812   2.402   1.266  10.559
 8639SOL     OW27813   9.165   8.686   8.044
 8639SOL    HW127814   9.225   8.743   7.996
 8639SOL    HW227815   9.084   8.687   7.991
 8640SOL     OW27816   5.426   1.328  11.161
 8640SOL    HW127817   5.500   1.368  11.207
 8640SOL    HW227818   5.381   1.401  11.119
 8641SOL     OW27819   5.066  13.959   8.966
 8641SOL    HW127820   5.147  13.910   8.979
 8641SOL    HW227821   5.023  13.914   8.893
 8642SOL     OW27822  13.459  13.539   6.567
 8642SOL    HW127823  13.438  13.632   6.552
 8642SOL    HW227824  13.445  13.498   6.482
 8643SOL     OW27825   1.492  10.392  13.513
 8643SOL    HW127826   1.464  10.318  13.458
 8643SOL    HW227827   1.582  10.369  13.539
 8644SOL     OW27828   6.865  13.639   0.393
 8644SOL    HW127829   6.890  13.624   0.484
 8644SOL    HW227830   6.838  13.552   0.361
 8645SOL     OW27831   8.267  11.375   2.209
 8645SOL    HW127832   8.247  11.306   2.273
 8645SOL    HW227833   8.191  11.432   2.211
 8646SOL     OW27834   8.566   8.445   9.246
 8646SOL    HW127835   8.552   8.354   9.219
 8646SOL    HW227836   8.654   8.445   9.284
 8647SOL     OW27837   1.717  12.802  13.177
 8647SOL    HW127838   1.757  12.742  13.240
 8647SOL    HW227839   1.624  12.783  13.182
 8648SOL     OW27840   2.937   5.656   5.440
 8648SOL    HW127841   2.869   5.589   5.433
 8648SOL    HW227842   2.936   5.680   5.533
 8649SOL     OW27843  12.279  11.025   7.858
 8649SOL    HW127844  12.354  10.984   7.901
 8649SOL    HW227845  12.203  10.993   7.907
 8650SOL     OW27846   9.943   9.343   1.367
 8650SOL    HW127847   9.925   9.412   1.304
 8650SOL    HW227848   9.858   9.320   1.404
 8651SOL     OW27849   7.343  10.712  13.293
 8651SOL    HW127850   7.299  10.676  13.216
 8651SOL    HW227851   7.380  10.795  13.263
 8652SOL     OW27852  10.854  14.119   3.972
 8652SOL    HW127853  10.902  14.115   3.889
 8652SOL    HW227854  10.762  14.113   3.946
 8653SOL     OW27855   4.838   8.576  12.639
 8653SOL    HW127856   4.832   8.481  12.629
 8653SOL    HW227857   4.925   8.597  12.605
 8654SOL     OW27858   0.809   1.117  14.510
 8654SOL    HW127859   0.815   1.211  14.491
 8654SOL    HW227860   0.775   1.114  14.599
 8655SOL     OW27861  11.351   4.957   0.301
 8655SOL    HW127862  11.309   5.038   0.329
 8655SOL    HW227863  11.303   4.931   0.222
 8656SOL     OW27864   2.986   6.212   7.306
 8656SOL    HW127865   3.051   6.162   7.356
 8656SOL    HW227866   3.023   6.218   7.218
 8657SOL     OW27867  10.813   0.235  11.640
 8657SOL    HW127868  10.799   0.276  11.725
 8657SOL    HW227869  10.845   0.305  11.584
 8658SOL     OW27870   7.683  10.196   9.835
 8658SOL    HW127871   7.687  10.235   9.747
 8658SOL    HW227872   7.684  10.102   9.820
 8659SOL     OW27873   3.017  10.087   0.496
 8659SOL    HW127874   2.949  10.119   0.437
 8659SOL    HW227875   3.061  10.166   0.527
 8660SOL     OW27876   7.266   1.674  10.034
 8660SOL    HW127877   7.242   1.637  10.119
 8660SOL    HW227878   7.288   1.766  10.053
 8661SOL     OW27879   6.218  14.377  13.570
 8661SOL    HW127880   6.272  14.307  13.534
 8661SOL    HW227881   6.183  14.421  13.492
 8662SOL     OW27882   6.642   4.852   9.962
 8662SOL    HW127883   6.694   4.845   9.882
 8662SOL    HW227884   6.663   4.939   9.996
 8663SOL     OW27885   3.840  10.330   3.932
 8663SOL    HW127886   3.864  10.289   4.015
 8663SOL    HW227887   3.894  10.284   3.867
 8664SOL     OW27888   8.040   2.814   6.071
 8664SOL    HW127889   7.948   2.804   6.092
 8664SOL    HW227890   8.084   2.746   6.121
 8665SOL     OW27891   5.722   3.332   0.001
 8665SOL    HW127892   5.767   3.388  14.810
 8665SOL    HW227893   5.691   3.257  14.821
 8666SOL     OW27894  11.774   3.591  10.443
 8666SOL    HW127895  11.707   3.607  10.509
 8666SOL    HW227896  11.813   3.677  10.427
 8667SOL     OW27897  12.847   8.278  14.006
 8667SOL    HW127898  12.883   8.287  14.094
 8667SOL    HW227899  12.807   8.191  14.005
 8668SOL     OW27900   4.570   0.210   8.951
 8668SOL    HW127901   4.574   0.134   9.010
 8668SOL    HW227902   4.654   0.255   8.963
 8669SOL     OW27903   8.508   6.590  13.148
 8669SOL    HW127904   8.468   6.669  13.112
 8669SOL    HW227905   8.589   6.579  13.099
 8670SOL     OW27906   4.177  11.618   8.391
 8670SOL    HW127907   4.264  11.649   8.417
 8670SOL    HW227908   4.122  11.634   8.467
 8671SOL     OW27909   7.868   3.229   6.149
 8671SOL    HW127910   7.933   3.235   6.078
 8671SOL    HW227911   7.803   3.168   6.116
 8672SOL     OW27912   9.987   9.339   5.529
 8672SOL    HW127913  10.070   9.379   5.557
 8672SOL    HW227914   9.927   9.413   5.519
 8673SOL     OW27915  10.763  13.135   0.805
 8673SOL    HW127916  10.698  13.168   0.743
 8673SOL    HW227917  10.770  13.042   0.783
 8674SOL     OW27918   8.169   1.910   9.160
 8674SOL    HW127919   8.232   1.926   9.230
 8674SOL    HW227920   8.144   1.997   9.130
 8675SOL     OW27921   7.308   3.130   0.585
 8675SOL    HW127922   7.346   3.087   0.661
 8675SOL    HW227923   7.324   3.223   0.599
 8676SOL     OW27924  12.064  13.139  10.076
 8676SOL    HW127925  12.021  13.148  10.161
 8676SOL    HW227926  12.158  13.143  10.096
 8677SOL     OW27927  14.502   8.583   1.151
 8677SOL    HW127928  14.568   8.601   1.084
 8677SOL    HW227929  14.539   8.620   1.231
 8678SOL     OW27930   0.935  10.304  12.785
 8678SOL    HW127931   0.985  10.259  12.854
 8678SOL    HW227932   0.899  10.382  12.828
 8679SOL     OW27933   0.812   2.475   6.783
 8679SOL    HW127934   0.790   2.473   6.876
 8679SOL    HW227935   0.745   2.419   6.742
 8680SOL     OW27936   7.618   6.875   5.107
 8680SOL    HW127937   7.647   6.792   5.068
 8680SOL    HW227938   7.547   6.849   5.166
 8681SOL     OW27939   6.525   1.756   2.827
 8681SOL    HW127940   6.538   1.673   2.781
 8681SOL    HW227941   6.433   1.777   2.814
 8682SOL     OW27942   0.523   4.927   5.963
 8682SOL    HW127943   0.448   4.916   6.023
 8682SOL    HW227944   0.486   4.917   5.876
 8683SOL     OW27945   2.471  10.605   4.344
 8683SOL    HW127946   2.419  10.685   4.336
 8683SOL    HW227947   2.561  10.636   4.356
 8684SOL     OW27948  11.221   3.489   9.444
 8684SOL    HW127949  11.245   3.430   9.515
 8684SOL    HW227950  11.286   3.559   9.447
 8685SOL     OW27951  12.472   5.336  11.164
 8685SOL    HW127952  12.503   5.336  11.073
 8685SOL    HW227953  12.415   5.259  11.169
 8686SOL     OW27954   3.488  13.223  10.848
 8686SOL    HW127955   3.417  13.182  10.798
 8686SOL    HW227956   3.474  13.195  10.938
 8687SOL     OW27957   7.374   4.520  10.405
 8687SOL    HW127958   7.445   4.489  10.349
 8687SOL    HW227959   7.413   4.527  10.492
 8688SOL     OW27960   3.940   5.406  12.600
 8688SOL    HW127961   3.947   5.495  12.565
 8688SOL    HW227962   3.955   5.415  12.694
 8689SOL     OW27963  12.684   1.448   1.670
 8689SOL    HW127964  12.760   1.418   1.620
 8689SOL    HW227965  12.718   1.463   1.758
 8690SOL     OW27966   9.521   2.276   0.873
 8690SOL    HW127967   9.450   2.261   0.811
 8690SOL    HW227968   9.520   2.199   0.931
 8691SOL     OW27969   8.092   8.032  10.202
 8691SOL    HW127970   8.154   7.974  10.247
 8691SOL    HW227971   8.032   8.060  10.271
 8692SOL     OW27972   5.854   1.777   3.265
 8692SOL    HW127973   5.928   1.814   3.313
 8692SOL    HW227974   5.827   1.701   3.317
 8693SOL     OW27975   9.932   6.342   1.864
 8693SOL    HW127976  10.002   6.375   1.808
 8693SOL    HW227977   9.948   6.247   1.868
 8694SOL     OW27978   3.227   3.951   1.926
 8694SOL    HW127979   3.286   3.982   1.995
 8694SOL    HW227980   3.247   4.007   1.850
 8695SOL     OW27981   7.685   8.268  13.916
 8695SOL    HW127982   7.655   8.262  14.007
 8695SOL    HW227983   7.755   8.204  13.909
 8696SOL     OW27984   4.357   9.534   2.539
 8696SOL    HW127985   4.417   9.494   2.476
 8696SOL    HW227986   4.348   9.468   2.608
 8697SOL     OW27987  14.522  14.533   0.727
 8697SOL    HW127988  14.592  14.484   0.769
 8697SOL    HW227989  14.505  14.487   0.645
 8698SOL     OW27990   7.806   1.974  13.471
 8698SOL    HW127991   7.721   1.988  13.430
 8698SOL    HW227992   7.809   2.037  13.543
 8699SOL     OW27993  13.667   0.118   8.348
 8699SOL    HW127994  13.648   0.044   8.405
 8699SOL    HW227995  13.597   0.181   8.367
 8700SOL     OW27996  12.928   1.910  13.906
 8700SOL    HW127997  12.910   1.988  13.853
 8700SOL    HW227998  12.846   1.860  13.905
 8701SOL     OW27999  13.832  13.187   9.663
 8701SOL    HW128000  13.753  13.133   9.657
 8701SOL    HW228001  13.865  13.191   9.573
 8702SOL     OW28002   7.805   0.041  12.044
 8702SOL    HW128003   7.712   0.051  12.025
 8702SOL    HW228004   7.809   0.016  12.136
 8703SOL     OW28005   2.974   9.518  12.954
 8703SOL    HW128006   3.022   9.475  12.883
 8703SOL    HW228007   2.893   9.468  12.962
 8704SOL     OW28008  14.129  13.720   7.286
 8704SOL    HW128009  14.071  13.764   7.349
 8704SOL    HW228010  14.190  13.671   7.340
 8705SOL     OW28011   7.484   4.942  10.118
 8705SOL    HW128012   7.424   4.992  10.173
 8705SOL    HW228013   7.543   4.898  10.179
 8706SOL     OW28014   9.404   0.736   6.535
 8706SOL    HW128015   9.436   0.809   6.482
 8706SOL    HW228016   9.330   0.771   6.583
 8707SOL     OW28017   8.027  11.208   0.360
 8707SOL    HW128018   8.072  11.272   0.304
 8707SOL    HW228019   7.958  11.257   0.402
 8708SOL     OW28020   9.481   7.916   0.733
 8708SOL    HW128021   9.507   7.925   0.641
 8708SOL    HW228022   9.385   7.918   0.731
 8709SOL     OW28023  14.392   8.730  12.783
 8709SOL    HW128024  14.449   8.742  12.707
 8709SOL    HW228025  14.400   8.637  12.806
 8710SOL     OW28026   1.320   3.150   5.358
 8710SOL    HW128027   1.280   3.208   5.293
 8710SOL    HW228028   1.396   3.198   5.389
 8711SOL     OW28029   3.221   4.585   2.705
 8711SOL    HW128030   3.273   4.657   2.740
 8711SOL    HW228031   3.131   4.605   2.733
 8712SOL     OW28032   0.721   1.609   9.715
 8712SOL    HW128033   0.798   1.619   9.659
 8712SOL    HW228034   0.649   1.591   9.655
 8713SOL     OW28035   1.556  13.683  11.927
 8713SOL    HW128036   1.611  13.611  11.897
 8713SOL    HW228037   1.618  13.752  11.953
 8714SOL     OW28038   3.131   2.810   8.608
 8714SOL    HW128039   3.075   2.755   8.663
 8714SOL    HW228040   3.098   2.899   8.622
 8715SOL     OW28041   6.327  14.014   9.535
 8715SOL    HW128042   6.341  13.921   9.549
 8715SOL    HW228043   6.305  14.022   9.443
 8716SOL     OW28044  10.031  12.167   0.643
 8716SOL    HW128045  10.117  12.208   0.652
 8716SOL    HW228046  10.049  12.073   0.645
 8717SOL     OW28047   9.126   2.910  12.883
 8717SOL    HW128048   9.099   2.947  12.799
 8717SOL    HW228049   9.100   2.976  12.947
 8718SOL     OW28050  12.576   1.598  13.815
 8718SOL    HW128051  12.502   1.539  13.824
 8718SOL    HW228052  12.542   1.673  13.765
 8719SOL     OW28053   1.904  10.744  13.341
 8719SOL    HW128054   1.995  10.719  13.323
 8719SOL    HW228055   1.855  10.714  13.264
 8720SOL     OW28056   4.511   5.197   6.327
 8720SOL    HW128057   4.457   5.196   6.406
 8720SOL    HW228058   4.451   5.225   6.257
 8721SOL     OW28059   6.003   9.062  11.620
 8721SOL    HW128060   6.007   8.986  11.678
 8721SOL    HW228061   5.912   9.065  11.591
 8722SOL     OW28062   2.934  13.924   2.834
 8722SOL    HW128063   2.969  13.981   2.766
 8722SOL    HW228064   2.978  13.952   2.915
 8723SOL     OW28065   3.802   0.598  14.696
 8723SOL    HW128066   3.810   0.643  14.612
 8723SOL    HW228067   3.863   0.644  14.754
 8724SOL     OW28068  13.138   6.851  12.765
 8724SOL    HW128069  13.120   6.896  12.682
 8724SOL    HW228070  13.233   6.840  12.765
 8725SOL     OW28071   3.645   3.784   1.102
 8725SOL    HW128072   3.646   3.858   1.041
 8725SOL    HW228073   3.614   3.822   1.184
 8726SOL     OW28074   1.381   7.938  13.257
 8726SOL    HW128075   1.435   7.871  13.215
 8726SOL    HW228076   1.362   8.000  13.187
 8727SOL     OW28077   4.330  14.059   6.876
 8727SOL    HW128078   4.269  14.045   6.949
 8727SOL    HW228079   4.412  14.083   6.918
 8728SOL     OW28080  12.627  13.756  14.652
 8728SOL    HW128081  12.672  13.821  14.707
 8728SOL    HW228082  12.563  13.807  14.603
 8729SOL     OW28083  11.929  11.480   6.793
 8729SOL    HW128084  11.931  11.393   6.753
 8729SOL    HW228085  11.910  11.464   6.886
 8730SOL     OW28086   8.512  14.001   0.741
 8730SOL    HW128087   8.437  14.031   0.793
 8730SOL    HW228088   8.588  14.035   0.789
 8731SOL     OW28089   1.706  12.354   5.236
 8731SOL    HW128090   1.653  12.431   5.220
 8731SOL    HW228091   1.795  12.388   5.248
 8732SOL     OW28092   2.735   0.603   9.767
 8732SOL    HW128093   2.800   0.670   9.747
 8732SOL    HW228094   2.786   0.531   9.805
 8733SOL     OW28095  11.450  10.379  14.093
 8733SOL    HW128096  11.388  10.452  14.092
 8733SOL    HW228097  11.521  10.410  14.149
 8734SOL     OW28098   8.213   4.263  12.631
 8734SOL    HW128099   8.142   4.327  12.621
 8734SOL    HW228100   8.233   4.264  12.725
 8735SOL     OW28101   2.006  11.544  14.667
 8735SOL    HW128102   2.101  11.537  14.656
 8735SOL    HW228103   1.979  11.458  14.700
 8736SOL     OW28104   9.270  11.716   5.807
 8736SOL    HW128105   9.334  11.765   5.858
 8736SOL    HW228106   9.194  11.707   5.865
 8737SOL     OW28107   9.373  12.920   7.707
 8737SOL    HW128108   9.446  12.880   7.661
 8737SOL    HW228109   9.352  12.860   7.778
 8738SOL     OW28110   3.839   0.097  14.663
 8738SOL    HW128111   3.792   0.165  14.614
 8738SOL    HW228112   3.857   0.137  14.748
 8739SOL     OW28113  10.851   8.907  11.347
 8739SOL    HW128114  10.796   8.980  11.376
 8739SOL    HW228115  10.831   8.897  11.254
 8740SOL     OW28116  14.093   9.716   4.212
 8740SOL    HW128117  14.147   9.793   4.198
 8740SOL    HW228118  14.153   9.642   4.201
 8741SOL     OW28119   9.427  14.024   0.293
 8741SOL    HW128120   9.413  13.933   0.268
 8741SOL    HW228121   9.459  14.066   0.213
 8742SOL     OW28122   4.410   7.906   4.160
 8742SOL    HW128123   4.364   7.986   4.186
 8742SOL    HW228124   4.474   7.935   4.095
 8743SOL     OW28125   3.012   7.797   1.681
 8743SOL    HW128126   2.921   7.785   1.707
 8743SOL    HW228127   3.062   7.749   1.747
 8744SOL     OW28128  10.958   3.320  14.563
 8744SOL    HW128129  10.931   3.231  14.584
 8744SOL    HW228130  10.894   3.351  14.500
 8745SOL     OW28131   1.387  14.130   5.751
 8745SOL    HW128132   1.407  14.080   5.672
 8745SOL    HW228133   1.298  14.162   5.738
 8746SOL     OW28134   8.445  14.373  13.861
 8746SOL    HW128135   8.519  14.430  13.838
 8746SOL    HW228136   8.421  14.331  13.779
 8747SOL     OW28137   0.786  12.965  10.439
 8747SOL    HW128138   0.869  13.011  10.431
 8747SOL    HW228139   0.758  12.948  10.349
 8748SOL     OW28140  10.569   8.985   4.987
 8748SOL    HW128141  10.644   9.023   4.941
 8748SOL    HW228142  10.543   8.910   4.932
 8749SOL     OW28143   0.759   9.884   6.887
 8749SOL    HW128144   0.803   9.868   6.803
 8749SOL    HW228145   0.731   9.797   6.916
 8750SOL     OW28146  10.225   1.635   8.469
 8750SOL    HW128147  10.258   1.549   8.496
 8750SOL    HW228148  10.182   1.670   8.548
 8751SOL     OW28149  10.525   5.079  14.857
 8751SOL    HW128150  10.567   5.046  14.778
 8751SOL    HW228151  10.470   5.006   0.015
 8752SOL     OW28152   1.878  10.517   5.179
 8752SOL    HW128153   1.965  10.478   5.175
 8752SOL    HW228154   1.842  10.505   5.091
 8753SOL     OW28155   1.549   0.782   4.133
 8753SOL    HW128156   1.569   0.870   4.099
 8753SOL    HW228157   1.601   0.723   4.079
 8754SOL     OW28158  14.485   0.876   5.925
 8754SOL    HW128159  14.570   0.849   5.889
 8754SOL    HW228160  14.423   0.864   5.852
 8755SOL     OW28161  14.234   1.941  13.843
 8755SOL    HW128162  14.219   1.920  13.936
 8755SOL    HW228163  14.311   1.890  13.819
 8756SOL     OW28164   1.195   9.726   5.306
 8756SOL    HW128165   1.184   9.724   5.401
 8756SOL    HW228166   1.109   9.751   5.273
 8757SOL     OW28167   1.333  10.575   9.043
 8757SOL    HW128168   1.299  10.561   9.131
 8757SOL    HW228169   1.398  10.506   9.031
 8758SOL     OW28170   2.525  13.831   2.992
 8758SOL    HW128171   2.585  13.890   3.038
 8758SOL    HW228172   2.487  13.777   3.062
 8759SOL     OW28173  10.859  13.068   3.686
 8759SOL    HW128174  10.891  13.153   3.657
 8759SOL    HW228175  10.764  13.072   3.672
 8760SOL     OW28176   7.271   8.550  13.119
 8760SOL    HW128177   7.266   8.636  13.160
 8760SOL    HW228178   7.226   8.492  13.180
 8761SOL     OW28179   1.588   0.281   0.208
 8761SOL    HW128180   1.654   0.236   0.261
 8761SOL    HW228181   1.624   0.279   0.119
 8762SOL     OW28182   8.456   9.307   9.389
 8762SOL    HW128183   8.495   9.225   9.419
 8762SOL    HW228184   8.362   9.291   9.391
 8763SOL     OW28185   3.638   5.575   0.250
 8763SOL    HW128186   3.586   5.613   0.179
 8763SOL    HW228187   3.618   5.481   0.246
 8764SOL     OW28188   6.725   9.430  12.737
 8764SOL    HW128189   6.779   9.482  12.797
 8764SOL    HW228190   6.725   9.481  12.656
 8765SOL     OW28191  12.702  14.135  12.895
 8765SOL    HW128192  12.645  14.079  12.842
 8765SOL    HW228193  12.736  14.076  12.962
 8766SOL     OW28194  14.384  13.354   4.175
 8766SOL    HW128195  14.474  13.336   4.148
 8766SOL    HW228196  14.334  13.280   4.140
 8767SOL     OW28197   3.244   6.501  12.572
 8767SOL    HW128198   3.278   6.514  12.660
 8767SOL    HW228199   3.177   6.569  12.562
 8768SOL     OW28200   3.673  12.042  12.987
 8768SOL    HW128201   3.744  12.093  12.948
 8768SOL    HW228202   3.650  11.979  12.919
 8769SOL     OW28203   0.845  13.937  13.982
 8769SOL    HW128204   0.814  13.994  13.911
 8769SOL    HW228205   0.800  13.969  14.060
 8770SOL     OW28206   7.909  12.367   8.230
 8770SOL    HW128207   7.929  12.326   8.146
 8770SOL    HW228208   7.992  12.363   8.278
 8771SOL     OW28209   6.787  11.391   5.922
 8771SOL    HW128210   6.802  11.432   6.008
 8771SOL    HW228211   6.693  11.372   5.921
 8772SOL     OW28212   3.369   4.032   3.596
 8772SOL    HW128213   3.434   4.068   3.656
 8772SOL    HW228214   3.415   4.020   3.514
 8773SOL     OW28215  13.973   2.728  14.238
 8773SOL    HW128216  13.927   2.646  14.258
 8773SOL    HW228217  13.942   2.789  14.305
 8774SOL     OW28218   1.900  13.915   1.894
 8774SOL    HW128219   1.819  13.885   1.852
 8774SOL    HW228220   1.950  13.835   1.910
 8775SOL     OW28221   8.270   2.738   4.903
 8775SOL    HW128222   8.249   2.656   4.858
 8775SOL    HW228223   8.307   2.794   4.835
 8776SOL     OW28224   8.782   9.304   6.636
 8776SOL    HW128225   8.806   9.397   6.630
 8776SOL    HW228226   8.689   9.305   6.658
 8777SOL     OW28227  11.488   2.555   6.432
 8777SOL    HW128228  11.530   2.631   6.392
 8777SOL    HW228229  11.443   2.591   6.509
 8778SOL     OW28230  13.840   0.321  11.068
 8778SOL    HW128231  13.933   0.314  11.090
 8778SOL    HW228232  13.828   0.257  10.997
 8779SOL     OW28233   4.782  12.019  11.616
 8779SOL    HW128234   4.817  11.946  11.665
 8779SOL    HW228235   4.798  12.096  11.671
 8780SOL     OW28236   3.757  13.344   3.931
 8780SOL    HW128237   3.770  13.325   3.839
 8780SOL    HW228238   3.768  13.439   3.938
 8781SOL     OW28239   1.053  12.233   0.020
 8781SOL    HW128240   0.993  12.233   0.094
 8781SOL    HW228241   1.085  12.323   0.015
 8782SOL     OW28242   6.120   8.873  13.263
 8782SOL    HW128243   6.051   8.900  13.323
 8782SOL    HW228244   6.096   8.783  13.239
 8783SOL     OW28245  13.821  11.688  13.480
 8783SOL    HW128246  13.730  11.659  13.467
 8783SOL    HW228247  13.818  11.738  13.562
 8784SOL     OW28248   5.619   4.931   0.796
 8784SOL    HW128249   5.616   4.907   0.703
 8784SOL    HW228250   5.692   4.880   0.832
 8785SOL     OW28251   8.475  13.608   6.052
 8785SOL    HW128252   8.383  13.603   6.025
 8785SOL    HW228253   8.506  13.691   6.016
 8786SOL     OW28254  11.533   7.898   1.290
 8786SOL    HW128255  11.518   7.816   1.336
 8786SOL    HW228256  11.449   7.917   1.246
 8787SOL     OW28257   0.247  14.857   2.558
 8787SOL    HW128258   0.260  14.765   2.531
 8787SOL    HW228259   0.335   0.018   2.574
 8788SOL     OW28260  14.736  14.203   4.592
 8788SOL    HW128261  14.716  14.284   4.545
 8788SOL    HW228262  14.829  14.210   4.614
 8789SOL     OW28263   5.517  12.935   1.381
 8789SOL    HW128264   5.572  12.908   1.455
 8789SOL    HW228265   5.488  12.853   1.340
 8790SOL     OW28266   5.649   1.179  13.287
 8790SOL    HW128267   5.698   1.126  13.350
 8790SOL    HW228268   5.588   1.230  13.340
 8791SOL     OW28269   9.525  12.963   2.099
 8791SOL    HW128270   9.580  13.039   2.080
 8791SOL    HW228271   9.537  12.905   2.024
 8792SOL     OW28272  12.827  11.311   6.334
 8792SOL    HW128273  12.907  11.263   6.356
 8792SOL    HW228274  12.757  11.255   6.367
 8793SOL     OW28275   0.333  12.213  10.948
 8793SOL    HW128276   0.249  12.173  10.968
 8793SOL    HW228277   0.369  12.160  10.877
 8794SOL     OW28278   0.595   2.896   8.751
 8794SOL    HW128279   0.589   2.870   8.659
 8794SOL    HW228280   0.530   2.965   8.760
 8795SOL     OW28281   2.068  12.218   9.288
 8795SOL    HW128282   2.113  12.267   9.219
 8795SOL    HW228283   1.984  12.195   9.248
 8796SOL     OW28284   4.951  10.491   9.318
 8796SOL    HW128285   4.968  10.420   9.257
 8796SOL    HW228286   5.007  10.563   9.289
 8797SOL     OW28287   4.372   4.598   2.641
 8797SOL    HW128288   4.291   4.564   2.679
 8797SOL    HW228289   4.344   4.675   2.592
 8798SOL     OW28290   4.589  11.525  10.408
 8798SOL    HW128291   4.589  11.605  10.459
 8798SOL    HW228292   4.506  11.527  10.361
 8799SOL     OW28293   5.445   7.398   6.243
 8799SOL    HW128294   5.432   7.392   6.148
 8799SOL    HW228295   5.517   7.337   6.262
 8800SOL     OW28296  14.145  12.603   9.699
 8800SOL    HW128297  14.170  12.695   9.713
 8800SOL    HW228298  14.053  12.599   9.726
 8801SOL     OW28299  10.530  11.019   6.837
 8801SOL    HW128300  10.556  11.070   6.760
 8801SOL    HW228301  10.609  11.015   6.891
 8802SOL     OW28302  11.212   7.138   7.162
 8802SOL    HW128303  11.150   7.074   7.196
 8802SOL    HW228304  11.161   7.192   7.102
 8803SOL     OW28305   9.579  10.520   6.315
 8803SOL    HW128306   9.614  10.450   6.261
 8803SOL    HW228307   9.653  10.580   6.328
 8804SOL     OW28308   4.001  14.320   5.057
 8804SOL    HW128309   4.046  14.261   5.118
 8804SOL    HW228310   3.923  14.347   5.105
 8805SOL     OW28311  12.799   1.353  13.252
 8805SOL    HW128312  12.784   1.300  13.173
 8805SOL    HW228313  12.823   1.289  13.319
 8806SOL     OW28314   6.376   8.574   9.582
 8806SOL    HW128315   6.389   8.596   9.674
 8806SOL    HW228316   6.455   8.605   9.538
 8807SOL     OW28317  13.791  13.864   7.126
 8807SOL    HW128318  13.731  13.818   7.067
 8807SOL    HW228319  13.744  13.867   7.209
 8808SOL     OW28320   6.122  10.044   2.514
 8808SOL    HW128321   6.102  10.073   2.603
 8808SOL    HW228322   6.196  10.098   2.487
 8809SOL     OW28323   2.312  12.123  14.391
 8809SOL    HW128324   2.342  12.059  14.454
 8809SOL    HW228325   2.387  12.137  14.333
 8810SOL     OW28326   0.419   0.039  12.747
 8810SOL    HW128327   0.428  14.835  12.806
 8810SOL    HW228328   0.397   0.000  12.662
 8811SOL     OW28329   2.794  13.472  10.687
 8811SOL    HW128330   2.783  13.382  10.659
 8811SOL    HW228331   2.706  13.501  10.712
 8812SOL     OW28332  10.073  11.757  12.397
 8812SOL    HW128333  10.112  11.692  12.455
 8812SOL    HW228334  10.077  11.718  12.310
 8813SOL     OW28335   0.868   6.607   0.031
 8813SOL    HW128336   0.949   6.581   0.076
 8813SOL    HW228337   0.896   6.675  14.840
 8814SOL     OW28338   4.780   5.511  10.573
 8814SOL    HW128339   4.793   5.602  10.544
 8814SOL    HW228340   4.853   5.463  10.533
 8815SOL     OW28341  12.953   9.497   6.439
 8815SOL    HW128342  13.015   9.506   6.367
 8815SOL    HW228343  12.920   9.407   6.431
 8816SOL     OW28344   0.343  13.659  13.129
 8816SOL    HW128345   0.281  13.603  13.176
 8816SOL    HW228346   0.413  13.676  13.192
 8817SOL     OW28347   2.227   2.576   7.689
 8817SOL    HW128348   2.161   2.589   7.620
 8817SOL    HW228349   2.198   2.497   7.735
 8818SOL     OW28350   0.953   2.882   6.704
 8818SOL    HW128351   0.859   2.879   6.686
 8818SOL    HW228352   0.982   2.791   6.698
 8819SOL     OW28353  10.332  12.657   9.691
 8819SOL    HW128354  10.391  12.583   9.700
 8819SOL    HW228355  10.260  12.637   9.751
 8820SOL     OW28356   9.519   9.688  12.092
 8820SOL    HW128357   9.485   9.774  12.115
 8820SOL    HW228358   9.481   9.628  12.157
 8821SOL     OW28359  12.099   8.260  12.835
 8821SOL    HW128360  12.057   8.211  12.764
 8821SOL    HW228361  12.188   8.276  12.802
 8822SOL     OW28362  12.954   4.296   8.538
 8822SOL    HW128363  13.043   4.328   8.523
 8822SOL    HW228364  12.915   4.295   8.450
 8823SOL     OW28365   4.681   9.756  13.301
 8823SOL    HW128366   4.748   9.713  13.247
 8823SOL    HW228367   4.652   9.689  13.362
 8824SOL     OW28368  11.506   6.510   5.826
 8824SOL    HW128369  11.513   6.499   5.921
 8824SOL    HW228370  11.414   6.530   5.812
 8825SOL     OW28371   4.386   2.143  11.783
 8825SOL    HW128372   4.473   2.123  11.748
 8825SOL    HW228373   4.326   2.122  11.711
 8826SOL     OW28374   5.168   4.726   7.431
 8826SOL    HW128375   5.204   4.776   7.357
 8826SOL    HW228376   5.157   4.791   7.501
 8827SOL     OW28377   3.404   1.306   3.484
 8827SOL    HW128378   3.419   1.379   3.544
 8827SOL    HW228379   3.439   1.336   3.400
 8828SOL     OW28380   0.741   3.313   0.788
 8828SOL    HW128381   0.706   3.296   0.701
 8828SOL    HW228382   0.698   3.393   0.816
 8829SOL     OW28383   2.463   5.125   1.143
 8829SOL    HW128384   2.484   5.100   1.053
 8829SOL    HW228385   2.420   5.210   1.135
 8830SOL     OW28386   6.587   2.069   2.622
 8830SOL    HW128387   6.495   2.069   2.648
 8830SOL    HW228388   6.587   2.107   2.534
 8831SOL     OW28389   5.304  12.498  11.183
 8831SOL    HW128390   5.347  12.448  11.113
 8831SOL    HW228391   5.361  12.485  11.259
 8832SOL     OW28392   2.060  14.333   5.288
 8832SOL    HW128393   2.139  14.372   5.250
 8832SOL    HW228394   1.988  14.379   5.244
 8833SOL     OW28395   6.774  12.588   5.289
 8833SOL    HW128396   6.703  12.582   5.352
 8833SOL    HW228397   6.850  12.552   5.335
 8834SOL     OW28398  12.045   0.216   5.779
 8834SOL    HW128399  12.115   0.204   5.715
 8834SOL    HW228400  11.966   0.187   5.734
 8835SOL     OW28401  12.074   6.672   9.639
 8835SOL    HW128402  12.053   6.758   9.675
 8835SOL    HW228403  12.152   6.644   9.686
 8836SOL     OW28404   3.772   6.150   9.878
 8836SOL    HW128405   3.702   6.193   9.829
 8836SOL    HW228406   3.757   6.177   9.969
 8837SOL     OW28407   1.345   4.285  11.074
 8837SOL    HW128408   1.263   4.248  11.105
 8837SOL    HW228409   1.378   4.336  11.148
 8838SOL     OW28410   8.908   7.452  13.893
 8838SOL    HW128411   8.925   7.412  13.978
 8838SOL    HW228412   8.979   7.516  13.883
 8839SOL     OW28413   2.430   2.925   3.142
 8839SOL    HW128414   2.382   2.962   3.068
 8839SOL    HW228415   2.361   2.900   3.204
 8840SOL     OW28416  13.954  10.811   6.493
 8840SOL    HW128417  13.949  10.756   6.571
 8840SOL    HW228418  13.896  10.884   6.511
 8841SOL     OW28419  13.950   3.102  11.571
 8841SOL    HW128420  14.034   3.147  11.579
 8841SOL    HW228421  13.968   3.012  11.597
 8842SOL     OW28422  11.846   6.902  13.522
 8842SOL    HW128423  11.933   6.932  13.548
 8842SOL    HW228424  11.836   6.934  13.433
 8843SOL     OW28425  13.264   3.486   9.780
 8843SOL    HW128426  13.201   3.506   9.711
 8843SOL    HW228427  13.229   3.529   9.858
 8844SOL     OW28428   6.781   6.545   3.141
 8844SOL    HW128429   6.873   6.557   3.120
 8844SOL    HW228430   6.734   6.602   3.080
 8845SOL     OW28431  13.773   5.877  13.775
 8845SOL    HW128432  13.749   5.959  13.733
 8845SOL    HW228433  13.844   5.842  13.722
 8846SOL     OW28434   1.472  11.061  10.945
 8846SOL    HW128435   1.407  11.001  10.909
 8846SOL    HW228436   1.509  11.106  10.869
 8847SOL     OW28437   2.775  11.294   3.000
 8847SOL    HW128438   2.776  11.202   3.027
 8847SOL    HW228439   2.863  11.325   3.022
 8848SOL     OW28440   1.178  13.906  13.569
 8848SOL    HW128441   1.165  13.839  13.636
 8848SOL    HW228442   1.125  13.980  13.597
 8849SOL     OW28443  10.291  10.962  10.775
 8849SOL    HW128444  10.337  11.046  10.776
 8849SOL    HW228445  10.359  10.898  10.798
 8850SOL     OW28446  14.076  12.948  11.053
 8850SOL    HW128447  14.046  12.990  11.134
 8850SOL    HW228448  14.052  13.010  10.984
 8851SOL     OW28449   9.190   9.731   2.064
 8851SOL    HW128450   9.097   9.743   2.082
 8851SOL    HW228451   9.193   9.685   1.981
 8852SOL     OW28452   0.413   2.710   7.904
 8852SOL    HW128453   0.356   2.680   7.833
 8852SOL    HW228454   0.457   2.787   7.868
 8853SOL     OW28455   5.098   1.751   3.985
 8853SOL    HW128456   5.182   1.777   3.948
 8853SOL    HW228457   5.035   1.763   3.913
 8854SOL     OW28458   1.025  10.829   7.305
 8854SOL    HW128459   1.113  10.847   7.337
 8854SOL    HW228460   0.984  10.780   7.377
 8855SOL     OW28461   3.388  11.895  12.386
 8855SOL    HW128462   3.483  11.885  12.379
 8855SOL    HW228463   3.366  11.964  12.322
 8856SOL     OW28464   6.055   8.757   0.904
 8856SOL    HW128465   6.098   8.703   0.970
 8856SOL    HW228466   6.116   8.830   0.889
 8857SOL     OW28467   7.083   0.010  14.756
 8857SOL    HW128468   7.017  14.850  14.694
 8857SOL    HW228469   7.047   0.093  14.788
 8858SOL     OW28470   8.393   2.298  13.896
 8858SOL    HW128471   8.392   2.333  13.985
 8858SOL    HW228472   8.371   2.373  13.841
 8859SOL     OW28473   9.850  11.757   1.000
 8859SOL    HW128474   9.883  11.679   1.046
 8859SOL    HW228475   9.755  11.744   0.997
 8860SOL     OW28476   8.658   9.221  13.566
 8860SOL    HW128477   8.654   9.259  13.653
 8860SOL    HW228478   8.576   9.247  13.524
 8861SOL     OW28479   0.413   1.702   5.306
 8861SOL    HW128480   0.330   1.716   5.261
 8861SOL    HW228481   0.478   1.704   5.235
 8862SOL     OW28482   7.206   8.249  14.514
 8862SOL    HW128483   7.141   8.182  14.492
 8862SOL    HW228484   7.256   8.210  14.586
 8863SOL     OW28485  10.725   5.435  11.625
 8863SOL    HW128486  10.748   5.527  11.636
 8863SOL    HW228487  10.808   5.388  11.634
 8864SOL     OW28488   9.191   2.783  10.281
 8864SOL    HW128489   9.214   2.690  10.279
 8864SOL    HW228490   9.152   2.799  10.195
 8865SOL     OW28491  10.496   6.519  11.251
 8865SOL    HW128492  10.457   6.449  11.199
 8865SOL    HW228493  10.582   6.533  11.211
 8866SOL     OW28494   2.034   3.619  11.526
 8866SOL    HW128495   2.010   3.656  11.441
 8866SOL    HW228496   2.008   3.686  11.590
 8867SOL     OW28497   4.176   7.348   1.440
 8867SOL    HW128498   4.222   7.276   1.397
 8867SOL    HW228499   4.129   7.307   1.512
 8868SOL     OW28500  13.022   0.028   3.816
 8868SOL    HW128501  12.953   0.027   3.750
 8868SOL    HW228502  13.014  14.816   3.861
 8869SOL     OW28503  12.715   4.123   1.053
 8869SOL    HW128504  12.724   4.142   0.960
 8869SOL    HW228505  12.685   4.032   1.056
 8870SOL     OW28506  12.725   3.935  13.560
 8870SOL    HW128507  12.763   3.949  13.647
 8870SOL    HW228508  12.698   3.843  13.561
 8871SOL     OW28509   8.792  10.260   6.406
 8871SOL    HW128510   8.721  10.234   6.348
 8871SOL    HW228511   8.849  10.184   6.409
 8872SOL     OW28512   9.623  14.019   4.429
 8872SOL    HW128513   9.582  14.104   4.411
 8872SOL    HW228514   9.641  13.982   4.342
 8873SOL     OW28515   7.653   7.489   9.521
 8873SOL    HW128516   7.651   7.465   9.428
 8873SOL    HW228517   7.639   7.584   9.522
 8874SOL     OW28518   2.012   6.998  10.882
 8874SOL    HW128519   1.959   7.071  10.915
 8874SOL    HW228520   1.967   6.969  10.803
 8875SOL     OW28521   7.209   6.683   4.301
 8875SOL    HW128522   7.168   6.713   4.382
 8875SOL    HW228523   7.139   6.684   4.236
 8876SOL     OW28524  14.585  12.619   0.374
 8876SOL    HW128525  14.507  12.565   0.377
 8876SOL    HW228526  14.553  12.707   0.352
 8877SOL     OW28527   5.613  12.555   4.705
 8877SOL    HW128528   5.560  12.632   4.686
 8877SOL    HW228529   5.552  12.495   4.750
 8878SOL     OW28530   3.460  11.302  13.362
 8878SOL    HW128531   3.542  11.334  13.400
 8878SOL    HW228532   3.435  11.369  13.298
 8879SOL     OW28533   3.234   7.785  14.779
 8879SOL    HW128534   3.197   7.845  14.713
 8879SOL    HW228535   3.161   7.727  14.802
 8880SOL     OW28536  10.989   8.036   3.575
 8880SOL    HW128537  11.056   8.101   3.597
 8880SOL    HW228538  11.016   8.002   3.489
 8881SOL     OW28539   1.002  13.042   7.066
 8881SOL    HW128540   1.062  13.037   6.992
 8881SOL    HW228541   0.948  13.119   7.049
 8882SOL     OW28542   2.856   1.824  12.883
 8882SOL    HW128543   2.880   1.844  12.792
 8882SOL    HW228544   2.790   1.890  12.905
 8883SOL     OW28545  12.413   2.349   0.361
 8883SOL    HW128546  12.466   2.369   0.284
 8883SOL    HW228547  12.420   2.427   0.416
 8884SOL     OW28548   0.464   0.159   1.430
 8884SOL    HW128549   0.449   0.123   1.517
 8884SOL    HW228550   0.450   0.253   1.440
 8885SOL     OW28551  13.249   6.779   3.613
 8885SOL    HW128552  13.326   6.833   3.595
 8885SOL    HW228553  13.283   6.692   3.629
 8886SOL     OW28554   6.617  11.958   4.599
 8886SOL    HW128555   6.676  11.942   4.673
 8886SOL    HW228556   6.553  12.021   4.633
 8887SOL     OW28557   7.781  14.251  13.451
 8887SOL    HW128558   7.743  14.295  13.527
 8887SOL    HW228559   7.841  14.187  13.488
 8888SOL     OW28560   2.835   3.060   0.683
 8888SOL    HW128561   2.845   3.068   0.778
 8888SOL    HW228562   2.901   3.119   0.647
 8889SOL     OW28563  10.417   4.425   7.594
 8889SOL    HW128564  10.329   4.412   7.630
 8889SOL    HW228565  10.470   4.359   7.638
 8890SOL     OW28566   9.079   6.194   9.815
 8890SOL    HW128567   9.088   6.160   9.904
 8890SOL    HW228568   9.165   6.231   9.794
 8891SOL     OW28569   0.315   2.121   7.657
 8891SOL    HW128570   0.366   2.116   7.576
 8891SOL    HW228571   0.225   2.104   7.629
 8892SOL     OW28572   3.349  10.619  13.132
 8892SOL    HW128573   3.310  10.706  13.140
 8892SOL    HW228574   3.275  10.561  13.112
 8893SOL     OW28575  14.587  10.262   3.512
 8893SOL    HW128576  14.602  10.178   3.470
 8893SOL    HW228577  14.629  10.326   3.453
 8894SOL     OW28578   7.846   1.339   3.474
 8894SOL    HW128579   7.869   1.423   3.436
 8894SOL    HW228580   7.925   1.310   3.519
 8895SOL     OW28581   6.549   8.131   6.180
 8895SOL    HW128582   6.572   8.222   6.162
 8895SOL    HW228583   6.465   8.136   6.226
 8896SOL     OW28584   2.172   2.093   4.369
 8896SOL    HW128585   2.091   2.097   4.420
 8896SOL    HW228586   2.221   2.172   4.395
 8897SOL     OW28587   5.526  11.991  14.676
 8897SOL    HW128588   5.524  12.079  14.638
 8897SOL    HW228589   5.519  11.932  14.601
 8898SOL     OW28590   4.422   2.300  12.034
 8898SOL    HW128591   4.513   2.329  12.039
 8898SOL    HW228592   4.415   2.259  11.948
 8899SOL     OW28593  13.800  12.907   8.000
 8899SOL    HW128594  13.894  12.897   8.017
 8899SOL    HW228595  13.785  13.001   8.006
 8900SOL     OW28596   3.960   5.464   2.938
 8900SOL    HW128597   3.884   5.520   2.924
 8900SOL    HW228598   4.034   5.524   2.943
 8901SOL     OW28599  11.270   8.720  10.433
 8901SOL    HW128600  11.290   8.813  10.447
 8901SOL    HW228601  11.206   8.719  10.363
 8902SOL     OW28602   6.077  10.808  14.597
 8902SOL    HW128603   6.083  10.732  14.655
 8902SOL    HW228604   6.006  10.786  14.536
 8903SOL     OW28605  13.632  14.825  10.929
 8903SOL    HW128606  13.709   0.005  10.904
 8903SOL    HW228607  13.575   0.015  10.974
 8904SOL     OW28608   5.726  14.619   5.012
 8904SOL    HW128609   5.811  14.653   5.040
 8904SOL    HW228610   5.679  14.695   4.978
 8905SOL     OW28611  11.061   1.346   2.559
 8905SOL    HW128612  11.079   1.340   2.465
 8905SOL    HW228613  11.093   1.264   2.595
 8906SOL     OW28614  13.763   2.489   8.504
 8906SOL    HW128615  13.686   2.472   8.558
 8906SOL    HW228616  13.758   2.423   8.434
 8907SOL     OW28617  11.889   7.508   5.330
 8907SOL    HW128618  11.808   7.457   5.332
 8907SOL    HW228619  11.905   7.524   5.237
 8908SOL     OW28620  11.331   3.970  14.463
 8908SOL    HW128621  11.360   3.966  14.554
 8908SOL    HW228622  11.280   3.890  14.450
 8909SOL     OW28623   6.363  13.929   4.099
 8909SOL    HW128624   6.402  14.005   4.141
 8909SOL    HW228625   6.308  13.966   4.029
 8910SOL     OW28626   5.917  14.019   8.471
 8910SOL    HW128627   5.882  13.962   8.402
 8910SOL    HW228628   6.011  14.021   8.455
 8911SOL     OW28629   5.653  14.595  13.924
 8911SOL    HW128630   5.707  14.587  13.845
 8911SOL    HW228631   5.573  14.546  13.903
 8912SOL     OW28632  10.834   6.020   8.301
 8912SOL    HW128633  10.776   6.075   8.353
 8912SOL    HW228634  10.845   6.068   8.219
 8913SOL     OW28635   8.514   2.330   8.554
 8913SOL    HW128636   8.452   2.306   8.485
 8913SOL    HW228637   8.567   2.400   8.514
 8914SOL     OW28638   2.270   2.309  13.813
 8914SOL    HW128639   2.308   2.242  13.757
 8914SOL    HW228640   2.225   2.368  13.753
 8915SOL     OW28641   0.337   0.360  13.148
 8915SOL    HW128642   0.383   0.312  13.079
 8915SOL    HW228643   0.344   0.304  13.225
 8916SOL     OW28644   7.339   2.292   4.862
 8916SOL    HW128645   7.339   2.241   4.780
 8916SOL    HW228646   7.397   2.243   4.920
 8917SOL     OW28647  13.848   7.936   3.753
 8917SOL    HW128648  13.884   8.008   3.701
 8917SOL    HW228649  13.853   7.966   3.843
 8918SOL     OW28650   5.022   1.297   9.732
 8918SOL    HW128651   5.033   1.300   9.827
 8918SOL    HW228652   5.051   1.383   9.702
 8919SOL     OW28653  14.445   3.211   5.046
 8919SOL    HW128654  14.459   3.306   5.050
 8919SOL    HW228655  14.358   3.202   5.008
 8920SOL     OW28656   9.542  10.889  12.612
 8920SOL    HW128657   9.589  10.857  12.535
 8920SOL    HW228658   9.593  10.857  12.687
 8921SOL     OW28659   0.267  12.145  10.437
 8921SOL    HW128660   0.247  12.054  10.459
 8921SOL    HW228661   0.250  12.193  10.518
 8922SOL     OW28662   5.872   8.602   4.118
 8922SOL    HW128663   5.850   8.521   4.071
 8922SOL    HW228664   5.874   8.669   4.051
 8923SOL     OW28665   4.114  14.064   2.988
 8923SOL    HW128666   4.148  14.083   2.900
 8923SOL    HW228667   4.019  14.063   2.976
 8924SOL     OW28668   0.918   6.974   3.442
 8924SOL    HW128669   0.918   6.902   3.505
 8924SOL    HW228670   0.958   7.047   3.488
 8925SOL     OW28671  12.221   5.001  13.000
 8925SOL    HW128672  12.274   5.079  13.013
 8925SOL    HW228673  12.232   4.980  12.907
 8926SOL     OW28674   6.541  12.926   5.753
 8926SOL    HW128675   6.619  12.940   5.700
 8926SOL    HW228676   6.575  12.907   5.841
 8927SOL     OW28677   2.097   4.980  14.562
 8927SOL    HW128678   2.005   4.993  14.542
 8927SOL    HW228679   2.098   4.908  14.626
 8928SOL     OW28680   0.943   7.331   6.195
 8928SOL    HW128681   0.858   7.374   6.206
 8928SOL    HW228682   0.986   7.340   6.280
 8929SOL     OW28683  12.343   0.299  10.141
 8929SOL    HW128684  12.260   0.262  10.110
 8929SOL    HW228685  12.319   0.384  10.178
 8930SOL     OW28686   3.080  14.086   1.005
 8930SOL    HW128687   3.100  14.092   0.912
 8930SOL    HW228688   2.987  14.064   1.009
 8931SOL     OW28689   8.471   8.089  14.374
 8931SOL    HW128690   8.507   8.136  14.298
 8931SOL    HW228691   8.387   8.055  14.342
 8932SOL     OW28692   9.524   7.985  13.486
 8932SOL    HW128693   9.517   8.043  13.410
 8932SOL    HW228694   9.618   7.974  13.500
 8933SOL     OW28695   8.228  12.257   3.709
 8933SOL    HW128696   8.217  12.195   3.780
 8933SOL    HW228697   8.163  12.231   3.643
 8934SOL     OW28698   4.075  12.879  13.488
 8934SOL    HW128699   4.004  12.854  13.546
 8934SOL    HW228700   4.112  12.958  13.528
 8935SOL     OW28701   0.552   7.546   3.849
 8935SOL    HW128702   0.533   7.461   3.810
 8935SOL    HW228703   0.644   7.562   3.827
 8936SOL     OW28704   9.036  11.644   9.594
 8936SOL    HW128705   8.973  11.673   9.528
 8936SOL    HW228706   9.103  11.597   9.543
 8937SOL     OW28707   6.251   5.726   7.561
 8937SOL    HW128708   6.199   5.647   7.547
 8937SOL    HW228709   6.189   5.792   7.591
 8938SOL     OW28710   6.927   3.856  12.721
 8938SOL    HW128711   6.985   3.853  12.645
 8938SOL    HW228712   6.882   3.772  12.719
 8939SOL     OW28713   3.246   8.322  13.498
 8939SOL    HW128714   3.252   8.355  13.588
 8939SOL    HW228715   3.321   8.362  13.453
 8940SOL     OW28716   9.171   5.337  13.129
 8940SOL    HW128717   9.200   5.387  13.206
 8940SOL    HW228718   9.252   5.321  13.080
 8941SOL     OW28719   1.736  11.034   4.586
 8941SOL    HW128720   1.705  11.043   4.676
 8941SOL    HW228721   1.816  10.982   4.593
 8942SOL     OW28722  11.298  13.069  11.231
 8942SOL    HW128723  11.333  12.987  11.197
 8942SOL    HW228724  11.208  13.073  11.197
 8943SOL     OW28725   7.793   5.141  11.593
 8943SOL    HW128726   7.720   5.137  11.654
 8943SOL    HW228727   7.824   5.231  11.598
 8944SOL     OW28728   0.257  10.280  14.236
 8944SOL    HW128729   0.176  10.229  14.244
 8944SOL    HW228730   0.303  10.240  14.163
 8945SOL     OW28731   5.924   9.695  11.367
 8945SOL    HW128732   5.923   9.765  11.301
 8945SOL    HW228733   5.857   9.633  11.336
 8946SOL     OW28734   8.334   7.823   6.379
 8946SOL    HW128735   8.318   7.851   6.469
 8946SOL    HW228736   8.255   7.776   6.353
 8947SOL     OW28737   3.534   5.727   6.944
 8947SOL    HW128738   3.502   5.734   7.034
 8947SOL    HW228739   3.626   5.702   6.953
 8948SOL     OW28740   5.199   9.457   3.919
 8948SOL    HW128741   5.144   9.386   3.886
 8948SOL    HW228742   5.280   9.414   3.947
 8949SOL     OW28743  13.213   7.870  10.829
 8949SOL    HW128744  13.129   7.911  10.847
 8949SOL    HW228745  13.199   7.777  10.848
 8950SOL     OW28746  10.013   5.482   4.574
 8950SOL    HW128747   9.919   5.499   4.564
 8950SOL    HW228748  10.042   5.458   4.486
 8951SOL     OW28749   9.218   3.063   9.712
 8951SOL    HW128750   9.216   3.085   9.805
 8951SOL    HW228751   9.164   3.131   9.671
 8952SOL     OW28752  11.076   6.143   4.043
 8952SOL    HW128753  11.038   6.228   4.019
 8952SOL    HW228754  11.003   6.094   4.081
 8953SOL     OW28755  13.823  13.664   0.179
 8953SOL    HW128756  13.770  13.743   0.188
 8953SOL    HW228757  13.885  13.669   0.252
 8954SOL     OW28758   7.853   5.898  13.673
 8954SOL    HW128759   7.884   5.898  13.583
 8954SOL    HW228760   7.929   5.869  13.725
 8955SOL     OW28761  11.360  12.504  10.366
 8955SOL    HW128762  11.270  12.496  10.398
 8955SOL    HW228763  11.409  12.539  10.441
 8956SOL     OW28764  10.378   2.120   5.506
 8956SOL    HW128765  10.402   2.125   5.414
 8956SOL    HW228766  10.282   2.122   5.506
 8957SOL     OW28767  11.495  14.475   9.118
 8957SOL    HW128768  11.554  14.452   9.046
 8957SOL    HW228769  11.414  14.429   9.099
 8958SOL     OW28770   3.406   1.938   4.911
 8958SOL    HW128771   3.349   1.972   4.842
 8958SOL    HW228772   3.459   1.870   4.867
 8959SOL     OW28773  13.825  11.079  10.786
 8959SOL    HW128774  13.746  11.071  10.839
 8959SOL    HW228775  13.794  11.072  10.696
 8960SOL     OW28776  12.981   0.350  14.407
 8960SOL    HW128777  12.923   0.349  14.483
 8960SOL    HW228778  12.961   0.270  14.359
 8961SOL     OW28779   0.829   5.476   6.345
 8961SOL    HW128780   0.887   5.515   6.279
 8961SOL    HW228781   0.752   5.533   6.346
 8962SOL     OW28782   9.115  14.321   6.358
 8962SOL    HW128783   9.067  14.401   6.336
 8962SOL    HW228784   9.162  14.343   6.439
 8963SOL     OW28785   5.958   4.902   9.653
 8963SOL    HW128786   6.005   4.945   9.581
 8963SOL    HW228787   5.883   4.959   9.671
 8964SOL     OW28788  13.125  11.165   3.413
 8964SOL    HW128789  13.068  11.113   3.357
 8964SOL    HW228790  13.210  11.164   3.368
 8965SOL     OW28791   8.097   2.460   2.198
 8965SOL    HW128792   8.119   2.432   2.287
 8965SOL    HW228793   8.060   2.381   2.157
 8966SOL     OW28794   1.922   4.242   5.821
 8966SOL    HW128795   1.879   4.236   5.906
 8966SOL    HW228796   1.994   4.303   5.834
 8967SOL     OW28797   4.248   3.405   3.737
 8967SOL    HW128798   4.160   3.441   3.729
 8967SOL    HW228799   4.244   3.322   3.690
 8968SOL     OW28800  10.852   7.936  14.855
 8968SOL    HW128801  10.916   7.876  14.816
 8968SOL    HW228802  10.773   7.925  14.802
 8969SOL     OW28803  10.399   2.343   2.094
 8969SOL    HW128804  10.453   2.276   2.053
 8969SOL    HW228805  10.457   2.383   2.159
 8970SOL     OW28806   1.581  14.389   7.217
 8970SOL    HW128807   1.536  14.388   7.133
 8970SOL    HW228808   1.617  14.301   7.227
 8971SOL     OW28809  11.837   6.064   8.820
 8971SOL    HW128810  11.929   6.089   8.828
 8971SOL    HW228811  11.798   6.086   8.905
 8972SOL     OW28812  12.898  10.250   8.279
 8972SOL    HW128813  12.886  10.304   8.357
 8972SOL    HW228814  12.913  10.162   8.314
 8973SOL     OW28815  10.848  11.533  13.073
 8973SOL    HW128816  10.911  11.463  13.054
 8973SOL    HW228817  10.793  11.539  12.995
 8974SOL     OW28818   4.249   8.907   8.290
 8974SOL    HW128819   4.235   8.991   8.335
 8974SOL    HW228820   4.334   8.916   8.248
 8975SOL     OW28821   1.697  14.730  11.857
 8975SOL    HW128822   1.650  14.648  11.871
 8975SOL    HW228823   1.687  14.748  11.764
 8976SOL     OW28824  10.072   6.869  10.587
 8976SOL    HW128825  10.063   6.948  10.533
 8976SOL    HW228826  10.093   6.800  10.524
 8977SOL     OW28827  14.755   3.513   5.336
 8977SOL    HW128828  14.705   3.577   5.284
 8977SOL    HW228829  14.825   3.565   5.375
 8978SOL     OW28830   3.736   5.001   3.736
 8978SOL    HW128831   3.678   5.050   3.795
 8978SOL    HW228832   3.677   4.948   3.684
 8979SOL     OW28833   7.807  13.608  13.508
 8979SOL    HW128834   7.880  13.553  13.538
 8979SOL    HW228835   7.742  13.600  13.578
 8980SOL     OW28836   3.757  14.433  10.682
 8980SOL    HW128837   3.771  14.374  10.608
 8980SOL    HW228838   3.747  14.519  10.642
 8981SOL     OW28839  14.504   4.373   2.507
 8981SOL    HW128840  14.488   4.463   2.534
 8981SOL    HW228841  14.416   4.336   2.494
 8982SOL     OW28842   1.313   7.438   8.619
 8982SOL    HW128843   1.404   7.456   8.593
 8982SOL    HW228844   1.301   7.344   8.601
 8983SOL     OW28845   2.611  10.670  11.068
 8983SOL    HW128846   2.642  10.743  11.122
 8983SOL    HW228847   2.672  10.598  11.089
 8984SOL     OW28848  12.266  10.510   0.817
 8984SOL    HW128849  12.248  10.602   0.840
 8984SOL    HW228850  12.354  10.494   0.850
 8985SOL     OW28851  14.389   6.716   8.332
 8985SOL    HW128852  14.358   6.655   8.266
 8985SOL    HW228853  14.474   6.681   8.359
 8986SOL     OW28854   6.606  13.875   4.910
 8986SOL    HW128855   6.518  13.837   4.907
 8986SOL    HW228856   6.663  13.802   4.933
 8987SOL     OW28857  13.604   6.700   5.871
 8987SOL    HW128858  13.526   6.714   5.926
 8987SOL    HW228859  13.641   6.787   5.858
 8988SOL     OW28860   0.529   5.771   5.240
 8988SOL    HW128861   0.609   5.724   5.264
 8988SOL    HW228862   0.488   5.715   5.174
 8989SOL     OW28863   5.456   5.555   7.016
 8989SOL    HW128864   5.375   5.566   6.967
 8989SOL    HW228865   5.460   5.632   7.073
 8990SOL     OW28866   2.499   6.767   5.009
 8990SOL    HW128867   2.506   6.689   5.064
 8990SOL    HW228868   2.534   6.740   4.924
 8991SOL     OW28869   3.362   8.715   3.973
 8991SOL    HW128870   3.379   8.629   3.935
 8991SOL    HW228871   3.430   8.726   4.039
 8992SOL     OW28872   1.031  14.421  13.010
 8992SOL    HW128873   1.036  14.340  12.958
 8992SOL    HW228874   0.953  14.410  13.065
 8993SOL     OW28875   8.653  10.094   7.926
 8993SOL    HW128876   8.570  10.119   7.966
 8993SOL    HW228877   8.636  10.009   7.885
 8994SOL     OW28878   4.963   1.281   0.950
 8994SOL    HW128879   4.916   1.287   1.033
 8994SOL    HW228880   4.896   1.255   0.886
 8995SOL     OW28881   8.644   6.891   4.143
 8995SOL    HW128882   8.725   6.879   4.192
 8995SOL    HW228883   8.607   6.972   4.179
 8996SOL     OW28884   9.201   7.672   4.509
 8996SOL    HW128885   9.294   7.685   4.494
 8996SOL    HW228886   9.176   7.604   4.446
 8997SOL     OW28887   7.966   2.922   5.339
 8997SOL    HW128888   7.974   2.827   5.343
 8997SOL    HW228889   8.017   2.947   5.262
 8998SOL     OW28890   7.640  10.122  12.660
 8998SOL    HW128891   7.581  10.100  12.588
 8998SOL    HW228892   7.724  10.083  12.634
 8999SOL     OW28893   8.880   9.519  13.733
 8999SOL    HW128894   8.876   9.564  13.648
 8999SOL    HW228895   8.970   9.532  13.762
 9000SOL     OW28896   4.489  10.050   1.184
 9000SOL    HW128897   4.474   9.972   1.131
 9000SOL    HW228898   4.525  10.115   1.123
 9001SOL     OW28899   1.920   7.938   4.979
 9001SOL    HW128900   1.919   7.860   4.924
 9001SOL    HW228901   1.886   7.909   5.063
 9002SOL     OW28902   8.111   0.411   6.889
 9002SOL    HW128903   8.051   0.471   6.845
 9002SOL    HW228904   8.156   0.465   6.954
 9003SOL     OW28905  10.567  11.099   7.865
 9003SOL    HW128906  10.572  11.194   7.855
 9003SOL    HW228907  10.652  11.074   7.900
 9004SOL     OW28908   7.543   3.117   1.862
 9004SOL    HW128909   7.596   3.072   1.796
 9004SOL    HW228910   7.584   3.095   1.945
 9005SOL     OW28911  12.185   2.133   4.990
 9005SOL    HW128912  12.190   2.191   4.914
 9005SOL    HW228913  12.093   2.106   4.994
 9006SOL     OW28914   8.278  10.545   6.184
 9006SOL    HW128915   8.329  10.531   6.104
 9006SOL    HW228916   8.298  10.470   6.240
 9007SOL     OW28917   5.349   5.291   9.306
 9007SOL    HW128918   5.263   5.313   9.270
 9007SOL    HW228919   5.365   5.201   9.277
 9008SOL     OW28920   8.253   6.218   3.747
 9008SOL    HW128921   8.317   6.194   3.680
 9008SOL    HW228922   8.223   6.135   3.782
 9009SOL     OW28923   1.273   0.403   2.809
 9009SOL    HW128924   1.287   0.480   2.864
 9009SOL    HW228925   1.207   0.430   2.745
 9010SOL     OW28926   4.143   9.423   6.029
 9010SOL    HW128927   4.117   9.391   6.115
 9010SOL    HW228928   4.236   9.402   6.022
 9011SOL     OW28929  12.838  10.304   7.549
 9011SOL    HW128930  12.861  10.315   7.642
 9011SOL    HW228931  12.912  10.343   7.502
 9012SOL     OW28932   9.299   9.079   2.269
 9012SOL    HW128933   9.211   9.110   2.288
 9012SOL    HW228934   9.314   9.008   2.332
 9013SOL     OW28935   8.902  13.281   9.356
 9013SOL    HW128936   8.831  13.274   9.420
 9013SOL    HW228937   8.908  13.194   9.316
 9014SOL     OW28938   5.298   4.244  11.042
 9014SOL    HW128939   5.363   4.302  11.082
 9014SOL    HW228940   5.219   4.258  11.094
 9015SOL     OW28941  13.309   3.456  14.698
 9015SOL    HW128942  13.219   3.478  14.674
 9015SOL    HW228943  13.350   3.431  14.615
 9016SOL     OW28944   8.481  12.951  13.614
 9016SOL    HW128945   8.551  12.886  13.606
 9016SOL    HW228946   8.411  12.919  13.557
 9017SOL     OW28947  13.413  10.534   2.720
 9017SOL    HW128948  13.469  10.538   2.798
 9017SOL    HW228949  13.358  10.457   2.734
 9018SOL     OW28950   1.399   9.926   9.012
 9018SOL    HW128951   1.348   9.902   9.090
 9018SOL    HW228952   1.357  10.006   8.980
 9019SOL     OW28953   9.245   4.009   5.908
 9019SOL    HW128954   9.295   4.057   5.973
 9019SOL    HW228955   9.303   3.939   5.879
 9020SOL     OW28956  11.286   7.523   9.048
 9020SOL    HW128957  11.265   7.582   8.977
 9020SOL    HW228958  11.304   7.439   9.005
 9021SOL     OW28959   1.954   3.147   1.660
 9021SOL    HW128960   1.979   3.071   1.607
 9021SOL    HW228961   2.031   3.203   1.658
 9022SOL     OW28962  12.907   0.364   6.255
 9022SOL    HW128963  12.870   0.277   6.263
 9022SOL    HW228964  13.000   0.349   6.236
 9023SOL     OW28965   2.999   9.824   0.097
 9023SOL    HW128966   3.044   9.817   0.181
 9023SOL    HW228967   3.033   9.751   0.046
 9024SOL     OW28968   8.150   4.904   4.110
 9024SOL    HW128969   8.164   4.995   4.086
 9024SOL    HW228970   8.055   4.893   4.113
 9025SOL     OW28971  11.037   7.987  12.048
 9025SOL    HW128972  11.105   8.051  12.027
 9025SOL    HW228973  10.979   7.988  11.972
 9026SOL     OW28974   9.168   1.646   1.339
 9026SOL    HW128975   9.243   1.645   1.399
 9026SOL    HW228976   9.114   1.573   1.368
 9027SOL     OW28977  13.361  14.439   5.458
 9027SOL    HW128978  13.453  14.456   5.477
 9027SOL    HW228979  13.315  14.467   5.537
 9028SOL     OW28980  10.716  12.601  13.536
 9028SOL    HW128981  10.811  12.598  13.526
 9028SOL    HW228982  10.700  12.677  13.592
 9029SOL     OW28983   6.078  11.028  10.193
 9029SOL    HW128984   6.007  10.968  10.214
 9029SOL    HW228985   6.049  11.113  10.224
 9030SOL     OW28986   7.671   6.410   6.471
 9030SOL    HW128987   7.670   6.504   6.451
 9030SOL    HW228988   7.595   6.375   6.425
 9031SOL     OW28989  13.310   8.812   5.486
 9031SOL    HW128990  13.256   8.889   5.498
 9031SOL    HW228991  13.387   8.827   5.541
 9032SOL     OW28992   4.624  13.601   8.865
 9032SOL    HW128993   4.580  13.687   8.866
 9032SOL    HW228994   4.705  13.615   8.913
 9033SOL     OW28995  14.484  10.846   8.138
 9033SOL    HW128996  14.447  10.840   8.226
 9033SOL    HW228997  14.497  10.755   8.111
 9034SOL     OW28998   9.581   3.257   9.738
 9034SOL    HW128999   9.658   3.294   9.696
 9034SOL    HW229000   9.509   3.314   9.711
 9035SOL     OW29001   7.031   5.575   1.856
 9035SOL    HW129002   7.019   5.493   1.809
 9035SOL    HW229003   6.959   5.631   1.825
 9036SOL     OW29004  10.921   2.427   9.024
 9036SOL    HW129005  10.975   2.397   8.951
 9036SOL    HW229006  10.915   2.352   9.082
 9037SOL     OW29007  13.998   6.450   3.588
 9037SOL    HW129008  13.981   6.539   3.619
 9037SOL    HW229009  13.979   6.394   3.664
 9038SOL     OW29010   1.725   1.724   8.350
 9038SOL    HW129011   1.753   1.650   8.405
 9038SOL    HW229012   1.785   1.723   8.276
 9039SOL     OW29013   0.656  14.273  12.086
 9039SOL    HW129014   0.635  14.232  12.002
 9039SOL    HW229015   0.727  14.333  12.066
 9040SOL     OW29016  13.726  14.268   9.025
 9040SOL    HW129017  13.702  14.177   9.007
 9040SOL    HW229018  13.820  14.271   9.010
 9041SOL     OW29019   8.686   9.216   1.667
 9041SOL    HW129020   8.770   9.211   1.621
 9041SOL    HW229021   8.685   9.303   1.706
 9042SOL     OW29022   9.050  13.643   0.744
 9042SOL    HW129023   9.120  13.599   0.695
 9042SOL    HW229024   9.078  13.639   0.835
 9043SOL     OW29025  14.715   0.948   4.255
 9043SOL    HW129026  14.709   1.013   4.326
 9043SOL    HW229027  14.682   0.995   4.178
 9044SOL     OW29028   1.249  13.759   7.895
 9044SOL    HW129029   1.275  13.669   7.916
 9044SOL    HW229030   1.331  13.806   7.882
 9045SOL     OW29031  10.583   6.039   3.509
 9045SOL    HW129032  10.620   6.122   3.480
 9045SOL    HW229033  10.504   6.028   3.456
 9046SOL     OW29034   8.423   3.539   4.350
 9046SOL    HW129035   8.376   3.617   4.378
 9046SOL    HW229036   8.407   3.534   4.255
 9047SOL     OW29037   0.697  13.032  11.092
 9047SOL    HW129038   0.615  12.987  11.110
 9047SOL    HW229039   0.701  13.039  10.997
 9048SOL     OW29040   9.555   0.041   2.661
 9048SOL    HW129041   9.605  14.837   2.691
 9048SOL    HW229042   9.466   0.026   2.693
 9049SOL     OW29043   4.323   7.475  12.074
 9049SOL    HW129044   4.227   7.467  12.078
 9049SOL    HW229045   4.337   7.561  12.033
 9050SOL     OW29046   9.478  13.313   0.925
 9050SOL    HW129047   9.534  13.255   0.977
 9050SOL    HW229048   9.525  13.323   0.842
 9051SOL     OW29049  10.191  14.870  10.193
 9051SOL    HW129050  10.212  14.808  10.123
 9051SOL    HW229051  10.234   0.080  10.167
 9052SOL     OW29052  14.808   7.865   8.264
 9052SOL    HW129053  14.833   7.888   8.354
 9052SOL    HW229054   0.003   7.803   8.236
 9053SOL     OW29055  11.721   4.853   6.993
 9053SOL    HW129056  11.749   4.857   7.084
 9053SOL    HW229057  11.696   4.761   6.979
 9054SOL     OW29058  13.637  12.905   3.852
 9054SOL    HW129059  13.618  12.971   3.919
 9054SOL    HW229060  13.553  12.891   3.808
 9055SOL     OW29061  13.559   7.469   9.993
 9055SOL    HW129062  13.527   7.503  10.077
 9055SOL    HW229063  13.607   7.389  10.016
 9056SOL     OW29064  13.852   7.739   5.593
 9056SOL    HW129065  13.945   7.717   5.587
 9056SOL    HW229066  13.829   7.719   5.684
 9057SOL     OW29067   5.442  12.507  13.436
 9057SOL    HW129068   5.514  12.555  13.395
 9057SOL    HW229069   5.419  12.560  13.512
 9058SOL     OW29070  13.779  11.896  12.006
 9058SOL    HW129071  13.828  11.826  12.050
 9058SOL    HW229072  13.751  11.857  11.922
 9059SOL     OW29073   8.021   6.678   5.718
 9059SOL    HW129074   7.961   6.741   5.757
 9059SOL    HW229075   8.061   6.725   5.645
 9060SOL     OW29076   1.152  13.320   7.898
 9060SOL    HW129077   1.146  13.361   7.812
 9060SOL    HW229078   1.193  13.235   7.882
 9061SOL     OW29079   7.030   5.133   0.975
 9061SOL    HW129080   6.945   5.178   0.970
 9061SOL    HW229081   7.018   5.052   0.927
 9062SOL     OW29082   6.442  11.182   6.951
 9062SOL    HW129083   6.484  11.140   7.026
 9062SOL    HW229084   6.402  11.110   6.902
 9063SOL     OW29085   3.300  13.617   2.026
 9063SOL    HW129086   3.234  13.555   2.057
 9063SOL    HW229087   3.252  13.697   2.007
 9064SOL     OW29088   5.956   7.391  11.977
 9064SOL    HW129089   5.967   7.296  11.984
 9064SOL    HW229090   6.042   7.423  11.950
 9065SOL     OW29091   7.016   4.544   8.299
 9065SOL    HW129092   7.112   4.545   8.305
 9065SOL    HW229093   6.992   4.634   8.279
 9066SOL     OW29094   1.287   9.405   4.720
 9066SOL    HW129095   1.335   9.337   4.673
 9066SOL    HW229096   1.295   9.483   4.665
 9067SOL     OW29097  14.798   4.254   9.896
 9067SOL    HW129098   0.019   4.274   9.908
 9067SOL    HW229099  14.787   4.248   9.801
 9068SOL     OW29100  11.347   9.716   2.756
 9068SOL    HW129101  11.369   9.808   2.767
 9068SOL    HW229102  11.425   9.676   2.720
 9069SOL     OW29103   8.381   5.905   3.714
 9069SOL    HW129104   8.365   5.855   3.794
 9069SOL    HW229105   8.301   5.895   3.663
 9070SOL     OW29106  11.512  12.608   8.973
 9070SOL    HW129107  11.493  12.580   9.063
 9070SOL    HW229108  11.444  12.567   8.920
 9071SOL     OW29109  14.745   3.134  12.234
 9071SOL    HW129110  14.723   3.047  12.200
 9071SOL    HW229111  14.662   3.181  12.236
 9072SOL     OW29112   4.897   4.976   2.892
 9072SOL    HW129113   4.879   4.903   2.833
 9072SOL    HW229114   4.834   5.044   2.866
 9073SOL     OW29115   4.194   1.651   3.407
 9073SOL    HW129116   4.286   1.626   3.416
 9073SOL    HW229117   4.148   1.570   3.384
 9074SOL     OW29118   7.981  12.844  13.437
 9074SOL    HW129119   7.971  12.792  13.357
 9074SOL    HW229120   7.959  12.783  13.508
 9075SOL     OW29121   7.327   2.256   2.788
 9075SOL    HW129122   7.379   2.317   2.840
 9075SOL    HW229123   7.363   2.262   2.699
 9076SOL     OW29124   5.873   8.520   2.954
 9076SOL    HW129125   5.794   8.557   2.992
 9076SOL    HW229126   5.886   8.437   3.000
 9077SOL     OW29127  10.910   0.516   9.011
 9077SOL    HW129128  10.942   0.548   9.095
 9077SOL    HW229129  10.964   0.561   8.946
 9078SOL     OW29130  13.864   7.509  14.203
 9078SOL    HW129131  13.884   7.557  14.123
 9078SOL    HW229132  13.908   7.425  14.192
 9079SOL     OW29133   4.550   0.231  10.865
 9079SOL    HW129134   4.587   0.163  10.922
 9079SOL    HW229135   4.576   0.205  10.776
 9080SOL     OW29136   8.218  12.789   6.588
 9080SOL    HW129137   8.219  12.850   6.661
 9080SOL    HW229138   8.213  12.702   6.628
 9081SOL     OW29139   7.273  14.416   2.578
 9081SOL    HW129140   7.194  14.365   2.594
 9081SOL    HW229141   7.331  14.356   2.532
 9082SOL     OW29142   0.118   8.005   6.044
 9082SOL    HW129143   0.037   8.047   6.072
 9082SOL    HW229144   0.091   7.941   5.978
 9083SOL     OW29145  10.306   9.877   7.627
 9083SOL    HW129146  10.397   9.848   7.621
 9083SOL    HW229147  10.303   9.957   7.574
 9084SOL     OW29148  11.592   7.651   8.131
 9084SOL    HW129149  11.573   7.741   8.157
 9084SOL    HW229150  11.685   7.651   8.110
 9085SOL     OW29151  10.637  12.399   3.648
 9085SOL    HW129152  10.580  12.324   3.668
 9085SOL    HW229153  10.635  12.453   3.727
 9086SOL     OW29154   4.575  12.033   8.844
 9086SOL    HW129155   4.490  12.050   8.885
 9086SOL    HW229156   4.587  12.107   8.784
 9087SOL     OW29157  10.604   4.541   8.796
 9087SOL    HW129158  10.681   4.595   8.776
 9087SOL    HW229159  10.635   4.478   8.862
 9088SOL     OW29160  12.304   6.194   0.550
 9088SOL    HW129161  12.223   6.220   0.506
 9088SOL    HW229162  12.278   6.119   0.605
 9089SOL     OW29163   1.853   6.318  14.202
 9089SOL    HW129164   1.895   6.257  14.263
 9089SOL    HW229165   1.764   6.285  14.193
 9090SOL     OW29166  10.340  12.240   9.269
 9090SOL    HW129167  10.283  12.288   9.209
 9090SOL    HW229168  10.418  12.220   9.218
 9091SOL     OW29169   8.573   7.252   2.848
 9091SOL    HW129170   8.549   7.224   2.936
 9091SOL    HW229171   8.607   7.173   2.806
 9092SOL     OW29172   3.441  10.430   5.268
 9092SOL    HW129173   3.441  10.345   5.311
 9092SOL    HW229174   3.357  10.434   5.222
 9093SOL     OW29175   7.927   1.784  14.199
 9093SOL    HW129176   7.927   1.849  14.128
 9093SOL    HW229177   7.892   1.831  14.275
 9094SOL     OW29178  12.664   0.965   6.336
 9094SOL    HW129179  12.584   0.913   6.330
 9094SOL    HW229180  12.639   1.042   6.387
 9095SOL     OW29181  12.617   9.150   1.224
 9095SOL    HW129182  12.622   9.069   1.173
 9095SOL    HW229183  12.660   9.215   1.169
 9096SOL     OW29184  10.735   0.068  14.223
 9096SOL    HW129185  10.653   0.034  14.187
 9096SOL    HW229186  10.720   0.162  14.231
 9097SOL     OW29187  11.783   5.384   8.133
 9097SOL    HW129188  11.796   5.295   8.165
 9097SOL    HW229189  11.855   5.400   8.072
 9098SOL     OW29190   1.702   3.693   3.100
 9098SOL    HW129191   1.675   3.732   3.017
 9098SOL    HW229192   1.653   3.610   3.103
 9099SOL     OW29193   2.113  14.228  13.252
 9099SOL    HW129194   2.190  14.177  13.230
 9099SOL    HW229195   2.061  14.170  13.308
 9100SOL     OW29196   6.107   7.527  13.371
 9100SOL    HW129197   6.191   7.502  13.410
 9100SOL    HW229198   6.124   7.526  13.277
 9101SOL     OW29199   7.826   4.728   8.383
 9101SOL    HW129200   7.792   4.705   8.296
 9101SOL    HW229201   7.829   4.823   8.383
 9102SOL     OW29202   1.203   8.211   9.872
 9102SOL    HW129203   1.170   8.122   9.889
 9102SOL    HW229204   1.289   8.197   9.831
 9103SOL     OW29205  14.081  10.356   6.075
 9103SOL    HW129206  14.145  10.372   6.144
 9103SOL    HW229207  14.113  10.407   6.000
 9104SOL     OW29208   0.430  14.307   1.874
 9104SOL    HW129209   0.381  14.252   1.936
 9104SOL    HW229210   0.466  14.377   1.928
 9105SOL     OW29211   9.480   8.139   9.766
 9105SOL    HW129212   9.496   8.093   9.684
 9105SOL    HW229213   9.423   8.079   9.816
 9106SOL     OW29214   1.638   0.602  10.569
 9106SOL    HW129215   1.571   0.571  10.508
 9106SOL    HW229216   1.595   0.672  10.618
 9107SOL     OW29217   2.010   7.028   7.467
 9107SOL    HW129218   2.070   7.103   7.458
 9107SOL    HW229219   2.042   6.964   7.404
 9108SOL     OW29220   8.277   1.408   0.463
 9108SOL    HW129221   8.213   1.338   0.476
 9108SOL    HW229222   8.354   1.378   0.511
 9109SOL     OW29223   5.486  14.640   0.742
 9109SOL    HW129224   5.524  14.688   0.669
 9109SOL    HW229225   5.488  14.703   0.815
 9110SOL     OW29226  14.122  13.257   6.110
 9110SOL    HW129227  14.077  13.177   6.137
 9110SOL    HW229228  14.070  13.328   6.149
 9111SOL     OW29229  12.303   3.779   3.640
 9111SOL    HW129230  12.350   3.814   3.716
 9111SOL    HW229231  12.372   3.755   3.579
 9112SOL     OW29232   2.778  12.130   2.506
 9112SOL    HW129233   2.711  12.076   2.548
 9112SOL    HW229234   2.861  12.100   2.543
 9113SOL     OW29235   2.788  13.417  13.606
 9113SOL    HW129236   2.715  13.369  13.646
 9113SOL    HW229237   2.810  13.366  13.529
 9114SOL     OW29238  10.409   3.755  14.512
 9114SOL    HW129239  10.428   3.818  14.443
 9114SOL    HW229240  10.437   3.798  14.593
 9115SOL     OW29241  12.614   9.568   8.230
 9115SOL    HW129242  12.671   9.505   8.272
 9115SOL    HW229243  12.562   9.606   8.301
 9116SOL     OW29244  14.426  14.671   9.002
 9116SOL    HW129245  14.342  14.691   8.962
 9116SOL    HW229246  14.467  14.756   9.017
 9117SOL     OW29247  12.381  14.239   5.703
 9117SOL    HW129248  12.403  14.229   5.795
 9117SOL    HW229249  12.290  14.209   5.697
 9118SOL     OW29250  11.147   2.977   5.977
 9118SOL    HW129251  11.229   2.993   6.024
 9118SOL    HW229252  11.173   2.969   5.885
 9119SOL     OW29253   4.423   0.476  12.733
 9119SOL    HW129254   4.491   0.410  12.732
 9119SOL    HW229255   4.470   0.559  12.740
 9120SOL     OW29256  13.299   0.732   3.330
 9120SOL    HW129257  13.235   0.776   3.386
 9120SOL    HW229258  13.265   0.745   3.241
 9121SOL     OW29259  11.845   5.529   1.611
 9121SOL    HW129260  11.829   5.577   1.529
 9121SOL    HW229261  11.940   5.531   1.621
 9122SOL     OW29262   0.588  10.684  12.080
 9122SOL    HW129263   0.666  10.733  12.052
 9122SOL    HW229264   0.520  10.750  12.087
 9123SOL     OW29265   6.352  12.803   7.769
 9123SOL    HW129266   6.417  12.856   7.814
 9123SOL    HW229267   6.360  12.716   7.807
 9124SOL     OW29268   9.313   9.122   7.482
 9124SOL    HW129269   9.296   9.100   7.391
 9124SOL    HW229270   9.369   9.199   7.479
 9125SOL     OW29271   7.358   2.994  14.107
 9125SOL    HW129272   7.333   2.982  14.199
 9125SOL    HW229273   7.453   2.996  14.108
 9126SOL     OW29274  12.738  12.704  11.152
 9126SOL    HW129275  12.681  12.741  11.084
 9126SOL    HW229276  12.743  12.610  11.130
 9127SOL     OW29277  11.241  13.544   0.119
 9127SOL    HW129278  11.188  13.580   0.190
 9127SOL    HW229279  11.215  13.595   0.042
 9128SOL     OW29280   2.320   3.123   9.120
 9128SOL    HW129281   2.355   3.038   9.095
 9128SOL    HW229282   2.244   3.136   9.063
 9129SOL     OW29283   8.648   8.460  10.593
 9129SOL    HW129284   8.643   8.467  10.498
 9129SOL    HW229285   8.614   8.373  10.613
 9130SOL     OW29286   1.731  13.486   2.228
 9130SOL    HW129287   1.669  13.507   2.159
 9130SOL    HW229288   1.796  13.557   2.224
 9131SOL     OW29289   6.299   0.753  11.708
 9131SOL    HW129290   6.248   0.686  11.662
 9131SOL    HW229291   6.240   0.784  11.777
 9132SOL     OW29292  11.795   1.503   7.315
 9132SOL    HW129293  11.872   1.530   7.265
 9132SOL    HW229294  11.829   1.476   7.400
 9133SOL     OW29295   5.685  12.396   7.335
 9133SOL    HW129296   5.735  12.464   7.290
 9133SOL    HW229297   5.611  12.378   7.276
 9134SOL     OW29298   0.653   2.935   0.784
 9134SOL    HW129299   0.656   2.884   0.704
 9134SOL    HW229300   0.735   2.983   0.786
 9135SOL     OW29301   9.958   1.224   1.527
 9135SOL    HW129302  10.042   1.211   1.483
 9135SOL    HW229303   9.943   1.142   1.574
 9136SOL     OW29304   1.428   5.722  12.772
 9136SOL    HW129305   1.506   5.776  12.783
 9136SOL    HW229306   1.375   5.738  12.850
 9137SOL     OW29307  13.578   6.850   1.452
 9137SOL    HW129308  13.612   6.928   1.495
 9137SOL    HW229309  13.491   6.838   1.490
 9138SOL     OW29310   1.149   8.464   3.440
 9138SOL    HW129311   1.114   8.443   3.354
 9138SOL    HW229312   1.097   8.539   3.469
 9139SOL     OW29313  14.660  13.868   3.480
 9139SOL    HW129314  14.721  13.794   3.482
 9139SOL    HW229315  14.702  13.935   3.535
 9140SOL     OW29316   2.290   3.006   8.501
 9140SOL    HW129317   2.346   3.050   8.437
 9140SOL    HW229318   2.205   2.999   8.456
 9141SOL     OW29319   4.092   2.880   0.669
 9141SOL    HW129320   3.997   2.870   0.666
 9141SOL    HW229321   4.114   2.922   0.586
 9142SOL     OW29322  10.268  11.481   7.496
 9142SOL    HW129323  10.279  11.484   7.592
 9142SOL    HW229324  10.273  11.388   7.474
 9143SOL     OW29325   0.096  13.254   7.389
 9143SOL    HW129326   0.097  13.347   7.408
 9143SOL    HW229327   0.187  13.226   7.400
 9144SOL     OW29328   2.194   8.873  12.546
 9144SOL    HW129329   2.112   8.833  12.516
 9144SOL    HW229330   2.263   8.821  12.506
 9145SOL     OW29331   6.398  10.034  13.030
 9145SOL    HW129332   6.440   9.984  12.960
 9145SOL    HW229333   6.468  10.085  13.070
 9146SOL     OW29334  14.825   5.545   0.668
 9146SOL    HW129335  14.868   5.605   0.607
 9146SOL    HW229336   0.023   5.487   0.699
 9147SOL     OW29337   6.204   6.713  10.463
 9147SOL    HW129338   6.252   6.795  10.450
 9147SOL    HW229339   6.156   6.700  10.381
 9148SOL     OW29340   4.921   8.703   1.486
 9148SOL    HW129341   4.988   8.691   1.419
 9148SOL    HW229342   4.842   8.663   1.449
 9149SOL     OW29343   8.484   0.599   5.307
 9149SOL    HW129344   8.455   0.596   5.398
 9149SOL    HW229345   8.490   0.693   5.288
 9150SOL     OW29346   3.414   9.662   3.659
 9150SOL    HW129347   3.322   9.635   3.668
 9150SOL    HW229348   3.417   9.707   3.574
 9151SOL     OW29349  12.546  12.375   9.096
 9151SOL    HW129350  12.552  12.281   9.112
 9151SOL    HW229351  12.634  12.408   9.110
 9152SOL     OW29352   9.222   1.010   2.134
 9152SOL    HW129353   9.222   0.993   2.228
 9152SOL    HW229354   9.157   0.950   2.099
 9153SOL     OW29355  14.329   8.575   8.023
 9153SOL    HW129356  14.423   8.583   8.038
 9153SOL    HW229357  14.321   8.506   7.957
 9154SOL     OW29358   1.203  12.753   2.998
 9154SOL    HW129359   1.152  12.769   2.919
 9154SOL    HW229360   1.294  12.767   2.970
 9155SOL     OW29361  13.645   2.337   4.582
 9155SOL    HW129362  13.643   2.251   4.625
 9155SOL    HW229363  13.558   2.373   4.597
 9156SOL     OW29364   3.029   8.462   0.778
 9156SOL    HW129365   3.048   8.513   0.856
 9156SOL    HW229366   3.086   8.499   0.710
 9157SOL     OW29367   8.753   8.816   6.995
 9157SOL    HW129368   8.679   8.756   6.999
 9157SOL    HW229369   8.829   8.760   7.010
 9158SOL     OW29370  13.196  11.577  12.560
 9158SOL    HW129371  13.236  11.611  12.480
 9158SOL    HW229372  13.218  11.484  12.560
 9159SOL     OW29373  14.482   0.386   1.954
 9159SOL    HW129374  14.473   0.445   2.029
 9159SOL    HW229375  14.544   0.320   1.983
 9160SOL     OW29376   0.785   5.777   5.005
 9160SOL    HW129377   0.759   5.728   4.927
 9160SOL    HW229378   0.802   5.865   4.974
 9161SOL     OW29379  13.592   6.035  12.964
 9161SOL    HW129380  13.615   5.943  12.961
 9161SOL    HW229381  13.641   6.075  12.892
 9162SOL     OW29382   1.492  12.002   5.221
 9162SOL    HW129383   1.525  12.073   5.164
 9162SOL    HW229384   1.479  12.044   5.306
 9163SOL     OW29385  14.136   9.805   6.280
 9163SOL    HW129386  14.065   9.748   6.312
 9163SOL    HW229387  14.205   9.794   6.345
 9164SOL     OW29388  10.152   2.259   6.420
 9164SOL    HW129389  10.083   2.218   6.367
 9164SOL    HW229390  10.228   2.261   6.363
 9165SOL     OW29391   6.710   1.996  12.724
 9165SOL    HW129392   6.710   1.975  12.818
 9165SOL    HW229393   6.623   1.969  12.694
 9166SOL     OW29394   5.843   4.224   3.354
 9166SOL    HW129395   5.791   4.262   3.424
 9166SOL    HW229396   5.884   4.147   3.394
 9167SOL     OW29397   9.702   1.548  10.797
 9167SOL    HW129398   9.635   1.606  10.761
 9167SOL    HW229399   9.781   1.568  10.747
 9168SOL     OW29400  12.014   9.874   3.281
 9168SOL    HW129401  11.948   9.940   3.299
 9168SOL    HW229402  11.964   9.796   3.255
 9169SOL     OW29403  13.343   7.061   9.837
 9169SOL    HW129404  13.305   6.975   9.816
 9169SOL    HW229405  13.412   7.042   9.901
 9170SOL     OW29406   2.117   6.891   6.766
 9170SOL    HW129407   2.114   6.979   6.729
 9170SOL    HW229408   2.206   6.884   6.802
 9171SOL     OW29409   3.795   7.315   6.165
 9171SOL    HW129410   3.845   7.359   6.233
 9171SOL    HW229411   3.745   7.248   6.212
 9172SOL     OW29412   8.696  10.506   8.352
 9172SOL    HW129413   8.660  10.460   8.428
 9172SOL    HW229414   8.738  10.437   8.300
 9173SOL     OW29415   2.873   5.539   8.576
 9173SOL    HW129416   2.810   5.498   8.636
 9173SOL    HW229417   2.936   5.469   8.557
 9174SOL     OW29418   4.190   7.281   9.645
 9174SOL    HW129419   4.236   7.357   9.610
 9174SOL    HW229420   4.258   7.227   9.683
 9175SOL     OW29421   1.451  13.853   2.730
 9175SOL    HW129422   1.530  13.834   2.781
 9175SOL    HW229423   1.383  13.801   2.772
 9176SOL     OW29424  13.468  10.629   3.780
 9176SOL    HW129425  13.524  10.601   3.853
 9176SOL    HW229426  13.454  10.723   3.795
 9177SOL     OW29427   8.358  12.543   6.975
 9177SOL    HW129428   8.427  12.572   6.916
 9177SOL    HW229429   8.402  12.524   7.057
 9178SOL     OW29430   1.559   5.974   3.778
 9178SOL    HW129431   1.510   5.933   3.849
 9178SOL    HW229432   1.595   6.054   3.817
 9179SOL     OW29433  10.900  11.117   4.057
 9179SOL    HW129434  10.932  11.174   3.987
 9179SOL    HW229435  10.944  11.149   4.135
 9180SOL     OW29436   2.896   6.285   4.585
 9180SOL    HW129437   2.880   6.229   4.662
 9180SOL    HW229438   2.824   6.348   4.586
 9181SOL     OW29439  13.639   5.328   5.302
 9181SOL    HW129440  13.689   5.246   5.312
 9181SOL    HW229441  13.700   5.388   5.260
 9182SOL     OW29442   3.754   2.505  10.758
 9182SOL    HW129443   3.791   2.497  10.846
 9182SOL    HW229444   3.821   2.468  10.700
 9183SOL     OW29445   7.584   9.314  11.953
 9183SOL    HW129446   7.518   9.315  11.884
 9183SOL    HW229447   7.582   9.403  11.990
 9184SOL     OW29448   1.085  12.920   5.612
 9184SOL    HW129449   1.063  13.012   5.625
 9184SOL    HW229450   1.038  12.894   5.533
 9185SOL     OW29451   1.517  12.207   7.968
 9185SOL    HW129452   1.572  12.157   7.907
 9185SOL    HW229453   1.443  12.148   7.987
 9186SOL     OW29454  10.095   0.282   9.444
 9186SOL    HW129455  10.069   0.223   9.373
 9186SOL    HW229456  10.127   0.224   9.513
 9187SOL     OW29457  10.650   3.529  12.043
 9187SOL    HW129458  10.621   3.483  11.964
 9187SOL    HW229459  10.727   3.578  12.014
 9188SOL     OW29460  13.230   9.928   4.194
 9188SOL    HW129461  13.214   9.910   4.287
 9188SOL    HW229462  13.192  10.015   4.180
 9189SOL     OW29463   8.933  11.693  10.371
 9189SOL    HW129464   8.918  11.764  10.308
 9189SOL    HW229465   8.866  11.628  10.350
 9190SOL     OW29466   4.728   3.882  14.677
 9190SOL    HW129467   4.780   3.901  14.599
 9190SOL    HW229468   4.779   3.817  14.725
 9191SOL     OW29469   8.391  13.991   8.008
 9191SOL    HW129470   8.326  13.921   8.003
 9191SOL    HW229471   8.380  14.040   7.926
 9192SOL     OW29472   1.209  11.755  13.686
 9192SOL    HW129473   1.235  11.704  13.762
 9192SOL    HW229474   1.178  11.691  13.623
 9193SOL     OW29475  14.618   4.924   5.378
 9193SOL    HW129476  14.681   4.874   5.430
 9193SOL    HW229477  14.671   4.992   5.336
 9194SOL     OW29478   9.137  10.422  12.904
 9194SOL    HW129479   9.103  10.431  12.815
 9194SOL    HW229480   9.058  10.422  12.959
 9195SOL     OW29481   9.870   3.180  14.211
 9195SOL    HW129482   9.806   3.251  14.221
 9195SOL    HW229483   9.865   3.131  14.293
 9196SOL     OW29484   4.565   8.200   2.232
 9196SOL    HW129485   4.654   8.173   2.210
 9196SOL    HW229486   4.510   8.154   2.169
 9197SOL     OW29487  10.168   4.440   4.116
 9197SOL    HW129488  10.078   4.408   4.113
 9197SOL    HW229489  10.161   4.533   4.093
 9198SOL     OW29490  14.195   2.605   2.121
 9198SOL    HW129491  14.254   2.654   2.178
 9198SOL    HW229492  14.111   2.604   2.169
 9199SOL     OW29493   9.456  13.463   4.177
 9199SOL    HW129494   9.503  13.387   4.143
 9199SOL    HW229495   9.461  13.454   4.272
 9200SOL     OW29496   7.442  11.148   6.154
 9200SOL    HW129497   7.424  11.127   6.063
 9200SOL    HW229498   7.392  11.084   6.204
 9201SOL     OW29499  11.642  11.513   3.719
 9201SOL    HW129500  11.649  11.493   3.812
 9201SOL    HW229501  11.555  11.552   3.708
 9202SOL     OW29502  13.330   6.379   7.343
 9202SOL    HW129503  13.344   6.390   7.249
 9202SOL    HW229504  13.409   6.414   7.383
 9203SOL     OW29505   3.945   7.938   3.295
 9203SOL    HW129506   3.862   7.892   3.277
 9203SOL    HW229507   4.012   7.883   3.253
 9204SOL     OW29508  13.074   1.843  11.899
 9204SOL    HW129509  13.124   1.785  11.956
 9204SOL    HW229510  13.110   1.828  11.811
 9205SOL     OW29511  13.816   2.554   9.768
 9205SOL    HW129512  13.761   2.500   9.711
 9205SOL    HW229513  13.762   2.630   9.789
 9206SOL     OW29514   1.120   8.440   7.073
 9206SOL    HW129515   1.209   8.411   7.088
 9206SOL    HW229516   1.114   8.455   6.979
 9207SOL     OW29517  13.709   1.422   2.812
 9207SOL    HW129518  13.658   1.503   2.818
 9207SOL    HW229519  13.644   1.353   2.822
 9208SOL     OW29520   1.277   8.155   2.401
 9208SOL    HW129521   1.191   8.152   2.443
 9208SOL    HW229522   1.318   8.072   2.425
 9209SOL     OW29523   8.983   2.783  10.707
 9209SOL    HW129524   9.021   2.741  10.630
 9209SOL    HW229525   9.034   2.863  10.719
 9210SOL     OW29526   2.627   2.211   8.218
 9210SOL    HW129527   2.703   2.161   8.249
 9210SOL    HW229528   2.653   2.243   8.132
 9211SOL     OW29529   6.269   7.003  13.453
 9211SOL    HW129530   6.276   6.916  13.492
 9211SOL    HW229531   6.189   7.000  13.401
 9212SOL     OW29532  13.976  13.116   6.918
 9212SOL    HW129533  14.067  13.086   6.908
 9212SOL    HW229534  13.942  13.065   6.991
 9213SOL     OW29535   7.767  10.261  14.004
 9213SOL    HW129536   7.741  10.324  14.072
 9213SOL    HW229537   7.750  10.306  13.921
 9214SOL     OW29538   2.579   5.800   2.493
 9214SOL    HW129539   2.595   5.864   2.563
 9214SOL    HW229540   2.666   5.785   2.456
 9215SOL     OW29541  14.667   3.181   6.410
 9215SOL    HW129542  14.576   3.206   6.396
 9215SOL    HW229543  14.675   3.168   6.505
 9216SOL     OW29544   0.682   8.033   7.066
 9216SOL    HW129545   0.589   8.014   7.052
 9216SOL    HW229546   0.727   7.952   7.040
 9217SOL     OW29547  11.959   1.583   3.673
 9217SOL    HW129548  11.963   1.626   3.588
 9217SOL    HW229549  12.049   1.587   3.706
 9218SOL     OW29550   2.725  14.770  13.013
 9218SOL    HW129551   2.812  14.768  13.052
 9218SOL    HW229552   2.740  14.796  12.922
 9219SOL     OW29553   6.251   8.171  12.799
 9219SOL    HW129554   6.253   8.171  12.703
 9219SOL    HW229555   6.210   8.255  12.822
 9220SOL     OW29556  10.201   2.337  13.925
 9220SOL    HW129557  10.161   2.340  14.012
 9220SOL    HW229558  10.288   2.299  13.940
 9221SOL     OW29559  11.158  10.736  13.470
 9221SOL    HW129560  11.144  10.830  13.481
 9221SOL    HW229561  11.092  10.709  13.406
 9222SOL     OW29562  12.691  13.928  14.853
 9222SOL    HW129563  12.744  13.904   0.058
 9222SOL    HW229564  12.602  13.901   0.005
 9223SOL     OW29565   7.506   3.817  12.182
 9223SOL    HW129566   7.501   3.867  12.101
 9223SOL    HW229567   7.598   3.790  12.187
 9224SOL     OW29568   0.792   4.343   1.952
 9224SOL    HW129569   0.871   4.342   1.899
 9224SOL    HW229570   0.743   4.265   1.925
 9225SOL     OW29571   0.534   1.129  12.443
 9225SOL    HW129572   0.512   1.045  12.402
 9225SOL    HW229573   0.469   1.140  12.512
 9226SOL     OW29574  13.131   2.206   8.914
 9226SOL    HW129575  13.075   2.153   8.971
 9226SOL    HW229576  13.199   2.145   8.884
 9227SOL     OW29577   3.623   5.869   0.301
 9227SOL    HW129578   3.695   5.809   0.280
 9227SOL    HW229579   3.549   5.811   0.318
 9228SOL     OW29580   1.683   3.967   4.019
 9228SOL    HW129581   1.612   3.905   4.035
 9228SOL    HW229582   1.673   3.993   3.927
 9229SOL     OW29583  10.625   3.150  11.148
 9229SOL    HW129584  10.676   3.123  11.072
 9229SOL    HW229585  10.623   3.072  11.204
 9230SOL     OW29586  13.307   0.001   3.812
 9230SOL    HW129587  13.343   0.090   3.811
 9230SOL    HW229588  13.212   0.015   3.812
 9231SOL     OW29589   0.445   8.620  13.926
 9231SOL    HW129590   0.534   8.615  13.962
 9231SOL    HW229591   0.406   8.535  13.947
 9232SOL     OW29592  12.418  10.475  14.503
 9232SOL    HW129593  12.477  10.423  14.558
 9232SOL    HW229594  12.348  10.502  14.563
 9233SOL     OW29595   6.178  13.036   0.880
 9233SOL    HW129596   6.162  12.949   0.916
 9233SOL    HW229597   6.096  13.059   0.835
 9234SOL     OW29598   3.898   4.588   2.107
 9234SOL    HW129599   3.913   4.543   2.024
 9234SOL    HW229600   3.971   4.649   2.115
 9235SOL     OW29601   3.022  12.915   7.701
 9235SOL    HW129602   3.097  12.857   7.717
 9235SOL    HW229603   3.058  12.991   7.656
 9236SOL     OW29604   1.260  12.882   2.637
 9236SOL    HW129605   1.321  12.819   2.675
 9236SOL    HW229606   1.176  12.862   2.677
 9237SOL     OW29607   8.734   4.065   4.615
 9237SOL    HW129608   8.788   4.050   4.693
 9237SOL    HW229609   8.708   3.977   4.587
 9238SOL     OW29610   4.119  14.118   0.760
 9238SOL    HW129611   4.142  14.074   0.842
 9238SOL    HW229612   4.157  14.205   0.768
 9239SOL     OW29613   8.012   6.488   9.434
 9239SOL    HW129614   8.100   6.468   9.466
 9239SOL    HW229615   7.997   6.579   9.462
 9240SOL     OW29616  11.183   4.803   7.056
 9240SOL    HW129617  11.236   4.796   7.135
 9240SOL    HW229618  11.214   4.884   7.014
 9241SOL     OW29619  14.125  13.324  11.476
 9241SOL    HW129620  14.155  13.234  11.492
 9241SOL    HW229621  14.205  13.374  11.463
 9242SOL     OW29622  14.823   7.229   7.768
 9242SOL    HW129623  14.766   7.306   7.759
 9242SOL    HW229624  14.843   7.203   7.679
 9243SOL     OW29625   3.455   5.176   6.131
 9243SOL    HW129626   3.511   5.231   6.076
 9243SOL    HW229627   3.377   5.229   6.147
 9244SOL     OW29628   2.489  14.405   4.406
 9244SOL    HW129629   2.431  14.330   4.391
 9244SOL    HW229630   2.553  14.374   4.470
 9245SOL     OW29631   7.141   4.541   8.792
 9245SOL    HW129632   7.237   4.533   8.789
 9245SOL    HW229633   7.117   4.506   8.877
 9246SOL     OW29634   1.774  13.663   8.312
 9246SOL    HW129635   1.756  13.690   8.402
 9246SOL    HW229636   1.766  13.567   8.314
 9247SOL     OW29637  11.158   8.833   5.364
 9247SOL    HW129638  11.133   8.866   5.278
 9247SOL    HW229639  11.214   8.901   5.401
 9248SOL     OW29640  12.780   2.634   0.236
 9248SOL    HW129641  12.847   2.697   0.263
 9248SOL    HW229642  12.747   2.597   0.318
 9249SOL     OW29643   3.868  13.534  10.968
 9249SOL    HW129644   3.960  13.527  10.994
 9249SOL    HW229645   3.851  13.453  10.919
 9250SOL     OW29646   4.011   4.252   1.740
 9250SOL    HW129647   4.064   4.175   1.757
 9250SOL    HW229648   3.927   4.218   1.709
 9251SOL     OW29649   5.442  14.033  10.362
 9251SOL    HW129650   5.403  13.983  10.290
 9251SOL    HW229651   5.418  13.985  10.441
 9252SOL     OW29652  11.946   3.395   3.653
 9252SOL    HW129653  11.948   3.466   3.718
 9252SOL    HW229654  12.032   3.400   3.611
 9253SOL     OW29655   4.879   0.742  14.594
 9253SOL    HW129656   4.946   0.756  14.661
 9253SOL    HW229657   4.902   0.803  14.524
 9254SOL     OW29658  14.157   4.066   1.218
 9254SOL    HW129659  14.214   4.073   1.142
 9254SOL    HW229660  14.069   4.067   1.182
 9255SOL     OW29661  11.062   9.987   1.339
 9255SOL    HW129662  10.971   9.960   1.350
 9255SOL    HW229663  11.103   9.967   1.423
 9256SOL     OW29664   1.157   3.009   3.179
 9256SOL    HW129665   1.226   3.060   3.221
 9256SOL    HW229666   1.166   2.921   3.217
 9257SOL     OW29667   0.933   9.338   3.091
 9257SOL    HW129668   0.841   9.365   3.088
 9257SOL    HW229669   0.942   9.277   3.018
 9258SOL     OW29670   3.777  13.158   0.266
 9258SOL    HW129671   3.796  13.195   0.352
 9258SOL    HW229672   3.696  13.109   0.278
 9259SOL     OW29673   8.664  12.351   9.007
 9259SOL    HW129674   8.700  12.265   9.029
 9259SOL    HW229675   8.668  12.401   9.088
 9260SOL     OW29676   0.644   3.865  13.050
 9260SOL    HW129677   0.549   3.867  13.039
 9260SOL    HW229678   0.662   3.775  13.079
 9261SOL     OW29679   3.569   6.624  11.839
 9261SOL    HW129680   3.524   6.559  11.786
 9261SOL    HW229681   3.500   6.667  11.889
 9262SOL     OW29682   3.513   3.061   9.535
 9262SOL    HW129683   3.601   3.099   9.542
 9262SOL    HW229684   3.467   3.093   9.612
 9263SOL     OW29685   6.228   6.461  14.854
 9263SOL    HW129686   6.295   6.481  14.789
 9263SOL    HW229687   6.277   6.442   0.062
 9264SOL     OW29688   4.381   8.202   5.749
 9264SOL    HW129689   4.394   8.274   5.689
 9264SOL    HW229690   4.418   8.232   5.832
 9265SOL     OW29691   2.537  10.808  11.782
 9265SOL    HW129692   2.595  10.732  11.788
 9265SOL    HW229693   2.568  10.856  11.705
 9266SOL     OW29694   0.744   1.477   4.205
 9266SOL    HW129695   0.804   1.494   4.132
 9266SOL    HW229696   0.802   1.455   4.278
 9267SOL     OW29697   1.522  13.267   5.953
 9267SOL    HW129698   1.564  13.316   6.023
 9267SOL    HW229699   1.489  13.188   5.995
 9268SOL     OW29700   9.300  10.580   5.245
 9268SOL    HW129701   9.348  10.613   5.169
 9268SOL    HW229702   9.356  10.511   5.280
 9269SOL     OW29703   8.737   7.151  10.299
 9269SOL    HW129704   8.760   7.232  10.254
 9269SOL    HW229705   8.767   7.165  10.389
 9270SOL     OW29706   1.841   7.323  12.043
 9270SOL    HW129707   1.752   7.356  12.056
 9270SOL    HW229708   1.882   7.388  11.987
 9271SOL     OW29709   8.319   3.843   2.632
 9271SOL    HW129710   8.231   3.879   2.620
 9271SOL    HW229711   8.321   3.813   2.723
 9272SOL     OW29712   6.536   0.957   3.087
 9272SOL    HW129713   6.469   0.995   3.144
 9272SOL    HW229714   6.589   1.032   3.060
 9273SOL     OW29715  11.263  13.426   3.332
 9273SOL    HW129716  11.344  13.477   3.337
 9273SOL    HW229717  11.218  13.460   3.255
 9274SOL     OW29718   7.374  14.358   4.625
 9274SOL    HW129719   7.294  14.357   4.572
 9274SOL    HW229720   7.438  14.311   4.571
 9275SOL     OW29721   0.183   8.011   3.417
 9275SOL    HW129722   0.241   8.075   3.459
 9275SOL    HW229723   0.242   7.954   3.368
 9276SOL     OW29724   6.237   0.112   3.519
 9276SOL    HW129725   6.305   0.056   3.555
 9276SOL    HW229726   6.180   0.132   3.593
 9277SOL     OW29727   7.341   2.984  14.397
 9277SOL    HW129728   7.362   2.916  14.461
 9277SOL    HW229729   7.405   3.053  14.412
 9278SOL     OW29730   7.996   8.749   9.382
 9278SOL    HW129731   8.068   8.698   9.344
 9278SOL    HW229732   7.998   8.729   9.475
 9279SOL     OW29733   6.990   1.762  10.543
 9279SOL    HW129734   6.933   1.699  10.587
 9279SOL    HW229735   6.976   1.843  10.591
 9280SOL     OW29736   6.442   1.658   0.380
 9280SOL    HW129737   6.453   1.742   0.426
 9280SOL    HW229738   6.497   1.597   0.428
 9281SOL     OW29739   9.308   4.785   8.379
 9281SOL    HW129740   9.310   4.849   8.308
 9281SOL    HW229741   9.237   4.725   8.356
 9282SOL     OW29742   7.426   0.687   3.776
 9282SOL    HW129743   7.395   0.634   3.703
 9282SOL    HW229744   7.409   0.777   3.750
 9283SOL     OW29745  12.896   3.456   2.521
 9283SOL    HW129746  12.825   3.426   2.465
 9283SOL    HW229747  12.957   3.383   2.524
 9284SOL     OW29748   7.626   3.174   4.733
 9284SOL    HW129749   7.593   3.088   4.709
 9284SOL    HW229750   7.563   3.208   4.796
 9285SOL     OW29751   0.055   8.196  12.192
 9285SOL    HW129752   0.122   8.226  12.131
 9285SOL    HW229753  14.871   8.137  12.141
 9286SOL     OW29754   5.649  11.746  12.537
 9286SOL    HW129755   5.740  11.734  12.509
 9286SOL    HW229756   5.618  11.658  12.555
 9287SOL     OW29757  10.433  12.895   0.617
 9287SOL    HW129758  10.347  12.907   0.657
 9287SOL    HW229759  10.465  12.984   0.602
 9288SOL     OW29760   1.397   5.265   9.373
 9288SOL    HW129761   1.330   5.303   9.317
 9288SOL    HW229762   1.368   5.174   9.388
 9289SOL     OW29763  11.424   1.102  10.248
 9289SOL    HW129764  11.359   1.086  10.180
 9289SOL    HW229765  11.501   1.134  10.201
 9290SOL     OW29766  14.786   8.386   9.982
 9290SOL    HW129767  14.773   8.295  10.007
 9290SOL    HW229768  14.764   8.390   9.889
 9291SOL     OW29769   9.694   7.300   3.121
 9291SOL    HW129770   9.750   7.264   3.052
 9291SOL    HW229771   9.685   7.229   3.185
 9292SOL     OW29772  11.904   1.848   4.773
 9292SOL    HW129773  11.925   1.889   4.858
 9292SOL    HW229774  11.867   1.763   4.796
 9293SOL     OW29775   9.208   1.429   4.242
 9293SOL    HW129776   9.139   1.400   4.182
 9293SOL    HW229777   9.165   1.432   4.327
 9294SOL     OW29778   9.832   9.745   0.562
 9294SOL    HW129779   9.869   9.706   0.641
 9294SOL    HW229780   9.873   9.697   0.490
 9295SOL     OW29781   7.379  14.660   7.486
 9295SOL    HW129782   7.415  14.627   7.568
 9295SOL    HW229783   7.312  14.596   7.461
 9296SOL     OW29784   3.803   2.167  12.523
 9296SOL    HW129785   3.830   2.136  12.610
 9296SOL    HW229786   3.843   2.254  12.515
 9297SOL     OW29787   5.188  12.986  10.678
 9297SOL    HW129788   5.178  12.908  10.622
 9297SOL    HW229789   5.147  12.961  10.761
 9298SOL     OW29790   2.192  12.663   4.732
 9298SOL    HW129791   2.243  12.585   4.712
 9298SOL    HW229792   2.130  12.671   4.659
 9299SOL     OW29793  14.432   2.393   2.055
 9299SOL    HW129794  14.406   2.453   1.985
 9299SOL    HW229795  14.370   2.412   2.127
 9300SOL     OW29796   2.408   4.624   0.373
 9300SOL    HW129797   2.341   4.579   0.424
 9300SOL    HW229798   2.484   4.626   0.431
 9301SOL     OW29799  12.837   9.151   0.885
 9301SOL    HW129800  12.924   9.164   0.847
 9301SOL    HW229801  12.777   9.196   0.825
 9302SOL     OW29802   0.595  13.318   7.961
 9302SOL    HW129803   0.563  13.228   7.961
 9302SOL    HW229804   0.691  13.309   7.956
 9303SOL     OW29805   4.629  13.282   2.339
 9303SOL    HW129806   4.716  13.247   2.360
 9303SOL    HW229807   4.644  13.343   2.267
 9304SOL     OW29808   2.725   7.153  12.681
 9304SOL    HW129809   2.680   7.071  12.702
 9304SOL    HW229810   2.680   7.186  12.603
 9305SOL     OW29811   0.976   7.672   6.169
 9305SOL    HW129812   1.067   7.643   6.173
 9305SOL    HW229813   0.980   7.767   6.175
 9306SOL     OW29814   7.786  12.295   6.000
 9306SOL    HW129815   7.805  12.262   5.912
 9306SOL    HW229816   7.722  12.364   5.987
 9307SOL     OW29817  11.527   1.247   9.518
 9307SOL    HW129818  11.437   1.227   9.491
 9307SOL    HW229819  11.569   1.161   9.526
 9308SOL     OW29820   8.983   9.498   2.046
 9308SOL    HW129821   9.007   9.543   1.965
 9308SOL    HW229822   8.946   9.567   2.102
 9309SOL     OW29823  12.631   6.279   3.240
 9309SOL    HW129824  12.581   6.327   3.173
 9309SOL    HW229825  12.604   6.188   3.228
 9310SOL     OW29826  13.341   1.031   9.091
 9310SOL    HW129827  13.312   1.114   9.129
 9310SOL    HW229828  13.396   0.991   9.157
 9311SOL     OW29829   7.920   0.126   0.348
 9311SOL    HW129830   7.978   0.050   0.350
 9311SOL    HW229831   7.979   0.201   0.362
 9312SOL     OW29832   2.567   1.799   8.263
 9312SOL    HW129833   2.550   1.864   8.332
 9312SOL    HW229834   2.661   1.805   8.248
 9313SOL     OW29835   1.636  12.771   8.224
 9313SOL    HW129836   1.713  12.714   8.217
 9313SOL    HW229837   1.657  12.847   8.171
 9314SOL     OW29838  13.385  10.565   0.794
 9314SOL    HW129839  13.424  10.501   0.734
 9314SOL    HW229840  13.426  10.648   0.771
 9315SOL     OW29841   5.891   9.068  14.497
 9315SOL    HW129842   5.807   9.049  14.456
 9315SOL    HW229843   5.951   9.003  14.460
 9316SOL     OW29844   1.291   4.776   0.608
 9316SOL    HW129845   1.290   4.702   0.669
 9316SOL    HW229846   1.200   4.783   0.578
 9317SOL     OW29847  12.374   2.565   5.057
 9317SOL    HW129848  12.314   2.559   5.131
 9317SOL    HW229849  12.384   2.475   5.027
 9318SOL     OW29850   8.954   6.391  11.864
 9318SOL    HW129851   8.861   6.373  11.882
 9318SOL    HW229852   8.953   6.463  11.801
 9319SOL     OW29853   8.234   8.429  13.078
 9319SOL    HW129854   8.182   8.348  13.080
 9319SOL    HW229855   8.177   8.493  13.036
 9320SOL     OW29856   4.610   4.814   4.799
 9320SOL    HW129857   4.554   4.892   4.803
 9320SOL    HW229858   4.678   4.837   4.737
 9321SOL     OW29859  10.386   1.095  13.464
 9321SOL    HW129860  10.380   1.020  13.404
 9321SOL    HW229861  10.466   1.079  13.514
 9322SOL     OW29862   6.513   7.095   4.526
 9322SOL    HW129863   6.468   7.161   4.578
 9322SOL    HW229864   6.480   7.107   4.437
 9323SOL     OW29865   2.143  10.706  14.597
 9323SOL    HW129866   2.069  10.749  14.554
 9323SOL    HW229867   2.220  10.756  14.569
 9324SOL     OW29868   6.929  11.831   2.437
 9324SOL    HW129869   6.877  11.909   2.455
 9324SOL    HW229870   6.951  11.838   2.345
 9325SOL     OW29871   3.910   6.512  13.106
 9325SOL    HW129872   3.953   6.588  13.144
 9325SOL    HW229873   3.819   6.539  13.093
 9326SOL     OW29874   6.876   1.453  12.958
 9326SOL    HW129875   6.815   1.447  12.885
 9326SOL    HW229876   6.959   1.422  12.922
 9327SOL     OW29877   3.980  14.278  11.587
 9327SOL    HW129878   4.006  14.217  11.517
 9327SOL    HW229879   4.016  14.240  11.667
 9328SOL     OW29880  10.435   4.662  13.251
 9328SOL    HW129881  10.465   4.573  13.269
 9328SOL    HW229882  10.359   4.673  13.309
 9329SOL     OW29883  12.697  14.586   8.398
 9329SOL    HW129884  12.709  14.584   8.493
 9329SOL    HW229885  12.678  14.677   8.378
 9330SOL     OW29886  13.078   2.126  10.287
 9330SOL    HW129887  13.066   2.188  10.360
 9330SOL    HW229888  13.029   2.049  10.313
 9331SOL     OW29889   6.975   6.881  14.270
 9331SOL    HW129890   6.963   6.944  14.198
 9331SOL    HW229891   7.069   6.879  14.284
 9332SOL     OW29892  14.211   6.230   6.592
 9332SOL    HW129893  14.293   6.189   6.565
 9332SOL    HW229894  14.145   6.187   6.538
 9333SOL     OW29895   1.060  10.815   2.200
 9333SOL    HW129896   1.043  10.827   2.107
 9333SOL    HW229897   1.130  10.877   2.219
 9334SOL     OW29898   7.480   1.373   9.487
 9334SOL    HW129899   7.472   1.461   9.451
 9334SOL    HW229900   7.464   1.384   9.580
 9335SOL     OW29901   6.693   1.361  12.750
 9335SOL    HW129902   6.673   1.290  12.810
 9335SOL    HW229903   6.616   1.417  12.752
 9336SOL     OW29904  12.585  14.293  10.309
 9336SOL    HW129905  12.656  14.253  10.258
 9336SOL    HW229906  12.527  14.220  10.330
 9337SOL     OW29907  14.665   4.726  10.592
 9337SOL    HW129908  14.711   4.676  10.525
 9337SOL    HW229909  14.687   4.682  10.674
 9338SOL     OW29910   4.371   5.081   6.087
 9338SOL    HW129911   4.389   5.094   5.994
 9338SOL    HW229912   4.356   5.169   6.121
 9339SOL     OW29913   1.104   1.216   3.446
 9339SOL    HW129914   1.034   1.156   3.474
 9339SOL    HW229915   1.063   1.269   3.377
 9340SOL     OW29916  14.210   5.465   3.058
 9340SOL    HW129917  14.225   5.424   3.142
 9340SOL    HW229918  14.272   5.538   3.055
 9341SOL     OW29919   9.691  11.461   3.974
 9341SOL    HW129920   9.759  11.525   3.955
 9341SOL    HW229921   9.737  11.389   4.018
 9342SOL     OW29922  12.067   6.064   6.890
 9342SOL    HW129923  12.114   6.135   6.845
 9342SOL    HW229924  11.976   6.092   6.890
 9343SOL     OW29925   1.668   7.139   1.670
 9343SOL    HW129926   1.720   7.120   1.591
 9343SOL    HW229927   1.710   7.216   1.709
 9344SOL     OW29928  11.923   7.571   0.901
 9344SOL    HW129929  11.851   7.516   0.932
 9344SOL    HW229930  11.891   7.607   0.818
 9345SOL     OW29931   1.795   6.769   8.371
 9345SOL    HW129932   1.851   6.784   8.448
 9345SOL    HW229933   1.711   6.742   8.408
 9346SOL     OW29934   7.012   7.766  10.240
 9346SOL    HW129935   7.058   7.841  10.202
 9346SOL    HW229936   7.020   7.697  10.174
 9347SOL     OW29937   2.772   6.188   1.121
 9347SOL    HW129938   2.748   6.162   1.032
 9347SOL    HW229939   2.744   6.115   1.175
 9348SOL     OW29940   8.650  10.530   4.598
 9348SOL    HW129941   8.665  10.455   4.655
 9348SOL    HW229942   8.681  10.502   4.512
 9349SOL     OW29943   2.890   9.694  11.756
 9349SOL    HW129944   2.968   9.646  11.729
 9349SOL    HW229945   2.834   9.695  11.679
 9350SOL     OW29946   0.350   8.182   2.531
 9350SOL    HW129947   0.361   8.094   2.496
 9350SOL    HW229948   0.269   8.177   2.583
 9351SOL     OW29949  10.929   0.222   8.537
 9351SOL    HW129950  10.915   0.200   8.629
 9351SOL    HW229951  10.850   0.191   8.493
 9352SOL     OW29952   2.893   3.384  12.418
 9352SOL    HW129953   2.915   3.471  12.450
 9352SOL    HW229954   2.842   3.400  12.338
 9353SOL     OW29955  14.068  13.660  11.320
 9353SOL    HW129956  14.117  13.606  11.382
 9353SOL    HW229957  14.108  13.747  11.328
 9354SOL     OW29958   5.128  11.685   8.366
 9354SOL    HW129959   5.141  11.633   8.287
 9354SOL    HW229960   5.178  11.638   8.434
 9355SOL     OW29961   3.294   3.343   6.502
 9355SOL    HW129962   3.252   3.347   6.588
 9355SOL    HW229963   3.233   3.293   6.448
 9356SOL     OW29964   3.893   9.537  11.396
 9356SOL    HW129965   3.809   9.557  11.437
 9356SOL    HW229966   3.941   9.487  11.462
 9357SOL     OW29967   2.868   7.189   1.069
 9357SOL    HW129968   2.941   7.230   1.116
 9357SOL    HW229969   2.856   7.104   1.111
 9358SOL     OW29970  10.155  14.263   5.350
 9358SOL    HW129971  10.103  14.265   5.269
 9358SOL    HW229972  10.222  14.196   5.333
 9359SOL     OW29973   3.869   9.393   2.168
 9359SOL    HW129974   3.905   9.450   2.236
 9359SOL    HW229975   3.944   9.339   2.141
 9360SOL     OW29976   4.824  11.381   8.515
 9360SOL    HW129977   4.825  11.293   8.551
 9360SOL    HW229978   4.914  11.397   8.486
 9361SOL     OW29979   3.479   3.512  10.715
 9361SOL    HW129980   3.518   3.595  10.687
 9361SOL    HW229981   3.395   3.537  10.754
 9362SOL     OW29982  13.641  12.268   8.752
 9362SOL    HW129983  13.673  12.179   8.754
 9362SOL    HW229984  13.572  12.268   8.685
 9363SOL     OW29985   3.317   1.647   3.852
 9363SOL    HW129986   3.272   1.705   3.790
 9363SOL    HW229987   3.309   1.692   3.936
 9364SOL     OW29988  14.554   0.598  13.274
 9364SOL    HW129989  14.633   0.652  13.268
 9364SOL    HW229990  14.484   0.653  13.239
 9365SOL     OW29991  14.840  13.798  10.230
 9365SOL    HW129992  14.766  13.796  10.290
 9365SOL    HW229993  14.829  13.721  10.174
 9366SOL     OW29994   9.309  12.100   2.817
 9366SOL    HW129995   9.252  12.088   2.740
 9366SOL    HW229996   9.291  12.024   2.872
 9367SOL     OW29997  11.056   4.383   8.503
 9367SOL    HW129998  11.087   4.415   8.588
 9367SOL    HW229999  11.136   4.377   8.450
 9368SOL     OW30000   9.580   7.393   8.369
 9368SOL    HW130001   9.652   7.414   8.310
 9368SOL    HW230002   9.515   7.461   8.352
 9369SOL     OW30003   3.756  14.282  10.447
 9369SOL    HW130004   3.809  14.322  10.377
 9369SOL    HW230005   3.677  14.252  10.403
 9370SOL     OW30006  11.476  10.135   1.108
 9370SOL    HW130007  11.409  10.146   1.176
 9370SOL    HW230008  11.520  10.220   1.104
 9371SOL     OW30009   4.739  11.764   4.666
 9371SOL    HW130010   4.826  11.725   4.656
 9371SOL    HW230011   4.682  11.712   4.608
 9372SOL     OW30012   6.083   5.931   7.625
 9372SOL    HW130013   6.029   5.994   7.577
 9372SOL    HW230014   6.049   5.934   7.715
 9373SOL     OW30015   3.378  11.795  14.719
 9373SOL    HW130016   3.283  11.798  14.709
 9373SOL    HW230017   3.402  11.705  14.700
 9374SOL     OW30018   8.494   3.834  12.516
 9374SOL    HW130019   8.451   3.852  12.600
 9374SOL    HW230020   8.579   3.876  12.522
 9375SOL     OW30021   2.784   8.959   6.200
 9375SOL    HW130022   2.738   8.962   6.283
 9375SOL    HW230023   2.841   9.036   6.201
 9376SOL     OW30024   3.591   5.828   1.665
 9376SOL    HW130025   3.563   5.802   1.753
 9376SOL    HW230026   3.576   5.750   1.612
 9377SOL     OW30027   3.455   9.797   3.416
 9377SOL    HW130028   3.414   9.883   3.408
 9377SOL    HW230029   3.544   9.810   3.381
 9378SOL     OW30030   6.887   2.701  12.281
 9378SOL    HW130031   6.860   2.685  12.371
 9378SOL    HW230032   6.805   2.709  12.233
 9379SOL     OW30033  12.413   9.646  12.909
 9379SOL    HW130034  12.429   9.665  12.816
 9379SOL    HW230035  12.468   9.708  12.956
 9380SOL     OW30036   3.047   4.035  10.442
 9380SOL    HW130037   3.106   4.075  10.379
 9380SOL    HW230038   2.964   4.081  10.430
 9381SOL     OW30039  13.623  14.353  14.666
 9381SOL    HW130040  13.583  14.266  14.673
 9381SOL    HW230041  13.716  14.338  14.681
 9382SOL     OW30042  13.823   0.620   9.347
 9382SOL    HW130043  13.851   0.712   9.344
 9382SOL    HW230044  13.903   0.570   9.335
 9383SOL     OW30045  14.759  12.765  13.608
 9383SOL    HW130046  14.694  12.696  13.593
 9383SOL    HW230047  14.707  12.842  13.631
 9384SOL     OW30048   0.938   8.848   5.731
 9384SOL    HW130049   0.853   8.814   5.703
 9384SOL    HW230050   0.961   8.913   5.664
 9385SOL     OW30051   8.003   1.964  11.458
 9385SOL    HW130052   7.924   1.927  11.497
 9385SOL    HW230053   8.064   1.974  11.532
 9386SOL     OW30054  10.861  10.284   9.566
 9386SOL    HW130055  10.830  10.300   9.477
 9386SOL    HW230056  10.786  10.301   9.622
 9387SOL     OW30057   5.750  14.489   7.761
 9387SOL    HW130058   5.662  14.514   7.731
 9387SOL    HW230059   5.797  14.466   7.681
 9388SOL     OW30060   3.470   3.686  12.788
 9388SOL    HW130061   3.407   3.620  12.759
 9388SOL    HW230062   3.468   3.679  12.884
 9389SOL     OW30063   7.525   7.286   7.673
 9389SOL    HW130064   7.486   7.311   7.589
 9389SOL    HW230065   7.574   7.207   7.654
 9390SOL     OW30066   2.449   2.972   5.302
 9390SOL    HW130067   2.513   2.973   5.373
 9390SOL    HW230068   2.462   2.888   5.259
 9391SOL     OW30069  13.211   0.668   8.575
 9391SOL    HW130070  13.189   0.666   8.481
 9391SOL    HW230071  13.257   0.585   8.590
 9392SOL     OW30072   0.940   3.491  11.288
 9392SOL    HW130073   0.867   3.501  11.227
 9392SOL    HW230074   0.982   3.409  11.262
 9393SOL     OW30075   9.955  11.387  11.226
 9393SOL    HW130076   9.976  11.396  11.319
 9393SOL    HW230077   9.923  11.474  11.200
 9394SOL     OW30078   2.206  11.864  14.570
 9394SOL    HW130079   2.130  11.817  14.535
 9394SOL    HW230080   2.276  11.849  14.506
 9395SOL     OW30081   8.844   0.063   5.059
 9395SOL    HW130082   8.832  14.846   5.092
 9395SOL    HW230083   8.839   0.054   4.964
 9396SOL     OW30084   3.643   3.267   4.338
 9396SOL    HW130085   3.596   3.229   4.264
 9396SOL    HW230086   3.577   3.276   4.406
 9397SOL     OW30087   3.396   1.363   6.772
 9397SOL    HW130088   3.377   1.341   6.681
 9397SOL    HW230089   3.378   1.457   6.779
 9398SOL     OW30090  12.501  11.258   0.719
 9398SOL    HW130091  12.487  11.351   0.734
 9398SOL    HW230092  12.589  11.253   0.683
 9399SOL     OW30093   0.422   1.230   7.193
 9399SOL    HW130094   0.468   1.198   7.270
 9399SOL    HW230095   0.339   1.265   7.227
 9400SOL     OW30096   3.352  10.599  11.454
 9400SOL    HW130097   3.400  10.556  11.525
 9400SOL    HW230098   3.370  10.545  11.377
 9401SOL     OW30099   8.811   3.674  12.555
 9401SOL    HW130100   8.809   3.585  12.590
 9401SOL    HW230101   8.905   3.694  12.550
 9402SOL     OW30102  12.754   4.678   1.951
 9402SOL    HW130103  12.707   4.629   1.883
 9402SOL    HW230104  12.787   4.611   2.010
 9403SOL     OW30105   4.879   3.592  14.688
 9403SOL    HW130106   4.908   3.533  14.758
 9403SOL    HW230107   4.784   3.595  14.698
 9404SOL     OW30108   2.299   0.652   2.969
 9404SOL    HW130109   2.242   0.722   2.937
 9404SOL    HW230110   2.384   0.671   2.930
 9405SOL     OW30111  14.460  11.354  14.693
 9405SOL    HW130112  14.367  11.337  14.706
 9405SOL    HW230113  14.466  11.449  14.684
 9406SOL     OW30114  12.471   2.646  10.533
 9406SOL    HW130115  12.470   2.627  10.627
 9406SOL    HW230116  12.556   2.689  10.519
 9407SOL     OW30117  12.062  10.946   7.968
 9407SOL    HW130118  12.035  10.908   8.052
 9407SOL    HW230119  12.005  11.022   7.956
 9408SOL     OW30120  11.298  12.047   5.512
 9408SOL    HW130121  11.239  12.060   5.437
 9408SOL    HW230122  11.383  12.031   5.473
 9409SOL     OW30123  14.810  11.426  12.133
 9409SOL    HW130124   0.018  11.407  12.083
 9409SOL    HW230125  14.765  11.342  12.139
 9410SOL     OW30126  12.535   7.166  14.357
 9410SOL    HW130127  12.537   7.142  14.450
 9410SOL    HW230128  12.462   7.227  14.350
 9411SOL     OW30129   6.505   0.262   7.516
 9411SOL    HW130130   6.417   0.238   7.545
 9411SOL    HW230131   6.506   0.241   7.423
 9412SOL     OW30132  14.117  12.079  11.919
 9412SOL    HW130133  14.188  12.049  11.861
 9412SOL    HW230134  14.139  12.170  11.938
 9413SOL     OW30135   3.786  10.427  12.635
 9413SOL    HW130136   3.880  10.422  12.652
 9413SOL    HW230137   3.767  10.521  12.631
 9414SOL     OW30138   7.157   7.871  14.640
 9414SOL    HW130139   7.102   7.848  14.715
 9414SOL    HW230140   7.106   7.841  14.564
 9415SOL     OW30141   5.848   9.074  10.488
 9415SOL    HW130142   5.834   8.997  10.433
 9415SOL    HW230143   5.935   9.105  10.463
 9416SOL     OW30144   5.462   3.649   0.702
 9416SOL    HW130145   5.452   3.679   0.611
 9416SOL    HW230146   5.550   3.678   0.726
 9417SOL     OW30147   9.034   8.097  12.167
 9417SOL    HW130148   9.007   8.164  12.229
 9417SOL    HW230149   9.110   8.133  12.123
 9418SOL     OW30150   6.736   0.237  13.999
 9418SOL    HW130151   6.744   0.311  14.059
 9418SOL    HW230152   6.678   0.268  13.929
 9419SOL     OW30153   1.493   8.443   2.882
 9419SOL    HW130154   1.570   8.415   2.931
 9419SOL    HW230155   1.463   8.522   2.927
 9420SOL     OW30156   6.352   3.798   2.265
 9420SOL    HW130157   6.393   3.725   2.310
 9420SOL    HW230158   6.424   3.847   2.227
 9421SOL     OW30159  14.013   4.704   5.922
 9421SOL    HW130160  14.015   4.717   6.017
 9421SOL    HW230161  14.099   4.666   5.901
 9422SOL     OW30162   5.361   5.944   4.730
 9422SOL    HW130163   5.311   5.893   4.795
 9422SOL    HW230164   5.317   6.029   4.729
 9423SOL     OW30165  10.534  12.796   2.633
 9423SOL    HW130166  10.455  12.840   2.602
 9423SOL    HW230167  10.582  12.773   2.554
 9424SOL     OW30168   0.295   6.280   8.415
 9424SOL    HW130169   0.371   6.254   8.362
 9424SOL    HW230170   0.298   6.376   8.415
 9425SOL     OW30171   1.154   7.541   0.318
 9425SOL    HW130172   1.069   7.502   0.340
 9425SOL    HW230173   1.162   7.531   0.223
 9426SOL     OW30174   0.620   8.861   9.290
 9426SOL    HW130175   0.674   8.829   9.218
 9426SOL    HW230176   0.542   8.805   9.288
 9427SOL     OW30177  11.614   8.307   9.705
 9427SOL    HW130178  11.571   8.390   9.726
 9427SOL    HW230179  11.708   8.328   9.710
 9428SOL     OW30180   2.064  11.371   1.319
 9428SOL    HW130181   2.127  11.420   1.266
 9428SOL    HW230182   1.991  11.430   1.331
 9429SOL     OW30183   6.185   4.211   7.436
 9429SOL    HW130184   6.155   4.168   7.356
 9429SOL    HW230185   6.266   4.164   7.459
 9430SOL     OW30186   4.539   9.365  11.627
 9430SOL    HW130187   4.560   9.277  11.658
 9430SOL    HW230188   4.618   9.416  11.644
 9431SOL     OW30189   0.237   5.508   5.490
 9431SOL    HW130190   0.251   5.576   5.423
 9431SOL    HW230191   0.324   5.487   5.522
 9432SOL     OW30192   6.922   5.071   7.922
 9432SOL    HW130193   6.931   5.099   8.013
 9432SOL    HW230194   6.829   5.081   7.903
 9433SOL     OW30195   9.673   1.521   0.638
 9433SOL    HW130196   9.720   1.572   0.704
 9433SOL    HW230197   9.589   1.500   0.679
 9434SOL     OW30198  14.766   4.810  11.024
 9434SOL    HW130199  14.791   4.902  11.030
 9434SOL    HW230200  14.676   4.811  10.992
 9435SOL     OW30201   8.898   9.672   5.277
 9435SOL    HW130202   8.859   9.587   5.255
 9435SOL    HW230203   8.855   9.734   5.219
 9436SOL     OW30204  13.454   6.174   6.177
 9436SOL    HW130205  13.438   6.156   6.270
 9436SOL    HW230206  13.381   6.231   6.151
 9437SOL     OW30207   4.574   4.526   5.252
 9437SOL    HW130208   4.546   4.613   5.223
 9437SOL    HW230209   4.650   4.505   5.198
 9438SOL     OW30210  14.535   5.243   5.471
 9438SOL    HW130211  14.575   5.330   5.468
 9438SOL    HW230212  14.586   5.195   5.537
 9439SOL     OW30213   9.088   8.148  13.152
 9439SOL    HW130214   9.078   8.237  13.184
 9439SOL    HW230215   9.181   8.140  13.131
 9440SOL     OW30216  10.927   6.550  13.479
 9440SOL    HW130217  10.985   6.522  13.550
 9440SOL    HW230218  10.841   6.560  13.520
 9441SOL     OW30219   0.434   1.937   2.949
 9441SOL    HW130220   0.444   1.852   2.905
 9441SOL    HW230221   0.505   1.939   3.013
 9442SOL     OW30222   0.004   8.101   6.433
 9442SOL    HW130223  14.845   8.013   6.410
 9442SOL    HW230224   0.099   8.092   6.443
 9443SOL     OW30225   3.283   3.448  13.169
 9443SOL    HW130226   3.212   3.500  13.131
 9443SOL    HW230227   3.244   3.406  13.245
 9444SOL     OW30228   2.644  13.761   7.646
 9444SOL    HW130229   2.582  13.833   7.655
 9444SOL    HW230230   2.627  13.704   7.722
 9445SOL     OW30231   0.299  11.165  12.123
 9445SOL    HW130232   0.360  11.217  12.071
 9445SOL    HW230233   0.303  11.203  12.210
 9446SOL     OW30234   6.355   5.898  10.729
 9446SOL    HW130235   6.397   5.982  10.746
 9446SOL    HW230236   6.422   5.845  10.685
 9447SOL     OW30237   1.419   0.860   9.475
 9447SOL    HW130238   1.454   0.874   9.387
 9447SOL    HW230239   1.324   0.855   9.462
 9448SOL     OW30240   9.264  12.187  11.248
 9448SOL    HW130241   9.334  12.144  11.198
 9448SOL    HW230242   9.191  12.126  11.244
 9449SOL     OW30243  14.839  12.189  12.912
 9449SOL    HW130244   0.042  12.131  12.899
 9449SOL    HW230245  14.831  12.238  12.830
 9450SOL     OW30246   8.190   1.466  10.658
 9450SOL    HW130247   8.115   1.514  10.624
 9450SOL    HW230248   8.153   1.405  10.721
 9451SOL     OW30249   9.096  13.334   9.977
 9451SOL    HW130250   9.165  13.271   9.958
 9451SOL    HW230251   9.034  13.287  10.032
 9452SOL     OW30252   2.368  11.125   3.890
 9452SOL    HW130253   2.296  11.187   3.898
 9452SOL    HW230254   2.359  11.068   3.967
 9453SOL     OW30255  13.651   2.918  10.483
 9453SOL    HW130256  13.585   2.920  10.553
 9453SOL    HW230257  13.635   2.998  10.433
 9454SOL     OW30258  12.480  11.799   2.651
 9454SOL    HW130259  12.476  11.830   2.742
 9454SOL    HW230260  12.398  11.830   2.612
 9455SOL     OW30261   9.501   4.617   9.502
 9455SOL    HW130262   9.408   4.593   9.495
 9455SOL    HW230263   9.545   4.536   9.525
 9456SOL     OW30264   7.114  11.256   7.934
 9456SOL    HW130265   7.117  11.243   7.840
 9456SOL    HW230266   7.205  11.250   7.962
 9457SOL     OW30267   0.772   6.892  11.974
 9457SOL    HW130268   0.813   6.892  12.061
 9457SOL    HW230269   0.731   6.978  11.967
 9458SOL     OW30270   8.754   7.288  13.289
 9458SOL    HW130271   8.803   7.213  13.323
 9458SOL    HW230272   8.674   7.291  13.340
 9459SOL     OW30273   9.700  10.145  14.680
 9459SOL    HW130274   9.662  10.165  14.594
 9459SOL    HW230275   9.655  10.204  14.740
 9460SOL     OW30276   1.707   2.825   5.670
 9460SOL    HW130277   1.641   2.784   5.727
 9460SOL    HW230278   1.721   2.761   5.600
 9461SOL     OW30279   9.759  13.459   5.483
 9461SOL    HW130280   9.804  13.456   5.567
 9461SOL    HW230281   9.757  13.552   5.461
 9462SOL     OW30282  12.050   7.570  13.797
 9462SOL    HW130283  12.101   7.644  13.764
 9462SOL    HW230284  12.107   7.494  13.784
 9463SOL     OW30285  10.411   7.110   3.950
 9463SOL    HW130286  10.318   7.085   3.947
 9463SOL    HW230287  10.436   7.121   3.859
 9464SOL     OW30288   0.338  10.235   5.609
 9464SOL    HW130289   0.382  10.236   5.524
 9464SOL    HW230290   0.372  10.156   5.653
 9465SOL     OW30291   4.608  14.859   8.119
 9465SOL    HW130292   4.514  14.861   8.138
 9465SOL    HW230293   4.635  14.770   8.144
 9466SOL     OW30294  11.503   8.123   0.738
 9466SOL    HW130295  11.415   8.161   0.744
 9466SOL    HW230296  11.561   8.199   0.733
 9467SOL     OW30297   7.732   4.236   4.906
 9467SOL    HW130298   7.791   4.274   4.971
 9467SOL    HW230299   7.691   4.162   4.950
 9468SOL     OW30300   2.855   1.278  11.011
 9468SOL    HW130301   2.852   1.216  11.084
 9468SOL    HW230302   2.939   1.262  10.968
 9469SOL     OW30303   8.612  11.919   7.757
 9469SOL    HW130304   8.551  11.851   7.787
 9469SOL    HW230305   8.696  11.874   7.750
 9470SOL     OW30306   8.963   8.588   0.025
 9470SOL    HW130307   8.946   8.517  14.834
 9470SOL    HW230308   8.885   8.642   0.021
 9471SOL     OW30309   6.350  11.481  10.301
 9471SOL    HW130310   6.259  11.464  10.276
 9471SOL    HW230311   6.345  11.508  10.393
 9472SOL     OW30312   7.904   3.023   4.659
 9472SOL    HW130313   7.868   2.951   4.711
 9472SOL    HW230314   7.840   3.094   4.668
 9473SOL     OW30315  10.387   5.937  13.937
 9473SOL    HW130316  10.349   5.980  13.861
 9473SOL    HW230317  10.481   5.956  13.931
 9474SOL     OW30318  11.019  13.911  13.703
 9474SOL    HW130319  11.093  13.880  13.755
 9474SOL    HW230320  11.016  13.852  13.628
 9475SOL     OW30321  14.451   6.535   6.980
 9475SOL    HW130322  14.433   6.448   7.013
 9475SOL    HW230323  14.540   6.531   6.947
 9476SOL     OW30324   8.099  12.455   0.921
 9476SOL    HW130325   8.122  12.461   1.014
 9476SOL    HW230326   8.004  12.464   0.919
 9477SOL     OW30327  12.017   5.796  10.789
 9477SOL    HW130328  12.112   5.784  10.786
 9477SOL    HW230329  12.004   5.886  10.758
 9478SOL     OW30330  11.006  13.694   0.964
 9478SOL    HW130331  10.999  13.599   0.970
 9478SOL    HW230332  10.920  13.723   0.933
 9479SOL     OW30333  12.524  11.374   4.347
 9479SOL    HW130334  12.526  11.391   4.253
 9479SOL    HW230335  12.541  11.459   4.388
 9480SOL     OW30336   1.295   0.647   4.793
 9480SOL    HW130337   1.347   0.721   4.762
 9480SOL    HW230338   1.354   0.572   4.790
 9481SOL     OW30339   5.582   2.850  13.557
 9481SOL    HW130340   5.626   2.917  13.609
 9481SOL    HW230341   5.494   2.845  13.594
 9482SOL     OW30342   1.625   8.437  13.066
 9482SOL    HW130343   1.679   8.359  13.081
 9482SOL    HW230344   1.629   8.450  12.971
 9483SOL     OW30345   9.031  12.555   9.611
 9483SOL    HW130346   9.106  12.614   9.613
 9483SOL    HW230347   8.983  12.579   9.532
 9484SOL     OW30348  13.089   6.444   7.458
 9484SOL    HW130349  13.170   6.409   7.422
 9484SOL    HW230350  13.021   6.386   7.425
 9485SOL     OW30351   7.488   6.989  14.635
 9485SOL    HW130352   7.470   7.040  14.714
 9485SOL    HW230353   7.403   6.981  14.591
 9486SOL     OW30354   5.752  13.305   6.085
 9486SOL    HW130355   5.792  13.225   6.119
 9486SOL    HW230356   5.794  13.375   6.134
 9487SOL     OW30357  14.513   7.247  10.005
 9487SOL    HW130358  14.606   7.227  10.013
 9487SOL    HW230359  14.511   7.341   9.987
 9488SOL     OW30360   3.668   4.430   8.295
 9488SOL    HW130361   3.623   4.511   8.272
 9488SOL    HW230362   3.611   4.387   8.358
 9489SOL     OW30363   0.045   5.754   8.055
 9489SOL    HW130364   0.104   5.825   8.030
 9489SOL    HW230365   0.103   5.680   8.074
 9490SOL     OW30366   6.288   3.813   2.644
 9490SOL    HW130367   6.265   3.721   2.628
 9490SOL    HW230368   6.363   3.830   2.587
 9491SOL     OW30369  13.067   3.352   5.293
 9491SOL    HW130370  13.063   3.327   5.201
 9491SOL    HW230371  13.063   3.268   5.340
 9492SOL     OW30372   2.378   0.953  14.105
 9492SOL    HW130373   2.466   0.980  14.131
 9492SOL    HW230374   2.323   0.972  14.181
 9493SOL     OW30375  13.936   6.904   0.479
 9493SOL    HW130376  13.917   6.997   0.489
 9493SOL    HW230377  13.856   6.859   0.506
 9494SOL     OW30378   9.726   6.586   5.935
 9494SOL    HW130379   9.664   6.583   6.008
 9494SOL    HW230380   9.687   6.529   5.869
 9495SOL     OW30381  12.135   3.396   8.894
 9495SOL    HW130382  12.210   3.396   8.953
 9495SOL    HW230383  12.156   3.329   8.829
 9496SOL     OW30384   9.387   5.182  12.720
 9496SOL    HW130385   9.310   5.239  12.718
 9496SOL    HW230386   9.417   5.178  12.629
 9497SOL     OW30387  10.545   4.563   7.355
 9497SOL    HW130388  10.506   4.484   7.391
 9497SOL    HW230389  10.631   4.568   7.395
 9498SOL     OW30390  14.273  11.472   8.589
 9498SOL    HW130391  14.200  11.498   8.646
 9498SOL    HW230392  14.310  11.554   8.557
 9499SOL     OW30393   4.462   5.924   3.974
 9499SOL    HW130394   4.395   5.923   4.042
 9499SOL    HW230395   4.507   5.841   3.983
 9500SOL     OW30396   7.220  12.298   7.340
 9500SOL    HW130397   7.314  12.293   7.357
 9500SOL    HW230398   7.213  12.298   7.245
 9501SOL     OW30399   3.560   9.885   8.648
 9501SOL    HW130400   3.513   9.894   8.731
 9501SOL    HW230401   3.558   9.792   8.629
 9502SOL     OW30402   1.750   0.175   4.748
 9502SOL    HW130403   1.661   0.166   4.712
 9502SOL    HW230404   1.794   0.094   4.724
 9503SOL     OW30405   1.272   2.775   6.322
 9503SOL    HW130406   1.296   2.864   6.349
 9503SOL    HW230407   1.178   2.779   6.307
 9504SOL     OW30408   0.452   1.041  13.693
 9504SOL    HW130409   0.361   1.036  13.663
 9504SOL    HW230410   0.485   0.952  13.685
 9505SOL     OW30411   8.086  12.137   5.265
 9505SOL    HW130412   8.073  12.118   5.357
 9505SOL    HW230413   8.057  12.228   5.256
 9506SOL     OW30414  10.541   7.641   5.228
 9506SOL    HW130415  10.508   7.723   5.192
 9506SOL    HW230416  10.531   7.578   5.156
 9507SOL     OW30417   6.959   0.424   6.548
 9507SOL    HW130418   7.003   0.469   6.476
 9507SOL    HW230419   7.007   0.343   6.558
 9508SOL     OW30420   0.126   0.003  12.984
 9508SOL    HW130421   0.189   0.065  12.947
 9508SOL    HW230422   0.144   0.004  13.078
 9509SOL     OW30423   3.196   1.031   7.392
 9509SOL    HW130424   3.137   0.999   7.461
 9509SOL    HW230425   3.140   1.084   7.336
 9510SOL     OW30426   1.938  13.940   7.516
 9510SOL    HW130427   2.016  13.954   7.569
 9510SOL    HW230428   1.963  13.870   7.455
 9511SOL     OW30429   7.903   9.130   8.527
 9511SOL    HW130430   7.847   9.056   8.550
 9511SOL    HW230431   7.930   9.113   8.437
 9512SOL     OW30432   3.359   0.240  12.299
 9512SOL    HW130433   3.307   0.312  12.263
 9512SOL    HW230434   3.295   0.171  12.315
 9513SOL     OW30435   7.061   4.760   8.642
 9513SOL    HW130436   7.074   4.665   8.635
 9513SOL    HW230437   7.095   4.783   8.729
 9514SOL     OW30438   1.165  13.739   5.128
 9514SOL    HW130439   1.238  13.685   5.099
 9514SOL    HW230440   1.167  13.816   5.072
 9515SOL     OW30441   7.365   5.524   6.625
 9515SOL    HW130442   7.311   5.487   6.555
 9515SOL    HW230443   7.304   5.579   6.675
 9516SOL     OW30444  14.075   7.325  11.165
 9516SOL    HW130445  14.001   7.324  11.104
 9516SOL    HW230446  14.132   7.254  11.135
 9517SOL     OW30447   7.740   2.352   5.144
 9517SOL    HW130448   7.731   2.282   5.210
 9517SOL    HW230449   7.693   2.319   5.068
 9518SOL     OW30450   6.326   4.942   4.840
 9518SOL    HW130451   6.288   5.023   4.806
 9518SOL    HW230452   6.267   4.915   4.910
 9519SOL     OW30453  10.781   5.155   2.531
 9519SOL    HW130454  10.836   5.229   2.504
 9519SOL    HW230455  10.717   5.194   2.590
 9520SOL     OW30456   6.094   9.290  12.231
 9520SOL    HW130457   6.124   9.379  12.246
 9520SOL    HW230458   6.014   9.282  12.284
 9521SOL     OW30459   1.122   5.926   3.870
 9521SOL    HW130460   1.028   5.910   3.858
 9521SOL    HW230461   1.159   5.921   3.782
 9522SOL     OW30462   7.611  12.465   0.400
 9522SOL    HW130463   7.576  12.377   0.384
 9522SOL    HW230464   7.535  12.523   0.396
 9523SOL     OW30465   8.304   0.664   3.804
 9523SOL    HW130466   8.248   0.596   3.767
 9523SOL    HW230467   8.248   0.709   3.867
 9524SOL     OW30468   7.231   9.774   0.686
 9524SOL    HW130469   7.279   9.817   0.757
 9524SOL    HW230470   7.242   9.833   0.611
 9525SOL     OW30471   2.944   1.462   2.062
 9525SOL    HW130472   2.903   1.526   2.003
 9525SOL    HW230473   2.875   1.397   2.078
 9526SOL     OW30474   9.918   3.642   8.914
 9526SOL    HW130475   9.890   3.615   8.826
 9526SOL    HW230476   9.863   3.718   8.934
 9527SOL     OW30477   1.350   5.659   8.520
 9527SOL    HW130478   1.396   5.583   8.555
 9527SOL    HW230479   1.397   5.681   8.440
 9528SOL     OW30480   6.792   7.028  10.890
 9528SOL    HW130481   6.830   6.980  10.817
 9528SOL    HW230482   6.820   6.981  10.968
 9529SOL     OW30483   1.224   1.268   0.778
 9529SOL    HW130484   1.285   1.197   0.798
 9529SOL    HW230485   1.159   1.263   0.848
 9530SOL     OW30486   0.104   6.666  13.105
 9530SOL    HW130487   0.188   6.622  13.112
 9530SOL    HW230488   0.061   6.624  13.030
 9531SOL     OW30489  12.068   2.024  11.988
 9531SOL    HW130490  12.155   2.049  12.019
 9531SOL    HW230491  12.071   2.037  11.894
 9532SOL     OW30492   2.710   0.831   9.945
 9532SOL    HW130493   2.766   0.754   9.957
 9532SOL    HW230494   2.638   0.799   9.890
 9533SOL     OW30495   0.242   2.857   7.103
 9533SOL    HW130496   0.211   2.823   7.019
 9533SOL    HW230497   0.323   2.808   7.120
 9534SOL     OW30498  14.381   6.446   7.395
 9534SOL    HW130499  14.468   6.455   7.435
 9534SOL    HW230500  14.396   6.391   7.318
 9535SOL     OW30501  13.771   8.588  14.429
 9535SOL    HW130502  13.859   8.605  14.394
 9535SOL    HW230503  13.763   8.493  14.425
 9536SOL     OW30504  10.035  13.783   3.737
 9536SOL    HW130505  10.089  13.739   3.672
 9536SOL    HW230506   9.947  13.779   3.702
 9537SOL     OW30507   5.368   9.963  13.667
 9537SOL    HW130508   5.414   9.879  13.666
 9537SOL    HW230509   5.277   9.940  13.684
 9538SOL     OW30510   5.620  12.908   1.633
 9538SOL    HW130511   5.583  12.989   1.668
 9538SOL    HW230512   5.576  12.838   1.681
 9539SOL     OW30513   5.400  13.740  12.839
 9539SOL    HW130514   5.338  13.797  12.794
 9539SOL    HW230515   5.408  13.664  12.782
 9540SOL     OW30516   4.439   7.600  13.595
 9540SOL    HW130517   4.345   7.580  13.589
 9540SOL    HW230518   4.483   7.521  13.564
 9541SOL     OW30519  13.139   3.815   0.624
 9541SOL    HW130520  13.119   3.849   0.712
 9541SOL    HW230521  13.188   3.734   0.641
 9542SOL     OW30522   4.898   8.190   0.414
 9542SOL    HW130523   4.836   8.184   0.486
 9542SOL    HW230524   4.847   8.226   0.341
 9543SOL     OW30525   6.862  14.614   4.806
 9543SOL    HW130526   6.873  14.684   4.869
 9543SOL    HW230527   6.790  14.643   4.749
 9544SOL     OW30528   2.606   2.026   1.129
 9544SOL    HW130529   2.531   2.014   1.187
 9544SOL    HW230530   2.591   1.965   1.057
 9545SOL     OW30531   8.337   6.804   2.727
 9545SOL    HW130532   8.402   6.812   2.657
 9545SOL    HW230533   8.350   6.881   2.782
 9546SOL     OW30534   3.488   7.335   9.555
 9546SOL    HW130535   3.492   7.383   9.472
 9546SOL    HW230536   3.398   7.305   9.561
 9547SOL     OW30537   1.137   7.705  10.767
 9547SOL    HW130538   1.056   7.727  10.721
 9547SOL    HW230539   1.146   7.773  10.833
 9548SOL     OW30540   2.727   6.733   2.785
 9548SOL    HW130541   2.717   6.737   2.880
 9548SOL    HW230542   2.778   6.811   2.763
 9549SOL     OW30543   5.814  12.896  13.676
 9549SOL    HW130544   5.762  12.852  13.743
 9549SOL    HW230545   5.905  12.879  13.700
 9550SOL     OW30546  12.822  11.605  11.507
 9550SOL    HW130547  12.902  11.651  11.481
 9550SOL    HW230548  12.759  11.626  11.438
 9551SOL     OW30549   3.888   0.620  11.469
 9551SOL    HW130550   3.843   0.558  11.413
 9551SOL    HW230551   3.949   0.567  11.520
 9552SOL     OW30552   6.476   4.703   5.753
 9552SOL    HW130553   6.490   4.752   5.672
 9552SOL    HW230554   6.391   4.661   5.742
 9553SOL     OW30555  14.791   0.296   2.217
 9553SOL    HW130556  14.847   0.225   2.248
 9553SOL    HW230557  14.714   0.251   2.182
 9554SOL     OW30558   2.595   7.152  13.360
 9554SOL    HW130559   2.517   7.189  13.401
 9554SOL    HW230560   2.668   7.194  13.405
 9555SOL     OW30561   3.347   8.159   0.719
 9555SOL    HW130562   3.377   8.206   0.641
 9555SOL    HW230563   3.420   8.101   0.741
 9556SOL     OW30564  12.414   8.755   4.962
 9556SOL    HW130565  12.364   8.718   4.889
 9556SOL    HW230566  12.421   8.848   4.941
 9557SOL     OW30567   6.744  11.995  13.842
 9557SOL    HW130568   6.822  12.038  13.879
 9557SOL    HW230569   6.722  11.928  13.906
 9558SOL     OW30570   3.229  13.243   0.844
 9558SOL    HW130571   3.191  13.320   0.887
 9558SOL    HW230572   3.312  13.274   0.808
 9559SOL     OW30573   2.134  10.587  12.877
 9559SOL    HW130574   2.229  10.571  12.872
 9559SOL    HW230575   2.114  10.636  12.798
 9560SOL     OW30576   5.302  13.093   8.544
 9560SOL    HW130577   5.370  13.150   8.508
 9560SOL    HW230578   5.307  13.013   8.491
 9561SOL     OW30579   5.734   1.753   7.590
 9561SOL    HW130580   5.664   1.703   7.632
 9561SOL    HW230581   5.771   1.806   7.661
 9562SOL     OW30582   3.481   2.511   7.721
 9562SOL    HW130583   3.531   2.527   7.802
 9562SOL    HW230584   3.547   2.488   7.656
 9563SOL     OW30585   2.518   5.020   3.812
 9563SOL    HW130586   2.558   5.092   3.860
 9563SOL    HW230587   2.583   4.950   3.816
 9564SOL     OW30588   9.269   5.190   8.376
 9564SOL    HW130589   9.244   5.281   8.391
 9564SOL    HW230590   9.325   5.168   8.451
 9565SOL     OW30591  10.791  12.295   1.344
 9565SOL    HW130592  10.775  12.273   1.252
 9565SOL    HW230593  10.850  12.226   1.375
 9566SOL     OW30594  12.743   2.273   4.016
 9566SOL    HW130595  12.680   2.204   4.035
 9566SOL    HW230596  12.706   2.352   4.058
 9567SOL     OW30597   1.071  14.448  14.033
 9567SOL    HW130598   1.130  14.390  13.984
 9567SOL    HW230599   1.026  14.499  13.967
 9568SOL     OW30600  11.801  14.693  10.903
 9568SOL    HW130601  11.787  14.692  10.809
 9568SOL    HW230602  11.876  14.752  10.915
 9569SOL     OW30603  10.386   9.870   6.140
 9569SOL    HW130604  10.461   9.874   6.199
 9569SOL    HW230605  10.317   9.829   6.191
 9570SOL     OW30606   8.257   6.973   2.371
 9570SOL    HW130607   8.173   6.996   2.330
 9570SOL    HW230608   8.243   6.885   2.407
 9571SOL     OW30609   4.096   6.065   2.728
 9571SOL    HW130610   4.119   5.972   2.729
 9571SOL    HW230611   4.006   6.068   2.759
 9572SOL     OW30612   3.847   5.798   8.647
 9572SOL    HW130613   3.841   5.888   8.615
 9572SOL    HW230614   3.893   5.806   8.731
 9573SOL     OW30615  14.425  13.821  13.403
 9573SOL    HW130616  14.486  13.749  13.412
 9573SOL    HW230617  14.464  13.893  13.453
 9574SOL     OW30618   6.191  10.991   4.884
 9574SOL    HW130619   6.137  10.921   4.849
 9574SOL    HW230620   6.253  10.946   4.942
 9575SOL     OW30621   2.838  11.145   1.592
 9575SOL    HW130622   2.768  11.082   1.578
 9575SOL    HW230623   2.796  11.221   1.632
 9576SOL     OW30624  12.228  10.612   6.336
 9576SOL    HW130625  12.183  10.696   6.332
 9576SOL    HW230626  12.315  10.630   6.300
 9577SOL     OW30627   6.572  13.789   7.926
 9577SOL    HW130628   6.547  13.698   7.906
 9577SOL    HW230629   6.558  13.836   7.843
 9578SOL     OW30630   6.284   6.891   7.254
 9578SOL    HW130631   6.368   6.916   7.215
 9578SOL    HW230632   6.222   6.899   7.182
 9579SOL     OW30633   5.002   9.045  14.431
 9579SOL    HW130634   5.014   8.980  14.362
 9579SOL    HW230635   4.942   9.110  14.393
 9580SOL     OW30636   7.090  11.712   7.344
 9580SOL    HW130637   7.107  11.676   7.431
 9580SOL    HW230638   7.093  11.637   7.285
 9581SOL     OW30639  14.708   2.599  12.045
 9581SOL    HW130640  14.724   2.689  12.073
 9581SOL    HW230641  14.791   2.570  12.007
 9582SOL     OW30642  12.583   8.983   2.123
 9582SOL    HW130643  12.553   8.931   2.048
 9582SOL    HW230644  12.510   9.041   2.143
 9583SOL     OW30645   2.146   3.110   3.906
 9583SOL    HW130646   2.115   3.029   3.945
 9583SOL    HW230647   2.122   3.178   3.969
 9584SOL     OW30648  13.967   4.345   2.398
 9584SOL    HW130649  13.929   4.426   2.364
 9584SOL    HW230650  13.919   4.329   2.479
 9585SOL     OW30651   0.713   7.606   0.901
 9585SOL    HW130652   0.779   7.539   0.883
 9585SOL    HW230653   0.759   7.689   0.887
 9586SOL     OW30654   8.181  13.268  13.664
 9586SOL    HW130655   8.185  13.189  13.612
 9586SOL    HW230656   8.250  13.324  13.629
 9587SOL     OW30657  14.670  12.439   9.742
 9587SOL    HW130658  14.626  12.354   9.730
 9587SOL    HW230659  14.601  12.498   9.771
 9588SOL     OW30660   3.526  14.244   8.267
 9588SOL    HW130661   3.476  14.322   8.242
 9588SOL    HW230662   3.486  14.216   8.350
 9589SOL     OW30663  12.717   5.384   9.349
 9589SOL    HW130664  12.799   5.360   9.305
 9589SOL    HW230665  12.734   5.364   9.441
 9590SOL     OW30666   5.822   3.348   0.825
 9590SOL    HW130667   5.830   3.410   0.898
 9590SOL    HW230668   5.834   3.402   0.746
 9591SOL     OW30669   0.046   3.224   2.294
 9591SOL    HW130670  14.844   3.210   2.235
 9591SOL    HW230671   0.109   3.155   2.272
 9592SOL     OW30672   8.291   5.323  11.135
 9592SOL    HW130673   8.347   5.307  11.060
 9592SOL    HW230674   8.253   5.409  11.120
 9593SOL     OW30675   5.237   6.117  13.969
 9593SOL    HW130676   5.228   6.200  14.017
 9593SOL    HW230677   5.239   6.051  14.038
 9594SOL     OW30678  12.703   9.666   3.512
 9594SOL    HW130679  12.652   9.601   3.560
 9594SOL    HW230680  12.724   9.733   3.577
 9595SOL     OW30681  13.100   3.989   2.319
 9595SOL    HW130682  13.037   3.919   2.337
 9595SOL    HW230683  13.186   3.947   2.327
 9596SOL     OW30684   3.045  14.394   8.047
 9596SOL    HW130685   3.012  14.348   7.970
 9596SOL    HW230686   3.131  14.355   8.063
 9597SOL     OW30687  10.637  10.077  12.161
 9597SOL    HW130688  10.608   9.993  12.198
 9597SOL    HW230689  10.611  10.073  12.069
 9598SOL     OW30690   0.383   0.305  14.826
 9598SOL    HW130691   0.328   0.228  14.835
 9598SOL    HW230692   0.431   0.311   0.038
 9599SOL     OW30693  10.144   4.434   6.477
 9599SOL    HW130694  10.220   4.465   6.428
 9599SOL    HW230695  10.136   4.342   6.454
 9600SOL     OW30696   6.127  12.185   1.154
 9600SOL    HW130697   6.064  12.192   1.082
 9600SOL    HW230698   6.128  12.273   1.193
 9601SOL     OW30699  12.153  13.418   9.616
 9601SOL    HW130700  12.219  13.391   9.551
 9601SOL    HW230701  12.195  13.486   9.667
 9602SOL     OW30702   2.224   0.554  12.984
 9602SOL    HW130703   2.262   0.545  13.071
 9602SOL    HW230704   2.299   0.553  12.924
 9603SOL     OW30705   3.357   0.239   4.034
 9603SOL    HW130706   3.284   0.243   4.096
 9603SOL    HW230707   3.330   0.295   3.961
 9604SOL     OW30708   3.912  12.844   4.925
 9604SOL    HW130709   3.878  12.924   4.964
 9604SOL    HW230710   3.869  12.773   4.974
 9605SOL     OW30711   2.464   2.086  10.373
 9605SOL    HW130712   2.433   2.008  10.328
 9605SOL    HW230713   2.442   2.071  10.465
 9606SOL     OW30714  12.095   4.584  10.357
 9606SOL    HW130715  12.156   4.539  10.299
 9606SOL    HW230716  12.061   4.656  10.304
 9607SOL     OW30717   1.714   7.887   5.839
 9607SOL    HW130718   1.791   7.872   5.784
 9607SOL    HW230719   1.648   7.827   5.805
 9608SOL     OW30720   1.459   7.745   9.955
 9608SOL    HW130721   1.497   7.735   9.868
 9608SOL    HW230722   1.424   7.834   9.956
 9609SOL     OW30723   3.174   1.833   6.068
 9609SOL    HW130724   3.089   1.867   6.037
 9609SOL    HW230725   3.164   1.738   6.067
 9610SOL     OW30726   2.875   3.832   2.135
 9610SOL    HW130727   2.802   3.851   2.075
 9610SOL    HW230728   2.910   3.749   2.104
 9611SOL     OW30729   1.223  12.109   1.124
 9611SOL    HW130730   1.245  12.056   1.048
 9611SOL    HW230731   1.142  12.070   1.158
 9612SOL     OW30732   1.980  11.884   7.558
 9612SOL    HW130733   2.012  11.797   7.536
 9612SOL    HW230734   1.914  11.903   7.491
 9613SOL     OW30735  12.497  10.013  13.172
 9613SOL    HW130736  12.551  10.034  13.249
 9613SOL    HW230737  12.542   9.941  13.130
 9614SOL     OW30738   7.176   3.711   9.566
 9614SOL    HW130739   7.083   3.735   9.564
 9614SOL    HW230740   7.176   3.616   9.561
 9615SOL     OW30741   0.350   1.111  14.577
 9615SOL    HW130742   0.258   1.098  14.554
 9615SOL    HW230743   0.379   1.184  14.523
 9616SOL     OW30744   9.224   0.576   1.568
 9616SOL    HW130745   9.180   0.617   1.642
 9616SOL    HW230746   9.278   0.507   1.607
 9617SOL     OW30747   1.647   5.932  10.579
 9617SOL    HW130748   1.625   5.897  10.665
 9617SOL    HW230749   1.742   5.918  10.571
 9618SOL     OW30750   1.204   0.314   8.375
 9618SOL    HW130751   1.126   0.272   8.340
 9618SOL    HW230752   1.174   0.400   8.406
 9619SOL     OW30753   2.581   8.687   7.318
 9619SOL    HW130754   2.625   8.602   7.318
 9619SOL    HW230755   2.499   8.672   7.365
 9620SOL     OW30756   7.165   9.763   2.774
 9620SOL    HW130757   7.073   9.741   2.757
 9620SOL    HW230758   7.187   9.714   2.854
 9621SOL     OW30759  12.632   0.854   0.579
 9621SOL    HW130760  12.650   0.761   0.586
 9621SOL    HW230761  12.572   0.873   0.652
 9622SOL     OW30762   5.014   5.454   1.248
 9622SOL    HW130763   4.985   5.399   1.321
 9622SOL    HW230764   4.949   5.524   1.245
 9623SOL     OW30765   0.075  10.761   8.573
 9623SOL    HW130766   0.056  10.854   8.582
 9623SOL    HW230767   0.064  10.744   8.479
 9624SOL     OW30768   6.682   5.299   0.414
 9624SOL    HW130769   6.699   5.354   0.338
 9624SOL    HW230770   6.751   5.233   0.412
 9625SOL     OW30771  13.026  12.508  11.513
 9625SOL    HW130772  13.011  12.504  11.419
 9625SOL    HW230773  12.947  12.471  11.552
 9626SOL     OW30774   1.139   7.256   0.483
 9626SOL    HW130775   1.063   7.312   0.501
 9626SOL    HW230776   1.140   7.247   0.387
 9627SOL     OW30777   6.809   1.916   2.699
 9627SOL    HW130778   6.732   1.970   2.682
 9627SOL    HW230779   6.814   1.910   2.794
 9628SOL     OW30780   3.987   8.158   1.474
 9628SOL    HW130781   3.985   8.179   1.567
 9628SOL    HW230782   4.056   8.091   1.466
 9629SOL     OW30783   8.475   6.827   6.238
 9629SOL    HW130784   8.409   6.813   6.306
 9629SOL    HW230785   8.436   6.789   6.159
 9630SOL     OW30786   6.637   5.858   2.987
 9630SOL    HW130787   6.732   5.862   2.977
 9630SOL    HW230788   6.623   5.793   3.056
 9631SOL     OW30789  11.355  12.539  13.867
 9631SOL    HW130790  11.283  12.536  13.804
 9631SOL    HW230791  11.375  12.633  13.876
 9632SOL     OW30792  10.575   7.402  10.764
 9632SOL    HW130793  10.533   7.394  10.678
 9632SOL    HW230794  10.666   7.375  10.748
 9633SOL     OW30795   3.511  12.933   7.914
 9633SOL    HW130796   3.591  12.914   7.864
 9633SOL    HW230797   3.539  12.930   8.006
 9634SOL     OW30798   5.284  14.720  13.459
 9634SOL    HW130799   5.240  14.688  13.381
 9634SOL    HW230800   5.298  14.813  13.443
 9635SOL     OW30801  12.200  13.262  14.836
 9635SOL    HW130802  12.249  13.229  14.760
 9635SOL    HW230803  12.264  13.311   0.015
 9636SOL     OW30804   2.717   0.670   4.332
 9636SOL    HW130805   2.731   0.745   4.274
 9636SOL    HW230806   2.734   0.704   4.419
 9637SOL     OW30807  12.478  12.605   7.620
 9637SOL    HW130808  12.522  12.686   7.593
 9637SOL    HW230809  12.549  12.542   7.632
 9638SOL     OW30810   0.056   4.839   9.631
 9638SOL    HW130811   0.060   4.760   9.685
 9638SOL    HW230812   0.047   4.910   9.694
 9639SOL     OW30813  11.140   1.214   4.281
 9639SOL    HW130814  11.137   1.309   4.285
 9639SOL    HW230815  11.157   1.194   4.189
 9640SOL     OW30816   4.700   5.347   0.937
 9640SOL    HW130817   4.701   5.426   0.882
 9640SOL    HW230818   4.712   5.379   1.026
 9641SOL     OW30819  11.969   6.006  11.130
 9641SOL    HW130820  11.976   5.911  11.137
 9641SOL    HW230821  11.911   6.031  11.202
 9642SOL     OW30822   2.584   7.884   3.075
 9642SOL    HW130823   2.593   7.974   3.044
 9642SOL    HW230824   2.581   7.892   3.170
 9643SOL     OW30825   0.012   9.917   0.208
 9643SOL    HW130826   0.063   9.915   0.127
 9643SOL    HW230827  14.809   9.974   0.187
 9644SOL     OW30828  11.738   3.975   6.887
 9644SOL    HW130829  11.776   4.057   6.918
 9644SOL    HW230830  11.807   3.934   6.835
 9645SOL     OW30831  13.657  11.768   6.377
 9645SOL    HW130832  13.606  11.761   6.457
 9645SOL    HW230833  13.593  11.762   6.306
 9646SOL     OW30834   3.401   1.591   9.904
 9646SOL    HW130835   3.350   1.578   9.825
 9646SOL    HW230836   3.402   1.686   9.916
 9647SOL     OW30837  10.351   3.173  11.190
 9647SOL    HW130838  10.441   3.204  11.176
 9647SOL    HW230839  10.320   3.151  11.102
 9648SOL     OW30840  10.767  12.153  10.971
 9648SOL    HW130841  10.690  12.208  10.954
 9648SOL    HW230842  10.762  12.134  11.065
 9649SOL     OW30843  12.608  14.263  12.243
 9649SOL    HW130844  12.581  14.335  12.187
 9649SOL    HW230845  12.659  14.304  12.313
 9650SOL     OW30846   3.772  11.368  14.033
 9650SOL    HW130847   3.753  11.321  13.952
 9650SOL    HW230848   3.766  11.302  14.101
 9651SOL     OW30849   2.916   8.949   1.399
 9651SOL    HW130850   2.953   9.034   1.423
 9651SOL    HW230851   2.851   8.931   1.467
 9652SOL     OW30852   5.859  13.719   2.132
 9652SOL    HW130853   5.860  13.800   2.183
 9652SOL    HW230854   5.886  13.747   2.044
 9653SOL     OW30855   1.544   2.033  11.622
 9653SOL    HW130856   1.602   2.071  11.556
 9653SOL    HW230857   1.574   2.073  11.704
 9654SOL     OW30858   4.371   1.731   8.600
 9654SOL    HW130859   4.398   1.690   8.518
 9654SOL    HW230860   4.276   1.722   8.602
 9655SOL     OW30861  11.156   5.283   3.435
 9655SOL    HW130862  11.226   5.224   3.408
 9655SOL    HW230863  11.174   5.302   3.527
 9656SOL     OW30864   3.741   7.739   3.285
 9656SOL    HW130865   3.748   7.665   3.345
 9656SOL    HW230866   3.683   7.708   3.215
 9657SOL     OW30867   1.049   1.937   1.073
 9657SOL    HW130868   1.070   1.982   0.990
 9657SOL    HW230869   0.956   1.916   1.066
 9658SOL     OW30870   0.110  14.670   5.590
 9658SOL    HW130871   0.162  14.626   5.522
 9658SOL    HW230872   0.021  14.640   5.575
 9659SOL     OW30873  12.205  12.661   6.981
 9659SOL    HW130874  12.199  12.612   6.899
 9659SOL    HW230875  12.205  12.593   7.049
 9660SOL     OW30876   0.384  13.411   9.520
 9660SOL    HW130877   0.462  13.397   9.573
 9660SOL    HW230878   0.391  13.348   9.448
 9661SOL     OW30879   7.643   8.825   3.163
 9661SOL    HW130880   7.707   8.847   3.231
 9661SOL    HW230881   7.667   8.737   3.135
 9662SOL     OW30882   7.434  10.028   1.534
 9662SOL    HW130883   7.403  10.119   1.532
 9662SOL    HW230884   7.406   9.991   1.450
 9663SOL     OW30885  14.440   0.803  13.481
 9663SOL    HW130886  14.372   0.815  13.548
 9663SOL    HW230887  14.391   0.795  13.399
 9664SOL     OW30888  10.118  14.458   0.669
 9664SOL    HW130889  10.100  14.435   0.760
 9664SOL    HW230890  10.089  14.549   0.661
 9665SOL     OW30891   9.162   7.002  11.372
 9665SOL    HW130892   9.224   7.049  11.427
 9665SOL    HW230893   9.217   6.949  11.314
 9666SOL     OW30894   5.439   4.827   7.022
 9666SOL    HW130895   5.394   4.743   7.008
 9666SOL    HW230896   5.372   4.883   7.061
 9667SOL     OW30897   0.057   3.957   3.667
 9667SOL    HW130898   0.133   4.014   3.650
 9667SOL    HW230899   0.012   3.952   3.583
 9668SOL     OW30900   2.356   8.168  11.143
 9668SOL    HW130901   2.277   8.219  11.163
 9668SOL    HW230902   2.349   8.147  11.050
 9669SOL     OW30903   9.575   1.468  10.387
 9669SOL    HW130904   9.543   1.386  10.423
 9669SOL    HW230905   9.615   1.513  10.461
 9670SOL     OW30906   3.461   2.952   3.248
 9670SOL    HW130907   3.488   3.031   3.295
 9670SOL    HW230908   3.372   2.970   3.218
 9671SOL     OW30909   2.443  12.303   3.501
 9671SOL    HW130910   2.469  12.307   3.593
 9671SOL    HW230911   2.525  12.298   3.453
 9672SOL     OW30912   0.053   7.034   2.950
 9672SOL    HW130913   0.020   7.101   2.890
 9672SOL    HW230914   0.020   6.951   2.914
 9673SOL     OW30915   1.104  13.948   5.902
 9673SOL    HW130916   1.098  14.033   5.859
 9673SOL    HW230917   1.022  13.904   5.879
 9674SOL     OW30918  10.896  14.219   1.877
 9674SOL    HW130919  10.982  14.193   1.844
 9674SOL    HW230920  10.873  14.150   1.940
 9675SOL     OW30921  11.814  12.136   8.085
 9675SOL    HW130922  11.838  12.216   8.038
 9675SOL    HW230923  11.819  12.067   8.019
 9676SOL     OW30924   2.031  13.577   7.034
 9676SOL    HW130925   1.988  13.522   7.100
 9676SOL    HW230926   1.971  13.650   7.022
 9677SOL     OW30927  12.169  13.314  11.624
 9677SOL    HW130928  12.153  13.408  11.635
 9677SOL    HW230929  12.097  13.273  11.672
 9678SOL     OW30930   3.586  12.431   3.485
 9678SOL    HW130931   3.561  12.485   3.560
 9678SOL    HW230932   3.658  12.479   3.444
 9679SOL     OW30933  12.676   6.265   3.687
 9679SOL    HW130934  12.611   6.313   3.636
 9679SOL    HW230935  12.752   6.322   3.689
 9680SOL     OW30936   8.345   7.567   2.412
 9680SOL    HW130937   8.315   7.487   2.369
 9680SOL    HW230938   8.439   7.570   2.394
 9681SOL     OW30939   5.166   2.069   7.857
 9681SOL    HW130940   5.108   2.136   7.822
 9681SOL    HW230941   5.140   2.061   7.949
 9682SOL     OW30942   2.092   5.794   5.532
 9682SOL    HW130943   2.049   5.817   5.450
 9682SOL    HW230944   2.029   5.738   5.577
 9683SOL     OW30945   4.667  13.684   4.284
 9683SOL    HW130946   4.572  13.700   4.284
 9683SOL    HW230947   4.702  13.748   4.223
 9684SOL     OW30948   9.577   4.242   4.465
 9684SOL    HW130949   9.488   4.276   4.462
 9684SOL    HW230950   9.568   4.148   4.457
 9685SOL     OW30951   0.566  10.372   8.408
 9685SOL    HW130952   0.500  10.442   8.410
 9685SOL    HW230953   0.623  10.395   8.335
 9686SOL     OW30954  14.474  12.006   5.750
 9686SOL    HW130955  14.515  12.056   5.821
 9686SOL    HW230956  14.471  11.916   5.783
 9687SOL     OW30957   6.061   1.330   3.800
 9687SOL    HW130958   6.081   1.412   3.754
 9687SOL    HW230959   5.981   1.348   3.849
 9688SOL     OW30960  10.841   9.330  13.241
 9688SOL    HW130961  10.806   9.347  13.328
 9688SOL    HW230962  10.791   9.388  13.183
 9689SOL     OW30963   1.218   0.472  14.564
 9689SOL    HW130964   1.138   0.513  14.597
 9689SOL    HW230965   1.275   0.544  14.539
 9690SOL     OW30966   7.251  14.200   6.396
 9690SOL    HW130967   7.207  14.191   6.312
 9690SOL    HW230968   7.280  14.291   6.398
 9691SOL     OW30969  11.180  13.977   4.259
 9691SOL    HW130970  11.099  13.961   4.211
 9691SOL    HW230971  11.240  13.908   4.231
 9692SOL     OW30972   7.993   5.404   1.858
 9692SOL    HW130973   7.924   5.390   1.924
 9692SOL    HW230974   7.968   5.485   1.814
 9693SOL     OW30975   6.807  10.501   6.420
 9693SOL    HW130976   6.874  10.454   6.371
 9693SOL    HW230977   6.854  10.539   6.495
 9694SOL     OW30978   7.947   3.806   4.438
 9694SOL    HW130979   7.967   3.898   4.420
 9694SOL    HW230980   7.854   3.797   4.418
 9695SOL     OW30981   4.676   0.599   8.982
 9695SOL    HW130982   4.668   0.664   8.913
 9695SOL    HW230983   4.733   0.640   9.047
 9696SOL     OW30984  12.972   3.684  13.869
 9696SOL    HW130985  12.940   3.627  13.938
 9696SOL    HW230986  13.067   3.686  13.882
 9697SOL     OW30987   3.405   3.184   0.578
 9697SOL    HW130988   3.395   3.101   0.532
 9697SOL    HW230989   3.446   3.161   0.662
 9698SOL     OW30990  11.336   8.065   9.040
 9698SOL    HW130991  11.425   8.066   9.006
 9698SOL    HW230992  11.282   8.099   8.969
 9699SOL     OW30993  12.728   4.564   8.395
 9699SOL    HW130994  12.763   4.647   8.428
 9699SOL    HW230995  12.691   4.521   8.472
 9700SOL     OW30996   1.390   9.345   6.575
 9700SOL    HW130997   1.413   9.314   6.488
 9700SOL    HW230998   1.313   9.293   6.599
 9701SOL     OW30999   7.216   1.198  11.569
 9701SOL    HW131000   7.258   1.156  11.494
 9701SOL    HW231001   7.125   1.168  11.565
 9702SOL     OW31002  10.634   6.090  11.889
 9702SOL    HW131003  10.716   6.075  11.841
 9702SOL    HW231004  10.624   6.185  11.891
 9703SOL     OW31005   4.627  12.029  14.481
 9703SOL    HW131006   4.603  12.105  14.534
 9703SOL    HW231007   4.703  11.992  14.525
 9704SOL     OW31008   1.126   8.383  12.286
 9704SOL    HW131009   1.211   8.426  12.283
 9704SOL    HW231010   1.114   8.345  12.199
 9705SOL     OW31011  13.917   2.310   8.696
 9705SOL    HW131012  13.836   2.355   8.721
 9705SOL    HW231013  13.979   2.333   8.765
 9706SOL     OW31014   3.921  10.679   9.452
 9706SOL    HW131015   3.828  10.667   9.470
 9706SOL    HW231016   3.941  10.766   9.489
 9707SOL     OW31017   8.388  14.309  10.238
 9707SOL    HW131018   8.301  14.300  10.199
 9707SOL    HW231019   8.407  14.403  10.232
 9708SOL     OW31020   2.187   4.545  12.060
 9708SOL    HW131021   2.164   4.504  11.976
 9708SOL    HW231022   2.276   4.578  12.046
 9709SOL     OW31023   2.525   7.931  14.220
 9709SOL    HW131024   2.536   7.842  14.253
 9709SOL    HW231025   2.463   7.922  14.147
 9710SOL     OW31026   8.694   8.691   0.932
 9710SOL    HW131027   8.692   8.613   0.987
 9710SOL    HW231028   8.702   8.764   0.994
 9711SOL     OW31029   1.754  13.496  10.640
 9711SOL    HW131030   1.689  13.564  10.622
 9711SOL    HW231031   1.742  13.476  10.733
 9712SOL     OW31032   9.374   9.568   1.737
 9712SOL    HW131033   9.418   9.533   1.815
 9712SOL    HW231034   9.430   9.639   1.708
 9713SOL     OW31035   7.323  14.034   5.673
 9713SOL    HW131036   7.307  14.100   5.740
 9713SOL    HW231037   7.340  13.954   5.721
 9714SOL     OW31038   6.600  14.151   3.342
 9714SOL    HW131039   6.616  14.090   3.414
 9714SOL    HW231040   6.669  14.133   3.278
 9715SOL     OW31041   5.143   8.855   1.638
 9715SOL    HW131042   5.124   8.875   1.547
 9715SOL    HW231043   5.065   8.808   1.669
 9716SOL     OW31044   4.029  14.803   4.901
 9716SOL    HW131045   4.096  14.757   4.851
 9716SOL    HW231046   4.030  14.762   4.987
 9717SOL     OW31047  12.983   8.017   9.707
 9717SOL    HW131048  13.079   8.011   9.704
 9717SOL    HW231049  12.953   7.934   9.672
 9718SOL     OW31050  12.177   7.753   7.965
 9718SOL    HW131051  12.197   7.660   7.980
 9718SOL    HW231052  12.225   7.775   7.885
 9719SOL     OW31053   8.891  10.518  10.743
 9719SOL    HW131054   8.921  10.537  10.654
 9719SOL    HW231055   8.937  10.581  10.798
 9720SOL     OW31056   5.304  13.855   2.055
 9720SOL    HW131057   5.289  13.761   2.065
 9720SOL    HW231058   5.395  13.861   2.025
 9721SOL     OW31059   5.651  11.429   7.233
 9721SOL    HW131060   5.671  11.460   7.144
 9721SOL    HW231061   5.700  11.348   7.242
 9722SOL     OW31062   5.106   5.976   4.264
 9722SOL    HW131063   5.061   6.044   4.314
 9722SOL    HW231064   5.047   5.900   4.267
 9723SOL     OW31065  12.603   5.643   5.192
 9723SOL    HW131066  12.643   5.699   5.259
 9723SOL    HW231067  12.544   5.701   5.144
 9724SOL     OW31068  10.760   6.251   0.180
 9724SOL    HW131069  10.760   6.256   0.085
 9724SOL    HW231070  10.851   6.233   0.204
 9725SOL     OW31071  11.981   6.433   2.935
 9725SOL    HW131072  11.971   6.338   2.935
 9725SOL    HW231073  11.940   6.462   2.853
 9726SOL     OW31074   0.827  11.696   4.191
 9726SOL    HW131075   0.745  11.649   4.207
 9726SOL    HW231076   0.841  11.688   4.097
 9727SOL     OW31077   8.373  13.257   8.441
 9727SOL    HW131078   8.421  13.208   8.375
 9727SOL    HW231079   8.438  13.276   8.509
 9728SOL     OW31080   1.988   2.062   3.029
 9728SOL    HW131081   1.953   1.980   3.064
 9728SOL    HW231082   1.924   2.129   3.054
 9729SOL     OW31083   3.425   2.837   2.256
 9729SOL    HW131084   3.418   2.750   2.217
 9729SOL    HW231085   3.335   2.867   2.266
 9730SOL     OW31086  10.214   3.323   4.705
 9730SOL    HW131087  10.168   3.391   4.656
 9730SOL    HW231088  10.144   3.271   4.745
 9731SOL     OW31089  12.782   5.092  13.558
 9731SOL    HW131090  12.776   5.097  13.654
 9731SOL    HW231091  12.866   5.048  13.542
 9732SOL     OW31092  10.103   7.817  11.726
 9732SOL    HW131093  10.070   7.907  11.717
 9732SOL    HW231094  10.089   7.777  11.640
 9733SOL     OW31095   4.649  11.981   0.301
 9733SOL    HW131096   4.605  11.897   0.314
 9733SOL    HW231097   4.707  11.966   0.226
 9734SOL     OW31098  11.073   3.258  14.098
 9734SOL    HW131099  11.052   3.192  14.164
 9734SOL    HW231100  11.084   3.208  14.017
 9735SOL     OW31101   7.443   0.402  12.071
 9735SOL    HW131102   7.482   0.377  11.987
 9735SOL    HW231103   7.374   0.338  12.086
 9736SOL     OW31104   1.742   8.634   6.541
 9736SOL    HW131105   1.796   8.559   6.516
 9736SOL    HW231106   1.683   8.600   6.608
 9737SOL     OW31107  12.340   5.323   0.505
 9737SOL    HW131108  12.342   5.296   0.597
 9737SOL    HW231109  12.398   5.399   0.500
 9738SOL     OW31110  12.103   8.176   5.680
 9738SOL    HW131111  12.108   8.199   5.587
 9738SOL    HW231112  12.156   8.242   5.723
 9739SOL     OW31113   1.954  14.499   7.412
 9739SOL    HW131114   1.941  14.517   7.505
 9739SOL    HW231115   1.924  14.409   7.400
 9740SOL     OW31116   0.695   5.598  10.931
 9740SOL    HW131117   0.766   5.627  10.987
 9740SOL    HW231118   0.615   5.629  10.975
 9741SOL     OW31119   8.880   4.146   6.787
 9741SOL    HW131120   8.949   4.144   6.720
 9741SOL    HW231121   8.890   4.231   6.830
 9742SOL     OW31122   2.069   7.069   2.800
 9742SOL    HW131123   2.109   7.006   2.741
 9742SOL    HW231124   2.137   7.134   2.816
 9743SOL     OW31125   5.293   5.824  13.464
 9743SOL    HW131126   5.362   5.883  13.495
 9743SOL    HW231127   5.313   5.740  13.506
 9744SOL     OW31128   3.718   9.028  11.553
 9744SOL    HW131129   3.687   9.088  11.486
 9744SOL    HW231130   3.783   8.973  11.508
 9745SOL     OW31131   1.965   0.135   7.040
 9745SOL    HW131132   1.999   0.161   7.126
 9745SOL    HW231133   1.878   0.099   7.058
 9746SOL     OW31134  10.945   5.035  13.430
 9746SOL    HW131135  10.932   5.090  13.353
 9746SOL    HW231136  11.032   5.058  13.462
 9747SOL     OW31137   2.875   4.326  13.825
 9747SOL    HW131138   2.933   4.375  13.884
 9747SOL    HW231139   2.910   4.342  13.738
 9748SOL     OW31140   4.247   3.735   4.825
 9748SOL    HW131141   4.246   3.730   4.920
 9748SOL    HW231142   4.279   3.823   4.805
 9749SOL     OW31143  10.875   5.258   3.184
 9749SOL    HW131144  10.831   5.333   3.224
 9749SOL    HW231145  10.928   5.297   3.114
 9750SOL     OW31146   5.768   3.108   2.885
 9750SOL    HW131147   5.839   3.171   2.890
 9750SOL    HW231148   5.718   3.122   2.965
 9751SOL     OW31149   8.454   1.097  12.265
 9751SOL    HW131150   8.477   1.036  12.335
 9751SOL    HW231151   8.497   1.179  12.289
 9752SOL     OW31152   2.718   6.093   6.424
 9752SOL    HW131153   2.784   6.040   6.467
 9752SOL    HW231154   2.685   6.150   6.493
 9753SOL     OW31155   7.625  11.517   8.871
 9753SOL    HW131156   7.555  11.452   8.882
 9753SOL    HW231157   7.692  11.491   8.934
 9754SOL     OW31158   7.756   4.602  14.446
 9754SOL    HW131159   7.722   4.682  14.486
 9754SOL    HW231160   7.836   4.629  14.400
 9755SOL     OW31161   1.185   3.493   6.885
 9755SOL    HW131162   1.258   3.553   6.873
 9755SOL    HW231163   1.108   3.550   6.890
 9756SOL     OW31164   1.194   4.158  12.159
 9756SOL    HW131165   1.177   4.068  12.188
 9756SOL    HW231166   1.289   4.165  12.154
 9757SOL     OW31167   0.225  12.195   2.566
 9757SOL    HW131168   0.200  12.281   2.531
 9757SOL    HW231169   0.231  12.139   2.488
 9758SOL     OW31170   6.164   9.973  14.329
 9758SOL    HW131171   6.103  10.000  14.261
 9758SOL    HW231172   6.170   9.878  14.321
 9759SOL     OW31173  10.191   4.048   7.675
 9759SOL    HW131174  10.155   4.044   7.587
 9759SOL    HW231175  10.128   4.102   7.724
 9760SOL     OW31176   7.418   4.064   1.426
 9760SOL    HW131177   7.333   4.101   1.402
 9760SOL    HW231178   7.446   4.016   1.348
 9761SOL     OW31179   9.899   1.141   4.160
 9761SOL    HW131180   9.829   1.164   4.098
 9761SOL    HW231181   9.852   1.111   4.238
 9762SOL     OW31182   2.155   8.281   5.980
 9762SOL    HW131183   2.160   8.191   5.949
 9762SOL    HW231184   2.226   8.289   6.044
 9763SOL     OW31185  13.846  11.602  10.986
 9763SOL    HW131186  13.770  11.546  10.969
 9763SOL    HW231187  13.897  11.554  11.051
 9764SOL     OW31188   2.490   1.433   2.729
 9764SOL    HW131189   2.494   1.409   2.636
 9764SOL    HW231190   2.580   1.430   2.759
 9765SOL     OW31191   1.973   8.075   6.360
 9765SOL    HW131192   1.920   8.050   6.435
 9765SOL    HW231193   1.966   8.000   6.300
 9766SOL     OW31194   5.386   0.260   3.017
 9766SOL    HW131195   5.341   0.180   2.990
 9766SOL    HW231196   5.319   0.312   3.061
 9767SOL     OW31197  10.113   4.750   5.661
 9767SOL    HW131198  10.042   4.730   5.600
 9767SOL    HW231199  10.165   4.817   5.617
 9768SOL     OW31200   8.246   3.411  12.499
 9768SOL    HW131201   8.336   3.422  12.470
 9768SOL    HW231202   8.250   3.339  12.563
 9769SOL     OW31203   6.923  11.055   9.044
 9769SOL    HW131204   6.935  10.991   9.113
 9769SOL    HW231205   6.830  11.077   9.048
 9770SOL     OW31206  12.771   2.344   2.635
 9770SOL    HW131207  12.727   2.298   2.564
 9770SOL    HW231208  12.762   2.287   2.711
 9771SOL     OW31209   2.091   8.736  14.005
 9771SOL    HW131210   2.098   8.775  14.092
 9771SOL    HW231211   1.997   8.718  13.994
 9772SOL     OW31212   4.782  12.854   8.277
 9772SOL    HW131213   4.841  12.779   8.270
 9772SOL    HW231214   4.833  12.920   8.325
 9773SOL     OW31215   9.799   6.690   2.522
 9773SOL    HW131216   9.858   6.707   2.448
 9773SOL    HW231217   9.796   6.773   2.569
 9774SOL     OW31218   5.651   6.632   9.721
 9774SOL    HW131219   5.706   6.675   9.786
 9774SOL    HW231220   5.710   6.571   9.676
 9775SOL     OW31221   2.091   7.215  13.568
 9775SOL    HW131222   2.037   7.161  13.511
 9775SOL    HW231223   2.089   7.302  13.528
 9776SOL     OW31224  11.805   9.564   4.919
 9776SOL    HW131225  11.714   9.539   4.901
 9776SOL    HW231226  11.829   9.515   4.997
 9777SOL     OW31227   5.643   6.502   5.453
 9777SOL    HW131228   5.563   6.504   5.401
 9777SOL    HW231229   5.705   6.555   5.403
 9778SOL     OW31230   0.970   8.950   2.485
 9778SOL    HW131231   1.042   8.890   2.465
 9778SOL    HW231232   0.999   8.998   2.563
 9779SOL     OW31233   8.641  13.394   7.427
 9779SOL    HW131234   8.553  13.431   7.426
 9779SOL    HW231235   8.641  13.332   7.353
 9780SOL     OW31236   5.875   3.565   8.140
 9780SOL    HW131237   5.874   3.612   8.223
 9780SOL    HW231238   5.861   3.473   8.163
 9781SOL     OW31239   9.824   2.333   2.038
 9781SOL    HW131240   9.857   2.415   2.073
 9781SOL    HW231241   9.836   2.270   2.108
 9782SOL     OW31242   3.525  14.831  11.037
 9782SOL    HW131243   3.571  14.865  10.960
 9782SOL    HW231244   3.433  14.833  11.013
 9783SOL     OW31245   9.272  12.579  12.967
 9783SOL    HW131246   9.206  12.569  13.035
 9783SOL    HW231247   9.296  12.489  12.943
 9784SOL     OW31248   0.217   0.965   0.764
 9784SOL    HW131249   0.164   1.030   0.718
 9784SOL    HW231250   0.194   0.977   0.856
 9785SOL     OW31251  14.386   5.882   3.127
 9785SOL    HW131252  14.435   5.940   3.068
 9785SOL    HW231253  14.396   5.795   3.090
 9786SOL     OW31254   2.047   7.590  14.675
 9786SOL    HW131255   2.018   7.681  14.673
 9786SOL    HW231256   2.133   7.592  14.716
 9787SOL     OW31257  13.494  13.348  10.471
 9787SOL    HW131258  13.582  13.310  10.463
 9787SOL    HW231259  13.455  13.302  10.545
 9788SOL     OW31260   5.767   5.571   9.423
 9788SOL    HW131261   5.825   5.555   9.349
 9788SOL    HW231262   5.699   5.629   9.389
 9789SOL     OW31263   3.578   6.503  11.492
 9789SOL    HW131264   3.667   6.467  11.486
 9789SOL    HW231265   3.538   6.457  11.566
 9790SOL     OW31266   8.398   7.107  13.536
 9790SOL    HW131267   8.402   7.156  13.618
 9790SOL    HW231268   8.305   7.087  13.524
 9791SOL     OW31269  10.043  10.733   3.511
 9791SOL    HW131270   9.976  10.739   3.578
 9791SOL    HW231271  10.009  10.669   3.448
 9792SOL     OW31272   8.315   9.042  13.718
 9792SOL    HW131273   8.260   9.059  13.794
 9792SOL    HW231274   8.339   9.129  13.686
 9793SOL     OW31275  11.499   7.920   4.306
 9793SOL    HW131276  11.525   7.838   4.265
 9793SOL    HW231277  11.557   7.928   4.382
 9794SOL     OW31278   1.595  11.894   8.143
 9794SOL    HW131279   1.610  11.880   8.237
 9794SOL    HW231280   1.680  11.920   8.109
 9795SOL     OW31281   9.070  11.853   6.175
 9795SOL    HW131282   9.116  11.771   6.158
 9795SOL    HW231283   9.105  11.883   6.259
 9796SOL     OW31284   2.383   9.178  13.280
 9796SOL    HW131285   2.431   9.095  13.286
 9796SOL    HW231286   2.338   9.186  13.364
 9797SOL     OW31287  14.264   2.150  10.564
 9797SOL    HW131288  14.357   2.127  10.555
 9797SOL    HW231289  14.259   2.239  10.528
 9798SOL     OW31290   1.236   0.974   3.133
 9798SOL    HW131291   1.213   0.917   3.059
 9798SOL    HW231292   1.179   0.945   3.204
 9799SOL     OW31293   9.479   5.299   1.006
 9799SOL    HW131294   9.428   5.222   0.985
 9799SOL    HW231295   9.531   5.318   0.928
 9800SOL     OW31296  13.492   2.877   3.853
 9800SOL    HW131297  13.475   2.911   3.940
 9800SOL    HW231298  13.406   2.852   3.819
 9801SOL     OW31299  14.353   8.587   3.389
 9801SOL    HW131300  14.265   8.551   3.375
 9801SOL    HW231301  14.337   8.671   3.432
 9802SOL     OW31302   3.916   6.293   0.982
 9802SOL    HW131303   3.835   6.333   1.014
 9802SOL    HW231304   3.890   6.203   0.959
 9803SOL     OW31305  13.707   1.897   9.278
 9803SOL    HW131306  13.649   1.971   9.294
 9803SOL    HW231307  13.795   1.936   9.273
 9804SOL     OW31308  14.585   1.541   8.443
 9804SOL    HW131309  14.619   1.463   8.487
 9804SOL    HW231310  14.520   1.577   8.504
 9805SOL     OW31311   2.234   7.271   8.583
 9805SOL    HW131312   2.241   7.273   8.678
 9805SOL    HW231313   2.148   7.234   8.566
 9806SOL     OW31314   2.440  10.457   0.600
 9806SOL    HW131315   2.400  10.541   0.577
 9806SOL    HW231316   2.396  10.394   0.543
 9807SOL     OW31317   5.208   7.458  10.648
 9807SOL    HW131318   5.159   7.463  10.730
 9807SOL    HW231319   5.209   7.548  10.615
 9808SOL     OW31320   4.199   0.213   2.018
 9808SOL    HW131321   4.126   0.185   2.073
 9808SOL    HW231322   4.183   0.169   1.934
 9809SOL     OW31323   3.875   4.960   2.573
 9809SOL    HW131324   3.920   5.031   2.527
 9809SOL    HW231325   3.783   4.986   2.572
 9810SOL     OW31326  11.573   1.647   1.915
 9810SOL    HW131327  11.658   1.662   1.957
 9810SOL    HW231328  11.527   1.731   1.925
 9811SOL     OW31329   6.940  13.944   9.602
 9811SOL    HW131330   6.921  13.897   9.683
 9811SOL    HW231331   7.035  13.952   9.600
 9812SOL     OW31332  11.446   6.352   8.181
 9812SOL    HW131333  11.503   6.276   8.173
 9812SOL    HW231334  11.402   6.341   8.266
 9813SOL     OW31335   2.491   5.039   4.856
 9813SOL    HW131336   2.407   4.999   4.876
 9813SOL    HW231337   2.510   5.095   4.932
 9814SOL     OW31338   8.663  14.561   6.209
 9814SOL    HW131339   8.632  14.498   6.274
 9814SOL    HW231340   8.738  14.518   6.168
 9815SOL     OW31341   7.386   9.129  14.064
 9815SOL    HW131342   7.383   9.065  14.135
 9815SOL    HW231343   7.327   9.094  13.997
 9816SOL     OW31344   8.279   7.950  14.568
 9816SOL    HW131345   8.335   7.873  14.560
 9816SOL    HW231346   8.317   8.015  14.509
 9817SOL     OW31347   8.468   5.492   0.046
 9817SOL    HW131348   8.435   5.519   0.132
 9817SOL    HW231349   8.563   5.494   0.056
 9818SOL     OW31350   7.795  14.433  12.995
 9818SOL    HW131351   7.826  14.513  13.037
 9818SOL    HW231352   7.773  14.374  13.067
 9819SOL     OW31353   9.270   7.087   9.539
 9819SOL    HW131354   9.225   7.002   9.532
 9819SOL    HW231355   9.290   7.110   9.449
 9820SOL     OW31356   1.875   5.861  14.743
 9820SOL    HW131357   1.915   5.779  14.772
 9820SOL    HW231358   1.781   5.845  14.747
 9821SOL     OW31359   6.133  11.196  11.757
 9821SOL    HW131360   6.038  11.203  11.762
 9821SOL    HW231361   6.166  11.274  11.802
 9822SOL     OW31362   9.387   8.726   9.461
 9822SOL    HW131363   9.362   8.642   9.423
 9822SOL    HW231364   9.406   8.782   9.386
 9823SOL     OW31365  14.614   5.943   8.837
 9823SOL    HW131366  14.704   5.970   8.857
 9823SOL    HW231367  14.610   5.944   8.741
 9824SOL     OW31368   8.011   9.650   4.267
 9824SOL    HW131369   8.062   9.684   4.194
 9824SOL    HW231370   8.023   9.715   4.336
 9825SOL     OW31371  13.996  14.150  10.342
 9825SOL    HW131372  13.913  14.125  10.381
 9825SOL    HW231373  14.004  14.095  10.264
 9826SOL     OW31374   2.169  12.684   2.645
 9826SOL    HW131375   2.233  12.751   2.620
 9826SOL    HW231376   2.107  12.682   2.572
 9827SOL     OW31377  11.443   0.460   3.260
 9827SOL    HW131378  11.373   0.507   3.214
 9827SOL    HW231379  11.519   0.518   3.254
 9828SOL     OW31380  12.157  13.937  14.581
 9828SOL    HW131381  12.150  14.021  14.626
 9828SOL    HW231382  12.108  13.948  14.499
 9829SOL     OW31383   7.655  12.687  11.072
 9829SOL    HW131384   7.599  12.639  11.011
 9829SOL    HW231385   7.699  12.619  11.123
 9830SOL     OW31386   2.507   4.988  12.841
 9830SOL    HW131387   2.465   4.902  12.842
 9830SOL    HW231388   2.463   5.035  12.769
 9831SOL     OW31389  12.781   9.539  11.102
 9831SOL    HW131390  12.746   9.627  11.088
 9831SOL    HW231391  12.842   9.548  11.175
 9832SOL     OW31392   5.266   4.417   2.086
 9832SOL    HW131393   5.283   4.511   2.095
 9832SOL    HW231394   5.303   4.394   2.001
 9833SOL     OW31395  11.181   4.605  11.050
 9833SOL    HW131396  11.115   4.638  10.989
 9833SOL    HW231397  11.130   4.568  11.123
 9834SOL     OW31398  11.894   3.402   1.206
 9834SOL    HW131399  11.928   3.487   1.179
 9834SOL    HW231400  11.801   3.416   1.221
 9835SOL     OW31401  12.382   8.250  12.788
 9835SOL    HW131402  12.390   8.267  12.694
 9835SOL    HW231403  12.470   8.266  12.823
 9836SOL     OW31404   2.239   6.501   9.665
 9836SOL    HW131405   2.296   6.471   9.595
 9836SOL    HW231406   2.184   6.426   9.686
 9837SOL     OW31407   4.582  11.458   3.591
 9837SOL    HW131408   4.563  11.523   3.659
 9837SOL    HW231409   4.677  11.458   3.583
 9838SOL     OW31410  11.593  11.096   9.567
 9838SOL    HW131411  11.568  11.129   9.480
 9838SOL    HW231412  11.535  11.142   9.628
 9839SOL     OW31413  14.170   8.472  12.779
 9839SOL    HW131414  14.265   8.467  12.795
 9839SOL    HW231415  14.133   8.490  12.865
 9840SOL     OW31416   5.998  10.680   9.225
 9840SOL    HW131417   5.989  10.641   9.138
 9840SOL    HW231418   5.986  10.607   9.285
 9841SOL     OW31419   3.331   9.973   6.044
 9841SOL    HW131420   3.291   9.917   6.110
 9841SOL    HW231421   3.403   9.922   6.009
 9842SOL     OW31422   4.842  11.696   5.905
 9842SOL    HW131423   4.789  11.655   5.974
 9842SOL    HW231424   4.921  11.643   5.900
 9843SOL     OW31425   1.337   2.661   3.057
 9843SOL    HW131426   1.338   2.667   3.152
 9843SOL    HW231427   1.402   2.726   3.029
 9844SOL     OW31428  11.777   0.092   4.099
 9844SOL    HW131429  11.700   0.087   4.042
 9844SOL    HW231430  11.763   0.172   4.150
 9845SOL     OW31431   0.670   4.874   4.529
 9845SOL    HW131432   0.675   4.954   4.478
 9845SOL    HW231433   0.581   4.841   4.514
 9846SOL     OW31434   5.222  13.041   3.721
 9846SOL    HW131435   5.310  13.043   3.682
 9846SOL    HW231436   5.163  13.038   3.646
 9847SOL     OW31437  11.192  14.409   1.820
 9847SOL    HW131438  11.189  14.336   1.883
 9847SOL    HW231439  11.249  14.378   1.750
 9848SOL     OW31440   5.380   0.477   5.773
 9848SOL    HW131441   5.338   0.562   5.759
 9848SOL    HW231442   5.448   0.494   5.838
 9849SOL     OW31443   1.536   8.793   5.447
 9849SOL    HW131444   1.553   8.850   5.522
 9849SOL    HW231445   1.622   8.784   5.405
 9850SOL     OW31446  13.150   8.117  12.386
 9850SOL    HW131447  13.175   8.144  12.298
 9850SOL    HW231448  13.155   8.197  12.438
 9851SOL     OW31449   7.785   9.559   7.288
 9851SOL    HW131450   7.852   9.557   7.219
 9851SOL    HW231451   7.767   9.467   7.306
 9852SOL     OW31452  11.085  13.117   1.626
 9852SOL    HW131453  11.169  13.106   1.582
 9852SOL    HW231454  11.039  13.034   1.613
 9853SOL     OW31455   8.098   7.953  14.789
 9853SOL    HW131456   8.109   8.013  14.862
 9853SOL    HW231457   8.171   7.973  14.730
 9854SOL     OW31458   9.020  13.900   5.651
 9854SOL    HW131459   8.936  13.911   5.606
 9854SOL    HW231460   9.078  13.861   5.584
 9855SOL     OW31461   7.906   4.780   7.688
 9855SOL    HW131462   7.899   4.746   7.599
 9855SOL    HW231463   7.834   4.738   7.736
 9856SOL     OW31464   0.491  13.294  13.693
 9856SOL    HW131465   0.518  13.224  13.753
 9856SOL    HW231466   0.411  13.261  13.654
 9857SOL     OW31467   0.930   9.219  13.537
 9857SOL    HW131468   0.854   9.168  13.564
 9857SOL    HW231469   0.926   9.298  13.591
 9858SOL     OW31470  10.717  12.021   9.199
 9858SOL    HW131471  10.631  12.048   9.167
 9858SOL    HW231472  10.728  11.932   9.164
 9859SOL     OW31473   8.169  14.758  13.062
 9859SOL    HW131474   8.160  14.664  13.049
 9859SOL    HW231475   8.159  14.795  12.975
 9860SOL     OW31476   0.447   4.414   2.042
 9860SOL    HW131477   0.443   4.430   1.947
 9860SOL    HW231478   0.540   4.404   2.060
 9861SOL     OW31479   3.528   7.120  12.076
 9861SOL    HW131480   3.565   7.208  12.074
 9861SOL    HW231481   3.566   7.075  12.000
 9862SOL     OW31482  10.060   2.134   2.193
 9862SOL    HW131483  10.129   2.172   2.247
 9862SOL    HW231484   9.979   2.170   2.229
 9863SOL     OW31485   7.305   7.314   2.188
 9863SOL    HW131486   7.221   7.272   2.171
 9863SOL    HW231487   7.340   7.335   2.101
 9864SOL     OW31488   3.344   4.195   7.197
 9864SOL    HW131489   3.335   4.215   7.103
 9864SOL    HW231490   3.281   4.126   7.213
 9865SOL     OW31491  13.630   8.810  14.329
 9865SOL    HW131492  13.675   8.728  14.347
 9865SOL    HW231493  13.691   8.878  14.356
 9866SOL     OW31494   9.763  14.446   5.646
 9866SOL    HW131495   9.731  14.375   5.702
 9866SOL    HW231496   9.823  14.403   5.585
 9867SOL     OW31497   3.538  11.455  12.548
 9867SOL    HW131498   3.459  11.475  12.599
 9867SOL    HW231499   3.576  11.541  12.529
 9868SOL     OW31500  13.440   9.333  10.002
 9868SOL    HW131501  13.428   9.238  10.003
 9868SOL    HW231502  13.484   9.353  10.085
 9869SOL     OW31503  13.302  12.035   4.529
 9869SOL    HW131504  13.284  12.087   4.451
 9869SOL    HW231505  13.383  12.072   4.564
 9870SOL     OW31506   1.263  13.291   0.143
 9870SOL    HW131507   1.212  13.302   0.224
 9870SOL    HW231508   1.308  13.375   0.132
 9871SOL     OW31509   3.804   0.630  12.188
 9871SOL    HW131510   3.897   0.607  12.183
 9871SOL    HW231511   3.758   0.547  12.172
 9872SOL     OW31512   8.476   1.419   9.212
 9872SOL    HW131513   8.433   1.501   9.189
 9872SOL    HW231514   8.537   1.404   9.140
 9873SOL     OW31515   9.197   7.911   5.073
 9873SOL    HW131516   9.289   7.924   5.052
 9873SOL    HW231517   9.155   7.993   5.046
 9874SOL     OW31518   5.700   8.101   0.416
 9874SOL    HW131519   5.681   8.191   0.442
 9874SOL    HW231520   5.651   8.089   0.335
 9875SOL     OW31521  13.188   0.131   8.919
 9875SOL    HW131522  13.251   0.201   8.935
 9875SOL    HW231523  13.129   0.134   8.994
 9876SOL     OW31524  10.828   6.979   7.713
 9876SOL    HW131525  10.798   7.040   7.781
 9876SOL    HW231526  10.898   6.929   7.754
 9877SOL     OW31527  11.407  11.351  14.496
 9877SOL    HW131528  11.437  11.426  14.547
 9877SOL    HW231529  11.488  11.313  14.461
 9878SOL     OW31530   3.312  12.642  11.381
 9878SOL    HW131531   3.382  12.703  11.358
 9878SOL    HW231532   3.270  12.681  11.458
 9879SOL     OW31533  14.588  12.275  12.691
 9879SOL    HW131534  14.579  12.346  12.627
 9879SOL    HW231535  14.501  12.266  12.730
 9880SOL     OW31536   9.171   9.947   8.659
 9880SOL    HW131537   9.079   9.973   8.647
 9880SOL    HW231538   9.198   9.990   8.740
 9881SOL     OW31539  14.718  13.957  14.777
 9881SOL    HW131540  14.789  14.016  14.753
 9881SOL    HW231541  14.721  13.953   0.001
 9882SOL     OW31542  14.791   7.133   5.421
 9882SOL    HW131543  14.825   7.100   5.338
 9882SOL    HW231544  14.842   7.089   5.488
 9883SOL     OW31545   8.549  11.159   9.096
 9883SOL    HW131546   8.467  11.201   9.071
 9883SOL    HW231547   8.613  11.189   9.031
 9884SOL     OW31548  11.765  13.178  11.499
 9884SOL    HW131549  11.703  13.236  11.456
 9884SOL    HW231550  11.731  13.090  11.483
 9885SOL     OW31551   6.704   1.428   4.967
 9885SOL    HW131552   6.777   1.366   4.969
 9885SOL    HW231553   6.734   1.499   4.911
 9886SOL     OW31554  10.967   9.093   1.186
 9886SOL    HW131555  11.013   9.176   1.179
 9886SOL    HW231556  10.881   9.116   1.220
 9887SOL     OW31557  10.222   9.869   6.442
 9887SOL    HW131558  10.159   9.808   6.404
 9887SOL    HW231559  10.243   9.832   6.527
 9888SOL     OW31560   4.352  14.406   9.303
 9888SOL    HW131561   4.415  14.387   9.372
 9888SOL    HW231562   4.281  14.342   9.318
 9889SOL     OW31563   9.697   3.972   6.639
 9889SOL    HW131564   9.610   3.991   6.603
 9889SOL    HW231565   9.679   3.918   6.716
 9890SOL     OW31566  13.649   8.578   2.876
 9890SOL    HW131567  13.562   8.579   2.917
 9890SOL    HW231568  13.709   8.597   2.948
 9891SOL     OW31569  10.305   0.755   1.885
 9891SOL    HW131570  10.225   0.708   1.909
 9891SOL    HW231571  10.376   0.703   1.921
 9892SOL     OW31572   7.936  14.049  11.905
 9892SOL    HW131573   8.028  14.050  11.932
 9892SOL    HW231574   7.888  14.023  11.983
 9893SOL     OW31575   0.311   0.943   7.942
 9893SOL    HW131576   0.376   0.873   7.932
 9893SOL    HW231577   0.318   0.993   7.861
 9894SOL     OW31578  11.770   6.947   2.129
 9894SOL    HW131579  11.858   6.926   2.161
 9894SOL    HW231580  11.777   7.038   2.100
 9895SOL     OW31581  12.273  13.434  10.835
 9895SOL    HW131582  12.215  13.509  10.825
 9895SOL    HW231583  12.238  13.386  10.910
 9896SOL     OW31584  12.688   9.719   2.988
 9896SOL    HW131585  12.623   9.713   3.058
 9896SOL    HW231586  12.659   9.794   2.936
 9897SOL     OW31587   9.114   6.590  14.233
 9897SOL    HW131588   9.100   6.665  14.176
 9897SOL    HW231589   9.187   6.542  14.194
 9898SOL     OW31590   5.349  12.111   7.535
 9898SOL    HW131591   5.408  12.065   7.595
 9898SOL    HW231592   5.393  12.106   7.450
 9899SOL     OW31593  10.457   9.950   4.309
 9899SOL    HW131594  10.501   9.935   4.225
 9899SOL    HW231595  10.434  10.043   4.308
 9900SOL     OW31596   9.306   6.082  14.765
 9900SOL    HW131597   9.358   6.108  14.841
 9900SOL    HW231598   9.338   5.994  14.743
 9901SOL     OW31599   0.393   3.684   7.594
 9901SOL    HW131600   0.427   3.771   7.617
 9901SOL    HW231601   0.456   3.650   7.531
 9902SOL     OW31602   2.285   8.625  13.028
 9902SOL    HW131603   2.273   8.642  13.122
 9902SOL    HW231604   2.213   8.567  13.005
 9903SOL     OW31605   6.753   8.942  12.710
 9903SOL    HW131606   6.829   8.907  12.756
 9903SOL    HW231607   6.735   9.026  12.754
 9904SOL     OW31608   3.128   2.853  12.688
 9904SOL    HW131609   3.035   2.848  12.668
 9904SOL    HW231610   3.142   2.786  12.754
 9905SOL     OW31611  11.556  10.960   3.897
 9905SOL    HW131612  11.479  10.907   3.877
 9905SOL    HW231613  11.532  11.010   3.975
 9906SOL     OW31614   0.005   4.557   7.919
 9906SOL    HW131615   0.077   4.493   7.918
 9906SOL    HW231616  14.852   4.567   7.827
 9907SOL     OW31617   5.445   9.764   1.992
 9907SOL    HW131618   5.399   9.709   2.054
 9907SOL    HW231619   5.395   9.846   1.991
 9908SOL     OW31620   2.420   1.250  14.374
 9908SOL    HW131621   2.326   1.252  14.388
 9908SOL    HW231622   2.438   1.319  14.311
 9909SOL     OW31623   1.164  13.232   8.359
 9909SOL    HW131624   1.196  13.307   8.408
 9909SOL    HW231625   1.113  13.270   8.287
 9910SOL     OW31626  13.900   2.597  14.653
 9910SOL    HW131627  13.939   2.563  14.733
 9910SOL    HW231628  13.813   2.628  14.680
 9911SOL     OW31629  10.698   1.065   3.474
 9911SOL    HW131630  10.728   1.108   3.554
 9911SOL    HW231631  10.736   1.117   3.403
 9912SOL     OW31632  14.689   7.017   8.858
 9912SOL    HW131633  14.635   7.033   8.936
 9912SOL    HW231634  14.747   7.094   8.853
 9913SOL     OW31635   0.397   5.485  12.044
 9913SOL    HW131636   0.469   5.451  12.098
 9913SOL    HW231637   0.383   5.417  11.978
 9914SOL     OW31638   8.516  11.031   0.802
 9914SOL    HW131639   8.585  11.094   0.822
 9914SOL    HW231640   8.439  11.063   0.850
 9915SOL     OW31641   7.280   8.653  13.844
 9915SOL    HW131642   7.370   8.621  13.847
 9915SOL    HW231643   7.273   8.698  13.760
 9916SOL     OW31644   1.428   9.844   4.968
 9916SOL    HW131645   1.341   9.866   4.934
 9916SOL    HW231646   1.445   9.755   4.936
 9917SOL     OW31647  11.424   7.566  12.184
 9917SOL    HW131648  11.519   7.564  12.171
 9917SOL    HW231649  11.400   7.476  12.205
 9918SOL     OW31650  11.061  14.113   2.708
 9918SOL    HW131651  11.079  14.100   2.615
 9918SOL    HW231652  10.971  14.082   2.719
 9919SOL     OW31653  10.670   8.648   2.738
 9919SOL    HW131654  10.753   8.616   2.773
 9919SOL    HW231655  10.619   8.569   2.720
 9920SOL     OW31656   2.155  12.260   4.110
 9920SOL    HW131657   2.120  12.172   4.120
 9920SOL    HW231658   2.232  12.250   4.055
 9921SOL     OW31659   2.584  14.770   9.714
 9921SOL    HW131660   2.550  14.802   9.631
 9921SOL    HW231661   2.644  14.839   9.743
 9922SOL     OW31662   3.935  14.359   2.444
 9922SOL    HW131663   3.979  14.319   2.369
 9922SOL    HW231664   3.887  14.286   2.485
 9923SOL     OW31665   5.850  12.651   0.771
 9923SOL    HW131666   5.941  12.623   0.759
 9923SOL    HW231667   5.844  12.732   0.720
 9924SOL     OW31668  11.742   8.920   2.694
 9924SOL    HW131669  11.654   8.903   2.660
 9924SOL    HW231670  11.792   8.840   2.675
 9925SOL     OW31671   4.858  13.482   5.171
 9925SOL    HW131672   4.800  13.516   5.239
 9925SOL    HW231673   4.946  13.504   5.201
 9926SOL     OW31674   8.984   7.317   1.721
 9926SOL    HW131675   9.063   7.338   1.772
 9926SOL    HW231676   8.999   7.228   1.689
 9927SOL     OW31677  11.616   4.972   3.092
 9927SOL    HW131678  11.677   5.034   3.052
 9927SOL    HW231679  11.616   4.996   3.185
 9928SOL     OW31680   5.733  13.264   1.826
 9928SOL    HW131681   5.794  13.262   1.751
 9928SOL    HW231682   5.715  13.357   1.839
 9929SOL     OW31683   0.220   3.299   9.581
 9929SOL    HW131684   0.216   3.353   9.503
 9929SOL    HW231685   0.245   3.359   9.651
 9930SOL     OW31686  11.840   3.632  13.187
 9930SOL    HW131687  11.842   3.541  13.156
 9930SOL    HW231688  11.759   3.668  13.152
 9931SOL     OW31689   3.935   0.186  12.159
 9931SOL    HW131690   3.863   0.132  12.193
 9931SOL    HW231691   3.922   0.271  12.200
 9932SOL     OW31692   2.077  11.928  13.297
 9932SOL    HW131693   2.132  11.853  13.272
 9932SOL    HW231694   1.998  11.919  13.244
 9933SOL     OW31695   7.284   8.943   5.190
 9933SOL    HW131696   7.350   8.914   5.253
 9933SOL    HW231697   7.253   8.862   5.149
 9934SOL     OW31698  10.066  13.315   9.435
 9934SOL    HW131699  10.007  13.289   9.364
 9934SOL    HW231700  10.125  13.379   9.395
 9935SOL     OW31701   2.274   6.068   3.932
 9935SOL    HW131702   2.240   6.038   3.848
 9935SOL    HW231703   2.369   6.056   3.925
 9936SOL     OW31704   0.775   7.729   1.718
 9936SOL    HW131705   0.698   7.674   1.730
 9936SOL    HW231706   0.808   7.706   1.631
 9937SOL     OW31707   1.973   3.860  11.684
 9937SOL    HW131708   1.884   3.896  11.687
 9937SOL    HW231709   2.026   3.931  11.649
 9938SOL     OW31710  12.047   8.350  11.868
 9938SOL    HW131711  12.029   8.395  11.950
 9938SOL    HW231712  12.111   8.282  11.890
 9939SOL     OW31713   9.163   0.720   3.498
 9939SOL    HW131714   9.100   0.792   3.498
 9939SOL    HW231715   9.134   0.663   3.427
 9940SOL     OW31716   9.744   8.368   0.035
 9940SOL    HW131717   9.695   8.288   0.051
 9940SOL    HW231718   9.678   8.436   0.028
 9941SOL     OW31719   9.191   3.056   9.997
 9941SOL    HW131720   9.142   2.974  10.004
 9941SOL    HW231721   9.233   3.067  10.082
 9942SOL     OW31722   1.496   4.359  11.509
 9942SOL    HW131723   1.556   4.285  11.498
 9942SOL    HW231724   1.495   4.401  11.423
 9943SOL     OW31725   1.449   5.570  11.521
 9943SOL    HW131726   1.379   5.512  11.550
 9943SOL    HW231727   1.406   5.634  11.464
 9944SOL     OW31728   0.292   4.857   9.349
 9944SOL    HW131729   0.387   4.851   9.334
 9944SOL    HW231730   0.270   4.774   9.392
 9945SOL     OW31731  12.844   8.700   3.693
 9945SOL    HW131732  12.777   8.760   3.662
 9945SOL    HW231733  12.917   8.712   3.631
 9946SOL     OW31734   2.487   7.484   8.632
 9946SOL    HW131735   2.394   7.509   8.634
 9946SOL    HW231736   2.504   7.449   8.720
 9947SOL     OW31737   3.606   9.251   8.121
 9947SOL    HW131738   3.511   9.254   8.108
 9947SOL    HW231739   3.616   9.226   8.213
 9948SOL     OW31740  14.169   7.579  13.843
 9948SOL    HW131741  14.113   7.534  13.780
 9948SOL    HW231742  14.249   7.525  13.846
 9949SOL     OW31743   5.275  10.715  11.366
 9949SOL    HW131744   5.204  10.721  11.430
 9949SOL    HW231745   5.262  10.630  11.324
 9950SOL     OW31746   0.664   5.108  13.055
 9950SOL    HW131747   0.652   5.014  13.043
 9950SOL    HW231748   0.754   5.125  13.027
 9951SOL     OW31749  12.316   7.258  13.924
 9951SOL    HW131750  12.273   7.329  13.972
 9951SOL    HW231751  12.300   7.279  13.832
 9952SOL     OW31752   5.577   5.321  13.598
 9952SOL    HW131753   5.486   5.316  13.628
 9952SOL    HW231754   5.571   5.349  13.507
 9953SOL     OW31755   3.169   6.707   7.971
 9953SOL    HW131756   3.229   6.781   7.979
 9953SOL    HW231757   3.137   6.692   8.060
 9954SOL     OW31758  14.257  13.513  13.783
 9954SOL    HW131759  14.251  13.596  13.735
 9954SOL    HW231760  14.265  13.447  13.715
 9955SOL     OW31761   4.552   6.728   8.887
 9955SOL    HW131762   4.640   6.693   8.872
 9955SOL    HW231763   4.496   6.651   8.896
 9956SOL     OW31764   0.596   5.129  12.337
 9956SOL    HW131765   0.602   5.122  12.241
 9956SOL    HW231766   0.675   5.177  12.361
 9957SOL     OW31767   2.977   5.178  14.202
 9957SOL    HW131768   3.048   5.222  14.155
 9957SOL    HW231769   2.929   5.249  14.245
 9958SOL     OW31770   3.086   2.158   0.685
 9958SOL    HW131771   3.069   2.183   0.594
 9958SOL    HW231772   3.008   2.108   0.711
 9959SOL     OW31773   6.139  14.664  10.414
 9959SOL    HW131774   6.094  14.594  10.461
 9959SOL    HW231775   6.072  14.702  10.357
 9960SOL     OW31776   0.295   7.114  10.971
 9960SOL    HW131777   0.242   7.193  10.970
 9960SOL    HW231778   0.374   7.138  10.922
 9961SOL     OW31779  10.396   8.694  11.811
 9961SOL    HW131780  10.448   8.732  11.741
 9961SOL    HW231781  10.450   8.702  11.889
 9962SOL     OW31782   3.225   0.033   1.837
 9962SOL    HW131783   3.302   0.085   1.813
 9962SOL    HW231784   3.161   0.097   1.868
 9963SOL     OW31785  11.099   8.758  14.011
 9963SOL    HW131786  11.113   8.689  13.946
 9963SOL    HW231787  11.142   8.726  14.090
 9964SOL     OW31788   8.135   7.586   4.412
 9964SOL    HW131789   8.113   7.636   4.490
 9964SOL    HW231790   8.127   7.494   4.439
 9965SOL     OW31791   3.129   4.434   6.809
 9965SOL    HW131792   3.121   4.528   6.795
 9965SOL    HW231793   3.101   4.394   6.727
 9966SOL     OW31794   2.442   8.517   5.497
 9966SOL    HW131795   2.520   8.486   5.543
 9966SOL    HW231796   2.475   8.579   5.432
 9967SOL     OW31797   2.282   3.224  13.312
 9967SOL    HW131798   2.324   3.142  13.286
 9967SOL    HW231799   2.254   3.209  13.402
 9968SOL     OW31800   2.202   6.081  12.578
 9968SOL    HW131801   2.269   6.057  12.642
 9968SOL    HW231802   2.119   6.065  12.623
 9969SOL     OW31803  11.977   5.321   2.643
 9969SOL    HW131804  11.965   5.230   2.670
 9969SOL    HW231805  12.063   5.323   2.602
 9970SOL     OW31806  12.926   7.235   1.322
 9970SOL    HW131807  12.979   7.300   1.367
 9970SOL    HW231808  12.837   7.249   1.354
 9971SOL     OW31809  10.059   5.375   1.386
 9971SOL    HW131810  10.033   5.345   1.474
 9971SOL    HW231811   9.978   5.374   1.335
 9972SOL     OW31812  14.768  14.518  12.250
 9972SOL    HW131813  14.705  14.456  12.212
 9972SOL    HW231814  14.784  14.485  12.338
 9973SOL     OW31815  11.508   9.958   5.722
 9973SOL    HW131816  11.427   9.994   5.685
 9973SOL    HW231817  11.505   9.865   5.701
 9974SOL     OW31818  14.200  12.066   6.966
 9974SOL    HW131819  14.122  12.014   6.946
 9974SOL    HW231820  14.251  12.066   6.885
 9975SOL     OW31821   0.648   1.715   7.874
 9975SOL    HW131822   0.738   1.684   7.877
 9975SOL    HW231823   0.595   1.635   7.875
 9976SOL     OW31824  11.212  11.203  12.572
 9976SOL    HW131825  11.236  11.110  12.574
 9976SOL    HW231826  11.121  11.204  12.543
 9977SOL     OW31827   5.318   3.637   6.630
 9977SOL    HW131828   5.337   3.681   6.547
 9977SOL    HW231829   5.223   3.634   6.634
 9978SOL     OW31830   4.513   7.932  14.216
 9978SOL    HW131831   4.587   7.876  14.193
 9978SOL    HW231832   4.478   7.894  14.296
 9979SOL     OW31833   9.137   7.874   9.662
 9979SOL    HW131834   9.123   7.934   9.589
 9979SOL    HW231835   9.127   7.787   9.625
 9980SOL     OW31836   5.380  10.370   1.199
 9980SOL    HW131837   5.385  10.463   1.175
 9980SOL    HW231838   5.469  10.337   1.189
 9981SOL     OW31839   8.091   5.169  11.252
 9981SOL    HW131840   8.176   5.212  11.254
 9981SOL    HW231841   8.099   5.104  11.183
 9982SOL     OW31842   6.118   9.516  12.559
 9982SOL    HW131843   6.126   9.452  12.631
 9982SOL    HW231844   6.180   9.485  12.493
 9983SOL     OW31845  12.103   7.542   4.734
 9983SOL    HW131846  12.108   7.592   4.815
 9983SOL    HW231847  12.153   7.594   4.670
 9984SOL     OW31848   8.800   7.075   5.428
 9984SOL    HW131849   8.791   6.986   5.463
 9984SOL    HW231850   8.847   7.123   5.496
 9985SOL     OW31851   5.683   6.756   3.486
 9985SOL    HW131852   5.611   6.769   3.424
 9985SOL    HW231853   5.669   6.668   3.520
 9986SOL     OW31854  11.311   5.253  10.599
 9986SOL    HW131855  11.254   5.325  10.572
 9986SOL    HW231856  11.399   5.279  10.569
 9987SOL     OW31857  10.921   8.689   5.475
 9987SOL    HW131858  10.919   8.733   5.560
 9987SOL    HW231859  10.985   8.738   5.424
 9988SOL     OW31860   8.913   8.169  11.949
 9988SOL    HW131861   8.958   8.113  11.886
 9988SOL    HW231862   8.945   8.141  12.035
 9989SOL     OW31863   4.275   2.337   4.121
 9989SOL    HW131864   4.352   2.281   4.129
 9989SOL    HW231865   4.279   2.372   4.032
 9990SOL     OW31866   4.632   7.179   8.004
 9990SOL    HW131867   4.563   7.197   7.940
 9990SOL    HW231868   4.694   7.124   7.956
 9991SOL     OW31869   6.852  11.074   1.059
 9991SOL    HW131870   6.888  11.156   1.093
 9991SOL    HW231871   6.913  11.006   1.087
 9992SOL     OW31872   4.341   8.816   9.521
 9992SOL    HW131873   4.334   8.906   9.489
 9992SOL    HW231874   4.435   8.800   9.529
 9993SOL     OW31875   0.356   7.563  13.501
 9993SOL    HW131876   0.348   7.476  13.461
 9993SOL    HW231877   0.315   7.552  13.587
 9994SOL     OW31878  14.694  14.307   7.359
 9994SOL    HW131879  14.723  14.223   7.324
 9994SOL    HW231880  14.764  14.333   7.419
 9995SOL     OW31881   5.573   5.681   4.604
 9995SOL    HW131882   5.597   5.598   4.561
 9995SOL    HW231883   5.491   5.662   4.648
 9996SOL     OW31884   6.278   2.048   9.753
 9996SOL    HW131885   6.320   1.967   9.721
 9996SOL    HW231886   6.213   2.018   9.816
 9997SOL     OW31887  14.710   0.007  13.112
 9997SOL    HW131888  14.621   0.019  13.079
 9997SOL    HW231889  14.710  14.791  13.150
 9998SOL     OW31890   2.985   6.877   6.149
 9998SOL    HW131891   3.003   6.951   6.207
 9998SOL    HW231892   3.033   6.897   6.069
 9999SOL     OW31893   1.866   3.463  12.662
 9999SOL    HW131894   1.856   3.429  12.573
 9999SOL    HW231895   1.927   3.536  12.652
10000SOL     OW31896   6.550   1.522   2.705
10000SOL    HW131897   6.594   1.464   2.766
10000SOL    HW231898   6.545   1.472   2.623
10001SOL     OW31899   3.259   4.299   3.163
10001SOL    HW131900   3.335   4.305   3.221
10001SOL    HW231901   3.242   4.389   3.136
10002SOL     OW31902  12.770   2.619   5.470
10002SOL    HW131903  12.680   2.633   5.441
10002SOL    HW231904  12.761   2.560   5.545
10003SOL     OW31905  13.110  12.644  12.956
10003SOL    HW131906  13.173  12.656  12.885
10003SOL    HW231907  13.119  12.722  13.010
10004SOL     OW31908  12.207   1.883  13.447
10004SOL    HW131909  12.162   1.831  13.514
10004SOL    HW231910  12.167   1.969  13.453
10005SOL     OW31911   5.572  10.319   8.431
10005SOL    HW131912   5.531  10.240   8.466
10005SOL    HW231913   5.627  10.287   8.359
10006SOL     OW31914   6.080   7.931   4.977
10006SOL    HW131915   5.992   7.947   4.944
10006SOL    HW231916   6.077   7.958   5.069
10007SOL     OW31917  13.394  11.471   2.939
10007SOL    HW131918  13.447  11.514   2.872
10007SOL    HW231919  13.426  11.381   2.940
10008SOL     OW31920  13.719   0.268   1.381
10008SOL    HW131921  13.704   0.362   1.374
10008SOL    HW231922  13.768   0.257   1.463
10009SOL     OW31923  14.366   2.616   3.283
10009SOL    HW131924  14.377   2.710   3.295
10009SOL    HW231925  14.287   2.608   3.229
10010SOL     OW31926   4.338   9.063   4.660
10010SOL    HW131927   4.340   8.988   4.720
10010SOL    HW231928   4.413   9.116   4.687
10011SOL     OW31929  11.448   6.430   9.734
10011SOL    HW131930  11.511   6.499   9.712
10011SOL    HW231931  11.494   6.375   9.798
10012SOL     OW31932  13.387   8.363   9.487
10012SOL    HW131933  13.429   8.445   9.513
10012SOL    HW231934  13.375   8.315   9.569
10013SOL     OW31935   2.143  12.855  11.411
10013SOL    HW131936   2.125  12.930  11.354
10013SOL    HW231937   2.123  12.778  11.357
10014SOL     OW31938  12.223  12.852  10.736
10014SOL    HW131939  12.265  12.871  10.820
10014SOL    HW231940  12.287  12.880  10.670
10015SOL     OW31941  14.226   1.902  14.823
10015SOL    HW131942  14.178   1.862   0.024
10015SOL    HW231943  14.159   1.950  14.773
10016SOL     OW31944   7.419   3.888  14.682
10016SOL    HW131945   7.417   3.852  14.593
10016SOL    HW231946   7.448   3.979  14.670
10017SOL     OW31947   8.608   7.753   6.382
10017SOL    HW131948   8.661   7.825   6.415
10017SOL    HW231949   8.518   7.779   6.399
10018SOL     OW31950  13.953   4.971   6.200
10018SOL    HW131951  13.985   4.966   6.291
10018SOL    HW231952  13.961   5.064   6.177
10019SOL     OW31953   7.270   4.389   9.331
10019SOL    HW131954   7.286   4.343   9.249
10019SOL    HW231955   7.331   4.463   9.329
10020SOL     OW31956   7.974   3.343   3.017
10020SOL    HW131957   7.889   3.386   3.018
10020SOL    HW231958   7.954   3.250   3.030
10021SOL     OW31959   0.450   0.473   8.417
10021SOL    HW131960   0.440   0.409   8.488
10021SOL    HW231961   0.529   0.522   8.441
10022SOL     OW31962  13.748   1.061   3.024
10022SOL    HW131963  13.760   1.146   3.066
10022SOL    HW231964  13.796   1.000   3.079
10023SOL     OW31965   1.934   9.520   2.764
10023SOL    HW131966   1.877   9.533   2.841
10023SOL    HW231967   1.876   9.483   2.698
10024SOL     OW31968   8.687   1.429   9.407
10024SOL    HW131969   8.608   1.457   9.362
10024SOL    HW231970   8.665   1.343   9.443
10025SOL     OW31971   6.484  14.608   2.819
10025SOL    HW131972   6.575  14.636   2.804
10025SOL    HW231973   6.436  14.690   2.831
10026SOL     OW31974  14.835   0.155   0.062
10026SOL    HW131975  14.740   0.150   0.065
10026SOL    HW231976  14.862   0.157   0.154
10027SOL     OW31977   2.730  14.455   1.438
10027SOL    HW131978   2.700  14.520   1.501
10027SOL    HW231979   2.652  14.404   1.416
10028SOL     OW31980   8.850   1.383   3.392
10028SOL    HW131981   8.834   1.477   3.387
10028SOL    HW231982   8.820   1.357   3.479
10029SOL     OW31983   7.756  11.619   8.135
10029SOL    HW131984   7.710  11.697   8.165
10029SOL    HW231985   7.737  11.614   8.041
10030SOL     OW31986   4.159  12.677   3.490
10030SOL    HW131987   4.217  12.654   3.562
10030SOL    HW231988   4.216  12.683   3.413
10031SOL     OW31989   3.659  11.812   2.040
10031SOL    HW131990   3.684  11.776   1.954
10031SOL    HW231991   3.597  11.748   2.076
10032SOL     OW31992   5.369  12.981   3.146
10032SOL    HW131993   5.353  12.937   3.229
10032SOL    HW231994   5.285  13.020   3.122
10033SOL     OW31995  10.963  14.740   0.042
10033SOL    HW131996  10.991  14.699  14.831
10033SOL    HW231997  11.032  14.716   0.105
10034SOL     OW31998   8.886  10.951  11.876
10034SOL    HW131999   8.980  10.965  11.864
10034SOL    HW232000   8.878  10.910  11.962
10035SOL     OW32001   3.752   8.330  11.567
10035SOL    HW132002   3.820   8.262  11.568
10035SOL    HW232003   3.782   8.394  11.631
10036SOL     OW32004  12.247   3.215   3.982
10036SOL    HW132005  12.245   3.126   3.948
10036SOL    HW232006  12.268   3.205   4.075
10037SOL     OW32007   3.129   7.855   8.850
10037SOL    HW132008   3.117   7.934   8.902
10037SOL    HW232009   3.181   7.797   8.905
10038SOL     OW32010   9.805   7.599   3.187
10038SOL    HW132011   9.771   7.512   3.167
10038SOL    HW232012   9.807   7.603   3.282
10039SOL     OW32013   6.104   3.561   2.886
10039SOL    HW132014   6.149   3.635   2.927
10039SOL    HW232015   6.175   3.506   2.852
10040SOL     OW32016  13.022   8.696  13.904
10040SOL    HW132017  13.002   8.626  13.842
10040SOL    HW232018  12.937   8.729  13.932
10041SOL     OW32019   2.755   9.942   3.096
10041SOL    HW132020   2.802   9.934   3.179
10041SOL    HW232021   2.757   9.854   3.058
10042SOL     OW32022   3.051   2.052   4.325
10042SOL    HW132023   3.082   1.974   4.370
10042SOL    HW232024   3.124   2.079   4.270
10043SOL     OW32025   5.691   8.513   0.858
10043SOL    HW132026   5.721   8.541   0.771
10043SOL    HW232027   5.605   8.552   0.868
10044SOL     OW32028  13.765  10.509   9.971
10044SOL    HW132029  13.829  10.529  10.040
10044SOL    HW232030  13.781  10.417   9.950
10045SOL     OW32031   1.213   6.437  12.974
10045SOL    HW132032   1.277   6.472  13.036
10045SOL    HW232033   1.133   6.486  12.990
10046SOL     OW32034   5.426  10.420   5.410
10046SOL    HW132035   5.446  10.384   5.497
10046SOL    HW232036   5.385  10.348   5.363
10047SOL     OW32037   9.423   2.939  12.845
10047SOL    HW132038   9.459   2.854  12.871
10047SOL    HW232039   9.331   2.920  12.825
10048SOL     OW32040   0.172   4.465   2.923
10048SOL    HW132041   0.124   4.498   2.847
10048SOL    HW232042   0.218   4.542   2.957
10049SOL     OW32043   7.708   4.745  13.885
10049SOL    HW132044   7.641   4.731  13.952
10049SOL    HW232045   7.749   4.828  13.909
10050SOL     OW32046   1.846   9.034   5.030
10050SOL    HW132047   1.816   8.952   5.069
10050SOL    HW232048   1.903   9.007   4.959
10051SOL     OW32049   2.838  13.438   6.186
10051SOL    HW132050   2.884  13.515   6.221
10051SOL    HW232051   2.746  13.455   6.204
10052SOL     OW32052  12.489   0.976   8.481
10052SOL    HW132053  12.472   1.051   8.423
10052SOL    HW232054  12.574   0.996   8.520
10053SOL     OW32055   5.326  11.120  11.714
10053SOL    HW132056   5.264  11.100  11.644
10053SOL    HW232057   5.394  11.053  11.705
10054SOL     OW32058   3.458  13.218   3.912
10054SOL    HW132059   3.502  13.295   3.948
10054SOL    HW232060   3.370  13.249   3.888
10055SOL     OW32061   3.292   2.583  10.796
10055SOL    HW132062   3.270   2.598  10.888
10055SOL    HW232063   3.343   2.502  10.796
10056SOL     OW32064  10.728   2.481   7.684
10056SOL    HW132065  10.794   2.449   7.624
10056SOL    HW232066  10.737   2.576   7.681
10057SOL     OW32067  11.488  11.227   1.246
10057SOL    HW132068  11.405  11.216   1.199
10057SOL    HW232069  11.467  11.200   1.336
10058SOL     OW32070   8.480   6.942  13.822
10058SOL    HW132071   8.484   6.848  13.809
10058SOL    HW232072   8.391   6.966  13.799
10059SOL     OW32073   7.937  13.603   5.840
10059SOL    HW132074   7.884  13.542   5.891
10059SOL    HW232075   7.878  13.675   5.819
10060SOL     OW32076   2.905   1.907   0.516
10060SOL    HW132077   2.902   1.949   0.602
10060SOL    HW232078   2.852   1.828   0.526
10061SOL     OW32079  12.765  13.527   8.974
10061SOL    HW132080  12.784  13.618   8.950
10061SOL    HW232081  12.706  13.534   9.049
10062SOL     OW32082   2.129   9.451  13.429
10062SOL    HW132083   2.041   9.415  13.444
10062SOL    HW232084   2.188   9.381  13.458
10063SOL     OW32085   2.403  12.275  11.373
10063SOL    HW132086   2.483  12.319  11.402
10063SOL    HW232087   2.428  12.234  11.291
10064SOL     OW32088  14.080   1.695  11.325
10064SOL    HW132089  14.088   1.617  11.271
10064SOL    HW232090  14.017   1.750  11.279
10065SOL     OW32091   6.435  12.219  14.756
10065SOL    HW132092   6.366  12.169  14.712
10065SOL    HW232093   6.401  12.233  14.845
10066SOL     OW32094   7.713   5.135   3.477
10066SOL    HW132095   7.781   5.095   3.424
10066SOL    HW232096   7.756   5.158   3.559
10067SOL     OW32097   3.377   6.140   7.585
10067SOL    HW132098   3.389   6.178   7.498
10067SOL    HW232099   3.403   6.048   7.574
10068SOL     OW32100   4.341  14.829   0.241
10068SOL    HW132101   4.330   0.036   0.296
10068SOL    HW232102   4.318  14.756   0.299
10069SOL     OW32103   5.318   2.080   0.388
10069SOL    HW132104   5.254   2.011   0.406
10069SOL    HW232105   5.291   2.117   0.304
10070SOL     OW32106  14.156   8.489  11.112
10070SOL    HW132107  14.178   8.502  11.204
10070SOL    HW232108  14.144   8.395  11.103
10071SOL     OW32109   3.274  13.965   7.756
10071SOL    HW132110   3.303  13.905   7.687
10071SOL    HW232111   3.203  14.015   7.715
10072SOL     OW32112   3.807   4.086   0.208
10072SOL    HW132113   3.805   4.096   0.304
10072SOL    HW232114   3.900   4.075   0.187
10073SOL     OW32115   7.504  13.116   6.596
10073SOL    HW132116   7.409  13.100   6.603
10073SOL    HW232117   7.512  13.187   6.533
10074SOL     OW32118  14.685  11.974   0.600
10074SOL    HW132119  14.599  11.988   0.561
10074SOL    HW232120  14.668  11.958   0.693
10075SOL     OW32121   7.899   1.210   0.863
10075SOL    HW132122   7.838   1.136   0.857
10075SOL    HW232123   7.970   1.178   0.918
10076SOL     OW32124  11.708   3.425   4.579
10076SOL    HW132125  11.744   3.443   4.492
10076SOL    HW232126  11.784   3.399   4.632
10077SOL     OW32127   8.676   5.247   3.804
10077SOL    HW132128   8.595   5.199   3.789
10077SOL    HW232129   8.655   5.338   3.781
10078SOL     OW32130  14.025  13.299  12.023
10078SOL    HW132131  13.966  13.347  12.082
10078SOL    HW232132  14.052  13.364  11.959
10079SOL     OW32133   5.581   3.250   0.918
10079SOL    HW132134   5.659   3.302   0.900
10079SOL    HW232135   5.573   3.191   0.843
10080SOL     OW32136  11.276   9.553  12.916
10080SOL    HW132137  11.274   9.570  13.011
10080SOL    HW232138  11.194   9.588  12.884
10081SOL     OW32139  10.011   9.454  14.193
10081SOL    HW132140   9.998   9.360  14.177
10081SOL    HW232141   9.922   9.488  14.205
10082SOL     OW32142  11.476   2.524  10.911
10082SOL    HW132143  11.509   2.485  10.992
10082SOL    HW232144  11.433   2.452  10.865
10083SOL     OW32145  13.901  11.904   0.332
10083SOL    HW132146  13.868  11.840   0.268
10083SOL    HW232147  13.822  11.943   0.370
10084SOL     OW32148  13.155  14.438   4.330
10084SOL    HW132149  13.240  14.472   4.302
10084SOL    HW232150  13.129  14.494   4.403
10085SOL     OW32151   5.008  12.099  10.857
10085SOL    HW132152   5.032  12.042  10.784
10085SOL    HW232153   5.027  12.187  10.826
10086SOL     OW32154   4.260  14.803  13.051
10086SOL    HW132155   4.307  14.780  13.131
10086SOL    HW232156   4.236  14.718  13.013
10087SOL     OW32157   0.381   8.985   0.601
10087SOL    HW132158   0.465   8.981   0.646
10087SOL    HW232159   0.400   8.961   0.511
10088SOL     OW32160  14.810  13.277   7.172
10088SOL    HW132161  14.736  13.334   7.191
10088SOL    HW232162  14.855  13.267   7.256
10089SOL     OW32163  11.694  10.333   5.587
10089SOL    HW132164  11.638  10.408   5.609
10089SOL    HW232165  11.770  10.342   5.646
10090SOL     OW32166   4.200   9.142  13.412
10090SOL    HW132167   4.215   9.210  13.478
10090SOL    HW232168   4.254   9.069  13.441
10091SOL     OW32169   4.686   5.292   8.472
10091SOL    HW132170   4.778   5.271   8.487
10091SOL    HW232171   4.657   5.330   8.555
10092SOL     OW32172  14.371   8.976   5.270
10092SOL    HW132173  14.448   9.031   5.286
10092SOL    HW232174  14.393   8.926   5.191
10093SOL     OW32175  12.264  12.867   4.151
10093SOL    HW132176  12.192  12.915   4.109
10093SOL    HW232177  12.311  12.826   4.079
10094SOL     OW32178  12.147   7.321  12.694
10094SOL    HW132179  12.077   7.334  12.630
10094SOL    HW232180  12.223   7.294  12.642
10095SOL     OW32181   3.897   7.497  10.014
10095SOL    HW132182   3.815   7.501   9.964
10095SOL    HW232183   3.870   7.500  10.105
10096SOL     OW32184  14.506   6.945   1.230
10096SOL    HW132185  14.580   6.903   1.187
10096SOL    HW232186  14.437   6.947   1.163
10097SOL     OW32187   9.214   8.518   2.103
10097SOL    HW132188   9.131   8.553   2.070
10097SOL    HW232189   9.281   8.569   2.058
10098SOL     OW32190   1.670   5.824   1.978
10098SOL    HW132191   1.588   5.858   1.942
10098SOL    HW232192   1.668   5.850   2.070
10099SOL     OW32193   6.333  14.777  12.934
10099SOL    HW132194   6.342  14.852  12.875
10099SOL    HW232195   6.420  14.765  12.971
10100SOL     OW32196   8.213   7.862  10.414
10100SOL    HW132197   8.253   7.853  10.500
10100SOL    HW232198   8.125   7.895  10.433
10101SOL     OW32199   7.287  13.741   8.661
10101SOL    HW132200   7.369  13.774   8.624
10101SOL    HW232201   7.235  13.819   8.676
10102SOL     OW32202  10.553   2.338  13.612
10102SOL    HW132203  10.531   2.394  13.537
10102SOL    HW232204  10.469   2.321  13.654
10103SOL     OW32205  12.763   2.469   5.678
10103SOL    HW132206  12.806   2.401   5.729
10103SOL    HW232207  12.712   2.519   5.741
10104SOL     OW32208   2.338   7.299   0.462
10104SOL    HW132209   2.264   7.244   0.439
10104SOL    HW232210   2.409   7.269   0.405
10105SOL     OW32211   7.768   7.852   1.127
10105SOL    HW132212   7.751   7.785   1.060
10105SOL    HW232213   7.846   7.897   1.095
10106SOL     OW32214   5.596   7.131   2.901
10106SOL    HW132215   5.598   7.133   2.997
10106SOL    HW232216   5.614   7.040   2.879
10107SOL     OW32217   2.325   1.379   9.717
10107SOL    HW132218   2.268   1.455   9.717
10107SOL    HW232219   2.265   1.304   9.722
10108SOL     OW32220  14.258   1.398   9.610
10108SOL    HW132221  14.297   1.477   9.646
10108SOL    HW232222  14.164   1.416   9.609
10109SOL     OW32223  14.678   4.818   3.278
10109SOL    HW132224  14.737   4.892   3.288
10109SOL    HW232225  14.735   4.742   3.272
10110SOL     OW32226  11.351   9.624   2.404
10110SOL    HW132227  11.298   9.702   2.389
10110SOL    HW232228  11.434   9.643   2.359
10111SOL     OW32229   6.319  13.323   5.172
10111SOL    HW132230   6.329  13.308   5.266
10111SOL    HW232231   6.323  13.236   5.133
10112SOL     OW32232  13.681   6.837   7.866
10112SOL    HW132233  13.768   6.817   7.832
10112SOL    HW232234  13.680   6.798   7.953
10113SOL     OW32235   3.099   5.591   0.697
10113SOL    HW132236   3.064   5.649   0.629
10113SOL    HW232237   3.022   5.557   0.742
10114SOL     OW32238   2.533   9.915   4.655
10114SOL    HW132239   2.542   9.841   4.715
10114SOL    HW232240   2.618   9.921   4.612
10115SOL     OW32241   3.184   8.896  13.601
10115SOL    HW132242   3.205   8.949  13.677
10115SOL    HW232243   3.181   8.806  13.634
10116SOL     OW32244   2.383   7.216   5.710
10116SOL    HW132245   2.316   7.265   5.663
10116SOL    HW232246   2.335   7.161   5.771
10117SOL     OW32247   0.129  13.024   1.200
10117SOL    HW132248   0.178  13.041   1.119
10117SOL    HW232249   0.043  12.996   1.170
10118SOL     OW32250   8.466   0.220   3.671
10118SOL    HW132251   8.374   0.243   3.680
10118SOL    HW232252   8.484   0.162   3.745
10119SOL     OW32253   1.327   8.679   9.230
10119SOL    HW132254   1.365   8.756   9.273
10119SOL    HW232255   1.392   8.610   9.244
10120SOL     OW32256  11.771   2.131  13.029
10120SOL    HW132257  11.820   2.148  13.109
10120SOL    HW232258  11.825   2.068  12.981
10121SOL     OW32259  12.562   2.576  11.925
10121SOL    HW132260  12.602   2.502  11.880
10121SOL    HW232261  12.629   2.605  11.987
10122SOL     OW32262   9.281   0.184   0.067
10122SOL    HW132263   9.340   0.222   0.001
10122SOL    HW232264   9.251   0.102   0.028
10123SOL     OW32265   3.643  13.983   2.165
10123SOL    HW132266   3.720  13.979   2.108
10123SOL    HW232267   3.607  14.070   2.150
10124SOL     OW32268   3.167  14.330   2.737
10124SOL    HW132269   3.123  14.268   2.679
10124SOL    HW232270   3.097  14.383   2.775
10125SOL     OW32271  10.976  12.258  14.000
10125SOL    HW132272  11.037  12.196  14.038
10125SOL    HW232273  10.983  12.244  13.905
10126SOL     OW32274   8.488   5.966   3.189
10126SOL    HW132275   8.395   5.983   3.170
10126SOL    HW232276   8.519   6.047   3.230
10127SOL     OW32277  11.083   0.750   7.184
10127SOL    HW132278  11.036   0.785   7.260
10127SOL    HW232279  11.021   0.688   7.145
10128SOL     OW32280   3.762   1.204   5.882
10128SOL    HW132281   3.776   1.118   5.844
10128SOL    HW232282   3.829   1.211   5.951
10129SOL     OW32283   7.291   7.215  14.259
10129SOL    HW132284   7.237   7.289  14.288
10129SOL    HW232285   7.379   7.236  14.291
10130SOL     OW32286   0.989   5.674  12.379
10130SOL    HW132287   0.923   5.655  12.446
10130SOL    HW232288   1.045   5.597  12.378
10131SOL     OW32289   5.675   7.312   4.592
10131SOL    HW132290   5.728   7.280   4.665
10131SOL    HW232291   5.686   7.246   4.524
10132SOL     OW32292   3.464  10.563   0.428
10132SOL    HW132293   3.412  10.544   0.350
10132SOL    HW232294   3.555  10.560   0.398
10133SOL     OW32295   6.446  14.851   3.292
10133SOL    HW132296   6.481   0.028   3.367
10133SOL    HW232297   6.476   0.028   3.215
10134SOL     OW32298   6.227   2.874   6.475
10134SOL    HW132299   6.318   2.852   6.494
10134SOL    HW232300   6.185   2.789   6.457
10135SOL     OW32301   7.452  13.159   4.743
10135SOL    HW132302   7.494  13.103   4.677
10135SOL    HW232303   7.516  13.229   4.758
10136SOL     OW32304   4.906   0.261   9.828
10136SOL    HW132305   4.883   0.350   9.857
10136SOL    HW232306   4.877   0.204   9.899
10137SOL     OW32307   2.532   1.971   1.847
10137SOL    HW132308   2.605   1.971   1.785
10137SOL    HW232309   2.534   1.884   1.887
10138SOL     OW32310   9.350   9.276   2.076
10138SOL    HW132311   9.259   9.287   2.105
10138SOL    HW232312   9.399   9.263   2.158
10139SOL     OW32313   0.838  10.389   2.307
10139SOL    HW132314   0.887  10.373   2.227
10139SOL    HW232315   0.878  10.330   2.372
10140SOL     OW32316  14.338   4.416   1.102
10140SOL    HW132317  14.312   4.425   1.193
10140SOL    HW232318  14.351   4.506   1.071
10141SOL     OW32319  10.159   8.200  13.209
10141SOL    HW132320  10.152   8.292  13.235
10141SOL    HW232321  10.092   8.188  13.142
10142SOL     OW32322   6.892  14.431   6.937
10142SOL    HW132323   6.918  14.508   6.887
10142SOL    HW232324   6.871  14.365   6.870
10143SOL     OW32325   1.729   4.620   1.689
10143SOL    HW132326   1.746   4.701   1.737
10143SOL    HW232327   1.791   4.557   1.725
10144SOL     OW32328  11.045  11.484   0.123
10144SOL    HW132329  11.058  11.390   0.129
10144SOL    HW232330  11.076  11.508   0.036
10145SOL     OW32331   8.839  13.143   5.923
10145SOL    HW132332   8.756  13.171   5.886
10145SOL    HW232333   8.865  13.213   5.983
10146SOL     OW32334   3.289   7.907   8.070
10146SOL    HW132335   3.375   7.906   8.028
10146SOL    HW232336   3.227   7.899   7.998
10147SOL     OW32337   6.851   3.966   0.206
10147SOL    HW132338   6.905   3.887   0.202
10147SOL    HW232339   6.793   3.951   0.280
10148SOL     OW32340   1.801   7.278  13.188
10148SOL    HW132341   1.765   7.343  13.249
10148SOL    HW232342   1.889   7.309  13.168
10149SOL     OW32343   0.462  11.771   4.376
10149SOL    HW132344   0.381  11.743   4.334
10149SOL    HW232345   0.499  11.835   4.315
10150SOL     OW32346   7.004   8.701  12.552
10150SOL    HW132347   6.975   8.765  12.487
10150SOL    HW232348   7.091   8.732  12.579
10151SOL     OW32349  10.363   8.800  13.338
10151SOL    HW132350  10.392   8.739  13.270
10151SOL    HW232351  10.392   8.886  13.308
10152SOL     OW32352   0.355   8.319   3.900
10152SOL    HW132353   0.310   8.325   3.985
10152SOL    HW232354   0.302   8.373   3.841
10153SOL     OW32355   1.039   3.877  12.123
10153SOL    HW132356   1.068   3.828  12.046
10153SOL    HW232357   1.075   3.828  12.197
10154SOL     OW32358   2.250   8.183   3.733
10154SOL    HW132359   2.235   8.204   3.640
10154SOL    HW232360   2.271   8.267   3.773
10155SOL     OW32361   1.381   3.506   8.145
10155SOL    HW132362   1.389   3.502   8.240
10155SOL    HW232363   1.315   3.439   8.124
10156SOL     OW32364   4.654  12.443  13.161
10156SOL    HW132365   4.635  12.531  13.128
10156SOL    HW232366   4.741  12.423  13.127
10157SOL     OW32367  14.459   7.929   4.852
10157SOL    HW132368  14.521   7.992   4.814
10157SOL    HW232369  14.383   7.982   4.877
10158SOL     OW32370   5.249  11.566   8.107
10158SOL    HW132371   5.343  11.584   8.110
10158SOL    HW232372   5.242  11.471   8.113
10159SOL     OW32373  10.749   0.571   3.390
10159SOL    HW132374  10.697   0.623   3.328
10159SOL    HW232375  10.695   0.494   3.407
10160SOL     OW32376   8.952  14.001   7.292
10160SOL    HW132377   8.861  14.019   7.268
10160SOL    HW232378   9.002  14.072   7.252
10161SOL     OW32379   8.970  14.508   6.608
10161SOL    HW132380   8.882  14.472   6.619
10161SOL    HW232381   8.955  14.592   6.564
10162SOL     OW32382  13.895   5.144  10.781
10162SOL    HW132383  13.807   5.172  10.756
10162SOL    HW232384  13.889   5.049  10.787
10163SOL     OW32385   3.929   9.558   8.436
10163SOL    HW132386   3.911   9.650   8.453
10163SOL    HW232387   4.025   9.552   8.438
10164SOL     OW32388   4.737   5.100   4.583
10164SOL    HW132389   4.775   5.090   4.671
10164SOL    HW232390   4.790   5.169   4.543
10165SOL     OW32391   6.452   4.089   3.125
10165SOL    HW132392   6.383   4.125   3.181
10165SOL    HW232393   6.427   4.116   3.036
10166SOL     OW32394  11.818   6.258   8.555
10166SOL    HW132395  11.793   6.183   8.501
10166SOL    HW232396  11.863   6.219   8.630
10167SOL     OW32397  14.187   2.440   7.551
10167SOL    HW132398  14.176   2.372   7.485
10167SOL    HW232399  14.280   2.463   7.546
10168SOL     OW32400   2.989   4.711   8.226
10168SOL    HW132401   2.930   4.655   8.277
10168SOL    HW232402   2.945   4.719   8.141
10169SOL     OW32403  11.959  10.577  13.842
10169SOL    HW132404  11.872  10.538  13.855
10169SOL    HW232405  12.017  10.501  13.835
10170SOL     OW32406   2.439   6.730   0.889
10170SOL    HW132407   2.421   6.806   0.833
10170SOL    HW232408   2.498   6.764   0.957
10171SOL     OW32409   9.377  11.358  10.724
10171SOL    HW132410   9.358  11.443  10.685
10171SOL    HW232411   9.400  11.302  10.649
10172SOL     OW32412   2.386  12.306  12.147
10172SOL    HW132413   2.302  12.340  12.177
10172SOL    HW232414   2.367  12.268  12.061
10173SOL     OW32415   5.967  10.267   6.608
10173SOL    HW132416   5.963  10.297   6.698
10173SOL    HW232417   5.901  10.318   6.562
10174SOL     OW32418   5.021  12.797   4.459
10174SOL    HW132419   5.091  12.842   4.506
10174SOL    HW232420   5.051  12.706   4.451
10175SOL     OW32421  11.705   1.051   0.520
10175SOL    HW132422  11.740   0.976   0.568
10175SOL    HW232423  11.751   1.127   0.557
10176SOL     OW32424  10.980   0.662   5.501
10176SOL    HW132425  11.018   0.693   5.583
10176SOL    HW232426  11.051   0.671   5.437
10177SOL     OW32427  12.514  12.783   9.202
10177SOL    HW132428  12.596  12.827   9.180
10177SOL    HW232429  12.461  12.791   9.122
10178SOL     OW32430   2.825   3.871   4.143
10178SOL    HW132431   2.875   3.795   4.114
10178SOL    HW232432   2.744   3.867   4.093
10179SOL     OW32433   2.632   6.267   2.296
10179SOL    HW132434   2.597   6.353   2.316
10179SOL    HW232435   2.664   6.234   2.381
10180SOL     OW32436   9.891   1.839   9.107
10180SOL    HW132437   9.842   1.908   9.152
10180SOL    HW232438   9.981   1.852   9.135
10181SOL     OW32439   3.536   6.388   3.794
10181SOL    HW132440   3.467   6.355   3.851
10181SOL    HW232441   3.496   6.394   3.708
10182SOL     OW32442   6.718   3.193   6.574
10182SOL    HW132443   6.759   3.182   6.488
10182SOL    HW232444   6.668   3.274   6.566
10183SOL     OW32445  10.388   8.045  13.921
10183SOL    HW132446  10.343   8.117  13.877
10183SOL    HW232447  10.462   8.025  13.864
10184SOL     OW32448  13.788  12.313   1.496
10184SOL    HW132449  13.703  12.284   1.530
10184SOL    HW232450  13.841  12.234   1.493
10185SOL     OW32451  10.766   9.316   0.402
10185SOL    HW132452  10.834   9.369   0.443
10185SOL    HW232453  10.788   9.226   0.426
10186SOL     OW32454  10.044   4.850   1.666
10186SOL    HW132455  10.098   4.906   1.611
10186SOL    HW232456  10.064   4.761   1.637
10187SOL     OW32457  14.423   6.335   5.695
10187SOL    HW132458  14.442   6.382   5.614
10187SOL    HW232459  14.496   6.358   5.753
10188SOL     OW32460   4.412  14.667   1.746
10188SOL    HW132461   4.331  14.705   1.711
10188SOL    HW232462   4.419  14.704   1.834
10189SOL     OW32463   1.604   2.038   3.210
10189SOL    HW132464   1.538   2.028   3.141
10189SOL    HW232465   1.560   2.009   3.289
10190SOL     OW32466   5.852   4.411   7.296
10190SOL    HW132467   5.919   4.471   7.330
10190SOL    HW232468   5.896   4.326   7.293
10191SOL     OW32469   0.800  12.222   4.894
10191SOL    HW132470   0.764  12.217   4.805
10191SOL    HW232471   0.773  12.308   4.926
10192SOL     OW32472   3.389  12.927  11.316
10192SOL    HW132473   3.414  12.960  11.401
10192SOL    HW232474   3.458  12.865  11.293
10193SOL     OW32475  12.104  11.523  13.682
10193SOL    HW132476  12.010  11.515  13.698
10193SOL    HW232477  12.127  11.609  13.718
10194SOL     OW32478   6.265   7.761   9.857
10194SOL    HW132479   6.360   7.757   9.873
10194SOL    HW232480   6.259   7.788   9.765
10195SOL     OW32481   4.685  11.544   2.276
10195SOL    HW132482   4.596  11.564   2.247
10195SOL    HW232483   4.690  11.449   2.272
10196SOL     OW32484  12.190  13.230   5.247
10196SOL    HW132485  12.271  13.183   5.228
10196SOL    HW232486  12.165  13.202   5.334
10197SOL     OW32487   4.933   2.899  10.377
10197SOL    HW132488   4.949   2.842  10.301
10197SOL    HW232489   4.975   2.982  10.354
10198SOL     OW32490  14.754   2.747  12.645
10198SOL    HW132491  14.660   2.733  12.634
10198SOL    HW232492  14.786   2.669  12.690
10199SOL     OW32493   1.427   8.854   4.709
10199SOL    HW132494   1.392   8.875   4.796
10199SOL    HW232495   1.516   8.889   4.709
10200SOL     OW32496  11.752   6.489  14.153
10200SOL    HW132497  11.824   6.492  14.216
10200SOL    HW232498  11.723   6.580  14.146
10201SOL     OW32499   9.870   3.943  11.023
10201SOL    HW132500   9.849   3.866  11.076
10201SOL    HW232501   9.909   3.908  10.943
10202SOL     OW32502   6.953  12.407  11.324
10202SOL    HW132503   7.047  12.405  11.306
10202SOL    HW232504   6.929  12.500  11.321
10203SOL     OW32505   0.638  11.391   3.776
10203SOL    HW132506   0.652  11.457   3.708
10203SOL    HW232507   0.578  11.434   3.838
10204SOL     OW32508   4.954  11.526   9.485
10204SOL    HW132509   5.036  11.570   9.465
10204SOL    HW232510   4.979  11.451   9.538
10205SOL     OW32511  14.226   6.543   7.152
10205SOL    HW132512  14.300   6.569   7.097
10205SOL    HW232513  14.261   6.475   7.209
10206SOL     OW32514  13.741   8.018   6.654
10206SOL    HW132515  13.800   8.079   6.610
10206SOL    HW232516  13.759   7.933   6.612
10207SOL     OW32517   1.218  12.559   1.983
10207SOL    HW132518   1.191  12.482   1.933
10207SOL    HW232519   1.147  12.572   2.047
10208SOL     OW32520   7.997  10.146  11.919
10208SOL    HW132521   7.946  10.186  11.989
10208SOL    HW232522   8.035  10.220  11.872
10209SOL     OW32523  14.381   5.743   4.821
10209SOL    HW132524  14.363   5.656   4.857
10209SOL    HW232525  14.310   5.757   4.758
10210SOL     OW32526  10.813   9.426   6.211
10210SOL    HW132527  10.865   9.374   6.150
10210SOL    HW232528  10.856   9.412   6.296
10211SOL     OW32529   7.844   2.547   2.440
10211SOL    HW132530   7.883   2.461   2.450
10211SOL    HW232531   7.902   2.594   2.381
10212SOL     OW32532   6.452   4.149   7.381
10212SOL    HW132533   6.534   4.115   7.346
10212SOL    HW232534   6.405   4.181   7.304
10213SOL     OW32535  12.862   5.051   2.214
10213SOL    HW132536  12.925   5.055   2.142
10213SOL    HW232537  12.916   5.060   2.293
10214SOL     OW32538  13.794  11.537   8.445
10214SOL    HW132539  13.738  11.517   8.520
10214SOL    HW232540  13.841  11.456   8.428
10215SOL     OW32541  11.026   5.678  13.488
10215SOL    HW132542  11.112   5.649  13.516
10215SOL    HW232543  11.042   5.723  13.404
10216SOL     OW32544   6.617   0.547   1.454
10216SOL    HW132545   6.707   0.519   1.435
10216SOL    HW232546   6.625   0.641   1.473
10217SOL     OW32547   0.960   2.118  13.486
10217SOL    HW132548   0.912   2.080  13.559
10217SOL    HW232549   1.052   2.098  13.505
10218SOL     OW32550   4.882   3.034   3.673
10218SOL    HW132551   4.929   2.951   3.673
10218SOL    HW232552   4.901   3.073   3.587
10219SOL     OW32553   0.901   3.178  10.125
10219SOL    HW132554   0.985   3.200  10.167
10219SOL    HW232555   0.919   3.188  10.031
10220SOL     OW32556  13.984  12.555  13.633
10220SOL    HW132557  14.023  12.581  13.717
10220SOL    HW232558  13.902  12.512  13.657
10221SOL     OW32559  10.359  12.590  10.998
10221SOL    HW132560  10.332  12.631  11.080
10221SOL    HW232561  10.452  12.612  10.990
10222SOL     OW32562   2.839   4.018   2.970
10222SOL    HW132563   2.889   3.974   2.901
10222SOL    HW232564   2.905   4.058   3.026
10223SOL     OW32565   1.571   4.776  13.201
10223SOL    HW132566   1.558   4.807  13.290
10223SOL    HW232567   1.493   4.724  13.182
10224SOL     OW32568   5.101   2.267   4.369
10224SOL    HW132569   5.137   2.352   4.394
10224SOL    HW232570   5.113   2.212   4.447
10225SOL     OW32571  14.705   2.758   0.679
10225SOL    HW132572  14.690   2.729   0.589
10225SOL    HW232573  14.621   2.743   0.723
10226SOL     OW32574  12.862  10.635  10.029
10226SOL    HW132575  12.769  10.619  10.015
10226SOL    HW232576  12.893  10.671   9.946
10227SOL     OW32577  14.384   3.729  11.756
10227SOL    HW132578  14.468   3.719  11.801
10227SOL    HW232579  14.356   3.818  11.777
10228SOL     OW32580  13.004  11.451   4.822
10228SOL    HW132581  13.022  11.461   4.915
10228SOL    HW232582  13.054  11.374   4.796
10229SOL     OW32583  13.879   0.166   1.170
10229SOL    HW132584  13.818   0.175   1.243
10229SOL    HW232585  13.861   0.241   1.114
10230SOL     OW32586  12.009  10.644   3.761
10230SOL    HW132587  12.040  10.726   3.722
10230SOL    HW232588  12.022  10.657   3.855
10231SOL     OW32589  11.985  12.783  12.752
10231SOL    HW132590  11.906  12.836  12.764
10231SOL    HW232591  12.043  12.838  12.700
10232SOL     OW32592   1.658   4.280  10.215
10232SOL    HW132593   1.650   4.226  10.137
10232SOL    HW232594   1.749   4.268  10.244
10233SOL     OW32595   7.888  12.404   4.340
10233SOL    HW132596   7.893  12.353   4.259
10233SOL    HW232597   7.808  12.372   4.383
10234SOL     OW32598   8.637   8.191   0.741
10234SOL    HW132599   8.627   8.286   0.748
10234SOL    HW232600   8.589   8.156   0.816
10235SOL     OW32601   5.200  12.527   4.125
10235SOL    HW132602   5.211  12.445   4.077
10235SOL    HW232603   5.194  12.594   4.057
10236SOL     OW32604  12.844   0.759   4.233
10236SOL    HW132605  12.879   0.766   4.322
10236SOL    HW232606  12.921   0.744   4.178
10237SOL     OW32607   7.065   2.411   6.827
10237SOL    HW132608   7.076   2.495   6.783
10237SOL    HW232609   7.050   2.433   6.919
10238SOL     OW32610   4.059   0.749  13.288
10238SOL    HW132611   3.971   0.764  13.252
10238SOL    HW232612   4.116   0.744  13.211
10239SOL     OW32613  14.575   3.901   7.570
10239SOL    HW132614  14.591   3.912   7.477
10239SOL    HW232615  14.635   3.961   7.613
10240SOL     OW32616   0.320   5.973   1.509
10240SOL    HW132617   0.237   5.934   1.536
10240SOL    HW232618   0.327   6.053   1.560
10241SOL     OW32619   4.625   2.641  10.585
10241SOL    HW132620   4.666   2.726  10.566
10241SOL    HW232621   4.559   2.661  10.651
10242SOL     OW32622   6.984  11.832   1.206
10242SOL    HW132623   7.073  11.820   1.239
10242SOL    HW232624   6.928  11.812   1.281
10243SOL     OW32625   7.026   0.507  12.688
10243SOL    HW132626   7.052   0.534  12.776
10243SOL    HW232627   6.978   0.425  12.701
10244SOL     OW32628   6.631   2.092   5.853
10244SOL    HW132629   6.615   1.998   5.858
10244SOL    HW232630   6.725   2.099   5.836
10245SOL     OW32631   1.204   7.592   4.149
10245SOL    HW132632   1.162   7.623   4.069
10245SOL    HW232633   1.230   7.502   4.130
10246SOL     OW32634   3.594   7.858  10.097
10246SOL    HW132635   3.501   7.848  10.113
10246SOL    HW232636   3.600   7.899  10.010
10247SOL     OW32637  13.808  12.907  13.338
10247SOL    HW132638  13.731  12.917  13.393
10247SOL    HW232639  13.858  12.836  13.379
10248SOL     OW32640   9.586   4.331   5.815
10248SOL    HW132641   9.513   4.361   5.871
10248SOL    HW232642   9.652   4.399   5.825
10249SOL     OW32643   7.504   4.616  11.889
10249SOL    HW132644   7.424   4.594  11.841
10249SOL    HW232645   7.479   4.685  11.949
10250SOL     OW32646   7.434  14.824  10.022
10250SOL    HW132647   7.456   0.045  10.008
10250SOL    HW232648   7.346  14.814   9.986
10251SOL     OW32649   9.757  10.316   1.640
10251SOL    HW132650   9.708  10.347   1.564
10251SOL    HW232651   9.712  10.234   1.665
10252SOL     OW32652   6.329   2.176  12.777
10252SOL    HW132653   6.374   2.249  12.735
10252SOL    HW232654   6.238   2.182  12.747
10253SOL     OW32655   2.231  10.591   7.900
10253SOL    HW132656   2.291  10.631   7.838
10253SOL    HW232657   2.144  10.612   7.866
10254SOL     OW32658   2.534   7.966  10.892
10254SOL    HW132659   2.521   7.962  10.797
10254SOL    HW232660   2.628   7.955  10.904
10255SOL     OW32661  12.295   8.799   1.164
10255SOL    HW132662  12.346   8.761   1.235
10255SOL    HW232663  12.217   8.835   1.206
10256SOL     OW32664   3.682   2.406  10.270
10256SOL    HW132665   3.715   2.316  10.264
10256SOL    HW232666   3.761   2.461  10.270
10257SOL     OW32667   5.914   6.593  13.352
10257SOL    HW132668   5.909   6.546  13.435
10257SOL    HW232669   5.959   6.533  13.292
10258SOL     OW32670  12.859   1.038   9.332
10258SOL    HW132671  12.933   1.065   9.387
10258SOL    HW232672  12.808   0.979   9.387
10259SOL     OW32673   1.740  13.014   8.017
10259SOL    HW132674   1.749  13.102   7.979
10259SOL    HW232675   1.705  12.961   7.946
10260SOL     OW32676   6.884  10.402   9.034
10260SOL    HW132677   6.886  10.415   9.129
10260SOL    HW232678   6.796  10.430   9.008
10261SOL     OW32679   1.797   1.913  11.840
10261SOL    HW132680   1.775   1.821  11.850
10261SOL    HW232681   1.726   1.949  11.787
10262SOL     OW32682   9.348   8.304   6.009
10262SOL    HW132683   9.393   8.230   6.050
10262SOL    HW232684   9.255   8.285   6.022
10263SOL     OW32685   9.906   8.536   5.712
10263SOL    HW132686   9.822   8.566   5.676
10263SOL    HW232687   9.970   8.554   5.643
10264SOL     OW32688   9.345   3.077  14.334
10264SOL    HW132689   9.273   3.017  14.321
10264SOL    HW232690   9.368   3.068  14.426
10265SOL     OW32691   2.305   7.149   9.315
10265SOL    HW132692   2.278   7.174   9.403
10265SOL    HW232693   2.283   7.225   9.261
10266SOL     OW32694  10.804   4.472   8.414
10266SOL    HW132695  10.802   4.488   8.320
10266SOL    HW232696  10.890   4.433   8.430
10267SOL     OW32697   0.407   9.536   4.397
10267SOL    HW132698   0.499   9.527   4.372
10267SOL    HW232699   0.405   9.616   4.449
10268SOL     OW32700   7.505   9.172   8.301
10268SOL    HW132701   7.567   9.108   8.263
10268SOL    HW232702   7.446   9.119   8.354
10269SOL     OW32703   9.244   1.536   9.837
10269SOL    HW132704   9.272   1.527   9.746
10269SOL    HW232705   9.276   1.458   9.881
10270SOL     OW32706   3.182   2.030   4.663
10270SOL    HW132707   3.104   2.027   4.717
10270SOL    HW232708   3.173   1.955   4.604
10271SOL     OW32709   2.005   3.462   0.345
10271SOL    HW132710   2.050   3.433   0.424
10271SOL    HW232711   2.022   3.556   0.341
10272SOL     OW32712  11.841   8.243  12.489
10272SOL    HW132713  11.786   8.251  12.567
10272SOL    HW232714  11.808   8.165  12.445
10273SOL     OW32715  11.120   3.080  13.443
10273SOL    HW132716  11.148   3.121  13.361
10273SOL    HW232717  11.200   3.074  13.495
10274SOL     OW32718   5.917   8.756  12.193
10274SOL    HW132719   5.887   8.754  12.103
10274SOL    HW232720   5.862   8.822  12.236
10275SOL     OW32721   7.031   5.215   5.812
10275SOL    HW132722   6.946   5.246   5.844
10275SOL    HW232723   7.032   5.122   5.833
10276SOL     OW32724  11.751   9.788  12.565
10276SOL    HW132725  11.846   9.775  12.564
10276SOL    HW232726  11.724   9.781  12.474
10277SOL     OW32727   8.172   0.321   0.341
10277SOL    HW132728   8.264   0.321   0.316
10277SOL    HW232729   8.173   0.309   0.436
10278SOL     OW32730   0.947   2.939  11.192
10278SOL    HW132731   1.023   2.909  11.142
10278SOL    HW232732   0.948   2.885  11.271
10279SOL     OW32733   9.820   6.238   5.196
10279SOL    HW132734   9.763   6.188   5.138
10279SOL    HW232735   9.895   6.180   5.210
10280SOL     OW32736   1.748   0.767  12.695
10280SOL    HW132737   1.709   0.687  12.728
10280SOL    HW232738   1.767   0.749  12.603
10281SOL     OW32739  13.586   1.288   1.797
10281SOL    HW132740  13.659   1.328   1.751
10281SOL    HW232741  13.599   1.194   1.784
10282SOL     OW32742  12.770  13.128   4.452
10282SOL    HW132743  12.741  13.045   4.488
10282SOL    HW232744  12.744  13.193   4.517
10283SOL     OW32745   9.605  10.312   5.584
10283SOL    HW132746   9.551  10.263   5.522
10283SOL    HW232747   9.638  10.245   5.644
10284SOL     OW32748  11.857   3.840  10.414
10284SOL    HW132749  11.845   3.912  10.476
10284SOL    HW232750  11.842   3.880  10.329
10285SOL     OW32751  12.174   9.645   9.826
10285SOL    HW132752  12.221   9.655   9.909
10285SOL    HW232753  12.232   9.591   9.773
10286SOL     OW32754   7.517  12.808   1.560
10286SOL    HW132755   7.441  12.754   1.535
10286SOL    HW232756   7.490  12.853   1.639
10287SOL     OW32757   2.353  14.270  14.443
10287SOL    HW132758   2.368  14.224  14.361
10287SOL    HW232759   2.416  14.232  14.504
10288SOL     OW32760   2.108   7.377  13.887
10288SOL    HW132761   2.065   7.450  13.842
10288SOL    HW232762   2.098   7.397  13.980
10289SOL     OW32763   5.000   7.837   1.776
10289SOL    HW132764   4.935   7.809   1.840
10289SOL    HW232765   4.954   7.838   1.693
10290SOL     OW32766   5.409   7.362  10.895
10290SOL    HW132767   5.325   7.370  10.850
10290SOL    HW232768   5.442   7.452  10.899
10291SOL     OW32769   7.934   1.558  14.068
10291SOL    HW132770   7.841   1.537  14.070
10291SOL    HW232771   7.939   1.649  14.097
10292SOL     OW32772   6.207   6.453   3.508
10292SOL    HW132773   6.186   6.387   3.442
10292SOL    HW232774   6.147   6.435   3.580
10293SOL     OW32775  14.531   7.201  10.409
10293SOL    HW132776  14.612   7.174  10.366
10293SOL    HW232777  14.462   7.182  10.345
10294SOL     OW32778   5.342   1.012   8.597
10294SOL    HW132779   5.270   0.953   8.574
10294SOL    HW232780   5.354   1.067   8.520
10295SOL     OW32781  12.716   6.903   6.171
10295SOL    HW132782  12.728   6.986   6.217
10295SOL    HW232783  12.624   6.905   6.143
10296SOL     OW32784   5.501   3.046  11.044
10296SOL    HW132785   5.420   3.092  11.024
10296SOL    HW232786   5.533   3.088  11.124
10297SOL     OW32787   3.177  13.494   9.284
10297SOL    HW132788   3.147  13.447   9.207
10297SOL    HW232789   3.267  13.519   9.262
10298SOL     OW32790   9.371   4.362   2.778
10298SOL    HW132791   9.401   4.449   2.753
10298SOL    HW232792   9.348   4.320   2.694
10299SOL     OW32793  14.496  13.298   3.857
10299SOL    HW132794  14.560  13.351   3.905
10299SOL    HW232795  14.538  13.213   3.848
10300SOL     OW32796  10.969   6.796   1.655
10300SOL    HW132797  10.969   6.701   1.667
10300SOL    HW232798  11.051   6.816   1.611
10301SOL     OW32799  10.270  12.359   9.542
10301SOL    HW132800  10.346  12.399   9.583
10301SOL    HW232801  10.305  12.315   9.464
10302SOL     OW32802   6.118  11.960  10.901
10302SOL    HW132803   6.197  11.996  10.941
10302SOL    HW232804   6.074  11.913  10.971
10303SOL     OW32805   8.437   2.903   5.362
10303SOL    HW132806   8.410   2.837   5.426
10303SOL    HW232807   8.355   2.945   5.336
10304SOL     OW32808   5.437  13.119  13.841
10304SOL    HW132809   5.465  13.056  13.908
10304SOL    HW232810   5.407  13.064  13.769
10305SOL     OW32811   5.544  13.534   4.763
10305SOL    HW132812   5.580  13.484   4.689
10305SOL    HW232813   5.572  13.624   4.746
10306SOL     OW32814  10.829   1.134   9.134
10306SOL    HW132815  10.775   1.059   9.110
10306SOL    HW232816  10.788   1.169   9.213
10307SOL     OW32817  12.630  13.876   5.973
10307SOL    HW132818  12.613  13.798   5.920
10307SOL    HW232819  12.708  13.916   5.934
10308SOL     OW32820   9.954   5.059   8.078
10308SOL    HW132821   9.957   4.977   8.028
10308SOL    HW232822   9.909   5.121   8.020
10309SOL     OW32823   1.616   4.096   8.009
10309SOL    HW132824   1.611   4.024   8.072
10309SOL    HW232825   1.539   4.085   7.953
10310SOL     OW32826   3.196   8.988   6.735
10310SOL    HW132827   3.292   8.998   6.736
10310SOL    HW232828   3.167   9.030   6.816
10311SOL     OW32829   4.461   7.460   8.461
10311SOL    HW132830   4.517   7.430   8.533
10311SOL    HW232831   4.513   7.525   8.415
10312SOL     OW32832  13.724   9.506   4.266
10312SOL    HW132833  13.753   9.420   4.235
10312SOL    HW232834  13.764   9.569   4.207
10313SOL     OW32835   3.125   2.005   9.736
10313SOL    HW132836   3.176   1.986   9.657
10313SOL    HW232837   3.104   2.098   9.729
10314SOL     OW32838  11.189   1.591  10.078
10314SOL    HW132839  11.101   1.615  10.050
10314SOL    HW232840  11.193   1.496  10.066
10315SOL     OW32841  11.516   2.380   6.810
10315SOL    HW132842  11.467   2.327   6.873
10315SOL    HW232843  11.587   2.323   6.781
10316SOL     OW32844   3.042  14.088   0.093
10316SOL    HW132845   2.990  14.065   0.016
10316SOL    HW232846   3.001  14.168   0.126
10317SOL     OW32847   9.108   8.988   9.409
10317SOL    HW132848   9.135   9.011   9.320
10317SOL    HW232849   9.018   8.959   9.401
10318SOL     OW32850  10.711  11.354  11.123
10318SOL    HW132851  10.653  11.307  11.063
10318SOL    HW232852  10.792  11.365  11.074
10319SOL     OW32853   3.665  14.866   8.109
10319SOL    HW132854   3.655   0.084   8.140
10319SOL    HW232855   3.578  14.828   8.117
10320SOL     OW32856   2.713   1.289   1.889
10320SOL    HW132857   2.650   1.235   1.936
10320SOL    HW232858   2.659   1.355   1.844
10321SOL     OW32859  13.419  12.616   3.873
10321SOL    HW132860  13.507  12.636   3.906
10321SOL    HW232861  13.363  12.681   3.915
10322SOL     OW32862  10.331   7.331  13.174
10322SOL    HW132863  10.393   7.299  13.240
10322SOL    HW232864  10.275   7.393  13.221
10323SOL     OW32865  10.648   6.603  10.811
10323SOL    HW132866  10.704   6.662  10.759
10323SOL    HW232867  10.647   6.521  10.761
10324SOL     OW32868   1.994   9.752   3.556
10324SOL    HW132869   1.923   9.804   3.520
10324SOL    HW232870   1.954   9.667   3.575
10325SOL     OW32871   9.387   0.968   5.369
10325SOL    HW132872   9.318   1.015   5.415
10325SOL    HW232873   9.466   0.987   5.419
10326SOL     OW32874   1.742   4.567   3.584
10326SOL    HW132875   1.776   4.655   3.598
10326SOL    HW232876   1.696   4.545   3.665
10327SOL     OW32877   9.903   0.004   3.518
10327SOL    HW132878   9.853  14.795   3.524
10327SOL    HW232879   9.845   0.065   3.472
10328SOL     OW32880   9.246   3.001   0.379
10328SOL    HW132881   9.206   3.025   0.463
10328SOL    HW232882   9.218   2.911   0.363
10329SOL     OW32883   9.399   0.279  13.646
10329SOL    HW132884   9.345   0.345  13.690
10329SOL    HW232885   9.479   0.326  13.622
10330SOL     OW32886   8.589   1.029   2.468
10330SOL    HW132887   8.640   1.032   2.549
10330SOL    HW232888   8.587   0.936   2.444
10331SOL     OW32889   2.337   8.841   3.389
10331SOL    HW132890   2.317   8.854   3.297
10331SOL    HW232891   2.263   8.789   3.423
10332SOL     OW32892   7.485   6.312   4.888
10332SOL    HW132893   7.549   6.261   4.938
10332SOL    HW232894   7.426   6.348   4.955
10333SOL     OW32895  12.044  10.887  11.515
10333SOL    HW132896  11.964  10.916  11.471
10333SOL    HW232897  12.034  10.792  11.523
10334SOL     OW32898  13.338  14.044  13.087
10334SOL    HW132899  13.314  14.006  13.003
10334SOL    HW232900  13.256  14.051  13.135
10335SOL     OW32901  10.182   3.076  14.708
10335SOL    HW132902  10.245   3.025  14.758
10335SOL    HW232903  10.231   3.154  14.679
10336SOL     OW32904   9.927  13.372   1.418
10336SOL    HW132905   9.878  13.330   1.348
10336SOL    HW232906   9.861  13.409   1.476
10337SOL     OW32907   7.145  12.960   4.778
10337SOL    HW132908   7.141  12.949   4.873
10337SOL    HW232909   7.225  13.011   4.763
10338SOL     OW32910  13.910  14.154  11.178
10338SOL    HW132911  13.818  14.128  11.176
10338SOL    HW232912  13.941  14.139  11.089
10339SOL     OW32913   8.532   3.888   9.365
10339SOL    HW132914   8.536   3.957   9.299
10339SOL    HW232915   8.522   3.807   9.315
10340SOL     OW32916  10.252   7.483   2.906
10340SOL    HW132917  10.260   7.395   2.867
10340SOL    HW232918  10.223   7.466   2.995
10341SOL     OW32919   1.674  13.725  14.112
10341SOL    HW132920   1.735  13.768  14.052
10341SOL    HW232921   1.629  13.797  14.156
10342SOL     OW32922   9.395  12.755  10.237
10342SOL    HW132923   9.368  12.838  10.197
10342SOL    HW232924   9.380  12.690  10.169
10343SOL     OW32925  10.611   3.448  14.145
10343SOL    HW132926  10.694   3.430  14.101
10343SOL    HW232927  10.553   3.479  14.075
10344SOL     OW32928  12.411  13.630  14.361
10344SOL    HW132929  12.482  13.650  14.300
10344SOL    HW232930  12.409  13.704  14.421
10345SOL     OW32931   2.548   9.627  12.169
10345SOL    HW132932   2.589   9.671  12.095
10345SOL    HW232933   2.613   9.563  12.198
10346SOL     OW32934   0.909   2.469  11.487
10346SOL    HW132935   0.940   2.482  11.398
10346SOL    HW232936   0.841   2.535  11.500
10347SOL     OW32937  14.627   5.429  11.132
10347SOL    HW132938  14.562   5.413  11.200
10347SOL    HW232939  14.649   5.522  11.141
10348SOL     OW32940  13.611   5.820   7.369
10348SOL    HW132941  13.560   5.762   7.312
10348SOL    HW232942  13.694   5.775   7.382
10349SOL     OW32943   2.020   8.425   5.792
10349SOL    HW132944   2.042   8.378   5.872
10349SOL    HW232945   2.104   8.458   5.760
10350SOL     OW32946   3.591   9.307   8.826
10350SOL    HW132947   3.601   9.401   8.809
10350SOL    HW232948   3.651   9.265   8.764
10351SOL     OW32949   5.941   8.252   1.362
10351SOL    HW132950   5.867   8.207   1.403
10351SOL    HW232951   6.018   8.209   1.399
10352SOL     OW32952   6.289   7.699   5.098
10352SOL    HW132953   6.334   7.672   5.177
10352SOL    HW232954   6.348   7.762   5.057
10353SOL     OW32955   4.139  10.440  13.756
10353SOL    HW132956   4.142  10.372  13.688
10353SOL    HW232957   4.212  10.419  13.814
10354SOL     OW32958  13.837  10.112   0.212
10354SOL    HW132959  13.922  10.156   0.209
10354SOL    HW232960  13.790  10.144   0.135
10355SOL     OW32961  14.107   7.583   1.932
10355SOL    HW132962  14.134   7.609   1.844
10355SOL    HW232963  14.146   7.496   1.945
10356SOL     OW32964   0.328   3.059   8.527
10356SOL    HW132965   0.327   3.150   8.554
10356SOL    HW232966   0.360   3.060   8.437
10357SOL     OW32967   3.109   3.189  10.468
10357SOL    HW132968   3.124   3.266  10.412
10357SOL    HW232969   3.183   3.188  10.528
10358SOL     OW32970   3.749   3.262   3.550
10358SOL    HW132971   3.734   3.284   3.642
10358SOL    HW232972   3.778   3.344   3.510
10359SOL     OW32973  10.539   2.217   6.047
10359SOL    HW132974  10.496   2.168   5.977
10359SOL    HW232975  10.629   2.184   6.046
10360SOL     OW32976   9.539   8.725  10.739
10360SOL    HW132977   9.481   8.799  10.720
10360SOL    HW232978   9.486   8.665  10.791
10361SOL     OW32979   7.290  10.482   6.566
10361SOL    HW132980   7.353  10.489   6.637
10361SOL    HW232981   7.211  10.445   6.606
10362SOL     OW32982   9.290  11.781  13.235
10362SOL    HW132983   9.240  11.759  13.313
10362SOL    HW232984   9.381  11.784  13.265
10363SOL     OW32985   2.553   7.671   7.379
10363SOL    HW132986   2.635   7.675   7.428
10363SOL    HW232987   2.497   7.614   7.432
10364SOL     OW32988   1.542  10.900   8.543
10364SOL    HW132989   1.637  10.908   8.552
10364SOL    HW232990   1.517  10.971   8.484
10365SOL     OW32991  11.293   1.765   0.039
10365SOL    HW132992  11.246   1.845   0.015
10365SOL    HW232993  11.229   1.695   0.027
10366SOL     OW32994   8.152   2.050   2.373
10366SOL    HW132995   8.165   2.104   2.451
10366SOL    HW232996   8.117   1.968   2.407
10367SOL     OW32997   2.575  14.047   1.727
10367SOL    HW132998   2.637  14.038   1.654
10367SOL    HW232999   2.571  14.141   1.744
10368SOL     OW33000  14.406   1.225   6.512
10368SOL    HW133001  14.395   1.132   6.494
10368SOL    HW233002  14.464   1.228   6.587
10369SOL     OW33003   6.757  14.354   3.832
10369SOL    HW133004   6.723  14.337   3.920
10369SOL    HW233005   6.680  14.382   3.782
10370SOL     OW33006  11.493  13.671   1.554
10370SOL    HW133007  11.436  13.677   1.477
10370SOL    HW233008  11.464  13.591   1.599
10371SOL     OW33009   2.538  13.727  12.454
10371SOL    HW133010   2.550  13.727  12.549
10371SOL    HW233011   2.481  13.652  12.438
10372SOL     OW33012   2.642   8.936   3.724
10372SOL    HW133013   2.550   8.958   3.743
10372SOL    HW233014   2.686   9.021   3.714
10373SOL     OW33015  12.959   0.193  11.546
10373SOL    HW133016  12.886   0.255  11.536
10373SOL    HW233017  13.033   0.247  11.573
10374SOL     OW33018   9.251  11.345  11.331
10374SOL    HW133019   9.206  11.322  11.412
10374SOL    HW233020   9.190  11.319  11.261
10375SOL     OW33021   6.439   0.620  13.549
10375SOL    HW133022   6.382   0.599  13.623
10375SOL    HW233023   6.482   0.537  13.527
10376SOL     OW33024  11.040  13.571  10.977
10376SOL    HW133025  10.999  13.552  10.892
10376SOL    HW233026  10.993  13.648  11.009
10377SOL     OW33027   5.249   7.703  14.299
10377SOL    HW133028   5.213   7.790  14.281
10377SOL    HW233029   5.250   7.697  14.395
10378SOL     OW33030   6.271  12.573  14.137
10378SOL    HW133031   6.313  12.621  14.067
10378SOL    HW233032   6.315  12.602  14.217
10379SOL     OW33033  12.329  11.781   9.024
10379SOL    HW133034  12.395  11.786   9.094
10379SOL    HW233035  12.266  11.849   9.045
10380SOL     OW33036  12.577   5.722  12.675
10380SOL    HW133037  12.625   5.796  12.711
10380SOL    HW233038  12.521   5.693  12.747
10381SOL     OW33039  13.216  10.523  14.140
10381SOL    HW133040  13.226  10.552  14.050
10381SOL    HW233041  13.150  10.582  14.177
10382SOL     OW33042   0.062   6.802   1.083
10382SOL    HW133043  14.844   6.773   1.102
10382SOL    HW233044   0.058   6.837   0.994
10383SOL     OW33045  13.417   5.312   9.570
10383SOL    HW133046  13.401   5.287   9.661
10383SOL    HW233047  13.467   5.240   9.533
10384SOL     OW33048   0.446   7.540   2.824
10384SOL    HW133049   0.359   7.558   2.789
10384SOL    HW233050   0.482   7.474   2.765
10385SOL     OW33051  11.471   3.198  11.828
10385SOL    HW133052  11.396   3.252  11.855
10385SOL    HW233053  11.506   3.163  11.910
10386SOL     OW33054   6.731  13.364  11.686
10386SOL    HW133055   6.707  13.287  11.635
10386SOL    HW233056   6.816  13.390  11.651
10387SOL     OW33057   8.626   2.375   4.947
10387SOL    HW133058   8.545   2.365   4.898
10387SOL    HW233059   8.615   2.458   4.994
10388SOL     OW33060   4.066   3.156   6.548
10388SOL    HW133061   4.053   3.100   6.625
10388SOL    HW233062   4.000   3.224   6.557
10389SOL     OW33063  12.965   1.223  13.438
10389SOL    HW133064  12.971   1.281  13.514
10389SOL    HW233065  13.037   1.251  13.381
10390SOL     OW33066   3.871   7.405   8.693
10390SOL    HW133067   3.789   7.358   8.711
10390SOL    HW233068   3.886   7.393   8.599
10391SOL     OW33069   7.970   8.122  13.621
10391SOL    HW133070   7.874   8.131  13.619
10391SOL    HW233071   7.985   8.034  13.655
10392SOL     OW33072  12.929   3.497   9.154
10392SOL    HW133073  12.904   3.411   9.122
10392SOL    HW233074  12.859   3.520   9.216
10393SOL     OW33075  11.055  12.003   0.370
10393SOL    HW133076  10.989  11.977   0.306
10393SOL    HW233077  11.124  11.937   0.361
10394SOL     OW33078   2.576  12.800   6.581
10394SOL    HW133079   2.540  12.847   6.656
10394SOL    HW233080   2.509  12.736   6.558
10395SOL     OW33081   5.694  10.544   0.845
10395SOL    HW133082   5.621  10.543   0.907
10395SOL    HW233083   5.694  10.633   0.810
10396SOL     OW33084  14.158   7.154   6.863
10396SOL    HW133085  14.082   7.193   6.905
10396SOL    HW233086  14.204   7.109   6.934
10397SOL     OW33087   7.279   2.132   6.100
10397SOL    HW133088   7.317   2.130   6.188
10397SOL    HW233089   7.354   2.123   6.041
10398SOL     OW33090   3.007   6.028   2.280
10398SOL    HW133091   3.096   6.041   2.247
10398SOL    HW233092   2.973   6.117   2.292
10399SOL     OW33093   9.293  13.746  13.639
10399SOL    HW133094   9.354  13.784  13.575
10399SOL    HW233095   9.294  13.652  13.619
10400SOL     OW33096   8.040   1.846   0.205
10400SOL    HW133097   8.023   1.774   0.145
10400SOL    HW233098   8.100   1.903   0.158
10401SOL     OW33099   9.434   5.786   6.853
10401SOL    HW133100   9.487   5.865   6.851
10401SOL    HW233101   9.491   5.718   6.815
10402SOL     OW33102  12.322   7.702   1.487
10402SOL    HW133103  12.228   7.720   1.495
10402SOL    HW233104  12.328   7.610   1.465
10403SOL     OW33105  11.940   4.958   3.107
10403SOL    HW133106  11.885   4.937   3.183
10403SOL    HW233107  12.030   4.948   3.139
10404SOL     OW33108  12.384   1.736  10.032
10404SOL    HW133109  12.420   1.741  10.121
10404SOL    HW233110  12.384   1.827  10.002
10405SOL     OW33111  11.901  11.908   1.371
10405SOL    HW133112  11.814  11.948   1.383
10405SOL    HW233113  11.883  11.818   1.346
10406SOL     OW33114   9.646  14.231   6.055
10406SOL    HW133115   9.608  14.145   6.041
10406SOL    HW233116   9.740  14.216   6.056
10407SOL     OW33117  11.352   2.120   3.568
10407SOL    HW133118  11.407   2.147   3.642
10407SOL    HW233119  11.389   2.035   3.542
10408SOL     OW33120   7.224  11.417   5.481
10408SOL    HW133121   7.175  11.358   5.423
10408SOL    HW233122   7.279  11.469   5.421
10409SOL     OW33123   3.274  11.501   1.287
10409SOL    HW133124   3.202  11.548   1.330
10409SOL    HW233125   3.292  11.428   1.346
10410SOL     OW33126   8.170   5.227   0.281
10410SOL    HW133127   8.215   5.287   0.341
10410SOL    HW233128   8.239   5.176   0.241
10411SOL     OW33129   3.897   4.571   6.507
10411SOL    HW133130   3.824   4.544   6.450
10411SOL    HW233131   3.872   4.540   6.594
10412SOL     OW33132  11.525   4.106   7.800
10412SOL    HW133133  11.555   4.164   7.731
10412SOL    HW233134  11.437   4.136   7.822
10413SOL     OW33135   7.190  11.361   3.766
10413SOL    HW133136   7.259  11.377   3.702
10413SOL    HW233137   7.130  11.435   3.754
10414SOL     OW33138  13.158  10.550   9.542
10414SOL    HW133139  13.184  10.637   9.514
10414SOL    HW233140  13.239  10.498   9.535
10415SOL     OW33141  13.108  14.264  10.263
10415SOL    HW133142  13.101  14.181  10.310
10415SOL    HW233143  13.070  14.329  10.322
10416SOL     OW33144   3.317   4.774  14.005
10416SOL    HW133145   3.381   4.759  13.935
10416SOL    HW233146   3.332   4.703  14.066
10417SOL     OW33147  10.805   8.996  13.484
10417SOL    HW133148  10.867   8.923  13.483
10417SOL    HW233149  10.802   9.026  13.393
10418SOL     OW33150   8.768  12.813   1.540
10418SOL    HW133151   8.817  12.753   1.596
10418SOL    HW233152   8.786  12.783   1.451
10419SOL     OW33153   2.642   1.127  12.688
10419SOL    HW133154   2.582   1.171  12.749
10419SOL    HW233155   2.645   1.037  12.719
10420SOL     OW33156  13.528   6.845   3.532
10420SOL    HW133157  13.538   6.750   3.533
10420SOL    HW233158  13.537   6.871   3.623
10421SOL     OW33159   8.582   1.712   6.862
10421SOL    HW133160   8.594   1.794   6.814
10421SOL    HW233161   8.612   1.731   6.951
10422SOL     OW33162   4.163  13.605   3.663
10422SOL    HW133163   4.208  13.550   3.727
10422SOL    HW233164   4.231  13.626   3.598
10423SOL     OW33165   7.159   4.277   6.604
10423SOL    HW133166   7.090   4.334   6.639
10423SOL    HW233167   7.195   4.325   6.530
10424SOL     OW33168   2.642  12.716  10.383
10424SOL    HW133169   2.696  12.795  10.390
10424SOL    HW233170   2.597  12.710  10.468
10425SOL     OW33171   9.424  11.991   4.755
10425SOL    HW133172   9.455  11.910   4.795
10425SOL    HW233173   9.408  11.968   4.664
10426SOL     OW33174   6.289  12.602   9.875
10426SOL    HW133175   6.314  12.594   9.783
10426SOL    HW233176   6.249  12.518   9.896
10427SOL     OW33177   6.349   3.827  13.652
10427SOL    HW133178   6.355   3.783  13.567
10427SOL    HW233179   6.319   3.759  13.713
10428SOL     OW33180  10.362  10.414   7.557
10428SOL    HW133181  10.331  10.331   7.521
10428SOL    HW233182  10.407  10.390   7.638
10429SOL     OW33183   2.234  11.671   8.970
10429SOL    HW133184   2.244  11.740   9.036
10429SOL    HW233185   2.141  11.675   8.946
10430SOL     OW33186  13.672  11.642   2.411
10430SOL    HW133187  13.617  11.720   2.416
10430SOL    HW233188  13.694  11.635   2.318
10431SOL     OW33189   4.343   0.064   4.031
10431SOL    HW133190   4.352   0.091   4.122
10431SOL    HW233191   4.279  14.865   4.033
10432SOL     OW33192   0.268  11.465   9.123
10432SOL    HW133193   0.212  11.469   9.201
10432SOL    HW233194   0.349  11.508   9.149
10433SOL     OW33195   8.303  11.122   7.426
10433SOL    HW133196   8.389  11.105   7.387
10433SOL    HW233197   8.306  11.080   7.511
10434SOL     OW33198   8.029  12.311   4.003
10434SOL    HW133199   8.110  12.260   3.993
10434SOL    HW233200   7.978  12.262   4.068
10435SOL     OW33201   5.020   3.648   4.195
10435SOL    HW133202   5.025   3.558   4.227
10435SOL    HW233203   4.926   3.667   4.195
10436SOL     OW33204  13.709   7.714   8.310
10436SOL    HW133205  13.767   7.703   8.235
10436SOL    HW233206  13.763   7.754   8.378
10437SOL     OW33207   6.776  12.452   6.652
10437SOL    HW133208   6.718  12.399   6.707
10437SOL    HW233209   6.863  12.415   6.668
10438SOL     OW33210  12.914  13.487   1.166
10438SOL    HW133211  12.922  13.561   1.105
10438SOL    HW233212  12.988  13.430   1.144
10439SOL     OW33213   1.308   2.743  10.549
10439SOL    HW133214   1.282   2.833  10.528
10439SOL    HW233215   1.389   2.752  10.597
10440SOL     OW33216   2.752   5.759   9.149
10440SOL    HW133217   2.828   5.792   9.100
10440SOL    HW233218   2.788   5.727   9.231
10441SOL     OW33219   7.791   2.220   0.414
10441SOL    HW133220   7.724   2.162   0.451
10441SOL    HW233221   7.815   2.178   0.331
10442SOL     OW33222   2.939   2.168   1.383
10442SOL    HW133223   2.902   2.088   1.345
10442SOL    HW233224   2.880   2.238   1.357
10443SOL     OW33225   9.128   5.128   4.558
10443SOL    HW133226   9.087   5.085   4.633
10443SOL    HW233227   9.175   5.202   4.595
10444SOL     OW33228   6.642   2.575  10.830
10444SOL    HW133229   6.712   2.515  10.805
10444SOL    HW233230   6.686   2.643  10.881
10445SOL     OW33231   8.021   3.183  14.240
10445SOL    HW133232   8.025   3.186  14.335
10445SOL    HW233233   7.937   3.142  14.220
10446SOL     OW33234  12.747   3.082   2.232
10446SOL    HW133235  12.787   3.068   2.146
10446SOL    HW233236  12.819   3.073   2.294
10447SOL     OW33237   5.602   4.482   3.988
10447SOL    HW133238   5.674   4.489   4.051
10447SOL    HW233239   5.616   4.398   3.945
10448SOL     OW33240   1.706   9.016  12.673
10448SOL    HW133241   1.687   9.080  12.604
10448SOL    HW233242   1.726   9.069  12.750
10449SOL     OW33243  12.617  14.142   6.724
10449SOL    HW133244  12.556  14.162   6.653
10449SOL    HW233245  12.599  14.210   6.790
10450SOL     OW33246   3.821   5.582  13.418
10450SOL    HW133247   3.887   5.516  13.397
10450SOL    HW233248   3.783   5.606  13.334
10451SOL     OW33249  13.125   8.113   1.590
10451SOL    HW133250  13.171   8.197   1.598
10451SOL    HW233251  13.033   8.137   1.584
10452SOL     OW33252   6.420   7.040   8.661
10452SOL    HW133253   6.487   7.104   8.684
10452SOL    HW233254   6.401   7.057   8.569
10453SOL     OW33255   4.959  13.049   7.095
10453SOL    HW133256   5.004  12.973   7.058
10453SOL    HW233257   4.949  13.110   7.021
10454SOL     OW33258   8.125   4.756  12.103
10454SOL    HW133259   8.112   4.684  12.164
10454SOL    HW233260   8.179   4.719  12.033
10455SOL     OW33261  13.986  11.776   6.603
10455SOL    HW133262  14.056  11.710   6.602
10455SOL    HW233263  13.979  11.804   6.511
10456SOL     OW33264   4.243  11.613   9.334
10456SOL    HW133265   4.302  11.556   9.383
10456SOL    HW233266   4.176  11.555   9.299
10457SOL     OW33267  14.383  14.430   1.088
10457SOL    HW133268  14.436  14.370   1.037
10457SOL    HW233269  14.337  14.483   1.023
10458SOL     OW33270  11.734   9.338   0.903
10458SOL    HW133271  11.731   9.337   0.999
10458SOL    HW233272  11.777   9.256   0.880
10459SOL     OW33273   9.081  10.272  13.570
10459SOL    HW133274   9.170  10.297  13.546
10459SOL    HW233275   9.060  10.199  13.513
10460SOL     OW33276   2.081   8.979   7.123
10460SOL    HW133277   2.059   9.034   7.198
10460SOL    HW233278   1.997   8.943   7.095
10461SOL     OW33279   7.150   5.366   8.782
10461SOL    HW133280   7.231   5.417   8.782
10461SOL    HW233281   7.116   5.375   8.871
10462SOL     OW33282   8.743   8.386  11.886
10462SOL    HW133283   8.761   8.422  11.799
10462SOL    HW233284   8.806   8.315  11.898
10463SOL     OW33285   9.268  10.409  11.692
10463SOL    HW133286   9.246  10.390  11.783
10463SOL    HW233287   9.240  10.331  11.644
10464SOL     OW33288   0.133   7.805   4.899
10464SOL    HW133289   0.104   7.718   4.927
10464SOL    HW233290   0.170   7.845   4.978
10465SOL     OW33291   4.026   1.820   8.337
10465SOL    HW133292   4.015   1.736   8.292
10465SOL    HW233293   4.076   1.874   8.276
10466SOL     OW33294   9.124  12.034  14.490
10466SOL    HW133295   9.142  12.105  14.551
10466SOL    HW233296   9.032  12.014  14.502
10467SOL     OW33297  13.112   8.644  13.182
10467SOL    HW133298  13.106   8.568  13.123
10467SOL    HW233299  13.153   8.712  13.128
10468SOL     OW33300   8.849  14.580   7.100
10468SOL    HW133301   8.905  14.635   7.045
10468SOL    HW233302   8.892  14.495   7.100
10469SOL     OW33303   1.306   3.333  12.227
10469SOL    HW133304   1.379   3.312  12.285
10469SOL    HW233305   1.346   3.338  12.140
10470SOL     OW33306   7.814  14.711   5.304
10470SOL    HW133307   7.905  14.740   5.294
10470SOL    HW233308   7.818  14.643   5.371
10471SOL     OW33309   6.085  12.065   6.399
10471SOL    HW133310   6.117  12.013   6.472
10471SOL    HW233311   6.007  12.019   6.369
10472SOL     OW33312   5.020   1.154   1.382
10472SOL    HW133313   5.077   1.206   1.438
10472SOL    HW233314   5.038   1.063   1.405
10473SOL     OW33315  13.404   9.212  14.864
10473SOL    HW133316  13.409   9.219   0.088
10473SOL    HW233317  13.469   9.275  14.832
10474SOL     OW33318   5.705  13.197   4.356
10474SOL    HW133319   5.770  13.247   4.306
10474SOL    HW233320   5.643  13.165   4.290
10475SOL     OW33321   8.062   1.403   9.047
10475SOL    HW133322   8.016   1.477   9.007
10475SOL    HW233323   8.095   1.353   8.972
10476SOL     OW33324   7.382  13.775  14.068
10476SOL    HW133325   7.431  13.728  14.001
10476SOL    HW233326   7.381  13.715  14.143
10477SOL     OW33327   9.040  14.653   4.164
10477SOL    HW133328   9.087  14.619   4.240
10477SOL    HW233329   8.951  14.619   4.174
10478SOL     OW33330  14.005   4.542   1.626
10478SOL    HW133331  14.087   4.533   1.578
10478SOL    HW233332  14.006   4.469   1.689
10479SOL     OW33333  13.507  10.699  13.915
10479SOL    HW133334  13.483  10.770  13.974
10479SOL    HW233335  13.548  10.633  13.971
10480SOL     OW33336   1.268  10.357  13.091
10480SOL    HW133337   1.325  10.302  13.146
10480SOL    HW233338   1.258  10.438  13.141
10481SOL     OW33339   3.824  13.274   6.237
10481SOL    HW133340   3.866  13.279   6.150
10481SOL    HW233341   3.750  13.215   6.224
10482SOL     OW33342   3.618   6.036  10.223
10482SOL    HW133343   3.599   5.960  10.168
10482SOL    HW233344   3.538   6.049  10.275
10483SOL     OW33345  10.164   2.058   7.538
10483SOL    HW133346  10.225   1.984   7.545
10483SOL    HW233347  10.217   2.129   7.503
10484SOL     OW33348   4.365  14.483   9.043
10484SOL    HW133349   4.357  14.459   9.136
10484SOL    HW233350   4.301  14.427   8.999
10485SOL     OW33351   7.154   0.531   1.000
10485SOL    HW133352   7.185   0.604   0.946
10485SOL    HW233353   7.197   0.544   1.084
10486SOL     OW33354   5.640   7.621  14.386
10486SOL    HW133355   5.546   7.603  14.388
10486SOL    HW233356   5.678   7.563  14.452
10487SOL     OW33357   6.999   7.319  12.302
10487SOL    HW133358   6.907   7.332  12.323
10487SOL    HW233359   7.019   7.388  12.238
10488SOL     OW33360  13.867   9.407   4.839
10488SOL    HW133361  13.784   9.369   4.868
10488SOL    HW233362  13.843   9.489   4.796
10489SOL     OW33363   5.285   4.732  14.572
10489SOL    HW133364   5.233   4.668  14.524
10489SOL    HW233365   5.371   4.691  14.582
10490SOL     OW33366   7.240   3.920  10.847
10490SOL    HW133367   7.258   3.964  10.930
10490SOL    HW233368   7.324   3.880  10.823
10491SOL     OW33369   9.540   1.109   9.515
10491SOL    HW133370   9.510   1.019   9.501
10491SOL    HW233371   9.602   1.103   9.587
10492SOL     OW33372   2.157  10.256   1.859
10492SOL    HW133373   2.224  10.216   1.804
10492SOL    HW233374   2.074  10.235   1.816
10493SOL     OW33375   9.931  12.008   1.255
10493SOL    HW133376   9.837  12.017   1.270
10493SOL    HW233377   9.940  12.002   1.160
10494SOL     OW33378   5.160  14.453  11.581
10494SOL    HW133379   5.108  14.464  11.661
10494SOL    HW233380   5.101  14.411  11.519
10495SOL     OW33381  14.522  10.431  14.101
10495SOL    HW133382  14.488  10.358  14.152
10495SOL    HW233383  14.584  10.391  14.040
10496SOL     OW33384   3.209   9.503   6.555
10496SOL    HW133385   3.249   9.445   6.619
10496SOL    HW233386   3.178   9.578   6.606
10497SOL     OW33387   6.234   1.345  10.275
10497SOL    HW133388   6.304   1.404  10.248
10497SOL    HW233389   6.273   1.290  10.342
10498SOL     OW33390   2.704   8.422  10.093
10498SOL    HW133391   2.685   8.513  10.116
10498SOL    HW233392   2.771   8.395  10.156
10499SOL     OW33393  14.779   6.893  14.224
10499SOL    HW133394  14.793   6.940  14.142
10499SOL    HW233395  14.777   6.801  14.198
10500SOL     OW33396  10.318  12.102   9.883
10500SOL    HW133397  10.308  12.193   9.913
10500SOL    HW233398  10.331  12.052   9.963
10501SOL     OW33399   3.539   5.708   1.908
10501SOL    HW133400   3.602   5.725   1.978
10501SOL    HW233401   3.457   5.744   1.941
10502SOL     OW33402   8.749  13.049  14.205
10502SOL    HW133403   8.709  13.034  14.290
10502SOL    HW233404   8.722  13.138  14.181
10503SOL     OW33405   7.738  13.676   5.553
10503SOL    HW133406   7.765  13.584   5.544
10503SOL    HW233407   7.737  13.709   5.463
10504SOL     OW33408   4.776   3.079   8.487
10504SOL    HW133409   4.825   3.100   8.407
10504SOL    HW233410   4.686   3.062   8.456
10505SOL     OW33411   7.916  14.546   7.008
10505SOL    HW133412   7.834  14.497   7.008
10505SOL    HW233413   7.891  14.634   7.034
10506SOL     OW33414   7.687  12.920   1.354
10506SOL    HW133415   7.690  12.880   1.441
10506SOL    HW233416   7.599  12.899   1.322
10507SOL     OW33417  14.529  12.029   8.950
10507SOL    HW133418  14.484  12.113   8.962
10507SOL    HW233419  14.603  12.049   8.893
10508SOL     OW33420  11.532   3.677  12.537
10508SOL    HW133421  11.475   3.750  12.560
10508SOL    HW233422  11.531   3.675  12.442
10509SOL     OW33423   8.893  11.321  10.989
10509SOL    HW133424   8.801  11.296  10.991
10509SOL    HW233425   8.915  11.324  10.896
10510SOL     OW33426   7.426  13.172   7.124
10510SOL    HW133427   7.507  13.120   7.127
10510SOL    HW233428   7.409  13.186   7.031
10511SOL     OW33429   0.260   0.543  11.207
10511SOL    HW133430   0.185   0.488  11.228
10511SOL    HW233431   0.228   0.602  11.139
10512SOL     OW33432   0.893  11.637  12.068
10512SOL    HW133433   0.895  11.548  12.033
10512SOL    HW233434   0.815  11.640  12.123
10513SOL     OW33435   2.341  13.158  10.296
10513SOL    HW133436   2.361  13.178  10.204
10513SOL    HW233437   2.423  13.125  10.332
10514SOL     OW33438  10.342   7.719   5.915
10514SOL    HW133439  10.251   7.696   5.897
10514SOL    HW233440  10.392   7.641   5.889
10515SOL     OW33441   0.796   5.512  11.700
10515SOL    HW133442   0.771   5.427  11.664
10515SOL    HW233443   0.883   5.528  11.665
10516SOL     OW33444   3.308  12.127   1.417
10516SOL    HW133445   3.231  12.123   1.474
10516SOL    HW233446   3.382  12.123   1.477
10517SOL     OW33447   1.952  12.663   4.596
10517SOL    HW133448   1.991  12.692   4.514
10517SOL    HW233449   1.955  12.567   4.591
10518SOL     OW33450   3.790  14.154   5.366
10518SOL    HW133451   3.859  14.088   5.375
10518SOL    HW233452   3.751  14.159   5.453
10519SOL     OW33453   8.888  12.220   2.922
10519SOL    HW133454   8.853  12.137   2.954
10519SOL    HW233455   8.944  12.252   2.994
10520SOL     OW33456  11.795   4.596   3.262
10520SOL    HW133457  11.738   4.521   3.273
10520SOL    HW233458  11.818   4.623   3.351
10521SOL     OW33459   5.945   4.700   2.343
10521SOL    HW133460   5.876   4.703   2.276
10521SOL    HW233461   6.001   4.626   2.316
10522SOL     OW33462   9.985   8.035  10.858
10522SOL    HW133463   9.927   8.080  10.796
10522SOL    HW233464  10.037   8.106  10.896
10523SOL     OW33465   8.289   3.857  11.610
10523SOL    HW133466   8.262   3.869  11.701
10523SOL    HW233467   8.218   3.895  11.558
10524SOL     OW33468   1.401  11.074   2.763
10524SOL    HW133469   1.334  11.017   2.726
10524SOL    HW233470   1.418  11.038   2.850
10525SOL     OW33471   7.505   1.775  14.473
10525SOL    HW133472   7.476   1.722  14.398
10525SOL    HW233473   7.554   1.714  14.528
10526SOL     OW33474   9.785   6.468   0.749
10526SOL    HW133475   9.810   6.375   0.754
10526SOL    HW233476   9.738   6.476   0.667
10527SOL     OW33477   5.710   6.033   4.696
10527SOL    HW133478   5.720   5.948   4.739
10527SOL    HW233479   5.794   6.076   4.707
10528SOL     OW33480  11.533  10.571   9.083
10528SOL    HW133481  11.440  10.585   9.067
10528SOL    HW233482  11.536  10.495   9.141
10529SOL     OW33483   2.773   5.208   4.791
10529SOL    HW133484   2.776   5.208   4.887
10529SOL    HW233485   2.716   5.134   4.769
10530SOL     OW33486  10.564   3.930   9.702
10530SOL    HW133487  10.530   3.929   9.791
10530SOL    HW233488  10.587   4.022   9.686
10531SOL     OW33489   5.452   0.934  14.656
10531SOL    HW133490   5.520   0.908  14.593
10531SOL    HW233491   5.500   0.943  14.739
10532SOL     OW33492   3.998   5.027   3.874
10532SOL    HW133493   3.905   5.032   3.852
10532SOL    HW233494   4.042   5.008   3.791
10533SOL     OW33495   7.451   7.590   4.731
10533SOL    HW133496   7.415   7.533   4.663
10533SOL    HW233497   7.450   7.677   4.692
10534SOL     OW33498   0.427   0.297  10.105
10534SOL    HW133499   0.346   0.279  10.057
10534SOL    HW233500   0.436   0.223  10.165
10535SOL     OW33501   1.057   5.140   5.691
10535SOL    HW133502   0.989   5.187   5.739
10535SOL    HW233503   1.131   5.200   5.689
10536SOL     OW33504   8.457   8.246  10.249
10536SOL    HW133505   8.420   8.271  10.164
10536SOL    HW233506   8.525   8.311  10.266
10537SOL     OW33507   9.067   3.796   5.827
10537SOL    HW133508   9.149   3.787   5.778
10537SOL    HW233509   9.033   3.707   5.834
10538SOL     OW33510  11.565  10.152   5.155
10538SOL    HW133511  11.625  10.155   5.229
10538SOL    HW233512  11.566  10.241   5.119
10539SOL     OW33513   1.718   1.435   7.540
10539SOL    HW133514   1.811   1.445   7.518
10539SOL    HW233515   1.683   1.523   7.535
10540SOL     OW33516   4.058   7.788   6.563
10540SOL    HW133517   4.055   7.748   6.650
10540SOL    HW233518   3.978   7.841   6.559
10541SOL     OW33519  13.161  13.542  10.625
10541SOL    HW133520  13.101  13.587  10.565
10541SOL    HW233521  13.184  13.461  10.578
10542SOL     OW33522   5.976   1.731  13.155
10542SOL    HW133523   6.015   1.701  13.238
10542SOL    HW233524   6.039   1.794  13.120
10543SOL     OW33525   7.003  14.805   7.010
10543SOL    HW133526   7.044   0.018   6.991
10543SOL    HW233527   7.044  14.777   7.092
10544SOL     OW33528   6.074   9.782  12.520
10544SOL    HW133529   6.089   9.688  12.531
10544SOL    HW233530   6.110   9.802  12.433
10545SOL     OW33531  11.399  13.858   5.180
10545SOL    HW133532  11.476  13.914   5.178
10545SOL    HW233533  11.420  13.789   5.243
10546SOL     OW33534   5.843   9.353   3.458
10546SOL    HW133535   5.776   9.296   3.497
10546SOL    HW233536   5.870   9.308   3.379
10547SOL     OW33537   2.421  13.416   4.324
10547SOL    HW133538   2.441  13.373   4.242
10547SOL    HW233539   2.491  13.480   4.336
10548SOL     OW33540  14.503  14.571   1.988
10548SOL    HW133541  14.510  14.481   1.956
10548SOL    HW233542  14.464  14.562   2.075
10549SOL     OW33543   5.295   4.986   0.591
10549SOL    HW133544   5.299   5.033   0.675
10549SOL    HW233545   5.235   5.039   0.538
10550SOL     OW33546  10.393  11.699   0.437
10550SOL    HW133547  10.365  11.790   0.446
10550SOL    HW233548  10.483  11.697   0.467
10551SOL     OW33549   6.303   7.786  13.943
10551SOL    HW133550   6.293   7.881  13.943
10551SOL    HW233551   6.394   7.771  13.917
10552SOL     OW33552   9.255   8.177   4.365
10552SOL    HW133553   9.190   8.114   4.336
10552SOL    HW233554   9.242   8.184   4.459
10553SOL     OW33555   3.350   8.029   2.067
10553SOL    HW133556   3.334   8.119   2.096
10553SOL    HW233557   3.442   8.027   2.041
10554SOL     OW33558   0.482   5.446  10.487
10554SOL    HW133559   0.546   5.447  10.558
10554SOL    HW233560   0.428   5.523  10.503
10555SOL     OW33561   1.239   6.206   1.688
10555SOL    HW133562   1.163   6.237   1.639
10555SOL    HW233563   1.295   6.283   1.697
10556SOL     OW33564   8.314  11.501   5.716
10556SOL    HW133565   8.284  11.437   5.781
10556SOL    HW233566   8.350  11.448   5.645
10557SOL     OW33567   2.830  11.662   9.665
10557SOL    HW133568   2.860  11.606   9.737
10557SOL    HW233569   2.898  11.653   9.598
10558SOL     OW33570   6.682   4.381  13.177
10558SOL    HW133571   6.628   4.306  13.153
10558SOL    HW233572   6.624   4.457  13.165
10559SOL     OW33573   1.321   0.700  14.436
10559SOL    HW133574   1.248   0.742  14.391
10559SOL    HW233575   1.343   0.759  14.508
10560SOL     OW33576   6.025  11.200   3.211
10560SOL    HW133577   6.091  11.138   3.242
10560SOL    HW233578   5.999  11.166   3.125
10561SOL     OW33579   3.928   7.092  12.530
10561SOL    HW133580   3.895   7.010  12.567
10561SOL    HW233581   3.949   7.071  12.440
10562SOL     OW33582   3.227   2.556  13.210
10562SOL    HW133583   3.304   2.515  13.170
10562SOL    HW233584   3.153   2.513  13.169
10563SOL     OW33585   1.607   3.682  14.619
10563SOL    HW133586   1.554   3.605  14.639
10563SOL    HW233587   1.656   3.700  14.700
10564SOL     OW33588   8.354  10.275  14.460
10564SOL    HW133589   8.298  10.248  14.533
10564SOL    HW233590   8.326  10.219  14.387
10565SOL     OW33591  13.977   5.454  12.860
10565SOL    HW133592  14.031   5.406  12.798
10565SOL    HW233593  13.988   5.407  12.943
10566SOL     OW33594   5.371   6.475   9.227
10566SOL    HW133595   5.431   6.549   9.231
10566SOL    HW233596   5.422   6.400   9.260
10567SOL     OW33597   7.486   8.584  12.621
10567SOL    HW133598   7.458   8.492  12.626
10567SOL    HW233599   7.464   8.611  12.532
10568SOL     OW33600   6.531   7.274   1.459
10568SOL    HW133601   6.572   7.201   1.505
10568SOL    HW233602   6.467   7.233   1.401
10569SOL     OW33603   8.438   0.627  12.445
10569SOL    HW133604   8.398   0.653  12.528
10569SOL    HW233605   8.469   0.538  12.461
10570SOL     OW33606  14.189   3.969   0.573
10570SOL    HW133607  14.141   4.024   0.634
10570SOL    HW233608  14.137   3.889   0.567
10571SOL     OW33609   7.081   4.063   6.444
10571SOL    HW133610   7.076   3.978   6.486
10571SOL    HW233611   7.107   4.123   6.514
10572SOL     OW33612   2.731  12.400   9.380
10572SOL    HW133613   2.758  12.449   9.302
10572SOL    HW233614   2.637  12.386   9.368
10573SOL     OW33615   8.944   1.804   7.038
10573SOL    HW133616   8.871   1.859   7.065
10573SOL    HW233617   8.999   1.862   6.985
10574SOL     OW33618   2.648   0.176  11.918
10574SOL    HW133619   2.599   0.211  11.993
10574SOL    HW233620   2.718   0.124  11.958
10575SOL     OW33621   9.135   2.997   0.124
10575SOL    HW133622   9.058   2.968   0.173
10575SOL    HW233623   9.194   3.031   0.190
10576SOL     OW33624   7.109  12.765  13.336
10576SOL    HW133625   7.017  12.767  13.362
10576SOL    HW233626   7.155  12.810  13.407
10577SOL     OW33627  14.396   9.417   4.637
10577SOL    HW133628  14.385   9.448   4.727
10577SOL    HW233629  14.435   9.490   4.591
10578SOL     OW33630  14.152   4.577   3.401
10578SOL    HW133631  14.178   4.643   3.337
10578SOL    HW233632  14.137   4.626   3.482
10579SOL     OW33633   1.027  10.062  13.653
10579SOL    HW133634   0.932  10.048  13.659
10579SOL    HW233635   1.036  10.143  13.603
10580SOL     OW33636  10.462   0.726  12.738
10580SOL    HW133637  10.493   0.696  12.823
10580SOL    HW233638  10.440   0.818  12.752
10581SOL     OW33639  14.352   6.707  12.536
10581SOL    HW133640  14.316   6.675  12.619
10581SOL    HW233641  14.447   6.702  12.547
10582SOL     OW33642   9.634   4.764   0.358
10582SOL    HW133643   9.714   4.809   0.385
10582SOL    HW233644   9.654   4.729   0.271
10583SOL     OW33645   6.738  11.151  10.382
10583SOL    HW133646   6.695  11.074  10.419
10583SOL    HW233647   6.666  11.203  10.347
10584SOL     OW33648   1.275   5.147   7.636
10584SOL    HW133649   1.227   5.065   7.636
10584SOL    HW233650   1.286   5.169   7.544
10585SOL     OW33651   2.790   8.363   8.322
10585SOL    HW133652   2.803   8.295   8.257
10585SOL    HW233653   2.708   8.340   8.366
10586SOL     OW33654   9.953   8.169  13.970
10586SOL    HW133655   9.966   8.122  13.887
10586SOL    HW233656   9.875   8.129  14.007
10587SOL     OW33657   4.022   1.140  11.186
10587SOL    HW133658   3.978   1.212  11.140
10587SOL    HW233659   4.017   1.164  11.279
10588SOL     OW33660   7.213  12.416  12.121
10588SOL    HW133661   7.119  12.417  12.136
10588SOL    HW233662   7.250  12.365  12.193
10589SOL     OW33663  13.194  11.122   6.740
10589SOL    HW133664  13.262  11.119   6.672
10589SOL    HW233665  13.158  11.034   6.743
10590SOL     OW33666   2.717  10.354   3.780
10590SOL    HW133667   2.712  10.267   3.741
10590SOL    HW233668   2.760  10.408   3.714
10591SOL     OW33669  11.236   9.708  10.561
10591SOL    HW133670  11.305   9.746  10.615
10591SOL    HW233671  11.211   9.778  10.500
10592SOL     OW33672   6.131  13.572   2.622
10592SOL    HW133673   6.143  13.491   2.572
10592SOL    HW233674   6.125  13.543   2.713
10593SOL     OW33675   0.197   9.203   4.660
10593SOL    HW133676   0.286   9.237   4.673
10593SOL    HW233677   0.143   9.282   4.650
10594SOL     OW33678   3.197   7.326   7.647
10594SOL    HW133679   3.130   7.322   7.580
10594SOL    HW233680   3.269   7.273   7.612
10595SOL     OW33681   4.290   0.227  10.980
10595SOL    HW133682   4.303   0.316  10.947
10595SOL    HW233683   4.378   0.190  10.983
10596SOL     OW33684   3.645   2.474   1.591
10596SOL    HW133685   3.683   2.445   1.674
10596SOL    HW233686   3.694   2.424   1.524
10597SOL     OW33687   5.951   8.405   9.336
10597SOL    HW133688   5.993   8.368   9.413
10597SOL    HW233689   5.903   8.481   9.368
10598SOL     OW33690   9.760   7.644   8.286
10598SOL    HW133691   9.817   7.643   8.208
10598SOL    HW233692   9.818   7.620   8.358
10599SOL     OW33693  12.493   2.108   2.705
10599SOL    HW133694  12.464   2.191   2.743
10599SOL    HW233695  12.544   2.134   2.628
10600SOL     OW33696   1.332   3.953   4.530
10600SOL    HW133697   1.250   3.905   4.516
10600SOL    HW233698   1.361   3.977   4.443
10601SOL     OW33699  11.088   5.890   1.946
10601SOL    HW133700  11.048   5.936   1.872
10601SOL    HW233701  11.114   5.805   1.910
10602SOL     OW33702  10.939   7.819   1.323
10602SOL    HW133703  10.859   7.827   1.375
10602SOL    HW233704  10.952   7.906   1.286
10603SOL     OW33705  12.438   1.362   3.464
10603SOL    HW133706  12.377   1.290   3.447
10603SOL    HW233707  12.392   1.440   3.433
10604SOL     OW33708  10.498  10.892  12.436
10604SOL    HW133709  10.425  10.953  12.426
10604SOL    HW233710  10.473  10.816  12.384
10605SOL     OW33711  11.236   8.308   5.532
10605SOL    HW133712  11.222   8.393   5.489
10605SOL    HW233713  11.282   8.255   5.466
10606SOL     OW33714   4.164  11.211   8.773
10606SOL    HW133715   4.160  11.147   8.844
10606SOL    HW233716   4.253  11.204   8.738
10607SOL     OW33717   3.617   1.783   3.762
10607SOL    HW133718   3.578   1.852   3.816
10607SOL    HW233719   3.655   1.829   3.688
10608SOL     OW33720   2.388   9.300  12.864
10608SOL    HW133721   2.302   9.273  12.896
10608SOL    HW233722   2.447   9.231  12.896
10609SOL     OW33723  14.567   2.398  12.547
10609SOL    HW133724  14.650   2.401  12.500
10609SOL    HW233725  14.586   2.348  12.626
10610SOL     OW33726   7.141   2.895  13.640
10610SOL    HW133727   7.073   2.828  13.634
10610SOL    HW233728   7.148   2.914  13.734
10611SOL     OW33729   1.244   1.335  10.789
10611SOL    HW133730   1.306   1.310  10.857
10611SOL    HW233731   1.214   1.422  10.815
10612SOL     OW33732   6.027  11.120   4.691
10612SOL    HW133733   6.065  11.098   4.606
10612SOL    HW233734   6.091  11.090   4.755
10613SOL     OW33735  10.671   9.517  13.145
10613SOL    HW133736  10.635   9.597  13.185
10613SOL    HW233737  10.689   9.542  13.055
10614SOL     OW33738   3.754  13.027   0.540
10614SOL    HW133739   3.844  13.049   0.515
10614SOL    HW233740   3.732  13.088   0.609
10615SOL     OW33741  11.845  14.775  14.419
10615SOL    HW133742  11.878  14.693  14.383
10615SOL    HW233743  11.751  14.758  14.435
10616SOL     OW33744   7.929   2.165   5.211
10616SOL    HW133745   7.940   2.241   5.154
10616SOL    HW233746   8.001   2.107   5.187
10617SOL     OW33747  11.704  10.982   7.243
10617SOL    HW133748  11.665  10.921   7.305
10617SOL    HW233749  11.720  10.930   7.165
10618SOL     OW33750  13.790  10.639  10.661
10618SOL    HW133751  13.708  10.690  10.661
10618SOL    HW233752  13.821  10.643  10.570
10619SOL     OW33753   2.459   1.022   5.515
10619SOL    HW133754   2.526   1.060   5.572
10619SOL    HW233755   2.477   0.928   5.516
10620SOL     OW33756   6.922   4.654  13.840
10620SOL    HW133757   6.922   4.599  13.762
10620SOL    HW233758   6.829   4.674  13.855
10621SOL     OW33759   0.974  14.426   5.558
10621SOL    HW133760   0.936  14.375   5.487
10621SOL    HW233761   1.068  14.413   5.549
10622SOL     OW33762   6.335   7.563   3.182
10622SOL    HW133763   6.368   7.501   3.117
10622SOL    HW233764   6.339   7.515   3.265
10623SOL     OW33765  10.940  14.597   6.671
10623SOL    HW133766  10.980  14.602   6.584
10623SOL    HW233767  10.866  14.537   6.660
10624SOL     OW33768  11.326   0.470   8.215
10624SOL    HW133769  11.258   0.443   8.276
10624SOL    HW233770  11.334   0.397   8.153
10625SOL     OW33771   3.347   1.722  12.574
10625SOL    HW133772   3.413   1.698  12.639
10625SOL    HW233773   3.337   1.817  12.584
10626SOL     OW33774   2.408   7.493  10.222
10626SOL    HW133775   2.446   7.508  10.136
10626SOL    HW233776   2.459   7.420  10.259
10627SOL     OW33777   4.565  10.587   3.102
10627SOL    HW133778   4.498  10.537   3.056
10627SOL    HW233779   4.529  10.600   3.190
10628SOL     OW33780  11.446  12.534   7.898
10628SOL    HW133781  11.530  12.578   7.891
10628SOL    HW233782  11.385  12.591   7.850
10629SOL     OW33783   5.495   2.694   4.266
10629SOL    HW133784   5.420   2.750   4.287
10629SOL    HW233785   5.476   2.661   4.178
10630SOL     OW33786  14.728   8.369   0.823
10630SOL    HW133787  14.760   8.445   0.777
10630SOL    HW233788  14.634   8.384   0.834
10631SOL     OW33789   4.737   8.611   3.266
10631SOL    HW133790   4.646   8.640   3.264
10631SOL    HW233791   4.776   8.660   3.338
10632SOL     OW33792   5.077  12.520   6.058
10632SOL    HW133793   5.000  12.574   6.078
10632SOL    HW233794   5.093  12.471   6.139
10633SOL     OW33795  11.168  13.012   3.126
10633SOL    HW133796  11.198  13.038   3.213
10633SOL    HW233797  11.243  12.967   3.087
10634SOL     OW33798   5.799   3.953  14.338
10634SOL    HW133799   5.720   3.984  14.381
10634SOL    HW233800   5.833   4.029  14.292
10635SOL     OW33801  12.544   0.349   0.591
10635SOL    HW133802  12.482   0.414   0.561
10635SOL    HW233803  12.499   0.265   0.578
10636SOL     OW33804  10.828   1.172  12.363
10636SOL    HW133805  10.758   1.236  12.354
10636SOL    HW233806  10.786   1.088  12.348
10637SOL     OW33807   6.429   8.597   2.378
10637SOL    HW133808   6.376   8.676   2.380
10637SOL    HW233809   6.420   8.560   2.465
10638SOL     OW33810   5.012  12.334  11.393
10638SOL    HW133811   5.005  12.347  11.298
10638SOL    HW233812   4.930  12.370  11.428
10639SOL     OW33813   0.466   2.979  13.396
10639SOL    HW133814   0.460   3.060  13.447
10639SOL    HW233815   0.387   2.980  13.341
10640SOL     OW33816   5.042  13.409  10.919
10640SOL    HW133817   5.069  13.334  10.866
10640SOL    HW233818   4.992  13.370  10.991
10641SOL     OW33819   9.660  10.326   9.063
10641SOL    HW133820   9.637  10.351   9.153
10641SOL    HW233821   9.749  10.361   9.051
10642SOL     OW33822   8.376   9.056   4.001
10642SOL    HW133823   8.440   8.995   4.038
10642SOL    HW233824   8.309   9.066   4.068
10643SOL     OW33825   3.754  10.983   6.241
10643SOL    HW133826   3.745  10.953   6.150
10643SOL    HW233827   3.688  10.933   6.289
10644SOL     OW33828   4.922  13.789  10.313
10644SOL    HW133829   4.928  13.885  10.320
10644SOL    HW233830   4.842  13.767  10.361
10645SOL     OW33831   7.841  14.028  12.434
10645SOL    HW133832   7.897  14.098  12.400
10645SOL    HW233833   7.800  14.067  12.512
10646SOL     OW33834   5.183   4.904   1.580
10646SOL    HW133835   5.275   4.877   1.581
10646SOL    HW233836   5.173   4.952   1.498
10647SOL     OW33837   5.098   4.251  14.311
10647SOL    HW133838   5.124   4.161  14.292
10647SOL    HW233839   5.173   4.304  14.284
10648SOL     OW33840   3.405   9.612   7.833
10648SOL    HW133841   3.407   9.575   7.921
10648SOL    HW233842   3.440   9.543   7.777
10649SOL     OW33843  11.321   2.030   9.447
10649SOL    HW133844  11.228   2.053   9.457
10649SOL    HW233845  11.320   1.944   9.407
10650SOL     OW33846   0.804   2.571   5.102
10650SOL    HW133847   0.835   2.658   5.130
10650SOL    HW233848   0.884   2.525   5.074
10651SOL     OW33849   9.537   4.907   6.986
10651SOL    HW133850   9.460   4.917   7.043
10651SOL    HW233851   9.534   4.816   6.958
10652SOL     OW33852   4.997  11.147   7.541
10652SOL    HW133853   4.943  11.169   7.617
10652SOL    HW233854   4.972  11.211   7.474
10653SOL     OW33855  14.808  11.195  11.496
10653SOL    HW133856  14.723  11.227  11.527
10653SOL    HW233857  14.821  11.114  11.544
10654SOL     OW33858  13.824   8.070   4.013
10654SOL    HW133859  13.833   8.079   4.108
10654SOL    HW233860  13.738   8.104   3.993
10655SOL     OW33861   3.046   1.553  10.005
10655SOL    HW133862   3.048   1.461   9.978
10655SOL    HW233863   2.989   1.595   9.941
10656SOL     OW33864   2.740  10.715   7.829
10656SOL    HW133865   2.731  10.711   7.924
10656SOL    HW233866   2.747  10.808   7.809
10657SOL     OW33867   3.807   3.210  13.478
10657SOL    HW133868   3.743   3.197  13.408
10657SOL    HW233869   3.888   3.231  13.434
10658SOL     OW33870   1.502  14.245  13.435
10658SOL    HW133871   1.492  14.169  13.378
10658SOL    HW233872   1.583  14.287  13.406
10659SOL     OW33873   9.852   7.430   2.325
10659SOL    HW133874   9.910   7.457   2.254
10659SOL    HW233875   9.791   7.369   2.283
10660SOL     OW33876  12.661  11.727   1.809
10660SOL    HW133877  12.735  11.781   1.835
10660SOL    HW233878  12.691  11.680   1.732
10661SOL     OW33879   1.387   1.257   8.291
10661SOL    HW133880   1.478   1.277   8.313
10661SOL    HW233881   1.338   1.333   8.322
10662SOL     OW33882   5.842  14.379   7.541
10662SOL    HW133883   5.866  14.450   7.481
10662SOL    HW233884   5.869  14.299   7.495
10663SOL     OW33885   6.637   7.143   9.694
10663SOL    HW133886   6.542   7.135   9.681
10663SOL    HW233887   6.662   7.220   9.644
10664SOL     OW33888   9.806   8.125  14.704
10664SOL    HW133889   9.760   8.125  14.788
10664SOL    HW233890   9.824   8.217  14.687
10665SOL     OW33891   4.036   5.158  11.872
10665SOL    HW133892   4.080   5.165  11.788
10665SOL    HW233893   4.089   5.209  11.932
10666SOL     OW33894  11.738   7.633   6.415
10666SOL    HW133895  11.729   7.620   6.509
10666SOL    HW233896  11.736   7.728   6.404
10667SOL     OW33897   2.057   0.987   6.580
10667SOL    HW133898   2.138   1.030   6.555
10667SOL    HW233899   1.993   1.058   6.588
10668SOL     OW33900  14.391   8.928  14.230
10668SOL    HW133901  14.335   8.991  14.185
10668SOL    HW233902  14.335   8.853  14.247
10669SOL     OW33903  14.491   5.573   3.781
10669SOL    HW133904  14.510   5.615   3.865
10669SOL    HW233905  14.408   5.612   3.753
10670SOL     OW33906   1.871  11.357  10.631
10670SOL    HW133907   1.908  11.279  10.673
10670SOL    HW233908   1.913  11.431  10.676
10671SOL     OW33909   1.657   4.498  14.341
10671SOL    HW133910   1.569   4.524  14.315
10671SOL    HW233911   1.651   4.484  14.436
10672SOL     OW33912   3.622   2.628   9.868
10672SOL    HW133913   3.610   2.553   9.810
10672SOL    HW233914   3.553   2.618   9.934
10673SOL     OW33915  12.994  10.045   2.359
10673SOL    HW133916  12.962  10.052   2.269
10673SOL    HW233917  12.920  10.013   2.409
10674SOL     OW33918  13.812  12.749   0.058
10674SOL    HW133919  13.741  12.685   0.050
10674SOL    HW233920  13.780  12.827   0.013
10675SOL     OW33921   9.651  12.183   6.125
10675SOL    HW133922   9.624  12.098   6.090
10675SOL    HW233923   9.579  12.209   6.182
10676SOL     OW33924   2.994  11.961  12.081
10676SOL    HW133925   3.054  11.930  12.013
10676SOL    HW233926   2.944  12.030  12.039
10677SOL     OW33927   4.921  14.399   6.572
10677SOL    HW133928   4.833  14.366   6.589
10677SOL    HW233929   4.972  14.321   6.548
10678SOL     OW33930  10.933  13.774   6.351
10678SOL    HW133931  10.929  13.774   6.255
10678SOL    HW233932  10.983  13.696   6.373
10679SOL     OW33933   0.048  13.504   0.594
10679SOL    HW133934   0.056  13.411   0.615
10679SOL    HW233935  14.867  13.506   0.514
10680SOL     OW33936   5.808  12.233   1.324
10680SOL    HW133937   5.822  12.155   1.378
10680SOL    HW233938   5.817  12.306   1.385
10681SOL     OW33939  13.345   4.942   1.698
10681SOL    HW133940  13.434   4.968   1.719
10681SOL    HW233941  13.304   5.022   1.665
10682SOL     OW33942  11.846   1.789   6.933
10682SOL    HW133943  11.885   1.706   6.903
10682SOL    HW233944  11.777   1.762   6.993
10683SOL     OW33945   3.669  12.100  10.141
10683SOL    HW133946   3.659  12.075  10.233
10683SOL    HW233947   3.582  12.089  10.104
10684SOL     OW33948   0.126  14.716   5.942
10684SOL    HW133949   0.035  14.696   5.965
10684SOL    HW233950   0.148  14.651   5.874
10685SOL     OW33951   7.494   6.111  12.652
10685SOL    HW133952   7.535   6.049  12.593
10685SOL    HW233953   7.548   6.190  12.646
10686SOL     OW33954   6.529  13.796  14.637
10686SOL    HW133955   6.570  13.881  14.650
10686SOL    HW233956   6.490  13.775  14.721
10687SOL     OW33957   7.278  13.767  10.311
10687SOL    HW133958   7.186  13.744  10.301
10687SOL    HW233959   7.282  13.859  10.285
10688SOL     OW33960   9.494  10.521   7.128
10688SOL    HW133961   9.456  10.444   7.086
10688SOL    HW233962   9.432  10.543   7.197
10689SOL     OW33963   1.392  14.235  11.174
10689SOL    HW133964   1.369  14.296  11.104
10689SOL    HW233965   1.377  14.285  11.255
10690SOL     OW33966   8.660  11.118   8.265
10690SOL    HW133967   8.743  11.070   8.263
10690SOL    HW233968   8.661  11.163   8.350
10691SOL     OW33969   4.754  14.024  13.191
10691SOL    HW133970   4.668  14.036  13.232
10691SOL    HW233971   4.805  13.978  13.257
10692SOL     OW33972   7.034   7.007   1.511
10692SOL    HW133973   7.094   7.048   1.448
10692SOL    HW233974   7.090   6.951   1.565
10693SOL     OW33975   1.170  13.046   9.392
10693SOL    HW133976   1.262  13.029   9.412
10693SOL    HW233977   1.122  12.976   9.436
10694SOL     OW33978   6.231   1.484   3.053
10694SOL    HW133979   6.301   1.429   3.089
10694SOL    HW233980   6.247   1.571   3.089
10695SOL     OW33981  14.230   2.051  10.889
10695SOL    HW133982  14.291   2.116  10.854
10695SOL    HW233983  14.222   1.986  10.820
10696SOL     OW33984   9.785   2.285   8.961
10696SOL    HW133985   9.768   2.279   8.867
10696SOL    HW233986   9.721   2.225   9.001
10697SOL     OW33987  10.639   6.345  13.053
10697SOL    HW133988  10.720   6.376  13.014
10697SOL    HW233989  10.577   6.342  12.980
10698SOL     OW33990   6.229  13.675  12.325
10698SOL    HW133991   6.189  13.655  12.410
10698SOL    HW233992   6.166  13.733  12.282
10699SOL     OW33993  11.953   5.310  14.140
10699SOL    HW133994  11.940   5.286  14.048
10699SOL    HW233995  11.865   5.313  14.177
10700SOL     OW33996   3.821  11.959   2.186
10700SOL    HW133997   3.798  12.049   2.160
10700SOL    HW233998   3.759  11.904   2.139
10701SOL     OW33999   2.567   3.331  12.971
10701SOL    HW134000   2.477   3.340  13.002
10701SOL    HW234001   2.581   3.405  12.913
10702SOL     OW34002   5.216  10.298  13.806
10702SOL    HW134003   5.202  10.261  13.719
10702SOL    HW234004   5.244  10.388  13.790
10703SOL     OW34005   4.112   4.363   4.863
10703SOL    HW134006   4.099   4.438   4.805
10703SOL    HW234007   4.194   4.381   4.908
10704SOL     OW34008   2.845  11.942   2.019
10704SOL    HW134009   2.774  11.884   1.990
10704SOL    HW234010   2.902  11.885   2.071
10705SOL     OW34011  11.930   1.041   5.136
10705SOL    HW134012  12.018   1.038   5.098
10705SOL    HW234013  11.936   1.106   5.205
10706SOL     OW34014   0.838   8.602   2.616
10706SOL    HW134015   0.929   8.590   2.644
10706SOL    HW234016   0.808   8.677   2.667
10707SOL     OW34017  12.140   2.521   8.279
10707SOL    HW134018  12.050   2.544   8.301
10707SOL    HW234019  12.132   2.447   8.219
10708SOL     OW34020   4.197   2.327   1.463
10708SOL    HW134021   4.259   2.256   1.482
10708SOL    HW234022   4.200   2.382   1.541
10709SOL     OW34023   4.276   8.805   0.301
10709SOL    HW134024   4.279   8.790   0.395
10709SOL    HW234025   4.319   8.890   0.289
10710SOL     OW34026   1.843   7.692  10.908
10710SOL    HW134027   1.769   7.747  10.882
10710SOL    HW234028   1.894   7.746  10.968
10711SOL     OW34029   2.648   4.366  13.012
10711SOL    HW134030   2.577   4.397  13.067
10711SOL    HW234031   2.687   4.294  13.061
10712SOL     OW34032   9.977   5.493   0.374
10712SOL    HW134033   9.908   5.432   0.403
10712SOL    HW234034   9.992   5.470   0.283
10713SOL     OW34035  10.693  14.405   7.031
10713SOL    HW134036  10.614  14.458   7.036
10713SOL    HW234037  10.734  14.416   7.117
10714SOL     OW34038   6.739   4.620   0.265
10714SOL    HW134039   6.663   4.652   0.314
10714SOL    HW234040   6.702   4.589   0.182
10715SOL     OW34041  10.944  10.350  10.923
10715SOL    HW134042  10.868  10.405  10.941
10715SOL    HW234043  11.019  10.409  10.931
10716SOL     OW34044  14.416  10.359   5.612
10716SOL    HW134045  14.353  10.428   5.595
10716SOL    HW234046  14.474  10.359   5.536
10717SOL     OW34047   4.469  13.867   4.346
10717SOL    HW134048   4.427  13.900   4.426
10717SOL    HW234049   4.560  13.894   4.354
10718SOL     OW34050  10.474   7.016   6.885
10718SOL    HW134051  10.438   6.987   6.802
10718SOL    HW234052  10.414   7.084   6.916
10719SOL     OW34053   5.504  12.929   6.512
10719SOL    HW134054   5.491  13.013   6.469
10719SOL    HW234055   5.451  12.935   6.592
10720SOL     OW34056   0.665   4.927   3.883
10720SOL    HW134057   0.638   4.936   3.974
10720SOL    HW234058   0.757   4.901   3.887
10721SOL     OW34059   2.635   4.310  13.506
10721SOL    HW134060   2.722   4.349  13.498
10721SOL    HW234061   2.582   4.378  13.548
10722SOL     OW34062  13.786   3.573   3.850
10722SOL    HW134063  13.851   3.503   3.857
10722SOL    HW234064  13.732   3.563   3.928
10723SOL     OW34065   1.710  13.780   0.807
10723SOL    HW134066   1.735  13.859   0.855
10723SOL    HW234067   1.618  13.767   0.828
10724SOL     OW34068   7.237   9.335  13.172
10724SOL    HW134069   7.237   9.404  13.238
10724SOL    HW234070   7.158   9.350  13.120
10725SOL     OW34071   8.669  12.272   1.144
10725SOL    HW134072   8.587  12.225   1.125
10725SOL    HW234073   8.643  12.364   1.153
10726SOL     OW34074   6.859  14.849  12.170
10726SOL    HW134075   6.916   0.042  12.211
10726SOL    HW234076   6.919  14.784  12.133
10727SOL     OW34077   2.270   5.582   8.353
10727SOL    HW134078   2.237   5.608   8.267
10727SOL    HW234079   2.199   5.530   8.390
10728SOL     OW34080  10.129   6.389  11.849
10728SOL    HW134081  10.053   6.335  11.827
10728SOL    HW234082  10.199   6.355  11.793
10729SOL     OW34083   0.149   9.024  11.324
10729SOL    HW134084   0.096   9.071  11.388
10729SOL    HW234085   0.239   9.036  11.353
10730SOL     OW34086  11.870   9.560   4.349
10730SOL    HW134087  11.825   9.559   4.265
10730SOL    HW234088  11.811   9.608   4.407
10731SOL     OW34089  10.631   2.791   4.392
10731SOL    HW134090  10.635   2.711   4.446
10731SOL    HW234091  10.720   2.824   4.391
10732SOL     OW34092   0.237  14.686   4.852
10732SOL    HW134093   0.305  14.653   4.793
10732SOL    HW234094   0.284  14.717   4.929
10733SOL     OW34095   2.195   1.229  14.148
10733SOL    HW134096   2.260   1.208  14.081
10733SOL    HW234097   2.211   1.321  14.169
10734SOL     OW34098  11.945   3.824  12.063
10734SOL    HW134099  11.960   3.783  11.978
10734SOL    HW234100  11.860   3.867  12.055
10735SOL     OW34101  10.882   8.019  11.801
10735SOL    HW134102  10.867   7.930  11.771
10735SOL    HW234103  10.877   8.072  11.722
10736SOL     OW34104   9.182  10.373   0.330
10736SOL    HW134105   9.207  10.463   0.310
10736SOL    HW234106   9.090  10.379   0.356
10737SOL     OW34107   5.332   6.834  10.525
10737SOL    HW134108   5.311   6.809  10.615
10737SOL    HW234109   5.403   6.776  10.499
10738SOL     OW34110  12.160  14.211   1.539
10738SOL    HW134111  12.107  14.274   1.588
10738SOL    HW234112  12.107  14.132   1.536
10739SOL     OW34113   4.105   3.529   1.880
10739SOL    HW134114   4.028   3.480   1.910
10739SOL    HW234115   4.164   3.462   1.846
10740SOL     OW34116  12.455   9.810   8.772
10740SOL    HW134117  12.380   9.784   8.825
10740SOL    HW234118  12.417   9.854   8.696
10741SOL     OW34119   1.435   0.423  10.133
10741SOL    HW134120   1.471   0.478  10.063
10741SOL    HW234121   1.343   0.449  10.139
10742SOL     OW34122   8.019   5.835   4.200
10742SOL    HW134123   8.109   5.808   4.217
10742SOL    HW234124   7.969   5.803   4.275
10743SOL     OW34125   3.673   3.237   4.856
10743SOL    HW134126   3.637   3.311   4.808
10743SOL    HW234127   3.668   3.262   4.948
10744SOL     OW34128   5.560   6.727   6.931
10744SOL    HW134129   5.615   6.782   6.987
10744SOL    HW234130   5.621   6.682   6.873
10745SOL     OW34131   2.045   1.774   5.559
10745SOL    HW134132   2.128   1.730   5.541
10745SOL    HW234133   2.045   1.850   5.502
10746SOL     OW34134   8.812   2.114   9.075
10746SOL    HW134135   8.740   2.051   9.076
10746SOL    HW234136   8.789   2.178   9.143
10747SOL     OW34137   1.254   7.059   5.636
10747SOL    HW134138   1.319   7.097   5.695
10747SOL    HW234139   1.189   7.019   5.694
10748SOL     OW34140  14.419   0.750   8.661
10748SOL    HW134141  14.447   0.670   8.617
10748SOL    HW234142  14.366   0.720   8.735
10749SOL     OW34143   0.585   9.284   6.769
10749SOL    HW134144   0.513   9.258   6.826
10749SOL    HW234145   0.612   9.203   6.725
10750SOL     OW34146   9.136   8.347   7.029
10750SOL    HW134147   9.084   8.317   7.103
10750SOL    HW234148   9.216   8.294   7.032
10751SOL     OW34149   9.693   0.886   1.866
10751SOL    HW134150   9.641   0.841   1.933
10751SOL    HW234151   9.764   0.928   1.914
10752SOL     OW34152   0.581  13.180   8.917
10752SOL    HW134153   0.609  13.240   8.848
10752SOL    HW234154   0.508  13.132   8.878
10753SOL     OW34155  13.450  13.533   1.869
10753SOL    HW134156  13.543  13.523   1.887
10753SOL    HW234157  13.447  13.586   1.789
10754SOL     OW34158  11.346  14.733   8.613
10754SOL    HW134159  11.350  14.730   8.708
10754SOL    HW234160  11.253  14.736   8.592
10755SOL     OW34161   8.846  11.733   8.680
10755SOL    HW134162   8.849  11.663   8.745
10755SOL    HW234163   8.898  11.804   8.718
10756SOL     OW34164  12.780   1.065   2.259
10756SOL    HW134165  12.761   0.973   2.272
10756SOL    HW234166  12.830   1.090   2.337
10757SOL     OW34167   6.875   6.180  11.014
10757SOL    HW134168   6.833   6.117  10.955
10757SOL    HW234169   6.859   6.265  10.974
10758SOL     OW34170   2.253   2.581   9.240
10758SOL    HW134171   2.241   2.676   9.239
10758SOL    HW234172   2.272   2.559   9.148
10759SOL     OW34173  12.885   0.419   4.877
10759SOL    HW134174  12.891   0.324   4.887
10759SOL    HW234175  12.833   0.447   4.952
10760SOL     OW34176   9.764   0.582   2.032
10760SOL    HW134177   9.739   0.552   2.120
10760SOL    HW234178   9.682   0.585   1.983
10761SOL     OW34179   2.182  14.536  14.438
10761SOL    HW134180   2.170  14.447  14.472
10761SOL    HW234181   2.141  14.592  14.503
10762SOL     OW34182   3.939   3.891  14.350
10762SOL    HW134183   3.977   3.803  14.342
10762SOL    HW234184   3.872   3.882  14.418
10763SOL     OW34185   4.257  10.151   8.206
10763SOL    HW134186   4.174  10.154   8.159
10763SOL    HW234187   4.312  10.217   8.163
10764SOL     OW34188   9.384  12.202   0.519
10764SOL    HW134189   9.324  12.217   0.446
10764SOL    HW234190   9.439  12.280   0.521
10765SOL     OW34191  14.245  12.759   9.378
10765SOL    HW134192  14.181  12.754   9.448
10765SOL    HW234193  14.239  12.674   9.333
10766SOL     OW34194  11.322   5.358  13.495
10766SOL    HW134195  11.283   5.328  13.577
10766SOL    HW234196  11.413   5.331  13.499
10767SOL     OW34197  10.246  13.007   0.060
10767SOL    HW134198  10.330  13.053   0.068
10767SOL    HW234199  10.237  12.991  14.837
10768SOL     OW34200   8.016  12.128   9.226
10768SOL    HW134201   8.075  12.068   9.180
10768SOL    HW234202   8.012  12.093   9.315
10769SOL     OW34203   4.559   4.917   4.282
10769SOL    HW134204   4.465   4.929   4.285
10769SOL    HW234205   4.593   4.996   4.240
10770SOL     OW34206  11.043  12.939  12.155
10770SOL    HW134207  11.111  12.894  12.105
10770SOL    HW234208  10.982  12.869  12.181
10771SOL     OW34209   4.261   1.842   2.346
10771SOL    HW134210   4.284   1.882   2.430
10771SOL    HW234211   4.255   1.748   2.365
10772SOL     OW34212  13.044  12.259  11.840
10772SOL    HW134213  13.022  12.218  11.756
10772SOL    HW234214  13.140  12.257  11.842
10773SOL     OW34215  14.236  12.464  10.863
10773SOL    HW134216  14.154  12.504  10.894
10773SOL    HW234217  14.288  12.450  10.943
10774SOL     OW34218   4.063   8.606   8.964
10774SOL    HW134219   4.062   8.696   8.931
10774SOL    HW234220   3.972   8.579   8.964
10775SOL     OW34221   2.312   8.631   1.277
10775SOL    HW134222   2.218   8.652   1.276
10775SOL    HW234223   2.330   8.597   1.189
10776SOL     OW34224  11.571   5.544   9.911
10776SOL    HW134225  11.612   5.466   9.876
10776SOL    HW234226  11.548   5.521  10.001
10777SOL     OW34227  10.072   5.144   7.690
10777SOL    HW134228  10.126   5.159   7.612
10777SOL    HW234229  10.124   5.084   7.744
10778SOL     OW34230  10.997   2.008   2.939
10778SOL    HW134231  11.004   1.968   2.852
10778SOL    HW234232  11.047   2.089   2.932
10779SOL     OW34233   7.142  13.540   0.530
10779SOL    HW134234   7.140  13.635   0.544
10779SOL    HW234235   7.209  13.508   0.591
10780SOL     OW34236   7.734   1.858   0.221
10780SOL    HW134237   7.819   1.861   0.264
10780SOL    HW234238   7.726   1.943   0.176
10781SOL     OW34239  12.319   3.932   1.711
10781SOL    HW134240  12.239   3.965   1.751
10781SOL    HW234241  12.293   3.908   1.621
10782SOL     OW34242   6.138  14.579   0.554
10782SOL    HW134243   6.164  14.636   0.482
10782SOL    HW234244   6.210  14.517   0.564
10783SOL     OW34245   4.601   2.310  12.435
10783SOL    HW134246   4.621   2.224  12.471
10783SOL    HW234247   4.681   2.335  12.389
10784SOL     OW34248   8.300   6.372  14.184
10784SOL    HW134249   8.264   6.295  14.139
10784SOL    HW234250   8.349   6.418  14.116
10785SOL     OW34251  13.393   5.141  11.367
10785SOL    HW134252  13.344   5.216  11.335
10785SOL    HW234253  13.471   5.179  11.407
10786SOL     OW34254   5.292   3.685   9.529
10786SOL    HW134255   5.217   3.674   9.589
10786SOL    HW234256   5.304   3.598   9.491
10787SOL     OW34257   5.800   9.629   1.078
10787SOL    HW134258   5.741   9.553   1.072
10787SOL    HW234259   5.852   9.612   1.156
10788SOL     OW34260  12.753   9.083  14.362
10788SOL    HW134261  12.828   9.111  14.309
10788SOL    HW234262  12.739   9.155  14.424
10789SOL     OW34263   7.046   3.316   8.255
10789SOL    HW134264   6.972   3.255   8.258
10789SOL    HW234265   7.068   3.321   8.162
10790SOL     OW34266  11.868   5.562  10.912
10790SOL    HW134267  11.919   5.631  10.869
10790SOL    HW234268  11.934   5.507  10.955
10791SOL     OW34269   7.728   5.420   9.209
10791SOL    HW134270   7.817   5.408   9.243
10791SOL    HW234271   7.732   5.504   9.162
10792SOL     OW34272   2.928   4.174   3.465
10792SOL    HW134273   2.951   4.091   3.507
10792SOL    HW234274   3.008   4.226   3.470
10793SOL     OW34275  12.743   1.401  12.652
10793SOL    HW134276  12.666   1.349  12.677
10793SOL    HW234277  12.714   1.492  12.660
10794SOL     OW34278  12.538  10.595   0.343
10794SOL    HW134279  12.490  10.676   0.358
10794SOL    HW234280  12.620  10.622   0.301
10795SOL     OW34281  14.538   9.687   0.473
10795SOL    HW134282  14.632   9.675   0.459
10795SOL    HW234283  14.513   9.613   0.528
10796SOL     OW34284   3.898   0.848  13.507
10796SOL    HW134285   3.832   0.911  13.477
10796SOL    HW234286   3.972   0.861  13.448
10797SOL     OW34287   8.098  10.969  10.152
10797SOL    HW134288   8.054  11.034  10.207
10797SOL    HW234289   8.027  10.921  10.110
10798SOL     OW34290   7.316   4.803   0.957
10798SOL    HW134291   7.404   4.836   0.973
10798SOL    HW234292   7.330   4.717   0.918
10799SOL     OW34293   5.909  14.871  12.698
10799SOL    HW134294   5.951  14.827  12.624
10799SOL    HW234295   5.977   0.005  12.764
10800SOL     OW34296  13.111   5.672   5.960
10800SOL    HW134297  13.099   5.759   5.923
10800SOL    HW234298  13.178   5.631   5.905
10801SOL     OW34299  12.640   9.282  12.736
10801SOL    HW134300  12.563   9.306  12.788
10801SOL    HW234301  12.606   9.257  12.651
10802SOL     OW34302   4.634   7.929   3.650
10802SOL    HW134303   4.710   7.956   3.703
10802SOL    HW234304   4.601   8.010   3.613
10803SOL     OW34305   4.068   8.299  10.490
10803SOL    HW134306   3.978   8.271  10.473
10803SOL    HW234307   4.117   8.269  10.414
10804SOL     OW34308   8.818  13.135   8.844
10804SOL    HW134309   8.767  13.136   8.925
10804SOL    HW234310   8.806  13.222   8.807
10805SOL     OW34311   9.882  13.377  12.783
10805SOL    HW134312   9.807  13.319  12.793
10805SOL    HW234313   9.845  13.465  12.784
10806SOL     OW34314   3.555   5.506   6.357
10806SOL    HW134315   3.584   5.485   6.445
10806SOL    HW234316   3.610   5.454   6.299
10807SOL     OW34317   6.106   9.276   1.514
10807SOL    HW134318   6.086   9.334   1.587
10807SOL    HW234319   6.024   9.272   1.464
10808SOL     OW34320   3.185  10.493   5.530
10808SOL    HW134321   3.149  10.456   5.450
10808SOL    HW234322   3.215  10.580   5.506
10809SOL     OW34323   8.063  13.598  10.672
10809SOL    HW134324   8.062  13.515  10.623
10809SOL    HW234325   8.101  13.575  10.756
10810SOL     OW34326   1.173  13.644   3.312
10810SOL    HW134327   1.249  13.599   3.348
10810SOL    HW234328   1.209  13.721   3.268
10811SOL     OW34329   9.699   1.425   1.174
10811SOL    HW134330   9.763   1.439   1.244
10811SOL    HW234331   9.703   1.331   1.156
10812SOL     OW34332   3.240   9.367  11.216
10812SOL    HW134333   3.252   9.347  11.123
10812SOL    HW234334   3.221   9.283  11.257
10813SOL     OW34335  13.714   2.212   1.350
10813SOL    HW134336  13.767   2.265   1.291
10813SOL    HW234337  13.777   2.163   1.402
10814SOL     OW34338  11.106  12.374   9.207
10814SOL    HW134339  11.044  12.303   9.195
10814SOL    HW234340  11.161  12.346   9.280
10815SOL     OW34341   7.915   9.025   6.534
10815SOL    HW134342   7.831   9.069   6.549
10815SOL    HW234343   7.933   9.039   6.441
10816SOL     OW34344  10.001   9.961   6.997
10816SOL    HW134345   9.973   9.961   6.905
10816SOL    HW234346  10.041   9.875   7.010
10817SOL     OW34347   5.950  14.629   8.196
10817SOL    HW134348   5.930  14.552   8.143
10817SOL    HW234349   6.042  14.647   8.179
10818SOL     OW34350   8.073  14.023   9.724
10818SOL    HW134351   8.160  13.990   9.702
10818SOL    HW234352   8.054  14.088   9.656
10819SOL     OW34353   8.752   1.845   4.664
10819SOL    HW134354   8.788   1.934   4.656
10819SOL    HW234355   8.798   1.795   4.596
10820SOL     OW34356  12.333   8.645  10.734
10820SOL    HW134357  12.258   8.630  10.675
10820SOL    HW234358  12.321   8.581  10.804
10821SOL     OW34359  11.359   5.127  14.116
10821SOL    HW134360  11.373   5.076  14.195
10821SOL    HW234361  11.352   5.218  14.146
10822SOL     OW34362   3.976  14.165  13.899
10822SOL    HW134363   3.996  14.241  13.953
10822SOL    HW234364   3.888  14.140  13.925
10823SOL     OW34365   0.642  13.314   4.428
10823SOL    HW134366   0.547  13.315   4.426
10823SOL    HW234367   0.664  13.289   4.518
10824SOL     OW34368  12.601  11.396  10.964
10824SOL    HW134369  12.523  11.402  11.018
10824SOL    HW234370  12.588  11.460  10.894
10825SOL     OW34371   0.933   0.863   8.215
10825SOL    HW134372   0.873   0.918   8.265
10825SOL    HW234373   0.917   0.887   8.123
10826SOL     OW34374  11.208  10.635  14.656
10826SOL    HW134375  11.248  10.675  14.733
10826SOL    HW234376  11.184  10.547  14.685
10827SOL     OW34377   5.239   4.372   8.581
10827SOL    HW134378   5.206   4.354   8.669
10827SOL    HW234379   5.333   4.380   8.592
10828SOL     OW34380   6.975  14.630   8.921
10828SOL    HW134381   7.010  14.660   8.837
10828SOL    HW234382   7.042  14.569   8.954
10829SOL     OW34383  14.355  12.767  12.050
10829SOL    HW134384  14.383  12.676  12.038
10829SOL    HW234385  14.341  12.800  11.962
10830SOL     OW34386   2.881   3.669   6.947
10830SOL    HW134387   2.974   3.690   6.943
10830SOL    HW234388   2.876   3.576   6.923
10831SOL     OW34389   2.627  10.181   0.413
10831SOL    HW134390   2.560  10.183   0.344
10831SOL    HW234391   2.710  10.176   0.365
10832SOL     OW34392   4.509  13.847   8.924
10832SOL    HW134393   4.431  13.898   8.901
10832SOL    HW234394   4.492  13.817   9.013
10833SOL     OW34395  13.195   3.160   9.244
10833SOL    HW134396  13.251   3.217   9.192
10833SOL    HW234397  13.145   3.220   9.300
10834SOL     OW34398   7.653   4.806   3.312
10834SOL    HW134399   7.734   4.857   3.313
10834SOL    HW234400   7.585   4.868   3.340
10835SOL     OW34401   0.129   2.052  13.342
10835SOL    HW134402   0.203   2.096  13.383
10835SOL    HW234403   0.077   2.018  13.415
10836SOL     OW34404   4.105  14.106   2.403
10836SOL    HW134405   4.105  14.148   2.317
10836SOL    HW234406   4.023  14.056   2.405
10837SOL     OW34407  14.175   8.686   5.938
10837SOL    HW134408  14.145   8.694   5.847
10837SOL    HW234409  14.119   8.746   5.987
10838SOL     OW34410   3.830  13.141   9.906
10838SOL    HW134411   3.817  13.153  10.000
10838SOL    HW234412   3.895  13.072   9.899
10839SOL     OW34413  10.053   7.236   3.303
10839SOL    HW134414   9.961   7.232   3.327
10839SOL    HW234415  10.100   7.226   3.386
10840SOL     OW34416   8.473   1.066   1.283
10840SOL    HW134417   8.431   1.088   1.366
10840SOL    HW234418   8.409   1.010   1.238
10841SOL     OW34419   3.824   7.910   2.725
10841SOL    HW134420   3.747   7.966   2.722
10841SOL    HW234421   3.790   7.823   2.747
10842SOL     OW34422   6.775   1.924   9.305
10842SOL    HW134423   6.723   1.844   9.298
10842SOL    HW234424   6.863   1.899   9.276
10843SOL     OW34425   5.024   4.641  11.817
10843SOL    HW134426   5.045   4.685  11.734
10843SOL    HW234427   5.096   4.579  11.828
10844SOL     OW34428   3.185   9.021  10.923
10844SOL    HW134429   3.222   9.036  10.836
10844SOL    HW234430   3.199   8.927  10.938
10845SOL     OW34431  14.618   9.346   3.791
10845SOL    HW134432  14.693   9.380   3.743
10845SOL    HW234433  14.638   9.366   3.883
10846SOL     OW34434   8.172   9.045  13.931
10846SOL    HW134435   8.096   8.989  13.938
10846SOL    HW234436   8.201   9.058  14.021
10847SOL     OW34437  14.062   7.930  14.560
10847SOL    HW134438  14.015   7.983  14.624
10847SOL    HW234439  13.994   7.879  14.516
10848SOL     OW34440   0.897  11.701  10.374
10848SOL    HW134441   0.879  11.716  10.467
10848SOL    HW234442   0.858  11.776  10.329
10849SOL     OW34443   6.585  12.444   4.273
10849SOL    HW134444   6.606  12.514   4.212
10849SOL    HW234445   6.666  12.431   4.324
10850SOL     OW34446  13.120  11.750   7.568
10850SOL    HW134447  13.144  11.664   7.534
10850SOL    HW234448  13.196  11.805   7.548
10851SOL     OW34449  11.919   9.082  14.657
10851SOL    HW134450  11.893   9.105  14.746
10851SOL    HW234451  11.984   9.013  14.667
10852SOL     OW34452  13.433   4.834   1.238
10852SOL    HW134453  13.374   4.908   1.251
10852SOL    HW234454  13.439   4.792   1.324
10853SOL     OW34455   6.184  11.081   9.289
10853SOL    HW134456   6.224  11.150   9.237
10853SOL    HW234457   6.180  11.117   9.377
10854SOL     OW34458   8.147   9.131   0.746
10854SOL    HW134459   8.104   9.133   0.660
10854SOL    HW234460   8.232   9.090   0.729
10855SOL     OW34461   5.994  14.600   4.244
10855SOL    HW134462   5.984  14.627   4.336
10855SOL    HW234463   6.053  14.664   4.206
10856SOL     OW34464   8.121   3.348   5.217
10856SOL    HW134465   8.175   3.387   5.148
10856SOL    HW234466   8.033   3.345   5.179
10857SOL     OW34467   2.922  12.552   7.735
10857SOL    HW134468   2.960  12.497   7.804
10857SOL    HW234469   2.923  12.640   7.772
10858SOL     OW34470   9.689   2.987   3.181
10858SOL    HW134471   9.709   2.963   3.091
10858SOL    HW234472   9.732   3.071   3.194
10859SOL     OW34473   2.344   4.038   7.626
10859SOL    HW134474   2.313   4.127   7.643
10859SOL    HW234475   2.295   3.983   7.687
10860SOL     OW34476   2.804   2.526   4.567
10860SOL    HW134477   2.893   2.492   4.580
10860SOL    HW234478   2.783   2.571   4.649
10861SOL     OW34479   3.218   7.928  13.723
10861SOL    HW134480   3.195   8.004  13.777
10861SOL    HW234481   3.155   7.861  13.748
10862SOL     OW34482   7.559   4.569   1.566
10862SOL    HW134483   7.556   4.479   1.600
10862SOL    HW234484   7.575   4.622   1.644
10863SOL     OW34485   9.012   2.947   8.417
10863SOL    HW134486   9.038   2.883   8.482
10863SOL    HW234487   9.002   3.029   8.466
10864SOL     OW34488  13.948   0.913   1.668
10864SOL    HW134489  13.928   0.819   1.664
10864SOL    HW234490  14.034   0.921   1.628
10865SOL     OW34491   4.018  14.716  10.630
10865SOL    HW134492   4.029  14.721  10.536
10865SOL    HW234493   4.076  14.645  10.658
10866SOL     OW34494   3.902   1.698  11.987
10866SOL    HW134495   3.846   1.758  12.036
10866SOL    HW234496   3.986   1.703  12.032
10867SOL     OW34497   5.627   1.795   9.561
10867SOL    HW134498   5.674   1.843   9.629
10867SOL    HW234499   5.535   1.805   9.585
10868SOL     OW34500  10.092  10.849   9.297
10868SOL    HW134501  10.012  10.838   9.246
10868SOL    HW234502  10.121  10.938   9.279
10869SOL     OW34503   7.056   4.618  13.467
10869SOL    HW134504   7.129   4.639  13.409
10869SOL    HW234505   7.008   4.700  13.477
10870SOL     OW34506   1.263  12.834   2.058
10870SOL    HW134507   1.252  12.739   2.063
10870SOL    HW234508   1.353  12.849   2.090
10871SOL     OW34509  10.031   3.762   8.093
10871SOL    HW134510   9.961   3.754   8.028
10871SOL    HW234511  10.110   3.736   8.046
10872SOL     OW34512   7.082   8.957   0.260
10872SOL    HW134513   6.993   8.929   0.284
10872SOL    HW234514   7.069   9.032   0.202
10873SOL     OW34515  13.178   5.185  11.581
10873SOL    HW134516  13.227   5.121  11.530
10873SOL    HW234517  13.120   5.227  11.517
10874SOL     OW34518   7.834   3.117  11.153
10874SOL    HW134519   7.821   3.023  11.170
10874SOL    HW234520   7.823   3.126  11.059
10875SOL     OW34521  11.623   6.363   4.707
10875SOL    HW134522  11.618   6.454   4.678
10875SOL    HW234523  11.585   6.363   4.795
10876SOL     OW34524   4.940  12.489   1.173
10876SOL    HW134525   5.024  12.521   1.139
10876SOL    HW234526   4.875  12.536   1.121
10877SOL     OW34527  10.451  14.674   6.798
10877SOL    HW134528  10.421  14.599   6.849
10877SOL    HW234529  10.541  14.688   6.826
10878SOL     OW34530   7.119   6.058  11.935
10878SOL    HW134531   7.162   6.016  12.010
10878SOL    HW234532   7.122   5.992  11.865
10879SOL     OW34533  10.211   3.603   3.967
10879SOL    HW134534  10.161   3.653   4.031
10879SOL    HW234535  10.204   3.654   3.886
10880SOL     OW34536   9.516   8.616  11.640
10880SOL    HW134537   9.502   8.603  11.733
10880SOL    HW234538   9.566   8.539  11.611
10881SOL     OW34539   1.837  13.055  12.772
10881SOL    HW134540   1.805  13.051  12.863
10881SOL    HW234541   1.765  13.019  12.720
10882SOL     OW34542   5.883   3.317   6.004
10882SOL    HW134543   5.924   3.280   5.925
10882SOL    HW234544   5.789   3.307   5.989
10883SOL     OW34545   2.518  10.853   0.024
10883SOL    HW134546   2.604  10.882   0.056
10883SOL    HW234547   2.538  10.808  14.813
10884SOL     OW34548   0.214  10.543  13.713
10884SOL    HW134549   0.169  10.490  13.648
10884SOL    HW234550   0.258  10.611  13.661
10885SOL     OW34551  14.641   4.309  13.792
10885SOL    HW134552  14.649   4.394  13.835
10885SOL    HW234553  14.573   4.322  13.727
10886SOL     OW34554   9.107   3.039  14.050
10886SOL    HW134555   9.123   3.067  13.960
10886SOL    HW234556   9.124   2.945  14.048
10887SOL     OW34557   4.384  12.716  12.231
10887SOL    HW134558   4.305  12.720  12.177
10887SOL    HW234559   4.413  12.625  12.226
10888SOL     OW34560  14.170  10.730   6.178
10888SOL    HW134561  14.214  10.654   6.216
10888SOL    HW234562  14.080  10.725   6.211
10889SOL     OW34563   7.156  10.303   6.939
10889SOL    HW134564   7.199  10.232   6.987
10889SOL    HW234565   7.116  10.357   7.007
10890SOL     OW34566   8.070   5.690   2.228
10890SOL    HW134567   8.077   5.597   2.251
10890SOL    HW234568   8.138   5.733   2.279
10891SOL     OW34569   3.015   2.676   2.420
10891SOL    HW134570   3.104   2.707   2.436
10891SOL    HW234571   3.024   2.581   2.411
10892SOL     OW34572   6.953  11.867   5.968
10892SOL    HW134573   6.958  11.929   6.042
10892SOL    HW234574   6.891  11.801   5.997
10893SOL     OW34575   4.472  10.150   4.595
10893SOL    HW134576   4.565  10.129   4.585
10893SOL    HW234577   4.444  10.178   4.507
10894SOL     OW34578   7.784  11.849   5.694
10894SOL    HW134579   7.719  11.790   5.656
10894SOL    HW234580   7.771  11.841   5.789
10895SOL     OW34581   3.212   6.400  14.693
10895SOL    HW134582   3.172   6.389  14.607
10895SOL    HW234583   3.141   6.428  14.750
10896SOL     OW34584   8.935   9.800   0.526
10896SOL    HW134585   8.845   9.781   0.551
10896SOL    HW234586   8.949   9.749   0.446
10897SOL     OW34587   5.162   9.642   3.354
10897SOL    HW134588   5.080   9.634   3.304
10897SOL    HW234589   5.136   9.689   3.434
10898SOL     OW34590   8.348   0.602   1.447
10898SOL    HW134591   8.376   0.622   1.536
10898SOL    HW234592   8.413   0.539   1.415
10899SOL     OW34593   6.592   1.570   3.822
10899SOL    HW134594   6.570   1.644   3.879
10899SOL    HW234595   6.511   1.550   3.775
10900SOL     OW34596   4.325   3.827   5.561
10900SOL    HW134597   4.264   3.856   5.493
10900SOL    HW234598   4.375   3.757   5.520
10901SOL     OW34599  10.454   8.420   9.574
10901SOL    HW134600  10.406   8.340   9.552
10901SOL    HW234601  10.469   8.463   9.490
10902SOL     OW34602   9.870  11.628  11.145
10902SOL    HW134603   9.927  11.669  11.079
10902SOL    HW234604   9.788  11.677  11.140
10903SOL     OW34605  11.141   0.014   1.865
10903SOL    HW134606  11.084   0.062   1.925
10903SOL    HW234607  11.130  14.794   1.889
10904SOL     OW34608   9.584   2.650   9.029
10904SOL    HW134609   9.583   2.565   9.074
10904SOL    HW234610   9.677   2.668   9.015
10905SOL     OW34611  12.472  10.576  12.683
10905SOL    HW134612  12.507  10.657  12.722
10905SOL    HW234613  12.413  10.541  12.750
10906SOL     OW34614   1.658   5.919   6.863
10906SOL    HW134615   1.576   5.967   6.867
10906SOL    HW234616   1.718   5.978   6.818
10907SOL     OW34617   3.399   0.871   4.509
10907SOL    HW134618   3.371   0.805   4.445
10907SOL    HW234619   3.334   0.866   4.578
10908SOL     OW34620   0.978   6.726   3.159
10908SOL    HW134621   1.045   6.733   3.091
10908SOL    HW234622   1.024   6.688   3.234
10909SOL     OW34623   7.314   7.610   3.226
10909SOL    HW134624   7.313   7.604   3.322
10909SOL    HW234625   7.388   7.667   3.206
10910SOL     OW34626  10.806   1.046  10.146
10910SOL    HW134627  10.738   1.064  10.081
10910SOL    HW234628  10.813   1.127  10.197
10911SOL     OW34629   3.560   2.404   0.710
10911SOL    HW134630   3.504   2.435   0.639
10911SOL    HW234631   3.500   2.357   0.768
10912SOL     OW34632   4.756   7.694  10.215
10912SOL    HW134633   4.842   7.662  10.188
10912SOL    HW234634   4.773   7.743  10.296
10913SOL     OW34635   1.064  11.138   0.028
10913SOL    HW134636   0.997  11.205   0.037
10913SOL    HW234637   1.023  11.058   0.062
10914SOL     OW34638   4.808   0.656  11.862
10914SOL    HW134639   4.788   0.721  11.796
10914SOL    HW234640   4.894   0.681  11.897
10915SOL     OW34641  14.333  12.860  13.622
10915SOL    HW134642  14.304  12.861  13.531
10915SOL    HW234643  14.402  12.794  13.624
10916SOL     OW34644   0.079   6.485   2.015
10916SOL    HW134645   0.151   6.498   1.953
10916SOL    HW234646   0.120   6.450   2.093
10917SOL     OW34647   5.567   7.612   4.858
10917SOL    HW134648   5.514   7.545   4.814
10917SOL    HW234649   5.505   7.679   4.884
10918SOL     OW34650   7.745   3.792  13.604
10918SOL    HW134651   7.682   3.810  13.674
10918SOL    HW234652   7.762   3.878  13.565
10919SOL     OW34653   0.111  14.319   2.632
10919SOL    HW134654   0.177  14.301   2.565
10919SOL    HW234655   0.027  14.306   2.588
10920SOL     OW34656  12.602   1.686   7.088
10920SOL    HW134657  12.658   1.729   7.152
10920SOL    HW234658  12.658   1.669   7.013
10921SOL     OW34659   9.985   3.439   5.682
10921SOL    HW134660   9.956   3.520   5.723
10921SOL    HW234661  10.066   3.416   5.728
10922SOL     OW34662   7.934  11.077  14.026
10922SOL    HW134663   7.937  11.136  13.951
10922SOL    HW234664   8.026  11.068  14.054
10923SOL     OW34665   0.773   7.421   8.696
10923SOL    HW134666   0.696   7.367   8.716
10923SOL    HW234667   0.749   7.470   8.618
10924SOL     OW34668   0.605   0.055   2.889
10924SOL    HW134669   0.550  14.857   2.923
10924SOL    HW234670   0.592   0.128   2.949
10925SOL     OW34671   2.319  13.424   6.155
10925SOL    HW134672   2.392  13.362   6.147
10925SOL    HW234673   2.256  13.395   6.089
10926SOL     OW34674  14.612   9.423  10.629
10926SOL    HW134675  14.633   9.345  10.681
10926SOL    HW234676  14.692   9.442  10.581
10927SOL     OW34677   4.146   6.583   8.057
10927SOL    HW134678   4.088   6.618   8.125
10927SOL    HW234679   4.211   6.533   8.105
10928SOL     OW34680   3.033   5.197  10.813
10928SOL    HW134681   3.069   5.111  10.834
10928SOL    HW234682   3.102   5.259  10.837
10929SOL     OW34683  10.506   9.627  11.592
10929SOL    HW134684  10.472   9.539  11.576
10929SOL    HW234685  10.442   9.666  11.652
10930SOL     OW34686   8.601   0.623   3.616
10930SOL    HW134687   8.661   0.577   3.558
10930SOL    HW234688   8.621   0.715   3.604
10931SOL     OW34689  11.993  13.005  10.870
10931SOL    HW134690  11.962  13.089  10.902
10931SOL    HW234691  11.961  13.001  10.780
10932SOL     OW34692   2.321   2.903  10.902
10932SOL    HW134693   2.404   2.896  10.948
10932SOL    HW234694   2.345   2.912  10.810
10933SOL     OW34695  11.841   5.284   1.687
10933SOL    HW134696  11.856   5.377   1.675
10933SOL    HW234697  11.910   5.256   1.748
10934SOL     OW34698   6.842  12.134   2.091
10934SOL    HW134699   6.890  12.162   2.169
10934SOL    HW234700   6.814  12.044   2.112
10935SOL     OW34701   5.494  14.216   6.921
10935SOL    HW134702   5.413  14.219   6.871
10935SOL    HW234703   5.508  14.307   6.948
10936SOL     OW34704   0.362   5.011   8.082
10936SOL    HW134705   0.283   4.976   8.041
10936SOL    HW234706   0.433   4.958   8.046
10937SOL     OW34707   1.439  10.800   2.266
10937SOL    HW134708   1.434  10.777   2.173
10937SOL    HW234709   1.504  10.740   2.302
10938SOL     OW34710   7.596   8.346  10.891
10938SOL    HW134711   7.585   8.404  10.967
10938SOL    HW234712   7.567   8.399  10.817
10939SOL     OW34713   9.906   9.158  10.103
10939SOL    HW134714   9.828   9.106  10.120
10939SOL    HW234715   9.968   9.132  10.171
10940SOL     OW34716  10.362   5.014  11.193
10940SOL    HW134717  10.444   5.020  11.242
10940SOL    HW234718  10.350   5.102  11.157
10941SOL     OW34719   5.081   2.344   6.257
10941SOL    HW134720   5.159   2.392   6.284
10941SOL    HW234721   5.064   2.373   6.168
10942SOL     OW34722   6.171   7.100   6.165
10942SOL    HW134723   6.266   7.114   6.157
10942SOL    HW234724   6.154   7.024   6.108
10943SOL     OW34725  12.549  12.887   5.811
10943SOL    HW134726  12.598  12.909   5.733
10943SOL    HW234727  12.555  12.964   5.867
10944SOL     OW34728   1.538  11.792   2.290
10944SOL    HW134729   1.591  11.794   2.210
10944SOL    HW234730   1.598  11.816   2.359
10945SOL     OW34731   4.712   5.933   1.241
10945SOL    HW134732   4.658   5.867   1.197
10945SOL    HW234733   4.789   5.885   1.271
10946SOL     OW34734  13.893  12.455   5.657
10946SOL    HW134735  13.866  12.376   5.610
10946SOL    HW234736  13.987  12.445   5.670
10947SOL     OW34737  12.155  14.635   2.903
10947SOL    HW134738  12.225  14.597   2.957
10947SOL    HW234739  12.167  14.730   2.912
10948SOL     OW34740  11.633   3.064   6.391
10948SOL    HW134741  11.553   3.108   6.362
10948SOL    HW234742  11.633   3.075   6.486
10949SOL     OW34743   4.581   9.660   7.123
10949SOL    HW134744   4.498   9.706   7.122
10949SOL    HW234745   4.558   9.568   7.139
10950SOL     OW34746   8.651   9.764  11.266
10950SOL    HW134747   8.638   9.802  11.353
10950SOL    HW234748   8.562   9.751  11.233
10951SOL     OW34749  12.331  12.614  10.033
10951SOL    HW134750  12.278  12.688  10.003
10951SOL    HW234751  12.377  12.584   9.955
10952SOL     OW34752  12.727   7.838   2.961
10952SOL    HW134753  12.681   7.875   3.036
10952SOL    HW234754  12.816   7.822   2.992
10953SOL     OW34755   1.933   0.883   3.996
10953SOL    HW134756   1.980   0.908   4.075
10953SOL    HW234757   1.911   0.966   3.954
10954SOL     OW34758  12.484  11.413   5.095
10954SOL    HW134759  12.394  11.446   5.101
10954SOL    HW234760  12.499  11.400   5.002
10955SOL     OW34761   1.289   9.871   9.279
10955SOL    HW134762   1.208   9.912   9.310
10955SOL    HW234763   1.296   9.790   9.329
10956SOL     OW34764   3.875  14.264   5.978
10956SOL    HW134765   3.923  14.284   5.898
10956SOL    HW234766   3.898  14.173   5.997
10957SOL     OW34767   1.554   9.952  12.614
10957SOL    HW134768   1.587  10.040  12.598
10957SOL    HW234769   1.589   9.900  12.542
10958SOL     OW34770  13.009  12.415   0.230
10958SOL    HW134771  12.969  12.442   0.148
10958SOL    HW234772  13.093  12.460   0.232
10959SOL     OW34773   6.334   5.925   6.991
10959SOL    HW134774   6.340   5.870   7.069
10959SOL    HW234775   6.413   5.978   6.992
10960SOL     OW34776  13.205   9.575   1.124
10960SOL    HW134777  13.257   9.589   1.203
10960SOL    HW234778  13.172   9.486   1.131
10961SOL     OW34779   2.198   6.984  11.558
10961SOL    HW134780   2.140   6.995  11.483
10961SOL    HW234781   2.169   7.051  11.620
10962SOL     OW34782  12.039  12.741   2.107
10962SOL    HW134783  11.996  12.700   2.181
10962SOL    HW234784  12.047  12.833   2.132
10963SOL     OW34785   2.613   2.267   2.700
10963SOL    HW134786   2.562   2.195   2.737
10963SOL    HW234787   2.616   2.333   2.769
10964SOL     OW34788   4.927   0.610   5.859
10964SOL    HW134789   4.863   0.608   5.787
10964SOL    HW234790   4.999   0.662   5.824
10965SOL     OW34791   7.118  12.140  12.944
10965SOL    HW134792   7.041  12.125  12.888
10965SOL    HW234793   7.182  12.074  12.916
10966SOL     OW34794   9.790  10.015   0.756
10966SOL    HW134795   9.737  10.070   0.813
10966SOL    HW234796   9.737  10.004   0.677
10967SOL     OW34797   0.535   7.312   4.696
10967SOL    HW134798   0.495   7.297   4.782
10967SOL    HW234799   0.477   7.375   4.654
10968SOL     OW34800  13.659   4.452  14.822
10968SOL    HW134801  13.730   4.392  14.800
10968SOL    HW234802  13.696   4.508   0.020
10969SOL     OW34803   9.127   2.234  10.049
10969SOL    HW134804   9.194   2.184  10.097
10969SOL    HW234805   9.174   2.311  10.016
10970SOL     OW34806   4.167   5.737   7.831
10970SOL    HW134807   4.227   5.783   7.889
10970SOL    HW234808   4.174   5.645   7.858
10971SOL     OW34809  12.674  13.398   9.789
10971SOL    HW134810  12.670  13.317   9.840
10971SOL    HW234811  12.670  13.468   9.855
10972SOL     OW34812   6.244  14.239   7.598
10972SOL    HW134813   6.246  14.295   7.521
10972SOL    HW234814   6.284  14.157   7.569
10973SOL     OW34815   6.796   9.828   1.235
10973SOL    HW134816   6.768   9.853   1.324
10973SOL    HW234817   6.845   9.747   1.247
10974SOL     OW34818   8.246   5.211   8.114
10974SOL    HW134819   8.292   5.292   8.092
10974SOL    HW234820   8.155   5.227   8.088
10975SOL     OW34821   7.237  13.314   2.834
10975SOL    HW134822   7.278  13.252   2.774
10975SOL    HW234823   7.303  13.381   2.849
10976SOL     OW34824  13.407   3.477   3.397
10976SOL    HW134825  13.462   3.532   3.341
10976SOL    HW234826  13.374   3.538   3.464
10977SOL     OW34827  12.436   0.798   0.392
10977SOL    HW134828  12.525   0.805   0.425
10977SOL    HW234829  12.441   0.829   0.302
10978SOL     OW34830  14.276  11.503  10.589
10978SOL    HW134831  14.239  11.522  10.503
10978SOL    HW234832  14.371  11.509  10.577
10979SOL     OW34833  10.686   2.696   7.483
10979SOL    HW134834  10.730   2.770   7.525
10979SOL    HW234835  10.757   2.649   7.438
10980SOL     OW34836   1.309  14.615   8.798
10980SOL    HW134837   1.256  14.686   8.835
10980SOL    HW234838   1.379  14.602   8.861
10981SOL     OW34839   5.252   9.585   2.630
10981SOL    HW134840   5.229   9.500   2.593
10981SOL    HW234841   5.168   9.625   2.653
10982SOL     OW34842   8.099   3.337   6.468
10982SOL    HW134843   8.066   3.248   6.452
10982SOL    HW234844   8.043   3.371   6.538
10983SOL     OW34845   3.534   3.101  13.504
10983SOL    HW134846   3.538   3.178  13.447
10983SOL    HW234847   3.504   3.030  13.447
10984SOL     OW34848   5.393  10.598   9.914
10984SOL    HW134849   5.449  10.521   9.902
10984SOL    HW234850   5.304  10.564   9.916
10985SOL     OW34851  12.282   5.093  11.544
10985SOL    HW134852  12.293   5.023  11.479
10985SOL    HW234853  12.201   5.137  11.518
10986SOL     OW34854   6.455   1.080   8.540
10986SOL    HW134855   6.412   0.996   8.522
10986SOL    HW234856   6.538   1.056   8.580
10987SOL     OW34857   1.530   2.871   3.041
10987SOL    HW134858   1.622   2.881   3.015
10987SOL    HW234859   1.520   2.929   3.116
10988SOL     OW34860   4.528  12.350   6.366
10988SOL    HW134861   4.495  12.261   6.379
10988SOL    HW234862   4.483  12.381   6.287
10989SOL     OW34863   6.178   5.706  10.514
10989SOL    HW134864   6.218   5.620  10.503
10989SOL    HW234865   6.157   5.711  10.607
10990SOL     OW34866   7.234   8.380  13.339
10990SOL    HW134867   7.250   8.424  13.423
10990SOL    HW234868   7.180   8.304  13.362
10991SOL     OW34869   7.397   6.735   1.883
10991SOL    HW134870   7.459   6.782   1.828
10991SOL    HW234871   7.449   6.704   1.957
10992SOL     OW34872   9.105   7.697  11.023
10992SOL    HW134873   9.050   7.642  11.078
10992SOL    HW234874   9.087   7.668  10.934
10993SOL     OW34875  10.455   0.689   0.065
10993SOL    HW134876  10.362   0.685   0.042
10993SOL    HW234877  10.498   0.715  14.855
10994SOL     OW34878   2.042  12.276  12.837
10994SOL    HW134879   2.127  12.233  12.839
10994SOL    HW234880   2.040  12.329  12.917
10995SOL     OW34881  13.705   1.989   2.853
10995SOL    HW134882  13.672   1.912   2.806
10995SOL    HW234883  13.657   1.990   2.935
10996SOL     OW34884  14.684   7.975   3.121
10996SOL    HW134885  14.660   7.992   3.030
10996SOL    HW234886  14.645   8.047   3.171
10997SOL     OW34887   6.648   0.548  12.602
10997SOL    HW134888   6.590   0.476  12.624
10997SOL    HW234889   6.625   0.617  12.665
10998SOL     OW34890   7.719  14.684   6.544
10998SOL    HW134891   7.766  14.697   6.626
10998SOL    HW234892   7.649  14.623   6.566
10999SOL     OW34893   2.976  14.330  14.384
10999SOL    HW134894   3.029  14.303  14.459
10999SOL    HW234895   2.945  14.418  14.406
11000SOL     OW34896  10.046   9.842  11.449
11000SOL    HW134897  10.005   9.777  11.507
11000SOL    HW234898   9.985   9.851  11.376
11001SOL     OW34899  10.709  12.176  14.002
11001SOL    HW134900  10.699  12.124  14.082
11001SOL    HW234901  10.797  12.213  14.009
11002SOL     OW34902  12.060  10.766  14.020
11002SOL    HW134903  12.145  10.721  14.025
11002SOL    HW234904  11.999  10.698  13.991
11003SOL     OW34905  11.915   2.450   7.807
11003SOL    HW134906  11.857   2.448   7.731
11003SOL    HW234907  11.948   2.360   7.815
11004SOL     OW34908  12.895   1.648   1.715
11004SOL    HW134909  12.839   1.687   1.648
11004SOL    HW234910  12.913   1.560   1.682
11005SOL     OW34911  14.353   3.306   3.720
11005SOL    HW134912  14.403   3.309   3.638
11005SOL    HW234913  14.419   3.293   3.788
11006SOL     OW34914   6.195   6.064   2.991
11006SOL    HW134915   6.289   6.084   2.988
11006SOL    HW234916   6.152   6.148   3.003
11007SOL     OW34917  13.575   0.773   0.602
11007SOL    HW134918  13.540   0.857   0.573
11007SOL    HW234919  13.572   0.777   0.698
11008SOL     OW34920   8.657   4.598  13.132
11008SOL    HW134921   8.613   4.612  13.049
11008SOL    HW234922   8.667   4.686  13.170
11009SOL     OW34923   4.614   5.352  13.760
11009SOL    HW134924   4.544   5.416  13.755
11009SOL    HW234925   4.690   5.400  13.793
11010SOL     OW34926   4.478   9.819   1.065
11010SOL    HW134927   4.451   9.731   1.040
11010SOL    HW234928   4.530   9.850   0.991
11011SOL     OW34929   1.324   4.001   0.003
11011SOL    HW134930   1.320   4.049  14.792
11011SOL    HW234931   1.233   3.985   0.027
11012SOL     OW34932   3.749   1.317   0.159
11012SOL    HW134933   3.797   1.342   0.080
11012SOL    HW234934   3.662   1.356   0.147
11013SOL     OW34935  14.023   5.419   8.299
11013SOL    HW134936  14.085   5.353   8.267
11013SOL    HW234937  14.075   5.499   8.307
11014SOL     OW34938   1.667  11.353   6.966
11014SOL    HW134939   1.731  11.338   6.897
11014SOL    HW234940   1.706  11.313   7.044
11015SOL     OW34941  13.218   2.684  14.373
11015SOL    HW134942  13.225   2.778  14.394
11015SOL    HW234943  13.209   2.641  14.457
11016SOL     OW34944   5.263   3.907  13.268
11016SOL    HW134945   5.318   3.920  13.346
11016SOL    HW234946   5.250   3.995  13.233
11017SOL     OW34947   2.537  13.326  13.696
11017SOL    HW134948   2.543  13.237  13.733
11017SOL    HW234949   2.479  13.316  13.620
11018SOL     OW34950   6.214   6.413  13.609
11018SOL    HW134951   6.272   6.459  13.549
11018SOL    HW234952   6.271   6.389  13.683
11019SOL     OW34953   2.226  13.524   5.578
11019SOL    HW134954   2.172  13.559   5.649
11019SOL    HW234955   2.262  13.443   5.614
11020SOL     OW34956  13.547   8.981   9.799
11020SOL    HW134957  13.510   9.020   9.878
11020SOL    HW234958  13.541   8.886   9.813
11021SOL     OW34959   0.453  10.735   7.475
11021SOL    HW134960   0.399  10.725   7.553
11021SOL    HW234961   0.529  10.678   7.491
11022SOL     OW34962  13.459   5.638   6.759
11022SOL    HW134963  13.376   5.591   6.759
11022SOL    HW234964  13.498   5.618   6.845
11023SOL     OW34965   1.004  10.082   1.932
11023SOL    HW134966   1.060  10.106   1.858
11023SOL    HW234967   1.034   9.995   1.958
11024SOL     OW34968   8.760  10.526   9.488
11024SOL    HW134969   8.727  10.611   9.518
11024SOL    HW234970   8.710  10.462   9.537
11025SOL     OW34971  14.104  10.953  14.078
11025SOL    HW134972  14.033  11.005  14.038
11025SOL    HW234973  14.173  11.017  14.094
11026SOL     OW34974  12.644  14.836   6.004
11026SOL    HW134975  12.683  14.749   5.997
11026SOL    HW234976  12.549  14.820   5.999
11027SOL     OW34977   1.114   4.412  14.089
11027SOL    HW134978   1.162   4.329  14.092
11027SOL    HW234979   1.093   4.431  14.180
11028SOL     OW34980   2.274   5.566  10.817
11028SOL    HW134981   2.288   5.481  10.775
11028SOL    HW234982   2.229   5.545  10.899
11029SOL     OW34983  14.631   9.511   2.964
11029SOL    HW134984  14.646   9.568   3.039
11029SOL    HW234985  14.690   9.545   2.896
11030SOL     OW34986   4.802   9.426  10.633
11030SOL    HW134987   4.849   9.461  10.557
11030SOL    HW234988   4.866   9.372  10.678
11031SOL     OW34989   7.430   4.914   9.365
11031SOL    HW134990   7.355   4.894   9.420
11031SOL    HW234991   7.392   4.936   9.280
11032SOL     OW34992   4.946   3.420  11.845
11032SOL    HW134993   4.983   3.343  11.803
11032SOL    HW234994   4.851   3.410  11.835
11033SOL     OW34995   0.098   8.329   0.294
11033SOL    HW134996   0.062   8.250   0.335
11033SOL    HW234997   0.183   8.342   0.337
11034SOL     OW34998   7.066   5.325   0.529
11034SOL    HW134999   7.002   5.281   0.473
11034SOL    HW235000   7.150   5.288   0.503
11035SOL     OW35001  14.647   1.613  14.606
11035SOL    HW135002  14.717   1.665  14.646
11035SOL    HW235003  14.567   1.644  14.650
11036SOL     OW35004   6.004   4.704   5.630
11036SOL    HW135005   6.019   4.621   5.675
11036SOL    HW235006   5.929   4.688   5.573
11037SOL     OW35007   1.056   2.169  13.192
11037SOL    HW135008   1.028   2.259  13.173
11037SOL    HW235009   1.147   2.177  13.221
11038SOL     OW35010   3.253   8.631  12.289
11038SOL    HW135011   3.292   8.712  12.321
11038SOL    HW235012   3.303   8.561  12.331
11039SOL     OW35013  11.449   0.363   9.580
11039SOL    HW135014  11.389   0.341   9.651
11039SOL    HW235015  11.396   0.351   9.501
11040SOL     OW35016  11.011  13.080  14.700
11040SOL    HW135017  11.030  13.149  14.762
11040SOL    HW235018  11.016  12.999  14.751
11041SOL     OW35019  11.308   7.028  10.722
11041SOL    HW135020  11.366   7.016  10.798
11041SOL    HW235021  11.311   6.944  10.676
11042SOL     OW35022  12.570   3.930  13.942
11042SOL    HW135023  12.569   4.023  13.965
11042SOL    HW235024  12.594   3.885  14.023
11043SOL     OW35025   4.512  14.584   0.630
11043SOL    HW135026   4.437  14.534   0.600
11043SOL    HW235027   4.559  14.607   0.550
11044SOL     OW35028   4.446   4.309   4.530
11044SOL    HW135029   4.448   4.276   4.440
11044SOL    HW235030   4.367   4.362   4.534
11045SOL     OW35031   6.348   3.404   7.373
11045SOL    HW135032   6.354   3.432   7.464
11045SOL    HW235033   6.438   3.388   7.346
11046SOL     OW35034   2.001  10.362   5.870
11046SOL    HW135035   1.959  10.307   5.803
11046SOL    HW235036   1.935  10.427   5.893
11047SOL     OW35037  13.203   4.990   8.919
11047SOL    HW135038  13.125   4.936   8.930
11047SOL    HW235039  13.200   5.051   8.992
11048SOL     OW35040   1.206  14.100  12.704
11048SOL    HW135041   1.247  14.115  12.619
11048SOL    HW235042   1.131  14.043  12.685
11049SOL     OW35043   5.319   3.886   1.744
11049SOL    HW135044   5.278   3.802   1.726
11049SOL    HW235045   5.256   3.932   1.800
11050SOL     OW35046  10.682  12.094   8.533
11050SOL    HW135047  10.619  12.022   8.534
11050SOL    HW235048  10.748  12.068   8.469
11051SOL     OW35049   0.311   6.244   1.519
11051SOL    HW135050   0.378   6.282   1.462
11051SOL    HW235051   0.228   6.274   1.483
11052SOL     OW35052  13.949   5.911  12.847
11052SOL    HW135053  13.876   5.863  12.886
11052SOL    HW235054  14.008   5.843  12.816
11053SOL     OW35055  11.268  10.194   1.290
11053SOL    HW135056  11.226  10.108   1.296
11053SOL    HW235057  11.213  10.251   1.345
11054SOL     OW35058   8.826   7.142   4.490
11054SOL    HW135059   8.767   7.172   4.559
11054SOL    HW235060   8.769   7.124   4.416
11055SOL     OW35061   0.174  11.973   9.831
11055SOL    HW135062   0.224  11.892   9.830
11055SOL    HW235063   0.098  11.955   9.776
11056SOL     OW35064   5.728   0.184   2.215
11056SOL    HW135065   5.691   0.103   2.181
11056SOL    HW235066   5.747   0.165   2.307
11057SOL     OW35067  11.894   2.980  11.908
11057SOL    HW135068  11.881   2.990  12.002
11057SOL    HW235069  11.824   2.922  11.879
11058SOL     OW35070  14.279   4.445   3.115
11058SOL    HW135071  14.303   4.535   3.138
11058SOL    HW235072  14.220   4.454   3.040
11059SOL     OW35073  12.460   8.832  13.011
11059SOL    HW135074  12.492   8.916  13.043
11059SOL    HW235075  12.365   8.835  13.024
11060SOL     OW35076   1.865  12.597   0.318
11060SOL    HW135077   1.867  12.506   0.289
11060SOL    HW235078   1.908  12.645   0.247
11061SOL     OW35079   6.096   8.335   3.475
11061SOL    HW135080   6.168   8.276   3.499
11061SOL    HW235081   6.124   8.421   3.505
11062SOL     OW35082   5.101   5.352  12.868
11062SOL    HW135083   5.174   5.396  12.912
11062SOL    HW235084   5.142   5.286  12.812
11063SOL     OW35085   0.735   5.606   1.933
11063SOL    HW135086   0.752   5.699   1.946
11063SOL    HW235087   0.818   5.570   1.901
11064SOL     OW35088  10.394   0.009  12.328
11064SOL    HW135089  10.422   0.082  12.273
11064SOL    HW235090  10.320  14.842  12.281
11065SOL     OW35091   3.024  12.586  11.352
11065SOL    HW135092   3.090  12.581  11.421
11065SOL    HW235093   3.051  12.520  11.288
11066SOL     OW35094  14.718   7.796   1.109
11066SOL    HW135095  14.739   7.853   1.184
11066SOL    HW235096  14.630   7.764   1.128
11067SOL     OW35097   6.609   4.788   2.913
11067SOL    HW135098   6.521   4.755   2.931
11067SOL    HW235099   6.667   4.724   2.953
11068SOL     OW35100  13.694   7.265   7.492
11068SOL    HW135101  13.608   7.230   7.467
11068SOL    HW235102  13.716   7.217   7.572
11069SOL     OW35103   2.534   9.722   5.214
11069SOL    HW135104   2.496   9.763   5.137
11069SOL    HW235105   2.486   9.639   5.223
11070SOL     OW35106   0.609   5.582   7.552
11070SOL    HW135107   0.602   5.487   7.558
11070SOL    HW235108   0.528   5.610   7.510
11071SOL     OW35109   6.306  12.098  11.034
11071SOL    HW135110   6.389  12.139  11.057
11071SOL    HW235111   6.241  12.166  11.047
11072SOL     OW35112  13.327   8.476  10.717
11072SOL    HW135113  13.301   8.439  10.802
11072SOL    HW235114  13.287   8.563  10.716
11073SOL     OW35115   5.353  11.507  12.341
11073SOL    HW135116   5.313  11.463  12.267
11073SOL    HW235117   5.443  11.525  12.314
11074SOL     OW35118   9.084   5.563   2.770
11074SOL    HW135119   9.108   5.648   2.806
11074SOL    HW235120   9.131   5.500   2.825
11075SOL     OW35121   3.642  12.017  11.396
11075SOL    HW135122   3.651  11.969  11.314
11075SOL    HW235123   3.664  12.107  11.374
11076SOL     OW35124   5.156   7.359   5.416
11076SOL    HW135125   5.107   7.281   5.390
11076SOL    HW235126   5.099   7.404   5.478
11077SOL     OW35127  10.504  10.318   5.845
11077SOL    HW135128  10.462  10.404   5.849
11077SOL    HW235129  10.558  10.315   5.925
11078SOL     OW35130   0.495   6.029   6.385
11078SOL    HW135131   0.547   6.025   6.466
11078SOL    HW235132   0.498   6.121   6.360
11079SOL     OW35133   5.794   7.607  11.244
11079SOL    HW135134   5.875   7.655  11.264
11079SOL    HW235135   5.808   7.520  11.283
11080SOL     OW35136  10.416  10.190   6.191
11080SOL    HW135137  10.443  10.274   6.229
11080SOL    HW235138  10.493  10.159   6.143
11081SOL     OW35139   3.723   2.638   4.166
11081SOL    HW135140   3.726   2.641   4.261
11081SOL    HW235141   3.695   2.548   4.146
11082SOL     OW35142   7.350   7.989  11.622
11082SOL    HW135143   7.353   8.019  11.713
11082SOL    HW235144   7.417   7.922  11.616
11083SOL     OW35145  12.727  13.260   2.818
11083SOL    HW135146  12.759  13.350   2.817
11083SOL    HW235147  12.665  13.257   2.745
11084SOL     OW35148   0.219  14.255   5.906
11084SOL    HW135149   0.233  14.283   5.815
11084SOL    HW235150   0.221  14.159   5.902
11085SOL     OW35151   5.847  13.791   9.823
11085SOL    HW135152   5.828  13.710   9.775
11085SOL    HW235153   5.892  13.762   9.902
11086SOL     OW35154  12.386   7.999   1.526
11086SOL    HW135155  12.331   7.979   1.601
11086SOL    HW235156  12.377   7.923   1.468
11087SOL     OW35157  14.412  12.373  14.801
11087SOL    HW135158  14.356  12.305  14.762
11087SOL    HW235159  14.501  12.341  14.787
11088SOL     OW35160  10.143   1.639  13.877
11088SOL    HW135161  10.150   1.723  13.921
11088SOL    HW235162  10.195   1.649  13.797
11089SOL     OW35163  10.898   7.148  11.839
11089SOL    HW135164  10.856   7.084  11.896
11089SOL    HW235165  10.825   7.198  11.802
11090SOL     OW35166   3.574   8.853   7.736
11090SOL    HW135167   3.487   8.831   7.703
11090SOL    HW235168   3.629   8.780   7.709
11091SOL     OW35169   4.301  11.917  13.389
11091SOL    HW135170   4.311  11.941  13.481
11091SOL    HW235171   4.349  11.835  13.380
11092SOL     OW35172   6.253   3.218  12.791
11092SOL    HW135173   6.191   3.159  12.835
11092SOL    HW235174   6.270   3.176  12.707
11093SOL     OW35175   3.410   2.174   6.058
11093SOL    HW135176   3.331   2.229   6.062
11093SOL    HW235177   3.469   2.213   6.122
11094SOL     OW35178  12.054   9.948   4.432
11094SOL    HW135179  12.145   9.978   4.429
11094SOL    HW235180  12.051   9.891   4.510
11095SOL     OW35181   0.344   5.409   6.193
11095SOL    HW135182   0.370   5.444   6.108
11095SOL    HW235183   0.305   5.484   6.238
11096SOL     OW35184   2.240   3.044   3.641
11096SOL    HW135185   2.304   2.974   3.640
11096SOL    HW235186   2.192   3.032   3.723
11097SOL     OW35187   1.867   6.484  10.231
11097SOL    HW135188   1.947   6.465  10.282
11097SOL    HW235189   1.797   6.481  10.296
11098SOL     OW35190   3.660   1.926  12.674
11098SOL    HW135191   3.659   1.966  12.587
11098SOL    HW235192   3.581   1.960  12.717
11099SOL     OW35193   4.949   4.579  13.878
11099SOL    HW135194   4.882   4.582  13.810
11099SOL    HW235195   4.938   4.660  13.927
11100SOL     OW35196   4.685   5.677  14.004
11100SOL    HW135197   4.596   5.704  14.026
11100SOL    HW235198   4.708   5.611  14.069
11101SOL     OW35199   9.226   9.234  10.677
11101SOL    HW135200   9.178   9.153  10.695
11101SOL    HW235201   9.162   9.304  10.695
11102SOL     OW35202  10.440  10.068   3.572
11102SOL    HW135203  10.459   9.978   3.600
11102SOL    HW235204  10.522  10.099   3.533
11103SOL     OW35205   3.687   2.528  11.519
11103SOL    HW135206   3.636   2.454  11.550
11103SOL    HW235207   3.769   2.490  11.488
11104SOL     OW35208   6.509   5.123  13.228
11104SOL    HW135209   6.498   5.197  13.168
11104SOL    HW235210   6.435   5.065  13.209
11105SOL     OW35211   6.873   2.013   0.530
11105SOL    HW135212   6.948   2.028   0.588
11105SOL    HW235213   6.803   1.984   0.588
11106SOL     OW35214  12.286   6.918   8.376
11106SOL    HW135215  12.324   6.948   8.459
11106SOL    HW235216  12.193   6.908   8.393
11107SOL     OW35217   3.906   4.404   0.071
11107SOL    HW135218   3.977   4.353   0.031
11107SOL    HW235219   3.910   4.489   0.028
11108SOL     OW35220  12.244   4.071   3.908
11108SOL    HW135221  12.229   4.134   3.978
11108SOL    HW235222  12.304   4.114   3.849
11109SOL     OW35223   0.757   4.926   6.774
11109SOL    HW135224   0.709   4.978   6.838
11109SOL    HW235225   0.822   4.879   6.825
11110SOL     OW35226   7.821  10.447   9.693
11110SOL    HW135227   7.768  10.380   9.650
11110SOL    HW235228   7.780  10.530   9.668
11111SOL     OW35229  12.998   3.956  14.608
11111SOL    HW135230  12.944   3.976  14.684
11111SOL    HW235231  12.940   3.969  14.533
11112SOL     OW35232   7.465   7.077   7.272
11112SOL    HW135233   7.535   7.012   7.264
11112SOL    HW235234   7.508   7.155   7.306
11113SOL     OW35235   1.829   8.872  12.966
11113SOL    HW135236   1.895   8.870  12.896
11113SOL    HW235237   1.755   8.824  12.930
11114SOL     OW35238  10.507   9.307   4.008
11114SOL    HW135239  10.523   9.371   3.939
11114SOL    HW235240  10.412   9.309   4.021
11115SOL     OW35241   5.706  10.035  13.101
11115SOL    HW135242   5.743  10.113  13.142
11115SOL    HW235243   5.779   9.997  13.052
11116SOL     OW35244   5.361   8.209   2.667
11116SOL    HW135245   5.438   8.169   2.709
11116SOL    HW235246   5.385   8.217   2.575
11117SOL     OW35247   5.533  11.152   8.625
11117SOL    HW135248   5.563  11.162   8.535
11117SOL    HW235249   5.470  11.080   8.621
11118SOL     OW35250   9.955   6.367   5.812
11118SOL    HW135251   9.993   6.327   5.734
11118SOL    HW235252   9.894   6.432   5.777
11119SOL     OW35253   8.352   5.781   2.964
11119SOL    HW135254   8.411   5.750   3.032
11119SOL    HW235255   8.325   5.701   2.917
11120SOL     OW35256  11.952  13.830   2.768
11120SOL    HW135257  11.909  13.879   2.698
11120SOL    HW235258  12.032  13.796   2.728
11121SOL     OW35259   3.160  10.907   0.413
11121SOL    HW135260   3.180  10.942   0.500
11121SOL    HW235261   3.153  10.813   0.426
11122SOL     OW35262   6.350   2.795  12.115
11122SOL    HW135263   6.272   2.744  12.091
11122SOL    HW235264   6.381   2.832  12.033
11123SOL     OW35265   2.004  11.707  12.728
11123SOL    HW135266   1.926  11.679  12.776
11123SOL    HW235267   2.016  11.798  12.754
11124SOL     OW35268   4.431   2.168  13.079
11124SOL    HW135269   4.400   2.246  13.032
11124SOL    HW235270   4.449   2.200  13.168
11125SOL     OW35271   0.424   4.031   9.231
11125SOL    HW135272   0.443   4.100   9.167
11125SOL    HW235273   0.486   3.962   9.211
11126SOL     OW35274   7.454   8.292   1.348
11126SOL    HW135275   7.457   8.348   1.425
11126SOL    HW235276   7.363   8.261   1.343
11127SOL     OW35277   1.941   9.762   1.739
11127SOL    HW135278   1.979   9.689   1.786
11127SOL    HW235279   1.852   9.733   1.718
11128SOL     OW35280  14.062   8.942   9.577
11128SOL    HW135281  14.072   8.852   9.543
11128SOL    HW235282  14.137   8.989   9.541
11129SOL     OW35283   8.560   5.931  13.973
11129SOL    HW135284   8.652   5.929  13.948
11129SOL    HW235285   8.548   6.016  14.015
11130SOL     OW35286   5.816   9.319  14.638
11130SOL    HW135287   5.739   9.293  14.587
11130SOL    HW235288   5.889   9.274  14.595
11131SOL     OW35289   7.600   4.849   6.484
11131SOL    HW135290   7.564   4.936   6.497
11131SOL    HW235291   7.526   4.797   6.450
11132SOL     OW35292   6.166   9.364  13.573
11132SOL    HW135293   6.213   9.439  13.535
11132SOL    HW235294   6.107   9.335  13.503
11133SOL     OW35295   5.214   2.368  11.680
11133SOL    HW135296   5.288   2.427  11.669
11133SOL    HW235297   5.139   2.416  11.645
11134SOL     OW35298  11.956   2.961   2.001
11134SOL    HW135299  12.030   2.983   2.058
11134SOL    HW235300  11.982   2.880   1.958
11135SOL     OW35301   6.925  14.401  12.552
11135SOL    HW135302   6.974  14.420  12.632
11135SOL    HW235303   6.987  14.352  12.497
11136SOL     OW35304  10.038   8.052   6.530
11136SOL    HW135305   9.948   8.085   6.532
11136SOL    HW235306  10.087   8.119   6.482
11137SOL     OW35307  12.492   7.445   6.842
11137SOL    HW135308  12.408   7.402   6.825
11137SOL    HW235309  12.557   7.386   6.805
11138SOL     OW35310   4.644   1.345   6.730
11138SOL    HW135311   4.549   1.333   6.741
11138SOL    HW235312   4.682   1.263   6.759
11139SOL     OW35313  13.488   0.487   2.803
11139SOL    HW135314  13.540   0.420   2.758
11139SOL    HW235315  13.526   0.491   2.891
11140SOL     OW35316   7.306   8.005   5.766
11140SOL    HW135317   7.286   7.915   5.740
11140SOL    HW235318   7.338   8.047   5.686
11141SOL     OW35319  10.480  12.732   9.336
11141SOL    HW135320  10.551  12.761   9.393
11141SOL    HW235321  10.401  12.767   9.377
11142SOL     OW35322  10.869   4.516  13.052
11142SOL    HW135323  10.940   4.452  13.059
11142SOL    HW235324  10.902   4.593  13.099
11143SOL     OW35325   5.572   0.483   4.310
11143SOL    HW135326   5.512   0.508   4.239
11143SOL    HW235327   5.569   0.556   4.371
11144SOL     OW35328   6.782  14.045   2.779
11144SOL    HW135329   6.857  13.989   2.799
11144SOL    HW235330   6.775  14.044   2.684
11145SOL     OW35331   1.266  10.744   6.594
11145SOL    HW135332   1.240  10.706   6.510
11145SOL    HW235333   1.253  10.673   6.657
11146SOL     OW35334   7.086   1.660  11.385
11146SOL    HW135335   7.016   1.702  11.334
11146SOL    HW235336   7.045   1.638  11.468
11147SOL     OW35337  10.066   1.607   1.683
11147SOL    HW135338  10.147   1.558   1.669
11147SOL    HW235339   9.999   1.540   1.699
11148SOL     OW35340   7.709  12.894   9.632
11148SOL    HW135341   7.674  12.805   9.639
11148SOL    HW235342   7.723  12.921   9.722
11149SOL     OW35343   0.989   2.284   2.086
11149SOL    HW135344   0.915   2.335   2.053
11149SOL    HW235345   0.956   2.195   2.092
11150SOL     OW35346  10.268   0.102   1.338
11150SOL    HW135347  10.208   0.039   1.298
11150SOL    HW235348  10.303   0.153   1.265
11151SOL     OW35349   1.153   6.244  14.207
11151SOL    HW135350   1.069   6.250  14.253
11151SOL    HW235351   1.203   6.180  14.258
11152SOL     OW35352   3.934  12.057   3.033
11152SOL    HW135353   3.899  11.993   3.095
11152SOL    HW235354   3.908  12.142   3.068
11153SOL     OW35355   4.240  10.789   7.502
11153SOL    HW135356   4.335  10.784   7.488
11153SOL    HW235357   4.210  10.855   7.440
11154SOL     OW35358   8.114   5.644  13.523
11154SOL    HW135359   8.127   5.622  13.615
11154SOL    HW235360   8.190   5.608  13.478
11155SOL     OW35361   1.098   0.484   8.147
11155SOL    HW135362   1.113   0.571   8.184
11155SOL    HW235363   1.031   0.445   8.202
11156SOL     OW35364  12.643  13.597   1.030
11156SOL    HW135365  12.736  13.573   1.024
11156SOL    HW235366  12.627  13.606   1.124
11157SOL     OW35367   8.477  12.585   2.356
11157SOL    HW135368   8.493  12.629   2.440
11157SOL    HW235369   8.395  12.538   2.369
11158SOL     OW35370   4.952  13.554   4.333
11158SOL    HW135371   4.856  13.560   4.338
11158SOL    HW235372   4.974  13.596   4.250
11159SOL     OW35373   7.002   3.259   4.787
11159SOL    HW135374   7.002   3.173   4.830
11159SOL    HW235375   7.025   3.240   4.696
11160SOL     OW35376   9.182   0.663   4.640
11160SOL    HW135377   9.205   0.571   4.625
11160SOL    HW235378   9.260   0.701   4.681
11161SOL     OW35379   8.562   1.318  10.484
11161SOL    HW135380   8.522   1.402  10.459
11161SOL    HW235381   8.542   1.309  10.577
11162SOL     OW35382   6.776   8.898  11.783
11162SOL    HW135383   6.822   8.973  11.819
11162SOL    HW235384   6.688   8.903  11.821
11163SOL     OW35385   7.476  13.041   9.233
11163SOL    HW135386   7.399  13.015   9.181
11163SOL    HW235387   7.447  13.118   9.282
11164SOL     OW35388  12.806   2.569  13.839
11164SOL    HW135389  12.846   2.655  13.831
11164SOL    HW235390  12.880   2.510  13.854
11165SOL     OW35391   4.473   8.461  10.124
11165SOL    HW135392   4.511   8.388  10.076
11165SOL    HW235393   4.516   8.459  10.209
11166SOL     OW35394   6.297  12.332   5.323
11166SOL    HW135395   6.299  12.251   5.271
11166SOL    HW235396   6.217  12.376   5.294
11167SOL     OW35397   3.508  11.094  14.214
11167SOL    HW135398   3.484  11.010  14.255
11167SOL    HW235399   3.425  11.141  14.207
11168SOL     OW35400  13.475   3.668  11.580
11168SOL    HW135401  13.388   3.642  11.611
11168SOL    HW235402  13.457   3.724  11.505
11169SOL     OW35403   0.210   3.038   2.584
11169SOL    HW135404   0.248   3.122   2.610
11169SOL    HW235405   0.193   2.993   2.667
11170SOL     OW35406   2.535  14.258  13.455
11170SOL    HW135407   2.607  14.316  13.481
11170SOL    HW235408   2.569  14.170  13.468
11171SOL     OW35409   9.131   7.235   1.425
11171SOL    HW135410   9.137   7.193   1.511
11171SOL    HW235411   9.147   7.328   1.442
11172SOL     OW35412   7.544   1.996  14.050
11172SOL    HW135413   7.561   2.024  13.959
11172SOL    HW235414   7.558   1.901  14.048
11173SOL     OW35415   7.955  10.267   4.231
11173SOL    HW135416   8.000  10.345   4.262
11173SOL    HW235417   7.982  10.258   4.140
11174SOL     OW35418  13.699  12.671   4.011
11174SOL    HW135419  13.709  12.741   3.947
11174SOL    HW235420  13.778  12.617   4.000
11175SOL     OW35421  10.748   2.233   4.661
11175SOL    HW135422  10.809   2.211   4.590
11175SOL    HW235423  10.671   2.179   4.644
11176SOL     OW35424   5.658  14.212   7.625
11176SOL    HW135425   5.710  14.274   7.574
11176SOL    HW235426   5.570  14.250   7.627
11177SOL     OW35427  11.594  10.009   2.523
11177SOL    HW135428  11.569  10.027   2.613
11177SOL    HW235429  11.681  10.047   2.514
11178SOL     OW35430   4.504  14.085  13.266
11178SOL    HW135431   4.430  14.062  13.209
11178SOL    HW235432   4.508  14.013  13.329
11179SOL     OW35433  14.078  10.527   6.520
11179SOL    HW135434  14.100  10.461   6.455
11179SOL    HW235435  14.042  10.478   6.593
11180SOL     OW35436  14.286   0.519  13.569
11180SOL    HW135437  14.333   0.603  13.568
11180SOL    HW235438  14.194   0.542  13.555
11181SOL     OW35439   8.262  10.531   2.632
11181SOL    HW135440   8.332  10.468   2.616
11181SOL    HW235441   8.241  10.566   2.546
11182SOL     OW35442  10.755   1.095  12.072
11182SOL    HW135443  10.846   1.076  12.097
11182SOL    HW235444  10.703   1.059  12.144
11183SOL     OW35445  12.171   1.727   9.700
11183SOL    HW135446  12.135   1.652   9.748
11183SOL    HW235447  12.108   1.797   9.714
11184SOL     OW35448   7.865   1.621   3.635
11184SOL    HW135449   7.805   1.693   3.655
11184SOL    HW235450   7.824   1.544   3.674
11185SOL     OW35451   6.087   7.966   2.387
11185SOL    HW135452   6.137   8.021   2.327
11185SOL    HW235453   6.112   7.877   2.364
11186SOL     OW35454   1.468   1.657  10.277
11186SOL    HW135455   1.486   1.699  10.192
11186SOL    HW235456   1.402   1.591  10.258
11187SOL     OW35457   7.564  13.047   3.747
11187SOL    HW135458   7.601  12.983   3.687
11187SOL    HW235459   7.545  13.123   3.692
11188SOL     OW35460  12.755   4.713   6.562
11188SOL    HW135461  12.760   4.681   6.652
11188SOL    HW235462  12.754   4.634   6.508
11189SOL     OW35463  11.211   0.265   3.858
11189SOL    HW135464  11.295   0.253   3.813
11189SOL    HW235465  11.221   0.347   3.907
11190SOL     OW35466   1.791   2.698   3.859
11190SOL    HW135467   1.801   2.604   3.847
11190SOL    HW235468   1.758   2.730   3.774
11191SOL     OW35469   5.964   5.821  14.171
11191SOL    HW135470   5.889   5.821  14.111
11191SOL    HW235471   6.016   5.746  14.144
11192SOL     OW35472  10.691   5.307   7.541
11192SOL    HW135473  10.688   5.403   7.538
11192SOL    HW235474  10.623   5.279   7.480
11193SOL     OW35475   9.491  11.981   1.091
11193SOL    HW135476   9.523  11.921   1.024
11193SOL    HW235477   9.508  12.068   1.054
11194SOL     OW35478  11.432  11.759   1.238
11194SOL    HW135479  11.442  11.855   1.243
11194SOL    HW235480  11.354  11.741   1.289
11195SOL     OW35481  14.263  12.046   7.363
11195SOL    HW135482  14.297  12.124   7.318
11195SOL    HW235483  14.307  12.047   7.448
11196SOL     OW35484   5.439  14.762   6.711
11196SOL    HW135485   5.521  14.809   6.722
11196SOL    HW235486   5.386  14.787   6.787
11197SOL     OW35487   6.567   8.364  10.223
11197SOL    HW135488   6.555   8.365  10.128
11197SOL    HW235489   6.653   8.403  10.237
11198SOL     OW35490  13.566   0.301   4.651
11198SOL    HW135491  13.600   0.376   4.700
11198SOL    HW235492  13.477   0.289   4.685
11199SOL     OW35493   3.033  14.231  13.861
11199SOL    HW135494   2.970  14.293  13.827
11199SOL    HW235495   3.093  14.214  13.788
11200SOL     OW35496   2.773   4.401  10.672
11200SOL    HW135497   2.694   4.431  10.628
11200SOL    HW235498   2.804   4.328  10.618
11201SOL     OW35499   8.496   0.837   3.919
11201SOL    HW135500   8.430   0.782   3.877
11201SOL    HW235501   8.486   0.922   3.876
11202SOL     OW35502   8.841   6.028  10.112
11202SOL    HW135503   8.921   5.978  10.127
11202SOL    HW235504   8.817   6.010  10.021
11203SOL     OW35505  13.745   1.654  13.134
11203SOL    HW135506  13.797   1.734  13.134
11203SOL    HW235507  13.780   1.602  13.206
11204SOL     OW35508   3.539  10.076   5.713
11204SOL    HW135509   3.628  10.041   5.699
11204SOL    HW235510   3.487  10.037   5.643
11205SOL     OW35511   0.324   8.741   1.461
11205SOL    HW135512   0.351   8.829   1.433
11205SOL    HW235513   0.243   8.754   1.508
11206SOL     OW35514  10.486  10.514  13.302
11206SOL    HW135515  10.498  10.603  13.334
11206SOL    HW235516  10.524  10.458  13.370
11207SOL     OW35517  10.499   1.207   6.199
11207SOL    HW135518  10.541   1.131   6.241
11207SOL    HW235519  10.573   1.259   6.165
11208SOL     OW35520  11.993  12.508   1.152
11208SOL    HW135521  12.082  12.518   1.186
11208SOL    HW235522  12.003  12.511   1.057
11209SOL     OW35523   1.737   0.328   8.814
11209SOL    HW135524   1.765   0.241   8.785
11209SOL    HW235525   1.783   0.388   8.755
11210SOL     OW35526   6.372   5.203  13.954
11210SOL    HW135527   6.448   5.152  13.981
11210SOL    HW235528   6.305   5.184  14.020
11211SOL     OW35529   6.243   6.728  13.254
11211SOL    HW135530   6.170   6.772  13.298
11211SOL    HW235531   6.317   6.786  13.268
11212SOL     OW35532  12.413   9.586  13.749
11212SOL    HW135533  12.498   9.563  13.788
11212SOL    HW235534  12.408   9.530  13.671
11213SOL     OW35535   3.985   5.167   2.434
11213SOL    HW135536   3.967   5.255   2.401
11213SOL    HW235537   4.080   5.163   2.442
11214SOL     OW35538   9.376  10.837  12.001
11214SOL    HW135539   9.464  10.850  11.966
11214SOL    HW235540   9.321  10.893  11.947
11215SOL     OW35541   1.172  12.558  11.004
11215SOL    HW135542   1.103  12.497  11.033
11215SOL    HW235543   1.125  12.639  10.983
11216SOL     OW35544  10.201   3.378   7.860
11216SOL    HW135545  10.205   3.469   7.890
11216SOL    HW235546  10.212   3.384   7.765
11217SOL     OW35547  11.651   2.739   8.223
11217SOL    HW135548  11.562   2.772   8.232
11217SOL    HW235549  11.652   2.693   8.140
11218SOL     OW35550  13.702   6.362  14.571
11218SOL    HW135551  13.619   6.315  14.579
11218SOL    HW235552  13.765   6.295  14.543
11219SOL     OW35553  12.579   9.758  11.129
11219SOL    HW135554  12.493   9.724  11.154
11219SOL    HW235555  12.567   9.792  11.040
11220SOL     OW35556   3.096   5.943   8.199
11220SOL    HW135557   3.148   5.898   8.133
11220SOL    HW235558   3.159   6.000   8.244
11221SOL     OW35559   7.199  10.265  12.900
11221SOL    HW135560   7.241  10.268  12.814
11221SOL    HW235561   7.151  10.182  12.900
11222SOL     OW35562   4.448   6.644   7.007
11222SOL    HW135563   4.513   6.576   7.022
11222SOL    HW235564   4.398   6.614   6.932
11223SOL     OW35565   0.499   6.636  11.771
11223SOL    HW135566   0.480   6.725  11.740
11223SOL    HW235567   0.510   6.646  11.865
11224SOL     OW35568   5.365  11.743  13.188
11224SOL    HW135569   5.420  11.670  13.161
11224SOL    HW235570   5.418  11.821  13.169
11225SOL     OW35571   9.433   3.364   5.173
11225SOL    HW135572   9.494   3.324   5.235
11225SOL    HW235573   9.347   3.332   5.201
11226SOL     OW35574   1.875   1.476   8.370
11226SOL    HW135575   1.931   1.445   8.440
11226SOL    HW235576   1.921   1.453   8.289
11227SOL     OW35577   1.535  11.196   2.241
11227SOL    HW135578   1.512  11.149   2.321
11227SOL    HW235579   1.545  11.287   2.268
11228SOL     OW35580   4.741  12.122   1.718
11228SOL    HW135581   4.832  12.119   1.747
11228SOL    HW235582   4.726  12.036   1.679
11229SOL     OW35583   6.398  12.643   9.320
11229SOL    HW135584   6.320  12.698   9.319
11229SOL    HW235585   6.384  12.580   9.249
11230SOL     OW35586   8.622   4.443  12.357
11230SOL    HW135587   8.710   4.405  12.354
11230SOL    HW235588   8.590   4.424  12.444
11231SOL     OW35589   9.623  11.267  11.958
11231SOL    HW135590   9.595  11.176  11.961
11231SOL    HW235591   9.685  11.270  11.885
11232SOL     OW35592  10.971   6.630   6.673
11232SOL    HW135593  10.963   6.709   6.726
11232SOL    HW235594  11.066   6.619   6.660
11233SOL     OW35595   3.620  10.081  13.354
11233SOL    HW135596   3.636  10.067  13.261
11233SOL    HW235597   3.529  10.054  13.367
11234SOL     OW35598   5.841   5.978   2.928
11234SOL    HW135599   5.856   6.047   2.864
11234SOL    HW235600   5.778   5.919   2.885
11235SOL     OW35601   4.933  13.420   3.615
11235SOL    HW135602   4.943  13.361   3.690
11235SOL    HW235603   4.927  13.507   3.654
11236SOL     OW35604   1.442  10.211   0.311
11236SOL    HW135605   1.458  10.304   0.330
11236SOL    HW235606   1.406  10.211   0.223
11237SOL     OW35607  13.070   1.116   4.139
11237SOL    HW135608  12.986   1.084   4.172
11237SOL    HW235609  13.073   1.088   4.048
11238SOL     OW35610   9.910   8.559  14.459
11238SOL    HW135611   9.970   8.632  14.472
11238SOL    HW235612   9.823   8.600  14.453
11239SOL     OW35613   5.029  12.300   5.207
11239SOL    HW135614   5.036  12.297   5.302
11239SOL    HW235615   5.050  12.391   5.184
11240SOL     OW35616   3.468  11.137   2.077
11240SOL    HW135617   3.375  11.117   2.077
11240SOL    HW235618   3.495  11.128   2.168
11241SOL     OW35619   9.631   8.530   7.228
11241SOL    HW135620   9.676   8.483   7.298
11241SOL    HW235621   9.549   8.483   7.217
11242SOL     OW35622   2.008   6.171   5.314
11242SOL    HW135623   1.983   6.134   5.399
11242SOL    HW235624   1.925   6.203   5.277
11243SOL     OW35625   8.700   4.346   5.010
11243SOL    HW135626   8.791   4.372   5.024
11243SOL    HW235627   8.686   4.358   4.916
11244SOL     OW35628  10.779   0.244   3.595
11244SOL    HW135629  10.783   0.155   3.631
11244SOL    HW235630  10.865   0.281   3.614
11245SOL     OW35631  11.431   1.797   3.224
11245SOL    HW135632  11.412   1.711   3.186
11245SOL    HW235633  11.402   1.859   3.157
11246SOL     OW35634   2.548  13.558  10.769
11246SOL    HW135635   2.511  13.616  10.836
11246SOL    HW235636   2.487  13.565  10.695
11247SOL     OW35637   2.527   5.057  11.930
11247SOL    HW135638   2.567   5.112  11.997
11247SOL    HW235639   2.458   5.111  11.892
11248SOL     OW35640  14.440   7.088   1.438
11248SOL    HW135641  14.443   7.009   1.384
11248SOL    HW235642  14.418   7.158   1.377
11249SOL     OW35643   6.928  11.550   6.791
11249SOL    HW135644   6.956  11.521   6.878
11249SOL    HW235645   6.832  11.544   6.793
11250SOL     OW35646   2.960   7.704  10.123
11250SOL    HW135647   2.931   7.738  10.039
11250SOL    HW235648   3.030   7.642  10.101
11251SOL     OW35649   5.687  11.166   5.353
11251SOL    HW135650   5.662  11.236   5.292
11251SOL    HW235651   5.724  11.212   5.428
11252SOL     OW35652   1.444   9.538   8.635
11252SOL    HW135653   1.442   9.618   8.687
11252SOL    HW235654   1.504   9.557   8.563
11253SOL     OW35655   4.393  11.832   7.664
11253SOL    HW135656   4.484  11.850   7.687
11253SOL    HW235657   4.377  11.886   7.586
11254SOL     OW35658  11.408   7.441   3.424
11254SOL    HW135659  11.450   7.526   3.411
11254SOL    HW235660  11.459   7.398   3.492
11255SOL     OW35661   7.019  14.659   6.783
11255SOL    HW135662   6.968  14.710   6.720
11255SOL    HW235663   7.005  14.703   6.867
11256SOL     OW35664  11.365   5.235   3.109
11256SOL    HW135665  11.313   5.162   3.075
11256SOL    HW235666  11.373   5.217   3.202
11257SOL     OW35667  12.698  14.032   4.662
11257SOL    HW135668  12.767  13.978   4.701
11257SOL    HW235669  12.737  14.119   4.652
11258SOL     OW35670   1.121   4.873   3.912
11258SOL    HW135671   1.063   4.841   3.981
11258SOL    HW235672   1.068   4.936   3.863
11259SOL     OW35673   9.956   3.990  14.129
11259SOL    HW135674  10.035   4.009  14.180
11259SOL    HW235675   9.886   3.986  14.194
11260SOL     OW35676   2.206   1.137   7.363
11260SOL    HW135677   2.285   1.189   7.377
11260SOL    HW235678   2.233   1.070   7.300
11261SOL     OW35679   7.714  11.819   3.631
11261SOL    HW135680   7.691  11.760   3.703
11261SOL    HW235681   7.809  11.813   3.626
11262SOL     OW35682   9.265   7.595   4.766
11262SOL    HW135683   9.246   7.618   4.676
11262SOL    HW235684   9.197   7.640   4.817
11263SOL     OW35685   0.761   0.992   8.374
11263SOL    HW135686   0.713   1.001   8.292
11263SOL    HW235687   0.702   0.945   8.432
11264SOL     OW35688  12.099   6.567  12.756
11264SOL    HW135689  12.130   6.542  12.844
11264SOL    HW235690  12.036   6.499  12.733
11265SOL     OW35691   3.243   1.851   3.686
11265SOL    HW135692   3.214   1.887   3.603
11265SOL    HW235693   3.336   1.876   3.692
11266SOL     OW35694   6.299   6.003   8.804
11266SOL    HW135695   6.326   6.000   8.896
11266SOL    HW235696   6.367   6.055   8.761
11267SOL     OW35697  10.394   3.102   2.224
11267SOL    HW135698  10.403   3.008   2.238
11267SOL    HW235699  10.432   3.117   2.137
11268SOL     OW35700   7.355  11.995   1.042
11268SOL    HW135701   7.299  11.917   1.046
11268SOL    HW235702   7.443  11.960   1.027
11269SOL     OW35703  13.286  11.754  10.015
11269SOL    HW135704  13.348  11.726  10.083
11269SOL    HW235705  13.333  11.740   9.933
11270SOL     OW35706  12.423  10.374  10.485
11270SOL    HW135707  12.370  10.429  10.428
11270SOL    HW235708  12.441  10.429  10.561
11271SOL     OW35709   1.929  11.111   4.052
11271SOL    HW135710   1.901  11.033   4.099
11271SOL    HW235711   1.919  11.183   4.115
11272SOL     OW35712   7.450   4.911   6.197
11272SOL    HW135713   7.379   4.885   6.256
11272SOL    HW235714   7.406   4.955   6.124
11273SOL     OW35715  14.153  13.261   2.833
11273SOL    HW135716  14.238  13.235   2.867
11273SOL    HW235717  14.097  13.267   2.910
11274SOL     OW35718  14.449   0.653  12.626
11274SOL    HW135719  14.388   0.628  12.556
11274SOL    HW235720  14.465   0.571  12.673
11275SOL     OW35721   5.372   9.170  12.139
11275SOL    HW135722   5.356   9.204  12.051
11275SOL    HW235723   5.467   9.178  12.151
11276SOL     OW35724   7.315   6.859   4.893
11276SOL    HW135725   7.229   6.869   4.851
11276SOL    HW235726   7.298   6.867   4.986
11277SOL     OW35727   7.195  12.297  13.739
11277SOL    HW135728   7.238  12.311  13.823
11277SOL    HW235729   7.125  12.362  13.735
11278SOL     OW35730   3.985  13.824   7.977
11278SOL    HW135731   3.928  13.776   8.036
11278SOL    HW235732   3.987  13.913   8.011
11279SOL     OW35733  12.953   5.574   7.319
11279SOL    HW135734  12.961   5.544   7.229
11279SOL    HW235735  12.897   5.651   7.314
11280SOL     OW35736   7.072  13.593  14.768
11280SOL    HW135737   7.006  13.561  14.706
11280SOL    HW235738   7.050  13.686  14.780
11281SOL     OW35739  12.954  12.852   9.155
11281SOL    HW135740  13.038  12.815   9.181
11281SOL    HW235741  12.939  12.818   9.067
11282SOL     OW35742  14.587   0.963   2.887
11282SOL    HW135743  14.558   0.901   2.954
11282SOL    HW235744  14.672   0.928   2.858
11283SOL     OW35745   0.972  13.342  12.837
11283SOL    HW135746   0.880  13.334  12.864
11283SOL    HW235747   0.977  13.429  12.797
11284SOL     OW35748  14.279   2.103   6.998
11284SOL    HW135749  14.370   2.118   7.021
11284SOL    HW235750  14.262   2.163   6.925
11285SOL     OW35751   7.390   8.650  11.617
11285SOL    HW135752   7.332   8.691  11.680
11285SOL    HW235753   7.451   8.598  11.669
11286SOL     OW35754   7.553   3.670  10.930
11286SOL    HW135755   7.509   3.624  10.859
11286SOL    HW235756   7.583   3.752  10.890
11287SOL     OW35757  10.015   2.926   2.857
11287SOL    HW135758  10.075   2.999   2.846
11287SOL    HW235759  10.067   2.848   2.840
11288SOL     OW35760   0.363   3.630   1.906
11288SOL    HW135761   0.292   3.589   1.955
11288SOL    HW235762   0.383   3.568   1.836
11289SOL     OW35763   9.392   8.693   8.592
11289SOL    HW135764   9.397   8.604   8.559
11289SOL    HW235765   9.436   8.746   8.526
11290SOL     OW35766  11.495  14.162   8.169
11290SOL    HW135767  11.572  14.121   8.207
11290SOL    HW235768  11.431  14.091   8.160
11291SOL     OW35769  10.599   7.619   2.015
11291SOL    HW135770  10.505   7.636   2.015
11291SOL    HW235771  10.606   7.523   2.023
11292SOL     OW35772   0.549   2.476  14.669
11292SOL    HW135773   0.518   2.448  14.755
11292SOL    HW235774   0.470   2.505  14.623
11293SOL     OW35775   2.637   7.857   9.785
11293SOL    HW135776   2.696   7.868   9.860
11293SOL    HW235777   2.681   7.903   9.713
11294SOL     OW35778   1.297   4.138   7.468
11294SOL    HW135779   1.353   4.206   7.504
11294SOL    HW235780   1.312   4.062   7.525
11295SOL     OW35781   5.633   3.827   9.343
11295SOL    HW135782   5.729   3.829   9.347
11295SOL    HW235783   5.611   3.735   9.358
11296SOL     OW35784   7.961   2.311   3.732
11296SOL    HW135785   8.010   2.241   3.775
11296SOL    HW235786   7.884   2.267   3.695
11297SOL     OW35787  13.116  14.144   1.331
11297SOL    HW135788  13.038  14.090   1.340
11297SOL    HW235789  13.119  14.167   1.238
11298SOL     OW35790  13.648   3.618  12.011
11298SOL    HW135791  13.624   3.587  11.924
11298SOL    HW235792  13.680   3.540  12.056
11299SOL     OW35793  11.911  12.113   6.024
11299SOL    HW135794  11.889  12.046   6.089
11299SOL    HW235795  11.949  12.065   5.951
11300SOL     OW35796   0.526   9.311  10.541
11300SOL    HW135797   0.572   9.264  10.472
11300SOL    HW235798   0.511   9.244  10.609
11301SOL     OW35799   1.502   6.608   8.439
11301SOL    HW135800   1.487   6.654   8.356
11301SOL    HW235801   1.482   6.517   8.420
11302SOL     OW35802   2.324   1.865   2.934
11302SOL    HW135803   2.382   1.799   2.972
11302SOL    HW235804   2.236   1.829   2.942
11303SOL     OW35805   0.257  14.823   3.246
11303SOL    HW135806   0.291  14.767   3.317
11303SOL    HW235807   0.186  14.772   3.208
11304SOL     OW35808  12.305  13.129   6.961
11304SOL    HW135809  12.306  13.074   7.039
11304SOL    HW235810  12.286  13.068   6.889
11305SOL     OW35811   1.542   8.327   5.776
11305SOL    HW135812   1.601   8.382   5.828
11305SOL    HW235813   1.550   8.240   5.815
11306SOL     OW35814   4.362   9.308   6.355
11306SOL    HW135815   4.367   9.322   6.260
11306SOL    HW235816   4.272   9.330   6.378
11307SOL     OW35817  10.800   7.960   1.054
11307SOL    HW135818  10.765   7.956   1.142
11307SOL    HW235819  10.725   7.945   0.997
11308SOL     OW35820   5.975   5.960   7.872
11308SOL    HW135821   5.898   6.016   7.858
11308SOL    HW235822   5.992   5.965   7.966
11309SOL     OW35823   9.829   8.909   4.071
11309SOL    HW135824   9.838   8.928   4.165
11309SOL    HW235825   9.909   8.944   4.032
11310SOL     OW35826   5.354   7.681  10.494
11310SOL    HW135827   5.416   7.711  10.428
11310SOL    HW235828   5.272   7.726  10.473
11311SOL     OW35829   1.733   1.381   1.962
11311SOL    HW135830   1.767   1.293   1.948
11311SOL    HW235831   1.661   1.370   2.025
11312SOL     OW35832  12.825  10.060   4.447
11312SOL    HW135833  12.890  10.057   4.516
11312SOL    HW235834  12.790   9.971   4.442
11313SOL     OW35835   5.239  13.550   1.982
11313SOL    HW135836   5.250  13.529   1.889
11313SOL    HW235837   5.152  13.518   2.004
11314SOL     OW35838   3.169  11.272  13.416
11314SOL    HW135839   3.258  11.292  13.444
11314SOL    HW235840   3.156  11.180  13.437
11315SOL     OW35841   6.924   3.456   7.864
11315SOL    HW135842   6.864   3.508   7.918
11315SOL    HW235843   6.977   3.520   7.817
11316SOL     OW35844  14.010   4.304  10.241
11316SOL    HW135845  14.045   4.261  10.319
11316SOL    HW235846  14.080   4.296  10.176
11317SOL     OW35847   2.604   6.649  11.102
11317SOL    HW135848   2.678   6.709  11.117
11317SOL    HW235849   2.543   6.670  11.172
11318SOL     OW35850  12.888   7.995  10.763
11318SOL    HW135851  12.879   7.926  10.697
11318SOL    HW235852  12.977   8.028  10.751
11319SOL     OW35853  10.586   8.058   2.117
11319SOL    HW135854  10.563   8.111   2.193
11319SOL    HW235855  10.522   8.083   2.050
11320SOL     OW35856  14.189   5.011   3.188
11320SOL    HW135857  14.111   5.058   3.160
11320SOL    HW235858  14.259   5.077   3.185
11321SOL     OW35859   1.689   2.924  12.702
11321SOL    HW135860   1.713   2.860  12.635
11321SOL    HW235861   1.682   3.006  12.654
11322SOL     OW35862   9.929   7.787   5.195
11322SOL    HW135863   9.915   7.848   5.123
11322SOL    HW235864   9.981   7.836   5.258
11323SOL     OW35865  11.887   1.301   8.927
11323SOL    HW135866  11.835   1.221   8.919
11323SOL    HW235867  11.936   1.306   8.845
11324SOL     OW35868   4.906   3.402   0.510
11324SOL    HW135869   4.915   3.455   0.589
11324SOL    HW235870   4.817   3.420   0.479
11325SOL     OW35871   2.208  10.703   6.096
11325SOL    HW135872   2.204  10.613   6.065
11325SOL    HW235873   2.256  10.699   6.179
11326SOL     OW35874   5.893   3.876   0.243
11326SOL    HW135875   5.848   3.861   0.160
11326SOL    HW235876   5.964   3.936   0.221
11327SOL     OW35877  13.101   9.931   7.397
11327SOL    HW135878  13.043   9.913   7.322
11327SOL    HW235879  13.142  10.014   7.375
11328SOL     OW35880   9.810  10.686   7.199
11328SOL    HW135881   9.827  10.623   7.129
11328SOL    HW235882   9.886  10.745   7.198
11329SOL     OW35883  12.101   1.422   2.471
11329SOL    HW135884  12.166   1.465   2.416
11329SOL    HW235885  12.151   1.360   2.525
11330SOL     OW35886   5.432   9.771   2.681
11330SOL    HW135887   5.374   9.703   2.649
11330SOL    HW235888   5.508   9.724   2.716
11331SOL     OW35889  10.606   6.081   6.754
11331SOL    HW135890  10.666   6.145   6.790
11331SOL    HW235891  10.641   6.062   6.667
11332SOL     OW35892   2.199   9.367   9.691
11332SOL    HW135893   2.294   9.379   9.697
11332SOL    HW235894   2.173   9.423   9.618
11333SOL     OW35895   2.398  13.680  10.100
11333SOL    HW135896   2.359  13.763  10.072
11333SOL    HW235897   2.379  13.619  10.029
11334SOL     OW35898  14.809   1.373   3.634
11334SOL    HW135899  14.730   1.324   3.611
11334SOL    HW235900  14.817   1.362   3.729
11335SOL     OW35901   6.384   2.237   5.198
11335SOL    HW135902   6.348   2.324   5.212
11335SOL    HW235903   6.374   2.221   5.105
11336SOL     OW35904   2.194   2.574  13.368
11336SOL    HW135905   2.269   2.584  13.308
11336SOL    HW235906   2.123   2.542  13.313
11337SOL     OW35907   1.645  10.777   5.679
11337SOL    HW135908   1.706  10.841   5.644
11337SOL    HW235909   1.655  10.700   5.622
11338SOL     OW35910  10.758  10.614  12.255
11338SOL    HW135911  10.703  10.582  12.326
11338SOL    HW235912  10.762  10.709  12.269
11339SOL     OW35913  14.463  12.708   9.572
11339SOL    HW135914  14.458  12.660   9.654
11339SOL    HW235915  14.391  12.672   9.519
11340SOL     OW35916   1.204   4.456   3.157
11340SOL    HW135917   1.218   4.450   3.252
11340SOL    HW235918   1.232   4.544   3.134
11341SOL     OW35919   8.530   2.037   9.601
11341SOL    HW135920   8.552   1.970   9.665
11341SOL    HW235921   8.533   2.119   9.650
11342SOL     OW35922   5.401   3.060   7.030
11342SOL    HW135923   5.435   3.132   7.083
11342SOL    HW235924   5.329   3.024   7.082
11343SOL     OW35925  14.596  10.990   7.923
11343SOL    HW135926  14.656  10.921   7.897
11343SOL    HW235927  14.555  10.958   8.003
11344SOL     OW35928   0.814   6.559   2.857
11344SOL    HW135929   0.771   6.584   2.939
11344SOL    HW235930   0.879   6.494   2.882
11345SOL     OW35931   5.240   5.148   6.372
11345SOL    HW135932   5.166   5.205   6.355
11345SOL    HW235933   5.283   5.186   6.448
11346SOL     OW35934   2.671   0.907   8.215
11346SOL    HW135935   2.622   0.825   8.216
11346SOL    HW235936   2.756   0.885   8.252
11347SOL     OW35937   3.820  13.340   7.054
11347SOL    HW135938   3.899  13.371   7.098
11347SOL    HW235939   3.851  13.310   6.968
11348SOL     OW35940   6.471   8.591  13.182
11348SOL    HW135941   6.468   8.511  13.234
11348SOL    HW235942   6.416   8.653  13.230
11349SOL     OW35943   3.656   6.091   1.333
11349SOL    HW135944   3.620   6.004   1.351
11349SOL    HW235945   3.751   6.079   1.334
11350SOL     OW35946   7.767   0.459   6.583
11350SOL    HW135947   7.822   0.383   6.567
11350SOL    HW235948   7.688   0.424   6.624
11351SOL     OW35949  12.741  12.058  12.718
11351SOL    HW135950  12.692  11.977  12.700
11351SOL    HW235951  12.748  12.061  12.813
11352SOL     OW35952   0.867   7.666   1.466
11352SOL    HW135953   0.796   7.672   1.403
11352SOL    HW235954   0.920   7.592   1.436
11353SOL     OW35955  10.847   7.778  11.673
11353SOL    HW135956  10.782   7.750  11.609
11353SOL    HW235957  10.911   7.706  11.676
11354SOL     OW35958   9.285  10.228   8.079
11354SOL    HW135959   9.350  10.174   8.125
11354SOL    HW235960   9.335  10.270   8.009
11355SOL     OW35961  14.782   1.408   6.816
11355SOL    HW135962   0.006   1.408   6.825
11355SOL    HW235963  14.761   1.497   6.787
11356SOL     OW35964  13.876   8.340   9.338
11356SOL    HW135965  13.970   8.332   9.322
11356SOL    HW235966  13.859   8.434   9.332
11357SOL     OW35967   5.903  13.598   3.941
11357SOL    HW135968   5.995  13.570   3.940
11357SOL    HW235969   5.866  13.557   4.019
11358SOL     OW35970  10.936   5.335  10.280
11358SOL    HW135971  10.989   5.357  10.203
11358SOL    HW235972  10.904   5.420  10.311
11359SOL     OW35973   2.447   6.156  10.226
11359SOL    HW135974   2.475   6.075  10.183
11359SOL    HW235975   2.352   6.152  10.225
11360SOL     OW35976  13.732   2.202  13.554
11360SOL    HW135977  13.698   2.265  13.618
11360SOL    HW235978  13.800   2.249  13.507
11361SOL     OW35979   7.945  13.750   6.999
11361SOL    HW135980   7.919  13.770   7.089
11361SOL    HW235981   7.983  13.831   6.965
11362SOL     OW35982   0.006   5.876   0.909
11362SOL    HW135983  14.819   5.803   0.925
11362SOL    HW235984   0.024   5.912   0.996
11363SOL     OW35985   2.189  12.199   4.429
11363SOL    HW135986   2.111  12.167   4.385
11363SOL    HW235987   2.242  12.237   4.359
11364SOL     OW35988   3.378   2.296   5.091
11364SOL    HW135989   3.315   2.226   5.108
11364SOL    HW235990   3.345   2.371   5.141
11365SOL     OW35991   8.466   9.859   7.583
11365SOL    HW135992   8.551   9.903   7.577
11365SOL    HW235993   8.429   9.865   7.495
11366SOL     OW35994   8.639   4.573  10.492
11366SOL    HW135995   8.603   4.502  10.545
11366SOL    HW235996   8.722   4.539  10.459
11367SOL     OW35997   9.991   9.441  13.012
11367SOL    HW135998   9.909   9.404  12.978
11367SOL    HW235999   9.968   9.530  13.039
11368SOL     OW36000  14.669   7.645   8.387
11368SOL    HW136001  14.620   7.572   8.348
11368SOL    HW236002  14.713   7.687   8.314
11369SOL     OW36003   4.040   5.114   4.127
11369SOL    HW136004   4.049   5.089   4.035
11369SOL    HW236005   4.016   5.034   4.173
11370SOL     OW36006   7.744   4.005   7.298
11370SOL    HW136007   7.669   4.063   7.282
11370SOL    HW236008   7.708   3.935   7.353
11371SOL     OW36009   0.414   4.672   7.891
11371SOL    HW136010   0.378   4.655   7.978
11371SOL    HW236011   0.371   4.608   7.834
11372SOL     OW36012   0.172  12.248   5.147
11372SOL    HW136013   0.233  12.248   5.221
11372SOL    HW236014   0.162  12.341   5.125
11373SOL     OW36015   0.098   8.462  12.650
11373SOL    HW136016   0.078   8.550  12.682
11373SOL    HW236017   0.152   8.476  12.572
11374SOL     OW36018   3.950   2.627  13.115
11374SOL    HW136019   3.993   2.677  13.045
11374SOL    HW236020   3.890   2.690  13.155
11375SOL     OW36021   3.979   5.010   9.649
11375SOL    HW136022   3.897   5.040   9.688
11375SOL    HW236023   4.012   4.945   9.712
11376SOL     OW36024  14.784   1.436  12.457
11376SOL    HW136025  14.847   1.447  12.528
11376SOL    HW236026  14.837   1.430  12.378
11377SOL     OW36027   1.847  11.565  11.636
11377SOL    HW136028   1.757  11.553  11.605
11377SOL    HW236029   1.839  11.577  11.730
11378SOL     OW36030   0.671  12.950   9.376
11378SOL    HW136031   0.648  13.031   9.422
11378SOL    HW236032   0.702  12.979   9.290
11379SOL     OW36033  11.886   8.189  13.709
11379SOL    HW136034  11.929   8.134  13.774
11379SOL    HW236035  11.957   8.242  13.672
11380SOL     OW36036  13.408  14.138   2.608
11380SOL    HW136037  13.427  14.193   2.532
11380SOL    HW236038  13.317  14.110   2.595
11381SOL     OW36039  12.280  11.409  10.796
11381SOL    HW136040  12.366  11.411  10.754
11381SOL    HW236041  12.296  11.365  10.880
11382SOL     OW36042   8.633   6.591   9.187
11382SOL    HW136043   8.698   6.548   9.242
11382SOL    HW236044   8.549   6.569   9.229
11383SOL     OW36045  10.262  10.411   9.918
11383SOL    HW136046  10.263  10.493   9.869
11383SOL    HW236047  10.248  10.344   9.851
11384SOL     OW36048   6.617   2.774  10.496
11384SOL    HW136049   6.533   2.776  10.541
11384SOL    HW236050   6.617   2.852  10.440
11385SOL     OW36051   9.789   4.158  10.043
11385SOL    HW136052   9.829   4.235  10.083
11385SOL    HW236053   9.843   4.141   9.965
11386SOL     OW36054   7.994  11.002  14.398
11386SOL    HW136055   8.000  10.917  14.441
11386SOL    HW236056   7.908  11.035  14.425
11387SOL     OW36057   0.098   4.520  13.808
11387SOL    HW136058   0.072   4.551  13.722
11387SOL    HW236059   0.025   4.543  13.865
11388SOL     OW36060  10.273  14.684  14.195
11388SOL    HW136061  10.339  14.617  14.175
11388SOL    HW236062  10.227  14.697  14.112
11389SOL     OW36063   7.645  11.126   1.565
11389SOL    HW136064   7.716  11.104   1.505
11389SOL    HW236065   7.688  11.143   1.649
11390SOL     OW36066  10.960  12.215  13.739
11390SOL    HW136067  10.901  12.223  13.664
11390SOL    HW236068  11.040  12.178  13.702
11391SOL     OW36069   8.014   9.269   4.191
11391SOL    HW136070   7.967   9.300   4.269
11391SOL    HW236071   7.946   9.243   4.130
11392SOL     OW36072   0.341   2.557  14.253
11392SOL    HW136073   0.279   2.517  14.191
11392SOL    HW236074   0.370   2.484  14.307
11393SOL     OW36075   6.363   3.513   2.334
11393SOL    HW136076   6.377   3.436   2.389
11393SOL    HW236077   6.268   3.522   2.329
11394SOL     OW36078   1.613   8.457   0.817
11394SOL    HW136079   1.589   8.536   0.866
11394SOL    HW236080   1.690   8.484   0.766
11395SOL     OW36081  13.931   0.697   5.034
11395SOL    HW136082  13.900   0.658   5.115
11395SOL    HW236083  13.948   0.789   5.055
11396SOL     OW36084   2.102   3.659  12.635
11396SOL    HW136085   2.088   3.601  12.560
11396SOL    HW236086   2.146   3.605  12.700
11397SOL     OW36087  10.335  11.912   4.607
11397SOL    HW136088  10.358  11.825   4.575
11397SOL    HW236089  10.331  11.902   4.703
11398SOL     OW36090   8.354   8.567   4.334
11398SOL    HW136091   8.349   8.493   4.395
11398SOL    HW236092   8.351   8.526   4.248
11399SOL     OW36093   9.306  12.638   5.127
11399SOL    HW136094   9.347  12.635   5.214
11399SOL    HW236095   9.289  12.546   5.106
11400SOL     OW36096  14.204   5.299   6.954
11400SOL    HW136097  14.296   5.286   6.974
11400SOL    HW236098  14.160   5.223   6.990
11401SOL     OW36099  13.223   6.520   6.348
11401SOL    HW136100  13.154   6.502   6.412
11401SOL    HW236101  13.195   6.600   6.305
11402SOL     OW36102   0.581   4.128  11.036
11402SOL    HW136103   0.619   4.213  11.017
11402SOL    HW236104   0.509   4.146  11.097
11403SOL     OW36105  12.484  13.251   1.843
11403SOL    HW136106  12.522  13.338   1.832
11403SOL    HW236107  12.516  13.201   1.767
11404SOL     OW36108  12.170  14.140   1.957
11404SOL    HW136109  12.248  14.174   1.913
11404SOL    HW236110  12.154  14.056   1.916
11405SOL     OW36111   7.039   6.866   4.847
11405SOL    HW136112   6.965   6.872   4.787
11405SOL    HW236113   7.000   6.874   4.934
11406SOL     OW36114  14.737  12.530   4.143
11406SOL    HW136115  14.774  12.441   4.144
11406SOL    HW236116  14.642  12.516   4.150
11407SOL     OW36117  11.944   8.451  12.131
11407SOL    HW136118  11.883   8.447  12.204
11407SOL    HW236119  11.935   8.539  12.096
11408SOL     OW36120   1.017  10.519   8.564
11408SOL    HW136121   0.935  10.503   8.611
11408SOL    HW236122   1.073  10.563   8.628
11409SOL     OW36123   5.857   5.502   0.348
11409SOL    HW136124   5.901   5.570   0.400
11409SOL    HW236125   5.790   5.549   0.299
11410SOL     OW36126   0.642   7.015   0.379
11410SOL    HW136127   0.659   6.947   0.314
11410SOL    HW236128   0.666   6.976   0.462
11411SOL     OW36129   4.455   6.935   0.885
11411SOL    HW136130   4.432   6.847   0.916
11411SOL    HW236131   4.371   6.978   0.872
11412SOL     OW36132   0.751  10.141   1.118
11412SOL    HW136133   0.708  10.081   1.056
11412SOL    HW236134   0.842  10.143   1.090
11413SOL     OW36135   4.539  14.628  14.308
11413SOL    HW136136   4.479  14.686  14.260
11413SOL    HW236137   4.487  14.598  14.382
11414SOL     OW36138   9.585  11.862   0.849
11414SOL    HW136139   9.495  11.884   0.823
11414SOL    HW236140   9.595  11.770   0.824
11415SOL     OW36141  14.862   1.327   0.481
11415SOL    HW136142  14.802   1.302   0.411
11415SOL    HW236143  14.819   1.402   0.524
11416SOL     OW36144  14.465   6.701   0.922
11416SOL    HW136145  14.471   6.747   0.839
11416SOL    HW236146  14.415   6.759   0.979
11417SOL     OW36147   9.456   3.930   7.505
11417SOL    HW136148   9.388   3.911   7.441
11417SOL    HW236149   9.426   3.887   7.585
11418SOL     OW36150   3.205  12.284   9.324
11418SOL    HW136151   3.113  12.296   9.347
11418SOL    HW236152   3.213  12.324   9.237
11419SOL     OW36153   7.084  14.174   4.248
11419SOL    HW136154   7.103  14.187   4.155
11419SOL    HW236155   6.990  14.153   4.250
11420SOL     OW36156   6.964   4.227   9.429
11420SOL    HW136157   6.896   4.247   9.493
11420SOL    HW236158   7.042   4.211   9.482
11421SOL     OW36159   0.104  14.183   1.641
11421SOL    HW136160   0.169  14.240   1.682
11421SOL    HW236161   0.140  14.095   1.649
11422SOL     OW36162   5.605   1.860   3.573
11422SOL    HW136163   5.659   1.826   3.502
11422SOL    HW236164   5.516   1.831   3.551
11423SOL     OW36165   8.938  10.974  13.804
11423SOL    HW136166   8.854  11.017  13.816
11423SOL    HW236167   8.968  11.002  13.717
11424SOL     OW36168   2.620   4.898   9.096
11424SOL    HW136169   2.613   4.815   9.143
11424SOL    HW236170   2.662   4.875   9.013
11425SOL     OW36171  11.547   5.863   5.710
11425SOL    HW136172  11.552   5.897   5.621
11425SOL    HW236173  11.636   5.871   5.744
11426SOL     OW36174  14.162  14.190  13.553
11426SOL    HW136175  14.128  14.271  13.591
11426SOL    HW236176  14.254  14.188  13.578
11427SOL     OW36177   2.668  11.030  11.673
11427SOL    HW136178   2.622  11.108  11.643
11427SOL    HW236179   2.732  11.011  11.604
11428SOL     OW36180   1.998   9.653   1.022
11428SOL    HW136181   2.054   9.624   1.094
11428SOL    HW236182   1.916   9.679   1.065
11429SOL     OW36183  13.962   2.228   4.122
11429SOL    HW136184  13.917   2.302   4.162
11429SOL    HW236185  13.963   2.248   4.028
11430SOL     OW36186   4.976   7.460   5.577
11430SOL    HW136187   5.007   7.478   5.666
11430SOL    HW236188   4.920   7.534   5.556
11431SOL     OW36189  10.711   3.540   9.754
11431SOL    HW136190  10.716   3.446   9.736
11431SOL    HW236191  10.680   3.546   9.844
11432SOL     OW36192   5.489   7.371   5.795
11432SOL    HW136193   5.429   7.336   5.729
11432SOL    HW236194   5.576   7.356   5.758
11433SOL     OW36195   1.404   2.755   4.487
11433SOL    HW136196   1.379   2.786   4.574
11433SOL    HW236197   1.351   2.808   4.427
11434SOL     OW36198  11.739  14.709   2.587
11434SOL    HW136199  11.720  14.691   2.495
11434SOL    HW236200  11.812  14.771   2.584
11435SOL     OW36201   5.669   8.931  14.399
11435SOL    HW136202   5.624   8.942  14.316
11435SOL    HW236203   5.723   8.853  14.386
11436SOL     OW36204  10.867   0.323   9.415
11436SOL    HW136205  10.922   0.401   9.413
11436SOL    HW236206  10.866   0.292   9.324
11437SOL     OW36207   5.725  14.236  12.291
11437SOL    HW136208   5.739  14.322  12.330
11437SOL    HW236209   5.688  14.183  12.362
11438SOL     OW36210  13.939   3.474   6.726
11438SOL    HW136211  13.990   3.408   6.679
11438SOL    HW236212  14.001   3.544   6.745
11439SOL     OW36213  13.374  11.620  12.967
11439SOL    HW136214  13.303  11.646  12.908
11439SOL    HW236215  13.363  11.675  13.045
11440SOL     OW36216   4.229   0.271  13.526
11440SOL    HW136217   4.156   0.240  13.579
11440SOL    HW236218   4.193   0.345  13.477
11441SOL     OW36219   0.903   7.251   3.019
11441SOL    HW136220   0.940   7.269   3.105
11441SOL    HW236221   0.966   7.192   2.978
11442SOL     OW36222   3.026  11.778   0.628
11442SOL    HW136223   2.974  11.815   0.700
11442SOL    HW236224   3.096  11.842   0.615
11443SOL     OW36225   2.042   2.526  14.084
11443SOL    HW136226   2.021   2.615  14.055
11443SOL    HW236227   2.013   2.470  14.013
11444SOL     OW36228  13.446   3.518   0.297
11444SOL    HW136229  13.353   3.496   0.300
11444SOL    HW236230  13.471   3.503   0.205
11445SOL     OW36231   4.816  14.144  12.655
11445SOL    HW136232   4.878  14.168  12.586
11445SOL    HW236233   4.838  14.053  12.675
11446SOL     OW36234   7.297  14.731   5.562
11446SOL    HW136235   7.284  14.638   5.581
11446SOL    HW236236   7.391  14.745   5.569
11447SOL     OW36237   2.880  12.987  14.229
11447SOL    HW136238   2.944  12.919  14.208
11447SOL    HW236239   2.813  12.942  14.280
11448SOL     OW36240  13.567   5.535   9.796
11448SOL    HW136241  13.632   5.466   9.807
11448SOL    HW236242  13.551   5.567   9.885
11449SOL     OW36243  13.308   7.668  11.785
11449SOL    HW136244  13.267   7.670  11.698
11449SOL    HW236245  13.286   7.752  11.823
11450SOL     OW36246  10.675   4.663  11.776
11450SOL    HW136247  10.760   4.628  11.752
11450SOL    HW236248  10.622   4.587  11.798
11451SOL     OW36249  12.946   2.444   3.740
11451SOL    HW136250  12.991   2.424   3.822
11451SOL    HW236251  12.906   2.361   3.714
11452SOL     OW36252  14.612   5.724  13.405
11452SOL    HW136253  14.613   5.801  13.462
11452SOL    HW236254  14.573   5.755  13.323
11453SOL     OW36255   2.090   2.851  10.558
11453SOL    HW136256   2.019   2.850  10.622
11453SOL    HW236257   2.147   2.923  10.587
11454SOL     OW36258   5.359   6.831  13.630
11454SOL    HW136259   5.383   6.875  13.549
11454SOL    HW236260   5.424   6.761  13.640
11455SOL     OW36261   7.627  12.685   4.678
11455SOL    HW136262   7.613  12.600   4.638
11455SOL    HW236263   7.723  12.696   4.678
11456SOL     OW36264   5.549   2.319   1.583
11456SOL    HW136265   5.554   2.272   1.500
11456SOL    HW236266   5.616   2.387   1.575
11457SOL     OW36267  10.946   2.401  10.848
11457SOL    HW136268  11.031   2.434  10.878
11457SOL    HW236269  10.948   2.307  10.869
11458SOL     OW36270  12.465  10.927   8.540
11458SOL    HW136271  12.471  10.877   8.622
11458SOL    HW236272  12.406  10.999   8.560
11459SOL     OW36273   8.856   2.075   1.300
11459SOL    HW136274   8.906   2.014   1.354
11459SOL    HW236275   8.891   2.064   1.212
11460SOL     OW36276  13.420  10.272  12.148
11460SOL    HW136277  13.341  10.222  12.129
11460SOL    HW236278  13.408  10.354  12.099
11461SOL     OW36279   0.004   1.435   7.992
11461SOL    HW136280   0.086   1.421   8.038
11461SOL    HW236281  14.826   1.353   8.005
11462SOL     OW36282   0.308   6.184   0.051
11462SOL    HW136283   0.321   6.278   0.037
11462SOL    HW236284   0.250   6.157  14.851
11463SOL     OW36285  13.757   5.937   3.336
11463SOL    HW136286  13.708   5.862   3.367
11463SOL    HW236287  13.848   5.917   3.357
11464SOL     OW36288   0.793   5.270   1.362
11464SOL    HW136289   0.736   5.227   1.299
11464SOL    HW236290   0.882   5.252   1.330
11465SOL     OW36291   5.120   5.967   5.330
11465SOL    HW136292   5.211   5.961   5.361
11465SOL    HW236293   5.103   5.881   5.290
11466SOL     OW36294   4.055  10.815  11.803
11466SOL    HW136295   4.140  10.843  11.769
11466SOL    HW236296   4.016  10.763  11.733
11467SOL     OW36297   3.099   5.181   1.910
11467SOL    HW136298   3.008   5.199   1.934
11467SOL    HW236299   3.110   5.220   1.823
11468SOL     OW36300   9.990   4.921  12.621
11468SOL    HW136301   9.967   4.943  12.531
11468SOL    HW236302   9.992   4.826  12.624
11469SOL     OW36303   5.070   2.574   4.186
11469SOL    HW136304   5.050   2.661   4.151
11469SOL    HW236305   5.165   2.576   4.200
11470SOL     OW36306  13.298   5.054  10.127
11470SOL    HW136307  13.278   5.104  10.048
11470SOL    HW236308  13.345   5.116  10.183
11471SOL     OW36309   0.377   6.864  11.078
11471SOL    HW136310   0.313   6.913  11.026
11471SOL    HW236311   0.366   6.898  11.167
11472SOL     OW36312  12.279  13.853   8.948
11472SOL    HW136313  12.282  13.948   8.937
11472SOL    HW236314  12.190  13.828   8.921
11473SOL     OW36315   5.023  10.675   5.679
11473SOL    HW136316   5.117  10.659   5.689
11473SOL    HW236317   5.014  10.711   5.591
11474SOL     OW36318  12.911   3.478   7.965
11474SOL    HW136319  12.831   3.531   7.970
11474SOL    HW236320  12.950   3.502   7.881
11475SOL     OW36321  11.395   0.569  13.430
11475SOL    HW136322  11.410   0.591  13.522
11475SOL    HW236323  11.330   0.633  13.401
11476SOL     OW36324  14.653   1.792   5.943
11476SOL    HW136325  14.564   1.780   5.908
11476SOL    HW236326  14.642   1.795   6.038
11477SOL     OW36327   6.747   0.147   7.211
11477SOL    HW136328   6.808   0.220   7.226
11477SOL    HW236329   6.661   0.185   7.227
11478SOL     OW36330  10.384   1.441   6.365
11478SOL    HW136331  10.425   1.366   6.322
11478SOL    HW236332  10.361   1.501   6.294
11479SOL     OW36333   6.266   2.970   3.127
11479SOL    HW136334   6.282   3.029   3.201
11479SOL    HW236335   6.174   2.984   3.104
11480SOL     OW36336  14.525  12.868   3.416
11480SOL    HW136337  14.475  12.947   3.436
11480SOL    HW236338  14.608  12.900   3.381
11481SOL     OW36339   1.774   4.781   9.024
11481SOL    HW136340   1.844   4.846   9.028
11481SOL    HW236341   1.799   4.724   8.951
11482SOL     OW36342  14.091  11.029   6.842
11482SOL    HW136343  14.129  10.942   6.858
11482SOL    HW236344  14.131  11.085   6.909
11483SOL     OW36345   3.369   8.462   3.885
11483SOL    HW136346   3.347   8.431   3.797
11483SOL    HW236347   3.429   8.396   3.919
11484SOL     OW36348   5.927   9.651  10.983
11484SOL    HW136349   5.928   9.715  11.054
11484SOL    HW236350   5.835   9.643  10.957
11485SOL     OW36351   5.541   3.583  12.085
11485SOL    HW136352   5.448   3.602  12.076
11485SOL    HW236353   5.584   3.668  12.081
11486SOL     OW36354   1.600   6.211   5.482
11486SOL    HW136355   1.593   6.290   5.428
11486SOL    HW236356   1.578   6.240   5.570
11487SOL     OW36357   9.289   9.489   3.472
11487SOL    HW136358   9.315   9.399   3.492
11487SOL    HW236359   9.342   9.542   3.531
11488SOL     OW36360   5.761   4.328   0.820
11488SOL    HW136361   5.711   4.370   0.890
11488SOL    HW236362   5.821   4.268   0.864
11489SOL     OW36363  10.406  12.953  12.984
11489SOL    HW136364  10.462  12.889  13.028
11489SOL    HW236365  10.458  12.984  12.910
11490SOL     OW36366  12.365  14.494   4.420
11490SOL    HW136367  12.370  14.409   4.376
11490SOL    HW236368  12.343  14.556   4.350
11491SOL     OW36369   8.469   4.928   1.793
11491SOL    HW136370   8.469   5.017   1.827
11491SOL    HW236371   8.561   4.902   1.794
11492SOL     OW36372   0.806   0.530   3.344
11492SOL    HW136373   0.781   0.607   3.395
11492SOL    HW236374   0.813   0.563   3.254
11493SOL     OW36375   2.330   7.541   3.098
11493SOL    HW136376   2.401   7.564   3.038
11493SOL    HW236377   2.261   7.604   3.079
11494SOL     OW36378  11.724   2.439   5.491
11494SOL    HW136379  11.721   2.520   5.542
11494SOL    HW236380  11.791   2.386   5.534
11495SOL     OW36381  13.564   1.573   8.315
11495SOL    HW136382  13.631   1.600   8.378
11495SOL    HW236383  13.481   1.600   8.354
11496SOL     OW36384   0.724   4.402  14.195
11496SOL    HW136385   0.757   4.490  14.178
11496SOL    HW236386   0.634   4.402  14.163
11497SOL     OW36387  10.809   8.653   0.156
11497SOL    HW136388  10.833   8.740   0.123
11497SOL    HW236389  10.743   8.622   0.094
11498SOL     OW36390   7.165   0.833  14.361
11498SOL    HW136391   7.096   0.773  14.387
11498SOL    HW236392   7.192   0.803  14.274
11499SOL     OW36393   8.663  13.843   3.784
11499SOL    HW136394   8.650  13.883   3.698
11499SOL    HW236395   8.719  13.768   3.766
11500SOL     OW36396   1.695   8.992   8.808
11500SOL    HW136397   1.740   9.055   8.864
11500SOL    HW236398   1.710   8.908   8.850
11501SOL     OW36399   6.569  14.826  12.181
11501SOL    HW136400   6.567  14.752  12.120
11501SOL    HW236401   6.657  14.862  12.170
11502SOL     OW36402  14.853   7.963   6.748
11502SOL    HW136403  14.871   7.914   6.668
11502SOL    HW236404  14.761   7.945   6.766
11503SOL     OW36405   3.237   0.214   2.189
11503SOL    HW136406   3.298   0.142   2.204
11503SOL    HW236407   3.291   0.293   2.197
11504SOL     OW36408   7.264  12.192   0.875
11504SOL    HW136409   7.171  12.194   0.897
11504SOL    HW236410   7.302  12.130   0.939
11505SOL     OW36411   0.596   8.509  11.747
11505SOL    HW136412   0.637   8.517  11.660
11505SOL    HW236413   0.660   8.461  11.799
11506SOL     OW36414   6.086   3.038  12.618
11506SOL    HW136415   6.094   2.975  12.690
11506SOL    HW236416   6.177   3.055  12.591
11507SOL     OW36417   6.030   7.683   5.250
11507SOL    HW136418   6.048   7.592   5.272
11507SOL    HW236419   5.945   7.701   5.289
11508SOL     OW36420   0.101   5.030  14.307
11508SOL    HW136421   0.099   5.121  14.336
11508SOL    HW236422   0.019   4.992  14.339
11509SOL     OW36423   8.888   6.677   1.832
11509SOL    HW136424   8.902   6.663   1.738
11509SOL    HW236425   8.880   6.772   1.841
11510SOL     OW36426  11.576   0.747  13.166
11510SOL    HW136427  11.581   0.665  13.215
11510SOL    HW236428  11.635   0.734  13.092
11511SOL     OW36429   4.410   9.961   0.362
11511SOL    HW136430   4.440  10.036   0.414
11511SOL    HW236431   4.462   9.887   0.395
11512SOL     OW36432   9.758  11.806   9.798
11512SOL    HW136433   9.806  11.779   9.719
11512SOL    HW236434   9.685  11.858   9.765
11513SOL     OW36435   9.554  11.135   4.241
11513SOL    HW136436   9.496  11.079   4.189
11513SOL    HW236437   9.642  11.104   4.220
11514SOL     OW36438   3.418   0.204   6.084
11514SOL    HW136439   3.377   0.207   5.998
11514SOL    HW236440   3.393   0.286   6.127
11515SOL     OW36441  11.205   8.400   8.610
11515SOL    HW136442  11.266   8.451   8.558
11515SOL    HW236443  11.143   8.464   8.644
11516SOL     OW36444   8.093  10.933   6.683
11516SOL    HW136445   8.074  10.909   6.592
11516SOL    HW236446   8.022  10.895   6.733
11517SOL     OW36447   8.637  13.390   0.112
11517SOL    HW136448   8.556  13.339   0.112
11517SOL    HW236449   8.608  13.481   0.100
11518SOL     OW36450   4.604   1.256  12.202
11518SOL    HW136451   4.558   1.258  12.286
11518SOL    HW236452   4.639   1.344  12.191
11519SOL     OW36453   5.064   1.162   3.377
11519SOL    HW136454   5.135   1.106   3.343
11519SOL    HW236455   5.044   1.221   3.304
11520SOL     OW36456   0.482   4.886   5.698
11520SOL    HW136457   0.561   4.922   5.660
11520SOL    HW236458   0.510   4.804   5.740
11521SOL     OW36459  13.340   3.762  12.163
11521SOL    HW136460  13.378   3.795  12.245
11521SOL    HW236461  13.416   3.746  12.106
11522SOL     OW36462   1.593   6.603   9.114
11522SOL    HW136463   1.612   6.532   9.052
11522SOL    HW236464   1.676   6.650   9.123
11523SOL     OW36465  13.798  10.408  12.957
11523SOL    HW136466  13.728  10.400  13.022
11523SOL    HW236467  13.752  10.415  12.874
11524SOL     OW36468   1.133  14.227   4.726
11524SOL    HW136469   1.112  14.139   4.696
11524SOL    HW236470   1.109  14.284   4.653
11525SOL     OW36471   6.815   3.501   0.232
11525SOL    HW136472   6.729   3.459   0.232
11525SOL    HW236473   6.851   3.481   0.319
11526SOL     OW36474   2.317   6.536   1.400
11526SOL    HW136475   2.298   6.575   1.485
11526SOL    HW236476   2.380   6.466   1.420
11527SOL     OW36477   5.493  12.683  10.217
11527SOL    HW136478   5.584  12.690  10.190
11527SOL    HW236479   5.489  12.729  10.301
11528SOL     OW36480   7.864   0.900   7.423
11528SOL    HW136481   7.878   0.818   7.470
11528SOL    HW236482   7.893   0.882   7.334
11529SOL     OW36483   1.143   8.535   7.698
11529SOL    HW136484   1.116   8.461   7.752
11529SOL    HW236485   1.069   8.596   7.703
11530SOL     OW36486   7.012  11.172  14.533
11530SOL    HW136487   7.097  11.183  14.490
11530SOL    HW236488   6.949  11.208  14.471
11531SOL     OW36489   3.768  14.404   1.548
11531SOL    HW136490   3.779  14.309   1.537
11531SOL    HW236491   3.819  14.425   1.626
11532SOL     OW36492  14.526  14.072   9.744
11532SOL    HW136493  14.573  14.132   9.687
11532SOL    HW236494  14.566  13.986   9.727
11533SOL     OW36495   2.000  13.430  14.770
11533SOL    HW136496   1.905  13.424  14.784
11533SOL    HW236497   2.008  13.480  14.688
11534SOL     OW36498   8.980   7.810   4.572
11534SOL    HW136499   8.939   7.785   4.490
11534SOL    HW236500   9.070   7.779   4.565
11535SOL     OW36501   7.476  10.621   5.638
11535SOL    HW136502   7.477  10.706   5.681
11535SOL    HW236503   7.456  10.640   5.546
11536SOL     OW36504   6.150   9.638  11.915
11536SOL    HW136505   6.213   9.710  11.924
11536SOL    HW236506   6.178   9.573  11.979
11537SOL     OW36507  11.255  12.385   1.249
11537SOL    HW136508  11.323  12.436   1.208
11537SOL    HW236509  11.286  12.294   1.244
11538SOL     OW36510   1.979   5.974   5.039
11538SOL    HW136511   1.886   5.976   5.061
11538SOL    HW236512   1.983   5.926   4.956
11539SOL     OW36513   6.441   1.787  10.887
11539SOL    HW136514   6.446   1.771  10.793
11539SOL    HW236515   6.445   1.883  10.895
11540SOL     OW36516   5.160  12.852  10.918
11540SOL    HW136517   5.225  12.791  10.953
11540SOL    HW236518   5.091  12.855  10.985
11541SOL     OW36519  11.331   3.098   3.440
11541SOL    HW136520  11.355   3.037   3.510
11541SOL    HW236521  11.373   3.180   3.464
11542SOL     OW36522   8.511   5.539   3.148
11542SOL    HW136523   8.572   5.601   3.186
11542SOL    HW236524   8.424   5.570   3.176
11543SOL     OW36525   4.832  12.051  13.284
11543SOL    HW136526   4.780  11.984  13.238
11543SOL    HW236527   4.841  12.017  13.373
11544SOL     OW36528   7.880   6.968  13.218
11544SOL    HW136529   7.854   6.900  13.281
11544SOL    HW236530   7.932   7.029  13.270
11545SOL     OW36531   9.065   8.510  11.801
11545SOL    HW136532   8.971   8.512  11.782
11545SOL    HW236533   9.094   8.600  11.787
11546SOL     OW36534   2.955   0.818   4.053
11546SOL    HW136535   2.952   0.908   4.086
11546SOL    HW236536   2.863   0.794   4.038
11547SOL     OW36537   8.273   7.708   7.114
11547SOL    HW136538   8.197   7.722   7.059
11547SOL    HW236539   8.248   7.639   7.175
11548SOL     OW36540  11.078   5.405   8.979
11548SOL    HW136541  11.101   5.459   8.904
11548SOL    HW236542  10.988   5.376   8.960
11549SOL     OW36543   7.897   8.807  12.032
11549SOL    HW136544   7.877   8.728  11.981
11549SOL    HW236545   7.898   8.778  12.123
11550SOL     OW36546  13.403  11.570  13.932
11550SOL    HW136547  13.497  11.586  13.919
11550SOL    HW236548  13.364  11.589  13.847
11551SOL     OW36549   4.873   2.674  10.200
11551SOL    HW136550   4.891   2.625  10.119
11551SOL    HW236551   4.869   2.608  10.268
11552SOL     OW36552   7.763   2.696  13.122
11552SOL    HW136553   7.677   2.694  13.080
11552SOL    HW236554   7.811   2.765  13.075
11553SOL     OW36555  14.634   8.652   3.506
11553SOL    HW136556  14.539   8.653   3.509
11553SOL    HW236557  14.656   8.704   3.429
11554SOL     OW36558   3.693   5.429   3.477
11554SOL    HW136559   3.713   5.341   3.510
11554SOL    HW236560   3.759   5.445   3.409
11555SOL     OW36561   7.187   9.326   2.383
11555SOL    HW136562   7.182   9.233   2.401
11555SOL    HW236563   7.178   9.333   2.288
11556SOL     OW36564   7.028   3.815   8.868
11556SOL    HW136565   6.978   3.882   8.914
11556SOL    HW236566   7.091   3.865   8.815
11557SOL     OW36567  13.128  12.901   9.557
11557SOL    HW136568  13.199  12.956   9.589
11557SOL    HW236569  13.048  12.949   9.580
11558SOL     OW36570   0.840  11.047  12.550
11558SOL    HW136571   0.905  11.114  12.529
11558SOL    HW236572   0.852  10.980  12.482
11559SOL     OW36573   2.544  10.895  13.000
11559SOL    HW136574   2.478  10.932  13.058
11559SOL    HW236575   2.508  10.907  12.912
11560SOL     OW36576   6.074   6.583  13.783
11560SOL    HW136577   5.997   6.546  13.739
11560SOL    HW236578   6.140   6.588  13.714
11561SOL     OW36579   8.847   6.170  10.492
11561SOL    HW136580   8.783   6.220  10.542
11561SOL    HW236581   8.927   6.221  10.497
11562SOL     OW36582   5.430   6.538   4.403
11562SOL    HW136583   5.384   6.505   4.326
11562SOL    HW236584   5.460   6.459   4.448
11563SOL     OW36585  12.819  13.144  11.233
11563SOL    HW136586  12.781  13.136  11.321
11563SOL    HW236587  12.803  13.235  11.208
11564SOL     OW36588   8.383   2.246   0.307
11564SOL    HW136589   8.326   2.311   0.348
11564SOL    HW236590   8.335   2.164   0.314
11565SOL     OW36591  13.495   2.120   9.839
11565SOL    HW136592  13.517   2.180   9.910
11565SOL    HW236593  13.399   2.119   9.836
11566SOL     OW36594   5.667   5.321   7.450
11566SOL    HW136595   5.660   5.245   7.508
11566SOL    HW236596   5.690   5.283   7.364
11567SOL     OW36597   5.671   0.039  13.982
11567SOL    HW136598   5.598   0.073  14.033
11567SOL    HW236599   5.719  14.854  14.042
11568SOL     OW36600  13.884   1.496   1.031
11568SOL    HW136601  13.979   1.512   1.027
11568SOL    HW236602  13.873   1.410   0.993
11569SOL     OW36603  14.457  13.000  10.954
11569SOL    HW136604  14.552  13.001  10.941
11569SOL    HW236605  14.424  13.067  10.894
11570SOL     OW36606  10.429   0.079   8.182
11570SOL    HW136607  10.386   0.151   8.135
11570SOL    HW236608  10.433   0.108   8.273
11571SOL     OW36609   7.597  13.699  12.610
11571SOL    HW136610   7.548  13.635  12.558
11571SOL    HW236611   7.687  13.693  12.576
11572SOL     OW36612   1.965   0.102   5.308
11572SOL    HW136613   1.947   0.028   5.250
11572SOL    HW236614   1.966   0.178   5.251
11573SOL     OW36615   8.108  14.420  13.511
11573SOL    HW136616   8.025  14.458  13.482
11573SOL    HW236617   8.089  14.386  13.598
11574SOL     OW36618  14.100  12.367  13.441
11574SOL    HW136619  14.124  12.303  13.508
11574SOL    HW236620  14.062  12.440  13.491
11575SOL     OW36621   8.538   5.735  12.143
11575SOL    HW136622   8.576   5.713  12.228
11575SOL    HW236623   8.554   5.658  12.089
11576SOL     OW36624   4.303  10.128   4.851
11576SOL    HW136625   4.373  10.091   4.904
11576SOL    HW236626   4.334  10.215   4.827
11577SOL     OW36627  12.840   1.587   5.064
11577SOL    HW136628  12.897   1.655   5.029
11577SOL    HW236629  12.847   1.596   5.159
11578SOL     OW36630   7.631   0.030  11.064
11578SOL    HW136631   7.670   0.043  10.978
11578SOL    HW236632   7.542   0.065  11.056
11579SOL     OW36633   4.809   6.374   4.241
11579SOL    HW136634   4.762   6.365   4.158
11579SOL    HW236635   4.744   6.352   4.308
11580SOL     OW36636   1.229   6.132   7.495
11580SOL    HW136637   1.196   6.147   7.584
11580SOL    HW236638   1.182   6.196   7.441
11581SOL     OW36639   2.719   4.554  10.401
11581SOL    HW136640   2.681   4.467  10.414
11581SOL    HW236641   2.812   4.538  10.383
11582SOL     OW36642   7.025   5.586   9.320
11582SOL    HW136643   7.022   5.671   9.364
11582SOL    HW236644   7.016   5.522   9.391
11583SOL     OW36645   5.703   8.562   2.463
11583SOL    HW136646   5.751   8.498   2.410
11583SOL    HW236647   5.619   8.572   2.418
11584SOL     OW36648  13.060  10.775  11.158
11584SOL    HW136649  12.983  10.730  11.193
11584SOL    HW236650  13.045  10.867  11.177
11585SOL     OW36651   6.709  11.719   7.281
11585SOL    HW136652   6.765  11.729   7.358
11585SOL    HW236653   6.764  11.750   7.208
11586SOL     OW36654  11.550  12.804   6.572
11586SOL    HW136655  11.520  12.829   6.659
11586SOL    HW236656  11.644  12.790   6.582
11587SOL     OW36657   4.598  12.649  12.409
11587SOL    HW136658   4.674  12.706  12.394
11587SOL    HW236659   4.535  12.676  12.343
11588SOL     OW36660   5.968   4.516  14.132
11588SOL    HW136661   5.884   4.496  14.092
11588SOL    HW236662   5.953   4.507  14.226
11589SOL     OW36663   4.988   5.533   4.519
11589SOL    HW136664   5.037   5.604   4.560
11589SOL    HW236665   5.030   5.453   4.551
11590SOL     OW36666  11.713   1.836   4.087
11590SOL    HW136667  11.778   1.832   4.017
11590SOL    HW236668  11.706   1.746   4.118
11591SOL     OW36669   6.841  10.340   4.743
11591SOL    HW136670   6.772  10.275   4.729
11591SOL    HW236671   6.825  10.407   4.676
11592SOL     OW36672  10.451   6.130   6.053
11592SOL    HW136673  10.406   6.060   6.101
11592SOL    HW236674  10.381   6.184   6.018
11593SOL     OW36675   1.374   7.895   7.960
11593SOL    HW136676   1.408   7.820   8.009
11593SOL    HW236677   1.292   7.863   7.921
11594SOL     OW36678  13.305  12.668   6.426
11594SOL    HW136679  13.236  12.613   6.461
11594SOL    HW236680  13.359  12.609   6.373
11595SOL     OW36681   9.552  14.025   5.003
11595SOL    HW136682   9.612  13.987   4.939
11595SOL    HW236683   9.554  14.119   4.985
11596SOL     OW36684  11.960  13.816  14.831
11596SOL    HW136685  12.024  13.887  14.826
11596SOL    HW236686  11.929  13.818   0.050
11597SOL     OW36687  13.766   6.857   8.552
11597SOL    HW136688  13.721   6.843   8.469
11597SOL    HW236689  13.759   6.950   8.569
11598SOL     OW36690   7.783   8.709   5.653
11598SOL    HW136691   7.841   8.774   5.613
11598SOL    HW236692   7.842   8.643   5.688
11599SOL     OW36693   9.313   0.275  10.805
11599SOL    HW136694   9.399   0.236  10.793
11599SOL    HW236695   9.318   0.321  10.889
11600SOL     OW36696   8.320   1.668   1.823
11600SOL    HW136697   8.373   1.744   1.801
11600SOL    HW236698   8.235   1.704   1.848
11601SOL     OW36699  13.394  11.874   3.654
11601SOL    HW136700  13.476  11.873   3.606
11601SOL    HW236701  13.387  11.787   3.692
11602SOL     OW36702  13.372   1.572  11.240
11602SOL    HW136703  13.415   1.655  11.221
11602SOL    HW236704  13.279   1.593  11.246
11603SOL     OW36705  11.947   7.773  11.226
11603SOL    HW136706  11.936   7.865  11.250
11603SOL    HW236707  12.037   7.752  11.252
11604SOL     OW36708  13.763  13.451   0.651
11604SOL    HW136709  13.735  13.535   0.690
11604SOL    HW236710  13.761  13.467   0.557
11605SOL     OW36711   5.900   7.046   8.163
11605SOL    HW136712   5.940   6.979   8.108
11605SOL    HW236713   5.811   7.016   8.177
11606SOL     OW36714   2.642   1.259   1.226
11606SOL    HW136715   2.658   1.230   1.136
11606SOL    HW236716   2.560   1.307   1.222
11607SOL     OW36717  10.935   0.286  14.133
11607SOL    HW136718  10.844   0.298  14.161
11607SOL    HW236719  10.929   0.264  14.040
11608SOL     OW36720  13.369   5.577  10.753
11608SOL    HW136721  13.366   5.540  10.841
11608SOL    HW236722  13.277   5.579  10.725
11609SOL     OW36723  10.978  14.675  11.792
11609SOL    HW136724  10.914  14.730  11.748
11609SOL    HW236725  11.011  14.730  11.864
11610SOL     OW36726   3.843  13.715  11.951
11610SOL    HW136727   3.911  13.782  11.961
11610SOL    HW236728   3.777  13.738  12.017
11611SOL     OW36729   8.270   6.494   9.567
11611SOL    HW136730   8.358   6.509   9.600
11611SOL    HW236731   8.221   6.571   9.593
11612SOL     OW36732   8.165   3.829  12.563
11612SOL    HW136733   8.199   3.740  12.556
11612SOL    HW236734   8.220   3.871  12.630
11613SOL     OW36735  11.631  13.028   3.652
11613SOL    HW136736  11.569  13.015   3.581
11613SOL    HW236737  11.593  12.979   3.725
11614SOL     OW36738   6.388  13.628   7.169
11614SOL    HW136739   6.414  13.578   7.092
11614SOL    HW236740   6.471  13.660   7.205
11615SOL     OW36741   3.029  12.181  14.546
11615SOL    HW136742   3.024  12.182  14.642
11615SOL    HW236743   3.106  12.234  14.525
11616SOL     OW36744   8.575  10.300   9.962
11616SOL    HW136745   8.512  10.231   9.979
11616SOL    HW236746   8.614  10.318  10.047
11617SOL     OW36747   5.017   5.131   5.992
11617SOL    HW136748   5.033   5.109   5.900
11617SOL    HW236749   4.982   5.051   6.030
11618SOL     OW36750  13.227   5.404   0.384
11618SOL    HW136751  13.286   5.329   0.378
11618SOL    HW236752  13.223   5.438   0.295
11619SOL     OW36753   5.609  11.432  10.644
11619SOL    HW136754   5.640  11.442  10.734
11619SOL    HW236755   5.533  11.489  10.638
11620SOL     OW36756  12.464   7.712  13.992
11620SOL    HW136757  12.463   7.797  14.035
11620SOL    HW236758  12.515   7.656  14.051
11621SOL     OW36759  14.023   9.201  12.212
11621SOL    HW136760  14.004   9.293  12.229
11621SOL    HW236761  14.103   9.183  12.262
11622SOL     OW36762   8.063   6.132   5.500
11622SOL    HW136763   8.094   6.137   5.410
11622SOL    HW236764   8.037   6.222   5.521
11623SOL     OW36765   7.037  10.028   5.665
11623SOL    HW136766   7.107  10.054   5.725
11623SOL    HW236767   6.956  10.051   5.711
11624SOL     OW36768  11.499  12.381   2.453
11624SOL    HW136769  11.465  12.470   2.448
11624SOL    HW236770  11.495  12.359   2.546
11625SOL     OW36771  14.792   5.270   0.258
11625SOL    HW136772  14.778   5.360   0.286
11625SOL    HW236773  14.852   5.277   0.184
11626SOL     OW36774   4.687  13.842   9.455
11626SOL    HW136775   4.635  13.812   9.530
11626SOL    HW236776   4.679  13.771   9.391
11627SOL     OW36777  10.840   0.519   8.724
11627SOL    HW136778  10.793   0.463   8.786
11627SOL    HW236779  10.931   0.489   8.730
11628SOL     OW36780   4.841   5.146   1.449
11628SOL    HW136781   4.809   5.086   1.381
11628SOL    HW236782   4.780   5.220   1.447
11629SOL     OW36783  14.255   2.030   7.506
11629SOL    HW136784  14.288   2.042   7.594
11629SOL    HW236785  14.192   1.958   7.513
11630SOL     OW36786  13.996   2.569   3.005
11630SOL    HW136787  13.989   2.534   3.094
11630SOL    HW236788  14.065   2.634   3.010
11631SOL     OW36789  10.076  14.075  11.186
11631SOL    HW136790   9.991  14.031  11.194
11631SOL    HW236791  10.087  14.089  11.092
11632SOL     OW36792  13.307  14.136   0.372
11632SOL    HW136793  13.308  14.232   0.368
11632SOL    HW236794  13.310  14.109   0.280
11633SOL     OW36795   7.054   4.372   5.839
11633SOL    HW136796   6.968   4.330   5.852
11633SOL    HW236797   7.037   4.442   5.776
11634SOL     OW36798   7.860   4.032   5.560
11634SOL    HW136799   7.926   4.092   5.596
11634SOL    HW236800   7.793   4.090   5.524
11635SOL     OW36801  12.992   0.700   7.146
11635SOL    HW136802  13.032   0.698   7.059
11635SOL    HW236803  12.973   0.792   7.162
11636SOL     OW36804  12.474  12.579   2.131
11636SOL    HW136805  12.552  12.602   2.081
11636SOL    HW236806  12.468  12.483   2.123
11637SOL     OW36807  11.278  12.719   3.582
11637SOL    HW136808  11.296  12.712   3.676
11637SOL    HW236809  11.359  12.690   3.540
11638SOL     OW36810   2.701   9.559  13.692
11638SOL    HW136811   2.694   9.606  13.775
11638SOL    HW236812   2.682   9.624  13.625
11639SOL     OW36813   5.117   5.240  13.595
11639SOL    HW136814   5.027   5.215  13.616
11639SOL    HW236815   5.110   5.287  13.512
11640SOL     OW36816  14.581   1.309   0.626
11640SOL    HW136817  14.653   1.373   0.627
11640SOL    HW236818  14.510   1.354   0.581
11641SOL     OW36819  10.267  12.092   6.893
11641SOL    HW136820  10.212  12.030   6.941
11641SOL    HW236821  10.344  12.104   6.949
11642SOL     OW36822   8.636  10.075  12.003
11642SOL    HW136823   8.645  10.098  12.096
11642SOL    HW236824   8.604   9.985  12.004
11643SOL     OW36825   7.091   3.364   0.911
11643SOL    HW136826   7.171   3.362   0.964
11643SOL    HW236827   7.039   3.290   0.945
11644SOL     OW36828   9.800   3.773   3.046
11644SOL    HW136829   9.708   3.776   3.071
11644SOL    HW236830   9.800   3.787   2.951
11645SOL     OW36831   2.991  12.125   8.741
11645SOL    HW136832   2.995  12.062   8.813
11645SOL    HW236833   3.056  12.093   8.678
11646SOL     OW36834   2.629  13.470   9.039
11646SOL    HW136835   2.633  13.385   8.995
11646SOL    HW236836   2.641  13.450   9.132
11647SOL     OW36837   3.094  13.081  14.707
11647SOL    HW136838   3.009  13.085  14.751
11647SOL    HW236839   3.125  13.171  14.705
11648SOL     OW36840   1.641  11.468   7.949
11648SOL    HW136841   1.613  11.546   7.900
11648SOL    HW236842   1.684  11.502   8.027
11649SOL     OW36843  12.387  12.936  10.539
11649SOL    HW136844  12.368  12.923  10.446
11649SOL    HW236845  12.455  13.004  10.540
11650SOL     OW36846   1.778  14.591  12.229
11650SOL    HW136847   1.823  14.647  12.292
11650SOL    HW236848   1.845  14.529  12.200
11651SOL     OW36849   7.326   2.428  14.598
11651SOL    HW136850   7.304   2.460  14.511
11651SOL    HW236851   7.270   2.480  14.657
11652SOL     OW36852  10.262  10.258   1.210
11652SOL    HW136853  10.283  10.177   1.164
11652SOL    HW236854  10.281  10.327   1.147
11653SOL     OW36855   3.841  14.178   3.589
11653SOL    HW136856   3.790  14.099   3.609
11653SOL    HW236857   3.784  14.228   3.530
11654SOL     OW36858   7.196   6.077  12.628
11654SOL    HW136859   7.154   6.102  12.546
11654SOL    HW236860   7.287   6.106  12.618
11655SOL     OW36861   0.854  10.192   3.524
11655SOL    HW136862   0.891  10.280   3.518
11655SOL    HW236863   0.783  10.192   3.460
11656SOL     OW36864   1.027   7.976  14.575
11656SOL    HW136865   1.020   7.977  14.479
11656SOL    HW236866   1.036   7.884  14.598
11657SOL     OW36867  13.070   4.136   6.007
11657SOL    HW136868  13.065   4.140   6.102
11657SOL    HW236869  13.162   4.151   5.986
11658SOL     OW36870  14.023  10.567  13.941
11658SOL    HW136871  14.084  10.493  13.936
11658SOL    HW236872  14.063  10.635  13.887
11659SOL     OW36873   1.633  11.610  11.030
11659SOL    HW136874   1.559  11.662  11.060
11659SOL    HW236875   1.707  11.642  11.082
11660SOL     OW36876   3.630   9.913   0.485
11660SOL    HW136877   3.541   9.885   0.508
11660SOL    HW236878   3.662   9.958   0.563
11661SOL     OW36879   2.008  10.305   9.558
11661SOL    HW136880   2.061  10.331   9.633
11661SOL    HW236881   2.067  10.255   9.502
11662SOL     OW36882   9.903   4.231   9.795
11662SOL    HW136883   9.998   4.236   9.798
11662SOL    HW236884   9.881   4.246   9.703
11663SOL     OW36885   5.436   9.909   3.820
11663SOL    HW136886   5.424  10.004   3.830
11663SOL    HW236887   5.350   9.877   3.791
11664SOL     OW36888   0.167  11.608   9.421
11664SOL    HW136889   0.238  11.668   9.401
11664SOL    HW236890   0.210  11.522   9.428
11665SOL     OW36891   8.831   5.302  10.871
11665SOL    HW136892   8.838   5.328  10.779
11665SOL    HW236893   8.828   5.207  10.869
11666SOL     OW36894   2.706  10.432   2.216
11666SOL    HW136895   2.776  10.408   2.277
11666SOL    HW236896   2.724  10.523   2.193
11667SOL     OW36897  11.431   8.308  11.511
11667SOL    HW136898  11.372   8.288  11.438
11667SOL    HW236899  11.463   8.396  11.492
11668SOL     OW36900   1.950   1.609   2.971
11668SOL    HW136901   2.041   1.617   2.941
11668SOL    HW236902   1.915   1.537   2.919
11669SOL     OW36903  11.912  10.480  12.038
11669SOL    HW136904  11.959  10.421  12.096
11669SOL    HW236905  11.980  10.523  11.986
11670SOL     OW36906   6.710   1.371  14.253
11670SOL    HW136907   6.741   1.284  14.277
11670SOL    HW236908   6.708   1.419  14.335
11671SOL     OW36909   3.596  13.210  14.732
11671SOL    HW136910   3.561  13.122  14.739
11671SOL    HW236911   3.623  13.218  14.641
11672SOL     OW36912   8.131   2.332   4.375
11672SOL    HW136913   8.221   2.358   4.394
11672SOL    HW236914   8.087   2.335   4.460
11673SOL     OW36915   2.794   6.172   8.465
11673SOL    HW136916   2.847   6.229   8.410
11673SOL    HW236917   2.828   6.084   8.450
11674SOL     OW36918   2.395   2.130   4.886
11674SOL    HW136919   2.488   2.126   4.909
11674SOL    HW236920   2.393   2.110   4.792
11675SOL     OW36921   4.576   0.372   6.212
11675SOL    HW136922   4.483   0.351   6.215
11675SOL    HW236923   4.617   0.307   6.270
11676SOL     OW36924   5.569  12.511   3.863
11676SOL    HW136925   5.647  12.464   3.832
11676SOL    HW236926   5.496  12.467   3.819
11677SOL     OW36927  12.286   4.113   2.872
11677SOL    HW136928  12.233   4.192   2.878
11677SOL    HW236929  12.223   4.043   2.859
11678SOL     OW36930   6.537   9.048  13.928
11678SOL    HW136931   6.580   9.129  13.959
11678SOL    HW236932   6.608   8.985  13.922
11679SOL     OW36933   0.547  14.406   9.916
11679SOL    HW136934   0.534  14.378  10.007
11679SOL    HW236935   0.639  14.388   9.898
11680SOL     OW36936  13.936   6.537   4.390
11680SOL    HW136937  13.982   6.566   4.469
11680SOL    HW236938  13.844   6.548   4.410
11681SOL     OW36939  13.054   3.610   2.702
11681SOL    HW136940  12.981   3.551   2.682
11681SOL    HW236941  13.128   3.573   2.654
11682SOL     OW36942   3.617   3.277  13.241
11682SOL    HW136943   3.625   3.357  13.294
11682SOL    HW236944   3.541   3.293  13.186
11683SOL     OW36945   3.080   2.484   4.682
11683SOL    HW136946   3.115   2.571   4.663
11683SOL    HW236947   3.095   2.435   4.601
11684SOL     OW36948   8.604   6.506  14.620
11684SOL    HW136949   8.698   6.492  14.609
11684SOL    HW236950   8.563   6.451  14.555
11685SOL     OW36951   3.393  12.591  10.811
11685SOL    HW136952   3.322  12.652  10.791
11685SOL    HW236953   3.387  12.523  10.745
11686SOL     OW36954   1.153   6.385   6.283
11686SOL    HW136955   1.199   6.320   6.335
11686SOL    HW236956   1.222   6.444   6.252
11687SOL     OW36957   1.992   0.932   0.627
11687SOL    HW136958   2.040   0.878   0.565
11687SOL    HW236959   1.976   1.014   0.580
11688SOL     OW36960  13.782   9.145  12.314
11688SOL    HW136961  13.871   9.166  12.286
11688SOL    HW236962  13.772   9.191  12.397
11689SOL     OW36963   6.843  12.188   5.348
11689SOL    HW136964   6.762  12.177   5.397
11689SOL    HW236965   6.824  12.255   5.283
11690SOL     OW36966   1.607   1.200   7.252
11690SOL    HW136967   1.695   1.223   7.281
11690SOL    HW236968   1.603   1.105   7.261
11691SOL     OW36969   7.070   1.575   1.628
11691SOL    HW136970   7.067   1.669   1.649
11691SOL    HW236971   6.994   1.539   1.672
11692SOL     OW36972   9.479   0.353  12.707
11692SOL    HW136973   9.465   0.274  12.760
11692SOL    HW236974   9.540   0.405  12.759
11693SOL     OW36975  12.431  13.877  10.860
11693SOL    HW136976  12.520  13.868  10.827
11693SOL    HW236977  12.441  13.880  10.955
11694SOL     OW36978   8.831   7.930   8.835
11694SOL    HW136979   8.874   7.961   8.756
11694SOL    HW236980   8.779   7.854   8.806
11695SOL     OW36981   0.028   4.180   0.735
11695SOL    HW136982  14.824   4.121   0.741
11695SOL    HW236983   0.104   4.123   0.746
11696SOL     OW36984   6.387  12.633   3.507
11696SOL    HW136985   6.323  12.638   3.437
11696SOL    HW236986   6.443  12.558   3.483
11697SOL     OW36987   3.686   3.692   6.164
11697SOL    HW136988   3.772   3.651   6.171
11697SOL    HW236989   3.704   3.780   6.129
11698SOL     OW36990  11.751  10.122   7.236
11698SOL    HW136991  11.687  10.103   7.305
11698SOL    HW236992  11.729  10.060   7.166
11699SOL     OW36993   9.444  10.115   1.967
11699SOL    HW136994   9.476  10.203   1.988
11699SOL    HW236995   9.479  10.060   2.037
11700SOL     OW36996  10.628   8.818   1.535
11700SOL    HW136997  10.650   8.807   1.443
11700SOL    HW236998  10.590   8.906   1.541
11701SOL     OW36999   2.028  10.958   7.074
11701SOL    HW137000   2.117  10.932   7.097
11701SOL    HW237001   2.026  10.958   6.978
11702SOL     OW37002   5.971   7.065   9.115
11702SOL    HW137003   5.991   7.151   9.151
11702SOL    HW237004   5.961   7.080   9.021
11703SOL     OW37005   5.108  12.613   1.917
11703SOL    HW137006   5.015  12.604   1.938
11703SOL    HW237007   5.139  12.685   1.971
11704SOL     OW37008  13.139  14.024   2.587
11704SOL    HW137009  13.139  13.963   2.513
11704SOL    HW237010  13.052  14.062   2.588
11705SOL     OW37011  14.197   9.608  12.839
11705SOL    HW137012  14.221   9.524  12.878
11705SOL    HW237013  14.263   9.670  12.871
11706SOL     OW37014   0.713   3.594   6.330
11706SOL    HW137015   0.702   3.520   6.271
11706SOL    HW237016   0.720   3.670   6.272
11707SOL     OW37017  13.098   8.943   7.462
11707SOL    HW137018  13.072   8.950   7.370
11707SOL    HW237019  13.083   9.031   7.497
11708SOL     OW37020   9.608   3.703   8.145
11708SOL    HW137021   9.613   3.772   8.079
11708SOL    HW237022   9.631   3.623   8.098
11709SOL     OW37023   4.809  14.803  14.307
11709SOL    HW137024   4.871  14.853  14.254
11709SOL    HW237025   4.723  14.836  14.281
11710SOL     OW37026   0.433   3.067  11.969
11710SOL    HW137027   0.503   3.129  11.949
11710SOL    HW237028   0.478   2.986  11.993
11711SOL     OW37029   7.919   4.540   6.614
11711SOL    HW137030   7.851   4.473   6.624
11711SOL    HW237031   7.906   4.574   6.525
11712SOL     OW37032   7.234  11.652   8.443
11712SOL    HW137033   7.184  11.654   8.525
11712SOL    HW237034   7.195  11.722   8.390
11713SOL     OW37035   6.537   6.717   3.286
11713SOL    HW137036   6.473   6.709   3.356
11713SOL    HW237037   6.581   6.801   3.303
11714SOL     OW37038   2.071  12.095  10.493
11714SOL    HW137039   2.115  12.180  10.485
11714SOL    HW237040   1.992  12.113  10.542
11715SOL     OW37041  12.172   9.080   1.555
11715SOL    HW137042  12.251   9.027   1.540
11715SOL    HW237043  12.202   9.151   1.612
11716SOL     OW37044  13.530   4.198  12.667
11716SOL    HW137045  13.608   4.178  12.718
11716SOL    HW237046  13.554   4.274  12.615
11717SOL     OW37047   0.211   6.637  12.755
11717SOL    HW137048   0.232   6.682  12.673
11717SOL    HW237049   0.150   6.568  12.730
11718SOL     OW37050   6.950   0.224   0.414
11718SOL    HW137051   7.043   0.201   0.420
11718SOL    HW237052   6.932   0.225   0.320
11719SOL     OW37053   8.078  12.462   2.667
11719SOL    HW137054   7.997  12.504   2.636
11719SOL    HW237055   8.133  12.456   2.588
11720SOL     OW37056  12.582  12.935   3.519
11720SOL    HW137057  12.600  12.972   3.605
11720SOL    HW237058  12.639  12.857   3.514
11721SOL     OW37059   4.888   9.193  11.858
11721SOL    HW137060   4.879   9.176  11.952
11721SOL    HW237061   4.973   9.156  11.835
11722SOL     OW37062   9.091  14.802  11.470
11722SOL    HW137063   9.054   0.009  11.510
11722SOL    HW237064   9.060  14.803  11.380
11723SOL     OW37065   3.912   7.224   3.418
11723SOL    HW137066   3.994   7.269   3.400
11723SOL    HW237067   3.917   7.200   3.510
11724SOL     OW37068   8.256  14.573  11.344
11724SOL    HW137069   8.331  14.616  11.384
11724SOL    HW237070   8.228  14.633  11.275
11725SOL     OW37071   2.419   8.163  10.363
11725SOL    HW137072   2.417   8.082  10.414
11725SOL    HW237073   2.382   8.139  10.278
11726SOL     OW37074  11.737   4.468   0.033
11726SOL    HW137075  11.652   4.424   0.043
11726SOL    HW237076  11.780   4.421  14.833
11727SOL     OW37077   3.803   3.873   9.514
11727SOL    HW137078   3.884   3.834   9.480
11727SOL    HW237079   3.825   3.966   9.527
11728SOL     OW37080  12.610  11.040  14.423
11728SOL    HW137081  12.634  11.103  14.355
11728SOL    HW237082  12.554  10.977  14.379
11729SOL     OW37083   8.301   9.427  10.648
11729SOL    HW137084   8.238   9.499  10.638
11729SOL    HW237085   8.365   9.443  10.579
11730SOL     OW37086   0.517   1.134   8.767
11730SOL    HW137087   0.453   1.063   8.757
11730SOL    HW237088   0.506   1.187   8.688
11731SOL     OW37089  10.760   6.293  11.199
11731SOL    HW137090  10.820   6.367  11.192
11731SOL    HW237091  10.712   6.293  11.116
11732SOL     OW37092  11.594   6.377   9.358
11732SOL    HW137093  11.590   6.376   9.262
11732SOL    HW237094  11.600   6.470   9.380
11733SOL     OW37095   4.151   7.054  13.184
11733SOL    HW137096   4.238   7.038  13.221
11733SOL    HW237097   4.109   7.111  13.248
11734SOL     OW37098   3.166   7.572   8.526
11734SOL    HW137099   3.214   7.509   8.471
11734SOL    HW237100   3.119   7.627   8.464
11735SOL     OW37101   0.069  11.992   3.132
11735SOL    HW137102   0.145  12.024   3.182
11735SOL    HW237103   0.097  11.995   3.041
11736SOL     OW37104   8.752   4.879  10.503
11736SOL    HW137105   8.668   4.920  10.483
11736SOL    HW237106   8.733   4.785  10.507
11737SOL     OW37107   9.193  12.007  13.745
11737SOL    HW137108   9.166  12.030  13.656
11737SOL    HW237109   9.235  12.087  13.779
11738SOL     OW37110   4.504   2.731   3.664
11738SOL    HW137111   4.531   2.716   3.755
11738SOL    HW237112   4.585   2.720   3.613
11739SOL     OW37113   3.723   3.046   4.644
11739SOL    HW137114   3.645   3.086   4.605
11739SOL    HW237115   3.741   3.100   4.721
11740SOL     OW37116   1.502  12.166   5.699
11740SOL    HW137117   1.530  12.239   5.754
11740SOL    HW237118   1.419  12.195   5.661
11741SOL     OW37119   2.995   0.187  12.799
11741SOL    HW137120   3.001   0.278  12.825
11741SOL    HW237121   3.077   0.169  12.754
11742SOL     OW37122  10.297  14.546  11.721
11742SOL    HW137123  10.243  14.476  11.684
11742SOL    HW237124  10.387  14.521  11.699
11743SOL     OW37125  11.079  13.938   9.635
11743SOL    HW137126  11.134  14.014   9.616
11743SOL    HW237127  11.040  13.914   9.551
11744SOL     OW37128  13.966  13.013   8.408
11744SOL    HW137129  14.006  13.031   8.493
11744SOL    HW237130  13.875  12.992   8.428
11745SOL     OW37131   8.515   1.094  11.166
11745SOL    HW137132   8.600   1.053  11.183
11745SOL    HW237133   8.512   1.168  11.227
11746SOL     OW37134   0.971  12.650   9.115
11746SOL    HW137135   0.974  12.656   9.210
11746SOL    HW237136   1.026  12.722   9.085
11747SOL     OW37137   3.521   2.749   4.826
11747SOL    HW137138   3.539   2.726   4.735
11747SOL    HW237139   3.515   2.665   4.872
11748SOL     OW37140   7.227  14.537   2.201
11748SOL    HW137141   7.143  14.504   2.233
11748SOL    HW237142   7.287  14.523   2.274
11749SOL     OW37143   6.342  11.095  14.725
11749SOL    HW137144   6.356  11.180  14.766
11749SOL    HW237145   6.389  11.033  14.781
11750SOL     OW37146  13.446   7.256  14.034
11750SOL    HW137147  13.523   7.275  14.087
11750SOL    HW237148  13.386   7.328  14.053
11751SOL     OW37149   7.782   1.086  13.013
11751SOL    HW137150   7.843   1.073  12.941
11751SOL    HW237151   7.836   1.118  13.085
11752SOL     OW37152   4.404   1.965  13.932
11752SOL    HW137153   4.465   1.993  14.001
11752SOL    HW237154   4.409   1.869  13.933
11753SOL     OW37155   5.870   3.917  12.537
11753SOL    HW137156   5.942   3.857  12.514
11753SOL    HW237157   5.818   3.923  12.456
11754SOL     OW37158  13.684   5.107   3.672
11754SOL    HW137159  13.625   5.081   3.601
11754SOL    HW237160  13.641   5.182   3.713
11755SOL     OW37161   1.984   2.101  11.908
11755SOL    HW137162   2.034   2.070  11.983
11755SOL    HW237163   1.936   2.023  11.878
11756SOL     OW37164   2.158   1.634   2.140
11756SOL    HW137165   2.170   1.725   2.112
11756SOL    HW237166   2.079   1.605   2.094
11757SOL     OW37167   9.271  13.016   4.285
11757SOL    HW137168   9.202  12.962   4.324
11757SOL    HW237169   9.321  13.049   4.359
11758SOL     OW37170   2.517  14.252   5.737
11758SOL    HW137171   2.515  14.240   5.642
11758SOL    HW237172   2.450  14.318   5.754
11759SOL     OW37173  12.268  11.419   0.542
11759SOL    HW137174  12.265  11.398   0.636
11759SOL    HW237175  12.246  11.337   0.498
11760SOL     OW37176  14.370   1.383   1.370
11760SOL    HW137177  14.289   1.386   1.421
11760SOL    HW237178  14.342   1.387   1.279
11761SOL     OW37179   8.698  12.763   5.228
11761SOL    HW137180   8.756  12.834   5.200
11761SOL    HW237181   8.643  12.746   5.152
11762SOL     OW37182   6.428   3.585  11.100
11762SOL    HW137183   6.523   3.582  11.086
11762SOL    HW237184   6.393   3.523  11.036
11763SOL     OW37185   3.785  10.065  10.100
11763SOL    HW137186   3.718  10.115  10.054
11763SOL    HW237187   3.744  10.039  10.183
11764SOL     OW37188   3.003   7.754   0.613
11764SOL    HW137189   2.931   7.767   0.675
11764SOL    HW237190   3.070   7.816   0.642
11765SOL     OW37191  13.948   5.887  10.579
11765SOL    HW137192  14.001   5.866  10.656
11765SOL    HW237193  14.011   5.888  10.507
11766SOL     OW37194   3.211   1.816   2.752
11766SOL    HW137195   3.248   1.740   2.708
11766SOL    HW237196   3.157   1.859   2.686
11767SOL     OW37197  11.664   9.359  12.454
11767SOL    HW137198  11.587   9.302  12.466
11767SOL    HW237199  11.679   9.397  12.540
11768SOL     OW37200  10.992   3.181   1.636
11768SOL    HW137201  11.014   3.123   1.563
11768SOL    HW237202  11.075   3.194   1.682
11769SOL     OW37203   7.301  11.988   5.129
11769SOL    HW137204   7.381  12.013   5.083
11769SOL    HW237205   7.247  12.067   5.127
11770SOL     OW37206   0.852  14.308  12.320
11770SOL    HW137207   0.932  14.267  12.286
11770SOL    HW237208   0.867  14.402  12.309
11771SOL     OW37209   2.775  11.001   2.306
11771SOL    HW137210   2.759  11.095   2.296
11771SOL    HW237211   2.730  10.961   2.232
11772SOL     OW37212   3.852   9.975   2.223
11772SOL    HW137213   3.833  10.068   2.237
11772SOL    HW237214   3.767   9.937   2.201
11773SOL     OW37215   9.707  10.070   9.490
11773SOL    HW137216   9.760  10.003   9.533
11773SOL    HW237217   9.648  10.020   9.433
11774SOL     OW37218  12.517   6.174   2.941
11774SOL    HW137219  12.491   6.243   3.002
11774SOL    HW237220  12.522   6.217   2.856
11775SOL     OW37221   2.344   8.929   6.966
11775SOL    HW137222   2.381   8.887   7.044
11775SOL    HW237223   2.250   8.913   6.973
11776SOL     OW37224   8.082   1.711   9.852
11776SOL    HW137225   8.087   1.643   9.785
11776SOL    HW237226   8.161   1.764   9.838
11777SOL     OW37227   9.157  12.384   8.580
11777SOL    HW137228   9.184  12.325   8.510
11777SOL    HW237229   9.061  12.387   8.573
11778SOL     OW37230   8.500  11.351  12.525
11778SOL    HW137231   8.566  11.351  12.595
11778SOL    HW237232   8.425  11.397  12.563
11779SOL     OW37233  11.371  11.903   6.066
11779SOL    HW137234  11.428  11.921   5.992
11779SOL    HW237235  11.340  11.989   6.094
11780SOL     OW37236   8.798   5.159   6.758
11780SOL    HW137237   8.864   5.091   6.751
11780SOL    HW237238   8.847   5.241   6.751
11781SOL     OW37239   4.157  12.740  12.872
11781SOL    HW137240   4.197  12.676  12.813
11781SOL    HW237241   4.124  12.809  12.815
11782SOL     OW37242   6.772   5.221   0.918
11782SOL    HW137243   6.696   5.265   0.957
11782SOL    HW237244   6.783   5.263   0.833
11783SOL     OW37245   5.680  12.723   6.579
11783SOL    HW137246   5.768  12.746   6.609
11783SOL    HW237247   5.634  12.807   6.573
11784SOL     OW37248   6.632   5.134  10.912
11784SOL    HW137249   6.584   5.203  10.957
11784SOL    HW237250   6.564   5.081  10.870
11785SOL     OW37251   8.404   6.244   5.024
11785SOL    HW137252   8.334   6.203   5.074
11785SOL    HW237253   8.360   6.289   4.952
11786SOL     OW37254   9.646   6.624   6.981
11786SOL    HW137255   9.579   6.559   6.959
11786SOL    HW237256   9.710   6.617   6.910
11787SOL     OW37257  13.003   4.373  14.276
11787SOL    HW137258  12.942   4.429  14.323
11787SOL    HW237259  12.966   4.285  14.283
11788SOL     OW37260  11.746   4.823   0.525
11788SOL    HW137261  11.813   4.777   0.475
11788SOL    HW237262  11.693   4.868   0.459
11789SOL     OW37263   1.324  12.838   7.871
11789SOL    HW137264   1.406  12.788   7.864
11789SOL    HW237265   1.262  12.777   7.911
11790SOL     OW37266   7.358  10.397   8.518
11790SOL    HW137267   7.285  10.376   8.576
11790SOL    HW237268   7.326  10.374   8.431
11791SOL     OW37269  12.088   1.728   0.782
11791SOL    HW137270  12.128   1.641   0.783
11791SOL    HW237271  12.159   1.787   0.756
11792SOL     OW37272   1.815   8.601  12.576
11792SOL    HW137273   1.884   8.663  12.552
11792SOL    HW237274   1.776   8.575  12.493
11793SOL     OW37275  13.193  13.325  11.423
11793SOL    HW137276  13.197  13.302  11.516
11793SOL    HW237277  13.112  13.375  11.414
11794SOL     OW37278  12.316   2.201   5.749
11794SOL    HW137279  12.318   2.139   5.821
11794SOL    HW237280  12.275   2.153   5.677
11795SOL     OW37281   0.338   2.652   6.614
11795SOL    HW137282   0.400   2.650   6.541
11795SOL    HW237283   0.257   2.617   6.578
11796SOL     OW37284  14.596   2.051   0.888
11796SOL    HW137285  14.572   2.122   0.948
11796SOL    HW237286  14.568   2.082   0.802
11797SOL     OW37287   9.717  11.503   1.870
11797SOL    HW137288   9.706  11.435   1.804
11797SOL    HW237289   9.754  11.577   1.822
11798SOL     OW37290   6.150   6.976   3.499
11798SOL    HW137291   6.055   6.964   3.493
11798SOL    HW237292   6.178   6.982   3.408
11799SOL     OW37293  10.545   9.864   7.757
11799SOL    HW137294  10.522   9.828   7.843
11799SOL    HW237295  10.574   9.953   7.775
11800SOL     OW37296   7.113   0.798  11.221
11800SOL    HW137297   7.074   0.798  11.133
11800SOL    HW237298   7.204   0.771  11.206
11801SOL     OW37299   5.521   1.965   5.756
11801SOL    HW137300   5.540   1.981   5.664
11801SOL    HW237301   5.427   1.949   5.758
11802SOL     OW37302   1.613  10.785  10.893
11802SOL    HW137303   1.654  10.719  10.949
11802SOL    HW237304   1.563  10.839  10.954
11803SOL     OW37305  10.424   7.804   5.488
11803SOL    HW137306  10.444   7.855   5.410
11803SOL    HW237307  10.441   7.864   5.561
11804SOL     OW37308   9.768   4.895  13.005
11804SOL    HW137309   9.697   4.932  13.058
11804SOL    HW237310   9.789   4.812  13.047
11805SOL     OW37311   5.885  13.065   6.774
11805SOL    HW137312   5.798  13.102   6.758
11805SOL    HW237313   5.880  12.976   6.741
11806SOL     OW37314   4.353  13.143  12.579
11806SOL    HW137315   4.374  13.223  12.629
11806SOL    HW237316   4.420  13.140  12.511
11807SOL     OW37317   7.019   4.517   6.884
11807SOL    HW137318   7.030   4.534   6.977
11807SOL    HW237319   7.107   4.524   6.848
11808SOL     OW37320   0.050   6.787   7.425
11808SOL    HW137321   0.107   6.776   7.349
11808SOL    HW237322  14.834   6.800   7.387
11809SOL     OW37323   8.485   1.848   1.188
11809SOL    HW137324   8.519   1.857   1.099
11809SOL    HW237325   8.421   1.778   1.182
11810SOL     OW37326   5.890   3.810   3.600
11810SOL    HW137327   5.813   3.864   3.619
11810SOL    HW237328   5.866   3.761   3.522
11811SOL     OW37329   2.529   9.063   4.709
11811SOL    HW137330   2.514   9.089   4.618
11811SOL    HW237331   2.622   9.044   4.713
11812SOL     OW37332  13.563   3.712  13.299
11812SOL    HW137333  13.480   3.741  13.336
11812SOL    HW237334  13.555   3.727  13.205
11813SOL     OW37335   8.492  13.322   2.052
11813SOL    HW137336   8.564  13.281   2.004
11813SOL    HW237337   8.450  13.379   1.987
11814SOL     OW37338  12.894   2.610   8.690
11814SOL    HW137339  12.821   2.564   8.647
11814SOL    HW237340  12.922   2.550   8.759
11815SOL     OW37341   5.599   0.288   3.216
11815SOL    HW137342   5.617   0.204   3.260
11815SOL    HW237343   5.543   0.265   3.143
11816SOL     OW37344   9.884   1.716  12.933
11816SOL    HW137345   9.808   1.660  12.952
11816SOL    HW237346   9.957   1.655  12.922
11817SOL     OW37347  10.780   6.614   1.188
11817SOL    HW137348  10.815   6.686   1.240
11817SOL    HW237349  10.685   6.628   1.189
11818SOL     OW37350  13.218   8.772  12.942
11818SOL    HW137351  13.161   8.785  12.866
11818SOL    HW237352  13.303   8.747  12.904
11819SOL     OW37353   3.038  11.288  10.514
11819SOL    HW137354   2.991  11.321  10.590
11819SOL    HW237355   3.130  11.310  10.531
11820SOL     OW37356  11.712  12.420   0.445
11820SOL    HW137357  11.720  12.418   0.349
11820SOL    HW237358  11.618  12.411   0.461
11821SOL     OW37359   9.135   4.691  10.409
11821SOL    HW137360   9.088   4.613  10.381
11821SOL    HW237361   9.163   4.672  10.498
11822SOL     OW37362  12.854   0.770  11.046
11822SOL    HW137363  12.840   0.784  10.952
11822SOL    HW237364  12.798   0.835  11.089
11823SOL     OW37365   4.085  12.653   9.745
11823SOL    HW137366   4.166  12.633   9.791
11823SOL    HW237367   4.022  12.590   9.778
11824SOL     OW37368   6.739   2.167  10.192
11824SOL    HW137369   6.738   2.263  10.191
11824SOL    HW237370   6.711   2.142  10.104
11825SOL     OW37371  12.007   5.765  10.070
11825SOL    HW137372  11.929   5.819  10.059
11825SOL    HW237373  11.999   5.696  10.005
11826SOL     OW37374   8.650   7.196   4.696
11826SOL    HW137375   8.663   7.214   4.789
11826SOL    HW237376   8.555   7.192   4.685
11827SOL     OW37377   3.993  11.546   3.528
11827SOL    HW137378   3.998  11.454   3.556
11827SOL    HW237379   4.082  11.579   3.539
11828SOL     OW37380   8.279   4.593  14.158
11828SOL    HW137381   8.352   4.550  14.202
11828SOL    HW237382   8.282   4.560  14.068
11829SOL     OW37383   2.443   3.490   4.475
11829SOL    HW137384   2.515   3.549   4.451
11829SOL    HW237385   2.368   3.548   4.488
11830SOL     OW37386   1.429   1.530   6.864
11830SOL    HW137387   1.459   1.499   6.778
11830SOL    HW237388   1.510   1.549   6.912
11831SOL     OW37389   1.707   2.136   4.323
11831SOL    HW137390   1.726   2.109   4.233
11831SOL    HW237391   1.788   2.120   4.371
11832SOL     OW37392   2.004  11.556   7.693
11832SOL    HW137393   2.010  11.548   7.788
11832SOL    HW237394   1.998  11.466   7.662
11833SOL     OW37395  14.156  11.365   4.373
11833SOL    HW137396  14.101  11.442   4.391
11833SOL    HW237397  14.151  11.313   4.453
11834SOL     OW37398   1.336   5.989  13.874
11834SOL    HW137399   1.350   5.917  13.811
11834SOL    HW237400   1.287   5.949  13.946
11835SOL     OW37401   4.277  11.037   3.758
11835SOL    HW137402   4.309  11.002   3.674
11835SOL    HW237403   4.348  11.092   3.790
11836SOL     OW37404  14.031   9.268  11.419
11836SOL    HW137405  13.952   9.228  11.381
11836SOL    HW237406  14.053   9.212  11.493
11837SOL     OW37407   8.244  12.410   5.832
11837SOL    HW137408   8.217  12.349   5.901
11837SOL    HW237409   8.324  12.450   5.867
11838SOL     OW37410   0.523   7.756   4.952
11838SOL    HW137411   0.496   7.845   4.928
11838SOL    HW237412   0.578   7.769   5.030
11839SOL     OW37413   8.871   2.993   5.886
11839SOL    HW137414   8.858   2.928   5.817
11839SOL    HW237415   8.900   3.071   5.839
11840SOL     OW37416  10.129   9.421   5.220
11840SOL    HW137417  10.224   9.429   5.228
11840SOL    HW237418  10.094   9.462   5.299
11841SOL     OW37419   0.109  14.129   8.298
11841SOL    HW137420   0.130  14.222   8.295
11841SOL    HW237421   0.060  14.118   8.380
11842SOL     OW37422  10.667  11.783  11.925
11842SOL    HW137423  10.669  11.868  11.969
11842SOL    HW237424  10.695  11.721  11.993
11843SOL     OW37425  13.119   9.680  13.004
11843SOL    HW137426  13.151   9.770  13.000
11843SOL    HW237427  13.036   9.682  12.957
11844SOL     OW37428  12.439   8.682   2.727
11844SOL    HW137429  12.455   8.614   2.661
11844SOL    HW237430  12.408   8.634   2.804
11845SOL     OW37431  10.371  11.638  12.919
11845SOL    HW137432  10.331  11.679  12.996
11845SOL    HW237433  10.304  11.577  12.887
11846SOL     OW37434  13.313   7.089   9.568
11846SOL    HW137435  13.246   7.023   9.548
11846SOL    HW237436  13.329   7.078   9.662
11847SOL     OW37437   6.841   9.837   4.185
11847SOL    HW137438   6.824   9.920   4.230
11847SOL    HW237439   6.791   9.843   4.103
11848SOL     OW37440   6.745  14.042  12.659
11848SOL    HW137441   6.681  14.089  12.606
11848SOL    HW237442   6.728  13.949  12.641
11849SOL     OW37443   8.178   6.613   5.468
11849SOL    HW137444   8.210   6.546   5.408
11849SOL    HW237445   8.229   6.691   5.447
11850SOL     OW37446   7.458  14.273   3.465
11850SOL    HW137447   7.390  14.206   3.460
11850SOL    HW237448   7.445  14.314   3.551
11851SOL     OW37449   7.167  12.564   6.143
11851SOL    HW137450   7.160  12.659   6.138
11851SOL    HW237451   7.076  12.534   6.147
11852SOL     OW37452   2.029  14.053   5.267
11852SOL    HW137453   2.032  14.145   5.291
11852SOL    HW237454   1.996  14.009   5.346
11853SOL     OW37455   2.726  13.795  10.614
11853SOL    HW137456   2.656  13.742  10.575
11853SOL    HW237457   2.788  13.808  10.542
11854SOL     OW37458   0.246  11.376   9.469
11854SOL    HW137459   0.322  11.347   9.519
11854SOL    HW237460   0.181  11.307   9.482
11855SOL     OW37461   5.999   8.325   0.566
11855SOL    HW137462   5.907   8.348   0.574
11855SOL    HW237463   6.013   8.256   0.630
11856SOL     OW37464   1.591   1.695  11.391
11856SOL    HW137465   1.630   1.779  11.365
11856SOL    HW237466   1.653   1.629  11.361
11857SOL     OW37467   8.256  14.199   5.933
11857SOL    HW137468   8.242  14.282   5.888
11857SOL    HW237469   8.281  14.224   6.022
11858SOL     OW37470  14.278   6.602  10.066
11858SOL    HW137471  14.308   6.690  10.048
11858SOL    HW237472  14.216   6.612  10.138
11859SOL     OW37473  11.435  10.042   4.728
11859SOL    HW137474  11.404  10.124   4.766
11859SOL    HW237475  11.530  10.044   4.740
11860SOL     OW37476  14.455  10.082   6.413
11860SOL    HW137477  14.370  10.126   6.412
11860SOL    HW237478  14.519  10.152   6.397
11861SOL     OW37479  12.964   0.057  10.076
11861SOL    HW137480  12.885   0.033  10.028
11861SOL    HW237481  13.033   0.002  10.037
11862SOL     OW37482   7.689   6.130  11.169
11862SOL    HW137483   7.749   6.199  11.139
11862SOL    HW237484   7.603   6.157  11.135
11863SOL     OW37485  12.804   6.628   1.274
11863SOL    HW137486  12.727   6.684   1.270
11863SOL    HW237487  12.853   6.660   1.350
11864SOL     OW37488   8.981  13.664  14.209
11864SOL    HW137489   8.942  13.589  14.166
11864SOL    HW237490   9.020  13.716  14.139
11865SOL     OW37491   4.624   8.165  13.402
11865SOL    HW137492   4.549   8.120  13.442
11865SOL    HW237493   4.592   8.193  13.316
11866SOL     OW37494   3.935   1.938  10.427
11866SOL    HW137495   3.919   1.846  10.406
11866SOL    HW237496   3.982   1.935  10.511
11867SOL     OW37497   6.495   5.831   6.615
11867SOL    HW137498   6.419   5.794   6.658
11867SOL    HW237499   6.463   5.909   6.571
11868SOL     OW37500  13.728   6.683   8.801
11868SOL    HW137501  13.736   6.766   8.755
11868SOL    HW237502  13.710   6.619   8.733
11869SOL     OW37503  11.710  13.326  12.262
11869SOL    HW137504  11.637  13.340  12.322
11869SOL    HW237505  11.784  13.304  12.318
11870SOL     OW37506  11.548   0.305  13.810
11870SOL    HW137507  11.558   0.219  13.769
11870SOL    HW237508  11.522   0.363  13.739
11871SOL     OW37509   2.617   6.317   7.951
11871SOL    HW137510   2.610   6.380   7.879
11871SOL    HW237511   2.538   6.264   7.945
11872SOL     OW37512  12.568   3.625  11.771
11872SOL    HW137513  12.610   3.701  11.729
11872SOL    HW237514  12.640   3.567  11.793
11873SOL     OW37515   1.179   3.951   6.491
11873SOL    HW137516   1.121   3.922   6.420
11873SOL    HW237517   1.161   3.891   6.563
11874SOL     OW37518   4.625  13.785  13.800
11874SOL    HW137519   4.531  13.796  13.785
11874SOL    HW237520   4.660  13.874  13.800
11875SOL     OW37521   9.755  13.471   4.255
11875SOL    HW137522   9.758  13.553   4.303
11875SOL    HW237523   9.686  13.421   4.297
11876SOL     OW37524  12.076   6.554   6.111
11876SOL    HW137525  12.053   6.540   6.019
11876SOL    HW237526  12.151   6.614   6.107
11877SOL     OW37527   8.950   8.969   1.836
11877SOL    HW137528   8.999   9.040   1.879
11877SOL    HW237529   9.015   8.924   1.783
11878SOL     OW37530   2.728   7.456   2.870
11878SOL    HW137531   2.676   7.521   2.919
11878SOL    HW237532   2.817   7.470   2.900
11879SOL     OW37533  11.998  14.328   6.850
11879SOL    HW137534  12.034  14.250   6.807
11879SOL    HW237535  12.020  14.400   6.790
11880SOL     OW37536   7.264  10.127   4.758
11880SOL    HW137537   7.324  10.114   4.684
11880SOL    HW237538   7.315  10.103   4.835
11881SOL     OW37539  10.283  11.394  13.187
11881SOL    HW137540  10.367  11.439  13.173
11881SOL    HW237541  10.242  11.393  13.100
11882SOL     OW37542   3.906   9.939   9.167
11882SOL    HW137543   3.930   9.854   9.202
11882SOL    HW237544   3.846   9.976   9.232
11883SOL     OW37545   2.821  13.670   1.443
11883SOL    HW137546   2.875  13.720   1.381
11883SOL    HW237547   2.873  13.666   1.523
11884SOL     OW37548   3.717   7.711  10.296
11884SOL    HW137549   3.791   7.771  10.306
11884SOL    HW237550   3.683   7.730  10.209
11885SOL     OW37551   4.265   6.136   0.862
11885SOL    HW137552   4.220   6.150   0.779
11885SOL    HW237553   4.259   6.220   0.908
11886SOL     OW37554  14.420   6.020   8.342
11886SOL    HW137555  14.452   5.956   8.279
11886SOL    HW237556  14.455   6.104   8.312
11887SOL     OW37557   9.366   0.882   7.160
11887SOL    HW137558   9.345   0.942   7.231
11887SOL    HW237559   9.307   0.907   7.089
11888SOL     OW37560  14.099   4.368   5.551
11888SOL    HW137561  14.082   4.420   5.473
11888SOL    HW237562  14.190   4.341   5.543
11889SOL     OW37563   5.532  10.960   3.371
11889SOL    HW137564   5.578  10.948   3.454
11889SOL    HW237565   5.497  11.048   3.375
11890SOL     OW37566  12.622  12.442  12.022
11890SOL    HW137567  12.597  12.518  12.074
11890SOL    HW237568  12.552  12.378  12.038
11891SOL     OW37569  14.224   3.577   4.602
11891SOL    HW137570  14.302   3.535   4.638
11891SOL    HW237571  14.236   3.671   4.621
11892SOL     OW37572   7.479  10.192  14.707
11892SOL    HW137573   7.490  10.109  14.660
11892SOL    HW237574   7.567  10.212  14.740
11893SOL     OW37575   0.259   6.138  13.864
11893SOL    HW137576   0.354   6.128  13.868
11893SOL    HW237577   0.232   6.079  13.794
11894SOL     OW37578   4.671   5.158   4.248
11894SOL    HW137579   4.706   5.243   4.222
11894SOL    HW237580   4.747   5.111   4.284
11895SOL     OW37581   2.762   5.757   5.242
11895SOL    HW137582   2.790   5.722   5.326
11895SOL    HW237583   2.825   5.826   5.221
11896SOL     OW37584   0.700   9.968   0.912
11896SOL    HW137585   0.754   9.913   0.856
11896SOL    HW237586   0.671  10.040   0.855
11897SOL     OW37587   8.538   7.908   8.503
11897SOL    HW137588   8.568   7.949   8.422
11897SOL    HW237589   8.528   7.815   8.480
11898SOL     OW37590  10.741  12.753  10.348
11898SOL    HW137591  10.655  12.717  10.325
11898SOL    HW237592  10.771  12.795  10.268
11899SOL     OW37593   3.141  10.577   7.348
11899SOL    HW137594   3.226  10.544   7.317
11899SOL    HW237595   3.079  10.550   7.281
11900SOL     OW37596   4.175   7.273   0.313
11900SOL    HW137597   4.181   7.220   0.392
11900SOL    HW237598   4.151   7.210   0.244
11901SOL     OW37599  10.447   0.589   7.965
11901SOL    HW137600  10.463   0.586   7.870
11901SOL    HW237601  10.531   0.567   8.004
11902SOL     OW37602  13.506  11.177   0.687
11902SOL    HW137603  13.510  11.142   0.598
11902SOL    HW237604  13.532  11.105   0.743
11903SOL     OW37605   0.269  11.587   6.743
11903SOL    HW137606   0.348  11.534   6.730
11903SOL    HW237607   0.295  11.654   6.806
11904SOL     OW37608   3.505   1.518  12.075
11904SOL    HW137609   3.425   1.500  12.125
11904SOL    HW237610   3.574   1.474  12.125
11905SOL     OW37611  12.666   4.744  14.556
11905SOL    HW137612  12.664   4.770  14.464
11905SOL    HW237613  12.580   4.771  14.590
11906SOL     OW37614   0.245  12.094  13.217
11906SOL    HW137615   0.319  12.034  13.214
11906SOL    HW237616   0.273  12.171  13.168
11907SOL     OW37617   4.651   7.129   5.245
11907SOL    HW137618   4.661   7.223   5.255
11907SOL    HW237619   4.715   7.092   5.307
11908SOL     OW37620  14.819   0.409  12.667
11908SOL    HW137621  14.829   0.350  12.742
11908SOL    HW237622  14.817   0.496  12.705
11909SOL     OW37623   1.461   9.698   7.031
11909SOL    HW137624   1.419   9.755   7.095
11909SOL    HW237625   1.488   9.757   6.960
11910SOL     OW37626  14.468  14.848   4.967
11910SOL    HW137627  14.525   0.003   4.894
11910SOL    HW237628  14.393   0.035   4.961
11911SOL     OW37629   5.958  10.617  14.814
11911SOL    HW137630   5.881  10.587  14.765
11911SOL    HW237631   5.963  10.558   0.018
11912SOL     OW37632  11.474   6.412   3.334
11912SOL    HW137633  11.478   6.441   3.243
11912SOL    HW237634  11.561   6.375   3.351
11913SOL     OW37635  10.983   8.255   9.315
11913SOL    HW137636  10.991   8.162   9.297
11913SOL    HW237637  11.071   8.290   9.299
11914SOL     OW37638   2.692   2.627   1.683
11914SOL    HW137639   2.711   2.706   1.633
11914SOL    HW237640   2.773   2.606   1.728
11915SOL     OW37641   2.051  10.694   9.158
11915SOL    HW137642   2.003  10.753   9.217
11915SOL    HW237643   2.080  10.750   9.086
11916SOL     OW37644  12.768  13.220   4.991
11916SOL    HW137645  12.712  13.173   4.929
11916SOL    HW237646  12.801  13.295   4.941
11917SOL     OW37647   0.697  11.561   8.626
11917SOL    HW137648   0.736  11.574   8.713
11917SOL    HW237649   0.749  11.616   8.568
11918SOL     OW37650   9.201   2.512   4.073
11918SOL    HW137651   9.105   2.511   4.079
11918SOL    HW237652   9.219   2.545   3.985
11919SOL     OW37653  14.325  12.785   1.012
11919SOL    HW137654  14.245  12.731   1.010
11919SOL    HW237655  14.355  12.787   0.921
11920SOL     OW37656   3.577  13.197   4.883
11920SOL    HW137657   3.626  13.127   4.839
11920SOL    HW237658   3.548  13.158   4.965
11921SOL     OW37659   0.178   2.201  14.410
11921SOL    HW137660   0.122   2.181  14.485
11921SOL    HW237661   0.167   2.126  14.351
11922SOL     OW37662   7.351  12.303   4.232
11922SOL    HW137663   7.386  12.303   4.142
11922SOL    HW237664   7.296  12.225   4.236
11923SOL     OW37665   6.643   3.063   5.327
11923SOL    HW137666   6.590   2.999   5.279
11923SOL    HW237667   6.631   3.144   5.279
11924SOL     OW37668   9.888   5.537   6.766
11924SOL    HW137669   9.824   5.468   6.747
11924SOL    HW237670   9.934   5.551   6.684
11925SOL     OW37671   6.095   4.038   0.647
11925SOL    HW137672   6.043   4.042   0.567
11925SOL    HW237673   6.177   4.083   0.625
11926SOL     OW37674  10.894   8.172   5.138
11926SOL    HW137675  10.898   8.241   5.204
11926SOL    HW237676  10.982   8.172   5.099
11927SOL     OW37677   3.694   3.231   2.791
11927SOL    HW137678   3.608   3.193   2.769
11927SOL    HW237679   3.755   3.159   2.779
11928SOL     OW37680   7.790   4.904   0.707
11928SOL    HW137681   7.816   4.938   0.793
11928SOL    HW237682   7.870   4.909   0.655
11929SOL     OW37683  12.820  13.846   8.079
11929SOL    HW137684  12.812  13.918   8.017
11929SOL    HW237685  12.790  13.769   8.030
11930SOL     OW37686  12.054  14.617   2.400
11930SOL    HW137687  12.149  14.618   2.388
11930SOL    HW237688  12.039  14.665   2.481
11931SOL     OW37689   8.809   4.352  12.892
11931SOL    HW137690   8.854   4.320  12.814
11931SOL    HW237691   8.849   4.438  12.909
11932SOL     OW37692   1.204   1.608   4.962
11932SOL    HW137693   1.213   1.647   4.875
11932SOL    HW237694   1.158   1.674   5.013
11933SOL     OW37695   4.884   5.880   0.661
11933SOL    HW137696   4.799   5.842   0.642
11933SOL    HW237697   4.939   5.854   0.587
11934SOL     OW37698  11.679   3.077   2.203
11934SOL    HW137699  11.617   3.067   2.275
11934SOL    HW237700  11.764   3.053   2.240
11935SOL     OW37701   9.168  12.123  12.039
11935SOL    HW137702   9.199  12.107  12.128
11935SOL    HW237703   9.205  12.208  12.016
11936SOL     OW37704   9.007   4.082  11.620
11936SOL    HW137705   8.941   4.136  11.577
11936SOL    HW237706   9.004   4.110  11.712
11937SOL     OW37707   5.104   8.113   7.089
11937SOL    HW137708   5.165   8.174   7.131
11937SOL    HW237709   5.019   8.156   7.097
11938SOL     OW37710   7.393  14.005  13.554
11938SOL    HW137711   7.378  13.952  13.476
11938SOL    HW237712   7.415  14.092  13.519
11939SOL     OW37713   6.116   9.710  14.299
11939SOL    HW137714   6.039   9.722  14.243
11939SOL    HW237715   6.081   9.681  14.383
11940SOL     OW37716   9.375  12.219  13.584
11940SOL    HW137717   9.366  12.311  13.560
11940SOL    HW237718   9.309  12.174  13.531
11941SOL     OW37719   4.944  10.037   2.395
11941SOL    HW137720   4.971  10.111   2.450
11941SOL    HW237721   4.856  10.060   2.364
11942SOL     OW37722  12.025   7.561   6.178
11942SOL    HW137723  11.962   7.534   6.112
11942SOL    HW237724  12.100   7.594   6.128
11943SOL     OW37725   4.456   6.347   7.262
11943SOL    HW137726   4.498   6.336   7.177
11943SOL    HW237727   4.363   6.357   7.242
11944SOL     OW37728   6.917   4.204   7.120
11944SOL    HW137729   6.997   4.244   7.152
11944SOL    HW237730   6.942   4.160   7.039
11945SOL     OW37731  14.797  13.991  13.824
11945SOL    HW137732  14.833  14.043  13.751
11945SOL    HW237733  14.775  14.056  13.891
11946SOL     OW37734   8.922  14.763   5.300
11946SOL    HW137735   8.984  14.697   5.271
11946SOL    HW237736   8.973  14.843   5.307
11947SOL     OW37737   9.366  11.592   7.475
11947SOL    HW137738   9.389  11.679   7.442
11947SOL    HW237739   9.309  11.555   7.408
11948SOL     OW37740  13.257  11.330   8.575
11948SOL    HW137741  13.191  11.261   8.582
11948SOL    HW237742  13.214  11.400   8.525
11949SOL     OW37743   0.674   6.149  13.359
11949SOL    HW137744   0.725   6.096  13.420
11949SOL    HW237745   0.733   6.220  13.333
11950SOL     OW37746   3.852   0.887  13.857
11950SOL    HW137747   3.909   0.924  13.790
11950SOL    HW237748   3.806   0.962  13.894
11951SOL     OW37749  13.211  10.891   2.342
11951SOL    HW137750  13.256  10.827   2.397
11951SOL    HW237751  13.265  10.897   2.263
11952SOL     OW37752   1.313   2.943   3.834
11952SOL    HW137753   1.268   2.985   3.761
11952SOL    HW237754   1.404   2.974   3.827
11953SOL     OW37755  10.985  12.085  13.039
11953SOL    HW137756  11.052  12.031  12.998
11953SOL    HW237757  10.923  12.023  13.077
11954SOL     OW37758   7.864  13.928   1.803
11954SOL    HW137759   7.803  13.919   1.730
11954SOL    HW237760   7.919  13.850   1.799
11955SOL     OW37761  11.416  12.710   0.810
11955SOL    HW137762  11.482  12.778   0.817
11955SOL    HW237763  11.410  12.691   0.717
11956SOL     OW37764  11.993  12.401   0.486
11956SOL    HW137765  11.986  12.316   0.530
11956SOL    HW237766  11.909  12.412   0.442
11957SOL     OW37767   2.110  11.030   0.962
11957SOL    HW137768   2.052  11.022   1.038
11957SOL    HW237769   2.069  11.097   0.908
11958SOL     OW37770   6.433  12.569   1.717
11958SOL    HW137771   6.402  12.481   1.740
11958SOL    HW237772   6.446  12.566   1.623
11959SOL     OW37773   5.777  14.205   7.113
11959SOL    HW137774   5.706  14.240   7.060
11959SOL    HW237775   5.856  14.223   7.062
11960SOL     OW37776  13.448   2.230  12.860
11960SOL    HW137777  13.538   2.258  12.876
11960SOL    HW237778  13.440   2.230  12.765
11961SOL     OW37779   4.364   5.766   9.364
11961SOL    HW137780   4.450   5.747   9.401
11961SOL    HW237781   4.323   5.681   9.352
11962SOL     OW37782   1.764   7.487   2.031
11962SOL    HW137783   1.696   7.512   1.968
11962SOL    HW237784   1.748   7.395   2.049
11963SOL     OW37785   8.708  10.210   3.700
11963SOL    HW137786   8.752  10.202   3.784
11963SOL    HW237787   8.627  10.161   3.710
11964SOL     OW37788   9.303   2.714   5.055
11964SOL    HW137789   9.345   2.747   4.975
11964SOL    HW237790   9.376   2.694   5.114
11965SOL     OW37791   6.703   6.418  13.444
11965SOL    HW137792   6.639   6.391  13.377
11965SOL    HW237793   6.650   6.464  13.509
11966SOL     OW37794   7.104   0.503   2.186
11966SOL    HW137795   7.193   0.539   2.192
11966SOL    HW237796   7.115   0.409   2.202
11967SOL     OW37797  13.916  14.361   7.159
11967SOL    HW137798  13.841  14.309   7.132
11967SOL    HW237799  13.992  14.313   7.127
11968SOL     OW37800  13.796  10.506   2.322
11968SOL    HW137801  13.732  10.483   2.389
11968SOL    HW237802  13.864  10.554   2.368
11969SOL     OW37803  13.177   0.280   7.678
11969SOL    HW137804  13.254   0.321   7.716
11969SOL    HW237805  13.162   0.202   7.731
11970SOL     OW37806  10.254  10.734   9.119
11970SOL    HW137807  10.208  10.775   9.192
11970SOL    HW237808  10.300  10.659   9.157
11971SOL     OW37809  13.331  14.080   2.987
11971SOL    HW137810  13.277  14.062   3.063
11971SOL    HW237811  13.268  14.094   2.916
11972SOL     OW37812  13.619   5.918   6.124
11972SOL    HW137813  13.630   6.010   6.146
11972SOL    HW237814  13.605   5.917   6.030
11973SOL     OW37815  10.373   2.447  10.648
11973SOL    HW137816  10.393   2.508  10.719
11973SOL    HW237817  10.454   2.397  10.635
11974SOL     OW37818   6.956   6.715   1.605
11974SOL    HW137819   6.950   6.773   1.529
11974SOL    HW237820   7.048   6.690   1.609
11975SOL     OW37821   4.233  14.665   6.404
11975SOL    HW137822   4.279  14.673   6.320
11975SOL    HW237823   4.152  14.618   6.382
11976SOL     OW37824  12.486  12.559   5.259
11976SOL    HW137825  12.492  12.570   5.354
11976SOL    HW237826  12.468  12.465   5.248
11977SOL     OW37827  12.386  11.280   6.281
11977SOL    HW137828  12.443  11.267   6.205
11977SOL    HW237829  12.305  11.236   6.258
11978SOL     OW37830   5.417   4.270   1.270
11978SOL    HW137831   5.407   4.231   1.183
11978SOL    HW237832   5.511   4.285   1.279
11979SOL     OW37833   6.258   1.643  10.524
11979SOL    HW137834   6.249   1.563  10.576
11979SOL    HW237835   6.346   1.675  10.543
11980SOL     OW37836   7.986   0.559   9.494
11980SOL    HW137837   7.926   0.634   9.483
11980SOL    HW237838   8.023   0.545   9.407
11981SOL     OW37839   0.141   0.567   9.052
11981SOL    HW137840   0.122   0.489   8.999
11981SOL    HW237841   0.054   0.599   9.078
11982SOL     OW37842   1.049  12.572   6.485
11982SOL    HW137843   1.135  12.537   6.462
11982SOL    HW237844   1.003  12.498   6.526
11983SOL     OW37845  10.083   0.255  13.235
11983SOL    HW137846  10.069   0.333  13.181
11983SOL    HW237847  10.097   0.185  13.171
11984SOL     OW37848   1.127   8.842  13.220
11984SOL    HW137849   1.128   8.937  13.209
11984SOL    HW237850   1.199   8.823  13.280
11985SOL     OW37851   6.778   5.471  12.927
11985SOL    HW137852   6.774   5.414  13.005
11985SOL    HW237853   6.725   5.425  12.862
11986SOL     OW37854   2.566  13.676   3.555
11986SOL    HW137855   2.559  13.655   3.648
11986SOL    HW237856   2.610  13.600   3.517
11987SOL     OW37857  11.752  12.964   5.706
11987SOL    HW137858  11.672  12.990   5.751
11987SOL    HW237859  11.724  12.942   5.617
11988SOL     OW37860  11.266   9.316  10.831
11988SOL    HW137861  11.352   9.274  10.834
11988SOL    HW237862  11.277   9.397  10.880
11989SOL     OW37863  12.894   8.204   3.473
11989SOL    HW137864  12.858   8.147   3.405
11989SOL    HW237865  12.971   8.243   3.433
11990SOL     OW37866   4.771   6.119  14.031
11990SOL    HW137867   4.692   6.167  14.006
11990SOL    HW237868   4.743   6.063  14.103
11991SOL     OW37869  11.589   8.033   5.280
11991SOL    HW137870  11.673   8.071   5.254
11991SOL    HW237871  11.598   8.018   5.374
11992SOL     OW37872   4.310  11.043  12.463
11992SOL    HW137873   4.302  11.026  12.556
11992SOL    HW237874   4.227  11.083  12.438
11993SOL     OW37875   3.074   4.598   5.447
11993SOL    HW137876   3.045   4.520   5.401
11993SOL    HW237877   3.132   4.565   5.516
11994SOL     OW37878  11.300   1.174  13.549
11994SOL    HW137879  11.222   1.215  13.588
11994SOL    HW237880  11.287   1.080  13.564
11995SOL     OW37881  12.379   4.728   2.102
11995SOL    HW137882  12.407   4.669   2.171
11995SOL    HW237883  12.442   4.714   2.031
11996SOL     OW37884   2.246  13.054   5.972
11996SOL    HW137885   2.324  13.036   5.921
11996SOL    HW237886   2.266  13.020   6.060
11997SOL     OW37887   3.348   4.936   3.660
11997SOL    HW137888   3.314   4.960   3.574
11997SOL    HW237889   3.437   4.906   3.643
11998SOL     OW37890  13.389   0.132   5.510
11998SOL    HW137891  13.484   0.144   5.522
11998SOL    HW237892  13.375   0.039   5.524
11999SOL     OW37893  10.133   4.241   1.928
11999SOL    HW137894  10.198   4.305   1.959
11999SOL    HW237895  10.094   4.283   1.851
12000SOL     OW37896  12.248  12.078  14.761
12000SOL    HW137897  12.266  11.989  14.731
12000SOL    HW237898  12.207  12.121  14.686
12001SOL     OW37899   1.621   8.605  10.350
12001SOL    HW137900   1.592   8.647  10.431
12001SOL    HW237901   1.703   8.649  10.328
12002SOL     OW37902   1.015  12.057   9.270
12002SOL    HW137903   1.065  12.109   9.332
12002SOL    HW237904   1.007  12.113   9.193
12003SOL     OW37905   8.679   6.479   1.491
12003SOL    HW137906   8.743   6.488   1.420
12003SOL    HW237907   8.730   6.447   1.566
12004SOL     OW37908   3.508   3.306   2.066
12004SOL    HW137909   3.509   3.339   1.977
12004SOL    HW237910   3.524   3.383   2.121
12005SOL     OW37911  14.737  11.534  12.618
12005SOL    HW137912  14.814  11.526  12.561
12005SOL    HW237913  14.688  11.453  12.603
12006SOL     OW37914   4.584  10.401   4.449
12006SOL    HW137915   4.640  10.408   4.372
12006SOL    HW237916   4.622  10.461   4.513
12007SOL     OW37917   5.712  13.991   4.154
12007SOL    HW137918   5.723  13.934   4.078
12007SOL    HW237919   5.794  14.041   4.158
12008SOL     OW37920   4.085   7.066   6.844
12008SOL    HW137921   4.117   6.983   6.879
12008SOL    HW237922   4.092   7.127   6.917
12009SOL     OW37923   5.296   2.850  14.592
12009SOL    HW137924   5.344   2.917  14.640
12009SOL    HW237925   5.216   2.836  14.643
12010SOL     OW37926   7.012   9.529   0.289
12010SOL    HW137927   6.980   9.588   0.221
12010SOL    HW237928   6.941   9.466   0.302
12011SOL     OW37929   8.332   3.900   8.794
12011SOL    HW137930   8.332   3.950   8.712
12011SOL    HW237931   8.270   3.946   8.850
12012SOL     OW37932  10.783   3.601  14.407
12012SOL    HW137933  10.842   3.592  14.332
12012SOL    HW237934  10.740   3.516  14.414
12013SOL     OW37935  12.353   1.337  12.677
12013SOL    HW137936  12.277   1.373  12.631
12013SOL    HW237937  12.356   1.383  12.760
12014SOL     OW37938  10.880   0.385   5.623
12014SOL    HW137939  10.859   0.436   5.545
12014SOL    HW237940  10.834   0.430   5.694
12015SOL     OW37941   9.960  12.365   6.071
12015SOL    HW137942   9.943  12.406   5.986
12015SOL    HW237943  10.011  12.287   6.051
12016SOL     OW37944   6.065   4.755   0.791
12016SOL    HW137945   6.069   4.815   0.717
12016SOL    HW237946   5.986   4.703   0.776
12017SOL     OW37947   4.732   0.928  12.260
12017SOL    HW137948   4.807   0.974  12.298
12017SOL    HW237949   4.724   0.965  12.171
12018SOL     OW37950   6.105   0.056   4.805
12018SOL    HW137951   6.026   0.063   4.751
12018SOL    HW237952   6.176   0.049   4.742
12019SOL     OW37953   5.336  12.033  11.700
12019SOL    HW137954   5.262  12.023  11.760
12019SOL    HW237955   5.330  11.958  11.641
12020SOL     OW37956   7.622  12.028  14.198
12020SOL    HW137957   7.661  12.082  14.129
12020SOL    HW237958   7.635  12.079  14.278
12021SOL     OW37959   9.905   9.123   6.221
12021SOL    HW137960   9.940   9.077   6.145
12021SOL    HW237961   9.887   9.054   6.285
12022SOL     OW37962  10.464  14.096   8.933
12022SOL    HW137963  10.536  14.159   8.927
12022SOL    HW237964  10.385  14.150   8.930
12023SOL     OW37965  10.221   1.004   6.522
12023SOL    HW137966  10.315   1.004   6.501
12023SOL    HW237967  10.201   1.096   6.538
12024SOL     OW37968   2.314   6.803  10.106
12024SOL    HW137969   2.333   6.714  10.136
12024SOL    HW237970   2.219   6.808  10.103
12025SOL     OW37971  12.797   2.094   8.760
12025SOL    HW137972  12.707   2.106   8.730
12025SOL    HW237973  12.799   2.134   8.846
12026SOL     OW37974  10.690   1.368   9.702
12026SOL    HW137975  10.629   1.337   9.635
12026SOL    HW237976  10.647   1.347   9.785
12027SOL     OW37977   6.283  10.447  13.005
12027SOL    HW137978   6.309  10.512  12.941
12027SOL    HW237979   6.267  10.367  12.954
12028SOL     OW37980   3.886   2.227  13.765
12028SOL    HW137981   3.886   2.154  13.827
12028SOL    HW237982   3.838   2.297  13.810
12029SOL     OW37983   5.107   6.187   6.937
12029SOL    HW137984   5.193   6.174   6.978
12029SOL    HW237985   5.057   6.236   7.002
12030SOL     OW37986  13.939   3.115   5.942
12030SOL    HW137987  14.004   3.061   5.897
12030SOL    HW237988  13.932   3.193   5.888
12031SOL     OW37989   0.957   5.477   1.821
12031SOL    HW137990   1.035   5.518   1.784
12031SOL    HW237991   0.919   5.427   1.749
12032SOL     OW37992   4.051   6.388   9.234
12032SOL    HW137993   4.137   6.428   9.222
12032SOL    HW237994   4.000   6.418   9.159
12033SOL     OW37995   4.476  11.637   2.112
12033SOL    HW137996   4.457  11.562   2.056
12033SOL    HW237997   4.544  11.686   2.065
12034SOL     OW37998  13.324   4.656  14.859
12034SOL    HW137999  13.382   4.719  14.815
12034SOL    HW238000  13.382   4.587   0.018
12035SOL     OW38001   0.545   2.877   1.986
12035SOL    HW138002   0.504   2.902   1.904
12035SOL    HW238003   0.637   2.861   1.964
12036SOL     OW38004   5.423  13.339  14.035
12036SOL    HW138005   5.513  13.372  14.035
12036SOL    HW238006   5.421  13.278  13.962
12037SOL     OW38007  10.717   5.600   2.874
12037SOL    HW138008  10.662   5.652   2.932
12037SOL    HW238009  10.793   5.655   2.858
12038SOL     OW38010   7.634  13.788   6.731
12038SOL    HW138011   7.630  13.836   6.814
12038SOL    HW238012   7.678  13.706   6.753
12039SOL     OW38013   0.065   1.644  11.905
12039SOL    HW138014   0.062   1.580  11.834
12039SOL    HW238015  14.871   1.613  11.968
12040SOL     OW38016  14.745   0.882   4.826
12040SOL    HW138017  14.756   0.902   4.733
12040SOL    HW238018  14.824   0.832   4.849
12041SOL     OW38019   0.384   4.275  13.429
12041SOL    HW138020   0.382   4.221  13.350
12041SOL    HW238021   0.471   4.260  13.467
12042SOL     OW38022  11.664   7.764   7.167
12042SOL    HW138023  11.618   7.837   7.209
12042SOL    HW238024  11.606   7.737   7.096
12043SOL     OW38025   6.934   1.063   0.865
12043SOL    HW138026   6.956   0.998   0.931
12043SOL    HW238027   6.914   1.012   0.787
12044SOL     OW38028   6.769   6.609   0.758
12044SOL    HW138029   6.759   6.533   0.816
12044SOL    HW238030   6.851   6.649   0.784
12045SOL     OW38031   9.560   6.750  14.075
12045SOL    HW138032   9.502   6.812  14.031
12045SOL    HW238033   9.619   6.720  14.007
12046SOL     OW38034   4.566   0.422  11.220
12046SOL    HW138035   4.526   0.404  11.305
12046SOL    HW238036   4.610   0.506  11.232
12047SOL     OW38037   1.505  11.134   8.350
12047SOL    HW138038   1.550  11.206   8.306
12047SOL    HW238039   1.423  11.125   8.301
12048SOL     OW38040  14.406   6.810  13.583
12048SOL    HW138041  14.326   6.853  13.614
12048SOL    HW238042  14.380   6.719  13.571
12049SOL     OW38043  10.822   2.001  12.948
12049SOL    HW138044  10.904   2.027  12.990
12049SOL    HW238045  10.753   2.028  13.010
12050SOL     OW38046   7.708   6.522   5.779
12050SOL    HW138047   7.775   6.461   5.748
12050SOL    HW238048   7.647   6.466   5.829
12051SOL     OW38049   6.073  12.329  14.831
12051SOL    HW138050   6.030  12.255  14.788
12051SOL    HW238051   6.024  12.405  14.802
12052SOL     OW38052   5.691   7.490   2.042
12052SOL    HW138053   5.694   7.417   2.104
12052SOL    HW238054   5.675   7.450   1.957
12053SOL     OW38055  10.176   2.313  14.420
12053SOL    HW138056  10.234   2.242  14.446
12053SOL    HW238057  10.114   2.320  14.493
12054SOL     OW38058   7.077   5.823  14.398
12054SOL    HW138059   7.121   5.906  14.415
12054SOL    HW238060   7.002   5.823  14.457
12055SOL     OW38061   3.060   4.246  12.995
12055SOL    HW138062   3.014   4.279  12.917
12055SOL    HW238063   3.070   4.324  13.051
12056SOL     OW38064   8.440  13.169   3.177
12056SOL    HW138065   8.529  13.197   3.156
12056SOL    HW238066   8.441  13.074   3.165
12057SOL     OW38067   0.928  10.339  14.753
12057SOL    HW138068   0.891  10.303  14.672
12057SOL    HW238069   0.851  10.362  14.806
12058SOL     OW38070  14.499  10.817   5.352
12058SOL    HW138071  14.419  10.862   5.323
12058SOL    HW238072  14.534  10.777   5.273
12059SOL     OW38073  14.099  14.488   0.747
12059SOL    HW138074  14.021  14.517   0.700
12059SOL    HW238075  14.083  14.395   0.764
12060SOL     OW38076   8.005  13.263   9.162
12060SOL    HW138077   8.070  13.247   9.093
12060SOL    HW238078   7.930  13.302   9.116
12061SOL     OW38079   7.470   1.120   1.961
12061SOL    HW138080   7.415   1.097   1.886
12061SOL    HW238081   7.446   1.056   2.029
12062SOL     OW38082   9.147  14.652  12.600
12062SOL    HW138083   9.224  14.700  12.631
12062SOL    HW238084   9.085  14.721  12.576
12063SOL     OW38085   8.432   0.097  13.182
12063SOL    HW138086   8.451   0.017  13.134
12063SOL    HW238087   8.406   0.068  13.269
12064SOL     OW38088   4.296   3.165   4.615
12064SOL    HW138089   4.250   3.242   4.580
12064SOL    HW238090   4.263   3.092   4.564
12065SOL     OW38091   4.242   9.350   7.007
12065SOL    HW138092   4.245   9.426   6.948
12065SOL    HW238093   4.234   9.387   7.094
12066SOL     OW38094   2.644   9.481   0.614
12066SOL    HW138095   2.573   9.514   0.558
12066SOL    HW238096   2.681   9.408   0.565
12067SOL     OW38097   7.467   3.024  10.481
12067SOL    HW138098   7.451   3.085  10.409
12067SOL    HW238099   7.384   2.977  10.491
12068SOL     OW38100   2.143  13.765   0.514
12068SOL    HW138101   2.173  13.782   0.603
12068SOL    HW238102   2.057  13.808   0.509
12069SOL     OW38103   6.251  13.944  14.079
12069SOL    HW138104   6.226  13.969  14.168
12069SOL    HW238105   6.223  14.018  14.025
12070SOL     OW38106   4.459  12.542  13.938
12070SOL    HW138107   4.473  12.528  13.845
12070SOL    HW238108   4.487  12.460  13.979
12071SOL     OW38109  11.491   8.432  12.835
12071SOL    HW138110  11.516   8.422  12.927
12071SOL    HW238111  11.401   8.400  12.831
12072SOL     OW38112  13.777   3.279  11.734
12072SOL    HW138113  13.838   3.227  11.682
12072SOL    HW238114  13.719   3.215  11.775
12073SOL     OW38115   6.496   1.568   9.619
12073SOL    HW138116   6.585   1.558   9.585
12073SOL    HW238117   6.467   1.478   9.635
12074SOL     OW38118  11.575   8.103   4.834
12074SOL    HW138119  11.526   8.111   4.916
12074SOL    HW238120  11.532   8.031   4.787
12075SOL     OW38121   1.348   2.897  12.020
12075SOL    HW138122   1.371   2.917  12.110
12075SOL    HW238123   1.430   2.905  11.971
12076SOL     OW38124  11.128   6.933   1.005
12076SOL    HW138125  11.202   6.976   0.963
12076SOL    HW238126  11.108   6.859   0.948
12077SOL     OW38127  14.603  13.822   9.706
12077SOL    HW138128  14.625  13.790   9.619
12077SOL    HW238129  14.631  13.752   9.765
12078SOL     OW38130   5.242   4.718   0.594
12078SOL    HW138131   5.262   4.685   0.682
12078SOL    HW238132   5.260   4.812   0.600
12079SOL     OW38133   2.244   4.108   1.463
12079SOL    HW138134   2.312   4.046   1.488
12079SOL    HW238135   2.242   4.173   1.534
12080SOL     OW38136  11.781   4.135   7.574
12080SOL    HW138137  11.847   4.076   7.609
12080SOL    HW238138  11.816   4.222   7.587
12081SOL     OW38139  11.631  11.875   2.279
12081SOL    HW138140  11.628  11.957   2.329
12081SOL    HW238141  11.540  11.845   2.279
12082SOL     OW38142   8.631   2.600   8.681
12082SOL    HW138143   8.655   2.577   8.771
12082SOL    HW238144   8.708   2.576   8.629
12083SOL     OW38145   6.245   9.330   9.217
12083SOL    HW138146   6.155   9.308   9.239
12083SOL    HW238147   6.297   9.293   9.289
12084SOL     OW38148  13.343   4.710   5.861
12084SOL    HW138149  13.345   4.615   5.848
12084SOL    HW238150  13.263   4.738   5.816
12085SOL     OW38151   5.494   2.487   9.821
12085SOL    HW138152   5.585   2.458   9.821
12085SOL    HW238153   5.443   2.408   9.838
12086SOL     OW38154   5.495   9.717   5.747
12086SOL    HW138155   5.591   9.725   5.747
12086SOL    HW238156   5.463   9.805   5.765
12087SOL     OW38157   2.976   4.262  10.878
12087SOL    HW138158   2.904   4.280  10.816
12087SOL    HW238159   3.034   4.203  10.830
12088SOL     OW38160  10.230  10.454   1.933
12088SOL    HW138161  10.172  10.528   1.914
12088SOL    HW238162  10.202  10.386   1.872
12089SOL     OW38163   0.838   4.258  11.416
12089SOL    HW138164   0.892   4.300  11.482
12089SOL    HW238165   0.900   4.219  11.355
12090SOL     OW38166  13.881   6.422   7.957
12090SOL    HW138167  13.900   6.328   7.948
12090SOL    HW238168  13.829   6.444   7.880
12091SOL     OW38169   1.000   1.762   8.887
12091SOL    HW138170   1.015   1.840   8.834
12091SOL    HW238171   1.081   1.711   8.878
12092SOL     OW38172  14.012  10.441   8.901
12092SOL    HW138173  13.961  10.379   8.849
12092SOL    HW238174  14.067  10.486   8.836
12093SOL     OW38175   3.986   6.084   0.066
12093SOL    HW138176   3.962   6.125  14.854
12093SOL    HW238177   4.053   6.142   0.102
12094SOL     OW38178   1.394   4.812   6.209
12094SOL    HW138179   1.298   4.808   6.214
12094SOL    HW238180   1.423   4.812   6.300
12095SOL     OW38181   4.082   3.545   5.650
12095SOL    HW138182   4.126   3.610   5.704
12095SOL    HW238183   4.045   3.594   5.577
12096SOL     OW38184   4.273   9.342   1.123
12096SOL    HW138185   4.201   9.291   1.086
12096SOL    HW238186   4.236   9.384   1.201
12097SOL     OW38187   1.842   1.845  13.060
12097SOL    HW138188   1.795   1.876  12.983
12097SOL    HW238189   1.893   1.771  13.029
12098SOL     OW38190   9.111   9.110   5.024
12098SOL    HW138191   9.085   9.086   5.113
12098SOL    HW238192   9.075   9.198   5.011
12099SOL     OW38193  12.719   4.572   2.529
12099SOL    HW138194  12.811   4.558   2.549
12099SOL    HW238195  12.696   4.654   2.573
12100SOL     OW38196   1.308  13.858   7.451
12100SOL    HW138197   1.355  13.927   7.403
12100SOL    HW238198   1.368  13.784   7.451
12101SOL     OW38199   3.381   5.071   9.948
12101SOL    HW138200   3.467   5.105   9.973
12101SOL    HW238201   3.330   5.150   9.929
12102SOL     OW38202   8.676   9.935   2.693
12102SOL    HW138203   8.770   9.949   2.705
12102SOL    HW238204   8.637   9.962   2.776
12103SOL     OW38205   5.460  13.264   2.589
12103SOL    HW138206   5.538  13.270   2.645
12103SOL    HW238207   5.491  13.290   2.502
12104SOL     OW38208  11.653  10.189   1.498
12104SOL    HW138209  11.569  10.143   1.497
12104SOL    HW238210  11.647  10.252   1.426
12105SOL     OW38211   6.713   0.570  12.144
12105SOL    HW138212   6.765   0.523  12.210
12105SOL    HW238213   6.649   0.505  12.115
12106SOL     OW38214   7.033   2.146   6.764
12106SOL    HW138215   6.959   2.127   6.821
12106SOL    HW238216   7.036   2.242   6.759
12107SOL     OW38217   9.084   5.907   4.118
12107SOL    HW138218   9.011   5.864   4.163
12107SOL    HW238219   9.068   6.000   4.129
12108SOL     OW38220  11.999   9.506  10.301
12108SOL    HW138221  11.943   9.428  10.303
12108SOL    HW238222  11.975   9.552  10.221
12109SOL     OW38223   5.874  13.722  12.947
12109SOL    HW138224   5.902  13.678  13.027
12109SOL    HW238225   5.940  13.791  12.933
12110SOL     OW38226  14.476   0.105   7.269
12110SOL    HW138227  14.493   0.025   7.219
12110SOL    HW238228  14.444   0.168   7.204
12111SOL     OW38229   8.292  11.985  12.737
12111SOL    HW138230   8.324  11.904  12.777
12111SOL    HW238231   8.199  11.987  12.759
12112SOL     OW38232   5.164   5.050   3.844
12112SOL    HW138233   5.238   5.101   3.876
12112SOL    HW238234   5.142   5.090   3.760
12113SOL     OW38235   0.611  12.070   7.869
12113SOL    HW138236   0.656  12.152   7.852
12113SOL    HW238237   0.681  12.009   7.893
12114SOL     OW38238  10.899  13.340   3.284
12114SOL    HW138239  10.970  13.320   3.345
12114SOL    HW238240  10.835  13.270   3.298
12115SOL     OW38241   5.357   8.556   1.074
12115SOL    HW138242   5.354   8.650   1.055
12115SOL    HW238243   5.446   8.541   1.106
12116SOL     OW38244  10.533  13.048   0.992
12116SOL    HW138245  10.558  13.101   1.068
12116SOL    HW238246  10.614  13.037   0.942
12117SOL     OW38247   5.149  11.859  14.493
12117SOL    HW138248   5.089  11.820  14.430
12117SOL    HW238249   5.096  11.924  14.539
12118SOL     OW38250   8.001  13.482  13.638
12118SOL    HW138251   8.033  13.397  13.608
12118SOL    HW238252   7.956  13.463  13.720
12119SOL     OW38253   8.753  12.276  14.640
12119SOL    HW138254   8.823  12.240  14.695
12119SOL    HW238255   8.715  12.346  14.693
12120SOL     OW38256   3.732  13.062  10.318
12120SOL    HW138257   3.657  13.107  10.279
12120SOL    HW238258   3.706  13.047  10.409
12121SOL     OW38259  10.496   3.701   2.401
12121SOL    HW138260  10.546   3.778   2.427
12121SOL    HW238261  10.557   3.628   2.417
12122SOL     OW38262   8.089  11.825  13.470
12122SOL    HW138263   8.013  11.883  13.477
12122SOL    HW238264   8.164  11.880  13.494
12123SOL     OW38265  12.178   9.194   5.188
12123SOL    HW138266  12.084   9.176   5.195
12123SOL    HW238267  12.184   9.262   5.121
12124SOL     OW38268  10.204   3.940   3.783
12124SOL    HW138269  10.124   3.972   3.824
12124SOL    HW238270  10.273   3.958   3.847
12125SOL     OW38271   0.505  12.539  14.727
12125SOL    HW138272   0.582  12.482  14.727
12125SOL    HW238273   0.482  12.548  14.635
12126SOL     OW38274   7.458   0.856   4.005
12126SOL    HW138275   7.470   0.811   3.922
12126SOL    HW238276   7.427   0.788   4.065
12127SOL     OW38277  12.065   0.967   4.065
12127SOL    HW138278  12.010   1.041   4.091
12127SOL    HW238279  12.144   1.007   4.027
12128SOL     OW38280   8.476   9.522  14.053
12128SOL    HW138281   8.564   9.496  14.077
12128SOL    HW238282   8.426   9.517  14.134
12129SOL     OW38283   0.520   0.909  12.842
12129SOL    HW138284   0.587   0.945  12.783
12129SOL    HW238285   0.444   0.895  12.786
12130SOL     OW38286   1.999   5.709   8.551
12130SOL    HW138287   1.966   5.635   8.500
12130SOL    HW238288   1.979   5.686   8.642
12131SOL     OW38289   8.931   5.514  13.096
12131SOL    HW138290   9.004   5.458  13.069
12131SOL    HW238291   8.947   5.532  13.188
12132SOL     OW38292  11.258  11.542   8.834
12132SOL    HW138293  11.330  11.603   8.816
12132SOL    HW238294  11.191  11.566   8.770
12133SOL     OW38295  11.307  11.177  11.806
12133SOL    HW138296  11.353  11.130  11.876
12133SOL    HW238297  11.217  11.145  11.810
12134SOL     OW38298   7.865  12.237   7.626
12134SOL    HW138299   7.779  12.241   7.667
12134SOL    HW238300   7.865  12.156   7.576
12135SOL     OW38301   3.426   5.872  14.305
12135SOL    HW138302   3.410   5.966  14.298
12135SOL    HW238303   3.462   5.847  14.220
12136SOL     OW38304   7.904   3.805   8.800
12136SOL    HW138305   7.966   3.774   8.866
12136SOL    HW238306   7.830   3.840   8.851
12137SOL     OW38307  14.540   7.868   8.230
12137SOL    HW138308  14.539   7.828   8.143
12137SOL    HW238309  14.631   7.893   8.244
12138SOL     OW38310  14.631   2.154  13.453
12138SOL    HW138311  14.662   2.205  13.378
12138SOL    HW238312  14.552   2.199  13.483
12139SOL     OW38313  12.403   0.019  11.965
12139SOL    HW138314  12.360   0.104  11.970
12139SOL    HW238315  12.344  14.836  11.913
12140SOL     OW38316  12.339   7.200   2.693
12140SOL    HW138317  12.366   7.110   2.677
12140SOL    HW238318  12.290   7.225   2.614
12141SOL     OW38319   0.793   8.014   3.075
12141SOL    HW138320   0.791   7.923   3.101
12141SOL    HW238321   0.859   8.018   3.005
12142SOL     OW38322   1.967   3.578   9.609
12142SOL    HW138323   2.024   3.563   9.684
12142SOL    HW238324   1.976   3.500   9.555
12143SOL     OW38325   1.309   1.168  12.406
12143SOL    HW138326   1.292   1.127  12.321
12143SOL    HW238327   1.323   1.094  12.465
12144SOL     OW38328   0.167  14.717   2.164
12144SOL    HW138329   0.094  14.656   2.152
12144SOL    HW238330   0.241  14.662   2.189
12145SOL     OW38331  13.176   6.931  10.138
12145SOL    HW138332  13.212   6.861  10.192
12145SOL    HW238333  13.115   6.887  10.079
12146SOL     OW38334   3.514   7.755   0.277
12146SOL    HW138335   3.493   7.788   0.189
12146SOL    HW238336   3.608   7.738   0.274
12147SOL     OW38337   6.850   9.560  13.604
12147SOL    HW138338   6.882   9.565  13.514
12147SOL    HW238339   6.764   9.520  13.597
12148SOL     OW38340  12.806   2.803   5.067
12148SOL    HW138341  12.715   2.829   5.081
12148SOL    HW238342  12.818   2.727   5.124
12149SOL     OW38343   3.336   5.077   8.551
12149SOL    HW138344   3.259   5.087   8.607
12149SOL    HW238345   3.372   4.992   8.575
12150SOL     OW38346   7.607  11.321   5.759
12150SOL    HW138347   7.541  11.299   5.693
12150SOL    HW238348   7.625  11.414   5.745
12151SOL     OW38349  13.359  12.867  10.507
12151SOL    HW138350  13.444  12.880  10.547
12151SOL    HW238351  13.350  12.939  10.444
12152SOL     OW38352   1.266   0.524   5.131
12152SOL    HW138353   1.357   0.494   5.131
12152SOL    HW238354   1.268   0.609   5.175
12153SOL     OW38355   6.304   1.009  10.740
12153SOL    HW138356   6.216   0.972  10.732
12153SOL    HW238357   6.295   1.077  10.807
12154SOL     OW38358   9.928  11.175  13.915
12154SOL    HW138359   9.891  11.139  13.835
12154SOL    HW238360   9.886  11.259  13.927
12155SOL     OW38361  13.819   2.911   1.316
12155SOL    HW138362  13.762   2.859   1.259
12155SOL    HW238363  13.831   2.857   1.394
12156SOL     OW38364   6.644  13.663   2.066
12156SOL    HW138365   6.740  13.663   2.065
12156SOL    HW238366   6.620  13.720   1.993
12157SOL     OW38367   8.152  12.529  14.606
12157SOL    HW138368   8.192  12.487  14.531
12157SOL    HW238369   8.078  12.473  14.629
12158SOL     OW38370   4.637   4.338   4.974
12158SOL    HW138371   4.616   4.275   4.905
12158SOL    HW238372   4.726   4.315   5.001
12159SOL     OW38373   7.696   5.634   3.571
12159SOL    HW138374   7.733   5.584   3.498
12159SOL    HW238375   7.683   5.570   3.641
12160SOL     OW38376  14.346   9.904   2.840
12160SOL    HW138377  14.252   9.899   2.855
12160SOL    HW238378  14.355   9.898   2.745
12161SOL     OW38379   4.002   5.660   2.196
12161SOL    HW138380   3.978   5.690   2.283
12161SOL    HW238381   4.081   5.710   2.174
12162SOL     OW38382   0.043  10.048   4.183
12162SOL    HW138383   0.127  10.004   4.190
12162SOL    HW238384  14.861  10.010   4.253
12163SOL     OW38385   3.841   3.039  11.298
12163SOL    HW138386   3.852   2.947  11.323
12163SOL    HW238387   3.906   3.053  11.230
12164SOL     OW38388   5.611   8.346   1.980
12164SOL    HW138389   5.570   8.271   2.023
12164SOL    HW238390   5.558   8.421   2.009
12165SOL     OW38391  10.452   1.873   4.176
12165SOL    HW138392  10.445   1.782   4.205
12165SOL    HW238393  10.371   1.914   4.206
12166SOL     OW38394   5.804   1.773   0.195
12166SOL    HW138395   5.865   1.771   0.269
12166SOL    HW238396   5.718   1.759   0.234
12167SOL     OW38397  10.464   1.834   3.732
12167SOL    HW138398  10.472   1.892   3.656
12167SOL    HW238399  10.554   1.819   3.761
12168SOL     OW38400   2.287  14.649  10.476
12168SOL    HW138401   2.241  14.702  10.410
12168SOL    HW238402   2.328  14.714  10.534
12169SOL     OW38403   3.674  12.452   8.613
12169SOL    HW138404   3.600  12.476   8.558
12169SOL    HW238405   3.649  12.483   8.701
12170SOL     OW38406   1.235  13.567  11.471
12170SOL    HW138407   1.256  13.477  11.445
12170SOL    HW238408   1.318  13.615  11.459
12171SOL     OW38409   5.498   8.222   9.551
12171SOL    HW138410   5.414   8.180   9.571
12171SOL    HW238411   5.512   8.206   9.458
12172SOL     OW38412   4.707   5.506  10.993
12172SOL    HW138413   4.788   5.530  10.947
12172SOL    HW238414   4.734   5.437  11.054
12173SOL     OW38415   1.410  12.177  14.649
12173SOL    HW138416   1.415  12.271  14.636
12173SOL    HW238417   1.316  12.157  14.645
12174SOL     OW38418   9.347  10.044  13.549
12174SOL    HW138419   9.354  10.137  13.567
12174SOL    HW238420   9.432  10.008  13.576
12175SOL     OW38421   6.310   4.597   5.549
12175SOL    HW138422   6.229   4.645   5.532
12175SOL    HW238423   6.372   4.632   5.484
12176SOL     OW38424  13.630   2.606   2.498
12176SOL    HW138425  13.625   2.617   2.593
12176SOL    HW238426  13.722   2.586   2.481
12177SOL     OW38427   6.654   2.862  10.048
12177SOL    HW138428   6.675   2.935   9.990
12177SOL    HW238429   6.629   2.791   9.990
12178SOL     OW38430  10.451   8.801   1.840
12178SOL    HW138431  10.429   8.713   1.809
12178SOL    HW238432  10.540   8.817   1.807
12179SOL     OW38433   3.015   9.677   3.633
12179SOL    HW138434   3.028   9.753   3.690
12179SOL    HW238435   2.935   9.696   3.584
12180SOL     OW38436   3.456   9.250   6.978
12180SOL    HW138437   3.414   9.195   7.044
12180SOL    HW238438   3.532   9.200   6.949
12181SOL     OW38439  12.918   2.043   8.402
12181SOL    HW138440  12.862   1.977   8.362
12181SOL    HW238441  12.857   2.110   8.433
12182SOL     OW38442  11.889   2.428  12.821
12182SOL    HW138443  11.887   2.506  12.766
12182SOL    HW238444  11.803   2.388  12.810
12183SOL     OW38445  11.102   8.618   8.063
12183SOL    HW138446  11.015   8.590   8.033
12183SOL    HW238447  11.085   8.690   8.123
12184SOL     OW38448   2.224   4.583  11.021
12184SOL    HW138449   2.262   4.667  10.993
12184SOL    HW238450   2.262   4.567  11.107
12185SOL     OW38451   6.826   2.327   8.234
12185SOL    HW138452   6.835   2.411   8.190
12185SOL    HW238453   6.824   2.349   8.327
12186SOL     OW38454  10.818   1.717  10.970
12186SOL    HW138455  10.784   1.795  11.013
12186SOL    HW238456  10.900   1.698  11.016
12187SOL     OW38457   7.480  13.493   3.648
12187SOL    HW138458   7.510  13.529   3.564
12187SOL    HW238459   7.437  13.411   3.625
12188SOL     OW38460   1.565   1.807  10.039
12188SOL    HW138461   1.580   1.895  10.006
12188SOL    HW238462   1.648   1.761  10.024
12189SOL     OW38463   9.675   1.880  14.684
12189SOL    HW138464   9.600   1.834  14.648
12189SOL    HW238465   9.735   1.811  14.712
12190SOL     OW38466   4.646   9.565  14.302
12190SOL    HW138467   4.739   9.584  14.313
12190SOL    HW238468   4.630   9.490  14.360
12191SOL     OW38469   2.066  13.485   9.282
12191SOL    HW138470   1.997  13.535   9.325
12191SOL    HW238471   2.146  13.535   9.300
12192SOL     OW38472   5.995   2.811   2.094
12192SOL    HW138473   5.931   2.877   2.121
12192SOL    HW238474   5.947   2.728   2.098
12193SOL     OW38475   8.598   5.764   9.230
12193SOL    HW138476   8.542   5.714   9.171
12193SOL    HW238477   8.557   5.752   9.316
12194SOL     OW38478   8.701  14.123  12.550
12194SOL    HW138479   8.734  14.034  12.536
12194SOL    HW238480   8.653  14.144  12.470
12195SOL     OW38481   6.156   8.874   4.785
12195SOL    HW138482   6.121   8.927   4.856
12195SOL    HW238483   6.209   8.808   4.829
12196SOL     OW38484  12.692   2.809  12.936
12196SOL    HW138485  12.736   2.775  12.858
12196SOL    HW238486  12.764   2.844  12.990
12197SOL     OW38487   3.354  13.281   5.457
12197SOL    HW138488   3.321  13.287   5.547
12197SOL    HW238489   3.360  13.372   5.428
12198SOL     OW38490  12.684   4.785  14.270
12198SOL    HW138491  12.725   4.783  14.184
12198SOL    HW238492  12.591   4.798  14.252
12199SOL     OW38493  13.423   9.393   4.466
12199SOL    HW138494  13.413   9.354   4.379
12199SOL    HW238495  13.518   9.398   4.479
12200SOL     OW38496   3.092   6.167   0.416
12200SOL    HW138497   3.150   6.176   0.340
12200SOL    HW238498   3.130   6.225   0.482
12201SOL     OW38499  14.033  10.365   5.404
12201SOL    HW138500  14.017  10.294   5.466
12201SOL    HW238501  13.945  10.389   5.373
12202SOL     OW38502  13.620   5.589   2.043
12202SOL    HW138503  13.651   5.677   2.065
12202SOL    HW238504  13.526   5.592   2.062
12203SOL     OW38505  12.804  14.186   2.957
12203SOL    HW138506  12.734  14.140   2.911
12203SOL    HW238507  12.850  14.236   2.889
12204SOL     OW38508   5.850  14.276   9.877
12204SOL    HW138509   5.791  14.346   9.850
12204SOL    HW238510   5.938  14.308   9.855
12205SOL     OW38511   7.558   4.530  13.690
12205SOL    HW138512   7.596   4.613  13.660
12205SOL    HW238513   7.581   4.526  13.783
12206SOL     OW38514   1.265   0.616   6.359
12206SOL    HW138515   1.330   0.605   6.291
12206SOL    HW238516   1.280   0.544   6.420
12207SOL     OW38517   0.055   5.083   4.251
12207SOL    HW138518   0.033   5.150   4.185
12207SOL    HW238519   0.047   5.128   4.335
12208SOL     OW38520   6.880  12.291   2.361
12208SOL    HW138521   6.926  12.372   2.337
12208SOL    HW238522   6.948  12.224   2.362
12209SOL     OW38523   2.328   7.390   2.401
12209SOL    HW138524   2.368   7.303   2.392
12209SOL    HW238525   2.332   7.427   2.314
12210SOL     OW38526   8.764  14.411   8.811
12210SOL    HW138527   8.806  14.381   8.731
12210SOL    HW238528   8.825  14.476   8.847
12211SOL     OW38529   9.330   5.632  10.993
12211SOL    HW138530   9.355   5.600  10.906
12211SOL    HW238531   9.357   5.724  10.994
12212SOL     OW38532  10.450   0.380  11.811
12212SOL    HW138533  10.369   0.332  11.791
12212SOL    HW238534  10.467   0.431  11.732
12213SOL     OW38535  10.346   4.574   5.353
12213SOL    HW138536  10.393   4.645   5.396
12213SOL    HW238537  10.326   4.512   5.424
12214SOL     OW38538   3.899   3.409  11.158
12214SOL    HW138539   3.896   3.328  11.208
12214SOL    HW238540   3.908   3.478  11.223
12215SOL     OW38541  14.314   3.885  13.516
12215SOL    HW138542  14.346   3.877  13.426
12215SOL    HW238543  14.221   3.903  13.507
12216SOL     OW38544   2.447   4.391   4.643
12216SOL    HW138545   2.385   4.412   4.573
12216SOL    HW238546   2.497   4.316   4.609
12217SOL     OW38547  11.365   6.074   5.236
12217SOL    HW138548  11.431   6.126   5.192
12217SOL    HW238549  11.292   6.135   5.249
12218SOL     OW38550   7.874  10.742   4.447
12218SOL    HW138551   7.938  10.766   4.515
12218SOL    HW238552   7.853  10.651   4.465
12219SOL     OW38553  13.369  11.832   0.791
12219SOL    HW138554  13.414  11.749   0.810
12219SOL    HW238555  13.280  11.806   0.768
12220SOL     OW38556   8.671   3.210   8.657
12220SOL    HW138557   8.610   3.277   8.623
12220SOL    HW238558   8.755   3.231   8.616
12221SOL     OW38559   4.048   0.260   9.989
12221SOL    HW138560   3.982   0.294   9.929
12221SOL    HW238561   3.998   0.215  10.058
12222SOL     OW38562   2.996  13.058   4.212
12222SOL    HW138563   2.942  13.136   4.197
12222SOL    HW238564   3.028  13.068   4.301
12223SOL     OW38565   9.263  10.698   2.376
12223SOL    HW138566   9.339  10.726   2.324
12223SOL    HW238567   9.272  10.747   2.458
12224SOL     OW38568  11.468  12.954   9.610
12224SOL    HW138569  11.545  12.904   9.636
12224SOL    HW238570  11.478  13.039   9.653
12225SOL     OW38571   8.400   7.527  13.509
12225SOL    HW138572   8.459   7.592  13.471
12225SOL    HW238573   8.410   7.537  13.604
12226SOL     OW38574   3.297  11.168  12.948
12226SOL    HW138575   3.258  11.126  13.025
12226SOL    HW238576   3.222  11.205  12.900
12227SOL     OW38577  11.914   5.620  13.549
12227SOL    HW138578  11.943   5.551  13.608
12227SOL    HW238579  11.860   5.576  13.484
12228SOL     OW38580   9.616  13.456   3.601
12228SOL    HW138581   9.697  13.480   3.556
12228SOL    HW238582   9.547  13.500   3.550
12229SOL     OW38583  10.755   0.663   3.021
12229SOL    HW138584  10.686   0.677   3.086
12229SOL    HW238585  10.828   0.626   3.071
12230SOL     OW38586   9.778  11.381   3.468
12230SOL    HW138587   9.764  11.460   3.519
12230SOL    HW238588   9.720  11.391   3.392
12231SOL     OW38589   1.304  12.508  10.766
12231SOL    HW138590   1.339  12.422  10.790
12231SOL    HW238591   1.255  12.536  10.843
12232SOL     OW38592   9.875  12.309   7.484
12232SOL    HW138593   9.783  12.283   7.491
12232SOL    HW238594   9.873  12.395   7.442
12233SOL     OW38595   6.432  14.327  14.374
12233SOL    HW138596   6.341  14.297  14.377
12233SOL    HW238597   6.452  14.352  14.464
12234SOL     OW38598  14.503   1.270   0.943
12234SOL    HW138599  14.532   1.288   0.853
12234SOL    HW238600  14.442   1.342   0.963
12235SOL     OW38601  10.732  14.164  12.574
12235SOL    HW138602  10.780  14.127  12.647
12235SOL    HW238603  10.794  14.224  12.532
12236SOL     OW38604   0.183   1.102   7.436
12236SOL    HW138605   0.201   1.195   7.453
12236SOL    HW238606   0.268   1.065   7.413
12237SOL     OW38607   1.583   0.239  14.412
12237SOL    HW138608   1.525   0.262  14.484
12237SOL    HW238609   1.618   0.323  14.381
12238SOL     OW38610  10.549  10.096  14.811
12238SOL    HW138611  10.550  10.016  14.758
12238SOL    HW238612  10.530  10.066   0.028
12239SOL     OW38613  12.178   2.809   0.599
12239SOL    HW138614  12.170   2.901   0.622
12239SOL    HW238615  12.192   2.764   0.682
12240SOL     OW38616  10.662   4.846  14.143
12240SOL    HW138617  10.710   4.765  14.128
12240SOL    HW238618  10.599   4.851  14.071
12241SOL     OW38619  10.311  10.012   1.099
12241SOL    HW138620  10.289   9.969   1.016
12241SOL    HW238621  10.398   9.979   1.120
12242SOL     OW38622  11.101  11.273   9.431
12242SOL    HW138623  11.077  11.350   9.379
12242SOL    HW238624  11.195  11.279   9.442
12243SOL     OW38625   9.536  13.320  11.437
12243SOL    HW138626   9.478  13.244  11.430
12243SOL    HW238627   9.504  13.381  11.372
12244SOL     OW38628   2.796   1.490   1.668
12244SOL    HW138629   2.800   1.402   1.633
12244SOL    HW238630   2.820   1.547   1.595
12245SOL     OW38631   3.191  11.580  13.168
12245SOL    HW138632   3.205  11.485  13.175
12245SOL    HW238633   3.153  11.593  13.081
12246SOL     OW38634   7.958   3.203   2.476
12246SOL    HW138635   7.925   3.128   2.524
12246SOL    HW238636   8.038   3.228   2.522
12247SOL     OW38637   0.391   4.093   1.696
12247SOL    HW138638   0.366   4.019   1.752
12247SOL    HW238639   0.484   4.107   1.714
12248SOL     OW38640  13.996   8.709   1.739
12248SOL    HW138641  14.059   8.648   1.701
12248SOL    HW238642  13.959   8.755   1.663
12249SOL     OW38643   4.509   8.058  12.625
12249SOL    HW138644   4.598   8.066  12.591
12249SOL    HW238645   4.496   7.964  12.638
12250SOL     OW38646   4.446   3.863  10.384
12250SOL    HW138647   4.421   3.888  10.473
12250SOL    HW238648   4.528   3.911  10.368
12251SOL     OW38649  11.199  12.598   6.721
12251SOL    HW138650  11.106  12.622   6.728
12251SOL    HW238651  11.237  12.667   6.666
12252SOL     OW38652  14.074   3.805  11.507
12252SOL    HW138653  13.999   3.759  11.543
12252SOL    HW238654  14.065   3.895  11.539
12253SOL     OW38655  12.725   7.468  12.932
12253SOL    HW138656  12.651   7.409  12.944
12253SOL    HW238657  12.686   7.554  12.919
12254SOL     OW38658   9.810   0.522   6.247
12254SOL    HW138659   9.728   0.567   6.268
12254SOL    HW238660   9.794   0.482   6.161
12255SOL     OW38661   4.958   1.298   2.901
12255SOL    HW138662   4.925   1.325   2.816
12255SOL    HW238663   4.944   1.203   2.903
12256SOL     OW38664   0.051  12.653  11.117
12256SOL    HW138665   0.043  12.586  11.184
12256SOL    HW238666  14.867  12.623  11.045
12257SOL     OW38667   8.127   8.524  13.870
12257SOL    HW138668   8.143   8.435  13.901
12257SOL    HW238669   8.080   8.566  13.942
12258SOL     OW38670  14.793  13.323   4.546
12258SOL    HW138671  14.730  13.277   4.603
12258SOL    HW238672   0.007  13.289   4.573
12259SOL     OW38673  11.206   2.948  11.122
12259SOL    HW138674  11.240   2.999  11.196
12259SOL    HW238675  11.266   2.967  11.050
12260SOL     OW38676  12.978   8.657  12.725
12260SOL    HW138677  13.022   8.595  12.783
12260SOL    HW238678  13.045   8.722  12.704
12261SOL     OW38679  12.667   3.262   4.940
12261SOL    HW138680  12.731   3.299   4.880
12261SOL    HW238681  12.596   3.231   4.885
12262SOL     OW38682   9.715   4.815  14.353
12262SOL    HW138683   9.801   4.858  14.351
12262SOL    HW238684   9.695   4.809  14.447
12263SOL     OW38685  12.453   8.419   2.123
12263SOL    HW138686  12.469   8.421   2.217
12263SOL    HW238687  12.396   8.493   2.106
12264SOL     OW38688  13.564   9.440  14.823
12264SOL    HW138689  13.635   9.499  14.797
12264SOL    HW238690  13.491   9.464  14.764
12265SOL     OW38691   4.919   8.136   6.720
12265SOL    HW138692   4.914   8.212   6.778
12265SOL    HW238693   4.930   8.174   6.633
12266SOL     OW38694  14.421   4.007   0.390
12266SOL    HW138695  14.332   3.986   0.364
12266SOL    HW238696  14.432   3.966   0.476
12267SOL     OW38697   8.979   8.498  12.099
12267SOL    HW138698   8.973   8.476  12.006
12267SOL    HW238699   9.071   8.519  12.113
12268SOL     OW38700  13.372   0.446   7.758
12268SOL    HW138701  13.364   0.541   7.749
12268SOL    HW238702  13.466   0.428   7.755
12269SOL     OW38703   6.821   0.943   5.769
12269SOL    HW138704   6.888   0.992   5.721
12269SOL    HW238705   6.782   0.885   5.704
12270SOL     OW38706  14.100  14.290   3.266
12270SOL    HW138707  14.061  14.290   3.354
12270SOL    HW238708  14.092  14.200   3.236
12271SOL     OW38709  10.381  10.464   9.506
12271SOL    HW138710  10.356  10.555   9.487
12271SOL    HW238711  10.299  10.416   9.504
12272SOL     OW38712  14.818   9.450  11.378
12272SOL    HW138713  14.852   9.526  11.331
12272SOL    HW238714  14.761   9.406  11.314
12273SOL     OW38715  11.348  12.650   2.473
12273SOL    HW138716  11.318  12.687   2.390
12273SOL    HW238717  11.276  12.665   2.533
12274SOL     OW38718   0.827   4.883  11.387
12274SOL    HW138719   0.734   4.882  11.368
12274SOL    HW238720   0.864   4.816  11.330
12275SOL     OW38721   7.719   9.103  11.217
12275SOL    HW138722   7.667   9.182  11.200
12275SOL    HW238723   7.655   9.037  11.240
12276SOL     OW38724   8.960   8.158   9.742
12276SOL    HW138725   8.874   8.200   9.735
12276SOL    HW238726   8.960   8.091   9.674
12277SOL     OW38727   4.976   2.760   6.982
12277SOL    HW138728   4.890   2.749   6.942
12277SOL    HW238729   4.984   2.854   6.995
12278SOL     OW38730   7.661   2.439   9.659
12278SOL    HW138731   7.679   2.348   9.682
12278SOL    HW238732   7.592   2.466   9.720
12279SOL     OW38733   0.915   2.628   4.693
12279SOL    HW138734   0.972   2.659   4.622
12279SOL    HW238735   0.973   2.624   4.769
12280SOL     OW38736   6.589  10.424  13.308
12280SOL    HW138737   6.675  10.458  13.332
12280SOL    HW238738   6.542  10.413  13.391
12281SOL     OW38739  11.212  11.379   5.059
12281SOL    HW138740  11.257  11.447   5.108
12281SOL    HW238741  11.282  11.334   5.011
12282SOL     OW38742  13.817   1.660   1.954
12282SOL    HW138743  13.754   1.614   2.009
12282SOL    HW238744  13.770   1.676   1.872
12283SOL     OW38745   5.445   7.446   3.929
12283SOL    HW138746   5.460   7.352   3.920
12283SOL    HW238747   5.519   7.486   3.883
12284SOL     OW38748   9.309   0.081  11.859
12284SOL    HW138749   9.356   0.161  11.880
12284SOL    HW238750   9.309   0.077  11.764
12285SOL     OW38751   9.487   7.569   7.571
12285SOL    HW138752   9.563   7.606   7.615
12285SOL    HW238753   9.441   7.520   7.639
12286SOL     OW38754  14.350   1.289   9.209
12286SOL    HW138755  14.277   1.228   9.212
12286SOL    HW238756  14.415   1.254   9.270
12287SOL     OW38757   4.582   6.983   2.416
12287SOL    HW138758   4.555   7.051   2.477
12287SOL    HW238759   4.535   7.004   2.335
12288SOL     OW38760   5.593  11.262   0.890
12288SOL    HW138761   5.600  11.353   0.917
12288SOL    HW238762   5.500  11.241   0.899
12289SOL     OW38763  11.554  11.964  13.002
12289SOL    HW138764  11.547  11.887  12.946
12289SOL    HW238765  11.629  12.013  12.968
12290SOL     OW38766   4.984   6.531  13.833
12290SOL    HW138767   4.963   6.510  13.742
12290SOL    HW238768   4.952   6.621  13.844
12291SOL     OW38769   8.569  12.715   3.138
12291SOL    HW138770   8.502  12.647   3.144
12291SOL    HW238771   8.650  12.667   3.121
12292SOL     OW38772   7.593   0.186   7.548
12292SOL    HW138773   7.610   0.279   7.563
12292SOL    HW238774   7.501   0.175   7.574
12293SOL     OW38775   0.818   8.422   5.493
12293SOL    HW138776   0.879   8.361   5.535
12293SOL    HW238777   0.874   8.493   5.461
12294SOL     OW38778   5.739   3.636  14.116
12294SOL    HW138779   5.722   3.577  14.043
12294SOL    HW238780   5.834   3.652  14.112
12295SOL     OW38781   8.027   3.617   6.130
12295SOL    HW138782   8.001   3.655   6.214
12295SOL    HW238783   8.033   3.523   6.146
12296SOL     OW38784   3.795   9.830   0.081
12296SOL    HW138785   3.797   9.889   0.156
12296SOL    HW238786   3.886   9.824   0.052
12297SOL     OW38787   1.410   2.960   1.973
12297SOL    HW138788   1.400   3.036   2.031
12297SOL    HW238789   1.428   2.997   1.887
12298SOL     OW38790   2.951   8.507  10.975
12298SOL    HW138791   3.023   8.490  11.035
12298SOL    HW238792   2.914   8.421  10.956
12299SOL     OW38793   8.705   0.440   5.278
12299SOL    HW138794   8.723   0.452   5.184
12299SOL    HW238795   8.622   0.486   5.292
12300SOL     OW38796  13.053  10.224  11.034
12300SOL    HW138797  13.072  10.162  10.964
12300SOL    HW238798  13.093  10.306  11.006
12301SOL     OW38799   2.351   6.217   5.746
12301SOL    HW138800   2.367   6.307   5.718
12301SOL    HW238801   2.258   6.202   5.728
12302SOL     OW38802   5.539   0.110   7.772
12302SOL    HW138803   5.495   0.117   7.687
12302SOL    HW238804   5.474   0.070   7.830
12303SOL     OW38805   9.118   4.223   8.369
12303SOL    HW138806   9.160   4.158   8.426
12303SOL    HW238807   9.026   4.222   8.395
12304SOL     OW38808  14.411   7.699   6.222
12304SOL    HW138809  14.447   7.745   6.145
12304SOL    HW238810  14.487   7.668   6.269
12305SOL     OW38811   9.601   2.561   6.934
12305SOL    HW138812   9.603   2.643   6.885
12305SOL    HW238813   9.575   2.495   6.870
12306SOL     OW38814   3.029   7.079   4.505
12306SOL    HW138815   3.065   7.162   4.536
12306SOL    HW238816   2.935   7.096   4.495
12307SOL     OW38817  14.204   3.482  13.970
12307SOL    HW138818  14.221   3.449  14.059
12307SOL    HW238819  14.178   3.404  13.921
12308SOL     OW38820   4.790  14.712   9.437
12308SOL    HW138821   4.721  14.756   9.388
12308SOL    HW238822   4.818  14.775   9.503
12309SOL     OW38823   7.067   6.965   7.938
12309SOL    HW138824   7.091   7.047   7.895
12309SOL    HW238825   6.971   6.965   7.938
12310SOL     OW38826   3.333   4.146  12.030
12310SOL    HW138827   3.250   4.167  11.987
12310SOL    HW238828   3.400   4.180  11.971
12311SOL     OW38829   0.579   6.343   0.134
12311SOL    HW138830   0.594   6.249   0.139
12311SOL    HW238831   0.618   6.377   0.215
12312SOL     OW38832   4.343  14.676   6.121
12312SOL    HW138833   4.435  14.692   6.098
12312SOL    HW238834   4.318  14.601   6.068
12313SOL     OW38835   8.506   3.118   0.801
12313SOL    HW138836   8.423   3.138   0.843
12313SOL    HW238837   8.492   3.034   0.757
12314SOL     OW38838  12.368  10.347   8.699
12314SOL    HW138839  12.306  10.281   8.669
12314SOL    HW238840  12.319  10.401   8.760
12315SOL     OW38841  12.486   8.434  12.279
12315SOL    HW138842  12.532   8.387  12.210
12315SOL    HW238843  12.431   8.498  12.233
12316SOL     OW38844  12.813   4.516   8.683
12316SOL    HW138845  12.816   4.486   8.774
12316SOL    HW238846  12.861   4.449   8.634
12317SOL     OW38847   1.362   9.128  12.838
12317SOL    HW138848   1.395   9.156  12.923
12317SOL    HW238849   1.317   9.205  12.803
12318SOL     OW38850   3.310   6.160  11.175
12318SOL    HW138851   3.347   6.214  11.106
12318SOL    HW238852   3.377   6.159  11.244
12319SOL     OW38853   9.511   4.119  13.631
12319SOL    HW138854   9.595   4.073  13.628
12319SOL    HW238855   9.454   4.062  13.683
12320SOL     OW38856   5.975   3.069  10.370
12320SOL    HW138857   5.891   3.109  10.348
12320SOL    HW238858   6.024   3.140  10.412
12321SOL     OW38859   6.240  11.416   2.315
12321SOL    HW138860   6.153  11.389   2.286
12321SOL    HW238861   6.235  11.414   2.410
12322SOL     OW38862  12.131  11.757   4.502
12322SOL    HW138863  12.103  11.704   4.577
12322SOL    HW238864  12.057  11.754   4.442
12323SOL     OW38865  10.567   3.803   3.617
12323SOL    HW138866  10.540   3.895   3.610
12323SOL    HW238867  10.587   3.790   3.710
12324SOL     OW38868   0.601   0.261   7.985
12324SOL    HW138869   0.686   0.231   8.018
12324SOL    HW238870   0.586   0.344   8.030
12325SOL     OW38871   4.226  13.920   5.540
12325SOL    HW138872   4.138  13.883   5.547
12325SOL    HW238873   4.275  13.880   5.612
12326SOL     OW38874   0.550  12.011   8.537
12326SOL    HW138875   0.481  12.061   8.581
12326SOL    HW238876   0.631  12.056   8.559
12327SOL     OW38877  13.905  11.151  12.372
12327SOL    HW138878  13.814  11.168  12.398
12327SOL    HW238879  13.931  11.076  12.425
12328SOL     OW38880  12.461  14.588   6.990
12328SOL    HW138881  12.397  14.652   6.958
12328SOL    HW238882  12.409  14.520   7.031
12329SOL     OW38883   9.946  14.790   9.515
12329SOL    HW138884   9.914  14.701   9.529
12329SOL    HW238885   9.887  14.846   9.564
12330SOL     OW38886  13.078  13.294   3.579
12330SOL    HW138887  13.003  13.291   3.520
12330SOL    HW238888  13.126  13.213   3.562
12331SOL     OW38889   4.473   9.140  13.668
12331SOL    HW138890   4.450   9.085  13.594
12331SOL    HW238891   4.491   9.078  13.739
12332SOL     OW38892   8.629   6.204  10.648
12332SOL    HW138893   8.625   6.120  10.693
12332SOL    HW238894   8.552   6.205  10.591
12333SOL     OW38895  12.915   0.957  14.235
12333SOL    HW138896  12.861   0.882  14.259
12333SOL    HW238897  12.974   0.923  14.167
12334SOL     OW38898  11.603  14.621   3.783
12334SOL    HW138899  11.517  14.579   3.780
12334SOL    HW238900  11.639  14.595   3.868
12335SOL     OW38901  11.184  12.835   1.925
12335SOL    HW138902  11.248  12.903   1.905
12335SOL    HW238903  11.100  12.881   1.930
12336SOL     OW38904  13.880   9.862   1.229
12336SOL    HW138905  13.845   9.887   1.143
12336SOL    HW238906  13.926   9.780   1.214
12337SOL     OW38907   6.405   1.296  12.191
12337SOL    HW138908   6.401   1.209  12.230
12337SOL    HW238909   6.496   1.324  12.204
12338SOL     OW38910  10.617  11.016   8.436
12338SOL    HW138911  10.533  10.973   8.450
12338SOL    HW238912  10.596  11.092   8.382
12339SOL     OW38913  11.875   7.222  13.495
12339SOL    HW138914  11.932   7.288  13.457
12339SOL    HW238915  11.932   7.175  13.557
12340SOL     OW38916   9.497   5.821  11.268
12340SOL    HW138917   9.585   5.789  11.247
12340SOL    HW238918   9.509   5.916  11.280
12341SOL     OW38919   1.370   8.594   1.391
12341SOL    HW138920   1.339   8.504   1.401
12341SOL    HW238921   1.381   8.605   1.297
12342SOL     OW38922   6.458  13.290   6.229
12342SOL    HW138923   6.498  13.258   6.310
12342SOL    HW238924   6.520  13.267   6.160
12343SOL     OW38925   9.272   0.285   6.674
12343SOL    HW138926   9.363   0.277   6.647
12343SOL    HW238927   9.235   0.197   6.660
12344SOL     OW38928   4.344  13.400   6.734
12344SOL    HW138929   4.389  13.358   6.661
12344SOL    HW238930   4.328  13.489   6.704
12345SOL     OW38931  14.615   4.711   2.197
12345SOL    HW138932  14.582   4.788   2.151
12345SOL    HW238933  14.548   4.643   2.181
12346SOL     OW38934   7.699  11.868   4.386
12346SOL    HW138935   7.679  11.944   4.331
12346SOL    HW238936   7.662  11.891   4.472
12347SOL     OW38937   1.129  12.275   0.659
12347SOL    HW138938   1.078  12.345   0.619
12347SOL    HW238939   1.207  12.319   0.693
12348SOL     OW38940  13.506   4.602   6.683
12348SOL    HW138941  13.548   4.517   6.682
12348SOL    HW238942  13.497   4.626   6.591
12349SOL     OW38943   8.452   4.362   3.812
12349SOL    HW138944   8.358   4.353   3.800
12349SOL    HW238945   8.475   4.443   3.765
12350SOL     OW38946   0.637   3.148   2.714
12350SOL    HW138947   0.622   3.067   2.763
12350SOL    HW238948   0.708   3.128   2.654
12351SOL     OW38949   4.749  13.076   9.985
12351SOL    HW138950   4.776  13.167   9.990
12351SOL    HW238951   4.827  13.027  10.012
12352SOL     OW38952  11.367  10.099  10.068
12352SOL    HW138953  11.453  10.086  10.108
12352SOL    HW238954  11.310  10.121  10.142
12353SOL     OW38955  11.047   6.977   8.495
12353SOL    HW138956  10.968   7.013   8.453
12353SOL    HW238957  11.024   6.886   8.514
12354SOL     OW38958  13.197   1.292  13.635
12354SOL    HW138959  13.220   1.350  13.562
12354SOL    HW238960  13.176   1.208  13.594
12355SOL     OW38961   8.153   1.053   9.909
12355SOL    HW138962   8.062   1.029   9.894
12355SOL    HW238963   8.153   1.149   9.908
12356SOL     OW38964   0.811   2.755   5.400
12356SOL    HW138965   0.845   2.782   5.315
12356SOL    HW238966   0.881   2.702   5.438
12357SOL     OW38967   4.985  13.656   4.922
12357SOL    HW138968   4.974  13.563   4.904
12357SOL    HW238969   4.948  13.668   5.010
12358SOL     OW38970   8.922  10.463   8.731
12358SOL    HW138971   8.959  10.424   8.652
12358SOL    HW238972   8.954  10.554   8.730
12359SOL     OW38973   1.132  13.356   3.562
12359SOL    HW138974   1.041  13.368   3.588
12359SOL    HW238975   1.132  13.367   3.467
12360SOL     OW38976   9.726   9.090   4.560
12360SOL    HW138977   9.750   9.010   4.607
12360SOL    HW238978   9.673   9.139   4.622
12361SOL     OW38979   2.038  13.094  13.555
12361SOL    HW138980   1.974  13.165  13.558
12361SOL    HW238981   2.116  13.134  13.517
12362SOL     OW38982  10.458   8.393   7.729
12362SOL    HW138983  10.412   8.445   7.664
12362SOL    HW238984  10.481   8.312   7.683
12363SOL     OW38985   7.280   0.483   4.283
12363SOL    HW138986   7.208   0.541   4.261
12363SOL    HW238987   7.329   0.473   4.202
12364SOL     OW38988   1.887  14.695   8.814
12364SOL    HW138989   1.975  14.684   8.851
12364SOL    HW238990   1.868  14.612   8.771
12365SOL     OW38991   7.364  12.547   9.345
12365SOL    HW138992   7.407  12.482   9.400
12365SOL    HW238993   7.420  12.625   9.349
12366SOL     OW38994  10.034   5.226   6.885
12366SOL    HW138995  10.056   5.144   6.930
12366SOL    HW238996  10.108   5.241   6.825
12367SOL     OW38997   3.919   7.348  12.619
12367SOL    HW138998   3.977   7.328  12.692
12367SOL    HW238999   3.901   7.263  12.579
12368SOL     OW39000  12.214  14.700   3.219
12368SOL    HW139001  12.299  14.742   3.229
12368SOL    HW239002  12.151  14.772   3.224
12369SOL     OW39003   3.137   4.186  14.121
12369SOL    HW139004   3.114   4.183  14.028
12369SOL    HW239005   3.150   4.094  14.146
12370SOL     OW39006   7.285  13.154   7.628
12370SOL    HW139007   7.283  13.171   7.533
12370SOL    HW239008   7.317  13.064   7.636
12371SOL     OW39009  13.514   5.156   4.042
12371SOL    HW139010  13.430   5.122   4.010
12371SOL    HW239011  13.558   5.080   4.080
12372SOL     OW39012  12.962   0.728  12.836
12372SOL    HW139013  12.956   0.651  12.780
12372SOL    HW239014  12.880   0.776  12.819
12373SOL     OW39015   4.526   8.557  10.992
12373SOL    HW139016   4.542   8.463  10.983
12373SOL    HW239017   4.445   8.573  10.944
12374SOL     OW39018   2.854   7.242  14.445
12374SOL    HW139019   2.919   7.177  14.472
12374SOL    HW239020   2.778   7.224  14.500
12375SOL     OW39021  14.408   2.737   2.284
12375SOL    HW139022  14.359   2.796   2.341
12375SOL    HW239023  14.447   2.673   2.344
12376SOL     OW39024   2.636   2.728   6.945
12376SOL    HW139025   2.571   2.662   6.968
12376SOL    HW239026   2.697   2.729   7.019
12377SOL     OW39027  11.608   2.541   0.101
12377SOL    HW139028  11.567   2.520   0.184
12377SOL    HW239029  11.654   2.624   0.117
12378SOL     OW39030  10.708  12.558   5.392
12378SOL    HW139031  10.771  12.598   5.333
12378SOL    HW239032  10.655  12.501   5.336
12379SOL     OW39033   1.141   4.963   6.553
12379SOL    HW139034   1.153   5.034   6.489
12379SOL    HW239035   1.047   4.955   6.562
12380SOL     OW39036  12.393   5.446  12.481
12380SOL    HW139037  12.415   5.513  12.415
12380SOL    HW239038  12.308   5.474  12.515
12381SOL     OW39039  14.042   5.623   1.496
12381SOL    HW139040  14.046   5.541   1.448
12381SOL    HW239041  13.998   5.684   1.436
12382SOL     OW39042   4.803   6.639   5.912
12382SOL    HW139043   4.825   6.732   5.916
12382SOL    HW239044   4.888   6.595   5.921
12383SOL     OW39045  12.985   2.116  10.001
12383SOL    HW139046  12.947   2.184   9.946
12383SOL    HW239047  12.970   2.146  10.090
12384SOL     OW39048   2.687   5.095   1.615
12384SOL    HW139049   2.656   5.119   1.527
12384SOL    HW239050   2.693   5.178   1.661
12385SOL     OW39051   9.662   6.088   3.837
12385SOL    HW139052   9.574   6.124   3.827
12385SOL    HW239053   9.648   5.993   3.844
12386SOL     OW39054  10.716   4.214   5.253
12386SOL    HW139055  10.654   4.176   5.316
12386SOL    HW239056  10.802   4.198   5.291
12387SOL     OW39057   4.144   0.021  13.813
12387SOL    HW139058   4.167   0.096  13.869
12387SOL    HW239059   4.149   0.055  13.724
12388SOL     OW39060  14.669   2.642   1.960
12388SOL    HW139061  14.598   2.600   1.911
12388SOL    HW239062  14.639   2.732   1.972
12389SOL     OW39063   7.402  14.600  12.708
12389SOL    HW139064   7.360  14.519  12.679
12389SOL    HW239065   7.488  14.572  12.739
12390SOL     OW39066  14.453   3.779   1.682
12390SOL    HW139067  14.433   3.803   1.772
12390SOL    HW239068  14.424   3.854   1.630
12391SOL     OW39069   8.923   0.295  10.991
12391SOL    HW139070   8.969   0.305  11.074
12391SOL    HW239071   8.943   0.206  10.963
12392SOL     OW39072  14.417   7.733  13.897
12392SOL    HW139073  14.484   7.705  13.959
12392SOL    HW239074  14.335   7.704  13.936
12393SOL     OW39075   8.516  10.010   5.563
12393SOL    HW139076   8.527  10.014   5.468
12393SOL    HW239077   8.602   9.981   5.595
12394SOL     OW39078   7.612   1.849   8.831
12394SOL    HW139079   7.541   1.877   8.889
12394SOL    HW239080   7.690   1.890   8.868
12395SOL     OW39081   6.448   5.168  11.721
12395SOL    HW139082   6.404   5.084  11.707
12395SOL    HW239083   6.378   5.228  11.744
12396SOL     OW39084  13.310   0.873   7.872
12396SOL    HW139085  13.227   0.921   7.871
12396SOL    HW239086  13.316   0.834   7.785
12397SOL     OW39087   0.455   6.507   0.410
12397SOL    HW139088   0.443   6.591   0.366
12397SOL    HW239089   0.542   6.479   0.383
12398SOL     OW39090   0.412  12.333  11.190
12398SOL    HW139091   0.402  12.264  11.124
12398SOL    HW239092   0.374  12.411  11.149
12399SOL     OW39093   0.537   8.774   8.407
12399SOL    HW139094   0.562   8.790   8.498
12399SOL    HW239095   0.618   8.744   8.365
12400SOL     OW39096  14.086   5.131   5.181
12400SOL    HW139097  14.111   5.071   5.110
12400SOL    HW239098  14.022   5.190   5.141
12401SOL     OW39099   9.280  11.164  13.180
12401SOL    HW139100   9.363  11.134  13.217
12401SOL    HW239101   9.220  11.091  13.192
12402SOL     OW39102   2.613   1.747  10.776
12402SOL    HW139103   2.627   1.827  10.725
12402SOL    HW239104   2.697   1.702  10.772
12403SOL     OW39105  12.769   5.775   5.377
12403SOL    HW139106  12.700   5.795   5.441
12403SOL    HW239107  12.843   5.830   5.403
12404SOL     OW39108   3.615   6.618   5.791
12404SOL    HW139109   3.695   6.567   5.802
12404SOL    HW239110   3.583   6.633   5.880
12405SOL     OW39111  13.117  14.518   2.045
12405SOL    HW139112  13.083  14.439   2.003
12405SOL    HW239113  13.040  14.562   2.080
12406SOL     OW39114   7.644  14.182   6.877
12406SOL    HW139115   7.591  14.130   6.817
12406SOL    HW239116   7.731  14.185   6.836
12407SOL     OW39117   6.479   9.498  11.206
12407SOL    HW139118   6.488   9.404  11.194
12407SOL    HW239119   6.412   9.524  11.144
12408SOL     OW39120  11.465   1.644  10.971
12408SOL    HW139121  11.423   1.691  11.043
12408SOL    HW239122  11.423   1.679  10.892
12409SOL     OW39123   4.129  10.929  11.181
12409SOL    HW139124   4.192  10.857  11.169
12409SOL    HW239125   4.107  10.926  11.274
12410SOL     OW39126  13.107   8.913   0.218
12410SOL    HW139127  13.035   8.969   0.191
12410SOL    HW239128  13.095   8.832   0.169
12411SOL     OW39129   4.293   1.185   1.379
12411SOL    HW139130   4.212   1.139   1.400
12411SOL    HW239131   4.336   1.131   1.313
12412SOL     OW39132   4.014  11.319   7.096
12412SOL    HW139133   4.002  11.233   7.057
12412SOL    HW239134   3.942  11.329   7.157
12413SOL     OW39135   9.145  12.968   5.314
12413SOL    HW139136   9.094  13.043   5.282
12413SOL    HW239137   9.223  13.008   5.353
12414SOL     OW39138   6.810  13.266   6.276
12414SOL    HW139139   6.756  13.224   6.209
12414SOL    HW239140   6.893  13.284   6.232
12415SOL     OW39141   7.561   5.132   2.050
12415SOL    HW139142   7.509   5.056   2.025
12415SOL    HW239143   7.556   5.190   1.974
12416SOL     OW39144   3.118  10.644  14.529
12416SOL    HW139145   3.135  10.551  14.518
12416SOL    HW239146   3.023  10.651  14.536
12417SOL     OW39147  11.571   7.773   2.133
12417SOL    HW139148  11.644   7.831   2.155
12417SOL    HW239149  11.492   7.825   2.151
12418SOL     OW39150   4.134  12.490   2.258
12418SOL    HW139151   4.158  12.495   2.351
12418SOL    HW239152   4.167  12.571   2.220
12419SOL     OW39153   6.634  10.535   0.826
12419SOL    HW139154   6.557  10.489   0.860
12419SOL    HW239155   6.708  10.482   0.857
12420SOL     OW39156   8.583  11.027   7.325
12420SOL    HW139157   8.635  11.062   7.397
12420SOL    HW239158   8.584  11.096   7.259
12421SOL     OW39159  10.411   9.326   2.451
12421SOL    HW139160  10.422   9.420   2.465
12421SOL    HW239161  10.497   9.296   2.422
12422SOL     OW39162   1.563  10.119  14.750
12422SOL    HW139163   1.602  10.085  14.831
12422SOL    HW239164   1.581  10.213  14.752
12423SOL     OW39165  14.647  14.825   2.054
12423SOL    HW139166  14.626  14.735   2.082
12423SOL    HW239167  14.597   0.009   2.113
12424SOL     OW39168  14.583   0.543   5.031
12424SOL    HW139169  14.506   0.572   4.982
12424SOL    HW239170  14.656   0.557   4.971
12425SOL     OW39171   9.897   7.286   7.225
12425SOL    HW139172   9.867   7.196   7.240
12425SOL    HW239173   9.848   7.338   7.288
12426SOL     OW39174   0.811   1.071   1.155
12426SOL    HW139175   0.755   1.147   1.145
12426SOL    HW239176   0.873   1.095   1.224
12427SOL     OW39177  11.138  10.527  11.011
12427SOL    HW139178  11.232  10.530  11.028
12427SOL    HW239179  11.114  10.618  10.991
12428SOL     OW39180   2.588   6.249   7.155
12428SOL    HW139181   2.550   6.246   7.067
12428SOL    HW239182   2.635   6.166   7.163
12429SOL     OW39183  14.294   1.258   6.133
12429SOL    HW139184  14.344   1.306   6.198
12429SOL    HW239185  14.359   1.233   6.067
12430SOL     OW39186   0.337   9.966  11.220
12430SOL    HW139187   0.380  10.008  11.145
12430SOL    HW239188   0.392   9.988  11.295
12431SOL     OW39189   2.112   3.526   4.936
12431SOL    HW139190   2.107   3.579   4.856
12431SOL    HW239191   2.202   3.493   4.937
12432SOL     OW39192   6.798   1.244   1.226
12432SOL    HW139193   6.776   1.337   1.229
12432SOL    HW239194   6.893   1.241   1.235
12433SOL     OW39195   1.880   0.215  11.925
12433SOL    HW139196   1.903   0.266  12.003
12433SOL    HW239197   1.854   0.130  11.959
12434SOL     OW39198  11.135   7.061   9.864
12434SOL    HW139199  11.182   6.980   9.847
12434SOL    HW239200  11.144   7.075   9.958
12435SOL     OW39201  11.108  12.918   7.875
12435SOL    HW139202  11.081  12.870   7.953
12435SOL    HW239203  11.187  12.966   7.903
12436SOL     OW39204   0.444   8.603   1.728
12436SOL    HW139205   0.486   8.633   1.809
12436SOL    HW239206   0.366   8.658   1.721
12437SOL     OW39207   1.689   5.566   6.595
12437SOL    HW139208   1.710   5.518   6.514
12437SOL    HW239209   1.733   5.517   6.664
12438SOL     OW39210   2.790  10.965   1.889
12438SOL    HW139211   2.740  11.003   1.817
12438SOL    HW239212   2.873  10.938   1.849
12439SOL     OW39213   1.975   7.770   7.704
12439SOL    HW139214   1.908   7.830   7.672
12439SOL    HW239215   2.052   7.788   7.650
12440SOL     OW39216   9.737   3.047   9.152
12440SOL    HW139217   9.768   3.087   9.071
12440SOL    HW239218   9.737   3.118   9.216
12441SOL     OW39219   6.823  13.599  14.140
12441SOL    HW139220   6.819  13.596  14.044
12441SOL    HW239221   6.848  13.690  14.159
12442SOL     OW39222   5.532  10.010  11.600
12442SOL    HW139223   5.521  10.047  11.687
12442SOL    HW239224   5.621   9.974  11.600
12443SOL     OW39225   5.877   7.631   0.170
12443SOL    HW139226   5.927   7.582   0.235
12443SOL    HW239227   5.908   7.721   0.179
12444SOL     OW39228   8.289   9.362   3.812
12444SOL    HW139229   8.298   9.338   3.905
12444SOL    HW239230   8.351   9.304   3.767
12445SOL     OW39231  11.830   5.506  13.867
12445SOL    HW139232  11.925   5.491  13.864
12445SOL    HW239233  11.794   5.427  13.906
12446SOL     OW39234   1.516   2.807   7.521
12446SOL    HW139235   1.486   2.731   7.471
12446SOL    HW239236   1.587   2.772   7.575
12447SOL     OW39237  11.825  11.497   1.613
12447SOL    HW139238  11.802  11.520   1.703
12447SOL    HW239239  11.742  11.499   1.566
12448SOL     OW39240   1.176   7.699   8.884
12448SOL    HW139241   1.235   7.768   8.854
12448SOL    HW239242   1.164   7.716   8.977
12449SOL     OW39243   6.009   1.915   5.320
12449SOL    HW139244   6.054   1.858   5.383
12449SOL    HW239245   5.974   1.854   5.254
12450SOL     OW39246   7.038   7.723   9.679
12450SOL    HW139247   7.034   7.814   9.650
12450SOL    HW239248   6.947   7.700   9.700
12451SOL     OW39249   7.593   8.152   9.751
12451SOL    HW139250   7.605   8.242   9.720
12451SOL    HW239251   7.630   8.152   9.839
12452SOL     OW39252   6.895   0.885   4.615
12452SOL    HW139253   6.852   0.800   4.625
12452SOL    HW239254   6.893   0.901   4.521
12453SOL     OW39255  10.458  14.091  13.022
12453SOL    HW139256  10.535  14.067  13.073
12453SOL    HW239257  10.472  14.050  12.936
12454SOL     OW39258   4.401   8.016   5.260
12454SOL    HW139259   4.411   7.939   5.316
12454SOL    HW239260   4.490   8.034   5.228
12455SOL     OW39261   5.874   2.902   1.714
12455SOL    HW139262   5.788   2.937   1.694
12455SOL    HW239263   5.932   2.977   1.714
12456SOL     OW39264   3.741   9.891   8.930
12456SOL    HW139265   3.817   9.915   8.984
12456SOL    HW239266   3.677   9.857   8.993
12457SOL     OW39267   1.342   4.761   6.868
12457SOL    HW139268   1.379   4.847   6.886
12457SOL    HW239269   1.328   4.722   6.955
12458SOL     OW39270  13.461  10.120   0.214
12458SOL    HW139271  13.520  10.138   0.141
12458SOL    HW239272  13.412  10.042   0.187
12459SOL     OW39273  12.447   2.252   8.335
12459SOL    HW139274  12.533   2.251   8.294
12459SOL    HW239275  12.423   2.344   8.339
12460SOL     OW39276   9.686   4.984  14.582
12460SOL    HW139277   9.684   5.025  14.669
12460SOL    HW239278   9.656   5.053  14.522
12461SOL     OW39279   1.071   3.431  13.621
12461SOL    HW139280   1.065   3.336  13.624
12461SOL    HW239281   1.091   3.458  13.711
12462SOL     OW39282   6.477  11.349  11.508
12462SOL    HW139283   6.503  11.413  11.442
12462SOL    HW239284   6.469  11.400  11.589
12463SOL     OW39285   2.908  11.513   3.908
12463SOL    HW139286   2.936  11.423   3.891
12463SOL    HW239287   2.902  11.553   3.821
12464SOL     OW39288  11.065   7.466   6.781
12464SOL    HW139289  11.104   7.549   6.755
12464SOL    HW239290  10.979   7.489   6.817
12465SOL     OW39291   6.394   5.723  12.551
12465SOL    HW139292   6.361   5.702  12.464
12465SOL    HW239293   6.319   5.761  12.597
12466SOL     OW39294   3.481   7.764   2.702
12466SOL    HW139295   3.397   7.732   2.734
12466SOL    HW239296   3.543   7.695   2.723
12467SOL     OW39297   3.426   7.735   5.411
12467SOL    HW139298   3.406   7.642   5.417
12467SOL    HW239299   3.500   7.747   5.470
12468SOL     OW39300   9.277   4.220   2.579
12468SOL    HW139301   9.199   4.167   2.562
12468SOL    HW239302   9.333   4.206   2.503
12469SOL     OW39303   2.388   6.464   6.635
12469SOL    HW139304   2.461   6.517   6.602
12469SOL    HW239305   2.320   6.528   6.656
12470SOL     OW39306   9.068  12.441  13.469
12470SOL    HW139307   9.138  12.501  13.492
12470SOL    HW239308   9.092  12.358  13.510
12471SOL     OW39309   5.625   0.022  12.010
12471SOL    HW139310   5.623  14.812  11.960
12471SOL    HW239311   5.681   0.080  11.958
12472SOL     OW39312   2.552  12.120   3.201
12472SOL    HW139313   2.523  12.046   3.254
12472SOL    HW239314   2.517  12.197   3.245
12473SOL     OW39315   4.216  13.093  13.624
12473SOL    HW139316   4.263  13.056  13.699
12473SOL    HW239317   4.285  13.114  13.560
12474SOL     OW39318   8.740   6.430  13.571
12474SOL    HW139319   8.706   6.494  13.508
12474SOL    HW239320   8.673   6.363  13.576
12475SOL     OW39321  12.898   3.655  12.406
12475SOL    HW139322  12.987   3.623  12.391
12475SOL    HW239323  12.909   3.741  12.446
12476SOL     OW39324   9.795  12.212   5.806
12476SOL    HW139325   9.836  12.296   5.789
12476SOL    HW239326   9.737  12.228   5.880
12477SOL     OW39327   2.291   1.081   4.026
12477SOL    HW139328   2.297   1.137   4.103
12477SOL    HW239329   2.280   0.993   4.061
12478SOL     OW39330   4.234   8.412   4.108
12478SOL    HW139331   4.246   8.451   4.021
12478SOL    HW239332   4.318   8.424   4.152
12479SOL     OW39333   0.039  13.625   5.843
12479SOL    HW139334   0.122  13.667   5.818
12479SOL    HW239335   0.063  13.566   5.915
12480SOL     OW39336   3.145  10.802   8.530
12480SOL    HW139337   3.188  10.733   8.580
12480SOL    HW239338   3.135  10.874   8.592
12481SOL     OW39339   7.863   9.918  13.629
12481SOL    HW139340   7.863   9.823  13.619
12481SOL    HW239341   7.952   9.945  13.605
12482SOL     OW39342  10.070  13.239   9.696
12482SOL    HW139343  10.068  13.259   9.603
12482SOL    HW239344  10.004  13.171   9.707
12483SOL     OW39345  12.457  13.257   5.039
12483SOL    HW139346  12.503  13.341   5.038
12483SOL    HW239347  12.476  13.221   5.126
12484SOL     OW39348  14.334   8.212   0.641
12484SOL    HW139349  14.329   8.302   0.609
12484SOL    HW239350  14.255   8.201   0.694
12485SOL     OW39351   8.744  13.394  13.685
12485SOL    HW139352   8.830  13.361  13.659
12485SOL    HW239353   8.682  13.332  13.647
12486SOL     OW39354   5.207   0.923   5.857
12486SOL    HW139355   5.235   1.009   5.886
12486SOL    HW239356   5.134   0.900   5.916
12487SOL     OW39357  13.368  14.303   8.918
12487SOL    HW139358  13.450  14.342   8.946
12487SOL    HW239359  13.392  14.216   8.886
12488SOL     OW39360  11.708  13.546   2.571
12488SOL    HW139361  11.631  13.495   2.595
12488SOL    HW239362  11.742  13.579   2.654
12489SOL     OW39363   4.148   6.972   4.661
12489SOL    HW139364   4.156   7.026   4.583
12489SOL    HW239365   4.079   6.909   4.639
12490SOL     OW39366   1.930   6.580  11.862
12490SOL    HW139367   1.955   6.655  11.808
12490SOL    HW239368   1.838   6.564  11.840
12491SOL     OW39369   1.731   1.052   1.704
12491SOL    HW139370   1.680   1.041   1.624
12491SOL    HW239371   1.668   1.077   1.771
12492SOL     OW39372  11.956   5.467   9.428
12492SOL    HW139373  12.029   5.527   9.440
12492SOL    HW239374  11.882   5.510   9.471
12493SOL     OW39375  13.040   4.918   0.956
12493SOL    HW139376  13.093   4.920   0.876
12493SOL    HW239377  12.964   4.972   0.936
12494SOL     OW39378  13.257   3.517   5.408
12494SOL    HW139379  13.289   3.569   5.334
12494SOL    HW239380  13.184   3.466   5.373
12495SOL     OW39381   7.260   5.997  11.139
12495SOL    HW139382   7.245   5.961  11.227
12495SOL    HW239383   7.177   5.982  11.093
12496SOL     OW39384  14.621   1.151  13.938
12496SOL    HW139385  14.569   1.137  13.859
12496SOL    HW239386  14.711   1.139  13.910
12497SOL     OW39387   9.348   9.342   7.988
12497SOL    HW139388   9.340   9.260   8.037
12497SOL    HW239389   9.270   9.344   7.933
12498SOL     OW39390   2.028   9.016  10.971
12498SOL    HW139391   1.945   8.971  10.956
12498SOL    HW239392   2.007   9.109  10.963
12499SOL     OW39393  12.951   9.824   9.142
12499SOL    HW139394  13.017   9.829   9.211
12499SOL    HW239395  13.002   9.825   9.061
12500SOL     OW39396  13.598  13.968   3.372
12500SOL    HW139397  13.591  13.937   3.282
12500SOL    HW239398  13.629  14.059   3.364
12501SOL     OW39399  12.443  10.988  12.810
12501SOL    HW139400  12.455  10.896  12.832
12501SOL    HW239401  12.506  11.034  12.866
12502SOL     OW39402  14.826  10.952   4.194
12502SOL    HW139403   0.024  10.890   4.213
12502SOL    HW239404  14.871  11.036   4.183
12503SOL     OW39405  11.064   1.138  14.548
12503SOL    HW139406  11.084   1.215  14.494
12503SOL    HW239407  11.111   1.066  14.505
12504SOL     OW39408   0.107   4.045  12.073
12504SOL    HW139409   0.111   3.951  12.061
12504SOL    HW239410   0.022   4.070  12.036
12505SOL     OW39411  12.508   1.176   7.499
12505SOL    HW139412  12.472   1.133   7.421
12505SOL    HW239413  12.573   1.114   7.533
12506SOL     OW39414   0.688   8.208   7.273
12506SOL    HW139415   0.690   8.299   7.245
12506SOL    HW239416   0.716   8.158   7.196
12507SOL     OW39417   8.673   9.471   3.549
12507SOL    HW139418   8.699   9.501   3.636
12507SOL    HW239419   8.754   9.477   3.497
12508SOL     OW39420   5.668  10.940   6.489
12508SOL    HW139421   5.671  10.975   6.578
12508SOL    HW239422   5.611  11.001   6.442
12509SOL     OW39423   0.590   3.538   2.167
12509SOL    HW139424   0.551   3.623   2.146
12509SOL    HW239425   0.677   3.541   2.129
12510SOL     OW39426   2.661   4.175  14.661
12510SOL    HW139427   2.693   4.092  14.624
12510SOL    HW239428   2.583   4.151  14.711
12511SOL     OW39429   4.599   5.526   0.331
12511SOL    HW139430   4.541   5.540   0.256
12511SOL    HW239431   4.620   5.432   0.328
12512SOL     OW39432  12.928   5.303   9.605
12512SOL    HW139433  12.899   5.230   9.552
12512SOL    HW239434  12.942   5.266   9.692
12513SOL     OW39435  11.416   9.895  10.700
12513SOL    HW139436  11.448   9.925  10.615
12513SOL    HW239437  11.367   9.970  10.734
12514SOL     OW39438   4.799   0.541   7.253
12514SOL    HW139439   4.808   0.467   7.193
12514SOL    HW239440   4.791   0.501   7.339
12515SOL     OW39441   6.951  14.166   1.380
12515SOL    HW139442   6.958  14.215   1.462
12515SOL    HW239443   6.867  14.121   1.385
12516SOL     OW39444   8.584   1.802  13.242
12516SOL    HW139445   8.604   1.840  13.327
12516SOL    HW239446   8.532   1.869  13.197
12517SOL     OW39447   2.019  11.982   1.415
12517SOL    HW139448   1.924  11.989   1.407
12517SOL    HW239449   2.052  12.061   1.371
12518SOL     OW39450   6.042  13.185   5.190
12518SOL    HW139451   6.070  13.265   5.235
12518SOL    HW239452   6.118  13.127   5.195
12519SOL     OW39453  11.573   1.620   1.126
12519SOL    HW139454  11.580   1.693   1.188
12519SOL    HW239455  11.647   1.632   1.067
12520SOL     OW39456   9.286   7.514  11.102
12520SOL    HW139457   9.218   7.574  11.071
12520SOL    HW239458   9.359   7.527  11.041
12521SOL     OW39459  11.688   0.358   2.163
12521SOL    HW139460  11.779   0.350   2.190
12521SOL    HW239461  11.638   0.317   2.235
12522SOL     OW39462   6.184   7.485   0.864
12522SOL    HW139463   6.242   7.558   0.843
12522SOL    HW239464   6.096   7.523   0.863
12523SOL     OW39465   5.480  10.172  13.111
12523SOL    HW139466   5.561  10.127  13.086
12523SOL    HW239467   5.488  10.188  13.205
12524SOL     OW39468   0.322   3.305  14.436
12524SOL    HW139469   0.387   3.236  14.450
12524SOL    HW239470   0.245   3.259  14.400
12525SOL     OW39471  10.851   7.519   9.075
12525SOL    HW139472  10.911   7.588   9.044
12525SOL    HW239473  10.843   7.459   9.000
12526SOL     OW39474  12.214   7.931   0.785
12526SOL    HW139475  12.220   7.849   0.834
12526SOL    HW239476  12.225   8.000   0.851
12527SOL     OW39477   0.985  12.031   5.845
12527SOL    HW139478   0.966  12.050   5.753
12527SOL    HW239479   0.916  11.971   5.873
12528SOL     OW39480   1.239   1.484  12.211
12528SOL    HW139481   1.296   1.475  12.287
12528SOL    HW239482   1.175   1.415  12.220
12529SOL     OW39483   3.246  10.682   4.940
12529SOL    HW139484   3.273  10.697   4.849
12529SOL    HW239485   3.325  10.701   4.992
12530SOL     OW39486  14.649  13.603  12.797
12530SOL    HW139487  14.559  13.632  12.813
12530SOL    HW239488  14.639  13.512  12.767
12531SOL     OW39489   5.234  14.230   0.223
12531SOL    HW139490   5.252  14.248   0.131
12531SOL    HW239491   5.180  14.304   0.252
12532SOL     OW39492   9.381  10.184   2.727
12532SOL    HW139493   9.311  10.230   2.772
12532SOL    HW239494   9.421  10.129   2.795
12533SOL     OW39495   8.685  13.470   3.683
12533SOL    HW139496   8.642  13.492   3.601
12533SOL    HW239497   8.635  13.397   3.719
12534SOL     OW39498   8.884   9.642  14.315
12534SOL    HW139499   8.930   9.650  14.399
12534SOL    HW239500   8.920   9.712  14.261
12535SOL     OW39501  13.451  14.241   5.761
12535SOL    HW139502  13.423  14.326   5.726
12535SOL    HW239503  13.544  14.235   5.739
12536SOL     OW39504  10.878   6.777   5.409
12536SOL    HW139505  10.968   6.758   5.382
12536SOL    HW239506  10.883   6.792   5.503
12537SOL     OW39507   4.891   8.311   9.931
12537SOL    HW139508   4.864   8.351  10.014
12537SOL    HW239509   4.950   8.375   9.891
12538SOL     OW39510   7.500   7.755  11.581
12538SOL    HW139511   7.473   7.708  11.661
12538SOL    HW239512   7.436   7.729  11.515
12539SOL     OW39513  10.417   4.605   3.522
12539SOL    HW139514  10.354   4.563   3.464
12539SOL    HW239515  10.492   4.624   3.466
12540SOL     OW39516   8.710   6.901   4.660
12540SOL    HW139517   8.728   6.990   4.630
12540SOL    HW239518   8.616   6.902   4.682
12541SOL     OW39519  10.263  12.666  11.247
12541SOL    HW139520  10.351  12.705  11.248
12541SOL    HW239521  10.210  12.725  11.301
12542SOL     OW39522   5.139   7.364   0.777
12542SOL    HW139523   5.158   7.457   0.791
12542SOL    HW239524   5.218   7.318   0.807
12543SOL     OW39525  12.864   3.996   6.343
12543SOL    HW139526  12.846   3.941   6.267
12543SOL    HW239527  12.943   4.045   6.319
12544SOL     OW39528  12.058  12.032   8.584
12544SOL    HW139529  12.098  12.104   8.632
12544SOL    HW239530  12.038  12.068   8.498
12545SOL     OW39531   1.615   4.783  10.475
12545SOL    HW139532   1.709   4.798  10.465
12545SOL    HW239533   1.584   4.857  10.528
12546SOL     OW39534   5.889   4.632   7.504
12546SOL    HW139535   5.895   4.701   7.570
12546SOL    HW239536   5.919   4.553   7.549
12547SOL     OW39537   5.292   9.287   0.707
12547SOL    HW139538   5.237   9.253   0.779
12547SOL    HW239539   5.327   9.369   0.741
12548SOL     OW39540  10.363  12.649  13.641
12548SOL    HW139541  10.340  12.684  13.555
12548SOL    HW239542  10.436  12.590  13.624
12549SOL     OW39543   9.843   3.624   8.629
12549SOL    HW139544   9.827   3.655   8.540
12549SOL    HW239545   9.834   3.529   8.623
12550SOL     OW39546  12.503   1.958   1.447
12550SOL    HW139547  12.545   2.025   1.501
12550SOL    HW239548  12.414   1.991   1.433
12551SOL     OW39549  10.780  14.196  14.837
12551SOL    HW139550  10.759  14.103  14.825
12551SOL    HW239551  10.722  14.224   0.036
12552SOL     OW39552  10.010   7.707   8.832
12552SOL    HW139553  10.055   7.667   8.906
12552SOL    HW239554   9.920   7.718   8.862
12553SOL     OW39555  14.634   5.405   6.892
12553SOL    HW139556  14.652   5.459   6.815
12553SOL    HW239557  14.602   5.322   6.856
12554SOL     OW39558  10.053  14.498   1.320
12554SOL    HW139559  10.099  14.574   1.284
12554SOL    HW239560   9.983  14.535   1.373
12555SOL     OW39561  11.896   1.705   7.858
12555SOL    HW139562  11.876   1.622   7.815
12555SOL    HW239563  11.839   1.707   7.935
12556SOL     OW39564  10.530   4.389   8.158
12556SOL    HW139565  10.451   4.435   8.184
12556SOL    HW239566  10.595   4.458   8.145
12557SOL     OW39567   1.763   2.610   9.956
12557SOL    HW139568   1.767   2.608   9.860
12557SOL    HW239569   1.808   2.691   9.980
12558SOL     OW39570   9.217  12.131   6.935
12558SOL    HW139571   9.309  12.121   6.958
12558SOL    HW239572   9.192  12.216   6.971
12559SOL     OW39573  13.947  12.649   7.348
12559SOL    HW139574  13.966  12.570   7.398
12559SOL    HW239575  14.033  12.682   7.320
12560SOL     OW39576   5.694   7.329   9.802
12560SOL    HW139577   5.779   7.355   9.767
12560SOL    HW239578   5.714   7.287   9.886
12561SOL     OW39579  13.579   7.828   8.849
12561SOL    HW139580  13.559   7.814   8.756
12561SOL    HW239581  13.625   7.749   8.876
12562SOL     OW39582  12.402  14.712  11.354
12562SOL    HW139583  12.344  14.675  11.289
12562SOL    HW239584  12.390  14.807  11.346
12563SOL     OW39585   9.837   1.626   3.805
12563SOL    HW139586   9.745   1.644   3.786
12563SOL    HW239587   9.874   1.598   3.721
12564SOL     OW39588   7.640   0.114   1.873
12564SOL    HW139589   7.731   0.140   1.858
12564SOL    HW239590   7.589   0.172   1.816
12565SOL     OW39591   8.274   4.685   0.905
12565SOL    HW139592   8.220   4.618   0.862
12565SOL    HW239593   8.363   4.664   0.880
12566SOL     OW39594  11.828   3.478   4.312
12566SOL    HW139595  11.874   3.398   4.288
12566SOL    HW239596  11.897   3.543   4.325
12567SOL     OW39597   0.532   6.886   7.590
12567SOL    HW139598   0.569   6.911   7.506
12567SOL    HW239599   0.460   6.948   7.604
12568SOL     OW39600   4.923   6.984   9.864
12568SOL    HW139601   4.973   6.955   9.787
12568SOL    HW239602   4.956   7.072   9.881
12569SOL     OW39603  12.279   5.512  10.910
12569SOL    HW139604  12.267   5.460  10.830
12569SOL    HW239605  12.213   5.478  10.970
12570SOL     OW39606   6.102   1.760   7.231
12570SOL    HW139607   6.158   1.807   7.293
12570SOL    HW239608   6.038   1.715   7.286
12571SOL     OW39609   3.276   1.392   7.929
12571SOL    HW139610   3.267   1.423   8.019
12571SOL    HW239611   3.186   1.382   7.898
12572SOL     OW39612   3.351   1.634   2.620
12572SOL    HW139613   3.370   1.689   2.544
12572SOL    HW239614   3.418   1.566   2.618
12573SOL     OW39615   1.658  14.454   0.365
12573SOL    HW139616   1.575  14.478   0.323
12573SOL    HW239617   1.648  14.361   0.385
12574SOL     OW39618   4.411  10.125  10.641
12574SOL    HW139619   4.401  10.213  10.676
12574SOL    HW239620   4.402  10.068  10.716
12575SOL     OW39621  11.305   3.959  13.228
12575SOL    HW139622  11.276   4.044  13.195
12575SOL    HW239623  11.391   3.946  13.187
12576SOL     OW39624   1.625   3.302   4.894
12576SOL    HW139625   1.660   3.244   4.826
12576SOL    HW239626   1.699   3.360   4.916
12577SOL     OW39627  13.824   9.961   8.097
12577SOL    HW139628  13.833   9.867   8.079
12577SOL    HW239629  13.811   9.965   8.192
12578SOL     OW39630  10.770  12.209   4.322
12578SOL    HW139631  10.830  12.222   4.396
12578SOL    HW239632  10.772  12.292   4.275
12579SOL     OW39633   7.394   5.915  14.547
12579SOL    HW139634   7.394   5.879  14.459
12579SOL    HW239635   7.457   5.861  14.595
12580SOL     OW39636   1.328   4.741  14.524
12580SOL    HW139637   1.382   4.712  14.451
12580SOL    HW239638   1.291   4.661  14.560
12581SOL     OW39639   3.569   2.709   8.953
12581SOL    HW139640   3.544   2.656   8.877
12581SOL    HW239641   3.663   2.721   8.944
12582SOL     OW39642   7.751   6.512  13.620
12582SOL    HW139643   7.735   6.504  13.714
12582SOL    HW239644   7.713   6.432  13.582
12583SOL     OW39645   9.837  10.169  12.001
12583SOL    HW139646   9.821  10.142  12.092
12583SOL    HW239647   9.840  10.265  12.005
12584SOL     OW39648   9.817   8.820   2.218
12584SOL    HW139649   9.783   8.897   2.264
12584SOL    HW239650   9.742   8.760   2.215
12585SOL     OW39651   4.470   3.079   6.658
12585SOL    HW139652   4.442   2.995   6.694
12585SOL    HW239653   4.551   3.060   6.612
12586SOL     OW39654  11.294   2.982   4.690
12586SOL    HW139655  11.226   2.926   4.730
12586SOL    HW239656  11.245   3.047   4.640
12587SOL     OW39657  12.205   4.587   3.985
12587SOL    HW139658  12.238   4.676   3.992
12587SOL    HW239659  12.252   4.550   3.910
12588SOL     OW39660   7.814   1.500   9.337
12588SOL    HW139661   7.900   1.519   9.376
12588SOL    HW239662   7.809   1.556   9.260
12589SOL     OW39663   1.924  10.831   4.953
12589SOL    HW139664   1.912  10.810   5.045
12589SOL    HW239665   1.895  10.922   4.945
12590SOL     OW39666   3.043   8.767   1.755
12590SOL    HW139667   3.112   8.769   1.689
12590SOL    HW239668   2.985   8.695   1.727
12591SOL     OW39669   9.740  11.437  14.449
12591SOL    HW139670   9.646  11.454  14.442
12591SOL    HW239671   9.748  11.342  14.448
12592SOL     OW39672   1.990   8.073   4.722
12592SOL    HW139673   2.028   7.994   4.681
12592SOL    HW239674   1.957   8.042   4.806
12593SOL     OW39675  10.683  13.620   2.216
12593SOL    HW139676  10.758  13.675   2.197
12593SOL    HW239677  10.674  13.564   2.139
12594SOL     OW39678   4.787  11.822  12.943
12594SOL    HW139679   4.726  11.857  13.009
12594SOL    HW239680   4.732  11.804  12.867
12595SOL     OW39681  12.361  10.174   1.572
12595SOL    HW139682  12.282  10.172   1.626
12595SOL    HW239683  12.365  10.263   1.538
12596SOL     OW39684   3.159   5.263   0.984
12596SOL    HW139685   3.112   5.183   0.961
12596SOL    HW239686   3.101   5.308   1.045
12597SOL     OW39687   8.287  12.375  14.390
12597SOL    HW139688   8.349  12.328  14.447
12597SOL    HW239689   8.340  12.442  14.347
12598SOL     OW39690  12.702   3.798   6.042
12598SOL    HW139691  12.607   3.805   6.032
12598SOL    HW239692  12.734   3.888   6.038
12599SOL     OW39693   3.505  11.533   2.041
12599SOL    HW139694   3.549  11.484   1.971
12599SOL    HW239695   3.550  11.506   2.121
12600SOL     OW39696  11.099   7.835   5.154
12600SOL    HW139697  11.014   7.799   5.130
12600SOL    HW239698  11.088   7.865   5.244
12601SOL     OW39699  13.774   6.390   6.558
12601SOL    HW139700  13.770   6.369   6.464
12601SOL    HW239701  13.734   6.476   6.566
12602SOL     OW39702  10.907   7.325  12.892
12602SOL    HW139703  10.843   7.353  12.826
12602SOL    HW239704  10.880   7.370  12.972
12603SOL     OW39705   4.732  12.504   5.806
12603SOL    HW139706   4.792  12.574   5.781
12603SOL    HW239707   4.648  12.547   5.820
12604SOL     OW39708   4.725   8.564   1.371
12604SOL    HW139709   4.696   8.637   1.315
12604SOL    HW239710   4.646   8.536   1.416
12605SOL     OW39711   6.075   5.409   2.694
12605SOL    HW139712   6.146   5.453   2.741
12605SOL    HW239713   6.041   5.475   2.634
12606SOL     OW39714   4.311  10.932   1.894
12606SOL    HW139715   4.320  10.861   1.831
12606SOL    HW239716   4.227  10.973   1.873
12607SOL     OW39717   5.295   3.272  14.722
12607SOL    HW139718   5.204   3.293  14.742
12607SOL    HW239719   5.322   3.338  14.658
12608SOL     OW39720  11.610  10.044   9.879
12608SOL    HW139721  11.526  10.035   9.833
12608SOL    HW239722  11.675  10.009   9.818
12609SOL     OW39723   0.389  14.271   1.600
12609SOL    HW139724   0.399  14.352   1.550
12609SOL    HW239725   0.420  14.293   1.688
12610SOL     OW39726   7.057   7.981   3.752
12610SOL    HW139727   6.999   7.937   3.689
12610SOL    HW239728   7.024   7.953   3.837
12611SOL     OW39729  13.969   7.981  12.004
12611SOL    HW139730  14.018   8.022  11.933
12611SOL    HW239731  13.879   7.974  11.971
12612SOL     OW39732  10.868  13.183   8.981
12612SOL    HW139733  10.918  13.197   9.062
12612SOL    HW239734  10.835  13.094   8.989
12613SOL     OW39735   1.656   2.834   6.643
12613SOL    HW139736   1.683   2.831   6.735
12613SOL    HW239737   1.582   2.895   6.643
12614SOL     OW39738   3.340   8.455   0.179
12614SOL    HW139739   3.261   8.427   0.225
12614SOL    HW239740   3.389   8.504   0.245
12615SOL     OW39741   0.171  12.482   0.032
12615SOL    HW139742   0.122  12.497   0.113
12615SOL    HW239743   0.240  12.548   0.033
12616SOL     OW39744   3.705   2.617   0.791
12616SOL    HW139745   3.635   2.553   0.778
12616SOL    HW239746   3.659   2.701   0.797
12617SOL     OW39747   1.329   6.178   1.400
12617SOL    HW139748   1.399   6.208   1.458
12617SOL    HW239749   1.260   6.245   1.410
12618SOL     OW39750  12.275   3.511   8.532
12618SOL    HW139751  12.248   3.421   8.518
12618SOL    HW239752  12.366   3.514   8.501
12619SOL     OW39753  14.231   6.498   4.316
12619SOL    HW139754  14.257   6.532   4.401
12619SOL    HW239755  14.138   6.520   4.308
12620SOL     OW39756   6.258  13.142  13.092
12620SOL    HW139757   6.180  13.085  13.090
12620SOL    HW239758   6.254  13.184  13.178
12621SOL     OW39759  11.638   1.788  14.139
12621SOL    HW139760  11.703   1.766  14.072
12621SOL    HW239761  11.558   1.745  14.111
12622SOL     OW39762   1.519   4.847  12.036
12622SOL    HW139763   1.427   4.874  12.029
12622SOL    HW239764   1.516   4.752  12.047
12623SOL     OW39765   1.589   2.717   5.102
12623SOL    HW139766   1.626   2.797   5.139
12623SOL    HW239767   1.588   2.655   5.175
12624SOL     OW39768   2.792   0.401   2.174
12624SOL    HW139769   2.763   0.363   2.091
12624SOL    HW239770   2.871   0.450   2.151
12625SOL     OW39771   0.600   4.722  14.432
12625SOL    HW139772   0.601   4.627  14.444
12625SOL    HW239773   0.580   4.733  14.339
12626SOL     OW39774   3.785   0.641   9.045
12626SOL    HW139775   3.693   0.633   9.067
12626SOL    HW239776   3.786   0.705   8.973
12627SOL     OW39777   1.893   2.825   3.284
12627SOL    HW139778   1.912   2.828   3.378
12627SOL    HW239779   1.968   2.869   3.243
12628SOL     OW39780   4.628   7.364  13.621
12628SOL    HW139781   4.677   7.301  13.568
12628SOL    HW239782   4.693   7.400  13.681
12629SOL     OW39783   2.451   4.196  12.642
12629SOL    HW139784   2.393   4.145  12.699
12629SOL    HW239785   2.423   4.287  12.654
12630SOL     OW39786   9.545   7.426  11.716
12630SOL    HW139787   9.493   7.367  11.769
12630SOL    HW239788   9.603   7.470  11.778
12631SOL     OW39789   8.481   6.303   2.278
12631SOL    HW139790   8.499   6.293   2.372
12631SOL    HW239791   8.520   6.388   2.256
12632SOL     OW39792   8.332  10.378   5.947
12632SOL    HW139793   8.281  10.382   5.866
12632SOL    HW239794   8.320  10.288   5.978
12633SOL     OW39795   2.257   2.700  12.673
12633SOL    HW139796   2.263   2.780  12.725
12633SOL    HW239797   2.342   2.693  12.630
12634SOL     OW39798   2.813   8.616   2.666
12634SOL    HW139799   2.763   8.683   2.711
12634SOL    HW239800   2.904   8.640   2.680
12635SOL     OW39801   5.058   5.425   2.413
12635SOL    HW139802   5.096   5.510   2.392
12635SOL    HW239803   5.114   5.390   2.482
12636SOL     OW39804   1.527  11.959   0.795
12636SOL    HW139805   1.437  11.935   0.816
12636SOL    HW239806   1.518  12.038   0.741
12637SOL     OW39807   5.262  11.108   4.428
12637SOL    HW139808   5.341  11.093   4.480
12637SOL    HW239809   5.192  11.118   4.493
12638SOL     OW39810  13.723   5.496   9.480
12638SOL    HW139811  13.767   5.543   9.551
12638SOL    HW239812  13.769   5.412   9.474
12639SOL     OW39813   7.560   0.876  10.199
12639SOL    HW139814   7.602   0.961  10.208
12639SOL    HW239815   7.551   0.844  10.289
12640SOL     OW39816   1.569   4.993   2.288
12640SOL    HW139817   1.529   4.907   2.277
12640SOL    HW239818   1.572   5.030   2.200
12641SOL     OW39819   4.369  11.630  12.160
12641SOL    HW139820   4.346  11.588  12.077
12641SOL    HW239821   4.320  11.712  12.160
12642SOL     OW39822  12.765   1.093   1.890
12642SOL    HW139823  12.817   1.022   1.853
12642SOL    HW239824  12.791   1.096   1.982
12643SOL     OW39825  14.584   6.854   3.824
12643SOL    HW139826  14.512   6.834   3.764
12643SOL    HW239827  14.591   6.949   3.822
12644SOL     OW39828   5.327   0.167  12.465
12644SOL    HW139829   5.236   0.138  12.456
12644SOL    HW239830   5.328   0.218  12.547
12645SOL     OW39831   8.873   8.206   7.652
12645SOL    HW139832   8.849   8.200   7.559
12645SOL    HW239833   8.803   8.257   7.692
12646SOL     OW39834  10.511  13.172  14.634
12646SOL    HW139835  10.518  13.231  14.558
12646SOL    HW239836  10.452  13.103  14.604
12647SOL     OW39837   7.940   8.181   4.887
12647SOL    HW139838   7.950   8.196   4.793
12647SOL    HW239839   8.028   8.191   4.922
12648SOL     OW39840   7.089   9.544   5.395
12648SOL    HW139841   7.029   9.571   5.465
12648SOL    HW239842   7.040   9.557   5.315
12649SOL     OW39843  14.572  14.428   0.452
12649SOL    HW139844  14.656  14.388   0.477
12649SOL    HW239845  14.596  14.499   0.392
12650SOL     OW39846  14.490   9.656  12.684
12650SOL    HW139847  14.405   9.697  12.666
12650SOL    HW239848  14.538   9.664  12.602
12651SOL     OW39849  12.451  13.863   1.030
12651SOL    HW139850  12.478  13.785   0.981
12651SOL    HW239851  12.533  13.899   1.065
12652SOL     OW39852  11.891   9.250   0.003
12652SOL    HW139853  11.949   9.220   0.073
12652SOL    HW239854  11.950   9.262  14.799
12653SOL     OW39855   4.591   0.216   4.188
12653SOL    HW139856   4.557   0.289   4.240
12653SOL    HW239857   4.564   0.138   4.236
12654SOL     OW39858  10.031  12.649   1.390
12654SOL    HW139859  10.082  12.568   1.391
12654SOL    HW239860  10.090  12.714   1.350
12655SOL     OW39861   3.179   0.535   8.236
12655SOL    HW139862   3.176   0.525   8.331
12655SOL    HW239863   3.212   0.451   8.203
12656SOL     OW39864   0.018   6.802   7.991
12656SOL    HW139865  14.846   6.757   8.064
12656SOL    HW239866   0.011   6.742   7.918
12657SOL     OW39867   6.096  11.104   0.110
12657SOL    HW139868   6.132  11.128   0.195
12657SOL    HW239869   6.134  11.018   0.091
12658SOL     OW39870  10.391   1.837  10.524
12658SOL    HW139871  10.430   1.809  10.606
12658SOL    HW239872  10.399   1.933  10.525
12659SOL     OW39873  10.370  10.572   4.792
12659SOL    HW139874  10.436  10.509   4.765
12659SOL    HW239875  10.410  10.617   4.867
12660SOL     OW39876  10.665  11.565   0.422
12660SOL    HW139877  10.710  11.631   0.369
12660SOL    HW239878  10.650  11.492   0.361
12661SOL     OW39879   7.623   1.758   0.607
12661SOL    HW139880   7.596   1.831   0.662
12661SOL    HW239881   7.562   1.758   0.534
12662SOL     OW39882  11.832   9.634  13.303
12662SOL    HW139883  11.833   9.729  13.295
12662SOL    HW239884  11.899   9.615  13.369
12663SOL     OW39885   5.453   7.971   7.559
12663SOL    HW139886   5.500   8.016   7.629
12663SOL    HW239887   5.501   7.889   7.546
12664SOL     OW39888  14.564  14.015   7.005
12664SOL    HW139889  14.540  14.044   6.917
12664SOL    HW239890  14.514  13.934   7.017
12665SOL     OW39891   6.988   2.451   9.739
12665SOL    HW139892   6.979   2.539   9.703
12665SOL    HW239893   6.987   2.394   9.662
12666SOL     OW39894   9.710  10.016   4.503
12666SOL    HW139895   9.751  10.100   4.523
12666SOL    HW239896   9.655  10.033   4.427
12667SOL     OW39897   8.223   1.165   2.635
12667SOL    HW139898   8.304   1.214   2.630
12667SOL    HW239899   8.173   1.191   2.558
12668SOL     OW39900   1.969   9.071  13.858
12668SOL    HW139901   1.971   9.077  13.954
12668SOL    HW239902   1.885   9.029  13.839
12669SOL     OW39903  13.198   2.029   8.359
12669SOL    HW139904  13.240   2.108   8.392
12669SOL    HW239905  13.105   2.048   8.361
12670SOL     OW39906   9.518  13.507   6.281
12670SOL    HW139907   9.598  13.493   6.332
12670SOL    HW239908   9.464  13.430   6.299
12671SOL     OW39909  12.997   9.365   3.289
12671SOL    HW139910  13.082   9.405   3.272
12671SOL    HW239911  12.943   9.391   3.214
12672SOL     OW39912   6.620  11.734  13.096
12672SOL    HW139913   6.633  11.642  13.122
12672SOL    HW239914   6.601  11.729  13.003
12673SOL     OW39915  13.165   9.990  10.461
12673SOL    HW139916  13.124   9.958  10.381
12673SOL    HW239917  13.097  10.042  10.504
12674SOL     OW39918   3.472   4.483   2.468
12674SOL    HW139919   3.492   4.390   2.464
12674SOL    HW239920   3.522   4.522   2.396
12675SOL     OW39921   9.234   8.606  10.619
12675SOL    HW139922   9.270   8.639  10.536
12675SOL    HW239923   9.140   8.597  10.603
12676SOL     OW39924   3.590  12.386  11.787
12676SOL    HW139925   3.581  12.291  11.794
12676SOL    HW239926   3.684  12.401  11.795
12677SOL     OW39927   5.990  14.624  13.812
12677SOL    HW139928   5.905  14.626  13.768
12677SOL    HW239929   6.036  14.550  13.773
12678SOL     OW39930   1.358   2.279   8.143
12678SOL    HW139931   1.370   2.357   8.088
12678SOL    HW239932   1.402   2.209   8.094
12679SOL     OW39933   2.898   7.072   7.870
12679SOL    HW139934   2.841   7.065   7.946
12679SOL    HW239935   2.949   6.992   7.870
12680SOL     OW39936   5.562   3.294   7.118
12680SOL    HW139937   5.631   3.337   7.169
12680SOL    HW239938   5.609   3.240   7.055
12681SOL     OW39939   1.665  11.342   9.439
12681SOL    HW139940   1.692  11.251   9.431
12681SOL    HW239941   1.598  11.342   9.507
12682SOL     OW39942   0.191   6.508   1.212
12682SOL    HW139943   0.163   6.518   1.303
12682SOL    HW239944   0.285   6.528   1.215
12683SOL     OW39945   9.406   6.843  11.817
12683SOL    HW139946   9.384   6.776  11.882
12683SOL    HW239947   9.340   6.911  11.829
12684SOL     OW39948   9.614  11.696  11.455
12684SOL    HW139949   9.566  11.622  11.417
12684SOL    HW239950   9.689  11.656  11.499
12685SOL     OW39951   3.713  12.564   2.936
12685SOL    HW139952   3.736  12.478   2.970
12685SOL    HW239953   3.697  12.549   2.842
12686SOL     OW39954   0.240  11.272  12.725
12686SOL    HW139955   0.309  11.227  12.773
12686SOL    HW239956   0.211  11.342  12.784
12687SOL     OW39957  11.106  14.246   9.835
12687SOL    HW139958  11.031  14.240   9.777
12687SOL    HW239959  11.093  14.176   9.899
12688SOL     OW39960   1.122  11.723  12.209
12688SOL    HW139961   1.045  11.689  12.164
12688SOL    HW239962   1.125  11.815  12.185
12689SOL     OW39963   3.131   0.995   5.973
12689SOL    HW139964   3.115   0.933   5.902
12689SOL    HW239965   3.215   1.035   5.951
12690SOL     OW39966   8.644   0.893   6.045
12690SOL    HW139967   8.671   0.803   6.033
12690SOL    HW239968   8.637   0.928   5.956
12691SOL     OW39969   9.194   0.412   8.578
12691SOL    HW139970   9.220   0.377   8.493
12691SOL    HW239971   9.267   0.469   8.603
12692SOL     OW39972   5.817   1.540   3.430
12692SOL    HW139973   5.818   1.455   3.385
12692SOL    HW239974   5.762   1.526   3.507
12693SOL     OW39975   9.295  12.921   4.688
12693SOL    HW139976   9.244  12.846   4.654
12693SOL    HW239977   9.304  12.903   4.781
12694SOL     OW39978   4.686  14.177   6.303
12694SOL    HW139979   4.738  14.203   6.380
12694SOL    HW239980   4.615  14.241   6.300
12695SOL     OW39981   1.074  14.585   4.962
12695SOL    HW139982   1.004  14.605   4.901
12695SOL    HW239983   1.082  14.490   4.960
12696SOL     OW39984   5.305  10.261   3.770
12696SOL    HW139985   5.258  10.239   3.689
12696SOL    HW239986   5.266  10.343   3.799
12697SOL     OW39987   2.659   4.626   0.477
12697SOL    HW139988   2.647   4.697   0.415
12697SOL    HW239989   2.744   4.589   0.455
12698SOL     OW39990   0.650  11.306   1.357
12698SOL    HW139991   0.740  11.276   1.353
12698SOL    HW239992   0.636  11.350   1.273
12699SOL     OW39993   3.130   9.622  10.371
12699SOL    HW139994   3.093   9.538  10.345
12699SOL    HW239995   3.070   9.687  10.335
12700SOL     OW39996   1.823  13.022  11.806
12700SOL    HW139997   1.737  12.980  11.802
12700SOL    HW239998   1.884  12.956  11.774
12701SOL     OW39999   0.768  11.571   2.807
12701SOL    HW140000   0.791  11.650   2.757
12701SOL    HW240001   0.851  11.528   2.824
12702SOL     OW40002  14.833  10.880  12.983
12702SOL    HW140003  14.777  10.957  12.975
12702SOL    HW240004  14.820  10.832  12.901
12703SOL     OW40005  11.442   1.731   1.581
12703SOL    HW140006  11.438   1.672   1.655
12703SOL    HW240007  11.426   1.818   1.618
12704SOL     OW40008   4.012   8.880   1.906
12704SOL    HW140009   3.927   8.899   1.945
12704SOL    HW240010   4.074   8.929   1.960
12705SOL     OW40011   3.108  10.626  10.276
12705SOL    HW140012   3.150  10.581  10.349
12705SOL    HW240013   3.140  10.582  10.198
12706SOL     OW40014  13.752   4.907  12.017
12706SOL    HW140015  13.733   4.843  11.949
12706SOL    HW240016  13.727   4.991  11.978
12707SOL     OW40017   3.436  10.549  11.004
12707SOL    HW140018   3.468  10.510  11.085
12707SOL    HW240019   3.401  10.475  10.954
12708SOL     OW40020   2.143   9.073   0.272
12708SOL    HW140021   2.062   9.032   0.243
12708SOL    HW240022   2.162   9.139   0.206
12709SOL     OW40023   4.938   2.375   0.584
12709SOL    HW140024   4.964   2.295   0.630
12709SOL    HW240025   4.887   2.424   0.649
12710SOL     OW40026   5.703   0.310  10.897
12710SOL    HW140027   5.635   0.299  10.963
12710SOL    HW240028   5.767   0.241  10.917
12711SOL     OW40029  10.865   7.048  14.526
12711SOL    HW140030  10.871   6.955  14.501
12711SOL    HW240031  10.956   7.077  14.532
12712SOL     OW40032   7.842  13.043   8.815
12712SOL    HW140033   7.865  13.089   8.896
12712SOL    HW240034   7.914  13.064   8.755
12713SOL     OW40035  10.517   3.960   2.729
12713SOL    HW140036  10.539   4.014   2.653
12713SOL    HW240037  10.508   4.022   2.801
12714SOL     OW40038   4.180  10.212   8.461
12714SOL    HW140039   4.222  10.203   8.376
12714SOL    HW240040   4.227  10.149   8.517
12715SOL     OW40041   2.273   4.930  11.484
12715SOL    HW140042   2.289   4.897  11.396
12715SOL    HW240043   2.350   4.982  11.505
12716SOL     OW40044   3.616  10.227  11.057
12716SOL    HW140045   3.594  10.206  10.966
12716SOL    HW240046   3.593  10.149  11.107
12717SOL     OW40047   4.589   0.328  14.503
12717SOL    HW140048   4.681   0.322  14.528
12717SOL    HW240049   4.542   0.283  14.573
12718SOL     OW40050   1.973   6.119  11.573
12718SOL    HW140051   2.015   6.033  11.582
12718SOL    HW240052   2.000   6.150  11.487
12719SOL     OW40053  12.151   8.728  11.901
12719SOL    HW140054  12.216   8.775  11.848
12719SOL    HW240055  12.068   8.771  11.881
12720SOL     OW40056  12.099   6.167  11.377
12720SOL    HW140057  12.089   6.084  11.424
12720SOL    HW240058  12.192   6.188  11.385
12721SOL     OW40059   0.177  14.587  12.544
12721SOL    HW140060   0.088  14.570  12.513
12721SOL    HW240061   0.186  14.683  12.542
12722SOL     OW40062  11.139   7.009   5.289
12722SOL    HW140063  11.195   6.993   5.213
12722SOL    HW240064  11.119   7.102   5.285
12723SOL     OW40065   2.649  10.401   5.348
12723SOL    HW140066   2.586  10.329   5.345
12723SOL    HW240067   2.596  10.480   5.340
12724SOL     OW40068  14.860   6.868   2.520
12724SOL    HW140069   0.058   6.915   2.474
12724SOL    HW240070   0.002   6.776   2.497
12725SOL     OW40071  11.212   9.213  14.589
12725SOL    HW140072  11.257   9.274  14.649
12725SOL    HW240073  11.280   9.188  14.526
12726SOL     OW40074   9.732   7.489   0.672
12726SOL    HW140075   9.738   7.487   0.577
12726SOL    HW240076   9.819   7.465   0.703
12727SOL     OW40077   8.187  13.631   6.004
12727SOL    HW140078   8.150  13.557   5.956
12727SOL    HW240079   8.207  13.696   5.937
12728SOL     OW40080  14.643  14.454  13.342
12728SOL    HW140081  14.584  14.393  13.298
12728SOL    HW240082  14.665  14.519  13.275
12729SOL     OW40083   9.981   0.868  11.820
12729SOL    HW140084  10.040   0.823  11.880
12729SOL    HW240085  10.002   0.833  11.734
12730SOL     OW40086  13.201   6.203   3.612
12730SOL    HW140087  13.204   6.286   3.565
12730SOL    HW240088  13.189   6.227   3.704
12731SOL     OW40089   7.662  12.614  14.337
12731SOL    HW140090   7.713  12.651  14.409
12731SOL    HW240091   7.719  12.621  14.260
12732SOL     OW40092   0.691   5.578   2.939
12732SOL    HW140093   0.651   5.628   3.010
12732SOL    HW240094   0.617   5.552   2.883
12733SOL     OW40095   1.245   2.553   4.134
12733SOL    HW140096   1.246   2.647   4.116
12733SOL    HW240097   1.317   2.539   4.195
12734SOL     OW40098   1.394   3.375   8.871
12734SOL    HW140099   1.384   3.412   8.958
12734SOL    HW240100   1.305   3.347   8.847
12735SOL     OW40101   0.176  14.094   9.350
12735SOL    HW140102   0.124  14.037   9.406
12735SOL    HW240103   0.119  14.170   9.333
12736SOL     OW40104   9.141   6.038   6.946
12736SOL    HW140105   9.232   6.056   6.920
12736SOL    HW240106   9.110   6.120   6.984
12737SOL     OW40107   7.300   7.510  14.146
12737SOL    HW140108   7.264   7.482  14.061
12737SOL    HW240109   7.391   7.533  14.127
12738SOL     OW40110   2.121  14.849   6.088
12738SOL    HW140111   2.102  14.758   6.065
12738SOL    HW240112   2.213  14.850   6.112
12739SOL     OW40113   5.895   0.812  11.865
12739SOL    HW140114   5.898   0.865  11.945
12739SOL    HW240115   5.919   0.872  11.795
12740SOL     OW40116   0.243   0.033   6.276
12740SOL    HW140117   0.170  14.851   6.306
12740SOL    HW240118   0.267   0.086   6.353
12741SOL     OW40119   8.885  13.934   9.310
12741SOL    HW140120   8.859  13.859   9.256
12741SOL    HW240121   8.827  14.005   9.283
12742SOL     OW40122  10.614   4.445   9.218
12742SOL    HW140123  10.618   4.369   9.276
12742SOL    HW240124  10.647   4.413   9.134
12743SOL     OW40125   4.762  14.506   3.749
12743SOL    HW140126   4.801  14.475   3.667
12743SOL    HW240127   4.679  14.460   3.755
12744SOL     OW40128  10.862   6.385   0.538
12744SOL    HW140129  10.930   6.338   0.585
12744SOL    HW240130  10.863   6.473   0.576
12745SOL     OW40131   1.493   1.915   5.506
12745SOL    HW140132   1.401   1.896   5.486
12745SOL    HW240133   1.521   1.972   5.434
12746SOL     OW40134  12.307   1.970   5.187
12746SOL    HW140135  12.329   1.901   5.125
12746SOL    HW240136  12.254   2.032   5.137
12747SOL     OW40137  13.338  13.382  13.060
12747SOL    HW140138  13.361  13.369  13.152
12747SOL    HW240139  13.414  13.351  13.011
12748SOL     OW40140   0.418   7.567   8.800
12748SOL    HW140141   0.375   7.482   8.805
12748SOL    HW240142   0.380   7.608   8.722
12749SOL     OW40143  10.632  11.399   9.947
12749SOL    HW140144  10.621  11.386  10.041
12749SOL    HW240145  10.724  11.376   9.931
12750SOL     OW40146   3.745  10.370   0.363
12750SOL    HW140147   3.827  10.333   0.396
12750SOL    HW240148   3.683  10.298   0.364
12751SOL     OW40149  11.312  11.903  12.554
12751SOL    HW140150  11.292  11.833  12.616
12751SOL    HW240151  11.375  11.958  12.599
12752SOL     OW40152   4.533   1.836  13.293
12752SOL    HW140153   4.618   1.838  13.338
12752SOL    HW240154   4.552   1.796  13.208
12753SOL     OW40155   7.856   9.960   6.887
12753SOL    HW140156   7.913   9.904   6.835
12753SOL    HW240157   7.854  10.043   6.840
12754SOL     OW40158   2.321   8.324   4.474
12754SOL    HW140159   2.380   8.391   4.441
12754SOL    HW240160   2.373   8.277   4.540
12755SOL     OW40161   4.837   5.858   0.286
12755SOL    HW140162   4.760   5.904   0.319
12755SOL    HW240163   4.840   5.776   0.335
12756SOL     OW40164   0.624   5.646   3.193
12756SOL    HW140165   0.624   5.578   3.261
12756SOL    HW240166   0.538   5.687   3.200
12757SOL     OW40167  10.623   1.065   9.932
12757SOL    HW140168  10.629   1.033   9.842
12757SOL    HW240169  10.536   1.106   9.937
12758SOL     OW40170  10.229   1.961  12.562
12758SOL    HW140171  10.173   2.025  12.605
12758SOL    HW240172  10.284   1.926  12.633
12759SOL     OW40173   0.984  10.813  11.483
12759SOL    HW140174   1.028  10.813  11.568
12759SOL    HW240175   0.972  10.905  11.462
12760SOL     OW40176   9.531  14.492   3.937
12760SOL    HW140177   9.455  14.550   3.935
12760SOL    HW240178   9.605  14.551   3.949
12761SOL     OW40179  14.026   9.040  13.494
12761SOL    HW140180  14.072   9.124  13.493
12761SOL    HW240181  14.073   8.986  13.430
12762SOL     OW40182   7.386   8.521   2.779
12762SOL    HW140183   7.388   8.606   2.734
12762SOL    HW240184   7.419   8.458   2.715
12763SOL     OW40185  12.159  14.228  12.629
12763SOL    HW140186  12.168  14.206  12.536
12763SOL    HW240187  12.244  14.205  12.667
12764SOL     OW40188   6.056   6.888   0.395
12764SOL    HW140189   6.121   6.858   0.458
12764SOL    HW240190   5.977   6.839   0.417
12765SOL     OW40191   5.491   6.346   6.499
12765SOL    HW140192   5.452   6.396   6.570
12765SOL    HW240193   5.416   6.308   6.453
12766SOL     OW40194   3.422   9.510  13.011
12766SOL    HW140195   3.511   9.540  13.027
12766SOL    HW240196   3.426   9.463  12.928
12767SOL     OW40197   8.831   9.064  10.538
12767SOL    HW140198   8.780   9.106  10.607
12767SOL    HW240199   8.778   8.990  10.510
12768SOL     OW40200   3.697   1.692   8.912
12768SOL    HW140201   3.753   1.757   8.953
12768SOL    HW240202   3.627   1.742   8.871
12769SOL     OW40203   4.178   7.050  10.215
12769SOL    HW140204   4.116   7.104  10.165
12769SOL    HW240205   4.127   6.973  10.241
12770SOL     OW40206  13.127  11.336   4.103
12770SOL    HW140207  13.196  11.270   4.095
12770SOL    HW240208  13.054  11.289   4.143
12771SOL     OW40209   5.493  14.742  10.451
12771SOL    HW140210   5.433  14.786  10.511
12771SOL    HW240211   5.437  14.681  10.402
12772SOL     OW40212   9.329   9.120   5.864
12772SOL    HW140213   9.343   9.214   5.873
12772SOL    HW240214   9.413   9.086   5.834
12773SOL     OW40215   9.099   9.899   1.653
12773SOL    HW140216   9.120   9.938   1.738
12773SOL    HW240217   9.003   9.896   1.651
12774SOL     OW40218   5.105   3.631   7.251
12774SOL    HW140219   5.054   3.696   7.299
12774SOL    HW240220   5.177   3.610   7.310
12775SOL     OW40221   8.351   2.453  14.124
12775SOL    HW140222   8.301   2.404  14.189
12775SOL    HW240223   8.316   2.542  14.130
12776SOL     OW40224  13.828  11.854   5.735
12776SOL    HW140225  13.901  11.843   5.674
12776SOL    HW240226  13.870  11.857   5.821
12777SOL     OW40227   6.992   7.175   4.892
12777SOL    HW140228   7.016   7.086   4.919
12777SOL    HW240229   6.959   7.165   4.803
12778SOL     OW40230   4.178   3.654   3.461
12778SOL    HW140231   4.224   3.676   3.380
12778SOL    HW240232   4.247   3.624   3.520
12779SOL     OW40233   6.924  10.553   4.281
12779SOL    HW140234   6.859  10.600   4.228
12779SOL    HW240235   6.995  10.616   4.291
12780SOL     OW40236  14.058   0.916  11.336
12780SOL    HW140237  14.020   0.935  11.422
12780SOL    HW240238  14.002   0.848  11.299
12781SOL     OW40239   5.272  13.276  13.012
12781SOL    HW140240   5.247  13.191  12.974
12781SOL    HW240241   5.262  13.338  12.940
12782SOL     OW40242   6.030   3.625  14.616
12782SOL    HW140243   6.020   3.654  14.526
12782SOL    HW240244   6.052   3.704  14.665
12783SOL     OW40245   5.737   1.994   6.813
12783SOL    HW140246   5.696   2.027   6.893
12783SOL    HW240247   5.768   1.906   6.836
12784SOL     OW40248   1.364  12.341   7.686
12784SOL    HW140249   1.326  12.330   7.773
12784SOL    HW240250   1.321  12.419   7.650
12785SOL     OW40251   6.820   5.751  10.731
12785SOL    HW140252   6.805   5.725  10.822
12785SOL    HW240253   6.876   5.683  10.695
12786SOL     OW40254   2.893  11.178   3.567
12786SOL    HW140255   2.904  11.121   3.491
12786SOL    HW240256   2.820  11.139   3.616
12787SOL     OW40257   9.757   4.653   5.185
12787SOL    HW140258   9.678   4.682   5.230
12787SOL    HW240259   9.815   4.728   5.188
12788SOL     OW40260   9.982   7.884  10.236
12788SOL    HW140261  10.067   7.924  10.221
12788SOL    HW240262  10.001   7.803  10.283
12789SOL     OW40263   5.890  12.902   7.316
12789SOL    HW140264   5.948  12.871   7.386
12789SOL    HW240265   5.845  12.977   7.353
12790SOL     OW40266   9.146   1.429  13.195
12790SOL    HW140267   9.184   1.459  13.278
12790SOL    HW240268   9.166   1.336  13.191
12791SOL     OW40269   1.731   4.954  12.297
12791SOL    HW140270   1.751   4.861  12.306
12791SOL    HW240271   1.814   4.998  12.314
12792SOL     OW40272   1.926  10.713   3.483
12792SOL    HW140273   1.862  10.669   3.427
12792SOL    HW240274   2.010  10.671   3.462
12793SOL     OW40275   7.844   4.067  13.524
12793SOL    HW140276   7.889   4.094  13.444
12793SOL    HW240277   7.812   4.149  13.562
12794SOL     OW40278   6.084   4.487   4.681
12794SOL    HW140279   5.991   4.506   4.688
12794SOL    HW240280   6.124   4.571   4.659
12795SOL     OW40281  14.450  12.046  13.138
12795SOL    HW140282  14.519  11.985  13.111
12795SOL    HW240283  14.459  12.052  13.233
12796SOL     OW40284  14.291   6.193   3.421
12796SOL    HW140285  14.377   6.230   3.403
12796SOL    HW240286  14.231   6.243   3.366
12797SOL     OW40287  11.850   2.337   6.784
12797SOL    HW140288  11.781   2.284   6.743
12797SOL    HW240289  11.886   2.281   6.852
12798SOL     OW40290  12.359   3.827  12.733
12798SOL    HW140291  12.276   3.818  12.780
12798SOL    HW240292  12.353   3.912  12.689
12799SOL     OW40293   9.750   2.060  10.858
12799SOL    HW140294   9.813   2.123  10.825
12799SOL    HW240295   9.766   1.981  10.808
12800SOL     OW40296  10.380   3.493  14.854
12800SOL    HW140297  10.464   3.483  14.808
12800SOL    HW240298  10.389   3.438   0.061
12801SOL     OW40299   1.939   5.255   6.287
12801SOL    HW140300   2.003   5.287   6.224
12801SOL    HW240301   1.872   5.211   6.235
12802SOL     OW40302   0.106   3.087  13.933
12802SOL    HW140303   0.187   3.128  13.903
12802SOL    HW240304   0.118   3.075  14.027
12803SOL     OW40305   5.632   2.905   8.425
12803SOL    HW140306   5.647   2.834   8.361
12803SOL    HW240307   5.541   2.894   8.451
12804SOL     OW40308   5.942   4.073   8.073
12804SOL    HW140309   5.867   4.022   8.041
12804SOL    HW240310   5.910   4.163   8.075
12805SOL     OW40311   3.761  14.540  13.412
12805SOL    HW140312   3.840  14.593  13.412
12805SOL    HW240313   3.751  14.512  13.321
12806SOL     OW40314  14.409  11.528   4.274
12806SOL    HW140315  14.333  11.563   4.227
12806SOL    HW240316  14.378  11.445   4.311
12807SOL     OW40317  11.811   9.395  12.074
12807SOL    HW140318  11.835   9.338  12.001
12807SOL    HW240319  11.802   9.482  12.035
12808SOL     OW40320   6.123  11.201   5.703
12808SOL    HW140321   6.087  11.115   5.722
12808SOL    HW240322   6.102  11.253   5.780
12809SOL     OW40323   2.539   8.239  14.575
12809SOL    HW140324   2.581   8.200  14.499
12809SOL    HW240325   2.486   8.310  14.539
12810SOL     OW40326  14.317  13.696  11.792
12810SOL    HW140327  14.409  13.722  11.787
12810SOL    HW240328  14.300  13.688  11.886
12811SOL     OW40329   7.689   0.796   2.452
12811SOL    HW140330   7.684   0.742   2.373
12811SOL    HW240331   7.663   0.884   2.423
12812SOL     OW40332   0.890   1.194  10.147
12812SOL    HW140333   0.801   1.160  10.158
12812SOL    HW240334   0.910   1.178  10.055
12813SOL     OW40335   6.671   2.134  13.974
12813SOL    HW140336   6.629   2.181  13.901
12813SOL    HW240337   6.729   2.199  14.014
12814SOL     OW40338   1.396   1.647   5.903
12814SOL    HW140339   1.464   1.638   5.970
12814SOL    HW240340   1.441   1.689   5.829
12815SOL     OW40341   5.443   9.455   9.801
12815SOL    HW140342   5.413   9.484   9.887
12815SOL    HW240343   5.441   9.359   9.806
12816SOL     OW40344   3.848  10.224   2.528
12816SOL    HW140345   3.858  10.184   2.614
12816SOL    HW240346   3.926  10.278   2.519
12817SOL     OW40347  10.425   4.131   8.189
12817SOL    HW140348  10.359   4.135   8.119
12817SOL    HW240349  10.490   4.197   8.164
12818SOL     OW40350   4.549   3.960   1.557
12818SOL    HW140351   4.632   3.999   1.585
12818SOL    HW240352   4.524   3.903   1.630
12819SOL     OW40353   3.430   2.028  12.802
12819SOL    HW140354   3.390   2.083  12.735
12819SOL    HW240355   3.361   2.015  12.867
12820SOL     OW40356  10.296   5.261   5.359
12820SOL    HW140357  10.201   5.253   5.350
12820SOL    HW240358  10.310   5.354   5.377
12821SOL     OW40359   2.486   8.096   7.466
12821SOL    HW140360   2.399   8.110   7.429
12821SOL    HW240361   2.547   8.116   7.395
12822SOL     OW40362   4.341   1.213  14.301
12822SOL    HW140363   4.435   1.204  14.285
12822SOL    HW240364   4.322   1.153  14.372
12823SOL     OW40365  14.099  13.435   4.166
12823SOL    HW140366  14.077  13.346   4.140
12823SOL    HW240367  14.124  13.478   4.084
12824SOL     OW40368   2.560  12.091   9.632
12824SOL    HW140369   2.472  12.073   9.598
12824SOL    HW240370   2.545  12.129   9.718
12825SOL     OW40371  11.766  11.466  12.693
12825SOL    HW140372  11.782  11.416  12.773
12825SOL    HW240373  11.791  11.408  12.622
12826SOL     OW40374   8.524   8.793   9.224
12826SOL    HW140375   8.513   8.881   9.188
12826SOL    HW240376   8.572   8.808   9.306
12827SOL     OW40377   8.378   5.078  13.481
12827SOL    HW140378   8.311   5.106  13.419
12827SOL    HW240379   8.360   4.985  13.496
12828SOL     OW40380   2.176  14.295  14.180
12828SOL    HW140381   2.146  14.385  14.196
12828SOL    HW240382   2.229  14.302  14.101
12829SOL     OW40383  10.859   7.158   7.950
12829SOL    HW140384  10.878   7.239   7.902
12829SOL    HW240385  10.944   7.116   7.959
12830SOL     OW40386  10.967  13.068   4.089
12830SOL    HW140387  10.961  13.083   4.183
12830SOL    HW240388  10.922  12.984   4.075
12831SOL     OW40389   1.984  14.211   8.963
12831SOL    HW140390   1.942  14.141   8.912
12831SOL    HW240391   2.001  14.280   8.898
12832SOL     OW40392   2.139  10.226   7.868
12832SOL    HW140393   2.120  10.132   7.866
12832SOL    HW240394   2.113  10.258   7.782
12833SOL     OW40395   4.173  13.375   5.023
12833SOL    HW140396   4.126  13.363   5.105
12833SOL    HW240397   4.120  13.438   4.974
12834SOL     OW40398   4.171   4.666  10.976
12834SOL    HW140399   4.225   4.607  10.922
12834SOL    HW240400   4.230   4.737  11.000
12835SOL     OW40401   1.165  10.697   9.590
12835SOL    HW140402   1.238  10.706   9.529
12835SOL    HW240403   1.202  10.720   9.676
12836SOL     OW40404   2.706   9.996  13.324
12836SOL    HW140405   2.660   9.925  13.369
12836SOL    HW240406   2.647  10.022  13.253
12837SOL     OW40407   0.288   0.842  12.711
12837SOL    HW140408   0.311   0.758  12.750
12837SOL    HW240409   0.223   0.821  12.644
12838SOL     OW40410   5.201  10.542   2.679
12838SOL    HW140411   5.240  10.508   2.759
12838SOL    HW240412   5.205  10.638   2.689
12839SOL     OW40413   1.946   1.696   0.075
12839SOL    HW140414   1.975   1.610   0.047
12839SOL    HW240415   2.014   1.756   0.046
12840SOL     OW40416   7.592  14.441  12.814
12840SOL    HW140417   7.533  14.424  12.887
12840SOL    HW240418   7.679  14.432  12.851
12841SOL     OW40419  11.531  14.630   6.588
12841SOL    HW140420  11.435  14.626   6.583
12841SOL    HW240421  11.557  14.543   6.617
12842SOL     OW40422  11.242   4.637   1.982
12842SOL    HW140423  11.237   4.718   2.034
12842SOL    HW240424  11.301   4.581   2.032
12843SOL     OW40425   2.452   7.512  13.927
12843SOL    HW140426   2.470   7.595  13.972
12843SOL    HW240427   2.459   7.446  13.996
12844SOL     OW40428   8.160   0.244   8.142
12844SOL    HW140429   8.183   0.199   8.223
12844SOL    HW240430   8.243   0.268   8.103
12845SOL     OW40431   2.456   8.534   8.246
12845SOL    HW140432   2.521   8.594   8.283
12845SOL    HW240433   2.445   8.466   8.313
12846SOL     OW40434   4.187   8.564  11.787
12846SOL    HW140435   4.103   8.527  11.762
12846SOL    HW240436   4.195   8.545  11.881
12847SOL     OW40437  10.107   2.126   9.053
12847SOL    HW140438  10.129   2.219   9.059
12847SOL    HW240439  10.129   2.091   9.140
12848SOL     OW40440   1.644   3.715   6.217
12848SOL    HW140441   1.668   3.698   6.308
12848SOL    HW240442   1.722   3.756   6.179
12849SOL     OW40443  10.475   3.598  12.767
12849SOL    HW140444  10.408   3.536  12.796
12849SOL    HW240445  10.440   3.635  12.686
12850SOL     OW40446  12.451  13.846   5.004
12850SOL    HW140447  12.495  13.810   5.081
12850SOL    HW240448  12.386  13.906   5.040
12851SOL     OW40449  14.704   1.292   5.037
12851SOL    HW140450  14.757   1.243   5.100
12851SOL    HW240451  14.749   1.280   4.953
12852SOL     OW40452   3.750   0.673   5.149
12852SOL    HW140453   3.730   0.663   5.242
12852SOL    HW240454   3.719   0.591   5.109
12853SOL     OW40455   1.363   2.562   8.076
12853SOL    HW140456   1.297   2.566   8.146
12853SOL    HW240457   1.427   2.628   8.100
12854SOL     OW40458   4.277   7.145  11.175
12854SOL    HW140459   4.222   7.118  11.102
12854SOL    HW240460   4.337   7.209  11.137
12855SOL     OW40461   2.050  11.236   3.286
12855SOL    HW140462   2.019  11.145   3.290
12855SOL    HW240463   2.121  11.241   3.350
12856SOL     OW40464  14.793   0.439  11.532
12856SOL    HW140465  14.865   0.494  11.563
12856SOL    HW240466  14.817   0.417  11.442
12857SOL     OW40467   0.496   6.693   9.783
12857SOL    HW140468   0.404   6.691   9.756
12857SOL    HW240469   0.540   6.746   9.717
12858SOL     OW40470  14.083  10.209  10.782
12858SOL    HW140471  14.025  10.136  10.802
12858SOL    HW240472  14.091  10.257  10.865
12859SOL     OW40473   6.341   9.469  12.060
12859SOL    HW140474   6.389   9.531  12.115
12859SOL    HW240475   6.409   9.409  12.028
12860SOL     OW40476   8.679   9.801   7.825
12860SOL    HW140477   8.648   9.779   7.737
12860SOL    HW240478   8.639   9.734   7.882
12861SOL     OW40479   4.080  13.223   8.231
12861SOL    HW140480   4.044  13.158   8.292
12861SOL    HW240481   4.036  13.206   8.148
12862SOL     OW40482   6.556   1.967   3.017
12862SOL    HW140483   6.533   1.909   2.944
12862SOL    HW240484   6.519   2.052   2.993
12863SOL     OW40485  10.947  12.617  12.845
12863SOL    HW140486  10.982  12.579  12.926
12863SOL    HW240487  10.860  12.578  12.836
12864SOL     OW40488  10.614   3.071   9.612
12864SOL    HW140489  10.617   3.068   9.517
12864SOL    HW240490  10.544   3.010   9.636
12865SOL     OW40491   6.130   2.477  10.259
12865SOL    HW140492   6.175   2.429  10.329
12865SOL    HW240493   6.123   2.566  10.292
12866SOL     OW40494  11.068   6.538   4.267
12866SOL    HW140495  11.015   6.603   4.312
12866SOL    HW240496  11.101   6.481   4.336
12867SOL     OW40497   8.686   1.563   2.471
12867SOL    HW140498   8.592   1.571   2.485
12867SOL    HW240499   8.716   1.503   2.540
12868SOL     OW40500   9.109   3.906  13.451
12868SOL    HW140501   9.031   3.948  13.488
12868SOL    HW240502   9.177   3.973  13.459
12869SOL     OW40503   3.952   5.818   6.478
12869SOL    HW140504   3.897   5.865   6.415
12869SOL    HW240505   4.029   5.791   6.427
12870SOL     OW40506   4.154   1.299   6.502
12870SOL    HW140507   4.214   1.354   6.553
12870SOL    HW240508   4.071   1.347   6.502
12871SOL     OW40509  10.613   3.695   2.762
12871SOL    HW140510  10.593   3.788   2.762
12871SOL    HW240511  10.552   3.657   2.698
12872SOL     OW40512   9.268   8.537   9.292
12872SOL    HW140513   9.189   8.584   9.267
12872SOL    HW240514   9.306   8.507   9.209
12873SOL     OW40515   7.929   6.062   5.185
12873SOL    HW140516   7.912   6.126   5.116
12873SOL    HW240517   7.865   6.083   5.254
12874SOL     OW40518   6.061  10.458   3.925
12874SOL    HW140519   6.087  10.507   3.847
12874SOL    HW240520   6.105  10.503   3.997
12875SOL     OW40521   6.489  11.247   1.084
12875SOL    HW140522   6.426  11.314   1.108
12875SOL    HW240523   6.543  11.235   1.162
12876SOL     OW40524  14.349   3.598   1.249
12876SOL    HW140525  14.417   3.533   1.231
12876SOL    HW240526  14.363   3.623   1.340
12877SOL     OW40527  11.649   9.304   2.469
12877SOL    HW140528  11.563   9.314   2.429
12877SOL    HW240529  11.697   9.382   2.441
12878SOL     OW40530  12.958   8.225   5.068
12878SOL    HW140531  12.863   8.235   5.062
12878SOL    HW240532  12.972   8.177   5.149
12879SOL     OW40533  14.119   4.932   3.866
12879SOL    HW140534  14.174   5.010   3.869
12879SOL    HW240535  14.031   4.966   3.851
12880SOL     OW40536   8.973   5.854  12.966
12880SOL    HW140537   9.048   5.813  13.008
12880SOL    HW240538   8.957   5.934  13.017
12881SOL     OW40539  14.443   1.036  13.253
12881SOL    HW140540  14.368   0.981  13.229
12881SOL    HW240541  14.519   0.986  13.222
12882SOL     OW40542  14.428  11.698   9.475
12882SOL    HW140543  14.475  11.778   9.454
12882SOL    HW240544  14.431  11.646   9.395
12883SOL     OW40545   7.436  11.580   7.820
12883SOL    HW140546   7.387  11.503   7.850
12883SOL    HW240547   7.376  11.653   7.836
12884SOL     OW40548  11.697  10.096  11.385
12884SOL    HW140549  11.762  10.159  11.418
12884SOL    HW240550  11.686  10.120  11.293
12885SOL     OW40551   7.080  11.864   6.501
12885SOL    HW140552   7.136  11.788   6.487
12885SOL    HW240553   7.089  11.884   6.594
12886SOL     OW40554   3.295  12.780  14.080
12886SOL    HW140555   3.332  12.857  14.124
12886SOL    HW240556   3.342  12.774  13.997
12887SOL     OW40557   7.168  12.509  10.064
12887SOL    HW140558   7.082  12.483  10.031
12887SOL    HW240559   7.180  12.459  10.145
12888SOL     OW40560  10.620   2.677   5.910
12888SOL    HW140561  10.567   2.613   5.958
12888SOL    HW240562  10.562   2.751   5.896
12889SOL     OW40563   3.090   3.592   0.125
12889SOL    HW140564   3.043   3.531   0.069
12889SOL    HW240565   3.127   3.657   0.065
12890SOL     OW40566   7.847   4.342   8.095
12890SOL    HW140567   7.843   4.275   8.027
12890SOL    HW240568   7.813   4.299   8.173
12891SOL     OW40569  11.749   4.675  11.434
12891SOL    HW140570  11.804   4.602  11.465
12891SOL    HW240571  11.709   4.641  11.354
12892SOL     OW40572   7.606   5.915   5.941
12892SOL    HW140573   7.618   5.964   5.860
12892SOL    HW240574   7.514   5.930   5.965
12893SOL     OW40575  11.096  10.649  14.242
12893SOL    HW140576  11.048  10.732  14.229
12893SOL    HW240577  11.034  10.593  14.288
12894SOL     OW40578   3.089   8.367   8.647
12894SOL    HW140579   3.127   8.284   8.677
12894SOL    HW240580   3.039   8.398   8.723
12895SOL     OW40581   8.138  11.313   7.627
12895SOL    HW140582   8.154  11.336   7.535
12895SOL    HW240583   8.064  11.254   7.625
12896SOL     OW40584   2.259  11.930   8.076
12896SOL    HW140585   2.243  11.980   8.156
12896SOL    HW240586   2.352  11.939   8.059
12897SOL     OW40587  12.798   2.800   0.651
12897SOL    HW140588  12.797   2.876   0.592
12897SOL    HW240589  12.865   2.742   0.614
12898SOL     OW40590  12.001  11.017   3.731
12898SOL    HW140591  12.058  10.958   3.682
12898SOL    HW240592  12.003  11.099   3.681
12899SOL     OW40593   1.425   9.915  12.295
12899SOL    HW140594   1.330   9.906  12.292
12899SOL    HW240595   1.450   9.944  12.207
12900SOL     OW40596  10.382   3.836   5.311
12900SOL    HW140597  10.420   3.769   5.254
12900SOL    HW240598  10.288   3.818   5.309
12901SOL     OW40599   4.742   4.144  12.428
12901SOL    HW140600   4.735   4.131  12.523
12901SOL    HW240601   4.745   4.239  12.417
12902SOL     OW40602   3.450  12.675   3.006
12902SOL    HW140603   3.545  12.662   2.997
12902SOL    HW240604   3.441  12.742   3.073
12903SOL     OW40605   8.812   3.160   2.144
12903SOL    HW140606   8.863   3.121   2.072
12903SOL    HW240607   8.876   3.212   2.193
12904SOL     OW40608   0.903   6.440   9.142
12904SOL    HW140609   0.944   6.411   9.223
12904SOL    HW240610   0.859   6.522   9.166
12905SOL     OW40611  10.783   9.802   6.747
12905SOL    HW140612  10.813   9.733   6.806
12905SOL    HW240613  10.716   9.850   6.797
12906SOL     OW40614   6.476   5.653   2.449
12906SOL    HW140615   6.447   5.648   2.358
12906SOL    HW240616   6.476   5.563   2.480
12907SOL     OW40617   1.595   9.843  14.658
12907SOL    HW140618   1.632   9.888  14.581
12907SOL    HW240619   1.533   9.906  14.695
12908SOL     OW40620   1.127   9.735  14.712
12908SOL    HW140621   1.065   9.806  14.732
12908SOL    HW240622   1.204   9.780  14.678
12909SOL     OW40623   8.256   0.668   0.267
12909SOL    HW140624   8.335   0.715   0.242
12909SOL    HW240625   8.222   0.632   0.185
12910SOL     OW40626   0.688   8.802   2.719
12910SOL    HW140627   0.666   8.890   2.750
12910SOL    HW240628   0.653   8.743   2.786
12911SOL     OW40629   2.405   3.588  14.778
12911SOL    HW140630   2.417   3.526  14.850
12911SOL    HW240631   2.340   3.546  14.722
12912SOL     OW40632  13.353   8.729   1.479
12912SOL    HW140633  13.413   8.784   1.530
12912SOL    HW240634  13.394   8.643   1.477
12913SOL     OW40635  10.010   1.473  12.690
12913SOL    HW140636   9.930   1.420  12.684
12913SOL    HW240637  10.006   1.529  12.612
12914SOL     OW40638  10.236  13.643  10.949
12914SOL    HW140639  10.236  13.548  10.955
12914SOL    HW240640  10.178  13.672  11.019
12915SOL     OW40641   2.986   7.729   0.295
12915SOL    HW140642   2.989   7.658   0.360
12915SOL    HW240643   3.045   7.796   0.330
12916SOL     OW40644  14.453  11.840   7.071
12916SOL    HW140645  14.540  11.857   7.036
12916SOL    HW240646  14.395  11.897   7.020
12917SOL     OW40647   7.300   0.694   0.815
12917SOL    HW140648   7.350   0.639   0.755
12917SOL    HW240649   7.224   0.723   0.764
12918SOL     OW40650   3.971   3.956   7.530
12918SOL    HW140651   4.023   3.903   7.470
12918SOL    HW240652   4.021   4.038   7.538
12919SOL     OW40653  12.704  11.069   4.219
12919SOL    HW140654  12.702  11.027   4.133
12919SOL    HW240655  12.665  11.005   4.278
12920SOL     OW40656  13.431   6.620  13.922
12920SOL    HW140657  13.390   6.568  13.991
12920SOL    HW240658  13.400   6.580  13.840
12921SOL     OW40659  11.104  12.630  13.734
12921SOL    HW140660  11.099  12.712  13.783
12921SOL    HW240661  11.027  12.580  13.761
12922SOL     OW40662  10.130   8.764   6.815
12922SOL    HW140663  10.194   8.781   6.746
12922SOL    HW240664  10.142   8.672   6.837
12923SOL     OW40665  10.120   9.919   5.436
12923SOL    HW140666  10.149   9.881   5.353
12923SOL    HW240667  10.185   9.889   5.500
12924SOL     OW40668   3.489   1.336   1.292
12924SOL    HW140669   3.545   1.260   1.280
12924SOL    HW240670   3.493   1.383   1.209
12925SOL     OW40671   4.667   7.013   9.387
12925SOL    HW140672   4.691   7.096   9.428
12925SOL    HW240673   4.739   6.995   9.326
12926SOL     OW40674  12.887   3.203   2.713
12926SOL    HW140675  12.925   3.125   2.672
12926SOL    HW240676  12.808   3.221   2.662
12927SOL     OW40677  12.184   3.319  10.194
12927SOL    HW140678  12.176   3.413  10.205
12927SOL    HW240679  12.103   3.292  10.150
12928SOL     OW40680   3.817   7.364   8.268
12928SOL    HW140681   3.860   7.322   8.343
12928SOL    HW240682   3.883   7.363   8.199
12929SOL     OW40683  12.298   1.189   6.748
12929SOL    HW140684  12.235   1.237   6.694
12929SOL    HW240685  12.365   1.159   6.686
12930SOL     OW40686   9.342   3.797  14.503
12930SOL    HW140687   9.271   3.733  14.497
12930SOL    HW240688   9.417   3.754  14.463
12931SOL     OW40689  13.256   7.722   2.672
12931SOL    HW140690  13.347   7.737   2.696
12931SOL    HW240691  13.231   7.799   2.621
12932SOL     OW40692   6.401  12.698  12.254
12932SOL    HW140693   6.388  12.792  12.270
12932SOL    HW240694   6.495  12.689  12.239
12933SOL     OW40695   8.932   9.525   6.684
12933SOL    HW140696   8.996   9.457   6.707
12933SOL    HW240697   8.892   9.550   6.767
12934SOL     OW40698   0.536  13.083  10.292
12934SOL    HW140699   0.486  13.099  10.212
12934SOL    HW240700   0.626  13.106  10.268
12935SOL     OW40701   6.054   8.777   9.865
12935SOL    HW140702   5.983   8.751   9.806
12935SOL    HW240703   6.133   8.769   9.813
12936SOL     OW40704  14.448   1.683   8.247
12936SOL    HW140705  14.484   1.645   8.327
12936SOL    HW240706  14.491   1.635   8.176
12937SOL     OW40707   0.457  13.108   1.239
12937SOL    HW140708   0.415  13.097   1.154
12937SOL    HW240709   0.390  13.082   1.302
12938SOL     OW40710   8.272   5.304  12.475
12938SOL    HW140711   8.346   5.325  12.418
12938SOL    HW240712   8.224   5.387  12.483
12939SOL     OW40713  14.169   7.113   1.185
12939SOL    HW140714  14.227   7.179   1.223
12939SOL    HW240715  14.081   7.142   1.208
12940SOL     OW40716  12.318  14.105   6.839
12940SOL    HW140717  12.365  14.091   6.757
12940SOL    HW240718  12.232  14.065   6.825
12941SOL     OW40719  12.819  11.183  11.349
12941SOL    HW140720  12.828  11.210  11.441
12941SOL    HW240721  12.791  11.262  11.304
12942SOL     OW40722   1.273   5.906   4.291
12942SOL    HW140723   1.235   5.898   4.379
12942SOL    HW240724   1.198   5.914   4.233
12943SOL     OW40725   3.627  12.793   4.493
12943SOL    HW140726   3.600  12.727   4.557
12943SOL    HW240727   3.570  12.868   4.511
12944SOL     OW40728   1.077   7.785   0.481
12944SOL    HW140729   1.107   7.820   0.397
12944SOL    HW240730   1.097   7.691   0.477
12945SOL     OW40731   5.743   5.796   4.820
12945SOL    HW140732   5.740   5.784   4.915
12945SOL    HW240733   5.759   5.708   4.785
12946SOL     OW40734   4.083  12.230   3.843
12946SOL    HW140735   4.165  12.267   3.808
12946SOL    HW240736   4.097  12.226   3.938
12947SOL     OW40737  14.089   8.550  13.025
12947SOL    HW140738  14.170   8.515  13.062
12947SOL    HW240739  14.056   8.611  13.091
12948SOL     OW40740   9.081  13.219  12.575
12948SOL    HW140741   9.135  13.278  12.522
12948SOL    HW240742   9.000  13.209  12.525
12949SOL     OW40743  13.368   6.838  11.126
12949SOL    HW140744  13.422   6.844  11.205
12949SOL    HW240745  13.279   6.822  11.159
12950SOL     OW40746   5.957   9.571   2.626
12950SOL    HW140747   5.958   9.542   2.717
12950SOL    HW240748   5.870   9.547   2.594
12951SOL     OW40749   4.947  11.028   8.848
12951SOL    HW140750   4.922  10.938   8.865
12951SOL    HW240751   5.041  11.030   8.863
12952SOL     OW40752   9.512   4.590  14.367
12952SOL    HW140753   9.566   4.603  14.445
12952SOL    HW240754   9.483   4.678  14.343
12953SOL     OW40755  13.188  13.850  14.861
12953SOL    HW140756  13.215  13.762   0.014
12953SOL    HW240757  13.200  13.902   0.069
12954SOL     OW40758  10.620  14.007   7.583
12954SOL    HW140759  10.547  13.947   7.598
12954SOL    HW240760  10.646  14.036   7.671
12955SOL     OW40761   2.617  10.331   7.628
12955SOL    HW140762   2.537  10.327   7.680
12955SOL    HW240763   2.622  10.245   7.586
12956SOL     OW40764   5.853   1.155   4.051
12956SOL    HW140765   5.895   1.096   3.989
12956SOL    HW240766   5.818   1.226   3.997
12957SOL     OW40767   8.646   9.216  10.680
12957SOL    HW140768   8.688   9.290  10.723
12957SOL    HW240769   8.602   9.255  10.604
12958SOL     OW40770   1.178   1.597   4.256
12958SOL    HW140771   1.101   1.649   4.280
12958SOL    HW240772   1.172   1.587   4.161
12959SOL     OW40773  13.660   0.898   5.997
12959SOL    HW140774  13.705   0.820   5.964
12959SOL    HW240775  13.691   0.969   5.941
12960SOL     OW40776   6.581  13.836   6.784
12960SOL    HW140777   6.545  13.749   6.770
12960SOL    HW240778   6.513  13.896   6.751
12961SOL     OW40779   5.715   0.010   6.554
12961SOL    HW140780   5.761  14.849   6.631
12961SOL    HW240781   5.685   0.097   6.579
12962SOL     OW40782  10.126  14.610   6.301
12962SOL    HW140783  10.114  14.600   6.396
12962SOL    HW240784  10.186  14.540   6.277
12963SOL     OW40785  13.803   8.921   9.387
12963SOL    HW140786  13.770   9.009   9.372
12963SOL    HW240787  13.892   8.921   9.352
12964SOL     OW40788   1.440   7.040   4.889
12964SOL    HW140789   1.440   7.111   4.954
12964SOL    HW240790   1.526   6.998   4.900
12965SOL     OW40791   0.582  12.680  11.077
12965SOL    HW140792   0.490  12.660  11.088
12965SOL    HW240793   0.598  12.670  10.983
12966SOL     OW40794   5.671  14.171  10.627
12966SOL    HW140795   5.660  14.206  10.539
12966SOL    HW240796   5.582  14.160  10.660
12967SOL     OW40797   0.325  12.327   5.841
12967SOL    HW140798   0.316  12.232   5.843
12967SOL    HW240799   0.314  12.350   5.748
12968SOL     OW40800   5.608  13.421   8.566
12968SOL    HW140801   5.550  13.395   8.638
12968SOL    HW240802   5.598  13.350   8.502
12969SOL     OW40803   3.614  11.733   2.991
12969SOL    HW140804   3.597  11.804   2.929
12969SOL    HW240805   3.700  11.699   2.966
12970SOL     OW40806   2.290   6.342   0.409
12970SOL    HW140807   2.260   6.266   0.461
12970SOL    HW240808   2.221   6.407   0.421
12971SOL     OW40809  14.210   6.586  11.958
12971SOL    HW140810  14.217   6.586  11.863
12971SOL    HW240811  14.294   6.620  11.989
12972SOL     OW40812   2.712   8.614   9.030
12972SOL    HW140813   2.642   8.674   9.006
12972SOL    HW240814   2.679   8.567   9.107
12973SOL     OW40815   1.117   4.786   6.266
12973SOL    HW140816   1.097   4.718   6.330
12973SOL    HW240817   1.087   4.867   6.307
12974SOL     OW40818   0.156   6.628   6.077
12974SOL    HW140819   0.115   6.542   6.081
12974SOL    HW240820   0.225   6.624   6.143
12975SOL     OW40821  14.625   0.959  10.289
12975SOL    HW140822  14.661   0.880  10.247
12975SOL    HW240823  14.597   0.930  10.375
12976SOL     OW40824  11.160  14.237  12.641
12976SOL    HW140825  11.225  14.300  12.610
12976SOL    HW240826  11.189  14.217  12.731
12977SOL     OW40827  13.812  13.926   1.246
12977SOL    HW140828  13.777  13.877   1.320
12977SOL    HW240829  13.782  13.877   1.169
12978SOL     OW40830  11.735   2.495  14.095
12978SOL    HW140831  11.689   2.499  14.178
12978SOL    HW240832  11.762   2.585  14.078
12979SOL     OW40833   2.624   0.443   1.228
12979SOL    HW140834   2.633   0.401   1.143
12979SOL    HW240835   2.531   0.468   1.232
12980SOL     OW40836   5.237  14.734  12.282
12980SOL    HW140837   5.145  14.750  12.300
12980SOL    HW240838   5.261  14.798  12.215
12981SOL     OW40839  13.467   6.430  14.318
12981SOL    HW140840  13.511   6.514  14.325
12981SOL    HW240841  13.535   6.368  14.291
12982SOL     OW40842   2.488   1.479   0.310
12982SOL    HW140843   2.509   1.570   0.290
12982SOL    HW240844   2.420   1.483   0.376
12983SOL     OW40845   5.177   9.962   6.175
12983SOL    HW140846   5.268   9.948   6.149
12983SOL    HW240847   5.154   9.884   6.225
12984SOL     OW40848   0.075  12.473   6.339
12984SOL    HW140849   0.132  12.517   6.277
12984SOL    HW240850   0.035  12.402   6.289
12985SOL     OW40851   5.433  13.888   1.267
12985SOL    HW140852   5.475  13.908   1.183
12985SOL    HW240853   5.360  13.830   1.244
12986SOL     OW40854   1.500   0.525   3.814
12986SOL    HW140855   1.563   0.590   3.783
12986SOL    HW240856   1.474   0.557   3.901
12987SOL     OW40857   9.320   8.589  13.478
12987SOL    HW140858   9.264   8.665  13.466
12987SOL    HW240859   9.260   8.514  13.474
12988SOL     OW40860   9.176  13.847  14.602
12988SOL    HW140861   9.090  13.870  14.566
12988SOL    HW240862   9.216  13.793  14.534
12989SOL     OW40863  11.098   5.598  10.798
12989SOL    HW140864  11.018   5.571  10.754
12989SOL    HW240865  11.120   5.682  10.759
12990SOL     OW40866  12.238   5.418   2.532
12990SOL    HW140867  12.182   5.485   2.494
12990SOL    HW240868  12.308   5.406   2.469
12991SOL     OW40869   0.963  11.568   6.319
12991SOL    HW140870   0.943  11.513   6.395
12991SOL    HW240871   0.966  11.507   6.245
12992SOL     OW40872   2.552   0.099   9.420
12992SOL    HW140873   2.626   0.057   9.376
12992SOL    HW240874   2.579   0.190   9.433
12993SOL     OW40875   9.153  14.857  12.245
12993SOL    HW140876   9.083  14.799  12.216
12993SOL    HW240877   9.232  14.822  12.203
12994SOL     OW40878   5.200  11.907   8.184
12994SOL    HW140879   5.160  11.850   8.119
12994SOL    HW240880   5.126  11.940   8.236
12995SOL     OW40881   4.718  10.432  11.347
12995SOL    HW140882   4.731  10.527  11.347
12995SOL    HW240883   4.749  10.404  11.261
12996SOL     OW40884  13.262   6.542   6.714
12996SOL    HW140885  13.310   6.579   6.640
12996SOL    HW240886  13.285   6.449   6.713
12997SOL     OW40887  13.662  10.659   4.936
12997SOL    HW140888  13.598  10.629   5.000
12997SOL    HW240889  13.673  10.585   4.876
12998SOL     OW40890   8.413   5.465   9.526
12998SOL    HW140891   8.333   5.414   9.508
12998SOL    HW240892   8.476   5.400   9.556
12999SOL     OW40893  12.369  14.777  10.000
12999SOL    HW140894  12.428  14.850  10.020
12999SOL    HW240895  12.287  14.819   9.976
13000SOL     OW40896   2.817   6.088   3.252
13000SOL    HW140897   2.749   6.085   3.319
13000SOL    HW240898   2.880   6.021   3.278
13001SOL     OW40899   1.842   5.013   2.695
13001SOL    HW140900   1.799   4.940   2.651
13001SOL    HW240901   1.888   5.060   2.626
13002SOL     OW40902   8.657   4.335   6.637
13002SOL    HW140903   8.633   4.343   6.729
13002SOL    HW240904   8.574   4.338   6.590
13003SOL     OW40905   2.971   8.644   0.280
13003SOL    HW140906   2.891   8.636   0.333
13003SOL    HW240907   2.969   8.568   0.222
13004SOL     OW40908   0.443  12.785  12.143
13004SOL    HW140909   0.510  12.808  12.207
13004SOL    HW240910   0.399  12.868  12.123
13005SOL     OW40911   9.242  11.531   7.017
13005SOL    HW140912   9.239  11.548   6.923
13005SOL    HW240913   9.260  11.616   7.057
13006SOL     OW40914   7.538   6.033   7.964
13006SOL    HW140915   7.448   6.063   7.975
13006SOL    HW240916   7.571   6.023   8.054
13007SOL     OW40917   5.100   4.791  12.244
13007SOL    HW140918   5.098   4.826  12.333
13007SOL    HW240919   5.172   4.728  12.244
13008SOL     OW40920   0.214   2.635  11.252
13008SOL    HW140921   0.252   2.576  11.317
13008SOL    HW240922   0.138   2.673  11.295
13009SOL     OW40923  13.385   6.954  12.133
13009SOL    HW140924  13.348   6.903  12.061
13009SOL    HW240925  13.456   6.900  12.166
13010SOL     OW40926   3.987   6.186  10.346
13010SOL    HW140927   3.991   6.150  10.435
13010SOL    HW240928   3.996   6.111  10.288
13011SOL     OW40929  12.992   4.723  10.931
13011SOL    HW140930  12.920   4.661  10.926
13011SOL    HW240931  13.066   4.678  10.890
13012SOL     OW40932   5.168  10.751   4.544
13012SOL    HW140933   5.123  10.702   4.613
13012SOL    HW240934   5.260  10.727   4.554
13013SOL     OW40935   2.264  11.400   2.868
13013SOL    HW140936   2.191  11.361   2.915
13013SOL    HW240937   2.307  11.326   2.825
13014SOL     OW40938   6.312   0.295   7.904
13014SOL    HW140939   6.397   0.293   7.948
13014SOL    HW240940   6.278   0.383   7.920
13015SOL     OW40941  10.363   1.362   8.855
13015SOL    HW140942  10.362   1.457   8.867
13015SOL    HW240943  10.456   1.340   8.851
13016SOL     OW40944  14.402  13.217  12.108
13016SOL    HW140945  14.312  13.186  12.116
13016SOL    HW240946  14.454  13.138  12.093
13017SOL     OW40947   0.196   3.402   7.548
13017SOL    HW140948   0.246   3.362   7.619
13017SOL    HW240949   0.199   3.337   7.477
13018SOL     OW40950   4.467   0.765   1.444
13018SOL    HW140951   4.442   0.757   1.352
13018SOL    HW240952   4.387   0.742   1.492
13019SOL     OW40953   3.310  12.837  12.308
13019SOL    HW140954   3.336  12.860  12.397
13019SOL    HW240955   3.214  12.836  12.311
13020SOL     OW40956   2.244   3.448  12.809
13020SOL    HW140957   2.206   3.407  12.887
13020SOL    HW240958   2.324   3.491  12.841
13021SOL     OW40959   5.536   8.487   8.613
13021SOL    HW140960   5.577   8.425   8.553
13021SOL    HW240961   5.447   8.498   8.579
13022SOL     OW40962   9.096   8.195  10.997
13022SOL    HW140963   9.051   8.117  10.964
13022SOL    HW240964   9.025   8.256  11.019
13023SOL     OW40965  10.130   8.961   5.780
13023SOL    HW140966  10.168   8.958   5.692
13023SOL    HW240967  10.075   9.040   5.779
13024SOL     OW40968  13.387   5.783   5.141
13024SOL    HW140969  13.475   5.818   5.130
13024SOL    HW240970  13.399   5.689   5.152
13025SOL     OW40971  13.979   1.743   3.079
13025SOL    HW140972  13.907   1.760   3.018
13025SOL    HW240973  14.045   1.809   3.057
13026SOL     OW40974  10.326  10.463   8.074
13026SOL    HW140975  10.332  10.557   8.055
13026SOL    HW240976  10.351  10.456   8.166
13027SOL     OW40977   5.258   4.570  12.193
13027SOL    HW140978   5.166   4.546  12.194
13027SOL    HW240979   5.294   4.528  12.115
13028SOL     OW40980  13.578   6.218   8.519
13028SOL    HW140981  13.666   6.182   8.532
13028SOL    HW240982  13.535   6.155   8.462
13029SOL     OW40983   5.717  14.842   9.237
13029SOL    HW140984   5.781   0.037   9.215
13029SOL    HW240985   5.632   0.009   9.214
13030SOL     OW40986   1.458   9.169  11.412
13030SOL    HW140987   1.481   9.146  11.502
13030SOL    HW240988   1.375   9.123  11.396
13031SOL     OW40989   6.924   3.323  14.541
13031SOL    HW140990   6.911   3.345  14.634
13031SOL    HW240991   6.956   3.233  14.542
13032SOL     OW40992   3.786   4.984  13.692
13032SOL    HW140993   3.736   5.060  13.662
13032SOL    HW240994   3.823   4.946  13.613
13033SOL     OW40995   2.206   1.088  11.622
13033SOL    HW140996   2.289   1.061  11.663
13033SOL    HW240997   2.160   1.005  11.605
13034SOL     OW40998  11.380   8.930  11.658
13034SOL    HW140999  11.296   8.977  11.656
13034SOL    HW241000  11.442   8.993  11.695
13035SOL     OW41001   5.609  11.479  12.118
13035SOL    HW141002   5.665  11.549  12.151
13035SOL    HW241003   5.570  11.515  12.038
13036SOL     OW41004  10.737   9.726  12.088
13036SOL    HW141005  10.779   9.801  12.046
13036SOL    HW241006  10.647   9.756  12.106
13037SOL     OW41007   4.775   1.440   4.707
13037SOL    HW141008   4.748   1.374   4.644
13037SOL    HW241009   4.863   1.414   4.734
13038SOL     OW41010  13.963   5.295  14.124
13038SOL    HW141011  13.954   5.390  14.127
13038SOL    HW241012  14.057   5.280  14.125
13039SOL     OW41013   5.826   3.394  13.667
13039SOL    HW141014   5.787   3.312  13.638
13039SOL    HW241015   5.759   3.460  13.647
13040SOL     OW41016   1.646   5.800   8.768
13040SOL    HW141017   1.709   5.732   8.789
13040SOL    HW241018   1.561   5.760   8.784
13041SOL     OW41019   5.273   2.667   5.423
13041SOL    HW141020   5.194   2.668   5.477
13041SOL    HW241021   5.341   2.705   5.478
13042SOL     OW41022  11.435   5.953   8.251
13042SOL    HW141023  11.349   5.994   8.238
13042SOL    HW241024  11.491   5.995   8.187
13043SOL     OW41025   9.805  13.375  14.383
13043SOL    HW141026   9.763  13.334  14.308
13043SOL    HW241027   9.849  13.452  14.347
13044SOL     OW41028   5.379   8.649   1.739
13044SOL    HW141029   5.332   8.566   1.727
13044SOL    HW241030   5.327   8.696   1.804
13045SOL     OW41031   3.921   9.763   5.897
13045SOL    HW141032   3.843   9.711   5.917
13045SOL    HW241033   3.969   9.769   5.979
13046SOL     OW41034   0.964   2.729   7.029
13046SOL    HW141035   0.998   2.642   7.051
13046SOL    HW241036   1.023   2.762   6.961
13047SOL     OW41037   0.207   0.046   5.662
13047SOL    HW141038   0.300   0.034   5.683
13047SOL    HW241039   0.177  14.830   5.635
13048SOL     OW41040   0.837   5.430   7.866
13048SOL    HW141041   0.847   5.386   7.781
13048SOL    HW241042   0.925   5.430   7.903
13049SOL     OW41043   4.644  12.144   2.517
13049SOL    HW141044   4.710  12.075   2.526
13049SOL    HW241045   4.693  12.219   2.484
13050SOL     OW41046   2.747   7.638   7.191
13050SOL    HW141047   2.674   7.668   7.246
13050SOL    HW241048   2.781   7.561   7.236
13051SOL     OW41049  11.169   3.030   7.617
13051SOL    HW141050  11.196   2.979   7.693
13051SOL    HW241051  11.201   3.118   7.634
13052SOL     OW41052   9.967  14.591  14.012
13052SOL    HW141053   9.953  14.685  14.003
13052SOL    HW241054   9.968  14.575  14.106
13053SOL     OW41055   8.470  14.629  11.490
13053SOL    HW141056   8.536  14.605  11.425
13053SOL    HW241057   8.512  14.611  11.574
13054SOL     OW41058  14.034  12.090   3.147
13054SOL    HW141059  14.072  12.167   3.190
13054SOL    HW241060  13.946  12.083   3.184
13055SOL     OW41061  14.109   6.125  12.942
13055SOL    HW141062  14.063   6.041  12.944
13055SOL    HW241063  14.045   6.185  12.904
13056SOL     OW41064  10.804  12.802   0.263
13056SOL    HW141065  10.713  12.802   0.292
13056SOL    HW241066  10.836  12.714   0.281
13057SOL     OW41067   8.571  13.721   1.031
13057SOL    HW141068   8.565  13.738   0.937
13057SOL    HW241069   8.631  13.647   1.038
13058SOL     OW41070  12.114  14.458   4.711
13058SOL    HW141071  12.091  14.489   4.623
13058SOL    HW241072  12.120  14.363   4.703
13059SOL     OW41073  11.733  13.046   8.920
13059SOL    HW141074  11.654  13.011   8.878
13059SOL    HW241075  11.701  13.087   9.001
13060SOL     OW41076   0.944   6.273   5.798
13060SOL    HW141077   0.922   6.235   5.713
13060SOL    HW241078   0.868   6.254   5.853
13061SOL     OW41079   4.438   0.295  12.433
13061SOL    HW141080   4.449   0.241  12.511
13061SOL    HW241081   4.447   0.234  12.360
13062SOL     OW41082   0.604   6.463   4.691
13062SOL    HW141083   0.538   6.521   4.653
13062SOL    HW241084   0.673   6.460   4.625
13063SOL     OW41085   8.930  11.315  14.580
13063SOL    HW141086   8.966  11.359  14.503
13063SOL    HW241087   8.862  11.258  14.545
13064SOL     OW41088  12.250  11.633   1.573
13064SOL    HW141089  12.244  11.714   1.523
13064SOL    HW241090  12.232  11.564   1.509
13065SOL     OW41091   7.783   6.630  10.911
13065SOL    HW141092   7.789   6.577  10.991
13065SOL    HW241093   7.691   6.656  10.906
13066SOL     OW41094   6.138  14.563   6.365
13066SOL    HW141095   6.195  14.622   6.413
13066SOL    HW241096   6.050  14.589   6.391
13067SOL     OW41097  10.208   4.252   3.654
13067SOL    HW141098  10.217   4.326   3.714
13067SOL    HW241099  10.263   4.274   3.580
13068SOL     OW41100   9.729   4.672  12.613
13068SOL    HW141101   9.710   4.703  12.524
13068SOL    HW241102   9.646   4.683  12.660
13069SOL     OW41103   9.387   3.869   1.767
13069SOL    HW141104   9.393   3.951   1.718
13069SOL    HW241105   9.314   3.882   1.828
13070SOL     OW41106   8.192   3.449   8.224
13070SOL    HW141107   8.200   3.487   8.137
13070SOL    HW241108   8.282   3.437   8.254
13071SOL     OW41109  14.232  10.791  10.806
13071SOL    HW141110  14.184  10.874  10.804
13071SOL    HW241111  14.259  10.781  10.897
13072SOL     OW41112   8.823   8.078   5.614
13072SOL    HW141113   8.761   8.009   5.638
13072SOL    HW241114   8.876   8.039   5.544
13073SOL     OW41115  13.638   7.846   4.956
13073SOL    HW141116  13.678   7.933   4.959
13073SOL    HW241117  13.708   7.788   4.927
13074SOL     OW41118   5.333   1.727  12.690
13074SOL    HW141119   5.314   1.658  12.627
13074SOL    HW241120   5.266   1.718  12.757
13075SOL     OW41121   6.968  13.729  14.479
13075SOL    HW141122   6.901  13.691  14.535
13075SOL    HW241123   6.920  13.762  14.403
13076SOL     OW41124   8.713  11.816  12.677
13076SOL    HW141125   8.625  11.820  12.640
13076SOL    HW241126   8.764  11.878  12.626
13077SOL     OW41127  13.686  13.442   0.383
13077SOL    HW141128  13.765  13.407   0.342
13077SOL    HW241129  13.632  13.473   0.310
13078SOL     OW41130   9.688  14.027   7.512
13078SOL    HW141131   9.648  13.946   7.480
13078SOL    HW241132   9.614  14.086   7.526
13079SOL     OW41133  13.703   4.798   1.513
13079SOL    HW141134  13.699   4.887   1.549
13079SOL    HW241135  13.643   4.747   1.569
13080SOL     OW41136   5.416  12.386  14.233
13080SOL    HW141137   5.417  12.455  14.300
13080SOL    HW241138   5.351  12.323  14.263
13081SOL     OW41139   4.256  10.740   0.677
13081SOL    HW141140   4.294  10.659   0.645
13081SOL    HW241141   4.267  10.802   0.605
13082SOL     OW41142  11.849   9.648   0.471
13082SOL    HW141143  11.856   9.575   0.533
13082SOL    HW241144  11.777   9.701   0.504
13083SOL     OW41145   5.284  12.275  12.042
13083SOL    HW141146   5.356  12.223  12.008
13083SOL    HW241147   5.262  12.335  11.970
13084SOL     OW41148   8.631   1.565  11.526
13084SOL    HW141149   8.671   1.601  11.447
13084SOL    HW241150   8.697   1.506  11.562
13085SOL     OW41151   1.964  14.518   7.003
13085SOL    HW141152   1.965  14.556   6.915
13085SOL    HW241153   1.953  14.593   7.062
13086SOL     OW41154   2.226   9.950   3.528
13086SOL    HW141155   2.169   9.875   3.514
13086SOL    HW241156   2.309   9.925   3.487
13087SOL     OW41157  11.375   9.720  13.886
13087SOL    HW141158  11.424   9.723  13.968
13087SOL    HW241159  11.391   9.632  13.852
13088SOL     OW41160  12.750   9.958  14.115
13088SOL    HW141161  12.673   9.915  14.079
13088SOL    HW241162  12.719   9.999  14.196
13089SOL     OW41163  11.581   0.813   9.846
13089SOL    HW141164  11.614   0.828   9.757
13089SOL    HW241165  11.617   0.728   9.871
13090SOL     OW41166  13.307   7.350   9.892
13090SOL    HW141167  13.301   7.260   9.861
13090SOL    HW241168  13.400   7.362   9.911
13091SOL     OW41169  14.809  13.619   5.467
13091SOL    HW141170  14.731  13.672   5.487
13091SOL    HW241171  14.848  13.601   5.553
13092SOL     OW41172   9.967   1.753  13.596
13092SOL    HW141173  10.042   1.694  13.586
13092SOL    HW241174   9.916   1.715  13.668
13093SOL     OW41175   5.888   6.625   2.875
13093SOL    HW141176   5.864   6.678   2.800
13093SOL    HW241177   5.805   6.591   2.909
13094SOL     OW41178   7.453   2.745   3.748
13094SOL    HW141179   7.461   2.812   3.680
13094SOL    HW241180   7.362   2.750   3.777
13095SOL     OW41181   9.492  12.747   1.920
13095SOL    HW141182   9.398  12.757   1.903
13095SOL    HW241183   9.500  12.660   1.960
13096SOL     OW41184   6.780  12.863   8.477
13096SOL    HW141185   6.726  12.894   8.550
13096SOL    HW241186   6.731  12.889   8.399
13097SOL     OW41187   4.942   9.662   4.187
13097SOL    HW141188   4.940   9.566   4.183
13097SOL    HW241189   5.035   9.684   4.186
13098SOL     OW41190  14.463   6.812  10.260
13098SOL    HW141191  14.480   6.830  10.168
13098SOL    HW241192  14.526   6.745  10.284
13099SOL     OW41193   8.623   0.467   7.261
13099SOL    HW141194   8.628   0.425   7.175
13099SOL    HW241195   8.698   0.528   7.262
13100SOL     OW41196  11.217   4.445  12.586
13100SOL    HW141197  11.206   4.350  12.595
13100SOL    HW241198  11.149   4.483  12.641
13101SOL     OW41199   9.900  12.907  12.100
13101SOL    HW141200   9.924  12.960  12.175
13101SOL    HW241201   9.983  12.871  12.069
13102SOL     OW41202   4.085  10.177  11.380
13102SOL    HW141203   4.119  10.095  11.345
13102SOL    HW241204   3.997  10.184  11.344
13103SOL     OW41205  13.487   1.033   8.000
13103SOL    HW141206  13.419   0.976   7.963
13103SOL    HW241207  13.515   0.987   8.079
13104SOL     OW41208   6.054   5.727   2.263
13104SOL    HW141209   6.103   5.775   2.195
13104SOL    HW241210   6.122   5.683   2.314
13105SOL     OW41211   4.937   4.159  11.784
13105SOL    HW141212   5.009   4.214  11.815
13105SOL    HW241213   4.858   4.206  11.812
13106SOL     OW41214  12.306   4.277  12.869
13106SOL    HW141215  12.349   4.324  12.941
13106SOL    HW241216  12.372   4.213  12.840
13107SOL     OW41217   4.852   9.502   8.542
13107SOL    HW141218   4.850   9.540   8.454
13107SOL    HW241219   4.926   9.546   8.586
13108SOL     OW41220   9.926   8.937  10.433
13108SOL    HW141221   9.934   9.014  10.489
13108SOL    HW241222   9.983   8.954  10.358
13109SOL     OW41223   4.492   0.542   9.571
13109SOL    HW141224   4.567   0.494   9.606
13109SOL    HW241225   4.526   0.587   9.494
13110SOL     OW41226   8.463   0.125   0.624
13110SOL    HW141227   8.529   0.182   0.586
13110SOL    HW241228   8.498   0.100   0.709
13111SOL     OW41229   6.606   9.417   8.616
13111SOL    HW141230   6.609   9.496   8.670
13111SOL    HW241231   6.549   9.441   8.543
13112SOL     OW41232   9.986  12.951   2.542
13112SOL    HW141233   9.901  12.987   2.517
13112SOL    HW241234  10.034  12.941   2.460
13113SOL     OW41235   8.513   7.215   8.097
13113SOL    HW141236   8.491   7.307   8.080
13113SOL    HW241237   8.608   7.212   8.086
13114SOL     OW41238   7.419   9.911   1.778
13114SOL    HW141239   7.432   9.938   1.687
13114SOL    HW241240   7.416   9.815   1.774
13115SOL     OW41241   5.937   3.275   7.992
13115SOL    HW141242   5.896   3.228   8.065
13115SOL    HW241243   5.981   3.349   8.032
13116SOL     OW41244   8.313  13.057   2.777
13116SOL    HW141245   8.276  13.137   2.815
13116SOL    HW241246   8.403  13.054   2.808
13117SOL     OW41247   4.798   6.696   2.359
13117SOL    HW141248   4.706   6.718   2.376
13117SOL    HW241249   4.843   6.780   2.357
13118SOL     OW41250  14.311   4.546  10.359
13118SOL    HW141251  14.368   4.548  10.282
13118SOL    HW241252  14.363   4.505  10.427
13119SOL     OW41253  11.291   7.621  13.535
13119SOL    HW141254  11.383   7.597  13.524
13119SOL    HW241255  11.288   7.667  13.619
13120SOL     OW41256  11.392  11.290  10.952
13120SOL    HW141257  11.466  11.303  10.892
13120SOL    HW241258  11.344  11.216  10.915
13121SOL     OW41259   3.037  13.417  10.188
13121SOL    HW141260   3.005  13.336  10.149
13121SOL    HW241261   3.045  13.398  10.281
13122SOL     OW41262   0.038   7.994  10.516
13122SOL    HW141263   0.044   7.918  10.575
13122SOL    HW241264   0.098   8.058  10.553
13123SOL     OW41265  12.311   2.491   1.709
13123SOL    HW141266  12.235   2.548   1.723
13123SOL    HW241267  12.340   2.511   1.620
13124SOL     OW41268   4.389  14.307   1.481
13124SOL    HW141269   4.397  14.345   1.394
13124SOL    HW241270   4.476  14.315   1.519
13125SOL     OW41271   1.439  11.325   0.825
13125SOL    HW141272   1.471  11.413   0.803
13125SOL    HW241273   1.383  11.339   0.901
13126SOL     OW41274   5.448   5.678   1.470
13126SOL    HW141275   5.416   5.732   1.397
13126SOL    HW241276   5.398   5.597   1.462
13127SOL     OW41277  14.557  11.578  10.079
13127SOL    HW141278  14.504  11.513  10.126
13127SOL    HW241279  14.561  11.545   9.989
13128SOL     OW41280   8.970  10.761   0.067
13128SOL    HW141281   8.993  10.796   0.153
13128SOL    HW241282   9.015  10.676   0.063
13129SOL     OW41283   2.232   7.584   8.643
13129SOL    HW141284   2.151   7.594   8.593
13129SOL    HW241285   2.223   7.646   8.715
13130SOL     OW41286   1.958  14.569  12.756
13130SOL    HW141287   1.911  14.595  12.677
13130SOL    HW241288   1.907  14.496  12.791
13131SOL     OW41289  13.837  10.361   7.783
13131SOL    HW141290  13.820  10.274   7.819
13131SOL    HW241291  13.750  10.401   7.776
13132SOL     OW41292   3.389   5.407  11.238
13132SOL    HW141293   3.383   5.316  11.267
13132SOL    HW241294   3.404   5.457  11.318
13133SOL     OW41295   1.054  14.666  10.766
13133SOL    HW141296   1.053  14.720  10.686
13133SOL    HW241297   0.985  14.703  10.821
13134SOL     OW41298  13.015   9.197  12.962
13134SOL    HW141299  12.963   9.260  13.013
13134SOL    HW241300  13.094   9.245  12.938
13135SOL     OW41301   3.398   2.001  14.313
13135SOL    HW141302   3.490   1.983  14.296
13135SOL    HW241303   3.350   1.943  14.254
13136SOL     OW41304   6.093  11.749  14.526
13136SOL    HW141305   6.088  11.755  14.621
13136SOL    HW241306   6.106  11.656  14.507
13137SOL     OW41307  13.392   4.948   0.188
13137SOL    HW141308  13.310   4.900   0.174
13137SOL    HW241309  13.431   4.956   0.101
13138SOL     OW41310   3.473  13.222  12.502
13138SOL    HW141311   3.457  13.275  12.581
13138SOL    HW241312   3.566  13.203  12.505
13139SOL     OW41313  11.056   8.177   2.926
13139SOL    HW141314  11.058   8.100   2.983
13139SOL    HW241315  11.142   8.219   2.939
13140SOL     OW41316   0.740   5.138   2.359
13140SOL    HW141317   0.802   5.136   2.432
13140SOL    HW241318   0.781   5.194   2.293
13141SOL     OW41319   9.101  12.493   1.965
13141SOL    HW141320   9.008  12.494   1.984
13141SOL    HW241321   9.126  12.401   1.966
13142SOL     OW41322   6.083   1.877   3.437
13142SOL    HW141323   6.076   1.812   3.507
13142SOL    HW241324   6.176   1.900   3.435
13143SOL     OW41325   4.897  14.240   5.033
13143SOL    HW141326   4.898  14.310   5.097
13143SOL    HW241327   4.897  14.285   4.948
13144SOL     OW41328  12.548   1.324   4.372
13144SOL    HW141329  12.609   1.361   4.308
13144SOL    HW241330  12.500   1.257   4.323
13145SOL     OW41331  12.599   4.855   3.601
13145SOL    HW141332  12.653   4.783   3.568
13145SOL    HW241333  12.606   4.847   3.697
13146SOL     OW41334  14.620   6.629   7.664
13146SOL    HW141335  14.628   6.611   7.570
13146SOL    HW241336  14.567   6.708   7.669
13147SOL     OW41337   1.164  12.314   2.943
13147SOL    HW141338   1.204  12.400   2.941
13147SOL    HW241339   1.238  12.253   2.949
13148SOL     OW41340   1.092   1.805   2.434
13148SOL    HW141341   1.099   1.871   2.503
13148SOL    HW241342   1.031   1.740   2.468
13149SOL     OW41343   0.621  10.880   8.371
13149SOL    HW141344   0.658  10.879   8.459
13149SOL    HW241345   0.696  10.869   8.313
13150SOL     OW41346  11.527   3.879   0.078
13150SOL    HW141347  11.436   3.858   0.100
13150SOL    HW241348  11.574   3.876   0.161
13151SOL     OW41349  12.363  13.628   3.439
13151SOL    HW141350  12.414  13.555   3.404
13151SOL    HW241351  12.400  13.705   3.396
13152SOL     OW41352  10.040   5.974  11.533
13152SOL    HW141353  10.056   5.938  11.620
13152SOL    HW241354  10.025   5.898  11.477
13153SOL     OW41355   3.686  11.757  10.018
13153SOL    HW141356   3.748  11.806   9.963
13153SOL    HW241357   3.605  11.755   9.967
13154SOL     OW41358   7.714   5.697   8.344
13154SOL    HW141359   7.646   5.732   8.287
13154SOL    HW241360   7.666   5.664   8.421
13155SOL     OW41361   1.988   0.341  13.350
13155SOL    HW141362   1.990   0.291  13.432
13155SOL    HW241363   2.066   0.314  13.303
13156SOL     OW41364   8.321   7.964   7.402
13156SOL    HW141365   8.375   7.914   7.341
13156SOL    HW241366   8.237   7.973   7.358
13157SOL     OW41367   9.875   6.652   4.682
13157SOL    HW141368   9.798   6.644   4.738
13157SOL    HW241369   9.848   6.615   4.598
13158SOL     OW41370   0.254   6.409   3.747
13158SOL    HW141371   0.161   6.431   3.754
13158SOL    HW241372   0.259   6.316   3.767
13159SOL     OW41373   3.247   1.909   9.962
13159SOL    HW141374   3.196   1.915   9.881
13159SOL    HW241375   3.329   1.867   9.936
13160SOL     OW41376   3.387   7.833   2.315
13160SOL    HW141377   3.393   7.894   2.241
13160SOL    HW241378   3.388   7.890   2.393
13161SOL     OW41379  14.834   6.852   6.964
13161SOL    HW141380  14.767   6.849   7.033
13161SOL    HW241381  14.819   6.936   6.920
13162SOL     OW41382   6.296   8.623   5.630
13162SOL    HW141383   6.272   8.609   5.539
13162SOL    HW241384   6.359   8.695   5.628
13163SOL     OW41385  12.572   3.150   4.163
13163SOL    HW141386  12.641   3.147   4.229
13163SOL    HW241387  12.494   3.116   4.208
13164SOL     OW41388   2.386   5.191  12.344
13164SOL    HW141389   2.430   5.115  12.307
13164SOL    HW241390   2.447   5.263  12.331
13165SOL     OW41391   0.149   5.449   2.645
13165SOL    HW141392   0.214   5.460   2.576
13165SOL    HW241393   0.069   5.423   2.600
13166SOL     OW41394  12.969   8.550  11.905
13166SOL    HW141395  13.024   8.626  11.886
13166SOL    HW241396  12.979   8.493  11.829
13167SOL     OW41397   0.569  12.226  11.398
13167SOL    HW141398   0.552  12.134  11.377
13167SOL    HW241399   0.516  12.275  11.335
13168SOL     OW41400   3.879   4.875  13.110
13168SOL    HW141401   3.888   4.859  13.204
13168SOL    HW241402   3.785   4.885  13.095
13169SOL     OW41403  13.527  13.824   4.436
13169SOL    HW141404  13.534  13.732   4.460
13169SOL    HW241405  13.438  13.834   4.402
13170SOL     OW41406   6.870   4.982   0.101
13170SOL    HW141407   6.930   4.920   0.143
13170SOL    HW241408   6.887   4.972   0.007
13171SOL     OW41409  10.457   8.865  12.583
13171SOL    HW141410  10.386   8.867  12.647
13171SOL    HW241411  10.422   8.911  12.506
13172SOL     OW41412   1.069  10.625  12.787
13172SOL    HW141413   1.054  10.629  12.692
13172SOL    HW241414   1.034  10.708  12.820
13173SOL     OW41415  13.741   5.202   1.125
13173SOL    HW141416  13.743   5.170   1.035
13173SOL    HW241417  13.750   5.124   1.179
13174SOL     OW41418   5.407   8.592   3.214
13174SOL    HW141419   5.349   8.668   3.217
13174SOL    HW241420   5.360   8.524   3.262
13175SOL     OW41421   7.768   6.746   1.543
13175SOL    HW141422   7.777   6.670   1.600
13175SOL    HW241423   7.837   6.806   1.572
13176SOL     OW41424  10.752   3.416   3.732
13176SOL    HW141425  10.745   3.337   3.679
13176SOL    HW241426  10.805   3.391   3.807
13177SOL     OW41427   7.989   7.416   3.681
13177SOL    HW141428   8.010   7.472   3.755
13177SOL    HW241429   7.972   7.330   3.720
13178SOL     OW41430  14.224   1.830   6.811
13178SOL    HW141431  14.195   1.918   6.836
13178SOL    HW241432  14.315   1.826   6.839
13179SOL     OW41433   3.722   8.263   1.550
13179SOL    HW141434   3.802   8.216   1.526
13179SOL    HW241435   3.652   8.216   1.505
13180SOL     OW41436   6.044   4.749  10.381
13180SOL    HW141437   6.058   4.655  10.364
13180SOL    HW241438   6.104   4.793  10.321
13181SOL     OW41439   7.795  11.435   3.651
13181SOL    HW141440   7.796  11.340   3.661
13181SOL    HW241441   7.883  11.462   3.679
13182SOL     OW41442   4.924   8.702   9.903
13182SOL    HW141443   4.839   8.728   9.938
13182SOL    HW241444   4.969   8.785   9.886
13183SOL     OW41445  11.144  10.434  13.242
13183SOL    HW141446  11.090  10.492  13.295
13183SOL    HW241447  11.146  10.476  13.156
13184SOL     OW41448   4.108   6.663   2.363
13184SOL    HW141449   4.145   6.587   2.408
13184SOL    HW241450   4.109   6.733   2.429
13185SOL     OW41451   5.943  10.950   3.845
13185SOL    HW141452   5.925  11.044   3.840
13185SOL    HW241453   6.011  10.942   3.912
13186SOL     OW41454   8.515  11.293   2.362
13186SOL    HW141455   8.434  11.326   2.322
13186SOL    HW241456   8.585  11.333   2.309
13187SOL     OW41457   7.608   0.344   1.705
13187SOL    HW141458   7.603   0.392   1.787
13187SOL    HW241459   7.639   0.408   1.641
13188SOL     OW41460   2.736  12.438   1.444
13188SOL    HW141461   2.681  12.409   1.371
13188SOL    HW241462   2.805  12.490   1.402
13189SOL     OW41463  12.280   7.882   7.489
13189SOL    HW141464  12.286   7.965   7.441
13189SOL    HW241465  12.223   7.828   7.436
13190SOL     OW41466   5.745   2.146   8.003
13190SOL    HW141467   5.773   2.108   8.086
13190SOL    HW241468   5.737   2.071   7.944
13191SOL     OW41469  13.195  12.502   3.527
13191SOL    HW141470  13.268  12.452   3.491
13191SOL    HW241471  13.148  12.534   3.449
13192SOL     OW41472   2.974   2.082   1.062
13192SOL    HW141473   2.952   2.161   1.011
13192SOL    HW241474   3.068   2.091   1.078
13193SOL     OW41475  10.530   2.781   8.490
13193SOL    HW141476  10.476   2.787   8.411
13193SOL    HW241477  10.520   2.690   8.519
13194SOL     OW41478  14.214   2.272  13.151
13194SOL    HW141479  14.164   2.351  13.170
13194SOL    HW241480  14.156   2.200  13.176
13195SOL     OW41481   2.260   9.440   7.748
13195SOL    HW141482   2.188   9.474   7.801
13195SOL    HW241483   2.305   9.378   7.805
13196SOL     OW41484   5.330  11.746   7.483
13196SOL    HW141485   5.243  11.741   7.524
13196SOL    HW241486   5.338  11.665   7.433
13197SOL     OW41487   6.871   2.099   6.959
13197SOL    HW141488   6.899   2.066   7.045
13197SOL    HW241489   6.776   2.108   6.967
13198SOL     OW41490   6.484   4.062   5.399
13198SOL    HW141491   6.400   4.025   5.428
13198SOL    HW241492   6.462   4.149   5.367
13199SOL     OW41493  14.660   3.687   4.065
13199SOL    HW141494  14.682   3.657   4.153
13199SOL    HW241495  14.727   3.752   4.044
13200SOL     OW41496   4.727   3.423  11.319
13200SOL    HW141497   4.650   3.430  11.263
13200SOL    HW241498   4.722   3.500  11.377
13201SOL     OW41499  14.463  13.401  10.239
13201SOL    HW141500  14.447  13.494  10.257
13201SOL    HW241501  14.551  13.386  10.271
13202SOL     OW41502  13.476  13.713  13.863
13202SOL    HW141503  13.406  13.776  13.880
13202SOL    HW241504  13.472  13.698  13.769
13203SOL     OW41505   3.351  10.019  13.398
13203SOL    HW141506   3.295  10.085  13.357
13203SOL    HW241507   3.322   9.936  13.361
13204SOL     OW41508   9.759   3.809   0.526
13204SOL    HW141509   9.780   3.797   0.433
13204SOL    HW241510   9.749   3.903   0.536
13205SOL     OW41511   7.954  10.351  14.286
13205SOL    HW141512   8.026  10.415  14.286
13205SOL    HW241513   7.876  10.403  14.265
13206SOL     OW41514   8.978   8.337  10.263
13206SOL    HW141515   8.919   8.279  10.215
13206SOL    HW241516   8.921   8.402  10.304
13207SOL     OW41517   4.999   9.674  13.776
13207SOL    HW141518   5.031   9.617  13.706
13207SOL    HW241519   5.005   9.621  13.855
13208SOL     OW41520   4.809  13.463  12.113
13208SOL    HW141521   4.737  13.519  12.142
13208SOL    HW241522   4.798  13.381  12.161
13209SOL     OW41523   2.020   4.395  13.271
13209SOL    HW141524   2.050   4.307  13.292
13209SOL    HW241525   1.924   4.390  13.276
13210SOL     OW41526   5.833   2.590   9.211
13210SOL    HW141527   5.822   2.676   9.252
13210SOL    HW241528   5.747   2.549   9.219
13211SOL     OW41529   9.050   8.441   7.790
13211SOL    HW141530   9.119   8.502   7.763
13211SOL    HW241531   8.974   8.465   7.736
13212SOL     OW41532   4.555  14.613   8.394
13212SOL    HW141533   4.589  14.598   8.483
13212SOL    HW241534   4.504  14.694   8.402
13213SOL     OW41535   1.574   6.094  11.785
13213SOL    HW141536   1.658   6.060  11.815
13213SOL    HW241537   1.541   6.144  11.860
13214SOL     OW41538   5.064  14.795   6.692
13214SOL    HW141539   5.102  14.853   6.758
13214SOL    HW241540   5.022  14.853   6.629
13215SOL     OW41541   5.356   8.445   4.068
13215SOL    HW141542   5.367   8.382   4.139
13215SOL    HW241543   5.371   8.394   3.988
13216SOL     OW41544  12.064   4.935   2.038
13216SOL    HW141545  12.016   4.866   2.084
13216SOL    HW241546  12.102   4.989   2.108
13217SOL     OW41547   1.472  13.693  11.444
13217SOL    HW141548   1.512  13.773  11.409
13217SOL    HW241549   1.547  13.638  11.470
13218SOL     OW41550  10.238   8.888  12.734
13218SOL    HW141551  10.220   8.875  12.827
13218SOL    HW241552  10.162   8.937  12.701
13219SOL     OW41553   4.066   3.460  12.867
13219SOL    HW141554   4.018   3.533  12.829
13219SOL    HW241555   4.091   3.406  12.791
13220SOL     OW41556   7.314   3.805   1.609
13220SOL    HW141557   7.340   3.896   1.621
13220SOL    HW241558   7.341   3.783   1.520
13221SOL     OW41559   2.310   5.750  14.663
13221SOL    HW141560   2.242   5.693  14.699
13221SOL    HW241561   2.360   5.779  14.740
13222SOL     OW41562   2.944   9.604   4.588
13222SOL    HW141563   2.981   9.552   4.659
13222SOL    HW241564   3.009   9.674   4.573
13223SOL     OW41565   2.217  14.540   2.027
13223SOL    HW141566   2.240  14.572   1.940
13223SOL    HW241567   2.122  14.534   2.026
13224SOL     OW41568  12.904  14.201   9.123
13224SOL    HW141569  12.960  14.211   9.200
13224SOL    HW241570  12.948  14.136   9.069
13225SOL     OW41571   5.481   2.059   6.958
13225SOL    HW141572   5.388   2.076   6.943
13225SOL    HW241573   5.483   1.980   7.011
13226SOL     OW41574   1.271  11.338   1.031
13226SOL    HW141575   1.247  11.267   1.090
13226SOL    HW241576   1.192  11.355   0.980
13227SOL     OW41577   7.334  10.916   5.718
13227SOL    HW141578   7.319  10.880   5.630
13227SOL    HW241579   7.253  10.962   5.739
13228SOL     OW41580  10.747   3.750   7.460
13228SOL    HW141581  10.833   3.728   7.424
13228SOL    HW241582  10.693   3.674   7.440
13229SOL     OW41583  11.398  13.136  13.371
13229SOL    HW141584  11.405  13.064  13.434
13229SOL    HW241585  11.484  13.178  13.375
13230SOL     OW41586  12.921  14.677   2.168
13230SOL    HW141587  12.880  14.686   2.254
13230SOL    HW241588  12.954  14.764   2.148
13231SOL     OW41589   7.213   5.212   2.884
13231SOL    HW141590   7.239   5.252   2.967
13231SOL    HW241591   7.282   5.236   2.823
13232SOL     OW41592  10.744   3.139  12.767
13232SOL    HW141593  10.716   3.202  12.700
13232SOL    HW241594  10.663   3.097  12.796
13233SOL     OW41595   1.113   7.814  13.379
13233SOL    HW141596   1.120   7.860  13.462
13233SOL    HW241597   1.165   7.866  13.318
13234SOL     OW41598   2.619  13.655   8.224
13234SOL    HW141599   2.605  13.714   8.298
13234SOL    HW241600   2.701  13.610   8.244
13235SOL     OW41601   7.071  11.366  11.156
13235SOL    HW141602   7.110  11.330  11.076
13235SOL    HW241603   7.128  11.440  11.179
13236SOL     OW41604   5.194   4.113  12.270
13236SOL    HW141605   5.157   4.030  12.299
13236SOL    HW241606   5.124   4.154  12.219
13237SOL     OW41607   1.847   8.862   2.630
13237SOL    HW141608   1.781   8.864   2.561
13237SOL    HW241609   1.886   8.774   2.624
13238SOL     OW41610  12.580  11.381  10.234
13238SOL    HW141611  12.590  11.476  10.232
13238SOL    HW241612  12.646  11.351  10.297
13239SOL     OW41613   5.576  11.375   4.208
13239SOL    HW141614   5.582  11.367   4.112
13239SOL    HW241615   5.657  11.418   4.233
13240SOL     OW41616   7.210   9.228   4.857
13240SOL    HW141617   7.116   9.213   4.848
13240SOL    HW241618   7.229   9.207   4.948
13241SOL     OW41619  11.001   5.852   4.683
13241SOL    HW141620  11.057   5.901   4.743
13241SOL    HW241621  11.024   5.760   4.698
13242SOL     OW41622   1.300   9.001   7.327
13242SOL    HW141623   1.341   8.966   7.406
13242SOL    HW241624   1.256   8.926   7.288
13243SOL     OW41625   8.968   0.820   7.053
13243SOL    HW141626   8.984   0.890   6.989
13243SOL    HW241627   9.056   0.789   7.076
13244SOL     OW41628   6.545   9.591   5.051
13244SOL    HW141629   6.495   9.671   5.070
13244SOL    HW241630   6.478   9.524   5.039
13245SOL     OW41631   5.538   0.771   9.226
13245SOL    HW141632   5.568   0.783   9.136
13245SOL    HW241633   5.599   0.821   9.279
13246SOL     OW41634   6.529   1.701  11.461
13246SOL    HW141635   6.599   1.758  11.493
13246SOL    HW241636   6.501   1.743  11.379
13247SOL     OW41637   2.694   9.539   6.306
13247SOL    HW141638   2.737   9.471   6.254
13247SOL    HW241639   2.606   9.545   6.271
13248SOL     OW41640  10.868  13.123   6.983
13248SOL    HW141641  10.962  13.137   6.979
13248SOL    HW241642  10.835  13.159   6.901
13249SOL     OW41643   9.670  12.699  13.357
13249SOL    HW141644   9.754  12.657  13.341
13249SOL    HW241645   9.630  12.705  13.270
13250SOL     OW41646   7.374   1.535   7.168
13250SOL    HW141647   7.450   1.479   7.180
13250SOL    HW241648   7.300   1.475   7.166
13251SOL     OW41649   9.494   9.006  14.239
13251SOL    HW141650   9.499   9.057  14.320
13251SOL    HW241651   9.585   8.991  14.215
13252SOL     OW41652  12.685  10.971  10.485
13252SOL    HW141653  12.647  10.973  10.573
13252SOL    HW241654  12.625  10.916  10.434
13253SOL     OW41655   9.173   2.581   8.024
13253SOL    HW141656   9.234   2.512   8.000
13253SOL    HW241657   9.200   2.656   7.971
13254SOL     OW41658   9.695  13.211   5.699
13254SOL    HW141659   9.788  13.213   5.720
13254SOL    HW241660   9.665  13.125   5.731
13255SOL     OW41661   4.783   4.131   9.549
13255SOL    HW141662   4.878   4.120   9.550
13255SOL    HW241663   4.770   4.226   9.551
13256SOL     OW41664   4.030   8.174   9.611
13256SOL    HW141665   4.093   8.234   9.651
13256SOL    HW241666   4.083   8.113   9.560
13257SOL     OW41667   5.224   0.994   3.186
13257SOL    HW141668   5.263   0.928   3.129
13257SOL    HW241669   5.129   0.982   3.174
13258SOL     OW41670  10.424  10.337  14.790
13258SOL    HW141671  10.491  10.401  14.767
13258SOL    HW241672  10.467  10.252  14.783
13259SOL     OW41673  13.905   1.560  13.332
13259SOL    HW141674  13.921   1.614  13.410
13259SOL    HW241675  13.938   1.474  13.354
13260SOL     OW41676   1.339   7.988   9.997
13260SOL    HW141677   1.370   8.047  10.066
13260SOL    HW241678   1.386   8.017   9.918
13261SOL     OW41679   5.023   9.953   3.833
13261SOL    HW141680   5.023  10.046   3.812
13261SOL    HW241681   4.983   9.947   3.919
13262SOL     OW41682   4.518   1.182  12.749
13262SOL    HW141683   4.493   1.134  12.670
13262SOL    HW241684   4.453   1.251  12.757
13263SOL     OW41685  11.782  14.338   5.624
13263SOL    HW141686  11.799  14.296   5.708
13263SOL    HW241687  11.702  14.387   5.638
13264SOL     OW41688   5.793   3.863   4.691
13264SOL    HW141689   5.849   3.793   4.724
13264SOL    HW241690   5.844   3.943   4.706
13265SOL     OW41691   6.273   4.363   3.475
13265SOL    HW141692   6.304   4.296   3.537
13265SOL    HW241693   6.213   4.417   3.526
13266SOL     OW41694   5.768   6.551  10.955
13266SOL    HW141695   5.784   6.458  10.965
13266SOL    HW241696   5.846   6.584  10.910
13267SOL     OW41697   2.663   9.411   5.704
13267SOL    HW141698   2.693   9.321   5.713
13267SOL    HW241699   2.651   9.423   5.609
13268SOL     OW41700  10.558   3.260  11.573
13268SOL    HW141701  10.605   3.210  11.507
13268SOL    HW241702  10.471   3.275  11.535
13269SOL     OW41703   0.431   4.253  12.467
13269SOL    HW141704   0.440   4.163  12.436
13269SOL    HW241705   0.507   4.298  12.429
13270SOL     OW41706  11.624   9.134   8.964
13270SOL    HW141707  11.716   9.160   8.972
13270SOL    HW241708  11.627   9.038   8.964
13271SOL     OW41709   6.911   8.542  12.763
13271SOL    HW141710   6.982   8.524  12.825
13271SOL    HW241711   6.937   8.624  12.721
13272SOL     OW41712   6.334   9.857   4.714
13272SOL    HW141713   6.364   9.847   4.804
13272SOL    HW241714   6.394   9.802   4.662
13273SOL     OW41715   5.789   8.182   9.240
13273SOL    HW141716   5.837   8.257   9.276
13273SOL    HW241717   5.856   8.133   9.192
13274SOL     OW41718  11.088   6.988  11.112
13274SOL    HW141719  11.056   6.905  11.148
13274SOL    HW241720  11.030   7.054  11.149
13275SOL     OW41721   4.161   8.904   4.181
13275SOL    HW141722   4.150   8.952   4.263
13275SOL    HW241723   4.189   8.817   4.208
13276SOL     OW41724  14.739  13.437  12.195
13276SOL    HW141725  14.789  13.369  12.238
13276SOL    HW241726  14.647  13.410  12.206
13277SOL     OW41727  11.595   8.032   8.921
13277SOL    HW141728  11.666   8.028   8.985
13277SOL    HW241729  11.629   8.090   8.852
13278SOL     OW41730   3.110   6.730   0.350
13278SOL    HW141731   3.076   6.812   0.315
13278SOL    HW241732   3.167   6.757   0.422
13279SOL     OW41733   7.574   5.732   0.316
13279SOL    HW141734   7.540   5.774   0.395
13279SOL    HW241735   7.624   5.657   0.348
13280SOL     OW41736  12.219   3.953   2.522
13280SOL    HW141737  12.132   3.993   2.514
13280SOL    HW241738  12.278   4.015   2.478
13281SOL     OW41739  12.339  13.815   9.277
13281SOL    HW141740  12.324  13.828   9.183
13281SOL    HW241741  12.254  13.786   9.311
13282SOL     OW41742   7.175   1.989   0.103
13282SOL    HW141743   7.202   2.078   0.081
13282SOL    HW241744   7.100   2.001   0.161
13283SOL     OW41745   7.418  14.494   3.943
13283SOL    HW141746   7.494  14.441   3.968
13283SOL    HW241747   7.441  14.583   3.969
13284SOL     OW41748   4.160  11.971   7.393
13284SOL    HW141749   4.252  11.948   7.386
13284SOL    HW241750   4.119  11.932   7.316
13285SOL     OW41751  10.720  11.375  12.292
13285SOL    HW141752  10.736  11.403  12.201
13285SOL    HW241753  10.642  11.424  12.318
13286SOL     OW41754   5.595  13.344  13.685
13286SOL    HW141755   5.564  13.279  13.748
13286SOL    HW241756   5.593  13.427  13.733
13287SOL     OW41757   8.421   4.206   7.738
13287SOL    HW141758   8.396   4.270   7.804
13287SOL    HW241759   8.462   4.257   7.669
13288SOL     OW41760   8.940   1.637  13.353
13288SOL    HW141761   8.906   1.681  13.275
13288SOL    HW241762   8.919   1.545  13.340
13289SOL     OW41763  11.389  12.530   5.127
13289SOL    HW141764  11.374  12.559   5.037
13289SOL    HW241765  11.478  12.558   5.147
13290SOL     OW41766   6.562  12.422   5.860
13290SOL    HW141767   6.524  12.481   5.924
13290SOL    HW241768   6.539  12.334   5.892
13291SOL     OW41769   2.392  10.593  13.064
13291SOL    HW141770   2.407  10.686  13.077
13291SOL    HW241771   2.403  10.580  12.970
13292SOL     OW41772   2.205  13.125   5.426
13292SOL    HW141773   2.137  13.157   5.367
13292SOL    HW241774   2.267  13.080   5.368
13293SOL     OW41775   1.170  12.536   5.179
13293SOL    HW141776   1.156  12.530   5.085
13293SOL    HW241777   1.150  12.449   5.212
13294SOL     OW41778   3.140   7.053   2.986
13294SOL    HW141779   3.181   7.083   2.904
13294SOL    HW241780   3.111   7.134   3.029
13295SOL     OW41781  14.541   9.889   6.236
13295SOL    HW141782  14.575   9.837   6.308
13295SOL    HW241783  14.482   9.953   6.277
13296SOL     OW41784   2.765   6.043   9.302
13296SOL    HW141785   2.834   6.095   9.261
13296SOL    HW241786   2.719   6.002   9.229
13297SOL     OW41787  11.748   1.259   8.517
13297SOL    HW141788  11.733   1.194   8.586
13297SOL    HW241789  11.660   1.292   8.497
13298SOL     OW41790   4.624  11.663  11.709
13298SOL    HW141791   4.599  11.722  11.780
13298SOL    HW241792   4.544  11.612  11.691
13299SOL     OW41793   8.107   3.881   6.855
13299SOL    HW141794   8.124   3.903   6.764
13299SOL    HW241795   8.033   3.820   6.852
13300SOL     OW41796   9.615  10.320   1.377
13300SOL    HW141797   9.554  10.265   1.328
13300SOL    HW241798   9.621  10.401   1.326
13301SOL     OW41799   6.949  12.515  13.199
13301SOL    HW141800   6.902  12.466  13.131
13301SOL    HW241801   6.993  12.448  13.251
13302SOL     OW41802   8.865   2.383  14.342
13302SOL    HW141803   8.831   2.447  14.280
13302SOL    HW241804   8.827   2.409  14.426
13303SOL     OW41805   2.052   5.635   6.152
13303SOL    HW141806   2.080   5.550   6.187
13303SOL    HW241807   2.131   5.688   6.153
13304SOL     OW41808  13.749   9.413   1.629
13304SOL    HW141809  13.675   9.356   1.648
13304SOL    HW241810  13.824   9.368   1.667
13305SOL     OW41811  10.810   1.686   2.315
13305SOL    HW141812  10.850   1.625   2.254
13305SOL    HW241813  10.795   1.765   2.263
13306SOL     OW41814  14.614   3.107   2.799
13306SOL    HW141815  14.618   3.201   2.781
13306SOL    HW241816  14.652   3.066   2.721
13307SOL     OW41817   2.123   4.723  14.736
13307SOL    HW141818   2.072   4.789  14.784
13307SOL    HW241819   2.175   4.679  14.803
13308SOL     OW41820   8.997   3.402  11.037
13308SOL    HW141821   8.983   3.359  11.121
13308SOL    HW241822   8.909   3.430  11.009
13309SOL     OW41823  11.986   5.841   1.161
13309SOL    HW141824  11.906   5.893   1.150
13309SOL    HW241825  12.043   5.870   1.089
13310SOL     OW41826  12.733   7.855   8.187
13310SOL    HW141827  12.638   7.862   8.198
13310SOL    HW241828  12.744   7.828   8.096
13311SOL     OW41829   7.837   5.835  11.378
13311SOL    HW141830   7.802   5.858  11.291
13311SOL    HW241831   7.797   5.899  11.437
13312SOL     OW41832  14.831  14.660   2.447
13312SOL    HW141833  14.845  14.635   2.538
13312SOL    HW241834  14.826  14.577   2.400
13313SOL     OW41835  12.561   9.740   6.643
13313SOL    HW141836  12.484   9.736   6.585
13313SOL    HW241837  12.635   9.722   6.585
13314SOL     OW41838   4.592  12.807  10.014
13314SOL    HW141839   4.665  12.838  10.067
13314SOL    HW241840   4.596  12.861   9.935
13315SOL     OW41841   0.921   1.990   4.860
13315SOL    HW141842   1.001   2.042   4.855
13315SOL    HW241843   0.854   2.045   4.818
13316SOL     OW41844  14.076   6.040   7.712
13316SOL    HW141845  14.150   5.995   7.671
13316SOL    HW241846  14.108   6.128   7.730
13317SOL     OW41847  10.427  10.374  12.699
13317SOL    HW141848  10.385  10.344  12.779
13317SOL    HW241849  10.489  10.304  12.676
13318SOL     OW41850   6.429   2.742  11.806
13318SOL    HW141851   6.355   2.802  11.793
13318SOL    HW241852   6.390   2.665  11.846
13319SOL     OW41853  11.942   6.634   8.160
13319SOL    HW141854  11.865   6.691   8.167
13319SOL    HW241855  11.928   6.566   8.226
13320SOL     OW41856  11.961  12.561   2.954
13320SOL    HW141857  11.923  12.495   3.013
13320SOL    HW241858  12.050  12.532   2.939
13321SOL     OW41859   8.976  10.877  12.812
13321SOL    HW141860   9.037  10.913  12.748
13321SOL    HW241861   9.026  10.807  12.855
13322SOL     OW41862  10.901   4.714   2.426
13322SOL    HW141863  10.944   4.765   2.357
13322SOL    HW241864  10.830   4.668   2.381
13323SOL     OW41865   4.656   2.769  11.971
13323SOL    HW141866   4.703   2.759  12.054
13323SOL    HW241867   4.595   2.841  11.986
13324SOL     OW41868  13.399  14.599   4.152
13324SOL    HW141869  13.426  14.690   4.152
13324SOL    HW241870  13.481  14.549   4.150
13325SOL     OW41871  13.004   1.313   6.717
13325SOL    HW141872  12.962   1.227   6.716
13325SOL    HW241873  13.031   1.325   6.808
13326SOL     OW41874  11.680   2.000   2.028
13326SOL    HW141875  11.699   2.019   1.936
13326SOL    HW241876  11.686   1.904   2.034
13327SOL     OW41877  11.877   9.136  12.514
13327SOL    HW141878  11.792   9.115  12.474
13327SOL    HW241879  11.855   9.197  12.585
13328SOL     OW41880   4.416   2.286  14.760
13328SOL    HW141881   4.389   2.243  14.679
13328SOL    HW241882   4.441   2.374  14.732
13329SOL     OW41883   8.649  14.525   9.880
13329SOL    HW141884   8.704  14.482   9.945
13329SOL    HW241885   8.579  14.566   9.930
13330SOL     OW41886   4.480   2.724   2.386
13330SOL    HW141887   4.477   2.662   2.458
13330SOL    HW241888   4.510   2.672   2.311
13331SOL     OW41889  12.978   9.756   4.551
13331SOL    HW141890  12.954   9.756   4.458
13331SOL    HW241891  13.010   9.668   4.568
13332SOL     OW41892  12.071  10.050   3.917
13332SOL    HW141893  12.023  10.103   3.854
13332SOL    HW241894  12.035  10.074   4.002
13333SOL     OW41895   1.937   9.528  11.903
13333SOL    HW141896   1.844   9.538  11.881
13333SOL    HW241897   1.961   9.442  11.867
13334SOL     OW41898   8.455   1.398   7.151
13334SOL    HW141899   8.461   1.304   7.168
13334SOL    HW241900   8.392   1.430   7.216
13335SOL     OW41901   4.497   4.299   6.606
13335SOL    HW141902   4.482   4.300   6.701
13335SOL    HW241903   4.494   4.392   6.581
13336SOL     OW41904   1.963   5.006   4.570
13336SOL    HW141905   2.005   4.929   4.607
13336SOL    HW241906   1.888   4.971   4.521
13337SOL     OW41907   7.054   5.864   8.177
13337SOL    HW141908   6.972   5.882   8.130
13337SOL    HW241909   7.119   5.856   8.107
13338SOL     OW41910   9.280   4.592   7.186
13338SOL    HW141911   9.234   4.570   7.268
13338SOL    HW241912   9.324   4.511   7.161
13339SOL     OW41913   2.380   7.801  12.112
13339SOL    HW141914   2.458   7.853  12.131
13339SOL    HW241915   2.333   7.798  12.195
13340SOL     OW41916  13.450   1.348   0.825
13340SOL    HW141917  13.502   1.428   0.825
13340SOL    HW241918  13.360   1.378   0.826
13341SOL     OW41919   0.367   1.882  13.169
13341SOL    HW141920   0.454   1.856  13.138
13341SOL    HW241921   0.310   1.874  13.092
13342SOL     OW41922   8.745   3.356   3.589
13342SOL    HW141923   8.687   3.312   3.651
13342SOL    HW241924   8.830   3.357   3.633
13343SOL     OW41925   9.028  14.425   1.798
13343SOL    HW141926   8.998  14.509   1.831
13343SOL    HW241927   9.032  14.369   1.876
13344SOL     OW41928   2.874   5.550   5.693
13344SOL    HW141929   2.791   5.546   5.741
13344SOL    HW241930   2.925   5.617   5.739
13345SOL     OW41931   1.420  11.299   3.268
13345SOL    HW141932   1.367  11.238   3.217
13345SOL    HW241933   1.492  11.323   3.209
13346SOL     OW41934   2.138   0.747   5.553
13346SOL    HW141935   2.068   0.709   5.607
13346SOL    HW241936   2.095   0.767   5.470
13347SOL     OW41937  12.467   4.670   6.845
13347SOL    HW141938  12.391   4.615   6.828
13347SOL    HW241939  12.508   4.682   6.760
13348SOL     OW41940   0.135  11.409   8.161
13348SOL    HW141941   0.225  11.380   8.176
13348SOL    HW241942   0.138  11.504   8.174
13349SOL     OW41943  11.706   2.889  10.520
13349SOL    HW141944  11.712   2.909  10.614
13349SOL    HW241945  11.709   2.974  10.477
13350SOL     OW41946  11.126  12.877   6.153
13350SOL    HW141947  11.108  12.969   6.169
13350SOL    HW241948  11.090  12.831   6.229
13351SOL     OW41949  11.356   9.989  13.323
13351SOL    HW141950  11.384   9.986  13.415
13351SOL    HW241951  11.297  10.064  13.318
13352SOL     OW41952   5.972   0.987   2.614
13352SOL    HW141953   6.003   0.906   2.653
13352SOL    HW241954   6.043   1.014   2.555
13353SOL     OW41955  11.790  13.693   9.938
13353SOL    HW141956  11.829  13.781   9.943
13353SOL    HW241957  11.840  13.649   9.870
13354SOL     OW41958  13.430   6.556  12.721
13354SOL    HW141959  13.429   6.500  12.798
13354SOL    HW241960  13.429   6.495  12.647
13355SOL     OW41961  10.735  11.287   0.733
13355SOL    HW141962  10.717  11.378   0.758
13355SOL    HW241963  10.783  11.294   0.651
13356SOL     OW41964   0.891   8.298   8.037
13356SOL    HW141965   0.893   8.358   8.112
13356SOL    HW241966   0.861   8.215   8.074
13357SOL     OW41967   2.998  13.506   5.766
13357SOL    HW141968   2.967  13.597   5.761
13357SOL    HW241969   2.950  13.468   5.839
13358SOL     OW41970  11.888   6.153  14.754
13358SOL    HW141971  11.932   6.069  14.764
13358SOL    HW241972  11.847   6.150  14.668
13359SOL     OW41973   6.872   0.484   0.767
13359SOL    HW141974   6.799   0.534   0.731
13359SOL    HW241975   6.897   0.531   0.847
13360SOL     OW41976   6.391   9.066  14.654
13360SOL    HW141977   6.455   9.008  14.695
13360SOL    HW241978   6.440   9.146  14.635
13361SOL     OW41979   1.499  12.744  12.947
13361SOL    HW141980   1.539  12.806  12.886
13361SOL    HW241981   1.554  12.666  12.942
13362SOL     OW41982   8.695  14.511  13.108
13362SOL    HW141983   8.703  14.444  13.176
13362SOL    HW241984   8.617  14.487  13.059
13363SOL     OW41985   8.849   0.598   3.347
13363SOL    HW141986   8.864   0.569   3.437
13363SOL    HW241987   8.774   0.547   3.317
13364SOL     OW41988   4.197  10.010   1.919
13364SOL    HW141989   4.175  10.047   2.004
13364SOL    HW241990   4.171  10.078   1.856
13365SOL     OW41991  11.420   0.718   5.433
13365SOL    HW141992  11.349   0.731   5.369
13365SOL    HW241993  11.434   0.623   5.434
13366SOL     OW41994   5.360  10.365   1.515
13366SOL    HW141995   5.336  10.317   1.435
13366SOL    HW241996   5.313  10.447   1.508
13367SOL     OW41997  13.801   2.021   2.580
13367SOL    HW141998  13.786   2.007   2.674
13367SOL    HW241999  13.859   1.950   2.554
13368SOL     OW42000  13.035  13.881  14.656
13368SOL    HW142001  13.012  13.974  14.659
13368SOL    HW242002  13.103  13.871  14.722
13369SOL     OW42003  10.938   8.032   5.544
13369SOL    HW142004  10.906   7.950   5.506
13369SOL    HW242005  11.017   8.053   5.495
13370SOL     OW42006   5.158  10.737   0.372
13370SOL    HW142007   5.158  10.779   0.458
13370SOL    HW242008   5.242  10.760   0.334
13371SOL     OW42009   5.983  11.892   9.315
13371SOL    HW142010   6.060  11.847   9.279
13371SOL    HW242011   5.942  11.934   9.239
13372SOL     OW42012   8.142   9.362   0.440
13372SOL    HW142013   8.232   9.354   0.473
13372SOL    HW242014   8.110   9.272   0.440
13373SOL     OW42015   3.542  14.676   7.197
13373SOL    HW142016   3.506  14.649   7.112
13373SOL    HW242017   3.618  14.619   7.210
13374SOL     OW42018  12.920  10.465   1.627
13374SOL    HW142019  12.955  10.445   1.714
13374SOL    HW242020  12.828  10.441   1.633
13375SOL     OW42021   7.463  10.082   0.118
13375SOL    HW142022   7.435  10.124   0.036
13375SOL    HW242023   7.508  10.003   0.090
13376SOL     OW42024   2.317   1.692   3.805
13376SOL    HW142025   2.319   1.784   3.831
13376SOL    HW242026   2.361   1.646   3.876
13377SOL     OW42027   2.961  12.048  13.913
13377SOL    HW142028   3.052  12.077  13.909
13377SOL    HW242029   2.923  12.094  13.988
13378SOL     OW42030   9.091  14.163  13.400
13378SOL    HW142031   9.015  14.188  13.347
13378SOL    HW242032   9.162  14.153  13.336
13379SOL     OW42033   3.540   3.755  11.483
13379SOL    HW142034   3.568   3.693  11.415
13379SOL    HW242035   3.619   3.773  11.533
13380SOL     OW42036  10.820   7.400   0.270
13380SOL    HW142037  10.755   7.465   0.245
13380SOL    HW242038  10.796   7.322   0.220
13381SOL     OW42039  10.544  12.541  12.288
13381SOL    HW142040  10.543  12.609  12.220
13381SOL    HW242041  10.582  12.584  12.364
13382SOL     OW42042   3.718  12.083   5.987
13382SOL    HW142043   3.775  12.156   6.011
13382SOL    HW242044   3.633  12.122   5.969
13383SOL     OW42045   8.923  12.390  12.733
13383SOL    HW142046   8.856  12.459  12.726
13383SOL    HW242047   8.887  12.317  12.683
13384SOL     OW42048   6.745   3.929   9.489
13384SOL    HW142049   6.758   4.018   9.455
13384SOL    HW242050   6.827   3.884   9.469
13385SOL     OW42051   0.814   5.168  14.643
13385SOL    HW142052   0.808   5.182  14.549
13385SOL    HW242053   0.806   5.074  14.655
13386SOL     OW42054   2.333   0.102   9.884
13386SOL    HW142055   2.254   0.070   9.928
13386SOL    HW242056   2.405   0.068   9.937
13387SOL     OW42057   6.684  10.801   3.019
13387SOL    HW142058   6.596  10.833   3.037
13387SOL    HW242059   6.732  10.817   3.101
13388SOL     OW42060   9.391   7.562  12.676
13388SOL    HW142061   9.435   7.606  12.749
13388SOL    HW242062   9.393   7.625  12.605
13389SOL     OW42063   3.199   2.302  14.732
13389SOL    HW142064   3.264   2.367  14.758
13389SOL    HW242065   3.246   2.245  14.671
13390SOL     OW42066  13.907   0.251   8.267
13390SOL    HW142067  13.955   0.216   8.342
13390SOL    HW242068  13.816   0.230   8.284
13391SOL     OW42069   8.013   1.747   6.590
13391SOL    HW142070   7.954   1.678   6.560
13391SOL    HW242071   8.016   1.736   6.685
13392SOL     OW42072   2.353   6.871  11.089
13392SOL    HW142073   2.433   6.874  11.143
13392SOL    HW242074   2.285   6.842  11.149
13393SOL     OW42075   2.367  10.085  13.524
13393SOL    HW142076   2.398  10.136  13.450
13393SOL    HW242077   2.321  10.148  13.579
13394SOL     OW42078   8.432   9.430   1.504
13394SOL    HW142079   8.400   9.347   1.469
13394SOL    HW242080   8.355   9.487   1.506
13395SOL     OW42081   3.010   0.178  13.532
13395SOL    HW142082   3.050   0.097  13.498
13395SOL    HW242083   2.934   0.148  13.581
13396SOL     OW42084   2.719   2.418  10.193
13396SOL    HW142085   2.643   2.390  10.141
13396SOL    HW242086   2.694   2.401  10.283
13397SOL     OW42087  12.995  10.925   1.263
13397SOL    HW142088  13.039  10.867   1.201
13397SOL    HW242089  12.943  10.866   1.318
13398SOL     OW42090   7.178  13.371   2.507
13398SOL    HW142091   7.085  13.367   2.487
13398SOL    HW242092   7.198  13.464   2.514
13399SOL     OW42093  14.550  11.036  11.381
13399SOL    HW142094  14.496  11.047  11.302
13399SOL    HW242095  14.584  10.947  11.373
13400SOL     OW42096  10.792  11.907   2.789
13400SOL    HW142097  10.799  11.834   2.851
13400SOL    HW242098  10.723  11.962   2.826
13401SOL     OW42099  12.526  13.682  14.122
13401SOL    HW142100  12.595  13.725  14.071
13401SOL    HW242101  12.463  13.751  14.142
13402SOL     OW42102   5.052   3.388   9.809
13402SOL    HW142103   4.977   3.404   9.866
13402SOL    HW242104   5.018   3.330   9.740
13403SOL     OW42105   4.897   6.119   1.703
13403SOL    HW142106   4.872   6.034   1.740
13403SOL    HW242107   4.861   6.118   1.614
13404SOL     OW42108   2.363   5.199   8.981
13404SOL    HW142109   2.455   5.189   8.959
13404SOL    HW242110   2.342   5.121   9.033
13405SOL     OW42111   4.423   9.303   3.229
13405SOL    HW142112   4.462   9.300   3.316
13405SOL    HW242113   4.485   9.256   3.173
13406SOL     OW42114  10.138   0.148   6.852
13406SOL    HW142115  10.105   0.181   6.936
13406SOL    HW242116  10.216   0.097   6.876
13407SOL     OW42117   3.867   7.332   2.387
13407SOL    HW142118   3.810   7.257   2.401
13407SOL    HW242119   3.917   7.309   2.308
13408SOL     OW42120  14.273   8.018   8.163
13408SOL    HW142121  14.319   8.069   8.230
13408SOL    HW242122  14.218   8.081   8.118
13409SOL     OW42123   1.921  10.345   7.978
13409SOL    HW142124   1.864  10.288   8.029
13409SOL    HW242125   1.999  10.292   7.961
13410SOL     OW42126   3.215   6.670   1.292
13410SOL    HW142127   3.125   6.668   1.325
13410SOL    HW242128   3.262   6.608   1.347
13411SOL     OW42129   2.438   0.591   6.639
13411SOL    HW142130   2.366   0.557   6.692
13411SOL    HW242131   2.423   0.685   6.636
13412SOL     OW42132   1.172   0.573  12.161
13412SOL    HW142133   1.261   0.602  12.177
13412SOL    HW242134   1.122   0.603  12.237
13413SOL     OW42135   2.451   6.581  10.419
13413SOL    HW142136   2.518   6.622  10.474
13413SOL    HW242137   2.376   6.640  10.426
13414SOL     OW42138   3.497   1.757  13.450
13414SOL    HW142139   3.404   1.742  13.469
13414SOL    HW242140   3.501   1.850  13.425
13415SOL     OW42141   5.481   5.598   9.925
13415SOL    HW142142   5.566   5.600   9.969
13415SOL    HW242143   5.418   5.593   9.996
13416SOL     OW42144   7.661   6.220   5.132
13416SOL    HW142145   7.677   6.223   5.226
13416SOL    HW242146   7.593   6.153   5.121
13417SOL     OW42147  12.679   2.016   7.863
13417SOL    HW142148  12.606   1.956   7.875
13417SOL    HW242149  12.649   2.099   7.902
13418SOL     OW42150   5.767  13.365  14.699
13418SOL    HW142151   5.768  13.289  14.757
13418SOL    HW242152   5.675  13.393  14.698
13419SOL     OW42153   7.341   5.830   1.417
13419SOL    HW142154   7.326   5.738   1.437
13419SOL    HW242155   7.360   5.832   1.323
13420SOL     OW42156   2.148  11.824  10.431
13420SOL    HW142157   2.095  11.769  10.373
13420SOL    HW242158   2.152  11.908  10.386
13421SOL     OW42159   9.639   9.422  11.409
13421SOL    HW142160   9.592   9.345  11.378
13421SOL    HW242161   9.634   9.417  11.505
13422SOL     OW42162   6.854   9.110  10.398
13422SOL    HW142163   6.822   9.200  10.398
13422SOL    HW242164   6.784   9.060  10.439
13423SOL     OW42165   1.721   5.519   5.443
13423SOL    HW142166   1.795   5.458   5.450
13423SOL    HW242167   1.713   5.537   5.350
13424SOL     OW42168  10.386   1.265   1.889
13424SOL    HW142169  10.295   1.276   1.919
13424SOL    HW242170  10.395   1.171   1.875
13425SOL     OW42171  10.830   1.122  13.527
13425SOL    HW142172  10.923   1.134  13.546
13425SOL    HW242173  10.805   1.202  13.481
13426SOL     OW42174  11.760   3.253   8.668
13426SOL    HW142175  11.817   3.177   8.661
13426SOL    HW242176  11.793   3.301   8.744
13427SOL     OW42177  12.793   9.235   2.754
13427SOL    HW142178  12.877   9.274   2.730
13427SOL    HW242179  12.778   9.166   2.689
13428SOL     OW42180   7.977   6.681  13.655
13428SOL    HW142181   7.926   6.601  13.662
13428SOL    HW242182   7.942   6.738  13.724
13429SOL     OW42183  14.034   3.334   0.343
13429SOL    HW142184  14.037   3.367   0.253
13429SOL    HW242185  14.101   3.266   0.346
13430SOL     OW42186   6.889   0.492   1.082
13430SOL    HW142187   6.863   0.404   1.054
13430SOL    HW242188   6.984   0.490   1.081
13431SOL     OW42189   1.625   0.177   2.928
13431SOL    HW142190   1.601   0.124   3.004
13431SOL    HW242191   1.714   0.150   2.906
13432SOL     OW42192  10.518   1.387  13.058
13432SOL    HW142193  10.609   1.386  13.090
13432SOL    HW242194  10.465   1.370  13.136
13433SOL     OW42195   0.965  11.181   6.396
13433SOL    HW142196   0.938  11.260   6.443
13433SOL    HW242197   1.034  11.143   6.450
13434SOL     OW42198   2.135   3.732   2.327
13434SOL    HW142199   2.126   3.760   2.418
13434SOL    HW242200   2.045   3.723   2.295
13435SOL     OW42201   9.825   1.785  12.602
13435SOL    HW142202   9.836   1.874  12.636
13435SOL    HW242203   9.797   1.733  12.677
13436SOL     OW42204   2.029  13.518   8.592
13436SOL    HW142205   2.066  13.551   8.510
13436SOL    HW242206   2.056  13.426   8.596
13437SOL     OW42207   5.947   3.899   5.606
13437SOL    HW142208   5.858   3.881   5.572
13437SOL    HW242209   6.004   3.844   5.552
13438SOL     OW42210   4.091   3.952   7.849
13438SOL    HW142211   4.156   3.897   7.804
13438SOL    HW242212   4.009   3.934   7.803
13439SOL     OW42213   0.227   6.570   6.885
13439SOL    HW142214   0.283   6.620   6.825
13439SOL    HW242215   0.230   6.480   6.852
13440SOL     OW42216   0.851   3.855  13.707
13440SOL    HW142217   0.860   3.762  13.685
13440SOL    HW242218   0.934   3.879  13.747
13441SOL     OW42219  13.542   5.550   1.312
13441SOL    HW142220  13.553   5.456   1.305
13441SOL    HW242221  13.524   5.580   1.223
13442SOL     OW42222   9.975   5.567   9.494
13442SOL    HW142223   9.963   5.581   9.400
13442SOL    HW242224   9.911   5.500   9.517
13443SOL     OW42225   5.379   2.635  14.406
13443SOL    HW142226   5.302   2.684  14.377
13443SOL    HW242227   5.380   2.646  14.501
13444SOL     OW42228  12.526   0.582   3.190
13444SOL    HW142229  12.441   0.626   3.184
13444SOL    HW242230  12.585   0.636   3.137
13445SOL     OW42231   2.751   9.885   0.143
13445SOL    HW142232   2.839   9.859   0.117
13445SOL    HW242233   2.737   9.842   0.228
13446SOL     OW42234  12.101  12.291   6.424
13446SOL    HW142235  12.031  12.247   6.472
13446SOL    HW242236  12.177  12.233   6.434
13447SOL     OW42237   5.378  14.626  14.024
13447SOL    HW142238   5.357  14.679  13.947
13447SOL    HW242239   5.297  14.579  14.044
13448SOL     OW42240   2.967   3.778   7.232
13448SOL    HW142241   3.030   3.707   7.235
13448SOL    HW242242   2.882   3.736   7.241
13449SOL     OW42243   9.372   7.878  11.641
13449SOL    HW142244   9.319   7.892  11.563
13449SOL    HW242245   9.447   7.826  11.611
13450SOL     OW42246   9.006   2.891   1.613
13450SOL    HW142247   9.098   2.876   1.594
13450SOL    HW242248   8.959   2.830   1.556
13451SOL     OW42249   3.931   1.499   6.542
13451SOL    HW142250   3.923   1.548   6.460
13451SOL    HW242251   3.851   1.520   6.590
13452SOL     OW42252   8.627   8.975   0.131
13452SOL    HW142253   8.571   8.970   0.209
13452SOL    HW242254   8.621   9.066   0.103
13453SOL     OW42255   6.743  14.362   8.823
13453SOL    HW142256   6.740  14.280   8.873
13453SOL    HW242257   6.748  14.430   8.890
13454SOL     OW42258   2.252   0.619   1.441
13454SOL    HW142259   2.158   0.619   1.458
13454SOL    HW242260   2.283   0.702   1.478
13455SOL     OW42261   9.769  13.474   8.986
13455SOL    HW142262   9.779  13.399   8.927
13455SOL    HW242263   9.805  13.548   8.936
13456SOL     OW42264  13.319   1.861   7.002
13456SOL    HW142265  13.246   1.867   6.940
13456SOL    HW242266  13.279   1.879   7.087
13457SOL     OW42267  13.325   3.826   3.639
13457SOL    HW142268  13.281   3.766   3.578
13457SOL    HW242269  13.405   3.852   3.592
13458SOL     OW42270  10.839   2.820  12.122
13458SOL    HW142271  10.794   2.744  12.158
13458SOL    HW242272  10.776   2.859  12.061
13459SOL     OW42273   9.640   9.798  11.619
13459SOL    HW142274   9.591   9.747  11.683
13459SOL    HW242275   9.688   9.862  11.671
13460SOL     OW42276   9.419   3.229   5.561
13460SOL    HW142277   9.330   3.202   5.584
13460SOL    HW242278   9.449   3.161   5.500
13461SOL     OW42279   9.531   0.160   5.952
13461SOL    HW142280   9.547   0.101   6.026
13461SOL    HW242281   9.500   0.103   5.882
13462SOL     OW42282  12.290   3.267   3.686
13462SOL    HW142283  12.286   3.202   3.756
13462SOL    HW242284  12.383   3.275   3.665
13463SOL     OW42285   3.890   0.105  11.755
13463SOL    HW142286   3.801   0.070  11.766
13463SOL    HW242287   3.900   0.118  11.661
13464SOL     OW42288   1.541   6.718   3.957
13464SOL    HW142289   1.612   6.702   4.020
13464SOL    HW242290   1.578   6.780   3.895
13465SOL     OW42291  14.717   5.210   0.560
13465SOL    HW142292  14.790   5.223   0.621
13465SOL    HW242293  14.743   5.258   0.482
13466SOL     OW42294  12.151  13.542   0.509
13466SOL    HW142295  12.193  13.602   0.571
13466SOL    HW242296  12.173  13.455   0.541
13467SOL     OW42297   3.489   2.534   1.082
13467SOL    HW142298   3.563   2.500   1.133
13467SOL    HW242299   3.459   2.459   1.032
13468SOL     OW42300   3.325   4.056   0.835
13468SOL    HW142301   3.237   4.018   0.830
13468SOL    HW242302   3.310   4.147   0.861
13469SOL     OW42303   3.349   8.461  12.691
13469SOL    HW142304   3.271   8.433  12.645
13469SOL    HW242305   3.318   8.528  12.753
13470SOL     OW42306  14.186   3.404   5.701
13470SOL    HW142307  14.218   3.404   5.792
13470SOL    HW242308  14.182   3.496   5.677
13471SOL     OW42309   8.979  14.328   6.974
13471SOL    HW142310   8.994  14.285   6.890
13471SOL    HW242311   8.887  14.311   6.994
13472SOL     OW42312   2.842   6.995   5.162
13472SOL    HW142313   2.774   7.049   5.202
13472SOL    HW242314   2.811   6.905   5.173
13473SOL     OW42315  13.917   2.208   2.851
13473SOL    HW142316  13.857   2.135   2.840
13473SOL    HW242317  13.997   2.180   2.808
13474SOL     OW42318  12.151   7.675  11.565
13474SOL    HW142319  12.153   7.672  11.469
13474SOL    HW242320  12.198   7.597  11.593
13475SOL     OW42321   4.819  14.799   0.194
13475SOL    HW142322   4.882  14.850   0.144
13475SOL    HW242323   4.771  14.863   0.246
13476SOL     OW42324   1.945   4.792   8.338
13476SOL    HW142325   1.941   4.785   8.243
13476SOL    HW242326   2.008   4.862   8.355
13477SOL     OW42327  10.026  12.267  14.441
13477SOL    HW142328  10.091  12.313  14.494
13477SOL    HW242329  10.001  12.191  14.494
13478SOL     OW42330   1.832   8.166   3.804
13478SOL    HW142331   1.897   8.218   3.852
13478SOL    HW242332   1.876   8.143   3.722
13479SOL     OW42333   4.616  12.169  10.232
13479SOL    HW142334   4.650  12.230  10.165
13479SOL    HW242335   4.560  12.223  10.287
13480SOL     OW42336   3.646   7.430  11.071
13480SOL    HW142337   3.673   7.521  11.079
13480SOL    HW242338   3.727   7.380  11.084
13481SOL     OW42339  11.889   8.751  12.927
13481SOL    HW142340  11.923   8.840  12.917
13481SOL    HW242341  11.840   8.734  12.847
13482SOL     OW42342  13.882  14.670   6.705
13482SOL    HW142343  13.836  14.604   6.756
13482SOL    HW242344  13.954  14.699   6.761
13483SOL     OW42345  14.671  13.060  14.015
13483SOL    HW142346  14.664  13.153  14.035
13483SOL    HW242347  14.751  13.031  14.059
13484SOL     OW42348   0.329  12.230   6.329
13484SOL    HW142349   0.313  12.275   6.246
13484SOL    HW242350   0.382  12.290   6.380
13485SOL     OW42351   3.334   4.199   4.197
13485SOL    HW142352   3.255   4.191   4.249
13485SOL    HW242353   3.404   4.210   4.261
13486SOL     OW42354  12.151   2.653  10.747
13486SOL    HW142355  12.079   2.716  10.750
13486SOL    HW242356  12.229   2.707  10.732
13487SOL     OW42357   4.271   4.144  10.363
13487SOL    HW142358   4.294   4.067  10.311
13487SOL    HW242359   4.348   4.162  10.416
13488SOL     OW42360  14.210   1.779  14.352
13488SOL    HW142361  14.209   1.688  14.383
13488SOL    HW242362  14.302   1.795  14.330
13489SOL     OW42363  13.848  14.202   2.192
13489SOL    HW142364  13.854  14.248   2.276
13489SOL    HW242365  13.853  14.271   2.127
13490SOL     OW42366   5.883  10.466   0.657
13490SOL    HW142367   5.801  10.471   0.706
13490SOL    HW242368   5.934  10.541   0.688
13491SOL     OW42369   2.783   8.003   4.370
13491SOL    HW142370   2.710   8.005   4.432
13491SOL    HW242371   2.767   8.076   4.311
13492SOL     OW42372  12.474   9.924  14.558
13492SOL    HW142373  12.515   9.969  14.633
13492SOL    HW242374  12.394   9.974  14.541
13493SOL     OW42375  13.200   4.441  12.898
13493SOL    HW142376  13.161   4.518  12.858
13493SOL    HW242377  13.128   4.398  12.944
13494SOL     OW42378   5.728  14.576   3.413
13494SOL    HW142379   5.718  14.498   3.358
13494SOL    HW242380   5.669  14.562   3.486
13495SOL     OW42381  14.368   7.936   2.105
13495SOL    HW142382  14.307   8.000   2.142
13495SOL    HW242383  14.424   7.911   2.179
13496SOL     OW42384  10.004  12.932  13.410
13496SOL    HW142385   9.923  12.983  13.402
13496SOL    HW242386  10.033  12.920  13.320
13497SOL     OW42387   9.645   2.075  13.929
13497SOL    HW142388   9.631   2.158  13.885
13497SOL    HW242389   9.667   2.098  14.020
13498SOL     OW42390   2.433   4.445   8.253
13498SOL    HW142391   2.365   4.511   8.258
13498SOL    HW242392   2.506   4.489   8.210
13499SOL     OW42393   9.509   6.309  11.208
13499SOL    HW142394   9.551   6.265  11.282
13499SOL    HW242395   9.501   6.241  11.141
13500SOL     OW42396   8.146   6.715  12.329
13500SOL    HW142397   8.092   6.767  12.269
13500SOL    HW242398   8.158   6.770  12.406
13501SOL     OW42399   9.490   6.480  13.907
13501SOL    HW142400   9.573   6.504  13.948
13501SOL    HW242401   9.450   6.563  13.884
13502SOL     OW42402  10.975   5.692   1.409
13502SOL    HW142403  11.001   5.778   1.375
13502SOL    HW242404  10.880   5.696   1.414
13503SOL     OW42405   4.047   6.125   3.136
13503SOL    HW142406   4.031   6.206   3.088
13503SOL    HW242407   3.960   6.090   3.153
13504SOL     OW42408   8.610   9.046   7.833
13504SOL    HW142409   8.571   9.127   7.864
13504SOL    HW242410   8.621   9.060   7.739
13505SOL     OW42411   5.788   0.009   6.241
13505SOL    HW142412   5.724   0.035   6.307
13505SOL    HW242413   5.861   0.070   6.252
13506SOL     OW42414   4.123   2.176   0.770
13506SOL    HW142415   4.113   2.235   0.844
13506SOL    HW242416   4.109   2.089   0.806
13507SOL     OW42417  13.186   7.173   8.297
13507SOL    HW142418  13.149   7.086   8.281
13507SOL    HW242419  13.203   7.209   8.210
13508SOL     OW42420   6.244  14.165   7.125
13508SOL    HW142421   6.229  14.255   7.153
13508SOL    HW242422   6.214  14.112   7.199
13509SOL     OW42423  13.588   9.373  11.753
13509SOL    HW142424  13.667   9.425  11.766
13509SOL    HW242425  13.595   9.338  11.664
13510SOL     OW42426   7.015   1.636   1.988
13510SOL    HW142427   7.031   1.711   2.044
13510SOL    HW242428   6.962   1.576   2.041
13511SOL     OW42429   9.757   1.289   5.398
13511SOL    HW142430   9.747   1.248   5.484
13511SOL    HW242431   9.750   1.217   5.335
13512SOL     OW42432   5.737   5.835  14.001
13512SOL    HW142433   5.700   5.904  13.945
13512SOL    HW242434   5.721   5.754  13.952
13513SOL     OW42435   4.119  11.354   0.391
13513SOL    HW142436   4.175  11.341   0.468
13513SOL    HW242437   4.181  11.365   0.318
13514SOL     OW42438   1.949   2.578  10.902
13514SOL    HW142439   1.953   2.486  10.877
13514SOL    HW242440   2.030   2.592  10.952
13515SOL     OW42441  12.028   7.290   7.668
13515SOL    HW142442  11.956   7.236   7.637
13515SOL    HW242443  11.994   7.334   7.745
13516SOL     OW42444   1.546  12.424   5.818
13516SOL    HW142445   1.578  12.465   5.898
13516SOL    HW242446   1.613  12.442   5.753
13517SOL     OW42447   0.695  14.565   7.250
13517SOL    HW142448   0.615  14.585   7.200
13517SOL    HW242449   0.664  14.538   7.336
13518SOL     OW42450   8.889  11.250   8.714
13518SOL    HW142451   8.816  11.269   8.655
13518SOL    HW242452   8.961  11.302   8.679
13519SOL     OW42453   4.329   3.280   2.510
13519SOL    HW142454   4.271   3.313   2.441
13519SOL    HW242455   4.303   3.328   2.588
13520SOL     OW42456   7.374   7.756   0.226
13520SOL    HW142457   7.442   7.694   0.251
13520SOL    HW242458   7.337   7.787   0.309
13521SOL     OW42459   5.761   4.932  12.141
13521SOL    HW142460   5.814   4.997  12.094
13521SOL    HW242461   5.767   4.854  12.087
13522SOL     OW42462  10.234   8.864   1.260
13522SOL    HW142463  10.199   8.777   1.282
13522SOL    HW242464  10.223   8.915   1.340
13523SOL     OW42465   5.613   9.236  14.449
13523SOL    HW142466   5.650   9.284  14.375
13523SOL    HW242467   5.609   9.145  14.419
13524SOL     OW42468   5.137  12.449   4.615
13524SOL    HW142469   5.095  12.517   4.667
13524SOL    HW242470   5.134  12.483   4.525
13525SOL     OW42471   1.154   3.757   5.658
13525SOL    HW142472   1.249   3.746   5.648
13525SOL    HW242473   1.142   3.851   5.667
13526SOL     OW42474   6.906  10.146   6.621
13526SOL    HW142475   6.885  10.084   6.692
13526SOL    HW242476   6.956  10.094   6.558
13527SOL     OW42477   5.841  13.587   9.576
13527SOL    HW142478   5.814  13.519   9.515
13527SOL    HW242479   5.803  13.667   9.540
13528SOL     OW42480   9.553   9.258  13.080
13528SOL    HW142481   9.513   9.329  13.130
13528SOL    HW242482   9.504   9.179  13.106
13529SOL     OW42483  10.490  13.826  14.130
13529SOL    HW142484  10.406  13.862  14.158
13529SOL    HW242485  10.530  13.896  14.080
13530SOL     OW42486  10.407  14.682  13.659
13530SOL    HW142487  10.363  14.724  13.585
13530SOL    HW242488  10.406  14.589  13.638
13531SOL     OW42489   8.662  14.651  13.370
13531SOL    HW142490   8.573  14.639  13.337
13531SOL    HW242491   8.673  14.580  13.433
13532SOL     OW42492   6.512   0.875  11.539
13532SOL    HW142493   6.523   0.789  11.500
13532SOL    HW242494   6.443   0.863  11.604
13533SOL     OW42495  14.105   2.644  12.988
13533SOL    HW142496  14.191   2.634  12.949
13533SOL    HW242497  14.073   2.727  12.955
13534SOL     OW42498  12.638   5.440   3.988
13534SOL    HW142499  12.680   5.438   3.902
13534SOL    HW242500  12.705   5.475   4.047
13535SOL     OW42501   1.203   7.031   0.693
13535SOL    HW142502   1.248   6.959   0.649
13535SOL    HW242503   1.140   7.063   0.629
13536SOL     OW42504   5.842  13.391   5.584
13536SOL    HW142505   5.834  13.318   5.645
13536SOL    HW242506   5.762  13.442   5.597
13537SOL     OW42507   6.104   0.162   4.223
13537SOL    HW142508   6.096   0.257   4.222
13537SOL    HW242509   6.031   0.132   4.277
13538SOL     OW42510  13.935   4.991   7.542
13538SOL    HW142511  13.924   5.008   7.636
13538SOL    HW242512  13.959   4.899   7.538
13539SOL     OW42513   8.152  11.995   5.793
13539SOL    HW142514   8.074  12.003   5.848
13539SOL    HW242515   8.172  11.901   5.793
13540SOL     OW42516   3.527  12.756  10.633
13540SOL    HW142517   3.482  12.686  10.681
13540SOL    HW242518   3.483  12.758  10.548
13541SOL     OW42519   8.448  11.728   7.813
13541SOL    HW142520   8.391  11.684   7.749
13541SOL    HW242521   8.499  11.657   7.852
13542SOL     OW42522  14.635   0.403   3.079
13542SOL    HW142523  14.580   0.458   3.134
13542SOL    HW242524  14.598   0.315   3.088
13543SOL     OW42525   3.815  13.853   6.716
13543SOL    HW142526   3.733  13.816   6.685
13543SOL    HW242527   3.795  13.945   6.733
13544SOL     OW42528   2.003   5.222   9.097
13544SOL    HW142529   2.076   5.164   9.076
13544SOL    HW242530   1.975   5.257   9.012
13545SOL     OW42531   4.053   7.816   0.633
13545SOL    HW142532   4.088   7.743   0.582
13545SOL    HW242533   3.961   7.823   0.606
13546SOL     OW42534  10.784  13.873   1.721
13546SOL    HW142535  10.774  13.909   1.632
13546SOL    HW242536  10.705  13.902   1.767
13547SOL     OW42537  12.351   6.817   5.839
13547SOL    HW142538  12.329   6.854   5.753
13547SOL    HW242539  12.403   6.740   5.819
13548SOL     OW42540   0.061   2.067   1.842
13548SOL    HW142541   0.012   1.984   1.843
13548SOL    HW242542  14.871   2.130   1.804
13549SOL     OW42543   0.311   6.643   3.281
13549SOL    HW142544   0.290   6.598   3.200
13549SOL    HW242545   0.277   6.586   3.350
13550SOL     OW42546   2.649   1.782  13.362
13550SOL    HW142547   2.639   1.824  13.277
13550SOL    HW242548   2.651   1.688  13.342
13551SOL     OW42549   8.379  11.676   9.284
13551SOL    HW142550   8.372  11.599   9.340
13551SOL    HW242551   8.325  11.742   9.328
13552SOL     OW42552   4.393   7.151   2.545
13552SOL    HW142553   4.370   7.111   2.629
13552SOL    HW242554   4.380   7.245   2.559
13553SOL     OW42555   5.904  14.562   7.333
13553SOL    HW142556   5.979  14.555   7.274
13553SOL    HW242557   5.829  14.572   7.276
13554SOL     OW42558   0.581  14.285   1.281
13554SOL    HW142559   0.579  14.381   1.283
13554SOL    HW242560   0.672  14.262   1.297
13555SOL     OW42561   5.360   2.463   5.648
13555SOL    HW142562   5.393   2.495   5.564
13555SOL    HW242563   5.323   2.377   5.629
13556SOL     OW42564   2.870  13.177   7.698
13556SOL    HW142565   2.944  13.215   7.651
13556SOL    HW242566   2.895  13.086   7.714
13557SOL     OW42567   8.924   5.209   4.405
13557SOL    HW142568   8.926   5.190   4.311
13557SOL    HW242569   9.011   5.185   4.437
13558SOL     OW42570   4.483  11.756   0.224
13558SOL    HW142571   4.503  11.663   0.211
13558SOL    HW242572   4.421  11.756   0.297
13559SOL     OW42573   7.151   1.264  12.029
13559SOL    HW142574   7.091   1.198  11.992
13559SOL    HW242575   7.211   1.283  11.957
13560SOL     OW42576  11.496   3.314   7.832
13560SOL    HW142577  11.491   3.281   7.921
13560SOL    HW242578  11.589   3.310   7.809
13561SOL     OW42579   9.079   7.084  10.301
13561SOL    HW142580   9.139   7.034  10.356
13561SOL    HW242581   9.047   7.020  10.237
13562SOL     OW42582   6.677   6.611   1.555
13562SOL    HW142583   6.695   6.527   1.597
13562SOL    HW242584   6.763   6.648   1.535
13563SOL     OW42585   6.725   4.978   2.785
13563SOL    HW142586   6.672   4.906   2.818
13563SOL    HW242587   6.789   4.995   2.855
13564SOL     OW42588   8.012   9.305   0.901
13564SOL    HW142589   8.076   9.240   0.872
13564SOL    HW242590   8.005   9.368   0.829
13565SOL     OW42591   2.075   8.425   0.344
13565SOL    HW142592   2.116   8.453   0.426
13565SOL    HW242593   2.028   8.502   0.313
13566SOL     OW42594  10.205  10.461  10.656
13566SOL    HW142595  10.148  10.384  10.657
13566SOL    HW242596  10.219  10.482  10.749
13567SOL     OW42597  14.790   8.091   2.595
13567SOL    HW142598  14.756   8.180   2.605
13567SOL    HW242599  14.724   8.035   2.637
13568SOL     OW42600   9.662   1.660   6.235
13568SOL    HW142601   9.620   1.677   6.319
13568SOL    HW242602   9.590   1.631   6.178
13569SOL     OW42603   8.946   6.581   0.287
13569SOL    HW142604   8.939   6.596   0.381
13569SOL    HW242605   8.960   6.486   0.279
13570SOL     OW42606   3.222   0.918   8.815
13570SOL    HW142607   3.170   0.890   8.739
13570SOL    HW242608   3.287   0.849   8.825
13571SOL     OW42609   6.214   9.448   3.626
13571SOL    HW142610   6.307   9.440   3.609
13571SOL    HW242611   6.176   9.369   3.587
13572SOL     OW42612  13.338   4.707  11.289
13572SOL    HW142613  13.248   4.699  11.258
13572SOL    HW242614  13.330   4.756  11.371
13573SOL     OW42615   3.987   8.602   9.913
13573SOL    HW142616   3.991   8.655   9.992
13573SOL    HW242617   3.990   8.665   9.841
13574SOL     OW42618  10.472  12.372  13.599
13574SOL    HW142619  10.518  12.290  13.615
13574SOL    HW242620  10.415  12.354  13.524
13575SOL     OW42621   2.780   0.476  12.278
13575SOL    HW142622   2.692   0.468  12.243
13575SOL    HW242623   2.833   0.418  12.223
13576SOL     OW42624  10.177   4.352   2.526
13576SOL    HW142625  10.262   4.358   2.570
13576SOL    HW242626  10.199   4.325   2.437
13577SOL     OW42627   3.513   0.492  10.332
13577SOL    HW142628   3.521   0.533  10.418
13577SOL    HW242629   3.478   0.562  10.276
13578SOL     OW42630   5.146   3.106   4.307
13578SOL    HW142631   5.165   3.066   4.392
13578SOL    HW242632   5.063   3.068   4.280
13579SOL     OW42633  12.964   8.305   7.772
13579SOL    HW142634  12.907   8.272   7.842
13579SOL    HW242635  12.904   8.321   7.699
13580SOL     OW42636   5.530  12.147   7.321
13580SOL    HW142637   5.505  12.108   7.237
13580SOL    HW242638   5.584  12.080   7.363
13581SOL     OW42639   0.164   4.495  10.989
13581SOL    HW142640   0.114   4.463  11.065
13581SOL    HW242641   0.144   4.588  10.986
13582SOL     OW42642   9.840   8.216   7.711
13582SOL    HW142643   9.868   8.300   7.676
13582SOL    HW242644   9.920   8.162   7.712
13583SOL     OW42645   0.140  12.829   0.032
13583SOL    HW142646   0.141  12.785  14.818
13583SOL    HW242647   0.051  12.816   0.065
13584SOL     OW42648  14.182   0.520  13.201
13584SOL    HW142649  14.183   0.543  13.107
13584SOL    HW242650  14.111   0.457  13.209
13585SOL     OW42651   3.739  11.420   7.478
13585SOL    HW142652   3.737  11.327   7.498
13585SOL    HW242653   3.648  11.449   7.487
13586SOL     OW42654   9.777   9.830   9.038
13586SOL    HW142655   9.699   9.860   8.993
13586SOL    HW242656   9.769   9.734   9.039
13587SOL     OW42657   8.192   0.856   6.584
13587SOL    HW142658   8.169   0.763   6.586
13587SOL    HW242659   8.183   0.881   6.493
13588SOL     OW42660  12.724   1.916  10.636
13588SOL    HW142661  12.811   1.876  10.624
13588SOL    HW242662  12.725   1.947  10.727
13589SOL     OW42663  12.865   6.649   9.057
13589SOL    HW142664  12.914   6.725   9.087
13589SOL    HW242665  12.775   6.668   9.080
13590SOL     OW42666   5.198  12.726  12.126
13590SOL    HW142667   5.281  12.682  12.109
13590SOL    HW242668   5.174  12.766  12.043
13591SOL     OW42669   7.967   4.135   8.482
13591SOL    HW142670   7.981   4.162   8.573
13591SOL    HW242671   8.056   4.123   8.447
13592SOL     OW42672  14.146  11.059   6.396
13592SOL    HW142673  14.109  10.971   6.394
13592SOL    HW242674  14.238  11.045   6.419
13593SOL     OW42675   8.231   7.778   5.701
13593SOL    HW142676   8.318   7.743   5.722
13593SOL    HW242677   8.171   7.706   5.719
13594SOL     OW42678   4.928   4.455   1.117
13594SOL    HW142679   4.887   4.374   1.088
13594SOL    HW242680   4.962   4.435   1.204
13595SOL     OW42681   2.752   0.280   6.114
13595SOL    HW142682   2.792   0.361   6.145
13595SOL    HW242683   2.707   0.305   6.033
13596SOL     OW42684  13.980   1.892   9.213
13596SOL    HW142685  14.048   1.913   9.149
13596SOL    HW242686  14.014   1.816   9.261
13597SOL     OW42687   5.471   7.614  10.900
13597SOL    HW142688   5.421   7.669  10.961
13597SOL    HW242689   5.517   7.676  10.844
13598SOL     OW42690   6.305  10.241  14.693
13598SOL    HW142691   6.282  10.331  14.671
13598SOL    HW242692   6.346  10.206  14.613
13599SOL     OW42693   0.430  10.153  13.166
13599SOL    HW142694   0.409  10.109  13.083
13599SOL    HW242695   0.347  10.189  13.196
13600SOL     OW42696  10.240  10.592   0.434
13600SOL    HW142697  10.216  10.580   0.342
13600SOL    HW242698  10.255  10.686   0.443
13601SOL     OW42699  14.720   5.489   8.368
13601SOL    HW142700  14.782   5.465   8.437
13601SOL    HW242701  14.710   5.410   8.316
13602SOL     OW42702  12.173   3.989  11.024
13602SOL    HW142703  12.252   4.042  11.015
13602SOL    HW242704  12.186   3.916  10.963
13603SOL     OW42705  12.979  14.427  11.519
13603SOL    HW142706  12.986  14.332  11.508
13603SOL    HW242707  12.991  14.462  11.431
13604SOL     OW42708   8.726  10.751  13.977
13604SOL    HW142709   8.748  10.663  13.946
13604SOL    HW242710   8.800  10.776  14.032
13605SOL     OW42711   3.537   0.589   3.418
13605SOL    HW142712   3.516   0.667   3.469
13605SOL    HW242713   3.511   0.610   3.329
13606SOL     OW42714   2.845  10.428  11.663
13606SOL    HW142715   2.925  10.388  11.627
13606SOL    HW242716   2.799  10.356  11.706
13607SOL     OW42717   9.021   2.512   1.617
13607SOL    HW142718   9.049   2.582   1.558
13607SOL    HW242719   8.925   2.515   1.615
13608SOL     OW42720   8.095   2.299   2.926
13608SOL    HW142721   8.083   2.331   3.015
13608SOL    HW242722   8.035   2.351   2.873
13609SOL     OW42723  12.799   4.867   8.182
13609SOL    HW142724  12.888   4.897   8.159
13609SOL    HW242725  12.791   4.782   8.139
13610SOL     OW42726   1.447   4.842   6.487
13610SOL    HW142727   1.418   4.757   6.519
13610SOL    HW242728   1.476   4.889   6.565
13611SOL     OW42729   0.518  12.538   5.370
13611SOL    HW142730   0.574  12.615   5.355
13611SOL    HW242731   0.562  12.492   5.441
13612SOL     OW42732  10.587  10.456   3.225
13612SOL    HW142733  10.534  10.482   3.301
13612SOL    HW242734  10.579  10.361   3.221
13613SOL     OW42735   5.498   8.057  11.661
13613SOL    HW142736   5.591   8.048  11.640
13613SOL    HW242737   5.475   8.146  11.633
13614SOL     OW42738   3.460  13.969  14.047
13614SOL    HW142739   3.449  13.875  14.058
13614SOL    HW242740   3.384  13.996  13.995
13615SOL     OW42741  10.115  13.347   7.373
13615SOL    HW142742  10.203  13.322   7.347
13615SOL    HW242743  10.091  13.417   7.313
13616SOL     OW42744   2.821   4.235  11.990
13616SOL    HW142745   2.874   4.308  11.957
13616SOL    HW242746   2.795   4.187  11.911
13617SOL     OW42747   6.493   5.016   7.397
13617SOL    HW142748   6.497   5.088   7.334
13617SOL    HW242749   6.488   5.058   7.483
13618SOL     OW42750   2.048   5.832  11.613
13618SOL    HW142751   2.093   5.829  11.697
13618SOL    HW242752   2.105   5.785  11.552
13619SOL     OW42753   4.721   5.710   3.519
13619SOL    HW142754   4.791   5.646   3.503
13619SOL    HW242755   4.666   5.670   3.585
13620SOL     OW42756   6.258  11.791  10.415
13620SOL    HW142757   6.283  11.837  10.495
13620SOL    HW242758   6.295  11.703  10.426
13621SOL     OW42759   5.465   3.742   4.416
13621SOL    HW142760   5.415   3.672   4.376
13621SOL    HW242761   5.419   3.759   4.499
13622SOL     OW42762   9.383   8.064   1.508
13622SOL    HW142763   9.368   8.079   1.602
13622SOL    HW242764   9.391   8.152   1.471
13623SOL     OW42765   9.033   9.721   6.184
13623SOL    HW142766   9.082   9.734   6.103
13623SOL    HW242767   8.947   9.692   6.156
13624SOL     OW42768   3.587   3.489  11.267
13624SOL    HW142769   3.559   3.541  11.191
13624SOL    HW242770   3.584   3.399  11.236
13625SOL     OW42771   2.305  12.336   9.136
13625SOL    HW142772   2.310  12.298   9.048
13625SOL    HW242773   2.257  12.418   9.124
13626SOL     OW42774  11.552   1.050   4.742
13626SOL    HW142775  11.537   1.109   4.815
13626SOL    HW242776  11.487   0.981   4.752
13627SOL     OW42777  10.445   8.525  13.747
13627SOL    HW142778  10.444   8.611  13.705
13627SOL    HW242779  10.450   8.463  13.674
13628SOL     OW42780   5.005   2.714  11.841
13628SOL    HW142781   4.936   2.653  11.815
13628SOL    HW242782   5.070   2.659  11.884
13629SOL     OW42783  11.820   8.486  13.514
13629SOL    HW142784  11.784   8.450  13.432
13629SOL    HW242785  11.807   8.581  13.506
13630SOL     OW42786   1.209   3.259   1.550
13630SOL    HW142787   1.260   3.260   1.469
13630SOL    HW242788   1.119   3.244   1.522
13631SOL     OW42789   6.501   4.964   1.542
13631SOL    HW142790   6.427   4.929   1.591
13631SOL    HW242791   6.563   4.891   1.537
13632SOL     OW42792  14.353   4.772   0.006
13632SOL    HW142793  14.372   4.812   0.090
13632SOL    HW242794  14.390   4.684   0.012
13633SOL     OW42795   6.605  12.483   6.129
13633SOL    HW142796   6.607  12.513   6.220
13633SOL    HW242797   6.548  12.406   6.131
13634SOL     OW42798   6.523   4.768   8.124
13634SOL    HW142799   6.458   4.835   8.102
13634SOL    HW242800   6.512   4.754   8.218
13635SOL     OW42801  12.790   6.483   4.588
13635SOL    HW142802  12.781   6.473   4.493
13635SOL    HW242803  12.701   6.496   4.619
13636SOL     OW42804   9.259  13.696   1.590
13636SOL    HW142805   9.333  13.756   1.605
13636SOL    HW242806   9.242  13.703   1.496
13637SOL     OW42807  13.191   3.470   9.241
13637SOL    HW142808  13.105   3.508   9.221
13637SOL    HW242809  13.223   3.439   9.157
13638SOL     OW42810  13.482  12.448   2.356
13638SOL    HW142811  13.553  12.474   2.297
13638SOL    HW242812  13.487  12.510   2.428
13639SOL     OW42813  10.848   0.345   6.844
13639SOL    HW142814  10.763   0.314   6.875
13639SOL    HW242815  10.861   0.300   6.760
13640SOL     OW42816   8.773   1.529   5.512
13640SOL    HW142817   8.715   1.470   5.464
13640SOL    HW242818   8.717   1.566   5.581
13641SOL     OW42819   1.396  10.106   9.361
13641SOL    HW142820   1.365  10.019   9.337
13641SOL    HW242821   1.347  10.128   9.440
13642SOL     OW42822   9.440  11.454  14.081
13642SOL    HW142823   9.423  11.366  14.116
13642SOL    HW242824   9.354  11.494  14.074
13643SOL     OW42825   4.866   6.510   7.733
13643SOL    HW142826   4.907   6.519   7.647
13643SOL    HW242827   4.772   6.503   7.714
13644SOL     OW42828   4.933   2.159   5.097
13644SOL    HW142829   4.929   2.161   5.001
13644SOL    HW242830   5.026   2.173   5.117
13645SOL     OW42831   0.290   8.430  14.121
13645SOL    HW142832   0.368   8.374  14.124
13645SOL    HW242833   0.238   8.394  14.049
13646SOL     OW42834  14.452   2.869  14.129
13646SOL    HW142835  14.369   2.823  14.143
13646SOL    HW242836  14.433   2.933  14.061
13647SOL     OW42837   8.796  10.629   7.616
13647SOL    HW142838   8.883  10.652   7.649
13647SOL    HW242839   8.798  10.653   7.523
13648SOL     OW42840  13.486   5.019   0.695
13648SOL    HW142841  13.541   5.041   0.621
13648SOL    HW242842  13.525   4.939   0.731
13649SOL     OW42843   6.315   0.571   5.252
13649SOL    HW142844   6.353   0.647   5.209
13649SOL    HW242845   6.271   0.523   5.182
13650SOL     OW42846   7.796   0.217   5.247
13650SOL    HW142847   7.755   0.263   5.320
13650SOL    HW242848   7.759   0.129   5.250
13651SOL     OW42849  11.318   6.124  13.063
13651SOL    HW142850  11.240   6.107  13.116
13651SOL    HW242851  11.367   6.042  13.065
13652SOL     OW42852  11.725  10.643  11.083
13652SOL    HW142853  11.751  10.666  10.994
13652SOL    HW242854  11.808  10.628  11.129
13653SOL     OW42855   2.078   2.177  12.238
13653SOL    HW142856   1.986   2.166  12.261
13653SOL    HW242857   2.122   2.189  12.322
13654SOL     OW42858  10.291   0.491  10.526
13654SOL    HW142859  10.337   0.565  10.566
13654SOL    HW242860  10.202   0.524  10.511
13655SOL     OW42861   8.487   8.654   3.645
13655SOL    HW142862   8.511   8.741   3.677
13655SOL    HW242863   8.570   8.608   3.634
13656SOL     OW42864  10.461   0.063   9.945
13656SOL    HW142865  10.519  14.859   9.931
13656SOL    HW242866  10.427   0.084   9.858
13657SOL     OW42867   5.626   5.866   1.609
13657SOL    HW142868   5.715   5.845   1.638
13657SOL    HW242869   5.583   5.781   1.601
13658SOL     OW42870   2.321   7.490   2.727
13658SOL    HW142871   2.257   7.510   2.659
13658SOL    HW242872   2.277   7.428   2.785
13659SOL     OW42873   6.589   2.304   0.231
13659SOL    HW142874   6.505   2.350   0.236
13659SOL    HW242875   6.600   2.268   0.319
13660SOL     OW42876   0.129  12.916  11.532
13660SOL    HW142877   0.204  12.975  11.521
13660SOL    HW242878   0.136  12.885  11.622
13661SOL     OW42879   1.361   9.024  13.452
13661SOL    HW142880   1.267   9.039  13.463
13661SOL    HW242881   1.372   8.930  13.460
13662SOL     OW42882   3.496  11.095   7.463
13662SOL    HW142883   3.570  11.118   7.518
13662SOL    HW242884   3.493  10.999   7.466
13663SOL     OW42885   2.549  11.541  14.333
13663SOL    HW142886   2.480  11.599  14.300
13663SOL    HW242887   2.503  11.476  14.385
13664SOL     OW42888   7.894   4.143   1.243
13664SOL    HW142889   7.862   4.114   1.158
13664SOL    HW242890   7.820   4.187   1.283
13665SOL     OW42891   1.166   0.062   0.584
13665SOL    HW142892   1.216  14.852   0.583
13665SOL    HW242893   1.218   0.123   0.532
13666SOL     OW42894   6.691  10.477  12.056
13666SOL    HW142895   6.723  10.423  12.128
13666SOL    HW242896   6.646  10.415  11.998
13667SOL     OW42897  14.001  13.878   8.896
13667SOL    HW142898  13.959  13.828   8.966
13667SOL    HW242899  14.044  13.812   8.841
13668SOL     OW42900   4.536   6.201  13.573
13668SOL    HW142901   4.563   6.252  13.497
13668SOL    HW242902   4.601   6.130  13.579
13669SOL     OW42903   0.279   1.956   2.307
13669SOL    HW142904   0.205   1.968   2.367
13669SOL    HW242905   0.239   1.956   2.220
13670SOL     OW42906  14.370   0.219   8.516
13670SOL    HW142907  14.385   0.160   8.441
13670SOL    HW242908  14.275   0.227   8.521
13671SOL     OW42909  14.193   3.515   2.365
13671SOL    HW142910  14.286   3.527   2.346
13671SOL    HW242911  14.184   3.421   2.382
13672SOL     OW42912   7.856   6.140  10.901
13672SOL    HW142913   7.772   6.166  10.863
13672SOL    HW242914   7.905   6.222  10.909
13673SOL     OW42915   1.688  11.964   4.659
13673SOL    HW142916   1.772  11.921   4.676
13673SOL    HW242917   1.653  11.918   4.583
13674SOL     OW42918   6.381  10.888   9.292
13674SOL    HW142919   6.302  10.941   9.304
13674SOL    HW242920   6.395  10.887   9.198
13675SOL     OW42921   1.234   1.347   7.821
13675SOL    HW142922   1.170   1.345   7.750
13675SOL    HW242923   1.315   1.316   7.781
13676SOL     OW42924   3.415  11.966  10.557
13676SOL    HW142925   3.380  12.044  10.601
13676SOL    HW242926   3.483  12.000  10.500
13677SOL     OW42927   8.591  14.721   0.726
13677SOL    HW142928   8.685  14.722   0.706
13677SOL    HW242929   8.567  14.629   0.722
13678SOL     OW42930   1.187   2.269  11.448
13678SOL    HW142931   1.223   2.186  11.478
13678SOL    HW242932   1.110   2.283  11.504
13679SOL     OW42933   6.012   8.767  11.491
13679SOL    HW142934   6.069   8.836  11.458
13679SOL    HW242935   5.951   8.750  11.419
13680SOL     OW42936   7.407   3.833   0.445
13680SOL    HW142937   7.483   3.882   0.415
13680SOL    HW242938   7.335   3.865   0.391
13681SOL     OW42939   3.581   0.060  11.781
13681SOL    HW142940   3.520   0.035  11.712
13681SOL    HW242941   3.550   0.146  11.811
13682SOL     OW42942   9.604  10.992  11.739
13682SOL    HW142943   9.563  11.027  11.660
13682SOL    HW242944   9.680  10.943  11.708
13683SOL     OW42945  10.958   6.496   9.361
13683SOL    HW142946  11.041   6.449   9.374
13683SOL    HW242947  10.896   6.451   9.418
13684SOL     OW42948   9.263   7.969   1.104
13684SOL    HW142949   9.316   8.024   1.046
13684SOL    HW242950   9.177   7.968   1.063
13685SOL     OW42951   8.444   3.363   7.668
13685SOL    HW142952   8.390   3.285   7.652
13685SOL    HW242953   8.414   3.426   7.603
13686SOL     OW42954   5.038  12.556   6.833
13686SOL    HW142955   5.037  12.618   6.760
13686SOL    HW242956   4.977  12.487   6.806
13687SOL     OW42957   6.480  14.127   5.875
13687SOL    HW142958   6.441  14.091   5.796
13687SOL    HW242959   6.408  14.132   5.938
13688SOL     OW42960  13.860  14.742   5.026
13688SOL    HW142961  13.829  14.823   4.984
13688SOL    HW242962  13.952  14.758   5.045
13689SOL     OW42963   5.085   5.914   1.360
13689SOL    HW142964   5.106   5.844   1.422
13689SOL    HW242965   5.051   5.985   1.414
13690SOL     OW42966   8.082   1.117   8.780
13690SOL    HW142967   8.126   1.176   8.720
13690SOL    HW242968   8.154   1.066   8.820
13691SOL     OW42969   7.336   2.877   6.730
13691SOL    HW142970   7.335   2.810   6.799
13691SOL    HW242971   7.280   2.947   6.764
13692SOL     OW42972  12.345   2.074  13.739
13692SOL    HW142973  12.431   2.032  13.744
13692SOL    HW242974  12.349   2.128  13.660
13693SOL     OW42975  12.639  10.653   7.715
13693SOL    HW142976  12.729  10.645   7.683
13693SOL    HW242977  12.605  10.563   7.713
13694SOL     OW42978   5.261   4.678  13.475
13694SOL    HW142979   5.208   4.712  13.403
13694SOL    HW242980   5.236   4.586  13.482
13695SOL     OW42981   6.880   5.746   2.953
13695SOL    HW142982   6.859   5.653   2.944
13695SOL    HW242983   6.927   5.751   3.037
13696SOL     OW42984   1.916  12.203   6.223
13696SOL    HW142985   1.891  12.258   6.149
13696SOL    HW242986   1.865  12.237   6.296
13697SOL     OW42987   4.547  13.015   9.216
13697SOL    HW142988   4.541  13.059   9.132
13697SOL    HW242989   4.504  12.931   9.202
13698SOL     OW42990   8.124   2.414   6.558
13698SOL    HW142991   8.156   2.349   6.620
13698SOL    HW242992   8.030   2.419   6.574
13699SOL     OW42993  13.951   0.559   5.615
13699SOL    HW142994  14.029   0.530   5.569
13699SOL    HW242995  13.971   0.546   5.708
13700SOL     OW42996  13.759   4.316   0.287
13700SOL    HW142997  13.776   4.229   0.251
13700SOL    HW242998  13.816   4.321   0.364
13701SOL     OW42999   0.714   8.686  11.209
13701SOL    HW143000   0.793   8.716  11.163
13701SOL    HW243001   0.643   8.702  11.147
13702SOL     OW43002   1.010   7.928   9.265
13702SOL    HW143003   1.022   7.913   9.359
13702SOL    HW243004   1.037   7.845   9.224
13703SOL     OW43005   8.399  12.621   5.934
13703SOL    HW143006   8.401  12.716   5.917
13703SOL    HW243007   8.419  12.613   6.027
13704SOL     OW43008   3.692  11.694  12.516
13704SOL    HW143009   3.706  11.650  12.432
13704SOL    HW243010   3.772  11.676  12.566
13705SOL     OW43011   3.677  11.860  11.163
13705SOL    HW143012   3.705  11.769  11.166
13705SOL    HW243013   3.587  11.856  11.131
13706SOL     OW43014   8.717  12.539   1.313
13706SOL    HW143015   8.793  12.486   1.293
13706SOL    HW243016   8.725  12.615   1.255
13707SOL     OW43017   0.963   8.467  12.648
13707SOL    HW143018   1.050   8.495  12.619
13707SOL    HW243019   0.957   8.375  12.623
13708SOL     OW43020   3.205  13.960   1.224
13708SOL    HW143021   3.169  14.037   1.179
13708SOL    HW243022   3.184  13.974   1.316
13709SOL     OW43023   3.525  12.923  12.196
13709SOL    HW143024   3.433  12.901  12.207
13709SOL    HW243025   3.553  12.953  12.283
13710SOL     OW43026   5.893   7.699   3.061
13710SOL    HW143027   5.901   7.722   3.153
13710SOL    HW243028   5.900   7.603   3.059
13711SOL     OW43029  11.397   5.237   0.018
13711SOL    HW143030  11.331   5.305   0.024
13711SOL    HW243031  11.390   5.205  14.799
13712SOL     OW43032  13.666   3.955   3.295
13712SOL    HW143033  13.742   4.011   3.279
13712SOL    HW243034  13.618   3.999   3.366
13713SOL     OW43035   0.023   6.031  12.512
13713SOL    HW143036   0.006   6.024  12.418
13713SOL    HW243037   0.064   5.948  12.535
13714SOL     OW43038   5.396   7.320  11.262
13714SOL    HW143039   5.428   7.346  11.348
13714SOL    HW243040   5.471   7.333  11.204
13715SOL     OW43041  12.938   4.316   5.401
13715SOL    HW143042  12.901   4.335   5.315
13715SOL    HW243043  12.876   4.354   5.463
13716SOL     OW43044   3.464   0.660  14.437
13716SOL    HW143045   3.477   0.570  14.465
13716SOL    HW243046   3.388   0.691  14.487
13717SOL     OW43047   0.536   1.737   7.611
13717SOL    HW143048   0.584   1.743   7.694
13717SOL    HW243049   0.544   1.825   7.574
13718SOL     OW43050   7.021   2.967   4.030
13718SOL    HW143051   7.016   3.012   3.946
13718SOL    HW243052   6.999   3.033   4.095
13719SOL     OW43053   8.376  11.083  11.175
13719SOL    HW143054   8.415  11.072  11.261
13719SOL    HW243055   8.364  10.994  11.142
13720SOL     OW43056  14.058  13.684   1.675
13720SOL    HW143057  14.052  13.634   1.594
13720SOL    HW243058  14.005  13.763   1.659
13721SOL     OW43059   7.448   9.718   3.638
13721SOL    HW143060   7.406   9.801   3.662
13721SOL    HW243061   7.392   9.682   3.570
13722SOL     OW43062   8.260  12.725   7.817
13722SOL    HW143063   8.328  12.702   7.753
13722SOL    HW243064   8.305  12.722   7.901
13723SOL     OW43065   7.104   5.713   8.400
13723SOL    HW143066   7.084   5.801   8.369
13723SOL    HW243067   7.094   5.657   8.322
13724SOL     OW43068   6.050   0.711   4.082
13724SOL    HW143069   6.054   0.765   4.003
13724SOL    HW243070   5.974   0.744   4.130
13725SOL     OW43071   6.597   9.064   5.816
13725SOL    HW143072   6.629   9.010   5.889
13725SOL    HW243073   6.672   9.071   5.757
13726SOL     OW43074   0.015   9.837  10.134
13726SOL    HW143075   0.099   9.793  10.125
13726SOL    HW243076  14.830   9.796  10.069
13727SOL     OW43077   0.236   0.967   4.524
13727SOL    HW143078   0.177   1.038   4.547
13727SOL    HW243079   0.263   0.930   4.609
13728SOL     OW43080  12.649   2.188   7.552
13728SOL    HW143081  12.717   2.120   7.547
13728SOL    HW243082  12.595   2.172   7.475
13729SOL     OW43083   1.464  12.905   3.482
13729SOL    HW143084   1.417  12.869   3.407
13729SOL    HW243085   1.411  12.980   3.510
13730SOL     OW43086   8.740   2.602  14.222
13730SOL    HW143087   8.796   2.679  14.231
13730SOL    HW243088   8.656   2.628  14.258
13731SOL     OW43089   6.896  10.849   6.867
13731SOL    HW143090   6.801  10.855   6.862
13731SOL    HW243091   6.923  10.805   6.786
13732SOL     OW43092   4.921   8.767  11.868
13732SOL    HW143093   5.009   8.789  11.899
13732SOL    HW243094   4.896   8.841  11.814
13733SOL     OW43095   8.294   6.833  13.295
13733SOL    HW143096   8.261   6.842  13.384
13733SOL    HW243097   8.252   6.903  13.246
13734SOL     OW43098   9.147   9.191   3.785
13734SOL    HW143099   9.167   9.166   3.695
13734SOL    HW243100   9.231   9.190   3.830
13735SOL     OW43101   3.753   1.053  13.257
13735SOL    HW143102   3.682   1.053  13.192
13735SOL    HW243103   3.708   1.034  13.340
13736SOL     OW43104  14.458  11.176   5.403
13736SOL    HW143105  14.462  11.160   5.309
13736SOL    HW243106  14.550  11.191   5.428
13737SOL     OW43107   9.375   4.393  11.624
13737SOL    HW143108   9.287   4.430  11.636
13737SOL    HW243109   9.424   4.423  11.700
13738SOL     OW43110   0.977   5.991   6.326
13738SOL    HW143111   1.012   6.061   6.381
13738SOL    HW243112   1.040   5.919   6.335
13739SOL     OW43113   4.054  14.770   3.648
13739SOL    HW143114   3.997  14.829   3.697
13739SOL    HW243115   4.133  14.822   3.630
13740SOL     OW43116  12.792  14.075  11.186
13740SOL    HW143117  12.749  14.154  11.219
13740SOL    HW243118  12.843  14.043  11.261
13741SOL     OW43119  10.711   7.620   0.059
13741SOL    HW143120  10.694   7.671  14.851
13741SOL    HW243121  10.767   7.678   0.112
13742SOL     OW43122  13.457  10.858  12.513
13742SOL    HW143123  13.485  10.817  12.430
13742SOL    HW243124  13.526  10.835  12.575
13743SOL     OW43125   6.476  13.103  11.431
13743SOL    HW143126   6.405  13.160  11.458
13743SOL    HW243127   6.538  13.105  11.504
13744SOL     OW43128   6.508  11.669   3.645
13744SOL    HW143129   6.487  11.687   3.554
13744SOL    HW243130   6.424  11.673   3.690
13745SOL     OW43131   7.917  11.976   3.834
13745SOL    HW143132   7.901  12.024   3.753
13745SOL    HW243133   7.935  11.887   3.806
13746SOL     OW43134  14.339   3.465  10.963
13746SOL    HW143135  14.354   3.532  10.897
13746SOL    HW243136  14.327   3.384  10.913
13747SOL     OW43137   5.188   5.888   6.600
13747SOL    HW143138   5.121   5.843   6.548
13747SOL    HW243139   5.265   5.890   6.542
13748SOL     OW43140   5.974  11.321   4.378
13748SOL    HW143141   5.977  11.380   4.453
13748SOL    HW243142   5.937  11.373   4.307
13749SOL     OW43143   6.157  14.852   2.000
13749SOL    HW143144   6.186   0.065   1.965
13749SOL    HW243145   6.238  14.803   2.015
13750SOL     OW43146   3.670  10.639  12.252
13750SOL    HW143147   3.716  10.702  12.196
13750SOL    HW243148   3.623  10.583  12.191
13751SOL     OW43149   3.736  11.501  14.432
13751SOL    HW143150   3.690  11.464  14.508
13751SOL    HW243151   3.745  11.427  14.372
13752SOL     OW43152   5.474   5.640   3.403
13752SOL    HW143153   5.545   5.651   3.340
13752SOL    HW243154   5.467   5.726   3.446
13753SOL     OW43155   0.130   2.516   0.897
13753SOL    HW143156   0.205   2.469   0.933
13753SOL    HW243157   0.155   2.608   0.900
13754SOL     OW43158  12.281   0.658  12.147
13754SOL    HW143159  12.322   0.744  12.157
13754SOL    HW243160  12.284   0.641  12.053
13755SOL     OW43161   1.473   1.744  11.635
13755SOL    HW143162   1.518   1.726  11.553
13755SOL    HW243163   1.504   1.831  11.661
13756SOL     OW43164  12.842   4.407   8.942
13756SOL    HW143165  12.883   4.335   8.990
13756SOL    HW243166  12.817   4.469   9.011
13757SOL     OW43167  13.731   2.112  14.738
13757SOL    HW143168  13.744   2.022  14.709
13757SOL    HW243169  13.765   2.166  14.666
13758SOL     OW43170   0.377   2.384   8.569
13758SOL    HW143171   0.331   2.301   8.558
13758SOL    HW243172   0.452   2.378   8.511
13759SOL     OW43173   6.025   0.715   1.851
13759SOL    HW143174   6.023   0.719   1.756
13759SOL    HW243175   5.979   0.634   1.873
13760SOL     OW43176   3.274   1.133  14.105
13760SOL    HW143177   3.228   1.133  14.188
13760SOL    HW243178   3.306   1.043  14.095
13761SOL     OW43179   8.520   9.870  10.636
13761SOL    HW143180   8.442   9.924  10.625
13761SOL    HW243181   8.558   9.864  10.548
13762SOL     OW43182   3.007   1.828  10.149
13762SOL    HW143183   2.979   1.749  10.103
13762SOL    HW243184   3.082   1.860  10.098
13763SOL     OW43185   5.635   4.274   9.729
13763SOL    HW143186   5.630   4.196   9.675
13763SOL    HW243187   5.571   4.334   9.690
13764SOL     OW43188   4.162   5.965  13.393
13764SOL    HW143189   4.111   6.045  13.380
13764SOL    HW243190   4.243   5.981  13.345
13765SOL     OW43191  10.332   6.909   8.384
13765SOL    HW143192  10.338   7.001   8.411
13765SOL    HW243193  10.336   6.912   8.288
13766SOL     OW43194   4.951   4.082  10.310
13766SOL    HW143195   4.956   4.171  10.344
13766SOL    HW243196   5.025   4.074  10.250
13767SOL     OW43197  13.087  12.015   1.691
13767SOL    HW143198  13.179  12.028   1.669
13767SOL    HW243199  13.060  12.098   1.730
13768SOL     OW43200   2.848   4.498   8.318
13768SOL    HW143201   2.798   4.449   8.383
13768SOL    HW243202   2.845   4.443   8.239
13769SOL     OW43203   9.465  10.116   7.704
13769SOL    HW143204   9.440  10.131   7.613
13769SOL    HW243205   9.388  10.075   7.743
13770SOL     OW43206  12.808  10.405   8.462
13770SOL    HW143207  12.826  10.496   8.435
13770SOL    HW243208  12.713  10.404   8.478
13771SOL     OW43209   3.877  12.525  12.535
13771SOL    HW143210   3.872  12.587  12.463
13771SOL    HW243211   3.787  12.496  12.548
13772SOL     OW43212   5.460   5.178   8.178
13772SOL    HW143213   5.466   5.269   8.206
13772SOL    HW243214   5.470   5.127   8.259
13773SOL     OW43215   3.993   1.486  11.357
13773SOL    HW143216   4.078   1.478  11.314
13773SOL    HW243217   4.013   1.479  11.451
13774SOL     OW43218   3.409  13.508   4.046
13774SOL    HW143219   3.444  13.501   4.135
13774SOL    HW243220   3.451  13.586   4.010
13775SOL     OW43221  10.895   1.728  12.406
13775SOL    HW143222  10.915   1.811  12.449
13775SOL    HW243223  10.971   1.712  12.350
13776SOL     OW43224  11.609  11.612   7.143
13776SOL    HW143225  11.570  11.666   7.074
13776SOL    HW243226  11.701  11.637   7.143
13777SOL     OW43227   1.722   6.537   5.588
13777SOL    HW143228   1.673   6.467   5.631
13777SOL    HW243229   1.811   6.502   5.581
13778SOL     OW43230   3.884  12.705   4.441
13778SOL    HW143231   3.790  12.726   4.438
13778SOL    HW243232   3.916  12.750   4.519
13779SOL     OW43233   9.213   3.933   2.707
13779SOL    HW143234   9.286   3.964   2.653
13779SOL    HW243235   9.215   3.989   2.784
13780SOL     OW43236  13.656   2.698   7.552
13780SOL    HW143237  13.699   2.778   7.583
13780SOL    HW243238  13.572   2.698   7.597
13781SOL     OW43239  14.706   4.592  10.288
13781SOL    HW143240  14.649   4.537  10.342
13781SOL    HW243241  14.702   4.552  10.201
13782SOL     OW43242   3.502  13.317   4.579
13782SOL    HW143243   3.580  13.322   4.634
13782SOL    HW243244   3.432  13.294   4.639
13783SOL     OW43245   7.516  11.274   8.259
13783SOL    HW143246   7.609  11.278   8.238
13783SOL    HW243247   7.501  11.347   8.319
13784SOL     OW43248   0.804   1.918   9.783
13784SOL    HW143249   0.744   1.874   9.843
13784SOL    HW243250   0.890   1.880   9.804
13785SOL     OW43251   3.012   4.779  13.450
13785SOL    HW143252   3.028   4.734  13.533
13785SOL    HW243253   2.964   4.858  13.474
13786SOL     OW43254   6.367  13.946  11.846
13786SOL    HW143255   6.333  14.001  11.917
13786SOL    HW243256   6.361  13.857  11.881
13787SOL     OW43257  14.571   9.161   9.369
13787SOL    HW143258  14.547   9.253   9.364
13787SOL    HW243259  14.542   9.132   9.455
13788SOL     OW43260   3.349   9.630   1.056
13788SOL    HW143261   3.350   9.564   1.126
13788SOL    HW243262   3.292   9.699   1.089
13789SOL     OW43263   4.338   2.687   0.091
13789SOL    HW143264   4.403   2.756   0.100
13789SOL    HW243265   4.282   2.695   0.168
13790SOL     OW43266  13.471   4.162   5.562
13790SOL    HW143267  13.431   4.210   5.490
13790SOL    HW243268  13.511   4.230   5.617
13791SOL     OW43269  14.485  10.002   7.682
13791SOL    HW143270  14.517  10.021   7.770
13791SOL    HW243271  14.525   9.918   7.660
13792SOL     OW43272  14.788   6.004   5.162
13792SOL    HW143273  14.698   6.000   5.130
13792SOL    HW243274  14.781   6.041   5.250
13793SOL     OW43275  13.737  13.298   4.039
13793SOL    HW143276  13.803  13.283   3.971
13793SOL    HW243277  13.692  13.377   4.012
13794SOL     OW43278   3.961   9.073   1.377
13794SOL    HW143279   3.986   9.010   1.310
13794SOL    HW243280   4.043   9.093   1.423
13795SOL     OW43281  12.409   6.152   9.665
13795SOL    HW143282  12.416   6.126   9.573
13795SOL    HW243283  12.487   6.205   9.681
13796SOL     OW43284   7.311   0.800  11.495
13796SOL    HW143285   7.358   0.853  11.431
13796SOL    HW243286   7.319   0.848  11.577
13797SOL     OW43287  12.774   7.427  14.751
13797SOL    HW143288  12.727   7.497  14.798
13797SOL    HW243289  12.807   7.370  14.821
13798SOL     OW43290  10.237  12.258  11.911
13798SOL    HW143291  10.320  12.272  11.957
13798SOL    HW243292  10.263  12.241  11.820
13799SOL     OW43293  13.617   1.019   8.314
13799SOL    HW143294  13.702   0.988   8.282
13799SOL    HW243295  13.638   1.086   8.379
13800SOL     OW43296   8.646   0.617   1.283
13800SOL    HW143297   8.685   0.581   1.362
13800SOL    HW243298   8.571   0.560   1.266
13801SOL     OW43299   8.061  10.740  13.331
13801SOL    HW143300   7.981  10.741  13.382
13801SOL    HW243301   8.076  10.831  13.307
13802SOL     OW43302   6.479  12.733  11.037
13802SOL    HW143303   6.384  12.732  11.042
13802SOL    HW243304   6.506  12.795  11.105
13803SOL     OW43305   4.494   9.724  14.125
13803SOL    HW143306   4.541   9.654  14.170
13803SOL    HW243307   4.414   9.736  14.175
13804SOL     OW43308  10.829   8.547   9.529
13804SOL    HW143309  10.909   8.527   9.577
13804SOL    HW243310  10.860   8.577   9.443
13805SOL     OW43311  10.488   4.737   9.137
13805SOL    HW143312  10.502   4.812   9.195
13805SOL    HW243313  10.489   4.661   9.195
13806SOL     OW43314   9.521   8.320  11.239
13806SOL    HW143315   9.602   8.342  11.194
13806SOL    HW243316   9.465   8.281  11.172
13807SOL     OW43317   0.760   1.586   5.473
13807SOL    HW143318   0.689   1.606   5.534
13807SOL    HW243319   0.720   1.593   5.387
13808SOL     OW43320   0.314  13.527  13.594
13808SOL    HW143321   0.275  13.439  13.595
13808SOL    HW243322   0.408  13.511  13.589
13809SOL     OW43323   2.535   7.208   9.889
13809SOL    HW143324   2.466   7.265   9.922
13809SOL    HW243325   2.489   7.128   9.861
13810SOL     OW43326  11.062   1.136   5.589
13810SOL    HW143327  11.049   1.230   5.600
13810SOL    HW243328  11.156   1.126   5.579
13811SOL     OW43329   6.461   3.355  14.205
13811SOL    HW143330   6.540   3.363  14.260
13811SOL    HW243331   6.396   3.315  14.263
13812SOL     OW43332  14.870  10.510   8.698
13812SOL    HW143333  14.859  10.546   8.787
13812SOL    HW243334   0.014  10.588   8.644
13813SOL     OW43335   7.290   6.128   2.982
13813SOL    HW143336   7.309   6.056   3.042
13813SOL    HW243337   7.331   6.205   3.023
13814SOL     OW43338   9.648   8.070  12.211
13814SOL    HW143339   9.698   8.027  12.142
13814SOL    HW243340   9.621   7.999  12.270
13815SOL     OW43341   7.802   1.452  12.912
13815SOL    HW143342   7.707   1.448  12.899
13815SOL    HW243343   7.813   1.461  13.006
13816SOL     OW43344   0.900   9.326   2.557
13816SOL    HW143345   0.926   9.391   2.491
13816SOL    HW243346   0.973   9.326   2.619
13817SOL     OW43347   1.160  11.764  14.530
13817SOL    HW143348   1.211  11.755  14.611
13817SOL    HW243349   1.177  11.683  14.482
13818SOL     OW43350  12.615   5.043  14.751
13818SOL    HW143351  12.657   4.984  14.689
13818SOL    HW243352  12.680   5.112  14.767
13819SOL     OW43353   8.114  14.175   0.525
13819SOL    HW143354   8.132  14.189   0.618
13819SOL    HW243355   8.058  14.097   0.523
13820SOL     OW43356  14.292  14.556   1.597
13820SOL    HW143357  14.209  14.508   1.606
13820SOL    HW243358  14.320  14.538   1.507
13821SOL     OW43359   5.248   4.314   3.711
13821SOL    HW143360   5.316   4.247   3.702
13821SOL    HW243361   5.169   4.266   3.735
13822SOL     OW43362  14.528   6.860   5.937
13822SOL    HW143363  14.569   6.793   5.991
13822SOL    HW243364  14.583   6.937   5.949
13823SOL     OW43365  11.729   1.029   8.991
13823SOL    HW143366  11.747   0.936   8.996
13823SOL    HW243367  11.725   1.058   9.083
13824SOL     OW43368   0.952   6.142  11.043
13824SOL    HW143369   0.890   6.087  10.995
13824SOL    HW243370   1.035   6.094  11.037
13825SOL     OW43371   3.735   4.996  14.354
13825SOL    HW143372   3.674   5.023  14.422
13825SOL    HW243373   3.678   4.960  14.285
13826SOL     OW43374  13.380  10.232  13.051
13826SOL    HW143375  13.351  10.236  13.142
13826SOL    HW243376  13.471  10.262  13.053
13827SOL     OW43377   0.238  12.150   3.519
13827SOL    HW143378   0.267  12.193   3.599
13827SOL    HW243379   0.301  12.178   3.453
13828SOL     OW43380   1.946   6.905   8.573
13828SOL    HW143381   1.889   6.981   8.563
13828SOL    HW243382   1.920   6.867   8.657
13829SOL     OW43383  13.723  13.633   6.393
13829SOL    HW143384  13.660  13.601   6.457
13829SOL    HW243385  13.674  13.638   6.311
13830SOL     OW43386   5.921   2.729   5.398
13830SOL    HW143387   5.855   2.799   5.397
13830SOL    HW243388   5.916   2.693   5.486
13831SOL     OW43389   8.389   5.603  12.762
13831SOL    HW143390   8.380   5.599  12.667
13831SOL    HW243391   8.391   5.511  12.790
13832SOL     OW43392   7.363   5.390  14.309
13832SOL    HW143393   7.285   5.446  14.313
13832SOL    HW243394   7.396   5.389  14.399
13833SOL     OW43395   6.102   9.132  14.686
13833SOL    HW143396   6.176   9.071  14.693
13833SOL    HW243397   6.034   9.082  14.641
13834SOL     OW43398  11.267  10.384   0.484
13834SOL    HW143399  11.248  10.378   0.578
13834SOL    HW243400  11.337  10.320   0.470
13835SOL     OW43401   8.549   4.419   1.719
13835SOL    HW143402   8.609   4.458   1.783
13835SOL    HW243403   8.600   4.413   1.639
13836SOL     OW43404   0.103  10.171   9.954
13836SOL    HW143405   0.016  10.208   9.967
13836SOL    HW243406   0.139  10.161  10.042
13837SOL     OW43407   6.649   4.100   7.673
13837SOL    HW143408   6.620   4.168   7.611
13837SOL    HW243409   6.714   4.050   7.624
13838SOL     OW43410  14.093   5.011  11.425
13838SOL    HW143411  14.031   4.967  11.483
13838SOL    HW243412  14.131   4.940  11.372
13839SOL     OW43413  10.886   0.505   2.368
13839SOL    HW143414  10.906   0.440   2.436
13839SOL    HW243415  10.968   0.553   2.357
13840SOL     OW43416  14.835   3.073   9.865
13840SOL    HW143417   0.014   3.071   9.784
13840SOL    HW243418  14.769   3.141   9.851
13841SOL     OW43419   3.214  11.274  10.070
13841SOL    HW143420   3.180  11.185  10.061
13841SOL    HW243421   3.162  11.313  10.141
13842SOL     OW43422   2.702   6.898   3.763
13842SOL    HW143423   2.678   6.865   3.676
13842SOL    HW243424   2.759   6.830   3.799
13843SOL     OW43425   0.307   3.377   3.054
13843SOL    HW143426   0.289   3.426   2.974
13843SOL    HW243427   0.377   3.317   3.030
13844SOL     OW43428  11.769  13.419  11.782
13844SOL    HW143429  11.842  13.367  11.747
13844SOL    HW243430  11.754  13.487  11.716
13845SOL     OW43431  11.341   2.324  11.332
13845SOL    HW143432  11.347   2.229  11.330
13845SOL    HW243433  11.334   2.346  11.425
13846SOL     OW43434  11.536  13.182   8.597
13846SOL    HW143435  11.557  13.227   8.516
13846SOL    HW243436  11.523  13.252   8.661
13847SOL     OW43437   1.623   8.386   2.403
13847SOL    HW143438   1.574   8.329   2.344
13847SOL    HW243439   1.570   8.389   2.483
13848SOL     OW43440  12.240   2.669   2.165
13848SOL    HW143441  12.248   2.699   2.255
13848SOL    HW243442  12.236   2.574   2.171
13849SOL     OW43443   7.573   2.388  10.020
13849SOL    HW143444   7.500   2.365   9.962
13849SOL    HW243445   7.562   2.331  10.096
13850SOL     OW43446   2.950   1.959   6.378
13850SOL    HW143447   2.975   1.963   6.286
13850SOL    HW243448   3.012   1.898   6.417
13851SOL     OW43449   3.252   1.697  11.568
13851SOL    HW143450   3.241   1.760  11.639
13851SOL    HW243451   3.331   1.647  11.592
13852SOL     OW43452   7.593   2.412   8.317
13852SOL    HW143453   7.498   2.417   8.307
13852SOL    HW243454   7.628   2.435   8.230
13853SOL     OW43455   4.813   6.470  10.134
13853SOL    HW143456   4.724   6.503  10.142
13853SOL    HW243457   4.862   6.541  10.093
13854SOL     OW43458   5.798   8.741  11.049
13854SOL    HW143459   5.731   8.790  11.001
13854SOL    HW243460   5.881   8.771  11.013
13855SOL     OW43461   4.421   5.684   9.987
13855SOL    HW143462   4.328   5.705   9.982
13855SOL    HW243463   4.466   5.767   9.976
13856SOL     OW43464   5.086  10.346   2.509
13856SOL    HW143465   5.138  10.422   2.533
13856SOL    HW243466   5.149  10.274   2.502
13857SOL     OW43467   2.684  13.770   5.985
13857SOL    HW143468   2.625  13.706   5.944
13857SOL    HW243469   2.762  13.770   5.930
13858SOL     OW43470   9.651  10.860  13.252
13858SOL    HW143471   9.601  10.797  13.201
13858SOL    HW243472   9.698  10.808  13.317
13859SOL     OW43473   2.223  13.538   0.260
13859SOL    HW143474   2.230  13.466   0.322
13859SOL    HW243475   2.170  13.603   0.305
13860SOL     OW43476  14.355   5.472  13.994
13860SOL    HW143477  14.402   5.390  13.979
13860SOL    HW243478  14.310   5.459  14.077
13861SOL     OW43479   1.079   0.523   0.542
13861SOL    HW143480   1.021   0.591   0.578
13861SOL    HW243481   1.165   0.566   0.536
13862SOL     OW43482   7.423   6.390  11.718
13862SOL    HW143483   7.367   6.318  11.689
13862SOL    HW243484   7.373   6.433  11.787
13863SOL     OW43485  10.302   7.363  10.653
13863SOL    HW143486  10.209   7.378  10.670
13863SOL    HW243487  10.303   7.286  10.595
13864SOL     OW43488   4.433   1.017   1.176
13864SOL    HW143489   4.524   1.019   1.204
13864SOL    HW243490   4.411   0.924   1.172
13865SOL     OW43491  11.914   4.375   7.626
13865SOL    HW143492  11.891   4.460   7.587
13865SOL    HW243493  11.880   4.380   7.715
13866SOL     OW43494   8.467   2.363   7.341
13866SOL    HW143495   8.397   2.329   7.397
13866SOL    HW243496   8.426   2.434   7.291
13867SOL     OW43497  10.449   5.617  14.086
13867SOL    HW143498  10.485   5.604  13.998
13867SOL    HW243499  10.362   5.654  14.070
13868SOL     OW43500  14.824  13.217  11.399
13868SOL    HW143501  14.751  13.235  11.339
13868SOL    HW243502  14.787  13.155  11.462
13869SOL     OW43503   8.340  10.946   6.130
13869SOL    HW143504   8.360  10.882   6.198
13869SOL    HW243505   8.252  10.977   6.150
13870SOL     OW43506   2.740   4.423   6.385
13870SOL    HW143507   2.710   4.387   6.302
13870SOL    HW243508   2.662   4.429   6.440
13871SOL     OW43509  11.342   1.368  13.357
13871SOL    HW143510  11.283   1.443  13.356
13871SOL    HW243511  11.299   1.304  13.414
13872SOL     OW43512   8.670   8.466  10.881
13872SOL    HW143513   8.623   8.539  10.921
13872SOL    HW243514   8.659   8.479  10.787
13873SOL     OW43515  14.676   9.278   1.507
13873SOL    HW143516  14.584   9.288   1.531
13873SOL    HW243517  14.723   9.328   1.574
13874SOL     OW43518  10.213   5.131   8.917
13874SOL    HW143519  10.160   5.096   8.988
13874SOL    HW243520  10.171   5.100   8.837
13875SOL     OW43521   4.923  10.019   6.168
13875SOL    HW143522   5.011   9.988   6.191
13875SOL    HW243523   4.929  10.115   6.176
13876SOL     OW43524   6.755   4.444   7.211
13876SOL    HW143525   6.805   4.362   7.211
13876SOL    HW243526   6.821   4.513   7.206
13877SOL     OW43527  12.128  10.258   4.336
13877SOL    HW143528  12.064  10.326   4.357
13877SOL    HW243529  12.201  10.276   4.395
13878SOL     OW43530   0.168  11.130  13.999
13878SOL    HW143531   0.163  11.201  14.063
13878SOL    HW243532   0.085  11.083  14.008
13879SOL     OW43533   7.732   9.288   0.494
13879SOL    HW143534   7.640   9.306   0.513
13879SOL    HW243535   7.770   9.374   0.475
13880SOL     OW43536   2.220   9.614  12.368
13880SOL    HW143537   2.214   9.620  12.464
13880SOL    HW243538   2.134   9.585  12.340
13881SOL     OW43539  14.408   6.056   6.503
13881SOL    HW143540  14.345   5.987   6.524
13881SOL    HW243541  14.451   6.025   6.423
13882SOL     OW43542   5.864   8.109   3.835
13882SOL    HW143543   5.938   8.139   3.783
13882SOL    HW243544   5.892   8.024   3.870
13883SOL     OW43545   7.493   7.462  13.747
13883SOL    HW143546   7.523   7.479  13.657
13883SOL    HW243547   7.448   7.378  13.742
13884SOL     OW43548   5.261   2.429  11.335
13884SOL    HW143549   5.167   2.414  11.328
13884SOL    HW243550   5.278   2.505  11.281
13885SOL     OW43551   9.822   6.683  10.373
13885SOL    HW143552   9.893   6.704  10.435
13885SOL    HW243553   9.852   6.717  10.289
13886SOL     OW43554  11.223   2.923   0.386
13886SOL    HW143555  11.236   3.016   0.370
13886SOL    HW243556  11.134   2.916   0.418
13887SOL     OW43557   5.232   5.346   7.481
13887SOL    HW143558   5.201   5.374   7.396
13887SOL    HW243559   5.300   5.409   7.505
13888SOL     OW43560   8.690   8.842   9.433
13888SOL    HW143561   8.767   8.865   9.381
13888SOL    HW243562   8.722   8.841   9.523
13889SOL     OW43563   5.121   6.039   5.718
13889SOL    HW143564   5.132   5.958   5.768
13889SOL    HW243565   5.205   6.083   5.724
13890SOL     OW43566   6.833  11.941   3.787
13890SOL    HW143567   6.880  12.017   3.820
13890SOL    HW243568   6.805  11.894   3.866
13891SOL     OW43569   5.772   5.846   0.723
13891SOL    HW143570   5.719   5.924   0.741
13891SOL    HW243571   5.857   5.881   0.697
13892SOL     OW43572  14.608  13.074  12.940
13892SOL    HW143573  14.583  13.010  12.873
13892SOL    HW243574  14.584  13.033  13.023
13893SOL     OW43575   7.473   1.931   0.762
13893SOL    HW143576   7.453   1.954   0.853
13893SOL    HW243577   7.387   1.920   0.721
13894SOL     OW43578   2.050   4.273   7.532
13894SOL    HW143579   1.978   4.331   7.506
13894SOL    HW243580   2.098   4.256   7.451
13895SOL     OW43581   1.897   9.870   2.812
13895SOL    HW143582   1.892   9.883   2.718
13895SOL    HW243583   1.991   9.871   2.831
13896SOL     OW43584   8.364   7.304   3.832
13896SOL    HW143585   8.386   7.366   3.901
13896SOL    HW243586   8.416   7.330   3.757
13897SOL     OW43587   1.533   6.261  12.500
13897SOL    HW143588   1.559   6.182  12.547
13897SOL    HW243589   1.458   6.294  12.549
13898SOL     OW43590   2.208   1.435   1.461
13898SOL    HW143591   2.129   1.411   1.510
13898SOL    HW243592   2.192   1.525   1.433
13899SOL     OW43593   0.924  14.608  13.879
13899SOL    HW143594   0.874  14.671  13.931
13899SOL    HW243595   0.934  14.650  13.793
13900SOL     OW43596   2.914   8.314   1.342
13900SOL    HW143597   2.934   8.407   1.347
13900SOL    HW243598   2.883   8.301   1.252
13901SOL     OW43599   1.567   6.083   8.899
13901SOL    HW143600   1.640   6.023   8.884
13901SOL    HW243601   1.535   6.104   8.811
13902SOL     OW43602  14.060   0.230   9.555
13902SOL    HW143603  14.122   0.173   9.509
13902SOL    HW243604  14.100   0.245   9.641
13903SOL     OW43605  10.575  13.439   7.294
13903SOL    HW143606  10.658  13.482   7.314
13903SOL    HW243607  10.587  13.403   7.206
13904SOL     OW43608  12.538  10.331   6.881
13904SOL    HW143609  12.563  10.374   6.962
13904SOL    HW243610  12.592  10.373   6.814
13905SOL     OW43611   7.543   1.209   3.768
13905SOL    HW143612   7.464   1.157   3.784
13905SOL    HW243613   7.609   1.172   3.826
13906SOL     OW43614   3.345   5.500  14.105
13906SOL    HW143615   3.388   5.526  14.023
13906SOL    HW243616   3.388   5.417  14.128
13907SOL     OW43617   6.927   1.486  11.523
13907SOL    HW143618   6.886   1.401  11.507
13907SOL    HW243619   6.894   1.512  11.609
13908SOL     OW43620   8.251  13.274   4.710
13908SOL    HW143621   8.240  13.258   4.804
13908SOL    HW243622   8.221  13.364   4.697
13909SOL     OW43623   1.671   9.505  14.274
13909SOL    HW143624   1.683   9.572  14.341
13909SOL    HW243625   1.595   9.535  14.223
13910SOL     OW43626   7.248  11.535   8.126
13910SOL    HW143627   7.203  11.511   8.207
13910SOL    HW243628   7.305  11.461   8.107
13911SOL     OW43629  12.459  10.444   2.085
13911SOL    HW143630  12.400  10.412   2.017
13911SOL    HW243631  12.486  10.531   2.054
13912SOL     OW43632  13.795   4.542   5.387
13912SOL    HW143633  13.725   4.525   5.325
13912SOL    HW243634  13.760   4.612   5.443
13913SOL     OW43635   2.494  14.416  10.967
13913SOL    HW143636   2.463  14.380  10.884
13913SOL    HW243637   2.444  14.497  10.979
13914SOL     OW43638   5.561   3.636   3.082
13914SOL    HW143639   5.628   3.701   3.059
13914SOL    HW243640   5.543   3.591   3.000
13915SOL     OW43641  13.019   0.756   2.425
13915SOL    HW143642  13.044   0.720   2.511
13915SOL    HW243643  12.929   0.785   2.436
13916SOL     OW43644   4.097   0.123   0.533
13916SOL    HW143645   4.069   0.038   0.498
13916SOL    HW243646   4.016   0.174   0.538
13917SOL     OW43647   1.718   1.364  14.346
13917SOL    HW143648   1.709   1.293  14.283
13917SOL    HW243649   1.760   1.435  14.296
13918SOL     OW43650   4.015   6.773   6.705
13918SOL    HW143651   4.030   6.860   6.669
13918SOL    HW243652   4.092   6.722   6.678
13919SOL     OW43653  12.555   6.186   0.206
13919SOL    HW143654  12.548   6.186   0.302
13919SOL    HW243655  12.574   6.095   0.183
13920SOL     OW43656  13.104  14.257   9.497
13920SOL    HW143657  13.054  14.324   9.449
13920SOL    HW243658  13.155  14.307   9.561
13921SOL     OW43659  13.988  12.322  13.914
13921SOL    HW143660  13.920  12.353  13.854
13921SOL    HW243661  13.969  12.229  13.925
13922SOL     OW43662   8.090   0.115   0.701
13922SOL    HW143663   8.143   0.074   0.769
13922SOL    HW243664   8.143   0.189   0.670
13923SOL     OW43665   3.894   6.866   4.629
13923SOL    HW143666   3.849   6.891   4.548
13923SOL    HW243667   3.877   6.938   4.690
13924SOL     OW43668  12.922   7.626  11.866
13924SOL    HW143669  12.880   7.631  11.780
13924SOL    HW243670  12.862   7.672  11.925
13925SOL     OW43671   9.662  11.008   2.127
13925SOL    HW143672   9.661  11.103   2.141
13925SOL    HW243673   9.619  10.996   2.042
13926SOL     OW43674   5.167  12.371   6.308
13926SOL    HW143675   5.083  12.360   6.354
13926SOL    HW243676   5.211  12.287   6.318
13927SOL     OW43677  12.805   5.148  11.628
13927SOL    HW143678  12.713   5.177  11.628
13927SOL    HW243679  12.850   5.212  11.684
13928SOL     OW43680   5.494   6.535   1.298
13928SOL    HW143681   5.528   6.608   1.246
13928SOL    HW243682   5.399   6.543   1.289
13929SOL     OW43683   8.960   8.413   4.206
13929SOL    HW143684   9.032   8.464   4.242
13929SOL    HW243685   8.993   8.323   4.204
13930SOL     OW43686  11.129  13.394   7.208
13930SOL    HW143687  11.120  13.480   7.249
13930SOL    HW243688  11.087  13.404   7.122
13931SOL     OW43689   6.627   5.926   7.478
13931SOL    HW143690   6.559   5.993   7.471
13931SOL    HW243691   6.579   5.845   7.498
13932SOL     OW43692   6.285   7.326   5.833
13932SOL    HW143693   6.199   7.295   5.862
13932SOL    HW243694   6.283   7.421   5.848
13933SOL     OW43695   3.843  13.115   3.147
13933SOL    HW143696   3.899  13.188   3.173
13933SOL    HW243697   3.872  13.092   3.059
13934SOL     OW43698   5.214   4.065  10.212
13934SOL    HW143699   5.176   4.059  10.124
13934SOL    HW243700   5.277   3.993  10.216
13935SOL     OW43701   5.473  12.690   1.250
13935SOL    HW143702   5.546  12.668   1.307
13935SOL    HW243703   5.501  12.662   1.163
13936SOL     OW43704   8.114  12.962   2.136
13936SOL    HW143705   8.170  13.006   2.200
13936SOL    HW243706   8.044  13.024   2.118
13937SOL     OW43707   9.270  10.615  12.098
13937SOL    HW143708   9.260  10.620  12.193
13937SOL    HW243709   9.308  10.699  12.072
13938SOL     OW43710   2.014   1.210   1.937
13938SOL    HW143711   2.015   1.167   1.851
13938SOL    HW243712   1.962   1.152   1.993
13939SOL     OW43713  11.813   3.358  13.132
13939SOL    HW143714  11.728   3.328  13.099
13939SOL    HW243715  11.836   3.293  13.198
13940SOL     OW43716   0.355  14.178  12.177
13940SOL    HW143717   0.407  14.223  12.244
13940SOL    HW243718   0.266  14.177  12.213
13941SOL     OW43719   8.942   1.041   7.766
13941SOL    HW143720   8.958   1.037   7.860
13941SOL    HW243721   8.884   0.967   7.748
13942SOL     OW43722  10.885   4.842  11.369
13942SOL    HW143723  10.833   4.837  11.449
13942SOL    HW243724  10.843   4.780  11.310
13943SOL     OW43725   0.163  14.245  10.667
13943SOL    HW143726   0.099  14.226  10.735
13943SOL    HW243727   0.194  14.333  10.687
13944SOL     OW43728  12.992  11.643  12.849
13944SOL    HW143729  12.962  11.686  12.769
13944SOL    HW243730  13.032  11.561  12.819
13945SOL     OW43731   2.775   6.056  11.913
13945SOL    HW143732   2.847   6.040  11.974
13945SOL    HW243733   2.710   6.104  11.964
13946SOL     OW43734  14.558   1.568   9.647
13946SOL    HW143735  14.532   1.532   9.732
13946SOL    HW243736  14.475   1.587   9.603
13947SOL     OW43737  13.299   4.309   8.772
13947SOL    HW143738  13.227   4.260   8.811
13947SOL    HW243739  13.293   4.396   8.813
13948SOL     OW43740   8.912  14.191  10.218
13948SOL    HW143741   8.990  14.245  10.232
13948SOL    HW243742   8.846  14.229  10.275
13949SOL     OW43743  14.245  13.604   5.509
13949SOL    HW143744  14.246  13.674   5.575
13949SOL    HW243745  14.324  13.554   5.527
13950SOL     OW43746  11.925   2.373   0.352
13950SOL    HW143747  11.990   2.398   0.417
13950SOL    HW243748  11.887   2.292   0.386
13951SOL     OW43749   5.127  11.891   5.707
13951SOL    HW143750   5.187  11.856   5.772
13951SOL    HW243751   5.088  11.968   5.750
13952SOL     OW43752  12.452   4.315   5.336
13952SOL    HW143753  12.361   4.300   5.309
13952SOL    HW243754  12.471   4.404   5.308
13953SOL     OW43755   7.345   3.371   8.986
13953SOL    HW143756   7.284   3.426   8.937
13953SOL    HW243757   7.364   3.297   8.927
13954SOL     OW43758   0.524  11.543   2.892
13954SOL    HW143759   0.615  11.543   2.863
13954SOL    HW243760   0.526  11.587   2.977
13955SOL     OW43761  14.326  12.797   7.017
13955SOL    HW143762  14.342  12.886   7.050
13955SOL    HW243763  14.411  12.754   7.022
13956SOL     OW43764  12.931   7.734   1.761
13956SOL    HW143765  12.994   7.711   1.692
13956SOL    HW243766  12.881   7.654   1.775
13957SOL     OW43767   8.384  10.954   4.671
13957SOL    HW143768   8.413  10.869   4.637
13957SOL    HW243769   8.378  10.941   4.765
13958SOL     OW43770   8.312   2.763   7.758
13958SOL    HW143771   8.401   2.800   7.757
13958SOL    HW243772   8.267   2.807   7.685
13959SOL     OW43773   4.442   8.653  10.575
13959SOL    HW143774   4.409   8.726  10.522
13959SOL    HW243775   4.375   8.640  10.642
13960SOL     OW43776   4.393   6.853   3.572
13960SOL    HW143777   4.350   6.799   3.505
13960SOL    HW243778   4.397   6.941   3.533
13961SOL     OW43779   6.695  13.248  10.324
13961SOL    HW143780   6.739  13.273  10.242
13961SOL    HW243781   6.763  13.257  10.391
13962SOL     OW43782  10.592  13.949  13.423
13962SOL    HW143783  10.546  13.971  13.342
13962SOL    HW243784  10.598  13.854  13.423
13963SOL     OW43785  12.567   9.954   1.651
13963SOL    HW143786  12.553   9.894   1.578
13963SOL    HW243787  12.512  10.030   1.630
13964SOL     OW43788  14.653  14.599   4.697
13964SOL    HW143789  14.594  14.666   4.662
13964SOL    HW243790  14.705  14.571   4.621
13965SOL     OW43791   4.294   3.678   0.773
13965SOL    HW143792   4.319   3.715   0.857
13965SOL    HW243793   4.208   3.715   0.754
13966SOL     OW43794  13.821  12.552  11.767
13966SOL    HW143795  13.825  12.495  11.844
13966SOL    HW243796  13.864  12.633  11.795
13967SOL     OW43797   2.021  10.790  13.874
13967SOL    HW143798   2.114  10.788  13.855
13967SOL    HW243799   1.978  10.792  13.789
13968SOL     OW43800   0.431   2.083   6.605
13968SOL    HW143801   0.421   2.121   6.518
13968SOL    HW243802   0.341   2.062   6.632
13969SOL     OW43803   2.855   1.302   4.409
13969SOL    HW143804   2.908   1.224   4.428
13969SOL    HW243805   2.879   1.327   4.320
13970SOL     OW43806   1.317  12.090   3.703
13970SOL    HW143807   1.350  12.169   3.661
13970SOL    HW243808   1.367  12.018   3.664
13971SOL     OW43809   6.511  11.304   5.959
13971SOL    HW143810   6.547  11.225   6.000
13971SOL    HW243811   6.465  11.349   6.030
13972SOL     OW43812   8.629  11.560   8.224
13972SOL    HW143813   8.711  11.588   8.184
13972SOL    HW243814   8.625  11.606   8.308
13973SOL     OW43815   7.382   2.352   5.301
13973SOL    HW143816   7.431   2.270   5.304
13973SOL    HW243817   7.296   2.328   5.268
13974SOL     OW43818   9.857   1.434   1.397
13974SOL    HW143819   9.949   1.461   1.397
13974SOL    HW243820   9.857   1.346   1.435
13975SOL     OW43821   5.346   1.746   2.432
13975SOL    HW143822   5.343   1.751   2.337
13975SOL    HW243823   5.266   1.789   2.461
13976SOL     OW43824   8.932  13.019   3.840
13976SOL    HW143825   8.907  13.095   3.788
13976SOL    HW243826   9.026  13.008   3.822
13977SOL     OW43827  14.759   7.383   8.657
13977SOL    HW143828  14.670   7.364   8.627
13977SOL    HW243829  14.815   7.329   8.600
13978SOL     OW43830   4.836   2.224   6.401
13978SOL    HW143831   4.897   2.195   6.333
13978SOL    HW243832   4.886   2.285   6.455
13979SOL     OW43833   7.154   5.791  10.868
13979SOL    HW143834   7.128   5.703  10.894
13979SOL    HW243835   7.098   5.849  10.920
13980SOL     OW43836  12.669   7.514   7.466
13980SOL    HW143837  12.635   7.447   7.407
13980SOL    HW243838  12.593   7.566   7.491
13981SOL     OW43839   6.386  14.218  10.598
13981SOL    HW143840   6.414  14.302  10.635
13981SOL    HW243841   6.396  14.229  10.503
13982SOL     OW43842  11.221  10.360  11.280
13982SOL    HW143843  11.176  10.379  11.197
13982SOL    HW243844  11.265  10.276  11.264
13983SOL     OW43845  13.693   0.855   4.862
13983SOL    HW143846  13.705   0.808   4.944
13983SOL    HW243847  13.770   0.910   4.854
13984SOL     OW43848  14.788   2.299  14.260
13984SOL    HW143849  14.863   2.352  14.235
13984SOL    HW243850  14.809   2.211  14.228
13985SOL     OW43851   7.716   0.827   3.791
13985SOL    HW143852   7.713   0.746   3.741
13985SOL    HW243853   7.706   0.896   3.726
13986SOL     OW43854   5.581   1.288   4.851
13986SOL    HW143855   5.614   1.336   4.927
13986SOL    HW243856   5.649   1.223   4.832
13987SOL     OW43857   3.301   9.995   4.673
13987SOL    HW143858   3.304  10.091   4.670
13987SOL    HW243859   3.306   9.974   4.766
13988SOL     OW43860   8.197   2.586   8.464
13988SOL    HW143861   8.237   2.623   8.385
13988SOL    HW243862   8.138   2.655   8.495
13989SOL     OW43863   2.062   3.051   8.908
13989SOL    HW143864   2.028   3.081   8.823
13989SOL    HW243865   1.988   3.009   8.951
13990SOL     OW43866   8.751   9.798   8.383
13990SOL    HW143867   8.679   9.859   8.367
13990SOL    HW243868   8.817   9.822   8.319
13991SOL     OW43869   9.960   1.107   0.200
13991SOL    HW143870  10.018   1.099   0.276
13991SOL    HW243871   9.882   1.152   0.234
13992SOL     OW43872   8.605  12.116   4.796
13992SOL    HW143873   8.574  12.043   4.849
13992SOL    HW243874   8.573  12.097   4.708
13993SOL     OW43875   3.972   2.523   4.386
13993SOL    HW143876   4.055   2.476   4.380
13993SOL    HW243877   3.918   2.486   4.317
13994SOL     OW43878  13.980   9.561  13.996
13994SOL    HW143879  13.921   9.562  14.071
13994SOL    HW243880  14.067   9.573  14.034
13995SOL     OW43881   0.325  14.095  14.468
13995SOL    HW143882   0.253  14.157  14.454
13995SOL    HW243883   0.366  14.086  14.382
13996SOL     OW43884   7.652   0.880   2.738
13996SOL    HW143885   7.673   0.795   2.700
13996SOL    HW243886   7.654   0.941   2.665
13997SOL     OW43887   4.797   8.654  10.244
13997SOL    HW143888   4.838   8.608  10.171
13997SOL    HW243889   4.863   8.651  10.314
13998SOL     OW43890   0.566  11.470   5.278
13998SOL    HW143891   0.648  11.518   5.269
13998SOL    HW243892   0.575  11.422   5.360
13999SOL     OW43893  11.151  11.647   8.503
13999SOL    HW143894  11.149  11.739   8.529
13999SOL    HW243895  11.242  11.632   8.476
14000SOL     OW43896   9.929   9.106   8.986
14000SOL    HW143897   9.867   9.136   8.920
14000SOL    HW243898   9.894   9.022   9.015
14001SOL     OW43899  13.757  12.059   8.447
14001SOL    HW143900  13.842  12.058   8.492
14001SOL    HW243901  13.737  11.966   8.433
14002SOL     OW43902  12.220   4.579   9.793
14002SOL    HW143903  12.290   4.548   9.736
14002SOL    HW243904  12.189   4.500   9.838
14003SOL     OW43905   2.585   6.499  12.355
14003SOL    HW143906   2.644   6.486  12.281
14003SOL    HW243907   2.601   6.424  12.412
14004SOL     OW43908   5.465   8.090   5.643
14004SOL    HW143909   5.383   8.054   5.677
14004SOL    HW243910   5.439   8.166   5.591
14005SOL     OW43911   1.658  14.521  10.809
14005SOL    HW143912   1.752  14.538  10.805
14005SOL    HW243913   1.622  14.563  10.731
14006SOL     OW43914   4.183  14.687   4.728
14006SOL    HW143915   4.279  14.696   4.727
14006SOL    HW243916   4.165  14.615   4.668
14007SOL     OW43917  12.186  14.143   7.565
14007SOL    HW143918  12.106  14.175   7.606
14007SOL    HW243919  12.209  14.065   7.615
14008SOL     OW43920   8.469   2.462   2.985
14008SOL    HW143921   8.555   2.504   2.979
14008SOL    HW243922   8.487   2.369   2.970
14009SOL     OW43923   3.941   2.664  11.585
14009SOL    HW143924   3.887   2.624  11.653
14009SOL    HW243925   4.031   2.641  11.610
14010SOL     OW43926  14.557  14.863   9.557
14010SOL    HW143927  14.640   0.036   9.572
14010SOL    HW243928  14.581  14.776   9.526
14011SOL     OW43929   8.881   4.941   5.698
14011SOL    HW143930   8.942   5.013   5.713
14011SOL    HW243931   8.804   4.982   5.658
14012SOL     OW43932   9.641   4.341   1.354
14012SOL    HW143933   9.579   4.316   1.285
14012SOL    HW243934   9.629   4.436   1.362
14013SOL     OW43935  14.024  13.695  14.234
14013SOL    HW143936  13.954  13.756  14.255
14013SOL    HW243937  14.101  13.750  14.221
14014SOL     OW43938  11.570  10.375  11.870
14014SOL    HW143939  11.583  10.281  11.882
14014SOL    HW243940  11.563  10.386  11.775
14015SOL     OW43941   5.802   0.538   5.020
14015SOL    HW143942   5.800   0.452   5.061
14015SOL    HW243943   5.894   0.565   5.025
14016SOL     OW43944   2.155   4.057  14.218
14016SOL    HW143945   2.160   4.136  14.166
14016SOL    HW243946   2.193   4.081  14.302
14017SOL     OW43947   6.038   1.081   6.504
14017SOL    HW143948   6.049   1.127   6.421
14017SOL    HW243949   6.016   0.991   6.479
14018SOL     OW43950   6.448   5.541   2.109
14018SOL    HW143951   6.432   5.631   2.139
14018SOL    HW243952   6.523   5.549   2.051
14019SOL     OW43953   8.007  11.762  10.264
14019SOL    HW143954   7.997  11.727  10.175
14019SOL    HW243955   8.052  11.693  10.312
14020SOL     OW43956   4.757   1.884   8.591
14020SOL    HW143957   4.814   1.951   8.554
14020SOL    HW243958   4.669   1.919   8.579
14021SOL     OW43959   7.929  11.169   1.713
14021SOL    HW143960   8.007  11.116   1.695
14021SOL    HW243961   7.869  11.109   1.757
14022SOL     OW43962   0.028   4.784   2.388
14022SOL    HW143963   0.081   4.859   2.416
14022SOL    HW243964   0.091   4.720   2.357
14023SOL     OW43965   6.772   0.733   1.122
14023SOL    HW143966   6.823   0.653   1.111
14023SOL    HW243967   6.681   0.707   1.106
14024SOL     OW43968  11.264  11.535   1.711
14024SOL    HW143969  11.345  11.586   1.703
14024SOL    HW243970  11.254  11.521   1.806
14025SOL     OW43971  13.077   1.707   8.407
14025SOL    HW143972  13.021   1.768   8.455
14025SOL    HW243973  13.021   1.670   8.339
14026SOL     OW43974   5.478   7.044   6.824
14026SOL    HW143975   5.462   7.117   6.884
14026SOL    HW243976   5.469   7.082   6.737
14027SOL     OW43977  14.794   4.532  12.044
14027SOL    HW143978   0.010   4.521  12.006
14027SOL    HW243979  14.786   4.627  12.058
14028SOL     OW43980  12.536  10.315   0.710
14028SOL    HW143981  12.521  10.226   0.742
14028SOL    HW243982  12.561  10.303   0.619
14029SOL     OW43983   9.151   6.269   3.099
14029SOL    HW143984   9.163   6.274   3.194
14029SOL    HW243985   9.201   6.193   3.073
14030SOL     OW43986   2.432   6.715   8.116
14030SOL    HW143987   2.466   6.639   8.163
14030SOL    HW243988   2.422   6.783   8.183
14031SOL     OW43989   2.973   7.996   7.396
14031SOL    HW143990   3.002   7.983   7.305
14031SOL    HW243991   2.988   7.911   7.438
14032SOL     OW43992   9.513   3.632   8.866
14032SOL    HW143993   9.495   3.664   8.778
14032SOL    HW243994   9.427   3.619   8.906
14033SOL     OW43995   9.779   8.998  14.429
14033SOL    HW143996   9.758   9.090  14.413
14033SOL    HW243997   9.778   8.958  14.342
14034SOL     OW43998  14.769  13.543   1.465
14034SOL    HW143999  14.724  13.459   1.475
14034SOL    HW244000  14.698  13.608   1.466
14035SOL     OW44001  12.172   7.656   6.918
14035SOL    HW144002  12.144   7.565   6.930
14035SOL    HW244003  12.103   7.695   6.863
14036SOL     OW44004   8.120   0.247   2.611
14036SOL    HW144005   8.189   0.209   2.666
14036SOL    HW244006   8.076   0.309   2.669
14037SOL     OW44007  10.497   5.190   6.261
14037SOL    HW144008  10.421   5.136   6.280
14037SOL    HW244009  10.474   5.277   6.294
14038SOL     OW44010  11.230  12.065  11.371
14038SOL    HW144011  11.281  11.991  11.403
14038SOL    HW244012  11.182  12.031  11.296
14039SOL     OW44013  14.372   9.567  12.044
14039SOL    HW144014  14.444   9.629  12.043
14039SOL    HW244015  14.373   9.530  12.132
14040SOL     OW44016   7.856   6.999  11.883
14040SOL    HW144017   7.807   6.918  11.898
14040SOL    HW244018   7.794   7.057  11.840
14041SOL     OW44019   7.530  10.987  13.862
14041SOL    HW144020   7.548  11.025  13.776
14041SOL    HW244021   7.479  10.908  13.844
14042SOL     OW44022  13.476   8.421   0.414
14042SOL    HW144023  13.559   8.468   0.400
14042SOL    HW244024  13.495   8.361   0.487
14043SOL     OW44025   6.056   2.258  12.721
14043SOL    HW144026   6.020   2.176  12.754
14043SOL    HW244027   5.993   2.325  12.750
14044SOL     OW44028   1.342  10.258  13.720
14044SOL    HW144029   1.298  10.248  13.635
14044SOL    HW244030   1.283  10.314  13.771
14045SOL     OW44031  13.027   6.368   1.535
14045SOL    HW144032  13.058   6.382   1.625
14045SOL    HW244033  13.059   6.281   1.513
14046SOL     OW44034  12.557   6.673  11.917
14046SOL    HW144035  12.469   6.689  11.950
14046SOL    HW244036  12.609   6.747  11.949
14047SOL     OW44037   4.584   7.830  12.817
14047SOL    HW144038   4.679   7.820  12.813
14047SOL    HW244039   4.570   7.914  12.860
14048SOL     OW44040  14.268   5.974   4.388
14048SOL    HW144041  14.218   6.055   4.400
14048SOL    HW244042  14.359   6.003   4.380
14049SOL     OW44043   9.075   7.723   0.430
14049SOL    HW144044   8.990   7.740   0.388
14049SOL    HW244045   9.075   7.628   0.445
14050SOL     OW44046   7.268   6.480   0.788
14050SOL    HW144047   7.191   6.513   0.741
14050SOL    HW244048   7.232   6.427   0.860
14051SOL     OW44049   8.269  14.248   9.035
14051SOL    HW144050   8.183  14.248   8.992
14051SOL    HW244051   8.255  14.201   9.117
14052SOL     OW44052  14.223  13.006  12.864
14052SOL    HW144053  14.133  12.973  12.861
14052SOL    HW244054  14.278  12.930  12.850
14053SOL     OW44055  14.535   5.110  14.294
14053SOL    HW144056  14.562   5.024  14.262
14053SOL    HW244057  14.459   5.132  14.240
14054SOL     OW44058   6.384   1.374   1.389
14054SOL    HW144059   6.336   1.293   1.379
14054SOL    HW244060   6.344   1.435   1.327
14055SOL     OW44061   9.351   5.538   7.393
14055SOL    HW144062   9.291   5.604   7.357
14055SOL    HW244063   9.407   5.514   7.319
14056SOL     OW44064   9.482  14.253  11.479
14056SOL    HW144065   9.562  14.235  11.528
14056SOL    HW244066   9.416  14.269  11.545
14057SOL     OW44067   9.738  13.691   7.066
14057SOL    HW144068   9.760  13.613   7.117
14057SOL    HW244069   9.776  13.763   7.116
14058SOL     OW44070   9.935  11.485  10.238
14058SOL    HW144071   9.870  11.550  10.212
14058SOL    HW244072   9.915  11.408  10.184
14059SOL     OW44073   5.729   9.508   3.672
14059SOL    HW144074   5.765   9.441   3.614
14059SOL    HW244075   5.638   9.520   3.642
14060SOL     OW44076   6.041   9.374  10.994
14060SOL    HW144077   6.125   9.382  11.041
14060SOL    HW244078   6.013   9.464  10.980
14061SOL     OW44079   9.010   0.061   3.051
14061SOL    HW144080   9.024   0.137   3.107
14061SOL    HW244081   9.043  14.859   3.103
14062SOL     OW44082   8.920   7.743   5.547
14062SOL    HW144083   8.946   7.651   5.549
14062SOL    HW244084   8.980   7.787   5.608
14063SOL     OW44085   8.781   9.590   6.089
14063SOL    HW144086   8.744   9.515   6.137
14063SOL    HW244087   8.790   9.559   5.999
14064SOL     OW44088   4.424  14.601   9.492
14064SOL    HW144089   4.468  14.517   9.489
14064SOL    HW244090   4.338  14.585   9.453
14065SOL     OW44091   3.787   6.931   4.976
14065SOL    HW144092   3.844   6.995   5.019
14065SOL    HW244093   3.699   6.967   4.985
14066SOL     OW44094  10.789   1.235  10.638
14066SOL    HW144095  10.877   1.200  10.624
14066SOL    HW244096  10.791   1.323  10.600
14067SOL     OW44097   9.425   1.706   9.359
14067SOL    HW144098   9.392   1.619   9.338
14067SOL    HW244099   9.346   1.756   9.384
14068SOL     OW44100   7.896   4.681   9.109
14068SOL    HW144101   7.817   4.691   9.056
14068SOL    HW244102   7.957   4.634   9.052
14069SOL     OW44103   8.352  12.460   4.071
14069SOL    HW144104   8.286  12.525   4.049
14069SOL    HW244105   8.389  12.490   4.155
14070SOL     OW44106  11.076   1.078  10.846
14070SOL    HW144107  10.984   1.074  10.873
14070SOL    HW244108  11.078   1.034  10.761
14071SOL     OW44109  12.998  11.736   8.239
14071SOL    HW144110  12.983  11.756   8.331
14071SOL    HW244111  13.014  11.641   8.238
14072SOL     OW44112   1.357   1.284   7.021
14072SOL    HW144113   1.390   1.369   6.993
14072SOL    HW244114   1.316   1.247   6.942
14073SOL     OW44115   6.894   4.252   2.310
14073SOL    HW144116   6.845   4.285   2.235
14073SOL    HW244117   6.914   4.331   2.361
14074SOL     OW44118   9.525  13.220   7.675
14074SOL    HW144119   9.551  13.217   7.767
14074SOL    HW244120   9.589  13.278   7.634
14075SOL     OW44121   5.886  10.746   1.540
14075SOL    HW144122   5.927  10.722   1.457
14075SOL    HW244123   5.948  10.807   1.580
14076SOL     OW44124  14.445   7.193   9.102
14076SOL    HW144125  14.486   7.277   9.086
14076SOL    HW244126  14.422   7.194   9.195
14077SOL     OW44127   7.185  12.229   0.237
14077SOL    HW144128   7.158  12.187   0.155
14077SOL    HW244129   7.144  12.316   0.234
14078SOL     OW44130   4.637   0.175  11.152
14078SOL    HW144131   4.582   0.101  11.179
14078SOL    HW244132   4.583   0.252  11.168
14079SOL     OW44133  10.964   2.014   4.785
14079SOL    HW144134  10.999   1.925   4.790
14079SOL    HW244135  10.914   2.015   4.704
14080SOL     OW44136   5.901   6.100   3.176
14080SOL    HW144137   5.915   6.049   3.255
14080SOL    HW244138   5.913   6.037   3.105
14081SOL     OW44139  14.037  11.661   9.226
14081SOL    HW144140  14.045  11.622   9.313
14081SOL    HW244141  14.068  11.594   9.166
14082SOL     OW44142  13.738  10.644  11.717
14082SOL    HW144143  13.797  10.708  11.757
14082SOL    HW244144  13.756  10.563  11.764
14083SOL     OW44145   1.855  13.894   3.016
14083SOL    HW144146   1.833  13.844   3.095
14083SOL    HW244147   1.927  13.951   3.044
14084SOL     OW44148   9.282   4.349  14.091
14084SOL    HW144149   9.239   4.433  14.105
14084SOL    HW244150   9.304   4.318  14.179
14085SOL     OW44151   4.892  11.502  11.034
14085SOL    HW144152   4.835  11.426  11.020
14085SOL    HW244153   4.851  11.549  11.107
14086SOL     OW44154  14.259   6.998  10.322
14086SOL    HW144155  14.199   6.972  10.391
14086SOL    HW244156  14.327   6.931  10.322
14087SOL     OW44157   1.979   3.252  10.219
14087SOL    HW144158   1.985   3.343  10.249
14087SOL    HW244159   2.042   3.204  10.272
14088SOL     OW44160  13.145   4.420  11.681
14088SOL    HW144161  13.084   4.494  11.682
14088SOL    HW244162  13.118   4.365  11.754
14089SOL     OW44163  12.601  12.784  10.944
14089SOL    HW144164  12.601  12.879  10.956
14089SOL    HW244165  12.611  12.772  10.850
14090SOL     OW44166   8.952   1.106   8.628
14090SOL    HW144167   8.857   1.095   8.618
14090SOL    HW244168   8.979   1.153   8.549
14091SOL     OW44169  13.409  10.964   8.647
14091SOL    HW144170  13.475  10.964   8.577
14091SOL    HW244171  13.461  10.966   8.728
14092SOL     OW44172   7.651  10.612   4.899
14092SOL    HW144173   7.595  10.644   4.969
14092SOL    HW244174   7.637  10.673   4.827
14093SOL     OW44175  14.527   6.059   5.110
14093SOL    HW144176  14.571   6.141   5.133
14093SOL    HW244177  14.445   6.087   5.069
14094SOL     OW44178   3.485  14.524  10.271
14094SOL    HW144179   3.515  14.446  10.316
14094SOL    HW244180   3.564  14.578  10.262
14095SOL     OW44181   9.026   6.165   4.140
14095SOL    HW144182   9.073   6.189   4.060
14095SOL    HW244183   8.942   6.211   4.132
14096SOL     OW44184  14.120  11.577  13.418
14096SOL    HW144185  14.139  11.498  13.467
14096SOL    HW244186  14.053  11.622  13.470
14097SOL     OW44187   4.373   9.694   3.361
14097SOL    HW144188   4.341   9.734   3.441
14097SOL    HW244189   4.379   9.766   3.298
14098SOL     OW44190   5.588  10.185   3.781
14098SOL    HW144191   5.555  10.164   3.868
14098SOL    HW244192   5.518  10.237   3.741
14099SOL     OW44193  13.868   8.589  12.715
14099SOL    HW144194  13.904   8.519  12.661
14099SOL    HW244195  13.938   8.654  12.721
14100SOL     OW44196  12.118  13.899   1.836
14100SOL    HW144197  12.162  13.814   1.829
14100SOL    HW244198  12.056  13.901   1.763
14101SOL     OW44199   3.290  10.282   8.764
14101SOL    HW144200   3.339  10.313   8.841
14101SOL    HW244201   3.199  10.300   8.785
14102SOL     OW44202   1.420   7.920   1.424
14102SOL    HW144203   1.380   7.870   1.496
14102SOL    HW244204   1.459   7.853   1.368
14103SOL     OW44205   9.510  13.054   5.131
14103SOL    HW144206   9.521  13.149   5.126
14103SOL    HW244207   9.541  13.031   5.218
14104SOL     OW44208   7.115   9.781   5.065
14104SOL    HW144209   7.105   9.763   4.972
14104SOL    HW244210   7.164   9.707   5.100
14105SOL     OW44211   1.413  10.565   6.761
14105SOL    HW144212   1.340  10.557   6.822
14105SOL    HW244213   1.479  10.505   6.794
14106SOL     OW44214   2.376  10.371   6.761
14106SOL    HW144215   2.392  10.356   6.668
14106SOL    HW244216   2.421  10.453   6.781
14107SOL     OW44217  13.673   6.662  14.589
14107SOL    HW144218  13.613   6.653  14.663
14107SOL    HW244219  13.684   6.573  14.556
14108SOL     OW44220   8.290  13.861   9.681
14108SOL    HW144221   8.273  13.787   9.623
14108SOL    HW244222   8.366  13.835   9.732
14109SOL     OW44223   2.816   5.547   6.397
14109SOL    HW144224   2.776   5.584   6.318
14109SOL    HW244225   2.745   5.546   6.461
14110SOL     OW44226   8.718   9.002   4.855
14110SOL    HW144227   8.661   8.988   4.931
14110SOL    HW244228   8.673   8.957   4.783
14111SOL     OW44229  10.305  11.780   4.302
14111SOL    HW144230  10.252  11.849   4.341
14111SOL    HW244231  10.315  11.806   4.210
14112SOL     OW44232  14.785   0.531  14.508
14112SOL    HW144233  14.693   0.529  14.535
14112SOL    HW244234  14.788   0.473  14.432
14113SOL     OW44235  12.725   6.811   4.787
14113SOL    HW144236  12.681   6.736   4.747
14113SOL    HW244237  12.778   6.848   4.716
14114SOL     OW44238  14.639  10.696   2.711
14114SOL    HW144239  14.682  10.768   2.756
14114SOL    HW244240  14.662  10.706   2.619
14115SOL     OW44241   1.472   9.564  12.954
14115SOL    HW144242   1.545   9.557  12.893
14115SOL    HW244243   1.464   9.657  12.973
14116SOL     OW44244  14.650  13.936  13.501
14116SOL    HW144245  14.666  13.854  13.548
14116SOL    HW244246  14.725  13.946  13.443
14117SOL     OW44247   5.699   5.384   1.208
14117SOL    HW144248   5.788   5.406   1.178
14117SOL    HW244249   5.645   5.455   1.174
14118SOL     OW44250   8.568   6.575  10.448
14118SOL    HW144251   8.634   6.639  10.475
14118SOL    HW244252   8.531   6.611  10.367
14119SOL     OW44253  14.584  11.272   7.398
14119SOL    HW144254  14.544  11.358   7.415
14119SOL    HW244255  14.582  11.228   7.483
14120SOL     OW44256   9.258   4.507  10.951
14120SOL    HW144257   9.267   4.536  11.041
14120SOL    HW244258   9.206   4.426  10.957
14121SOL     OW44259   6.161   9.736   6.577
14121SOL    HW144260   6.179   9.828   6.556
14121SOL    HW244261   6.230   9.711   6.638
14122SOL     OW44262   6.115  14.045   7.324
14122SOL    HW144263   6.082  13.961   7.355
14122SOL    HW244264   6.040  14.105   7.329
14123SOL     OW44265   9.000   5.382   6.762
14123SOL    HW144266   9.037   5.358   6.677
14123SOL    HW244267   8.990   5.478   6.758
14124SOL     OW44268  13.144   1.272   5.328
14124SOL    HW144269  13.235   1.301   5.337
14124SOL    HW244270  13.096   1.351   5.304
14125SOL     OW44271  12.694   5.931   0.150
14125SOL    HW144272  12.627   5.867   0.125
14125SOL    HW244273  12.706   5.985   0.072
14126SOL     OW44274   7.276  13.570   3.433
14126SOL    HW144275   7.196  13.522   3.456
14126SOL    HW244276   7.325  13.510   3.377
14127SOL     OW44277   4.317  13.324   1.744
14127SOL    HW144278   4.340  13.304   1.653
14127SOL    HW244279   4.231  13.285   1.756
14128SOL     OW44280  11.483   3.744   5.584
14128SOL    HW144281  11.456   3.671   5.640
14128SOL    HW244282  11.567   3.772   5.619
14129SOL     OW44283   0.293   6.657   7.860
14129SOL    HW144284   0.258   6.708   7.787
14129SOL    HW244285   0.255   6.570   7.850
14130SOL     OW44286  13.981   2.934  12.982
14130SOL    HW144287  14.046   2.980  12.929
14130SOL    HW244288  13.917   3.001  13.005
14131SOL     OW44289   6.076   9.759   1.136
14131SOL    HW144290   6.124   9.832   1.098
14131SOL    HW244291   6.111   9.681   1.093
14132SOL     OW44292   3.580   6.039   0.061
14132SOL    HW144293   3.594   5.949   0.031
14132SOL    HW244294   3.595   6.035   0.155
14133SOL     OW44295   2.803   7.283  11.907
14133SOL    HW144296   2.747   7.360  11.904
14133SOL    HW244297   2.882   7.308  11.859
14134SOL     OW44298   4.927   5.736   7.729
14134SOL    HW144299   4.915   5.644   7.705
14134SOL    HW244300   4.969   5.732   7.815
14135SOL     OW44301   5.630  13.351   3.538
14135SOL    HW144302   5.609  13.305   3.619
14135SOL    HW244303   5.632  13.443   3.562
14136SOL     OW44304  12.322   1.172   4.239
14136SOL    HW144305  12.270   1.154   4.318
14136SOL    HW244306  12.261   1.213   4.179
14137SOL     OW44307   8.793  14.262   9.953
14137SOL    HW144308   8.860  14.328   9.935
14137SOL    HW244309   8.820  14.222  10.035
14138SOL     OW44310  14.735   2.868   5.976
14138SOL    HW144311  14.740   2.944   5.918
14138SOL    HW244312  14.798   2.886   6.045
14139SOL     OW44313   2.196   3.609  13.907
14139SOL    HW144314   2.167   3.541  13.846
14139SOL    HW244315   2.271   3.570  13.952
14140SOL     OW44316   8.478   7.282  13.336
14140SOL    HW144317   8.459   7.368  13.374
14140SOL    HW244318   8.455   7.220  13.405
14141SOL     OW44319   3.054   8.108   0.648
14141SOL    HW144320   2.995   8.063   0.708
14141SOL    HW244321   3.142   8.087   0.681
14142SOL     OW44322  12.335   0.447   6.544
14142SOL    HW144323  12.278   0.459   6.469
14142SOL    HW244324  12.396   0.378   6.517
14143SOL     OW44325  10.244  12.381   5.188
14143SOL    HW144326  10.188  12.308   5.163
14143SOL    HW244327  10.187  12.440   5.238
14144SOL     OW44328   6.996  14.585   5.412
14144SOL    HW144329   6.982  14.491   5.422
14144SOL    HW244330   7.089  14.593   5.391
14145SOL     OW44331  14.068  13.408  12.951
14145SOL    HW144332  14.080  13.479  13.013
14145SOL    HW244333  14.074  13.328  13.003
14146SOL     OW44334  12.343  12.097  10.266
14146SOL    HW144335  12.337  12.192  10.276
14146SOL    HW244336  12.433  12.081  10.237
14147SOL     OW44337   8.842   5.325   6.377
14147SOL    HW144338   8.797   5.392   6.427
14147SOL    HW244339   8.784   5.249   6.382
14148SOL     OW44340  11.161   6.890   5.525
14148SOL    HW144341  11.117   6.956   5.579
14148SOL    HW244342  11.170   6.932   5.439
14149SOL     OW44343   2.246   7.731   4.232
14149SOL    HW144344   2.341   7.742   4.226
14149SOL    HW244345   2.218   7.802   4.289
14150SOL     OW44346   8.913   3.878   8.927
14150SOL    HW144347   8.869   3.900   9.009
14150SOL    HW244348   8.909   3.959   8.876
14151SOL     OW44349   3.044   7.402  14.361
14151SOL    HW144350   2.991   7.323  14.370
14151SOL    HW244351   3.134   7.372  14.361
14152SOL     OW44352   1.924   6.363  14.695
14152SOL    HW144353   1.850   6.401  14.648
14152SOL    HW244354   1.885   6.298  14.753
14153SOL     OW44355   5.311  14.831  11.440
14153SOL    HW144356   5.254  14.836  11.517
14153SOL    HW244357   5.267   0.013  11.374
14154SOL     OW44358   6.490   7.372  11.007
14154SOL    HW144359   6.523   7.454  11.044
14154SOL    HW244360   6.569   7.327  10.975
14155SOL     OW44361   3.185   1.825   4.446
14155SOL    HW144362   3.130   1.748   4.462
14155SOL    HW244363   3.275   1.793   4.453
14156SOL     OW44364   5.515   3.712  10.292
14156SOL    HW144365   5.510   3.651  10.219
14156SOL    HW244366   5.606   3.740  10.295
14157SOL     OW44367  11.866   6.007   7.929
14157SOL    HW144368  11.957   6.024   7.952
14157SOL    HW244369  11.854   5.913   7.944
14158SOL     OW44370   8.432  14.525  13.016
14158SOL    HW144371   8.434  14.488  13.104
14158SOL    HW244372   8.339  14.537  12.997
14159SOL     OW44373   8.515  14.750   6.346
14159SOL    HW144374   8.520  14.706   6.432
14159SOL    HW244375   8.589  14.714   6.297
14160SOL     OW44376   2.793  13.441   7.782
14160SOL    HW144377   2.872  13.458   7.833
14160SOL    HW244378   2.816  13.365   7.728
14161SOL     OW44379   1.665   3.397   9.479
14161SOL    HW144380   1.570   3.391   9.481
14161SOL    HW244381   1.683   3.491   9.474
14162SOL     OW44382   5.791   0.554  10.542
14162SOL    HW144383   5.750   0.573  10.626
14162SOL    HW244384   5.733   0.595  10.478
14163SOL     OW44385   5.206   0.838  13.267
14163SOL    HW144386   5.171   0.781  13.335
14163SOL    HW244387   5.230   0.778  13.196
14164SOL     OW44388  13.045   0.907   2.171
14164SOL    HW144389  12.989   0.973   2.212
14164SOL    HW244390  13.047   0.835   2.234
14165SOL     OW44391  11.422   8.634  13.144
14165SOL    HW144392  11.512   8.657  13.165
14165SOL    HW244393  11.370   8.673  13.215
14166SOL     OW44394  12.191   8.615   9.855
14166SOL    HW144395  12.183   8.586   9.946
14166SOL    HW244396  12.115   8.671   9.842
14167SOL     OW44397   5.635   7.404   3.659
14167SOL    HW144398   5.725   7.392   3.631
14167SOL    HW244399   5.599   7.468   3.597
14168SOL     OW44400  10.720   5.251   1.463
14168SOL    HW144401  10.649   5.200   1.423
14168SOL    HW244402  10.771   5.284   1.389
14169SOL     OW44403  11.491  14.830   3.962
14169SOL    HW144404  11.566  14.783   3.924
14169SOL    HW244405  11.415  14.780   3.934
14170SOL     OW44406  12.618  13.225   5.517
14170SOL    HW144407  12.655  13.139   5.537
14170SOL    HW244408  12.555  13.242   5.587
14171SOL     OW44409  12.623   7.703   1.273
14171SOL    HW144410  12.672   7.622   1.289
14171SOL    HW244411  12.668   7.769   1.326
14172SOL     OW44412   9.085   6.372   7.035
14172SOL    HW144413   8.999   6.380   7.076
14172SOL    HW244414   9.128   6.302   7.084
14173SOL     OW44415   8.866   2.048   3.621
14173SOL    HW144416   8.777   2.050   3.585
14173SOL    HW244417   8.875   2.133   3.665
14174SOL     OW44418   4.416   9.916  10.409
14174SOL    HW144419   4.383   9.970  10.481
14174SOL    HW244420   4.417   9.827  10.443
14175SOL     OW44421   8.341  12.054   6.046
14175SOL    HW144422   8.277  12.118   6.015
14175SOL    HW244423   8.423  12.102   6.052
14176SOL     OW44424  12.231  11.729   9.671
14176SOL    HW144425  12.309  11.685   9.705
14176SOL    HW244426  12.158  11.693   9.722
14177SOL     OW44427  12.676   3.286   6.827
14177SOL    HW144428  12.667   3.224   6.899
14177SOL    HW244429  12.757   3.260   6.783
14178SOL     OW44430  10.115  10.422   7.793
14178SOL    HW144431  10.090  10.385   7.878
14178SOL    HW244432  10.195  10.375   7.770
14179SOL     OW44433   5.374   7.406   0.426
14179SOL    HW144434   5.287   7.429   0.393
14179SOL    HW244435   5.409   7.344   0.362
14180SOL     OW44436   7.335   3.125   0.290
14180SOL    HW144437   7.324   3.213   0.253
14180SOL    HW244438   7.326   3.137   0.384
14181SOL     OW44439  11.152   9.883  14.431
14181SOL    HW144440  11.202   9.923  14.502
14181SOL    HW244441  11.117   9.957  14.381
14182SOL     OW44442  11.628   3.483  14.169
14182SOL    HW144443  11.603   3.391  14.173
14182SOL    HW244444  11.666   3.501  14.255
14183SOL     OW44445   7.008  12.786   5.430
14183SOL    HW144446   6.980  12.695   5.445
14183SOL    HW244447   6.988  12.803   5.338
14184SOL     OW44448   0.153  12.890  12.810
14184SOL    HW144449   0.144  12.881  12.715
14184SOL    HW244450   0.247  12.884  12.826
14185SOL     OW44451  12.334  12.466   3.151
14185SOL    HW144452  12.390  12.543   3.160
14185SOL    HW244453  12.312  12.442   3.241
14186SOL     OW44454   0.210   5.576   9.092
14186SOL    HW144455   0.202   5.666   9.062
14186SOL    HW244456   0.120   5.547   9.105
14187SOL     OW44457   1.123   5.878  13.578
14187SOL    HW144458   1.218   5.877  13.591
14187SOL    HW244459   1.102   5.788  13.553
14188SOL     OW44460  10.853   0.211  12.178
14188SOL    HW144461  10.943   0.227  12.149
14188SOL    HW244462  10.799   0.227  12.101
14189SOL     OW44463   9.218  14.482   1.391
14189SOL    HW144464   9.180  14.479   1.303
14189SOL    HW244465   9.305  14.444   1.380
14190SOL     OW44466   0.297   8.346   0.483
14190SOL    HW144467   0.293   8.356   0.578
14190SOL    HW244468   0.390   8.335   0.464
14191SOL     OW44469   6.192   9.841   2.264
14191SOL    HW144470   6.217   9.755   2.231
14191SOL    HW244471   6.273   9.878   2.300
14192SOL     OW44472  11.403  10.403   1.121
14192SOL    HW144473  11.407  10.477   1.181
14192SOL    HW244474  11.329  10.351   1.151
14193SOL     OW44475  11.892   9.787   5.569
14193SOL    HW144476  11.975   9.740   5.562
14193SOL    HW244477  11.828   9.731   5.525
14194SOL     OW44478   8.037   7.233   5.263
14194SOL    HW144479   7.985   7.170   5.213
14194SOL    HW244480   7.973   7.296   5.296
14195SOL     OW44481  11.770  10.320   0.783
14195SOL    HW144482  11.837  10.387   0.774
14195SOL    HW244483  11.703  10.360   0.839
14196SOL     OW44484   3.043   5.790   4.076
14196SOL    HW144485   2.963   5.833   4.105
14196SOL    HW244486   3.016   5.701   4.054
14197SOL     OW44487   4.766   2.867  10.595
14197SOL    HW144488   4.775   2.921  10.673
14197SOL    HW244489   4.846   2.882  10.545
14198SOL     OW44490   0.710   6.517   3.540
14198SOL    HW144491   0.738   6.556   3.624
14198SOL    HW244492   0.641   6.575   3.509
14199SOL     OW44493  13.013   7.375   6.490
14199SOL    HW144494  13.033   7.467   6.508
14199SOL    HW244495  13.074   7.326   6.544
14200SOL     OW44496  10.837   4.947  12.735
14200SOL    HW144497  10.865   5.027  12.690
14200SOL    HW244498  10.875   4.876  12.683
14201SOL     OW44499   8.483   9.036   9.480
14201SOL    HW144500   8.388   9.028   9.472
14201SOL    HW244501   8.515   8.945   9.486
14202SOL     OW44502   8.696  11.379  13.901
14202SOL    HW144503   8.694  11.291  13.863
14202SOL    HW244504   8.664  11.367  13.990
14203SOL     OW44505   3.641   9.221  14.230
14203SOL    HW144506   3.553   9.254  14.248
14203SOL    HW244507   3.659   9.250  14.140
14204SOL     OW44508   5.781   9.912  13.413
14204SOL    HW144509   5.800   9.878  13.325
14204SOL    HW244510   5.732   9.841  13.455
14205SOL     OW44511   3.398   0.466   8.086
14205SOL    HW144512   3.492   0.451   8.097
14205SOL    HW244513   3.392   0.523   8.009
14206SOL     OW44514   2.215  10.364   2.426
14206SOL    HW144515   2.227  10.428   2.496
14206SOL    HW244516   2.253  10.406   2.349
14207SOL     OW44517  11.984  12.875   7.213
14207SOL    HW144518  11.964  12.946   7.152
14207SOL    HW244519  11.900  12.831   7.228
14208SOL     OW44520  12.831   5.693   4.345
14208SOL    HW144521  12.737   5.711   4.355
14208SOL    HW244522  12.835   5.607   4.302
14209SOL     OW44523  11.423   1.925  10.412
14209SOL    HW144524  11.411   1.830  10.403
14209SOL    HW244525  11.347   1.963  10.368
14210SOL     OW44526   1.634  10.641  13.497
14210SOL    HW144527   1.729  10.633  13.500
14210SOL    HW244528   1.606  10.566  13.444
14211SOL     OW44529   1.666  10.317   5.953
14211SOL    HW144530   1.608  10.341   5.880
14211SOL    HW244531   1.728  10.390   5.960
14212SOL     OW44532  10.096   3.963   4.803
14212SOL    HW144533  10.129   3.929   4.720
14212SOL    HW244534  10.156   4.035   4.825
14213SOL     OW44535   4.599   8.719  12.968
14213SOL    HW144536   4.558   8.717  12.882
14213SOL    HW244537   4.660   8.794  12.964
14214SOL     OW44538  10.009  12.596   0.431
14214SOL    HW144539   9.964  12.511   0.435
14214SOL    HW244540  10.102  12.574   0.432
14215SOL     OW44541  11.732  11.008   6.750
14215SOL    HW144542  11.670  11.015   6.677
14215SOL    HW244543  11.730  11.094   6.791
14216SOL     OW44544  10.307   8.905   6.618
14216SOL    HW144545  10.401   8.920   6.623
14216SOL    HW244546  10.286   8.915   6.525
14217SOL     OW44547  12.277   1.248  13.368
14217SOL    HW144548  12.292   1.261  13.274
14217SOL    HW244549  12.183   1.234  13.375
14218SOL     OW44550   7.496  11.038   8.408
14218SOL    HW144551   7.478  11.125   8.374
14218SOL    HW244552   7.415  10.989   8.394
14219SOL     OW44553   6.634   9.245   8.199
14219SOL    HW144554   6.679   9.265   8.281
14219SOL    HW244555   6.672   9.162   8.169
14220SOL     OW44556   6.689  14.789   4.677
14220SOL    HW144557   6.635  14.822   4.605
14220SOL    HW244558   6.772  14.834   4.666
14221SOL     OW44559  12.148   7.841   4.282
14221SOL    HW144560  12.240   7.842   4.309
14221SOL    HW244561  12.131   7.750   4.259
14222SOL     OW44562   1.975   4.834  12.529
14222SOL    HW144563   2.007   4.898  12.465
14222SOL    HW244564   2.012   4.751  12.500
14223SOL     OW44565   9.504  11.003  12.263
14223SOL    HW144566   9.502  10.943  12.188
14223SOL    HW244567   9.421  11.051  12.256
14224SOL     OW44568   0.723  13.045   9.126
14224SOL    HW144569   0.659  13.107   9.091
14224SOL    HW244570   0.718  12.970   9.067
14225SOL     OW44571   6.509   1.287   4.024
14225SOL    HW144572   6.573   1.216   4.018
14225SOL    HW244573   6.461   1.284   3.941
14226SOL     OW44574   1.021   8.461   3.205
14226SOL    HW144575   0.985   8.419   3.127
14226SOL    HW244576   1.042   8.550   3.176
14227SOL     OW44577  11.359  14.418   0.594
14227SOL    HW144578  11.274  14.403   0.636
14227SOL    HW244579  11.415  14.347   0.628
14228SOL     OW44580  12.020  11.584   7.930
14228SOL    HW144581  12.061  11.588   7.843
14228SOL    HW244582  11.940  11.635   7.921
14229SOL     OW44583   6.590   9.825  14.558
14229SOL    HW144584   6.531   9.768  14.510
14229SOL    HW244585   6.668   9.772  14.574
14230SOL     OW44586   0.217   1.619   4.217
14230SOL    HW144587   0.174   1.596   4.298
14230SOL    HW244588   0.165   1.691   4.181
14231SOL     OW44589   8.240   6.598   7.445
14231SOL    HW144590   8.186   6.521   7.460
14231SOL    HW244591   8.269   6.624   7.533
14232SOL     OW44592   5.581   1.366   8.415
14232SOL    HW144593   5.502   1.412   8.442
14232SOL    HW244594   5.632   1.357   8.495
14233SOL     OW44595  14.710   0.149  10.377
14233SOL    HW144596  14.722   0.078  10.441
14233SOL    HW244597  14.634   0.197  10.409
14234SOL     OW44598  11.495   8.848   5.423
14234SOL    HW144599  11.591   8.842   5.419
14234SOL    HW244600  11.477   8.941   5.413
14235SOL     OW44601  13.339  10.044   6.947
14235SOL    HW144602  13.294  10.105   6.888
14235SOL    HW244603  13.271  10.016   7.008
14236SOL     OW44604  11.794   8.076   9.164
14236SOL    HW144605  11.760   8.077   9.253
14236SOL    HW244606  11.795   8.168   9.138
14237SOL     OW44607  13.482  11.132  10.298
14237SOL    HW144608  13.484  11.135  10.202
14237SOL    HW244609  13.512  11.044  10.319
14238SOL     OW44610  14.839   4.122  13.637
14238SOL    HW144611  14.769   4.177  13.673
14238SOL    HW244612   0.038   4.183  13.617
14239SOL     OW44613   0.721  10.906   6.737
14239SOL    HW144614   0.779  10.967   6.783
14239SOL    HW244615   0.701  10.838   6.801
14240SOL     OW44616   9.508   6.574   5.651
14240SOL    HW144617   9.544   6.628   5.581
14240SOL    HW244618   9.449   6.633   5.699
14241SOL     OW44619  10.462   1.379  10.292
14241SOL    HW144620  10.403   1.431  10.238
14241SOL    HW244621  10.406   1.342  10.360
14242SOL     OW44622  12.021   9.530  12.566
14242SOL    HW144623  12.009   9.519  12.472
14242SOL    HW244624  11.950   9.480  12.606
14243SOL     OW44625  12.679   2.987   4.447
14243SOL    HW144626  12.725   2.928   4.388
14243SOL    HW244627  12.719   2.973   4.533
14244SOL     OW44628   2.256   6.782   7.190
14244SOL    HW144629   2.294   6.711   7.139
14244SOL    HW244630   2.181   6.742   7.235
14245SOL     OW44631  10.841   0.248   6.576
14245SOL    HW144632  10.757   0.205   6.563
14245SOL    HW244633  10.905   0.189   6.536
14246SOL     OW44634   5.891   9.202   8.186
14246SOL    HW144635   5.960   9.136   8.191
14246SOL    HW244636   5.927   9.271   8.130
14247SOL     OW44637  13.481   4.022   6.487
14247SOL    HW144638  13.449   3.934   6.467
14247SOL    HW244639  13.576   4.017   6.476
14248SOL     OW44640   9.458  13.888   2.990
14248SOL    HW144641   9.386  13.925   3.041
14248SOL    HW244642   9.418  13.818   2.938
14249SOL     OW44643   0.793  13.959  14.471
14249SOL    HW144644   0.841  14.035  14.504
14249SOL    HW244645   0.806  13.892  14.538
14250SOL     OW44646   5.286   6.118  14.860
14250SOL    HW144647   5.219   6.100   0.054
14250SOL    HW244648   5.309   6.031  14.826
14251SOL     OW44649   7.867   3.518  11.027
14251SOL    HW144650   7.876   3.587  10.961
14251SOL    HW244651   7.812   3.558  11.095
14252SOL     OW44652   4.067  11.429   6.538
14252SOL    HW144653   4.120  11.349   6.542
14252SOL    HW244654   3.991  11.404   6.485
14253SOL     OW44655   5.585  14.154   1.072
14253SOL    HW144656   5.602  14.211   0.997
14253SOL    HW244657   5.593  14.210   1.149
14254SOL     OW44658  10.051   1.624   4.540
14254SOL    HW144659  10.072   1.536   4.510
14254SOL    HW244660   9.960   1.618   4.571
14255SOL     OW44661  13.073   9.340   0.177
14255SOL    HW144662  12.993   9.302   0.215
14255SOL    HW244663  13.057   9.338   0.082
14256SOL     OW44664   6.408   1.037  12.291
14256SOL    HW144665   6.451   1.005  12.212
14256SOL    HW244666   6.446   0.985  12.361
14257SOL     OW44667   4.768   5.078   1.898
14257SOL    HW144668   4.794   5.017   1.967
14257SOL    HW244669   4.798   5.037   1.817
14258SOL     OW44670   2.934  11.397   6.030
14258SOL    HW144671   2.925  11.355   6.116
14258SOL    HW244672   2.904  11.330   5.968
14259SOL     OW44673  10.298   0.614  14.149
14259SOL    HW144674  10.226   0.673  14.128
14259SOL    HW244675  10.303   0.554  14.075
14260SOL     OW44676   0.365  14.818   7.267
14260SOL    HW144677   0.306   0.021   7.277
14260SOL    HW244678   0.432  14.831   7.334
14261SOL     OW44679   6.393   3.519   4.191
14261SOL    HW144680   6.301   3.543   4.202
14261SOL    HW244681   6.404   3.440   4.244
14262SOL     OW44682   4.543   9.932   8.263
14262SOL    HW144683   4.515   9.889   8.343
14262SOL    HW244684   4.468   9.925   8.204
14263SOL     OW44685   4.135  10.562  11.677
14263SOL    HW144686   4.075  10.606  11.617
14263SOL    HW244687   4.166  10.486  11.628
14264SOL     OW44688   9.588   1.006  12.797
14264SOL    HW144689   9.548   0.962  12.722
14264SOL    HW244690   9.672   1.038  12.764
14265SOL     OW44691  14.010  12.451   1.536
14265SOL    HW144692  14.062  12.421   1.462
14265SOL    HW244693  13.920  12.435   1.510
14266SOL     OW44694   2.302   5.602  14.427
14266SOL    HW144695   2.312   5.676  14.487
14266SOL    HW244696   2.344   5.632  14.346
14267SOL     OW44697  10.140   6.239   4.176
14267SOL    HW144698  10.157   6.325   4.215
14267SOL    HW244699  10.227   6.205   4.154
14268SOL     OW44700  11.913   0.784  11.247
14268SOL    HW144701  11.996   0.797  11.292
14268SOL    HW244702  11.915   0.845  11.173
14269SOL     OW44703  14.412   6.397  12.062
14269SOL    HW144704  14.329   6.349  12.071
14269SOL    HW244705  14.453   6.357  11.985
14270SOL     OW44706  13.855   8.263   4.764
14270SOL    HW144707  13.917   8.239   4.694
14270SOL    HW244708  13.896   8.338   4.807
14271SOL     OW44709   5.677  14.313   5.605
14271SOL    HW144710   5.764  14.322   5.568
14271SOL    HW244711   5.676  14.373   5.680
14272SOL     OW44712   9.520   9.040   8.975
14272SOL    HW144713   9.485   8.969   8.921
14272SOL    HW244714   9.514   9.008   9.065
14273SOL     OW44715  10.416   0.399   0.589
14273SOL    HW144716  10.399   0.492   0.572
14273SOL    HW244717  10.330   0.357   0.580
14274SOL     OW44718  10.608   3.141  14.575
14274SOL    HW144719  10.566   3.055  14.582
14274SOL    HW244720  10.646   3.157  14.661
14275SOL     OW44721   9.511   8.204   4.302
14275SOL    HW144722   9.510   8.254   4.220
14275SOL    HW244723   9.419   8.187   4.320
14276SOL     OW44724   8.214  11.995   3.468
14276SOL    HW144725   8.198  11.917   3.415
14276SOL    HW244726   8.190  12.068   3.411
14277SOL     OW44727   6.789   8.799   6.593
14277SOL    HW144728   6.715   8.807   6.533
14277SOL    HW244729   6.753   8.755   6.670
14278SOL     OW44730   4.656   3.164   5.715
14278SOL    HW144731   4.658   3.133   5.805
14278SOL    HW244732   4.565   3.153   5.688
14279SOL     OW44733  13.788   9.555   2.078
14279SOL    HW144734  13.797   9.488   2.147
14279SOL    HW244735  13.836   9.630   2.111
14280SOL     OW44736   4.497   4.796   9.141
14280SOL    HW144737   4.424   4.736   9.156
14280SOL    HW244738   4.488   4.862   9.210
14281SOL     OW44739   7.091   8.285   9.903
14281SOL    HW144740   7.049   8.220   9.846
14281SOL    HW244741   7.176   8.300   9.862
14282SOL     OW44742  13.645   2.777   9.806
14282SOL    HW144743  13.589   2.717   9.855
14282SOL    HW244744  13.585   2.838   9.765
14283SOL     OW44745   2.976   0.736   9.806
14283SOL    HW144746   3.015   0.806   9.754
14283SOL    HW244747   3.016   0.746   9.893
14284SOL     OW44748   8.148   4.330  11.576
14284SOL    HW144749   8.069   4.383  11.573
14284SOL    HW244750   8.116   4.240  11.579
14285SOL     OW44751  11.291   1.316  12.280
14285SOL    HW144752  11.235   1.242  12.302
14285SOL    HW244753  11.267   1.384  12.343
14286SOL     OW44754  13.311   5.453  12.107
14286SOL    HW144755  13.385   5.462  12.047
14286SOL    HW244756  13.330   5.373  12.157
14287SOL     OW44757   1.386  12.442   5.318
14287SOL    HW144758   1.319  12.478   5.260
14287SOL    HW244759   1.357  12.467   5.406
14288SOL     OW44760   2.461  11.309   5.324
14288SOL    HW144761   2.485  11.396   5.357
14288SOL    HW244762   2.450  11.321   5.230
14289SOL     OW44763   9.212   6.034   3.735
14289SOL    HW144764   9.249   6.006   3.651
14289SOL    HW244765   9.254   5.978   3.800
14290SOL     OW44766  10.194  11.887   3.846
14290SOL    HW144767  10.127  11.884   3.914
14290SOL    HW244768  10.155  11.939   3.776
14291SOL     OW44769   6.946  11.313   7.043
14291SOL    HW144770   6.931  11.254   7.117
14291SOL    HW244771   6.937  11.257   6.966
14292SOL     OW44772   5.991  10.491   4.853
14292SOL    HW144773   6.001  10.474   4.760
14292SOL    HW244774   5.903  10.461   4.874
14293SOL     OW44775   4.693   4.726   3.584
14293SOL    HW144776   4.690   4.717   3.679
14293SOL    HW244777   4.783   4.751   3.565
14294SOL     OW44778  10.458  14.326  10.620
14294SOL    HW144779  10.441  14.419  10.604
14294SOL    HW244780  10.378  14.295  10.663
14295SOL     OW44781   4.212   9.561   8.387
14295SOL    HW144782   4.259   9.581   8.306
14295SOL    HW244783   4.282   9.549   8.452
14296SOL     OW44784   8.336   0.425  10.917
14296SOL    HW144785   8.242   0.423  10.897
14296SOL    HW244786   8.341   0.420  11.012
14297SOL     OW44787   2.687   0.018   2.466
14297SOL    HW144788   2.723  14.837   2.395
14297SOL    HW244789   2.714   0.108   2.445
14298SOL     OW44790   4.082   1.979   0.283
14298SOL    HW144791   4.171   1.990   0.314
14298SOL    HW244792   4.037   1.931   0.352
14299SOL     OW44793   6.231   0.286   7.601
14299SOL    HW144794   6.137   0.278   7.589
14299SOL    HW244795   6.244   0.284   7.696
14300SOL     OW44796   0.596   5.965   1.980
14300SOL    HW144797   0.682   5.944   1.943
14300SOL    HW244798   0.612   6.044   2.032
14301SOL     OW44799   8.285   4.909   7.719
14301SOL    HW144800   8.334   4.852   7.779
14301SOL    HW244801   8.271   4.855   7.641
14302SOL     OW44802  14.247   7.801   9.116
14302SOL    HW144803  14.218   7.712   9.099
14302SOL    HW244804  14.170   7.846   9.150
14303SOL     OW44805   8.189  14.608   5.449
14303SOL    HW144806   8.166  14.687   5.498
14303SOL    HW244807   8.145  14.618   5.365
14304SOL     OW44808   3.277   4.864  14.659
14304SOL    HW144809   3.206   4.814  14.699
14304SOL    HW244810   3.237   4.906  14.583
14305SOL     OW44811   6.881   8.771  13.541
14305SOL    HW144812   6.791   8.783  13.512
14305SOL    HW244813   6.922   8.857  13.529
14306SOL     OW44814  12.803  12.002   5.528
14306SOL    HW144815  12.789  11.925   5.474
14306SOL    HW244816  12.882  11.983   5.578
14307SOL     OW44817  11.872  13.089  12.347
14307SOL    HW144818  11.904  13.156  12.408
14307SOL    HW244819  11.910  13.115  12.263
14308SOL     OW44820   2.136  12.954   7.034
14308SOL    HW144821   2.184  12.977   7.114
14308SOL    HW244822   2.177  12.873   7.005
14309SOL     OW44823   3.431  14.220   1.326
14309SOL    HW144824   3.456  14.293   1.383
14309SOL    HW244825   3.349  14.247   1.286
14310SOL     OW44826   3.460   0.402   7.227
14310SOL    HW144827   3.400   0.451   7.170
14310SOL    HW244828   3.417   0.318   7.241
14311SOL     OW44829   5.800  13.044   3.471
14311SOL    HW144830   5.711  13.078   3.480
14311SOL    HW244831   5.854  13.122   3.459
14312SOL     OW44832   0.644   1.007  11.854
14312SOL    HW144833   0.591   1.037  11.780
14312SOL    HW244834   0.657   0.914  11.836
14313SOL     OW44835  11.791   7.632  11.041
14313SOL    HW144836  11.871   7.642  11.092
14313SOL    HW244837  11.818   7.645  10.950
14314SOL     OW44838   8.303   7.042   8.032
14314SOL    HW144839   8.236   7.082   8.087
14314SOL    HW244840   8.381   7.096   8.045
14315SOL     OW44841   2.400   0.584   2.092
14315SOL    HW144842   2.439   0.565   2.007
14315SOL    HW244843   2.309   0.607   2.073
14316SOL     OW44844  11.519   4.164   6.760
14316SOL    HW144845  11.483   4.166   6.672
14316SOL    HW244846  11.614   4.173   6.748
14317SOL     OW44847   0.620  14.113   1.846
14317SOL    HW144848   0.545  14.172   1.854
14317SOL    HW244849   0.582  14.026   1.839
14318SOL     OW44850  13.779  11.840   1.999
14318SOL    HW144851  13.840  11.905   2.033
14318SOL    HW244852  13.781  11.769   2.064
14319SOL     OW44853  10.716  11.786   8.287
14319SOL    HW144854  10.786  11.733   8.248
14319SOL    HW244855  10.761  11.848   8.344
14320SOL     OW44856   4.074   0.710   7.088
14320SOL    HW144857   4.002   0.690   7.148
14320SOL    HW244858   4.108   0.795   7.118
14321SOL     OW44859   2.747   7.180   2.257
14321SOL    HW144860   2.753   7.162   2.163
14321SOL    HW244861   2.801   7.258   2.270
14322SOL     OW44862  11.948   3.677   4.546
14322SOL    HW144863  11.880   3.738   4.518
14322SOL    HW244864  12.017   3.685   4.480
14323SOL     OW44865  13.679   8.080   5.272
14323SOL    HW144866  13.662   8.069   5.366
14323SOL    HW244867  13.598   8.052   5.230
14324SOL     OW44868  10.679   9.122  11.386
14324SOL    HW144869  10.712   9.205  11.354
14324SOL    HW244870  10.675   9.133  11.481
14325SOL     OW44871   3.952   2.303  12.100
14325SOL    HW144872   4.006   2.264  12.031
14325SOL    HW244873   4.015   2.333  12.165
14326SOL     OW44874   2.729   7.163   3.415
14326SOL    HW144875   2.773   7.150   3.500
14326SOL    HW244876   2.642   7.126   3.428
14327SOL     OW44877   3.539   1.622  12.384
14327SOL    HW144878   3.535   1.552  12.449
14327SOL    HW244879   3.495   1.696  12.425
14328SOL     OW44880  14.242   4.429   9.525
14328SOL    HW144881  14.274   4.373   9.455
14328SOL    HW244882  14.148   4.413   9.528
14329SOL     OW44883  10.527  11.547  13.218
14329SOL    HW144884  10.509  11.556  13.311
14329SOL    HW244885  10.511  11.635  13.182
14330SOL     OW44886   0.636  10.306   1.307
14330SOL    HW144887   0.660  10.245   1.237
14330SOL    HW244888   0.614  10.387   1.261
14331SOL     OW44889   2.472   7.221   8.179
14331SOL    HW144890   2.474   7.189   8.269
14331SOL    HW244891   2.551   7.184   8.139
14332SOL     OW44892  13.119   4.003  14.249
14332SOL    HW144893  13.181   4.049  14.306
14332SOL    HW244894  13.171   3.975  14.174
14333SOL     OW44895  10.281  10.632   5.859
14333SOL    HW144896  10.356  10.690   5.843
14333SOL    HW244897  10.206  10.691   5.864
14334SOL     OW44898  10.514  11.657   0.113
14334SOL    HW144899  10.579  11.588   0.098
14334SOL    HW244900  10.439  11.611   0.150
14335SOL     OW44901   0.199  10.250   8.034
14335SOL    HW144902   0.220  10.163   7.999
14335SOL    HW244903   0.117  10.274   7.991
14336SOL     OW44904  14.483   5.932   2.453
14336SOL    HW144905  14.391   5.939   2.426
14336SOL    HW244906  14.480   5.888   2.538
14337SOL     OW44907   7.235   2.518  12.233
14337SOL    HW144908   7.237   2.427  12.203
14337SOL    HW244909   7.202   2.567  12.158
14338SOL     OW44910  11.414   4.525   8.472
14338SOL    HW144911  11.466   4.450   8.503
14338SOL    HW244912  11.479   4.594   8.456
14339SOL     OW44913   7.216   9.054  13.220
14339SOL    HW144914   7.217   9.149  13.208
14339SOL    HW244915   7.252   9.019  13.138
14340SOL     OW44916   6.295  12.952   2.018
14340SOL    HW144917   6.310  12.863   2.051
14340SOL    HW244918   6.266  12.939   1.928
14341SOL     OW44919   1.471   0.936   5.507
14341SOL    HW144920   1.556   0.950   5.465
14341SOL    HW244921   1.432   1.023   5.512
14342SOL     OW44922  13.895   8.529  11.413
14342SOL    HW144923  13.938   8.516  11.497
14342SOL    HW244924  13.966   8.526  11.349
14343SOL     OW44925  11.894   9.427   7.115
14343SOL    HW144926  11.948   9.384   7.049
14343SOL    HW244927  11.875   9.359   7.180
14344SOL     OW44928   6.498   4.109   4.670
14344SOL    HW144929   6.570   4.141   4.723
14344SOL    HW244930   6.434   4.076   4.733
14345SOL     OW44931   5.763   1.902  13.565
14345SOL    HW144932   5.771   1.843  13.490
14345SOL    HW244933   5.852   1.931  13.582
14346SOL     OW44934  10.861  13.525  12.160
14346SOL    HW144935  10.905  13.503  12.078
14346SOL    HW244936  10.931  13.553  12.218
14347SOL     OW44937   7.087  12.093   5.354
14347SOL    HW144938   7.137  12.124   5.429
14347SOL    HW244939   6.996  12.120   5.372
14348SOL     OW44940   9.821   6.302   0.126
14348SOL    HW144941   9.802   6.392   0.152
14348SOL    HW244942   9.874   6.267   0.197
14349SOL     OW44943  11.469   8.205   1.358
14349SOL    HW144944  11.511   8.138   1.412
14349SOL    HW244945  11.375   8.185   1.364
14350SOL     OW44946  13.092   4.946   8.107
14350SOL    HW144947  13.176   4.906   8.129
14350SOL    HW244948  13.088   5.025   8.162
14351SOL     OW44949  10.402   3.876  10.215
14351SOL    HW144950  10.497   3.882  10.202
14351SOL    HW244951  10.391   3.868  10.310
14352SOL     OW44952   6.998   3.500   6.817
14352SOL    HW144953   7.092   3.497   6.839
14352SOL    HW244954   6.979   3.412   6.785
14353SOL     OW44955   2.920   5.575   2.513
14353SOL    HW144956   2.968   5.495   2.492
14353SOL    HW244957   2.986   5.644   2.512
14354SOL     OW44958   6.931   5.704   1.559
14354SOL    HW144959   6.986   5.641   1.513
14354SOL    HW244960   6.990   5.778   1.576
14355SOL     OW44961   2.261  12.642   8.749
14355SOL    HW144962   2.292  12.614   8.663
14355SOL    HW244963   2.256  12.738   8.742
14356SOL     OW44964   2.739   4.773   0.683
14356SOL    HW144965   2.790   4.694   0.704
14356SOL    HW244966   2.691   4.751   0.604
14357SOL     OW44967   6.687   2.485  13.088
14357SOL    HW144968   6.682   2.480  13.183
14357SOL    HW244969   6.760   2.427  13.064
14358SOL     OW44970   6.288   6.713   0.232
14358SOL    HW144971   6.269   6.733   0.323
14358SOL    HW244972   6.334   6.790   0.199
14359SOL     OW44973  12.150   3.415   3.505
14359SOL    HW144974  12.218   3.473   3.470
14359SOL    HW244975  12.198   3.341   3.543
14360SOL     OW44976   9.169   3.297   5.298
14360SOL    HW144977   9.076   3.316   5.309
14360SOL    HW244978   9.210   3.331   5.377
14361SOL     OW44979   7.386   5.448   8.457
14361SOL    HW144980   7.392   5.494   8.373
14361SOL    HW244981   7.450   5.492   8.513
14362SOL     OW44982   3.886   5.831   7.823
14362SOL    HW144983   3.981   5.843   7.824
14362SOL    HW244984   3.873   5.741   7.795
14363SOL     OW44985   7.418   1.471  12.352
14363SOL    HW144986   7.433   1.423  12.271
14363SOL    HW244987   7.386   1.404  12.413
14364SOL     OW44988   2.743   8.240  10.926
14364SOL    HW144989   2.760   8.148  10.905
14364SOL    HW244990   2.772   8.249  11.017
14365SOL     OW44991   8.840   7.564   6.289
14365SOL    HW144992   8.762   7.611   6.260
14365SOL    HW244993   8.879   7.531   6.208
14366SOL     OW44994  14.508  11.827  13.850
14366SOL    HW144995  14.564  11.817  13.773
14366SOL    HW244996  14.568  11.851  13.920
14367SOL     OW44997  11.812  10.405   7.310
14367SOL    HW144998  11.791  10.327   7.260
14367SOL    HW244999  11.908  10.408   7.311
14368SOL     OW45000   0.035   5.724   1.900
14368SOL    HW145001   0.101   5.656   1.915
14368SOL    HW245002  14.844   5.683   1.840
14369SOL     OW45003   3.342   3.203   7.727
14369SOL    HW145004   3.417   3.153   7.693
14369SOL    HW245005   3.272   3.187   7.664
14370SOL     OW45006  14.365  13.117   6.140
14370SOL    HW145007  14.363  13.032   6.096
14370SOL    HW245008  14.291  13.165   6.103
14371SOL     OW45009  11.006   3.777   8.628
14371SOL    HW145010  11.068   3.756   8.699
14371SOL    HW245011  11.060   3.778   8.549
14372SOL     OW45012   3.590   7.118  13.174
14372SOL    HW145013   3.602   7.190  13.237
14372SOL    HW245014   3.588   7.162  13.089
14373SOL     OW45015   2.176   4.425   4.957
14373SOL    HW145016   2.214   4.337   4.961
14373SOL    HW245017   2.164   4.450   5.048
14374SOL     OW45018   0.379   2.541  11.453
14374SOL    HW145019   0.383   2.574  11.542
14374SOL    HW245020   0.470   2.531  11.426
14375SOL     OW45021   5.711   0.930   3.316
14375SOL    HW145022   5.632   0.887   3.350
14375SOL    HW245023   5.680   1.016   3.287
14376SOL     OW45024   9.630   1.242   3.519
14376SOL    HW145025   9.652   1.150   3.504
14376SOL    HW245026   9.537   1.241   3.543
14377SOL     OW45027  14.035   2.603   8.550
14377SOL    HW145028  13.973   2.531   8.535
14377SOL    HW245029  13.980   2.681   8.558
14378SOL     OW45030   7.090   5.875  11.689
14378SOL    HW145031   7.000   5.906  11.682
14378SOL    HW245032   7.121   5.869  11.598
14379SOL     OW45033   1.397   9.748   5.509
14379SOL    HW145034   1.436   9.663   5.529
14379SOL    HW245035   1.471   9.803   5.482
14380SOL     OW45036   9.409   8.029   7.850
14380SOL    HW145037   9.457   7.960   7.804
14380SOL    HW245038   9.458   8.043   7.931
14381SOL     OW45039   4.862   4.285   2.008
14381SOL    HW145040   4.860   4.236   2.090
14381SOL    HW245041   4.857   4.377   2.034
14382SOL     OW45042   3.135   4.258   5.218
14382SOL    HW145043   3.217   4.248   5.267
14382SOL    HW245044   3.073   4.295   5.280
14383SOL     OW45045  13.321   7.902   6.094
14383SOL    HW145046  13.241   7.851   6.111
14383SOL    HW245047  13.311   7.980   6.149
14384SOL     OW45048   6.800  12.087   7.589
14384SOL    HW145049   6.775  12.085   7.681
14384SOL    HW245050   6.815  11.996   7.566
14385SOL     OW45051  13.698  11.793  11.781
14385SOL    HW145052  13.673  11.706  11.752
14385SOL    HW245053  13.617  11.845  11.775
14386SOL     OW45054  11.473   1.273   8.570
14386SOL    HW145055  11.424   1.345   8.609
14386SOL    HW245056  11.469   1.203   8.636
14387SOL     OW45057  10.151   8.952   1.019
14387SOL    HW145058  10.153   9.047   1.013
14387SOL    HW245059  10.183   8.933   1.107
14388SOL     OW45060   1.658   1.928   0.212
14388SOL    HW145061   1.567   1.946   0.188
14388SOL    HW245062   1.696   1.891   0.132
14389SOL     OW45063   4.800  13.223   1.961
14389SOL    HW145064   4.761  13.255   2.042
14389SOL    HW245065   4.754  13.270   1.892
14390SOL     OW45066   7.799   7.591  14.816
14390SOL    HW145067   7.823   7.570  14.726
14390SOL    HW245068   7.877   7.568  14.867
14391SOL     OW45069   2.298  14.288  12.055
14391SOL    HW145070   2.262  14.258  12.138
14391SOL    HW245071   2.270  14.223  11.991
14392SOL     OW45072   0.945   6.854   7.341
14392SOL    HW145073   0.930   6.805   7.260
14392SOL    HW245074   0.923   6.944   7.319
14393SOL     OW45075   4.293   4.499   1.074
14393SOL    HW145076   4.304   4.539   1.160
14393SOL    HW245077   4.281   4.573   1.015
14394SOL     OW45078  12.043   5.141   3.702
14394SOL    HW145079  12.013   5.159   3.613
14394SOL    HW245080  12.093   5.060   3.694
14395SOL     OW45081   6.348   6.508  12.834
14395SOL    HW145082   6.392   6.584  12.795
14395SOL    HW245083   6.324   6.537  12.921
14396SOL     OW45084   6.373  12.075   8.736
14396SOL    HW145085   6.403  12.153   8.690
14396SOL    HW245086   6.443  12.054   8.797
14397SOL     OW45087   3.895   0.992   1.646
14397SOL    HW145088   3.865   0.902   1.657
14397SOL    HW245089   3.867   1.037   1.726
14398SOL     OW45090   2.131   8.226   1.772
14398SOL    HW145091   2.067   8.297   1.782
14398SOL    HW245092   2.091   8.152   1.818
14399SOL     OW45093   5.680   7.324  14.817
14399SOL    HW145094   5.723   7.342  14.734
14399SOL    HW245095   5.678   7.229  14.824
14400SOL     OW45096   4.131   8.557   7.692
14400SOL    HW145097   4.141   8.467   7.661
14400SOL    HW245098   4.217   8.579   7.727
14401SOL     OW45099  14.353   2.744   1.656
14401SOL    HW145100  14.442   2.763   1.628
14401SOL    HW245101  14.325   2.822   1.704
14402SOL     OW45102   8.571   0.434   3.226
14402SOL    HW145103   8.478   0.454   3.241
14402SOL    HW245104   8.573   0.339   3.216
14403SOL     OW45105   2.790   1.064   5.857
14403SOL    HW145106   2.803   1.016   5.776
14403SOL    HW245107   2.754   1.148   5.829
14404SOL     OW45108  13.057  11.582   4.142
14404SOL    HW145109  13.080  11.495   4.110
14404SOL    HW245110  12.963  11.591   4.124
14405SOL     OW45111   4.457   0.875   0.020
14405SOL    HW145112   4.546   0.845   0.036
14405SOL    HW245113   4.413   0.869   0.106
14406SOL     OW45114  10.886   3.920   2.373
14406SOL    HW145115  10.885   3.974   2.452
14406SOL    HW245116  10.962   3.863   2.383
14407SOL     OW45117   0.487  13.503   7.828
14407SOL    HW145118   0.512  13.577   7.883
14407SOL    HW245119   0.523  13.426   7.873
14408SOL     OW45120   6.131   4.665   1.953
14408SOL    HW145121   6.093   4.608   2.020
14408SOL    HW245122   6.128   4.753   1.991
14409SOL     OW45123   4.608   9.427   3.811
14409SOL    HW145124   4.604   9.488   3.885
14409SOL    HW245125   4.566   9.347   3.843
14410SOL     OW45126   4.016   0.243  14.431
14410SOL    HW145127   3.971   0.196  14.361
14410SOL    HW245128   4.068   0.177  14.476
14411SOL     OW45129   4.823  13.943  14.182
14411SOL    HW145130   4.908  13.985  14.179
14411SOL    HW245131   4.839  13.854  14.150
14412SOL     OW45132   8.770   5.622   9.680
14412SOL    HW145133   8.792   5.639   9.589
14412SOL    HW245134   8.844   5.655   9.730
14413SOL     OW45135   2.730  14.298   6.915
14413SOL    HW145136   2.659  14.270   6.973
14413SOL    HW245137   2.802  14.321   6.974
14414SOL     OW45138  13.790   8.818   8.304
14414SOL    HW145139  13.827   8.731   8.289
14414SOL    HW245140  13.866   8.872   8.324
14415SOL     OW45141  12.382  14.245  14.173
14415SOL    HW145142  12.423  14.298  14.241
14415SOL    HW245143  12.452  14.229  14.110
14416SOL     OW45144   3.954   6.225  13.053
14416SOL    HW145145   3.909   6.308  13.070
14416SOL    HW245146   4.032   6.250  13.003
14417SOL     OW45147   1.962   2.831  13.565
14417SOL    HW145148   1.964   2.917  13.524
14417SOL    HW245149   2.054   2.807  13.576
14418SOL     OW45150  13.989   9.131   8.046
14418SOL    HW145151  13.898   9.158   8.043
14418SOL    HW245152  14.028   9.182   8.116
14419SOL     OW45153  14.466  13.901   1.356
14419SOL    HW145154  14.484  13.982   1.309
14419SOL    HW245155  14.523  13.904   1.433
14420SOL     OW45156  10.579   8.296   0.611
14420SOL    HW145157  10.506   8.292   0.549
14420SOL    HW245158  10.639   8.227   0.582
14421SOL     OW45159   6.028   0.619  12.190
14421SOL    HW145160   6.070   0.687  12.137
14421SOL    HW245161   5.950   0.594  12.140
14422SOL     OW45162   3.526   3.365   5.348
14422SOL    HW145163   3.490   3.281   5.374
14422SOL    HW245164   3.612   3.344   5.311
14423SOL     OW45165  11.453   1.375   9.194
14423SOL    HW145166  11.542   1.365   9.228
14423SOL    HW245167  11.451   1.463   9.157
14424SOL     OW45168   9.218  14.224  12.360
14424SOL    HW145169   9.284  14.237  12.428
14424SOL    HW245170   9.171  14.307  12.356
14425SOL     OW45171   4.193  13.330   8.941
14425SOL    HW145172   4.266  13.326   8.878
14425SOL    HW245173   4.229  13.376   9.016
14426SOL     OW45174   8.699  10.111  11.226
14426SOL    HW145175   8.639  10.091  11.298
14426SOL    HW245176   8.680  10.202  11.203
14427SOL     OW45177   3.452   5.530  10.979
14427SOL    HW145178   3.497   5.615  10.984
14427SOL    HW245179   3.437   5.506  11.071
14428SOL     OW45180   3.531   1.743   2.180
14428SOL    HW145181   3.505   1.652   2.166
14428SOL    HW245182   3.552   1.776   2.093
14429SOL     OW45183   9.232   0.662   7.411
14429SOL    HW145184   9.177   0.664   7.332
14429SOL    HW245185   9.318   0.633   7.380
14430SOL     OW45186   2.038   4.231   7.991
14430SOL    HW145187   1.945   4.250   7.977
14430SOL    HW245188   2.042   4.200   8.081
14431SOL     OW45189   5.584  10.956   5.179
14431SOL    HW145190   5.623  10.996   5.257
14431SOL    HW245191   5.648  10.973   5.109
14432SOL     OW45192  14.519   0.159   3.103
14432SOL    HW145193  14.436   0.145   3.149
14432SOL    HW245194  14.527   0.084   3.044
14433SOL     OW45195   0.059   8.136   5.719
14433SOL    HW145196   0.022   8.195   5.784
14433SOL    HW245197  14.861   8.073   5.700
14434SOL     OW45198  13.219   8.929   5.076
14434SOL    HW145199  13.211   8.845   5.122
14434SOL    HW245200  13.268   8.985   5.136
14435SOL     OW45201  12.063  14.854   9.041
14435SOL    HW145202  12.128   0.032   8.991
14435SOL    HW245203  12.075   0.012   9.131
14436SOL     OW45204   2.071   0.707   4.534
14436SOL    HW145205   2.006   0.664   4.478
14436SOL    HW245206   2.155   0.693   4.489
14437SOL     OW45207   5.256  13.165  11.117
14437SOL    HW145208   5.213  13.150  11.032
14437SOL    HW245209   5.201  13.118  11.179
14438SOL     OW45210  14.034  14.008  10.115
14438SOL    HW145211  14.010  14.012  10.023
14438SOL    HW245212  14.120  14.051  10.119
14439SOL     OW45213   9.651   0.975   3.528
14439SOL    HW145214   9.557   0.961   3.544
14439SOL    HW245215   9.672   0.914   3.457
14440SOL     OW45216   6.186   2.308   9.696
14440SOL    HW145217   6.230   2.225   9.715
14440SOL    HW245218   6.258   2.369   9.679
14441SOL     OW45219  12.666   0.183   4.346
14441SOL    HW145220  12.711   0.238   4.282
14441SOL    HW245221  12.720   0.187   4.424
14442SOL     OW45222   8.048  10.054   7.595
14442SOL    HW145223   7.977  10.119   7.600
14442SOL    HW245224   8.105  10.076   7.669
14443SOL     OW45225   7.233  10.594  13.076
14443SOL    HW145226   7.139  10.590  13.092
14443SOL    HW245227   7.241  10.609  12.982
14444SOL     OW45228   5.725   4.427   1.537
14444SOL    HW145229   5.630   4.427   1.536
14444SOL    HW245230   5.750   4.520   1.536
14445SOL     OW45231  13.504   9.486  10.535
14445SOL    HW145232  13.414   9.516  10.551
14445SOL    HW245233  13.525   9.432  10.611
14446SOL     OW45234   1.218   8.967   5.765
14446SOL    HW145235   1.264   8.889   5.736
14446SOL    HW245236   1.126   8.940   5.770
14447SOL     OW45237  12.491  14.302  12.604
14447SOL    HW145238  12.534  14.225  12.566
14447SOL    HW245239  12.558  14.343  12.658
14448SOL     OW45240  12.403  12.082   2.637
14448SOL    HW145241  12.345  12.012   2.606
14448SOL    HW245242  12.385  12.156   2.579
14449SOL     OW45243   4.052  11.977  13.479
14449SOL    HW145244   4.081  12.065  13.503
14449SOL    HW245245   4.128  11.938  13.436
14450SOL     OW45246  11.160   2.285   5.545
14450SOL    HW145247  11.092   2.352   5.557
14450SOL    HW245248  11.239   2.324   5.582
14451SOL     OW45249  13.427  10.380   1.469
14451SOL    HW145250  13.489  10.331   1.416
14451SOL    HW245251  13.341  10.345   1.443
14452SOL     OW45252   1.653  11.162   2.920
14452SOL    HW145253   1.670  11.160   3.014
14452SOL    HW245254   1.689  11.245   2.890
14453SOL     OW45255   8.127   6.221   3.376
14453SOL    HW145256   8.151   6.129   3.368
14453SOL    HW245257   8.210   6.265   3.399
14454SOL     OW45258  11.271  14.170   8.991
14454SOL    HW145259  11.244  14.182   8.900
14454SOL    HW245260  11.248  14.252   9.035
14455SOL     OW45261   0.226   7.934   6.864
14455SOL    HW145262   0.274   7.881   6.801
14455SOL    HW245263   0.136   7.934   6.833
14456SOL     OW45264   4.405   7.714   1.854
14456SOL    HW145265   4.345   7.651   1.814
14456SOL    HW245266   4.391   7.704   1.948
14457SOL     OW45267   4.380   2.565  14.476
14457SOL    HW145268   4.376   2.498  14.408
14457SOL    HW245269   4.387   2.516  14.558
14458SOL     OW45270  12.297   0.430   4.743
14458SOL    HW145271  12.293   0.371   4.819
14458SOL    HW245272  12.389   0.458   4.740
14459SOL     OW45273  12.235   1.956   6.589
14459SOL    HW145274  12.215   1.875   6.542
14459SOL    HW245275  12.150   2.000   6.599
14460SOL     OW45276  11.111  11.761   9.600
14460SOL    HW145277  11.085  11.791   9.687
14460SOL    HW245278  11.196  11.804   9.585
14461SOL     OW45279   7.669   2.137   3.880
14461SOL    HW145280   7.681   2.172   3.791
14461SOL    HW245281   7.583   2.169   3.907
14462SOL     OW45282  14.231  13.370  14.197
14462SOL    HW145283  14.317  13.367  14.238
14462SOL    HW245284  14.171  13.388  14.269
14463SOL     OW45285   9.946   5.312  10.697
14463SOL    HW145286   9.943   5.368  10.620
14463SOL    HW245287   9.997   5.236  10.669
14464SOL     OW45288  12.443   2.285  10.890
14464SOL    HW145289  12.424   2.239  10.972
14464SOL    HW245290  12.399   2.370  10.899
14465SOL     OW45291   5.114   7.490  14.240
14465SOL    HW145292   5.160   7.562  14.283
14465SOL    HW245293   5.145   7.491  14.150
14466SOL     OW45294   7.581   1.653   5.027
14466SOL    HW145295   7.670   1.630   5.052
14466SOL    HW245296   7.529   1.640   5.107
14467SOL     OW45297   0.639   4.646   5.752
14467SOL    HW145298   0.735   4.655   5.749
14467SOL    HW245299   0.614   4.624   5.662
14468SOL     OW45300   8.319  10.842   4.054
14468SOL    HW145301   8.293  10.815   4.142
14468SOL    HW245302   8.240  10.836   4.002
14469SOL     OW45303  10.909  12.610   5.612
14469SOL    HW145304  10.844  12.572   5.553
14469SOL    HW245305  10.948  12.682   5.561
14470SOL     OW45306   5.158   9.687   7.522
14470SOL    HW145307   5.170   9.672   7.428
14470SOL    HW245308   5.176   9.780   7.534
14471SOL     OW45309  12.271   1.355  10.917
14471SOL    HW145310  12.319   1.273  10.927
14471SOL    HW245311  12.238   1.352  10.827
14472SOL     OW45312   8.136  14.537   6.100
14472SOL    HW145313   8.231  14.543   6.112
14472SOL    HW245314   8.126  14.490   6.017
14473SOL     OW45315   4.741   8.042  12.476
14473SOL    HW145316   4.717   8.019  12.386
14473SOL    HW245317   4.822   7.993  12.493
14474SOL     OW45318   4.125   2.486  11.352
14474SOL    HW145319   4.127   2.557  11.288
14474SOL    HW245320   4.208   2.494  11.399
14475SOL     OW45321  13.711   0.273  13.326
14475SOL    HW145322  13.646   0.342  13.340
14475SOL    HW245323  13.663   0.202  13.283
14476SOL     OW45324   3.502   0.667   2.231
14476SOL    HW145325   3.547   0.735   2.280
14476SOL    HW245326   3.472   0.710   2.151
14477SOL     OW45327   9.339   8.161   0.084
14477SOL    HW145328   9.286   8.082   0.068
14477SOL    HW245329   9.275   8.230   0.101
14478SOL     OW45330   8.349   7.027  14.775
14478SOL    HW145331   8.305   6.953  14.733
14478SOL    HW245332   8.323   7.103  14.723
14479SOL     OW45333   3.795  11.661   7.329
14479SOL    HW145334   3.835  11.636   7.246
14479SOL    HW245335   3.800  11.582   7.383
14480SOL     OW45336  11.207  13.470  14.297
14480SOL    HW145337  11.298  13.478  14.323
14480SOL    HW245338  11.160  13.452  14.379
14481SOL     OW45339  14.440  11.038   3.869
14481SOL    HW145340  14.535  11.027   3.865
14481SOL    HW245341  14.405  10.952   3.849
14482SOL     OW45342  11.868   3.495  12.863
14482SOL    HW145343  11.838   3.449  12.942
14482SOL    HW245344  11.905   3.427  12.808
14483SOL     OW45345   8.933  14.839   2.555
14483SOL    HW145346   8.953  14.820   2.647
14483SOL    HW245347   8.923  14.754   2.514
14484SOL     OW45348   4.382  11.223   6.144
14484SOL    HW145349   4.381  11.127   6.143
14484SOL    HW245350   4.295  11.248   6.113
14485SOL     OW45351   8.428   1.115  10.374
14485SOL    HW145352   8.487   1.183  10.407
14485SOL    HW245353   8.351   1.120  10.431
14486SOL     OW45354  11.411   9.014   1.230
14486SOL    HW145355  11.406   9.039   1.137
14486SOL    HW245356  11.483   8.951   1.234
14487SOL     OW45357  12.456   9.015   3.863
14487SOL    HW145358  12.447   8.979   3.951
14487SOL    HW245359  12.490   9.104   3.876
14488SOL     OW45360   1.767   7.902   7.571
14488SOL    HW145361   1.746   7.992   7.546
14488SOL    HW245362   1.694   7.875   7.627
14489SOL     OW45363   9.594  13.526  13.218
14489SOL    HW145364   9.570  13.480  13.299
14489SOL    HW245365   9.562  13.470  13.148
14490SOL     OW45366   6.893  14.622   8.579
14490SOL    HW145367   6.858  14.680   8.647
14490SOL    HW245368   6.987  14.636   8.583
14491SOL     OW45369  11.479   5.702   8.983
14491SOL    HW145370  11.399   5.724   9.031
14491SOL    HW245371  11.466   5.740   8.896
14492SOL     OW45372   4.077  10.166  10.809
14492SOL    HW145373   4.031  10.204  10.734
14492SOL    HW245374   4.150  10.226  10.825
14493SOL     OW45375   4.419  13.925   4.639
14493SOL    HW145376   4.485  13.933   4.708
14493SOL    HW245377   4.374  13.843   4.659
14494SOL     OW45378   5.323   8.154   6.213
14494SOL    HW145379   5.241   8.127   6.171
14494SOL    HW245380   5.298   8.230   6.265
14495SOL     OW45381   9.119   5.801   3.009
14495SOL    HW145382   9.045   5.854   2.980
14495SOL    HW245383   9.108   5.794   3.103
14496SOL     OW45384   0.467  12.116   7.625
14496SOL    HW145385   0.402  12.063   7.670
14496SOL    HW245386   0.530  12.139   7.693
14497SOL     OW45387   1.538   5.460  12.806
14497SOL    HW145388   1.556   5.457  12.900
14497SOL    HW245389   1.485   5.539  12.795
14498SOL     OW45390  14.017  12.680   4.393
14498SOL    HW145391  13.970  12.764   4.390
14498SOL    HW245392  14.041  12.662   4.302
14499SOL     OW45393   2.923   6.335  11.377
14499SOL    HW145394   2.863   6.355  11.306
14499SOL    HW245395   2.997   6.394  11.364
14500SOL     OW45396   2.891  13.190   5.155
14500SOL    HW145397   2.874  13.282   5.134
14500SOL    HW245398   2.882  13.145   5.071
14501SOL     OW45399   2.994  13.828   9.973
14501SOL    HW145400   2.915  13.876   9.999
14501SOL    HW245401   3.033  13.800  10.055
14502SOL     OW45402   1.441   1.794   7.745
14502SOL    HW145403   1.507   1.863   7.744
14502SOL    HW245404   1.434   1.767   7.836
14503SOL     OW45405  12.363  13.595   6.635
14503SOL    HW145406  12.347  13.555   6.720
14503SOL    HW245407  12.435  13.657   6.650
14504SOL     OW45408  10.790   5.377   1.223
14504SOL    HW145409  10.863   5.439   1.227
14504SOL    HW245410  10.819   5.310   1.161
14505SOL     OW45411   3.240  14.566   4.760
14505SOL    HW145412   3.292  14.585   4.838
14505SOL    HW245413   3.237  14.649   4.712
14506SOL     OW45414   3.763   7.798  12.046
14506SOL    HW145415   3.668   7.800  12.036
14506SOL    HW245416   3.790   7.890  12.044
14507SOL     OW45417   2.603  14.197  10.682
14507SOL    HW145418   2.585  14.106  10.660
14507SOL    HW245419   2.526  14.226  10.731
14508SOL     OW45420   6.988  14.422  14.337
14508SOL    HW145421   7.067  14.441  14.388
14508SOL    HW245422   7.012  14.446  14.247
14509SOL     OW45423  10.089  12.154   5.118
14509SOL    HW145424  10.096  12.062   5.141
14509SOL    HW245425  10.043  12.155   5.034
14510SOL     OW45426   0.948   9.307   3.796
14510SOL    HW145427   1.009   9.240   3.828
14510SOL    HW245428   1.001   9.386   3.789
14511SOL     OW45429   7.175   7.554   9.504
14511SOL    HW145430   7.115   7.587   9.571
14511SOL    HW245431   7.222   7.632   9.474
14512SOL     OW45432   2.814   4.937   9.500
14512SOL    HW145433   2.876   4.957   9.430
14512SOL    HW245434   2.761   5.016   9.509
14513SOL     OW45435  11.626  14.340   8.043
14513SOL    HW145436  11.648  14.391   8.121
14513SOL    HW245437  11.557  14.281   8.071
14514SOL     OW45438   9.880  13.560   0.685
14514SOL    HW145439   9.972  13.555   0.711
14514SOL    HW245440   9.870  13.648   0.649
14515SOL     OW45441   0.153  11.020   8.944
14515SOL    HW145442   0.122  11.030   8.854
14515SOL    HW245443   0.138  10.928   8.965
14516SOL     OW45444   6.236   0.570   0.297
14516SOL    HW145445   6.178   0.506   0.340
14516SOL    HW245446   6.259   0.529   0.214
14517SOL     OW45447   1.393   2.998   6.789
14517SOL    HW145448   1.329   3.004   6.718
14517SOL    HW245449   1.348   2.951   6.859
14518SOL     OW45450   5.816   2.402  12.287
14518SOL    HW145451   5.832   2.495  12.271
14518SOL    HW245452   5.786   2.368  12.202
14519SOL     OW45453  13.515   1.251  12.943
14519SOL    HW145454  13.532   1.344  12.928
14519SOL    HW245455  13.570   1.206  12.878
14520SOL     OW45456  12.681  13.345   4.593
14520SOL    HW145457  12.632  13.406   4.650
14520SOL    HW245458  12.654  13.369   4.505
14521SOL     OW45459   3.033   0.476   2.775
14521SOL    HW145460   3.089   0.545   2.738
14521SOL    HW245461   3.034   0.494   2.869
14522SOL     OW45462   4.887  13.649  13.096
14522SOL    HW145463   4.929  13.670  13.012
14522SOL    HW245464   4.938  13.576  13.131
14523SOL     OW45465   0.204   8.624  13.333
14523SOL    HW145466   0.123   8.605  13.285
14523SOL    HW245467   0.223   8.715  13.314
14524SOL     OW45468   0.984   6.560   2.202
14524SOL    HW145469   0.995   6.574   2.108
14524SOL    HW245470   0.997   6.646   2.241
14525SOL     OW45471   6.613   0.525   7.838
14525SOL    HW145472   6.661   0.597   7.879
14525SOL    HW245473   6.654   0.516   7.751
14526SOL     OW45474  14.672   1.604  13.948
14526SOL    HW145475  14.630   1.560  14.022
14526SOL    HW245476  14.696   1.533  13.888
14527SOL     OW45477   9.529  13.079  12.422
14527SOL    HW145478   9.503  13.098  12.512
14527SOL    HW245479   9.450  13.093  12.370
14528SOL     OW45480   3.294   9.565   4.043
14528SOL    HW145481   3.244   9.518   4.111
14528SOL    HW245482   3.314   9.498   3.978
14529SOL     OW45483   6.670   7.963  10.534
14529SOL    HW145484   6.629   7.910  10.602
14529SOL    HW245485   6.597   8.001  10.485
14530SOL     OW45486   8.405   3.527   1.011
14530SOL    HW145487   8.400   3.586   1.086
14530SOL    HW245488   8.475   3.564   0.957
14531SOL     OW45489   8.454   7.640   4.495
14531SOL    HW145490   8.532   7.602   4.534
14531SOL    HW245491   8.484   7.680   4.414
14532SOL     OW45492   9.156   7.874   2.550
14532SOL    HW145493   9.203   7.938   2.603
14532SOL    HW245494   9.206   7.866   2.469
14533SOL     OW45495  11.929  13.087   7.485
14533SOL    HW145496  12.016  13.060   7.455
14533SOL    HW245497  11.870  13.061   7.414
14534SOL     OW45498  13.062   0.044   7.817
14534SOL    HW145499  13.104  14.834   7.790
14534SOL    HW245500  13.067   0.044   7.912
14535SOL     OW45501  12.627   7.369  10.851
14535SOL    HW145502  12.681   7.360  10.929
14535SOL    HW245503  12.627   7.463  10.832
14536SOL     OW45504  12.143  14.215  14.618
14536SOL    HW145505  12.050  14.226  14.598
14536SOL    HW245506  12.188  14.273  14.557
14537SOL     OW45507   4.261   1.963  10.959
14537SOL    HW145508   4.281   1.930  11.046
14537SOL    HW245509   4.338   1.941  10.907
14538SOL     OW45510   6.875  13.992   3.470
14538SOL    HW145511   6.785  13.977   3.442
14538SOL    HW245512   6.921  14.016   3.389
14539SOL     OW45513   6.917   7.589  14.264
14539SOL    HW145514   6.972   7.620  14.192
14539SOL    HW245515   6.828   7.594  14.229
14540SOL     OW45516   9.303   5.480  11.364
14540SOL    HW145517   9.384   5.464  11.412
14540SOL    HW245518   9.292   5.575  11.367
14541SOL     OW45519   7.210   5.329  11.919
14541SOL    HW145520   7.212   5.346  12.013
14541SOL    HW245521   7.145   5.259  11.909
14542SOL     OW45522   8.474   4.725   1.298
14542SOL    HW145523   8.473   4.629   1.292
14542SOL    HW245524   8.566   4.747   1.311
14543SOL     OW45525   5.333   1.427  14.125
14543SOL    HW145526   5.311   1.492  14.191
14543SOL    HW245527   5.282   1.349  14.150
14544SOL     OW45528   8.025   7.944  14.491
14544SOL    HW145529   7.988   7.878  14.549
14544SOL    HW245530   8.119   7.941  14.509
14545SOL     OW45531  10.623   9.312   3.412
14545SOL    HW145532  10.600   9.245   3.348
14545SOL    HW245533  10.695   9.274   3.462
14546SOL     OW45534   5.995   9.781   3.483
14546SOL    HW145535   6.088   9.797   3.469
14546SOL    HW245536   5.971   9.838   3.556
14547SOL     OW45537  10.969  14.723   9.890
14547SOL    HW145538  10.967  14.768   9.806
14547SOL    HW245539  10.996  14.634   9.869
14548SOL     OW45540   1.926   9.169  10.295
14548SOL    HW145541   1.917   9.264  10.296
14548SOL    HW245542   1.956   9.147  10.384
14549SOL     OW45543   3.898   2.525  12.786
14549SOL    HW145544   3.980   2.575  12.786
14549SOL    HW245545   3.830   2.590  12.767
14550SOL     OW45546   4.443   5.719  14.112
14550SOL    HW145547   4.413   5.706  14.202
14550SOL    HW245548   4.367   5.753  14.065
14551SOL     OW45549   1.331   0.013   4.877
14551SOL    HW145550   1.388   0.080   4.914
14551SOL    HW245551   1.381  14.846   4.806
14552SOL     OW45552   9.530   0.096   9.510
14552SOL    HW145553   9.471   0.101   9.585
14552SOL    HW245554   9.608   0.144   9.537
14553SOL     OW45555  12.345   2.068  11.963
14553SOL    HW145556  12.412   2.128  11.996
14553SOL    HW245557  12.368   2.056  11.871
14554SOL     OW45558  14.737  11.452  13.458
14554SOL    HW145559  14.683  11.522  13.422
14554SOL    HW245560  14.734  11.466  13.553
14555SOL     OW45561  13.548   0.761   9.914
14555SOL    HW145562  13.643   0.768   9.920
14555SOL    HW245563  13.532   0.709   9.835
14556SOL     OW45564   7.489  13.298  14.478
14556SOL    HW145565   7.583  13.283  14.483
14556SOL    HW245566   7.453  13.242  14.547
14557SOL     OW45567   1.672  13.401   6.828
14557SOL    HW145568   1.683  13.336   6.759
14557SOL    HW245569   1.578  13.403   6.845
14558SOL     OW45570   7.485  11.101   4.762
14558SOL    HW145571   7.397  11.134   4.748
14558SOL    HW245572   7.542  11.162   4.714
14559SOL     OW45573   7.586   2.583   3.446
14559SOL    HW145574   7.555   2.671   3.425
14559SOL    HW245575   7.621   2.590   3.535
14560SOL     OW45576   0.914   8.973   8.753
14560SOL    HW145577   0.959   8.937   8.830
14560SOL    HW245578   0.976   8.959   8.681
14561SOL     OW45579  13.680  11.648   0.355
14561SOL    HW145580  13.732  11.648   0.274
14561SOL    HW245581  13.595  11.684   0.329
14562SOL     OW45582   1.910  12.457   7.879
14562SOL    HW145583   1.823  12.485   7.907
14562SOL    HW245584   1.921  12.370   7.919
14563SOL     OW45585   7.920   2.006   1.310
14563SOL    HW145586   7.933   2.061   1.386
14563SOL    HW245587   7.943   1.918   1.340
14564SOL     OW45588   6.552   3.746  14.263
14564SOL    HW145589   6.598   3.748  14.179
14564SOL    HW245590   6.602   3.685  14.316
14565SOL     OW45591   2.516   4.823  10.179
14565SOL    HW145592   2.519   4.736  10.219
14565SOL    HW245593   2.497   4.883  10.252
14566SOL     OW45594   1.415   0.243   3.917
14566SOL    HW145595   1.471   0.312   3.883
14566SOL    HW245596   1.398   0.269   4.008
14567SOL     OW45597   2.680   5.441   6.995
14567SOL    HW145598   2.764   5.422   7.038
14567SOL    HW245599   2.705   5.481   6.911
14568SOL     OW45600  12.838   5.748   3.243
14568SOL    HW145601  12.913   5.751   3.303
14568SOL    HW245602  12.868   5.794   3.165
14569SOL     OW45603   7.025   7.794   0.245
14569SOL    HW145604   6.939   7.794   0.204
14569SOL    HW245605   7.072   7.723   0.201
14570SOL     OW45606   9.436   3.816  11.605
14570SOL    HW145607   9.471   3.880  11.667
14570SOL    HW245608   9.367   3.864  11.559
14571SOL     OW45609   7.270   9.657  12.014
14571SOL    HW145610   7.213   9.701  12.078
14571SOL    HW245611   7.214   9.644  11.937
14572SOL     OW45612  13.912   7.088  11.834
14572SOL    HW145613  13.859   7.154  11.790
14572SOL    HW245614  13.946   7.133  11.912
14573SOL     OW45615   2.410   1.494   6.950
14573SOL    HW145616   2.361   1.412   6.964
14573SOL    HW245617   2.492   1.480   6.997
14574SOL     OW45618   6.711   6.091  13.261
14574SOL    HW145619   6.721   6.146  13.339
14574SOL    HW245620   6.705   6.002  13.296
14575SOL     OW45621  13.804   2.705   4.390
14575SOL    HW145622  13.879   2.748   4.350
14575SOL    HW245623  13.818   2.612   4.372
14576SOL     OW45624   2.008   7.640  10.687
14576SOL    HW145625   1.968   7.663  10.771
14576SOL    HW245626   2.040   7.551  10.699
14577SOL     OW45627  13.383   0.976   2.399
14577SOL    HW145628  13.366   1.002   2.489
14577SOL    HW245629  13.344   0.889   2.391
14578SOL     OW45630   7.435  12.370   8.523
14578SOL    HW145631   7.383  12.347   8.446
14578SOL    HW245632   7.467  12.286   8.556
14579SOL     OW45633   4.142   6.170   8.514
14579SOL    HW145634   4.131   6.199   8.423
14579SOL    HW245635   4.202   6.096   8.509
14580SOL     OW45636  10.078   8.107   3.770
14580SOL    HW145637  10.070   8.045   3.842
14580SOL    HW245638  10.005   8.088   3.712
14581SOL     OW45639  12.345   8.566   5.606
14581SOL    HW145640  12.430   8.542   5.641
14581SOL    HW245641  12.356   8.655   5.574
14582SOL     OW45642   5.500   4.534  12.343
14582SOL    HW145643   5.431   4.527  12.277
14582SOL    HW245644   5.498   4.451  12.389
14583SOL     OW45645  14.500  13.615   1.522
14583SOL    HW145646  14.447  13.593   1.599
14583SOL    HW245647  14.461  13.564   1.451
14584SOL     OW45648  14.520   1.316   4.171
14584SOL    HW145649  14.613   1.340   4.171
14584SOL    HW245650  14.475   1.393   4.135
14585SOL     OW45651  13.695   6.499  13.280
14585SOL    HW145652  13.762   6.539  13.335
14585SOL    HW245653  13.735   6.418  13.248
14586SOL     OW45654   5.528   6.363   7.749
14586SOL    HW145655   5.479   6.336   7.672
14586SOL    HW245656   5.481   6.440   7.782
14587SOL     OW45657  10.956   1.421  10.847
14587SOL    HW145658  10.978   1.409  10.940
14587SOL    HW245659  10.891   1.353  10.829
14588SOL     OW45660   3.878   2.314   3.904
14588SOL    HW145661   3.902   2.240   3.847
14588SOL    HW245662   3.916   2.291   3.989
14589SOL     OW45663   1.502   3.599  10.360
14589SOL    HW145664   1.527   3.678  10.312
14589SOL    HW245665   1.583   3.549  10.369
14590SOL     OW45666  14.020   9.614  12.073
14590SOL    HW145667  14.099   9.629  12.022
14590SOL    HW245668  13.968   9.694  12.061
14591SOL     OW45669   4.746   5.939   5.929
14591SOL    HW145670   4.780   5.867   5.875
14591SOL    HW245671   4.767   6.018   5.881
14592SOL     OW45672  10.953   2.916   9.846
14592SOL    HW145673  10.944   2.967   9.766
14592SOL    HW245674  10.926   2.976   9.916
14593SOL     OW45675   7.950   6.577  12.067
14593SOL    HW145676   7.901   6.599  11.988
14593SOL    HW245677   7.891   6.522  12.118
14594SOL     OW45678   7.376   2.785   7.156
14594SOL    HW145679   7.317   2.723   7.200
14594SOL    HW245680   7.449   2.732   7.127
14595SOL     OW45681   0.350  12.030   6.777
14595SOL    HW145682   0.288  12.005   6.708
14595SOL    HW245683   0.383  11.947   6.811
14596SOL     OW45684   7.140   5.774  14.132
14596SOL    HW145685   7.083   5.829  14.079
14596SOL    HW245686   7.116   5.793  14.223
14597SOL     OW45687  13.525  14.736  11.851
14597SOL    HW145688  13.517  14.831  11.860
14597SOL    HW245689  13.488  14.717  11.765
14598SOL     OW45690   3.369  10.857   0.187
14598SOL    HW145691   3.317  10.922   0.234
14598SOL    HW245692   3.311  10.781   0.179
14599SOL     OW45693   9.417   3.819   5.888
14599SOL    HW145694   9.486   3.812   5.954
14599SOL    HW245695   9.419   3.734   5.843
14600SOL     OW45696   5.471  10.427   8.106
14600SOL    HW145697   5.376  10.413   8.116
14600SOL    HW245698   5.496  10.477   8.184
14601SOL     OW45699  11.856   2.841   1.508
14601SOL    HW145700  11.875   2.806   1.420
14601SOL    HW245701  11.764   2.820   1.523
14602SOL     OW45702   1.938  12.032   1.125
14602SOL    HW145703   1.883  12.046   1.203
14602SOL    HW245704   1.899  12.089   1.058
14603SOL     OW45705   2.654   5.098   3.087
14603SOL    HW145706   2.609   5.061   3.163
14603SOL    HW245707   2.729   5.040   3.074
14604SOL     OW45708   6.206   4.712   4.009
14604SOL    HW145709   6.279   4.773   4.009
14604SOL    HW245710   6.130   4.764   4.035
14605SOL     OW45711   9.505  12.760   2.259
14605SOL    HW145712   9.532  12.837   2.208
14605SOL    HW245713   9.429  12.790   2.309
14606SOL     OW45714   0.724  13.045  10.807
14606SOL    HW145715   0.724  13.140  10.820
14606SOL    HW245716   0.651  13.029  10.747
14607SOL     OW45717   1.878   6.991   6.883
14607SOL    HW145718   1.809   6.939   6.926
14607SOL    HW245719   1.938   6.926   6.847
14608SOL     OW45720  11.748  12.990   2.098
14608SOL    HW145721  11.702  12.909   2.075
14608SOL    HW245722  11.840  12.967   2.098
14609SOL     OW45723   9.535  11.108  13.269
14609SOL    HW145724   9.585  11.156  13.335
14609SOL    HW245725   9.586  11.028  13.254
14610SOL     OW45726   7.093   2.995   7.243
14610SOL    HW145727   7.144   3.042   7.309
14610SOL    HW245728   7.156   2.970   7.176
14611SOL     OW45729  10.554   1.380   2.360
14611SOL    HW145730  10.635   1.389   2.310
14611SOL    HW245731  10.494   1.334   2.301
14612SOL     OW45732   6.136   4.907   2.996
14612SOL    HW145733   6.148   5.001   2.981
14612SOL    HW245734   6.151   4.896   3.090
14613SOL     OW45735   2.845   7.346   3.264
14613SOL    HW145736   2.806   7.413   3.321
14613SOL    HW245737   2.811   7.263   3.299
14614SOL     OW45738  14.006   9.499   9.238
14614SOL    HW145739  14.043   9.413   9.221
14614SOL    HW245740  13.912   9.488   9.227
14615SOL     OW45741   1.439  12.288   5.081
14615SOL    HW145742   1.443  12.344   5.158
14615SOL    HW245743   1.354  12.246   5.085
14616SOL     OW45744  13.366  14.835   5.126
14616SOL    HW145745  13.305  14.828   5.200
14616SOL    HW245746  13.328  14.779   5.058
14617SOL     OW45747   2.426   3.080   5.015
14617SOL    HW145748   2.406   2.986   5.024
14617SOL    HW245749   2.483   3.084   4.938
14618SOL     OW45750  11.735  12.504  11.917
14618SOL    HW145751  11.700  12.421  11.948
14618SOL    HW245752  11.659  12.562  11.912
14619SOL     OW45753  14.056   7.364   4.611
14619SOL    HW145754  14.124   7.416   4.653
14619SOL    HW245755  14.089   7.348   4.523
14620SOL     OW45756   3.724  10.248   6.870
14620SOL    HW145757   3.769  10.316   6.821
14620SOL    HW245758   3.707  10.179   6.806
14621SOL     OW45759  10.240  11.709   7.348
14621SOL    HW145760  10.245  11.645   7.419
14621SOL    HW245761  10.169  11.677   7.292
14622SOL     OW45762   0.594   1.379  10.767
14622SOL    HW145763   0.512   1.427  10.761
14622SOL    HW245764   0.661   1.448  10.772
14623SOL     OW45765  12.102  11.959  10.210
14623SOL    HW145766  12.162  12.033  10.219
14623SOL    HW245767  12.083  11.955  10.117
14624SOL     OW45768   4.995   8.686   1.799
14624SOL    HW145769   4.931   8.630   1.754
14624SOL    HW245770   5.056   8.625   1.840
14625SOL     OW45771   4.844   8.070  12.142
14625SOL    HW145772   4.913   8.136  12.147
14625SOL    HW245773   4.855   8.029  12.057
14626SOL     OW45774   8.334   1.486   1.629
14626SOL    HW145775   8.319   1.549   1.700
14626SOL    HW245776   8.349   1.403   1.674
14627SOL     OW45777   5.531   0.420  14.690
14627SOL    HW145778   5.467   0.439  14.621
14627SOL    HW245779   5.479   0.414  14.770
14628SOL     OW45780  12.369   0.181  12.480
14628SOL    HW145781  12.302   0.247  12.466
14628SOL    HW245782  12.452   0.227  12.467
14629SOL     OW45783   6.894   9.200   4.080
14629SOL    HW145784   6.816   9.186   4.027
14629SOL    HW245785   6.966   9.169   4.026
14630SOL     OW45786   0.230   1.473   0.211
14630SOL    HW145787   0.293   1.503   0.145
14630SOL    HW245788   0.180   1.405   0.166
14631SOL     OW45789   4.484   3.376   9.654
14631SOL    HW145790   4.404   3.428   9.665
14631SOL    HW245791   4.489   3.360   9.560
14632SOL     OW45792  10.041   6.081  10.291
14632SOL    HW145793  10.121   6.129  10.316
14632SOL    HW245794  10.071   5.993  10.272
14633SOL     OW45795   5.284   5.716   5.243
14633SOL    HW145796   5.355   5.656   5.266
14633SOL    HW245797   5.297   5.791   5.300
14634SOL     OW45798   1.093   2.729  14.492
14634SOL    HW145799   1.157   2.796  14.469
14634SOL    HW245800   1.108   2.659  14.429
14635SOL     OW45801  11.917   8.977   6.621
14635SOL    HW145802  11.893   9.061   6.660
14635SOL    HW245803  11.897   8.912   6.688
14636SOL     OW45804  10.018   0.557   5.266
14636SOL    HW145805  10.025   0.605   5.183
14636SOL    HW245806  10.088   0.493   5.262
14637SOL     OW45807   5.430   3.110  13.416
14637SOL    HW145808   5.461   3.052  13.345
14637SOL    HW245809   5.351   3.067  13.449
14638SOL     OW45810  13.835  10.583   3.717
14638SOL    HW145811  13.879  10.522   3.775
14638SOL    HW245812  13.770  10.626   3.773
14639SOL     OW45813  12.820   3.904   8.819
14639SOL    HW145814  12.841   3.827   8.765
14639SOL    HW245815  12.725   3.898   8.834
14640SOL     OW45816  10.738   6.018   0.437
14640SOL    HW145817  10.696   6.095   0.399
14640SOL    HW245818  10.768   5.967   0.361
14641SOL     OW45819   8.906   1.477   1.360
14641SOL    HW145820   8.889   1.412   1.292
14641SOL    HW245821   8.823   1.525   1.368
14642SOL     OW45822   2.485  13.321  14.142
14642SOL    HW145823   2.484  13.235  14.184
14642SOL    HW245824   2.542  13.375  14.197
14643SOL     OW45825   5.253   8.408   6.304
14643SOL    HW145826   5.180   8.439   6.250
14643SOL    HW245827   5.309   8.485   6.313
14644SOL     OW45828   3.205   6.694   3.322
14644SOL    HW145829   3.212   6.653   3.409
14644SOL    HW245830   3.150   6.771   3.336
14645SOL     OW45831  13.074   6.299   5.851
14645SOL    HW145832  13.047   6.250   5.773
14645SOL    HW245833  13.124   6.373   5.818
14646SOL     OW45834   2.557   3.473   8.676
14646SOL    HW145835   2.630   3.435   8.626
14646SOL    HW245836   2.557   3.425   8.759
14647SOL     OW45837   9.552  11.269   8.148
14647SOL    HW145838   9.580  11.186   8.109
14647SOL    HW245839   9.462  11.282   8.117
14648SOL     OW45840   8.595  10.731   1.150
14648SOL    HW145841   8.607  10.663   1.083
14648SOL    HW245842   8.680  10.736   1.194
14649SOL     OW45843   2.550   4.184   6.599
14649SOL    HW145844   2.628   4.210   6.648
14649SOL    HW245845   2.502   4.127   6.660
14650SOL     OW45846   7.921   0.769   2.184
14650SOL    HW145847   7.997   0.788   2.129
14650SOL    HW245848   7.915   0.846   2.242
14651SOL     OW45849  14.410   4.658   4.774
14651SOL    HW145850  14.390   4.728   4.712
14651SOL    HW245851  14.342   4.665   4.841
14652SOL     OW45852   5.392  10.773   9.101
14652SOL    HW145853   5.453  10.747   9.170
14652SOL    HW245854   5.369  10.691   9.057
14653SOL     OW45855   5.971   2.126   8.466
14653SOL    HW145856   5.996   2.215   8.440
14653SOL    HW245857   6.039   2.099   8.527
14654SOL     OW45858   6.354  10.205   0.099
14654SOL    HW145859   6.363  10.203   0.003
14654SOL    HW245860   6.296  10.279   0.116
14655SOL     OW45861   0.977   2.936  13.702
14655SOL    HW145862   0.913   2.930  13.631
14655SOL    HW245863   0.931   2.902  13.779
14656SOL     OW45864   7.957   6.402   5.542
14656SOL    HW145865   8.030   6.452   5.577
14656SOL    HW245866   7.896   6.469   5.510
14657SOL     OW45867   9.434   8.523   3.863
14657SOL    HW145868   9.386   8.520   3.781
14657SOL    HW245869   9.520   8.558   3.839
14658SOL     OW45870   7.411  13.247   3.605
14658SOL    HW145871   7.330  13.202   3.630
14658SOL    HW245872   7.438  13.203   3.524
14659SOL     OW45873   0.620  10.532   6.522
14659SOL    HW145874   0.625  10.464   6.454
14659SOL    HW245875   0.708  10.570   6.525
14660SOL     OW45876   0.398   3.751   4.205
14660SOL    HW145877   0.436   3.714   4.125
14660SOL    HW245878   0.303   3.749   4.190
14661SOL     OW45879   0.044  11.673   7.054
14661SOL    HW145880   0.083  11.752   7.019
14661SOL    HW245881  14.844  11.705   7.110
14662SOL     OW45882   3.611  10.072  12.689
14662SOL    HW145883   3.565  10.151  12.716
14662SOL    HW245884   3.546  10.022  12.639
14663SOL     OW45885   8.779   4.627   2.218
14663SOL    HW145886   8.735   4.554   2.262
14663SOL    HW245887   8.797   4.689   2.288
14664SOL     OW45888   5.613   5.075  12.389
14664SOL    HW145889   5.630   5.005  12.327
14664SOL    HW245890   5.517   5.077  12.398
14665SOL     OW45891   9.674   3.361  13.799
14665SOL    HW145892   9.701   3.353  13.708
14665SOL    HW245893   9.753   3.388  13.846
14666SOL     OW45894   5.104   3.296  13.710
14666SOL    HW145895   5.030   3.292  13.770
14666SOL    HW245896   5.067   3.332  13.629
14667SOL     OW45897   5.309   3.618   3.167
14667SOL    HW145898   5.399   3.636   3.138
14667SOL    HW245899   5.258   3.616   3.086
14668SOL     OW45900   1.388   3.166   2.161
14668SOL    HW145901   1.464   3.182   2.218
14668SOL    HW245902   1.366   3.251   2.124
14669SOL     OW45903   5.817  12.604   1.745
14669SOL    HW145904   5.769  12.544   1.803
14669SOL    HW245905   5.836  12.680   1.799
14670SOL     OW45906   1.276   8.639  10.726
14670SOL    HW145907   1.220   8.582  10.779
14670SOL    HW245908   1.229   8.722  10.722
14671SOL     OW45909   2.909   0.884   4.988
14671SOL    HW145910   2.877   0.934   5.063
14671SOL    HW245911   2.847   0.812   4.979
14672SOL     OW45912   9.406   1.210  11.054
14672SOL    HW145913   9.482   1.156  11.036
14672SOL    HW245914   9.435   1.299  11.033
14673SOL     OW45915   2.407   9.482   3.690
14673SOL    HW145916   2.321   9.441   3.699
14673SOL    HW245917   2.436   9.496   3.780
14674SOL     OW45918   3.907   2.564  10.315
14674SOL    HW145919   3.930   2.650  10.348
14674SOL    HW245920   3.970   2.547  10.244
14675SOL     OW45921   5.411   6.248   9.029
14675SOL    HW145922   5.372   6.320   9.079
14675SOL    HW245923   5.498   6.237   9.067
14676SOL     OW45924  11.143   9.793   3.167
14676SOL    HW145925  11.124   9.809   3.074
14676SOL    HW245926  11.060   9.765   3.204
14677SOL     OW45927  10.003   8.146   2.626
14677SOL    HW145928   9.968   8.234   2.610
14677SOL    HW245929   9.929   8.088   2.607
14678SOL     OW45930  13.382   5.661  10.145
14678SOL    HW145931  13.344   5.727  10.202
14678SOL    HW245932  13.383   5.701  10.058
14679SOL     OW45933   4.287   7.449   4.254
14679SOL    HW145934   4.341   7.372   4.232
14679SOL    HW245935   4.339   7.524   4.226
14680SOL     OW45936   5.656   9.192  12.169
14680SOL    HW145937   5.718   9.200  12.097
14680SOL    HW245938   5.627   9.281  12.187
14681SOL     OW45939   5.523  12.689   4.998
14681SOL    HW145940   5.582  12.697   5.073
14681SOL    HW245941   5.478  12.606   5.011
14682SOL     OW45942  14.654  10.261   3.050
14682SOL    HW145943  14.651  10.206   2.971
14682SOL    HW245944  14.563  10.286   3.066
14683SOL     OW45945   2.066  13.655   1.977
14683SOL    HW145946   2.112  13.604   2.045
14683SOL    HW245947   2.125  13.653   1.902
14684SOL     OW45948   1.172   5.325   4.316
14684SOL    HW145949   1.242   5.389   4.298
14684SOL    HW245950   1.151   5.288   4.230
14685SOL     OW45951  13.616  12.707   7.165
14685SOL    HW145952  13.694  12.665   7.129
14685SOL    HW245953  13.568  12.636   7.207
14686SOL     OW45954   9.717   6.507   3.416
14686SOL    HW145955   9.686   6.425   3.377
14686SOL    HW245956   9.729   6.566   3.341
14687SOL     OW45957   4.035   9.123   4.033
14687SOL    HW145958   4.111   9.180   4.022
14687SOL    HW245959   4.071   9.043   4.070
14688SOL     OW45960   1.979   9.590   6.498
14688SOL    HW145961   1.896   9.629   6.529
14688SOL    HW245962   1.984   9.616   6.406
14689SOL     OW45963   9.222  14.468   7.702
14689SOL    HW145964   9.154  14.495   7.764
14689SOL    HW245965   9.193  14.503   7.618
14690SOL     OW45966  13.108   6.075   9.704
14690SOL    HW145967  13.150   6.043   9.624
14690SOL    HW245968  13.168   6.051   9.774
14691SOL     OW45969   6.560   2.312   5.563
14691SOL    HW145970   6.464   2.310   5.571
14691SOL    HW245971   6.582   2.404   5.577
14692SOL     OW45972   5.817   7.586   8.988
14692SOL    HW145973   5.891   7.528   9.008
14692SOL    HW245974   5.839   7.669   9.031
14693SOL     OW45975  12.509  14.599   5.859
14693SOL    HW145976  12.477  14.577   5.947
14693SOL    HW245977  12.459  14.677   5.834
14694SOL     OW45978  12.966   8.036   1.254
14694SOL    HW145979  13.032   8.076   1.197
14694SOL    HW245980  12.949   8.102   1.321
14695SOL     OW45981  13.303   6.591   2.180
14695SOL    HW145982  13.272   6.643   2.254
14695SOL    HW245983  13.315   6.503   2.215
14696SOL     OW45984   8.784   0.671   8.502
14696SOL    HW145985   8.852   0.735   8.524
14696SOL    HW245986   8.805   0.643   8.413
14697SOL     OW45987   6.470   0.948   4.685
14697SOL    HW145988   6.491   0.979   4.597
14697SOL    HW245989   6.375   0.940   4.686
14698SOL     OW45990   8.061  14.157   0.149
14698SOL    HW145991   7.973  14.191   0.170
14698SOL    HW245992   8.045  14.071   0.111
14699SOL     OW45993   6.841  11.128  13.276
14699SOL    HW145994   6.827  11.204  13.218
14699SOL    HW245995   6.896  11.069  13.225
14700SOL     OW45996   7.651   4.753  12.924
14700SOL    HW145997   7.608   4.715  12.847
14700SOL    HW245998   7.611   4.839  12.933
14701SOL     OW45999   3.728   0.223   0.830
14701SOL    HW146000   3.732   0.258   0.919
14701SOL    HW246001   3.637   0.237   0.802
14702SOL     OW46002  12.886   8.896  11.395
14702SOL    HW146003  12.946   8.859  11.331
14702SOL    HW246004  12.864   8.983  11.362
14703SOL     OW46005   5.047  10.704  12.481
14703SOL    HW146006   5.028  10.793  12.509
14703SOL    HW246007   5.143  10.700  12.477
14704SOL     OW46008  11.306  10.908  12.541
14704SOL    HW146009  11.389  10.930  12.582
14704SOL    HW246010  11.262  10.852  12.605
14705SOL     OW46011   4.208  12.075  10.687
14705SOL    HW146012   4.271  12.129  10.733
14705SOL    HW246013   4.147  12.137  10.647
14706SOL     OW46014   3.767   5.098   5.533
14706SOL    HW146015   3.724   5.181   5.553
14706SOL    HW246016   3.713   5.032   5.578
14707SOL     OW46017   6.912   2.090   5.849
14707SOL    HW146018   6.976   2.084   5.779
14707SOL    HW246019   6.907   2.002   5.886
14708SOL     OW46020   4.820   2.134  14.264
14708SOL    HW146021   4.853   2.138  14.354
14708SOL    HW246022   4.893   2.163  14.210
14709SOL     OW46023  11.262  10.088  10.812
14709SOL    HW146024  11.275  10.111  10.904
14709SOL    HW246025  11.191  10.024  10.812
14710SOL     OW46026   6.343   0.353   4.355
14710SOL    HW146027   6.430   0.321   4.330
14710SOL    HW246028   6.308   0.392   4.275
14711SOL     OW46029  10.810  14.694   1.802
14711SOL    HW146030  10.811  14.680   1.707
14711SOL    HW246031  10.740  14.638   1.833
14712SOL     OW46032   0.160  11.653   3.032
14712SOL    HW146033   0.233  11.625   2.977
14712SOL    HW246034   0.109  11.713   2.976
14713SOL     OW46035   7.842  11.956   8.871
14713SOL    HW146036   7.767  11.980   8.816
14713SOL    HW246037   7.897  12.035   8.872
14714SOL     OW46038  14.672  13.627  13.420
14714SOL    HW146039  14.722  13.657  13.496
14714SOL    HW246040  14.712  13.672  13.345
14715SOL     OW46041   2.422  12.752  13.552
14715SOL    HW146042   2.462  12.677  13.508
14715SOL    HW246043   2.427  12.823  13.488
14716SOL     OW46044  13.892  12.345   6.262
14716SOL    HW146045  13.809  12.323   6.306
14716SOL    HW246046  13.953  12.277   6.289
14717SOL     OW46047   0.961  10.838   0.978
14717SOL    HW146048   0.956  10.749   0.945
14717SOL    HW246049   0.884  10.848   1.034
14718SOL     OW46050   5.175   3.369  10.295
14718SOL    HW146051   5.135   3.426  10.361
14718SOL    HW246052   5.269   3.378  10.309
14719SOL     OW46053   3.770   1.751   0.795
14719SOL    HW146054   3.812   1.674   0.756
14719SOL    HW246055   3.729   1.796   0.722
14720SOL     OW46056   4.986   3.708   9.385
14720SOL    HW146057   5.045   3.640   9.351
14720SOL    HW246058   4.942   3.667   9.459
14721SOL     OW46059  10.599  13.175   8.882
14721SOL    HW146060  10.523  13.140   8.929
14721SOL    HW246061  10.665  13.188   8.950
14722SOL     OW46062   6.525   2.876  12.761
14722SOL    HW146063   6.527   2.800  12.703
14722SOL    HW246064   6.547   2.841  12.847
14723SOL     OW46065  14.262  12.535  13.844
14723SOL    HW146066  14.191  12.536  13.780
14723SOL    HW246067  14.236  12.600  13.909
14724SOL     OW46068   1.464   4.580  12.092
14724SOL    HW146069   1.517   4.525  12.034
14724SOL    HW246070   1.469   4.537  12.177
14725SOL     OW46071  13.083   5.807   7.712
14725SOL    HW146072  13.086   5.721   7.672
14725SOL    HW246073  13.038   5.793   7.795
14726SOL     OW46074   8.891   8.709  12.795
14726SOL    HW146075   8.855   8.710  12.883
14726SOL    HW246076   8.820   8.743  12.740
14727SOL     OW46077  11.348   1.216   6.344
14727SOL    HW146078  11.316   1.189   6.430
14727SOL    HW246079  11.342   1.312   6.345
14728SOL     OW46080   6.238   1.091   7.777
14728SOL    HW146081   6.181   1.043   7.837
14728SOL    HW246082   6.178   1.137   7.719
14729SOL     OW46083  12.608   4.734   9.143
14729SOL    HW146084  12.544   4.687   9.089
14729SOL    HW246085  12.586   4.827   9.131
14730SOL     OW46086   3.498   7.452   7.183
14730SOL    HW146087   3.535   7.459   7.271
14730SOL    HW246088   3.509   7.359   7.161
14731SOL     OW46089  13.217   1.592  10.434
14731SOL    HW146090  13.172   1.560  10.356
14731SOL    HW246091  13.223   1.686  10.422
14732SOL     OW46092   2.661   0.843   8.579
14732SOL    HW146093   2.592   0.827   8.515
14732SOL    HW246094   2.615   0.846   8.663
14733SOL     OW46095  13.171   2.180  13.840
14733SOL    HW146096  13.181   2.155  13.932
14733SOL    HW246097  13.238   2.130  13.795
14734SOL     OW46098   0.079  14.688   7.245
14734SOL    HW146099   0.114  14.771   7.276
14734SOL    HW246100   0.126  14.621   7.295
14735SOL     OW46101   9.401  12.986   6.092
14735SOL    HW146102   9.377  12.895   6.076
14735SOL    HW246103   9.495  12.989   6.074
14736SOL     OW46104   6.254   4.594  14.178
14736SOL    HW146105   6.229   4.683  14.204
14736SOL    HW246106   6.171   4.549  14.166
14737SOL     OW46107  14.862   0.274   4.362
14737SOL    HW146108   0.009   0.275   4.456
14737SOL    HW246109  14.794   0.339   4.350
14738SOL     OW46110   5.163  11.248   5.187
14738SOL    HW146111   5.235  11.244   5.249
14738SOL    HW246112   5.179  11.176   5.126
14739SOL     OW46113   4.469   7.745   5.919
14739SOL    HW146114   4.437   7.715   5.835
14739SOL    HW246115   4.400   7.803   5.952
14740SOL     OW46116   6.570  13.924   5.405
14740SOL    HW146117   6.610  13.837   5.414
14740SOL    HW246118   6.638  13.976   5.362
14741SOL     OW46119   0.275   5.289   4.609
14741SOL    HW146120   0.201   5.285   4.669
14741SOL    HW246121   0.236   5.276   4.522
14742SOL     OW46122  10.500  10.118   5.605
14742SOL    HW146123  10.476  10.115   5.697
14742SOL    HW246124  10.423  10.154   5.561
14743SOL     OW46125   4.323   4.878   4.563
14743SOL    HW146126   4.324   4.908   4.472
14743SOL    HW246127   4.382   4.803   4.564
14744SOL     OW46128   5.685  12.483   7.922
14744SOL    HW146129   5.607  12.513   7.877
14744SOL    HW246130   5.749  12.466   7.852
14745SOL     OW46131  12.515   8.533   1.553
14745SOL    HW146132  12.540   8.556   1.642
14745SOL    HW246133  12.427   8.569   1.543
14746SOL     OW46134  11.978   8.350   6.708
14746SOL    HW146135  12.062   8.373   6.670
14746SOL    HW246136  11.914   8.374   6.641
14747SOL     OW46137  14.013   3.492  11.634
14747SOL    HW146138  14.001   3.569  11.689
14747SOL    HW246139  14.101   3.503  11.598
14748SOL     OW46140  13.159   4.069   7.259
14748SOL    HW146141  13.232   4.008   7.258
14748SOL    HW246142  13.081   4.014   7.256
14749SOL     OW46143   5.547   4.089   7.875
14749SOL    HW146144   5.491   4.064   7.801
14749SOL    HW246145   5.611   4.150   7.837
14750SOL     OW46146  13.895   8.373  10.380
14750SOL    HW146147  13.970   8.412  10.334
14750SOL    HW246148  13.863   8.442  10.437
14751SOL     OW46149   6.261  12.998  12.587
14751SOL    HW146150   6.257  12.971  12.495
14751SOL    HW246151   6.170  13.019  12.609
14752SOL     OW46152   3.983  14.693  10.185
14752SOL    HW146153   4.048  14.732  10.243
14752SOL    HW246154   4.022  14.698  10.098
14753SOL     OW46155  11.281  11.444   6.513
14753SOL    HW146156  11.356  11.410   6.463
14753SOL    HW246157  11.224  11.368   6.523
14754SOL     OW46158  10.553   2.840  12.056
14754SOL    HW146159  10.546   2.881  12.142
14754SOL    HW246160  10.477   2.781  12.052
14755SOL     OW46161  14.238   2.140  11.160
14755SOL    HW146162  14.250   2.235  11.150
14755SOL    HW246163  14.253   2.105  11.072
14756SOL     OW46164  11.937  14.871   0.994
14756SOL    HW146165  11.849  14.869   0.957
14756SOL    HW246166  11.971  14.783   0.979
14757SOL     OW46167   2.263  10.676   8.214
14757SOL    HW146168   2.286  10.599   8.162
14757SOL    HW246169   2.182  10.708   8.175
14758SOL     OW46170   6.482   1.471  14.119
14758SOL    HW146171   6.557   1.443  14.171
14758SOL    HW246172   6.518   1.535  14.057
14759SOL     OW46173  14.532  11.442  10.520
14759SOL    HW146174  14.605  11.417  10.577
14759SOL    HW246175  14.560  11.414  10.433
14760SOL     OW46176   8.242  14.853   0.885
14760SOL    HW146177   8.308   0.034   0.931
14760SOL    HW246178   8.245  14.768   0.930
14761SOL     OW46179   2.100   6.925  12.537
14761SOL    HW146180   2.121   6.860  12.471
14761SOL    HW246181   2.006   6.914  12.552
14762SOL     OW46182   8.572   4.370   2.016
14762SOL    HW146183   8.573   4.303   1.947
14762SOL    HW246184   8.622   4.331   2.088
14763SOL     OW46185   8.982  12.491  14.632
14763SOL    HW146186   9.021  12.558  14.577
14763SOL    HW246187   8.910  12.455  14.580
14764SOL     OW46188   5.497   8.521  10.275
14764SOL    HW146189   5.468   8.451  10.215
14764SOL    HW246190   5.483   8.484  10.362
14765SOL     OW46191  13.440   2.965  10.653
14765SOL    HW146192  13.456   3.057  10.673
14765SOL    HW246193  13.356   2.965  10.607
14766SOL     OW46194  10.970  11.757  11.860
14766SOL    HW146195  10.875  11.746  11.854
14766SOL    HW246196  10.983  11.851  11.874
14767SOL     OW46197   8.196   6.356  11.766
14767SOL    HW146198   8.248   6.379  11.689
14767SOL    HW246199   8.115   6.405  11.756
14768SOL     OW46200   9.790   0.138  10.319
14768SOL    HW146201   9.769   0.231  10.318
14768SOL    HW246202   9.880   0.134  10.353
14769SOL     OW46203  10.293   6.643   0.982
14769SOL    HW146204  10.284   6.577   1.051
14769SOL    HW246205  10.203   6.671   0.964
14770SOL     OW46206   5.674   1.670   2.696
14770SOL    HW146207   5.743   1.725   2.658
14770SOL    HW246208   5.720   1.615   2.759
14771SOL     OW46209   9.600   8.687  12.267
14771SOL    HW146210   9.622   8.674  12.175
14771SOL    HW246211   9.668   8.639  12.315
14772SOL     OW46212   4.021   4.397   7.661
14772SOL    HW146213   3.941   4.427   7.703
14772SOL    HW246214   4.055   4.474   7.616
14773SOL     OW46215   9.142   8.571   3.059
14773SOL    HW146216   9.153   8.476   3.053
14773SOL    HW246217   9.216   8.607   3.010
14774SOL     OW46218  10.075  14.671   6.571
14774SOL    HW146219  10.117  14.600   6.621
14774SOL    HW246220  10.092  14.750   6.623
14775SOL     OW46221  14.014   4.487   5.243
14775SOL    HW146222  14.027   4.581   5.254
14775SOL    HW246223  13.931   4.468   5.285
14776SOL     OW46224   5.839  14.437   0.123
14776SOL    HW146225   5.859  14.360   0.176
14776SOL    HW246226   5.816  14.401   0.037
14777SOL     OW46227   0.365  10.080  12.898
14777SOL    HW146228   0.292  10.037  12.853
14777SOL    HW246229   0.428  10.010  12.915
14778SOL     OW46230   1.528  14.103  13.693
14778SOL    HW146231   1.487  14.091  13.779
14778SOL    HW246232   1.491  14.185  13.661
14779SOL     OW46233   9.250  10.287   6.151
14779SOL    HW146234   9.304  10.314   6.226
14779SOL    HW246235   9.277  10.198   6.133
14780SOL     OW46236  13.684  14.832   3.888
14780SOL    HW146237  13.597  14.814   3.923
14780SOL    HW246238  13.711   0.041   3.933
14781SOL     OW46239   5.286   1.206  12.716
14781SOL    HW146240   5.250   1.117  12.708
14781SOL    HW246241   5.369   1.194  12.762
14782SOL     OW46242  13.184   4.302  14.027
14782SOL    HW146243  13.114   4.292  14.093
14782SOL    HW246244  13.200   4.396  14.024
14783SOL     OW46245   3.932   8.178   3.170
14783SOL    HW146246   3.950   8.100   3.223
14783SOL    HW246247   4.018   8.213   3.149
14784SOL     OW46248   1.355   4.204  12.787
14784SOL    HW146249   1.344   4.145  12.713
14784SOL    HW246250   1.296   4.170  12.855
14785SOL     OW46251   6.436   7.967   3.413
14785SOL    HW146252   6.498   7.930   3.350
14785SOL    HW246253   6.354   7.920   3.396
14786SOL     OW46254   3.011   6.979  12.659
14786SOL    HW146255   2.930   7.012  12.619
14786SOL    HW246256   3.077   7.045  12.638
14787SOL     OW46257   1.554  13.311  11.649
14787SOL    HW146258   1.615  13.280  11.715
14787SOL    HW246259   1.519  13.232  11.608
14788SOL     OW46260   7.146   5.699   2.064
14788SOL    HW146261   7.241   5.684   2.060
14788SOL    HW246262   7.117   5.687   1.973
14789SOL     OW46263  11.694   1.443   6.309
14789SOL    HW146264  11.786   1.465   6.318
14789SOL    HW246265  11.692   1.347   6.310
14790SOL     OW46266  11.849   9.246  12.787
14790SOL    HW146267  11.776   9.189  12.811
14790SOL    HW246268  11.813   9.334  12.792
14791SOL     OW46269   7.246   0.857  13.401
14791SOL    HW146270   7.153   0.864  13.382
14791SOL    HW246271   7.281   0.802  13.331
14792SOL     OW46272   0.659   1.971   2.410
14792SOL    HW146273   0.704   1.916   2.346
14792SOL    HW246274   0.675   2.060   2.380
14793SOL     OW46275   5.469   0.259  11.873
14793SOL    HW146276   5.463   0.324  11.943
14793SOL    HW246277   5.408   0.189  11.899
14794SOL     OW46278   1.534   4.463   8.645
14794SOL    HW146279   1.588   4.439   8.570
14794SOL    HW246280   1.502   4.551   8.624
14795SOL     OW46281   3.506   2.713   2.540
14795SOL    HW146282   3.549   2.736   2.623
14795SOL    HW246283   3.503   2.795   2.491
14796SOL     OW46284   0.860  10.355   4.925
14796SOL    HW146285   0.809  10.436   4.936
14796SOL    HW246286   0.796  10.291   4.893
14797SOL     OW46287   6.740   3.559   1.018
14797SOL    HW146288   6.815   3.594   1.065
14797SOL    HW246289   6.723   3.623   0.949
14798SOL     OW46290   6.980  11.318   1.110
14798SOL    HW146291   7.059  11.335   1.161
14798SOL    HW246292   6.910  11.362   1.157
14799SOL     OW46293   5.928  14.806  10.009
14799SOL    HW146294   5.952  14.798   9.917
14799SOL    HW246295   5.848  14.859  10.009
14800SOL     OW46296  12.917  12.904   6.002
14800SOL    HW146297  12.909  12.999   6.000
14800SOL    HW246298  13.004  12.887   6.037
14801SOL     OW46299  12.299   9.825   3.359
14801SOL    HW146300  12.333   9.874   3.434
14801SOL    HW246301  12.209   9.856   3.348
14802SOL     OW46302   4.618   4.314  14.089
14802SOL    HW146303   4.708   4.331  14.061
14802SOL    HW246304   4.569   4.392  14.061
14803SOL     OW46305  10.334   9.342   2.027
14803SOL    HW146306  10.288   9.310   1.949
14803SOL    HW246307  10.327   9.270   2.090
14804SOL     OW46308   5.238   0.854   0.265
14804SOL    HW146309   5.167   0.873   0.327
14804SOL    HW246310   5.205   0.883   0.181
14805SOL     OW46311   1.815   4.142   9.766
14805SOL    HW146312   1.847   4.131   9.676
14805SOL    HW246313   1.861   4.220   9.798
14806SOL     OW46314   5.385   7.080   5.268
14806SOL    HW146315   5.414   7.167   5.241
14806SOL    HW246316   5.466   7.033   5.289
14807SOL     OW46317   4.276   3.333   9.317
14807SOL    HW146318   4.247   3.409   9.267
14807SOL    HW246319   4.332   3.285   9.257
14808SOL     OW46320  14.774   3.445  11.400
14808SOL    HW146321  14.718   3.437  11.477
14808SOL    HW246322  14.712   3.459  11.327
14809SOL     OW46323   2.552   1.267   6.713
14809SOL    HW146324   2.613   1.234   6.647
14809SOL    HW246325   2.512   1.343   6.673
14810SOL     OW46326   0.682  14.457   6.412
14810SOL    HW146327   0.703  14.539   6.456
14810SOL    HW246328   0.586  14.454   6.410
14811SOL     OW46329  13.176  12.295   6.903
14811SOL    HW146330  13.237  12.342   6.846
14811SOL    HW246331  13.093  12.341   6.892
14812SOL     OW46332   5.478   9.329   3.303
14812SOL    HW146333   5.447   9.388   3.371
14812SOL    HW246334   5.520   9.387   3.239
14813SOL     OW46335   0.886   4.774  14.678
14813SOL    HW146336   0.798   4.813  14.685
14813SOL    HW246337   0.924   4.815  14.600
14814SOL     OW46338  10.632   5.711   6.800
14814SOL    HW146339  10.594   5.780   6.855
14814SOL    HW246340  10.722   5.740   6.785
14815SOL     OW46341  10.593   5.179  10.585
14815SOL    HW146342  10.579   5.230  10.506
14815SOL    HW246343  10.685   5.153  10.582
14816SOL     OW46344  11.145   2.375   4.073
14816SOL    HW146345  11.137   2.465   4.043
14816SOL    HW246346  11.095   2.324   4.009
14817SOL     OW46347  11.004   9.207  10.945
14817SOL    HW146348  10.918   9.240  10.972
14817SOL    HW246349  11.066   9.269  10.984
14818SOL     OW46350   9.734   5.708  13.350
14818SOL    HW146351   9.781   5.666  13.422
14818SOL    HW246352   9.787   5.690  13.272
14819SOL     OW46353  12.143   8.654   0.628
14819SOL    HW146354  12.189   8.642   0.711
14819SOL    HW246355  12.074   8.717   0.649
14820SOL     OW46356   7.410  12.818   8.425
14820SOL    HW146357   7.475  12.765   8.470
14820SOL    HW246358   7.368  12.869   8.494
14821SOL     OW46359  12.401  12.963   9.807
14821SOL    HW146360  12.448  13.037   9.770
14821SOL    HW246361  12.359  12.921   9.733
14822SOL     OW46362   9.276   3.113   7.090
14822SOL    HW146363   9.208   3.088   7.027
14822SOL    HW246364   9.352   3.061   7.064
14823SOL     OW46365   9.988   9.389   9.669
14823SOL    HW146366  10.045   9.445   9.616
14823SOL    HW246367   9.966   9.442   9.745
14824SOL     OW46368   4.997   4.253   6.607
14824SOL    HW146369   4.994   4.192   6.680
14824SOL    HW246370   5.065   4.219   6.549
14825SOL     OW46371   3.759   1.095  11.893
14825SOL    HW146372   3.804   1.021  11.934
14825SOL    HW246373   3.814   1.118  11.818
14826SOL     OW46374   0.097  11.450  11.100
14826SOL    HW146375   0.068  11.432  11.189
14826SOL    HW246376   0.173  11.507  11.111
14827SOL     OW46377   8.722   2.238   0.513
14827SOL    HW146378   8.803   2.256   0.560
14827SOL    HW246379   8.733   2.280   0.428
14828SOL     OW46380   2.761  11.376  13.958
14828SOL    HW146381   2.672  11.394  13.926
14828SOL    HW246382   2.807  11.340  13.883
14829SOL     OW46383   9.345  13.772   5.118
14829SOL    HW146384   9.300  13.837   5.173
14829SOL    HW246385   9.393  13.825   5.054
14830SOL     OW46386   2.437   6.056   1.950
14830SOL    HW146387   2.388   6.049   2.032
14830SOL    HW246388   2.526   6.078   1.978
14831SOL     OW46389  14.662   9.140  10.669
14831SOL    HW146390  14.683   9.092  10.589
14831SOL    HW246391  14.594   9.088  10.711
14832SOL     OW46392   8.458  12.378   8.189
14832SOL    HW146393   8.539  12.330   8.208
14832SOL    HW246394   8.455  12.446   8.256
14833SOL     OW46395   3.618  12.512   2.685
14833SOL    HW146396   3.570  12.595   2.688
14833SOL    HW246397   3.665  12.514   2.602
14834SOL     OW46398   6.745   0.543   9.057
14834SOL    HW146399   6.784   0.630   9.066
14834SOL    HW246400   6.673   0.555   8.995
14835SOL     OW46401  14.071   5.408   0.723
14835SOL    HW146402  13.984   5.372   0.708
14835SOL    HW246403  14.112   5.347   0.784
14836SOL     OW46404   4.475  11.444   2.878
14836SOL    HW146405   4.444  11.489   2.957
14836SOL    HW246406   4.414  11.372   2.865
14837SOL     OW46407   4.161   3.439  11.786
14837SOL    HW146408   4.102   3.434  11.861
14837SOL    HW246409   4.108   3.481  11.717
14838SOL     OW46410  12.566   2.270   9.228
14838SOL    HW146411  12.539   2.328   9.299
14838SOL    HW246412  12.487   2.222   9.205
14839SOL     OW46413  10.845   5.834   7.869
14839SOL    HW146414  10.820   5.924   7.889
14839SOL    HW246415  10.784   5.781   7.920
14840SOL     OW46416   3.194   7.552  10.774
14840SOL    HW146417   3.269   7.601  10.740
14840SOL    HW246418   3.117   7.595  10.735
14841SOL     OW46419  10.780   3.563   0.136
14841SOL    HW146420  10.826   3.529   0.059
14841SOL    HW246421  10.838   3.630   0.172
14842SOL     OW46422   1.406   2.384  13.795
14842SOL    HW146423   1.364   2.466  13.768
14842SOL    HW246424   1.468   2.410  13.863
14843SOL     OW46425   7.109   1.909   7.191
14843SOL    HW146426   7.018   1.910   7.219
14843SOL    HW246427   7.160   1.916   7.272
14844SOL     OW46428   9.530   2.124  11.045
14844SOL    HW146429   9.599   2.116  10.980
14844SOL    HW246430   9.538   2.214  11.077
14845SOL     OW46431   3.523   3.246   9.939
14845SOL    HW146432   3.569   3.314   9.988
14845SOL    HW246433   3.543   3.165   9.987
14846SOL     OW46434   3.939  10.362  12.941
14846SOL    HW146435   3.973  10.375  12.852
14846SOL    HW246436   3.966  10.440  12.988
14847SOL     OW46437  12.487   4.554   5.235
14847SOL    HW146438  12.540   4.577   5.159
14847SOL    HW246439  12.424   4.626   5.243
14848SOL     OW46440   3.670  11.074  10.306
14848SOL    HW146441   3.669  11.077  10.210
14848SOL    HW246442   3.743  11.015  10.327
14849SOL     OW46443  13.321  14.351   8.587
14849SOL    HW146444  13.324  14.287   8.658
14849SOL    HW246445  13.259  14.417   8.617
14850SOL     OW46446  13.498   3.323  11.182
14850SOL    HW146447  13.567   3.281  11.234
14850SOL    HW246448  13.509   3.416  11.201
14851SOL     OW46449   3.262   0.101   0.633
14851SOL    HW146450   3.287   0.010   0.650
14851SOL    HW246451   3.224   0.099   0.545
14852SOL     OW46452   1.527  14.572  10.564
14852SOL    HW146453   1.439  14.580  10.602
14852SOL    HW246454   1.539  14.652  10.513
14853SOL     OW46455   8.954   6.956   9.484
14853SOL    HW146456   8.992   7.044   9.483
14853SOL    HW246457   8.899   6.952   9.405
14854SOL     OW46458   8.744   3.106  11.206
14854SOL    HW146459   8.683   3.096  11.133
14854SOL    HW246460   8.741   3.021  11.251
14855SOL     OW46461  10.346   1.535  11.062
14855SOL    HW146462  10.434   1.527  11.099
14855SOL    HW246463  10.318   1.623  11.084
14856SOL     OW46464   7.167  12.440   2.899
14856SOL    HW146465   7.213  12.373   2.848
14856SOL    HW246466   7.235  12.480   2.953
14857SOL     OW46467   7.495  12.897   1.808
14857SOL    HW146468   7.528  12.978   1.847
14857SOL    HW246469   7.512  12.829   1.873
14858SOL     OW46470  12.525   5.422  14.773
14858SOL    HW146471  12.579   5.345  14.789
14858SOL    HW246472  12.572   5.494  14.817
14859SOL     OW46473   3.923   3.364   9.329
14859SOL    HW146474   4.018   3.377   9.328
14859SOL    HW246475   3.892   3.410   9.251
14860SOL     OW46476  12.741   0.265   9.234
14860SOL    HW146477  12.683   0.227   9.300
14860SOL    HW246478  12.744   0.358   9.255
14861SOL     OW46479   8.121  12.729   8.174
14861SOL    HW146480   8.081  12.697   8.254
14861SOL    HW246481   8.049  12.767   8.124
14862SOL     OW46482   4.186  10.167   6.688
14862SOL    HW146483   4.211  10.075   6.677
14862SOL    HW246484   4.095  10.163   6.718
14863SOL     OW46485  12.549  10.619   5.223
14863SOL    HW146486  12.536  10.681   5.296
14863SOL    HW246487  12.496  10.543   5.246
14864SOL     OW46488   7.291  10.370   0.734
14864SOL    HW146489   7.366  10.429   0.728
14864SOL    HW246490   7.287  10.345   0.826
14865SOL     OW46491   1.854   2.806   6.164
14865SOL    HW146492   1.785   2.852   6.211
14865SOL    HW246493   1.885   2.739   6.225
14866SOL     OW46494   3.855   3.668  10.583
14866SOL    HW146495   3.799   3.607  10.534
14866SOL    HW246496   3.858   3.747  10.529
14867SOL     OW46497   4.481   9.093   6.496
14867SOL    HW146498   4.477   9.025   6.429
14867SOL    HW246499   4.431   9.166   6.459
14868SOL     OW46500   0.672   9.152  13.526
14868SOL    HW146501   0.608   9.162  13.596
14868SOL    HW246502   0.693   9.058  13.525
14869SOL     OW46503  12.435  13.868   7.496
14869SOL    HW146504  12.412  13.777   7.481
14869SOL    HW246505  12.372  13.898   7.562
14870SOL     OW46506   0.379  12.000   3.946
14870SOL    HW146507   0.448  12.035   4.003
14870SOL    HW246508   0.392  12.045   3.863
14871SOL     OW46509   6.458  14.656   4.078
14871SOL    HW146510   6.488  14.740   4.044
14871SOL    HW246511   6.538  14.613   4.108
14872SOL     OW46512   2.051   4.974  14.063
14872SOL    HW146513   2.092   5.021  14.136
14872SOL    HW246514   2.000   4.905  14.106
14873SOL     OW46515   4.518   7.043  12.095
14873SOL    HW146516   4.496   7.118  12.151
14873SOL    HW246517   4.496   7.073  12.006
14874SOL     OW46518  14.849  12.100   3.746
14874SOL    HW146519  14.759  12.087   3.776
14874SOL    HW246520  14.857  12.043   3.669
14875SOL     OW46521   1.271   2.063  11.607
14875SOL    HW146522   1.232   1.979  11.630
14875SOL    HW246523   1.364   2.044  11.597
14876SOL     OW46524  10.310  10.231   0.418
14876SOL    HW146525  10.278  10.155   0.370
14876SOL    HW246526  10.375  10.270   0.360
14877SOL     OW46527  13.475   1.969  10.242
14877SOL    HW146528  13.563   2.002  10.259
14877SOL    HW246529  13.487   1.901  10.176
14878SOL     OW46530  12.395   5.400   1.630
14878SOL    HW146531  12.405   5.495   1.627
14878SOL    HW246532  12.484   5.367   1.639
14879SOL     OW46533   0.136   9.314   3.740
14879SOL    HW146534   0.067   9.309   3.674
14879SOL    HW246535   0.146   9.224   3.772
14880SOL     OW46536  11.338   7.305   3.193
14880SOL    HW146537  11.305   7.368   3.129
14880SOL    HW246538  11.337   7.353   3.276
14881SOL     OW46539   0.899   9.466  13.659
14881SOL    HW146540   0.984   9.486  13.697
14881SOL    HW246541   0.846   9.435  13.733
14882SOL     OW46542   7.787  11.597   2.199
14882SOL    HW146543   7.713  11.543   2.228
14882SOL    HW246544   7.785  11.591   2.103
14883SOL     OW46545  14.606   3.377   2.763
14883SOL    HW146546  14.549   3.442   2.806
14883SOL    HW246547  14.693   3.417   2.766
14884SOL     OW46548  13.519  12.740   2.376
14884SOL    HW146549  13.577  12.811   2.349
14884SOL    HW246550  13.515  12.682   2.300
14885SOL     OW46551   5.869   5.828   6.166
14885SOL    HW146552   5.942   5.774   6.136
14885SOL    HW246553   5.806   5.825   6.094
14886SOL     OW46554  12.351  12.660   6.455
14886SOL    HW146555  12.340  12.721   6.382
14886SOL    HW246556  12.338  12.573   6.417
14887SOL     OW46557   7.030   5.455   6.115
14887SOL    HW146558   6.974   5.451   6.192
14887SOL    HW246559   6.969   5.465   6.042
14888SOL     OW46560   3.167   6.700  13.019
14888SOL    HW146561   3.115   6.619  13.019
14888SOL    HW246562   3.108   6.767  12.985
14889SOL     OW46563   7.309   6.183   3.541
14889SOL    HW146564   7.252   6.176   3.617
14889SOL    HW246565   7.267   6.249   3.485
14890SOL     OW46566   2.328  12.782   6.438
14890SOL    HW146567   2.360  12.868   6.467
14890SOL    HW246568   2.236  12.781   6.463
14891SOL     OW46569   6.046  10.720  10.086
14891SOL    HW146570   6.095  10.753  10.161
14891SOL    HW246571   5.957  10.751  10.100
14892SOL     OW46572  12.198   5.960   0.016
14892SOL    HW146573  12.161   5.964  14.799
14892SOL    HW246574  12.238   6.046   0.029
14893SOL     OW46575   9.230  10.298   2.924
14893SOL    HW146576   9.232  10.212   2.965
14893SOL    HW246577   9.250  10.359   2.995
14894SOL     OW46578   7.907  13.129   3.729
14894SOL    HW146579   7.841  13.061   3.729
14894SOL    HW246580   7.920  13.150   3.636
14895SOL     OW46581   2.415   0.731   7.583
14895SOL    HW146582   2.501   0.757   7.617
14895SOL    HW246583   2.429   0.642   7.550
14896SOL     OW46584   2.140   0.355   6.943
14896SOL    HW146585   2.207   0.363   6.875
14896SOL    HW246586   2.095   0.273   6.923
14897SOL     OW46587   6.103   0.920  14.839
14897SOL    HW146588   6.032   0.879  14.789
14897SOL    HW246589   6.138   0.987  14.780
14898SOL     OW46590   2.623   6.983  10.643
14898SOL    HW146591   2.698   7.023  10.686
14898SOL    HW246592   2.555   6.980  10.710
14899SOL     OW46593   9.069   9.174   7.053
14899SOL    HW146594   8.998   9.154   6.993
14899SOL    HW246595   9.026   9.193   7.136
14900SOL     OW46596   5.628   7.863   0.737
14900SOL    HW146597   5.662   7.928   0.675
14900SOL    HW246598   5.696   7.856   0.804
14901SOL     OW46599   1.928  12.234  10.076
14901SOL    HW146600   1.849  12.200  10.119
14901SOL    HW246601   1.918  12.209   9.984
14902SOL     OW46602  11.907   8.610  11.139
14902SOL    HW146603  11.988   8.661  11.142
14902SOL    HW246604  11.932   8.530  11.092
14903SOL     OW46605  12.543  12.235  13.887
14903SOL    HW146606  12.514  12.220  13.977
14903SOL    HW246607  12.466  12.213  13.834
14904SOL     OW46608   1.924   4.376  10.624
14904SOL    HW146609   1.940   4.401  10.714
14904SOL    HW246610   1.830   4.360  10.619
14905SOL     OW46611   3.939   2.987   7.061
14905SOL    HW146612   3.921   2.903   7.019
14905SOL    HW246613   3.854   3.020   7.088
14906SOL     OW46614   3.001  10.763   3.088
14906SOL    HW146615   3.080  10.763   3.143
14906SOL    HW246616   2.929  10.753   3.149
14907SOL     OW46617   7.131   6.953  12.908
14907SOL    HW146618   7.117   6.971  12.815
14907SOL    HW246619   7.078   6.877  12.928
14908SOL     OW46620  12.075   2.728   1.940
14908SOL    HW146621  12.129   2.683   2.005
14908SOL    HW246622  12.137   2.765   1.877
14909SOL     OW46623   4.297   5.337  13.200
14909SOL    HW146624   4.351   5.287  13.139
14909SOL    HW246625   4.210   5.297  13.192
14910SOL     OW46626  10.332   9.338   0.106
14910SOL    HW146627  10.246   9.376   0.092
14910SOL    HW246628  10.318   9.243   0.098
14911SOL     OW46629  10.653   3.331   2.122
14911SOL    HW146630  10.716   3.357   2.055
14911SOL    HW246631  10.575   3.304   2.074
14912SOL     OW46632   8.895   2.774   9.817
14912SOL    HW146633   8.832   2.704   9.834
14912SOL    HW246634   8.846   2.839   9.765
14913SOL     OW46635   7.185  14.333   0.877
14913SOL    HW146636   7.132  14.413   0.881
14913SOL    HW246637   7.255  14.347   0.941
14914SOL     OW46638  10.524  10.354  14.473
14914SOL    HW146639  10.613  10.346  14.438
14914SOL    HW246640  10.504  10.448  14.466
14915SOL     OW46641   4.515   2.027  10.073
14915SOL    HW146642   4.502   2.081   9.995
14915SOL    HW246643   4.610   2.013  10.077
14916SOL     OW46644   7.233  11.098   9.932
14916SOL    HW146645   7.258  11.169   9.873
14916SOL    HW246646   7.139  11.107   9.942
14917SOL     OW46647   1.136  13.888   9.068
14917SOL    HW146648   1.130  13.983   9.061
14917SOL    HW246649   1.196  13.863   8.998
14918SOL     OW46650  12.559   0.532  11.525
14918SOL    HW146651  12.488   0.485  11.569
14918SOL    HW246652  12.515   0.589  11.463
14919SOL     OW46653  11.843  12.338   5.779
14919SOL    HW146654  11.902  12.298   5.843
14919SOL    HW246655  11.897  12.402   5.733
14920SOL     OW46656   4.678   3.180  12.400
14920SOL    HW146657   4.665   3.089  12.372
14920SOL    HW246658   4.715   3.223  12.323
14921SOL     OW46659   2.365  13.700   8.499
14921SOL    HW146660   2.405  13.630   8.551
14921SOL    HW246661   2.316  13.752   8.562
14922SOL     OW46662  12.731  11.834  11.078
14922SOL    HW146663  12.819  11.801  11.099
14922SOL    HW246664  12.709  11.890  11.152
14923SOL     OW46665   9.177   2.744   9.767
14923SOL    HW146666   9.089   2.743   9.804
14923SOL    HW246667   9.196   2.837   9.755
14924SOL     OW46668   2.799  13.217  10.549
14924SOL    HW146669   2.880  13.207  10.499
14924SOL    HW246670   2.821  13.187  10.637
14925SOL     OW46671  11.090  14.596   4.469
14925SOL    HW146672  11.147  14.618   4.396
14925SOL    HW246673  11.024  14.537   4.431
14926SOL     OW46674   8.128   0.259   6.388
14926SOL    HW146675   8.208   0.239   6.341
14926SOL    HW246676   8.156   0.272   6.479
14927SOL     OW46677   3.452   0.252   0.771
14927SOL    HW146678   3.384   0.189   0.746
14927SOL    HW246679   3.422   0.335   0.735
14928SOL     OW46680   7.727  14.560  12.007
14928SOL    HW146681   7.795  14.623  11.983
14928SOL    HW246682   7.646  14.601  11.980
14929SOL     OW46683   8.763  13.885  11.746
14929SOL    HW146684   8.736  13.936  11.822
14929SOL    HW246685   8.705  13.915  11.675
14930SOL     OW46686   8.944   3.430  11.926
14930SOL    HW146687   9.036   3.450  11.910
14930SOL    HW246688   8.945   3.339  11.956
14931SOL     OW46689   3.531   3.231   1.352
14931SOL    HW146690   3.568   3.202   1.436
14931SOL    HW246691   3.541   3.326   1.353
14932SOL     OW46692   5.055   3.915  13.495
14932SOL    HW146693   4.981   3.855  13.499
14932SOL    HW246694   5.132   3.861  13.513
14933SOL     OW46695   5.270  10.147   2.508
14933SOL    HW146696   5.311  10.088   2.445
14933SOL    HW246697   5.248  10.092   2.583
14934SOL     OW46698   3.775   8.941  14.242
14934SOL    HW146699   3.837   8.941  14.315
14934SOL    HW246700   3.712   9.009  14.265
14935SOL     OW46701   8.547   4.635   3.725
14935SOL    HW146702   8.634   4.594   3.730
14935SOL    HW246703   8.565   4.727   3.706
14936SOL     OW46704  11.695   5.629   3.115
14936SOL    HW146705  11.716   5.544   3.079
14936SOL    HW246706  11.780   5.669   3.135
14937SOL     OW46707   5.961  14.162   9.559
14937SOL    HW146708   6.017  14.179   9.635
14937SOL    HW246709   5.996  14.219   9.490
14938SOL     OW46710   2.226   2.089  13.099
14938SOL    HW146711   2.135   2.062  13.100
14938SOL    HW246712   2.223   2.185  13.100
14939SOL     OW46713   4.294   6.344   5.208
14939SOL    HW146714   4.208   6.363   5.246
14939SOL    HW246715   4.338   6.291   5.274
14940SOL     OW46716   1.271   6.547  10.766
14940SOL    HW146717   1.249   6.479  10.702
14940SOL    HW246718   1.234   6.514  10.849
14941SOL     OW46719  11.759   0.623  11.621
14941SOL    HW146720  11.730   0.686  11.555
14941SOL    HW246721  11.797   0.551  11.571
14942SOL     OW46722  11.262  11.889   4.646
14942SOL    HW146723  11.313  11.938   4.711
14942SOL    HW246724  11.283  11.932   4.562
14943SOL     OW46725   9.406   2.978  13.943
14943SOL    HW146726   9.402   2.959  13.849
14943SOL    HW246727   9.421   3.072  13.948
14944SOL     OW46728   6.203   5.383  14.188
14944SOL    HW146729   6.275   5.329  14.220
14944SOL    HW246730   6.156   5.411  14.267
14945SOL     OW46731   4.962   7.446  12.649
14945SOL    HW146732   4.908   7.378  12.611
14945SOL    HW246733   4.937   7.526  12.603
14946SOL     OW46734   4.050   1.817   1.400
14946SOL    HW146735   4.028   1.863   1.320
14946SOL    HW246736   3.983   1.749   1.409
14947SOL     OW46737   2.082   9.271   9.250
14947SOL    HW146738   2.067   9.352   9.202
14947SOL    HW246739   2.132   9.216   9.189
14948SOL     OW46740   3.478  10.357   1.920
14948SOL    HW146741   3.543  10.411   1.964
14948SOL    HW246742   3.510  10.268   1.930
14949SOL     OW46743   9.878   2.951   1.637
14949SOL    HW146744   9.869   3.017   1.706
14949SOL    HW246745   9.963   2.970   1.597
14950SOL     OW46746   9.414   0.847   9.015
14950SOL    HW146747   9.378   0.901   9.085
14950SOL    HW246748   9.358   0.770   9.013
14951SOL     OW46749   3.500  14.520  14.068
14951SOL    HW146750   3.518  14.446  14.011
14951SOL    HW246751   3.472  14.590  14.009
14952SOL     OW46752  10.392   3.114   0.196
14952SOL    HW146753  10.478   3.084   0.226
14952SOL    HW246754  10.329   3.062   0.247
14953SOL     OW46755   2.613   8.253   9.453
14953SOL    HW146756   2.523   8.283   9.464
14953SOL    HW246757   2.643   8.234   9.542
14954SOL     OW46758   4.811   5.528   8.958
14954SOL    HW146759   4.809   5.623   8.964
14954SOL    HW246760   4.756   5.498   9.030
14955SOL     OW46761   2.257  14.095  10.879
14955SOL    HW146762   2.333  14.048  10.846
14955SOL    HW246763   2.185  14.069  10.821
14956SOL     OW46764  11.821   6.576  13.362
14956SOL    HW146765  11.836   6.497  13.311
14956SOL    HW246766  11.730   6.600  13.344
14957SOL     OW46767  14.532   4.672  12.250
14957SOL    HW146768  14.446   4.659  12.210
14957SOL    HW246769  14.576   4.734  12.191
14958SOL     OW46770   2.499   6.192   8.477
14958SOL    HW146771   2.593   6.206   8.471
14958SOL    HW246772   2.466   6.214   8.390
14959SOL     OW46773   5.276   6.563   3.633
14959SOL    HW146774   5.254   6.490   3.691
14959SOL    HW246775   5.235   6.639   3.673
14960SOL     OW46776   7.236   1.579  12.644
14960SOL    HW146777   7.179   1.650  12.672
14960SOL    HW246778   7.192   1.542  12.567
14961SOL     OW46779   3.135  14.611   5.121
14961SOL    HW146780   3.201  14.650   5.064
14961SOL    HW246781   3.058  14.600   5.065
14962SOL     OW46782   5.009   5.511   0.692
14962SOL    HW146783   5.074   5.491   0.624
14962SOL    HW246784   4.995   5.427   0.737
14963SOL     OW46785   2.349   0.292   2.491
14963SOL    HW146786   2.326   0.206   2.526
14963SOL    HW246787   2.348   0.280   2.396
14964SOL     OW46788  13.836   8.564   3.083
14964SOL    HW146789  13.811   8.517   3.163
14964SOL    HW246790  13.928   8.540   3.069
14965SOL     OW46791   4.407  14.700   9.766
14965SOL    HW146792   4.463  14.777   9.773
14965SOL    HW246793   4.423  14.666   9.678
14966SOL     OW46794   1.906   3.228   7.592
14966SOL    HW146795   1.959   3.307   7.584
14966SOL    HW246796   1.823   3.259   7.629
14967SOL     OW46797   9.700  12.972   4.111
14967SOL    HW146798   9.734  12.911   4.176
14967SOL    HW246799   9.763  13.044   4.111
14968SOL     OW46800   5.829   7.604  10.763
14968SOL    HW146801   5.789   7.584  10.847
14968SOL    HW246802   5.755   7.618  10.704
14969SOL     OW46803  12.467   1.036   4.073
14969SOL    HW146804  12.458   0.945   4.103
14969SOL    HW246805  12.412   1.086   4.134
14970SOL     OW46806  13.258  12.506  11.232
14970SOL    HW146807  13.168  12.537  11.224
14970SOL    HW246808  13.300  12.570  11.290
14971SOL     OW46809   1.847   7.594   3.460
14971SOL    HW146810   1.807   7.520   3.414
14971SOL    HW246811   1.921   7.556   3.506
14972SOL     OW46812   8.290  11.829   4.622
14972SOL    HW146813   8.243  11.905   4.588
14972SOL    HW246814   8.222  11.766   4.645
14973SOL     OW46815   8.320   5.267   2.756
14973SOL    HW146816   8.363   5.227   2.832
14973SOL    HW246817   8.383   5.255   2.684
14974SOL     OW46818   0.350   9.251   2.099
14974SOL    HW146819   0.436   9.290   2.086
14974SOL    HW246820   0.288   9.321   2.079
14975SOL     OW46821   0.004   4.232   0.993
14975SOL    HW146822  14.858   4.244   0.900
14975SOL    HW246823  14.865   4.138   1.008
14976SOL     OW46824   5.635  14.790   0.585
14976SOL    HW146825   5.711  14.833   0.624
14976SOL    HW246826   5.645  14.805   0.491
14977SOL     OW46827   2.304  14.311   0.036
14977SOL    HW146828   2.257  14.306   0.119
14977SOL    HW246829   2.258  14.377  14.857
14978SOL     OW46830   4.072   1.327   9.957
14978SOL    HW146831   3.992   1.314   9.906
14978SOL    HW246832   4.108   1.409   9.924
14979SOL     OW46833  12.571  11.334   7.488
14979SOL    HW146834  12.490  11.312   7.534
14979SOL    HW246835  12.608  11.250   7.462
14980SOL     OW46836   2.023  10.506   4.124
14980SOL    HW146837   1.937  10.507   4.084
14980SOL    HW246838   2.077  10.560   4.066
14981SOL     OW46839   8.839   5.571   8.185
14981SOL    HW146840   8.927   5.609   8.181
14981SOL    HW246841   8.836   5.525   8.269
14982SOL     OW46842  12.313   6.100   8.968
14982SOL    HW146843  12.279   6.189   8.980
14982SOL    HW246844  12.405   6.106   8.994
14983SOL     OW46845  14.163  12.859  14.763
14983SOL    HW146846  14.196  12.926  14.703
14983SOL    HW246847  14.091  12.819  14.715
14984SOL     OW46848  10.157  11.962   6.631
14984SOL    HW146849  10.122  11.961   6.542
14984SOL    HW246850  10.081  11.976   6.687
14985SOL     OW46851  10.097   5.369   3.359
14985SOL    HW146852  10.157   5.329   3.421
14985SOL    HW246853  10.082   5.457   3.393
14986SOL     OW46854   6.680  11.332   0.863
14986SOL    HW146855   6.613  11.297   0.923
14986SOL    HW246856   6.737  11.258   0.844
14987SOL     OW46857   4.392   0.834  14.496
14987SOL    HW146858   4.411   0.740  14.506
14987SOL    HW246859   4.306   0.836  14.453
14988SOL     OW46860   0.389   5.953   4.449
14988SOL    HW146861   0.379   6.038   4.406
14988SOL    HW246862   0.303   5.936   4.487
14989SOL     OW46863  13.610  12.610  13.865
14989SOL    HW146864  13.539  12.624  13.803
14989SOL    HW246865  13.605  12.683  13.925
14990SOL     OW46866  13.917   7.821   8.780
14990SOL    HW146867  13.959   7.862   8.704
14990SOL    HW246868  13.973   7.747   8.802
14991SOL     OW46869  13.285  13.589  12.678
14991SOL    HW146870  13.221  13.638  12.731
14991SOL    HW246871  13.295  13.506  12.724
14992SOL     OW46872   9.423   7.833   3.543
14992SOL    HW146873   9.394   7.878   3.463
14992SOL    HW246874   9.518   7.836   3.537
14993SOL     OW46875  11.676   7.954   2.905
14993SOL    HW146876  11.641   8.041   2.923
14993SOL    HW246877  11.601   7.905   2.871
14994SOL     OW46878   3.087   5.865  11.754
14994SOL    HW146879   3.035   5.821  11.821
14994SOL    HW246880   3.053   5.831  11.671
14995SOL     OW46881  13.030  10.171   1.605
14995SOL    HW146882  12.977  10.091   1.598
14995SOL    HW246883  12.966  10.241   1.619
14996SOL     OW46884   1.075  10.291   4.106
14996SOL    HW146885   1.118  10.369   4.140
14996SOL    HW246886   1.019  10.261   4.178
14997SOL     OW46887   2.780   8.196   3.460
14997SOL    HW146888   2.840   8.268   3.479
14997SOL    HW246889   2.826   8.142   3.396
14998SOL     OW46890  12.719   5.259   1.065
14998SOL    HW146891  12.653   5.305   1.012
14998SOL    HW246892  12.738   5.179   1.016
14999SOL     OW46893  10.243   9.360  10.899
14999SOL    HW146894  10.253   9.265  10.894
14999SOL    HW246895  10.198   9.375  10.982
15000SOL     OW46896   1.574  14.752   5.201
15000SOL    HW146897   1.574  14.726   5.108
15000SOL    HW246898   1.482  14.769   5.220
15001SOL     OW46899   3.985   1.954   0.877
15001SOL    HW146900   3.914   2.004   0.836
15001SOL    HW246901   4.000   1.880   0.819
15002SOL     OW46902   5.264   3.876  12.576
15002SOL    HW146903   5.330   3.811  12.551
15002SOL    HW246904   5.309   3.960  12.565
15003SOL     OW46905  10.933  11.605   5.083
15003SOL    HW146906  10.883  11.668   5.136
15003SOL    HW246907  11.002  11.574   5.142
15004SOL     OW46908  12.613  14.361   4.957
15004SOL    HW146909  12.604  14.401   5.044
15004SOL    HW246910  12.671  14.420   4.910
15005SOL     OW46911  11.929   5.490   2.305
15005SOL    HW146912  11.868   5.550   2.347
15005SOL    HW246913  12.011   5.500   2.354
15006SOL     OW46914  11.861   1.853  14.855
15006SOL    HW146915  11.953   1.840  14.830
15006SOL    HW246916  11.844   1.945  14.836
15007SOL     OW46917  11.440  11.996   4.122
15007SOL    HW146918  11.497  12.072   4.127
15007SOL    HW246919  11.499  11.921   4.123
15008SOL     OW46920   6.136   0.081  11.527
15008SOL    HW146921   6.096   0.157  11.486
15008SOL    HW246922   6.067   0.014  11.526
15009SOL     OW46923   1.459   3.326   9.935
15009SOL    HW146924   1.546   3.294   9.908
15009SOL    HW246925   1.399   3.256   9.908
15010SOL     OW46926   5.008   9.557  12.972
15010SOL    HW146927   4.918   9.586  12.958
15010SOL    HW246928   5.048   9.559  12.885
15011SOL     OW46929   6.236   3.598  13.793
15011SOL    HW146930   6.200   3.512  13.771
15011SOL    HW246931   6.296   3.581  13.866
15012SOL     OW46932  11.754   5.120   1.985
15012SOL    HW146933  11.848   5.116   2.002
15012SOL    HW246934  11.717   5.045   2.032
15013SOL     OW46935  13.438   2.899  13.877
15013SOL    HW146936  13.452   2.805  13.862
15013SOL    HW246937  13.345   2.906  13.897
15014SOL     OW46938   4.223   4.711   5.136
15014SOL    HW146939   4.310   4.701   5.099
15014SOL    HW246940   4.205   4.805   5.130
15015SOL     OW46941   9.405   6.607   9.675
15015SOL    HW146942   9.388   6.690   9.721
15015SOL    HW246943   9.396   6.629   9.582
15016SOL     OW46944   7.888   8.707   7.126
15016SOL    HW146945   7.864   8.766   7.197
15016SOL    HW246946   7.984   8.708   7.125
15017SOL     OW46947   8.637   7.014   2.737
15017SOL    HW146948   8.690   6.942   2.772
15017SOL    HW246949   8.597   6.978   2.659
15018SOL     OW46950   0.670  10.441   3.651
15018SOL    HW146951   0.633  10.457   3.738
15018SOL    HW246952   0.765  10.449   3.664
15019SOL     OW46953  11.142   8.824   1.921
15019SOL    HW146954  11.140   8.847   2.014
15019SOL    HW246955  11.100   8.738   1.917
15020SOL     OW46956   7.620  14.548   4.434
15020SOL    HW146957   7.577  14.584   4.511
15020SOL    HW246958   7.554  14.492   4.393
15021SOL     OW46959  12.896  13.820   6.958
15021SOL    HW146960  12.910  13.726   6.964
15021SOL    HW246961  12.932  13.855   7.039
15022SOL     OW46962   5.754   7.149  14.369
15022SOL    HW146963   5.736   7.089  14.297
15022SOL    HW246964   5.825   7.106  14.418
15023SOL     OW46965   0.078  11.968   0.603
15023SOL    HW146966   0.116  12.029   0.539
15023SOL    HW246967  14.856  11.971   0.587
15024SOL     OW46968   4.961   8.229   7.709
15024SOL    HW146969   4.930   8.312   7.745
15024SOL    HW246970   5.039   8.208   7.760
15025SOL     OW46971   8.190   2.473   7.678
15025SOL    HW146972   8.273   2.490   7.722
15025SOL    HW246973   8.197   2.521   7.595
15026SOL     OW46974   2.298   4.535  13.719
15026SOL    HW146975   2.306   4.527  13.814
15026SOL    HW246976   2.262   4.451  13.691
15027SOL     OW46977   9.808  10.265  13.316
15027SOL    HW146978   9.836  10.280  13.226
15027SOL    HW246979   9.883  10.223  13.358
15028SOL     OW46980   1.422  10.251   6.999
15028SOL    HW146981   1.515  10.273   6.990
15028SOL    HW246982   1.392  10.241   6.909
15029SOL     OW46983   7.186   2.590  13.766
15029SOL    HW146984   7.120   2.520  13.766
15029SOL    HW246985   7.160   2.647  13.693
15030SOL     OW46986  14.843   4.175  14.564
15030SOL    HW146987  14.847   4.235  14.489
15030SOL    HW246988  14.836   4.232  14.640
15031SOL     OW46989   6.862   9.276   3.809
15031SOL    HW146990   6.876   9.185   3.783
15031SOL    HW246991   6.950   9.308   3.830
15032SOL     OW46992  14.436   8.059   6.372
15032SOL    HW146993  14.414   8.148   6.399
15032SOL    HW246994  14.364   8.032   6.317
15033SOL     OW46995  12.211   7.869   8.576
15033SOL    HW146996  12.222   7.952   8.529
15033SOL    HW246997  12.157   7.816   8.518
15034SOL     OW46998  14.841  10.281   6.674
15034SOL    HW146999   0.004  10.309   6.589
15034SOL    HW247000   0.036  10.308   6.737
15035SOL     OW47001  12.847   5.171  10.964
15035SOL    HW147002  12.760   5.206  10.946
15035SOL    HW247003  12.906   5.243  10.942
15036SOL     OW47004   6.928   2.585  14.839
15036SOL    HW147005   6.885   2.518  14.786
15036SOL    HW247006   6.887   2.578   0.054
15037SOL     OW47007   6.028   3.235   2.914
15037SOL    HW147008   6.080   3.256   2.992
15037SOL    HW247009   6.078   3.166   2.870
15038SOL     OW47010   6.201   4.445   1.251
15038SOL    HW147011   6.129   4.505   1.270
15038SOL    HW247012   6.229   4.469   1.162
15039SOL     OW47013   7.797  12.747  10.691
15039SOL    HW147014   7.714  12.795  10.692
15039SOL    HW247015   7.778  12.668  10.640
15040SOL     OW47016   3.466   3.725   4.576
15040SOL    HW147017   3.450   3.805   4.626
15040SOL    HW247018   3.503   3.755   4.494
15041SOL     OW47019   0.561  13.815  14.648
15041SOL    HW147020   0.619  13.888  14.626
15041SOL    HW247021   0.615  13.758  14.704
15042SOL     OW47022  12.934   2.897   1.404
15042SOL    HW147023  13.028   2.902   1.385
15042SOL    HW247024  12.910   2.807   1.385
15043SOL     OW47025  11.249   2.293   9.290
15043SOL    HW147026  11.240   2.353   9.364
15043SOL    HW247027  11.318   2.333   9.236
15044SOL     OW47028   8.426   4.431   3.131
15044SOL    HW147029   8.498   4.475   3.087
15044SOL    HW247030   8.466   4.387   3.206
15045SOL     OW47031  10.802   6.405   9.597
15045SOL    HW147032  10.795   6.498   9.577
15045SOL    HW247033  10.756   6.395   9.680
15046SOL     OW47034   9.680   6.077   0.065
15046SOL    HW147035   9.708   6.168   0.073
15046SOL    HW247036   9.703   6.052  14.847
15047SOL     OW47037   3.790  13.314   5.085
15047SOL    HW147038   3.870  13.338   5.133
15047SOL    HW247039   3.721  13.317   5.151
15048SOL     OW47040   5.198   8.677   8.080
15048SOL    HW147041   5.212   8.638   7.994
15048SOL    HW247042   5.160   8.606   8.133
15049SOL     OW47043   8.074   6.771  11.796
15049SOL    HW147044   8.063   6.704  11.864
15049SOL    HW247045   7.996   6.764  11.741
15050SOL     OW47046  10.654   1.147  14.459
15050SOL    HW147047  10.707   1.071  14.480
15050SOL    HW247048  10.583   1.113  14.404
15051SOL     OW47049   5.895   6.991  11.476
15051SOL    HW147050   5.943   7.073  11.468
15051SOL    HW247051   5.886   6.977  11.570
15052SOL     OW47052  11.693  14.415  12.787
15052SOL    HW147053  11.758  14.435  12.719
15052SOL    HW247054  11.650  14.499  12.804
15053SOL     OW47055   9.006   5.006   1.828
15053SOL    HW147056   8.967   5.087   1.859
15053SOL    HW247057   8.987   5.005   1.734
15054SOL     OW47058  11.912  13.989   9.138
15054SOL    HW147059  12.004  14.011   9.155
15054SOL    HW247060  11.867  14.074   9.141
15055SOL     OW47061   8.983  12.221   2.159
15055SOL    HW147062   9.060  12.212   2.103
15055SOL    HW247063   8.986  12.311   2.191
15056SOL     OW47064  10.732  14.441   3.978
15056SOL    HW147065  10.686  14.521   3.953
15056SOL    HW247066  10.825  14.465   3.972
15057SOL     OW47067   2.359   7.476   8.206
15057SOL    HW147068   2.347   7.501   8.114
15057SOL    HW247069   2.393   7.387   8.203
15058SOL     OW47070   3.468  12.533   0.077
15058SOL    HW147071   3.524  12.610   0.086
15058SOL    HW247072   3.382  12.562   0.109
15059SOL     OW47073   6.370  14.076   1.729
15059SOL    HW147074   6.390  14.136   1.800
15059SOL    HW247075   6.387  13.989   1.766
15060SOL     OW47076  14.024  14.435   6.276
15060SOL    HW147077  14.028  14.415   6.370
15060SOL    HW247078  14.113  14.418   6.244
15061SOL     OW47079   5.757  13.318   1.234
15061SOL    HW147080   5.831  13.259   1.224
15061SOL    HW247081   5.790  13.403   1.206
15062SOL     OW47082  10.063   6.207  10.705
15062SOL    HW147083  10.084   6.279  10.645
15062SOL    HW247084  10.023   6.251  10.780
15063SOL     OW47085  11.444  14.259  12.782
15063SOL    HW147086  11.375  14.312  12.821
15063SOL    HW247087  11.523  14.312  12.794
15064SOL     OW47088   5.913   2.191   6.010
15064SOL    HW147089   5.932   2.277   5.970
15064SOL    HW247090   5.886   2.212   6.099
15065SOL     OW47091  12.835   7.663   4.607
15065SOL    HW147092  12.786   7.584   4.631
15065SOL    HW247093  12.916   7.658   4.658
15066SOL     OW47094   0.965   1.820   7.554
15066SOL    HW147095   0.968   1.848   7.463
15066SOL    HW247096   1.046   1.770   7.566
15067SOL     OW47097   1.161   0.414   4.326
15067SOL    HW147098   1.115   0.332   4.344
15067SOL    HW247099   1.092   0.472   4.292
15068SOL     OW47100   0.354   7.640   9.473
15068SOL    HW147101   0.345   7.690   9.392
15068SOL    HW247102   0.344   7.549   9.447
15069SOL     OW47103   2.527   9.212   8.973
15069SOL    HW147104   2.483   9.240   9.053
15069SOL    HW247105   2.571   9.291   8.941
15070SOL     OW47106   9.949   6.694  11.811
15070SOL    HW147107   9.862   6.725  11.836
15070SOL    HW247108   9.933   6.609  11.770
15071SOL     OW47109  10.110   5.361  13.174
15071SOL    HW147110  10.100   5.442  13.124
15071SOL    HW247111  10.112   5.292  13.108
15072SOL     OW47112   9.472   6.916   2.622
15072SOL    HW147113   9.567   6.911   2.621
15072SOL    HW247114   9.443   6.840   2.572
15073SOL     OW47115   8.241   0.495  10.633
15073SOL    HW147116   8.219   0.568  10.576
15073SOL    HW247117   8.329   0.468  10.604
15074SOL     OW47118  10.321  12.339  13.354
15074SOL    HW147119  10.243  12.296  13.388
15074SOL    HW247120  10.310  12.336  13.259
15075SOL     OW47121   6.585   2.699   1.486
15075SOL    HW147122   6.632   2.643   1.425
15075SOL    HW247123   6.522   2.746   1.431
15076SOL     OW47124  13.936   5.116   3.135
15076SOL    HW147125  13.866   5.076   3.084
15076SOL    HW247126  13.902   5.121   3.224
15077SOL     OW47127   5.016  13.389   2.516
15077SOL    HW147128   4.963  13.344   2.582
15077SOL    HW247129   5.088  13.329   2.499
15078SOL     OW47130  13.772   4.021   6.525
15078SOL    HW147131  13.816   3.936   6.524
15078SOL    HW247132  13.833   4.079   6.571
15079SOL     OW47133  13.642  13.895   5.722
15079SOL    HW147134  13.688  13.919   5.803
15079SOL    HW247135  13.694  13.936   5.652
15080SOL     OW47136  10.093  11.826  11.017
15080SOL    HW147137  10.085  11.846  11.110
15080SOL    HW247138  10.028  11.881  10.975
15081SOL     OW47139  10.234   4.873  14.017
15081SOL    HW147140  10.140   4.866  14.001
15081SOL    HW247141  10.274   4.808  13.959
15082SOL     OW47142   9.738   2.833   2.036
15082SOL    HW147143   9.713   2.924   2.051
15082SOL    HW247144   9.669   2.798   1.979
15083SOL     OW47145  14.813   6.928   4.034
15083SOL    HW147146  14.735   6.878   4.012
15083SOL    HW247147   0.012   6.886   3.984
15084SOL     OW47148   3.651   4.571   2.286
15084SOL    HW147149   3.616   4.636   2.226
15084SOL    HW247150   3.746   4.575   2.274
15085SOL     OW47151   8.665  14.073  12.839
15085SOL    HW147152   8.760  14.074  12.855
15085SOL    HW247153   8.656  14.118  12.754
15086SOL     OW47154   6.551   4.354   9.221
15086SOL    HW147155   6.571   4.430   9.276
15086SOL    HW247156   6.464   4.371   9.187
15087SOL     OW47157  11.074   7.386  10.217
15087SOL    HW147158  11.061   7.450  10.287
15087SOL    HW247159  11.101   7.438  10.141
15088SOL     OW47160   0.821  10.497   4.075
15088SOL    HW147161   0.842  10.430   4.010
15088SOL    HW247162   0.824  10.450   4.159
15089SOL     OW47163   1.172   5.384   7.002
15089SOL    HW147164   1.169   5.430   7.086
15089SOL    HW247165   1.092   5.411   6.957
15090SOL     OW47166   4.429   7.331  12.965
15090SOL    HW147167   4.425   7.241  12.995
15090SOL    HW247168   4.390   7.382  13.036
15091SOL     OW47169   9.385   7.976  12.880
15091SOL    HW147170   9.367   7.910  12.813
15091SOL    HW247171   9.393   7.926  12.962
15092SOL     OW47172   0.611   3.937   9.665
15092SOL    HW147173   0.644   3.979   9.585
15092SOL    HW247174   0.690   3.906   9.710
15093SOL     OW47175  11.896  10.725   7.267
15093SOL    HW147176  11.853  10.774   7.197
15093SOL    HW247177  11.909  10.790   7.337
15094SOL     OW47178  12.782   6.359   5.804
15094SOL    HW147179  12.831   6.294   5.855
15094SOL    HW247180  12.849   6.404   5.753
15095SOL     OW47181   5.849   8.456   8.532
15095SOL    HW147182   5.780   8.396   8.502
15095SOL    HW247183   5.839   8.458   8.627
15096SOL     OW47184   5.814   8.440  12.342
15096SOL    HW147185   5.896   8.467  12.301
15096SOL    HW247186   5.766   8.522  12.357
15097SOL     OW47187   1.556   5.898   0.776
15097SOL    HW147188   1.508   5.944   0.845
15097SOL    HW247189   1.647   5.902   0.805
15098SOL     OW47190   9.794   2.083   9.228
15098SOL    HW147191   9.844   2.137   9.167
15098SOL    HW247192   9.860   2.053   9.291
15099SOL     OW47193  13.669  12.271  14.030
15099SOL    HW147194  13.671  12.239  13.940
15099SOL    HW247195  13.692  12.195  14.083
15100SOL     OW47196  14.745  10.482  11.412
15100SOL    HW147197  14.706  10.419  11.351
15100SOL    HW247198  14.839  10.463  11.410
15101SOL     OW47199  10.524  14.830   0.835
15101SOL    HW147200  10.454  14.799   0.777
15101SOL    HW247201  10.487  14.820   0.923
15102SOL     OW47202   0.377   4.344  12.092
15102SOL    HW147203   0.463   4.345  12.135
15102SOL    HW247204   0.327   4.277  12.138
15103SOL     OW47205   6.773  14.047   5.871
15103SOL    HW147206   6.697  14.101   5.852
15103SOL    HW247207   6.749  13.960   5.839
15104SOL     OW47208   8.530  13.835   5.613
15104SOL    HW147209   8.472  13.902   5.578
15104SOL    HW247210   8.471  13.769   5.649
15105SOL     OW47211  12.835   4.166  11.207
15105SOL    HW147212  12.922   4.143  11.240
15105SOL    HW247213  12.835   4.136  11.116
15106SOL     OW47214   8.404   1.661   5.911
15106SOL    HW147215   8.315   1.665   5.877
15106SOL    HW247216   8.398   1.608   5.990
15107SOL     OW47217   0.548   6.005   4.979
15107SOL    HW147218   0.600   5.936   5.021
15107SOL    HW247219   0.485   6.032   5.046
15108SOL     OW47220   0.339   1.998  12.543
15108SOL    HW147221   0.403   2.037  12.604
15108SOL    HW247222   0.390   1.978  12.465
15109SOL     OW47223   2.988   4.701   3.101
15109SOL    HW147224   3.038   4.699   3.019
15109SOL    HW247225   2.958   4.611   3.113
15110SOL     OW47226   1.405  12.279   8.831
15110SOL    HW147227   1.339  12.330   8.784
15110SOL    HW247228   1.475  12.264   8.767
15111SOL     OW47229   7.638   0.810   5.759
15111SOL    HW147230   7.590   0.729   5.745
15111SOL    HW247231   7.672   0.834   5.673
15112SOL     OW47232   0.925   7.296  13.816
15112SOL    HW147233   0.993   7.229  13.807
15112SOL    HW247234   0.843   7.246  13.824
15113SOL     OW47235   3.334   8.753  12.804
15113SOL    HW147236   3.401   8.758  12.736
15113SOL    HW247237   3.383   8.757  12.886
15114SOL     OW47238   9.169  14.412   8.804
15114SOL    HW147239   9.140  14.358   8.877
15114SOL    HW247240   9.104  14.482   8.798
15115SOL     OW47241  10.993   6.688  14.840
15115SOL    HW147242  10.959   6.777  14.831
15115SOL    HW247243  10.957   6.641  14.765
15116SOL     OW47244   6.132   1.595   2.805
15116SOL    HW147245   6.174   1.547   2.876
15116SOL    HW247246   6.177   1.680   2.803
15117SOL     OW47247   6.569  10.460   4.947
15117SOL    HW147248   6.489  10.466   5.000
15117SOL    HW247249   6.640  10.470   5.011
15118SOL     OW47250   7.392  12.896  11.440
15118SOL    HW147251   7.472  12.862  11.399
15118SOL    HW247252   7.380  12.842  11.518
15119SOL     OW47253  10.682  10.939   4.026
15119SOL    HW147254  10.658  10.931   4.118
15119SOL    HW247255  10.764  10.989   4.027
15120SOL     OW47256   7.693  14.352  14.127
15120SOL    HW147257   7.772  14.396  14.159
15120SOL    HW247258   7.700  14.263  14.161
15121SOL     OW47259   3.663   9.293  13.963
15121SOL    HW147260   3.720   9.370  13.961
15121SOL    HW247261   3.592   9.313  13.903
15122SOL     OW47262   4.064   4.683   6.866
15122SOL    HW147263   4.036   4.627   6.939
15122SOL    HW247264   3.998   4.752   6.862
15123SOL     OW47265   3.196   8.241   3.770
15123SOL    HW147266   3.284   8.271   3.748
15123SOL    HW247267   3.183   8.163   3.717
15124SOL     OW47268   8.122   8.574  10.963
15124SOL    HW147269   8.167   8.489  10.965
15124SOL    HW247270   8.120   8.601  11.055
15125SOL     OW47271   2.451   7.019  13.727
15125SOL    HW147272   2.434   7.111  13.745
15125SOL    HW247273   2.526   7.020  13.668
15126SOL     OW47274   2.830  12.641   2.020
15126SOL    HW147275   2.917  12.631   1.982
15126SOL    HW247276   2.778  12.571   1.980
15127SOL     OW47277  14.227   1.613   1.609
15127SOL    HW147278  14.300   1.656   1.565
15127SOL    HW247279  14.255   1.606   1.700
15128SOL     OW47280   9.167  12.629   3.047
15128SOL    HW147281   9.129  12.550   3.086
15128SOL    HW247282   9.234  12.596   2.987
15129SOL     OW47283   9.605  14.799  10.413
15129SOL    HW147284   9.514  14.821  10.397
15129SOL    HW247285   9.655  14.867  10.367
15130SOL     OW47286   7.216   6.969   3.206
15130SOL    HW147287   7.178   6.989   3.291
15130SOL    HW247288   7.270   6.891   3.222
15131SOL     OW47289   9.882   5.811  12.311
15131SOL    HW147290   9.925   5.855  12.385
15131SOL    HW247291   9.814   5.872  12.283
15132SOL     OW47292   1.095   8.381   5.874
15132SOL    HW147293   1.024   8.336   5.921
15132SOL    HW247294   1.075   8.474   5.885
15133SOL     OW47295  12.967   3.148   6.722
15133SOL    HW147296  12.914   3.167   6.645
15133SOL    HW247297  12.998   3.234   6.752
15134SOL     OW47298   8.471   2.311  10.148
15134SOL    HW147299   8.497   2.229  10.106
15134SOL    HW247300   8.548   2.337  10.198
15135SOL     OW47301   6.598  10.219   8.228
15135SOL    HW147302   6.594  10.124   8.245
15135SOL    HW247303   6.538  10.232   8.154
15136SOL     OW47304   7.102   9.569   9.212
15136SOL    HW147305   7.021   9.518   9.215
15136SOL    HW247306   7.149   9.544   9.291
15137SOL     OW47307   7.308   4.494  13.153
15137SOL    HW147308   7.258   4.414  13.166
15137SOL    HW247309   7.397   4.471  13.181
15138SOL     OW47310  11.170   2.567   7.108
15138SOL    HW147311  11.178   2.531   7.020
15138SOL    HW247312  11.212   2.653   7.103
15139SOL     OW47313   6.802  10.725  12.259
15139SOL    HW147314   6.753  10.650  12.226
15139SOL    HW247315   6.859  10.689  12.326
15140SOL     OW47316   9.507  12.315  10.952
15140SOL    HW147317   9.431  12.258  10.960
15140SOL    HW247318   9.582  12.256  10.963
15141SOL     OW47319   0.156  10.225   8.594
15141SOL    HW147320   0.180  10.310   8.630
15141SOL    HW247321   0.149  10.240   8.500
15142SOL     OW47322   8.169   4.010   3.441
15142SOL    HW147323   8.153   4.006   3.347
15142SOL    HW247324   8.183   3.918   3.467
15143SOL     OW47325   6.037   4.252   9.712
15143SOL    HW147326   5.985   4.207   9.779
15143SOL    HW247327   5.975   4.267   9.640
15144SOL     OW47328  12.871   3.863   6.878
15144SOL    HW147329  12.889   3.918   6.802
15144SOL    HW247330  12.840   3.781   6.840
15145SOL     OW47331   7.607   7.065   8.532
15145SOL    HW147332   7.539   7.119   8.492
15145SOL    HW247333   7.570   6.976   8.531
15146SOL     OW47334   3.533  12.616   8.818
15146SOL    HW147335   3.614  12.648   8.777
15146SOL    HW247336   3.556  12.607   8.911
15147SOL     OW47337   2.218  11.561   7.387
15147SOL    HW147338   2.279  11.628   7.356
15147SOL    HW247339   2.268  11.479   7.381
15148SOL     OW47340   4.321   8.069   2.497
15148SOL    HW147341   4.304   8.060   2.403
15148SOL    HW247342   4.237   8.096   2.534
15149SOL     OW47343   1.671   5.759  11.982
15149SOL    HW147344   1.763   5.733  11.978
15149SOL    HW247345   1.671   5.851  11.955
15150SOL     OW47346   0.508   7.002   1.780
15150SOL    HW147347   0.562   7.002   1.859
15150SOL    HW247348   0.449   7.077   1.792
15151SOL     OW47349  10.735   3.225   5.267
15151SOL    HW147350  10.653   3.261   5.232
15151SOL    HW247351  10.755   3.280   5.343
15152SOL     OW47352   9.914  11.342   8.411
15152SOL    HW147353   9.944  11.403   8.478
15152SOL    HW247354   9.896  11.398   8.335
15153SOL     OW47355   0.775  12.455  10.819
15153SOL    HW147356   0.728  12.538  10.814
15153SOL    HW247357   0.756  12.421  10.907
15154SOL     OW47358  14.157  10.310  10.535
15154SOL    HW147359  14.076  10.340  10.494
15154SOL    HW247360  14.129  10.280  10.622
15155SOL     OW47361  14.700  12.089   8.766
15155SOL    HW147362  14.795  12.090   8.762
15155SOL    HW247363  14.673  12.158   8.705
15156SOL     OW47364  14.034  12.541   3.067
15156SOL    HW147365  13.967  12.524   3.001
15156SOL    HW247366  14.088  12.611   3.030
15157SOL     OW47367   1.679  13.263   2.037
15157SOL    HW147368   1.590  13.242   2.068
15157SOL    HW247369   1.731  13.266   2.117
15158SOL     OW47370  14.525  14.005   3.967
15158SOL    HW147371  14.551  13.935   3.908
15158SOL    HW247372  14.556  13.977   4.053
15159SOL     OW47373   1.994   6.304   1.294
15159SOL    HW147374   2.087   6.291   1.313
15159SOL    HW247375   1.980   6.258   1.211
15160SOL     OW47376   6.551  13.337   9.985
15160SOL    HW147377   6.479  13.339  10.048
15160SOL    HW247378   6.517  13.381   9.907
15161SOL     OW47379  11.685  11.527   9.269
15161SOL    HW147380  11.663  11.593   9.203
15161SOL    HW247381  11.749  11.570   9.326
15162SOL     OW47382   8.952   3.543   5.856
15162SOL    HW147383   8.922   3.483   5.925
15162SOL    HW247384   8.871   3.580   5.821
15163SOL     OW47385   4.502   2.618   7.745
15163SOL    HW147386   4.553   2.568   7.681
15163SOL    HW247387   4.567   2.668   7.794
15164SOL     OW47388   7.986   0.105  10.122
15164SOL    HW147389   7.896   0.080  10.144
15164SOL    HW247390   7.976   0.173  10.055
15165SOL     OW47391  13.942   3.947  13.753
15165SOL    HW147392  14.003   4.015  13.726
15165SOL    HW247393  13.890   3.930  13.674
15166SOL     OW47394   9.077   4.287   2.226
15166SOL    HW147395   9.115   4.223   2.287
15166SOL    HW247396   9.112   4.371   2.254
15167SOL     OW47397   3.697   0.094  13.603
15167SOL    HW147398   3.747   0.164  13.561
15167SOL    HW247399   3.619   0.138  13.638
15168SOL     OW47400   9.589   1.283  13.684
15168SOL    HW147401   9.519   1.277  13.750
15168SOL    HW247402   9.667   1.305  13.734
15169SOL     OW47403   2.186  14.199  14.651
15169SOL    HW147404   2.262  14.201  14.709
15169SOL    HW247405   2.223  14.216  14.564
15170SOL     OW47406  11.161   4.675   3.027
15170SOL    HW147407  11.085   4.620   3.007
15170SOL    HW247408  11.148   4.700   3.119
15171SOL     OW47409   0.595   4.269   3.524
15171SOL    HW147410   0.511   4.286   3.482
15171SOL    HW247411   0.591   4.176   3.547
15172SOL     OW47412   0.501   6.403   3.265
15172SOL    HW147413   0.578   6.346   3.279
15172SOL    HW247414   0.457   6.404   3.350
15173SOL     OW47415   8.883   1.847   8.226
15173SOL    HW147416   8.899   1.918   8.288
15173SOL    HW247417   8.851   1.891   8.147
15174SOL     OW47418  12.164   0.552   1.810
15174SOL    HW147419  12.071   0.553   1.788
15174SOL    HW247420  12.205   0.606   1.742
15175SOL     OW47421   9.830   1.948   9.983
15175SOL    HW147422   9.810   2.003   9.907
15175SOL    HW247423   9.922   1.965  10.001
15176SOL     OW47424   0.527   5.940   4.727
15176SOL    HW147425   0.519   5.958   4.820
15176SOL    HW247426   0.513   6.025   4.685
15177SOL     OW47427   6.438  12.023  14.302
15177SOL    HW147428   6.450  11.950  14.363
15177SOL    HW247429   6.362  11.998  14.249
15178SOL     OW47430   6.458   7.347   4.036
15178SOL    HW147431   6.429   7.399   3.961
15178SOL    HW247432   6.524   7.287   4.000
15179SOL     OW47433   0.379  14.352   8.403
15179SOL    HW147434   0.393  14.309   8.488
15179SOL    HW247435   0.293  14.392   8.411
15180SOL     OW47436  11.723   4.668   8.371
15180SOL    HW147437  11.711   4.657   8.276
15180SOL    HW247438  11.665   4.739   8.395
15181SOL     OW47439  12.677  10.011  13.371
15181SOL    HW147440  12.772  10.000  13.363
15181SOL    HW247441  12.647   9.927  13.406
15182SOL     OW47442  14.442   9.313   5.497
15182SOL    HW147443  14.382   9.245   5.468
15182SOL    HW247444  14.495   9.271   5.565
15183SOL     OW47445   4.308  10.631   5.259
15183SOL    HW147446   4.310  10.536   5.259
15183SOL    HW247447   4.323  10.656   5.350
15184SOL     OW47448  11.092  10.758   6.722
15184SOL    HW147449  11.040  10.834   6.748
15184SOL    HW247450  11.140  10.788   6.644
15185SOL     OW47451   7.677   3.298   7.502
15185SOL    HW147452   7.636   3.371   7.457
15185SOL    HW247453   7.754   3.276   7.449
15186SOL     OW47454   9.948  10.454  11.002
15186SOL    HW147455   9.963  10.533  11.053
15186SOL    HW247456   9.854  10.453  10.985
15187SOL     OW47457  12.973   5.945   7.507
15187SOL    HW147458  13.037   5.997   7.458
15187SOL    HW247459  13.023   5.908   7.580
15188SOL     OW47460   2.582  13.029   1.069
15188SOL    HW147461   2.656  12.976   1.096
15188SOL    HW247462   2.597  13.047   0.977
15189SOL     OW47463   1.090   5.629  10.433
15189SOL    HW147464   1.042   5.669  10.506
15189SOL    HW247465   1.153   5.570  10.475
15190SOL     OW47466   4.640   1.003   7.761
15190SOL    HW147467   4.729   0.977   7.735
15190SOL    HW247468   4.654   1.060   7.837
15191SOL     OW47469  11.222   3.769   8.417
15191SOL    HW147470  11.226   3.689   8.365
15191SOL    HW247471  11.313   3.798   8.422
15192SOL     OW47472   7.921   0.388  12.632
15192SOL    HW147473   7.851   0.448  12.658
15192SOL    HW247474   7.996   0.413  12.685
15193SOL     OW47475   9.174   3.061   0.956
15193SOL    HW147476   9.163   2.983   0.901
15193SOL    HW247477   9.091   3.067   1.004
15194SOL     OW47478  10.506   7.024  11.069
15194SOL    HW147479  10.469   6.936  11.078
15194SOL    HW247480  10.533   7.030  10.977
15195SOL     OW47481   6.429   3.741   0.952
15195SOL    HW147482   6.512   3.736   0.906
15195SOL    HW247483   6.408   3.650   0.974
15196SOL     OW47484   9.601  10.772   0.239
15196SOL    HW147485   9.663  10.789   0.168
15196SOL    HW247486   9.602  10.851   0.292
15197SOL     OW47487   7.469   4.817  13.224
15197SOL    HW147488   7.485   4.910  13.210
15197SOL    HW247489   7.445   4.784  13.137
15198SOL     OW47490  11.835   8.252   7.977
15198SOL    HW147491  11.847   8.347   7.979
15198SOL    HW247492  11.902   8.220   7.917
15199SOL     OW47493   0.506   8.802  14.514
15199SOL    HW147494   0.444   8.832  14.447
15199SOL    HW247495   0.467   8.721  14.548
15200SOL     OW47496  14.362   9.739  10.991
15200SOL    HW147497  14.417   9.728  11.068
15200SOL    HW247498  14.326   9.827  10.999
15201SOL     OW47499   0.322  10.511   3.108
15201SOL    HW147500   0.317  10.606   3.118
15201SOL    HW247501   0.231  10.482   3.117
15202SOL     OW47502  13.628  13.834  10.129
15202SOL    HW147503  13.690  13.822  10.201
15202SOL    HW247504  13.582  13.750  10.124
15203SOL     OW47505  12.422   6.402   7.372
15203SOL    HW147506  12.367   6.324   7.380
15203SOL    HW247507  12.470   6.389   7.290
15204SOL     OW47508  12.302   8.107   8.442
15204SOL    HW147509  12.309   8.163   8.520
15204SOL    HW247510  12.256   8.161   8.378
15205SOL     OW47511  10.395  10.788   6.819
15205SOL    HW147512  10.302  10.800   6.835
15205SOL    HW247513  10.436  10.867   6.855
15206SOL     OW47514   0.280   2.049   7.993
15206SOL    HW147515   0.196   2.075   8.030
15206SOL    HW247516   0.265   2.044   7.899
15207SOL     OW47517  13.593   8.444   3.219
15207SOL    HW147518  13.529   8.385   3.179
15207SOL    HW247519  13.542   8.519   3.248
15208SOL     OW47520  11.572   6.736  10.921
15208SOL    HW147521  11.598   6.660  10.973
15208SOL    HW247522  11.654   6.780  10.900
15209SOL     OW47523   8.665   9.774   6.666
15209SOL    HW147524   8.658   9.862   6.703
15209SOL    HW247525   8.723   9.727   6.725
15210SOL     OW47526   6.624  14.586   7.239
15210SOL    HW147527   6.664  14.654   7.186
15210SOL    HW247528   6.664  14.505   7.208
15211SOL     OW47529   7.637  13.573   2.758
15211SOL    HW147530   7.661  13.524   2.680
15211SOL    HW247531   7.714  13.627   2.777
15212SOL     OW47532   7.482   5.790  11.792
15212SOL    HW147533   7.576   5.791  11.773
15212SOL    HW247534   7.461   5.697  11.804
15213SOL     OW47535   4.752  10.298   4.704
15213SOL    HW147536   4.739  10.362   4.634
15213SOL    HW247537   4.696  10.328   4.775
15214SOL     OW47538   4.505   2.243  10.665
15214SOL    HW147539   4.515   2.315  10.726
15214SOL    HW247540   4.594   2.224  10.635
15215SOL     OW47541   1.150   6.433  10.183
15215SOL    HW147542   1.161   6.454  10.090
15215SOL    HW247543   1.164   6.339  10.189
15216SOL     OW47544  10.183   1.027  10.743
15216SOL    HW147545  10.127   1.016  10.666
15216SOL    HW247546  10.272   1.027  10.708
15217SOL     OW47547  14.780   7.609   0.394
15217SOL    HW147548  14.735   7.633   0.313
15217SOL    HW247549  14.755   7.677   0.457
15218SOL     OW47550   4.168  10.805   5.519
15218SOL    HW147551   4.174  10.880   5.460
15218SOL    HW247552   4.089  10.822   5.571
15219SOL     OW47553   6.924   7.736   2.390
15219SOL    HW147554   6.941   7.802   2.457
15219SOL    HW247555   7.006   7.687   2.383
15220SOL     OW47556   6.958   5.936   2.722
15220SOL    HW147557   6.939   5.866   2.784
15220SOL    HW247558   6.981   5.890   2.641
15221SOL     OW47559   0.602   1.765   9.458
15221SOL    HW147560   0.596   1.716   9.376
15221SOL    HW247561   0.521   1.744   9.505
15222SOL     OW47562   2.134   1.770  12.522
15222SOL    HW147563   2.202   1.728  12.575
15222SOL    HW247564   2.182   1.831  12.466
15223SOL     OW47565   8.795   6.519   2.516
15223SOL    HW147566   8.701   6.538   2.510
15223SOL    HW247567   8.837   6.597   2.479
15224SOL     OW47568   0.007   7.937  13.923
15224SOL    HW147569   0.022   8.010  13.983
15224SOL    HW247570  14.799   7.961  13.875
15225SOL     OW47571   3.403   9.734   5.529
15225SOL    HW147572   3.454   9.696   5.600
15225SOL    HW247573   3.465   9.787   5.480
15226SOL     OW47574   6.001  10.938   7.555
15226SOL    HW147575   6.023  10.864   7.611
15226SOL    HW247576   6.003  11.014   7.613
15227SOL     OW47577   6.017   8.107   6.326
15227SOL    HW147578   5.959   8.040   6.362
15227SOL    HW247579   5.995   8.186   6.375
15228SOL     OW47580   7.101   3.303   5.960
15228SOL    HW147581   7.098   3.309   6.055
15228SOL    HW247582   7.194   3.308   5.938
15229SOL     OW47583   1.254   3.867   0.700
15229SOL    HW147584   1.272   3.773   0.697
15229SOL    HW247585   1.308   3.903   0.630
15230SOL     OW47586  11.353   3.122   8.221
15230SOL    HW147587  11.264   3.122   8.185
15230SOL    HW247588  11.342   3.155   8.310
15231SOL     OW47589   1.319   5.833   2.158
15231SOL    HW147590   1.318   5.926   2.181
15231SOL    HW247591   1.406   5.803   2.186
15232SOL     OW47592  10.560   6.417  12.303
15232SOL    HW147593  10.577   6.401  12.210
15232SOL    HW247594  10.645   6.441  12.339
15233SOL     OW47595  13.120  12.183   8.781
15233SOL    HW147596  13.169  12.140   8.711
15233SOL    HW247597  13.033  12.142   8.778
15234SOL     OW47598   4.042  11.319  14.749
15234SOL    HW147599   4.045  11.350  14.839
15234SOL    HW247600   3.996  11.235  14.753
15235SOL     OW47601   1.824   8.004  11.096
15235SOL    HW147602   1.793   7.914  11.103
15235SOL    HW247603   1.920   7.997  11.102
15236SOL     OW47604  10.235   5.559   0.319
15236SOL    HW147605  10.267   5.527   0.235
15236SOL    HW247606  10.148   5.521   0.328
15237SOL     OW47607   3.212   3.632  10.428
15237SOL    HW147608   3.129   3.677  10.414
15237SOL    HW247609   3.222   3.628  10.523
15238SOL     OW47610   7.830  12.926  12.524
15238SOL    HW147611   7.737  12.926  12.505
15238SOL    HW247612   7.842  12.859  12.591
15239SOL     OW47613   5.106   2.657   6.491
15239SOL    HW147614   5.169   2.592   6.519
15239SOL    HW247615   5.140   2.740   6.526
15240SOL     OW47616   7.371  11.491   6.036
15240SOL    HW147617   7.344  11.400   6.021
15240SOL    HW247618   7.291  11.542   6.027
15241SOL     OW47619   7.021  11.496   3.289
15241SOL    HW147620   7.084  11.455   3.348
15241SOL    HW247621   7.063  11.495   3.203
15242SOL     OW47622  14.367  14.174   0.700
15242SOL    HW147623  14.280  14.144   0.726
15242SOL    HW247624  14.350  14.240   0.633
15243SOL     OW47625  12.183   0.539  12.737
15243SOL    HW147626  12.106   0.565  12.788
15243SOL    HW247627  12.154   0.462  12.688
15244SOL     OW47628  12.624   0.185  14.168
15244SOL    HW147629  12.539   0.224  14.185
15244SOL    HW247630  12.651   0.147  14.251
15245SOL     OW47631   8.228   8.020   2.645
15245SOL    HW147632   8.231   8.110   2.679
15245SOL    HW247633   8.174   7.972   2.708
15246SOL     OW47634   0.689   1.290   9.203
15246SOL    HW147635   0.690   1.266   9.110
15246SOL    HW247636   0.657   1.211   9.247
15247SOL     OW47637   9.883   6.988  11.397
15247SOL    HW147638   9.947   7.059  11.385
15247SOL    HW247639   9.804   7.032  11.428
15248SOL     OW47640   3.666   5.874   3.031
15248SOL    HW147641   3.602   5.935   2.994
15248SOL    HW247642   3.693   5.914   3.114
15249SOL     OW47643   2.006   6.503   5.595
15249SOL    HW147644   2.055   6.582   5.617
15249SOL    HW247645   2.040   6.477   5.509
15250SOL     OW47646  11.431   8.097   5.633
15250SOL    HW147647  11.395   8.014   5.665
15250SOL    HW247648  11.356   8.157   5.635
15251SOL     OW47649   4.203   9.747   7.811
15251SOL    HW147650   4.200   9.657   7.776
15251SOL    HW247651   4.193   9.736   7.905
15252SOL     OW47652  12.852   9.619   5.764
15252SOL    HW147653  12.792   9.687   5.733
15252SOL    HW247654  12.897   9.660   5.838
15253SOL     OW47655   1.739  12.229   3.569
15253SOL    HW147656   1.764  12.167   3.500
15253SOL    HW247657   1.767  12.314   3.537
15254SOL     OW47658   3.894   4.634  10.899
15254SOL    HW147659   3.838   4.558  10.883
15254SOL    HW247660   3.977   4.597  10.929
15255SOL     OW47661  13.307   3.731   3.166
15255SOL    HW147662  13.280   3.646   3.131
15255SOL    HW247663  13.357   3.771   3.095
15256SOL     OW47664  10.123   8.762   0.028
15256SOL    HW147665  10.061   8.690   0.027
15256SOL    HW247666  10.157   8.764   0.118
15257SOL     OW47667  12.845   2.763   1.795
15257SOL    HW147668  12.924   2.791   1.842
15257SOL    HW247669  12.813   2.844   1.754
15258SOL     OW47670   6.166  12.220  12.641
15258SOL    HW147671   6.226  12.222  12.715
15258SOL    HW247672   6.144  12.128  12.630
15259SOL     OW47673   4.613   1.636   0.641
15259SOL    HW147674   4.671   1.562   0.661
15259SOL    HW247675   4.597   1.677   0.726
15260SOL     OW47676   0.434  10.527   4.165
15260SOL    HW147677   0.479  10.482   4.236
15260SOL    HW247678   0.345  10.492   4.166
15261SOL     OW47679  11.812  11.770  13.423
15261SOL    HW147680  11.769  11.815  13.351
15261SOL    HW247681  11.889  11.729  13.384
15262SOL     OW47682  12.636   7.368  13.711
15262SOL    HW147683  12.631   7.463  13.723
15262SOL    HW247684  12.563   7.347  13.654
15263SOL     OW47685   3.025   2.364   9.000
15263SOL    HW147686   3.069   2.442   8.966
15263SOL    HW247687   2.990   2.321   8.922
15264SOL     OW47688   0.545  12.173   4.685
15264SOL    HW147689   0.517  12.215   4.766
15264SOL    HW247690   0.500  12.221   4.615
15265SOL     OW47691   5.873   5.498   7.408
15265SOL    HW147692   5.881   5.491   7.313
15265SOL    HW247693   5.802   5.437   7.430
15266SOL     OW47694  11.702  13.801   6.485
15266SOL    HW147695  11.619  13.754   6.479
15266SOL    HW247696  11.717  13.833   6.396
15267SOL     OW47697   3.248   4.866   1.728
15267SOL    HW147698   3.306   4.932   1.690
15267SOL    HW247699   3.160   4.900   1.711
15268SOL     OW47700   3.460  11.243  11.847
15268SOL    HW147701   3.412  11.169  11.883
15268SOL    HW247702   3.550  11.231  11.877
15269SOL     OW47703   0.802  10.826  12.934
15269SOL    HW147704   0.861  10.841  12.860
15269SOL    HW247705   0.732  10.771  12.898
15270SOL     OW47706   6.588   0.911   6.346
15270SOL    HW147707   6.608   0.950   6.432
15270SOL    HW247708   6.621   0.974   6.283
15271SOL     OW47709  12.633  13.058   2.986
15271SOL    HW147710  12.659  13.126   2.924
15271SOL    HW247711  12.713  13.008   3.003
15272SOL     OW47712   3.290   5.238   2.621
15272SOL    HW147713   3.260   5.157   2.578
15272SOL    HW247714   3.375   5.215   2.658
15273SOL     OW47715   2.993   4.696   2.826
15273SOL    HW147716   2.928   4.630   2.802
15273SOL    HW247717   2.957   4.778   2.794
15274SOL     OW47718  13.935  10.304   2.171
15274SOL    HW147719  13.881  10.317   2.249
15274SOL    HW247720  14.008  10.365   2.182
15275SOL     OW47721  11.804   7.172   7.603
15275SOL    HW147722  11.771   7.257   7.631
15275SOL    HW247723  11.768   7.159   7.515
15276SOL     OW47724  10.254   8.120  11.102
15276SOL    HW147725  10.253   8.193  11.039
15276SOL    HW247726  10.260   8.042  11.047
15277SOL     OW47727  10.738   9.445  13.946
15277SOL    HW147728  10.827   9.476  13.963
15277SOL    HW247729  10.727   9.371  14.005
15278SOL     OW47730   5.459   1.303   0.339
15278SOL    HW147731   5.418   1.346   0.264
15278SOL    HW247732   5.487   1.218   0.305
15279SOL     OW47733   7.246   4.089   0.616
15279SOL    HW147734   7.270   4.112   0.526
15279SOL    HW247735   7.330   4.079   0.661
15280SOL     OW47736  14.319   1.215   0.281
15280SOL    HW147737  14.372   1.164   0.342
15280SOL    HW247738  14.251   1.256   0.335
15281SOL     OW47739  10.280   0.366   6.153
15281SOL    HW147740  10.222   0.428   6.195
15281SOL    HW247741  10.356   0.359   6.212
15282SOL     OW47742  10.299   8.921   8.721
15282SOL    HW147743  10.210   8.930   8.755
15282SOL    HW247744  10.352   8.905   8.799
15283SOL     OW47745  12.831  14.608  12.212
15283SOL    HW147746  12.764  14.671  12.188
15283SOL    HW247747  12.892  14.608  12.138
15284SOL     OW47748   1.513   8.550  12.100
15284SOL    HW147749   1.436   8.593  12.065
15284SOL    HW247750   1.584   8.614  12.089
15285SOL     OW47751   8.540   6.514   7.038
15285SOL    HW147752   8.475   6.583   7.025
15285SOL    HW247753   8.501   6.458   7.105
15286SOL     OW47754   2.793   9.926  12.493
15286SOL    HW147755   2.833   9.854  12.444
15286SOL    HW247756   2.797  10.001  12.432
15287SOL     OW47757   3.573   4.878   2.921
15287SOL    HW147758   3.648   4.935   2.904
15287SOL    HW247759   3.593   4.837   3.006
15288SOL     OW47760   6.884   4.485   9.290
15288SOL    HW147761   6.897   4.394   9.316
15288SOL    HW247762   6.798   4.509   9.327
15289SOL     OW47763   7.309   7.532   1.670
15289SOL    HW147764   7.272   7.593   1.734
15289SOL    HW247765   7.397   7.566   1.654
15290SOL     OW47766  13.884   5.679   6.486
15290SOL    HW147767  13.922   5.645   6.568
15290SOL    HW247768  13.879   5.773   6.500
15291SOL     OW47769   6.988  14.156   0.880
15291SOL    HW147770   7.076  14.193   0.893
15291SOL    HW247771   6.966  14.117   0.964
15292SOL     OW47772   6.957  12.270   6.846
15292SOL    HW147773   6.918  12.233   6.925
15292SOL    HW247774   6.999  12.351   6.876
15293SOL     OW47775   6.601   9.502   7.805
15293SOL    HW147776   6.618   9.585   7.761
15293SOL    HW247777   6.536   9.458   7.749
15294SOL     OW47778  13.198   8.078   0.434
15294SOL    HW147779  13.150   8.023   0.372
15294SOL    HW247780  13.245   8.141   0.380
15295SOL     OW47781   9.449   1.344   6.191
15295SOL    HW147782   9.362   1.314   6.216
15295SOL    HW247783   9.509   1.295   6.248
15296SOL     OW47784   5.345   8.599   4.939
15296SOL    HW147785   5.275   8.535   4.932
15296SOL    HW247786   5.398   8.568   5.012
15297SOL     OW47787   2.163   8.014   9.109
15297SOL    HW147788   2.224   8.007   9.036
15297SOL    HW247789   2.198   8.085   9.163
15298SOL     OW47790   2.497   6.157   3.071
15298SOL    HW147791   2.535   6.181   2.987
15298SOL    HW247792   2.491   6.240   3.119
15299SOL     OW47793   2.880   7.056  11.586
15299SOL    HW147794   2.938   7.128  11.612
15299SOL    HW247795   2.887   6.994  11.659
15300SOL     OW47796   5.753   3.077   7.280
15300SOL    HW147797   5.786   3.167   7.289
15300SOL    HW247798   5.696   3.080   7.204
15301SOL     OW47799   9.423   4.105   8.244
15301SOL    HW147800   9.386   4.104   8.332
15301SOL    HW247801   9.347   4.108   8.186
15302SOL     OW47802   5.947   5.251   4.158
15302SOL    HW147803   5.867   5.198   4.156
15302SOL    HW247804   5.915   5.341   4.162
15303SOL     OW47805   2.485   9.321   1.973
15303SOL    HW147806   2.440   9.279   2.047
15303SOL    HW247807   2.565   9.269   1.962
15304SOL     OW47808   4.897   5.204  11.971
15304SOL    HW147809   4.917   5.119  11.930
15304SOL    HW247810   4.884   5.263  11.896
15305SOL     OW47811   0.076   7.079   6.311
15305SOL    HW147812   0.095   7.057   6.403
15305SOL    HW247813   0.156   7.122   6.281
15306SOL     OW47814   4.413   6.186   9.152
15306SOL    HW147815   4.385   6.114   9.209
15306SOL    HW247816   4.375   6.264   9.192
15307SOL     OW47817   7.222   5.445   4.218
15307SOL    HW147818   7.140   5.399   4.200
15307SOL    HW247819   7.196   5.530   4.251
15308SOL     OW47820  10.271   9.800  14.497
15308SOL    HW147821  10.232   9.832  14.579
15308SOL    HW247822  10.198   9.760  14.450
15309SOL     OW47823  12.189   4.623   6.585
15309SOL    HW147824  12.230   4.589   6.505
15309SOL    HW247825  12.211   4.716   6.585
15310SOL     OW47826   0.147  10.766   6.590
15310SOL    HW147827   0.232  10.723   6.593
15310SOL    HW247828   0.161  10.852   6.630
15311SOL     OW47829   9.886  14.766  12.182
15311SOL    HW147830   9.814  14.703  12.183
15311SOL    HW247831   9.941  14.738  12.109
15312SOL     OW47832   0.146   6.628   1.749
15312SOL    HW147833   0.062   6.622   1.795
15312SOL    HW247834   0.182   6.713   1.775
15313SOL     OW47835   6.690   4.179  10.166
15313SOL    HW147836   6.603   4.214  10.150
15313SOL    HW247837   6.746   4.256  10.174
15314SOL     OW47838   0.925   5.428  14.773
15314SOL    HW147839   0.952   5.392  14.857
15314SOL    HW247840   0.866   5.362  14.737
15315SOL     OW47841  13.920   4.169   6.683
15315SOL    HW147842  13.989   4.137   6.740
15315SOL    HW247843  13.961   4.241   6.634
15316SOL     OW47844  12.823  10.722   4.822
15316SOL    HW147845  12.776  10.729   4.739
15316SOL    HW247846  12.757  10.738   4.889
15317SOL     OW47847   2.617   1.145   5.266
15317SOL    HW147848   2.527   1.150   5.298
15317SOL    HW247849   2.668   1.194   5.331
15318SOL     OW47850   0.172  14.487   4.176
15318SOL    HW147851   0.090  14.533   4.159
15318SOL    HW247852   0.240  14.548   4.147
15319SOL     OW47853   4.067   7.840   9.008
15319SOL    HW147854   4.079   7.895   9.086
15319SOL    HW247855   3.973   7.825   9.004
15320SOL     OW47856   4.322   5.886   1.000
15320SOL    HW147857   4.228   5.883   1.021
15320SOL    HW247858   4.325   5.927   0.913
15321SOL     OW47859  12.438  12.672  12.504
15321SOL    HW147860  12.388  12.627  12.436
15321SOL    HW247861  12.513  12.710  12.459
15322SOL     OW47862   6.979  13.773   9.327
15322SOL    HW147863   7.020  13.732   9.251
15322SOL    HW247864   7.014  13.725   9.402
15323SOL     OW47865   6.218   0.926   7.095
15323SOL    HW147866   6.272   0.864   7.046
15323SOL    HW247867   6.182   0.985   7.029
15324SOL     OW47868   8.619   2.627   6.598
15324SOL    HW147869   8.547   2.591   6.649
15324SOL    HW247870   8.694   2.627   6.658
15325SOL     OW47871   2.079   3.522   8.446
15325SOL    HW147872   2.091   3.574   8.526
15325SOL    HW247873   2.167   3.491   8.424
15326SOL     OW47874  13.773  12.893   4.634
15326SOL    HW147875  13.856  12.938   4.622
15326SOL    HW247876  13.713  12.935   4.573
15327SOL     OW47877   2.173  12.445   3.133
15327SOL    HW147878   2.148  12.537   3.129
15327SOL    HW247879   2.143  12.415   3.219
15328SOL     OW47880   2.505   1.701   2.450
15328SOL    HW147881   2.589   1.720   2.494
15328SOL    HW247882   2.499   1.766   2.381
15329SOL     OW47883  11.116  11.429   4.671
15329SOL    HW147884  11.127  11.501   4.732
15329SOL    HW247885  11.022  11.423   4.656
15330SOL     OW47886  14.772  13.739  10.591
15330SOL    HW147887  14.728  13.734  10.676
15330SOL    HW247888  14.862  13.712  10.609
15331SOL     OW47889   6.383   7.666  14.181
15331SOL    HW147890   6.307   7.657  14.239
15331SOL    HW247891   6.353   7.723  14.110
15332SOL     OW47892  10.077   7.578  13.996
15332SOL    HW147893  10.106   7.667  13.975
15332SOL    HW247894   9.994   7.591  14.042
15333SOL     OW47895   0.150   1.121   9.409
15333SOL    HW147896   0.191   1.050   9.360
15333SOL    HW247897   0.181   1.201   9.366
15334SOL     OW47898   5.308  13.356   7.423
15334SOL    HW147899   5.352  13.306   7.493
15334SOL    HW247900   5.284  13.289   7.359
15335SOL     OW47901  12.762   5.433  12.124
15335SOL    HW147902  12.794   5.519  12.098
15335SOL    HW247903  12.805   5.372  12.065
15336SOL     OW47904   3.365   4.890  12.308
15336SOL    HW147905   3.446   4.842  12.324
15336SOL    HW247906   3.297   4.834  12.346
15337SOL     OW47907  14.585  13.313  11.276
15337SOL    HW147908  14.608  13.374  11.206
15337SOL    HW247909  14.520  13.255  11.236
15338SOL     OW47910  14.311  14.820   4.116
15338SOL    HW147911  14.270   0.024   4.073
15338SOL    HW247912  14.402  14.848   4.130
15339SOL     OW47913  13.472   0.633   1.300
15339SOL    HW147914  13.431   0.713   1.331
15339SOL    HW247915  13.556   0.630   1.345
15340SOL     OW47916   9.169   3.233  11.473
15340SOL    HW147917   9.253   3.191  11.455
15340SOL    HW247918   9.182   3.324  11.449
15341SOL     OW47919   9.979  13.733   6.233
15341SOL    HW147920   9.990  13.650   6.279
15341SOL    HW247921   9.978  13.798   6.303
15342SOL     OW47922   6.455   2.427   9.397
15342SOL    HW147923   6.492   2.409   9.483
15342SOL    HW247924   6.498   2.364   9.338
15343SOL     OW47925   9.669  11.303  14.189
15343SOL    HW147926   9.732  11.368  14.156
15343SOL    HW247927   9.603  11.296  14.119
15344SOL     OW47928  13.541  11.167  14.863
15344SOL    HW147929  13.522  11.075  14.845
15344SOL    HW247930  13.455  11.207   0.002
15345SOL     OW47931   8.307  13.307   8.128
15345SOL    HW147932   8.313  13.222   8.084
15345SOL    HW247933   8.259  13.289   8.209
15346SOL     OW47934   2.770   3.449  13.701
15346SOL    HW147935   2.678   3.471  13.687
15346SOL    HW247936   2.770   3.356  13.723
15347SOL     OW47937  12.046  10.714   4.022
15347SOL    HW147938  12.025  10.805   4.045
15347SOL    HW247939  12.142  10.713   4.016
15348SOL     OW47940  13.700   3.896   1.485
15348SOL    HW147941  13.778   3.883   1.431
15348SOL    HW247942  13.629   3.854   1.436
15349SOL     OW47943   9.742   4.642  12.174
15349SOL    HW147944   9.822   4.670  12.129
15349SOL    HW247945   9.679   4.712  12.155
15350SOL     OW47946   8.043  13.001  14.681
15350SOL    HW147947   8.012  12.911  14.694
15350SOL    HW247948   7.995  13.033  14.605
15351SOL     OW47949  11.000   9.646   0.858
15351SOL    HW147950  11.009   9.686   0.945
15351SOL    HW247951  11.088   9.651   0.820
15352SOL     OW47952   9.989   6.793   6.961
15352SOL    HW147953  10.037   6.830   6.887
15352SOL    HW247954   9.912   6.848   6.970
15353SOL     OW47955   6.031   4.437  13.103
15353SOL    HW147956   5.963   4.411  13.041
15353SOL    HW247957   6.110   4.448  13.049
15354SOL     OW47958   5.537   2.361   9.014
15354SOL    HW147959   5.502   2.325   8.933
15354SOL    HW247960   5.479   2.433   9.036
15355SOL     OW47961  12.923   7.981  13.569
15355SOL    HW147962  12.936   8.004  13.477
15355SOL    HW247963  12.977   7.902  13.582
15356SOL     OW47964  10.099  12.536  10.965
15356SOL    HW147965  10.194  12.532  10.961
15356SOL    HW247966  10.080  12.602  11.032
15357SOL     OW47967   7.385   1.784   5.762
15357SOL    HW147968   7.323   1.830   5.820
15357SOL    HW247969   7.468   1.789   5.808
15358SOL     OW47970   8.520  10.764   4.529
15358SOL    HW147971   8.538  10.817   4.451
15358SOL    HW247972   8.568  10.683   4.514
15359SOL     OW47973   8.756   4.974   9.312
15359SOL    HW147974   8.723   5.043   9.369
15359SOL    HW247975   8.817   5.020   9.254
15360SOL     OW47976   0.837   5.327   2.181
15360SOL    HW147977   0.922   5.308   2.142
15360SOL    HW247978   0.841   5.420   2.202
15361SOL     OW47979   2.626  12.481  10.019
15361SOL    HW147980   2.572  12.521  10.087
15361SOL    HW247981   2.641  12.552   9.956
15362SOL     OW47982  13.681   2.720  11.539
15362SOL    HW147983  13.697   2.745  11.630
15362SOL    HW247984  13.586   2.723  11.529
15363SOL     OW47985   5.013   5.926   7.562
15363SOL    HW147986   4.926   5.922   7.522
15363SOL    HW247987   5.016   5.850   7.620
15364SOL     OW47988   5.809   2.251   9.012
15364SOL    HW147989   5.717   2.275   9.004
15364SOL    HW247990   5.819   2.173   8.958
15365SOL     OW47991   2.973   8.629   5.820
15365SOL    HW147992   2.992   8.550   5.871
15365SOL    HW247993   3.057   8.675   5.815
15366SOL     OW47994   2.137  11.115   6.001
15366SOL    HW147995   2.069  11.148   6.059
15366SOL    HW247996   2.198  11.189   5.992
15367SOL     OW47997   8.934  11.107   3.869
15367SOL    HW147998   8.950  11.018   3.901
15367SOL    HW247999   8.853  11.099   3.819
15368SOL     OW48000   8.537  14.696   3.309
15368SOL    HW148001   8.617  14.690   3.256
15368SOL    HW248002   8.467  14.670   3.248
15369SOL     OW48003  13.396  12.830  10.182
15369SOL    HW148004  13.382  12.877  10.265
15369SOL    HW248005  13.464  12.880  10.137
15370SOL     OW48006   0.470  11.483   4.002
15370SOL    HW148007   0.387  11.476   3.956
15370SOL    HW248008   0.492  11.393   4.026
15371SOL     OW48009  11.504  13.575   0.700
15371SOL    HW148010  11.445  13.623   0.641
15371SOL    HW248011  11.545  13.509   0.644
15372SOL     OW48012   0.263   1.551  13.585
15372SOL    HW148013   0.277   1.564  13.678
15372SOL    HW248014   0.203   1.621  13.559
15373SOL     OW48015  12.557   2.914  12.638
15373SOL    HW148016  12.543   2.993  12.690
15373SOL    HW248017  12.520   2.843  12.691
15374SOL     OW48018  10.890   2.164   1.509
15374SOL    HW148019  10.903   2.102   1.437
15374SOL    HW248020  10.804   2.141   1.545
15375SOL     OW48021   9.020  12.874   4.831
15375SOL    HW148022   9.063  12.864   4.916
15375SOL    HW248023   9.043  12.794   4.783
15376SOL     OW48024  12.310   1.923   2.750
15376SOL    HW148025  12.384   1.979   2.726
15376SOL    HW248026  12.274   1.963   2.829
15377SOL     OW48027  10.430   4.070  14.560
15377SOL    HW148028  10.426   4.162  14.537
15377SOL    HW248029  10.342   4.049  14.589
15378SOL     OW48030  11.632  11.212  14.395
15378SOL    HW148031  11.723  11.185  14.405
15378SOL    HW248032  11.607  11.179  14.309
15379SOL     OW48033   8.871   2.861  13.940
15379SOL    HW148034   8.900   2.952  13.933
15379SOL    HW248035   8.836   2.855  14.029
15380SOL     OW48036  14.556   5.211   9.246
15380SOL    HW148037  14.485   5.204   9.183
15380SOL    HW248038  14.634   5.181   9.199
15381SOL     OW48039   1.318   5.196   8.963
15381SOL    HW148040   1.344   5.208   8.872
15381SOL    HW248041   1.396   5.158   9.005
15382SOL     OW48042  12.022   9.229   7.520
15382SOL    HW148043  12.028   9.181   7.602
15382SOL    HW248044  12.112   9.253   7.499
15383SOL     OW48045   2.305  12.409   4.651
15383SOL    HW148046   2.244  12.337   4.643
15383SOL    HW248047   2.382  12.382   4.600
15384SOL     OW48048   0.811  10.698  14.068
15384SOL    HW148049   0.863  10.776  14.048
15384SOL    HW248050   0.836  10.635  14.001
15385SOL     OW48051   8.294   8.622   6.800
15385SOL    HW148052   8.315   8.627   6.707
15385SOL    HW248053   8.213   8.671   6.809
15386SOL     OW48054   3.954  11.948   2.593
15386SOL    HW148055   4.017  11.878   2.573
15386SOL    HW248056   3.898  11.952   2.516
15387SOL     OW48057   7.939   6.979   5.643
15387SOL    HW148058   7.993   6.972   5.565
15387SOL    HW248059   7.864   6.922   5.625
15388SOL     OW48060   8.009   0.352   0.130
15388SOL    HW148061   8.056   0.354   0.213
15388SOL    HW248062   8.039   0.271   0.088
15389SOL     OW48063  10.996   7.850  13.825
15389SOL    HW148064  10.971   7.907  13.898
15389SOL    HW248065  10.915   7.805  13.801
15390SOL     OW48066   1.353   5.164   2.963
15390SOL    HW148067   1.277   5.215   2.934
15390SOL    HW248068   1.428   5.218   2.939
15391SOL     OW48069  11.977  14.163   1.271
15391SOL    HW148070  12.035  14.111   1.215
15391SOL    HW248071  11.946  14.100   1.337
15392SOL     OW48072   2.465   6.842   9.804
15392SOL    HW148073   2.416   6.884   9.733
15392SOL    HW248074   2.400   6.824   9.871
15393SOL     OW48075   3.621   6.515  13.426
15393SOL    HW148076   3.576   6.503  13.509
15393SOL    HW248077   3.615   6.431  13.382
15394SOL     OW48078   7.639   6.923   3.314
15394SOL    HW148079   7.611   6.996   3.259
15394SOL    HW248080   7.656   6.963   3.400
15395SOL     OW48081  11.546  14.347  11.818
15395SOL    HW148082  11.602  14.424  11.807
15395SOL    HW248083  11.473  14.362  11.759
15396SOL     OW48084   5.878  10.647  14.378
15396SOL    HW148085   5.826  10.575  14.413
15396SOL    HW248086   5.833  10.726  14.409
15397SOL     OW48087   1.377   1.159  10.592
15397SOL    HW148088   1.378   1.232  10.531
15397SOL    HW248089   1.441   1.182  10.658
15398SOL     OW48090   5.320   2.068   5.374
15398SOL    HW148091   5.231   2.033   5.370
15398SOL    HW248092   5.368   2.006   5.428
15399SOL     OW48093   4.958   9.231   9.617
15399SOL    HW148094   4.899   9.167   9.577
15399SOL    HW248095   4.900   9.295   9.658
15400SOL     OW48096  13.292  12.438  14.328
15400SOL    HW148097  13.243  12.505  14.376
15400SOL    HW248098  13.253  12.355  14.356
15401SOL     OW48099   9.301   8.086   1.787
15401SOL    HW148100   9.258   8.158   1.742
15401SOL    HW248101   9.276   8.096   1.879
15402SOL     OW48102   4.571   1.793  12.060
15402SOL    HW148103   4.651   1.775  12.109
15402SOL    HW248104   4.579   1.741  11.981
15403SOL     OW48105   7.559   6.824   8.926
15403SOL    HW148106   7.478   6.840   8.878
15403SOL    HW248107   7.619   6.893   8.897
15404SOL     OW48108  14.408   5.162   6.632
15404SOL    HW148109  14.399   5.186   6.540
15404SOL    HW248110  14.324   5.185   6.671
15405SOL     OW48111   9.518  10.151   0.079
15405SOL    HW148112   9.456  10.144   0.006
15405SOL    HW248113   9.477  10.098   0.148
15406SOL     OW48114   2.476   0.632  11.453
15406SOL    HW148115   2.499   0.587  11.534
15406SOL    HW248116   2.451   0.562  11.393
15407SOL     OW48117  13.852  10.828   0.791
15407SOL    HW148118  13.852  10.864   0.702
15407SOL    HW248119  13.898  10.745   0.783
15408SOL     OW48120   2.606   8.326   1.543
15408SOL    HW148121   2.652   8.410   1.545
15408SOL    HW248122   2.649   8.273   1.611
15409SOL     OW48123   0.898   6.672   0.513
15409SOL    HW148124   0.935   6.602   0.460
15409SOL    HW248125   0.817   6.636   0.548
15410SOL     OW48126   4.767   2.461   9.208
15410SOL    HW148127   4.834   2.393   9.211
15410SOL    HW248128   4.714   2.439   9.131
15411SOL     OW48129   4.314   4.460  10.300
15411SOL    HW148130   4.251   4.518  10.342
15411SOL    HW248131   4.364   4.423  10.372
15412SOL     OW48132   0.485  14.353   0.762
15412SOL    HW148133   0.463  14.323   0.850
15412SOL    HW248134   0.432  14.432   0.751
15413SOL     OW48135   0.055   9.443   0.857
15413SOL    HW148136   0.145   9.417   0.876
15413SOL    HW248137   0.050   9.444   0.761
15414SOL     OW48138   6.907   6.099   4.409
15414SOL    HW148139   6.874   6.186   4.430
15414SOL    HW248140   6.834   6.040   4.425
15415SOL     OW48141  12.301   8.247   9.825
15415SOL    HW148142  12.279   8.318   9.764
15415SOL    HW248143  12.229   8.247   9.888
15416SOL     OW48144  13.420   7.358   6.186
15416SOL    HW148145  13.379   7.291   6.242
15416SOL    HW248146  13.513   7.340   6.192
15417SOL     OW48147  13.691   9.097  11.837
15417SOL    HW148148  13.776   9.065  11.868
15417SOL    HW248149  13.673   9.173  11.891
15418SOL     OW48150  14.321  10.257  10.058
15418SOL    HW148151  14.391  10.320  10.079
15418SOL    HW248152  14.265  10.257  10.136
15419SOL     OW48153  11.017  11.215  11.892
15419SOL    HW148154  11.040  11.297  11.936
15419SOL    HW248155  11.019  11.149  11.962
15420SOL     OW48156   6.973  14.359   4.681
15420SOL    HW148157   6.964  14.294   4.751
15420SOL    HW248158   6.933  14.439   4.717
15421SOL     OW48159  13.959  12.809   1.308
15421SOL    HW148160  13.990  12.866   1.379
15421SOL    HW248161  13.989  12.852   1.228
15422SOL     OW48162   6.533   0.399  14.240
15422SOL    HW148163   6.499   0.321  14.283
15422SOL    HW248164   6.522   0.469  14.304
15423SOL     OW48165  10.374   1.335  12.242
15423SOL    HW148166  10.397   1.244  12.220
15423SOL    HW248167  10.279   1.339  12.232
15424SOL     OW48168  11.970   8.301   1.768
15424SOL    HW148169  11.884   8.271   1.738
15424SOL    HW248170  11.954   8.338   1.854
15425SOL     OW48171   5.354   1.678   1.050
15425SOL    HW148172   5.442   1.667   1.086
15425SOL    HW248173   5.333   1.770   1.063
15426SOL     OW48174  11.471   9.925   8.501
15426SOL    HW148175  11.458   9.874   8.421
15426SOL    HW248176  11.448   9.866   8.572
15427SOL     OW48177   7.563   7.445  14.851
15427SOL    HW148178   7.512   7.459  14.771
15427SOL    HW248179   7.640   7.501  14.840
15428SOL     OW48180   4.087  13.181   1.654
15428SOL    HW148181   4.094  13.221   1.568
15428SOL    HW248182   4.020  13.113   1.643
15429SOL     OW48183  10.089   7.076   4.787
15429SOL    HW148184  10.110   7.111   4.874
15429SOL    HW248185  10.086   7.153   4.730
15430SOL     OW48186   3.293   5.327   9.671
15430SOL    HW148187   3.269   5.411   9.631
15430SOL    HW248188   3.389   5.330   9.675
15431SOL     OW48189   0.841   9.179  12.231
15431SOL    HW148190   0.862   9.087  12.217
15431SOL    HW248191   0.760   9.193  12.181
15432SOL     OW48192  14.723   6.067   5.843
15432SOL    HW148193  14.774   6.080   5.763
15432SOL    HW248194  14.723   6.153   5.886
15433SOL     OW48195   4.620  10.840   1.642
15433SOL    HW148196   4.538  10.860   1.597
15433SOL    HW248197   4.615  10.747   1.662
15434SOL     OW48198   5.029  13.216   3.859
15434SOL    HW148199   5.038  13.179   3.947
15434SOL    HW248200   5.082  13.160   3.803
15435SOL     OW48201   7.945  10.819   2.846
15435SOL    HW148202   8.011  10.818   2.916
15435SOL    HW248203   7.993  10.793   2.768
15436SOL     OW48204  13.657  13.029   4.867
15436SOL    HW148205  13.673  12.976   4.789
15436SOL    HW248206  13.566  13.057   4.858
15437SOL     OW48207   5.686   7.927   5.222
15437SOL    HW148208   5.746   7.894   5.289
15437SOL    HW248209   5.609   7.869   5.228
15438SOL     OW48210   5.085  11.269  13.875
15438SOL    HW148211   5.171  11.234  13.899
15438SOL    HW248212   5.103  11.353  13.833
15439SOL     OW48213  13.875   5.523  10.663
15439SOL    HW148214  13.802   5.497  10.607
15439SOL    HW248215  13.854   5.612  10.692
15440SOL     OW48216   1.592   4.973   9.110
15440SOL    HW148217   1.619   4.887   9.077
15440SOL    HW248218   1.661   4.998   9.171
15441SOL     OW48219   8.914   1.945  11.105
15441SOL    HW148220   8.826   1.980  11.088
15441SOL    HW248221   8.960   2.015  11.151
15442SOL     OW48222   4.405   0.710   3.011
15442SOL    HW148223   4.427   0.627   2.969
15442SOL    HW248224   4.358   0.759   2.943
15443SOL     OW48225  12.156  13.499   7.691
15443SOL    HW148226  12.106  13.552   7.629
15443SOL    HW248227  12.105  13.419   7.701
15444SOL     OW48228   4.398  10.441   2.362
15444SOL    HW148229   4.348  10.516   2.332
15444SOL    HW248230   4.466  10.478   2.419
15445SOL     OW48231  11.899   1.311   8.126
15445SOL    HW148232  11.957   1.376   8.086
15445SOL    HW248233  11.829   1.300   8.062
15446SOL     OW48234  14.360   1.696  10.104
15446SOL    HW148235  14.357   1.661  10.193
15446SOL    HW248236  14.368   1.791  10.116
15447SOL     OW48237   6.112  11.280   9.065
15447SOL    HW148238   6.128  11.207   9.005
15447SOL    HW248239   6.027  11.259   9.105
15448SOL     OW48240   2.696   5.832   4.355
15448SOL    HW148241   2.620   5.830   4.413
15448SOL    HW248242   2.755   5.896   4.396
15449SOL     OW48243   3.775   5.246   4.257
15449SOL    HW148244   3.860   5.212   4.233
15449SOL    HW248245   3.720   5.234   4.179
15450SOL     OW48246   8.709   8.764  13.038
15450SOL    HW148247   8.639   8.815  13.078
15450SOL    HW248248   8.666   8.686  13.003
15451SOL     OW48249  14.207   9.655   2.563
15451SOL    HW148250  14.257   9.574   2.574
15451SOL    HW248251  14.121   9.636   2.599
15452SOL     OW48252  13.140   1.000   4.909
15452SOL    HW148253  13.212   0.940   4.926
15452SOL    HW248254  13.067   0.943   4.884
15453SOL     OW48255   6.152   7.380   4.663
15453SOL    HW148256   6.147   7.448   4.595
15453SOL    HW248257   6.081   7.401   4.723
15454SOL     OW48258   6.639   9.004  10.544
15454SOL    HW148259   6.672   9.067  10.608
15454SOL    HW248260   6.548   8.989  10.569
15455SOL     OW48261  10.329   0.652   7.666
15455SOL    HW148262  10.276   0.729   7.646
15455SOL    HW248263  10.281   0.608   7.735
15456SOL     OW48264  13.127   4.590   1.438
15456SOL    HW148265  13.089   4.542   1.364
15456SOL    HW248266  13.103   4.682   1.422
15457SOL     OW48267  12.810  12.177   0.173
15457SOL    HW148268  12.726  12.174   0.126
15457SOL    HW248269  12.819  12.268   0.199
15458SOL     OW48270   1.020  11.860  12.753
15458SOL    HW148271   0.990  11.851  12.843
15458SOL    HW248272   0.962  11.927  12.715
15459SOL     OW48273  14.546  10.207   0.370
15459SOL    HW148274  14.622  10.210   0.311
15459SOL    HW248275  14.540  10.115   0.395
15460SOL     OW48276   4.520   4.108   3.313
15460SOL    HW148277   4.550   4.111   3.404
15460SOL    HW248278   4.547   4.021   3.282
15461SOL     OW48279  13.333  10.642   9.020
15461SOL    HW148280  13.299  10.610   8.937
15461SOL    HW248281  13.307  10.575   9.084
15462SOL     OW48282   2.400  13.948   2.498
15462SOL    HW148283   2.382  13.938   2.405
15462SOL    HW248284   2.495  13.945   2.505
15463SOL     OW48285   0.590   7.694  14.324
15463SOL    HW148286   0.612   7.614  14.277
15463SOL    HW248287   0.498   7.710  14.303
15464SOL     OW48288   0.010   1.703   8.931
15464SOL    HW148289   0.042   1.617   8.956
15464SOL    HW248290  14.809   1.720   8.992
15465SOL     OW48291   2.509   3.815  11.630
15465SOL    HW148292   2.502   3.786  11.721
15465SOL    HW248293   2.596   3.853  11.624
15466SOL     OW48294  11.026   8.393   0.837
15466SOL    HW148295  10.931   8.395   0.824
15466SOL    HW248296  11.037   8.403   0.931
15467SOL     OW48297   7.385   3.268   8.145
15467SOL    HW148298   7.361   3.179   8.119
15467SOL    HW248299   7.451   3.257   8.213
15468SOL     OW48300   4.810   1.295   6.402
15468SOL    HW148301   4.905   1.291   6.389
15468SOL    HW248302   4.773   1.275   6.316
15469SOL     OW48303   4.222   0.363  12.909
15469SOL    HW148304   4.258   0.405  12.831
15469SOL    HW248305   4.169   0.432  12.951
15470SOL     OW48306  12.639   8.160   5.017
15470SOL    HW148307  12.645   8.187   5.108
15470SOL    HW248308  12.639   8.242   4.967
15471SOL     OW48309   5.378   0.483   0.283
15471SOL    HW148310   5.459   0.436   0.302
15471SOL    HW248311   5.399   0.575   0.300
15472SOL     OW48312  10.323   7.050   1.099
15472SOL    HW148313  10.259   6.979   1.111
15472SOL    HW248314  10.403   7.005   1.073
15473SOL     OW48315   4.972  14.695   2.653
15473SOL    HW148316   4.959  14.625   2.589
15473SOL    HW248317   4.885  14.734   2.664
15474SOL     OW48318  11.895  13.931   3.661
15474SOL    HW148319  11.987  13.919   3.685
15474SOL    HW248320  11.899  13.964   3.571
15475SOL     OW48321   8.590   3.845   4.211
15475SOL    HW148322   8.499   3.852   4.239
15475SOL    HW248323   8.586   3.849   4.115
15476SOL     OW48324  13.290   0.589   0.713
15476SOL    HW148325  13.248   0.585   0.798
15476SOL    HW248326  13.223   0.562   0.651
15477SOL     OW48327   0.013  14.029  11.523
15477SOL    HW148328   0.097  13.985  11.508
15477SOL    HW248329   0.034  14.100  11.583
15478SOL     OW48330   9.322   5.937   8.146
15478SOL    HW148331   9.400   5.903   8.101
15478SOL    HW248332   9.255   5.939   8.078
15479SOL     OW48333   7.928   8.135   7.409
15479SOL    HW148334   8.003   8.193   7.422
15479SOL    HW248335   7.965   8.058   7.365
15480SOL     OW48336  12.362  14.715   9.687
15480SOL    HW148337  12.336  14.737   9.776
15480SOL    HW248338  12.428  14.647   9.697
15481SOL     OW48339  10.563   9.157  12.070
15481SOL    HW148340  10.530   9.225  12.012
15481SOL    HW248341  10.484   9.112  12.101
15482SOL     OW48342  13.166  14.345   9.109
15482SOL    HW148343  13.231  14.340   9.038
15482SOL    HW248344  13.183  14.267   9.162
15483SOL     OW48345  14.519  12.914   6.855
15483SOL    HW148346  14.550  13.002   6.876
15483SOL    HW248347  14.550  12.898   6.766
15484SOL     OW48348   3.683   4.628   1.043
15484SOL    HW148349   3.592   4.657   1.038
15484SOL    HW248350   3.710   4.651   1.132
15485SOL     OW48351  13.786   4.700   6.760
15485SOL    HW148352  13.828   4.762   6.701
15485SOL    HW248353  13.771   4.751   6.840
15486SOL     OW48354   2.258   7.192  12.008
15486SOL    HW148355   2.329   7.136  12.038
15486SOL    HW248356   2.231   7.241  12.085
15487SOL     OW48357   7.487   9.120   7.357
15487SOL    HW148358   7.491   9.102   7.263
15487SOL    HW248359   7.394   9.114   7.379
15488SOL     OW48360  10.212  13.244   5.494
15488SOL    HW148361  10.304  13.267   5.484
15488SOL    HW248362  10.171  13.322   5.531
15489SOL     OW48363   9.336   3.821   4.678
15489SOL    HW148364   9.263   3.759   4.678
15489SOL    HW248365   9.408   3.773   4.720
15490SOL     OW48366   4.794  11.806   9.694
15490SOL    HW148367   4.773  11.714   9.679
15490SOL    HW248368   4.816  11.812   9.787
15491SOL     OW48369   1.970   9.482  14.654
15491SOL    HW148370   1.914   9.457  14.581
15491SOL    HW248371   2.056   9.448  14.632
15492SOL     OW48372  14.283  11.744  10.063
15492SOL    HW148373  14.282  11.738   9.967
15492SOL    HW248374  14.360  11.692  10.088
15493SOL     OW48375   9.626   7.333   9.406
15493SOL    HW148376   9.544   7.358   9.447
15493SOL    HW248377   9.654   7.254   9.453
15494SOL     OW48378   5.014   4.938   4.062
15494SOL    HW148379   5.049   4.853   4.091
15494SOL    HW248380   5.077   4.970   3.998
15495SOL     OW48381  10.004   2.018   2.597
15495SOL    HW148382   9.930   2.041   2.652
15495SOL    HW248383  10.066   2.090   2.609
15496SOL     OW48384   0.900  12.034   1.563
15496SOL    HW148385   0.864  12.057   1.649
15496SOL    HW248386   0.829  11.986   1.520
15497SOL     OW48387   1.443  10.227  12.681
15497SOL    HW148388   1.378  10.157  12.670
15497SOL    HW248389   1.401  10.289  12.741
15498SOL     OW48390   1.492  14.856   0.864
15498SOL    HW148391   1.442   0.065   0.875
15498SOL    HW248392   1.511  14.853   0.770
15499SOL     OW48393   4.496   4.371   2.924
15499SOL    HW148394   4.430   4.426   2.967
15499SOL    HW248395   4.556   4.434   2.883
15500SOL     OW48396  13.691   8.251   0.566
15500SOL    HW148397  13.674   8.205   0.484
15500SOL    HW248398  13.784   8.237   0.583
15501SOL     OW48399   8.501  11.014   3.909
15501SOL    HW148400   8.440  10.973   3.970
15501SOL    HW248401   8.531  11.093   3.954
15502SOL     OW48402   7.200  10.769  10.570
15502SOL    HW148403   7.292  10.789  10.555
15502SOL    HW248404   7.171  10.729  10.488
15503SOL     OW48405   7.673   0.876   8.191
15503SOL    HW148406   7.652   0.960   8.150
15503SOL    HW248407   7.601   0.818   8.166
15504SOL     OW48408   6.288   6.818   2.709
15504SOL    HW148409   6.275   6.751   2.642
15504SOL    HW248410   6.271   6.773   2.792
15505SOL     OW48411  11.961  14.449   1.386
15505SOL    HW148412  11.998  14.367   1.354
15505SOL    HW248413  11.905  14.480   1.315
15506SOL     OW48414  11.952  14.613   8.202
15506SOL    HW148415  11.859  14.603   8.184
15506SOL    HW248416  11.992  14.531   8.173
15507SOL     OW48417   2.649   5.371   9.337
15507SOL    HW148418   2.563   5.387   9.375
15507SOL    HW248419   2.648   5.279   9.312
15508SOL     OW48420   7.957   8.968  12.827
15508SOL    HW148421   8.033   9.006  12.785
15508SOL    HW248422   7.987   8.946  12.916
15509SOL     OW48423   7.693   4.422   7.354
15509SOL    HW148424   7.683   4.410   7.259
15509SOL    HW248425   7.655   4.343   7.392
15510SOL     OW48426   7.821  10.531   7.627
15510SOL    HW148427   7.767  10.519   7.549
15510SOL    HW248428   7.860  10.445   7.642
15511SOL     OW48429  13.313  12.081   5.897
15511SOL    HW148430  13.401  12.072   5.934
15511SOL    HW248431  13.265  12.005   5.932
15512SOL     OW48432   5.349  14.736   8.270
15512SOL    HW148433   5.370  14.746   8.177
15512SOL    HW248434   5.433  14.714   8.310
15513SOL     OW48435   1.652  11.409  11.436
15513SOL    HW148436   1.711  11.403  11.361
15513SOL    HW248437   1.606  11.492  11.424
15514SOL     OW48438   1.673   3.934   5.883
15514SOL    HW148439   1.737   3.917   5.953
15514SOL    HW248440   1.725   3.935   5.803
15515SOL     OW48441   1.588   6.472  10.413
15515SOL    HW148442   1.595   6.465  10.508
15515SOL    HW248443   1.496   6.492  10.397
15516SOL     OW48444  10.927   6.986   2.340
15516SOL    HW148445  10.944   7.077   2.365
15516SOL    HW248446  10.855   6.990   2.278
15517SOL     OW48447   9.244   0.631   8.981
15517SOL    HW148448   9.162   0.664   8.943
15517SOL    HW248449   9.221   0.544   9.016
15518SOL     OW48450   7.508   4.566   8.039
15518SOL    HW148451   7.495   4.479   8.002
15518SOL    HW248452   7.423   4.609   8.032
15519SOL     OW48453  10.098  13.566  14.127
15519SOL    HW148454  10.147  13.634  14.081
15519SOL    HW248455  10.152  13.488  14.118
15520SOL     OW48456   4.503   0.559   1.995
15520SOL    HW148457   4.587   0.560   1.949
15520SOL    HW248458   4.450   0.625   1.951
15521SOL     OW48459  13.012   7.751   7.641
15521SOL    HW148460  12.978   7.681   7.586
15521SOL    HW248461  12.999   7.720   7.730
15522SOL     OW48462  11.210  12.633   7.754
15522SOL    HW148463  11.181  12.724   7.762
15522SOL    HW248464  11.135  12.581   7.782
15523SOL     OW48465   8.895   0.650   8.836
15523SOL    HW148466   8.910   0.559   8.864
15523SOL    HW248467   8.820   0.644   8.776
15524SOL     OW48468   4.213   3.161   7.934
15524SOL    HW148469   4.290   3.208   7.965
15524SOL    HW248470   4.144   3.228   7.932
15525SOL     OW48471   5.788   5.154  13.577
15525SOL    HW148472   5.712   5.207  13.597
15525SOL    HW248473   5.763   5.065  13.603
15526SOL     OW48474   7.329   9.889  13.235
15526SOL    HW148475   7.423   9.870  13.235
15526SOL    HW248476   7.321   9.968  13.288
15527SOL     OW48477   3.970   5.005  12.707
15527SOL    HW148478   3.902   4.940  12.690
15527SOL    HW248479   3.991   5.041  12.621
15528SOL     OW48480   7.720   9.390  11.020
15528SOL    HW148481   7.681   9.470  11.057
15528SOL    HW248482   7.647   9.345  10.977
15529SOL     OW48483  14.177   3.629   0.212
15529SOL    HW148484  14.217   3.666   0.133
15529SOL    HW248485  14.113   3.566   0.179
15530SOL     OW48486   9.077  12.928  11.672
15530SOL    HW148487   8.991  12.919  11.632
15530SOL    HW248488   9.134  12.872  11.619
15531SOL     OW48489   1.542   0.323   2.493
15531SOL    HW148490   1.548   0.234   2.527
15531SOL    HW248491   1.561   0.378   2.569
15532SOL     OW48492   8.441   1.080  10.704
15532SOL    HW148493   8.356   1.036  10.710
15532SOL    HW248494   8.505   1.008  10.706
15533SOL     OW48495   9.875   3.359   4.846
15533SOL    HW148496   9.829   3.337   4.765
15533SOL    HW248497   9.909   3.275   4.877
15534SOL     OW48498   7.555  10.311   1.427
15534SOL    HW148499   7.600  10.312   1.512
15534SOL    HW248500   7.626  10.324   1.364
15535SOL     OW48501  13.135   1.368  14.266
15535SOL    HW148502  13.052   1.390  14.223
15535SOL    HW248503  13.128   1.274  14.285
15536SOL     OW48504   7.925   6.631   3.900
15536SOL    HW148505   7.856   6.689   3.933
15536SOL    HW248506   7.969   6.682   3.831
15537SOL     OW48507   3.351  13.945   3.865
15537SOL    HW148508   3.408  13.908   3.932
15537SOL    HW248509   3.286  13.996   3.913
15538SOL     OW48510   9.774   6.454   5.624
15538SOL    HW148511   9.767   6.411   5.539
15538SOL    HW248512   9.685   6.457   5.658
15539SOL     OW48513  10.675   6.071  10.302
15539SOL    HW148514  10.657   6.092  10.211
15539SOL    HW248515  10.745   6.131  10.327
15540SOL     OW48516  12.832   8.133   9.215
15540SOL    HW148517  12.841   8.038   9.221
15540SOL    HW248518  12.880   8.157   9.136
15541SOL     OW48519   4.758  10.127   3.854
15541SOL    HW148520   4.812  10.137   3.776
15541SOL    HW248521   4.699  10.055   3.833
15542SOL     OW48522  13.757   4.789  10.286
15542SOL    HW148523  13.818   4.831  10.347
15542SOL    HW248524  13.794   4.702  10.271
15543SOL     OW48525   7.626  12.180   0.907
15543SOL    HW148526   7.588  12.113   0.849
15543SOL    HW248527   7.718  12.182   0.883
15544SOL     OW48528   1.470   2.650   7.048
15544SOL    HW148529   1.552   2.697   7.034
15544SOL    HW248530   1.437   2.633   6.960
15545SOL     OW48531  13.919   2.276  10.673
15545SOL    HW148532  13.951   2.195  10.633
15545SOL    HW248533  13.905   2.254  10.765
15546SOL     OW48534   1.335  14.770   2.870
15546SOL    HW148535   1.320  14.854   2.913
15546SOL    HW248536   1.266  14.764   2.804
15547SOL     OW48537  12.792  10.443  13.100
15547SOL    HW148538  12.729  10.514  13.115
15547SOL    HW248539  12.738  10.368  13.074
15548SOL     OW48540   5.636   1.612  11.461
15548SOL    HW148541   5.639   1.626  11.556
15548SOL    HW248542   5.543   1.623  11.439
15549SOL     OW48543   8.696   5.753   3.153
15549SOL    HW148544   8.620   5.809   3.138
15549SOL    HW248545   8.740   5.750   3.068
15550SOL     OW48546   0.427   0.934   4.834
15550SOL    HW148547   0.446   0.857   4.781
15550SOL    HW248548   0.443   1.008   4.775
15551SOL     OW48549   9.486  13.865   4.246
15551SOL    HW148550   9.401  13.902   4.270
15551SOL    HW248551   9.465  13.781   4.206
15552SOL     OW48552   2.388  14.432  11.267
15552SOL    HW148553   2.354  14.388  11.189
15552SOL    HW248554   2.363  14.524  11.256
15553SOL     OW48555   5.556  11.465  12.553
15553SOL    HW148556   5.488  11.458  12.485
15553SOL    HW248557   5.636  11.435  12.510
15554SOL     OW48558  11.465   9.480   6.227
15554SOL    HW148559  11.386   9.429   6.244
15554SOL    HW248560  11.453   9.514   6.138
15555SOL     OW48561   7.731   4.079  12.130
15555SOL    HW148562   7.814   4.117  12.159
15555SOL    HW248563   7.715   4.006  12.190
15556SOL     OW48564   3.982  11.042   4.645
15556SOL    HW148565   3.906  11.012   4.695
15556SOL    HW248566   3.946  11.105   4.582
15557SOL     OW48567   8.726  12.020   6.758
15557SOL    HW148568   8.760  11.976   6.836
15557SOL    HW248569   8.762  11.970   6.685
15558SOL     OW48570   5.383  14.079   8.718
15558SOL    HW148571   5.298  14.106   8.685
15558SOL    HW248572   5.408  14.148   8.780
15559SOL     OW48573  11.346   7.584  12.993
15559SOL    HW148574  11.304   7.598  13.078
15559SOL    HW248575  11.388   7.498  13.001
15560SOL     OW48576   2.607   0.534  13.644
15560SOL    HW148577   2.564   0.502  13.564
15560SOL    HW248578   2.538   0.531  13.710
15561SOL     OW48579  10.975  10.139   5.057
15561SOL    HW148580  10.894  10.189   5.049
15561SOL    HW248581  11.011  10.164   5.142
15562SOL     OW48582  12.789  11.315  12.793
15562SOL    HW148583  12.721  11.300  12.858
15562SOL    HW248584  12.746  11.366  12.724
15563SOL     OW48585   5.346   1.434   0.931
15563SOL    HW148586   5.440   1.418   0.931
15563SOL    HW248587   5.335   1.519   0.974
15564SOL     OW48588  10.193   3.969  14.297
15564SOL    HW148589  10.282   3.999  14.277
15564SOL    HW248590  10.188   3.972  14.393
15565SOL     OW48591   7.944   7.580  13.456
15565SOL    HW148592   7.998   7.654  13.482
15565SOL    HW248593   7.882   7.617  13.392
15566SOL     OW48594   6.311  10.943  14.493
15566SOL    HW148595   6.335  11.004  14.563
15566SOL    HW248596   6.241  10.889  14.530
15567SOL     OW48597   7.981   9.550   7.084
15567SOL    HW148598   7.898   9.559   7.038
15567SOL    HW248599   8.012   9.640   7.095
15568SOL     OW48600  14.596   1.648  12.220
15568SOL    HW148601  14.568   1.703  12.293
15568SOL    HW248602  14.540   1.570  12.225
15569SOL     OW48603  10.723   9.536   8.715
15569SOL    HW148604  10.725   9.632   8.710
15569SOL    HW248605  10.632   9.513   8.699
15570SOL     OW48606   0.344   1.368  11.567
15570SOL    HW148607   0.327   1.322  11.649
15570SOL    HW248608   0.395   1.445  11.592
15571SOL     OW48609  11.407   3.525   3.111
15571SOL    HW148610  11.443   3.444   3.147
15571SOL    HW248611  11.312   3.509   3.108
15572SOL     OW48612   8.424   2.365   2.073
15572SOL    HW148613   8.476   2.306   2.018
15572SOL    HW248614   8.345   2.316   2.094
15573SOL     OW48615  12.941   9.877   8.618
15573SOL    HW148616  12.876   9.841   8.678
15573SOL    HW248617  12.999   9.929   8.673
15574SOL     OW48618   5.442   1.045   3.353
15574SOL    HW148619   5.363   0.991   3.346
15574SOL    HW248620   5.428   1.116   3.291
15575SOL     OW48621   4.008   8.579   0.547
15575SOL    HW148622   4.073   8.543   0.607
15575SOL    HW248623   3.950   8.506   0.528
15576SOL     OW48624  14.772   6.950   0.367
15576SOL    HW148625  14.704   6.887   0.392
15576SOL    HW248626  14.745   6.980   0.280
15577SOL     OW48627   2.589   2.553   7.682
15577SOL    HW148628   2.577   2.630   7.627
15577SOL    HW248629   2.500   2.526   7.705
15578SOL     OW48630   0.033   9.725   0.861
15578SOL    HW148631   0.039   9.631   0.878
15578SOL    HW248632   0.119   9.749   0.829
15579SOL     OW48633   7.568   6.594   7.850
15579SOL    HW148634   7.529   6.526   7.906
15579SOL    HW248635   7.639   6.549   7.804
15580SOL     OW48636  12.852  12.962   9.391
15580SOL    HW148637  12.870  12.912   9.311
15580SOL    HW248638  12.824  12.896   9.454
15581SOL     OW48639  10.396   8.548   3.671
15581SOL    HW148640  10.312   8.593   3.656
15581SOL    HW248641  10.390   8.517   3.761
15582SOL     OW48642   5.500   5.093   8.432
15582SOL    HW148643   5.436   5.142   8.483
15582SOL    HW248644   5.585   5.120   8.466
15583SOL     OW48645   4.565   2.245   2.781
15583SOL    HW148646   4.499   2.177   2.773
15583SOL    HW248647   4.522   2.314   2.832
15584SOL     OW48648   0.764   6.191   2.649
15584SOL    HW148649   0.728   6.166   2.735
15584SOL    HW248650   0.854   6.216   2.667
15585SOL     OW48651   2.763   3.688  11.812
15585SOL    HW148652   2.749   3.596  11.789
15585SOL    HW248653   2.845   3.688  11.861
15586SOL     OW48654   9.212  10.239   1.213
15586SOL    HW148655   9.137  10.270   1.163
15586SOL    HW248656   9.174  10.206   1.295
15587SOL     OW48657   6.815   0.868  11.570
15587SOL    HW148658   6.720   0.864  11.574
15587SOL    HW248659   6.839   0.936  11.634
15588SOL     OW48660  10.570   3.760   0.914
15588SOL    HW148661  10.616   3.766   0.830
15588SOL    HW248662  10.594   3.673   0.947
15589SOL     OW48663   0.350   9.482  12.358
15589SOL    HW148664   0.322   9.498  12.448
15589SOL    HW248665   0.322   9.560  12.310
15590SOL     OW48666   5.635   8.393  12.653
15590SOL    HW148667   5.586   8.322  12.696
15590SOL    HW248668   5.612   8.384  12.560
15591SOL     OW48669   7.865   4.643   4.178
15591SOL    HW148670   7.937   4.648   4.241
15591SOL    HW248671   7.876   4.721   4.124
15592SOL     OW48672  10.574   0.669  12.985
15592SOL    HW148673  10.617   0.747  13.020
15592SOL    HW248674  10.587   0.603  13.052
15593SOL     OW48675  12.885   3.962   0.267
15593SOL    HW148676  12.918   3.879   0.302
15593SOL    HW248677  12.803   3.977   0.314
15594SOL     OW48678   9.145   9.559  13.762
15594SOL    HW148679   9.209   9.492  13.789
15594SOL    HW248680   9.198   9.635  13.739
15595SOL     OW48681   6.964  12.528  10.846
15595SOL    HW148682   7.002  12.605  10.887
15595SOL    HW248683   6.923  12.479  10.918
15596SOL     OW48684   7.972   1.039   3.818
15596SOL    HW148685   7.944   1.023   3.908
15596SOL    HW248686   7.953   0.956   3.773
15597SOL     OW48687   8.504   8.898   3.767
15597SOL    HW148688   8.506   8.873   3.859
15597SOL    HW248689   8.563   8.973   3.761
15598SOL     OW48690  12.058  12.217   9.834
15598SOL    HW148691  11.968  12.249   9.844
15598SOL    HW248692  12.102  12.241   9.915
15599SOL     OW48693   6.073   1.858  10.536
15599SOL    HW148694   6.135   1.898  10.476
15599SOL    HW248695   6.112   1.773  10.558
15600SOL     OW48696   2.621   4.295   9.783
15600SOL    HW148697   2.571   4.222   9.819
15600SOL    HW248698   2.664   4.334   9.859
15601SOL     OW48699   7.054   4.524   4.982
15601SOL    HW148700   7.007   4.604   4.959
15601SOL    HW248701   7.008   4.492   5.060
15602SOL     OW48702   4.989  12.931  14.775
15602SOL    HW148703   5.070  12.941  14.826
15602SOL    HW248704   5.011  12.867  14.707
15603SOL     OW48705  10.598  11.238   4.525
15603SOL    HW148706  10.577  11.145   4.515
15603SOL    HW248707  10.514  11.282   4.531
15604SOL     OW48708  13.418  11.233  13.082
15604SOL    HW148709  13.378  11.251  13.167
15604SOL    HW248710  13.510  11.254  13.094
15605SOL     OW48711   4.406   3.036   0.656
15605SOL    HW148712   4.477   3.076   0.706
15605SOL    HW248713   4.333   3.030   0.717
15606SOL     OW48714   8.374  10.278   2.605
15606SOL    HW148715   8.370  10.191   2.645
15606SOL    HW248716   8.419  10.263   2.521
15607SOL     OW48717  10.168   9.320   4.382
15607SOL    HW148718  10.076   9.296   4.399
15607SOL    HW248719  10.166   9.414   4.366
15608SOL     OW48720   8.298   2.379   9.943
15608SOL    HW148721   8.361   2.404   9.876
15608SOL    HW248722   8.351   2.356  10.019
15609SOL     OW48723   2.640   6.312   2.908
15609SOL    HW148724   2.669   6.386   2.854
15609SOL    HW248725   2.721   6.276   2.945
15610SOL     OW48726  14.010  14.302   7.518
15610SOL    HW148727  13.973  14.372   7.465
15610SOL    HW248728  14.018  14.228   7.458
15611SOL     OW48729   9.092   0.877  13.170
15611SOL    HW148730   9.100   0.919  13.085
15611SOL    HW248731   9.175   0.894  13.214
15612SOL     OW48732   8.399   9.387  10.950
15612SOL    HW148733   8.373   9.476  10.972
15612SOL    HW248734   8.409   9.388  10.855
15613SOL     OW48735  10.762  10.777   8.446
15613SOL    HW148736  10.709  10.730   8.511
15613SOL    HW248737  10.727  10.867   8.448
15614SOL     OW48738  11.013   5.616  11.087
15614SOL    HW148739  10.966   5.657  11.014
15614SOL    HW248740  11.072   5.553  11.045
15615SOL     OW48741  13.289   1.398  10.101
15615SOL    HW148742  13.305   1.309  10.133
15615SOL    HW248743  13.212   1.427  10.149
15616SOL     OW48744   8.331   3.173   9.141
15616SOL    HW148745   8.392   3.159   9.213
15616SOL    HW248746   8.280   3.092   9.136
15617SOL     OW48747   3.564   2.495  11.167
15617SOL    HW148748   3.496   2.446  11.212
15617SOL    HW248749   3.640   2.436  11.167
15618SOL     OW48750  13.982   7.973   8.200
15618SOL    HW148751  14.041   7.943   8.131
15618SOL    HW248752  13.896   7.977   8.158
15619SOL     OW48753  13.824   2.217   9.970
15619SOL    HW148754  13.869   2.298   9.994
15619SOL    HW248755  13.733   2.243   9.954
15620SOL     OW48756  13.256   8.231   1.954
15620SOL    HW148757  13.171   8.274   1.946
15620SOL    HW248758  13.276   8.201   1.865
15621SOL     OW48759   3.349   7.140   1.927
15621SOL    HW148760   3.329   7.214   1.869
15621SOL    HW248761   3.408   7.086   1.875
15622SOL     OW48762  13.120   2.156   1.191
15622SOL    HW148763  13.097   2.228   1.131
15622SOL    HW248764  13.204   2.182   1.229
15623SOL     OW48765   1.467  11.667   7.765
15623SOL    HW148766   1.446  11.682   7.857
15623SOL    HW248767   1.562  11.676   7.760
15624SOL     OW48768   6.696   3.204  12.494
15624SOL    HW148769   6.672   3.181  12.583
15624SOL    HW248770   6.743   3.127  12.462
15625SOL     OW48771  10.246   8.063  10.180
15625SOL    HW148772  10.294   8.145  10.185
15625SOL    HW248773  10.185   8.074  10.107
15626SOL     OW48774   9.294  10.525   7.903
15626SOL    HW148775   9.347  10.489   7.832
15626SOL    HW248776   9.357  10.542   7.973
15627SOL     OW48777   2.666   1.797   9.437
15627SOL    HW148778   2.600   1.867   9.442
15627SOL    HW248779   2.626   1.724   9.485
15628SOL     OW48780   2.370   1.604   8.251
15628SOL    HW148781   2.449   1.660   8.248
15628SOL    HW248782   2.397   1.523   8.208
15629SOL     OW48783   1.018  14.809   5.169
15629SOL    HW148784   1.007  14.785   5.261
15629SOL    HW248785   1.056  14.731   5.129
15630SOL     OW48786   1.216  12.471   3.662
15630SOL    HW148787   1.274  12.505   3.594
15630SOL    HW248788   1.159  12.409   3.616
15631SOL     OW48789  11.717   8.377  11.664
15631SOL    HW148790  11.677   8.425  11.591
15631SOL    HW248791  11.767   8.443  11.712
15632SOL     OW48792  12.123   3.719   4.037
15632SOL    HW148793  12.139   3.633   3.996
15632SOL    HW248794  12.205   3.739   4.083
15633SOL     OW48795   2.519   3.034  11.674
15633SOL    HW148796   2.544   3.047  11.765
15633SOL    HW248797   2.423   3.028  11.676
15634SOL     OW48798   9.483   4.866   0.002
15634SOL    HW148799   9.552   4.802   0.019
15634SOL    HW248800   9.529   4.947  14.853
15635SOL     OW48801   2.923   2.231  13.838
15635SOL    HW148802   2.887   2.170  13.773
15635SOL    HW248803   2.846   2.269  13.880
15636SOL     OW48804   5.880  10.872  13.034
15636SOL    HW148805   5.946  10.811  13.068
15636SOL    HW248806   5.930  10.952  13.014
15637SOL     OW48807   4.253   7.552   1.684
15637SOL    HW148808   4.196   7.588   1.616
15637SOL    HW248809   4.203   7.479   1.720
15638SOL     OW48810   2.091   8.773   3.536
15638SOL    HW148811   2.095   8.717   3.614
15638SOL    HW248812   2.022   8.734   3.483
15639SOL     OW48813  13.541   5.171   4.771
15639SOL    HW148814  13.533   5.261   4.801
15639SOL    HW248815  13.576   5.178   4.682
15640SOL     OW48816  13.457   9.575  13.156
15640SOL    HW148817  13.545   9.556  13.190
15640SOL    HW248818  13.432   9.657  13.199
15641SOL     OW48819   5.594   5.475  10.440
15641SOL    HW148820   5.636   5.456  10.524
15641SOL    HW248821   5.667   5.479  10.378
15642SOL     OW48822   3.546  10.172  10.780
15642SOL    HW148823   3.475  10.193  10.719
15642SOL    HW248824   3.612  10.129  10.727
15643SOL     OW48825   4.503  10.307   6.107
15643SOL    HW148826   4.595  10.326   6.126
15643SOL    HW248827   4.461  10.308   6.193
15644SOL     OW48828  12.997   6.034   0.963
15644SOL    HW148829  12.938   5.980   0.910
15644SOL    HW248830  12.988   5.999   1.052
15645SOL     OW48831  14.467  13.529   7.684
15645SOL    HW148832  14.412  13.505   7.759
15645SOL    HW248833  14.405  13.560   7.618
15646SOL     OW48834   8.525  10.357  13.935
15646SOL    HW148835   8.515  10.371  14.029
15646SOL    HW248836   8.591  10.422  13.908
15647SOL     OW48837   3.280  11.350  10.664
15647SOL    HW148838   3.259  11.296  10.741
15647SOL    HW248839   3.354  11.305  10.623
15648SOL     OW48840   9.961   2.960  13.804
15648SOL    HW148841   9.900   2.990  13.870
15648SOL    HW248842   9.934   2.869  13.786
15649SOL     OW48843  10.796   5.234   0.044
15649SOL    HW148844  10.727   5.169   0.027
15649SOL    HW248845  10.863   5.216  14.849
15650SOL     OW48846  14.229   6.044   9.363
15650SOL    HW148847  14.305   6.056   9.306
15650SOL    HW248848  14.182   5.969   9.325
15651SOL     OW48849   6.687   9.028   3.637
15651SOL    HW148850   6.758   9.078   3.596
15651SOL    HW248851   6.708   9.029   3.730
15652SOL     OW48852   1.619  12.448   8.001
15652SOL    HW148853   1.621  12.460   8.096
15652SOL    HW248854   1.575  12.364   7.988
15653SOL     OW48855  12.431   6.555  10.063
15653SOL    HW148856  12.385   6.535   9.982
15653SOL    HW248857  12.386   6.631  10.098
15654SOL     OW48858   4.899   1.969   1.699
15654SOL    HW148859   4.858   1.999   1.780
15654SOL    HW248860   4.840   1.901   1.666
15655SOL     OW48861   7.240   7.650   8.057
15655SOL    HW148862   7.295   7.644   7.979
15655SOL    HW248863   7.161   7.602   8.035
15656SOL     OW48864  10.933   8.186   5.907
15656SOL    HW148865  10.897   8.113   5.856
15656SOL    HW248866  10.857   8.227   5.948
15657SOL     OW48867  10.758   0.070  12.730
15657SOL    HW148868  10.712   0.113  12.657
15657SOL    HW248869  10.726   0.115  12.808
15658SOL     OW48870   8.110  13.607  10.974
15658SOL    HW148871   8.102  13.568  11.061
15658SOL    HW248872   8.181  13.670  10.983
15659SOL     OW48873   0.175   7.843  11.823
15659SOL    HW148874   0.118   7.827  11.898
15659SOL    HW248875   0.123   7.818  11.747
15660SOL     OW48876   1.344   6.544   9.030
15660SOL    HW148877   1.435   6.566   9.051
15660SOL    HW248878   1.293   6.618   9.064
15661SOL     OW48879   4.251   1.969   7.484
15661SOL    HW148880   4.284   2.050   7.444
15661SOL    HW248881   4.304   1.900   7.446
15662SOL     OW48882   3.876   7.678   7.877
15662SOL    HW148883   3.839   7.697   7.963
15662SOL    HW248884   3.960   7.635   7.895
15663SOL     OW48885   3.920   6.419   3.323
15663SOL    HW148886   3.854   6.369   3.372
15663SOL    HW248887   3.869   6.467   3.257
15664SOL     OW48888   6.064  11.546  10.270
15664SOL    HW148889   6.004  11.488  10.224
15664SOL    HW248890   6.061  11.516  10.361
15665SOL     OW48891   9.884   9.700  12.998
15665SOL    HW148892   9.941   9.772  13.024
15665SOL    HW248893   9.878   9.708  12.903
15666SOL     OW48894   6.030   2.034   1.487
15666SOL    HW148895   6.113   2.002   1.522
15666SOL    HW248896   5.991   1.958   1.443
15667SOL     OW48897  14.019   9.011  14.179
15667SOL    HW148898  14.041   9.094  14.136
15667SOL    HW248899  14.028   8.946  14.110
15668SOL     OW48900   9.464   8.738  11.266
15668SOL    HW148901   9.465   8.776  11.354
15668SOL    HW248902   9.557   8.721  11.247
15669SOL     OW48903   0.851   1.576  11.545
15669SOL    HW148904   0.932   1.609  11.509
15669SOL    HW248905   0.789   1.577  11.472
15670SOL     OW48906   2.169   4.617  12.900
15670SOL    HW148907   2.149   4.541  12.954
15670SOL    HW248908   2.092   4.626  12.843
15671SOL     OW48909   5.146  11.809   9.134
15671SOL    HW148910   5.223  11.852   9.170
15671SOL    HW248911   5.151  11.826   9.039
15672SOL     OW48912   6.867   3.812  10.206
15672SOL    HW148913   6.860   3.717  10.198
15672SOL    HW248914   6.819   3.846  10.130
15673SOL     OW48915   2.504  14.557   7.687
15673SOL    HW148916   2.563  14.562   7.763
15673SOL    HW248917   2.560  14.527   7.615
15674SOL     OW48918   1.237   6.157  13.027
15674SOL    HW148919   1.236   6.253  13.025
15674SOL    HW248920   1.266   6.132  12.939
15675SOL     OW48921  11.278   7.790   3.789
15675SOL    HW148922  11.205   7.828   3.837
15675SOL    HW248923  11.342   7.861   3.783
15676SOL     OW48924  10.669   0.809   8.044
15676SOL    HW148925  10.756   0.841   8.019
15676SOL    HW248926  10.615   0.824   7.967
15677SOL     OW48927   5.062   3.360  12.726
15677SOL    HW148928   5.026   3.273  12.744
15677SOL    HW248929   5.045   3.410  12.806
15678SOL     OW48930   8.060   1.721   4.057
15678SOL    HW148931   8.155   1.734   4.048
15678SOL    HW248932   8.029   1.803   4.096
15679SOL     OW48933  13.486  13.613   3.705
15679SOL    HW148934  13.565  13.566   3.679
15679SOL    HW248935  13.447  13.641   3.623
15680SOL     OW48936   7.798  12.131   5.728
15680SOL    HW148937   7.744  12.052   5.739
15680SOL    HW248938   7.749  12.184   5.666
15681SOL     OW48939   7.145   1.074   6.616
15681SOL    HW148940   7.079   1.133   6.654
15681SOL    HW248941   7.094   1.001   6.582
15682SOL     OW48942   9.893  11.056   1.772
15682SOL    HW148943   9.832  11.104   1.716
15682SOL    HW248944   9.898  11.108   1.852
15683SOL     OW48945   4.909  14.510   3.130
15683SOL    HW148946   4.993  14.547   3.157
15683SOL    HW248947   4.851  14.523   3.205
15684SOL     OW48948   5.543   4.230  10.005
15684SOL    HW148949   5.543   4.256   9.914
15684SOL    HW248950   5.514   4.307  10.053
15685SOL     OW48951   2.556   3.410   1.081
15685SOL    HW148952   2.552   3.480   1.146
15685SOL    HW248953   2.573   3.455   0.998
15686SOL     OW48954   8.506   1.021   7.530
15686SOL    HW148955   8.448   1.091   7.501
15686SOL    HW248956   8.530   0.975   7.450
15687SOL     OW48957   4.372   0.258   5.272
15687SOL    HW148958   4.459   0.223   5.288
15687SOL    HW248959   4.316   0.213   5.335
15688SOL     OW48960   1.932  10.726   6.327
15688SOL    HW148961   1.859  10.740   6.388
15688SOL    HW248962   2.005  10.698   6.382
15689SOL     OW48963   6.223   1.654  11.830
15689SOL    HW148964   6.225   1.746  11.856
15689SOL    HW248965   6.146   1.618  11.874
15690SOL     OW48966  11.009   8.189  14.750
15690SOL    HW148967  10.958   8.161  14.825
15690SOL    HW248968  11.008   8.285  14.754
15691SOL     OW48969   7.889  13.462   3.618
15691SOL    HW148970   7.926  13.376   3.635
15691SOL    HW248971   7.851  13.488   3.702
15692SOL     OW48972  11.105   1.549   7.084
15692SOL    HW148973  11.128   1.479   7.023
15692SOL    HW248974  11.024   1.519   7.125
15693SOL     OW48975   3.616  13.890   6.136
15693SOL    HW148976   3.659  13.858   6.215
15693SOL    HW248977   3.543  13.830   6.123
15694SOL     OW48978   4.072  14.292   9.966
15694SOL    HW148979   4.120  14.374   9.969
15694SOL    HW248980   3.990  14.311  10.011
15695SOL     OW48981   6.414   5.365   7.711
15695SOL    HW148982   6.346   5.389   7.648
15695SOL    HW248983   6.477   5.315   7.660
15696SOL     OW48984   0.697  10.835   1.097
15696SOL    HW148985   0.636  10.905   1.074
15696SOL    HW248986   0.712  10.845   1.191
15697SOL     OW48987   6.359   0.405   0.923
15697SOL    HW148988   6.324   0.469   0.861
15697SOL    HW248989   6.420   0.454   0.977
15698SOL     OW48990   6.949   9.449   3.217
15698SOL    HW148991   6.996   9.384   3.270
15698SOL    HW248992   6.871   9.402   3.186
15699SOL     OW48993   3.123   6.729   5.019
15699SOL    HW148994   3.096   6.813   4.984
15699SOL    HW248995   3.113   6.668   4.945
15700SOL     OW48996   9.532   8.852   7.161
15700SOL    HW148997   9.497   8.763   7.169
15700SOL    HW248998   9.516   8.876   7.070
15701SOL     OW48999   9.470   6.287   1.613
15701SOL    HW149000   9.440   6.336   1.690
15701SOL    HW249001   9.419   6.322   1.541
15702SOL     OW49002  13.431  12.429   3.291
15702SOL    HW149003  13.439  12.335   3.307
15702SOL    HW249004  13.516  12.455   3.255
15703SOL     OW49005   9.487   6.235  12.721
15703SOL    HW149006   9.556   6.224  12.655
15703SOL    HW249007   9.485   6.329  12.737
15704SOL     OW49008   2.351   9.855   2.041
15704SOL    HW149009   2.429   9.910   2.034
15704SOL    HW249010   2.384   9.765   2.038
15705SOL     OW49011  14.681   2.767   7.154
15705SOL    HW149012  14.671   2.678   7.188
15705SOL    HW249013  14.603   2.813   7.185
15706SOL     OW49014  10.556   8.809   6.886
15706SOL    HW149015  10.472   8.766   6.901
15706SOL    HW249016  10.550   8.891   6.936
15707SOL     OW49017   7.976  13.259  12.810
15707SOL    HW149018   7.985  13.354  12.804
15707SOL    HW249019   7.962  13.230  12.720
15708SOL     OW49020   3.114   6.076  14.733
15708SOL    HW149021   3.042   6.082  14.795
15708SOL    HW249022   3.176   6.144  14.761
15709SOL     OW49023   4.482   4.184   4.278
15709SOL    HW149024   4.534   4.104   4.279
15709SOL    HW249025   4.503   4.225   4.195
15710SOL     OW49026  10.526   1.356  13.661
15710SOL    HW149027  10.526   1.443  13.702
15710SOL    HW249028  10.591   1.362  13.591
15711SOL     OW49029   7.453   8.082   8.332
15711SOL    HW149030   7.515   8.012   8.350
15711SOL    HW249031   7.485   8.156   8.384
15712SOL     OW49032  10.951   4.758   1.489
15712SOL    HW149033  11.001   4.824   1.535
15712SOL    HW249034  11.015   4.692   1.463
15713SOL     OW49035   6.573  10.379   6.493
15713SOL    HW149036   6.654  10.423   6.468
15713SOL    HW249037   6.508  10.410   6.430
15714SOL     OW49038   9.946   4.242   3.800
15714SOL    HW149039  10.016   4.240   3.735
15714SOL    HW249040   9.901   4.159   3.790
15715SOL     OW49041   0.592   6.630   0.604
15715SOL    HW149042   0.536   6.589   0.537
15715SOL    HW249043   0.578   6.578   0.683
15716SOL     OW49044   6.073   1.552   2.037
15716SOL    HW149045   6.098   1.520   1.950
15716SOL    HW249046   6.141   1.519   2.096
15717SOL     OW49047   8.914   5.996   2.917
15717SOL    HW149048   8.934   6.063   2.852
15717SOL    HW249049   8.896   6.045   2.998
15718SOL     OW49050   4.858   5.810  11.754
15718SOL    HW149051   4.872   5.888  11.808
15718SOL    HW249052   4.762   5.799  11.752
15719SOL     OW49053   3.580   2.070   0.880
15719SOL    HW149054   3.509   2.097   0.821
15719SOL    HW249055   3.655   2.057   0.822
15720SOL     OW49056   8.645   3.504   0.407
15720SOL    HW149057   8.638   3.446   0.483
15720SOL    HW249058   8.575   3.568   0.419
15721SOL     OW49059   5.665   2.179   5.836
15721SOL    HW149060   5.749   2.139   5.857
15721SOL    HW249061   5.609   2.106   5.809
15722SOL     OW49062   3.335  12.282  12.408
15722SOL    HW149063   3.335  12.243  12.495
15722SOL    HW249064   3.354  12.374  12.423
15723SOL     OW49065   0.058   7.805   6.540
15723SOL    HW149066  14.850   7.757   6.516
15723SOL    HW249067   0.129   7.754   6.500
15724SOL     OW49068   4.992   2.284   7.797
15724SOL    HW149069   4.897   2.282   7.786
15724SOL    HW249070   5.006   2.332   7.879
15725SOL     OW49071   5.894   8.787   3.674
15725SOL    HW149072   5.973   8.793   3.728
15725SOL    HW249073   5.822   8.787   3.738
15726SOL     OW49074  10.896   2.787  13.890
15726SOL    HW149075  10.930   2.779  13.801
15726SOL    HW249076  10.805   2.815  13.879
15727SOL     OW49077   5.820  10.147  14.778
15727SOL    HW149078   5.792  10.100  14.699
15727SOL    HW249079   5.911  10.122  14.790
15728SOL     OW49080   2.026  14.612   6.411
15728SOL    HW149081   2.084  14.537   6.424
15728SOL    HW249082   1.970  14.587   6.337
15729SOL     OW49083   7.349  14.302   1.977
15729SOL    HW149084   7.275  14.276   1.923
15729SOL    HW249085   7.343  14.398   1.983
15730SOL     OW49086   1.907   6.119   2.906
15730SOL    HW149087   1.905   6.123   2.811
15730SOL    HW249088   1.964   6.191   2.933
15731SOL     OW49089   9.023  13.879  11.671
15731SOL    HW149090   8.944  13.867  11.723
15731SOL    HW249091   8.994  13.867  11.581
15732SOL     OW49092   2.201   5.346   9.928
15732SOL    HW149093   2.274   5.297   9.967
15732SOL    HW249094   2.211   5.435   9.962
15733SOL     OW49095   5.370   4.609   8.411
15733SOL    HW149096   5.422   4.679   8.449
15733SOL    HW249097   5.397   4.529   8.457
15734SOL     OW49098  10.352  13.983  11.826
15734SOL    HW149099  10.399  14.032  11.893
15734SOL    HW249100  10.395  14.007  11.744
15735SOL     OW49101   0.949  13.566   9.004
15735SOL    HW149102   0.968  13.511   8.927
15735SOL    HW249103   0.897  13.638   8.969
15736SOL     OW49104   8.152  13.503   2.637
15736SOL    HW149105   8.137  13.408   2.632
15736SOL    HW249106   8.211  13.521   2.563
15737SOL     OW49107   4.957   7.894   7.107
15737SOL    HW149108   4.908   7.914   7.186
15737SOL    HW249109   5.026   7.961   7.104
15738SOL     OW49110   3.617   4.419  13.699
15738SOL    HW149111   3.677   4.493  13.699
15738SOL    HW249112   3.603   4.399  13.791
15739SOL     OW49113  12.454  10.749   4.814
15739SOL    HW149114  12.522  10.771   4.878
15739SOL    HW249115  12.373  10.785   4.851
15740SOL     OW49116   2.877   7.941   3.934
15740SOL    HW149117   2.837   8.027   3.923
15740SOL    HW249118   2.830   7.901   4.007
15741SOL     OW49119   1.999   5.727   1.208
15741SOL    HW149120   1.961   5.772   1.283
15741SOL    HW249121   1.924   5.699   1.156
15742SOL     OW49122   0.011   2.236  10.039
15742SOL    HW149123   0.006   2.322   9.997
15742SOL    HW249124  14.797   2.223  10.079
15743SOL     OW49125   3.052   1.439  11.899
15743SOL    HW149126   2.963   1.469  11.881
15743SOL    HW249127   3.050   1.413  11.991
15744SOL     OW49128   9.990  13.695   4.042
15744SOL    HW149129   9.941  13.613   4.045
15744SOL    HW249130  10.009  13.709   3.950
15745SOL     OW49131  10.464   2.471   3.817
15745SOL    HW149132  10.443   2.541   3.879
15745SOL    HW249133  10.424   2.393   3.855
15746SOL     OW49134   5.902   1.821   8.613
15746SOL    HW149135   5.884   1.822   8.707
15746SOL    HW249136   5.817   1.834   8.572
15747SOL     OW49137   2.101  11.562   4.392
15747SOL    HW149138   2.028  11.622   4.376
15747SOL    HW249139   2.178  11.611   4.362
15748SOL     OW49140   3.657   7.354  13.598
15748SOL    HW149141   3.609   7.410  13.659
15748SOL    HW249142   3.620   7.377  13.512
15749SOL     OW49143  11.742   3.206   6.818
15749SOL    HW149144  11.676   3.271   6.843
15749SOL    HW249145  11.692   3.141   6.767
15750SOL     OW49146   9.630   3.981   8.471
15750SOL    HW149147   9.586   3.930   8.403
15750SOL    HW249148   9.613   3.934   8.552
15751SOL     OW49149   5.660  11.704  11.743
15751SOL    HW149150   5.724  11.758  11.788
15751SOL    HW249151   5.711  11.654  11.679
15752SOL     OW49152   9.748   8.071  10.375
15752SOL    HW149153   9.693   8.108  10.306
15752SOL    HW249154   9.837   8.086  10.345
15753SOL     OW49155  11.519   4.881   5.976
15753SOL    HW149156  11.598   4.889   6.029
15753SOL    HW249157  11.452   4.849   6.037
15754SOL     OW49158   1.351   6.813   0.660
15754SOL    HW149159   1.415   6.745   0.683
15754SOL    HW249160   1.269   6.784   0.700
15755SOL     OW49161   8.324   4.509   7.574
15755SOL    HW149162   8.277   4.475   7.649
15755SOL    HW249163   8.263   4.569   7.531
15756SOL     OW49164   3.680   2.396   4.420
15756SOL    HW149165   3.724   2.363   4.498
15756SOL    HW249166   3.740   2.374   4.348
15757SOL     OW49167   9.936   7.458   7.465
15757SOL    HW149168  10.004   7.522   7.484
15757SOL    HW249169   9.979   7.373   7.472
15758SOL     OW49170   0.361   2.918   6.118
15758SOL    HW149171   0.369   2.822   6.120
15758SOL    HW249172   0.272   2.936   6.149
15759SOL     OW49173   3.412  11.888   7.310
15759SOL    HW149174   3.470  11.910   7.238
15759SOL    HW249175   3.454  11.926   7.387
15760SOL     OW49176   6.105  12.352   4.617
15760SOL    HW149177   6.096  12.330   4.524
15760SOL    HW249178   6.143  12.440   4.617
15761SOL     OW49179   0.010  13.941   2.819
15761SOL    HW149180   0.007  13.919   2.726
15761SOL    HW249181  14.847  13.864   2.863
15762SOL     OW49182   2.709  13.609   3.227
15762SOL    HW149183   2.775  13.677   3.220
15762SOL    HW249184   2.707  13.568   3.140
15763SOL     OW49185   0.909   5.499   9.015
15763SOL    HW149186   0.858   5.540   8.945
15763SOL    HW249187   0.976   5.449   8.970
15764SOL     OW49188  12.725   8.986   9.344
15764SOL    HW149189  12.738   8.894   9.322
15764SOL    HW249190  12.798   9.032   9.301
15765SOL     OW49191   9.855   2.290  10.442
15765SOL    HW149192   9.933   2.236  10.451
15765SOL    HW249193   9.785   2.238  10.482
15766SOL     OW49194   5.057   3.836   4.849
15766SOL    HW149195   5.018   3.749   4.862
15766SOL    HW249196   5.127   3.821   4.786
15767SOL     OW49197   7.087   6.830  12.362
15767SOL    HW149198   7.056   6.826  12.272
15767SOL    HW249199   7.118   6.921  12.372
15768SOL     OW49200   7.271   4.240  12.473
15768SOL    HW149201   7.193   4.185  12.460
15768SOL    HW249202   7.344   4.179  12.471
15769SOL     OW49203   3.172   6.341   6.748
15769SOL    HW149204   3.254   6.376   6.713
15769SOL    HW249205   3.128   6.417   6.787
15770SOL     OW49206  10.298   8.588   4.705
15770SOL    HW149207  10.376   8.615   4.657
15770SOL    HW249208  10.250   8.669   4.721
15771SOL     OW49209   4.435  11.254   3.816
15771SOL    HW149210   4.363  11.309   3.847
15771SOL    HW249211   4.487  11.312   3.759
15772SOL     OW49212   9.877   4.972  12.371
15772SOL    HW149213   9.791   4.929  12.374
15772SOL    HW249214   9.887   5.000  12.280
15773SOL     OW49215  11.585   9.145   7.449
15773SOL    HW149216  11.645   9.078   7.481
15773SOL    HW249217  11.618   9.168   7.362
15774SOL     OW49218  11.121   1.089   3.695
15774SOL    HW149219  11.195   1.093   3.755
15774SOL    HW249220  11.104   0.996   3.684
15775SOL     OW49221   9.854   0.742   2.451
15775SOL    HW149222   9.776   0.797   2.438
15775SOL    HW249223   9.926   0.803   2.457
15776SOL     OW49224  14.629   5.700   6.356
15776SOL    HW149225  14.695   5.751   6.403
15776SOL    HW249226  14.573   5.765   6.315
15777SOL     OW49227   4.238   4.796  13.106
15777SOL    HW149228   4.232   4.881  13.148
15777SOL    HW249229   4.295   4.744  13.163
15778SOL     OW49230   2.593  14.300  12.317
15778SOL    HW149231   2.672  14.274  12.364
15778SOL    HW249232   2.588  14.238  12.244
15779SOL     OW49233  14.320   7.007  13.187
15779SOL    HW149234  14.276   7.046  13.262
15779SOL    HW249235  14.409   7.042  13.191
15780SOL     OW49236   0.102   2.362   7.431
15780SOL    HW149237   0.112   2.273   7.467
15780SOL    HW249238   0.053   2.350   7.350
15781SOL     OW49239  14.072   0.562  10.420
15781SOL    HW149240  14.040   0.604  10.500
15781SOL    HW249241  14.011   0.591  10.352
15782SOL     OW49242   7.543   7.914   3.033
15782SOL    HW149243   7.529   7.829   3.075
15782SOL    HW249244   7.552   7.976   3.106
15783SOL     OW49245   9.084  10.493   7.125
15783SOL    HW149246   9.000  10.536   7.142
15783SOL    HW249247   9.061  10.404   7.100
15784SOL     OW49248   7.362   1.119  10.302
15784SOL    HW149249   7.317   1.059  10.243
15784SOL    HW249250   7.455   1.096  10.293
15785SOL     OW49251  11.760   5.471   4.096
15785SOL    HW149252  11.666   5.492   4.099
15785SOL    HW249253  11.796   5.535   4.034
15786SOL     OW49254  14.132   9.849   1.564
15786SOL    HW149255  14.185   9.786   1.515
15786SOL    HW249256  14.185   9.869   1.641
15787SOL     OW49257  13.192   0.159   9.397
15787SOL    HW149258  13.134   0.104   9.451
15787SOL    HW249259  13.260   0.099   9.367
15788SOL     OW49260   9.560   4.158   2.771
15788SOL    HW149261   9.560   4.160   2.676
15788SOL    HW249262   9.517   4.239   2.797
15789SOL     OW49263  11.460   3.883   8.363
15789SOL    HW149264  11.494   3.795   8.348
15789SOL    HW249265  11.500   3.936   8.293
15790SOL     OW49266  13.758   7.787   6.501
15790SOL    HW149267  13.700   7.765   6.428
15790SOL    HW249268  13.845   7.797   6.461
15791SOL     OW49269   7.617   7.523  10.152
15791SOL    HW149270   7.679   7.541  10.223
15791SOL    HW249271   7.534   7.558  10.183
15792SOL     OW49272   5.510  14.502   1.609
15792SOL    HW149273   5.429  14.480   1.655
15792SOL    HW249274   5.538  14.420   1.569
15793SOL     OW49275   6.582  12.960   7.899
15793SOL    HW149276   6.642  12.898   7.941
15793SOL    HW249277   6.633  12.998   7.827
15794SOL     OW49278   0.447   4.268  11.224
15794SOL    HW149279   0.499   4.309  11.293
15794SOL    HW249280   0.420   4.184  11.261
15795SOL     OW49281   5.071   0.304   7.692
15795SOL    HW149282   5.046   0.225   7.740
15795SOL    HW249283   5.064   0.374   7.757
15796SOL     OW49284   8.507  12.678   9.509
15796SOL    HW149285   8.514  12.598   9.562
15796SOL    HW249286   8.412  12.691   9.500
15797SOL     OW49287  10.253   7.209   8.144
15797SOL    HW149288  10.163   7.182   8.124
15797SOL    HW249289  10.303   7.128   8.146
15798SOL     OW49290   5.766  11.281  13.301
15798SOL    HW149291   5.739  11.279  13.209
15798SOL    HW249292   5.804  11.195  13.316
15799SOL     OW49293   3.243  10.881  14.544
15799SOL    HW149294   3.334  10.864  14.521
15799SOL    HW249295   3.198  10.797  14.529
15800SOL     OW49296   2.482   5.110  12.605
15800SOL    HW149297   2.464   5.057  12.527
15800SOL    HW249298   2.401   5.159  12.620
15801SOL     OW49299   8.206   9.221  13.177
15801SOL    HW149300   8.135   9.222  13.241
15801SOL    HW249301   8.254   9.302  13.195
15802SOL     OW49302   3.477   8.485  12.299
15802SOL    HW149303   3.545   8.528  12.350
15802SOL    HW249304   3.489   8.391  12.317
15803SOL     OW49305  10.162   8.202   9.712
15803SOL    HW149306  10.158   8.110   9.683
15803SOL    HW249307  10.224   8.243   9.651
15804SOL     OW49308   3.271   0.659  11.768
15804SOL    HW149309   3.332   0.644  11.841
15804SOL    HW249310   3.252   0.753  11.772
15805SOL     OW49311   5.389  12.426   6.120
15805SOL    HW149312   5.449  12.371   6.171
15805SOL    HW249313   5.303  12.410   6.159
15806SOL     OW49314   9.493   3.252   6.398
15806SOL    HW149315   9.562   3.305   6.360
15806SOL    HW249316   9.453   3.309   6.464
15807SOL     OW49317   8.559   6.174   0.947
15807SOL    HW149318   8.635   6.232   0.955
15807SOL    HW249319   8.517   6.177   1.033
15808SOL     OW49320   8.554   2.693   5.025
15808SOL    HW149321   8.624   2.744   4.984
15808SOL    HW249322   8.478   2.708   4.968
15809SOL     OW49323   2.563   5.198   8.704
15809SOL    HW149324   2.471   5.226   8.702
15809SOL    HW249325   2.589   5.209   8.795
15810SOL     OW49326   4.253   3.728   3.213
15810SOL    HW149327   4.270   3.818   3.186
15810SOL    HW249328   4.308   3.675   3.155
15811SOL     OW49329   5.952   8.822   8.492
15811SOL    HW149330   5.979   8.747   8.439
15811SOL    HW249331   6.034   8.854   8.531
15812SOL     OW49332   2.944   1.065   0.309
15812SOL    HW149333   2.853   1.072   0.280
15812SOL    HW249334   2.987   1.143   0.275
15813SOL     OW49335   8.757   0.536  11.034
15813SOL    HW149336   8.831   0.590  11.060
15813SOL    HW249337   8.791   0.447  11.032
15814SOL     OW49338  13.339   8.419  12.248
15814SOL    HW149339  13.371   8.509  12.253
15814SOL    HW249340  13.310   8.399  12.337
15815SOL     OW49341   5.747  14.356   9.244
15815SOL    HW149342   5.677  14.310   9.290
15815SOL    HW249343   5.721  14.354   9.152
15816SOL     OW49344   4.571   9.114  14.400
15816SOL    HW149345   4.621   9.066  14.333
15816SOL    HW249346   4.574   9.058  14.477
15817SOL     OW49347  12.211   7.046  13.242
15817SOL    HW149348  12.303   7.021  13.233
15817SOL    HW249349  12.164   6.963  13.249
15818SOL     OW49350   2.412   6.060   7.482
15818SOL    HW149351   2.433   6.152   7.496
15818SOL    HW249352   2.467   6.034   7.407
15819SOL     OW49353  13.159   8.608   2.604
15819SOL    HW149354  13.251   8.635   2.614
15819SOL    HW249355  13.163   8.519   2.570
15820SOL     OW49356  10.176   2.611   6.036
15820SOL    HW149357  10.181   2.705   6.056
15820SOL    HW249358  10.135   2.607   5.950
15821SOL     OW49359  12.626  11.658   0.993
15821SOL    HW149360  12.663  11.735   1.036
15821SOL    HW249361  12.588  11.605   1.063
15822SOL     OW49362  12.580   0.051   2.280
15822SOL    HW149363  12.541   0.093   2.203
15822SOL    HW249364  12.608   0.125   2.335
15823SOL     OW49365   0.820   1.867   3.738
15823SOL    HW149366   0.741   1.868   3.793
15823SOL    HW249367   0.792   1.824   3.657
15824SOL     OW49368  10.428  14.453   7.351
15824SOL    HW149369  10.340  14.491   7.354
15824SOL    HW249370  10.421  14.372   7.400
15825SOL     OW49371   8.389   6.175   1.175
15825SOL    HW149372   8.420   6.229   1.248
15825SOL    HW249373   8.345   6.101   1.216
15826SOL     OW49374   3.785  12.947  12.710
15826SOL    HW149375   3.880  12.939  12.722
15826SOL    HW249376   3.759  13.010  12.778
15827SOL     OW49377  14.758   2.640   7.421
15827SOL    HW149378  14.785   2.556   7.458
15827SOL    HW249379  14.831   2.699   7.439
15828SOL     OW49380   6.676   4.088  12.045
15828SOL    HW149381   6.768   4.091  12.070
15828SOL    HW249382   6.674   4.034  11.966
15829SOL     OW49383   5.305  12.515   1.402
15829SOL    HW149384   5.339  12.592   1.355
15829SOL    HW249385   5.271  12.549   1.484
15830SOL     OW49386  11.389  11.717   9.139
15830SOL    HW149387  11.370  11.624   9.124
15830SOL    HW249388  11.307  11.762   9.120
15831SOL     OW49389   3.662   6.336   0.304
15831SOL    HW149390   3.679   6.349   0.397
15831SOL    HW249391   3.693   6.247   0.286
15832SOL     OW49392   3.082  10.475   8.200
15832SOL    HW149393   3.041  10.558   8.225
15832SOL    HW249394   3.048  10.457   8.112
15833SOL     OW49395  10.674   0.278   2.727
15833SOL    HW149396  10.702   0.259   2.816
15833SOL    HW249397  10.699   0.370   2.713
15834SOL     OW49398   8.011   3.550   6.678
15834SOL    HW149399   7.936   3.574   6.734
15834SOL    HW249400   8.048   3.473   6.720
15835SOL     OW49401   1.743   5.799  10.137
15835SOL    HW149402   1.684   5.782  10.063
15835SOL    HW249403   1.747   5.716  10.184
15836SOL     OW49404  11.577  11.994   7.782
15836SOL    HW149405  11.598  11.951   7.699
15836SOL    HW249406  11.657  11.985   7.834
15837SOL     OW49407   2.345   7.745   7.216
15837SOL    HW149408   2.419   7.730   7.275
15837SOL    HW249409   2.358   7.682   7.145
15838SOL     OW49410  11.895   3.170   8.386
15838SOL    HW149411  11.896   3.154   8.480
15838SOL    HW249412  11.839   3.101   8.351
15839SOL     OW49413  14.845  11.788   3.299
15839SOL    HW149414  14.753  11.773   3.276
15839SOL    HW249415  14.871  11.864   3.246
15840SOL     OW49416   4.370   2.176   7.179
15840SOL    HW149417   4.310   2.249   7.194
15840SOL    HW249418   4.316   2.098   7.191
15841SOL     OW49419  10.072  13.818  11.495
15841SOL    HW149420  10.133  13.808  11.569
15841SOL    HW249421   9.992  13.853  11.534
15842SOL     OW49422   9.143   9.157   1.836
15842SOL    HW149423   9.211   9.202   1.787
15842SOL    HW249424   9.166   9.173   1.928
15843SOL     OW49425  11.640   6.299   1.956
15843SOL    HW149426  11.647   6.392   1.977
15843SOL    HW249427  11.610   6.258   2.037
15844SOL     OW49428   9.800   8.177   6.553
15844SOL    HW149429   9.717   8.144   6.519
15844SOL    HW249430   9.783   8.270   6.571
15845SOL     OW49431   5.049   9.645  11.756
15845SOL    HW149432   4.970   9.594  11.739
15845SOL    HW249433   5.080   9.615  11.841
15846SOL     OW49434   0.207   3.167   9.270
15846SOL    HW149435   0.174   3.118   9.195
15846SOL    HW249436   0.132   3.220   9.298
15847SOL     OW49437   0.501   4.897   3.565
15847SOL    HW149438   0.516   4.895   3.470
15847SOL    HW249439   0.482   4.989   3.584
15848SOL     OW49440   4.583   2.732  14.031
15848SOL    HW149441   4.581   2.714  14.125
15848SOL    HW249442   4.506   2.688  13.996
15849SOL     OW49443   4.248   1.410  11.237
15849SOL    HW149444   4.318   1.464  11.200
15849SOL    HW249445   4.287   1.323  11.245
15850SOL     OW49446  11.170  11.546  13.775
15850SOL    HW149447  11.248  11.516  13.821
15850SOL    HW249448  11.178  11.507  13.687
15851SOL     OW49449   7.042   3.590   6.373
15851SOL    HW149450   7.125   3.563   6.412
15851SOL    HW249451   6.999   3.642   6.441
15852SOL     OW49452   4.514   8.922   5.999
15852SOL    HW149453   4.555   8.997   5.956
15852SOL    HW249454   4.427   8.917   5.960
15853SOL     OW49455   7.847   9.308   2.034
15853SOL    HW149456   7.857   9.233   1.976
15853SOL    HW249457   7.935   9.325   2.068
15854SOL     OW49458   8.916   6.982   2.781
15854SOL    HW149459   8.913   6.893   2.746
15854SOL    HW249460   8.909   7.039   2.704
15855SOL     OW49461   8.546   4.658   4.390
15855SOL    HW149462   8.511   4.654   4.479
15855SOL    HW249463   8.470   4.674   4.335
15856SOL     OW49464   5.141   3.290   4.042
15856SOL    HW149465   5.061   3.307   3.993
15856SOL    HW249466   5.209   3.342   3.998
15857SOL     OW49467   6.730  14.783   7.084
15857SOL    HW149468   6.721   0.002   7.112
15857SOL    HW249469   6.819  14.778   7.049
15858SOL     OW49470  14.315   9.285  14.601
15858SOL    HW149471  14.389   9.305  14.658
15858SOL    HW249472  14.241   9.276  14.660
15859SOL     OW49473  11.579   3.312   4.832
15859SOL    HW149474  11.588   3.402   4.863
15859SOL    HW249475  11.607   3.315   4.740
15860SOL     OW49476   5.154   2.655   5.192
15860SOL    HW149477   5.210   2.634   5.267
15860SOL    HW249478   5.126   2.746   5.208
15861SOL     OW49479  10.117   3.121   7.893
15861SOL    HW149480  10.136   3.214   7.878
15861SOL    HW249481  10.157   3.102   7.978
15862SOL     OW49482   0.611  10.158   4.639
15862SOL    HW149483   0.683  10.125   4.585
15862SOL    HW249484   0.631  10.127   4.727
15863SOL     OW49485  12.022   3.848   8.766
15863SOL    HW149486  12.061   3.932   8.791
15863SOL    HW249487  12.056   3.785   8.830
15864SOL     OW49488  14.062   6.708   4.995
15864SOL    HW149489  14.004   6.758   5.051
15864SOL    HW249490  14.075   6.763   4.918
15865SOL     OW49491   4.277   7.883  13.126
15865SOL    HW149492   4.277   7.877  13.030
15865SOL    HW249493   4.290   7.793  13.155
15866SOL     OW49494   2.963  12.396   3.622
15866SOL    HW149495   2.961  12.484   3.661
15866SOL    HW249496   3.056  12.375   3.616
15867SOL     OW49497  11.549   2.461  11.185
15867SOL    HW149498  11.477   2.428  11.239
15867SOL    HW249499  11.570   2.547  11.223
15868SOL     OW49500  14.395  13.001   8.665
15868SOL    HW149501  14.413  12.921   8.616
15868SOL    HW249502  14.448  13.068   8.623
15869SOL     OW49503   3.025   3.208   6.051
15869SOL    HW149504   3.115   3.232   6.029
15869SOL    HW249505   2.976   3.223   5.970
15870SOL     OW49506   9.937   1.627   7.796
15870SOL    HW149507   9.929   1.602   7.888
15870SOL    HW249508   9.870   1.574   7.751
15871SOL     OW49509  10.721   2.371   9.312
15871SOL    HW149510  10.778   2.377   9.389
15871SOL    HW249511  10.751   2.292   9.267
15872SOL     OW49512   0.075  12.016   8.818
15872SOL    HW149513   0.051  11.944   8.877
15872SOL    HW249514   0.147  11.982   8.766
15873SOL     OW49515   3.493   6.393  13.666
15873SOL    HW149516   3.433   6.467  13.654
15873SOL    HW249517   3.503   6.385  13.760
15874SOL     OW49518  10.830   9.120   7.758
15874SOL    HW149519  10.786   9.128   7.843
15874SOL    HW249520  10.918   9.155   7.773
15875SOL     OW49521   9.478   1.044   2.335
15875SOL    HW149522   9.437   1.126   2.306
15875SOL    HW249523   9.565   1.044   2.295
15876SOL     OW49524   6.675   6.142   4.858
15876SOL    HW149525   6.630   6.081   4.799
15876SOL    HW249526   6.685   6.094   4.940
15877SOL     OW49527   1.044   1.889  13.822
15877SOL    HW149528   1.010   1.964  13.774
15877SOL    HW249529   1.131   1.874  13.785
15878SOL     OW49530  12.777  13.613   7.926
15878SOL    HW149531  12.726  13.615   7.845
15878SOL    HW249532  12.867  13.624   7.897
15879SOL     OW49533   6.165   0.622  11.225
15879SOL    HW149534   6.187   0.715  11.215
15879SOL    HW249535   6.179   0.585  11.138
15880SOL     OW49536  11.792  10.450   2.450
15880SOL    HW149537  11.864  10.412   2.400
15880SOL    HW249538  11.713  10.421   2.405
15881SOL     OW49539   8.988  14.522   1.549
15881SOL    HW149540   9.075  14.504   1.514
15881SOL    HW249541   8.989  14.483   1.636
15882SOL     OW49542   8.431  11.876   7.162
15882SOL    HW149543   8.449  11.944   7.227
15882SOL    HW249544   8.385  11.921   7.092
15883SOL     OW49545   8.744   5.790   6.441
15883SOL    HW149546   8.742   5.762   6.533
15883SOL    HW249547   8.835   5.778   6.415
15884SOL     OW49548   0.955   7.735   4.786
15884SOL    HW149549   0.915   7.694   4.709
15884SOL    HW249550   1.049   7.721   4.775
15885SOL     OW49551   6.177   7.211   4.402
15885SOL    HW149552   6.091   7.194   4.364
15885SOL    HW249553   6.160   7.218   4.496
15886SOL     OW49554   9.929   1.115   4.532
15886SOL    HW149555   9.955   1.131   4.623
15886SOL    HW249556  10.008   1.082   4.490
15887SOL     OW49557  13.708   6.065   4.544
15887SOL    HW149558  13.632   6.105   4.587
15887SOL    HW249559  13.744   6.135   4.489
15888SOL     OW49560  13.799   8.870   7.414
15888SOL    HW149561  13.881   8.848   7.370
15888SOL    HW249562  13.737   8.803   7.385
15889SOL     OW49563   3.914   6.121   2.018
15889SOL    HW149564   4.003   6.087   2.017
15889SOL    HW249565   3.865   6.061   1.961
15890SOL     OW49566  12.545   3.714   0.801
15890SOL    HW149567  12.476   3.684   0.861
15890SOL    HW249568  12.498   3.759   0.731
15891SOL     OW49569  13.240   6.089   5.055
15891SOL    HW149570  13.289   6.010   5.032
15891SOL    HW249571  13.269   6.154   4.991
15892SOL     OW49572   8.706  12.648   8.591
15892SOL    HW149573   8.710  12.603   8.675
15892SOL    HW249574   8.793  12.685   8.579
15893SOL     OW49575   6.762   5.655   0.566
15893SOL    HW149576   6.825   5.623   0.501
15893SOL    HW249577   6.713   5.724   0.520
15894SOL     OW49578   1.225   2.439  13.465
15894SOL    HW149579   1.253   2.353  13.433
15894SOL    HW249580   1.306   2.486  13.484
15895SOL     OW49581   1.010  11.527   6.767
15895SOL    HW149582   1.073  11.483   6.825
15895SOL    HW249583   0.973  11.596   6.822
15896SOL     OW49584   9.044  10.197  11.119
15896SOL    HW149585   8.960  10.188  11.074
15896SOL    HW249586   9.047  10.125  11.181
15897SOL     OW49587   3.270   5.716   2.157
15897SOL    HW149588   3.283   5.755   2.071
15897SOL    HW249589   3.176   5.720   2.172
15898SOL     OW49590   4.636  12.748   3.948
15898SOL    HW149591   4.545  12.767   3.923
15898SOL    HW249592   4.629  12.691   4.024
15899SOL     OW49593   6.179   4.405   4.897
15899SOL    HW149594   6.147   4.426   4.809
15899SOL    HW249595   6.100   4.384   4.946
15900SOL     OW49596   0.878   4.257   6.883
15900SOL    HW149597   0.960   4.211   6.900
15900SOL    HW249598   0.810   4.195   6.909
15901SOL     OW49599  12.035  11.146   3.273
15901SOL    HW149600  12.124  11.133   3.240
15901SOL    HW249601  11.978  11.111   3.204
15902SOL     OW49602  11.229   4.892  10.854
15902SOL    HW149603  11.190   4.967  10.898
15902SOL    HW249604  11.160   4.825  10.857
15903SOL     OW49605   9.324   9.969   2.445
15903SOL    HW149606   9.289   9.904   2.384
15903SOL    HW249607   9.413   9.941   2.462
15904SOL     OW49608   4.946   9.713  13.187
15904SOL    HW149609   4.951   9.654  13.112
15904SOL    HW249610   5.018   9.686  13.244
15905SOL     OW49611   9.127   0.588   4.321
15905SOL    HW149612   9.085   0.638   4.251
15905SOL    HW249613   9.170   0.654   4.376
15906SOL     OW49614  14.749   6.365   3.561
15906SOL    HW149615  14.787   6.449   3.537
15906SOL    HW249616  14.689   6.385   3.633
15907SOL     OW49617  13.251  12.524   2.216
15907SOL    HW149618  13.164  12.498   2.247
15907SOL    HW249619  13.310  12.494   2.285
15908SOL     OW49620  12.498   4.289   1.673
15908SOL    HW149621  12.520   4.366   1.724
15908SOL    HW249622  12.429   4.318   1.613
15909SOL     OW49623   1.078   1.850   4.343
15909SOL    HW149624   1.108   1.910   4.411
15909SOL    HW249625   0.983   1.855   4.345
15910SOL     OW49626  14.631   1.934  10.017
15910SOL    HW149627  14.713   1.900  10.051
15910SOL    HW249628  14.619   1.888   9.933
15911SOL     OW49629   5.529  10.641  11.717
15911SOL    HW149630   5.463  10.574  11.734
15911SOL    HW249631   5.612  10.594  11.717
15912SOL     OW49632   3.482  12.627   3.640
15912SOL    HW149633   3.500  12.595   3.729
15912SOL    HW249634   3.424  12.702   3.653
15913SOL     OW49635   4.355   8.846   6.682
15913SOL    HW149636   4.414   8.919   6.661
15913SOL    HW249637   4.384   8.816   6.768
15914SOL     OW49638  12.396   7.733  12.018
15914SOL    HW149639  12.368   7.803  12.077
15914SOL    HW249640  12.322   7.673  12.016
15915SOL     OW49641   8.983  12.585  11.556
15915SOL    HW149642   8.932  12.542  11.625
15915SOL    HW249643   8.919  12.637  11.507
15916SOL     OW49644   9.199   1.205   0.869
15916SOL    HW149645   9.171   1.161   0.950
15916SOL    HW249646   9.267   1.149   0.833
15917SOL     OW49647  13.354  14.140   6.278
15917SOL    HW149648  13.423  14.085   6.240
15917SOL    HW249649  13.290  14.150   6.208
15918SOL     OW49650  13.236   8.833  14.822
15918SOL    HW149651  13.227   8.908   0.009
15918SOL    HW249652  13.236   8.871  14.734
15919SOL     OW49653   9.880   3.407  14.703
15919SOL    HW149654   9.969   3.428  14.674
15919SOL    HW249655   9.876   3.439  14.793
15920SOL     OW49656  12.442   2.964  11.037
15920SOL    HW149657  12.465   2.900  11.104
15920SOL    HW249658  12.415   3.041  11.086
15921SOL     OW49659   4.425   1.988   2.191
15921SOL    HW149660   4.395   1.994   2.100
15921SOL    HW249661   4.360   1.932   2.233
15922SOL     OW49662   5.135   0.019   8.399
15922SOL    HW149663   5.060  14.834   8.381
15922SOL    HW249664   5.210  14.843   8.363
15923SOL     OW49665   4.967  14.256  11.484
15923SOL    HW149666   5.013  14.172  11.494
15923SOL    HW249667   4.981  14.280  11.392
15924SOL     OW49668  12.418   6.036  11.788
15924SOL    HW149669  12.502   6.078  11.807
15924SOL    HW249670  12.358   6.109  11.770
15925SOL     OW49671   7.692  14.629   9.052
15925SOL    HW149672   7.697  14.725   9.051
15925SOL    HW249673   7.702  14.604   8.960
15926SOL     OW49674   3.545   5.635   3.324
15926SOL    HW149675   3.613   5.639   3.256
15926SOL    HW249676   3.563   5.552   3.369
15927SOL     OW49677   4.432   8.878  12.566
15927SOL    HW149678   4.459   8.869  12.475
15927SOL    HW249679   4.471   8.802  12.609
15928SOL     OW49680   0.136  14.759   8.561
15928SOL    HW149681   0.144  14.664   8.550
15928SOL    HW249682   0.042  14.775   8.572
15929SOL     OW49683   2.910   2.572   6.334
15929SOL    HW149684   2.884   2.492   6.379
15929SOL    HW249685   2.879   2.643   6.391
15930SOL     OW49686   6.352   4.616  14.578
15930SOL    HW149687   6.268   4.645  14.615
15930SOL    HW249688   6.339   4.523  14.560
15931SOL     OW49689   0.505  11.901  14.563
15931SOL    HW149690   0.517  11.941  14.649
15931SOL    HW249691   0.410  11.904  14.548
15932SOL     OW49692   3.840   7.824  12.710
15932SOL    HW149693   3.774   7.861  12.768
15932SOL    HW249694   3.797   7.750  12.667
15933SOL     OW49695   1.660  14.573   5.844
15933SOL    HW149696   1.574  14.613   5.854
15933SOL    HW249697   1.659  14.536   5.756
15934SOL     OW49698  10.561   4.960   3.628
15934SOL    HW149699  10.583   4.992   3.540
15934SOL    HW249700  10.615   4.881   3.638
15935SOL     OW49701  11.493  12.688   4.462
15935SOL    HW149702  11.423  12.725   4.409
15935SOL    HW249703  11.558  12.758   4.470
15936SOL     OW49704   7.475   5.225   8.867
15936SOL    HW149705   7.428   5.156   8.822
15936SOL    HW249706   7.442   5.306   8.828
15937SOL     OW49707   3.830   9.618   3.446
15937SOL    HW149708   3.895   9.657   3.388
15937SOL    HW249709   3.848   9.524   3.443
15938SOL     OW49710  11.616  14.222   9.523
15938SOL    HW149711  11.689  14.236   9.584
15938SOL    HW249712  11.588  14.310   9.500
15939SOL     OW49713   9.452  13.086   9.844
15939SOL    HW149714   9.394  13.050   9.911
15939SOL    HW249715   9.485  13.167   9.882
15940SOL     OW49716  12.867   4.051   4.224
15940SOL    HW149717  12.835   3.964   4.199
15940SOL    HW249718  12.942   4.067   4.166
15941SOL     OW49719   2.622   6.461  14.676
15941SOL    HW149720   2.683   6.392  14.703
15941SOL    HW249721   2.646   6.537  14.730
15942SOL     OW49722  12.317   3.354  13.742
15942SOL    HW149723  12.271   3.278  13.777
15942SOL    HW249724  12.311   3.343  13.647
15943SOL     OW49725   0.543   5.767  12.814
15943SOL    HW149726   0.604   5.839  12.801
15943SOL    HW249727   0.509   5.749  12.726
15944SOL     OW49728   0.776   6.410  12.827
15944SOL    HW149729   0.858   6.459  12.826
15944SOL    HW249730   0.752   6.401  12.735
15945SOL     OW49731   8.998  11.638   3.100
15945SOL    HW149732   9.061  11.574   3.067
15945SOL    HW249733   9.012  11.639   3.195
15946SOL     OW49734  11.144  11.942  11.127
15946SOL    HW149735  11.191  11.884  11.067
15946SOL    HW249736  11.103  12.006  11.070
15947SOL     OW49737   1.272   2.005   1.900
15947SOL    HW149738   1.235   2.085   1.864
15947SOL    HW249739   1.297   2.028   1.990
15948SOL     OW49740  14.551   9.656   2.073
15948SOL    HW149741  14.545   9.749   2.093
15948SOL    HW249742  14.610   9.621   2.141
15949SOL     OW49743   1.438  11.271   9.622
15949SOL    HW149744   1.481  11.187   9.633
15949SOL    HW249745   1.451  11.316   9.706
15950SOL     OW49746   8.181   8.177   0.100
15950SOL    HW149747   8.238   8.254   0.108
15950SOL    HW249748   8.100   8.202   0.143
15951SOL     OW49749   3.170  10.288   8.385
15951SOL    HW149750   3.175  10.337   8.303
15951SOL    HW249751   3.118  10.211   8.364
15952SOL     OW49752   9.773  13.660  12.544
15952SOL    HW149753   9.682  13.635  12.525
15952SOL    HW249754   9.770  13.691  12.635
15953SOL     OW49755  13.541   7.243   5.118
15953SOL    HW149756  13.579   7.232   5.205
15953SOL    HW249757  13.481   7.316   5.127
15954SOL     OW49758   9.519   9.770   3.871
15954SOL    HW149759   9.614   9.784   3.879
15954SOL    HW249760   9.482   9.858   3.870
15955SOL     OW49761   4.892   4.403   0.355
15955SOL    HW149762   4.808   4.380   0.395
15955SOL    HW249763   4.925   4.475   0.408
15956SOL     OW49764  13.891   3.115   2.719
15956SOL    HW149765  13.895   3.053   2.792
15956SOL    HW249766  13.892   3.201   2.762
15957SOL     OW49767   4.501   6.727  12.939
15957SOL    HW149768   4.532   6.742  12.850
15957SOL    HW249769   4.476   6.813  12.971
15958SOL     OW49770   3.114  10.748  11.507
15958SOL    HW149771   3.097  10.753  11.601
15958SOL    HW249772   3.191  10.692  11.499
15959SOL     OW49773   5.413   9.143   1.470
15959SOL    HW149774   5.406   9.109   1.559
15959SOL    HW249775   5.323   9.167   1.447
15960SOL     OW49776   0.838   8.451  12.287
15960SOL    HW149777   0.927   8.417  12.275
15960SOL    HW249778   0.847   8.518  12.355
15961SOL     OW49779   4.180   7.632   2.386
15961SOL    HW149780   4.166   7.686   2.464
15961SOL    HW249781   4.231   7.557   2.418
15962SOL     OW49782  10.003  14.677  12.937
15962SOL    HW149783  10.076  14.620  12.909
15962SOL    HW249784  10.000  14.667  13.032
15963SOL     OW49785  11.636   9.928   5.027
15963SOL    HW149786  11.632   9.855   5.089
15963SOL    HW249787  11.613  10.005   5.080
15964SOL     OW49788  11.971   8.040   9.932
15964SOL    HW149789  11.925   7.961   9.957
15964SOL    HW249790  12.002   8.023   9.843
15965SOL     OW49791   0.835  11.327   9.451
15965SOL    HW149792   0.836  11.232   9.444
15965SOL    HW249793   0.745  11.351   9.427
15966SOL     OW49794   3.765  14.762   1.795
15966SOL    HW149795   3.712  14.782   1.718
15966SOL    HW249796   3.830  14.699   1.764
15967SOL     OW49797   7.850   6.211   6.100
15967SOL    HW149798   7.787   6.149   6.138
15967SOL    HW249799   7.868   6.273   6.170
15968SOL     OW49800   5.325   9.352   4.333
15968SOL    HW149801   5.342   9.326   4.242
15968SOL    HW249802   5.406   9.333   4.380
15969SOL     OW49803  10.117  14.426  10.111
15969SOL    HW149804  10.036  14.374  10.108
15969SOL    HW249805  10.128  14.459  10.022
15970SOL     OW49806   7.904   1.349  10.797
15970SOL    HW149807   7.860   1.281  10.847
15970SOL    HW249808   7.899   1.318  10.706
15971SOL     OW49809   0.796   1.560  10.726
15971SOL    HW149810   0.791   1.564  10.630
15971SOL    HW249811   0.816   1.650  10.753
15972SOL     OW49812   0.039   7.410  13.134
15972SOL    HW149813   0.059   7.466  13.058
15972SOL    HW249814   0.015   7.471  13.203
15973SOL     OW49815   0.971   0.433  11.003
15973SOL    HW149816   1.059   0.405  11.027
15973SOL    HW249817   0.946   0.494  11.073
15974SOL     OW49818  13.164   8.714   6.670
15974SOL    HW149819  13.248   8.674   6.650
15974SOL    HW249820  13.180   8.808   6.666
15975SOL     OW49821   0.373   4.291   3.372
15975SOL    HW149822   0.365   4.214   3.315
15975SOL    HW249823   0.366   4.365   3.312
15976SOL     OW49824   0.155   9.107   1.969
15976SOL    HW149825   0.096   9.182   1.972
15976SOL    HW249826   0.230   9.133   2.022
15977SOL     OW49827   1.123  13.250   5.901
15977SOL    HW149828   1.039  13.242   5.856
15977SOL    HW249829   1.120  13.337   5.941
15978SOL     OW49830  12.074   1.704  13.595
15978SOL    HW149831  12.094   1.611  13.598
15978SOL    HW249832  12.072   1.732  13.686
15979SOL     OW49833  12.386   2.587  14.851
15979SOL    HW149834  12.384   2.681  14.831
15979SOL    HW249835  12.385   2.545  14.765
15980SOL     OW49836   1.083   8.520   6.750
15980SOL    HW149837   1.082   8.496   6.658
15980SOL    HW249838   0.992   8.517   6.778
15981SOL     OW49839   7.174   1.027   4.795
15981SOL    HW149840   7.239   1.031   4.725
15981SOL    HW249841   7.135   0.940   4.787
15982SOL     OW49842   8.670  12.394   2.293
15982SOL    HW149843   8.594  12.451   2.298
15982SOL    HW249844   8.728  12.425   2.363
15983SOL     OW49845   6.432   1.819   3.777
15983SOL    HW149846   6.508   1.836   3.832
15983SOL    HW249847   6.359   1.810   3.838
15984SOL     OW49848  13.468   5.792   9.111
15984SOL    HW149849  13.554   5.756   9.132
15984SOL    HW249850  13.479   5.830   9.024
15985SOL     OW49851  13.631  14.235   1.580
15985SOL    HW149852  13.685  14.207   1.506
15985SOL    HW249853  13.684  14.216   1.657
15986SOL     OW49854   2.162   6.425  10.054
15986SOL    HW149855   2.156   6.357   9.987
15986SOL    HW249856   2.249   6.462  10.043
15987SOL     OW49857  14.001   9.854   2.768
15987SOL    HW149858  14.003   9.937   2.721
15987SOL    HW249859  13.966   9.791   2.706
15988SOL     OW49860  14.798   2.311   7.181
15988SOL    HW149861  14.734   2.327   7.251
15988SOL    HW249862  14.803   2.394   7.134
15989SOL     OW49863  11.047   2.334  11.157
15989SOL    HW149864  11.033   2.252  11.109
15989SOL    HW249865  11.123   2.374  11.116
15990SOL     OW49866  14.552   2.974  11.035
15990SOL    HW149867  14.600   2.918  10.973
15990SOL    HW249868  14.479   3.008  10.984
15991SOL     OW49869   5.005   6.076   0.024
15991SOL    HW149870   5.035   6.008  14.835
15991SOL    HW249871   4.914   6.093  14.869
15992SOL     OW49872   3.545  10.707   3.818
15992SOL    HW149873   3.463  10.756   3.815
15992SOL    HW249874   3.610  10.770   3.848
15993SOL     OW49875  10.676   3.348  13.658
15993SOL    HW149876  10.713   3.261  13.673
15993SOL    HW249877  10.591   3.346  13.702
15994SOL     OW49878   4.148   5.283   1.309
15994SOL    HW149879   4.066   5.235   1.324
15994SOL    HW249880   4.119   5.370   1.282
15995SOL     OW49881   8.104  11.047   4.993
15995SOL    HW149882   8.109  11.004   5.078
15995SOL    HW249883   8.164  11.122   5.000
15996SOL     OW49884  14.606   5.848   3.685
15996SOL    HW149885  14.521   5.806   3.698
15996SOL    HW249886  14.598   5.892   3.600
15997SOL     OW49887  10.253   4.702   7.370
15997SOL    HW149888  10.303   4.696   7.451
15997SOL    HW249889  10.266   4.618   7.327
15998SOL     OW49890  12.835   0.051  13.716
15998SOL    HW149891  12.929   0.034  13.728
15998SOL    HW249892  12.800   0.059  13.804
15999SOL     OW49893   9.567   7.278   5.942
15999SOL    HW149894   9.561   7.369   5.970
15999SOL    HW249895   9.531   7.228   6.016
16000SOL     OW49896  13.658  10.634  12.009
16000SOL    HW149897  13.672  10.705  11.947
16000SOL    HW249898  13.724  10.569  11.986
16001SOL     OW49899   1.925   5.839   4.772
16001SOL    HW149900   1.846   5.885   4.745
16001SOL    HW249901   1.976   5.830   4.692
16002SOL     OW49902   4.899   0.850   4.001
16002SOL    HW149903   4.905   0.769   4.052
16002SOL    HW249904   4.851   0.825   3.922
16003SOL     OW49905   9.782  11.286  13.134
16003SOL    HW149906   9.819  11.372  13.152
16003SOL    HW249907   9.768  11.247  13.220
16004SOL     OW49908   5.023   5.739   5.159
16004SOL    HW149909   4.980   5.655   5.175
16004SOL    HW249910   5.116   5.722   5.172
16005SOL     OW49911   4.308   1.085  10.779
16005SOL    HW149912   4.234   1.035  10.814
16005SOL    HW249913   4.272   1.135  10.707
16006SOL     OW49914   4.616   0.615  10.485
16006SOL    HW149915   4.539   0.577  10.443
16006SOL    HW249916   4.626   0.565  10.566
16007SOL     OW49917  13.729   7.148  14.405
16007SOL    HW149918  13.692   7.092  14.473
16007SOL    HW249919  13.824   7.132  14.409
16008SOL     OW49920  14.853  10.838  11.415
16008SOL    HW149921   0.020  10.759  11.454
16008SOL    HW249922  14.843  10.898  11.489
16009SOL     OW49923   7.806   6.853   4.001
16009SOL    HW149924   7.861   6.931   4.006
16009SOL    HW249925   7.721   6.881   4.036
16010SOL     OW49926   1.852   7.656   9.180
16010SOL    HW149927   1.783   7.622   9.237
16010SOL    HW249928   1.813   7.733   9.139
16011SOL     OW49929  14.776  12.268   4.995
16011SOL    HW149930  14.863  12.282   4.958
16011SOL    HW249931  14.740  12.196   4.944
16012SOL     OW49932   7.750   0.817  12.907
16012SOL    HW149933   7.724   0.877  12.837
16012SOL    HW249934   7.784   0.873  12.976
16013SOL     OW49935   6.801  12.654  12.806
16013SOL    HW149936   6.892  12.639  12.781
16013SOL    HW249937   6.800  12.743  12.842
16014SOL     OW49938   4.170  10.604  10.470
16014SOL    HW149939   4.099  10.625  10.409
16014SOL    HW249940   4.189  10.512  10.454
16015SOL     OW49941  12.461   5.317  10.658
16015SOL    HW149942  12.512   5.237  10.643
16015SOL    HW249943  12.379   5.286  10.697
16016SOL     OW49944   7.238  11.703   1.737
16016SOL    HW149945   7.331  11.726   1.740
16016SOL    HW249946   7.222  11.679   1.646
16017SOL     OW49947   9.979   3.675   6.107
16017SOL    HW149948  10.019   3.681   6.021
16017SOL    HW249949   9.889   3.647   6.090
16018SOL     OW49950   9.070   5.524   1.867
16018SOL    HW149951   9.066   5.489   1.778
16018SOL    HW249952   9.040   5.614   1.859
16019SOL     OW49953   2.232   3.957   8.144
16019SOL    HW149954   2.259   4.039   8.187
16019SOL    HW249955   2.302   3.895   8.166
16020SOL     OW49956   0.430  10.738   6.635
16020SOL    HW149957   0.492  10.672   6.604
16020SOL    HW249958   0.453  10.751   6.727
16021SOL     OW49959   1.770   7.538   5.571
16021SOL    HW149960   1.696   7.525   5.511
16021SOL    HW249961   1.829   7.465   5.553
16022SOL     OW49962   9.740   4.698   2.834
16022SOL    HW149963   9.708   4.737   2.915
16022SOL    HW249964   9.805   4.634   2.861
16023SOL     OW49965   3.335   0.064   6.947
16023SOL    HW149966   3.408   0.127   6.950
16023SOL    HW249967   3.286   0.088   6.869
16024SOL     OW49968   2.169   8.987   8.804
16024SOL    HW149969   2.122   9.024   8.730
16024SOL    HW249970   2.161   8.892   8.792
16025SOL     OW49971   0.874   3.639   0.756
16025SOL    HW149972   0.925   3.685   0.822
16025SOL    HW249973   0.794   3.613   0.802
16026SOL     OW49974  10.242   5.856   3.177
16026SOL    HW149975  10.303   5.879   3.106
16026SOL    HW249976  10.223   5.764   3.163
16027SOL     OW49977   6.303  10.600  13.738
16027SOL    HW149978   6.383  10.620  13.787
16027SOL    HW249979   6.248  10.554  13.800
16028SOL     OW49980   9.495  14.749   9.812
16028SOL    HW149981   9.495  14.700   9.894
16028SOL    HW249982   9.403  14.770   9.797
16029SOL     OW49983   5.124  13.079   4.087
16029SOL    HW149984   5.071  13.010   4.128
16029SOL    HW249985   5.157  13.130   4.161
16030SOL     OW49986   5.102   9.451   1.477
16030SOL    HW149987   5.042   9.517   1.445
16030SOL    HW249988   5.082   9.373   1.425
16031SOL     OW49989   2.055   2.244  12.864
16031SOL    HW149990   2.139   2.283  12.840
16031SOL    HW249991   1.991   2.313  12.845
16032SOL     OW49992   1.117   1.256   2.293
16032SOL    HW149993   1.195   1.307   2.271
16032SOL    HW249994   1.150   1.188   2.352
16033SOL     OW49995   1.121   3.771   2.884
16033SOL    HW149996   1.121   3.770   2.788
16033SOL    HW249997   1.060   3.702   2.909
16034SOL     OW49998   2.324   5.892  10.941
16034SOL    HW149999   2.403   5.843  10.964
16034SOL    HW250000   2.296   5.933  11.023
16035SOL     OW50001   6.337  10.253   9.253
16035SOL    HW150002   6.354  10.223   9.342
16035SOL    HW250003   6.291  10.180   9.211
16036SOL     OW50004   4.506   1.878   0.797
16036SOL    HW150005   4.457   1.880   0.715
16036SOL    HW250006   4.439   1.869   0.865
16037SOL     OW50007   5.886  12.154   5.202
16037SOL    HW150008   5.888  12.246   5.230
16037SOL    HW250009   5.893  12.104   5.284
16038SOL     OW50010   2.459  10.163   5.297
16038SOL    HW150011   2.487  10.114   5.375
16038SOL    HW250012   2.365  10.175   5.308
16039SOL     OW50013   7.385   9.330   7.880
16039SOL    HW150014   7.467   9.362   7.841
16039SOL    HW250015   7.399   9.236   7.891
16040SOL     OW50016   3.351   3.582   6.387
16040SOL    HW150017   3.430   3.569   6.334
16040SOL    HW250018   3.340   3.499   6.433
16041SOL     OW50019  11.754   9.759  11.779
16041SOL    HW150020  11.751   9.676  11.731
16041SOL    HW250021  11.800   9.819  11.721
16042SOL     OW50022  11.965  12.993  14.859
16042SOL    HW150023  12.017  12.956  14.788
16042SOL    HW250024  11.887  13.029  14.816
16043SOL     OW50025   7.902   4.332   5.090
16043SOL    HW150026   7.946   4.416   5.079
16043SOL    HW250027   7.829   4.350   5.149
16044SOL     OW50028   3.742   0.457   6.914
16044SOL    HW150029   3.742   0.508   6.833
16044SOL    HW250030   3.834   0.452   6.938
16045SOL     OW50031   9.798   7.151   3.367
16045SOL    HW150032   9.711   7.183   3.390
16045SOL    HW250033   9.783   7.063   3.333
16046SOL     OW50034  14.782  14.077   6.040
16046SOL    HW150035  14.838  14.111   6.111
16046SOL    HW250036  14.694  14.104   6.066
16047SOL     OW50037  12.220  10.408   6.510
16047SOL    HW150038  12.253  10.494   6.485
16047SOL    HW250039  12.131  10.425   6.542
16048SOL     OW50040  10.961   9.440   4.542
16048SOL    HW150041  10.934   9.521   4.499
16048SOL    HW250042  11.030   9.466   4.603
16049SOL     OW50043  12.440   9.466   5.463
16049SOL    HW150044  12.471   9.461   5.554
16049SOL    HW250045  12.376   9.395   5.455
16050SOL     OW50046  12.168   6.326  10.641
16050SOL    HW150047  12.219   6.265  10.587
16050SOL    HW250048  12.095   6.352  10.586
16051SOL     OW50049   1.912   9.175   8.180
16051SOL    HW150050   1.973   9.144   8.113
16051SOL    HW250051   1.969   9.203   8.253
16052SOL     OW50052  12.033   9.790  14.278
16052SOL    HW150053  12.008   9.698  14.285
16052SOL    HW250054  12.006   9.829  14.360
16053SOL     OW50055   6.674  12.764   0.389
16053SOL    HW150056   6.732  12.691   0.408
16053SOL    HW250057   6.680  12.775   0.294
16054SOL     OW50058  14.016   9.933  11.707
16054SOL    HW150059  14.048   9.977  11.785
16054SOL    HW250060  14.086   9.871  11.684
16055SOL     OW50061   0.694  11.763  12.592
16055SOL    HW150062   0.717  11.691  12.533
16055SOL    HW250063   0.739  11.839  12.555
16056SOL     OW50064  11.111   5.804  12.233
16056SOL    HW150065  11.036   5.854  12.200
16056SOL    HW250066  11.077   5.715  12.246
16057SOL     OW50067  10.605  10.579   0.309
16057SOL    HW150068  10.675  10.581   0.243
16057SOL    HW250069  10.526  10.606   0.261
16058SOL     OW50070   3.221  12.237   6.727
16058SOL    HW150071   3.304  12.188   6.719
16058SOL    HW250072   3.233  12.292   6.804
16059SOL     OW50073   0.693   1.817  10.977
16059SOL    HW150074   0.777   1.787  11.011
16059SOL    HW250075   0.676   1.899  11.024
16060SOL     OW50076  12.271  10.149  14.316
16060SOL    HW150077  12.341  10.211  14.296
16060SOL    HW250078  12.244  10.115  14.231
16061SOL     OW50079   5.360   8.928   9.838
16061SOL    HW150080   5.382   8.839   9.810
16061SOL    HW250081   5.287   8.953   9.782
16062SOL     OW50082  14.486   1.486   9.905
16062SOL    HW150083  14.538   1.462   9.982
16062SOL    HW250084  14.436   1.562   9.933
16063SOL     OW50085   7.498   4.626   9.738
16063SOL    HW150086   7.561   4.627   9.666
16063SOL    HW250087   7.520   4.704   9.789
16064SOL     OW50088   9.538   2.383   9.168
16064SOL    HW150089   9.453   2.409   9.204
16064SOL    HW250090   9.526   2.291   9.143
16065SOL     OW50091   4.294  14.300   5.845
16065SOL    HW150092   4.379  14.290   5.801
16065SOL    HW250093   4.317  14.328   5.934
16066SOL     OW50094  14.862  11.612   6.744
16066SOL    HW150095   0.077  11.577   6.722
16066SOL    HW250096  14.864  11.624   6.839
16067SOL     OW50097  11.903   3.027   8.658
16067SOL    HW150098  11.845   2.953   8.673
16067SOL    HW250099  11.973   2.992   8.602
16068SOL     OW50100   9.421  14.336   9.176
16068SOL    HW150101   9.470  14.260   9.206
16068SOL    HW250102   9.486  14.405   9.167
16069SOL     OW50103   3.811   7.144  13.589
16069SOL    HW150104   3.745   7.211  13.570
16069SOL    HW250105   3.821   7.146  13.684
16070SOL     OW50106   8.474  13.129   5.093
16070SOL    HW150107   8.544  13.188   5.066
16070SOL    HW250108   8.499  13.044   5.058
16071SOL     OW50109   1.393   6.664   6.419
16071SOL    HW150110   1.306   6.668   6.380
16071SOL    HW250111   1.415   6.756   6.436
16072SOL     OW50112   0.707   0.529   0.675
16072SOL    HW150113   0.663   0.526   0.591
16072SOL    HW250114   0.638   0.515   0.740
16073SOL     OW50115   3.421   6.747   9.137
16073SOL    HW150116   3.374   6.665   9.154
16073SOL    HW250117   3.398   6.803   9.212
16074SOL     OW50118   7.019   3.165   2.863
16074SOL    HW150119   6.964   3.194   2.936
16074SOL    HW250120   7.009   3.233   2.797
16075SOL     OW50121   4.452   2.762   1.028
16075SOL    HW150122   4.496   2.695   0.976
16075SOL    HW250123   4.378   2.790   0.973
16076SOL     OW50124  12.210  10.286  11.935
16076SOL    HW150125  12.215  10.349  11.863
16076SOL    HW250126  12.295  10.243  11.935
16077SOL     OW50127  10.910  11.281   7.498
16077SOL    HW150128  10.860  11.354   7.462
16077SOL    HW250129  10.853  11.244   7.565
16078SOL     OW50130  11.905   3.534   6.108
16078SOL    HW150131  11.920   3.616   6.155
16078SOL    HW250132  11.982   3.481   6.127
16079SOL     OW50133  12.399   7.977  12.702
16079SOL    HW150134  12.367   8.064  12.725
16079SOL    HW250135  12.415   7.982  12.608
16080SOL     OW50136   1.546  11.981   3.313
16080SOL    HW150137   1.574  12.019   3.230
16080SOL    HW250138   1.627  11.961   3.360
16081SOL     OW50139   6.045   5.458  14.409
16081SOL    HW150140   6.019   5.400  14.481
16081SOL    HW250141   6.065   5.541  14.451
16082SOL     OW50142   2.464   7.358   7.551
16082SOL    HW150143   2.556   7.377   7.573
16082SOL    HW250144   2.464   7.265   7.525
16083SOL     OW50145  11.523   8.045   2.590
16083SOL    HW150146  11.480   7.992   2.656
16083SOL    HW250147  11.501   8.135   2.614
16084SOL     OW50148   9.202  11.458   0.914
16084SOL    HW150149   9.219  11.498   0.828
16084SOL    HW250150   9.229  11.525   0.977
16085SOL     OW50151   0.233  11.562   2.243
16085SOL    HW150152   0.144  11.544   2.271
16085SOL    HW250153   0.246  11.507   2.166
16086SOL     OW50154   0.157   6.863   3.268
16086SOL    HW150155   0.092   6.814   3.217
16086SOL    HW250156   0.229   6.802   3.282
16087SOL     OW50157   6.748  14.092   0.091
16087SOL    HW150158   6.814  14.161   0.087
16087SOL    HW250159   6.733  14.068  14.871
16088SOL     OW50160   7.602   1.907   7.140
16088SOL    HW150161   7.669   1.840   7.125
16088SOL    HW250162   7.523   1.857   7.163
16089SOL     OW50163   2.716   2.051   5.996
16089SOL    HW150164   2.653   1.979   5.994
16089SOL    HW250165   2.801   2.010   5.981
16090SOL     OW50166   7.442   4.611  11.510
16090SOL    HW150167   7.378   4.674  11.477
16090SOL    HW250168   7.494   4.587  11.433
16091SOL     OW50169   8.928   3.994   4.799
16091SOL    HW150170   9.018   4.016   4.776
16091SOL    HW250171   8.909   4.047   4.876
16092SOL     OW50172   5.636  12.452  11.795
16092SOL    HW150173   5.679  12.436  11.879
16092SOL    HW250174   5.670  12.384  11.737
16093SOL     OW50175   8.296   7.383   3.351
16093SOL    HW150176   8.384   7.367   3.388
16093SOL    HW250177   8.248   7.424   3.423
16094SOL     OW50178   3.689   9.300   0.156
16094SOL    HW150179   3.628   9.361   0.115
16094SOL    HW250180   3.633   9.235   0.199
16095SOL     OW50181   1.836   3.073   5.006
16095SOL    HW150182   1.870   3.002   5.061
16095SOL    HW250183   1.874   3.152   5.043
16096SOL     OW50184   8.661   1.621   7.186
16096SOL    HW150185   8.596   1.574   7.134
16096SOL    HW250186   8.738   1.564   7.185
16097SOL     OW50187  12.151   4.372   5.845
16097SOL    HW150188  12.099   4.322   5.783
16097SOL    HW250189  12.110   4.459   5.848
16098SOL     OW50190   1.283  14.067   7.083
16098SOL    HW150191   1.220  13.995   7.076
16098SOL    HW250192   1.365  14.029   7.053
16099SOL     OW50193  14.326  12.118   5.546
16099SOL    HW150194  14.293  12.192   5.598
16099SOL    HW250195  14.359  12.056   5.611
16100SOL     OW50196   2.980   9.387   4.787
16100SOL    HW150197   3.004   9.295   4.779
16100SOL    HW250198   2.944   9.396   4.875
16101SOL     OW50199  10.071   5.974  12.471
16101SOL    HW150200  10.165   5.992  12.479
16101SOL    HW250201  10.029   6.040  12.526
16102SOL     OW50202   8.724  10.111   0.571
16102SOL    HW150203   8.698  10.169   0.500
16102SOL    HW250204   8.645  10.100   0.623
16103SOL     OW50205  13.800   9.772   2.509
16103SOL    HW150206  13.773   9.682   2.528
16103SOL    HW250207  13.743   9.800   2.437
16104SOL     OW50208  12.776  12.386   3.900
16104SOL    HW150209  12.835  12.460   3.889
16104SOL    HW250210  12.823  12.328   3.961
16105SOL     OW50211   5.156   3.089  14.250
16105SOL    HW150212   5.060   3.088  14.249
16105SOL    HW250213   5.179   3.178  14.223
16106SOL     OW50214  12.198   4.583   2.302
16106SOL    HW150215  12.292   4.593   2.316
16106SOL    HW250216  12.160   4.666   2.332
16107SOL     OW50217   5.812   4.625   3.061
16107SOL    HW150218   5.892   4.645   3.109
16107SOL    HW250219   5.761   4.570   3.120
16108SOL     OW50220   5.910   2.294   2.580
16108SOL    HW150221   5.925   2.376   2.627
16108SOL    HW250222   5.882   2.321   2.493
16109SOL     OW50223   9.873  14.285  10.933
16109SOL    HW150224   9.800  14.237  10.896
16109SOL    HW250225   9.947  14.225  10.926
16110SOL     OW50226   2.959   6.364   9.312
16110SOL    HW150227   2.962   6.315   9.230
16110SOL    HW250228   2.958   6.297   9.380
16111SOL     OW50229   5.165   8.346   0.702
16111SOL    HW150230   5.141   8.350   0.795
16111SOL    HW250231   5.244   8.400   0.696
16112SOL     OW50232   5.461  11.225   3.395
16112SOL    HW150233   5.462  11.217   3.299
16112SOL    HW250234   5.489  11.315   3.412
16113SOL     OW50235  10.610   7.185  14.242
16113SOL    HW150236  10.595   7.096  14.276
16113SOL    HW250237  10.606   7.175  14.147
16114SOL     OW50238  12.924   8.481  10.386
16114SOL    HW150239  12.924   8.541  10.311
16114SOL    HW250240  12.850   8.511  10.440
16115SOL     OW50241  10.549  12.346   8.490
16115SOL    HW150242  10.583  12.258   8.505
16115SOL    HW250243  10.474  12.353   8.549
16116SOL     OW50244   1.511   9.049   7.111
16116SOL    HW150245   1.461   8.978   7.070
16116SOL    HW250246   1.491   9.041   7.205
16117SOL     OW50247   0.571   1.992   8.858
16117SOL    HW150248   0.497   1.982   8.797
16117SOL    HW250249   0.643   1.946   8.815
16118SOL     OW50250   7.262   2.554  10.245
16118SOL    HW150251   7.237   2.626  10.304
16118SOL    HW250252   7.286   2.482  10.303
16119SOL     OW50253  14.747  13.474   2.809
16119SOL    HW150254  14.752  13.565   2.837
16119SOL    HW250255  14.655  13.451   2.818
16120SOL     OW50256   2.606  12.471   8.614
16120SOL    HW150257   2.556  12.550   8.593
16120SOL    HW250258   2.697  12.499   8.614
16121SOL     OW50259  10.085   0.151   5.539
16121SOL    HW150260  10.106   0.238   5.572
16121SOL    HW250261  10.019   0.165   5.472
16122SOL     OW50262  10.001   7.991   5.494
16122SOL    HW150263   9.958   8.074   5.517
16122SOL    HW250264   9.985   7.934   5.569
16123SOL     OW50265   0.779  11.845   5.848
16123SOL    HW150266   0.690  11.825   5.876
16123SOL    HW250267   0.818  11.761   5.827
16124SOL     OW50268   7.747   6.774  11.267
16124SOL    HW150269   7.713   6.797  11.353
16124SOL    HW250270   7.728   6.850  11.212
16125SOL     OW50271  13.746  11.304   3.474
16125SOL    HW150272  13.827  11.337   3.514
16125SOL    HW250273  13.695  11.270   3.548
16126SOL     OW50274   4.203  10.642  12.055
16126SOL    HW150275   4.214  10.585  12.131
16126SOL    HW250276   4.288  10.640  12.011
16127SOL     OW50277   9.291  10.481  14.497
16127SOL    HW150278   9.220  10.545  14.503
16127SOL    HW250279   9.247  10.397  14.487
16128SOL     OW50280   7.846  13.144   4.461
16128SOL    HW150281   7.861  13.233   4.430
16128SOL    HW250282   7.933  13.107   4.474
16129SOL     OW50283  13.642  14.009   9.029
16129SOL    HW150284  13.605  13.933   8.984
16129SOL    HW250285  13.579  14.028   9.098
16130SOL     OW50286   7.545   1.562  12.615
16130SOL    HW150287   7.502   1.602  12.540
16130SOL    HW250288   7.491   1.587  12.690
16131SOL     OW50289  13.850   9.478   1.363
16131SOL    HW150290  13.889   9.393   1.340
16131SOL    HW250291  13.825   9.469   1.455
16132SOL     OW50292   3.230   3.151  10.727
16132SOL    HW150293   3.157   3.091  10.713
16132SOL    HW250294   3.308   3.097  10.719
16133SOL     OW50295   3.090   8.662   6.908
16133SOL    HW150296   3.184   8.678   6.918
16133SOL    HW250297   3.083   8.615   6.824
16134SOL     OW50298   2.573  10.568   6.416
16134SOL    HW150299   2.622  10.647   6.393
16134SOL    HW250300   2.630  10.496   6.391
16135SOL     OW50301  12.247   0.606  14.155
16135SOL    HW150302  12.253   0.605  14.059
16135SOL    HW250303  12.153   0.601  14.173
16136SOL     OW50304   0.873   4.350  10.734
16136SOL    HW150305   0.813   4.350  10.659
16136SOL    HW250306   0.821   4.386  10.806
16137SOL     OW50307   5.443  12.533   0.299
16137SOL    HW150308   5.389  12.524   0.221
16137SOL    HW250309   5.518  12.475   0.283
16138SOL     OW50310   7.689   0.700   0.793
16138SOL    HW150311   7.762   0.720   0.851
16138SOL    HW250312   7.724   0.636   0.731
16139SOL     OW50313   8.372  13.972  10.964
16139SOL    HW150314   8.316  13.996  10.890
16139SOL    HW250315   8.444  14.034  10.961
16140SOL     OW50316  11.144   4.357  12.076
16140SOL    HW150317  11.083   4.408  12.129
16140SOL    HW250318  11.155   4.407  11.995
16141SOL     OW50319  10.488   0.875   8.775
16141SOL    HW150320  10.526   0.816   8.839
16141SOL    HW250321  10.483   0.960   8.820
16142SOL     OW50322  14.065   8.885  10.018
16142SOL    HW150323  14.083   8.893  10.112
16142SOL    HW250324  14.100   8.965   9.980
16143SOL     OW50325   4.472   2.030   1.717
16143SOL    HW150326   4.530   1.979   1.660
16143SOL    HW250327   4.398   1.972   1.734
16144SOL     OW50328   3.771  13.231  13.941
16144SOL    HW150329   3.839  13.214  13.875
16144SOL    HW250330   3.733  13.144  13.958
16145SOL     OW50331   3.078   1.595  10.488
16145SOL    HW150332   3.134   1.663  10.451
16145SOL    HW250333   3.139   1.536  10.533
16146SOL     OW50334  13.235  14.812   1.147
16146SOL    HW150335  13.324  14.777   1.142
16146SOL    HW250336  13.179  14.735   1.156
16147SOL     OW50337   0.355   5.335   9.883
16147SOL    HW150338   0.288   5.339   9.951
16147SOL    HW250339   0.315   5.376   9.806
16148SOL     OW50340   7.155   7.318  11.858
16148SOL    HW150341   7.135   7.225  11.847
16148SOL    HW250342   7.162   7.330  11.953
16149SOL     OW50343  10.163   3.607  11.221
16149SOL    HW150344  10.152   3.682  11.279
16149SOL    HW250345  10.106   3.540  11.258
16150SOL     OW50346   8.046  11.567   6.269
16150SOL    HW150347   8.048  11.621   6.348
16150SOL    HW250348   8.026  11.479   6.300
16151SOL     OW50349  11.753  13.774  12.642
16151SOL    HW150350  11.708  13.848  12.684
16151SOL    HW250351  11.809  13.739  12.710
16152SOL     OW50352   1.803   4.323   0.247
16152SOL    HW150353   1.774   4.256   0.185
16152SOL    HW250354   1.839   4.392   0.192
16153SOL     OW50355  10.388   5.494  11.582
16153SOL    HW150356  10.356   5.576  11.544
16153SOL    HW250357  10.483   5.500  11.574
16154SOL     OW50358  14.511   6.813  11.237
16154SOL    HW150359  14.578   6.804  11.169
16154SOL    HW250360  14.445   6.747  11.215
16155SOL     OW50361  14.666   5.082  14.841
16155SOL    HW150362  14.755   5.065  14.871
16155SOL    HW250363  14.670   5.066  14.746
16156SOL     OW50364   6.348  10.166  14.401
16156SOL    HW150365   6.412  10.158  14.331
16156SOL    HW250366   6.277  10.107  14.376
16157SOL     OW50367  14.093   8.141   4.058
16157SOL    HW150368  14.112   8.050   4.078
16157SOL    HW250369  14.003   8.141   4.025
16158SOL     OW50370   2.181   4.253   2.104
16158SOL    HW150371   2.172   4.330   2.159
16158SOL    HW250372   2.163   4.179   2.163
16159SOL     OW50373   1.756   6.443   2.142
16159SOL    HW150374   1.843   6.413   2.118
16159SOL    HW250375   1.699   6.367   2.129
16160SOL     OW50376   0.252  11.494   1.966
16160SOL    HW150377   0.192  11.455   1.903
16160SOL    HW250378   0.305  11.555   1.915
16161SOL     OW50379   0.288   2.456   1.829
16161SOL    HW150380   0.221   2.494   1.772
16161SOL    HW250381   0.358   2.520   1.829
16162SOL     OW50382   4.715   0.298  13.045
16162SOL    HW150383   4.704   0.227  13.109
16162SOL    HW250384   4.700   0.378  13.095
16163SOL     OW50385  12.072   5.128   1.523
16163SOL    HW150386  12.054   5.118   1.616
16163SOL    HW250387  12.030   5.211   1.499
16164SOL     OW50388   7.759  12.217  11.961
16164SOL    HW150389   7.679  12.252  12.000
16164SOL    HW250390   7.743  12.123  11.951
16165SOL     OW50391   6.482  14.778   5.345
16165SOL    HW150392   6.558  14.776   5.403
16165SOL    HW250393   6.508  14.835   5.273
16166SOL     OW50394   8.417  10.194  10.904
16166SOL    HW150395   8.442  10.152  10.822
16166SOL    HW250396   8.399  10.121  10.964
16167SOL     OW50397   8.189  14.257   3.177
16167SOL    HW150398   8.272  14.280   3.136
16167SOL    HW250399   8.195  14.294   3.265
16168SOL     OW50400   8.892   0.085   0.618
16168SOL    HW150401   8.894  14.871   0.576
16168SOL    HW250402   8.813   0.127   0.585
16169SOL     OW50403   1.015   1.677  11.363
16169SOL    HW150404   1.000   1.738  11.290
16169SOL    HW250405   1.092   1.627  11.337
16170SOL     OW50406  12.597   6.080   6.520
16170SOL    HW150407  12.669   6.031   6.481
16170SOL    HW250408  12.558   6.020   6.584
16171SOL     OW50409   8.841   3.765   1.805
16171SOL    HW150410   8.846   3.796   1.715
16171SOL    HW250411   8.788   3.830   1.850
16172SOL     OW50412  14.457  11.242   0.168
16172SOL    HW150413  14.453  11.200   0.082
16172SOL    HW250414  14.526  11.308   0.160
16173SOL     OW50415   6.732   2.325  11.180
16173SOL    HW150416   6.802   2.299  11.240
16173SOL    HW250417   6.696   2.242  11.149
16174SOL     OW50418   0.110  12.350   0.486
16174SOL    HW150419   0.031  12.349   0.433
16174SOL    HW250420   0.172  12.293   0.439
16175SOL     OW50421   5.285  11.920   0.299
16175SOL    HW150422   5.360  11.972   0.328
16175SOL    HW250423   5.295  11.914   0.204
16176SOL     OW50424  11.776   4.714  12.210
16176SOL    HW150425  11.707   4.779  12.193
16176SOL    HW250426  11.803   4.731  12.300
16177SOL     OW50427   8.620   5.139   9.046
16177SOL    HW150428   8.597   5.198   8.974
16177SOL    HW250429   8.639   5.197   9.120
16178SOL     OW50430   1.765  11.890   0.141
16178SOL    HW150431   1.762  11.809   0.091
16178SOL    HW250432   1.734  11.957   0.080
16179SOL     OW50433  14.003  12.259   0.462
16179SOL    HW150434  13.951  12.231   0.538
16179SOL    HW250435  14.080  12.301   0.500
16180SOL     OW50436   2.935   6.638  13.315
16180SOL    HW150437   2.974   6.720  13.346
16180SOL    HW250438   2.846   6.661  13.292
16181SOL     OW50439  12.075   0.688   0.373
16181SOL    HW150440  12.017   0.707   0.446
16181SOL    HW250441  12.031   0.724   0.297
16182SOL     OW50442   3.626   0.173   4.063
16182SOL    HW150443   3.646   0.156   4.155
16182SOL    HW250444   3.531   0.165   4.057
16183SOL     OW50445   7.730   1.204   9.820
16183SOL    HW150446   7.803   1.243   9.773
16183SOL    HW250447   7.718   1.259   9.897
16184SOL     OW50448   4.681  12.877   3.589
16184SOL    HW150449   4.726  12.913   3.512
16184SOL    HW250450   4.749  12.827   3.634
16185SOL     OW50451  12.818   1.048   4.224
16185SOL    HW150452  12.765   1.077   4.150
16185SOL    HW250453  12.792   0.957   4.238
16186SOL     OW50454   6.946  10.007   4.824
16186SOL    HW150455   6.944  10.073   4.755
16186SOL    HW250456   6.868   9.954   4.808
16187SOL     OW50457  12.835  12.036  13.286
16187SOL    HW150458  12.786  12.118  13.275
16187SOL    HW250459  12.775  11.979  13.335
16188SOL     OW50460   9.509   8.289   0.365
16188SOL    HW150461   9.546   8.336   0.440
16188SOL    HW250462   9.564   8.211   0.357
16189SOL     OW50463  14.526   2.332  14.190
16189SOL    HW150464  14.621   2.335  14.193
16189SOL    HW250465  14.499   2.424  14.177
16190SOL     OW50466  11.808   7.629   4.485
16190SOL    HW150467  11.785   7.655   4.574
16190SOL    HW250468  11.880   7.567   4.496
16191SOL     OW50469   6.039   0.452   4.195
16191SOL    HW150470   5.945   0.434   4.200
16191SOL    HW250471   6.044   0.539   4.155
16192SOL     OW50472   4.443   6.041   3.704
16192SOL    HW150473   4.521   6.084   3.669
16192SOL    HW250474   4.470   6.009   3.790
16193SOL     OW50475   3.592  13.964   3.625
16193SOL    HW150476   3.604  14.000   3.713
16193SOL    HW250477   3.627  13.875   3.630
16194SOL     OW50478  12.523   6.851   4.531
16194SOL    HW150479  12.456   6.906   4.571
16194SOL    HW250480  12.515   6.767   4.578
16195SOL     OW50481   0.906  13.465   4.861
16195SOL    HW150482   0.858  13.425   4.933
16195SOL    HW250483   0.853  13.540   4.836
16196SOL     OW50484  13.443   4.859  12.845
16196SOL    HW150485  13.413   4.769  12.857
16196SOL    HW250486  13.505   4.874  12.916
16197SOL     OW50487   8.314  12.159  14.103
16197SOL    HW150488   8.327  12.097  14.032
16197SOL    HW250489   8.398  12.162  14.148
16198SOL     OW50490   1.095   6.398  14.747
16198SOL    HW150491   1.082   6.316  14.795
16198SOL    HW250492   1.130   6.459  14.812
16199SOL     OW50493  10.861   9.336  12.894
16199SOL    HW150494  10.812   9.274  12.947
16199SOL    HW250495  10.804   9.356  12.820
16200SOL     OW50496   7.220  14.246  13.302
16200SOL    HW150497   7.316  14.236  13.305
16200SOL    HW250498   7.207  14.334  13.267
16201SOL     OW50499   6.587   1.749   8.104
16201SOL    HW150500   6.669   1.743   8.153
16201SOL    HW250501   6.523   1.703   8.159
16202SOL     OW50502  14.583  12.912  12.706
16202SOL    HW150503  14.507  12.857  12.730
16202SOL    HW250504  14.659  12.855  12.722
16203SOL     OW50505  13.393   7.255   7.352
16203SOL    HW150506  13.366   7.338   7.313
16203SOL    HW250507  13.366   7.261   7.444
16204SOL     OW50508  12.611  10.036   6.159
16204SOL    HW150509  12.593  10.006   6.070
16204SOL    HW250510  12.602   9.957   6.213
16205SOL     OW50511   7.739   0.374   5.466
16205SOL    HW150512   7.812   0.434   5.451
16205SOL    HW250513   7.740   0.356   5.560
16206SOL     OW50514   8.673   6.760   9.899
16206SOL    HW150515   8.719   6.802   9.826
16206SOL    HW250516   8.674   6.826   9.969
16207SOL     OW50517  14.455   1.087  14.164
16207SOL    HW150518  14.514   1.120  14.096
16207SOL    HW250519  14.511   1.036  14.223
16208SOL     OW50520   3.761   6.552   8.799
16208SOL    HW150521   3.824   6.490   8.836
16208SOL    HW250522   3.720   6.593   8.875
16209SOL     OW50523  11.183   4.940   5.367
16209SOL    HW150524  11.136   4.874   5.418
16209SOL    HW250525  11.120   4.969   5.301
16210SOL     OW50526   7.198   4.816   6.913
16210SOL    HW150527   7.131   4.862   6.861
16210SOL    HW250528   7.168   4.823   7.003
16211SOL     OW50529   0.731  12.258   8.213
16211SOL    HW150530   0.703  12.347   8.193
16211SOL    HW250531   0.653  12.217   8.252
16212SOL     OW50532   4.428   0.635   4.812
16212SOL    HW150533   4.350   0.691   4.804
16212SOL    HW250534   4.501   0.695   4.799
16213SOL     OW50535  14.163   9.220  11.172
16213SOL    HW150536  14.133   9.258  11.254
16213SOL    HW250537  14.158   9.125  11.186
16214SOL     OW50538   7.141   3.422   3.893
16214SOL    HW150539   7.111   3.464   3.813
16214SOL    HW250540   7.061   3.385   3.932
16215SOL     OW50541  13.818   0.179  13.605
16215SOL    HW150542  13.875   0.101  13.601
16215SOL    HW250543  13.796   0.196  13.514
16216SOL     OW50544  10.506   9.140   4.221
16216SOL    HW150545  10.525   9.208   4.157
16216SOL    HW250546  10.422   9.102   4.192
16217SOL     OW50547  12.031  14.754   2.629
16217SOL    HW150548  12.015  14.842   2.663
16217SOL    HW250549  12.036  14.699   2.707
16218SOL     OW50550   4.614   7.375   5.033
16218SOL    HW150551   4.666   7.420   4.967
16218SOL    HW250552   4.626   7.282   5.015
16219SOL     OW50553   3.412  13.649  12.758
16219SOL    HW150554   3.475  13.677  12.692
16219SOL    HW250555   3.464  13.641  12.838
16220SOL     OW50556   1.108   3.763   2.598
16220SOL    HW150557   1.105   3.687   2.540
16220SOL    HW250558   1.080   3.836   2.543
16221SOL     OW50559  11.401   5.226   0.883
16221SOL    HW150560  11.419   5.262   0.796
16221SOL    HW250561  11.469   5.161   0.897
16222SOL     OW50562   4.641   6.347   4.042
16222SOL    HW150563   4.622   6.440   4.026
16222SOL    HW250564   4.556   6.304   4.032
16223SOL     OW50565  14.235   9.089   5.894
16223SOL    HW150566  14.190   9.065   5.974
16223SOL    HW250567  14.200   9.175   5.870
16224SOL     OW50568  12.991   8.083  12.936
16224SOL    HW150569  13.060   8.080  13.002
16224SOL    HW250570  12.973   7.991  12.916
16225SOL     OW50571   8.323   9.059  14.185
16225SOL    HW150572   8.332   9.103  14.270
16225SOL    HW250573   8.390   9.100  14.130
16226SOL     OW50574   8.014   5.361   8.960
16226SOL    HW150575   8.053   5.449   8.969
16226SOL    HW250576   7.928   5.369   8.999
16227SOL     OW50577   2.069   6.981  11.322
16227SOL    HW150578   2.100   6.893  11.302
16227SOL    HW250579   1.974   6.971  11.334
16228SOL     OW50580  10.829  14.113  12.265
16228SOL    HW150581  10.820  14.208  12.255
16228SOL    HW250582  10.854  14.101  12.356
16229SOL     OW50583   5.885   9.219   1.742
16229SOL    HW150584   5.878   9.200   1.835
16229SOL    HW250585   5.956   9.283   1.735
16230SOL     OW50586   2.758   2.670   9.558
16230SOL    HW150587   2.703   2.629   9.491
16230SOL    HW250588   2.732   2.627   9.639
16231SOL     OW50589   7.750   3.786   1.837
16231SOL    HW150590   7.696   3.755   1.910
16231SOL    HW250591   7.840   3.782   1.872
16232SOL     OW50592   5.384  12.597  14.003
16232SOL    HW150593   5.348  12.516  13.967
16232SOL    HW250594   5.363  12.593  14.096
16233SOL     OW50595  10.981   6.013   9.511
16233SOL    HW150596  10.946   6.096   9.542
16233SOL    HW250597  11.076   6.026   9.511
16234SOL     OW50598   7.190  13.856   3.260
16234SOL    HW150599   7.181  13.850   3.356
16234SOL    HW250600   7.270  13.907   3.247
16235SOL     OW50601   0.568   5.157   9.988
16235SOL    HW150602   0.574   5.085   9.925
16235SOL    HW250603   0.501   5.215   9.952
16236SOL     OW50604   1.553   3.315   5.399
16236SOL    HW150605   1.525   3.405   5.380
16236SOL    HW250606   1.647   3.315   5.380
16237SOL     OW50607  13.198  10.504  11.709
16237SOL    HW150608  13.154  10.544  11.784
16237SOL    HW250609  13.283  10.547  11.705
16238SOL     OW50610   2.132   7.186  11.760
16238SOL    HW150611   2.157   7.162  11.849
16238SOL    HW250612   2.082   7.267  11.769
16239SOL     OW50613   5.485  11.937  10.978
16239SOL    HW150614   5.406  11.916  11.027
16239SOL    HW250615   5.453  11.972  10.895
16240SOL     OW50616  12.310   9.793   9.465
16240SOL    HW150617  12.304   9.832   9.378
16240SOL    HW250618  12.339   9.865   9.522
16241SOL     OW50619   6.358  11.046  10.150
16241SOL    HW150620   6.380  10.995  10.228
16241SOL    HW250621   6.264  11.063  10.158
16242SOL     OW50622   6.558  12.387   9.846
16242SOL    HW150623   6.556  12.440   9.766
16242SOL    HW250624   6.508  12.309   9.824
16243SOL     OW50625  11.113   1.676  13.419
16243SOL    HW150626  11.167   1.755  13.425
16243SOL    HW250627  11.024   1.710  13.408
16244SOL     OW50628   5.666   2.624   8.622
16244SOL    HW150629   5.735   2.598   8.561
16244SOL    HW250630   5.697   2.595   8.708
16245SOL     OW50631  10.293   4.153   8.439
16245SOL    HW150632  10.334   4.229   8.481
16245SOL    HW250633  10.320   4.159   8.348
16246SOL     OW50634   2.282   2.494   3.087
16246SOL    HW150635   2.235   2.575   3.101
16246SOL    HW250636   2.265   2.471   2.996
16247SOL     OW50637  11.877   6.117   2.444
16247SOL    HW150638  11.961   6.085   2.410
16247SOL    HW250639  11.811   6.072   2.392
16248SOL     OW50640   0.174  10.667   9.493
16248SOL    HW150641   0.238  10.597   9.478
16248SOL    HW250642   0.227  10.744   9.514
16249SOL     OW50643   0.298   6.878   4.948
16249SOL    HW150644   0.345   6.914   5.023
16249SOL    HW250645   0.361   6.882   4.876
16250SOL     OW50646   6.896   1.131   3.793
16250SOL    HW150647   6.868   1.089   3.874
16250SOL    HW250648   6.859   1.220   3.799
16251SOL     OW50649   0.549   0.868  12.276
16251SOL    HW150650   0.629   0.907  12.240
16251SOL    HW250651   0.553   0.777  12.246
16252SOL     OW50652   9.246   2.907   7.298
16252SOL    HW150653   9.212   2.978   7.244
16252SOL    HW250654   9.168   2.865   7.335
16253SOL     OW50655   3.863   0.922   5.132
16253SOL    HW150656   3.806   0.846   5.126
16253SOL    HW250657   3.950   0.886   5.150
16254SOL     OW50658   2.795   6.768   4.896
16254SOL    HW150659   2.774   6.742   4.986
16254SOL    HW250660   2.878   6.723   4.877
16255SOL     OW50661  13.878   1.287  13.692
16255SOL    HW150662  13.790   1.306  13.661
16255SOL    HW250663  13.869   1.280  13.787
16256SOL     OW50664   7.712   5.105   7.120
16256SOL    HW150665   7.670   5.079   7.038
16256SOL    HW250666   7.706   5.200   7.122
16257SOL     OW50667  10.269   4.564   1.765
16257SOL    HW150668  10.296   4.642   1.814
16257SOL    HW250669  10.176   4.555   1.784
16258SOL     OW50670   8.210   5.585  11.089
16258SOL    HW150671   8.259   5.667  11.100
16258SOL    HW250672   8.148   5.584  11.162
16259SOL     OW50673  13.461  13.952   6.848
16259SOL    HW150674  13.437  13.900   6.772
16259SOL    HW250675  13.555  13.965   6.840
16260SOL     OW50676  10.176  13.749   3.169
16260SOL    HW150677  10.237  13.756   3.242
16260SOL    HW250678  10.215  13.803   3.100
16261SOL     OW50679  12.829   3.443  14.242
16261SOL    HW150680  12.779   3.524  14.227
16261SOL    HW250681  12.900   3.469  14.300
16262SOL     OW50682   8.553  13.277   3.815
16262SOL    HW150683   8.499  13.297   3.892
16262SOL    HW250684   8.568  13.183   3.819
16263SOL     OW50685   6.440   8.896   5.551
16263SOL    HW150686   6.408   8.977   5.511
16263SOL    HW250687   6.527   8.884   5.515
16264SOL     OW50688  10.128   6.654   4.602
16264SOL    HW150689  10.200   6.650   4.666
16264SOL    HW250690  10.049   6.644   4.655
16265SOL     OW50691   6.220   6.374   9.285
16265SOL    HW150692   6.237   6.376   9.379
16265SOL    HW250693   6.132   6.338   9.277
16266SOL     OW50694   3.655   9.485   1.064
16266SOL    HW150695   3.621   9.487   0.974
16266SOL    HW250696   3.725   9.550   1.064
16267SOL     OW50697  10.382   3.476   4.138
16267SOL    HW150698  10.467   3.480   4.093
16267SOL    HW250699  10.321   3.518   4.078
16268SOL     OW50700  12.621  13.650  13.412
16268SOL    HW150701  12.576  13.708  13.351
16268SOL    HW250702  12.710  13.685  13.418
16269SOL     OW50703   8.447   8.846  13.601
16269SOL    HW150704   8.458   8.783  13.672
16269SOL    HW250705   8.407   8.922  13.642
16270SOL     OW50706   3.202   5.998   9.411
16270SOL    HW150707   3.210   5.950   9.329
16270SOL    HW250708   3.139   5.948   9.462
16271SOL     OW50709   3.065   2.309  11.836
16271SOL    HW150710   3.021   2.231  11.803
16271SOL    HW250711   3.151   2.309  11.794
16272SOL     OW50712   6.302   0.937   6.311
16272SOL    HW150713   6.280   0.897   6.395
16272SOL    HW250714   6.396   0.923   6.301
16273SOL     OW50715   4.284   8.531   3.867
16273SOL    HW150716   4.209   8.497   3.818
16273SOL    HW250717   4.274   8.626   3.862
16274SOL     OW50718   7.670   0.453   8.091
16274SOL    HW150719   7.637   0.393   8.024
16274SOL    HW250720   7.662   0.403   8.173
16275SOL     OW50721  13.370   0.323   8.903
16275SOL    HW150722  13.414   0.407   8.908
16275SOL    HW250723  13.356   0.308   8.809
16276SOL     OW50724  10.367   8.394  12.468
16276SOL    HW150725  10.447   8.379  12.418
16276SOL    HW250726  10.299   8.347  12.419
16277SOL     OW50727  10.584   4.295   2.784
16277SOL    HW150728  10.675   4.271   2.801
16277SOL    HW250729  10.534   4.246   2.849
16278SOL     OW50730   3.103  13.230   7.225
16278SOL    HW150731   3.047  13.172   7.277
16278SOL    HW250732   3.045  13.264   7.157
16279SOL     OW50733  11.387  13.683   0.481
16279SOL    HW150734  11.444  13.656   0.409
16279SOL    HW250735  11.302  13.698   0.441
16280SOL     OW50736  11.100  14.274  12.920
16280SOL    HW150737  11.144  14.359  12.922
16280SOL    HW250738  11.136  14.227  12.995
16281SOL     OW50739   8.488   2.011   2.829
16281SOL    HW150740   8.503   2.032   2.737
16281SOL    HW250741   8.567   1.965   2.856
16282SOL     OW50742  14.028   3.040   8.381
16282SOL    HW150743  14.096   2.985   8.344
16282SOL    HW250744  13.958   3.041   8.315
16283SOL     OW50745  14.501   6.480   1.653
16283SOL    HW150746  14.521   6.453   1.563
16283SOL    HW250747  14.586   6.506   1.690
16284SOL     OW50748   7.705  14.115   9.945
16284SOL    HW150749   7.661  14.199   9.935
16284SOL    HW250750   7.665  14.059   9.878
16285SOL     OW50751   2.947   7.776   8.636
16285SOL    HW150752   2.964   7.837   8.564
16285SOL    HW250753   3.022   7.786   8.695
16286SOL     OW50754   8.719  11.085   3.647
16286SOL    HW150755   8.757  11.015   3.593
16286SOL    HW250756   8.668  11.137   3.586
16287SOL     OW50757   0.755   2.788  10.926
16287SOL    HW150758   0.707   2.715  10.886
16287SOL    HW250759   0.793   2.835  10.851
16288SOL     OW50760  11.918  14.757   3.832
16288SOL    HW150761  11.911  14.814   3.908
16288SOL    HW250762  11.888  14.811   3.759
16289SOL     OW50763   5.805   5.356   7.777
16289SOL    HW150764   5.804   5.278   7.721
16289SOL    HW250765   5.730   5.346   7.834
16290SOL     OW50766   2.980   0.173   3.068
16290SOL    HW150767   2.941   0.179   2.981
16290SOL    HW250768   2.906   0.158   3.126
16291SOL     OW50769   8.898   7.156  13.851
16291SOL    HW150770   8.846   7.104  13.912
16291SOL    HW250771   8.834   7.199  13.796
16292SOL     OW50772   6.334  10.610   6.670
16292SOL    HW150773   6.282  10.535   6.642
16292SOL    HW250774   6.329  10.609   6.766
16293SOL     OW50775   3.270  10.454   3.790
16293SOL    HW150776   3.234  10.541   3.804
16293SOL    HW250777   3.357  10.457   3.829
16294SOL     OW50778   7.480   6.707  11.213
16294SOL    HW150779   7.424   6.660  11.275
16294SOL    HW250780   7.569   6.689  11.242
16295SOL     OW50781   7.099  13.054   2.112
16295SOL    HW150782   7.060  13.057   2.024
16295SOL    HW250783   7.087  13.143   2.146
16296SOL     OW50784   2.599  14.261  10.343
16296SOL    HW150785   2.555  14.346  10.335
16296SOL    HW250786   2.678  14.279  10.393
16297SOL     OW50787  12.110   0.455   0.192
16297SOL    HW150788  12.110   0.521   0.262
16297SOL    HW250789  12.159   0.497   0.121
16298SOL     OW50790   1.130   6.610   6.024
16298SOL    HW150791   1.138   6.705   6.028
16298SOL    HW250792   1.204   6.577   6.075
16299SOL     OW50793   3.740   3.253  12.326
16299SOL    HW150794   3.765   3.176  12.274
16299SOL    HW250795   3.785   3.326  12.284
16300SOL     OW50796   1.266  13.006   0.133
16300SOL    HW150797   1.356  12.976   0.146
16300SOL    HW250798   1.270  13.100   0.152
16301SOL     OW50799  14.049   0.660  12.693
16301SOL    HW150800  13.965   0.618  12.707
16301SOL    HW250801  14.101   0.596  12.645
16302SOL     OW50802   4.574   2.930   6.945
16302SOL    HW150803   4.588   2.846   6.988
16302SOL    HW250804   4.556   2.992   7.016
16303SOL     OW50805   6.186  10.984   0.784
16303SOL    HW150806   6.153  11.049   0.722
16303SOL    HW250807   6.224  10.915   0.729
16304SOL     OW50808   5.941   1.432  13.178
16304SOL    HW150809   6.016   1.490  13.162
16304SOL    HW250810   5.865   1.490  13.174
16305SOL     OW50811   9.365  10.198   0.410
16305SOL    HW150812   9.303  10.253   0.361
16305SOL    HW250813   9.377  10.243   0.493
16306SOL     OW50814   2.561  12.032  12.365
16306SOL    HW150815   2.516  12.109  12.400
16306SOL    HW250816   2.614  12.066  12.292
16307SOL     OW50817  11.543  10.752   6.795
16307SOL    HW150818  11.529  10.661   6.771
16307SOL    HW250819  11.589  10.789   6.720
16308SOL     OW50820   4.699  11.329  10.617
16308SOL    HW150821   4.760  11.372  10.676
16308SOL    HW250822   4.665  11.399  10.561
16309SOL     OW50823   6.562  10.227   2.164
16309SOL    HW150824   6.603  10.161   2.219
16309SOL    HW250825   6.633  10.261   2.109
16310SOL     OW50826  10.124   1.461   1.397
16310SOL    HW150827  10.178   1.411   1.458
16310SOL    HW250828  10.176   1.538   1.377
16311SOL     OW50829  11.576   7.273   9.665
16311SOL    HW150830  11.586   7.363   9.632
16311SOL    HW250831  11.492   7.274   9.712
16312SOL     OW50832   3.541  14.572  12.175
16312SOL    HW150833   3.547  14.559  12.080
16312SOL    HW250834   3.632  14.579  12.204
16313SOL     OW50835  13.566  13.384  11.393
16313SOL    HW150836  13.580  13.304  11.444
16313SOL    HW250837  13.640  13.441  11.416
16314SOL     OW50838   2.140   2.624  13.749
16314SOL    HW150839   2.148   2.540  13.703
16314SOL    HW250840   2.047   2.631  13.770
16315SOL     OW50841   9.013   2.087   9.851
16315SOL    HW150842   9.050   2.130   9.928
16315SOL    HW250843   9.083   2.087   9.787
16316SOL     OW50844  10.302  11.450  12.072
16316SOL    HW150845  10.376  11.511  12.077
16316SOL    HW250846  10.330  11.384  12.008
16317SOL     OW50847   8.754  11.402   7.780
16317SOL    HW150848   8.788  11.488   7.806
16317SOL    HW250849   8.707  11.371   7.857
16318SOL     OW50850   0.891   0.835  12.590
16318SOL    HW150851   0.956   0.842  12.520
16318SOL    HW250852   0.942   0.830  12.670
16319SOL     OW50853   2.476   9.095   5.935
16319SOL    HW150854   2.444   9.006   5.917
16319SOL    HW250855   2.396   9.144   5.956
16320SOL     OW50856  14.189  12.385   8.095
16320SOL    HW150857  14.189  12.299   8.137
16320SOL    HW250858  14.136  12.439   8.154
16321SOL     OW50859   4.447  12.221   0.750
16321SOL    HW150860   4.491  12.150   0.702
16321SOL    HW250861   4.405  12.273   0.682
16322SOL     OW50862   5.056   4.736   1.827
16322SOL    HW150863   5.077   4.812   1.880
16322SOL    HW250864   4.980   4.697   1.869
16323SOL     OW50865  13.090   2.135   7.678
16323SOL    HW150866  13.077   2.215   7.728
16323SOL    HW250867  13.144   2.079   7.734
16324SOL     OW50868   9.585   1.026   4.146
16324SOL    HW150869   9.529   1.057   4.216
16324SOL    HW250870   9.579   0.931   4.150
16325SOL     OW50871   3.468  11.542   6.514
16325SOL    HW150872   3.392  11.483   6.509
16325SOL    HW250873   3.474  11.565   6.607
16326SOL     OW50874   3.214   1.185  14.627
16326SOL    HW150875   3.308   1.168  14.621
16326SOL    HW250876   3.207   1.257  14.689
16327SOL     OW50877   2.879   7.843  13.108
16327SOL    HW150878   2.794   7.802  13.126
16327SOL    HW250879   2.857   7.916  13.050
16328SOL     OW50880  12.751   3.293   9.505
16328SOL    HW150881  12.720   3.352   9.436
16328SOL    HW250882  12.725   3.336   9.587
16329SOL     OW50883   2.143   2.380   5.166
16329SOL    HW150884   2.149   2.297   5.119
16329SOL    HW250885   2.204   2.438   5.121
16330SOL     OW50886  12.857   5.373   0.163
16330SOL    HW150887  12.815   5.428   0.229
16330SOL    HW250888  12.909   5.310   0.212
16331SOL     OW50889   5.949  13.934  14.054
16331SOL    HW150890   6.020  13.997  14.064
16331SOL    HW250891   5.917  13.947  13.965
16332SOL     OW50892   1.808  14.437  11.508
16332SOL    HW150893   1.868  14.469  11.441
16332SOL    HW250894   1.745  14.508  11.520
16333SOL     OW50895   4.195  11.492  11.977
16333SOL    HW150896   4.178  11.400  11.996
16333SOL    HW250897   4.137  11.513  11.904
16334SOL     OW50898   7.107  12.764   5.718
16334SOL    HW150899   7.102  12.771   5.622
16334SOL    HW250900   7.141  12.675   5.733
16335SOL     OW50901   7.649   3.789  13.350
16335SOL    HW150902   7.555   3.787  13.365
16335SOL    HW250903   7.687   3.749  13.428
16336SOL     OW50904   5.451   4.126   5.173
16336SOL    HW150905   5.429   4.219   5.167
16336SOL    HW250906   5.422   4.089   5.091
16337SOL     OW50907   3.619   7.407   9.107
16337SOL    HW150908   3.704   7.449   9.091
16337SOL    HW250909   3.566   7.429   9.031
16338SOL     OW50910   5.000   0.275  13.062
16338SOL    HW150911   5.026   0.183  13.069
16338SOL    HW250912   4.927   0.276  13.000
16339SOL     OW50913  11.521   2.311   6.307
16339SOL    HW150914  11.499   2.234   6.358
16339SOL    HW250915  11.505   2.385   6.366
16340SOL     OW50916   4.666  14.630   6.481
16340SOL    HW150917   4.754  14.666   6.479
16340SOL    HW250918   4.626  14.666   6.560
16341SOL     OW50919   7.691   0.144  11.308
16341SOL    HW150920   7.676   0.094  11.228
16341SOL    HW250921   7.607   0.142  11.354
16342SOL     OW50922  13.479   1.774   7.407
16342SOL    HW150923  13.544   1.771   7.336
16342SOL    HW250924  13.401   1.812   7.367
16343SOL     OW50925  12.038   4.852  13.491
16343SOL    HW150926  12.033   4.943  13.460
16343SOL    HW250927  12.062   4.802  13.412
16344SOL     OW50928  14.441   7.990  14.157
16344SOL    HW150929  14.454   7.906  14.113
16344SOL    HW250930  14.381   7.970  14.229
16345SOL     OW50931   7.491   7.908  10.791
16345SOL    HW150932   7.459   7.849  10.859
16345SOL    HW250933   7.545   7.853  10.735
16346SOL     OW50934   0.555  13.068   6.258
16346SOL    HW150935   0.468  13.035   6.233
16346SOL    HW250936   0.572  13.029   6.343
16347SOL     OW50937   0.203   9.879   0.445
16347SOL    HW150938   0.252   9.928   0.379
16347SOL    HW250939   0.191   9.941   0.517
16348SOL     OW50940  11.646  14.083   9.991
16348SOL    HW150941  11.650  14.170   9.951
16348SOL    HW250942  11.680  14.096  10.079
16349SOL     OW50943  10.865  11.979   0.133
16349SOL    HW150944  10.780  12.021   0.150
16349SOL    HW250945  10.907  12.036   0.069
16350SOL     OW50946   8.726  10.749   6.299
16350SOL    HW150947   8.734  10.807   6.375
16350SOL    HW250948   8.662  10.683   6.327
16351SOL     OW50949  14.836  11.774   6.382
16351SOL    HW150950   0.000  11.775   6.294
16351SOL    HW250951   0.004  11.698   6.424
16352SOL     OW50952   2.583   3.886   4.019
16352SOL    HW150953   2.516   3.819   4.003
16352SOL    HW250954   2.532   3.966   4.036
16353SOL     OW50955   3.992   6.292   0.490
16353SOL    HW150956   3.949   6.242   0.420
16353SOL    HW250957   4.017   6.225   0.555
16354SOL     OW50958   5.487  14.606   6.491
16354SOL    HW150959   5.489  14.675   6.558
16354SOL    HW250960   5.425  14.639   6.426
16355SOL     OW50961   2.498  13.385   6.612
16355SOL    HW150962   2.412  13.415   6.583
16355SOL    HW250963   2.558  13.454   6.584
16356SOL     OW50964  11.985   1.902   9.668
16356SOL    HW150965  11.942   1.858   9.595
16356SOL    HW250966  11.936   1.982   9.680
16357SOL     OW50967  14.824  11.690   2.045
16357SOL    HW150968   0.045  11.703   2.023
16357SOL    HW250969  14.817  11.597   2.068
16358SOL     OW50970  11.386   7.073  11.763
16358SOL    HW150971  11.395   7.093  11.856
16358SOL    HW250972  11.297   7.101  11.742
16359SOL     OW50973   1.427  13.980   8.322
16359SOL    HW150974   1.403  13.888   8.321
16359SOL    HW250975   1.353  14.024   8.363
16360SOL     OW50976   0.035  14.339   9.348
16360SOL    HW150977  14.830  14.359   9.402
16360SOL    HW250978   0.072  14.425   9.327
16361SOL     OW50979   3.674   8.228   6.341
16361SOL    HW150980   3.755   8.182   6.322
16361SOL    HW250981   3.691   8.319   6.318
16362SOL     OW50982   9.195  13.895   9.663
16362SOL    HW150983   9.212  13.969   9.721
16362SOL    HW250984   9.230  13.923   9.578
16363SOL     OW50985   2.518   7.016  14.176
16363SOL    HW150986   2.456   6.950  14.147
16363SOL    HW250987   2.513   7.012  14.272
16364SOL     OW50988  12.330  13.137  10.074
16364SOL    HW150989  12.378  13.090  10.142
16364SOL    HW250990  12.360  13.098   9.992
16365SOL     OW50991   0.043  12.517   4.751
16365SOL    HW150992  14.846  12.457   4.723
16365SOL    HW250993   0.056  12.496   4.844
16366SOL     OW50994   0.292   5.555   7.713
16366SOL    HW150995   0.297   5.473   7.663
16366SOL    HW250996   0.355   5.544   7.784
16367SOL     OW50997  13.171  10.256   1.395
16367SOL    HW150998  13.120  10.225   1.471
16367SOL    HW250999  13.149  10.193   1.326
16368SOL     OW51000   6.359   3.789  12.858
16368SOL    HW151001   6.446   3.796  12.819
16368SOL    HW251002   6.375   3.788  12.952
16369SOL     OW51003  10.873  10.219   8.408
16369SOL    HW151004  10.891  10.169   8.329
16369SOL    HW251005  10.824  10.295   8.378
16370SOL     OW51006   5.330  10.555   4.775
16370SOL    HW151007   5.345  10.461   4.762
16370SOL    HW251008   5.367  10.596   4.696
16371SOL     OW51009   5.396  10.849  10.261
16371SOL    HW151010   5.435  10.879  10.179
16371SOL    HW251011   5.469  10.846  10.323
16372SOL     OW51012   6.216   6.888   7.520
16372SOL    HW151013   6.302   6.897   7.560
16372SOL    HW251014   6.232   6.896   7.426
16373SOL     OW51015  10.457   0.520  11.582
16373SOL    HW151016  10.469   0.510  11.488
16373SOL    HW251017  10.466   0.615  11.597
16374SOL     OW51018  11.235  12.591   2.103
16374SOL    HW151019  11.309  12.589   2.042
16374SOL    HW251020  11.162  12.622   2.050
16375SOL     OW51021   6.640   7.627   0.616
16375SOL    HW151022   6.701   7.633   0.690
16375SOL    HW251023   6.633   7.717   0.583
16376SOL     OW51024   5.299   7.112  10.479
16376SOL    HW151025   5.330   7.024  10.498
16376SOL    HW251026   5.334   7.131  10.391
16377SOL     OW51027   7.323  13.084  14.638
16377SOL    HW151028   7.314  13.145  14.711
16377SOL    HW251029   7.336  12.999  14.680
16378SOL     OW51030   9.773   0.438  10.277
16378SOL    HW151031   9.842   0.424  10.212
16378SOL    HW251032   9.756   0.532  10.276
16379SOL     OW51033   0.008  11.266   7.971
16379SOL    HW151034   0.052  11.295   8.051
16379SOL    HW251035  14.788  11.289   7.983
16380SOL     OW51036  11.867   0.409   0.519
16380SOL    HW151037  11.933   0.453   0.572
16380SOL    HW251038  11.829   0.344   0.578
16381SOL     OW51039   4.844  13.884   9.691
16381SOL    HW151040   4.836  13.892   9.596
16381SOL    HW251041   4.793  13.805   9.711
16382SOL     OW51042   4.492   9.860   1.410
16382SOL    HW151043   4.423   9.888   1.470
16382SOL    HW251044   4.468   9.899   1.326
16383SOL     OW51045   5.791  13.322   3.918
16383SOL    HW151046   5.783  13.416   3.905
16383SOL    HW251047   5.773  13.308   4.011
16384SOL     OW51048   9.632   3.566   4.438
16384SOL    HW151049   9.578   3.639   4.409
16384SOL    HW251050   9.642   3.510   4.361
16385SOL     OW51051   4.328  14.088   3.154
16385SOL    HW151052   4.368  14.170   3.182
16385SOL    HW251053   4.259  14.115   3.093
16386SOL     OW51054   9.794  14.596  13.791
16386SOL    HW151055   9.812  14.689  13.803
16386SOL    HW251056   9.843  14.552  13.860
16387SOL     OW51057   0.142   9.737   6.528
16387SOL    HW151058   0.215   9.799   6.530
16387SOL    HW251059   0.101   9.745   6.614
16388SOL     OW51060   3.383   8.323  10.764
16388SOL    HW151061   3.397   8.295  10.854
16388SOL    HW251062   3.455   8.285  10.715
16389SOL     OW51063   8.902   5.612   6.990
16389SOL    HW151064   8.929   5.528   7.029
16389SOL    HW251065   8.969   5.630   6.924
16390SOL     OW51066  12.619  11.358   3.135
16390SOL    HW151067  12.608  11.294   3.065
16390SOL    HW251068  12.673  11.426   3.097
16391SOL     OW51069   7.161   7.818   1.739
16391SOL    HW151070   7.159   7.740   1.795
16391SOL    HW251071   7.070   7.834   1.715
16392SOL     OW51072   9.840  14.737   8.466
16392SOL    HW151073   9.764  14.703   8.420
16392SOL    HW251074   9.815  14.826   8.492
16393SOL     OW51075   1.873   9.743   9.299
16393SOL    HW151076   1.904   9.735   9.389
16393SOL    HW251077   1.777   9.748   9.307
16394SOL     OW51078   8.334   5.113   9.770
16394SOL    HW151079   8.309   5.204   9.783
16394SOL    HW251080   8.281   5.064   9.832
16395SOL     OW51081  12.718   0.133   6.212
16395SOL    HW151082  12.638   0.129   6.265
16395SOL    HW251083  12.689   0.112   6.123
16396SOL     OW51084   0.720  12.783   9.017
16396SOL    HW151085   0.686  12.710   8.965
16396SOL    HW251086   0.786  12.743   9.074
16397SOL     OW51087   4.490   7.357   7.517
16397SOL    HW151088   4.569   7.332   7.469
16397SOL    HW251089   4.484   7.294   7.589
16398SOL     OW51090   9.964  13.146   5.771
16398SOL    HW151091   9.979  13.123   5.863
16398SOL    HW251092  10.004  13.075   5.721
16399SOL     OW51093   3.968   3.926  12.882
16399SOL    HW151094   3.969   4.022  12.873
16399SOL    HW251095   3.876   3.902  12.869
16400SOL     OW51096   8.732   8.066  12.316
16400SOL    HW151097   8.765   8.006  12.383
16400SOL    HW251098   8.769   8.151  12.339
16401SOL     OW51099  13.235   9.355   6.242
16401SOL    HW151100  13.162   9.293   6.248
16401SOL    HW251101  13.313   9.299   6.234
16402SOL     OW51102  13.068  10.220  10.064
16402SOL    HW151103  13.042  10.203   9.973
16402SOL    HW251104  13.091  10.313  10.065
16403SOL     OW51105   3.816   9.960   3.864
16403SOL    HW151106   3.760   9.918   3.799
16403SOL    HW251107   3.762   9.966   3.943
16404SOL     OW51108   5.175   0.283  10.614
16404SOL    HW151109   5.164   0.291  10.708
16404SOL    HW251110   5.133   0.361  10.577
16405SOL     OW51111   2.643  14.672  11.728
16405SOL    HW151112   2.592  14.695  11.650
16405SOL    HW251113   2.650  14.755  11.776
16406SOL     OW51114   2.506   1.783  14.832
16406SOL    HW151115   2.567   1.787   0.034
16406SOL    HW251116   2.524   1.698  14.791
16407SOL     OW51117   4.305  10.375  10.755
16407SOL    HW151118   4.246  10.450  10.750
16407SOL    HW251119   4.393  10.414  10.752
16408SOL     OW51120   3.814  11.870   3.207
16408SOL    HW151121   3.866  11.792   3.228
16408SOL    HW251122   3.731  11.835   3.174
16409SOL     OW51123  14.804  14.294  13.672
16409SOL    HW151124  14.870  14.228  13.652
16409SOL    HW251125  14.808  14.305  13.767
16410SOL     OW51126   5.784  10.230  10.712
16410SOL    HW151127   5.814  10.270  10.794
16410SOL    HW251128   5.849  10.258  10.647
16411SOL     OW51129   6.294   9.164  11.832
16411SOL    HW151130   6.290   9.252  11.795
16411SOL    HW251131   6.282   9.177  11.926
16412SOL     OW51132  14.743   0.687   9.146
16412SOL    HW151133  14.654   0.680   9.181
16412SOL    HW251134  14.779   0.765   9.187
16413SOL     OW51135  11.461   1.325   5.327
16413SOL    HW151136  11.446   1.247   5.273
16413SOL    HW251137  11.387   1.382   5.308
16414SOL     OW51138   0.314   2.881  10.521
16414SOL    HW151139   0.283   2.865  10.611
16414SOL    HW251140   0.332   2.975  10.518
16415SOL     OW51141   9.846   6.399   3.828
16415SOL    HW151142   9.886   6.319   3.863
16415SOL    HW251143   9.855   6.463   3.899
16416SOL     OW51144  14.267   7.841  13.060
16416SOL    HW151145  14.174   7.827  13.079
16416SOL    HW251146  14.284   7.930  13.091
16417SOL     OW51147   0.676   5.346  12.790
16417SOL    HW151148   0.626   5.358  12.871
16417SOL    HW251149   0.629   5.275  12.745
16418SOL     OW51150   1.022   8.233  11.486
16418SOL    HW151151   0.983   8.275  11.409
16418SOL    HW251152   1.115   8.227  11.466
16419SOL     OW51153   8.389   4.172  10.937
16419SOL    HW151154   8.450   4.106  10.904
16419SOL    HW251155   8.442   4.225  10.998
16420SOL     OW51156   2.405   8.353   0.254
16420SOL    HW151157   2.347   8.301   0.309
16420SOL    HW251158   2.384   8.326   0.164
16421SOL     OW51159   3.891  10.605   3.869
16421SOL    HW151160   3.867  10.526   3.916
16421SOL    HW251161   3.987  10.601   3.863
16422SOL     OW51162   9.751   2.683  14.662
16422SOL    HW151163   9.760   2.772  14.695
16422SOL    HW251164   9.781   2.628  14.735
16423SOL     OW51165   0.240   5.789   4.791
16423SOL    HW151166   0.321   5.832   4.818
16423SOL    HW251167   0.194   5.769   4.873
16424SOL     OW51168   0.151  12.213  14.125
16424SOL    HW151169   0.081  12.155  14.095
16424SOL    HW251170   0.171  12.183  14.214
16425SOL     OW51171   9.480   2.436   9.522
16425SOL    HW151172   9.474   2.466   9.613
16425SOL    HW251173   9.548   2.368   9.524
16426SOL     OW51174   5.611   0.735   5.216
16426SOL    HW151175   5.540   0.798   5.203
16426SOL    HW251176   5.576   0.652   5.182
16427SOL     OW51177   2.876   2.797   3.358
16427SOL    HW151178   2.792   2.795   3.312
16427SOL    HW251179   2.857   2.843   3.440
16428SOL     OW51180   5.545  10.596   8.526
16428SOL    HW151181   5.482  10.628   8.462
16428SOL    HW251182   5.555  10.503   8.507
16429SOL     OW51183   1.485  10.235  13.256
16429SOL    HW151184   1.557  10.292  13.226
16429SOL    HW251185   1.523  10.147  13.256
16430SOL     OW51186  10.518  12.198   3.377
16430SOL    HW151187  10.554  12.136   3.313
16430SOL    HW251188  10.578  12.273   3.373
16431SOL     OW51189   5.376   9.174   9.472
16431SOL    HW151190   5.318   9.183   9.548
16431SOL    HW251191   5.463   9.193   9.506
16432SOL     OW51192  11.395   5.493   1.821
16432SOL    HW151193  11.464   5.433   1.792
16432SOL    HW251194  11.329   5.436   1.860
16433SOL     OW51195  14.543  14.378  13.649
16433SOL    HW151196  14.521  14.331  13.568
16433SOL    HW251197  14.637  14.365  13.659
16434SOL     OW51198  13.889   8.210   0.323
16434SOL    HW151199  13.935   8.133   0.289
16434SOL    HW251200  13.798   8.196   0.298
16435SOL     OW51201  13.224  13.267   9.516
16435SOL    HW151202  13.147  13.316   9.547
16435SOL    HW251203  13.197  13.232   9.431
16436SOL     OW51204   9.610  13.972  13.119
16436SOL    HW151205   9.550  13.899  13.138
16436SOL    HW251206   9.559  14.030  13.063
16437SOL     OW51207   4.910   6.620   1.533
16437SOL    HW151208   4.921   6.550   1.597
16437SOL    HW251209   4.974   6.686   1.558
16438SOL     OW51210   1.777   6.457  14.453
16438SOL    HW151211   1.803   6.408  14.375
16438SOL    HW251212   1.768   6.547  14.423
16439SOL     OW51213   5.146   5.301   2.695
16439SOL    HW151214   5.159   5.225   2.638
16439SOL    HW251215   5.222   5.300   2.753
16440SOL     OW51216  11.348   7.906  12.110
16440SOL    HW151217  11.332   7.997  12.084
16440SOL    HW251218  11.282   7.856  12.062
16441SOL     OW51219   9.373  11.671   2.354
16441SOL    HW151220   9.324  11.671   2.436
16441SOL    HW251221   9.305  11.671   2.286
16442SOL     OW51222  12.497  11.507  13.580
16442SOL    HW151223  12.434  11.438  13.598
16442SOL    HW251224  12.492  11.566  13.655
16443SOL     OW51225  10.298   9.735  11.759
16443SOL    HW151226  10.285   9.773  11.846
16443SOL    HW251227  10.213   9.743  11.716
16444SOL     OW51228   0.087  11.620   4.064
16444SOL    HW151229   0.103  11.710   4.035
16444SOL    HW251230   0.015  11.590   4.008
16445SOL     OW51231   1.153  13.936   8.111
16445SOL    HW151232   1.235  13.983   8.126
16445SOL    HW251233   1.174  13.873   8.042
16446SOL     OW51234  10.129   0.376   4.424
16446SOL    HW151235  10.187   0.407   4.355
16446SOL    HW251236  10.133   0.444   4.491
16447SOL     OW51237   7.588   6.957  14.284
16447SOL    HW151238   7.612   6.981  14.373
16447SOL    HW251239   7.543   6.873  14.293
16448SOL     OW51240   7.985   0.659   4.864
16448SOL    HW151241   7.924   0.592   4.835
16448SOL    HW251242   8.071   0.618   4.857
16449SOL     OW51243   3.892   2.229   5.073
16449SOL    HW151244   3.905   2.155   5.131
16449SOL    HW251245   3.798   2.230   5.057
16450SOL     OW51246   7.858   6.255  14.175
16450SOL    HW151247   7.771   6.295  14.166
16450SOL    HW251248   7.919   6.322  14.144
16451SOL     OW51249  11.984   5.780  12.529
16451SOL    HW151250  11.910   5.764  12.472
16451SOL    HW251251  12.006   5.872  12.516
16452SOL     OW51252   5.148  12.310   0.071
16452SOL    HW151253   5.080  12.363   0.114
16452SOL    HW251254   5.135  12.222   0.107
16453SOL     OW51255  13.457  12.155  14.716
16453SOL    HW151256  13.506  12.236  14.706
16453SOL    HW251257  13.515  12.087  14.682
16454SOL     OW51258  12.258   9.535  13.081
16454SOL    HW151259  12.319   9.584  13.025
16454SOL    HW251260  12.178   9.528  13.030
16455SOL     OW51261   2.532  13.690   0.587
16455SOL    HW151262   2.565  13.633   0.656
16455SOL    HW251263   2.453  13.646   0.555
16456SOL     OW51264   3.089   6.332   0.918
16456SOL    HW151265   2.997   6.360   0.916
16456SOL    HW251266   3.127   6.383   0.990
16457SOL     OW51267  10.021   0.429  13.916
16457SOL    HW151268   9.937   0.384  13.923
16457SOL    HW251269  10.073   0.397  13.990
16458SOL     OW51270  11.510  14.327   3.210
16458SOL    HW151271  11.505  14.415   3.173
16458SOL    HW251272  11.418  14.299   3.219
16459SOL     OW51273   6.825   3.488   2.301
16459SOL    HW151274   6.877   3.552   2.253
16459SOL    HW251275   6.889   3.431   2.343
16460SOL     OW51276  12.297   1.012   8.838
16460SOL    HW151277  12.340   0.992   8.921
16460SOL    HW251278  12.370   1.026   8.777
16461SOL     OW51279  13.310   6.246   6.401
16461SOL    HW151280  13.287   6.334   6.372
16461SOL    HW251281  13.262   6.235   6.483
16462SOL     OW51282  11.199   3.263  14.631
16462SOL    HW151283  11.115   3.290  14.595
16462SOL    HW251284  11.187   3.268  14.726
16463SOL     OW51285  14.567   0.982   9.081
16463SOL    HW151286  14.653   1.016   9.056
16463SOL    HW251287  14.530   1.050   9.137
16464SOL     OW51288   7.974  14.111   3.067
16464SOL    HW151289   8.025  14.093   2.989
16464SOL    HW251290   8.038  14.141   3.131
16465SOL     OW51291   5.895   7.275   3.473
16465SOL    HW151292   5.835   7.284   3.398
16465SOL    HW251293   5.981   7.266   3.433
16466SOL     OW51294   9.633   4.000   6.152
16466SOL    HW151295   9.645   3.907   6.136
16466SOL    HW251296   9.688   4.018   6.229
16467SOL     OW51297  14.865   6.166   6.972
16467SOL    HW151298   0.026   6.185   6.884
16467SOL    HW251299   0.072   6.154   7.025
16468SOL     OW51300   7.517  11.749   1.711
16468SOL    HW151301   7.528  11.813   1.641
16468SOL    HW251302   7.517  11.664   1.667
16469SOL     OW51303  13.665   5.966   1.250
16469SOL    HW151304  13.626   5.883   1.223
16469SOL    HW251305  13.707   5.946   1.334
16470SOL     OW51306   8.942   0.936   3.246
16470SOL    HW151307   8.886   0.868   3.283
16470SOL    HW251308   8.939   0.921   3.151
16471SOL     OW51309   1.055   9.510  14.066
16471SOL    HW151310   0.967   9.505  14.029
16471SOL    HW251311   1.100   9.433  14.032
16472SOL     OW51312  13.441   5.425   6.267
16472SOL    HW151313  13.513   5.464   6.217
16472SOL    HW251314  13.383   5.498   6.286
16473SOL     OW51315   6.667   2.476   5.850
16473SOL    HW151316   6.600   2.411   5.828
16473SOL    HW251317   6.623   2.561   5.838
16474SOL     OW51318  12.390   2.658   1.035
16474SOL    HW151319  12.439   2.578   1.050
16474SOL    HW251320  12.300   2.637   1.062
16475SOL     OW51321   0.681   2.869   0.500
16475SOL    HW151322   0.591   2.877   0.468
16475SOL    HW251323   0.716   2.792   0.455
16476SOL     OW51324   2.251   6.416   3.725
16476SOL    HW151325   2.201   6.376   3.654
16476SOL    HW251326   2.198   6.399   3.803
16477SOL     OW51327   9.305  14.668   5.791
16477SOL    HW151328   9.369  14.734   5.764
16477SOL    HW251329   9.346  14.584   5.769
16478SOL     OW51330   6.274  14.287   3.332
16478SOL    HW151331   6.184  14.258   3.326
16478SOL    HW251332   6.292  14.327   3.247
16479SOL     OW51333  12.670   9.741   0.035
16479SOL    HW151334  12.669   9.764   0.127
16479SOL    HW251335  12.660   9.646   0.034
16480SOL     OW51336  13.683   9.678   1.241
16480SOL    HW151337  13.730   9.605   1.281
16480SOL    HW251338  13.704   9.754   1.295
16481SOL     OW51339   9.381  10.976  14.298
16481SOL    HW151340   9.403  10.911  14.231
16481SOL    HW251341   9.432  10.949  14.374
16482SOL     OW51342   4.910   2.975   1.381
16482SOL    HW151343   4.896   3.052   1.326
16482SOL    HW251344   4.982   2.929   1.339
16483SOL     OW51345   3.666   9.978   4.894
16483SOL    HW151346   3.741   9.921   4.878
16483SOL    HW251347   3.601   9.922   4.936
16484SOL     OW51348   3.186  12.780   3.989
16484SOL    HW151349   3.264  12.787   4.044
16484SOL    HW251350   3.218  12.796   3.900
16485SOL     OW51351   2.761  13.105   7.964
16485SOL    HW151352   2.750  13.133   7.873
16485SOL    HW251353   2.726  13.178   8.016
16486SOL     OW51354   8.150   6.949   9.415
16486SOL    HW151355   8.240   6.950   9.382
16486SOL    HW251356   8.154   6.895   9.494
16487SOL     OW51357   7.807   9.042   3.412
16487SOL    HW151358   7.781   9.112   3.472
16487SOL    HW251359   7.899   9.026   3.433
16488SOL     OW51360   4.523   2.572   9.819
16488SOL    HW151361   4.512   2.559   9.914
16488SOL    HW251362   4.466   2.647   9.799
16489SOL     OW51363  14.062   3.024   4.688
16489SOL    HW151364  13.985   3.015   4.744
16489SOL    HW251365  14.123   2.958   4.720
16490SOL     OW51366  14.459   1.041   1.037
16490SOL    HW151367  14.479   1.035   1.131
16490SOL    HW251368  14.484   1.130   1.013
16491SOL     OW51369   0.290  11.445   1.050
16491SOL    HW151370   0.237  11.524   1.035
16491SOL    HW251371   0.370  11.478   1.090
16492SOL     OW51372   4.184   4.784  14.551
16492SOL    HW151373   4.151   4.803  14.639
16492SOL    HW251374   4.125   4.833  14.493
16493SOL     OW51375   0.226  10.887   4.899
16493SOL    HW151376   0.205  10.942   4.824
16493SOL    HW251377   0.313  10.914   4.925
16494SOL     OW51378   2.643   5.872   5.880
16494SOL    HW151379   2.670   5.892   5.790
16494SOL    HW251380   2.550   5.895   5.883
16495SOL     OW51381   2.116   6.628   0.714
16495SOL    HW151382   2.128   6.601   0.623
16495SOL    HW251383   2.140   6.551   0.766
16496SOL     OW51384   4.524   8.127  14.764
16496SOL    HW151385   4.567   8.097  14.843
16496SOL    HW251386   4.537   8.056  14.701
16497SOL     OW51387   8.662   7.097  14.658
16497SOL    HW151388   8.594   7.150  14.699
16497SOL    HW251389   8.741   7.152  14.661
16498SOL     OW51390   1.353   8.414  10.548
16498SOL    HW151391   1.337   8.343  10.610
16498SOL    HW251392   1.343   8.494  10.599
16499SOL     OW51393   0.017   2.969   9.252
16499SOL    HW151394  14.802   2.950   9.216
16499SOL    HW251395   0.009   3.057   9.289
16500SOL     OW51396  10.778  10.092   7.688
16500SOL    HW151397  10.766  10.126   7.777
16500SOL    HW251398  10.739  10.158   7.631
16501SOL     OW51399   3.327  13.162   4.709
16501SOL    HW151400   3.264  13.206   4.765
16501SOL    HW251401   3.361  13.090   4.762
16502SOL     OW51402  12.320   7.825   9.174
16502SOL    HW151403  12.276   7.843   9.091
16502SOL    HW251404  12.344   7.911   9.209
16503SOL     OW51405   5.813  12.147  12.316
16503SOL    HW151406   5.790  12.059  12.344
16503SOL    HW251407   5.762  12.161  12.236
16504SOL     OW51408   5.620  12.292  12.531
16504SOL    HW151409   5.688  12.356  12.513
16504SOL    HW251410   5.576  12.325  12.610
16505SOL     OW51411   1.050   5.650   6.895
16505SOL    HW151412   1.027   5.696   6.814
16505SOL    HW251413   1.146   5.649   6.896
16506SOL     OW51414  12.265  13.702   0.699
16506SOL    HW151415  12.311  13.786   0.686
16506SOL    HW251416  12.315  13.658   0.768
16507SOL     OW51417   8.055   2.967   6.986
16507SOL    HW151418   8.022   2.903   6.924
16507SOL    HW251419   7.976   3.010   7.021
16508SOL     OW51420   3.804   3.827  14.599
16508SOL    HW151421   3.800   3.772  14.677
16508SOL    HW251422   3.801   3.916  14.631
16509SOL     OW51423  14.645   6.416  12.527
16509SOL    HW151424  14.641   6.507  12.556
16509SOL    HW251425  14.681   6.368  12.603
16510SOL     OW51426  10.435   3.224  13.813
16510SOL    HW151427  10.439   3.235  13.908
16510SOL    HW251428  10.345   3.196  13.796
16511SOL     OW51429  14.779  12.545  13.383
16511SOL    HW151430  14.761  12.453  13.362
16511SOL    HW251431   0.002  12.547  13.399
16512SOL     OW51432   2.478  13.259   2.098
16512SOL    HW151433   2.424  13.266   2.177
16512SOL    HW251434   2.438  13.321   2.037
16513SOL     OW51435   6.579   9.268   1.584
16513SOL    HW151436   6.526   9.294   1.509
16513SOL    HW251437   6.605   9.350   1.625
16514SOL     OW51438   5.895  12.529   6.138
16514SOL    HW151439   5.816  12.510   6.088
16514SOL    HW251440   5.961  12.468   6.103
16515SOL     OW51441  13.573   5.490  11.215
16515SOL    HW151442  13.633   5.526  11.280
16515SOL    HW251443  13.601   5.399  11.205
16516SOL     OW51444   5.068   5.009   4.731
16516SOL    HW151445   5.097   5.070   4.663
16516SOL    HW251446   5.001   5.057   4.780
16517SOL     OW51447   5.611   4.128  10.634
16517SOL    HW151448   5.693   4.112  10.589
16517SOL    HW251449   5.557   4.051  10.614
16518SOL     OW51450   8.814  14.011   8.308
16518SOL    HW151451   8.756  14.086   8.296
16518SOL    HW251452   8.855  14.026   8.393
16519SOL     OW51453   8.517   7.314   9.830
16519SOL    HW151454   8.462   7.351   9.898
16519SOL    HW251455   8.605   7.313   9.867
16520SOL     OW51456  10.739   5.520   2.579
16520SOL    HW151457  10.721   5.580   2.651
16520SOL    HW251458  10.676   5.543   2.512
16521SOL     OW51459   0.448  14.518   4.766
16521SOL    HW151460   0.519  14.471   4.811
16521SOL    HW251461   0.474  14.516   4.674
16522SOL     OW51462   7.451   1.811   3.503
16522SOL    HW151463   7.358   1.787   3.509
16522SOL    HW251464   7.469   1.815   3.409
16523SOL     OW51465   2.816   9.643   7.805
16523SOL    HW151466   2.897   9.610   7.844
16523SOL    HW251467   2.840   9.668   7.716
16524SOL     OW51468  14.096   1.309   7.999
16524SOL    HW151469  14.122   1.290   7.909
16524SOL    HW251470  14.126   1.233   8.049
16525SOL     OW51471   3.842   6.866   0.700
16525SOL    HW151472   3.929   6.861   0.660
16525SOL    HW251473   3.841   6.795   0.764
16526SOL     OW51474   3.536   0.836   0.797
16526SOL    HW151475   3.445   0.863   0.810
16526SOL    HW251476   3.552   0.849   0.703
16527SOL     OW51477   4.573   6.131   5.721
16527SOL    HW151478   4.502   6.079   5.760
16527SOL    HW251479   4.554   6.131   5.628
16528SOL     OW51480   4.222   4.850   7.127
16528SOL    HW151481   4.313   4.850   7.096
16528SOL    HW251482   4.170   4.869   7.048
16529SOL     OW51483   8.131   7.509   3.932
16529SOL    HW151484   8.210   7.520   3.879
16529SOL    HW251485   8.148   7.559   4.011
16530SOL     OW51486  12.641   5.105  14.086
16530SOL    HW151487  12.675   5.194  14.086
16530SOL    HW251488  12.629   5.084  14.178
16531SOL     OW51489   6.068   4.052   1.761
16531SOL    HW151490   6.003   4.112   1.725
16531SOL    HW251491   6.098   4.094   1.842
16532SOL     OW51492   2.384   1.893  12.346
16532SOL    HW151493   2.439   1.828  12.304
16532SOL    HW251494   2.311   1.904  12.285
16533SOL     OW51495   8.349  11.793  11.705
16533SOL    HW151496   8.333  11.736  11.780
16533SOL    HW251497   8.263  11.805  11.665
16534SOL     OW51498   5.848  13.148   0.978
16534SOL    HW151499   5.768  13.124   0.931
16534SOL    HW251500   5.869  13.236   0.948
16535SOL     OW51501  13.578   6.029   0.201
16535SOL    HW151502  13.516   5.969   0.242
16535SOL    HW251503  13.617   5.978   0.129
16536SOL     OW51504   7.740   4.959  10.960
16536SOL    HW151505   7.822   5.006  10.976
16536SOL    HW251506   7.715   4.924  11.046
16537SOL     OW51507   3.612   6.213   4.137
16537SOL    HW151508   3.620   6.164   4.219
16537SOL    HW251509   3.637   6.151   4.069
16538SOL     OW51510  13.944   8.915  12.489
16538SOL    HW151511  13.952   9.009  12.476
16538SOL    HW251512  13.850   8.899  12.496
16539SOL     OW51513   4.217  10.600  10.974
16539SOL    HW151514   4.174  10.618  10.890
16539SOL    HW251515   4.151  10.555  11.027
16540SOL     OW51516   5.286  10.187   6.308
16540SOL    HW151517   5.367  10.139   6.326
16540SOL    HW251518   5.234  10.127   6.254
16541SOL     OW51519  10.683  12.498   2.164
16541SOL    HW151520  10.635  12.415   2.170
16541SOL    HW251521  10.772  12.473   2.138
16542SOL     OW51522  12.302   8.538  12.095
16542SOL    HW151523  12.309   8.513  12.003
16542SOL    HW251524  12.251   8.619  12.094
16543SOL     OW51525   0.501   4.744  12.201
16543SOL    HW151526   0.574   4.692  12.169
16543SOL    HW251527   0.522   4.761  12.293
16544SOL     OW51528   8.473   8.020  12.214
16544SOL    HW151529   8.435   8.108  12.222
16544SOL    HW251530   8.563   8.030  12.246
16545SOL     OW51531  12.102  11.683   6.712
16545SOL    HW151532  12.025  11.735   6.689
16545SOL    HW251533  12.067  11.604   6.752
16546SOL     OW51534   3.466   5.607   8.502
16546SOL    HW151535   3.560   5.620   8.508
16546SOL    HW251536   3.434   5.623   8.591
16547SOL     OW51537   6.887  10.250   6.301
16547SOL    HW151538   6.803  10.204   6.295
16547SOL    HW251539   6.944  10.189   6.349
16548SOL     OW51540  11.330  12.400  12.436
16548SOL    HW151541  11.417  12.427  12.406
16548SOL    HW251542  11.272  12.469  12.405
16549SOL     OW51543   3.729  14.104  13.988
16549SOL    HW151544   3.749  14.149  14.070
16549SOL    HW251545   3.648  14.056  14.006
16550SOL     OW51546   9.331   4.544  11.231
16550SOL    HW151547   9.313   4.456  11.264
16550SOL    HW251548   9.427   4.553  11.237
16551SOL     OW51549   1.842  13.663   8.033
16551SOL    HW151550   1.806  13.682   8.120
16551SOL    HW251551   1.929  13.627   8.049
16552SOL     OW51552  13.223   9.771   2.365
16552SOL    HW151553  13.235   9.766   2.460
16552SOL    HW251554  13.251   9.860   2.342
16553SOL     OW51555  11.072   8.026  11.388
16553SOL    HW151556  11.017   8.001  11.462
16553SOL    HW251557  11.111   7.944  11.358
16554SOL     OW51558   1.039   4.014  14.266
16554SOL    HW151559   0.963   3.994  14.211
16554SOL    HW251560   1.111   3.963  14.228
16555SOL     OW51561   4.868   8.908  14.720
16555SOL    HW151562   4.945   8.939  14.674
16555SOL    HW251563   4.899   8.834  14.772
16556SOL     OW51564   0.677  12.923   9.714
16556SOL    HW151565   0.751  12.916   9.655
16556SOL    HW251566   0.661  13.017   9.722
16557SOL     OW51567  13.497   7.539   4.037
16557SOL    HW151568  13.585   7.502   4.035
16557SOL    HW251569  13.482   7.570   3.948
16558SOL     OW51570  10.719  10.906  13.984
16558SOL    HW151571  10.739  10.998  13.964
16558SOL    HW251572  10.627  10.896  13.959
16559SOL     OW51573  14.380   8.280   3.044
16559SOL    HW151574  14.389   8.371   3.074
16559SOL    HW251575  14.357   8.231   3.122
16560SOL     OW51576   6.689  11.873  14.108
16560SOL    HW151577   6.630  11.880  14.183
16560SOL    HW251578   6.770  11.837  14.145
16561SOL     OW51579   4.159   2.755  11.187
16561SOL    HW151580   4.219   2.689  11.152
16561SOL    HW251581   4.085   2.755  11.126
16562SOL     OW51582  14.269   5.791   1.429
16562SOL    HW151583  14.219   5.842   1.365
16562SOL    HW251584  14.206   5.727   1.463
16563SOL     OW51585   9.474  13.063   6.335
16563SOL    HW151586   9.422  13.025   6.264
16563SOL    HW251587   9.513  12.988   6.379
16564SOL     OW51588   4.197   9.773   6.981
16564SOL    HW151589   4.160   9.722   7.053
16564SOL    HW251590   4.287   9.793   7.009
16565SOL     OW51591  11.061   2.578   3.605
16565SOL    HW151592  11.104   2.493   3.598
16565SOL    HW251593  11.112   2.635   3.547
16566SOL     OW51594  13.973   8.458   7.405
16566SOL    HW151595  14.004   8.391   7.344
16566SOL    HW251596  13.877   8.455   7.396
16567SOL     OW51597   8.879  13.241   3.701
16567SOL    HW151598   8.911  13.293   3.775
16567SOL    HW251599   8.801  13.288   3.671
16568SOL     OW51600  13.706  11.875  13.916
16568SOL    HW151601  13.668  11.868  14.003
16568SOL    HW251602  13.634  11.908  13.861
16569SOL     OW51603  10.012  13.178  10.299
16569SOL    HW151604  10.040  13.258  10.343
16569SOL    HW251605   9.922  13.196  10.271
16570SOL     OW51606   5.267   0.319   4.368
16570SOL    HW151607   5.313   0.403   4.359
16570SOL    HW251608   5.223   0.307   4.283
16571SOL     OW51609   3.012   0.108  13.998
16571SOL    HW151610   3.055   0.079  13.918
16571SOL    HW251611   3.040   0.044  14.064
16572SOL     OW51612  12.156  11.196   0.439
16572SOL    HW151613  12.110  11.129   0.490
16572SOL    HW251614  12.095  11.218   0.368
16573SOL     OW51615   1.833   0.270   4.226
16573SOL    HW151616   1.876   0.328   4.288
16573SOL    HW251617   1.893   0.265   4.152
16574SOL     OW51618  11.859   0.830  13.185
16574SOL    HW151619  11.900   0.914  13.165
16574SOL    HW251620  11.791   0.851  13.249
16575SOL     OW51621  10.988   7.192   1.024
16575SOL    HW151622  11.046   7.116   1.014
16575SOL    HW251623  10.913   7.159   1.073
16576SOL     OW51624   3.583   3.786  13.649
16576SOL    HW151625   3.631   3.707  13.676
16576SOL    HW251626   3.491   3.764  13.663
16577SOL     OW51627   6.408   0.825   9.998
16577SOL    HW151628   6.412   0.854  10.089
16577SOL    HW251629   6.364   0.897   9.952
16578SOL     OW51630  12.525   0.118   6.383
16578SOL    HW151631  12.559   0.140   6.470
16578SOL    HW251632  12.484   0.032   6.395
16579SOL     OW51633   0.240   4.612   1.134
16579SOL    HW151634   0.212   4.694   1.175
16579SOL    HW251635   0.221   4.625   1.041
16580SOL     OW51636  11.442   1.072   0.606
16580SOL    HW151637  11.530   1.038   0.587
16580SOL    HW251638  11.396   1.066   0.523
16581SOL     OW51639  12.488   4.690  10.373
16581SOL    HW151640  12.542   4.635  10.315
16581SOL    HW251641  12.549   4.755  10.407
16582SOL     OW51642   7.800   5.048   5.483
16582SOL    HW151643   7.773   5.135   5.511
16582SOL    HW251644   7.719   4.997   5.482
16583SOL     OW51645   4.413  14.708  10.740
16583SOL    HW151646   4.493  14.758  10.724
16583SOL    HW251647   4.343  14.774  10.741
16584SOL     OW51648   3.795   4.303  13.059
16584SOL    HW151649   3.882   4.264  13.056
16584SOL    HW251650   3.751   4.269  12.982
16585SOL     OW51651   8.692   9.161   9.609
16585SOL    HW151652   8.664   9.121   9.691
16585SOL    HW251653   8.640   9.118   9.542
16586SOL     OW51654   9.190  13.081  12.282
16586SOL    HW151655   9.129  13.149  12.253
16586SOL    HW251656   9.172  13.071  12.376
16587SOL     OW51657   0.009  14.847   0.465
16587SOL    HW151658   0.063   0.055   0.466
16587SOL    HW251659  14.800   0.002   0.510
16588SOL     OW51660   3.731  14.809   1.172
16588SOL    HW151661   3.797  14.839   1.110
16588SOL    HW251662   3.728   0.006   1.239
16589SOL     OW51663  14.377   6.519  13.460
16589SOL    HW151664  14.457   6.515  13.408
16589SOL    HW251665  14.353   6.427  13.474
16590SOL     OW51666   4.087  14.176  14.305
16590SOL    HW151667   4.131  14.244  14.355
16590SOL    HW251668   4.135  14.096  14.327
16591SOL     OW51669   8.415  10.257   1.715
16591SOL    HW151670   8.376  10.263   1.802
16591SOL    HW251671   8.342  10.262   1.655
16592SOL     OW51672   1.167   7.205   9.088
16592SOL    HW151673   1.076   7.209   9.120
16592SOL    HW251674   1.170   7.270   9.017
16593SOL     OW51675   9.857   1.238   8.829
16593SOL    HW151676   9.836   1.145   8.830
16593SOL    HW251677   9.933   1.244   8.772
16594SOL     OW51678  10.849   3.389   4.816
16594SOL    HW151679  10.866   3.306   4.771
16594SOL    HW251680  10.823   3.449   4.747
16595SOL     OW51681   0.347  11.950  12.131
16595SOL    HW151682   0.262  11.906  12.130
16595SOL    HW251683   0.391  11.916  12.209
16596SOL     OW51684   4.804   1.146  13.120
16596SOL    HW151685   4.821   1.129  13.027
16596SOL    HW251686   4.715   1.181  13.122
16597SOL     OW51687   5.054   9.417   7.703
16597SOL    HW151688   5.135   9.447   7.744
16597SOL    HW251689   5.083   9.376   7.622
16598SOL     OW51690  14.355   0.021   1.201
16598SOL    HW151691  14.291   0.067   1.145
16598SOL    HW251692  14.304  14.824   1.244
16599SOL     OW51693  10.758   3.953   7.186
16599SOL    HW151694  10.803   3.999   7.115
16599SOL    HW251695  10.742   4.020   7.252
16600SOL     OW51696   4.776   5.742   5.737
16600SOL    HW151697   4.690   5.700   5.729
16600SOL    HW251698   4.838   5.670   5.738
16601SOL     OW51699   7.585   4.510   6.732
16601SOL    HW151700   7.573   4.520   6.827
16601SOL    HW251701   7.563   4.418   6.715
16602SOL     OW51702  10.778   4.699   7.637
16602SOL    HW151703  10.763   4.642   7.713
16602SOL    HW251704  10.701   4.755   7.634
16603SOL     OW51705  14.780   1.713   7.107
16603SOL    HW151706  14.863   1.693   7.064
16603SOL    HW251707  14.802   1.776   7.175
16604SOL     OW51708   0.626   4.858  13.948
16604SOL    HW151709   0.573   4.794  13.900
16604SOL    HW251710   0.695   4.883  13.887
16605SOL     OW51711   9.359   8.170   0.941
16605SOL    HW151712   9.445   8.131   0.926
16605SOL    HW251713   9.316   8.166   0.855
16606SOL     OW51714   8.241   8.171   0.767
16606SOL    HW151715   8.228   8.090   0.817
16606SOL    HW251716   8.203   8.239   0.823
16607SOL     OW51717   9.774   5.052   5.045
16607SOL    HW151718   9.764   5.108   5.122
16607SOL    HW251719   9.701   5.075   4.988
16608SOL     OW51720   1.018  10.906   8.521
16608SOL    HW151721   1.031  10.950   8.437
16608SOL    HW251722   1.105  10.876   8.547
16609SOL     OW51723   5.540  11.353  14.263
16609SOL    HW151724   5.504  11.267  14.282
16609SOL    HW251725   5.588  11.342  14.180
16610SOL     OW51726   1.798  12.715  12.569
16610SOL    HW151727   1.851  12.790  12.542
16610SOL    HW251728   1.863  12.649  12.596
16611SOL     OW51729   7.710   1.946   5.221
16611SOL    HW151730   7.779   2.006   5.247
16611SOL    HW251731   7.748   1.859   5.234
16612SOL     OW51732   2.100   6.342   2.881
16612SOL    HW151733   2.151   6.290   2.943
16612SOL    HW251734   2.164   6.373   2.817
16613SOL     OW51735   4.761   1.265   5.922
16613SOL    HW151736   4.835   1.242   5.978
16613SOL    HW251737   4.727   1.182   5.891
16614SOL     OW51738   5.516  10.518   0.383
16614SOL    HW151739   5.478  10.580   0.446
16614SOL    HW251740   5.488  10.432   0.414
16615SOL     OW51741   3.642   0.858   4.430
16615SOL    HW151742   3.555   0.864   4.468
16615SOL    HW251743   3.701   0.874   4.504
16616SOL     OW51744   3.182  12.978  11.097
16616SOL    HW151745   3.255  12.984  11.158
16616SOL    HW251746   3.170  12.885  11.082
16617SOL     OW51747  14.046  12.935   1.087
16617SOL    HW151748  14.082  12.901   1.005
16617SOL    HW251749  13.951  12.935   1.072
16618SOL     OW51750  11.995  10.534   6.048
16618SOL    HW151751  11.946  10.565   6.125
16618SOL    HW251752  12.051  10.464   6.082
16619SOL     OW51753   0.937   3.026   9.162
16619SOL    HW151754   0.916   2.975   9.240
16619SOL    HW251755   0.863   3.012   9.103
16620SOL     OW51756   7.149   0.778  14.096
16620SOL    HW151757   7.067   0.815  14.062
16620SOL    HW251758   7.157   0.694  14.049
16621SOL     OW51759  11.788   7.119   7.270
16621SOL    HW151760  11.823   7.128   7.181
16621SOL    HW251761  11.720   7.053   7.263
16622SOL     OW51762   9.412   6.089   8.684
16622SOL    HW151763   9.383   6.180   8.687
16622SOL    HW251764   9.456   6.080   8.599
16623SOL     OW51765   4.949  13.636   0.313
16623SOL    HW151766   4.912  13.557   0.274
16623SOL    HW251767   5.043  13.622   0.311
16624SOL     OW51768  13.116   7.056   1.223
16624SOL    HW151769  13.051   7.096   1.282
16624SOL    HW251770  13.069   7.044   1.141
16625SOL     OW51771  10.488  13.126   0.141
16625SOL    HW151772  10.466  13.181   0.216
16625SOL    HW251773  10.574  13.091   0.161
16626SOL     OW51774  12.728  13.801  13.949
16626SOL    HW151775  12.719  13.795  13.854
16626SOL    HW251776  12.731  13.895  13.967
16627SOL     OW51777   5.154   0.599   8.593
16627SOL    HW151778   5.234   0.596   8.645
16627SOL    HW251779   5.084   0.612   8.656
16628SOL     OW51780  13.238  14.866   7.402
16628SOL    HW151781  13.270  14.843   7.489
16628SOL    HW251782  13.152  14.825   7.397
16629SOL     OW51783   8.971  11.063   4.184
16629SOL    HW151784   8.997  11.006   4.258
16629SOL    HW251785   8.985  11.008   4.107
16630SOL     OW51786   1.598  13.470   7.085
16630SOL    HW151787   1.663  13.455   7.017
16630SOL    HW251788   1.611  13.561   7.112
16631SOL     OW51789   8.381   7.271  13.762
16631SOL    HW151790   8.333   7.264  13.844
16631SOL    HW251791   8.389   7.365  13.746
16632SOL     OW51792  11.058  14.283  10.793
16632SOL    HW151793  11.132  14.339  10.815
16632SOL    HW251794  11.083  14.238  10.713
16633SOL     OW51795   8.456   7.200   5.877
16633SOL    HW151796   8.507   7.281   5.880
16633SOL    HW251797   8.421   7.189   5.965
16634SOL     OW51798   4.794   2.760   9.275
16634SOL    HW151799   4.732   2.782   9.345
16634SOL    HW251800   4.792   2.665   9.270
16635SOL     OW51801  12.373  13.462   2.276
16635SOL    HW151802  12.313  13.536   2.269
16635SOL    HW251803  12.460  13.502   2.275
16636SOL     OW51804   0.118   5.763  12.175
16636SOL    HW151805   0.208   5.765  12.206
16636SOL    HW251806   0.086   5.853  12.188
16637SOL     OW51807   1.758   4.774   2.884
16637SOL    HW151808   1.852   4.782   2.868
16637SOL    HW251809   1.729   4.863   2.902
16638SOL     OW51810   9.679   7.793  10.473
16638SOL    HW151811   9.718   7.877  10.450
16638SOL    HW251812   9.621   7.772  10.400
16639SOL     OW51813   0.518   5.957  12.507
16639SOL    HW151814   0.473   5.874  12.520
16639SOL    HW251815   0.541   5.987  12.595
16640SOL     OW51816   2.753  11.612   3.043
16640SOL    HW151817   2.684  11.558   3.004
16640SOL    HW251818   2.817  11.548   3.074
16641SOL     OW51819   8.028  14.340   6.213
16641SOL    HW151820   8.092  14.302   6.273
16641SOL    HW251821   8.062  14.428   6.193
16642SOL     OW51822   4.566  12.634   8.273
16642SOL    HW151823   4.579  12.606   8.182
16642SOL    HW251824   4.640  12.598   8.320
16643SOL     OW51825   4.006   7.177  13.385
16643SOL    HW151826   4.089   7.188  13.432
16643SOL    HW251827   3.941   7.166  13.454
16644SOL     OW51828   0.231   3.082   0.619
16644SOL    HW151829   0.297   3.069   0.688
16644SOL    HW251830   0.191   3.167   0.641
16645SOL     OW51831  10.607   6.758   9.378
16645SOL    HW151832  10.580   6.691   9.316
16645SOL    HW251833  10.699   6.775   9.357
16646SOL     OW51834   3.051   5.169   3.986
16646SOL    HW151835   2.984   5.141   4.048
16646SOL    HW251836   3.100   5.089   3.965
16647SOL     OW51837   7.695  12.489  13.755
16647SOL    HW151838   7.631  12.493  13.684
16647SOL    HW251839   7.663  12.552  13.820
16648SOL     OW51840  11.942   8.037   2.823
16648SOL    HW151841  11.876   8.022   2.890
16648SOL    HW251842  11.921   8.123   2.787
16649SOL     OW51843  13.579   3.009   7.049
16649SOL    HW151844  13.487   2.984   7.047
16649SOL    HW251845  13.596   3.050   6.964
16650SOL     OW51846  13.464   5.808   8.445
16650SOL    HW151847  13.466   5.784   8.538
16650SOL    HW251848  13.378   5.778   8.414
16651SOL     OW51849   2.013   6.636   1.169
16651SOL    HW151850   1.934   6.612   1.120
16651SOL    HW251851   2.081   6.578   1.136
16652SOL     OW51852   3.040   7.596   4.771
16652SOL    HW151853   3.131   7.607   4.744
16652SOL    HW251854   2.992   7.664   4.724
16653SOL     OW51855   5.407   2.131   7.972
16653SOL    HW151856   5.493   2.146   7.932
16653SOL    HW251857   5.349   2.113   7.898
16654SOL     OW51858  13.934   4.417  11.140
16654SOL    HW151859  13.916   4.328  11.169
16654SOL    HW251860  13.867   4.435  11.074
16655SOL     OW51861  11.961  11.816   0.313
16655SOL    HW151862  11.999  11.794   0.398
16655SOL    HW251863  11.912  11.897   0.329
16656SOL     OW51864   9.870   0.628  14.238
16656SOL    HW151865   9.783   0.587  14.233
16656SOL    HW251866   9.857   0.715  14.202
16657SOL     OW51867   2.554   7.644   2.959
16657SOL    HW151868   2.545   7.716   3.021
16657SOL    HW251869   2.549   7.685   2.873
16658SOL     OW51870  12.344   5.797   1.162
16658SOL    HW151871  12.398   5.865   1.202
16658SOL    HW251872  12.267   5.844   1.128
16659SOL     OW51873   3.370   2.859   1.472
16659SOL    HW151874   3.337   2.940   1.510
16659SOL    HW251875   3.446   2.837   1.525
16660SOL     OW51876  14.430   4.774  14.293
16660SOL    HW151877  14.398   4.844  14.236
16660SOL    HW251878  14.381   4.696  14.267
16661SOL     OW51879   0.972   0.321   2.056
16661SOL    HW151880   0.937   0.352   2.139
16661SOL    HW251881   0.936   0.381   1.990
16662SOL     OW51882   3.878   4.017   4.307
16662SOL    HW151883   3.894   4.024   4.401
16662SOL    HW251884   3.966   4.020   4.268
16663SOL     OW51885   0.560   8.620  13.621
16663SOL    HW151886   0.504   8.683  13.667
16663SOL    HW251887   0.531   8.625  13.530
16664SOL     OW51888   4.035   7.344   8.059
16664SOL    HW151889   3.960   7.331   8.001
16664SOL    HW251890   4.076   7.257   8.064
16665SOL     OW51891   2.700   0.676   0.506
16665SOL    HW151892   2.771   0.627   0.465
16665SOL    HW251893   2.655   0.611   0.561
16666SOL     OW51894   9.649   5.507  10.222
16666SOL    HW151895   9.666   5.510  10.128
16666SOL    HW251896   9.715   5.565  10.260
16667SOL     OW51897   9.435  10.655  11.661
16667SOL    HW151898   9.374  10.728  11.648
16667SOL    HW251899   9.380  10.583  11.691
16668SOL     OW51900   2.793   1.615   1.916
16668SOL    HW151901   2.823   1.560   1.843
16668SOL    HW251902   2.805   1.705   1.885
16669SOL     OW51903   1.997  13.080   5.670
16669SOL    HW151904   2.055  13.103   5.598
16669SOL    HW251905   1.912  13.117   5.645
16670SOL     OW51906   1.756  11.472  12.497
16670SOL    HW151907   1.790  11.455  12.585
16670SOL    HW251908   1.831  11.502  12.447
16671SOL     OW51909   2.578  14.213   0.054
16671SOL    HW151910   2.557  14.178   0.140
16671SOL    HW251911   2.498  14.255   0.024
16672SOL     OW51912   1.280  14.691   3.782
16672SOL    HW151913   1.268  14.746   3.704
16672SOL    HW251914   1.304  14.605   3.747
16673SOL     OW51915   2.716   6.814   5.947
16673SOL    HW151916   2.799   6.843   5.987
16673SOL    HW251917   2.679   6.752   6.010
16674SOL     OW51918   5.598   9.942   9.228
16674SOL    HW151919   5.687   9.911   9.212
16674SOL    HW251920   5.546   9.861   9.235
16675SOL     OW51921  10.156   2.884   1.930
16675SOL    HW151922  10.220   2.925   1.987
16675SOL    HW251923  10.100   2.957   1.901
16676SOL     OW51924  13.127   3.523  12.356
16676SOL    HW151925  13.179   3.492  12.430
16676SOL    HW251926  13.168   3.482  12.279
16677SOL     OW51927   3.440   8.093   5.064
16677SOL    HW151928   3.481   8.026   5.009
16677SOL    HW251929   3.443   8.055   5.152
16678SOL     OW51930   4.592   6.490   7.695
16678SOL    HW151931   4.526   6.472   7.762
16678SOL    HW251932   4.543   6.521   7.620
16679SOL     OW51933   7.004   9.986   6.862
16679SOL    HW151934   7.086  10.032   6.847
16679SOL    HW251935   7.013   9.948   6.950
16680SOL     OW51936   7.646  12.035   6.133
16680SOL    HW151937   7.640  11.980   6.211
16680SOL    HW251938   7.574  12.098   6.142
16681SOL     OW51939   2.000  12.519  12.543
16681SOL    HW151940   2.025  12.559  12.460
16681SOL    HW251941   2.083  12.511  12.591
16682SOL     OW51942   0.594  14.160   5.049
16682SOL    HW151943   0.676  14.180   5.093
16682SOL    HW251944   0.561  14.082   5.092
16683SOL     OW51945  10.365   7.227  12.545
16683SOL    HW151946  10.400   7.266  12.465
16683SOL    HW251947  10.341   7.302  12.600
16684SOL     OW51948  14.309   7.744   4.388
16684SOL    HW151949  14.362   7.813   4.428
16684SOL    HW251950  14.373   7.681   4.355
16685SOL     OW51951   9.332  13.346  11.899
16685SOL    HW151952   9.425  13.351  11.876
16685SOL    HW251953   9.315  13.253  11.911
16686SOL     OW51954  10.153   5.177  10.554
16686SOL    HW151955  10.222   5.125  10.514
16686SOL    HW251956  10.150   5.257  10.502
16687SOL     OW51957   9.492   3.075  12.153
16687SOL    HW151958   9.428   3.066  12.224
16687SOL    HW251959   9.568   3.115  12.195
16688SOL     OW51960   5.122  13.340   3.423
16688SOL    HW151961   5.184  13.410   3.440
16688SOL    HW251962   5.057  13.348   3.492
16689SOL     OW51963   6.796   6.006   7.969
16689SOL    HW151964   6.806   6.065   8.044
16689SOL    HW251965   6.773   5.922   8.008
16690SOL     OW51966   6.789  13.615  13.858
16690SOL    HW151967   6.729  13.610  13.784
16690SOL    HW251968   6.855  13.680  13.832
16691SOL     OW51969   7.936   8.405  10.309
16691SOL    HW151970   7.917   8.314  10.328
16691SOL    HW251971   7.862   8.434  10.255
16692SOL     OW51972   4.050  14.129  13.356
16692SOL    HW151973   4.037  14.215  13.396
16692SOL    HW251974   4.129  14.095  13.397
16693SOL     OW51975   0.169   2.502  14.586
16693SOL    HW151976   0.191   2.428  14.529
16693SOL    HW251977   0.078   2.487  14.611
16694SOL     OW51978   4.036   0.501   0.349
16694SOL    HW151979   4.077   0.500   0.436
16694SOL    HW251980   4.105   0.474   0.289
16695SOL     OW51981   2.886   5.800  10.724
16695SOL    HW151982   2.799   5.828  10.696
16695SOL    HW251983   2.881   5.802  10.820
16696SOL     OW51984  11.935   7.346  14.060
16696SOL    HW151985  11.848   7.305  14.065
16696SOL    HW251986  11.996   7.272  14.055
16697SOL     OW51987  11.074   4.293   5.073
16697SOL    HW151988  11.090   4.282   4.979
16697SOL    HW251989  11.149   4.344   5.104
16698SOL     OW51990   9.089   2.831   2.536
16698SOL    HW151991   9.060   2.923   2.534
16698SOL    HW251992   9.028   2.786   2.478
16699SOL     OW51993  11.971   8.415   5.496
16699SOL    HW151994  12.057   8.372   5.494
16699SOL    HW251995  11.948   8.417   5.589
16700SOL     OW51996   5.126  11.568   2.360
16700SOL    HW151997   5.060  11.589   2.294
16700SOL    HW251998   5.083  11.584   2.444
16701SOL     OW51999   4.248   6.994   7.655
16701SOL    HW152000   4.291   6.978   7.571
16701SOL    HW252001   4.210   7.081   7.646
16702SOL     OW52002   5.962  12.682  14.196
16702SOL    HW152003   5.972  12.620  14.124
16702SOL    HW252004   5.936  12.629  14.271
16703SOL     OW52005   4.248  14.456  10.317
16703SOL    HW152006   4.291  14.425  10.237
16703SOL    HW252007   4.306  14.428  10.388
16704SOL     OW52008  14.392  13.658  11.205
16704SOL    HW152009  14.399  13.752  11.188
16704SOL    HW252010  14.478  13.623  11.180
16705SOL     OW52011  10.588  10.872  14.597
16705SOL    HW152012  10.497  10.899  14.592
16705SOL    HW252013  10.609  10.843  14.508
16706SOL     OW52014   8.428   4.495   3.518
16706SOL    HW152015   8.478   4.475   3.438
16706SOL    HW252016   8.472   4.570   3.556
16707SOL     OW52017   5.971   1.242  13.406
16707SOL    HW152018   5.919   1.298  13.463
16707SOL    HW252019   5.945   1.267  13.317
16708SOL     OW52020  11.312   9.653  11.367
16708SOL    HW152021  11.231   9.607  11.346
16708SOL    HW252022  11.374   9.624  11.300
16709SOL     OW52023   3.820   2.364   0.677
16709SOL    HW152024   3.859   2.451   0.688
16709SOL    HW252025   3.726   2.379   0.684
16710SOL     OW52026  11.513   6.156  11.015
16710SOL    HW152027  11.604   6.180  11.034
16710SOL    HW252028  11.472   6.145  11.101
16711SOL     OW52029  10.735   2.776   9.577
16711SOL    HW152030  10.816   2.807   9.537
16711SOL    HW252031  10.760   2.697   9.625
16712SOL     OW52032   6.197   2.833  11.203
16712SOL    HW152033   6.284   2.853  11.166
16712SOL    HW252034   6.135   2.869  11.139
16713SOL     OW52035   2.836   8.334   2.134
16713SOL    HW152036   2.748   8.345   2.169
16713SOL    HW252037   2.828   8.266   2.067
16714SOL     OW52038   8.854   0.164   8.380
16714SOL    HW152039   8.845   0.221   8.303
16714SOL    HW252040   8.828   0.219   8.454
16715SOL     OW52041  12.181  13.549  14.225
16715SOL    HW152042  12.246  13.576  14.290
16715SOL    HW252043  12.163  13.458  14.246
16716SOL     OW52044   1.706   7.584   1.135
16716SOL    HW152045   1.784   7.638   1.151
16716SOL    HW252046   1.721   7.545   1.049
16717SOL     OW52047   7.640   5.559   6.643
16717SOL    HW152048   7.547   5.553   6.665
16717SOL    HW252049   7.658   5.476   6.598
16718SOL     OW52050   5.642   8.959   9.459
16718SOL    HW152051   5.639   9.029   9.525
16718SOL    HW252052   5.697   8.891   9.499
16719SOL     OW52053   0.330   4.653   6.350
16719SOL    HW152054   0.300   4.602   6.274
16719SOL    HW252055   0.415   4.686   6.324
16720SOL     OW52056  14.452  11.112   4.157
16720SOL    HW152057  14.359  11.096   4.140
16720SOL    HW252058  14.489  11.024   4.169
16721SOL     OW52059  11.750   5.641  14.520
16721SOL    HW152060  11.775   5.625  14.611
16721SOL    HW252061  11.823   5.693  14.484
16722SOL     OW52062  10.713   0.899  14.562
16722SOL    HW152063  10.688   0.882  14.471
16722SOL    HW252064  10.806   0.878  14.566
16723SOL     OW52065  13.139   6.612   1.957
16723SOL    HW152066  13.224   6.587   1.992
16723SOL    HW252067  13.115   6.541   1.897
16724SOL     OW52068  14.562  12.610   5.819
16724SOL    HW152069  14.651  12.640   5.837
16724SOL    HW252070  14.551  12.623   5.725
16725SOL     OW52071  13.081   4.459   3.403
16725SOL    HW152072  13.093   4.441   3.310
16725SOL    HW252073  13.109   4.550   3.414
16726SOL     OW52074   2.513  13.301   4.570
16726SOL    HW152075   2.444  13.266   4.627
16726SOL    HW252076   2.466  13.329   4.491
16727SOL     OW52077  10.561  12.617  13.319
16727SOL    HW152078  10.521  12.532  13.298
16727SOL    HW252079  10.616  12.600  13.395
16728SOL     OW52080   6.679   3.119   0.229
16728SOL    HW152081   6.743   3.189   0.218
16728SOL    HW252082   6.594   3.161   0.217
16729SOL     OW52083   2.719   0.188  13.300
16729SOL    HW152084   2.647   0.185  13.238
16729SOL    HW252085   2.798   0.177  13.246
16730SOL     OW52086  14.200   0.143   1.788
16730SOL    HW152087  14.155   0.072   1.834
16730SOL    HW252088  14.157   0.149   1.703
16731SOL     OW52089  14.090  11.116   5.274
16731SOL    HW152090  14.156  11.047   5.268
16731SOL    HW252091  14.025  11.083   5.336
16732SOL     OW52092   6.209  14.749  10.717
16732SOL    HW152093   6.257  14.733  10.636
16732SOL    HW252094   6.199  14.663  10.756
16733SOL     OW52095   5.048   6.317   7.858
16733SOL    HW152096   4.978   6.371   7.821
16733SOL    HW252097   5.004   6.235   7.881
16734SOL     OW52098   1.206   8.661   8.974
16734SOL    HW152099   1.246   8.666   9.061
16734SOL    HW252100   1.254   8.593   8.928
16735SOL     OW52101  13.438   0.893   4.462
16735SOL    HW152102  13.436   0.885   4.557
16735SOL    HW252103  13.348   0.916   4.438
16736SOL     OW52104   2.045  10.547  12.285
16736SOL    HW152105   2.070  10.531  12.194
16736SOL    HW252106   1.987  10.474  12.306
16737SOL     OW52107   8.772   7.790  11.839
16737SOL    HW152108   8.695   7.806  11.785
16737SOL    HW252109   8.836   7.854  11.809
16738SOL     OW52110  13.214   7.983   7.221
16738SOL    HW152111  13.171   8.036   7.153
16738SOL    HW252112  13.143   7.959   7.280
16739SOL     OW52113   5.850  14.840   3.545
16739SOL    HW152114   5.806  14.842   3.460
16739SOL    HW252115   5.861  14.747   3.564
16740SOL     OW52116  10.145  11.449   6.782
16740SOL    HW152117  10.140  11.534   6.739
16740SOL    HW252118  10.105  11.388   6.720
16741SOL     OW52119  11.107   1.810   0.333
16741SOL    HW152120  11.114   1.851   0.419
16741SOL    HW252121  11.193   1.772   0.317
16742SOL     OW52122   3.152   3.254   8.104
16742SOL    HW152123   3.134   3.254   8.198
16742SOL    HW252124   3.215   3.183   8.091
16743SOL     OW52125   0.267   6.094  11.480
16743SOL    HW152126   0.229   6.179  11.459
16743SOL    HW252127   0.252   6.084  11.575
16744SOL     OW52128   2.664   0.433   8.583
16744SOL    HW152129   2.713   0.503   8.627
16744SOL    HW252130   2.580   0.430   8.628
16745SOL     OW52131   8.462  14.237   0.123
16745SOL    HW152132   8.446  14.195   0.208
16745SOL    HW252133   8.386  14.293   0.110
16746SOL     OW52134   6.180   7.682   0.148
16746SOL    HW152135   6.186   7.634   0.230
16746SOL    HW252136   6.192   7.774   0.173
16747SOL     OW52137   7.200  14.397  13.621
16747SOL    HW152138   7.126  14.441  13.580
16747SOL    HW252139   7.173  14.305  13.628
16748SOL     OW52140  12.093   7.065   5.383
16748SOL    HW152141  12.101   7.135   5.318
16748SOL    HW252142  11.999   7.049   5.390
16749SOL     OW52143   9.622  13.123   1.067
16749SOL    HW152144   9.622  13.028   1.079
16749SOL    HW252145   9.653  13.159   1.150
16750SOL     OW52146   5.565   5.411  12.990
16750SOL    HW152147   5.633   5.419  13.056
16750SOL    HW252148   5.582   5.327  12.947
16751SOL     OW52149   8.665   9.453  10.241
16751SOL    HW152150   8.713   9.523  10.196
16751SOL    HW252151   8.577   9.488  10.252
16752SOL     OW52152  11.893   8.251  10.413
16752SOL    HW152153  11.893   8.203  10.330
16752SOL    HW252154  11.814   8.221  10.457
16753SOL     OW52155   3.645   5.313   8.430
16753SOL    HW152156   3.651   5.243   8.496
16753SOL    HW252157   3.681   5.390   8.474
16754SOL     OW52158   1.842  13.454  12.697
16754SOL    HW152159   1.885  13.499  12.769
16754SOL    HW252160   1.770  13.512  12.671
16755SOL     OW52161  11.409  10.286   7.525
16755SOL    HW152162  11.406  10.192   7.545
16755SOL    HW252163  11.318  10.310   7.508
16756SOL     OW52164   5.594   8.040  13.760
16756SOL    HW152165   5.626   7.982  13.829
16756SOL    HW252166   5.646   8.017  13.683
16757SOL     OW52167   3.450   5.959  12.782
16757SOL    HW152168   3.498   5.918  12.854
16757SOL    HW252169   3.421   6.043  12.816
16758SOL     OW52170  11.559  13.878   4.055
16758SOL    HW152171  11.649  13.849   4.047
16758SOL    HW252172  11.565  13.963   4.099
16759SOL     OW52173   3.333   2.329   9.806
16759SOL    HW152174   3.334   2.364   9.894
16759SOL    HW252175   3.390   2.387   9.756
16760SOL     OW52176  10.229  12.641   8.314
16760SOL    HW152177  10.134  12.643   8.298
16760SOL    HW252178  10.256  12.732   8.307
16761SOL     OW52179  14.453   1.795  13.796
16761SOL    HW152180  14.502   1.809  13.715
16761SOL    HW252181  14.504   1.843  13.862
16762SOL     OW52182  12.584  11.861  14.031
16762SOL    HW152183  12.537  11.778  14.040
16762SOL    HW252184  12.676  11.838  14.041
16763SOL     OW52185  10.239  12.851   1.283
16763SOL    HW152186  10.333  12.854   1.304
16763SOL    HW252187  10.237  12.850   1.187
16764SOL     OW52188  11.029  14.654  14.162
16764SOL    HW152189  11.088  14.662  14.087
16764SOL    HW252190  10.954  14.605  14.129
16765SOL     OW52191  14.097  14.416  13.671
16765SOL    HW152192  14.093  14.432  13.765
16765SOL    HW252193  14.149  14.489  13.637
16766SOL     OW52194   8.847   3.192   1.300
16766SOL    HW152195   8.774   3.146   1.343
16766SOL    HW252196   8.830   3.284   1.317
16767SOL     OW52197  12.686   9.504   2.468
16767SOL    HW152198  12.659   9.559   2.542
16767SOL    HW252199  12.605   9.462   2.439
16768SOL     OW52200  13.280   8.675  13.981
16768SOL    HW152201  13.313   8.697  14.069
16768SOL    HW252202  13.194   8.716  13.977
16769SOL     OW52203  12.090   9.563  11.975
16769SOL    HW152204  12.008   9.602  12.004
16769SOL    HW252205  12.071   9.529  11.887
16770SOL     OW52206   3.270   0.907   2.333
16770SOL    HW152207   3.258   0.990   2.287
16770SOL    HW252208   3.191   0.896   2.386
16771SOL     OW52209   6.457  10.166  10.855
16771SOL    HW152210   6.436  10.198  10.942
16771SOL    HW252211   6.549  10.191  10.842
16772SOL     OW52212   3.193  12.400  11.565
16772SOL    HW152213   3.259  12.448  11.615
16772SOL    HW252214   3.241  12.362  11.492
16773SOL     OW52215   1.950   4.134   3.769
16773SOL    HW152216   1.968   4.196   3.698
16773SOL    HW252217   1.941   4.049   3.724
16774SOL     OW52218   6.101   0.391   6.218
16774SOL    HW152219   6.130   0.453   6.285
16774SOL    HW252220   6.182   0.352   6.186
16775SOL     OW52221  13.491   5.073   9.488
16775SOL    HW152222  13.557   5.089   9.421
16775SOL    HW252223  13.533   5.013   9.550
16776SOL     OW52224   8.375  14.493   1.976
16776SOL    HW152225   8.286  14.476   2.006
16776SOL    HW252226   8.407  14.407   1.946
16777SOL     OW52227   2.730   8.365   1.831
16777SOL    HW152228   2.736   8.278   1.870
16777SOL    HW252229   2.786   8.419   1.887
16778SOL     OW52230   8.141  13.606   8.890
16778SOL    HW152231   8.049  13.615   8.915
16778SOL    HW252232   8.189  13.646   8.962
16779SOL     OW52233  13.497  10.339   4.140
16779SOL    HW152234  13.447  10.418   4.161
16779SOL    HW252235  13.430  10.272   4.126
16780SOL     OW52236   3.899   1.504   6.255
16780SOL    HW152237   3.813   1.537   6.228
16780SOL    HW252238   3.882   1.413   6.281
16781SOL     OW52239  14.545  14.724   8.293
16781SOL    HW152240  14.467  14.738   8.346
16781SOL    HW252241  14.513  14.718   8.203
16782SOL     OW52242  10.223  14.716   0.218
16782SOL    HW152243  10.249  14.791   0.164
16782SOL    HW252244  10.175  14.659   0.158
16783SOL     OW52245   3.804   1.695   4.774
16783SOL    HW152246   3.873   1.735   4.721
16783SOL    HW252247   3.841   1.610   4.800
16784SOL     OW52248  13.051   3.612   8.811
16784SOL    HW152249  12.972   3.641   8.766
16784SOL    HW252250  13.084   3.690   8.856
16785SOL     OW52251   3.282   6.951   1.318
16785SOL    HW152252   3.315   6.863   1.302
16785SOL    HW252253   3.213   6.939   1.383
16786SOL     OW52254   5.716   2.312   7.610
16786SOL    HW152255   5.772   2.236   7.592
16786SOL    HW252256   5.657   2.316   7.535
16787SOL     OW52257   5.986  13.304   4.965
16787SOL    HW152258   5.897  13.334   4.947
16787SOL    HW252259   5.984  13.276   5.057
16788SOL     OW52260   1.095   1.446  13.661
16788SOL    HW152261   1.076   1.515  13.597
16788SOL    HW252262   1.055   1.367  13.623
16789SOL     OW52263  13.555  10.896   8.433
16789SOL    HW152264  13.530  10.880   8.342
16789SOL    HW252265  13.560  10.809   8.473
16790SOL     OW52266  13.149  10.063   9.182
16790SOL    HW152267  13.059  10.067   9.149
16790SOL    HW252268  13.168   9.969   9.186
16791SOL     OW52269   6.567   3.661  12.753
16791SOL    HW152270   6.538   3.579  12.793
16791SOL    HW252271   6.660   3.650  12.738
16792SOL     OW52272   9.810   9.850   5.997
16792SOL    HW152273   9.839   9.790   5.928
16792SOL    HW252274   9.767   9.922   5.950
16793SOL     OW52275   4.283   4.382  11.510
16793SOL    HW152276   4.327   4.383  11.425
16793SOL    HW252277   4.353   4.403  11.572
16794SOL     OW52278  13.662  10.789  12.747
16794SOL    HW152279  13.739  10.834  12.780
16794SOL    HW252280  13.686  10.697  12.747
16795SOL     OW52281   6.450   8.591   8.164
16795SOL    HW152282   6.396   8.512   8.159
16795SOL    HW252283   6.497   8.581   8.247
16796SOL     OW52284  10.311   8.357   4.179
16796SOL    HW152285  10.326   8.433   4.236
16796SOL    HW252286  10.272   8.292   4.236
16797SOL     OW52287   6.905   4.883   5.615
16797SOL    HW152288   6.886   4.932   5.536
16797SOL    HW252289   6.999   4.892   5.627
16798SOL     OW52290   8.519   8.480  12.036
16798SOL    HW152291   8.570   8.555  12.068
16798SOL    HW252292   8.584   8.420  12.001
16799SOL     OW52293   9.134   8.568   4.350
16799SOL    HW152294   9.228   8.585   4.348
16799SOL    HW252295   9.095   8.650   4.383
16800SOL     OW52296  10.270   8.092   5.589
16800SOL    HW152297  10.179   8.091   5.558
16800SOL    HW252298  10.311   8.164   5.541
16801SOL     OW52299  13.893   2.598   8.011
16801SOL    HW152300  13.850   2.681   7.990
16801SOL    HW252301  13.878   2.587   8.105
16802SOL     OW52302  10.562  10.370  10.244
16802SOL    HW152303  10.575  10.419  10.325
16802SOL    HW252304  10.650  10.363  10.207
16803SOL     OW52305   3.165   9.288   2.973
16803SOL    HW152306   3.193   9.369   2.931
16803SOL    HW252307   3.135   9.314   3.059
16804SOL     OW52308   7.124   2.695  13.087
16804SOL    HW152309   7.136   2.774  13.140
16804SOL    HW252310   7.123   2.624  13.150
16805SOL     OW52311   7.961   8.376   1.413
16805SOL    HW152312   8.022   8.446   1.434
16805SOL    HW252313   8.000   8.298   1.454
16806SOL     OW52314   6.918  11.826  10.904
16806SOL    HW152315   6.998  11.782  10.932
16806SOL    HW252316   6.911  11.808  10.811
16807SOL     OW52317   8.621  14.368  14.391
16807SOL    HW152318   8.648  14.366  14.300
16807SOL    HW252319   8.698  14.338  14.440
16808SOL     OW52320   9.793   7.120   7.697
16808SOL    HW152321   9.821   7.209   7.719
16808SOL    HW252322   9.768   7.081   7.780
16809SOL     OW52323   0.299  13.959   2.401
16809SOL    HW152324   0.389  13.983   2.421
16809SOL    HW252325   0.304  13.868   2.371
16810SOL     OW52326   1.622   0.807   1.080
16810SOL    HW152327   1.573   0.829   1.001
16810SOL    HW252328   1.663   0.723   1.059
16811SOL     OW52329  13.004  10.256   2.824
16811SOL    HW152330  13.007  10.347   2.797
16811SOL    HW252331  13.063  10.251   2.900
16812SOL     OW52332   5.780   7.081  11.050
16812SOL    HW152333   5.772   7.045  11.139
16812SOL    HW252334   5.864   7.048  11.018
16813SOL     OW52335  12.654  10.059  10.163
16813SOL    HW152336  12.576  10.047  10.217
16813SOL    HW252337  12.727  10.055  10.225
16814SOL     OW52338  13.737  11.192   7.943
16814SOL    HW152339  13.735  11.238   8.027
16814SOL    HW252340  13.722  11.260   7.877
16815SOL     OW52341   3.077   6.086  11.051
16815SOL    HW152342   3.089   5.991  11.041
16815SOL    HW252343   3.161   6.117  11.085
16816SOL     OW52344   6.733  12.600   3.559
16816SOL    HW152345   6.714  12.509   3.585
16816SOL    HW252346   6.693  12.653   3.629
16817SOL     OW52347  12.355  10.427   9.264
16817SOL    HW152348  12.348  10.352   9.324
16817SOL    HW252349  12.418  10.486   9.306
16818SOL     OW52350   6.463  11.837   2.437
16818SOL    HW152351   6.501  11.789   2.511
16818SOL    HW252352   6.471  11.776   2.364
16819SOL     OW52353  14.786  11.521  13.726
16819SOL    HW152354  14.693  11.512  13.748
16819SOL    HW252355  14.831  11.512  13.810
16820SOL     OW52356  10.127   0.336   2.388
16820SOL    HW152357  10.035   0.341   2.413
16820SOL    HW252358  10.127   0.281   2.309
16821SOL     OW52359   3.188   6.435   1.598
16821SOL    HW152360   3.212   6.344   1.612
16821SOL    HW252361   3.264   6.472   1.551
16822SOL     OW52362   7.870  13.834   3.087
16822SOL    HW152363   7.832  13.824   3.000
16822SOL    HW252364   7.868  13.928   3.103
16823SOL     OW52365   1.396  14.608   1.906
16823SOL    HW152366   1.450  14.664   1.962
16823SOL    HW252367   1.369  14.535   1.962
16824SOL     OW52368   8.982  14.747   6.919
16824SOL    HW152369   9.025  14.749   6.834
16824SOL    HW252370   9.032  14.808   6.973
16825SOL     OW52371   2.017   7.450   0.190
16825SOL    HW152372   2.109   7.436   0.169
16825SOL    HW252373   2.007   7.545   0.192
16826SOL     OW52374  10.090   2.737   5.693
16826SOL    HW152375  10.160   2.767   5.751
16826SOL    HW252376  10.128   2.665   5.644
16827SOL     OW52377   1.989   4.943   8.763
16827SOL    HW152378   2.022   4.862   8.724
16827SOL    HW252379   2.012   4.936   8.856
16828SOL     OW52380  14.751   0.662   1.738
16828SOL    HW152381  14.663   0.630   1.722
16828SOL    HW252382  14.758   0.668   1.833
16829SOL     OW52383   3.373  11.995   7.750
16829SOL    HW152384   3.279  11.983   7.743
16829SOL    HW252385   3.402  11.928   7.813
16830SOL     OW52386  11.332  13.573   3.971
16830SOL    HW152387  11.417  13.601   3.938
16830SOL    HW252388  11.331  13.478   3.962
16831SOL     OW52389  12.117   7.152  14.109
16831SOL    HW152390  12.163   7.156  14.193
16831SOL    HW252391  12.186   7.131  14.046
16832SOL     OW52392  13.277   3.838   5.350
16832SOL    HW152393  13.217   3.837   5.425
16832SOL    HW252394  13.353   3.887   5.381
16833SOL     OW52395   9.535  12.231   1.492
16833SOL    HW152396   9.561  12.291   1.562
16833SOL    HW252397   9.462  12.275   1.449
16834SOL     OW52398   6.927  13.537   1.296
16834SOL    HW152399   6.886  13.579   1.371
16834SOL    HW252400   6.995  13.480   1.334
16835SOL     OW52401   4.271   1.744  14.116
16835SOL    HW152402   4.303   1.733  14.026
16835SOL    HW252403   4.304   1.667  14.163
16836SOL     OW52404   2.608   8.028   2.370
16836SOL    HW152405   2.558   8.082   2.432
16836SOL    HW252406   2.696   8.024   2.407
16837SOL     OW52407   8.406   5.189   1.861
16837SOL    HW152408   8.330   5.208   1.807
16837SOL    HW252409   8.466   5.262   1.844
16838SOL     OW52410   9.796   4.726   5.753
16838SOL    HW152411   9.732   4.698   5.819
16838SOL    HW252412   9.843   4.645   5.730
16839SOL     OW52413   6.235   7.954  12.213
16839SOL    HW152414   6.295   8.028  12.227
16839SOL    HW252415   6.176   7.984  12.143
16840SOL     OW52416   3.077   1.273  10.093
16840SOL    HW152417   3.050   1.269  10.001
16840SOL    HW252418   3.002   1.311  10.139
16841SOL     OW52419   5.792   7.518   5.216
16841SOL    HW152420   5.776   7.531   5.309
16841SOL    HW252421   5.765   7.428   5.199
16842SOL     OW52422  11.178   5.615   0.347
16842SOL    HW152423  11.100   5.637   0.398
16842SOL    HW252424  11.161   5.651   0.260
16843SOL     OW52425  12.988   9.759  13.330
16843SOL    HW152426  12.981   9.827  13.263
16843SOL    HW252427  13.081   9.756  13.350
16844SOL     OW52428   7.090   2.819   8.665
16844SOL    HW152429   7.160   2.851   8.722
16844SOL    HW252430   7.016   2.803   8.725
16845SOL     OW52431   2.222   8.993   5.773
16845SOL    HW152432   2.181   9.075   5.799
16845SOL    HW252433   2.206   8.934   5.846
16846SOL     OW52434  14.393   9.566   7.564
16846SOL    HW152435  14.424   9.575   7.474
16846SOL    HW252436  14.401   9.654   7.601
16847SOL     OW52437   3.168  10.668   0.197
16847SOL    HW152438   3.162  10.589   0.250
16847SOL    HW252439   3.144  10.640   0.109
16848SOL     OW52440   1.137   9.860   2.004
16848SOL    HW152441   1.124   9.772   1.968
16848SOL    HW252442   1.230   9.864   2.025
16849SOL     OW52443   5.065   4.325   4.153
16849SOL    HW152444   5.114   4.373   4.220
16849SOL    HW252445   5.067   4.383   4.077
16850SOL     OW52446  10.296  14.831  10.441
16850SOL    HW152447  10.353  14.755  10.437
16850SOL    HW252448  10.247  14.829  10.359
16851SOL     OW52449  14.726   6.027  10.330
16851SOL    HW152450  14.668   6.101  10.351
16851SOL    HW252451  14.726   5.973  10.410
16852SOL     OW52452  10.220   8.706   0.270
16852SOL    HW152453  10.199   8.622   0.313
16852SOL    HW252454  10.298   8.737   0.315
16853SOL     OW52455   5.163   5.683   0.864
16853SOL    HW152456   5.203   5.742   0.801
16853SOL    HW252457   5.119   5.617   0.811
16854SOL     OW52458   3.907   3.066   5.348
16854SOL    HW152459   3.974   3.133   5.363
16854SOL    HW252460   3.900   3.061   5.253
16855SOL     OW52461   4.577   4.930   3.392
16855SOL    HW152462   4.639   4.959   3.326
16855SOL    HW252463   4.626   4.868   3.445
16856SOL     OW52464  14.019   6.411  12.041
16856SOL    HW152465  14.079   6.357  12.092
16856SOL    HW252466  14.073   6.481  12.005
16857SOL     OW52467   3.870   1.410  10.772
16857SOL    HW152468   3.810   1.348  10.732
16857SOL    HW252469   3.870   1.485  10.712
16858SOL     OW52470   7.712  11.054  14.817
16858SOL    HW152471   7.634  11.062  14.763
16858SOL    HW252472   7.733  11.144  14.843
16859SOL     OW52473   4.052  14.229   5.761
16859SOL    HW152474   4.137  14.270   5.778
16859SOL    HW252475   4.071  14.135   5.761
16860SOL     OW52476   2.160  12.149   5.736
16860SOL    HW152477   2.085  12.099   5.706
16860SOL    HW252478   2.176  12.212   5.667
16861SOL     OW52479  10.642  12.033   6.093
16861SOL    HW152480  10.582  12.056   6.022
16861SOL    HW252481  10.645  11.937   6.092
16862SOL     OW52482   1.939   1.117   3.173
16862SOL    HW152483   2.021   1.091   3.132
16862SOL    HW252484   1.958   1.118   3.267
16863SOL     OW52485  11.826   5.379   6.861
16863SOL    HW152486  11.853   5.373   6.952
16863SOL    HW252487  11.887   5.441   6.821
16864SOL     OW52488  14.522   2.156   1.972
16864SOL    HW152489  14.565   2.181   1.890
16864SOL    HW252490  14.490   2.238   2.009
16865SOL     OW52491   0.491  14.410  13.499
16865SOL    HW152492   0.498  14.407  13.594
16865SOL    HW252493   0.403  14.378  13.480
16866SOL     OW52494   8.390  12.300   7.350
16866SOL    HW152495   8.418  12.265   7.435
16866SOL    HW252496   8.464  12.352   7.320
16867SOL     OW52497   5.914   9.550   1.302
16867SOL    HW152498   5.946   9.461   1.320
16867SOL    HW252499   5.956   9.604   1.368
16868SOL     OW52500   7.174   5.794  13.704
16868SOL    HW152501   7.251   5.747  13.672
16868SOL    HW252502   7.100   5.752  13.661
16869SOL     OW52503  14.241  12.289   8.390
16869SOL    HW152504  14.155  12.308   8.426
16869SOL    HW252505  14.266  12.206   8.431
16870SOL     OW52506   7.720  10.983  14.482
16870SOL    HW152507   7.637  11.006  14.442
16870SOL    HW252508   7.707  10.895  14.518
16871SOL     OW52509   0.001  13.252   2.931
16871SOL    HW152510   0.092  13.254   2.903
16871SOL    HW252511  14.832  13.329   2.890
16872SOL     OW52512   2.770  10.328   1.768
16872SOL    HW152513   2.712  10.396   1.733
16872SOL    HW252514   2.855  10.345   1.728
16873SOL     OW52515  13.247   3.537   2.965
16873SOL    HW152516  13.275   3.451   2.932
16873SOL    HW252517  13.178   3.516   3.028
16874SOL     OW52518  10.515   4.545   7.078
16874SOL    HW152519  10.546   4.565   7.166
16874SOL    HW252520  10.571   4.474   7.048
16875SOL     OW52521   6.861   2.439   2.602
16875SOL    HW152522   6.894   2.384   2.672
16875SOL    HW252523   6.770   2.456   2.626
16876SOL     OW52524   6.255  11.789   5.203
16876SOL    HW152525   6.247  11.855   5.134
16876SOL    HW252526   6.304  11.833   5.273
16877SOL     OW52527   4.621   0.443  11.881
16877SOL    HW152528   4.696   0.503  11.882
16877SOL    HW252529   4.573   0.466  11.801
16878SOL     OW52530  10.463   3.200   8.387
16878SOL    HW152531  10.409   3.125   8.415
16878SOL    HW252532  10.421   3.276   8.427
16879SOL     OW52533   2.455   2.703   2.934
16879SOL    HW152534   2.528   2.758   2.962
16879SOL    HW252535   2.419   2.667   3.015
16880SOL     OW52536   1.462  14.467   8.033
16880SOL    HW152537   1.463  14.399   8.100
16880SOL    HW252538   1.510  14.429   7.959
16881SOL     OW52539   4.965   5.608  14.428
16881SOL    HW152540   4.964   5.557  14.509
16881SOL    HW252541   5.023   5.682  14.447
16882SOL     OW52542  10.648   3.922   2.017
16882SOL    HW152543  10.649   3.913   1.921
16882SOL    HW252544  10.637   4.015   2.033
16883SOL     OW52545  10.106   1.972  13.649
16883SOL    HW152546  10.201   1.967  13.654
16883SOL    HW252547  10.077   1.880  13.653
16884SOL     OW52548   3.449   3.839   8.947
16884SOL    HW152549   3.515   3.809   8.885
16884SOL    HW252550   3.366   3.813   8.908
16885SOL     OW52551   4.593   0.056   4.937
16885SOL    HW152552   4.660   0.095   4.993
16885SOL    HW252553   4.643   0.015   4.865
16886SOL     OW52554  13.850   1.596  13.849
16886SOL    HW152555  13.914   1.530  13.822
16886SOL    HW252556  13.876   1.620  13.937
16887SOL     OW52557   7.809   3.345   8.192
16887SOL    HW152558   7.823   3.367   8.100
16887SOL    HW252559   7.751   3.414   8.224
16888SOL     OW52560   3.020   1.768  13.231
16888SOL    HW152561   3.074   1.741  13.306
16888SOL    HW252562   2.975   1.688  13.205
16889SOL     OW52563   9.778   6.766   3.571
16889SOL    HW152564   9.712   6.715   3.525
16889SOL    HW252565   9.730   6.806   3.644
16890SOL     OW52566   2.725   9.789  10.445
16890SOL    HW152567   2.709   9.799  10.352
16890SOL    HW252568   2.726   9.695  10.460
16891SOL     OW52569   6.825   2.467   3.524
16891SOL    HW152570   6.829   2.516   3.606
16891SOL    HW252571   6.737   2.431   3.521
16892SOL     OW52572  11.437  13.193   9.778
16892SOL    HW152573  11.357  13.245   9.772
16892SOL    HW252574  11.457  13.190   9.872
16893SOL     OW52575   3.692  14.504   4.559
16893SOL    HW152576   3.691  14.408   4.564
16893SOL    HW252577   3.635  14.525   4.485
16894SOL     OW52578  10.662   1.618   8.600
16894SOL    HW152579  10.691   1.650   8.514
16894SOL    HW252580  10.586   1.672   8.621
16895SOL     OW52581   9.651   6.491   9.703
16895SOL    HW152582   9.625   6.400   9.720
16895SOL    HW252583   9.570   6.541   9.715
16896SOL     OW52584   2.502   5.662   1.588
16896SOL    HW152585   2.464   5.588   1.634
16896SOL    HW252586   2.516   5.728   1.656
16897SOL     OW52587   8.731   7.856   5.368
16897SOL    HW152588   8.777   7.835   5.449
16897SOL    HW252589   8.657   7.911   5.395
16898SOL     OW52590   0.752   7.229   8.326
16898SOL    HW152591   0.836   7.259   8.361
16898SOL    HW252592   0.706   7.194   8.403
16899SOL     OW52593  12.524   1.375   5.957
16899SOL    HW152594  12.574   1.298   5.932
16899SOL    HW252595  12.470   1.394   5.881
16900SOL     OW52596  11.024   4.521   6.329
16900SOL    HW152597  11.022   4.433   6.292
16900SOL    HW252598  11.011   4.508   6.423
16901SOL     OW52599   2.093   0.360   1.562
16901SOL    HW152600   2.047   0.313   1.493
16901SOL    HW252601   2.073   0.452   1.547
16902SOL     OW52602   9.437   5.170  14.269
16902SOL    HW152603   9.421   5.264  14.280
16902SOL    HW252604   9.466   5.161  14.179
16903SOL     OW52605   9.400   6.081   4.749
16903SOL    HW152606   9.496   6.077   4.756
16903SOL    HW252607   9.371   6.102   4.838
16904SOL     OW52608  13.891  11.653   8.100
16904SOL    HW152609  13.829  11.725   8.114
16904SOL    HW252610  13.942  11.649   8.181
16905SOL     OW52611  14.829   8.620   0.777
16905SOL    HW152612   0.048   8.644   0.793
16905SOL    HW252613  14.792   8.695   0.731
16906SOL     OW52614   7.901  10.554   5.542
16906SOL    HW152615   7.969  10.615   5.511
16906SOL    HW252616   7.858  10.523   5.462
16907SOL     OW52617   6.034   5.245  12.597
16907SOL    HW152618   6.074   5.209  12.518
16907SOL    HW252619   6.062   5.337  12.598
16908SOL     OW52620   4.699  13.016   2.134
16908SOL    HW152621   4.615  13.061   2.126
16908SOL    HW252622   4.751  13.048   2.060
16909SOL     OW52623   0.934   6.159   5.209
16909SOL    HW152624   0.845   6.151   5.245
16909SOL    HW252625   0.930   6.114   5.124
16910SOL     OW52626   1.095  10.348  10.979
16910SOL    HW152627   1.185  10.377  10.989
16910SOL    HW252628   1.073  10.365  10.887
16911SOL     OW52629   3.531   5.415  13.397
16911SOL    HW152630   3.491   5.339  13.355
16911SOL    HW252631   3.617   5.383  13.425
16912SOL     OW52632   9.797   2.220   2.975
16912SOL    HW152633   9.873   2.164   2.962
16912SOL    HW252634   9.722   2.164   2.954
16913SOL     OW52635   9.194   5.624  14.297
16913SOL    HW152636   9.137   5.692  14.334
16913SOL    HW252637   9.190   5.639  14.202
16914SOL     OW52638   7.546  10.042   4.276
16914SOL    HW152639   7.558  10.130   4.243
16914SOL    HW252640   7.489  10.052   4.353
16915SOL     OW52641   7.006   2.444   5.310
16915SOL    HW152642   6.912   2.427   5.317
16915SOL    HW252643   7.028   2.490   5.391
16916SOL     OW52644   5.763  13.607   3.248
16916SOL    HW152645   5.716  13.524   3.255
16916SOL    HW252646   5.715  13.666   3.305
16917SOL     OW52647   5.214   3.540   5.880
16917SOL    HW152648   5.186   3.623   5.843
16917SOL    HW252649   5.307   3.534   5.859
16918SOL     OW52650   8.486   6.521   2.568
16918SOL    HW152651   8.520   6.559   2.649
16918SOL    HW252652   8.435   6.445   2.596
16919SOL     OW52653   9.855   5.493  10.511
16919SOL    HW152654   9.933   5.526  10.467
16919SOL    HW252655   9.800   5.570  10.523
16920SOL     OW52656   2.135   9.639   4.372
16920SOL    HW152657   2.169   9.610   4.457
16920SOL    HW252658   2.044   9.611   4.372
16921SOL     OW52659   4.243  13.878   3.311
16921SOL    HW152660   4.282  13.930   3.241
16921SOL    HW252661   4.151  13.907   3.312
16922SOL     OW52662  10.347   6.360  11.695
16922SOL    HW152663  10.434   6.384  11.664
16922SOL    HW252664  10.288   6.413  11.641
16923SOL     OW52665   5.380   7.521  14.483
16923SOL    HW152666   5.430   7.508  14.563
16923SOL    HW252667   5.289   7.520  14.511
16924SOL     OW52668  10.555  13.275   7.618
16924SOL    HW152669  10.572  13.230   7.535
16924SOL    HW252670  10.565  13.368   7.597
16925SOL     OW52671   8.739  10.346   2.093
16925SOL    HW152672   8.809  10.283   2.076
16925SOL    HW252673   8.702  10.364   2.006
16926SOL     OW52674  11.631   5.694   9.244
16926SOL    HW152675  11.578   5.731   9.172
16926SOL    HW252676  11.638   5.601   9.223
16927SOL     OW52677  11.521   6.903   7.855
16927SOL    HW152678  11.427   6.923   7.852
16927SOL    HW252679  11.562   6.972   7.804
16928SOL     OW52680  10.828   8.505  10.809
16928SOL    HW152681  10.869   8.592  10.810
16928SOL    HW252682  10.861   8.463  10.730
16929SOL     OW52683   8.550  14.569  11.784
16929SOL    HW152684   8.625  14.611  11.827
16929SOL    HW252685   8.479  14.632  11.790
16930SOL     OW52686   4.272   4.003   3.020
16930SOL    HW152687   4.218   4.065   3.070
16930SOL    HW252688   4.325   4.058   2.963
16931SOL     OW52689  10.329   8.763   5.928
16931SOL    HW152690  10.350   8.718   5.847
16931SOL    HW252691  10.274   8.837   5.902
16932SOL     OW52692   1.753   9.280   6.135
16932SOL    HW152693   1.806   9.357   6.112
16932SOL    HW252694   1.812   9.206   6.121
16933SOL     OW52695   1.834   3.903   8.275
16933SOL    HW152696   1.867   3.857   8.353
16933SOL    HW252697   1.895   3.975   8.262
16934SOL     OW52698  12.812  14.406   1.923
16934SOL    HW152699  12.721  14.396   1.893
16934SOL    HW252700  12.821  14.499   1.942
16935SOL     OW52701   1.785  13.291  11.827
16935SOL    HW152702   1.871  13.318  11.860
16935SOL    HW252703   1.780  13.197  11.847
16936SOL     OW52704   4.484   8.770   4.113
16936SOL    HW152705   4.571   8.811   4.107
16936SOL    HW252706   4.502   8.676   4.114
16937SOL     OW52707   4.655   9.277  10.930
16937SOL    HW152708   4.630   9.198  10.881
16937SOL    HW252709   4.599   9.346  10.895
16938SOL     OW52710   2.754   2.929  14.294
16938SOL    HW152711   2.801   2.928  14.211
16938SOL    HW252712   2.672   2.883  14.276
16939SOL     OW52713  14.570  13.012   5.828
16939SOL    HW152714  14.601  12.993   5.739
16939SOL    HW252715  14.491  13.065   5.814
16940SOL     OW52716   3.411  10.926   8.716
16940SOL    HW152717   3.466  10.914   8.639
16940SOL    HW252718   3.412  10.842   8.761
16941SOL     OW52719   9.657  11.631  10.197
16941SOL    HW152720   9.563  11.621  10.179
16941SOL    HW252721   9.673  11.725  10.189
16942SOL     OW52722   3.103  14.624   1.370
16942SOL    HW152723   3.153  14.589   1.444
16942SOL    HW252724   3.051  14.550   1.339
16943SOL     OW52725  10.373   6.347   9.048
16943SOL    HW152726  10.447   6.288   9.062
16943SOL    HW252727  10.317   6.333   9.125
16944SOL     OW52728  12.838  14.769   9.073
16944SOL    HW152729  12.790  14.799   8.996
16944SOL    HW252730  12.828  14.673   9.071
16945SOL     OW52731   6.233  13.111   0.261
16945SOL    HW152732   6.251  13.028   0.216
16945SOL    HW252733   6.273  13.177   0.204
16946SOL     OW52734   8.071   7.286   9.174
16946SOL    HW152735   8.120   7.221   9.123
16946SOL    HW252736   7.981   7.277   9.144
16947SOL     OW52737   5.729   8.795   3.910
16947SOL    HW152738   5.651   8.740   3.897
16947SOL    HW252739   5.694   8.880   3.938
16948SOL     OW52740  12.673   3.153   0.361
16948SOL    HW152741  12.671   3.217   0.432
16948SOL    HW252742  12.666   3.068   0.404
16949SOL     OW52743   5.372   2.049  10.819
16949SOL    HW152744   5.419   2.119  10.865
16949SOL    HW252745   5.302   2.094  10.773
16950SOL     OW52746   8.135   4.968  11.068
16950SOL    HW152747   8.113   4.897  11.008
16950SOL    HW252748   8.132   4.928  11.155
16951SOL     OW52749   4.121  13.359   3.518
16951SOL    HW152750   4.077  13.426   3.571
16951SOL    HW252751   4.187  13.408   3.470
16952SOL     OW52752  12.209   8.304   6.122
16952SOL    HW152753  12.228   8.371   6.056
16952SOL    HW252754  12.275   8.318   6.190
16953SOL     OW52755   1.413   4.703   8.529
16953SOL    HW152756   1.374   4.743   8.451
16953SOL    HW252757   1.397   4.766   8.599
16954SOL     OW52758  13.285   2.165   0.279
16954SOL    HW152759  13.354   2.203   0.333
16954SOL    HW252760  13.282   2.073   0.304
16955SOL     OW52761   1.327  13.463   3.007
16955SOL    HW152762   1.306  13.425   3.092
16955SOL    HW252763   1.255  13.435   2.950
16956SOL     OW52764  10.736   6.159   3.130
16956SOL    HW152765  10.783   6.092   3.079
16956SOL    HW252766  10.758   6.139   3.221
16957SOL     OW52767   1.944  10.250   4.620
16957SOL    HW152768   1.960  10.258   4.714
16957SOL    HW252769   2.011  10.190   4.589
16958SOL     OW52770   9.872  10.830   1.285
16958SOL    HW152771   9.810  10.876   1.341
16958SOL    HW252772   9.817  10.776   1.228
16959SOL     OW52773   9.121   1.488  10.160
16959SOL    HW152774   9.173   1.427  10.108
16959SOL    HW252775   9.064   1.432  10.212
16960SOL     OW52776  14.247   0.593   3.686
16960SOL    HW152777  14.311   0.552   3.744
16960SOL    HW252778  14.176   0.621   3.743
16961SOL     OW52779   8.648   3.757   8.134
16961SOL    HW152780   8.616   3.716   8.054
16961SOL    HW252781   8.591   3.723   8.203
16962SOL     OW52782   0.109  10.602   0.184
16962SOL    HW152783   0.173  10.656   0.230
16962SOL    HW252784   0.068  10.662   0.121
16963SOL     OW52785   1.393   5.597  13.950
16963SOL    HW152786   1.434   5.512  13.966
16963SOL    HW252787   1.459   5.661  13.975
16964SOL     OW52788   5.219   4.101  11.651
16964SOL    HW152789   5.312   4.117  11.664
16964SOL    HW252790   5.210   4.080  11.558
16965SOL     OW52791   7.346   6.331   8.655
16965SOL    HW152792   7.345   6.343   8.750
16965SOL    HW252793   7.288   6.400   8.622
16966SOL     OW52794  14.687  10.477   7.936
16966SOL    HW152795  14.744  10.433   7.873
16966SOL    HW252796  14.672  10.411   8.004
16967SOL     OW52797  14.544  13.608   1.083
16967SOL    HW152798  14.630  13.648   1.096
16967SOL    HW252799  14.502  13.662   1.016
16968SOL     OW52800   0.211  11.948  11.013
16968SOL    HW152801   0.223  11.883  10.943
16968SOL    HW252802   0.122  11.980  11.000
16969SOL     OW52803   7.348   8.444  14.699
16969SOL    HW152804   7.299   8.393  14.633
16969SOL    HW252805   7.432   8.460  14.657
16970SOL     OW52806   6.342  13.625   5.530
16970SOL    HW152807   6.288  13.617   5.452
16970SOL    HW252808   6.309  13.558   5.590
16971SOL     OW52809  13.346   5.713  12.167
16971SOL    HW152810  13.289   5.755  12.102
16971SOL    HW252811  13.302   5.630  12.187
16972SOL     OW52812   5.203   1.737   0.815
16972SOL    HW152813   5.259   1.756   0.890
16972SOL    HW252814   5.136   1.678   0.849
16973SOL     OW52815   4.298   9.994  10.870
16973SOL    HW152816   4.303  10.076  10.919
16973SOL    HW252817   4.246   9.936  10.926
16974SOL     OW52818  13.982   1.464  11.732
16974SOL    HW152819  13.923   1.520  11.681
16974SOL    HW252820  14.002   1.391  11.674
16975SOL     OW52821  11.508  11.889  11.737
16975SOL    HW152822  11.597  11.869  11.709
16975SOL    HW252823  11.488  11.824  11.804
16976SOL     OW52824  10.576   5.389  12.186
16976SOL    HW152825  10.609   5.356  12.270
16976SOL    HW252826  10.654   5.413  12.137
16977SOL     OW52827   2.811   2.982   6.082
16977SOL    HW152828   2.806   3.005   5.990
16977SOL    HW252829   2.866   3.050   6.121
16978SOL     OW52830   0.626   6.893   0.620
16978SOL    HW152831   0.546   6.937   0.647
16978SOL    HW252832   0.602   6.801   0.612
16979SOL     OW52833  13.738   3.266  14.757
16979SOL    HW152834  13.794   3.222  14.822
16979SOL    HW252835  13.774   3.354  14.750
16980SOL     OW52836  14.142   7.772   2.147
16980SOL    HW152837  14.221   7.808   2.106
16980SOL    HW252838  14.101   7.719   2.078
16981SOL     OW52839   2.070   9.688  11.574
16981SOL    HW152840   1.984   9.659  11.543
16981SOL    HW252841   2.060   9.782  11.589
16982SOL     OW52842  12.265  10.679   2.304
16982SOL    HW152843  12.196  10.731   2.345
16982SOL    HW252844  12.272  10.714   2.216
16983SOL     OW52845   0.186  14.095  12.953
16983SOL    HW152846   0.276  14.125  12.961
16983SOL    HW252847   0.184  14.013  13.001
16984SOL     OW52848  12.896  10.110   7.786
16984SOL    HW152849  12.918  10.103   7.879
16984SOL    HW252850  12.979  10.134   7.744
16985SOL     OW52851  10.641   9.933  12.792
16985SOL    HW152852  10.654   9.903  12.702
16985SOL    HW252853  10.728   9.928  12.832
16986SOL     OW52854  14.682   9.447   4.024
16986SOL    HW152855  14.775   9.464   4.010
16986SOL    HW252856  14.646   9.531   4.054
16987SOL     OW52857   2.592   8.877  10.122
16987SOL    HW152858   2.510   8.832  10.101
16987SOL    HW252859   2.601   8.943  10.053
16988SOL     OW52860   2.401  13.089   7.498
16988SOL    HW152861   2.493  13.112   7.484
16988SOL    HW252862   2.379  13.029   7.427
16989SOL     OW52863  12.688   8.899   0.305
16989SOL    HW152864  12.601   8.922   0.340
16989SOL    HW252865  12.706   8.813   0.344
16990SOL     OW52866   5.390   9.570  11.284
16990SOL    HW152867   5.453   9.593  11.352
16990SOL    HW252868   5.389   9.474  11.283
16991SOL     OW52869   1.857   3.080  12.447
16991SOL    HW152870   1.778   3.117  12.488
16991SOL    HW252871   1.825   3.042  12.365
16992SOL     OW52872   7.499  14.551   5.082
16992SOL    HW152873   7.521  14.635   5.123
16992SOL    HW252874   7.442  14.574   5.009
16993SOL     OW52875   7.273   4.234  13.914
16993SOL    HW152876   7.205   4.220  13.980
16993SOL    HW252877   7.228   4.276  13.841
16994SOL     OW52878  10.549   2.533  11.630
16994SOL    HW152879  10.629   2.554  11.582
16994SOL    HW252880  10.576   2.471  11.697
16995SOL     OW52881   4.627   0.003  12.504
16995SOL    HW152882   4.676   0.066  12.451
16995SOL    HW252883   4.652  14.790  12.469
16996SOL     OW52884   9.367   0.261   6.342
16996SOL    HW152885   9.427   0.251   6.416
16996SOL    HW252886   9.397   0.196   6.278
16997SOL     OW52887   2.335   8.183  10.089
16997SOL    HW152888   2.414   8.149  10.047
16997SOL    HW252889   2.330   8.274  10.059
16998SOL     OW52890   5.630   9.517  13.260
16998SOL    HW152891   5.680   9.531  13.341
16998SOL    HW252892   5.692   9.473  13.201
16999SOL     OW52893   0.097   4.499   6.172
16999SOL    HW152894   0.043   4.450   6.111
16999SOL    HW252895   0.036   4.552   6.223
17000SOL     OW52896   2.887   9.490  12.564
17000SOL    HW152897   2.874   9.409  12.515
17000SOL    HW252898   2.799   9.516  12.592
17001SOL     OW52899  10.866   6.709   9.645
17001SOL    HW152900  10.906   6.752   9.569
17001SOL    HW252901  10.938   6.665   9.689
17002SOL     OW52902  12.239   9.949   5.053
17002SOL    HW152903  12.263   9.863   5.019
17002SOL    HW252904  12.313   9.976   5.107
17003SOL     OW52905   6.731  12.187   4.444
17003SOL    HW152906   6.747  12.163   4.352
17003SOL    HW252907   6.763  12.112   4.494
17004SOL     OW52908  11.193   5.852  10.680
17004SOL    HW152909  11.276   5.877  10.640
17004SOL    HW252910  11.193   5.895  10.765
17005SOL     OW52911   3.034   4.090   6.016
17005SOL    HW152912   2.989   4.148   5.955
17005SOL    HW252913   3.056   4.146   6.090
17006SOL     OW52914  11.784   6.743   8.408
17006SOL    HW152915  11.730   6.813   8.371
17006SOL    HW252916  11.721   6.673   8.427
17007SOL     OW52917   8.539   1.634  11.746
17007SOL    HW152918   8.580   1.637  11.660
17007SOL    HW252919   8.508   1.723  11.761
17008SOL     OW52920   6.145   6.332   8.727
17008SOL    HW152921   6.156   6.332   8.822
17008SOL    HW252922   6.092   6.254   8.709
17009SOL     OW52923   0.841   1.144  14.037
17009SOL    HW152924   0.808   1.093  14.111
17009SOL    HW252925   0.830   1.087  13.961
17010SOL     OW52926   0.887  14.264   2.872
17010SOL    HW152927   0.963  14.311   2.839
17010SOL    HW252928   0.911  14.172   2.864
17011SOL     OW52929   7.485  12.387  13.570
17011SOL    HW152930   7.471  12.353  13.482
17011SOL    HW252931   7.451  12.477  13.566
17012SOL     OW52932   8.972  14.810  14.630
17012SOL    HW152933   8.967  14.819  14.535
17012SOL    HW252934   8.923  14.730  14.650
17013SOL     OW52935  10.877   9.467   3.336
17013SOL    HW152936  10.969   9.489   3.348
17013SOL    HW252937  10.869   9.378   3.371
17014SOL     OW52938   3.096   6.769   1.060
17014SOL    HW152939   3.161   6.833   1.033
17014SOL    HW252940   3.132   6.733   1.142
17015SOL     OW52941  11.428   3.018   4.255
17015SOL    HW152942  11.479   2.994   4.332
17015SOL    HW252943  11.342   2.977   4.269
17016SOL     OW52944   0.493  10.461  13.735
17016SOL    HW152945   0.456  10.477  13.649
17016SOL    HW252946   0.457  10.377  13.762
17017SOL     OW52947   4.028  11.573  11.768
17017SOL    HW152948   4.034  11.513  11.694
17017SOL    HW252949   3.958  11.633  11.745
17018SOL     OW52950  14.501  13.422   4.465
17018SOL    HW152951  14.517  13.421   4.559
17018SOL    HW252952  14.466  13.335   4.446
17019SOL     OW52953  12.715  13.539  14.802
17019SOL    HW152954  12.665  13.611  14.765
17019SOL    HW252955  12.779  13.581  14.860
17020SOL     OW52956   2.902   5.311   1.073
17020SOL    HW152957   2.894   5.405   1.084
17020SOL    HW252958   2.858   5.292   0.990
17021SOL     OW52959   4.938   9.834   8.590
17021SOL    HW152960   4.851   9.831   8.630
17021SOL    HW252961   4.926   9.794   8.504
17022SOL     OW52962  12.517  14.322  13.655
17022SOL    HW152963  12.481  14.403  13.692
17022SOL    HW252964  12.444  14.261  13.655
17023SOL     OW52965   4.425  11.300   1.196
17023SOL    HW152966   4.423  11.288   1.291
17023SOL    HW252967   4.347  11.254   1.164
17024SOL     OW52968   7.900   0.980   6.227
17024SOL    HW152969   7.870   1.003   6.315
17024SOL    HW252970   7.859   0.896   6.209
17025SOL     OW52971   1.123  12.687  10.016
17025SOL    HW152972   1.129  12.722   9.927
17025SOL    HW252973   1.208  12.707  10.055
17026SOL     OW52974  12.754   6.782   5.906
17026SOL    HW152975  12.727   6.690   5.904
17026SOL    HW252976  12.744   6.808   5.997
17027SOL     OW52977  12.998   3.154  11.360
17027SOL    HW152978  13.084   3.190  11.338
17027SOL    HW252979  12.982   3.184  11.450
17028SOL     OW52980   5.682  10.432   9.700
17028SOL    HW152981   5.777  10.438   9.685
17028SOL    HW252982   5.673  10.441   9.795
17029SOL     OW52983  10.200   9.564   2.365
17029SOL    HW152984  10.167   9.499   2.303
17029SOL    HW252985  10.203   9.519   2.449
17030SOL     OW52986   5.087   1.724  10.946
17030SOL    HW152987   5.092   1.818  10.958
17030SOL    HW252988   4.999   1.700  10.973
17031SOL     OW52989   4.782  12.274   9.176
17031SOL    HW152990   4.728  12.207   9.220
17031SOL    HW252991   4.860  12.227   9.148
17032SOL     OW52992   7.323  10.282   5.761
17032SOL    HW152993   7.383  10.356   5.761
17032SOL    HW252994   7.242  10.318   5.724
17033SOL     OW52995   9.796  11.157  14.507
17033SOL    HW152996   9.832  11.106  14.579
17033SOL    HW252997   9.707  11.123  14.495
17034SOL     OW52998   4.281   1.134  11.098
17034SOL    HW152999   4.268   1.108  11.007
17034SOL    HW253000   4.195   1.127  11.139
17035SOL     OW53001   1.882  13.238   8.559
17035SOL    HW153002   1.973  13.226   8.530
17035SOL    HW253003   1.888  13.250   8.653
17036SOL     OW53004   2.767  11.271   2.452
17036SOL    HW153005   2.676  11.271   2.421
17036SOL    HW253006   2.760  11.257   2.547
17037SOL     OW53007   4.123   9.707   9.782
17037SOL    HW153008   4.030   9.728   9.788
17037SOL    HW253009   4.140   9.650   9.858
17038SOL     OW53010  10.908   7.872  12.244
17038SOL    HW153011  10.959   7.792  12.260
17038SOL    HW253012  10.962   7.924  12.185
17039SOL     OW53013   6.778   9.877   7.838
17039SOL    HW153014   6.790   9.782   7.831
17039SOL    HW253015   6.687   9.888   7.867
17040SOL     OW53016   8.827   0.149  11.238
17040SOL    HW153017   8.750   0.189  11.196
17040SOL    HW253018   8.888   0.222  11.249
17041SOL     OW53019   5.895  13.595   5.386
17041SOL    HW153020   5.889  13.502   5.405
17041SOL    HW253021   5.887  13.602   5.291
17042SOL     OW53022   0.476  11.757   8.587
17042SOL    HW153023   0.556  11.706   8.603
17042SOL    HW253024   0.506  11.848   8.582
17043SOL     OW53025  14.624  12.866   5.408
17043SOL    HW153026  14.556  12.891   5.471
17043SOL    HW253027  14.578  12.858   5.325
17044SOL     OW53028   0.453  10.956   0.264
17044SOL    HW153029   0.439  10.924   0.353
17044SOL    HW253030   0.536  10.916   0.237
17045SOL     OW53031   3.721  13.044   3.977
17045SOL    HW153032   3.711  13.137   3.957
17045SOL    HW253033   3.672  13.030   4.058
17046SOL     OW53034  10.882   3.508  10.022
17046SOL    HW153035  10.878   3.412  10.023
17046SOL    HW253036  10.793   3.536  10.043
17047SOL     OW53037  11.673   3.530  13.913
17047SOL    HW153038  11.595   3.493  13.872
17047SOL    HW253039  11.649   3.541  14.005
17048SOL     OW53040  10.996  10.138   6.408
17048SOL    HW153041  10.933  10.072   6.438
17048SOL    HW253042  10.993  10.206   6.476
17049SOL     OW53043  13.796  11.287   3.051
17049SOL    HW153044  13.772  11.221   2.986
17049SOL    HW253045  13.820  11.364   3.000
17050SOL     OW53046   6.802  10.888   0.814
17050SOL    HW153047   6.885  10.869   0.770
17050SOL    HW253048   6.797  10.824   0.885
17051SOL     OW53049   7.883   3.671  10.143
17051SOL    HW153050   7.861   3.708  10.229
17051SOL    HW253051   7.887   3.577  10.158
17052SOL     OW53052   6.823   5.933   2.448
17052SOL    HW153053   6.791   5.881   2.521
17052SOL    HW253054   6.838   6.020   2.484
17053SOL     OW53055   7.635   0.172   0.919
17053SOL    HW153056   7.540   0.180   0.925
17053SOL    HW253057   7.649   0.091   0.869
17054SOL     OW53058   7.307  13.325  11.923
17054SOL    HW153059   7.311  13.354  11.831
17054SOL    HW253060   7.362  13.388  11.970
17055SOL     OW53061  14.754  11.493   6.513
17055SOL    HW153062  14.773  11.521   6.602
17055SOL    HW253063  14.838  11.499   6.467
17056SOL     OW53064   1.436   0.177   6.760
17056SOL    HW153065   1.480   0.260   6.781
17056SOL    HW253066   1.373   0.166   6.832
17057SOL     OW53067   4.521  13.005   5.991
17057SOL    HW153068   4.457  12.933   5.989
17057SOL    HW253069   4.502  13.051   6.073
17058SOL     OW53070   7.979   1.776   8.912
17058SOL    HW153071   7.990   1.800   8.821
17058SOL    HW253072   8.050   1.820   8.958
17059SOL     OW53073   3.747  13.459  12.057
17059SOL    HW153074   3.786  13.541  12.026
17059SOL    HW253075   3.779  13.449  12.147
17060SOL     OW53076   4.403   4.222  13.846
17060SOL    HW153077   4.377   4.138  13.809
17060SOL    HW253078   4.487   4.241  13.804
17061SOL     OW53079   9.685   5.945  14.016
17061SOL    HW153080   9.713   5.951  14.107
17061SOL    HW253081   9.592   5.965  14.018
17062SOL     OW53082  12.388   4.254   7.730
17062SOL    HW153083  12.469   4.303   7.718
17062SOL    HW253084  12.324   4.319   7.759
17063SOL     OW53085  10.438   4.442  12.372
17063SOL    HW153086  10.401   4.472  12.455
17063SOL    HW253087  10.510   4.502  12.356
17064SOL     OW53088  11.194   0.106   6.014
17064SOL    HW153089  11.144   0.187   6.003
17064SOL    HW253090  11.285   0.131   5.996
17065SOL     OW53091   7.918   8.726   3.282
17065SOL    HW153092   7.900   8.652   3.224
17065SOL    HW253093   7.930   8.801   3.224
17066SOL     OW53094   4.287  13.439   0.584
17066SOL    HW153095   4.238  13.478   0.512
17066SOL    HW253096   4.326  13.513   0.630
17067SOL     OW53097   0.283  10.637   2.476
17067SOL    HW153098   0.227  10.622   2.400
17067SOL    HW253099   0.262  10.566   2.536
17068SOL     OW53100  13.919   3.552   7.686
17068SOL    HW153101  13.890   3.574   7.774
17068SOL    HW253102  13.853   3.591   7.628
17069SOL     OW53103   8.001  14.468   8.732
17069SOL    HW153104   8.028  14.392   8.784
17069SOL    HW253105   8.032  14.544   8.782
17070SOL     OW53106   5.807   7.602   0.533
17070SOL    HW153107   5.889   7.602   0.582
17070SOL    HW253108   5.786   7.694   0.519
17071SOL     OW53109   9.356  10.699  14.746
17071SOL    HW153110   9.389  10.703  14.656
17071SOL    HW253111   9.277  10.753  14.746
17072SOL     OW53112  14.763  13.601   3.245
17072SOL    HW153113  14.782  13.585   3.337
17072SOL    HW253114  14.735  13.516   3.211
17073SOL     OW53115  14.186   2.813   0.492
17073SOL    HW153116  14.232   2.820   0.575
17073SOL    HW253117  14.093   2.821   0.515
17074SOL     OW53118   1.485   5.654  12.175
17074SOL    HW153119   1.535   5.676  12.097
17074SOL    HW253120   1.502   5.561  12.189
17075SOL     OW53121  11.548   9.142  10.044
17075SOL    HW153122  11.637   9.131  10.078
17075SOL    HW253123  11.554   9.117   9.952
17076SOL     OW53124  10.271   7.353   0.107
17076SOL    HW153125  10.247   7.275   0.058
17076SOL    HW253126  10.201   7.364   0.171
17077SOL     OW53127   7.551   4.474   8.318
17077SOL    HW153128   7.609   4.399   8.307
17077SOL    HW253129   7.533   4.504   8.229
17078SOL     OW53130  11.019  10.255   2.397
17078SOL    HW153131  11.086  10.293   2.339
17078SOL    HW253132  11.061  10.178   2.434
17079SOL     OW53133  11.686  12.996  11.777
17079SOL    HW153134  11.602  13.033  11.805
17079SOL    HW253135  11.745  13.071  11.773
17080SOL     OW53136   8.720   2.840   4.846
17080SOL    HW153137   8.805   2.838   4.802
17080SOL    HW253138   8.676   2.917   4.810
17081SOL     OW53139   7.912   0.358  10.039
17081SOL    HW153140   7.877   0.438  10.078
17081SOL    HW253141   7.851   0.337   9.969
17082SOL     OW53142   8.184  10.009   5.688
17082SOL    HW153143   8.249   9.973   5.748
17082SOL    HW253144   8.111   9.948   5.692
17083SOL     OW53145   7.517   2.171   5.976
17083SOL    HW153146   7.534   2.169   5.882
17083SOL    HW253147   7.602   2.151   6.016
17084SOL     OW53148  11.742  12.529  13.428
17084SOL    HW153149  11.799  12.521  13.351
17084SOL    HW253150  11.748  12.445  13.472
17085SOL     OW53151   7.131   4.350  11.336
17085SOL    HW153152   7.075   4.278  11.365
17085SOL    HW253153   7.220   4.314  11.338
17086SOL     OW53154   9.422   9.921   9.683
17086SOL    HW153155   9.425   9.996   9.622
17086SOL    HW253156   9.350   9.942   9.742
17087SOL     OW53157   8.021   9.286  10.843
17087SOL    HW153158   7.967   9.222  10.796
17087SOL    HW253159   8.093   9.304  10.784
17088SOL     OW53160  11.743  10.171   0.080
17088SOL    HW153161  11.666  10.115   0.069
17088SOL    HW253162  11.788  10.134   0.156
17089SOL     OW53163   9.350  12.576   7.064
17089SOL    HW153164   9.362  12.657   7.014
17089SOL    HW253165   9.281  12.596   7.127
17090SOL     OW53166   6.227  12.333   9.883
17090SOL    HW153167   6.149  12.309   9.832
17090SOL    HW253168   6.300  12.292   9.837
17091SOL     OW53169   6.350   2.292  13.214
17091SOL    HW153170   6.321   2.312  13.126
17091SOL    HW253171   6.303   2.354  13.270
17092SOL     OW53172  14.149   4.495  12.491
17092SOL    HW153173  14.106   4.527  12.571
17092SOL    HW253174  14.078   4.478  12.430
17093SOL     OW53175   0.712  12.788  14.786
17093SOL    HW153176   0.723  12.806  14.692
17093SOL    HW253177   0.626  12.746  14.792
17094SOL     OW53178   4.256   2.845  14.244
17094SOL    HW153179   4.283   2.765  14.197
17094SOL    HW253180   4.166   2.828  14.269
17095SOL     OW53181  14.817   5.900   7.289
17095SOL    HW153182   0.016   5.952   7.326
17095SOL    HW253183  14.743   5.960   7.283
17096SOL     OW53184   5.649  12.360   5.080
17096SOL    HW153185   5.647  12.349   4.985
17096SOL    HW253186   5.615  12.277   5.115
17097SOL     OW53187   1.365   4.496   7.338
17097SOL    HW153188   1.357   4.430   7.269
17097SOL    HW253189   1.325   4.456   7.415
17098SOL     OW53190   5.410   3.987   6.561
17098SOL    HW153191   5.466   4.047   6.610
17098SOL    HW253192   5.470   3.926   6.519
17099SOL     OW53193   1.398   0.570  13.517
17099SOL    HW153194   1.357   0.535  13.438
17099SOL    HW253195   1.373   0.508  13.586
17100SOL     OW53196   6.812   1.624  13.175
17100SOL    HW153197   6.752   1.554  13.150
17100SOL    HW253198   6.845   1.658  13.092
17101SOL     OW53199   6.475   9.206  11.156
17101SOL    HW153200   6.484   9.192  11.062
17101SOL    HW253201   6.562   9.191  11.191
17102SOL     OW53202  14.397   5.286   9.723
17102SOL    HW153203  14.456   5.358   9.704
17102SOL    HW253204  14.336   5.321   9.789
17103SOL     OW53205  13.138   8.311  14.738
17103SOL    HW153206  13.152   8.397  14.777
17103SOL    HW253207  13.045   8.308  14.717
17104SOL     OW53208   1.379   2.410  14.590
17104SOL    HW153209   1.291   2.401  14.553
17104SOL    HW253210   1.401   2.502  14.578
17105SOL     OW53211   9.692   8.601   7.553
17105SOL    HW153212   9.716   8.514   7.522
17105SOL    HW253213   9.701   8.657   7.475
17106SOL     OW53214   9.993   3.926   4.508
17106SOL    HW153215  10.021   4.013   4.481
17106SOL    HW253216   9.991   3.875   4.427
17107SOL     OW53217   8.517   0.772   9.922
17107SOL    HW153218   8.529   0.787   9.828
17107SOL    HW253219   8.566   0.843   9.964
17108SOL     OW53220   2.528   4.014  13.242
17108SOL    HW153221   2.546   4.026  13.335
17108SOL    HW253222   2.591   3.948  13.213
17109SOL     OW53223   8.032   9.786   9.012
17109SOL    HW153224   7.952   9.827   8.979
17109SOL    HW253225   8.003   9.738   9.090
17110SOL     OW53226  13.621  13.182  11.991
17110SOL    HW153227  13.563  13.172  12.067
17110SOL    HW253228  13.626  13.277  11.977
17111SOL     OW53229   7.550  13.421   8.700
17111SOL    HW153230   7.627  13.379   8.661
17111SOL    HW253231   7.582  13.459   8.782
17112SOL     OW53232   4.464   6.868   3.842
17112SOL    HW153233   4.434   6.859   3.752
17112SOL    HW253234   4.389   6.902   3.889
17113SOL     OW53235   8.749   8.081  11.129
17113SOL    HW153236   8.803   8.041  11.061
17113SOL    HW253237   8.661   8.083  11.093
17114SOL     OW53238   9.368   1.625   3.183
17114SOL    HW153239   9.276   1.608   3.162
17114SOL    HW253240   9.377   1.720   3.176
17115SOL     OW53241   2.151  12.414  10.366
17115SOL    HW153242   2.062  12.448  10.372
17115SOL    HW253243   2.194  12.470  10.301
17116SOL     OW53244   9.770  13.906   3.033
17116SOL    HW153245   9.759  13.917   3.127
17116SOL    HW253246   9.683  13.922   2.997
17117SOL     OW53247   7.521  14.842   6.068
17117SOL    HW153248   7.579  14.784   6.017
17117SOL    HW253249   7.574  14.868   6.143
17118SOL     OW53250   8.616  10.566   9.260
17118SOL    HW153251   8.675  10.583   9.186
17118SOL    HW253252   8.671  10.519   9.323
17119SOL     OW53253   6.095   6.610  12.649
17119SOL    HW153254   6.095   6.648  12.737
17119SOL    HW253255   6.054   6.676  12.594
17120SOL     OW53256   3.909  13.878  12.309
17120SOL    HW153257   3.908  13.943  12.238
17120SOL    HW253258   3.896  13.930  12.389
17121SOL     OW53259  12.829  10.557   3.577
17121SOL    HW153260  12.920  10.539   3.596
17121SOL    HW253261  12.817  10.526   3.487
17122SOL     OW53262  10.762   8.371   6.832
17122SOL    HW153263  10.699   8.334   6.893
17122SOL    HW253264  10.758   8.313   6.755
17123SOL     OW53265   7.035   1.731   6.953
17123SOL    HW153266   7.116   1.680   6.951
17123SOL    HW253267   7.046   1.791   7.027
17124SOL     OW53268   6.151   7.831   4.361
17124SOL    HW153269   6.064   7.791   4.352
17124SOL    HW253270   6.144   7.883   4.441
17125SOL     OW53271   3.844   7.823  11.368
17125SOL    HW153272   3.774   7.871  11.412
17125SOL    HW253273   3.881   7.767  11.437
17126SOL     OW53274  11.892   7.330  11.254
17126SOL    HW153275  11.833   7.259  11.229
17126SOL    HW253276  11.928   7.362  11.172
17127SOL     OW53277   9.488   8.380  10.424
17127SOL    HW153278   9.402   8.338  10.432
17127SOL    HW253279   9.468   8.471  10.401
17128SOL     OW53280   2.537   6.101   5.020
17128SOL    HW153281   2.487   6.056   5.087
17128SOL    HW253282   2.525   6.048   4.941
17129SOL     OW53283   6.178   1.980   2.367
17129SOL    HW153284   6.179   2.063   2.414
17129SOL    HW253285   6.157   1.914   2.433
17130SOL     OW53286   7.577   5.648  12.655
17130SOL    HW153287   7.533   5.564  12.662
17130SOL    HW253288   7.508   5.712  12.672
17131SOL     OW53289   3.202   0.250   4.286
17131SOL    HW153290   3.149   0.328   4.273
17131SOL    HW253291   3.139   0.180   4.302
17132SOL     OW53292   5.061   0.888  12.292
17132SOL    HW153293   5.097   0.807  12.255
17132SOL    HW253294   5.044   0.868  12.384
17133SOL     OW53295   2.862   9.337  11.079
17133SOL    HW153296   2.893   9.248  11.093
17133SOL    HW253297   2.774   9.326  11.041
17134SOL     OW53298   8.398   8.461   7.000
17134SOL    HW153299   8.471   8.518   7.021
17134SOL    HW253300   8.347   8.510   6.935
17135SOL     OW53301   0.165  11.989  12.873
17135SOL    HW153302   0.213  12.030  12.801
17135SOL    HW253303   0.226  11.927  12.912
17136SOL     OW53304  14.742  12.590   8.951
17136SOL    HW153305  14.753  12.512   9.005
17136SOL    HW253306  14.820  12.643   8.968
17137SOL     OW53307   4.724   8.517  10.579
17137SOL    HW153308   4.782   8.533  10.654
17137SOL    HW253309   4.659   8.587  10.585
17138SOL     OW53310  10.065  10.029   4.420
17138SOL    HW153311  10.092   9.942   4.391
17138SOL    HW253312  10.124  10.048   4.493
17139SOL     OW53313   3.310  10.377  10.813
17139SOL    HW153314   3.300  10.321  10.735
17139SOL    HW253315   3.281  10.463  10.784
17140SOL     OW53316   0.496   1.819  11.541
17140SOL    HW153317   0.565   1.819  11.475
17140SOL    HW253318   0.415   1.813  11.490
17141SOL     OW53319  14.452  13.761   2.890
17141SOL    HW153320  14.395  13.736   2.962
17141SOL    HW253321  14.392  13.777   2.817
17142SOL     OW53322  12.159  13.900   2.998
17142SOL    HW153323  12.242  13.897   3.045
17142SOL    HW253324  12.180  13.870   2.909
17143SOL     OW53325   5.055  10.054   5.509
17143SOL    HW153326   4.995   9.980   5.507
17143SOL    HW253327   5.065  10.075   5.602
17144SOL     OW53328   9.463   4.216  10.811
17144SOL    HW153329   9.494   4.187  10.726
17144SOL    HW253330   9.394   4.154  10.834
17145SOL     OW53331   9.295   7.801   8.936
17145SOL    HW153332   9.214   7.849   8.948
17145SOL    HW253333   9.291   7.768   8.846
17146SOL     OW53334   9.236  13.974   0.990
17146SOL    HW153335   9.326  13.943   0.989
17146SOL    HW253336   9.205  13.960   0.900
17147SOL     OW53337  11.323   4.889   9.619
17147SOL    HW153338  11.296   4.889   9.528
17147SOL    HW253339  11.277   4.965   9.657
17148SOL     OW53340  11.892   2.142   5.300
17148SOL    HW153341  11.858   2.099   5.221
17148SOL    HW253342  11.819   2.138   5.363
17149SOL     OW53343   5.604   9.376   1.072
17149SOL    HW153344   5.588   9.319   1.147
17149SOL    HW253345   5.591   9.319   0.996
17150SOL     OW53346   1.436   9.851  10.739
17150SOL    HW153347   1.365   9.873  10.799
17150SOL    HW253348   1.487   9.931  10.731
17151SOL     OW53349  14.631   3.169  10.384
17151SOL    HW153350  14.635   3.128  10.298
17151SOL    HW253351  14.567   3.240  10.374
17152SOL     OW53352   6.363  13.922   0.836
17152SOL    HW153353   6.412  13.875   0.903
17152SOL    HW253354   6.362  14.013   0.865
17153SOL     OW53355   1.983   9.287  10.911
17153SOL    HW153356   1.960   9.358  10.972
17153SOL    HW253357   1.981   9.329  10.825
17154SOL     OW53358  11.003   4.020  12.917
17154SOL    HW153359  11.033   3.951  12.976
17154SOL    HW253360  11.083   4.047  12.871
17155SOL     OW53361   4.679   8.372   6.594
17155SOL    HW153362   4.677   8.346   6.686
17155SOL    HW253363   4.738   8.309   6.553
17156SOL     OW53364  14.324   4.545   8.822
17156SOL    HW153365  14.262   4.477   8.796
17156SOL    HW253366  14.401   4.529   8.768
17157SOL     OW53367   3.325   5.964   1.509
17157SOL    HW153368   3.402   5.907   1.505
17157SOL    HW253369   3.251   5.904   1.521
17158SOL     OW53370   9.837   3.659   5.793
17158SOL    HW153371   9.888   3.724   5.841
17158SOL    HW253372   9.769   3.710   5.749
17159SOL     OW53373  13.886   2.880   7.764
17159SOL    HW153374  13.938   2.801   7.754
17159SOL    HW253375  13.891   2.923   7.678
17160SOL     OW53376  14.287  13.071   3.746
17160SOL    HW153377  14.333  13.062   3.830
17160SOL    HW253378  14.355  13.094   3.684
17161SOL     OW53379   0.775   0.468  13.765
17161SOL    HW153380   0.739   0.521  13.695
17161SOL    HW253381   0.855   0.513  13.792
17162SOL     OW53382  11.322   5.408   0.262
17162SOL    HW153383  11.275   5.470   0.318
17162SOL    HW253384  11.272   5.327   0.267
17163SOL     OW53385  10.383   2.571   4.149
17163SOL    HW153386  10.406   2.478   4.144
17163SOL    HW253387  10.468   2.617   4.153
17164SOL     OW53388   5.362  14.475   1.246
17164SOL    HW153389   5.390  14.551   1.296
17164SOL    HW253390   5.285  14.442   1.293
17165SOL     OW53391   4.205   8.361   1.471
17165SOL    HW153392   4.138   8.396   1.530
17165SOL    HW253393   4.181   8.268   1.461
17166SOL     OW53394   3.597  12.121  11.779
17166SOL    HW153395   3.541  12.078  11.715
17166SOL    HW253396   3.675  12.066  11.783
17167SOL     OW53397   4.054  13.461  12.229
17167SOL    HW153398   4.098  13.461  12.314
17167SOL    HW253399   3.999  13.539  12.230
17168SOL     OW53400   6.012   5.682   0.514
17168SOL    HW153401   6.050   5.701   0.428
17168SOL    HW253402   6.088   5.673   0.572
17169SOL     OW53403   3.299   1.656   8.938
17169SOL    HW153404   3.277   1.579   8.885
17169SOL    HW253405   3.368   1.625   8.997
17170SOL     OW53406   3.347   1.587   7.771
17170SOL    HW153407   3.313   1.513   7.822
17170SOL    HW253408   3.403   1.635   7.831
17171SOL     OW53409  10.766  13.340   4.084
17171SOL    HW153410  10.674  13.321   4.100
17171SOL    HW253411  10.785  13.299   3.999
17172SOL     OW53412   8.054   2.156   9.355
17172SOL    HW153413   8.045   2.189   9.266
17172SOL    HW253414   8.007   2.219   9.409
17173SOL     OW53415  14.771   7.054   0.104
17173SOL    HW153416  14.825   7.131   0.089
17173SOL    HW253417  14.764   7.012   0.019
17174SOL     OW53418  14.522  14.245  12.398
17174SOL    HW153419  14.448  14.300  12.426
17174SOL    HW253420  14.588  14.257  12.466
17175SOL     OW53421  12.934   3.080   0.536
17175SOL    HW153422  12.924   3.158   0.592
17175SOL    HW253423  12.934   3.115   0.447
17176SOL     OW53424   5.156   0.341   0.491
17176SOL    HW153425   5.232   0.289   0.462
17176SOL    HW253426   5.167   0.425   0.447
17177SOL     OW53427  10.739   3.587   9.360
17177SOL    HW153428  10.691   3.670   9.357
17177SOL    HW253429  10.825   3.611   9.394
17178SOL     OW53430  10.075   3.519   4.351
17178SOL    HW153431  10.169   3.502   4.340
17178SOL    HW253432  10.039   3.505   4.263
17179SOL     OW53433   3.105  12.030   8.511
17179SOL    HW153434   3.192  12.066   8.523
17179SOL    HW253435   3.104  11.998   8.420
17180SOL     OW53436  11.661  11.247   7.521
17180SOL    HW153437  11.696  11.256   7.609
17180SOL    HW253438  11.649  11.152   7.509
17181SOL     OW53439  14.102   7.585   2.495
17181SOL    HW153440  14.198   7.588   2.500
17181SOL    HW253441  14.073   7.648   2.561
17182SOL     OW53442  13.879   6.909   4.382
17182SOL    HW153443  13.875   7.003   4.370
17182SOL    HW253444  13.865   6.872   4.295
17183SOL     OW53445   0.524   8.724  12.381
17183SOL    HW153446   0.542   8.630  12.375
17183SOL    HW253447   0.448   8.730  12.439
17184SOL     OW53448  10.195  10.807   9.868
17184SOL    HW153449  10.216  10.890   9.911
17184SOL    HW253450  10.280  10.774   9.837
17185SOL     OW53451   8.415  11.444   2.993
17185SOL    HW153452   8.351  11.432   2.922
17185SOL    HW253453   8.435  11.538   2.992
17186SOL     OW53454   8.876   5.703   0.247
17186SOL    HW153455   8.781   5.690   0.253
17186SOL    HW253456   8.898   5.679   0.157
17187SOL     OW53457   3.198  10.151   1.883
17187SOL    HW153458   3.233  10.191   1.963
17187SOL    HW253459   3.198  10.222   1.819
17188SOL     OW53460  14.258   9.879   3.641
17188SOL    HW153461  14.256   9.911   3.550
17188SOL    HW253462  14.166   9.881   3.668
17189SOL     OW53463  12.085   4.018   0.847
17189SOL    HW153464  12.165   3.983   0.886
17189SOL    HW253465  12.036   4.053   0.922
17190SOL     OW53466   6.321   8.781   7.192
17190SOL    HW153467   6.229   8.795   7.171
17190SOL    HW253468   6.321   8.748   7.281
17191SOL     OW53469   0.641   4.069  14.250
17191SOL    HW153470   0.660   4.087  14.158
17191SOL    HW253471   0.660   3.976  14.260
17192SOL     OW53472   4.510   4.396  13.092
17192SOL    HW153473   4.467   4.462  13.145
17192SOL    HW253474   4.480   4.312  13.128
17193SOL     OW53475  14.591  11.224   2.441
17193SOL    HW153476  14.548  11.295   2.393
17193SOL    HW253477  14.649  11.268   2.502
17194SOL     OW53478  14.374   1.591  13.296
17194SOL    HW153479  14.430   1.666  13.315
17194SOL    HW253480  14.310   1.590  13.367
17195SOL     OW53481   5.828  11.694  14.099
17195SOL    HW153482   5.775  11.749  14.158
17195SOL    HW253483   5.863  11.626  14.156
17196SOL     OW53484  12.524  14.847   7.729
17196SOL    HW153485  12.549   0.025   7.651
17196SOL    HW253486  12.602  14.797   7.752
17197SOL     OW53487   2.896   7.163  12.914
17197SOL    HW153488   2.827   7.132  12.973
17197SOL    HW253489   2.852   7.178  12.831
17198SOL     OW53490   2.802  11.270   9.630
17198SOL    HW153491   2.881  11.299   9.584
17198SOL    HW253492   2.787  11.335   9.698
17199SOL     OW53493   8.437   0.804   7.319
17199SOL    HW153494   8.439   0.751   7.240
17199SOL    HW253495   8.381   0.755   7.379
17200SOL     OW53496   0.469  10.590  13.083
17200SOL    HW153497   0.511  10.527  13.142
17200SOL    HW253498   0.434  10.657  13.142
17201SOL     OW53499  10.090  12.280  13.505
17201SOL    HW153500  10.042  12.345  13.556
17201SOL    HW253501  10.022  12.219  13.476
17202SOL     OW53502   4.254   5.569   4.023
17202SOL    HW153503   4.261   5.634   4.092
17202SOL    HW253504   4.182   5.600   3.967
17203SOL     OW53505  14.754   1.160   6.416
17203SOL    HW153506  14.774   1.089   6.356
17203SOL    HW253507  14.668   1.137   6.453
17204SOL     OW53508  12.350  12.410   8.583
17204SOL    HW153509  12.433  12.363   8.580
17204SOL    HW253510  12.372  12.495   8.622
17205SOL     OW53511  13.836   6.567   6.859
17205SOL    HW153512  13.909   6.506   6.864
17205SOL    HW253513  13.810   6.580   6.950
17206SOL     OW53514   6.968   0.864  11.011
17206SOL    HW153515   6.877   0.839  11.026
17206SOL    HW253516   6.983   0.846  10.918
17207SOL     OW53517   2.923  14.487   2.784
17207SOL    HW153518   2.942  14.574   2.818
17207SOL    HW253519   2.901  14.501   2.692
17208SOL     OW53520  11.098   7.267   2.159
17208SOL    HW153521  11.157   7.214   2.212
17208SOL    HW253522  11.144   7.278   2.075
17209SOL     OW53523   0.796   6.918  10.414
17209SOL    HW153524   0.706   6.938  10.440
17209SOL    HW253525   0.789   6.888  10.324
17210SOL     OW53526   3.102   1.656   6.998
17210SOL    HW153527   3.162   1.582   7.010
17210SOL    HW253528   3.115   1.683   6.907
17211SOL     OW53529   6.940   4.614  12.865
17211SOL    HW153530   6.935   4.681  12.797
17211SOL    HW253531   6.852   4.611  12.902
17212SOL     OW53532   2.394   2.289   7.575
17212SOL    HW153533   2.465   2.312   7.515
17212SOL    HW253534   2.387   2.193   7.568
17213SOL     OW53535   6.948  13.013   4.596
17213SOL    HW153536   7.026  12.988   4.646
17213SOL    HW253537   6.882  12.949   4.623
17214SOL     OW53538   6.710  12.661   1.518
17214SOL    HW153539   6.652  12.591   1.489
17214SOL    HW253540   6.688  12.736   1.464
17215SOL     OW53541  10.429   3.239  13.456
17215SOL    HW153542  10.338   3.268  13.470
17215SOL    HW253543  10.437   3.160  13.509
17216SOL     OW53544  10.113   1.031  11.437
17216SOL    HW153545  10.080   1.108  11.484
17216SOL    HW253546  10.072   0.957  11.480
17217SOL     OW53547  13.903   2.992   4.335
17217SOL    HW153548  13.838   2.938   4.379
17217SOL    HW253549  13.921   3.063   4.397
17218SOL     OW53550   0.949   7.155   7.977
17218SOL    HW153551   0.887   7.107   7.922
17218SOL    HW253552   1.004   7.087   8.015
17219SOL     OW53553   3.190  13.078   9.948
17219SOL    HW153554   3.198  12.985   9.969
17219SOL    HW253555   3.198  13.081   9.852
17220SOL     OW53556   8.862   5.916   5.089
17220SOL    HW153557   8.868   5.842   5.029
17220SOL    HW253558   8.783   5.962   5.063
17221SOL     OW53559  12.131  14.375   2.683
17221SOL    HW153560  12.171  14.306   2.737
17221SOL    HW253561  12.041  14.347   2.672
17222SOL     OW53562  14.358  11.945  12.445
17222SOL    HW153563  14.434  11.999  12.424
17222SOL    HW253564  14.338  11.900  12.363
17223SOL     OW53565   9.803  11.628  13.569
17223SOL    HW153566   9.870  11.562  13.553
17223SOL    HW253567   9.736  11.612  13.504
17224SOL     OW53568  11.954   4.830  11.062
17224SOL    HW153569  12.011   4.808  11.136
17224SOL    HW253570  12.011   4.824  10.985
17225SOL     OW53571   0.833   6.728   9.789
17225SOL    HW153572   0.806   6.670   9.860
17225SOL    HW253573   0.751   6.765   9.757
17226SOL     OW53574   1.541   2.336  13.074
17226SOL    HW153575   1.514   2.427  13.064
17226SOL    HW253576   1.636   2.338  13.070
17227SOL     OW53577   4.549   4.026   9.699
17227SOL    HW153578   4.616   4.063   9.642
17227SOL    HW253579   4.541   3.935   9.671
17228SOL     OW53580  10.660   0.098   4.469
17228SOL    HW153581  10.704   0.030   4.418
17228SOL    HW253582  10.721   0.119   4.539
17229SOL     OW53583   8.940   4.754   9.170
17229SOL    HW153584   8.874   4.762   9.238
17229SOL    HW253585   8.894   4.778   9.089
17230SOL     OW53586   2.054   2.494   1.204
17230SOL    HW153587   1.975   2.466   1.157
17230SOL    HW253588   2.118   2.425   1.187
17231SOL     OW53589  14.252  11.504   1.651
17231SOL    HW153590  14.336  11.517   1.695
17231SOL    HW253591  14.192  11.562   1.698
17232SOL     OW53592  12.290  12.404   0.469
17232SOL    HW153593  12.199  12.427   0.488
17232SOL    HW253594  12.285  12.326   0.414
17233SOL     OW53595   5.435  11.813   6.179
17233SOL    HW153596   5.359  11.865   6.152
17233SOL    HW253597   5.507  11.844   6.125
17234SOL     OW53598  11.126   1.363   2.281
17234SOL    HW153599  11.081   1.440   2.248
17234SOL    HW253600  11.142   1.309   2.204
17235SOL     OW53601   4.626   1.226   9.663
17235SOL    HW153602   4.625   1.320   9.682
17235SOL    HW253603   4.536   1.207   9.636
17236SOL     OW53604   4.399   5.485   7.740
17236SOL    HW153605   4.325   5.430   7.715
17236SOL    HW253606   4.387   5.502   7.833
17237SOL     OW53607  13.596   9.496   4.728
17237SOL    HW153608  13.635   9.459   4.649
17237SOL    HW253609  13.527   9.554   4.697
17238SOL     OW53610   7.165   7.931  14.010
17238SOL    HW153611   7.229   7.901  13.946
17238SOL    HW253612   7.133   8.014  13.974
17239SOL     OW53613  12.645   4.331   9.755
17239SOL    HW153614  12.575   4.340   9.690
17239SOL    HW253615  12.616   4.260   9.812
17240SOL     OW53616   8.459   2.605  13.710
17240SOL    HW153617   8.517   2.562  13.647
17240SOL    HW253618   8.511   2.675  13.747
17241SOL     OW53619   0.045  10.854   2.591
17241SOL    HW153620   0.010  10.864   2.502
17241SOL    HW253621   0.121  10.797   2.580
17242SOL     OW53622   4.426   9.342  13.005
17242SOL    HW153623   4.355   9.379  13.058
17242SOL    HW253624   4.397   9.253  12.986
17243SOL     OW53625  11.048  11.354  10.390
17243SOL    HW153626  11.071  11.261  10.385
17243SOL    HW253627  11.098  11.387  10.465
17244SOL     OW53628   6.043  11.305   8.394
17244SOL    HW153629   6.054  11.381   8.451
17244SOL    HW253630   6.008  11.237   8.450
17245SOL     OW53631   0.187  10.301   9.677
17245SOL    HW153632   0.189  10.219   9.628
17245SOL    HW253633   0.148  10.277   9.761
17246SOL     OW53634   1.708  14.142  11.494
17246SOL    HW153635   1.775  14.203  11.462
17246SOL    HW253636   1.685  14.090  11.417
17247SOL     OW53637   5.591   4.422   1.016
17247SOL    HW153638   5.650   4.392   1.086
17247SOL    HW253639   5.537   4.489   1.058
17248SOL     OW53640   6.190   0.624   6.328
17248SOL    HW153641   6.281   0.650   6.311
17248SOL    HW253642   6.139   0.673   6.264
17249SOL     OW53643   4.535  12.962   4.231
17249SOL    HW153644   4.462  12.934   4.176
17249SOL    HW253645   4.552  13.052   4.202
17250SOL     OW53646  10.723  12.528   0.546
17250SOL    HW153647  10.782  12.511   0.619
17250SOL    HW253648  10.780  12.550   0.473
17251SOL     OW53649   4.543   2.492  12.657
17251SOL    HW153650   4.625   2.536  12.679
17251SOL    HW253651   4.554   2.464  12.567
17252SOL     OW53652   3.255   0.300   9.288
17252SOL    HW153653   3.270   0.236   9.357
17252SOL    HW253654   3.204   0.369   9.330
17253SOL     OW53655   7.626  10.344   8.533
17253SOL    HW153656   7.539  10.381   8.515
17253SOL    HW253657   7.622  10.256   8.497
17254SOL     OW53658  11.242   5.792   9.480
17254SOL    HW153659  11.233   5.767   9.572
17254SOL    HW253660  11.184   5.733   9.433
17255SOL     OW53661   4.054  10.208   8.022
17255SOL    HW153662   4.009  10.125   8.041
17255SOL    HW253663   3.985  10.274   8.030
17256SOL     OW53664   9.452   5.042   0.309
17256SOL    HW153665   9.410   5.114   0.262
17256SOL    HW253666   9.546   5.053   0.290
17257SOL     OW53667   5.901  11.799   7.643
17257SOL    HW153668   5.892  11.716   7.690
17257SOL    HW253669   5.927  11.862   7.711
17258SOL     OW53670   9.446   9.595   6.542
17258SOL    HW153671   9.386   9.562   6.608
17258SOL    HW253672   9.414   9.683   6.523
17259SOL     OW53673   7.837   0.574   5.955
17259SOL    HW153674   7.801   0.632   6.022
17259SOL    HW253675   7.887   0.509   6.004
17260SOL     OW53676   6.469   8.772   6.751
17260SOL    HW153677   6.482   8.794   6.659
17260SOL    HW253678   6.542   8.714   6.772
17261SOL     OW53679  10.678   3.185   0.285
17261SOL    HW153680  10.645   3.263   0.240
17261SOL    HW253681  10.770   3.180   0.260
17262SOL     OW53682  13.022   4.136  13.729
17262SOL    HW153683  13.114   4.137  13.755
17262SOL    HW253684  12.989   4.051  13.759
17263SOL     OW53685   7.411   2.906   3.254
17263SOL    HW153686   7.339   2.880   3.196
17263SOL    HW253687   7.467   2.960   3.199
17264SOL     OW53688   5.240   7.521  13.971
17264SOL    HW153689   5.279   7.485  13.892
17264SOL    HW253690   5.182   7.591  13.940
17265SOL     OW53691   6.468  13.793   0.056
17265SOL    HW153692   6.456  13.708   0.098
17265SOL    HW253693   6.421  13.854   0.113
17266SOL     OW53694  10.454  11.199  12.378
17266SOL    HW153695  10.541  11.171  12.405
17266SOL    HW253696  10.453  11.293  12.396
17267SOL     OW53697   8.135  10.368   9.011
17267SOL    HW153698   8.081  10.296   9.043
17267SOL    HW253699   8.213  10.366   9.067
17268SOL     OW53700   6.688  13.829   9.038
17268SOL    HW153701   6.783  13.843   9.043
17268SOL    HW253702   6.675  13.781   8.956
17269SOL     OW53703   5.748  13.256   2.128
17269SOL    HW153704   5.729  13.349   2.131
17269SOL    HW253705   5.758  13.236   2.035
17270SOL     OW53706   0.556  10.043   2.749
17270SOL    HW153707   0.493  10.062   2.679
17270SOL    HW253708   0.505  10.049   2.830
17271SOL     OW53709  12.191   9.989  12.910
17271SOL    HW153710  12.137  10.001  12.988
17271SOL    HW253711  12.216   9.897  12.913
17272SOL     OW53712   8.215  11.294  10.304
17272SOL    HW153713   8.300  11.267  10.337
17272SOL    HW253714   8.161  11.216  10.311
17273SOL     OW53715  14.352   8.804   1.305
17273SOL    HW153716  14.301   8.807   1.224
17273SOL    HW253717  14.442   8.787   1.277
17274SOL     OW53718   8.641   2.107   4.866
17274SOL    HW153719   8.735   2.086   4.872
17274SOL    HW253720   8.635   2.195   4.904
17275SOL     OW53721   6.069  13.478   2.876
17275SOL    HW153722   6.050  13.388   2.848
17275SOL    HW253723   6.105  13.468   2.965
17276SOL     OW53724   3.351   8.758   8.974
17276SOL    HW153725   3.365   8.796   9.061
17276SOL    HW253726   3.315   8.671   8.991
17277SOL     OW53727   2.601   3.369  13.382
17277SOL    HW153728   2.550   3.295  13.349
17277SOL    HW253729   2.663   3.389  13.312
17278SOL     OW53730   8.967   6.609   1.590
17278SOL    HW153731   9.008   6.678   1.538
17278SOL    HW253732   8.962   6.533   1.531
17279SOL     OW53733  10.977   7.529   5.963
17279SOL    HW153734  10.941   7.601   6.015
17279SOL    HW253735  11.057   7.504   6.008
17280SOL     OW53736   9.848   4.783  11.601
17280SOL    HW153737   9.885   4.702  11.637
17280SOL    HW253738   9.919   4.846  11.605
17281SOL     OW53739  12.001  10.102   7.088
17281SOL    HW153740  12.043  10.186   7.106
17281SOL    HW253741  11.914  10.109   7.127
17282SOL     OW53742   4.176  10.875  10.628
17282SOL    HW153743   4.096  10.836  10.664
17282SOL    HW253744   4.243  10.856  10.694
17283SOL     OW53745   0.918  14.830  12.572
17283SOL    HW153746   0.971  14.836  12.492
17283SOL    HW253747   0.828  14.823  12.539
17284SOL     OW53748  10.214   6.354   3.080
17284SOL    HW153749  10.299   6.353   3.125
17284SOL    HW253750  10.210   6.441   3.039
17285SOL     OW53751  12.251  13.933   6.347
17285SOL    HW153752  12.298  13.935   6.431
17285SOL    HW253753  12.187  13.862   6.358
17286SOL     OW53754  12.863   3.879   6.596
17286SOL    HW153755  12.862   3.918   6.509
17286SOL    HW253756  12.824   3.792   6.585
17287SOL     OW53757  13.686  13.013  10.232
17287SOL    HW153758  13.715  12.922  10.229
17287SOL    HW253759  13.630  13.022  10.155
17288SOL     OW53760   3.772  12.105   1.409
17288SOL    HW153761   3.706  12.041   1.435
17288SOL    HW253762   3.744  12.186   1.450
17289SOL     OW53763   5.370   1.048  13.379
17289SOL    HW153764   5.422   0.972  13.353
17289SOL    HW253765   5.281   1.026  13.351
17290SOL     OW53766   3.034   2.405   4.221
17290SOL    HW153767   3.048   2.341   4.291
17290SOL    HW253768   2.944   2.433   4.232
17291SOL     OW53769   8.077  14.524   7.864
17291SOL    HW153770   8.149  14.470   7.897
17291SOL    HW253771   8.072  14.503   7.770
17292SOL     OW53772  10.761  12.493   8.363
17292SOL    HW153773  10.686  12.460   8.414
17292SOL    HW253774  10.832  12.433   8.385
17293SOL     OW53775  13.978   8.060  14.208
17293SOL    HW153776  13.895   8.098  14.240
17293SOL    HW253777  14.044   8.093  14.269
17294SOL     OW53778  13.002  10.095   4.244
17294SOL    HW153779  13.010  10.189   4.227
17294SOL    HW253780  12.928  10.087   4.304
17295SOL     OW53781   5.955   1.554   9.411
17295SOL    HW153782   6.007   1.532   9.334
17295SOL    HW253783   5.930   1.646   9.397
17296SOL     OW53784   0.046   6.165   6.730
17296SOL    HW153785   0.127   6.216   6.731
17296SOL    HW253786   0.076   6.073   6.729
17297SOL     OW53787  11.905  11.152  11.966
17297SOL    HW153788  11.978  11.092  11.952
17297SOL    HW253789  11.870  11.168  11.878
17298SOL     OW53790   3.850  12.345   2.959
17298SOL    HW153791   3.945  12.353   2.969
17298SOL    HW253792   3.839  12.269   2.902
17299SOL     OW53793   4.232  13.974   8.969
17299SOL    HW153794   4.249  13.998   9.060
17299SOL    HW253795   4.228  14.058   8.923
17300SOL     OW53796   7.323   2.755  13.496
17300SOL    HW153797   7.243   2.808  13.500
17300SOL    HW253798   7.370   2.787  13.419
17301SOL     OW53799  10.880   4.807   3.407
17301SOL    HW153800  10.907   4.899   3.413
17301SOL    HW253801  10.844   4.799   3.318
17302SOL     OW53802   8.896   8.332   6.409
17302SOL    HW153803   8.984   8.370   6.419
17302SOL    HW253804   8.895   8.259   6.472
17303SOL     OW53805   8.068  11.578   7.454
17303SOL    HW153806   7.993  11.522   7.434
17303SOL    HW253807   8.051  11.659   7.407
17304SOL     OW53808   5.543   1.886  11.822
17304SOL    HW153809   5.553   1.894  11.917
17304SOL    HW253810   5.451   1.905  11.806
17305SOL     OW53811   9.616  13.304   2.967
17305SOL    HW153812   9.651  13.298   3.056
17305SOL    HW253813   9.683  13.265   2.911
17306SOL     OW53814   3.128   8.769   4.834
17306SOL    HW153815   3.094   8.687   4.800
17306SOL    HW253816   3.055   8.808   4.882
17307SOL     OW53817  13.950   3.145   2.417
17307SOL    HW153818  13.956   3.167   2.510
17307SOL    HW253819  14.032   3.178   2.379
17308SOL     OW53820  13.712   0.307   6.058
17308SOL    HW153821  13.694   0.324   6.151
17308SOL    HW253822  13.778   0.237   6.059
17309SOL     OW53823   9.490  11.007   2.856
17309SOL    HW153824   9.538  11.049   2.784
17309SOL    HW253825   9.434  11.076   2.891
17310SOL     OW53826  10.395  10.550  10.123
17310SOL    HW153827  10.349  10.525  10.043
17310SOL    HW253828  10.438  10.470  10.153
17311SOL     OW53829   7.378   0.424  11.502
17311SOL    HW153830   7.313   0.360  11.532
17311SOL    HW253831   7.393   0.480  11.579
17312SOL     OW53832   3.796   0.473   3.639
17312SOL    HW153833   3.771   0.562   3.662
17312SOL    HW253834   3.723   0.440   3.587
17313SOL     OW53835   9.975   6.947   5.600
17313SOL    HW153836   9.922   6.957   5.521
17313SOL    HW253837   9.922   6.893   5.658
17314SOL     OW53838   4.959  14.543   4.136
17314SOL    HW153839   4.889  14.585   4.088
17314SOL    HW253840   4.988  14.608   4.200
17315SOL     OW53841  10.117  11.135  14.793
17315SOL    HW153842  10.056  11.208  14.783
17315SOL    HW253843  10.202  11.176  14.806
17316SOL     OW53844   6.224   1.002   6.770
17316SOL    HW153845   6.170   1.055   6.830
17316SOL    HW253846   6.275   1.067   6.721
17317SOL     OW53847  10.352   4.509  10.983
17317SOL    HW153848  10.402   4.435  11.018
17317SOL    HW253849  10.377   4.583  11.040
17318SOL     OW53850   9.710   4.581  14.549
17318SOL    HW153851   9.800   4.603  14.529
17318SOL    HW253852   9.714   4.536  14.634
17319SOL     OW53853   9.077   1.751   1.879
17319SOL    HW153854   9.043   1.705   1.802
17319SOL    HW253855   9.012   1.734   1.947
17320SOL     OW53856   3.035   8.495   4.823
17320SOL    HW153857   3.125   8.473   4.848
17320SOL    HW253858   2.983   8.476   4.900
17321SOL     OW53859  13.418  14.764   2.578
17321SOL    HW153860  13.509  14.773   2.605
17321SOL    HW253861  13.405  14.670   2.566
17322SOL     OW53862   9.573   6.951   2.315
17322SOL    HW153863   9.658   6.984   2.344
17322SOL    HW253864   9.585   6.936   2.221
17323SOL     OW53865   7.169  11.536  14.529
17323SOL    HW153866   7.148  11.602  14.596
17323SOL    HW253867   7.110  11.556  14.456
17324SOL     OW53868   1.367  14.620   4.980
17324SOL    HW153869   1.331  14.705   4.954
17324SOL    HW253870   1.294  14.574   5.021
17325SOL     OW53871   2.143   3.935   6.089
17325SOL    HW153872   2.080   3.926   6.018
17325SOL    HW253873   2.197   3.856   6.083
17326SOL     OW53874   1.987   4.737   3.579
17326SOL    HW153875   2.078   4.719   3.555
17326SOL    HW253876   1.993   4.795   3.655
17327SOL     OW53877   8.482  10.090  12.506
17327SOL    HW153878   8.407  10.050  12.551
17327SOL    HW253879   8.447  10.116  12.421
17328SOL     OW53880   9.826  13.210   8.236
17328SOL    HW153881   9.871  13.126   8.242
17328SOL    HW253882   9.762  13.198   8.166
17329SOL     OW53883   4.116   1.298  13.458
17329SOL    HW153884   4.067   1.378  13.443
17329SOL    HW253885   4.071   1.232  13.405
17330SOL     OW53886   3.697   1.176   0.391
17330SOL    HW153887   3.772   1.118   0.384
17330SOL    HW253888   3.707   1.238   0.318
17331SOL     OW53889   1.569   2.932   0.823
17331SOL    HW153890   1.591   2.845   0.788
17331SOL    HW253891   1.495   2.916   0.882
17332SOL     OW53892  11.662  13.984   7.478
17332SOL    HW153893  11.654  14.057   7.541
17332SOL    HW253894  11.754  13.986   7.451
17333SOL     OW53895   5.734   5.129   1.508
17333SOL    HW153896   5.702   5.219   1.497
17333SOL    HW253897   5.824   5.133   1.475
17334SOL     OW53898   7.262   2.931   1.811
17334SOL    HW153899   7.266   2.892   1.898
17334SOL    HW253900   7.268   3.025   1.826
17335SOL     OW53901   9.282   4.277   9.667
17335SOL    HW153902   9.367   4.236   9.652
17335SOL    HW253903   9.239   4.221   9.733
17336SOL     OW53904   7.234   6.621   7.884
17336SOL    HW153905   7.162   6.673   7.850
17336SOL    HW253906   7.312   6.670   7.861
17337SOL     OW53907  13.889   3.804   5.924
17337SOL    HW153908  13.796   3.780   5.921
17337SOL    HW253909  13.891   3.883   5.977
17338SOL     OW53910  12.851  12.909  12.179
17338SOL    HW153911  12.941  12.880  12.166
17338SOL    HW253912  12.806  12.882  12.099
17339SOL     OW53913  10.064   1.891  13.045
17339SOL    HW153914  10.015   1.906  13.126
17339SOL    HW253915  10.010   1.829  12.996
17340SOL     OW53916  13.849  12.553   1.757
17340SOL    HW153917  13.766  12.567   1.711
17340SOL    HW253918  13.905  12.510   1.693
17341SOL     OW53919   4.927   8.205   4.925
17341SOL    HW153920   4.951   8.213   4.833
17341SOL    HW253921   4.884   8.120   4.932
17342SOL     OW53922   5.080   4.826   1.204
17342SOL    HW153923   4.996   4.809   1.248
17342SOL    HW253924   5.104   4.742   1.166
17343SOL     OW53925   4.762  14.485   2.583
17343SOL    HW153926   4.782  14.492   2.676
17343SOL    HW253927   4.677  14.440   2.580
17344SOL     OW53928   8.751  13.776   7.584
17344SOL    HW153929   8.728  13.799   7.674
17344SOL    HW253930   8.840  13.809   7.573
17345SOL     OW53931   3.432   7.581  14.089
17345SOL    HW153932   3.396   7.512  14.033
17345SOL    HW253933   3.496   7.536  14.145
17346SOL     OW53934   9.478   5.482  10.667
17346SOL    HW153935   9.472   5.394  10.629
17346SOL    HW253936   9.543   5.473  10.737
17347SOL     OW53937  13.599   0.434   1.145
17347SOL    HW153938  13.565   0.522   1.157
17347SOL    HW253939  13.538   0.377   1.192
17348SOL     OW53940   7.865   3.958  10.279
17348SOL    HW153941   7.787   3.980  10.228
17348SOL    HW253942   7.934   4.011  10.241
17349SOL     OW53943   0.321   8.296  10.690
17349SOL    HW153944   0.294   8.372  10.638
17349SOL    HW253945   0.244   8.276  10.744
17350SOL     OW53946   7.994  13.158   9.704
17350SOL    HW153947   7.981  13.093   9.635
17350SOL    HW253948   8.025  13.236   9.658
17351SOL     OW53949  12.020  14.099  11.036
17351SOL    HW153950  12.099  14.148  11.013
17351SOL    HW253951  12.021  14.023  10.977
17352SOL     OW53952  12.890   6.447  13.090
17352SOL    HW153953  12.932   6.419  13.171
17352SOL    HW253954  12.796   6.439  13.107
17353SOL     OW53955   1.482   3.652   5.095
17353SOL    HW153956   1.482   3.742   5.128
17353SOL    HW253957   1.410   3.650   5.032
17354SOL     OW53958  14.068  11.547  11.849
17354SOL    HW153959  14.128  11.490  11.800
17354SOL    HW253960  14.050  11.620  11.789
17355SOL     OW53961   3.550   6.347   5.477
17355SOL    HW153962   3.633   6.367   5.520
17355SOL    HW253963   3.484   6.392   5.529
17356SOL     OW53964   2.876   0.473   5.731
17356SOL    HW153965   2.921   0.454   5.813
17356SOL    HW253966   2.783   0.470   5.753
17357SOL     OW53967  12.079   4.493   0.901
17357SOL    HW153968  12.156   4.547   0.884
17357SOL    HW253969  12.112   4.403   0.901
17358SOL     OW53970   7.138   9.751   1.603
17358SOL    HW153971   7.182   9.743   1.687
17358SOL    HW253972   7.073   9.681   1.603
17359SOL     OW53973  13.400   1.465  12.252
17359SOL    HW153974  13.399   1.483  12.346
17359SOL    HW253975  13.370   1.374  12.244
17360SOL     OW53976  10.159  12.413  14.603
17360SOL    HW153977  10.102  12.398  14.679
17360SOL    HW253978  10.226  12.474  14.635
17361SOL     OW53979   3.827   4.139  10.892
17361SOL    HW153980   3.794   4.056  10.858
17361SOL    HW253981   3.921   4.123  10.907
17362SOL     OW53982   1.735   1.190   4.196
17362SOL    HW153983   1.772   1.226   4.276
17362SOL    HW253984   1.809   1.149   4.151
17363SOL     OW53985  10.924   4.865   2.798
17363SOL    HW153986  10.831   4.884   2.786
17363SOL    HW253987  10.954   4.932   2.859
17364SOL     OW53988  10.165   0.747   7.256
17364SOL    HW153989  10.074   0.721   7.271
17364SOL    HW253990  10.191   0.697   7.178
17365SOL     OW53991   9.216   1.463   6.945
17365SOL    HW153992   9.306   1.470   6.977
17365SOL    HW253993   9.162   1.492   7.019
17366SOL     OW53994  11.424  13.855   2.146
17366SOL    HW153995  11.481  13.932   2.148
17366SOL    HW253996  11.454  13.801   2.219
17367SOL     OW53997   0.528  14.647  13.777
17367SOL    HW153998   0.587  14.668  13.850
17367SOL    HW253999   0.551  14.709  13.709
17368SOL     OW54000  13.300   9.821   1.008
17368SOL    HW154001  13.286   9.803   1.101
17368SOL    HW254002  13.228   9.777   0.964
17369SOL     OW54003   4.763  13.518   1.069
17369SOL    HW154004   4.795  13.540   0.982
17369SOL    HW254005   4.714  13.596   1.097
17370SOL     OW54006   5.527  10.805   2.989
17370SOL    HW154007   5.509  10.718   3.023
17370SOL    HW254008   5.579  10.790   2.910
17371SOL     OW54009   2.847   1.042   7.775
17371SOL    HW154010   2.794   1.120   7.757
17371SOL    HW254011   2.904   1.068   7.848
17372SOL     OW54012  12.439   8.653   7.855
17372SOL    HW154013  12.481   8.716   7.914
17372SOL    HW254014  12.498   8.649   7.779
17373SOL     OW54015  10.118   0.544  12.341
17373SOL    HW154016  10.044   0.590  12.301
17373SOL    HW254017  10.146   0.600  12.412
17374SOL     OW54018   0.756  14.048   8.164
17374SOL    HW154019   0.669  14.042   8.203
17374SOL    HW254020   0.740  14.079   8.074
17375SOL     OW54021  10.766   6.084   8.019
17375SOL    HW154022  10.812   6.162   8.049
17375SOL    HW254023  10.673   6.108   8.020
17376SOL     OW54024   3.524   7.349   5.541
17376SOL    HW154025   3.467   7.412   5.496
17376SOL    HW254026   3.471   7.313   5.611
17377SOL     OW54027  12.573  13.940  11.102
17377SOL    HW154028  12.606  14.028  11.085
17377SOL    HW254029  12.650  13.884  11.101
17378SOL     OW54030  13.664   2.026  11.190
17378SOL    HW154031  13.632   2.101  11.239
17378SOL    HW254032  13.751   2.052  11.160
17379SOL     OW54033  13.981  12.198  10.715
17379SOL    HW154034  14.069  12.223  10.685
17379SOL    HW254035  13.947  12.276  10.758
17380SOL     OW54036   3.790   1.124   7.790
17380SOL    HW154037   3.755   1.076   7.716
17380SOL    HW254038   3.722   1.187   7.813
17381SOL     OW54039   1.147   9.877  14.444
17381SOL    HW154040   1.238   9.889  14.416
17381SOL    HW254041   1.106   9.829  14.372
17382SOL     OW54042   5.394   0.303   0.913
17382SOL    HW154043   5.310   0.257   0.922
17382SOL    HW254044   5.397   0.329   0.821
17383SOL     OW54045   5.639   4.364  13.560
17383SOL    HW154046   5.690   4.316  13.625
17383SOL    HW254047   5.557   4.384  13.605
17384SOL     OW54048   7.387   0.185   0.650
17384SOL    HW154049   7.364   0.125   0.579
17384SOL    HW254050   7.344   0.148   0.727
17385SOL     OW54051   1.376  11.326   9.135
17385SOL    HW154052   1.359  11.367   9.219
17385SOL    HW254053   1.377  11.399   9.073
17386SOL     OW54054   5.841   3.131  10.661
17386SOL    HW154055   5.766   3.083  10.625
17386SOL    HW254056   5.917   3.096  10.613
17387SOL     OW54057  14.868   9.998   1.559
17387SOL    HW154058  14.801   9.936   1.528
17387SOL    HW254059  14.831  10.035   1.639
17388SOL     OW54060   3.659   6.806   1.081
17388SOL    HW154061   3.730   6.870   1.083
17388SOL    HW254062   3.580   6.858   1.060
17389SOL     OW54063   1.451  14.179   9.808
17389SOL    HW154064   1.379  14.238   9.830
17389SOL    HW254065   1.441  14.106   9.869
17390SOL     OW54066  13.823   5.140  12.375
17390SOL    HW154067  13.823   5.064  12.316
17390SOL    HW254068  13.856   5.105  12.458
17391SOL     OW54069   3.641  11.823   8.137
17391SOL    HW154070   3.721  11.773   8.155
17391SOL    HW254071   3.616  11.858   8.223
17392SOL     OW54072  14.525   3.148   9.535
17392SOL    HW154073  14.465   3.199   9.480
17392SOL    HW254074  14.586   3.213   9.570
17393SOL     OW54075   8.587   4.081   7.361
17393SOL    HW154076   8.575   3.988   7.378
17393SOL    HW254077   8.618   4.117   7.445
17394SOL     OW54078   4.499  12.155   3.034
17394SOL    HW154079   4.545  12.184   2.956
17394SOL    HW254080   4.539  12.071   3.057
17395SOL     OW54081  14.847   7.282   9.502
17395SOL    HW154082   0.021   7.218   9.447
17395SOL    HW254083  14.856   7.364   9.454
17396SOL     OW54084   1.056  14.332   0.623
17396SOL    HW154085   0.987  14.281   0.664
17396SOL    HW254086   1.049  14.312   0.529
17397SOL     OW54087  11.612  11.862   6.838
17397SOL    HW154088  11.705  11.851   6.859
17397SOL    HW254089  11.571  11.877   6.923
17398SOL     OW54090   3.449   9.433  12.763
17398SOL    HW154091   3.502   9.496  12.715
17398SOL    HW254092   3.376   9.412  12.704
17399SOL     OW54093   1.744   9.640   8.746
17399SOL    HW154094   1.653   9.650   8.774
17399SOL    HW254095   1.767   9.725   8.708
17400SOL     OW54096   7.126   1.052   8.358
17400SOL    HW154097   7.098   1.105   8.433
17400SOL    HW254098   7.184   0.986   8.396
17401SOL     OW54099   0.536  11.707   3.107
17401SOL    HW154100   0.561  11.799   3.098
17401SOL    HW254101   0.515  11.697   3.200
17402SOL     OW54102   5.655  14.749  10.880
17402SOL    HW154103   5.652  14.741  10.975
17402SOL    HW254104   5.713  14.825  10.865
17403SOL     OW54105   2.115  10.831   8.929
17403SOL    HW154106   2.174  10.792   8.865
17403SOL    HW254107   2.040  10.861   8.876
17404SOL     OW54108   4.362   5.685   1.178
17404SOL    HW154109   4.347   5.744   1.104
17404SOL    HW254110   4.279   5.638   1.188
17405SOL     OW54111   7.506  14.869   8.569
17405SOL    HW154112   7.486  14.806   8.638
17405SOL    HW254113   7.598  14.853   8.549
17406SOL     OW54114   6.683  11.752   0.768
17406SOL    HW154115   6.599  11.786   0.799
17406SOL    HW254116   6.720  11.707   0.844
17407SOL     OW54117   1.462   9.988   1.290
17407SOL    HW154118   1.531  10.053   1.274
17407SOL    HW254119   1.490   9.942   1.369
17408SOL     OW54120   1.203   3.951   4.253
17408SOL    HW154121   1.173   3.906   4.331
17408SOL    HW254122   1.199   3.885   4.184
17409SOL     OW54123  11.747  13.325   1.881
17409SOL    HW154124  11.758  13.420   1.879
17409SOL    HW254125  11.728  13.305   1.973
17410SOL     OW54126   3.435  12.100   7.040
17410SOL    HW154127   3.340  12.103   7.025
17410SOL    HW254128   3.464  12.021   6.995
17411SOL     OW54129   8.002  11.080   2.507
17411SOL    HW154130   7.995  10.988   2.533
17411SOL    HW254131   7.999  11.129   2.589
17412SOL     OW54132   6.492   5.999   3.271
17412SOL    HW154133   6.462   5.927   3.327
17412SOL    HW254134   6.519   5.957   3.190
17413SOL     OW54135   0.767  14.569   0.059
17413SOL    HW154136   0.776  14.499  14.865
17413SOL    HW254137   0.857  14.595   0.078
17414SOL     OW54138   1.855  12.503   1.668
17414SOL    HW154139   1.849  12.599   1.662
17414SOL    HW254140   1.795  12.480   1.739
17415SOL     OW54141  12.927   2.408   1.672
17415SOL    HW154142  12.959   2.432   1.759
17415SOL    HW254143  12.934   2.313   1.668
17416SOL     OW54144   7.825  13.625   3.232
17416SOL    HW154145   7.843  13.706   3.184
17416SOL    HW254146   7.820  13.558   3.165
17417SOL     OW54147   0.375   7.198   4.879
17417SOL    HW154148   0.426   7.232   4.953
17417SOL    HW254149   0.301   7.153   4.920
17418SOL     OW54150   3.207   3.857   5.894
17418SOL    HW154151   3.120   3.897   5.895
17418SOL    HW254152   3.259   3.911   5.953
17419SOL     OW54153   2.843   2.881   5.248
17419SOL    HW154154   2.828   2.958   5.193
17419SOL    HW254155   2.859   2.917   5.335
17420SOL     OW54156   7.960   6.448   6.245
17420SOL    HW154157   7.972   6.515   6.312
17420SOL    HW254158   7.883   6.476   6.196
17421SOL     OW54159   0.035   7.704   7.828
17421SOL    HW154160   0.060   7.672   7.741
17421SOL    HW254161   0.048   7.799   7.823
17422SOL     OW54162  11.362  11.846   2.293
17422SOL    HW154163  11.334  11.937   2.287
17422SOL    HW254164  11.295  11.803   2.346
17423SOL     OW54165   1.787  12.462  14.296
17423SOL    HW154166   1.716  12.519  14.326
17423SOL    HW254167   1.744  12.379  14.277
17424SOL     OW54168  10.109   0.448   0.814
17424SOL    HW154169  10.204   0.457   0.824
17424SOL    HW254170  10.091   0.477   0.725
17425SOL     OW54171   3.284   6.346  13.078
17425SOL    HW154172   3.359   6.303  13.119
17425SOL    HW254173   3.244   6.397  13.149
17426SOL     OW54174   1.994   5.531   5.841
17426SOL    HW154175   1.910   5.571   5.866
17426SOL    HW254176   2.057   5.602   5.848
17427SOL     OW54177  14.438  11.945  12.835
17427SOL    HW154178  14.487  11.925  12.914
17427SOL    HW254179  14.502  11.939  12.764
17428SOL     OW54180   5.622  10.063   1.891
17428SOL    HW154181   5.656  10.144   1.928
17428SOL    HW254182   5.527  10.071   1.897
17429SOL     OW54183   8.933   8.475   5.856
17429SOL    HW154184   8.883   8.420   5.916
17429SOL    HW254185   8.944   8.558   5.901
17430SOL     OW54186   4.746  11.292   0.377
17430SOL    HW154187   4.807  11.341   0.432
17430SOL    HW254188   4.688  11.246   0.439
17431SOL     OW54189  14.023   5.669   2.871
17431SOL    HW154190  14.110   5.695   2.842
17431SOL    HW254191  14.039   5.605   2.940
17432SOL     OW54192   3.261   2.148  10.129
17432SOL    HW154193   3.184   2.135  10.184
17432SOL    HW254194   3.260   2.074  10.068
17433SOL     OW54195  13.291   1.537   3.347
17433SOL    HW154196  13.198   1.536   3.371
17433SOL    HW254197  13.337   1.511   3.426
17434SOL     OW54198  13.801   8.820   3.910
17434SOL    HW154199  13.761   8.811   3.823
17434SOL    HW254200  13.857   8.897   3.903
17435SOL     OW54201  14.711   8.533  14.653
17435SOL    HW154202  14.672   8.456  14.611
17435SOL    HW254203  14.686   8.525  14.745
17436SOL     OW54204   8.550   7.962   6.671
17436SOL    HW154205   8.539   7.994   6.761
17436SOL    HW254206   8.644   7.967   6.655
17437SOL     OW54207   4.669  10.699  12.837
17437SOL    HW154208   4.731  10.671  12.905
17437SOL    HW254209   4.691  10.644  12.761
17438SOL     OW54210  11.929   1.815   3.103
17438SOL    HW154211  11.889   1.880   3.044
17438SOL    HW254212  11.870   1.740   3.100
17439SOL     OW54213   6.791  11.294   4.385
17439SOL    HW154214   6.756  11.365   4.439
17439SOL    HW254215   6.880  11.281   4.417
17440SOL     OW54216  12.102   8.257  13.557
17440SOL    HW154217  12.057   8.290  13.479
17440SOL    HW254218  12.171   8.322  13.574
17441SOL     OW54219   0.771   9.919   6.265
17441SOL    HW154220   0.756   9.993   6.206
17441SOL    HW254221   0.734   9.947   6.349
17442SOL     OW54222   4.794  11.905  10.712
17442SOL    HW154223   4.764  11.995  10.727
17442SOL    HW254224   4.722  11.850  10.745
17443SOL     OW54225  13.493  13.596   0.588
17443SOL    HW154226  13.413  13.562   0.627
17443SOL    HW254227  13.536  13.519   0.551
17444SOL     OW54228  13.111  12.445   6.052
17444SOL    HW154229  13.155  12.452   5.967
17444SOL    HW254230  13.127  12.355   6.080
17445SOL     OW54231   4.298   3.680  11.304
17445SOL    HW154232   4.269   3.639  11.385
17445SOL    HW254233   4.343   3.760  11.331
17446SOL     OW54234   3.411  12.957   3.952
17446SOL    HW154235   3.499  12.939   3.984
17446SOL    HW254236   3.408  13.053   3.946
17447SOL     OW54237  12.480   0.064  11.051
17447SOL    HW154238  12.554   0.039  11.107
17447SOL    HW254239  12.519   0.119  10.983
17448SOL     OW54240   5.621   6.292  11.669
17448SOL    HW154241   5.649   6.239  11.595
17448SOL    HW254242   5.616   6.381  11.634
17449SOL     OW54243  14.222   0.434  10.113
17449SOL    HW154244  14.274   0.370  10.064
17449SOL    HW254245  14.132   0.415  10.089
17450SOL     OW54246   8.950  10.065  12.541
17450SOL    HW154247   8.911  10.023  12.617
17450SOL    HW254248   8.883  10.128  12.512
17451SOL     OW54249   5.439  14.273   9.712
17451SOL    HW154250   5.470  14.319   9.790
17451SOL    HW254251   5.479  14.186   9.718
17452SOL     OW54252  12.948  12.038   7.301
17452SOL    HW154253  12.899  11.961   7.330
17452SOL    HW254254  13.000  12.007   7.227
17453SOL     OW54255   9.383   3.841   5.420
17453SOL    HW154256   9.415   3.786   5.348
17453SOL    HW254257   9.450   3.908   5.431
17454SOL     OW54258   9.625  12.654   1.397
17454SOL    HW154259   9.602  12.596   1.471
17454SOL    HW254260   9.640  12.594   1.324
17455SOL     OW54261  11.647   0.176   5.220
17455SOL    HW154262  11.561   0.164   5.179
17455SOL    HW254263  11.683   0.254   5.178
17456SOL     OW54264   3.293   8.745   1.071
17456SOL    HW154265   3.348   8.670   1.049
17456SOL    HW254266   3.355   8.817   1.084
17457SOL     OW54267   2.175   6.042  13.543
17457SOL    HW154268   2.177   6.113  13.479
17457SOL    HW254269   2.212   5.967  13.496
17458SOL     OW54270  14.442  11.004  14.836
17458SOL    HW154271  14.455  10.930   0.024
17458SOL    HW254272  14.349  11.001  14.814
17459SOL     OW54273  11.026   5.247   9.327
17459SOL    HW154274  10.991   5.211   9.245
17459SOL    HW254275  11.105   5.293   9.301
17460SOL     OW54276   0.995   0.304   6.977
17460SOL    HW154277   1.071   0.290   6.920
17460SOL    HW254278   1.017   0.383   7.027
17461SOL     OW54279   7.868   5.923   9.881
17461SOL    HW154280   7.880   6.015   9.907
17461SOL    HW254281   7.782   5.921   9.839
17462SOL     OW54282   6.662   8.949   4.971
17462SOL    HW154283   6.691   8.899   4.895
17462SOL    HW254284   6.740   8.999   4.997
17463SOL     OW54285   1.952  12.567  14.500
17463SOL    HW154286   1.892  12.507  14.456
17463SOL    HW254287   2.018  12.511  14.540
17464SOL     OW54288  14.805   0.696   3.142
17464SOL    HW154289   0.018   0.732   3.117
17464SOL    HW254290  14.819   0.661   3.230
17465SOL     OW54291   0.701  12.414  10.091
17465SOL    HW154292   0.758  12.487  10.068
17465SOL    HW254293   0.625  12.424  10.035
17466SOL     OW54294   6.974   7.105  12.098
17466SOL    HW154295   7.000   7.160  12.171
17466SOL    HW254296   6.893   7.145  12.065
17467SOL     OW54297   2.887   3.597   5.803
17467SOL    HW154298   2.925   3.664   5.746
17467SOL    HW254299   2.876   3.640   5.887
17468SOL     OW54300   8.939  13.566  10.176
17468SOL    HW154301   8.955  13.474  10.196
17468SOL    HW254302   8.879  13.595  10.245
17469SOL     OW54303   8.011   6.843   6.609
17469SOL    HW154304   8.019   6.775   6.542
17469SOL    HW254305   7.954   6.805   6.676
17470SOL     OW54306   4.720   0.051   7.606
17470SOL    HW154307   4.799   0.031   7.555
17470SOL    HW254308   4.682  14.836   7.625
17471SOL     OW54309   7.419   2.627   4.045
17471SOL    HW154310   7.325   2.626   4.064
17471SOL    HW254311   7.444   2.719   4.055
17472SOL     OW54312   8.102   6.176  10.100
17472SOL    HW154313   8.157   6.122  10.157
17472SOL    HW254314   8.153   6.255  10.085
17473SOL     OW54315  12.199  10.891   0.203
17473SOL    HW154316  12.118  10.929   0.235
17473SOL    HW254317  12.268  10.933   0.255
17474SOL     OW54318  10.841   0.056   7.007
17474SOL    HW154319  10.893  14.868   7.061
17474SOL    HW254320  10.854   0.142   7.048
17475SOL     OW54321   0.824   7.008   7.776
17475SOL    HW154322   0.855   7.076   7.715
17475SOL    HW254323   0.731   6.996   7.753
17476SOL     OW54324  12.367   3.795  14.796
17476SOL    HW154325  12.286   3.783  14.747
17476SOL    HW254326  12.413   3.864  14.749
17477SOL     OW54327   5.012  13.511   6.197
17477SOL    HW154328   5.034  13.590   6.246
17477SOL    HW254329   4.927  13.531   6.156
17478SOL     OW54330   9.882  13.576   5.762
17478SOL    HW154331   9.944  13.581   5.835
17478SOL    HW254332   9.803  13.539   5.800
17479SOL     OW54333  13.507  14.256  13.524
17479SOL    HW154334  13.526  14.333  13.579
17479SOL    HW254335  13.540  14.280  13.437
17480SOL     OW54336  11.079  10.053   9.358
17480SOL    HW154337  11.140  10.108   9.406
17480SOL    HW254338  11.113   9.964   9.370
17481SOL     OW54339   7.555   9.564   1.264
17481SOL    HW154340   7.611   9.628   1.308
17481SOL    HW254341   7.503   9.524   1.334
17482SOL     OW54342   9.695   0.443   4.193
17482SOL    HW154343   9.611   0.403   4.213
17482SOL    HW254344   9.758   0.393   4.245
17483SOL     OW54345   6.757   3.481   2.945
17483SOL    HW154346   6.815   3.425   2.996
17483SOL    HW254347   6.795   3.479   2.857
17484SOL     OW54348   6.774   3.188   8.318
17484SOL    HW154349   6.755   3.230   8.402
17484SOL    HW254350   6.798   3.098   8.342
17485SOL     OW54351   9.184   4.670  11.411
17485SOL    HW154352   9.229   4.638  11.333
17485SOL    HW254353   9.092   4.647  11.396
17486SOL     OW54354   6.643   5.375   9.597
17486SOL    HW154355   6.719   5.360   9.653
17486SOL    HW254356   6.657   5.462   9.560
17487SOL     OW54357   4.013   6.948  10.591
17487SOL    HW154358   4.087   6.997  10.624
17487SOL    HW254359   3.966   6.919  10.669
17488SOL     OW54360   0.688   0.311   5.367
17488SOL    HW154361   0.780   0.291   5.346
17488SOL    HW254362   0.673   0.266   5.450
17489SOL     OW54363   3.820   2.552   3.734
17489SOL    HW154364   3.815   2.471   3.785
17489SOL    HW254365   3.752   2.542   3.667
17490SOL     OW54366  11.632  10.469   0.973
17490SOL    HW154367  11.549  10.485   1.017
17490SOL    HW254368  11.698  10.479   1.041
17491SOL     OW54369  14.355   9.351   7.754
17491SOL    HW154370  14.320   9.402   7.827
17491SOL    HW254371  14.363   9.413   7.682
17492SOL     OW54372  10.615   7.368   1.320
17492SOL    HW154373  10.596   7.292   1.375
17492SOL    HW254374  10.692   7.408   1.361
17493SOL     OW54375   0.784  13.462   9.405
17493SOL    HW154376   0.741  13.487   9.324
17493SOL    HW254377   0.767  13.368   9.414
17494SOL     OW54378   5.685   1.781   0.898
17494SOL    HW154379   5.729   1.847   0.845
17494SOL    HW254380   5.592   1.796   0.886
17495SOL     OW54381   5.217   3.002   6.229
17495SOL    HW154382   5.154   2.978   6.162
17495SOL    HW254383   5.169   3.062   6.287
17496SOL     OW54384   1.651   3.994   7.572
17496SOL    HW154385   1.730   4.009   7.622
17496SOL    HW254386   1.621   3.907   7.600
17497SOL     OW54387   0.993   2.922   6.179
17497SOL    HW154388   0.991   3.015   6.201
17497SOL    HW254389   0.903   2.893   6.188
17498SOL     OW54390   6.836   0.520  11.742
17498SOL    HW154391   6.856   0.502  11.834
17498SOL    HW254392   6.740   0.523  11.739
17499SOL     OW54393   7.147   9.820  14.106
17499SOL    HW154394   7.218   9.824  14.169
17499SOL    HW254395   7.158   9.898  14.052
17500SOL     OW54396   5.667   1.948   6.566
17500SOL    HW154397   5.702   1.993   6.643
17500SOL    HW254398   5.731   1.880   6.546
17501SOL     OW54399   4.032   7.200  10.034
17501SOL    HW154400   4.002   7.111  10.016
17501SOL    HW254401   4.019   7.247   9.952
17502SOL     OW54402   5.604  13.872  13.010
17502SOL    HW154403   5.654  13.791  13.016
17502SOL    HW254404   5.524  13.848  12.963
17503SOL     OW54405   6.092  10.965   5.453
17503SOL    HW154406   6.182  10.995   5.448
17503SOL    HW254407   6.078  10.917   5.371
17504SOL     OW54408   7.050   6.055   8.696
17504SOL    HW154409   7.077   6.070   8.605
17504SOL    HW254410   7.075   5.964   8.714
17505SOL     OW54411  13.360   3.322   6.307
17505SOL    HW154412  13.374   3.381   6.233
17505SOL    HW254413  13.428   3.346   6.370
17506SOL     OW54414   0.198   5.956  13.650
17506SOL    HW154415   0.124   5.898  13.667
17506SOL    HW254416   0.275   5.898  13.649
17507SOL     OW54417  11.058   9.453  11.578
17507SOL    HW154418  11.094   9.461  11.489
17507SOL    HW254419  10.967   9.482  11.570
17508SOL     OW54420  11.936   1.109  14.815
17508SOL    HW154421  12.019   1.115  14.862
17508SOL    HW254422  11.887   1.042  14.862
17509SOL     OW54423  13.801   3.708   7.953
17509SOL    HW154424  13.755   3.768   8.012
17509SOL    HW254425  13.788   3.622   7.992
17510SOL     OW54426  14.230   9.458  12.607
17510SOL    HW154427  14.306   9.512  12.586
17510SOL    HW254428  14.182   9.508  12.673
17511SOL     OW54429  10.472  11.165   9.099
17511SOL    HW154430  10.556  11.120   9.091
17511SOL    HW254431  10.486  11.229   9.170
17512SOL     OW54432   9.219  14.469   3.499
17512SOL    HW154433   9.186  14.379   3.495
17512SOL    HW254434   9.314  14.460   3.488
17513SOL     OW54435   0.966  10.275   9.740
17513SOL    HW154436   0.886  10.252   9.787
17513SOL    HW254437   0.986  10.364   9.768
17514SOL     OW54438   5.289   5.410   2.198
17514SOL    HW154439   5.228   5.473   2.237
17514SOL    HW254440   5.237   5.331   2.186
17515SOL     OW54441   1.866   5.066   9.862
17515SOL    HW154442   1.780   5.097   9.836
17515SOL    HW254443   1.896   5.129   9.928
17516SOL     OW54444   0.203  10.140   0.569
17516SOL    HW154445   0.216  10.231   0.542
17516SOL    HW254446   0.116  10.139   0.608
17517SOL     OW54447   8.645  12.643  11.610
17517SOL    HW154448   8.560  12.670  11.643
17517SOL    HW254449   8.632  12.632  11.515
17518SOL     OW54450  10.087  11.074   7.386
17518SOL    HW154451  10.029  11.149   7.401
17518SOL    HW254452  10.175  11.111   7.381
17519SOL     OW54453   2.507   2.963   4.041
17519SOL    HW154454   2.568   2.991   4.110
17519SOL    HW254455   2.437   2.918   4.088
17520SOL     OW54456   4.474   5.631   5.773
17520SOL    HW154457   4.429   5.628   5.857
17520SOL    HW254458   4.457   5.546   5.733
17521SOL     OW54459  14.523   0.576   1.614
17521SOL    HW154460  14.504   0.482   1.611
17521SOL    HW254461  14.447   0.614   1.660
17522SOL     OW54462  10.656   7.436   6.713
17522SOL    HW154463  10.585   7.445   6.649
17522SOL    HW254464  10.616   7.388   6.786
17523SOL     OW54465   0.582   4.457   8.847
17523SOL    HW154466   0.497   4.413   8.848
17523SOL    HW254467   0.562   4.550   8.841
17524SOL     OW54468   3.023  14.368   3.307
17524SOL    HW154469   3.090  14.319   3.355
17524SOL    HW254470   3.057  14.457   3.301
17525SOL     OW54471   1.911   3.962   6.344
17525SOL    HW154472   1.913   3.881   6.394
17525SOL    HW254473   1.951   4.027   6.402
17526SOL     OW54474   4.708  12.190   2.032
17526SOL    HW154475   4.663  12.166   1.951
17526SOL    HW254476   4.638  12.219   2.091
17527SOL     OW54477   1.688   0.567  12.174
17527SOL    HW154478   1.762   0.516  12.205
17527SOL    HW254479   1.697   0.566  12.078
17528SOL     OW54480  11.490  14.243  13.451
17528SOL    HW154481  11.456  14.249  13.362
17528SOL    HW254482  11.414  14.258  13.507
17529SOL     OW54483  13.992   9.578   0.267
17529SOL    HW154484  14.076   9.549   0.302
17529SOL    HW254485  13.942   9.607   0.344
17530SOL     OW54486  14.290   3.374   4.105
17530SOL    HW154487  14.370   3.376   4.051
17530SOL    HW254488  14.322   3.354   4.193
17531SOL     OW54489   1.303   2.792   9.439
17531SOL    HW154490   1.342   2.755   9.517
17531SOL    HW254491   1.299   2.719   9.377
17532SOL     OW54492  14.278  11.613   5.039
17532SOL    HW154493  14.339  11.667   5.088
17532SOL    HW254494  14.255  11.542   5.098
17533SOL     OW54495   1.747   8.140   2.200
17533SOL    HW154496   1.719   8.079   2.269
17533SOL    HW254497   1.670   8.151   2.144
17534SOL     OW54498   5.457  14.838   3.506
17534SOL    HW154499   5.513  14.844   3.584
17534SOL    HW254500   5.377  14.797   3.537
17535SOL     OW54501   7.806   4.907   0.069
17535SOL    HW154502   7.814   4.818   0.034
17535SOL    HW254503   7.891   4.947   0.051
17536SOL     OW54504   7.122  13.491   0.165
17536SOL    HW154505   7.119  13.494   0.070
17536SOL    HW254506   7.036  13.524   0.192
17537SOL     OW54507  13.672   6.339   7.365
17537SOL    HW154508  13.681   6.256   7.412
17537SOL    HW254509  13.680   6.315   7.273
17538SOL     OW54510   3.900   5.414   2.329
17538SOL    HW154511   3.924   5.470   2.255
17538SOL    HW254512   3.814   5.379   2.304
17539SOL     OW54513   5.094   9.571  12.402
17539SOL    HW154514   5.189   9.582  12.396
17539SOL    HW254515   5.075   9.497  12.345
17540SOL     OW54516  12.065  12.534   3.947
17540SOL    HW154517  12.149  12.527   3.992
17540SOL    HW254518  12.087  12.529   3.854
17541SOL     OW54519   4.404  13.425   4.887
17541SOL    HW154520   4.464  13.396   4.955
17541SOL    HW254521   4.317  13.412   4.925
17542SOL     OW54522  12.230   5.763   5.208
17542SOL    HW154523  12.200   5.847   5.245
17542SOL    HW254524  12.315   5.783   5.170
17543SOL     OW54525   0.928   7.245   8.565
17543SOL    HW154526   1.013   7.225   8.604
17543SOL    HW254527   0.883   7.296   8.632
17544SOL     OW54528   6.533   1.154   7.655
17544SOL    HW154529   6.475   1.088   7.694
17544SOL    HW254530   6.536   1.224   7.720
17545SOL     OW54531  11.711   2.866   7.779
17545SOL    HW154532  11.784   2.883   7.838
17545SOL    HW254533  11.738   2.903   7.695
17546SOL     OW54534  11.790   4.226   4.611
17546SOL    HW154535  11.833   4.227   4.525
17546SOL    HW254536  11.822   4.305   4.655
17547SOL     OW54537   8.045  12.340   1.855
17547SOL    HW154538   8.115  12.402   1.879
17547SOL    HW254539   8.002  12.320   1.938
17548SOL     OW54540   9.580   8.159   2.677
17548SOL    HW154541   9.530   8.170   2.596
17548SOL    HW254542   9.659   8.111   2.650
17549SOL     OW54543   8.855  11.794   2.768
17549SOL    HW154544   8.883  11.842   2.846
17549SOL    HW254545   8.870  11.702   2.790
17550SOL     OW54546  13.181   6.518   0.896
17550SOL    HW154547  13.160   6.519   0.803
17550SOL    HW254548  13.119   6.455   0.934
17551SOL     OW54549  13.569   9.693  10.373
17551SOL    HW154550  13.553   9.600  10.388
17551SOL    HW254551  13.497   9.737  10.417
17552SOL     OW54552   3.093   7.019   8.839
17552SOL    HW154553   3.181   7.009   8.875
17552SOL    HW254554   3.075   7.113   8.844
17553SOL     OW54555  13.735   8.552   4.414
17553SOL    HW154556  13.748   8.629   4.469
17553SOL    HW254557  13.722   8.480   4.476
17554SOL     OW54558   7.297  14.458   9.346
17554SOL    HW154559   7.354  14.381   9.345
17554SOL    HW254560   7.343  14.521   9.290
17555SOL     OW54561   9.623   8.195   2.937
17555SOL    HW154562   9.688   8.266   2.932
17555SOL    HW254563   9.600   8.178   2.846
17556SOL     OW54564   3.036   4.854  11.357
17556SOL    HW154565   2.984   4.933  11.372
17556SOL    HW254566   3.012   4.825  11.269
17557SOL     OW54567   8.676  13.630  14.346
17557SOL    HW154568   8.731  13.581  14.285
17557SOL    HW254569   8.666  13.716  14.305
17558SOL     OW54570  10.515   5.576  13.837
17558SOL    HW154571  10.429   5.589  13.797
17558SOL    HW254572  10.577   5.602  13.769
17559SOL     OW54573   8.966   1.875   9.154
17559SOL    HW154574   8.919   1.820   9.218
17559SOL    HW254575   8.912   1.953   9.145
17560SOL     OW54576  10.594   0.517   3.798
17560SOL    HW154577  10.566   0.426   3.804
17560SOL    HW254578  10.686   0.515   3.824
17561SOL     OW54579  12.894  10.366   7.083
17561SOL    HW154580  12.947  10.446   7.080
17561SOL    HW254581  12.916  10.320   7.002
17562SOL     OW54582  13.988   7.805   7.008
17562SOL    HW154583  13.979   7.850   7.092
17562SOL    HW254584  13.916   7.742   7.007
17563SOL     OW54585  11.595   3.884  11.007
17563SOL    HW154586  11.610   3.814  10.943
17563SOL    HW254587  11.625   3.963  10.963
17564SOL     OW54588  14.084   5.063  13.192
17564SOL    HW154589  14.028   5.140  13.205
17564SOL    HW254590  14.105   5.065  13.099
17565SOL     OW54591   0.129  10.229   1.933
17565SOL    HW154592   0.179  10.294   1.884
17565SOL    HW254593   0.185  10.152   1.935
17566SOL     OW54594  11.686   0.833   5.885
17566SOL    HW154595  11.597   0.846   5.854
17566SOL    HW254596  11.691   0.739   5.905
17567SOL     OW54597  12.530   3.942   8.792
17567SOL    HW154598  12.531   4.006   8.721
17567SOL    HW254599  12.529   3.857   8.748
17568SOL     OW54600  10.954  11.351   6.867
17568SOL    HW154601  10.946  11.446   6.882
17568SOL    HW254602  11.045  11.331   6.889
17569SOL     OW54603   9.793   4.275   2.359
17569SOL    HW154604   9.781   4.331   2.282
17569SOL    HW254605   9.887   4.268   2.370
17570SOL     OW54606   0.998   1.879   1.820
17570SOL    HW154607   1.071   1.832   1.860
17570SOL    HW254608   0.922   1.855   1.873
17571SOL     OW54609   3.818   9.437   5.566
17571SOL    HW154610   3.891   9.431   5.628
17571SOL    HW254611   3.752   9.377   5.601
17572SOL     OW54612  12.888   2.463   7.230
17572SOL    HW154613  12.979   2.432   7.229
17572SOL    HW254614  12.885   2.531   7.163
17573SOL     OW54615  11.589   8.859  12.031
17573SOL    HW154616  11.508   8.829  11.989
17573SOL    HW254617  11.586   8.954  12.023
17574SOL     OW54618   2.516   8.986  12.246
17574SOL    HW154619   2.557   9.030  12.171
17574SOL    HW254620   2.471   9.055  12.293
17575SOL     OW54621  12.669   8.308   5.889
17575SOL    HW154622  12.712   8.267   5.964
17575SOL    HW254623  12.598   8.248   5.866
17576SOL     OW54624  13.717   2.164   5.481
17576SOL    HW154625  13.781   2.231   5.505
17576SOL    HW254626  13.633   2.209   5.483
17577SOL     OW54627  11.745   5.442   7.774
17577SOL    HW154628  11.679   5.499   7.813
17577SOL    HW254629  11.711   5.421   7.688
17578SOL     OW54630  11.667   7.638  10.094
17578SOL    HW154631  11.588   7.674  10.054
17578SOL    HW254632  11.692   7.565  10.037
17579SOL     OW54633  11.227   0.056   0.891
17579SOL    HW154634  11.150   0.113   0.893
17579SOL    HW254635  11.272   0.078   0.810
17580SOL     OW54636  12.178   3.309   2.034
17580SOL    HW154637  12.215   3.332   1.949
17580SOL    HW254638  12.093   3.270   2.013
17581SOL     OW54639  13.446   1.767   3.962
17581SOL    HW154640  13.521   1.742   3.907
17581SOL    HW254641  13.451   1.862   3.968
17582SOL     OW54642  11.530  12.276  14.759
17582SOL    HW154643  11.530  12.328  14.679
17582SOL    HW254644  11.604  12.216  14.748
17583SOL     OW54645  14.665   9.142  13.454
17583SOL    HW154646  14.658   9.142  13.358
17583SOL    HW254647  14.578   9.167  13.485
17584SOL     OW54648   7.661   5.211  11.902
17584SOL    HW154649   7.752   5.189  11.918
17584SOL    HW254650   7.664   5.277  11.833
17585SOL     OW54651  11.644   8.536   2.406
17585SOL    HW154652  11.572   8.488   2.365
17585SOL    HW254653  11.681   8.589   2.336
17586SOL     OW54654  10.626   3.080  14.058
17586SOL    HW154655  10.674   3.143  14.004
17586SOL    HW254656  10.541   3.120  14.073
17587SOL     OW54657   5.384  12.934   0.730
17587SOL    HW154658   5.444  12.913   0.658
17587SOL    HW254659   5.438  12.928   0.809
17588SOL     OW54660  11.509   6.845   1.614
17588SOL    HW154661  11.487   6.903   1.687
17588SOL    HW254662  11.535   6.763   1.656
17589SOL     OW54663   3.986  13.308  14.636
17589SOL    HW154664   4.018  13.223  14.606
17589SOL    HW254665   4.066  13.361  14.644
17590SOL     OW54666  12.017  11.642   9.829
17590SOL    HW154667  11.929  11.680   9.834
17590SOL    HW254668  12.004  11.549   9.844
17591SOL     OW54669  11.927   4.544   9.338
17591SOL    HW154670  11.865   4.472   9.347
17591SOL    HW254671  11.874   4.618   9.308
17592SOL     OW54672  14.568   0.009   6.719
17592SOL    HW154673  14.569  14.793   6.680
17592SOL    HW254674  14.506   0.058   6.664
17593SOL     OW54675   0.649  14.773   5.876
17593SOL    HW154676   0.629  14.682   5.856
17593SOL    HW254677   0.738  14.786   5.845
17594SOL     OW54678   9.755   6.049  11.220
17594SOL    HW154679   9.848   6.065  11.201
17594SOL    HW254680   9.749   5.954  11.232
17595SOL     OW54681  11.343   5.847   6.884
17595SOL    HW154682  11.412   5.880   6.942
17595SOL    HW254683  11.295   5.785   6.939
17596SOL     OW54684   1.990   1.981   4.110
17596SOL    HW154685   2.039   1.912   4.156
17596SOL    HW254686   2.058   2.040   4.077
17597SOL     OW54687   1.734   8.135  10.003
17597SOL    HW154688   1.827   8.156   9.995
17597SOL    HW254689   1.731   8.040  10.012
17598SOL     OW54690   9.639   3.591   9.630
17598SOL    HW154691   9.545   3.577   9.644
17598SOL    HW254692   9.659   3.670   9.680
17599SOL     OW54693  14.683  13.802  11.106
17599SOL    HW154694  14.756  13.813  11.166
17599SOL    HW254695  14.647  13.890  11.096
17600SOL     OW54696   1.889   2.350   5.277
17600SOL    HW154697   1.973   2.365   5.233
17600SOL    HW254698   1.913   2.306   5.359
17601SOL     OW54699  14.341  11.954   0.565
17601SOL    HW154700  14.368  11.870   0.527
17601SOL    HW254701  14.246  11.954   0.558
17602SOL     OW54702  13.070   5.436   3.252
17602SOL    HW154703  13.145   5.494   3.240
17602SOL    HW254704  13.042   5.451   3.342
17603SOL     OW54705   4.557  11.282   0.817
17603SOL    HW154706   4.516  11.369   0.816
17603SOL    HW254707   4.634  11.292   0.760
17604SOL     OW54708   2.271   7.196   3.960
17604SOL    HW154709   2.202   7.195   4.027
17604SOL    HW254710   2.343   7.147   3.999
17605SOL     OW54711  10.332   7.286   0.653
17605SOL    HW154712  10.350   7.359   0.712
17605SOL    HW254713  10.386   7.304   0.576
17606SOL     OW54714   8.849  10.452  14.183
17606SOL    HW154715   8.885  10.541  14.182
17606SOL    HW254716   8.756  10.464  14.198
17607SOL     OW54717  12.158   5.869   1.621
17607SOL    HW154718  12.142   5.905   1.534
17607SOL    HW254719  12.234   5.918   1.654
17608SOL     OW54720  14.157   2.202   6.551
17608SOL    HW154721  14.188   2.237   6.468
17608SOL    HW254722  14.080   2.150   6.528
17609SOL     OW54723  14.488  13.627  13.179
17609SOL    HW154724  14.555  13.694  13.189
17609SOL    HW254725  14.533  13.545  13.201
17610SOL     OW54726   1.827   0.969   6.245
17610SOL    HW154727   1.874   0.899   6.290
17610SOL    HW254728   1.775   0.923   6.179
17611SOL     OW54729   1.107   6.143   2.600
17611SOL    HW154730   1.092   6.160   2.693
17611SOL    HW254731   1.199   6.118   2.595
17612SOL     OW54732   0.802   8.008   5.850
17612SOL    HW154733   0.727   8.007   5.909
17612SOL    HW254734   0.802   7.921   5.810
17613SOL     OW54735  12.272  12.221   7.114
17613SOL    HW154736  12.365  12.244   7.110
17613SOL    HW254737  12.235  12.284   7.177
17614SOL     OW54738  13.063   7.815   9.250
17614SOL    HW154739  12.974   7.815   9.286
17614SOL    HW254740  13.105   7.891   9.289
17615SOL     OW54741  13.065   2.272  12.397
17615SOL    HW154742  13.115   2.193  12.378
17615SOL    HW254743  13.034   2.261  12.487
17616SOL     OW54744   2.676   7.867   3.563
17616SOL    HW154745   2.654   7.855   3.656
17616SOL    HW254746   2.600   7.913   3.527
17617SOL     OW54747  11.237  11.054   3.787
17617SOL    HW154748  11.290  10.985   3.829
17617SOL    HW254749  11.220  11.020   3.699
17618SOL     OW54750   3.121   4.632  10.970
17618SOL    HW154751   3.077   4.653  11.052
17618SOL    HW254752   3.054   4.587  10.918
17619SOL     OW54753  11.091  14.574   6.908
17619SOL    HW154754  11.066  14.485   6.933
17619SOL    HW254755  11.051  14.587   6.822
17620SOL     OW54756   8.317   7.108   2.799
17620SOL    HW154757   8.394   7.154   2.767
17620SOL    HW254758   8.290   7.156   2.877
17621SOL     OW54759   0.658  11.894   6.851
17621SOL    HW154760   0.721  11.962   6.875
17621SOL    HW254761   0.679  11.874   6.760
17622SOL     OW54762  11.308  10.757   7.646
17622SOL    HW154763  11.364  10.829   7.618
17622SOL    HW254764  11.240  10.752   7.579
17623SOL     OW54765   4.114   4.316   6.093
17623SOL    HW154766   4.080   4.336   6.181
17623SOL    HW254767   4.162   4.234   6.104
17624SOL     OW54768   6.524   9.471  12.923
17624SOL    HW154769   6.467   9.400  12.954
17624SOL    HW254770   6.567   9.435  12.845
17625SOL     OW54771  11.944   8.816  14.310
17625SOL    HW154772  12.020   8.766  14.339
17625SOL    HW254773  11.967   8.848  14.224
17626SOL     OW54774   4.720   8.077   3.270
17626SOL    HW154775   4.721   7.982   3.286
17626SOL    HW254776   4.773   8.114   3.340
17627SOL     OW54777   2.088  13.152   6.384
17627SOL    HW154778   2.097  13.182   6.474
17627SOL    HW254779   2.171  13.109   6.364
17628SOL     OW54780  12.690   9.622   4.056
17628SOL    HW154781  12.745   9.604   3.980
17628SOL    HW254782  12.606   9.582   4.035
17629SOL     OW54783   0.845   3.862  13.420
17629SOL    HW154784   0.891   3.935  13.461
17629SOL    HW254785   0.896   3.785  13.444
17630SOL     OW54786   1.804   0.703  13.110
17630SOL    HW154787   1.880   0.682  13.165
17630SOL    HW254788   1.838   0.764  13.045
17631SOL     OW54789   3.466   7.716   7.669
17631SOL    HW154790   3.432   7.753   7.587
17631SOL    HW254791   3.528   7.783   7.700
17632SOL     OW54792   4.115  13.705   4.657
17632SOL    HW154793   4.192  13.680   4.708
17632SOL    HW254794   4.054  13.740   4.722
17633SOL     OW54795   1.557   5.992  12.539
17633SOL    HW154796   1.471   5.951  12.537
17633SOL    HW254797   1.606   5.948  12.469
17634SOL     OW54798   2.833   3.596  11.337
17634SOL    HW154799   2.802   3.635  11.255
17634SOL    HW254800   2.768   3.623  11.402
17635SOL     OW54801  13.843  11.009   5.329
17635SOL    HW154802  13.885  10.923   5.323
17635SOL    HW254803  13.804  11.022   5.242
17636SOL     OW54804   9.277   9.062   8.458
17636SOL    HW154805   9.245   8.988   8.407
17636SOL    HW254806   9.234   9.054   8.543
17637SOL     OW54807  13.722   4.618   8.903
17637SOL    HW154808  13.707   4.585   8.991
17637SOL    HW254809  13.643   4.669   8.882
17638SOL     OW54810  13.748   2.656  10.395
17638SOL    HW154811  13.703   2.730  10.436
17638SOL    HW254812  13.720   2.579  10.445
17639SOL     OW54813  14.519   2.173   7.739
17639SOL    HW154814  14.528   2.090   7.785
17639SOL    HW254815  14.455   2.222   7.790
17640SOL     OW54816   0.953   4.552   8.864
17640SOL    HW154817   0.944   4.603   8.945
17640SOL    HW254818   0.884   4.587   8.806
17641SOL     OW54819  14.355  11.955   9.815
17641SOL    HW154820  14.434  11.923   9.860
17641SOL    HW254821  14.388  12.017   9.750
17642SOL     OW54822  12.146   2.766   6.963
17642SOL    HW154823  12.111   2.845   7.004
17642SOL    HW254824  12.072   2.705   6.960
17643SOL     OW54825   9.944   4.398   0.956
17643SOL    HW154826   9.913   4.346   1.031
17643SOL    HW254827   9.875   4.463   0.942
17644SOL     OW54828   9.799  13.097  11.217
17644SOL    HW154829   9.863  13.033  11.186
17644SOL    HW254830   9.714  13.058  11.197
17645SOL     OW54831  10.812   3.470   8.281
17645SOL    HW154832  10.820   3.512   8.367
17645SOL    HW254833  10.798   3.543   8.220
17646SOL     OW54834   7.513   2.290   7.967
17646SOL    HW154835   7.538   2.214   8.019
17646SOL    HW254836   7.493   2.255   7.880
17647SOL     OW54837   0.965   1.899   3.980
17647SOL    HW154838   1.052   1.864   3.963
17647SOL    HW254839   0.915   1.880   3.901
17648SOL     OW54840   6.997  11.833   3.580
17648SOL    HW154841   6.930  11.770   3.554
17648SOL    HW254842   6.953  11.892   3.641
17649SOL     OW54843   9.171   5.867   6.619
17649SOL    HW154844   9.182   5.922   6.541
17649SOL    HW254845   9.261   5.840   6.641
17650SOL     OW54846   0.251  12.620  10.462
17650SOL    HW154847   0.181  12.672  10.502
17650SOL    HW254848   0.251  12.647  10.370
17651SOL     OW54849   3.597   4.503  13.010
17651SOL    HW154850   3.684   4.464  13.016
17651SOL    HW254851   3.548   4.464  13.082
17652SOL     OW54852   9.605   8.120   1.067
17652SOL    HW154853   9.656   8.138   0.988
17652SOL    HW254854   9.666   8.134   1.139
17653SOL     OW54855   3.666  11.791  11.528
17653SOL    HW154856   3.651  11.875  11.485
17653SOL    HW254857   3.579  11.762  11.556
17654SOL     OW54858   5.364   0.031   7.148
17654SOL    HW154859   5.433  14.840   7.170
17654SOL    HW254860   5.399   0.116   7.176
17655SOL     OW54861  12.133   0.077   0.248
17655SOL    HW154862  12.185   0.107   0.174
17655SOL    HW254863  12.085   0.154   0.277
17656SOL     OW54864  13.313  13.466   6.316
17656SOL    HW154865  13.302  13.534   6.249
17656SOL    HW254866  13.375  13.404   6.277
17657SOL     OW54867  14.019   3.047  13.413
17657SOL    HW154868  13.979   3.134  13.414
17657SOL    HW254869  14.107   3.060  13.449
17658SOL     OW54870   3.065   8.607  10.725
17658SOL    HW154871   2.999   8.674  10.708
17658SOL    HW254872   3.040   8.569  10.809
17659SOL     OW54873   7.046   2.512  12.740
17659SOL    HW154874   7.045   2.596  12.785
17659SOL    HW254875   7.062   2.534  12.648
17660SOL     OW54876   3.193  14.442   0.822
17660SOL    HW154877   3.100  14.446   0.799
17660SOL    HW254878   3.206  14.354   0.856
17661SOL     OW54879  10.631   4.976   4.816
17661SOL    HW154880  10.623   5.067   4.845
17661SOL    HW254881  10.725   4.962   4.805
17662SOL     OW54882   8.458   5.574   6.920
17662SOL    HW154883   8.441   5.522   6.842
17662SOL    HW254884   8.376   5.574   6.968
17663SOL     OW54885   3.594   0.664   3.766
17663SOL    HW154886   3.537   0.634   3.837
17663SOL    HW254887   3.669   0.703   3.811
17664SOL     OW54888   7.303   0.147   4.945
17664SOL    HW154889   7.381   0.108   4.985
17664SOL    HW254890   7.338   0.208   4.880
17665SOL     OW54891   0.360   2.747   8.173
17665SOL    HW154892   0.363   2.727   8.080
17665SOL    HW254893   0.421   2.685   8.213
17666SOL     OW54894   2.047   5.482  10.422
17666SOL    HW154895   2.082   5.555  10.472
17666SOL    HW254896   2.122   5.452  10.370
17667SOL     OW54897  12.410   7.803  13.498
17667SOL    HW154898  12.389   7.813  13.591
17667SOL    HW254899  12.504   7.817  13.493
17668SOL     OW54900  10.803  13.453  12.555
17668SOL    HW154901  10.850  13.382  12.510
17668SOL    HW254902  10.799  13.424  12.646
17669SOL     OW54903   9.940   8.365  11.626
17669SOL    HW154904  10.026   8.403  11.605
17669SOL    HW254905   9.901   8.345  11.542
17670SOL     OW54906   0.016  13.334   4.259
17670SOL    HW154907  14.853  13.342   4.347
17670SOL    HW254908   0.110  13.348   4.268
17671SOL     OW54909   9.536  11.936  13.080
17671SOL    HW154910   9.442  11.952  13.077
17671SOL    HW254911   9.552  11.874  13.009
17672SOL     OW54912   8.656  10.135   6.213
17672SOL    HW154913   8.616  10.162   6.131
17672SOL    HW254914   8.682  10.044   6.199
17673SOL     OW54915   2.406   5.118   6.801
17673SOL    HW154916   2.358   5.041   6.832
17673SOL    HW254917   2.432   5.095   6.711
17674SOL     OW54918  14.186   6.874   8.431
17674SOL    HW154919  14.139   6.821   8.494
17674SOL    HW254920  14.258   6.818   8.401
17675SOL     OW54921   3.022   7.941  12.294
17675SOL    HW154922   2.951   7.988  12.338
17675SOL    HW254923   3.015   7.851  12.326
17676SOL     OW54924   3.600  10.358  11.560
17676SOL    HW154925   3.572  10.287  11.503
17676SOL    HW254926   3.695  10.360  11.551
17677SOL     OW54927   2.782  10.887   1.370
17677SOL    HW154928   2.852  10.823   1.385
17677SOL    HW254929   2.735  10.890   1.453
17678SOL     OW54930  13.001   1.375   3.181
17678SOL    HW154931  12.991   1.469   3.165
17678SOL    HW254932  13.039   1.370   3.269
17679SOL     OW54933  14.780   2.571   1.571
17679SOL    HW154934  14.823   2.599   1.491
17679SOL    HW254935  14.844   2.516   1.615
17680SOL     OW54936   0.124   4.955  13.516
17680SOL    HW154937   0.073   4.891  13.466
17680SOL    HW254938   0.185   4.903  13.568
17681SOL     OW54939   2.212   5.310  12.122
17681SOL    HW154940   2.119   5.322  12.145
17681SOL    HW254941   2.240   5.235  12.174
17682SOL     OW54942   5.233   6.668  10.128
17682SOL    HW154943   5.231   6.762  10.147
17682SOL    HW254944   5.325   6.650  10.108
17683SOL     OW54945  14.781   7.666  14.756
17683SOL    HW154946  14.769   7.599  14.823
17683SOL    HW254947  14.701   7.718  14.760
17684SOL     OW54948  11.127   7.070   7.992
17684SOL    HW154949  11.171   7.145   7.954
17684SOL    HW254950  11.194   7.028   8.047
17685SOL     OW54951   8.224   5.790   6.050
17685SOL    HW154952   8.215   5.757   5.961
17685SOL    HW254953   8.199   5.882   6.044
17686SOL     OW54954  13.862  10.799   9.446
17686SOL    HW154955  13.859  10.807   9.542
17686SOL    HW254956  13.836  10.709   9.429
17687SOL     OW54957   4.903   8.647  10.735
17687SOL    HW154958   4.995   8.671  10.745
17687SOL    HW254959   4.870   8.641  10.825
17688SOL     OW54960  11.747   1.462   6.825
17688SOL    HW154961  11.655   1.488   6.822
17688SOL    HW254962  11.754   1.390   6.763
17689SOL     OW54963  12.174   7.957   3.874
17689SOL    HW154964  12.205   7.897   3.942
17689SOL    HW254965  12.188   7.910   3.792
17690SOL     OW54966  12.905   6.363  14.193
17690SOL    HW154967  12.873   6.298  14.130
17690SOL    HW254968  12.884   6.326  14.279
17691SOL     OW54969   0.226  12.003   7.036
17691SOL    HW154970   0.309  11.956   7.045
17691SOL    HW254971   0.196  12.015   7.126
17692SOL     OW54972   7.226   3.736   1.323
17692SOL    HW154973   7.153   3.713   1.381
17692SOL    HW254974   7.248   3.654   1.278
17693SOL     OW54975  10.193   8.273   8.881
17693SOL    HW154976  10.171   8.245   8.970
17693SOL    HW254977  10.282   8.240   8.866
17694SOL     OW54978   6.196   3.663  12.324
17694SOL    HW154979   6.124   3.644  12.264
17694SOL    HW254980   6.269   3.686  12.267
17695SOL     OW54981   1.057   4.783   1.306
17695SOL    HW154982   1.110   4.797   1.227
17695SOL    HW254983   0.971   4.758   1.272
17696SOL     OW54984   7.714   5.612   2.230
17696SOL    HW154985   7.633   5.616   2.281
17696SOL    HW254986   7.782   5.642   2.290
17697SOL     OW54987   8.704  13.650  10.295
17697SOL    HW154988   8.629  13.668  10.240
17697SOL    HW254989   8.677  13.677  10.383
17698SOL     OW54990   5.031  10.274  14.264
17698SOL    HW154991   5.001  10.185  14.243
17698SOL    HW254992   5.035  10.318  14.179
17699SOL     OW54993   7.487  11.425   7.174
17699SOL    HW154994   7.572  11.451   7.208
17699SOL    HW254995   7.497  11.427   7.078
17700SOL     OW54996   9.509   0.466  13.270
17700SOL    HW154997   9.416   0.446  13.280
17700SOL    HW254998   9.515   0.561  13.274
17701SOL     OW54999   8.356   5.771   1.676
17701SOL    HW155000   8.426   5.818   1.721
17701SOL    HW255001   8.304   5.839   1.634
17702SOL     OW55002  12.332   7.799   0.450
17702SOL    HW155003  12.396   7.845   0.505
17702SOL    HW255004  12.351   7.828   0.361
17703SOL     OW55005   6.741   8.241   9.829
17703SOL    HW155006   6.827   8.218   9.794
17703SOL    HW255007   6.749   8.229   9.923
17704SOL     OW55008   2.556   1.843   0.882
17704SOL    HW155009   2.476   1.831   0.831
17704SOL    HW255010   2.573   1.937   0.878
17705SOL     OW55011   8.051  12.675   2.100
17705SOL    HW155012   7.959  12.699   2.113
17705SOL    HW255013   8.100  12.750   2.134
17706SOL     OW55014   2.176   9.886   2.827
17706SOL    HW155015   2.212   9.960   2.779
17706SOL    HW255016   2.190   9.811   2.769
17707SOL     OW55017   1.622   2.464   3.737
17707SOL    HW155018   1.556   2.532   3.746
17707SOL    HW255019   1.586   2.389   3.785
17708SOL     OW55020   7.052   9.132  14.481
17708SOL    HW155021   7.075   9.039  14.474
17708SOL    HW255022   7.090   9.160  14.564
17709SOL     OW55023  10.255   0.127  13.949
17709SOL    HW155024  10.290   0.044  13.915
17709SOL    HW255025  10.329   0.188  13.943
17710SOL     OW55026   8.957   1.702  14.075
17710SOL    HW155027   8.918   1.616  14.059
17710SOL    HW255028   8.886   1.753  14.115
17711SOL     OW55029   3.358   3.941   6.093
17711SOL    HW155030   3.321   4.007   6.151
17711SOL    HW255031   3.419   3.892   6.148
17712SOL     OW55032   3.691   4.869   8.392
17712SOL    HW155033   3.701   4.901   8.302
17712SOL    HW255034   3.759   4.915   8.441
17713SOL     OW55035  10.327   9.477   6.328
17713SOL    HW155036  10.347   9.438   6.413
17713SOL    HW255037  10.402   9.455   6.272
17714SOL     OW55038   0.891   5.297   6.156
17714SOL    HW155039   0.818   5.311   6.216
17714SOL    HW255040   0.856   5.240   6.088
17715SOL     OW55041   0.463   3.303   7.905
17715SOL    HW155042   0.554   3.330   7.888
17715SOL    HW255043   0.411   3.380   7.885
17716SOL     OW55044  11.685  11.628   7.872
17716SOL    HW155045  11.723  11.704   7.917
17716SOL    HW255046  11.597  11.621   7.908
17717SOL     OW55047  13.574   2.722  10.083
17717SOL    HW155048  13.495   2.685  10.124
17717SOL    HW255049  13.646   2.674  10.124
17718SOL     OW55050   0.896   1.689  13.554
17718SOL    HW155051   0.857   1.742  13.484
17718SOL    HW255052   0.923   1.753  13.619
17719SOL     OW55053   0.550  11.247   8.625
17719SOL    HW155054   0.499  11.309   8.677
17719SOL    HW255055   0.589  11.187   8.690
17720SOL     OW55056   4.581   4.816   6.417
17720SOL    HW155057   4.607   4.884   6.355
17720SOL    HW255058   4.579   4.736   6.365
17721SOL     OW55059   0.404   9.497  10.897
17721SOL    HW155060   0.470   9.555  10.937
17721SOL    HW255061   0.405   9.418  10.951
17722SOL     OW55062   4.648   6.491   9.700
17722SOL    HW155063   4.668   6.399   9.682
17722SOL    HW255064   4.699   6.540   9.635
17723SOL     OW55065   8.958   4.291   0.355
17723SOL    HW155066   8.870   4.292   0.318
17723SOL    HW255067   8.996   4.375   0.328
17724SOL     OW55068   2.575   8.325   3.767
17724SOL    HW155069   2.588   8.390   3.836
17724SOL    HW255070   2.491   8.350   3.727
17725SOL     OW55071  10.590  14.678   4.812
17725SOL    HW155072  10.569  14.642   4.726
17725SOL    HW255073  10.587  14.773   4.800
17726SOL     OW55074   0.466   9.956   5.746
17726SOL    HW155075   0.540  10.016   5.758
17726SOL    HW255076   0.504   9.880   5.703
17727SOL     OW55077   8.862  11.260   6.159
17727SOL    HW155078   8.830  11.345   6.128
17727SOL    HW255079   8.809  11.240   6.236
17728SOL     OW55080   1.433   0.867   3.802
17728SOL    HW155081   1.502   0.902   3.858
17728SOL    HW255082   1.415   0.937   3.738
17729SOL     OW55083   2.863  12.321   2.942
17729SOL    HW155084   2.891  12.361   3.025
17729SOL    HW255085   2.884  12.228   2.953
17730SOL     OW55086  12.850   9.124  13.357
17730SOL    HW155087  12.866   9.055  13.292
17730SOL    HW255088  12.923   9.185  13.345
17731SOL     OW55089  12.869  13.107  12.858
17731SOL    HW155090  12.938  13.063  12.809
17731SOL    HW255091  12.817  13.036  12.895
17732SOL     OW55092  11.123  14.667   8.866
17732SOL    HW155093  11.107  14.609   8.941
17732SOL    HW255094  11.185  14.733   8.899
17733SOL     OW55095   9.255  13.298  11.144
17733SOL    HW155096   9.196  13.228  11.172
17733SOL    HW255097   9.230  13.373  11.198
17734SOL     OW55098   8.539   2.031   7.835
17734SOL    HW155099   8.526   1.978   7.756
17734SOL    HW255100   8.608   2.093   7.811
17735SOL     OW55101   7.798   7.202   4.265
17735SOL    HW155102   7.804   7.283   4.314
17735SOL    HW255103   7.740   7.146   4.317
17736SOL     OW55104   1.917   0.970  10.327
17736SOL    HW155105   1.916   0.953  10.421
17736SOL    HW255106   1.834   1.014  10.310
17737SOL     OW55107   1.188   7.815   5.120
17737SOL    HW155108   1.211   7.819   5.027
17737SOL    HW255109   1.188   7.907   5.148
17738SOL     OW55110   7.754  10.919   6.289
17738SOL    HW155111   7.740  11.010   6.316
17738SOL    HW255112   7.692  10.868   6.342
17739SOL     OW55113   3.114   8.187   8.862
17739SOL    HW155114   3.070   8.232   8.934
17739SOL    HW255115   3.206   8.213   8.870
17740SOL     OW55116   7.767   3.429  11.537
17740SOL    HW155117   7.700   3.361  11.545
17740SOL    HW255118   7.776   3.443  11.442
17741SOL     OW55119   4.677   3.581   4.669
17741SOL    HW155120   4.592   3.574   4.713
17741SOL    HW255121   4.741   3.584   4.740
17742SOL     OW55122   0.650  12.795  12.898
17742SOL    HW155123   0.714  12.724  12.903
17742SOL    HW255124   0.638  12.824  12.988
17743SOL     OW55125  12.494   0.950   4.908
17743SOL    HW155126  12.544   0.922   4.984
17743SOL    HW255127  12.529   0.899   4.836
17744SOL     OW55128  12.726   8.775   8.511
17744SOL    HW155129  12.749   8.727   8.432
17744SOL    HW255130  12.631   8.770   8.517
17745SOL     OW55131  10.682   0.716   0.636
17745SOL    HW155132  10.611   0.706   0.699
17745SOL    HW255133  10.702   0.810   0.637
17746SOL     OW55134   0.434   3.667   0.070
17746SOL    HW155135   0.408   3.759   0.068
17746SOL    HW255136   0.503   3.660   0.004
17747SOL     OW55137   0.615  11.337   5.527
17747SOL    HW155138   0.708  11.323   5.542
17747SOL    HW255139   0.572  11.272   5.582
17748SOL     OW55140  14.739  12.565   1.347
17748SOL    HW155141  14.657  12.601   1.378
17748SOL    HW255142  14.779  12.524   1.424
17749SOL     OW55143  11.243   7.708   7.115
17749SOL    HW155144  11.253   7.737   7.024
17749SOL    HW255145  11.278   7.781   7.167
17750SOL     OW55146   9.764   8.236   8.200
17750SOL    HW155147   9.759   8.213   8.107
17750SOL    HW255148   9.711   8.315   8.208
17751SOL     OW55149   6.142   2.037   1.837
17751SOL    HW155150   6.204   1.981   1.884
17751SOL    HW255151   6.056   2.010   1.869
17752SOL     OW55152  13.193   9.336   0.943
17752SOL    HW155153  13.257   9.399   0.910
17752SOL    HW255154  13.170   9.283   0.866
17753SOL     OW55155   3.299   0.634   9.992
17753SOL    HW155156   3.295   0.634   9.897
17753SOL    HW255157   3.211   0.659  10.020
17754SOL     OW55158  12.956   1.967  13.318
17754SOL    HW155159  12.912   1.989  13.401
17754SOL    HW255160  12.961   2.050  13.271
17755SOL     OW55161   9.390   6.737   5.269
17755SOL    HW155162   9.354   6.776   5.348
17755SOL    HW255163   9.357   6.793   5.198
17756SOL     OW55164   6.166  13.949   3.576
17756SOL    HW155165   6.127  13.896   3.646
17756SOL    HW255166   6.091  13.979   3.525
17757SOL     OW55167  12.684   7.169   6.299
17757SOL    HW155168  12.656   7.236   6.237
17757SOL    HW255169  12.616   7.170   6.367
17758SOL     OW55170   4.446   1.273   5.590
17758SOL    HW155171   4.430   1.344   5.527
17758SOL    HW255172   4.511   1.309   5.650
17759SOL     OW55173  10.832  13.949   7.320
17759SOL    HW155174  10.895  14.017   7.297
17759SOL    HW255175  10.766  13.993   7.373
17760SOL     OW55176   7.508   2.123   5.320
17760SOL    HW155177   7.529   2.100   5.410
17760SOL    HW255178   7.541   2.050   5.268
17761SOL     OW55179   9.660   1.564  12.732
17761SOL    HW155180   9.639   1.560  12.826
17761SOL    HW255181   9.600   1.630  12.697
17762SOL     OW55182   6.144   1.381   4.885
17762SOL    HW155183   6.134   1.292   4.920
17762SOL    HW255184   6.168   1.434   4.961
17763SOL     OW55185   1.179   6.050   9.912
17763SOL    HW155186   1.112   5.983   9.921
17763SOL    HW255187   1.257   6.002   9.881
17764SOL     OW55188  13.064   4.901   0.165
17764SOL    HW155189  13.059   4.842   0.090
17764SOL    HW255190  13.006   4.861   0.230
17765SOL     OW55191   0.224  11.882   8.590
17765SOL    HW155192   0.298  11.867   8.649
17765SOL    HW255193   0.252  11.843   8.507
17766SOL     OW55194   3.602   8.577   5.788
17766SOL    HW155195   3.593   8.484   5.765
17766SOL    HW255196   3.628   8.576   5.880
17767SOL     OW55197   0.572   0.981   3.853
17767SOL    HW155198   0.638   0.922   3.888
17767SOL    HW255199   0.517   0.926   3.797
17768SOL     OW55200   7.554   8.988  10.146
17768SOL    HW155201   7.601   8.941  10.078
17768SOL    HW255202   7.562   8.932  10.224
17769SOL     OW55203   5.887   0.393  10.323
17769SOL    HW155204   5.840   0.311  10.341
17769SOL    HW255205   5.889   0.439  10.407
17770SOL     OW55206   1.776   4.694   7.210
17770SOL    HW155207   1.828   4.752   7.154
17770SOL    HW255208   1.706   4.662   7.153
17771SOL     OW55209  13.247   6.230   0.526
17771SOL    HW155210  13.239   6.313   0.480
17771SOL    HW255211  13.335   6.232   0.564
17772SOL     OW55212   9.793  13.791   3.629
17772SOL    HW155213   9.743  13.868   3.603
17772SOL    HW255214   9.792  13.734   3.552
17773SOL     OW55215  12.600   7.865   0.042
17773SOL    HW155216  12.670   7.926   0.066
17773SOL    HW255217  12.531   7.880   0.106
17774SOL     OW55218   1.942  11.668  10.596
17774SOL    HW155219   1.869  11.669  10.534
17774SOL    HW255220   2.015  11.707  10.547
17775SOL     OW55221   9.464  13.922   5.473
17775SOL    HW155222   9.515  13.922   5.553
17775SOL    HW255223   9.519  13.968   5.409
17776SOL     OW55224  14.332   9.859   0.172
17776SOL    HW155225  14.351   9.791   0.236
17776SOL    HW255226  14.242   9.841   0.144
17777SOL     OW55227   8.129  10.011  10.455
17777SOL    HW155228   8.055  10.021  10.395
17777SOL    HW255229   8.090  10.010  10.542
17778SOL     OW55230  14.037  12.913   5.230
17778SOL    HW155231  13.985  12.992   5.218
17778SOL    HW255232  14.001  12.850   5.167
17779SOL     OW55233   0.546   5.426  11.283
17779SOL    HW155234   0.485   5.500  11.283
17779SOL    HW255235   0.517   5.371  11.356
17780SOL     OW55236   7.765  14.236   0.121
17780SOL    HW155237   7.778  14.218   0.214
17780SOL    HW255238   7.811  14.165   0.077
17781SOL     OW55239  14.230   1.365  11.856
17781SOL    HW155240  14.155   1.424  11.856
17781SOL    HW255241  14.295   1.409  11.911
17782SOL     OW55242   6.198   0.981   8.890
17782SOL    HW155243   6.125   1.041   8.910
17782SOL    HW255244   6.189   0.911   8.954
17783SOL     OW55245  12.396   1.432   9.842
17783SOL    HW155246  12.403   1.371   9.768
17783SOL    HW255247  12.301   1.445   9.853
17784SOL     OW55248   1.217   0.120  11.783
17784SOL    HW155249   1.177   0.157  11.862
17784SOL    HW255250   1.256   0.038  11.811
17785SOL     OW55251  12.139   4.310  11.574
17785SOL    HW155252  12.143   4.275  11.485
17785SOL    HW255253  12.168   4.237  11.629
17786SOL     OW55254  12.601  14.657  11.812
17786SOL    HW155255  12.634  14.581  11.859
17786SOL    HW255256  12.603  14.728  11.876
17787SOL     OW55257   9.767   1.015   5.364
17787SOL    HW155258   9.801   1.012   5.275
17787SOL    HW255259   9.790   0.930   5.401
17788SOL     OW55260  13.521   6.916   2.085
17788SOL    HW155261  13.438   6.872   2.101
17788SOL    HW255262  13.587   6.860   2.126
17789SOL     OW55263   6.884   4.094   7.479
17789SOL    HW155264   6.858   4.186   7.468
17789SOL    HW255265   6.944   4.096   7.553
17790SOL     OW55266   4.567  11.874   6.081
17790SOL    HW155267   4.564  11.779   6.096
17790SOL    HW255268   4.509  11.910   6.148
17791SOL     OW55269   1.876   1.834   2.662
17791SOL    HW155270   1.811   1.816   2.730
17791SOL    HW255271   1.856   1.924   2.635
17792SOL     OW55272   0.502   3.276   5.693
17792SOL    HW155273   0.478   3.365   5.721
17792SOL    HW255274   0.594   3.268   5.718
17793SOL     OW55275  14.590   1.407  13.379
17793SOL    HW155276  14.652   1.475  13.353
17793SOL    HW255277  14.519   1.414  13.315
17794SOL     OW55278  10.385   0.967   0.591
17794SOL    HW155279  10.421   0.955   0.504
17794SOL    HW255280  10.412   1.055   0.616
17795SOL     OW55281   5.282   6.398   0.531
17795SOL    HW155282   5.321   6.328   0.479
17795SOL    HW255283   5.203   6.359   0.569
17796SOL     OW55284  13.902   4.576   1.301
17796SOL    HW155285  13.911   4.520   1.378
17796SOL    HW255286  13.817   4.554   1.264
17797SOL     OW55287  14.030   7.285   0.082
17797SOL    HW155288  13.972   7.317   0.012
17797SOL    HW255289  14.108   7.253   0.035
17798SOL     OW55290   8.922   2.291   0.288
17798SOL    HW155291   8.962   2.240   0.218
17798SOL    HW255292   8.980   2.278   0.363
17799SOL     OW55293  12.428  11.491   2.135
17799SOL    HW155294  12.354  11.525   2.085
17799SOL    HW255295  12.390  11.422   2.189
17800SOL     OW55296   2.953  13.433   5.007
17800SOL    HW155297   2.956  13.441   4.912
17800SOL    HW255298   2.882  13.490   5.034
17801SOL     OW55299   4.588  12.392  10.935
17801SOL    HW155300   4.652  12.455  10.969
17801SOL    HW255301   4.614  12.378  10.844
17802SOL     OW55302   9.823  11.497  12.019
17802SOL    HW155303   9.764  11.460  12.084
17802SOL    HW255304   9.821  11.435  11.946
17803SOL     OW55305   9.929   3.995  14.765
17803SOL    HW155306   9.932   4.053  14.841
17803SOL    HW255307  10.008   3.941  14.774
17804SOL     OW55308   3.516   9.216   5.151
17804SOL    HW155309   3.592   9.199   5.207
17804SOL    HW255310   3.464   9.136   5.157
17805SOL     OW55311   3.007   6.008   9.990
17805SOL    HW155312   3.033   6.097  10.015
17805SOL    HW255313   3.067   5.985   9.919
17806SOL     OW55314   5.513   8.252   9.272
17806SOL    HW155315   5.480   8.275   9.185
17806SOL    HW255316   5.588   8.195   9.256
17807SOL     OW55317   9.390  11.994   5.834
17807SOL    HW155318   9.413  11.959   5.748
17807SOL    HW255319   9.370  12.086   5.818
17808SOL     OW55320  12.738  12.970  14.433
17808SOL    HW155321  12.794  12.989  14.358
17808SOL    HW255322  12.666  12.918  14.396
17809SOL     OW55323   5.336  13.474   6.429
17809SOL    HW155324   5.430  13.479   6.446
17809SOL    HW255325   5.296  13.464   6.516
17810SOL     OW55326   1.705   9.630   1.645
17810SOL    HW155327   1.629   9.600   1.694
17810SOL    HW255328   1.676   9.629   1.553
17811SOL     OW55329  11.526   3.584  10.271
17811SOL    HW155330  11.619   3.606  10.267
17811SOL    HW255331  11.484   3.666  10.297
17812SOL     OW55332   2.323  12.258   6.577
17812SOL    HW155333   2.352  12.326   6.516
17812SOL    HW255334   2.235  12.236   6.547
17813SOL     OW55335  13.028   5.704   9.708
17813SOL    HW155336  12.951   5.648   9.719
17813SOL    HW255337  12.993   5.789   9.682
17814SOL     OW55338   7.678   2.889   3.901
17814SOL    HW155339   7.729   2.957   3.857
17814SOL    HW255340   7.588   2.904   3.872
17815SOL     OW55341   0.989   2.216   0.408
17815SOL    HW155342   1.081   2.222   0.434
17815SOL    HW255343   0.941   2.263   0.477
17816SOL     OW55344   5.547  12.001   2.350
17816SOL    HW155345   5.512  12.007   2.439
17816SOL    HW255346   5.472  11.980   2.295
17817SOL     OW55347   4.714  12.643  14.702
17817SOL    HW155348   4.730  12.679  14.789
17817SOL    HW255349   4.794  12.597  14.680
17818SOL     OW55350   8.356   9.298   0.607
17818SOL    HW155351   8.321   9.353   0.677
17818SOL    HW255352   8.451   9.308   0.613
17819SOL     OW55353  13.684   4.153   9.035
17819SOL    HW155354  13.627   4.077   9.036
17819SOL    HW255355  13.625   4.227   9.020
17820SOL     OW55356  13.588   4.673  14.345
17820SOL    HW155357  13.682   4.685  14.329
17820SOL    HW255358  13.549   4.758  14.324
17821SOL     OW55359   7.448  10.098   7.794
17821SOL    HW155360   7.509  10.025   7.788
17821SOL    HW255361   7.496  10.173   7.759
17822SOL     OW55362   9.959   8.059  11.739
17822SOL    HW155363   9.886   8.105  11.695
17822SOL    HW255364  10.023   8.128  11.756
17823SOL     OW55365  13.570   1.855   4.540
17823SOL    HW155366  13.521   1.873   4.460
17823SOL    HW255367  13.509   1.805   4.595
17824SOL     OW55368   0.060   2.763  11.437
17824SOL    HW155369   0.117   2.840  11.445
17824SOL    HW255370   0.024   2.751  11.525
17825SOL     OW55371  13.614   6.419   9.252
17825SOL    HW155372  13.660   6.403   9.334
17825SOL    HW255373  13.677   6.466   9.198
17826SOL     OW55374  14.604   3.370  13.497
17826SOL    HW155375  14.543   3.382  13.569
17826SOL    HW255376  14.620   3.276  13.494
17827SOL     OW55377   2.303  12.906   4.683
17827SOL    HW155378   2.267  12.826   4.722
17827SOL    HW255379   2.388  12.917   4.726
17828SOL     OW55380   9.445  13.213  14.658
17828SOL    HW155381   9.439  13.282  14.592
17828SOL    HW255382   9.395  13.247  14.732
17829SOL     OW55383  14.476   7.683  10.132
17829SOL    HW155384  14.536   7.757  10.138
17829SOL    HW255385  14.485   7.638  10.217
17830SOL     OW55386   8.584   5.961  11.945
17830SOL    HW155387   8.532   6.037  11.972
17830SOL    HW255388   8.565   5.894  12.010
17831SOL     OW55389   5.995   5.082   7.697
17831SOL    HW155390   5.994   5.116   7.608
17831SOL    HW255391   5.988   4.987   7.686
17832SOL     OW55392   3.594  14.688   3.297
17832SOL    HW155393   3.510  14.659   3.333
17832SOL    HW255394   3.621  14.759   3.355
17833SOL     OW55395  12.322  12.746   8.977
17833SOL    HW155396  12.317  12.652   8.961
17833SOL    HW255397  12.235  12.779   8.953
17834SOL     OW55398   5.732   4.397  14.044
17834SOL    HW155399   5.757   4.319  13.994
17834SOL    HW255400   5.682   4.362  14.118
17835SOL     OW55401  11.706   9.488  10.184
17835SOL    HW155402  11.697   9.527  10.271
17835SOL    HW255403  11.656   9.545  10.126
17836SOL     OW55404  12.369  13.691  11.380
17836SOL    HW155405  12.451  13.666  11.336
17836SOL    HW255406  12.357  13.624  11.448
17837SOL     OW55407  11.271   3.167   2.452
17837SOL    HW155408  11.251   3.132   2.539
17837SOL    HW255409  11.192   3.216   2.427
17838SOL     OW55410  14.405   7.303  12.178
17838SOL    HW155411  14.418   7.395  12.157
17838SOL    HW255412  14.451   7.290  12.260
17839SOL     OW55413   3.501   3.986  14.811
17839SOL    HW155414   3.473   3.919  14.750
17839SOL    HW255415   3.557   3.940   0.003
17840SOL     OW55416   2.186  13.215   4.018
17840SOL    HW155417   2.136  13.176   4.090
17840SOL    HW255418   2.126  13.278   3.978
17841SOL     OW55419   8.390   9.315   6.022
17841SOL    HW155420   8.359   9.230   6.054
17841SOL    HW255421   8.326   9.378   6.055
17842SOL     OW55422   2.944   2.749  14.376
17842SOL    HW155423   2.934   2.747  14.471
17842SOL    HW255424   2.862   2.786  14.343
17843SOL     OW55425  14.813   0.298  13.088
17843SOL    HW155426  14.797   0.203  13.089
17843SOL    HW255427  14.849   0.315  13.001
17844SOL     OW55428  13.424   4.836   7.791
17844SOL    HW155429  13.353   4.846   7.728
17844SOL    HW255430  13.396   4.763   7.846
17845SOL     OW55431   0.918  14.833   5.795
17845SOL    HW155432   0.978  14.762   5.771
17845SOL    HW255433   0.937  14.850   5.887
17846SOL     OW55434   7.527   8.772   2.086
17846SOL    HW155435   7.486   8.735   2.008
17846SOL    HW255436   7.619   8.743   2.081
17847SOL     OW55437  14.858   7.850   0.632
17847SOL    HW155438  14.781   7.838   0.576
17847SOL    HW255439  14.850   7.939   0.666
17848SOL     OW55440   9.173  10.259   9.357
17848SOL    HW155441   9.217  10.314   9.421
17848SOL    HW255442   9.090  10.303   9.340
17849SOL     OW55443  14.112   6.988   2.632
17849SOL    HW155444  14.058   6.914   2.659
17849SOL    HW255445  14.054   7.064   2.639
17850SOL     OW55446  11.479   5.029  11.584
17850SOL    HW155447  11.474   5.071  11.669
17850SOL    HW255448  11.546   4.961  11.594
17851SOL     OW55449   5.077   9.359  13.181
17851SOL    HW155450   5.075   9.428  13.114
17851SOL    HW255451   4.986   9.352  13.210
17852SOL     OW55452   8.796   7.538   0.079
17852SOL    HW155453   8.816   7.632   0.077
17852SOL    HW255454   8.873   7.496   0.042
17853SOL     OW55455   9.846  13.811  13.009
17853SOL    HW155456   9.919  13.868  12.987
17853SOL    HW255457   9.780  13.870  13.047
17854SOL     OW55458   5.905  12.277   7.490
17854SOL    HW155459   5.879  12.196   7.534
17854SOL    HW255460   5.832  12.298   7.432
17855SOL     OW55461   1.219  12.867   1.774
17855SOL    HW155462   1.240  12.852   1.866
17855SOL    HW255463   1.141  12.814   1.758
17856SOL     OW55464   7.983   8.980   2.331
17856SOL    HW155465   8.067   8.937   2.316
17856SOL    HW255466   7.976   9.045   2.261
17857SOL     OW55467   0.468  11.431   7.148
17857SOL    HW155468   0.427  11.383   7.076
17857SOL    HW255469   0.550  11.465   7.111
17858SOL     OW55470   1.355   4.687  13.708
17858SOL    HW155471   1.344   4.770  13.755
17858SOL    HW255472   1.362   4.622  13.778
17859SOL     OW55473   0.568   8.475   6.820
17859SOL    HW155474   0.561   8.516   6.734
17859SOL    HW255475   0.505   8.524   6.874
17860SOL     OW55476   7.322  11.494   0.758
17860SOL    HW155477   7.287  11.408   0.736
17860SOL    HW255478   7.246  11.553   0.751
17861SOL     OW55479   3.694   6.905   6.628
17861SOL    HW155480   3.734   6.818   6.621
17861SOL    HW255481   3.608   6.888   6.667
17862SOL     OW55482   5.780   9.939  12.004
17862SOL    HW155483   5.798  10.010  12.067
17862SOL    HW255484   5.760   9.984  11.922
17863SOL     OW55485  12.522  12.513   1.476
17863SOL    HW155486  12.576  12.546   1.547
17863SOL    HW255487  12.476  12.590   1.442
17864SOL     OW55488   0.513   2.123  13.311
17864SOL    HW155489   0.463   2.090  13.236
17864SOL    HW255490   0.597   2.078  13.305
17865SOL     OW55491   4.509   7.618   3.304
17865SOL    HW155492   4.602   7.639   3.309
17865SOL    HW255493   4.474   7.639   3.390
17866SOL     OW55494  10.676  12.030   1.125
17866SOL    HW155495  10.688  11.941   1.093
17866SOL    HW255496  10.608  12.067   1.069
17867SOL     OW55497   4.410  11.688   8.460
17867SOL    HW155498   4.385  11.739   8.538
17867SOL    HW255499   4.496  11.651   8.482
17868SOL     OW55500   2.101   7.616  11.719
17868SOL    HW155501   2.107   7.543  11.781
17868SOL    HW255502   2.115   7.694  11.773
17869SOL     OW55503  10.077  14.753   9.276
17869SOL    HW155504  10.051  14.783   9.362
17869SOL    HW255505  10.052  14.824   9.216
17870SOL     OW55506   9.450   8.724   4.086
17870SOL    HW155507   9.472   8.671   4.009
17870SOL    HW255508   9.460   8.663   4.159
17871SOL     OW55509   7.037  10.906   5.500
17871SOL    HW155510   7.031  10.999   5.521
17871SOL    HW255511   7.058  10.904   5.406
17872SOL     OW55512   8.320   5.490   1.206
17872SOL    HW155513   8.326   5.502   1.300
17872SOL    HW255514   8.264   5.413   1.195
17873SOL     OW55515   7.402  11.973  10.959
17873SOL    HW155516   7.445  11.887  10.950
17873SOL    HW255517   7.451  12.016  11.029
17874SOL     OW55518   8.607  11.167  13.563
17874SOL    HW155519   8.573  11.255  13.543
17874SOL    HW255520   8.701  11.173  13.545
17875SOL     OW55521  10.741   0.446   0.862
17875SOL    HW155522  10.688   0.368   0.848
17875SOL    HW255523  10.761   0.446   0.956
17876SOL     OW55524   4.926   3.286   7.572
17876SOL    HW155525   4.874   3.286   7.652
17876SOL    HW255526   4.879   3.228   7.512
17877SOL     OW55527   6.141  12.128   4.776
17877SOL    HW155528   6.077  12.068   4.739
17877SOL    HW255529   6.111  12.215   4.748
17878SOL     OW55530  11.776  12.208   4.684
17878SOL    HW155531  11.684  12.228   4.666
17878SOL    HW255532  11.824  12.286   4.657
17879SOL     OW55533  12.046   9.711  13.816
17879SOL    HW155534  12.096   9.778  13.770
17879SOL    HW255535  11.962   9.752  13.836
17880SOL     OW55536  14.781   1.190   3.098
17880SOL    HW155537  14.843   1.259   3.125
17880SOL    HW255538  14.703   1.206   3.150
17881SOL     OW55539  13.104   7.100  13.237
17881SOL    HW155540  13.183   7.073  13.191
17881SOL    HW255541  13.083   7.025  13.294
17882SOL     OW55542   2.633  12.061  14.602
17882SOL    HW155543   2.580  12.130  14.641
17882SOL    HW255544   2.722  12.097  14.601
17883SOL     OW55545  13.083  13.886   1.129
17883SOL    HW155546  13.044  13.949   1.190
17883SOL    HW255547  13.130  13.941   1.066
17884SOL     OW55548   8.822   6.153   2.080
17884SOL    HW155549   8.886   6.096   2.123
17884SOL    HW255550   8.737   6.113   2.100
17885SOL     OW55551   7.050   1.842   2.141
17885SOL    HW155552   7.104   1.890   2.079
17885SOL    HW255553   7.068   1.883   2.226
17886SOL     OW55554  13.387   8.652   4.112
17886SOL    HW155555  13.456   8.592   4.139
17886SOL    HW255556  13.326   8.652   4.185
17887SOL     OW55557  11.487  11.209  12.450
17887SOL    HW155558  11.400  11.192  12.485
17887SOL    HW255559  11.547  11.191  12.523
17888SOL     OW55560  12.149  14.182   2.929
17888SOL    HW155561  12.152  14.119   3.001
17888SOL    HW255562  12.077  14.241   2.953
17889SOL     OW55563   3.404   2.908   3.642
17889SOL    HW155564   3.432   2.867   3.724
17889SOL    HW255565   3.382   2.998   3.667
17890SOL     OW55566  12.997  13.113   2.165
17890SOL    HW155567  13.072  13.101   2.223
17890SOL    HW255568  13.030  13.091   2.078
17891SOL     OW55569   0.306   6.457   0.047
17891SOL    HW155570   0.273   6.515   0.116
17891SOL    HW255571   0.396   6.438   0.073
17892SOL     OW55572   6.568   2.728   0.217
17892SOL    HW155573   6.530   2.654   0.263
17892SOL    HW255574   6.626   2.689   0.152
17893SOL     OW55575   1.014  12.658  11.369
17893SOL    HW155576   1.054  12.741  11.396
17893SOL    HW255577   0.967  12.680  11.288
17894SOL     OW55578   9.537   5.808   9.559
17894SOL    HW155579   9.458   5.861   9.557
17894SOL    HW255580   9.599   5.858   9.612
17895SOL     OW55581   8.461   5.667   7.286
17895SOL    HW155582   8.525   5.631   7.224
17895SOL    HW255583   8.378   5.626   7.260
17896SOL     OW55584   7.833   8.416   9.327
17896SOL    HW155585   7.811   8.429   9.419
17896SOL    HW255586   7.864   8.326   9.322
17897SOL     OW55587   2.659   1.088  12.103
17897SOL    HW155588   2.695   1.092  12.014
17897SOL    HW255589   2.604   1.165  12.110
17898SOL     OW55590  13.181   3.967   5.101
17898SOL    HW155591  13.265   4.013   5.094
17898SOL    HW255592  13.162   3.968   5.195
17899SOL     OW55593   6.341  10.371   4.155
17899SOL    HW155594   6.347  10.276   4.163
17899SOL    HW255595   6.332  10.387   4.061
17900SOL     OW55596  10.710   7.069  10.162
17900SOL    HW155597  10.749   7.111  10.239
17900SOL    HW255598  10.735   7.126  10.089
17901SOL     OW55599   8.821   9.678   9.631
17901SOL    HW155600   8.791   9.731   9.557
17901SOL    HW255601   8.840   9.592   9.592
17902SOL     OW55602  11.665  13.864  14.225
17902SOL    HW155603  11.705  13.868  14.138
17902SOL    HW255604  11.691  13.779  14.260
17903SOL     OW55605   8.021   0.488   2.767
17903SOL    HW155606   8.077   0.564   2.748
17903SOL    HW255607   7.944   0.501   2.711
17904SOL     OW55608   3.519  14.540   9.543
17904SOL    HW155609   3.530  14.542   9.448
17904SOL    HW255610   3.454  14.472   9.558
17905SOL     OW55611   0.254   5.987  11.243
17905SOL    HW155612   0.183   5.923  11.236
17905SOL    HW255613   0.256   6.010  11.336
17906SOL     OW55614   3.991  13.919  11.947
17906SOL    HW155615   4.081  13.889  11.935
17906SOL    HW255616   3.999  14.001  11.996
17907SOL     OW55617  10.069   0.199  12.845
17907SOL    HW155618  10.010   0.125  12.859
17907SOL    HW255619  10.012   0.271  12.816
17908SOL     OW55620   9.087   9.688   8.535
17908SOL    HW155621   9.150   9.742   8.582
17908SOL    HW255622   9.002   9.728   8.554
17909SOL     OW55623   6.141   0.380  10.962
17909SOL    HW155624   6.097   0.457  10.925
17909SOL    HW255625   6.229   0.381  10.923
17910SOL     OW55626   8.393   5.124   0.838
17910SOL    HW155627   8.473   5.141   0.887
17910SOL    HW255628   8.349   5.209   0.833
17911SOL     OW55629  14.430   2.269  13.623
17911SOL    HW155630  14.363   2.335  13.604
17911SOL    HW255631  14.437   2.269  13.719
17912SOL     OW55632   8.299   3.720   2.865
17912SOL    HW155633   8.369   3.706   2.930
17912SOL    HW255634   8.229   3.661   2.892
17913SOL     OW55635  10.588   2.436   2.956
17913SOL    HW155636  10.620   2.350   2.982
17913SOL    HW255637  10.653   2.497   2.991
17914SOL     OW55638   6.904  10.867  13.769
17914SOL    HW155639   6.914  10.865  13.864
17914SOL    HW255640   6.917  10.958  13.745
17915SOL     OW55641   5.052  13.973   3.531
17915SOL    HW155642   5.066  14.006   3.442
17915SOL    HW255643   5.138  13.981   3.573
17916SOL     OW55644   4.549  11.233   5.835
17916SOL    HW155645   4.513  11.145   5.844
17916SOL    HW255646   4.643  11.222   5.851
17917SOL     OW55647  11.112   9.025   0.363
17917SOL    HW155648  11.176   8.960   0.392
17917SOL    HW255649  11.106   9.012   0.268
17918SOL     OW55650   5.881   1.844   1.850
17918SOL    HW155651   5.942   1.845   1.776
17918SOL    HW255652   5.931   1.804   1.921
17919SOL     OW55653  10.102   8.502  13.341
17919SOL    HW155654  10.013   8.469  13.344
17919SOL    HW255655  10.111   8.540  13.254
17920SOL     OW55656   9.313   5.098   0.853
17920SOL    HW155657   9.362   5.112   0.772
17920SOL    HW255658   9.222   5.087   0.825
17921SOL     OW55659   9.127  11.571   1.487
17921SOL    HW155660   9.115  11.498   1.548
17921SOL    HW255661   9.217  11.562   1.456
17922SOL     OW55662   7.243  11.013   6.607
17922SOL    HW155663   7.244  10.921   6.581
17922SOL    HW255664   7.327  11.047   6.579
17923SOL     OW55665   9.448  10.137   1.285
17923SOL    HW155666   9.370  10.192   1.276
17923SOL    HW255667   9.435  10.065   1.224
17924SOL     OW55668   6.692   3.838   9.738
17924SOL    HW155669   6.708   3.880   9.823
17924SOL    HW255670   6.718   3.904   9.674
17925SOL     OW55671   9.670  11.492   9.670
17925SOL    HW155672   9.647  11.401   9.652
17925SOL    HW255673   9.759  11.502   9.637
17926SOL     OW55674  14.508  14.257   0.927
17926SOL    HW155675  14.473  14.224   0.845
17926SOL    HW255676  14.597  14.286   0.905
17927SOL     OW55677   0.253   7.478   7.000
17927SOL    HW155678   0.211   7.444   7.079
17927SOL    HW255679   0.217   7.425   6.929
17928SOL     OW55680   2.729   9.683   5.731
17928SOL    HW155681   2.812   9.720   5.764
17928SOL    HW255682   2.702   9.622   5.800
17929SOL     OW55683   8.170   4.483   3.416
17929SOL    HW155684   8.258   4.495   3.452
17929SOL    HW255685   8.155   4.562   3.363
17930SOL     OW55686   1.918  13.113   7.134
17930SOL    HW155687   1.857  13.074   7.071
17930SOL    HW255688   2.005  13.087   7.103
17931SOL     OW55689   8.540   8.882   8.399
17931SOL    HW155690   8.597   8.811   8.427
17931SOL    HW255691   8.476   8.891   8.469
17932SOL     OW55692   2.046  12.997   1.199
17932SOL    HW155693   2.109  13.004   1.270
17932SOL    HW255694   1.998  12.916   1.217
17933SOL     OW55695   0.597   2.094   0.150
17933SOL    HW155696   0.609   2.010   0.194
17933SOL    HW255697   0.681   2.140   0.163
17934SOL     OW55698  12.407   5.690   3.922
17934SOL    HW155699  12.350   5.758   3.959
17934SOL    HW255700  12.388   5.612   3.974
17935SOL     OW55701  14.617  12.731   9.334
17935SOL    HW155702  14.697  12.697   9.373
17935SOL    HW255703  14.566  12.763   9.409
17936SOL     OW55704  11.318  14.655   7.006
17936SOL    HW155705  11.354  14.703   6.932
17936SOL    HW255706  11.232  14.624   6.976
17937SOL     OW55707  10.559  13.406   1.664
17937SOL    HW155708  10.636  13.460   1.679
17937SOL    HW255709  10.590  13.316   1.672
17938SOL     OW55710   1.922   7.273   9.351
17938SOL    HW155711   1.913   7.267   9.446
17938SOL    HW255712   1.979   7.350   9.337
17939SOL     OW55713   9.156   9.635   3.089
17939SOL    HW155714   9.094   9.562   3.091
17939SOL    HW255715   9.107   9.707   3.049
17940SOL     OW55716   0.691   9.170   3.835
17940SOL    HW155717   0.769   9.214   3.802
17940SOL    HW255718   0.722   9.113   3.905
17941SOL     OW55719   7.556  12.864  10.713
17941SOL    HW155720   7.492  12.924  10.752
17941SOL    HW255721   7.505  12.787  10.689
17942SOL     OW55722   1.133  11.024   8.972
17942SOL    HW155723   1.205  10.962   8.975
17942SOL    HW255724   1.067  10.988   9.031
17943SOL     OW55725  12.491   7.078   5.746
17943SOL    HW155726  12.482   7.079   5.651
17943SOL    HW255727  12.489   6.985   5.770
17944SOL     OW55728   7.476  10.409   2.684
17944SOL    HW155729   7.468  10.474   2.614
17944SOL    HW255730   7.459  10.325   2.641
17945SOL     OW55731   3.701   4.847   6.481
17945SOL    HW155732   3.786   4.809   6.458
17945SOL    HW255733   3.681   4.906   6.408
17946SOL     OW55734   7.168   9.183   8.054
17946SOL    HW155735   7.221   9.252   8.092
17946SOL    HW255736   7.174   9.196   7.959
17947SOL     OW55737   7.295  14.842  11.797
17947SOL    HW155738   7.259   0.014  11.874
17947SOL    HW255739   7.230  14.855  11.729
17948SOL     OW55740  10.916   5.799   0.217
17948SOL    HW155741  11.001   5.824   0.183
17948SOL    HW255742  10.873   5.753   0.145
17949SOL     OW55743   7.591   8.225  12.312
17949SOL    HW155744   7.680   8.189  12.309
17949SOL    HW255745   7.534   8.151  12.294
17950SOL     OW55746   8.909   8.755   0.612
17950SOL    HW155747   8.963   8.820   0.656
17950SOL    HW255748   8.841   8.806   0.568
17951SOL     OW55749  10.633   7.011   6.507
17951SOL    HW155750  10.633   7.107   6.506
17951SOL    HW255751  10.720   6.987   6.539
17952SOL     OW55752   0.698  14.070  10.143
17952SOL    HW155753   0.657  14.030  10.066
17952SOL    HW255754   0.629  14.069  10.210
17953SOL     OW55755   7.578  12.061   4.124
17953SOL    HW155756   7.526  11.983   4.102
17953SOL    HW255757   7.600  12.099   4.039
17954SOL     OW55758  10.641   7.869  12.803
17954SOL    HW155759  10.710   7.934  12.819
17954SOL    HW255760  10.572   7.918  12.758
17955SOL     OW55761   8.045  13.924  14.340
17955SOL    HW155762   7.956  13.894  14.356
17955SOL    HW255763   8.101  13.855  14.376
17956SOL     OW55764  12.137  14.529   3.427
17956SOL    HW155765  12.079  14.493   3.360
17956SOL    HW255766  12.215  14.556   3.378
17957SOL     OW55767   4.439  11.300   6.981
17957SOL    HW155768   4.458  11.209   6.958
17957SOL    HW255769   4.518  11.331   7.025
17958SOL     OW55770  14.307  13.551   7.441
17958SOL    HW155771  14.312  13.505   7.358
17958SOL    HW255772  14.241  13.503   7.491
17959SOL     OW55773  12.710  14.602   9.798
17959SOL    HW155774  12.679  14.633   9.713
17959SOL    HW255775  12.706  14.507   9.792
17960SOL     OW55776   8.320   2.564   3.203
17960SOL    HW155777   8.354   2.503   3.269
17960SOL    HW255778   8.376   2.552   3.127
17961SOL     OW55779   4.434  10.152   5.868
17961SOL    HW155780   4.509  10.101   5.838
17961SOL    HW255781   4.455  10.176   5.958
17962SOL     OW55782   1.856  10.234  10.406
17962SOL    HW155783   1.948  10.247  10.430
17962SOL    HW255784   1.859  10.202  10.316
17963SOL     OW55785   2.874   6.885   9.601
17963SOL    HW155786   2.830   6.806   9.570
17963SOL    HW255787   2.944   6.853   9.658
17964SOL     OW55788   2.829   0.202   2.823
17964SOL    HW155789   2.738   0.174   2.824
17964SOL    HW255790   2.827   0.285   2.775
17965SOL     OW55791   3.114   7.186   5.764
17965SOL    HW155792   3.054   7.247   5.721
17965SOL    HW255793   3.064   7.105   5.773
17966SOL     OW55794  13.149   6.208   2.323
17966SOL    HW155795  13.056   6.231   2.322
17966SOL    HW255796  13.154   6.131   2.380
17967SOL     OW55797   9.501  10.789   4.871
17967SOL    HW155798   9.589  10.805   4.837
17967SOL    HW255799   9.484  10.697   4.852
17968SOL     OW55800  11.939  14.446   3.256
17968SOL    HW155801  11.845  14.434   3.271
17968SOL    HW255802  11.951  14.427   3.164
17969SOL     OW55803   8.357   3.319  10.692
17969SOL    HW155804   8.409   3.247  10.726
17969SOL    HW255805   8.331   3.290  10.604
17970SOL     OW55806  11.080   6.960   5.832
17970SOL    HW155807  11.162   6.959   5.881
17970SOL    HW255808  11.028   7.030   5.873
17971SOL     OW55809   5.231  13.203   9.804
17971SOL    HW155810   5.196  13.175   9.719
17971SOL    HW255811   5.324  13.180   9.800
17972SOL     OW55812   1.451   7.559   2.049
17972SOL    HW155813   1.414   7.474   2.022
17972SOL    HW255814   1.453   7.610   1.968
17973SOL     OW55815   5.754  13.157  12.379
17973SOL    HW155816   5.844  13.140  12.351
17973SOL    HW255817   5.747  13.253  12.377
17974SOL     OW55818  13.036   7.739  13.597
17974SOL    HW155819  13.107   7.688  13.558
17974SOL    HW255820  12.975   7.674  13.629
17975SOL     OW55821  10.471   4.691   7.713
17975SOL    HW155822  10.472   4.607   7.667
17975SOL    HW255823  10.496   4.670   7.802
17976SOL     OW55824   7.851   0.079   7.641
17976SOL    HW155825   7.770   0.124   7.619
17976SOL    HW255826   7.837   0.047   7.731
17977SOL     OW55827   3.891   7.933   1.862
17977SOL    HW155828   3.904   7.839   1.865
17977SOL    HW255829   3.950   7.967   1.930
17978SOL     OW55830  14.404   9.410   8.986
17978SOL    HW155831  14.433   9.362   8.909
17978SOL    HW255832  14.417   9.349   9.058
17979SOL     OW55833  13.433  14.615  14.816
17979SOL    HW155834  13.519  14.574  14.806
17979SOL    HW255835  13.398  14.577   0.025
17980SOL     OW55836   8.080  10.021   6.212
17980SOL    HW155837   8.057  10.107   6.176
17980SOL    HW255838   8.017   9.961   6.173
17981SOL     OW55839   6.628   3.237   2.280
17981SOL    HW155840   6.535   3.220   2.267
17981SOL    HW255841   6.633   3.279   2.366
17982SOL     OW55842   7.003  14.044  14.117
17982SOL    HW155843   7.010  14.140  14.117
17982SOL    HW255844   7.089  14.015  14.086
17983SOL     OW55845  11.649   0.833  14.335
17983SOL    HW155846  11.707   0.908  14.347
17983SOL    HW255847  11.592   0.834  14.412
17984SOL     OW55848   6.220   1.986  10.294
17984SOL    HW155849   6.288   2.053  10.280
17984SOL    HW255850   6.141   2.024  10.257
17985SOL     OW55851  14.033  11.651  10.069
17985SOL    HW155852  13.991  11.674  10.152
17985SOL    HW255853  14.117  11.696  10.071
17986SOL     OW55854   9.292   6.586   6.982
17986SOL    HW155855   9.210   6.545   7.007
17986SOL    HW255856   9.295   6.580   6.887
17987SOL     OW55857  12.110   2.218   8.394
17987SOL    HW155858  12.175   2.161   8.354
17987SOL    HW255859  12.031   2.206   8.342
17988SOL     OW55860  10.947  14.784   6.138
17988SOL    HW155861  11.022  14.808   6.192
17988SOL    HW255862  10.913  14.868   6.106
17989SOL     OW55863  13.707   0.960  12.343
17989SOL    HW155864  13.619   0.983  12.315
17989SOL    HW255865  13.738   1.037  12.390
17990SOL     OW55866   8.142   3.550  12.869
17990SOL    HW155867   8.109   3.635  12.898
17990SOL    HW255868   8.080   3.522  12.802
17991SOL     OW55869   7.369  13.815  11.471
17991SOL    HW155870   7.292  13.864  11.441
17991SOL    HW255871   7.335  13.757  11.539
17992SOL     OW55872  13.590   6.881  11.731
17992SOL    HW155873  13.578   6.825  11.808
17992SOL    HW255874  13.516   6.942  11.733
17993SOL     OW55875   1.914   5.302   5.964
17993SOL    HW155876   1.847   5.329   6.027
17993SOL    HW255877   1.966   5.381   5.949
17994SOL     OW55878   2.165   8.874   8.175
17994SOL    HW155879   2.120   8.925   8.108
17994SOL    HW255880   2.115   8.792   8.181
17995SOL     OW55881   8.573  13.486   3.173
17995SOL    HW155882   8.559  13.424   3.101
17995SOL    HW255883   8.503  13.550   3.164
17996SOL     OW55884   5.109   2.173  11.490
17996SOL    HW155885   5.137   2.137  11.406
17996SOL    HW255886   5.189   2.211  11.528
17997SOL     OW55887   6.886  12.056   3.417
17997SOL    HW155888   6.805  12.010   3.437
17997SOL    HW255889   6.923  12.008   3.343
17998SOL     OW55890  11.205   3.061  10.080
17998SOL    HW155891  11.299   3.044  10.075
17998SOL    HW255892  11.178   3.022  10.163
17999SOL     OW55893  14.393   2.282   2.395
17999SOL    HW155894  14.303   2.315   2.402
17999SOL    HW255895  14.448   2.360   2.397
18000SOL     OW55896   4.499  12.728   9.148
18000SOL    HW155897   4.588  12.694   9.132
18000SOL    HW255898   4.453  12.713   9.066
18001SOL     OW55899   5.464   5.594   0.668
18001SOL    HW155900   5.548   5.583   0.624
18001SOL    HW255901   5.486   5.635   0.752
18002SOL     OW55902   4.616   3.405   8.396
18002SOL    HW155903   4.639   3.447   8.313
18002SOL    HW255904   4.536   3.356   8.376
18003SOL     OW55905   9.893  14.614   4.029
18003SOL    HW155906   9.952  14.686   4.007
18003SOL    HW255907   9.949  14.537   4.035
18004SOL     OW55908  11.165   5.603   2.169
18004SOL    HW155909  11.085   5.645   2.137
18004SOL    HW255910  11.205   5.564   2.091
18005SOL     OW55911   1.578  13.085   9.060
18005SOL    HW155912   1.651  13.024   9.070
18005SOL    HW255913   1.540  13.091   9.148
18006SOL     OW55914   6.160   8.239  13.794
18006SOL    HW155915   6.078   8.278  13.824
18006SOL    HW255916   6.225   8.308  13.810
18007SOL     OW55917   0.210   6.158   8.782
18007SOL    HW155918   0.218   6.105   8.703
18007SOL    HW255919   0.222   6.248   8.752
18008SOL     OW55920   6.867  12.841   7.166
18008SOL    HW155921   6.793  12.903   7.169
18008SOL    HW255922   6.844  12.774   7.230
18009SOL     OW55923   0.575   4.406  13.948
18009SOL    HW155924   0.495   4.447  13.916
18009SOL    HW255925   0.646   4.460  13.913
18010SOL     OW55926  13.610   3.490   7.491
18010SOL    HW155927  13.603   3.472   7.398
18010SOL    HW255928  13.582   3.408   7.534
18011SOL     OW55929   7.884   6.739   8.713
18011SOL    HW155930   7.924   6.692   8.640
18011SOL    HW255931   7.932   6.821   8.719
18012SOL     OW55932   0.078   2.093   5.406
18012SOL    HW155933   0.171   2.069   5.411
18012SOL    HW255934   0.046   2.046   5.329
18013SOL     OW55935   3.686   3.389  14.217
18013SOL    HW155936   3.738   3.469  14.209
18013SOL    HW255937   3.647   3.394  14.304
18014SOL     OW55938  14.795  13.983   4.842
18014SOL    HW155939  14.701  13.971   4.855
18014SOL    HW255940  14.819  14.051   4.905
18015SOL     OW55941   5.627   8.656   5.728
18015SOL    HW155942   5.618   8.561   5.722
18015SOL    HW255943   5.556   8.683   5.786
18016SOL     OW55944   2.362   8.078   1.830
18016SOL    HW155945   2.373   8.105   1.921
18016SOL    HW255946   2.299   8.139   1.793
18017SOL     OW55947  13.025  13.733  13.221
18017SOL    HW155948  12.993  13.726  13.311
18017SOL    HW255949  13.097  13.670  13.216
18018SOL     OW55950   7.204   3.070   4.249
18018SOL    HW155951   7.277   3.009   4.239
18018SOL    HW255952   7.190   3.106   4.161
18019SOL     OW55953   6.219   8.976   3.448
18019SOL    HW155954   6.242   8.988   3.356
18019SOL    HW255955   6.188   9.062   3.477
18020SOL     OW55956   3.965   0.133   2.130
18020SOL    HW155957   3.963   0.052   2.181
18020SOL    HW255958   3.921   0.197   2.185
18021SOL     OW55959   3.275  12.849  13.227
18021SOL    HW155960   3.261  12.755  13.229
18021SOL    HW255961   3.341  12.866  13.293
18022SOL     OW55962  14.215  14.599   6.732
18022SOL    HW155963  14.159  14.659   6.781
18022SOL    HW255964  14.282  14.572   6.795
18023SOL     OW55965   3.555   5.296   9.964
18023SOL    HW155966   3.573   5.292   9.870
18023SOL    HW255967   3.638   5.271  10.005
18024SOL     OW55968   6.828   2.689   4.299
18024SOL    HW155969   6.795   2.649   4.219
18024SOL    HW255970   6.754   2.740   4.333
18025SOL     OW55971   4.964  10.890   7.408
18025SOL    HW155972   5.002  10.970   7.373
18025SOL    HW255973   4.884  10.918   7.452
18026SOL     OW55974  12.727   9.281  14.551
18026SOL    HW155975  12.772   9.225  14.614
18026SOL    HW255976  12.640   9.295  14.589
18027SOL     OW55977   5.101  11.079  11.239
18027SOL    HW155978   5.165  11.142  11.204
18027SOL    HW255979   5.068  11.033  11.162
18028SOL     OW55980   9.056   0.377   0.574
18028SOL    HW155981   9.073   0.464   0.538
18028SOL    HW255982   9.104   0.317   0.516
18029SOL     OW55983   9.054   3.464   9.482
18029SOL    HW155984   9.138   3.508   9.467
18029SOL    HW255985   9.004   3.479   9.402
18030SOL     OW55986   4.889   3.169   2.364
18030SOL    HW155987   4.854   3.103   2.304
18030SOL    HW255988   4.917   3.119   2.441
18031SOL     OW55989   8.452  12.856  11.675
18031SOL    HW155990   8.432  12.851  11.581
18031SOL    HW255991   8.523  12.920  11.681
18032SOL     OW55992  11.392   6.769   2.659
18032SOL    HW155993  11.366   6.820   2.736
18032SOL    HW255994  11.378   6.828   2.585
18033SOL     OW55995  12.195  11.857   2.227
18033SOL    HW155996  12.137  11.812   2.164
18033SOL    HW255997  12.187  11.950   2.203
18034SOL     OW55998  11.255   3.434   7.848
18034SOL    HW155999  11.327   3.374   7.870
18034SOL    HW256000  11.298   3.515   7.822
18035SOL     OW56001  12.772   8.947  14.003
18035SOL    HW156002  12.782   8.935  13.909
18035SOL    HW256003  12.853   8.990  14.031
18036SOL     OW56004  12.668   3.027   3.132
18036SOL    HW156005  12.736   2.968   3.165
18036SOL    HW256006  12.600   2.969   3.098
18037SOL     OW56007  10.399   9.484   7.394
18037SOL    HW156008  10.344   9.406   7.399
18037SOL    HW256009  10.337   9.557   7.391
18038SOL     OW56010  11.022   3.301  12.776
18038SOL    HW156011  10.929   3.301  12.753
18038SOL    HW256012  11.059   3.232  12.723
18039SOL     OW56013  14.347   2.893   1.259
18039SOL    HW156014  14.385   2.857   1.179
18039SOL    HW256015  14.318   2.981   1.235
18040SOL     OW56016   9.761   5.410   9.495
18040SOL    HW156017   9.711   5.492   9.495
18040SOL    HW256018   9.701   5.346   9.534
18041SOL     OW56019   5.351  12.765   7.551
18041SOL    HW156020   5.432  12.817   7.551
18041SOL    HW256021   5.285  12.824   7.586
18042SOL     OW56022   7.627   4.675  13.389
18042SOL    HW156023   7.582   4.716  13.463
18042SOL    HW256024   7.577   4.704  13.312
18043SOL     OW56025   7.584   8.597   4.368
18043SOL    HW156026   7.643   8.631   4.435
18043SOL    HW256027   7.548   8.674   4.325
18044SOL     OW56028  13.747   7.045   8.994
18044SOL    HW156029  13.702   7.127   8.975
18044SOL    HW256030  13.764   7.047   9.088
18045SOL     OW56031   3.619   2.341   0.354
18045SOL    HW156032   3.614   2.420   0.301
18045SOL    HW256033   3.662   2.369   0.435
18046SOL     OW56034   2.861  12.425   6.673
18046SOL    HW156035   2.942  12.446   6.627
18046SOL    HW256036   2.825  12.510   6.699
18047SOL     OW56037   3.806  14.839   0.749
18047SOL    HW156038   3.791   0.061   0.760
18047SOL    HW256039   3.721  14.798   0.770
18048SOL     OW56040   4.904   5.787   0.961
18048SOL    HW156041   4.888   5.705   0.914
18048SOL    HW256042   4.974   5.829   0.911
18049SOL     OW56043   3.242  13.817   6.744
18049SOL    HW156044   3.195  13.855   6.669
18049SOL    HW256045   3.244  13.723   6.725
18050SOL     OW56046  10.978   6.425  13.215
18050SOL    HW156047  10.956   6.487  13.284
18050SOL    HW256048  10.912   6.356  13.222
18051SOL     OW56049   5.952   8.121   1.804
18051SOL    HW156050   5.973   8.193   1.746
18051SOL    HW256051   5.856   8.119   1.806
18052SOL     OW56052   6.952  12.306  10.336
18052SOL    HW156053   6.899  12.292  10.257
18052SOL    HW256054   6.931  12.231  10.392
18053SOL     OW56055  10.689   8.701   3.668
18053SOL    HW156056  10.767   8.722   3.719
18053SOL    HW256057  10.640   8.783   3.662
18054SOL     OW56058  13.017   9.189   6.302
18054SOL    HW156059  12.986   9.122   6.363
18054SOL    HW256060  12.945   9.200   6.240
18055SOL     OW56061  13.932   8.062   5.169
18055SOL    HW156062  13.893   8.084   5.084
18055SOL    HW256063  13.858   8.058   5.229
18056SOL     OW56064   6.466  13.128  14.827
18056SOL    HW156065   6.456  13.223  14.821
18056SOL    HW256066   6.513  13.114   0.038
18057SOL     OW56067   3.183   9.280  14.586
18057SOL    HW156068   3.123   9.296  14.660
18057SOL    HW256069   3.126   9.275  14.510
18058SOL     OW56070   5.157   7.641  14.578
18058SOL    HW156071   5.196   7.653  14.664
18058SOL    HW256072   5.073   7.687  14.583
18059SOL     OW56073   5.253  12.282   3.995
18059SOL    HW156074   5.339  12.241   3.985
18059SOL    HW256075   5.229  12.263   4.086
18060SOL     OW56076  10.750  11.798   3.101
18060SOL    HW156077  10.777  11.753   3.181
18060SOL    HW256078  10.754  11.730   3.033
18061SOL     OW56079  14.863  13.132   4.091
18061SOL    HW156080   0.006  13.203   4.153
18061SOL    HW256081   0.077  13.117   4.050
18062SOL     OW56082   5.574   8.744   9.624
18062SOL    HW156083   5.558   8.652   9.605
18062SOL    HW256084   5.508   8.791   9.572
18063SOL     OW56085  10.680   1.409   6.155
18063SOL    HW156086  10.759   1.378   6.199
18063SOL    HW256087  10.712   1.465   6.084
18064SOL     OW56088   0.384  14.126   3.321
18064SOL    HW156089   0.354  14.105   3.233
18064SOL    HW256090   0.315  14.182   3.357
18065SOL     OW56091  10.419  14.195   3.040
18065SOL    HW156092  10.459  14.261   2.984
18065SOL    HW256093  10.445  14.220   3.129
18066SOL     OW56094   7.609   9.483   6.033
18066SOL    HW156095   7.604   9.579   6.036
18066SOL    HW256096   7.568   9.454   6.114
18067SOL     OW56097  12.253   1.947  13.188
18067SOL    HW156098  12.341   1.929  13.156
18067SOL    HW256099  12.254   1.919  13.279
18068SOL     OW56100   7.245  12.697   4.148
18068SOL    HW156101   7.316  12.712   4.086
18068SOL    HW256102   7.182  12.644   4.100
18069SOL     OW56103  13.186   5.368  14.642
18069SOL    HW156104  13.238   5.444  14.616
18069SOL    HW256105  13.191   5.309  14.566
18070SOL     OW56106  12.932   4.702  12.316
18070SOL    HW156107  12.926   4.627  12.375
18070SOL    HW256108  13.017   4.742  12.337
18071SOL     OW56109   9.100  12.339   3.839
18071SOL    HW156110   9.079  12.398   3.911
18071SOL    HW256111   9.049  12.260   3.857
18072SOL     OW56112   7.078  10.710   5.047
18072SOL    HW156113   7.005  10.683   4.991
18072SOL    HW256114   7.130  10.768   4.992
18073SOL     OW56115  10.899   1.246   0.607
18073SOL    HW156116  10.859   1.308   0.546
18073SOL    HW256117  10.874   1.278   0.694
18074SOL     OW56118  14.373  13.930  11.562
18074SOL    HW156119  14.431  13.860  11.531
18074SOL    HW256120  14.392  14.004  11.504
18075SOL     OW56121   1.136   1.503  10.430
18075SOL    HW156122   1.124   1.593  10.461
18075SOL    HW256123   1.056   1.484  10.380
18076SOL     OW56124   2.043   6.519   3.058
18076SOL    HW156125   1.950   6.497   3.063
18076SOL    HW256126   2.078   6.459   2.992
18077SOL     OW56127   1.066   5.427  11.027
18077SOL    HW156128   1.130   5.494  11.004
18077SOL    HW256129   1.070   5.364  10.954
18078SOL     OW56130  10.310   5.237   7.144
18078SOL    HW156131  10.217   5.217   7.135
18078SOL    HW256132  10.330   5.294   7.069
18079SOL     OW56133  14.124   4.016  11.169
18079SOL    HW156134  14.208   3.983  11.199
18079SOL    HW256135  14.083   3.941  11.126
18080SOL     OW56136   7.397   6.328  14.814
18080SOL    HW156137   7.343   6.407  14.823
18080SOL    HW256138   7.353   6.263  14.869
18081SOL     OW56139   3.764   0.764   3.079
18081SOL    HW156140   3.750   0.834   3.142
18081SOL    HW256141   3.845   0.721   3.106
18082SOL     OW56142   0.483   9.722   0.343
18082SOL    HW156143   0.391   9.724   0.315
18082SOL    HW256144   0.510   9.631   0.329
18083SOL     OW56145   6.683   2.625   9.249
18083SOL    HW156146   6.739   2.701   9.232
18083SOL    HW256147   6.725   2.553   9.201
18084SOL     OW56148  11.685   5.909  10.664
18084SOL    HW156149  11.763   5.856  10.651
18084SOL    HW256150  11.713   5.999  10.647
18085SOL     OW56151   4.287   8.674   1.416
18085SOL    HW156152   4.331   8.706   1.494
18085SOL    HW256153   4.229   8.605   1.448
18086SOL     OW56154  13.299  11.313  12.566
18086SOL    HW156155  13.355  11.337  12.640
18086SOL    HW256156  13.291  11.218  12.572
18087SOL     OW56157   8.276   3.733  14.587
18087SOL    HW156158   8.199   3.683  14.613
18087SOL    HW256159   8.348   3.693  14.635
18088SOL     OW56160   7.169  12.870  12.934
18088SOL    HW156161   7.193  12.915  13.015
18088SOL    HW256162   7.139  12.940  12.876
18089SOL     OW56163   5.530   8.676   4.742
18089SOL    HW156164   5.457   8.627   4.780
18089SOL    HW256165   5.510   8.768   4.763
18090SOL     OW56166   9.422   3.492  12.184
18090SOL    HW156167   9.384   3.466  12.100
18090SOL    HW256168   9.347   3.516  12.238
18091SOL     OW56169   7.783  11.985   5.398
18091SOL    HW156170   7.785  11.893   5.372
18091SOL    HW256171   7.828  11.986   5.483
18092SOL     OW56172   9.801   9.801   3.957
18092SOL    HW156173   9.891   9.769   3.952
18092SOL    HW256174   9.791   9.831   4.048
18093SOL     OW56175   4.202   5.917  10.327
18093SOL    HW156176   4.159   5.907  10.242
18093SOL    HW256177   4.296   5.907  10.308
18094SOL     OW56178   8.101   9.418   1.573
18094SOL    HW156179   8.062   9.330   1.569
18094SOL    HW256180   8.041   9.468   1.628
18095SOL     OW56181   8.788  12.654   4.537
18095SOL    HW156182   8.869  12.701   4.516
18095SOL    HW256183   8.724  12.687   4.474
18096SOL     OW56184   7.215   1.954   7.473
18096SOL    HW156185   7.186   2.044   7.486
18096SOL    HW256186   7.182   1.907   7.549
18097SOL     OW56187  11.379   9.712   0.499
18097SOL    HW156188  11.469   9.700   0.467
18097SOL    HW256189  11.388   9.717   0.594
18098SOL     OW56190   1.336   2.275   4.006
18098SOL    HW156191   1.262   2.225   4.041
18098SOL    HW256192   1.296   2.336   3.944
18099SOL     OW56193   3.990   5.428   9.107
18099SOL    HW156194   3.997   5.524   9.107
18099SOL    HW256195   3.940   5.407   9.186
18100SOL     OW56196   2.153  10.587   0.920
18100SOL    HW156197   2.111  10.574   0.835
18100SOL    HW256198   2.129  10.510   0.971
18101SOL     OW56199   6.709   8.577   2.402
18101SOL    HW156200   6.614   8.579   2.395
18101SOL    HW256201   6.731   8.484   2.408
18102SOL     OW56202   2.430  10.133   2.250
18102SOL    HW156203   2.469  10.128   2.163
18102SOL    HW256204   2.336  10.127   2.235
18103SOL     OW56205  13.617   1.765   2.662
18103SOL    HW156206  13.687   1.708   2.630
18103SOL    HW256207  13.587   1.813   2.585
18104SOL     OW56208  13.475  11.013  11.470
18104SOL    HW156209  13.448  10.992  11.560
18104SOL    HW256210  13.422  10.957  11.415
18105SOL     OW56211   9.263  11.631   9.398
18105SOL    HW156212   9.327  11.644   9.468
18105SOL    HW256213   9.245  11.720   9.367
18106SOL     OW56214  14.813   9.867  12.227
18106SOL    HW156215  14.810   9.908  12.141
18106SOL    HW256216  14.826   9.940  12.288
18107SOL     OW56217   6.847   3.149   0.610
18107SOL    HW156218   6.817   3.185   0.693
18107SOL    HW256219   6.787   3.077   0.592
18108SOL     OW56220  10.421   5.850   7.623
18108SOL    HW156221  10.336   5.809   7.642
18108SOL    HW256222  10.471   5.781   7.580
18109SOL     OW56223   4.785   1.450   4.043
18109SOL    HW156224   4.880   1.450   4.046
18109SOL    HW256225   4.764   1.488   3.957
18110SOL     OW56226   0.433  10.589   9.848
18110SOL    HW156227   0.444  10.506   9.895
18110SOL    HW256228   0.409  10.562   9.759
18111SOL     OW56229   5.543   2.698   6.500
18111SOL    HW156230   5.586   2.748   6.431
18111SOL    HW256231   5.615   2.671   6.558
18112SOL     OW56232  10.418   7.859   5.144
18112SOL    HW156233  10.478   7.934   5.141
18112SOL    HW256234  10.334   7.897   5.171
18113SOL     OW56235   0.763   0.839   1.986
18113SOL    HW156236   0.699   0.897   2.029
18113SOL    HW256237   0.764   0.761   2.041
18114SOL     OW56238  12.952   5.136   1.820
18114SOL    HW156239  12.949   5.041   1.829
18114SOL    HW256240  12.909   5.154   1.737
18115SOL     OW56241  14.448   5.357  13.541
18115SOL    HW156242  14.462   5.449  13.520
18115SOL    HW256243  14.381   5.357  13.609
18116SOL     OW56244   7.050   2.279  12.159
18116SOL    HW156245   7.128   2.233  12.191
18116SOL    HW256246   7.041   2.250  12.068
18117SOL     OW56247   6.983   0.915  13.373
18117SOL    HW156248   6.958   0.930  13.464
18117SOL    HW256249   6.916   0.961  13.322
18118SOL     OW56250   6.709   8.750  11.331
18118SOL    HW156251   6.643   8.706  11.384
18118SOL    HW256252   6.756   8.807  11.393
18119SOL     OW56253   7.610   9.978   4.741
18119SOL    HW156254   7.559   9.981   4.822
18119SOL    HW256255   7.640   9.887   4.735
18120SOL     OW56256   4.297   6.917   0.608
18120SOL    HW156257   4.298   6.965   0.691
18120SOL    HW256258   4.335   6.978   0.545
18121SOL     OW56259  11.911   1.182   4.135
18121SOL    HW156260  11.866   1.150   4.214
18121SOL    HW256261  11.845   1.233   4.089
18122SOL     OW56262   8.862   8.965  10.846
18122SOL    HW156263   8.767   8.967  10.842
18122SOL    HW256264   8.885   9.027  10.915
18123SOL     OW56265  12.489  11.601  14.355
18123SOL    HW156266  12.491  11.575  14.263
18123SOL    HW256267  12.580  11.616  14.378
18124SOL     OW56268   1.676  11.047   2.049
18124SOL    HW156269   1.742  11.099   2.003
18124SOL    HW256270   1.631  11.109   2.106
18125SOL     OW56271   0.232   5.213  13.405
18125SOL    HW156272   0.215   5.166  13.487
18125SOL    HW256273   0.308   5.169  13.367
18126SOL     OW56274  10.218   7.190   6.918
18126SOL    HW156275  10.163   7.122   6.879
18126SOL    HW256276  10.203   7.182   7.012
18127SOL     OW56277   0.195   9.645  14.124
18127SOL    HW156278   0.266   9.704  14.098
18127SOL    HW256279   0.164   9.681  14.208
18128SOL     OW56280   0.953  14.041   1.539
18128SOL    HW156281   0.860  14.047   1.563
18128SOL    HW256282   0.956  13.978   1.467
18129SOL     OW56283  10.836   3.337  10.651
18129SOL    HW156284  10.784   3.350  10.571
18129SOL    HW256285  10.777   3.289  10.710
18130SOL     OW56286   1.192   5.623   2.626
18130SOL    HW156287   1.142   5.578   2.559
18130SOL    HW256288   1.244   5.688   2.578
18131SOL     OW56289   1.131  12.589   2.487
18131SOL    HW156290   1.152  12.526   2.418
18131SOL    HW256291   1.111  12.670   2.441
18132SOL     OW56292   6.471   7.121  14.707
18132SOL    HW156293   6.428   7.133  14.791
18132SOL    HW256294   6.498   7.209  14.681
18133SOL     OW56295   6.431   9.835   9.911
18133SOL    HW156296   6.489   9.761   9.930
18133SOL    HW256297   6.423   9.836   9.815
18134SOL     OW56298  10.757   9.657   0.111
18134SOL    HW156299  10.757   9.564   0.136
18134SOL    HW256300  10.665   9.677   0.097
18135SOL     OW56301   7.289   8.095   3.695
18135SOL    HW156302   7.200   8.069   3.717
18135SOL    HW256303   7.285   8.191   3.691
18136SOL     OW56304   4.790  11.165   5.584
18136SOL    HW156305   4.877  11.153   5.545
18136SOL    HW256306   4.807  11.212   5.666
18137SOL     OW56307   3.751   9.372   2.863
18137SOL    HW156308   3.818   9.304   2.871
18137SOL    HW256309   3.791   9.449   2.904
18138SOL     OW56310   7.574   7.838   8.399
18138SOL    HW156311   7.500   7.793   8.359
18138SOL    HW256312   7.648   7.817   8.342
18139SOL     OW56313   9.496   1.667   2.073
18139SOL    HW156314   9.453   1.685   1.990
18139SOL    HW256315   9.441   1.710   2.138
18140SOL     OW56316   6.553  12.848   9.386
18140SOL    HW156317   6.560  12.858   9.481
18140SOL    HW256318   6.477  12.792   9.373
18141SOL     OW56319   1.986   8.922   7.942
18141SOL    HW156320   1.988   8.991   7.875
18141SOL    HW256321   2.056   8.862   7.917
18142SOL     OW56322  10.155  14.609   2.053
18142SOL    HW156323  10.075  14.652   2.082
18142SOL    HW256324  10.129  14.555   1.978
18143SOL     OW56325   6.619  14.829  12.462
18143SOL    HW156326   6.588  14.841  12.372
18143SOL    HW256327   6.675  14.752  12.458
18144SOL     OW56328   0.477  14.764   3.048
18144SOL    HW156329   0.399  14.720   3.083
18144SOL    HW256330   0.527  14.790   3.125
18145SOL     OW56331   4.941  12.450  10.323
18145SOL    HW156332   5.002  12.478  10.392
18145SOL    HW256333   4.892  12.378  10.362
18146SOL     OW56334  10.286  13.109   4.307
18146SOL    HW156335  10.270  13.068   4.222
18146SOL    HW256336  10.378  13.133   4.306
18147SOL     OW56337   8.765   4.121   0.504
18147SOL    HW156338   8.739   4.209   0.477
18147SOL    HW256339   8.692   4.065   0.478
18148SOL     OW56340   9.607   2.810   9.749
18148SOL    HW156341   9.555   2.872   9.697
18148SOL    HW256342   9.692   2.806   9.705
18149SOL     OW56343   1.527   4.101   2.970
18149SOL    HW156344   1.457   4.163   2.992
18149SOL    HW256345   1.608   4.147   2.989
18150SOL     OW56346   9.940  13.030   3.558
18150SOL    HW156347  10.000  13.046   3.485
18150SOL    HW256348   9.869  13.093   3.545
18151SOL     OW56349   1.375  13.935   3.434
18151SOL    HW156350   1.325  13.999   3.384
18151SOL    HW256351   1.373  13.856   3.380
18152SOL     OW56352  11.878  10.731  10.187
18152SOL    HW156353  11.926  10.732  10.103
18152SOL    HW256354  11.821  10.807  10.183
18153SOL     OW56355   6.468   2.469  12.811
18153SOL    HW156356   6.551   2.496  12.848
18153SOL    HW256357   6.474   2.492  12.718
18154SOL     OW56358  12.377   1.371   1.791
18154SOL    HW156359  12.401   1.431   1.862
18154SOL    HW256360  12.378   1.285   1.832
18155SOL     OW56361  10.433  11.444  10.198
18155SOL    HW156362  10.337  11.451  10.199
18155SOL    HW256363  10.452  11.369  10.255
18156SOL     OW56364  13.705   9.877   9.562
18156SOL    HW156365  13.683   9.878   9.655
18156SOL    HW256366  13.664   9.955   9.526
18157SOL     OW56367   1.561   6.879   5.779
18157SOL    HW156368   1.477   6.898   5.739
18157SOL    HW256369   1.605   6.819   5.718
18158SOL     OW56370   1.747   3.979  10.887
18158SOL    HW156371   1.775   4.003  10.799
18158SOL    HW256372   1.654   3.957  10.877
18159SOL     OW56373   8.631   0.984   5.773
18159SOL    HW156374   8.647   0.945   5.688
18159SOL    HW256375   8.686   1.062   5.774
18160SOL     OW56376  11.200   2.466   6.805
18160SOL    HW156377  11.173   2.392   6.751
18160SOL    HW256378  11.292   2.480   6.783
18161SOL     OW56379   7.880  11.130  12.032
18161SOL    HW156380   7.787  11.110  12.038
18161SOL    HW256381   7.899  11.176  12.114
18162SOL     OW56382   5.940   4.328   5.019
18162SOL    HW156383   5.863   4.283   4.984
18162SOL    HW256384   5.916   4.353   5.108
18163SOL     OW56385   0.531   8.177  13.153
18163SOL    HW156386   0.487   8.198  13.236
18163SOL    HW256387   0.566   8.260  13.123
18164SOL     OW56388   0.479  14.667   0.379
18164SOL    HW156389   0.484  14.636   0.288
18164SOL    HW256390   0.446  14.593   0.429
18165SOL     OW56391   1.876  14.656  10.416
18165SOL    HW156392   1.805  14.652  10.352
18165SOL    HW256393   1.900  14.748  10.420
18166SOL     OW56394   0.426   2.182   0.548
18166SOL    HW156395   0.395   2.112   0.492
18166SOL    HW256396   0.518   2.161   0.565
18167SOL     OW56397  10.963  13.545  13.920
18167SOL    HW156398  10.936  13.462  13.958
18167SOL    HW256399  10.899  13.562  13.851
18168SOL     OW56400   6.756   4.330   1.614
18168SOL    HW156401   6.678   4.378   1.587
18168SOL    HW256402   6.733   4.238   1.601
18169SOL     OW56403   0.768   7.030   6.220
18169SOL    HW156404   0.803   7.051   6.133
18169SOL    HW256405   0.707   6.959   6.204
18170SOL     OW56406   3.890   3.719  13.360
18170SOL    HW156407   3.926   3.802  13.391
18170SOL    HW256408   3.876   3.731  13.267
18171SOL     OW56409   1.959   6.773  14.200
18171SOL    HW156410   1.921   6.750  14.285
18171SOL    HW256411   1.933   6.864  14.185
18172SOL     OW56412   6.913  11.482  13.999
18172SOL    HW156413   6.856  11.462  14.073
18172SOL    HW256414   6.859  11.535  13.941
18173SOL     OW56415   5.402  10.267  12.314
18173SOL    HW156416   5.454  10.242  12.390
18173SOL    HW256417   5.324  10.309  12.351
18174SOL     OW56418   4.291  13.637  12.460
18174SOL    HW156419   4.287  13.677  12.373
18174SOL    HW256420   4.368  13.676  12.501
18175SOL     OW56421   8.056   3.951   2.657
18175SOL    HW156422   7.977   4.001   2.636
18175SOL    HW256423   8.032   3.860   2.641
18176SOL     OW56424  10.687   7.861   1.969
18176SOL    HW156425  10.658   7.920   2.038
18176SOL    HW256426  10.656   7.775   1.996
18177SOL     OW56427  11.327  12.280   5.720
18177SOL    HW156428  11.312  12.251   5.630
18177SOL    HW256429  11.244  12.318   5.747
18178SOL     OW56430   1.177   3.558  11.068
18178SOL    HW156431   1.167   3.484  11.128
18178SOL    HW256432   1.096   3.558  11.016
18179SOL     OW56433  10.121  13.715   8.154
18179SOL    HW156434  10.182  13.677   8.218
18179SOL    HW256435  10.093  13.641   8.101
18180SOL     OW56436  12.920   4.499  13.996
18180SOL    HW156437  12.886   4.412  14.015
18180SOL    HW256438  12.940   4.498  13.902
18181SOL     OW56439   5.610  10.749  11.445
18181SOL    HW156440   5.613  10.664  11.402
18181SOL    HW256441   5.570  10.732  11.530
18182SOL     OW56442   1.884   7.100   9.963
18182SOL    HW156443   1.855   7.181   9.920
18182SOL    HW256444   1.956   7.069   9.907
18183SOL     OW56445  11.664   1.685   2.990
18183SOL    HW156446  11.703   1.611   2.943
18183SOL    HW256447  11.683   1.761   2.934
18184SOL     OW56448  14.804   3.753  10.881
18184SOL    HW156449  14.768   3.664  10.877
18184SOL    HW256450  14.727   3.810  10.884
18185SOL     OW56451  13.427   5.803  10.966
18185SOL    HW156452  13.335   5.827  10.950
18185SOL    HW256453  13.429   5.708  10.951
18186SOL     OW56454   6.498   2.320  13.785
18186SOL    HW156455   6.487   2.373  13.864
18186SOL    HW256456   6.543   2.379  13.724
18187SOL     OW56457  14.546   9.408   9.328
18187SOL    HW156458  14.601   9.458   9.268
18187SOL    HW256459  14.482   9.472   9.361
18188SOL     OW56460   5.411  13.679  14.791
18188SOL    HW156461   5.338  13.617  14.794
18188SOL    HW256462   5.408  13.724   0.003
18189SOL     OW56463  14.662  14.586   1.224
18189SOL    HW156464  14.638  14.659   1.281
18189SOL    HW256465  14.587  14.575   1.165
18190SOL     OW56466  11.540   3.961   1.974
18190SOL    HW156467  11.555   3.867   1.976
18190SOL    HW256468  11.532   3.986   2.066
18191SOL     OW56469  10.302  12.087   2.373
18191SOL    HW156470  10.324  12.175   2.404
18191SOL    HW256471  10.345  12.028   2.435
18192SOL     OW56472  14.296   1.022  12.215
18192SOL    HW156473  14.301   1.100  12.159
18192SOL    HW256474  14.208   0.987  12.199
18193SOL     OW56475  10.886   0.464  11.483
18193SOL    HW156476  10.864   0.519  11.559
18193SOL    HW256477  10.881   0.524  11.408
18194SOL     OW56478   9.052   4.153   4.249
18194SOL    HW156479   9.041   4.220   4.182
18194SOL    HW256480   9.026   4.196   4.330
18195SOL     OW56481   1.884   7.035   5.084
18195SOL    HW156482   1.830   7.063   5.158
18195SOL    HW256483   1.827   6.978   5.032
18196SOL     OW56484  13.973   2.305   3.850
18196SOL    HW156485  14.003   2.388   3.815
18196SOL    HW256486  13.881   2.299   3.824
18197SOL     OW56487   9.439  10.030  10.846
18197SOL    HW156488   9.483  10.013  10.763
18197SOL    HW256489   9.447   9.948  10.895
18198SOL     OW56490   3.188   9.462   3.521
18198SOL    HW156491   3.114   9.514   3.553
18198SOL    HW256492   3.221   9.512   3.447
18199SOL     OW56493   6.109   6.483   8.015
18199SOL    HW156494   6.115   6.566   7.969
18199SOL    HW256495   6.157   6.497   8.096
18200SOL     OW56496  12.897  13.888   3.066
18200SOL    HW156497  12.987  13.895   3.036
18200SOL    HW256498  12.860  13.975   3.053
18201SOL     OW56499  13.481   0.401   4.185
18201SOL    HW156500  13.468   0.334   4.253
18201SOL    HW256501  13.497   0.482   4.233
18202SOL     OW56502  11.904   7.724   7.022
18202SOL    HW156503  11.823   7.754   7.063
18202SOL    HW256504  11.880   7.641   6.980
18203SOL     OW56505   6.354  12.571   9.617
18203SOL    HW156506   6.383  12.481   9.599
18203SOL    HW256507   6.276  12.582   9.562
18204SOL     OW56508   3.307  10.616   7.971
18204SOL    HW156509   3.308  10.710   7.951
18204SOL    HW256510   3.305  10.612   8.066
18205SOL     OW56511   1.389  12.928  10.982
18205SOL    HW156512   1.478  12.894  10.993
18205SOL    HW256513   1.376  12.930  10.887
18206SOL     OW56514   2.647   4.159   4.305
18206SOL    HW156515   2.731   4.168   4.261
18206SOL    HW256516   2.586   4.135   4.235
18207SOL     OW56517   0.077  12.442   4.421
18207SOL    HW156518   0.047  12.399   4.341
18207SOL    HW256519   0.160  12.483   4.397
18208SOL     OW56520   8.624   5.681  11.061
18208SOL    HW156521   8.539   5.715  11.090
18208SOL    HW256522   8.677   5.677  11.140
18209SOL     OW56523   1.939  13.280   1.615
18209SOL    HW156524   2.019  13.232   1.594
18209SOL    HW256525   1.907  13.238   1.696
18210SOL     OW56526   9.198  13.997   1.489
18210SOL    HW156527   9.116  13.999   1.539
18210SOL    HW256528   9.172  14.022   1.400
18211SOL     OW56529   7.778   9.471   2.734
18211SOL    HW156530   7.850   9.500   2.789
18211SOL    HW256531   7.742   9.395   2.780
18212SOL     OW56532   8.171   6.628   8.057
18212SOL    HW156533   8.182   6.719   8.028
18212SOL    HW256534   8.077   6.612   8.051
18213SOL     OW56535   1.094   0.710   1.304
18213SOL    HW156536   1.011   0.719   1.351
18213SOL    HW256537   1.068   0.694   1.213
18214SOL     OW56538   1.657   4.237   3.207
18214SOL    HW156539   1.653   4.332   3.196
18214SOL    HW256540   1.584   4.217   3.267
18215SOL     OW56541  10.521   1.806  13.606
18215SOL    HW156542  10.525   1.898  13.634
18215SOL    HW256543  10.506   1.810  13.512
18216SOL     OW56544   0.419   5.517  14.241
18216SOL    HW156545   0.410   5.446  14.304
18216SOL    HW256546   0.421   5.474  14.155
18217SOL     OW56547  14.595   4.353   5.687
18217SOL    HW156548  14.646   4.368   5.608
18217SOL    HW256549  14.649   4.293   5.739
18218SOL     OW56550  10.836   0.576   8.434
18218SOL    HW156551  10.908   0.638   8.451
18218SOL    HW256552  10.800   0.557   8.521
18219SOL     OW56553   1.076   0.860   4.553
18219SOL    HW156554   1.108   0.943   4.518
18219SOL    HW256555   1.142   0.796   4.525
18220SOL     OW56556   2.152   1.282  14.491
18220SOL    HW156557   2.062   1.257  14.467
18220SOL    HW256558   2.181   1.212  14.549
18221SOL     OW56559   7.823  10.451   0.621
18221SOL    HW156560   7.754  10.422   0.561
18221SOL    HW256561   7.860  10.529   0.580
18222SOL     OW56562  13.113  13.861   2.360
18222SOL    HW156563  13.182  13.833   2.300
18222SOL    HW256564  13.082  13.944   2.323
18223SOL     OW56565   1.230   1.410   3.578
18223SOL    HW156566   1.157   1.458   3.617
18223SOL    HW256567   1.190   1.328   3.548
18224SOL     OW56568  11.059  10.075  14.702
18224SOL    HW156569  11.015   9.991  14.704
18224SOL    HW256570  11.151  10.055  14.722
18225SOL     OW56571   7.350   2.059   3.758
18225SOL    HW156572   7.356   2.154   3.761
18225SOL    HW256573   7.413   2.032   3.690
18226SOL     OW56574  13.816   0.152  10.859
18226SOL    HW156575  13.829   0.235  10.813
18226SOL    HW256576  13.884   0.094  10.823
18227SOL     OW56577   3.991   9.289   8.289
18227SOL    HW156578   4.073   9.241   8.278
18227SOL    HW256579   4.016   9.373   8.328
18228SOL     OW56580   9.069   6.781   3.947
18228SOL    HW156581   9.130   6.714   3.978
18228SOL    HW256582   8.995   6.731   3.911
18229SOL     OW56583   2.016   7.843   3.438
18229SOL    HW156584   1.982   7.761   3.474
18229SOL    HW256585   2.105   7.849   3.470
18230SOL     OW56586  14.353  10.803   4.092
18230SOL    HW156587  14.405  10.821   4.170
18230SOL    HW256588  14.403  10.736   4.045
18231SOL     OW56589   1.299  11.080  11.826
18231SOL    HW156590   1.375  11.133  11.849
18231SOL    HW256591   1.243  11.084  11.904
18232SOL     OW56592   4.275   0.389   3.863
18232SOL    HW156593   4.266   0.371   3.956
18232SOL    HW256594   4.185   0.392   3.830
18233SOL     OW56595   0.088  10.411   1.468
18233SOL    HW156596   0.029  10.345   1.430
18233SOL    HW256597   0.142  10.439   1.395
18234SOL     OW56598   4.949   9.259  10.196
18234SOL    HW156599   4.915   9.273  10.284
18234SOL    HW256600   5.037   9.297  10.198
18235SOL     OW56601   9.872   6.103  10.062
18235SOL    HW156602   9.883   6.198  10.054
18235SOL    HW256603   9.918   6.080  10.142
18236SOL     OW56604   0.624   5.481   6.890
18236SOL    HW156605   0.674   5.441   6.818
18236SOL    HW256606   0.674   5.459   6.969
18237SOL     OW56607   9.027   8.105   6.874
18237SOL    HW156608   9.082   8.183   6.885
18237SOL    HW256609   9.028   8.063   6.960
18238SOL     OW56610  11.943  13.378   2.778
18238SOL    HW156611  12.012  13.344   2.835
18238SOL    HW256612  11.905  13.451   2.828
18239SOL     OW56613  12.201  10.756   0.587
18239SOL    HW156614  12.115  10.797   0.596
18239SOL    HW256615  12.236  10.755   0.676
18240SOL     OW56616   5.634  13.090  10.570
18240SOL    HW156617   5.621  13.184  10.564
18240SOL    HW256618   5.660  13.074  10.661
18241SOL     OW56619   8.489   6.474   3.649
18241SOL    HW156620   8.541   6.397   3.625
18241SOL    HW256621   8.460   6.456   3.739
18242SOL     OW56622   5.058   8.039   0.598
18242SOL    HW156623   5.026   8.082   0.677
18242SOL    HW256624   5.031   8.098   0.527
18243SOL     OW56625  11.190   8.801  12.967
18243SOL    HW156626  11.254   8.858  13.008
18243SOL    HW256627  11.105   8.843  12.985
18244SOL     OW56628   7.015  14.057   1.122
18244SOL    HW156629   7.016  14.109   1.202
18244SOL    HW256630   6.990  13.969   1.150
18245SOL     OW56631  10.256   3.064  10.933
18245SOL    HW156632  10.340   3.023  10.910
18245SOL    HW256633  10.206   3.064  10.851
18246SOL     OW56634   3.148  11.373   4.976
18246SOL    HW156635   3.058  11.406   4.974
18246SOL    HW256636   3.199  11.445   5.012
18247SOL     OW56637  14.012   8.898   2.944
18247SOL    HW156638  14.092   8.858   2.977
18247SOL    HW256639  14.026   8.992   2.954
18248SOL     OW56640   3.608   0.021   2.881
18248SOL    HW156641   3.543   0.090   2.870
18248SOL    HW256642   3.635   0.027   2.973
18249SOL     OW56643   0.689   4.673   6.503
18249SOL    HW156644   0.755   4.664   6.434
18249SOL    HW256645   0.706   4.599   6.562
18250SOL     OW56646  10.996   6.877   9.479
18250SOL    HW156647  11.091   6.883   9.470
18250SOL    HW256648  10.975   6.939   9.549
18251SOL     OW56649  10.742   8.089  14.323
18251SOL    HW156650  10.767   8.023  14.388
18251SOL    HW256651  10.774   8.054  14.240
18252SOL     OW56652  11.482   9.156   0.233
18252SOL    HW156653  11.441   9.119   0.155
18252SOL    HW256654  11.435   9.237   0.249
18253SOL     OW56655   2.076   1.203   5.875
18253SOL    HW156656   2.000   1.239   5.830
18253SOL    HW256657   2.081   1.112   5.847
18254SOL     OW56658   4.455   4.974   5.056
18254SOL    HW156659   4.395   4.973   4.981
18254SOL    HW256660   4.411   5.027   5.122
18255SOL     OW56661  10.526  11.722   5.787
18255SOL    HW156662  10.460  11.680   5.732
18255SOL    HW256663  10.605  11.670   5.774
18256SOL     OW56664  12.489   9.614  11.483
18256SOL    HW156665  12.464   9.575  11.399
18256SOL    HW256666  12.477   9.708  11.471
18257SOL     OW56667   8.319  11.447   3.932
18257SOL    HW156668   8.299  11.400   3.851
18257SOL    HW256669   8.285  11.390   4.002
18258SOL     OW56670   6.469   1.562  11.901
18258SOL    HW156671   6.483   1.568  11.996
18258SOL    HW256672   6.381   1.596  11.888
18259SOL     OW56673   6.500   4.981   7.860
18259SOL    HW156674   6.420   4.928   7.855
18259SOL    HW256675   6.549   4.958   7.781
18260SOL     OW56676  14.183   6.920  13.725
18260SOL    HW156677  14.153   7.008  13.747
18260SOL    HW256678  14.257   6.904  13.784
18261SOL     OW56679   9.447  14.364  12.542
18261SOL    HW156680   9.375  14.415  12.580
18261SOL    HW256681   9.493  14.328  12.618
18262SOL     OW56682   3.042   7.749  13.786
18262SOL    HW156683   2.991   7.721  13.862
18262SOL    HW256684   3.062   7.668  13.739
18263SOL     OW56685   6.084   9.321  14.489
18263SOL    HW156686   6.101   9.266  14.566
18263SOL    HW256687   6.168   9.327  14.445
18264SOL     OW56688  13.316  13.301   8.869
18264SOL    HW156689  13.390  13.299   8.929
18264SOL    HW256690  13.313  13.392   8.838
18265SOL     OW56691  11.220   7.763   4.495
18265SOL    HW156692  11.241   7.850   4.530
18265SOL    HW256693  11.151   7.779   4.431
18266SOL     OW56694  12.909   1.349   6.231
18266SOL    HW156695  12.969   1.285   6.271
18266SOL    HW256696  12.869   1.394   6.305
18267SOL     OW56697   5.417   8.427   9.051
18267SOL    HW156698   5.487   8.414   8.986
18267SOL    HW256699   5.440   8.510   9.093
18268SOL     OW56700   0.790   0.790   5.207
18268SOL    HW156701   0.708   0.783   5.159
18268SOL    HW256702   0.768   0.843   5.284
18269SOL     OW56703  13.661   0.696   9.116
18269SOL    HW156704  13.566   0.709   9.116
18269SOL    HW256705  13.679   0.647   9.196
18270SOL     OW56706   4.427   8.078   8.844
18270SOL    HW156707   4.375   8.114   8.916
18270SOL    HW256708   4.467   8.155   8.802
18271SOL     OW56709   7.674   4.602   9.540
18271SOL    HW156710   7.725   4.682   9.529
18271SOL    HW256711   7.735   4.532   9.517
18272SOL     OW56712  10.688   9.665   9.923
18272SOL    HW156713  10.767   9.717   9.936
18272SOL    HW256714  10.715   9.593   9.867
18273SOL     OW56715   2.379  13.735   7.464
18273SOL    HW156716   2.446  13.667   7.465
18273SOL    HW256717   2.406  13.796   7.532
18274SOL     OW56718   4.256   3.193   0.215
18274SOL    HW156719   4.224   3.278   0.184
18274SOL    HW256720   4.284   3.211   0.305
18275SOL     OW56721  12.264   3.888   8.107
18275SOL    HW156722  12.190   3.877   8.167
18275SOL    HW256723  12.294   3.977   8.122
18276SOL     OW56724  14.285   6.129   7.114
18276SOL    HW156725  14.216   6.101   7.174
18276SOL    HW256726  14.320   6.047   7.078
18277SOL     OW56727   7.174  10.566   8.380
18277SOL    HW156728   7.141  10.476   8.371
18277SOL    HW256729   7.148  10.609   8.298
18278SOL     OW56730  10.202   0.686  14.860
18278SOL    HW156731  10.145   0.732  14.799
18278SOL    HW256732  10.162   0.700   0.075
18279SOL     OW56733   0.676   3.837  12.673
18279SOL    HW156734   0.723   3.919  12.666
18279SOL    HW256735   0.600   3.857  12.728
18280SOL     OW56736   2.603   2.643  13.770
18280SOL    HW156737   2.645   2.558  13.778
18280SOL    HW256738   2.549   2.650  13.849
18281SOL     OW56739   3.906   8.684   9.474
18281SOL    HW156740   3.955   8.675   9.392
18281SOL    HW256741   3.838   8.617   9.468
18282SOL     OW56742   9.795   2.883  11.516
18282SOL    HW156743   9.819   2.812  11.576
18282SOL    HW256744   9.867   2.886  11.454
18283SOL     OW56745   6.468   1.717   1.709
18283SOL    HW156746   6.564   1.719   1.714
18283SOL    HW256747   6.440   1.743   1.797
18284SOL     OW56748   5.818   8.355   7.554
18284SOL    HW156749   5.878   8.356   7.629
18284SOL    HW256750   5.768   8.436   7.564
18285SOL     OW56751   9.474  14.270   1.265
18285SOL    HW156752   9.426  14.258   1.348
18285SOL    HW256753   9.541  14.202   1.266
18286SOL     OW56754  10.771  11.575  13.755
18286SOL    HW156755  10.748  11.587  13.847
18286SOL    HW256756  10.772  11.664  13.720
18287SOL     OW56757  14.330  13.433   7.922
18287SOL    HW156758  14.236  13.439   7.937
18287SOL    HW256759  14.366  13.399   8.005
18288SOL     OW56760   5.792  13.667   1.444
18288SOL    HW156761   5.723  13.674   1.377
18288SOL    HW256762   5.770  13.734   1.508
18289SOL     OW56763   7.141   6.074  14.455
18289SOL    HW156764   7.064   6.117  14.493
18289SOL    HW256765   7.206   6.076  14.525
18290SOL     OW56766   3.000   6.344   8.301
18290SOL    HW156767   2.985   6.300   8.218
18290SOL    HW256768   3.072   6.295   8.341
18291SOL     OW56769   4.913   9.600   4.528
18291SOL    HW156770   4.975   9.553   4.472
18291SOL    HW256771   4.906   9.545   4.606
18292SOL     OW56772   5.513   5.661   8.019
18292SOL    HW156773   5.518   5.570   8.050
18292SOL    HW256774   5.591   5.672   7.965
18293SOL     OW56775   9.738   8.301  11.071
18293SOL    HW156776   9.706   8.324  10.984
18293SOL    HW256777   9.726   8.206  11.076
18294SOL     OW56778   3.208   8.845   7.348
18294SOL    HW156779   3.137   8.904   7.376
18294SOL    HW256780   3.261   8.833   7.427
18295SOL     OW56781   9.263  12.803   6.332
18295SOL    HW156782   9.226  12.806   6.420
18295SOL    HW256783   9.227  12.881   6.289
18296SOL     OW56784   8.921   2.053   8.049
18296SOL    HW156785   9.016   2.058   8.060
18296SOL    HW256786   8.887   2.122   8.105
18297SOL     OW56787   6.677  13.251  14.603
18297SOL    HW156788   6.597  13.301  14.617
18297SOL    HW256789   6.737  13.313  14.561
18298SOL     OW56790   6.998   4.212   0.682
18298SOL    HW156791   6.979   4.300   0.650
18298SOL    HW256792   7.083   4.190   0.645
18299SOL     OW56793  10.194   5.701  14.048
18299SOL    HW156794  10.174   5.786  14.088
18299SOL    HW256795  10.121   5.645  14.071
18300SOL     OW56796   2.724   6.664   9.515
18300SOL    HW156797   2.675   6.582   9.526
18300SOL    HW256798   2.762   6.656   9.427
18301SOL     OW56799   7.962   0.815   3.647
18301SOL    HW156800   7.889   0.759   3.622
18301SOL    HW256801   8.010   0.829   3.565
18302SOL     OW56802  12.840   2.648   1.327
18302SOL    HW156803  12.801   2.605   1.402
18302SOL    HW256804  12.818   2.591   1.253
18303SOL     OW56805   2.780   3.646   0.746
18303SOL    HW156806   2.867   3.673   0.773
18303SOL    HW256807   2.794   3.597   0.665
18304SOL     OW56808   9.457   7.613   2.260
18304SOL    HW156809   9.493   7.678   2.201
18304SOL    HW256810   9.462   7.654   2.347
18305SOL     OW56811   6.658   0.651   3.999
18305SOL    HW156812   6.745   0.618   3.978
18305SOL    HW256813   6.630   0.698   3.920
18306SOL     OW56814   7.696   0.963  11.677
18306SOL    HW156815   7.637   0.907  11.727
18306SOL    HW256816   7.693   0.929  11.588
18307SOL     OW56817  11.116   1.740   3.089
18307SOL    HW156818  11.099   1.816   3.145
18307SOL    HW256819  11.124   1.667   3.150
18308SOL     OW56820   0.236   7.648   7.224
18308SOL    HW156821   0.281   7.731   7.213
18308SOL    HW256822   0.251   7.601   7.142
18309SOL     OW56823  11.598   2.865   9.039
18309SOL    HW156824  11.558   2.874   8.952
18309SOL    HW256825  11.602   2.771   9.055
18310SOL     OW56826   3.056   7.043   7.049
18310SOL    HW156827   3.001   6.975   7.089
18310SOL    HW256828   3.046   7.030   6.955
18311SOL     OW56829   1.578   1.867   7.297
18311SOL    HW156830   1.584   1.854   7.392
18311SOL    HW256831   1.640   1.938   7.279
18312SOL     OW56832  12.984   5.741   8.956
18312SOL    HW156833  12.934   5.666   8.989
18312SOL    HW256834  12.939   5.817   8.993
18313SOL     OW56835   8.834   3.877  10.411
18313SOL    HW156836   8.763   3.835  10.362
18313SOL    HW256837   8.834   3.834  10.496
18314SOL     OW56838   3.365   2.693  10.379
18314SOL    HW156839   3.354   2.613  10.328
18314SOL    HW256840   3.452   2.685  10.418
18315SOL     OW56841   4.281   2.699   5.037
18315SOL    HW156842   4.306   2.660   4.954
18315SOL    HW256843   4.191   2.729   5.024
18316SOL     OW56844   0.724  11.311  13.962
18316SOL    HW156845   0.781  11.301  14.038
18316SOL    HW256846   0.783  11.334  13.891
18317SOL     OW56847   8.491   8.659  13.997
18317SOL    HW156848   8.434   8.720  14.045
18317SOL    HW256849   8.446   8.645  13.914
18318SOL     OW56850   0.366   8.062  12.399
18318SOL    HW156851   0.416   8.062  12.481
18318SOL    HW256852   0.431   8.042  12.331
18319SOL     OW56853  12.885   0.890   7.740
18319SOL    HW156854  12.817   0.919   7.800
18319SOL    HW256855  12.852   0.808   7.703
18320SOL     OW56856   8.215   9.621  11.664
18320SOL    HW156857   8.147   9.594  11.602
18320SOL    HW256858   8.244   9.540  11.705
18321SOL     OW56859   1.172   6.975   7.789
18321SOL    HW156860   1.103   6.915   7.816
18321SOL    HW256861   1.245   6.956   7.848
18322SOL     OW56862   1.657  10.959  11.129
18322SOL    HW156863   1.617  10.971  11.215
18322SOL    HW256864   1.592  10.994  11.067
18323SOL     OW56865   2.653   1.094   0.407
18323SOL    HW156866   2.635   1.026   0.472
18323SOL    HW256867   2.721   1.148   0.448
18324SOL     OW56868   8.243   6.346   0.997
18324SOL    HW156869   8.274   6.274   1.052
18324SOL    HW256870   8.216   6.304   0.915
18325SOL     OW56871  13.200   0.993   5.775
18325SOL    HW156872  13.173   0.960   5.690
18325SOL    HW256873  13.138   1.062   5.795
18326SOL     OW56874  12.268   3.031  14.098
18326SOL    HW156875  12.339   2.967  14.100
18326SOL    HW256876  12.258   3.059  14.189
18327SOL     OW56877  14.193  10.249  12.234
18327SOL    HW156878  14.224  10.162  12.209
18327SOL    HW256879  14.258  10.281  12.297
18328SOL     OW56880  14.256   8.444   7.782
18328SOL    HW156881  14.284   8.397   7.703
18328SOL    HW256882  14.164   8.420   7.793
18329SOL     OW56883  11.918   1.568   1.181
18329SOL    HW156884  11.998   1.606   1.147
18329SOL    HW256885  11.875   1.528   1.106
18330SOL     OW56886   5.504  13.739   6.572
18330SOL    HW156887   5.426  13.750   6.519
18330SOL    HW256888   5.539  13.653   6.546
18331SOL     OW56889   2.762  11.373  13.063
18331SOL    HW156890   2.781  11.465  13.046
18331SOL    HW256891   2.820  11.349  13.136
18332SOL     OW56892   0.066   6.489   5.165
18332SOL    HW156893   0.088   6.413   5.110
18332SOL    HW256894   0.075   6.564   5.106
18333SOL     OW56895   0.890  14.495   7.108
18333SOL    HW156896   0.866  14.405   7.085
18333SOL    HW256897   0.828  14.519   7.176
18334SOL     OW56898   0.026  14.370   7.544
18334SOL    HW156899   0.003  14.457   7.575
18334SOL    HW256900  14.869  14.311   7.614
18335SOL     OW56901  14.846  13.983   2.280
18335SOL    HW156902   0.015  14.067   2.261
18335SOL    HW256903   0.034  13.919   2.240
18336SOL     OW56904   3.643   5.310   5.604
18336SOL    HW156905   3.560   5.310   5.651
18336SOL    HW256906   3.638   5.387   5.546
18337SOL     OW56907   0.769   7.191  10.155
18337SOL    HW156908   0.816   7.235  10.084
18337SOL    HW256909   0.836   7.142  10.202
18338SOL     OW56910   5.417   0.309   9.455
18338SOL    HW156911   5.345   0.246   9.453
18338SOL    HW256912   5.466   0.291   9.375
18339SOL     OW56913  11.959   5.403  11.318
18339SOL    HW156914  11.927   5.472  11.377
18339SOL    HW256915  11.882   5.351  11.297
18340SOL     OW56916  11.685  13.010   6.381
18340SOL    HW156917  11.625  12.944   6.416
18340SOL    HW256918  11.675  13.002   6.286
18341SOL     OW56919   7.687  13.893   4.895
18341SOL    HW156920   7.760  13.834   4.877
18341SOL    HW256921   7.654  13.918   4.809
18342SOL     OW56922  14.031   1.532   1.288
18342SOL    HW156923  13.954   1.550   1.234
18342SOL    HW256924  14.048   1.615   1.333
18343SOL     OW56925   8.642   0.633   6.336
18343SOL    HW156926   8.731   0.654   6.306
18343SOL    HW256927   8.626   0.546   6.300
18344SOL     OW56928  11.078   0.087   5.331
18344SOL    HW156929  11.012   0.052   5.390
18344SOL    HW256930  11.082   0.181   5.351
18345SOL     OW56931   8.706  10.163  12.727
18345SOL    HW156932   8.763  10.124  12.793
18345SOL    HW256933   8.619  10.131  12.747
18346SOL     OW56934  10.415   1.789  12.430
18346SOL    HW156935  10.327   1.820  12.447
18346SOL    HW256936  10.409   1.745  12.345
18347SOL     OW56937  10.580   5.244  10.905
18347SOL    HW156938  10.611   5.300  10.833
18347SOL    HW256939  10.507   5.195  10.867
18348SOL     OW56940   3.100   5.684   9.317
18348SOL    HW156941   3.015   5.689   9.359
18348SOL    HW256942   3.085   5.719   9.229
18349SOL     OW56943   0.464   1.551  10.350
18349SOL    HW156944   0.420   1.467  10.362
18349SOL    HW256945   0.398   1.616  10.375
18350SOL     OW56946  14.777  10.449  12.581
18350SOL    HW156947  14.730  10.379  12.535
18350SOL    HW256948  14.853  10.405  12.619
18351SOL     OW56949  13.183   4.037  12.436
18351SOL    HW156950  13.192   4.014  12.343
18351SOL    HW256951  13.147   3.958  12.477
18352SOL     OW56952   3.755   8.210  10.898
18352SOL    HW156953   3.796   8.138  10.851
18352SOL    HW256954   3.755   8.283  10.836
18353SOL     OW56955   5.672  14.724   5.351
18353SOL    HW156956   5.759  14.706   5.387
18353SOL    HW256957   5.688  14.751   5.261
18354SOL     OW56958  13.070   9.425   8.003
18354SOL    HW156959  13.012   9.379   8.063
18354SOL    HW256960  13.108   9.495   8.055
18355SOL     OW56961   8.494  10.984   1.145
18355SOL    HW156962   8.547  11.037   1.086
18355SOL    HW256963   8.538  10.899   1.147
18356SOL     OW56964  13.320   3.597   2.567
18356SOL    HW156965  13.254   3.648   2.520
18356SOL    HW256966  13.387   3.661   2.592
18357SOL     OW56967   8.978   2.080  11.685
18357SOL    HW156968   9.028   2.147  11.638
18357SOL    HW256969   8.887   2.098  11.660
18358SOL     OW56970   4.824   6.342   2.676
18358SOL    HW156971   4.893   6.298   2.725
18358SOL    HW256972   4.772   6.271   2.638
18359SOL     OW56973   9.097   8.779  13.117
18359SOL    HW156974   9.105   8.683  13.114
18359SOL    HW256975   9.013   8.797  13.076
18360SOL     OW56976   7.371  13.370  12.910
18360SOL    HW156977   7.427  13.440  12.876
18360SOL    HW256978   7.420  13.290  12.891
18361SOL     OW56979  13.760  14.856   6.194
18361SOL    HW156980  13.715   0.017   6.272
18361SOL    HW256981  13.761  14.761   6.204
18362SOL     OW56982   7.613  13.128  10.567
18362SOL    HW156983   7.529  13.174  10.567
18362SOL    HW256984   7.594  13.042  10.604
18363SOL     OW56985   9.041  14.146   7.939
18363SOL    HW156986   9.123  14.132   7.987
18363SOL    HW256987   8.977  14.093   7.987
18364SOL     OW56988  13.091  14.428   5.807
18364SOL    HW156989  13.032  14.382   5.867
18364SOL    HW256990  13.167  14.449   5.861
18365SOL     OW56991  11.950   2.899   4.446
18365SOL    HW156992  12.025   2.844   4.423
18365SOL    HW256993  11.983   2.954   4.518
18366SOL     OW56994   0.318   5.086   8.882
18366SOL    HW156995   0.302   5.181   8.883
18366SOL    HW256996   0.241   5.050   8.838
18367SOL     OW56997   5.610   4.614   5.040
18367SOL    HW156998   5.536   4.671   5.018
18367SOL    HW256999   5.620   4.557   4.964
18368SOL     OW57000   9.957  12.737   0.694
18368SOL    HW157001   9.876  12.700   0.657
18368SOL    HW257002  10.025  12.716   0.631
18369SOL     OW57003   9.742  14.685  12.608
18369SOL    HW157004   9.694  14.757  12.568
18369SOL    HW257005   9.763  14.626  12.536
18370SOL     OW57006  12.700   4.108  13.316
18370SOL    HW157007  12.730   4.063  13.395
18370SOL    HW257008  12.605   4.094  13.315
18371SOL     OW57009   2.175   2.748   6.064
18371SOL    HW157010   2.202   2.831   6.103
18371SOL    HW257011   2.190   2.683   6.132
18372SOL     OW57012   4.551   2.918   2.801
18372SOL    HW157013   4.488   2.862   2.757
18372SOL    HW257014   4.584   2.976   2.732
18373SOL     OW57015  14.527  10.988  13.837
18373SOL    HW157016  14.531  11.083  13.845
18373SOL    HW257017  14.434  10.967  13.847
18374SOL     OW57018  13.517   6.561  13.499
18374SOL    HW157019  13.593   6.599  13.543
18374SOL    HW257020  13.551   6.529  13.415
18375SOL     OW57021   2.429  12.031  13.070
18375SOL    HW157022   2.402  12.080  13.148
18375SOL    HW257023   2.428  11.940  13.098
18376SOL     OW57024   2.609   2.599  13.258
18376SOL    HW157025   2.585   2.581  13.349
18376SOL    HW257026   2.697   2.637  13.263
18377SOL     OW57027   2.030  11.842   0.068
18377SOL    HW157028   1.957  11.889   0.108
18377SOL    HW257029   2.030  11.757   0.112
18378SOL     OW57030   9.571  14.241   3.376
18378SOL    HW157031   9.580  14.318   3.432
18378SOL    HW257032   9.476  14.225   3.372
18379SOL     OW57033   9.931   7.036   3.622
18379SOL    HW157034   9.903   7.093   3.550
18379SOL    HW257035   9.909   6.947   3.593
18380SOL     OW57036  12.439   9.573  12.642
18380SOL    HW157037  12.414   9.483  12.663
18380SOL    HW257038  12.503   9.565  12.572
18381SOL     OW57039   5.519   3.785   8.161
18381SOL    HW157040   5.554   3.725   8.227
18381SOL    HW257041   5.476   3.853   8.212
18382SOL     OW57042  14.199   5.208   8.178
18382SOL    HW157043  14.228   5.167   8.259
18382SOL    HW257044  14.275   5.256   8.146
18383SOL     OW57045   2.427   7.003   1.932
18383SOL    HW157046   2.442   6.931   1.870
18383SOL    HW257047   2.404   7.078   1.877
18384SOL     OW57048   2.817  10.144   9.215
18384SOL    HW157049   2.764  10.120   9.139
18384SOL    HW257050   2.771  10.219   9.253
18385SOL     OW57051   7.779   1.391  11.278
18385SOL    HW157052   7.787   1.464  11.340
18385SOL    HW257053   7.869   1.365  11.259
18386SOL     OW57054  12.393  14.107   7.980
18386SOL    HW157055  12.390  14.168   7.907
18386SOL    HW257056  12.441  14.031   7.946
18387SOL     OW57057  11.734   1.730   3.733
18387SOL    HW157058  11.782   1.806   3.765
18387SOL    HW257059  11.801   1.664   3.717
18388SOL     OW57060   5.032   6.941   4.835
18388SOL    HW157061   5.050   6.847   4.841
18388SOL    HW257062   5.036   6.972   4.925
18389SOL     OW57063  13.989  10.895   4.339
18389SOL    HW157064  13.973  10.976   4.290
18389SOL    HW257065  13.911  10.884   4.394
18390SOL     OW57066   5.188   1.208   1.881
18390SOL    HW157067   5.111   1.177   1.833
18390SOL    HW257068   5.261   1.158   1.844
18391SOL     OW57069   1.352   0.935   6.121
18391SOL    HW157070   1.294   1.008   6.099
18391SOL    HW257071   1.396   0.962   6.201
18392SOL     OW57072   9.634   1.011   8.626
18392SOL    HW157073   9.701   1.023   8.693
18392SOL    HW257074   9.567   0.957   8.669
18393SOL     OW57075  12.264  10.861  12.231
18393SOL    HW157076  12.269  10.854  12.326
18393SOL    HW257077  12.214  10.941  12.215
18394SOL     OW57078  10.890   6.214  13.605
18394SOL    HW157079  10.936   6.212  13.521
18394SOL    HW257080  10.798   6.222  13.581
18395SOL     OW57081   2.722   6.752   5.388
18395SOL    HW157082   2.735   6.735   5.481
18395SOL    HW257083   2.684   6.840   5.385
18396SOL     OW57084   5.561   2.339  13.534
18396SOL    HW157085   5.471   2.354  13.564
18396SOL    HW257086   5.597   2.426  13.520
18397SOL     OW57087   3.913  12.277  11.465
18397SOL    HW157088   3.987  12.295  11.406
18397SOL    HW257089   3.838  12.270  11.406
18398SOL     OW57090  14.371   4.839   8.326
18398SOL    HW157091  14.459   4.806   8.304
18398SOL    HW257092  14.329   4.766   8.371
18399SOL     OW57093  11.495   3.988  10.603
18399SOL    HW157094  11.437   4.002  10.677
18399SOL    HW257095  11.517   4.076  10.572
18400SOL     OW57096   7.646   6.084  10.613
18400SOL    HW157097   7.680   6.123  10.532
18400SOL    HW257098   7.555   6.112  10.617
18401SOL     OW57099   2.262   3.690   3.480
18401SOL    HW157100   2.275   3.772   3.432
18401SOL    HW257101   2.171   3.693   3.509
18402SOL     OW57102   2.633   6.138   0.371
18402SOL    HW157103   2.699   6.185   0.422
18402SOL    HW257104   2.570   6.204   0.344
18403SOL     OW57105   7.331   6.963   9.323
18403SOL    HW157106   7.308   7.045   9.367
18403SOL    HW257107   7.276   6.962   9.245
18404SOL     OW57108   9.235   9.779  10.183
18404SOL    HW157109   9.285   9.777  10.102
18404SOL    HW257110   9.162   9.720  10.168
18405SOL     OW57111   9.702  11.312  10.136
18405SOL    HW157112   9.679  11.398  10.172
18405SOL    HW257113   9.658  11.249  10.194
18406SOL     OW57114   5.778   9.796   8.067
18406SOL    HW157115   5.864   9.836   8.055
18406SOL    HW257116   5.756   9.759   7.981
18407SOL     OW57117   2.433  12.639   2.062
18407SOL    HW157118   2.367  12.705   2.041
18407SOL    HW257119   2.398  12.594   2.139
18408SOL     OW57120   6.475  11.358   8.320
18408SOL    HW157121   6.521  11.437   8.347
18408SOL    HW257122   6.541  11.306   8.272
18409SOL     OW57123   6.786   2.717  11.031
18409SOL    HW157124   6.881   2.730  11.032
18409SOL    HW257125   6.765   2.684  11.118
18410SOL     OW57126   2.952   3.472   8.953
18410SOL    HW157127   3.014   3.410   8.991
18410SOL    HW257128   2.951   3.450   8.859
18411SOL     OW57129  10.105  11.177  13.286
18411SOL    HW157130  10.071  11.165  13.197
18411SOL    HW257131  10.184  11.230  13.274
18412SOL     OW57132   9.297   6.382   9.835
18412SOL    HW157133   9.322   6.464   9.793
18412SOL    HW257134   9.379   6.348   9.871
18413SOL     OW57135   3.526   7.590   5.111
18413SOL    HW157136   3.524   7.499   5.139
18413SOL    HW257137   3.586   7.633   5.172
18414SOL     OW57138   3.441   9.996   0.756
18414SOL    HW157139   3.347  10.010   0.768
18414SOL    HW257140   3.469   9.956   0.838
18415SOL     OW57141   1.400   6.203   4.814
18415SOL    HW157142   1.314   6.245   4.809
18415SOL    HW257143   1.381   6.110   4.820
18416SOL     OW57144  14.558   0.695   6.373
18416SOL    HW157145  14.562   0.606   6.409
18416SOL    HW257146  14.543   0.682   6.280
18417SOL     OW57147   8.974   2.984  13.500
18417SOL    HW157148   8.970   3.058  13.440
18417SOL    HW257149   9.050   3.002  13.555
18418SOL     OW57150   1.189   2.443   2.991
18418SOL    HW157151   1.258   2.496   3.031
18418SOL    HW257152   1.117   2.504   2.976
18419SOL     OW57153  14.194   8.408   0.918
18419SOL    HW157154  14.111   8.451   0.941
18419SOL    HW257155  14.168   8.324   0.880
18420SOL     OW57156   2.002   9.075  14.781
18420SOL    HW157157   1.959   9.087  14.866
18420SOL    HW257158   1.936   9.098  14.716
18421SOL     OW57159  12.379   6.791   0.664
18421SOL    HW157160  12.307   6.737   0.631
18421SOL    HW257161  12.358   6.806   0.756
18422SOL     OW57162   4.367  11.581   1.152
18422SOL    HW157163   4.377  11.489   1.178
18422SOL    HW257164   4.274  11.599   1.163
18423SOL     OW57165   8.274   6.426  11.476
18423SOL    HW157166   8.301   6.337  11.497
18423SOL    HW257167   8.219   6.416  11.398
18424SOL     OW57168   9.790   1.328  13.862
18424SOL    HW157169   9.733   1.364  13.930
18424SOL    HW257170   9.876   1.366  13.880
18425SOL     OW57171  12.914   1.334   7.977
18425SOL    HW157172  12.906   1.424   8.008
18425SOL    HW257173  12.984   1.297   8.031
18426SOL     OW57174   7.944   0.497   2.227
18426SOL    HW157175   7.875   0.453   2.177
18426SOL    HW257176   7.917   0.589   2.228
18427SOL     OW57177  10.947   0.848   3.965
18427SOL    HW157178  10.894   0.883   3.894
18427SOL    HW257179  11.020   0.909   3.973
18428SOL     OW57180  11.326   7.943   1.630
18428SOL    HW157181  11.293   7.864   1.587
18428SOL    HW257182  11.306   8.014   1.569
18429SOL     OW57183   1.739   5.651   5.883
18429SOL    HW157184   1.710   5.603   5.961
18429SOL    HW257185   1.659   5.662   5.831
18430SOL     OW57186   7.390   8.403  14.351
18430SOL    HW157187   7.477   8.369  14.371
18430SOL    HW257188   7.331   8.350  14.404
18431SOL     OW57189  13.886   8.942   3.441
18431SOL    HW157190  13.887   9.003   3.515
18431SOL    HW257191  13.929   8.989   3.370
18432SOL     OW57192   4.641   6.774  11.152
18432SOL    HW157193   4.614   6.811  11.236
18432SOL    HW257194   4.730   6.809  11.139
18433SOL     OW57195   0.198   4.839   9.031
18433SOL    HW157196   0.166   4.906   8.970
18433SOL    HW257197   0.123   4.820   9.087
18434SOL     OW57198  12.911   8.795  13.606
18434SOL    HW157199  12.955   8.719  13.568
18434SOL    HW257200  12.820   8.788  13.575
18435SOL     OW57201   4.972   4.588  14.188
18435SOL    HW157202   4.918   4.648  14.136
18435SOL    HW257203   4.910   4.527  14.227
18436SOL     OW57204   9.989   0.616   1.050
18436SOL    HW157205  10.056   0.674   1.013
18436SOL    HW257206   9.951   0.572   0.974
18437SOL     OW57207   5.325  13.444   9.646
18437SOL    HW157208   5.266  13.371   9.661
18437SOL    HW257209   5.269  13.521   9.648
18438SOL     OW57210   4.819   7.936   7.336
18438SOL    HW157211   4.864   7.986   7.405
18438SOL    HW257212   4.727   7.936   7.363
18439SOL     OW57213  14.359  14.021   8.121
18439SOL    HW157214  14.404  14.060   8.197
18439SOL    HW257215  14.430  13.981   8.070
18440SOL     OW57216   0.121   3.235  12.116
18440SOL    HW157217   0.122   3.140  12.105
18440SOL    HW257218   0.032   3.254  12.147
18441SOL     OW57219   8.814   8.962   4.057
18441SOL    HW157220   8.896   9.006   4.080
18441SOL    HW257221   8.802   8.898   4.127
18442SOL     OW57222   2.077  12.002  10.170
18442SOL    HW157223   2.147  11.995  10.105
18442SOL    HW257224   2.046  12.092  10.163
18443SOL     OW57225   1.736  12.097  13.004
18443SOL    HW157226   1.720  12.192  12.998
18443SOL    HW257227   1.831  12.088  13.003
18444SOL     OW57228   2.262   5.985  11.210
18444SOL    HW157229   2.284   5.980  11.303
18444SOL    HW257230   2.222   6.072  11.199
18445SOL     OW57231  10.753   2.061   7.687
18445SOL    HW157232  10.799   2.053   7.770
18445SOL    HW257233  10.760   1.974   7.647
18446SOL     OW57234  10.149   5.341   8.618
18446SOL    HW157235  10.223   5.373   8.671
18446SOL    HW257236  10.159   5.246   8.617
18447SOL     OW57237  12.129   0.886   6.651
18447SOL    HW157238  12.175   0.934   6.720
18447SOL    HW257239  12.059   0.839   6.696
18448SOL     OW57240   2.502   9.186   6.213
18448SOL    HW157241   2.516   9.094   6.237
18448SOL    HW257242   2.436   9.183   6.143
18449SOL     OW57243   9.861   8.707  14.202
18449SOL    HW157244   9.818   8.675  14.281
18449SOL    HW257245   9.817   8.662  14.130
18450SOL     OW57246   5.550   1.964  10.600
18450SOL    HW157247   5.477   1.969  10.661
18450SOL    HW257248   5.580   2.054  10.590
18451SOL     OW57249   0.923  14.115   9.719
18451SOL    HW157250   0.987  14.074   9.776
18451SOL    HW257251   0.906  14.050   9.651
18452SOL     OW57252  10.862   2.601   9.753
18452SOL    HW157253  10.903   2.518   9.732
18452SOL    HW257254  10.935   2.660   9.774
18453SOL     OW57255   8.124   2.767   2.496
18453SOL    HW157256   8.102   2.726   2.579
18453SOL    HW257257   8.194   2.713   2.461
18454SOL     OW57258   1.913   5.935  10.703
18454SOL    HW157259   1.931   6.020  10.742
18454SOL    HW257260   1.955   5.872  10.762
18455SOL     OW57261   2.509   9.017   7.515
18455SOL    HW157262   2.566   9.077   7.465
18455SOL    HW257263   2.510   9.051   7.604
18456SOL     OW57264   2.820   9.621   7.375
18456SOL    HW157265   2.874   9.667   7.311
18456SOL    HW257266   2.820   9.677   7.452
18457SOL     OW57267   2.928  11.729  13.924
18457SOL    HW157268   2.970  11.648  13.898
18457SOL    HW257269   2.863  11.703  13.990
18458SOL     OW57270   0.454   6.367   9.652
18458SOL    HW157271   0.466   6.287   9.600
18458SOL    HW257272   0.542   6.398   9.669
18459SOL     OW57273   9.903   7.568  12.156
18459SOL    HW157274   9.848   7.498  12.190
18459SOL    HW257275   9.921   7.543  12.066
18460SOL     OW57276  12.294   8.111  13.017
18460SOL    HW157277  12.200   8.128  13.026
18460SOL    HW257278  12.316   8.148  12.931
18461SOL     OW57279   4.303  11.576   0.006
18461SOL    HW157280   4.278  11.668   0.019
18461SOL    HW257281   4.379  11.580  14.819
18462SOL     OW57282   5.881   1.694   1.105
18462SOL    HW157283   5.931   1.727   1.030
18462SOL    HW257284   5.793   1.677   1.070
18463SOL     OW57285   3.375   5.648  13.415
18463SOL    HW157286   3.431   5.571  13.421
18463SOL    HW257287   3.310   5.635  13.485
18464SOL     OW57288   2.926   7.071  12.038
18464SOL    HW157289   3.006   7.076  11.985
18464SOL    HW257290   2.883   7.155  12.025
18465SOL     OW57291   9.622   3.928  14.372
18465SOL    HW157292   9.616   3.838  14.340
18465SOL    HW257293   9.537   3.967  14.354
18466SOL     OW57294   6.253  10.644   9.384
18466SOL    HW157295   6.159  10.638   9.398
18466SOL    HW257296   6.272  10.738   9.380
18467SOL     OW57297  14.815  12.006  10.965
18467SOL    HW157298  14.808  12.078  11.027
18467SOL    HW257299  14.850  12.047  10.886
18468SOL     OW57300   2.815  12.686  11.233
18468SOL    HW157301   2.785  12.770  11.269
18468SOL    HW257302   2.895  12.666  11.280
18469SOL     OW57303   3.460  11.987   1.981
18469SOL    HW157304   3.539  11.942   2.012
18469SOL    HW257305   3.389  11.947   2.031
18470SOL     OW57306  10.129   1.039   1.424
18470SOL    HW157307  10.081   0.994   1.355
18470SOL    HW257308  10.197   0.977   1.451
18471SOL     OW57309   5.000  12.259   1.962
18471SOL    HW157310   4.915  12.287   1.995
18471SOL    HW257311   5.016  12.315   1.886
18472SOL     OW57312   4.872   2.526  14.456
18472SOL    HW157313   4.903   2.575  14.380
18472SOL    HW257314   4.947   2.525  14.516
18473SOL     OW57315   5.010   5.162  10.482
18473SOL    HW157316   4.923   5.143  10.446
18473SOL    HW257317   5.021   5.256  10.468
18474SOL     OW57318   1.405   7.505  12.544
18474SOL    HW157319   1.365   7.475  12.625
18474SOL    HW257320   1.494   7.530  12.568
18475SOL     OW57321   7.898  12.949  10.173
18475SOL    HW157322   7.850  12.881  10.221
18475SOL    HW257323   7.876  13.030  10.219
18476SOL     OW57324  10.886   2.738  10.060
18476SOL    HW157325  10.903   2.778   9.975
18476SOL    HW257326  10.806   2.688  10.048
18477SOL     OW57327   1.659  13.008  10.067
18477SOL    HW157328   1.683  13.100  10.076
18477SOL    HW257329   1.602  13.005   9.990
18478SOL     OW57330   8.114   6.934  12.778
18478SOL    HW157331   8.042   6.963  12.834
18478SOL    HW257332   8.181   6.905  12.839
18479SOL     OW57333   0.443  11.931   1.248
18479SOL    HW157334   0.424  11.987   1.323
18479SOL    HW257335   0.395  11.850   1.265
18480SOL     OW57336   0.056  10.990  10.627
18480SOL    HW157337  14.843  11.035  10.621
18480SOL    HW257338   0.037  10.912  10.680
18481SOL     OW57339   1.520   0.326   9.420
18481SOL    HW157340   1.565   0.409   9.435
18481SOL    HW257341   1.576   0.280   9.357
18482SOL     OW57342  14.374   0.007   0.534
18482SOL    HW157343  14.367   0.082   0.593
18482SOL    HW257344  14.464   0.009   0.503
18483SOL     OW57345  13.700  14.225   7.323
18483SOL    HW157346  13.779  14.176   7.345
18483SOL    HW257347  13.660  14.245   7.407
18484SOL     OW57348   8.723   5.352   7.507
18484SOL    HW157349   8.733   5.365   7.412
18484SOL    HW257350   8.631   5.374   7.525
18485SOL     OW57351   3.742   5.632  11.515
18485SOL    HW157352   3.762   5.591  11.599
18485SOL    HW257353   3.676   5.574  11.475
18486SOL     OW57354   3.650   4.690   6.882
18486SOL    HW157355   3.599   4.701   6.802
18486SOL    HW257356   3.640   4.773   6.928
18487SOL     OW57357   0.755   8.739  14.416
18487SOL    HW157358   0.711   8.675  14.359
18487SOL    HW257359   0.685   8.798  14.445
18488SOL     OW57360   9.863  14.672  11.655
18488SOL    HW157361   9.856  14.589  11.703
18488SOL    HW257362   9.848  14.649  11.564
18489SOL     OW57363   0.044   7.388   8.068
18489SOL    HW157364  14.840   7.333   8.088
18489SOL    HW257365   0.112   7.358   8.128
18490SOL     OW57366   6.414   0.330  13.468
18490SOL    HW157367   6.388   0.245  13.504
18490SOL    HW257368   6.353   0.345  13.396
18491SOL     OW57369   6.946   2.775  12.870
18491SOL    HW157370   6.924   2.867  12.882
18491SOL    HW257371   6.999   2.752  12.946
18492SOL     OW57372   9.159  14.504  14.487
18492SOL    HW157373   9.129  14.549  14.409
18492SOL    HW257374   9.209  14.569  14.536
18493SOL     OW57375   6.279   8.993  13.847
18493SOL    HW157376   6.370   9.022  13.849
18493SOL    HW257377   6.258   8.973  13.938
18494SOL     OW57378   7.778   2.328   8.666
18494SOL    HW157379   7.765   2.236   8.643
18494SOL    HW257380   7.848   2.358   8.608
18495SOL     OW57381   7.175   5.014   6.472
18495SOL    HW157382   7.081   5.028   6.461
18495SOL    HW257383   7.214   5.101   6.463
18496SOL     OW57384   6.686   8.905   6.016
18496SOL    HW157385   6.689   8.822   5.967
18496SOL    HW257386   6.710   8.881   6.105
18497SOL     OW57387   8.146  13.449   7.940
18497SOL    HW157388   8.201  13.401   8.001
18497SOL    HW257389   8.058  13.441   7.977
18498SOL     OW57390   7.415   2.489  13.496
18498SOL    HW157391   7.381   2.569  13.536
18498SOL    HW257392   7.472   2.519  13.426
18499SOL     OW57393   8.300  10.059   8.562
18499SOL    HW157394   8.295   9.971   8.524
18499SOL    HW257395   8.307  10.043   8.656
18500SOL     OW57396   6.742   2.416   0.639
18500SOL    HW157397   6.731   2.496   0.588
18500SOL    HW257398   6.659   2.369   0.629
18501SOL     OW57399   8.192   3.722  13.886
18501SOL    HW157400   8.114   3.775  13.873
18501SOL    HW257401   8.220   3.741  13.976
18502SOL     OW57402  10.768  11.106  14.545
18502SOL    HW157403  10.849  11.154  14.525
18502SOL    HW257404  10.787  11.016  14.518
18503SOL     OW57405   5.578   1.719  12.280
18503SOL    HW157406   5.506   1.666  12.316
18503SOL    HW257407   5.632   1.741  12.356
18504SOL     OW57408  10.555  13.619   6.761
18504SOL    HW157409  10.640  13.576   6.761
18504SOL    HW257410  10.553  13.669   6.680
18505SOL     OW57411  14.422  11.901   1.561
18505SOL    HW157412  14.442  11.819   1.607
18505SOL    HW257413  14.417  11.877   1.469
18506SOL     OW57414   1.409  14.233   4.560
18506SOL    HW157415   1.432  14.247   4.468
18506SOL    HW257416   1.421  14.319   4.600
18507SOL     OW57417  11.451   5.868   2.209
18507SOL    HW157418  11.508   5.896   2.281
18507SOL    HW257419  11.509   5.822   2.148
18508SOL     OW57420   1.945   6.581   3.679
18508SOL    HW157421   1.860   6.563   3.720
18508SOL    HW257422   1.924   6.620   3.595
18509SOL     OW57423  14.752   4.260  11.975
18509SOL    HW157424  14.760   4.354  11.990
18509SOL    HW257425  14.818   4.241  11.908
18510SOL     OW57426   8.832   0.942  10.494
18510SOL    HW157427   8.883   0.958  10.573
18510SOL    HW257428   8.775   0.868  10.516
18511SOL     OW57429   2.120   5.076   1.003
18511SOL    HW157430   2.099   5.166   1.026
18511SOL    HW257431   2.037   5.029   1.009
18512SOL     OW57432   3.125   8.967   6.067
18512SOL    HW157433   3.203   8.992   6.117
18512SOL    HW257434   3.066   9.042   6.074
18513SOL     OW57435   3.458  11.400   6.861
18513SOL    HW157436   3.446  11.488   6.897
18513SOL    HW257437   3.552  11.384   6.870
18514SOL     OW57438   7.578   7.646   3.094
18514SOL    HW157439   7.556   7.567   3.044
18514SOL    HW257440   7.669   7.634   3.119
18515SOL     OW57441  13.890   5.587   1.052
18515SOL    HW157442  13.812   5.566   1.001
18515SOL    HW257443  13.940   5.506   1.054
18516SOL     OW57444   6.316   6.506   1.851
18516SOL    HW157445   6.340   6.560   1.776
18516SOL    HW257446   6.278   6.568   1.914
18517SOL     OW57447  12.738  13.322  11.642
18517SOL    HW157448  12.771  13.412  11.645
18517SOL    HW257449  12.644  13.331  11.629
18518SOL     OW57450   5.845   0.033   5.169
18518SOL    HW157451   5.895   0.106   5.205
18518SOL    HW257452   5.908  14.833   5.160
18519SOL     OW57453   5.717   4.826   3.899
18519SOL    HW157454   5.765   4.871   3.829
18519SOL    HW257455   5.667   4.758   3.854
18520SOL     OW57456  10.956   3.671   4.124
18520SOL    HW157457  10.982   3.711   4.207
18520SOL    HW257458  11.033   3.623   4.095
18521SOL     OW57459   0.031  14.601   9.256
18521SOL    HW157460   0.046  14.676   9.200
18521SOL    HW257461  14.843  14.632   9.324
18522SOL     OW57462   0.226   3.106   1.908
18522SOL    HW157463   0.283   3.039   1.869
18522SOL    HW257464   0.189   3.064   1.986
18523SOL     OW57465  14.116   2.366  12.695
18523SOL    HW157466  14.034   2.417  12.694
18523SOL    HW257467  14.145   2.366  12.604
18524SOL     OW57468   2.649   8.988  13.704
18524SOL    HW157469   2.679   8.898  13.716
18524SOL    HW257470   2.673   9.032  13.786
18525SOL     OW57471   8.351   9.882   9.386
18525SOL    HW157472   8.409   9.861   9.459
18525SOL    HW257473   8.340   9.800   9.339
18526SOL     OW57474  12.749   2.587  10.775
18526SOL    HW157475  12.798   2.665  10.803
18526SOL    HW257476  12.658   2.606  10.800
18527SOL     OW57477   2.026   4.784   7.619
18527SOL    HW157478   2.099   4.837   7.586
18527SOL    HW257479   2.068   4.707   7.658
18528SOL     OW57480   2.768  14.030  10.906
18528SOL    HW157481   2.715  14.082  10.846
18528SOL    HW257482   2.805  14.094  10.967
18529SOL     OW57483  13.327  14.381  10.726
18529SOL    HW157484  13.409  14.342  10.696
18529SOL    HW257485  13.296  14.433  10.651
18530SOL     OW57486   4.310   6.752  11.407
18530SOL    HW157487   4.234   6.742  11.350
18530SOL    HW257488   4.282   6.712  11.490
18531SOL     OW57489   3.894   2.655   9.906
18531SOL    HW157490   3.800   2.635   9.911
18531SOL    HW257491   3.922   2.661   9.998
18532SOL     OW57492  14.766  14.090   6.736
18532SOL    HW157493  14.736  14.167   6.784
18532SOL    HW257494  14.685  14.047   6.708
18533SOL     OW57495  12.395  14.025   0.178
18533SOL    HW157496  12.354  14.046   0.262
18533SOL    HW257497  12.451  14.100   0.159
18534SOL     OW57498   7.402  10.978   0.677
18534SOL    HW157499   7.439  10.991   0.764
18534SOL    HW257500   7.478  10.974   0.619
18535SOL     OW57501  14.682   7.144   1.601
18535SOL    HW157502  14.624   7.139   1.677
18535SOL    HW257503  14.626   7.126   1.527
18536SOL     OW57504  12.599   1.982   4.562
18536SOL    HW157505  12.532   1.916   4.579
18536SOL    HW257506  12.631   1.961   4.474
18537SOL     OW57507   1.779  14.369  10.074
18537SOL    HW157508   1.741  14.436  10.131
18537SOL    HW257509   1.872  14.392  10.068
18538SOL     OW57510  10.354   4.778   1.903
18538SOL    HW157511  10.446   4.767   1.925
18538SOL    HW257512  10.309   4.777   1.987
18539SOL     OW57513  10.788  10.615   3.498
18539SOL    HW157514  10.881  10.598   3.507
18539SOL    HW257515  10.774  10.628   3.404
18540SOL     OW57516  12.191  12.570  12.883
18540SOL    HW157517  12.147  12.513  12.946
18540SOL    HW257518  12.189  12.657  12.924
18541SOL     OW57519  10.881  11.250   4.337
18541SOL    HW157520  10.797  11.295   4.322
18541SOL    HW257521  10.947  11.317   4.321
18542SOL     OW57522  10.585   7.293   6.977
18542SOL    HW157523  10.622   7.310   7.064
18542SOL    HW257524  10.585   7.197   6.971
18543SOL     OW57525   8.115   7.422  12.929
18543SOL    HW157526   8.075   7.442  12.844
18543SOL    HW257527   8.203   7.459  12.924
18544SOL     OW57528   2.767   3.312  10.098
18544SOL    HW157529   2.738   3.232  10.143
18544SOL    HW257530   2.791   3.372  10.168
18545SOL     OW57531   3.293   1.587  10.162
18545SOL    HW157532   3.353   1.574  10.089
18545SOL    HW257533   3.207   1.560  10.128
18546SOL     OW57534  13.210  13.359   5.941
18546SOL    HW157535  13.236  13.292   6.005
18546SOL    HW257536  13.229  13.442   5.984
18547SOL     OW57537   5.320   7.876   7.260
18547SOL    HW157538   5.275   7.817   7.200
18547SOL    HW257539   5.385   7.821   7.305
18548SOL     OW57540  11.420  12.172  12.214
18548SOL    HW157541  11.394  12.191  12.124
18548SOL    HW257542  11.374  12.239  12.266
18549SOL     OW57543  13.250   9.474   3.276
18549SOL    HW157544  13.258   9.567   3.256
18549SOL    HW257545  13.302   9.461   3.355
18550SOL     OW57546  14.127  10.702   9.463
18550SOL    HW157547  14.058  10.726   9.525
18550SOL    HW257548  14.133  10.777   9.404
18551SOL     OW57549  14.255   8.367  10.469
18551SOL    HW157550  14.170   8.329  10.448
18551SOL    HW257551  14.297   8.302  10.526
18552SOL     OW57552   4.997   3.736  13.833
18552SOL    HW157553   5.018   3.793  13.759
18552SOL    HW257554   4.913   3.768  13.865
18553SOL     OW57555  10.441   4.217   9.088
18553SOL    HW157556  10.390   4.136   9.098
18553SOL    HW257557  10.526   4.187   9.053
18554SOL     OW57558   6.294   9.263   4.194
18554SOL    HW157559   6.332   9.254   4.281
18554SOL    HW257560   6.226   9.329   4.205
18555SOL     OW57561   4.800  14.573  14.498
18555SOL    HW157562   4.794  14.645  14.435
18555SOL    HW257563   4.857  14.606  14.567
18556SOL     OW57564  14.437  12.760   0.189
18556SOL    HW157565  14.373  12.816   0.234
18556SOL    HW257566  14.413  12.766   0.097
18557SOL     OW57567   9.616  12.947   5.349
18557SOL    HW157568   9.674  13.007   5.396
18557SOL    HW257569   9.650  12.860   5.370
18558SOL     OW57570   5.103   0.847  14.042
18558SOL    HW157571   5.187   0.807  14.064
18558SOL    HW257572   5.093   0.917  14.107
18559SOL     OW57573   8.913  12.624   9.375
18559SOL    HW157574   8.957  12.645   9.293
18559SOL    HW257575   8.831  12.583   9.349
18560SOL     OW57576  11.400  10.996  13.845
18560SOL    HW157577  11.313  11.016  13.811
18560SOL    HW257578  11.447  11.079  13.841
18561SOL     OW57579   8.419   5.102   1.246
18561SOL    HW157580   8.415   5.024   1.192
18561SOL    HW257581   8.354   5.161   1.208
18562SOL     OW57582   8.454   3.876  11.188
18562SOL    HW157583   8.450   3.971  11.201
18562SOL    HW257584   8.443   3.839  11.276
18563SOL     OW57585   9.567   6.090  11.046
18563SOL    HW157586   9.599   6.131  10.965
18563SOL    HW257587   9.646   6.077  11.098
18564SOL     OW57588  14.344   4.034   7.638
18564SOL    HW157589  14.385   4.113   7.673
18564SOL    HW257590  14.414   3.970   7.634
18565SOL     OW57591  11.958   9.053  12.077
18565SOL    HW157592  12.022   9.084  12.141
18565SOL    HW257593  11.947   8.960  12.096
18566SOL     OW57594   8.570   9.239  14.405
18566SOL    HW157595   8.583   9.188  14.486
18566SOL    HW257596   8.475   9.244  14.396
18567SOL     OW57597   3.940   2.081   9.353
18567SOL    HW157598   3.971   2.145   9.418
18567SOL    HW257599   3.853   2.113   9.329
18568SOL     OW57600  11.497   7.773   9.934
18568SOL    HW157601  11.552   7.799   9.861
18568SOL    HW257602  11.453   7.693   9.904
18569SOL     OW57603  11.346   5.709   4.481
18569SOL    HW157604  11.390   5.764   4.416
18569SOL    HW257605  11.398   5.717   4.560
18570SOL     OW57606   4.288   2.690   2.855
18570SOL    HW157607   4.222   2.759   2.846
18570SOL    HW257608   4.309   2.689   2.948
18571SOL     OW57609   0.949   7.628  14.632
18571SOL    HW157610   0.940   7.690  14.704
18571SOL    HW257611   1.038   7.593  14.641
18572SOL     OW57612   9.938   7.962   1.096
18572SOL    HW157613   9.935   8.057   1.110
18572SOL    HW257614   9.848   7.933   1.109
18573SOL     OW57615  13.380   7.276  10.179
18573SOL    HW157616  13.405   7.229  10.100
18573SOL    HW257617  13.432   7.237  10.249
18574SOL     OW57618  10.146  10.023   8.224
18574SOL    HW157619  10.135  10.072   8.305
18574SOL    HW257620  10.067  10.042   8.173
18575SOL     OW57621   3.656  12.946   4.223
18575SOL    HW157622   3.653  12.924   4.317
18575SOL    HW257623   3.638  12.863   4.179
18576SOL     OW57624   0.132  13.299   3.308
18576SOL    HW157625   0.045  13.271   3.280
18576SOL    HW257626   0.192  13.241   3.260
18577SOL     OW57627  13.278   0.410   8.564
18577SOL    HW157628  13.251   0.318   8.559
18577SOL    HW257629  13.324   0.425   8.481
18578SOL     OW57630   9.091   6.523   1.074
18578SOL    HW157631   9.164   6.577   1.105
18578SOL    HW257632   9.118   6.434   1.093
18579SOL     OW57633   3.069   4.042   2.156
18579SOL    HW157634   3.010   3.968   2.140
18579SOL    HW257635   3.152   4.015   2.118
18580SOL     OW57636   5.389  13.363  14.307
18580SOL    HW157637   5.407  13.388  14.217
18580SOL    HW257638   5.471  13.326  14.339
18581SOL     OW57639   3.109   0.013   1.434
18581SOL    HW157640   3.068  14.804   1.401
18581SOL    HW257641   3.195  14.857   1.464
18582SOL     OW57642   8.822  10.168   6.674
18582SOL    HW157643   8.834  10.129   6.587
18582SOL    HW257644   8.903  10.149   6.721
18583SOL     OW57645  13.887   1.093   8.772
18583SOL    HW157646  13.913   1.006   8.803
18583SOL    HW257647  13.964   1.126   8.727
18584SOL     OW57648   2.025  13.941  10.117
18584SOL    HW157649   2.054  14.029  10.140
18584SOL    HW257650   1.947  13.926  10.171
18585SOL     OW57651  12.332   0.977  13.404
18585SOL    HW157652  12.342   1.071  13.385
18585SOL    HW257653  12.346   0.971  13.498
18586SOL     OW57654  10.502   4.157   6.666
18586SOL    HW157655  10.509   4.133   6.758
18586SOL    HW257656  10.411   4.187   6.656
18587SOL     OW57657   1.248  11.548  11.004
18587SOL    HW157658   1.264  11.454  10.999
18587SOL    HW257659   1.315  11.581  11.064
18588SOL     OW57660  11.959   3.911  14.319
18588SOL    HW157661  11.994   3.826  14.346
18588SOL    HW257662  12.037   3.966  14.308
18589SOL     OW57663   1.763   8.968   0.745
18589SOL    HW157664   1.830   9.034   0.762
18589SOL    HW257665   1.687   8.997   0.796
18590SOL     OW57666   4.406   4.360   9.290
18590SOL    HW157667   4.485   4.404   9.321
18590SOL    HW257668   4.438   4.276   9.256
18591SOL     OW57669  12.931   1.902  10.289
18591SOL    HW157670  12.840   1.902  10.259
18591SOL    HW257671  12.928   1.855  10.373
18592SOL     OW57672   8.624   5.494   3.711
18592SOL    HW157673   8.545   5.541   3.683
18592SOL    HW257674   8.683   5.563   3.742
18593SOL     OW57675   9.393  14.400   5.710
18593SOL    HW157676   9.434  14.314   5.707
18593SOL    HW257677   9.311  14.386   5.758
18594SOL     OW57678  14.433  14.752  11.825
18594SOL    HW157679  14.349  14.746  11.871
18594SOL    HW257680  14.409  14.768  11.733
18595SOL     OW57681  12.943   9.325   8.199
18595SOL    HW157682  12.880   9.358   8.263
18595SOL    HW257683  12.999   9.265   8.249
18596SOL     OW57684  13.223   6.507   5.777
18596SOL    HW157685  13.215   6.601   5.761
18596SOL    HW257686  13.307   6.482   5.738
18597SOL     OW57687  11.956   6.669   3.632
18597SOL    HW157688  11.916   6.648   3.717
18597SOL    HW257689  11.928   6.598   3.574
18598SOL     OW57690   4.090   9.048   4.477
18598SOL    HW157691   4.073   8.982   4.544
18598SOL    HW257692   4.166   9.096   4.510
18599SOL     OW57693  14.276  10.569  14.182
18599SOL    HW157694  14.340  10.531  14.122
18599SOL    HW257695  14.249  10.651  14.139
18600SOL     OW57696   8.731   3.854   5.163
18600SOL    HW157697   8.742   3.829   5.255
18600SOL    HW257698   8.636   3.857   5.150
18601SOL     OW57699  14.425  12.591   9.830
18601SOL    HW157700  14.330  12.602   9.821
18601SOL    HW257701  14.450  12.656   9.895
18602SOL     OW57702   2.402   6.613   3.595
18602SOL    HW157703   2.385   6.706   3.609
18602SOL    HW257704   2.328   6.569   3.637
18603SOL     OW57705  10.174   9.202   1.271
18603SOL    HW157706  10.088   9.243   1.286
18603SOL    HW257707  10.183   9.139   1.343
18604SOL     OW57708   2.633   1.391  11.168
18604SOL    HW157709   2.725   1.401  11.145
18604SOL    HW257710   2.614   1.466  11.224
18605SOL     OW57711   0.390  13.877   7.689
18605SOL    HW157712   0.345  13.955   7.656
18605SOL    HW257713   0.479  13.907   7.707
18606SOL     OW57714   1.034   4.029   4.734
18606SOL    HW157715   1.076   4.110   4.705
18606SOL    HW257716   1.095   3.993   4.799
18607SOL     OW57717   8.305   8.756   8.751
18607SOL    HW157718   8.262   8.718   8.828
18607SOL    HW257719   8.234   8.768   8.688
18608SOL     OW57720   1.406   2.439   9.700
18608SOL    HW157721   1.430   2.353   9.665
18608SOL    HW257722   1.313   2.449   9.678
18609SOL     OW57723  12.923  13.761  13.479
18609SOL    HW157724  12.921  13.685  13.537
18609SOL    HW257725  12.964  13.830  13.530
18610SOL     OW57726   4.162   4.222   5.251
18610SOL    HW157727   4.137   4.312   5.232
18610SOL    HW257728   4.250   4.229   5.289
18611SOL     OW57729   5.748   6.940   5.968
18611SOL    HW157730   5.720   6.867   5.913
18611SOL    HW257731   5.673   7.000   5.967
18612SOL     OW57732   4.824   6.678   3.335
18612SOL    HW157733   4.855   6.631   3.413
18612SOL    HW257734   4.742   6.634   3.312
18613SOL     OW57735  13.875   6.002   3.046
18613SOL    HW157736  13.835   5.916   3.060
18613SOL    HW257737  13.967   5.988   3.066
18614SOL     OW57738   3.724  11.247  13.457
18614SOL    HW157739   3.713  11.244  13.362
18614SOL    HW257740   3.776  11.170  13.478
18615SOL     OW57741   1.078   3.779   1.091
18615SOL    HW157742   1.087   3.692   1.052
18615SOL    HW257743   1.093   3.839   1.018
18616SOL     OW57744   6.549   8.002  14.052
18616SOL    HW157745   6.540   8.020  13.959
18616SOL    HW257746   6.533   7.908  14.061
18617SOL     OW57747  12.756  11.499  12.223
18617SOL    HW157748  12.668  11.473  12.251
18617SOL    HW257749  12.745  11.587  12.187
18618SOL     OW57750   0.793   7.553   7.425
18618SOL    HW157751   0.734   7.487   7.463
18618SOL    HW257752   0.744   7.590   7.352
18619SOL     OW57753   3.544   3.320   6.667
18619SOL    HW157754   3.575   3.409   6.683
18619SOL    HW257755   3.498   3.325   6.583
18620SOL     OW57756   7.890   7.181   3.837
18620SOL    HW157757   7.866   7.106   3.783
18620SOL    HW257758   7.940   7.143   3.909
18621SOL     OW57759  11.684   0.313   9.873
18621SOL    HW157760  11.689   0.279   9.784
18621SOL    HW257761  11.709   0.240   9.929
18622SOL     OW57762   1.671   9.250   4.901
18622SOL    HW157763   1.689   9.343   4.885
18622SOL    HW257764   1.757   9.208   4.899
18623SOL     OW57765   4.943   7.077   6.957
18623SOL    HW157766   4.992   7.157   6.973
18623SOL    HW257767   4.945   7.031   7.041
18624SOL     OW57768  12.593   6.947   7.460
18624SOL    HW157769  12.512   6.987   7.429
18624SOL    HW257770  12.616   6.884   7.392
18625SOL     OW57771   2.841   2.167   5.244
18625SOL    HW157772   2.764   2.115   5.223
18625SOL    HW257773   2.816   2.217   5.322
18626SOL     OW57774   6.532   0.770   9.196
18626SOL    HW157775   6.609   0.758   9.252
18626SOL    HW257776   6.557   0.841   9.137
18627SOL     OW57777  10.972   6.391   7.802
18627SOL    HW157778  10.918   6.429   7.733
18627SOL    HW257779  10.977   6.298   7.781
18628SOL     OW57780   2.204   3.369  11.237
18628SOL    HW157781   2.224   3.463  11.235
18628SOL    HW257782   2.183   3.351  11.328
18629SOL     OW57783  11.062   5.826  10.440
18629SOL    HW157784  11.134   5.811  10.501
18629SOL    HW257785  11.101   5.879  10.370
18630SOL     OW57786   9.309   6.651  13.747
18630SOL    HW157787   9.260   6.591  13.803
18630SOL    HW257788   9.254   6.661  13.669
18631SOL     OW57789  11.241   4.535  10.207
18631SOL    HW157790  11.156   4.495  10.228
18631SOL    HW257791  11.298   4.461  10.186
18632SOL     OW57792   2.006  11.973  12.784
18632SOL    HW157793   1.980  12.056  12.825
18632SOL    HW257794   2.088  11.993  12.739
18633SOL     OW57795   6.754   7.233  13.323
18633SOL    HW157796   6.660   7.246  13.313
18633SOL    HW257797   6.762   7.155  13.376
18634SOL     OW57798   8.175  11.948   6.549
18634SOL    HW157799   8.243  11.909   6.493
18634SOL    HW257800   8.138  12.018   6.496
18635SOL     OW57801  14.421  12.861   4.783
18635SOL    HW157802  14.340  12.871   4.734
18635SOL    HW257803  14.488  12.847   4.717
18636SOL     OW57804  10.614  12.945  10.965
18636SOL    HW157805  10.567  12.966  11.045
18636SOL    HW257806  10.591  12.855  10.946
18637SOL     OW57807   4.977   2.117   0.672
18637SOL    HW157808   5.021   2.136   0.755
18637SOL    HW257809   5.033   2.053   0.628
18638SOL     OW57810   8.949   5.137   4.149
18638SOL    HW157811   8.871   5.112   4.099
18638SOL    HW257812   8.993   5.054   4.167
18639SOL     OW57813   7.285   5.226  13.034
18639SOL    HW157814   7.240   5.269  13.106
18639SOL    HW257815   7.364   5.190  13.073
18640SOL     OW57816   5.360  12.950   8.063
18640SOL    HW157817   5.286  13.006   8.086
18640SOL    HW257818   5.436  12.993   8.102
18641SOL     OW57819   6.395   1.925  10.012
18641SOL    HW157820   6.379   2.004  10.065
18641SOL    HW257821   6.310   1.906   9.973
18642SOL     OW57822  11.503   5.044  10.620
18642SOL    HW157823  11.511   5.061  10.526
18642SOL    HW257824  11.487   4.949  10.625
18643SOL     OW57825   2.661  12.405  12.895
18643SOL    HW157826   2.662  12.336  12.962
18643SOL    HW257827   2.740  12.388  12.844
18644SOL     OW57828   1.306   6.252   6.463
18644SOL    HW157829   1.396   6.242   6.431
18644SOL    HW257830   1.312   6.320   6.529
18645SOL     OW57831   9.926  10.214   2.036
18645SOL    HW157832   9.909  10.233   2.129
18645SOL    HW257833  10.017  10.183   2.035
18646SOL     OW57834  13.107  14.731   9.958
18646SOL    HW157835  13.190  14.685   9.967
18646SOL    HW257836  13.116  14.781   9.877
18647SOL     OW57837  10.788  13.169   9.517
18647SOL    HW157838  10.867  13.143   9.564
18647SOL    HW257839  10.721  13.107   9.547
18648SOL     OW57840   2.111  12.382   0.657
18648SOL    HW157841   2.055  12.305   0.648
18648SOL    HW257842   2.075  12.446   0.596
18649SOL     OW57843  11.972   1.041   3.596
18649SOL    HW157844  12.008   1.127   3.617
18649SOL    HW257845  12.046   0.981   3.606
18650SOL     OW57846   7.562   8.590   0.962
18650SOL    HW157847   7.509   8.514   0.983
18650SOL    HW257848   7.500   8.654   0.928
18651SOL     OW57849   5.929  11.158  12.983
18651SOL    HW157850   5.844  11.203  12.990
18651SOL    HW257851   5.984  11.219  12.934
18652SOL     OW57852   1.541  10.940  12.456
18652SOL    HW157853   1.558  10.903  12.369
18652SOL    HW257854   1.580  11.028  12.452
18653SOL     OW57855   1.202   6.398   2.617
18653SOL    HW157856   1.151   6.318   2.609
18653SOL    HW257857   1.145   6.459   2.663
18654SOL     OW57858  11.459   5.755   8.432
18654SOL    HW157859  11.450   5.677   8.377
18654SOL    HW257860  11.426   5.826   8.377
18655SOL     OW57861   3.899  12.262  10.118
18655SOL    HW157862   3.819  12.209  10.116
18655SOL    HW257863   3.964  12.206  10.161
18656SOL     OW57864  13.551   1.285   2.235
18656SOL    HW157865  13.607   1.245   2.302
18656SOL    HW257866  13.513   1.211   2.188
18657SOL     OW57867   0.675   1.320  12.291
18657SOL    HW157868   0.729   1.369  12.353
18657SOL    HW257869   0.617   1.268  12.347
18658SOL     OW57870   4.271   4.681   9.218
18658SOL    HW157871   4.219   4.621   9.164
18658SOL    HW257872   4.206   4.742   9.254
18659SOL     OW57873   5.892  11.512   0.393
18659SOL    HW157874   5.900  11.592   0.341
18659SOL    HW257875   5.813  11.470   0.360
18660SOL     OW57876   1.622   4.604  10.730
18660SOL    HW157877   1.531   4.629  10.712
18660SOL    HW257878   1.626   4.511  10.706
18661SOL     OW57879   2.837  13.263   8.959
18661SOL    HW157880   2.812  13.340   9.011
18661SOL    HW257881   2.804  13.283   8.871
18662SOL     OW57882   4.373  10.821  13.114
18662SOL    HW157883   4.417  10.906  13.109
18662SOL    HW257884   4.325  10.823  13.197
18663SOL     OW57885  14.632   9.210   0.697
18663SOL    HW157886  14.579   9.131   0.711
18663SOL    HW257887  14.682   9.220   0.778
18664SOL     OW57888  12.273   9.774  10.602
18664SOL    HW157889  12.356   9.801  10.563
18664SOL    HW257890  12.261   9.684  10.573
18665SOL     OW57891   5.681  11.989  11.392
18665SOL    HW157892   5.626  12.012  11.317
18665SOL    HW257893   5.684  11.894  11.390
18666SOL     OW57894   1.524   0.148   4.998
18666SOL    HW157895   1.526   0.133   5.092
18666SOL    HW257896   1.561   0.235   4.987
18667SOL     OW57897   0.570   9.821   1.917
18667SOL    HW157898   0.619   9.894   1.953
18667SOL    HW257899   0.636   9.766   1.875
18668SOL     OW57900   0.373   3.952  13.046
18668SOL    HW157901   0.287   3.956  13.005
18668SOL    HW257902   0.356   3.920  13.135
18669SOL     OW57903  11.895   9.785  13.020
18669SOL    HW157904  11.832   9.790  13.092
18669SOL    HW257905  11.970   9.835  13.051
18670SOL     OW57906   0.261  12.221  11.720
18670SOL    HW157907   0.259  12.312  11.750
18670SOL    HW257908   0.266  12.170  11.801
18671SOL     OW57909  10.596   4.138  12.788
18671SOL    HW157910  10.504   4.146  12.765
18671SOL    HW257911  10.612   4.210  12.849
18672SOL     OW57912   3.741  12.367  14.312
18672SOL    HW157913   3.700  12.291  14.354
18672SOL    HW257914   3.719  12.358  14.220
18673SOL     OW57915  13.878   1.073   9.259
18673SOL    HW157916  13.857   1.026   9.340
18673SOL    HW257917  13.854   1.012   9.189
18674SOL     OW57918   9.070  12.827   5.096
18674SOL    HW157919   9.109  12.889   5.158
18674SOL    HW257920   9.130  12.753   5.095
18675SOL     OW57921   0.827   3.012   7.420
18675SOL    HW157922   0.918   3.035   7.439
18675SOL    HW257923   0.832   2.930   7.372
18676SOL     OW57924  14.595  14.119  10.743
18676SOL    HW157925  14.680  14.162  10.753
18676SOL    HW257926  14.543  14.151  10.817
18677SOL     OW57927   4.681   8.577   4.521
18677SOL    HW157928   4.592   8.543   4.530
18677SOL    HW257929   4.679   8.661   4.567
18678SOL     OW57930   1.003  13.244   2.392
18678SOL    HW157931   1.007  13.182   2.319
18678SOL    HW257932   1.073  13.217   2.451
18679SOL     OW57933   9.324   9.230   0.526
18679SOL    HW157934   9.375   9.305   0.495
18679SOL    HW257935   9.264   9.211   0.454
18680SOL     OW57936   7.410   4.377   9.100
18680SOL    HW157937   7.497   4.413   9.116
18680SOL    HW257938   7.419   4.329   9.017
18681SOL     OW57939  12.555   1.257   7.047
18681SOL    HW157940  12.483   1.277   7.106
18681SOL    HW257941  12.533   1.171   7.010
18682SOL     OW57942   0.050   5.243   6.379
18682SOL    HW157943   0.042   5.268   6.288
18682SOL    HW257944  14.831   5.234   6.410
18683SOL     OW57945   6.433  12.454  11.670
18683SOL    HW157946   6.459  12.402  11.594
18683SOL    HW257947   6.435  12.392  11.743
18684SOL     OW57948   7.168   9.618  13.896
18684SOL    HW157949   7.127   9.683  13.953
18684SOL    HW257950   7.201   9.551  13.956
18685SOL     OW57951   6.107   5.318  12.133
18685SOL    HW157952   6.017   5.292  12.113
18685SOL    HW257953   6.119   5.402  12.089
18686SOL     OW57954  13.481  12.147  11.632
18686SOL    HW157955  13.528  12.208  11.576
18686SOL    HW257956  13.523  12.154  11.717
18687SOL     OW57957  11.835   5.079   8.284
18687SOL    HW157958  11.870   4.996   8.314
18687SOL    HW257959  11.810   5.125   8.364
18688SOL     OW57960   1.763   7.957  10.453
18688SOL    HW157961   1.674   7.934  10.426
18688SOL    HW257962   1.814   7.877  10.441
18689SOL     OW57963  13.106   5.555  11.603
18689SOL    HW157964  13.135   5.634  11.558
18689SOL    HW257965  13.044   5.514  11.543
18690SOL     OW57966  14.296   3.226  12.611
18690SOL    HW157967  14.364   3.160  12.597
18690SOL    HW257968  14.331   3.305  12.570
18691SOL     OW57969  10.381   3.293  14.088
18691SOL    HW157970  10.315   3.257  14.147
18691SOL    HW257971  10.448   3.329  14.145
18692SOL     OW57972   6.000   3.178   4.428
18692SOL    HW157973   5.927   3.116   4.425
18692SOL    HW257974   5.968   3.249   4.485
18693SOL     OW57975  13.607   9.886   4.754
18693SOL    HW157976  13.626   9.955   4.817
18693SOL    HW257977  13.692   9.864   4.716
18694SOL     OW57978   2.889   1.277   7.503
18694SOL    HW157979   2.805   1.248   7.540
18694SOL    HW257980   2.883   1.373   7.504
18695SOL     OW57981  12.277   4.293   9.076
18695SOL    HW157982  12.198   4.318   9.029
18695SOL    HW257983  12.280   4.352   9.152
18696SOL     OW57984  14.788  13.132  12.542
18696SOL    HW157985  14.820  13.164  12.627
18696SOL    HW257986  14.754  13.045  12.560
18697SOL     OW57987   3.459   4.537   6.193
18697SOL    HW157988   3.411   4.456   6.178
18697SOL    HW257989   3.450   4.553   6.287
18698SOL     OW57990   2.953  12.596  12.813
18698SOL    HW157991   2.929  12.578  12.904
18698SOL    HW257992   2.926  12.686  12.799
18699SOL     OW57993   0.263   6.302  10.964
18699SOL    HW157994   0.348   6.333  10.995
18699SOL    HW257995   0.200   6.364  11.002
18700SOL     OW57996   9.361   4.649   7.717
18700SOL    HW157997   9.395   4.728   7.675
18700SOL    HW257998   9.365   4.668   7.811
18701SOL     OW57999   9.812   8.486   6.706
18701SOL    HW158000   9.875   8.510   6.638
18701SOL    HW258001   9.796   8.568   6.753
18702SOL     OW58002   0.769  14.368   8.272
18702SOL    HW158003   0.859  14.338   8.284
18702SOL    HW258004   0.727  14.354   8.357
18703SOL     OW58005   0.591   1.673   5.672
18703SOL    HW158006   0.522   1.727   5.633
18703SOL    HW258007   0.639   1.732   5.730
18704SOL     OW58008  11.405   0.440   5.488
18704SOL    HW158009  11.335   0.424   5.551
18704SOL    HW258010  11.482   0.457   5.542
18705SOL     OW58011   2.199   7.084  10.701
18705SOL    HW158012   2.183   7.022  10.630
18705SOL    HW258013   2.154   7.046  10.777
18706SOL     OW58014   8.889  12.263  13.622
18706SOL    HW158015   8.952  12.295  13.686
18706SOL    HW258016   8.825  12.333  13.613
18707SOL     OW58017   1.771   5.700   1.763
18707SOL    HW158018   1.865   5.716   1.750
18707SOL    HW258019   1.743   5.768   1.823
18708SOL     OW58020  13.574  10.352   7.260
18708SOL    HW158021  13.585  10.437   7.217
18708SOL    HW258022  13.589  10.288   7.190
18709SOL     OW58023   7.566   4.374  10.220
18709SOL    HW158024   7.647   4.417  10.246
18709SOL    HW258025   7.568   4.375  10.125
18710SOL     OW58026  14.091   2.562   0.388
18710SOL    HW158027  14.147   2.625   0.433
18710SOL    HW258028  14.041   2.615   0.326
18711SOL     OW58029  10.292   8.573   9.867
18711SOL    HW158030  10.262   8.650   9.915
18711SOL    HW258031  10.213   8.520   9.854
18712SOL     OW58032   9.066  11.055  13.541
18712SOL    HW158033   8.984  11.056  13.493
18712SOL    HW258034   9.132  11.033  13.475
18713SOL     OW58035   5.879   0.716   2.451
18713SOL    HW158036   5.907   0.667   2.373
18713SOL    HW258037   5.920   0.802   2.441
18714SOL     OW58038   6.255  12.593   1.158
18714SOL    HW158039   6.222  12.637   1.237
18714SOL    HW258040   6.230  12.502   1.169
18715SOL     OW58041   9.658   9.353   5.314
18715SOL    HW158042   9.709   9.322   5.240
18715SOL    HW258043   9.724   9.382   5.378
18716SOL     OW58044   7.152   6.867  12.650
18716SOL    HW158045   7.150   6.924  12.573
18716SOL    HW258046   7.067   6.823  12.650
18717SOL     OW58047   1.381  14.748  14.461
18717SOL    HW158048   1.374  14.653  14.473
18717SOL    HW258049   1.448  14.758  14.392
18718SOL     OW58050   9.236   6.463   3.750
18718SOL    HW158051   9.264   6.544   3.792
18718SOL    HW258052   9.261   6.475   3.658
18719SOL     OW58053   3.887   6.149  11.558
18719SOL    HW158054   3.971   6.167  11.600
18719SOL    HW258055   3.872   6.055  11.573
18720SOL     OW58056   3.570  11.113   5.371
18720SOL    HW158057   3.562  11.099   5.277
18720SOL    HW258058   3.651  11.163   5.382
18721SOL     OW58059   1.286   0.318   2.342
18721SOL    HW158060   1.282   0.413   2.345
18721SOL    HW258061   1.373   0.296   2.376
18722SOL     OW58062   6.370   2.292   2.159
18722SOL    HW158063   6.336   2.375   2.124
18722SOL    HW258064   6.344   2.292   2.251
18723SOL     OW58065   0.954   6.222   1.174
18723SOL    HW158066   0.911   6.235   1.258
18723SOL    HW258067   1.038   6.267   1.182
18724SOL     OW58068   7.478   0.299   3.284
18724SOL    HW158069   7.551   0.271   3.340
18724SOL    HW258070   7.511   0.288   3.195
18725SOL     OW58071  11.382  11.350   4.162
18725SOL    HW158072  11.335  11.408   4.221
18725SOL    HW258073  11.324  11.338   4.087
18726SOL     OW58074   6.434   1.425   3.611
18726SOL    HW158075   6.497   1.353   3.606
18726SOL    HW258076   6.453   1.479   3.535
18727SOL     OW58077   0.695   0.441   6.627
18727SOL    HW158078   0.727   0.351   6.618
18727SOL    HW258079   0.640   0.455   6.550
18728SOL     OW58080  13.601  12.372   2.055
18728SOL    HW158081  13.555  12.318   2.120
18728SOL    HW258082  13.652  12.310   2.004
18729SOL     OW58083  13.521   7.927  11.676
18729SOL    HW158084  13.520   7.857  11.611
18729SOL    HW258085  13.438   7.916  11.723
18730SOL     OW58086   8.679   8.932   8.830
18730SOL    HW158087   8.706   8.842   8.813
18730SOL    HW258088   8.608   8.948   8.768
18731SOL     OW58089  10.425   3.289   6.671
18731SOL    HW158090  10.346   3.277   6.724
18731SOL    HW258091  10.465   3.202   6.667
18732SOL     OW58092   2.651   7.328   0.008
18732SOL    HW158093   2.698   7.405   0.039
18732SOL    HW258094   2.607   7.357  14.799
18733SOL     OW58095   9.809   8.877   9.027
18733SOL    HW158096   9.772   8.846   8.944
18733SOL    HW258097   9.779   8.814   9.092
18734SOL     OW58098   2.067   5.633   7.846
18734SOL    HW158099   2.077   5.545   7.810
18734SOL    HW258100   2.048   5.688   7.770
18735SOL     OW58101   8.836  14.759   3.289
18735SOL    HW158102   8.862  14.667   3.286
18735SOL    HW258103   8.882  14.796   3.364
18736SOL     OW58104   3.718   6.479   3.144
18736SOL    HW158105   3.741   6.570   3.128
18736SOL    HW258106   3.635   6.483   3.191
18737SOL     OW58107   3.814  12.645  13.168
18737SOL    HW158108   3.731  12.683  13.138
18737SOL    HW258109   3.842  12.589  13.095
18738SOL     OW58110   4.657  12.563   9.871
18738SOL    HW158111   4.625  12.629   9.934
18738SOL    HW258112   4.597  12.570   9.797
18739SOL     OW58113   0.370  12.234   4.464
18739SOL    HW158114   0.367  12.177   4.387
18739SOL    HW258115   0.393  12.320   4.429
18740SOL     OW58116   5.195   1.182  13.658
18740SOL    HW158117   5.175   1.098  13.617
18740SOL    HW258118   5.172   1.247  13.593
18741SOL     OW58119   2.287  14.625  12.281
18741SOL    HW158120   2.308  14.574  12.203
18741SOL    HW258121   2.341  14.587  12.350
18742SOL     OW58122  11.150  14.668   5.247
18742SOL    HW158123  11.117  14.757   5.256
18742SOL    HW258124  11.147  14.651   5.152
18743SOL     OW58125   9.665  13.762  10.238
18743SOL    HW158126   9.602  13.818  10.193
18743SOL    HW258127   9.706  13.819  10.303
18744SOL     OW58128   1.250   9.317   1.882
18744SOL    HW158129   1.277   9.233   1.847
18744SOL    HW258130   1.231   9.300   1.974
18745SOL     OW58131  14.394  13.793   7.036
18745SOL    HW158132  14.461  13.731   7.010
18745SOL    HW258133  14.340  13.805   6.958
18746SOL     OW58134   9.886  14.253   3.356
18746SOL    HW158135   9.876  14.185   3.289
18746SOL    HW258136   9.840  14.218   3.432
18747SOL     OW58137   3.947   5.739  14.407
18747SOL    HW158138   3.895   5.735  14.327
18747SOL    HW258139   3.882   5.739  14.477
18748SOL     OW58140   2.910   0.114   6.384
18748SOL    HW158141   2.870   0.099   6.298
18748SOL    HW258142   3.002   0.134   6.364
18749SOL     OW58143   8.385  12.721   8.062
18749SOL    HW158144   8.428  12.784   8.120
18749SOL    HW258145   8.301  12.702   8.104
18750SOL     OW58146   0.716   1.783  12.440
18750SOL    HW158147   0.718   1.691  12.467
18750SOL    HW258148   0.808   1.808  12.435
18751SOL     OW58149   4.907   8.956   0.244
18751SOL    HW158150   4.848   8.942   0.318
18751SOL    HW258151   4.957   8.874   0.238
18752SOL     OW58152   3.812   4.057   3.075
18752SOL    HW158153   3.731   4.028   3.032
18752SOL    HW258154   3.879   3.999   3.039
18753SOL     OW58155  13.913  10.710  10.404
18753SOL    HW158156  13.884  10.772  10.337
18753SOL    HW258157  14.008  10.706  10.394
18754SOL     OW58158  14.853   8.672   6.349
18754SOL    HW158159  14.788   8.605   6.330
18754SOL    HW258160   0.029   8.685   6.267
18755SOL     OW58161   5.589   0.246   6.630
18755SOL    HW158162   5.550   0.322   6.585
18755SOL    HW258163   5.533   0.233   6.706
18756SOL     OW58164   4.518   0.088   4.622
18756SOL    HW158165   4.550   0.159   4.678
18756SOL    HW258166   4.594   0.032   4.607
18757SOL     OW58167  14.531   1.468   2.666
18757SOL    HW158168  14.549   1.403   2.734
18757SOL    HW258169  14.437   1.461   2.650
18758SOL     OW58170  11.177   1.999  10.254
18758SOL    HW158171  11.139   2.082  10.226
18758SOL    HW258172  11.111   1.933  10.234
18759SOL     OW58173   8.298   0.690  12.184
18759SOL    HW158174   8.353   0.656  12.255
18759SOL    HW258175   8.231   0.623  12.172
18760SOL     OW58176  12.606  10.077   8.738
18760SOL    HW158177  12.549  10.061   8.662
18760SOL    HW258178  12.643   9.992   8.758
18761SOL     OW58179   7.661   7.093   0.895
18761SOL    HW158180   7.636   7.184   0.878
18761SOL    HW258181   7.579   7.049   0.916
18762SOL     OW58182   7.364   5.374   2.738
18762SOL    HW158183   7.302   5.428   2.787
18762SOL    HW258184   7.443   5.429   2.731
18763SOL     OW58185   2.244   4.325   6.660
18763SOL    HW158186   2.176   4.384   6.690
18763SOL    HW258187   2.279   4.365   6.580
18764SOL     OW58188   8.676   2.670   2.439
18764SOL    HW158189   8.664   2.576   2.440
18764SOL    HW258190   8.608   2.703   2.379
18765SOL     OW58191   8.834   0.423  12.576
18765SOL    HW158192   8.838   0.518  12.560
18765SOL    HW258193   8.742   0.406  12.595
18766SOL     OW58194  14.601   8.616  11.036
18766SOL    HW158195  14.528   8.674  11.014
18766SOL    HW258196  14.559   8.532  11.054
18767SOL     OW58197   5.334   7.479  13.365
18767SOL    HW158198   5.248   7.480  13.408
18767SOL    HW258199   5.339   7.565  13.322
18768SOL     OW58200   9.901  12.026   7.253
18768SOL    HW158201   9.926  12.055   7.341
18768SOL    HW258202   9.858  11.941   7.268
18769SOL     OW58203   2.098   7.865  12.383
18769SOL    HW158204   2.061   7.848  12.297
18769SOL    HW258205   2.165   7.932  12.368
18770SOL     OW58206   0.980   5.902   7.401
18770SOL    HW158207   0.980   5.974   7.464
18770SOL    HW258208   0.908   5.846   7.430
18771SOL     OW58209   4.615   3.990   2.220
18771SOL    HW158210   4.694   3.963   2.173
18771SOL    HW258211   4.550   3.923   2.198
18772SOL     OW58212   0.105   0.212  14.329
18772SOL    HW158213   0.019   0.201  14.370
18772SOL    HW258214   0.111   0.140  14.265
18773SOL     OW58215   7.773   9.991   5.340
18773SOL    HW158216   7.687   9.961   5.312
18773SOL    HW258217   7.816   9.912   5.373
18774SOL     OW58218   4.852  12.172   7.111
18774SOL    HW158219   4.914  12.242   7.132
18774SOL    HW258220   4.907  12.094   7.102
18775SOL     OW58221  14.094   2.070   2.070
18775SOL    HW158222  14.071   2.050   2.161
18775SOL    HW258223  14.169   2.013   2.052
18776SOL     OW58224  13.184   1.384   0.847
18776SOL    HW158225  13.183   1.289   0.862
18776SOL    HW258226  13.142   1.395   0.762
18777SOL     OW58227   1.249   7.163   8.588
18777SOL    HW158228   1.287   7.115   8.662
18777SOL    HW258229   1.301   7.136   8.512
18778SOL     OW58230  12.613   7.101   6.620
18778SOL    HW158231  12.523   7.113   6.590
18778SOL    HW258232  12.647   7.029   6.568
18779SOL     OW58233  12.614  12.066   7.363
18779SOL    HW158234  12.673  12.022   7.302
18779SOL    HW258235  12.582  11.997   7.421
18780SOL     OW58236   3.679   6.275   4.531
18780SOL    HW158237   3.650   6.361   4.562
18780SOL    HW258238   3.763   6.292   4.488
18781SOL     OW58239  14.185   4.056   1.833
18781SOL    HW158240  14.266   4.019   1.866
18781SOL    HW258241  14.116   4.006   1.877
18782SOL     OW58242  12.871   5.524   5.274
18782SOL    HW158243  12.822   5.606   5.284
18782SOL    HW258244  12.900   5.525   5.182
18783SOL     OW58245   8.161   2.103   9.610
18783SOL    HW158246   8.189   2.193   9.623
18783SOL    HW258247   8.124   2.102   9.521
18784SOL     OW58248   9.363   7.403  12.345
18784SOL    HW158249   9.374   7.402  12.250
18784SOL    HW258250   9.290   7.463  12.361
18785SOL     OW58251   3.230   2.171  12.661
18785SOL    HW158252   3.266   2.192  12.574
18785SOL    HW258253   3.136   2.158  12.645
18786SOL     OW58254   6.752  11.039   3.755
18786SOL    HW158255   6.670  11.068   3.796
18786SOL    HW258256   6.816  11.104   3.782
18787SOL     OW58257   9.195   3.045   5.630
18787SOL    HW158258   9.209   2.967   5.577
18787SOL    HW258259   9.100   3.051   5.640
18788SOL     OW58260  12.777  13.866  10.147
18788SOL    HW158261  12.755  13.815  10.225
18788SOL    HW258262  12.726  13.826  10.077
18789SOL     OW58263   6.461   0.182  11.933
18789SOL    HW158264   6.416   0.151  11.855
18789SOL    HW258265   6.393   0.184  12.001
18790SOL     OW58266   0.480   5.341  14.055
18790SOL    HW158267   0.495   5.334  13.961
18790SOL    HW258268   0.409   5.280  14.073
18791SOL     OW58269   2.108  13.848   2.383
18791SOL    HW158270   2.186  13.889   2.345
18791SOL    HW258271   2.043  13.918   2.384
18792SOL     OW58272   4.316   7.488   9.343
18792SOL    HW158273   4.271   7.406   9.320
18792SOL    HW258274   4.352   7.472   9.430
18793SOL     OW58275   0.802   3.682  11.903
18793SOL    HW158276   0.838   3.660  11.817
18793SOL    HW258277   0.707   3.674  11.892
18794SOL     OW58278   5.409   4.493  11.137
18794SOL    HW158279   5.393   4.587  11.137
18794SOL    HW258280   5.430   4.472  11.046
18795SOL     OW58281  14.538   8.493  13.728
18795SOL    HW158282  14.568   8.403  13.741
18795SOL    HW258283  14.619   8.545  13.727
18796SOL     OW58284  12.707  10.319   9.773
18796SOL    HW158285  12.695  10.335   9.867
18796SOL    HW258286  12.657  10.240   9.756
18797SOL     OW58287   1.291  11.859  10.064
18797SOL    HW158288   1.264  11.790  10.125
18797SOL    HW258289   1.226  11.855   9.993
18798SOL     OW58290   3.856   6.453   7.258
18798SOL    HW158291   3.875   6.362   7.278
18798SOL    HW258292   3.765   6.465   7.286
18799SOL     OW58293   6.579   7.205  13.868
18799SOL    HW158294   6.484   7.196  13.871
18799SOL    HW258295   6.611   7.141  13.932
18800SOL     OW58296   7.553   4.843   9.849
18800SOL    HW158297   7.548   4.879   9.937
18800SOL    HW258298   7.603   4.908   9.799
18801SOL     OW58299   5.356   7.063  12.198
18801SOL    HW158300   5.291   7.091  12.263
18801SOL    HW258301   5.409   6.998  12.245
18802SOL     OW58302  13.882   7.872   1.953
18802SOL    HW158303  13.803   7.925   1.965
18802SOL    HW258304  13.850   7.789   1.916
18803SOL     OW58305   2.059  10.151   1.577
18803SOL    HW158306   2.041  10.237   1.538
18803SOL    HW258307   2.001  10.147   1.653
18804SOL     OW58308   8.035   9.565   7.604
18804SOL    HW158309   8.004   9.635   7.662
18804SOL    HW258310   8.116   9.535   7.645
18805SOL     OW58311   3.251  13.290   7.931
18805SOL    HW158312   3.282  13.370   7.888
18805SOL    HW258313   3.304  13.220   7.891
18806SOL     OW58314   8.974   5.402   7.140
18806SOL    HW158315   8.894   5.398   7.193
18806SOL    HW258316   9.038   5.350   7.188
18807SOL     OW58317  14.207   9.311   6.651
18807SOL    HW158318  14.299   9.338   6.653
18807SOL    HW258319  14.208   9.219   6.675
18808SOL     OW58320   9.704   2.398  14.075
18808SOL    HW158321   9.785   2.392  14.024
18808SOL    HW258322   9.640   2.436  14.014
18809SOL     OW58323   8.986  14.838  10.286
18809SOL    HW158324   8.904  14.868  10.324
18809SOL    HW258325   9.047  14.835  10.360
18810SOL     OW58326   5.278  13.563   0.541
18810SOL    HW158327   5.238  13.478   0.559
18810SOL    HW258328   5.315  13.591   0.624
18811SOL     OW58329  14.203  10.541   5.911
18811SOL    HW158330  14.203  10.587   5.995
18811SOL    HW258331  14.280  10.576   5.865
18812SOL     OW58332  13.881  14.854  10.292
18812SOL    HW158333  13.833  14.786  10.244
18812SOL    HW258334  13.826   0.061  10.284
18813SOL     OW58335  14.429   9.122   4.863
18813SOL    HW158336  14.383   9.200   4.895
18813SOL    HW258337  14.363   9.052   4.869
18814SOL     OW58338  12.641   8.864   2.361
18814SOL    HW158339  12.734   8.853   2.342
18814SOL    HW258340  12.602   8.890   2.278
18815SOL     OW58341  14.566   4.380   4.209
18815SOL    HW158342  14.627   4.449   4.236
18815SOL    HW258343  14.483   4.403   4.251
18816SOL     OW58344  13.232   1.285  14.572
18816SOL    HW158345  13.301   1.333  14.526
18816SOL    HW258346  13.175   1.252  14.503
18817SOL     OW58347  11.947   9.566  14.740
18817SOL    HW158348  11.925   9.657  14.759
18817SOL    HW258349  11.954   9.562  14.645
18818SOL     OW58350  14.131   4.539  12.783
18818SOL    HW158351  14.177   4.462  12.815
18818SOL    HW258352  14.197   4.607  12.779
18819SOL     OW58353   1.585  14.401   7.804
18819SOL    HW158354   1.565  14.490   7.775
18819SOL    HW258355   1.606  14.354   7.724
18820SOL     OW58356   0.257  11.844   9.282
18820SOL    HW158357   0.340  11.821   9.323
18820SOL    HW258358   0.235  11.930   9.319
18821SOL     OW58359  10.739   9.628  12.894
18821SOL    HW158360  10.778   9.598  12.813
18821SOL    HW258361  10.733   9.723  12.884
18822SOL     OW58362  11.140  10.084   3.274
18822SOL    HW158363  11.049  10.058   3.262
18822SOL    HW258364  11.185  10.049   3.197
18823SOL     OW58365   6.990   5.031   9.528
18823SOL    HW158366   6.901   5.055   9.554
18823SOL    HW258367   7.047   5.073   9.593
18824SOL     OW58368  11.927   6.542   8.617
18824SOL    HW158369  11.861   6.544   8.548
18824SOL    HW258370  11.895   6.603   8.684
18825SOL     OW58371   5.687  11.388   2.768
18825SOL    HW158372   5.715  11.457   2.708
18825SOL    HW258373   5.684  11.431   2.854
18826SOL     OW58374  13.231   2.057   9.595
18826SOL    HW158375  13.139   2.067   9.570
18826SOL    HW258376  13.228   2.039   9.689
18827SOL     OW58377   6.790  11.214   2.407
18827SOL    HW158378   6.738  11.222   2.487
18827SOL    HW258379   6.877  11.186   2.439
18828SOL     OW58380  14.409   3.723  10.834
18828SOL    HW158381  14.405   3.727  10.738
18828SOL    HW258382  14.473   3.790  10.858
18829SOL     OW58383  14.587  14.042   2.354
18829SOL    HW158384  14.670  14.000   2.330
18829SOL    HW258385  14.589  14.126   2.308
18830SOL     OW58386   2.130   5.920  14.070
18830SOL    HW158387   2.105   5.963  13.988
18830SOL    HW258388   2.220   5.890  14.054
18831SOL     OW58389   0.119   9.469   4.588
18831SOL    HW158390   0.120   9.514   4.504
18831SOL    HW258391   0.188   9.511   4.639
18832SOL     OW58392  10.912   8.931   5.630
18832SOL    HW158393  10.877   8.995   5.568
18832SOL    HW258394  11.004   8.954   5.640
18833SOL     OW58395  14.334   4.153  12.854
18833SOL    HW158396  14.354   4.068  12.814
18833SOL    HW258397  14.334   4.215  12.781
18834SOL     OW58398   4.394   5.143   5.804
18834SOL    HW158399   4.337   5.212   5.771
18834SOL    HW258400   4.481   5.184   5.808
18835SOL     OW58401   1.977  12.915   1.777
18835SOL    HW158402   1.963  12.842   1.838
18835SOL    HW258403   1.940  12.885   1.694
18836SOL     OW58404  11.692   5.309   9.816
18836SOL    HW158405  11.637   5.252   9.868
18836SOL    HW258406  11.682   5.278   9.726
18837SOL     OW58407   6.450   8.028  13.492
18837SOL    HW158408   6.372   8.084  13.491
18837SOL    HW258409   6.423   7.949  13.444
18838SOL     OW58410  11.684  12.514   2.238
18838SOL    HW158411  11.634  12.434   2.250
18838SOL    HW258412  11.771  12.494   2.274
18839SOL     OW58413  14.431   9.340   1.622
18839SOL    HW158414  14.371   9.340   1.697
18839SOL    HW258415  14.377   9.365   1.547
18840SOL     OW58416   7.221   3.717  10.620
18840SOL    HW158417   7.149   3.756  10.669
18840SOL    HW258418   7.269   3.792  10.583
18841SOL     OW58419  10.142   9.156   7.759
18841SOL    HW158420  10.077   9.215   7.797
18841SOL    HW258421  10.096   9.072   7.750
18842SOL     OW58422   6.833  11.638   3.402
18842SOL    HW158423   6.900  11.591   3.353
18842SOL    HW258424   6.754  11.585   3.392
18843SOL     OW58425   9.204   2.481   9.068
18843SOL    HW158426   9.240   2.480   9.156
18843SOL    HW258427   9.221   2.570   9.037
18844SOL     OW58428  12.016   5.571  12.930
18844SOL    HW158429  12.024   5.652  12.879
18844SOL    HW258430  12.075   5.509  12.887
18845SOL     OW58431   0.216   6.049  10.695
18845SOL    HW158432   0.209   6.134  10.652
18845SOL    HW258433   0.270   6.066  10.772
18846SOL     OW58434   4.240  10.798   3.910
18846SOL    HW158435   4.234  10.882   3.865
18846SOL    HW258436   4.211  10.816   4.000
18847SOL     OW58437  11.633   7.472   0.110
18847SOL    HW158438  11.640   7.419   0.190
18847SOL    HW258439  11.715   7.456   0.064
18848SOL     OW58440   4.992  14.173   1.081
18848SOL    HW158441   4.952  14.116   1.014
18848SOL    HW258442   5.086  14.162   1.068
18849SOL     OW58443   9.439   6.320   5.227
18849SOL    HW158444   9.530   6.338   5.249
18849SOL    HW258445   9.388   6.373   5.289
18850SOL     OW58446   5.847   8.352   4.601
18850SOL    HW158447   5.801   8.376   4.521
18850SOL    HW258448   5.787   8.379   4.671
18851SOL     OW58449   9.321   6.419   3.459
18851SOL    HW158450   9.237   6.375   3.446
18851SOL    HW258451   9.305   6.510   3.432
18852SOL     OW58452   2.073  11.750   4.995
18852SOL    HW158453   2.065  11.785   5.084
18852SOL    HW258454   2.133  11.810   4.951
18853SOL     OW58455   7.302  11.837  10.430
18853SOL    HW158456   7.210  11.826  10.409
18853SOL    HW258457   7.305  11.837  10.526
18854SOL     OW58458  12.601   7.975  11.490
18854SOL    HW158459  12.673   8.038  11.482
18854SOL    HW258460  12.531   8.024  11.532
18855SOL     OW58461   2.213   7.922   8.366
18855SOL    HW158462   2.202   7.962   8.280
18855SOL    HW258463   2.307   7.928   8.383
18856SOL     OW58464  12.861   1.830   5.309
18856SOL    HW158465  12.933   1.825   5.371
18856SOL    HW258466  12.784   1.849   5.364
18857SOL     OW58467   1.490   6.262   7.793
18857SOL    HW158468   1.575   6.239   7.832
18857SOL    HW258469   1.484   6.206   7.716
18858SOL     OW58470   0.529  10.796  10.866
18858SOL    HW158471   0.437  10.821  10.871
18858SOL    HW258472   0.532  10.726  10.801
18859SOL     OW58473   8.228  12.895   8.357
18859SOL    HW158474   8.258  12.863   8.442
18859SOL    HW258475   8.165  12.829   8.327
18860SOL     OW58476   9.169   2.691   7.486
18860SOL    HW158477   9.194   2.625   7.551
18860SOL    HW258478   9.100   2.741   7.528
18861SOL     OW58479   2.600  13.055  13.749
18861SOL    HW158480   2.596  12.964  13.719
18861SOL    HW258481   2.693  13.072  13.764
18862SOL     OW58482   3.367   6.135   5.971
18862SOL    HW158483   3.355   6.040   5.977
18862SOL    HW258484   3.406   6.148   5.884
18863SOL     OW58485   6.216   0.828   7.369
18863SOL    HW158486   6.132   0.851   7.408
18863SOL    HW258487   6.212   0.863   7.280
18864SOL     OW58488   6.305   8.570  12.668
18864SOL    HW158489   6.378   8.579  12.730
18864SOL    HW258490   6.242   8.638  12.694
18865SOL     OW58491   7.497  10.317  13.760
18865SOL    HW158492   7.552  10.369  13.701
18865SOL    HW258493   7.531  10.228  13.752
18866SOL     OW58494  14.022   0.537   8.219
18866SOL    HW158495  13.992   0.447   8.218
18866SOL    HW258496  13.990   0.573   8.302
18867SOL     OW58497  10.534  10.909  11.374
18867SOL    HW158498  10.596  10.890  11.445
18867SOL    HW258499  10.448  10.892  11.412
18868SOL     OW58500  12.913   6.195   7.701
18868SOL    HW158501  12.875   6.232   7.621
18868SOL    HW258502  12.979   6.259   7.728
18869SOL     OW58503   1.805   0.574   5.374
18869SOL    HW158504   1.838   0.614   5.293
18869SOL    HW258505   1.814   0.643   5.440
18870SOL     OW58506   4.260   3.693   7.544
18870SOL    HW158507   4.179   3.708   7.496
18870SOL    HW258508   4.309   3.774   7.535
18871SOL     OW58509  12.760   6.833   5.048
18871SOL    HW158510  12.758   6.835   4.952
18871SOL    HW258511  12.726   6.747   5.072
18872SOL     OW58512  13.542  12.199   1.543
18872SOL    HW158513  13.496  12.202   1.627
18872SOL    HW258514  13.556  12.106   1.526
18873SOL     OW58515   1.732  13.802   1.725
18873SOL    HW158516   1.678  13.833   1.652
18873SOL    HW258517   1.688  13.723   1.756
18874SOL     OW58518   0.638  11.672  13.682
18874SOL    HW158519   0.588  11.744  13.643
18874SOL    HW258520   0.622  11.679  13.776
18875SOL     OW58521   1.812   3.607   4.667
18875SOL    HW158522   1.875   3.621   4.596
18875SOL    HW258523   1.749   3.545   4.631
18876SOL     OW58524   3.431   3.600   4.919
18876SOL    HW158525   3.526   3.618   4.918
18876SOL    HW258526   3.416   3.559   5.004
18877SOL     OW58527   4.350   7.654  10.312
18877SOL    HW158528   4.272   7.602  10.295
18877SOL    HW258529   4.403   7.644  10.233
18878SOL     OW58530   3.942   3.887  13.846
18878SOL    HW158531   3.943   3.944  13.922
18878SOL    HW258532   3.971   3.802  13.879
18879SOL     OW58533   1.825  13.128   6.301
18879SOL    HW158534   1.915  13.098   6.312
18879SOL    HW258535   1.801  13.100   6.212
18880SOL     OW58536   8.072  14.761   5.245
18880SOL    HW158537   8.069  14.853   5.272
18880SOL    HW258538   8.136  14.759   5.174
18881SOL     OW58539  10.026   5.976   0.131
18881SOL    HW158540  10.113   5.958   0.096
18881SOL    HW258541  10.041   6.037   0.204
18882SOL     OW58542   7.879   9.391  11.307
18882SOL    HW158543   7.819   9.317  11.302
18882SOL    HW258544   7.822   9.467  11.317
18883SOL     OW58545   4.373   1.278   7.222
18883SOL    HW158546   4.311   1.278   7.149
18883SOL    HW258547   4.449   1.324   7.188
18884SOL     OW58548  13.454   1.037   6.660
18884SOL    HW158549  13.467   1.128   6.689
18884SOL    HW258550  13.534   1.016   6.612
18885SOL     OW58551   5.406   3.035  14.805
18885SOL    HW158552   5.355   3.007   0.010
18885SOL    HW258553   5.381   3.127  14.792
18886SOL     OW58554  13.641  11.395   9.621
18886SOL    HW158555  13.626  11.456   9.693
18886SOL    HW258556  13.723  11.424   9.582
18887SOL     OW58557  13.906  13.761   3.678
18887SOL    HW158558  13.929  13.768   3.585
18887SOL    HW258559  13.905  13.667   3.695
18888SOL     OW58560  10.316  11.672   8.719
18888SOL    HW158561  10.296  11.708   8.633
18888SOL    HW258562  10.266  11.591   8.723
18889SOL     OW58563  10.832   9.408   2.288
18889SOL    HW158564  10.816   9.364   2.204
18889SOL    HW258565  10.879   9.342   2.340
18890SOL     OW58566   7.481  10.650   3.108
18890SOL    HW158567   7.546  10.702   3.155
18890SOL    HW258568   7.448  10.588   3.174
18891SOL     OW58569   9.228   3.714   1.473
18891SOL    HW158570   9.180   3.762   1.406
18891SOL    HW258571   9.220   3.769   1.552
18892SOL     OW58572  10.939   0.808  11.496
18892SOL    HW158573  10.895   0.770  11.571
18892SOL    HW258574  10.918   0.901  11.500
18893SOL     OW58575  11.271  12.815   2.246
18893SOL    HW158576  11.345  12.862   2.208
18893SOL    HW258577  11.265  12.734   2.196
18894SOL     OW58578  10.537  13.968  12.517
18894SOL    HW158579  10.600  14.039  12.529
18894SOL    HW258580  10.544  13.945  12.424
18895SOL     OW58581   5.107  11.187   2.513
18895SOL    HW158582   5.111  11.226   2.425
18895SOL    HW258583   5.192  11.144   2.524
18896SOL     OW58584  12.265   2.789   5.900
18896SOL    HW158585  12.199   2.848   5.937
18896SOL    HW258586  12.348   2.825   5.930
18897SOL     OW58587  11.393   7.105  12.036
18897SOL    HW158588  11.300   7.080  12.039
18897SOL    HW258589  11.426   7.083  12.123
18898SOL     OW58590  10.105   0.333  13.641
18898SOL    HW158591  10.059   0.368  13.717
18898SOL    HW258592  10.039   0.283  13.594
18899SOL     OW58593  12.656   4.087  10.266
18899SOL    HW158594  12.661   4.007  10.317
18899SOL    HW258595  12.729   4.082  10.204
18900SOL     OW58596  11.041  11.927  12.189
18900SOL    HW158597  11.059  11.912  12.282
18900SOL    HW258598  11.115  11.887  12.144
18901SOL     OW58599   1.734  13.271  10.122
18901SOL    HW158600   1.793  13.322  10.066
18901SOL    HW258601   1.792  13.228  10.185
18902SOL     OW58602   3.236  13.391  10.679
18902SOL    HW158603   3.227  13.370  10.772
18902SOL    HW258604   3.330  13.398  10.665
18903SOL     OW58605   4.854   9.369   8.907
18903SOL    HW158606   4.926   9.430   8.892
18903SOL    HW258607   4.896   9.283   8.915
18904SOL     OW58608   6.416   5.950  13.936
18904SOL    HW158609   6.505   5.929  13.966
18904SOL    HW258610   6.388   5.871  13.891
18905SOL     OW58611   2.871   8.168   7.845
18905SOL    HW158612   2.796   8.145   7.900
18905SOL    HW258613   2.852   8.127   7.761
18906SOL     OW58614   8.675  10.293   4.729
18906SOL    HW158615   8.677  10.250   4.814
18906SOL    HW258616   8.639  10.227   4.670
18907SOL     OW58617   7.775   5.031  10.084
18907SOL    HW158618   7.754   4.969  10.153
18907SOL    HW258619   7.819   5.103  10.129
18908SOL     OW58620   6.529   7.427   0.455
18908SOL    HW158621   6.562   7.505   0.499
18908SOL    HW258622   6.608   7.383   0.423
18909SOL     OW58623   8.732   1.703   0.526
18909SOL    HW158624   8.732   1.623   0.473
18909SOL    HW258625   8.804   1.690   0.588
18910SOL     OW58626   7.807   1.753   5.436
18910SOL    HW158627   7.764   1.695   5.499
18910SOL    HW258628   7.899   1.728   5.439
18911SOL     OW58629   5.567   1.104  12.014
18911SOL    HW158630   5.542   1.015  11.989
18911SOL    HW258631   5.521   1.160  11.951
18912SOL     OW58632   6.748  14.224  13.957
18912SOL    HW158633   6.710  14.229  14.045
18912SOL    HW258634   6.757  14.315  13.930
18913SOL     OW58635  14.552  11.782   3.200
18913SOL    HW158636  14.520  11.821   3.119
18913SOL    HW258637  14.475  11.775   3.256
18914SOL     OW58638  14.221   3.032  12.425
18914SOL    HW158639  14.269   3.107  12.461
18914SOL    HW258640  14.175   2.996  12.501
18915SOL     OW58641   9.138   7.469   4.327
18915SOL    HW158642   9.137   7.402   4.258
18915SOL    HW258643   9.052   7.462   4.369
18916SOL     OW58644   9.458   2.830   2.715
18916SOL    HW158645   9.422   2.906   2.669
18916SOL    HW258646   9.407   2.756   2.681
18917SOL     OW58647  12.234   5.235  10.791
18917SOL    HW158648  12.141   5.211  10.800
18917SOL    HW258649  12.275   5.202  10.870
18918SOL     OW58650  10.892   8.548   4.491
18918SOL    HW158651  10.885   8.453   4.481
18918SOL    HW258652  10.953   8.575   4.422
18919SOL     OW58653  10.030   7.822   4.227
18919SOL    HW158654  10.032   7.835   4.322
18919SOL    HW258655   9.983   7.740   4.215
18920SOL     OW58656  11.441   0.622   3.800
18920SOL    HW158657  11.391   0.568   3.862
18920SOL    HW258658  11.502   0.672   3.855
18921SOL     OW58659  13.341   0.804   5.209
18921SOL    HW158660  13.369   0.724   5.253
18921SOL    HW258661  13.278   0.844   5.269
18922SOL     OW58662  13.984   3.360  11.963
18922SOL    HW158663  14.062   3.345  11.911
18922SOL    HW258664  13.912   3.355  11.901
18923SOL     OW58665  13.285   1.465  12.987
18923SOL    HW158666  13.253   1.376  12.973
18923SOL    HW258667  13.311   1.495  12.900
18924SOL     OW58668  11.312   9.685   7.878
18924SOL    HW158669  11.307   9.763   7.935
18924SOL    HW258670  11.239   9.695   7.817
18925SOL     OW58671   1.241   4.930   7.166
18925SOL    HW158672   1.254   5.012   7.117
18925SOL    HW258673   1.146   4.920   7.170
18926SOL     OW58674   8.055  11.713   6.991
18926SOL    HW158675   8.090  11.769   6.922
18926SOL    HW258676   7.998  11.771   7.042
18927SOL     OW58677  13.802  12.373   2.923
18927SOL    HW158678  13.759  12.296   2.960
18927SOL    HW258679  13.736  12.413   2.867
18928SOL     OW58680   7.830   2.739   4.491
18928SOL    HW158681   7.831   2.645   4.472
18928SOL    HW258682   7.829   2.744   4.587
18929SOL     OW58683   4.658  13.235  12.735
18929SOL    HW158684   4.604  13.273  12.666
18929SOL    HW258685   4.627  13.275  12.816
18930SOL     OW58686  13.653   0.992   4.341
18930SOL    HW158687  13.671   0.922   4.279
18930SOL    HW258688  13.583   0.958   4.397
18931SOL     OW58689  10.106   6.652   9.764
18931SOL    HW158690  10.150   6.569   9.781
18931SOL    HW258691  10.013   6.632   9.769
18932SOL     OW58692   2.422   8.802  13.520
18932SOL    HW158693   2.361   8.862  13.562
18932SOL    HW258694   2.471   8.762  13.592
18933SOL     OW58695  13.265  10.744  12.937
18933SOL    HW158696  13.247  10.718  13.028
18933SOL    HW258697  13.237  10.670  12.885
18934SOL     OW58698   7.869   9.115  12.114
18934SOL    HW158699   7.844   9.182  12.178
18934SOL    HW258700   7.938   9.065  12.158
18935SOL     OW58701   7.580   4.456  11.293
18935SOL    HW158702   7.528   4.375  11.290
18935SOL    HW258703   7.594   4.478  11.201
18936SOL     OW58704   6.964  11.139   6.836
18936SOL    HW158705   6.922  11.054   6.833
18936SOL    HW258706   6.976  11.164   6.744
18937SOL     OW58707   4.517   8.850   1.557
18937SOL    HW158708   4.449   8.828   1.621
18937SOL    HW258709   4.501   8.942   1.537
18938SOL     OW58710   7.690  11.064   9.546
18938SOL    HW158711   7.603  11.104   9.539
18938SOL    HW258712   7.678  10.988   9.603
18939SOL     OW58713   6.433   3.740  12.481
18939SOL    HW158714   6.458   3.712  12.570
18939SOL    HW258715   6.367   3.676  12.455
18940SOL     OW58716  11.860  12.020  10.578
18940SOL    HW158717  11.863  12.066  10.662
18940SOL    HW258718  11.809  12.078  10.521
18941SOL     OW58719  11.300   6.033  13.495
18941SOL    HW158720  11.222   6.066  13.452
18941SOL    HW258721  11.285   6.050  13.588
18942SOL     OW58722   3.389   2.167  10.472
18942SOL    HW158723   3.458   2.165  10.538
18942SOL    HW258724   3.431   2.133  10.393
18943SOL     OW58725  12.068   5.101   7.112
18943SOL    HW158726  12.012   5.163   7.159
18943SOL    HW258727  12.118   5.057   7.182
18944SOL     OW58728  11.529   9.965   3.330
18944SOL    HW158729  11.468  10.027   3.371
18944SOL    HW258730  11.483   9.881   3.333
18945SOL     OW58731  12.984   9.120  14.176
18945SOL    HW158732  12.966   9.179  14.104
18945SOL    HW258733  13.068   9.079  14.153
18946SOL     OW58734   8.109   6.128  11.924
18946SOL    HW158735   8.157   6.175  11.856
18946SOL    HW258736   8.111   6.187  11.999
18947SOL     OW58737   2.791  13.992   7.329
18947SOL    HW158738   2.790  14.087   7.326
18947SOL    HW258739   2.805  13.964   7.238
18948SOL     OW58740   7.079   0.862   8.663
18948SOL    HW158741   6.999   0.824   8.699
18948SOL    HW258742   7.118   0.909   8.736
18949SOL     OW58743   6.707   7.249   4.297
18949SOL    HW158744   6.701   7.228   4.204
18949SOL    HW258745   6.795   7.286   4.308
18950SOL     OW58746   9.656   3.159   4.053
18950SOL    HW158747   9.586   3.118   4.001
18950SOL    HW258748   9.695   3.224   3.994
18951SOL     OW58749   1.924   2.684   2.246
18951SOL    HW158750   1.907   2.695   2.152
18951SOL    HW258751   2.003   2.736   2.262
18952SOL     OW58752   0.680   9.825  10.053
18952SOL    HW158753   0.741   9.868  10.112
18952SOL    HW258754   0.656   9.744  10.098
18953SOL     OW58755  13.779  14.642   8.030
18953SOL    HW158756  13.761  14.556   7.992
18953SOL    HW258757  13.693  14.684   8.035
18954SOL     OW58758   3.836   9.744   1.332
18954SOL    HW158759   3.750   9.783   1.323
18954SOL    HW258760   3.854   9.704   1.246
18955SOL     OW58761   4.657   8.138   0.834
18955SOL    HW158762   4.626   8.057   0.874
18955SOL    HW258763   4.588   8.202   0.852
18956SOL     OW58764  14.113   1.494  11.150
18956SOL    HW158765  14.067   1.487  11.067
18956SOL    HW258766  14.190   1.438  11.141
18957SOL     OW58767   0.509   8.730  13.381
18957SOL    HW158768   0.431   8.782  13.358
18957SOL    HW258769   0.582   8.781  13.347
18958SOL     OW58770  10.605   7.191  12.084
18958SOL    HW158771  10.526   7.235  12.053
18958SOL    HW258772  10.649   7.256  12.139
18959SOL     OW58773   3.758  11.425   9.887
18959SOL    HW158774   3.829  11.402   9.946
18959SOL    HW258775   3.800  11.473   9.816
18960SOL     OW58776   9.477  10.171   5.889
18960SOL    HW158777   9.458  10.265   5.894
18960SOL    HW258778   9.472  10.141   5.980
18961SOL     OW58779   7.556   7.236  12.141
18961SOL    HW158780   7.570   7.321  12.183
18961SOL    HW258781   7.469   7.208  12.172
18962SOL     OW58782   0.896   8.988  14.809
18962SOL    HW158783   0.980   8.978  14.853
18962SOL    HW258784   0.845   8.913  14.839
18963SOL     OW58785   8.130  10.334   6.428
18963SOL    HW158786   8.086  10.252   6.448
18963SOL    HW258787   8.218  10.308   6.402
18964SOL     OW58788  14.607   2.638  14.336
18964SOL    HW158789  14.611   2.678  14.250
18964SOL    HW258790  14.696   2.647  14.371
18965SOL     OW58791   5.810  12.379   8.609
18965SOL    HW158792   5.735  12.440   8.613
18965SOL    HW258793   5.806  12.343   8.520
18966SOL     OW58794   3.703   7.630  14.180
18966SOL    HW158795   3.749   7.620  14.097
18966SOL    HW258796   3.742   7.564  14.237
18967SOL     OW58797   2.355  10.978  13.186
18967SOL    HW158798   2.265  10.948  13.171
18967SOL    HW258799   2.392  10.912  13.244
18968SOL     OW58800  13.693   8.000   3.449
18968SOL    HW158801  13.751   7.926   3.467
18968SOL    HW258802  13.729   8.071   3.503
18969SOL     OW58803   9.157   8.384  14.201
18969SOL    HW158804   9.070   8.370  14.163
18969SOL    HW258805   9.218   8.370  14.129
18970SOL     OW58806  12.556   5.441   7.794
18970SOL    HW158807  12.564   5.526   7.837
18970SOL    HW258808  12.636   5.433   7.741
18971SOL     OW58809  13.545   8.440   6.653
18971SOL    HW158810  13.522   8.526   6.617
18971SOL    HW258811  13.539   8.380   6.578
18972SOL     OW58812  13.295   1.043  11.469
18972SOL    HW158813  13.212   1.005  11.443
18972SOL    HW258814  13.351   1.036  11.392
18973SOL     OW58815   1.245   5.483  14.708
18973SOL    HW158816   1.248   5.403  14.655
18973SOL    HW258817   1.152   5.504  14.713
18974SOL     OW58818   2.594   3.061   1.767
18974SOL    HW158819   2.673   3.112   1.789
18974SOL    HW258820   2.597   2.987   1.827
18975SOL     OW58821   9.542  12.395   2.617
18975SOL    HW158822   9.486  12.358   2.548
18975SOL    HW258823   9.538  12.489   2.602
18976SOL     OW58824   0.907  12.046   9.926
18976SOL    HW158825   0.966  12.051   9.851
18976SOL    HW258826   0.960  12.079   9.999
18977SOL     OW58827   6.362   0.618  12.023
18977SOL    HW158828   6.305   0.692  12.044
18977SOL    HW258829   6.431   0.656  11.968
18978SOL     OW58830   5.767   0.660   6.912
18978SOL    HW158831   5.745   0.642   6.821
18978SOL    HW258832   5.762   0.755   6.920
18979SOL     OW58833  10.262   6.841  12.449
18979SOL    HW158834  10.232   6.903  12.383
18979SOL    HW258835  10.330   6.790  12.404
18980SOL     OW58836  10.863   6.596  14.621
18980SOL    HW158837  10.770   6.585  14.599
18980SOL    HW258838  10.896   6.659  14.557
18981SOL     OW58839   2.221   5.052  14.303
18981SOL    HW158840   2.311   5.021  14.308
18981SOL    HW258841   2.190   5.050  14.394
18982SOL     OW58842  11.385   5.456   5.629
18982SOL    HW158843  11.375   5.528   5.567
18982SOL    HW258844  11.455   5.484   5.688
18983SOL     OW58845   2.160   7.045   5.084
18983SOL    HW158846   2.064   7.042   5.075
18983SOL    HW258847   2.175   7.089   5.167
18984SOL     OW58848   8.750  14.078   2.187
18984SOL    HW158849   8.731  14.160   2.143
18984SOL    HW258850   8.714  14.011   2.129
18985SOL     OW58851   3.532   6.841   8.716
18985SOL    HW158852   3.603   6.878   8.664
18985SOL    HW258853   3.575   6.802   8.792
18986SOL     OW58854   8.008   6.857  12.142
18986SOL    HW158855   7.940   6.790  12.130
18986SOL    HW258856   7.980   6.929  12.086
18987SOL     OW58857   2.652  10.520   8.267
18987SOL    HW158858   2.697  10.491   8.346
18987SOL    HW258859   2.572  10.467   8.264
18988SOL     OW58860  13.268   4.662   0.658
18988SOL    HW158861  13.283   4.723   0.586
18988SOL    HW258862  13.244   4.717   0.732
18989SOL     OW58863  10.701   2.189  11.253
18989SOL    HW158864  10.733   2.207  11.341
18989SOL    HW258865  10.726   2.098  11.236
18990SOL     OW58866  13.500   4.973   3.047
18990SOL    HW158867  13.591   4.988   3.023
18990SOL    HW258868  13.474   4.898   2.993
18991SOL     OW58869   0.391   3.485  13.294
18991SOL    HW158870   0.308   3.528  13.316
18991SOL    HW258871   0.457   3.536  13.341
18992SOL     OW58872   5.163  11.283   4.075
18992SOL    HW158873   5.133  11.313   4.161
18992SOL    HW258874   5.246  11.240   4.092
18993SOL     OW58875   5.122   0.582   0.220
18993SOL    HW158876   5.214   0.564   0.240
18993SOL    HW258877   5.122   0.605   0.127
18994SOL     OW58878   5.056   9.209   0.893
18994SOL    HW158879   5.007   9.283   0.930
18994SOL    HW258880   5.005   9.183   0.816
18995SOL     OW58881   7.403   7.514   7.219
18995SOL    HW158882   7.380   7.606   7.214
18995SOL    HW258883   7.449   7.495   7.137
18996SOL     OW58884   9.861  10.088   1.792
18996SOL    HW158885   9.853  10.171   1.745
18996SOL    HW258886   9.907  10.111   1.873
18997SOL     OW58887   4.353   0.177   5.909
18997SOL    HW158888   4.332   0.206   5.998
18997SOL    HW258889   4.448   0.188   5.902
18998SOL     OW58890  12.390  13.054  11.138
18998SOL    HW158891  12.392  13.029  11.230
18998SOL    HW258892  12.357  12.977  11.093
18999SOL     OW58893   5.641  10.980   4.831
18999SOL    HW158894   5.660  10.896   4.874
18999SOL    HW258895   5.727  11.012   4.803
19000SOL     OW58896   1.088   2.003   7.906
19000SOL    HW158897   1.163   1.993   7.848
19000SOL    HW258898   1.015   1.961   7.858
19001SOL     OW58899  12.034  11.402  12.041
19001SOL    HW158900  11.981  11.323  12.035
19001SOL    HW258901  12.115  11.381  11.995
19002SOL     OW58902  14.600   0.414   6.439
19002SOL    HW158903  14.524   0.416   6.496
19002SOL    HW258904  14.674   0.432   6.496
19003SOL     OW58905  10.257   4.458   3.818
19003SOL    HW158906  10.262   4.546   3.854
19003SOL    HW258907  10.345   4.422   3.830
19004SOL     OW58908   4.742  13.881   0.573
19004SOL    HW158909   4.819  13.890   0.517
19004SOL    HW258910   4.672  13.853   0.514
19005SOL     OW58911   3.152   5.194   0.678
19005SOL    HW158912   3.152   5.264   0.742
19005SOL    HW258913   3.186   5.234   0.598
19006SOL     OW58914   7.525  11.125   7.350
19006SOL    HW158915   7.571  11.205   7.324
19006SOL    HW258916   7.465  11.107   7.278
19007SOL     OW58917   3.387   5.585   3.889
19007SOL    HW158918   3.411   5.612   3.978
19007SOL    HW258919   3.315   5.523   3.901
19008SOL     OW58920   3.055   7.438   8.060
19008SOL    HW158921   3.015   7.499   7.998
19008SOL    HW258922   3.147   7.464   8.063
19009SOL     OW58923  12.605   6.411  12.825
19009SOL    HW158924  12.644   6.460  12.753
19009SOL    HW258925  12.567   6.478  12.882
19010SOL     OW58926   0.664   8.919  10.373
19010SOL    HW158927   0.601   8.850  10.354
19010SOL    HW258928   0.749   8.875  10.365
19011SOL     OW58929  12.847  12.628   3.013
19011SOL    HW158930  12.919  12.671   3.058
19011SOL    HW258931  12.871  12.536   3.011
19012SOL     OW58932   2.940   6.041  13.486
19012SOL    HW158933   2.996   5.964  13.493
19012SOL    HW258934   2.940   6.062  13.392
19013SOL     OW58935   2.951  12.050  11.513
19013SOL    HW158936   2.990  12.100  11.442
19013SOL    HW258937   2.947  12.110  11.587
19014SOL     OW58938  14.491  10.607   3.887
19014SOL    HW158939  14.584  10.607   3.863
19014SOL    HW258940  14.448  10.554   3.821
19015SOL     OW58941   1.850   0.285   8.063
19015SOL    HW158942   1.882   0.365   8.104
19015SOL    HW258943   1.808   0.236   8.134
19016SOL     OW58944   7.637   6.569   0.509
19016SOL    HW158945   7.658   6.563   0.416
19016SOL    HW258946   7.583   6.648   0.516
19017SOL     OW58947  12.942   7.662   3.281
19017SOL    HW158948  12.927   7.627   3.193
19017SOL    HW258949  12.858   7.652   3.325
19018SOL     OW58950   9.633  14.176   7.154
19018SOL    HW158951   9.725  14.200   7.141
19018SOL    HW258952   9.591  14.258   7.182
19019SOL     OW58953   6.923   1.284   3.054
19019SOL    HW158954   6.932   1.351   3.122
19019SOL    HW258955   6.829   1.266   3.052
19020SOL     OW58956   4.702  10.697   4.851
19020SOL    HW158957   4.735  10.722   4.937
19020SOL    HW258958   4.649  10.772   4.823
19021SOL     OW58959   2.412  14.802   3.072
19021SOL    HW158960   2.425  14.848   3.156
19021SOL    HW258961   2.480  14.735   3.071
19022SOL     OW58962  10.544   4.697   8.342
19022SOL    HW158963  10.508   4.785   8.352
19022SOL    HW258964  10.467   4.641   8.331
19023SOL     OW58965   3.621   1.330   3.216
19023SOL    HW158966   3.574   1.248   3.228
19023SOL    HW258967   3.568   1.395   3.262
19024SOL     OW58968   2.756   7.454  10.153
19024SOL    HW158969   2.820   7.507  10.199
19024SOL    HW258970   2.718   7.398  10.220
19025SOL     OW58971  11.203  14.565  10.661
19025SOL    HW158972  11.252  14.639  10.696
19025SOL    HW258973  11.245  14.488  10.700
19026SOL     OW58974  12.464  13.315   2.988
19026SOL    HW158975  12.532  13.375   3.019
19026SOL    HW258976  12.466  13.243   3.050
19027SOL     OW58977   8.089  11.989  14.569
19027SOL    HW158978   8.157  12.012  14.505
19027SOL    HW258979   8.080  11.894  14.561
19028SOL     OW58980  11.911  10.790   9.890
19028SOL    HW158981  11.836  10.764   9.837
19028SOL    HW258982  11.985  10.791   9.829
19029SOL     OW58983  10.782   2.118   0.227
19029SOL    HW158984  10.744   2.195   0.185
19029SOL    HW258985  10.807   2.060   0.154
19030SOL     OW58986   8.627  12.739   3.805
19030SOL    HW158987   8.568  12.724   3.731
19030SOL    HW258988   8.618  12.660   3.858
19031SOL     OW58989   3.678   9.574   0.157
19031SOL    HW158990   3.595   9.606   0.120
19031SOL    HW258991   3.746   9.612   0.101
19032SOL     OW58992   2.966   4.801  12.818
19032SOL    HW158993   2.948   4.893  12.837
19032SOL    HW258994   2.926   4.753  12.891
19033SOL     OW58995   4.521  14.652   4.028
19033SOL    HW158996   4.448  14.713   4.023
19033SOL    HW258997   4.483  14.567   4.005
19034SOL     OW58998   3.674   7.808  14.697
19034SOL    HW158999   3.623   7.858  14.632
19034SOL    HW259000   3.763   7.809  14.663
19035SOL     OW59001   4.913   1.082   8.927
19035SOL    HW159002   4.869   1.004   8.893
19035SOL    HW259003   4.877   1.154   8.875
19036SOL     OW59004   2.377   9.779   0.859
19036SOL    HW159005   2.311   9.710   0.856
19036SOL    HW259006   2.433   9.762   0.783
19037SOL     OW59007  12.739   4.776  11.236
19037SOL    HW159008  12.799   4.851  11.231
19037SOL    HW259009  12.677   4.800  11.306
19038SOL     OW59010   7.499  12.343   9.524
19038SOL    HW159011   7.587  12.366   9.555
19038SOL    HW259012   7.510  12.258   9.482
19039SOL     OW59013   8.276   9.951   4.861
19039SOL    HW159014   8.181   9.941   4.873
19039SOL    HW259015   8.285  10.000   4.780
19040SOL     OW59016  13.236   1.919  12.870
19040SOL    HW159017  13.245   1.855  12.941
19040SOL    HW259018  13.283   1.880  12.796
19041SOL     OW59019   4.598   5.222   2.917
19041SOL    HW159020   4.633   5.160   2.853
19041SOL    HW259021   4.672   5.239   2.977
19042SOL     OW59022   1.475   5.484  11.173
19042SOL    HW159023   1.487   5.560  11.116
19042SOL    HW259024   1.413   5.514  11.240
19043SOL     OW59025  14.069   2.077  14.643
19043SOL    HW159026  14.053   2.015  14.572
19043SOL    HW259027  14.116   2.149  14.602
19044SOL     OW59028  14.832  10.121  10.822
19044SOL    HW159029   0.006  10.152  10.900
19044SOL    HW259030  14.748  10.089  10.855
19045SOL     OW59031   2.984   8.821   8.200
19045SOL    HW159032   2.935   8.747   8.165
19045SOL    HW259033   3.070   8.816   8.158
19046SOL     OW59034  14.000  10.662   2.027
19046SOL    HW159035  13.907  10.672   2.008
19046SOL    HW259036  14.040  10.644   1.942
19047SOL     OW59037  14.167   5.846  10.752
19047SOL    HW159038  14.197   5.793  10.678
19047SOL    HW259039  14.206   5.804  10.829
19048SOL     OW59040  12.896   7.050   4.819
19048SOL    HW159041  12.844   7.074   4.896
19048SOL    HW259042  12.957   7.123   4.808
19049SOL     OW59043   9.133   9.059  10.427
19049SOL    HW159044   9.200   9.127  10.435
19049SOL    HW259045   9.102   9.044  10.516
19050SOL     OW59046   4.248   2.527  11.035
19050SOL    HW159047   4.309   2.457  11.012
19050SOL    HW259048   4.172   2.512  10.979
19051SOL     OW59049   8.150   4.038   8.984
19051SOL    HW159050   8.229   4.054   9.036
19051SOL    HW259051   8.078   4.072   9.038
19052SOL     OW59052   8.334   6.943   9.831
19052SOL    HW159053   8.312   7.008   9.897
19052SOL    HW259054   8.377   6.992   9.761
19053SOL     OW59055  12.936  10.686   6.779
19053SOL    HW159056  12.987  10.607   6.764
19053SOL    HW259057  13.001  10.755   6.793
19054SOL     OW59058   9.838   1.411  13.281
19054SOL    HW159059   9.813   1.352  13.210
19054SOL    HW259060   9.876   1.354  13.348
19055SOL     OW59061   6.605   1.188   5.358
19055SOL    HW159062   6.584   1.128   5.429
19055SOL    HW259063   6.555   1.156   5.283
19056SOL     OW59064   3.541  11.659   3.401
19056SOL    HW159065   3.576  11.748   3.396
19056SOL    HW259066   3.483  11.660   3.478
19057SOL     OW59067   4.201  10.419   6.974
19057SOL    HW159068   4.177  10.454   6.889
19057SOL    HW259069   4.123  10.372   7.004
19058SOL     OW59070   3.735   3.233   7.993
19058SOL    HW159071   3.711   3.164   8.055
19058SOL    HW259072   3.660   3.293   7.994
19059SOL     OW59073  13.932   3.006   3.567
19059SOL    HW159074  13.941   2.966   3.654
19059SOL    HW259075  13.915   3.098   3.585
19060SOL     OW59076   7.699   4.311  10.540
19060SOL    HW159077   7.669   4.391  10.583
19060SOL    HW259078   7.728   4.339  10.454
19061SOL     OW59079   6.501   1.559   1.991
19061SOL    HW159080   6.572   1.622   1.984
19061SOL    HW259081   6.493   1.521   1.903
19062SOL     OW59082   9.755   9.804  10.533
19062SOL    HW159083   9.750   9.712  10.556
19062SOL    HW259084   9.837   9.835  10.572
19063SOL     OW59085  14.783   2.682   2.293
19063SOL    HW159086  14.871   2.675   2.331
19063SOL    HW259087  14.765   2.776   2.293
19064SOL     OW59088  13.565   3.101  14.008
19064SOL    HW159089  13.506   3.052  13.951
19064SOL    HW259090  13.611   3.034  14.059
19065SOL     OW59091   3.963   8.714   0.342
19065SOL    HW159092   3.974   8.681   0.431
19065SOL    HW259093   4.045   8.692   0.298
19066SOL     OW59094   3.133   1.736   1.646
19066SOL    HW159095   3.158   1.756   1.556
19066SOL    HW259096   3.213   1.746   1.697
19067SOL     OW59097   8.486  13.638   7.685
19067SOL    HW159098   8.520  13.666   7.770
19067SOL    HW259099   8.437  13.557   7.704
19068SOL     OW59100   9.573   9.954   2.180
19068SOL    HW159101   9.613  10.009   2.247
19068SOL    HW259102   9.641   9.891   2.157
19069SOL     OW59103   9.150  14.824  13.776
19069SOL    HW159104   9.063  14.802  13.742
19069SOL    HW259105   9.206  14.752  13.747
19070SOL     OW59106   3.450   4.298  14.330
19070SOL    HW159107   3.496   4.339  14.404
19070SOL    HW259108   3.373   4.353  14.317
19071SOL     OW59109  11.536   2.336   7.975
19071SOL    HW159110  11.509   2.427   7.983
19071SOL    HW259111  11.621   2.332   8.019
19072SOL     OW59112  10.356   3.178   1.147
19072SOL    HW159113  10.424   3.120   1.113
19072SOL    HW259114  10.322   3.133   1.224
19073SOL     OW59115   4.034  12.394   5.191
19073SOL    HW159116   3.991  12.398   5.276
19073SOL    HW259117   4.072  12.481   5.179
19074SOL     OW59118  13.711   0.377   1.778
19074SOL    HW159119  13.751   0.424   1.851
19074SOL    HW259120  13.779   0.316   1.749
19075SOL     OW59121   3.517  14.457   9.256
19075SOL    HW159122   3.512  14.465   9.161
19075SOL    HW259123   3.436  14.412   9.280
19076SOL     OW59124   3.094   3.124  12.723
19076SOL    HW159125   3.161   3.164  12.667
19076SOL    HW259126   3.110   3.030  12.717
19077SOL     OW59127  10.648   1.192  11.616
19077SOL    HW159128  10.579   1.219  11.677
19077SOL    HW259129  10.684   1.112  11.656
19078SOL     OW59130  11.601   7.622   5.120
19078SOL    HW159131  11.618   7.554   5.054
19078SOL    HW259132  11.515   7.600   5.155
19079SOL     OW59133  13.366  14.352   6.752
19079SOL    HW159134  13.441  14.386   6.802
19079SOL    HW259135  13.405  14.289   6.691
19080SOL     OW59136  14.162  11.232   2.853
19080SOL    HW159137  14.103  11.209   2.925
19080SOL    HW259138  14.193  11.148   2.820
19081SOL     OW59139   4.432   5.395   2.805
19081SOL    HW159140   4.480   5.320   2.841
19081SOL    HW259141   4.449   5.465   2.868
19082SOL     OW59142   8.443   1.679  12.603
19082SOL    HW159143   8.428   1.759  12.553
19082SOL    HW259144   8.409   1.699  12.690
19083SOL     OW59145   6.306  12.114  13.996
19083SOL    HW159146   6.281  12.158  13.915
19083SOL    HW259147   6.363  12.042  13.968
19084SOL     OW59148   8.206   9.039   9.564
19084SOL    HW159149   8.122   9.049   9.520
19084SOL    HW259150   8.202   8.952   9.604
19085SOL     OW59151   8.964   6.576  12.576
19085SOL    HW159152   8.905   6.626  12.632
19085SOL    HW259153   8.968   6.489  12.617
19086SOL     OW59154   8.883  13.023   9.277
19086SOL    HW159155   8.811  12.965   9.255
19086SOL    HW259156   8.961  12.969   9.269
19087SOL     OW59157  11.662   5.097   2.615
19087SOL    HW159158  11.744   5.050   2.631
19087SOL    HW259159  11.606   5.074   2.689
19088SOL     OW59160   9.178   1.321   0.239
19088SOL    HW159161   9.150   1.267   0.312
19088SOL    HW259162   9.098   1.334   0.187
19089SOL     OW59163  10.136  13.908  12.987
19089SOL    HW159164  10.122  13.872  12.899
19089SOL    HW259165  10.146  14.002  12.974
19090SOL     OW59166  12.729   1.764   0.077
19090SOL    HW159167  12.683   1.846   0.096
19090SOL    HW259168  12.822   1.786   0.085
19091SOL     OW59169  10.005   4.227  12.211
19091SOL    HW159170  10.044   4.300  12.258
19091SOL    HW259171  10.070   4.205  12.144
19092SOL     OW59172   0.867   4.534   0.837
19092SOL    HW159173   0.877   4.580   0.920
19092SOL    HW259174   0.811   4.459   0.857
19093SOL     OW59175   9.029   4.376   4.026
19093SOL    HW159176   9.084   4.420   3.962
19093SOL    HW259177   8.958   4.337   3.975
19094SOL     OW59178  10.740   2.855   5.338
19094SOL    HW159179  10.680   2.925   5.311
19094SOL    HW259180  10.823   2.878   5.296
19095SOL     OW59181  12.439  13.042   3.180
19095SOL    HW159182  12.515  13.059   3.124
19095SOL    HW259183  12.448  12.951   3.206
19096SOL     OW59184   0.280   0.584   2.863
19096SOL    HW159185   0.350   0.548   2.810
19096SOL    HW259186   0.212   0.609   2.800
19097SOL     OW59187  14.171   2.315  14.568
19097SOL    HW159188  14.162   2.407  14.593
19097SOL    HW259189  14.265   2.298  14.574
19098SOL     OW59190  10.147   2.938   3.462
19098SOL    HW159191  10.202   2.863   3.488
19098SOL    HW259192  10.156   2.942   3.367
19099SOL     OW59193  12.478   6.944  11.809
19099SOL    HW159194  12.491   7.031  11.772
19099SOL    HW259195  12.386   6.941  11.833
19100SOL     OW59196   6.037   7.184  11.706
19100SOL    HW159197   5.951   7.143  11.710
19100SOL    HW259198   6.095   7.122  11.751
19101SOL     OW59199   4.514  14.078   6.116
19101SOL    HW159200   4.427  14.100   6.150
19101SOL    HW259201   4.574  14.104   6.185
19102SOL     OW59202   8.715  11.281  11.776
19102SOL    HW159203   8.800  11.254  11.813
19102SOL    HW259204   8.669  11.320  11.851
19103SOL     OW59205   6.423   0.714  12.818
19103SOL    HW159206   6.438   0.646  12.884
19103SOL    HW259207   6.335   0.695  12.784
19104SOL     OW59208   0.608   2.018  10.571
19104SOL    HW159209   0.584   2.018  10.664
19104SOL    HW259210   0.531   2.052  10.526
19105SOL     OW59211   1.575  12.531   3.214
19105SOL    HW159212   1.604  12.552   3.303
19105SOL    HW259213   1.522  12.452   3.223
19106SOL     OW59214   9.371  14.496  11.356
19106SOL    HW159215   9.286  14.453  11.348
19106SOL    HW259216   9.434  14.424  11.352
19107SOL     OW59217  11.783   5.600  10.297
19107SOL    HW159218  11.818   5.620  10.384
19107SOL    HW259219  11.797   5.680  10.247
19108SOL     OW59220   7.260  12.942  14.184
19108SOL    HW159221   7.193  12.947  14.252
19108SOL    HW259222   7.247  13.021  14.131
19109SOL     OW59223  11.928   4.074   6.195
19109SOL    HW159224  11.998   4.094   6.133
19109SOL    HW259225  11.847   4.086   6.145
19110SOL     OW59226   7.291  12.638  11.236
19110SOL    HW159227   7.277  12.544  11.236
19110SOL    HW259228   7.386  12.648  11.245
19111SOL     OW59229   5.359   0.551   2.000
19111SOL    HW159230   5.340   0.464   2.035
19111SOL    HW259231   5.288   0.569   1.939
19112SOL     OW59232  12.474   9.344   9.178
19112SOL    HW159233  12.484   9.386   9.093
19112SOL    HW259234  12.417   9.269   9.162
19113SOL     OW59235   7.158  11.883  13.402
19113SOL    HW159236   7.244  11.858  13.435
19113SOL    HW259237   7.117  11.930  13.475
19114SOL     OW59238  11.686  10.514  13.856
19114SOL    HW159239  11.638  10.590  13.823
19114SOL    HW259240  11.655  10.503  13.946
19115SOL     OW59241   7.665  12.258  11.444
19115SOL    HW159242   7.611  12.186  11.413
19115SOL    HW259243   7.690  12.234  11.533
19116SOL     OW59244  10.331  10.689  10.529
19116SOL    HW159245  10.264  10.633  10.569
19116SOL    HW259246  10.302  10.700  10.438
19117SOL     OW59247  10.354   5.964   7.911
19117SOL    HW159248  10.283   5.902   7.893
19117SOL    HW259249  10.431   5.927   7.868
19118SOL     OW59250  12.350   3.167   1.158
19118SOL    HW159251  12.388   3.167   1.246
19118SOL    HW259252  12.264   3.208   1.170
19119SOL     OW59253   7.318   5.571   0.000
19119SOL    HW159254   7.286   5.543  14.786
19119SOL    HW259255   7.350   5.660  14.857
19120SOL     OW59256   2.751  11.874   7.256
19120SOL    HW159257   2.817  11.906   7.317
19120SOL    HW259258   2.683  11.837   7.312
19121SOL     OW59259   1.936   6.645   5.840
19121SOL    HW159260   1.926   6.591   5.762
19121SOL    HW259261   1.973   6.585   5.906
19122SOL     OW59262   6.857   0.404   7.263
19122SOL    HW159263   6.875   0.482   7.210
19122SOL    HW259264   6.840   0.438   7.351
19123SOL     OW59265   0.988   4.522   1.524
19123SOL    HW159266   0.990   4.473   1.606
19123SOL    HW259267   0.964   4.611   1.550
19124SOL     OW59268   9.456   3.635  10.120
19124SOL    HW159269   9.370   3.598  10.100
19124SOL    HW259270   9.441   3.729  10.125
19125SOL     OW59271  12.675   2.100   1.612
19125SOL    HW159272  12.767   2.125   1.620
19125SOL    HW259273  12.631   2.152   1.679
19126SOL     OW59274  11.002   1.582  14.603
19126SOL    HW159275  10.999   1.604  14.510
19126SOL    HW259276  10.911   1.568  14.627
19127SOL     OW59277   7.797  13.860  12.866
19127SOL    HW159278   7.710  13.900  12.863
19127SOL    HW259279   7.818  13.840  12.774
19128SOL     OW59280  10.106   1.874   0.266
19128SOL    HW159281  10.195   1.902   0.249
19128SOL    HW259282  10.104   1.781   0.241
19129SOL     OW59283   2.181   1.007   8.348
19129SOL    HW159284   2.159   0.925   8.302
19129SOL    HW259285   2.275   1.018   8.334
19130SOL     OW59286  14.844   7.591   3.720
19130SOL    HW159287   0.013   7.664   3.766
19130SOL    HW259288  14.865   7.606   3.628
19131SOL     OW59289   5.417   1.058   4.169
19131SOL    HW159290   5.383   1.030   4.254
19131SOL    HW259291   5.488   1.119   4.190
19132SOL     OW59292   6.714   5.334   3.762
19132SOL    HW159293   6.734   5.369   3.675
19132SOL    HW259294   6.687   5.411   3.813
19133SOL     OW59295  12.923   9.189  13.625
19133SOL    HW159296  12.850   9.247  13.645
19133SOL    HW259297  12.915   9.171  13.531
19134SOL     OW59298   9.397  11.311   6.353
19134SOL    HW159299   9.490  11.333   6.364
19134SOL    HW259300   9.395  11.247   6.282
19135SOL     OW59301   1.818   8.744   5.436
19135SOL    HW159302   1.866   8.663   5.457
19135SOL    HW259303   1.819   8.794   5.518
19136SOL     OW59304   0.664  10.220  13.562
19136SOL    HW159305   0.628  10.156  13.623
19136SOL    HW259306   0.632  10.192  13.476
19137SOL     OW59307   4.799   7.991  14.001
19137SOL    HW159308   4.734   7.933  14.040
19137SOL    HW259309   4.881   7.967  14.045
19138SOL     OW59310  13.456  13.999   4.994
19138SOL    HW159311  13.543  13.960   5.003
19138SOL    HW259312  13.416  13.988   5.080
19139SOL     OW59313   2.210  10.560   9.356
19139SOL    HW159314   2.154  10.624   9.312
19139SOL    HW259315   2.210  10.484   9.297
19140SOL     OW59316   4.473   1.003  13.158
19140SOL    HW159317   4.518   1.007  13.074
19140SOL    HW259318   4.380   1.007  13.136
19141SOL     OW59319   1.645  10.905   4.361
19141SOL    HW159320   1.553  10.879   4.374
19141SOL    HW259321   1.663  10.964   4.434
19142SOL     OW59322   9.078   1.629   3.151
19142SOL    HW159323   9.059   1.541   3.184
19142SOL    HW259324   9.096   1.681   3.230
19143SOL     OW59325   6.174  11.435   0.509
19143SOL    HW159326   6.179  11.386   0.592
19143SOL    HW259327   6.082  11.426   0.482
19144SOL     OW59328  13.025   6.894  12.328
19144SOL    HW159329  12.942   6.930  12.298
19144SOL    HW259330  13.059   6.846  12.253
19145SOL     OW59331  12.796   1.712  12.430
19145SOL    HW159332  12.878   1.719  12.479
19145SOL    HW259333  12.728   1.713  12.498
19146SOL     OW59334   5.758   6.546  12.983
19146SOL    HW159335   5.710   6.629  12.988
19146SOL    HW259336   5.783   6.529  13.074
19147SOL     OW59337   2.529   4.627  13.589
19147SOL    HW159338   2.454   4.614  13.647
19147SOL    HW259339   2.560   4.715  13.611
19148SOL     OW59340   7.658   4.995   7.565
19148SOL    HW159341   7.637   4.914   7.519
19148SOL    HW259342   7.632   4.977   7.656
19149SOL     OW59343   8.068   7.334   6.841
19149SOL    HW159344   8.020   7.416   6.851
19149SOL    HW259345   8.070   7.296   6.928
19150SOL     OW59346   8.276   6.630   7.732
19150SOL    HW159347   8.277   6.717   7.772
19150SOL    HW259348   8.206   6.583   7.777
19151SOL     OW59349   6.048  10.936   1.646
19151SOL    HW159350   6.118  10.873   1.630
19151SOL    HW259351   6.083  11.019   1.614
19152SOL     OW59352   0.869   0.888   9.241
19152SOL    HW159353   0.849   0.803   9.279
19152SOL    HW259354   0.845   0.880   9.149
19153SOL     OW59355  11.610  12.986   1.020
19153SOL    HW159356  11.683  13.039   1.053
19153SOL    HW259357  11.601  12.915   1.084
19154SOL     OW59358   0.023  13.376   4.839
19154SOL    HW159359  14.851  13.460   4.828
19154SOL    HW259360  14.870  13.348   4.928
19155SOL     OW59361  14.282  13.509  12.642
19155SOL    HW159362  14.196  13.524  12.681
19155SOL    HW259363  14.344  13.528  12.712
19156SOL     OW59364  14.152   5.025   9.325
19156SOL    HW159365  14.171   4.935   9.353
19156SOL    HW259366  14.128   5.071   9.405
19157SOL     OW59367   1.938   0.736  11.409
19157SOL    HW159368   1.956   0.777  11.493
19157SOL    HW259369   1.870   0.792  11.370
19158SOL     OW59370   4.770   5.139  12.197
19158SOL    HW159371   4.798   5.169  12.111
19158SOL    HW259372   4.851   5.116  12.243
19159SOL     OW59373  11.188   2.562  11.317
19159SOL    HW159374  11.208   2.474  11.285
19159SOL    HW259375  11.273   2.601  11.336
19160SOL     OW59376   0.035   4.431   0.619
19160SOL    HW159377  14.815   4.446   0.595
19160SOL    HW259378   0.035   4.346   0.662
19161SOL     OW59379   0.957   6.574  12.963
19161SOL    HW159380   0.868   6.581  13.000
19161SOL    HW259381   0.992   6.662  12.969
19162SOL     OW59382   5.417  14.307  10.247
19162SOL    HW159383   5.408  14.212  10.241
19162SOL    HW259384   5.440  14.335  10.158
19163SOL     OW59385   8.457   3.553   2.676
19163SOL    HW159386   8.371   3.594   2.678
19163SOL    HW259387   8.472   3.522   2.765
19164SOL     OW59388   8.856  13.766   1.457
19164SOL    HW159389   8.891  13.797   1.540
19164SOL    HW259390   8.841  13.672   1.471
19165SOL     OW59391   2.894   4.396  13.465
19165SOL    HW159392   2.905   4.401  13.370
19165SOL    HW259393   2.978   4.363  13.497
19166SOL     OW59394  12.721  12.776   9.823
19166SOL    HW159395  12.698  12.820   9.741
19166SOL    HW259396  12.726  12.683   9.800
19167SOL     OW59397   6.362   9.009   4.611
19167SOL    HW159398   6.301   8.965   4.669
19167SOL    HW259399   6.431   8.945   4.594
19168SOL     OW59400   7.385   5.506   8.837
19168SOL    HW159401   7.430   5.512   8.921
19168SOL    HW259402   7.415   5.582   8.788
19169SOL     OW59403   8.633  14.093   6.178
19169SOL    HW159404   8.715  14.126   6.214
19169SOL    HW259405   8.611  14.018   6.233
19170SOL     OW59406  13.983   0.025  13.772
19170SOL    HW159407  14.059  14.846  13.799
19170SOL    HW259408  14.020   0.100  13.725
19171SOL     OW59409   1.090   7.171  13.514
19171SOL    HW159410   1.104   7.091  13.463
19171SOL    HW259411   1.058   7.141  13.599
19172SOL     OW59412  14.802  12.861  12.130
19172SOL    HW159413  14.755  12.849  12.213
19172SOL    HW259414  14.821  12.954  12.126
19173SOL     OW59415   3.311   3.379   2.859
19173SOL    HW159416   3.403   3.406   2.852
19173SOL    HW259417   3.266   3.458   2.890
19174SOL     OW59418  11.694  14.371   9.892
19174SOL    HW159419  11.754  14.402   9.823
19174SOL    HW259420  11.607  14.388   9.857
19175SOL     OW59421  13.103  13.332   4.440
19175SOL    HW159422  13.047  13.361   4.512
19175SOL    HW259423  13.044  13.290   4.378
19176SOL     OW59424  10.204  13.460  11.501
19176SOL    HW159425  10.193  13.501  11.586
19176SOL    HW259426  10.224  13.369  11.520
19177SOL     OW59427   5.969   3.733  14.366
19177SOL    HW159428   5.895   3.793  14.371
19177SOL    HW259429   5.982   3.717  14.273
19178SOL     OW59430   2.108   0.690   3.936
19178SOL    HW159431   2.110   0.646   4.021
19178SOL    HW259432   2.048   0.764   3.950
19179SOL     OW59433   1.048   8.006  14.300
19179SOL    HW159434   1.074   8.004  14.208
19179SOL    HW259435   0.959   7.969  14.300
19180SOL     OW59436   9.792   1.408   4.377
19180SOL    HW159437   9.756   1.496   4.389
19180SOL    HW259438   9.731   1.350   4.423
19181SOL     OW59439   2.876   6.556   6.025
19181SOL    HW159440   2.951   6.534   5.970
19181SOL    HW259441   2.799   6.531   5.974
19182SOL     OW59442   0.134  11.901   1.895
19182SOL    HW159443   0.048  11.932   1.866
19182SOL    HW259444   0.195  11.941   1.833
19183SOL     OW59445   2.795   5.183   3.767
19183SOL    HW159446   2.732   5.240   3.810
19183SOL    HW259447   2.869   5.180   3.827
19184SOL     OW59448   9.298   4.267  12.491
19184SOL    HW159449   9.241   4.310  12.554
19184SOL    HW259450   9.283   4.314  12.409
19185SOL     OW59451  12.212  13.176  10.498
19185SOL    HW159452  12.150  13.212  10.561
19185SOL    HW259453  12.268  13.118  10.550
19186SOL     OW59454   8.697  11.626  10.872
19186SOL    HW159455   8.683  11.580  10.790
19186SOL    HW259456   8.632  11.696  10.872
19187SOL     OW59457   0.658   3.465   6.871
19187SOL    HW159458   0.706   3.510   6.801
19187SOL    HW259459   0.685   3.511   6.951
19188SOL     OW59460   6.252   4.544  12.306
19188SOL    HW159461   6.277   4.522  12.395
19188SOL    HW259462   6.156   4.548  12.309
19189SOL     OW59463   9.514   1.682   3.390
19189SOL    HW159464   9.591   1.628   3.402
19189SOL    HW259465   9.465   1.638   3.320
19190SOL     OW59466   2.078  14.112  10.662
19190SOL    HW159467   2.012  14.045  10.647
19190SOL    HW259468   2.027  14.192  10.679
19191SOL     OW59469   4.047   3.899   8.121
19191SOL    HW159470   4.068   3.937   8.035
19191SOL    HW259471   4.028   3.975   8.176
19192SOL     OW59472   6.752   7.203   5.383
19192SOL    HW159473   6.676   7.197   5.441
19192SOL    HW259474   6.801   7.278   5.415
19193SOL     OW59475   0.119   3.370   9.916
19193SOL    HW159476   0.171   3.400   9.991
19193SOL    HW259477   0.108   3.276   9.931
19194SOL     OW59478   1.768  14.136   9.436
19194SOL    HW159479   1.801  14.204   9.495
19194SOL    HW259480   1.692  14.100   9.481
19195SOL     OW59481   8.542   2.661   0.172
19195SOL    HW159482   8.549   2.566   0.169
19195SOL    HW259483   8.632   2.693   0.168
19196SOL     OW59484   4.830  14.290  10.160
19196SOL    HW159485   4.805  14.200  10.140
19196SOL    HW259486   4.912  14.304  10.114
19197SOL     OW59487   0.961   0.565   5.328
19197SOL    HW159488   0.875   0.569   5.288
19197SOL    HW259489   1.002   0.650   5.309
19198SOL     OW59490  10.062  12.391   6.875
19198SOL    HW159491  10.018  12.356   6.797
19198SOL    HW259492  10.154  12.371   6.861
19199SOL     OW59493   1.984   5.650   0.385
19199SOL    HW159494   2.059   5.663   0.444
19199SOL    HW259495   1.973   5.735   0.341
19200SOL     OW59496  10.701   5.457   6.215
19200SOL    HW159497  10.750   5.409   6.282
19200SOL    HW259498  10.714   5.406   6.135
19201SOL     OW59499   7.396  10.453   5.272
19201SOL    HW159500   7.318  10.399   5.287
19201SOL    HW259501   7.468  10.400   5.304
19202SOL     OW59502  12.663   8.648   1.009
19202SOL    HW159503  12.625   8.645   1.096
19202SOL    HW259504  12.729   8.717   1.013
19203SOL     OW59505   9.972   0.076   3.132
19203SOL    HW159506  10.034   0.132   3.085
19203SOL    HW259507   9.898   0.133   3.152
19204SOL     OW59508   1.808   4.061   5.017
19204SOL    HW159509   1.856   4.054   4.934
19204SOL    HW259510   1.800   3.971   5.047
19205SOL     OW59511   2.026  12.895   5.905
19205SOL    HW159512   2.116  12.922   5.920
19205SOL    HW259513   1.999  12.945   5.828
19206SOL     OW59514   2.400  12.452   7.593
19206SOL    HW159515   2.427  12.384   7.532
19206SOL    HW259516   2.368  12.523   7.538
19207SOL     OW59517   5.371  13.802   5.624
19207SOL    HW159518   5.400  13.768   5.709
19207SOL    HW259519   5.450  13.800   5.571
19208SOL     OW59520   0.046   1.931   6.779
19208SOL    HW159521   0.128   1.944   6.731
19208SOL    HW259522   0.064   1.966   6.867
19209SOL     OW59523   7.901   2.774   3.470
19209SOL    HW159524   7.838   2.734   3.530
19209SOL    HW259525   7.894   2.722   3.390
19210SOL     OW59526   1.862   0.308   2.611
19210SOL    HW159527   1.912   0.307   2.693
19210SOL    HW259528   1.901   0.237   2.559
19211SOL     OW59529   6.494  13.757   8.196
19211SOL    HW159530   6.504  13.787   8.106
19211SOL    HW259531   6.417  13.804   8.228
19212SOL     OW59532   6.833   2.206   8.517
19212SOL    HW159533   6.783   2.161   8.448
19212SOL    HW259534   6.772   2.269   8.554
19213SOL     OW59535   9.905  13.566  10.579
19213SOL    HW159536   9.843  13.634  10.553
19213SOL    HW259537   9.945  13.599  10.659
19214SOL     OW59538  13.657   0.769   8.711
19214SOL    HW159539  13.589   0.834   8.732
19214SOL    HW259540  13.670   0.778   8.617
19215SOL     OW59541   9.350   0.396  11.022
19215SOL    HW159542   9.320   0.468  11.078
19215SOL    HW259543   9.408   0.345  11.079
19216SOL     OW59544   4.822   6.791   5.130
19216SOL    HW159545   4.743   6.772   5.181
19216SOL    HW259546   4.887   6.728   5.163
19217SOL     OW59547   6.639   5.820   2.611
19217SOL    HW159548   6.583   5.748   2.583
19217SOL    HW259549   6.611   5.894   2.558
19218SOL     OW59550   7.817   8.146   6.922
19218SOL    HW159551   7.733   8.191   6.911
19218SOL    HW259552   7.842   8.164   7.013
19219SOL     OW59553   2.942  12.863   9.944
19219SOL    HW159554   2.977  12.926   9.880
19219SOL    HW259555   3.019  12.817   9.977
19220SOL     OW59556  13.475   8.341   4.345
19220SOL    HW159557  13.534   8.405   4.303
19220SOL    HW259558  13.533   8.287   4.398
19221SOL     OW59559   0.512   7.992   0.157
19221SOL    HW159560   0.561   7.918   0.194
19221SOL    HW259561   0.467   7.956   0.081
19222SOL     OW59562   5.995   3.497   5.551
19222SOL    HW159563   5.920   3.555   5.564
19222SOL    HW259564   6.027   3.479   5.639
19223SOL     OW59565   6.483   9.961   2.697
19223SOL    HW159566   6.523  10.010   2.625
19223SOL    HW259567   6.526   9.995   2.776
19224SOL     OW59568  13.546  13.240   1.382
19224SOL    HW159569  13.465  13.203   1.418
19224SOL    HW259570  13.594  13.164   1.348
19225SOL     OW59571  10.652   6.441   4.032
19225SOL    HW159572  10.744   6.426   4.010
19225SOL    HW259573  10.604   6.373   3.984
19226SOL     OW59574   2.404   1.757   7.093
19226SOL    HW159575   2.402   1.662   7.092
19226SOL    HW259576   2.432   1.782   7.005
19227SOL     OW59577  13.964  12.989   6.222
19227SOL    HW159578  13.924  12.931   6.156
19227SOL    HW259579  13.994  12.929   6.291
19228SOL     OW59580   7.767  14.814   3.294
19228SOL    HW159581   7.832  14.751   3.262
19228SOL    HW259582   7.687  14.793   3.246
19229SOL     OW59583  12.738   8.399  10.797
19229SOL    HW159584  12.833   8.410  10.794
19229SOL    HW259585  12.703   8.486  10.777
19230SOL     OW59586   0.293  13.905   0.561
19230SOL    HW159587   0.202  13.877   0.571
19230SOL    HW259588   0.313  13.952   0.642
19231SOL     OW59589   8.809   5.459  12.277
19231SOL    HW159590   8.857   5.533  12.315
19231SOL    HW259591   8.843   5.383  12.322
19232SOL     OW59592   9.891   2.170  13.684
19232SOL    HW159593   9.963   2.112  13.710
19232SOL    HW259594   9.826   2.111  13.646
19233SOL     OW59595   9.657  13.196   4.627
19233SOL    HW159596   9.697  13.155   4.704
19233SOL    HW259597   9.587  13.251   4.663
19234SOL     OW59598  12.664   1.117  12.551
19234SOL    HW159599  12.592   1.172  12.519
19234SOL    HW259600  12.740   1.144  12.500
19235SOL     OW59601   7.984   7.933   9.398
19235SOL    HW159602   7.958   8.024   9.414
19235SOL    HW259603   7.910   7.895   9.351
19236SOL     OW59604   3.005   4.285   2.253
19236SOL    HW159605   3.043   4.204   2.218
19236SOL    HW259606   2.953   4.256   2.328
19237SOL     OW59607   4.059   4.734  12.932
19237SOL    HW159608   3.974   4.776  12.945
19237SOL    HW259609   4.114   4.770  13.000
19238SOL     OW59610   2.839   6.424  10.894
19238SOL    HW159611   2.824   6.331  10.910
19238SOL    HW259612   2.756   6.456  10.856
19239SOL     OW59613   8.484   8.575   2.662
19239SOL    HW159614   8.530   8.659   2.654
19239SOL    HW259615   8.409   8.583   2.603
19240SOL     OW59616   9.722   7.536   2.538
19240SOL    HW159617   9.697   7.466   2.598
19240SOL    HW259618   9.758   7.491   2.462
19241SOL     OW59619   7.636  13.424   7.395
19241SOL    HW159620   7.722  13.401   7.428
19241SOL    HW259621   7.648  13.435   7.300
19242SOL     OW59622   1.906   6.199   9.072
19242SOL    HW159623   1.894   6.105   9.085
19242SOL    HW259624   1.907   6.236   9.160
19243SOL     OW59625   1.842   7.795   5.641
19243SOL    HW159626   1.808   7.708   5.624
19243SOL    HW259627   1.869   7.828   5.555
19244SOL     OW59628   7.760   5.842   5.493
19244SOL    HW159629   7.772   5.835   5.588
19244SOL    HW259630   7.687   5.904   5.483
19245SOL     OW59631  14.599   1.729   4.890
19245SOL    HW159632  14.563   1.817   4.877
19245SOL    HW259633  14.693   1.742   4.900
19246SOL     OW59634   2.400   9.902   5.913
19246SOL    HW159635   2.322   9.855   5.882
19246SOL    HW259636   2.425   9.857   5.993
19247SOL     OW59637   5.360   8.533   5.216
19247SOL    HW159638   5.288   8.480   5.250
19247SOL    HW259639   5.440   8.487   5.242
19248SOL     OW59640   4.081   5.261   1.705
19248SOL    HW159641   4.023   5.220   1.768
19248SOL    HW259642   4.168   5.226   1.726
19249SOL     OW59643   4.635  13.937  12.944
19249SOL    HW159644   4.665  13.999  13.011
19249SOL    HW259645   4.655  13.851  12.980
19250SOL     OW59646  13.816   6.184   2.854
19250SOL    HW159647  13.865   6.157   2.776
19250SOL    HW259648  13.840   6.120   2.921
19251SOL     OW59649   1.672   3.446  10.094
19251SOL    HW159650   1.709   3.387  10.029
19251SOL    HW259651   1.578   3.431  10.089
19252SOL     OW59652   1.295   8.949  14.520
19252SOL    HW159653   1.254   9.005  14.454
19252SOL    HW259654   1.223   8.923  14.577
19253SOL     OW59655  12.760  11.603   9.241
19253SOL    HW159656  12.754  11.626   9.148
19253SOL    HW259657  12.679  11.639   9.279
19254SOL     OW59658   7.768  10.198  14.729
19254SOL    HW159659   7.804  10.202  14.641
19254SOL    HW259660   7.818  10.129  14.773
19255SOL     OW59661   7.689   0.184   6.917
19255SOL    HW159662   7.683   0.236   6.998
19255SOL    HW259663   7.781   0.188   6.893
19256SOL     OW59664   1.007   2.690   0.981
19256SOL    HW159665   1.004   2.754   1.053
19256SOL    HW259666   1.092   2.648   0.990
19257SOL     OW59667   4.768   3.619  14.434
19257SOL    HW159668   4.710   3.545  14.416
19257SOL    HW259669   4.838   3.582  14.488
19258SOL     OW59670  13.897   3.296  13.411
19258SOL    HW159671  13.893   3.327  13.502
19258SOL    HW259672  13.818   3.331  13.370
19259SOL     OW59673   1.057   6.819   6.873
19259SOL    HW159674   1.070   6.781   6.786
19259SOL    HW259675   1.088   6.909   6.865
19260SOL     OW59676   3.982   5.689   9.201
19260SOL    HW159677   4.026   5.670   9.283
19260SOL    HW259678   3.960   5.782   9.206
19261SOL     OW59679   0.793  14.307   9.865
19261SOL    HW159680   0.829  14.233   9.816
19261SOL    HW259681   0.867  14.341   9.916
19262SOL     OW59682   3.128   8.764   2.717
19262SOL    HW159683   3.133   8.722   2.803
19262SOL    HW259684   3.095   8.852   2.736
19263SOL     OW59685   6.523  13.744   1.532
19263SOL    HW159686   6.447  13.760   1.476
19263SOL    HW259687   6.517  13.651   1.554
19264SOL     OW59688  11.161   1.912   7.200
19264SOL    HW159689  11.159   1.912   7.104
19264SOL    HW259690  11.227   1.976   7.223
19265SOL     OW59691   7.181  11.645   7.870
19265SOL    HW159692   7.154  11.731   7.903
19265SOL    HW259693   7.183  11.589   7.948
19266SOL     OW59694   0.755   3.918   3.278
19266SOL    HW159695   0.667   3.946   3.253
19266SOL    HW259696   0.774   3.966   3.358
19267SOL     OW59697   0.153  12.654   7.717
19267SOL    HW159698   0.208  12.576   7.719
19267SOL    HW259699   0.147  12.676   7.624
19268SOL     OW59700   4.831  14.435  10.653
19268SOL    HW159701   4.835  14.369  10.722
19268SOL    HW259702   4.818  14.386  10.572
19269SOL     OW59703   6.756  10.933  12.431
19269SOL    HW159704   6.690  10.961  12.369
19269SOL    HW259705   6.801  10.860  12.388
19270SOL     OW59706   3.128   0.520   9.735
19270SOL    HW159707   3.085   0.600   9.766
19270SOL    HW259708   3.117   0.523   9.640
19271SOL     OW59709  11.044   7.485   3.140
19271SOL    HW159710  10.969   7.478   3.081
19271SOL    HW259711  11.015   7.440   3.220
19272SOL     OW59712   2.383  11.641   7.623
19272SOL    HW159713   2.306  11.610   7.575
19272SOL    HW259714   2.368  11.611   7.713
19273SOL     OW59715   2.723   6.977   5.729
19273SOL    HW159716   2.739   7.059   5.777
19273SOL    HW259717   2.715   6.911   5.798
19274SOL     OW59718  10.167  10.851   8.702
19274SOL    HW159719  10.227  10.904   8.650
19274SOL    HW259720  10.167  10.765   8.659
19275SOL     OW59721  12.029   9.018  12.829
19275SOL    HW159722  11.965   9.089  12.831
19275SOL    HW259723  12.093   9.046  12.763
19276SOL     OW59724   4.052   9.430   7.388
19276SOL    HW159725   4.075   9.373   7.462
19276SOL    HW259726   4.136   9.453   7.348
19277SOL     OW59727   2.961   5.761   7.903
19277SOL    HW159728   2.959   5.712   7.985
19277SOL    HW259729   2.939   5.851   7.929
19278SOL     OW59730   9.827   8.363   6.962
19278SOL    HW159731   9.771   8.438   6.981
19278SOL    HW259732   9.847   8.371   6.869
19279SOL     OW59733   9.233   3.944   1.088
19279SOL    HW159734   9.250   3.850   1.078
19279SOL    HW259735   9.259   3.963   1.178
19280SOL     OW59736  13.002   4.197   4.574
19280SOL    HW159737  13.060   4.187   4.499
19280SOL    HW259738  13.032   4.277   4.617
19281SOL     OW59739   9.943   5.893   4.427
19281SOL    HW159740   9.956   5.987   4.422
19281SOL    HW259741   9.948   5.862   4.337
19282SOL     OW59742  11.882   7.280   7.926
19282SOL    HW159743  11.884   7.185   7.922
19282SOL    HW259744  11.789   7.302   7.936
19283SOL     OW59745   9.300   2.962   1.276
19283SOL    HW159746   9.226   3.015   1.304
19283SOL    HW259747   9.375   3.021   1.279
19284SOL     OW59748   9.188   1.714   6.229
19284SOL    HW159749   9.221   1.767   6.156
19284SOL    HW259750   9.214   1.762   6.308
19285SOL     OW59751   7.558   3.682   3.548
19285SOL    HW159752   7.620   3.659   3.478
19285SOL    HW259753   7.484   3.623   3.535
19286SOL     OW59754   3.421   2.619   5.201
19286SOL    HW159755   3.469   2.622   5.284
19286SOL    HW259756   3.371   2.700   5.198
19287SOL     OW59757   0.921   3.221  14.460
19287SOL    HW159758   0.893   3.289  14.399
19287SOL    HW259759   0.853   3.154  14.455
19288SOL     OW59760   4.905  12.166   4.562
19288SOL    HW159761   4.972  12.217   4.607
19288SOL    HW259762   4.840  12.232   4.534
19289SOL     OW59763   9.087  13.984  11.948
19289SOL    HW159764   9.125  14.044  11.883
19289SOL    HW259765   9.093  13.898  11.906
19290SOL     OW59766  13.161  12.714  13.904
19290SOL    HW159767  13.143  12.808  13.912
19290SOL    HW259768  13.184  12.686  13.992
19291SOL     OW59769  12.599   9.528   7.708
19291SOL    HW159770  12.678   9.506   7.757
19291SOL    HW259771  12.630   9.580   7.634
19292SOL     OW59772  14.560  13.262  13.505
19292SOL    HW159773  14.627  13.322  13.539
19292SOL    HW259774  14.583  13.251  13.413
19293SOL     OW59775  11.575   9.598  14.760
19293SOL    HW159776  11.489   9.575  14.724
19293SOL    HW259777  11.617   9.513  14.777
19294SOL     OW59778  12.321  14.693  14.217
19294SOL    HW159779  12.329  14.764  14.282
19294SOL    HW259780  12.366  14.727  14.140
19295SOL     OW59781  12.839   4.931   9.260
19295SOL    HW159782  12.926   4.892   9.268
19295SOL    HW259783  12.782   4.871   9.308
19296SOL     OW59784  14.234   9.007   6.962
19296SOL    HW159785  14.329   9.000   6.956
19296SOL    HW259786  14.218   9.087   7.012
19297SOL     OW59787  13.977   4.847   7.064
19297SOL    HW159788  13.887   4.853   7.030
19297SOL    HW259789  13.967   4.810   7.151
19298SOL     OW59790   6.692   6.267   9.866
19298SOL    HW159791   6.676   6.272   9.960
19298SOL    HW259792   6.689   6.358   9.837
19299SOL     OW59793   2.154   1.135  11.972
19299SOL    HW159794   2.186   1.046  11.954
19299SOL    HW259795   2.233   1.189  11.970
19300SOL     OW59796   7.190   6.615  13.344
19300SOL    HW159797   7.145   6.633  13.426
19300SOL    HW259798   7.279   6.592  13.369
19301SOL     OW59799   0.777   4.789   1.196
19301SOL    HW159800   0.711   4.855   1.216
19301SOL    HW259801   0.733   4.706   1.212
19302SOL     OW59802   9.663  14.708  14.082
19302SOL    HW159803   9.624  14.674  14.001
19302SOL    HW259804   9.601  14.774  14.112
19303SOL     OW59805  14.756  11.304  14.113
19303SOL    HW159806  14.774  11.372  14.178
19303SOL    HW259807  14.687  11.251  14.153
19304SOL     OW59808   5.359  11.692  11.275
19304SOL    HW159809   5.336  11.720  11.186
19304SOL    HW259810   5.278  11.703  11.325
19305SOL     OW59811   5.417   9.068  11.814
19305SOL    HW159812   5.499   9.113  11.795
19305SOL    HW259813   5.368   9.130  11.868
19306SOL     OW59814  11.409   0.166   5.095
19306SOL    HW159815  11.355   0.224   5.148
19306SOL    HW259816  11.359   0.085   5.089
19307SOL     OW59817   7.508   0.585   4.960
19307SOL    HW159818   7.529   0.675   4.984
19307SOL    HW259819   7.450   0.554   5.030
19308SOL     OW59820   1.921   1.147   3.991
19308SOL    HW159821   1.925   1.174   3.899
19308SOL    HW259822   2.004   1.177   4.028
19309SOL     OW59823  13.200   9.669  12.133
19309SOL    HW159824  13.278   9.630  12.174
19309SOL    HW259825  13.132   9.661  12.200
19310SOL     OW59826   7.088  12.632   1.032
19310SOL    HW159827   7.001  12.594   1.015
19310SOL    HW259828   7.134  12.565   1.083
19311SOL     OW59829   5.049  13.625  14.783
19311SOL    HW159830   4.986  13.632  14.855
19311SOL    HW259831   5.009  13.674  14.711
19312SOL     OW59832   9.484   4.405  13.718
19312SOL    HW159833   9.431   4.326  13.710
19312SOL    HW259834   9.524   4.417  13.632
19313SOL     OW59835  12.717   1.094   0.473
19313SOL    HW159836  12.658   1.033   0.517
19313SOL    HW259837  12.785   1.112   0.539
19314SOL     OW59838   6.536   8.342   9.964
19314SOL    HW159839   6.603   8.300   9.910
19314SOL    HW259840   6.508   8.418   9.913
19315SOL     OW59841   8.524   5.112  12.548
19315SOL    HW159842   8.491   5.030  12.584
19315SOL    HW259843   8.495   5.112  12.457
19316SOL     OW59844   2.380   4.761  12.832
19316SOL    HW159845   2.311   4.699  12.859
19316SOL    HW259846   2.462   4.714  12.849
19317SOL     OW59847   0.270  12.514   8.233
19317SOL    HW159848   0.215  12.541   8.159
19317SOL    HW259849   0.212  12.458   8.285
19318SOL     OW59850  12.408   7.568  14.646
19318SOL    HW159851  12.370   7.500  14.701
19318SOL    HW259852  12.492   7.589  14.688
19319SOL     OW59853  14.330  13.574   9.639
19319SOL    HW159854  14.392  13.503   9.654
19319SOL    HW259855  14.301  13.599   9.727
19320SOL     OW59856   0.958   9.466  11.938
19320SOL    HW159857   0.971   9.421  12.022
19320SOL    HW259858   0.951   9.396  11.874
19321SOL     OW59859   7.594   2.075   8.151
19321SOL    HW159860   7.661   2.122   8.200
19321SOL    HW259861   7.588   1.989   8.194
19322SOL     OW59862   8.935  12.135   0.983
19322SOL    HW159863   8.952  12.205   0.921
19322SOL    HW259864   8.841  12.122   0.979
19323SOL     OW59865   2.661  13.926   1.429
19323SOL    HW159866   2.702  13.998   1.380
19323SOL    HW259867   2.719  13.851   1.414
19324SOL     OW59868  12.772  12.174   9.591
19324SOL    HW159869  12.708  12.104   9.603
19324SOL    HW259870  12.776  12.188   9.496
19325SOL     OW59871  11.298   2.374   1.727
19325SOL    HW159872  11.207   2.348   1.711
19325SOL    HW259873  11.302   2.389   1.822
19326SOL     OW59874   1.808   5.842  11.506
19326SOL    HW159875   1.890   5.865  11.549
19326SOL    HW259876   1.794   5.750  11.529
19327SOL     OW59877   0.828   0.248  14.645
19327SOL    HW159878   0.780   0.258  14.727
19327SOL    HW259879   0.914   0.215  14.671
19328SOL     OW59880   8.692  14.847   3.974
19328SOL    HW159881   8.730   0.063   3.980
19328SOL    HW259882   8.768  14.788   3.977
19329SOL     OW59883   6.468   7.455   3.775
19329SOL    HW159884   6.395   7.508   3.743
19329SOL    HW259885   6.542   7.516   3.779
19330SOL     OW59886  13.164   6.911   7.369
19330SOL    HW159887  13.068   6.905   7.371
19330SOL    HW259888  13.186   6.960   7.449
19331SOL     OW59889   3.922  13.792   1.607
19331SOL    HW159890   3.832  13.782   1.574
19331SOL    HW259891   3.973  13.727   1.559
19332SOL     OW59892   0.432   6.816   8.050
19332SOL    HW159893   0.460   6.894   8.002
19332SOL    HW259894   0.373   6.771   7.990
19333SOL     OW59895   8.946  14.694   0.432
19333SOL    HW159896   9.001  14.622   0.399
19333SOL    HW259897   8.987  14.773   0.396
19334SOL     OW59898   1.747  14.148   0.085
19334SOL    HW159899   1.783  14.231   0.053
19334SOL    HW259900   1.820  14.086   0.079
19335SOL     OW59901   1.179   2.535  11.916
19335SOL    HW159902   1.235   2.482  11.859
19335SOL    HW259903   1.090   2.506  11.896
19336SOL     OW59904   6.848   2.306   3.768
19336SOL    HW159905   6.824   2.398   3.779
19336SOL    HW259906   6.821   2.285   3.678
19337SOL     OW59907  13.751   4.770  14.698
19337SOL    HW159908  13.739   4.679  14.670
19337SOL    HW259909  13.815   4.805  14.636
19338SOL     OW59910   0.244  12.102   2.320
19338SOL    HW159911   0.170  12.139   2.271
19338SOL    HW259912   0.227  12.008   2.320
19339SOL     OW59913   8.857   3.648   2.961
19339SOL    HW159914   8.772   3.643   3.005
19339SOL    HW259915   8.847   3.595   2.883
19340SOL     OW59916   0.114  12.479   9.361
19340SOL    HW159917   0.193  12.464   9.412
19340SOL    HW259918   0.060  12.536   9.416
19341SOL     OW59919   4.724   2.042   0.610
19341SOL    HW159920   4.655   2.102   0.640
19341SOL    HW259921   4.805   2.080   0.644
19342SOL     OW59922   7.592  13.565   8.404
19342SOL    HW159923   7.539  13.606   8.336
19342SOL    HW259924   7.591  13.628   8.476
19343SOL     OW59925  10.973   6.020  12.605
19343SOL    HW159926  10.934   5.943  12.563
19343SOL    HW259927  10.940   6.094  12.553
19344SOL     OW59928  11.055   5.301   6.277
19344SOL    HW159929  11.003   5.310   6.197
19344SOL    HW259930  11.122   5.370   6.271
19345SOL     OW59931   9.757  14.805   6.248
19345SOL    HW159932   9.824  14.857   6.293
19345SOL    HW259933   9.772  14.823   6.155
19346SOL     OW59934  11.460  12.595   1.922
19346SOL    HW159935  11.407  12.620   1.847
19346SOL    HW259936  11.495  12.509   1.899
19347SOL     OW59937   9.715  13.540   5.007
19347SOL    HW159938   9.770  13.461   5.012
19347SOL    HW259939   9.774  13.612   5.028
19348SOL     OW59940   2.853   8.122   8.202
19348SOL    HW159941   2.829   8.039   8.160
19348SOL    HW259942   2.948   8.122   8.202
19349SOL     OW59943  10.477   8.324   8.414
19349SOL    HW159944  10.517   8.252   8.366
19349SOL    HW259945  10.386   8.296   8.428
19350SOL     OW59946   4.406  12.318   6.127
19350SOL    HW159947   4.378  12.227   6.114
19350SOL    HW259948   4.344  12.369   6.075
19351SOL     OW59949   4.876  11.524   2.961
19351SOL    HW159950   4.821  11.602   2.965
19351SOL    HW259951   4.888  11.508   2.868
19352SOL     OW59952  14.125  11.601  12.128
19352SOL    HW159953  14.187  11.532  12.153
19352SOL    HW259954  14.086  11.570  12.046
19353SOL     OW59955  10.935   9.599   1.513
19353SOL    HW159956  10.894   9.636   1.591
19353SOL    HW259957  11.009   9.549   1.546
19354SOL     OW59958  13.220   0.458  10.957
19354SOL    HW159959  13.130   0.486  10.975
19354SOL    HW259960  13.227   0.372  10.998
19355SOL     OW59961  14.299  10.350  11.456
19355SOL    HW159962  14.388  10.315  11.462
19355SOL    HW259963  14.243  10.278  11.486
19356SOL     OW59964   0.103   7.201   7.052
19356SOL    HW159965   0.054   7.253   7.115
19356SOL    HW259966   0.068   7.228   6.967
19357SOL     OW59967  11.752   1.530   8.819
19357SOL    HW159968  11.771   1.445   8.859
19357SOL    HW259969  11.824   1.586   8.846
19358SOL     OW59970   8.962  12.637   6.565
19358SOL    HW159971   8.901  12.569   6.538
19358SOL    HW259972   8.958  12.702   6.494
19359SOL     OW59973   2.669   3.204   4.504
19359SOL    HW159974   2.576   3.183   4.507
19359SOL    HW259975   2.677   3.271   4.436
19360SOL     OW59976  14.416   2.729   8.897
19360SOL    HW159977  14.498   2.682   8.897
19360SOL    HW259978  14.369   2.697   8.819
19361SOL     OW59979   8.802   7.855  12.154
19361SOL    HW159980   8.790   7.949  12.163
19361SOL    HW259981   8.785   7.837  12.061
19362SOL     OW59982   5.511  12.940   8.332
19362SOL    HW159983   5.561  12.877   8.384
19362SOL    HW259984   5.573  12.970   8.265
19363SOL     OW59985   7.424  10.725   1.823
19363SOL    HW159986   7.428  10.811   1.865
19363SOL    HW259987   7.375  10.670   1.885
19364SOL     OW59988  11.175   4.161   1.419
19364SOL    HW159989  11.218   4.174   1.504
19364SOL    HW259990  11.095   4.213   1.425
19365SOL     OW59991   3.782   9.193   7.216
19365SOL    HW159992   3.788   9.267   7.277
19365SOL    HW259993   3.824   9.225   7.136
19366SOL     OW59994   8.387  13.159  10.589
19366SOL    HW159995   8.407  13.241  10.543
19366SOL    HW259996   8.297  13.139  10.564
19367SOL     OW59997   8.760   2.466  12.034
19367SOL    HW159998   8.795   2.405  12.099
19367SOL    HW259999   8.824   2.538  12.031
19368SOL     OW60000   4.559  11.426   2.617
19368SOL    HW160001   4.541  11.520   2.607
19368SOL    HW260002   4.540  11.407   2.709
19369SOL     OW60003  10.075   4.620  11.239
19369SOL    HW160004  10.064   4.527  11.218
19369SOL    HW260005  10.063   4.666  11.156
19370SOL     OW60006   5.962  12.366  13.261
19370SOL    HW160007   5.941  12.339  13.171
19370SOL    HW260008   5.894  12.326  13.315
19371SOL     OW60009  12.960   6.229   6.708
19371SOL    HW160010  12.996   6.318   6.715
19371SOL    HW260011  12.868   6.239   6.735
19372SOL     OW60012  12.115   6.162   5.046
19372SOL    HW160013  12.076   6.082   5.012
19372SOL    HW260014  12.203   6.137   5.073
19373SOL     OW60015   3.791   0.884   0.898
19373SOL    HW160016   3.700   0.856   0.888
19373SOL    HW260017   3.842   0.810   0.867
19374SOL     OW60018   7.255  11.215   2.721
19374SOL    HW160019   7.245  11.267   2.640
19374SOL    HW260020   7.336  11.166   2.708
19375SOL     OW60021   2.119   9.035   3.585
19375SOL    HW160022   2.028   9.055   3.608
19375SOL    HW260023   2.120   8.941   3.569
19376SOL     OW60024   9.103   6.894  13.609
19376SOL    HW160025   9.101   6.981  13.648
19376SOL    HW260026   9.053   6.839  13.668
19377SOL     OW60027   5.915   1.274   5.121
19377SOL    HW160028   5.936   1.199   5.176
19377SOL    HW260029   5.954   1.349   5.167
19378SOL     OW60030   6.278   2.339   5.512
19378SOL    HW160031   6.299   2.263   5.458
19378SOL    HW260032   6.312   2.413   5.463
19379SOL     OW60033  13.572  13.087   4.040
19379SOL    HW160034  13.493  13.138   4.026
19379SOL    HW260035  13.639  13.151   4.065
19380SOL     OW60036  10.325  11.772  11.348
19380SOL    HW160037  10.388  11.747  11.281
19380SOL    HW260038  10.292  11.857  11.320
19381SOL     OW60039  13.190   4.392   5.171
19381SOL    HW160040  13.197   4.482   5.202
19381SOL    HW260041  13.117   4.393   5.110
19382SOL     OW60042   9.461   3.560   0.683
19382SOL    HW160043   9.424   3.647   0.673
19382SOL    HW260044   9.528   3.554   0.614
19383SOL     OW60045  13.593   6.291  10.091
19383SOL    HW160046  13.541   6.220  10.053
19383SOL    HW260047  13.537   6.329  10.158
19384SOL     OW60048  10.805   8.725   4.074
19384SOL    HW160049  10.749   8.787   4.122
19384SOL    HW260050  10.818   8.766   3.988
19385SOL     OW60051  11.413   2.787  14.268
19385SOL    HW160052  11.394   2.852  14.201
19385SOL    HW260053  11.328   2.759  14.301
19386SOL     OW60054   9.957   3.880   2.808
19386SOL    HW160055  10.018   3.870   2.881
19386SOL    HW260056  10.011   3.909   2.735
19387SOL     OW60057   9.585   9.666  13.612
19387SOL    HW160058   9.678   9.682  13.598
19387SOL    HW260059   9.580   9.579  13.652
19388SOL     OW60060   8.751   7.136  12.347
19388SOL    HW160061   8.664   7.169  12.370
19388SOL    HW260062   8.743   7.041  12.355
19389SOL     OW60063  13.418   1.707  14.781
19389SOL    HW160064  13.439   1.676  14.693
19389SOL    HW260065  13.340   1.762  14.769
19390SOL     OW60066  14.140   2.072   3.918
19390SOL    HW160067  14.222   2.116   3.893
19390SOL    HW260068  14.073   2.117   3.867
19391SOL     OW60069   3.755   5.871  12.011
19391SOL    HW160070   3.850   5.872  12.022
19391SOL    HW260071   3.723   5.825  12.089
19392SOL     OW60072  10.495   1.368   3.360
19392SOL    HW160073  10.552   1.327   3.294
19392SOL    HW260074  10.432   1.300   3.382
19393SOL     OW60075   5.022   5.294   7.013
19393SOL    HW160076   4.998   5.337   6.932
19393SOL    HW260077   4.958   5.224   7.024
19394SOL     OW60078   5.221  14.365   9.843
19394SOL    HW160079   5.275  14.330   9.772
19394SOL    HW260080   5.262  14.448   9.866
19395SOL     OW60081   1.512   1.065  12.133
19395SOL    HW160082   1.422   1.050  12.161
19395SOL    HW260083   1.564   1.054  12.212
19396SOL     OW60084   1.883   5.347  10.273
19396SOL    HW160085   1.939   5.389  10.338
19396SOL    HW260086   1.944   5.303  10.213
19397SOL     OW60087  12.751   2.017   3.079
19397SOL    HW160088  12.833   2.035   3.124
19397SOL    HW260089  12.689   1.993   3.148
19398SOL     OW60090   6.842  11.059   0.107
19398SOL    HW160091   6.794  11.133   0.071
19398SOL    HW260092   6.867  11.087   0.195
19399SOL     OW60093  13.480  13.092   2.072
19399SOL    HW160094  13.542  13.125   2.007
19399SOL    HW260095  13.534  13.065   2.146
19400SOL     OW60096   3.004   7.691   8.223
19400SOL    HW160097   3.095   7.715   8.239
19400SOL    HW260098   3.001   7.670   8.129
19401SOL     OW60099   6.496  12.197   6.003
19401SOL    HW160100   6.457  12.116   5.969
19401SOL    HW260101   6.470  12.200   6.095
19402SOL     OW60102  13.740  14.129  10.960
19402SOL    HW160103  13.721  14.072  10.886
19402SOL    HW260104  13.738  14.217  10.924
19403SOL     OW60105   8.589   8.410   4.317
19403SOL    HW160106   8.602   8.403   4.412
19403SOL    HW260107   8.496   8.391   4.304
19404SOL     OW60108  11.820   5.186   6.097
19404SOL    HW160109  11.890   5.247   6.118
19404SOL    HW260110  11.761   5.190   6.172
19405SOL     OW60111   1.664  11.544   8.972
19405SOL    HW160112   1.694  11.631   8.948
19405SOL    HW260113   1.580  11.559   9.015
19406SOL     OW60114   9.207   2.162  13.090
19406SOL    HW160115   9.145   2.104  13.047
19406SOL    HW260116   9.177   2.250  13.068
19407SOL     OW60117  12.382   8.438   1.222
19407SOL    HW160118  12.318   8.482   1.278
19407SOL    HW260119  12.388   8.349   1.257
19408SOL     OW60120   5.091   7.861   6.372
19408SOL    HW160121   5.004   7.857   6.411
19408SOL    HW260122   5.150   7.875   6.446
19409SOL     OW60123  12.734  12.345   5.205
19409SOL    HW160124  12.752  12.420   5.262
19409SOL    HW260125  12.666  12.295   5.250
19410SOL     OW60126   7.528  14.847  12.218
19410SOL    HW160127   7.594   0.038  12.247
19410SOL    HW260128   7.462  14.847  12.287
19411SOL     OW60129   0.589   6.027   5.266
19411SOL    HW160130   0.575   5.932   5.275
19411SOL    HW260131   0.501   6.063   5.259
19412SOL     OW60132   2.159   7.991   7.610
19412SOL    HW160133   2.082   8.042   7.635
19412SOL    HW260134   2.187   7.949   7.692
19413SOL     OW60135  13.262   7.998   1.395
19413SOL    HW160136  13.197   8.037   1.454
19413SOL    HW260137  13.216   7.926   1.352
19414SOL     OW60138   0.152  11.921  12.494
19414SOL    HW160139   0.156  11.850  12.430
19414SOL    HW260140   0.123  11.879  12.575
19415SOL     OW60141  13.646   5.795   4.503
19415SOL    HW160142  13.708   5.854   4.545
19415SOL    HW260143  13.564   5.843   4.501
19416SOL     OW60144   2.629   9.134   7.311
19416SOL    HW160145   2.677   9.114   7.231
19416SOL    HW260146   2.682   9.200   7.356
19417SOL     OW60147   3.970   0.916   8.210
19417SOL    HW160148   3.998   0.956   8.127
19417SOL    HW260149   4.044   0.928   8.269
19418SOL     OW60150   9.337  14.094  10.426
19418SOL    HW160151   9.258  14.040  10.421
19418SOL    HW260152   9.387  14.071  10.348
19419SOL     OW60153  14.475   4.338  13.586
19419SOL    HW160154  14.478   4.292  13.502
19419SOL    HW260155  14.405   4.293  13.634
19420SOL     OW60156  12.337   0.260  13.243
19420SOL    HW160157  12.383   0.260  13.327
19420SOL    HW260158  12.392   0.206  13.186
19421SOL     OW60159   3.712   9.578   7.967
19421SOL    HW160160   3.769   9.631   8.024
19421SOL    HW260161   3.646   9.640   7.936
19422SOL     OW60162   7.591  13.434   4.542
19422SOL    HW160163   7.674  13.460   4.502
19422SOL    HW260164   7.616  13.392   4.625
19423SOL     OW60165   4.794   6.595   8.868
19423SOL    HW160166   4.883   6.591   8.835
19423SOL    HW260167   4.794   6.541   8.947
19424SOL     OW60168  13.630   1.376  13.524
19424SOL    HW160169  13.596   1.394  13.611
19424SOL    HW260170  13.649   1.462  13.487
19425SOL     OW60171  12.075  12.631   2.686
19425SOL    HW160172  12.114  12.603   2.769
19425SOL    HW260173  11.986  12.657   2.710
19426SOL     OW60174   5.313   2.519   6.187
19426SOL    HW160175   5.385   2.547   6.244
19426SOL    HW260176   5.347   2.532   6.098
19427SOL     OW60177  11.142   2.891   8.080
19427SOL    HW160178  11.059   2.859   8.045
19427SOL    HW260179  11.120   2.922   8.168
19428SOL     OW60180   1.725   1.320  14.623
19428SOL    HW160181   1.768   1.243  14.660
19428SOL    HW260182   1.722   1.303  14.529
19429SOL     OW60183   1.718  10.840   0.349
19429SOL    HW160184   1.796  10.893   0.335
19429SOL    HW260185   1.730  10.764   0.291
19430SOL     OW60186   0.324   3.258   4.463
19430SOL    HW160187   0.303   3.296   4.549
19430SOL    HW260188   0.402   3.305   4.434
19431SOL     OW60189   6.208  13.366   9.988
19431SOL    HW160190   6.279  13.384  10.050
19431SOL    HW260191   6.247  13.307   9.924
19432SOL     OW60192   3.035   2.697   2.978
19432SOL    HW160193   3.107   2.740   2.931
19432SOL    HW260194   3.068   2.686   3.067
19433SOL     OW60195  14.511   4.496   4.991
19433SOL    HW160196  14.443   4.429   4.981
19433SOL    HW260197  14.519   4.534   4.903
19434SOL     OW60198   5.135  14.823   1.441
19434SOL    HW160199   5.228  14.805   1.424
19434SOL    HW260200   5.135   0.032   1.491
19435SOL     OW60201   1.882  13.951   6.685
19435SOL    HW160202   1.923  13.927   6.768
19435SOL    HW260203   1.948  13.934   6.619
19436SOL     OW60204  14.701  10.759   0.836
19436SOL    HW160205  14.719  10.677   0.883
19436SOL    HW260206  14.621  10.740   0.786
19437SOL     OW60207   8.611   6.933   2.128
19437SOL    HW160208   8.677   6.895   2.186
19437SOL    HW260209   8.661   6.967   2.054
19438SOL     OW60210   9.764   7.874  14.266
19438SOL    HW160211   9.736   7.937  14.200
19438SOL    HW260212   9.706   7.890  14.341
19439SOL     OW60213   4.923   7.940  14.269
19439SOL    HW160214   4.886   7.875  14.329
19439SOL    HW260215   5.017   7.941  14.290
19440SOL     OW60216   6.606   1.485   8.996
19440SOL    HW160217   6.675   1.548   9.017
19440SOL    HW260218   6.583   1.446   9.080
19441SOL     OW60219   6.341   2.153  14.293
19441SOL    HW160220   6.341   2.058  14.279
19441SOL    HW260221   6.434   2.175  14.300
19442SOL     OW60222   0.798   8.288   2.159
19442SOL    HW160223   0.804   8.375   2.120
19442SOL    HW260224   0.861   8.235   2.109
19443SOL     OW60225   0.723   5.435   7.137
19443SOL    HW160226   0.644   5.473   7.174
19443SOL    HW260227   0.719   5.342   7.160
19444SOL     OW60228   2.891   6.339  14.376
19444SOL    HW160229   2.854   6.404  14.316
19444SOL    HW260230   2.819   6.319  14.436
19445SOL     OW60231   1.672   8.754  14.732
19445SOL    HW160232   1.612   8.680  14.723
19445SOL    HW260233   1.652   8.791  14.818
19446SOL     OW60234  11.423   0.043   4.661
19446SOL    HW160235  11.490  14.846   4.662
19446SOL    HW260236  11.429   0.085   4.747
19447SOL     OW60237  13.234   8.282   9.269
19447SOL    HW160238  13.290   8.315   9.340
19447SOL    HW260239  13.226   8.189   9.287
19448SOL     OW60240  14.208   8.602   2.895
19448SOL    HW160241  14.118   8.619   2.867
19448SOL    HW260242  14.203   8.519   2.943
19449SOL     OW60243  10.908   0.026   2.602
19449SOL    HW160244  10.889   0.026   2.696
19449SOL    HW260245  10.839  14.844   2.563
19450SOL     OW60246   4.072  14.642  12.182
19450SOL    HW160247   4.088  14.620  12.273
19450SOL    HW260248   3.976  14.643  12.174
19451SOL     OW60249   4.300  14.685   7.734
19451SOL    HW160250   4.223  14.708   7.682
19451SOL    HW260251   4.328  14.600   7.699
19452SOL     OW60252   7.001   3.709   0.147
19452SOL    HW160253   6.924   3.652   0.151
19452SOL    HW260254   7.052   3.675   0.074
19453SOL     OW60255  14.130   8.261   7.171
19453SOL    HW160256  14.123   8.167   7.191
19453SOL    HW260257  14.068   8.275   7.099
19454SOL     OW60258  11.673   2.822  11.312
19454SOL    HW160259  11.752   2.834  11.365
19454SOL    HW260260  11.631   2.908  11.314
19455SOL     OW60261   9.320   3.067   2.915
19455SOL    HW160262   9.316   3.045   2.822
19455SOL    HW260263   9.396   3.125   2.923
19456SOL     OW60264   1.462  11.710   3.269
19456SOL    HW160265   1.416  11.733   3.188
19456SOL    HW260266   1.482  11.795   3.310
19457SOL     OW60267   7.391   5.154  14.683
19457SOL    HW160268   7.332   5.175  14.755
19457SOL    HW260269   7.414   5.239  14.645
19458SOL     OW60270   6.001  13.713   8.814
19458SOL    HW160271   5.952  13.632   8.801
19458SOL    HW260272   6.050  13.698   8.895
19459SOL     OW60273   5.515   2.268   5.306
19459SOL    HW160274   5.471   2.188   5.276
19459SOL    HW260275   5.495   2.333   5.239
19460SOL     OW60276   6.147   8.111   1.492
19460SOL    HW160277   6.114   8.022   1.505
19460SOL    HW260278   6.236   8.099   1.457
19461SOL     OW60279   3.374   8.614  10.732
19461SOL    HW160280   3.289   8.633  10.694
19461SOL    HW260281   3.382   8.519  10.729
19462SOL     OW60282   3.878   8.821  11.413
19462SOL    HW160283   3.800   8.804  11.360
19462SOL    HW260284   3.894   8.738  11.459
19463SOL     OW60285   1.953   4.246   1.220
19463SOL    HW160286   1.883   4.181   1.219
19463SOL    HW260287   1.907   4.330   1.207
19464SOL     OW60288  14.474   0.120  13.011
19464SOL    HW160289  14.396   0.126  12.956
19464SOL    HW260290  14.478   0.204  13.056
19465SOL     OW60291   7.715   6.927   5.935
19465SOL    HW160292   7.713   7.017   5.904
19465SOL    HW260293   7.739   6.876   5.857
19466SOL     OW60294  14.554  14.442  12.623
19466SOL    HW160295  14.588  14.373  12.680
19466SOL    HW260296  14.478  14.477  12.669
19467SOL     OW60297   1.606   4.071  11.212
19467SOL    HW160298   1.646   4.137  11.269
19467SOL    HW260299   1.604   3.991  11.265
19468SOL     OW60300  11.850  13.323   5.033
19468SOL    HW160301  11.933  13.345   5.076
19468SOL    HW260302  11.867  13.334   4.940
19469SOL     OW60303   6.222   0.539  14.213
19469SOL    HW160304   6.288   0.511  14.277
19469SOL    HW260305   6.139   0.535  14.261
19470SOL     OW60306  12.402   5.535  10.495
19470SOL    HW160307  12.330   5.586  10.533
19470SOL    HW260308  12.414   5.461  10.555
19471SOL     OW60309   9.390   7.943   6.869
19471SOL    HW160310   9.336   7.984   6.802
19471SOL    HW260311   9.467   8.000   6.877
19472SOL     OW60312  11.711  12.201  10.767
19472SOL    HW160313  11.650  12.156  10.825
19472SOL    HW260314  11.660  12.274  10.731
19473SOL     OW60315   4.930   0.063   2.316
19473SOL    HW160316   4.844   0.045   2.280
19473SOL    HW260317   4.918   0.141   2.371
19474SOL     OW60318   5.769  13.794  12.506
19474SOL    HW160319   5.788  13.718  12.561
19474SOL    HW260320   5.759  13.866  12.569
19475SOL     OW60321   8.250   3.656   0.036
19475SOL    HW160322   8.199   3.737   0.044
19475SOL    HW260323   8.341   3.686   0.033
19476SOL     OW60324   6.513   2.796   4.667
19476SOL    HW160325   6.445   2.781   4.732
19476SOL    HW260326   6.491   2.881   4.628
19477SOL     OW60327   5.030  13.197  14.046
19477SOL    HW160328   5.056  13.204  13.954
19477SOL    HW260329   4.954  13.138  14.045
19478SOL     OW60330   1.652   2.155  11.879
19478SOL    HW160331   1.720   2.196  11.932
19478SOL    HW260332   1.574   2.210  11.892
19479SOL     OW60333   8.237   9.267  14.670
19479SOL    HW160334   8.257   9.265  14.764
19479SOL    HW260335   8.287   9.342  14.637
19480SOL     OW60336   5.282   8.179   8.525
19480SOL    HW160337   5.212   8.114   8.511
19480SOL    HW260338   5.359   8.141   8.483
19481SOL     OW60339   8.940   7.506   3.817
19481SOL    HW160340   8.925   7.539   3.906
19481SOL    HW260341   9.030   7.530   3.797
19482SOL     OW60342   4.534   1.596   3.395
19482SOL    HW160343   4.573   1.622   3.311
19482SOL    HW260344   4.595   1.530   3.430
19483SOL     OW60345   3.494   7.028   2.539
19483SOL    HW160346   3.438   7.025   2.461
19483SOL    HW260347   3.433   7.042   2.611
19484SOL     OW60348  10.384   1.309   0.126
19484SOL    HW160349  10.333   1.229   0.117
19484SOL    HW260350  10.358   1.362   0.051
19485SOL     OW60351   8.424   6.474   7.297
19485SOL    HW160352   8.495   6.537   7.308
19485SOL    HW260353   8.346   6.518   7.332
19486SOL     OW60354  13.103   2.707   7.708
19486SOL    HW160355  13.080   2.790   7.667
19486SOL    HW260356  13.029   2.649   7.687
19487SOL     OW60357  11.904   4.614  11.993
19487SOL    HW160358  11.858   4.636  12.074
19487SOL    HW260359  11.883   4.686  11.934
19488SOL     OW60360   9.951  14.824  13.877
19488SOL    HW160361  10.014   0.007  13.925
19488SOL    HW260362   9.902   0.014  13.822
19489SOL     OW60363   9.815   2.600  10.621
19489SOL    HW160364   9.733   2.561  10.651
19489SOL    HW260365   9.789   2.658  10.549
19490SOL     OW60366  14.686  13.396   4.031
19490SOL    HW160367  14.730  13.359   4.107
19490SOL    HW260368  14.702  13.491   4.039
19491SOL     OW60369   3.736  11.584   6.508
19491SOL    HW160370   3.789  11.514   6.470
19491SOL    HW260371   3.647  11.566   6.478
19492SOL     OW60372   7.834  11.725  14.474
19492SOL    HW160373   7.863  11.668  14.402
19492SOL    HW260374   7.798  11.664  14.539
19493SOL     OW60375  10.388   8.458   0.710
19493SOL    HW160376  10.413   8.404   0.635
19493SOL    HW260377  10.404   8.548   0.680
19494SOL     OW60378  11.457   0.842   9.011
19494SOL    HW160379  11.420   0.911   9.066
19494SOL    HW260380  11.387   0.777   9.004
19495SOL     OW60381   1.452  13.111   2.921
19495SOL    HW160382   1.422  13.087   2.834
19495SOL    HW260383   1.548  13.112   2.914
19496SOL     OW60384   2.655  13.042  12.102
19496SOL    HW160385   2.666  13.047  12.197
19496SOL    HW260386   2.700  13.120  12.069
19497SOL     OW60387   8.334  12.718   5.115
19497SOL    HW160388   8.334  12.797   5.061
19497SOL    HW260389   8.259  12.668   5.085
19498SOL     OW60390   2.021   1.623  14.678
19498SOL    HW160391   1.999   1.537  14.715
19498SOL    HW260392   2.116   1.620  14.668
19499SOL     OW60393  10.246   2.257   2.329
19499SOL    HW160394  10.191   2.335   2.321
19499SOL    HW260395  10.327   2.279   2.284
19500SOL     OW60396  14.716   8.918   8.753
19500SOL    HW160397  14.626   8.908   8.721
19500SOL    HW260398  14.727   9.013   8.762
19501SOL     OW60399   7.758   1.667   7.114
19501SOL    HW160400   7.696   1.626   7.053
19501SOL    HW260401   7.843   1.658   7.070
19502SOL     OW60402   2.171  12.410  12.278
19502SOL    HW160403   2.094  12.464  12.257
19502SOL    HW260404   2.237  12.473  12.307
19503SOL     OW60405   5.854   6.654   8.758
19503SOL    HW160406   5.907   6.675   8.681
19503SOL    HW260407   5.764   6.678   8.733
19504SOL     OW60408  10.734   1.400   4.218
19504SOL    HW160409  10.671   1.350   4.167
19504SOL    HW260410  10.772   1.335   4.279
19505SOL     OW60411   9.854   9.305   7.784
19505SOL    HW160412   9.880   9.392   7.754
19505SOL    HW260413   9.814   9.320   7.870
19506SOL     OW60414   4.912   0.584   4.155
19506SOL    HW160415   5.000   0.573   4.118
19506SOL    HW260416   4.924   0.571   4.249
19507SOL     OW60417   0.707   3.583   8.291
19507SOL    HW160418   0.734   3.620   8.206
19507SOL    HW260419   0.644   3.515   8.268
19508SOL     OW60420  10.398   9.549  10.270
19508SOL    HW160421  10.395   9.599  10.188
19508SOL    HW260422  10.474   9.583  10.316
19509SOL     OW60423   3.795   0.953   5.412
19509SOL    HW160424   3.844   0.940   5.330
19509SOL    HW260425   3.780   1.048   5.416
19510SOL     OW60426  11.677  12.044   2.484
19510SOL    HW160427  11.708  12.110   2.546
19510SOL    HW260428  11.629  11.981   2.538
19511SOL     OW60429   5.975  14.455  12.405
19511SOL    HW160430   6.008  14.535  12.366
19511SOL    HW260431   6.050  14.395  12.404
19512SOL     OW60432   6.501   6.157   8.692
19512SOL    HW160433   6.576   6.128   8.744
19512SOL    HW260434   6.521   6.248   8.669
19513SOL     OW60435   6.314   6.932   2.010
19513SOL    HW160436   6.389   6.983   2.040
19513SOL    HW260437   6.242   6.959   2.066
19514SOL     OW60438   9.853   9.009   6.443
19514SOL    HW160439   9.830   8.921   6.474
19514SOL    HW260440   9.810   9.068   6.504
19515SOL     OW60441   5.039   8.717   2.156
19515SOL    HW160442   5.035   8.752   2.245
19515SOL    HW260443   5.039   8.622   2.168
19516SOL     OW60444   3.395   7.123   2.194
19516SOL    HW160445   3.474   7.071   2.183
19516SOL    HW260446   3.357   7.130   2.107
19517SOL     OW60447   2.517   2.241   3.046
19517SOL    HW160448   2.444   2.179   3.054
19517SOL    HW260449   2.595   2.186   3.041
19518SOL     OW60450   7.578   6.882  13.890
19518SOL    HW160451   7.523   6.816  13.931
19518SOL    HW260452   7.523   6.921  13.822
19519SOL     OW60453   0.148  14.779  10.596
19519SOL    HW160454   0.186  14.867  10.594
19519SOL    HW260455   0.054  14.793  10.603
19520SOL     OW60456   8.636   1.010   2.782
19520SOL    HW160457   8.610   1.046   2.867
19520SOL    HW260458   8.554   0.979   2.743
19521SOL     OW60459   6.218   9.973  12.021
19521SOL    HW160460   6.272   9.912  11.971
19521SOL    HW260461   6.210  10.050  11.964
19522SOL     OW60462   3.492  13.273   1.882
19522SOL    HW160463   3.511  13.208   1.814
19522SOL    HW260464   3.575  13.317   1.897
19523SOL     OW60465  13.889   8.881   5.043
19523SOL    HW160466  13.965   8.914   5.092
19523SOL    HW260467  13.845   8.822   5.104
19524SOL     OW60468   6.808   5.542   7.237
19524SOL    HW160469   6.769   5.486   7.304
19524SOL    HW260470   6.734   5.588   7.198
19525SOL     OW60471   9.757   3.525   7.091
19525SOL    HW160472   9.850   3.541   7.107
19525SOL    HW260473   9.712   3.590   7.146
19526SOL     OW60474   6.417  12.635  10.603
19526SOL    HW160475   6.389  12.689  10.677
19526SOL    HW260476   6.336  12.606  10.561
19527SOL     OW60477   8.727   3.476   9.016
19527SOL    HW160478   8.807   3.519   8.988
19527SOL    HW260479   8.754   3.419   9.088
19528SOL     OW60480   1.902   8.609   2.593
19528SOL    HW160481   1.819   8.575   2.627
19528SOL    HW260482   1.967   8.545   2.623
19529SOL     OW60483   0.331  11.510   6.252
19529SOL    HW160484   0.309  11.561   6.330
19529SOL    HW260485   0.263  11.443   6.247
19530SOL     OW60486   7.240   2.104  11.245
19530SOL    HW160487   7.257   2.083  11.337
19530SOL    HW260488   7.318   2.152  11.217
19531SOL     OW60489  11.519  12.869  14.345
19531SOL    HW160490  11.521  12.790  14.291
19531SOL    HW260491  11.570  12.933  14.295
19532SOL     OW60492   2.377   1.093  12.821
19532SOL    HW160493   2.351   1.023  12.881
19532SOL    HW260494   2.295   1.138  12.800
19533SOL     OW60495   9.203   1.005   6.987
19533SOL    HW160496   9.268   1.070   6.963
19533SOL    HW260497   9.127   1.024   6.932
19534SOL     OW60498  12.810   9.389   5.403
19534SOL    HW160499  12.758   9.335   5.462
19534SOL    HW260500  12.786   9.358   5.315
19535SOL     OW60501  11.906   3.593   0.819
19535SOL    HW160502  11.857   3.536   0.759
19535SOL    HW260503  11.844   3.615   0.887
19536SOL     OW60504  12.094  13.608   3.546
19536SOL    HW160505  12.095  13.545   3.617
19536SOL    HW260506  12.186  13.624   3.526
19537SOL     OW60507  12.251   2.920   5.198
19537SOL    HW160508  12.225   3.007   5.166
19537SOL    HW260509  12.237   2.862   5.123
19538SOL     OW60510  12.511  14.562  10.000
19538SOL    HW160511  12.590  14.573   9.948
19538SOL    HW260512  12.473  14.649  10.006
19539SOL     OW60513   7.679  10.284   1.702
19539SOL    HW160514   7.674  10.193   1.732
19539SOL    HW260515   7.719  10.331   1.775
19540SOL     OW60516   7.602  10.681  10.799
19540SOL    HW160517   7.554  10.617  10.852
19540SOL    HW260518   7.673  10.630  10.759
19541SOL     OW60519   6.373   5.075   9.149
19541SOL    HW160520   6.330   5.007   9.098
19541SOL    HW260521   6.364   5.154   9.097
19542SOL     OW60522   6.795   1.851  14.705
19542SOL    HW160523   6.781   1.923  14.766
19542SOL    HW260524   6.812   1.893  14.621
19543SOL     OW60525   0.794   8.785   8.125
19543SOL    HW160526   0.748   8.731   8.060
19543SOL    HW260527   0.798   8.730   8.203
19544SOL     OW60528  14.621  12.773   7.596
19544SOL    HW160529  14.667  12.829   7.659
19544SOL    HW260530  14.541  12.822   7.575
19545SOL     OW60531   7.434   6.441  13.415
19545SOL    HW160532   7.506   6.467  13.358
19545SOL    HW260533   7.394   6.366  13.371
19546SOL     OW60534  11.631   2.304  13.859
19546SOL    HW160535  11.550   2.353  13.845
19546SOL    HW260536  11.668   2.341  13.940
19547SOL     OW60537   9.967   4.228   0.037
19547SOL    HW160538  10.023   4.220  14.831
19547SOL    HW260539   9.987   4.315   0.072
19548SOL     OW60540   5.343  14.289  11.286
19548SOL    HW160541   5.383  14.234  11.218
19548SOL    HW260542   5.385  14.261  11.367
19549SOL     OW60543   1.234   2.100   6.203
19549SOL    HW160544   1.237   2.190   6.233
19549SOL    HW260545   1.280   2.050   6.271
19550SOL     OW60546   4.468  14.023   2.607
19550SOL    HW160547   4.462  13.939   2.652
19550SOL    HW260548   4.432  14.006   2.520
19551SOL     OW60549   2.837   6.878   0.813
19551SOL    HW160550   2.852   6.784   0.803
19551SOL    HW260551   2.746   6.885   0.843
19552SOL     OW60552   5.591   2.241   2.587
19552SOL    HW160553   5.654   2.271   2.653
19552SOL    HW260554   5.601   2.303   2.515
19553SOL     OW60555   3.433   1.273   8.162
19553SOL    HW160556   3.353   1.318   8.189
19553SOL    HW260557   3.403   1.197   8.113
19554SOL     OW60558   4.368   0.425   0.500
19554SOL    HW160559   4.377   0.520   0.494
19554SOL    HW260560   4.408   0.401   0.583
19555SOL     OW60561  12.694  12.576   4.116
19555SOL    HW160562  12.697  12.578   4.211
19555SOL    HW260563  12.746  12.499   4.091
19556SOL     OW60564   1.598   0.641   7.251
19556SOL    HW160565   1.661   0.580   7.289
19556SOL    HW260566   1.513   0.615   7.288
19557SOL     OW60567   7.120   2.181  11.635
19557SOL    HW160568   7.142   2.256  11.689
19557SOL    HW260569   7.072   2.218  11.561
19558SOL     OW60570   2.824   1.251   0.573
19558SOL    HW160571   2.861   1.338   0.585
19558SOL    HW260572   2.895   1.191   0.597
19559SOL     OW60573   0.385  13.601   1.458
19559SOL    HW160574   0.387  13.685   1.412
19559SOL    HW260575   0.294  13.571   1.449
19560SOL     OW60576   1.642   5.094   3.792
19560SOL    HW160577   1.693   5.167   3.757
19560SOL    HW260578   1.655   5.023   3.729
19561SOL     OW60579   5.550   2.165  13.968
19561SOL    HW160580   5.525   2.141  13.879
19561SOL    HW260581   5.476   2.218  14.000
19562SOL     OW60582   9.496   4.447  14.830
19562SOL    HW160583   9.434   4.376  14.849
19562SOL    HW260584   9.442   4.516  14.792
19563SOL     OW60585  13.102   0.045   1.393
19563SOL    HW160586  13.146   0.023   1.311
19563SOL    HW260587  13.050   0.123   1.372
19564SOL     OW60588   5.481  11.048  11.262
19564SOL    HW160589   5.457  10.999  11.340
19564SOL    HW260590   5.576  11.058  11.269
19565SOL     OW60591   3.301  14.774  11.223
19565SOL    HW160592   3.304  14.729  11.139
19565SOL    HW260593   3.392  14.778  11.252
19566SOL     OW60594   6.810   6.624   4.500
19566SOL    HW160595   6.753   6.693   4.537
19566SOL    HW260596   6.799   6.632   4.405
19567SOL     OW60597   3.564   8.805  11.633
19567SOL    HW160598   3.643   8.754  11.651
19567SOL    HW260599   3.596   8.886  11.592
19568SOL     OW60600   1.644   1.639  12.926
19568SOL    HW160601   1.707   1.571  12.901
19568SOL    HW260602   1.562   1.612  12.884
19569SOL     OW60603   4.132   6.152   5.492
19569SOL    HW160604   4.110   6.070   5.449
19569SOL    HW260605   4.226   6.161   5.480
19570SOL     OW60606   4.481   8.146   7.342
19570SOL    HW160607   4.433   8.225   7.367
19570SOL    HW260608   4.439   8.076   7.392
19571SOL     OW60609  12.956   9.519   2.491
19571SOL    HW160610  13.005   9.490   2.414
19571SOL    HW260611  12.864   9.510   2.466
19572SOL     OW60612   7.775   4.486   6.242
19572SOL    HW160613   7.704   4.521   6.296
19572SOL    HW260614   7.775   4.392   6.261
19573SOL     OW60615  10.058   6.123   6.883
19573SOL    HW160616  10.071   6.137   6.977
19573SOL    HW260617  10.131   6.169   6.842
19574SOL     OW60618  14.288  10.707  11.745
19574SOL    HW160619  14.381  10.691  11.732
19574SOL    HW260620  14.245  10.657  11.675
19575SOL     OW60621  11.005   7.726   8.983
19575SOL    HW160622  10.951   7.712   8.905
19575SOL    HW260623  11.092   7.744   8.950
19576SOL     OW60624  11.084   1.566   3.785
19576SOL    HW160625  11.113   1.579   3.876
19576SOL    HW260626  10.992   1.542   3.793
19577SOL     OW60627   7.136   5.642   0.962
19577SOL    HW160628   7.127   5.663   0.869
19577SOL    HW260629   7.127   5.547   0.967
19578SOL     OW60630  10.628   4.733   0.923
19578SOL    HW160631  10.568   4.665   0.952
19578SOL    HW260632  10.635   4.722   0.829
19579SOL     OW60633   4.045   6.650  11.303
19579SOL    HW160634   4.063   6.558  11.281
19579SOL    HW260635   4.042   6.694  11.218
19580SOL     OW60636  13.657  12.177  13.749
19580SOL    HW160637  13.628  12.174  13.658
19580SOL    HW260638  13.603  12.112  13.793
19581SOL     OW60639   6.263  12.378   5.596
19581SOL    HW160640   6.319  12.312   5.638
19581SOL    HW260641   6.270  12.359   5.503
19582SOL     OW60642   4.993  13.282  12.731
19582SOL    HW160643   5.023  13.347  12.796
19582SOL    HW260644   4.905  13.310  12.708
19583SOL     OW60645   7.890   1.509   1.635
19583SOL    HW160646   7.865   1.597   1.661
19583SOL    HW260647   7.900   1.462   1.718
19584SOL     OW60648   4.131  11.942   2.888
19584SOL    HW160649   4.051  11.963   2.935
19584SOL    HW260650   4.107  11.866   2.833
19585SOL     OW60651   0.683   9.450   1.007
19585SOL    HW160652   0.702   9.363   0.972
19585SOL    HW260653   0.677   9.506   0.930
19586SOL     OW60654  12.673   5.810   4.014
19586SOL    HW160655  12.596   5.756   3.994
19586SOL    HW260656  12.653   5.895   3.975
19587SOL     OW60657  14.103   8.302   9.630
19587SOL    HW160658  14.130   8.308   9.722
19587SOL    HW260659  14.040   8.230   9.629
19588SOL     OW60660   0.956  12.374   2.240
19588SOL    HW160661   1.046  12.389   2.267
19588SOL    HW260662   0.962  12.317   2.164
19589SOL     OW60663   5.835  11.096  11.585
19589SOL    HW160664   5.810  11.040  11.512
19589SOL    HW260665   5.800  11.052  11.662
19590SOL     OW60666   5.203   6.910  12.039
19590SOL    HW160667   5.265   6.881  11.972
19590SOL    HW260668   5.253   6.972  12.092
19591SOL     OW60669   6.386   6.499  13.412
19591SOL    HW160670   6.424   6.451  13.339
19591SOL    HW260671   6.338   6.571  13.371
19592SOL     OW60672  10.745  11.170   0.237
19592SOL    HW160673  10.728  11.077   0.222
19592SOL    HW260674  10.836  11.182   0.209
19593SOL     OW60675   3.964   0.167   9.184
19593SOL    HW160676   4.056   0.151   9.164
19593SOL    HW260677   3.950   0.259   9.159
19594SOL     OW60678   9.228   7.011   6.178
19594SOL    HW160679   9.249   7.026   6.270
19594SOL    HW260680   9.166   6.938   6.178
19595SOL     OW60681  11.042   9.517  13.339
19595SOL    HW160682  11.040   9.559  13.253
19595SOL    HW260683  10.967   9.457  13.338
19596SOL     OW60684   3.278   7.837   0.463
19596SOL    HW160685   3.366   7.833   0.424
19596SOL    HW260686   3.233   7.905   0.413
19597SOL     OW60687  12.035   1.371   0.576
19597SOL    HW160688  12.072   1.286   0.552
19597SOL    HW260689  11.944   1.352   0.598
19598SOL     OW60690   1.321   6.617  14.810
19598SOL    HW160691   1.395   6.645  14.863
19598SOL    HW260692   1.351   6.627  14.720
19599SOL     OW60693   6.922   1.750   7.977
19599SOL    HW160694   6.903   1.790   8.063
19599SOL    HW260695   6.996   1.692   7.994
19600SOL     OW60696   6.603   8.428  11.081
19600SOL    HW160697   6.508   8.435  11.072
19600SOL    HW260698   6.633   8.518  11.097
19601SOL     OW60699   6.693  10.609   2.772
19601SOL    HW160700   6.646  10.654   2.843
19601SOL    HW260701   6.658  10.520   2.774
19602SOL     OW60702   1.963  11.260  14.161
19602SOL    HW160703   1.994  11.175  14.130
19602SOL    HW260704   2.041  11.304  14.195
19603SOL     OW60705   2.524  14.157  14.599
19603SOL    HW160706   2.500  14.066  14.618
19603SOL    HW260707   2.613  14.167  14.634
19604SOL     OW60708   5.076   7.926  14.602
19604SOL    HW160709   5.073   8.018  14.574
19604SOL    HW260710   5.003   7.918  14.664
19605SOL     OW60711  11.405   7.989  13.768
19605SOL    HW160712  11.464   8.053  13.728
19605SOL    HW260713  11.457   7.910  13.776
19606SOL     OW60714   9.143  14.369   3.836
19606SOL    HW160715   9.221  14.339   3.790
19606SOL    HW260716   9.172  14.446   3.885
19607SOL     OW60717  11.712   0.254  10.559
19607SOL    HW160718  11.689   0.172  10.516
19607SOL    HW260719  11.708   0.320  10.490
19608SOL     OW60720   1.864  14.831   0.738
19608SOL    HW160721   1.832  14.751   0.697
19608SOL    HW260722   1.881  14.807   0.829
19609SOL     OW60723   1.085  11.546   9.701
19609SOL    HW160724   1.037  11.611   9.649
19609SOL    HW260725   1.020  11.480   9.724
19610SOL     OW60726  11.202   4.786   4.947
19610SOL    HW160727  11.234   4.862   4.996
19610SOL    HW260728  11.147   4.738   5.010
19611SOL     OW60729  10.290   5.101   4.213
19611SOL    HW160730  10.314   5.009   4.208
19611SOL    HW260731  10.262   5.123   4.124
19612SOL     OW60732   5.708   3.945   8.058
19612SOL    HW160733   5.660   4.010   8.007
19612SOL    HW260734   5.640   3.889   8.095
19613SOL     OW60735   2.632   8.546  11.125
19613SOL    HW160736   2.686   8.605  11.178
19613SOL    HW260737   2.634   8.585  11.037
19614SOL     OW60738   2.564   9.842  14.031
19614SOL    HW160739   2.549   9.747  14.039
19614SOL    HW260740   2.478   9.878  14.011
19615SOL     OW60741  11.553   7.087  13.340
19615SOL    HW160742  11.501   7.167  13.328
19615SOL    HW260743  11.513   7.045  13.416
19616SOL     OW60744  13.467   6.310  14.700
19616SOL    HW160745  13.425   6.382  14.746
19616SOL    HW260746  13.398   6.273  14.644
19617SOL     OW60747  11.872  13.392   9.332
19617SOL    HW160748  11.806  13.322   9.329
19617SOL    HW260749  11.853  13.439   9.413
19618SOL     OW60750  13.609   0.982  12.815
19618SOL    HW160751  13.690   1.031  12.829
19618SOL    HW260752  13.627   0.895  12.850
19619SOL     OW60753   8.051   7.183  13.339
19619SOL    HW160754   8.047   7.195  13.244
19619SOL    HW260755   8.095   7.261  13.371
19620SOL     OW60756   2.891   6.811  10.448
19620SOL    HW160757   2.922   6.858  10.370
19620SOL    HW260758   2.956   6.831  10.515
19621SOL     OW60759  14.613   3.299  14.292
19621SOL    HW160760  14.609   3.328  14.384
19621SOL    HW260761  14.635   3.206  14.298
19622SOL     OW60762   8.694   9.013   1.891
19622SOL    HW160763   8.662   9.063   1.816
19622SOL    HW260764   8.788   9.005   1.875
19623SOL     OW60765   3.470   1.550   8.100
19623SOL    HW160766   3.480   1.592   8.185
19623SOL    HW260767   3.484   1.457   8.117
19624SOL     OW60768   0.492   5.039  10.860
19624SOL    HW160769   0.452   5.126  10.863
19624SOL    HW260770   0.580   5.054  10.825
19625SOL     OW60771   0.362  10.715   8.677
19625SOL    HW160772   0.368  10.777   8.750
19625SOL    HW260773   0.279  10.737   8.634
19626SOL     OW60774   2.692   4.630   8.655
19626SOL    HW160775   2.639   4.708   8.642
19626SOL    HW260776   2.649   4.562   8.603
19627SOL     OW60777   4.439   5.050   7.244
19627SOL    HW160778   4.384   5.005   7.308
19627SOL    HW260779   4.377   5.101   7.191
19628SOL     OW60780   8.545  12.621  10.086
19628SOL    HW160781   8.476  12.614  10.152
19628SOL    HW260782   8.500  12.653  10.008
19629SOL     OW60783  12.704   1.589  10.075
19629SOL    HW160784  12.693   1.647   9.999
19629SOL    HW260785  12.799   1.574  10.079
19630SOL     OW60786   6.022   4.457   6.078
19630SOL    HW160787   5.949   4.517   6.089
19630SOL    HW260788   5.997   4.401   6.005
19631SOL     OW60789   6.888  12.239   1.510
19631SOL    HW160790   6.977  12.225   1.542
19631SOL    HW260791   6.864  12.325   1.544
19632SOL     OW60792  10.823  11.753  12.536
19632SOL    HW160793  10.748  11.790  12.490
19632SOL    HW260794  10.898  11.806  12.507
19633SOL     OW60795   8.799  14.801  10.522
19633SOL    HW160796   8.858  14.727  10.535
19633SOL    HW260797   8.831  14.868  10.583
19634SOL     OW60798   6.922   6.475   3.552
19634SOL    HW160799   6.989   6.519   3.604
19634SOL    HW260800   6.846   6.471   3.610
19635SOL     OW60801  11.792  11.351   7.757
19635SOL    HW160802  11.852  11.391   7.693
19635SOL    HW260803  11.770  11.423   7.817
19636SOL     OW60804   6.362  14.119  14.719
19636SOL    HW160805   6.341  14.134  14.811
19636SOL    HW260806   6.295  14.058  14.689
19637SOL     OW60807   9.883   8.691   2.579
19637SOL    HW160808   9.845   8.779   2.580
19637SOL    HW260809   9.808   8.633   2.562
19638SOL     OW60810   3.514   5.093   8.058
19638SOL    HW160811   3.445   5.075   7.994
19638SOL    HW260812   3.469   5.092   8.143
19639SOL     OW60813   7.679   6.953   0.232
19639SOL    HW160814   7.705   6.957   0.324
19639SOL    HW260815   7.727   7.024   0.190
19640SOL     OW60816   8.699   3.589   2.388
19640SOL    HW160817   8.666   3.507   2.353
19640SOL    HW260818   8.620   3.639   2.411
19641SOL     OW60819   1.923   2.735  13.960
19641SOL    HW160820   1.952   2.818  13.998
19641SOL    HW260821   1.847   2.758  13.906
19642SOL     OW60822   4.884   2.285   5.483
19642SOL    HW160823   4.912   2.319   5.568
19642SOL    HW260824   4.895   2.359   5.423
19643SOL     OW60825   4.260   8.831   8.872
19643SOL    HW160826   4.166   8.847   8.865
19643SOL    HW260827   4.297   8.869   8.792
19644SOL     OW60828  13.609  14.538   2.991
19644SOL    HW160829  13.617  14.559   2.898
19644SOL    HW260830  13.569  14.452   2.992
19645SOL     OW60831   0.505  11.465  12.303
19645SOL    HW160832   0.465  11.418  12.376
19645SOL    HW260833   0.443  11.455  12.231
19646SOL     OW60834   2.868   6.615   1.118
19646SOL    HW160835   2.920   6.687   1.081
19646SOL    HW260836   2.932   6.549   1.143
19647SOL     OW60837   4.151  11.212   1.110
19647SOL    HW160838   4.118  11.127   1.080
19647SOL    HW260839   4.089  11.275   1.073
19648SOL     OW60840  14.096   8.194   8.955
19648SOL    HW160841  14.041   8.116   8.967
19648SOL    HW260842  14.080   8.221   8.864
19649SOL     OW60843  11.096   0.644  13.811
19649SOL    HW160844  11.162   0.585  13.775
19649SOL    HW260845  11.095   0.626  13.905
19650SOL     OW60846   5.978  10.602  13.105
19650SOL    HW160847   5.884  10.612  13.095
19650SOL    HW260848   5.988  10.540  13.178
19651SOL     OW60849  12.442   7.556   4.929
19651SOL    HW160850  12.414   7.645   4.948
19651SOL    HW260851  12.490   7.529   5.007
19652SOL     OW60852   4.107   8.236   7.872
19652SOL    HW160853   4.142   8.163   7.922
19652SOL    HW260854   4.054   8.285   7.935
19653SOL     OW60855   6.050   2.522  11.735
19653SOL    HW160856   6.062   2.472  11.655
19653SOL    HW260857   6.114   2.484  11.796
19654SOL     OW60858   9.740   6.584   4.455
19654SOL    HW160859   9.764   6.661   4.403
19654SOL    HW260860   9.665   6.545   4.409
19655SOL     OW60861  13.230   0.661  12.611
19655SOL    HW160862  13.229   0.736  12.552
19655SOL    HW260863  13.263   0.589  12.557
19656SOL     OW60864   1.391  13.149  13.916
19656SOL    HW160865   1.339  13.183  13.989
19656SOL    HW260866   1.459  13.096  13.959
19657SOL     OW60867  11.830  13.589  10.875
19657SOL    HW160868  11.807  13.593  10.782
19657SOL    HW260869  11.775  13.519  10.911
19658SOL     OW60870  10.749  12.305   5.197
19658SOL    HW160871  10.748  12.209   5.188
19658SOL    HW260872  10.658  12.328   5.214
19659SOL     OW60873   3.130   3.129   7.497
19659SOL    HW160874   3.168   3.130   7.409
19659SOL    HW260875   3.092   3.041   7.505
19660SOL     OW60876   5.977  11.699  10.737
19660SOL    HW160877   5.903  11.728  10.791
19660SOL    HW260878   6.045  11.675  10.800
19661SOL     OW60879   3.016  12.686   8.340
19661SOL    HW160880   2.972  12.668   8.257
19661SOL    HW260881   2.978  12.769   8.370
19662SOL     OW60882  11.987   5.761   1.812
19662SOL    HW160883  12.042   5.683   1.819
19662SOL    HW260884  12.038   5.822   1.758
19663SOL     OW60885  14.698   2.973   5.665
19663SOL    HW160886  14.665   3.061   5.646
19663SOL    HW260887  14.718   2.937   5.579
19664SOL     OW60888   2.404   6.116  11.883
19664SOL    HW160889   2.475   6.133  11.946
19664SOL    HW260890   2.442   6.137  11.798
19665SOL     OW60891  11.079   4.597   8.177
19665SOL    HW160892  11.097   4.539   8.252
19665SOL    HW260893  11.090   4.685   8.212
19666SOL     OW60894   8.656  13.659  11.646
19666SOL    HW160895   8.624  13.702  11.567
19666SOL    HW260896   8.720  13.720  11.683
19667SOL     OW60897   1.363   0.768   5.260
19667SOL    HW160898   1.444   0.719   5.244
19667SOL    HW260899   1.377   0.814   5.342
19668SOL     OW60900  10.877  12.541   0.326
19668SOL    HW160901  10.919  12.566   0.244
19668SOL    HW260902  10.891  12.447   0.334
19669SOL     OW60903  14.828   3.529   2.734
19669SOL    HW160904   0.016   3.524   2.659
19669SOL    HW260905  14.821   3.623   2.752
19670SOL     OW60906   7.558   8.967   4.660
19670SOL    HW160907   7.541   9.060   4.669
19670SOL    HW260908   7.502   8.925   4.725
19671SOL     OW60909   9.105  10.792   6.088
19671SOL    HW160910   9.126  10.841   6.167
19671SOL    HW260911   9.134  10.703   6.107
19672SOL     OW60912  12.757   2.877   7.160
19672SOL    HW160913  12.813   2.806   7.130
19672SOL    HW260914  12.774   2.885   7.254
19673SOL     OW60915   3.521   6.878  10.174
19673SOL    HW160916   3.591   6.907  10.115
19673SOL    HW260917   3.560   6.883  10.261
19674SOL     OW60918   9.835  10.780   1.669
19674SOL    HW160919   9.883  10.837   1.729
19674SOL    HW260920   9.833  10.695   1.713
19675SOL     OW60921   3.376  12.332   4.097
19675SOL    HW160922   3.403  12.378   4.176
19675SOL    HW260923   3.432  12.254   4.094
19676SOL     OW60924  13.577   8.339  11.049
19676SOL    HW160925  13.617   8.261  11.008
19676SOL    HW260926  13.648   8.377  11.100
19677SOL     OW60927   3.151  13.632  14.377
19677SOL    HW160928   3.099  13.707  14.408
19677SOL    HW260929   3.091  13.558  14.383
19678SOL     OW60930   0.422   0.895   6.142
19678SOL    HW160931   0.502   0.854   6.109
19678SOL    HW260932   0.449   0.983   6.168
19679SOL     OW60933   2.421  12.682   6.076
19679SOL    HW160934   2.408  12.588   6.086
19679SOL    HW260935   2.510  12.698   6.109
19680SOL     OW60936   9.215   8.879  13.934
19680SOL    HW160937   9.231   8.942  14.004
19680SOL    HW260938   9.264   8.914  13.859
19681SOL     OW60939   0.581  11.327   9.332
19681SOL    HW160940   0.515  11.391   9.304
19681SOL    HW260941   0.550  11.243   9.296
19682SOL     OW60942   4.809   9.328   9.165
19682SOL    HW160943   4.735   9.380   9.198
19682SOL    HW260944   4.819   9.356   9.074
19683SOL     OW60945   6.773   4.675   3.511
19683SOL    HW160946   6.868   4.664   3.522
19683SOL    HW260947   6.739   4.678   3.601
19684SOL     OW60948  14.515   6.048  11.914
19684SOL    HW160949  14.483   5.969  11.870
19684SOL    HW260950  14.586   6.016  11.970
19685SOL     OW60951   6.127   1.011   4.671
19685SOL    HW160952   6.109   0.976   4.584
19685SOL    HW260953   6.095   1.102   4.667
19686SOL     OW60954   0.741   6.530  11.988
19686SOL    HW160955   0.733   6.451  11.935
19686SOL    HW260956   0.651   6.561  12.000
19687SOL     OW60957  12.834  10.635   7.488
19687SOL    HW160958  12.871  10.549   7.469
19687SOL    HW260959  12.794  10.663   7.406
19688SOL     OW60960   4.504   5.249   4.706
19688SOL    HW160961   4.436   5.264   4.640
19688SOL    HW260962   4.570   5.197   4.661
19689SOL     OW60963   0.644   2.910  12.119
19689SOL    HW160964   0.635   2.824  12.161
19689SOL    HW260965   0.738   2.924  12.113
19690SOL     OW60966   0.992   6.245   2.835
19690SOL    HW160967   0.919   6.202   2.880
19690SOL    HW260968   1.028   6.306   2.899
19691SOL     OW60969   5.708   6.888   5.595
19691SOL    HW160970   5.720   6.819   5.661
19691SOL    HW260971   5.793   6.893   5.551
19692SOL     OW60972  11.634   8.264   3.343
19692SOL    HW160973  11.710   8.268   3.285
19692SOL    HW260974  11.660   8.204   3.413
19693SOL     OW60975   8.856  11.668   7.853
19693SOL    HW160976   8.876  11.675   7.946
19693SOL    HW260977   8.933  11.704   7.809
19694SOL     OW60978   8.045  12.701  10.797
19694SOL    HW160979   7.956  12.731  10.777
19694SOL    HW260980   8.098  12.730  10.723
19695SOL     OW60981   9.097   5.698   7.774
19695SOL    HW160982   9.086   5.603   7.768
19695SOL    HW260983   9.181   5.715   7.732
19696SOL     OW60984   4.018  12.405  12.730
19696SOL    HW160985   3.973  12.430  12.649
19696SOL    HW260986   4.110  12.397  12.705
19697SOL     OW60987  11.922  14.112   0.697
19697SOL    HW160988  11.983  14.041   0.713
19697SOL    HW260989  11.846  14.071   0.655
19698SOL     OW60990   0.997   3.072  11.461
19698SOL    HW160991   1.018   2.979  11.465
19698SOL    HW260992   0.922   3.082  11.520
19699SOL     OW60993   2.740  12.055   2.986
19699SOL    HW160994   2.701  12.035   2.901
19699SOL    HW260995   2.666  12.060   3.046
19700SOL     OW60996   7.613   0.433   9.122
19700SOL    HW160997   7.684   0.480   9.078
19700SOL    HW260998   7.575   0.378   9.053
19701SOL     OW60999   7.718   0.338  14.034
19701SOL    HW161000   7.637   0.311  13.992
19701SOL    HW261001   7.751   0.410  13.979
19702SOL     OW61002  11.850   6.827   1.261
19702SOL    HW161003  11.840   6.857   1.352
19702SOL    HW261004  11.766   6.846   1.220
19703SOL     OW61005  10.170   8.151   4.341
19703SOL    HW161006  10.207   8.080   4.394
19703SOL    HW261007  10.085   8.118   4.312
19704SOL     OW61008   4.156   3.680   2.118
19704SOL    HW161009   4.167   3.632   2.035
19704SOL    HW261010   4.076   3.644   2.156
19705SOL     OW61011   0.271  12.308  13.048
19705SOL    HW161012   0.360  12.327  13.017
19705SOL    HW261013   0.215  12.360  12.991
19706SOL     OW61014   8.266   0.699  13.455
19706SOL    HW161015   8.285   0.682  13.363
19706SOL    HW261016   8.352   0.719  13.494
19707SOL     OW61017   1.441   0.455  10.439
19707SOL    HW161018   1.357   0.455  10.486
19707SOL    HW261019   1.416   0.454  10.347
19708SOL     OW61020  13.183   6.470   7.704
19708SOL    HW161021  13.186   6.564   7.723
19708SOL    HW261022  13.151   6.466   7.613
19709SOL     OW61023   9.200   8.208  12.563
19709SOL    HW161024   9.186   8.294  12.523
19709SOL    HW261025   9.294   8.193  12.553
19710SOL     OW61026   2.181   9.557  10.644
19710SOL    HW161027   2.254   9.510  10.684
19710SOL    HW261028   2.105   9.503  10.663
19711SOL     OW61029  14.139   7.178   5.439
19711SOL    HW161030  14.057   7.197   5.484
19711SOL    HW261031  14.122   7.098   5.389
19712SOL     OW61032   5.771  10.676   5.931
19712SOL    HW161033   5.705  10.735   5.893
19712SOL    HW261034   5.850  10.730   5.937
19713SOL     OW61035   4.161  13.220  11.642
19713SOL    HW161036   4.214  13.160  11.590
19713SOL    HW261037   4.115  13.163  11.704
19714SOL     OW61038  13.750  10.205   2.371
19714SOL    HW161039  13.741  10.209   2.466
19714SOL    HW261040  13.702  10.127   2.346
19715SOL     OW61041  12.398   4.895  11.704
19715SOL    HW161042  12.347   4.841  11.764
19715SOL    HW261043  12.332   4.939  11.650
19716SOL     OW61044  11.323   4.040  10.816
19716SOL    HW161045  11.258   4.102  10.783
19716SOL    HW261046  11.394   4.095  10.848
19717SOL     OW61047  13.570   9.559  13.645
19717SOL    HW161048  13.487   9.580  13.689
19717SOL    HW261049  13.543   9.514  13.565
19718SOL     OW61050   5.370   2.019   2.625
19718SOL    HW161051   5.436   2.088   2.637
19718SOL    HW261052   5.401   1.947   2.680
19719SOL     OW61053  10.704   4.401   4.443
19719SOL    HW161054  10.789   4.397   4.400
19719SOL    HW261055  10.668   4.313   4.433
19720SOL     OW61056   4.191   1.773   7.675
19720SOL    HW161057   4.214   1.847   7.620
19720SOL    HW261058   4.188   1.698   7.615
19721SOL     OW61059  11.004   4.428   7.975
19721SOL    HW161060  11.028   4.502   8.032
19721SOL    HW261061  10.991   4.355   8.036
19722SOL     OW61062   4.977  10.114   4.286
19722SOL    HW161063   4.912  10.048   4.311
19722SOL    HW261064   5.056  10.064   4.267
19723SOL     OW61065   3.497  13.619   0.023
19723SOL    HW161066   3.464  13.546  14.843
19723SOL    HW261067   3.592  13.609   0.021
19724SOL     OW61068  13.074   5.710  13.645
19724SOL    HW161069  12.985   5.683  13.622
19724SOL    HW261070  13.063   5.796  13.686
19725SOL     OW61071   5.675   4.824  12.732
19725SOL    HW161072   5.673   4.856  12.822
19725SOL    HW261073   5.674   4.904  12.679
19726SOL     OW61074  12.186   5.215  10.007
19726SOL    HW161075  12.207   5.141  10.064
19726SOL    HW261076  12.271   5.241   9.970
19727SOL     OW61077   2.590   9.410   9.455
19727SOL    HW161078   2.514   9.407   9.395
19727SOL    HW261079   2.593   9.500   9.485
19728SOL     OW61080   0.876   5.777  13.797
19728SOL    HW161081   0.954   5.745  13.842
19728SOL    HW261082   0.908   5.806  13.711
19729SOL     OW61083   3.784  12.317  12.261
19729SOL    HW161084   3.767  12.232  12.301
19729SOL    HW261085   3.813  12.297  12.172
19730SOL     OW61086   5.065  14.372  11.236
19730SOL    HW161087   5.042  14.376  11.143
19730SOL    HW261088   5.154  14.335  11.237
19731SOL     OW61089  12.107   0.833   4.801
19731SOL    HW161090  12.013   0.836   4.822
19731SOL    HW261091  12.150   0.856   4.883
19732SOL     OW61092   6.514   1.301   7.887
19732SOL    HW161093   6.458   1.362   7.935
19732SOL    HW261094   6.603   1.333   7.903
19733SOL     OW61095   7.912   0.241   1.817
19733SOL    HW161096   7.965   0.162   1.805
19733SOL    HW261097   7.907   0.280   1.730
19734SOL     OW61098   3.211  11.168  14.368
19734SOL    HW161099   3.295  11.215  14.364
19734SOL    HW261100   3.220  11.110  14.444
19735SOL     OW61101  12.890   5.346  12.463
19735SOL    HW161102  12.944   5.343  12.385
19735SOL    HW261103  12.819   5.406  12.441
19736SOL     OW61104  13.621   1.463   7.812
19736SOL    HW161105  13.571   1.411   7.875
19736SOL    HW261106  13.711   1.431   7.820
19737SOL     OW61107   3.075   9.404   7.483
19737SOL    HW161108   3.168   9.381   7.492
19737SOL    HW261109   3.075   9.484   7.431
19738SOL     OW61110   8.868  10.817  14.213
19738SOL    HW161111   8.946  10.857  14.252
19738SOL    HW261112   8.795  10.857  14.260
19739SOL     OW61113   6.394   6.124   1.443
19739SOL    HW161114   6.426   6.040   1.410
19739SOL    HW261115   6.350   6.101   1.525
19740SOL     OW61116   4.084   6.556   7.064
19740SOL    HW161117   4.019   6.514   7.119
19740SOL    HW261118   4.166   6.511   7.084
19741SOL     OW61119   5.737  13.617  10.436
19741SOL    HW161120   5.775  13.624  10.524
19741SOL    HW261121   5.740  13.707  10.403
19742SOL     OW61122   2.625  10.674   2.485
19742SOL    HW161123   2.642  10.645   2.575
19742SOL    HW261124   2.711  10.671   2.443
19743SOL     OW61125   9.146  12.931   7.573
19743SOL    HW161126   9.215  12.950   7.638
19743SOL    HW261127   9.065  12.935   7.623
19744SOL     OW61128  11.431  11.413  12.034
19744SOL    HW161129  11.510  11.365  12.058
19744SOL    HW261130  11.400  11.450  12.117
19745SOL     OW61131   2.079  12.439   8.816
19745SOL    HW161132   2.130  12.497   8.760
19745SOL    HW261133   1.990  12.442   8.781
19746SOL     OW61134  11.183   3.461  12.919
19746SOL    HW161135  11.134   3.467  13.002
19746SOL    HW261136  11.124   3.413  12.861
19747SOL     OW61137   9.510   3.244   0.025
19747SOL    HW161138   9.537   3.322   0.074
19747SOL    HW261139   9.544   3.171   0.077
19748SOL     OW61140   4.072   9.186   0.998
19748SOL    HW161141   3.994   9.221   0.955
19748SOL    HW261142   4.043   9.103   1.036
19749SOL     OW61143   2.081   9.963   1.953
19749SOL    HW161144   2.159   9.907   1.956
19749SOL    HW261145   2.111  10.049   1.981
19750SOL     OW61146   7.449   0.735   5.231
19750SOL    HW161147   7.354   0.747   5.232
19750SOL    HW261148   7.468   0.690   5.313
19751SOL     OW61149  12.567   9.989   5.879
19751SOL    HW161150  12.532  10.067   5.836
19751SOL    HW261151  12.614   9.943   5.810
19752SOL     OW61152   3.618  12.398  13.183
19752SOL    HW161153   3.603  12.490  13.164
19752SOL    HW261154   3.534  12.355  13.164
19753SOL     OW61155  13.760   0.498  12.083
19753SOL    HW161156  13.759   0.594  12.083
19753SOL    HW261157  13.754   0.474  11.991
19754SOL     OW61158   4.131  14.654  10.991
19754SOL    HW161159   4.119  14.748  11.005
19754SOL    HW261160   4.130  14.616  11.079
19755SOL     OW61161  13.078   4.781   9.264
19755SOL    HW161162  13.158   4.829   9.285
19755SOL    HW261163  13.100   4.689   9.278
19756SOL     OW61164   1.648  10.227   2.732
19756SOL    HW161165   1.635  10.238   2.638
19756SOL    HW261166   1.740  10.249   2.746
19757SOL     OW61167   8.953  14.093   5.872
19757SOL    HW161168   8.949  14.096   5.776
19757SOL    HW261169   8.919  14.177   5.900
19758SOL     OW61170  11.445  13.828   2.919
19758SOL    HW161171  11.477  13.767   2.986
19758SOL    HW261172  11.507  13.901   2.924
19759SOL     OW61173  14.381   1.378   3.815
19759SOL    HW161174  14.376   1.414   3.727
19759SOL    HW261175  14.316   1.307   3.816
19760SOL     OW61176   0.680   9.168   8.268
19760SOL    HW161177   0.596   9.127   8.287
19760SOL    HW261178   0.739   9.094   8.253
19761SOL     OW61179  13.317  12.478   3.012
19761SOL    HW161180  13.357  12.409   2.959
19761SOL    HW261181  13.318  12.443   3.102
19762SOL     OW61182  10.905   7.110   6.043
19762SOL    HW161183  10.951   7.194   6.033
19762SOL    HW261184  10.924   7.083   6.133
19763SOL     OW61185   8.442   1.926  12.478
19763SOL    HW161186   8.502   1.904  12.406
19763SOL    HW261187   8.461   2.018  12.496
19764SOL     OW61188   4.033   9.741  10.307
19764SOL    HW161189   4.072   9.654  10.314
19764SOL    HW261190   4.103   9.796  10.273
19765SOL     OW61191   4.396   5.857   6.077
19765SOL    HW161192   4.374   5.899   5.994
19765SOL    HW261193   4.331   5.891   6.139
19766SOL     OW61194   4.864   8.903  11.199
19766SOL    HW161195   4.861   8.819  11.245
19766SOL    HW261196   4.808   8.961  11.252
19767SOL     OW61197   5.265   3.485   3.629
19767SOL    HW161198   5.290   3.576   3.645
19767SOL    HW261199   5.172   3.482   3.651
19768SOL     OW61200  11.345  14.043   3.902
19768SOL    HW161201  11.359  13.983   3.975
19768SOL    HW261202  11.270  14.007   3.854
19769SOL     OW61203   6.505   7.951   0.902
19769SOL    HW161204   6.480   7.895   0.975
19769SOL    HW261205   6.574   8.007   0.938
19770SOL     OW61206   3.304   6.238   2.359
19770SOL    HW161207   3.269   6.227   2.271
19770SOL    HW261208   3.389   6.194   2.357
19771SOL     OW61209   4.893  11.115  13.305
19771SOL    HW161210   4.937  11.065  13.236
19771SOL    HW261211   4.925  11.205  13.293
19772SOL     OW61212   0.243   2.972  11.431
19772SOL    HW161213   0.230   3.015  11.516
19772SOL    HW261214   0.334   2.992  11.408
19773SOL     OW61215   5.934   1.438   0.935
19773SOL    HW161216   5.986   1.481   0.867
19773SOL    HW261217   5.987   1.364   0.964
19774SOL     OW61218  11.547  12.713  11.625
19774SOL    HW161219  11.575  12.691  11.714
19774SOL    HW261220  11.467  12.764  11.637
19775SOL     OW61221  12.524   8.497   7.475
19775SOL    HW161222  12.495   8.408   7.497
19775SOL    HW261223  12.529   8.497   7.379
19776SOL     OW61224   1.317   6.934   9.429
19776SOL    HW161225   1.271   6.993   9.489
19776SOL    HW261226   1.335   6.987   9.352
19777SOL     OW61227   1.151  11.216  11.220
19777SOL    HW161228   1.218  11.252  11.278
19777SOL    HW261229   1.078  11.278  11.226
19778SOL     OW61230  12.224   2.209  13.024
19778SOL    HW161231  12.204   2.125  13.065
19778SOL    HW261232  12.316   2.203  13.000
19779SOL     OW61233   8.106  10.255  11.431
19779SOL    HW161234   8.111  10.262  11.336
19779SOL    HW261235   8.164  10.183  11.453
19780SOL     OW61236  12.378  10.878   0.428
19780SOL    HW161237  12.436  10.895   0.502
19780SOL    HW261238  12.301  10.836   0.466
19781SOL     OW61239   8.495   4.782   7.845
19781SOL    HW161240   8.528   4.771   7.934
19781SOL    HW261241   8.540   4.715   7.794
19782SOL     OW61242   3.154  14.034   5.422
19782SOL    HW161243   3.247  14.030   5.402
19782SOL    HW261244   3.110  14.030   5.337
19783SOL     OW61245   1.320   4.426   1.947
19783SOL    HW161246   1.379   4.352   1.964
19783SOL    HW261247   1.311   4.469   2.032
19784SOL     OW61248  13.812  14.177   3.838
19784SOL    HW161249  13.764  14.094   3.836
19784SOL    HW261250  13.849  14.181   3.926
19785SOL     OW61251   6.974   4.235   9.143
19785SOL    HW161252   6.998   4.228   9.235
19785SOL    HW261253   7.042   4.290   9.104
19786SOL     OW61254   7.519  14.318   9.774
19786SOL    HW161255   7.443  14.346   9.723
19786SOL    HW261256   7.489  14.318   9.865
19787SOL     OW61257   1.721   6.543   2.717
19787SOL    HW161258   1.684   6.507   2.797
19787SOL    HW261259   1.770   6.470   2.678
19788SOL     OW61260  14.567   7.293   7.412
19788SOL    HW161261  14.551   7.369   7.357
19788SOL    HW261262  14.584   7.329   7.500
19789SOL     OW61263  11.813  11.047   9.898
19789SOL    HW161264  11.821  11.047   9.994
19789SOL    HW261265  11.834  10.957   9.872
19790SOL     OW61266   4.159   0.071  11.850
19790SOL    HW161267   4.131   0.048  11.938
19790SOL    HW261268   4.080   0.109  11.810
19791SOL     OW61269   2.799  13.579  13.856
19791SOL    HW161270   2.774  13.515  13.789
19791SOL    HW261271   2.760  13.661  13.828
19792SOL     OW61272   0.920  10.154   6.407
19792SOL    HW161273   0.968  10.203   6.473
19792SOL    HW261274   0.901  10.070   6.449
19793SOL     OW61275  12.393   1.295   6.227
19793SOL    HW161276  12.299   1.307   6.217
19793SOL    HW261277  12.424   1.270   6.140
19794SOL     OW61278   8.955  12.036  10.554
19794SOL    HW161279   9.012  11.963  10.530
19794SOL    HW261280   8.953  12.034  10.650
19795SOL     OW61281   9.770   3.915   5.292
19795SOL    HW161282   9.704   3.967   5.337
19795SOL    HW261283   9.747   3.919   5.200
19796SOL     OW61284  14.109  13.885  12.149
19796SOL    HW161285  14.115  13.891  12.244
19796SOL    HW261286  14.190  13.925  12.117
19797SOL     OW61287  12.307   7.048   6.493
19797SOL    HW161288  12.353   7.121   6.452
19797SOL    HW261289  12.214   7.069   6.481
19798SOL     OW61290   7.311   5.069   5.514
19798SOL    HW161291   7.389   5.074   5.570
19798SOL    HW261292   7.278   5.159   5.511
19799SOL     OW61293  13.990   6.150  10.190
19799SOL    HW161294  13.959   6.074  10.142
19799SOL    HW261295  14.079   6.164  10.158
19800SOL     OW61296   9.313   0.647   9.936
19800SOL    HW161297   9.271   0.669   9.853
19800SOL    HW261298   9.242   0.614   9.991
19801SOL     OW61299  14.829   4.559   2.197
19801SOL    HW161300   0.040   4.608   2.199
19801SOL    HW261301  14.761   4.626   2.203
19802SOL     OW61302  11.063   6.508  10.396
19802SOL    HW161303  11.094   6.418  10.384
19802SOL    HW261304  10.975   6.498  10.431
19803SOL     OW61305   1.973   3.690   3.405
19803SOL    HW161306   1.936   3.778   3.409
19803SOL    HW261307   1.980   3.663   3.496
19804SOL     OW61308   7.417   9.407   4.816
19804SOL    HW161309   7.392   9.494   4.786
19804SOL    HW261310   7.335   9.365   4.839
19805SOL     OW61311  12.144   0.561   8.238
19805SOL    HW161312  12.215   0.625   8.240
19805SOL    HW261313  12.146   0.520   8.325
19806SOL     OW61314   6.863   5.285  10.856
19806SOL    HW161315   6.923   5.217  10.824
19806SOL    HW261316   6.789   5.237  10.892
19807SOL     OW61317  12.609  12.351   8.537
19807SOL    HW161318  12.677  12.358   8.470
19807SOL    HW261319  12.655  12.317   8.614
19808SOL     OW61320  11.661  10.690   1.192
19808SOL    HW161321  11.580  10.733   1.164
19808SOL    HW261322  11.675  10.720   1.282
19809SOL     OW61323   0.160   7.811   3.877
19809SOL    HW161324   0.151   7.906   3.876
19809SOL    HW261325   0.117   7.783   3.957
19810SOL     OW61326  14.707  12.789   1.680
19810SOL    HW161327  14.672  12.868   1.639
19810SOL    HW261328  14.731  12.816   1.769
19811SOL     OW61329   9.740   7.955  12.492
19811SOL    HW161330   9.756   7.910  12.410
19811SOL    HW261331   9.824   7.952  12.538
19812SOL     OW61332   8.886  10.558   2.158
19812SOL    HW161333   8.979  10.538   2.159
19812SOL    HW261334   8.842  10.473   2.152
19813SOL     OW61335   4.013   8.857  14.401
19813SOL    HW161336   4.071   8.877  14.475
19813SOL    HW261337   4.010   8.761  14.399
19814SOL     OW61338   8.502   3.803  14.828
19814SOL    HW161339   8.550   3.883  14.849
19814SOL    HW261340   8.569   3.742  14.797
19815SOL     OW61341   5.992   9.356   4.620
19815SOL    HW161342   6.065   9.296   4.633
19815SOL    HW261343   5.981   9.400   4.705
19816SOL     OW61344   5.567   5.907  14.544
19816SOL    HW161345   5.586   5.864  14.461
19816SOL    HW261346   5.652   5.922  14.584
19817SOL     OW61347   2.108   9.169  10.550
19817SOL    HW161348   2.177   9.150  10.486
19817SOL    HW261349   2.150   9.153  10.635
19818SOL     OW61350   7.141  14.449   7.052
19818SOL    HW161351   7.074  14.444   6.984
19818SOL    HW261352   7.196  14.523   7.027
19819SOL     OW61353  14.259  12.247   8.930
19819SOL    HW161354  14.177  12.295   8.945
19819SOL    HW261355  14.326  12.315   8.927
19820SOL     OW61356   5.904  11.128   8.562
19820SOL    HW161357   5.965  11.054   8.560
19820SOL    HW261358   5.859  11.119   8.646
19821SOL     OW61359   3.252   0.503  10.969
19821SOL    HW161360   3.335   0.550  10.977
19821SOL    HW261361   3.272   0.413  10.992
19822SOL     OW61362   0.880   0.214   4.144
19822SOL    HW161363   0.810   0.161   4.183
19822SOL    HW261364   0.840   0.300   4.130
19823SOL     OW61365   3.400   6.833   4.368
19823SOL    HW161366   3.434   6.750   4.334
19823SOL    HW261367   3.456   6.900   4.328
19824SOL     OW61368  12.699   2.756   8.388
19824SOL    HW161369  12.680   2.662   8.395
19824SOL    HW261370  12.774   2.769   8.447
19825SOL     OW61371   4.926   5.598   0.350
19825SOL    HW161372   5.002   5.602   0.409
19825SOL    HW261373   4.938   5.517   0.302
19826SOL     OW61374   5.584  13.552  10.041
19826SOL    HW161375   5.629  13.504   9.971
19826SOL    HW261376   5.603  13.501  10.120
19827SOL     OW61377   5.061  10.694  13.641
19827SOL    HW161378   5.018  10.610  13.661
19827SOL    HW261379   5.073  10.692  13.546
19828SOL     OW61380   0.423   5.622   6.566
19828SOL    HW161381   0.432   5.675   6.644
19828SOL    HW261382   0.429   5.531   6.597
19829SOL     OW61383   7.110   9.759  13.076
19829SOL    HW161384   7.172   9.799  13.137
19829SOL    HW261385   7.157   9.755  12.993
19830SOL     OW61386   2.414  14.815   6.091
19830SOL    HW161387   2.502  14.844   6.115
19830SOL    HW261388   2.404  14.731   6.138
19831SOL     OW61389  11.686   3.414   6.516
19831SOL    HW161390  11.687   3.418   6.420
19831SOL    HW261391  11.606   3.365   6.537
19832SOL     OW61392  14.819   6.727   8.588
19832SOL    HW161393  14.795   6.723   8.681
19832SOL    HW261394  14.740   6.699   8.541
19833SOL     OW61395  10.640  14.431   2.589
19833SOL    HW161396  10.577  14.368   2.625
19833SOL    HW261397  10.591  14.478   2.522
19834SOL     OW61398   0.435  11.252   3.673
19834SOL    HW161399   0.500  11.315   3.705
19834SOL    HW261400   0.434  11.184   3.740
19835SOL     OW61401   3.366  12.722  14.406
19835SOL    HW161402   3.393  12.812  14.386
19835SOL    HW261403   3.407  12.703  14.490
19836SOL     OW61404  11.216  13.497   0.883
19836SOL    HW161405  11.183  13.409   0.903
19836SOL    HW261406  11.232  13.495   0.788
19837SOL     OW61407   4.499   2.608   0.823
19837SOL    HW161408   4.451   2.526   0.833
19837SOL    HW261409   4.446   2.659   0.761
19838SOL     OW61410   8.387  12.954   5.296
19838SOL    HW161411   8.415  13.019   5.231
19838SOL    HW261412   8.427  12.872   5.266
19839SOL     OW61413   5.376   5.988   4.448
19839SOL    HW161414   5.319   6.060   4.477
19839SOL    HW261415   5.367   5.987   4.352
19840SOL     OW61416   4.235   9.849   4.367
19840SOL    HW161417   4.240   9.769   4.419
19840SOL    HW261418   4.255   9.919   4.430
19841SOL     OW61419   3.561   5.429   1.730
19841SOL    HW161420   3.655   5.434   1.747
19841SOL    HW261421   3.530   5.519   1.743
19842SOL     OW61422   1.327   8.943   6.773
19842SOL    HW161423   1.243   8.907   6.743
19842SOL    HW261424   1.328   8.923   6.867
19843SOL     OW61425   9.468   1.075  13.158
19843SOL    HW161426   9.499   1.155  13.201
19843SOL    HW261427   9.516   1.072  13.076
19844SOL     OW61428  11.616   1.808   4.351
19844SOL    HW161429  11.670   1.821   4.274
19844SOL    HW261430  11.654   1.732   4.395
19845SOL     OW61431   7.326   7.709   7.772
19845SOL    HW161432   7.359   7.780   7.826
19845SOL    HW261433   7.306   7.750   7.688
19846SOL     OW61434   3.180  10.785   2.479
19846SOL    HW161435   3.274  10.783   2.462
19846SOL    HW261436   3.161  10.876   2.501
19847SOL     OW61437   6.279   7.738   7.871
19847SOL    HW161438   6.320   7.824   7.861
19847SOL    HW261439   6.281   7.700   7.783
19848SOL     OW61440  11.580   6.955   5.579
19848SOL    HW161441  11.607   6.867   5.605
19848SOL    HW261442  11.556   6.998   5.662
19849SOL     OW61443   5.742   2.408   7.887
19849SOL    HW161444   5.808   2.382   7.822
19849SOL    HW261445   5.726   2.329   7.939
19850SOL     OW61446   8.196   8.572  14.714
19850SOL    HW161447   8.255   8.625  14.768
19850SOL    HW261448   8.250   8.498  14.685
19851SOL     OW61449   4.570   3.088   4.932
19851SOL    HW161450   4.640   3.153   4.941
19851SOL    HW261451   4.611   3.006   4.959
19852SOL     OW61452  10.233   1.781  13.296
19852SOL    HW161453  10.167   1.849  13.310
19852SOL    HW261454  10.187   1.699  13.316
19853SOL     OW61455  10.018  10.984   4.942
19853SOL    HW161456  10.049  10.948   4.858
19853SOL    HW261457   9.937  10.937   4.960
19854SOL     OW61458   5.748   5.637   1.419
19854SOL    HW161459   5.675   5.682   1.375
19854SOL    HW261460   5.826   5.672   1.376
19855SOL     OW61461  12.985   8.186   8.204
19855SOL    HW161462  13.018   8.274   8.223
19855SOL    HW261463  13.064   8.134   8.189
19856SOL     OW61464  14.259   5.079   4.948
19856SOL    HW161465  14.226   5.006   4.896
19856SOL    HW261466  14.354   5.076   4.938
19857SOL     OW61467   3.225   1.918   0.018
19857SOL    HW161468   3.260   1.882  14.808
19857SOL    HW261469   3.196   1.841   0.068
19858SOL     OW61470   2.827  10.363   8.905
19858SOL    HW161471   2.902  10.410   8.942
19858SOL    HW261472   2.775  10.432   8.863
19859SOL     OW61473   5.018  12.812  12.715
19859SOL    HW161474   5.077  12.884  12.695
19859SOL    HW261475   5.063  12.733  12.685
19860SOL     OW61476   4.370   7.836   9.058
19860SOL    HW161477   4.313   7.784   9.000
19860SOL    HW261478   4.376   7.921   9.015
19861SOL     OW61479   0.383   5.390   9.551
19861SOL    HW161480   0.341   5.305   9.564
19861SOL    HW261481   0.353   5.418   9.464
19862SOL     OW61482   6.525   5.083   4.932
19862SOL    HW161483   6.454   5.019   4.931
19862SOL    HW261484   6.548   5.093   5.024
19863SOL     OW61485   1.590  11.637  14.102
19863SOL    HW161486   1.641  11.591  14.035
19863SOL    HW261487   1.655  11.669  14.164
19864SOL     OW61488   3.264  10.838   1.578
19864SOL    HW161489   3.313  10.791   1.644
19864SOL    HW261490   3.274  10.786   1.498
19865SOL     OW61491   4.445   6.512   3.617
19865SOL    HW161492   4.457   6.508   3.712
19865SOL    HW261493   4.365   6.463   3.601
19866SOL     OW61494   5.508   9.262  11.461
19866SOL    HW161495   5.511   9.313  11.380
19866SOL    HW261496   5.483   9.324  11.529
19867SOL     OW61497   6.667  12.070   0.028
19867SOL    HW161498   6.608  12.145   0.026
19867SOL    HW261499   6.706  12.072   0.115
19868SOL     OW61500   4.679   4.653   1.613
19868SOL    HW161501   4.653   4.565   1.589
19868SOL    HW261502   4.608   4.709   1.581
19869SOL     OW61503  10.306  12.377   8.293
19869SOL    HW161504  10.312  12.341   8.382
19869SOL    HW261505  10.276  12.467   8.306
19870SOL     OW61506   0.060   3.705   7.994
19870SOL    HW161507   0.044   3.768   8.064
19870SOL    HW261508   0.087   3.625   8.040
19871SOL     OW61509   7.390  13.493   3.157
19871SOL    HW161510   7.305  13.452   3.172
19871SOL    HW261511   7.450  13.449   3.218
19872SOL     OW61512   6.157   9.327   8.247
19872SOL    HW161513   6.220   9.390   8.281
19872SOL    HW261514   6.162   9.338   8.152
19873SOL     OW61515  14.269  13.980  12.417
19873SOL    HW161516  14.363  13.963  12.415
19873SOL    HW261517  14.254  14.025  12.500
19874SOL     OW61518   4.046   1.749   2.602
19874SOL    HW161519   3.964   1.770   2.647
19874SOL    HW261520   4.029   1.666   2.557
19875SOL     OW61521   7.743   5.444   8.795
19875SOL    HW161522   7.705   5.357   8.802
19875SOL    HW261523   7.835   5.429   8.776
19876SOL     OW61524  13.785   5.100   5.339
19876SOL    HW161525  13.760   5.091   5.431
19876SOL    HW261526  13.843   5.025   5.323
19877SOL     OW61527   8.077   6.046   5.741
19877SOL    HW161528   8.164   6.024   5.777
19877SOL    HW261529   8.094   6.064   5.649
19878SOL     OW61530   0.003   7.832   9.163
19878SOL    HW161531   0.052   7.852   9.243
19878SOL    HW261532  14.809   7.901   9.157
19879SOL     OW61533   1.320  10.224   6.739
19879SOL    HW161534   1.355  10.142   6.704
19879SOL    HW261535   1.238  10.237   6.691
19880SOL     OW61536  11.019   7.857  14.214
19880SOL    HW161537  11.106   7.898  14.209
19880SOL    HW261538  11.035   7.772  14.254
19881SOL     OW61539  11.232   7.836  11.236
19881SOL    HW161540  11.149   7.793  11.215
19881SOL    HW261541  11.241   7.904  11.170
19882SOL     OW61542   1.710   9.205   1.737
19882SOL    HW161543   1.757   9.231   1.816
19882SOL    HW261544   1.769   9.142   1.694
19883SOL     OW61545  12.463   9.909  11.730
19883SOL    HW161546  12.530   9.855  11.771
19883SOL    HW261547  12.489   9.912  11.637
19884SOL     OW61548   1.516   4.527  10.080
19884SOL    HW161549   1.456   4.579  10.133
19884SOL    HW261550   1.590   4.508  10.138
19885SOL     OW61551   3.566   7.370  14.279
19885SOL    HW161552   3.630   7.310  14.318
19885SOL    HW261553   3.573   7.450  14.331
19886SOL     OW61554   2.890   3.813   6.034
19886SOL    HW161555   2.917   3.904   6.044
19886SOL    HW261556   2.796   3.816   6.020
19887SOL     OW61557   5.850  10.373   8.219
19887SOL    HW161558   5.890  10.368   8.306
19887SOL    HW261559   5.805  10.457   8.219
19888SOL     OW61560  12.347   5.626  12.285
19888SOL    HW161561  12.287   5.698  12.300
19888SOL    HW261562  12.409   5.659  12.220
19889SOL     OW61563   1.212  14.267   8.888
19889SOL    HW161564   1.130  14.246   8.933
19889SOL    HW261565   1.214  14.207   8.813
19890SOL     OW61566   6.038   0.746   6.153
19890SOL    HW161567   5.950   0.778   6.170
19890SOL    HW261568   6.044   0.742   6.057
19891SOL     OW61569   9.291   5.142   7.737
19891SOL    HW161570   9.304   5.193   7.657
19891SOL    HW261571   9.300   5.205   7.808
19892SOL     OW61572   6.527   9.713   4.583
19892SOL    HW161573   6.552   9.733   4.492
19892SOL    HW261574   6.600   9.662   4.617
19893SOL     OW61575   0.580  10.349   8.818
19893SOL    HW161576   0.543  10.268   8.784
19893SOL    HW261577   0.512  10.415   8.802
19894SOL     OW61578   8.283   5.016   6.999
19894SOL    HW161579   8.193   5.046   7.012
19894SOL    HW261580   8.330   5.094   6.971
19895SOL     OW61581  10.219  10.314  13.978
19895SOL    HW161582  10.221  10.321  13.883
19895SOL    HW261583  10.186  10.399  14.008
19896SOL     OW61584   0.027   6.804   5.439
19896SOL    HW161585  14.845   6.750   5.496
19896SOL    HW261586   0.057   6.876   5.494
19897SOL     OW61587  14.613   2.360  12.813
19897SOL    HW161588  14.530   2.385  12.853
19897SOL    HW261589  14.624   2.268  12.835
19898SOL     OW61590  10.040   9.395  13.483
19898SOL    HW161591  10.083   9.462  13.429
19898SOL    HW261592  10.012   9.329  13.421
19899SOL     OW61593   4.351   1.791  10.628
19899SOL    HW161594   4.400   1.837  10.696
19899SOL    HW261595   4.328   1.707  10.668
19900SOL     OW61596   2.445  11.535   6.612
19900SOL    HW161597   2.436  11.630   6.616
19900SOL    HW261598   2.461  11.508   6.703
19901SOL     OW61599  11.273  10.845   3.012
19901SOL    HW161600  11.196  10.878   3.060
19901SOL    HW261601  11.320  10.923   2.984
19902SOL     OW61602   3.302  10.106   9.313
19902SOL    HW161603   3.346  10.177   9.361
19902SOL    HW261604   3.226  10.084   9.367
19903SOL     OW61605   6.090   7.215  14.132
19903SOL    HW161606   6.028   7.206  14.060
19903SOL    HW261607   6.159   7.272  14.097
19904SOL     OW61608   0.198   7.677   2.750
19904SOL    HW161609   0.227   7.762   2.718
19904SOL    HW261610   0.164   7.694   2.837
19905SOL     OW61611   0.748   2.908   4.364
19905SOL    HW161612   0.719   2.831   4.413
19905SOL    HW261613   0.700   2.981   4.403
19906SOL     OW61614  11.673   2.374  10.409
19906SOL    HW161615  11.714   2.452  10.447
19906SOL    HW261616  11.746   2.317  10.388
19907SOL     OW61617   2.152   6.801  14.597
19907SOL    HW161618   2.116   6.720  14.561
19907SOL    HW261619   2.076   6.845  14.636
19908SOL     OW61620   8.804   9.096   6.187
19908SOL    HW161621   8.812   9.086   6.093
19908SOL    HW261622   8.769   9.184   6.200
19909SOL     OW61623   5.645   7.441  12.429
19909SOL    HW161624   5.641   7.505  12.499
19909SOL    HW261625   5.693   7.485  12.358
19910SOL     OW61626   3.478   2.477   9.566
19910SOL    HW161627   3.545   2.473   9.634
19910SOL    HW261628   3.494   2.560   9.521
19911SOL     OW61629  11.869   5.117   5.287
19911SOL    HW161630  11.796   5.176   5.304
19911SOL    HW261631  11.864   5.052   5.357
19912SOL     OW61632   6.639   1.512   0.941
19912SOL    HW161633   6.697   1.436   0.948
19912SOL    HW261634   6.558   1.484   0.983
19913SOL     OW61635   0.098   2.228   6.458
19913SOL    HW161636   0.006   2.214   6.481
19913SOL    HW261637   0.136   2.140   6.457
19914SOL     OW61638   2.358   8.743  10.264
19914SOL    HW161639   2.297   8.676  10.232
19914SOL    HW261640   2.395   8.705  10.344
19915SOL     OW61641   1.022   9.499  11.128
19915SOL    HW161642   1.028   9.518  11.222
19915SOL    HW261643   1.111   9.510  11.095
19916SOL     OW61644  11.616  11.973   0.870
19916SOL    HW161645  11.648  11.942   0.955
19916SOL    HW261646  11.580  11.895   0.828
19917SOL     OW61647   3.375   2.587   7.407
19917SOL    HW161648   3.457   2.637   7.406
19917SOL    HW261649   3.309   2.649   7.378
19918SOL     OW61650  14.544   6.744   0.310
19918SOL    HW161651  14.542   6.680   0.239
19918SOL    HW261652  14.543   6.692   0.390
19919SOL     OW61653   3.754  12.096   1.725
19919SOL    HW161654   3.744  12.183   1.685
19919SOL    HW261655   3.760  12.036   1.651
19920SOL     OW61656  13.365  12.051  12.253
19920SOL    HW161657  13.456  12.043  12.225
19920SOL    HW261658  13.364  12.022  12.344
19921SOL     OW61659  11.527   0.069   2.151
19921SOL    HW161660  11.484   0.136   2.204
19921SOL    HW261661  11.498   0.085   2.062
19922SOL     OW61662  11.095   2.649  10.656
19922SOL    HW161663  11.173   2.695  10.686
19922SOL    HW261664  11.123   2.558  10.647
19923SOL     OW61665   7.717   5.895   3.987
19923SOL    HW161666   7.722   5.984   3.951
19923SOL    HW261667   7.737   5.838   3.913
19924SOL     OW61668  10.522   1.197   5.037
19924SOL    HW161669  10.548   1.288   5.027
19924SOL    HW261670  10.596   1.155   5.080
19925SOL     OW61671   8.891   7.498   1.362
19925SOL    HW161672   8.894   7.445   1.282
19925SOL    HW261673   8.973   7.547   1.362
19926SOL     OW61674   6.494   7.595  11.467
19926SOL    HW161675   6.487   7.595  11.372
19926SOL    HW261676   6.543   7.675  11.487
19927SOL     OW61677   4.672   9.526   0.834
19927SOL    HW161678   4.742   9.584   0.806
19927SOL    HW261679   4.592   9.570   0.806
19928SOL     OW61680   4.586   8.421  13.034
19928SOL    HW161681   4.603   8.398  12.943
19928SOL    HW261682   4.543   8.506  13.029
19929SOL     OW61683  11.017   7.064  12.998
19929SOL    HW161684  10.964   7.127  12.950
19929SOL    HW261685  10.990   7.075  13.089
19930SOL     OW61686  13.749   2.133   7.580
19930SOL    HW161687  13.769   2.154   7.671
19930SOL    HW261688  13.693   2.205   7.550
19931SOL     OW61689  14.409  11.154   5.057
19931SOL    HW161690  14.398  11.233   5.003
19931SOL    HW261691  14.498  11.161   5.091
19932SOL     OW61692   2.038  12.847   2.212
19932SOL    HW161693   2.113  12.907   2.211
19932SOL    HW261694   1.967  12.898   2.172
19933SOL     OW61695  10.554   1.616   1.867
19933SOL    HW161696  10.491   1.635   1.936
19933SOL    HW261697  10.573   1.701   1.827
19934SOL     OW61698   4.920   5.024   7.084
19934SOL    HW161699   4.941   4.997   6.995
19934SOL    HW261700   4.946   4.949   7.138
19935SOL     OW61701  13.195   7.326   9.153
19935SOL    HW161702  13.121   7.335   9.094
19935SOL    HW261703  13.223   7.416   9.172
19936SOL     OW61704  13.028  11.041   2.926
19936SOL    HW161705  12.955  11.018   2.868
19936SOL    HW261706  13.087  11.091   2.871
19937SOL     OW61707  12.413  14.754   0.596
19937SOL    HW161708  12.426  14.736   0.689
19937SOL    HW261709  12.322  14.729   0.579
19938SOL     OW61710   5.396  13.195  12.705
19938SOL    HW161711   5.455  13.158  12.640
19938SOL    HW261712   5.447  13.199  12.786
19939SOL     OW61713  10.422  11.248   5.934
19939SOL    HW161714  10.380  11.187   5.994
19939SOL    HW261715  10.516  11.236   5.948
19940SOL     OW61716  13.055   0.525   0.389
19940SOL    HW161717  12.984   0.461   0.391
19940SOL    HW261718  13.020   0.601   0.435
19941SOL     OW61719   9.439  13.409  14.465
19941SOL    HW161720   9.385  13.488  14.460
19941SOL    HW261721   9.445  13.378  14.375
19942SOL     OW61722  12.396   8.069  11.666
19942SOL    HW161723  12.378   8.138  11.603
19942SOL    HW261724  12.325   8.006  11.654
19943SOL     OW61725   4.406   6.122   6.876
19943SOL    HW161726   4.477   6.058   6.865
19943SOL    HW261727   4.326   6.073   6.855
19944SOL     OW61728   4.240  11.105   4.795
19944SOL    HW161729   4.260  11.177   4.735
19944SOL    HW261730   4.179  11.049   4.747
19945SOL     OW61731  13.324  12.577   9.978
19945SOL    HW161732  13.298  12.488   9.954
19945SOL    HW261733  13.343  12.573  10.071
19946SOL     OW61734   1.597  13.241  12.363
19946SOL    HW161735   1.680  13.235  12.410
19946SOL    HW261736   1.536  13.280  12.427
19947SOL     OW61737  10.839   9.390   4.040
19947SOL    HW161738  10.862   9.354   4.126
19947SOL    HW261739  10.758   9.438   4.054
19948SOL     OW61740   2.808   8.478  11.629
19948SOL    HW161741   2.717   8.451  11.616
19948SOL    HW261742   2.802   8.562  11.675
19949SOL     OW61743   9.615   6.505   6.553
19949SOL    HW161744   9.636   6.423   6.508
19949SOL    HW261745   9.651   6.574   6.496
19950SOL     OW61746   2.393   2.937  14.101
19950SOL    HW161747   2.372   2.868  14.038
19950SOL    HW261748   2.405   3.015  14.047
19951SOL     OW61749  13.589  14.455  10.272
19951SOL    HW161750  13.525  14.466  10.342
19951SOL    HW261751  13.652  14.392  10.307
19952SOL     OW61752   3.780  13.406   9.546
19952SOL    HW161753   3.846  13.343   9.517
19952SOL    HW261754   3.734  13.361   9.617
19953SOL     OW61755  10.731   1.233  10.318
19953SOL    HW161756  10.789   1.309  10.313
19953SOL    HW261757  10.646   1.264  10.287
19954SOL     OW61758   6.875  11.139   3.012
19954SOL    HW161759   6.881  11.069   2.947
19954SOL    HW261760   6.952  11.194   2.996
19955SOL     OW61761   0.032   4.919   5.629
19955SOL    HW161762   0.050   5.011   5.610
19955SOL    HW261763  14.838   4.894   5.565
19956SOL     OW61764   3.852   9.642   7.453
19956SOL    HW161765   3.809   9.623   7.536
19956SOL    HW261766   3.911   9.568   7.438
19957SOL     OW61767   3.654   9.207  11.894
19957SOL    HW161768   3.569   9.246  11.872
19957SOL    HW261769   3.673   9.240  11.982
19958SOL     OW61770   5.473  14.008   7.370
19958SOL    HW161771   5.398  13.974   7.418
19958SOL    HW261772   5.514  13.931   7.332
19959SOL     OW61773  13.448   7.024  10.087
19959SOL    HW161774  13.371   7.026  10.144
19959SOL    HW261775  13.514   6.975  10.136
19960SOL     OW61776   0.035   0.354   2.793
19960SOL    HW161777   0.058   0.399   2.875
19960SOL    HW261778  14.871   0.270   2.821
19961SOL     OW61779  12.448   8.529   8.742
19961SOL    HW161780  12.539   8.507   8.763
19961SOL    HW261781  12.454   8.614   8.699
19962SOL     OW61782   1.468  12.384  13.937
19962SOL    HW161783   1.375  12.377  13.915
19962SOL    HW261784   1.477  12.472  13.974
19963SOL     OW61785   5.334   4.391   3.192
19963SOL    HW161786   5.261   4.361   3.246
19963SOL    HW261787   5.382   4.311   3.170
19964SOL     OW61788   3.416   6.636   0.924
19964SOL    HW161789   3.466   6.713   0.952
19964SOL    HW261790   3.481   6.575   0.891
19965SOL     OW61791   3.648   7.637  10.598
19965SOL    HW161792   3.705   7.694  10.547
19965SOL    HW261793   3.704   7.564  10.623
19966SOL     OW61794   7.471   9.673   8.314
19966SOL    HW161795   7.466   9.591   8.363
19966SOL    HW261796   7.541   9.723   8.356
19967SOL     OW61797   1.019   5.443   0.346
19967SOL    HW161798   1.108   5.470   0.364
19967SOL    HW261799   1.025   5.391   0.266
19968SOL     OW61800   9.562   9.410  11.663
19968SOL    HW161801   9.494   9.363  11.712
19968SOL    HW261802   9.594   9.477  11.724
19969SOL     OW61803   5.870   0.839   2.892
19969SOL    HW161804   5.829   0.894   2.959
19969SOL    HW261805   5.941   0.795   2.938
19970SOL     OW61806   4.642  11.913   3.135
19970SOL    HW161807   4.684  11.985   3.183
19970SOL    HW261808   4.604  11.858   3.204
19971SOL     OW61809  11.363   4.771   6.212
19971SOL    HW161810  11.344   4.846   6.268
19971SOL    HW261811  11.286   4.761   6.157
19972SOL     OW61812   0.440   2.563  13.015
19972SOL    HW161813   0.452   2.588  13.106
19972SOL    HW261814   0.376   2.492  13.018
19973SOL     OW61815   3.701   4.925   8.132
19973SOL    HW161816   3.716   4.883   8.047
19973SOL    HW261817   3.620   4.974   8.120
19974SOL     OW61818   7.873   8.471   4.404
19974SOL    HW161819   7.875   8.567   4.397
19974SOL    HW261820   7.800   8.445   4.348
19975SOL     OW61821  11.658  13.649  11.544
19975SOL    HW161822  11.636  13.704  11.620
19975SOL    HW261823  11.673  13.712  11.473
19976SOL     OW61824   1.485   8.018   7.658
19976SOL    HW161825   1.510   7.926   7.658
19976SOL    HW261826   1.470   8.039   7.566
19977SOL     OW61827  10.320  10.003   5.890
19977SOL    HW161828  10.371  10.084   5.889
19977SOL    HW261829  10.335   9.966   5.977
19978SOL     OW61830  11.604   2.527  12.549
19978SOL    HW161831  11.602   2.462  12.479
19978SOL    HW261832  11.515   2.562  12.552
19979SOL     OW61833  14.076   1.006  14.135
19979SOL    HW161834  14.030   1.074  14.184
19979SOL    HW261835  14.075   0.929  14.192
19980SOL     OW61836   6.793  14.673   1.776
19980SOL    HW161837   6.877  14.706   1.743
19980SOL    HW261838   6.765  14.608   1.711
19981SOL     OW61839   2.654   5.149   2.806
19981SOL    HW161840   2.637   5.139   2.899
19981SOL    HW261841   2.743   5.182   2.801
19982SOL     OW61842   3.934  11.569   0.478
19982SOL    HW161843   3.984  11.504   0.429
19982SOL    HW261844   3.846  11.531   0.484
19983SOL     OW61845  11.378   8.881   2.972
19983SOL    HW161846  11.332   8.878   3.056
19983SOL    HW261847  11.308   8.888   2.906
19984SOL     OW61848   4.217  14.191   1.197
19984SOL    HW161849   4.267  14.272   1.191
19984SOL    HW261850   4.225  14.151   1.110
19985SOL     OW61851   3.158  14.514  13.562
19985SOL    HW161852   3.230  14.459  13.592
19985SOL    HW261853   3.174  14.525  13.469
19986SOL     OW61854   8.993   2.788   5.703
19986SOL    HW161855   8.939   2.771   5.625
19986SOL    HW261856   9.080   2.805   5.668
19987SOL     OW61857  10.560   6.206   2.209
19987SOL    HW161858  10.542   6.135   2.271
19987SOL    HW261859  10.620   6.168   2.145
19988SOL     OW61860  14.802   2.865   3.584
19988SOL    HW161861  14.789   2.801   3.653
19988SOL    HW261862  14.871   2.923   3.617
19989SOL     OW61863   8.131  10.522   3.743
19989SOL    HW161864   8.115  10.497   3.834
19989SOL    HW261865   8.044  10.529   3.705
19990SOL     OW61866   8.920  14.601  13.474
19990SOL    HW161867   8.896  14.622  13.565
19990SOL    HW261868   8.905  14.683  13.426
19991SOL     OW61869   8.390   9.778   6.406
19991SOL    HW161870   8.478   9.742   6.409
19991SOL    HW261871   8.339   9.723   6.466
19992SOL     OW61872   5.518   0.820   3.528
19992SOL    HW161873   5.445   0.773   3.568
19992SOL    HW261874   5.478   0.875   3.461
19993SOL     OW61875  11.491   6.209   4.921
19993SOL    HW161876  11.427   6.227   4.852
19993SOL    HW261877  11.445   6.231   5.002
19994SOL     OW61878   3.152  13.384   0.524
19994SOL    HW161879   3.125  13.300   0.559
19994SOL    HW261880   3.218  13.363   0.458
19995SOL     OW61881   2.643   1.002  14.132
19995SOL    HW161882   2.655   1.046  14.048
19995SOL    HW261883   2.682   1.061  14.196
19996SOL     OW61884  13.228   6.552  10.828
19996SOL    HW161885  13.308   6.505  10.804
19996SOL    HW261886  13.222   6.541  10.923
19997SOL     OW61887  13.841  12.180   7.840
19997SOL    HW161888  13.887  12.238   7.900
19997SOL    HW261889  13.856  12.218   7.753
19998SOL     OW61890   5.538  13.042  14.082
19998SOL    HW161891   5.572  13.052  14.171
19998SOL    HW261892   5.443  13.053  14.091
19999SOL     OW61893  12.499   1.199   0.729
19999SOL    HW161894  12.439   1.195   0.654
19999SOL    HW261895  12.522   1.292   0.735
20000SOL     OW61896   1.740   8.408  10.629
20000SOL    HW161897   1.694   8.389  10.547
20000SOL    HW261898   1.719   8.334  10.685
20001SOL     OW61899   8.501   9.968   5.012
20001SOL    HW161900   8.477  10.045   5.065
20001SOL    HW261901   8.421   9.945   4.965
20002SOL     OW61902  14.066  13.338  14.642
20002SOL    HW161903  14.013  13.264  14.672
20002SOL    HW261904  14.021  13.369  14.564
20003SOL     OW61905   3.630   6.873   5.736
20003SOL    HW161906   3.547   6.889   5.692
20003SOL    HW261907   3.631   6.778   5.752
20004SOL     OW61908   0.691   0.758   6.475
20004SOL    HW161909   0.688   0.677   6.423
20004SOL    HW261910   0.637   0.740   6.551
20005SOL     OW61911   3.919   9.384   0.259
20005SOL    HW161912   3.924   9.479   0.261
20005SOL    HW261913   3.826   9.365   0.248
20006SOL     OW61914  11.288  11.605   8.037
20006SOL    HW161915  11.354  11.657   8.082
20006SOL    HW261916  11.283  11.642   7.949
20007SOL     OW61917   7.334   7.956   4.803
20007SOL    HW161918   7.413   7.998   4.771
20007SOL    HW261919   7.300   7.906   4.728
20008SOL     OW61920   0.836   4.446  12.751
20008SOL    HW161921   0.762   4.386  12.748
20008SOL    HW261922   0.887   4.426  12.672
20009SOL     OW61923   3.228  14.354  10.451
20009SOL    HW161924   3.161  14.418  10.477
20009SOL    HW261925   3.255  14.382  10.364
20010SOL     OW61926   7.901   8.370   2.464
20010SOL    HW161927   7.879   8.314   2.390
20010SOL    HW261928   7.871   8.457   2.439
20011SOL     OW61929   9.518   4.499   8.355
20011SOL    HW161930   9.424   4.505   8.338
20011SOL    HW261931   9.540   4.582   8.397
20012SOL     OW61932   9.044   7.998   4.292
20012SOL    HW161933   9.013   8.020   4.204
20012SOL    HW261934   9.002   7.915   4.313
20013SOL     OW61935   1.974  13.403  11.305
20013SOL    HW161936   2.046  13.465  11.292
20013SOL    HW261937   1.953  13.409  11.398
20014SOL     OW61938   0.844   9.684   1.134
20014SOL    HW161939   0.831   9.591   1.150
20014SOL    HW261940   0.874   9.690   1.044
20015SOL     OW61941  14.070   4.403   8.777
20015SOL    HW161942  14.020   4.421   8.698
20015SOL    HW261943  14.005   4.377   8.842
20016SOL     OW61944   9.332   3.298   2.547
20016SOL    HW161945   9.259   3.359   2.554
20016SOL    HW261946   9.388   3.319   2.621
20017SOL     OW61947  11.609   0.487   0.967
20017SOL    HW161948  11.618   0.473   0.873
20017SOL    HW261949  11.514   0.485   0.982
20018SOL     OW61950  14.747   8.108   2.099
20018SOL    HW161951  14.783   8.072   2.180
20018SOL    HW261952  14.703   8.189   2.126
20019SOL     OW61953   7.276   8.558   5.538
20019SOL    HW161954   7.371   8.547   5.528
20019SOL    HW261955   7.245   8.575   5.449
20020SOL     OW61956  11.284   0.899   5.960
20020SOL    HW161957  11.318   0.862   5.878
20020SOL    HW261958  11.191   0.913   5.942
20021SOL     OW61959   1.407  14.090   4.861
20021SOL    HW161960   1.349  14.141   4.804
20021SOL    HW261961   1.491  14.089   4.815
20022SOL     OW61962   0.447   0.130   3.846
20022SOL    HW161963   0.465   0.171   3.761
20022SOL    HW261964   0.517   0.066   3.857
20023SOL     OW61965   0.293   3.096   2.287
20023SOL    HW161966   0.349   3.171   2.269
20023SOL    HW261967   0.284   3.095   2.382
20024SOL     OW61968   9.788   0.722  10.767
20024SOL    HW161969   9.828   0.751  10.849
20024SOL    HW261970   9.817   0.786  10.702
20025SOL     OW61971  12.050   5.221   5.116
20025SOL    HW161972  12.016   5.295   5.066
20025SOL    HW261973  11.976   5.191   5.169
20026SOL     OW61974   0.972   5.511   3.973
20026SOL    HW161975   0.969   5.531   3.879
20026SOL    HW261976   0.881   5.517   4.001
20027SOL     OW61977  11.388  14.435   7.322
20027SOL    HW161978  11.422  14.345   7.325
20027SOL    HW261979  11.356  14.450   7.411
20028SOL     OW61980   9.095   8.399  10.010
20028SOL    HW161981   9.006   8.427   9.988
20028SOL    HW261982   9.091   8.377  10.103
20029SOL     OW61983   1.149   7.259  11.435
20029SOL    HW161984   1.159   7.180  11.488
20029SOL    HW261985   1.106   7.322  11.492
20030SOL     OW61986   8.185   9.993  13.592
20030SOL    HW161987   8.233   9.962  13.515
20030SOL    HW261988   8.243  10.057  13.633
20031SOL     OW61989   7.655   2.062  10.749
20031SOL    HW161990   7.727   2.018  10.794
20031SOL    HW261991   7.697   2.133  10.700
20032SOL     OW61992   3.009   6.222   7.037
20032SOL    HW161993   3.092   6.206   6.991
20032SOL    HW261994   2.958   6.276   6.976
20033SOL     OW61995   9.767   8.864   6.948
20033SOL    HW161996   9.830   8.930   6.978
20033SOL    HW261997   9.682   8.908   6.954
20034SOL     OW61998   1.609   1.276  13.721
20034SOL    HW161999   1.528   1.224  13.730
20034SOL    HW262000   1.579   1.367  13.719
20035SOL     OW62001  12.734   3.863   3.434
20035SOL    HW162002  12.775   3.939   3.393
20035SOL    HW262003  12.807   3.803   3.451
20036SOL     OW62004  10.723   2.028  14.822
20036SOL    HW162005  10.671   2.109  14.818
20036SOL    HW262006  10.672   1.970   0.007
20037SOL     OW62007  14.411   9.125   7.858
20037SOL    HW162008  14.388   9.208   7.816
20037SOL    HW262009  14.503   9.135   7.883
20038SOL     OW62010   5.170  14.783  12.716
20038SOL    HW162011   5.165   0.006  12.704
20038SOL    HW262012   5.251  14.757  12.672
20039SOL     OW62013   8.302   9.535   8.462
20039SOL    HW162014   8.272   9.453   8.503
20039SOL    HW262015   8.289   9.521   8.369
20040SOL     OW62016   3.238   6.751  11.477
20040SOL    HW162017   3.334   6.749  11.480
20040SOL    HW262018   3.214   6.683  11.414
20041SOL     OW62019   6.951   5.254   3.312
20041SOL    HW162020   6.911   5.168   3.306
20041SOL    HW262021   6.894   5.311   3.261
20042SOL     OW62022   4.705   1.047  10.282
20042SOL    HW162023   4.750   1.055  10.198
20042SOL    HW262024   4.745   0.971  10.323
20043SOL     OW62025   5.135   3.661   5.359
20043SOL    HW162026   5.074   3.735   5.357
20043SOL    HW262027   5.108   3.606   5.285
20044SOL     OW62028   3.511   7.263   1.465
20044SOL    HW162029   3.484   7.233   1.378
20044SOL    HW262030   3.430   7.271   1.515
20045SOL     OW62031   3.238   5.016  13.095
20045SOL    HW162032   3.153   5.052  13.073
20045SOL    HW262033   3.299   5.088  13.081
20046SOL     OW62034   5.305  11.508   3.982
20046SOL    HW162035   5.247  11.437   4.011
20046SOL    HW262036   5.309  11.568   4.057
20047SOL     OW62037  14.040   3.190   4.476
20047SOL    HW162038  14.064   3.122   4.539
20047SOL    HW262039  14.121   3.207   4.428
20048SOL     OW62040   2.411   7.832  11.497
20048SOL    HW162041   2.460   7.868  11.423
20048SOL    HW262042   2.323   7.816  11.463
20049SOL     OW62043   9.751   4.265   0.255
20049SOL    HW162044   9.711   4.181   0.232
20049SOL    HW262045   9.709   4.291   0.337
20050SOL     OW62046  13.902   4.742  10.977
20050SOL    HW162047  13.810   4.766  10.962
20050SOL    HW262048  13.952   4.813  10.937
20051SOL     OW62049   0.812   5.265  11.516
20051SOL    HW162050   0.812   5.343  11.460
20051SOL    HW262051   0.859   5.199  11.465
20052SOL     OW62052  11.033  14.869   6.782
20052SOL    HW162053  11.005  14.795   6.727
20052SOL    HW262054  10.971  14.869   6.854
20053SOL     OW62055   9.446  14.749  11.401
20053SOL    HW162056   9.429  14.787  11.315
20053SOL    HW262057   9.432  14.655  11.390
20054SOL     OW62058   6.189  11.348  13.999
20054SOL    HW162059   6.174  11.277  14.061
20054SOL    HW262060   6.104  11.394  13.995
20055SOL     OW62061   6.240  11.255   4.965
20055SOL    HW162062   6.197  11.177   4.931
20055SOL    HW262063   6.268  11.230   5.054
20056SOL     OW62064  11.889   9.702   6.742
20056SOL    HW162065  11.841   9.624   6.714
20056SOL    HW262066  11.971   9.699   6.693
20057SOL     OW62067   0.393   0.599   3.397
20057SOL    HW162068   0.361   0.596   3.307
20057SOL    HW262069   0.470   0.656   3.393
20058SOL     OW62070   7.300   5.668  13.959
20058SOL    HW162071   7.391   5.698  13.968
20058SOL    HW262072   7.257   5.700  14.039
20059SOL     OW62073   9.308   9.990  14.131
20059SOL    HW162074   9.321  10.055  14.062
20059SOL    HW262075   9.221  10.007  14.165
20060SOL     OW62076   6.973   3.257   4.008
20060SOL    HW162077   6.908   3.270   3.938
20060SOL    HW262078   6.920   3.236   4.086
20061SOL     OW62079   8.491   6.288   6.753
20061SOL    HW162080   8.452   6.202   6.734
20061SOL    HW262081   8.416   6.343   6.778
20062SOL     OW62082  14.360   9.088   2.370
20062SOL    HW162083  14.412   9.122   2.297
20062SOL    HW262084  14.322   9.165   2.411
20063SOL     OW62085  13.709   5.067   2.759
20063SOL    HW162086  13.795   5.105   2.774
20063SOL    HW262087  13.688   5.087   2.668
20064SOL     OW62088  10.365   4.113   1.779
20064SOL    HW162089  10.303   4.156   1.720
20064SOL    HW262090  10.383   4.178   1.847
20065SOL     OW62091   0.775   9.357  14.543
20065SOL    HW162092   0.702   9.350  14.605
20065SOL    HW262093   0.840   9.295  14.576
20066SOL     OW62094   0.249  11.765   1.594
20066SOL    HW162095   0.203  11.849   1.603
20066SOL    HW262096   0.239  11.741   1.502
20067SOL     OW62097   7.996  12.483   3.273
20067SOL    HW162098   7.918  12.432   3.252
20067SOL    HW262099   8.009  12.540   3.197
20068SOL     OW62100  14.832   6.828   3.598
20068SOL    HW162101  14.843   6.871   3.683
20068SOL    HW262102  14.797   6.896   3.541
20069SOL     OW62103  13.696  11.243  13.128
20069SOL    HW162104  13.705  11.290  13.211
20069SOL    HW262105  13.785  11.215  13.107
20070SOL     OW62106   6.040  12.512  11.019
20070SOL    HW162107   6.059  12.454  10.945
20070SOL    HW262108   5.945  12.508  11.028
20071SOL     OW62109   3.136   2.326   4.893
20071SOL    HW162110   3.231   2.322   4.903
20071SOL    HW262111   3.122   2.388   4.822
20072SOL     OW62112   2.461   8.609  12.197
20072SOL    HW162113   2.550   8.642  12.183
20072SOL    HW262114   2.456   8.531  12.141
20073SOL     OW62115  12.149  12.788  13.754
20073SOL    HW162116  12.236  12.783  13.716
20073SOL    HW262117  12.092  12.808  13.680
20074SOL     OW62118   7.788  10.480   5.299
20074SOL    HW162119   7.763  10.562   5.257
20074SOL    HW262120   7.705  10.436   5.318
20075SOL     OW62121  11.706  12.921   8.013
20075SOL    HW162122  11.642  12.977   7.969
20075SOL    HW262123  11.788  12.939   7.967
20076SOL     OW62124   1.611   7.163   6.993
20076SOL    HW162125   1.650   7.081   7.025
20076SOL    HW262126   1.680   7.202   6.939
20077SOL     OW62127   4.023   6.827  13.902
20077SOL    HW162128   3.976   6.862  13.826
20077SOL    HW262129   3.979   6.744  13.921
20078SOL     OW62130   3.935  11.122  14.152
20078SOL    HW162131   3.946  11.037  14.195
20078SOL    HW262132   4.023  11.158  14.146
20079SOL     OW62133  14.346  11.826  11.626
20079SOL    HW162134  14.436  11.828  11.594
20079SOL    HW262135  14.335  11.908  11.673
20080SOL     OW62136   6.975  10.849   2.366
20080SOL    HW162137   6.965  10.813   2.454
20080SOL    HW262138   6.985  10.943   2.380
20081SOL     OW62139   7.560   9.331  12.412
20081SOL    HW162140   7.586   9.409  12.363
20081SOL    HW262141   7.536   9.364  12.499
20082SOL     OW62142  10.169   0.204  10.548
20082SOL    HW162143  10.212   0.132  10.502
20082SOL    HW262144  10.205   0.283  10.507
20083SOL     OW62145  12.461  12.004   8.535
20083SOL    HW162146  12.453  12.050   8.619
20083SOL    HW262147  12.544  11.957   8.542
20084SOL     OW62148   7.782   7.908  13.417
20084SOL    HW162149   7.767   7.837  13.355
20084SOL    HW262150   7.725   7.979  13.387
20085SOL     OW62151   1.364   0.688   1.816
20085SOL    HW162152   1.346   0.685   1.722
20085SOL    HW262153   1.453   0.654   1.825
20086SOL     OW62154   4.012  11.718   5.726
20086SOL    HW162155   3.933  11.773   5.727
20086SOL    HW262156   4.074  11.764   5.783
20087SOL     OW62157  12.402  12.724  13.705
20087SOL    HW162158  12.483  12.753  13.662
20087SOL    HW262159  12.432  12.678  13.784
20088SOL     OW62160  11.938   4.068   1.106
20088SOL    HW162161  11.872   4.114   1.157
20088SOL    HW262162  12.002   4.038   1.171
20089SOL     OW62163   9.679   4.212  11.619
20089SOL    HW162164   9.646   4.209  11.529
20089SOL    HW262165   9.773   4.202  11.611
20090SOL     OW62166   5.170   1.386  10.625
20090SOL    HW162167   5.108   1.377  10.698
20090SOL    HW262168   5.164   1.478  10.599
20091SOL     OW62169   4.008   1.391  12.249
20091SOL    HW162170   3.919   1.379  12.216
20091SOL    HW262171   4.046   1.458  12.192
20092SOL     OW62172   0.577  10.865  10.536
20092SOL    HW162173   0.577  10.780  10.581
20092SOL    HW262174   0.530  10.923  10.596
20093SOL     OW62175  14.083  10.129   2.664
20093SOL    HW162176  14.060  10.128   2.572
20093SOL    HW262177  14.005  10.163   2.708
20094SOL     OW62178   2.705   2.067   8.827
20094SOL    HW162179   2.622   2.095   8.788
20094SOL    HW262180   2.770   2.124   8.788
20095SOL     OW62181  14.640   7.515   4.037
20095SOL    HW162182  14.639   7.593   3.982
20095SOL    HW262183  14.610   7.444   3.980
20096SOL     OW62184   2.646   6.585  13.822
20096SOL    HW162185   2.588   6.526  13.869
20096SOL    HW262186   2.641   6.668  13.870
20097SOL     OW62187   6.271   6.889   7.808
20097SOL    HW162188   6.235   6.949   7.874
20097SOL    HW262189   6.362   6.877   7.833
20098SOL     OW62190   9.970  12.597  12.047
20098SOL    HW162191  10.040  12.621  11.986
20098SOL    HW262192   9.916  12.535  11.999
20099SOL     OW62193  14.071  12.847   8.000
20099SOL    HW162194  14.103  12.848   8.090
20099SOL    HW262195  14.109  12.767   7.963
20100SOL     OW62196   0.188   5.030  11.626
20100SOL    HW162197   0.155   5.112  11.589
20100SOL    HW262198   0.261   5.056  11.681
20101SOL     OW62199   8.018   7.996   1.084
20101SOL    HW162200   8.078   7.992   1.159
20101SOL    HW262201   7.981   8.084   1.087
20102SOL     OW62202   3.529   5.500  14.671
20102SOL    HW162203   3.562   5.521  14.584
20102SOL    HW262204   3.496   5.410  14.664
20103SOL     OW62205   4.989   3.294   2.730
20103SOL    HW162206   4.957   3.208   2.703
20103SOL    HW262207   5.056   3.316   2.666
20104SOL     OW62208   1.887   2.053   7.022
20104SOL    HW162209   1.923   2.142   7.011
20104SOL    HW262210   1.964   1.996   7.017
20105SOL     OW62211  14.408   0.014  11.096
20105SOL    HW162212  14.396   0.051  11.009
20105SOL    HW262213  14.502  14.869  11.102
20106SOL     OW62214   2.804   0.956   9.445
20106SOL    HW162215   2.869   0.975   9.513
20106SOL    HW262216   2.795   1.039   9.397
20107SOL     OW62217  13.878  11.431   6.739
20107SOL    HW162218  13.823  11.352   6.738
20107SOL    HW262219  13.967  11.398   6.724
20108SOL     OW62220   2.749  11.052   1.138
20108SOL    HW162221   2.841  11.075   1.143
20108SOL    HW262222   2.729  11.014   1.224
20109SOL     OW62223   1.586   1.515   5.598
20109SOL    HW162224   1.529   1.441   5.579
20109SOL    HW262225   1.552   1.551   5.680
20110SOL     OW62226   4.259   5.482   3.205
20110SOL    HW162227   4.340   5.514   3.245
20110SOL    HW262228   4.217   5.431   3.275
20111SOL     OW62229  11.741   8.294  13.996
20111SOL    HW162230  11.653   8.256  13.996
20111SOL    HW262231  11.758   8.313  13.904
20112SOL     OW62232   5.723   4.489   9.143
20112SOL    HW162233   5.806   4.461   9.104
20112SOL    HW262234   5.658   4.432   9.102
20113SOL     OW62235   3.538  13.873  10.721
20113SOL    HW162236   3.623  13.887  10.681
20113SOL    HW262237   3.556  13.816  10.796
20114SOL     OW62238   2.674  12.364  14.160
20114SOL    HW162239   2.743  12.299  14.150
20114SOL    HW262240   2.720  12.448  14.164
20115SOL     OW62241  11.583  11.925  10.270
20115SOL    HW162242  11.622  11.840  10.290
20115SOL    HW262243  11.626  11.986  10.329
20116SOL     OW62244   9.519   4.355  13.976
20116SOL    HW162245   9.433   4.388  14.003
20116SOL    HW262246   9.524   4.375  13.883
20117SOL     OW62247   6.692   9.126   7.045
20117SOL    HW162248   6.657   9.061   6.984
20117SOL    HW262249   6.708   9.077   7.125
20118SOL     OW62250   5.112   2.885   7.271
20118SOL    HW162251   5.144   2.796   7.259
20118SOL    HW262252   5.139   2.908   7.360
20119SOL     OW62253   2.476  10.191  11.179
20119SOL    HW162254   2.427  10.169  11.100
20119SOL    HW262255   2.413  10.183  11.250
20120SOL     OW62256   2.074   9.279  13.720
20120SOL    HW162257   2.169   9.274  13.726
20120SOL    HW262258   2.043   9.203  13.769
20121SOL     OW62259   2.506  10.767   0.730
20121SOL    HW162260   2.457  10.737   0.653
20121SOL    HW262261   2.439  10.801   0.789
20122SOL     OW62262   2.234  13.463   0.899
20122SOL    HW162263   2.148  13.471   0.940
20122SOL    HW262264   2.226  13.387   0.841
20123SOL     OW62265   8.616   1.010   8.349
20123SOL    HW162266   8.620   0.970   8.262
20123SOL    HW262267   8.706   1.005   8.382
20124SOL     OW62268   7.092   3.053   4.535
20124SOL    HW162269   7.076   2.959   4.545
20124SOL    HW262270   7.135   3.062   4.450
20125SOL     OW62271  12.129   6.097   7.160
20125SOL    HW162272  12.034   6.089   7.168
20125SOL    HW262273  12.146   6.100   7.066
20126SOL     OW62274   7.258   9.405  14.056
20126SOL    HW162275   7.309   9.324  14.066
20126SOL    HW262276   7.179   9.390  14.107
20127SOL     OW62277   0.032   5.271   8.341
20127SOL    HW162278   0.090   5.325   8.288
20127SOL    HW262279   0.063   5.283   8.431
20128SOL     OW62280  13.727   0.788   7.707
20128SOL    HW162281  13.683   0.863   7.747
20128SOL    HW262282  13.809   0.779   7.756
20129SOL     OW62283   7.127  11.645   8.683
20129SOL    HW162284   7.158  11.613   8.768
20129SOL    HW262285   7.117  11.740   8.696
20130SOL     OW62286   2.288   3.734   5.963
20130SOL    HW162287   2.240   3.782   5.894
20130SOL    HW262288   2.363   3.697   5.918
20131SOL     OW62289  12.035   9.259  10.399
20131SOL    HW162290  11.985   9.207  10.335
20131SOL    HW262291  12.101   9.305  10.346
20132SOL     OW62292   9.201  11.210   0.100
20132SOL    HW162293   9.242  11.297   0.104
20132SOL    HW262294   9.160  11.206   0.014
20133SOL     OW62295   1.583  14.602   0.673
20133SOL    HW162296   1.655  14.584   0.613
20133SOL    HW262297   1.558  14.516   0.707
20134SOL     OW62298  13.235   0.463  13.861
20134SOL    HW162299  13.264   0.374  13.881
20134SOL    HW262300  13.139   0.457  13.863
20135SOL     OW62301   8.900   7.941   7.899
20135SOL    HW162302   8.823   7.940   7.841
20135SOL    HW262303   8.973   7.964   7.842
20136SOL     OW62304   7.772   5.844   9.308
20136SOL    HW162305   7.785   5.933   9.340
20136SOL    HW262306   7.844   5.794   9.346
20137SOL     OW62307  14.380   1.519   5.970
20137SOL    HW162308  14.423   1.526   6.056
20137SOL    HW262309  14.358   1.426   5.963
20138SOL     OW62310   7.819  10.568   6.363
20138SOL    HW162311   7.875  10.555   6.287
20138SOL    HW262312   7.876  10.552   6.438
20139SOL     OW62313   3.489  14.347  14.400
20139SOL    HW162314   3.470  14.261  14.362
20139SOL    HW262315   3.479  14.408  14.326
20140SOL     OW62316  12.592  10.293  11.737
20140SOL    HW162317  12.649  10.363  11.706
20140SOL    HW262318  12.566  10.246  11.658
20141SOL     OW62319   3.929  12.167  12.885
20141SOL    HW162320   3.952  12.254  12.852
20141SOL    HW262321   3.986  12.153  12.960
20142SOL     OW62322   5.713   1.046  14.863
20142SOL    HW162323   5.770   1.084  14.796
20142SOL    HW262324   5.766   0.976   0.031
20143SOL     OW62325   2.886   1.670   9.251
20143SOL    HW162326   2.915   1.607   9.185
20143SOL    HW262327   2.928   1.752   9.226
20144SOL     OW62328   6.322   2.117   6.354
20144SOL    HW162329   6.404   2.129   6.403
20144SOL    HW262330   6.329   2.179   6.281
20145SOL     OW62331  13.473   9.157   7.482
20145SOL    HW162332  13.510   9.244   7.465
20145SOL    HW262333  13.404   9.148   7.416
20146SOL     OW62334   8.937   0.526   1.718
20146SOL    HW162335   8.936   0.431   1.705
20146SOL    HW262336   9.004   0.541   1.785
20147SOL     OW62337   3.133   6.582  10.479
20147SOL    HW162338   3.082   6.516  10.525
20147SOL    HW262339   3.084   6.600  10.399
20148SOL     OW62340  12.548  12.476  13.594
20148SOL    HW162341  12.530  12.532  13.670
20148SOL    HW262342  12.462  12.448  13.565
20149SOL     OW62343   8.734  14.043  13.695
20149SOL    HW162344   8.794  13.977  13.661
20149SOL    HW262345   8.661  14.044  13.632
20150SOL     OW62346   0.599   4.317   0.449
20150SOL    HW162347   0.676   4.279   0.408
20150SOL    HW262348   0.633   4.377   0.516
20151SOL     OW62349   5.643   0.637  11.330
20151SOL    HW162350   5.615   0.696  11.261
20151SOL    HW262351   5.728   0.605  11.301
20152SOL     OW62352  10.403  13.745  14.505
20152SOL    HW162353  10.480  13.704  14.544
20152SOL    HW262354  10.332  13.684  14.523
20153SOL     OW62355  12.375   2.511  10.299
20153SOL    HW162356  12.434   2.436  10.293
20153SOL    HW262357  12.396   2.551  10.384
20154SOL     OW62358   5.577   1.972   9.877
20154SOL    HW162359   5.555   2.024   9.955
20154SOL    HW262360   5.600   1.886   9.912
20155SOL     OW62361   2.314   1.744   3.515
20155SOL    HW162362   2.241   1.687   3.492
20155SOL    HW262363   2.343   1.713   3.600
20156SOL     OW62364  12.352   3.400   2.464
20156SOL    HW162365  12.291   3.392   2.537
20156SOL    HW262366  12.372   3.310   2.439
20157SOL     OW62367  11.392  11.088   2.168
20157SOL    HW162368  11.396  11.105   2.073
20157SOL    HW262369  11.333  11.013   2.176
20158SOL     OW62370  10.882   6.946  14.777
20158SOL    HW162371  10.870   7.012  14.846
20158SOL    HW262372  10.864   6.993  14.696
20159SOL     OW62373  11.616   7.582  13.509
20159SOL    HW162374  11.654   7.529  13.579
20159SOL    HW262375  11.676   7.656  13.500
20160SOL     OW62376  10.372   0.856   8.274
20160SOL    HW162377  10.321   0.808   8.209
20160SOL    HW262378  10.316   0.931   8.296
20161SOL     OW62379   9.846  12.011   2.817
20161SOL    HW162380   9.771  11.967   2.776
20161SOL    HW262381   9.851  11.972   2.905
20162SOL     OW62382  11.803  13.725   6.724
20162SOL    HW162383  11.783  13.712   6.631
20162SOL    HW262384  11.843  13.642   6.751
20163SOL     OW62385   1.293  12.406   6.995
20163SOL    HW162386   1.239  12.473   6.954
20163SOL    HW262387   1.351  12.376   6.925
20164SOL     OW62388  12.340   5.106   1.590
20164SOL    HW162389  12.354   5.187   1.639
20164SOL    HW262390  12.245   5.103   1.576
20165SOL     OW62391  10.573  11.216   8.263
20165SOL    HW162392  10.547  11.218   8.171
20165SOL    HW262393  10.667  11.200   8.261
20166SOL     OW62394   0.487   2.148   2.266
20166SOL    HW162395   0.451   2.183   2.185
20166SOL    HW262396   0.411   2.113   2.313
20167SOL     OW62397  14.652  10.228  14.381
20167SOL    HW162398  14.733  10.266  14.346
20167SOL    HW262399  14.583  10.288  14.352
20168SOL     OW62400   3.869  12.409  13.313
20168SOL    HW162401   3.874  12.505  13.308
20168SOL    HW262402   3.793  12.386  13.259
20169SOL     OW62403  10.951   5.621   4.935
20169SOL    HW162404  10.960   5.541   4.884
20169SOL    HW262405  10.859   5.646   4.926
20170SOL     OW62406   5.152   6.751   9.804
20170SOL    HW162407   5.216   6.802   9.855
20170SOL    HW262408   5.116   6.814   9.742
20171SOL     OW62409   2.072   8.443  14.209
20171SOL    HW162410   2.027   8.454  14.126
20171SOL    HW262411   2.160   8.414  14.186
20172SOL     OW62412   3.372   7.189   1.239
20172SOL    HW162413   3.344   7.098   1.247
20172SOL    HW262414   3.291   7.237   1.221
20173SOL     OW62415   2.978   1.621   5.943
20173SOL    HW162416   2.998   1.527   5.946
20173SOL    HW262417   2.942   1.634   5.855
20174SOL     OW62418   8.675   0.259   1.157
20174SOL    HW162419   8.722   0.214   1.227
20174SOL    HW262420   8.725   0.239   1.078
20175SOL     OW62421   9.148   1.216   5.707
20175SOL    HW162422   9.242   1.221   5.688
20175SOL    HW262423   9.141   1.144   5.770
20176SOL     OW62424   2.122   5.178   3.469
20176SOL    HW162425   2.190   5.199   3.533
20176SOL    HW262426   2.151   5.096   3.430
20177SOL     OW62427   3.456  14.219   7.244
20177SOL    HW162428   3.475  14.212   7.151
20177SOL    HW262429   3.429  14.131   7.270
20178SOL     OW62430  11.891  10.675   5.104
20178SOL    HW162431  11.979  10.650   5.076
20178SOL    HW262432  11.865  10.607   5.165
20179SOL     OW62433  11.729  14.589   4.027
20179SOL    HW162434  11.691  14.648   4.093
20179SOL    HW262435  11.751  14.510   4.076
20180SOL     OW62436   2.392  12.064  10.541
20180SOL    HW162437   2.306  12.106  10.548
20180SOL    HW262438   2.397  12.033  10.451
20181SOL     OW62439  14.567   4.912   6.031
20181SOL    HW162440  14.575   4.935   5.938
20181SOL    HW262441  14.482   4.947   6.057
20182SOL     OW62442  10.094   4.556   3.602
20182SOL    HW162443  10.135   4.517   3.679
20182SOL    HW262444  10.067   4.643   3.631
20183SOL     OW62445  14.084   8.122  10.067
20183SOL    HW162446  14.110   8.206  10.029
20183SOL    HW262447  14.082   8.138  10.162
20184SOL     OW62448   9.714   9.181   8.828
20184SOL    HW162449   9.685   9.179   8.737
20184SOL    HW262450   9.642   9.143   8.877
20185SOL     OW62451   2.765  10.213   9.925
20185SOL    HW162452   2.678  10.248   9.943
20185SOL    HW262453   2.772  10.136   9.981
20186SOL     OW62454   7.618   5.006   9.556
20186SOL    HW162455   7.590   4.953   9.481
20186SOL    HW262456   7.635   5.092   9.518
20187SOL     OW62457  11.053  11.861   9.848
20187SOL    HW162458  11.134  11.892   9.890
20187SOL    HW262459  11.054  11.766   9.863
20188SOL     OW62460   4.973  13.791   6.023
20188SOL    HW162461   5.032  13.813   6.095
20188SOL    HW262462   4.915  13.867   6.015
20189SOL     OW62463  11.765  11.253   2.119
20189SOL    HW162464  11.703  11.236   2.048
20189SOL    HW262465  11.839  11.195   2.099
20190SOL     OW62466  13.122  14.630   3.924
20190SOL    HW162467  13.085  14.608   4.010
20190SOL    HW262468  13.213  14.655   3.943
20191SOL     OW62469   8.736   7.236   4.212
20191SOL    HW162470   8.776   7.232   4.125
20191SOL    HW262471   8.662   7.175   4.207
20192SOL     OW62472   4.529   0.655   6.297
20192SOL    HW162473   4.460   0.606   6.341
20192SOL    HW262474   4.605   0.598   6.301
20193SOL     OW62475   7.759   8.206   7.192
20193SOL    HW162476   7.665   8.212   7.210
20193SOL    HW262477   7.797   8.172   7.273
20194SOL     OW62478   1.756   4.820  14.472
20194SOL    HW162479   1.752   4.805  14.377
20194SOL    HW262480   1.785   4.910  14.481
20195SOL     OW62481   9.715   6.859   0.161
20195SOL    HW162482   9.710   6.888   0.252
20195SOL    HW262483   9.770   6.924   0.118
20196SOL     OW62484  11.219  13.554   6.115
20196SOL    HW162485  11.171  13.637   6.118
20196SOL    HW262486  11.154  13.491   6.083
20197SOL     OW62487   8.974   7.493   9.877
20197SOL    HW162488   8.985   7.587   9.865
20197SOL    HW262489   9.046   7.453   9.829
20198SOL     OW62490   1.594   7.334   0.352
20198SOL    HW162491   1.687   7.354   0.340
20198SOL    HW262492   1.549   7.398   0.297
20199SOL     OW62493  11.827  13.901   1.173
20199SOL    HW162494  11.790  13.937   1.092
20199SOL    HW262495  11.753  13.857   1.216
20200SOL     OW62496   4.732  14.037   4.283
20200SOL    HW162497   4.768  14.001   4.364
20200SOL    HW262498   4.774  13.987   4.213
20201SOL     OW62499  12.860   9.297   7.238
20201SOL    HW162500  12.790   9.294   7.303
20201SOL    HW262501  12.921   9.363   7.271
20202SOL     OW62502   0.649  10.316  10.677
20202SOL    HW162503   0.719  10.253  10.694
20202SOL    HW262504   0.683  10.399  10.711
20203SOL     OW62505  11.627  13.996   3.227
20203SOL    HW162506  11.632  14.075   3.173
20203SOL    HW262507  11.565  14.018   3.296
20204SOL     OW62508   5.726  13.518   8.993
20204SOL    HW162509   5.741  13.428   9.022
20204SOL    HW262510   5.761  13.520   8.904
20205SOL     OW62511   9.374  11.054   9.368
20205SOL    HW162512   9.344  11.124   9.426
20205SOL    HW262513   9.328  11.069   9.286
20206SOL     OW62514  13.180   4.382  11.085
20206SOL    HW162515  13.107   4.346  11.035
20206SOL    HW262516  13.247   4.313  11.083
20207SOL     OW62517   1.717   1.135   6.976
20207SOL    HW162518   1.683   1.161   7.061
20207SOL    HW262519   1.693   1.043   6.967
20208SOL     OW62520   9.417   6.311  10.854
20208SOL    HW162521   9.353   6.298  10.924
20208SOL    HW262522   9.365   6.341  10.779
20209SOL     OW62523  13.365   4.156   4.607
20209SOL    HW162524  13.447   4.126   4.645
20209SOL    HW262525  13.327   4.212   4.674
20210SOL     OW62526   5.031   9.956  14.827
20210SOL    HW162527   5.015   9.885  14.765
20210SOL    HW262528   5.075   9.914   0.029
20211SOL     OW62529   2.828  12.488   9.771
20211SOL    HW162530   2.738  12.455   9.778
20211SOL    HW262531   2.819  12.583   9.783
20212SOL     OW62532  12.473  12.769   7.174
20212SOL    HW162533  12.510  12.727   7.252
20212SOL    HW262534  12.420  12.701   7.133
20213SOL     OW62535   3.277   1.433  12.216
20213SOL    HW162536   3.194   1.390  12.193
20213SOL    HW262537   3.258   1.479  12.298
20214SOL     OW62538  11.032   6.816   7.859
20214SOL    HW162539  11.089   6.889   7.883
20214SOL    HW262540  11.003   6.779   7.942
20215SOL     OW62541   4.556   9.003   3.584
20215SOL    HW162542   4.640   9.019   3.542
20215SOL    HW262543   4.574   9.013   3.678
20216SOL     OW62544   3.002   9.987   7.421
20216SOL    HW162545   3.017  10.078   7.448
20216SOL    HW262546   2.966   9.994   7.332
20217SOL     OW62547  12.800   2.727  10.524
20217SOL    HW162548  12.778   2.635  10.509
20217SOL    HW262549  12.834   2.729  10.614
20218SOL     OW62550   0.009   9.579   5.503
20218SOL    HW162551  14.820   9.509   5.478
20218SOL    HW262552  14.834   9.659   5.479
20219SOL     OW62553  10.111   9.955   9.049
20219SOL    HW162554  10.090   9.916   8.964
20219SOL    HW262555  10.068   9.897   9.113
20220SOL     OW62556   3.661   8.257   1.222
20220SOL    HW162557   3.683   8.206   1.144
20220SOL    HW262558   3.611   8.197   1.278
20221SOL     OW62559  12.653   6.989   1.490
20221SOL    HW162560  12.619   6.902   1.469
20221SOL    HW262561  12.731   6.972   1.543
20222SOL     OW62562   8.482   1.782   0.574
20222SOL    HW162563   8.484   1.877   0.563
20222SOL    HW262564   8.570   1.753   0.552
20223SOL     OW62565   3.108   4.117   2.956
20223SOL    HW162566   3.148   4.175   3.020
20223SOL    HW262567   3.056   4.175   2.900
20224SOL     OW62568   1.393   0.320   8.168
20224SOL    HW162569   1.368   0.229   8.153
20224SOL    HW262570   1.311   0.368   8.172
20225SOL     OW62571   2.527   0.654   2.827
20225SOL    HW162572   2.529   0.573   2.777
20225SOL    HW262573   2.601   0.705   2.794
20226SOL     OW62574   2.896   2.124  11.628
20226SOL    HW162575   2.973   2.152  11.579
20226SOL    HW262576   2.843   2.203  11.635
20227SOL     OW62577   3.815  10.760   3.660
20227SOL    HW162578   3.836  10.700   3.732
20227SOL    HW262579   3.896  10.765   3.609
20228SOL     OW62580   0.474   6.297   6.316
20228SOL    HW162581   0.399   6.314   6.372
20228SOL    HW262582   0.436   6.267   6.233
20229SOL     OW62583   8.405   8.119   1.433
20229SOL    HW162584   8.467   8.181   1.471
20229SOL    HW262585   8.429   8.034   1.471
20230SOL     OW62586   9.952   8.373  12.022
20230SOL    HW162587   9.859   8.371  11.997
20230SOL    HW262588   9.992   8.303  11.969
20231SOL     OW62589   8.850  11.701   5.243
20231SOL    HW162590   8.849  11.774   5.305
20231SOL    HW262591   8.792  11.636   5.281
20232SOL     OW62592  11.916  14.313  10.804
20232SOL    HW162593  11.827  14.279  10.813
20232SOL    HW262594  11.968  14.239  10.775
20233SOL     OW62595   5.732   0.694   2.701
20233SOL    HW162596   5.785   0.758   2.748
20233SOL    HW262597   5.774   0.686   2.616
20234SOL     OW62598   5.486   0.672  10.483
20234SOL    HW162599   5.405   0.659  10.434
20234SOL    HW262600   5.493   0.767  10.493
20235SOL     OW62601   1.009   7.870  12.750
20235SOL    HW162602   0.914   7.877  12.739
20235SOL    HW262603   1.036   7.957  12.779
20236SOL     OW62604   4.664   2.958  12.253
20236SOL    HW162605   4.705   2.873  12.234
20236SOL    HW262606   4.610   2.976  12.177
20237SOL     OW62607  12.473   0.581   7.944
20237SOL    HW162608  12.566   0.575   7.922
20237SOL    HW262609  12.436   0.498   7.915
20238SOL     OW62610   5.830   3.776  13.043
20238SOL    HW162611   5.819   3.871  13.042
20238SOL    HW262612   5.847   3.755  13.135
20239SOL     OW62613  13.007   0.179   9.116
20239SOL    HW162614  13.010   0.212   9.206
20239SOL    HW262615  12.932   0.119   9.115
20240SOL     OW62616   8.011   1.465   6.679
20240SOL    HW162617   8.020   1.371   6.665
20240SOL    HW262618   7.938   1.491   6.624
20241SOL     OW62619   9.698   0.631  12.507
20241SOL    HW162620   9.702   0.547  12.460
20241SOL    HW262621   9.788   0.664  12.505
20242SOL     OW62622   9.472   7.658   6.819
20242SOL    HW162623   9.423   7.739   6.811
20242SOL    HW262624   9.495   7.653   6.912
20243SOL     OW62625  14.442   4.726   5.340
20243SOL    HW162626  14.407   4.729   5.429
20243SOL    HW262627  14.514   4.789   5.341
20244SOL     OW62628  12.905   6.074  11.089
20244SOL    HW162629  12.953   5.999  11.125
20244SOL    HW262630  12.825   6.078  11.142
20245SOL     OW62631   8.266   8.929   9.949
20245SOL    HW162632   8.203   9.000   9.940
20245SOL    HW262633   8.254   8.876   9.870
20246SOL     OW62634   9.459   0.441   9.787
20246SOL    HW162635   9.425   0.439   9.698
20246SOL    HW262636   9.397   0.496   9.835
20247SOL     OW62637   0.187   7.172  13.483
20247SOL    HW162638   0.190   7.195  13.575
20247SOL    HW262639   0.095   7.156  13.464
20248SOL     OW62640  14.030  12.484  10.370
20248SOL    HW162641  14.025  12.530  10.454
20248SOL    HW262642  14.116  12.508  10.335
20249SOL     OW62643   8.874  13.653   3.695
20249SOL    HW162644   8.940  13.628   3.760
20249SOL    HW262645   8.818  13.576   3.687
20250SOL     OW62646   2.686   3.594   5.047
20250SOL    HW162647   2.780   3.595   5.028
20250SOL    HW262648   2.655   3.512   5.008
20251SOL     OW62649   2.434  14.601   2.220
20251SOL    HW162650   2.368  14.580   2.154
20251SOL    HW262651   2.422  14.695   2.238
20252SOL     OW62652   8.539   2.566  11.003
20252SOL    HW162653   8.611   2.510  10.972
20252SOL    HW262654   8.515   2.618  10.927
20253SOL     OW62655  12.600   8.176  12.272
20253SOL    HW162656  12.608   8.162  12.177
20253SOL    HW262657  12.689   8.195  12.301
20254SOL     OW62658   1.650  13.972   5.732
20254SOL    HW162659   1.708  13.950   5.805
20254SOL    HW262660   1.603  14.050   5.762
20255SOL     OW62661   5.379  11.352   6.592
20255SOL    HW162662   5.422  11.398   6.520
20255SOL    HW262663   5.418  11.390   6.671
20256SOL     OW62664  10.944  14.502   2.305
20256SOL    HW162665  11.038  14.499   2.286
20256SOL    HW262666  10.939  14.519   2.399
20257SOL     OW62667   2.043   1.531   4.295
20257SOL    HW162668   2.038   1.593   4.367
20257SOL    HW262669   1.993   1.455   4.325
20258SOL     OW62670  13.168  11.448   9.336
20258SOL    HW162671  13.121  11.529   9.318
20258SOL    HW262672  13.224  11.435   9.259
20259SOL     OW62673   9.666  10.619   9.405
20259SOL    HW162674   9.619  10.544   9.370
20259SOL    HW262675   9.645  10.619   9.499
20260SOL     OW62676   8.826   4.531   0.186
20260SOL    HW162677   8.778   4.552   0.105
20260SOL    HW262678   8.769   4.563   0.256
20261SOL     OW62679   8.189   8.156  11.040
20261SOL    HW162680   8.117   8.097  11.016
20261SOL    HW262681   8.255   8.099  11.080
20262SOL     OW62682   7.774   3.648   1.182
20262SOL    HW162683   7.746   3.717   1.121
20262SOL    HW262684   7.748   3.681   1.268
20263SOL     OW62685  14.266   5.694   5.905
20263SOL    HW162686  14.228   5.725   5.987
20263SOL    HW262687  14.228   5.607   5.892
20264SOL     OW62688   5.532   6.343   0.711
20264SOL    HW162689   5.446   6.327   0.673
20264SOL    HW262690   5.585   6.376   0.638
20265SOL     OW62691   3.346  13.489   1.112
20265SOL    HW162692   3.344  13.584   1.101
20265SOL    HW262693   3.431  13.462   1.077
20266SOL     OW62694   0.926   4.703   5.718
20266SOL    HW162695   0.917   4.758   5.796
20266SOL    HW262696   1.006   4.733   5.676
20267SOL     OW62697   5.777   3.039  10.923
20267SOL    HW162698   5.778   3.061  10.830
20267SOL    HW262699   5.688   3.063  10.952
20268SOL     OW62700   2.738   1.795   8.878
20268SOL    HW162701   2.721   1.884   8.846
20268SOL    HW262702   2.718   1.800   8.972
20269SOL     OW62703   7.914   3.839   0.691
20269SOL    HW162704   7.865   3.809   0.615
20269SOL    HW262705   7.903   3.934   0.691
20270SOL     OW62706  13.825   3.941   6.159
20270SOL    HW162707  13.887   4.013   6.147
20270SOL    HW262708  13.865   3.885   6.225
20271SOL     OW62709   7.815   1.460   8.471
20271SOL    HW162710   7.746   1.394   8.460
20271SOL    HW262711   7.783   1.518   8.539
20272SOL     OW62712   7.957   3.009  13.383
20272SOL    HW162713   8.006   3.006  13.301
20272SOL    HW262714   7.957   2.918  13.414
20273SOL     OW62715   8.655   6.165  10.268
20273SOL    HW162716   8.694   6.110  10.201
20273SOL    HW262717   8.713   6.155  10.344
20274SOL     OW62718  13.460   3.629   4.315
20274SOL    HW162719  13.411   3.684   4.254
20274SOL    HW262720  13.518   3.690   4.360
20275SOL     OW62721  11.589   3.811   3.779
20275SOL    HW162722  11.666   3.860   3.746
20275SOL    HW262723  11.601   3.809   3.874
20276SOL     OW62724   5.728  13.425   3.000
20276SOL    HW162725   5.739  13.403   3.092
20276SOL    HW262726   5.790  13.497   2.985
20277SOL     OW62727   9.365   2.004   9.763
20277SOL    HW162728   9.333   2.003   9.853
20277SOL    HW262729   9.377   1.912   9.741
20278SOL     OW62730   4.678  10.963  13.288
20278SOL    HW162731   4.749  11.027  13.289
20278SOL    HW262732   4.646  10.960  13.379
20279SOL     OW62733   5.448  13.168   0.527
20279SOL    HW162734   5.492  13.203   0.605
20279SOL    HW262735   5.370  13.222   0.518
20280SOL     OW62736   2.284   6.463  12.123
20280SOL    HW162737   2.374   6.472  12.091
20280SOL    HW262738   2.238   6.416  12.054
20281SOL     OW62739   0.541   4.782   6.248
20281SOL    HW162740   0.560   4.732   6.169
20281SOL    HW262741   0.628   4.804   6.283
20282SOL     OW62742   2.466  14.064   8.775
20282SOL    HW162743   2.397  14.083   8.839
20282SOL    HW262744   2.465  13.969   8.765
20283SOL     OW62745   9.324   4.621  14.720
20283SOL    HW162746   9.298   4.588  14.634
20283SOL    HW262747   9.336   4.715  14.708
20284SOL     OW62748   6.531  13.874  14.376
20284SOL    HW162749   6.458  13.935  14.388
20284SOL    HW262750   6.538  13.828  14.460
20285SOL     OW62751   8.599  13.942  11.307
20285SOL    HW162752   8.504  13.936  11.300
20285SOL    HW262753   8.630  13.931  11.217
20286SOL     OW62754  10.396   6.658   3.274
20286SOL    HW162755  10.454   6.733   3.273
20286SOL    HW262756  10.385   6.634   3.182
20287SOL     OW62757  10.584   1.734  10.323
20287SOL    HW162758  10.522   1.806  10.331
20287SOL    HW262759  10.623   1.726  10.410
20288SOL     OW62760  12.095   3.213  14.660
20288SOL    HW162761  12.081   3.135  14.607
20288SOL    HW262762  12.008   3.246  14.679
20289SOL     OW62763   1.885   8.114   3.055
20289SOL    HW162764   1.963   8.151   3.096
20289SOL    HW262765   1.856   8.045   3.115
20290SOL     OW62766   0.362   3.919   7.290
20290SOL    HW162767   0.445   3.926   7.243
20290SOL    HW262768   0.333   3.829   7.274
20291SOL     OW62769  13.520   4.443  13.537
20291SOL    HW162770  13.455   4.462  13.468
20291SOL    HW262771  13.471   4.394  13.602
20292SOL     OW62772   5.868   9.523   5.665
20292SOL    HW162773   5.794   9.462   5.661
20292SOL    HW262774   5.873   9.549   5.757
20293SOL     OW62775   4.282  11.243   6.636
20293SOL    HW162776   4.312  11.327   6.671
20293SOL    HW262777   4.336  11.229   6.558
20294SOL     OW62778   2.259   8.735   1.706
20294SOL    HW162779   2.181   8.716   1.654
20294SOL    HW262780   2.227   8.753   1.794
20295SOL     OW62781  14.592   7.472   9.231
20295SOL    HW162782  14.513   7.431   9.266
20295SOL    HW262783  14.596   7.557   9.275
20296SOL     OW62784   9.236   8.843   3.942
20296SOL    HW162785   9.165   8.796   3.984
20296SOL    HW262786   9.316   8.803   3.976
20297SOL     OW62787  12.952   3.848  10.259
20297SOL    HW162788  12.936   3.756  10.278
20297SOL    HW262789  13.003   3.879  10.334
20298SOL     OW62790   1.282   1.315  11.960
20298SOL    HW162791   1.269   1.356  12.046
20298SOL    HW262792   1.238   1.230  11.967
20299SOL     OW62793   6.968   1.447   3.248
20299SOL    HW162794   6.948   1.440   3.341
20299SOL    HW262795   7.003   1.536   3.237
20300SOL     OW62796   9.744   2.353   6.041
20300SOL    HW162797   9.752   2.353   5.946
20300SOL    HW262798   9.700   2.436   6.061
20301SOL     OW62799   0.628   7.338   6.869
20301SOL    HW162800   0.629   7.275   6.797
20301SOL    HW262801   0.712   7.384   6.862
20302SOL     OW62802  11.469   2.021   1.147
20302SOL    HW162803  11.379   2.053   1.138
20302SOL    HW262804  11.463   1.949   1.210
20303SOL     OW62805  13.242  12.593   1.276
20303SOL    HW162806  13.234  12.640   1.360
20303SOL    HW262807  13.279  12.658   1.216
20304SOL     OW62808  11.488   1.526   8.934
20304SOL    HW162809  11.489   1.610   8.980
20304SOL    HW262810  11.564   1.530   8.875
20305SOL     OW62811   9.262   2.974   1.867
20305SOL    HW162812   9.179   2.962   1.821
20305SOL    HW262813   9.318   3.019   1.805
20306SOL     OW62814   2.778   9.920   2.294
20306SOL    HW162815   2.846   9.944   2.231
20306SOL    HW262816   2.782   9.989   2.361
20307SOL     OW62817   3.798   4.240  13.555
20307SOL    HW162818   3.732   4.274  13.615
20307SOL    HW262819   3.795   4.145  13.567
20308SOL     OW62820  13.715   8.544   6.844
20308SOL    HW162821  13.784   8.598   6.806
20308SOL    HW262822  13.674   8.500   6.769
20309SOL     OW62823   5.766   9.839   5.794
20309SOL    HW162824   5.837   9.855   5.731
20309SOL    HW262825   5.793   9.760   5.841
20310SOL     OW62826  14.517   3.534   2.505
20310SOL    HW162827  14.484   3.614   2.546
20310SOL    HW262828  14.593   3.509   2.557
20311SOL     OW62829   8.213   0.005   3.444
20311SOL    HW162830   8.156   0.057   3.502
20311SOL    HW262831   8.225   0.060   3.367
20312SOL     OW62832   2.083  13.272   6.703
20312SOL    HW162833   1.988  13.275   6.695
20312SOL    HW262834   2.102  13.318   6.784
20313SOL     OW62835   2.815   0.985   2.574
20313SOL    HW162836   2.798   1.061   2.519
20313SOL    HW262837   2.874   1.017   2.642
20314SOL     OW62838   0.018   9.626   0.009
20314SOL    HW162839  14.816   9.662   0.059
20314SOL    HW262840   0.064   9.704  14.848
20315SOL     OW62841   9.949  10.235   9.517
20315SOL    HW162842   9.874  10.175   9.510
20315SOL    HW262843   9.959  10.249   9.612
20316SOL     OW62844   9.503   8.505   6.120
20316SOL    HW162845   9.451   8.432   6.087
20316SOL    HW262846   9.576   8.463   6.166
20317SOL     OW62847  11.800   6.047  11.355
20317SOL    HW162848  11.736   6.017  11.290
20317SOL    HW262849  11.750   6.051  11.437
20318SOL     OW62850   1.691   2.240   6.090
20318SOL    HW162851   1.783   2.266   6.102
20318SOL    HW262852   1.695   2.146   6.075
20319SOL     OW62853   7.515   7.866   0.979
20319SOL    HW162854   7.529   7.872   1.074
20319SOL    HW262855   7.559   7.944   0.945
20320SOL     OW62856  10.129  10.267   6.880
20320SOL    HW162857  10.224  10.280   6.890
20320SOL    HW262858  10.112  10.184   6.926
20321SOL     OW62859   8.176   9.054   6.029
20321SOL    HW162860   8.228   9.045   6.108
20321SOL    HW262861   8.204   8.982   5.973
20322SOL     OW62862  11.362   9.745   3.309
20322SOL    HW162863  11.330   9.801   3.239
20322SOL    HW262864  11.285   9.698   3.340
20323SOL     OW62865   0.113   3.516   9.381
20323SOL    HW162866   0.065   3.541   9.302
20323SOL    HW262867   0.080   3.574   9.449
20324SOL     OW62868  13.034   3.812   9.412
20324SOL    HW162869  13.112   3.764   9.384
20324SOL    HW262870  13.047   3.900   9.378
20325SOL     OW62871   7.045   1.824   2.544
20325SOL    HW162872   6.986   1.864   2.607
20325SOL    HW262873   7.019   1.732   2.540
20326SOL     OW62874   9.433  13.545   3.426
20326SOL    HW162875   9.415  13.596   3.347
20326SOL    HW262876   9.467  13.462   3.395
20327SOL     OW62877   9.920   7.901   0.821
20327SOL    HW162878   9.928   7.810   0.850
20327SOL    HW262879   9.911   7.950   0.903
20328SOL     OW62880   8.082  13.474  14.565
20328SOL    HW162881   8.061  13.397  14.512
20328SOL    HW262882   8.006  13.486  14.621
20329SOL     OW62883   4.520   5.102   8.041
20329SOL    HW162884   4.519   5.010   8.013
20329SOL    HW262885   4.466   5.148   7.976
20330SOL     OW62886  14.659   1.997   6.700
20330SOL    HW162887  14.746   1.982   6.736
20330SOL    HW262888  14.602   1.936   6.748
20331SOL     OW62889  11.407   7.743   6.462
20331SOL    HW162890  11.339   7.781   6.518
20331SOL    HW262891  11.489   7.778   6.496
20332SOL     OW62892  11.495  10.352   8.026
20332SOL    HW162893  11.448  10.427   7.988
20332SOL    HW262894  11.564  10.391   8.079
20333SOL     OW62895   8.600   1.133   9.492
20333SOL    HW162896   8.675   1.101   9.441
20333SOL    HW262897   8.640   1.181   9.565
20334SOL     OW62898   2.931  14.602   1.053
20334SOL    HW162899   2.838  14.604   1.028
20334SOL    HW262900   2.969  14.678   1.009
20335SOL     OW62901  10.201   8.214   6.376
20335SOL    HW162902  10.199   8.298   6.330
20335SOL    HW262903  10.263   8.161   6.325
20336SOL     OW62904   8.413  13.934  12.836
20336SOL    HW162905   8.499  13.972  12.850
20336SOL    HW262906   8.415  13.851  12.883
20337SOL     OW62907   2.097  14.230   9.198
20337SOL    HW162908   2.048  14.160   9.241
20337SOL    HW262909   2.063  14.231   9.108
20338SOL     OW62910  14.180   6.224   3.659
20338SOL    HW162911  14.120   6.155   3.688
20338SOL    HW262912  14.210   6.196   3.573
20339SOL     OW62913  13.877  11.302   0.985
20339SOL    HW162914  13.877  11.291   0.890
20339SOL    HW262915  13.843  11.390   1.000
20340SOL     OW62916   2.908   9.105   4.277
20340SOL    HW162917   2.971   9.034   4.269
20340SOL    HW262918   2.923   9.142   4.364
20341SOL     OW62919  13.699  10.335  13.385
20341SOL    HW162920  13.717  10.241  13.381
20341SOL    HW262921  13.751  10.366  13.459
20342SOL     OW62922   9.971  12.574   4.032
20342SOL    HW162923   9.937  12.661   4.052
20342SOL    HW262924  10.065  12.586   4.019
20343SOL     OW62925   0.653   9.388  12.719
20343SOL    HW162926   0.635   9.372  12.627
20343SOL    HW262927   0.568   9.381  12.762
20344SOL     OW62928  14.601  14.327  12.150
20344SOL    HW162929  14.553  14.281  12.080
20344SOL    HW262930  14.563  14.292  12.231
20345SOL     OW62931   9.397   7.253   9.943
20345SOL    HW162932   9.415   7.327   9.885
20345SOL    HW262933   9.469   7.254  10.005
20346SOL     OW62934   2.178  14.613  10.741
20346SOL    HW162935   2.219  14.610  10.655
20346SOL    HW262936   2.216  14.539  10.788
20347SOL     OW62937  13.476   2.311   5.155
20347SOL    HW162938  13.554   2.255   5.147
20347SOL    HW262939  13.415   2.260   5.208
20348SOL     OW62940   8.266   6.652  10.385
20348SOL    HW162941   8.233   6.740  10.366
20348SOL    HW262942   8.348   6.646  10.336
20349SOL     OW62943   2.788   9.921  10.653
20349SOL    HW162944   2.766   9.896  10.564
20349SOL    HW262945   2.765  10.014  10.658
20350SOL     OW62946   5.758   4.747  10.364
20350SOL    HW162947   5.814   4.734  10.288
20350SOL    HW262948   5.809   4.804  10.422
20351SOL     OW62949   3.605  10.925   0.280
20351SOL    HW162950   3.528  10.886   0.239
20351SOL    HW262951   3.599  10.898   0.372
20352SOL     OW62952  11.357  10.338   3.866
20352SOL    HW162953  11.370  10.290   3.784
20352SOL    HW262954  11.375  10.273   3.934
20353SOL     OW62955   7.986   8.804   6.152
20353SOL    HW162956   8.070   8.769   6.181
20353SOL    HW262957   7.924   8.773   6.218
20354SOL     OW62958   8.649   6.383   0.635
20354SOL    HW162959   8.600   6.440   0.695
20354SOL    HW262960   8.642   6.426   0.550
20355SOL     OW62961   0.410  11.371   0.658
20355SOL    HW162962   0.346  11.308   0.692
20355SOL    HW262963   0.365  11.455   0.662
20356SOL     OW62964  10.002   3.876   7.219
20356SOL    HW162965   9.990   3.787   7.252
20356SOL    HW262966  10.027   3.926   7.297
20357SOL     OW62967   4.968  13.782  13.685
20357SOL    HW162968   5.061  13.761  13.671
20357SOL    HW262969   4.921  13.704  13.654
20358SOL     OW62970   0.872   7.802   6.451
20358SOL    HW162971   0.948   7.777   6.397
20358SOL    HW262972   0.910   7.839   6.531
20359SOL     OW62973  11.395  12.239  13.568
20359SOL    HW162974  11.359  12.306  13.510
20359SOL    HW262975  11.427  12.287  13.644
20360SOL     OW62976   7.405   1.369   6.186
20360SOL    HW162977   7.411   1.457   6.149
20360SOL    HW262978   7.489   1.328   6.166
20361SOL     OW62979   6.658  11.027   8.608
20361SOL    HW162980   6.622  10.952   8.656
20361SOL    HW262981   6.645  11.101   8.667
20362SOL     OW62982  14.566  13.321   2.275
20362SOL    HW162983  14.628  13.334   2.202
20362SOL    HW262984  14.533  13.409   2.294
20363SOL     OW62985   0.087   9.713   1.864
20363SOL    HW162986   0.073   9.715   1.769
20363SOL    HW262987   0.017   9.767   1.899
20364SOL     OW62988  14.175  11.988   1.650
20364SOL    HW162989  14.263  11.960   1.625
20364SOL    HW262990  14.163  11.953   1.738
20365SOL     OW62991   8.809  14.328  13.377
20365SOL    HW162992   8.839  14.417  13.392
20365SOL    HW262993   8.776  14.298  13.461
20366SOL     OW62994   5.690  12.351   0.300
20366SOL    HW162995   5.758  12.313   0.356
20366SOL    HW262996   5.728  12.348   0.212
20367SOL     OW62997   0.347   6.044   1.212
20367SOL    HW162998   0.298   6.043   1.294
20367SOL    HW262999   0.427   6.093   1.232
20368SOL     OW63000  13.510  10.403   0.568
20368SOL    HW163001  13.535  10.312   0.556
20368SOL    HW263002  13.558  10.450   0.500
20369SOL     OW63003  14.210   4.817   1.037
20369SOL    HW163004  14.283   4.791   0.979
20369SOL    HW263005  14.250   4.825   1.123
20370SOL     OW63006  13.117   0.121   1.834
20370SOL    HW163007  13.192   0.169   1.801
20370SOL    HW263008  13.041   0.160   1.790
20371SOL     OW63009   9.569   3.659  11.195
20371SOL    HW163010   9.544   3.619  11.278
20371SOL    HW263011   9.501   3.723  11.176
20372SOL     OW63012  13.536  13.962   7.210
20372SOL    HW163013  13.604  14.029   7.204
20372SOL    HW263014  13.456  14.006   7.179
20373SOL     OW63015   3.825  14.332   8.904
20373SOL    HW163016   3.818  14.255   8.847
20373SOL    HW263017   3.887  14.306   8.972
20374SOL     OW63018   3.519  14.274  12.475
20374SOL    HW163019   3.428  14.303  12.470
20374SOL    HW263020   3.570  14.355  12.481
20375SOL     OW63021   1.576   5.042  13.663
20375SOL    HW163022   1.523   5.121  13.652
20375SOL    HW263023   1.625   5.058  13.743
20376SOL     OW63024  10.563  14.393   4.968
20376SOL    HW163025  10.550  14.455   4.896
20376SOL    HW263026  10.507  14.319   4.946
20377SOL     OW63027  13.465   4.287   1.928
20377SOL    HW163028  13.378   4.274   1.891
20377SOL    HW263029  13.498   4.199   1.943
20378SOL     OW63030   2.669   7.422   8.463
20378SOL    HW163031   2.594   7.438   8.520
20378SOL    HW263032   2.702   7.509   8.442
20379SOL     OW63033   3.779  10.647   0.672
20379SOL    HW163034   3.868  10.662   0.704
20379SOL    HW263035   3.724  10.704   0.727
20380SOL     OW63036   4.415  13.260   4.682
20380SOL    HW163037   4.420  13.322   4.755
20380SOL    HW263038   4.499  13.268   4.638
20381SOL     OW63039  14.743  10.741   7.910
20381SOL    HW163040  14.823  10.746   7.962
20381SOL    HW263041  14.709  10.653   7.927
20382SOL     OW63042   5.480   0.328  11.111
20382SOL    HW163043   5.414   0.336  11.180
20382SOL    HW263044   5.543   0.264  11.146
20383SOL     OW63045  13.578  12.865   1.289
20383SOL    HW163046  13.521  12.882   1.363
20383SOL    HW263047  13.644  12.803   1.323
20384SOL     OW63048   7.303  12.714   2.098
20384SOL    HW163049   7.219  12.749   2.127
20384SOL    HW263050   7.351  12.698   2.179
20385SOL     OW63051  11.509  14.032   5.399
20385SOL    HW163052  11.462  13.959   5.439
20385SOL    HW263053  11.446  14.104   5.401
20386SOL     OW63054  12.495   6.841   4.050
20386SOL    HW163055  12.439   6.888   3.989
20386SOL    HW263056  12.518   6.907   4.116
20387SOL     OW63057   6.288   9.055   7.020
20387SOL    HW163058   6.332   8.988   7.072
20387SOL    HW263059   6.334   9.054   6.936
20388SOL     OW63060   2.032   8.607   6.738
20388SOL    HW163061   2.022   8.702   6.739
20388SOL    HW263062   1.963   8.574   6.795
20389SOL     OW63063   1.561  14.794   2.034
20389SOL    HW163064   1.654  14.816   2.043
20389SOL    HW263065   1.531  14.785   2.125
20390SOL     OW63066   1.556   6.706   0.091
20390SOL    HW163067   1.614   6.629   0.098
20390SOL    HW263068   1.536   6.729   0.182
20391SOL     OW63069   7.387   6.052   9.913
20391SOL    HW163070   7.369   6.027  10.003
20391SOL    HW263071   7.423   6.141   9.919
20392SOL     OW63072   6.891   5.816   1.848
20392SOL    HW163073   6.908   5.862   1.931
20392SOL    HW263074   6.877   5.886   1.784
20393SOL     OW63075   9.410   5.353  10.192
20393SOL    HW163076   9.492   5.400  10.212
20393SOL    HW263077   9.428   5.309  10.109
20394SOL     OW63078   3.820  11.170  11.184
20394SOL    HW163079   3.773  11.246  11.218
20394SOL    HW263080   3.814  11.180  11.089
20395SOL     OW63081   5.494   7.329   0.157
20395SOL    HW163082   5.534   7.322   0.071
20395SOL    HW263083   5.399   7.330   0.140
20396SOL     OW63084   0.874   0.266  11.629
20396SOL    HW163085   0.779   0.276  11.642
20396SOL    HW263086   0.908   0.250  11.717
20397SOL     OW63087   8.846   1.331   8.829
20397SOL    HW163088   8.929   1.330   8.876
20397SOL    HW263089   8.863   1.280   8.750
20398SOL     OW63090  10.776  10.478   1.466
20398SOL    HW163091  10.689  10.468   1.427
20398SOL    HW263092  10.819  10.545   1.413
20399SOL     OW63093   6.622  13.521   7.871
20399SOL    HW163094   6.718  13.523   7.873
20399SOL    HW263095   6.598  13.470   7.949
20400SOL     OW63096   0.323   0.023   0.267
20400SOL    HW163097   0.385  14.827   0.294
20400SOL    HW263098   0.289   0.059   0.349
20401SOL     OW63099  14.399   8.695   6.095
20401SOL    HW163100  14.460   8.736   6.033
20401SOL    HW263101  14.317   8.687   6.046
20402SOL     OW63102  13.137   5.567   1.474
20402SOL    HW163103  13.050   5.587   1.439
20402SOL    HW263104  13.190   5.549   1.397
20403SOL     OW63105   7.774   4.816   7.132
20403SOL    HW163106   7.800   4.795   7.043
20403SOL    HW263107   7.749   4.909   7.128
20404SOL     OW63108   2.229   6.173   3.053
20404SOL    HW163109   2.310   6.133   3.084
20404SOL    HW263110   2.159   6.119   3.090
20405SOL     OW63111  13.580  12.937   8.994
20405SOL    HW163112  13.518  12.864   8.993
20405SOL    HW263113  13.606  12.946   9.085
20406SOL     OW63114   0.244   6.199   4.653
20406SOL    HW163115   0.330   6.172   4.622
20406SOL    HW263116   0.188   6.123   4.637
20407SOL     OW63117   9.574   4.861   0.893
20407SOL    HW163118   9.573   4.775   0.936
20407SOL    HW263119   9.528   4.919   0.955
20408SOL     OW63120   0.157   9.334   6.594
20408SOL    HW163121   0.199   9.267   6.540
20408SOL    HW263122   0.161   9.414   6.541
20409SOL     OW63123   9.361   7.620   2.728
20409SOL    HW163124   9.277   7.654   2.696
20409SOL    HW263125   9.339   7.573   2.808
20410SOL     OW63126   5.146   8.438   1.788
20410SOL    HW163127   5.056   8.404   1.789
20410SOL    HW263128   5.192   8.383   1.726
20411SOL     OW63129   0.962   3.388  14.212
20411SOL    HW163130   1.039   3.437  14.184
20411SOL    HW263131   0.902   3.392  14.138
20412SOL     OW63132   0.608   4.792  11.564
20412SOL    HW163133   0.701   4.815  11.563
20412SOL    HW263134   0.596   4.745  11.647
20413SOL     OW63135   3.803   7.369   7.927
20413SOL    HW163136   3.779   7.460   7.912
20413SOL    HW263137   3.725   7.319   7.903
20414SOL     OW63138  10.116  12.244   2.677
20414SOL    HW163139  10.031  12.279   2.649
20414SOL    HW263140  10.179  12.291   2.623
20415SOL     OW63141  14.587   9.470   0.148
20415SOL    HW163142  14.649   9.465   0.221
20415SOL    HW263143  14.561   9.562   0.145
20416SOL     OW63144  10.920   4.830  10.513
20416SOL    HW163145  10.860   4.795  10.579
20416SOL    HW263146  10.878   4.912  10.485
20417SOL     OW63147  10.453  10.641   1.857
20417SOL    HW163148  10.411  10.687   1.784
20417SOL    HW263149  10.410  10.556   1.860
20418SOL     OW63150   3.085   6.675   6.818
20418SOL    HW163151   3.060   6.766   6.803
20418SOL    HW263152   3.010   6.637   6.863
20419SOL     OW63153  13.376   1.351  14.147
20419SOL    HW163154  13.287   1.371  14.175
20419SOL    HW263155  13.382   1.385  14.058
20420SOL     OW63156  14.753   1.831  11.846
20420SOL    HW163157  14.802   1.907  11.816
20420SOL    HW263158  14.818   1.761  11.854
20421SOL     OW63159   8.138   8.913  11.915
20421SOL    HW163160   8.108   8.935  11.826
20421SOL    HW263161   8.063   8.868  11.954
20422SOL     OW63162  11.556   5.502  10.384
20422SOL    HW163163  11.633   5.550  10.354
20422SOL    HW263164  11.570   5.412  10.355
20423SOL     OW63165   6.471   2.746   9.361
20423SOL    HW163166   6.520   2.676   9.317
20423SOL    HW263167   6.383   2.709   9.373
20424SOL     OW63168   6.433   2.543   0.378
20424SOL    HW163169   6.377   2.597   0.433
20424SOL    HW263170   6.381   2.465   0.360
20425SOL     OW63171  11.218   7.797   0.737
20425SOL    HW163172  11.140   7.760   0.777
20425SOL    HW263173  11.199   7.890   0.726
20426SOL     OW63174   6.505  11.909   7.804
20426SOL    HW163175   6.467  11.872   7.724
20426SOL    HW263176   6.483  12.002   7.800
20427SOL     OW63177   5.814   5.634   3.560
20427SOL    HW163178   5.796   5.612   3.468
20427SOL    HW263179   5.863   5.559   3.593
20428SOL     OW63180  11.697   0.186   6.676
20428SOL    HW163181  11.787   0.158   6.691
20428SOL    HW263182  11.664   0.205   6.764
20429SOL     OW63183  14.610   5.939  13.539
20429SOL    HW163184  14.693   5.978  13.512
20429SOL    HW263185  14.596   5.971  13.628
20430SOL     OW63186   1.304   6.729   7.709
20430SOL    HW163187   1.384   6.699   7.752
20430SOL    HW263188   1.308   6.824   7.713
20431SOL     OW63189   9.703   3.870   4.952
20431SOL    HW163190   9.709   3.915   4.868
20431SOL    HW263191   9.646   3.925   5.005
20432SOL     OW63192  13.805   3.466   2.561
20432SOL    HW163193  13.815   3.394   2.623
20432SOL    HW263194  13.711   3.471   2.543
20433SOL     OW63195  11.660  14.811   6.408
20433SOL    HW163196  11.734  14.766   6.367
20433SOL    HW263197  11.629  14.751   6.475
20434SOL     OW63198  11.466   9.777  11.177
20434SOL    HW163199  11.519   9.853  11.154
20434SOL    HW263200  11.408   9.764  11.102
20435SOL     OW63201   7.089   0.168   9.999
20435SOL    HW163202   7.014   0.187   9.943
20435SOL    HW263203   7.122   0.084   9.966
20436SOL     OW63204   8.253  12.861  13.434
20436SOL    HW163205   8.269  12.825  13.347
20436SOL    HW263206   8.164  12.896  13.430
20437SOL     OW63207   8.347   5.568   0.735
20437SOL    HW163208   8.368   5.627   0.808
20437SOL    HW263209   8.432   5.534   0.707
20438SOL     OW63210  11.560  14.663  11.929
20438SOL    HW163211  11.466  14.676  11.916
20438SOL    HW263212  11.599  14.747  11.904
20439SOL     OW63213   1.429   4.285   0.476
20439SOL    HW163214   1.454   4.235   0.398
20439SOL    HW263215   1.381   4.222   0.530
20440SOL     OW63216   9.696   4.932   8.196
20440SOL    HW163217   9.652   4.983   8.264
20440SOL    HW263218   9.735   4.997   8.138
20441SOL     OW63219  12.900   1.047   9.766
20441SOL    HW163220  12.959   1.077   9.835
20441SOL    HW263221  12.906   1.114   9.698
20442SOL     OW63222   0.179   8.953   8.270
20442SOL    HW163223   0.129   8.908   8.202
20442SOL    HW263224   0.158   8.905   8.350
20443SOL     OW63225   9.997   5.008   0.035
20443SOL    HW163226   9.986   5.091  14.861
20443SOL    HW263227  10.016   5.032   0.126
20444SOL     OW63228  14.170  11.204   4.156
20444SOL    HW163229  14.168  11.279   4.097
20444SOL    HW263230  14.184  11.242   4.243
20445SOL     OW63231  13.061   9.701   3.941
20445SOL    HW163232  12.991   9.666   3.887
20445SOL    HW263233  13.055   9.651   4.023
20446SOL     OW63234   0.335   0.352   5.004
20446SOL    HW163235   0.408   0.304   4.965
20446SOL    HW263236   0.267   0.287   5.018
20447SOL     OW63237   3.546   9.808   9.859
20447SOL    HW163238   3.589   9.768   9.783
20447SOL    HW263239   3.566   9.901   9.851
20448SOL     OW63240   8.727  11.953  11.973
20448SOL    HW163241   8.768  11.895  11.910
20448SOL    HW263242   8.763  12.040  11.953
20449SOL     OW63243   5.290  12.825   2.051
20449SOL    HW163244   5.345  12.749   2.031
20449SOL    HW263245   5.337  12.872   2.119
20450SOL     OW63246  10.192  12.909   2.367
20450SOL    HW163247  10.270  12.964   2.359
20450SOL    HW263248  10.185  12.865   2.282
20451SOL     OW63249   9.842   0.938  10.557
20451SOL    HW163250   9.799   1.014  10.518
20451SOL    HW263251   9.925   0.930  10.511
20452SOL     OW63252   9.586   9.242  11.964
20452SOL    HW163253   9.680   9.251  11.950
20452SOL    HW263254   9.578   9.229  12.059
20453SOL     OW63255  10.446   9.285   8.819
20453SOL    HW163256  10.382   9.327   8.876
20453SOL    HW263257  10.506   9.240   8.880
20454SOL     OW63258   7.462  10.564   0.671
20454SOL    HW163259   7.523  10.599   0.735
20454SOL    HW263260   7.496  10.594   0.586
20455SOL     OW63261   9.144   4.495  12.534
20455SOL    HW163262   9.202   4.559  12.492
20455SOL    HW263263   9.066   4.493  12.479
20456SOL     OW63264  14.678   9.555   8.697
20456SOL    HW163265  14.596   9.591   8.731
20456SOL    HW263266  14.650   9.489   8.634
20457SOL     OW63267   5.017   0.198  12.049
20457SOL    HW163268   5.014   0.229  11.958
20457SOL    HW263269   4.946   0.135  12.055
20458SOL     OW63270   2.725  10.150   4.037
20458SOL    HW163271   2.723  10.163   3.942
20458SOL    HW263272   2.648  10.096   4.055
20459SOL     OW63273   9.198  13.953   0.726
20459SOL    HW163274   9.294  13.947   0.733
20459SOL    HW263275   9.177  13.905   0.646
20460SOL     OW63276   3.082   0.926  14.679
20460SOL    HW163277   3.117   1.013  14.658
20460SOL    HW263278   3.095   0.917  14.773
20461SOL     OW63279   4.142  14.657  11.261
20461SOL    HW163280   4.231  14.690  11.261
20461SOL    HW263281   4.140  14.593  11.333
20462SOL     OW63282  13.153   6.689   5.160
20462SOL    HW163283  13.155   6.664   5.252
20462SOL    HW263284  13.244   6.709   5.139
20463SOL     OW63285  12.071  12.133  13.645
20463SOL    HW163286  12.098  12.049  13.608
20463SOL    HW263287  11.985  12.151  13.605
20464SOL     OW63288   0.799   8.813   1.772
20464SOL    HW163289   0.772   8.833   1.682
20464SOL    HW263290   0.823   8.721   1.770
20465SOL     OW63291   2.964  10.327  10.270
20465SOL    HW163292   2.955  10.342  10.364
20465SOL    HW263293   2.935  10.409  10.230
20466SOL     OW63294   5.497  10.878   1.608
20466SOL    HW163295   5.407  10.858   1.582
20466SOL    HW263296   5.491  10.905   1.699
20467SOL     OW63297   6.703  11.895   2.122
20467SOL    HW163298   6.692  11.809   2.082
20467SOL    HW263299   6.639  11.898   2.193
20468SOL     OW63300  13.955   8.626  11.007
20468SOL    HW163301  13.940   8.589  10.920
20468SOL    HW263302  14.031   8.578  11.041
20469SOL     OW63303  10.101  12.750   5.966
20469SOL    HW163304  10.023  12.718   6.012
20469SOL    HW263305  10.081  12.736   5.874
20470SOL     OW63306  12.658   1.444   9.025
20470SOL    HW163307  12.685   1.528   8.989
20470SOL    HW263308  12.711   1.380   8.980
20471SOL     OW63309  12.382   1.743  14.185
20471SOL    HW163310  12.389   1.737  14.280
20471SOL    HW263311  12.442   1.676  14.152
20472SOL     OW63312   9.198  12.928   2.121
20472SOL    HW163313   9.126  12.992   2.120
20472SOL    HW263314   9.274  12.978   2.150
20473SOL     OW63315   3.547   3.839   6.350
20473SOL    HW163316   3.582   3.826   6.437
20473SOL    HW263317   3.595   3.778   6.294
20474SOL     OW63318   1.558   7.322   9.942
20474SOL    HW163319   1.553   7.236   9.984
20474SOL    HW263320   1.468   7.355   9.944
20475SOL     OW63321  14.612   7.928  11.465
20475SOL    HW163322  14.559   7.921  11.385
20475SOL    HW263323  14.588   7.851  11.516
20476SOL     OW63324  11.356   0.796   7.216
20476SOL    HW163325  11.261   0.787   7.220
20476SOL    HW263326  11.389   0.728   7.276
20477SOL     OW63327  12.368   2.334   1.349
20477SOL    HW163328  12.429   2.397   1.387
20477SOL    HW263329  12.369   2.352   1.255
20478SOL     OW63330  13.233   3.156   4.817
20478SOL    HW163331  13.308   3.148   4.877
20478SOL    HW263332  13.197   3.243   4.836
20479SOL     OW63333   0.293   1.485   6.474
20479SOL    HW163334   0.270   1.393   6.462
20479SOL    HW263335   0.216   1.524   6.516
20480SOL     OW63336   5.116  13.110   5.627
20480SOL    HW163337   5.128  13.016   5.620
20480SOL    HW263338   5.200  13.147   5.599
20481SOL     OW63339   4.382  11.872  14.561
20481SOL    HW163340   4.320  11.850  14.491
20481SOL    HW263341   4.452  11.920  14.516
20482SOL     OW63342   7.616  10.725   7.697
20482SOL    HW163343   7.596  10.794   7.633
20482SOL    HW263344   7.664  10.659   7.648
20483SOL     OW63345  13.062   9.595  10.376
20483SOL    HW163346  13.135   9.547  10.338
20483SOL    HW263347  13.052   9.673  10.320
20484SOL     OW63348  10.225   0.818  10.904
20484SOL    HW163349  10.316   0.846  10.915
20484SOL    HW263350  10.182   0.892  10.862
20485SOL     OW63351   9.259   4.992   4.379
20485SOL    HW163352   9.211   5.047   4.442
20485SOL    HW263353   9.302   4.926   4.433
20486SOL     OW63354   3.945   6.208   5.738
20486SOL    HW163355   4.024   6.221   5.686
20486SOL    HW263356   3.877   6.256   5.691
20487SOL     OW63357  14.507   5.188   7.892
20487SOL    HW163358  14.528   5.245   7.818
20487SOL    HW263359  14.497   5.248   7.967
20488SOL     OW63360   0.810   3.826   9.820
20488SOL    HW163361   0.806   3.819   9.915
20488SOL    HW263362   0.815   3.735   9.789
20489SOL     OW63363   6.969   0.206   3.737
20489SOL    HW163364   6.886   0.213   3.782
20489SOL    HW263365   6.968   0.275   3.671
20490SOL     OW63366  11.831   0.678   9.275
20490SOL    HW163367  11.751   0.725   9.297
20490SOL    HW263368  11.821   0.657   9.182
20491SOL     OW63369   0.984   7.828   5.424
20491SOL    HW163370   0.984   7.900   5.360
20491SOL    HW263371   1.018   7.868   5.504
20492SOL     OW63372  11.210  11.486  10.808
20492SOL    HW163373  11.263  11.415  10.844
20492SOL    HW263374  11.177  11.533  10.884
20493SOL     OW63375   7.541  12.961  13.518
20493SOL    HW163376   7.618  12.968  13.574
20493SOL    HW263377   7.575  12.937  13.432
20494SOL     OW63378   4.269   3.887   1.002
20494SOL    HW163379   4.198   3.823   1.003
20494SOL    HW263380   4.349   3.834   1.004
20495SOL     OW63381   8.377   2.249   8.332
20495SOL    HW163382   8.296   2.212   8.368
20495SOL    HW263383   8.361   2.258   8.238
20496SOL     OW63384   8.609   4.004   6.764
20496SOL    HW163385   8.666   4.080   6.757
20496SOL    HW263386   8.521   4.038   6.753
20497SOL     OW63387  12.105   2.328  10.483
20497SOL    HW163388  12.069   2.244  10.454
20497SOL    HW263389  12.131   2.372  10.402
20498SOL     OW63390   2.629  10.987   6.724
20498SOL    HW163391   2.565  11.052   6.752
20498SOL    HW263392   2.670  11.026   6.647
20499SOL     OW63393   5.994  11.566   0.999
20499SOL    HW163394   5.973  11.516   1.077
20499SOL    HW263395   6.089  11.577   1.003
20500SOL     OW63396  10.397   2.234   6.286
20500SOL    HW163397  10.447   2.217   6.206
20500SOL    HW263398  10.460   2.274   6.345
20501SOL     OW63399   1.747   2.679  12.527
20501SOL    HW163400   1.656   2.651  12.531
20501SOL    HW263401   1.790   2.631  12.598
20502SOL     OW63402   7.959   6.340   0.022
20502SOL    HW163403   7.923   6.271   0.079
20502SOL    HW263404   7.886   6.401   0.010
20503SOL     OW63405   6.277   9.043   8.091
20503SOL    HW163406   6.288   9.133   8.124
20503SOL    HW263407   6.327   9.041   8.010
20504SOL     OW63408   3.771   0.131  13.210
20504SOL    HW163409   3.750   0.131  13.116
20504SOL    HW263410   3.732   0.050  13.243
20505SOL     OW63411  12.213   6.080  11.037
20505SOL    HW163412  12.208   6.170  11.003
20505SOL    HW263413  12.125   6.061  11.069
20506SOL     OW63414   3.004   1.807  12.651
20506SOL    HW163415   3.071   1.763  12.704
20506SOL    HW263416   3.036   1.799  12.561
20507SOL     OW63417   6.010   8.800   8.841
20507SOL    HW163418   6.067   8.822   8.915
20507SOL    HW263419   6.038   8.858   8.770
20508SOL     OW63420  14.273  10.320  11.176
20508SOL    HW163421  14.196  10.349  11.128
20508SOL    HW263422  14.266  10.364  11.261
20509SOL     OW63423   1.307   6.864  11.961
20509SOL    HW163424   1.280   6.785  11.916
20509SOL    HW263425   1.248   6.932  11.927
20510SOL     OW63426   4.532   4.622   4.308
20510SOL    HW163427   4.510   4.715   4.300
20510SOL    HW263428   4.516   4.602   4.401
20511SOL     OW63429  11.334   1.515   2.346
20511SOL    HW163430  11.391   1.484   2.275
20511SOL    HW263431  11.266   1.447   2.353
20512SOL     OW63432   3.372   5.498   0.448
20512SOL    HW163433   3.301   5.463   0.501
20512SOL    HW263434   3.447   5.443   0.469
20513SOL     OW63435   6.080  14.427   8.481
20513SOL    HW163436   6.152  14.372   8.512
20513SOL    HW263437   6.048  14.384   8.402
20514SOL     OW63438   4.360   9.521  12.810
20514SOL    HW163439   4.375   9.467  12.888
20514SOL    HW263440   4.288   9.579  12.833
20515SOL     OW63441  12.476   0.340  13.469
20515SOL    HW163442  12.555   0.340  13.524
20515SOL    HW263443  12.500   0.392  13.393
20516SOL     OW63444   3.331   0.272   8.434
20516SOL    HW163445   3.374   0.223   8.504
20516SOL    HW263446   3.318   0.207   8.365
20517SOL     OW63447  10.505  11.228   9.404
20517SOL    HW163448  10.480  11.282   9.479
20517SOL    HW263449  10.562  11.160   9.441
20518SOL     OW63450   4.711   4.701   0.522
20518SOL    HW163451   4.637   4.654   0.484
20518SOL    HW263452   4.674   4.785   0.549
20519SOL     OW63453   5.014  11.211   3.021
20519SOL    HW163454   5.038  11.295   3.061
20519SOL    HW263455   4.995  11.233   2.930
20520SOL     OW63456   6.802   1.092   9.851
20520SOL    HW163457   6.825   1.109   9.942
20520SOL    HW263458   6.743   1.017   9.854
20521SOL     OW63459  10.958   3.598   5.585
20521SOL    HW163460  11.030   3.657   5.564
20521SOL    HW263461  10.974   3.572   5.676
20522SOL     OW63462   0.418   8.964  14.279
20522SOL    HW163463   0.512   8.982  14.268
20522SOL    HW263464   0.390   8.929  14.195
20523SOL     OW63465  11.747  14.608   7.215
20523SOL    HW163466  11.781  14.602   7.126
20523SOL    HW263467  11.824  14.597   7.271
20524SOL     OW63468   2.114   5.979   0.965
20524SOL    HW163469   2.207   5.976   0.942
20524SOL    HW263470   2.080   5.894   0.937
20525SOL     OW63471  10.388   8.506   7.044
20525SOL    HW163472  10.362   8.595   7.067
20525SOL    HW263473  10.319   8.475   6.985
20526SOL     OW63474   1.451   6.791  10.049
20526SOL    HW163475   1.508   6.718  10.073
20526SOL    HW263476   1.442   6.842  10.129
20527SOL     OW63477   4.932   9.826  11.184
20527SOL    HW163478   4.904   9.766  11.253
20527SOL    HW263479   5.023   9.847  11.205
20528SOL     OW63480   4.454   4.628   8.714
20528SOL    HW163481   4.546   4.620   8.741
20528SOL    HW263482   4.405   4.629   8.796
20529SOL     OW63483  11.944   5.130  11.889
20529SOL    HW163484  12.033   5.139  11.922
20529SOL    HW263485  11.900   5.211  11.914
20530SOL     OW63486   4.497  10.963   3.077
20530SOL    HW163487   4.512  10.938   2.986
20530SOL    HW263488   4.533  11.052   3.083
20531SOL     OW63489   1.847  11.073  14.357
20531SOL    HW163490   1.880  11.136  14.293
20531SOL    HW263491   1.923  11.017  14.375
20532SOL     OW63492  10.970  14.479   8.501
20532SOL    HW163493  10.939  14.513   8.417
20532SOL    HW263494  10.914  14.523   8.566
20533SOL     OW63495  12.448  14.202   5.952
20533SOL    HW163496  12.367  14.160   5.984
20533SOL    HW263497  12.515  14.174   6.015
20534SOL     OW63498   9.042   9.397   7.273
20534SOL    HW163499   9.000   9.482   7.262
20534SOL    HW263500   9.009   9.364   7.357
20535SOL     OW63501  13.656   1.538   2.185
20535SOL    HW163502  13.742   1.544   2.226
20535SOL    HW263503  13.618   1.457   2.220
20536SOL     OW63504   6.404   0.459  10.162
20536SOL    HW163505   6.316   0.426  10.179
20536SOL    HW263506   6.405   0.546  10.203
20537SOL     OW63507   0.851   7.656   0.621
20537SOL    HW163508   0.879   7.599   0.693
20537SOL    HW263509   0.931   7.676   0.574
20538SOL     OW63510   6.268  12.984   6.661
20538SOL    HW163511   6.200  13.050   6.644
20538SOL    HW263512   6.226  12.920   6.717
20539SOL     OW63513   5.396   5.912   1.285
20539SOL    HW163514   5.311   5.882   1.255
20539SOL    HW263515   5.378   5.989   1.338
20540SOL     OW63516   6.069  10.209  12.500
20540SOL    HW163517   6.074  10.150  12.575
20540SOL    HW263518   5.978  10.238  12.498
20541SOL     OW63519  10.416  10.930  13.904
20541SOL    HW163520  10.366  11.012  13.905
20541SOL    HW263521  10.387  10.883  13.982
20542SOL     OW63522  12.959  10.635   9.182
20542SOL    HW163523  12.877  10.596   9.211
20542SOL    HW263524  12.955  10.725   9.213
20543SOL     OW63525   4.485   0.227   7.981
20543SOL    HW163526   4.408   0.182   7.946
20543SOL    HW263527   4.532   0.160   8.031
20544SOL     OW63528   0.900   6.019  10.063
20544SOL    HW163529   0.863   5.960   9.997
20544SOL    HW263530   0.972   5.968  10.102
20545SOL     OW63531  13.059   2.883   1.891
20545SOL    HW163532  13.106   2.847   1.967
20545SOL    HW263533  13.117   2.867   1.817
20546SOL     OW63534   1.081   8.694   8.342
20546SOL    HW163535   1.095   8.648   8.259
20546SOL    HW263536   1.164   8.684   8.389
20547SOL     OW63537   2.008   4.637   9.117
20547SOL    HW163538   2.097   4.613   9.143
20547SOL    HW263539   1.968   4.555   9.089
20548SOL     OW63540   6.930   2.806   6.124
20548SOL    HW163541   6.862   2.814   6.192
20548SOL    HW263542   6.965   2.718   6.136
20549SOL     OW63543  13.400  11.740   6.966
20549SOL    HW163544  13.467  11.715   6.902
20549SOL    HW263545  13.323  11.760   6.913
20550SOL     OW63546   9.908  12.582   1.626
20550SOL    HW163547   9.819  12.616   1.631
20550SOL    HW263548   9.934  12.596   1.535
20551SOL     OW63549  12.557   0.689   8.892
20551SOL    HW163550  12.593   0.759   8.836
20551SOL    HW263551  12.622   0.679   8.962
20552SOL     OW63552   4.462  10.570   1.407
20552SOL    HW163553   4.483  10.577   1.500
20552SOL    HW263554   4.403  10.496   1.401
20553SOL     OW63555   1.344  11.978   6.328
20553SOL    HW163556   1.260  11.933   6.314
20553SOL    HW263557   1.376  11.996   6.239
20554SOL     OW63558   1.634   1.349   8.417
20554SOL    HW163559   1.716   1.393   8.395
20554SOL    HW263560   1.623   1.365   8.511
20555SOL     OW63561   2.917  10.070  12.677
20555SOL    HW163562   2.864  10.027  12.610
20555SOL    HW263563   2.978  10.003  12.707
20556SOL     OW63564  13.517  10.345   6.801
20556SOL    HW163565  13.433  10.310   6.772
20556SOL    HW263566  13.582  10.281   6.772
20557SOL     OW63567   5.054  11.535   0.804
20557SOL    HW163568   5.028  11.561   0.893
20557SOL    HW263569   5.149  11.545   0.803
20558SOL     OW63570  13.607   5.206   9.244
20558SOL    HW163571  13.597   5.186   9.151
20558SOL    HW263572  13.701   5.224   9.255
20559SOL     OW63573   1.128   2.169   2.866
20559SOL    HW163574   1.085   2.134   2.943
20559SOL    HW263575   1.149   2.260   2.889
20560SOL     OW63576   8.470  11.386   4.206
20560SOL    HW163577   8.408  11.459   4.218
20560SOL    HW263578   8.492  11.359   4.295
20561SOL     OW63579   4.593   5.005  14.775
20561SOL    HW163580   4.605   4.934  14.712
20561SOL    HW263581   4.527   5.062  14.736
20562SOL     OW63582  13.862   8.565   8.613
20562SOL    HW163583  13.775   8.596   8.641
20562SOL    HW263584  13.892   8.512   8.686
20563SOL     OW63585   1.757   8.306   8.892
20563SOL    HW163586   1.848   8.278   8.905
20563SOL    HW263587   1.763   8.378   8.829
20564SOL     OW63588  12.816   0.155   4.997
20564SOL    HW163589  12.876   0.082   5.012
20564SOL    HW263590  12.736   0.130   5.043
20565SOL     OW63591   7.669  10.950   4.400
20565SOL    HW163592   7.632  10.903   4.325
20565SOL    HW263593   7.710  10.882   4.453
20566SOL     OW63594   9.744   2.270   5.779
20566SOL    HW163595   9.696   2.324   5.717
20566SOL    HW263596   9.836   2.286   5.757
20567SOL     OW63597   1.518  11.643  11.440
20567SOL    HW163598   1.523  11.738  11.425
20567SOL    HW263599   1.428  11.629  11.471
20568SOL     OW63600   4.093  11.123  12.122
20568SOL    HW163601   4.126  11.136  12.033
20568SOL    HW263602   4.088  11.028  12.132
20569SOL     OW63603  10.827  12.341  13.315
20569SOL    HW163604  10.820  12.253  13.277
20569SOL    HW263605  10.746  12.385  13.288
20570SOL     OW63606   0.056   8.708  12.725
20570SOL    HW163607   0.076   8.790  12.678
20570SOL    HW263608   0.071   8.730  12.817
20571SOL     OW63609   2.293  14.781   8.897
20571SOL    HW163610   2.367  14.723   8.909
20571SOL    HW263611   2.243  14.775   8.979
20572SOL     OW63612   4.128  12.867   7.741
20572SOL    HW163613   4.140  12.872   7.836
20572SOL    HW263614   4.164  12.781   7.717
20573SOL     OW63615   1.977  12.530  10.108
20573SOL    HW163616   1.934  12.446  10.095
20573SOL    HW263617   1.949  12.584  10.034
20574SOL     OW63618   8.067   7.759  14.139
20574SOL    HW163619   8.034   7.803  14.060
20574SOL    HW263620   8.160   7.746  14.122
20575SOL     OW63621   4.161   2.630  11.757
20575SOL    HW163622   4.167   2.613  11.852
20575SOL    HW263623   4.227   2.571  11.719
20576SOL     OW63624  13.728   4.197   6.330
20576SOL    HW163625  13.720   4.132   6.260
20576SOL    HW263626  13.753   4.146   6.407
20577SOL     OW63627   3.476   6.481  14.662
20577SOL    HW163628   3.407   6.454  14.723
20577SOL    HW263629   3.430   6.521  14.589
20578SOL     OW63630  12.956   5.081  14.230
20578SOL    HW163631  12.893   5.143  14.193
20578SOL    HW263632  13.016   5.063  14.158
20579SOL     OW63633   7.838   3.981  14.803
20579SOL    HW163634   7.818   3.978  14.709
20579SOL    HW263635   7.868   3.892  14.824
20580SOL     OW63636  12.899  11.626  13.805
20580SOL    HW163637  12.938  11.538  13.806
20580SOL    HW263638  12.948  11.675  13.871
20581SOL     OW63639   5.491  14.519   7.370
20581SOL    HW163640   5.457  14.435   7.341
20581SOL    HW263641   5.534  14.500   7.454
20582SOL     OW63642  11.650   4.160  12.474
20582SOL    HW163643  11.728   4.157  12.528
20582SOL    HW263644  11.656   4.083  12.418
20583SOL     OW63645   0.422  13.551   3.915
20583SOL    HW163646   0.459  13.596   3.839
20583SOL    HW263647   0.498  13.514   3.960
20584SOL     OW63648  12.090   0.948  10.194
20584SOL    HW163649  12.090   0.955  10.099
20584SOL    HW263650  12.061   1.034  10.225
20585SOL     OW63651   1.060   2.961   5.539
20585SOL    HW163652   1.155   2.954   5.550
20585SOL    HW263653   1.030   2.870   5.534
20586SOL     OW63654   0.029   9.325   1.301
20586SOL    HW163655  14.842   9.303   1.374
20586SOL    HW263656   0.020   9.419   1.291
20587SOL     OW63657   2.997   9.153   3.394
20587SOL    HW163658   2.903   9.135   3.404
20587SOL    HW263659   3.002   9.205   3.314
20588SOL     OW63660   6.291   2.644   0.816
20588SOL    HW163661   6.246   2.640   0.731
20588SOL    HW263662   6.318   2.736   0.824
20589SOL     OW63663   7.894  14.845   5.664
20589SOL    HW163664   7.922   0.044   5.722
20589SOL    HW263665   7.938  14.863   5.581
20590SOL     OW63666   1.463  14.570   7.625
20590SOL    HW163667   1.398  14.506   7.596
20590SOL    HW263668   1.422  14.655   7.610
20591SOL     OW63669   8.175   0.714  11.761
20591SOL    HW163670   8.206   0.695  11.672
20591SOL    HW263671   8.208   0.642  11.814
20592SOL     OW63672  13.085   4.707   8.906
20592SOL    HW163673  13.004   4.716   8.855
20592SOL    HW263674  13.056   4.712   8.997
20593SOL     OW63675   4.613   8.982   7.184
20593SOL    HW163676   4.629   8.961   7.276
20593SOL    HW263677   4.664   9.061   7.168
20594SOL     OW63678  14.714  10.326  14.845
20594SOL    HW163679  14.641  10.380   0.002
20594SOL    HW263680  14.781  10.388  14.815
20595SOL     OW63681   5.393   5.354   5.705
20595SOL    HW163682   5.446   5.430   5.683
20595SOL    HW263683   5.327   5.388   5.766
20596SOL     OW63684   2.114   9.864   5.868
20596SOL    HW163685   2.049   9.884   5.801
20596SOL    HW263686   2.090   9.920   5.942
20597SOL     OW63687   4.920   0.712  11.387
20597SOL    HW163688   4.932   0.743  11.477
20597SOL    HW263689   5.007   0.718  11.348
20598SOL     OW63690   6.231   6.626   7.730
20598SOL    HW163691   6.307   6.596   7.780
20598SOL    HW263692   6.249   6.719   7.714
20599SOL     OW63693   3.800   2.675   2.212
20599SOL    HW163694   3.854   2.681   2.291
20599SOL    HW263695   3.735   2.608   2.232
20600SOL     OW63696   4.229  14.266  12.567
20600SOL    HW163697   4.241  14.265  12.662
20600SOL    HW263698   4.239  14.358  12.543
20601SOL     OW63699  10.036   2.390  12.037
20601SOL    HW163700  10.100   2.454  12.007
20601SOL    HW263701  10.087   2.327  12.088
20602SOL     OW63702  14.545   1.363   7.561
20602SOL    HW163703  14.596   1.325   7.490
20602SOL    HW263704  14.590   1.334   7.641
20603SOL     OW63705   7.991   2.337  13.853
20603SOL    HW163706   8.063   2.388  13.817
20603SOL    HW263707   7.945   2.397  13.911
20604SOL     OW63708   5.290  13.210  12.319
20604SOL    HW163709   5.297  13.146  12.390
20604SOL    HW263710   5.373  13.204  12.272
20605SOL     OW63711   5.160   0.699   8.984
20605SOL    HW163712   5.081   0.680   8.934
20605SOL    HW263713   5.231   0.663   8.932
20606SOL     OW63714  12.918   2.867   0.219
20606SOL    HW163715  12.984   2.871   0.287
20606SOL    HW263716  12.967   2.854   0.138
20607SOL     OW63717   0.842   0.832   8.975
20607SOL    HW163718   0.935   0.855   8.973
20607SOL    HW263719   0.830   0.771   8.902
20608SOL     OW63720  14.694   9.443   5.309
20608SOL    HW163721  14.607   9.478   5.328
20608SOL    HW263722  14.686   9.405   5.221
20609SOL     OW63723   0.471  13.700   3.682
20609SOL    HW163724   0.473  13.774   3.621
20609SOL    HW263725   0.448  13.625   3.628
20610SOL     OW63726   9.721   0.400   9.354
20610SOL    HW163727   9.740   0.393   9.447
20610SOL    HW263728   9.800   0.369   9.311
20611SOL     OW63729   1.430  13.962   4.243
20611SOL    HW163730   1.451  13.874   4.211
20611SOL    HW263731   1.352  13.950   4.296
20612SOL     OW63732   2.872   1.975  13.136
20612SOL    HW163733   2.934   1.913  13.173
20612SOL    HW263734   2.899   1.984  13.045
20613SOL     OW63735   5.324   7.919   8.981
20613SOL    HW163736   5.290   7.892   9.066
20613SOL    HW263737   5.419   7.919   8.991
20614SOL     OW63738   6.174  13.800  12.991
20614SOL    HW163739   6.217  13.719  12.962
20614SOL    HW263740   6.226  13.830  13.065
20615SOL     OW63741   8.796   9.277   4.973
20615SOL    HW163742   8.745   9.269   4.893
20615SOL    HW263743   8.812   9.186   5.000
20616SOL     OW63744   4.390  14.660  13.248
20616SOL    HW163745   4.399  14.669  13.343
20616SOL    HW263746   4.479  14.673  13.214
20617SOL     OW63747  14.680   4.166   6.731
20617SOL    HW163748  14.592   4.168   6.769
20617SOL    HW263749  14.678   4.236   6.665
20618SOL     OW63750  12.255   0.035   2.362
20618SOL    HW163751  12.167   0.057   2.330
20618SOL    HW263752  12.277  14.825   2.319
20619SOL     OW63753  13.584   2.682   1.948
20619SOL    HW163754  13.562   2.743   2.018
20619SOL    HW263755  13.562   2.596   1.983
20620SOL     OW63756   3.361   3.232   5.051
20620SOL    HW163757   3.431   3.279   5.095
20620SOL    HW263758   3.406   3.168   4.995
20621SOL     OW63759  11.060   9.295   6.760
20621SOL    HW163760  11.012   9.374   6.735
20621SOL    HW263761  11.030   9.277   6.849
20622SOL     OW63762   0.158   8.801   6.713
20622SOL    HW163763   0.116   8.856   6.646
20622SOL    HW263764   0.115   8.716   6.705
20623SOL     OW63765   5.573   1.077   9.374
20623SOL    HW163766   5.626   1.156   9.362
20623SOL    HW263767   5.555   1.046   9.285
20624SOL     OW63768  13.364   5.072   7.430
20624SOL    HW163769  13.348   5.136   7.499
20624SOL    HW263770  13.440   5.107   7.382
20625SOL     OW63771  11.314   5.332   4.984
20625SOL    HW163772  11.375   5.406   4.989
20625SOL    HW263773  11.257   5.343   5.061
20626SOL     OW63774   5.370   5.121   8.901
20626SOL    HW163775   5.417   5.199   8.871
20626SOL    HW263776   5.357   5.069   8.822
20627SOL     OW63777   0.419   4.295   0.771
20627SOL    HW163778   0.363   4.290   0.849
20627SOL    HW263779   0.387   4.371   0.724
20628SOL     OW63780   9.712   2.249  11.757
20628SOL    HW163781   9.787   2.277  11.705
20628SOL    HW263782   9.745   2.177  11.810
20629SOL     OW63783   8.346   1.330   6.489
20629SOL    HW163784   8.293   1.334   6.410
20629SOL    HW263785   8.351   1.236   6.510
20630SOL     OW63786   3.178   7.261   8.899
20630SOL    HW163787   3.147   7.318   8.829
20630SOL    HW263788   3.273   7.255   8.885
20631SOL     OW63789  13.747   5.118  13.781
20631SOL    HW163790  13.658   5.131  13.747
20631SOL    HW263791  13.758   5.024  13.784
20632SOL     OW63792  10.932  10.959   6.798
20632SOL    HW163793  10.885  10.973   6.716
20632SOL    HW263794  10.864  10.969   6.865
20633SOL     OW63795  11.665  10.671   9.441
20633SOL    HW163796  11.729  10.740   9.462
20633SOL    HW263797  11.713  10.589   9.455
20634SOL     OW63798  11.054  13.512  11.402
20634SOL    HW163799  11.019  13.598  11.425
20634SOL    HW263800  11.147  13.517  11.424
20635SOL     OW63801   8.003   2.800  12.970
20635SOL    HW163802   7.921   2.836  12.937
20635SOL    HW263803   8.021   2.850  13.049
20636SOL     OW63804   5.743   7.842  14.289
20636SOL    HW163805   5.701   7.770  14.337
20636SOL    HW263806   5.672   7.905  14.274
20637SOL     OW63807   3.993   9.425  14.419
20637SOL    HW163808   3.897   9.423  14.413
20637SOL    HW263809   4.012   9.405  14.510
20638SOL     OW63810   8.295   5.852  11.404
20638SOL    HW163811   8.223   5.896  11.360
20638SOL    HW263812   8.358   5.922  11.423
20639SOL     OW63813   4.955   4.370   9.185
20639SOL    HW163814   5.037   4.343   9.226
20639SOL    HW263815   4.949   4.464   9.203
20640SOL     OW63816   8.027  13.604  14.242
20640SOL    HW163817   8.077  13.640  14.316
20640SOL    HW263818   7.945  13.575  14.281
20641SOL     OW63819   1.540   9.897  11.312
20641SOL    HW163820   1.480   9.894  11.387
20641SOL    HW263821   1.615   9.948  11.344
20642SOL     OW63822   6.514   7.090   2.044
20642SOL    HW163823   6.506   7.078   1.949
20642SOL    HW263824   6.581   7.158   2.054
20643SOL     OW63825   1.110  13.585  14.144
20643SOL    HW163826   1.136  13.530  14.069
20643SOL    HW263827   1.114  13.526  14.219
20644SOL     OW63828   8.167   7.242   4.068
20644SOL    HW163829   8.237   7.216   4.008
20644SOL    HW263830   8.146   7.332   4.043
20645SOL     OW63831   5.594   1.843   8.172
20645SOL    HW163832   5.513   1.814   8.131
20645SOL    HW263833   5.567   1.906   8.238
20646SOL     OW63834   4.938   1.701   0.308
20646SOL    HW163835   4.918   1.787   0.273
20646SOL    HW263836   4.868   1.684   0.371
20647SOL     OW63837  12.403  13.383   8.786
20647SOL    HW163838  12.484  13.386   8.734
20647SOL    HW263839  12.360  13.467   8.769
20648SOL     OW63840   1.300   3.127  13.586
20648SOL    HW163841   1.271   3.164  13.503
20648SOL    HW263842   1.319   3.036  13.567
20649SOL     OW63843   3.624   0.105   7.745
20649SOL    HW163844   3.700   0.154   7.715
20649SOL    HW263845   3.638   0.093   7.839
20650SOL     OW63846   1.169  12.853  13.142
20650SOL    HW163847   1.089  12.848  13.194
20650SOL    HW263848   1.211  12.768  13.154
20651SOL     OW63849  13.552   5.681   3.966
20651SOL    HW163850  13.597   5.743   4.023
20651SOL    HW263851  13.465   5.720   3.953
20652SOL     OW63852   7.416  10.474   9.771
20652SOL    HW163853   7.405  10.443   9.681
20652SOL    HW263854   7.359  10.550   9.777
20653SOL     OW63855   2.387   0.789   0.533
20653SOL    HW163856   2.362   0.743   0.614
20653SOL    HW263857   2.472   0.828   0.553
20654SOL     OW63858  10.121   5.692  12.986
20654SOL    HW163859  10.111   5.767  12.928
20654SOL    HW263860  10.185   5.636  12.942
20655SOL     OW63861   4.633   6.417   6.368
20655SOL    HW163862   4.628   6.325   6.342
20655SOL    HW263863   4.575   6.424   6.443
20656SOL     OW63864  14.212   3.544   3.616
20656SOL    HW163865  14.214   3.500   3.531
20656SOL    HW263866  14.225   3.474   3.680
20657SOL     OW63867   0.413  14.161   7.155
20657SOL    HW163868   0.387  14.246   7.118
20657SOL    HW263869   0.500  14.144   7.119
20658SOL     OW63870  11.830   8.292   3.131
20658SOL    HW163871  11.855   8.383   3.147
20658SOL    HW263872  11.913   8.248   3.114
20659SOL     OW63873   9.806   2.800  13.071
20659SOL    HW163874   9.845   2.887  13.061
20659SOL    HW263875   9.867   2.752  13.127
20660SOL     OW63876  13.405   6.001  10.520
20660SOL    HW163877  13.385   6.033  10.608
20660SOL    HW263878  13.378   6.072  10.462
20661SOL     OW63879  14.452   3.677   6.324
20661SOL    HW163880  14.542   3.649   6.305
20661SOL    HW263881  14.440   3.657   6.417
20662SOL     OW63882   8.348   6.247   9.825
20662SOL    HW163883   8.338   6.310   9.896
20662SOL    HW263884   8.261   6.245   9.783
20663SOL     OW63885   8.264   6.892   6.632
20663SOL    HW163886   8.296   6.973   6.592
20663SOL    HW263887   8.169   6.902   6.633
20664SOL     OW63888  10.200  14.724   1.520
20664SOL    HW163889  10.194  14.803   1.467
20664SOL    HW263890  10.284  14.733   1.566
20665SOL     OW63891  14.856  14.562   4.510
20665SOL    HW163892  14.802  14.570   4.432
20665SOL    HW263893   0.020  14.650   4.523
20666SOL     OW63894   2.035   0.040   9.435
20666SOL    HW163895   2.031   0.135   9.444
20666SOL    HW263896   2.129   0.021   9.427
20667SOL     OW63897   2.400   0.645   5.592
20667SOL    HW163898   2.323   0.694   5.562
20667SOL    HW263899   2.403   0.661   5.686
20668SOL     OW63900   5.569  13.934  10.928
20668SOL    HW163901   5.514  13.856  10.938
20668SOL    HW263902   5.604  13.926  10.839
20669SOL     OW63903  12.252   8.269   3.575
20669SOL    HW163904  12.273   8.270   3.669
20669SOL    HW263905  12.304   8.197   3.540
20670SOL     OW63906   1.461   1.296   3.416
20670SOL    HW163907   1.401   1.300   3.491
20670SOL    HW263908   1.448   1.208   3.380
20671SOL     OW63909  14.439   7.662  11.262
20671SOL    HW163910  14.396   7.589  11.218
20671SOL    HW263911  14.373   7.698  11.321
20672SOL     OW63912  12.388   9.786   4.170
20672SOL    HW163913  12.368   9.874   4.203
20672SOL    HW263914  12.422   9.739   4.246
20673SOL     OW63915  11.414  14.058  10.504
20673SOL    HW163916  11.496  14.074  10.459
20673SOL    HW263917  11.346  14.075  10.438
20674SOL     OW63918  11.373   5.793  14.528
20674SOL    HW163919  11.278   5.790  14.541
20674SOL    HW263920  11.403   5.705  14.549
20675SOL     OW63921   7.203   7.156  13.502
20675SOL    HW163922   7.228   7.231  13.556
20675SOL    HW263923   7.236   7.177  13.415
20676SOL     OW63924   8.059   6.290   4.200
20676SOL    HW163925   8.133   6.231   4.184
20676SOL    HW263926   7.982   6.237   4.180
20677SOL     OW63927   3.236   4.573  13.360
20677SOL    HW163928   3.300   4.639  13.387
20677SOL    HW263929   3.178   4.564  13.435
20678SOL     OW63930   3.979   2.894   5.958
20678SOL    HW163931   3.885   2.875   5.959
20678SOL    HW263932   4.010   2.858   5.875
20679SOL     OW63933   1.533   5.371   4.200
20679SOL    HW163934   1.536   5.327   4.115
20679SOL    HW263935   1.462   5.435   4.191
20680SOL     OW63936  14.410  13.661  10.256
20680SOL    HW163937  14.393  13.728  10.190
20680SOL    HW263938  14.406  13.709  10.339
20681SOL     OW63939   2.505   5.726  10.994
20681SOL    HW163940   2.597   5.733  10.972
20681SOL    HW263941   2.491   5.634  11.016
20682SOL     OW63942  12.144  10.572   9.874
20682SOL    HW163943  12.200  10.581   9.951
20682SOL    HW263944  12.098  10.489   9.887
20683SOL     OW63945   5.856   5.232   6.599
20683SOL    HW163946   5.947   5.252   6.578
20683SOL    HW263947   5.811   5.233   6.514
20684SOL     OW63948   0.004   6.324   9.488
20684SOL    HW163949  14.808   6.256   9.494
20684SOL    HW263950   0.003   6.350   9.396
20685SOL     OW63951  13.666   8.958  10.969
20685SOL    HW163952  13.683   8.934  10.878
20685SOL    HW263953  13.706   9.044  10.979
20686SOL     OW63954   5.609   3.986   8.822
20686SOL    HW163955   5.680   4.022   8.876
20686SOL    HW263956   5.530   3.997   8.876
20687SOL     OW63957   1.231  14.493   7.325
20687SOL    HW163958   1.167  14.451   7.381
20687SOL    HW263959   1.273  14.421   7.278
20688SOL     OW63960   7.317   7.825   7.528
20688SOL    HW163961   7.306   7.810   7.434
20688SOL    HW263962   7.379   7.897   7.533
20689SOL     OW63963  11.161  10.776   4.951
20689SOL    HW163964  11.069  10.779   4.977
20689SOL    HW263965  11.178  10.683   4.933
20690SOL     OW63966   3.556   8.517   2.978
20690SOL    HW163967   3.549   8.448   3.044
20690SOL    HW263968   3.618   8.579   3.016
20691SOL     OW63969  11.773   8.182   2.190
20691SOL    HW163970  11.768   8.273   2.158
20691SOL    HW263971  11.777   8.190   2.285
20692SOL     OW63972   9.824   6.768   1.301
20692SOL    HW163973   9.731   6.752   1.280
20692SOL    HW263974   9.872   6.710   1.241
20693SOL     OW63975   4.932   6.848  11.154
20693SOL    HW163976   4.967   6.818  11.070
20693SOL    HW263977   4.997   6.820  11.218
20694SOL     OW63978   1.638   7.885   5.025
20694SOL    HW163979   1.623   7.791   5.020
20694SOL    HW263980   1.632   7.905   5.119
20695SOL     OW63981  13.327   3.873   0.033
20695SOL    HW163982  13.356   3.922   0.111
20695SOL    HW263983  13.307   3.941  14.840
20696SOL     OW63984   0.381   8.576  14.681
20696SOL    HW163985   0.289   8.552  14.684
20696SOL    HW263986   0.401   8.603  14.771
20697SOL     OW63987   1.854  11.975   9.620
20697SOL    HW163988   1.775  11.958   9.569
20697SOL    HW263989   1.896  11.889   9.627
20698SOL     OW63990  13.684   1.433   8.113
20698SOL    HW163991  13.768   1.441   8.158
20698SOL    HW263992  13.621   1.470   8.174
20699SOL     OW63993  12.487  10.933  13.716
20699SOL    HW163994  12.498  11.027  13.704
20699SOL    HW263995  12.507  10.894  13.631
20700SOL     OW63996   1.746   6.191   7.872
20700SOL    HW163997   1.788   6.109   7.843
20700SOL    HW263998   1.817   6.255   7.872
20701SOL     OW63999  10.197   3.992   2.897
20701SOL    HW164000  10.154   4.062   2.847
20701SOL    HW264001  10.242   3.940   2.831
20702SOL     OW64002   7.963   2.107   1.550
20702SOL    HW164003   7.945   2.040   1.616
20702SOL    HW264004   8.052   2.136   1.570
20703SOL     OW64005   8.484  13.975  13.794
20703SOL    HW164006   8.569  14.018  13.780
20703SOL    HW264007   8.446  14.022  13.868
20704SOL     OW64008  10.488   9.820   2.934
20704SOL    HW164009  10.418   9.757   2.918
20704SOL    HW264010  10.531   9.832   2.850
20705SOL     OW64011   5.607  14.276   2.970
20705SOL    HW164012   5.574  14.310   2.887
20705SOL    HW264013   5.642  14.190   2.949
20706SOL     OW64014   7.637   4.736   9.224
20706SOL    HW164015   7.732   4.742   9.223
20706SOL    HW264016   7.607   4.825   9.205
20707SOL     OW64017   0.190   4.502   8.984
20707SOL    HW164018   0.195   4.556   8.905
20707SOL    HW264019   0.177   4.413   8.951
20708SOL     OW64020  14.709   1.384   7.066
20708SOL    HW164021  14.709   1.393   6.970
20708SOL    HW264022  14.620   1.356   7.087
20709SOL     OW64023  12.553   5.189   0.358
20709SOL    HW164024  12.535   5.152   0.271
20709SOL    HW264025  12.470   5.225   0.387
20710SOL     OW64026   7.208   1.788   3.968
20710SOL    HW164027   7.281   1.810   3.910
20710SOL    HW264028   7.130   1.820   3.922
20711SOL     OW64029  14.622   5.862  12.597
20711SOL    HW164030  14.626   5.797  12.527
20711SOL    HW264031  14.621   5.946  12.551
20712SOL     OW64032   9.760  10.351   3.913
20712SOL    HW164033   9.752  10.352   3.818
20712SOL    HW264034   9.679  10.311   3.944
20713SOL     OW64035   9.645   4.058   0.068
20713SOL    HW164036   9.636   4.066  14.845
20713SOL    HW264037   9.556   4.048   0.100
20714SOL     OW64038  14.455   2.066  14.200
20714SOL    HW164039  14.470   2.042  14.291
20714SOL    HW264040  14.468   2.161  14.197
20715SOL     OW64041   7.881  14.295  10.303
20715SOL    HW164042   7.873  14.351  10.380
20715SOL    HW264043   7.848  14.349  10.230
20716SOL     OW64044  14.115  10.652   1.195
20716SOL    HW164045  14.166  10.571   1.188
20716SOL    HW264046  14.025  10.625   1.176
20717SOL     OW64047   8.329  10.207  12.118
20717SOL    HW164048   8.234  10.218  12.130
20717SOL    HW264049   8.367  10.255  12.192
20718SOL     OW64050  13.861   0.432   2.524
20718SOL    HW164051  13.787   0.393   2.570
20718SOL    HW264052  13.935   0.374   2.544
20719SOL     OW64053  13.609   8.003   9.269
20719SOL    HW164054  13.695   7.987   9.231
20719SOL    HW264055  13.627   8.025   9.361
20720SOL     OW64056   7.717  13.835   0.330
20720SOL    HW164057   7.625  13.834   0.354
20720SOL    HW264058   7.763  13.858   0.410
20721SOL     OW64059   9.310   2.272  14.271
20721SOL    HW164060   9.369   2.233  14.335
20721SOL    HW264061   9.223   2.247  14.300
20722SOL     OW64062   0.198   0.840  13.409
20722SOL    HW164063   0.245   0.912  13.366
20722SOL    HW264064   0.229   0.762  13.363
20723SOL     OW64065  12.052   7.979   9.488
20723SOL    HW164066  11.960   7.999   9.508
20723SOL    HW264067  12.096   7.984   9.573
20724SOL     OW64068   6.253   4.133   6.406
20724SOL    HW164069   6.189   4.204   6.397
20724SOL    HW264070   6.327   4.159   6.351
20725SOL     OW64071   2.752   1.691   3.522
20725SOL    HW164072   2.758   1.621   3.457
20725SOL    HW264073   2.670   1.736   3.501
20726SOL     OW64074   1.138   5.266  13.567
20726SOL    HW164075   1.155   5.176  13.597
20726SOL    HW264076   1.224   5.309  13.574
20727SOL     OW64077  14.143   0.446   2.939
20727SOL    HW164078  14.161   0.404   2.855
20727SOL    HW264079  14.132   0.373   3.000
20728SOL     OW64080   2.702   9.665   2.465
20728SOL    HW164081   2.711   9.607   2.390
20728SOL    HW264082   2.626   9.719   2.445
20729SOL     OW64083   5.077   8.537   2.374
20729SOL    HW164084   5.002   8.478   2.367
20729SOL    HW264085   5.059   8.589   2.452
20730SOL     OW64086   5.036   9.331   1.754
20730SOL    HW164087   5.001   9.251   1.714
20730SOL    HW264088   5.078   9.378   1.682
20731SOL     OW64089   1.719   4.175  12.838
20731SOL    HW164090   1.656   4.154  12.770
20731SOL    HW264091   1.713   4.270  12.849
20732SOL     OW64092   5.086   1.421   1.222
20732SOL    HW164093   5.012   1.479   1.241
20732SOL    HW264094   5.052   1.333   1.241
20733SOL     OW64095   3.000   0.939   7.550
20733SOL    HW164096   2.954   1.022   7.566
20733SOL    HW264097   2.933   0.872   7.563
20734SOL     OW64098   1.119  13.939   9.873
20734SOL    HW164099   1.194  13.904   9.921
20734SOL    HW264100   1.054  13.956   9.941
20735SOL     OW64101   6.905   8.150  10.070
20735SOL    HW164102   6.886   8.172  10.161
20735SOL    HW264103   6.975   8.211  10.045
20736SOL     OW64104   1.329  13.393  14.721
20736SOL    HW164105   1.390  13.436  14.662
20736SOL    HW264106   1.314  13.457  14.791
20737SOL     OW64107  11.004  13.948  14.775
20737SOL    HW164108  10.913  13.921  14.790
20737SOL    HW264109  11.001  13.994  14.691
20738SOL     OW64110   0.646   6.093   1.262
20738SOL    HW164111   0.717   6.068   1.202
20738SOL    HW264112   0.688   6.153   1.324
20739SOL     OW64113  12.579  14.730  12.116
20739SOL    HW164114  12.569  14.777  12.198
20739SOL    HW264115  12.513  14.769  12.058
20740SOL     OW64116   5.288   8.586   9.585
20740SOL    HW164117   5.354   8.546   9.529
20740SOL    HW264118   5.295   8.680   9.567
20741SOL     OW64119   9.566  12.486  11.933
20741SOL    HW164120   9.535  12.406  11.891
20741SOL    HW264121   9.616  12.531  11.865
20742SOL     OW64122   4.392   6.773  11.024
20742SOL    HW164123   4.473   6.757  11.072
20742SOL    HW264124   4.419   6.795  10.935
20743SOL     OW64125   9.036  13.504   5.411
20743SOL    HW164126   9.031  13.457   5.494
20743SOL    HW264127   9.125  13.489   5.379
20744SOL     OW64128  10.851   9.070   5.944
20744SOL    HW164129  10.841   8.979   5.917
20744SOL    HW264130  10.786   9.118   5.893
20745SOL     OW64131  12.848   2.775   3.204
20745SOL    HW164132  12.795   2.701   3.233
20745SOL    HW264133  12.877   2.751   3.115
20746SOL     OW64134   8.828  12.749   7.294
20746SOL    HW164135   8.874  12.829   7.322
20746SOL    HW264136   8.836  12.690   7.368
20747SOL     OW64137   4.573   5.243   1.760
20747SOL    HW164138   4.623   5.320   1.786
20747SOL    HW264139   4.617   5.170   1.803
20748SOL     OW64140  10.703   1.144   1.090
20748SOL    HW164141  10.744   1.133   1.176
20748SOL    HW264142  10.665   1.231   1.092
20749SOL     OW64143   7.889  11.861   1.721
20749SOL    HW164144   7.871  11.941   1.771
20749SOL    HW264145   7.926  11.801   1.785
20750SOL     OW64146   8.726   7.558  11.983
20750SOL    HW164147   8.718   7.622  11.911
20750SOL    HW264148   8.742   7.475  11.939
20751SOL     OW64149   8.497   5.907  10.340
20751SOL    HW164150   8.474   5.905  10.247
20751SOL    HW264151   8.568   5.843  10.348
20752SOL     OW64152  13.536   3.443   0.039
20752SOL    HW164153  13.468   3.465  14.846
20752SOL    HW264154  13.539   3.347   0.038
20753SOL     OW64155  12.887  11.809   7.433
20753SOL    HW164156  12.878  11.745   7.362
20753SOL    HW264157  12.932  11.761   7.503
20754SOL     OW64158   8.040   7.744  11.667
20754SOL    HW164159   7.952   7.711  11.685
20754SOL    HW264160   8.066   7.787  11.748
20755SOL     OW64161   6.361   2.695   9.722
20755SOL    HW164162   6.388   2.612   9.761
20755SOL    HW264163   6.443   2.744   9.709
20756SOL     OW64164   3.328   2.892   9.936
20756SOL    HW164165   3.277   2.811   9.933
20756SOL    HW264166   3.332   2.914  10.029
20757SOL     OW64167  11.909   4.457  12.625
20757SOL    HW164168  11.842   4.413  12.677
20757SOL    HW264169  11.990   4.410  12.645
20758SOL     OW64170  10.542  13.803   4.751
20758SOL    HW164171  10.632  13.793   4.782
20758SOL    HW264172  10.511  13.713   4.737
20759SOL     OW64173   9.209   4.594  10.683
20759SOL    HW164174   9.284   4.545  10.649
20759SOL    HW264175   9.205   4.571  10.776
20760SOL     OW64176  10.661  11.432   0.132
20760SOL    HW164177  10.697  11.436   0.044
20760SOL    HW264178  10.673  11.340   0.158
20761SOL     OW64179   0.979   0.856   0.987
20761SOL    HW164180   0.931   0.776   0.965
20761SOL    HW264181   0.928   0.897   1.057
20762SOL     OW64182   7.951   7.358  11.378
20762SOL    HW164183   7.952   7.344  11.284
20762SOL    HW264184   8.008   7.434  11.392
20763SOL     OW64185   5.669  12.656  13.370
20763SOL    HW164186   5.744  12.618  13.416
20763SOL    HW264187   5.649  12.737  13.417
20764SOL     OW64188   6.834   9.770   6.000
20764SOL    HW164189   6.757   9.714   6.003
20764SOL    HW264190   6.813   9.838   5.937
20765SOL     OW64191   6.065   4.457  10.285
20765SOL    HW164192   6.041   4.393  10.353
20765SOL    HW264193   6.001   4.444  10.216
20766SOL     OW64194   2.941   1.558  11.144
20766SOL    HW164195   2.954   1.503  11.067
20766SOL    HW264196   3.012   1.533  11.203
20767SOL     OW64197   1.069  12.427   0.984
20767SOL    HW164198   1.083  12.507   0.933
20767SOL    HW264199   1.151  12.414   1.031
20768SOL     OW64200  13.437  13.624  10.075
20768SOL    HW164201  13.365  13.660  10.024
20768SOL    HW264202  13.404  13.619  10.165
20769SOL     OW64203   2.983  12.497   2.479
20769SOL    HW164204   2.992  12.508   2.574
20769SOL    HW264205   2.927  12.420   2.470
20770SOL     OW64206  12.491  10.351   1.404
20770SOL    HW164207  12.523  10.429   1.359
20770SOL    HW264208  12.544  10.345   1.483
20771SOL     OW64209   9.612   5.309  12.060
20771SOL    HW164210   9.579   5.324  12.148
20771SOL    HW264211   9.707   5.302  12.070
20772SOL     OW64212   6.961   5.447   8.621
20772SOL    HW164213   6.967   5.542   8.627
20772SOL    HW264214   7.023   5.414   8.686
20773SOL     OW64215   0.982   3.236   1.117
20773SOL    HW164216   0.996   3.206   1.027
20773SOL    HW264217   0.950   3.158   1.163
20774SOL     OW64218  14.588   4.677   6.752
20774SOL    HW164219  14.565   4.766   6.726
20774SOL    HW264220  14.660   4.688   6.814
20775SOL     OW64221   8.170  12.109  11.146
20775SOL    HW164222   8.136  12.085  11.232
20775SOL    HW264223   8.170  12.204  11.146
20776SOL     OW64224   3.323  13.262   8.199
20776SOL    HW164225   3.417  13.274   8.205
20776SOL    HW264226   3.300  13.293   8.111
20777SOL     OW64227   6.279  13.068   8.867
20777SOL    HW164228   6.202  13.042   8.918
20777SOL    HW264229   6.317  13.141   8.917
20778SOL     OW64230  10.722  14.214   7.941
20778SOL    HW164231  10.651  14.177   7.888
20778SOL    HW264232  10.782  14.140   7.954
20779SOL     OW64233   9.693   6.527  11.239
20779SOL    HW164234   9.639   6.453  11.212
20779SOL    HW264235   9.671   6.541  11.331
20780SOL     OW64236   8.189   2.145  10.154
20780SOL    HW164237   8.193   2.214  10.088
20780SOL    HW264238   8.235   2.071  10.115
20781SOL     OW64239   6.427   8.293  10.589
20781SOL    HW164240   6.435   8.314  10.496
20781SOL    HW264241   6.468   8.207  10.598
20782SOL     OW64242  10.220   9.750   6.691
20782SOL    HW164243  10.273   9.818   6.732
20782SOL    HW264244  10.253   9.668   6.729
20783SOL     OW64245  13.705  12.551   8.738
20783SOL    HW164246  13.763  12.553   8.661
20783SOL    HW264247  13.691  12.458   8.755
20784SOL     OW64248  12.595   7.715  13.174
20784SOL    HW164249  12.601   7.723  13.079
20784SOL    HW264250  12.505   7.683  13.189
20785SOL     OW64251   3.067  11.172   1.826
20785SOL    HW164252   3.030  11.230   1.760
20785SOL    HW264253   3.044  11.214   1.909
20786SOL     OW64254  14.579   7.726   9.360
20786SOL    HW164255  14.625   7.749   9.440
20786SOL    HW264256  14.522   7.801   9.342
20787SOL     OW64257  13.430   8.395   3.828
20787SOL    HW164258  13.435   8.475   3.880
20787SOL    HW264259  13.521   8.372   3.811
20788SOL     OW64260   4.372   3.687  14.719
20788SOL    HW164261   4.390   3.781  14.724
20788SOL    HW264262   4.292   3.675  14.771
20789SOL     OW64263   0.025   1.878  10.322
20789SOL    HW164264  14.843   1.912  10.393
20789SOL    HW264265   0.074   1.954  10.290
20790SOL     OW64266   7.766  12.718   2.082
20790SOL    HW164267   7.779  12.805   2.045
20790SOL    HW264268   7.688  12.684   2.037
20791SOL     OW64269   2.168   6.798   0.922
20791SOL    HW164270   2.252   6.766   0.954
20791SOL    HW264271   2.147   6.739   0.850
20792SOL     OW64272   5.084   9.748   1.730
20792SOL    HW164273   5.132   9.787   1.657
20792SOL    HW264274   5.133   9.668   1.750
20793SOL     OW64275  14.411   2.562  13.857
20793SOL    HW164276  14.435   2.470  13.871
20793SOL    HW264277  14.441   2.582  13.769
20794SOL     OW64278  11.629  14.099   2.947
20794SOL    HW164279  11.717  14.062   2.951
20794SOL    HW264280  11.607  14.098   2.854
20795SOL     OW64281   9.694  12.143   3.994
20795SOL    HW164282   9.742  12.225   3.983
20795SOL    HW264283   9.662  12.122   3.906
20796SOL     OW64284   4.045  11.473  14.005
20796SOL    HW164285   3.953  11.449  14.019
20796SOL    HW264286   4.063  11.444  13.915
20797SOL     OW64287   1.105   7.042  10.717
20797SOL    HW164288   1.090   7.006  10.630
20797SOL    HW264289   1.090   6.968  10.776
20798SOL     OW64290   5.534   0.838  11.953
20798SOL    HW164291   5.622   0.802  11.940
20798SOL    HW264292   5.491   0.775  12.011
20799SOL     OW64293  13.266   5.316   5.271
20799SOL    HW164294  13.290   5.226   5.249
20799SOL    HW264295  13.204   5.308   5.343
20800SOL     OW64296  13.991   6.858   1.815
20800SOL    HW164297  13.943   6.815   1.885
20800SOL    HW264298  13.930   6.860   1.741
20801SOL     OW64299   4.097   3.680   1.105
20801SOL    HW164300   4.160   3.730   1.157
20801SOL    HW264301   4.084   3.599   1.154
20802SOL     OW64302   6.387   6.583   7.434
20802SOL    HW164303   6.299   6.606   7.402
20802SOL    HW264304   6.377   6.494   7.468
20803SOL     OW64305   1.347   0.374  13.064
20803SOL    HW164306   1.419   0.311  13.067
20803SOL    HW264307   1.329   0.386  12.971
20804SOL     OW64308  10.249  11.772   4.851
20804SOL    HW164309  10.227  11.755   4.943
20804SOL    HW264310  10.164  11.774   4.807
20805SOL     OW64311  12.265   8.967  13.528
20805SOL    HW164312  12.296   8.955  13.618
20805SOL    HW264313  12.307   8.895  13.480
20806SOL     OW64314   7.291   2.583   8.540
20806SOL    HW164315   7.199   2.610   8.534
20806SOL    HW264316   7.340   2.664   8.526
20807SOL     OW64317   3.955   3.298   1.454
20807SOL    HW164318   3.880   3.272   1.507
20807SOL    HW264319   4.031   3.283   1.512
20808SOL     OW64320   1.968   9.747   9.610
20808SOL    HW164321   1.982   9.756   9.705
20808SOL    HW264322   1.875   9.728   9.602
20809SOL     OW64323  14.558   7.880  11.182
20809SOL    HW164324  14.499   7.805  11.193
20809SOL    HW264325  14.634   7.843  11.136
20810SOL     OW64326  12.601  14.312   0.448
20810SOL    HW164327  12.615  14.226   0.408
20810SOL    HW264328  12.630  14.375   0.382
20811SOL     OW64329   7.264   0.464   5.407
20811SOL    HW164330   7.248   0.399   5.339
20811SOL    HW264331   7.351   0.441   5.442
20812SOL     OW64332  13.331   8.361   1.115
20812SOL    HW164333  13.326   8.456   1.126
20812SOL    HW264334  13.394   8.348   1.044
20813SOL     OW64335   5.725   9.991   5.424
20813SOL    HW164336   5.633   9.976   5.447
20813SOL    HW264337   5.752   9.910   5.381
20814SOL     OW64338   6.205   0.444   8.846
20814SOL    HW164339   6.282   0.458   8.791
20814SOL    HW264340   6.233   0.470   8.934
20815SOL     OW64341   7.873   2.772  13.534
20815SOL    HW164342   7.821   2.691  13.528
20815SOL    HW264343   7.809   2.840  13.557
20816SOL     OW64344   2.291   2.375   1.706
20816SOL    HW164345   2.263   2.375   1.614
20816SOL    HW264346   2.214   2.347   1.755
20817SOL     OW64347   2.335  14.871  12.774
20817SOL    HW164348   2.282   0.067  12.731
20817SOL    HW264349   2.278  14.836  12.843
20818SOL     OW64350   8.217   0.399   7.590
20818SOL    HW164351   8.157   0.340   7.546
20818SOL    HW264352   8.172   0.425   7.670
20819SOL     OW64353  13.502  14.765   1.687
20819SOL    HW164354  13.453  14.699   1.738
20819SOL    HW264355  13.437  14.801   1.627
20820SOL     OW64356   0.651  14.524  12.516
20820SOL    HW164357   0.741  14.512  12.544
20820SOL    HW264358   0.598  14.502  12.593
20821SOL     OW64359  14.350   0.469   6.637
20821SOL    HW164360  14.282   0.483   6.703
20821SOL    HW264361  14.308   0.490   6.554
20822SOL     OW64362  12.658   3.402  13.118
20822SOL    HW164363  12.598   3.406  13.192
20822SOL    HW264364  12.741   3.437  13.152
20823SOL     OW64365   3.845   7.939   1.587
20823SOL    HW164366   3.857   7.932   1.682
20823SOL    HW264367   3.913   8.000   1.559
20824SOL     OW64368   4.834  11.611  11.884
20824SOL    HW164369   4.884  11.534  11.857
20824SOL    HW264370   4.760  11.615  11.823
20825SOL     OW64371   5.147   3.647  14.320
20825SOL    HW164372   5.129   3.616  14.231
20825SOL    HW264373   5.218   3.710  14.308
20826SOL     OW64374  13.128  11.774   0.663
20826SOL    HW164375  13.116  11.834   0.590
20826SOL    HW264376  13.063  11.705   0.647
20827SOL     OW64377   3.073  12.014   2.355
20827SOL    HW164378   3.143  12.038   2.416
20827SOL    HW264379   3.074  11.918   2.355
20828SOL     OW64380   9.738   0.508   5.423
20828SOL    HW164381   9.708   0.450   5.353
20828SOL    HW264382   9.790   0.574   5.378
20829SOL     OW64383   3.124   2.448  11.506
20829SOL    HW164384   3.166   2.485  11.584
20829SOL    HW264385   3.160   2.499  11.433
20830SOL     OW64386   6.610  13.129   0.204
20830SOL    HW164387   6.693  13.081   0.209
20830SOL    HW264388   6.621  13.202   0.265
20831SOL     OW64389   3.439   3.257   3.513
20831SOL    HW164390   3.513   3.246   3.572
20831SOL    HW264391   3.380   3.317   3.559
20832SOL     OW64392   7.182   4.341   8.071
20832SOL    HW164393   7.123   4.364   8.000
20832SOL    HW264394   7.125   4.323   8.146
20833SOL     OW64395  10.535   4.529   6.169
20833SOL    HW164396  10.552   4.605   6.112
20833SOL    HW264397  10.620   4.507   6.206
20834SOL     OW64398   1.928   9.456  10.329
20834SOL    HW164399   1.973   9.475  10.247
20834SOL    HW264400   1.979   9.500  10.396
20835SOL     OW64401  12.804   6.440  10.793
20835SOL    HW164402  12.865   6.514  10.795
20835SOL    HW264403  12.814   6.403  10.705
20836SOL     OW64404  14.377   2.887  11.497
20836SOL    HW164405  14.317   2.893  11.572
20836SOL    HW264406  14.458   2.927  11.527
20837SOL     OW64407   5.408   0.335   7.104
20837SOL    HW164408   5.414   0.326   7.199
20837SOL    HW264409   5.467   0.408   7.083
20838SOL     OW64410   4.580   5.567   4.688
20838SOL    HW164411   4.622   5.600   4.609
20838SOL    HW264412   4.569   5.473   4.674
20839SOL     OW64413   4.218   6.571  14.830
20839SOL    HW164414   4.127   6.545  14.846
20839SOL    HW264415   4.212   6.661  14.799
20840SOL     OW64416  10.496   1.447   8.088
20840SOL    HW164417  10.465   1.363   8.054
20840SOL    HW264418  10.435   1.512   8.053
20841SOL     OW64419   5.609   8.264   3.537
20841SOL    HW164420   5.692   8.301   3.508
20841SOL    HW264421   5.590   8.308   3.620
20842SOL     OW64422   0.285  11.530   5.841
20842SOL    HW164423   0.292  11.484   5.757
20842SOL    HW264424   0.229  11.475   5.895
20843SOL     OW64425   3.159   3.592   4.246
20843SOL    HW164426   3.159   3.503   4.282
20843SOL    HW264427   3.225   3.638   4.296
20844SOL     OW64428   7.534  10.026  12.429
20844SOL    HW164429   7.587   9.981  12.363
20844SOL    HW264430   7.468  10.073  12.378
20845SOL     OW64431   2.808   1.392   4.653
20845SOL    HW164432   2.809   1.315   4.709
20845SOL    HW264433   2.826   1.359   4.566
20846SOL     OW64434   4.601  13.438   4.528
20846SOL    HW164435   4.599  13.533   4.512
20846SOL    HW264436   4.673  13.425   4.589
20847SOL     OW64437  10.394  14.696   7.655
20847SOL    HW164438  10.461  14.716   7.589
20847SOL    HW264439  10.411  14.604   7.678
20848SOL     OW64440   6.147  11.331   3.992
20848SOL    HW164441   6.148  11.416   4.035
20848SOL    HW264442   6.130  11.269   4.063
20849SOL     OW64443   1.819  14.694   0.342
20849SOL    HW164444   1.822  14.652   0.428
20849SOL    HW264445   1.869  14.635   0.284
20850SOL     OW64446   1.504   4.469  11.229
20850SOL    HW164447   1.528   4.562  11.232
20850SOL    HW264448   1.553   4.434  11.155
20851SOL     OW64449  14.640   9.247   9.862
20851SOL    HW164450  14.710   9.231   9.925
20851SOL    HW264451  14.685   9.278   9.783
20852SOL     OW64452  13.823  14.676   1.851
20852SOL    HW164453  13.781  14.633   1.776
20852SOL    HW264454  13.832  14.767   1.824
20853SOL     OW64455   3.539   5.826  14.042
20853SOL    HW164456   3.569   5.794  13.957
20853SOL    HW264457   3.462   5.879  14.021
20854SOL     OW64458   2.842   1.571  12.772
20854SOL    HW164459   2.878   1.608  12.691
20854SOL    HW264460   2.837   1.646  12.832
20855SOL     OW64461   1.180  10.228   3.047
20855SOL    HW164462   1.271  10.198   3.042
20855SOL    HW264463   1.145  10.215   2.959
20856SOL     OW64464   0.441  13.752   9.359
20856SOL    HW164465   0.388  13.791   9.428
20856SOL    HW264466   0.380  13.697   9.310
20857SOL     OW64467  11.778   9.022   2.947
20857SOL    HW164468  11.761   8.988   2.859
20857SOL    HW264469  11.869   8.996   2.965
20858SOL     OW64470   9.242   2.185   5.536
20858SOL    HW164471   9.302   2.111   5.528
20858SOL    HW264472   9.232   2.217   5.446
20859SOL     OW64473  11.581   5.302   1.728
20859SOL    HW164474  11.556   5.222   1.774
20859SOL    HW264475  11.676   5.295   1.718
20860SOL     OW64476  10.577  11.380   6.941
20860SOL    HW164477  10.669  11.386   6.966
20860SOL    HW264478  10.545  11.301   6.985
20861SOL     OW64479   6.564  12.179   3.054
20861SOL    HW164480   6.656  12.177   3.078
20861SOL    HW264481   6.561  12.142   2.966
20862SOL     OW64482   6.101   3.998   3.133
20862SOL    HW164483   6.047   3.993   3.212
20862SOL    HW264484   6.143   4.084   3.138
20863SOL     OW64485  14.472   8.720   6.689
20863SOL    HW164486  14.520   8.646   6.651
20863SOL    HW264487  14.448   8.690   6.777
20864SOL     OW64488  14.614  10.121   2.810
20864SOL    HW164489  14.544  10.150   2.750
20864SOL    HW264490  14.678  10.080   2.752
20865SOL     OW64491  13.060   6.832   6.025
20865SOL    HW164492  13.019   6.794   5.947
20865SOL    HW264493  13.109   6.760   6.064
20866SOL     OW64494  12.087   1.659   1.480
20866SOL    HW164495  11.999   1.691   1.459
20866SOL    HW264496  12.146   1.725   1.444
20867SOL     OW64497   6.927   3.298   3.085
20867SOL    HW164498   6.980   3.378   3.090
20867SOL    HW264499   6.893   3.287   3.174
20868SOL     OW64500   8.817   0.416   2.473
20868SOL    HW164501   8.779   0.344   2.423
20868SOL    HW264502   8.829   0.486   2.410
20869SOL     OW64503  13.062   2.023   3.733
20869SOL    HW164504  13.136   2.036   3.674
20869SOL    HW264505  13.094   2.052   3.819
20870SOL     OW64506   0.017   8.000  14.711
20870SOL    HW164507   0.017   8.009  14.806
20870SOL    HW264508   0.043   8.086  14.678
20871SOL     OW64509   2.147   7.758   5.595
20871SOL    HW164510   2.140   7.680   5.650
20871SOL    HW264511   2.066   7.806   5.611
20872SOL     OW64512   9.434  11.767  10.504
20872SOL    HW164513   9.481  11.824  10.565
20872SOL    HW264514   9.381  11.711  10.560
20873SOL     OW64515  12.303   4.248   4.357
20873SOL    HW164516  12.229   4.303   4.384
20873SOL    HW264517  12.364   4.253   4.431
20874SOL     OW64518   4.580   6.269   1.404
20874SOL    HW164519   4.616   6.183   1.426
20874SOL    HW264520   4.485   6.258   1.410
20875SOL     OW64521  12.111   9.932   1.967
20875SOL    HW164522  12.025   9.972   1.960
20875SOL    HW264523  12.123   9.885   1.884
20876SOL     OW64524   4.831   5.460   4.870
20876SOL    HW164525   4.770   5.531   4.890
20876SOL    HW264526   4.915   5.489   4.906
20877SOL     OW64527  12.262   0.589  11.869
20877SOL    HW164528  12.169   0.567  11.871
20877SOL    HW264529  12.268   0.662  11.807
20878SOL     OW64530  10.729   2.604  11.400
20878SOL    HW164531  10.652   2.595  11.344
20878SOL    HW264532  10.790   2.657  11.348
20879SOL     OW64533   0.589   0.247   0.969
20879SOL    HW164534   0.684   0.251   0.984
20879SOL    HW264535   0.561   0.338   0.971
20880SOL     OW64536  12.126   8.508   2.713
20880SOL    HW164537  12.078   8.585   2.744
20880SOL    HW264538  12.170   8.537   2.634
20881SOL     OW64539   7.127  10.107   7.847
20881SOL    HW164540   7.105  10.013   7.844
20881SOL    HW264541   7.167  10.125   7.762
20882SOL     OW64542   5.280   5.095  11.858
20882SOL    HW164543   5.246   5.022  11.909
20882SOL    HW264544   5.353   5.129  11.910
20883SOL     OW64545   6.539  10.777  14.440
20883SOL    HW164546   6.516  10.694  14.398
20883SOL    HW264547   6.459  10.802  14.486
20884SOL     OW64548  10.135   6.523   6.674
20884SOL    HW164549  10.059   6.577   6.691
20884SOL    HW264550  10.150   6.532   6.579
20885SOL     OW64551   9.479   0.923  10.845
20885SOL    HW164552   9.498   0.857  10.913
20885SOL    HW264553   9.565   0.947  10.811
20886SOL     OW64554   6.399   5.582   9.749
20886SOL    HW164555   6.317   5.534   9.736
20886SOL    HW264556   6.381   5.641   9.823
20887SOL     OW64557  11.629   5.091   0.066
20887SOL    HW164558  11.698   5.148   0.031
20887SOL    HW264559  11.551   5.146   0.068
20888SOL     OW64560  10.055   4.797   6.777
20888SOL    HW164561  10.135   4.822   6.730
20888SOL    HW264562  10.051   4.856   6.852
20889SOL     OW64563  12.701   8.199   3.653
20889SOL    HW164564  12.766   8.187   3.584
20889SOL    HW264565  12.695   8.294   3.664
20890SOL     OW64566   1.973  11.122  12.593
20890SOL    HW164567   2.040  11.077  12.644
20890SOL    HW264568   1.931  11.181  12.655
20891SOL     OW64569  10.346   0.861  13.786
20891SOL    HW164570  10.392   0.787  13.745
20891SOL    HW264571  10.287   0.893  13.718
20892SOL     OW64572   2.622  11.214  12.900
20892SOL    HW164573   2.660  11.272  12.966
20892SOL    HW264574   2.696  11.163  12.868
20893SOL     OW64575  11.625   1.423  10.841
20893SOL    HW164576  11.572   1.497  10.870
20893SOL    HW264577  11.564   1.365  10.797
20894SOL     OW64578   3.425   6.844  11.122
20894SOL    HW164579   3.369   6.884  11.056
20894SOL    HW264580   3.404   6.890  11.203
20895SOL     OW64581   4.492  14.672   5.817
20895SOL    HW164582   4.488  14.609   5.745
20895SOL    HW264583   4.411  14.722   5.810
20896SOL     OW64584   5.092   5.292   5.663
20896SOL    HW164585   5.128   5.303   5.751
20896SOL    HW264586   5.146   5.350   5.608
20897SOL     OW64587   1.141  11.515   8.414
20897SOL    HW164588   1.215  11.456   8.427
20897SOL    HW264589   1.071  11.479   8.468
20898SOL     OW64590  14.817   7.376  14.194
20898SOL    HW164591   0.023   7.335  14.156
20898SOL    HW264592  14.826   7.469  14.171
20899SOL     OW64593   6.365  10.460   0.867
20899SOL    HW164594   6.321  10.500   0.942
20899SOL    HW264595   6.362  10.366   0.885
20900SOL     OW64596   2.909  13.121   6.511
20900SOL    HW164597   2.976  13.189   6.502
20900SOL    HW264598   2.922  13.064   6.435
20901SOL     OW64599   6.727   2.305  11.599
20901SOL    HW164600   6.676   2.381  11.573
20901SOL    HW264601   6.776   2.334  11.677
20902SOL     OW64602   6.166   5.284   4.343
20902SOL    HW164603   6.135   5.196   4.365
20902SOL    HW264604   6.093   5.324   4.295
20903SOL     OW64605   2.025  10.449   4.452
20903SOL    HW164606   2.072  10.397   4.387
20903SOL    HW264607   1.964  10.387   4.492
20904SOL     OW64608  14.662   0.671   3.448
20904SOL    HW164609  14.755   0.681   3.466
20904SOL    HW264610  14.619   0.732   3.508
20905SOL     OW64611  12.490   6.354   2.113
20905SOL    HW164612  12.504   6.434   2.164
20905SOL    HW264613  12.417   6.374   2.055
20906SOL     OW64614  14.436   8.358   9.789
20906SOL    HW164615  14.511   8.416   9.778
20906SOL    HW264616  14.450   8.317   9.874
20907SOL     OW64617  12.339   7.219   8.353
20907SOL    HW164618  12.355   7.205   8.260
20907SOL    HW264619  12.244   7.220   8.362
20908SOL     OW64620   2.257   1.653   5.396
20908SOL    HW164621   2.265   1.561   5.422
20908SOL    HW264622   2.240   1.650   5.302
20909SOL     OW64623   2.656  10.266  11.925
20909SOL    HW164624   2.645  10.229  12.013
20909SOL    HW264625   2.586  10.227  11.874
20910SOL     OW64626   9.346   7.305   6.171
20910SOL    HW164627   9.279   7.238   6.161
20910SOL    HW264628   9.298   7.387   6.180
20911SOL     OW64629   8.437   7.108  13.019
20911SOL    HW164630   8.516   7.117  13.073
20911SOL    HW264631   8.467   7.131  12.931
20912SOL     OW64632  13.740   5.660   2.798
20912SOL    HW164633  13.729   5.668   2.892
20912SOL    HW264634  13.835   5.658   2.785
20913SOL     OW64635   2.029  11.456   6.167
20913SOL    HW164636   2.109  11.509   6.169
20913SOL    HW264637   2.020  11.423   6.256
20914SOL     OW64638   8.303   2.572   5.178
20914SOL    HW164639   8.252   2.617   5.245
20914SOL    HW264640   8.322   2.640   5.113
20915SOL     OW64641   5.035   5.631   7.966
20915SOL    HW164642   5.039   5.538   7.944
20915SOL    HW264643   5.126   5.661   7.956
20916SOL     OW64644   4.707  11.211   9.511
20916SOL    HW164645   4.725  11.235   9.602
20916SOL    HW264646   4.778  11.152   9.486
20917SOL     OW64647   9.024  13.403   7.043
20917SOL    HW164648   9.001  13.434   7.130
20917SOL    HW264649   9.089  13.334   7.058
20918SOL     OW64650   0.173  13.662  12.832
20918SOL    HW164651   0.215  13.576  12.832
20918SOL    HW264652   0.245  13.724  12.819
20919SOL     OW64653  13.853   1.913   4.497
20919SOL    HW164654  13.758   1.911   4.489
20919SOL    HW264655  13.883   1.955   4.416
20920SOL     OW64656  10.981  11.518   3.166
20920SOL    HW164657  10.973  11.540   3.073
20920SOL    HW264658  11.044  11.446   3.168
20921SOL     OW64659   8.042  11.483   3.809
20921SOL    HW164660   8.113  11.421   3.790
20921SOL    HW264661   8.039  11.488   3.904
20922SOL     OW64662   5.321  14.329  13.547
20922SOL    HW164663   5.297  14.240  13.571
20922SOL    HW264664   5.240  14.368  13.516
20923SOL     OW64665   2.340  13.958   0.818
20923SOL    HW164666   2.424  13.921   0.792
20923SOL    HW264667   2.285  13.882   0.838
20924SOL     OW64668  12.940   8.672   7.079
20924SOL    HW164669  12.935   8.698   7.171
20924SOL    HW264670  12.953   8.577   7.081
20925SOL     OW64671   5.766   5.279  14.826
20925SOL    HW164672   5.718   5.232   0.023
20925SOL    HW264673   5.841   5.317  14.871
20926SOL     OW64674   8.665   7.364  11.592
20926SOL    HW164675   8.585   7.322  11.561
20926SOL    HW264676   8.707   7.398  11.513
20927SOL     OW64677  12.342   1.576  14.525
20927SOL    HW164678  12.411   1.640  14.510
20927SOL    HW264679  12.368   1.500  14.474
20928SOL     OW64680  12.104   8.537  11.638
20928SOL    HW164681  12.047   8.614  11.640
20928SOL    HW264682  12.063   8.476  11.700
20929SOL     OW64683   0.797   4.013   0.865
20929SOL    HW164684   0.749   4.058   0.796
20929SOL    HW264685   0.889   4.021   0.840
20930SOL     OW64686  11.191  13.842  12.698
20930SOL    HW164687  11.123  13.885  12.647
20930SOL    HW264688  11.263  13.829  12.636
20931SOL     OW64689   4.900   0.590  12.698
20931SOL    HW164690   4.943   0.617  12.779
20931SOL    HW264691   4.916   0.496  12.692
20932SOL     OW64692   4.725  10.851   2.561
20932SOL    HW164693   4.768  10.931   2.591
20932SOL    HW264694   4.790  10.782   2.574
20933SOL     OW64695   1.840  13.301  10.953
20933SOL    HW164696   1.784  13.371  10.985
20933SOL    HW264697   1.928  13.322  10.986
20934SOL     OW64698   3.357  12.985   6.096
20934SOL    HW164699   3.350  13.025   6.182
20934SOL    HW264700   3.422  12.916   6.107
20935SOL     OW64701   0.589   8.706   3.852
20935SOL    HW164702   0.547   8.656   3.782
20935SOL    HW264703   0.636   8.641   3.904
20936SOL     OW64704  12.340  11.255  14.330
20936SOL    HW164705  12.286  11.197  14.384
20936SOL    HW264706  12.277  11.296  14.270
20937SOL     OW64707  10.240   7.142   2.605
20937SOL    HW164708  10.275   7.111   2.522
20937SOL    HW264709  10.183   7.071   2.636
20938SOL     OW64710   7.467   2.150   9.773
20938SOL    HW164711   7.409   2.153   9.696
20938SOL    HW264712   7.554   2.131   9.737
20939SOL     OW64713   5.993  13.290   0.242
20939SOL    HW164714   6.024  13.333   0.162
20939SOL    HW264715   6.064  13.231   0.267
20940SOL     OW64716   9.707   4.013   2.168
20940SOL    HW164717   9.729   3.931   2.123
20940SOL    HW264718   9.786   4.067   2.159
20941SOL     OW64719   6.246   2.966   5.303
20941SOL    HW164720   6.153   2.956   5.325
20941SOL    HW264721   6.283   3.013   5.377
20942SOL     OW64722   6.087   8.693  11.190
20942SOL    HW164723   6.073   8.661  11.101
20942SOL    HW264724   6.000   8.713  11.223
20943SOL     OW64725   3.953  13.086   5.828
20943SOL    HW164726   3.951  13.022   5.756
20943SOL    HW264727   3.947  13.171   5.784
20944SOL     OW64728   3.458  11.337   3.557
20944SOL    HW164729   3.522  11.365   3.492
20944SOL    HW264730   3.504  11.347   3.641
20945SOL     OW64731   3.904   3.400  12.636
20945SOL    HW164732   3.956   3.440  12.566
20945SOL    HW264733   3.826   3.455  12.642
20946SOL     OW64734   2.788  14.024  10.025
20946SOL    HW164735   2.792  14.029   9.929
20946SOL    HW264736   2.713  13.967  10.043
20947SOL     OW64737  10.663  14.022   4.266
20947SOL    HW164738  10.637  14.081   4.196
20947SOL    HW264739  10.676  13.937   4.222
20948SOL     OW64740   1.433   1.788   0.381
20948SOL    HW164741   1.393   1.706   0.353
20948SOL    HW264742   1.454   1.833   0.299
20949SOL     OW64743   5.392  10.456   2.834
20949SOL    HW164744   5.417  10.403   2.758
20949SOL    HW264745   5.475  10.486   2.871
20950SOL     OW64746   4.061  14.262   9.608
20950SOL    HW164747   3.992  14.197   9.605
20950SOL    HW264748   4.066  14.288   9.700
20951SOL     OW64749   3.528  13.233  10.209
20951SOL    HW164750   3.452  13.223  10.266
20951SOL    HW264751   3.501  13.297  10.143
20952SOL     OW64752   3.618   9.855   2.070
20952SOL    HW164753   3.650   9.844   1.980
20952SOL    HW264754   3.540   9.801   2.074
20953SOL     OW64755   1.944  14.064  14.522
20953SOL    HW164756   2.016  14.026  14.472
20953SOL    HW264757   1.984  14.089  14.605
20954SOL     OW64758   4.213  13.107   7.172
20954SOL    HW164759   4.249  13.069   7.091
20954SOL    HW264760   4.290  13.123   7.226
20955SOL     OW64761   7.986   1.277   4.109
20955SOL    HW164762   7.941   1.283   4.194
20955SOL    HW264763   8.033   1.359   4.101
20956SOL     OW64764   7.485  10.833   5.111
20956SOL    HW164765   7.551  10.901   5.119
20956SOL    HW264766   7.458  10.836   5.019
20957SOL     OW64767  14.189  12.659   4.134
20957SOL    HW164768  14.221  12.577   4.096
20957SOL    HW264769  14.247  12.676   4.208
20958SOL     OW64770   9.598   4.492   2.541
20958SOL    HW164771   9.565   4.545   2.613
20958SOL    HW264772   9.672   4.444   2.577
20959SOL     OW64773  10.490  11.842   8.481
20959SOL    HW164774  10.411  11.788   8.479
20959SOL    HW264775  10.539  11.816   8.403
20960SOL     OW64776   3.166   0.901  10.638
20960SOL    HW164777   3.196   0.952  10.562
20960SOL    HW264778   3.242   0.848  10.662
20961SOL     OW64779  13.659   3.677   3.262
20961SOL    HW164780  13.664   3.748   3.326
20961SOL    HW264781  13.651   3.721   3.178
20962SOL     OW64782  11.165   8.014  13.667
20962SOL    HW164783  11.252   8.016  13.706
20962SOL    HW264784  11.119   7.944  13.712
20963SOL     OW64785  12.357   8.313  13.374
20963SOL    HW164786  12.409   8.233  13.373
20963SOL    HW264787  12.359   8.341  13.466
20964SOL     OW64788  14.391   4.980   5.737
20964SOL    HW164789  14.465   5.041   5.746
20964SOL    HW264790  14.322   5.033   5.697
20965SOL     OW64791   7.759   7.574  13.815
20965SOL    HW164792   7.768   7.585  13.721
20965SOL    HW264793   7.685   7.514  13.826
20966SOL     OW64794  10.834   4.638   9.509
20966SOL    HW164795  10.858   4.614   9.420
20966SOL    HW264796  10.749   4.681   9.501
20967SOL     OW64797  10.406   1.483   5.270
20967SOL    HW164798  10.363   1.569   5.269
20967SOL    HW264799  10.421   1.464   5.362
20968SOL     OW64800   6.148   9.265  12.692
20968SOL    HW164801   6.170   9.246  12.601
20968SOL    HW264802   6.074   9.207  12.711
20969SOL     OW64803   8.383   1.493  10.419
20969SOL    HW164804   8.313   1.479  10.354
20969SOL    HW264805   8.338   1.490  10.503
20970SOL     OW64806   8.027  10.298   5.608
20970SOL    HW164807   8.001  10.232   5.543
20970SOL    HW264808   8.013  10.382   5.564
20971SOL     OW64809  11.182   6.626   6.025
20971SOL    HW164810  11.174   6.567   5.950
20971SOL    HW264811  11.114   6.692   6.012
20972SOL     OW64812   5.621  13.337  11.517
20972SOL    HW164813   5.667  13.394  11.578
20972SOL    HW264814   5.575  13.274  11.572
20973SOL     OW64815   7.568  13.357   3.295
20973SOL    HW164816   7.608  13.410   3.364
20973SOL    HW264817   7.587  13.267   3.320
20974SOL     OW64818   0.550  14.772   7.468
20974SOL    HW164819   0.489  14.710   7.507
20974SOL    HW264820   0.628  14.767   7.524
20975SOL     OW64821   6.449   2.481  13.490
20975SOL    HW164822   6.375   2.496  13.432
20975SOL    HW264823   6.525   2.511  13.440
20976SOL     OW64824  14.094  12.872   2.251
20976SOL    HW164825  14.024  12.837   2.305
20976SOL    HW264826  14.173  12.825   2.280
20977SOL     OW64827  14.635  11.854  13.038
20977SOL    HW164828  14.730  11.865  13.046
20977SOL    HW264829  14.624  11.761  13.016
20978SOL     OW64830   8.937  13.719   2.939
20978SOL    HW164831   8.872  13.789   2.930
20978SOL    HW264832   8.891  13.651   2.990
20979SOL     OW64833  13.495   6.343   5.095
20979SOL    HW164834  13.567   6.280   5.100
20979SOL    HW264835  13.451   6.336   5.179
20980SOL     OW64836   6.103   7.001   5.346
20980SOL    HW164837   6.157   6.958   5.280
20980SOL    HW264838   6.156   7.074   5.377
20981SOL     OW64839   1.430  11.231   7.628
20981SOL    HW164840   1.489  11.293   7.584
20981SOL    HW264841   1.375  11.286   7.684
20982SOL     OW64842  14.191  10.877   1.588
20982SOL    HW164843  14.210  10.971   1.583
20982SOL    HW264844  14.212  10.853   1.679
20983SOL     OW64845  11.688   3.590   7.914
20983SOL    HW164846  11.732   3.577   7.831
20983SOL    HW264847  11.744   3.650   7.963
20984SOL     OW64848   3.671   8.234   8.796
20984SOL    HW164849   3.659   8.180   8.718
20984SOL    HW264850   3.608   8.305   8.786
20985SOL     OW64851  13.489   8.066   5.487
20985SOL    HW164852  13.420   8.012   5.526
20985SOL    HW264853  13.445   8.148   5.464
20986SOL     OW64854   0.524   2.875  11.635
20986SOL    HW164855   0.529   2.857  11.541
20986SOL    HW264856   0.460   2.812  11.668
20987SOL     OW64857   9.936   2.101  11.868
20987SOL    HW164858   9.954   2.148  11.786
20987SOL    HW264859  10.008   2.126  11.926
20988SOL     OW64860  10.462   0.347   1.823
20988SOL    HW164861  10.441   0.424   1.771
20988SOL    HW264862  10.429   0.368   1.910
20989SOL     OW64863   9.898   8.548   0.673
20989SOL    HW164864   9.853   8.624   0.708
20989SOL    HW264865   9.983   8.582   0.644
20990SOL     OW64866   2.866  10.275   5.669
20990SOL    HW164867   2.871  10.318   5.584
20990SOL    HW264868   2.909  10.335   5.730
20991SOL     OW64869   8.183   1.004  10.759
20991SOL    HW164870   8.111   0.947  10.786
20991SOL    HW264871   8.169   1.085  10.808
20992SOL     OW64872  11.919   3.964   5.710
20992SOL    HW164873  11.928   3.874   5.743
20992SOL    HW264874  11.825   3.976   5.697
20993SOL     OW64875   6.073  14.334   3.873
20993SOL    HW164876   6.124  14.408   3.905
20993SOL    HW264877   6.050  14.357   3.783
20994SOL     OW64878   6.316  10.143   7.822
20994SOL    HW164879   6.395  10.174   7.867
20994SOL    HW264880   6.243  10.179   7.873
20995SOL     OW64881   5.692   7.188   9.221
20995SOL    HW164882   5.758   7.240   9.268
20995SOL    HW264883   5.629   7.252   9.190
20996SOL     OW64884   8.742   9.811   4.805
20996SOL    HW164885   8.787   9.728   4.819
20996SOL    HW264886   8.722   9.842   4.893
20997SOL     OW64887  13.049   3.423   1.714
20997SOL    HW164888  13.055   3.344   1.659
20997SOL    HW264889  12.970   3.408   1.766
20998SOL     OW64890   3.690   0.962   3.235
20998SOL    HW164891   3.617   1.011   3.273
20998SOL    HW264892   3.746   0.941   3.310
20999SOL     OW64893  10.570   9.662   9.194
20999SOL    HW164894  10.495   9.667   9.136
20999SOL    HW264895  10.564   9.741   9.248
21000SOL     OW64896   0.690  14.458  10.727
21000SOL    HW164897   0.685  14.478  10.634
21000SOL    HW264898   0.635  14.524  10.769
21001SOL     OW64899   6.971   9.146   3.002
21001SOL    HW164900   6.911   9.093   2.949
21001SOL    HW264901   6.922   9.225   3.023
21002SOL     OW64902   7.939   3.318  11.301
21002SOL    HW164903   7.875   3.384  11.273
21002SOL    HW264904   7.907   3.237  11.261
21003SOL     OW64905  12.833   2.523  14.870
21003SOL    HW164906  12.813   2.572   0.078
21003SOL    HW264907  12.902   2.462   0.024
21004SOL     OW64908  13.028  11.638   1.429
21004SOL    HW164909  13.106  11.653   1.482
21004SOL    HW264910  13.010  11.722   1.387
21005SOL     OW64911  13.458   2.046   1.959
21005SOL    HW164912  13.442   1.958   1.927
21005SOL    HW264913  13.381   2.068   2.011
21006SOL     OW64914   4.177   5.143  14.411
21006SOL    HW164915   4.136   5.062  14.441
21006SOL    HW264916   4.232   5.117  14.337
21007SOL     OW64917  10.631   6.438  11.847
21007SOL    HW164918  10.564   6.462  11.911
21007SOL    HW264919  10.626   6.506  11.780
21008SOL     OW64920   0.861  13.668   2.660
21008SOL    HW164921   0.767  13.683   2.664
21008SOL    HW264922   0.892  13.685   2.749
21009SOL     OW64923  14.641   4.179  13.191
21009SOL    HW164924  14.581   4.213  13.256
21009SOL    HW264925  14.585   4.149  13.119
21010SOL     OW64926  13.663  12.864   5.313
21010SOL    HW164927  13.611  12.808   5.371
21010SOL    HW264928  13.688  12.807   5.240
21011SOL     OW64929   3.805   7.060   0.118
21011SOL    HW164930   3.802   7.155   0.118
21011SOL    HW264931   3.747   7.034   0.047
21012SOL     OW64932   9.274   9.196  11.511
21012SOL    HW164933   9.266   9.286  11.542
21012SOL    HW264934   9.201   9.150  11.553
21013SOL     OW64935  11.206  14.643   0.511
21013SOL    HW164936  11.238  14.732   0.524
21013SOL    HW264937  11.283  14.588   0.522
21014SOL     OW64938   7.388   8.766   2.348
21014SOL    HW164939   7.427   8.755   2.261
21014SOL    HW264940   7.398   8.859   2.368
21015SOL     OW64941   5.106   6.290  11.907
21015SOL    HW164942   5.184   6.254  11.865
21015SOL    HW264943   5.140   6.347  11.977
21016SOL     OW64944   2.814  11.712  13.026
21016SOL    HW164945   2.781  11.726  12.937
21016SOL    HW264946   2.909  11.718  13.017
21017SOL     OW64947   1.865   6.686   9.144
21017SOL    HW164948   1.896   6.775   9.134
21017SOL    HW264949   1.929   6.632   9.097
21018SOL     OW64950   3.309   2.426   4.178
21018SOL    HW164951   3.214   2.422   4.176
21018SOL    HW264952   3.332   2.494   4.114
21019SOL     OW64953   9.419   9.326  13.481
21019SOL    HW164954   9.470   9.388  13.428
21019SOL    HW264955   9.346   9.378  13.514
21020SOL     OW64956   3.467  11.676   9.869
21020SOL    HW164957   3.439  11.612   9.935
21020SOL    HW264958   3.388  11.727   9.850
21021SOL     OW64959   0.631  11.381   6.347
21021SOL    HW164960   0.719  11.359   6.318
21021SOL    HW264961   0.576  11.370   6.269
21022SOL     OW64962   2.345   7.500  12.161
21022SOL    HW164963   2.330   7.552  12.240
21022SOL    HW264964   2.344   7.564  12.090
21023SOL     OW64965   9.472   4.805   0.552
21023SOL    HW164966   9.521   4.811   0.470
21023SOL    HW264967   9.510   4.874   0.607
21024SOL     OW64968   1.599  12.581   5.417
21024SOL    HW164969   1.612  12.551   5.507
21024SOL    HW264970   1.519  12.537   5.389
21025SOL     OW64971  10.249   3.707   1.409
21025SOL    HW164972  10.267   3.726   1.317
21025SOL    HW264973  10.158   3.734   1.421
21026SOL     OW64974   0.129  10.749  11.867
21026SOL    HW164975   0.161  10.673  11.916
21026SOL    HW264976   0.152  10.824  11.922
21027SOL     OW64977   2.867   7.942   3.330
21027SOL    HW164978   2.932   7.911   3.394
21027SOL    HW264979   2.858   7.869   3.268
21028SOL     OW64980   9.692  13.338  13.720
21028SOL    HW164981   9.735  13.409  13.673
21028SOL    HW264982   9.599  13.354  13.709
21029SOL     OW64983   4.673   2.826   4.965
21029SOL    HW164984   4.747   2.789   5.013
21029SOL    HW264985   4.621   2.750   4.938
21030SOL     OW64986   0.300   0.650   7.664
21030SOL    HW164987   0.237   0.709   7.703
21030SOL    HW264988   0.298   0.572   7.719
21031SOL     OW64989  13.275   6.251   8.118
21031SOL    HW164990  13.277   6.257   8.022
21031SOL    HW264991  13.242   6.337   8.145
21032SOL     OW64992   9.373   4.124   0.155
21032SOL    HW164993   9.319   4.045   0.159
21032SOL    HW264994   9.372   4.159   0.244
21033SOL     OW64995   4.043   8.057   4.334
21033SOL    HW164996   4.100   8.018   4.400
21033SOL    HW264997   3.984   7.986   4.309
21034SOL     OW64998   9.790   2.742  11.199
21034SOL    HW164999   9.695   2.757  11.192
21034SOL    HW265000   9.818   2.728  11.109
21035SOL     OW65001   3.822   3.476   1.230
21035SOL    HW165002   3.749   3.475   1.292
21035SOL    HW265003   3.886   3.414   1.267
21036SOL     OW65004   8.217   4.017  14.662
21036SOL    HW165005   8.231   3.925  14.642
21036SOL    HW265006   8.280   4.064  14.607
21037SOL     OW65007  13.269   3.105  11.785
21037SOL    HW165008  13.176   3.089  11.770
21037SOL    HW265009  13.297   3.036  11.845
21038SOL     OW65010   0.071   4.277  13.931
21038SOL    HW165011   0.013   4.321  13.994
21038SOL    HW265012   0.105   4.349  13.877
21039SOL     OW65013  12.830   9.968  14.698
21039SOL    HW165014  12.879   9.940  14.776
21039SOL    HW265015  12.742   9.986  14.730
21040SOL     OW65016   6.460   9.168   0.113
21040SOL    HW165017   6.386   9.123   0.071
21040SOL    HW265018   6.521   9.098   0.135
21041SOL     OW65019   5.032  14.541   6.357
21041SOL    HW165020   5.010  14.634   6.359
21041SOL    HW265021   4.978  14.502   6.425
21042SOL     OW65022   3.215   4.972   3.924
21042SOL    HW165023   3.259   4.985   3.840
21042SOL    HW265024   3.172   4.887   3.915
21043SOL     OW65025   3.778   4.033   6.665
21043SOL    HW165026   3.844   4.082   6.714
21043SOL    HW265027   3.809   4.035   6.574
21044SOL     OW65028   3.010  10.974   8.138
21044SOL    HW165029   2.933  11.029   8.145
21044SOL    HW265030   3.029  10.971   8.044
21045SOL     OW65031   6.268   2.895   1.686
21045SOL    HW165032   6.225   2.871   1.604
21045SOL    HW265033   6.275   2.813   1.735
21046SOL     OW65034   0.042  14.063   5.260
21046SOL    HW165035   0.047  14.133   5.325
21046SOL    HW265036  14.830  14.020   5.277
21047SOL     OW65037  14.507   6.182  14.157
21047SOL    HW165038  14.518   6.231  14.076
21047SOL    HW265039  14.575   6.218  14.215
21048SOL     OW65040   8.289   3.458   5.010
21048SOL    HW165041   8.370   3.490   5.052
21048SOL    HW265042   8.293   3.492   4.921
21049SOL     OW65043  14.029   0.442   3.897
21049SOL    HW165044  14.058   0.523   3.938
21049SOL    HW265045  13.933   0.449   3.894
21050SOL     OW65046   0.681   4.606   0.276
21050SOL    HW165047   0.710   4.697   0.285
21050SOL    HW265048   0.675   4.574   0.366
21051SOL     OW65049  11.985  14.425  12.705
21051SOL    HW165050  11.968  14.365  12.777
21051SOL    HW265051  12.061  14.387  12.660
21052SOL     OW65052  13.837  14.666   5.689
21052SOL    HW165053  13.861  14.758   5.703
21052SOL    HW265054  13.877  14.643   5.606
21053SOL     OW65055   6.950  11.207   7.291
21053SOL    HW165056   7.026  11.265   7.286
21053SOL    HW265057   6.971  11.145   7.361
21054SOL     OW65058  13.933   4.585   7.800
21054SOL    HW165059  13.938   4.598   7.895
21054SOL    HW265060  13.842   4.561   7.783
21055SOL     OW65061  14.065  14.018   1.121
21055SOL    HW165062  13.977  14.009   1.157
21055SOL    HW265063  14.123  14.003   1.196
21056SOL     OW65064  13.429  14.264   1.026
21056SOL    HW165065  13.409  14.345   0.979
21056SOL    HW265066  13.425  14.288   1.119
21057SOL     OW65067  11.932   8.344  11.022
21057SOL    HW165068  12.003   8.289  11.054
21057SOL    HW265069  11.870   8.283  10.981
21058SOL     OW65070  14.459   9.169   8.352
21058SOL    HW165071  14.403   9.170   8.429
21058SOL    HW265072  14.501   9.083   8.354
21059SOL     OW65073   5.209   6.589   4.655
21059SOL    HW165074   5.257   6.593   4.572
21059SOL    HW265075   5.259   6.529   4.709
21060SOL     OW65076   6.288  14.850   9.610
21060SOL    HW165077   6.273   0.028   9.529
21060SOL    HW265078   6.210  14.866   9.663
21061SOL     OW65079   3.034   0.525  11.729
21061SOL    HW165080   3.050   0.431  11.725
21061SOL    HW265081   3.118   0.562  11.757
21062SOL     OW65082   5.413   3.212  13.724
21062SOL    HW165083   5.460   3.177  13.649
21062SOL    HW265084   5.321   3.190  13.708
21063SOL     OW65085   9.430   0.901   6.325
21063SOL    HW165086   9.343   0.875   6.295
21063SOL    HW265087   9.467   0.948   6.250
21064SOL     OW65088  13.824  11.223  11.440
21064SOL    HW165089  13.737  11.230  11.401
21064SOL    HW265090  13.842  11.129  11.442
21065SOL     OW65091  10.800  11.288  10.561
21065SOL    HW165092  10.860  11.267  10.490
21065SOL    HW265093  10.829  11.234  10.634
21066SOL     OW65094  13.772   1.303   9.828
21066SOL    HW165095  13.854   1.348   9.850
21066SOL    HW265096  13.764   1.310   9.733
21067SOL     OW65097   5.044   1.754  11.571
21067SOL    HW165098   4.963   1.726  11.528
21067SOL    HW265099   5.025   1.841  11.605
21068SOL     OW65100   3.377   0.167   7.311
21068SOL    HW165101   3.466   0.133   7.308
21068SOL    HW265102   3.369   0.208   7.397
21069SOL     OW65103   8.480  10.198   9.355
21069SOL    HW165104   8.506  10.143   9.281
21069SOL    HW265105   8.525  10.160   9.431
21070SOL     OW65106  14.062   2.055   5.911
21070SOL    HW165107  14.145   2.103   5.908
21070SOL    HW265108  14.086   1.964   5.893
21071SOL     OW65109  11.207   8.020  11.029
21071SOL    HW165110  11.253   7.969  10.962
21071SOL    HW265111  11.156   8.084  10.979
21072SOL     OW65112   3.611   5.320  12.377
21072SOL    HW165113   3.594   5.278  12.461
21072SOL    HW265114   3.536   5.377  12.363
21073SOL     OW65115   1.904  14.218  13.804
21073SOL    HW165116   1.930  14.310  13.807
21073SOL    HW265117   1.971  14.172  13.854
21074SOL     OW65118   5.945   3.612   2.492
21074SOL    HW165119   5.947   3.707   2.496
21074SOL    HW265120   5.998   3.590   2.415
21075SOL     OW65121   2.702   6.937   4.297
21075SOL    HW165122   2.672   7.028   4.296
21075SOL    HW265123   2.737   6.922   4.210
21076SOL     OW65124   9.501   2.345  12.232
21076SOL    HW165125   9.465   2.428  12.200
21076SOL    HW265126   9.446   2.323  12.308
21077SOL     OW65127   2.150   8.029   3.922
21077SOL    HW165128   2.157   8.094   3.852
21077SOL    HW265129   2.088   8.066   3.983
21078SOL     OW65130  11.373   2.989  14.075
21078SOL    HW165131  11.358   3.084  14.071
21078SOL    HW265132  11.293   2.951  14.038
21079SOL     OW65133  11.041  11.087   2.869
21079SOL    HW165134  11.037  11.061   2.777
21079SOL    HW265135  11.103  11.027   2.909
21080SOL     OW65136   6.342   5.967   0.533
21080SOL    HW165137   6.333   6.061   0.516
21080SOL    HW265138   6.256   5.940   0.564
21081SOL     OW65139  10.577   3.538   7.462
21081SOL    HW165140  10.482   3.542   7.454
21081SOL    HW265141  10.593   3.535   7.556
21082SOL     OW65142   5.496   0.704   2.800
21082SOL    HW165143   5.572   0.740   2.753
21082SOL    HW265144   5.507   0.609   2.793
21083SOL     OW65145  11.119   0.416  11.628
21083SOL    HW165146  11.173   0.473  11.574
21083SOL    HW265147  11.031   0.424  11.591
21084SOL     OW65148   4.886   7.937  10.896
21084SOL    HW165149   4.953   7.986  10.848
21084SOL    HW265150   4.828   7.903  10.828
21085SOL     OW65151   9.554  10.249  12.218
21085SOL    HW165152   9.614  10.185  12.179
21085SOL    HW265153   9.509  10.289  12.144
21086SOL     OW65154   4.436   0.815   5.827
21086SOL    HW165155   4.495   0.755   5.782
21086SOL    HW265156   4.415   0.771   5.909
21087SOL     OW65157  12.591   7.664   8.969
21087SOL    HW165158  12.553   7.590   8.922
21087SOL    HW265159  12.594   7.636   9.060
21088SOL     OW65160   9.574  13.287   3.795
21088SOL    HW165161   9.589  13.362   3.736
21088SOL    HW265162   9.483  13.262   3.779
21089SOL     OW65163   7.611   5.925  12.474
21089SOL    HW165164   7.606   5.841  12.517
21089SOL    HW265165   7.693   5.923  12.425
21090SOL     OW65166   2.796   3.421  14.652
21090SOL    HW165167   2.701   3.419  14.646
21090SOL    HW265168   2.826   3.391  14.566
21091SOL     OW65169  12.057   3.826   7.882
21091SOL    HW165170  12.105   3.858   7.958
21091SOL    HW265171  11.966   3.824   7.910
21092SOL     OW65172   4.595   7.299   2.318
21092SOL    HW165173   4.567   7.360   2.250
21092SOL    HW265174   4.576   7.212   2.281
21093SOL     OW65175   3.912  13.890  14.610
21093SOL    HW165176   3.853  13.919  14.541
21093SOL    HW265177   3.961  13.817  14.571
21094SOL     OW65178   2.163   9.326   3.715
21094SOL    HW165179   2.099   9.369   3.659
21094SOL    HW265180   2.211   9.267   3.657
21095SOL     OW65181  13.994  11.999   2.126
21095SOL    HW165182  13.981  11.969   2.216
21095SOL    HW265183  14.004  12.094   2.133
21096SOL     OW65184  12.647  12.004   3.091
21096SOL    HW165185  12.572  12.026   3.147
21096SOL    HW265186  12.700  11.945   3.144
21097SOL     OW65187   0.212   8.881   7.167
21097SOL    HW165188   0.182   8.793   7.189
21097SOL    HW265189   0.155   8.908   7.095
21098SOL     OW65190  10.296   1.617   6.094
21098SOL    HW165191  10.377   1.653   6.060
21098SOL    HW265192  10.250   1.583   6.018
21099SOL     OW65193   1.596  11.314  11.114
21099SOL    HW165194   1.622  11.319  11.022
21099SOL    HW265195   1.567  11.403  11.136
21100SOL     OW65196  11.270   5.812   7.671
21100SOL    HW165197  11.277   5.783   7.762
21100SOL    HW265198  11.185   5.856   7.666
21101SOL     OW65199   0.979  12.826   8.645
21101SOL    HW165200   0.915  12.881   8.691
21101SOL    HW265201   1.058  12.880   8.638
21102SOL     OW65202   0.149  10.228  13.194
21102SOL    HW165203   0.152  10.141  13.234
21102SOL    HW265204   0.058  10.237  13.165
21103SOL     OW65205   2.808   4.829   1.170
21103SOL    HW165206   2.780   4.913   1.134
21103SOL    HW265207   2.835   4.778   1.094
21104SOL     OW65208  10.269   7.661   3.466
21104SOL    HW165209  10.270   7.601   3.392
21104SOL    HW265210  10.180   7.695   3.469
21105SOL     OW65211   1.902   1.113  14.352
21105SOL    HW165212   1.824   1.141  14.305
21105SOL    HW265213   1.869   1.070  14.431
21106SOL     OW65214  13.036   6.296   9.543
21106SOL    HW165215  13.039   6.247   9.625
21106SOL    HW265216  13.112   6.265   9.493
21107SOL     OW65217   7.558   3.789  10.354
21107SOL    HW165218   7.635   3.749  10.394
21107SOL    HW265219   7.592   3.837  10.278
21108SOL     OW65220   5.007   7.005  12.677
21108SOL    HW165221   5.084   6.950  12.661
21108SOL    HW265222   4.957   6.956  12.744
21109SOL     OW65223   7.587   3.410  11.029
21109SOL    HW165224   7.564   3.498  10.999
21109SOL    HW265225   7.640   3.424  11.107
21110SOL     OW65226  13.901   7.834   4.681
21110SOL    HW165227  13.863   7.747   4.691
21110SOL    HW265228  13.946   7.850   4.765
21111SOL     OW65229   5.945  14.660   0.703
21111SOL    HW165230   6.014  14.625   0.646
21111SOL    HW265231   5.865  14.616   0.673
21112SOL     OW65232  13.754   5.236   4.570
21112SOL    HW165233  13.817   5.179   4.615
21112SOL    HW265234  13.766   5.217   4.477
21113SOL     OW65235  14.350   6.938   2.295
21113SOL    HW165236  14.377   6.957   2.385
21113SOL    HW265237  14.283   6.871   2.304
21114SOL     OW65238   5.967   0.434   2.342
21114SOL    HW165239   5.878   0.435   2.377
21114SOL    HW265240   5.998   0.345   2.358
21115SOL     OW65241  12.291   2.908   4.791
21115SOL    HW165242  12.268   2.846   4.860
21115SOL    HW265243  12.343   2.975   4.836
21116SOL     OW65244   8.879  13.350   6.087
21116SOL    HW165245   8.865  13.412   6.015
21116SOL    HW265246   8.819  13.379   6.155
21117SOL     OW65247   9.013   4.113   2.479
21117SOL    HW165248   8.966   4.038   2.518
21117SOL    HW265249   8.959   4.189   2.500
21118SOL     OW65250  11.192   2.770   9.267
21118SOL    HW165251  11.281   2.767   9.301
21118SOL    HW265252  11.159   2.857   9.291
21119SOL     OW65253   3.320  13.899   2.666
21119SOL    HW165254   3.402  13.925   2.625
21119SOL    HW265255   3.314  13.954   2.744
21120SOL     OW65256  11.367   8.635   2.866
21120SOL    HW165257  11.371   8.724   2.899
21120SOL    HW265258  11.313   8.588   2.929
21121SOL     OW65259   9.252   1.367  11.411
21121SOL    HW165260   9.229   1.298  11.473
21121SOL    HW265261   9.343   1.388  11.430
21122SOL     OW65262   2.386   7.068  14.449
21122SOL    HW165263   2.303   7.039  14.411
21122SOL    HW265264   2.408   6.999  14.512
21123SOL     OW65265  13.725   5.744   0.287
21123SOL    HW165266  13.783   5.806   0.243
21123SOL    HW265267  13.783   5.693   0.344
21124SOL     OW65268   9.163   5.353   9.072
21124SOL    HW165269   9.208   5.283   9.025
21124SOL    HW265270   9.212   5.432   9.049
21125SOL     OW65271   1.316  13.031  13.023
21125SOL    HW165272   1.290  12.983  12.944
21125SOL    HW265273   1.270  12.986  13.094
21126SOL     OW65274   4.072   9.323   1.985
21126SOL    HW165275   4.003   9.266   1.950
21126SOL    HW265276   4.123   9.350   1.909
21127SOL     OW65277   4.714   8.895  10.216
21127SOL    HW165278   4.743   8.932  10.300
21127SOL    HW265279   4.738   8.803  10.220
21128SOL     OW65280   3.648   2.776  11.744
21128SOL    HW165281   3.681   2.715  11.678
21128SOL    HW265282   3.563   2.804  11.710
21129SOL     OW65283   6.792   4.232  11.484
21129SOL    HW165284   6.871   4.209  11.434
21129SOL    HW265285   6.804   4.325  11.505
21130SOL     OW65286   6.972   3.857  10.974
21130SOL    HW165287   7.043   3.798  11.001
21130SOL    HW265288   6.960   3.840  10.881
21131SOL     OW65289   8.795  11.596  13.778
21131SOL    HW165290   8.747  11.523  13.818
21131SOL    HW265291   8.841  11.557  13.704
21132SOL     OW65292  11.272   2.421   2.036
21132SOL    HW165293  11.195   2.478   2.030
21132SOL    HW265294  11.340   2.478   2.071
21133SOL     OW65295   5.726  14.622   9.052
21133SOL    HW165296   5.820  14.608   9.039
21133SOL    HW265297   5.721  14.692   9.117
21134SOL     OW65298   5.255  11.099   9.854
21134SOL    HW165299   5.264  11.015   9.899
21134SOL    HW265300   5.344  11.132   9.846
21135SOL     OW65301   9.419   9.234   2.969
21135SOL    HW165302   9.356   9.299   2.937
21135SOL    HW265303   9.504   9.276   2.959
21136SOL     OW65304  12.571  12.927   6.962
21136SOL    HW165305  12.642  12.875   6.924
21136SOL    HW265306  12.565  12.896   7.053
21137SOL     OW65307  10.805   5.713  14.855
21137SOL    HW165308  10.861   5.635  14.858
21137SOL    HW265309  10.748   5.698  14.780
21138SOL     OW65310   6.065  13.143  10.095
21138SOL    HW165311   6.118  13.220  10.076
21138SOL    HW265312   6.113  13.097  10.164
21139SOL     OW65313  11.847  12.540  12.828
21139SOL    HW165314  11.875  12.626  12.797
21139SOL    HW265315  11.927  12.501  12.864
21140SOL     OW65316  12.336   7.484  12.916
21140SOL    HW165317  12.290   7.522  12.842
21140SOL    HW265318  12.347   7.391  12.893
21141SOL     OW65319  12.933   8.056  11.946
21141SOL    HW165320  12.863   7.997  11.919
21141SOL    HW265321  12.984   8.071  11.866
21142SOL     OW65322   6.208   4.748   4.653
21142SOL    HW165323   6.278   4.771   4.714
21142SOL    HW265324   6.169   4.831   4.628
21143SOL     OW65325  11.895   2.894   5.787
21143SOL    HW165326  11.805   2.882   5.755
21143SOL    HW265327  11.945   2.917   5.708
21144SOL     OW65328   7.497   2.866   2.114
21144SOL    HW165329   7.499   2.771   2.100
21144SOL    HW265330   7.404   2.888   2.117
21145SOL     OW65331   8.377  10.622  12.593
21145SOL    HW165332   8.447  10.577  12.546
21145SOL    HW265333   8.336  10.678  12.527
21146SOL     OW65334  12.733   9.209   1.924
21146SOL    HW165335  12.808   9.154   1.901
21146SOL    HW265336  12.753   9.241   2.012
21147SOL     OW65337   5.624   6.647   5.094
21147SOL    HW165338   5.565   6.604   5.156
21147SOL    HW265339   5.588   6.628   5.008
21148SOL     OW65340  13.086  12.731   5.807
21148SOL    HW165341  13.054  12.779   5.730
21148SOL    HW265342  13.111  12.798   5.869
21149SOL     OW65343   5.301   5.479  12.995
21149SOL    HW165344   5.284   5.521  13.079
21149SOL    HW265345   5.392   5.449  13.002
21150SOL     OW65346   1.317   5.284  10.755
21150SOL    HW165347   1.353   5.196  10.768
21150SOL    HW265348   1.349   5.334  10.830
21151SOL     OW65349  13.197   3.776   3.392
21151SOL    HW165350  13.172   3.868   3.391
21151SOL    HW265351  13.244   3.764   3.310
21152SOL     OW65352  11.743   9.838  10.320
21152SOL    HW165353  11.774   9.764  10.372
21152SOL    HW265354  11.647   9.831  10.324
21153SOL     OW65355  14.058  11.353  12.563
21153SOL    HW165356  14.047  11.329  12.471
21153SOL    HW265357  13.994  11.300  12.609
21154SOL     OW65358  10.895   7.227  10.364
21154SOL    HW165359  10.959   7.190  10.426
21154SOL    HW265360  10.941   7.300  10.324
21155SOL     OW65361   0.900   2.850   2.952
21155SOL    HW165362   0.960   2.845   2.878
21155SOL    HW265363   0.909   2.940   2.984
21156SOL     OW65364  12.786   4.713   3.471
21156SOL    HW165365  12.776   4.695   3.377
21156SOL    HW265366  12.881   4.722   3.484
21157SOL     OW65367   0.719   1.364   0.124
21157SOL    HW165368   0.649   1.422   0.094
21157SOL    HW265369   0.698   1.347   0.215
21158SOL     OW65370   0.823   8.016   9.843
21158SOL    HW165371   0.890   7.973   9.896
21158SOL    HW265372   0.812   7.958   9.767
21159SOL     OW65373  10.647  14.063   9.733
21159SOL    HW165374  10.671  14.003   9.804
21159SOL    HW265375  10.693  14.029   9.656
21160SOL     OW65376   8.950   6.878   8.839
21160SOL    HW165377   8.890   6.849   8.771
21160SOL    HW265378   8.910   6.848   8.921
21161SOL     OW65379  12.850   3.388   1.858
21161SOL    HW165380  12.821   3.385   1.950
21161SOL    HW265381  12.769   3.381   1.808
21162SOL     OW65382   3.112   2.900   2.274
21162SOL    HW165383   3.077   2.988   2.260
21162SOL    HW265384   3.049   2.842   2.232
21163SOL     OW65385  10.371   9.042   2.638
21163SOL    HW165386  10.280   9.070   2.633
21163SOL    HW265387  10.376   8.963   2.585
21164SOL     OW65388   2.285   0.373   3.766
21164SOL    HW165389   2.192   0.393   3.771
21164SOL    HW265390   2.313   0.408   3.681
21165SOL     OW65391   6.885  13.703  12.306
21165SOL    HW165392   6.827  13.758  12.254
21165SOL    HW265393   6.972  13.739  12.290
21166SOL     OW65394  12.560   5.740   9.935
21166SOL    HW165395  12.488   5.678   9.939
21166SOL    HW265396  12.519   5.824   9.913
21167SOL     OW65397   9.401   6.102  12.272
21167SOL    HW165398   9.314   6.065  12.254
21167SOL    HW265399   9.454   6.026  12.298
21168SOL     OW65400  12.566   9.515   0.162
21168SOL    HW165401  12.490   9.500   0.106
21168SOL    HW265402  12.529   9.523   0.250
21169SOL     OW65403  12.855   5.444   4.199
21169SOL    HW165404  12.851   5.367   4.257
21169SOL    HW265405  12.925   5.424   4.137
21170SOL     OW65406   5.852   8.001  11.226
21170SOL    HW165407   5.905   7.954  11.290
21170SOL    HW265408   5.837   8.087  11.266
21171SOL     OW65409  13.675   8.544   9.962
21171SOL    HW165410  13.679   8.640   9.971
21171SOL    HW265411  13.761   8.514   9.989
21172SOL     OW65412  11.840   1.686  12.025
21172SOL    HW165413  11.827   1.740  11.946
21172SOL    HW265414  11.914   1.727  12.069
21173SOL     OW65415  10.475   8.756  13.611
21173SOL    HW165416  10.523   8.834  13.641
21173SOL    HW265417  10.446   8.778  13.523
21174SOL     OW65418  13.655   5.579  12.471
21174SOL    HW165419  13.668   5.510  12.406
21174SOL    HW265420  13.670   5.537  12.555
21175SOL     OW65421   2.087   1.611   3.449
21175SOL    HW165422   2.033   1.564   3.385
21175SOL    HW265423   2.024   1.648   3.510
21176SOL     OW65424  11.090   9.903   8.943
21176SOL    HW165425  11.068   9.932   8.855
21176SOL    HW265426  11.168   9.953   8.967
21177SOL     OW65427  13.169   5.918   1.733
21177SOL    HW165428  13.117   5.988   1.773
21177SOL    HW265429  13.139   5.915   1.642
21178SOL     OW65430   4.881  11.488  10.753
21178SOL    HW165431   4.907  11.529  10.835
21178SOL    HW265432   4.909  11.549  10.685
21179SOL     OW65433   4.999   0.262  11.764
21179SOL    HW165434   5.023   0.353  11.748
21179SOL    HW265435   4.933   0.243  11.697
21180SOL     OW65436   2.888   4.577   3.518
21180SOL    HW165437   2.853   4.639   3.454
21180SOL    HW265438   2.964   4.538   3.475
21181SOL     OW65439  11.742  13.975   0.569
21181SOL    HW165440  11.652  13.941   0.572
21181SOL    HW265441  11.736  14.056   0.519
21182SOL     OW65442   4.159   3.744  14.863
21182SOL    HW165443   4.215   3.734   0.068
21182SOL    HW265444   4.180   3.832  14.830
21183SOL     OW65445   9.545   7.229   3.444
21183SOL    HW165446   9.564   7.234   3.538
21183SOL    HW265447   9.466   7.282   3.433
21184SOL     OW65448  12.981  10.583  10.259
21184SOL    HW165449  12.963  10.646  10.329
21184SOL    HW265450  12.924  10.610  10.188
21185SOL     OW65451   5.064  13.830   2.245
21185SOL    HW165452   5.077  13.793   2.333
21185SOL    HW265453   5.150  13.865   2.222
21186SOL     OW65454  12.658   0.806   5.521
21186SOL    HW165455  12.612   0.868   5.577
21186SOL    HW265456  12.709   0.752   5.581
21187SOL     OW65457   7.437   3.096   4.434
21187SOL    HW165458   7.443   3.108   4.340
21187SOL    HW265459   7.493   3.020   4.452
21188SOL     OW65460   4.568   2.697  13.654
21188SOL    HW165461   4.643   2.651  13.691
21188SOL    HW265462   4.498   2.682  13.718
21189SOL     OW65463   7.387   8.892   0.036
21189SOL    HW165464   7.445   8.842  14.850
21189SOL    HW265465   7.369   8.832   0.109
21190SOL     OW65466  11.578   7.992   1.692
21190SOL    HW165467  11.487   7.988   1.665
21190SOL    HW265468  11.593   7.911   1.742
21191SOL     OW65469   8.097  10.517   2.869
21191SOL    HW165470   8.160  10.522   2.797
21191SOL    HW265471   8.043  10.441   2.849
21192SOL     OW65472   0.314  14.571   8.883
21192SOL    HW165473   0.279  14.660   8.881
21192SOL    HW265474   0.300  14.541   8.972
21193SOL     OW65475   4.979   2.225   0.934
21193SOL    HW165476   4.994   2.147   0.987
21193SOL    HW265477   4.910   2.273   0.981
21194SOL     OW65478   9.450  10.072   4.574
21194SOL    HW165479   9.531  10.039   4.611
21194SOL    HW265480   9.383  10.010   4.602
21195SOL     OW65481  14.063   1.243   8.615
21195SOL    HW165482  14.016   1.324   8.594
21195SOL    HW265483  14.154   1.271   8.627
21196SOL     OW65484   7.711   6.974   9.514
21196SOL    HW165485   7.673   6.965   9.427
21196SOL    HW265486   7.675   7.055   9.549
21197SOL     OW65487   0.848  12.548   3.500
21197SOL    HW165488   0.851  12.642   3.518
21197SOL    HW265489   0.888  12.539   3.413
21198SOL     OW65490   1.759  13.341   8.334
21198SOL    HW165491   1.695  13.270   8.336
21198SOL    HW265492   1.838  13.303   8.371
21199SOL     OW65493   5.596  12.332   6.682
21199SOL    HW165494   5.536  12.261   6.700
21199SOL    HW265495   5.540  12.403   6.650
21200SOL     OW65496   1.870   0.556   0.450
21200SOL    HW165497   1.930   0.631   0.453
21200SOL    HW265498   1.784   0.596   0.442
21201SOL     OW65499  11.757   4.837   9.927
21201SOL    HW165500  11.800   4.882   9.854
21201SOL    HW265501  11.664   4.839   9.904
21202SOL     OW65502   1.964   3.989   5.768
21202SOL    HW165503   1.889   3.968   5.711
21202SOL    HW265504   1.953   4.082   5.787
21203SOL     OW65505  14.436   6.773   2.068
21203SOL    HW165506  14.413   6.806   2.155
21203SOL    HW265507  14.359   6.793   2.015
21204SOL     OW65508  11.738   8.498   2.899
21204SOL    HW165509  11.717   8.573   2.955
21204SOL    HW265510  11.723   8.528   2.810
21205SOL     OW65511   1.596   9.096   4.312
21205SOL    HW165512   1.525   9.141   4.358
21205SOL    HW265513   1.551   9.037   4.252
21206SOL     OW65514  11.942   4.820  10.237
21206SOL    HW165515  11.847   4.807  10.230
21206SOL    HW265516  11.976   4.786  10.154
21207SOL     OW65517   6.191   6.003   7.310
21207SOL    HW165518   6.220   6.091   7.284
21207SOL    HW265519   6.251   5.944   7.264
21208SOL     OW65520   5.553   1.177   4.524
21208SOL    HW165521   5.608   1.099   4.533
21208SOL    HW265522   5.475   1.159   4.576
21209SOL     OW65523  10.793  11.977  12.813
21209SOL    HW165524  10.870  11.970  12.869
21209SOL    HW265525  10.781  11.889  12.777
21210SOL     OW65526   8.198  11.468  12.865
21210SOL    HW165527   8.210  11.373  12.860
21210SOL    HW265528   8.218  11.499  12.777
21211SOL     OW65529   0.622   5.314   2.790
21211SOL    HW165530   0.716   5.299   2.779
21211SOL    HW265531   0.601   5.383   2.726
21212SOL     OW65532   5.261  11.972   5.388
21212SOL    HW165533   5.242  12.041   5.324
21212SOL    HW265534   5.270  12.017   5.471
21213SOL     OW65535  12.407  11.878   7.725
21213SOL    HW165536  12.353  11.956   7.712
21213SOL    HW265537  12.466  11.876   7.650
21214SOL     OW65538   2.536   1.808  13.617
21214SOL    HW165539   2.574   1.778  13.535
21214SOL    HW265540   2.586   1.887  13.639
21215SOL     OW65541  13.689   0.476   6.274
21215SOL    HW165542  13.691   0.566   6.243
21215SOL    HW265543  13.595   0.456   6.283
21216SOL     OW65544   2.868   8.850  12.524
21216SOL    HW165545   2.778   8.820  12.511
21216SOL    HW265546   2.921   8.792  12.470
21217SOL     OW65547  10.921  11.041  12.688
21217SOL    HW165548  10.929  11.128  12.725
21217SOL    HW265549  10.847  11.002  12.734
21218SOL     OW65550   8.188   7.800   6.044
21218SOL    HW165551   8.135   7.747   5.985
21218SOL    HW265552   8.159   7.776   6.131
21219SOL     OW65553  11.582   0.253   1.183
21219SOL    HW165554  11.526   0.311   1.132
21219SOL    HW265555  11.670   0.285   1.168
21220SOL     OW65556   7.712  11.001   1.838
21220SOL    HW165557   7.653  10.925   1.836
21220SOL    HW265558   7.777  10.978   1.904
21221SOL     OW65559   9.717  12.171  10.903
21221SOL    HW165560   9.781  12.109  10.939
21221SOL    HW265561   9.768  12.226  10.844
21222SOL     OW65562   3.702   4.643   4.783
21222SOL    HW165563   3.672   4.559   4.817
21222SOL    HW265564   3.622   4.693   4.765
21223SOL     OW65565   0.768   0.066   1.324
21223SOL    HW165566   0.693   0.047   1.267
21223SOL    HW265567   0.741   0.034   1.410
21224SOL     OW65568   5.598   9.837   4.362
21224SOL    HW165569   5.589   9.889   4.442
21224SOL    HW265570   5.525   9.775   4.366
21225SOL     OW65571  11.279  13.621   9.551
21225SOL    HW165572  11.254  13.566   9.626
21225SOL    HW265573  11.256  13.568   9.475
21226SOL     OW65574   2.779  12.027  10.101
21226SOL    HW165575   2.765  11.935  10.125
21226SOL    HW265576   2.872  12.043  10.119
21227SOL     OW65577   9.839   7.411   4.217
21227SOL    HW165578   9.888   7.470   4.275
21227SOL    HW265579   9.848   7.325   4.257
21228SOL     OW65580  11.677   4.467  12.337
21228SOL    HW165581  11.596   4.518  12.332
21228SOL    HW265582  11.745   4.534  12.347
21229SOL     OW65583  10.126   2.777  14.776
21229SOL    HW165584  10.217   2.797  14.798
21229SOL    HW265585  10.087   2.752  14.860
21230SOL     OW65586   7.895   6.006   6.877
21230SOL    HW165587   7.834   5.933   6.893
21230SOL    HW265588   7.856   6.080   6.922
21231SOL     OW65589   8.685   1.700  10.682
21231SOL    HW165590   8.739   1.631  10.643
21231SOL    HW265591   8.601   1.658  10.701
21232SOL     OW65592   1.687  14.807  13.973
21232SOL    HW165593   1.593  14.810  13.992
21232SOL    HW265594   1.691  14.795  13.878
21233SOL     OW65595   5.164   0.553  13.981
21233SOL    HW165596   5.136   0.473  13.936
21233SOL    HW265597   5.212   0.603  13.915
21234SOL     OW65598   1.526   6.056   1.236
21234SOL    HW165599   1.500   5.969   1.207
21234SOL    HW265600   1.453   6.087   1.290
21235SOL     OW65601  12.363  14.780   8.501
21235SOL    HW165602  12.370  14.731   8.583
21235SOL    HW265603  12.414  14.729   8.438
21236SOL     OW65604   2.290   8.409   9.956
21236SOL    HW165605   2.266   8.360   9.877
21236SOL    HW265606   2.320   8.494   9.923
21237SOL     OW65607  11.716   2.993   0.238
21237SOL    HW165608  11.756   3.080   0.234
21237SOL    HW265609  11.623   3.007   0.219
21238SOL     OW65610   0.960  13.146  13.290
21238SOL    HW165611   0.924  13.215  13.346
21238SOL    HW265612   0.914  13.156  13.207
21239SOL     OW65613   5.060   5.085   5.177
21239SOL    HW165614   4.979   5.034   5.173
21239SOL    HW265615   5.059   5.125   5.263
21240SOL     OW65616   1.826  12.954  11.367
21240SOL    HW165617   1.899  13.001  11.327
21240SOL    HW265618   1.866  12.905  11.438
21241SOL     OW65619  10.344  11.369  11.538
21241SOL    HW165620  10.416  11.308  11.526
21241SOL    HW265621  10.387  11.455  11.546
21242SOL     OW65622   4.897   7.286   8.649
21242SOL    HW165623   4.873   7.195   8.630
21242SOL    HW265624   4.984   7.296   8.611
21243SOL     OW65625   3.923  14.738   7.292
21243SOL    HW165626   3.991  14.775   7.235
21243SOL    HW265627   3.961  14.743   7.380
21244SOL     OW65628   4.058  10.318   8.844
21244SOL    HW165629   4.034  10.259   8.772
21244SOL    HW265630   3.998  10.295   8.915
21245SOL     OW65631   8.475   7.557   7.594
21245SOL    HW165632   8.420   7.634   7.581
21245SOL    HW265633   8.558   7.579   7.552
21246SOL     OW65634   3.050   3.760   0.340
21246SOL    HW165635   2.964   3.768   0.299
21246SOL    HW265636   3.106   3.723   0.272
21247SOL     OW65637   9.900  13.633   7.812
21247SOL    HW165638   9.937  13.578   7.743
21247SOL    HW265639   9.822  13.671   7.772
21248SOL     OW65640   5.459   5.973   5.806
21248SOL    HW165641   5.460   6.057   5.760
21248SOL    HW265642   5.429   5.910   5.741
21249SOL     OW65643   9.628  13.831   7.927
21249SOL    HW165644   9.532  13.840   7.931
21249SOL    HW265645   9.658  13.859   8.013
21250SOL     OW65646   8.795   4.889   7.156
21250SOL    HW165647   8.819   4.942   7.232
21250SOL    HW265648   8.734   4.824   7.190
21251SOL     OW65649   8.986   7.887   6.460
21251SOL    HW165650   9.076   7.892   6.428
21251SOL    HW265651   8.933   7.915   6.385
21252SOL     OW65652   2.075   8.519  13.381
21252SOL    HW165653   2.030   8.551  13.460
21252SOL    HW265654   2.016   8.540  13.309
21253SOL     OW65655  10.147   0.483   9.839
21253SOL    HW165656  10.137   0.535   9.919
21253SOL    HW265657  10.111   0.397   9.861
21254SOL     OW65658   8.174  12.580   0.010
21254SOL    HW165659   8.165  12.501  14.829
21254SOL    HW265660   8.153  12.552   0.099
21255SOL     OW65661   4.299  10.573   5.528
21255SOL    HW165662   4.229  10.511   5.546
21255SOL    HW265663   4.259  10.659   5.544
21256SOL     OW65664  10.532   4.044   0.908
21256SOL    HW165665  10.470   4.071   0.840
21256SOL    HW265666  10.551   3.952   0.888
21257SOL     OW65667  10.865  10.899   5.068
21257SOL    HW165668  10.777  10.880   5.101
21257SOL    HW265669  10.857  10.987   5.030
21258SOL     OW65670   1.199   9.656   1.121
21258SOL    HW165671   1.156   9.628   1.039
21258SOL    HW265672   1.150   9.734   1.147
21259SOL     OW65673   4.772  13.739   1.473
21259SOL    HW165674   4.694  13.780   1.512
21259SOL    HW265675   4.815  13.810   1.427
21260SOL     OW65676   3.743  13.344   3.414
21260SOL    HW165677   3.721  13.380   3.328
21260SOL    HW265678   3.785  13.260   3.394
21261SOL     OW65679   3.325   8.384   7.467
21261SOL    HW165680   3.372   8.327   7.407
21261SOL    HW265681   3.240   8.341   7.480
21262SOL     OW65682   1.889   5.173   4.198
21262SOL    HW165683   1.866   5.233   4.269
21262SOL    HW265684   1.982   5.154   4.212
21263SOL     OW65685  13.972  10.631   9.773
21263SOL    HW165686  13.905  10.700   9.767
21263SOL    HW265687  13.922  10.550   9.775
21264SOL     OW65688   8.053   1.905   1.736
21264SOL    HW165689   8.146   1.919   1.715
21264SOL    HW265690   8.052   1.823   1.785
21265SOL     OW65691  12.220  14.032   0.991
21265SOL    HW165692  12.160  13.993   1.055
21265SOL    HW265693  12.299  13.977   0.996
21266SOL     OW65694   6.173   7.260   0.998
21266SOL    HW165695   6.080   7.241   0.983
21266SOL    HW265696   6.187   7.345   0.956
21267SOL     OW65697  14.441  13.078   7.201
21267SOL    HW165698  14.454  13.129   7.281
21267SOL    HW265699  14.527  13.038   7.184
21268SOL     OW65700   1.792   3.690   9.203
21268SOL    HW165701   1.707   3.650   9.219
21268SOL    HW265702   1.836   3.631   9.142
21269SOL     OW65703   0.923   2.064  11.272
21269SOL    HW165704   0.977   2.138  11.244
21269SOL    HW265705   0.838   2.104  11.292
21270SOL     OW65706   7.229   3.036  10.326
21270SOL    HW165707   7.283   3.095  10.274
21270SOL    HW265708   7.165   3.092  10.369
21271SOL     OW65709   0.910  10.908   9.816
21271SOL    HW165710   0.937  10.966   9.887
21271SOL    HW265711   0.852  10.844   9.857
21272SOL     OW65712   1.406   1.746   1.851
21272SOL    HW165713   1.394   1.834   1.886
21272SOL    HW265714   1.325   1.700   1.873
21273SOL     OW65715  13.258   5.020  11.076
21273SOL    HW165716  13.352   5.026  11.096
21273SOL    HW265717  13.223   5.104  11.106
21274SOL     OW65718  10.146  11.993   4.332
21274SOL    HW165719  10.059  12.031   4.344
21274SOL    HW265720  10.199  12.033   4.400
21275SOL     OW65721   2.956  10.634   1.687
21275SOL    HW165722   2.974  10.724   1.716
21275SOL    HW265723   2.863  10.636   1.661
21276SOL     OW65724   7.135   8.035  12.038
21276SOL    HW165725   7.051   8.080  12.034
21276SOL    HW265726   7.174   8.064  12.121
21277SOL     OW65727  10.486  11.064  13.154
21277SOL    HW165728  10.425  11.108  13.094
21277SOL    HW265729  10.519  10.990  13.103
21278SOL     OW65730   6.587   3.537   9.548
21278SOL    HW165731   6.542   3.615   9.516
21278SOL    HW265732   6.537   3.511   9.625
21279SOL     OW65733  10.861   3.874   9.655
21279SOL    HW165734  10.881   3.818   9.580
21279SOL    HW265735  10.769   3.854   9.675
21280SOL     OW65736  12.381   4.613   1.487
21280SOL    HW165737  12.359   4.690   1.436
21280SOL    HW265738  12.376   4.642   1.578
21281SOL     OW65739   6.074   1.200  13.782
21281SOL    HW165740   6.142   1.247  13.734
21281SOL    HW265741   6.108   1.192  13.871
21282SOL     OW65742   8.903   5.261  14.307
21282SOL    HW165743   8.857   5.253  14.223
21282SOL    HW265744   8.892   5.352  14.332
21283SOL     OW65745   7.143   5.509   2.875
21283SOL    HW165746   7.088   5.436   2.903
21283SOL    HW265747   7.185   5.539   2.956
21284SOL     OW65748   7.053   4.529   3.576
21284SOL    HW165749   7.133   4.488   3.543
21284SOL    HW265750   7.073   4.623   3.576
21285SOL     OW65751  11.738   1.460  13.692
21285SOL    HW165752  11.673   1.505  13.637
21285SOL    HW265753  11.694   1.380  13.720
21286SOL     OW65754   6.421   0.939   1.238
21286SOL    HW165755   6.379   0.987   1.309
21286SOL    HW265756   6.512   0.970   1.239
21287SOL     OW65757   0.729  10.718   9.933
21287SOL    HW165758   0.643  10.734   9.972
21287SOL    HW265759   0.719  10.637   9.884
21288SOL     OW65760   8.570   8.546   5.213
21288SOL    HW165761   8.588   8.639   5.201
21288SOL    HW265762   8.554   8.536   5.307
21289SOL     OW65763   5.927   5.131   7.422
21289SOL    HW165764   6.016   5.156   7.401
21289SOL    HW265765   5.875   5.160   7.348
21290SOL     OW65766   6.725   0.049   9.956
21290SOL    HW165767   6.808   0.068   9.912
21290SOL    HW265768   6.694   0.134   9.987
21291SOL     OW65769   9.616  11.528   2.756
21291SOL    HW165770   9.553  11.482   2.699
21291SOL    HW265771   9.599  11.621   2.740
21292SOL     OW65772  11.781   7.398   5.840
21292SOL    HW165773  11.697   7.353   5.828
21292SOL    HW265774  11.778   7.430   5.930
21293SOL     OW65775   9.200  12.849  10.865
21293SOL    HW165776   9.232  12.837  10.776
21293SOL    HW265777   9.197  12.944  10.877
21294SOL     OW65778  11.729   2.375  11.435
21294SOL    HW165779  11.680   2.456  11.451
21294SOL    HW265780  11.705   2.317  11.507
21295SOL     OW65781  11.579   4.144   1.075
21295SOL    HW165782  11.501   4.195   1.096
21295SOL    HW265783  11.612   4.114   1.159
21296SOL     OW65784  11.802   7.560   7.309
21296SOL    HW165785  11.725   7.528   7.356
21296SOL    HW265786  11.767   7.621   7.244
21297SOL     OW65787  13.646  10.440  10.372
21297SOL    HW165788  13.599  10.518  10.342
21297SOL    HW265789  13.633  10.376  10.303
21298SOL     OW65790   7.902   3.474   9.106
21298SOL    HW165791   7.894   3.447   9.014
21298SOL    HW265792   7.814   3.500   9.132
21299SOL     OW65793   5.516   3.366  13.115
21299SOL    HW165794   5.472   3.307  13.053
21299SOL    HW265795   5.550   3.437  13.060
21300SOL     OW65796   1.668  13.731   5.286
21300SOL    HW165797   1.596  13.680   5.250
21300SOL    HW265798   1.686  13.691   5.371
21301SOL     OW65799  11.734   5.943   5.125
21301SOL    HW165800  11.701   5.949   5.036
21301SOL    HW265801  11.667   5.893   5.173
21302SOL     OW65802   7.405   0.649  12.282
21302SOL    HW165803   7.361   0.582  12.334
21302SOL    HW265804   7.456   0.599  12.218
21303SOL     OW65805   0.517  11.552   1.164
21303SOL    HW165806   0.555  11.633   1.130
21303SOL    HW265807   0.510  11.566   1.258
21304SOL     OW65808   2.335   4.588   6.416
21304SOL    HW165809   2.249   4.554   6.392
21304SOL    HW265810   2.383   4.593   6.333
21305SOL     OW65811   4.170   5.836  13.710
21305SOL    HW165812   4.229   5.782  13.657
21305SOL    HW265813   4.152   5.912  13.655
21306SOL     OW65814   2.368  14.148   6.522
21306SOL    HW165815   2.410  14.160   6.437
21306SOL    HW265816   2.440  14.154   6.585
21307SOL     OW65817   2.190   6.774  11.943
21307SOL    HW165818   2.209   6.684  11.916
21307SOL    HW265819   2.128   6.806  11.877
21308SOL     OW65820  10.103   7.620  10.827
21308SOL    HW165821  10.189   7.638  10.788
21308SOL    HW265822  10.041   7.637  10.756
21309SOL     OW65823  12.793  13.026   3.269
21309SOL    HW165824  12.777  12.937   3.301
21309SOL    HW265825  12.887  13.028   3.252
21310SOL     OW65826  13.093  14.811  12.932
21310SOL    HW165827  13.086  14.733  12.877
21310SOL    HW265828  13.004  14.847  12.934
21311SOL     OW65829   0.344  13.321   8.685
21311SOL    HW165830   0.336  13.387   8.617
21311SOL    HW265831   0.314  13.240   8.644
21312SOL     OW65832  10.161  12.500  13.794
21312SOL    HW165833  10.100  12.553  13.743
21312SOL    HW265834  10.246  12.514  13.752
21313SOL     OW65835   4.122   3.967   0.701
21313SOL    HW165836   4.129   4.051   0.745
21313SOL    HW265837   4.129   3.902   0.771
21314SOL     OW65838   4.921   9.771   6.749
21314SOL    HW165839   4.989   9.716   6.789
21314SOL    HW265840   4.840   9.742   6.790
21315SOL     OW65841  10.004   1.376   6.316
21315SOL    HW165842  10.073   1.334   6.266
21315SOL    HW265843  10.011   1.339   6.404
21316SOL     OW65844  13.198   1.808   5.936
21316SOL    HW165845  13.280   1.771   5.903
21316SOL    HW265846  13.150   1.733   5.971
21317SOL     OW65847   5.161  10.359  10.392
21317SOL    HW165848   5.084  10.411  10.413
21317SOL    HW265849   5.231  10.423  10.383
21318SOL     OW65850   1.629   4.544   3.831
21318SOL    HW165851   1.571   4.470   3.848
21318SOL    HW265852   1.607   4.607   3.899
21319SOL     OW65853  14.765   9.259  11.792
21319SOL    HW165854  14.840   9.200  11.780
21319SOL    HW265855  14.704   9.234  11.722
21320SOL     OW65856  12.832  12.370   4.504
21320SOL    HW165857  12.923  12.387   4.529
21320SOL    HW265858  12.803  12.301   4.565
21321SOL     OW65859   9.073  14.130   8.677
21321SOL    HW165860   8.995  14.078   8.657
21321SOL    HW265861   9.054  14.217   8.640
21322SOL     OW65862   6.001   2.816   4.160
21322SOL    HW165863   6.066   2.856   4.102
21322SOL    HW265864   6.012   2.721   4.147
21323SOL     OW65865   5.687   5.403   9.738
21323SOL    HW165866   5.617   5.381   9.677
21323SOL    HW265867   5.675   5.496   9.757
21324SOL     OW65868   4.032  10.637  13.940
21324SOL    HW165869   4.046  10.731  13.934
21324SOL    HW265870   4.060  10.603  13.855
21325SOL     OW65871   2.967   4.953   8.821
21325SOL    HW165872   2.953   4.996   8.737
21325SOL    HW265873   3.062   4.944   8.829
21326SOL     OW65874  11.346   0.399   6.359
21326SOL    HW165875  11.309   0.315   6.386
21326SOL    HW265876  11.376   0.439   6.441
21327SOL     OW65877   8.411   8.850  11.946
21327SOL    HW165878   8.318   8.869  11.963
21327SOL    HW265879   8.414   8.755  11.934
21328SOL     OW65880   2.820  12.618  14.110
21328SOL    HW165881   2.884  12.563  14.064
21328SOL    HW265882   2.856  12.707  14.105
21329SOL     OW65883  11.186  10.356  14.726
21329SOL    HW165884  11.267  10.348  14.676
21329SOL    HW265885  11.173  10.269  14.765
21330SOL     OW65886   3.203   2.438   7.716
21330SOL    HW165887   3.191   2.503   7.785
21330SOL    HW265888   3.298   2.428   7.709
21331SOL     OW65889   6.850   6.901  11.142
21331SOL    HW165890   6.877   6.989  11.169
21331SOL    HW265891   6.902   6.842  11.195
21332SOL     OW65892   3.441   9.179   4.153
21332SOL    HW165893   3.420   9.209   4.242
21332SOL    HW265894   3.500   9.247   4.118
21333SOL     OW65895   8.589   9.642   3.973
21333SOL    HW165896   8.648   9.605   3.908
21333SOL    HW265897   8.513   9.584   3.974
21334SOL     OW65898   7.707   9.999   5.617
21334SOL    HW165899   7.655  10.067   5.660
21334SOL    HW265900   7.753  10.045   5.547
21335SOL     OW65901   2.373   9.332   2.723
21335SOL    HW165902   2.310   9.366   2.659
21335SOL    HW265903   2.353   9.239   2.729
21336SOL     OW65904   8.991  14.848  12.519
21336SOL    HW165905   8.944  14.826  12.439
21336SOL    HW265906   9.054   0.044  12.492
21337SOL     OW65907   0.623   5.667   1.619
21337SOL    HW165908   0.630   5.650   1.713
21337SOL    HW265909   0.700   5.719   1.598
21338SOL     OW65910   5.628   5.393   6.306
21338SOL    HW165911   5.707   5.385   6.253
21338SOL    HW265912   5.659   5.406   6.395
21339SOL     OW65913   7.918   3.964   7.543
21339SOL    HW165914   8.010   3.941   7.534
21339SOL    HW265915   7.874   3.919   7.472
21340SOL     OW65916   9.811  12.686   1.159
21340SOL    HW165917   9.793  12.730   1.242
21340SOL    HW265918   9.890  12.634   1.175
21341SOL     OW65919  13.029   6.909  13.005
21341SOL    HW165920  13.102   6.883  13.061
21341SOL    HW265921  13.046   6.866  12.921
21342SOL     OW65922   4.477  13.522   3.196
21342SOL    HW165923   4.398  13.513   3.141
21342SOL    HW265924   4.538  13.572   3.142
21343SOL     OW65925   6.822   0.273   8.033
21343SOL    HW165926   6.801   0.190   8.076
21343SOL    HW265927   6.866   0.248   7.952
21344SOL     OW65928   7.559   8.263   6.896
21344SOL    HW165929   7.489   8.209   6.933
21344SOL    HW265930   7.576   8.330   6.961
21345SOL     OW65931   8.167   0.567   6.566
21345SOL    HW165932   8.158   0.506   6.639
21345SOL    HW265933   8.248   0.541   6.522
21346SOL     OW65934   0.713   7.119   3.698
21346SOL    HW165935   0.749   7.071   3.773
21346SOL    HW265936   0.789   7.140   3.644
21347SOL     OW65937   3.624   2.213  10.616
21347SOL    HW165938   3.687   2.281  10.592
21347SOL    HW265939   3.676   2.132  10.616
21348SOL     OW65940   2.857  10.480   6.090
21348SOL    HW165941   2.783  10.534   6.062
21348SOL    HW265942   2.828  10.390   6.077
21349SOL     OW65943   8.541  12.204  10.090
21349SOL    HW165944   8.569  12.123  10.131
21349SOL    HW265945   8.526  12.180   9.998
21350SOL     OW65946   9.819   2.769   3.864
21350SOL    HW165947   9.779   2.686   3.838
21350SOL    HW265948   9.902   2.771   3.816
21351SOL     OW65949  14.547   9.780   1.713
21351SOL    HW165950  14.545   9.699   1.764
21351SOL    HW265951  14.542   9.751   1.622
21352SOL     OW65952   0.525  14.240   0.336
21352SOL    HW165953   0.440  14.196   0.348
21352SOL    HW265954   0.542  14.232   0.242
21353SOL     OW65955  14.164  13.106  14.158
21353SOL    HW165956  14.187  13.097  14.066
21353SOL    HW265957  14.194  13.194  14.182
21354SOL     OW65958   5.597   2.029   1.188
21354SOL    HW165959   5.626   2.077   1.110
21354SOL    HW265960   5.508   2.000   1.167
21355SOL     OW65961  12.338  12.733  14.669
21355SOL    HW165962  12.426  12.731  14.708
21355SOL    HW265963  12.354  12.714  14.576
21356SOL     OW65964  12.075   9.525  14.462
21356SOL    HW165965  12.024   9.445  14.457
21356SOL    HW265966  12.157   9.499  14.504
21357SOL     OW65967  13.194   7.036  14.471
21357SOL    HW165968  13.230   7.122  14.452
21357SOL    HW265969  13.100   7.050  14.474
21358SOL     OW65970  13.440  14.779  10.711
21358SOL    HW165971  13.505  14.793  10.642
21358SOL    HW265972  13.484  14.807  10.791
21359SOL     OW65973  12.367   5.972   4.705
21359SOL    HW165974  12.350   5.889   4.750
21359SOL    HW265975  12.460   5.968   4.681
21360SOL     OW65976  10.269   5.237  11.919
21360SOL    HW165977  10.253   5.198  12.005
21360SOL    HW265978  10.183   5.266  11.890
21361SOL     OW65979   9.864  12.623   5.547
21361SOL    HW165980   9.846  12.532   5.527
21361SOL    HW265981   9.782  12.657   5.583
21362SOL     OW65982  11.388   5.549   8.290
21362SOL    HW165983  11.413   5.540   8.198
21362SOL    HW265984  11.389   5.460   8.323
21363SOL     OW65985   7.666  11.123   9.095
21363SOL    HW165986   7.670  11.054   9.028
21363SOL    HW265987   7.573  11.140   9.105
21364SOL     OW65988   3.799   5.215   6.487
21364SOL    HW165989   3.741   5.288   6.510
21364SOL    HW265990   3.744   5.155   6.438
21365SOL     OW65991   2.345   3.459   9.165
21365SOL    HW165992   2.265   3.414   9.191
21365SOL    HW265993   2.317   3.548   9.144
21366SOL     OW65994   1.825   0.594   0.079
21366SOL    HW165995   1.870   0.533   0.137
21366SOL    HW265996   1.818   0.548  14.867
21367SOL     OW65997   1.557  12.677   4.549
21367SOL    HW165998   1.630  12.649   4.605
21367SOL    HW265999   1.599  12.719   4.475
21368SOL     OW66000   0.853   7.396  11.771
21368SOL    HW166001   0.818   7.471  11.820
21368SOL    HW266002   0.815   7.320  11.815
21369SOL     OW66003  11.236   2.898   7.382
21369SOL    HW166004  11.178   2.930   7.313
21369SOL    HW266005  11.203   2.937   7.462
21370SOL     OW66006  11.501  14.602  12.536
21370SOL    HW166007  11.493  14.681  12.482
21370SOL    HW266008  11.591  14.574  12.523
21371SOL     OW66009   1.394   7.529  12.268
21371SOL    HW166010   1.306   7.494  12.262
21371SOL    HW266011   1.421   7.514  12.359
21372SOL     OW66012   0.563  10.515  14.208
21372SOL    HW166013   0.589  10.532  14.118
21372SOL    HW266014   0.585  10.595  14.255
21373SOL     OW66015   6.392   2.094   8.483
21373SOL    HW166016   6.319   2.077   8.543
21373SOL    HW266017   6.353   2.146   8.413
21374SOL     OW66018   3.058   9.269   9.002
21374SOL    HW166019   3.073   9.322   8.924
21374SOL    HW266020   3.009   9.193   8.970
21375SOL     OW66021  13.096   3.191   1.570
21375SOL    HW166022  13.151   3.165   1.644
21375SOL    HW266023  13.149   3.171   1.493
21376SOL     OW66024   7.456   4.001  13.742
21376SOL    HW166025   7.422   3.977  13.656
21376SOL    HW266026   7.383   3.987  13.802
21377SOL     OW66027  12.107   9.684   8.583
21377SOL    HW166028  12.047   9.753   8.610
21377SOL    HW266029  12.119   9.630   8.661
21378SOL     OW66030   3.027   8.717  14.774
21378SOL    HW166031   2.946   8.670  14.790
21378SOL    HW266032   3.087   8.651  14.740
21379SOL     OW66033   2.499  13.945  10.698
21379SOL    HW166034   2.586  13.905  10.691
21379SOL    HW266035   2.440  13.881  10.657
21380SOL     OW66036   4.270  12.399   0.280
21380SOL    HW166037   4.287  12.371   0.190
21380SOL    HW266038   4.322  12.478   0.291
21381SOL     OW66039  11.062   4.649  11.502
21381SOL    HW166040  11.036   4.727  11.453
21381SOL    HW266041  11.129   4.679  11.562
21382SOL     OW66042   4.913   5.709   6.823
21382SOL    HW166043   4.903   5.703   6.728
21382SOL    HW266044   4.941   5.622   6.850
21383SOL     OW66045   8.838   5.468  10.064
21383SOL    HW166046   8.931   5.481  10.048
21383SOL    HW266047   8.835   5.411  10.141
21384SOL     OW66048   1.931  11.834  10.020
21384SOL    HW166049   1.968  11.906  10.071
21384SOL    HW266050   1.968  11.755  10.059
21385SOL     OW66051  11.978   6.854   0.820
21385SOL    HW166052  11.937   6.770   0.799
21385SOL    HW266053  11.922   6.920   0.779
21386SOL     OW66054   1.635   5.451   3.447
21386SOL    HW166055   1.711   5.427   3.499
21386SOL    HW266056   1.624   5.545   3.463
21387SOL     OW66057   6.558   6.407   4.901
21387SOL    HW166058   6.582   6.315   4.902
21387SOL    HW266059   6.562   6.434   4.993
21388SOL     OW66060   6.639  12.984   0.549
21388SOL    HW166061   6.660  12.914   0.488
21388SOL    HW266062   6.558  13.022   0.516
21389SOL     OW66063   3.100   0.933   0.077
21389SOL    HW166064   3.060   0.972   0.155
21389SOL    HW266065   3.095   0.839   0.093
21390SOL     OW66066   4.367   4.092  11.677
21390SOL    HW166067   4.396   4.124  11.591
21390SOL    HW266068   4.350   4.172  11.727
21391SOL     OW66069   8.862   9.542   3.323
21391SOL    HW166070   8.860   9.627   3.280
21391SOL    HW266071   8.918   9.555   3.400
21392SOL     OW66072  11.737   1.023   4.325
21392SOL    HW166073  11.676   1.082   4.370
21392SOL    HW266074  11.694   0.937   4.330
21393SOL     OW66075  11.408   4.504  14.139
21393SOL    HW166076  11.473   4.574  14.139
21393SOL    HW266077  11.424   4.457  14.057
21394SOL     OW66078   1.370   0.638  12.664
21394SOL    HW166079   1.357   0.553  12.624
21394SOL    HW266080   1.464   0.643  12.682
21395SOL     OW66081   9.967   4.874   7.466
21395SOL    HW166082   9.910   4.929   7.518
21395SOL    HW266083   9.977   4.920   7.383
21396SOL     OW66084   3.560  14.688   5.551
21396SOL    HW166085   3.596  14.756   5.493
21396SOL    HW266086   3.618  14.689   5.627
21397SOL     OW66087  10.707  10.114  11.390
21397SOL    HW166088  10.675  10.055  11.458
21397SOL    HW266089  10.660  10.087  11.311
21398SOL     OW66090   7.845   6.849  10.594
21398SOL    HW166091   7.931   6.855  10.636
21398SOL    HW266092   7.845   6.764  10.551
21399SOL     OW66093   6.829   6.169  13.017
21399SOL    HW166094   6.911   6.123  13.002
21399SOL    HW266095   6.793   6.129  13.096
21400SOL     OW66096   5.039   8.954  10.357
21400SOL    HW166097   4.950   8.945  10.392
21400SOL    HW266098   5.027   8.973  10.264
21401SOL     OW66099   8.942   6.842   8.320
21401SOL    HW166100   8.865   6.860   8.374
21401SOL    HW266101   8.924   6.757   8.280
21402SOL     OW66102   3.948  11.670   5.047
21402SOL    HW166103   3.913  11.756   5.069
21402SOL    HW266104   4.023  11.689   4.991
21403SOL     OW66105   2.469   2.431  13.992
21403SOL    HW166106   2.414   2.444  14.069
21403SOL    HW266107   2.418   2.375  13.934
21404SOL     OW66108  10.522   3.911  12.257
21404SOL    HW166109  10.500   3.818  12.260
21404SOL    HW266110  10.482   3.947  12.336
21405SOL     OW66111  13.955   9.087  11.986
21405SOL    HW166112  13.989   9.122  12.068
21405SOL    HW266113  14.032   9.081  11.929
21406SOL     OW66114   3.882   3.469  12.219
21406SOL    HW166115   3.929   3.497  12.298
21406SOL    HW266116   3.952   3.441  12.159
21407SOL     OW66117  12.485  14.178   2.631
21407SOL    HW166118  12.480  14.273   2.619
21407SOL    HW266119  12.397  14.147   2.612
21408SOL     OW66120   2.157  12.372  14.126
21408SOL    HW166121   2.197  12.367  14.213
21408SOL    HW266122   2.082  12.430  14.137
21409SOL     OW66123   0.274   9.776   0.193
21409SOL    HW166124   0.200   9.814   0.240
21409SOL    HW266125   0.274   9.820   0.108
21410SOL     OW66126  11.458  10.787   5.092
21410SOL    HW166127  11.366  10.762   5.082
21410SOL    HW266128  11.461  10.839   5.172
21411SOL     OW66129   4.836   6.882  12.868
21411SOL    HW166130   4.746   6.862  12.846
21411SOL    HW266131   4.874   6.798  12.893
21412SOL     OW66132   9.103   4.141   8.692
21412SOL    HW166133   9.020   4.138   8.739
21412SOL    HW266134   9.138   4.228   8.711
21413SOL     OW66135  12.796   3.161  14.237
21413SOL    HW166136  12.736   3.224  14.197
21413SOL    HW266137  12.872   3.213  14.263
21414SOL     OW66138   3.727   8.284  13.517
21414SOL    HW166139   3.686   8.309  13.434
21414SOL    HW266140   3.680   8.206  13.545
21415SOL     OW66141   7.957   5.933   8.427
21415SOL    HW166142   7.907   6.010   8.455
21415SOL    HW266143   8.037   5.969   8.389
21416SOL     OW66144   8.261  11.528   7.903
21416SOL    HW166145   8.261  11.619   7.935
21416SOL    HW266146   8.188  11.525   7.841
21417SOL     OW66147   6.521   8.186   2.260
21417SOL    HW166148   6.477   8.112   2.219
21417SOL    HW266149   6.490   8.263   2.211
21418SOL     OW66150   5.318   6.198  10.885
21418SOL    HW166151   5.223   6.203  10.881
21418SOL    HW266152   5.337   6.167  10.973
21419SOL     OW66153  14.682  14.264  12.785
21419SOL    HW166154  14.718  14.287  12.871
21419SOL    HW266155  14.756  14.228  12.737
21420SOL     OW66156  13.555   5.975   7.039
21420SOL    HW166157  13.476   5.923   7.056
21420SOL    HW266158  13.608   5.920   6.980
21421SOL     OW66159   8.147   5.470  11.961
21421SOL    HW166160   8.156   5.564  11.976
21421SOL    HW266161   8.215   5.449  11.897
21422SOL     OW66162   7.653   0.673   2.184
21422SOL    HW166163   7.653   0.588   2.140
21422SOL    HW266164   7.741   0.708   2.169
21423SOL     OW66165   7.798   3.556  13.333
21423SOL    HW166166   7.828   3.492  13.268
21423SOL    HW266167   7.779   3.634  13.281
21424SOL     OW66168  10.595   2.020   5.208
21424SOL    HW166169  10.548   2.090   5.164
21424SOL    HW266170  10.686   2.033   5.184
21425SOL     OW66171   1.867  13.814  12.484
21425SOL    HW166172   1.950  13.852  12.514
21425SOL    HW266173   1.831  13.770  12.561
21426SOL     OW66174  14.109   2.953   9.528
21426SOL    HW166175  14.040   2.892   9.554
21426SOL    HW266176  14.190   2.906   9.546
21427SOL     OW66177   3.214   4.666  12.708
21427SOL    HW166178   3.279   4.644  12.775
21427SOL    HW266179   3.153   4.724  12.753
21428SOL     OW66180   1.677  14.638  10.183
21428SOL    HW166181   1.587  14.663  10.202
21428SOL    HW266182   1.694  14.673  10.096
21429SOL     OW66183   2.857   7.600  14.463
21429SOL    HW166184   2.893   7.531  14.408
21429SOL    HW266185   2.775   7.565  14.496
21430SOL     OW66186  12.878   1.284   0.947
21430SOL    HW166187  12.936   1.222   0.992
21430SOL    HW266188  12.893   1.367   0.991
21431SOL     OW66189   3.902   7.671   1.768
21431SOL    HW166190   3.845   7.596   1.782
21431SOL    HW266191   3.900   7.686   1.673
21432SOL     OW66192  13.826  14.329   4.230
21432SOL    HW166193  13.868  14.265   4.172
21432SOL    HW266194  13.737  14.339   4.196
21433SOL     OW66195  10.355   3.394   8.544
21433SOL    HW166196  10.289   3.369   8.609
21433SOL    HW266197  10.323   3.478   8.510
21434SOL     OW66198  13.450   2.418   2.793
21434SOL    HW166199  13.421   2.451   2.878
21434SOL    HW266200  13.384   2.449   2.731
21435SOL     OW66201  12.560   9.786   5.168
21435SOL    HW166202  12.604   9.872   5.173
21435SOL    HW266203  12.632   9.724   5.157
21436SOL     OW66204   0.326   3.677   9.777
21436SOL    HW166205   0.393   3.724   9.826
21436SOL    HW266206   0.354   3.585   9.782
21437SOL     OW66207   1.961  12.176   8.917
21437SOL    HW166208   2.002  12.119   8.852
21437SOL    HW266209   2.000  12.262   8.901
21438SOL     OW66210   8.291   7.280   6.714
21438SOL    HW166211   8.350   7.286   6.789
21438SOL    HW266212   8.204   7.272   6.753
21439SOL     OW66213   0.439   9.774   6.818
21439SOL    HW166214   0.357   9.748   6.859
21439SOL    HW266215   0.466   9.698   6.766
21440SOL     OW66216   8.335  12.879  14.115
21440SOL    HW166217   8.397  12.841  14.052
21440SOL    HW266218   8.288  12.946  14.065
21441SOL     OW66219   1.389   2.011   8.773
21441SOL    HW166220   1.347   2.089   8.811
21441SOL    HW266221   1.479   2.039   8.756
21442SOL     OW66222   9.511  10.294   8.418
21442SOL    HW166223   9.521  10.385   8.393
21442SOL    HW266224   9.513  10.246   8.335
21443SOL     OW66225   1.616  12.419   7.663
21443SOL    HW166226   1.649  12.360   7.595
21443SOL    HW266227   1.556  12.364   7.715
21444SOL     OW66228  12.382   0.393   5.844
21444SOL    HW166229  12.379   0.340   5.764
21444SOL    HW266230  12.315   0.460   5.830
21445SOL     OW66231  14.407   0.709   1.321
21445SOL    HW166232  14.391   0.781   1.382
21445SOL    HW266233  14.487   0.734   1.275
21446SOL     OW66234  10.745   1.194   7.440
21446SOL    HW166235  10.805   1.203   7.514
21446SOL    HW266236  10.793   1.141   7.377
21447SOL     OW66237   5.143  10.975   0.948
21447SOL    HW166238   5.071  11.014   0.997
21447SOL    HW266239   5.109  10.891   0.916
21448SOL     OW66240   5.635   9.929  13.994
21448SOL    HW166241   5.633   9.981  13.913
21448SOL    HW266242   5.685   9.850  13.970
21449SOL     OW66243  14.546   7.845   2.877
21449SOL    HW166244  14.487   7.906   2.833
21449SOL    HW266245  14.605   7.815   2.808
21450SOL     OW66246  10.088   3.348   7.079
21450SOL    HW166247  10.124   3.425   7.124
21450SOL    HW266248  10.134   3.274   7.117
21451SOL     OW66249   0.837  12.300   9.726
21451SOL    HW166250   0.835  12.277   9.634
21451SOL    HW266251   0.912  12.358   9.735
21452SOL     OW66252   0.020   4.417   1.718
21452SOL    HW166253   0.039   4.328   1.747
21452SOL    HW266254  14.833   4.452   1.785
21453SOL     OW66255   0.073  11.423  12.471
21453SOL    HW166256   0.015  11.416  12.395
21453SOL    HW266257   0.106  11.335  12.485
21454SOL     OW66258   4.192  13.553  10.684
21454SOL    HW166259   4.217  13.622  10.623
21454SOL    HW266260   4.102  13.531  10.659
21455SOL     OW66261   1.440   5.080  12.437
21455SOL    HW166262   1.507   5.122  12.491
21455SOL    HW266263   1.461   5.105  12.348
21456SOL     OW66264   1.819  11.389   9.193
21456SOL    HW166265   1.810  11.408   9.287
21456SOL    HW266266   1.738  11.423   9.154
21457SOL     OW66267   4.896   7.658   0.666
21457SOL    HW166268   4.813   7.675   0.710
21457SOL    HW266269   4.962   7.696   0.723
21458SOL     OW66270   3.515   9.413  13.648
21458SOL    HW166271   3.560   9.491  13.616
21458SOL    HW266272   3.464   9.382  13.573
21459SOL     OW66273   8.208   2.760  12.334
21459SOL    HW166274   8.218   2.847  12.297
21459SOL    HW266275   8.136   2.720  12.284
21460SOL     OW66276  13.089  14.632   3.492
21460SOL    HW166277  13.082  14.635   3.397
21460SOL    HW266278  13.043  14.710   3.523
21461SOL     OW66279  10.744   7.209   7.549
21461SOL    HW166280  10.773   7.118   7.553
21461SOL    HW266281  10.650   7.205   7.568
21462SOL     OW66282   3.266   5.001  14.139
21462SOL    HW166283   3.256   5.057  14.063
21462SOL    HW266284   3.257   4.912  14.105
21463SOL     OW66285   2.309   5.085   2.413
21463SOL    HW166286   2.393   5.097   2.457
21463SOL    HW266287   2.320   5.006   2.360
21464SOL     OW66288   4.935   4.200  13.223
21464SOL    HW166289   4.845   4.178  13.247
21464SOL    HW266290   4.936   4.196  13.128
21465SOL     OW66291  14.178   6.733   2.366
21465SOL    HW166292  14.191   6.700   2.455
21465SOL    HW266293  14.086   6.716   2.346
21466SOL     OW66294   3.448  13.281   6.455
21466SOL    HW166295   3.530  13.314   6.416
21466SOL    HW266296   3.461  13.289   6.549
21467SOL     OW66297   3.374   9.812   7.203
21467SOL    HW166298   3.357   9.868   7.279
21467SOL    HW266299   3.444   9.753   7.232
21468SOL     OW66300   2.641   6.920   8.795
21468SOL    HW166301   2.662   7.013   8.796
21468SOL    HW266302   2.713   6.879   8.747
21469SOL     OW66303   1.778  10.396   9.411
21469SOL    HW166304   1.819  10.350   9.338
21469SOL    HW266305   1.833  10.376   9.487
21470SOL     OW66306  13.568   0.309   9.122
21470SOL    HW166307  13.543   0.280   9.034
21470SOL    HW266308  13.485   0.331   9.164
21471SOL     OW66309   4.380   4.804  13.989
21471SOL    HW166310   4.454   4.799  14.049
21471SOL    HW266311   4.303   4.790  14.044
21472SOL     OW66312   9.341  10.325  13.575
21472SOL    HW166313   9.429  10.333  13.540
21472SOL    HW266314   9.321  10.411  13.611
21473SOL     OW66315   6.901   5.450  13.378
21473SOL    HW166316   6.931   5.390  13.447
21473SOL    HW266317   6.865   5.392  13.310
21474SOL     OW66318  10.732   1.377   3.526
21474SOL    HW166319  10.735   1.472   3.533
21474SOL    HW266320  10.654   1.359   3.474
21475SOL     OW66321   3.636   6.548   7.729
21475SOL    HW166322   3.560   6.490   7.734
21475SOL    HW266323   3.616   6.608   7.658
21476SOL     OW66324   9.493   8.684  13.945
21476SOL    HW166325   9.402   8.655  13.954
21476SOL    HW266326   9.491   8.741  13.868
21477SOL     OW66327   4.075  10.136  13.933
21477SOL    HW166328   3.998  10.123  13.989
21477SOL    HW266329   4.143  10.081  13.972
21478SOL     OW66330  13.480   5.168  13.746
21478SOL    HW166331  13.453   5.242  13.800
21478SOL    HW266332  13.399   5.137  13.705
21479SOL     OW66333   6.018   1.298   3.233
21479SOL    HW166334   5.991   1.207   3.221
21479SOL    HW266335   5.964   1.347   3.171
21480SOL     OW66336   6.761  14.105  12.290
21480SOL    HW166337   6.774  14.029  12.233
21480SOL    HW266338   6.775  14.071  12.378
21481SOL     OW66339   3.183   2.360  13.826
21481SOL    HW166340   3.198   2.357  13.732
21481SOL    HW266341   3.107   2.304  13.841
21482SOL     OW66342   4.972  10.951  12.578
21482SOL    HW166343   5.049  10.956  12.634
21482SOL    HW266344   4.904  10.995  12.628
21483SOL     OW66345   5.008   4.652   9.239
21483SOL    HW166346   4.924   4.695   9.254
21483SOL    HW266347   5.067   4.724   9.215
21484SOL     OW66348   7.823   1.241   7.369
21484SOL    HW166349   7.764   1.314   7.351
21484SOL    HW266350   7.765   1.166   7.386
21485SOL     OW66351  10.166   8.381  10.117
21485SOL    HW166352  10.172   8.476  10.118
21485SOL    HW266353  10.123   8.360  10.034
21486SOL     OW66354   1.374   6.939   8.735
21486SOL    HW166355   1.437   6.886   8.784
21486SOL    HW266356   1.344   6.882   8.664
21487SOL     OW66357   8.751  14.119  13.231
21487SOL    HW166358   8.766  14.206  13.269
21487SOL    HW266359   8.824  14.106  13.170
21488SOL     OW66360  10.771  12.895   4.917
21488SOL    HW166361  10.778  12.801   4.933
21488SOL    HW266362  10.686  12.905   4.873
21489SOL     OW66363   8.510  11.851   3.992
21489SOL    HW166364   8.542  11.763   4.012
21489SOL    HW266365   8.509  11.896   4.077
21490SOL     OW66366   1.094   9.138  13.242
21490SOL    HW166367   1.087   9.086  13.322
21490SOL    HW266368   1.087   9.229  13.272
21491SOL     OW66369   0.563  14.471  11.229
21491SOL    HW166370   0.574  14.549  11.175
21491SOL    HW266371   0.567  14.504  11.319
21492SOL     OW66372   0.312   2.373  11.989
21492SOL    HW166373   0.403   2.396  11.970
21492SOL    HW266374   0.317   2.284  12.023
21493SOL     OW66375  10.374  12.399   0.030
21493SOL    HW166376  10.467  12.387   0.048
21493SOL    HW266377  10.356  12.339  14.829
21494SOL     OW66378   0.736   1.196   5.074
21494SOL    HW166379   0.654   1.231   5.108
21494SOL    HW266380   0.799   1.211   5.144
21495SOL     OW66381   2.456  14.369   9.393
21495SOL    HW166382   2.417  14.417   9.466
21495SOL    HW266383   2.519  14.430   9.355
21496SOL     OW66384   2.561  10.481   9.558
21496SOL    HW166385   2.588  10.501   9.648
21496SOL    HW266386   2.496  10.548   9.537
21497SOL     OW66387  10.052   0.803  13.254
21497SOL    HW166388  10.071   0.745  13.329
21497SOL    HW266389   9.956   0.808  13.253
21498SOL     OW66390  10.427   0.829   9.429
21498SOL    HW166391  10.364   0.805   9.497
21498SOL    HW266392  10.460   0.746   9.396
21499SOL     OW66393  13.935   0.155  12.075
21499SOL    HW166394  13.931   0.070  12.118
21499SOL    HW266395  13.881   0.145  11.997
21500SOL     OW66396   8.322   0.147   7.084
21500SOL    HW166397   8.338   0.230   7.128
21500SOL    HW266398   8.378   0.084   7.130
21501SOL     OW66399  12.898   7.155  13.579
21501SOL    HW166400  12.804   7.170  13.588
21501SOL    HW266401  12.920   7.193  13.494
21502SOL     OW66402   7.761   9.383   2.392
21502SOL    HW166403   7.738   9.290   2.389
21502SOL    HW266404   7.683   9.428   2.358
21503SOL     OW66405   8.917   7.294   3.413
21503SOL    HW166406   8.927   7.237   3.489
21503SOL    HW266407   8.980   7.261   3.349
21504SOL     OW66408   2.318  12.382  11.603
21504SOL    HW166409   2.331  12.331  11.524
21504SOL    HW266410   2.405  12.412  11.628
21505SOL     OW66411   6.101   1.818   8.233
21505SOL    HW166412   6.125   1.847   8.321
21505SOL    HW266413   6.027   1.759   8.246
21506SOL     OW66414  11.717  12.318   6.097
21506SOL    HW166415  11.657  12.276   6.035
21506SOL    HW266416  11.798  12.268   6.089
21507SOL     OW66417   5.879   0.042   0.641
21507SOL    HW166418   5.919   0.061   0.556
21507SOL    HW266419   5.920  14.831   0.669
21508SOL     OW66420   8.991  12.997   0.502
21508SOL    HW166421   9.048  12.932   0.460
21508SOL    HW266422   9.042  13.028   0.577
21509SOL     OW66423  13.479   8.699   0.923
21509SOL    HW166424  13.459   8.679   1.014
21509SOL    HW266425  13.524   8.621   0.891
21510SOL     OW66426   0.230  13.620  12.088
21510SOL    HW166427   0.152  13.640  12.035
21510SOL    HW266428   0.199  13.560  12.155
21511SOL     OW66429   5.223   5.382  11.074
21511SOL    HW166430   5.255   5.467  11.045
21511SOL    HW266431   5.293   5.347  11.129
21512SOL     OW66432  11.063  12.360   8.794
21512SOL    HW166433  10.982  12.315   8.772
21512SOL    HW266434  11.131  12.292   8.788
21513SOL     OW66435   5.514   6.698  12.002
21513SOL    HW166436   5.560   6.677  12.083
21513SOL    HW266437   5.521   6.619  11.949
21514SOL     OW66438   1.480   0.442   5.464
21514SOL    HW166439   1.524   0.357   5.461
21514SOL    HW266440   1.490   0.478   5.376
21515SOL     OW66441  13.483  14.835   7.885
21515SOL    HW166442  13.499  14.764   7.947
21515SOL    HW266443  13.424   0.023   7.933
21516SOL     OW66444   0.683  11.959   9.000
21516SOL    HW166445   0.709  11.877   8.958
21516SOL    HW266446   0.674  11.936   9.093
21517SOL     OW66447   1.707   3.088  13.576
21517SOL    HW166448   1.640   3.155  13.564
21517SOL    HW266449   1.660   3.013  13.615
21518SOL     OW66450   1.964   0.803   6.789
21518SOL    HW166451   2.009   0.852   6.720
21518SOL    HW266452   1.881   0.776   6.749
21519SOL     OW66453   3.391   4.938  12.029
21519SOL    HW166454   3.369   4.937  12.122
21519SOL    HW266455   3.486   4.947  12.028
21520SOL     OW66456   3.512   2.830  14.789
21520SOL    HW166457   3.513   2.737  14.764
21520SOL    HW266458   3.446   2.869  14.732
21521SOL     OW66459   1.797   1.580  13.351
21521SOL    HW166460   1.723   1.521  13.340
21521SOL    HW266461   1.844   1.575  13.267
21522SOL     OW66462   3.502   6.945   5.021
21522SOL    HW166463   3.443   6.908   4.956
21522SOL    HW266464   3.456   6.934   5.105
21523SOL     OW66465   4.047  13.487  13.121
21523SOL    HW166466   4.110  13.443  13.178
21523SOL    HW266467   3.961  13.461  13.155
21524SOL     OW66468   1.024  10.934  13.260
21524SOL    HW166469   1.056  10.914  13.348
21524SOL    HW266470   1.088  10.893  13.202
21525SOL     OW66471  12.832  14.783   3.633
21525SOL    HW166472  12.840  14.711   3.696
21525SOL    HW266473  12.754  14.831   3.662
21526SOL     OW66474  14.728   8.713   2.840
21526SOL    HW166475  14.686   8.705   2.755
21526SOL    HW266476  14.820   8.729   2.820
21527SOL     OW66477  11.178   9.528   2.881
21527SOL    HW166478  11.185   9.496   2.970
21527SOL    HW266479  11.256   9.583   2.869
21528SOL     OW66480  12.340   9.977   9.962
21528SOL    HW166481  12.319  10.070   9.969
21528SOL    HW266482  12.434   9.975   9.941
21529SOL     OW66483   5.591   9.455   2.096
21529SOL    HW166484   5.678   9.455   2.136
21529SOL    HW266485   5.604   9.412   2.011
21530SOL     OW66486  14.684   5.146   3.128
21530SOL    HW166487  14.671   5.078   3.062
21530SOL    HW266488  14.742   5.106   3.193
21531SOL     OW66489  11.130   5.375   1.698
21531SOL    HW166490  11.174   5.293   1.676
21531SOL    HW266491  11.122   5.422   1.615
21532SOL     OW66492   6.740   2.240  12.619
21532SOL    HW166493   6.748   2.160  12.672
21532SOL    HW266494   6.821   2.245  12.570
21533SOL     OW66495  11.500  13.339   4.125
21533SOL    HW166496  11.410  13.344   4.156
21533SOL    HW266497  11.530  13.430   4.124
21534SOL     OW66498  14.187   4.731  13.310
21534SOL    HW166499  14.240   4.685  13.375
21534SOL    HW266500  14.244   4.798  13.273
21535SOL     OW66501   3.989   2.028   6.973
21535SOL    HW166502   4.005   2.088   6.900
21535SOL    HW266503   3.951   1.950   6.933
21536SOL     OW66504   8.775   5.843  11.527
21536SOL    HW166505   8.689   5.819  11.561
21536SOL    HW266506   8.835   5.781  11.567
21537SOL     OW66507   3.684   0.052   3.421
21537SOL    HW166508   3.759   0.011   3.379
21537SOL    HW266509   3.718   0.133   3.459
21538SOL     OW66510  12.753   8.723   4.649
21538SOL    HW166511  12.711   8.646   4.611
21538SOL    HW266512  12.788   8.693   4.733
21539SOL     OW66513   7.724   3.445   2.998
21539SOL    HW166514   7.728   3.442   2.903
21539SOL    HW266515   7.633   3.426   3.019
21540SOL     OW66516  13.164   1.682   8.117
21540SOL    HW166517  13.202   1.766   8.144
21540SOL    HW266518  13.194   1.670   8.027
21541SOL     OW66519  10.556  12.448  11.659
21541SOL    HW166520  10.575  12.472  11.749
21541SOL    HW266521  10.642  12.425  11.622
21542SOL     OW66522  11.225   8.158   8.450
21542SOL    HW166523  11.228   8.208   8.532
21542SOL    HW266524  11.167   8.209   8.393
21543SOL     OW66525   1.275  11.801   9.360
21543SOL    HW166526   1.287  11.895   9.347
21543SOL    HW266527   1.309  11.784   9.448
21544SOL     OW66528   4.146  14.546   5.807
21544SOL    HW166529   4.194  14.463   5.808
21544SOL    HW266530   4.206  14.607   5.764
21545SOL     OW66531   5.930  13.925   3.413
21545SOL    HW166532   5.859  13.876   3.456
21545SOL    HW266533   5.929  13.894   3.323
21546SOL     OW66534  11.858   2.322   9.238
21546SOL    HW166535  11.767   2.332   9.209
21546SOL    HW266536  11.860   2.363   9.325
21547SOL     OW66537   3.248  10.115  12.889
21547SOL    HW166538   3.169  10.078  12.927
21547SOL    HW266539   3.306  10.040  12.874
21548SOL     OW66540   6.975   0.410   3.558
21548SOL    HW166541   7.001   0.356   3.483
21548SOL    HW266542   7.015   0.495   3.541
21549SOL     OW66543  10.808  11.859  13.140
21549SOL    HW166544  10.847  11.774  13.161
21549SOL    HW266545  10.783  11.852  13.048
21550SOL     OW66546   4.117   5.911  13.060
21550SOL    HW166547   4.204   5.901  13.023
21550SOL    HW266548   4.132   5.924  13.154
21551SOL     OW66549   2.856  10.411   3.991
21551SOL    HW166550   2.799  10.383   3.918
21551SOL    HW266551   2.939  10.367   3.973
21552SOL     OW66552   0.422   5.595  13.033
21552SOL    HW166553   0.481   5.520  13.036
21552SOL    HW266554   0.460   5.652  12.967
21553SOL     OW66555   4.827   1.466   0.468
21553SOL    HW166556   4.869   1.465   0.554
21553SOL    HW266557   4.896   1.439   0.407
21554SOL     OW66558   5.192   6.253   3.674
21554SOL    HW166559   5.189   6.221   3.584
21554SOL    HW266560   5.103   6.284   3.691
21555SOL     OW66561   2.448  10.717   3.136
21555SOL    HW166562   2.386  10.789   3.123
21555SOL    HW266563   2.393  10.640   3.150
21556SOL     OW66564   9.339   7.012   3.666
21556SOL    HW166565   9.246   6.996   3.683
21556SOL    HW266566   9.348   7.107   3.673
21557SOL     OW66567  14.792  11.601  14.650
21557SOL    HW166568  14.731  11.573  14.717
21557SOL    HW266569  14.762  11.559  14.570
21558SOL     OW66570   7.585  12.456   4.567
21558SOL    HW166571   7.498  12.424   4.592
21558SOL    HW266572   7.579  12.469   4.472
21559SOL     OW66573  13.630   9.014   7.661
21559SOL    HW166574  13.570   9.042   7.592
21559SOL    HW266575  13.699   8.967   7.613
21560SOL     OW66576   6.503  13.082  11.170
21560SOL    HW166577   6.425  13.105  11.120
21560SOL    HW266578   6.484  13.110  11.260
21561SOL     OW66579   1.798   2.548   5.550
21561SOL    HW166580   1.894   2.549   5.549
21561SOL    HW266581   1.773   2.606   5.478
21562SOL     OW66582   7.313  12.103  10.346
21562SOL    HW166583   7.318  12.014  10.382
21562SOL    HW266584   7.229  12.106  10.301
21563SOL     OW66585   0.980  14.655  14.220
21563SOL    HW166586   0.885  14.652  14.229
21563SOL    HW266587   0.999  14.592  14.150
21564SOL     OW66588   4.875   6.052   8.118
21564SOL    HW166589   4.866   6.140   8.155
21564SOL    HW266590   4.968   6.031   8.126
21565SOL     OW66591   9.881   8.981   3.654
21565SOL    HW166592   9.974   8.973   3.679
21565SOL    HW266593   9.875   9.068   3.615
21566SOL     OW66594   3.538   6.056   5.515
21566SOL    HW166595   3.472   6.040   5.582
21566SOL    HW266596   3.557   6.149   5.522
21567SOL     OW66597  13.898  10.526  11.377
21567SOL    HW166598  13.947  10.604  11.349
21567SOL    HW266599  13.870  10.485  11.295
21568SOL     OW66600   3.651   8.950  12.885
21568SOL    HW166601   3.578   9.010  12.865
21568SOL    HW266602   3.698   8.993  12.957
21569SOL     OW66603   1.567  10.650   9.348
21569SOL    HW166604   1.528  10.737   9.357
21569SOL    HW266605   1.636  10.648   9.414
21570SOL     OW66606   7.288  14.475   5.638
21570SOL    HW166607   7.237  14.398   5.610
21570SOL    HW266608   7.376  14.459   5.606
21571SOL     OW66609   1.626  10.828   4.794
21571SOL    HW166610   1.544  10.847   4.748
21571SOL    HW266611   1.617  10.873   4.878
21572SOL     OW66612   1.226   4.832   7.886
21572SOL    HW166613   1.191   4.912   7.927
21572SOL    HW266614   1.170   4.762   7.920
21573SOL     OW66615   4.001   7.355   8.930
21573SOL    HW166616   3.950   7.339   8.851
21573SOL    HW266617   3.940   7.397   8.991
21574SOL     OW66618   7.331  10.481   1.559
21574SOL    HW166619   7.314  10.421   1.487
21574SOL    HW266620   7.303  10.434   1.637
21575SOL     OW66621   3.157   4.887   9.860
21575SOL    HW166622   3.251   4.883   9.839
21575SOL    HW266623   3.124   4.800   9.835
21576SOL     OW66624   4.345   4.803  12.469
21576SOL    HW166625   4.416   4.739  12.473
21576SOL    HW266626   4.302   4.796  12.554
21577SOL     OW66627   6.819   0.876   2.664
21577SOL    HW166628   6.800   0.870   2.571
21577SOL    HW266629   6.833   0.786   2.692
21578SOL     OW66630   9.730   0.229   2.740
21578SOL    HW166631   9.670   0.159   2.712
21578SOL    HW266632   9.672   0.304   2.757
21579SOL     OW66633   8.329  13.960   0.927
21579SOL    HW166634   8.335  13.904   1.005
21579SOL    HW266635   8.247  13.934   0.886
21580SOL     OW66636  12.164  13.300   0.624
21580SOL    HW166637  12.131  13.269   0.708
21580SOL    HW266638  12.247  13.254   0.613
21581SOL     OW66639   7.709   1.603  10.219
21581SOL    HW166640   7.785   1.596  10.162
21581SOL    HW266641   7.708   1.694  10.248
21582SOL     OW66642  14.565  11.731   2.767
21582SOL    HW166643  14.563  11.788   2.844
21582SOL    HW266644  14.625  11.773   2.706
21583SOL     OW66645   5.340   1.781   5.540
21583SOL    HW166646   5.392   1.718   5.590
21583SOL    HW266647   5.250   1.748   5.547
21584SOL     OW66648   5.631   1.013   7.282
21584SOL    HW166649   5.576   1.012   7.204
21584SOL    HW266650   5.634   1.106   7.307
21585SOL     OW66651   4.859   4.691   6.360
21585SOL    HW166652   4.893   4.601   6.360
21585SOL    HW266653   4.781   4.687   6.306
21586SOL     OW66654   1.162   1.125   6.088
21586SOL    HW166655   1.175   1.210   6.128
21586SOL    HW266656   1.117   1.073   6.155
21587SOL     OW66657   4.174  12.308   6.717
21587SOL    HW166658   4.188  12.287   6.624
21587SOL    HW266659   4.205  12.230   6.764
21588SOL     OW66660  11.638   6.405  11.562
21588SOL    HW166661  11.700   6.476  11.576
21588SOL    HW266662  11.564   6.446  11.517
21589SOL     OW66663  11.608   4.577  11.211
21589SOL    HW166664  11.653   4.498  11.178
21589SOL    HW266665  11.576   4.621  11.133
21590SOL     OW66666   8.116   0.447   3.421
21590SOL    HW166667   8.123   0.521   3.360
21590SOL    HW266668   8.205   0.434   3.453
21591SOL     OW66669   9.744  11.805   4.050
21591SOL    HW166670   9.700  11.792   3.966
21591SOL    HW266671   9.722  11.895   4.074
21592SOL     OW66672   4.594   3.398   6.946
21592SOL    HW166673   4.661   3.393   6.878
21592SOL    HW266674   4.535   3.325   6.927
21593SOL     OW66675   6.905   8.872  10.552
21593SOL    HW166676   6.951   8.921  10.484
21593SOL    HW266677   6.814   8.868  10.522
21594SOL     OW66678  11.503   4.803   8.452
21594SOL    HW166679  11.409   4.820   8.459
21594SOL    HW266680  11.533   4.796   8.543
21595SOL     OW66681   8.391   7.338   6.970
21595SOL    HW166682   8.409   7.427   6.940
21595SOL    HW266683   8.465   7.286   6.939
21596SOL     OW66684  10.739   2.000   5.993
21596SOL    HW166685  10.755   1.952   6.074
21596SOL    HW266686  10.822   1.996   5.946
21597SOL     OW66687   7.173   0.070   0.775
21597SOL    HW166688   7.168   0.003   0.707
21597SOL    HW266689   7.119   0.142   0.742
21598SOL     OW66690   7.525  10.904   7.498
21598SOL    HW166691   7.432  10.882   7.487
21598SOL    HW266692   7.537  10.982   7.445
21599SOL     OW66693   8.689  13.360   2.314
21599SOL    HW166694   8.741  13.283   2.335
21599SOL    HW266695   8.602  13.341   2.349
21600SOL     OW66696   3.547   0.349   0.410
21600SOL    HW166697   3.589   0.348   0.496
21600SOL    HW266698   3.578   0.429   0.368
21601SOL     OW66699   1.679  12.127   5.983
21601SOL    HW166700   1.728  12.045   5.994
21601SOL    HW266701   1.714  12.164   5.902
21602SOL     OW66702   9.249  10.139   6.589
21602SOL    HW166703   9.249  10.223   6.544
21602SOL    HW266704   9.324  10.143   6.648
21603SOL     OW66705   5.570   8.111  12.816
21603SOL    HW166706   5.652   8.070  12.845
21603SOL    HW266707   5.501   8.060  12.859
21604SOL     OW66708   7.088   2.072   0.927
21604SOL    HW166709   7.020   2.081   0.995
21604SOL    HW266710   7.169   2.060   0.976
21605SOL     OW66711   5.885  13.846   7.309
21605SOL    HW166712   5.833  13.768   7.328
21605SOL    HW266713   5.972  13.811   7.288
21606SOL     OW66714   2.683   6.852  12.168
21606SOL    HW166715   2.617   6.833  12.234
21606SOL    HW266716   2.677   6.779  12.106
21607SOL     OW66717   2.829   9.170   7.613
21607SOL    HW166718   2.743   9.210   7.629
21607SOL    HW266719   2.892   9.238   7.636
21608SOL     OW66720  12.936  12.753   1.398
21608SOL    HW166721  12.994  12.827   1.378
21608SOL    HW266722  12.984  12.703   1.464
21609SOL     OW66723   9.350   6.242  11.773
21609SOL    HW166724   9.303   6.281  11.846
21609SOL    HW266725   9.437   6.283  11.774
21610SOL     OW66726   9.198   8.297  11.730
21610SOL    HW166727   9.166   8.378  11.770
21610SOL    HW266728   9.165   8.299  11.641
21611SOL     OW66729   3.179   2.610  11.047
21611SOL    HW166730   3.204   2.620  11.139
21611SOL    HW266731   3.134   2.526  11.044
21612SOL     OW66732   8.491   1.392   8.231
21612SOL    HW166733   8.459   1.303   8.217
21612SOL    HW266734   8.565   1.400   8.170
21613SOL     OW66735  11.331   1.668   0.295
21613SOL    HW166736  11.402   1.619   0.337
21613SOL    HW266737  11.366   1.690   0.209
21614SOL     OW66738   3.708   7.182   0.843
21614SOL    HW166739   3.698   7.265   0.796
21614SOL    HW266740   3.643   7.187   0.913
21615SOL     OW66741  13.390  11.118   6.523
21615SOL    HW166742  13.474  11.091   6.559
21615SOL    HW266743  13.408  11.141   6.432
21616SOL     OW66744   3.187  13.772   9.778
21616SOL    HW166745   3.168  13.816   9.696
21616SOL    HW266746   3.115  13.798   9.837
21617SOL     OW66747   8.080   4.404   8.196
21617SOL    HW166748   8.109   4.314   8.181
21617SOL    HW266749   7.990   4.406   8.164
21618SOL     OW66750   9.402   4.078  13.181
21618SOL    HW166751   9.369   4.102  13.268
21618SOL    HW266752   9.323   4.057  13.131
21619SOL     OW66753   2.851  12.006   9.143
21619SOL    HW166754   2.881  12.085   9.188
21619SOL    HW266755   2.786  12.037   9.080
21620SOL     OW66756   5.370  10.613   9.494
21620SOL    HW166757   5.288  10.589   9.538
21620SOL    HW266758   5.416  10.529   9.483
21621SOL     OW66759  14.670   8.494   9.745
21621SOL    HW166760  14.688   8.586   9.765
21621SOL    HW266761  14.635   8.495   9.656
21622SOL     OW66762   3.006   0.184  14.504
21622SOL    HW166763   2.996   0.264  14.452
21622SOL    HW266764   3.059   0.209  14.579
21623SOL     OW66765   6.397   3.300   8.922
21623SOL    HW166766   6.372   3.238   8.990
21623SOL    HW266767   6.490   3.282   8.906
21624SOL     OW66768   2.439  10.577   1.470
21624SOL    HW166769   2.417  10.563   1.377
21624SOL    HW266770   2.456  10.671   1.476
21625SOL     OW66771  14.487  10.846   7.662
21625SOL    HW166772  14.481  10.751   7.652
21625SOL    HW266773  14.581  10.865   7.652
21626SOL     OW66774   8.726  14.731   2.247
21626SOL    HW166775   8.669  14.696   2.316
21626SOL    HW266776   8.693  14.692   2.167
21627SOL     OW66777  14.332  12.213  12.794
21627SOL    HW166778  14.260  12.167  12.751
21627SOL    HW266779  14.384  12.143  12.835
21628SOL     OW66780   7.213  14.110  11.130
21628SOL    HW166781   7.220  14.045  11.201
21628SOL    HW266782   7.137  14.164  11.154
21629SOL     OW66783   0.096   9.764   4.061
21629SOL    HW166784   0.173   9.710   4.047
21629SOL    HW266785   0.105   9.836   3.998
21630SOL     OW66786  14.182  11.925  14.784
21630SOL    HW166787  14.158  11.842  14.825
21630SOL    HW266788  14.172  11.990  14.853
21631SOL     OW66789   5.165   3.579   2.943
21631SOL    HW166790   5.079   3.543   2.966
21631SOL    HW266791   5.156   3.604   2.851
21632SOL     OW66792  10.411   1.221  11.771
21632SOL    HW166793  10.347   1.276  11.816
21632SOL    HW266794  10.491   1.230  11.823
21633SOL     OW66795   0.517  14.054  10.332
21633SOL    HW166796   0.449  14.005  10.288
21633SOL    HW266797   0.482  14.071  10.420
21634SOL     OW66798   7.479  11.447  10.406
21634SOL    HW166799   7.524  11.382  10.352
21634SOL    HW266800   7.386  11.437  10.383
21635SOL     OW66801  12.723   7.565   1.601
21635SOL    HW166802  12.661   7.636   1.617
21635SOL    HW266803  12.683   7.488   1.643
21636SOL     OW66804   7.355   7.624   3.508
21636SOL    HW166805   7.328   7.676   3.584
21636SOL    HW266806   7.426   7.675   3.468
21637SOL     OW66807   3.731   2.823   5.014
21637SOL    HW166808   3.713   2.739   5.057
21637SOL    HW266809   3.672   2.824   4.939
21638SOL     OW66810   3.046   9.936   1.772
21638SOL    HW166811   3.033   9.972   1.859
21638SOL    HW266812   3.080  10.010   1.720
21639SOL     OW66813  14.442  10.956   7.401
21639SOL    HW166814  14.516  11.016   7.396
21639SOL    HW266815  14.442  10.925   7.492
21640SOL     OW66816  11.649  12.140   3.748
21640SOL    HW166817  11.711  12.080   3.707
21640SOL    HW266818  11.683  12.153   3.836
21641SOL     OW66819   8.930  10.766   6.928
21641SOL    HW166820   8.985  10.794   7.001
21641SOL    HW266821   8.845  10.750   6.967
21642SOL     OW66822   3.869   3.493   9.591
21642SOL    HW166823   3.862   3.398   9.596
21642SOL    HW266824   3.796   3.519   9.535
21643SOL     OW66825   1.529  10.402   5.745
21643SOL    HW166826   1.446  10.399   5.697
21643SOL    HW266827   1.595  10.378   5.681
21644SOL     OW66828  12.584   2.356   5.309
21644SOL    HW166829  12.522   2.336   5.239
21644SOL    HW266830  12.550   2.309   5.385
21645SOL     OW66831   2.181   9.661  12.614
21645SOL    HW166832   2.247   9.726  12.636
21645SOL    HW266833   2.122   9.660  12.689
21646SOL     OW66834   5.049  14.238   0.563
21646SOL    HW166835   5.138  14.251   0.531
21646SOL    HW266836   4.999  14.310   0.524
21647SOL     OW66837  12.705   6.230   2.555
21647SOL    HW166838  12.699   6.325   2.562
21647SOL    HW266839  12.615   6.199   2.561
21648SOL     OW66840   9.371  10.461   1.200
21648SOL    HW166841   9.409  10.448   1.113
21648SOL    HW266842   9.307  10.390   1.209
21649SOL     OW66843   3.450   3.732   9.428
21649SOL    HW166844   3.452   3.820   9.465
21649SOL    HW266845   3.374   3.732   9.370
21650SOL     OW66846   2.434   5.693  11.738
21650SOL    HW166847   2.483   5.775  11.733
21650SOL    HW266848   2.463   5.652  11.820
21651SOL     OW66849  10.635  12.436  11.137
21651SOL    HW166850  10.574  12.508  11.157
21651SOL    HW266851  10.602  12.399  11.056
21652SOL     OW66852   0.033   1.190   0.732
21652SOL    HW166853   0.038   1.258   0.800
21652SOL    HW266854   0.005   1.238   0.653
21653SOL     OW66855   8.186   8.882  10.251
21653SOL    HW166856   8.130   8.805  10.236
21653SOL    HW266857   8.207   8.878  10.344
21654SOL     OW66858   4.865  14.521   2.842
21654SOL    HW166859   4.895  14.506   2.932
21654SOL    HW266860   4.824  14.607   2.844
21655SOL     OW66861   3.899   1.421   4.890
21655SOL    HW166862   3.903   1.469   4.973
21655SOL    HW266863   3.900   1.329   4.916
21656SOL     OW66864  12.918  10.519  13.780
21656SOL    HW166865  12.842  10.577  13.787
21656SOL    HW266866  12.881  10.433  13.760
21657SOL     OW66867   4.849   1.539   6.907
21657SOL    HW166868   4.871   1.453   6.942
21657SOL    HW266869   4.845   1.526   6.812
21658SOL     OW66870  12.335   2.692   5.643
21658SOL    HW166871  12.318   2.762   5.580
21658SOL    HW266872  12.323   2.733   5.728
21659SOL     OW66873   1.013   0.507   2.724
21659SOL    HW166874   0.918   0.504   2.710
21659SOL    HW266875   1.048   0.541   2.641
21660SOL     OW66876   5.516   4.042   5.950
21660SOL    HW166877   5.563   3.960   5.964
21660SOL    HW266878   5.429   4.015   5.922
21661SOL     OW66879   8.574  12.739  13.949
21661SOL    HW166880   8.626  12.751  13.869
21661SOL    HW266881   8.535  12.652  13.939
21662SOL     OW66882   2.409   4.899   2.686
21662SOL    HW166883   2.402   4.943   2.770
21662SOL    HW266884   2.346   4.827   2.692
21663SOL     OW66885   3.119  12.618   8.764
21663SOL    HW166886   3.155  12.543   8.812
21663SOL    HW266887   3.125  12.691   8.826
21664SOL     OW66888   1.431   4.282   7.192
21664SOL    HW166889   1.481   4.205   7.162
21664SOL    HW266890   1.341   4.251   7.200
21665SOL     OW66891   4.665   1.689   5.027
21665SOL    HW166892   4.699   1.637   4.954
21665SOL    HW266893   4.726   1.672   5.099
21666SOL     OW66894  10.789   6.501   3.215
21666SOL    HW166895  10.833   6.581   3.185
21666SOL    HW266896  10.845   6.430   3.183
21667SOL     OW66897   2.793   5.206  14.506
21667SOL    HW166898   2.883   5.239  14.499
21667SOL    HW266899   2.782   5.148  14.431
21668SOL     OW66900   1.389   1.849  11.047
21668SOL    HW166901   1.303   1.809  11.061
21668SOL    HW266902   1.450   1.776  11.054
21669SOL     OW66903   8.290   7.989   6.818
21669SOL    HW166904   8.214   8.044   6.835
21669SOL    HW266905   8.343   7.997   6.897
21670SOL     OW66906   8.103   6.880   4.273
21670SOL    HW166907   8.078   6.886   4.181
21670SOL    HW266908   8.189   6.839   4.272
21671SOL     OW66909   2.212  12.935  10.830
21671SOL    HW166910   2.124  12.938  10.791
21671SOL    HW266911   2.239  13.027  10.834
21672SOL     OW66912   2.485   2.611   0.345
21672SOL    HW166913   2.488   2.671   0.270
21672SOL    HW266914   2.554   2.642   0.403
21673SOL     OW66915   7.600   8.062   9.075
21673SOL    HW166916   7.510   8.095   9.070
21673SOL    HW266917   7.590   7.968   9.092
21674SOL     OW66918   7.783   3.025   5.757
21674SOL    HW166919   7.780   3.088   5.684
21674SOL    HW266920   7.693   3.017   5.787
21675SOL     OW66921   4.573   2.375   3.320
21675SOL    HW166922   4.545   2.292   3.282
21675SOL    HW266923   4.668   2.369   3.322
21676SOL     OW66924   5.851  14.614   6.831
21676SOL    HW166925   5.940  14.606   6.797
21676SOL    HW266926   5.828  14.525   6.858
21677SOL     OW66927   8.076   4.369   2.963
21677SOL    HW166928   8.101   4.277   2.954
21677SOL    HW266929   8.064   4.381   3.057
21678SOL     OW66930   2.465   7.134  11.036
21678SOL    HW166931   2.463   7.106  10.944
21678SOL    HW266932   2.385   7.097  11.073
21679SOL     OW66933  12.730   7.749   4.897
21679SOL    HW166934  12.638   7.769   4.884
21679SOL    HW266935  12.752   7.788   4.981
21680SOL     OW66936  13.526   2.624   4.376
21680SOL    HW166937  13.605   2.678   4.370
21680SOL    HW266938  13.458   2.676   4.333
21681SOL     OW66939   1.488   9.929   6.870
21681SOL    HW166940   1.509   9.980   6.792
21681SOL    HW266941   1.571   9.925   6.919
21682SOL     OW66942   6.398   5.579  13.626
21682SOL    HW166943   6.359   5.646  13.570
21682SOL    HW266944   6.483   5.561  13.586
21683SOL     OW66945  11.295   6.690   9.178
21683SOL    HW166946  11.221   6.734   9.219
21683SOL    HW266947  11.256   6.618   9.129
21684SOL     OW66948   4.606   9.397  14.058
21684SOL    HW166949   4.655   9.446  14.125
21684SOL    HW266950   4.601   9.457  13.984
21685SOL     OW66951  14.377  10.453   3.359
21685SOL    HW166952  14.435  10.377   3.372
21685SOL    HW266953  14.359  10.453   3.265
21686SOL     OW66954  13.870   2.257   6.832
21686SOL    HW166955  13.841   2.298   6.913
21686SOL    HW266956  13.962   2.284   6.823
21687SOL     OW66957   1.638  10.324  10.122
21687SOL    HW166958   1.556  10.331  10.171
21687SOL    HW266959   1.642  10.232  10.095
21688SOL     OW66960  11.348   1.516   1.746
21688SOL    HW166961  11.413   1.548   1.808
21688SOL    HW266962  11.324   1.429   1.779
21689SOL     OW66963   9.185   6.778  14.036
21689SOL    HW166964   9.189   6.861  14.084
21689SOL    HW266965   9.244   6.791  13.961
21690SOL     OW66966  13.937  14.664   5.422
21690SOL    HW166967  13.899  14.717   5.352
21690SOL    HW266968  14.009  14.717   5.456
21691SOL     OW66969  14.166   4.012   5.463
21691SOL    HW166970  14.153   4.013   5.558
21691SOL    HW266971  14.079   4.025   5.427
21692SOL     OW66972  11.158  13.917   5.284
21692SOL    HW166973  11.231  13.898   5.226
21692SOL    HW266974  11.107  13.983   5.236
21693SOL     OW66975  12.443   5.208   4.002
21693SOL    HW166976  12.525   5.257   4.010
21693SOL    HW266977  12.463   5.140   3.938
21694SOL     OW66978  13.701   1.918   2.128
21694SOL    HW166979  13.714   1.983   2.059
21694SOL    HW266980  13.607   1.899   2.125
21695SOL     OW66981   1.710  12.297  14.590
21695SOL    HW166982   1.759  12.275  14.510
21695SOL    HW266983   1.667  12.215  14.614
21696SOL     OW66984  14.512  12.153  10.039
21696SOL    HW166985  14.478  12.064  10.052
21696SOL    HW266986  14.517  12.163   9.944
21697SOL     OW66987  10.334   9.703  10.502
21697SOL    HW166988  10.269   9.666  10.562
21697SOL    HW266989  10.291   9.700  10.416
21698SOL     OW66990   5.462   5.356   1.985
21698SOL    HW166991   5.408   5.368   2.063
21698SOL    HW266992   5.403   5.372   1.911
21699SOL     OW66993   1.909   9.667  14.079
21699SOL    HW166994   1.864   9.584  14.094
21699SOL    HW266995   1.859   9.709  14.009
21700SOL     OW66996   0.459  13.068   7.948
21700SOL    HW166997   0.434  12.997   8.008
21700SOL    HW266998   0.501  13.023   7.874
21701SOL     OW66999   5.621   8.184   8.979
21701SOL    HW167000   5.551   8.176   8.914
21701SOL    HW267001   5.644   8.094   9.001
21702SOL     OW67002  13.106  11.900   4.678
21702SOL    HW167003  13.042  11.970   4.689
21702SOL    HW267004  13.184  11.945   4.646
21703SOL     OW67005  13.928  14.498   1.079
21703SOL    HW167006  13.854  14.446   1.110
21703SOL    HW267007  13.999  14.435   1.069
21704SOL     OW67008   5.017  13.905  13.908
21704SOL    HW167009   4.962  13.857  13.970
21704SOL    HW267010   5.008  13.856  13.826
21705SOL     OW67011   4.156   2.401   7.725
21705SOL    HW167012   4.062   2.391   7.714
21705SOL    HW267013   4.167   2.439   7.812
21706SOL     OW67014  13.992   1.616  14.567
21706SOL    HW167015  14.065   1.574  14.522
21706SOL    HW267016  14.004   1.710  14.549
21707SOL     OW67017   5.784   3.361   7.273
21707SOL    HW167018   5.810   3.404   7.355
21707SOL    HW267019   5.858   3.375   7.214
21708SOL     OW67020   5.117  12.943   2.579
21708SOL    HW167021   5.154  12.882   2.515
21708SOL    HW267022   5.040  12.898   2.613
21709SOL     OW67023  13.053   4.385   0.495
21709SOL    HW167024  13.117   4.449   0.464
21709SOL    HW267025  13.055   4.315   0.430
21710SOL     OW67026  12.363   8.781   7.525
21710SOL    HW167027  12.402   8.776   7.438
21710SOL    HW267028  12.394   8.702   7.570
21711SOL     OW67029   5.495   4.682   0.493
21711SOL    HW167030   5.411   4.716   0.524
21711SOL    HW267031   5.478   4.590   0.472
21712SOL     OW67032   4.726  12.877   1.267
21712SOL    HW167033   4.767  12.941   1.209
21712SOL    HW267034   4.785  12.801   1.264
21713SOL     OW67035  11.247   6.604   4.546
21713SOL    HW167036  11.285   6.653   4.619
21713SOL    HW267037  11.168   6.564   4.582
21714SOL     OW67038  11.487   7.299  11.163
21714SOL    HW167039  11.470   7.366  11.229
21714SOL    HW267040  11.528   7.346  11.090
21715SOL     OW67041  13.181   4.195  11.847
21715SOL    HW167042  13.235   4.119  11.867
21715SOL    HW267043  13.107   4.189  11.908
21716SOL     OW67044  11.784  14.132   5.856
21716SOL    HW167045  11.832  14.057   5.892
21716SOL    HW267046  11.766  14.188   5.932
21717SOL     OW67047  11.888   8.251   0.931
21717SOL    HW167048  11.883   8.208   1.016
21717SOL    HW267049  11.963   8.309   0.937
21718SOL     OW67050  13.922  10.715   8.912
21718SOL    HW167051  13.901  10.641   8.970
21718SOL    HW267052  13.904  10.681   8.824
21719SOL     OW67053  11.751  10.770   5.550
21719SOL    HW167054  11.717  10.859   5.553
21719SOL    HW267055  11.800  10.760   5.632
21720SOL     OW67056   8.501  13.787   9.848
21720SOL    HW167057   8.566  13.806   9.916
21720SOL    HW267058   8.508  13.693   9.834
21721SOL     OW67059   6.161   3.293   3.886
21721SOL    HW167060   6.139   3.289   3.979
21721SOL    HW267061   6.080   3.324   3.844
21722SOL     OW67062   8.737   4.593   4.079
21722SOL    HW167063   8.752   4.507   4.118
21722SOL    HW267064   8.646   4.591   4.051
21723SOL     OW67065   1.129   5.383  12.381
21723SOL    HW167066   1.072   5.313  12.349
21723SOL    HW267067   1.202   5.384  12.319
21724SOL     OW67068   6.860  13.432  12.327
21724SOL    HW167069   6.876  13.526  12.331
21724SOL    HW267070   6.872  13.409  12.235
21725SOL     OW67071   7.764  12.535   9.635
21725SOL    HW167072   7.678  12.540   9.677
21725SOL    HW267073   7.823  12.579   9.697
21726SOL     OW67074   6.790  12.978  14.623
21726SOL    HW167075   6.736  13.056  14.611
21726SOL    HW267076   6.766  12.921  14.550
21727SOL     OW67077   3.693  10.129   0.701
21727SOL    HW167078   3.599  10.125   0.719
21727SOL    HW267079   3.710  10.220   0.676
21728SOL     OW67080  12.495  13.400  11.354
21728SOL    HW167081  12.500  13.458  11.278
21728SOL    HW267082  12.554  13.328  11.333
21729SOL     OW67083   0.770  11.114   0.616
21729SOL    HW167084   0.836  11.114   0.686
21729SOL    HW267085   0.702  11.054   0.648
21730SOL     OW67086  12.798  11.377   2.273
21730SOL    HW167087  12.779  11.467   2.301
21730SOL    HW267088  12.735  11.323   2.321
21731SOL     OW67089  14.068   1.768   7.919
21731SOL    HW167090  14.078   1.838   7.983
21731SOL    HW267091  13.990   1.792   7.869
21732SOL     OW67092   3.822  11.021   2.656
21732SOL    HW167093   3.872  10.942   2.634
21732SOL    HW267094   3.804  11.062   2.571
21733SOL     OW67095   3.924   4.674  10.047
21733SOL    HW167096   3.976   4.721  10.112
21733SOL    HW267097   3.866   4.618  10.099
21734SOL     OW67098   6.910   9.880   0.218
21734SOL    HW167099   6.903   9.791   0.184
21734SOL    HW267100   6.828   9.923   0.191
21735SOL     OW67101   5.643   6.652   0.598
21735SOL    HW167102   5.702   6.703   0.653
21735SOL    HW267103   5.699   6.622   0.526
21736SOL     OW67104  14.419   6.764  12.145
21736SOL    HW167105  14.339   6.798  12.186
21736SOL    HW267106  14.460   6.841  12.107
21737SOL     OW67107   5.322   9.331  13.914
21737SOL    HW167108   5.417   9.331  13.899
21737SOL    HW267109   5.312   9.364  14.003
21738SOL     OW67110   5.525  14.226   6.229
21738SOL    HW167111   5.547  14.292   6.295
21738SOL    HW267112   5.445  14.185   6.263
21739SOL     OW67113  12.160  12.227  10.897
21739SOL    HW167114  12.069  12.214  10.923
21739SOL    HW267115  12.205  12.149  10.929
21740SOL     OW67116   3.128   9.304   9.928
21740SOL    HW167117   3.046   9.268   9.895
21740SOL    HW267118   3.158   9.241   9.993
21741SOL     OW67119   2.216   3.995   0.979
21741SOL    HW167120   2.191   3.970   1.068
21741SOL    HW267121   2.144   4.051   0.949
21742SOL     OW67122  13.226   6.647   5.401
21742SOL    HW167123  13.316   6.626   5.426
21742SOL    HW267124  13.191   6.696   5.476
21743SOL     OW67125  14.002   8.157   2.871
21743SOL    HW167126  13.998   8.064   2.892
21743SOL    HW267127  13.979   8.162   2.779
21744SOL     OW67128  12.610   0.971  14.203
21744SOL    HW167129  12.620   0.950  14.296
21744SOL    HW267130  12.556   0.900  14.168
21745SOL     OW67131   5.792   5.699   0.176
21745SOL    HW167132   5.757   5.676   0.090
21745SOL    HW267133   5.739   5.773   0.204
21746SOL     OW67134   3.752   3.776   0.592
21746SOL    HW167135   3.772   3.845   0.655
21746SOL    HW267136   3.773   3.814   0.507
21747SOL     OW67137   3.844   9.345   4.019
21747SOL    HW167138   3.903   9.420   4.021
21747SOL    HW267139   3.900   9.270   4.041
21748SOL     OW67140  13.407   6.796  10.847
21748SOL    HW167141  13.418   6.815  10.940
21748SOL    HW267142  13.355   6.716  10.846
21749SOL     OW67143   9.307   9.412  12.534
21749SOL    HW167144   9.230   9.367  12.571
21749SOL    HW267145   9.374   9.404  12.602
21750SOL     OW67146  12.947   7.039  10.935
21750SOL    HW167147  12.887   6.970  10.964
21750SOL    HW267148  12.972   7.084  11.016
21751SOL     OW67149   7.491   0.082   2.325
21751SOL    HW167150   7.425   0.135   2.281
21751SOL    HW267151   7.554   0.146   2.360
21752SOL     OW67152   2.354   2.383   2.068
21752SOL    HW167153   2.404   2.411   2.145
21752SOL    HW267154   2.418   2.340   2.012
21753SOL     OW67155   0.078   4.333   6.643
21753SOL    HW167156  14.865   4.354   6.602
21753SOL    HW267157   0.090   4.402   6.708
21754SOL     OW67158  13.477  10.588   5.129
21754SOL    HW167159  13.385  10.585   5.101
21754SOL    HW267160  13.483  10.669   5.180
21755SOL     OW67161   7.076  14.370   5.772
21755SOL    HW167162   7.106  14.458   5.794
21755SOL    HW267163   7.143  14.311   5.808
21756SOL     OW67164  10.485  14.449  12.414
21756SOL    HW167165  10.494  14.418  12.504
21756SOL    HW267166  10.568  14.495  12.396
21757SOL     OW67167   0.214   8.959   2.947
21757SOL    HW167168   0.281   9.001   2.893
21757SOL    HW267169   0.140   8.945   2.888
21758SOL     OW67170  12.169  11.915  13.505
21758SOL    HW167171  12.140  11.848  13.444
21758SOL    HW267172  12.245  11.955  13.463
21759SOL     OW67173  11.681   7.769   0.239
21759SOL    HW167174  11.753   7.708   0.255
21759SOL    HW267175  11.719   7.856   0.255
21760SOL     OW67176   0.911   4.772  12.336
21760SOL    HW167177   0.879   4.762  12.426
21760SOL    HW267178   0.926   4.682  12.306
21761SOL     OW67179   5.337   9.905   5.133
21761SOL    HW167180   5.276   9.975   5.112
21761SOL    HW267181   5.288   9.846   5.190
21762SOL     OW67182   6.660  11.115   7.239
21762SOL    HW167183   6.742  11.149   7.274
21762SOL    HW267184   6.675  11.020   7.231
21763SOL     OW67185  14.093   8.534  14.419
21763SOL    HW167186  14.079   8.520  14.513
21763SOL    HW267187  14.139   8.617  14.413
21764SOL     OW67188  12.039  11.561  14.011
21764SOL    HW167189  11.968  11.569  13.947
21764SOL    HW267190  12.089  11.642  14.003
21765SOL     OW67191   8.224   4.279  13.638
21765SOL    HW167192   8.281   4.258  13.712
21765SOL    HW267193   8.145   4.315  13.679
21766SOL     OW67194   5.721   2.636   6.070
21766SOL    HW167195   5.805   2.645   6.025
21766SOL    HW267196   5.703   2.542   6.070
21767SOL     OW67197   0.056   5.760   7.076
21767SOL    HW167198   0.055   5.778   7.170
21767SOL    HW267199  14.841   5.787   7.046
21768SOL     OW67200  11.026   5.542  14.773
21768SOL    HW167201  11.027   5.590  14.689
21768SOL    HW267202  10.993   5.455  14.750
21769SOL     OW67203   5.247  14.742   5.851
21769SOL    HW167204   5.259  14.837   5.850
21769SOL    HW267205   5.334  14.706   5.835
21770SOL     OW67206  14.190  12.241   5.987
21770SOL    HW167207  14.192  12.246   6.082
21770SOL    HW267208  14.271  12.284   5.959
21771SOL     OW67209   5.527  13.073  12.924
21771SOL    HW167210   5.600  13.127  12.955
21771SOL    HW267211   5.516  13.007  12.992
21772SOL     OW67212  12.204   4.950   3.146
21772SOL    HW167213  12.300   4.952   3.142
21772SOL    HW267214  12.181   4.858   3.139
21773SOL     OW67215  13.900   8.652  10.067
21773SOL    HW167216  13.950   8.602  10.132
21773SOL    HW267217  13.961   8.718  10.035
21774SOL     OW67218   2.349  13.357  11.526
21774SOL    HW167219   2.426  13.301  11.514
21774SOL    HW267220   2.372  13.412  11.601
21775SOL     OW67221  14.427  12.965  10.649
21775SOL    HW167222  14.398  12.978  10.559
21775SOL    HW267223  14.350  12.929  10.694
21776SOL     OW67224   1.524   8.551   3.620
21776SOL    HW167225   1.550   8.459   3.617
21776SOL    HW267226   1.572   8.587   3.695
21777SOL     OW67227   4.706   8.705   8.652
21777SOL    HW167228   4.775   8.703   8.719
21777SOL    HW267229   4.642   8.768   8.686
21778SOL     OW67230   1.654   1.706  14.650
21778SOL    HW167231   1.721   1.670  14.592
21778SOL    HW267232   1.617   1.779  14.600
21779SOL     OW67233   5.327   9.846  10.665
21779SOL    HW167234   5.256   9.911  10.673
21779SOL    HW267235   5.406   9.894  10.691
21780SOL     OW67236  12.074   2.807   9.889
21780SOL    HW167237  12.150   2.801   9.947
21780SOL    HW267238  12.033   2.720   9.894
21781SOL     OW67239   5.879   6.968   1.540
21781SOL    HW167240   5.950   7.002   1.594
21781SOL    HW267241   5.810   6.945   1.602
21782SOL     OW67242  12.884  11.614   5.169
21782SOL    HW167243  12.978  11.615   5.150
21782SOL    HW267244  12.843  11.662   5.097
21783SOL     OW67245   5.264  10.347   3.065
21783SOL    HW167246   5.178  10.333   3.026
21783SOL    HW267247   5.309  10.405   3.004
21784SOL     OW67248   5.304   3.693  12.061
21784SOL    HW167249   5.271   3.744  12.135
21784SOL    HW267250   5.240   3.622  12.052
21785SOL     OW67251   0.222   6.747  12.514
21785SOL    HW167252   0.261   6.670  12.472
21785SOL    HW267253   0.193   6.802  12.442
21786SOL     OW67254   6.219   8.891  12.454
21786SOL    HW167255   6.296   8.865  12.503
21786SOL    HW267256   6.196   8.814  12.402
21787SOL     OW67257   3.825  14.550   9.909
21787SOL    HW167258   3.778  14.495   9.971
21787SOL    HW267259   3.801  14.516   9.823
21788SOL     OW67260   0.235   1.356  10.777
21788SOL    HW167261   0.262   1.447  10.773
21788SOL    HW267262   0.186   1.349  10.859
21789SOL     OW67263  12.598   7.306   5.905
21789SOL    HW167264  12.620   7.349   5.822
21789SOL    HW267265  12.558   7.223   5.880
21790SOL     OW67266   9.921   0.143  13.543
21790SOL    HW167267   9.940   0.049  13.533
21790SOL    HW267268   9.846   0.146  13.603
21791SOL     OW67269  10.731   9.969  14.346
21791SOL    HW167270  10.636   9.974  14.351
21791SOL    HW267271  10.755   9.907  14.415
21792SOL     OW67272   2.768   6.507   6.873
21792SOL    HW167273   2.773   6.528   6.966
21792SOL    HW267274   2.689   6.453   6.864
21793SOL     OW67275  11.184  13.330   1.867
21793SOL    HW167276  11.191  13.352   1.960
21793SOL    HW267277  11.187  13.235   1.864
21794SOL     OW67278   8.887  14.269   1.348
21794SOL    HW167279   8.946  14.273   1.424
21794SOL    HW267280   8.847  14.355   1.345
21795SOL     OW67281   6.725   0.464   7.589
21795SOL    HW167282   6.753   0.393   7.646
21795SOL    HW267283   6.640   0.436   7.555
21796SOL     OW67284  12.254   2.680   9.043
21796SOL    HW167285  12.332   2.720   9.005
21796SOL    HW267286  12.269   2.586   9.038
21797SOL     OW67287   9.715   6.046   7.228
21797SOL    HW167288   9.778   6.081   7.290
21797SOL    HW267289   9.666   5.981   7.277
21798SOL     OW67290   0.088   0.278  10.396
21798SOL    HW167291   0.094   0.372  10.376
21798SOL    HW267292  14.867   0.265  10.419
21799SOL     OW67293   0.474  11.000   4.855
21799SOL    HW167294   0.424  11.073   4.819
21799SOL    HW267295   0.566  11.023   4.837
21800SOL     OW67296   8.396   6.231   2.557
21800SOL    HW167297   8.311   6.254   2.520
21800SOL    HW267298   8.427   6.157   2.504
21801SOL     OW67299   4.694   8.686   2.192
21801SOL    HW167300   4.673   8.779   2.201
21801SOL    HW267301   4.610   8.642   2.201
21802SOL     OW67302   6.693   7.209  10.206
21802SOL    HW167303   6.713   7.160  10.286
21802SOL    HW267304   6.598   7.214  10.203
21803SOL     OW67305   3.633  13.850   6.521
21803SOL    HW167306   3.544  13.862   6.553
21803SOL    HW267307   3.632  13.764   6.479
21804SOL     OW67308  14.381   3.680   4.836
21804SOL    HW167309  14.472   3.660   4.816
21804SOL    HW267310  14.341   3.596   4.857
21805SOL     OW67311   7.627   2.901   6.671
21805SOL    HW167312   7.534   2.918   6.654
21805SOL    HW267313   7.656   2.848   6.597
21806SOL     OW67314   0.758   6.392   4.457
21806SOL    HW167315   0.828   6.426   4.401
21806SOL    HW267316   0.709   6.332   4.401
21807SOL     OW67317   4.971   8.650  14.037
21807SOL    HW167318   5.048   8.594  14.025
21807SOL    HW267319   4.971   8.708  13.961
21808SOL     OW67320   1.803   3.880   1.854
21808SOL    HW167321   1.716   3.841   1.852
21808SOL    HW267322   1.787   3.970   1.884
21809SOL     OW67323   5.217   7.566   6.632
21809SOL    HW167324   5.254   7.652   6.612
21809SOL    HW267325   5.127   7.585   6.659
21810SOL     OW67326  13.251   8.119   3.987
21810SOL    HW167327  13.272   8.052   3.923
21810SOL    HW267328  13.174   8.085   4.033
21811SOL     OW67329   8.838  11.128  13.407
21811SOL    HW167330   8.867  11.084  13.327
21811SOL    HW267331   8.835  11.221  13.383
21812SOL     OW67332  10.595   7.338   9.385
21812SOL    HW167333  10.626   7.390   9.311
21812SOL    HW267334  10.523   7.286   9.349
21813SOL     OW67335   4.223   3.503   6.143
21813SOL    HW167336   4.308   3.548   6.143
21813SOL    HW267337   4.246   3.410   6.141
21814SOL     OW67338   1.612  14.162   1.626
21814SOL    HW167339   1.695  14.164   1.578
21814SOL    HW267340   1.572  14.247   1.608
21815SOL     OW67341   8.624   2.679  10.170
21815SOL    HW167342   8.708   2.718  10.195
21815SOL    HW267343   8.559   2.744  10.196
21816SOL     OW67344   8.749  13.833   4.935
21816SOL    HW167345   8.722  13.821   4.844
21816SOL    HW267346   8.834  13.875   4.929
21817SOL     OW67347  12.029  14.374  10.418
21817SOL    HW167348  12.087  14.367  10.494
21817SOL    HW267349  11.952  14.323  10.442
21818SOL     OW67350  11.605  11.324   3.063
21818SOL    HW167351  11.515  11.291   3.069
21818SOL    HW267352  11.654  11.275   3.128
21819SOL     OW67353   2.704   0.112  10.619
21819SOL    HW167354   2.734   0.179  10.557
21819SOL    HW267355   2.757   0.127  10.697
21820SOL     OW67356  13.853  11.857   9.448
21820SOL    HW167357  13.886  11.893   9.366
21820SOL    HW267358  13.781  11.915   9.472
21821SOL     OW67359  12.223  10.335   1.292
21821SOL    HW167360  12.216  10.343   1.197
21821SOL    HW267361  12.316  10.318   1.307
21822SOL     OW67362  14.561   6.377   7.782
21822SOL    HW167363  14.505   6.390   7.859
21822SOL    HW267364  14.592   6.465   7.761
21823SOL     OW67365   2.918  12.130   8.230
21823SOL    HW167366   2.985  12.198   8.241
21823SOL    HW267367   2.861  12.140   8.306
21824SOL     OW67368  10.736   5.396   4.733
21824SOL    HW167369  10.823   5.423   4.704
21824SOL    HW267370  10.693   5.363   4.654
21825SOL     OW67371   7.504  14.410   7.181
21825SOL    HW167372   7.569  14.400   7.111
21825SOL    HW267373   7.500  14.504   7.197
21826SOL     OW67374  14.102  13.907  11.597
21826SOL    HW167375  14.070  13.980  11.543
21826SOL    HW267376  14.197  13.921  11.602
21827SOL     OW67377  11.604  10.177   4.394
21827SOL    HW167378  11.633  10.148   4.308
21827SOL    HW267379  11.569  10.098   4.435
21828SOL     OW67380   2.781   3.376  12.102
21828SOL    HW167381   2.867   3.394  12.063
21828SOL    HW267382   2.728   3.342  12.030
21829SOL     OW67383  14.606   8.413   8.660
21829SOL    HW167384  14.606   8.441   8.751
21829SOL    HW267385  14.518   8.434   8.629
21830SOL     OW67386   9.002   6.339  13.547
21830SOL    HW167387   8.910   6.365  13.557
21830SOL    HW267388   9.039   6.404  13.487
21831SOL     OW67389   0.460   0.515  14.001
21831SOL    HW167390   0.446   0.435  14.051
21831SOL    HW267391   0.382   0.523  13.946
21832SOL     OW67392  10.668   6.427   1.895
21832SOL    HW167393  10.637   6.347   1.854
21832SOL    HW267394  10.653   6.495   1.830
21833SOL     OW67395   5.147   0.740  13.780
21833SOL    HW167396   5.111   0.799  13.846
21833SOL    HW267397   5.078   0.675  13.766
21834SOL     OW67398   0.037  10.198  12.298
21834SOL    HW167399   0.085  10.264  12.348
21834SOL    HW267400  14.816  10.222  12.310
21835SOL     OW67401  10.274  11.234  14.237
21835SOL    HW167402  10.206  11.167  14.232
21835SOL    HW267403  10.230  11.316  14.213
21836SOL     OW67404   6.028   6.962  12.447
21836SOL    HW167405   6.045   7.022  12.519
21836SOL    HW267406   6.035   7.016  12.368
21837SOL     OW67407   8.946  10.097  13.405
21837SOL    HW167408   8.901  10.142  13.333
21837SOL    HW267409   8.888  10.025  13.428
21838SOL     OW67410   1.131   7.978  11.976
21838SOL    HW167411   1.195   8.048  11.989
21838SOL    HW267412   1.161   7.907  12.034
21839SOL     OW67413  13.340  11.094   9.299
21839SOL    HW167414  13.349  11.136   9.385
21839SOL    HW267415  13.429  11.091   9.265
21840SOL     OW67416   6.633   2.574   5.570
21840SOL    HW167417   6.653   2.615   5.486
21840SOL    HW267418   6.708   2.596   5.626
21841SOL     OW67419  12.532   0.026   1.119
21841SOL    HW167420  12.487   0.065   1.045
21841SOL    HW267421  12.493   0.067   1.196
21842SOL     OW67422   3.525   9.843   7.514
21842SOL    HW167423   3.447   9.879   7.473
21842SOL    HW267424   3.545   9.764   7.465
21843SOL     OW67425   2.105   2.784   6.444
21843SOL    HW167426   2.152   2.863   6.418
21843SOL    HW267427   2.164   2.712   6.422
21844SOL     OW67428  14.710  10.020   3.866
21844SOL    HW167429  14.659  10.011   3.785
21844SOL    HW267430  14.774  10.088   3.846
21845SOL     OW67431   3.883   5.146  12.931
21845SOL    HW167432   3.900   5.105  12.847
21845SOL    HW267433   3.869   5.239  12.910
21846SOL     OW67434   9.145   3.878  14.871
21846SOL    HW167435   9.187   3.884   0.086
21846SOL    HW267436   9.174   3.794  14.836
21847SOL     OW67437   5.481   3.731  12.473
21847SOL    HW167438   5.568   3.734  12.514
21847SOL    HW267439   5.485   3.797  12.404
21848SOL     OW67440   0.387   4.285   6.710
21848SOL    HW167441   0.306   4.300   6.662
21848SOL    HW267442   0.449   4.254   6.644
21849SOL     OW67443   3.476   5.266  14.150
21849SOL    HW167444   3.431   5.215  14.217
21849SOL    HW267445   3.547   5.310  14.197
21850SOL     OW67446   5.047   2.810  11.152
21850SOL    HW167447   5.060   2.904  11.163
21850SOL    HW267448   5.053   2.797  11.057
21851SOL     OW67449   2.393  13.985   7.911
21851SOL    HW167450   2.442  13.924   7.966
21851SOL    HW267451   2.447  14.064   7.908
21852SOL     OW67452   1.681   7.903  12.320
21852SOL    HW167453   1.631   7.970  12.368
21852SOL    HW267454   1.742   7.868  12.384
21853SOL     OW67455   8.853  12.995   5.583
21853SOL    HW167456   8.945  13.001   5.610
21853SOL    HW267457   8.851  13.027   5.493
21854SOL     OW67458  14.631   2.429   8.693
21854SOL    HW167459  14.633   2.494   8.763
21854SOL    HW267460  14.541   2.396   8.694
21855SOL     OW67461   3.562  13.306   1.253
21855SOL    HW167462   3.595  13.311   1.163
21855SOL    HW267463   3.500  13.379   1.259
21856SOL     OW67464  13.875  13.186   5.686
21856SOL    HW167465  13.858  13.263   5.632
21856SOL    HW267466  13.871  13.112   5.625
21857SOL     OW67467   8.466  11.362   1.081
21857SOL    HW167468   8.436  11.371   0.991
21857SOL    HW267469   8.426  11.435   1.127
21858SOL     OW67470  12.423   5.692  12.908
21858SOL    HW167471  12.343   5.713  12.956
21858SOL    HW267472  12.493   5.731  12.960
21859SOL     OW67473   6.736   1.188   0.505
21859SOL    HW167474   6.794   1.264   0.498
21859SOL    HW267475   6.670   1.214   0.570
21860SOL     OW67476  14.331  12.729   5.029
21860SOL    HW167477  14.280  12.803   5.063
21860SOL    HW267478  14.361  12.757   4.943
21861SOL     OW67479   6.366   9.511   6.030
21861SOL    HW167480   6.363   9.455   5.952
21861SOL    HW267481   6.296   9.478   6.085
21862SOL     OW67482   8.366   7.975  11.141
21862SOL    HW167483   8.410   7.949  11.222
21862SOL    HW267484   8.430   7.958  11.072
21863SOL     OW67485  12.466   0.863   0.796
21863SOL    HW167486  12.409   0.939   0.808
21863SOL    HW267487  12.505   0.848   0.882
21864SOL     OW67488  14.011  14.394  12.581
21864SOL    HW167489  13.974  14.482  12.578
21864SOL    HW267490  13.968  14.351  12.655
21865SOL     OW67491   6.594   3.593   2.191
21865SOL    HW167492   6.665   3.550   2.239
21865SOL    HW267493   6.514   3.565   2.235
21866SOL     OW67494  13.379   7.923   5.834
21866SOL    HW167495  13.403   8.010   5.801
21866SOL    HW267496  13.351   7.939   5.925
21867SOL     OW67497   4.743  10.606   8.771
21867SOL    HW167498   4.753  10.522   8.727
21867SOL    HW267499   4.828  10.649   8.760
21868SOL     OW67500   4.083   6.478   0.875
21868SOL    HW167501   4.023   6.547   0.901
21868SOL    HW267502   4.038   6.396   0.897
21869SOL     OW67503   6.851   8.192   4.000
21869SOL    HW167504   6.863   8.285   3.977
21869SOL    HW267505   6.771   8.166   3.954
21870SOL     OW67506  10.505  10.902   8.128
21870SOL    HW167507  10.471  10.982   8.168
21870SOL    HW267508  10.427  10.849   8.112
21871SOL     OW67509   5.757  13.444   6.688
21871SOL    HW167510   5.840  13.487   6.668
21871SOL    HW267511   5.715  13.502   6.751
21872SOL     OW67512   5.632   9.018  12.760
21872SOL    HW167513   5.678   9.078  12.702
21872SOL    HW267514   5.567   9.072  12.805
21873SOL     OW67515   6.934  13.471  13.286
21873SOL    HW167516   6.996  13.406  13.254
21873SOL    HW267517   6.901  13.435  13.369
21874SOL     OW67518   1.391   4.678   7.758
21874SOL    HW167519   1.331   4.734   7.806
21874SOL    HW267520   1.351   4.667   7.672
21875SOL     OW67521   1.570   6.958   0.601
21875SOL    HW167522   1.478   6.936   0.617
21875SOL    HW267523   1.572   7.054   0.601
21876SOL     OW67524  13.900   8.375   8.830
21876SOL    HW167525  13.857   8.341   8.908
21876SOL    HW267526  13.898   8.302   8.768
21877SOL     OW67527   0.286   7.653  12.326
21877SOL    HW167528   0.338   7.574  12.318
21877SOL    HW267529   0.318   7.696  12.406
21878SOL     OW67530   0.571   1.953   5.276
21878SOL    HW167531   0.586   1.874   5.225
21878SOL    HW267532   0.630   1.946   5.351
21879SOL     OW67533   2.124   7.206  12.556
21879SOL    HW167534   2.033   7.215  12.526
21879SOL    HW267535   2.147   7.115  12.537
21880SOL     OW67536  13.816   5.738   7.817
21880SOL    HW167537  13.765   5.664   7.783
21880SOL    HW267538  13.901   5.730   7.772
21881SOL     OW67539   3.887  10.129  14.308
21881SOL    HW167540   3.881  10.076  14.228
21881SOL    HW267541   3.801  10.171  14.315
21882SOL     OW67542   9.807   2.291  10.180
21882SOL    HW167543   9.839   2.337  10.257
21882SOL    HW267544   9.842   2.341  10.106
21883SOL     OW67545   5.965  12.841  11.430
21883SOL    HW167546   5.874  12.840  11.460
21883SOL    HW267547   5.989  12.748  11.422
21884SOL     OW67548   1.748   8.430  12.369
21884SOL    HW167549   1.787   8.352  12.330
21884SOL    HW267550   1.757   8.498  12.301
21885SOL     OW67551  14.634   5.406   3.100
21885SOL    HW167552  14.672   5.426   3.014
21885SOL    HW267553  14.645   5.311   3.109
21886SOL     OW67554  11.590   9.293   5.953
21886SOL    HW167555  11.628   9.312   6.039
21886SOL    HW267556  11.498   9.273   5.972
21887SOL     OW67557   1.715  13.077   0.348
21887SOL    HW167558   1.731  12.983   0.338
21887SOL    HW267559   1.655  13.084   0.422
21888SOL     OW67560   4.151   4.584  12.432
21888SOL    HW167561   4.209   4.653  12.401
21888SOL    HW267562   4.189   4.503  12.397
21889SOL     OW67563  11.432   4.783  10.681
21889SOL    HW167564  11.425   4.688  10.688
21889SOL    HW267565  11.359   4.817  10.733
21890SOL     OW67566   6.170   1.432   5.861
21890SOL    HW167567   6.121   1.381   5.796
21890SOL    HW267568   6.243   1.470   5.813
21891SOL     OW67569  11.874  11.858  14.063
21891SOL    HW167570  11.914  11.944  14.046
21891SOL    HW267571  11.790  11.879  14.102
21892SOL     OW67572   1.259  11.926   0.895
21892SOL    HW167573   1.199  11.945   0.823
21892SOL    HW267574   1.243  11.834   0.916
21893SOL     OW67575   0.659  14.691   7.936
21893SOL    HW167576   0.704  14.659   8.014
21893SOL    HW267577   0.595  14.753   7.970
21894SOL     OW67578   0.553   6.019  14.219
21894SOL    HW167579   0.511   5.938  14.249
21894SOL    HW267580   0.588   5.997  14.132
21895SOL     OW67581   8.592  12.880   4.990
21895SOL    HW167582   8.678  12.914   5.017
21895SOL    HW267583   8.612  12.802   4.939
21896SOL     OW67584   2.300   5.148  13.058
21896SOL    HW167585   2.391   5.117  13.062
21896SOL    HW267586   2.250   5.073  13.027
21897SOL     OW67587   1.034   1.267  11.382
21897SOL    HW167588   1.010   1.192  11.328
21897SOL    HW267589   1.038   1.341  11.320
21898SOL     OW67590   8.349   5.946   1.319
21898SOL    HW167591   8.301   5.945   1.402
21898SOL    HW267592   8.333   5.860   1.281
21899SOL     OW67593   8.137   4.045   1.283
21899SOL    HW167594   8.045   4.068   1.293
21899SOL    HW267595   8.151   4.039   1.189
21900SOL     OW67596   6.500   2.202  10.632
21900SOL    HW167597   6.513   2.280  10.578
21900SOL    HW267598   6.538   2.130  10.582
21901SOL     OW67599   5.052   9.676   7.058
21901SOL    HW167600   4.974   9.732   7.062
21901SOL    HW267601   5.105   9.704   7.132
21902SOL     OW67602  14.794   4.717   5.459
21902SOL    HW167603  14.869   4.724   5.518
21902SOL    HW267604  14.818   4.647   5.398
21903SOL     OW67605   1.598   6.361   5.759
21903SOL    HW167606   1.601   6.351   5.854
21903SOL    HW267607   1.529   6.425   5.744
21904SOL     OW67608   3.519  13.640   1.331
21904SOL    HW167609   3.504  13.570   1.395
21904SOL    HW267610   3.432  13.669   1.306
21905SOL     OW67611   3.542   4.076   5.902
21905SOL    HW167612   3.554   4.170   5.919
21905SOL    HW267613   3.480   4.047   5.968
21906SOL     OW67614   4.667   3.889   5.578
21906SOL    HW167615   4.624   3.844   5.505
21906SOL    HW267616   4.703   3.969   5.538
21907SOL     OW67617   6.484   9.063   2.990
21907SOL    HW167618   6.479   9.062   2.895
21907SOL    HW267619   6.494   9.155   3.013
21908SOL     OW67620  14.193  14.711   1.302
21908SOL    HW167621  14.227  14.622   1.314
21908SOL    HW267622  14.098  14.702   1.309
21909SOL     OW67623  11.449  13.497   2.695
21909SOL    HW167624  11.438  13.404   2.679
21909SOL    HW267625  11.467  13.504   2.788
21910SOL     OW67626  14.451  12.398   1.547
21910SOL    HW167627  14.441  12.373   1.455
21910SOL    HW267628  14.476  12.490   1.546
21911SOL     OW67629   5.912   4.934   1.146
21911SOL    HW167630   5.988   4.991   1.154
21911SOL    HW267631   5.837   4.994   1.145
21912SOL     OW67632  14.016  11.035   9.496
21912SOL    HW167633  13.997  11.080   9.578
21912SOL    HW267634  13.955  11.073   9.433
21913SOL     OW67635   8.175   6.404  10.348
21913SOL    HW167636   8.171   6.499  10.358
21913SOL    HW267637   8.266   6.387  10.324
21914SOL     OW67638  12.409   7.201  11.748
21914SOL    HW167639  12.314   7.189  11.737
21914SOL    HW267640  12.420   7.221  11.841
21915SOL     OW67641   0.913   2.762  12.467
21915SOL    HW167642   0.995   2.727  12.431
21915SOL    HW267643   0.897   2.710  12.545
21916SOL     OW67644   2.793   9.761   4.040
21916SOL    HW167645   2.847   9.704   3.984
21916SOL    HW267646   2.854   9.795   4.105
21917SOL     OW67647  10.555   6.355   3.162
21917SOL    HW167648  10.628   6.417   3.166
21917SOL    HW267649  10.594   6.274   3.130
21918SOL     OW67650   6.079   2.074   5.794
21918SOL    HW167651   6.031   2.062   5.876
21918SOL    HW267652   6.127   2.156   5.807
21919SOL     OW67653   3.350   3.872   6.586
21919SOL    HW167654   3.438   3.838   6.569
21919SOL    HW267655   3.309   3.877   6.500
21920SOL     OW67656   7.907   7.519   5.092
21920SOL    HW167657   7.857   7.593   5.059
21920SOL    HW267658   7.858   7.487   5.168
21921SOL     OW67659   9.452   5.706   0.187
21921SOL    HW167660   9.541   5.707   0.221
21921SOL    HW267661   9.436   5.797   0.159
21922SOL     OW67662  12.132   3.988   5.156
21922SOL    HW167663  12.227   3.979   5.142
21922SOL    HW267664  12.125   4.062   5.218
21923SOL     OW67665   8.057   8.791   0.520
21923SOL    HW167666   8.077   8.826   0.433
21923SOL    HW267667   7.961   8.795   0.525
21924SOL     OW67668   0.800  11.191   3.670
21924SOL    HW167669   0.755  11.209   3.753
21924SOL    HW267670   0.775  11.101   3.649
21925SOL     OW67671   9.404   6.490   8.729
21925SOL    HW167672   9.403   6.585   8.743
21925SOL    HW267673   9.313   6.463   8.744
21926SOL     OW67674   0.890   8.687   2.078
21926SOL    HW167675   0.872   8.683   2.172
21926SOL    HW267676   0.873   8.598   2.047
21927SOL     OW67677   7.420   5.542  12.972
21927SOL    HW167678   7.437   5.513  12.882
21927SOL    HW267679   7.461   5.476  13.027
21928SOL     OW67680  11.532   8.273  13.053
21928SOL    HW167681  11.453   8.221  13.061
21928SOL    HW267682  11.595   8.214  13.011
21929SOL     OW67683   3.770  13.739   0.548
21929SOL    HW167684   3.734  13.769   0.465
21929SOL    HW267685   3.840  13.802   0.568
21930SOL     OW67686  10.585   7.628   4.925
21930SOL    HW167687  10.606   7.558   4.864
21930SOL    HW267688  10.586   7.708   4.872
21931SOL     OW67689  13.950  10.269   6.304
21931SOL    HW167690  13.985  10.188   6.341
21931SOL    HW267691  13.989  10.274   6.216
21932SOL     OW67692  11.798  13.913   7.151
21932SOL    HW167693  11.829  13.971   7.220
21932SOL    HW267694  11.776  13.831   7.195
21933SOL     OW67695   9.806  12.136   8.374
21933SOL    HW167696   9.863  12.098   8.307
21933SOL    HW267697   9.792  12.227   8.344
21934SOL     OW67698   0.197  13.363   5.447
21934SOL    HW167699   0.287  13.330   5.456
21934SOL    HW267700   0.196  13.445   5.497
21935SOL     OW67701  14.413  12.827  10.031
21935SOL    HW167702  14.503  12.795  10.028
21935SOL    HW267703  14.414  12.897  10.096
21936SOL     OW67704   9.832   7.513   9.334
21936SOL    HW167705   9.897   7.445   9.322
21936SOL    HW267706   9.759   7.469   9.378
21937SOL     OW67707  14.380  14.219   2.927
21937SOL    HW167708  14.420  14.234   3.013
21937SOL    HW267709  14.308  14.282   2.922
21938SOL     OW67710   6.659   5.665   1.571
21938SOL    HW167711   6.754   5.669   1.574
21938SOL    HW267712   6.637   5.586   1.621
21939SOL     OW67713   4.694  11.001  14.499
21939SOL    HW167714   4.599  10.986  14.497
21939SOL    HW267715   4.722  10.970  14.585
21940SOL     OW67716   8.058   1.204   2.830
21940SOL    HW167717   8.099   1.155   2.903
21940SOL    HW267718   8.112   1.182   2.754
21941SOL     OW67719  13.684  13.614  10.693
21941SOL    HW167720  13.697  13.703  10.726
21941SOL    HW267721  13.590  13.608  10.679
21942SOL     OW67722   1.692  12.610  10.928
21942SOL    HW167723   1.648  12.637  11.008
21942SOL    HW267724   1.753  12.542  10.956
21943SOL     OW67725   9.580   4.487   8.089
21943SOL    HW167726   9.554   4.489   8.181
21943SOL    HW267727   9.598   4.579   8.067
21944SOL     OW67728   5.301   6.947   6.385
21944SOL    HW167729   5.369   6.966   6.451
21944SOL    HW267730   5.219   6.969   6.428
21945SOL     OW67731  14.110  14.279   4.373
21945SOL    HW167732  14.023  14.306   4.346
21945SOL    HW267733  14.163  14.285   4.293
21946SOL     OW67734  10.170   5.133  13.883
21946SOL    HW167735  10.184   5.141  13.977
21946SOL    HW267736  10.221   5.057  13.857
21947SOL     OW67737  11.166   9.489   1.610
21947SOL    HW167738  11.241   9.499   1.551
21947SOL    HW267739  11.193   9.530   1.691
21948SOL     OW67740   2.163  14.511  14.815
21948SOL    HW167741   2.178  14.588  14.870
21948SOL    HW267742   2.088  14.533  14.761
21949SOL     OW67743  14.240  11.594   2.828
21949SOL    HW167744  14.164  11.641   2.862
21949SOL    HW267745  14.204  11.539   2.757
21950SOL     OW67746  13.441   3.258   0.914
21950SOL    HW167747  13.381   3.265   0.839
21950SOL    HW267748  13.385   3.265   0.991
21951SOL     OW67749  12.858   2.163   7.087
21951SOL    HW167750  12.905   2.237   7.124
21951SOL    HW267751  12.770   2.197   7.070
21952SOL     OW67752   5.922   0.302   2.736
21952SOL    HW167753   6.002   0.330   2.781
21952SOL    HW267754   5.876   0.248   2.800
21953SOL     OW67755   3.316  14.200   3.713
21953SOL    HW167756   3.389  14.140   3.728
21953SOL    HW267757   3.240  14.157   3.753
21954SOL     OW67758  12.790   2.559  13.146
21954SOL    HW167759  12.810   2.567  13.240
21954SOL    HW267760  12.725   2.489  13.141
21955SOL     OW67761   4.766  13.089  14.005
21955SOL    HW167762   4.774  12.994  13.999
21955SOL    HW267763   4.712  13.115  13.930
21956SOL     OW67764   7.463   0.257   8.219
21956SOL    HW167765   7.542   0.242   8.270
21956SOL    HW267766   7.432   0.343   8.247
21957SOL     OW67767   2.145   2.379   3.858
21957SOL    HW167768   2.229   2.385   3.813
21957SOL    HW267769   2.102   2.304   3.816
21958SOL     OW67770   0.768  11.401   9.059
21958SOL    HW167771   0.740  11.311   9.076
21958SOL    HW267772   0.795  11.435   9.145
21959SOL     OW67773  13.716   3.647   6.667
21959SOL    HW167774  13.696   3.678   6.755
21959SOL    HW267775  13.796   3.595   6.678
21960SOL     OW67776   2.134  10.051   9.105
21960SOL    HW167777   2.059  10.106   9.084
21960SOL    HW267778   2.191  10.057   9.028
21961SOL     OW67779   4.099   4.667   7.850
21961SOL    HW167780   4.022   4.620   7.818
21961SOL    HW267781   4.139   4.607   7.913
21962SOL     OW67782   1.548  14.155  14.739
21962SOL    HW167783   1.614  14.140  14.807
21962SOL    HW267784   1.466  14.166  14.788
21963SOL     OW67785   5.593  13.803   7.937
21963SOL    HW167786   5.648  13.781   7.861
21963SOL    HW267787   5.636  13.760   8.011
21964SOL     OW67788  11.519   9.855  14.834
21964SOL    HW167789  11.556   9.776  14.795
21964SOL    HW267790  11.544   9.850   0.055
21965SOL     OW67791   9.057   3.736  12.515
21965SOL    HW167792   9.101   3.675  12.455
21965SOL    HW267793   9.085   3.823  12.485
21966SOL     OW67794  10.900   2.515   2.909
21966SOL    HW167795  10.888   2.451   2.979
21966SOL    HW267796  10.860   2.475   2.832
21967SOL     OW67797   8.335   5.070  12.165
21967SOL    HW167798   8.298   4.994  12.210
21967SOL    HW267799   8.287   5.145  12.200
21968SOL     OW67800   0.834   0.473   7.627
21968SOL    HW167801   0.877   0.402   7.579
21968SOL    HW267802   0.743   0.442   7.637
21969SOL     OW67803   0.163   3.322  12.419
21969SOL    HW167804   0.188   3.339  12.328
21969SOL    HW267805   0.223   3.253  12.448
21970SOL     OW67806  12.417   3.024  12.204
21970SOL    HW167807  12.334   3.004  12.160
21970SOL    HW267808  12.477   3.047  12.133
21971SOL     OW67809   7.947  11.753  11.058
21971SOL    HW167810   7.886  11.786  10.992
21971SOL    HW267811   7.917  11.664  11.075
21972SOL     OW67812  10.897   7.440  11.493
21972SOL    HW167813  10.866   7.514  11.440
21972SOL    HW267814  10.983   7.468  11.525
21973SOL     OW67815  12.293   5.608   6.754
21973SOL    HW167816  12.336   5.643   6.676
21973SOL    HW267817  12.365   5.594   6.816
21974SOL     OW67818   8.892   9.326   4.160
21974SOL    HW167819   8.986   9.339   4.172
21974SOL    HW267820   8.869   9.258   4.223
21975SOL     OW67821   6.642   0.613   0.222
21975SOL    HW167822   6.633   0.707   0.239
21975SOL    HW267823   6.735   0.600   0.207
21976SOL     OW67824  11.367   3.106  13.588
21976SOL    HW167825  11.322   3.046  13.647
21976SOL    HW267826  11.460   3.095  13.608
21977SOL     OW67827  10.812  13.471   7.716
21977SOL    HW167828  10.842  13.492   7.805
21977SOL    HW267829  10.731  13.521   7.706
21978SOL     OW67830   9.018   9.471   9.447
21978SOL    HW167831   9.031   9.416   9.370
21978SOL    HW267832   8.934   9.442   9.483
21979SOL     OW67833  13.043  14.645   5.634
21979SOL    HW167834  12.955  14.637   5.599
21979SOL    HW267835  13.052  14.572   5.695
21980SOL     OW67836  13.562  13.502   3.988
21980SOL    HW167837  13.492  13.503   4.054
21980SOL    HW267838  13.522  13.543   3.911
21981SOL     OW67839   9.161   5.898   5.789
21981SOL    HW167840   9.169   5.980   5.740
21981SOL    HW267841   9.237   5.846   5.762
21982SOL     OW67842   8.283  11.339  11.101
21982SOL    HW167843   8.348  11.273  11.123
21982SOL    HW267844   8.215  11.290  11.053
21983SOL     OW67845   4.563  14.250   2.856
21983SOL    HW167846   4.633  14.247   2.922
21983SOL    HW267847   4.522  14.336   2.869
21984SOL     OW67848   5.372   2.188  11.206
21984SOL    HW167849   5.357   2.238  11.287
21984SOL    HW267850   5.449   2.229  11.166
21985SOL     OW67851   4.028   0.421   7.844
21985SOL    HW167852   4.113   0.405   7.803
21985SOL    HW267853   4.049   0.448   7.934
21986SOL     OW67854   0.675  12.858   5.703
21986SOL    HW167855   0.731  12.788   5.670
21986SOL    HW267856   0.679  12.849   5.798
21987SOL     OW67857  13.083   2.618  14.623
21987SOL    HW167858  13.072   2.524  14.638
21987SOL    HW267859  13.001   2.646  14.584
21988SOL     OW67860   0.950   5.128  11.290
21988SOL    HW167861   0.941   5.134  11.195
21988SOL    HW267862   0.949   5.035  11.309
21989SOL     OW67863  14.014   0.524   4.264
21989SOL    HW167864  13.926   0.551   4.289
21989SOL    HW267865  14.072   0.587   4.307
21990SOL     OW67866  11.443  12.201  11.187
21990SOL    HW167867  11.396  12.130  11.143
21990SOL    HW267868  11.375  12.255  11.226
21991SOL     OW67869   9.415   6.527  10.568
21991SOL    HW167870   9.438   6.444  10.526
21991SOL    HW267871   9.481   6.589  10.537
21992SOL     OW67872   9.715  12.830  13.782
21992SOL    HW167873   9.809  12.830  13.767
21992SOL    HW267874   9.696  12.917  13.818
21993SOL     OW67875  14.703   1.534   2.958
21993SOL    HW167876  14.775   1.509   2.900
21993SOL    HW267877  14.635   1.470   2.940
21994SOL     OW67878   8.834   8.628  13.273
21994SOL    HW167879   8.757   8.630  13.329
21994SOL    HW267880   8.806   8.670  13.191
21995SOL     OW67881   9.348  14.382   8.061
21995SOL    HW167882   9.327  14.290   8.046
21995SOL    HW267883   9.375  14.414   7.975
21996SOL     OW67884  13.568  11.713  12.726
21996SOL    HW167885  13.558  11.807  12.720
21996SOL    HW267886  13.496  11.685  12.783
21997SOL     OW67887   9.050  14.668   3.660
21997SOL    HW167888   9.105  14.595   3.630
21997SOL    HW267889   9.008  14.701   3.581
21998SOL     OW67890   4.372   3.845   2.801
21998SOL    HW167891   4.315   3.888   2.737
21998SOL    HW267892   4.349   3.885   2.885
21999SOL     OW67893   5.410  10.582   0.908
21999SOL    HW167894   5.433  10.607   0.998
21999SOL    HW267895   5.349  10.510   0.917
22000SOL     OW67896  14.630  10.461  12.013
22000SOL    HW167897  14.582  10.425  11.938
22000SOL    HW267898  14.699  10.397  12.029
22001SOL     OW67899   3.648   7.192  10.730
22001SOL    HW167900   3.585   7.245  10.778
22001SOL    HW267901   3.638   7.103  10.764
22002SOL     OW67902   6.480   5.921   1.123
22002SOL    HW167903   6.574   5.936   1.136
22002SOL    HW267904   6.451   5.885   1.207
22003SOL     OW67905   9.177   5.320   7.480
22003SOL    HW167906   9.202   5.411   7.462
22003SOL    HW267907   9.260   5.272   7.475
22004SOL     OW67908   9.926  10.976  14.687
22004SOL    HW167909   9.999  11.019  14.731
22004SOL    HW267910   9.966  10.905  14.636
22005SOL     OW67911   8.421   0.076   8.018
22005SOL    HW167912   8.390   0.049   7.932
22005SOL    HW267913   8.416  14.869   8.072
22006SOL     OW67914  13.391  12.877   6.272
22006SOL    HW167915  13.382  12.789   6.310
22006SOL    HW267916  13.395  12.935   6.348
22007SOL     OW67917   4.460   7.246  10.547
22007SOL    HW167918   4.412   7.170  10.514
22007SOL    HW267919   4.543   7.210  10.578
22008SOL     OW67920  11.238   3.322   4.475
22008SOL    HW167921  11.324   3.313   4.433
22008SOL    HW267922  11.248   3.396   4.534
22009SOL     OW67923  11.005   9.559  13.984
22009SOL    HW167924  11.045   9.531  14.066
22009SOL    HW267925  11.077   9.555  13.920
22010SOL     OW67926   6.778   3.871   0.469
22010SOL    HW167927   6.747   3.783   0.491
22010SOL    HW267928   6.786   3.915   0.553
22011SOL     OW67929   6.629  10.695   0.596
22011SOL    HW167930   6.633  10.640   0.674
22011SOL    HW267931   6.699  10.758   0.607
22012SOL     OW67932   2.595   2.270  14.433
22012SOL    HW167933   2.641   2.332  14.489
22012SOL    HW267934   2.631   2.184  14.457
22013SOL     OW67935   9.274   0.709  13.877
22013SOL    HW167936   9.184   0.700  13.844
22013SOL    HW267937   9.278   0.798  13.910
22014SOL     OW67938   0.984   1.422  14.657
22014SOL    HW167939   1.066   1.432  14.609
22014SOL    HW267940   0.919   1.400  14.591
22015SOL     OW67941   1.041  14.476  11.197
22015SOL    HW167942   0.986  14.538  11.149
22015SOL    HW267943   0.990  14.453  11.274
22016SOL     OW67944   7.527   9.088  13.171
22016SOL    HW167945   7.597   9.152  13.183
22016SOL    HW267946   7.453   9.124  13.219
22017SOL     OW67947   7.897   7.054   3.058
22017SOL    HW167948   7.958   7.032   2.988
22017SOL    HW267949   7.855   7.135   3.028
22018SOL     OW67950   6.986   2.398  13.495
22018SOL    HW167951   7.065   2.357  13.531
22018SOL    HW267952   7.019   2.456  13.426
22019SOL     OW67953  11.278  13.424   8.695
22019SOL    HW167954  11.371  13.418   8.671
22019SOL    HW267955  11.232  13.392   8.617
22020SOL     OW67956   8.902   1.238   5.995
22020SOL    HW167957   8.965   1.309   6.004
22020SOL    HW267958   8.862   1.231   6.082
22021SOL     OW67959  11.953   3.110  10.057
22021SOL    HW167960  11.934   3.094   9.965
22021SOL    HW267961  11.964   3.022  10.094
22022SOL     OW67962  11.946  11.936   3.110
22022SOL    HW167963  11.876  11.988   3.071
22022SOL    HW267964  12.027  11.971   3.073
22023SOL     OW67965   9.542   2.719  12.982
22023SOL    HW167966   9.459   2.719  13.031
22023SOL    HW267967   9.603   2.766  13.039
22024SOL     OW67968   8.336   9.561   7.707
22024SOL    HW167969   8.334   9.648   7.668
22024SOL    HW267970   8.359   9.577   7.799
22025SOL     OW67971   7.527   2.769   1.832
22025SOL    HW167972   7.550   2.731   1.748
22025SOL    HW267973   7.461   2.835   1.811
22026SOL     OW67974   7.983   5.060   1.191
22026SOL    HW167975   7.910   5.018   1.236
22026SOL    HW267976   8.059   5.005   1.211
22027SOL     OW67977   8.610  10.182   3.960
22027SOL    HW167978   8.608  10.154   4.052
22027SOL    HW267979   8.528  10.229   3.948
22028SOL     OW67980   4.782   3.269   5.064
22028SOL    HW167981   4.833   3.249   5.142
22028SOL    HW267982   4.843   3.255   4.992
22029SOL     OW67983   4.540   5.440  12.958
22029SOL    HW167984   4.512   5.356  12.994
22029SOL    HW267985   4.567   5.420  12.869
22030SOL     OW67986   7.162   3.048   6.182
22030SOL    HW167987   7.075   3.010   6.169
22030SOL    HW267988   7.166   3.066   6.276
22031SOL     OW67989  11.925   0.863   0.972
22031SOL    HW167990  11.851   0.805   0.991
22031SOL    HW267991  11.967   0.823   0.895
22032SOL     OW67992   7.715   7.336   8.585
22032SOL    HW167993   7.694   7.350   8.678
22032SOL    HW267994   7.689   7.246   8.568
22033SOL     OW67995   3.094  13.298   9.445
22033SOL    HW167996   3.130  13.368   9.392
22033SOL    HW267997   3.050  13.240   9.383
22034SOL     OW67998   2.274   1.677   5.738
22034SOL    HW167999   2.192   1.631   5.757
22034SOL    HW268000   2.304   1.710   5.822
22035SOL     OW68001  14.184  13.468  11.120
22035SOL    HW168002  14.229  13.551  11.137
22035SOL    HW268003  14.115  13.464  11.186
22036SOL     OW68004  11.203  12.250  14.674
22036SOL    HW168005  11.253  12.170  14.655
22036SOL    HW268006  11.201  12.254  14.770
22037SOL     OW68007   2.695   2.914   7.910
22037SOL    HW168008   2.615   2.863   7.897
22037SOL    HW268009   2.726   2.888   7.997
22038SOL     OW68010   1.271  14.576   0.895
22038SOL    HW168011   1.184  14.600   0.865
22038SOL    HW268012   1.304  14.655   0.938
22039SOL     OW68013   8.663   3.144  13.548
22039SOL    HW168014   8.654   3.082  13.475
22039SOL    HW268015   8.574   3.153  13.583
22040SOL     OW68016   8.654   9.368   8.824
22040SOL    HW168017   8.725   9.426   8.797
22040SOL    HW268018   8.624   9.327   8.742
22041SOL     OW68019   6.604   4.044   1.964
22041SOL    HW168020   6.674   4.100   1.929
22041SOL    HW268021   6.629   4.029   2.055
22042SOL     OW68022   8.227   0.357   0.673
22042SOL    HW168023   8.293   0.418   0.642
22042SOL    HW268024   8.254   0.335   0.762
22043SOL     OW68025   7.509  10.064  14.362
22043SOL    HW168026   7.518  10.159  14.369
22043SOL    HW268027   7.543  10.031  14.445
22044SOL     OW68028   4.797  14.783  12.913
22044SOL    HW168029   4.835  14.744  12.835
22044SOL    HW268030   4.711  14.814  12.885
22045SOL     OW68031   9.653   3.642   2.421
22045SOL    HW168032   9.593   3.694   2.475
22045SOL    HW268033   9.597   3.600   2.357
22046SOL     OW68034   8.484   3.184   6.442
22046SOL    HW168035   8.491   3.141   6.357
22046SOL    HW268036   8.394   3.171   6.469
22047SOL     OW68037  14.380   4.611   1.325
22047SOL    HW168038  14.474   4.607   1.307
22047SOL    HW268039  14.355   4.702   1.304
22048SOL     OW68040   5.236   1.763  14.108
22048SOL    HW168041   5.206   1.835  14.053
22048SOL    HW268042   5.189   1.686  14.075
22049SOL     OW68043   1.440   9.199  14.755
22049SOL    HW168044   1.378   9.217  14.684
22049SOL    HW268045   1.488   9.121  14.726
22050SOL     OW68046   9.690  14.262   3.822
22050SOL    HW168047   9.668  14.354   3.842
22050SOL    HW268048   9.705  14.223   3.908
22051SOL     OW68049   2.574  11.887   1.461
22051SOL    HW168050   2.618  11.935   1.531
22051SOL    HW268051   2.527  11.954   1.411
22052SOL     OW68052   7.800   9.077   9.097
22052SOL    HW168053   7.706   9.062   9.088
22052SOL    HW268054   7.837   9.054   9.012
22053SOL     OW68055   4.261   0.636   8.259
22053SOL    HW168056   4.347   0.605   8.287
22053SOL    HW268057   4.278   0.689   8.181
22054SOL     OW68058   7.324   2.503   6.299
22054SOL    HW168059   7.367   2.527   6.217
22054SOL    HW268060   7.326   2.583   6.351
22055SOL     OW68061  11.181   2.333   4.362
22055SOL    HW168062  11.169   2.333   4.267
22055SOL    HW268063  11.215   2.246   4.382
22056SOL     OW68064  13.278   1.925  14.078
22056SOL    HW168065  13.297   1.835  14.106
22056SOL    HW268066  13.184   1.936  14.095
22057SOL     OW68067   9.603   2.708  12.337
22057SOL    HW168068   9.646   2.782  12.294
22057SOL    HW268069   9.551   2.667  12.268
22058SOL     OW68070  13.787   3.299  10.426
22058SOL    HW168071  13.864   3.285  10.371
22058SOL    HW268072  13.725   3.232  10.397
22059SOL     OW68073   3.919   0.031   9.681
22059SOL    HW168074   3.927   0.123   9.704
22059SOL    HW268075   3.858   0.030   9.607
22060SOL     OW68076   2.047   3.623   0.073
22060SOL    HW168077   2.038   3.685   0.145
22060SOL    HW268078   2.113   3.560   0.104
22061SOL     OW68079  12.617   4.454  12.716
22061SOL    HW168080  12.625   4.364  12.748
22061SOL    HW268081  12.707   4.482  12.701
22062SOL     OW68082   0.281   0.144  13.349
22062SOL    HW168083   0.350   0.087  13.385
22062SOL    HW268084   0.262   0.107  13.263
22063SOL     OW68085   5.634   0.587   3.693
22063SOL    HW168086   5.622   0.626   3.607
22063SOL    HW268087   5.727   0.597   3.712
22064SOL     OW68088   6.177   0.160  12.109
22064SOL    HW168089   6.117   0.114  12.052
22064SOL    HW268090   6.176   0.250  12.077
22065SOL     OW68091   7.623  10.618   3.657
22065SOL    HW168092   7.689  10.669   3.608
22065SOL    HW268093   7.640  10.640   3.749
22066SOL     OW68094  11.996   6.396   5.063
22066SOL    HW168095  12.005   6.460   4.992
22066SOL    HW268096  12.046   6.320   5.033
22067SOL     OW68097  13.671   4.588   9.189
22067SOL    HW168098  13.675   4.541   9.272
22067SOL    HW268099  13.710   4.673   9.208
22068SOL     OW68100   6.047   7.550   4.305
22068SOL    HW168101   6.001   7.466   4.307
22068SOL    HW268102   5.988   7.610   4.351
22069SOL     OW68103   6.225  12.645   0.262
22069SOL    HW168104   6.297  12.699   0.297
22069SOL    HW268105   6.258  12.615   0.177
22070SOL     OW68106   1.128  11.178   2.176
22070SOL    HW168107   1.154  11.227   2.254
22070SOL    HW268108   1.205  11.180   2.119
22071SOL     OW68109   8.589   9.952   8.703
22071SOL    HW168110   8.630  10.030   8.667
22071SOL    HW268111   8.618   9.950   8.794
22072SOL     OW68112   3.557  10.472  12.088
22072SOL    HW168113   3.544  10.379  12.108
22072SOL    HW268114   3.599  10.473  12.002
22073SOL     OW68115   3.675   3.546  14.442
22073SOL    HW168116   3.592   3.562  14.488
22073SOL    HW268117   3.720   3.631  14.445
22074SOL     OW68118   5.697  12.598   0.471
22074SOL    HW168119   5.702  12.517   0.420
22074SOL    HW268120   5.642  12.576   0.546
22075SOL     OW68121   9.658  12.097   4.854
22075SOL    HW168122   9.583  12.056   4.812
22075SOL    HW268123   9.661  12.186   4.819
22076SOL     OW68124  13.579   0.833   0.870
22076SOL    HW168125  13.597   0.740   0.884
22076SOL    HW268126  13.602   0.874   0.953
22077SOL     OW68127   2.500   6.432   9.854
22077SOL    HW168128   2.569   6.495   9.833
22077SOL    HW268129   2.432   6.449   9.788
22078SOL     OW68130  11.508   1.656  13.878
22078SOL    HW168131  11.444   1.601  13.923
22078SOL    HW268132  11.458   1.732  13.849
22079SOL     OW68133   6.982  12.539   6.411
22079SOL    HW168134   6.961  12.537   6.317
22079SOL    HW268135   6.896  12.534   6.454
22080SOL     OW68136  13.345   7.557   6.387
22080SOL    HW168137  13.370   7.468   6.409
22080SOL    HW268138  13.428   7.604   6.379
22081SOL     OW68139  14.594   7.733   2.001
22081SOL    HW168140  14.569   7.758   2.090
22081SOL    HW268141  14.574   7.640   1.995
22082SOL     OW68142   3.321   5.443   8.978
22082SOL    HW168143   3.371   5.483   8.907
22082SOL    HW268144   3.339   5.498   9.054
22083SOL     OW68145   3.947  14.469   0.102
22083SOL    HW168146   3.967  14.379   0.128
22083SOL    HW268147   3.871  14.461   0.043
22084SOL     OW68148   0.479   9.551   9.737
22084SOL    HW168149   0.482   9.638   9.698
22084SOL    HW268150   0.410   9.556   9.803
22085SOL     OW68151  11.880   0.690   2.217
22085SOL    HW168152  11.827   0.643   2.281
22085SOL    HW268153  11.849   0.780   2.221
22086SOL     OW68154   4.143   7.918  10.896
22086SOL    HW168155   4.093   7.957  10.968
22086SOL    HW268156   4.136   7.981  10.824
22087SOL     OW68157   0.088  14.665   6.971
22087SOL    HW168158   0.121  14.577   6.955
22087SOL    HW268159   0.093  14.676   7.066
22088SOL     OW68160   5.665   7.764   3.959
22088SOL    HW168161   5.704   7.839   4.003
22088SOL    HW268162   5.573   7.765   3.988
22089SOL     OW68163  11.083  14.637   1.924
22089SOL    HW168164  11.119  14.571   1.864
22089SOL    HW268165  10.989  14.636   1.906
22090SOL     OW68166   1.391   3.725   2.143
22090SOL    HW168167   1.347   3.770   2.072
22090SOL    HW268168   1.482   3.717   2.114
22091SOL     OW68169  12.847  10.537   8.941
22091SOL    HW168170  12.771  10.537   8.999
22091SOL    HW268171  12.920  10.564   8.996
22092SOL     OW68172  13.797   7.343  13.936
22092SOL    HW168173  13.880   7.367  13.977
22092SOL    HW268174  13.730   7.381  13.992
22093SOL     OW68175   8.528  13.541   3.456
22093SOL    HW168176   8.545  13.635   3.449
22093SOL    HW268177   8.536  13.508   3.367
22094SOL     OW68178   1.726   9.356  10.567
22094SOL    HW168179   1.686   9.269  10.570
22094SOL    HW268180   1.722   9.381  10.475
22095SOL     OW68181   4.805   9.456   9.747
22095SOL    HW168182   4.814   9.442   9.842
22095SOL    HW268183   4.724   9.412   9.724
22096SOL     OW68184   5.179   4.878   2.064
22096SOL    HW168185   5.232   4.958   2.059
22096SOL    HW268186   5.244   4.807   2.068
22097SOL     OW68187   9.105  12.029   9.509
22097SOL    HW168188   9.139  11.979   9.435
22097SOL    HW268189   9.018  12.057   9.481
22098SOL     OW68190   8.259   9.726   4.634
22098SOL    HW168191   8.201   9.704   4.707
22098SOL    HW268192   8.342   9.749   4.676
22099SOL     OW68193   3.922   2.700  12.510
22099SOL    HW168194   3.832   2.719  12.537
22099SOL    HW268195   3.971   2.780  12.528
22100SOL     OW68196   9.499  11.691   1.229
22100SOL    HW168197   9.536  11.615   1.184
22100SOL    HW268198   9.432  11.725   1.169
22101SOL     OW68199   0.440   5.300   5.086
22101SOL    HW168200   0.519   5.269   5.041
22101SOL    HW268201   0.406   5.223   5.131
22102SOL     OW68202  12.868   3.560   4.237
22102SOL    HW168203  12.894   3.622   4.304
22102SOL    HW268204  12.951   3.529   4.198
22103SOL     OW68205   4.869   1.437   1.712
22103SOL    HW168206   4.876   1.431   1.807
22103SOL    HW268207   4.924   1.366   1.679
22104SOL     OW68208   7.566   1.210   0.268
22104SOL    HW168209   7.563   1.187   0.361
22104SOL    HW268210   7.516   1.292   0.262
22105SOL     OW68211  12.846   5.901  11.643
22105SOL    HW168212  12.765   5.905  11.693
22105SOL    HW268213  12.913   5.874  11.707
22106SOL     OW68214  10.998  12.750   8.365
22106SOL    HW168215  10.955  12.835   8.374
22106SOL    HW268216  10.934  12.686   8.397
22107SOL     OW68217   7.234  12.998  12.624
22107SOL    HW168218   7.182  13.023  12.700
22107SOL    HW268219   7.249  13.080  12.578
22108SOL     OW68220   4.224   3.788   9.830
22108SOL    HW168221   4.226   3.741   9.914
22108SOL    HW268222   4.133   3.813   9.819
22109SOL     OW68223   8.726  13.227  13.990
22109SOL    HW168224   8.771  13.160  13.939
22109SOL    HW268225   8.641  13.237  13.947
22110SOL     OW68226   1.217   0.271   9.950
22110SOL    HW168227   1.185   0.239  10.034
22110SOL    HW268228   1.147   0.328   9.918
22111SOL     OW68229  11.183   6.631  11.518
22111SOL    HW168230  11.226   6.699  11.466
22111SOL    HW268231  11.090   6.643  11.500
22112SOL     OW68232   8.161  12.162   9.904
22112SOL    HW168233   8.100  12.234   9.920
22112SOL    HW268234   8.174  12.122   9.990
22113SOL     OW68235  12.820  13.188  11.857
22113SOL    HW168236  12.798  13.235  11.776
22113SOL    HW268237  12.891  13.129  11.832
22114SOL     OW68238  11.279  12.845  14.720
22114SOL    HW168239  11.335  12.780  14.762
22114SOL    HW268240  11.229  12.884  14.791
22115SOL     OW68241   0.993  11.696  11.316
22115SOL    HW168242   1.071  11.752  11.317
22115SOL    HW268243   0.984  11.669  11.225
22116SOL     OW68244  11.647   0.936   6.353
22116SOL    HW168245  11.677   0.845   6.356
22116SOL    HW268246  11.552   0.929   6.343
22117SOL     OW68247  10.328  11.835   2.155
22117SOL    HW168248  10.333  11.890   2.233
22117SOL    HW268249  10.419  11.818   2.131
22118SOL     OW68250   1.276  14.600   4.228
22118SOL    HW168251   1.331  14.677   4.218
22118SOL    HW268252   1.227  14.594   4.146
22119SOL     OW68253  14.262  14.325   6.196
22119SOL    HW168254  14.334  14.364   6.147
22119SOL    HW268255  14.301  14.254   6.246
22120SOL     OW68256  10.999  10.582   6.292
22120SOL    HW168257  11.062  10.510   6.283
22120SOL    HW268258  11.011  10.634   6.212
22121SOL     OW68259   1.230   7.851   3.702
22121SOL    HW168260   1.163   7.909   3.665
22121SOL    HW268261   1.258   7.796   3.629
22122SOL     OW68262   8.694   9.330   0.346
22122SOL    HW168263   8.663   9.313   0.435
22122SOL    HW268264   8.730   9.246   0.317
22123SOL     OW68265   9.740  10.454   7.086
22123SOL    HW168266   9.739  10.404   7.005
22123SOL    HW268267   9.656  10.499   7.089
22124SOL     OW68268  13.792   1.861  10.161
22124SOL    HW168269  13.787   1.841  10.068
22124SOL    HW268270  13.779   1.776  10.204
22125SOL     OW68271   8.200  13.847   9.278
22125SOL    HW168272   8.242  13.810   9.356
22125SOL    HW268273   8.128  13.900   9.313
22126SOL     OW68274   1.771   9.130  14.627
22126SOL    HW168275   1.721   9.082  14.562
22126SOL    HW268276   1.788   9.215  14.587
22127SOL     OW68277   8.561  13.787  13.169
22127SOL    HW168278   8.587  13.724  13.101
22127SOL    HW268279   8.604  13.755  13.248
22128SOL     OW68280   3.531   2.027   6.731
22128SOL    HW168281   3.463   2.066   6.676
22128SOL    HW268282   3.541   2.088   6.805
22129SOL     OW68283   7.359   6.745  13.966
22129SOL    HW168284   7.314   6.665  13.994
22129SOL    HW268285   7.338   6.753  13.873
22130SOL     OW68286   2.613  11.565   7.260
22130SOL    HW168287   2.645  11.604   7.179
22130SOL    HW268288   2.539  11.620   7.286
22131SOL     OW68289   4.010   3.809   6.254
22131SOL    HW168290   4.087   3.783   6.303
22131SOL    HW268291   3.996   3.737   6.192
22132SOL     OW68292   1.168   0.691  10.396
22132SOL    HW168293   1.138   0.673  10.484
22132SOL    HW268294   1.178   0.786  10.392
22133SOL     OW68295   9.194  11.897   6.431
22133SOL    HW168296   9.234  11.814   6.455
22133SOL    HW268297   9.114  11.901   6.485
22134SOL     OW68298  13.441  13.159   6.007
22134SOL    HW168299  13.469  13.068   6.016
22134SOL    HW268300  13.408  13.165   5.918
22135SOL     OW68301  11.140  14.468  11.800
22135SOL    HW168302  11.206  14.501  11.862
22135SOL    HW268303  11.068  14.531  11.807
22136SOL     OW68304  10.829  11.290  11.467
22136SOL    HW168305  10.889  11.307  11.540
22136SOL    HW268306  10.811  11.377  11.430
22137SOL     OW68307   0.782  10.637  11.582
22137SOL    HW168308   0.849  10.687  11.534
22137SOL    HW268309   0.828  10.559  11.613
22138SOL     OW68310   7.657   4.464   8.582
22138SOL    HW168311   7.599   4.468   8.506
22138SOL    HW268312   7.703   4.381   8.573
22139SOL     OW68313   4.787   1.439   0.769
22139SOL    HW168314   4.784   1.346   0.747
22139SOL    HW268315   4.751   1.444   0.858
22140SOL     OW68316   1.533   1.704   4.469
22140SOL    HW168317   1.618   1.734   4.437
22140SOL    HW268318   1.500   1.777   4.521
22141SOL     OW68319  11.875   6.559   0.778
22141SOL    HW168320  11.941   6.564   0.848
22141SOL    HW268321  11.924   6.529   0.701
22142SOL     OW68322  13.348  10.947   1.201
22142SOL    HW168323  13.332  10.915   1.290
22142SOL    HW268324  13.300  11.029   1.196
22143SOL     OW68325  14.109  14.809   1.950
22143SOL    HW168326  14.115  14.715   1.930
22143SOL    HW268327  14.015  14.828   1.946
22144SOL     OW68328   9.324   5.045   9.403
22144SOL    HW168329   9.416   5.066   9.389
22144SOL    HW268330   9.301   4.986   9.331
22145SOL     OW68331   5.518   3.266  11.705
22145SOL    HW168332   5.575   3.328  11.751
22145SOL    HW268333   5.579   3.199  11.672
22146SOL     OW68334   3.442   9.316  10.046
22146SOL    HW168335   3.435   9.227  10.011
22146SOL    HW268336   3.442   9.372   9.968
22147SOL     OW68337   2.745   9.312   3.101
22147SOL    HW168338   2.692   9.283   3.027
22147SOL    HW268339   2.687   9.369   3.151
22148SOL     OW68340  14.136   5.199  10.717
22148SOL    HW168341  14.045   5.187  10.745
22148SOL    HW268342  14.182   5.121  10.748
22149SOL     OW68343  12.885   6.176  12.350
22149SOL    HW168344  12.796   6.196  12.379
22149SOL    HW268345  12.874   6.103  12.288
22150SOL     OW68346   9.143   7.727  13.130
22150SOL    HW168347   9.130   7.729  13.035
22150SOL    HW268348   9.055   7.713  13.166
22151SOL     OW68349  11.099   3.322  10.653
22151SOL    HW168350  11.121   3.296  10.563
22151SOL    HW268351  11.006   3.345  10.650
22152SOL     OW68352   1.964  14.560  11.189
22152SOL    HW168353   1.868  14.561  11.183
22152SOL    HW268354   1.988  14.653  11.192
22153SOL     OW68355   8.095   2.675   3.630
22153SOL    HW168356   8.113   2.597   3.577
22153SOL    HW268357   8.037   2.728   3.576
22154SOL     OW68358   5.731   8.058   5.532
22154SOL    HW168359   5.772   8.145   5.539
22154SOL    HW268360   5.640   8.073   5.556
22155SOL     OW68361   5.188  11.120   7.813
22155SOL    HW168362   5.234  11.095   7.733
22155SOL    HW268363   5.244  11.086   7.884
22156SOL     OW68364   1.513  12.983  12.759
22156SOL    HW168365   1.417  12.983  12.753
22156SOL    HW268366   1.535  13.069  12.796
22157SOL     OW68367   1.219   5.153   1.540
22157SOL    HW168368   1.287   5.133   1.476
22157SOL    HW268369   1.234   5.245   1.562
22158SOL     OW68370  12.917   4.642  10.488
22158SOL    HW168371  12.907   4.726  10.533
22158SOL    HW268372  12.929   4.666  10.396
22159SOL     OW68373  10.852   7.592   8.773
22159SOL    HW168374  10.819   7.509   8.806
22159SOL    HW268375  10.931   7.570   8.724
22160SOL     OW68376   3.806   7.293   5.857
22160SOL    HW168377   3.785   7.199   5.860
22160SOL    HW268378   3.823   7.316   5.948
22161SOL     OW68379  12.088  12.987  10.342
22161SOL    HW168380  12.159  12.938  10.299
22161SOL    HW268381  12.134  13.055  10.393
22162SOL     OW68382  13.248   0.847   6.699
22162SOL    HW168383  13.323   0.901   6.674
22162SOL    HW268384  13.258   0.767   6.648
22163SOL     OW68385   4.140   0.697   7.478
22163SOL    HW168386   4.082   0.621   7.480
22163SOL    HW268387   4.218   0.668   7.431
22164SOL     OW68388   5.901  11.863   7.094
22164SOL    HW168389   5.840  11.901   7.157
22164SOL    HW268390   5.955  11.936   7.065
22165SOL     OW68391   1.054  13.621   0.317
22165SOL    HW168392   1.080  13.582   0.401
22165SOL    HW268393   1.036  13.545   0.261
22166SOL     OW68394   0.910   5.420   7.514
22166SOL    HW168395   0.839   5.478   7.488
22166SOL    HW268396   0.986   5.477   7.522
22167SOL     OW68397   8.183   4.187   5.102
22167SOL    HW168398   8.114   4.234   5.054
22167SOL    HW268399   8.264   4.226   5.069
22168SOL     OW68400   6.676  11.426  14.659
22168SOL    HW168401   6.733  11.432  14.582
22168SOL    HW268402   6.636  11.512  14.666
22169SOL     OW68403   9.633  11.514   7.568
22169SOL    HW168404   9.555  11.520   7.512
22169SOL    HW268405   9.598  11.490   7.654
22170SOL     OW68406   8.488   6.101   5.598
22170SOL    HW168407   8.463   6.183   5.642
22170SOL    HW268408   8.411   6.045   5.606
22171SOL     OW68409   0.202   9.758   5.222
22171SOL    HW168410   0.263   9.814   5.173
22171SOL    HW268411   0.235   9.759   5.311
22172SOL     OW68412  11.591   2.950   0.538
22172SOL    HW168413  11.680   2.980   0.559
22172SOL    HW268414  11.602   2.888   0.467
22173SOL     OW68415  12.220   8.561   6.008
22173SOL    HW168416  12.315   8.560   6.017
22173SOL    HW268417  12.198   8.653   5.993
22174SOL     OW68418  12.009   8.721   9.081
22174SOL    HW168419  11.989   8.798   9.133
22174SOL    HW268420  12.061   8.755   9.008
22175SOL     OW68421   1.371   6.702   1.835
22175SOL    HW168422   1.398   6.683   1.925
22175SOL    HW268423   1.376   6.797   1.829
22176SOL     OW68424  10.974   1.965  12.501
22176SOL    HW168425  10.893   1.997  12.542
22176SOL    HW268426  11.044   1.995  12.560
22177SOL     OW68427   1.810   4.924   6.632
22177SOL    HW168428   1.731   4.974   6.655
22177SOL    HW268429   1.811   4.851   6.694
22178SOL     OW68430   2.913   6.077   3.621
22178SOL    HW168431   3.007   6.095   3.621
22178SOL    HW268432   2.877   6.139   3.685
22179SOL     OW68433   8.971  13.439   5.155
22179SOL    HW168434   8.925  13.505   5.104
22179SOL    HW268435   8.991  13.483   5.238
22180SOL     OW68436   7.619  10.070   1.898
22180SOL    HW168437   7.678  10.023   1.957
22180SOL    HW268438   7.569  10.000   1.855
22181SOL     OW68439   6.493   6.560  13.739
22181SOL    HW168440   6.513   6.608  13.819
22181SOL    HW268441   6.526   6.471  13.755
22182SOL     OW68442   2.014   3.708   7.344
22182SOL    HW168443   1.926   3.687   7.314
22182SOL    HW268444   2.072   3.670   7.277
22183SOL     OW68445  12.853   9.815   3.370
22183SOL    HW168446  12.852   9.896   3.420
22183SOL    HW268447  12.793   9.757   3.416
22184SOL     OW68448   4.533   3.870  14.188
22184SOL    HW168449   4.446   3.833  14.200
22184SOL    HW268450   4.567   3.880  14.277
22185SOL     OW68451   5.125   2.173  14.412
22185SOL    HW168452   5.051   2.207  14.463
22185SOL    HW268453   5.171   2.252  14.382
22186SOL     OW68454   8.913   1.785   1.102
22186SOL    HW168455   8.998   1.754   1.068
22186SOL    HW268456   8.930   1.804   1.194
22187SOL     OW68457   5.013   2.274  12.212
22187SOL    HW168458   5.081   2.279  12.279
22187SOL    HW268459   5.059   2.250  12.132
22188SOL     OW68460   6.567   2.514  11.521
22188SOL    HW168461   6.473   2.506  11.505
22188SOL    HW268462   6.581   2.607  11.534
22189SOL     OW68463   1.809   1.281   3.507
22189SOL    HW168464   1.798   1.214   3.575
22189SOL    HW268465   1.727   1.330   3.508
22190SOL     OW68466   8.129   5.742   6.688
22190SOL    HW168467   8.068   5.791   6.634
22190SOL    HW268468   8.215   5.762   6.651
22191SOL     OW68469   4.485   9.759   8.477
22191SOL    HW168470   4.485   9.663   8.472
22191SOL    HW268471   4.539   9.779   8.553
22192SOL     OW68472   2.844   3.186   1.758
22192SOL    HW168473   2.883   3.099   1.766
22192SOL    HW268474   2.881   3.236   1.831
22193SOL     OW68475   4.705   4.794   7.882
22193SOL    HW168476   4.794   4.806   7.914
22193SOL    HW268477   4.709   4.716   7.827
22194SOL     OW68478   8.241   2.100   1.614
22194SOL    HW168479   8.281   2.183   1.639
22194SOL    HW268480   8.256   2.094   1.519
22195SOL     OW68481  14.434  10.094   1.016
22195SOL    HW168482  14.499  10.140   0.963
22195SOL    HW268483  14.382  10.046   0.952
22196SOL     OW68484  11.739  12.733   9.097
22196SOL    HW168485  11.657  12.720   9.050
22196SOL    HW268486  11.713  12.745   9.188
22197SOL     OW68487  10.604   5.178  11.642
22197SOL    HW168488  10.650   5.260  11.626
22197SOL    HW268489  10.579   5.148  11.554
22198SOL     OW68490   2.086   4.890   2.339
22198SOL    HW168491   2.067   4.984   2.342
22198SOL    HW268492   2.078   4.868   2.246
22199SOL     OW68493   9.294   9.333  13.829
22199SOL    HW168494   9.271   9.336  13.922
22199SOL    HW268495   9.244   9.258  13.795
22200SOL     OW68496  13.654   0.345   3.331
22200SOL    HW168497  13.729   0.299   3.293
22200SOL    HW268498  13.690   0.427   3.366
22201SOL     OW68499  13.422  11.160   2.044
22201SOL    HW168500  13.375  11.083   2.075
22201SOL    HW268501  13.411  11.159   1.949
22202SOL     OW68502   2.698  12.180   4.698
22202SOL    HW168503   2.711  12.101   4.645
22202SOL    HW268504   2.736  12.158   4.783
22203SOL     OW68505   2.164   5.954   9.106
22203SOL    HW168506   2.211   5.888   9.056
22203SOL    HW268507   2.072   5.939   9.086
22204SOL     OW68508   5.618   2.833  14.495
22204SOL    HW168509   5.525   2.816  14.479
22204SOL    HW268510   5.635   2.797  14.582
22205SOL     OW68511   3.588  12.219   9.441
22205SOL    HW168512   3.513  12.181   9.396
22205SOL    HW268513   3.554  12.249   9.525
22206SOL     OW68514   8.712  11.499   5.318
22206SOL    HW168515   8.726  11.426   5.258
22206SOL    HW268516   8.756  11.473   5.399
22207SOL     OW68517   7.191  12.439  10.329
22207SOL    HW168518   7.179  12.525  10.368
22207SOL    HW268519   7.109  12.393  10.347
22208SOL     OW68520  13.292   8.340   4.139
22208SOL    HW168521  13.286   8.265   4.080
22208SOL    HW268522  13.370   8.324   4.191
22209SOL     OW68523   8.160   1.164   6.356
22209SOL    HW168524   8.092   1.163   6.288
22209SOL    HW268525   8.242   1.165   6.306
22210SOL     OW68526   9.705   1.524   1.825
22210SOL    HW168527   9.643   1.469   1.777
22210SOL    HW268528   9.791   1.487   1.802
22211SOL     OW68529   0.345   4.017  11.296
22211SOL    HW168530   0.406   3.948  11.270
22211SOL    HW268531   0.309   3.987  11.379
22212SOL     OW68532   3.328   7.295   1.680
22212SOL    HW168533   3.245   7.254   1.658
22212SOL    HW268534   3.306   7.386   1.700
22213SOL     OW68535  12.110  11.918   5.368
22213SOL    HW168536  12.057  11.932   5.446
22213SOL    HW268537  12.186  11.975   5.381
22214SOL     OW68538  10.090   1.419   1.082
22214SOL    HW168539  10.067   1.394   1.172
22214SOL    HW268540  10.185   1.422   1.081
22215SOL     OW68541   1.076   8.228  12.504
22215SOL    HW168542   1.001   8.169  12.493
22215SOL    HW268543   1.069   8.288  12.430
22216SOL     OW68544   5.230   9.719   7.261
22216SOL    HW168545   5.307   9.662   7.260
22216SOL    HW268546   5.264   9.805   7.235
22217SOL     OW68547  12.759   8.205  10.625
22217SOL    HW168548  12.761   8.285  10.677
22217SOL    HW268549  12.811   8.142  10.674
22218SOL     OW68550  14.619   7.089   4.820
22218SOL    HW168551  14.557   7.056   4.885
22218SOL    HW268552  14.578   7.070   4.736
22219SOL     OW68553  11.913   9.924   4.841
22219SOL    HW168554  11.820   9.912   4.825
22219SOL    HW268555  11.923   9.908   4.935
22220SOL     OW68556  12.661   5.647   3.549
22220SOL    HW168557  12.610   5.578   3.591
22220SOL    HW268558  12.669   5.714   3.617
22221SOL     OW68559  11.882   4.921  13.765
22221SOL    HW168560  11.902   4.830  13.788
22221SOL    HW268561  11.961   4.954  13.723
22222SOL     OW68562  12.760  13.677   0.539
22222SOL    HW168563  12.786  13.735   0.610
22222SOL    HW268564  12.696  13.618   0.579
22223SOL     OW68565  13.590  12.385   4.052
22223SOL    HW168566  13.639  12.308   4.022
22223SOL    HW268567  13.632  12.459   4.010
22224SOL     OW68568   4.576   4.026  13.969
22224SOL    HW168569   4.525   3.967  14.025
22224SOL    HW268570   4.540   4.113  13.985
22225SOL     OW68571   5.044   2.460   6.020
22225SOL    HW168572   5.056   2.430   5.930
22225SOL    HW268573   5.126   2.504   6.042
22226SOL     OW68574   3.042  10.091   5.912
22226SOL    HW168575   2.995  10.150   5.971
22226SOL    HW268576   3.106  10.147   5.868
22227SOL     OW68577   0.189   5.921   1.980
22227SOL    HW168578   0.270   5.873   1.965
22227SOL    HW268579   0.120   5.861   1.948
22228SOL     OW68580  13.266   2.497   2.603
22228SOL    HW168581  13.266   2.546   2.520
22228SOL    HW268582  13.201   2.428   2.589
22229SOL     OW68583  12.307   7.881   3.442
22229SOL    HW168584  12.363   7.943   3.488
22229SOL    HW268585  12.230   7.870   3.498
22230SOL     OW68586   8.925   0.091   0.329
22230SOL    HW168587   9.004   0.125   0.372
22230SOL    HW268588   8.915   0.145   0.251
22231SOL     OW68589  12.449   3.148   6.453
22231SOL    HW168590  12.523   3.179   6.400
22231SOL    HW268591  12.436   3.217   6.519
22232SOL     OW68592   2.324   1.447   6.016
22232SOL    HW168593   2.290   1.405   6.096
22232SOL    HW268594   2.403   1.493   6.045
22233SOL     OW68595   6.769   4.301  13.413
22233SOL    HW168596   6.687   4.281  13.458
22233SOL    HW268597   6.743   4.326  13.325
22234SOL     OW68598   4.156   7.547  14.483
22234SOL    HW168599   4.184   7.548  14.575
22234SOL    HW268600   4.188   7.630  14.447
22235SOL     OW68601   8.077   8.767   8.335
22235SOL    HW168602   8.012   8.727   8.392
22235SOL    HW268603   8.157   8.715   8.350
22236SOL     OW68604   8.408  11.663   1.031
22236SOL    HW168605   8.500  11.689   1.037
22236SOL    HW268606   8.385  11.679   0.940
22237SOL     OW68607   8.266   7.750   7.569
22237SOL    HW168608   8.286   7.824   7.511
22237SOL    HW268609   8.174   7.732   7.553
22238SOL     OW68610   6.199  12.098  12.982
22238SOL    HW168611   6.205  12.003  12.968
22238SOL    HW268612   6.289  12.125  13.001
22239SOL     OW68613  11.268   7.769  11.481
22239SOL    HW168614  11.298   7.847  11.527
22239SOL    HW268615  11.274   7.792  11.388
22240SOL     OW68616   7.381   5.433   4.476
22240SOL    HW168617   7.336   5.349   4.465
22240SOL    HW268618   7.345   5.488   4.407
22241SOL     OW68619   7.744   0.857   6.936
22241SOL    HW168620   7.712   0.810   7.013
22241SOL    HW268621   7.781   0.938   6.971
22242SOL     OW68622   6.730   6.356   0.890
22242SOL    HW168623   6.769   6.270   0.875
22242SOL    HW268624   6.636   6.338   0.897
22243SOL     OW68625   9.108  11.948   5.781
22243SOL    HW168626   9.198  11.925   5.806
22243SOL    HW268627   9.058  11.868   5.798
22244SOL     OW68628   9.705   0.161   6.891
22244SOL    HW168629   9.691   0.077   6.849
22244SOL    HW268630   9.785   0.195   6.851
22245SOL     OW68631   0.796  12.177   7.216
22245SOL    HW168632   0.849  12.256   7.229
22245SOL    HW268633   0.845  12.108   7.261
22246SOL     OW68634   7.072   7.971  11.655
22246SOL    HW168635   7.058   7.879  11.678
22246SOL    HW268636   7.164   7.976  11.631
22247SOL     OW68637   0.120   4.005  13.873
22247SOL    HW168638   0.127   4.089  13.917
22247SOL    HW268639   0.058   4.019  13.802
22248SOL     OW68640   8.921  10.256  13.996
22248SOL    HW168641   8.879  10.326  14.046
22248SOL    HW268642   8.852  10.224  13.938
22249SOL     OW68643   6.887   0.213  11.090
22249SOL    HW168644   6.901   0.147  11.022
22249SOL    HW268645   6.795   0.235  11.084
22250SOL     OW68646   9.579   9.769   0.954
22250SOL    HW168647   9.594   9.835   1.022
22250SOL    HW268648   9.552   9.691   1.002
22251SOL     OW68649   4.985   0.089   4.446
22251SOL    HW168650   5.053   0.052   4.390
22251SOL    HW268651   4.963   0.173   4.405
22252SOL     OW68652   1.646   1.486  11.768
22252SOL    HW168653   1.573   1.425  11.772
22252SOL    HW268654   1.715   1.438  11.723
22253SOL     OW68655   9.646  10.593  11.885
22253SOL    HW168656   9.571  10.611  11.828
22253SOL    HW268657   9.714  10.563  11.825
22254SOL     OW68658   0.738   4.950   5.626
22254SOL    HW168659   0.802   5.001   5.576
22254SOL    HW268660   0.777   4.941   5.713
22255SOL     OW68661   8.185  12.536  12.396
22255SOL    HW168662   8.091  12.519  12.397
22255SOL    HW268663   8.217  12.497  12.478
22256SOL     OW68664  10.455  14.315   0.544
22256SOL    HW168665  10.375  14.279   0.582
22256SOL    HW268666  10.432  14.404   0.518
22257SOL     OW68667   9.320   6.037   3.460
22257SOL    HW168668   9.300   5.943   3.465
22257SOL    HW268669   9.380   6.045   3.385
22258SOL     OW68670   0.708   2.160   1.219
22258SOL    HW168671   0.663   2.164   1.304
22258SOL    HW268672   0.685   2.073   1.184
22259SOL     OW68673   6.498   7.034  13.608
22259SOL    HW168674   6.491   6.987  13.691
22259SOL    HW268675   6.413   7.020  13.566
22260SOL     OW68676  11.693   4.643   2.113
22260SOL    HW168677  11.644   4.599   2.182
22260SOL    HW268678  11.774   4.593   2.106
22261SOL     OW68679   9.301  14.390   0.280
22261SOL    HW168680   9.251  14.313   0.308
22261SOL    HW268681   9.279  14.400   0.187
22262SOL     OW68682   4.771  12.474   6.658
22262SOL    HW168683   4.684  12.510   6.644
22262SOL    HW268684   4.759  12.406   6.724
22263SOL     OW68685   9.863  13.578  14.846
22263SOL    HW168686   9.887  13.496   0.016
22263SOL    HW268687   9.792  13.555  14.786
22264SOL     OW68688   4.888   3.039   2.642
22264SOL    HW168689   4.905   2.984   2.719
22264SOL    HW268690   4.798   3.018   2.617
22265SOL     OW68691  12.042   8.598   8.489
22265SOL    HW168692  11.968   8.567   8.436
22265SOL    HW268693  12.013   8.584   8.580
22266SOL     OW68694   7.166   2.829   3.129
22266SOL    HW168695   7.097   2.835   3.196
22266SOL    HW268696   7.158   2.740   3.094
22267SOL     OW68697   8.174   7.187  11.066
22267SOL    HW168698   8.169   7.267  11.118
22267SOL    HW268699   8.268   7.170  11.056
22268SOL     OW68700  14.240  14.340  11.451
22268SOL    HW168701  14.286  14.412  11.495
22268SOL    HW268702  14.194  14.294  11.522
22269SOL     OW68703   0.614   2.924  13.152
22269SOL    HW168704   0.583   2.902  13.240
22269SOL    HW268705   0.555   2.992  13.121
22270SOL     OW68706   3.161  11.469  14.632
22270SOL    HW168707   3.106  11.545  14.648
22270SOL    HW268708   3.180  11.473  14.538
22271SOL     OW68709   4.713   7.350   0.128
22271SOL    HW168710   4.695   7.408   0.202
22271SOL    HW268711   4.626   7.323   0.097
22272SOL     OW68712   9.158  12.408   5.171
22272SOL    HW168713   9.079  12.421   5.118
22272SOL    HW268714   9.132  12.437   5.259
22273SOL     OW68715  13.366   9.545   1.585
22273SOL    HW168716  13.384   9.463   1.630
22273SOL    HW268717  13.408   9.612   1.639
22274SOL     OW68718   9.844   9.751  12.715
22274SOL    HW168719   9.894   9.670  12.707
22274SOL    HW268720   9.752   9.723  12.712
22275SOL     OW68721   9.105   8.222   6.025
22275SOL    HW168722   9.080   8.139   5.984
22275SOL    HW268723   9.021   8.264   6.046
22276SOL     OW68724   9.360   0.588  11.756
22276SOL    HW168725   9.330   0.599  11.846
22276SOL    HW268726   9.456   0.593  11.762
22277SOL     OW68727   6.127   8.918  10.099
22277SOL    HW168728   6.119   8.887  10.008
22277SOL    HW268729   6.074   8.998  10.101
22278SOL     OW68730   9.659  14.291   2.769
22278SOL    HW168731   9.634  14.204   2.800
22278SOL    HW268732   9.669  14.343   2.849
22279SOL     OW68733   4.782   1.700   4.761
22279SOL    HW168734   4.872   1.695   4.794
22279SOL    HW268735   4.766   1.615   4.721
22280SOL     OW68736   2.211   1.302   6.834
22280SOL    HW168737   2.182   1.337   6.750
22280SOL    HW268738   2.132   1.262   6.872
22281SOL     OW68739   8.840   1.911   2.203
22281SOL    HW168740   8.901   1.975   2.239
22281SOL    HW268741   8.777   1.962   2.153
22282SOL     OW68742  11.948   0.454   4.503
22282SOL    HW168743  11.958   0.360   4.520
22282SOL    HW268744  11.994   0.496   4.576
22283SOL     OW68745   6.189  11.581   7.687
22283SOL    HW168746   6.268  11.538   7.657
22283SOL    HW268747   6.190  11.571   7.782
22284SOL     OW68748   6.925   3.386  12.531
22284SOL    HW168749   6.859   3.339  12.480
22284SOL    HW268750   6.984   3.423  12.465
22285SOL     OW68751   8.841   8.988   5.901
22285SOL    HW168752   8.884   8.925   5.843
22285SOL    HW268753   8.803   9.053   5.843
22286SOL     OW68754   5.108   1.930  13.922
22286SOL    HW168755   5.180   1.923  13.860
22286SOL    HW268756   5.049   1.995  13.883
22287SOL     OW68757   9.128  11.907   9.944
22287SOL    HW168758   9.202  11.957   9.910
22287SOL    HW268759   9.053  11.966   9.933
22288SOL     OW68760  12.524   4.233   6.120
22288SOL    HW168761  12.565   4.284   6.051
22288SOL    HW268762  12.435   4.266   6.125
22289SOL     OW68763   2.204   7.997  14.853
22289SOL    HW168764   2.180   7.953  14.772
22289SOL    HW268765   2.291   7.963   0.003
22290SOL     OW68766  11.940   4.261   5.693
22290SOL    HW168767  11.877   4.264   5.765
22290SOL    HW268768  11.919   4.180   5.646
22291SOL     OW68769   8.409   2.886   4.719
22291SOL    HW168770   8.387   2.975   4.746
22291SOL    HW268771   8.405   2.889   4.623
22292SOL     OW68772   4.754   8.496   6.203
22292SOL    HW168773   4.800   8.511   6.286
22292SOL    HW268774   4.692   8.569   6.197
22293SOL     OW68775   3.147   2.746   3.721
22293SOL    HW168776   3.227   2.798   3.733
22293SOL    HW268777   3.159   2.703   3.636
22294SOL     OW68778  12.468  10.992  14.665
22294SOL    HW168779  12.511  10.913  14.698
22294SOL    HW268780  12.524  11.022  14.593
22295SOL     OW68781  12.859   2.198   3.655
22295SOL    HW168782  12.771   2.175   3.684
22295SOL    HW268783  12.910   2.118   3.666
22296SOL     OW68784   8.496  12.033   5.635
22296SOL    HW168785   8.511  11.979   5.558
22296SOL    HW268786   8.430  12.097   5.607
22297SOL     OW68787   5.309   3.609   0.928
22297SOL    HW168788   5.352   3.611   0.842
22297SOL    HW268789   5.288   3.517   0.942
22298SOL     OW68790   0.193   4.484  12.845
22298SOL    HW168791   0.157   4.529  12.768
22298SOL    HW268792   0.202   4.393  12.817
22299SOL     OW68793   1.587   5.506   1.965
22299SOL    HW168794   1.650   5.495   1.895
22299SOL    HW268795   1.617   5.583   2.013
22300SOL     OW68796  11.258  10.286  14.287
22300SOL    HW168797  11.316  10.314  14.358
22300SOL    HW268798  11.315  10.277  14.211
22301SOL     OW68799  14.652  12.924   9.656
22301SOL    HW168800  14.569  12.971   9.647
22301SOL    HW268801  14.626  12.833   9.669
22302SOL     OW68802   2.640  10.946   9.898
22302SOL    HW168803   2.696  10.882   9.940
22302SOL    HW268804   2.689  10.975   9.821
22303SOL     OW68805   2.265   6.702   8.871
22303SOL    HW168806   2.291   6.636   8.807
22303SOL    HW268807   2.265   6.784   8.823
22304SOL     OW68808   6.517   9.332   7.088
22304SOL    HW168809   6.581   9.261   7.090
22304SOL    HW268810   6.475   9.323   7.003
22305SOL     OW68811   8.692  14.110   2.452
22305SOL    HW168812   8.607  14.074   2.477
22305SOL    HW268813   8.701  14.086   2.360
22306SOL     OW68814   3.230   0.427  12.139
22306SOL    HW168815   3.155   0.388  12.093
22306SOL    HW268816   3.294   0.443  12.069
22307SOL     OW68817   3.734  11.091  13.153
22307SOL    HW168818   3.744  11.089  13.249
22307SOL    HW268819   3.790  11.019  13.123
22308SOL     OW68820   8.714   3.088   5.088
22308SOL    HW168821   8.662   3.109   5.011
22308SOL    HW268822   8.804   3.084   5.057
22309SOL     OW68823   4.794  12.700   8.701
22309SOL    HW168824   4.848  12.629   8.665
22309SOL    HW268825   4.720  12.707   8.640
22310SOL     OW68826  11.694   3.739   4.005
22310SOL    HW168827  11.774   3.785   4.032
22310SOL    HW268828  11.703   3.652   4.044
22311SOL     OW68829  10.498   4.381   3.674
22311SOL    HW168830  10.494   4.453   3.611
22311SOL    HW268831  10.522   4.423   3.757
22312SOL     OW68832   6.447   6.059   9.629
22312SOL    HW168833   6.474   6.138   9.677
22312SOL    HW268834   6.351   6.059   9.635
22313SOL     OW68835  14.417   3.064   2.417
22313SOL    HW168836  14.437   3.095   2.505
22313SOL    HW268837  14.336   3.014   2.427
22314SOL     OW68838   2.334   9.427   4.463
22314SOL    HW168839   2.418   9.381   4.466
22314SOL    HW268840   2.318   9.442   4.370
22315SOL     OW68841   0.168  11.268  13.364
22315SOL    HW168842   0.209  11.234  13.284
22315SOL    HW268843   0.074  11.268  13.344
22316SOL     OW68844   3.157   9.514   1.485
22316SOL    HW168845   3.099   9.588   1.466
22316SOL    HW268846   3.107   9.459   1.546
22317SOL     OW68847   5.463   4.361   8.966
22317SOL    HW168848   5.401   4.308   8.917
22317SOL    HW268849   5.484   4.308   9.043
22318SOL     OW68850   9.490   0.884  12.579
22318SOL    HW168851   9.554   0.816  12.559
22318SOL    HW268852   9.418   0.869  12.518
22319SOL     OW68853   5.363   4.745  11.110
22319SOL    HW168854   5.343   4.759  11.018
22319SOL    HW268855   5.370   4.833  11.147
22320SOL     OW68856   1.904   0.302  10.934
22320SOL    HW168857   1.892   0.220  10.886
22320SOL    HW268858   1.868   0.369  10.875
22321SOL     OW68859  12.937   4.695   0.390
22321SOL    HW168860  13.026   4.661   0.381
22321SOL    HW268861  12.891   4.665   0.311
22322SOL     OW68862  13.747   1.460  12.269
22322SOL    HW168863  13.662   1.492  12.299
22322SOL    HW268864  13.726   1.385  12.213
22323SOL     OW68865   6.347  14.071   2.834
22323SOL    HW168866   6.367  14.033   2.920
22323SOL    HW268867   6.388  14.011   2.772
22324SOL     OW68868   6.092  10.952   2.110
22324SOL    HW168869   6.170  10.989   2.069
22324SOL    HW268870   6.039  10.920   2.037
22325SOL     OW68871   5.998   9.302   5.993
22325SOL    HW168872   6.006   9.248   5.914
22325SOL    HW268873   5.936   9.255   6.049
22326SOL     OW68874   8.011   5.801   8.105
22326SOL    HW168875   8.044   5.786   8.017
22326SOL    HW268876   7.932   5.854   8.093
22327SOL     OW68877  11.664  12.614  10.799
22327SOL    HW168878  11.615  12.626  10.880
22327SOL    HW268879  11.746  12.571  10.826
22328SOL     OW68880   4.931   5.128   8.476
22328SOL    HW168881   4.973   5.209   8.505
22328SOL    HW268882   4.957   5.063   8.541
22329SOL     OW68883   1.478   3.994   5.541
22329SOL    HW168884   1.441   3.940   5.611
22329SOL    HW268885   1.428   4.075   5.546
22330SOL     OW68886  14.550  10.720   1.593
22330SOL    HW168887  14.560  10.802   1.545
22330SOL    HW268888  14.640  10.690   1.608
22331SOL     OW68889  14.534   0.600  14.602
22331SOL    HW168890  14.455   0.631  14.558
22331SOL    HW268891  14.507   0.583  14.692
22332SOL     OW68892   3.629   8.356   4.665
22332SOL    HW168893   3.658   8.343   4.574
22332SOL    HW268894   3.643   8.449   4.682
22333SOL     OW68895   7.870   5.776  14.014
22333SOL    HW168896   7.897   5.721  14.089
22333SOL    HW268897   7.949   5.785  13.961
22334SOL     OW68898   3.633   7.926   9.564
22334SOL    HW168899   3.669   7.956   9.480
22334SOL    HW268900   3.699   7.948   9.629
22335SOL     OW68901  14.754  14.495  10.747
22335SOL    HW168902  14.749  14.563  10.814
22335SOL    HW268903  14.764  14.413  10.795
22336SOL     OW68904   2.506   8.941   8.369
22336SOL    HW168905   2.572   9.006   8.394
22336SOL    HW268906   2.555   8.870   8.330
22337SOL     OW68907   3.372  10.174   0.519
22337SOL    HW168908   3.383  10.263   0.553
22337SOL    HW268909   3.380  10.117   0.595
22338SOL     OW68910  14.512  11.729   7.417
22338SOL    HW168911  14.458  11.794   7.373
22338SOL    HW268912  14.467  11.646   7.401
22339SOL     OW68913   5.833   8.683   3.435
22339SOL    HW168914   5.860   8.717   3.520
22339SOL    HW268915   5.740   8.702   3.430
22340SOL     OW68916   3.881  10.401  13.777
22340SOL    HW168917   3.970  10.427  13.753
22340SOL    HW268918   3.889  10.365  13.866
22341SOL     OW68919  13.737  14.683   0.140
22341SOL    HW168920  13.744  14.741   0.064
22341SOL    HW268921  13.823  14.641   0.146
22342SOL     OW68922  11.056   0.364   5.342
22342SOL    HW168923  11.042   0.446   5.391
22342SOL    HW268924  10.970   0.345   5.304
22343SOL     OW68925  14.243  12.612  12.687
22343SOL    HW168926  14.214  12.527  12.720
22343SOL    HW268927  14.281  12.593  12.601
22344SOL     OW68928  10.525   6.944   1.338
22344SOL    HW168929  10.571   7.012   1.388
22344SOL    HW268930  10.435   6.976   1.330
22345SOL     OW68931   4.819   7.588  12.988
22345SOL    HW168932   4.846   7.644  12.916
22345SOL    HW268933   4.899   7.542  13.014
22346SOL     OW68934   0.149   2.884   3.950
22346SOL    HW168935   0.068   2.859   3.994
22346SOL    HW268936   0.204   2.806   3.955
22347SOL     OW68937  12.056   3.324  14.340
22347SOL    HW168938  12.076   3.326  14.246
22347SOL    HW268939  12.019   3.410  14.359
22348SOL     OW68940  12.799  10.249   8.705
22348SOL    HW168941  12.800  10.292   8.620
22348SOL    HW268942  12.718  10.198   8.706
22349SOL     OW68943  12.926  11.922   6.443
22349SOL    HW168944  12.842  11.963   6.422
22349SOL    HW268945  12.951  11.876   6.363
22350SOL     OW68946   5.163   1.313   0.682
22350SOL    HW168947   5.139   1.317   0.775
22350SOL    HW268948   5.185   1.403   0.659
22351SOL     OW68949   9.019   7.968   0.964
22351SOL    HW168950   9.020   7.892   0.907
22351SOL    HW268951   8.977   8.037   0.913
22352SOL     OW68952   3.626  12.628  13.423
22352SOL    HW168953   3.685  12.659  13.355
22352SOL    HW268954   3.557  12.694  13.427
22353SOL     OW68955  14.840  14.776   6.378
22353SOL    HW168956  14.841  14.682   6.396
22353SOL    HW268957  14.773  14.786   6.309
22354SOL     OW68958   8.183  14.590  14.796
22354SOL    HW168959   8.089  14.589  14.815
22354SOL    HW268960   8.221  14.532  14.862
22355SOL     OW68961  12.737   6.079   7.478
22355SOL    HW168962  12.824   6.041   7.490
22355SOL    HW268963  12.725   6.082   7.384
22356SOL     OW68964   5.262   6.503  13.871
22356SOL    HW168965   5.183   6.536  13.827
22356SOL    HW268966   5.229   6.437  13.932
22357SOL     OW68967   8.583  14.412   7.493
22357SOL    HW168968   8.620  14.462   7.421
22357SOL    HW268969   8.497  14.384   7.461
22358SOL     OW68970   3.489   2.038  10.230
22358SOL    HW168971   3.525   1.991  10.154
22358SOL    HW268972   3.420   2.093  10.193
22359SOL     OW68973  14.187  10.448   0.762
22359SOL    HW168974  14.215  10.411   0.845
22359SOL    HW268975  14.168  10.372   0.707
22360SOL     OW68976   0.808  11.254  14.512
22360SOL    HW168977   0.785  11.326  14.453
22360SOL    HW268978   0.783  11.286  14.599
22361SOL     OW68979   7.529   9.588   4.065
22361SOL    HW168980   7.596   9.547   4.010
22361SOL    HW268981   7.447   9.545   4.038
22362SOL     OW68982  12.743   7.424   4.707
22362SOL    HW168983  12.770   7.354   4.648
22362SOL    HW268984  12.789   7.406   4.789
22363SOL     OW68985   0.875  11.476   4.787
22363SOL    HW168986   0.927  11.556   4.785
22363SOL    HW268987   0.841  11.469   4.698
22364SOL     OW68988   7.420   8.138   2.645
22364SOL    HW168989   7.441   8.052   2.682
22364SOL    HW268990   7.336   8.126   2.601
22365SOL     OW68991  13.317   8.070  11.010
22365SOL    HW168992  13.303   8.015  10.933
22365SOL    HW268993  13.395   8.033  11.052
22366SOL     OW68994   9.255   0.624   4.029
22366SOL    HW168995   9.185   0.565   4.058
22366SOL    HW268996   9.236   0.641   3.937
22367SOL     OW68997   4.382   6.781   9.585
22367SOL    HW168998   4.384   6.759   9.679
22367SOL    HW268999   4.474   6.789   9.561
22368SOL     OW69000  13.696   8.122   6.333
22368SOL    HW169001  13.783   8.102   6.369
22368SOL    HW269002  13.697   8.084   6.245
22369SOL     OW69003   8.769   4.042   2.804
22369SOL    HW169004   8.770   3.970   2.867
22369SOL    HW269005   8.792   4.002   2.721
22370SOL     OW69006   8.990   0.542   5.670
22370SOL    HW169007   9.011   0.596   5.594
22370SOL    HW269008   9.013   0.597   5.746
22371SOL     OW69009  12.347   7.457   0.888
22371SOL    HW169010  12.432   7.498   0.906
22371SOL    HW269011  12.283   7.520   0.920
22372SOL     OW69012   9.200  12.862  14.021
22372SOL    HW169013   9.157  12.891  14.102
22372SOL    HW269014   9.281  12.820  14.050
22373SOL     OW69015   9.262   8.003   9.867
22373SOL    HW169016   9.206   7.976   9.795
22373SOL    HW269017   9.203   8.043   9.931
22374SOL     OW69018   2.875   6.895  11.782
22374SOL    HW169019   2.917   6.813  11.758
22374SOL    HW269020   2.897   6.907  11.875
22375SOL     OW69021  12.827   4.912   6.174
22375SOL    HW169022  12.909   4.960   6.160
22375SOL    HW269023  12.759   4.979   6.173
22376SOL     OW69024   4.768  11.210   0.124
22376SOL    HW169025   4.768  11.227   0.218
22376SOL    HW269026   4.675  11.205   0.100
22377SOL     OW69027   4.389   2.620   8.602
22377SOL    HW169028   4.438   2.600   8.682
22377SOL    HW269029   4.457   2.633   8.536
22378SOL     OW69030   5.911   9.531  14.783
22378SOL    HW169031   5.878   9.447  14.751
22378SOL    HW269032   5.846   9.559  14.848
22379SOL     OW69033   2.634   4.664   9.223
22379SOL    HW169034   2.719   4.622   9.238
22379SOL    HW269035   2.589   4.656   9.307
22380SOL     OW69036  12.174   5.491   7.070
22380SOL    HW169037  12.119   5.522   6.998
22380SOL    HW269038  12.208   5.570   7.111
22381SOL     OW69039  13.255   9.916   1.960
22381SOL    HW169040  13.179   9.892   1.908
22381SOL    HW269041  13.228   9.995   2.008
22382SOL     OW69042  14.088   8.707   7.997
22382SOL    HW169043  14.114   8.765   8.068
22382SOL    HW269044  14.162   8.647   7.986
22383SOL     OW69045   3.762   8.375  10.669
22383SOL    HW169046   3.702   8.371  10.594
22383SOL    HW269047   3.815   8.453  10.653
22384SOL     OW69048   0.683   7.510   6.508
22384SOL    HW169049   0.597   7.553   6.499
22384SOL    HW269050   0.664   7.429   6.555
22385SOL     OW69051  14.022   2.861   5.791
22385SOL    HW169052  14.113   2.832   5.782
22385SOL    HW269053  13.996   2.885   5.702
22386SOL     OW69054   0.498  13.250   3.153
22386SOL    HW169055   0.584  13.247   3.110
22386SOL    HW269056   0.517  13.277   3.243
22387SOL     OW69057   3.043  14.775   7.352
22387SOL    HW169058   3.086  14.799   7.269
22387SOL    HW269059   2.957  14.743   7.326
22388SOL     OW69060   2.085   4.544   6.769
22388SOL    HW169061   2.086   4.607   6.697
22388SOL    HW269062   2.090   4.597   6.848
22389SOL     OW69063   9.446   0.633  13.642
22389SOL    HW169064   9.388   0.654  13.716
22389SOL    HW269065   9.388   0.633  13.566
22390SOL     OW69066   4.582  10.807  11.027
22390SOL    HW169067   4.518  10.824  10.957
22390SOL    HW269068   4.555  10.723  11.065
22391SOL     OW69069   1.683   9.978   4.458
22391SOL    HW169070   1.747   9.989   4.528
22391SOL    HW269071   1.606   9.942   4.501
22392SOL     OW69072  10.742  13.739   3.807
22392SOL    HW169073  10.794  13.678   3.858
22392SOL    HW269074  10.686  13.682   3.753
22393SOL     OW69075  14.187   6.463   0.912
22393SOL    HW169076  14.210   6.406   0.838
22393SOL    HW269077  14.106   6.425   0.947
22394SOL     OW69078  10.320  10.049  11.809
22394SOL    HW169079  10.251  10.107  11.841
22394SOL    HW269080  10.335  10.078  11.719
22395SOL     OW69081   5.082   9.913   5.889
22395SOL    HW169082   5.104   9.934   5.980
22395SOL    HW269083   5.056   9.996   5.850
22396SOL     OW69084  13.893   6.614  11.252
22396SOL    HW169085  13.979   6.655  11.245
22396SOL    HW269086  13.843   6.652  11.180
22397SOL     OW69087  12.449  11.131   5.157
22397SOL    HW169088  12.466  11.225   5.151
22397SOL    HW269089  12.444  11.102   5.066
22398SOL     OW69090   1.132  10.617   4.445
22398SOL    HW169091   1.066  10.642   4.509
22398SOL    HW269092   1.211  10.601   4.497
22399SOL     OW69093   8.802   5.120  11.632
22399SOL    HW169094   8.832   5.032  11.651
22399SOL    HW269095   8.832   5.137  11.543
22400SOL     OW69096  11.632   0.565   9.581
22400SOL    HW169097  11.580   0.487   9.600
22400SOL    HW269098  11.606   0.590   9.492
22401SOL     OW69099   4.886   7.370  10.583
22401SOL    HW169100   4.838   7.445  10.619
22401SOL    HW269101   4.977   7.386  10.607
22402SOL     OW69102   8.238   4.523  11.230
22402SOL    HW169103   8.207   4.548  11.143
22402SOL    HW269104   8.297   4.450  11.214
22403SOL     OW69105  14.420   0.030   3.828
22403SOL    HW169106  14.410  14.817   3.873
22403SOL    HW269107  14.493   0.072   3.873
22404SOL     OW69108  14.618  14.103   8.581
22404SOL    HW169109  14.601  14.197   8.578
22404SOL    HW269110  14.578  14.069   8.501
22405SOL     OW69111   8.152   5.809  10.363
22405SOL    HW169112   8.170   5.808  10.457
22405SOL    HW269113   8.172   5.719  10.334
22406SOL     OW69114   7.756   4.703  10.802
22406SOL    HW169115   7.742   4.758  10.879
22406SOL    HW269116   7.774   4.764  10.731
22407SOL     OW69117  13.598   8.882   0.419
22407SOL    HW169118  13.681   8.916   0.452
22407SOL    HW269119  13.557   8.841   0.495
22408SOL     OW69120   1.106  11.834   3.534
22408SOL    HW169121   1.154  11.751   3.528
22408SOL    HW269122   1.163  11.892   3.584
22409SOL     OW69123   6.134   1.256   0.981
22409SOL    HW169124   6.114   1.172   1.021
22409SOL    HW269125   6.112   1.244   0.888
22410SOL     OW69126   8.661  11.081  12.507
22410SOL    HW169127   8.599  11.085  12.580
22410SOL    HW269128   8.612  11.037  12.437
22411SOL     OW69129   7.188   0.850   5.221
22411SOL    HW169130   7.133   0.792   5.168
22411SOL    HW269131   7.234   0.904   5.156
22412SOL     OW69132   7.748   1.686   9.085
22412SOL    HW169133   7.692   1.643   9.020
22412SOL    HW269134   7.797   1.752   9.035
22413SOL     OW69135  13.463  12.638   8.655
22413SOL    HW169136  13.402  12.571   8.686
22413SOL    HW269137  13.544  12.620   8.703
22414SOL     OW69138  12.208   9.988  14.500
22414SOL    HW169139  12.234  10.039  14.423
22414SOL    HW269140  12.205  10.051  14.571
22415SOL     OW69141  11.430  14.262   2.101
22415SOL    HW169142  11.447  14.312   2.022
22415SOL    HW269143  11.378  14.321   2.156
22416SOL     OW69144   7.125   5.542   2.372
22416SOL    HW169145   7.172   5.472   2.328
22416SOL    HW269146   7.161   5.622   2.333
22417SOL     OW69147  11.886   9.580   3.383
22417SOL    HW169148  11.857   9.592   3.292
22417SOL    HW269149  11.808   9.599   3.435
22418SOL     OW69150  13.172   7.844  11.249
22418SOL    HW169151  13.214   7.908  11.307
22418SOL    HW269152  13.239   7.778  11.234
22419SOL     OW69153   2.772   3.562   2.434
22419SOL    HW169154   2.717   3.497   2.390
22419SOL    HW269155   2.770   3.536   2.526
22420SOL     OW69156  10.499   9.194  10.960
22420SOL    HW169157  10.519   9.199  10.866
22420SOL    HW269158  10.424   9.135  10.965
22421SOL     OW69159   3.325   0.876  14.102
22421SOL    HW169160   3.274   0.801  14.072
22421SOL    HW269161   3.407   0.837  14.135
22422SOL     OW69162  13.700   4.818   8.491
22422SOL    HW169163  13.765   4.881   8.460
22422SOL    HW269164  13.748   4.762   8.551
22423SOL     OW69165   9.197   9.338   1.456
22423SOL    HW169166   9.214   9.431   1.469
22423SOL    HW269167   9.171   9.331   1.364
22424SOL     OW69168  10.429   3.751  13.690
22424SOL    HW169169  10.508   3.798  13.715
22424SOL    HW269170  10.362   3.819  13.684
22425SOL     OW69171  13.417   2.783   6.862
22425SOL    HW169172  13.388   2.718   6.798
22425SOL    HW269173  13.406   2.867   6.817
22426SOL     OW69174  14.634   3.945   3.026
22426SOL    HW169175  14.613   3.855   3.054
22426SOL    HW269176  14.655   3.990   3.107
22427SOL     OW69177   8.297  10.919   1.366
22427SOL    HW169178   8.344  10.941   1.285
22427SOL    HW269179   8.207  10.902   1.338
22428SOL     OW69180   0.698   3.201   9.812
22428SOL    HW169181   0.647   3.166   9.884
22428SOL    HW269182   0.703   3.130   9.748
22429SOL     OW69183  13.890   4.850   3.555
22429SOL    HW169184  13.813   4.904   3.539
22429SOL    HW269185  13.964   4.904   3.526
22430SOL     OW69186   7.150   1.987   2.366
22430SOL    HW169187   7.156   2.074   2.406
22430SOL    HW269188   7.106   1.934   2.432
22431SOL     OW69189   7.346   8.121   9.126
22431SOL    HW169190   7.351   8.217   9.132
22431SOL    HW269191   7.259   8.104   9.091
22432SOL     OW69192   0.139  13.797   4.564
22432SOL    HW169193   0.129  13.879   4.613
22432SOL    HW269194   0.136  13.823   4.472
22433SOL     OW69195   9.494   0.637  14.515
22433SOL    HW169196   9.489   0.542  14.505
22433SOL    HW269197   9.404   0.667  14.504
22434SOL     OW69198   5.878   2.663   5.838
22434SOL    HW169199   5.911   2.750   5.818
22434SOL    HW269200   5.783   2.670   5.826
22435SOL     OW69201   5.103   7.074   7.186
22435SOL    HW169202   5.170   7.028   7.137
22435SOL    HW269203   5.088   7.155   7.137
22436SOL     OW69204   1.225   2.481   0.670
22436SOL    HW169205   1.235   2.449   0.581
22436SOL    HW269206   1.146   2.535   0.668
22437SOL     OW69207  10.451   4.320   2.547
22437SOL    HW169208  10.487   4.322   2.636
22437SOL    HW269209  10.501   4.385   2.499
22438SOL     OW69210  14.593   2.493   9.156
22438SOL    HW169211  14.560   2.413   9.198
22438SOL    HW269212  14.645   2.535   9.223
22439SOL     OW69213  11.358   2.162   4.089
22439SOL    HW169214  11.344   2.092   4.152
22439SOL    HW269215  11.274   2.208   4.084
22440SOL     OW69216   1.422  13.494  14.162
22440SOL    HW169217   1.448  13.403  14.174
22440SOL    HW269218   1.353  13.508  14.227
22441SOL     OW69219   7.526   7.488   0.656
22441SOL    HW169220   7.579   7.538   0.719
22441SOL    HW269221   7.501   7.408   0.703
22442SOL     OW69222  11.398  11.007   7.454
22442SOL    HW169223  11.474  10.950   7.443
22442SOL    HW269224  11.327  10.960   7.410
22443SOL     OW69225  11.192   2.219   2.971
22443SOL    HW169226  11.179   2.268   3.052
22443SOL    HW269227  11.239   2.280   2.914
22444SOL     OW69228   6.383   7.100  11.121
22444SOL    HW169229   6.384   7.186  11.079
22444SOL    HW269230   6.298   7.063  11.098
22445SOL     OW69231   8.488   7.134   4.173
22445SOL    HW169232   8.471   7.215   4.127
22445SOL    HW269233   8.431   7.137   4.250
22446SOL     OW69234   4.018  13.891  13.963
22446SOL    HW169235   4.036  13.982  13.986
22446SOL    HW269236   4.038  13.885  13.869
22447SOL     OW69237   3.501  11.783  14.091
22447SOL    HW169238   3.535  11.817  14.173
22447SOL    HW269239   3.432  11.845  14.066
22448SOL     OW69240   2.141   4.553  11.789
22448SOL    HW169241   2.060   4.572  11.742
22448SOL    HW269242   2.185   4.637  11.796
22449SOL     OW69243  10.703   4.908   2.482
22449SOL    HW169244  10.721   5.000   2.464
22449SOL    HW269245  10.788   4.864   2.471
22450SOL     OW69246  11.732   2.533   1.060
22450SOL    HW169247  11.771   2.455   1.020
22450SOL    HW269248  11.787   2.551   1.136
22451SOL     OW69249   6.310  10.165   2.136
22451SOL    HW169250   6.315  10.096   2.202
22451SOL    HW269251   6.400  10.197   2.128
22452SOL     OW69252   7.385   5.612  10.811
22452SOL    HW169253   7.321   5.677  10.839
22452SOL    HW269254   7.461   5.663  10.784
22453SOL     OW69255  13.715   5.382   7.816
22453SOL    HW169256  13.685   5.382   7.907
22453SOL    HW269257  13.637   5.403   7.764
22454SOL     OW69258  13.704   1.521   3.660
22454SOL    HW169259  13.696   1.439   3.708
22454SOL    HW269260  13.740   1.582   3.724
22455SOL     OW69261   3.286   2.401   7.087
22455SOL    HW169262   3.230   2.478   7.092
22455SOL    HW269263   3.253   2.342   7.155
22456SOL     OW69264  10.737   3.186   8.605
22456SOL    HW169265  10.668   3.138   8.652
22456SOL    HW269266  10.692   3.263   8.570
22457SOL     OW69267   9.827   2.932  10.211
22457SOL    HW169268   9.802   2.974  10.128
22457SOL    HW269269   9.866   2.849  10.184
22458SOL     OW69270   8.481   2.032  13.893
22458SOL    HW169271   8.406   2.089  13.912
22458SOL    HW269272   8.533   2.033  13.973
22459SOL     OW69273   9.501   0.614   6.083
22459SOL    HW169274   9.475   0.544   6.025
22459SOL    HW269275   9.428   0.676   6.081
22460SOL     OW69276   1.685   9.460  11.794
22460SOL    HW169277   1.660   9.368  11.784
22460SOL    HW269278   1.618   9.497  11.852
22461SOL     OW69279   2.118   2.789   4.418
22461SOL    HW169280   2.032   2.753   4.396
22461SOL    HW269281   2.107   2.822   4.507
22462SOL     OW69282   0.815   3.897   0.363
22462SOL    HW169283   0.811   3.958   0.289
22462SOL    HW269284   0.825   3.811   0.322
22463SOL     OW69285   7.935   3.398  13.153
22463SOL    HW169286   8.000   3.350  13.101
22463SOL    HW269287   7.964   3.387  13.243
22464SOL     OW69288   1.540   1.271  12.844
22464SOL    HW169289   1.533   1.268  12.749
22464SOL    HW269290   1.479   1.340  12.870
22465SOL     OW69291   1.693  13.764  10.776
22465SOL    HW169292   1.689  13.683  10.826
22465SOL    HW269293   1.607  13.805  10.791
22466SOL     OW69294   8.651   9.341   6.160
22466SOL    HW169295   8.641   9.310   6.250
22466SOL    HW269296   8.566   9.380   6.138
22467SOL     OW69297  10.611   9.820   1.980
22467SOL    HW169298  10.674   9.857   2.041
22467SOL    HW269299  10.547   9.775   2.036
22468SOL     OW69300   8.241  13.014   1.657
22468SOL    HW169301   8.170  12.968   1.701
22468SOL    HW269302   8.231  12.992   1.564
22469SOL     OW69303   5.455   3.163   5.896
22469SOL    HW169304   5.451   3.077   5.854
22469SOL    HW269305   5.374   3.206   5.872
22470SOL     OW69306   8.627   3.301   5.654
22470SOL    HW169307   8.606   3.212   5.680
22470SOL    HW269308   8.711   3.294   5.609
22471SOL     OW69309   1.305   7.325  10.115
22471SOL    HW169310   1.309   7.282  10.200
22471SOL    HW269311   1.257   7.264  10.059
22472SOL     OW69312  13.946   8.186  13.466
22472SOL    HW169313  13.904   8.170  13.381
22472SOL    HW269314  13.908   8.268  13.497
22473SOL     OW69315   7.804  13.538  14.331
22473SOL    HW169316   7.823  13.464  14.390
22473SOL    HW269317   7.761  13.497  14.256
22474SOL     OW69318   0.229   9.268   7.675
22474SOL    HW169319   0.321   9.255   7.651
22474SOL    HW269320   0.186   9.187   7.650
22475SOL     OW69321   4.701   1.667   5.678
22475SOL    HW169322   4.688   1.718   5.598
22475SOL    HW269323   4.783   1.699   5.714
22476SOL     OW69324   5.808  12.206   6.435
22476SOL    HW169325   5.900  12.231   6.449
22476SOL    HW269326   5.812  12.111   6.421
22477SOL     OW69327   0.774  10.992   7.314
22477SOL    HW169328   0.854  10.943   7.294
22477SOL    HW269329   0.737  10.947   7.390
22478SOL     OW69330   6.076  12.390   2.322
22478SOL    HW169331   6.165  12.357   2.333
22478SOL    HW269332   6.083  12.484   2.335
22479SOL     OW69333   4.218  14.351  11.028
22479SOL    HW169334   4.218  14.330  11.121
22479SOL    HW269335   4.126  14.361  11.004
22480SOL     OW69336   3.533   8.399  14.607
22480SOL    HW169337   3.547   8.492  14.621
22480SOL    HW269338   3.621   8.362  14.601
22481SOL     OW69339   7.334   4.145  13.456
22481SOL    HW169340   7.282   4.132  13.535
22481SOL    HW269341   7.365   4.235  13.462
22482SOL     OW69342   7.587   1.148   2.281
22482SOL    HW169343   7.546   1.063   2.266
22482SOL    HW269344   7.609   1.148   2.374
22483SOL     OW69345   9.901   2.043   3.943
22483SOL    HW169346   9.870   2.017   3.856
22483SOL    HW269347   9.966   1.977   3.966
22484SOL     OW69348   1.740   9.416   9.741
22484SOL    HW169349   1.661   9.363   9.732
22484SOL    HW269350   1.812   9.353   9.739
22485SOL     OW69351   1.105   3.684   8.618
22485SOL    HW169352   1.180   3.706   8.673
22485SOL    HW269353   1.106   3.751   8.549
22486SOL     OW69354  10.060   6.753   3.492
22486SOL    HW169355  10.050   6.665   3.457
22486SOL    HW269356   9.970   6.781   3.513
22487SOL     OW69357  12.151   9.210   6.258
22487SOL    HW169358  12.136   9.284   6.317
22487SOL    HW269359  12.153   9.133   6.315
22488SOL     OW69360   1.814  12.268   3.033
22488SOL    HW169361   1.885  12.299   2.976
22488SOL    HW269362   1.757  12.344   3.044
22489SOL     OW69363   0.869   7.067   6.979
22489SOL    HW169364   0.819   7.011   6.920
22489SOL    HW269365   0.866   7.022   7.064
22490SOL     OW69366   7.359   7.802   4.569
22490SOL    HW169367   7.311   7.767   4.494
22490SOL    HW269368   7.393   7.886   4.538
22491SOL     OW69369  10.142   9.595   3.694
22491SOL    HW169370  10.197   9.574   3.619
22491SOL    HW269371  10.061   9.547   3.679
22492SOL     OW69372   5.131   4.205   9.328
22492SOL    HW169373   5.069   4.137   9.354
22492SOL    HW269374   5.203   4.197   9.391
22493SOL     OW69375   8.641  12.377  14.397
22493SOL    HW169376   8.569  12.324  14.361
22493SOL    HW269377   8.653  12.342  14.485
22494SOL     OW69378  12.014   7.732  10.364
22494SOL    HW169379  12.007   7.815  10.316
22494SOL    HW269380  11.966   7.669  10.311
22495SOL     OW69381   0.371  10.488   9.609
22495SOL    HW169382   0.296  10.431   9.626
22495SOL    HW269383   0.444  10.427   9.592
22496SOL     OW69384   6.225   4.763   9.574
22496SOL    HW169385   6.247   4.789   9.485
22496SOL    HW269386   6.135   4.731   9.568
22497SOL     OW69387   0.613  11.716  11.892
22497SOL    HW169388   0.552  11.790  11.883
22497SOL    HW269389   0.700  11.756  11.888
22498SOL     OW69390  12.417   0.126   0.859
22498SOL    HW169391  12.342   0.170   0.818
22498SOL    HW269392  12.416   0.037   0.823
22499SOL     OW69393  14.330   8.955   6.565
22499SOL    HW169394  14.368   8.869   6.548
22499SOL    HW269395  14.400   9.005   6.606
22500SOL     OW69396   4.743   3.798   4.056
22500SOL    HW169397   4.819   3.840   4.015
22500SOL    HW269398   4.681   3.784   3.985
22501SOL     OW69399   4.472  12.538   4.369
22501SOL    HW169400   4.396  12.591   4.391
22501SOL    HW269401   4.456  12.453   4.412
22502SOL     OW69402   7.088   7.125  12.445
22502SOL    HW169403   7.069   7.195  12.382
22502SOL    HW269404   7.014   7.126  12.505
22503SOL     OW69405  13.989   1.967   3.304
22503SOL    HW169406  13.967   1.906   3.233
22503SOL    HW269407  14.022   2.045   3.259
22504SOL     OW69408  13.073   7.291   4.694
22504SOL    HW169409  13.063   7.383   4.718
22504SOL    HW269410  12.999   7.274   4.636
22505SOL     OW69411  14.846   7.536  10.539
22505SOL    HW169412  14.860   7.450  10.501
22505SOL    HW269413  14.779   7.523  10.606
22506SOL     OW69414   6.180   9.884   6.249
22506SOL    HW169415   6.159   9.921   6.334
22506SOL    HW269416   6.193   9.961   6.192
22507SOL     OW69417   5.979   9.756   2.427
22507SOL    HW169418   6.008   9.711   2.506
22507SOL    HW269419   6.053   9.812   2.402
22508SOL     OW69420   9.572   1.832  13.793
22508SOL    HW169421   9.486   1.815  13.831
22508SOL    HW269422   9.615   1.890  13.855
22509SOL     OW69423   1.614  11.255   4.183
22509SOL    HW169424   1.535  11.213   4.218
22509SOL    HW269425   1.668  11.182   4.151
22510SOL     OW69426   0.979   9.407  12.643
22510SOL    HW169427   0.907   9.363  12.598
22510SOL    HW269428   0.937   9.473  12.698
22511SOL     OW69429   7.419   2.060   6.670
22511SOL    HW169430   7.385   1.975   6.695
22511SOL    HW269431   7.511   2.058   6.697
22512SOL     OW69432   4.267   7.755   8.514
22512SOL    HW169433   4.323   7.767   8.591
22512SOL    HW269434   4.198   7.695   8.545
22513SOL     OW69435  10.390  12.682   7.387
22513SOL    HW169436  10.299  12.657   7.371
22513SOL    HW269437  10.418  12.625   7.458
22514SOL     OW69438  14.809   0.450  11.932
22514SOL    HW169439  14.834   0.377  11.875
22514SOL    HW269440  14.787   0.408  12.015
22515SOL     OW69441   5.343   0.872   1.372
22515SOL    HW169442   5.284   0.895   1.300
22515SOL    HW269443   5.320   0.781   1.393
22516SOL     OW69444   5.471  10.292   4.800
22516SOL    HW169445   5.496  10.252   4.717
22516SOL    HW269446   5.382  10.259   4.817
22517SOL     OW69447   4.526   0.942   4.522
22517SOL    HW169448   4.609   0.927   4.477
22517SOL    HW269449   4.533   0.893   4.603
22518SOL     OW69450   1.780   3.736   3.729
22518SOL    HW169451   1.789   3.818   3.680
22518SOL    HW269452   1.707   3.752   3.789
22519SOL     OW69453   5.989   6.136   7.473
22519SOL    HW169454   6.071   6.186   7.476
22519SOL    HW269455   5.964   6.137   7.380
22520SOL     OW69456  14.496  13.284   2.562
22520SOL    HW169457  14.508  13.308   2.470
22520SOL    HW269458  14.576  13.237   2.585
22521SOL     OW69459   4.478   2.587   9.115
22521SOL    HW169460   4.411   2.545   9.169
22521SOL    HW269461   4.459   2.680   9.120
22522SOL     OW69462   2.565   8.920   6.431
22522SOL    HW169463   2.478   8.919   6.391
22522SOL    HW269464   2.568   8.840   6.484
22523SOL     OW69465  11.499   1.903   0.469
22523SOL    HW169466  11.451   1.833   0.514
22523SOL    HW269467  11.499   1.877   0.377
22524SOL     OW69468   1.311   8.805   3.996
22524SOL    HW169469   1.323   8.779   3.905
22524SOL    HW269470   1.291   8.724   4.042
22525SOL     OW69471   1.931   3.674   8.851
22525SOL    HW169472   1.913   3.755   8.899
22525SOL    HW269473   1.853   3.661   8.797
22526SOL     OW69474  11.081   3.318  11.660
22526SOL    HW169475  11.160   3.314  11.607
22526SOL    HW269476  11.045   3.405  11.645
22527SOL     OW69477   8.586  12.887  12.517
22527SOL    HW169478   8.621  12.833  12.445
22527SOL    HW269479   8.589  12.976  12.483
22528SOL     OW69480  12.743   2.930  11.800
22528SOL    HW169481  12.704   2.843  11.809
22528SOL    HW269482  12.744   2.946  11.706
22529SOL     OW69483  14.094  10.012   6.077
22529SOL    HW169484  14.120   9.968   6.158
22529SOL    HW269485  14.138   9.963   6.008
22530SOL     OW69486   0.495   2.023  10.184
22530SOL    HW169487   0.439   1.951  10.157
22530SOL    HW269488   0.462   2.099  10.136
22531SOL     OW69489   1.092  11.543  13.532
22531SOL    HW169490   1.015  11.520  13.479
22531SOL    HW269491   1.159  11.480  13.504
22532SOL     OW69492  13.196   9.877   3.613
22532SOL    HW169493  13.235   9.959   3.584
22532SOL    HW269494  13.199   9.880   3.708
22533SOL     OW69495   9.457   1.228   1.048
22533SOL    HW169496   9.474   1.203   0.957
22533SOL    HW269497   9.537   1.205   1.094
22534SOL     OW69498  11.992   2.004  13.546
22534SOL    HW169499  11.958   1.962  13.625
22534SOL    HW269500  11.962   2.095  13.553
22535SOL     OW69501  12.373   1.546   2.458
22535SOL    HW169502  12.422   1.464   2.463
22535SOL    HW269503  12.369   1.577   2.548
22536SOL     OW69504   5.802   3.566   5.208
22536SOL    HW169505   5.719   3.544   5.250
22536SOL    HW269506   5.865   3.506   5.247
22537SOL     OW69507   2.302  10.818   4.336
22537SOL    HW169508   2.211  10.794   4.320
22537SOL    HW269509   2.307  10.832   4.431
22538SOL     OW69510   3.023   9.010  12.286
22538SOL    HW169511   2.975   9.050  12.213
22538SOL    HW269512   2.991   9.056  12.363
22539SOL     OW69513   5.361  13.853   9.817
22539SOL    HW169514   5.336  13.903   9.895
22539SOL    HW269515   5.380  13.765   9.850
22540SOL     OW69516   6.014   3.737   3.824
22540SOL    HW169517   5.942   3.725   3.886
22540SOL    HW269518   5.972   3.775   3.746
22541SOL     OW69519  12.798  12.732  14.106
22541SOL    HW169520  12.868  12.752  14.169
22541SOL    HW269521  12.810  12.796  14.036
22542SOL     OW69522   3.273   3.961   2.446
22542SOL    HW169523   3.179   3.966   2.466
22542SOL    HW269524   3.315   4.006   2.519
22543SOL     OW69525  10.529  12.138   0.638
22543SOL    HW169526  10.556  12.050   0.611
22543SOL    HW269527  10.594  12.197   0.600
22544SOL     OW69528   3.857   3.194  13.761
22544SOL    HW169529   3.863   3.226  13.671
22544SOL    HW269530   3.807   3.113  13.754
22545SOL     OW69531   2.654   9.139  13.469
22545SOL    HW169532   2.687   9.088  13.543
22545SOL    HW269533   2.590   9.082  13.426
22546SOL     OW69534   8.857   9.354  10.459
22546SOL    HW169535   8.821   9.357  10.370
22546SOL    HW269536   8.838   9.265  10.490
22547SOL     OW69537   5.447   4.868   1.600
22547SOL    HW169538   5.489   4.945   1.638
22547SOL    HW269539   5.499   4.849   1.521
22548SOL     OW69540   1.157   8.898   3.589
22548SOL    HW169541   1.071   8.938   3.596
22548SOL    HW269542   1.176   8.897   3.495
22549SOL     OW69543   2.964   4.981   4.437
22549SOL    HW169544   2.881   4.933   4.440
22549SOL    HW269545   3.016   4.935   4.371
22550SOL     OW69546  12.558   7.063   0.743
22550SOL    HW169547  12.496   7.055   0.816
22550SOL    HW269548  12.543   7.152   0.709
22551SOL     OW69549   1.286   7.579  14.465
22551SOL    HW169550   1.373   7.616  14.479
22551SOL    HW269551   1.266   7.597  14.373
22552SOL     OW69552   5.679   2.685  14.709
22552SOL    HW169553   5.618   2.622  14.748
22552SOL    HW269554   5.758   2.634  14.690
22553SOL     OW69555  14.484   4.784   7.372
22553SOL    HW169556  14.553   4.753   7.432
22553SOL    HW269557  14.528   4.847   7.316
22554SOL     OW69558  10.152  11.892  12.685
22554SOL    HW169559  10.076  11.866  12.737
22554SOL    HW269560  10.114  11.931  12.606
22555SOL     OW69561  10.510  14.454   7.709
22555SOL    HW169562  10.489  14.441   7.802
22555SOL    HW269563  10.494  14.369   7.669
22556SOL     OW69564   3.823   0.110   7.087
22556SOL    HW169565   3.855   0.193   7.123
22556SOL    HW269566   3.742   0.094   7.135
22557SOL     OW69567  13.885   6.851  14.292
22557SOL    HW169568  13.838   6.885  14.368
22557SOL    HW269569  13.821   6.855  14.220
22558SOL     OW69570   2.845   7.182   2.836
22558SOL    HW169571   2.808   7.229   2.761
22558SOL    HW269572   2.781   7.195   2.906
22559SOL     OW69573   9.051  13.513   2.767
22559SOL    HW169574   9.131  13.562   2.751
22559SOL    HW269575   9.006  13.561   2.836
22560SOL     OW69576   3.863  10.158  12.186
22560SOL    HW169577   3.831  10.227  12.244
22560SOL    HW269578   3.935  10.117  12.234
22561SOL     OW69579   0.958  11.395  13.836
22561SOL    HW169580   1.021  11.391  13.909
22561SOL    HW269581   0.996  11.339  13.768
22562SOL     OW69582   5.030  12.452  13.301
22562SOL    HW169583   5.019  12.414  13.214
22562SOL    HW269584   5.103  12.404  13.339
22563SOL     OW69585   2.970  12.560   5.889
22563SOL    HW169586   3.039  12.620   5.859
22563SOL    HW269587   3.002  12.473   5.864
22564SOL     OW69588   0.094  11.420   6.967
22564SOL    HW169589   0.091  11.353   7.035
22564SOL    HW269590   0.091  11.503   7.016
22565SOL     OW69591   1.369   1.532   2.823
22565SOL    HW169592   1.404   1.577   2.746
22565SOL    HW269593   1.290   1.488   2.792
22566SOL     OW69594   4.143   6.763  12.358
22566SOL    HW169595   4.053   6.755  12.388
22566SOL    HW269596   4.173   6.846  12.394
22567SOL     OW69597   3.785  11.297   7.240
22567SOL    HW169598   3.766  11.357   7.313
22567SOL    HW269599   3.699  11.263   7.213
22568SOL     OW69600  12.914   7.120  11.933
22568SOL    HW169601  12.832   7.075  11.951
22568SOL    HW269602  12.914   7.196  11.991
22569SOL     OW69603   8.478   8.818   4.379
22569SOL    HW169604   8.443   8.729   4.369
22569SOL    HW269605   8.423   8.872   4.322
22570SOL     OW69606   6.576   0.305   0.127
22570SOL    HW169607   6.561   0.226   0.075
22570SOL    HW269608   6.530   0.289   0.209
22571SOL     OW69609   4.740   1.725  14.805
22571SOL    HW169610   4.730   1.809  14.848
22571SOL    HW269611   4.667   1.720  14.743
22572SOL     OW69612  12.483   3.043   2.737
22572SOL    HW169613  12.480   2.991   2.817
22572SOL    HW269614  12.399   3.089   2.735
22573SOL     OW69615   7.517  11.002  12.982
22573SOL    HW169616   7.597  11.001  12.929
22573SOL    HW269617   7.479  11.088  12.965
22574SOL     OW69618   6.616  13.510  12.469
22574SOL    HW169619   6.672  13.455  12.414
22574SOL    HW269620   6.573  13.449  12.528
22575SOL     OW69621   8.349   4.803  14.310
22575SOL    HW169622   8.325   4.737  14.245
22575SOL    HW269623   8.347   4.886  14.262
22576SOL     OW69624  14.707  12.184   4.361
22576SOL    HW169625  14.802  12.181   4.349
22576SOL    HW269626  14.673  12.114   4.304
22577SOL     OW69627  11.754   9.924   9.702
22577SOL    HW169628  11.715   9.878   9.627
22577SOL    HW269629  11.820   9.863   9.736
22578SOL     OW69630  10.897  12.611   4.720
22578SOL    HW169631  10.977  12.592   4.768
22578SOL    HW269632  10.828  12.568   4.770
22579SOL     OW69633  10.032  10.430   0.547
22579SOL    HW169634  10.051  10.339   0.526
22579SOL    HW269635  10.112  10.477   0.527
22580SOL     OW69636   5.130  13.084   3.354
22580SOL    HW169637   5.057  13.042   3.399
22580SOL    HW269638   5.122  13.177   3.377
22581SOL     OW69639   1.281  14.712   7.937
22581SOL    HW169640   1.315  14.628   7.968
22581SOL    HW269641   1.340  14.738   7.866
22582SOL     OW69642   6.457   2.956   6.099
22582SOL    HW169643   6.445   3.028   6.037
22582SOL    HW269644   6.552   2.940   6.097
22583SOL     OW69645   7.821   2.460   1.850
22583SOL    HW169646   7.802   2.397   1.780
22583SOL    HW269647   7.847   2.407   1.925
22584SOL     OW69648   4.074  11.651   2.832
22584SOL    HW169649   4.132  11.653   2.908
22584SOL    HW269650   4.066  11.558   2.811
22585SOL     OW69651  13.913  11.831   3.854
22585SOL    HW169652  13.928  11.739   3.831
22585SOL    HW269653  13.875  11.870   3.776
22586SOL     OW69654  11.998   3.247  11.793
22586SOL    HW169655  11.980   3.293  11.711
22586SOL    HW269656  11.955   3.163  11.784
22587SOL     OW69657  10.231  14.854  12.034
22587SOL    HW169658  10.191   0.017  12.114
22587SOL    HW269659  10.164  14.795  11.998
22588SOL     OW69660  13.679  13.189  13.087
22588SOL    HW169661  13.683  13.232  13.172
22588SOL    HW269662  13.644  13.256  13.028
22589SOL     OW69663   7.234   0.558   8.940
22589SOL    HW169664   7.162   0.500   8.916
22589SOL    HW269665   7.305   0.536   8.880
22590SOL     OW69666   0.577   9.237   7.829
22590SOL    HW169667   0.549   9.261   7.741
22590SOL    HW269668   0.612   9.148   7.820
22591SOL     OW69669   2.324  11.965   9.523
22591SOL    HW169670   2.253  12.028   9.533
22591SOL    HW269671   2.313  11.904   9.597
22592SOL     OW69672   7.767  14.791   5.947
22592SOL    HW169673   7.809  14.761   5.866
22592SOL    HW269674   7.809   0.004   5.965
22593SOL     OW69675   7.735   8.958   7.848
22593SOL    HW169676   7.740   8.863   7.840
22593SOL    HW269677   7.677   8.986   7.777
22594SOL     OW69678  10.861  11.065   7.897
22594SOL    HW169679  10.913  11.145   7.890
22594SOL    HW269680  10.923  10.994   7.881
22595SOL     OW69681  11.012   3.582   6.268
22595SOL    HW169682  10.991   3.673   6.291
22595SOL    HW269683  11.042   3.543   6.350
22596SOL     OW69684  14.217   4.521   0.488
22596SOL    HW169685  14.246   4.440   0.529
22596SOL    HW269686  14.168   4.493   0.411
22597SOL     OW69687   8.427   6.065   4.090
22597SOL    HW169688   8.341   6.057   4.049
22597SOL    HW269689   8.412   6.041   4.182
22598SOL     OW69690  12.204  10.694   1.130
22598SOL    HW169691  12.272  10.687   1.197
22598SOL    HW269692  12.124  10.716   1.178
22599SOL     OW69693  12.972   0.791   8.360
22599SOL    HW169694  12.926   0.855   8.415
22599SOL    HW269695  13.041   0.841   8.317
22600SOL     OW69696   0.681   4.003  11.251
22600SOL    HW169697   0.776   3.988  11.255
22600SOL    HW269698   0.669   4.063  11.177
22601SOL     OW69699  11.179  10.756   1.143
22601SOL    HW169700  11.171  10.845   1.175
22601SOL    HW269701  11.239  10.763   1.068
22602SOL     OW69702  13.560  10.598  14.612
22602SOL    HW169703  13.486  10.658  14.604
22602SOL    HW269704  13.573  10.564  14.523
22603SOL     OW69705   6.838   8.097   0.318
22603SOL    HW169706   6.755   8.127   0.356
22603SOL    HW269707   6.835   8.128   0.228
22604SOL     OW69708   8.799   9.158   2.116
22604SOL    HW169709   8.806   9.160   2.212
22604SOL    HW269710   8.813   9.066   2.093
22605SOL     OW69711   9.562   5.749   5.709
22605SOL    HW169712   9.544   5.791   5.625
22605SOL    HW269713   9.631   5.802   5.748
22606SOL     OW69714   0.813  12.381  14.338
22606SOL    HW169715   0.721  12.374  14.311
22606SOL    HW269716   0.862  12.368  14.257
22607SOL     OW69717   3.351   4.127  11.090
22607SOL    HW169718   3.291   4.070  11.138
22607SOL    HW269719   3.317   4.215  11.106
22608SOL     OW69720   8.950  14.273   9.230
22608SOL    HW169721   9.004  14.258   9.152
22608SOL    HW269722   8.861  14.251   9.202
22609SOL     OW69723   3.537  10.818  10.280
22609SOL    HW169724   3.567  10.904  10.307
22609SOL    HW269725   3.443  10.828  10.265
22610SOL     OW69726  14.105   2.603  11.680
22610SOL    HW169727  14.146   2.571  11.760
22610SOL    HW269728  14.132   2.541  11.613
22611SOL     OW69729   8.058   9.496   0.676
22611SOL    HW169730   8.063   9.460   0.588
22611SOL    HW269731   8.041   9.589   0.663
22612SOL     OW69732  12.358  12.408   0.158
22612SOL    HW169733  12.355  12.327   0.209
22612SOL    HW269734  12.421  12.463   0.204
22613SOL     OW69735   0.299  13.521  10.508
22613SOL    HW169736   0.267  13.533  10.419
22613SOL    HW269737   0.237  13.569  10.563
22614SOL     OW69738   1.768   4.877   1.770
22614SOL    HW169739   1.744   4.967   1.790
22614SOL    HW269740   1.820   4.883   1.689
22615SOL     OW69741   8.932  11.567  11.270
22615SOL    HW169742   8.938  11.472  11.259
22615SOL    HW269743   8.919  11.601  11.181
22616SOL     OW69744  13.032   6.705   4.055
22616SOL    HW169745  12.961   6.769   4.064
22616SOL    HW269746  13.097   6.750   4.001
22617SOL     OW69747   3.293  11.779   5.580
22617SOL    HW169748   3.266  11.849   5.520
22617SOL    HW269749   3.371  11.742   5.540
22618SOL     OW69750   0.424  10.028   2.223
22618SOL    HW169751   0.343   9.998   2.262
22618SOL    HW269752   0.400  10.053   2.133
22619SOL     OW69753  10.800  11.677   4.049
22619SOL    HW169754  10.711  11.695   4.080
22619SOL    HW269755  10.855  11.741   4.094
22620SOL     OW69756   3.973   5.453   5.421
22620SOL    HW169757   3.883   5.432   5.396
22620SOL    HW269758   4.018   5.369   5.422
22621SOL     OW69759  10.646  10.972   9.006
22621SOL    HW169760  10.737  11.002   9.007
22621SOL    HW269761  10.651  10.880   8.979
22622SOL     OW69762  12.745   6.862   3.433
22622SOL    HW169763  12.730   6.791   3.495
22622SOL    HW269764  12.691   6.934   3.466
22623SOL     OW69765   3.846  14.387   2.029
22623SOL    HW169766   3.876  14.475   2.006
22623SOL    HW269767   3.772  14.371   1.970
22624SOL     OW69768   9.766   8.139   3.316
22624SOL    HW169769   9.706   8.193   3.367
22624SOL    HW269770   9.710   8.075   3.271
22625SOL     OW69771   7.865   8.008  14.288
22625SOL    HW169772   7.877   7.930  14.234
22625SOL    HW269773   7.935   8.003  14.354
22626SOL     OW69774   1.590  10.280   5.509
22626SOL    HW169775   1.541  10.198   5.499
22626SOL    HW269776   1.676  10.261   5.472
22627SOL     OW69777   1.650   6.858  12.176
22627SOL    HW169778   1.632   6.809  12.095
22627SOL    HW269779   1.591   6.934  12.171
22628SOL     OW69780   2.421   0.897  13.838
22628SOL    HW169781   2.391   0.909  13.928
22628SOL    HW269782   2.385   0.971  13.790
22629SOL     OW69783  10.157  14.372  14.323
22629SOL    HW169784  10.122  14.452  14.361
22629SOL    HW269785  10.237  14.400  14.277
22630SOL     OW69786   4.470   4.634   4.573
22630SOL    HW169787   4.392   4.626   4.629
22630SOL    HW269788   4.542   4.603   4.628
22631SOL     OW69789  10.413   7.593   1.813
22631SOL    HW169790  10.394   7.653   1.884
22631SOL    HW269791  10.368   7.512   1.837
22632SOL     OW69792  12.606  12.426   8.239
22632SOL    HW169793  12.641  12.400   8.154
22632SOL    HW269794  12.665  12.386   8.303
22633SOL     OW69795  14.124  13.963   7.131
22633SOL    HW169796  14.124  13.880   7.179
22633SOL    HW269797  14.197  14.013   7.168
22634SOL     OW69798   2.851   2.780  14.647
22634SOL    HW169799   2.820   2.712  14.707
22634SOL    HW269800   2.779   2.843  14.642
22635SOL     OW69801  10.982  14.579  12.755
22635SOL    HW169802  10.926  14.532  12.693
22635SOL    HW269803  11.070  14.546  12.738
22636SOL     OW69804   9.908   1.264   2.239
22636SOL    HW169805   9.998   1.290   2.254
22636SOL    HW269806   9.899   1.179   2.282
22637SOL     OW69807   8.322  11.045   5.572
22637SOL    HW169808   8.411  11.023   5.545
22637SOL    HW269809   8.322  11.140   5.582
22638SOL     OW69810   2.929   3.519   9.242
22638SOL    HW169811   2.836   3.538   9.227
22638SOL    HW269812   2.971   3.605   9.240
22639SOL     OW69813   8.337   9.518   1.802
22639SOL    HW169814   8.384   9.485   1.726
22639SOL    HW269815   8.318   9.441   1.855
22640SOL     OW69816   7.879   9.920  14.367
22640SOL    HW169817   7.838   9.943  14.283
22640SOL    HW269818   7.945   9.855  14.344
22641SOL     OW69819   4.798   3.494  13.085
22641SOL    HW169820   4.859   3.481  13.012
22641SOL    HW269821   4.853   3.528  13.156
22642SOL     OW69822   9.493   5.927   7.353
22642SOL    HW169823   9.444   5.939   7.434
22642SOL    HW269824   9.433   5.881   7.295
22643SOL     OW69825   0.755   1.413   3.728
22643SOL    HW169826   0.695   1.476   3.766
22643SOL    HW269827   0.701   1.337   3.708
22644SOL     OW69828  11.223   8.603  13.791
22644SOL    HW169829  11.223   8.543  13.716
22644SOL    HW269830  11.308   8.589  13.832
22645SOL     OW69831   4.280   5.712   2.564
22645SOL    HW169832   4.359   5.764   2.546
22645SOL    HW269833   4.260   5.729   2.655
22646SOL     OW69834  10.844   1.094   1.305
22646SOL    HW169835  10.928   1.091   1.261
22646SOL    HW269836  10.858   1.046   1.387
22647SOL     OW69837   7.711   1.522   6.196
22647SOL    HW169838   7.664   1.465   6.256
22647SOL    HW269839   7.688   1.611   6.223
22648SOL     OW69840   7.393  12.216   3.331
22648SOL    HW169841   7.392  12.292   3.389
22648SOL    HW269842   7.478  12.175   3.346
22649SOL     OW69843   0.172   4.378   4.819
22649SOL    HW169844   0.180   4.350   4.728
22649SOL    HW269845   0.081   4.359   4.841
22650SOL     OW69846   5.584   0.884  14.150
22650SOL    HW169847   5.593   0.898  14.056
22650SOL    HW269848   5.581   0.973  14.187
22651SOL     OW69849   2.139   9.803   6.603
22651SOL    HW169850   2.103   9.724   6.564
22651SOL    HW269851   2.126   9.871   6.537
22652SOL     OW69852   2.927   4.422  10.277
22652SOL    HW169853   2.949   4.477  10.202
22652SOL    HW269854   2.932   4.333  10.243
22653SOL     OW69855   3.807   8.987  10.145
22653SOL    HW169856   3.782   9.078  10.161
22653SOL    HW269857   3.759   8.962  10.066
22654SOL     OW69858   1.853   1.397  10.000
22654SOL    HW169859   1.776   1.452  10.011
22654SOL    HW269860   1.821   1.308  10.017
22655SOL     OW69861   7.064  14.095   9.370
22655SOL    HW169862   7.042  14.004   9.386
22655SOL    HW269863   7.081  14.131   9.458
22656SOL     OW69864   8.896   1.408   2.922
22656SOL    HW169865   8.965   1.457   2.877
22656SOL    HW269866   8.943   1.342   2.974
22657SOL     OW69867  10.950   5.822   3.814
22657SOL    HW169868  10.965   5.776   3.732
22657SOL    HW269869  11.037   5.835   3.850
22658SOL     OW69870  11.479  12.459  11.509
22658SOL    HW169871  11.502  12.519  11.579
22658SOL    HW269872  11.384  12.449  11.515
22659SOL     OW69873   4.415  12.900  12.721
22659SOL    HW169874   4.356  12.827  12.704
22659SOL    HW269875   4.374  12.974  12.676
22660SOL     OW69876   2.468   8.838   5.389
22660SOL    HW169877   2.453   8.921   5.343
22660SOL    HW269878   2.388   8.788   5.374
22661SOL     OW69879   0.924   3.313  11.784
22661SOL    HW169880   0.904   3.219  11.788
22661SOL    HW269881   0.955   3.335  11.872
22662SOL     OW69882   5.056   4.053   4.161
22662SOL    HW169883   5.082   4.146   4.164
22662SOL    HW269884   5.123   4.008   4.211
22663SOL     OW69885  11.757  10.773  12.020
22663SOL    HW169886  11.731  10.696  12.071
22663SOL    HW269887  11.743  10.847  12.079
22664SOL     OW69888  11.952  10.706   0.033
22664SOL    HW169889  12.025  10.645   0.041
22664SOL    HW269890  11.905  10.697   0.116
22665SOL     OW69891   4.528  14.324   9.495
22665SOL    HW169892   4.623  14.318   9.499
22665SOL    HW269893   4.498  14.271   9.569
22666SOL     OW69894  11.780   1.354   5.802
22666SOL    HW169895  11.695   1.395   5.785
22666SOL    HW269896  11.760   1.284   5.864
22667SOL     OW69897  11.714  11.539   2.614
22667SOL    HW169898  11.716  11.538   2.709
22667SOL    HW269899  11.807  11.536   2.589
22668SOL     OW69900   6.781  11.558   9.783
22668SOL    HW169901   6.802  11.488   9.721
22668SOL    HW269902   6.800  11.639   9.736
22669SOL     OW69903   8.706   7.914   7.673
22669SOL    HW169904   8.709   7.995   7.622
22669SOL    HW269905   8.717   7.845   7.607
22670SOL     OW69906  10.949  12.690  13.429
22670SOL    HW169907  10.971  12.783  13.431
22670SOL    HW269908  10.987  12.658  13.347
22671SOL     OW69909  13.057   8.592   3.042
22671SOL    HW169910  13.036   8.648   3.116
22671SOL    HW269911  13.048   8.649   2.966
22672SOL     OW69912   5.061   4.425   2.305
22672SOL    HW169913   5.126   4.419   2.235
22672SOL    HW269914   5.109   4.464   2.378
22673SOL     OW69915  13.162   8.948   9.397
22673SOL    HW169916  13.191   8.918   9.311
22673SOL    HW269917  13.241   8.948   9.451
22674SOL     OW69918  11.011   2.711   3.062
22674SOL    HW169919  10.968   2.794   3.046
22674SOL    HW269920  10.993   2.659   2.984
22675SOL     OW69921   6.418   5.131  13.673
22675SOL    HW169922   6.411   5.149  13.767
22675SOL    HW269923   6.352   5.064  13.657
22676SOL     OW69924   7.763  13.462  12.529
22676SOL    HW169925   7.680  13.417  12.518
22676SOL    HW269926   7.824  13.394  12.557
22677SOL     OW69927   3.343  14.569   2.676
22677SOL    HW169928   3.420  14.553   2.731
22677SOL    HW269929   3.301  14.483   2.670
22678SOL     OW69930   2.174   8.160   2.341
22678SOL    HW169931   2.113   8.233   2.337
22678SOL    HW269932   2.234   8.182   2.412
22679SOL     OW69933   0.916   5.401   6.831
22679SOL    HW169934   0.946   5.492   6.833
22679SOL    HW269935   0.855   5.397   6.758
22680SOL     OW69936  13.293  12.356   9.208
22680SOL    HW169937  13.284  12.339   9.302
22680SOL    HW269938  13.280  12.270   9.167
22681SOL     OW69939  10.536   8.593   3.431
22681SOL    HW169940  10.589   8.673   3.434
22681SOL    HW269941  10.500   8.585   3.519
22682SOL     OW69942   0.373  10.922   0.532
22682SOL    HW169943   0.324  10.999   0.560
22682SOL    HW269944   0.441  10.911   0.599
22683SOL     OW69945   8.017   2.143   7.824
22683SOL    HW169946   8.044   2.231   7.848
22683SOL    HW269947   7.921   2.147   7.824
22684SOL     OW69948   2.919  11.446   4.821
22684SOL    HW169949   2.829  11.474   4.805
22684SOL    HW269950   2.968  11.482   4.746
22685SOL     OW69951  11.019   6.418   3.539
22685SOL    HW169952  10.962   6.472   3.593
22685SOL    HW269953  11.101   6.411   3.590
22686SOL     OW69954  12.527   0.834   4.476
22686SOL    HW169955  12.572   0.877   4.548
22686SOL    HW269956  12.541   0.741   4.491
22687SOL     OW69957   3.190  11.279  12.055
22687SOL    HW169958   3.155  11.190  12.046
22687SOL    HW269959   3.235  11.279  12.139
22688SOL     OW69960   9.501  12.844   3.200
22688SOL    HW169961   9.516  12.753   3.227
22688SOL    HW269962   9.405  12.852   3.200
22689SOL     OW69963  12.214   9.728  12.551
22689SOL    HW169964  12.303   9.694  12.559
22689SOL    HW269965  12.158   9.652  12.569
22690SOL     OW69966   6.401   4.664  12.087
22690SOL    HW169967   6.344   4.606  12.137
22690SOL    HW269968   6.416   4.739  12.146
22691SOL     OW69969   5.782   2.981   7.534
22691SOL    HW169970   5.869   3.018   7.549
22691SOL    HW269971   5.754   3.018   7.450
22692SOL     OW69972   7.963   9.945   4.039
22692SOL    HW169973   7.887   9.895   4.068
22692SOL    HW269974   8.028   9.878   4.016
22693SOL     OW69975  10.463   8.273  14.514
22693SOL    HW169976  10.375   8.306  14.532
22693SOL    HW269977  10.518   8.316  14.579
22694SOL     OW69978  13.786  13.525  14.239
22694SOL    HW169979  13.866  13.572  14.215
22694SOL    HW269980  13.738  13.515  14.156
22695SOL     OW69981   6.937   3.792   4.200
22695SOL    HW169982   6.976   3.782   4.287
22695SOL    HW269983   7.010   3.817   4.144
22696SOL     OW69984  12.411  11.522  11.491
22696SOL    HW169985  12.347  11.503  11.560
22696SOL    HW269986  12.425  11.437  11.448
22697SOL     OW69987  13.848  13.443   4.858
22697SOL    HW169988  13.895  13.364   4.829
22697SOL    HW269989  13.918  13.505   4.880
22698SOL     OW69990   2.510  11.913   3.492
22698SOL    HW169991   2.417  11.901   3.511
22698SOL    HW269992   2.534  11.837   3.439
22699SOL     OW69993   7.460   5.836   8.264
22699SOL    HW169994   7.520   5.910   8.255
22699SOL    HW269995   7.384   5.873   8.310
22700SOL     OW69996   8.700   5.696  14.468
22700SOL    HW169997   8.638   5.707  14.396
22700SOL    HW269998   8.689   5.776  14.520
22701SOL     OW69999   4.769  10.780   5.103
22701SOL    HW170000   4.807  10.868   5.097
22701SOL    HW270001   4.776  10.758   5.196
22702SOL     OW70002   3.878   6.083   7.939
22702SOL    HW170003   3.872   6.075   8.034
22702SOL    HW270004   3.877   5.993   7.907
22703SOL     OW70005  10.251   5.967  14.180
22703SOL    HW170006  10.158   5.968  14.155
22703SOL    HW270007  10.298   5.970  14.097
22704SOL     OW70008  10.669  11.868   2.541
22704SOL    HW170009  10.726  11.857   2.617
22704SOL    HW270010  10.582  11.877   2.578
22705SOL     OW70011   4.850   7.952   3.813
22705SOL    HW170012   4.881   7.864   3.792
22705SOL    HW270013   4.923   8.009   3.789
22706SOL     OW70014  10.226   2.250   0.594
22706SOL    HW170015  10.279   2.325   0.569
22706SOL    HW270016  10.248   2.235   0.686
22707SOL     OW70017   2.436  10.587  12.813
22707SOL    HW170018   2.428  10.671  12.769
22707SOL    HW270019   2.456  10.525  12.743
22708SOL     OW70020  14.571  13.903   3.225
22708SOL    HW170021  14.630  13.889   3.299
22708SOL    HW270022  14.594  13.835   3.162
22709SOL     OW70023   8.315  11.713   0.074
22709SOL    HW170024   8.322  11.698   0.168
22709SOL    HW270025   8.222  11.703   0.054
22710SOL     OW70026  10.896  14.471   4.341
22710SOL    HW170027  10.802  14.456   4.338
22710SOL    HW270028  10.933  14.404   4.283
22711SOL     OW70029   0.458   4.565   7.201
22711SOL    HW170030   0.366   4.581   7.179
22711SOL    HW270031   0.476   4.621   7.276
22712SOL     OW70032   1.260   7.257  10.849
22712SOL    HW170033   1.309   7.198  10.906
22712SOL    HW270034   1.207   7.199  10.795
22713SOL     OW70035   0.068   3.809   6.936
22713SOL    HW170036   0.006   3.815   7.008
22713SOL    HW270037   0.039   3.876   6.874
22714SOL     OW70038   4.142   8.041   5.368
22714SOL    HW170039   4.130   7.952   5.336
22714SOL    HW270040   4.233   8.063   5.347
22715SOL     OW70041  14.187  14.211   8.031
22715SOL    HW170042  14.109  14.174   7.990
22715SOL    HW270043  14.235  14.134   8.063
22716SOL     OW70044   2.505   2.479   3.209
22716SOL    HW170045   2.420   2.484   3.164
22716SOL    HW270046   2.531   2.387   3.200
22717SOL     OW70047   7.809   9.508   6.359
22717SOL    HW170048   7.774   9.584   6.405
22717SOL    HW270049   7.738   9.444   6.362
22718SOL     OW70050   9.563   3.380  12.809
22718SOL    HW170051   9.593   3.461  12.768
22718SOL    HW270052   9.527   3.408  12.893
22719SOL     OW70053   1.361  13.076  14.290
22719SOL    HW170054   1.281  13.103  14.335
22719SOL    HW270055   1.418  13.042  14.359
22720SOL     OW70056   8.971  11.656  11.893
22720SOL    HW170057   8.901  11.704  11.849
22720SOL    HW270058   8.942  11.650  11.984
22721SOL     OW70059  14.826   9.243  14.624
22721SOL    HW170060  14.844   9.187  14.549
22721SOL    HW270061  14.866   9.327  14.601
22722SOL     OW70062   2.864   1.809   0.111
22722SOL    HW170063   2.867   1.714   0.097
22722SOL    HW270064   2.779   1.825   0.151
22723SOL     OW70065   7.222   2.896   2.090
22723SOL    HW170066   7.178   2.815   2.065
22723SOL    HW270067   7.153   2.949   2.130
22724SOL     OW70068  10.708  10.404  11.316
22724SOL    HW170069  10.703  10.315  11.351
22724SOL    HW270070  10.794  10.436  11.344
22725SOL     OW70071   4.550   3.174  13.003
22725SOL    HW170072   4.625   3.117  13.022
22725SOL    HW270073   4.483   3.115  12.969
22726SOL     OW70074   7.002   6.478  12.589
22726SOL    HW170075   7.059   6.463  12.664
22726SOL    HW270076   6.988   6.390  12.553
22727SOL     OW70077  10.529   8.371   2.720
22727SOL    HW170078  10.492   8.283   2.714
22727SOL    HW270079  10.454   8.428   2.736
22728SOL     OW70080   5.375   3.922   9.632
22728SOL    HW170081   5.345   3.851   9.575
22728SOL    HW270082   5.369   3.886   9.720
22729SOL     OW70083   6.610  11.161  13.099
22729SOL    HW170084   6.515  11.146  13.101
22729SOL    HW270085   6.648  11.075  13.118
22730SOL     OW70086   5.176  12.374  12.263
22730SOL    HW170087   5.227  12.454  12.279
22730SOL    HW270088   5.226  12.327  12.196
22731SOL     OW70089   1.756   2.418   7.848
22731SOL    HW170090   1.674   2.372   7.833
22731SOL    HW270091   1.746   2.501   7.802
22732SOL     OW70092  11.804  10.803  11.316
22732SOL    HW170093  11.717  10.764  11.324
22732SOL    HW270094  11.860  10.746  11.368
22733SOL     OW70095  12.445   8.933   8.002
22733SOL    HW170096  12.380   8.979   7.948
22733SOL    HW270097  12.520   8.921   7.944
22734SOL     OW70098  12.240  12.983   0.570
22734SOL    HW170099  12.256  13.036   0.492
22734SOL    HW270100  12.280  12.898   0.550
22735SOL     OW70101   0.444  12.796  13.350
22735SOL    HW170102   0.403  12.710  13.365
22735SOL    HW270103   0.389  12.857  13.399
22736SOL     OW70104  11.995  11.555   4.716
22736SOL    HW170105  11.955  11.468   4.706
22736SOL    HW270106  11.922  11.612   4.738
22737SOL     OW70107   7.506   1.885   0.000
22737SOL    HW170108   7.475   1.902   0.089
22737SOL    HW270109   7.471   1.798  14.851
22738SOL     OW70110  11.146  10.140   6.179
22738SOL    HW170111  11.113  10.150   6.268
22738SOL    HW270112  11.090  10.196   6.126
22739SOL     OW70113   1.888   8.066  14.504
22739SOL    HW170114   1.880   8.105  14.417
22739SOL    HW270115   1.853   8.132  14.563
22740SOL     OW70116   6.945  14.455  11.443
22740SOL    HW170117   6.882  14.410  11.500
22740SOL    HW270118   7.015  14.484  11.503
22741SOL     OW70119   9.640   8.308   3.486
22741SOL    HW170120   9.544   8.312   3.485
22741SOL    HW270121   9.661   8.247   3.556
22742SOL     OW70122   9.743   9.840  14.225
22742SOL    HW170123   9.800   9.882  14.288
22742SOL    HW270124   9.773   9.871  14.140
22743SOL     OW70125   3.352   5.378  11.697
22743SOL    HW170126   3.307   5.402  11.777
22743SOL    HW270127   3.426   5.325  11.726
22744SOL     OW70128   3.030   2.652   1.511
22744SOL    HW170129   3.101   2.678   1.452
22744SOL    HW270130   3.036   2.556   1.514
22745SOL     OW70131  13.983  11.357  14.382
22745SOL    HW170132  14.013  11.267  14.377
22745SOL    HW270133  13.889  11.352  14.366
22746SOL     OW70134   0.124   6.481  10.139
22746SOL    HW170135   0.201   6.526  10.104
22746SOL    HW270136   0.158   6.424  10.207
22747SOL     OW70137  12.629   0.229   9.797
22747SOL    HW170138  12.562   0.215   9.729
22747SOL    HW270139  12.710   0.243   9.748
22748SOL     OW70140   1.192   5.263   3.617
22748SOL    HW170141   1.190   5.311   3.535
22748SOL    HW270142   1.276   5.287   3.657
22749SOL     OW70143   2.201  10.283   7.402
22749SOL    HW170144   2.283  10.305   7.358
22749SOL    HW270145   2.218  10.199   7.444
22750SOL     OW70146   2.891  14.438   1.780
22750SOL    HW170147   2.849  14.479   1.704
22750SOL    HW270148   2.883  14.502   1.850
22751SOL     OW70149   1.550   1.145   2.175
22751SOL    HW170150   1.488   1.080   2.208
22751SOL    HW270151   1.574   1.196   2.252
22752SOL     OW70152   1.279   3.422   9.668
22752SOL    HW170153   1.187   3.447   9.656
22752SOL    HW270154   1.325   3.504   9.682
22753SOL     OW70155   5.627   1.062   2.210
22753SOL    HW170156   5.692   1.117   2.255
22753SOL    HW270157   5.572   1.124   2.163
22754SOL     OW70158  11.138   5.120  13.974
22754SOL    HW170159  11.215   5.135  14.029
22754SOL    HW270160  11.136   5.026  13.960
22755SOL     OW70161  13.444   3.285   3.875
22755SOL    HW170162  13.499   3.356   3.842
22755SOL    HW270163  13.431   3.227   3.800
22756SOL     OW70164  10.181   3.894  13.646
22756SOL    HW170165  10.113   3.916  13.710
22756SOL    HW270166  10.137   3.838  13.582
22757SOL     OW70167   8.407  10.715   9.351
22757SOL    HW170168   8.413  10.799   9.304
22757SOL    HW270169   8.481  10.665   9.319
22758SOL     OW70170   2.316   1.238  14.849
22758SOL    HW170171   2.274   1.270   0.058
22758SOL    HW270172   2.409   1.254  14.863
22759SOL     OW70173  13.153   7.753  12.305
22759SOL    HW170174  13.131   7.661  12.290
22759SOL    HW270175  13.190   7.783  12.222
22760SOL     OW70176   0.932  13.135   3.279
22760SOL    HW170177   1.009  13.187   3.256
22760SOL    HW270178   0.968  13.052   3.309
22761SOL     OW70179   6.140   4.789   7.117
22761SOL    HW170180   6.065   4.827   7.162
22761SOL    HW270181   6.213   4.801   7.177
22762SOL     OW70182   7.071   8.958   7.197
22762SOL    HW170183   7.095   8.917   7.114
22762SOL    HW270184   6.983   8.926   7.216
22763SOL     OW70185   3.506   8.421   5.286
22763SOL    HW170186   3.459   8.501   5.308
22763SOL    HW270187   3.477   8.358   5.352
22764SOL     OW70188   2.248   8.999   1.435
22764SOL    HW170189   2.222   9.089   1.454
22764SOL    HW270190   2.199   8.976   1.356
22765SOL     OW70191   2.417   5.687  14.209
22765SOL    HW170192   2.459   5.636  14.140
22765SOL    HW270193   2.455   5.774  14.202
22766SOL     OW70194   7.024   5.650  14.814
22766SOL    HW170195   7.107   5.606  14.830
22766SOL    HW270196   6.982   5.597  14.745
22767SOL     OW70197   1.069  13.919   6.709
22767SOL    HW170198   1.045  14.004   6.673
22767SOL    HW270199   1.129  13.939   6.781
22768SOL     OW70200  14.801   2.907   6.510
22768SOL    HW170201  14.743   2.884   6.437
22768SOL    HW270202  14.755   2.877   6.588
22769SOL     OW70203  11.714   6.037   7.438
22769SOL    HW170204  11.780   6.031   7.508
22769SOL    HW270205  11.631   6.015   7.481
22770SOL     OW70206   1.317   5.245   5.700
22770SOL    HW170207   1.333   5.338   5.690
22770SOL    HW270208   1.368   5.204   5.630
22771SOL     OW70209   0.635   8.283  10.668
22771SOL    HW170210   0.552   8.331  10.669
22771SOL    HW270211   0.686   8.323  10.599
22772SOL     OW70212   4.098  12.688   8.569
22772SOL    HW170213   4.142  12.685   8.484
22772SOL    HW270214   4.169  12.689   8.633
22773SOL     OW70215   0.437   7.617   7.470
22773SOL    HW170216   0.412   7.675   7.543
22773SOL    HW270217   0.358   7.612   7.416
22774SOL     OW70218   9.543  11.325  13.784
22774SOL    HW170219   9.566  11.417  13.790
22774SOL    HW270220   9.455  11.320  13.819
22775SOL     OW70221   4.280  12.929   5.776
22775SOL    HW170222   4.241  13.013   5.798
22775SOL    HW270223   4.281  12.881   5.859
22776SOL     OW70224  11.784  12.857  10.678
22776SOL    HW170225  11.740  12.807  10.747
22776SOL    HW270226  11.721  12.857  10.606
22777SOL     OW70227   2.383   2.867   6.660
22777SOL    HW170228   2.476   2.867   6.640
22777SOL    HW270229   2.340   2.878   6.575
22778SOL     OW70230  10.414   8.642  14.617
22778SOL    HW170231  10.365   8.561  14.603
22778SOL    HW270232  10.505   8.614  14.619
22779SOL     OW70233   3.926   8.315   1.252
22779SOL    HW170234   3.832   8.303   1.242
22779SOL    HW270235   3.947   8.271   1.334
22780SOL     OW70236   7.081  10.993  13.329
22780SOL    HW170237   7.090  11.023  13.239
22780SOL    HW270238   7.033  10.910  13.323
22781SOL     OW70239   4.912   0.133   5.887
22781SOL    HW170240   4.956   0.183   5.819
22781SOL    HW270241   4.883   0.053   5.843
22782SOL     OW70242  10.080   6.917   0.567
22782SOL    HW170243  10.085   6.920   0.471
22782SOL    HW270244   9.987   6.926   0.586
22783SOL     OW70245   6.118   3.839   4.173
22783SOL    HW170246   6.190   3.830   4.110
22783SOL    HW270247   6.158   3.818   4.257
22784SOL     OW70248  12.760   4.718  14.004
22784SOL    HW170249  12.820   4.644  14.010
22784SOL    HW270250  12.767   4.748  13.913
22785SOL     OW70251   3.700  10.833   9.172
22785SOL    HW170252   3.730  10.875   9.252
22785SOL    HW270253   3.777  10.829   9.116
22786SOL     OW70254   8.169  10.087   0.091
22786SOL    HW170255   8.218  10.011   0.122
22786SOL    HW270256   8.175  10.150   0.163
22787SOL     OW70257   4.911   5.213   2.269
22787SOL    HW170258   4.919   5.301   2.307
22787SOL    HW270259   4.999   5.193   2.236
22788SOL     OW70260   1.241   7.645   6.201
22788SOL    HW170261   1.287   7.713   6.152
22788SOL    HW270262   1.248   7.672   6.292
22789SOL     OW70263   0.977   8.586  10.043
22789SOL    HW170264   1.026   8.524   9.988
22789SOL    HW270265   0.960   8.660   9.985
22790SOL     OW70266   0.361   4.520   5.746
22790SOL    HW170267   0.406   4.542   5.665
22790SOL    HW270268   0.269   4.517   5.723
22791SOL     OW70269   3.777  11.817  13.175
22791SOL    HW170270   3.774  11.842  13.267
22791SOL    HW270271   3.772  11.900  13.128
22792SOL     OW70272   1.875   9.875  13.875
22792SOL    HW170273   1.828   9.861  13.793
22792SOL    HW270274   1.967   9.885  13.850
22793SOL     OW70275   7.835   7.485   5.789
22793SOL    HW170276   7.802   7.404   5.750
22793SOL    HW270277   7.792   7.490   5.874
22794SOL     OW70278   1.974  12.449   4.183
22794SOL    HW170279   2.036  12.387   4.144
22794SOL    HW270280   1.973  12.523   4.123
22795SOL     OW70281   1.940   9.321   7.281
22795SOL    HW170282   1.993   9.243   7.299
22795SOL    HW270283   1.959   9.381   7.353
22796SOL     OW70284   8.164   1.175  12.596
22796SOL    HW170285   8.158   1.091  12.550
22796SOL    HW270286   8.254   1.203  12.581
22797SOL     OW70287  11.315  10.793   3.858
22797SOL    HW170288  11.339  10.745   3.937
22797SOL    HW270289  11.352  10.741   3.786
22798SOL     OW70290  10.803   6.459   8.353
22798SOL    HW170291  10.709   6.441   8.353
22798SOL    HW270292  10.812   6.542   8.400
22799SOL     OW70293  14.449   0.598  12.087
22799SOL    HW170294  14.438   0.666  12.153
22799SOL    HW270295  14.495   0.528  12.133
22800SOL     OW70296  12.203  12.528  13.304
22800SOL    HW170297  12.299  12.530  13.309
22800SOL    HW270298  12.174  12.534  13.394
22801SOL     OW70299   1.503   9.591  11.369
22801SOL    HW170300   1.584   9.541  11.370
22801SOL    HW270301   1.531   9.682  11.367
22802SOL     OW70302  10.304  12.561   4.438
22802SOL    HW170303  10.290  12.536   4.347
22802SOL    HW270304  10.242  12.508   4.488
22803SOL     OW70305  13.576   9.987  14.604
22803SOL    HW170306  13.558   9.947  14.519
22803SOL    HW270307  13.585   9.912  14.664
22804SOL     OW70308  11.816  11.498  11.214
22804SOL    HW170309  11.828  11.592  11.230
22804SOL    HW270310  11.878  11.456  11.274
22805SOL     OW70311   6.205  11.179   0.360
22805SOL    HW170312   6.233  11.262   0.397
22805SOL    HW270313   6.128  11.153   0.411
22806SOL     OW70314  10.452  12.212   3.743
22806SOL    HW170315  10.452  12.258   3.827
22806SOL    HW270316  10.462  12.120   3.767
22807SOL     OW70317  10.935  11.393  10.819
22807SOL    HW170318  10.947  11.303  10.790
22807SOL    HW270319  11.023  11.432  10.812
22808SOL     OW70320  10.982   9.640   8.067
22808SOL    HW170321  10.977   9.596   7.982
22808SOL    HW270322  10.896   9.628   8.106
22809SOL     OW70323  13.806   3.390   5.133
22809SOL    HW170324  13.768   3.472   5.166
22809SOL    HW270325  13.744   3.322   5.161
22810SOL     OW70326   3.833  12.611   1.736
22810SOL    HW170327   3.776  12.635   1.663
22810SOL    HW270328   3.778  12.619   1.814
22811SOL     OW70329   7.415   7.541   9.812
22811SOL    HW170330   7.381   7.598   9.743
22811SOL    HW270331   7.378   7.576   9.893
22812SOL     OW70332   3.577   9.990   6.379
22812SOL    HW170333   3.604  10.028   6.463
22812SOL    HW270334   3.514  10.053   6.343
22813SOL     OW70335  13.581  14.603   0.348
22813SOL    HW170336  13.512  14.576   0.288
22813SOL    HW270337  13.654  14.629   0.292
22814SOL     OW70338  10.762  14.570   9.303
22814SOL    HW170339  10.789  14.517   9.378
22814SOL    HW270340  10.670  14.591   9.320
22815SOL     OW70341   0.301   3.705   2.466
22815SOL    HW170342   0.215   3.709   2.425
22815SOL    HW270343   0.347   3.783   2.434
22816SOL     OW70344  13.712  13.803   7.389
22816SOL    HW170345  13.633  13.841   7.427
22816SOL    HW270346  13.773  13.797   7.462
22817SOL     OW70347   6.124   7.181  12.051
22817SOL    HW170348   6.183   7.229  12.109
22817SOL    HW270349   6.181   7.121  12.002
22818SOL     OW70350   6.874  12.981  11.152
22818SOL    HW170351   6.812  13.051  11.171
22818SOL    HW270352   6.952  13.004  11.203
22819SOL     OW70353  13.180   6.669   4.307
22819SOL    HW170354  13.139   6.628   4.383
22819SOL    HW270355  13.106   6.692   4.250
22820SOL     OW70356  12.588   9.687   2.058
22820SOL    HW170357  12.525   9.716   1.991
22820SOL    HW270358  12.550   9.605   2.092
22821SOL     OW70359   5.824   4.924   6.372
22821SOL    HW170360   5.883   4.886   6.437
22821SOL    HW270361   5.862   5.010   6.353
22822SOL     OW70362  11.758  14.086   3.852
22822SOL    HW170363  11.826  14.130   3.903
22822SOL    HW270364  11.805  14.044   3.780
22823SOL     OW70365  10.950   6.390   4.035
22823SOL    HW170366  11.008   6.431   4.100
22823SOL    HW270367  10.945   6.454   3.964
22824SOL     OW70368   7.957   0.898   4.723
22824SOL    HW170369   7.918   0.857   4.646
22824SOL    HW270370   7.982   0.824   4.779
22825SOL     OW70371   5.112  13.839   9.454
22825SOL    HW170372   5.062  13.920   9.444
22825SOL    HW270373   5.150  13.824   9.367
22826SOL     OW70374   0.614  14.275  14.522
22826SOL    HW170375   0.575  14.332  14.588
22826SOL    HW270376   0.565  14.294  14.442
22827SOL     OW70377   5.993   9.483   4.380
22827SOL    HW170378   5.925   9.550   4.384
22827SOL    HW270379   5.989   9.440   4.465
22828SOL     OW70380  10.285   9.667   1.507
22828SOL    HW170381  10.226   9.691   1.435
22828SOL    HW270382  10.344   9.602   1.469
22829SOL     OW70383   0.872   6.116   0.317
22829SOL    HW170384   0.903   6.180   0.381
22829SOL    HW270385   0.861   6.035   0.368
22830SOL     OW70386  12.990   2.502   7.469
22830SOL    HW170387  12.939   2.452   7.405
22830SOL    HW270388  12.940   2.496   7.550
22831SOL     OW70389   3.601   5.785  10.899
22831SOL    HW170390   3.681   5.837  10.889
22831SOL    HW270391   3.562   5.783  10.812
22832SOL     OW70392   5.515   8.334  13.085
22832SOL    HW170393   5.562   8.253  13.106
22832SOL    HW270394   5.560   8.369  13.008
22833SOL     OW70395  11.553   4.781   1.052
22833SOL    HW170396  11.459   4.784   1.032
22833SOL    HW270397  11.572   4.867   1.090
22834SOL     OW70398   8.575   8.280   3.928
22834SOL    HW170399   8.508   8.313   3.988
22834SOL    HW270400   8.654   8.327   3.953
22835SOL     OW70401  14.578  10.868  14.122
22835SOL    HW170402  14.509  10.875  14.056
22835SOL    HW270403  14.560  10.786  14.168
22836SOL     OW70404   1.683   1.911  11.273
22836SOL    HW170405   1.732   1.903  11.191
22836SOL    HW270406   1.745   1.949  11.335
22837SOL     OW70407   2.404  10.977   2.310
22837SOL    HW170408   2.459  10.930   2.247
22837SOL    HW270409   2.350  10.909   2.349
22838SOL     OW70410   8.445   0.229  11.932
22838SOL    HW170411   8.514   0.266  11.988
22838SOL    HW270412   8.376   0.205  11.993
22839SOL     OW70413   0.623   3.996  13.721
22839SOL    HW170414   0.565   3.940  13.773
22839SOL    HW270415   0.705   3.947  13.715
22840SOL     OW70416  14.459   1.209   2.134
22840SOL    HW170417  14.443   1.192   2.041
22840SOL    HW270418  14.535   1.155   2.156
22841SOL     OW70419  11.831   9.244  10.153
22841SOL    HW170420  11.870   9.228  10.068
22841SOL    HW270421  11.817   9.338  10.157
22842SOL     OW70422  12.839  14.701  14.090
22842SOL    HW170423  12.761  14.674  14.139
22842SOL    HW270424  12.849  14.634  14.022
22843SOL     OW70425  12.811   1.710   4.554
22843SOL    HW170426  12.737   1.731   4.497
22843SOL    HW270427  12.770   1.685   4.637
22844SOL     OW70428   1.784  10.110  14.598
22844SOL    HW170429   1.834  10.184  14.633
22844SOL    HW270430   1.698  10.116  14.639
22845SOL     OW70431   7.161  11.147   3.343
22845SOL    HW170432   7.237  11.125   3.289
22845SOL    HW270433   7.117  11.063   3.358
22846SOL     OW70434   0.723   5.918  11.917
22846SOL    HW170435   0.721   5.924  12.012
22846SOL    HW270436   0.710   5.825  11.898
22847SOL     OW70437   4.260  11.918   1.319
22847SOL    HW170438   4.189  11.975   1.348
22847SOL    HW270439   4.338  11.974   1.323
22848SOL     OW70440   1.139   4.345   6.077
22848SOL    HW170441   1.233   4.327   6.072
22848SOL    HW270442   1.113   4.362   5.986
22849SOL     OW70443   0.045  14.040  10.147
22849SOL    HW170444   0.094  14.068  10.224
22849SOL    HW270445   0.016  13.952  10.168
22850SOL     OW70446   6.718  12.552  10.712
22850SOL    HW170447   6.803  12.522  10.743
22850SOL    HW270448   6.734  12.584  10.624
22851SOL     OW70449   7.193   4.725  12.128
22851SOL    HW170450   7.170   4.639  12.093
22851SOL    HW270451   7.170   4.720  12.221
22852SOL     OW70452   9.473   8.566  13.192
22852SOL    HW170453   9.462   8.654  13.158
22852SOL    HW270454   9.556   8.536  13.156
22853SOL     OW70455   4.611  13.316  11.679
22853SOL    HW170456   4.607  13.224  11.656
22853SOL    HW270457   4.529  13.353  11.646
22854SOL     OW70458   1.187   1.639   5.573
22854SOL    HW170459   1.246   1.568   5.598
22854SOL    HW270460   1.099   1.603   5.582
22855SOL     OW70461   2.014   7.472   1.224
22855SOL    HW170462   1.962   7.422   1.288
22855SOL    HW270463   2.001   7.564   1.250
22856SOL     OW70464   8.523   4.531   8.511
22856SOL    HW170465   8.521   4.533   8.415
22856SOL    HW270466   8.583   4.602   8.534
22857SOL     OW70467   4.518   4.545  14.019
22857SOL    HW170468   4.492   4.562  13.928
22857SOL    HW270469   4.581   4.615  14.039
22858SOL     OW70470   5.602   2.510  14.287
22858SOL    HW170471   5.660   2.507  14.364
22858SOL    HW270472   5.528   2.563  14.315
22859SOL     OW70473   2.743  13.976  12.368
22859SOL    HW170474   2.683  13.915  12.325
22859SOL    HW270475   2.810  13.920  12.406
22860SOL     OW70476   9.643  12.646  10.914
22860SOL    HW170477   9.672  12.717  10.971
22860SOL    HW270478   9.587  12.592  10.971
22861SOL     OW70479  11.448  12.996   1.289
22861SOL    HW170480  11.390  12.984   1.213
22861SOL    HW270481  11.500  12.916   1.292
22862SOL     OW70482   8.244   4.943   2.704
22862SOL    HW170483   8.186   4.896   2.764
22862SOL    HW270484   8.210   4.924   2.617
22863SOL     OW70485   2.787   1.423   2.738
22863SOL    HW170486   2.833   1.502   2.766
22863SOL    HW270487   2.841   1.388   2.667
22864SOL     OW70488   3.682   7.891   6.446
22864SOL    HW170489   3.752   7.929   6.394
22864SOL    HW270490   3.602   7.932   6.414
22865SOL     OW70491   5.743   2.936   5.953
22865SOL    HW170492   5.686   3.004   5.988
22865SOL    HW270493   5.694   2.901   5.878
22866SOL     OW70494   7.108   7.710  13.650
22866SOL    HW170495   7.123   7.680  13.560
22866SOL    HW270496   7.127   7.804  13.648
22867SOL     OW70497   2.186   0.007   1.815
22867SOL    HW170498   2.094  14.853   1.817
22867SOL    HW270499   2.203   0.031   1.724
22868SOL     OW70500  12.580  13.852   2.512
22868SOL    HW170501  12.646  13.869   2.444
22868SOL    HW270502  12.509  13.913   2.492
22869SOL     OW70503   5.085   7.278  12.843
22869SOL    HW170504   5.070   7.328  12.763
22869SOL    HW270505   5.069   7.187  12.818
22870SOL     OW70506   1.810   2.823   8.330
22870SOL    HW170507   1.857   2.741   8.315
22870SOL    HW270508   1.732   2.797   8.379
22871SOL     OW70509  14.366   7.704  12.614
22871SOL    HW170510  14.372   7.779  12.673
22871SOL    HW270511  14.294   7.652  12.650
22872SOL     OW70512   0.468   6.378   5.453
22872SOL    HW170513   0.408   6.311   5.421
22872SOL    HW270514   0.413   6.436   5.506
22873SOL     OW70515  11.925   5.228  13.890
22873SOL    HW170516  11.986   5.268  13.828
22873SOL    HW270517  11.885   5.157  13.841
22874SOL     OW70518   8.206  10.061   9.628
22874SOL    HW170519   8.121  10.103   9.612
22874SOL    HW270520   8.242  10.047   9.541
22875SOL     OW70521   2.851  13.364   5.928
22875SOL    HW170522   2.866  13.364   6.022
22875SOL    HW270523   2.761  13.332   5.918
22876SOL     OW70524   7.497   0.507  13.726
22876SOL    HW170525   7.456   0.524  13.641
22876SOL    HW270526   7.591   0.507  13.707
22877SOL     OW70527   7.370   2.234  13.330
22877SOL    HW170528   7.349   2.277  13.413
22877SOL    HW270529   7.465   2.241  13.323
22878SOL     OW70530   7.805   5.298   8.415
22878SOL    HW170531   7.753   5.315   8.336
22878SOL    HW270532   7.740   5.293   8.485
22879SOL     OW70533   4.869   9.392  13.466
22879SOL    HW170534   4.932   9.327  13.496
22879SOL    HW270535   4.794   9.381  13.524
22880SOL     OW70536   8.000   3.746   2.452
22880SOL    HW170537   7.918   3.786   2.420
22880SOL    HW270538   8.036   3.702   2.375
22881SOL     OW70539  14.304   9.733   5.020
22881SOL    HW170540  14.277   9.650   4.982
22881SOL    HW270541  14.308   9.716   5.114
22882SOL     OW70542   0.635   2.413   0.783
22882SOL    HW170543   0.584   2.335   0.806
22882SOL    HW270544   0.656   2.453   0.868
22883SOL     OW70545   2.416  10.263   9.666
22883SOL    HW170546   2.473  10.207   9.614
22883SOL    HW270547   2.453  10.351   9.656
22884SOL     OW70548  12.749   1.760  14.638
22884SOL    HW170549  12.725   1.784  14.728
22884SOL    HW270550  12.843   1.776  14.633
22885SOL     OW70551   7.165   4.926   7.896
22885SOL    HW170552   7.088   4.983   7.905
22885SOL    HW270553   7.240   4.984   7.911
22886SOL     OW70554   9.322   0.092   8.223
22886SOL    HW170555   9.282   0.059   8.143
22886SOL    HW270556   9.312   0.022   8.287
22887SOL     OW70557   9.778   9.285   3.749
22887SOL    HW170558   9.782   9.280   3.845
22887SOL    HW270559   9.688   9.310   3.730
22888SOL     OW70560   3.633   4.538  14.753
22888SOL    HW170561   3.725   4.563  14.761
22888SOL    HW270562   3.619   4.474  14.823
22889SOL     OW70563   8.293   0.316   5.547
22889SOL    HW170564   8.323   0.401   5.515
22889SOL    HW270565   8.358   0.254   5.514
22890SOL     OW70566   1.994  13.561   6.741
22890SOL    HW170567   2.020  13.535   6.829
22890SOL    HW270568   1.914  13.612   6.754
22891SOL     OW70569   0.414   1.214  11.367
22891SOL    HW170570   0.379   1.292  11.410
22891SOL    HW270571   0.340   1.155  11.358
22892SOL     OW70572   5.732   2.695   8.243
22892SOL    HW170573   5.765   2.689   8.154
22892SOL    HW270574   5.655   2.638   8.244
22893SOL     OW70575   0.993   8.165   0.317
22893SOL    HW170576   1.088   8.165   0.321
22893SOL    HW270577   0.965   8.211   0.396
22894SOL     OW70578   2.761   7.525  13.095
22894SOL    HW170579   2.828   7.512  13.028
22894SOL    HW270580   2.684   7.479  13.060
22895SOL     OW70581   3.659   4.470   1.916
22895SOL    HW170582   3.604   4.477   1.994
22895SOL    HW270583   3.681   4.561   1.895
22896SOL     OW70584   3.356  11.195   7.021
22896SOL    HW170585   3.381  11.243   6.942
22896SOL    HW270586   3.262  11.182   7.013
22897SOL     OW70587   7.991   3.804   5.767
22897SOL    HW170588   8.063   3.807   5.831
22897SOL    HW270589   8.017   3.867   5.700
22898SOL     OW70590  14.837  12.565   7.193
22898SOL    HW170591  14.815  12.644   7.243
22898SOL    HW270592  14.845  12.595   7.103
22899SOL     OW70593   7.313  11.405   4.744
22899SOL    HW170594   7.306  11.310   4.751
22899SOL    HW270595   7.368  11.419   4.666
22900SOL     OW70596  13.382  12.203   2.364
22900SOL    HW170597  13.403  12.296   2.366
22900SOL    HW270598  13.465  12.159   2.382
22901SOL     OW70599   4.786   0.386   1.482
22901SOL    HW170600   4.729   0.309   1.491
22901SOL    HW270601   4.825   0.397   1.569
22902SOL     OW70602  12.830   0.641  13.489
22902SOL    HW170603  12.737   0.665  13.484
22902SOL    HW270604  12.873   0.702  13.429
22903SOL     OW70605  14.217   9.775  11.629
22903SOL    HW170606  14.230   9.699  11.685
22903SOL    HW270607  14.306   9.801  11.603
22904SOL     OW70608   8.555  12.319  11.293
22904SOL    HW170609   8.605  12.354  11.366
22904SOL    HW270610   8.529  12.231  11.322
22905SOL     OW70611  11.721   0.888   0.146
22905SOL    HW170612  11.688   0.972   0.180
22905SOL    HW270613  11.674   0.876   0.064
22906SOL     OW70614   0.692   8.383   2.461
22906SOL    HW170615   0.708   8.470   2.497
22906SOL    HW270616   0.768   8.366   2.405
22907SOL     OW70617  12.076  10.823   6.033
22907SOL    HW170618  12.130  10.844   6.109
22907SOL    HW270619  12.043  10.735   6.050
22908SOL     OW70620  12.342  10.267  12.470
22908SOL    HW170621  12.351  10.336  12.403
22908SOL    HW270622  12.423  10.217  12.464
22909SOL     OW70623   1.501   8.526   8.557
22909SOL    HW170624   1.569   8.585   8.526
22909SOL    HW270625   1.545   8.442   8.568
22910SOL     OW70626   4.154   0.036  12.205
22910SOL    HW170627   4.119  14.819  12.192
22910SOL    HW270628   4.077   0.092  12.207
22911SOL     OW70629  10.686   3.794  10.646
22911SOL    HW170630  10.622   3.745  10.698
22911SOL    HW270631  10.697   3.877  10.694
22912SOL     OW70632   1.924   8.962   0.179
22912SOL    HW170633   1.854   8.936   0.239
22912SOL    HW270634   1.938   8.884   0.124
22913SOL     OW70635   8.602   5.947   7.088
22913SOL    HW170636   8.638   6.033   7.069
22913SOL    HW270637   8.533   5.964   7.153
22914SOL     OW70638   8.516   4.069   5.358
22914SOL    HW170639   8.555   3.983   5.374
22914SOL    HW270640   8.494   4.102   5.445
22915SOL     OW70641   3.588  11.294   6.242
22915SOL    HW170642   3.550  11.217   6.199
22915SOL    HW270643   3.593  11.269   6.334
22916SOL     OW70644   0.700   1.985   5.537
22916SOL    HW170645   0.763   1.914   5.548
22916SOL    HW270646   0.739   2.060   5.581
22917SOL     OW70647   1.133  11.396  13.292
22917SOL    HW170648   1.152  11.369  13.202
22917SOL    HW270649   1.091  11.319  13.330
22918SOL     OW70650  10.049   1.765   8.273
22918SOL    HW170651  10.096   1.703   8.330
22918SOL    HW270652   9.980   1.800   8.329
22919SOL     OW70653   4.059  14.705   5.146
22919SOL    HW170654   3.982  14.736   5.195
22919SOL    HW270655   4.123  14.682   5.214
22920SOL     OW70656   8.759  13.989   3.562
22920SOL    HW170657   8.791  14.051   3.627
22920SOL    HW270658   8.799  14.017   3.480
22921SOL     OW70659  10.760   2.349   5.237
22921SOL    HW170660  10.823   2.402   5.286
22921SOL    HW270661  10.788   2.258   5.255
22922SOL     OW70662  12.078   5.081   9.348
22922SOL    HW170663  12.062   5.150   9.284
22922SOL    HW270664  12.059   5.121   9.433
22923SOL     OW70665   1.026  13.662  11.860
22923SOL    HW170666   1.108  13.618  11.838
22923SOL    HW270667   1.050  13.755  11.865
22924SOL     OW70668  11.212   7.906   9.261
22924SOL    HW170669  11.129   7.918   9.214
22924SOL    HW270670  11.279   7.930   9.197
22925SOL     OW70671  13.445   8.215   7.314
22925SOL    HW170672  13.437   8.146   7.381
22925SOL    HW270673  13.483   8.289   7.361
22926SOL     OW70674   1.935  10.871  12.867
22926SOL    HW170675   1.897  10.836  12.787
22926SOL    HW270676   2.018  10.910  12.840
22927SOL     OW70677   7.100   1.245   5.286
22927SOL    HW170678   7.063   1.265   5.201
22927SOL    HW270679   7.028   1.204   5.335
22928SOL     OW70680   1.306   8.499   2.432
22928SOL    HW170681   1.319   8.494   2.526
22928SOL    HW270682   1.259   8.418   2.410
22929SOL     OW70683  10.326   7.458   4.837
22929SOL    HW170684  10.339   7.414   4.921
22929SOL    HW270685  10.407   7.442   4.789
22930SOL     OW70686  10.714   1.587  10.771
22930SOL    HW170687  10.716   1.498  10.806
22930SOL    HW270688  10.753   1.641  10.841
22931SOL     OW70689   7.611  13.386   6.627
22931SOL    HW170690   7.641  13.297   6.607
22931SOL    HW270691   7.653  13.441   6.560
22932SOL     OW70692   9.630   6.106   7.712
22932SOL    HW170693   9.602   6.197   7.716
22932SOL    HW270694   9.684   6.101   7.633
22933SOL     OW70695   4.394   6.724   0.407
22933SOL    HW170696   4.379   6.759   0.495
22933SOL    HW270697   4.486   6.746   0.388
22934SOL     OW70698  11.476   5.922  14.291
22934SOL    HW170699  11.402   5.907  14.232
22934SOL    HW270700  11.439   5.916  14.379
22935SOL     OW70701   1.872   5.754  10.434
22935SOL    HW170702   1.958   5.715  10.417
22935SOL    HW270703   1.885   5.848  10.419
22936SOL     OW70704   5.600   8.973   1.768
22936SOL    HW170705   5.637   9.025   1.839
22936SOL    HW270706   5.517   9.016   1.746
22937SOL     OW70707   6.634   9.615   0.246
22937SOL    HW170708   6.659   9.660   0.326
22937SOL    HW270709   6.538   9.618   0.245
22938SOL     OW70710   1.875   7.814   0.729
22938SOL    HW170711   1.918   7.751   0.788
22938SOL    HW270712   1.923   7.896   0.743
22939SOL     OW70713  10.154   8.719   3.642
22939SOL    HW170714  10.060   8.728   3.660
22939SOL    HW270715  10.162   8.744   3.550
22940SOL     OW70716   3.737   7.592   6.020
22940SOL    HW170717   3.826   7.626   6.011
22940SOL    HW270718   3.746   7.515   6.076
22941SOL     OW70719   8.862   9.401  12.654
22941SOL    HW170720   8.790   9.406  12.592
22941SOL    HW270721   8.850   9.477  12.711
22942SOL     OW70722   5.794   7.465  11.732
22942SOL    HW170723   5.710   7.473  11.776
22942SOL    HW270724   5.855   7.436  11.800
22943SOL     OW70725   0.885   5.017  14.060
22943SOL    HW170726   0.802   4.979  14.087
22943SOL    HW270727   0.951   4.959  14.097
22944SOL     OW70728  10.006   4.223   7.775
22944SOL    HW170729   9.976   4.314   7.769
22944SOL    HW270730   9.925   4.172   7.772
22945SOL     OW70731  13.437   5.852   6.311
22945SOL    HW170732  13.505   5.861   6.245
22945SOL    HW270733  13.484   5.833   6.392
22946SOL     OW70734   5.001   9.491   2.926
22946SOL    HW170735   5.050   9.416   2.893
22946SOL    HW270736   4.938   9.511   2.857
22947SOL     OW70737   8.887   6.683   5.325
22947SOL    HW170738   8.858   6.718   5.410
22947SOL    HW270739   8.951   6.615   5.348
22948SOL     OW70740  11.024   6.550   5.317
22948SOL    HW170741  10.952   6.502   5.277
22948SOL    HW270742  11.075   6.584   5.244
22949SOL     OW70743  10.990  11.365  11.650
22949SOL    HW170744  10.993  11.313  11.731
22949SOL    HW270745  10.949  11.447  11.676
22950SOL     OW70746   4.457  13.390   1.292
22950SOL    HW170747   4.513  13.426   1.223
22950SOL    HW270748   4.368  13.395   1.256
22951SOL     OW70749   0.565  11.564  13.969
22951SOL    HW170750   0.485  11.544  14.017
22951SOL    HW270751   0.603  11.478  13.949
22952SOL     OW70752   0.833  12.885   0.160
22952SOL    HW170753   0.779  12.874   0.082
22952SOL    HW270754   0.920  12.853   0.134
22953SOL     OW70755   7.221   3.259   9.929
22953SOL    HW170756   7.159   3.283   9.998
22953SOL    HW270757   7.213   3.163   9.923
22954SOL     OW70758  11.748   8.739  13.519
22954SOL    HW170759  11.690   8.766  13.590
22954SOL    HW270760  11.817   8.806  13.517
22955SOL     OW70761  10.409  13.262   3.231
22955SOL    HW170762  10.467  13.294   3.300
22955SOL    HW270763  10.382  13.340   3.184
22956SOL     OW70764  11.753   9.530   2.381
22956SOL    HW170765  11.780   9.514   2.290
22956SOL    HW270766  11.717   9.618   2.379
22957SOL     OW70767   6.813  13.285   2.406
22957SOL    HW170768   6.748  13.356   2.402
22957SOL    HW270769   6.763  13.206   2.387
22958SOL     OW70770   2.725   8.513   3.507
22958SOL    HW170771   2.692   8.435   3.551
22958SOL    HW270772   2.754   8.571   3.578
22959SOL     OW70773  11.115   7.185   8.674
22959SOL    HW170774  11.089   7.127   8.602
22959SOL    HW270775  11.106   7.131   8.752
22960SOL     OW70776   7.273  12.947   9.039
22960SOL    HW170777   7.323  12.867   9.058
22960SOL    HW270778   7.189  12.915   9.007
22961SOL     OW70779   3.925  11.161   3.472
22961SOL    HW170780   4.006  11.209   3.491
22961SOL    HW270781   3.913  11.104   3.548
22962SOL     OW70782  14.175   9.589  10.077
22962SOL    HW170783  14.265   9.578  10.107
22962SOL    HW270784  14.167   9.530  10.002
22963SOL     OW70785  11.754   6.750   0.405
22963SOL    HW170786  11.793   6.819   0.459
22963SOL    HW270787  11.734   6.794   0.322
22964SOL     OW70788  11.473   5.078   0.576
22964SOL    HW170789  11.484   5.025   0.497
22964SOL    HW270790  11.496   5.167   0.549
22965SOL     OW70791   1.465  13.281  10.126
22965SOL    HW170792   1.417  13.217  10.178
22965SOL    HW270793   1.556  13.254  10.130
22966SOL     OW70794   7.907   4.900   2.063
22966SOL    HW170795   7.995   4.915   2.097
22966SOL    HW270796   7.911   4.929   1.972
22967SOL     OW70797   5.498   2.806   4.613
22967SOL    HW170798   5.581   2.850   4.595
22967SOL    HW270799   5.502   2.724   4.564
22968SOL     OW70800   9.418   5.424   6.289
22968SOL    HW170801   9.457   5.399   6.205
22968SOL    HW270802   9.492   5.430   6.349
22969SOL     OW70803   3.016  13.380   1.970
22969SOL    HW170804   3.101  13.384   2.014
22969SOL    HW270805   3.028  13.316   1.900
22970SOL     OW70806  12.141  10.281   7.262
22970SOL    HW170807  12.131  10.376   7.260
22970SOL    HW270808  12.231  10.265   7.231
22971SOL     OW70809  11.079   5.677  11.361
22971SOL    HW170810  11.056   5.606  11.301
22971SOL    HW270811  11.166   5.705  11.333
22972SOL     OW70812   7.510   0.243  13.800
22972SOL    HW170813   7.418   0.220  13.815
22972SOL    HW270814   7.508   0.328  13.757
22973SOL     OW70815  13.163   0.711   9.949
22973SOL    HW170816  13.079   0.755   9.962
22973SOL    HW270817  13.200   0.704  10.037
22974SOL     OW70818  13.194  11.430   5.609
22974SOL    HW170819  13.265  11.486   5.578
22974SOL    HW270820  13.238  11.359   5.656
22975SOL     OW70821   6.586  10.279   1.514
22975SOL    HW170822   6.570  10.268   1.608
22975SOL    HW270823   6.584  10.374   1.501
22976SOL     OW70824   4.909   0.757   1.719
22976SOL    HW170825   4.991   0.791   1.753
22976SOL    HW270826   4.844   0.824   1.742
22977SOL     OW70827   4.310  11.274   0.601
22977SOL    HW170828   4.404  11.263   0.585
22977SOL    HW270829   4.284  11.192   0.643
22978SOL     OW70830   0.785   5.702   7.086
22978SOL    HW170831   0.864   5.732   7.041
22978SOL    HW270832   0.792   5.607   7.087
22979SOL     OW70833  11.447   8.777   7.861
22979SOL    HW170834  11.412   8.784   7.950
22979SOL    HW270835  11.528   8.727   7.870
22980SOL     OW70836   8.979   7.051   4.785
22980SOL    HW170837   8.896   7.072   4.830
22980SOL    HW270838   8.963   7.077   4.694
22981SOL     OW70839   7.710   9.728  10.542
22981SOL    HW170840   7.689   9.647  10.588
22981SOL    HW270841   7.656   9.795  10.585
22982SOL     OW70842   2.333   2.513  12.177
22982SOL    HW170843   2.247   2.518  12.219
22982SOL    HW270844   2.331   2.429  12.131
22983SOL     OW70845   4.546  12.894  10.968
22983SOL    HW170846   4.504  12.976  10.996
22983SOL    HW270847   4.491  12.825  11.005
22984SOL     OW70848   9.573   8.952   4.858
22984SOL    HW170849   9.504   8.913   4.912
22984SOL    HW270850   9.569   9.045   4.878
22985SOL     OW70851   4.698   7.261   9.549
22985SOL    HW170852   4.636   7.305   9.606
22985SOL    HW270853   4.774   7.319   9.547
22986SOL     OW70854   8.532   4.576   8.904
22986SOL    HW170855   8.594   4.583   8.976
22986SOL    HW270856   8.550   4.491   8.865
22987SOL     OW70857  12.364   9.324  12.777
22987SOL    HW170858  12.326   9.242  12.747
22987SOL    HW270859  12.295   9.365  12.829
22988SOL     OW70860   1.905   4.200   2.253
22988SOL    HW170861   1.895   4.233   2.343
22988SOL    HW270862   1.983   4.145   2.257
22989SOL     OW70863   2.985  13.384   4.651
22989SOL    HW170864   3.069  13.412   4.685
22989SOL    HW270865   2.991  13.398   4.556
22990SOL     OW70866   6.886   0.711   2.164
22990SOL    HW170867   6.967   0.685   2.207
22990SOL    HW270868   6.846   0.629   2.135
22991SOL     OW70869   7.913  11.310   6.092
22991SOL    HW170870   7.912  11.391   6.041
22991SOL    HW270871   7.830  11.267   6.070
22992SOL     OW70872   0.722   8.413   3.921
22992SOL    HW170873   0.696   8.375   4.006
22992SOL    HW270874   0.799   8.465   3.941
22993SOL     OW70875   6.689   2.673  12.899
22993SOL    HW170876   6.690   2.628  12.983
22993SOL    HW270877   6.779   2.705  12.887
22994SOL     OW70878   2.947   9.747   8.074
22994SOL    HW170879   2.949   9.674   8.135
22994SOL    HW270880   3.026   9.737   8.021
22995SOL     OW70881   7.698  12.421   9.247
22995SOL    HW170882   7.631  12.361   9.215
22995SOL    HW270883   7.773  12.406   9.189
22996SOL     OW70884   1.846  12.787   5.630
22996SOL    HW170885   1.795  12.809   5.553
22996SOL    HW270886   1.931  12.828   5.616
22997SOL     OW70887   5.444   1.466   8.996
22997SOL    HW170888   5.412   1.426   9.076
22997SOL    HW270889   5.365   1.491   8.948
22998SOL     OW70890  13.210   2.740  13.866
22998SOL    HW170891  13.276   2.681  13.830
22998SOL    HW270892  13.228   2.740  13.961
22999SOL     OW70893  11.230   7.676  11.967
22999SOL    HW170894  11.294   7.632  12.023
22999SOL    HW270895  11.227   7.623  11.888
23000SOL     OW70896  12.070   9.231   3.036
23000SOL    HW170897  12.035   9.283   2.964
23000SOL    HW270898  12.161   9.260   3.045
23001SOL     OW70899  12.835   9.109  11.650
23001SOL    HW170900  12.894   9.153  11.590
23001SOL    HW270901  12.838   9.017  11.623
23002SOL     OW70902   6.040  10.893   8.611
23002SOL    HW170903   5.968  10.877   8.672
23002SOL    HW270904   6.116  10.852   8.651
23003SOL     OW70905   8.029   7.542   0.736
23003SOL    HW170906   8.012   7.571   0.825
23003SOL    HW270907   7.999   7.452   0.733
23004SOL     OW70908   5.275  11.248   0.133
23004SOL    HW170909   5.185  11.238   0.101
23004SOL    HW270910   5.275  11.203   0.218
23005SOL     OW70911  11.354   5.655  10.524
23005SOL    HW170912  11.408   5.617  10.454
23005SOL    HW270913  11.417   5.675  10.593
23006SOL     OW70914  11.335   9.277   3.272
23006SOL    HW170915  11.422   9.240   3.290
23006SOL    HW270916  11.303   9.226   3.198
23007SOL     OW70917   9.216   4.510   8.320
23007SOL    HW170918   9.167   4.557   8.253
23007SOL    HW270919   9.182   4.420   8.316
23008SOL     OW70920   5.299   9.195  14.185
23008SOL    HW170921   5.300   9.190  14.090
23008SOL    HW270922   5.207   9.189  14.209
23009SOL     OW70923  11.820   8.529   6.587
23009SOL    HW170924  11.748   8.571   6.632
23009SOL    HW270925  11.814   8.559   6.497
23010SOL     OW70926  14.498   5.946   3.442
23010SOL    HW170927  14.469   5.871   3.389
23010SOL    HW270928  14.423   6.006   3.440
23011SOL     OW70929  12.808   4.163  14.513
23011SOL    HW170930  12.827   4.184  14.421
23011SOL    HW270931  12.878   4.204  14.563
23012SOL     OW70932   9.085  12.128   8.129
23012SOL    HW170933   9.149  12.057   8.142
23012SOL    HW270934   9.028  12.096   8.059
23013SOL     OW70935   9.182   8.331   4.598
23013SOL    HW170936   9.195   8.360   4.508
23013SOL    HW270937   9.226   8.397   4.651
23014SOL     OW70938  10.200   6.105  10.975
23014SOL    HW170939  10.120   6.128  10.928
23014SOL    HW270940  10.262   6.175  10.951
23015SOL     OW70941   7.135  11.619   5.679
23015SOL    HW170942   7.171  11.558   5.615
23015SOL    HW270943   7.041  11.617   5.663
23016SOL     OW70944   8.590  11.637   6.167
23016SOL    HW170945   8.682  11.660   6.156
23016SOL    HW270946   8.587  11.542   6.155
23017SOL     OW70947   2.749   9.212   1.995
23017SOL    HW170948   2.835   9.242   2.022
23017SOL    HW270949   2.730   9.138   2.053
23018SOL     OW70950   7.157   7.616  10.690
23018SOL    HW170951   7.076   7.665  10.700
23018SOL    HW270952   7.168   7.606  10.596
23019SOL     OW70953   0.757   6.570   1.416
23019SOL    HW170954   0.697   6.636   1.379
23019SOL    HW270955   0.843   6.612   1.413
23020SOL     OW70956  14.654   2.231  14.488
23020SOL    HW170957  14.649   2.137  14.476
23020SOL    HW270958  14.684   2.265  14.403
23021SOL     OW70959  11.891   9.863   0.975
23021SOL    HW170960  11.986   9.852   0.974
23021SOL    HW270961  11.878   9.958   0.969
23022SOL     OW70962  14.544   6.312  11.826
23022SOL    HW170963  14.551   6.221  11.855
23022SOL    HW270964  14.615   6.322  11.763
23023SOL     OW70965   5.036   1.125  10.562
23023SOL    HW170966   5.106   1.187  10.541
23023SOL    HW270967   5.032   1.067  10.486
23024SOL     OW70968  12.352  11.116  10.676
23024SOL    HW170969  12.327  11.150  10.590
23024SOL    HW270970  12.297  11.038  10.688
23025SOL     OW70971   8.085  14.181   8.457
23025SOL    HW170972   8.087  14.124   8.379
23025SOL    HW270973   8.173  14.219   8.460
23026SOL     OW70974  11.611  13.751   5.998
23026SOL    HW170975  11.615  13.798   5.915
23026SOL    HW270976  11.527  13.704   5.994
23027SOL     OW70977  12.848   0.347   2.055
23027SOL    HW170978  12.896   0.420   2.016
23027SOL    HW270979  12.867   0.354   2.149
23028SOL     OW70980  12.571   9.242  12.100
23028SOL    HW170981  12.489   9.195  12.085
23028SOL    HW270982  12.549   9.309  12.165
23029SOL     OW70983   4.833  14.264   4.573
23029SOL    HW170984   4.791  14.234   4.654
23029SOL    HW270985   4.880  14.343   4.598
23030SOL     OW70986   5.518  14.292   9.437
23030SOL    HW170987   5.484  14.254   9.519
23030SOL    HW270988   5.530  14.384   9.457
23031SOL     OW70989  12.846  10.534   0.293
23031SOL    HW170990  12.845  10.566   0.203
23031SOL    HW270991  12.938  10.516   0.311
23032SOL     OW70992   3.614  13.346   8.115
23032SOL    HW170993   3.569  13.427   8.091
23032SOL    HW270994   3.667  13.370   8.191
23033SOL     OW70995   6.165  14.352  13.133
23033SOL    HW170996   6.168  14.407  13.212
23033SOL    HW270997   6.223  14.397  13.071
23034SOL     OW70998   7.998  12.378  12.043
23034SOL    HW170999   7.928  12.320  12.011
23034SOL    HW271000   8.017  12.347  12.131
23035SOL     OW71001   6.221   6.867   5.086
23035SOL    HW171002   6.202   6.783   5.128
23035SOL    HW271003   6.298   6.900   5.132
23036SOL     OW71004   6.783   8.815   1.615
23036SOL    HW171005   6.723   8.887   1.633
23036SOL    HW271006   6.781   8.762   1.696
23037SOL     OW71007   5.169   5.422   7.234
23037SOL    HW171008   5.190   5.385   7.149
23037SOL    HW271009   5.075   5.439   7.231
23038SOL     OW71010   1.832   8.830   3.144
23038SOL    HW171011   1.821   8.881   3.064
23038SOL    HW271012   1.744   8.825   3.182
23039SOL     OW71013   3.589   1.827  13.075
23039SOL    HW171014   3.613   1.919  13.067
23039SOL    HW271015   3.502   1.828  13.114
23040SOL     OW71016   6.953   2.730   7.269
23040SOL    HW171017   6.934   2.816   7.232
23040SOL    HW271018   7.016   2.747   7.339
23041SOL     OW71019   7.491   7.136   0.516
23041SOL    HW171020   7.482   7.156   0.423
23041SOL    HW271021   7.408   7.095   0.540
23042SOL     OW71022   8.424   3.607  10.314
23042SOL    HW171023   8.375   3.572  10.239
23042SOL    HW271024   8.459   3.529  10.358
23043SOL     OW71025   2.756   5.379  14.015
23043SOL    HW171026   2.682   5.436  13.993
23043SOL    HW271027   2.715   5.301  14.053
23044SOL     OW71028   7.008  10.073   3.988
23044SOL    HW171029   7.044  10.012   4.051
23044SOL    HW271030   6.925  10.102   4.027
23045SOL     OW71031   2.622  11.665   0.765
23045SOL    HW171032   2.572  11.746   0.769
23045SOL    HW271033   2.664  11.668   0.679
23046SOL     OW71034   3.402  13.794  14.285
23046SOL    HW171035   3.356  13.739  14.347
23046SOL    HW271036   3.470  13.738  14.248
23047SOL     OW71037   8.247   7.299   2.977
23047SOL    HW171038   8.173   7.358   2.963
23047SOL    HW271039   8.251   7.287   3.072
23048SOL     OW71040  12.746  10.631  12.263
23048SOL    HW171041  12.661  10.645  12.305
23048SOL    HW271042  12.807  10.688  12.310
23049SOL     OW71043   3.630   5.947   2.424
23049SOL    HW171044   3.693   5.996   2.372
23049SOL    HW271045   3.621   5.863   2.378
23050SOL     OW71046   0.729   5.663  14.225
23050SOL    HW171047   0.786   5.615  14.285
23050SOL    HW271048   0.640   5.642  14.254
23051SOL     OW71049   9.219   0.685   6.059
23051SOL    HW171050   9.207   0.765   6.110
23051SOL    HW271051   9.144   0.683   6.000
23052SOL     OW71052  12.654   0.883   9.765
23052SOL    HW171053  12.577   0.939   9.752
23052SOL    HW271054  12.727   0.944   9.774
23053SOL     OW71055   6.001   3.743   3.142
23053SOL    HW171056   6.050   3.823   3.124
23053SOL    HW271057   6.066   3.673   3.137
23054SOL     OW71058  14.583  11.001   0.625
23054SOL    HW171059  14.575  11.040   0.538
23054SOL    HW271060  14.670  10.962   0.626
23055SOL     OW71061   0.440   3.322   2.271
23055SOL    HW171062   0.445   3.333   2.366
23055SOL    HW271063   0.490   3.395   2.235
23056SOL     OW71064   0.017  13.894   0.339
23056SOL    HW171065   0.027  13.824   0.274
23056SOL    HW271066   0.052  13.857   0.420
23057SOL     OW71067   4.744   1.491  13.131
23057SOL    HW171068   4.810   1.463  13.067
23057SOL    HW271069   4.681   1.419  13.134
23058SOL     OW71070  11.952   7.235   2.986
23058SOL    HW171071  11.867   7.264   2.953
23058SOL    HW271072  11.980   7.166   2.926
23059SOL     OW71073  13.905   0.644   0.735
23059SOL    HW171074  13.937   0.729   0.705
23059SOL    HW271075  13.910   0.587   0.659
23060SOL     OW71076  13.218  14.513   6.611
23060SOL    HW171077  13.237  14.593   6.661
23060SOL    HW271078  13.253  14.442   6.665
23061SOL     OW71079   4.900  12.473   9.811
23061SOL    HW171080   4.811  12.495   9.838
23061SOL    HW271081   4.956  12.507   9.882
23062SOL     OW71082   9.526   3.375   1.289
23062SOL    HW171083   9.435   3.401   1.277
23062SOL    HW271084   9.531   3.287   1.252
23063SOL     OW71085   2.034   2.196  12.583
23063SOL    HW171086   2.122   2.211  12.549
23063SOL    HW271087   2.047   2.172  12.674
23064SOL     OW71088  14.438   8.776  10.803
23064SOL    HW171089  14.418   8.868  10.821
23064SOL    HW271090  14.526   8.778  10.765
23065SOL     OW71091  13.770   9.184   9.844
23065SOL    HW171092  13.677   9.170   9.861
23065SOL    HW271093  13.805   9.096   9.830
23066SOL     OW71094   7.034   1.214  14.182
23066SOL    HW171095   7.099   1.158  14.139
23066SOL    HW271096   7.084   1.292  14.207
23067SOL     OW71097  14.168  11.130   7.116
23067SOL    HW171098  14.254  11.172   7.125
23067SOL    HW271099  14.107  11.203   7.105
23068SOL     OW71100  14.162   6.874   3.591
23068SOL    HW171101  14.176   6.949   3.650
23068SOL    HW271102  14.125   6.912   3.512
23069SOL     OW71103  13.445   0.629  10.962
23069SOL    HW171104  13.360   0.584  10.965
23069SOL    HW271105  13.423   0.722  10.967
23070SOL     OW71106   9.532   1.494   7.320
23070SOL    HW171107   9.614   1.446   7.310
23070SOL    HW271108   9.483   1.444   7.385
23071SOL     OW71109  11.730   2.932   5.423
23071SOL    HW171110  11.820   2.901   5.435
23071SOL    HW271111  11.714   2.988   5.499
23072SOL     OW71112   5.716   8.497  11.062
23072SOL    HW171113   5.746   8.586  11.042
23072SOL    HW271114   5.788   8.459  11.113
23073SOL     OW71115   6.166  10.664   6.126
23073SOL    HW171116   6.140  10.718   6.200
23073SOL    HW271117   6.127  10.707   6.050
23074SOL     OW71118   4.348   0.658  11.518
23074SOL    HW171119   4.316   0.746  11.539
23074SOL    HW271120   4.361   0.616  11.603
23075SOL     OW71121  13.204   9.377  10.246
23075SOL    HW171122  13.117   9.342  10.263
23075SOL    HW271123  13.263   9.304  10.265
23076SOL     OW71124   2.287   3.053   6.093
23076SOL    HW171125   2.219   3.105   6.049
23076SOL    HW271126   2.347   3.119   6.130
23077SOL     OW71127  13.825   7.313   9.169
23077SOL    HW171128  13.816   7.344   9.078
23077SOL    HW271129  13.739   7.332   9.208
23078SOL     OW71130  13.899   2.826   3.128
23078SOL    HW171131  13.871   2.821   3.219
23078SOL    HW271132  13.841   2.764   3.082
23079SOL     OW71133   8.444  13.328   6.051
23079SOL    HW171134   8.404  13.302   6.134
23079SOL    HW271135   8.470  13.419   6.064
23080SOL     OW71136  14.079   0.872   1.339
23080SOL    HW171137  14.151   0.868   1.275
23080SOL    HW271138  14.117   0.839   1.420
23081SOL     OW71139   3.847   1.623   1.434
23081SOL    HW171140   3.756   1.652   1.425
23081SOL    HW271141   3.856   1.600   1.526
23082SOL     OW71142   3.025  14.743  10.683
23082SOL    HW171143   2.955  14.769  10.744
23082SOL    HW271144   3.103  14.788  10.715
23083SOL     OW71145   7.281   8.853  12.265
23083SOL    HW171146   7.186   8.865  12.264
23083SOL    HW271147   7.317   8.941  12.252
23084SOL     OW71148   5.082   1.912   5.437
23084SOL    HW171149   5.003   1.922   5.385
23084SOL    HW271150   5.096   1.817   5.440
23085SOL     OW71151  13.285   1.916   8.128
23085SOL    HW171152  13.251   1.932   8.216
23085SOL    HW271153  13.365   1.968   8.124
23086SOL     OW71154   1.009   9.404   4.771
23086SOL    HW171155   1.018   9.383   4.864
23086SOL    HW271156   1.097   9.393   4.735
23087SOL     OW71157   6.104  14.753   7.493
23087SOL    HW171158   6.068  14.683   7.438
23087SOL    HW271159   6.191  14.769   7.456
23088SOL     OW71160   6.555  11.160   5.045
23088SOL    HW171161   6.510  11.116   5.117
23088SOL    HW271162   6.602  11.090   5.000
23089SOL     OW71163  14.734   1.386  13.751
23089SOL    HW171164  14.650   1.365  13.710
23089SOL    HW271165  14.776   1.302  13.765
23090SOL     OW71166   0.359   2.655   1.482
23090SOL    HW171167   0.418   2.715   1.437
23090SOL    HW271168   0.410   2.622   1.557
23091SOL     OW71169   5.300   3.348   2.199
23091SOL    HW171170   5.318   3.413   2.132
23091SOL    HW271171   5.212   3.370   2.231
23092SOL     OW71172  13.040   3.885   1.010
23092SOL    HW171173  13.131   3.859   1.028
23092SOL    HW271174  13.019   3.948   1.079
23093SOL     OW71175   6.536   1.103  11.375
23093SOL    HW171176   6.512   1.079  11.465
23093SOL    HW271177   6.623   1.140  11.382
23094SOL     OW71178   9.623  12.313   2.022
23094SOL    HW171179   9.618  12.287   2.114
23094SOL    HW271180   9.561  12.386   2.014
23095SOL     OW71181   1.122   1.562   1.744
23095SOL    HW171182   1.183   1.495   1.714
23095SOL    HW271183   1.111   1.620   1.668
23096SOL     OW71184  12.040  10.532  10.242
23096SOL    HW171185  12.014  10.477  10.316
23096SOL    HW271186  11.960  10.578  10.217
23097SOL     OW71187  12.216   3.537  13.922
23097SOL    HW171188  12.152   3.469  13.904
23097SOL    HW271189  12.273   3.538  13.846
23098SOL     OW71190   0.820  14.095  14.856
23098SOL    HW171191   0.760  14.025   0.010
23098SOL    HW271192   0.899  14.079   0.038
23099SOL     OW71193  14.612  12.081   3.202
23099SOL    HW171194  14.684  12.124   3.249
23099SOL    HW271195  14.609  11.992   3.238
23100SOL     OW71196   1.751  14.429  10.517
23100SOL    HW171197   1.802  14.505  10.488
23100SOL    HW271198   1.664  14.465  10.536
23101SOL     OW71199   5.121   9.820   0.180
23101SOL    HW171200   5.157   9.889   0.236
23101SOL    HW271201   5.128   9.740   0.233
23102SOL     OW71202   2.720   2.279  12.435
23102SOL    HW171203   2.647   2.223  12.408
23102SOL    HW271204   2.733   2.339  12.362
23103SOL     OW71205   8.614   1.927  10.834
23103SOL    HW171206   8.526   1.918  10.798
23103SOL    HW271207   8.656   1.843  10.815
23104SOL     OW71208   5.078  12.203   3.794
23104SOL    HW171209   5.107  12.255   3.719
23104SOL    HW271210   5.126  12.241   3.868
23105SOL     OW71211   9.700   4.429  11.140
23105SOL    HW171212   9.679   4.459  11.229
23105SOL    HW271213   9.742   4.344  11.154
23106SOL     OW71214   8.665   7.691  11.442
23106SOL    HW171215   8.687   7.784  11.442
23106SOL    HW271216   8.617   7.678  11.524
23107SOL     OW71217   0.279   1.811   9.232
23107SOL    HW171218   0.326   1.870   9.173
23107SOL    HW271219   0.265   1.862   9.312
23108SOL     OW71220  10.109  12.974   6.654
23108SOL    HW171221  10.158  12.953   6.734
23108SOL    HW271222  10.124  12.900   6.596
23109SOL     OW71223   1.526   7.116   3.839
23109SOL    HW171224   1.564   7.175   3.773
23109SOL    HW271225   1.558   7.151   3.922
23110SOL     OW71226   8.955   2.054   1.020
23110SOL    HW171227   9.032   2.054   0.964
23110SOL    HW271228   8.940   1.961   1.040
23111SOL     OW71229  12.165   6.964   0.664
23111SOL    HW171230  12.098   6.916   0.713
23111SOL    HW271231  12.161   7.053   0.699
23112SOL     OW71232   6.235  14.301   9.145
23112SOL    HW171233   6.288  14.369   9.187
23112SOL    HW271234   6.153  14.345   9.123
23113SOL     OW71235  12.878   7.813   0.384
23113SOL    HW171236  12.868   7.860   0.302
23113SOL    HW271237  12.798   7.761   0.392
23114SOL     OW71238   7.812  14.448   5.957
23114SOL    HW171239   7.815  14.482   5.868
23114SOL    HW271240   7.838  14.356   5.948
23115SOL     OW71241  11.495   2.656   1.162
23115SOL    HW171242  11.536   2.622   1.242
23115SOL    HW271243  11.552   2.627   1.091
23116SOL     OW71244   0.747   3.040   3.317
23116SOL    HW171245   0.677   2.990   3.276
23116SOL    HW271246   0.819   2.978   3.326
23117SOL     OW71247   3.932   9.087   0.541
23117SOL    HW171248   3.863   9.116   0.602
23117SOL    HW271249   3.884   9.059   0.463
23118SOL     OW71250   1.360   6.146  12.777
23118SOL    HW171251   1.456   6.148  12.768
23118SOL    HW271252   1.332   6.232  12.746
23119SOL     OW71253   6.121   1.836   3.133
23119SOL    HW171254   6.195   1.802   3.184
23119SOL    HW271255   6.162   1.883   3.060
23120SOL     OW71256   1.956   8.930  12.135
23120SOL    HW171257   1.990   9.004  12.184
23120SOL    HW271258   2.033   8.883  12.104
23121SOL     OW71259   3.791   1.218  12.766
23121SOL    HW171260   3.802   1.203  12.672
23121SOL    HW271261   3.755   1.307  12.771
23122SOL     OW71262   0.931   6.765  10.624
23122SOL    HW171263   0.934   6.830  10.553
23122SOL    HW271264   0.841   6.732  10.623
23123SOL     OW71265   8.249   7.790  10.944
23123SOL    HW171266   8.239   7.847  11.021
23123SOL    HW271267   8.207   7.708  10.970
23124SOL     OW71268   7.170  13.885  14.567
23124SOL    HW171269   7.111  13.814  14.541
23124SOL    HW271270   7.114  13.962  14.571
23125SOL     OW71271   3.697   7.220   1.689
23125SOL    HW171272   3.703   7.130   1.722
23125SOL    HW271273   3.622   7.219   1.630
23126SOL     OW71274  11.300  12.133  13.269
23126SOL    HW171275  11.348  12.081  13.333
23126SOL    HW271276  11.278  12.071  13.199
23127SOL     OW71277   9.933  10.109   8.068
23127SOL    HW171278   9.918  10.067   7.983
23127SOL    HW271279   9.991  10.183   8.047
23128SOL     OW71280  11.815  14.167   8.901
23128SOL    HW171281  11.815  14.132   8.811
23128SOL    HW271282  11.901  14.208   8.910
23129SOL     OW71283   8.881  13.305   4.213
23129SOL    HW171284   8.806  13.364   4.214
23129SOL    HW271285   8.934  13.332   4.288
23130SOL     OW71286  10.574   6.553   9.198
23130SOL    HW171287  10.653   6.504   9.174
23130SOL    HW271288  10.540   6.505   9.274
23131SOL     OW71289  14.344   8.149  10.253
23131SOL    HW171290  14.378   8.081  10.311
23131SOL    HW271291  14.253   8.161  10.281
23132SOL     OW71292  14.148  10.658   9.990
23132SOL    HW171293  14.244  10.662   9.993
23132SOL    HW271294  14.127  10.660   9.897
23133SOL     OW71295  11.579   8.402   6.874
23133SOL    HW171296  11.596   8.373   6.964
23133SOL    HW271297  11.630   8.342   6.820
23134SOL     OW71298   8.399   7.341   9.003
23134SOL    HW171299   8.390   7.435   8.983
23134SOL    HW271300   8.359   7.331   9.089
23135SOL     OW71301   1.451   2.046  10.759
23135SOL    HW171302   1.441   1.979  10.827
23135SOL    HW271303   1.517   2.011  10.700
23136SOL     OW71304   3.340  11.813   4.931
23136SOL    HW171305   3.341  11.784   4.840
23136SOL    HW271306   3.426  11.855   4.943
23137SOL     OW71307  13.831  12.570   8.510
23137SOL    HW171308  13.858  12.479   8.504
23137SOL    HW271309  13.911  12.618   8.532
23138SOL     OW71310   7.781   8.639   6.818
23138SOL    HW171311   7.869   8.666   6.790
23138SOL    HW271312   7.786   8.638   6.913
23139SOL     OW71313   6.852  14.530  13.107
23139SOL    HW171314   6.885  14.462  13.049
23139SOL    HW271315   6.857  14.610  13.056
23140SOL     OW71316   1.347   9.279  14.168
23140SOL    HW171317   1.366   9.251  14.078
23140SOL    HW271318   1.252   9.296  14.167
23141SOL     OW71319   5.773   7.604   9.490
23141SOL    HW171320   5.868   7.599   9.491
23141SOL    HW271321   5.750   7.665   9.559
23142SOL     OW71322  12.025   2.934  14.155
23142SOL    HW171323  12.115   2.940  14.121
23142SOL    HW271324  11.987   3.020  14.136
23143SOL     OW71325   3.774  14.417   9.357
23143SOL    HW171326   3.712  14.428   9.285
23143SOL    HW271327   3.850  14.469   9.332
23144SOL     OW71328   2.745   6.378   3.255
23144SOL    HW171329   2.773   6.287   3.247
23144SOL    HW271330   2.688   6.393   3.180
23145SOL     OW71331   7.857  14.309   7.457
23145SOL    HW171332   7.781  14.289   7.403
23145SOL    HW271333   7.929  14.260   7.417
23146SOL     OW71334   3.783   1.311   3.605
23146SOL    HW171335   3.833   1.238   3.641
23146SOL    HW271336   3.709   1.322   3.665
23147SOL     OW71337   2.222  10.532  14.055
23147SOL    HW171338   2.263  10.451  14.084
23147SOL    HW271339   2.129  10.521  14.075
23148SOL     OW71340   1.754  13.465  13.724
23148SOL    HW171341   1.718  13.474  13.812
23148SOL    HW271342   1.838  13.512  13.728
23149SOL     OW71343   7.106   5.729  12.243
23149SOL    HW171344   7.144   5.798  12.189
23149SOL    HW271345   7.181   5.684  12.281
23150SOL     OW71346  12.221  14.533   0.613
23150SOL    HW171347  12.203  14.495   0.526
23150SOL    HW271348  12.306  14.497   0.638
23151SOL     OW71349   5.183   1.118   7.396
23151SOL    HW171350   5.185   1.036   7.347
23151SOL    HW271351   5.261   1.165   7.367
23152SOL     OW71352  11.042   6.463   9.909
23152SOL    HW171353  11.093   6.504   9.839
23152SOL    HW271354  10.991   6.535   9.946
23153SOL     OW71355   6.309   7.112   8.420
23153SOL    HW171356   6.327   7.082   8.331
23153SOL    HW271357   6.285   7.204   8.411
23154SOL     OW71358   7.699  14.156  11.369
23154SOL    HW171359   7.665  14.067  11.356
23154SOL    HW271360   7.722  14.159  11.462
23155SOL     OW71361   7.806   1.616   4.105
23155SOL    HW171362   7.877   1.664   4.061
23155SOL    HW271363   7.736   1.610   4.039
23156SOL     OW71364   9.480   6.264   0.868
23156SOL    HW171365   9.414   6.256   0.800
23156SOL    HW271366   9.546   6.199   0.845
23157SOL     OW71367  14.459   8.944  11.154
23157SOL    HW171368  14.394   9.014  11.146
23157SOL    HW271369  14.412   8.864  11.128
23158SOL     OW71370  13.084   9.642   9.851
23158SOL    HW171371  13.151   9.616   9.913
23158SOL    HW271372  13.125   9.634   9.765
23159SOL     OW71373   4.206   4.674   9.995
23159SOL    HW171374   4.115   4.646  10.005
23159SOL    HW271375   4.251   4.597   9.961
23160SOL     OW71376   0.199   4.859   1.209
23160SOL    HW171377   0.138   4.929   1.187
23160SOL    HW271378   0.233   4.884   1.295
23161SOL     OW71379   2.671   1.780  14.462
23161SOL    HW171380   2.675   1.688  14.435
23161SOL    HW271381   2.579   1.804  14.454
23162SOL     OW71382  14.688  10.855   1.838
23162SOL    HW171383  14.620  10.869   1.904
23162SOL    HW271384  14.652  10.790   1.779
23163SOL     OW71385  12.801   0.397  11.416
23163SOL    HW171386  12.722   0.385  11.364
23163SOL    HW271387  12.787   0.478  11.464
23164SOL     OW71388  11.925   9.497   7.958
23164SOL    HW171389  11.993   9.458   7.903
23164SOL    HW271390  11.969   9.571   8.000
23165SOL     OW71391   1.950   2.610   4.169
23165SOL    HW171392   1.911   2.657   4.243
23165SOL    HW271393   1.882   2.549   4.140
23166SOL     OW71394  12.443   1.606   6.634
23166SOL    HW171395  12.468   1.543   6.702
23166SOL    HW271396  12.477   1.689   6.665
23167SOL     OW71397   5.213   6.571   1.147
23167SOL    HW171398   5.176   6.487   1.120
23167SOL    HW271399   5.233   6.616   1.065
23168SOL     OW71400   3.418  14.620   7.422
23168SOL    HW171401   3.362  14.549   7.390
23168SOL    HW271402   3.470  14.646   7.346
23169SOL     OW71403   4.297   5.676  12.149
23169SOL    HW171404   4.218   5.644  12.107
23169SOL    HW271405   4.343   5.597  12.177
23170SOL     OW71406   4.885  12.079  12.850
23170SOL    HW171407   4.857  12.123  12.770
23170SOL    HW271408   4.831  12.000  12.854
23171SOL     OW71409  14.144   9.711   0.991
23171SOL    HW171410  14.149   9.675   1.080
23171SOL    HW271411  14.064   9.764   0.991
23172SOL     OW71412  13.585   0.967  11.715
23172SOL    HW171413  13.655   0.937  11.772
23172SOL    HW271414  13.615   0.947  11.626
23173SOL     OW71415   7.398  14.129  12.348
23173SOL    HW171416   7.354  14.049  12.376
23173SOL    HW271417   7.489  14.103  12.333
23174SOL     OW71418  12.626  14.558   9.190
23174SOL    HW171419  12.711  14.526   9.160
23174SOL    HW271420  12.608  14.506   9.269
23175SOL     OW71421  12.668   0.917  14.475
23175SOL    HW171422  12.716   0.837  14.451
23175SOL    HW271423  12.733   0.973  14.516
23176SOL     OW71424  11.578   5.276  13.489
23176SOL    HW171425  11.619   5.236  13.566
23176SOL    HW271426  11.589   5.211  13.420
23177SOL     OW71427  12.396   5.470   5.078
23177SOL    HW171428  12.486   5.491   5.102
23177SOL    HW271429  12.371   5.400   5.139
23178SOL     OW71430   0.618   4.749  13.411
23178SOL    HW171431   0.531   4.765  13.374
23178SOL    HW271432   0.606   4.674  13.469
23179SOL     OW71433  10.476  13.187   4.067
23179SOL    HW171434  10.385  13.189   4.037
23179SOL    HW271435  10.481  13.254   4.135
23180SOL     OW71436  11.108   9.137   4.056
23180SOL    HW171437  11.203   9.153   4.062
23180SOL    HW271438  11.069   9.197   4.119
23181SOL     OW71439   1.805  13.235   2.310
23181SOL    HW171440   1.757  13.307   2.268
23181SOL    HW271441   1.776  13.238   2.402
23182SOL     OW71442  12.929   6.824  10.549
23182SOL    HW171443  12.944   6.776  10.467
23182SOL    HW271444  12.854   6.881  10.530
23183SOL     OW71445   2.273   5.923   8.743
23183SOL    HW171446   2.234   5.838   8.723
23183SOL    HW271447   2.367   5.904   8.753
23184SOL     OW71448   2.498   3.793   0.752
23184SOL    HW171449   2.437   3.730   0.713
23184SOL    HW271450   2.575   3.741   0.774
23185SOL     OW71451   7.071   4.079  10.248
23185SOL    HW171452   7.014   4.075  10.171
23185SOL    HW271453   7.123   3.999  10.243
23186SOL     OW71454  13.138  13.557   3.595
23186SOL    HW171455  13.113  13.467   3.572
23186SOL    HW271456  13.204  13.581   3.529
23187SOL     OW71457   1.223  10.893   2.627
23187SOL    HW171458   1.135  10.930   2.615
23187SOL    HW271459   1.240  10.845   2.546
23188SOL     OW71460  14.409   9.389   6.357
23188SOL    HW171461  14.460   9.413   6.434
23188SOL    HW271462  14.454   9.312   6.321
23189SOL     OW71463  12.816   2.909   6.384
23189SOL    HW171464  12.874   2.944   6.451
23189SOL    HW271465  12.871   2.902   6.306
23190SOL     OW71466   1.057   2.375  11.715
23190SOL    HW171467   0.997   2.395  11.643
23190SOL    HW271468   1.007   2.319  11.774
23191SOL     OW71469  14.192   8.971   4.077
23191SOL    HW171470  14.155   8.901   4.130
23191SOL    HW271471  14.206   9.043   4.139
23192SOL     OW71472   6.475   5.269  11.464
23192SOL    HW171473   6.561   5.243  11.428
23192SOL    HW271474   6.479   5.244  11.556
23193SOL     OW71475  10.826   7.203   9.942
23193SOL    HW171476  10.876   7.184   9.862
23193SOL    HW271477  10.803   7.295   9.935
23194SOL     OW71478   7.157   6.934   9.085
23194SOL    HW171479   7.162   6.958   8.992
23194SOL    HW271480   7.065   6.946   9.108
23195SOL     OW71481   9.440   5.641   7.887
23195SOL    HW171482   9.379   5.650   7.814
23195SOL    HW271483   9.507   5.708   7.871
23196SOL     OW71484   6.244  10.965  11.869
23196SOL    HW171485   6.160  10.920  11.875
23196SOL    HW271486   6.228  11.040  11.811
23197SOL     OW71487  14.464  13.074   7.962
23197SOL    HW171488  14.531  13.142   7.956
23197SOL    HW271489  14.400  13.108   8.024
23198SOL     OW71490   8.470   7.599   6.908
23198SOL    HW171491   8.440   7.625   6.821
23198SOL    HW271492   8.429   7.662   6.967
23199SOL     OW71493   6.514   4.512   3.410
23199SOL    HW171494   6.489   4.575   3.477
23199SOL    HW271495   6.451   4.440   3.420
23200SOL     OW71496  13.093  12.224  10.070
23200SOL    HW171497  13.099  12.268   9.986
23200SOL    HW271498  13.141  12.142  10.058
23201SOL     OW71499   0.256  10.044   1.669
23201SOL    HW171500   0.313   9.971   1.649
23201SOL    HW271501   0.169  10.015   1.642
23202SOL     OW71502   1.283  14.203   3.845
23202SOL    HW171503   1.373  14.229   3.828
23202SOL    HW271504   1.284  14.173   3.936
23203SOL     OW71505   1.684  13.869   4.064
23203SOL    HW171506   1.632  13.896   3.987
23203SOL    HW271507   1.625  13.812   4.113
23204SOL     OW71508  14.260  14.341  12.382
23204SOL    HW171509  14.244  14.310  12.293
23204SOL    HW271510  14.186  14.308  12.433
23205SOL     OW71511   6.358   6.968  14.486
23205SOL    HW171512   6.400   7.016  14.557
23205SOL    HW271513   6.312   7.035  14.435
23206SOL     OW71514   3.533   4.197   1.911
23206SOL    HW171515   3.581   4.278   1.894
23206SOL    HW271516   3.549   4.178   2.003
23207SOL     OW71517   9.251   0.414  13.958
23207SOL    HW171518   9.166   0.384  13.992
23207SOL    HW271519   9.235   0.504  13.929
23208SOL     OW71520  12.624   1.044  12.249
23208SOL    HW171521  12.623   1.099  12.171
23208SOL    HW271522  12.588   1.099  12.318
23209SOL     OW71523   1.833  10.731  12.607
23209SOL    HW171524   1.833  10.648  12.656
23209SOL    HW271525   1.803  10.707  12.519
23210SOL     OW71526   1.373  12.771  10.111
23210SOL    HW171527   1.417  12.695  10.073
23210SOL    HW271528   1.422  12.846  10.078
23211SOL     OW71529   4.812   6.304   4.607
23211SOL    HW171530   4.732   6.309   4.554
23211SOL    HW271531   4.781   6.294   4.697
23212SOL     OW71532   2.758  10.751   4.991
23212SOL    HW171533   2.761  10.757   5.087
23212SOL    HW271534   2.669  10.724   4.971
23213SOL     OW71535   6.195   9.939   1.953
23213SOL    HW171536   6.181   9.863   2.010
23213SOL    HW271537   6.197  10.014   2.012
23214SOL     OW71538   6.995   9.094  10.797
23214SOL    HW171539   7.028   9.160  10.736
23214SOL    HW271540   6.903   9.084  10.774
23215SOL     OW71541   7.910  10.508   9.217
23215SOL    HW171542   7.972  10.543   9.281
23215SOL    HW271543   7.963  10.488   9.140
23216SOL     OW71544  12.725   0.749   3.097
23216SOL    HW171545  12.647   0.800   3.075
23216SOL    HW271546  12.783   0.761   3.022
23217SOL     OW71547   2.558   7.033   1.327
23217SOL    HW171548   2.500   6.959   1.306
23217SOL    HW271549   2.513   7.110   1.292
23218SOL     OW71550   0.090   7.042   1.810
23218SOL    HW171551   0.013   7.097   1.823
23218SOL    HW271552   0.091   6.985   1.887
23219SOL     OW71553  14.732   9.198   8.700
23219SOL    HW171554  14.805   9.255   8.725
23219SOL    HW271555  14.727   9.207   8.604
23220SOL     OW71556   1.456   1.566   0.984
23220SOL    HW171557   1.511   1.645   0.986
23220SOL    HW271558   1.513   1.497   0.949
23221SOL     OW71559  13.831   0.127   9.832
23221SOL    HW171560  13.780   0.169   9.763
23221SOL    HW271561  13.771   0.121   9.907
23222SOL     OW71562   7.441   2.083   3.093
23222SOL    HW171563   7.525   2.109   3.129
23222SOL    HW271564   7.378   2.145   3.130
23223SOL     OW71565  10.337  12.134   1.958
23223SOL    HW171566  10.414  12.121   1.903
23223SOL    HW271567  10.283  12.056   1.944
23224SOL     OW71568   0.875   4.468   4.718
23224SOL    HW171569   0.851   4.559   4.704
23224SOL    HW271570   0.921   4.468   4.802
23225SOL     OW71571   3.998   9.600   6.688
23225SOL    HW171572   3.935   9.670   6.674
23225SOL    HW271573   3.949   9.532   6.734
23226SOL     OW71574   9.801   2.037  10.254
23226SOL    HW171575   9.836   2.014  10.168
23226SOL    HW271576   9.779   2.130  10.247
23227SOL     OW71577   8.417   7.967  11.874
23227SOL    HW171578   8.466   8.049  11.878
23227SOL    HW271579   8.437   7.923  11.957
23228SOL     OW71580   3.074   7.631   1.932
23228SOL    HW171581   3.000   7.576   1.957
23228SOL    HW271582   3.054   7.717   1.969
23229SOL     OW71583  14.450  14.538   2.833
23229SOL    HW171584  14.442  14.490   2.751
23229SOL    HW271585  14.428  14.629   2.811
23230SOL     OW71586  13.111   6.445  14.601
23230SOL    HW171587  13.063   6.513  14.553
23230SOL    HW271588  13.193   6.487  14.627
23231SOL     OW71589   5.143   2.643   1.438
23231SOL    HW171590   5.082   2.629   1.510
23231SOL    HW271591   5.162   2.554   1.406
23232SOL     OW71592  12.809  13.606   3.799
23232SOL    HW171593  12.746  13.651   3.855
23232SOL    HW271594  12.894  13.638   3.829
23233SOL     OW71595   1.446   0.696   9.202
23233SOL    HW171596   1.482   0.695   9.113
23233SOL    HW271597   1.360   0.655   9.194
23234SOL     OW71598   6.576   8.462   3.323
23234SOL    HW171599   6.621   8.380   3.305
23234SOL    HW271600   6.646   8.527   3.331
23235SOL     OW71601   9.861   0.889   3.759
23235SOL    HW171602   9.880   0.799   3.786
23235SOL    HW271603   9.790   0.880   3.695
23236SOL     OW71604   2.995  14.188  11.754
23236SOL    HW171605   3.062  14.226  11.697
23236SOL    HW271606   2.995  14.243  11.832
23237SOL     OW71607  11.606  13.358  14.264
23237SOL    HW171608  11.655  13.440  14.257
23237SOL    HW271609  11.571  13.359  14.353
23238SOL     OW71610   6.529   7.574   9.706
23238SOL    HW171611   6.478   7.614   9.636
23238SOL    HW271612   6.602   7.532   9.662
23239SOL     OW71613   0.063  10.961   7.980
23239SOL    HW171614   0.029  11.042   7.942
23239SOL    HW271615   0.108  10.917   7.908
23240SOL     OW71616   9.810   7.325   6.940
23240SOL    HW171617   9.726   7.369   6.933
23240SOL    HW271618   9.849   7.357   7.021
23241SOL     OW71619   9.674  13.385   0.727
23241SOL    HW171620   9.739  13.455   0.734
23241SOL    HW271621   9.724  13.309   0.700
23242SOL     OW71622   3.585  14.845   6.018
23242SOL    HW171623   3.544   0.059   6.033
23242SOL    HW271624   3.679  14.862   6.024
23243SOL     OW71625   6.849   6.331   5.187
23243SOL    HW171626   6.909   6.335   5.112
23243SOL    HW271627   6.880   6.256   5.238
23244SOL     OW71628   1.854   3.196   5.405
23244SOL    HW171629   1.849   3.205   5.501
23244SOL    HW271630   1.884   3.281   5.375
23245SOL     OW71631   4.141  11.430   2.092
23245SOL    HW171632   4.092  11.474   2.022
23245SOL    HW271633   4.074  11.401   2.153
23246SOL     OW71634  13.085  12.975   6.353
23246SOL    HW171635  13.000  12.930   6.355
23246SOL    HW271636  13.147  12.908   6.323
23247SOL     OW71637   3.681   8.696   4.123
23247SOL    HW171638   3.630   8.743   4.190
23247SOL    HW271639   3.681   8.754   4.048
23248SOL     OW71640  12.185   0.961  13.813
23248SOL    HW171641  12.112   0.944  13.873
23248SOL    HW271642  12.144   0.978  13.728
23249SOL     OW71643   9.157   7.971  13.923
23249SOL    HW171644   9.187   7.896  13.871
23249SOL    HW271645   9.081   7.938  13.971
23250SOL     OW71646   6.126  12.269  11.154
23250SOL    HW171647   6.108  12.341  11.093
23250SOL    HW271648   6.049  12.267  11.211
23251SOL     OW71649   9.478   7.068   7.832
23251SOL    HW171650   9.417   7.101   7.897
23251SOL    HW271651   9.422   7.046   7.757
23252SOL     OW71652   6.511   8.329   4.014
23252SOL    HW171653   6.540   8.385   4.086
23252SOL    HW271654   6.425   8.365   3.989
23253SOL     OW71655   1.078   6.837   3.853
23253SOL    HW171656   1.075   6.795   3.939
23253SOL    HW271657   1.158   6.889   3.855
23254SOL     OW71658   2.690   9.218   9.618
23254SOL    HW171659   2.780   9.231   9.649
23254SOL    HW271660   2.682   9.277   9.543
23255SOL     OW71661   4.994   3.772   7.952
23255SOL    HW171662   5.060   3.736   8.012
23255SOL    HW271663   4.967   3.855   7.992
23256SOL     OW71664   7.381   5.389   1.408
23256SOL    HW171665   7.365   5.410   1.316
23256SOL    HW271666   7.303   5.340   1.435
23257SOL     OW71667   0.729   3.451   2.762
23257SOL    HW171668   0.682   3.377   2.722
23257SOL    HW271669   0.735   3.516   2.692
23258SOL     OW71670   3.620   2.730   7.342
23258SOL    HW171671   3.604   2.818   7.307
23258SOL    HW271672   3.695   2.741   7.400
23259SOL     OW71673  10.197   8.184   5.040
23259SOL    HW171674  10.238   8.112   4.993
23259SOL    HW271675  10.247   8.261   5.014
23260SOL     OW71676   1.911   2.559   1.758
23260SOL    HW171677   1.929   2.644   1.717
23260SOL    HW271678   1.829   2.530   1.718
23261SOL     OW71679   3.056   0.645   1.735
23261SOL    HW171680   2.977   0.590   1.739
23261SOL    HW271681   3.101   0.628   1.818
23262SOL     OW71682   9.996  10.073   1.141
23262SOL    HW171683  10.083  10.113   1.145
23262SOL    HW271684   9.941  10.129   1.196
23263SOL     OW71685   1.705   7.798   0.072
23263SOL    HW171686   1.659   7.786   0.155
23263SOL    HW271687   1.778   7.855   0.093
23264SOL     OW71688  11.920   2.977   0.584
23264SOL    HW171689  11.907   2.943   0.673
23264SOL    HW271690  11.904   2.902   0.527
23265SOL     OW71691   4.464  11.915   1.922
23265SOL    HW171692   4.410  11.994   1.908
23265SOL    HW271693   4.421  11.848   1.869
23266SOL     OW71694   8.929   2.208   6.681
23266SOL    HW171695   8.964   2.293   6.654
23266SOL    HW271696   8.871   2.228   6.755
23267SOL     OW71697   7.171   3.353   1.436
23267SOL    HW171698   7.215   3.415   1.494
23267SOL    HW271699   7.229   3.276   1.435
23268SOL     OW71700  12.381  13.388   5.487
23268SOL    HW171701  12.448  13.365   5.550
23268SOL    HW271702  12.300  13.391   5.538
23269SOL     OW71703  14.523  13.801   0.889
23269SOL    HW171704  14.478  13.839   0.813
23269SOL    HW271705  14.562  13.877   0.933
23270SOL     OW71706   2.483  11.927   1.888
23270SOL    HW171707   2.430  11.872   1.831
23270SOL    HW271708   2.457  11.902   1.977
23271SOL     OW71709  10.017   2.492   6.500
23271SOL    HW171710  10.100   2.540   6.508
23271SOL    HW271711  10.041   2.413   6.452
23272SOL     OW71712  12.201   6.589  13.108
23272SOL    HW171713  12.136   6.529  13.070
23272SOL    HW271714  12.176   6.597  13.200
23273SOL     OW71715  14.842   7.998   0.112
23273SOL    HW171716   0.009   8.049   0.183
23273SOL    HW271717  14.757   7.969   0.146
23274SOL     OW71718   1.859  10.185  13.118
23274SOL    HW171719   1.899  10.158  13.201
23274SOL    HW271720   1.895  10.272  13.102
23275SOL     OW71721   8.095   1.992   6.022
23275SOL    HW171722   8.036   2.053   5.978
23275SOL    HW271723   8.182   2.027   6.008
23276SOL     OW71724  13.862  11.072   9.988
23276SOL    HW171725  13.820  10.990   9.961
23276SOL    HW271726  13.866  11.066  10.084
23277SOL     OW71727   5.277   6.217   4.571
23277SOL    HW171728   5.229   6.270   4.507
23277SOL    HW271729   5.281   6.272   4.649
23278SOL     OW71730   2.986   9.406   1.668
23278SOL    HW171731   2.923   9.334   1.661
23278SOL    HW271732   2.994   9.423   1.761
23279SOL     OW71733   5.068  12.866  11.507
23279SOL    HW171734   5.044  12.784  11.548
23279SOL    HW271735   5.105  12.919  11.578
23280SOL     OW71736   6.180  13.553   3.983
23280SOL    HW171737   6.247  13.583   3.921
23280SOL    HW271738   6.225  13.545   4.066
23281SOL     OW71739   1.396   9.861   2.094
23281SOL    HW171740   1.455   9.903   2.157
23281SOL    HW271741   1.442   9.783   2.066
23282SOL     OW71742  11.298   3.757  12.097
23282SOL    HW171743  11.352   3.780  12.172
23282SOL    HW271744  11.215   3.803  12.113
23283SOL     OW71745   8.864   6.036  13.762
23283SOL    HW171746   8.805   6.097  13.719
23283SOL    HW271747   8.939   6.030  13.702
23284SOL     OW71748  11.403   3.822   6.368
23284SOL    HW171749  11.487   3.787   6.397
23284SOL    HW271750  11.375   3.763   6.299
23285SOL     OW71751   8.688   9.175  11.544
23285SOL    HW171752   8.711   9.217  11.461
23285SOL    HW271753   8.770   9.172  11.593
23286SOL     OW71754  12.601   2.184   2.446
23286SOL    HW171755  12.564   2.112   2.396
23286SOL    HW271756  12.586   2.262   2.392
23287SOL     OW71757   5.363   0.718  14.148
23287SOL    HW171758   5.388   0.668  14.071
23287SOL    HW271759   5.445   0.749  14.185
23288SOL     OW71760  12.959  11.575  10.074
23288SOL    HW171761  13.011  11.563   9.995
23288SOL    HW271762  13.013  11.631  10.131
23289SOL     OW71763   9.984   6.838  13.190
23289SOL    HW171764   9.967   6.884  13.273
23289SOL    HW271765  10.072   6.865  13.166
23290SOL     OW71766  13.234   5.886   4.649
23290SOL    HW171767  13.213   5.804   4.605
23290SOL    HW271768  13.152   5.913   4.689
23291SOL     OW71769   9.306   3.671  13.380
23291SOL    HW171770   9.237   3.687  13.317
23291SOL    HW271771   9.374   3.736  13.359
23292SOL     OW71772   9.253   4.530   9.534
23292SOL    HW171773   9.200   4.557   9.609
23292SOL    HW271774   9.260   4.435   9.543
23293SOL     OW71775   7.638   3.901   8.890
23293SOL    HW171776   7.572   3.833   8.878
23293SOL    HW271777   7.616   3.941   8.974
23294SOL     OW71778   1.581   8.820  12.473
23294SOL    HW171779   1.615   8.855  12.555
23294SOL    HW271780   1.615   8.878  12.406
23295SOL     OW71781   4.432  14.305   6.525
23295SOL    HW171782   4.437  14.366   6.451
23295SOL    HW271783   4.362  14.340   6.580
23296SOL     OW71784   9.545   5.214   5.469
23296SOL    HW171785   9.534   5.287   5.530
23296SOL    HW271786   9.575   5.141   5.523
23297SOL     OW71787   1.968   2.229   9.385
23297SOL    HW171788   1.902   2.164   9.408
23297SOL    HW271789   2.006   2.198   9.303
23298SOL     OW71790  14.308   9.333   5.009
23298SOL    HW171791  14.250   9.376   5.071
23298SOL    HW271792  14.392   9.379   5.018
23299SOL     OW71793   3.279  12.710   5.332
23299SOL    HW171794   3.234  12.790   5.358
23299SOL    HW271795   3.271  12.652   5.408
23300SOL     OW71796   9.670   9.966   0.487
23300SOL    HW171797   9.583   9.960   0.528
23300SOL    HW271798   9.719   9.894   0.526
23301SOL     OW71799   5.707   5.694  14.786
23301SOL    HW171800   5.780   5.744  14.751
23301SOL    HW271801   5.698   5.619  14.728
23302SOL     OW71802   5.008   7.358   8.921
23302SOL    HW171803   4.948   7.431   8.935
23302SOL    HW271804   4.990   7.329   8.831
23303SOL     OW71805  11.868   9.812   5.846
23303SOL    HW171806  11.894   9.807   5.754
23303SOL    HW271807  11.863   9.906   5.864
23304SOL     OW71808  14.517   0.725  14.321
23304SOL    HW171809  14.464   0.686  14.252
23304SOL    HW271810  14.454   0.772  14.376
23305SOL     OW71811  12.470   8.568   9.869
23305SOL    HW171812  12.374   8.563   9.864
23305SOL    HW271813  12.487   8.656   9.902
23306SOL     OW71814  13.387   8.697  13.668
23306SOL    HW171815  13.320   8.762  13.644
23306SOL    HW271816  13.367   8.674  13.758
23307SOL     OW71817   1.791   4.038   1.208
23307SOL    HW171818   1.829   3.954   1.184
23307SOL    HW271819   1.698   4.018   1.222
23308SOL     OW71820   0.769   6.288  13.829
23308SOL    HW171821   0.808   6.294  13.742
23308SOL    HW271822   0.829   6.232  13.878
23309SOL     OW71823   4.561  11.150  10.471
23309SOL    HW171824   4.624  11.214  10.504
23309SOL    HW271825   4.558  11.166  10.376
23310SOL     OW71826   9.856   4.656   8.327
23310SOL    HW171827   9.835   4.632   8.417
23310SOL    HW271828   9.773   4.651   8.280
23311SOL     OW71829  13.709   8.245   1.349
23311SOL    HW171830  13.618   8.222   1.330
23311SOL    HW271831  13.736   8.182   1.416
23312SOL     OW71832   0.141   5.194   2.205
23312SOL    HW171833   0.082   5.120   2.218
23312SOL    HW271834   0.228   5.157   2.219
23313SOL     OW71835   8.506   2.911   4.403
23313SOL    HW171836   8.600   2.924   4.407
23313SOL    HW271837   8.494   2.816   4.404
23314SOL     OW71838  11.163  10.731   2.672
23314SOL    HW171839  11.086  10.684   2.642
23314SOL    HW271840  11.206  10.670   2.733
23315SOL     OW71841  10.731   9.423  13.483
23315SOL    HW171842  10.802   9.482  13.508
23315SOL    HW271843  10.678   9.413  13.562
23316SOL     OW71844  14.301  13.744   3.984
23316SOL    HW171845  14.324  13.828   3.946
23316SOL    HW271846  14.377  13.688   3.967
23317SOL     OW71847  11.850  11.947   4.736
23317SOL    HW171848  11.915  11.962   4.805
23317SOL    HW271849  11.827  12.034   4.704
23318SOL     OW71850  10.725   1.587  14.644
23318SOL    HW171851  10.704   1.602  14.737
23318SOL    HW271852  10.689   1.501  14.625
23319SOL     OW71853   6.570  13.465   5.822
23319SOL    HW171854   6.641  13.486   5.761
23319SOL    HW271855   6.605  13.489   5.908
23320SOL     OW71856   4.724   8.911   4.150
23320SOL    HW171857   4.788   8.981   4.140
23320SOL    HW271858   4.768   8.833   4.118
23321SOL     OW71859   6.648   0.192  11.732
23321SOL    HW171860   6.605   0.174  11.815
23321SOL    HW271861   6.684   0.280  11.742
23322SOL     OW71862  14.440   1.757   1.437
23322SOL    HW171863  14.414   1.739   1.346
23322SOL    HW271864  14.493   1.681   1.462
23323SOL     OW71865   2.329  13.930  13.369
23323SOL    HW171866   2.382  13.868  13.419
23323SOL    HW271867   2.255  13.950  13.427
23324SOL     OW71868  13.824  12.565  10.685
23324SOL    HW171869  13.914  12.550  10.656
23324SOL    HW271870  13.827  12.652  10.726
23325SOL     OW71871   6.228   9.016   0.756
23325SOL    HW171872   6.146   8.992   0.713
23325SOL    HW271873   6.203   9.043   0.844
23326SOL     OW71874   2.266   0.055   1.553
23326SOL    HW171875   2.209  14.857   1.520
23326SOL    HW271876   2.307   0.092   1.475
23327SOL     OW71877   4.655  12.569  11.940
23327SOL    HW171878   4.667  12.542  12.031
23327SOL    HW271879   4.743  12.586  11.908
23328SOL     OW71880   9.508   9.640   7.132
23328SOL    HW171881   9.594   9.680   7.115
23328SOL    HW271882   9.511   9.616   7.224
23329SOL     OW71883   7.336   1.002   0.157
23329SOL    HW171884   7.421   0.967   0.132
23329SOL    HW271885   7.355   1.088   0.193
23330SOL     OW71886   4.048   8.950   3.388
23330SOL    HW171887   4.118   8.940   3.324
23330SOL    HW271888   3.987   9.012   3.347
23331SOL     OW71889   2.945   8.446   7.918
23331SOL    HW171890   2.956   8.360   7.878
23331SOL    HW271891   3.035   8.475   7.936
23332SOL     OW71892   3.255   8.074  11.604
23332SOL    HW171893   3.172   8.118  11.621
23332SOL    HW271894   3.319   8.121  11.657
23333SOL     OW71895   1.137   2.859   2.830
23333SOL    HW171896   1.213   2.916   2.823
23333SOL    HW271897   1.154   2.805   2.907
23334SOL     OW71898   9.909   0.343   6.813
23334SOL    HW171899   9.928   0.427   6.773
23334SOL    HW271900   9.981   0.329   6.875
23335SOL     OW71901   6.818   9.280   1.939
23335SOL    HW171902   6.836   9.232   2.019
23335SOL    HW271903   6.844   9.220   1.869
23336SOL     OW71904   7.886  13.829   9.649
23336SOL    HW171905   7.943  13.894   9.690
23336SOL    HW271906   7.908  13.747   9.692
23337SOL     OW71907   1.861  10.230   6.192
23337SOL    HW171908   1.823  10.190   6.113
23337SOL    HW271909   1.820  10.316   6.197
23338SOL     OW71910   5.865   7.686   9.862
23338SOL    HW171911   5.775   7.668   9.834
23338SOL    HW271912   5.887   7.769   9.820
23339SOL     OW71913   7.588   9.972  14.605
23339SOL    HW171914   7.609   9.899  14.547
23339SOL    HW271915   7.655   9.967  14.674
23340SOL     OW71916  10.417   3.635   8.933
23340SOL    HW171917  10.478   3.681   8.991
23340SOL    HW271918  10.345   3.609   8.990
23341SOL     OW71919   7.578   9.896  13.101
23341SOL    HW171920   7.649   9.895  13.165
23341SOL    HW271921   7.601   9.827  13.039
23342SOL     OW71922  10.561   8.272   2.337
23342SOL    HW171923  10.491   8.327   2.372
23342SOL    HW271924  10.603   8.234   2.415
23343SOL     OW71925   4.844   0.300  11.289
23343SOL    HW171926   4.820   0.392  11.290
23343SOL    HW271927   4.768   0.255  11.250
23344SOL     OW71928  13.006  10.024  11.937
23344SOL    HW171929  13.031  10.067  11.855
23344SOL    HW271930  12.910  10.028  11.937
23345SOL     OW71931  11.078  13.025   2.493
23345SOL    HW171932  11.014  13.072   2.546
23345SOL    HW271933  11.136  13.093   2.459
23346SOL     OW71934   5.513   0.435   2.869
23346SOL    HW171935   5.565   0.374   2.816
23346SOL    HW271936   5.462   0.378   2.927
23347SOL     OW71937   1.643   3.014   5.403
23347SOL    HW171938   1.721   3.064   5.379
23347SOL    HW271939   1.593   3.073   5.460
23348SOL     OW71940  13.009  13.656   7.810
23348SOL    HW171941  12.992  13.649   7.717
23348SOL    HW271942  13.054  13.740   7.820
23349SOL     OW71943   3.775  13.739   5.832
23349SOL    HW171944   3.808  13.675   5.895
23349SOL    HW271945   3.705  13.692   5.785
23350SOL     OW71946  14.654  13.809  10.838
23350SOL    HW171947  14.558  13.810  10.831
23350SOL    HW271948  14.671  13.785  10.930
23351SOL     OW71949  12.990   8.572   5.381
23351SOL    HW171950  13.074   8.617   5.389
23351SOL    HW271951  12.988   8.540   5.291
23352SOL     OW71952   4.951  13.318   5.538
23352SOL    HW171953   4.965  13.250   5.603
23352SOL    HW271954   5.035  13.363   5.531
23353SOL     OW71955   7.058   3.631  10.035
23353SOL    HW171956   7.044   3.622   9.940
23353SOL    HW271957   6.985   3.582  10.074
23354SOL     OW71958   7.719  12.933   7.442
23354SOL    HW171959   7.679  12.852   7.409
23354SOL    HW271960   7.663  13.003   7.408
23355SOL     OW71961   4.490   7.509  14.656
23355SOL    HW171962   4.472   7.416  14.665
23355SOL    HW271963   4.405   7.551  14.669
23356SOL     OW71964   4.088   4.100   0.137
23356SOL    HW171965   4.165   4.054   0.171
23356SOL    HW271966   4.098   4.098   0.042
23357SOL     OW71967   5.322   4.401   7.825
23357SOL    HW171968   5.400   4.429   7.873
23357SOL    HW271969   5.306   4.471   7.762
23358SOL     OW71970   2.021  13.418   1.263
23358SOL    HW171971   2.041  13.496   1.315
23358SOL    HW271972   1.928  13.404   1.276
23359SOL     OW71973   5.323   0.568  11.674
23359SOL    HW171974   5.391   0.501  11.681
23359SOL    HW271975   5.365   0.640  11.627
23360SOL     OW71976  10.884   3.963   8.788
23360SOL    HW171977  10.919   3.895   8.731
23360SOL    HW271978  10.962   4.005   8.826
23361SOL     OW71979  10.886   2.821   4.159
23361SOL    HW171980  10.947   2.747   4.170
23361SOL    HW271981  10.834   2.797   4.082
23362SOL     OW71982  10.921  10.794  10.462
23362SOL    HW171983  10.840  10.801  10.411
23362SOL    HW271984  10.967  10.720  10.422
23363SOL     OW71985   9.684   6.796   0.631
23363SOL    HW171986   9.609   6.737   0.621
23363SOL    HW271987   9.685   6.818   0.725
23364SOL     OW71988  11.005  11.868   4.729
23364SOL    HW171989  10.964  11.904   4.651
23364SOL    HW271990  11.094  11.845   4.700
23365SOL     OW71991   5.600   3.367   2.686
23365SOL    HW171992   5.667   3.305   2.715
23365SOL    HW271993   5.601   3.359   2.590
23366SOL     OW71994  11.224  12.323  11.345
23366SOL    HW171995  11.242  12.231  11.360
23366SOL    HW271996  11.200  12.357  11.431
23367SOL     OW71997   9.823   7.143   6.677
23367SOL    HW171998   9.747   7.097   6.712
23367SOL    HW271999   9.864   7.182   6.754
23368SOL     OW72000  14.598   9.915   3.021
23368SOL    HW172001  14.605   9.993   2.965
23368SOL    HW272002  14.541   9.856   2.972
23369SOL     OW72003   5.804  13.338  11.972
23369SOL    HW172004   5.894  13.339  11.938
23369SOL    HW272005   5.799  13.257  12.022
23370SOL     OW72006   8.917   8.699   7.902
23370SOL    HW172007   8.849   8.765   7.893
23370SOL    HW272008   8.890   8.628   7.844
23371SOL     OW72009  11.010  14.172   7.319
23371SOL    HW172010  11.092  14.124   7.331
23371SOL    HW272011  11.032  14.243   7.259
23372SOL     OW72012   4.102  10.589   5.829
23372SOL    HW172013   4.096  10.541   5.746
23372SOL    HW272014   4.170  10.545   5.878
23373SOL     OW72015   9.144   7.442   5.866
23373SOL    HW172016   9.210   7.511   5.856
23373SOL    HW272017   9.188   7.362   5.838
23374SOL     OW72018   9.381   3.280  11.041
23374SOL    HW172019   9.372   3.217  11.112
23374SOL    HW272020   9.293   3.313  11.026
23375SOL     OW72021  10.736   8.129  11.983
23375SOL    HW172022  10.741   8.224  11.973
23375SOL    HW272023  10.779   8.094  11.905
23376SOL     OW72024   9.458   9.792  14.236
23376SOL    HW172025   9.411   9.866  14.198
23376SOL    HW272026   9.546   9.797  14.198
23377SOL     OW72027  13.275   9.641   1.901
23377SOL    HW172028  13.298   9.733   1.914
23377SOL    HW272029  13.359   9.597   1.889
23378SOL     OW72030   3.986   3.774   2.721
23378SOL    HW172031   4.022   3.711   2.659
23378SOL    HW272032   4.022   3.858   2.693
23379SOL     OW72033  14.501   6.279  12.782
23379SOL    HW172034  14.545   6.199  12.754
23379SOL    HW272035  14.566   6.327  12.832
23380SOL     OW72036  13.850   6.412  10.294
23380SOL    HW172037  13.837   6.343  10.358
23380SOL    HW272038  13.888   6.367  10.218
23381SOL     OW72039   7.024  12.805   0.062
23381SOL    HW172040   7.111  12.799   0.100
23381SOL    HW272041   7.020  12.734  14.870
23382SOL     OW72042   9.314   0.051   7.774
23382SOL    HW172043   9.380  14.858   7.748
23382SOL    HW272044   9.261   0.006   7.840
23383SOL     OW72045  13.460   4.459  14.504
23383SOL    HW172046  13.483   4.546  14.471
23383SOL    HW272047  13.396   4.426  14.441
23384SOL     OW72048   8.621   1.190   7.913
23384SOL    HW172049   8.543   1.152   7.874
23384SOL    HW272050   8.692   1.132   7.885
23385SOL     OW72051  10.392   8.334   4.933
23385SOL    HW172052  10.390   8.364   4.842
23385SOL    HW272053  10.483   8.311   4.949
23386SOL     OW72054  10.996   4.382   0.459
23386SOL    HW172055  11.000   4.290   0.432
23386SOL    HW272056  11.047   4.385   0.541
23387SOL     OW72057   5.869  11.652   9.143
23387SOL    HW172058   5.810  11.721   9.113
23387SOL    HW272059   5.940  11.652   9.079
23388SOL     OW72060  13.208   6.789   9.102
23388SOL    HW172061  13.293   6.754   9.126
23388SOL    HW272062  13.221   6.884   9.100
23389SOL     OW72063  11.947  11.880   2.449
23389SOL    HW172064  11.925  11.797   2.407
23389SOL    HW272065  11.882  11.942   2.414
23390SOL     OW72066   0.505  14.394   8.160
23390SOL    HW172067   0.600  14.384   8.169
23390SOL    HW272068   0.472  14.385   8.249
23391SOL     OW72069   2.837   1.138  14.309
23391SOL    HW172070   2.885   1.129  14.227
23391SOL    HW272071   2.902   1.164  14.373
23392SOL     OW72072  10.431   5.129   5.172
23392SOL    HW172073  10.395   5.174   5.248
23392SOL    HW272074  10.408   5.185   5.098
23393SOL     OW72075  10.890  13.882   9.812
23393SOL    HW172076  10.854  13.808   9.764
23393SOL    HW272077  10.965  13.911   9.760
23394SOL     OW72078   1.072  14.789   2.594
23394SOL    HW172079   1.012  14.811   2.664
23394SOL    HW272080   1.078  14.869   2.542
23395SOL     OW72081  13.148   2.929   8.145
23395SOL    HW172082  13.181   2.839   8.137
23395SOL    HW272083  13.066   2.919   8.194
23396SOL     OW72084   7.891   4.969   8.987
23396SOL    HW172085   7.796   4.957   8.986
23396SOL    HW272086   7.904   5.063   8.990
23397SOL     OW72087  12.520   5.255  11.516
23397SOL    HW172088  12.489   5.243  11.427
23397SOL    HW272089  12.454   5.213  11.571
23398SOL     OW72090   0.618  12.900  13.165
23398SOL    HW172091   0.543  12.855  13.205
23398SOL    HW272092   0.604  12.993  13.183
23399SOL     OW72093   8.522  14.149  13.064
23399SOL    HW172094   8.584  14.145  13.137
23399SOL    HW272095   8.575  14.127  12.987
23400SOL     OW72096   3.194   4.771   5.708
23400SOL    HW172097   3.188   4.676   5.702
23400SOL    HW272098   3.205   4.800   5.618
23401SOL     OW72099  10.686   0.337  13.210
23401SOL    HW172100  10.709   0.245  13.199
23401SOL    HW272101  10.760   0.376  13.256
23402SOL     OW72102   4.472   2.539   8.852
23402SOL    HW172103   4.486   2.565   8.943
23402SOL    HW272104   4.420   2.459   8.858
23403SOL     OW72105  12.247   0.597   2.080
23403SOL    HW172106  12.218   0.574   1.992
23403SOL    HW272107  12.322   0.539   2.096
23404SOL     OW72108   9.486  10.455   6.672
23404SOL    HW172109   9.418  10.388   6.681
23404SOL    HW272110   9.553  10.414   6.617
23405SOL     OW72111   6.128   8.672   4.582
23405SOL    HW172112   6.078   8.719   4.648
23405SOL    HW272113   6.133   8.582   4.615
23406SOL     OW72114  14.749   4.988   6.283
23406SOL    HW172115  14.836   4.972   6.247
23406SOL    HW272116  14.688   4.954   6.217
23407SOL     OW72117   0.559   3.611  11.824
23407SOL    HW172118   0.479   3.615  11.875
23407SOL    HW272119   0.552   3.682  11.761
23408SOL     OW72120   1.684  10.563   0.812
23408SOL    HW172121   1.725  10.588   0.729
23408SOL    HW272122   1.722  10.478   0.833
23409SOL     OW72123   8.892  11.618   7.107
23409SOL    HW172124   8.819  11.676   7.130
23409SOL    HW272125   8.902  11.561   7.183
23410SOL     OW72126   3.396   5.768   1.086
23410SOL    HW172127   3.335   5.710   1.131
23410SOL    HW272128   3.375   5.757   0.993
23411SOL     OW72129  14.185   6.472  11.509
23411SOL    HW172130  14.245   6.488  11.582
23411SOL    HW272131  14.120   6.542  11.516
23412SOL     OW72132   6.915  11.692   1.478
23412SOL    HW172133   6.879  11.759   1.536
23412SOL    HW272134   6.867  11.612   1.501
23413SOL     OW72135   4.896   7.050   8.518
23413SOL    HW172136   4.845   6.971   8.537
23413SOL    HW272137   4.966   7.020   8.460
23414SOL     OW72138  12.505   5.233   2.700
23414SOL    HW172139  12.528   5.306   2.642
23414SOL    HW272140  12.588   5.187   2.715
23415SOL     OW72141   2.895   1.876   1.938
23415SOL    HW172142   2.985   1.848   1.950
23415SOL    HW272143   2.861   1.887   2.027
23416SOL     OW72144   8.088   4.292  11.260
23416SOL    HW172145   8.114   4.381  11.286
23416SOL    HW272146   8.123   4.282  11.172
23417SOL     OW72147   0.453   3.551   4.498
23417SOL    HW172148   0.361   3.559   4.470
23417SOL    HW272149   0.450   3.561   4.593
23418SOL     OW72150   9.193  14.709   5.520
23418SOL    HW172151   9.138  14.631   5.519
23418SOL    HW272152   9.215  14.722   5.613
23419SOL     OW72153   6.653   2.620   9.910
23419SOL    HW172154   6.698   2.545   9.949
23419SOL    HW272155   6.680   2.619   9.818
23420SOL     OW72156   4.790   8.630   0.288
23420SOL    HW172157   4.724   8.589   0.232
23420SOL    HW272158   4.769   8.598   0.376
23421SOL     OW72159  10.533   5.339   8.514
23421SOL    HW172160  10.536   5.426   8.474
23421SOL    HW272161  10.450   5.301   8.484
23422SOL     OW72162   0.729   0.171   6.900
23422SOL    HW172163   0.712   0.188   6.807
23422SOL    HW272164   0.805   0.226   6.921
23423SOL     OW72165   8.530   2.167   1.881
23423SOL    HW172166   8.527   2.187   1.788
23423SOL    HW272167   8.622   2.179   1.906
23424SOL     OW72168   5.394   4.307   5.413
23424SOL    HW172169   5.364   4.323   5.503
23424SOL    HW272170   5.424   4.392   5.382
23425SOL     OW72171   6.037   2.233   0.754
23425SOL    HW172172   6.044   2.158   0.813
23425SOL    HW272173   5.991   2.299   0.806
23426SOL     OW72174   5.006  11.938   4.421
23426SOL    HW172175   4.969  12.006   4.478
23426SOL    HW272176   5.099  11.938   4.441
23427SOL     OW72177   9.559   1.237   5.906
23427SOL    HW172178   9.491   1.221   5.841
23427SOL    HW272179   9.557   1.332   5.919
23428SOL     OW72180  14.827  10.709   4.483
23428SOL    HW172181  14.797  10.784   4.534
23428SOL    HW272182  14.769  10.638   4.510
23429SOL     OW72183   6.421   9.426   1.929
23429SOL    HW172184   6.423   9.434   1.833
23429SOL    HW272185   6.356   9.357   1.945
23430SOL     OW72186   4.437  11.452   9.431
23430SOL    HW172187   4.526  11.453   9.395
23430SOL    HW272188   4.446  11.485   9.520
23431SOL     OW72189   5.207  12.852   1.734
23431SOL    HW172190   5.293  12.831   1.770
23431SOL    HW272191   5.163  12.900   1.804
23432SOL     OW72192   9.677   3.042   6.525
23432SOL    HW172193   9.686   3.073   6.616
23432SOL    HW272194   9.608   3.098   6.488
23433SOL     OW72195   2.059   6.629   8.271
23433SOL    HW172196   2.091   6.708   8.315
23433SOL    HW272197   2.137   6.577   8.253
23434SOL     OW72198   7.045   2.504   8.935
23434SOL    HW172199   6.979   2.561   8.894
23434SOL    HW272200   7.056   2.432   8.873
23435SOL     OW72201   8.864  11.632  10.639
23435SOL    HW172202   8.941  11.610  10.692
23435SOL    HW272203   8.901  11.664  10.557
23436SOL     OW72204   8.976  11.278  12.673
23436SOL    HW172205   9.034  11.332  12.619
23436SOL    HW272206   9.011  11.286  12.762
23437SOL     OW72207   3.709  10.252   5.849
23437SOL    HW172208   3.752  10.181   5.897
23437SOL    HW272209   3.633  10.211   5.808
23438SOL     OW72210  13.487   7.516   3.374
23438SOL    HW172211  13.392   7.507   3.368
23438SOL    HW272212  13.501   7.597   3.422
23439SOL     OW72213   0.962  13.233   7.494
23439SOL    HW172214   0.993  13.287   7.421
23439SOL    HW272215   0.879  13.196   7.463
23440SOL     OW72216   8.084   2.362   8.568
23440SOL    HW172217   8.142   2.435   8.548
23440SOL    HW272218   8.120   2.288   8.519
23441SOL     OW72219   2.435   0.435   5.289
23441SOL    HW172220   2.355   0.484   5.265
23441SOL    HW272221   2.403   0.351   5.321
23442SOL     OW72222   3.209   9.625   4.726
23442SOL    HW172223   3.297   9.621   4.764
23442SOL    HW272224   3.156   9.670   4.791
23443SOL     OW72225   9.361   6.963  10.193
23443SOL    HW172226   9.356   7.056  10.215
23443SOL    HW272227   9.332   6.959  10.101
23444SOL     OW72228   8.982  13.452  11.043
23444SOL    HW172229   8.996  13.368  11.087
23444SOL    HW272230   8.992  13.432  10.950
23445SOL     OW72231   5.286   9.533  14.141
23445SOL    HW172232   5.320   9.484  14.216
23445SOL    HW272233   5.262   9.618  14.178
23446SOL     OW72234  13.268   7.450   2.649
23446SOL    HW172235  13.231   7.440   2.561
23446SOL    HW272236  13.254   7.542   2.670
23447SOL     OW72237   6.820  11.455   1.584
23447SOL    HW172238   6.907  11.458   1.622
23447SOL    HW272239   6.788  11.366   1.602
23448SOL     OW72240  14.057   7.579   4.900
23448SOL    HW172241  14.100   7.656   4.939
23448SOL    HW272242  14.127   7.515   4.892
23449SOL     OW72243  13.050  12.538  12.242
23449SOL    HW172244  13.060  12.526  12.148
23449SOL    HW272245  12.990  12.468  12.269
23450SOL     OW72246   4.297   1.048   6.527
23450SOL    HW172247   4.253   1.132   6.510
23450SOL    HW272248   4.382   1.057   6.484
23451SOL     OW72249  14.011   6.304   4.794
23451SOL    HW172250  13.991   6.211   4.790
23451SOL    HW272251  13.961   6.343   4.724
23452SOL     OW72252   0.223  10.991   7.726
23452SOL    HW172253   0.291  11.053   7.753
23452SOL    HW272254   0.143  11.042   7.722
23453SOL     OW72255   0.181   4.849  14.100
23453SOL    HW172256   0.141   4.911  14.161
23453SOL    HW272257   0.107   4.802  14.062
23454SOL     OW72258   1.893   3.524   2.013
23454SOL    HW172259   1.891   3.590   2.082
23454SOL    HW272260   1.981   3.532   1.976
23455SOL     OW72261  13.884  10.584   4.611
23455SOL    HW172262  13.832  10.544   4.680
23455SOL    HW272263  13.953  10.521   4.592
23456SOL     OW72264   9.141   5.210   8.655
23456SOL    HW172265   9.071   5.200   8.590
23456SOL    HW272266   9.151   5.304   8.666
23457SOL     OW72267   2.874   6.034  10.505
23457SOL    HW172268   2.820   6.112  10.511
23457SOL    HW272269   2.914   6.026  10.592
23458SOL     OW72270   6.085   2.241   1.273
23458SOL    HW172271   6.027   2.205   1.340
23458SOL    HW272272   6.168   2.255   1.318
23459SOL     OW72273   5.812   1.156  13.833
23459SOL    HW172274   5.902   1.180  13.812
23459SOL    HW272275   5.764   1.240  13.834
23460SOL     OW72276   6.965   7.476   2.138
23460SOL    HW172277   7.039   7.532   2.162
23460SOL    HW272278   6.891   7.537   2.128
23461SOL     OW72279  14.183  10.237  13.646
23461SOL    HW172280  14.218  10.171  13.706
23461SOL    HW272281  14.251  10.248  13.580
23462SOL     OW72282  10.720   5.841   7.564
23462SOL    HW172283  10.651   5.849   7.630
23462SOL    HW272284  10.738   5.931   7.538
23463SOL     OW72285   3.267  13.419   2.951
23463SOL    HW172286   3.198  13.354   2.939
23463SOL    HW272287   3.305  13.430   2.863
23464SOL     OW72288   5.867   3.400   4.638
23464SOL    HW172289   5.819   3.410   4.720
23464SOL    HW272290   5.918   3.480   4.630
23465SOL     OW72291   0.259   5.299   2.833
23465SOL    HW172292   0.201   5.359   2.787
23465SOL    HW272293   0.329   5.281   2.771
23466SOL     OW72294  14.325  10.954   5.218
23466SOL    HW172295  14.312  10.873   5.169
23466SOL    HW272296  14.356  11.017   5.153
23467SOL     OW72297   5.245   4.477   1.231
23467SOL    HW172298   5.156   4.474   1.264
23467SOL    HW272299   5.283   4.393   1.260
23468SOL     OW72300  12.820   5.901   5.018
23468SOL    HW172301  12.742   5.929   4.971
23468SOL    HW272302  12.832   5.809   4.993
23469SOL     OW72303  10.544   7.911   4.133
23469SOL    HW172304  10.534   8.006   4.142
23469SOL    HW272305  10.455   7.877   4.140
23470SOL     OW72306   4.810   5.601   8.489
23470SOL    HW172307   4.801   5.528   8.551
23470SOL    HW272308   4.807   5.559   8.402
23471SOL     OW72309   6.405   0.767   6.007
23471SOL    HW172310   6.385   0.674   5.993
23471SOL    HW272311   6.427   0.773   6.099
23472SOL     OW72312   6.560   4.380  14.788
23472SOL    HW172313   6.604   4.464  14.802
23472SOL    HW272314   6.547   4.375  14.694
23473SOL     OW72315   2.697   2.645   7.928
23473SOL    HW172316   2.773   2.691   7.893
23473SOL    HW272317   2.658   2.602   7.852
23474SOL     OW72318   2.940   5.472   0.242
23474SOL    HW172319   2.929   5.542   0.307
23474SOL    HW272320   3.034   5.467   0.228
23475SOL     OW72321   2.091   8.598   2.009
23475SOL    HW172322   2.119   8.683   1.974
23475SOL    HW272323   2.171   8.546   2.013
23476SOL     OW72324  12.721   8.727  12.791
23476SOL    HW172325  12.803   8.688  12.761
23476SOL    HW272326  12.693   8.672  12.864
23477SOL     OW72327  11.313   8.956   9.667
23477SOL    HW172328  11.337   8.895   9.598
23477SOL    HW272329  11.396   8.992   9.698
23478SOL     OW72330   5.341   1.880   1.621
23478SOL    HW172331   5.349   1.943   1.692
23478SOL    HW272332   5.399   1.914   1.552
23479SOL     OW72333   8.001  12.220   7.980
23479SOL    HW172334   8.014  12.288   7.915
23479SOL    HW272335   8.084  12.214   8.027
23480SOL     OW72336   0.652  11.326   0.490
23480SOL    HW172337   0.575  11.332   0.548
23480SOL    HW272338   0.700  11.250   0.523
23481SOL     OW72339   4.284   3.786   6.459
23481SOL    HW172340   4.357   3.801   6.520
23481SOL    HW272341   4.301   3.699   6.422
23482SOL     OW72342  13.830   4.814   2.471
23482SOL    HW172343  13.891   4.888   2.471
23482SOL    HW272344  13.869   4.750   2.412
23483SOL     OW72345  12.555   0.227   3.567
23483SOL    HW172346  12.558   0.132   3.578
23483SOL    HW272347  12.462   0.250   3.571
23484SOL     OW72348  12.983  12.457   6.847
23484SOL    HW172349  12.912  12.447   6.784
23484SOL    HW272350  12.954  12.527   6.906
23485SOL     OW72351  10.912   3.143   2.390
23485SOL    HW172352  10.970   3.218   2.402
23485SOL    HW272353  10.870   3.131   2.475
23486SOL     OW72354   4.503   1.488   0.245
23486SOL    HW172355   4.579   1.499   0.188
23486SOL    HW272356   4.459   1.573   0.244
23487SOL     OW72357   7.151  14.076  10.496
23487SOL    HW172358   7.113  14.164  10.490
23487SOL    HW272359   7.212  14.082  10.570
23488SOL     OW72360   8.008   9.435   8.844
23488SOL    HW172361   7.916   9.461   8.844
23488SOL    HW272362   8.014   9.369   8.913
23489SOL     OW72363  13.347   8.176   5.781
23489SOL    HW172364  13.261   8.175   5.822
23489SOL    HW272365  13.336   8.226   5.701
23490SOL     OW72366   6.797   6.948   1.861
23490SOL    HW172367   6.726   6.952   1.798
23490SOL    HW272368   6.822   6.855   1.863
23491SOL     OW72369   6.831  14.618   3.293
23491SOL    HW172370   6.859  14.685   3.231
23491SOL    HW272371   6.739  14.603   3.272
23492SOL     OW72372  12.885   0.687   3.477
23492SOL    HW172373  12.934   0.613   3.440
23492SOL    HW272374  12.912   0.762   3.424
23493SOL     OW72375  14.161  11.341  13.516
23493SOL    HW172376  14.255  11.326  13.505
23493SOL    HW272377  14.136  11.285  13.590
23494SOL     OW72378   9.678   9.021  11.211
23494SOL    HW172379   9.615   9.071  11.263
23494SOL    HW272380   9.651   9.034  11.120
23495SOL     OW72381   1.529   3.936   5.125
23495SOL    HW172382   1.564   3.955   5.212
23495SOL    HW272383   1.575   3.996   5.066
23496SOL     OW72384   7.691  13.288  14.759
23496SOL    HW172385   7.654  13.201  14.745
23496SOL    HW272386   7.650  13.318  14.840
23497SOL     OW72387   6.669   2.578  11.252
23497SOL    HW172388   6.673   2.534  11.337
23497SOL    HW272389   6.665   2.507  11.188
23498SOL     OW72390  12.472   9.988   3.509
23498SOL    HW172391  12.528   9.938   3.569
23498SOL    HW272392  12.439  10.061   3.561
23499SOL     OW72393   9.597  10.333  13.512
23499SOL    HW172394   9.655  10.305  13.440
23499SOL    HW272395   9.639  10.297  13.591
23500SOL     OW72396  10.136   1.663   8.954
23500SOL    HW172397  10.073   1.599   8.987
23500SOL    HW272398  10.150   1.723   9.028
23501SOL     OW72399  10.432  13.662   7.365
23501SOL    HW172400  10.449  13.571   7.343
23501SOL    HW272401  10.338  13.666   7.380
23502SOL     OW72402   5.054   1.434   4.059
23502SOL    HW172403   5.128   1.378   4.081
23502SOL    HW272404   5.085   1.523   4.079
23503SOL     OW72405   2.814   1.184  11.570
23503SOL    HW172406   2.841   1.236  11.495
23503SOL    HW272407   2.871   1.107  11.568
23504SOL     OW72408   0.629  10.921   2.077
23504SOL    HW172409   0.587  11.002   2.047
23504SOL    HW272410   0.666  10.943   2.162
23505SOL     OW72411   9.155  12.375   7.100
23505SOL    HW172412   9.115  12.450   7.145
23505SOL    HW272413   9.248  12.396   7.094
23506SOL     OW72414   9.575  13.152   1.448
23506SOL    HW172415   9.497  13.124   1.400
23506SOL    HW272416   9.562  13.118   1.536
23507SOL     OW72417   7.119   6.167   5.909
23507SOL    HW172418   7.173   6.157   5.831
23507SOL    HW272419   7.035   6.199   5.875
23508SOL     OW72420  14.305   5.409   9.339
23508SOL    HW172421  14.379   5.413   9.399
23508SOL    HW272422  14.335   5.455   9.260
23509SOL     OW72423   9.008  13.606  10.594
23509SOL    HW172424   8.929  13.654  10.620
23509SOL    HW272425   9.077  13.641  10.651
23510SOL     OW72426   1.120  10.366  13.961
23510SOL    HW172427   1.067  10.287  13.959
23510SOL    HW272428   1.087  10.415  14.037
23511SOL     OW72429   2.055  13.192   2.183
23511SOL    HW172430   2.069  13.279   2.147
23511SOL    HW272431   1.970  13.197   2.225
23512SOL     OW72432  12.711   4.156   3.991
23512SOL    HW172433  12.793   4.133   3.947
23512SOL    HW272434  12.679   4.073   4.026
23513SOL     OW72435   3.939   9.010   6.311
23513SOL    HW172436   3.943   8.921   6.277
23513SOL    HW272437   4.000   9.011   6.385
23514SOL     OW72438  11.552   5.387  12.498
23514SOL    HW172439  11.550   5.480  12.520
23514SOL    HW272440  11.622   5.351  12.553
23515SOL     OW72441  12.785  11.282   0.707
23515SOL    HW172442  12.876  11.272   0.679
23515SOL    HW272443  12.790  11.290   0.802
23516SOL     OW72444   6.602   3.419   7.266
23516SOL    HW172445   6.598   3.358   7.193
23516SOL    HW272446   6.693   3.451   7.266
23517SOL     OW72447  13.903   6.796   7.107
23517SOL    HW172448  13.836   6.864   7.104
23517SOL    HW272449  13.857   6.718   7.138
23518SOL     OW72450   0.781   3.858   6.631
23518SOL    HW172451   0.698   3.865   6.583
23518SOL    HW272452   0.772   3.918   6.704
23519SOL     OW72453  10.032   3.386   9.772
23519SOL    HW172454  10.019   3.348   9.859
23519SOL    HW272455  10.061   3.475   9.789
23520SOL     OW72456   7.623   2.989  14.202
23520SOL    HW172457   7.690   2.936  14.245
23520SOL    HW272458   7.631   3.075  14.244
23521SOL     OW72459   5.740   4.546   2.789
23521SOL    HW172460   5.653   4.509   2.800
23521SOL    HW272461   5.769   4.566   2.878
23522SOL     OW72462   5.950   5.743   1.277
23522SOL    HW172463   6.037   5.769   1.306
23522SOL    HW272464   5.938   5.788   1.193
23523SOL     OW72465  12.171   6.372   5.265
23523SOL    HW172466  12.191   6.278   5.260
23523SOL    HW272467  12.109   6.387   5.194
23524SOL     OW72468  11.236   0.023   2.349
23524SOL    HW172469  11.210   0.004   2.259
23524SOL    HW272470  11.213   0.115   2.361
23525SOL     OW72471  10.777   7.475  13.087
23525SOL    HW172472  10.740   7.476  13.175
23525SOL    HW272473  10.726   7.541  13.039
23526SOL     OW72474   6.730   3.972  11.339
23526SOL    HW172475   6.774   4.028  11.402
23526SOL    HW272476   6.677   3.912  11.393
23527SOL     OW72477   1.735   9.122   7.458
23527SOL    HW172478   1.714   9.054   7.394
23527SOL    HW272479   1.674   9.193   7.438
23528SOL     OW72480   0.214  13.971  14.148
23528SOL    HW172481   0.307  13.964  14.169
23528SOL    HW272482   0.191  13.885  14.111
23529SOL     OW72483   8.161   1.483  11.131
23529SOL    HW172484   8.109   1.413  11.171
23529SOL    HW272485   8.234   1.496  11.191
23530SOL     OW72486  10.939   3.811   3.642
23530SOL    HW172487  10.947   3.906   3.644
23530SOL    HW272488  10.856   3.792   3.686
23531SOL     OW72489   3.246  14.831   4.663
23531SOL    HW172490   3.263   0.041   4.616
23531SOL    HW272491   3.225  14.859   4.752
23532SOL     OW72492  14.253  10.182   2.869
23532SOL    HW172493  14.219  10.140   2.790
23532SOL    HW272494  14.240  10.117   2.938
23533SOL     OW72495   4.058   1.764  12.205
23533SOL    HW172496   3.976   1.747  12.251
23533SOL    HW272497   4.122   1.707  12.248
23534SOL     OW72498  10.943  14.372  12.521
23534SOL    HW172499  11.001  14.318  12.574
23534SOL    HW272500  10.975  14.362  12.432
23535SOL     OW72501  14.301   2.967   6.459
23535SOL    HW172502  14.334   3.056   6.445
23535SOL    HW272503  14.206   2.979   6.471
23536SOL     OW72504   4.351   9.505   0.027
23536SOL    HW172505   4.298   9.584   0.039
23536SOL    HW272506   4.368   9.502  14.804
23537SOL     OW72507   8.753   7.245   7.415
23537SOL    HW172508   8.722   7.206   7.497
23537SOL    HW272509   8.835   7.198   7.396
23538SOL     OW72510   2.230   7.282   6.932
23538SOL    HW172511   2.239   7.192   6.963
23538SOL    HW272512   2.274   7.283   6.847
23539SOL     OW72513  11.868   0.922  11.000
23539SOL    HW172514  11.795   0.982  10.985
23539SOL    HW272515  11.853   0.851  10.937
23540SOL     OW72516   4.394   5.655  13.016
23540SOL    HW172517   4.388   5.684  12.925
23540SOL    HW272518   4.448   5.575  13.012
23541SOL     OW72519   4.179  13.577   0.344
23541SOL    HW172520   4.205  13.495   0.302
23541SOL    HW272521   4.178  13.641   0.273
23542SOL     OW72522   9.825  12.445   6.624
23542SOL    HW172523   9.894  12.390   6.587
23542SOL    HW272524   9.777  12.478   6.548
23543SOL     OW72525   1.453   2.693   3.501
23543SOL    HW172526   1.372   2.673   3.455
23543SOL    HW272527   1.516   2.714   3.432
23544SOL     OW72528  14.839   3.598  14.060
23544SOL    HW172529   0.007   3.569  14.142
23544SOL    HW272530  14.826   3.692  14.071
23545SOL     OW72531   0.920   2.032  14.626
23545SOL    HW172532   0.895   2.049  14.717
23545SOL    HW272533   1.016   2.033  14.628
23546SOL     OW72534   5.301  14.441   8.389
23546SOL    HW172535   5.355  14.415   8.314
23546SOL    HW272536   5.364  14.463   8.458
23547SOL     OW72537   1.564  10.540   4.071
23547SOL    HW172538   1.551  10.445   4.077
23547SOL    HW272539   1.478  10.573   4.043
23548SOL     OW72540   2.150   5.741   5.834
23548SOL    HW172541   2.130   5.802   5.763
23548SOL    HW272542   2.229   5.776   5.875
23549SOL     OW72543   7.024   8.824   3.798
23549SOL    HW172544   7.101   8.860   3.753
23549SOL    HW272545   6.964   8.800   3.727
23550SOL     OW72546   9.705   5.829  11.571
23550SOL    HW172547   9.746   5.829  11.485
23550SOL    HW272548   9.613   5.848  11.554
23551SOL     OW72549   2.496  11.228  11.135
23551SOL    HW172550   2.571  11.208  11.191
23551SOL    HW272551   2.425  11.248  11.195
23552SOL     OW72552   5.912  12.459   1.104
23552SOL    HW172553   5.994  12.447   1.056
23552SOL    HW272554   5.860  12.382   1.082
23553SOL     OW72555   0.765   7.710   6.776
23553SOL    HW172556   0.786   7.617   6.779
23553SOL    HW272557   0.775   7.734   6.684
23554SOL     OW72558   9.488  14.720   0.527
23554SOL    HW172559   9.414  14.676   0.568
23554SOL    HW272560   9.482  14.697   0.434
23555SOL     OW72561  13.868  13.017  14.212
23555SOL    HW172562  13.840  13.050  14.298
23555SOL    HW272563  13.870  13.094  14.156
23556SOL     OW72564   4.206  14.133   2.699
23556SOL    HW172565   4.298  14.110   2.683
23556SOL    HW272566   4.164  14.127   2.613
23557SOL     OW72567  13.040  11.851  13.214
23557SOL    HW172568  12.978  11.916  13.247
23557SOL    HW272569  12.997  11.814  13.137
23558SOL     OW72570  11.837   2.494   3.067
23558SOL    HW172571  11.755   2.469   3.109
23558SOL    HW272572  11.894   2.520   3.139
23559SOL     OW72573  12.661   1.597   8.191
23559SOL    HW172574  12.750   1.564   8.181
23559SOL    HW272575  12.607   1.537   8.139
23560SOL     OW72576  13.792  10.426  13.915
23560SOL    HW172577  13.873  10.477  13.925
23560SOL    HW272578  13.769  10.434  13.823
23561SOL     OW72579  14.551   8.924   8.356
23561SOL    HW172580  14.629   8.903   8.408
23561SOL    HW272581  14.510   8.840   8.339
23562SOL     OW72582   1.543   9.277   8.548
23562SOL    HW172583   1.546   9.332   8.625
23562SOL    HW272584   1.621   9.301   8.498
23563SOL     OW72585   2.325   6.170   0.102
23563SOL    HW172586   2.296   6.103   0.039
23563SOL    HW272587   2.263   6.242   0.090
23564SOL     OW72588   4.357  14.021  13.050
23564SOL    HW172589   4.291  14.088  13.069
23564SOL    HW272590   4.417  14.064  12.989
23565SOL     OW72591  14.161   1.874  10.702
23565SOL    HW172592  14.238   1.838  10.657
23565SOL    HW272593  14.119   1.930  10.636
23566SOL     OW72594   7.375   8.196  11.440
23566SOL    HW172595   7.384   8.124  11.502
23566SOL    HW272596   7.322   8.262  11.485
23567SOL     OW72597   1.202  10.253  12.181
23567SOL    HW172598   1.177  10.337  12.221
23567SOL    HW272599   1.127  10.230  12.126
23568SOL     OW72600  12.895  12.432   9.502
23568SOL    HW172601  12.837  12.393   9.436
23568SOL    HW272602  12.969  12.372   9.509
23569SOL     OW72603   4.327   7.410   4.652
23569SOL    HW172604   4.378   7.400   4.572
23569SOL    HW272605   4.351   7.334   4.705
23570SOL     OW72606   6.119  10.881   6.287
23570SOL    HW172607   6.124  10.961   6.234
23570SOL    HW272608   6.065  10.905   6.362
23571SOL     OW72609   4.244   2.189   4.569
23571SOL    HW172610   4.173   2.214   4.629
23571SOL    HW272611   4.284   2.113   4.611
23572SOL     OW72612   0.876   2.853  10.684
23572SOL    HW172613   0.821   2.801  10.625
23572SOL    HW272614   0.943   2.791  10.714
23573SOL     OW72615   5.498   8.968   4.809
23573SOL    HW172616   5.575   8.999   4.857
23573SOL    HW272617   5.518   8.989   4.717
23574SOL     OW72618   1.728  12.676   6.742
23574SOL    HW172619   1.787  12.617   6.789
23574SOL    HW272620   1.725  12.640   6.653
23575SOL     OW72621   5.980   4.617  11.368
23575SOL    HW172622   5.919   4.550  11.339
23575SOL    HW272623   6.003   4.593  11.457
23576SOL     OW72624  10.157   6.174  13.227
23576SOL    HW172625  10.132   6.205  13.140
23576SOL    HW272626  10.080   6.189  13.281
23577SOL     OW72627   2.718  12.731   8.261
23577SOL    HW172628   2.654  12.766   8.199
23577SOL    HW272629   2.740  12.645   8.225
23578SOL     OW72630   8.705   6.856  12.368
23578SOL    HW172631   8.710   6.766  12.402
23578SOL    HW272632   8.675   6.846  12.278
23579SOL     OW72633   7.831   9.562  12.826
23579SOL    HW172634   7.838   9.505  12.903
23579SOL    HW272635   7.748   9.608  12.838
23580SOL     OW72636   8.978  10.285   1.918
23580SOL    HW172637   8.977  10.250   2.007
23580SOL    HW272638   9.053  10.243   1.877
23581SOL     OW72639   2.543  13.529   9.504
23581SOL    HW172640   2.625  13.566   9.537
23581SOL    HW272641   2.569  13.476   9.429
23582SOL     OW72642   7.932   6.639  14.403
23582SOL    HW172643   8.020   6.641  14.366
23582SOL    HW272644   7.921   6.550  14.434
23583SOL     OW72645   3.348   8.015   8.707
23583SOL    HW172646   3.261   8.002   8.744
23583SOL    HW272647   3.362   8.110   8.712
23584SOL     OW72648   4.317  13.124   5.008
23584SOL    HW172649   4.289  13.205   5.050
23584SOL    HW272650   4.386  13.090   5.065
23585SOL     OW72651   2.364  11.290  10.851
23585SOL    HW172652   2.439  11.247  10.810
23585SOL    HW272653   2.384  11.288  10.945
23586SOL     OW72654   4.196  13.769   4.248
23586SOL    HW172655   4.103  13.761   4.268
23586SOL    HW272656   4.241  13.739   4.327
23587SOL     OW72657  11.649   0.578  10.215
23587SOL    HW172658  11.667   0.545  10.303
23587SOL    HW272659  11.722   0.637  10.196
23588SOL     OW72660   9.515  11.394   7.087
23588SOL    HW172661   9.489  11.305   7.064
23588SOL    HW272662   9.448  11.450   7.048
23589SOL     OW72663   9.424   2.979   9.346
23589SOL    HW172664   9.459   2.961   9.258
23589SOL    HW272665   9.348   3.035   9.331
23590SOL     OW72666   6.690   3.247   7.062
23590SOL    HW172667   6.676   3.174   7.122
23590SOL    HW272668   6.694   3.206   6.975
23591SOL     OW72669  12.637   8.457   4.897
23591SOL    HW172670  12.623   8.500   4.981
23591SOL    HW272671  12.713   8.500   4.860
23592SOL     OW72672  10.177   0.194   8.631
23592SOL    HW172673  10.189   0.177   8.724
23592SOL    HW272674  10.127   0.275   8.627
23593SOL     OW72675   3.962  11.307   2.410
23593SOL    HW172676   3.921  11.324   2.325
23593SOL    HW272677   3.895  11.328   2.475
23594SOL     OW72678   5.924   9.920   1.292
23594SOL    HW172679   5.995   9.949   1.349
23594SOL    HW272680   5.968   9.873   1.221
23595SOL     OW72681  13.321   7.737   2.090
23595SOL    HW172682  13.238   7.706   2.055
23595SOL    HW272683  13.369   7.769   2.013
23596SOL     OW72684   6.496  10.577   1.603
23596SOL    HW172685   6.505  10.657   1.655
23596SOL    HW272686   6.471  10.510   1.666
23597SOL     OW72687   6.922  10.635   6.103
23597SOL    HW172688   6.940  10.602   6.014
23597SOL    HW272689   6.827  10.634   6.109
23598SOL     OW72690  12.051   2.436   7.539
23598SOL    HW172691  11.972   2.385   7.557
23598SOL    HW272692  12.109   2.375   7.495
23599SOL     OW72693   5.705   9.586  11.669
23599SOL    HW172694   5.757   9.662  11.698
23599SOL    HW272695   5.756   9.547  11.599
23600SOL     OW72696   6.485   4.409   8.296
23600SOL    HW172697   6.514   4.323   8.327
23600SOL    HW272698   6.560   4.466   8.309
23601SOL     OW72699  13.433   0.798   1.631
23601SOL    HW172700  13.489   0.722   1.623
23601SOL    HW272701  13.349   0.763   1.660
23602SOL     OW72702  10.310   8.166  10.645
23602SOL    HW172703  10.323   8.237  10.708
23602SOL    HW272704  10.341   8.087  10.691
23603SOL     OW72705   4.333  13.626   9.924
23603SOL    HW172706   4.276  13.638   9.848
23603SOL    HW272707   4.277  13.583   9.989
23604SOL     OW72708  11.455   6.962   3.961
23604SOL    HW172709  11.402   6.912   3.899
23604SOL    HW272710  11.448   7.053   3.932
23605SOL     OW72711  10.676   4.590  14.026
23605SOL    HW172712  10.591   4.582  14.069
23605SOL    HW272713  10.655   4.618  13.937
23606SOL     OW72714  14.386  10.820   2.248
23606SOL    HW172715  14.341  10.893   2.205
23606SOL    HW272716  14.420  10.857   2.329
23607SOL     OW72717   3.356  10.917  11.764
23607SOL    HW172718   3.362  10.853  11.834
23607SOL    HW272719   3.440  10.911  11.719
23608SOL     OW72720  13.384  12.186   4.162
23608SOL    HW172721  13.465  12.226   4.130
23608SOL    HW272722  13.331  12.260   4.192
23609SOL     OW72723  12.175  10.383  14.133
23609SOL    HW172724  12.174  10.468  14.176
23609SOL    HW272725  12.265  10.353  14.140
23610SOL     OW72726  11.765   7.126   1.822
23610SOL    HW172727  11.746   7.032   1.820
23610SOL    HW272728  11.696   7.165   1.768
23611SOL     OW72729   0.335  12.605   4.045
23611SOL    HW172730   0.371  12.593   3.957
23611SOL    HW272731   0.292  12.690   4.042
23612SOL     OW72732   4.905   2.996   5.643
23612SOL    HW172733   4.862   3.080   5.629
23612SOL    HW272734   4.851   2.952   5.709
23613SOL     OW72735  12.009   4.245   8.032
23613SOL    HW172736  11.959   4.320   8.063
23613SOL    HW272737  12.071   4.281   7.969
23614SOL     OW72738   6.424  12.840   9.688
23614SOL    HW172739   6.356  12.892   9.643
23614SOL    HW272740   6.404  12.750   9.664
23615SOL     OW72741   3.500   2.940   7.179
23615SOL    HW172742   3.408   2.936   7.154
23615SOL    HW272743   3.518   3.034   7.189
23616SOL     OW72744   3.191   9.293  13.348
23616SOL    HW172745   3.257   9.361  13.363
23616SOL    HW272746   3.146   9.284  13.432
23617SOL     OW72747   9.439   8.119   8.908
23617SOL    HW172748   9.475   8.066   8.979
23617SOL    HW272749   9.459   8.069   8.829
23618SOL     OW72750   6.673   9.851   6.553
23618SOL    HW172751   6.756   9.825   6.593
23618SOL    HW272752   6.627   9.899   6.622
23619SOL     OW72753   1.271   2.970   8.103
23619SOL    HW172754   1.260   3.011   8.188
23619SOL    HW272755   1.350   3.009   8.067
23620SOL     OW72756  14.672   8.160   8.614
23620SOL    HW172757  14.662   8.250   8.643
23620SOL    HW272758  14.597   8.114   8.651
23621SOL     OW72759   3.476   6.418   5.209
23621SOL    HW172760   3.545   6.483   5.199
23621SOL    HW272761   3.492   6.378   5.295
23622SOL     OW72762   0.060   1.398   9.960
23622SOL    HW172763   0.149   1.416   9.990
23622SOL    HW272764   0.060   1.426   9.868
23623SOL     OW72765  14.089   4.440   0.194
23623SOL    HW172766  14.088   4.411   0.103
23623SOL    HW272767  14.021   4.507   0.198
23624SOL     OW72768  11.564   8.312   7.916
23624SOL    HW172769  11.655   8.287   7.903
23624SOL    HW272770  11.532   8.254   7.986
23625SOL     OW72771  13.993   5.636  13.977
23625SOL    HW172772  14.057   5.603  13.914
23625SOL    HW272773  13.959   5.716  13.937
23626SOL     OW72774   5.562   7.640   8.199
23626SOL    HW172775   5.640   7.652   8.144
23626SOL    HW272776   5.546   7.546   8.197
23627SOL     OW72777   4.094   3.232  12.132
23627SOL    HW172778   4.168   3.238  12.071
23627SOL    HW272779   4.097   3.314  12.181
23628SOL     OW72780  11.538   8.616   1.123
23628SOL    HW172781  11.624   8.574   1.120
23628SOL    HW272782  11.553   8.698   1.169
23629SOL     OW72783   3.879   2.110   5.429
23629SOL    HW172784   3.886   2.064   5.512
23629SOL    HW272785   3.969   2.136   5.409
23630SOL     OW72786   7.249  14.175   3.043
23630SOL    HW172787   7.167  14.169   3.092
23630SOL    HW272788   7.255  14.268   3.018
23631SOL     OW72789  14.637   9.445  14.675
23631SOL    HW172790  14.689   9.424  14.753
23631SOL    HW272791  14.668   9.384  14.609
23632SOL     OW72792  12.965   6.459   3.958
23632SOL    HW172793  12.992   6.548   3.984
23632SOL    HW272794  12.955   6.412   4.041
23633SOL     OW72795   7.514   6.549  10.732
23633SOL    HW172796   7.499   6.589  10.818
23633SOL    HW272797   7.477   6.611  10.670
23634SOL     OW72798  12.894   1.665   9.253
23634SOL    HW172799  12.847   1.710   9.323
23634SOL    HW272800  12.868   1.574   9.261
23635SOL     OW72801  11.991   2.301   5.571
23635SOL    HW172802  12.046   2.368   5.532
23635SOL    HW272803  11.991   2.230   5.507
23636SOL     OW72804  10.559   4.091   8.670
23636SOL    HW172805  10.579   4.138   8.589
23636SOL    HW272806  10.535   4.003   8.642
23637SOL     OW72807  11.202   1.925  10.615
23637SOL    HW172808  11.223   1.863  10.545
23637SOL    HW272809  11.208   2.011  10.573
23638SOL     OW72810   9.456  10.834   2.556
23638SOL    HW172811   9.542  10.848   2.516
23638SOL    HW272812   9.459  10.882   2.638
23639SOL     OW72813   4.219  10.735   9.000
23639SOL    HW172814   4.162  10.682   8.945
23639SOL    HW272815   4.204  10.703   9.089
23640SOL     OW72816  13.023   3.470   4.983
23640SOL    HW172817  13.093   3.411   5.010
23640SOL    HW272818  13.054   3.557   5.007
23641SOL     OW72819   5.092   0.961   3.726
23641SOL    HW172820   5.181   0.957   3.762
23641SOL    HW272821   5.049   0.884   3.762
23642SOL     OW72822   9.550  13.164   0.494
23642SOL    HW172823   9.533  13.257   0.505
23642SOL    HW272824   9.608  13.159   0.418
23643SOL     OW72825  10.874  13.893  10.551
23643SOL    HW172826  10.803  13.957  10.557
23643SOL    HW272827  10.859  13.834  10.625
23644SOL     OW72828   4.500  14.153   7.061
23644SOL    HW172829   4.449  14.185   7.135
23644SOL    HW272830   4.540  14.232   7.023
23645SOL     OW72831  14.014  11.045   7.922
23645SOL    HW172832  14.048  11.053   7.833
23645SOL    HW272833  13.951  11.118   7.929
23646SOL     OW72834   4.715   6.529   2.032
23646SOL    HW172835   4.708   6.531   1.937
23646SOL    HW272836   4.802   6.563   2.051
23647SOL     OW72837   4.884   8.371   5.480
23647SOL    HW172838   4.941   8.396   5.553
23647SOL    HW272839   4.861   8.280   5.497
23648SOL     OW72840  13.938  13.450   9.701
23648SOL    HW172841  14.003  13.401   9.751
23648SOL    HW272842  13.896  13.384   9.645
23649SOL     OW72843  10.557  11.432   5.563
23649SOL    HW172844  10.620  11.412   5.633
23649SOL    HW272845  10.611  11.446   5.486
23650SOL     OW72846   6.911   1.429   3.518
23650SOL    HW172847   6.895   1.506   3.574
23650SOL    HW272848   6.989   1.389   3.556
23651SOL     OW72849   2.255   4.896   6.826
23651SOL    HW172850   2.227   4.853   6.907
23651SOL    HW272851   2.198   4.858   6.759
23652SOL     OW72852   6.164   9.915  10.122
23652SOL    HW172853   6.113   9.916  10.041
23652SOL    HW272854   6.100   9.926  10.192
23653SOL     OW72855  13.212  14.474   1.022
23653SOL    HW172856  13.143  14.431   0.972
23653SOL    HW272857  13.187  14.460   1.114
23654SOL     OW72858  13.391   7.709   7.547
23654SOL    HW172859  13.452   7.749   7.485
23654SOL    HW272860  13.334   7.654   7.494
23655SOL     OW72861   2.978   8.328   0.535
23655SOL    HW172862   2.985   8.371   0.621
23655SOL    HW272863   3.016   8.242   0.548
23656SOL     OW72864   6.847   0.748   8.769
23656SOL    HW172865   6.788   0.761   8.843
23656SOL    HW272866   6.792   0.713   8.700
23657SOL     OW72867   4.908   7.209  13.983
23657SOL    HW172868   4.875   7.129  13.943
23657SOL    HW272869   4.866   7.211  14.070
23658SOL     OW72870   3.249   0.378   3.809
23658SOL    HW172871   3.287   0.345   3.727
23658SOL    HW272872   3.157   0.352   3.806
23659SOL     OW72873   7.179  10.358   7.545
23659SOL    HW172874   7.091  10.338   7.513
23659SOL    HW272875   7.222  10.274   7.553
23660SOL     OW72876   9.141   2.147   2.888
23660SOL    HW172877   9.210   2.171   2.827
23660SOL    HW272878   9.060   2.173   2.844
23661SOL     OW72879   8.768  11.303  12.358
23661SOL    HW172880   8.704  11.279  12.425
23661SOL    HW272881   8.758  11.235  12.291
23662SOL     OW72882   1.585  14.232   5.498
23662SOL    HW172883   1.515  14.169   5.513
23662SOL    HW272884   1.629  14.201   5.419
23663SOL     OW72885   9.205  10.566   6.593
23663SOL    HW172886   9.147  10.642   6.589
23663SOL    HW272887   9.207  10.542   6.686
23664SOL     OW72888  12.946   6.623  10.014
23664SOL    HW172889  12.903   6.630  10.099
23664SOL    HW272890  12.942   6.712   9.978
23665SOL     OW72891   2.157   5.325  12.462
23665SOL    HW172892   2.245   5.301  12.433
23665SOL    HW272893   2.148   5.283  12.548
23666SOL     OW72894   4.476   0.288   1.907
23666SOL    HW172895   4.569   0.270   1.921
23666SOL    HW272896   4.464   0.379   1.935
23667SOL     OW72897   3.262  10.779   2.873
23667SOL    HW172898   3.327  10.845   2.897
23667SOL    HW272899   3.183  10.829   2.856
23668SOL     OW72900   3.244   2.045  11.267
23668SOL    HW172901   3.180   1.982  11.235
23668SOL    HW272902   3.262   2.102  11.192
23669SOL     OW72903  13.937   2.083   6.423
23669SOL    HW172904  13.926   2.072   6.328
23669SOL    HW272905  13.871   2.147   6.448
23670SOL     OW72906   1.397   0.287  14.585
23670SOL    HW172907   1.352   0.210  14.550
23670SOL    HW272908   1.328   0.353  14.593
23671SOL     OW72909   2.853  14.304   2.968
23671SOL    HW172910   2.775  14.315   3.022
23671SOL    HW272911   2.852  14.380   2.909
23672SOL     OW72912   0.852   8.953  11.989
23672SOL    HW172913   0.823   8.881  12.045
23672SOL    HW272914   0.772   8.981  11.942
23673SOL     OW72915   8.036   9.825   7.155
23673SOL    HW172916   8.038   9.827   7.250
23673SOL    HW272917   8.095   9.895   7.128
23674SOL     OW72918   5.612   0.975  13.884
23674SOL    HW172919   5.684   1.037  13.867
23674SOL    HW272920   5.568   0.967  13.799
23675SOL     OW72921  13.013   4.830   3.034
23675SOL    HW172922  12.982   4.740   3.049
23675SOL    HW272923  12.932   4.882   3.032
23676SOL     OW72924   7.356   9.730   3.340
23676SOL    HW172925   7.270   9.740   3.300
23676SOL    HW272926   7.389   9.819   3.349
23677SOL     OW72927   2.577  14.851   8.109
23677SOL    HW172928   2.663   0.020   8.118
23677SOL    HW272929   2.557  14.858   8.016
23678SOL     OW72930   6.553  12.796   5.015
23678SOL    HW172931   6.525  12.861   4.951
23678SOL    HW272932   6.622  12.747   4.971
23679SOL     OW72933  13.501   7.822  10.077
23679SOL    HW172934  13.491   7.794   9.986
23679SOL    HW272935  13.595   7.830  10.090
23680SOL     OW72936   3.529  14.469   8.820
23680SOL    HW172937   3.592  14.409   8.861
23680SOL    HW272938   3.475  14.501   8.893
23681SOL     OW72939   9.268   4.960   0.484
23681SOL    HW172940   9.328   4.887   0.499
23681SOL    HW272941   9.313   5.014   0.419
23682SOL     OW72942  10.333   7.213   2.853
23682SOL    HW172943  10.313   7.156   2.927
23682SOL    HW272944  10.292   7.170   2.778
23683SOL     OW72945   6.087  13.675  11.143
23683SOL    HW172946   6.019  13.734  11.174
23683SOL    HW272947   6.090  13.689  11.048
23684SOL     OW72948   2.971   2.421   8.573
23684SOL    HW172949   3.001   2.511   8.556
23684SOL    HW272950   2.997   2.372   8.495
23685SOL     OW72951   2.258   7.802   9.594
23685SOL    HW172952   2.236   7.881   9.643
23685SOL    HW272953   2.176   7.753   9.588
23686SOL     OW72954  13.236   7.402   6.703
23686SOL    HW172955  13.285   7.402   6.785
23686SOL    HW272956  13.214   7.494   6.687
23687SOL     OW72957   0.520  12.208   8.969
23687SOL    HW172958   0.572  12.130   8.987
23687SOL    HW272959   0.457  12.212   9.041
23688SOL     OW72960   8.983  10.970   2.089
23688SOL    HW172961   9.069  10.965   2.047
23688SOL    HW272962   8.981  11.056   2.130
23689SOL     OW72963   1.431   8.730  10.056
23689SOL    HW172964   1.522   8.730  10.026
23689SOL    HW272965   1.411   8.638  10.072
23690SOL     OW72966  14.787   9.813  13.864
23690SOL    HW172967  14.809   9.747  13.931
23690SOL    HW272968  14.757   9.761  13.789
23691SOL     OW72969  10.512  11.601  13.903
23691SOL    HW172970  10.551  11.641  13.981
23691SOL    HW272971  10.470  11.673  13.857
23692SOL     OW72972  13.204   6.824   4.676
23692SOL    HW172973  13.128   6.836   4.620
23692SOL    HW272974  13.168   6.818   4.765
23693SOL     OW72975   3.803  10.042  11.928
23693SOL    HW172976   3.808  10.077  12.017
23693SOL    HW272977   3.787  10.118  11.874
23694SOL     OW72978   0.021  13.353  12.715
23694SOL    HW172979  14.799  13.353  12.694
23694SOL    HW272980   0.034  13.279  12.773
23695SOL     OW72981   9.195   4.541   6.047
23695SOL    HW172982   9.116   4.494   6.021
23695SOL    HW272983   9.207   4.608   5.981
23696SOL     OW72984   9.285   0.984   5.820
23696SOL    HW172985   9.266   0.934   5.741
23696SOL    HW272986   9.340   0.926   5.872
23697SOL     OW72987   1.936   7.610  13.838
23697SOL    HW172988   1.912   7.698  13.810
23697SOL    HW272989   1.878   7.591  13.911
23698SOL     OW72990  14.667   7.709   5.765
23698SOL    HW172991  14.645   7.680   5.677
23698SOL    HW272992  14.636   7.639   5.823
23699SOL     OW72993   2.919   2.956   0.240
23699SOL    HW172994   2.950   2.917   0.321
23699SOL    HW272995   2.900   3.047   0.263
23700SOL     OW72996   8.450   7.495  12.081
23700SOL    HW172997   8.462   7.405  12.054
23700SOL    HW272998   8.515   7.544  12.031
23701SOL     OW72999   7.548  13.041  11.885
23701SOL    HW173000   7.597  12.959  11.877
23701SOL    HW273001   7.528  13.066  11.795
23702SOL     OW73002   0.012   1.653   9.769
23702SOL    HW173003   0.033   1.685   9.856
23702SOL    HW273004  14.820   1.716   9.735
23703SOL     OW73005  13.270   9.926  14.856
23703SOL    HW173006  13.307   9.868  14.789
23703SOL    HW273007  13.324   9.910   0.062
23704SOL     OW73008  10.119   4.320  11.516
23704SOL    HW173009  10.190   4.359  11.465
23704SOL    HW273010  10.039   4.350  11.474
23705SOL     OW73011  13.466  10.821   6.437
23705SOL    HW173012  13.551  10.860   6.455
23705SOL    HW273013  13.486  10.731   6.412
23706SOL     OW73014  10.776   3.843   6.088
23706SOL    HW173015  10.827   3.790   6.150
23706SOL    HW273016  10.701   3.874   6.138
23707SOL     OW73017  13.807   9.890   6.538
23707SOL    HW173018  13.734   9.854   6.588
23707SOL    HW273019  13.768   9.960   6.486
23708SOL     OW73020  12.931  10.632   5.172
23708SOL    HW173021  12.881  10.605   5.095
23708SOL    HW273022  12.956  10.722   5.154
23709SOL     OW73023   0.575   1.731  10.578
23709SOL    HW173024   0.595   1.684  10.498
23709SOL    HW273025   0.597   1.822  10.559
23710SOL     OW73026   7.993   0.836   8.549
23710SOL    HW173027   7.904   0.846   8.515
23710SOL    HW273028   8.026   0.925   8.559
23711SOL     OW73029   1.111   8.405   4.388
23711SOL    HW173030   1.060   8.324   4.392
23711SOL    HW273031   1.166   8.403   4.466
23712SOL     OW73032  10.147   6.407   0.615
23712SOL    HW173033  10.237   6.375   0.609
23712SOL    HW273034  10.156   6.498   0.646
23713SOL     OW73035  11.321  13.683  13.622
23713SOL    HW173036  11.288  13.678  13.711
23713SOL    HW273037  11.255  13.640  13.568
23714SOL     OW73038   9.137   0.760   9.294
23714SOL    HW173039   9.090   0.785   9.214
23714SOL    HW273040   9.069   0.753   9.361
23715SOL     OW73041  12.118   9.449   7.747
23715SOL    HW173042  12.117   9.450   7.651
23715SOL    HW273043  12.180   9.518   7.771
23716SOL     OW73044  11.168  12.475  14.096
23716SOL    HW173045  11.087  12.439  14.061
23716SOL    HW273046  11.229  12.471  14.022
23717SOL     OW73047  13.742   3.660   8.404
23717SOL    HW173048  13.728   3.744   8.447
23717SOL    HW273049  13.669   3.653   8.342
23718SOL     OW73050   8.732   4.243   2.195
23718SOL    HW173051   8.815   4.276   2.229
23718SOL    HW273052   8.747   4.149   2.185
23719SOL     OW73053  12.921   6.776   7.357
23719SOL    HW173054  12.858   6.728   7.303
23719SOL    HW273055  12.903   6.747   7.447
23720SOL     OW73056   9.774  14.135   3.576
23720SOL    HW173057   9.707  14.067   3.576
23720SOL    HW273058   9.760  14.182   3.658
23721SOL     OW73059   3.391   2.088   7.935
23721SOL    HW173060   3.422   2.036   7.861
23721SOL    HW273061   3.384   2.177   7.900
23722SOL     OW73062   0.749   5.750   9.984
23722SOL    HW173063   0.765   5.731  10.077
23722SOL    HW273064   0.655   5.767   9.979
23723SOL     OW73065   2.934  13.939  11.637
23723SOL    HW173066   3.015  13.889  11.644
23723SOL    HW273067   2.955  14.024  11.678
23724SOL     OW73068   2.439  11.594   2.769
23724SOL    HW173069   2.351  11.587   2.806
23724SOL    HW273070   2.482  11.662   2.821
23725SOL     OW73071   3.575   8.757  10.487
23725SOL    HW173072   3.629   8.725  10.559
23725SOL    HW273073   3.531   8.679  10.453
23726SOL     OW73074   1.340  11.286   6.053
23726SOL    HW173075   1.265  11.228   6.042
23726SOL    HW273076   1.319  11.363   6.000
23727SOL     OW73077  11.146   6.547   8.991
23727SOL    HW173078  11.060   6.566   8.954
23727SOL    HW273079  11.135   6.463   9.035
23728SOL     OW73080  14.179  14.095   8.576
23728SOL    HW173081  14.226  14.156   8.519
23728SOL    HW273082  14.143  14.151   8.646
23729SOL     OW73083  11.542   2.713  10.285
23729SOL    HW173084  11.579   2.745  10.203
23729SOL    HW273085  11.609   2.732  10.350
23730SOL     OW73086   9.141  10.895   2.688
23730SOL    HW173087   9.070  10.924   2.745
23730SOL    HW273088   9.194  10.837   2.743
23731SOL     OW73089   5.089   0.116   9.671
23731SOL    HW173090   5.078   0.051   9.741
23731SOL    HW273091   5.060   0.199   9.711
23732SOL     OW73092   0.259  11.783  10.804
23732SOL    HW173093   0.177  11.788  10.755
23732SOL    HW273094   0.312  11.720  10.756
23733SOL     OW73095   5.941   7.117   3.934
23733SOL    HW173096   6.003   7.125   3.861
23733SOL    HW273097   5.941   7.024   3.954
23734SOL     OW73098   1.166  11.547   3.007
23734SOL    HW173099   1.119  11.576   3.086
23734SOL    HW273100   1.096  11.527   2.945
23735SOL     OW73101   7.668   1.459  14.058
23735SOL    HW173102   7.682   1.383  14.114
23735SOL    HW273103   7.665   1.424  13.969
23736SOL     OW73104   2.345   3.480   3.322
23736SOL    HW173105   2.432   3.455   3.353
23736SOL    HW273106   2.315   3.545   3.386
23737SOL     OW73107  13.590   1.607   9.029
23737SOL    HW173108  13.640   1.685   9.004
23737SOL    HW273109  13.602   1.600   9.123
23738SOL     OW73110   1.612   0.363   5.996
23738SOL    HW173111   1.616   0.428   6.066
23738SOL    HW273112   1.655   0.286   6.033
23739SOL     OW73113  11.350   8.865   8.099
23739SOL    HW173114  11.368   8.801   8.168
23739SOL    HW273115  11.260   8.894   8.116
23740SOL     OW73116  13.330   7.838  14.813
23740SOL    HW173117  13.412   7.802  14.781
23740SOL    HW273118  13.331   7.930  14.786
23741SOL     OW73119  11.287   1.386   4.900
23741SOL    HW173120  11.347   1.425   4.837
23741SOL    HW273121  11.227   1.334   4.848
23742SOL     OW73122   3.757  14.495   3.556
23742SOL    HW173123   3.702  14.486   3.477
23742SOL    HW273124   3.844  14.468   3.527
23743SOL     OW73125  14.293   7.331  12.723
23743SOL    HW173126  14.244   7.402  12.681
23743SOL    HW273127  14.229   7.260  12.732
23744SOL     OW73128  10.192   3.506  12.799
23744SOL    HW173129  10.178   3.561  12.876
23744SOL    HW273130  10.105   3.478  12.773
23745SOL     OW73131   6.341   0.274   2.309
23745SOL    HW173132   6.325   0.367   2.292
23745SOL    HW273133   6.254   0.234   2.302
23746SOL     OW73134   4.769   0.846   8.558
23746SOL    HW173135   4.761   0.751   8.546
23746SOL    HW273136   4.685   0.872   8.597
23747SOL     OW73137   3.743   8.133  13.904
23747SOL    HW173138   3.750   8.063  13.969
23747SOL    HW273139   3.800   8.105  13.833
23748SOL     OW73140  10.411  12.812   2.087
23748SOL    HW173141  10.419  12.803   1.992
23748SOL    HW273142  10.386  12.725   2.117
23749SOL     OW73143   5.859  11.452   9.629
23749SOL    HW173144   5.859  11.525   9.566
23749SOL    HW273145   5.823  11.378   9.581
23750SOL     OW73146  13.446  10.265   8.531
23750SOL    HW173147  13.465  10.260   8.437
23750SOL    HW273148  13.374  10.329   8.537
23751SOL     OW73149   7.072   3.919  14.049
23751SOL    HW173150   7.126   3.921  13.970
23751SOL    HW273151   7.033   3.832  14.049
23752SOL     OW73152   4.139  11.396  11.561
23752SOL    HW173153   4.233  11.383  11.546
23752SOL    HW273154   4.099  11.379  11.476
23753SOL     OW73155   1.282   9.117  11.105
23753SOL    HW173156   1.211   9.174  11.135
23753SOL    HW273157   1.336   9.173  11.050
23754SOL     OW73158   0.314   9.563   4.083
23754SOL    HW173159   0.314   9.598   4.172
23754SOL    HW273160   0.402   9.527   4.071
23755SOL     OW73161   2.059   9.309   4.496
23755SOL    HW173162   2.053   9.244   4.427
23755SOL    HW273163   2.151   9.337   4.496
23756SOL     OW73164   4.761   3.489   0.142
23756SOL    HW173165   4.707   3.470   0.219
23756SOL    HW273166   4.750   3.413   0.086
23757SOL     OW73167   9.981   1.219  10.835
23757SOL    HW173168  10.025   1.279  10.896
23757SOL    HW273169  10.052   1.165  10.800
23758SOL     OW73170  10.862  13.074   7.964
23758SOL    HW173171  10.822  13.151   8.005
23758SOL    HW273172  10.921  13.111   7.897
23759SOL     OW73173  14.631  11.947   0.896
23759SOL    HW173174  14.697  12.004   0.936
23759SOL    HW273175  14.672  11.861   0.893
23760SOL     OW73176  12.418   5.250   6.839
23760SOL    HW173177  12.453   5.337   6.820
23760SOL    HW273178  12.324   5.257   6.824
23761SOL     OW73179  11.258   3.171  12.962
23761SOL    HW173180  11.211   3.106  12.911
23761SOL    HW273181  11.214   3.254  12.941
23762SOL     OW73182  12.410   0.201   7.314
23762SOL    HW173183  12.433   0.269   7.377
23762SOL    HW273184  12.494   0.170   7.280
23763SOL     OW73185  14.165   9.538   3.819
23763SOL    HW173186  14.175   9.450   3.781
23763SOL    HW273187  14.241   9.548   3.877
23764SOL     OW73188  11.238   6.013   4.425
23764SOL    HW173189  11.256   6.016   4.519
23764SOL    HW273190  11.314   5.968   4.388
23765SOL     OW73191   8.002   5.593   8.538
23765SOL    HW173192   8.054   5.645   8.599
23765SOL    HW273193   7.990   5.509   8.582
23766SOL     OW73194   9.039   5.906   8.887
23766SOL    HW173195   9.077   5.945   8.965
23766SOL    HW273196   8.966   5.854   8.920
23767SOL     OW73197   1.200  14.381   3.401
23767SOL    HW173198   1.136  14.347   3.464
23767SOL    HW273199   1.274  14.321   3.408
23768SOL     OW73200  13.830  14.542   2.718
23768SOL    HW173201  13.843  14.597   2.795
23768SOL    HW273202  13.858  14.597   2.644
23769SOL     OW73203  13.069  14.015   5.026
23769SOL    HW173204  13.088  14.044   5.115
23769SOL    HW273205  12.989  14.061   5.002
23770SOL     OW73206  11.342   5.379   5.896
23770SOL    HW173207  11.337   5.430   5.815
23770SOL    HW273208  11.346   5.288   5.866
23771SOL     OW73209   0.883   3.625   8.044
23771SOL    HW173210   0.878   3.531   8.061
23771SOL    HW273211   0.875   3.633   7.949
23772SOL     OW73212  10.054   3.407  12.523
23772SOL    HW173213  10.025   3.381  12.611
23772SOL    HW273214  10.150   3.397  12.526
23773SOL     OW73215  13.129   6.526   9.216
23773SOL    HW173216  13.034   6.515   9.214
23773SOL    HW273217  13.148   6.588   9.146
23774SOL     OW73218   9.008   1.462   5.695
23774SOL    HW173219   9.044   1.374   5.693
23774SOL    HW273220   8.945   1.464   5.623
23775SOL     OW73221   3.216   7.400  12.914
23775SOL    HW173222   3.266   7.450  12.978
23775SOL    HW273223   3.125   7.408  12.942
23776SOL     OW73224   0.167   9.052   1.483
23776SOL    HW173225   0.178   9.143   1.507
23776SOL    HW273226   0.173   9.004   1.565
23777SOL     OW73227   0.305   9.565   3.688
23777SOL    HW173228   0.255   9.483   3.694
23777SOL    HW273229   0.282   9.600   3.602
23778SOL     OW73230   4.924  11.106   1.075
23778SOL    HW173231   4.923  11.196   1.107
23778SOL    HW273232   4.832  11.083   1.064
23779SOL     OW73233   2.563  10.236   2.473
23779SOL    HW173234   2.515  10.201   2.398
23779SOL    HW273235   2.535  10.327   2.480
23780SOL     OW73236  14.236   7.069   6.067
23780SOL    HW173237  14.259   7.040   6.155
23780SOL    HW273238  14.203   6.991   6.023
23781SOL     OW73239  12.730  14.683  10.578
23781SOL    HW173240  12.821  14.676  10.607
23781SOL    HW273241  12.704  14.592  10.560
23782SOL     OW73242   3.413  14.502   8.065
23782SOL    HW173243   3.331  14.545   8.038
23782SOL    HW273244   3.418  14.518   8.159
23783SOL     OW73245  10.556  11.203  14.008
23783SOL    HW173246  10.512  11.263  13.948
23783SOL    HW273247  10.627  11.254  14.046
23784SOL     OW73248  11.035  14.458   5.374
23784SOL    HW173249  11.049  14.401   5.298
23784SOL    HW273250  11.069  14.543   5.347
23785SOL     OW73251   1.045   7.729   2.236
23785SOL    HW173252   1.001   7.654   2.196
23785SOL    HW273253   0.994   7.748   2.315
23786SOL     OW73254   8.916   7.927   0.187
23786SOL    HW173255   8.846   7.982   0.153
23786SOL    HW273256   8.876   7.881   0.261
23787SOL     OW73257   8.700   9.442   9.872
23787SOL    HW173258   8.694   9.527   9.915
23787SOL    HW273259   8.618   9.435   9.824
23788SOL     OW73260  13.108   2.032   5.848
23788SOL    HW173261  13.105   2.045   5.753
23788SOL    HW273262  13.137   1.941   5.858
23789SOL     OW73263   6.518   3.711   0.311
23789SOL    HW173264   6.583   3.647   0.339
23789SOL    HW273265   6.530   3.717   0.216
23790SOL     OW73266   3.539   3.000   0.147
23790SOL    HW173267   3.510   3.070   0.088
23790SOL    HW273268   3.535   2.921   0.093
23791SOL     OW73269   8.794   7.639   0.693
23791SOL    HW173270   8.736   7.582   0.744
23791SOL    HW273271   8.760   7.635   0.604
23792SOL     OW73272   7.276   6.160   7.973
23792SOL    HW173273   7.233   6.208   8.043
23792SOL    HW273274   7.243   6.200   7.892
23793SOL     OW73275  14.010   4.379   9.383
23793SOL    HW173276  13.984   4.316   9.450
23793SOL    HW273277  13.962   4.353   9.305
23794SOL     OW73278   9.375  13.137  13.208
23794SOL    HW173279   9.392  13.153  13.300
23794SOL    HW273280   9.407  13.048  13.193
23795SOL     OW73281   1.341   1.605  11.357
23795SOL    HW173282   1.355   1.536  11.292
23795SOL    HW273283   1.429   1.631  11.384
23796SOL     OW73284   7.169   6.768   1.366
23796SOL    HW173285   7.171   6.847   1.312
23796SOL    HW273286   7.230   6.786   1.437
23797SOL     OW73287   6.157   8.148  12.003
23797SOL    HW173288   6.093   8.140  11.933
23797SOL    HW273289   6.241   8.161  11.958
23798SOL     OW73290   0.160  13.542  13.268
23798SOL    HW173291   0.140  13.591  13.347
23798SOL    HW273292   0.087  13.481  13.258
23799SOL     OW73293   1.045  10.243  12.514
23799SOL    HW173294   1.094  10.232  12.596
23799SOL    HW273295   0.966  10.191  12.527
23800SOL     OW73296  12.944  11.883  11.309
23800SOL    HW173297  12.977  11.836  11.232
23800SOL    HW273298  13.012  11.870  11.375
23801SOL     OW73299   1.191   9.234   5.721
23801SOL    HW173300   1.161   9.308   5.774
23801SOL    HW273301   1.176   9.158   5.776
23802SOL     OW73302   6.142  10.653  12.044
23802SOL    HW173303   6.135  10.591  11.972
23802SOL    HW273304   6.137  10.739  12.003
23803SOL     OW73305  11.213   1.768   5.761
23803SOL    HW173306  11.286   1.826   5.783
23803SOL    HW273307  11.154   1.774   5.836
23804SOL     OW73308   2.687   3.060   1.518
23804SOL    HW173309   2.656   3.065   1.609
23804SOL    HW273310   2.714   2.969   1.507
23805SOL     OW73311   3.797   3.617   2.825
23805SOL    HW173312   3.842   3.687   2.778
23805SOL    HW273313   3.865   3.552   2.842
23806SOL     OW73314   2.871  13.081   9.600
23806SOL    HW173315   2.951  13.030   9.582
23806SOL    HW273316   2.806  13.047   9.539
23807SOL     OW73317  12.472   5.108   3.587
23807SOL    HW173318  12.515   5.027   3.559
23807SOL    HW273319  12.459   5.097   3.682
23808SOL     OW73320   4.477  10.807   7.230
23808SOL    HW173321   4.448  10.765   7.311
23808SOL    HW273322   4.462  10.900   7.244
23809SOL     OW73323   7.534   9.406  14.651
23809SOL    HW173324   7.532   9.415  14.556
23809SOL    HW273325   7.568   9.318  14.667
23810SOL     OW73326   8.899   0.269   1.716
23810SOL    HW173327   8.966   0.214   1.756
23810SOL    HW273328   8.830   0.208   1.689
23811SOL     OW73329   5.803   6.435   9.616
23811SOL    HW173330   5.872   6.474   9.564
23811SOL    HW273331   5.813   6.341   9.605
23812SOL     OW73332  12.869   5.650   1.903
23812SOL    HW173333  12.793   5.670   1.848
23812SOL    HW273334  12.861   5.557   1.922
23813SOL     OW73335   5.480  13.632   1.538
23813SOL    HW173336   5.490  13.602   1.447
23813SOL    HW273337   5.387  13.654   1.546
23814SOL     OW73338  14.121   0.242   3.442
23814SOL    HW173339  14.052   0.178   3.422
23814SOL    HW273340  14.167   0.206   3.518
23815SOL     OW73341   0.824   7.542   5.275
23815SOL    HW173342   0.803   7.554   5.368
23815SOL    HW273343   0.827   7.447   5.263
23816SOL     OW73344   3.938   7.076   0.835
23816SOL    HW173345   3.912   7.000   0.783
23816SOL    HW273346   3.858   7.126   0.847
23817SOL     OW73347   4.074   3.478  10.305
23817SOL    HW173348   4.022   3.556  10.286
23817SOL    HW273349   4.098   3.488  10.397
23818SOL     OW73350   4.911   9.632   8.322
23818SOL    HW173351   4.996   9.623   8.280
23818SOL    HW273352   4.853   9.662   8.252
23819SOL     OW73353   5.647  10.460  14.441
23819SOL    HW173354   5.584  10.389  14.444
23819SOL    HW273355   5.596  10.536  14.412
23820SOL     OW73356  11.842   6.567   5.568
23820SOL    HW173357  11.785   6.632   5.610
23820SOL    HW273358  11.811   6.483   5.601
23821SOL     OW73359   6.245   0.764  14.616
23821SOL    HW173360   6.161   0.800  14.644
23821SOL    HW273361   6.248   0.676  14.653
23822SOL     OW73362  10.581  12.304   4.726
23822SOL    HW173363  10.595  12.368   4.657
23822SOL    HW273364  10.594  12.219   4.683
23823SOL     OW73365  14.370  12.764  12.856
23823SOL    HW173366  14.321  12.713  12.792
23823SOL    HW273367  14.426  12.700  12.900
23824SOL     OW73368   0.624  13.309   2.830
23824SOL    HW173369   0.546  13.364   2.829
23824SOL    HW273370   0.679  13.346   2.899
23825SOL     OW73371   0.361   3.559   9.066
23825SOL    HW173372   0.383   3.534   9.156
23825SOL    HW273373   0.384   3.483   9.013
23826SOL     OW73374   1.556   3.726   3.535
23826SOL    HW173375   1.602   3.806   3.509
23826SOL    HW273376   1.552   3.731   3.630
23827SOL     OW73377   4.335  11.616   1.695
23827SOL    HW173378   4.330  11.641   1.603
23827SOL    HW273379   4.428  11.607   1.713
23828SOL     OW73380  14.563   9.056   3.735
23828SOL    HW173381  14.563   9.039   3.641
23828SOL    HW273382  14.589   9.148   3.744
23829SOL     OW73383  12.959   2.592  14.183
23829SOL    HW173384  12.961   2.546  14.267
23829SOL    HW273385  12.976   2.683  14.205
23830SOL     OW73386  12.411   4.766   3.376
23830SOL    HW173387  12.466   4.814   3.439
23830SOL    HW273388  12.394   4.682   3.419
23831SOL     OW73389  10.183   7.358   6.697
23831SOL    HW173390  10.141   7.433   6.739
23831SOL    HW273391  10.204   7.299   6.770
23832SOL     OW73392   7.701  11.184   1.199
23832SOL    HW173393   7.724  11.091   1.207
23832SOL    HW273394   7.618  11.193   1.246
23833SOL     OW73395   7.083   6.314  11.477
23833SOL    HW173396   7.007   6.266  11.510
23833SOL    HW273397   7.155   6.287  11.535
23834SOL     OW73398  13.571   3.637   6.443
23834SOL    HW173399  13.570   3.545   6.415
23834SOL    HW273400  13.612   3.636   6.529
23835SOL     OW73401   4.696   7.579   2.153
23835SOL    HW173402   4.788   7.582   2.125
23835SOL    HW273403   4.670   7.488   2.139
23836SOL     OW73404   9.467   1.681   6.768
23836SOL    HW173405   9.437   1.679   6.677
23836SOL    HW273406   9.561   1.697   6.763
23837SOL     OW73407   1.850   4.892   7.799
23837SOL    HW173408   1.767   4.885   7.753
23837SOL    HW273409   1.913   4.850   7.741
23838SOL     OW73410   7.721   1.096   1.961
23838SOL    HW173411   7.721   1.012   2.007
23838SOL    HW273412   7.630   1.124   1.963
23839SOL     OW73413  12.506   5.038   0.129
23839SOL    HW173414  12.420   5.002   0.111
23839SOL    HW273415  12.554   5.031   0.046
23840SOL     OW73416   4.192   4.065   8.753
23840SOL    HW173417   4.221   3.975   8.743
23840SOL    HW273418   4.272   4.117   8.750
23841SOL     OW73419   5.948   9.019  14.108
23841SOL    HW173420   5.926   8.927  14.121
23841SOL    HW273421   5.921   9.038  14.018
23842SOL     OW73422   1.566  12.441   8.262
23842SOL    HW173423   1.609  12.360   8.289
23842SOL    HW273424   1.532  12.478   8.344
23843SOL     OW73425  11.851   5.896   4.578
23843SOL    HW173426  11.843   5.916   4.485
23843SOL    HW273427  11.846   5.800   4.583
23844SOL     OW73428   6.837   5.003  12.953
23844SOL    HW173429   6.853   5.047  13.036
23844SOL    HW273430   6.913   4.945  12.941
23845SOL     OW73431  14.528  12.345  14.458
23845SOL    HW173432  14.623  12.348  14.468
23845SOL    HW273433  14.508  12.415  14.396
23846SOL     OW73434   5.566   5.978  13.464
23846SOL    HW173435   5.626   6.000  13.393
23846SOL    HW273436   5.546   6.062  13.506
23847SOL     OW73437   4.857  14.136   0.375
23847SOL    HW173438   4.768  14.142   0.409
23847SOL    HW273439   4.913  14.155   0.451
23848SOL     OW73440   1.244  12.272  13.459
23848SOL    HW173441   1.195  12.232  13.531
23848SOL    HW273442   1.336  12.265  13.485
23849SOL     OW73443   0.956   7.290   5.824
23849SOL    HW173444   0.918   7.361   5.874
23849SOL    HW273445   0.882   7.234   5.801
23850SOL     OW73446  10.424   8.061   4.630
23850SOL    HW173447  10.471   7.985   4.594
23850SOL    HW273448  10.375   8.026   4.704
23851SOL     OW73449   8.448   1.007   0.475
23851SOL    HW173450   8.447   1.103   0.482
23851SOL    HW273451   8.368   0.986   0.426
23852SOL     OW73452   5.823   5.215   8.090
23852SOL    HW173453   5.837   5.142   8.150
23852SOL    HW273454   5.910   5.234   8.055
23853SOL     OW73455  12.330   4.724   0.336
23853SOL    HW173456  12.378   4.655   0.381
23853SOL    HW273457  12.246   4.684   0.313
23854SOL     OW73458   3.759   6.410   5.075
23854SOL    HW173459   3.755   6.489   5.021
23854SOL    HW273460   3.728   6.340   5.017
23855SOL     OW73461   8.682   4.288   4.177
23855SOL    HW173462   8.627   4.221   4.136
23855SOL    HW273463   8.658   4.286   4.270
23856SOL     OW73464  14.520   3.454   4.736
23856SOL    HW173465  14.472   3.372   4.720
23856SOL    HW273466  14.584   3.432   4.803
23857SOL     OW73467   9.616   2.110   2.803
23857SOL    HW173468   9.609   2.035   2.744
23857SOL    HW273469   9.530   2.152   2.798
23858SOL     OW73470  12.905  10.339   3.868
23858SOL    HW173471  12.961  10.410   3.897
23858SOL    HW273472  12.881  10.362   3.778
23859SOL     OW73473   8.015   1.322   8.316
23859SOL    HW173474   7.952   1.264   8.273
23859SOL    HW273475   7.964   1.366   8.384
23860SOL     OW73476   3.428   8.730   8.694
23860SOL    HW173477   3.371   8.663   8.658
23860SOL    HW273478   3.375   8.774   8.761
23861SOL     OW73479  13.117   0.927   5.294
23861SOL    HW173480  13.134   1.021   5.303
23861SOL    HW273481  13.021   0.920   5.289
23862SOL     OW73482  13.540   6.208   2.584
23862SOL    HW173483  13.522   6.197   2.678
23862SOL    HW273484  13.464   6.255   2.551
23863SOL     OW73485   6.195  12.447   7.824
23863SOL    HW173486   6.157  12.370   7.781
23863SOL    HW273487   6.120  12.500   7.850
23864SOL     OW73488  14.852  13.350   3.799
23864SOL    HW173489  14.835  13.295   3.875
23864SOL    HW273490   0.076  13.360   3.797
23865SOL     OW73491   6.969   7.261   9.713
23865SOL    HW173492   6.960   7.254   9.618
23865SOL    HW273493   7.062   7.242   9.730
23866SOL     OW73494   3.670  12.937   5.348
23866SOL    HW173495   3.590  12.887   5.359
23866SOL    HW273496   3.740  12.872   5.352
23867SOL     OW73497   0.839   5.632   4.750
23867SOL    HW173498   0.809   5.542   4.736
23867SOL    HW273499   0.918   5.623   4.805
23868SOL     OW73500   1.620  11.948   6.697
23868SOL    HW173501   1.628  11.973   6.789
23868SOL    HW273502   1.556  11.877   6.696
23869SOL     OW73503  12.027  10.921  13.442
23869SOL    HW173504  11.976  11.001  13.429
23869SOL    HW273505  11.984  10.878  13.516
23870SOL     OW73506   6.949  14.563  14.611
23870SOL    HW173507   7.019  14.562  14.677
23870SOL    HW273508   6.902  14.644  14.628
23871SOL     OW73509  12.881   2.329   2.266
23871SOL    HW173510  12.792   2.295   2.260
23871SOL    HW273511  12.931   2.258   2.306
23872SOL     OW73512   4.571  14.258   5.191
23872SOL    HW173513   4.561  14.351   5.172
23872SOL    HW273514   4.583  14.217   5.106
23873SOL     OW73515   1.795  10.715  11.557
23873SOL    HW173516   1.721  10.774  11.573
23873SOL    HW273517   1.808  10.670  11.640
23874SOL     OW73518   9.173  12.295   9.847
23874SOL    HW173519   9.234  12.341   9.789
23874SOL    HW273520   9.126  12.364   9.893
23875SOL     OW73521   5.920   0.921  13.664
23875SOL    HW173522   5.891   0.984  13.730
23875SOL    HW273523   6.015   0.929  13.663
23876SOL     OW73524  10.172   6.086   0.624
23876SOL    HW173525  10.222   6.122   0.551
23876SOL    HW273526  10.120   6.160   0.657
23877SOL     OW73527  10.923  11.348   2.875
23877SOL    HW173528  10.939  11.253   2.877
23877SOL    HW273529  10.881  11.363   2.790
23878SOL     OW73530   2.917   3.342   9.875
23878SOL    HW173531   2.980   3.274   9.898
23878SOL    HW273532   2.851   3.337   9.944
23879SOL     OW73533   3.299   8.827  10.319
23879SOL    HW173534   3.264   8.740  10.299
23879SOL    HW273535   3.382   8.810  10.363
23880SOL     OW73536   3.580  12.303   5.042
23880SOL    HW173537   3.535  12.252   4.975
23880SOL    HW273538   3.651  12.247   5.071
23881SOL     OW73539   8.877   7.765   1.181
23881SOL    HW173540   8.935   7.697   1.215
23881SOL    HW273541   8.934   7.821   1.129
23882SOL     OW73542   6.474   9.967   6.740
23882SOL    HW173543   6.537   9.925   6.798
23882SOL    HW273544   6.397   9.983   6.795
23883SOL     OW73545   5.394   1.558  12.426
23883SOL    HW173546   5.487   1.536  12.425
23883SOL    HW273547   5.349   1.473  12.425
23884SOL     OW73548   1.424  14.235   0.337
23884SOL    HW173549   1.332  14.256   0.355
23884SOL    HW273550   1.454  14.308   0.282
23885SOL     OW73551   2.210   5.573  13.294
23885SOL    HW173552   2.135   5.617  13.255
23885SOL    HW273553   2.252   5.528  13.220
23886SOL     OW73554   1.675   0.403  12.994
23886SOL    HW173555   1.654   0.311  12.980
23886SOL    HW273556   1.704   0.407  13.085
23887SOL     OW73557   0.774  11.499  13.485
23887SOL    HW173558   0.704  11.524  13.545
23887SOL    HW273559   0.741  11.420  13.441
23888SOL     OW73560   2.148   1.864  11.532
23888SOL    HW173561   2.223   1.875  11.590
23888SOL    HW273562   2.120   1.773  11.545
23889SOL     OW73563   3.569   2.473   7.211
23889SOL    HW173564   3.551   2.554   7.259
23889SOL    HW273565   3.502   2.470   7.143
23890SOL     OW73566   8.638   7.991   9.059
23890SOL    HW173567   8.558   7.977   9.008
23890SOL    HW273568   8.706   8.004   8.994
23891SOL     OW73569   3.660   0.310   4.664
23891SOL    HW173570   3.580   0.355   4.635
23891SOL    HW273571   3.646   0.218   4.641
23892SOL     OW73572  13.496   3.330  14.148
23892SOL    HW173573  13.578   3.334  14.197
23892SOL    HW273574  13.501   3.248  14.098
23893SOL     OW73575   6.088  10.165   8.246
23893SOL    HW173576   6.181  10.156   8.265
23893SOL    HW273577   6.044  10.147   8.329
23894SOL     OW73578  12.282  11.204   8.063
23894SOL    HW173579  12.195  11.225   8.028
23894SOL    HW273580  12.273  11.115   8.099
23895SOL     OW73581   9.559   7.496   8.933
23895SOL    HW173582   9.554   7.588   8.961
23895SOL    HW273583   9.551   7.446   9.015
23896SOL     OW73584  12.678   7.679   5.352
23896SOL    HW173585  12.661   7.613   5.285
23896SOL    HW273586  12.663   7.762   5.307
23897SOL     OW73587   2.525  12.309   4.510
23897SOL    HW173588   2.558  12.250   4.578
23897SOL    HW273589   2.599  12.320   4.450
23898SOL     OW73590   4.904  12.417   7.722
23898SOL    HW173591   4.829  12.472   7.696
23898SOL    HW273592   4.981  12.472   7.705
23899SOL     OW73593   1.583  12.099  12.753
23899SOL    HW173594   1.634  12.101  12.834
23899SOL    HW273595   1.496  12.070  12.780
23900SOL     OW73596  10.149  14.598   5.624
23900SOL    HW173597  10.138  14.543   5.701
23900SOL    HW273598  10.222  14.557   5.576
23901SOL     OW73599   5.566   8.993   0.622
23901SOL    HW173600   5.603   8.939   0.553
23901SOL    HW273601   5.502   9.049   0.577
23902SOL     OW73602   0.033   1.991  12.292
23902SOL    HW173603   0.096   2.030  12.353
23902SOL    HW273604   0.060   2.024  12.206
23903SOL     OW73605   8.210   5.299   1.722
23903SOL    HW173606   8.235   5.383   1.683
23903SOL    HW273607   8.131   5.319   1.772
23904SOL     OW73608   8.835   8.794   4.252
23904SOL    HW173609   8.753   8.745   4.243
23904SOL    HW273610   8.828   8.837   4.337
23905SOL     OW73611   4.774   9.336  12.435
23905SOL    HW173612   4.820   9.385  12.504
23905SOL    HW273613   4.682   9.349  12.454
23906SOL     OW73614   5.573  10.899   8.329
23906SOL    HW173615   5.494  10.858   8.364
23906SOL    HW273616   5.578  10.983   8.373
23907SOL     OW73617  13.232   7.616   9.164
23907SOL    HW173618  13.171   7.686   9.187
23907SOL    HW273619  13.318   7.652   9.186
23908SOL     OW73620  11.852   6.992   3.534
23908SOL    HW173621  11.906   6.917   3.557
23908SOL    HW273622  11.890   7.065   3.584
23909SOL     OW73623   7.858  14.795  12.292
23909SOL    HW173624   7.917  14.722  12.311
23909SOL    HW273625   7.842  14.837  12.376
23910SOL     OW73626   4.124  12.826   8.034
23910SOL    HW173627   4.037  12.866   8.030
23910SOL    HW273628   4.183  12.900   8.051
23911SOL     OW73629   2.776   9.471   3.428
23911SOL    HW173630   2.724   9.422   3.491
23911SOL    HW273631   2.720   9.480   3.352
23912SOL     OW73632  13.115   7.388   1.471
23912SOL    HW173633  13.080   7.389   1.559
23912SOL    HW273634  13.209   7.403   1.482
23913SOL     OW73635   1.546   9.396   3.446
23913SOL    HW173636   1.603   9.453   3.497
23913SOL    HW273637   1.458   9.417   3.476
23914SOL     OW73638   5.364   6.180  10.122
23914SOL    HW173639   5.398   6.129  10.048
23914SOL    HW273640   5.403   6.138  10.199
23915SOL     OW73641   2.405  11.830   6.631
23915SOL    HW173642   2.325  11.848   6.681
23915SOL    HW273643   2.461  11.905   6.648
23916SOL     OW73644   0.736   6.832   3.287
23916SOL    HW173645   0.793   6.804   3.216
23916SOL    HW273646   0.795   6.870   3.352
23917SOL     OW73647   1.441   1.801   1.276
23917SOL    HW173648   1.520   1.819   1.327
23917SOL    HW273649   1.452   1.852   1.196
23918SOL     OW73650   5.905   6.110   0.299
23918SOL    HW173651   5.870   6.113   0.210
23918SOL    HW273652   5.864   6.033   0.338
23919SOL     OW73653  11.925   1.219   5.336
23919SOL    HW173654  11.973   1.196   5.416
23919SOL    HW273655  11.844   1.258   5.368
23920SOL     OW73656   5.595  11.727   2.418
23920SOL    HW173657   5.639  11.812   2.421
23920SOL    HW273658   5.660  11.667   2.384
23921SOL     OW73659   7.642  11.911   7.787
23921SOL    HW173660   7.679  11.845   7.728
23921SOL    HW273661   7.710  11.926   7.852
23922SOL     OW73662   0.872  11.874  11.937
23922SOL    HW173663   0.936  11.942  11.958
23922SOL    HW273664   0.914  11.792  11.965
23923SOL     OW73665  13.965   1.525   3.842
23923SOL    HW173666  13.907   1.569   3.905
23923SOL    HW273667  14.019   1.467   3.897
23924SOL     OW73668   7.436  11.916   7.286
23924SOL    HW173669   7.344  11.929   7.267
23924SOL    HW273670   7.442  11.917   7.381
23925SOL     OW73671  12.870  14.281   1.671
23925SOL    HW173672  12.845  14.309   1.759
23925SOL    HW273673  12.892  14.363   1.625
23926SOL     OW73674   2.354   8.055   5.307
23926SOL    HW173675   2.374   7.961   5.312
23926SOL    HW273676   2.416   8.096   5.368
23927SOL     OW73677   4.016  14.828   8.199
23927SOL    HW173678   3.937  14.795   8.157
23927SOL    HW273679   4.028   0.044   8.162
23928SOL     OW73680  11.883   4.970   2.696
23928SOL    HW173681  11.904   4.891   2.646
23928SOL    HW273682  11.968   5.001   2.729
23929SOL     OW73683   7.615  13.952   4.629
23929SOL    HW173684   7.661  13.944   4.545
23929SOL    HW273685   7.522  13.950   4.606
23930SOL     OW73686   3.005   9.386   6.411
23930SOL    HW173687   3.083   9.422   6.454
23930SOL    HW273688   2.932   9.436   6.448
23931SOL     OW73689   8.828  12.187   1.335
23931SOL    HW173690   8.774  12.115   1.368
23931SOL    HW273691   8.778  12.222   1.261
23932SOL     OW73692  10.620  12.629  10.671
23932SOL    HW173693  10.598  12.556  10.613
23932SOL    HW273694  10.707  12.657  10.642
23933SOL     OW73695   9.627  10.957  12.970
23933SOL    HW173696   9.672  10.954  13.054
23933SOL    HW273697   9.590  10.869  12.959
23934SOL     OW73698   7.025   2.598   8.490
23934SOL    HW173699   6.943   2.559   8.460
23934SOL    HW273700   6.997   2.665   8.554
23935SOL     OW73701   0.619   6.453   5.954
23935SOL    HW173702   0.538   6.404   5.971
23935SOL    HW273703   0.689   6.391   5.975
23936SOL     OW73704   9.513   2.162   1.430
23936SOL    HW173705   9.500   2.239   1.374
23936SOL    HW273706   9.597   2.177   1.472
23937SOL     OW73707   3.618  14.699   6.851
23937SOL    HW173708   3.636  14.791   6.872
23937SOL    HW273709   3.568  14.703   6.769
23938SOL     OW73710  10.894   2.725  11.697
23938SOL    HW173711  10.978   2.714  11.653
23938SOL    HW273712  10.914   2.776  11.776
23939SOL     OW73713   6.518  10.572   4.232
23939SOL    HW173714   6.479  10.599   4.315
23939SOL    HW273715   6.462  10.501   4.201
23940SOL     OW73716  10.295  13.275  10.022
23940SOL    HW173717  10.300  13.369  10.004
23940SOL    HW273718  10.364  13.236   9.969
23941SOL     OW73719  11.631  13.002  13.042
23941SOL    HW173720  11.656  13.094  13.044
23941SOL    HW273721  11.544  12.999  13.080
23942SOL     OW73722  13.663  14.034   4.090
23942SOL    HW173723  13.725  13.961   4.090
23942SOL    HW273724  13.671  14.072   4.177
23943SOL     OW73725  11.867  14.274   2.648
23943SOL    HW173726  11.791  14.303   2.699
23943SOL    HW273727  11.854  14.313   2.562
23944SOL     OW73728  11.541   0.226   0.392
23944SOL    HW173729  11.584   0.159   0.337
23944SOL    HW273730  11.553   0.307   0.343
23945SOL     OW73731  14.326   6.337   2.559
23945SOL    HW173732  14.309   6.411   2.501
23945SOL    HW273733  14.249   6.333   2.616
23946SOL     OW73734   5.585   6.751  10.941
23946SOL    HW173735   5.517   6.683  10.934
23946SOL    HW273736   5.667   6.704  10.928
23947SOL     OW73737   3.205  12.150   5.652
23947SOL    HW173738   3.165  12.177   5.735
23947SOL    HW273739   3.171  12.212   5.588
23948SOL     OW73740   4.843  10.868   2.919
23948SOL    HW173741   4.834  10.926   2.995
23948SOL    HW273742   4.901  10.798   2.948
23949SOL     OW73743   0.714  13.970   3.961
23949SOL    HW173744   0.644  13.914   3.994
23949SOL    HW273745   0.746  14.017   4.038
23950SOL     OW73746  14.375  14.369   2.619
23950SOL    HW173747  14.290  14.398   2.654
23950SOL    HW273748  14.358  14.356   2.526
23951SOL     OW73749   5.676   4.947  12.975
23951SOL    HW173750   5.672   4.957  13.070
23951SOL    HW273751   5.660   5.035  12.941
23952SOL     OW73752   0.358   9.834   7.689
23952SOL    HW173753   0.390   9.798   7.771
23952SOL    HW273754   0.317   9.917   7.713
23953SOL     OW73755  11.519   6.261  10.610
23953SOL    HW173756  11.439   6.252  10.661
23953SOL    HW273757  11.494   6.312  10.534
23954SOL     OW73758  12.254   9.431   6.062
23954SOL    HW173759  12.218   9.518   6.080
23954SOL    HW273760  12.223   9.377   6.135
23955SOL     OW73761  14.537  11.415   6.826
23955SOL    HW173762  14.573  11.340   6.874
23955SOL    HW273763  14.448  11.426   6.862
23956SOL     OW73764  14.153   7.953   8.591
23956SOL    HW173765  14.243   7.982   8.579
23956SOL    HW273766  14.100   8.032   8.580
23957SOL     OW73767  14.681   6.872  10.595
23957SOL    HW173768  14.743   6.815  10.641
23957SOL    HW273769  14.631   6.813  10.538
23958SOL     OW73770   5.659   4.855   4.188
23958SOL    HW173771   5.671   4.834   4.280
23958SOL    HW273772   5.712   4.791   4.141
23959SOL     OW73773   1.850   1.520  11.380
23959SOL    HW173774   1.942   1.547  11.382
23959SOL    HW273775   1.834   1.481  11.465
23960SOL     OW73776  13.464  14.254   9.497
23960SOL    HW173777  13.421  14.197   9.560
23960SOL    HW273778  13.398  14.322   9.478
23961SOL     OW73779  14.542  10.421   5.896
23961SOL    HW173780  14.558  10.344   5.843
23961SOL    HW273781  14.505  10.485   5.835
23962SOL     OW73782   1.487  12.057   2.263
23962SOL    HW173783   1.490  11.962   2.258
23962SOL    HW273784   1.453  12.076   2.351
23963SOL     OW73785   9.735  14.814  11.850
23963SOL    HW173786   9.785  14.779  11.775
23963SOL    HW273787   9.746   0.038  11.843
23964SOL     OW73788  11.387   4.303  10.044
23964SOL    HW173789  11.372   4.359   9.968
23964SOL    HW273790  11.331   4.227  10.029
23965SOL     OW73791   9.724   6.503   7.203
23965SOL    HW173792   9.688   6.425   7.162
23965SOL    HW273793   9.705   6.574   7.142
23966SOL     OW73794   3.280   4.489   0.328
23966SOL    HW173795   3.324   4.440   0.259
23966SOL    HW273796   3.314   4.578   0.320
23967SOL     OW73797   8.380   5.869  14.626
23967SOL    HW173798   8.371   5.792  14.682
23967SOL    HW273799   8.475   5.880  14.615
23968SOL     OW73800   0.536   0.884   5.743
23968SOL    HW173801   0.601   0.910   5.808
23968SOL    HW273802   0.472   0.955   5.744
23969SOL     OW73803   9.380  12.729   8.278
23969SOL    HW173804   9.380  12.690   8.365
23969SOL    HW273805   9.416  12.661   8.221
23970SOL     OW73806  12.560   3.314  14.236
23970SOL    HW173807  12.489   3.371  14.207
23970SOL    HW273808  12.598   3.359  14.311
23971SOL     OW73809  12.389  12.101  12.724
23971SOL    HW173810  12.319  12.166  12.709
23971SOL    HW273811  12.416  12.075  12.636
23972SOL     OW73812  13.676  13.213   3.165
23972SOL    HW173813  13.701  13.173   3.249
23972SOL    HW273814  13.650  13.302   3.187
23973SOL     OW73815   4.841   6.596  14.752
23973SOL    HW173816   4.758   6.548  14.758
23973SOL    HW273817   4.844   6.626  14.661
23974SOL     OW73818   3.340   4.052   2.153
23974SOL    HW173819   3.431   4.050   2.183
23974SOL    HW273820   3.288   4.052   2.233
23975SOL     OW73821   7.331   4.814   7.374
23975SOL    HW173822   7.287   4.729   7.375
23975SOL    HW273823   7.299   4.859   7.452
23976SOL     OW73824   7.667  11.960   0.246
23976SOL    HW173825   7.659  11.994   0.157
23976SOL    HW273826   7.665  11.865   0.236
23977SOL     OW73827  10.883  12.666   3.639
23977SOL    HW173828  10.894  12.586   3.691
23977SOL    HW273829  10.881  12.635   3.548
23978SOL     OW73830   3.744  13.356   7.868
23978SOL    HW173831   3.784  13.443   7.860
23978SOL    HW273832   3.720  13.349   7.960
23979SOL     OW73833   0.190   8.711  11.085
23979SOL    HW173834   0.138   8.766  11.144
23979SOL    HW273835   0.156   8.622  11.099
23980SOL     OW73836   9.154   2.712   4.457
23980SOL    HW173837   9.217   2.782   4.476
23980SOL    HW273838   9.207   2.633   4.453
23981SOL     OW73839   5.188   9.196   1.117
23981SOL    HW173840   5.138   9.187   1.036
23981SOL    HW273841   5.273   9.156   1.097
23982SOL     OW73842   7.334  13.143  10.573
23982SOL    HW173843   7.304  13.234  10.563
23982SOL    HW273844   7.268  13.091  10.526
23983SOL     OW73845  11.124  13.754  10.448
23983SOL    HW173846  11.052  13.815  10.463
23983SOL    HW273847  11.111  13.723  10.359
23984SOL     OW73848  11.095  13.580   2.872
23984SOL    HW173849  11.130  13.494   2.896
23984SOL    HW273850  11.121  13.592   2.781
23985SOL     OW73851   3.126  14.772   7.084
23985SOL    HW173852   3.048  14.809   7.044
23985SOL    HW273853   3.198  14.823   7.048
23986SOL     OW73854  14.736   9.542  11.890
23986SOL    HW173855  14.717   9.582  11.806
23986SOL    HW273856  14.720   9.449  11.877
23987SOL     OW73857  13.678   5.360  12.281
23987SOL    HW173858  13.723   5.283  12.315
23987SOL    HW273859  13.720   5.377  12.197
23988SOL     OW73860   4.939   3.774   7.448
23988SOL    HW173861   4.997   3.819   7.509
23988SOL    HW273862   4.885   3.718   7.503
23989SOL     OW73863  13.752   4.657   4.416
23989SOL    HW173864  13.766   4.741   4.372
23989SOL    HW273865  13.823   4.601   4.383
23990SOL     OW73866   9.136   2.758   0.362
23990SOL    HW173867   9.181   2.715   0.289
23990SOL    HW273868   9.125   2.690   0.428
23991SOL     OW73869   0.796  12.389   7.764
23991SOL    HW173870   0.750  12.452   7.820
23991SOL    HW273871   0.877  12.435   7.740
23992SOL     OW73872   7.406   9.950   6.556
23992SOL    HW173873   7.434   9.981   6.469
23992SOL    HW273874   7.414  10.027   6.612
23993SOL     OW73875  10.512  10.929  10.918
23993SOL    HW173876  10.540  11.004  10.969
23993SOL    HW273877  10.584  10.866  10.926
23994SOL     OW73878   9.050   3.179   7.314
23994SOL    HW173879   9.093   3.257   7.281
23994SOL    HW273880   9.057   3.185   7.409
23995SOL     OW73881  13.400   3.330   5.896
23995SOL    HW173882  13.424   3.302   5.808
23995SOL    HW273883  13.366   3.251   5.938
23996SOL     OW73884   3.574   3.500   1.345
23996SOL    HW173885   3.556   3.538   1.431
23996SOL    HW273886   3.519   3.549   1.285
23997SOL     OW73887  10.020  11.813   4.079
23997SOL    HW173888  10.038  11.893   4.127
23997SOL    HW273889   9.925  11.809   4.072
23998SOL     OW73890   6.582   8.844   8.740
23998SOL    HW173891   6.655   8.806   8.789
23998SOL    HW273892   6.505   8.796   8.770
23999SOL     OW73893   2.698   9.063  13.967
23999SOL    HW173894   2.709   9.158  13.975
23999SOL    HW273895   2.769   9.026  14.020
24000SOL     OW73896   4.625   0.271   7.752
24000SOL    HW173897   4.582   0.241   7.832
24000SOL    HW273898   4.645   0.191   7.703
24001SOL     OW73899   8.621   2.645   7.930
24001SOL    HW173900   8.659   2.681   7.850
24001SOL    HW273901   8.697   2.621   7.983
24002SOL     OW73902  11.000   1.182   0.943
24002SOL    HW173903  10.913   1.146   0.954
24002SOL    HW273904  11.059   1.107   0.951
24003SOL     OW73905  10.422  10.760   0.142
24003SOL    HW173906  10.415  10.803   0.056
24003SOL    HW273907  10.369  10.814   0.200
24004SOL     OW73908   3.298   4.275   0.530
24004SOL    HW173909   3.282   4.341   0.463
24004SOL    HW273910   3.255   4.196   0.497
24005SOL     OW73911  10.298   6.527   4.777
24005SOL    HW173912  10.354   6.459   4.814
24005SOL    HW273913  10.258   6.570   4.853
24006SOL     OW73914   2.949   3.321   3.792
24006SOL    HW173915   2.856   3.300   3.805
24006SOL    HW273916   2.949   3.409   3.755
24007SOL     OW73917   5.103   7.767  10.424
24007SOL    HW173918   5.047   7.843  10.409
24007SOL    HW273919   5.076   7.733  10.509
24008SOL     OW73920   2.101  12.394  14.660
24008SOL    HW173921   2.165  12.417  14.727
24008SOL    HW273922   2.112  12.299  14.649
24009SOL     OW73923  12.496   1.797  14.470
24009SOL    HW173924  12.461   1.848  14.543
24009SOL    HW273925  12.589   1.788  14.489
24010SOL     OW73926   1.859  12.638   5.355
24010SOL    HW173927   1.922  12.584   5.403
24010SOL    HW273928   1.775  12.594   5.366
24011SOL     OW73929  13.741   7.331  12.324
24011SOL    HW173930  13.832   7.301  12.329
24011SOL    HW273931  13.689   7.251  12.336
24012SOL     OW73932  12.899   9.410   1.390
24012SOL    HW173933  12.889   9.502   1.367
24012SOL    HW273934  12.923   9.367   1.308
24013SOL     OW73935   1.325   7.005   2.855
24013SOL    HW173936   1.377   6.986   2.933
24013SOL    HW273937   1.364   7.084   2.818
24014SOL     OW73938   0.390   3.602   8.735
24014SOL    HW173939   0.425   3.691   8.742
24014SOL    HW273940   0.428   3.556   8.810
24015SOL     OW73941   3.355   1.600  11.873
24015SOL    HW173942   3.418   1.595  11.946
24015SOL    HW273943   3.365   1.517  11.827
24016SOL     OW73944   4.732   0.244   2.002
24016SOL    HW173945   4.827   0.250   2.003
24016SOL    HW273946   4.704   0.297   2.077
24017SOL     OW73947   7.524   8.037   2.205
24017SOL    HW173948   7.533   8.082   2.121
24017SOL    HW273949   7.471   7.960   2.185
24018SOL     OW73950   9.120   6.048   2.516
24018SOL    HW173951   9.196   6.106   2.512
24018SOL    HW273952   9.155   5.967   2.554
24019SOL     OW73953   2.948   3.569   2.107
24019SOL    HW173954   2.947   3.522   2.191
24019SOL    HW273955   2.980   3.505   2.044
24020SOL     OW73956   4.716   6.182   9.696
24020SOL    HW173957   4.756   6.191   9.783
24020SOL    HW273958   4.789   6.195   9.635
24021SOL     OW73959  11.182   8.884  11.001
24021SOL    HW173960  11.162   8.793  11.023
24021SOL    HW273961  11.175   8.931  11.085
24022SOL     OW73962   0.163   5.969   4.058
24022SOL    HW173963   0.193   5.879   4.063
24022SOL    HW273964   0.116   5.983   4.140
24023SOL     OW73965   4.758  12.873   9.691
24023SOL    HW173966   4.753  12.962   9.726
24023SOL    HW273967   4.667  12.850   9.671
24024SOL     OW73968   6.302  13.540   3.269
24024SOL    HW173969   6.280  13.616   3.214
24024SOL    HW273970   6.353  13.483   3.211
24025SOL     OW73971   7.808   6.188   1.694
24025SOL    HW173972   7.828   6.187   1.788
24025SOL    HW273973   7.712   6.187   1.691
24026SOL     OW73974  11.737  11.756  10.604
24026SOL    HW173975  11.781  11.831  10.564
24026SOL    HW273976  11.785  11.741  10.685
24027SOL     OW73977  12.038  10.479  13.535
24027SOL    HW173978  12.031  10.394  13.492
24027SOL    HW273979  12.040  10.458  13.629
24028SOL     OW73980  13.278   3.129  11.407
24028SOL    HW173981  13.274   3.097  11.497
24028SOL    HW273982  13.332   3.207  11.411
24029SOL     OW73983   1.146   4.491   6.498
24029SOL    HW173984   1.190   4.419   6.544
24029SOL    HW273985   1.184   4.570   6.536
24030SOL     OW73986  11.316  13.836   9.823
24030SOL    HW173987  11.330  13.831   9.728
24030SOL    HW273988  11.346  13.923   9.847
24031SOL     OW73989   7.152   2.195   4.267
24031SOL    HW173990   7.103   2.240   4.337
24031SOL    HW273991   7.229   2.159   4.311
24032SOL     OW73992   0.329   9.404  14.102
24032SOL    HW173993   0.292   9.491  14.117
24032SOL    HW273994   0.282   9.347  14.162
24033SOL     OW73995   4.098  11.709   2.534
24033SOL    HW173996   4.118  11.662   2.615
24033SOL    HW273997   4.093  11.641   2.467
24034SOL     OW73998  12.694   7.245   9.266
24034SOL    HW173999  12.671   7.158   9.233
24034SOL    HW274000  12.786   7.257   9.240
24035SOL     OW74001   7.798  13.841   5.829
24035SOL    HW174002   7.752  13.865   5.910
24035SOL    HW274003   7.729  13.812   5.770
24036SOL     OW74004  11.403   8.311   2.632
24036SOL    HW174005  11.388   8.340   2.722
24036SOL    HW274006  11.395   8.391   2.580
24037SOL     OW74007   0.332  14.611  12.291
24037SOL    HW174008   0.354  14.542  12.229
24037SOL    HW274009   0.320  14.566  12.375
24038SOL     OW74010   0.290  12.787   9.840
24038SOL    HW174011   0.264  12.737   9.917
24038SOL    HW274012   0.216  12.778   9.780
24039SOL     OW74013  11.636   9.522   2.713
24039SOL    HW174014  11.656   9.534   2.620
24039SOL    HW274015  11.635   9.427   2.725
24040SOL     OW74016   6.160   6.603   5.117
24040SOL    HW174017   6.172   6.511   5.093
24040SOL    HW274018   6.217   6.616   5.192
24041SOL     OW74019   1.715   2.070   7.221
24041SOL    HW174020   1.797   2.067   7.172
24041SOL    HW274021   1.723   2.148   7.276
24042SOL     OW74022  10.753   3.592   1.712
24042SOL    HW174023  10.783   3.682   1.723
24042SOL    HW274024  10.658   3.596   1.727
24043SOL     OW74025   7.961   6.079  12.181
24043SOL    HW174026   8.009   6.162  12.181
24043SOL    HW274027   7.881   6.098  12.131
24044SOL     OW74028  14.796   2.136   4.525
24044SOL    HW174029  14.722   2.155   4.582
24044SOL    HW274030   0.000   2.172   4.571
24045SOL     OW74031  12.955  11.156   8.542
24045SOL    HW174032  12.884  11.189   8.598
24045SOL    HW274033  12.998  11.089   8.595
24046SOL     OW74034   3.643   8.628  14.818
24046SOL    HW174035   3.562   8.666  14.853
24046SOL    HW274036   3.682   8.581   0.021
24047SOL     OW74037   2.267  13.030   2.237
24047SOL    HW174038   2.220  13.111   2.219
24047SOL    HW274039   2.334  13.055   2.301
24048SOL     OW74040   7.007   9.050  10.017
24048SOL    HW174041   7.028   9.093   9.935
24048SOL    HW274042   7.091   9.019  10.051
24049SOL     OW74043  13.462   5.251  13.227
24049SOL    HW174044  13.410   5.327  13.199
24049SOL    HW274045  13.501   5.279  13.310
24050SOL     OW74046  10.685   2.499   0.887
24050SOL    HW174047  10.660   2.588   0.913
24050SOL    HW274048  10.674   2.498   0.792
24051SOL     OW74049   4.024  10.173   5.417
24051SOL    HW174050   3.964  10.098   5.420
24051SOL    HW274051   4.106  10.139   5.453
24052SOL     OW74052   8.473  12.385   2.650
24052SOL    HW174053   8.533  12.327   2.604
24052SOL    HW274054   8.460  12.343   2.736
24053SOL     OW74055   0.767   1.221  10.630
24053SOL    HW174056   0.858   1.248  10.617
24053SOL    HW274057   0.728   1.294  10.679
24054SOL     OW74058   3.302   6.388   1.878
24054SOL    HW174059   3.393   6.415   1.867
24054SOL    HW274060   3.293   6.310   1.823
24055SOL     OW74061   9.976  14.668   0.084
24055SOL    HW174062   9.983  14.645   0.177
24055SOL    HW274063   9.887  14.642   0.060
24056SOL     OW74064   6.258   9.847   3.408
24056SOL    HW174065   6.235   9.938   3.429
24056SOL    HW274066   6.303   9.853   3.323
24057SOL     OW74067   1.629  10.716  14.245
24057SOL    HW174068   1.586  10.735  14.162
24057SOL    HW274069   1.674  10.798  14.267
24058SOL     OW74070   0.811  14.611   8.552
24058SOL    HW174071   0.880  14.648   8.497
24058SOL    HW274072   0.835  14.519   8.562
24059SOL     OW74073  13.973   1.259   3.663
24059SOL    HW174074  13.909   1.188   3.660
24059SOL    HW274075  13.958   1.301   3.748
24060SOL     OW74076   4.587   8.548   0.136
24060SOL    HW174077   4.558   8.632   0.100
24060SOL    HW274078   4.571   8.485   0.065
24061SOL     OW74079   9.682   8.019   2.265
24061SOL    HW174080   9.702   7.940   2.315
24061SOL    HW274081   9.745   8.084   2.297
24062SOL     OW74082  10.425  12.166  12.278
24062SOL    HW174083  10.369  12.243  12.282
24062SOL    HW274084  10.461  12.168  12.189
24063SOL     OW74085  13.033  12.235   3.264
24063SOL    HW174086  13.022  12.192   3.349
24063SOL    HW274087  12.964  12.196   3.209
24064SOL     OW74088   8.909  13.166  11.464
24064SOL    HW174089   8.979  13.202  11.518
24064SOL    HW274090   8.834  13.223  11.481
24065SOL     OW74091   6.429   9.836   3.167
24065SOL    HW174092   6.390   9.878   3.090
24065SOL    HW274093   6.440   9.744   3.141
24066SOL     OW74094  13.781   5.398  12.042
24066SOL    HW174095  13.843   5.407  11.970
24066SOL    HW274096  13.737   5.482  12.047
24067SOL     OW74097   0.575  13.166  13.383
24067SOL    HW174098   0.535  13.238  13.333
24067SOL    HW274099   0.501  13.112  13.410
24068SOL     OW74100   5.246   4.526   9.775
24068SOL    HW174101   5.180   4.483   9.721
24068SOL    HW274102   5.237   4.485   9.861
24069SOL     OW74103   2.815   9.833   8.424
24069SOL    HW174104   2.797   9.739   8.429
24069SOL    HW274105   2.885   9.841   8.359
24070SOL     OW74106   6.888   6.886   9.094
24070SOL    HW174107   6.844   6.804   9.071
24070SOL    HW274108   6.844   6.953   9.043
24071SOL     OW74109   1.995  12.446   5.162
24071SOL    HW174110   2.070  12.498   5.192
24071SOL    HW274111   1.957  12.499   5.091
24072SOL     OW74112  13.801   0.667   2.633
24072SOL    HW174113  13.851   0.597   2.591
24072SOL    HW274114  13.710   0.647   2.613
24073SOL     OW74115   2.447  14.842  10.620
24073SOL    HW174116   2.509   0.041  10.604
24073SOL    HW274117   2.392   0.003  10.692
24074SOL     OW74118  10.812   2.978  10.198
24074SOL    HW174119  10.818   2.909  10.132
24074SOL    HW274120  10.734   2.957  10.248
24075SOL     OW74121   5.939  13.377  12.442
24075SOL    HW174122   5.846  13.381  12.463
24075SOL    HW274123   5.945  13.404  12.351
24076SOL     OW74124   8.236   5.285  14.245
24076SOL    HW174125   8.330   5.286  14.266
24076SOL    HW274126   8.193   5.308  14.327
24077SOL     OW74127   4.501   5.847  13.497
24077SOL    HW174128   4.454   5.910  13.442
24077SOL    HW274129   4.476   5.761  13.461
24078SOL     OW74130   5.384  14.659   1.987
24078SOL    HW174131   5.348  14.574   2.010
24078SOL    HW274132   5.415  14.649   1.897
24079SOL     OW74133   2.102   5.735   5.082
24079SOL    HW174134   2.063   5.693   5.006
24079SOL    HW274135   2.046   5.811   5.098
24080SOL     OW74136   3.918   6.913  14.565
24080SOL    HW174137   3.908   6.902  14.659
24080SOL    HW274138   3.979   6.845  14.539
24081SOL     OW74139   5.124   2.416   2.764
24081SOL    HW174140   5.082   2.478   2.705
24081SOL    HW274141   5.083   2.332   2.743
24082SOL     OW74142  14.818   7.097  10.349
24082SOL    HW174143   0.040   7.108  10.364
24082SOL    HW274144  14.794   7.020  10.402
24083SOL     OW74145  13.003  11.043   3.197
24083SOL    HW174146  12.923  11.094   3.209
24083SOL    HW274147  13.014  11.036   3.102
24084SOL     OW74148  14.779   1.401  13.007
24084SOL    HW174149  14.845   1.332  12.999
24084SOL    HW274150  14.711   1.378  12.944
24085SOL     OW74151   0.689   9.466   6.453
24085SOL    HW174152   0.653   9.529   6.390
24085SOL    HW274153   0.695   9.384   6.404
24086SOL     OW74154   7.772  11.703   1.370
24086SOL    HW174155   7.710  11.674   1.437
24086SOL    HW274156   7.781  11.628   1.311
24087SOL     OW74157  12.304  13.934   7.743
24087SOL    HW174158  12.362  13.901   7.812
24087SOL    HW274159  12.230  13.972   7.790
24088SOL     OW74160   2.921  13.020  11.232
24088SOL    HW174161   3.012  13.018  11.204
24088SOL    HW274162   2.871  12.998  11.153
24089SOL     OW74163  14.367   1.699   5.748
24089SOL    HW174164  14.421   1.669   5.674
24089SOL    HW274165  14.338   1.618   5.790
24090SOL     OW74166  10.376  12.649   3.475
24090SOL    HW174167  10.292  12.693   3.456
24090SOL    HW274168  10.368  12.622   3.566
24091SOL     OW74169  13.339  12.465   0.663
24091SOL    HW174170  13.425  12.490   0.696
24091SOL    HW274171  13.355  12.382   0.618
24092SOL     OW74172   2.662   0.948  14.424
24092SOL    HW174173   2.726   1.006  14.381
24092SOL    HW274174   2.698   0.934  14.512
24093SOL     OW74175   8.398   3.384   6.000
24093SOL    HW174176   8.329   3.367   6.064
24093SOL    HW274177   8.424   3.297   5.969
24094SOL     OW74178   3.582   6.675   5.104
24094SOL    HW174179   3.558   6.765   5.128
24094SOL    HW274180   3.657   6.685   5.046
24095SOL     OW74181   2.035  13.601  11.093
24095SOL    HW174182   2.048  13.694  11.112
24095SOL    HW274183   1.944  13.584  11.119
24096SOL     OW74184   9.743  13.459   6.472
24096SOL    HW174185   9.713  13.371   6.449
24096SOL    HW274186   9.829  13.467   6.430
24097SOL     OW74187  12.543   0.445  13.210
24097SOL    HW174188  12.573   0.504  13.141
24097SOL    HW274189  12.455   0.419  13.183
24098SOL     OW74190  10.453   5.259   2.433
24098SOL    HW174191  10.395   5.183   2.443
24098SOL    HW274192  10.492   5.270   2.520
24099SOL     OW74193   1.379   8.584   4.153
24099SOL    HW174194   1.436   8.550   4.084
24099SOL    HW274195   1.400   8.531   4.230
24100SOL     OW74196   5.217   7.108  10.915
24100SOL    HW174197   5.245   7.194  10.882
24100SOL    HW274198   5.296   7.054  10.908
24101SOL     OW74199  10.824  12.330   4.858
24101SOL    HW174200  10.821  12.356   4.950
24101SOL    HW274201  10.735  12.298   4.839
24102SOL     OW74202   3.544   7.666   4.640
24102SOL    HW174203   3.602   7.636   4.570
24102SOL    HW274204   3.579   7.626   4.719
24103SOL     OW74205  10.953   4.129   2.563
24103SOL    HW174206  10.931   4.139   2.655
24103SOL    HW274207  11.048   4.137   2.559
24104SOL     OW74208   2.515  11.695  14.818
24104SOL    HW174209   2.591  11.744  14.788
24104SOL    HW274210   2.470  11.755   0.006
24105SOL     OW74211  14.236  13.088   1.772
24105SOL    HW174212  14.312  13.142   1.794
24105SOL    HW274213  14.215  13.113   1.682
24106SOL     OW74214  13.757   7.023  11.561
24106SOL    HW174215  13.674   7.068  11.551
24106SOL    HW274216  13.747   6.971  11.640
24107SOL     OW74217   4.606   5.766   4.209
24107SOL    HW174218   4.583   5.693   4.266
24107SOL    HW274219   4.647   5.830   4.267
24108SOL     OW74220   1.999  11.556  11.299
24108SOL    HW174221   1.982  11.465  11.275
24108SOL    HW274222   2.045  11.551  11.383
24109SOL     OW74223   5.471   0.789  11.585
24109SOL    HW174224   5.478   0.826  11.497
24109SOL    HW274225   5.547   0.732  11.593
24110SOL     OW74226  12.660   4.810  11.659
24110SOL    HW174227  12.583   4.848  11.701
24110SOL    HW274228  12.658   4.843  11.570
24111SOL     OW74229   3.175  14.116  10.612
24111SOL    HW174230   3.188  14.204  10.576
24111SOL    HW274231   3.088  14.090  10.582
24112SOL     OW74232   0.118   4.801   6.454
24112SOL    HW174233   0.154   4.871   6.507
24112SOL    HW274234   0.192   4.743   6.436
24113SOL     OW74235  10.614   5.284  13.400
24113SOL    HW174236  10.636   5.218  13.465
24113SOL    HW274237  10.680   5.274  13.332
24114SOL     OW74238  13.376   8.734  14.238
24114SOL    HW174239  13.323   8.725  14.318
24114SOL    HW274240  13.465   8.748  14.270
24115SOL     OW74241  14.409   1.226  12.956
24115SOL    HW174242  14.455   1.151  12.919
24115SOL    HW274243  14.322   1.193  12.978
24116SOL     OW74244   7.974  14.287   9.638
24116SOL    HW174245   8.012  14.330   9.562
24116SOL    HW274246   8.027  14.317   9.712
24117SOL     OW74247   0.145   5.953   4.603
24117SOL    HW174248   0.181   5.892   4.667
24117SOL    HW274249   0.077   5.902   4.557
24118SOL     OW74250   4.318   5.141   0.414
24118SOL    HW174251   4.356   5.138   0.326
24118SOL    HW274252   4.392   5.160   0.472
24119SOL     OW74253  12.516  10.880  11.551
24119SOL    HW174254  12.530  10.933  11.630
24119SOL    HW274255  12.552  10.933  11.480
24120SOL     OW74256   1.029   6.683  10.261
24120SOL    HW174257   1.036   6.604  10.208
24120SOL    HW274258   0.956   6.732  10.223
24121SOL     OW74259   2.770  11.716  10.501
24121SOL    HW174260   2.710  11.790  10.497
24121SOL    HW274261   2.713  11.639  10.496
24122SOL     OW74262   6.734   5.922   4.482
24122SOL    HW174263   6.750   5.872   4.562
24122SOL    HW274264   6.648   5.962   4.495
24123SOL     OW74265   2.675   2.511  12.256
24123SOL    HW174266   2.637   2.596  12.279
24123SOL    HW274267   2.604   2.463  12.214
24124SOL     OW74268  14.220  14.014   6.668
24124SOL    HW174269  14.176  13.987   6.588
24124SOL    HW274270  14.214  13.938   6.726
24125SOL     OW74271   9.155   1.671   1.070
24125SOL    HW174272   9.171   1.655   1.163
24125SOL    HW274273   9.190   1.593   1.027
24126SOL     OW74274  10.300   7.399   5.618
24126SOL    HW174275  10.289   7.467   5.552
24126SOL    HW274276  10.210   7.371   5.638
24127SOL     OW74277  14.023   0.118   2.795
24127SOL    HW174278  13.982   0.033   2.812
24127SOL    HW274279  13.955   0.182   2.817
24128SOL     OW74280   7.106   4.214  11.892
24128SOL    HW174281   7.073   4.225  11.981
24128SOL    HW274282   7.042   4.259  11.837
24129SOL     OW74283  11.371   0.397  13.016
24129SOL    HW174284  11.368   0.435  12.928
24129SOL    HW274285  11.452   0.429  13.054
24130SOL     OW74286   1.677  14.355   1.961
24130SOL    HW174287   1.679  14.420   1.891
24130SOL    HW274288   1.596  14.307   1.946
24131SOL     OW74289   8.919  11.732   4.872
24131SOL    HW174290   8.834  11.737   4.916
24131SOL    HW274291   8.977  11.691   4.936
24132SOL     OW74292  11.565   2.324   2.050
24132SOL    HW174293  11.602   2.255   1.995
24132SOL    HW274294  11.581   2.294   2.140
24133SOL     OW74295   7.220   3.517  14.762
24133SOL    HW174296   7.133   3.482  14.781
24133SOL    HW274297   7.243   3.481  14.677
24134SOL     OW74298   4.597   5.492   2.379
24134SOL    HW174299   4.620   5.476   2.471
24134SOL    HW274300   4.513   5.447   2.368
24135SOL     OW74301   6.785   1.017   4.022
24135SOL    HW174302   6.698   0.978   4.032
24135SOL    HW274303   6.827   1.003   4.106
24136SOL     OW74304   5.403   8.075  10.920
24136SOL    HW174305   5.350   8.079  10.999
24136SOL    HW274306   5.435   8.165  10.908
24137SOL     OW74307   2.541   1.361   4.625
24137SOL    HW174308   2.493   1.441   4.606
24137SOL    HW274309   2.631   1.390   4.643
24138SOL     OW74310   0.027   9.961   6.813
24138SOL    HW174311   0.019   9.886   6.872
24138SOL    HW274312   0.096  10.015   6.853
24139SOL     OW74313   7.917   9.913   8.557
24139SOL    HW174314   7.880   9.973   8.623
24139SOL    HW274315   7.993   9.875   8.600
24140SOL     OW74316  10.435   8.636   2.277
24140SOL    HW174317  10.397   8.588   2.204
24140SOL    HW274318  10.514   8.587   2.299
24141SOL     OW74319   5.865   4.202  10.894
24141SOL    HW174320   5.863   4.290  10.857
24141SOL    HW274321   5.778   4.166  10.875
24142SOL     OW74322  14.249   5.611   7.236
24142SOL    HW174323  14.232   5.675   7.304
24142SOL    HW274324  14.345   5.606   7.230
24143SOL     OW74325   9.589   9.413   0.996
24143SOL    HW174326   9.684   9.428   1.002
24143SOL    HW274327   9.560   9.405   1.086
24144SOL     OW74328  14.370  11.111  11.904
24144SOL    HW174329  14.372  11.112  11.809
24144SOL    HW274330  14.401  11.198  11.930
24145SOL     OW74331   8.550   7.699   9.257
24145SOL    HW174332   8.577   7.608   9.263
24145SOL    HW274333   8.454   7.696   9.261
24146SOL     OW74334   2.468   5.058   6.554
24146SOL    HW174335   2.433   4.989   6.497
24146SOL    HW274336   2.506   5.121   6.494
24147SOL     OW74337   1.820   8.563   4.093
24147SOL    HW174338   1.867   8.612   4.161
24147SOL    HW274339   1.841   8.472   4.110
24148SOL     OW74340  14.848  14.261  10.864
24148SOL    HW174341  14.871  14.323  10.933
24148SOL    HW274342   0.008  14.177  10.896
24149SOL     OW74343   3.746   3.538  10.362
24149SOL    HW174344   3.651   3.536  10.360
24149SOL    HW274345   3.773   3.493  10.281
24150SOL     OW74346   1.322   9.142  11.901
24150SOL    HW174347   1.335   9.052  11.869
24150SOL    HW274348   1.227   9.150  11.911
24151SOL     OW74349  12.057   1.190   5.594
24151SOL    HW174350  12.021   1.110   5.634
24151SOL    HW274351  12.144   1.164   5.563
24152SOL     OW74352   2.848  12.987   8.956
24152SOL    HW174353   2.833  13.074   8.993
24152SOL    HW274354   2.899  13.003   8.876
24153SOL     OW74355  11.609   9.420  12.962
24153SOL    HW174356  11.638   9.438  13.051
24153SOL    HW274357  11.600   9.324  12.959
24154SOL     OW74358  12.138   6.361   3.599
24154SOL    HW174359  12.102   6.402   3.678
24154SOL    HW274360  12.153   6.270   3.625
24155SOL     OW74361  10.655   4.362  12.929
24155SOL    HW174362  10.714   4.411  12.986
24155SOL    HW274363  10.572   4.409  12.933
24156SOL     OW74364  12.680  14.310  14.782
24156SOL    HW174365  12.623  14.348  14.715
24156SOL    HW274366  12.722  14.386  14.822
24157SOL     OW74367   1.959   2.035  13.975
24157SOL    HW174368   2.047   2.071  13.983
24157SOL    HW274369   1.926   2.033  14.065
24158SOL     OW74370   0.098  14.205   6.461
24158SOL    HW174371   0.123  14.218   6.552
24158SOL    HW274372   0.122  14.114   6.443
24159SOL     OW74373   2.679   3.000   4.846
24159SOL    HW174374   2.635   2.960   4.770
24159SOL    HW274375   2.744   3.059   4.807
24160SOL     OW74376  12.706   3.660  10.973
24160SOL    HW174377  12.717   3.583  11.028
24160SOL    HW274378  12.615   3.656  10.943
24161SOL     OW74379   6.864   8.442  11.989
24161SOL    HW174380   6.825   8.500  11.923
24161SOL    HW274381   6.809   8.454  12.066
24162SOL     OW74382   8.191   6.606   5.971
24162SOL    HW174383   8.282   6.638   5.974
24162SOL    HW274384   8.153   6.651   5.896
24163SOL     OW74385   2.317   3.854   2.743
24163SOL    HW174386   2.347   3.893   2.825
24163SOL    HW274387   2.378   3.782   2.727
24164SOL     OW74388   6.649  10.875   1.621
24164SOL    HW174389   6.696  10.795   1.645
24164SOL    HW274390   6.643  10.925   1.702
24165SOL     OW74391   0.876   7.667  11.395
24165SOL    HW174392   0.965   7.700  11.391
24165SOL    HW274393   0.826   7.738  11.435
24166SOL     OW74394  12.260  11.311  13.625
24166SOL    HW174395  12.215  11.282  13.546
24166SOL    HW274396  12.200  11.373  13.666
24167SOL     OW74397  13.051   5.910   1.197
24167SOL    HW174398  13.096   5.900   1.281
24167SOL    HW274399  12.961   5.934   1.222
24168SOL     OW74400   2.912  10.701   2.460
24168SOL    HW174401   2.930  10.633   2.395
24168SOL    HW274402   2.999  10.727   2.492
24169SOL     OW74403   0.171   9.926  12.736
24169SOL    HW174404   0.207   9.914  12.648
24169SOL    HW274405   0.115   9.850  12.750
24170SOL     OW74406  14.660   0.029  13.374
24170SOL    HW174407  14.715   0.005  13.299
24170SOL    HW274408  14.662   0.125  13.376
24171SOL     OW74409   1.070   5.254   4.053
24171SOL    HW174410   1.070   5.201   3.972
24171SOL    HW274411   1.044   5.341   4.025
24172SOL     OW74412  12.122   5.597   5.639
24172SOL    HW174413  12.212   5.570   5.661
24172SOL    HW274414  12.120   5.598   5.544
24173SOL     OW74415  11.634   3.553   0.552
24173SOL    HW174416  11.698   3.489   0.583
24173SOL    HW274417  11.627   3.616   0.624
24174SOL     OW74418  13.985   8.046   6.821
24174SOL    HW174419  14.019   7.981   6.882
24174SOL    HW274420  13.906   8.005   6.784
24175SOL     OW74421   6.439  11.749   7.112
24175SOL    HW174422   6.528  11.723   7.135
24175SOL    HW274423   6.385  11.714   7.183
24176SOL     OW74424   5.131   2.470   0.952
24176SOL    HW174425   5.065   2.520   0.903
24176SOL    HW274426   5.118   2.379   0.925
24177SOL     OW74427   2.691   9.952   6.605
24177SOL    HW174428   2.709   9.910   6.689
24177SOL    HW274429   2.596   9.942   6.594
24178SOL     OW74430  10.392  14.778   4.365
24178SOL    HW174431  10.300  14.802   4.365
24178SOL    HW274432  10.439  14.862   4.370
24179SOL     OW74433   8.971   8.548   6.214
24179SOL    HW174434   8.947   8.612   6.147
24179SOL    HW274435   8.932   8.582   6.294
24180SOL     OW74436  10.338   4.501  12.616
24180SOL    HW174437  10.377   4.516  12.701
24180SOL    HW274438  10.279   4.427  12.629
24181SOL     OW74439  10.697   8.088   0.473
24181SOL    HW174440  10.645   8.042   0.407
24181SOL    HW274441  10.785   8.051   0.466
24182SOL     OW74442  13.842   0.639   6.544
24182SOL    HW174443  13.833   0.561   6.489
24182SOL    HW274444  13.856   0.711   6.483
24183SOL     OW74445  10.034  13.120  13.679
24183SOL    HW174446   9.989  13.128  13.595
24183SOL    HW274447  10.119  13.162  13.665
24184SOL     OW74448  13.741   5.622   4.306
24184SOL    HW174449  13.708   5.671   4.381
24184SOL    HW274450  13.754   5.689   4.238
24185SOL     OW74451   2.569  11.181  13.715
24185SOL    HW174452   2.483  11.219  13.729
24185SOL    HW274453   2.626  11.256  13.698
24186SOL     OW74454   1.658  12.298   7.180
24186SOL    HW174455   1.754  12.302   7.177
24186SOL    HW274456   1.636  12.224   7.124
24187SOL     OW74457   4.730   7.233  12.858
24187SOL    HW174458   4.797   7.244  12.791
24187SOL    HW274459   4.688   7.150  12.836
24188SOL     OW74460  13.394   8.377  13.044
24188SOL    HW174461  13.406   8.452  13.103
24188SOL    HW274462  13.337   8.318  13.093
24189SOL     OW74463   4.813   3.686  10.768
24189SOL    HW174464   4.728   3.717  10.801
24189SOL    HW274465   4.793   3.603  10.725
24190SOL     OW74466   8.616  10.735  12.365
24190SOL    HW174467   8.705  10.768  12.375
24190SOL    HW274468   8.621  10.644  12.395
24191SOL     OW74469  12.272   8.721   4.735
24191SOL    HW174470  12.317   8.670   4.667
24191SOL    HW274471  12.258   8.807   4.695
24192SOL     OW74472  11.728  13.265   2.148
24192SOL    HW174473  11.813  13.299   2.176
24192SOL    HW274474  11.743  13.172   2.132
24193SOL     OW74475   9.603   2.442  12.557
24193SOL    HW174476   9.539   2.473  12.622
24193SOL    HW274477   9.576   2.485  12.476
24194SOL     OW74478  13.576   9.556  12.466
24194SOL    HW174479  13.515   9.537  12.537
24194SOL    HW274480  13.555   9.645  12.440
24195SOL     OW74481   0.537  10.494  11.908
24195SOL    HW174482   0.562  10.560  11.972
24195SOL    HW274483   0.614  10.437  11.901
24196SOL     OW74484   7.030   6.037   2.321
24196SOL    HW174485   6.985   6.104   2.373
24196SOL    HW274486   6.977   5.958   2.333
24197SOL     OW74487   7.884   0.166  13.691
24197SOL    HW174488   7.815   0.114  13.732
24197SOL    HW274489   7.946   0.102  13.656
24198SOL     OW74490   6.233   2.590   1.298
24198SOL    HW174491   6.295   2.563   1.230
24198SOL    HW274492   6.263   2.546   1.377
24199SOL     OW74493   8.664  11.277   3.443
24199SOL    HW174494   8.640  11.355   3.392
24199SOL    HW274495   8.753  11.294   3.473
24200SOL     OW74496   9.244  11.176   7.263
24200SOL    HW174497   9.308  11.131   7.208
24200SOL    HW274498   9.164  11.179   7.210
24201SOL     OW74499   0.166   4.276  13.602
24201SOL    HW174500   0.159   4.357  13.651
24201SOL    HW274501   0.250   4.283  13.556
24202SOL     OW74502   4.859  14.468   5.738
24202SOL    HW174503   4.927  14.531   5.711
24202SOL    HW274504   4.876  14.391   5.683
24203SOL     OW74505  14.213   9.995   8.784
24203SOL    HW174506  14.124   9.980   8.750
24203SOL    HW274507  14.204   9.988   8.879
24204SOL     OW74508   7.004  14.148  14.558
24204SOL    HW174509   6.924  14.163  14.508
24204SOL    HW274510   7.070  14.201  14.513
24205SOL     OW74511   0.155   8.806   0.075
24205SOL    HW174512   0.180   8.897   0.093
24205SOL    HW274513   0.147   8.802  14.851
24206SOL     OW74514  14.355  14.643  13.040
24206SOL    HW174515  14.371  14.680  13.127
24206SOL    HW274516  14.260  14.629  13.038
24207SOL     OW74517  11.899   3.580   9.141
24207SOL    HW174518  11.866   3.545   9.058
24207SOL    HW274519  11.933   3.666   9.119
24208SOL     OW74520  13.876   4.548   4.749
24208SOL    HW174521  13.824   4.563   4.670
24208SOL    HW274522  13.850   4.618   4.809
24209SOL     OW74523  12.591  10.183  13.813
24209SOL    HW174524  12.532  10.107  13.807
24209SOL    HW274525  12.532  10.258  13.824
24210SOL     OW74526   2.773  13.508  11.377
24210SOL    HW174527   2.774  13.596  11.339
24210SOL    HW274528   2.864  13.478  11.371
24211SOL     OW74529  11.135  13.889  13.134
24211SOL    HW174530  11.152  13.799  13.164
24211SOL    HW274531  11.053  13.883  13.085
24212SOL     OW74532   8.346   7.534  10.809
24212SOL    HW174533   8.295   7.466  10.764
24212SOL    HW274534   8.312   7.616  10.774
24213SOL     OW74535   0.303  13.418  13.893
24213SOL    HW174536   0.357  13.469  13.954
24213SOL    HW274537   0.366  13.362  13.848
24214SOL     OW74538   4.372  11.119  13.059
24214SOL    HW174539   4.390  11.111  12.965
24214SOL    HW274540   4.279  11.096  13.068
24215SOL     OW74541  12.417   4.737   3.112
24215SOL    HW174542  12.408   4.757   3.205
24215SOL    HW274543  12.392   4.645   3.104
24216SOL     OW74544  13.779   8.207  10.725
24216SOL    HW174545  13.873   8.223  10.715
24216SOL    HW274546  13.753   8.163  10.645
24217SOL     OW74547   6.165  13.457   5.884
24217SOL    HW174548   6.166  13.553   5.878
24217SOL    HW274549   6.225  13.427   5.816
24218SOL     OW74550   8.813   8.438   2.997
24218SOL    HW174551   8.796   8.397   2.912
24218SOL    HW274552   8.826   8.531   2.976
24219SOL     OW74553   1.729   5.515   4.288
24219SOL    HW174554   1.658   5.451   4.283
24219SOL    HW274555   1.802   5.472   4.242
24220SOL     OW74556  12.967   6.377   9.838
24220SOL    HW174557  12.962   6.453   9.895
24220SOL    HW274558  13.044   6.392   9.784
24221SOL     OW74559   5.853   6.951   3.514
24221SOL    HW174560   5.839   7.026   3.572
24221SOL    HW274561   5.777   6.895   3.529
24222SOL     OW74562   1.101   8.125   1.275
24222SOL    HW174563   1.108   8.032   1.295
24222SOL    HW274564   1.023   8.154   1.321
24223SOL     OW74565   9.689   7.566   1.863
24223SOL    HW174566   9.730   7.642   1.822
24223SOL    HW274567   9.755   7.496   1.853
24224SOL     OW74568   3.046   5.887  12.339
24224SOL    HW174569   3.001   5.948  12.397
24224SOL    HW274570   2.980   5.862  12.275
24225SOL     OW74571   8.484   0.691   1.958
24225SOL    HW174572   8.462   0.630   2.028
24225SOL    HW274573   8.411   0.753   1.958
24226SOL     OW74574  11.847   1.381   7.565
24226SOL    HW174575  11.903   1.455   7.587
24226SOL    HW274576  11.781   1.378   7.635
24227SOL     OW74577   6.735   1.445   0.065
24227SOL    HW174578   6.810   1.385   0.073
24227SOL    HW274579   6.772   1.525   0.029
24228SOL     OW74580  11.650  12.001   1.409
24228SOL    HW174581  11.574  11.957   1.447
24228SOL    HW274582  11.663  12.079   1.463
24229SOL     OW74583   9.635  11.235   1.782
24229SOL    HW174584   9.582  11.265   1.857
24229SOL    HW274585   9.570  11.211   1.716
24230SOL     OW74586  11.965   5.317   9.835
24230SOL    HW174587  11.873   5.291   9.830
24230SOL    HW274588  12.005   5.251   9.893
24231SOL     OW74589  13.008   6.778   9.344
24231SOL    HW174590  13.050   6.863   9.357
24231SOL    HW274591  13.080   6.715   9.340
24232SOL     OW74592   5.282   8.321   1.580
24232SOL    HW174593   5.345   8.289   1.515
24232SOL    HW274594   5.222   8.376   1.530
24233SOL     OW74595   4.810  12.491   8.392
24233SOL    HW174596   4.879  12.456   8.335
24233SOL    HW274597   4.847  12.484   8.481
24234SOL     OW74598   4.978   9.127   6.976
24234SOL    HW174599   5.058   9.074   6.968
24234SOL    HW274600   5.002   9.196   7.039
24235SOL     OW74601   4.046   9.463  12.920
24235SOL    HW174602   3.971   9.430  12.970
24235SOL    HW274603   4.117   9.470  12.984
24236SOL     OW74604  13.020   6.387   8.584
24236SOL    HW174605  13.068   6.470   8.585
24236SOL    HW274606  12.928   6.411   8.593
24237SOL     OW74607   3.255   9.207   6.408
24237SOL    HW174608   3.292   9.244   6.487
24237SOL    HW274609   3.160   9.217   6.418
24238SOL     OW74610   1.432   5.567   6.025
24238SOL    HW174611   1.429   5.532   6.115
24238SOL    HW274612   1.384   5.650   6.031
24239SOL     OW74613   2.117  10.921   0.237
24239SOL    HW174614   2.203  10.905   0.277
24239SOL    HW274615   2.094  10.837   0.197
24240SOL     OW74616  14.062  12.148  12.432
24240SOL    HW174617  14.133  12.121  12.490
24240SOL    HW274618  14.105  12.197  12.362
24241SOL     OW74619  11.230   4.837   2.426
24241SOL    HW174620  11.259   4.839   2.517
24241SOL    HW274621  11.158   4.901   2.423
24242SOL     OW74622   0.126   2.907  14.232
24242SOL    HW174623   0.093   2.823  14.203
24242SOL    HW274624   0.101   2.913  14.324
24243SOL     OW74625   3.614   2.877  13.073
24243SOL    HW174626   3.561   2.844  13.000
24243SOL    HW274627   3.667   2.947  13.034
24244SOL     OW74628   4.819  14.019   6.018
24244SOL    HW174629   4.733  14.059   6.004
24244SOL    HW274630   4.857  14.069   6.090
24245SOL     OW74631  13.659   8.230   2.952
24245SOL    HW174632  13.686   8.320   2.968
24245SOL    HW274633  13.568   8.226   2.981
24246SOL     OW74634   9.597   6.974  10.439
24246SOL    HW174635   9.517   7.026  10.432
24246SOL    HW274636   9.668   7.039  10.445
24247SOL     OW74637  13.725   5.413   2.209
24247SOL    HW174638  13.710   5.457   2.125
24247SOL    HW274639  13.651   5.441   2.263
24248SOL     OW74640   0.937   6.207  11.584
24248SOL    HW174641   0.862   6.206  11.525
24248SOL    HW274642   0.939   6.296  11.619
24249SOL     OW74643   2.138   2.469   0.165
24249SOL    HW174644   2.212   2.483   0.224
24249SOL    HW274645   2.093   2.393   0.200
24250SOL     OW74646   2.313  14.312  12.604
24250SOL    HW174647   2.282  14.267  12.682
24250SOL    HW274648   2.293  14.404  12.620
24251SOL     OW74649   5.554   8.158   4.717
24251SOL    HW174650   5.545   8.242   4.762
24251SOL    HW274651   5.507   8.169   4.634
24252SOL     OW74652   3.681  14.593   6.048
24252SOL    HW174653   3.673  14.560   6.137
24252SOL    HW274654   3.625  14.671   6.046
24253SOL     OW74655   7.290  13.377   9.895
24253SOL    HW174656   7.297  13.442   9.964
24253SOL    HW274657   7.372  13.328   9.899
24254SOL     OW74658   4.412  13.093   7.660
24254SOL    HW174659   4.414  13.013   7.608
24254SOL    HW274660   4.320  13.106   7.682
24255SOL     OW74661   4.269   9.182   2.897
24255SOL    HW174662   4.324   9.104   2.898
24255SOL    HW274663   4.316   9.245   2.952
24256SOL     OW74664   8.011   8.904  11.211
24256SOL    HW174665   8.041   8.834  11.269
24256SOL    HW274666   8.076   8.907  11.141
24257SOL     OW74667   2.309   1.326   5.737
24257SOL    HW174668   2.251   1.265   5.782
24257SOL    HW274669   2.302   1.407   5.788
24258SOL     OW74670   6.755  14.201   7.992
24258SOL    HW174671   6.666  14.189   8.027
24258SOL    HW274672   6.770  14.296   8.000
24259SOL     OW74673   1.453  13.567   5.520
24259SOL    HW174674   1.475  13.613   5.601
24259SOL    HW274675   1.492  13.480   5.531
24260SOL     OW74676  14.109   3.104  10.020
24260SOL    HW174677  14.196   3.067  10.037
24260SOL    HW274678  14.102   3.107   9.925
24261SOL     OW74679  13.655  12.618   6.236
24261SOL    HW174680  13.563  12.606   6.215
24261SOL    HW274681  13.694  12.531   6.224
24262SOL     OW74682   1.006  14.043   2.187
24262SOL    HW174683   0.955  14.048   2.106
24262SOL    HW274684   0.941  14.031   2.256
24263SOL     OW74685   7.580   3.533  13.544
24263SOL    HW174686   7.579   3.541  13.449
24263SOL    HW274687   7.658   3.481  13.563
24264SOL     OW74688   7.293  13.490   4.676
24264SOL    HW174689   7.340  13.571   4.697
24264SOL    HW274690   7.302  13.436   4.754
24265SOL     OW74691   3.172  12.285   1.615
24265SOL    HW174692   3.202  12.235   1.690
24265SOL    HW274693   3.077  12.288   1.625
24266SOL     OW74694   4.435   8.657   9.009
24266SOL    HW174695   4.397   8.726   8.956
24266SOL    HW274696   4.528   8.679   9.013
24267SOL     OW74697   7.863  13.184   0.869
24267SOL    HW174698   7.822  13.149   0.790
24267SOL    HW274699   7.871  13.109   0.928
24268SOL     OW74700   2.506   2.579   0.833
24268SOL    HW174701   2.582   2.541   0.788
24268SOL    HW274702   2.543   2.634   0.901
24269SOL     OW74703   6.046   1.441  11.035
24269SOL    HW174704   6.019   1.471  11.122
24269SOL    HW274705   6.027   1.515  10.977
24270SOL     OW74706   9.894   8.995  12.155
24270SOL    HW174707   9.858   9.077  12.189
24270SOL    HW274708   9.913   8.942  12.233
24271SOL     OW74709   7.057   0.662   3.533
24271SOL    HW174710   7.044   0.734   3.595
24271SOL    HW274711   7.038   0.700   3.448
24272SOL     OW74712  13.753   0.161   3.683
24272SOL    HW174713  13.753   0.090   3.747
24272SOL    HW274714  13.805   0.126   3.610
24273SOL     OW74715  11.371   3.883   6.635
24273SOL    HW174716  11.440   3.848   6.690
24273SOL    HW274717  11.388   3.846   6.548
24274SOL     OW74718   8.802   0.345  14.414
24274SOL    HW174719   8.764   0.430  14.391
24274SOL    HW274720   8.880   0.338  14.359
24275SOL     OW74721   5.464   0.781   6.506
24275SOL    HW174722   5.419   0.850   6.458
24275SOL    HW274723   5.557   0.803   6.496
24276SOL     OW74724   0.903   1.338   0.685
24276SOL    HW174725   0.878   1.254   0.648
24276SOL    HW274726   0.960   1.316   0.759
24277SOL     OW74727   1.721   0.436   9.087
24277SOL    HW174728   1.680   0.523   9.088
24277SOL    HW274729   1.735   0.418   8.994
24278SOL     OW74730   9.030   1.234  11.271
24278SOL    HW174731   9.087   1.159  11.253
24278SOL    HW274732   9.089   1.302  11.303
24279SOL     OW74733   3.719   4.970  12.237
24279SOL    HW174734   3.657   5.021  12.185
24279SOL    HW274735   3.777   4.929  12.172
24280SOL     OW74736   9.484  11.610   0.805
24280SOL    HW174737   9.403  11.611   0.754
24280SOL    HW274738   9.516  11.520   0.797
24281SOL     OW74739   4.764   1.857   4.312
24281SOL    HW174740   4.707   1.781   4.327
24281SOL    HW274741   4.802   1.875   4.398
24282SOL     OW74742   2.716   8.517  10.406
24282SOL    HW174743   2.741   8.558  10.323
24282SOL    HW274744   2.663   8.583  10.451
24283SOL     OW74745   0.090   1.805  14.593
24283SOL    HW174746   0.164   1.747  14.614
24283SOL    HW274747   0.067   1.783  14.503
24284SOL     OW74748   4.432  12.057   6.414
24284SOL    HW174749   4.389  12.031   6.332
24284SOL    HW274750   4.359  12.082   6.472
24285SOL     OW74751  12.208   6.865   2.846
24285SOL    HW174752  12.205   6.925   2.921
24285SOL    HW274753  12.206   6.778   2.885
24286SOL     OW74754   2.972   4.393  11.814
24286SOL    HW174755   3.038   4.429  11.755
24286SOL    HW274756   3.005   4.411  11.902
24287SOL     OW74757   9.835   1.872  10.690
24287SOL    HW174758   9.858   1.865  10.597
24287SOL    HW274759   9.888   1.804  10.732
24288SOL     OW74760   7.211   7.239   0.022
24288SOL    HW174761   7.141   7.183  14.860
24288SOL    HW274762   7.292   7.195  14.865
24289SOL     OW74763   7.386   0.642   9.790
24289SOL    HW174764   7.435   0.706   9.841
24289SOL    HW274765   7.453   0.596   9.738
24290SOL     OW74766   5.816   2.675   1.239
24290SOL    HW174767   5.873   2.653   1.313
24290SOL    HW274768   5.747   2.609   1.241
24291SOL     OW74769   8.921  11.676  11.031
24291SOL    HW174770   8.833  11.653  11.000
24291SOL    HW274771   8.942  11.757  10.985
24292SOL     OW74772   9.062  11.567  14.762
24292SOL    HW174773   8.981  11.618  14.757
24292SOL    HW274774   9.119  11.606  14.696
24293SOL     OW74775   4.836   9.525   6.200
24293SOL    HW174776   4.901   9.514   6.269
24293SOL    HW274777   4.757   9.554   6.245
24294SOL     OW74778   7.290   4.674   2.564
24294SOL    HW174779   7.364   4.623   2.531
24294SOL    HW274780   7.221   4.661   2.499
24295SOL     OW74781   3.472   2.775   1.897
24295SOL    HW174782   3.561   2.781   1.931
24295SOL    HW274783   3.451   2.681   1.900
24296SOL     OW74784  10.947   4.099  11.478
24296SOL    HW174785  10.935   4.138  11.565
24296SOL    HW274786  10.886   4.026  11.476
24297SOL     OW74787   0.989  11.366   8.589
24297SOL    HW174788   0.975  11.393   8.679
24297SOL    HW274789   0.995  11.271   8.592
24298SOL     OW74790  13.386  13.476   3.000
24298SOL    HW174791  13.321  13.546   2.996
24298SOL    HW274792  13.358  13.412   2.934
24299SOL     OW74793   6.194   4.409   0.861
24299SOL    HW174794   6.168   4.389   0.771
24299SOL    HW274795   6.188   4.504   0.867
24300SOL     OW74796   9.406  13.952   3.326
24300SOL    HW174797   9.322  13.907   3.334
24300SOL    HW274798   9.400  13.997   3.241
24301SOL     OW74799  10.913   3.613  13.350
24301SOL    HW174800  10.818   3.601  13.349
24301SOL    HW274801  10.926   3.708  13.350
24302SOL     OW74802  13.709   8.527   1.611
24302SOL    HW174803  13.732   8.580   1.535
24302SOL    HW274804  13.714   8.587   1.685
24303SOL     OW74805  10.398   3.841   9.445
24303SOL    HW174806  10.412   3.757   9.488
24303SOL    HW274807  10.334   3.886   9.501
24304SOL     OW74808   8.374   7.062   1.094
24304SOL    HW174809   8.299   7.054   1.035
24304SOL    HW274810   8.446   7.019   1.047
24305SOL     OW74811  11.700   4.348   1.810
24305SOL    HW174812  11.639   4.307   1.872
24305SOL    HW274813  11.773   4.286   1.805
24306SOL     OW74814  13.071   7.516   6.019
24306SOL    HW174815  13.019   7.536   5.941
24306SOL    HW274816  13.012   7.531   6.093
24307SOL     OW74817   6.131   1.947  13.046
24307SOL    HW174818   6.208   2.003  13.031
24307SOL    HW274819   6.079   1.996  13.110
24308SOL     OW74820  10.830   8.301   2.214
24308SOL    HW174821  10.742   8.286   2.250
24308SOL    HW274822  10.889   8.259   2.276
24309SOL     OW74823   9.267  11.930   8.124
24309SOL    HW174824   9.294  11.987   8.053
24309SOL    HW274825   9.266  11.842   8.085
24310SOL     OW74826   0.565   1.667   9.001
24310SOL    HW174827   0.564   1.682   8.907
24310SOL    HW274828   0.658   1.658   9.023
24311SOL     OW74829  14.023   3.737   2.305
24311SOL    HW174830  13.940   3.689   2.298
24311SOL    HW274831  14.085   3.672   2.338
24312SOL     OW74832  14.216   3.278  13.020
24312SOL    HW174833  14.229   3.187  12.992
24312SOL    HW274834  14.233   3.276  13.114
24313SOL     OW74835   4.342   0.116   2.839
24313SOL    HW174836   4.374   0.187   2.783
24313SOL    HW274837   4.360   0.036   2.789
24314SOL     OW74838   6.534   1.985   4.776
24314SOL    HW174839   6.449   2.024   4.757
24314SOL    HW274840   6.531   1.898   4.738
24315SOL     OW74841  12.578  10.703   7.996
24315SOL    HW174842  12.612  10.697   7.907
24315SOL    HW274843  12.550  10.794   8.005
24316SOL     OW74844  12.655   7.766  12.866
24316SOL    HW174845  12.710   7.764  12.787
24316SOL    HW274846  12.639   7.859  12.881
24317SOL     OW74847  10.418   6.691   6.518
24317SOL    HW174848  10.496   6.649   6.480
24317SOL    HW274849  10.344   6.643   6.480
24318SOL     OW74850   2.633  11.351  11.720
24318SOL    HW174851   2.689  11.421  11.686
24318SOL    HW274852   2.596  11.310  11.642
24319SOL     OW74853   6.461   4.842   8.379
24319SOL    HW174854   6.508   4.924   8.361
24319SOL    HW274855   6.501   4.809   8.459
24320SOL     OW74856   1.095  13.097  14.117
24320SOL    HW174857   1.069  13.118  14.206
24320SOL    HW274858   1.106  13.002  14.116
24321SOL     OW74859   7.142   7.149  10.462
24321SOL    HW174860   7.134   7.131  10.368
24321SOL    HW274861   7.057   7.185  10.486
24322SOL     OW74862   6.023   8.855  14.407
24322SOL    HW174863   6.095   8.834  14.467
24322SOL    HW274864   6.003   8.772  14.365
24323SOL     OW74865  12.182   0.642  14.553
24323SOL    HW174866  12.249   0.706  14.578
24323SOL    HW274867  12.108   0.695  14.523
24324SOL     OW74868  14.350   5.316   2.383
24324SOL    HW174869  14.266   5.346   2.349
24324SOL    HW274870  14.329   5.269   2.464
24325SOL     OW74871   7.534   8.793  10.358
24325SOL    HW174872   7.609   8.786  10.417
24325SOL    HW274873   7.558   8.742  10.281
24326SOL     OW74874   8.821   9.053  12.380
24326SOL    HW174875   8.799   9.105  12.303
24326SOL    HW274876   8.769   8.972  12.370
24327SOL     OW74877  12.999   3.555   7.747
24327SOL    HW174878  13.071   3.618   7.760
24327SOL    HW274879  12.967   3.575   7.659
24328SOL     OW74880  11.519   7.735   5.872
24328SOL    HW174881  11.486   7.773   5.791
24328SOL    HW274882  11.445   7.742   5.933
24329SOL     OW74883   8.026   3.813   4.864
24329SOL    HW174884   8.042   3.821   4.958
24329SOL    HW274885   8.102   3.857   4.824
24330SOL     OW74886   0.299   7.284   3.948
24330SOL    HW174887   0.390   7.270   3.923
24330SOL    HW274888   0.284   7.223   4.021
24331SOL     OW74889   6.661   5.425   8.682
24331SOL    HW174890   6.712   5.370   8.742
24331SOL    HW274891   6.726   5.484   8.643
24332SOL     OW74892   2.352  12.966   9.446
24332SOL    HW174893   2.348  12.878   9.484
24332SOL    HW274894   2.273  12.973   9.393
24333SOL     OW74895   5.351   5.243   6.609
24333SOL    HW174896   5.412   5.222   6.679
24333SOL    HW274897   5.343   5.339   6.612
24334SOL     OW74898  14.398   8.187   8.336
24334SOL    HW174899  14.481   8.200   8.288
24334SOL    HW274900  14.411   8.106   8.385
24335SOL     OW74901   6.683   7.017  12.868
24335SOL    HW174902   6.659   7.050  12.781
24335SOL    HW274903   6.669   7.091  12.927
24336SOL     OW74904   3.505  12.172   3.367
24336SOL    HW174905   3.528  12.260   3.397
24336SOL    HW274906   3.520  12.117   3.444
24337SOL     OW74907   8.716  12.284   6.729
24337SOL    HW174908   8.727  12.189   6.735
24337SOL    HW274909   8.780  12.319   6.791
24338SOL     OW74910  11.045  12.801   9.346
24338SOL    HW174911  11.095  12.737   9.296
24338SOL    HW274912  11.107  12.836   9.410
24339SOL     OW74913   8.778   6.721   9.016
24339SOL    HW174914   8.726   6.681   9.085
24339SOL    HW274915   8.749   6.677   8.936
24340SOL     OW74916  13.822  10.834  13.037
24340SOL    HW174917  13.820  10.914  12.984
24340SOL    HW274918  13.834  10.866  13.126
24341SOL     OW74919  12.192   3.729   4.348
24341SOL    HW174920  12.268   3.671   4.355
24341SOL    HW274921  12.219   3.809   4.393
24342SOL     OW74922  13.547   3.967   3.549
24342SOL    HW174923  13.478   4.003   3.493
24342SOL    HW274924  13.524   3.995   3.637
24343SOL     OW74925   0.996   6.927   9.363
24343SOL    HW174926   1.044   6.895   9.440
24343SOL    HW274927   1.038   6.883   9.289
24344SOL     OW74928   0.930   1.143   9.874
24344SOL    HW174929   1.017   1.106   9.887
24344SOL    HW274930   0.877   1.069   9.843
24345SOL     OW74931   8.342  11.337   5.463
24345SOL    HW174932   8.267  11.299   5.417
24345SOL    HW274933   8.391  11.383   5.396
24346SOL     OW74934   9.974   4.242   2.923
24346SOL    HW174935   9.995   4.203   2.838
24346SOL    HW274936   9.913   4.180   2.963
24347SOL     OW74937  10.508   4.934   0.593
24347SOL    HW174938  10.492   5.017   0.547
24347SOL    HW274939  10.523   4.960   0.684
24348SOL     OW74940   7.141   3.476  12.342
24348SOL    HW174941   7.065   3.474  12.283
24348SOL    HW274942   7.185   3.393  12.327
24349SOL     OW74943   7.124   2.371   3.783
24349SOL    HW174944   7.034   2.353   3.756
24349SOL    HW274945   7.118   2.451   3.835
24350SOL     OW74946   3.304  14.617  12.637
24350SOL    HW174947   3.220  14.657  12.617
24350SOL    HW274948   3.369  14.678  12.602
24351SOL     OW74949   2.545   8.681   1.873
24351SOL    HW174950   2.498   8.613   1.825
24351SOL    HW274951   2.637   8.667   1.851
24352SOL     OW74952   4.650   4.218   3.103
24352SOL    HW174953   4.594   4.261   3.038
24352SOL    HW274954   4.589   4.184   3.169
24353SOL     OW74955   3.814  12.452   7.616
24353SOL    HW174956   3.855  12.467   7.701
24353SOL    HW274957   3.879  12.483   7.553
24354SOL     OW74958  12.054  12.174   0.058
24354SOL    HW174959  12.029  12.264   0.037
24354SOL    HW274960  12.126  12.154  14.871
24355SOL     OW74961   2.196  11.106   2.135
24355SOL    HW174962   2.272  11.079   2.186
24355SOL    HW274963   2.149  11.025   2.117
24356SOL     OW74964   7.261   1.617   4.887
24356SOL    HW174965   7.342   1.664   4.867
24356SOL    HW274966   7.288   1.527   4.900
24357SOL     OW74967  10.488   2.089   7.761
24357SOL    HW174968  10.576   2.122   7.745
24357SOL    HW274969  10.500   1.995   7.778
24358SOL     OW74970   7.786   5.444  14.285
24358SOL    HW174971   7.832   5.470  14.365
24358SOL    HW274972   7.840   5.479  14.214
24359SOL     OW74973  12.841  12.652   5.685
24359SOL    HW174974  12.760  12.647   5.736
24359SOL    HW274975  12.907  12.679   5.748
24360SOL     OW74976   2.150   2.209   2.067
24360SOL    HW174977   2.218   2.274   2.086
24360SOL    HW274978   2.124   2.226   1.977
24361SOL     OW74979   9.112  12.150   8.759
24361SOL    HW174980   9.175  12.214   8.727
24361SOL    HW274981   9.126  12.073   8.703
24362SOL     OW74982  10.767   2.253   1.125
24362SOL    HW174983  10.682   2.219   1.097
24362SOL    HW274984  10.756   2.271   1.218
24363SOL     OW74985   5.586   7.281  12.631
24363SOL    HW174986   5.527   7.223  12.583
24363SOL    HW274987   5.626   7.336  12.563
24364SOL     OW74988  11.998  11.533  14.791
24364SOL    HW174989  12.042  11.466  14.844
24364SOL    HW274990  11.995  11.496  14.703
24365SOL     OW74991  11.967   0.157  11.355
24365SOL    HW174992  11.953   0.062  11.346
24365SOL    HW274993  11.914   0.181  11.432
24366SOL     OW74994   0.798   7.115   7.267
24366SOL    HW174995   0.849   7.157   7.336
24366SOL    HW274996   0.730   7.178   7.244
24367SOL     OW74997   7.674   0.433   7.696
24367SOL    HW174998   7.743   0.446   7.761
24367SOL    HW274999   7.596   0.412   7.748
24368SOL     OW75000   9.126   2.513  11.365
24368SOL    HW175001   9.168   2.599  11.374
24368SOL    HW275002   9.091   2.512  11.276
24369SOL     OW75003   8.429   0.422  14.220
24369SOL    HW175004   8.400   0.331  14.232
24369SOL    HW275005   8.349   0.472  14.213
24370SOL     OW75006   1.867   2.970   8.646
24370SOL    HW175007   1.824   2.897   8.689
24370SOL    HW275008   1.944   2.932   8.604
24371SOL     OW75009   1.599   2.034   7.776
24371SOL    HW175010   1.567   2.122   7.759
24371SOL    HW275011   1.686   2.032   7.735
24372SOL     OW75012  13.761   1.275   6.375
24372SOL    HW175013  13.805   1.283   6.460
24372SOL    HW275014  13.726   1.186   6.375
24373SOL     OW75015   9.976  11.295   7.493
24373SOL    HW175016   9.993  11.243   7.571
24373SOL    HW275017   9.948  11.380   7.526
24374SOL     OW75018  14.386  14.795   6.264
24374SOL    HW175019  14.392   0.015   6.290
24374SOL    HW275020  14.303  14.765   6.303
24375SOL     OW75021   8.382  10.886   5.155
24375SOL    HW175022   8.440  10.907   5.082
24375SOL    HW275023   8.436  10.898   5.233
24376SOL     OW75024   2.420   4.991  14.642
24376SOL    HW175025   2.425   5.047  14.719
24376SOL    HW275026   2.339   4.941  14.653
24377SOL     OW75027   8.653   8.855   5.227
24377SOL    HW175028   8.676   8.931   5.279
24377SOL    HW275029   8.558   8.861   5.217
24378SOL     OW75030  12.158   4.760   9.569
24378SOL    HW175031  12.150   4.712   9.652
24378SOL    HW275032  12.186   4.694   9.506
24379SOL     OW75033   9.168   8.999   9.131
24379SOL    HW175034   9.208   9.080   9.102
24379SOL    HW275035   9.090   8.990   9.076
24380SOL     OW75036   9.094   9.060  12.393
24380SOL    HW175037   9.120   9.083  12.482
24380SOL    HW275038   8.999   9.074  12.391
24381SOL     OW75039   0.348   0.758  10.042
24381SOL    HW175040   0.315   0.773   9.953
24381SOL    HW275041   0.319   0.669  10.063
24382SOL     OW75042   6.017  11.230   5.199
24382SOL    HW175043   5.983  11.312   5.165
24382SOL    HW275044   6.051  11.252   5.286
24383SOL     OW75045   8.448   7.744   0.949
24383SOL    HW175046   8.448   7.742   0.853
24383SOL    HW275047   8.540   7.731   0.973
24384SOL     OW75048  14.686  12.641  12.407
24384SOL    HW175049  14.664  12.609  12.494
24384SOL    HW275050  14.631  12.590  12.348
24385SOL     OW75051   1.758  11.505   0.644
24385SOL    HW175052   1.847  11.534   0.662
24385SOL    HW275053   1.754  11.417   0.681
24386SOL     OW75054  11.939   0.190  12.993
24386SOL    HW175055  11.977   0.104  12.977
24386SOL    HW275056  11.845   0.174  12.997
24387SOL     OW75057   6.756   1.354   2.294
24387SOL    HW175058   6.830   1.362   2.234
24387SOL    HW275059   6.786   1.398   2.374
24388SOL     OW75060   1.608   8.140   3.188
24388SOL    HW175061   1.531   8.171   3.237
24388SOL    HW275062   1.659   8.092   3.253
24389SOL     OW75063   5.439   2.935   1.249
24389SOL    HW175064   5.348   2.905   1.247
24389SOL    HW275065   5.463   2.929   1.341
24390SOL     OW75066   2.115   4.474   9.519
24390SOL    HW175067   2.059   4.487   9.442
24390SOL    HW275068   2.175   4.404   9.493
24391SOL     OW75069  11.103   2.630   9.053
24391SOL    HW175070  11.121   2.667   9.139
24391SOL    HW275071  11.040   2.560   9.070
24392SOL     OW75072   2.461  13.232   5.137
24392SOL    HW175073   2.379  13.275   5.115
24392SOL    HW275074   2.496  13.202   5.053
24393SOL     OW75075   7.189  11.455   4.308
24393SOL    HW175076   7.236  11.533   4.336
24393SOL    HW275077   7.114  11.487   4.258
24394SOL     OW75078  10.250  12.593  12.403
24394SOL    HW175079  10.246  12.533  12.328
24394SOL    HW275080  10.340  12.624  12.404
24395SOL     OW75081  12.960   7.099   2.966
24395SOL    HW175082  12.907   7.028   2.931
24395SOL    HW275083  12.932   7.107   3.058
24396SOL     OW75084   2.972   5.051   9.315
24396SOL    HW175085   3.039   5.016   9.257
24396SOL    HW275086   3.007   5.134   9.347
24397SOL     OW75087   0.486   9.748  14.555
24397SOL    HW175088   0.580   9.739  14.540
24397SOL    HW275089   0.461   9.824  14.504
24398SOL     OW75090  14.129   6.523   1.378
24398SOL    HW175091  14.132   6.445   1.433
24398SOL    HW275092  14.036   6.548   1.377
24399SOL     OW75093  11.056   4.755   0.727
24399SOL    HW175094  10.983   4.694   0.738
24399SOL    HW275095  11.092   4.735   0.640
24400SOL     OW75096  12.387   3.982  13.007
24400SOL    HW175097  12.480   3.978  13.027
24400SOL    HW275098  12.375   3.925  12.931
24401SOL     OW75099   1.476   4.028  10.630
24401SOL    HW175100   1.474   3.935  10.609
24401SOL    HW275101   1.408   4.039  10.697
24402SOL     OW75102   8.273   1.304  13.387
24402SOL    HW175103   8.272   1.303  13.291
24402SOL    HW275104   8.304   1.392  13.409
24403SOL     OW75105  13.131  11.629   5.078
24403SOL    HW175106  13.179  11.573   5.140
24403SOL    HW275107  13.197  11.690   5.045
24404SOL     OW75108   9.544   2.431   6.668
24404SOL    HW175109   9.539   2.361   6.602
24404SOL    HW275110   9.614   2.488   6.637
24405SOL     OW75111  14.078  12.777   6.018
24405SOL    HW175112  14.006  12.720   6.044
24405SOL    HW275113  14.076  12.777   5.923
24406SOL     OW75114   9.184  14.206  12.667
24406SOL    HW175115   9.120  14.222  12.598
24406SOL    HW275116   9.154  14.259  12.741
24407SOL     OW75117  14.233   9.256   9.301
24407SOL    HW175118  14.185   9.184   9.259
24407SOL    HW275119  14.319   9.255   9.259
24408SOL     OW75120  13.220  14.707   0.294
24408SOL    HW175121  13.234  14.775   0.228
24408SOL    HW275122  13.221  14.755   0.377
24409SOL     OW75123   8.678   8.015   0.065
24409SOL    HW175124   8.650   8.029  14.846
24409SOL    HW275125   8.696   8.103   0.098
24410SOL     OW75126   4.149  14.155   1.615
24410SOL    HW175127   4.229  14.199   1.644
24410SOL    HW275128   4.102  14.220   1.563
24411SOL     OW75129   2.894   2.955   7.564
24411SOL    HW175130   2.862   3.032   7.610
24411SOL    HW275131   2.907   2.890   7.632
24412SOL     OW75132   8.599   2.003   3.180
24412SOL    HW175133   8.675   2.058   3.200
24412SOL    HW275134   8.606   1.984   3.087
24413SOL     OW75135  12.989   7.068   6.097
24413SOL    HW175136  13.003   6.983   6.055
24413SOL    HW275137  13.043   7.129   6.046
24414SOL     OW75138  13.471   3.004   9.710
24414SOL    HW175139  13.449   3.078   9.653
24414SOL    HW275140  13.387   2.967   9.736
24415SOL     OW75141   5.331  13.990   3.606
24415SOL    HW175142   5.318  13.925   3.536
24415SOL    HW275143   5.389  13.947   3.669
24416SOL     OW75144   3.415   2.517   1.786
24416SOL    HW175145   3.322   2.507   1.767
24416SOL    HW275146   3.443   2.430   1.816
24417SOL     OW75147   8.164  10.471  14.707
24417SOL    HW175148   8.080  10.512  14.727
24417SOL    HW275149   8.140  10.388  14.666
24418SOL     OW75150   4.707  12.361  10.693
24418SOL    HW175151   4.749  12.303  10.631
24418SOL    HW275152   4.690  12.441  10.643
24419SOL     OW75153  10.343  11.837   9.172
24419SOL    HW175154  10.269  11.813   9.118
24419SOL    HW275155  10.337  11.780   9.248
24420SOL     OW75156   4.041   5.366   0.878
24420SOL    HW175157   4.095   5.294   0.913
24420SOL    HW275158   4.104   5.422   0.832
24421SOL     OW75159   1.642  14.530   4.910
24421SOL    HW175160   1.556  14.559   4.942
24421SOL    HW275161   1.700  14.604   4.927
24422SOL     OW75162   4.165  11.479   7.743
24422SOL    HW175163   4.238  11.429   7.780
24422SOL    HW275164   4.180  11.569   7.775
24423SOL     OW75165   9.185  12.314  12.594
24423SOL    HW175166   9.263  12.338  12.543
24423SOL    HW275167   9.201  12.350  12.681
24424SOL     OW75168   7.409   1.253  14.825
24424SOL    HW175169   7.369   1.275   0.038
24424SOL    HW275170   7.468   1.327  14.807
24425SOL     OW75171   6.320   1.297  11.281
24425SOL    HW175172   6.402   1.252  11.299
24425SOL    HW275173   6.308   1.355  11.357
24426SOL     OW75174   5.772  10.570   6.722
24426SOL    HW175175   5.850  10.624   6.728
24426SOL    HW275176   5.729  10.598   6.641
24427SOL     OW75177  12.392   4.125  13.265
24427SOL    HW175178  12.331   4.095  13.332
24427SOL    HW275179  12.357   4.092  13.183
24428SOL     OW75180   2.621  13.110   0.800
24428SOL    HW175181   2.571  13.181   0.841
24428SOL    HW275182   2.684  13.154   0.743
24429SOL     OW75183   8.275   4.509  13.886
24429SOL    HW175184   8.191   4.462  13.878
24429SOL    HW275185   8.337   4.454  13.838
24430SOL     OW75186   6.745   2.163   3.259
24430SOL    HW175187   6.787   2.171   3.345
24430SOL    HW275188   6.801   2.101   3.212
24431SOL     OW75189   1.039   7.675   8.127
24431SOL    HW175190   1.096   7.602   8.151
24431SOL    HW275191   1.052   7.740   8.197
24432SOL     OW75192   8.759   2.833   5.567
24432SOL    HW175193   8.728   2.908   5.516
24432SOL    HW275194   8.686   2.811   5.624
24433SOL     OW75195  10.785   5.249   8.067
24433SOL    HW175196  10.723   5.194   8.114
24433SOL    HW275197  10.733   5.324   8.038
24434SOL     OW75198   7.005   1.891   3.846
24434SOL    HW175199   7.013   1.968   3.902
24434SOL    HW275200   7.024   1.924   3.758
24435SOL     OW75201  10.629   2.847  11.618
24435SOL    HW175202  10.703   2.806  11.574
24435SOL    HW275203  10.664   2.876  11.702
24436SOL     OW75204   8.733  12.358  11.560
24436SOL    HW175205   8.669  12.300  11.602
24436SOL    HW275206   8.780  12.302  11.499
24437SOL     OW75207   4.696   3.761   2.668
24437SOL    HW175208   4.702   3.830   2.733
24437SOL    HW275209   4.619   3.784   2.616
24438SOL     OW75210  11.188   4.611   4.729
24438SOL    HW175211  11.195   4.677   4.798
24438SOL    HW275212  11.095   4.608   4.708
24439SOL     OW75213   5.504  10.829  13.919
24439SOL    HW175214   5.416  10.816  13.886
24439SOL    HW275215   5.542  10.894  13.861
24440SOL     OW75216   2.871   1.826  11.592
24440SOL    HW175217   2.939   1.791  11.650
24440SOL    HW275218   2.877   1.921  11.603
24441SOL     OW75219   9.023   5.214  10.523
24441SOL    HW175220   9.058   5.137  10.477
24441SOL    HW275221   9.095   5.243  10.578
24442SOL     OW75222   2.261  12.079   0.793
24442SOL    HW175223   2.262  12.162   0.842
24442SOL    HW275224   2.349  12.074   0.755
24443SOL     OW75225   2.124  11.017  11.016
24443SOL    HW175226   2.085  10.940  10.975
24443SOL    HW275227   2.217  11.009  10.998
24444SOL     OW75228  14.578   4.073   2.607
24444SOL    HW175229  14.575   4.109   2.518
24444SOL    HW275230  14.504   4.013   2.611
24445SOL     OW75231   4.814   3.517  13.878
24445SOL    HW175232   4.893   3.570  13.870
24445SOL    HW275233   4.756   3.569  13.933
24446SOL     OW75234   2.026   3.439   3.277
24446SOL    HW175235   2.001   3.362   3.330
24446SOL    HW275236   2.011   3.513   3.335
24447SOL     OW75237   7.941   4.540   9.689
24447SOL    HW175238   8.017   4.492   9.720
24447SOL    HW275239   7.969   4.631   9.683
24448SOL     OW75240   5.274   5.652   0.068
24448SOL    HW175241   5.196   5.625   0.020
24448SOL    HW275242   5.241   5.698   0.145
24449SOL     OW75243   8.860  14.064   6.652
24449SOL    HW175244   8.932  14.123   6.673
24449SOL    HW275245   8.887  13.979   6.687
24450SOL     OW75246   2.675  12.087  10.861
24450SOL    HW175247   2.697  12.109  10.770
24450SOL    HW275248   2.703  11.996  10.871
24451SOL     OW75249   4.975   9.648   1.357
24451SOL    HW175250   4.978   9.608   1.270
24451SOL    HW275251   4.885   9.679   1.365
24452SOL     OW75252  14.850   2.514  12.771
24452SOL    HW175253   0.067   2.479  12.781
24452SOL    HW275254  14.793   2.439  12.788
24453SOL     OW75255  11.041   9.983   7.988
24453SOL    HW175256  11.056   9.995   7.895
24453SOL    HW275257  11.124   9.949   8.022
24454SOL     OW75258   5.494   0.125   2.697
24454SOL    HW175259   5.582   0.089   2.695
24454SOL    HW275260   5.462   0.105   2.785
24455SOL     OW75261   6.602   6.456   3.329
24455SOL    HW175262   6.580   6.539   3.287
24455SOL    HW275263   6.696   6.444   3.312
24456SOL     OW75264   3.860  13.630  11.507
24456SOL    HW175265   3.886  13.717  11.476
24456SOL    HW275266   3.924  13.609  11.575
24457SOL     OW75267   4.960  11.730   5.528
24457SOL    HW175268   4.882  11.724   5.583
24457SOL    HW275269   5.027  11.766   5.586
24458SOL     OW75270   8.389   7.219   4.764
24458SOL    HW175271   8.374   7.205   4.858
24458SOL    HW275272   8.375   7.312   4.752
24459SOL     OW75273  12.129   0.882   6.374
24459SOL    HW175274  12.088   0.796   6.359
24459SOL    HW275275  12.117   0.898   6.467
24460SOL     OW75276   3.793   0.639   1.143
24460SOL    HW175277   3.861   0.626   1.209
24460SOL    HW275278   3.842   0.656   1.062
24461SOL     OW75279   0.715   8.002   2.388
24461SOL    HW175280   0.686   8.073   2.329
24461SOL    HW275281   0.809   8.015   2.397
24462SOL     OW75282   4.483  14.306   0.316
24462SOL    HW175283   4.494  14.353   0.233
24462SOL    HW275284   4.570  14.269   0.334
24463SOL     OW75285  13.942   3.329   9.285
24463SOL    HW175286  13.994   3.249   9.284
24463SOL    HW275287  13.900   3.330   9.371
24464SOL     OW75288   6.656   9.051  12.418
24464SOL    HW175289   6.714   9.070  12.492
24464SOL    HW275290   6.627   8.961  12.433
24465SOL     OW75291   2.842   5.833   8.210
24465SOL    HW175292   2.925   5.872   8.182
24465SOL    HW275293   2.842   5.843   8.305
24466SOL     OW75294  12.718   8.082   2.774
24466SOL    HW175295  12.652   8.057   2.709
24466SOL    HW275296  12.720   8.009   2.835
24467SOL     OW75297  12.754  14.693   6.470
24467SOL    HW175298  12.713  14.689   6.557
24467SOL    HW275299  12.682  14.672   6.409
24468SOL     OW75300   8.078   0.533   1.436
24468SOL    HW175301   8.035   0.558   1.354
24468SOL    HW275302   8.169   0.557   1.424
24469SOL     OW75303   6.929   1.804  12.958
24469SOL    HW175304   6.869   1.876  12.974
24469SOL    HW275305   7.005   1.823  13.013
24470SOL     OW75306  11.541  13.691   5.648
24470SOL    HW175307  11.520  13.625   5.713
24470SOL    HW275308  11.566  13.641   5.570
24471SOL     OW75309  11.440  12.532   1.035
24471SOL    HW175310  11.412  12.559   0.947
24471SOL    HW275311  11.536  12.536   1.032
24472SOL     OW75312   6.567   0.895  14.709
24472SOL    HW175313   6.497   0.853  14.760
24472SOL    HW275314   6.532   0.900  14.620
24473SOL     OW75315   4.795   0.497  11.556
24473SOL    HW175316   4.803   0.573  11.498
24473SOL    HW275317   4.870   0.504  11.615
24474SOL     OW75318   9.931   4.979  14.441
24474SOL    HW175319  10.006   5.003  14.495
24474SOL    HW275320   9.858   4.972  14.502
24475SOL     OW75321   1.534   5.769   0.166
24475SOL    HW175322   1.546   5.686   0.212
24475SOL    HW275323   1.447   5.798   0.191
24476SOL     OW75324   0.199  13.630   2.910
24476SOL    HW175325   0.273  13.605   2.965
24476SOL    HW275326   0.128  13.648   2.973
24477SOL     OW75327  14.658  10.188  13.353
24477SOL    HW175328  14.675  10.182  13.259
24477SOL    HW275329  14.715  10.259  13.383
24478SOL     OW75330   2.114   7.145   6.667
24478SOL    HW175331   2.060   7.175   6.594
24478SOL    HW275332   2.184   7.210   6.673
24479SOL     OW75333   7.663  10.632   9.841
24479SOL    HW175334   7.569  10.616   9.837
24479SOL    HW275335   7.690  10.601   9.927
24480SOL     OW75336  11.985   9.220   7.799
24480SOL    HW175337  11.929   9.234   7.876
24480SOL    HW275338  12.032   9.302   7.789
24481SOL     OW75339   9.994   7.732  13.635
24481SOL    HW175340  10.002   7.637  13.638
24481SOL    HW275341  10.047   7.764  13.707
24482SOL     OW75342   0.057   3.804   0.724
24482SOL    HW175343  14.859   3.739   0.734
24482SOL    HW275344   0.057   3.827   0.632
24483SOL     OW75345   4.500  13.503   6.944
24483SOL    HW175346   4.472  13.461   6.862
24483SOL    HW275347   4.454  13.587   6.945
24484SOL     OW75348   9.761   9.303  11.001
24484SOL    HW175349   9.839   9.253  11.024
24484SOL    HW275350   9.688   9.245  11.021
24485SOL     OW75351  11.869   8.148  12.107
24485SOL    HW175352  11.895   8.240  12.107
24485SOL    HW275353  11.937   8.104  12.056
24486SOL     OW75354  13.722   8.832   5.987
24486SOL    HW175355  13.637   8.832   5.944
24486SOL    HW275356  13.742   8.924   6.002
24487SOL     OW75357   7.373   9.352   7.237
24487SOL    HW175358   7.430   9.348   7.314
24487SOL    HW275359   7.296   9.302   7.261
24488SOL     OW75360   3.705   9.885   3.277
24488SOL    HW175361   3.800   9.888   3.270
24488SOL    HW275362   3.677   9.976   3.264
24489SOL     OW75363   1.180   2.603  12.361
24489SOL    HW175364   1.170   2.510  12.384
24489SOL    HW275365   1.204   2.602  12.268
24490SOL     OW75366   5.258   1.265   1.497
24490SOL    HW175367   5.301   1.277   1.412
24490SOL    HW275368   5.324   1.291   1.561
24491SOL     OW75369   0.594   9.073   3.365
24491SOL    HW175370   0.570   8.986   3.334
24491SOL    HW275371   0.588   9.066   3.460
24492SOL     OW75372  11.749   0.320   2.578
24492SOL    HW175373  11.713   0.247   2.628
24492SOL    HW275374  11.798   0.279   2.507
24493SOL     OW75375  11.163  13.820   2.957
24493SOL    HW175376  11.254  13.844   2.943
24493SOL    HW275377  11.155  13.732   2.920
24494SOL     OW75378  10.977  12.807   8.093
24494SOL    HW175379  10.949  12.899   8.090
24494SOL    HW275380  10.986  12.789   8.187
24495SOL     OW75381  10.049   4.010   5.814
24495SOL    HW175382  10.012   4.077   5.756
24495SOL    HW275383  10.015   4.031   5.900
24496SOL     OW75384   1.620   8.214  11.135
24496SOL    HW175385   1.626   8.129  11.093
24496SOL    HW275386   1.687   8.267  11.091
24497SOL     OW75387  11.763   7.773   3.748
24497SOL    HW175388  11.760   7.823   3.830
24497SOL    HW275389  11.785   7.838   3.682
24498SOL     OW75390   9.256   7.692  10.068
24498SOL    HW175391   9.253   7.625  10.137
24498SOL    HW275392   9.347   7.695  10.040
24499SOL     OW75393  11.242   0.092  13.600
24499SOL    HW175394  11.322   0.073  13.649
24499SOL    HW275395  11.261   0.175  13.557
24500SOL     OW75396   5.830   2.501   2.917
24500SOL    HW175397   5.878   2.457   2.987
24500SOL    HW275398   5.750   2.450   2.906
24501SOL     OW75399  11.330  11.992  14.722
24501SOL    HW175400  11.421  11.975  14.745
24501SOL    HW275401  11.285  11.998  14.806
24502SOL     OW75402  14.405   9.831  11.366
24502SOL    HW175403  14.470   9.772  11.327
24502SOL    HW275404  14.436   9.846  11.455
24503SOL     OW75405   6.915   3.121   9.859
24503SOL    HW175406   6.923   3.037   9.903
24503SOL    HW275407   6.865   3.102   9.780
24504SOL     OW75408   7.410  12.732  12.097
24504SOL    HW175409   7.485  12.683  12.131
24504SOL    HW275410   7.384  12.685  12.018
24505SOL     OW75411   2.731   9.218  14.543
24505SOL    HW175412   2.711   9.175  14.626
24505SOL    HW275413   2.645   9.244  14.509
24506SOL     OW75414   6.228  10.148  10.689
24506SOL    HW175415   6.314  10.153  10.731
24506SOL    HW275416   6.238  10.082  10.620
24507SOL     OW75417   3.647  14.783  13.363
24507SOL    HW175418   3.668  14.692  13.384
24507SOL    HW275419   3.626  14.823  13.448
24508SOL     OW75420   7.691   3.869   1.050
24508SOL    HW175421   7.724   3.957   1.030
24508SOL    HW275422   7.604   3.884   1.087
24509SOL     OW75423  10.810  10.679   3.148
24509SOL    HW175424  10.893  10.674   3.196
24509SOL    HW275425  10.821  10.620   3.074
24510SOL     OW75426   1.088  11.581   4.205
24510SOL    HW175427   1.105  11.639   4.131
24510SOL    HW275428   1.005  11.612   4.241
24511SOL     OW75429  12.314   8.533   8.326
24511SOL    HW175430  12.230   8.499   8.358
24511SOL    HW275431  12.310   8.627   8.343
24512SOL     OW75432   6.445   1.193   5.815
24512SOL    HW175433   6.530   1.237   5.828
24512SOL    HW275434   6.435   1.138   5.893
24513SOL     OW75435   7.700   2.002   3.363
24513SOL    HW175436   7.696   2.075   3.301
24513SOL    HW275437   7.793   1.992   3.382
24514SOL     OW75438   7.513  13.267   0.621
24514SOL    HW175439   7.451  13.226   0.562
24514SOL    HW275440   7.584  13.297   0.564
24515SOL     OW75441   7.215  10.111   2.959
24515SOL    HW175442   7.289  10.171   2.953
24515SOL    HW275443   7.254  10.028   2.987
24516SOL     OW75444   1.627  13.443   6.120
24516SOL    HW175445   1.718  13.416   6.108
24516SOL    HW275446   1.631  13.529   6.161
24517SOL     OW75447   4.288   0.806  10.059
24517SOL    HW175448   4.334   0.863  10.120
24517SOL    HW275449   4.357   0.759  10.012
24518SOL     OW75450   0.755   8.480   1.969
24518SOL    HW175451   0.753   8.410   1.904
24518SOL    HW275452   0.678   8.534   1.949
24519SOL     OW75453  12.199  10.034   8.906
24519SOL    HW175454  12.210  10.110   8.963
24519SOL    HW275455  12.277   9.981   8.920
24520SOL     OW75456   2.246   1.568   9.149
24520SOL    HW175457   2.320   1.510   9.129
24520SOL    HW275458   2.286   1.645   9.189
24521SOL     OW75459  12.009   6.511   4.399
24521SOL    HW175460  11.992   6.424   4.433
24521SOL    HW275461  12.105   6.516   4.394
24522SOL     OW75462  12.857   5.417   5.702
24522SOL    HW175463  12.826   5.507   5.693
24522SOL    HW275464  12.899   5.397   5.619
24523SOL     OW75465   9.191   9.407   9.803
24523SOL    HW175466   9.151   9.451   9.729
24523SOL    HW275467   9.139   9.435   9.879
24524SOL     OW75468   9.260  10.622   1.620
24524SOL    HW175469   9.252  10.665   1.705
24524SOL    HW275470   9.189  10.660   1.568
24525SOL     OW75471  10.678   5.181   7.094
24525SOL    HW175472  10.647   5.113   7.154
24525SOL    HW275473  10.760   5.147   7.059
24526SOL     OW75474   6.246  14.364   2.098
24526SOL    HW175475   6.267  14.299   2.166
24526SOL    HW275476   6.197  14.314   2.032
24527SOL     OW75477  12.860   6.169   8.453
24527SOL    HW175478  12.901   6.237   8.507
24527SOL    HW275479  12.866   6.203   8.364
24528SOL     OW75480   9.225   5.478   7.000
24528SOL    HW175481   9.219   5.523   6.915
24528SOL    HW275482   9.178   5.535   7.061
24529SOL     OW75483  12.464  11.614   8.343
24529SOL    HW175484  12.453  11.567   8.261
24529SOL    HW275485  12.375  11.631   8.373
24530SOL     OW75486  10.622  11.801  12.384
24530SOL    HW175487  10.556  11.769  12.322
24530SOL    HW275488  10.576  11.867  12.436
24531SOL     OW75489   8.393   6.670   2.339
24531SOL    HW175490   8.435   6.624   2.411
24531SOL    HW275491   8.461   6.677   2.272
24532SOL     OW75492  14.803  10.304   9.163
24532SOL    HW175493   0.005  10.277   9.109
24532SOL    HW275494  14.806  10.400   9.162
24533SOL     OW75495  10.092   9.899  14.135
24533SOL    HW175496  10.156   9.956  14.175
24533SOL    HW275497  10.141   9.850  14.069
24534SOL     OW75498   0.233   3.453   2.082
24534SOL    HW175499   0.297   3.411   2.139
24534SOL    HW275500   0.160   3.475   2.140
24535SOL     OW75501   1.522   6.129   6.293
24535SOL    HW175502   1.588   6.188   6.330
24535SOL    HW275503   1.569   6.079   6.227
24536SOL     OW75504   2.549  11.736  13.252
24536SOL    HW175505   2.506  11.732  13.166
24536SOL    HW275506   2.634  11.694  13.238
24537SOL     OW75507  10.203   4.868   2.959
24537SOL    HW175508  10.183   4.829   3.044
24537SOL    HW275509  10.258   4.804   2.915
24538SOL     OW75510  13.518   9.748   7.808
24538SOL    HW175511  13.570   9.813   7.761
24538SOL    HW275512  13.473   9.699   7.739
24539SOL     OW75513   2.264  10.992   9.385
24539SOL    HW175514   2.273  11.070   9.440
24539SOL    HW275515   2.259  11.026   9.296
24540SOL     OW75516  13.714   5.482   3.916
24540SOL    HW175517  13.668   5.565   3.931
24540SOL    HW275518  13.782   5.504   3.853
24541SOL     OW75519  12.550   6.335   8.441
24541SOL    HW175520  12.550   6.350   8.346
24541SOL    HW275521  12.537   6.422   8.478
24542SOL     OW75522   6.531   1.035  14.086
24542SOL    HW175523   6.604   1.060  14.143
24542SOL    HW275524   6.567   0.968  14.028
24543SOL     OW75525   3.529  12.568   5.049
24543SOL    HW175526   3.566  12.480   5.039
24543SOL    HW275527   3.437  12.552   5.073
24544SOL     OW75528  13.564   5.503   2.661
24544SOL    HW175529  13.602   5.577   2.708
24544SOL    HW275530  13.636   5.442   2.649
24545SOL     OW75531  14.364   1.674   2.944
24545SOL    HW175532  14.295   1.626   2.899
24545SOL    HW275533  14.392   1.616   3.015
24546SOL     OW75534   9.899   5.198   8.355
24546SOL    HW175535   9.943   5.116   8.330
24546SOL    HW275536   9.909   5.255   8.279
24547SOL     OW75537   3.360   2.386   1.523
24547SOL    HW175538   3.426   2.455   1.527
24547SOL    HW275539   3.407   2.306   1.547
24548SOL     OW75540   8.252   2.998   6.186
24548SOL    HW175541   8.286   3.057   6.118
24548SOL    HW275542   8.179   2.952   6.144
24549SOL     OW75543   8.200   6.972  14.455
24549SOL    HW175544   8.124   6.942  14.406
24549SOL    HW275545   8.261   7.002  14.387
24550SOL     OW75546   9.648   3.624   1.214
24550SOL    HW175547   9.639   3.541   1.263
24550SOL    HW275548   9.701   3.601   1.138
24551SOL     OW75549   6.991  12.145   5.694
24551SOL    HW175550   6.994  12.051   5.712
24551SOL    HW275551   6.899  12.162   5.674
24552SOL     OW75552   5.346   2.110  11.808
24552SOL    HW175553   5.323   2.157  11.728
24552SOL    HW275554   5.435   2.140  11.828
24553SOL     OW75555  10.582   5.133   8.199
24553SOL    HW175556  10.539   5.128   8.285
24553SOL    HW275557  10.511   5.150   8.138
24554SOL     OW75558   8.740   2.146  10.421
24554SOL    HW175559   8.690   2.186  10.492
24554SOL    HW275560   8.727   2.051  10.432
24555SOL     OW75561  12.849   1.297  11.900
24555SOL    HW175562  12.943   1.278  11.897
24555SOL    HW275563  12.838   1.370  11.840
24556SOL     OW75564  12.743   3.162  11.212
24556SOL    HW175565  12.818   3.181  11.268
24556SOL    HW275566  12.724   3.245  11.169
24557SOL     OW75567  10.894   5.609   3.622
24557SOL    HW175568  10.951   5.592   3.547
24557SOL    HW275569  10.846   5.688   3.598
24558SOL     OW75570  12.190   7.962   1.758
24558SOL    HW175571  12.211   7.917   1.840
24558SOL    HW275572  12.101   7.936   1.738
24559SOL     OW75573  10.597   2.779   5.043
24559SOL    HW175574  10.582   2.820   5.129
24559SOL    HW275575  10.671   2.720   5.058
24560SOL     OW75576   8.112   6.163  10.585
24560SOL    HW175577   8.073   6.233  10.638
24560SOL    HW275578   8.053   6.153  10.511
24561SOL     OW75579   0.393   4.158  11.860
24561SOL    HW175580   0.402   4.224  11.928
24561SOL    HW275581   0.402   4.074  11.907
24562SOL     OW75582  14.677   9.864   7.340
24562SOL    HW175583  14.641   9.946   7.305
24562SOL    HW275584  14.744   9.838   7.277
24563SOL     OW75585   4.063   0.420   1.940
24563SOL    HW175586   4.107   0.338   1.961
24563SOL    HW275587   4.063   0.424   1.844
24564SOL     OW75588   5.140   5.506   8.314
24564SOL    HW175589   5.181   5.576   8.263
24564SOL    HW275590   5.047   5.515   8.298
24565SOL     OW75591   1.955   2.347   4.336
24565SOL    HW175592   1.999   2.431   4.348
24565SOL    HW275593   1.943   2.339   4.241
24566SOL     OW75594   4.613  11.359   6.094
24566SOL    HW175595   4.663  11.304   6.034
24566SOL    HW275596   4.528  11.316   6.101
24567SOL     OW75597   1.105  14.370   6.338
24567SOL    HW175598   1.112  14.277   6.319
24567SOL    HW275599   1.010  14.388   6.337
24568SOL     OW75600   4.611  13.949   7.891
24568SOL    HW175601   4.658  13.974   7.971
24568SOL    HW275602   4.577  13.862   7.910
24569SOL     OW75603  12.894   1.266  14.120
24569SOL    HW175604  12.881   1.178  14.154
24569SOL    HW275605  12.840   1.270  14.041
24570SOL     OW75606   0.405   8.486   1.423
24570SOL    HW175607   0.398   8.580   1.437
24570SOL    HW275608   0.402   8.448   1.511
24571SOL     OW75609   0.527   5.456   5.434
24571SOL    HW175610   0.596   5.391   5.422
24571SOL    HW275611   0.479   5.456   5.352
24572SOL     OW75612   0.580   6.236   8.384
24572SOL    HW175613   0.626   6.275   8.309
24572SOL    HW275614   0.607   6.290   8.458
24573SOL     OW75615  14.065   3.413   6.312
24573SOL    HW175616  14.027   3.410   6.400
24573SOL    HW275617  13.998   3.371   6.257
24574SOL     OW75618  12.070  13.971   7.866
24574SOL    HW175619  12.080  13.890   7.915
24574SOL    HW275620  11.979  13.970   7.837
24575SOL     OW75621   3.966   6.432   8.977
24575SOL    HW175622   3.969   6.345   8.938
24575SOL    HW275623   4.021   6.486   8.920
24576SOL     OW75624  10.406  12.478  12.963
24576SOL    HW175625  10.333  12.539  12.962
24576SOL    HW275626  10.369  12.396  12.995
24577SOL     OW75627   8.447   2.361   5.849
24577SOL    HW175628   8.449   2.394   5.939
24577SOL    HW275629   8.411   2.273   5.857
24578SOL     OW75630   5.618   8.414  13.340
24578SOL    HW175631   5.577   8.405  13.254
24578SOL    HW275632   5.550   8.388  13.402
24579SOL     OW75633  10.473   0.993   3.192
24579SOL    HW175634  10.436   1.080   3.176
24579SOL    HW275635  10.429   0.936   3.130
24580SOL     OW75636  13.223  12.046  10.518
24580SOL    HW175637  13.146  12.071  10.569
24580SOL    HW275638  13.264  11.976  10.568
24581SOL     OW75639   5.990  12.833   8.579
24581SOL    HW175640   5.943  12.818   8.497
24581SOL    HW275641   6.045  12.909   8.561
24582SOL     OW75642   5.390   9.767   3.228
24582SOL    HW175643   5.314   9.757   3.285
24582SOL    HW275644   5.427   9.851   3.253
24583SOL     OW75645   1.335   8.868   8.049
24583SOL    HW175646   1.256   8.904   8.090
24583SOL    HW275647   1.303   8.806   7.984
24584SOL     OW75648   5.681   0.595   0.212
24584SOL    HW175649   5.719   0.546   0.285
24584SOL    HW275650   5.605   0.639   0.250
24585SOL     OW75651  13.982   2.104  12.712
24585SOL    HW175652  13.946   2.061  12.790
24585SOL    HW275653  14.009   2.190  12.742
24586SOL     OW75654  14.175   1.990  12.291
24586SOL    HW175655  14.093   2.037  12.274
24586SOL    HW275656  14.219   2.042  12.359
24587SOL     OW75657  13.080   1.069   0.263
24587SOL    HW175658  13.003   1.014   0.277
24587SOL    HW275659  13.097   1.063   0.169
24588SOL     OW75660   9.203   6.862  12.919
24588SOL    HW175661   9.283   6.817  12.944
24588SOL    HW275662   9.212   6.950  12.956
24589SOL     OW75663  12.680   2.806   7.530
24589SOL    HW175664  12.676   2.783   7.623
24589SOL    HW275665  12.611   2.754   7.490
24590SOL     OW75666   6.085  12.355  10.789
24590SOL    HW175667   6.178  12.340  10.807
24590SOL    HW275668   6.085  12.417  10.716
24591SOL     OW75669  12.157   5.353   4.821
24591SOL    HW175670  12.198   5.427   4.867
24591SOL    HW275671  12.198   5.276   4.858
24592SOL     OW75672   6.528   3.415   1.127
24592SOL    HW175673   6.599   3.452   1.075
24592SOL    HW275674   6.557   3.425   1.218
24593SOL     OW75675  12.942   9.288   9.752
24593SOL    HW175676  12.894   9.259   9.674
24593SOL    HW275677  13.030   9.306   9.721
24594SOL     OW75678   4.877  14.585   0.758
24594SOL    HW175679   4.926  14.509   0.789
24594SOL    HW275680   4.821  14.609   0.832
24595SOL     OW75681  11.503   6.353   5.171
24595SOL    HW175682  11.592   6.388   5.170
24595SOL    HW275683  11.460   6.400   5.242
24596SOL     OW75684   8.577   4.883  13.194
24596SOL    HW175685   8.503   4.940  13.174
24596SOL    HW275686   8.654   4.940  13.186
24597SOL     OW75687   4.738   0.422   4.023
24597SOL    HW175688   4.725   0.348   4.083
24597SOL    HW275689   4.796   0.481   4.071
24598SOL     OW75690   7.605  10.971   3.030
24598SOL    HW175691   7.687  10.985   3.078
24598SOL    HW275692   7.623  10.895   2.975
24599SOL     OW75693  10.666  10.100   5.394
24599SOL    HW175694  10.611  10.132   5.465
24599SOL    HW275695  10.630  10.015   5.372
24600SOL     OW75696  13.822  12.901  13.709
24600SOL    HW175697  13.891  12.955  13.749
24600SOL    HW275698  13.869  12.847  13.645
24601SOL     OW75699   1.904   4.905   1.477
24601SOL    HW175700   1.986   4.860   1.459
24601SOL    HW275701   1.909   4.987   1.426
24602SOL     OW75702   5.326   6.112   0.368
24602SOL    HW175703   5.341   6.200   0.332
24602SOL    HW275704   5.243   6.085   0.329
24603SOL     OW75705   3.910  12.430  10.815
24603SOL    HW175706   3.863  12.471  10.743
24603SOL    HW275707   3.986  12.487  10.829
24604SOL     OW75708   4.881   3.660   4.503
24604SOL    HW175709   4.863   3.748   4.470
24604SOL    HW275710   4.794   3.622   4.521
24605SOL     OW75711   1.241   9.086   4.517
24605SOL    HW175712   1.275   9.002   4.487
24605SOL    HW275713   1.289   9.151   4.467
24606SOL     OW75714   3.882  13.271   9.204
24606SOL    HW175715   3.800  13.262   9.154
24606SOL    HW275716   3.921  13.352   9.171
24607SOL     OW75717  11.391  11.258  13.092
24607SOL    HW175718  11.380  11.168  13.062
24607SOL    HW275719  11.315  11.274  13.148
24608SOL     OW75720   7.554  13.621   2.008
24608SOL    HW175721   7.586  13.711   2.010
24608SOL    HW275722   7.503  13.615   1.928
24609SOL     OW75723   0.467  13.478  11.924
24609SOL    HW175724   0.390  13.534  11.932
24609SOL    HW275725   0.541  13.539  11.929
24610SOL     OW75726   8.892   3.726   7.822
24610SOL    HW175727   8.947   3.798   7.793
24610SOL    HW275728   8.900   3.660   7.753
24611SOL     OW75729  13.933   5.405   3.284
24611SOL    HW175730  13.906   5.479   3.339
24611SOL    HW275731  13.937   5.331   3.345
24612SOL     OW75732   5.917  12.166  10.893
24612SOL    HW175733   5.984  12.098  10.906
24612SOL    HW275734   5.967  12.242  10.864
24613SOL     OW75735   6.967   0.610  10.397
24613SOL    HW175736   6.948   0.619  10.490
24613SOL    HW275737   7.051   0.655  10.386
24614SOL     OW75738   9.753   8.829   4.684
24614SOL    HW175739   9.728   8.745   4.647
24614SOL    HW275740   9.684   8.848   4.749
24615SOL     OW75741  10.611   2.307   6.539
24615SOL    HW175742  10.692   2.272   6.575
24615SOL    HW275743  10.542   2.256   6.582
24616SOL     OW75744   4.563   9.959   2.568
24616SOL    HW175745   4.603   9.892   2.512
24616SOL    HW275746   4.472   9.933   2.576
24617SOL     OW75747   6.729  10.691  14.764
24617SOL    HW175748   6.750  10.613  14.713
24617SOL    HW275749   6.685  10.658  14.842
24618SOL     OW75750  10.372   6.615  12.293
24618SOL    HW175751  10.332   6.581  12.213
24618SOL    HW275752  10.439   6.551  12.316
24619SOL     OW75753   9.606   3.668   6.528
24619SOL    HW175754   9.629   3.686   6.620
24619SOL    HW275755   9.689   3.677   6.481
24620SOL     OW75756  12.587  11.633  13.798
24620SOL    HW175757  12.580  11.728  13.796
24620SOL    HW275758  12.673  11.616  13.836
24621SOL     OW75759   2.833   0.674   2.422
24621SOL    HW175760   2.834   0.580   2.436
24621SOL    HW275761   2.743   0.692   2.391
24622SOL     OW75762   0.235   2.849   6.400
24622SOL    HW175763   0.312   2.792   6.393
24622SOL    HW275764   0.162   2.788   6.410
24623SOL     OW75765   9.359  11.540   1.427
24623SOL    HW175766   9.399  11.513   1.510
24623SOL    HW275767   9.425  11.595   1.385
24624SOL     OW75768   8.842   4.264  14.403
24624SOL    HW175769   8.829   4.339  14.345
24624SOL    HW275770   8.934   4.268  14.428
24625SOL     OW75771   9.136  14.213   9.429
24625SOL    HW175772   9.086  14.217   9.348
24625SOL    HW275773   9.070  14.199   9.497
24626SOL     OW75774   6.535   3.649   4.483
24626SOL    HW175775   6.579   3.590   4.422
24626SOL    HW275776   6.519   3.596   4.561
24627SOL     OW75777  14.802  12.169   2.466
24627SOL    HW175778  14.812  12.255   2.508
24627SOL    HW275779  14.847  12.178   2.382
24628SOL     OW75780  13.041  10.620   4.720
24628SOL    HW175781  12.959  10.656   4.755
24628SOL    HW275782  13.108  10.646   4.783
24629SOL     OW75783   6.783  12.398  14.867
24629SOL    HW175784   6.872  12.429   0.011
24629SOL    HW275785   6.742  12.398   0.082
24630SOL     OW75786   7.280   6.228   6.367
24630SOL    HW175787   7.328   6.205   6.446
24630SOL    HW275788   7.332   6.297   6.326
24631SOL     OW75789   7.891   5.771   0.548
24631SOL    HW175790   7.805   5.807   0.567
24631SOL    HW275791   7.949   5.815   0.610
24632SOL     OW75792   9.426   3.969   2.152
24632SOL    HW175793   9.520   3.955   2.159
24632SOL    HW275794   9.389   3.923   2.227
24633SOL     OW75795  14.681   5.719   7.893
24633SOL    HW175796  14.696   5.772   7.814
24633SOL    HW275797  14.753   5.741   7.951
24634SOL     OW75798   6.203   2.877   0.070
24634SOL    HW175799   6.285   2.903   0.112
24634SOL    HW275800   6.135   2.916   0.126
24635SOL     OW75801   1.907  10.373   2.756
24635SOL    HW175802   1.896  10.443   2.820
24635SOL    HW275803   2.001  10.353   2.758
24636SOL     OW75804   4.364  12.160   8.587
24636SOL    HW175805   4.338  12.212   8.663
24636SOL    HW275806   4.453  12.189   8.567
24637SOL     OW75807   7.483   5.720   6.235
24637SOL    HW175808   7.440   5.674   6.162
24637SOL    HW275809   7.410   5.750   6.289
24638SOL     OW75810  14.858   2.296   1.226
24638SOL    HW175811  14.863   2.296   1.131
24638SOL    HW275812  14.869   2.388   1.251
24639SOL     OW75813   5.263   6.443  13.430
24639SOL    HW175814   5.266   6.352  13.460
24639SOL    HW275815   5.205   6.488  13.492
24640SOL     OW75816   0.142   2.015   4.235
24640SOL    HW175817   0.128   2.092   4.179
24640SOL    HW275818   0.098   1.944   4.189
24641SOL     OW75819   5.316   3.071   2.562
24641SOL    HW175820   5.371   3.099   2.635
24641SOL    HW275821   5.293   2.981   2.582
24642SOL     OW75822   3.330   6.241   0.260
24642SOL    HW175823   3.386   6.257   0.184
24642SOL    HW275824   3.377   6.281   0.333
24643SOL     OW75825   7.867   4.140  14.460
24643SOL    HW175826   7.836   4.154  14.370
24643SOL    HW275827   7.824   4.209  14.511
24644SOL     OW75828  12.697  13.187   9.331
24644SOL    HW175829  12.766  13.251   9.316
24644SOL    HW275830  12.742  13.103   9.332
24645SOL     OW75831   3.402  13.147  13.318
24645SOL    HW175832   3.486  13.101  13.313
24645SOL    HW275833   3.354  13.118  13.241
24646SOL     OW75834   7.495   5.380   3.414
24646SOL    HW175835   7.477   5.370   3.321
24646SOL    HW275836   7.570   5.323   3.431
24647SOL     OW75837   9.770   4.974   8.639
24647SOL    HW175838   9.769   5.049   8.700
24647SOL    HW275839   9.732   4.902   8.689
24648SOL     OW75840  10.448   3.435   7.996
24648SOL    HW175841  10.417   3.357   7.950
24648SOL    HW275842  10.530   3.458   7.951
24649SOL     OW75843  13.267   8.800   9.186
24649SOL    HW175844  13.218   8.721   9.165
24649SOL    HW275845  13.340   8.771   9.240
24650SOL     OW75846   5.879   5.190  12.015
24650SOL    HW175847   5.807   5.228  11.965
24650SOL    HW275848   5.933   5.146  11.950
24651SOL     OW75849   1.164   2.563  14.288
24651SOL    HW175850   1.188   2.471  14.293
24651SOL    HW275851   1.244   2.606  14.258
24652SOL     OW75852   0.864   2.980   1.520
24652SOL    HW175853   0.916   3.033   1.460
24652SOL    HW275854   0.914   2.899   1.531
24653SOL     OW75855   3.219   4.037   3.277
24653SOL    HW175856   3.255   4.115   3.236
24653SOL    HW275857   3.295   3.994   3.318
24654SOL     OW75858  10.166   5.943   6.548
24654SOL    HW175859  10.074   5.919   6.557
24654SOL    HW275860  10.165   6.023   6.495
24655SOL     OW75861   7.265   3.058   2.410
24655SOL    HW175862   7.353   3.034   2.379
24655SOL    HW275863   7.224   2.974   2.432
24656SOL     OW75864   9.970   7.982  12.867
24656SOL    HW175865  10.026   7.919  12.823
24656SOL    HW275866   9.994   8.067  12.830
24657SOL     OW75867  13.052  12.335   1.527
24657SOL    HW175868  13.075  12.294   1.610
24657SOL    HW275869  12.971  12.293   1.500
24658SOL     OW75870  10.777   4.732   3.905
24658SOL    HW175871  10.695   4.772   3.934
24658SOL    HW275872  10.770   4.731   3.809
24659SOL     OW75873   3.993  12.811  11.766
24659SOL    HW175874   3.932  12.819  11.693
24659SOL    HW275875   3.939  12.823  11.845
24660SOL     OW75876   9.123   2.043   6.191
24660SOL    HW175877   9.120   2.015   6.283
24660SOL    HW275878   9.037   2.082   6.176
24661SOL     OW75879   7.048   4.476   0.367
24661SOL    HW175880   6.957   4.505   0.360
24661SOL    HW275881   7.047   4.410   0.436
24662SOL     OW75882  12.067  10.388   6.980
24662SOL    HW175883  12.080  10.466   7.034
24662SOL    HW275884  12.140  10.388   6.918
24663SOL     OW75885   9.498   1.820   2.405
24663SOL    HW175886   9.412   1.859   2.425
24663SOL    HW275887   9.559   1.871   2.458
24664SOL     OW75888   9.767  13.659   8.465
24664SOL    HW175889   9.829  13.732   8.469
24664SOL    HW275890   9.804  13.600   8.399
24665SOL     OW75891   8.099   9.970   2.474
24665SOL    HW175892   8.189   9.940   2.457
24665SOL    HW275893   8.069   9.916   2.547
24666SOL     OW75894   2.380  13.442  14.622
24666SOL    HW175895   2.363  13.447  14.716
24666SOL    HW275896   2.445  13.373  14.613
24667SOL     OW75897   3.785   5.772   2.696
24667SOL    HW175898   3.707   5.739   2.741
24667SOL    HW275899   3.752   5.840   2.638
24668SOL     OW75900   6.069  12.443   6.370
24668SOL    HW175901   6.130  12.492   6.315
24668SOL    HW275902   5.988  12.441   6.321
24669SOL     OW75903   5.438  11.953  12.012
24669SOL    HW175904   5.495  12.005  11.955
24669SOL    HW275905   5.485  11.871  12.024
24670SOL     OW75906   9.051   1.112   1.081
24670SOL    HW175907   9.019   1.024   1.100
24670SOL    HW275908   8.997   1.169   1.135
24671SOL     OW75909   3.982  14.601   6.304
24671SOL    HW175910   3.903  14.587   6.356
24671SOL    HW275911   3.952  14.595   6.213
24672SOL     OW75912   7.315   7.780  10.024
24672SOL    HW175913   7.244   7.844  10.013
24672SOL    HW275914   7.381   7.807   9.960
24673SOL     OW75915   3.121   0.024  10.258
24673SOL    HW175916   3.040   0.010  10.306
24673SOL    HW275917   3.156  14.808  10.243
24674SOL     OW75918   0.782   2.890  13.527
24674SOL    HW175919   0.691   2.865  13.539
24674SOL    HW275920   0.813   2.834  13.455
24675SOL     OW75921   7.309   6.127   5.727
24675SOL    HW175922   7.402   6.138   5.743
24675SOL    HW275923   7.304   6.080   5.644
24676SOL     OW75924   8.925  11.478   5.849
24676SOL    HW175925   8.925  11.411   5.781
24676SOL    HW275926   8.837  11.474   5.887
24677SOL     OW75927   8.125  14.751   0.195
24677SOL    HW175928   8.206  14.703   0.179
24677SOL    HW275929   8.117  14.754   0.291
24678SOL     OW75930   3.627  10.550   2.545
24678SOL    HW175931   3.713  10.549   2.587
24678SOL    HW275932   3.573  10.494   2.601
24679SOL     OW75933   7.304  13.168  10.129
24679SOL    HW175934   7.391  13.140  10.156
24679SOL    HW275935   7.287  13.119  10.049
24680SOL     OW75936  10.924   3.532   2.246
24680SOL    HW175937  10.893   3.621   2.258
24680SOL    HW275938  10.877   3.499   2.170
24681SOL     OW75939   8.270   1.977   3.686
24681SOL    HW175940   8.185   1.932   3.684
24681SOL    HW275941   8.334   1.907   3.672
24682SOL     OW75942  13.030  10.531  14.775
24682SOL    HW175943  13.061  10.596  14.838
24682SOL    HW275944  13.108  10.506  14.725
24683SOL     OW75945   5.620  14.003   2.400
24683SOL    HW175946   5.570  14.047   2.331
24683SOL    HW275947   5.680  13.945   2.354
24684SOL     OW75948   7.309   3.031   3.922
24684SOL    HW175949   7.363   2.989   3.988
24684SOL    HW275950   7.247   2.964   3.895
24685SOL     OW75951   2.837   6.181   4.049
24685SOL    HW175952   2.860   6.091   4.072
24685SOL    HW275953   2.789   6.214   4.125
24686SOL     OW75954   9.951   1.210  10.008
24686SOL    HW175955   9.978   1.299   9.982
24686SOL    HW275956   9.993   1.153   9.944
24687SOL     OW75957   2.763   7.753  13.672
24687SOL    HW175958   2.778   7.723  13.582
24687SOL    HW275959   2.850   7.778  13.703
24688SOL     OW75960   7.112   1.360   7.126
24688SOL    HW175961   7.060   1.361   7.046
24688SOL    HW275962   7.144   1.269   7.133
24689SOL     OW75963   0.024  10.247   3.878
24689SOL    HW175964   0.051  10.291   3.959
24689SOL    HW275965   0.036  10.313   3.810
24690SOL     OW75966   2.848  14.286   2.073
24690SOL    HW175967   2.833  14.240   1.991
24690SOL    HW275968   2.819  14.376   2.056
24691SOL     OW75969  11.198   5.448   9.543
24691SOL    HW175970  11.163   5.482   9.460
24691SOL    HW275971  11.122   5.448   9.602
24692SOL     OW75972   7.416  10.223  10.624
24692SOL    HW175973   7.459  10.218  10.710
24692SOL    HW275974   7.335  10.173  10.636
24693SOL     OW75975   8.575   5.790  12.871
24693SOL    HW175976   8.575   5.779  12.966
24693SOL    HW275977   8.535   5.710  12.838
24694SOL     OW75978   2.446   2.470   2.305
24694SOL    HW175979   2.378   2.413   2.342
24694SOL    HW275980   2.498   2.497   2.381
24695SOL     OW75981   1.854  10.581   7.132
24695SOL    HW175982   1.891  10.515   7.192
24695SOL    HW275983   1.876  10.548   7.044
24696SOL     OW75984  11.029   6.625  10.156
24696SOL    HW175985  11.045   6.611  10.249
24696SOL    HW275986  10.996   6.715  10.150
24697SOL     OW75987   0.030  10.531  10.521
24697SOL    HW175988  14.865  10.443  10.536
24697SOL    HW275989   0.124  10.518  10.527
24698SOL     OW75990  12.616  10.416   4.211
24698SOL    HW175991  12.642  10.380   4.126
24698SOL    HW275992  12.544  10.361   4.240
24699SOL     OW75993  11.739   4.905   6.170
24699SOL    HW175994  11.730   5.000   6.178
24699SOL    HW275995  11.717   4.871   6.257
24700SOL     OW75996   8.281   8.689   9.184
24700SOL    HW175997   8.374   8.712   9.193
24700SOL    HW275998   8.261   8.640   9.263
24701SOL     OW75999   4.789   0.956   0.483
24701SOL    HW176000   4.849   1.022   0.448
24701SOL    HW276001   4.843   0.902   0.541
24702SOL     OW76002  12.131   9.574   4.022
24702SOL    HW176003  12.152   9.635   4.092
24702SOL    HW276004  12.116   9.490   4.066
24703SOL     OW76005   8.381  13.355   0.195
24703SOL    HW176006   8.356  13.396   0.278
24703SOL    HW276007   8.302  13.358   0.141
24704SOL     OW76008   4.259  13.411  13.563
24704SOL    HW176009   4.213  13.485  13.524
24704SOL    HW276010   4.313  13.377  13.491
24705SOL     OW76011   2.503   3.294   8.867
24705SOL    HW176012   2.443   3.276   8.939
24705SOL    HW276013   2.590   3.273   8.903
24706SOL     OW76014   4.606   4.313   1.597
24706SOL    HW176015   4.525   4.267   1.573
24706SOL    HW276016   4.609   4.306   1.693
24707SOL     OW76017  10.017   9.679   6.425
24707SOL    HW176018   9.972   9.596   6.411
24707SOL    HW276019   9.959   9.727   6.484
24708SOL     OW76020   8.681   8.673  14.519
24708SOL    HW176021   8.754   8.612  14.530
24708SOL    HW276022   8.717   8.745  14.467
24709SOL     OW76023   3.168   2.166   0.102
24709SOL    HW176024   3.193   2.075   0.082
24709SOL    HW276025   3.163   2.209   0.017
24710SOL     OW76026  13.280   4.323   4.806
24710SOL    HW176027  13.251   4.383   4.737
24710SOL    HW276028  13.219   4.338   4.878
24711SOL     OW76029   8.885  11.617   0.995
24711SOL    HW176030   8.976  11.644   0.983
24711SOL    HW276031   8.887  11.554   1.067
24712SOL     OW76032   6.610   3.049   7.241
24712SOL    HW176033   6.517   3.066   7.224
24712SOL    HW276034   6.632   3.105   7.316
24713SOL     OW76035   9.523  14.136   2.096
24713SOL    HW176036   9.491  14.073   2.032
24713SOL    HW276037   9.514  14.221   2.053
24714SOL     OW76038  13.353   6.342   7.050
24714SOL    HW176039  13.381   6.430   7.025
24714SOL    HW276040  13.404   6.284   6.994
24715SOL     OW76041   7.174   3.797  11.874
24715SOL    HW176042   7.104   3.768  11.932
24715SOL    HW276043   7.137   3.871  11.826
24716SOL     OW76044   6.308   7.169  13.870
24716SOL    HW176045   6.276   7.079  13.858
24716SOL    HW276046   6.259   7.220  13.806
24717SOL     OW76047   2.765   8.073   7.613
24717SOL    HW176048   2.808   8.029   7.540
24717SOL    HW276049   2.691   8.016   7.634
24718SOL     OW76050   3.397   6.657   0.012
24718SOL    HW176051   3.393   6.683  14.791
24718SOL    HW276052   3.397   6.739   0.060
24719SOL     OW76053   1.390   9.369  10.469
24719SOL    HW176054   1.345   9.452  10.481
24719SOL    HW276055   1.399   9.332  10.557
24720SOL     OW76056  12.221   3.329  13.490
24720SOL    HW176057  12.145   3.385  13.480
24720SOL    HW276058  12.195   3.245  13.453
24721SOL     OW76059   4.296  13.868   7.698
24721SOL    HW176060   4.237  13.888   7.772
24721SOL    HW276061   4.271  13.780   7.671
24722SOL     OW76062   8.199  11.236   7.879
24722SOL    HW176063   8.193  11.223   7.784
24722SOL    HW276064   8.239  11.323   7.889
24723SOL     OW76065   4.550   9.544   8.925
24723SOL    HW176066   4.525   9.520   9.014
24723SOL    HW276067   4.561   9.460   8.880
24724SOL     OW76068  14.370   1.629   3.365
24724SOL    HW176069  14.344   1.721   3.369
24724SOL    HW276070  14.312   1.590   3.299
24725SOL     OW76071   0.481   8.881   6.342
24725SOL    HW176072   0.525   8.963   6.320
24725SOL    HW276073   0.519   8.855   6.426
24726SOL     OW76074   9.495  12.997   3.598
24726SOL    HW176075   9.406  13.017   3.566
24726SOL    HW276076   9.480  12.946   3.678
24727SOL     OW76077   9.143   7.158  11.952
24727SOL    HW176078   9.143   7.066  11.923
24727SOL    HW276079   9.064   7.166  12.004
24728SOL     OW76080  10.609  10.943   6.347
24728SOL    HW176081  10.626  10.884   6.274
24728SOL    HW276082  10.535  10.905   6.393
24729SOL     OW76083  11.921   2.835   1.200
24729SOL    HW176084  11.880   2.760   1.243
24729SOL    HW276085  11.849   2.879   1.154
24730SOL     OW76086   0.950  11.058   9.349
24730SOL    HW176087   0.938  10.990   9.416
24730SOL    HW276088   0.966  11.010   9.268
24731SOL     OW76089   5.717  13.420   9.826
24731SOL    HW176090   5.741  13.473   9.750
24731SOL    HW276091   5.801  13.395   9.865
24732SOL     OW76092  13.144   5.640   1.034
24732SOL    HW176093  13.137   5.735   1.029
24732SOL    HW276094  13.180   5.614   0.949
24733SOL     OW76095   7.567   6.302   9.171
24733SOL    HW176096   7.559   6.394   9.198
24733SOL    HW276097   7.477   6.272   9.164
24734SOL     OW76098  13.686  14.089   9.738
24734SOL    HW176099  13.625  14.163   9.739
24734SOL    HW276100  13.636  14.016   9.775
24735SOL     OW76101   4.284   7.685   7.326
24735SOL    HW176102   4.326   7.764   7.362
24735SOL    HW276103   4.357   7.631   7.296
24736SOL     OW76104  12.483   9.457   2.195
24736SOL    HW176105  12.410   9.514   2.170
24736SOL    HW276106  12.455   9.417   2.277
24737SOL     OW76107   9.741   9.064  13.409
24737SOL    HW176108   9.709   9.018  13.332
24737SOL    HW276109   9.781   9.144  13.375
24738SOL     OW76110   3.511  12.494   1.323
24738SOL    HW176111   3.480  12.423   1.378
24738SOL    HW276112   3.507  12.459   1.234
24739SOL     OW76113  12.984   8.303   2.544
24739SOL    HW176114  13.047   8.257   2.600
24739SOL    HW276115  13.023   8.299   2.456
24740SOL     OW76116  13.783   5.133   7.110
24740SOL    HW176117  13.775   5.085   7.028
24740SOL    HW276118  13.876   5.156   7.116
24741SOL     OW76119   6.181  12.990  10.287
24741SOL    HW176120   6.224  12.906  10.274
24741SOL    HW276121   6.145  12.985  10.375
24742SOL     OW76122  11.876   7.392   2.310
24742SOL    HW176123  11.838   7.329   2.248
24742SOL    HW276124  11.820   7.386   2.387
24743SOL     OW76125   6.081  12.068  13.333
24743SOL    HW176126   6.175  12.079  13.319
24743SOL    HW276127   6.052  12.154  13.364
24744SOL     OW76128  13.566   1.365   4.109
24744SOL    HW176129  13.498   1.387   4.172
24744SOL    HW276130  13.626   1.308   4.157
24745SOL     OW76131   5.016   1.007   5.544
24745SOL    HW176132   5.034   1.048   5.629
24745SOL    HW276133   4.982   1.078   5.490
24746SOL     OW76134   5.412   2.856  12.721
24746SOL    HW176135   5.400   2.919  12.650
24746SOL    HW276136   5.495   2.814  12.702
24747SOL     OW76137   6.606   3.001   9.387
24747SOL    HW176138   6.560   3.069   9.339
24747SOL    HW276139   6.554   2.922   9.372
24748SOL     OW76140  11.441  11.136  11.166
24748SOL    HW176141  11.533  11.156  11.188
24748SOL    HW276142  11.421  11.193  11.093
24749SOL     OW76143   0.799   9.463   7.674
24749SOL    HW176144   0.709   9.454   7.645
24749SOL    HW276145   0.838   9.376   7.662
24750SOL     OW76146   2.487  10.466  13.867
24750SOL    HW176147   2.419  10.488  13.803
24750SOL    HW276148   2.486  10.371  13.872
24751SOL     OW76149   9.782   3.674   3.902
24751SOL    HW176150   9.723   3.670   3.977
24751SOL    HW276151   9.724   3.666   3.826
24752SOL     OW76152  10.997   3.594   4.966
24752SOL    HW176153  10.938   3.666   4.942
24752SOL    HW276154  10.973   3.523   4.907
24753SOL     OW76155   0.854   2.253  11.005
24753SOL    HW176156   0.939   2.239  11.045
24753SOL    HW276157   0.854   2.346  10.982
24754SOL     OW76158   4.721   5.454   1.492
24754SOL    HW176159   4.648   5.434   1.551
24754SOL    HW276160   4.797   5.462   1.550
24755SOL     OW76161  13.110   2.910   0.440
24755SOL    HW176162  13.047   2.948   0.501
24755SOL    HW276163  13.179   2.976   0.434
24756SOL     OW76164   8.877  10.523  11.086
24756SOL    HW176165   8.971  10.516  11.106
24756SOL    HW276166   8.873  10.562  10.999
24757SOL     OW76167   9.282   6.886   5.057
24757SOL    HW176168   9.265   6.961   5.113
24757SOL    HW276169   9.196   6.846   5.044
24758SOL     OW76170   6.954   5.714   8.636
24758SOL    HW176171   7.002   5.772   8.577
24758SOL    HW276172   6.869   5.702   8.594
24759SOL     OW76173  12.755  12.676   9.444
24759SOL    HW176174  12.682  12.627   9.405
24759SOL    HW276175  12.807  12.609   9.488
24760SOL     OW76176  10.222   7.223   6.409
24760SOL    HW176177  10.213   7.239   6.503
24760SOL    HW276178  10.136   7.194   6.382
24761SOL     OW76179   3.122   8.904   4.297
24761SOL    HW176180   3.204   8.879   4.340
24761SOL    HW276181   3.150   8.956   4.222
24762SOL     OW76182   9.474  10.494   5.759
24762SOL    HW176183   9.477  10.589   5.751
24762SOL    HW276184   9.511  10.462   5.676
24763SOL     OW76185   0.507   1.857   6.987
24763SOL    HW176186   0.528   1.948   6.964
24763SOL    HW276187   0.584   1.825   7.032
24764SOL     OW76188   0.953   6.524   1.063
24764SOL    HW176189   0.867   6.552   1.032
24764SOL    HW276190   1.001   6.501   0.984
24765SOL     OW76191  14.051   9.315   1.004
24765SOL    HW176192  13.963   9.278   1.016
24765SOL    HW276193  14.048   9.398   1.051
24766SOL     OW76194   6.968   3.567  10.984
24766SOL    HW176195   7.039   3.505  10.967
24766SOL    HW276196   6.927   3.580  10.898
24767SOL     OW76197   6.038   1.394  11.678
24767SOL    HW176198   5.960   1.338  11.683
24767SOL    HW276199   6.043   1.435  11.764
24768SOL     OW76200  11.638   8.422   9.392
24768SOL    HW176201  11.642   8.517   9.398
24768SOL    HW276202  11.610   8.394   9.479
24769SOL     OW76203   8.421   4.278  14.757
24769SOL    HW176204   8.506   4.296  14.718
24769SOL    HW276205   8.432   4.192  14.799
24770SOL     OW76206   7.202   1.248   4.400
24770SOL    HW176207   7.117   1.285   4.379
24770SOL    HW276208   7.209   1.255   4.495
24771SOL     OW76209   6.647   8.687   0.257
24771SOL    HW176210   6.591   8.615   0.226
24771SOL    HW276211   6.631   8.690   0.351
24772SOL     OW76212   7.275   0.134   4.363
24772SOL    HW176213   7.220   0.073   4.314
24772SOL    HW276214   7.214   0.181   4.420
24773SOL     OW76215   6.202   7.186  10.895
24773SOL    HW176216   6.227   7.120  10.830
24773SOL    HW276217   6.262   7.259  10.881
24774SOL     OW76218   3.296   5.510   5.782
24774SOL    HW176219   3.351   5.445   5.738
24774SOL    HW276220   3.213   5.466   5.798
24775SOL     OW76221  12.590  11.612   7.088
24775SOL    HW176222  12.512  11.597   7.034
24775SOL    HW276223  12.647  11.538   7.068
24776SOL     OW76224   9.454   3.997   0.932
24776SOL    HW176225   9.373   3.973   0.977
24776SOL    HW276226   9.520   4.000   1.001
24777SOL     OW76227  12.267   8.993   6.772
24777SOL    HW176228  12.200   8.924   6.766
24777SOL    HW276229  12.251   9.035   6.857
24778SOL     OW76230   9.895   9.282  13.265
24778SOL    HW176231   9.976   9.243  13.233
24778SOL    HW276232   9.863   9.335  13.192
24779SOL     OW76233  10.389   8.648  13.123
24779SOL    HW176234  10.475   8.665  13.085
24779SOL    HW276235  10.352   8.579  13.069
24780SOL     OW76236   0.884   1.636   2.595
24780SOL    HW176237   0.836   1.717   2.614
24780SOL    HW276238   0.947   1.628   2.666
24781SOL     OW76239   2.142  10.593  13.209
24781SOL    HW176240   2.141  10.688  13.195
24781SOL    HW276241   2.205  10.560  13.145
24782SOL     OW76242   4.766  10.138  13.929
24782SOL    HW176243   4.744  10.164  14.019
24782SOL    HW276244   4.707  10.065  13.910
24783SOL     OW76245   5.890   9.713  14.097
24783SOL    HW176246   5.870   9.723  14.004
24783SOL    HW276247   5.812   9.671  14.134
24784SOL     OW76248   0.682  14.759  13.954
24784SOL    HW176249   0.620  14.772  14.025
24784SOL    HW276250   0.708  14.847  13.928
24785SOL     OW76251   5.735  11.476   9.882
24785SOL    HW176252   5.775  11.480   9.796
24785SOL    HW276253   5.716  11.384   9.896
24786SOL     OW76254   8.294   2.967  11.489
24786SOL    HW176255   8.366   2.965  11.426
24786SOL    HW276256   8.215   2.961  11.435
24787SOL     OW76257  13.825   4.470  11.464
24787SOL    HW176258  13.806   4.391  11.515
24787SOL    HW276259  13.801   4.447  11.374
24788SOL     OW76260   9.809   5.862  12.751
24788SOL    HW176261   9.900   5.888  12.763
24788SOL    HW276262   9.776   5.847  12.839
24789SOL     OW76263   3.944   6.866  11.909
24789SOL    HW176264   3.860   6.912  11.907
24789SOL    HW276265   3.923   6.776  11.884
24790SOL     OW76266  10.417  14.562   2.116
24790SOL    HW176267  10.470  14.555   2.037
24790SOL    HW276268  10.330  14.532   2.090
24791SOL     OW76269  12.674   5.511  12.520
24791SOL    HW176270  12.667   5.575  12.590
24791SOL    HW276271  12.584   5.477  12.510
24792SOL     OW76272   7.493  11.153   2.638
24792SOL    HW176273   7.517  11.073   2.589
24792SOL    HW276274   7.575  11.180   2.680
24793SOL     OW76275  13.704   3.475   4.092
24793SOL    HW176276  13.715   3.546   4.155
24793SOL    HW276277  13.764   3.407   4.122
24794SOL     OW76278   4.555   7.851  13.502
24794SOL    HW176279   4.490   7.907  13.461
24794SOL    HW276280   4.505   7.776  13.535
24795SOL     OW76281   7.302   0.848   7.095
24795SOL    HW176282   7.356   0.791   7.041
24795SOL    HW276283   7.215   0.810   7.092
24796SOL     OW76284  12.339  11.076   0.828
24796SOL    HW176285  12.384  11.143   0.777
24796SOL    HW276286  12.273  11.124   0.878
24797SOL     OW76287   1.124  12.884  11.432
24797SOL    HW176288   1.128  12.950  11.363
24797SOL    HW276289   1.091  12.931  11.509
24798SOL     OW76290   0.247   1.077  12.591
24798SOL    HW176291   0.248   0.991  12.633
24798SOL    HW276292   0.172   1.073  12.531
24799SOL     OW76293   8.367   7.671  11.504
24799SOL    HW176294   8.373   7.650  11.598
24799SOL    HW276295   8.299   7.613  11.471
24800SOL     OW76296   8.518  10.719   1.731
24800SOL    HW176297   8.476  10.708   1.645
24800SOL    HW276298   8.477  10.796   1.768
24801SOL     OW76299  12.070   8.214   1.383
24801SOL    HW176300  12.044   8.305   1.396
24801SOL    HW276301  12.004   8.178   1.324
24802SOL     OW76302   3.780   3.757  13.106
24802SOL    HW176303   3.694   3.738  13.070
24802SOL    HW276304   3.830   3.791  13.032
24803SOL     OW76305   1.165   7.725   9.443
24803SOL    HW176306   1.203   7.753   9.526
24803SOL    HW276307   1.185   7.631   9.438
24804SOL     OW76308   0.432  13.800   0.187
24804SOL    HW176309   0.408  13.734   0.251
24804SOL    HW276310   0.515  13.835   0.220
24805SOL     OW76311  10.330   7.630  10.639
24805SOL    HW176312  10.395   7.648  10.571
24805SOL    HW276313  10.334   7.535  10.652
24806SOL     OW76314   8.529  12.370   3.643
24806SOL    HW176315   8.549  12.286   3.685
24806SOL    HW276316   8.435  12.381   3.657
24807SOL     OW76317   2.280   1.640   6.770
24807SOL    HW176318   2.188   1.620   6.791
24807SOL    HW276319   2.330   1.582   6.827
24808SOL     OW76320   7.310  10.604  13.930
24808SOL    HW176321   7.325  10.683  13.877
24808SOL    HW276322   7.249  10.552  13.878
24809SOL     OW76323   7.122  14.401   4.456
24809SOL    HW176324   7.092  14.320   4.416
24809SOL    HW276325   7.071  14.409   4.537
24810SOL     OW76326  11.301   8.833   3.837
24810SOL    HW176327  11.344   8.849   3.753
24810SOL    HW276328  11.220   8.883   3.832
24811SOL     OW76329   6.807   7.896   4.395
24811SOL    HW176330   6.861   7.818   4.381
24811SOL    HW276331   6.777   7.920   4.307
24812SOL     OW76332   4.081   8.611   8.518
24812SOL    HW176333   4.127   8.566   8.589
24812SOL    HW276334   4.012   8.661   8.562
24813SOL     OW76335   8.736   0.801  13.798
24813SOL    HW176336   8.758   0.810  13.706
24813SOL    HW276337   8.761   0.885  13.837
24814SOL     OW76338   8.171   2.584   6.772
24814SOL    HW176339   8.190   2.532   6.693
24814SOL    HW276340   8.253   2.629   6.791
24815SOL     OW76341   5.832  14.838   8.349
24815SOL    HW176342   5.871   0.017   8.278
24815SOL    HW276343   5.886  14.759   8.354
24816SOL     OW76344   0.582  11.534  10.355
24816SOL    HW176345   0.614  11.445  10.365
24816SOL    HW276346   0.555  11.560  10.444
24817SOL     OW76347   9.145   0.150   6.160
24817SOL    HW176348   9.143   0.215   6.090
24817SOL    HW276349   9.236   0.149   6.189
24818SOL     OW76350   6.486   2.060   8.896
24818SOL    HW176351   6.437   2.095   8.971
24818SOL    HW276352   6.517   2.138   8.849
24819SOL     OW76353  11.866   4.012  12.571
24819SOL    HW176354  11.953   3.977  12.555
24819SOL    HW276355  11.814   3.937  12.599
24820SOL     OW76356   0.218   3.063   0.179
24820SOL    HW176357   0.267   2.998   0.129
24820SOL    HW276358   0.175   3.013   0.248
24821SOL     OW76359   0.302   0.916  10.768
24821SOL    HW176360   0.319   1.010  10.761
24821SOL    HW276361   0.270   0.890  10.682
24822SOL     OW76362  11.173   0.802  11.364
24822SOL    HW176363  11.240   0.764  11.420
24822SOL    HW276364  11.093   0.799  11.418
24823SOL     OW76365   6.326   0.907  14.231
24823SOL    HW176366   6.320   0.834  14.170
24823SOL    HW276367   6.365   0.978  14.180
24824SOL     OW76368   1.190  12.181  14.350
24824SOL    HW176369   1.273  12.222  14.326
24824SOL    HW276370   1.207  12.087  14.344
24825SOL     OW76371   0.655  14.638  13.447
24825SOL    HW176372   0.592  14.568  13.461
24825SOL    HW276373   0.738  14.593  13.429
24826SOL     OW76374  12.767   2.370   0.469
24826SOL    HW176375  12.807   2.447   0.511
24826SOL    HW276376  12.680   2.399   0.443
24827SOL     OW76377  12.594  11.005   0.584
24827SOL    HW176378  12.598  10.923   0.633
24827SOL    HW276379  12.559  11.069   0.647
24828SOL     OW76380  13.564   2.341   8.746
24828SOL    HW176381  13.586   2.320   8.837
24828SOL    HW276382  13.469   2.335   8.741
24829SOL     OW76383   6.865  14.548   9.809
24829SOL    HW176384   6.901  14.461   9.792
24829SOL    HW276385   6.809  14.566   9.734
24830SOL     OW76386  13.559   6.792  12.335
24830SOL    HW176387  13.579   6.855  12.404
24830SOL    HW276388  13.466   6.772  12.347
24831SOL     OW76389   7.020   0.357  14.254
24831SOL    HW176390   6.939   0.375  14.206
24831SOL    HW276391   7.000   0.278  14.305
24832SOL     OW76392   1.113   8.991   6.150
24832SOL    HW176393   1.137   8.904   6.118
24832SOL    HW276394   1.127   8.986   6.245
24833SOL     OW76395  10.240   6.756   3.716
24833SOL    HW176396  10.299   6.811   3.665
24833SOL    HW276397  10.172   6.730   3.653
24834SOL     OW76398   5.455   7.271  13.530
24834SOL    HW176399   5.445   7.346  13.472
24834SOL    HW276400   5.534   7.290  13.581
24835SOL     OW76401   9.426   3.108  11.420
24835SOL    HW176402   9.484   3.089  11.346
24835SOL    HW276403   9.478   3.085  11.497
24836SOL     OW76404  14.860  11.238   8.327
24836SOL    HW176405   0.035  11.292   8.263
24836SOL    HW276406  14.782  11.289   8.349
24837SOL     OW76407  10.249   4.801   9.806
24837SOL    HW176408  10.286   4.734   9.864
24837SOL    HW276409  10.176   4.838   9.855
24838SOL     OW76410   1.475  10.572   0.988
24838SOL    HW176411   1.515  10.587   1.074
24838SOL    HW276412   1.548  10.582   0.926
24839SOL     OW76413  10.145   7.639  12.302
24839SOL    HW176414  10.062   7.631  12.254
24839SOL    HW276415  10.213   7.621  12.237
24840SOL     OW76416   3.926  12.376   8.877
24840SOL    HW176417   3.838  12.340   8.883
24840SOL    HW276418   3.972  12.318   8.817
24841SOL     OW76419  11.844   6.090  14.024
24841SOL    HW176420  11.871   6.181  14.012
24841SOL    HW276421  11.925   6.040  14.014
24842SOL     OW76422   7.625   8.162  13.325
24842SOL    HW176423   7.552   8.217  13.298
24842SOL    HW276424   7.671   8.215  13.390
24843SOL     OW76425   4.248  13.179   3.151
24843SOL    HW176426   4.306  13.205   3.079
24843SOL    HW276427   4.229  13.087   3.134
24844SOL     OW76428   8.985  13.217  11.224
24844SOL    HW176429   8.971  13.194  11.316
24844SOL    HW276430   8.985  13.133  11.178
24845SOL     OW76431  11.871  11.009   2.713
24845SOL    HW176432  11.877  11.096   2.674
24845SOL    HW276433  11.777  10.997   2.730
24846SOL     OW76434   9.305   3.830   3.095
24846SOL    HW176435   9.244   3.819   3.168
24846SOL    HW276436   9.285   3.917   3.059
24847SOL     OW76437  10.200  10.283   2.635
24847SOL    HW176438  10.271  10.239   2.682
24847SOL    HW276439  10.129  10.219   2.636
24848SOL     OW76440   2.069  12.080  13.894
24848SOL    HW176441   2.157  12.070  13.931
24848SOL    HW276442   2.022  12.004  13.928
24849SOL     OW76443  13.723   6.443   3.719
24849SOL    HW176444  13.662   6.433   3.792
24849SOL    HW276445  13.797   6.490   3.756
24850SOL     OW76446   6.246   7.530  14.439
24850SOL    HW176447   6.286   7.444  14.424
24850SOL    HW276448   6.310   7.577  14.493
24851SOL     OW76449  11.048   6.301   8.384
24851SOL    HW176450  10.992   6.296   8.462
24851SOL    HW276451  11.020   6.382   8.340
24852SOL     OW76452  12.663   0.330  14.760
24852SOL    HW176453  12.701   0.276  14.691
24852SOL    HW276454  12.716   0.309  14.838
24853SOL     OW76455   6.187   1.894   0.095
24853SOL    HW176456   6.278   1.894   0.127
24853SOL    HW276457   6.182   1.817   0.039
24854SOL     OW76458  10.591   7.918  11.853
24854SOL    HW176459  10.595   7.983  11.923
24854SOL    HW276460  10.636   7.842  11.888
24855SOL     OW76461   0.085   8.688   3.085
24855SOL    HW176462   0.173   8.651   3.083
24855SOL    HW276463   0.098   8.780   3.110
24856SOL     OW76464   4.136   0.336   1.396
24856SOL    HW176465   4.176   0.368   1.315
24856SOL    HW276466   4.104   0.249   1.373
24857SOL     OW76467  12.632   4.449   3.436
24857SOL    HW176468  12.647   4.501   3.357
24857SOL    HW276469  12.680   4.496   3.505
24858SOL     OW76470   9.829  14.396   9.975
24858SOL    HW176471   9.878  14.314   9.963
24858SOL    HW276472   9.753  14.387   9.917
24859SOL     OW76473   0.912   1.940   6.218
24859SOL    HW176474   0.930   2.004   6.288
24859SOL    HW276475   0.992   1.889   6.211
24860SOL     OW76476   0.874   8.470   6.523
24860SOL    HW176477   0.862   8.482   6.429
24860SOL    HW276478   0.796   8.421   6.551
24861SOL     OW76479   1.969   1.191   1.193
24861SOL    HW176480   1.948   1.283   1.179
24861SOL    HW276481   1.915   1.144   1.130
24862SOL     OW76482  13.520  14.271  10.067
24862SOL    HW176483  13.592  14.213  10.090
24862SOL    HW276484  13.534  14.349  10.121
24863SOL     OW76485   7.584   7.148   2.423
24863SOL    HW176486   7.528   7.071   2.430
24863SOL    HW276487   7.524   7.223   2.424
24864SOL     OW76488   3.118   8.628  13.970
24864SOL    HW176489   3.078   8.712  13.946
24864SOL    HW276490   3.103   8.572  13.894
24865SOL     OW76491   5.530   2.708   9.514
24865SOL    HW176492   5.550   2.698   9.607
24865SOL    HW276493   5.589   2.647   9.470
24866SOL     OW76494   1.844   1.105  11.430
24866SOL    HW176495   1.880   1.147  11.352
24866SOL    HW276496   1.756   1.077  11.403
24867SOL     OW76497   4.717  13.704  10.471
24867SOL    HW176498   4.654  13.775  10.486
24867SOL    HW276499   4.701  13.642  10.543
24868SOL     OW76500   0.463  12.740   1.842
24868SOL    HW176501   0.460  12.804   1.770
24868SOL    HW276502   0.390  12.680   1.822
24869SOL     OW76503   2.913   6.093  12.498
24869SOL    HW176504   2.881   6.141  12.574
24869SOL    HW276505   2.962   6.158  12.447
24870SOL     OW76506   4.550  12.238  12.521
24870SOL    HW176507   4.508  12.159  12.488
24870SOL    HW276508   4.572  12.288  12.442
24871SOL     OW76509  10.236   0.064   9.535
24871SOL    HW176510  10.277   0.111   9.608
24871SOL    HW276511  10.204  14.854   9.574
24872SOL     OW76512   6.353   0.310   3.341
24872SOL    HW176513   6.269   0.353   3.356
24872SOL    HW276514   6.353   0.237   3.403
24873SOL     OW76515  12.258  11.073   5.446
24873SOL    HW176516  12.290  11.005   5.387
24873SOL    HW276517  12.292  11.048   5.532
24874SOL     OW76518   1.812   9.773  10.136
24874SOL    HW176519   1.774   9.718  10.204
24874SOL    HW276520   1.791   9.728  10.054
24875SOL     OW76521  12.054  14.263   8.995
24875SOL    HW176522  12.122  14.287   9.059
24875SOL    HW276523  12.091  14.291   8.910
24876SOL     OW76524   3.404  13.296   8.825
24876SOL    HW176525   3.396  13.297   8.920
24876SOL    HW276526   3.442  13.211   8.804
24877SOL     OW76527  12.997   6.045   5.179
24877SOL    HW176528  12.956   5.996   5.108
24877SOL    HW276529  13.087   6.057   5.150
24878SOL     OW76530  14.166  10.270   1.617
24878SOL    HW176531  14.240  10.274   1.678
24878SOL    HW276532  14.158  10.360   1.584
24879SOL     OW76533   5.662  10.502   4.816
24879SOL    HW176534   5.608  10.424   4.801
24879SOL    HW276535   5.687  10.530   4.728
24880SOL     OW76536   5.131   9.506  14.431
24880SOL    HW176537   5.143   9.543  14.519
24880SOL    HW276538   5.215   9.465  14.411
24881SOL     OW76539   5.973   5.631   9.612
24881SOL    HW176540   5.893   5.607   9.565
24881SOL    HW276541   5.941   5.675   9.691
24882SOL     OW76542  11.241   9.600   9.609
24882SOL    HW176543  11.188   9.596   9.688
24882SOL    HW276544  11.328   9.626   9.640
24883SOL     OW76545   2.782   6.102   1.792
24883SOL    HW176546   2.737   6.187   1.790
24883SOL    HW276547   2.788   6.080   1.885
24884SOL     OW76548  11.540   8.198  14.663
24884SOL    HW176549  11.446   8.216  14.671
24884SOL    HW276550  11.570   8.259  14.596
24885SOL     OW76551   1.297  14.470  11.278
24885SOL    HW176552   1.209  14.470  11.240
24885SOL    HW276553   1.284  14.496  11.369
24886SOL     OW76554   7.344   6.026   4.233
24886SOL    HW176555   7.357   6.060   4.321
24886SOL    HW276556   7.360   6.101   4.176
24887SOL     OW76557  12.143   9.106   8.099
24887SOL    HW176558  12.107   9.108   8.011
24887SOL    HW276559  12.231   9.142   8.090
24888SOL     OW76560  12.851  11.640  13.328
24888SOL    HW176561  12.928  11.659  13.382
24888SOL    HW276562  12.870  11.684  13.245
24889SOL     OW76563  12.604  12.468  10.289
24889SOL    HW176564  12.545  12.417  10.233
24889SOL    HW276565  12.618  12.413  10.365
24890SOL     OW76566   2.638  14.136   9.034
24890SOL    HW176567   2.590  14.100   8.959
24890SOL    HW276568   2.716  14.082   9.041
24891SOL     OW76569  10.632   8.632  13.036
24891SOL    HW176570  10.628   8.581  12.955
24891SOL    HW276571  10.688   8.706  13.016
24892SOL     OW76572   6.965   5.776  10.350
24892SOL    HW176573   7.054   5.782  10.384
24892SOL    HW276574   6.976   5.781  10.255
24893SOL     OW76575  12.916   9.605  11.368
24893SOL    HW176576  13.010   9.588  11.375
24893SOL    HW276577  12.900   9.679  11.426
24894SOL     OW76578   6.671  13.498  14.869
24894SOL    HW176579   6.713  13.556   0.060
24894SOL    HW276580   6.705  13.411   0.018
24895SOL     OW76581   1.760   0.337  12.568
24895SOL    HW176582   1.814   0.281  12.625
24895SOL    HW276583   1.734   0.280  12.496
24896SOL     OW76584   4.438  11.843   2.856
24896SOL    HW176585   4.360  11.868   2.808
24896SOL    HW276586   4.405  11.795   2.932
24897SOL     OW76587   8.039  13.374   0.339
24897SOL    HW176588   7.997  13.298   0.380
24897SOL    HW276589   8.098  13.408   0.406
24898SOL     OW76590   4.230   2.909  12.257
24898SOL    HW176591   4.162   2.844  12.246
24898SOL    HW276592   4.186   2.985  12.295
24899SOL     OW76593   5.535   3.681   3.686
24899SOL    HW176594   5.604   3.737   3.651
24899SOL    HW276595   5.454   3.723   3.657
24900SOL     OW76596   6.495   4.189   8.872
24900SOL    HW176597   6.415   4.181   8.925
24900SOL    HW276598   6.510   4.283   8.867
24901SOL     OW76599   0.913  14.182   1.058
24901SOL    HW176600   0.992  14.128   1.064
24901SOL    HW276601   0.902  14.220   1.145
24902SOL     OW76602  10.517  11.544  11.817
24902SOL    HW176603  10.535  11.629  11.857
24902SOL    HW276604  10.500  11.565  11.725
24903SOL     OW76605   5.223  13.654  10.518
24903SOL    HW176606   5.146  13.626  10.568
24903SOL    HW276607   5.196  13.648  10.427
24904SOL     OW76608   5.582   6.061  10.712
24904SOL    HW176609   5.644   6.118  10.666
24904SOL    HW276610   5.556   6.111  10.789
24905SOL     OW76611   4.251   2.448   7.223
24905SOL    HW176612   4.306   2.447   7.302
24905SOL    HW276613   4.277   2.528   7.177
24906SOL     OW76614   6.735  13.715   0.150
24906SOL    HW176615   6.755  13.713   0.244
24906SOL    HW276616   6.667  13.782   0.142
24907SOL     OW76617   2.000   8.136   7.078
24907SOL    HW176618   1.958   8.219   7.057
24907SOL    HW276619   2.092   8.149   7.055
24908SOL     OW76620  10.603   5.475   7.978
24908SOL    HW176621  10.657   5.548   8.008
24908SOL    HW276622  10.513   5.504   7.992
24909SOL     OW76623   2.618  14.535   8.673
24909SOL    HW176624   2.582  14.517   8.760
24909SOL    HW276625   2.713  14.536   8.685
24910SOL     OW76626  14.495   3.470   5.885
24910SOL    HW176627  14.404   3.455   5.909
24910SOL    HW276628  14.491   3.512   5.800
24911SOL     OW76629  14.148  13.881  10.348
24911SOL    HW176630  14.087  13.876  10.275
24911SOL    HW276631  14.142  13.971  10.378
24912SOL     OW76632   0.230   6.615   4.907
24912SOL    HW176633   0.249   6.708   4.923
24912SOL    HW276634   0.313   6.570   4.924
24913SOL     OW76635   1.436  13.697   8.210
24913SOL    HW176636   1.473  13.665   8.128
24913SOL    HW276637   1.476  13.642   8.277
24914SOL     OW76638  13.429   4.724  11.018
24914SOL    HW176639  13.409   4.741  11.111
24914SOL    HW276640  13.472   4.638  11.019
24915SOL     OW76641   9.473   7.034   0.998
24915SOL    HW176642   9.430   7.057   0.916
24915SOL    HW276643   9.511   7.116   1.029
24916SOL     OW76644   8.713   2.133   8.648
24916SOL    HW176645   8.718   2.180   8.731
24916SOL    HW276646   8.645   2.177   8.598
24917SOL     OW76647   7.474   3.348   0.234
24917SOL    HW176648   7.526   3.411   0.283
24917SOL    HW276649   7.507   3.262   0.260
24918SOL     OW76650   4.338   3.558  14.200
24918SOL    HW176651   4.305   3.644  14.176
24918SOL    HW276652   4.266   3.498  14.182
24919SOL     OW76653  12.786  13.028   2.293
24919SOL    HW176654  12.755  13.079   2.368
24919SOL    HW276655  12.846  13.086   2.246
24920SOL     OW76656   0.522   2.101  10.826
24920SOL    HW176657   0.512   2.195  10.811
24920SOL    HW276658   0.546   2.094  10.919
24921SOL     OW76659   2.057   8.399  12.562
24921SOL    HW176660   1.990   8.455  12.525
24921SOL    HW276661   2.012   8.318  12.584
24922SOL     OW76662   0.322   8.379   0.772
24922SOL    HW176663   0.275   8.304   0.806
24922SOL    HW276664   0.326   8.440   0.845
24923SOL     OW76665  13.450   1.712   4.739
24923SOL    HW176666  13.539   1.704   4.775
24923SOL    HW276667  13.433   1.627   4.699
24924SOL     OW76668  11.116   4.155  13.729
24924SOL    HW176669  11.122   4.085  13.664
24924SOL    HW276670  11.207   4.177  13.749
24925SOL     OW76671  14.507   9.827   6.549
24925SOL    HW176672  14.577   9.836   6.614
24925SOL    HW276673  14.487   9.917   6.522
24926SOL     OW76674  14.639   3.032   0.053
24926SOL    HW176675  14.550   3.017   0.021
24926SOL    HW276676  14.627   3.065   0.142
24927SOL     OW76677  13.087   4.937  12.661
24927SOL    HW176678  13.033   4.934  12.740
24927SOL    HW276679  13.034   4.984  12.597
24928SOL     OW76680  13.556  12.246  11.065
24928SOL    HW176681  13.611  12.173  11.039
24928SOL    HW276682  13.607  12.324  11.044
24929SOL     OW76683   5.705   9.693   7.818
24929SOL    HW176684   5.674   9.614   7.774
24929SOL    HW276685   5.658   9.765   7.775
24930SOL     OW76686  14.172  10.806  11.974
24930SOL    HW176687  14.172  10.717  12.010
24930SOL    HW276688  14.226  10.800  11.896
24931SOL     OW76689   4.089   3.708   0.389
24931SOL    HW176690   4.038   3.778   0.429
24931SOL    HW276691   4.177   3.744   0.380
24932SOL     OW76692   0.998  11.243  12.441
24932SOL    HW176693   1.091  11.245  12.419
24932SOL    HW276694   0.964  11.328  12.413
24933SOL     OW76695   8.650  12.235   5.783
24933SOL    HW176696   8.735  12.208   5.820
24933SOL    HW276697   8.630  12.168   5.717
24934SOL     OW76698   7.257   9.780   2.504
24934SOL    HW176699   7.177   9.779   2.556
24934SOL    HW276700   7.321   9.825   2.560
24935SOL     OW76701  13.190   6.203   4.585
24935SOL    HW176702  13.179   6.161   4.671
24935SOL    HW276703  13.251   6.275   4.601
24936SOL     OW76704   2.444  10.389   4.199
24936SOL    HW176705   2.476  10.421   4.114
24936SOL    HW276706   2.442  10.467   4.255
24937SOL     OW76707   6.077   7.150   0.484
24937SOL    HW176708   6.042   7.088   0.548
24937SOL    HW276709   6.087   7.100   0.404
24938SOL     OW76710  10.255   1.670  13.622
24938SOL    HW176711  10.325   1.717  13.577
24938SOL    HW276712  10.258   1.582  13.584
24939SOL     OW76713   5.862   0.608   7.393
24939SOL    HW176714   5.783   0.653   7.424
24939SOL    HW276715   5.899   0.666   7.327
24940SOL     OW76716   3.552  10.644  14.802
24940SOL    HW176717   3.546  10.739  14.794
24940SOL    HW276718   3.580  10.629   0.021
24941SOL     OW76719   2.714  12.385   6.015
24941SOL    HW176720   2.650  12.388   5.944
24941SOL    HW276721   2.791  12.430   5.980
24942SOL     OW76722  12.671   4.321  12.183
24942SOL    HW176723  12.683   4.415  12.197
24942SOL    HW276724  12.690   4.308  12.090
24943SOL     OW76725  13.222  12.994  14.177
24943SOL    HW176726  13.310  12.976  14.143
24943SOL    HW276727  13.221  12.953  14.264
24944SOL     OW76728   9.298  13.002  10.044
24944SOL    HW176729   9.266  13.033  10.129
24944SOL    HW276730   9.220  12.972   9.999
24945SOL     OW76731   3.491   7.196  12.499
24945SOL    HW176732   3.566   7.254  12.516
24945SOL    HW276733   3.526   7.130  12.439
24946SOL     OW76734   5.878   2.203   1.651
24946SOL    HW176735   5.815   2.195   1.580
24946SOL    HW276736   5.961   2.171   1.614
24947SOL     OW76737   9.576   4.162   8.031
24947SOL    HW176738   9.518   4.135   8.103
24947SOL    HW276739   9.588   4.256   8.044
24948SOL     OW76740   0.105   8.637   8.267
24948SOL    HW176741   0.176   8.659   8.328
24948SOL    HW276742   0.037   8.597   8.322
24949SOL     OW76743   8.241   5.607  13.148
24949SOL    HW176744   8.200   5.694  13.150
24949SOL    HW276745   8.172   5.548  13.119
24950SOL     OW76746   7.199  11.387   2.504
24950SOL    HW176747   7.126  11.364   2.445
24950SOL    HW276748   7.157  11.411   2.586
24951SOL     OW76749   9.273   5.408  13.781
24951SOL    HW176750   9.219   5.485  13.760
24951SOL    HW276751   9.362   5.435  13.758
24952SOL     OW76752   2.823  12.110   5.668
24952SOL    HW176753   2.895  12.064   5.711
24952SOL    HW276754   2.768  12.041   5.632
24953SOL     OW76755   0.421  12.574   0.607
24953SOL    HW176756   0.483  12.637   0.644
24953SOL    HW276757   0.365  12.626   0.549
24954SOL     OW76758   7.384   9.842  11.795
24954SOL    HW176759   7.466   9.882  11.766
24954SOL    HW276760   7.364   9.886  11.878
24955SOL     OW76761   6.462   4.195   3.613
24955SOL    HW176762   6.442   4.114   3.566
24955SOL    HW276763   6.418   4.185   3.698
24956SOL     OW76764  11.231  13.453   5.194
24956SOL    HW176765  11.197  13.381   5.141
24956SOL    HW276766  11.208  13.531   5.144
24957SOL     OW76767   6.929  10.979   9.417
24957SOL    HW176768   6.938  10.941   9.504
24957SOL    HW276769   6.989  11.054   9.417
24958SOL     OW76770   2.732  11.622   7.002
24958SOL    HW176771   2.781  11.615   6.920
24958SOL    HW276772   2.684  11.705   6.994
24959SOL     OW76773  13.666   0.636   3.901
24959SOL    HW176774  13.587   0.610   3.949
24959SOL    HW276775  13.692   0.557   3.854
24960SOL     OW76776   3.863   8.286   8.230
24960SOL    HW176777   3.814   8.340   8.168
24960SOL    HW276778   3.816   8.203   8.233
24961SOL     OW76779   2.617   6.888   1.042
24961SOL    HW176780   2.611   6.978   1.008
24961SOL    HW276781   2.699   6.887   1.091
24962SOL     OW76782   3.999  12.340   0.197
24962SOL    HW176783   4.091  12.341   0.224
24962SOL    HW276784   3.974  12.432   0.194
24963SOL     OW76785  13.287   8.628   0.448
24963SOL    HW176786  13.332   8.653   0.367
24963SOL    HW276787  13.336   8.552   0.479
24964SOL     OW76788   3.361   4.219   5.485
24964SOL    HW176789   3.342   4.127   5.506
24964SOL    HW276790   3.397   4.255   5.567
24965SOL     OW76791   2.546   3.050  12.834
24965SOL    HW176792   2.585   3.122  12.883
24965SOL    HW276793   2.620   3.005  12.793
24966SOL     OW76794   3.455   4.001   7.707
24966SOL    HW176795   3.524   3.960   7.655
24966SOL    HW276796   3.467   3.967   7.795
24967SOL     OW76797  13.872  13.218   1.524
24967SOL    HW176798  13.921  13.138   1.545
24967SOL    HW276799  13.798  13.188   1.471
24968SOL     OW76800  10.253   4.498   7.194
24968SOL    HW176801  10.211   4.489   7.109
24968SOL    HW276802  10.339   4.535   7.175
24969SOL     OW76803   7.066   5.146   6.873
24969SOL    HW176804   7.071   5.224   6.928
24969SOL    HW276805   6.976   5.146   6.839
24970SOL     OW76806   6.811   2.505   0.198
24970SOL    HW176807   6.733   2.451   0.183
24970SOL    HW276808   6.866   2.454   0.257
24971SOL     OW76809   5.786   8.191   9.829
24971SOL    HW176810   5.876   8.190   9.863
24971SOL    HW276811   5.793   8.232   9.743
24972SOL     OW76812   9.893   8.380   5.930
24972SOL    HW176813   9.932   8.417   5.850
24972SOL    HW276814   9.809   8.424   5.938
24973SOL     OW76815   8.600   8.643   4.147
24973SOL    HW176816   8.643   8.584   4.086
24973SOL    HW276817   8.585   8.590   4.225
24974SOL     OW76818   7.401   8.836   6.924
24974SOL    HW176819   7.345   8.762   6.900
24974SOL    HW276820   7.361   8.911   6.880
24975SOL     OW76821   1.864   4.957  10.936
24975SOL    HW176822   1.861   4.864  10.914
24975SOL    HW276823   1.809   4.965  11.014
24976SOL     OW76824   1.649  11.171  11.545
24976SOL    HW176825   1.650  11.256  11.500
24976SOL    HW276826   1.736  11.163  11.584
24977SOL     OW76827   8.768   2.075  12.496
24977SOL    HW176828   8.733   2.075  12.407
24977SOL    HW276829   8.801   1.986  12.508
24978SOL     OW76830   0.274   4.040   6.991
24978SOL    HW176831   0.204   4.051   6.927
24978SOL    HW276832   0.303   3.950   6.980
24979SOL     OW76833   6.940  10.572   7.148
24979SOL    HW176834   6.932  10.542   7.058
24979SOL    HW276835   7.026  10.542   7.176
24980SOL     OW76836  13.095  11.867   5.322
24980SOL    HW176837  13.190  11.873   5.307
24980SOL    HW276838  13.085  11.794   5.382
24981SOL     OW76839   2.970   7.217   9.227
24981SOL    HW176840   3.043   7.279   9.217
24981SOL    HW276841   2.991   7.168   9.307
24982SOL     OW76842   1.865   2.454  13.092
24982SOL    HW176843   1.958   2.436  13.102
24982SOL    HW276844   1.834   2.471  13.181
24983SOL     OW76845  14.693  14.611  13.805
24983SOL    HW176846  14.692  14.563  13.722
24983SOL    HW276847  14.772  14.664  13.801
24984SOL     OW76848   4.019   7.994   9.229
24984SOL    HW176849   3.979   8.078   9.253
24984SOL    HW276850   4.067   7.968   9.308
24985SOL     OW76851  11.252   6.427  12.009
24985SOL    HW176852  11.244   6.487  11.936
24985SOL    HW276853  11.271   6.483  12.085
24986SOL     OW76854   7.075   8.745   2.914
24986SOL    HW176855   7.017   8.765   2.988
24986SOL    HW276856   7.071   8.650   2.905
24987SOL     OW76857   2.109   9.394   3.992
24987SOL    HW176858   2.138   9.407   3.902
24987SOL    HW276859   2.076   9.304   3.994
24988SOL     OW76860  12.588   8.525  12.536
24988SOL    HW176861  12.579   8.519  12.441
24988SOL    HW276862  12.541   8.448  12.569
24989SOL     OW76863   4.428   6.002  13.299
24989SOL    HW176864   4.472   5.965  13.223
24989SOL    HW276865   4.444   6.096  13.293
24990SOL     OW76866   8.952  11.944   3.577
24990SOL    HW176867   8.910  11.899   3.503
24990SOL    HW276868   8.922  11.896   3.654
24991SOL     OW76869   9.123   8.004   5.548
24991SOL    HW176870   9.147   8.085   5.592
24991SOL    HW276871   9.167   8.008   5.464
24992SOL     OW76872  14.245   3.848   3.499
24992SOL    HW176873  14.160   3.889   3.486
24992SOL    HW276874  14.233   3.758   3.470
24993SOL     OW76875  10.518  13.863   8.751
24993SOL    HW176876  10.450  13.894   8.810
24993SOL    HW276877  10.560  13.943   8.718
24994SOL     OW76878   3.131   9.709  14.131
24994SOL    HW176879   3.217   9.748  14.143
24994SOL    HW276880   3.075   9.753  14.195
24995SOL     OW76881   8.304  12.418  11.539
24995SOL    HW176882   8.227  12.424  11.594
24995SOL    HW276883   8.287  12.477  11.466
24996SOL     OW76884  10.262   2.410  12.925
24996SOL    HW176885  10.336   2.420  12.986
24996SOL    HW276886  10.203   2.482  12.947
24997SOL     OW76887   6.841   8.537   0.614
24997SOL    HW176888   6.858   8.525   0.707
24997SOL    HW276889   6.813   8.451   0.583
24998SOL     OW76890   7.183   4.070  14.789
24998SOL    HW176891   7.247   4.009  14.751
24998SOL    HW276892   7.100   4.047  14.748
24999SOL     OW76893   6.097  14.409  10.553
24999SOL    HW176894   6.155  14.374  10.486
24999SOL    HW276895   6.010  14.404  10.514
25000SOL     OW76896  13.422   0.856   4.726
25000SOL    HW176897  13.503   0.832   4.771
25000SOL    HW276898  13.354   0.842   4.791
25001SOL     OW76899  12.379   4.235  14.281
25001SOL    HW176900  12.398   4.236  14.374
25001SOL    HW276901  12.365   4.327  14.258
25002SOL     OW76902   6.033   3.766   1.832
25002SOL    HW176903   6.009   3.714   1.755
25002SOL    HW276904   6.021   3.857   1.804
25003SOL     OW76905   5.793  10.709  12.461
25003SOL    HW176906   5.860  10.661  12.412
25003SOL    HW276907   5.839  10.786  12.495
25004SOL     OW76908  13.135   1.993  10.659
25004SOL    HW176909  13.119   2.075  10.612
25004SOL    HW276910  13.117   2.014  10.750
25005SOL     OW76911   9.852   2.757   8.322
25005SOL    HW176912   9.798   2.724   8.250
25005SOL    HW276913   9.882   2.678   8.367
25006SOL     OW76914  10.446   7.140   6.166
25006SOL    HW176915  10.368   7.146   6.221
25006SOL    HW276916  10.426   7.196   6.091
25007SOL     OW76917   1.508   2.790   8.178
25007SOL    HW176918   1.455   2.848   8.233
25007SOL    HW276919   1.598   2.819   8.194
25008SOL     OW76920  12.214   5.383   8.158
25008SOL    HW176921  12.241   5.407   8.246
25008SOL    HW276922  12.293   5.348   8.117
25009SOL     OW76923   7.976   4.666   6.204
25009SOL    HW176924   7.922   4.588   6.214
25009SOL    HW276925   7.968   4.712   6.288
25010SOL     OW76926   7.558   0.455   2.866
25010SOL    HW176927   7.493   0.469   2.934
25010SOL    HW276928   7.603   0.374   2.892
25011SOL     OW76929  11.669   1.627  10.332
25011SOL    HW176930  11.699   1.713  10.304
25011SOL    HW276931  11.706   1.566  10.267
25012SOL     OW76932  14.557  11.946   4.219
25012SOL    HW176933  14.543  11.943   4.124
25012SOL    HW276934  14.642  11.904   4.233
25013SOL     OW76935   8.567  11.518  14.384
25013SOL    HW176936   8.564  11.527  14.289
25013SOL    HW276937   8.557  11.425  14.400
25014SOL     OW76938   2.739   2.799   2.901
25014SOL    HW176939   2.831   2.814   2.878
25014SOL    HW276940   2.717   2.717   2.858
25015SOL     OW76941   7.940   1.960   3.516
25015SOL    HW176942   7.970   1.912   3.593
25015SOL    HW276943   8.019   2.002   3.482
25016SOL     OW76944   5.255  10.903   1.478
25016SOL    HW176945   5.174  10.953   1.470
25016SOL    HW276946   5.301  10.916   1.395
25017SOL     OW76947   0.993   3.606   3.744
25017SOL    HW176948   1.036   3.674   3.693
25017SOL    HW276949   0.978   3.535   3.681
25018SOL     OW76950   0.073   4.783  13.311
25018SOL    HW176951   0.070   4.849  13.242
25018SOL    HW276952  14.871   4.725  13.290
25019SOL     OW76953   2.353   5.539   5.680
25019SOL    HW176954   2.442   5.573   5.685
25019SOL    HW276955   2.301   5.613   5.648
25020SOL     OW76956  10.932  11.020  10.158
25020SOL    HW176957  10.900  10.932  10.137
25020SOL    HW276958  11.003  11.035  10.096
25021SOL     OW76959   0.615   6.923   7.304
25021SOL    HW176960   0.667   7.002   7.294
25021SOL    HW276961   0.632   6.873   7.224
25022SOL     OW76962   0.837   6.513  10.990
25022SOL    HW176963   0.900   6.506  10.919
25022SOL    HW276964   0.799   6.601  10.979
25023SOL     OW76965   9.178   4.220   8.086
25023SOL    HW176966   9.187   4.311   8.059
25023SOL    HW276967   9.130   4.223   8.168
25024SOL     OW76968  12.437   8.920   4.419
25024SOL    HW176969  12.507   8.961   4.469
25024SOL    HW276970  12.424   8.835   4.460
25025SOL     OW76971  11.946   8.704   2.013
25025SOL    HW176972  11.936   8.697   1.918
25025SOL    HW276973  12.003   8.780   2.026
25026SOL     OW76974   4.441   5.770   7.062
25026SOL    HW176975   4.438   5.680   7.027
25026SOL    HW276976   4.502   5.765   7.135
25027SOL     OW76977   6.707   9.960   1.459
25027SOL    HW176978   6.731  10.029   1.521
25027SOL    HW276979   6.648  10.003   1.398
25028SOL     OW76980   7.111   1.814  10.306
25028SOL    HW176981   7.055   1.870  10.252
25028SOL    HW276982   7.068   1.813  10.391
25029SOL     OW76983  11.699   7.118  11.250
25029SOL    HW176984  11.687   7.072  11.167
25029SOL    HW276985  11.623   7.175  11.257
25030SOL     OW76986   1.293   4.692   2.699
25030SOL    HW176987   1.355   4.687   2.771
25030SOL    HW276988   1.225   4.628   2.721
25031SOL     OW76989   3.821  12.027   0.421
25031SOL    HW176990   3.826  11.959   0.354
25031SOL    HW276991   3.784  12.103   0.375
25032SOL     OW76992   9.118   2.414   7.560
25032SOL    HW176993   9.080   2.363   7.632
25032SOL    HW276994   9.208   2.384   7.553
25033SOL     OW76995  10.701   4.699  11.208
25033SOL    HW176996  10.713   4.719  11.115
25033SOL    HW276997  10.744   4.615  11.220
25034SOL     OW76998   7.243  12.140   3.102
25034SOL    HW176999   7.281  12.165   3.186
25034SOL    HW277000   7.296  12.066   3.073
25035SOL     OW77001  11.019   7.736   3.643
25035SOL    HW177002  10.958   7.810   3.640
25035SOL    HW277003  11.077   7.756   3.717
25036SOL     OW77004   8.747  11.121   7.566
25036SOL    HW177005   8.742  11.216   7.552
25036SOL    HW277006   8.683  11.104   7.636
25037SOL     OW77007  10.980   1.626  11.394
25037SOL    HW177008  11.071   1.643  11.417
25037SOL    HW277009  10.976   1.532  11.377
25038SOL     OW77010  10.119  13.787  11.145
25038SOL    HW177011  10.138  13.880  11.154
25038SOL    HW277012  10.027  13.778  11.168
25039SOL     OW77013  13.150  14.820   2.335
25039SOL    HW177014  13.149   0.031   2.384
25039SOL    HW277015  13.124  14.845   2.246
25040SOL     OW77016   4.299   8.831   1.716
25040SOL    HW177017   4.217   8.826   1.667
25040SOL    HW277018   4.299   8.919   1.754
25041SOL     OW77019   6.655  12.108  14.429
25041SOL    HW177020   6.563  12.098  14.408
25041SOL    HW277021   6.662  12.194  14.470
25042SOL     OW77022   2.202   0.042   6.879
25042SOL    HW177023   2.120   0.072   6.920
25042SOL    HW277024   2.175  14.844   6.820
25043SOL     OW77025   0.334   5.316   7.590
25043SOL    HW177026   0.371   5.259   7.523
25043SOL    HW277027   0.325   5.259   7.667
25044SOL     OW77028  14.100  10.297   8.133
25044SOL    HW177029  14.090  10.204   8.110
25044SOL    HW277030  14.019  10.318   8.180
25045SOL     OW77031   1.966   6.894   0.459
25045SOL    HW177032   1.981   6.967   0.519
25045SOL    HW277033   1.979   6.932   0.372
25046SOL     OW77034  13.349   5.340   3.396
25046SOL    HW177035  13.309   5.324   3.310
25046SOL    HW277036  13.415   5.408   3.380
25047SOL     OW77037   5.180   7.491  11.518
25047SOL    HW177038   5.183   7.547  11.596
25047SOL    HW277039   5.108   7.430  11.534
25048SOL     OW77040  12.578  11.170   6.071
25048SOL    HW177041  12.611  11.108   6.136
25048SOL    HW277042  12.654  11.224   6.050
25049SOL     OW77043   8.152  13.907   7.724
25049SOL    HW177044   8.074  13.857   7.701
25049SOL    HW277045   8.206  13.846   7.774
25050SOL     OW77046   4.162  10.041  11.123
25050SOL    HW177047   4.235  10.100  11.107
25050SOL    HW277048   4.194   9.980  11.190
25051SOL     OW77049   0.273   1.758   6.649
25051SOL    HW177050   0.206   1.754   6.581
25051SOL    HW277051   0.339   1.694   6.622
25052SOL     OW77052   4.101   1.256   1.168
25052SOL    HW177053   4.055   1.329   1.210
25052SOL    HW277054   4.031   1.200   1.133
25053SOL     OW77055   5.944  12.429   3.213
25053SOL    HW177056   5.957  12.519   3.183
25053SOL    HW277057   5.990  12.375   3.148
25054SOL     OW77058   1.526   6.940  11.516
25054SOL    HW177059   1.431   6.948  11.508
25054SOL    HW277060   1.540   6.893  11.598
25055SOL     OW77061  12.809   4.319   1.812
25055SOL    HW177062  12.884   4.364   1.851
25055SOL    HW277063  12.740   4.385   1.809
25056SOL     OW77064   8.378  14.091   4.081
25056SOL    HW177065   8.418  14.174   4.054
25056SOL    HW277066   8.372  14.040   4.001
25057SOL     OW77067   3.604  12.128   8.679
25057SOL    HW177068   3.669  12.086   8.622
25057SOL    HW277069   3.646  12.208   8.709
25058SOL     OW77070  10.996   3.835  11.765
25058SOL    HW177071  10.976   3.921  11.730
25058SOL    HW277072  11.070   3.849  11.824
25059SOL     OW77073   1.474   7.779   3.293
25059SOL    HW177074   1.543   7.712   3.296
25059SOL    HW277075   1.427   7.761   3.212
25060SOL     OW77076   4.512   5.919   3.226
25060SOL    HW177077   4.537   5.984   3.292
25060SOL    HW277078   4.416   5.917   3.229
25061SOL     OW77079  10.110  12.716   1.057
25061SOL    HW177080  10.204  12.732   1.057
25061SOL    HW277081  10.101  12.629   1.018
25062SOL     OW77082   3.244  13.562  14.124
25062SOL    HW177083   3.224  13.610  14.204
25062SOL    HW277084   3.165  13.571  14.071
25063SOL     OW77085   8.352   2.354   1.597
25063SOL    HW177086   8.401   2.435   1.587
25063SOL    HW277087   8.270   2.369   1.550
25064SOL     OW77088   7.355  14.488   8.964
25064SOL    HW177089   7.432  14.432   8.967
25064SOL    HW277090   7.365  14.546   9.040
25065SOL     OW77091   2.215   4.244   9.176
25065SOL    HW177092   2.291   4.280   9.222
25065SOL    HW277093   2.171   4.189   9.241
25066SOL     OW77094   1.288  13.793   8.599
25066SOL    HW177095   1.261  13.869   8.547
25066SOL    HW277096   1.223  13.726   8.580
25067SOL     OW77097  14.865   6.799   2.819
25067SOL    HW177098  14.834   6.831   2.734
25067SOL    HW277099  14.813   6.720   2.835
25068SOL     OW77100   0.882   1.159  11.828
25068SOL    HW177101   0.903   1.192  11.741
25068SOL    HW277102   0.808   1.099  11.813
25069SOL     OW77103   3.513  14.369   6.561
25069SOL    HW177104   3.438  14.356   6.502
25069SOL    HW277105   3.529  14.463   6.559
25070SOL     OW77106   4.350   7.981  13.380
25070SOL    HW177107   4.364   7.970  13.286
25070SOL    HW277108   4.264   7.942  13.396
25071SOL     OW77109   0.108   1.464   8.966
25071SOL    HW177110   0.138   1.395   8.907
25071SOL    HW277111   0.189   1.499   9.004
25072SOL     OW77112   0.376   7.067  13.813
25072SOL    HW177113   0.349   7.150  13.854
25072SOL    HW277114   0.293   7.025  13.789
25073SOL     OW77115   9.878   8.765   3.077
25073SOL    HW177116   9.825   8.835   3.116
25073SOL    HW277117   9.937   8.810   3.017
25074SOL     OW77118   2.227   5.178   6.029
25074SOL    HW177119   2.254   5.115   6.096
25074SOL    HW277120   2.215   5.126   5.950
25075SOL     OW77121   5.758   6.044   7.589
25075SOL    HW177122   5.837   6.058   7.537
25075SOL    HW277123   5.688   6.033   7.525
25076SOL     OW77124   2.490   2.566   3.487
25076SOL    HW177125   2.513   2.659   3.494
25076SOL    HW277126   2.466   2.554   3.396
25077SOL     OW77127   5.499  11.521  13.087
25077SOL    HW177128   5.518  11.428  13.073
25077SOL    HW277129   5.488  11.556  12.999
25078SOL     OW77130   8.387   1.913   1.749
25078SOL    HW177131   8.348   1.997   1.727
25078SOL    HW277132   8.471   1.912   1.704
25079SOL     OW77133   4.887  13.121   9.002
25079SOL    HW177134   4.842  13.195   9.043
25079SOL    HW277135   4.859  13.124   8.910
25080SOL     OW77136  14.605  10.377   9.627
25080SOL    HW177137  14.523  10.371   9.676
25080SOL    HW277138  14.588  10.326   9.547
25081SOL     OW77139   8.708   8.311   0.106
25081SOL    HW177140   8.650   8.324   0.031
25081SOL    HW277141   8.667   8.360   0.177
25082SOL     OW77142  14.531   9.970   5.257
25082SOL    HW177143  14.539  10.023   5.336
25082SOL    HW277144  14.444   9.930   5.264
25083SOL     OW77145   8.118  10.629   2.413
25083SOL    HW177146   8.076  10.672   2.340
25083SOL    HW277147   8.098  10.536   2.401
25084SOL     OW77148   1.787   7.698   8.409
25084SOL    HW177149   1.784   7.613   8.366
25084SOL    HW277150   1.871   7.700   8.454
25085SOL     OW77151   0.705   5.851  14.017
25085SOL    HW177152   0.738   5.818  13.933
25085SOL    HW277153   0.687   5.772  14.068
25086SOL     OW77154   6.133  14.702  12.487
25086SOL    HW177155   6.224  14.728  12.473
25086SOL    HW277156   6.084  14.747  12.419
25087SOL     OW77157   2.141   1.367   3.207
25087SOL    HW177158   2.220   1.411   3.175
25087SOL    HW277159   2.069   1.409   3.160
25088SOL     OW77160   7.596   5.594   8.610
25088SOL    HW177161   7.644   5.524   8.654
25088SOL    HW277162   7.648   5.673   8.625
25089SOL     OW77163  11.545   1.174   8.196
25089SOL    HW177164  11.491   1.115   8.143
25089SOL    HW277165  11.522   1.153   8.287
25090SOL     OW77166   0.439   6.923  12.467
25090SOL    HW177167   0.495   7.000  12.455
25090SOL    HW277168   0.391   6.915  12.384
25091SOL     OW77169  14.376   4.512  14.578
25091SOL    HW177170  14.470   4.527  14.568
25091SOL    HW277171  14.369   4.420  14.602
25092SOL     OW77172   6.334   8.458  10.312
25092SOL    HW177173   6.415   8.420  10.278
25092SOL    HW277174   6.275   8.457  10.236
25093SOL     OW77175   5.285   9.985   2.721
25093SOL    HW177176   5.306  10.002   2.813
25093SOL    HW277177   5.320   9.897   2.705
25094SOL     OW77178   7.293  14.393   9.614
25094SOL    HW177179   7.244  14.312   9.604
25094SOL    HW277180   7.293  14.432   9.526
25095SOL     OW77181  13.965   7.455  10.877
25095SOL    HW177182  14.045   7.476  10.828
25095SOL    HW277183  13.969   7.360  10.887
25096SOL     OW77184   5.054  14.817  13.764
25096SOL    HW177185   5.020   0.029  13.796
25096SOL    HW277186   4.978  14.771  13.730
25097SOL     OW77187   6.393   8.117   7.011
25097SOL    HW177188   6.468   8.058   7.021
25097SOL    HW277189   6.381   8.156   7.098
25098SOL     OW77190   8.914   3.365  10.466
25098SOL    HW177191   8.998   3.410  10.479
25098SOL    HW277192   8.883   3.346  10.554
25099SOL     OW77193  11.814  12.708  11.419
25099SOL    HW177194  11.829  12.790  11.466
25099SOL    HW277195  11.800  12.643  11.488
25100SOL     OW77196  12.287   2.475   7.240
25100SOL    HW177197  12.289   2.414   7.314
25100SOL    HW277198  12.247   2.555   7.275
25101SOL     OW77199  10.858   4.663  14.775
25101SOL    HW177200  10.911   4.655  14.855
25101SOL    HW277201  10.912   4.623  14.707
25102SOL     OW77202  13.656  10.490  12.736
25102SOL    HW177203  13.709  10.445  12.671
25102SOL    HW277204  13.573  10.508  12.691
25103SOL     OW77205   2.949   8.323   6.145
25103SOL    HW177206   2.862   8.362   6.134
25103SOL    HW277207   3.000   8.356   6.071
25104SOL     OW77208   4.946   3.213   6.553
25104SOL    HW177209   5.011   3.210   6.622
25104SOL    HW277210   4.980   3.277   6.490
25105SOL     OW77211   4.614  13.761   4.720
25105SOL    HW177212   4.638  13.716   4.802
25105SOL    HW277213   4.697  13.774   4.675
25106SOL     OW77214   8.338   3.244   0.059
25106SOL    HW177215   8.284   3.234   0.137
25106SOL    HW277216   8.388   3.162   0.054
25107SOL     OW77217   2.364  11.918   5.542
25107SOL    HW177218   2.306  11.856   5.498
25107SOL    HW277219   2.335  12.004   5.513
25108SOL     OW77220  12.708   6.405  11.849
25108SOL    HW177221  12.651   6.472  11.889
25108SOL    HW277222  12.763   6.374  11.921
25109SOL     OW77223   6.165  14.262  14.365
25109SOL    HW177224   6.137  14.172  14.382
25109SOL    HW277225   6.099  14.296  14.305
25110SOL     OW77226   6.093   6.341   3.272
25110SOL    HW177227   6.063   6.335   3.181
25110SOL    HW277228   6.058   6.263   3.314
25111SOL     OW77229   0.825  13.127   3.684
25111SOL    HW177230   0.852  13.207   3.728
25111SOL    HW277231   0.844  13.057   3.747
25112SOL     OW77232   0.649   1.775   6.154
25112SOL    HW177233   0.662   1.690   6.195
25112SOL    HW277234   0.667   1.839   6.223
25113SOL     OW77235  12.586   9.059   1.489
25113SOL    HW177236  12.680   9.061   1.471
25113SOL    HW277237  12.547   9.112   1.420
25114SOL     OW77238   1.363  13.736   1.306
25114SOL    HW177239   1.360  13.808   1.369
25114SOL    HW277240   1.450  13.742   1.267
25115SOL     OW77241  13.178  12.049   3.661
25115SOL    HW177242  13.147  12.060   3.751
25115SOL    HW277243  13.260  11.999   3.671
25116SOL     OW77244   5.076   6.636   6.813
25116SOL    HW177245   5.082   6.732   6.811
25116SOL    HW277246   5.139   6.607   6.746
25117SOL     OW77247   6.260  14.339  10.071
25117SOL    HW177248   6.193  14.352  10.004
25117SOL    HW277249   6.271  14.425  10.111
25118SOL     OW77250   5.711   3.851   5.482
25118SOL    HW177251   5.730   3.838   5.389
25118SOL    HW277252   5.660   3.932   5.485
25119SOL     OW77253   2.996  10.417   3.078
25119SOL    HW177254   2.906  10.388   3.093
25119SOL    HW277255   3.042  10.392   3.159
25120SOL     OW77256  11.146   7.470   5.391
25120SOL    HW177257  11.185   7.418   5.461
25120SOL    HW277258  11.096   7.538   5.437
25121SOL     OW77259   6.689   1.885   7.652
25121SOL    HW177260   6.644   1.816   7.603
25121SOL    HW277261   6.724   1.840   7.729
25122SOL     OW77262   5.185   8.120   2.262
25122SOL    HW177263   5.101   8.159   2.236
25122SOL    HW277264   5.223   8.089   2.180
25123SOL     OW77265   8.783  14.504   1.290
25123SOL    HW177266   8.690  14.528   1.294
25123SOL    HW277267   8.825  14.581   1.252
25124SOL     OW77268   0.772  13.331   2.280
25124SOL    HW177269   0.861  13.330   2.316
25124SOL    HW277270   0.724  13.392   2.336
25125SOL     OW77271   1.411   3.484  13.863
25125SOL    HW177272   1.437   3.515  13.776
25125SOL    HW277273   1.371   3.560  13.905
25126SOL     OW77274   7.811  12.021   6.949
25126SOL    HW177275   7.783  12.101   6.904
25126SOL    HW277276   7.737  11.998   7.005
25127SOL     OW77277   8.996   6.090   0.658
25127SOL    HW177278   9.054   6.034   0.605
25127SOL    HW277279   8.920   6.106   0.601
25128SOL     OW77280  10.331   2.494   0.456
25128SOL    HW177281  10.333   2.550   0.535
25128SOL    HW277282  10.421   2.463   0.447
25129SOL     OW77283   1.734  11.167  12.397
25129SOL    HW177284   1.807  11.198  12.450
25129SOL    HW277285   1.656  11.196  12.445
25130SOL     OW77286  12.603  13.180   3.399
25130SOL    HW177287  12.646  13.145   3.321
25130SOL    HW277288  12.585  13.104   3.453
25131SOL     OW77289   0.897   9.205   7.635
25131SOL    HW177290   0.859   9.138   7.692
25131SOL    HW277291   0.947   9.155   7.570
25132SOL     OW77292   1.329   4.118   4.077
25132SOL    HW177293   1.328   4.074   4.163
25132SOL    HW277294   1.284   4.201   4.093
25133SOL     OW77295   2.870  14.520  12.050
25133SOL    HW177296   2.853  14.429  12.073
25133SOL    HW277297   2.807  14.540  11.981
25134SOL     OW77298   5.462   5.239   5.066
25134SOL    HW177299   5.438   5.260   4.976
25134SOL    HW277300   5.546   5.195   5.058
25135SOL     OW77301   5.723  10.756   4.931
25135SOL    HW177302   5.814  10.740   4.959
25135SOL    HW277303   5.691  10.670   4.903
25136SOL     OW77304   2.049   0.425   3.893
25136SOL    HW177305   2.048   0.520   3.882
25136SOL    HW277306   1.959   0.398   3.872
25137SOL     OW77307   7.846   6.196   5.794
25137SOL    HW177308   7.853   6.191   5.890
25137SOL    HW277309   7.919   6.144   5.762
25138SOL     OW77310   6.467  12.135   9.797
25138SOL    HW177311   6.483  12.092   9.713
25138SOL    HW277312   6.492  12.070   9.863
25139SOL     OW77313  11.257   4.355  14.854
25139SOL    HW177314  11.295   4.443  14.863
25139SOL    HW277315  11.202   4.361  14.776
25140SOL     OW77316   8.461  14.768   3.557
25140SOL    HW177317   8.505  14.747   3.474
25140SOL    HW277318   8.384  14.819   3.531
25141SOL     OW77319   7.390  11.600   3.691
25141SOL    HW177320   7.357  11.689   3.675
25141SOL    HW277321   7.472  11.613   3.739
25142SOL     OW77322   2.855  12.036   0.621
25142SOL    HW177323   2.872  11.988   0.540
25142SOL    HW277324   2.797  12.107   0.594
25143SOL     OW77325  12.505   2.300   6.627
25143SOL    HW177326  12.599   2.289   6.618
25143SOL    HW277327  12.484   2.261   6.712
25144SOL     OW77328  14.654  11.519   7.240
25144SOL    HW177329  14.695  11.604   7.251
25144SOL    HW277330  14.726  11.456   7.243
25145SOL     OW77331  11.586  11.287   3.908
25145SOL    HW177332  11.565  11.219   3.972
25145SOL    HW277333  11.533  11.266   3.831
25146SOL     OW77334   7.939   9.794  12.686
25146SOL    HW177335   7.913   9.812  12.596
25146SOL    HW277336   7.877   9.728  12.716
25147SOL     OW77337  13.347   3.311   9.063
25147SOL    HW177338  13.319   3.301   8.972
25147SOL    HW277339  13.438   3.340   9.056
25148SOL     OW77340  14.661   5.281   6.551
25148SOL    HW177341  14.606   5.239   6.617
25148SOL    HW277342  14.607   5.283   6.472
25149SOL     OW77343   6.168   5.113  14.400
25149SOL    HW177344   6.166   5.128  14.494
25149SOL    HW277345   6.248   5.156  14.370
25150SOL     OW77346   0.256   9.093  13.813
25150SOL    HW177347   0.233   9.087  13.906
25150SOL    HW277348   0.178   9.063  13.767
25151SOL     OW77349   6.348  13.090  11.825
25151SOL    HW177350   6.311  13.096  11.737
25151SOL    HW277351   6.273  13.069  11.881
25152SOL     OW77352   2.803  13.676   9.847
25152SOL    HW177353   2.874  13.722   9.893
25152SOL    HW277354   2.779  13.604   9.905
25153SOL     OW77355   4.147  14.488   1.546
25153SOL    HW177356   4.239  14.479   1.520
25153SOL    HW277357   4.102  14.418   1.499
25154SOL     OW77358  13.726  13.292   2.508
25154SOL    HW177359  13.665  13.218   2.507
25154SOL    HW277360  13.726  13.325   2.418
25155SOL     OW77361  14.313   6.632   6.007
25155SOL    HW177362  14.304   6.582   5.926
25155SOL    HW277363  14.324   6.723   5.977
25156SOL     OW77364  14.269   1.262  14.289
25156SOL    HW177365  14.229   1.214  14.361
25156SOL    HW277366  14.328   1.198  14.247
25157SOL     OW77367  14.297   3.691  12.825
25157SOL    HW177368  14.362   3.621  12.824
25157SOL    HW277369  14.213   3.646  12.833
25158SOL     OW77370   6.784   8.986   9.865
25158SOL    HW177371   6.843   8.995   9.791
25158SOL    HW277372   6.841   8.994   9.942
25159SOL     OW77373   4.169   0.510  11.978
25159SOL    HW177374   4.256   0.501  12.017
25159SOL    HW277375   4.109   0.508  12.053
25160SOL     OW77376  11.440   3.562   1.899
25160SOL    HW177377  11.393   3.633   1.943
25160SOL    HW277378  11.408   3.482   1.942
25161SOL     OW77379   6.474   8.894   3.724
25161SOL    HW177380   6.488   8.800   3.707
25161SOL    HW277381   6.552   8.936   3.688
25162SOL     OW77382  10.478  11.607  13.495
25162SOL    HW177383  10.542  11.551  13.539
25162SOL    HW277384  10.404  11.612  13.557
25163SOL     OW77385   6.636  13.566  13.638
25163SOL    HW177386   6.562  13.505  13.646
25163SOL    HW277387   6.594  13.652  13.623
25164SOL     OW77388   4.954   9.158   4.329
25164SOL    HW177389   4.931   9.177   4.238
25164SOL    HW277390   4.870   9.156   4.375
25165SOL     OW77391  14.089   8.676   7.512
25165SOL    HW177392  14.016   8.719   7.556
25165SOL    HW277393  14.054   8.592   7.483
25166SOL     OW77394   6.018   4.134   7.217
25166SOL    HW177395   5.970   4.063   7.259
25166SOL    HW277396   5.989   4.131   7.125
25167SOL     OW77397  10.306  12.663   0.082
25167SOL    HW177398  10.218  12.700   0.084
25167SOL    HW277399  10.293  12.570   0.067
25168SOL     OW77400   7.764   6.070   9.452
25168SOL    HW177401   7.789   6.138   9.390
25168SOL    HW277402   7.673   6.089   9.473
25169SOL     OW77403   6.716   5.750   5.797
25169SOL    HW177404   6.712   5.805   5.718
25169SOL    HW277405   6.778   5.795   5.855
25170SOL     OW77406   9.527  14.602  10.066
25170SOL    HW177407   9.550  14.525  10.117
25170SOL    HW277408   9.472  14.655  10.125
25171SOL     OW77409   7.023   4.165   5.299
25171SOL    HW177410   6.986   4.146   5.385
25171SOL    HW277411   7.097   4.223   5.317
25172SOL     OW77412  13.294   8.437  13.835
25172SOL    HW177413  13.202   8.423  13.813
25172SOL    HW277414  13.297   8.526  13.871
25173SOL     OW77415   4.199  11.516  11.067
25173SOL    HW177416   4.172  11.591  11.013
25173SOL    HW277417   4.243  11.457  11.005
25174SOL     OW77418  12.409   3.746  10.647
25174SOL    HW177419  12.417   3.706  10.734
25174SOL    HW277420  12.469   3.821  10.650
25175SOL     OW77421   9.211   6.214   7.191
25175SOL    HW177422   9.293   6.173   7.166
25175SOL    HW277423   9.155   6.140   7.217
25176SOL     OW77424   6.532   5.520   3.366
25176SOL    HW177425   6.597   5.494   3.430
25176SOL    HW277426   6.448   5.495   3.405
25177SOL     OW77427   5.418  13.173   5.500
25177SOL    HW177428   5.469  13.115   5.557
25177SOL    HW277429   5.404  13.123   5.420
25178SOL     OW77430   3.629   1.112   3.016
25178SOL    HW177431   3.656   1.078   3.102
25178SOL    HW277432   3.545   1.068   2.999
25179SOL     OW77433  13.585   6.127   4.182
25179SOL    HW177434  13.521   6.123   4.111
25179SOL    HW277435  13.534   6.107   4.261
25180SOL     OW77436   3.796  14.564  13.154
25180SOL    HW177437   3.761  14.629  13.093
25180SOL    HW277438   3.874  14.606  13.191
25181SOL     OW77439  11.092   6.942  12.538
25181SOL    HW177440  11.014   6.913  12.586
25181SOL    HW277441  11.136   7.003  12.598
25182SOL     OW77442  12.515   3.730  12.516
25182SOL    HW177443  12.450   3.690  12.459
25182SOL    HW277444  12.468   3.750  12.597
25183SOL     OW77445   8.216  12.559   2.887
25183SOL    HW177446   8.182  12.518   2.808
25183SOL    HW277447   8.227  12.651   2.863
25184SOL     OW77448  12.455  14.459   6.082
25184SOL    HW177449  12.487  14.426   6.166
25184SOL    HW277450  12.443  14.381   6.028
25185SOL     OW77451  14.097  10.516   2.713
25185SOL    HW177452  14.076  10.504   2.621
25185SOL    HW277453  14.193  10.513   2.717
25186SOL     OW77454  14.304  10.741   3.225
25186SOL    HW177455  14.323  10.683   3.299
25186SOL    HW277456  14.350  10.822   3.246
25187SOL     OW77457   3.397  14.651   4.993
25187SOL    HW177458   3.403  14.734   5.041
25187SOL    HW277459   3.488  14.621   4.986
25188SOL     OW77460   5.839   8.140   5.130
25188SOL    HW177461   5.763   8.092   5.163
25188SOL    HW277462   5.865   8.092   5.051
25189SOL     OW77463   3.225  12.890  12.832
25189SOL    HW177464   3.204  12.831  12.759
25189SOL    HW277465   3.278  12.836  12.891
25190SOL     OW77466   3.888  14.022  12.538
25190SOL    HW177467   3.930  14.094  12.490
25190SOL    HW277468   3.894  14.048  12.630
25191SOL     OW77469  12.248   0.196   1.286
25191SOL    HW177470  12.178   0.226   1.345
25191SOL    HW277471  12.319   0.258   1.301
25192SOL     OW77472  11.793   7.403  11.929
25192SOL    HW177473  11.807   7.317  11.891
25192SOL    HW277474  11.840   7.463  11.871
25193SOL     OW77475  10.581   8.124   6.146
25193SOL    HW177476  10.499   8.087   6.180
25193SOL    HW277477  10.578   8.105   6.052
25194SOL     OW77478  13.940   3.600  10.029
25194SOL    HW177479  13.999   3.542   9.980
25194SOL    HW277480  13.893   3.649   9.961
25195SOL     OW77481   8.748  11.876   8.047
25195SOL    HW177482   8.661  11.894   8.083
25195SOL    HW277483   8.750  11.924   7.964
25196SOL     OW77484   5.150   2.497   0.429
25196SOL    HW177485   5.221   2.499   0.493
25196SOL    HW277486   5.080   2.449   0.473
25197SOL     OW77487   1.278  10.424  12.825
25197SOL    HW177488   1.269  10.379  12.909
25197SOL    HW277489   1.215  10.496  12.830
25198SOL     OW77490   1.795   4.960   5.674
25198SOL    HW177491   1.863   5.014   5.635
25198SOL    HW277492   1.825   4.944   5.763
25199SOL     OW77493   6.765  14.334  10.222
25199SOL    HW177494   6.709  14.394  10.272
25199SOL    HW277495   6.704  14.276  10.177
25200SOL     OW77496   5.466  14.152  14.252
25200SOL    HW177497   5.421  14.067  14.253
25200SOL    HW277498   5.410  14.209  14.304
25201SOL     OW77499   3.517   4.336   9.661
25201SOL    HW177500   3.475   4.330   9.575
25201SOL    HW277501   3.445   4.353   9.722
25202SOL     OW77502  11.257   1.292   4.026
25202SOL    HW177503  11.342   1.257   4.055
25202SOL    HW277504  11.245   1.371   4.079
25203SOL     OW77505   5.558   8.459   7.951
25203SOL    HW177506   5.649   8.479   7.925
25203SOL    HW277507   5.564   8.442   8.045
25204SOL     OW77508   9.469   3.133   9.948
25204SOL    HW177509   9.449   3.158   9.858
25204SOL    HW277510   9.491   3.216   9.992
25205SOL     OW77511  10.807   5.547   5.874
25205SOL    HW177512  10.750   5.538   5.798
25205SOL    HW277513  10.838   5.638   5.870
25206SOL     OW77514   4.835  10.682  14.463
25206SOL    HW177515   4.786  10.642  14.535
25206SOL    HW277516   4.917  10.632  14.459
25207SOL     OW77517  12.982   4.415   6.104
25207SOL    HW177518  13.016   4.342   6.053
25207SOL    HW277519  13.057   4.444   6.156
25208SOL     OW77520   4.144  14.584   0.970
25208SOL    HW177521   4.207  14.645   0.932
25208SOL    HW277522   4.066  14.593   0.915
25209SOL     OW77523  10.446   0.768   0.778
25209SOL    HW177524  10.463   0.858   0.752
25209SOL    HW277525  10.378   0.738   0.718
25210SOL     OW77526  12.580   6.970  11.251
25210SOL    HW177527  12.587   6.912  11.327
25210SOL    HW277528  12.539   7.049  11.285
25211SOL     OW77529  10.228   8.202  10.402
25211SOL    HW177530  10.257   8.191  10.492
25211SOL    HW277531  10.240   8.116  10.362
25212SOL     OW77532  13.409  13.222   8.524
25212SOL    HW177533  13.413  13.310   8.487
25212SOL    HW277534  13.316  13.209   8.544
25213SOL     OW77535   9.126   2.057   3.517
25213SOL    HW177536   9.188   2.058   3.590
25213SOL    HW277537   9.041   2.041   3.558
25214SOL     OW77538   1.038   9.388  12.207
25214SOL    HW177539   1.021   9.465  12.262
25214SOL    HW277540   0.971   9.325  12.233
25215SOL     OW77541  14.729   8.219  10.679
25215SOL    HW177542  14.777   8.158  10.735
25215SOL    HW277543  14.710   8.168  10.600
25216SOL     OW77544   1.967   5.095  12.326
25216SOL    HW177545   2.023   5.170  12.349
25216SOL    HW277546   2.022   5.041  12.269
25217SOL     OW77547  11.487   6.373   2.827
25217SOL    HW177548  11.451   6.424   2.755
25217SOL    HW277549  11.559   6.427   2.860
25218SOL     OW77550   9.128   0.359   4.145
25218SOL    HW177551   9.142   0.416   4.221
25218SOL    HW277552   9.058   0.300   4.172
25219SOL     OW77553   3.345   6.057   8.256
25219SOL    HW177554   3.362   6.141   8.214
25219SOL    HW277555   3.430   6.012   8.253
25220SOL     OW77556   7.932   8.021   4.571
25220SOL    HW177557   7.897   8.022   4.482
25220SOL    HW277558   7.997   8.091   4.572
25221SOL     OW77559  12.442   5.981   9.880
25221SOL    HW177560  12.426   6.052   9.819
25221SOL    HW277561  12.358   5.968   9.924
25222SOL     OW77562   2.064   4.801   3.290
25222SOL    HW177563   2.066   4.706   3.304
25222SOL    HW277564   2.003   4.833   3.356
25223SOL     OW77565   7.005  11.872  10.399
25223SOL    HW177566   6.990  11.951  10.452
25223SOL    HW277567   6.966  11.893  10.313
25224SOL     OW77568   5.481  12.440   5.306
25224SOL    HW177569   5.545  12.469   5.240
25224SOL    HW277570   5.396  12.461   5.268
25225SOL     OW77571  13.400   8.326  11.343
25225SOL    HW177572  13.491   8.297  11.330
25225SOL    HW277573  13.399   8.417  11.314
25226SOL     OW77574   7.986  12.120   0.501
25226SOL    HW177575   8.044  12.141   0.428
25226SOL    HW277576   8.037  12.141   0.579
25227SOL     OW77577  13.749  11.336   0.036
25227SOL    HW177578  13.836  11.296   0.032
25227SOL    HW277579  13.689  11.262   0.034
25228SOL     OW77580   8.112  11.009  13.737
25228SOL    HW177581   8.189  11.018  13.681
25228SOL    HW277582   8.044  11.060  13.693
25229SOL     OW77583   4.665   1.285  11.584
25229SOL    HW177584   4.625   1.366  11.551
25229SOL    HW277585   4.713   1.312  11.662
25230SOL     OW77586   3.152  14.865   2.616
25230SOL    HW177587   3.120  14.791   2.565
25230SOL    HW277588   3.154  14.834   2.706
25231SOL     OW77589  14.092   7.842  13.773
25231SOL    HW177590  14.092   7.836  13.678
25231SOL    HW277591  14.134   7.761  13.802
25232SOL     OW77592   5.034  10.161  10.226
25232SOL    HW177593   5.098  10.231  10.239
25232SOL    HW277594   4.950  10.201  10.246
25233SOL     OW77595   6.595  12.698   2.390
25233SOL    HW177596   6.513  12.648   2.392
25233SOL    HW277597   6.662  12.635   2.417
25234SOL     OW77598  13.659  11.353   6.534
25234SOL    HW177599  13.664  11.276   6.590
25234SOL    HW277600  13.584  11.402   6.566
25235SOL     OW77601   1.202  11.283   2.480
25235SOL    HW177602   1.200  11.293   2.575
25235SOL    HW277603   1.253  11.203   2.466
25236SOL     OW77604   6.380   9.970  11.270
25236SOL    HW177605   6.373   9.883  11.311
25236SOL    HW277606   6.291  10.005  11.273
25237SOL     OW77607   4.080   7.647   7.118
25237SOL    HW177608   4.130   7.725   7.141
25237SOL    HW277609   4.146   7.578   7.112
25238SOL     OW77610  10.993   7.568   4.507
25238SOL    HW177611  10.965   7.657   4.485
25238SOL    HW277612  11.085   7.576   4.530
25239SOL     OW77613   7.674   0.642  11.055
25239SOL    HW177614   7.647   0.551  11.041
25239SOL    HW277615   7.631   0.668  11.136
25240SOL     OW77616   9.912   8.235   2.290
25240SOL    HW177617   9.887   8.298   2.358
25240SOL    HW277618   9.998   8.265   2.261
25241SOL     OW77619   1.920  10.377   2.359
25241SOL    HW177620   1.982  10.368   2.432
25241SOL    HW277621   1.908  10.471   2.350
25242SOL     OW77622  14.166  10.008   3.099
25242SOL    HW177623  14.178   9.923   3.141
25242SOL    HW277624  14.118  10.060   3.163
25243SOL     OW77625   2.559   8.003   9.226
25243SOL    HW177626   2.655   7.999   9.229
25243SOL    HW277627   2.532   8.011   9.318
25244SOL     OW77628   5.373   8.503   0.701
25244SOL    HW177629   5.424   8.480   0.623
25244SOL    HW277630   5.371   8.598   0.701
25245SOL     OW77631  10.348   7.640  10.031
25245SOL    HW177632  10.266   7.654   9.984
25245SOL    HW277633  10.382   7.728  10.048
25246SOL     OW77634   1.120   3.362   2.227
25246SOL    HW177635   1.109   3.372   2.132
25246SOL    HW277636   1.107   3.269   2.242
25247SOL     OW77637   3.227   9.256   7.820
25247SOL    HW177638   3.279   9.220   7.892
25247SOL    HW277639   3.293   9.286   7.756
25248SOL     OW77640  13.181   6.836   9.615
25248SOL    HW177641  13.090   6.807   9.612
25248SOL    HW277642  13.229   6.768   9.566
25249SOL     OW77643   7.088  11.478   0.090
25249SOL    HW177644   7.059  11.467  14.871
25249SOL    HW277645   7.015  11.446   0.143
25250SOL     OW77646   6.555  13.393   1.884
25250SOL    HW177647   6.564  13.357   1.972
25250SOL    HW277648   6.557  13.488   1.896
25251SOL     OW77649   3.955   3.304   3.912
25251SOL    HW177650   3.991   3.391   3.929
25251SOL    HW277651   4.016   3.264   3.851
25252SOL     OW77652  10.956   6.108  10.092
25252SOL    HW177653  10.909   6.165  10.032
25252SOL    HW277654  10.916   6.124  10.178
25253SOL     OW77655  12.046  13.252  13.192
25253SOL    HW177656  12.027  13.168  13.233
25253SOL    HW277657  12.016  13.317  13.256
25254SOL     OW77658  10.976   9.817   5.254
25254SOL    HW177659  10.904   9.813   5.318
25254SOL    HW277660  10.935   9.850   5.174
25255SOL     OW77661  12.745   7.212   4.291
25255SOL    HW177662  12.786   7.297   4.276
25255SOL    HW277663  12.803   7.149   4.247
25256SOL     OW77664   8.988  14.522   3.331
25256SOL    HW177665   8.938  14.445   3.357
25256SOL    HW277666   9.068  14.517   3.383
25257SOL     OW77667   3.912   7.528   0.849
25257SOL    HW177668   3.909   7.459   0.915
25257SOL    HW277669   3.880   7.487   0.769
25258SOL     OW77670   2.793  11.495   1.032
25258SOL    HW177671   2.725  11.429   1.016
25258SOL    HW277672   2.835  11.507   0.947
25259SOL     OW77673   7.617   7.945  12.016
25259SOL    HW177674   7.697   7.901  12.046
25259SOL    HW277675   7.558   7.873  11.993
25260SOL     OW77676   9.570   7.711  12.512
25260SOL    HW177677   9.650   7.694  12.562
25260SOL    HW277678   9.571   7.805  12.497
25261SOL     OW77679   4.456   1.021   0.446
25261SOL    HW177680   4.548   1.045   0.430
25261SOL    HW277681   4.431   1.072   0.523
25262SOL     OW77682  10.664   0.346   8.900
25262SOL    HW177683  10.577   0.316   8.873
25262SOL    HW277684  10.654   0.368   8.993
25263SOL     OW77685   7.867  10.077   8.771
25263SOL    HW177686   7.776  10.107   8.777
25263SOL    HW277687   7.870  10.001   8.829
25264SOL     OW77688   7.021   6.632   8.275
25264SOL    HW177689   7.114   6.641   8.255
25264SOL    HW277690   6.988   6.570   8.210
25265SOL     OW77691  11.209  13.501  10.549
25265SOL    HW177692  11.177  13.588  10.525
25265SOL    HW277693  11.141  13.464  10.604
25266SOL     OW77694   0.258   1.837  11.930
25266SOL    HW177695   0.199   1.767  11.901
25266SOL    HW277696   0.305   1.800  12.004
25267SOL     OW77697   8.087  13.112   6.844
25267SOL    HW177698   8.124  13.024   6.835
25267SOL    HW277699   8.012  13.112   6.784
25268SOL     OW77700   3.054   1.962   6.882
25268SOL    HW177701   3.124   2.024   6.861
25268SOL    HW277702   3.080   1.882   6.837
25269SOL     OW77703  10.899   7.917  12.599
25269SOL    HW177704  10.957   7.841  12.590
25269SOL    HW277705  10.822   7.895  12.547
25270SOL     OW77706   5.307   5.689   8.237
25270SOL    HW177707   5.371   5.713   8.304
25270SOL    HW277708   5.358   5.672   8.159
25271SOL     OW77709   9.659   8.407   4.024
25271SOL    HW177710   9.713   8.484   4.043
25271SOL    HW277711   9.722   8.342   3.991
25272SOL     OW77712   4.486   7.139  12.675
25272SOL    HW177713   4.410   7.091  12.642
25272SOL    HW277714   4.448   7.213  12.723
25273SOL     OW77715   4.027   0.807   4.304
25273SOL    HW177716   4.021   0.733   4.245
25273SOL    HW277717   4.092   0.865   4.265
25274SOL     OW77718  14.193   0.974   0.452
25274SOL    HW177719  14.267   1.007   0.503
25274SOL    HW277720  14.159   0.900   0.502
25275SOL     OW77721   4.908   3.614   4.945
25275SOL    HW177722   4.939   3.537   4.992
25275SOL    HW277723   4.864   3.667   5.011
25276SOL     OW77724   6.533  12.042   5.152
25276SOL    HW177725   6.455  12.092   5.130
25276SOL    HW277726   6.593  12.106   5.191
25277SOL     OW77727  12.890   8.313   6.894
25277SOL    HW177728  12.954   8.385   6.890
25277SOL    HW277729  12.805   8.356   6.898
25278SOL     OW77730   2.639   7.417  11.116
25278SOL    HW177731   2.575   7.370  11.170
25278SOL    HW277732   2.691   7.348  11.075
25279SOL     OW77733   7.818   4.461  10.310
25279SOL    HW177734   7.882   4.392  10.291
25279SOL    HW277735   7.851   4.537  10.263
25280SOL     OW77736   9.128   0.980  13.966
25280SOL    HW177737   9.183   1.047  14.007
25280SOL    HW277738   9.052   1.029  13.933
25281SOL     OW77739   9.919   8.640   1.554
25281SOL    HW177740   9.878   8.564   1.595
25281SOL    HW277741   9.856   8.668   1.487
25282SOL     OW77742   0.175   2.487   7.670
25282SOL    HW177743   0.124   2.428   7.613
25282SOL    HW277744   0.108   2.540   7.713
25283SOL     OW77745   7.234  10.894   8.386
25283SOL    HW177746   7.149  10.939   8.387
25283SOL    HW277747   7.226  10.825   8.451
25284SOL     OW77748  13.423   6.819  12.712
25284SOL    HW177749  13.447   6.727  12.717
25284SOL    HW277750  13.390   6.831  12.623
25285SOL     OW77751   0.050   5.744   3.079
25285SOL    HW177752  14.869   5.701   3.146
25285SOL    HW277753   0.127   5.688   3.068
25286SOL     OW77754   2.318   7.389   9.163
25286SOL    HW177755   2.292   7.463   9.108
25286SOL    HW277756   2.394   7.420   9.211
25287SOL     OW77757   3.195  13.393   8.648
25287SOL    HW177758   3.244  13.320   8.687
25287SOL    HW277759   3.219  13.391   8.556
25288SOL     OW77760   9.658   3.372  14.145
25288SOL    HW177761   9.714   3.450  14.135
25288SOL    HW277762   9.608   3.390  14.225
25289SOL     OW77763  10.297   0.070   0.087
25289SOL    HW177764  10.304   0.104  14.869
25289SOL    HW277765  10.388   0.062   0.116
25290SOL     OW77766   8.780   8.196   7.403
25290SOL    HW177767   8.685   8.205   7.395
25290SOL    HW277768   8.803   8.132   7.336
25291SOL     OW77769  14.153   4.479   3.915
25291SOL    HW177770  14.192   4.407   3.865
25291SOL    HW277771  14.112   4.534   3.849
25292SOL     OW77772  12.445  12.309   7.372
25292SOL    HW177773  12.520  12.364   7.392
25292SOL    HW277774  12.482  12.222   7.358
25293SOL     OW77775   0.065   5.736  12.492
25293SOL    HW177776   0.081   5.652  12.449
25293SOL    HW277777   0.043   5.713  12.582
25294SOL     OW77778   1.001   6.055  12.973
25294SOL    HW177779   1.020   6.009  12.891
25294SOL    HW277780   1.084   6.097  12.997
25295SOL     OW77781  14.251   6.691   6.828
25295SOL    HW177782  14.328   6.645   6.862
25295SOL    HW277783  14.186   6.623   6.816
25296SOL     OW77784  13.354   4.178  10.286
25296SOL    HW177785  13.274   4.136  10.254
25296SOL    HW277786  13.331   4.208  10.374
25297SOL     OW77787   0.471   3.155  11.227
25297SOL    HW177788   0.517   3.158  11.310
25297SOL    HW277789   0.530   3.109  11.167
25298SOL     OW77790   6.414   7.788   2.473
25298SOL    HW177791   6.340   7.742   2.512
25298SOL    HW277792   6.491   7.744   2.508
25299SOL     OW77793   6.637   4.641  13.867
25299SOL    HW177794   6.580   4.596  13.930
25299SOL    HW277795   6.624   4.593  13.785
25300SOL     OW77796   6.173  12.769   4.060
25300SOL    HW177797   6.137  12.781   3.972
25300SOL    HW277798   6.102  12.731   4.111
25301SOL     OW77799   6.988   8.241  10.839
25301SOL    HW177800   7.032   8.168  10.794
25301SOL    HW277801   7.012   8.318  10.788
25302SOL     OW77802   0.706   7.471  10.810
25302SOL    HW177803   0.742   7.543  10.862
25302SOL    HW277804   0.783   7.417  10.788
25303SOL     OW77805   2.100   3.364   9.230
25303SOL    HW177806   2.073   3.363   9.322
25303SOL    HW277807   2.088   3.274   9.200
25304SOL     OW77808   3.881   5.424  14.821
25304SOL    HW177809   3.891   5.469   0.033
25304SOL    HW277810   3.814   5.357  14.837
25305SOL     OW77811  10.071   8.752   2.225
25305SOL    HW177812   9.978   8.762   2.208
25305SOL    HW277813  10.108   8.838   2.204
25306SOL     OW77814  13.404  10.782   6.836
25306SOL    HW177815  13.457  10.726   6.779
25306SOL    HW277816  13.465  10.812   6.903
25307SOL     OW77817   8.590   1.729   4.164
25307SOL    HW177818   8.577   1.635   4.154
25307SOL    HW277819   8.582   1.745   4.258
25308SOL     OW77820  11.824   8.166   4.706
25308SOL    HW177821  11.824   8.146   4.612
25308SOL    HW277822  11.741   8.130   4.738
25309SOL     OW77823  13.589   6.327  10.526
25309SOL    HW177824  13.647   6.252  10.536
25309SOL    HW277825  13.548   6.316  10.441
25310SOL     OW77826   3.441   3.706  13.355
25310SOL    HW177827   3.534   3.715  13.372
25310SOL    HW277828   3.418   3.618  13.387
25311SOL     OW77829   5.313   9.531   1.679
25311SOL    HW177830   5.392   9.583   1.669
25311SOL    HW277831   5.279   9.523   1.590
25312SOL     OW77832   4.874  13.846  11.519
25312SOL    HW177833   4.948  13.906  11.505
25312SOL    HW277834   4.915  13.766  11.553
25313SOL     OW77835   1.762  14.688   6.278
25313SOL    HW177836   1.678  14.716   6.243
25313SOL    HW277837   1.749  14.596   6.304
25314SOL     OW77838   8.900   8.836   8.197
25314SOL    HW177839   8.980   8.801   8.236
25314SOL    HW277840   8.852   8.759   8.167
25315SOL     OW77841   4.779   4.989   7.551
25315SOL    HW177842   4.831   4.911   7.569
25315SOL    HW277843   4.691   4.967   7.581
25316SOL     OW77844  10.890  14.341   0.292
25316SOL    HW177845  10.805  14.310   0.262
25316SOL    HW277846  10.888  14.436   0.277
25317SOL     OW77847  10.175   4.016   0.468
25317SOL    HW177848  10.222   4.099   0.468
25317SOL    HW277849  10.106   4.028   0.402
25318SOL     OW77850   5.276   8.788  11.287
25318SOL    HW177851   5.349   8.755  11.234
25318SOL    HW277852   5.262   8.877  11.255
25319SOL     OW77853   3.303   4.322   1.801
25319SOL    HW177854   3.364   4.277   1.861
25319SOL    HW277855   3.243   4.368   1.859
25320SOL     OW77856  13.959   2.958  12.021
25320SOL    HW177857  14.019   2.885  12.003
25320SOL    HW277858  14.017   3.033  12.037
25321SOL     OW77859   0.560   3.776  11.580
25321SOL    HW177860   0.617   3.852  11.565
25321SOL    HW277861   0.599   3.706  11.529
25322SOL     OW77862   1.499   3.626   9.691
25322SOL    HW177863   1.566   3.573   9.734
25322SOL    HW277864   1.532   3.715   9.697
25323SOL     OW77865  12.234   6.663  14.325
25323SOL    HW177866  12.180   6.718  14.268
25323SOL    HW277867  12.302   6.721  14.357
25324SOL     OW77868   1.113   0.374   4.932
25324SOL    HW177869   1.091   0.464   4.955
25324SOL    HW277870   1.201   0.361   4.968
25325SOL     OW77871   3.584   5.517  10.239
25325SOL    HW177872   3.504   5.467  10.256
25325SOL    HW277873   3.632   5.465  10.175
25326SOL     OW77874   2.111  11.543   1.901
25326SOL    HW177875   2.129  11.470   1.960
25326SOL    HW277876   2.045  11.509   1.840
25327SOL     OW77877   3.242   6.509   2.410
25327SOL    HW177878   3.234   6.414   2.409
25327SOL    HW277879   3.236   6.535   2.318
25328SOL     OW77880   3.386   3.689   3.397
25328SOL    HW177881   3.321   3.668   3.330
25328SOL    HW277882   3.462   3.635   3.374
25329SOL     OW77883   9.565   6.623   8.425
25329SOL    HW177884   9.644   6.572   8.442
25329SOL    HW277885   9.593   6.714   8.435
25330SOL     OW77886   5.313  14.433   0.804
25330SOL    HW177887   5.328  14.339   0.801
25330SOL    HW277888   5.376  14.470   0.741
25331SOL     OW77889   3.578   1.284  13.232
25331SOL    HW177890   3.653   1.312  13.180
25331SOL    HW277891   3.597   1.314  13.321
25332SOL     OW77892  11.562   7.285  12.443
25332SOL    HW177893  11.638   7.228  12.433
25332SOL    HW277894  11.593   7.357  12.499
25333SOL     OW77895  14.557  10.442   7.430
25333SOL    HW177896  14.494  10.472   7.495
25333SOL    HW277897  14.577  10.352   7.456
25334SOL     OW77898   4.495  10.809   9.387
25334SOL    HW177899   4.521  10.852   9.468
25334SOL    HW277900   4.458  10.725   9.414
25335SOL     OW77901  10.398   0.463   6.403
25335SOL    HW177902  10.410   0.386   6.458
25335SOL    HW277903  10.384   0.535   6.465
25336SOL     OW77904   3.424   3.159  14.791
25336SOL    HW177905   3.484   3.215  14.743
25336SOL    HW277906   3.367   3.219  14.839
25337SOL     OW77907   0.030   9.176  14.869
25337SOL    HW177908  14.837   9.126   0.047
25337SOL    HW277909  14.870   9.171  14.778
25338SOL     OW77910   5.810  12.135   2.698
25338SOL    HW177911   5.782  12.164   2.785
25338SOL    HW277912   5.776  12.202   2.638
25339SOL     OW77913  12.316   1.912   7.792
25339SOL    HW177914  12.393   1.871   7.833
25339SOL    HW277915  12.248   1.908   7.860
25340SOL     OW77916   9.405   7.504   8.703
25340SOL    HW177917   9.454   7.484   8.783
25340SOL    HW277918   9.372   7.593   8.717
25341SOL     OW77919  14.567  12.003   2.530
25341SOL    HW177920  14.641  12.063   2.522
25341SOL    HW277921  14.597  11.922   2.488
25342SOL     OW77922  13.158   3.685  11.348
25342SOL    HW177923  13.188   3.738  11.422
25342SOL    HW277924  13.102   3.743  11.298
25343SOL     OW77925   8.510  12.453   9.727
25343SOL    HW177926   8.604  12.433   9.731
25343SOL    HW277927   8.468  12.367   9.719
25344SOL     OW77928   9.907   9.254   4.411
25344SOL    HW177929   9.871   9.330   4.457
25344SOL    HW277930   9.862   9.179   4.451
25345SOL     OW77931   6.284   9.793   0.746
25345SOL    HW177932   6.243   9.854   0.807
25345SOL    HW277933   6.375   9.823   0.739
25346SOL     OW77934  12.984  14.667  10.709
25346SOL    HW177935  12.952  14.623  10.788
25346SOL    HW277936  13.052  14.726  10.741
25347SOL     OW77937   4.449   2.410   2.352
25347SOL    HW177938   4.487   2.468   2.286
25347SOL    HW277939   4.507   2.334   2.355
25348SOL     OW77940   7.938   4.148   6.274
25348SOL    HW177941   8.009   4.100   6.233
25348SOL    HW277942   7.884   4.179   6.202
25349SOL     OW77943   9.502  12.743   4.290
25349SOL    HW177944   9.411  12.774   4.295
25349SOL    HW277945   9.495  12.649   4.272
25350SOL     OW77946  13.376  14.436  12.085
25350SOL    HW177947  13.424  14.483  12.153
25350SOL    HW277948  13.438  14.370  12.053
25351SOL     OW77949   6.630   2.286   9.233
25351SOL    HW177950   6.703   2.334   9.195
25351SOL    HW277951   6.666   2.199   9.252
25352SOL     OW77952   5.329   0.114   8.080
25352SOL    HW177953   5.383   0.106   8.159
25352SOL    HW277954   5.242   0.083   8.108
25353SOL     OW77955  10.390  13.989   3.257
25353SOL    HW177956  10.461  14.052   3.270
25353SOL    HW277957  10.341  13.991   3.339
25354SOL     OW77958   0.314  14.587   9.953
25354SOL    HW177959   0.316  14.653   9.884
25354SOL    HW277960   0.390  14.531   9.935
25355SOL     OW77961   1.790   8.279  13.768
25355SOL    HW177962   1.825   8.204  13.815
25355SOL    HW277963   1.819   8.266  13.677
25356SOL     OW77964   7.807  12.761  11.420
25356SOL    HW177965   7.814  12.824  11.492
25356SOL    HW277966   7.713  12.743  11.413
25357SOL     OW77967   4.820  14.458   8.511
25357SOL    HW177968   4.759  14.384   8.506
25357SOL    HW277969   4.902  14.420   8.541
25358SOL     OW77970  12.046   5.578  14.655
25358SOL    HW177971  12.068   5.497  14.611
25358SOL    HW277972  11.988   5.552  14.727
25359SOL     OW77973   0.238  10.553  10.798
25359SOL    HW177974   0.283  10.620  10.748
25359SOL    HW277975   0.292  10.474  10.787
25360SOL     OW77976  12.805   6.925   1.714
25360SOL    HW177977  12.892   6.894   1.740
25360SOL    HW277978  12.781   6.988   1.782
25361SOL     OW77979   0.444  14.092   1.418
25361SOL    HW177980   0.413  14.142   1.494
25361SOL    HW277981   0.510  14.148   1.377
25362SOL     OW77982   1.897   8.264   6.853
25362SOL    HW177983   1.881   8.359   6.859
25362SOL    HW277984   1.809   8.225   6.854
25363SOL     OW77985   0.493  11.805   2.491
25363SOL    HW177986   0.558  11.753   2.444
25363SOL    HW277987   0.527  11.812   2.579
25364SOL     OW77988  12.427  11.348   3.743
25364SOL    HW177989  12.443  11.318   3.654
25364SOL    HW277990  12.392  11.272   3.789
25365SOL     OW77991   6.690   6.282  11.472
25365SOL    HW177992   6.758   6.224  11.507
25365SOL    HW277993   6.720   6.301  11.383
25366SOL     OW77994   4.408  14.399   4.778
25366SOL    HW177995   4.339  14.432   4.835
25366SOL    HW277996   4.427  14.472   4.718
25367SOL     OW77997  13.571  11.402   1.471
25367SOL    HW177998  13.663  11.394   1.447
25367SOL    HW277999  13.572  11.407   1.567
25368SOL     OW78000   0.261   7.466   9.074
25368SOL    HW178001   0.239   7.534   9.138
25368SOL    HW278002   0.216   7.494   8.994
25369SOL     OW78003   5.733   2.984  13.741
25369SOL    HW178004   5.776   3.059  13.782
25369SOL    HW278005   5.797   2.913  13.746
25370SOL     OW78006   4.689   7.540  10.700
25370SOL    HW178007   4.628   7.584  10.759
25370SOL    HW278008   4.663   7.569  10.613
25371SOL     OW78009   4.550   8.148   2.787
25371SOL    HW178010   4.588   8.196   2.714
25371SOL    HW278011   4.458   8.174   2.787
25372SOL     OW78012  13.158  12.976  13.866
25372SOL    HW178013  13.187  12.977  13.775
25372SOL    HW278014  13.238  12.990  13.917
25373SOL     OW78015   0.712  14.066  13.769
25373SOL    HW178016   0.634  14.037  13.817
25373SOL    HW278017   0.681  14.081  13.680
25374SOL     OW78018   7.825   8.890  13.272
25374SOL    HW178019   7.858   8.902  13.361
25374SOL    HW278020   7.775   8.809  13.276
25375SOL     OW78021  10.191  10.107   3.963
25375SOL    HW178022  10.260  10.125   3.900
25375SOL    HW278023  10.111  10.136   3.920
25376SOL     OW78024   2.781  11.682   4.383
25376SOL    HW178025   2.842  11.743   4.342
25376SOL    HW278026   2.784  11.604   4.327
25377SOL     OW78027   9.090   3.943   3.597
25377SOL    HW178028   9.079   3.928   3.691
25377SOL    HW278029   9.037   4.020   3.579
25378SOL     OW78030   4.085  10.903   3.182
25378SOL    HW178031   4.147  10.871   3.116
25378SOL    HW278032   4.016  10.946   3.131
25379SOL     OW78033  10.992  14.225  11.756
25379SOL    HW178034  11.036  14.306  11.778
25379SOL    HW278035  10.999  14.219  11.661
25380SOL     OW78036   3.420   5.360   4.599
25380SOL    HW178037   3.368   5.326   4.527
25380SOL    HW278038   3.474   5.429   4.560
25381SOL     OW78039   0.227   0.623  12.028
25381SOL    HW178040   0.300   0.676  11.996
25381SOL    HW278041   0.201   0.570  11.953
25382SOL     OW78042   9.614   8.929  13.215
25382SOL    HW178043   9.538   8.961  13.264
25382SOL    HW278044   9.601   8.961  13.126
25383SOL     OW78045   3.703   2.178   1.452
25383SOL    HW178046   3.786   2.225   1.442
25383SOL    HW278047   3.664   2.180   1.364
25384SOL     OW78048  11.396   0.862   1.619
25384SOL    HW178049  11.360   0.779   1.652
25384SOL    HW278050  11.321   0.906   1.579
25385SOL     OW78051   8.326  14.600   9.149
25385SOL    HW178052   8.357  14.690   9.158
25385SOL    HW278053   8.405  14.546   9.154
25386SOL     OW78054  12.241   7.034   3.059
25386SOL    HW178055  12.177   7.064   3.124
25386SOL    HW278056  12.317   7.006   3.111
25387SOL     OW78057   8.501  11.924   5.377
25387SOL    HW178058   8.521  11.834   5.403
25387SOL    HW278059   8.417  11.917   5.332
25388SOL     OW78060  12.144   0.305   9.063
25388SOL    HW178061  12.106   0.269   8.983
25388SOL    HW278062  12.238   0.293   9.053
25389SOL     OW78063  13.559   3.424   2.531
25389SOL    HW178064  13.469   3.455   2.517
25389SOL    HW278065  13.548   3.339   2.573
25390SOL     OW78066   0.304  14.531   9.174
25390SOL    HW178067   0.230  14.577   9.213
25390SOL    HW278068   0.379  14.557   9.228
25391SOL     OW78069   7.938   1.839   9.349
25391SOL    HW178070   7.955   1.790   9.269
25391SOL    HW278071   7.980   1.924   9.336
25392SOL     OW78072   0.283  11.604  10.512
25392SOL    HW178073   0.242  11.526  10.549
25392SOL    HW278074   0.253  11.606  10.421
25393SOL     OW78075  13.376  10.788   0.505
25393SOL    HW178076  13.282  10.806   0.495
25393SOL    HW278077  13.398  10.826   0.590
25394SOL     OW78078   0.187  13.107  10.158
25394SOL    HW178079   0.214  13.127  10.248
25394SOL    HW278080   0.260  13.137  10.104
25395SOL     OW78081   7.953   7.280   0.640
25395SOL    HW178082   8.014   7.207   0.643
25395SOL    HW278083   7.906   7.269   0.557
25396SOL     OW78084   6.849  13.826  10.280
25396SOL    HW178085   6.880  13.735  10.284
25396SOL    HW278086   6.913  13.876  10.331
25397SOL     OW78087   8.649  12.022   5.155
25397SOL    HW178088   8.568  12.067   5.128
25397SOL    HW278089   8.629  11.987   5.242
25398SOL     OW78090   3.226  11.767   0.907
25398SOL    HW178091   3.207  11.745   0.815
25398SOL    HW278092   3.298  11.830   0.902
25399SOL     OW78093   2.630   2.943   1.116
25399SOL    HW178094   2.607   2.857   1.083
25399SOL    HW278095   2.726   2.945   1.113
25400SOL     OW78096   8.710   6.764   9.471
25400SOL    HW178097   8.679   6.828   9.407
25400SOL    HW278098   8.793   6.733   9.436
25401SOL     OW78099   1.971   6.719  12.666
25401SOL    HW178100   1.969   6.624  12.656
25401SOL    HW278101   2.020   6.734  12.747
25402SOL     OW78102   6.744   0.206  12.560
25402SOL    HW178103   6.717   0.120  12.527
25402SOL    HW278104   6.662   0.256  12.565
25403SOL     OW78105  10.392   8.106   7.505
25403SOL    HW178106  10.458   8.169   7.476
25403SOL    HW278107  10.411   8.092   7.598
25404SOL     OW78108  12.138   9.017   0.216
25404SOL    HW178109  12.197   8.983   0.149
25404SOL    HW278110  12.096   8.940   0.254
25405SOL     OW78111  14.341  14.460   3.616
25405SOL    HW178112  14.325  14.377   3.572
25405SOL    HW278113  14.319  14.527   3.551
25406SOL     OW78114   1.740   9.825   4.856
25406SOL    HW178115   1.751   9.920   4.847
25406SOL    HW278116   1.646   9.812   4.861
25407SOL     OW78117   0.202  10.387   7.730
25407SOL    HW178118   0.111  10.361   7.720
25407SOL    HW278119   0.252  10.310   7.703
25408SOL     OW78120   4.514   0.974   3.441
25408SOL    HW178121   4.608   0.962   3.453
25408SOL    HW278122   4.490   0.909   3.375
25409SOL     OW78123  11.891   0.479   1.731
25409SOL    HW178124  11.900   0.522   1.815
25409SOL    HW278125  11.867   0.389   1.753
25410SOL     OW78126   8.753   7.599   2.461
25410SOL    HW178127   8.686   7.650   2.415
25410SOL    HW278128   8.763   7.643   2.545
25411SOL     OW78129  10.631   8.223   0.104
25411SOL    HW178130  10.716   8.264   0.120
25411SOL    HW278131  10.628   8.150   0.166
25412SOL     OW78132   0.801  10.529  13.312
25412SOL    HW178133   0.859  10.565  13.379
25412SOL    HW278134   0.785  10.603  13.253
25413SOL     OW78135   0.285   7.100   7.420
25413SOL    HW178136   0.346   7.162   7.379
25413SOL    HW278137   0.307   7.016   7.380
25414SOL     OW78138  14.044   9.714   5.631
25414SOL    HW178139  14.118   9.773   5.613
25414SOL    HW278140  13.969   9.759   5.593
25415SOL     OW78141   7.892   5.303   0.340
25415SOL    HW178142   7.983   5.297   0.312
25415SOL    HW278143   7.880   5.231   0.402
25416SOL     OW78144   2.900   2.634   5.706
25416SOL    HW178145   2.848   2.660   5.630
25416SOL    HW278146   2.863   2.550   5.733
25417SOL     OW78147   2.831   0.154   0.187
25417SOL    HW178148   2.752   0.102   0.173
25417SOL    HW278149   2.874   0.113   0.262
25418SOL     OW78150   7.951  14.289   4.350
25418SOL    HW178151   7.866  14.248   4.366
25418SOL    HW278152   8.011  14.215   4.338
25419SOL     OW78153  10.036  14.726   5.152
25419SOL    HW178154  10.056  14.816   5.127
25419SOL    HW278155   9.967  14.734   5.218
25420SOL     OW78156   0.143   2.651   4.268
25420SOL    HW178157   0.112   2.565   4.238
25420SOL    HW278158   0.236   2.651   4.248
25421SOL     OW78159   5.668   6.260   5.582
25421SOL    HW178160   5.620   6.208   5.517
25421SOL    HW278161   5.668   6.349   5.546
25422SOL     OW78162   6.505  10.757   2.055
25422SOL    HW178163   6.546  10.671   2.069
25422SOL    HW278164   6.458  10.774   2.137
25423SOL     OW78165   1.375   1.207  13.385
25423SOL    HW178166   1.383   1.292  13.342
25423SOL    HW278167   1.465   1.179  13.400
25424SOL     OW78168   6.335  10.065   0.841
25424SOL    HW178169   6.417  10.105   0.869
25424SOL    HW278170   6.322  10.096   0.752
25425SOL     OW78171  13.520  10.539   6.360
25425SOL    HW178172  13.572  10.476   6.310
25425SOL    HW278173  13.444  10.490   6.391
25426SOL     OW78174   6.169   5.571   0.034
25426SOL    HW178175   6.103   5.639   0.022
25426SOL    HW278176   6.202   5.585   0.122
25427SOL     OW78177   0.330   3.689   0.510
25427SOL    HW178178   0.296   3.612   0.465
25427SOL    HW278179   0.346   3.753   0.441
25428SOL     OW78180   0.574  14.224  11.341
25428SOL    HW178181   0.637  14.160  11.307
25428SOL    HW278182   0.585  14.300  11.284
25429SOL     OW78183  12.107  13.177   9.220
25429SOL    HW178184  12.172  13.111   9.196
25429SOL    HW278185  12.065  13.143   9.299
25430SOL     OW78186  11.322   8.897   5.930
25430SOL    HW178187  11.365   8.873   5.848
25430SOL    HW278188  11.258   8.828   5.945
25431SOL     OW78189   4.329  10.965   6.057
25431SOL    HW178190   4.244  10.963   6.015
25431SOL    HW278191   4.340  10.878   6.095
25432SOL     OW78192   4.569  11.660   4.461
25432SOL    HW178193   4.497  11.707   4.421
25432SOL    HW278194   4.534  11.572   4.479
25433SOL     OW78195   1.270   6.659  14.537
25433SOL    HW178196   1.307   6.728  14.482
25433SOL    HW278197   1.270   6.582  14.481
25434SOL     OW78198   7.184   9.158   2.832
25434SOL    HW178199   7.215   9.072   2.803
25434SOL    HW278200   7.101   9.139   2.876
25435SOL     OW78201   4.489   8.702  13.438
25435SOL    HW178202   4.511   8.609  13.430
25435SOL    HW278203   4.463   8.713  13.529
25436SOL     OW78204  12.833   5.307  14.094
25436SOL    HW178205  12.859   5.314  14.002
25436SOL    HW278206  12.817   5.397  14.122
25437SOL     OW78207  12.288   2.784   2.394
25437SOL    HW178208  12.203   2.794   2.437
25437SOL    HW278209  12.349   2.832   2.449
25438SOL     OW78210   6.940   4.405  13.595
25438SOL    HW178211   6.900   4.353  13.526
25438SOL    HW278212   6.991   4.471  13.549
25439SOL     OW78213   6.438   8.322  13.868
25439SOL    HW178214   6.500   8.372  13.815
25439SOL    HW278215   6.458   8.347  13.958
25440SOL     OW78216   8.747   5.401  12.018
25440SOL    HW178217   8.777   5.428  12.105
25440SOL    HW278218   8.658   5.435  12.012
25441SOL     OW78219  11.948   4.206   3.748
25441SOL    HW178220  11.912   4.278   3.696
25441SOL    HW278221  11.988   4.148   3.683
25442SOL     OW78222  12.714   1.880   5.046
25442SOL    HW178223  12.790   1.899   4.991
25442SOL    HW278224  12.742   1.807   5.101
25443SOL     OW78225   9.835   7.646   4.015
25443SOL    HW178226   9.793   7.691   3.942
25443SOL    HW278227   9.772   7.578   4.040
25444SOL     OW78228   7.224   6.198  11.673
25444SOL    HW178229   7.283   6.125  11.653
25444SOL    HW278230   7.173   6.168  11.749
25445SOL     OW78231  14.793   2.983   1.718
25445SOL    HW178232  14.863   2.948   1.664
25445SOL    HW278233  14.814   3.076   1.727
25446SOL     OW78234   6.603   2.441  10.484
25446SOL    HW178235   6.596   2.536  10.492
25446SOL    HW278236   6.687   2.427  10.440
25447SOL     OW78237   5.777   9.912   0.706
25447SOL    HW178238   5.790   9.939   0.797
25447SOL    HW278239   5.859   9.934   0.662
25448SOL     OW78240   2.624   0.923  12.344
25448SOL    HW178241   2.548   0.941  12.398
25448SOL    HW278242   2.610   0.974  12.264
25449SOL     OW78243  13.169   3.254   3.643
25449SOL    HW178244  13.125   3.171   3.621
25449SOL    HW278245  13.256   3.247   3.604
25450SOL     OW78246  14.663   0.128   1.520
25450SOL    HW178247  14.718   0.078   1.579
25450SOL    HW278248  14.698   0.217   1.524
25451SOL     OW78249  12.145   5.705  13.426
25451SOL    HW178250  12.128   5.799  13.424
25451SOL    HW278251  12.074   5.668  13.478
25452SOL     OW78252  12.771   3.442  11.410
25452SOL    HW178253  12.704   3.399  11.463
25452SOL    HW278254  12.771   3.533  11.440
25453SOL     OW78255   1.973   8.983   6.308
25453SOL    HW178256   1.899   8.959   6.365
25453SOL    HW278257   1.959   8.932   6.228
25454SOL     OW78258   5.206   1.196   2.744
25454SOL    HW178259   5.185   1.106   2.767
25454SOL    HW278260   5.204   1.244   2.827
25455SOL     OW78261  10.492   8.294   4.477
25455SOL    HW178262  10.473   8.215   4.528
25455SOL    HW278263  10.542   8.263   4.402
25456SOL     OW78264  11.172   7.230  11.010
25456SOL    HW178265  11.110   7.176  11.057
25456SOL    HW278266  11.217   7.169  10.950
25457SOL     OW78267  14.564   3.919  13.035
25457SOL    HW178268  14.574   3.824  13.030
25457SOL    HW278269  14.596   3.951  12.950
25458SOL     OW78270  11.416   1.133   2.817
25458SOL    HW178271  11.483   1.181   2.769
25458SOL    HW278272  11.392   1.190   2.889
25459SOL     OW78273   0.840  10.258   7.471
25459SOL    HW178274   0.889  10.176   7.460
25459SOL    HW278275   0.842  10.275   7.565
25460SOL     OW78276   7.800   9.556   0.539
25460SOL    HW178277   7.848   9.635   0.563
25460SOL    HW278278   7.729   9.587   0.483
25461SOL     OW78279  11.062   0.727   8.324
25461SOL    HW178280  11.148   0.707   8.361
25461SOL    HW278281  11.082   0.777   8.244
25462SOL     OW78282   7.285   0.354   1.866
25462SOL    HW178283   7.295   0.261   1.844
25462SOL    HW278284   7.198   0.360   1.906
25463SOL     OW78285   8.043   4.885   9.976
25463SOL    HW178286   8.110   4.818   9.989
25463SOL    HW278287   7.966   4.837   9.946
25464SOL     OW78288   4.453  11.058   7.749
25464SOL    HW178289   4.405  11.141   7.744
25464SOL    HW278290   4.537  11.081   7.788
25465SOL     OW78291  14.803   5.484  14.581
25465SOL    HW178292  14.816   5.525  14.496
25465SOL    HW278293  14.720   5.518  14.613
25466SOL     OW78294  13.969   1.058  11.932
25466SOL    HW178295  14.046   1.088  11.883
25466SOL    HW278296  14.006   1.009  12.006
25467SOL     OW78297  14.671   3.636   9.651
25467SOL    HW178298  14.704   3.678   9.572
25467SOL    HW278299  14.748   3.627   9.707
25468SOL     OW78300   9.800  13.460  13.462
25468SOL    HW178301   9.793  13.533  13.524
25468SOL    HW278302   9.848  13.497  13.388
25469SOL     OW78303   0.507   2.226   9.656
25469SOL    HW178304   0.506   2.173   9.576
25469SOL    HW278305   0.570   2.296   9.638
25470SOL     OW78306  12.871   2.387   0.914
25470SOL    HW178307  12.919   2.382   0.832
25470SOL    HW278308  12.871   2.298   0.948
25471SOL     OW78309  10.148  14.346   3.444
25471SOL    HW178310  10.166  14.438   3.465
25471SOL    HW278311  10.057  14.347   3.414
25472SOL     OW78312  11.918  14.549  11.811
25472SOL    HW178313  11.903  14.541  11.905
25472SOL    HW278314  11.985  14.483  11.791
25473SOL     OW78315  12.362   2.557   3.021
25473SOL    HW178316  12.332   2.592   3.105
25473SOL    HW278317  12.453   2.586   3.014
25474SOL     OW78318   8.318   2.665  13.430
25474SOL    HW178319   8.238   2.674  13.482
25474SOL    HW278320   8.383   2.630  13.490
25475SOL     OW78321   2.943   3.359   7.594
25475SOL    HW178322   2.987   3.282   7.559
25475SOL    HW278323   2.953   3.425   7.525
25476SOL     OW78324  12.455  13.123   1.365
25476SOL    HW178325  12.521  13.193   1.371
25476SOL    HW278326  12.463  13.092   1.275
25477SOL     OW78327  13.122  10.501   6.196
25477SOL    HW178328  13.194  10.513   6.134
25477SOL    HW278329  13.067  10.578   6.183
25478SOL     OW78330   0.242   2.661   3.571
25478SOL    HW178331   0.278   2.572   3.573
25478SOL    HW278332   0.167   2.655   3.513
25479SOL     OW78333   5.160   2.789  14.334
25479SOL    HW178334   5.196   2.871  14.299
25479SOL    HW278335   5.088   2.816  14.390
25480SOL     OW78336  12.412  11.152   1.484
25480SOL    HW178337  12.498  11.177   1.518
25480SOL    HW278338  12.424  11.063   1.450
25481SOL     OW78339   8.261   3.707  11.894
25481SOL    HW178340   8.270   3.802  11.885
25481SOL    HW278341   8.350   3.676  11.909
25482SOL     OW78342   8.557   0.359   1.534
25482SOL    HW178343   8.561   0.287   1.471
25482SOL    HW278344   8.519   0.320   1.613
25483SOL     OW78345   3.413   1.548   5.444
25483SOL    HW178346   3.406   1.622   5.384
25483SOL    HW278347   3.371   1.476   5.397
25484SOL     OW78348  10.400   7.730   3.674
25484SOL    HW178349  10.372   7.697   3.589
25484SOL    HW278350  10.319   7.760   3.716
25485SOL     OW78351   5.164  13.905   8.191
25485SOL    HW178352   5.251  13.865   8.190
25485SOL    HW278353   5.125  13.880   8.107
25486SOL     OW78354   0.524   5.291   1.523
25486SOL    HW178355   0.592   5.318   1.461
25486SOL    HW278356   0.547   5.335   1.605
25487SOL     OW78357  12.858  10.986   3.535
25487SOL    HW178358  12.824  11.020   3.452
25487SOL    HW278359  12.950  10.966   3.517
25488SOL     OW78360   0.839  12.152   3.888
25488SOL    HW178361   0.815  12.137   3.796
25488SOL    HW278362   0.767  12.113   3.937
25489SOL     OW78363   5.505   3.078   6.647
25489SOL    HW178364   5.574   3.120   6.595
25489SOL    HW278365   5.428   3.134   6.634
25490SOL     OW78366   9.137   0.019   0.706
25490SOL    HW178367   9.158   0.003   0.614
25490SOL    HW278368   9.047   0.050   0.705
25491SOL     OW78369   7.370  13.129  13.691
25491SOL    HW178370   7.450  13.095  13.651
25491SOL    HW278371   7.395  13.150  13.781
25492SOL     OW78372  12.871   4.424   4.370
25492SOL    HW178373  12.789   4.376   4.371
25492SOL    HW278374  12.939   4.357   4.361
25493SOL     OW78375   1.362   3.182  10.636
25493SOL    HW178376   1.373   3.091  10.607
25493SOL    HW278377   1.444   3.203  10.679
25494SOL     OW78378   4.628  14.654   6.081
25494SOL    HW178379   4.695  14.585   6.089
25494SOL    HW278380   4.596  14.645   5.991
25495SOL     OW78381   5.272   0.123  12.102
25495SOL    HW178382   5.268   0.052  12.038
25495SOL    HW278383   5.188   0.169  12.093
25496SOL     OW78384   1.777   5.744  14.313
25496SOL    HW178385   1.743   5.807  14.250
25496SOL    HW278386   1.853   5.706  14.269
25497SOL     OW78387   0.302   1.516   7.052
25497SOL    HW178388   0.395   1.513   7.073
25497SOL    HW278389   0.266   1.435   7.088
25498SOL     OW78390  13.838  10.429   8.303
25498SOL    HW178391  13.758  10.482   8.309
25498SOL    HW278392  13.884  10.464   8.227
25499SOL     OW78393   2.912   9.373   9.428
25499SOL    HW178394   2.853   9.409   9.361
25499SOL    HW278395   2.994   9.419   9.415
25500SOL     OW78396   1.606   3.145   1.386
25500SOL    HW178397   1.606   3.162   1.480
25500SOL    HW278398   1.624   3.051   1.378
25501SOL     OW78399  10.368  10.766   1.634
25501SOL    HW178400  10.295  10.823   1.609
25501SOL    HW278401  10.395  10.724   1.553
25502SOL     OW78402   3.898  11.112   2.898
25502SOL    HW178403   3.883  11.084   2.807
25502SOL    HW278404   3.839  11.187   2.909
25503SOL     OW78405  12.882   2.647   7.033
25503SOL    HW178406  12.827   2.630   6.957
25503SOL    HW278407  12.968   2.668   6.997
25504SOL     OW78408   8.401   4.713   4.637
25504SOL    HW178409   8.331   4.777   4.621
25504SOL    HW278410   8.478   4.767   4.658
25505SOL     OW78411   4.352  13.658   4.786
25505SOL    HW178412   4.441  13.666   4.752
25505SOL    HW278413   4.354  13.579   4.841
25506SOL     OW78414  14.578  10.640  14.273
25506SOL    HW178415  14.509  10.672  14.331
25506SOL    HW278416  14.542  10.559  14.236
25507SOL     OW78417  13.320   2.164   3.060
25507SOL    HW178418  13.304   2.257   3.075
25507SOL    HW278419  13.369   2.161   2.977
25508SOL     OW78420  10.614  12.762  12.471
25508SOL    HW178421  10.531  12.793  12.508
25508SOL    HW278422  10.680  12.791  12.534
25509SOL     OW78423   1.169  11.295  13.046
25509SOL    HW178424   1.190  11.276  12.954
25509SOL    HW278425   1.254  11.293  13.090
25510SOL     OW78426  11.995   8.810   5.693
25510SOL    HW178427  12.017   8.789   5.602
25510SOL    HW278428  12.079   8.807   5.739
25511SOL     OW78429  10.682  12.562   8.078
25511SOL    HW178430  10.661  12.638   8.132
25511SOL    HW278431  10.768  12.534   8.109
25512SOL     OW78432   5.535   3.789   4.789
25512SOL    HW178433   5.611   3.808   4.734
25512SOL    HW278434   5.567   3.729   4.856
25513SOL     OW78435  14.001   3.021   6.525
25513SOL    HW178436  13.966   2.945   6.571
25513SOL    HW278437  13.972   3.010   6.434
25514SOL     OW78438   0.018   4.963   7.958
25514SOL    HW178439   0.026   5.046   8.005
25514SOL    HW278440  14.806   4.970   7.911
25515SOL     OW78441   4.891   4.170   3.497
25515SOL    HW178442   4.893   4.220   3.415
25515SOL    HW278443   4.817   4.110   3.487
25516SOL     OW78444   9.963  11.595   9.939
25516SOL    HW178445   9.937  11.678   9.898
25516SOL    HW278446  10.048  11.614   9.978
25517SOL     OW78447   7.301   8.126   1.837
25517SOL    HW178448   7.218   8.103   1.880
25517SOL    HW278449   7.282   8.116   1.744
25518SOL     OW78450   0.379  10.250   7.548
25518SOL    HW178451   0.407  10.160   7.566
25518SOL    HW278452   0.451  10.288   7.496
25519SOL     OW78453   6.168  13.679   9.908
25519SOL    HW178454   6.086  13.654   9.952
25519SOL    HW278455   6.235  13.667   9.975
25520SOL     OW78456  10.448  10.933   3.917
25520SOL    HW178457  10.538  10.916   3.944
25520SOL    HW278458  10.446  10.909   3.824
25521SOL     OW78459   9.568   0.202   2.159
25521SOL    HW178460   9.580   0.250   2.241
25521SOL    HW278461   9.496   0.248   2.114
25522SOL     OW78462  12.015   0.128   6.677
25522SOL    HW178463  12.025   0.166   6.764
25522SOL    HW278464  12.103   0.128   6.641
25523SOL     OW78465  10.673   6.164   2.844
25523SOL    HW178466  10.686   6.162   2.938
25523SOL    HW278467  10.578   6.163   2.832
25524SOL     OW78468   3.024  11.248  14.746
25524SOL    HW178469   2.962  11.219  14.679
25524SOL    HW278470   3.074  11.318  14.704
25525SOL     OW78471  11.189   7.055  14.117
25525SOL    HW178472  11.260   7.120  14.121
25525SOL    HW278473  11.122   7.096  14.062
25526SOL     OW78474   2.488  11.902   4.767
25526SOL    HW178475   2.581  11.923   4.757
25526SOL    HW278476   2.444  11.959   4.704
25527SOL     OW78477  10.024   5.375   3.905
25527SOL    HW178478  10.035   5.453   3.850
25527SOL    HW278479   9.936   5.384   3.941
25528SOL     OW78480  10.143   6.623   1.454
25528SOL    HW178481  10.114   6.700   1.503
25528SOL    HW278482  10.129   6.550   1.514
25529SOL     OW78483   0.577  14.822  14.189
25529SOL    HW178484   0.596   0.044  14.200
25529SOL    HW278485   0.534  14.796  14.270
25530SOL     OW78486   2.181   2.480   3.402
25530SOL    HW178487   2.156   2.396   3.440
25530SOL    HW278488   2.222   2.459   3.319
25531SOL     OW78489  14.160   5.447  13.468
25531SOL    HW178490  14.118   5.529  13.494
25531SOL    HW278491  14.172   5.456  13.373
25532SOL     OW78492  11.160  14.749  12.351
25532SOL    HW178493  11.097  14.760  12.422
25532SOL    HW278494  11.170  14.836  12.314
25533SOL     OW78495   9.824   6.171   4.154
25533SOL    HW178496   9.832   6.094   4.097
25533SOL    HW278497   9.896   6.228   4.127
25534SOL     OW78498   2.273   2.753   3.337
25534SOL    HW178499   2.260   2.761   3.242
25534SOL    HW278500   2.236   2.667   3.359
25535SOL     OW78501  11.194   6.334   8.077
25535SOL    HW178502  11.286   6.357   8.085
25535SOL    HW278503  11.147   6.404   8.122
25536SOL     OW78504  10.027  13.039   1.303
25536SOL    HW178505  10.086  13.112   1.284
25536SOL    HW278506  10.085  12.962   1.302
25537SOL     OW78507   2.349  11.326   7.411
25537SOL    HW178508   2.350  11.296   7.502
25537SOL    HW278509   2.371  11.249   7.359
25538SOL     OW78510  10.465  13.272   5.373
25538SOL    HW178511  10.555  13.305   5.380
25538SOL    HW278512  10.422  13.333   5.313
25539SOL     OW78513   5.648  12.448  10.346
25539SOL    HW178514   5.682  12.492  10.267
25539SOL    HW278515   5.591  12.514  10.387
25540SOL     OW78516  11.684   9.309   3.406
25540SOL    HW178517  11.778   9.292   3.409
25540SOL    HW278518  11.675   9.380   3.343
25541SOL     OW78519   2.700  11.786   5.099
25541SOL    HW178520   2.710  11.800   5.005
25541SOL    HW278521   2.679  11.693   5.107
25542SOL     OW78522   6.984   7.961   9.049
25542SOL    HW178523   6.895   7.990   9.028
25542SOL    HW278524   7.038   8.038   9.032
25543SOL     OW78525  11.977   8.845   0.403
25543SOL    HW178526  11.920   8.920   0.418
25543SOL    HW278527  11.992   8.808   0.489
25544SOL     OW78528   8.035   6.771  14.871
25544SOL    HW178529   7.952   6.774  14.824
25544SOL    HW278530   8.101   6.789  14.804
25545SOL     OW78531   7.442  14.309   8.683
25545SOL    HW178532   7.365  14.314   8.627
25545SOL    HW278533   7.412  14.344   8.767
25546SOL     OW78534   7.430   6.357   2.400
25546SOL    HW178535   7.475   6.429   2.444
25546SOL    HW278536   7.379   6.315   2.468
25547SOL     OW78537   1.678   6.517  11.789
25547SOL    HW178538   1.669   6.438  11.736
25547SOL    HW278539   1.589   6.553  11.794
25548SOL     OW78540  10.658  12.490   7.305
25548SOL    HW178541  10.566  12.501   7.280
25548SOL    HW278542  10.661  12.520   7.396
25549SOL     OW78543   1.888  14.774   3.694
25549SOL    HW178544   1.849  14.855   3.727
25549SOL    HW278545   1.831  14.748   3.622
25550SOL     OW78546   3.389   8.369   3.615
25550SOL    HW178547   3.456   8.437   3.598
25550SOL    HW278548   3.409   8.300   3.551
25551SOL     OW78549  14.699   4.853  14.319
25551SOL    HW178550  14.624   4.795  14.301
25551SOL    HW278551  14.769   4.793  14.344
25552SOL     OW78552   0.047  14.303  13.016
25552SOL    HW178553   0.064  14.361  12.942
25552SOL    HW278554   0.098  14.224  12.996
25553SOL     OW78555   3.579  13.070   8.741
25553SOL    HW178556   3.650  13.080   8.678
25553SOL    HW278557   3.551  12.979   8.732
25554SOL     OW78558   8.894   6.023   1.066
25554SOL    HW178559   8.899   6.025   0.970
25554SOL    HW278560   8.985   6.031   1.095
25555SOL     OW78561   6.447  14.822   7.136
25555SOL    HW178562   6.501  14.782   7.068
25555SOL    HW278563   6.461  14.767   7.213
25556SOL     OW78564   2.679  10.166  14.171
25556SOL    HW178565   2.756  10.223  14.170
25556SOL    HW278566   2.680  10.126  14.258
25557SOL     OW78567   3.499   1.838   9.834
25557SOL    HW178568   3.585   1.808   9.866
25557SOL    HW278569   3.520   1.908   9.772
25558SOL     OW78570   1.094  13.751   2.137
25558SOL    HW178571   1.098  13.841   2.168
25558SOL    HW278572   1.001  13.727   2.146
25559SOL     OW78573   9.573   4.933  13.184
25559SOL    HW178574   9.525   4.959  13.263
25559SOL    HW278575   9.509   4.939  13.113
25560SOL     OW78576   2.701   4.234   4.567
25560SOL    HW178577   2.694   4.189   4.482
25560SOL    HW278578   2.795   4.235   4.585
25561SOL     OW78579   0.508  13.328   9.128
25561SOL    HW178580   0.572  13.400   9.133
25561SOL    HW278581   0.534  13.280   9.049
25562SOL     OW78582   6.362   8.302   4.745
25562SOL    HW178583   6.300   8.352   4.692
25562SOL    HW278584   6.325   8.303   4.833
25563SOL     OW78585  12.220   5.014  10.459
25563SOL    HW178586  12.219   4.945  10.526
25563SOL    HW278587  12.264   4.974  10.384
25564SOL     OW78588   1.707  13.111   5.836
25564SOL    HW178589   1.644  13.172   5.875
25564SOL    HW278590   1.653  13.050   5.785
25565SOL     OW78591  10.804   5.406   6.492
25565SOL    HW178592  10.768   5.416   6.580
25565SOL    HW278593  10.848   5.322   6.493
25566SOL     OW78594  13.901   9.174  10.085
25566SOL    HW178595  13.858   9.182   9.999
25566SOL    HW278596  13.990   9.147  10.065
25567SOL     OW78597   5.467   1.900   0.788
25567SOL    HW178598   5.520   1.941   0.719
25567SOL    HW278599   5.429   1.974   0.835
25568SOL     OW78600   1.425  13.251   2.649
25568SOL    HW178601   1.469  13.322   2.696
25568SOL    HW278602   1.332  13.261   2.672
25569SOL     OW78603   5.157   4.903   9.181
25569SOL    HW178604   5.103   4.959   9.236
25569SOL    HW278605   5.131   4.925   9.092
25570SOL     OW78606   2.050   7.973   1.307
25570SOL    HW178607   2.067   8.039   1.374
25570SOL    HW278608   1.955   7.961   1.307
25571SOL     OW78609   4.181   6.298  12.477
25571SOL    HW178610   4.170   6.251  12.559
25571SOL    HW278611   4.103   6.353  12.469
25572SOL     OW78612  12.788   0.503  14.571
25572SOL    HW178613  12.733   0.495  14.493
25572SOL    HW278614  12.744   0.450  14.637
25573SOL     OW78615  13.013   5.608  12.267
25573SOL    HW178616  12.962   5.620  12.186
25573SOL    HW278617  13.027   5.697  12.299
25574SOL     OW78618  13.369   3.877   8.643
25574SOL    HW178619  13.389   3.784   8.657
25574SOL    HW278620  13.280   3.877   8.607
25575SOL     OW78621   8.823  13.200   7.252
25575SOL    HW178622   8.871  13.120   7.228
25575SOL    HW278623   8.886  13.251   7.302
25576SOL     OW78624   5.740   4.719   8.929
25576SOL    HW178625   5.706   4.632   8.908
25576SOL    HW278626   5.812   4.733   8.867
25577SOL     OW78627  14.208  11.852  11.358
25577SOL    HW178628  14.248  11.819  11.277
25577SOL    HW278629  14.276  11.842  11.424
25578SOL     OW78630   4.726   4.076   1.119
25578SOL    HW178631   4.723   4.163   1.157
25578SOL    HW278632   4.709   4.016   1.192
25579SOL     OW78633   1.949  11.344   9.757
25579SOL    HW178634   1.929  11.277   9.691
25579SOL    HW278635   1.978  11.294   9.833
25580SOL     OW78636  11.562   3.336   5.310
25580SOL    HW178637  11.557   3.429   5.287
25580SOL    HW278638  11.600   3.294   5.232
25581SOL     OW78639   4.203   2.637   5.324
25581SOL    HW178640   4.281   2.614   5.375
25581SOL    HW278641   4.233   2.636   5.233
25582SOL     OW78642   5.978  11.442   6.147
25582SOL    HW178643   6.050  11.505   6.153
25582SOL    HW278644   5.968  11.410   6.237
25583SOL     OW78645   6.157   1.844   9.894
25583SOL    HW178646   6.153   1.818   9.986
25583SOL    HW278647   6.150   1.761   9.846
25584SOL     OW78648   1.140   3.885  13.752
25584SOL    HW178649   1.137   3.802  13.799
25584SOL    HW278650   1.231   3.914  13.762
25585SOL     OW78651  13.603   6.695   0.545
25585SOL    HW178652  13.666   6.659   0.607
25585SOL    HW278653  13.518   6.674   0.582
25586SOL     OW78654   6.636   6.773   3.029
25586SOL    HW178655   6.601   6.715   2.962
25586SOL    HW278656   6.589   6.750   3.109
25587SOL     OW78657  13.433   6.610   5.549
25587SOL    HW178658  13.528   6.624   5.552
25587SOL    HW278659  13.400   6.662   5.623
25588SOL     OW78660   4.914   0.238   0.564
25588SOL    HW178661   4.863   0.264   0.487
25588SOL    HW278662   5.005   0.244   0.535
25589SOL     OW78663   5.716   5.154   7.227
25589SOL    HW178664   5.704   5.210   7.150
25589SOL    HW278665   5.681   5.069   7.200
25590SOL     OW78666   6.991   6.708   4.145
25590SOL    HW178667   7.009   6.722   4.052
25590SOL    HW278668   6.907   6.662   4.147
25591SOL     OW78669  10.151  13.308   1.641
25591SOL    HW178670  10.091  13.297   1.566
25591SOL    HW278671  10.227  13.254   1.619
25592SOL     OW78672  13.649   8.959  13.712
25592SOL    HW178673  13.739   8.955  13.745
25592SOL    HW278674  13.638   8.878  13.663
25593SOL     OW78675  10.576  11.078  10.243
25593SOL    HW178676  10.570  10.989  10.206
25593SOL    HW278677  10.570  11.065  10.337
25594SOL     OW78678  11.946   3.690   6.390
25594SOL    HW178679  11.977   3.752   6.457
25594SOL    HW278680  12.009   3.619   6.392
25595SOL     OW78681  13.693   2.840   5.643
25595SOL    HW178682  13.723   2.804   5.559
25595SOL    HW278683  13.678   2.763   5.698
25596SOL     OW78684  12.053   0.141  14.353
25596SOL    HW178685  11.998   0.200  14.302
25596SOL    HW278686  12.000   0.117  14.428
25597SOL     OW78687   6.056   2.758  13.927
25597SOL    HW178688   6.144   2.794  13.917
25597SOL    HW278689   6.016   2.811  13.995
25598SOL     OW78690   0.691   3.463  10.227
25598SOL    HW178691   0.668   3.417  10.307
25598SOL    HW278692   0.620   3.525  10.214
25599SOL     OW78693   5.987   6.936  14.425
25599SOL    HW178694   6.032   6.864  14.470
25599SOL    HW278695   6.011   7.014  14.475
25600SOL     OW78696  11.589   5.091   7.102
25600SOL    HW178697  11.627   5.030   7.038
25600SOL    HW278698  11.496   5.095   7.079
25601SOL     OW78699   5.405  10.683  14.712
25601SOL    HW178700   5.320  10.670  14.671
25601SOL    HW278701   5.423  10.602  14.759
25602SOL     OW78702   3.062   8.857  11.518
25602SOL    HW178703   3.062   8.795  11.591
25602SOL    HW278704   3.122   8.820  11.454
25603SOL     OW78705   6.131   8.520   3.733
25603SOL    HW178706   6.172   8.599   3.696
25603SOL    HW278707   6.183   8.501   3.811
25604SOL     OW78708   2.740  12.254   1.858
25604SOL    HW178709   2.776  12.222   1.940
25604SOL    HW278710   2.722  12.347   1.874
25605SOL     OW78711   3.298   9.972  12.559
25605SOL    HW178712   3.248   9.950  12.480
25605SOL    HW278713   3.275  10.064  12.577
25606SOL     OW78714  10.543   6.092  10.071
25606SOL    HW178715  10.576   6.003  10.055
25606SOL    HW278716  10.538   6.132   9.985
25607SOL     OW78717   0.596   1.091  11.557
25607SOL    HW178718   0.542   1.151  11.506
25607SOL    HW278719   0.678   1.139  11.571
25608SOL     OW78720   9.010   8.767   7.599
25608SOL    HW178721   8.937   8.714   7.632
25608SOL    HW278722   9.086   8.737   7.648
25609SOL     OW78723   1.956  10.922   7.327
25609SOL    HW178724   1.984  10.928   7.236
25609SOL    HW278725   1.873  10.968   7.330
25610SOL     OW78726  10.644   2.717   1.249
25610SOL    HW178727  10.726   2.683   1.213
25610SOL    HW278728  10.664   2.807   1.274
25611SOL     OW78729   2.841   6.176  10.949
25611SOL    HW178730   2.774   6.117  10.984
25611SOL    HW278731   2.922   6.148  10.993
25612SOL     OW78732   7.549   8.659   5.205
25612SOL    HW178733   7.464   8.637   5.166
25612SOL    HW278734   7.526   8.701   5.288
25613SOL     OW78735   4.371   3.293   4.312
25613SOL    HW178736   4.291   3.282   4.364
25613SOL    HW278737   4.434   3.333   4.372
25614SOL     OW78738   6.134   8.101  11.148
25614SOL    HW178739   6.134   8.181  11.095
25614SOL    HW278740   6.083   8.038  11.097
25615SOL     OW78741   1.676   6.052  12.062
25615SOL    HW178742   1.722   6.135  12.048
25615SOL    HW278743   1.620   6.069  12.138
25616SOL     OW78744   1.959   2.229   5.506
25616SOL    HW178745   1.878   2.207   5.553
25616SOL    HW278746   2.014   2.272   5.571
25617SOL     OW78747   6.547   2.208  12.221
25617SOL    HW178748   6.607   2.139  12.249
25617SOL    HW278749   6.488   2.164  12.159
25618SOL     OW78750   6.040   3.277  13.353
25618SOL    HW178751   5.950   3.259  13.325
25618SOL    HW278752   6.090   3.201  13.322
25619SOL     OW78753   8.362  14.628  12.441
25619SOL    HW178754   8.326  14.716  12.433
25619SOL    HW278755   8.424  14.634  12.514
25620SOL     OW78756   5.489   9.400  10.541
25620SOL    HW178757   5.477   9.491  10.514
25620SOL    HW278758   5.544   9.405  10.619
25621SOL     OW78759  11.486   8.840  12.567
25621SOL    HW178760  11.452   8.849  12.656
25621SOL    HW278761  11.464   8.750  12.543
25622SOL     OW78762   2.171   0.389  12.381
25622SOL    HW178763   2.237   0.343  12.330
25622SOL    HW278764   2.107   0.322  12.405
25623SOL     OW78765  14.826   1.590   1.157
25623SOL    HW178766   0.006   1.510   1.163
25623SOL    HW278767  14.743   1.567   1.199
25624SOL     OW78768   8.803   7.743   2.710
25624SOL    HW178769   8.721   7.784   2.736
25624SOL    HW278770   8.845   7.806   2.651
25625SOL     OW78771   9.053   3.667   6.737
25625SOL    HW178772   9.058   3.632   6.648
25625SOL    HW278773   8.980   3.728   6.736
25626SOL     OW78774   1.618  10.321   2.176
25626SOL    HW178775   1.633  10.407   2.137
25626SOL    HW278776   1.577  10.270   2.106
25627SOL     OW78777  12.838   0.480  12.275
25627SOL    HW178778  12.817   0.514  12.188
25627SOL    HW278779  12.919   0.526  12.299
25628SOL     OW78780  13.001   3.574  12.684
25628SOL    HW178781  13.045   3.499  12.643
25628SOL    HW278782  12.910   3.547  12.691
25629SOL     OW78783  11.044   5.097   6.452
25629SOL    HW178784  11.037   5.159   6.379
25629SOL    HW278785  11.009   5.144   6.527
25630SOL     OW78786  13.051   4.177   7.973
25630SOL    HW178787  13.111   4.103   7.963
25630SOL    HW278788  12.964   4.141   7.955
25631SOL     OW78789   5.607   6.420  14.468
25631SOL    HW178790   5.693   6.461  14.473
25631SOL    HW278791   5.553   6.485  14.422
25632SOL     OW78792   3.288  10.894  10.310
25632SOL    HW178793   3.221  10.961  10.325
25632SOL    HW278794   3.256  10.817  10.358
25633SOL     OW78795  12.700  14.623   0.714
25633SOL    HW178796  12.616  14.624   0.668
25633SOL    HW278797  12.757  14.677   0.661
25634SOL     OW78798   0.963  14.819   0.909
25634SOL    HW178799   0.994  14.731   0.885
25634SOL    HW278800   0.868  14.813   0.905
25635SOL     OW78801   4.090  13.379   6.592
25635SOL    HW178802   4.128  13.390   6.505
25635SOL    HW278803   4.166  13.382   6.651
25636SOL     OW78804  14.859   8.797  11.251
25636SOL    HW178805  14.799   8.865  11.220
25636SOL    HW278806   0.059   8.845  11.292
25637SOL     OW78807   2.396  14.043   1.297
25637SOL    HW178808   2.333  13.987   1.252
25637SOL    HW278809   2.455  13.983   1.341
25638SOL     OW78810   6.517  12.632   7.434
25638SOL    HW178811   6.443  12.663   7.382
25638SOL    HW278812   6.476  12.586   7.508
25639SOL     OW78813   1.904  10.753   0.931
25639SOL    HW178814   1.993  10.720   0.918
25639SOL    HW278815   1.849  10.698   0.876
25640SOL     OW78816  12.874   7.745  12.665
25640SOL    HW178817  12.902   7.791  12.586
25640SOL    HW278818  12.915   7.658  12.658
25641SOL     OW78819   6.710   1.914   1.024
25641SOL    HW178820   6.630   1.866   1.004
25641SOL    HW278821   6.780   1.852   1.005
25642SOL     OW78822   2.121   7.432  11.935
25642SOL    HW178823   2.097   7.484  12.012
25642SOL    HW278824   2.164   7.355  11.971
25643SOL     OW78825   4.965   3.262   9.587
25643SOL    HW178826   5.047   3.244   9.541
25643SOL    HW278827   4.905   3.195   9.555
25644SOL     OW78828   7.298   8.280   8.241
25644SOL    HW178829   7.334   8.192   8.248
25644SOL    HW278830   7.236   8.287   8.313
25645SOL     OW78831   8.945   9.960  10.522
25645SOL    HW178832   8.952   9.866  10.511
25645SOL    HW278833   9.001   9.980  10.597
25646SOL     OW78834  14.766  12.757  12.803
25646SOL    HW178835  14.766  12.696  12.878
25646SOL    HW278836  14.855  12.791  12.800
25647SOL     OW78837   5.163  13.766   8.599
25647SOL    HW178838   5.116  13.832   8.651
25647SOL    HW278839   5.117  13.766   8.515
25648SOL     OW78840  12.454  12.684  12.059
25648SOL    HW178841  12.451  12.709  11.967
25648SOL    HW278842  12.470  12.766  12.106
25649SOL     OW78843   8.926   9.960  11.233
25649SOL    HW178844   8.858  10.027  11.234
25649SOL    HW278845   8.882   9.880  11.262
25650SOL     OW78846   7.933  10.739   1.803
25650SOL    HW178847   8.014  10.789   1.813
25650SOL    HW278848   7.902  10.761   1.715
25651SOL     OW78849   0.662   0.281   9.634
25651SOL    HW178850   0.617   0.258   9.553
25651SOL    HW278851   0.740   0.225   9.635
25652SOL     OW78852  13.237   7.953  12.635
25652SOL    HW178853  13.232   7.881  12.572
25652SOL    HW278854  13.183   8.022  12.596
25653SOL     OW78855  12.015   1.302   8.660
25653SOL    HW178856  11.941   1.266   8.611
25653SOL    HW278857  12.090   1.248   8.634
25654SOL     OW78858  14.124  12.831  10.268
25654SOL    HW178859  14.099  12.885  10.193
25654SOL    HW278860  14.057  12.764  10.273
25655SOL     OW78861   8.718  11.291  12.722
25655SOL    HW178862   8.810  11.297  12.694
25655SOL    HW278863   8.710  11.205  12.762
25656SOL     OW78864  14.685  14.669   7.182
25656SOL    HW178865  14.777  14.694   7.187
25656SOL    HW278866  14.655  14.667   7.273
25657SOL     OW78867   1.213   0.880   8.653
25657SOL    HW178868   1.131   0.838   8.628
25657SOL    HW278869   1.239   0.930   8.576
25658SOL     OW78870   3.681   1.130   7.023
25658SOL    HW178871   3.720   1.094   7.103
25658SOL    HW278872   3.703   1.223   7.026
25659SOL     OW78873   1.502   8.972  11.634
25659SOL    HW178874   1.571   8.927  11.683
25659SOL    HW278875   1.447   8.902  11.599
25660SOL     OW78876   1.254   5.149  14.245
25660SOL    HW178877   1.210   5.159  14.330
25660SOL    HW278878   1.320   5.082  14.260
25661SOL     OW78879  14.587   7.262   5.293
25661SOL    HW178880  14.502   7.219   5.289
25661SOL    HW278881  14.646   7.198   5.332
25662SOL     OW78882   0.729   7.207   4.563
25662SOL    HW178883   0.689   7.173   4.483
25662SOL    HW278884   0.656   7.246   4.611
25663SOL     OW78885  11.664  14.663  12.208
25663SOL    HW178886  11.644  14.675  12.115
25663SOL    HW278887  11.579  14.665  12.251
25664SOL     OW78888  14.434  13.450  10.652
25664SOL    HW178889  14.386  13.429  10.571
25664SOL    HW278890  14.468  13.538  10.638
25665SOL     OW78891   4.155  10.259   3.417
25665SOL    HW178892   4.138  10.266   3.323
25665SOL    HW278893   4.068  10.259   3.457
25666SOL     OW78894  13.049   0.867  11.539
25666SOL    HW178895  13.027   0.859  11.632
25666SOL    HW278896  12.964   0.876  11.495
25667SOL     OW78897   3.389   0.166   7.634
25667SOL    HW178898   3.471   0.154   7.682
25667SOL    HW278899   3.377   0.082   7.588
25668SOL     OW78900  12.781   7.646  10.926
25668SOL    HW178901  12.825   7.689  11.000
25668SOL    HW278902  12.851   7.602  10.879
25669SOL     OW78903   8.742  12.214   5.414
25669SOL    HW178904   8.718  12.305   5.427
25669SOL    HW278905   8.658  12.168   5.402
25670SOL     OW78906  12.555   4.531   7.228
25670SOL    HW178907  12.514   4.482   7.156
25670SOL    HW278908  12.566   4.620   7.193
25671SOL     OW78909  14.161   9.095  10.701
25671SOL    HW178910  14.121   9.080  10.615
25671SOL    HW278911  14.099   9.154  10.745
25672SOL     OW78912  13.576  12.416  14.705
25672SOL    HW178913  13.586  12.505  14.739
25672SOL    HW278914  13.542  12.428  14.617
25673SOL     OW78915   1.884   9.345   5.593
25673SOL    HW178916   1.909   9.293   5.670
25673SOL    HW278917   1.951   9.413   5.587
25674SOL     OW78918  13.188   4.326   7.317
25674SOL    HW178919  13.166   4.237   7.288
25674SOL    HW278920  13.143   4.383   7.255
25675SOL     OW78921   8.825   9.540   4.312
25675SOL    HW178922   8.821   9.483   4.235
25675SOL    HW278923   8.912   9.525   4.349
25676SOL     OW78924  11.968  12.965   6.016
25676SOL    HW178925  11.922  12.917   6.085
25676SOL    HW278926  11.954  12.913   5.937
25677SOL     OW78927  10.397   5.973   9.185
25677SOL    HW178928  10.487   6.001   9.204
25677SOL    HW278929  10.403   5.930   9.100
25678SOL     OW78930  12.624  11.628   4.457
25678SOL    HW178931  12.681  11.680   4.399
25678SOL    HW278932  12.543  11.677   4.462
25679SOL     OW78933   4.816   2.264  10.922
25679SOL    HW178934   4.792   2.333  10.984
25679SOL    HW278935   4.905   2.287  10.894
25680SOL     OW78936   0.190   0.540   8.340
25680SOL    HW178937   0.285   0.527   8.340
25680SOL    HW278938   0.167   0.547   8.247
25681SOL     OW78939   9.111   5.048   4.983
25681SOL    HW178940   9.121   5.019   5.074
25681SOL    HW278941   9.173   5.120   4.974
25682SOL     OW78942  13.226   4.819   1.919
25682SOL    HW178943  13.249   4.878   1.990
25682SOL    HW278944  13.264   4.859   1.841
25683SOL     OW78945  13.840  13.512   1.216
25683SOL    HW178946  13.786  13.433   1.207
25683SOL    HW278947  13.920  13.491   1.168
25684SOL     OW78948   0.273  12.534   1.765
25684SOL    HW178949   0.297  12.501   1.678
25684SOL    HW278950   0.181  12.559   1.757
25685SOL     OW78951  13.760  14.649   4.776
25685SOL    HW178952  13.707  14.599   4.838
25685SOL    HW278953  13.834  14.681   4.828
25686SOL     OW78954   2.639   1.882   0.239
25686SOL    HW178955   2.578   1.948   0.205
25686SOL    HW278956   2.608   1.864   0.327
25687SOL     OW78957   9.954   1.043   7.775
25687SOL    HW178958   9.967   1.123   7.825
25687SOL    HW278959   9.860   1.026   7.783
25688SOL     OW78960  14.592  10.136   5.919
25688SOL    HW178961  14.594  10.070   5.850
25688SOL    HW278962  14.500  10.158   5.929
25689SOL     OW78963  10.437   3.932   9.957
25689SOL    HW178964  10.386   4.013   9.954
25689SOL    HW278965  10.437   3.907  10.050
25690SOL     OW78966   8.384  10.070  10.348
25690SOL    HW178967   8.292  10.063  10.375
25690SOL    HW278968   8.431  10.013  10.409
25691SOL     OW78969   0.252  14.525   7.420
25691SOL    HW178970   0.296  14.582   7.483
25691SOL    HW278971   0.202  14.463   7.473
25692SOL     OW78972   1.123   8.932   0.905
25692SOL    HW178973   1.079   8.972   0.830
25692SOL    HW278974   1.135   9.004   0.967
25693SOL     OW78975   9.804  10.217  14.342
25693SOL    HW178976   9.716  10.182  14.356
25693SOL    HW278977   9.793  10.285  14.276
25694SOL     OW78978  12.007  10.016   9.265
25694SOL    HW178979  12.100  10.018   9.243
25694SOL    HW278980  12.003   9.977   9.352
25695SOL     OW78981  14.292   4.739  11.600
25695SOL    HW178982  14.214   4.683  11.608
25695SOL    HW278983  14.343   4.697  11.531
25696SOL     OW78984   0.318  13.823   6.110
25696SOL    HW178985   0.292  13.733   6.094
25696SOL    HW278986   0.407  13.828   6.075
25697SOL     OW78987  13.106  12.821   1.012
25697SOL    HW178988  13.015  12.826   0.983
25697SOL    HW278989  13.143  12.747   0.965
25698SOL     OW78990   5.039   1.951   1.462
25698SOL    HW178991   5.117   1.911   1.501
25698SOL    HW278992   4.982   1.970   1.537
25699SOL     OW78993  11.640  14.104  14.386
25699SOL    HW178994  11.670  14.057  14.308
25699SOL    HW278995  11.690  14.064  14.458
25700SOL     OW78996  14.524  14.210   8.813
25700SOL    HW178997  14.452  14.148   8.823
25700SOL    HW278998  14.601  14.161   8.840
25701SOL     OW78999  11.808   2.045   1.794
25701SOL    HW179000  11.797   2.140   1.790
25701SOL    HW279001  11.817   2.018   1.702
25702SOL     OW79002   2.996   1.471   6.514
25702SOL    HW179003   3.067   1.526   6.480
25702SOL    HW279004   3.023   1.449   6.603
25703SOL     OW79005  10.987   6.878   7.269
25703SOL    HW179006  10.926   6.804   7.263
25703SOL    HW279007  11.012   6.880   7.361
25704SOL     OW79008  13.412  10.439   1.738
25704SOL    HW179009  13.377  10.491   1.666
25704SOL    HW279010  13.367  10.354   1.730
25705SOL     OW79011  12.778   0.028   1.434
25705SOL    HW179012  12.850   0.088   1.413
25705SOL    HW279013  12.789  14.826   1.374
25706SOL     OW79014   1.724   6.077   5.777
25706SOL    HW179015   1.662   6.142   5.811
25706SOL    HW279016   1.679   5.993   5.787
25707SOL     OW79017   7.785   5.797   8.601
25707SOL    HW179018   7.850   5.759   8.660
25707SOL    HW279019   7.836   5.843   8.535
25708SOL     OW79020   9.629   4.060  12.699
25708SOL    HW179021   9.569   4.030  12.768
25708SOL    HW279022   9.616   4.155  12.695
25709SOL     OW79023  13.925  13.414   6.176
25709SOL    HW179024  13.914  13.484   6.240
25709SOL    HW279025  13.846  13.417   6.123
25710SOL     OW79026  14.512   5.445   2.033
25710SOL    HW179027  14.430   5.434   2.081
25710SOL    HW279028  14.509   5.536   2.001
25711SOL     OW79029   1.374   0.270   7.818
25711SOL    HW179030   1.329   0.224   7.889
25711SOL    HW279031   1.306   0.320   7.774
25712SOL     OW79032  13.983   4.985   8.335
25712SOL    HW179033  14.031   4.916   8.290
25712SOL    HW279034  14.051   5.042   8.372
25713SOL     OW79035   7.650   5.116  14.016
25713SOL    HW179036   7.743   5.138  14.017
25713SOL    HW279037   7.618   5.145  14.101
25714SOL     OW79038  13.219   9.858   4.447
25714SOL    HW179039  13.143   9.818   4.490
25714SOL    HW279040  13.294   9.827   4.499
25715SOL     OW79041   6.700   7.184   4.015
25715SOL    HW179042   6.778   7.136   4.042
25715SOL    HW279043   6.725   7.226   3.933
25716SOL     OW79044   4.014   2.095   3.786
25716SOL    HW179045   4.097   2.109   3.739
25716SOL    HW279046   3.993   2.003   3.771
25717SOL     OW79047   9.576   2.498   0.995
25717SOL    HW179048   9.578   2.478   1.089
25717SOL    HW279049   9.563   2.413   0.954
25718SOL     OW79050   9.337   7.420   0.116
25718SOL    HW179051   9.273   7.350   0.132
25718SOL    HW279052   9.311   7.489   0.177
25719SOL     OW79053   7.378   5.539  11.838
25719SOL    HW179054   7.467   5.531  11.873
25719SOL    HW279055   7.328   5.472  11.883
25720SOL     OW79056  13.968   3.624  13.970
25720SOL    HW179057  13.951   3.619  13.875
25720SOL    HW279058  14.030   3.553  13.987
25721SOL     OW79059   8.214  10.606   5.712
25721SOL    HW179060   8.140  10.656   5.747
25721SOL    HW279061   8.288  10.632   5.767
25722SOL     OW79062   6.265  10.893  11.158
25722SOL    HW179063   6.333  10.916  11.094
25722SOL    HW279064   6.232  10.808  11.129
25723SOL     OW79065   5.766   5.827   8.409
25723SOL    HW179066   5.755   5.921   8.393
25723SOL    HW279067   5.843   5.803   8.357
25724SOL     OW79068  11.777  11.010  11.720
25724SOL    HW179069  11.697  10.977  11.761
25724SOL    HW279070  11.748  11.047  11.636
25725SOL     OW79071  11.746   7.902   6.424
25725SOL    HW179072  11.749   7.997   6.433
25725SOL    HW279073  11.825   7.880   6.373
25726SOL     OW79074  11.655  10.169   3.188
25726SOL    HW179075  11.741  10.182   3.227
25726SOL    HW279076  11.617  10.095   3.235
25727SOL     OW79077   2.286  10.177   6.450
25727SOL    HW179078   2.254  10.164   6.540
25727SOL    HW279079   2.379  10.157   6.455
25728SOL     OW79080  10.077   0.576  12.690
25728SOL    HW179081  10.011   0.517  12.727
25728SOL    HW279082  10.156   0.559  12.741
25729SOL     OW79083  10.242  10.876  14.140
25729SOL    HW179084  10.323  10.906  14.182
25729SOL    HW279085  10.184  10.952  14.143
25730SOL     OW79086   4.121   8.881   6.955
25730SOL    HW179087   4.071   8.856   7.032
25730SOL    HW279088   4.211   8.888   6.986
25731SOL     OW79089   2.878   9.243   5.299
25731SOL    HW179090   2.819   9.173   5.271
25731SOL    HW279091   2.821   9.307   5.341
25732SOL     OW79092   6.711   8.593  13.850
25732SOL    HW179093   6.696   8.503  13.823
25732SOL    HW279094   6.628   8.638  13.832
25733SOL     OW79095   6.274   7.002  12.981
25733SOL    HW179096   6.357   6.995  13.029
25733SOL    HW279097   6.300   7.009  12.889
25734SOL     OW79098   3.411   9.121  13.576
25734SOL    HW179099   3.473   9.130  13.504
25734SOL    HW279100   3.458   9.070  13.642
25735SOL     OW79101   7.389   6.510  11.404
25735SOL    HW179102   7.437   6.551  11.476
25735SOL    HW279103   7.435   6.428  11.389
25736SOL     OW79104   3.669  11.740  14.347
25736SOL    HW179105   3.744  11.746  14.287
25736SOL    HW279106   3.684  11.659  14.395
25737SOL     OW79107   7.172   0.594   7.372
25737SOL    HW179108   7.090   0.581   7.421
25737SOL    HW279109   7.146   0.637   7.291
25738SOL     OW79110  10.987  12.897  12.876
25738SOL    HW179111  10.978  12.801  12.872
25738SOL    HW279112  11.079  12.913  12.855
25739SOL     OW79113   0.792   8.675   4.545
25739SOL    HW179114   0.868   8.715   4.589
25739SOL    HW279115   0.723   8.741   4.554
25740SOL     OW79116   0.309   4.064   4.279
25740SOL    HW179117   0.287   3.991   4.221
25740SOL    HW279118   0.352   4.022   4.354
25741SOL     OW79119  10.680   9.625   1.208
25741SOL    HW179120  10.718   9.614   1.295
25741SOL    HW279121  10.755   9.624   1.149
25742SOL     OW79122   3.216  13.092   2.885
25742SOL    HW179123   3.307  13.121   2.883
25742SOL    HW279124   3.221  12.998   2.867
25743SOL     OW79125   4.722   9.227  12.151
25743SOL    HW179126   4.745   9.311  12.112
25743SOL    HW279127   4.703   9.247  12.243
25744SOL     OW79128   0.969  10.676   7.545
25744SOL    HW179129   1.022  10.610   7.502
25744SOL    HW279130   0.982  10.661   7.638
25745SOL     OW79131   4.737   3.821   9.166
25745SOL    HW179132   4.797   3.847   9.096
25745SOL    HW279133   4.680   3.755   9.126
25746SOL     OW79134   4.343   5.519   0.510
25746SOL    HW179135   4.420   5.469   0.483
25746SOL    HW279136   4.283   5.514   0.437
25747SOL     OW79137  14.442  10.522   8.222
25747SOL    HW179138  14.414  10.534   8.131
25747SOL    HW279139  14.434  10.428   8.238
25748SOL     OW79140   6.318  10.460   1.333
25748SOL    HW179141   6.394  10.509   1.365
25748SOL    HW279142   6.245  10.490   1.386
25749SOL     OW79143   8.117  11.638   9.489
25749SOL    HW179144   8.139  11.547   9.510
25749SOL    HW279145   8.023  11.645   9.507
25750SOL     OW79146   6.030   7.965  14.825
25750SOL    HW179147   6.007   7.916   0.032
25750SOL    HW279148   6.079   7.903  14.771
25751SOL     OW79149  10.541   4.435  11.878
25751SOL    HW179150  10.486   4.359  11.857
25751SOL    HW279151  10.506   4.468  11.961
25752SOL     OW79152   8.744   2.564   3.234
25752SOL    HW179153   8.756   2.472   3.257
25752SOL    HW279154   8.744   2.565   3.139
25753SOL     OW79155  10.051  10.238   4.744
25753SOL    HW179156  10.104  10.281   4.677
25753SOL    HW279157  10.087  10.271   4.827
25754SOL     OW79158  12.314   3.450   4.970
25754SOL    HW179159  12.396   3.449   5.019
25754SOL    HW279160  12.278   3.537   4.985
25755SOL     OW79161   0.732   1.711  14.790
25755SOL    HW179162   0.816   1.670  14.811
25755SOL    HW279163   0.746   1.749  14.703
25756SOL     OW79164   5.734   8.013  10.162
25756SOL    HW179165   5.667   7.965  10.115
25756SOL    HW279166   5.775   8.068  10.096
25757SOL     OW79167  12.234  14.492  13.450
25757SOL    HW179168  12.197  14.558  13.392
25757SOL    HW279169  12.296  14.539  13.506
25758SOL     OW79170   4.621   6.709   9.851
25758SOL    HW179171   4.633   6.621   9.814
25758SOL    HW279172   4.628   6.767   9.775
25759SOL     OW79173   0.336   0.479  10.295
25759SOL    HW179174   0.251   0.523  10.287
25759SOL    HW279175   0.361   0.458  10.205
25760SOL     OW79176   6.975   5.316   2.442
25760SOL    HW179177   6.908   5.322   2.374
25760SOL    HW279178   7.039   5.384   2.418
25761SOL     OW79179  11.884  11.039   4.446
25761SOL    HW179180  11.969  11.071   4.474
25761SOL    HW279181  11.896  10.944   4.436
25762SOL     OW79182   6.889   0.880  14.028
25762SOL    HW179183   6.806   0.893  13.983
25762SOL    HW279184   6.868   0.887  14.121
25763SOL     OW79185   3.847   3.528   0.724
25763SOL    HW179186   3.847   3.557   0.815
25763SOL    HW279187   3.829   3.607   0.673
25764SOL     OW79188   8.751  12.504   6.437
25764SOL    HW179189   8.720  12.429   6.488
25764SOL    HW279190   8.779  12.465   6.353
25765SOL     OW79191   2.752   9.590  10.958
25765SOL    HW179192   2.780   9.499  10.970
25765SOL    HW279193   2.792   9.617  10.875
25766SOL     OW79194  13.868   5.771   4.847
25766SOL    HW179195  13.830   5.690   4.815
25766SOL    HW279196  13.946   5.743   4.896
25767SOL     OW79197  11.315   6.915   8.094
25767SOL    HW179198  11.368   6.942   8.169
25767SOL    HW279199  11.351   6.829   8.069
25768SOL     OW79200   8.833   4.524   8.601
25768SOL    HW179201   8.742   4.550   8.614
25768SOL    HW279202   8.876   4.546   8.684
25769SOL     OW79203   0.470   2.397  13.900
25769SOL    HW179204   0.516   2.452  13.837
25769SOL    HW279205   0.540   2.349  13.945
25770SOL     OW79206   2.096   0.416   0.021
25770SOL    HW179207   2.184   0.380   0.036
25770SOL    HW279208   2.044   0.384   0.095
25771SOL     OW79209   6.064   0.264   0.199
25771SOL    HW179210   6.142   0.299   0.156
25771SOL    HW279211   5.995   0.327   0.178
25772SOL     OW79212   9.817   4.627  13.505
25772SOL    HW179213   9.834   4.720  13.522
25772SOL    HW279214   9.722   4.617  13.519
25773SOL     OW79215   7.044   7.199  10.823
25773SOL    HW179216   7.045   7.194  10.728
25773SOL    HW279217   7.030   7.292  10.842
25774SOL     OW79218   3.329   1.821  13.145
25774SOL    HW179219   3.296   1.835  13.234
25774SOL    HW279220   3.254   1.836  13.088
25775SOL     OW79221   8.196   2.009   7.687
25775SOL    HW179222   8.140   2.058   7.747
25775SOL    HW279223   8.253   1.957   7.743
25776SOL     OW79224  14.468   2.196  10.832
25776SOL    HW179225  14.468   2.273  10.775
25776SOL    HW279226  14.546   2.147  10.805
25777SOL     OW79227  11.966  10.817  13.718
25777SOL    HW179228  11.985  10.751  13.784
25777SOL    HW279229  11.882  10.790  13.681
25778SOL     OW79230   6.991   1.270  14.646
25778SOL    HW179231   7.019   1.274  14.737
25778SOL    HW279232   7.007   1.358  14.612
25779SOL     OW79233   2.539   8.009   1.579
25779SOL    HW179234   2.492   7.931   1.551
25779SOL    HW279235   2.515   8.021   1.671
25780SOL     OW79236  11.765  12.611   9.988
25780SOL    HW179237  11.805  12.547  10.047
25780SOL    HW279238  11.681  12.631  10.029
25781SOL     OW79239   9.773  14.548  12.990
25781SOL    HW179240   9.857  14.573  12.950
25781SOL    HW279241   9.787  14.561  13.083
25782SOL     OW79242   7.994   5.711   9.978
25782SOL    HW179243   7.985   5.651   9.904
25782SOL    HW279244   7.944   5.789   9.952
25783SOL     OW79245   4.770   2.923   6.758
25783SOL    HW179246   4.693   2.919   6.814
25783SOL    HW279247   4.819   2.998   6.789
25784SOL     OW79248   7.656   6.721   1.027
25784SOL    HW179249   7.712   6.658   0.982
25784SOL    HW279250   7.569   6.681   1.025
25785SOL     OW79251   0.695   0.513   5.033
25785SOL    HW179252   0.635   0.474   4.969
25785SOL    HW279253   0.760   0.446   5.050
25786SOL     OW79254   0.620   1.914   0.885
25786SOL    HW179255   0.548   1.859   0.854
25786SOL    HW279256   0.686   1.908   0.817
25787SOL     OW79257  14.481  12.304   5.376
25787SOL    HW179258  14.423  12.306   5.300
25787SOL    HW279259  14.449  12.232   5.429
25788SOL     OW79260   2.756   6.807   6.878
25788SOL    HW179261   2.736   6.723   6.918
25788SOL    HW279262   2.693   6.816   6.807
25789SOL     OW79263   3.422   4.756   9.343
25789SOL    HW179264   3.334   4.756   9.303
25789SOL    HW279265   3.415   4.816   9.417
25790SOL     OW79266  10.125   8.469  14.277
25790SOL    HW179267  10.089   8.471  14.188
25790SOL    HW279268  10.048   8.466  14.334
25791SOL     OW79269  11.102   5.592   4.067
25791SOL    HW179270  11.145   5.513   4.101
25791SOL    HW279271  11.157   5.664   4.096
25792SOL     OW79272   9.925  12.732   8.039
25792SOL    HW179273   9.888  12.801   8.093
25792SOL    HW279274   9.878  12.653   8.066
25793SOL     OW79275  14.539  13.034  10.149
25793SOL    HW179276  14.633  13.046  10.159
25793SOL    HW279277  14.505  13.029  10.238
25794SOL     OW79278   6.677  10.179   9.192
25794SOL    HW179279   6.627  10.257   9.169
25794SOL    HW279280   6.704  10.142   9.108
25795SOL     OW79281   5.773   8.845   8.945
25795SOL    HW179282   5.862   8.824   8.916
25795SOL    HW279283   5.724   8.763   8.933
25796SOL     OW79284   9.997  10.428   9.736
25796SOL    HW179285   9.976  10.519   9.757
25796SOL    HW279286  10.069  10.435   9.673
25797SOL     OW79287   2.515   2.586  10.836
25797SOL    HW179288   2.439   2.583  10.893
25797SOL    HW279289   2.589   2.604  10.894
25798SOL     OW79290   6.372   5.522  14.008
25798SOL    HW179291   6.439   5.458  13.985
25798SOL    HW279292   6.313   5.476  14.067
25799SOL     OW79293   5.156   2.638  12.944
25799SOL    HW179294   5.168   2.580  12.869
25799SOL    HW279295   5.186   2.724  12.912
25800SOL     OW79296   5.142  14.005   6.696
25800SOL    HW179297   5.229  13.967   6.713
25800SOL    HW279298   5.101  14.011   6.782
25801SOL     OW79299  10.883   6.152   8.846
25801SOL    HW179300  10.795   6.180   8.870
25801SOL    HW279301  10.882   6.057   8.858
25802SOL     OW79302   6.700   4.312  10.689
25802SOL    HW179303   6.781   4.294  10.738
25802SOL    HW279304   6.657   4.227  10.683
25803SOL     OW79305   9.381  10.656   6.169
25803SOL    HW179306   9.447  10.605   6.215
25803SOL    HW279307   9.306  10.596   6.159
25804SOL     OW79308  12.970   7.533  11.577
25804SOL    HW179309  12.887   7.576  11.600
25804SOL    HW279310  12.967   7.450  11.625
25805SOL     OW79311   5.808  11.178  12.712
25805SOL    HW179312   5.797  11.246  12.779
25805SOL    HW279313   5.851  11.223  12.640
25806SOL     OW79314   3.792   4.239  12.141
25806SOL    HW179315   3.716   4.188  12.167
25806SOL    HW279316   3.852   4.176  12.102
25807SOL     OW79317  12.405   5.030   9.878
25807SOL    HW179318  12.376   4.963   9.941
25807SOL    HW279319  12.355   5.012   9.799
25808SOL     OW79320   5.505  10.388   9.497
25808SOL    HW179321   5.441  10.329   9.538
25808SOL    HW279322   5.569  10.405   9.566
25809SOL     OW79323  13.886  12.359  10.924
25809SOL    HW179324  13.923  12.291  10.981
25809SOL    HW279325  13.932  12.439  10.950
25810SOL     OW79326   0.479   7.138  10.236
25810SOL    HW179327   0.569   7.170  10.226
25810SOL    HW279328   0.435   7.164  10.155
25811SOL     OW79329   2.447   4.438   5.832
25811SOL    HW179330   2.539   4.463   5.837
25811SOL    HW279331   2.399   4.517   5.858
25812SOL     OW79332  12.482   6.910   2.292
25812SOL    HW179333  12.421   6.838   2.309
25812SOL    HW279334  12.497   6.906   2.198
25813SOL     OW79335  12.983  14.394   0.198
25813SOL    HW179336  13.012  14.348   0.119
25813SOL    HW279337  12.901  14.435   0.173
25814SOL     OW79338   6.006   0.049   2.587
25814SOL    HW179339   5.916   0.018   2.599
25814SOL    HW279340   6.033   0.076   2.675
25815SOL     OW79341  12.065   4.745   8.982
25815SOL    HW179342  11.992   4.806   8.994
25815SOL    HW279343  12.121   4.787   8.917
25816SOL     OW79344   9.397   3.435  13.496
25816SOL    HW179345   9.355   3.506  13.447
25816SOL    HW279346   9.431   3.478  13.575
25817SOL     OW79347  11.535   3.098  11.333
25817SOL    HW179348  11.572   3.159  11.396
25817SOL    HW279349  11.447   3.081  11.366
25818SOL     OW79350   1.078   8.833   5.359
25818SOL    HW179351   1.066   8.875   5.444
25818SOL    HW279352   1.164   8.864   5.328
25819SOL     OW79353   6.903  11.554   4.207
25819SOL    HW179354   6.880  11.483   4.267
25819SOL    HW279355   6.854  11.534   4.127
25820SOL     OW79356   4.051   5.254  10.228
25820SOL    HW179357   4.103   5.294  10.298
25820SOL    HW279358   4.097   5.173  10.207
25821SOL     OW79359  13.793   2.797  13.878
25821SOL    HW179360  13.855   2.859  13.839
25821SOL    HW279361  13.822   2.711  13.848
25822SOL     OW79362   7.356   1.190   9.312
25822SOL    HW179363   7.383   1.250   9.382
25822SOL    HW279364   7.437   1.149   9.283
25823SOL     OW79365   0.163  11.066   7.412
25823SOL    HW179366   0.198  11.075   7.501
25823SOL    HW279367   0.069  11.081   7.422
25824SOL     OW79368   6.669  11.244   8.770
25824SOL    HW179369   6.733  11.306   8.806
25824SOL    HW279370   6.585  11.277   8.801
25825SOL     OW79371   6.888  13.515   4.483
25825SOL    HW179372   6.852  13.473   4.405
25825SOL    HW279373   6.973  13.549   4.456
25826SOL     OW79374  11.396  14.726   0.875
25826SOL    HW179375  11.458  14.742   0.947
25826SOL    HW279376  11.325  14.789   0.890
25827SOL     OW79377   8.641   6.164   9.069
25827SOL    HW179378   8.615   6.094   9.129
25827SOL    HW279379   8.676   6.233   9.125
25828SOL     OW79380   5.431   9.471  11.620
25828SOL    HW179381   5.346   9.512  11.609
25828SOL    HW279382   5.481   9.533  11.673
25829SOL     OW79383   8.207   3.035   2.469
25829SOL    HW179384   8.184   2.948   2.500
25829SOL    HW279385   8.148   3.051   2.395
25830SOL     OW79386   8.024   9.413  12.462
25830SOL    HW179387   8.094   9.367  12.507
25830SOL    HW279388   8.044   9.506  12.475
25831SOL     OW79389  12.574  11.487   3.365
25831SOL    HW179390  12.589  11.437   3.286
25831SOL    HW279391  12.646  11.461   3.424
25832SOL     OW79392   7.854  14.029   8.944
25832SOL    HW179393   7.791  13.972   8.988
25832SOL    HW279394   7.875  13.984   8.863
25833SOL     OW79395  10.039   0.200   0.547
25833SOL    HW179396  10.050   0.195   0.642
25833SOL    HW279397  10.103   0.138   0.512
25834SOL     OW79398   4.252  13.755  14.791
25834SOL    HW179399   4.181  13.770  14.729
25834SOL    HW279400   4.209  13.733   0.002
25835SOL     OW79401   5.416   4.059  14.690
25835SOL    HW179402   5.382   4.131  14.744
25835SOL    HW279403   5.339   4.026  14.644
25836SOL     OW79404   0.369   9.790   1.581
25836SOL    HW179405   0.371   9.701   1.544
25836SOL    HW279406   0.351   9.777   1.674
25837SOL     OW79407   2.775   6.934   3.158
25837SOL    HW179408   2.695   6.914   3.205
25837SOL    HW279409   2.760   7.019   3.117
25838SOL     OW79410   1.161   9.895  10.830
25838SOL    HW179411   1.114   9.818  10.862
25838SOL    HW279412   1.190   9.940  10.909
25839SOL     OW79413   7.162  13.086  11.999
25839SOL    HW179414   7.245  13.063  12.041
25839SOL    HW279415   7.185  13.159  11.942
25840SOL     OW79416  14.714   9.873   8.503
25840SOL    HW179417  14.802   9.870   8.540
25840SOL    HW279418  14.725   9.839   8.414
25841SOL     OW79419   2.885   0.988   3.799
25841SOL    HW179420   2.974   1.013   3.824
25841SOL    HW279421   2.850   1.065   3.755
25842SOL     OW79422   2.537   5.620   8.176
25842SOL    HW179423   2.628   5.594   8.165
25842SOL    HW279424   2.522   5.616   8.271
25843SOL     OW79425  12.993   5.418   7.097
25843SOL    HW179426  12.909   5.374   7.103
25843SOL    HW279427  13.029   5.390   7.013
25844SOL     OW79428   8.624  12.304  13.877
25844SOL    HW179429   8.638  12.389  13.836
25844SOL    HW279430   8.590  12.249  13.807
25845SOL     OW79431   9.155   9.445   4.170
25845SOL    HW179432   9.246   9.461   4.146
25845SOL    HW279433   9.147   9.479   4.260
25846SOL     OW79434   1.486  10.856  11.953
25846SOL    HW179435   1.476  10.936  12.005
25846SOL    HW279436   1.407  10.805  11.972
25847SOL     OW79437   6.498  12.375  14.076
25847SOL    HW179438   6.541  12.290  14.072
25847SOL    HW279439   6.440  12.377  13.999
25848SOL     OW79440   4.279  10.217   2.421
25848SOL    HW179441   4.328  10.142   2.387
25848SOL    HW279442   4.340  10.291   2.413
25849SOL     OW79443   5.218   4.719   5.344
25849SOL    HW179444   5.287   4.654   5.359
25849SOL    HW279445   5.258   4.803   5.366
25850SOL     OW79446  12.890   1.161   5.337
25850SOL    HW179447  12.893   1.133   5.246
25850SOL    HW279448  12.975   1.202   5.353
25851SOL     OW79449   2.933   7.189   6.263
25851SOL    HW179450   3.003   7.154   6.208
25851SOL    HW279451   2.881   7.243   6.203
25852SOL     OW79452   8.841  13.899   6.045
25852SOL    HW179453   8.887  13.956   5.982
25852SOL    HW279454   8.891  13.908   6.126
25853SOL     OW79455   8.605   9.833  12.868
25853SOL    HW179456   8.644   9.797  12.789
25853SOL    HW279457   8.659   9.908  12.890
25854SOL     OW79458  14.236   0.878   7.333
25854SOL    HW179459  14.276   0.867   7.420
25854SOL    HW279460  14.308   0.908   7.277
25855SOL     OW79461   0.995   3.208   0.844
25855SOL    HW179462   0.915   3.252   0.813
25855SOL    HW279463   1.017   3.147   0.775
25856SOL     OW79464   7.096   2.089   5.651
25856SOL    HW179465   7.178   2.041   5.660
25856SOL    HW279466   7.062   2.062   5.566
25857SOL     OW79467   5.288  12.228  10.096
25857SOL    HW179468   5.335  12.306  10.067
25857SOL    HW279469   5.356  12.166  10.120
25858SOL     OW79470  12.612  12.769   7.428
25858SOL    HW179471  12.695  12.722   7.433
25858SOL    HW279472  12.633  12.853   7.388
25859SOL     OW79473   2.521   1.319  12.956
25859SOL    HW179474   2.473   1.238  12.941
25859SOL    HW279475   2.598   1.292  13.007
25860SOL     OW79476   0.100   0.621   2.678
25860SOL    HW179477   0.080   0.639   2.586
25860SOL    HW279478   0.081   0.527   2.689
25861SOL     OW79479  10.918   2.468   1.027
25861SOL    HW179480  10.831   2.492   0.995
25861SOL    HW279481  10.904   2.388   1.078
25862SOL     OW79482   5.645   0.897   9.832
25862SOL    HW179483   5.662   0.936   9.746
25862SOL    HW279484   5.724   0.846   9.850
25863SOL     OW79485   8.926   4.338  13.610
25863SOL    HW179486   8.914   4.252  13.569
25863SOL    HW279487   9.013   4.333  13.651
25864SOL     OW79488  14.587   9.004   6.968
25864SOL    HW179489  14.580   8.918   7.009
25864SOL    HW279490  14.555   9.065   7.035
25865SOL     OW79491   5.813   9.774  13.849
25865SOL    HW179492   5.884   9.814  13.798
25865SOL    HW279493   5.771   9.713  13.788
25866SOL     OW79494  12.831   2.568   4.607
25866SOL    HW179495  12.885   2.612   4.673
25866SOL    HW279496  12.793   2.493   4.653
25867SOL     OW79497  13.514  11.912  13.719
25867SOL    HW179498  13.425  11.946  13.728
25867SOL    HW279499  13.510  11.857  13.641
25868SOL     OW79500   1.339   6.199   8.089
25868SOL    HW179501   1.294   6.144   8.153
25868SOL    HW279502   1.426   6.212   8.125
25869SOL     OW79503  10.505   6.162   8.037
25869SOL    HW179504  10.443   6.219   8.082
25869SOL    HW279505  10.450   6.104   7.984
25870SOL     OW79506  12.139  13.327   6.308
25870SOL    HW179507  12.165  13.349   6.398
25870SOL    HW279508  12.168  13.237   6.296
25871SOL     OW79509   9.164   3.602  14.480
25871SOL    HW179510   9.143   3.519  14.438
25871SOL    HW279511   9.126   3.595  14.568
25872SOL     OW79512  13.979   4.884   5.250
25872SOL    HW179513  14.056   4.828   5.263
25872SOL    HW279514  14.015   4.971   5.234
25873SOL     OW79515   6.393  14.416   7.267
25873SOL    HW179516   6.457  14.368   7.213
25873SOL    HW279517   6.425  14.405   7.356
25874SOL     OW79518   5.422   2.077   1.777
25874SOL    HW179519   5.492   2.044   1.720
25874SOL    HW279520   5.468   2.106   1.856
25875SOL     OW79521   6.439   6.188  12.842
25875SOL    HW179522   6.358   6.228  12.811
25875SOL    HW279523   6.499   6.262  12.856
25876SOL     OW79524   0.138   6.579   9.287
25876SOL    HW179525   0.115   6.635   9.213
25876SOL    HW279526   0.181   6.638   9.349
25877SOL     OW79527  10.595   4.634  14.704
25877SOL    HW179528  10.687   4.644  14.728
25877SOL    HW279529  10.585   4.540  14.689
25878SOL     OW79530   8.056   8.906   5.301
25878SOL    HW179531   8.075   8.997   5.282
25878SOL    HW279532   7.970   8.890   5.263
25879SOL     OW79533  11.782   4.637   3.563
25879SOL    HW179534  11.773   4.726   3.531
25879SOL    HW279535  11.827   4.646   3.647
25880SOL     OW79536  14.474   3.813  11.500
25880SOL    HW179537  14.409   3.799  11.569
25880SOL    HW279538  14.451   3.749  11.433
25881SOL     OW79539   0.033   5.649  13.447
25881SOL    HW179540  14.812   5.672  13.445
25881SOL    HW279541   0.075   5.719  13.397
25882SOL     OW79542   8.387   6.899   9.002
25882SOL    HW179543   8.415   6.829   8.944
25882SOL    HW279544   8.334   6.856   9.069
25883SOL     OW79545  14.329   0.591  14.123
25883SOL    HW179546  14.408   0.578  14.072
25883SOL    HW279547  14.263   0.618  14.059
25884SOL     OW79548   4.597  11.035   1.321
25884SOL    HW179549   4.502  11.048   1.320
25884SOL    HW279550   4.609  10.946   1.289
25885SOL     OW79551   3.167   1.824   2.006
25885SOL    HW179552   3.208   1.781   1.931
25885SOL    HW279553   3.230   1.890   2.033
25886SOL     OW79554  10.228   9.097  14.000
25886SOL    HW179555  10.140   9.133  14.008
25886SOL    HW279556  10.255   9.078  14.090
25887SOL     OW79557   6.292   6.375   1.142
25887SOL    HW179558   6.237   6.298   1.161
25887SOL    HW279559   6.313   6.367   1.049
25888SOL     OW79560   5.805   0.011   3.113
25888SOL    HW179561   5.747  14.862   3.186
25888SOL    HW279562   5.889   0.034   3.154
25889SOL     OW79563  11.196   3.064   9.311
25889SOL    HW179564  11.234   3.133   9.257
25889SOL    HW279565  11.103   3.085   9.316
25890SOL     OW79566   6.871   5.863   3.845
25890SOL    HW179567   6.789   5.829   3.809
25890SOL    HW279568   6.901   5.796   3.906
25891SOL     OW79569   5.498   2.132   0.081
25891SOL    HW179570   5.455   2.066   0.027
25891SOL    HW279571   5.431   2.198   0.096
25892SOL     OW79572   3.842   0.068   0.276
25892SOL    HW179573   3.829   0.100   0.187
25892SOL    HW279574   3.807   0.138   0.332
25893SOL     OW79575   4.905  10.096   3.303
25893SOL    HW179576   4.999  10.116   3.300
25893SOL    HW279577   4.897  10.012   3.258
25894SOL     OW79578  11.833   8.698   5.886
25894SOL    HW179579  11.886   8.747   5.823
25894SOL    HW279580  11.824   8.757   5.961
25895SOL     OW79581  11.029   5.026   4.199
25895SOL    HW179582  11.072   5.044   4.283
25895SOL    HW279583  11.042   5.106   4.148
25896SOL     OW79584  14.014   5.723  11.063
25896SOL    HW179585  14.109   5.714  11.064
25896SOL    HW279586  13.982   5.639  11.030
25897SOL     OW79587   6.536   3.315   4.414
25897SOL    HW179588   6.587   3.365   4.478
25897SOL    HW279589   6.458   3.288   4.461
25898SOL     OW79590   1.411   7.694   4.913
25898SOL    HW179591   1.339   7.757   4.903
25898SOL    HW279592   1.443   7.680   4.824
25899SOL     OW79593  14.465   5.805   7.014
25899SOL    HW179594  14.559   5.819   6.998
25899SOL    HW279595  14.422   5.870   6.959
25900SOL     OW79596  10.737  12.354   9.539
25900SOL    HW179597  10.821  12.332   9.579
25900SOL    HW279598  10.697  12.269   9.519
25901SOL     OW79599   4.167   7.593  10.021
25901SOL    HW179600   4.214   7.565   9.942
25901SOL    HW279601   4.087   7.540  10.020
25902SOL     OW79602   1.202  10.991  14.707
25902SOL    HW179603   1.158  11.032  14.782
25902SOL    HW279604   1.275  11.049  14.687
25903SOL     OW79605  11.308  11.068  14.587
25903SOL    HW179606  11.335  11.137  14.527
25903SOL    HW279607  11.356  10.990  14.557
25904SOL     OW79608   3.831   3.430   7.593
25904SOL    HW179609   3.742   3.440   7.560
25904SOL    HW279610   3.835   3.486   7.670
25905SOL     OW79611   9.539  10.694   3.400
25905SOL    HW179612   9.573  10.606   3.386
25905SOL    HW279613   9.452  10.694   3.360
25906SOL     OW79614   4.418  13.543   1.534
25906SOL    HW179615   4.489  13.527   1.596
25906SOL    HW279616   4.438  13.487   1.459
25907SOL     OW79617  10.413   1.609   1.558
25907SOL    HW179618  10.453   1.684   1.602
25907SOL    HW279619  10.367   1.646   1.483
25908SOL     OW79620  13.690   7.614   9.805
25908SOL    HW179621  13.771   7.652   9.837
25908SOL    HW279622  13.645   7.583   9.883
25909SOL     OW79623   2.161  11.288  14.501
25909SOL    HW179624   2.085  11.285  14.560
25909SOL    HW279625   2.153  11.372  14.456
25910SOL     OW79626  12.554  10.611  13.637
25910SOL    HW179627  12.582  10.646  13.722
25910SOL    HW279628  12.550  10.688  13.580
25911SOL     OW79629   5.064   6.572   5.919
25911SOL    HW179630   5.127   6.515   5.965
25911SOL    HW279631   5.109   6.599   5.839
25912SOL     OW79632   4.747  14.385  13.515
25912SOL    HW179633   4.784  14.297  13.502
25912SOL    HW279634   4.710  14.408  13.430
25913SOL     OW79635  13.909  13.459   3.678
25913SOL    HW179636  13.939  13.421   3.761
25913SOL    HW279637  13.941  13.397   3.612
25914SOL     OW79638   8.462   8.804   7.238
25914SOL    HW179639   8.512   8.878   7.272
25914SOL    HW279640   8.374   8.815   7.274
25915SOL     OW79641   0.574  14.117   5.400
25915SOL    HW179642   0.527  14.184   5.352
25915SOL    HW279643   0.573  14.040   5.343
25916SOL     OW79644   6.023   1.188  12.086
25916SOL    HW179645   6.078   1.203  12.010
25916SOL    HW279646   6.008   1.276  12.123
25917SOL     OW79647   9.275  14.214  13.824
25917SOL    HW179648   9.296  14.164  13.904
25917SOL    HW279649   9.207  14.162  13.781
25918SOL     OW79650   1.840   2.999  12.955
25918SOL    HW179651   1.771   2.986  12.890
25918SOL    HW279652   1.870   3.089  12.941
25919SOL     OW79653  11.905   5.933   7.640
25919SOL    HW179654  11.869   5.884   7.714
25919SOL    HW279655  11.981   5.882   7.613
25920SOL     OW79656   3.442  12.257   7.746
25920SOL    HW179657   3.416  12.165   7.738
25920SOL    HW279658   3.405  12.284   7.830
25921SOL     OW79659   0.133   5.386   4.820
25921SOL    HW179660   0.044   5.399   4.852
25921SOL    HW279661   0.173   5.327   4.884
25922SOL     OW79662   0.163  13.296   1.951
25922SOL    HW179663   0.101  13.311   1.880
25922SOL    HW279664   0.170  13.200   1.957
25923SOL     OW79665   4.800   9.233  11.605
25923SOL    HW179666   4.840   9.230  11.693
25923SOL    HW279667   4.834   9.313  11.566
25924SOL     OW79668  11.226  11.557  11.069
25924SOL    HW179669  11.182  11.542  11.153
25924SOL    HW279670  11.309  11.509  11.077
25925SOL     OW79671   2.995   9.028   1.113
25925SOL    HW179672   2.940   9.100   1.083
25925SOL    HW279673   2.940   8.978   1.173
25926SOL     OW79674   1.752  12.349   9.620
25926SOL    HW179675   1.846  12.339   9.632
25926SOL    HW279676   1.719  12.370   9.708
25927SOL     OW79677   4.252  10.856   5.093
25927SOL    HW179678   4.204  10.839   5.012
25927SOL    HW279679   4.259  10.770   5.135
25928SOL     OW79680   5.186   7.462   9.101
25928SOL    HW179681   5.270   7.469   9.055
25928SOL    HW279682   5.126   7.429   9.034
25929SOL     OW79683   9.367   6.228   6.868
25929SOL    HW179684   9.442   6.288   6.872
25929SOL    HW279685   9.326   6.245   6.784
25930SOL     OW79686   6.047   1.075   9.619
25930SOL    HW179687   6.104   0.999   9.626
25930SOL    HW279688   6.035   1.104   9.710
25931SOL     OW79689   3.935   3.158  10.519
25931SOL    HW179690   3.907   3.231  10.575
25931SOL    HW279691   3.901   3.080  10.562
25932SOL     OW79692   6.783   9.053   4.346
25932SOL    HW179693   6.738   8.980   4.304
25932SOL    HW279694   6.803   9.114   4.275
25933SOL     OW79695  11.717   7.729  13.014
25933SOL    HW179696  11.674   7.736  13.099
25933SOL    HW279697  11.763   7.812  13.003
25934SOL     OW79698   9.362   7.376   9.386
25934SOL    HW179699   9.377   7.471   9.389
25934SOL    HW279700   9.279   7.364   9.433
25935SOL     OW79701   9.601   6.761   5.476
25935SOL    HW179702   9.695   6.767   5.461
25935SOL    HW279703   9.565   6.740   5.390
25936SOL     OW79704   8.694   0.415  10.053
25936SOL    HW179705   8.678   0.392  10.145
25936SOL    HW279706   8.630   0.484  10.035
25937SOL     OW79707   5.298   3.881  14.133
25937SOL    HW179708   5.392   3.894  14.148
25937SOL    HW279709   5.293   3.847  14.044
25938SOL     OW79710   5.391  13.546  12.652
25938SOL    HW179711   5.452  13.561  12.579
25938SOL    HW279712   5.325  13.488  12.615
25939SOL     OW79713   1.228  10.095   2.165
25939SOL    HW179714   1.293  10.032   2.135
25939SOL    HW279715   1.178  10.117   2.087
25940SOL     OW79716  11.367   5.734   9.916
25940SOL    HW179717  11.460   5.717   9.933
25940SOL    HW279718  11.362   5.828   9.901
25941SOL     OW79719   4.295   4.924   7.445
25941SOL    HW179720   4.289   4.954   7.536
25941SOL    HW279721   4.328   4.835   7.451
25942SOL     OW79722   8.507  11.235  11.394
25942SOL    HW179723   8.420  11.203  11.418
25942SOL    HW279724   8.567  11.165  11.419
25943SOL     OW79725   8.910   0.719   9.435
25943SOL    HW179726   8.877   0.721   9.525
25943SOL    HW279727   8.831   0.725   9.381
25944SOL     OW79728   6.189   3.985  14.382
25944SOL    HW179729   6.142   4.046  14.325
25944SOL    HW279730   6.197   3.905  14.331
25945SOL     OW79731  13.463  12.728   2.651
25945SOL    HW179732  13.379  12.683   2.647
25945SOL    HW279733  13.482  12.751   2.560
25946SOL     OW79734  14.333   1.563  10.343
25946SOL    HW179735  14.239   1.558  10.330
25946SOL    HW279736  14.345   1.628  10.413
25947SOL     OW79737   9.993   0.834  14.752
25947SOL    HW179738  10.049   0.880  14.690
25947SOL    HW279739   9.907   0.829  14.709
25948SOL     OW79740  13.473   4.975   8.860
25948SOL    HW179741  13.379   4.967   8.871
25948SOL    HW279742  13.484   5.025   8.779
25949SOL     OW79743   5.904  12.428  10.455
25949SOL    HW179744   5.822  12.454  10.413
25949SOL    HW279745   5.890  12.337  10.480
25950SOL     OW79746   2.357   4.866   8.543
25950SOL    HW179747   2.449   4.892   8.538
25950SOL    HW279748   2.355   4.799   8.611
25951SOL     OW79749   3.537  10.563  13.553
25951SOL    HW179750   3.452  10.582  13.513
25951SOL    HW279751   3.560  10.476  13.521
25952SOL     OW79752   2.468  10.210   1.280
25952SOL    HW179753   2.549  10.160   1.269
25952SOL    HW279754   2.466  10.270   1.205
25953SOL     OW79755  12.555  10.284   8.275
25953SOL    HW179756  12.615  10.345   8.231
25953SOL    HW279757  12.543  10.321   8.362
25954SOL     OW79758   7.339   3.652   9.127
25954SOL    HW179759   7.284   3.637   9.051
25954SOL    HW279760   7.313   3.738   9.161
25955SOL     OW79761  13.554   3.209   8.084
25955SOL    HW179762  13.557   3.225   7.990
25955SOL    HW279763  13.502   3.129   8.093
25956SOL     OW79764  11.982  11.943  12.473
25956SOL    HW179765  12.049  11.891  12.429
25956SOL    HW279766  11.900  11.899  12.451
25957SOL     OW79767   4.780  11.516  11.291
25957SOL    HW179768   4.737  11.583  11.346
25957SOL    HW279769   4.793  11.442  11.350
25958SOL     OW79770   6.123  14.582   6.708
25958SOL    HW179771   6.196  14.603   6.649
25958SOL    HW279772   6.149  14.499   6.749
25959SOL     OW79773   1.583   6.990  11.845
25959SOL    HW179774   1.663   7.001  11.897
25959SOL    HW279775   1.514   7.030  11.898
25960SOL     OW79776   6.250  12.545   6.845
25960SOL    HW179777   6.342  12.546   6.818
25960SOL    HW279778   6.204  12.501   6.773
25961SOL     OW79779   2.123   4.423   5.795
25961SOL    HW179780   2.197   4.475   5.764
25961SOL    HW279781   2.145   4.333   5.772
25962SOL     OW79782   3.983   2.760   3.558
25962SOL    HW179783   4.073   2.740   3.582
25962SOL    HW279784   3.951   2.681   3.515
25963SOL     OW79785   8.180   8.688  12.187
25963SOL    HW179786   8.190   8.783  12.185
25963SOL    HW279787   8.087   8.674  12.201
25964SOL     OW79788   2.865   9.612   1.559
25964SOL    HW179789   2.872   9.677   1.629
25964SOL    HW279790   2.896   9.531   1.598
25965SOL     OW79791   2.563   5.036  13.123
25965SOL    HW179792   2.558   4.972  13.051
25965SOL    HW279793   2.610   5.110  13.085
25966SOL     OW79794  13.560  12.827   0.569
25966SOL    HW179795  13.578  12.737   0.541
25966SOL    HW279796  13.580  12.827   0.662
25967SOL     OW79797  12.211   1.832  13.876
25967SOL    HW179798  12.141   1.881  13.918
25967SOL    HW279799  12.198   1.742  13.906
25968SOL     OW79800   1.242  10.095   6.474
25968SOL    HW179801   1.179  10.024   6.488
25968SOL    HW279802   1.261  10.091   6.380
25969SOL     OW79803   4.085   6.133   9.204
25969SOL    HW179804   4.142   6.082   9.263
25969SOL    HW279805   4.083   6.220   9.244
25970SOL     OW79806  12.881   6.657  10.289
25970SOL    HW179807  12.799   6.612  10.271
25970SOL    HW279808  12.869   6.744  10.251
25971SOL     OW79809  13.458   0.064  10.334
25971SOL    HW179810  13.443   0.022  10.249
25971SOL    HW279811  13.376   0.111  10.351
25972SOL     OW79812  10.855   8.704  11.527
25972SOL    HW179813  10.856   8.774  11.461
25972SOL    HW279814  10.947   8.681  11.540
25973SOL     OW79815  10.232   1.147   8.291
25973SOL    HW179816  10.177   1.223   8.311
25973SOL    HW279817  10.307   1.155   8.349
25974SOL     OW79818   0.172  11.108   2.976
25974SOL    HW179819   0.255  11.151   2.997
25974SOL    HW279820   0.195  11.040   2.913
25975SOL     OW79821  12.553  12.845   8.534
25975SOL    HW179822  12.625  12.843   8.597
25975SOL    HW279823  12.474  12.838   8.588
25976SOL     OW79824   2.195   5.468  11.089
25976SOL    HW179825   2.230   5.542  11.138
25976SOL    HW279826   2.115   5.444  11.136
25977SOL     OW79827   5.338  10.041   1.955
25977SOL    HW179828   5.321  10.126   1.913
25977SOL    HW279829   5.253  10.016   1.991
25978SOL     OW79830   7.316   2.608   8.880
25978SOL    HW179831   7.223   2.590   8.871
25978SOL    HW279832   7.342   2.559   8.959
25979SOL     OW79833   8.320   7.874   4.546
25979SOL    HW179834   8.385   7.804   4.556
25979SOL    HW279835   8.236   7.829   4.555
25980SOL     OW79836   6.715  10.422  14.281
25980SOL    HW179837   6.715  10.328  14.260
25980SOL    HW279838   6.622  10.446  14.282
25981SOL     OW79839  14.726   7.019  14.469
25981SOL    HW179840  14.727   7.110  14.440
25981SOL    HW279841  14.751   6.969  14.391
25982SOL     OW79842   1.215  13.267   5.190
25982SOL    HW179843   1.225  13.175   5.215
25982SOL    HW279844   1.210  13.315   5.273
25983SOL     OW79845   9.230   8.295  10.517
25983SOL    HW179846   9.219   8.207  10.554
25983SOL    HW279847   9.152   8.309  10.463
25984SOL     OW79848   6.473   6.752   7.647
25984SOL    HW179849   6.442   6.713   7.565
25984SOL    HW279850   6.456   6.685   7.713
25985SOL     OW79851  10.064   5.660   5.998
25985SOL    HW179852   9.983   5.620   5.967
25985SOL    HW279853  10.106   5.694   5.919
25986SOL     OW79854   8.546   5.286   6.252
25986SOL    HW179855   8.479   5.336   6.298
25986SOL    HW279856   8.594   5.241   6.321
25987SOL     OW79857   1.607   2.970   4.921
25987SOL    HW179858   1.694   3.009   4.925
25987SOL    HW279859   1.574   2.975   5.011
25988SOL     OW79860  13.039  10.238  12.430
25988SOL    HW179861  13.124  10.204  12.457
25988SOL    HW279862  13.045  10.250  12.336
25989SOL     OW79863   9.996   3.781  10.845
25989SOL    HW179864   9.994   3.685  10.847
25989SOL    HW279865   9.978   3.803  10.753
25990SOL     OW79866   2.974   7.469   3.050
25990SOL    HW179867   3.051   7.442   2.999
25990SOL    HW279868   2.967   7.403   3.119
25991SOL     OW79869  11.912   6.166   0.758
25991SOL    HW179870  11.906   6.122   0.674
25991SOL    HW279871  11.826   6.154   0.798
25992SOL     OW79872  13.856   5.904   9.594
25992SOL    HW179873  13.871   5.929   9.503
25992SOL    HW279874  13.871   5.984   9.644
25993SOL     OW79875   9.395   5.066  13.923
25993SOL    HW179876   9.372   4.980  13.889
25993SOL    HW279877   9.485   5.058  13.953
25994SOL     OW79878  13.015   5.549   4.773
25994SOL    HW179879  13.053   5.561   4.860
25994SOL    HW279880  13.043   5.461   4.746
25995SOL     OW79881  12.989   4.623   7.748
25995SOL    HW179882  12.970   4.532   7.772
25995SOL    HW279883  13.075   4.640   7.785
25996SOL     OW79884  14.227   9.823   5.941
25996SOL    HW179885  14.183   9.744   5.908
25996SOL    HW279886  14.251   9.801   6.031
25997SOL     OW79887  14.271   9.652   9.037
25997SOL    HW179888  14.353   9.697   9.017
25997SOL    HW279889  14.293   9.559   9.031
25998SOL     OW79890   6.330   1.898   1.959
25998SOL    HW179891   6.385   1.977   1.958
25998SOL    HW279892   6.358   1.851   2.037
25999SOL     OW79893  13.074   5.566   7.596
25999SOL    HW179894  12.989   5.523   7.605
25999SOL    HW279895  13.087   5.576   7.502
26000SOL     OW79896   5.561   9.252   4.428
26000SOL    HW179897   5.630   9.281   4.488
26000SOL    HW279898   5.520   9.178   4.473
26001SOL     OW79899   4.565   0.817  14.101
26001SOL    HW179900   4.620   0.842  14.027
26001SOL    HW279901   4.621   0.762  14.156
26002SOL     OW79902   9.009   4.935   9.835
26002SOL    HW179903   9.099   4.965   9.820
26002SOL    HW279904   8.959   5.016   9.846
26003SOL     OW79905   8.518   5.579   7.552
26003SOL    HW179906   8.423   5.588   7.562
26003SOL    HW279907   8.535   5.602   7.461
26004SOL     OW79908   1.959   3.644   6.161
26004SOL    HW179909   1.988   3.563   6.119
26004SOL    HW279910   2.034   3.673   6.213
26005SOL     OW79911   8.265  10.413   7.231
26005SOL    HW179912   8.245  10.359   7.307
26005SOL    HW279913   8.295  10.496   7.268
26006SOL     OW79914  13.518   5.278   6.934
26006SOL    HW179915  13.548   5.209   6.993
26006SOL    HW279916  13.438   5.242   6.894
26007SOL     OW79917   4.114   9.590   4.999
26007SOL    HW179918   4.022   9.564   4.998
26007SOL    HW279919   4.119   9.657   5.067
26008SOL     OW79920   9.354  10.037   6.145
26008SOL    HW179921   9.324   9.947   6.148
26008SOL    HW279922   9.422  10.042   6.213
26009SOL     OW79923   0.874   6.922  13.173
26009SOL    HW179924   0.883   6.931  13.078
26009SOL    HW279925   0.786   6.953  13.192
26010SOL     OW79926  14.440  13.164   0.799
26010SOL    HW179927  14.492  13.230   0.844
26010SOL    HW279928  14.378  13.215   0.746
26011SOL     OW79929   2.764   5.374  11.171
26011SOL    HW179930   2.835   5.332  11.123
26011SOL    HW279931   2.766   5.334  11.258
26012SOL     OW79932  14.538   1.870   6.192
26012SOL    HW179933  14.617   1.880   6.244
26012SOL    HW279934  14.521   1.957   6.156
26013SOL     OW79935   0.259  11.235   6.330
26013SOL    HW179936   0.352  11.214   6.319
26013SOL    HW279937   0.233  11.188   6.410
26014SOL     OW79938   1.203   8.601  14.562
26014SOL    HW179939   1.178   8.692  14.575
26014SOL    HW279940   1.144   8.568  14.494
26015SOL     OW79941   5.948   6.855  10.779
26015SOL    HW179942   6.026   6.911  10.785
26015SOL    HW279943   5.877   6.916  10.760
26016SOL     OW79944  13.646   6.010   0.721
26016SOL    HW179945  13.711   5.993   0.653
26016SOL    HW279946  13.593   6.081   0.685
26017SOL     OW79947   8.486  12.555   8.417
26017SOL    HW179948   8.543  12.613   8.467
26017SOL    HW279949   8.468  12.482   8.477
26018SOL     OW79950  14.729   8.340   4.096
26018SOL    HW179951  14.713   8.322   4.003
26018SOL    HW279952  14.769   8.427   4.097
26019SOL     OW79953   4.305   8.275  12.922
26019SOL    HW179954   4.219   8.291  12.881
26019SOL    HW279955   4.295   8.308  13.011
26020SOL     OW79956   7.827  13.754  13.807
26020SOL    HW179957   7.890  13.704  13.858
26020SOL    HW279958   7.742  13.714  13.827
26021SOL     OW79959   3.644  10.302   9.302
26021SOL    HW179960   3.559  10.287   9.344
26021SOL    HW279961   3.696  10.225   9.324
26022SOL     OW79962   0.053   1.473  12.687
26022SOL    HW179963   0.019   1.467  12.776
26022SOL    HW279964   0.113   1.548  12.690
26023SOL     OW79965  10.946   9.440   2.754
26023SOL    HW179966  10.962   9.464   2.662
26023SOL    HW279967  11.032   9.446   2.795
26024SOL     OW79968   3.072   3.263  13.015
26024SOL    HW179969   3.125   3.245  13.092
26024SOL    HW279970   3.014   3.187  13.007
26025SOL     OW79971   4.465   8.577   1.156
26025SOL    HW179972   4.378   8.616   1.144
26025SOL    HW279973   4.509   8.636   1.217
26026SOL     OW79974  12.797  12.993   7.141
26026SOL    HW179975  12.829  12.942   7.216
26026SOL    HW279976  12.871  12.996   7.081
26027SOL     OW79977   9.972   5.595   6.513
26027SOL    HW179978   9.945   5.558   6.429
26027SOL    HW279979  10.066   5.584   6.515
26028SOL     OW79980   2.939   7.225   7.497
26028SOL    HW179981   2.921   7.134   7.473
26028SOL    HW279982   2.893   7.237   7.580
26029SOL     OW79983   0.686   0.475   2.050
26029SOL    HW179984   0.689   0.527   2.130
26029SOL    HW279985   0.613   0.414   2.064
26030SOL     OW79986   3.761  13.576  14.855
26030SOL    HW179987   3.815  13.508   0.023
26030SOL    HW279988   3.726  13.537  14.775
26031SOL     OW79989   8.667   7.453   9.334
26031SOL    HW179990   8.680   7.412   9.248
26031SOL    HW279991   8.754   7.456   9.373
26032SOL     OW79992   8.810  13.803   0.016
26032SOL    HW179993   8.798  13.872  14.823
26032SOL    HW279994   8.903  13.783   0.015
26033SOL     OW79995   8.919  13.882  11.406
26033SOL    HW179996   8.898  13.825  11.332
26033SOL    HW279997   8.883  13.967  11.382
26034SOL     OW79998   5.483   4.217   3.043
26034SOL    HW179999   5.563   4.171   3.070
26034SOL    HW280000   5.423   4.147   3.018
26035SOL     OW80001  14.337  10.946   9.133
26035SOL    HW180002  14.301  10.931   9.221
26035SOL    HW280003  14.270  10.913   9.074
26036SOL     OW80004  11.199  13.337  13.168
26036SOL    HW180005  11.287  13.327  13.133
26036SOL    HW280006  11.143  13.347  13.090
26037SOL     OW80007   4.830  13.933   0.933
26037SOL    HW180008   4.898  13.875   0.897
26037SOL    HW280009   4.828  14.007   0.873
26038SOL     OW80010   9.637   9.271   4.747
26038SOL    HW180011   9.578   9.328   4.795
26038SOL    HW280012   9.663   9.323   4.670
26039SOL     OW80013   2.967   7.848   2.305
26039SOL    HW180014   2.991   7.844   2.397
26039SOL    HW280015   2.915   7.769   2.290
26040SOL     OW80016  10.803   8.353   2.651
26040SOL    HW180017  10.834   8.329   2.738
26040SOL    HW280018  10.708   8.364   2.661
26041SOL     OW80019  11.215   0.756  13.336
26041SOL    HW180020  11.152   0.823  13.309
26041SOL    HW280021  11.204   0.686  13.271
26042SOL     OW80022   5.371   7.847   9.697
26042SOL    HW180023   5.383   7.937   9.725
26042SOL    HW280024   5.315   7.853   9.620
26043SOL     OW80025   1.652   1.304  12.200
26043SOL    HW180026   1.584   1.244  12.168
26043SOL    HW280027   1.634   1.386  12.155
26044SOL     OW80028  13.340   2.960  11.030
26044SOL    HW180029  13.345   3.050  10.997
26044SOL    HW280030  13.358   2.968  11.124
26045SOL     OW80031  12.834  12.324   6.386
26045SOL    HW180032  12.875  12.265   6.449
26045SOL    HW280033  12.796  12.265   6.320
26046SOL     OW80034  13.167  12.254   9.460
26046SOL    HW180035  13.156  12.169   9.417
26046SOL    HW280036  13.203  12.233   9.547
26047SOL     OW80037  14.703   6.921  14.755
26047SOL    HW180038  14.730   6.931  14.663
26047SOL    HW280039  14.608   6.928  14.754
26048SOL     OW80040   9.985   0.910   8.420
26048SOL    HW180041  10.028   0.930   8.337
26048SOL    HW280042   9.915   0.975   8.428
26049SOL     OW80043   6.424  11.492   5.410
26049SOL    HW180044   6.502  11.547   5.421
26049SOL    HW280045   6.401  11.502   5.318
26050SOL     OW80046   9.885   7.035  11.897
26050SOL    HW180047   9.917   7.003  11.981
26050SOL    HW280048   9.962   7.037  11.841
26051SOL     OW80049   7.347   7.039   7.540
26051SOL    HW180050   7.394   7.079   7.468
26051SOL    HW280051   7.413   7.029   7.609
26052SOL     OW80052   8.794   2.325  12.623
26052SOL    HW180053   8.777   2.377  12.545
26052SOL    HW280054   8.785   2.234  12.594
26053SOL     OW80055   2.133   1.904   7.074
26053SOL    HW180056   2.185   1.829   7.103
26053SOL    HW280057   2.162   1.977   7.129
26054SOL     OW80058  14.781  10.580   2.053
26054SOL    HW180059  14.691  10.602   2.079
26054SOL    HW280060  14.801  10.500   2.102
26055SOL     OW80061   0.557  14.642   8.675
26055SOL    HW180062   0.538  14.554   8.707
26055SOL    HW280063   0.636  14.632   8.623
26056SOL     OW80064   8.868  13.795   8.652
26056SOL    HW180065   8.828  13.748   8.579
26056SOL    HW280066   8.865  13.887   8.625
26057SOL     OW80067  12.464  13.239   5.727
26057SOL    HW180068  12.369  13.244   5.732
26057SOL    HW280069  12.491  13.202   5.811
26058SOL     OW80070   8.414   9.052   5.169
26058SOL    HW180071   8.378   9.106   5.099
26058SOL    HW280072   8.345   9.050   5.235
26059SOL     OW80073  10.389   1.121   8.506
26059SOL    HW180074  10.473   1.108   8.549
26059SOL    HW280075  10.325   1.081   8.565
26060SOL     OW80076  10.994  13.966   4.457
26060SOL    HW180077  11.089  13.961   4.464
26060SOL    HW280078  10.976  13.962   4.363
26061SOL     OW80079   9.583  10.768   1.568
26061SOL    HW180080   9.551  10.680   1.589
26061SOL    HW280081   9.677  10.763   1.582
26062SOL     OW80082   6.926   7.432   0.421
26062SOL    HW180083   6.990   7.437   0.350
26062SOL    HW280084   6.954   7.501   0.483
26063SOL     OW80085  13.416  12.912   8.124
26063SOL    HW180086  13.445  12.881   8.038
26063SOL    HW280087  13.466  12.993   8.137
26064SOL     OW80088   2.555   1.431   7.386
26064SOL    HW180089   2.628   1.475   7.430
26064SOL    HW280090   2.557   1.464   7.296
26065SOL     OW80091   3.621   6.231   1.016
26065SOL    HW180092   3.594   6.143   0.991
26065SOL    HW280093   3.562   6.255   1.087
26066SOL     OW80094   3.429   4.107  10.446
26066SOL    HW180095   3.483   4.043  10.493
26066SOL    HW280096   3.369   4.141  10.513
26067SOL     OW80097   0.630   3.559   0.894
26067SOL    HW180098   0.645   3.635   0.950
26067SOL    HW280099   0.572   3.591   0.825
26068SOL     OW80100  11.403   1.479   9.618
26068SOL    HW180101  11.359   1.401   9.584
26068SOL    HW280102  11.495   1.466   9.600
26069SOL     OW80103   8.562  10.395   0.130
26069SOL    HW180104   8.588  10.453   0.059
26069SOL    HW280105   8.476  10.362   0.104
26070SOL     OW80106   7.692   9.972   8.093
26070SOL    HW180107   7.705   9.905   8.161
26070SOL    HW280108   7.686   9.922   8.012
26071SOL     OW80109   0.744  11.319   8.410
26071SOL    HW180110   0.828  11.311   8.456
26071SOL    HW280111   0.682  11.340   8.479
26072SOL     OW80112  11.767   5.289   6.494
26072SOL    HW180113  11.761   5.299   6.589
26072SOL    HW280114  11.722   5.206   6.477
26073SOL     OW80115   8.930   8.526  14.430
26073SOL    HW180116   8.953   8.466  14.501
26073SOL    HW280117   9.012   8.542  14.384
26074SOL     OW80118   8.247  10.119   2.878
26074SOL    HW180119   8.271  10.198   2.926
26074SOL    HW280120   8.152  10.113   2.888
26075SOL     OW80121  14.337   5.826  12.084
26075SOL    HW180122  14.286   5.867  12.154
26075SOL    HW280123  14.315   5.733  12.089
26076SOL     OW80124   2.961   1.171   5.211
26076SOL    HW180125   2.900   1.097   5.215
26076SOL    HW280126   3.014   1.155   5.133
26077SOL     OW80127   8.782  11.757   1.304
26077SOL    HW180128   8.815  11.673   1.272
26077SOL    HW280129   8.738  11.796   1.228
26078SOL     OW80130   0.151  12.229   6.562
26078SOL    HW180131   0.140  12.324   6.570
26078SOL    HW280132   0.192  12.217   6.476
26079SOL     OW80133   2.012  11.870   3.634
26079SOL    HW180134   2.071  11.930   3.680
26079SOL    HW280135   2.069  11.819   3.577
26080SOL     OW80136   1.632   6.831   6.259
26080SOL    HW180137   1.670   6.791   6.181
26080SOL    HW280138   1.658   6.775   6.332
26081SOL     OW80139  11.997   0.740   8.423
26081SOL    HW180140  12.005   0.732   8.328
26081SOL    HW280141  12.070   0.796   8.448
26082SOL     OW80142   3.734   3.117  14.207
26082SOL    HW180143   3.722   3.211  14.219
26082SOL    HW280144   3.693   3.078  14.284
26083SOL     OW80145   8.172   7.190   3.251
26083SOL    HW180146   8.238   7.123   3.232
26083SOL    HW280147   8.221   7.261   3.292
26084SOL     OW80148   8.844   4.302   8.424
26084SOL    HW180149   8.827   4.362   8.351
26084SOL    HW280150   8.859   4.359   8.499
26085SOL     OW80151   0.292   6.047   7.696
26085SOL    HW180152   0.371   6.097   7.715
26085SOL    HW280153   0.314   5.995   7.619
26086SOL     OW80154   4.073  14.513   3.724
26086SOL    HW180155   4.111  14.510   3.812
26086SOL    HW280156   4.078  14.605   3.699
26087SOL     OW80157   7.177   3.944  12.593
26087SOL    HW180158   7.202   3.958  12.684
26087SOL    HW280159   7.241   3.880  12.560
26088SOL     OW80160   5.868   7.911   7.537
26088SOL    HW180161   5.800   7.970   7.568
26088SOL    HW280162   5.883   7.937   7.446
26089SOL     OW80163   9.733  14.454  13.347
26089SOL    HW180164   9.772  14.375  13.385
26089SOL    HW280165   9.644  14.427  13.323
26090SOL     OW80166  11.061   9.582   5.661
26090SOL    HW180167  11.101   9.587   5.748
26090SOL    HW280168  11.059   9.673   5.631
26091SOL     OW80169   1.093  13.141  11.300
26091SOL    HW180170   1.005  13.110  11.319
26091SOL    HW280171   1.126  13.082  11.233
26092SOL     OW80172   0.772   5.021  12.740
26092SOL    HW180173   0.779   5.027  12.835
26092SOL    HW280174   0.687   5.060  12.720
26093SOL     OW80175   7.720  14.375   8.135
26093SOL    HW180176   7.644  14.433   8.138
26093SOL    HW280177   7.689  14.296   8.090
26094SOL     OW80178  14.158   5.654   8.287
26094SOL    HW180179  14.120   5.741   8.282
26094SOL    HW280180  14.202   5.642   8.202
26095SOL     OW80181   8.569  10.295   6.585
26095SOL    HW180182   8.664  10.283   6.592
26095SOL    HW280183   8.537  10.282   6.674
26096SOL     OW80184   4.383  10.872  13.595
26096SOL    HW180185   4.399  10.836  13.682
26096SOL    HW280186   4.292  10.903  13.599
26097SOL     OW80187   2.562   5.926   0.702
26097SOL    HW180188   2.575   6.021   0.707
26097SOL    HW280189   2.540   5.910   0.610
26098SOL     OW80190  12.600   8.587   5.179
26098SOL    HW180191  12.527   8.628   5.133
26098SOL    HW280192  12.623   8.649   5.248
26099SOL     OW80193  13.878  10.270   9.519
26099SOL    HW180194  13.842  10.350   9.479
26099SOL    HW280195  13.896  10.212   9.445
26100SOL     OW80196   5.874   2.971  13.475
26100SOL    HW180197   5.817   3.020  13.534
26100SOL    HW280198   5.906   2.898  13.528
26101SOL     OW80199   7.960  14.244  12.333
26101SOL    HW180200   7.987  14.269  12.244
26101SOL    HW280201   8.040  14.250  12.384
26102SOL     OW80202   5.763   2.555   9.620
26102SOL    HW180203   5.760   2.538   9.715
26102SOL    HW280204   5.720   2.480   9.581
26103SOL     OW80205   6.099   2.123   0.257
26103SOL    HW180206   6.034   2.153   0.193
26103SOL    HW280207   6.120   2.033   0.230
26104SOL     OW80208   9.620  14.165   9.280
26104SOL    HW180209   9.628  14.168   9.376
26104SOL    HW280210   9.699  14.121   9.251
26105SOL     OW80211  14.853   8.901   6.535
26105SOL    HW180212  14.845   8.838   6.463
26105SOL    HW280213  14.763   8.919   6.562
26106SOL     OW80214   1.664   5.982   1.529
26106SOL    HW180215   1.683   6.062   1.479
26106SOL    HW280216   1.663   6.011   1.620
26107SOL     OW80217  13.129   4.042   3.332
26107SOL    HW180218  13.194   4.109   3.352
26107SOL    HW280219  13.143   4.022   3.239
26108SOL     OW80220   2.664   5.156   8.416
26108SOL    HW180221   2.626   5.175   8.501
26108SOL    HW280222   2.610   5.204   8.354
26109SOL     OW80223   4.128   4.253   4.312
26109SOL    HW180224   4.147   4.346   4.300
26109SOL    HW280225   4.209   4.208   4.287
26110SOL     OW80226  12.911   1.615  13.519
26110SOL    HW180227  12.836   1.675  13.522
26110SOL    HW280228  12.880   1.534  13.559
26111SOL     OW80229   8.911  10.132   3.022
26111SOL    HW180230   8.916  10.224   2.995
26111SOL    HW280231   8.869  10.134   3.108
26112SOL     OW80232  14.119   2.176  13.530
26112SOL    HW180233  14.195   2.233  13.539
26112SOL    HW280234  14.051   2.232  13.492
26113SOL     OW80235   0.871   9.712   3.641
26113SOL    HW180236   0.808   9.640   3.646
26113SOL    HW280237   0.942   9.686   3.700
26114SOL     OW80238   9.423   7.700   4.024
26114SOL    HW180239   9.346   7.711   3.968
26114SOL    HW280240   9.391   7.713   4.113
26115SOL     OW80241   0.880   3.125   2.544
26115SOL    HW180242   0.967   3.164   2.549
26115SOL    HW280243   0.896   3.031   2.542
26116SOL     OW80244   8.483  11.361   6.412
26116SOL    HW180245   8.455  11.326   6.496
26116SOL    HW280246   8.404  11.362   6.359
26117SOL     OW80247   0.299   2.795   9.955
26117SOL    HW180248   0.249   2.723   9.993
26117SOL    HW280249   0.343   2.757   9.879
26118SOL     OW80250   5.724   8.375   9.626
26118SOL    HW180251   5.714   8.455   9.575
26118SOL    HW280252   5.647   8.322   9.604
26119SOL     OW80253  11.502  13.118   2.232
26119SOL    HW180254  11.547  13.073   2.160
26119SOL    HW280255  11.552  13.199   2.244
26120SOL     OW80256   0.015   8.569  10.800
26120SOL    HW180257   0.080   8.543  10.735
26120SOL    HW280258   0.033   8.514  10.876
26121SOL     OW80259   5.738  10.848   0.195
26121SOL    HW180260   5.832  10.850   0.180
26121SOL    HW280261   5.708  10.768   0.153
26122SOL     OW80262   7.817  11.018   3.222
26122SOL    HW180263   7.852  11.038   3.309
26122SOL    HW280264   7.788  10.928   3.229
26123SOL     OW80265  10.085   5.442   8.125
26123SOL    HW180266  10.011   5.389   8.096
26123SOL    HW280267  10.054   5.489   8.202
26124SOL     OW80268   8.275   9.893  13.172
26124SOL    HW180269   8.324   9.920  13.250
26124SOL    HW280270   8.318   9.939  13.100
26125SOL     OW80271   4.996   3.200   1.967
26125SOL    HW180272   5.002   3.182   2.060
26125SOL    HW280273   4.958   3.121   1.929
26126SOL     OW80274   6.409  13.812  13.387
26126SOL    HW180275   6.493  13.766  13.381
26126SOL    HW280276   6.416  13.864  13.467
26127SOL     OW80277   1.167   1.736   1.213
26127SOL    HW180278   1.138   1.824   1.189
26127SOL    HW280279   1.260   1.745   1.234
26128SOL     OW80280  12.801   8.390   7.568
26128SOL    HW180281  12.791   8.345   7.483
26128SOL    HW280282  12.713   8.417   7.591
26129SOL     OW80283  10.057  11.438   0.175
26129SOL    HW180284  10.087  11.372   0.238
26129SOL    HW280285   9.971  11.406   0.147
26130SOL     OW80286   3.843   9.741   0.456
26130SOL    HW180287   3.764   9.774   0.412
26130SOL    HW280288   3.896   9.818   0.471
26131SOL     OW80289   2.230  14.730   7.529
26131SOL    HW180290   2.183  14.712   7.611
26131SOL    HW280291   2.189  14.673   7.464
26132SOL     OW80292   4.430  14.158   7.956
26132SOL    HW180293   4.438  14.147   8.051
26132SOL    HW280294   4.517  14.136   7.922
26133SOL     OW80295  13.791  11.042   5.056
26133SOL    HW180296  13.771  10.978   4.988
26133SOL    HW280297  13.875  11.081   5.029
26134SOL     OW80298   7.761  10.021  10.801
26134SOL    HW180299   7.810  10.067  10.869
26134SOL    HW280300   7.747   9.933  10.836
26135SOL     OW80301  12.195   6.496   5.600
26135SOL    HW180302  12.167   6.526   5.514
26135SOL    HW280303  12.114   6.488   5.651
26136SOL     OW80304   9.926   5.100  10.381
26136SOL    HW180305   9.962   5.038  10.318
26136SOL    HW280306   9.986   5.096  10.456
26137SOL     OW80307   0.668   6.531  13.729
26137SOL    HW180308   0.575   6.519  13.711
26137SOL    HW280309   0.688   6.468  13.797
26138SOL     OW80310   0.092   7.907  13.495
26138SOL    HW180311   0.089   8.003  13.498
26138SOL    HW280312   0.179   7.887  13.461
26139SOL     OW80313   0.421  11.021  12.489
26139SOL    HW180314   0.437  10.972  12.570
26139SOL    HW280315   0.353  10.970  12.444
26140SOL     OW80316  14.111   1.661  14.031
26140SOL    HW180317  14.175   1.720  14.070
26140SOL    HW280318  14.152   1.634  13.948
26141SOL     OW80319  13.708  12.560   5.489
26141SOL    HW180320  13.789  12.531   5.531
26141SOL    HW280321  13.655  12.595   5.560
26142SOL     OW80322   9.078  13.767   5.023
26142SOL    HW180323   9.059  13.790   5.114
26142SOL    HW280324   9.170  13.788   5.012
26143SOL     OW80325   0.603   0.425  10.401
26143SOL    HW180326   0.516   0.452  10.370
26143SOL    HW280327   0.642   0.505  10.435
26144SOL     OW80328   6.299  10.115   4.624
26144SOL    HW180329   6.263  10.155   4.704
26144SOL    HW280330   6.324  10.027   4.651
26145SOL     OW80331  14.529  12.626   7.077
26145SOL    HW180332  14.561  12.597   7.162
26145SOL    HW280333  14.466  12.559   7.051
26146SOL     OW80334   8.721  10.889  11.677
26146SOL    HW180335   8.643  10.875  11.731
26146SOL    HW280336   8.787  10.921  11.739
26147SOL     OW80337   3.908   9.432  13.943
26147SOL    HW180338   3.917   9.499  13.876
26147SOL    HW280339   3.997   9.413  13.970
26148SOL     OW80340  11.165   2.051   8.297
26148SOL    HW180341  11.071   2.067   8.302
26148SOL    HW280342  11.205   2.132   8.326
26149SOL     OW80343   5.130   1.685   2.003
26149SOL    HW180344   5.042   1.647   2.008
26149SOL    HW280345   5.117   1.779   2.014
26150SOL     OW80346   6.423  12.501   7.643
26150SOL    HW180347   6.437  12.407   7.631
26150SOL    HW280348   6.346  12.507   7.700
26151SOL     OW80349   5.766  14.399  12.575
26151SOL    HW180350   5.809  14.340  12.637
26151SOL    HW280351   5.836  14.458  12.546
26152SOL     OW80352   7.761   2.628  12.023
26152SOL    HW180353   7.778   2.645  11.931
26152SOL    HW280354   7.688   2.567  12.023
26153SOL     OW80355  10.890   7.419   4.739
26153SOL    HW180356  10.931   7.448   4.657
26153SOL    HW280357  10.936   7.339   4.762
26154SOL     OW80358   3.328   2.833  11.952
26154SOL    HW180359   3.358   2.917  11.917
26154SOL    HW280360   3.379   2.822  12.032
26155SOL     OW80361   0.551   5.235   3.056
26155SOL    HW180362   0.459   5.253   3.076
26155SOL    HW280363   0.565   5.273   2.970
26156SOL     OW80364   4.259  14.039  12.020
26156SOL    HW180365   4.280  14.065  12.110
26156SOL    HW280366   4.325  13.975  11.997
26157SOL     OW80367   9.329   7.364   7.724
26157SOL    HW180368   9.234   7.367   7.714
26157SOL    HW280369   9.343   7.346   7.818
26158SOL     OW80370   7.151  12.241   5.893
26158SOL    HW180371   7.109  12.245   5.807
26158SOL    HW280372   7.158  12.147   5.911
26159SOL     OW80373   3.137  14.314   1.757
26159SOL    HW180374   3.211  14.300   1.815
26159SOL    HW280375   3.074  14.365   1.810
26160SOL     OW80376  13.768  11.059   2.013
26160SOL    HW180377  13.814  11.024   1.936
26160SOL    HW280378  13.820  11.133   2.041
26161SOL     OW80379   5.942  10.353   6.869
26161SOL    HW180380   5.870  10.416   6.861
26161SOL    HW280381   5.914  10.293   6.939
26162SOL     OW80382   0.931   2.282   8.937
26162SOL    HW180383   0.841   2.290   8.970
26162SOL    HW280384   0.967   2.370   8.946
26163SOL     OW80385   9.759  13.016   2.444
26163SOL    HW180386   9.769  13.087   2.380
26163SOL    HW280387   9.730  12.941   2.392
26164SOL     OW80388   7.623  13.615   1.542
26164SOL    HW180389   7.717  13.609   1.524
26164SOL    HW280390   7.581  13.592   1.460
26165SOL     OW80391   1.039   7.535   7.699
26165SOL    HW180392   1.000   7.611   7.742
26165SOL    HW280393   1.068   7.479   7.771
26166SOL     OW80394  10.173  13.637  13.565
26166SOL    HW180395  10.107  13.609  13.628
26166SOL    HW280396  10.124  13.687  13.500
26167SOL     OW80397   4.338   6.712   4.243
26167SOL    HW180398   4.404   6.666   4.294
26167SOL    HW280399   4.255   6.674   4.272
26168SOL     OW80400   5.132  10.949  14.840
26168SOL    HW180401   5.109  10.856  14.844
26168SOL    HW280402   5.227  10.951  14.848
26169SOL     OW80403  12.778   7.761   7.282
26169SOL    HW180404  12.798   7.747   7.190
26169SOL    HW280405  12.710   7.697   7.302
26170SOL     OW80406   0.707   2.675  14.803
26170SOL    HW180407   0.647   2.613  14.763
26170SOL    HW280408   0.757   2.711  14.729
26171SOL     OW80409   2.461   1.215  12.416
26171SOL    HW180410   2.540   1.189  12.464
26171SOL    HW280411   2.416   1.133  12.397
26172SOL     OW80412   0.164   3.984   4.080
26172SOL    HW180413   0.171   3.914   4.016
26172SOL    HW280414   0.111   3.947   4.151
26173SOL     OW80415  10.559  12.380   1.740
26173SOL    HW180416  10.574  12.467   1.776
26173SOL    HW280417  10.463  12.369   1.742
26174SOL     OW80418  12.136   7.210  11.692
26174SOL    HW180419  12.053   7.191  11.736
26174SOL    HW280420  12.113   7.214  11.599
26175SOL     OW80421   0.227   7.132   8.313
26175SOL    HW180422   0.319   7.109   8.304
26175SOL    HW280423   0.188   7.108   8.229
26176SOL     OW80424  13.246  12.516   0.323
26176SOL    HW180425  13.297  12.594   0.299
26176SOL    HW280426  13.312  12.448   0.337
26177SOL     OW80427   1.250   2.990  10.480
26177SOL    HW180428   1.230   3.079  10.506
26177SOL    HW280429   1.250   2.992  10.384
26178SOL     OW80430  12.553   9.817  10.457
26178SOL    HW180431  12.639   9.858  10.450
26178SOL    HW280432  12.499   9.861  10.391
26179SOL     OW80433   2.866  12.750   9.100
26179SOL    HW180434   2.950  12.780   9.134
26179SOL    HW280435   2.847  12.810   9.028
26180SOL     OW80436   2.056  11.801   7.177
26180SOL    HW180437   2.151  11.789   7.178
26180SOL    HW280438   2.024  11.742   7.245
26181SOL     OW80439  14.385  11.302   3.921
26181SOL    HW180440  14.445  11.287   3.994
26181SOL    HW280441  14.376  11.217   3.879
26182SOL     OW80442   6.729   3.933  11.821
26182SOL    HW180443   6.734   4.009  11.763
26182SOL    HW280444   6.683   3.866  11.770
26183SOL     OW80445   7.734  12.258   7.311
26183SOL    HW180446   7.794  12.282   7.381
26183SOL    HW280447   7.753  12.320   7.240
26184SOL     OW80448   1.298   1.263   9.118
26184SOL    HW180449   1.260   1.350   9.117
26184SOL    HW280450   1.389   1.276   9.144
26185SOL     OW80451  14.831  12.334  10.588
26185SOL    HW180452  14.846  12.426  10.609
26185SOL    HW280453  14.842  12.329  10.493
26186SOL     OW80454   8.295  11.065   8.393
26186SOL    HW180455   8.211  11.046   8.351
26186SOL    HW280456   8.331  11.138   8.343
26187SOL     OW80457   7.323   7.225   3.188
26187SOL    HW180458   7.265   7.259   3.120
26187SOL    HW280459   7.292   7.136   3.204
26188SOL     OW80460   8.591   0.106   2.588
26188SOL    HW180461   8.662   0.137   2.531
26188SOL    HW280462   8.527   0.069   2.528
26189SOL     OW80463   2.026   9.707  10.463
26189SOL    HW180464   2.019   9.793  10.505
26189SOL    HW280465   2.065   9.651  10.530
26190SOL     OW80466   5.448  12.150  12.357
26190SOL    HW180467   5.372  12.136  12.413
26190SOL    HW280468   5.509  12.199  12.412
26191SOL     OW80469   4.381   0.434   1.300
26191SOL    HW180470   4.466   0.399   1.273
26191SOL    HW280471   4.367   0.397   1.387
26192SOL     OW80472   3.327   7.957   5.308
26192SOL    HW180473   3.383   7.883   5.331
26192SOL    HW280474   3.242   7.917   5.290
26193SOL     OW80475  10.039   2.548   7.556
26193SOL    HW180476  10.109   2.549   7.490
26193SOL    HW280477  10.004   2.459   7.552
26194SOL     OW80478   3.417  14.840   1.112
26194SOL    HW180479   3.512  14.851   1.118
26194SOL    HW280480   3.396  14.773   1.176
26195SOL     OW80481   6.192  14.781   4.149
26195SOL    HW180482   6.287  14.769   4.156
26195SOL    HW280483   6.176  14.870   4.181
26196SOL     OW80484   3.903  13.817   0.945
26196SOL    HW180485   3.822  13.844   0.903
26196SOL    HW280486   3.926  13.891   1.002
26197SOL     OW80487  12.979   5.132   1.336
26197SOL    HW180488  13.029   5.064   1.292
26197SOL    HW280489  13.003   5.213   1.292
26198SOL     OW80490   4.531   4.181   4.756
26198SOL    HW180491   4.495   4.215   4.674
26198SOL    HW280492   4.455   4.149   4.804
26199SOL     OW80493  13.355   8.742   8.468
26199SOL    HW180494  13.399   8.657   8.460
26199SOL    HW280495  13.423   8.805   8.447
26200SOL     OW80496  11.787  10.427   9.447
26200SOL    HW180497  11.812  10.465   9.362
26200SOL    HW280498  11.870  10.401   9.486
26201SOL     OW80499   7.999   4.259  10.994
26201SOL    HW180500   7.956   4.289  10.914
26201SOL    HW280501   8.021   4.168  10.978
26202SOL     OW80502  13.001  10.513   8.715
26202SOL    HW180503  12.962  10.521   8.802
26202SOL    HW280504  12.942  10.454   8.668
26203SOL     OW80505  12.294   1.591   3.006
26203SOL    HW180506  12.261   1.668   3.051
26203SOL    HW280507  12.225   1.569   2.943
26204SOL     OW80508  11.689  10.486  14.142
26204SOL    HW180509  11.717  10.513  14.229
26204SOL    HW280510  11.753  10.419  14.116
26205SOL     OW80511   3.265  11.249  11.160
26205SOL    HW180512   3.310  11.222  11.240
26205SOL    HW280513   3.189  11.298  11.191
26206SOL     OW80514   9.082   9.412  10.041
26206SOL    HW180515   9.066   9.471  10.115
26206SOL    HW280516   9.099   9.327  10.081
26207SOL     OW80517   1.883  12.250   0.523
26207SOL    HW180518   1.808  12.307   0.539
26207SOL    HW280519   1.850  12.184   0.461
26208SOL     OW80520   0.964   4.731   2.474
26208SOL    HW180521   0.965   4.695   2.385
26208SOL    HW280522   0.871   4.738   2.497
26209SOL     OW80523  11.256   3.043  10.652
26209SOL    HW180524  11.250   3.109  10.582
26209SOL    HW280525  11.295   2.967  10.609
26210SOL     OW80526  12.342   2.164   9.120
26210SOL    HW180527  12.321   2.099   9.053
26210SOL    HW280528  12.258   2.185   9.160
26211SOL     OW80529   5.355  13.661  13.352
26211SOL    HW180530   5.365  13.567  13.332
26211SOL    HW280531   5.327  13.700  13.270
26212SOL     OW80532  10.307   6.025   5.041
26212SOL    HW180533  10.351   6.102   5.004
26212SOL    HW280534  10.252   5.993   4.970
26213SOL     OW80535   4.191  10.308   7.828
26213SOL    HW180536   4.125  10.262   7.881
26213SOL    HW280537   4.211  10.386   7.880
26214SOL     OW80538  11.603  14.359   2.704
26214SOL    HW180539  11.584  14.316   2.620
26214SOL    HW280540  11.524  14.344   2.756
26215SOL     OW80541   1.630   2.987   0.565
26215SOL    HW180542   1.603   3.000   0.656
26215SOL    HW280543   1.547   2.977   0.518
26216SOL     OW80544  10.620  11.397  12.684
26216SOL    HW180545  10.620  11.445  12.767
26216SOL    HW280546  10.568  11.318  12.702
26217SOL     OW80547   7.494   6.618   0.800
26217SOL    HW180548   7.557   6.548   0.785
26217SOL    HW280549   7.409   6.574   0.806
26218SOL     OW80550  11.898   2.564   9.883
26218SOL    HW180551  11.895   2.549   9.978
26218SOL    HW280552  11.942   2.487   9.848
26219SOL     OW80553  12.993  12.974   2.563
26219SOL    HW180554  13.019  13.056   2.605
26219SOL    HW280555  12.918  12.944   2.615
26220SOL     OW80556   9.766   9.557   6.626
26220SOL    HW180557   9.813   9.491   6.574
26220SOL    HW280558   9.763   9.520   6.714
26221SOL     OW80559   4.117   7.069   8.051
26221SOL    HW180560   4.033   7.025   8.063
26221SOL    HW280561   4.180   7.013   8.097
26222SOL     OW80562   6.438   6.900   1.428
26222SOL    HW180563   6.407   6.949   1.352
26222SOL    HW280564   6.504   6.840   1.393
26223SOL     OW80565   0.129   4.926   3.917
26223SOL    HW180566   0.115   5.016   3.888
26223SOL    HW280567   0.148   4.878   3.837
26224SOL     OW80568   3.607  10.128   1.129
26224SOL    HW180569   3.573  10.201   1.077
26224SOL    HW280570   3.691  10.160   1.162
26225SOL     OW80571   0.761  13.264   8.641
26225SOL    HW180572   0.682  13.268   8.587
26225SOL    HW280573   0.816  13.199   8.597
26226SOL     OW80574  12.494   8.247   5.455
26226SOL    HW180575  12.524   8.334   5.480
26226SOL    HW280576  12.523   8.190   5.525
26227SOL     OW80577   4.933   4.789  12.042
26227SOL    HW180578   4.952   4.701  12.010
26227SOL    HW280579   4.980   4.795  12.125
26228SOL     OW80580   9.991  12.298  10.866
26228SOL    HW180581  10.079  12.261  10.851
26228SOL    HW280582  10.008  12.387  10.897
26229SOL     OW80583   0.307   6.760   6.279
26229SOL    HW180584   0.387   6.733   6.325
26229SOL    HW280585   0.246   6.783   6.349
26230SOL     OW80586   6.095  14.658   3.518
26230SOL    HW180587   6.060  14.747   3.525
26230SOL    HW280588   6.187  14.670   3.496
26231SOL     OW80589  12.032   1.991   0.425
26231SOL    HW180590  11.980   1.985   0.345
26231SOL    HW280591  12.070   1.905   0.437
26232SOL     OW80592   5.751   4.574   0.499
26232SOL    HW180593   5.688   4.641   0.476
26232SOL    HW280594   5.766   4.586   0.592
26233SOL     OW80595   2.343  13.588   7.923
26233SOL    HW180596   2.342  13.547   8.010
26233SOL    HW280597   2.436  13.601   7.904
26234SOL     OW80598   3.947   7.629   4.127
26234SOL    HW180599   3.987   7.715   4.141
26234SOL    HW280600   3.991   7.572   4.190
26235SOL     OW80601   6.751  12.206   5.806
26235SOL    HW180602   6.704  12.128   5.835
26235SOL    HW280603   6.692  12.279   5.826
26236SOL     OW80604   2.827   5.225   5.172
26236SOL    HW180605   2.818   5.277   5.093
26236SOL    HW280606   2.833   5.289   5.243
26237SOL     OW80607   6.516  13.228   4.909
26237SOL    HW180608   6.478  13.199   4.992
26237SOL    HW280609   6.508  13.152   4.852
26238SOL     OW80610   3.232  11.855   6.279
26238SOL    HW180611   3.154  11.878   6.229
26238SOL    HW280612   3.204  11.857   6.370
26239SOL     OW80613   9.205  13.158   7.029
26239SOL    HW180614   9.277  13.145   6.967
26239SOL    HW280615   9.131  13.111   6.990
26240SOL     OW80616  14.077   9.952   7.662
26240SOL    HW180617  14.090   9.876   7.605
26240SOL    HW280618  14.090  10.027   7.605
26241SOL     OW80619   0.984   8.420  14.467
26241SOL    HW180620   1.046   8.348  14.458
26241SOL    HW280621   0.913   8.384  14.520
26242SOL     OW80622  13.941  13.854   3.021
26242SOL    HW180623  13.962  13.833   2.930
26242SOL    HW280624  13.851  13.887   3.017
26243SOL     OW80625   0.086  13.909  12.219
26243SOL    HW180626   0.019  13.970  12.250
26243SOL    HW280627   0.058  13.885  12.130
26244SOL     OW80628  14.621  11.162   1.307
26244SOL    HW180629  14.706  11.185   1.269
26244SOL    HW280630  14.578  11.110   1.239
26245SOL     OW80631   3.214  13.312   3.820
26245SOL    HW180632   3.119  13.316   3.833
26245SOL    HW280633   3.225  13.313   3.725
26246SOL     OW80634  13.427   5.621  10.437
26246SOL    HW180635  13.340   5.584  10.423
26246SOL    HW280636  13.413   5.691  10.500
26247SOL     OW80637   3.370   0.823   2.572
26247SOL    HW180638   3.359   0.871   2.490
26247SOL    HW280639   3.463   0.801   2.574
26248SOL     OW80640   8.093  11.425   0.948
26248SOL    HW180641   8.140  11.354   0.993
26248SOL    HW280642   8.073  11.390   0.862
26249SOL     OW80643   8.693   9.664  14.581
26249SOL    HW180644   8.658   9.685  14.494
26249SOL    HW280645   8.783   9.696  14.578
26250SOL     OW80646   0.830  10.290   1.883
26250SOL    HW180647   0.876  10.313   1.802
26250SOL    HW280648   0.860  10.201   1.901
26251SOL     OW80649  14.252   1.167   2.290
26251SOL    HW180650  14.322   1.184   2.228
26251SOL    HW280651  14.277   1.085   2.333
26252SOL     OW80652   8.367   9.620   4.904
26252SOL    HW180653   8.273   9.620   4.882
26252SOL    HW280654   8.411   9.628   4.819
26253SOL     OW80655   4.373  14.543   6.855
26253SOL    HW180656   4.342  14.590   6.933
26253SOL    HW280657   4.295  14.533   6.801
26254SOL     OW80658   3.693  12.498  12.851
26254SOL    HW180659   3.641  12.527  12.925
26254SOL    HW280660   3.781  12.484  12.887
26255SOL     OW80661  10.862   6.679   0.201
26255SOL    HW180662  10.918   6.680   0.124
26255SOL    HW280663  10.870   6.591   0.236
26256SOL     OW80664  11.887   1.493   6.551
26256SOL    HW180665  11.887   1.586   6.574
26256SOL    HW280666  11.914   1.491   6.459
26257SOL     OW80667  11.579  14.365  12.327
26257SOL    HW180668  11.611  14.373  12.237
26257SOL    HW280669  11.625  14.433  12.376
26258SOL     OW80670   7.694   6.453  11.727
26258SOL    HW180671   7.611   6.410  11.746
26258SOL    HW280672   7.689   6.476  11.635
26259SOL     OW80673  13.278   2.546  11.308
26259SOL    HW180674  13.326   2.464  11.297
26259SOL    HW280675  13.343   2.614  11.294
26260SOL     OW80676   3.921   8.736   5.889
26260SOL    HW180677   3.958   8.648   5.903
26260SOL    HW280678   3.852   8.744   5.954
26261SOL     OW80679  10.773   3.273   1.465
26261SOL    HW180680  10.740   3.362   1.479
26261SOL    HW280681  10.835   3.259   1.536
26262SOL     OW80682  12.363  10.292   2.572
26262SOL    HW180683  12.441  10.330   2.612
26262SOL    HW280684  12.341  10.352   2.501
26263SOL     OW80685   5.683   8.797   2.070
26263SOL    HW180686   5.661   8.889   2.061
26263SOL    HW280687   5.778   8.796   2.084
26264SOL     OW80688   7.989  11.434   2.541
26264SOL    HW180689   8.074  11.477   2.544
26264SOL    HW280690   7.970  11.424   2.447
26265SOL     OW80691   8.056   9.446   4.445
26265SOL    HW180692   7.984   9.469   4.504
26265SOL    HW280693   8.053   9.514   4.377
26266SOL     OW80694  11.343  10.602   1.318
26266SOL    HW180695  11.249  10.587   1.323
26266SOL    HW280696  11.353  10.680   1.264
26267SOL     OW80697   7.884   3.973   9.911
26267SOL    HW180698   7.949   4.032   9.950
26267SOL    HW280699   7.936   3.902   9.872
26268SOL     OW80700   7.471   4.115   9.546
26268SOL    HW180701   7.514   4.157   9.472
26268SOL    HW280702   7.541   4.070   9.593
26269SOL     OW80703   0.368   2.783  10.851
26269SOL    HW180704   0.410   2.735  10.922
26269SOL    HW280705   0.394   2.874  10.863
26270SOL     OW80706  10.910   4.192  11.096
26270SOL    HW180707  10.873   4.104  11.095
26270SOL    HW280708  10.977   4.191  11.028
26271SOL     OW80709   6.390  13.306  11.583
26271SOL    HW180710   6.439  13.372  11.534
26271SOL    HW280711   6.371  13.348  11.667
26272SOL     OW80712   7.963  10.601   0.305
26272SOL    HW180713   7.933  10.628   0.392
26272SOL    HW280714   7.885  10.601   0.251
26273SOL     OW80715   3.473   6.268   1.451
26273SOL    HW180716   3.554   6.243   1.406
26273SOL    HW280717   3.417   6.190   1.445
26274SOL     OW80718   4.911   4.421   6.356
26274SOL    HW180719   4.843   4.370   6.311
26274SOL    HW280720   4.926   4.373   6.437
26275SOL     OW80721   4.819   2.790   6.532
26275SOL    HW180722   4.891   2.835   6.488
26275SOL    HW280723   4.819   2.827   6.621
26276SOL     OW80724   9.374  14.166   2.833
26276SOL    HW180725   9.426  14.180   2.912
26276SOL    HW280726   9.283  14.164   2.863
26277SOL     OW80727  12.233   4.692   5.579
26277SOL    HW180728  12.172   4.618   5.576
26277SOL    HW280729  12.176   4.769   5.579
26278SOL     OW80730  10.275  12.268   4.780
26278SOL    HW180731  10.371  12.270   4.788
26278SOL    HW280732  10.244  12.285   4.868
26279SOL     OW80733   2.119   3.328   0.561
26279SOL    HW180734   2.043   3.273   0.542
26279SOL    HW280735   2.181   3.270   0.605
26280SOL     OW80736   3.143  14.001   4.509
26280SOL    HW180737   3.122  13.938   4.440
26280SOL    HW280738   3.106  14.084   4.477
26281SOL     OW80739  10.195  10.103   6.297
26281SOL    HW180740  10.208  10.021   6.344
26281SOL    HW280741  10.272  10.110   6.240
26282SOL     OW80742   5.378   5.130  11.533
26282SOL    HW180743   5.362   5.152  11.625
26282SOL    HW280744   5.471   5.107  11.530
26283SOL     OW80745  14.615  11.808  11.499
26283SOL    HW180746  14.702  11.790  11.463
26283SOL    HW280747  14.572  11.723  11.501
26284SOL     OW80748  13.608   6.339  12.955
26284SOL    HW180749  13.523   6.320  12.916
26284SOL    HW280750  13.636   6.257  12.994
26285SOL     OW80751  12.822  13.502   6.060
26285SOL    HW180752  12.751  13.547   6.106
26285SOL    HW280753  12.779  13.426   6.019
26286SOL     OW80754   9.288   0.925  12.200
26286SOL    HW180755   9.251   0.902  12.285
26286SOL    HW280756   9.260   0.854  12.142
26287SOL     OW80757   7.057   4.494   9.090
26287SOL    HW180758   7.003   4.487   9.169
26287SOL    HW280759   7.122   4.561   9.111
26288SOL     OW80760   2.846  12.539   4.310
26288SOL    HW180761   2.808  12.460   4.346
26288SOL    HW280762   2.794  12.557   4.231
26289SOL     OW80763  13.079  13.144  10.160
26289SOL    HW180764  13.102  13.087  10.233
26289SOL    HW280765  12.999  13.106  10.124
26290SOL     OW80766   9.731   7.057  11.065
26290SOL    HW180767   9.696   7.023  11.147
26290SOL    HW280768   9.662   7.040  11.001
26291SOL     OW80769  14.403   6.675   8.848
26291SOL    HW180770  14.410   6.770   8.857
26291SOL    HW280771  14.312   6.660   8.822
26292SOL     OW80772  13.721  11.386  12.118
26292SOL    HW180773  13.673  11.416  12.195
26292SOL    HW280774  13.700  11.293  12.111
26293SOL     OW80775   3.411  12.678   3.374
26293SOL    HW180776   3.416  12.656   3.467
26293SOL    HW280777   3.397  12.594   3.331
26294SOL     OW80778   5.556   3.545  11.387
26294SOL    HW180779   5.629   3.588  11.342
26294SOL    HW280780   5.580   3.549  11.480
26295SOL     OW80781   8.713   4.029   7.076
26295SOL    HW180782   8.644   4.057   7.136
26295SOL    HW280783   8.681   4.054   6.989
26296SOL     OW80784   0.542   7.111   6.327
26296SOL    HW180785   0.630   7.094   6.294
26296SOL    HW280786   0.526   7.203   6.307
26297SOL     OW80787   2.191   5.264   6.637
26297SOL    HW180788   2.152   5.228   6.717
26297SOL    HW280789   2.175   5.198   6.570
26298SOL     OW80790  12.179   0.994   7.814
26298SOL    HW180791  12.126   0.942   7.874
26298SOL    HW280792  12.142   1.082   7.819
26299SOL     OW80793   7.661   4.881   1.872
26299SOL    HW180794   7.728   4.819   1.842
26299SOL    HW280795   7.658   4.869   1.966
26300SOL     OW80796  10.471  11.735   3.113
26300SOL    HW180797  10.471  11.701   3.203
26300SOL    HW280798  10.558  11.771   3.100
26301SOL     OW80799  12.298   6.717   2.214
26301SOL    HW180800  12.211   6.685   2.191
26301SOL    HW280801  12.313   6.790   2.153
26302SOL     OW80802   3.212   8.251  13.048
26302SOL    HW180803   3.134   8.300  13.024
26302SOL    HW280804   3.180   8.169  13.085
26303SOL     OW80805   4.900   1.075   5.112
26303SOL    HW180806   4.843   1.077   5.189
26303SOL    HW280807   4.852   1.123   5.045
26304SOL     OW80808   8.463   0.212   9.262
26304SOL    HW180809   8.550   0.251   9.268
26304SOL    HW280810   8.429   0.216   9.351
26305SOL     OW80811   8.398   8.401   8.445
26305SOL    HW180812   8.412   8.448   8.528
26305SOL    HW280813   8.326   8.341   8.464
26306SOL     OW80814   1.269   4.439  14.853
26306SOL    HW180815   1.352   4.483   0.000
26306SOL    HW280816   1.295   4.354  14.819
26307SOL     OW80817   4.968   3.991   5.092
26307SOL    HW180818   4.992   3.927   5.026
26307SOL    HW280819   5.045   3.997   5.149
26308SOL     OW80820   1.899   3.026   4.455
26308SOL    HW180821   1.833   2.980   4.403
26308SOL    HW280822   1.911   2.970   4.532
26309SOL     OW80823   3.976  12.921   1.892
26309SOL    HW180824   3.926  12.848   1.930
26309SOL    HW280825   3.934  12.938   1.808
26310SOL     OW80826   7.452  12.042   5.875
26310SOL    HW180827   7.517  12.061   5.942
26310SOL    HW280828   7.385  11.991   5.921
26311SOL     OW80829  12.730   9.894   3.673
26311SOL    HW180830  12.778   9.966   3.631
26311SOL    HW280831  12.731   9.917   3.767
26312SOL     OW80832   2.473   7.037   2.614
26312SOL    HW180833   2.481   7.088   2.695
26312SOL    HW280834   2.440   7.100   2.550
26313SOL     OW80835   4.471   2.375   5.813
26313SOL    HW180836   4.483   2.467   5.837
26313SOL    HW280837   4.437   2.377   5.724
26314SOL     OW80838   8.311   3.166   8.852
26314SOL    HW180839   8.217   3.182   8.851
26314SOL    HW280840   8.328   3.132   8.940
26315SOL     OW80841  11.292   5.722   3.333
26315SOL    HW180842  11.366   5.769   3.296
26315SOL    HW280843  11.309   5.630   3.312
26316SOL     OW80844   9.998  11.457   8.674
26316SOL    HW180845  10.086  11.460   8.712
26316SOL    HW280846   9.956  11.383   8.717
26317SOL     OW80847   7.154  12.705   1.861
26317SOL    HW180848   7.175  12.788   1.817
26317SOL    HW280849   7.218  12.699   1.932
26318SOL     OW80850  10.306   0.528  12.062
26318SOL    HW180851  10.311   0.448  12.114
26318SOL    HW280852  10.368   0.588  12.103
26319SOL     OW80853   6.940  13.865  13.498
26319SOL    HW180854   6.984  13.950  13.499
26319SOL    HW280855   6.898  13.859  13.584
26320SOL     OW80856   3.584   8.287   3.952
26320SOL    HW180857   3.585   8.193   3.968
26320SOL    HW280858   3.650   8.301   3.884
26321SOL     OW80859  12.972   9.747   5.471
26321SOL    HW180860  12.953   9.657   5.496
26321SOL    HW280861  12.979   9.745   5.376
26322SOL     OW80862   3.646  14.258   3.139
26322SOL    HW180863   3.688  14.258   3.224
26322SOL    HW280864   3.671  14.341   3.099
26323SOL     OW80865   9.913   6.260  11.520
26323SOL    HW180866   9.984   6.196  11.521
26323SOL    HW280867   9.836   6.211  11.550
26324SOL     OW80868   2.054  12.814   6.464
26324SOL    HW180869   2.027  12.837   6.553
26324SOL    HW280870   2.010  12.878   6.408
26325SOL     OW80871   7.890   8.859  13.525
26325SOL    HW180872   7.848   8.932  13.572
26325SOL    HW280873   7.977   8.853  13.563
26326SOL     OW80874   9.406  12.838   1.471
26326SOL    HW180875   9.434  12.756   1.513
26326SOL    HW280876   9.407  12.903   1.541
26327SOL     OW80877  10.403   5.982  14.522
26327SOL    HW180878  10.368   6.062  14.560
26327SOL    HW280879  10.497   5.986  14.537
26328SOL     OW80880   9.526   0.244  11.611
26328SOL    HW180881   9.606   0.196  11.589
26328SOL    HW280882   9.457   0.177  11.611
26329SOL     OW80883   3.433  12.869  10.114
26329SOL    HW180884   3.493  12.899  10.045
26329SOL    HW280885   3.488  12.817  10.172
26330SOL     OW80886   4.421   0.562   7.133
26330SOL    HW180887   4.381   0.541   7.048
26330SOL    HW280888   4.477   0.487   7.151
26331SOL     OW80889   6.134   6.949   8.666
26331SOL    HW180890   6.112   6.991   8.583
26331SOL    HW280891   6.138   6.856   8.646
26332SOL     OW80892   1.544   3.725   7.676
26332SOL    HW180893   1.501   3.653   7.630
26332SOL    HW280894   1.620   3.685   7.717
26333SOL     OW80895   8.739  11.729  11.773
26333SOL    HW180896   8.724  11.779  11.693
26333SOL    HW280897   8.655  11.685  11.790
26334SOL     OW80898  12.045   3.405  11.552
26334SOL    HW180899  11.991   3.482  11.538
26334SOL    HW280900  12.133   3.439  11.569
26335SOL     OW80901   7.943   1.383   6.187
26335SOL    HW180902   7.958   1.324   6.113
26335SOL    HW280903   7.856   1.419   6.172
26336SOL     OW80904   2.262   6.436   8.264
26336SOL    HW180905   2.192   6.371   8.258
26336SOL    HW280906   2.343   6.385   8.259
26337SOL     OW80907  14.799   9.738   2.222
26337SOL    HW180908  14.828   9.659   2.266
26337SOL    HW280909   0.006   9.771   2.177
26338SOL     OW80910  12.133  13.832   6.698
26338SOL    HW180911  12.065  13.898   6.716
26338SOL    HW280912  12.130  13.774   6.774
26339SOL     OW80913   5.336   1.491  13.847
26339SOL    HW180914   5.406   1.556  13.845
26339SOL    HW280915   5.344   1.449  13.932
26340SOL     OW80916   9.697   6.035   2.431
26340SOL    HW180917   9.711   6.054   2.339
26340SOL    HW280918   9.740   5.951   2.446
26341SOL     OW80919   1.221   7.425  14.678
26341SOL    HW180920   1.159   7.358  14.649
26341SOL    HW280921   1.251   7.466  14.596
26342SOL     OW80922  14.781  12.461   2.020
26342SOL    HW180923  14.824  12.504   2.094
26342SOL    HW280924  14.687  12.474   2.037
26343SOL     OW80925   9.413   3.375   8.633
26343SOL    HW180926   9.446   3.424   8.557
26343SOL    HW280927   9.470   3.401   8.705
26344SOL     OW80928  10.625  11.747  14.462
26344SOL    HW180929  10.719  11.763  14.462
26344SOL    HW280930  10.593  11.788  14.543
26345SOL     OW80931   1.871   9.450   7.048
26345SOL    HW180932   1.909   9.436   7.135
26345SOL    HW280933   1.924   9.394   6.991
26346SOL     OW80934  11.781  13.638  14.753
26346SOL    HW180935  11.751  13.606  14.838
26346SOL    HW280936  11.851  13.700  14.773
26347SOL     OW80937  14.261   7.728   7.470
26347SOL    HW180938  14.276   7.794   7.402
26347SOL    HW280939  14.202   7.771   7.532
26348SOL     OW80940   9.237   3.405   1.669
26348SOL    HW180941   9.175   3.429   1.600
26348SOL    HW280942   9.309   3.468   1.660
26349SOL     OW80943   7.230  11.333   1.870
26349SOL    HW180944   7.321  11.309   1.887
26349SOL    HW280945   7.178  11.277   1.927
26350SOL     OW80946   5.399  11.013   5.439
26350SOL    HW180947   5.437  11.004   5.351
26350SOL    HW280948   5.443  11.090   5.476
26351SOL     OW80949  14.650  13.829   6.180
26351SOL    HW180950  14.677  13.778   6.104
26351SOL    HW280951  14.605  13.905   6.143
26352SOL     OW80952  13.985  10.538  12.225
26352SOL    HW180953  14.015  10.497  12.306
26352SOL    HW280954  14.063  10.547  12.172
26353SOL     OW80955  14.374   9.670   4.319
26353SOL    HW180956  14.465   9.646   4.332
26353SOL    HW280957  14.377   9.745   4.260
26354SOL     OW80958   9.481   9.432  14.033
26354SOL    HW180959   9.426   9.507  14.011
26354SOL    HW280960   9.474   9.375  13.957
26355SOL     OW80961  10.916   8.108   8.959
26355SOL    HW180962  10.954   8.030   8.917
26355SOL    HW280963  10.854   8.142   8.894
26356SOL     OW80964  10.632  10.700   3.894
26356SOL    HW180965  10.672  10.773   3.942
26356SOL    HW280966  10.671  10.704   3.807
26357SOL     OW80967   8.160   2.060  13.590
26357SOL    HW180968   8.204   1.984  13.629
26357SOL    HW280969   8.114   2.025  13.514
26358SOL     OW80970  14.128   3.506   0.550
26358SOL    HW180971  14.097   3.444   0.484
26358SOL    HW280972  14.147   3.586   0.501
26359SOL     OW80973   9.272   4.328   5.145
26359SOL    HW180974   9.215   4.282   5.206
26359SOL    HW280975   9.346   4.356   5.198
26360SOL     OW80976   8.691   7.897   3.627
26360SOL    HW180977   8.691   7.937   3.713
26360SOL    HW280978   8.783   7.879   3.608
26361SOL     OW80979   0.111   0.768  12.500
26361SOL    HW180980   0.102   0.699  12.435
26361SOL    HW280981   0.148   0.842  12.452
26362SOL     OW80982   3.062   7.978   7.133
26362SOL    HW180983   3.134   7.925   7.100
26362SOL    HW280984   3.065   8.058   7.081
26363SOL     OW80985   9.601   2.690   5.130
26363SOL    HW180986   9.566   2.775   5.155
26363SOL    HW280987   9.651   2.707   5.049
26364SOL     OW80988   9.016   6.289  10.844
26364SOL    HW180989   9.081   6.228  10.808
26364SOL    HW280990   8.932   6.250  10.819
26365SOL     OW80991  13.058   2.125   3.028
26365SOL    HW180992  13.152   2.110   3.036
26365SOL    HW280993  13.029   2.148   3.116
26366SOL     OW80994   7.506  12.046  12.472
26366SOL    HW180995   7.485  11.955  12.453
26366SOL    HW280996   7.451  12.068  12.547
26367SOL     OW80997  10.038  11.523   2.371
26367SOL    HW180998   9.946  11.505   2.394
26367SOL    HW280999  10.073  11.438   2.346
26368SOL     OW81000   0.627   8.645  10.054
26368SOL    HW181001   0.716   8.669  10.030
26368SOL    HW281002   0.586   8.728  10.079
26369SOL     OW81003   8.388   3.643   8.706
26369SOL    HW181004   8.427   3.614   8.789
26369SOL    HW281005   8.384   3.738   8.714
26370SOL     OW81006   1.923   4.980   4.956
26370SOL    HW181007   1.896   4.904   5.009
26370SOL    HW281008   1.864   4.979   4.881
26371SOL     OW81009  14.549  14.099  10.141
26371SOL    HW181010  14.644  14.104  10.151
26371SOL    HW281011  14.527  14.175  10.087
26372SOL     OW81012   5.364   0.726   7.546
26372SOL    HW181013   5.413   0.683   7.477
26372SOL    HW281014   5.333   0.655   7.602
26373SOL     OW81015  13.122  12.855  13.151
26373SOL    HW181016  13.137  12.934  13.099
26373SOL    HW281017  13.195  12.853  13.213
26374SOL     OW81018   8.088   4.941  13.717
26374SOL    HW181019   8.105   4.917  13.808
26374SOL    HW281020   8.139   4.879  13.666
26375SOL     OW81021   2.054   3.470   4.460
26375SOL    HW181022   2.072   3.454   4.553
26375SOL    HW281023   2.115   3.413   4.413
26376SOL     OW81024   4.815  10.178   8.848
26376SOL    HW181025   4.860  10.196   8.931
26376SOL    HW281026   4.762  10.256   8.831
26377SOL     OW81027   9.748   0.362  12.387
26377SOL    HW181028   9.720   0.289  12.332
26377SOL    HW281029   9.766   0.323  12.472
26378SOL     OW81030   3.467   6.128   4.502
26378SOL    HW181031   3.555   6.159   4.522
26378SOL    HW281032   3.422   6.126   4.586
26379SOL     OW81033   4.305   9.254   0.811
26379SOL    HW181034   4.233   9.304   0.850
26379SOL    HW281035   4.262   9.190   0.754
26380SOL     OW81036   3.771   2.336   3.372
26380SOL    HW181037   3.839   2.278   3.405
26380SOL    HW281038   3.792   2.346   3.279
26381SOL     OW81039   0.397   2.850   6.785
26381SOL    HW181040   0.395   2.780   6.720
26381SOL    HW281041   0.332   2.914   6.754
26382SOL     OW81042  13.061   0.531  13.262
26382SOL    HW181043  13.053   0.615  13.218
26382SOL    HW281044  12.974   0.491  13.252
26383SOL     OW81045   7.267   3.439  11.929
26383SOL    HW181046   7.356   3.414  11.903
26383SOL    HW281047   7.279   3.484  12.013
26384SOL     OW81048   0.320   5.855   8.720
26384SOL    HW181049   0.237   5.858   8.674
26384SOL    HW281050   0.361   5.939   8.701
26385SOL     OW81051   3.295   8.966   8.702
26385SOL    HW181052   3.287   9.061   8.706
26385SOL    HW281053   3.377   8.952   8.655
26386SOL     OW81054   1.742   3.966   2.209
26386SOL    HW181055   1.810   4.033   2.215
26386SOL    HW281056   1.693   3.989   2.130
26387SOL     OW81057   0.074   8.417   3.269
26387SOL    HW181058   0.114   8.501   3.294
26387SOL    HW281059   0.131   8.382   3.201
26388SOL     OW81060   9.392  11.754   2.695
26388SOL    HW181061   9.327  11.732   2.629
26388SOL    HW281062   9.341  11.771   2.774
26389SOL     OW81063   4.338  14.283  10.775
26389SOL    HW181064   4.310  14.230  10.851
26389SOL    HW281065   4.270  14.350  10.767
26390SOL     OW81066   8.539   7.780  14.255
26390SOL    HW181067   8.618   7.730  14.276
26390SOL    HW281068   8.570   7.869  14.241
26391SOL     OW81069   2.142   8.529   4.336
26391SOL    HW181070   2.208   8.469   4.372
26391SOL    HW281071   2.083   8.546   4.409
26392SOL     OW81072   9.707   1.261   2.946
26392SOL    HW181073   9.777   1.214   2.901
26392SOL    HW281074   9.645   1.284   2.877
26393SOL     OW81075  14.220   5.783  14.242
26393SOL    HW181076  14.231   5.849  14.311
26393SOL    HW281077  14.127   5.762  14.243
26394SOL     OW81078   6.551   2.863  11.046
26394SOL    HW181079   6.626   2.804  11.035
26394SOL    HW281080   6.557   2.892  11.137
26395SOL     OW81081   3.770   8.174   3.410
26395SOL    HW181082   3.825   8.138   3.341
26395SOL    HW281083   3.683   8.139   3.393
26396SOL     OW81084   3.865   2.022   2.091
26396SOL    HW181085   3.884   2.113   2.112
26396SOL    HW281086   3.780   2.024   2.046
26397SOL     OW81087   1.352   7.201   2.340
26397SOL    HW181088   1.447   7.197   2.347
26397SOL    HW281089   1.332   7.153   2.259
26398SOL     OW81090   5.591   5.829   3.603
26398SOL    HW181091   5.685   5.809   3.606
26398SOL    HW281092   5.561   5.814   3.692
26399SOL     OW81093   0.154  10.587   5.205
26399SOL    HW181094   0.159  10.629   5.291
26399SOL    HW281095   0.066  10.551   5.200
26400SOL     OW81096   0.100   8.178  10.838
26400SOL    HW181097   0.101   8.192  10.933
26400SOL    HW281098   0.116   8.084  10.828
26401SOL     OW81099  10.764   9.369  12.316
26401SOL    HW181100  10.787   9.285  12.277
26401SOL    HW281101  10.827   9.380  12.387
26402SOL     OW81102   2.861  10.058   7.688
26402SOL    HW181103   2.839  10.086   7.777
26402SOL    HW281104   2.955  10.039   7.691
26403SOL     OW81105   8.528  12.756  13.366
26403SOL    HW181106   8.559  12.827  13.310
26403SOL    HW281107   8.475  12.701  13.308
26404SOL     OW81108   2.968   8.678   9.188
26404SOL    HW181109   3.038   8.743   9.194
26404SOL    HW281110   2.904   8.717   9.129
26405SOL     OW81111   7.944   3.797   2.954
26405SOL    HW181112   7.924   3.886   2.984
26405SOL    HW281113   7.867   3.771   2.904
26406SOL     OW81114   1.971   3.609  14.065
26406SOL    HW181115   1.892   3.575  14.022
26406SOL    HW281116   2.038   3.607  13.996
26407SOL     OW81117   6.725   4.590   5.714
26407SOL    HW181118   6.660   4.660   5.721
26407SOL    HW281119   6.676   4.510   5.734
26408SOL     OW81120   5.965  10.936   9.200
26408SOL    HW181121   5.993  10.844   9.197
26408SOL    HW281122   6.041  10.983   9.234
26409SOL     OW81123   9.792   1.506   5.751
26409SOL    HW181124   9.855   1.438   5.726
26409SOL    HW281125   9.707   1.470   5.725
26410SOL     OW81126   0.146   1.921   2.922
26410SOL    HW181127   0.240   1.936   2.908
26410SOL    HW281128   0.125   1.974   2.999
26411SOL     OW81129   7.036   9.378  13.722
26411SOL    HW181130   7.121   9.396  13.764
26411SOL    HW281131   6.988   9.460  13.730
26412SOL     OW81132   7.984  10.513  13.185
26412SOL    HW181133   8.029  10.585  13.229
26412SOL    HW281134   7.896  10.547  13.168
26413SOL     OW81135   0.946   8.795   4.079
26413SOL    HW181136   0.981   8.756   4.159
26413SOL    HW281137   0.950   8.726   4.013
26414SOL     OW81138   3.240  11.694   2.667
26414SOL    HW181139   3.208  11.750   2.738
26414SOL    HW281140   3.311  11.644   2.707
26415SOL     OW81141   6.885   9.556   7.888
26415SOL    HW181142   6.920   9.611   7.957
26415SOL    HW281143   6.922   9.469   7.905
26416SOL     OW81144   5.467   8.059  10.258
26416SOL    HW181145   5.521   8.022  10.188
26416SOL    HW281146   5.505   8.146  10.275
26417SOL     OW81147   1.002   5.509   5.847
26417SOL    HW181148   0.974   5.449   5.778
26417SOL    HW281149   0.935   5.577   5.848
26418SOL     OW81150  14.654  14.084   9.088
26418SOL    HW181151  14.602  14.080   9.168
26418SOL    HW281152  14.650  13.996   9.051
26419SOL     OW81153   1.678  11.769  10.096
26419SOL    HW181154   1.636  11.853  10.079
26419SOL    HW281155   1.757  11.770  10.042
26420SOL     OW81156   6.446   3.709   6.445
26420SOL    HW181157   6.366   3.755   6.473
26420SOL    HW281158   6.511   3.778   6.435
26421SOL     OW81159   8.220  14.865   5.531
26421SOL    HW181160   8.220   0.077   5.485
26421SOL    HW281161   8.307  14.860   5.572
26422SOL     OW81162   0.463   3.215   0.473
26422SOL    HW181163   0.552   3.182   0.459
26422SOL    HW281164   0.416   3.140   0.510
26423SOL     OW81165   1.797  12.517   1.159
26423SOL    HW181166   1.865  12.466   1.115
26423SOL    HW281167   1.844  12.567   1.226
26424SOL     OW81168   0.309   8.161   3.606
26424SOL    HW181169   0.323   8.253   3.586
26424SOL    HW281170   0.393   8.130   3.639
26425SOL     OW81171  11.415   9.304  12.546
26425SOL    HW181172  11.395   9.239  12.613
26425SOL    HW281173  11.383   9.387  12.582
26426SOL     OW81174   0.799  13.844  13.260
26426SOL    HW181175   0.878  13.809  13.220
26426SOL    HW281176   0.828  13.879  13.345
26427SOL     OW81177   2.658   0.270   1.656
26427SOL    HW181178   2.585   0.282   1.595
26427SOL    HW281179   2.731   0.316   1.615
26428SOL     OW81180  14.808   0.701  11.339
26428SOL    HW181181  14.726   0.653  11.345
26428SOL    HW281182  14.815   0.748  11.422
26429SOL     OW81183   9.758   0.693  10.420
26429SOL    HW181184   9.673   0.693  10.463
26429SOL    HW281185   9.797   0.777  10.446
26430SOL     OW81186   1.795  13.913   5.959
26430SOL    HW181187   1.864  13.868   5.911
26430SOL    HW281188   1.838  13.990   5.996
26431SOL     OW81189   2.761   2.340   5.759
26431SOL    HW181190   2.692   2.400   5.730
26431SOL    HW281191   2.763   2.271   5.692
26432SOL     OW81192  14.242   8.508   1.236
26432SOL    HW181193  14.325   8.543   1.203
26432SOL    HW281194  14.250   8.515   1.331
26433SOL     OW81195   6.418   1.858  11.255
26433SOL    HW181196   6.378   1.775  11.229
26433SOL    HW281197   6.350   1.923  11.236
26434SOL     OW81198   7.594   4.432  14.195
26434SOL    HW181199   7.615   4.523  14.174
26434SOL    HW281200   7.498   4.431  14.203
26435SOL     OW81201  13.569   1.167  10.370
26435SOL    HW181202  13.556   1.075  10.393
26435SOL    HW281203  13.549   1.172  10.277
26436SOL     OW81204   8.154   1.082  13.650
26436SOL    HW181205   8.128   1.163  13.694
26436SOL    HW281206   8.123   1.013  13.708
26437SOL     OW81207   0.710   9.416   4.277
26437SOL    HW181208   0.668   9.330   4.274
26437SOL    HW281209   0.777   9.408   4.344
26438SOL     OW81210  13.165   3.197   2.027
26438SOL    HW181211  13.255   3.203   2.059
26438SOL    HW281212  13.175   3.172   1.935
26439SOL     OW81213  12.071   2.918   4.154
26439SOL    HW181214  12.130   2.885   4.086
26439SOL    HW281215  12.080   2.856   4.226
26440SOL     OW81216   4.238   8.908  14.561
26440SOL    HW181217   4.239   8.836  14.624
26440SOL    HW281218   4.289   8.978  14.602
26441SOL     OW81219   7.911   2.856  10.440
26441SOL    HW181220   7.960   2.788  10.393
26441SOL    HW281221   7.825   2.857  10.398
26442SOL     OW81222  14.303  11.144  14.089
26442SOL    HW181223  14.294  11.229  14.046
26442SOL    HW281224  14.389  11.148  14.132
26443SOL     OW81225   1.063   7.934   6.597
26443SOL    HW181226   1.129   7.984   6.550
26443SOL    HW281227   1.098   7.923   6.685
26444SOL     OW81228   8.806   0.425   6.675
26444SOL    HW181229   8.857   0.386   6.605
26444SOL    HW281230   8.867   0.483   6.720
26445SOL     OW81231   6.246   9.894   0.176
26445SOL    HW181232   6.162   9.872   0.215
26445SOL    HW281233   6.305   9.824   0.205
26446SOL     OW81234   1.277  11.060   5.208
26446SOL    HW181235   1.192  11.087   5.173
26446SOL    HW281236   1.278  11.095   5.298
26447SOL     OW81237   9.623  12.189  14.800
26447SOL    HW181238   9.641  12.275  14.763
26447SOL    HW281239   9.561  12.206  14.871
26448SOL     OW81240   1.688   8.575   9.732
26448SOL    HW181241   1.783   8.558   9.733
26448SOL    HW281242   1.679   8.652   9.675
26449SOL     OW81243  13.012   2.915   2.737
26449SOL    HW181244  13.043   3.004   2.751
26449SOL    HW281245  13.072   2.879   2.672
26450SOL     OW81246  10.405   5.426   1.548
26450SOL    HW181247  10.444   5.352   1.594
26450SOL    HW281248  10.348   5.386   1.482
26451SOL     OW81249  12.781  11.314  11.597
26451SOL    HW181250  12.807  11.393  11.551
26451SOL    HW281251  12.707  11.341  11.653
26452SOL     OW81252  12.749   9.881   5.646
26452SOL    HW181253  12.783   9.831   5.572
26452SOL    HW281254  12.737   9.969   5.612
26453SOL     OW81255   6.818  11.471   0.181
26453SOL    HW181256   6.758  11.546   0.177
26453SOL    HW281257   6.784  11.409   0.117
26454SOL     OW81258  12.540   1.572   2.864
26454SOL    HW181259  12.554   1.482   2.836
26454SOL    HW281260  12.452   1.572   2.903
26455SOL     OW81261  14.284  11.054   0.453
26455SOL    HW181262  14.379  11.052   0.441
26455SOL    HW281263  14.255  11.130   0.403
26456SOL     OW81264   0.055   2.687   9.740
26456SOL    HW181265   0.069   2.755   9.806
26456SOL    HW281266   0.126   2.701   9.676
26457SOL     OW81267   8.027  11.757   5.603
26457SOL    HW181268   7.950  11.798   5.642
26457SOL    HW281269   8.065  11.705   5.673
26458SOL     OW81270   2.246   6.291  11.536
26458SOL    HW181271   2.172   6.304  11.597
26458SOL    HW281272   2.308   6.360  11.559
26459SOL     OW81273   7.893   5.003   4.219
26459SOL    HW181274   7.856   5.082   4.180
26459SOL    HW281275   7.828   4.935   4.201
26460SOL     OW81276  14.823   2.283   6.750
26460SOL    HW181277  14.793   2.374   6.758
26460SOL    HW281278  14.770   2.247   6.679
26461SOL     OW81279   9.256  11.159  12.247
26461SOL    HW181280   9.212  11.221  12.189
26461SOL    HW281281   9.186  11.120  12.298
26462SOL     OW81282   7.484   5.606   3.927
26462SOL    HW181283   7.549   5.652   3.981
26462SOL    HW281284   7.403   5.655   3.941
26463SOL     OW81285   8.208   8.983   0.021
26463SOL    HW181286   8.150   8.976  14.817
26463SOL    HW281287   8.264   8.906   0.016
26464SOL     OW81288  12.793   5.787   7.376
26464SOL    HW181289  12.718   5.782   7.437
26464SOL    HW281290  12.847   5.858   7.411
26465SOL     OW81291   4.256   9.200   8.302
26465SOL    HW181292   4.306   9.253   8.365
26465SOL    HW281293   4.322   9.166   8.242
26466SOL     OW81294  11.498   2.796  12.318
26466SOL    HW181295  11.404   2.815  12.328
26466SOL    HW281296  11.540   2.882  12.316
26467SOL     OW81297  13.971   2.375   4.498
26467SOL    HW181298  13.922   2.444   4.544
26467SOL    HW281299  13.948   2.387   4.406
26468SOL     OW81300  13.921  10.692   6.781
26468SOL    HW181301  13.906  10.598   6.795
26468SOL    HW281302  13.997  10.712   6.834
26469SOL     OW81303  13.028   2.276   9.229
26469SOL    HW181304  12.995   2.358   9.191
26469SOL    HW281305  13.008   2.210   9.163
26470SOL     OW81306   3.264  14.006   1.671
26470SOL    HW181307   3.205  14.025   1.743
26470SOL    HW281308   3.226  14.051   1.596
26471SOL     OW81309   7.254   6.538   5.823
26471SOL    HW181310   7.163   6.565   5.827
26471SOL    HW281311   7.266   6.507   5.733
26472SOL     OW81312  10.472   7.208  10.147
26472SOL    HW181313  10.560   7.172  10.163
26472SOL    HW281314  10.484   7.268  10.073
26473SOL     OW81315  11.425  11.902  11.462
26473SOL    HW181316  11.419  11.807  11.462
26473SOL    HW281317  11.432  11.926  11.554
26474SOL     OW81318  12.942   8.253  13.613
26474SOL    HW181319  13.010   8.280  13.551
26474SOL    HW281320  12.956   8.159  13.624
26475SOL     OW81321   6.199   1.924  11.856
26475SOL    HW181322   6.220   1.968  11.773
26475SOL    HW281323   6.123   1.971  11.890
26476SOL     OW81324   0.152  11.773   7.839
26476SOL    HW181325   0.138  11.726   7.921
26476SOL    HW281326   0.136  11.707   7.771
26477SOL     OW81327   3.982   6.580  10.567
26477SOL    HW181328   3.948   6.669  10.568
26477SOL    HW281329   3.910   6.527  10.531
26478SOL     OW81330   9.437   6.797   6.054
26478SOL    HW181331   9.517   6.849   6.051
26478SOL    HW281332   9.373   6.853   6.099
26479SOL     OW81333   1.721   3.118   7.450
26479SOL    HW181334   1.802   3.161   7.476
26479SOL    HW281335   1.707   3.050   7.516
26480SOL     OW81336  13.030  10.530   9.800
26480SOL    HW181337  12.954  10.502   9.749
26480SOL    HW281338  13.103  10.525   9.739
26481SOL     OW81339   0.356  14.000  11.229
26481SOL    HW181340   0.303  14.041  11.159
26481SOL    HW281341   0.413  14.071  11.259
26482SOL     OW81342   1.668  11.838  13.076
26482SOL    HW181343   1.671  11.932  13.056
26482SOL    HW281344   1.581  11.826  13.115
26483SOL     OW81345  10.371   6.127   1.982
26483SOL    HW181346  10.435   6.165   2.042
26483SOL    HW281347  10.344   6.046   2.024
26484SOL     OW81348   3.688   4.365   8.622
26484SOL    HW181349   3.767   4.409   8.592
26484SOL    HW281350   3.679   4.391   8.714
26485SOL     OW81351   0.877   5.164   6.983
26485SOL    HW181352   0.880   5.247   6.937
26485SOL    HW281353   0.932   5.177   7.060
26486SOL     OW81354   1.592   5.159  12.195
26486SOL    HW181355   1.654   5.230  12.209
26486SOL    HW281356   1.638   5.080  12.221
26487SOL     OW81357   6.196  10.208  11.859
26487SOL    HW181358   6.230  10.295  11.840
26487SOL    HW281359   6.186  10.166  11.774
26488SOL     OW81360  10.351   0.419  12.724
26488SOL    HW181361  10.339   0.469  12.805
26488SOL    HW281362  10.419   0.466  12.676
26489SOL     OW81363  12.263  10.191  10.339
26489SOL    HW181364  12.181  10.210  10.384
26489SOL    HW281365  12.316  10.270  10.350
26490SOL     OW81366   6.979   3.044  10.544
26490SOL    HW181367   6.937   2.959  10.531
26490SOL    HW281368   7.033   3.033  10.621
26491SOL     OW81369   5.062   0.025   7.756
26491SOL    HW181370   5.005  14.821   7.743
26491SOL    HW281371   5.144  14.859   7.786
26492SOL     OW81372  12.470   1.410   1.536
26492SOL    HW181373  12.408   1.385   1.605
26492SOL    HW281374  12.553   1.424   1.582
26493SOL     OW81375  14.852   9.294   4.283
26493SOL    HW181376  14.835   9.217   4.230
26493SOL    HW281377   0.011   9.360   4.221
26494SOL     OW81378   4.748   8.693  13.601
26494SOL    HW181379   4.712   8.639  13.531
26494SOL    HW281380   4.745   8.638  13.679
26495SOL     OW81381   7.483  11.930   1.411
26495SOL    HW181382   7.560  11.943   1.466
26495SOL    HW281383   7.519  11.894   1.329
26496SOL     OW81384   3.160   6.823   7.630
26496SOL    HW181385   3.135   6.812   7.721
26496SOL    HW281386   3.086   6.786   7.581
26497SOL     OW81387   6.557   0.192   4.175
26497SOL    HW181388   6.635   0.147   4.142
26497SOL    HW281389   6.518   0.233   4.097
26498SOL     OW81390  11.046  14.442  11.528
26498SOL    HW181391  11.120  14.474  11.580
26498SOL    HW281392  11.019  14.519  11.478
26499SOL     OW81393  11.189   6.439   1.053
26499SOL    HW181394  11.213   6.356   1.013
26499SOL    HW281395  11.245   6.504   1.011
26500SOL     OW81396   2.774  10.541  11.944
26500SOL    HW181397   2.818  10.528  11.860
26500SOL    HW281398   2.739  10.455  11.966
26501SOL     OW81399  13.844   9.449   0.768
26501SOL    HW181400  13.915   9.425   0.709
26501SOL    HW281401  13.806   9.365   0.795
26502SOL     OW81402   7.507  10.415   8.105
26502SOL    HW181403   7.448  10.373   8.042
26502SOL    HW281404   7.578  10.352   8.117
26503SOL     OW81405   9.574   2.180   6.167
26503SOL    HW181406   9.634   2.245   6.131
26503SOL    HW281407   9.488   2.220   6.159
26504SOL     OW81408   1.970  13.013   9.984
26504SOL    HW181409   1.967  13.042   9.893
26504SOL    HW281410   1.897  13.060  10.026
26505SOL     OW81411  12.205   6.985  11.395
26505SOL    HW181412  12.195   6.932  11.315
26505SOL    HW281413  12.236   6.922  11.461
26506SOL     OW81414   0.264  10.986   0.085
26506SOL    HW181415   0.324  10.986   0.160
26506SOL    HW281416   0.319  11.011   0.011
26507SOL     OW81417   3.470  12.742  12.885
26507SOL    HW181418   3.506  12.748  12.797
26507SOL    HW281419   3.398  12.679  12.877
26508SOL     OW81420   0.746   7.919  11.490
26508SOL    HW181421   0.747   7.993  11.430
26508SOL    HW281422   0.781   7.954  11.572
26509SOL     OW81423   4.967   5.742   4.229
26509SOL    HW181424   4.965   5.715   4.320
26509SOL    HW281425   4.875   5.762   4.208
26510SOL     OW81426   6.966   4.510  13.175
26510SOL    HW181427   6.997   4.438  13.229
26510SOL    HW281428   6.996   4.489  13.086
26511SOL     OW81429   4.143   6.057   0.625
26511SOL    HW181430   4.233   6.028   0.640
26511SOL    HW281431   4.099   5.980   0.588
26512SOL     OW81432   5.586   2.107   5.509
26512SOL    HW181433   5.679   2.090   5.493
26512SOL    HW281434   5.556   2.155   5.432
26513SOL     OW81435  12.040  13.841   0.765
26513SOL    HW181436  12.093  13.771   0.726
26513SOL    HW281437  12.059  13.836   0.858
26514SOL     OW81438  10.903  13.906   8.933
26514SOL    HW181439  10.937  13.915   8.844
26514SOL    HW281440  10.819  13.860   8.921
26515SOL     OW81441  14.584   0.204   4.777
26515SOL    HW181442  14.571   0.198   4.682
26515SOL    HW281443  14.548   0.289   4.801
26516SOL     OW81444   4.385   2.944   3.321
26516SOL    HW181445   4.392   2.977   3.231
26516SOL    HW281446   4.476   2.937   3.350
26517SOL     OW81447   5.999   4.336   3.100
26517SOL    HW181448   5.967   4.270   3.039
26517SOL    HW281449   5.940   4.330   3.176
26518SOL     OW81450   0.278   5.277   0.378
26518SOL    HW181451   0.207   5.248   0.321
26518SOL    HW281452   0.300   5.200   0.430
26519SOL     OW81453   0.907   9.608   6.197
26519SOL    HW181454   0.892   9.699   6.226
26519SOL    HW281455   0.953   9.617   6.114
26520SOL     OW81456  14.060   9.191  10.356
26520SOL    HW181457  14.000   9.164  10.287
26520SOL    HW281458  14.142   9.209  10.311
26521SOL     OW81459  12.704  12.167   6.200
26521SOL    HW181460  12.736  12.115   6.126
26521SOL    HW281461  12.624  12.208   6.167
26522SOL     OW81462   9.379   2.037   1.931
26522SOL    HW181463   9.467   2.006   1.908
26522SOL    HW281464   9.339   2.059   1.847
26523SOL     OW81465  10.239   9.876   4.059
26523SOL    HW181466  10.223   9.958   4.014
26523SOL    HW281467  10.283   9.901   4.140
26524SOL     OW81468   5.332   1.960   4.559
26524SOL    HW181469   5.374   1.975   4.475
26524SOL    HW281470   5.385   1.892   4.600
26525SOL     OW81471   0.683  10.369   0.079
26525SOL    HW181472   0.637  10.300   0.031
26525SOL    HW281473   0.639  10.373   0.164
26526SOL     OW81474   8.337   2.579  14.580
26526SOL    HW181475   8.383   2.529  14.514
26526SOL    HW281476   8.375   2.550  14.663
26527SOL     OW81477   8.717   6.781   5.858
26527SOL    HW181478   8.702   6.858   5.913
26527SOL    HW281479   8.791   6.736   5.899
26528SOL     OW81480   0.942   1.110   2.139
26528SOL    HW181481   0.927   1.112   2.044
26528SOL    HW281482   1.029   1.148   2.149
26529SOL     OW81483   6.735   9.219  14.246
26529SOL    HW181484   6.744   9.141  14.191
26529SOL    HW281485   6.751   9.187  14.335
26530SOL     OW81486  11.689   7.070   8.956
26530SOL    HW181487  11.633   7.099   8.883
26530SOL    HW281488  11.697   7.148   9.011
26531SOL     OW81489   8.536  13.792   5.086
26531SOL    HW181490   8.610  13.816   5.031
26531SOL    HW281491   8.536  13.856   5.156
26532SOL     OW81492   2.441   6.764  12.629
26532SOL    HW181493   2.384   6.691  12.654
26532SOL    HW281494   2.401   6.841  12.669
26533SOL     OW81495  12.206   4.208   8.329
26533SOL    HW181496  12.171   4.144   8.392
26533SOL    HW281497  12.156   4.193   8.249
26534SOL     OW81498   9.671   5.403  10.830
26534SOL    HW181499   9.762   5.406  10.801
26534SOL    HW281500   9.667   5.327  10.889
26535SOL     OW81501   1.806  13.188   6.703
26535SOL    HW181502   1.766  13.164   6.787
26535SOL    HW281503   1.778  13.118   6.643
26536SOL     OW81504   7.449   8.878   4.418
26536SOL    HW181505   7.495   8.879   4.502
26536SOL    HW281506   7.443   8.970   4.393
26537SOL     OW81507   8.238   1.518  14.752
26537SOL    HW181508   8.324   1.496  14.716
26537SOL    HW281509   8.254   1.595  14.806
26538SOL     OW81510  13.343   6.304  12.883
26538SOL    HW181511  13.275   6.250  12.843
26538SOL    HW281512  13.311   6.322  12.972
26539SOL     OW81513   3.101   8.494  14.209
26539SOL    HW181514   3.130   8.506  14.118
26539SOL    HW281515   3.181   8.500  14.261
26540SOL     OW81516   5.195  13.448   5.497
26540SOL    HW181517   5.283  13.485   5.490
26540SOL    HW281518   5.153  13.469   5.413
26541SOL     OW81519   2.325   8.949   6.311
26541SOL    HW181520   2.300   8.872   6.261
26541SOL    HW281521   2.244   8.981   6.350
26542SOL     OW81522   6.215   6.750  13.979
26542SOL    HW181523   6.142   6.789  14.027
26542SOL    HW281524   6.177   6.673  13.936
26543SOL     OW81525   6.674   7.379   3.175
26543SOL    HW181526   6.723   7.450   3.134
26543SOL    HW281527   6.582   7.398   3.155
26544SOL     OW81528  12.701  12.971   6.550
26544SOL    HW181529  12.790  12.999   6.570
26544SOL    HW281530  12.649  12.998   6.626
26545SOL     OW81531   6.304  11.930   4.031
26545SOL    HW181532   6.209  11.933   4.037
26545SOL    HW281533   6.328  11.849   4.075
26546SOL     OW81534   9.442   4.615  10.300
26546SOL    HW181535   9.494   4.672  10.244
26546SOL    HW281536   9.441   4.660  10.385
26547SOL     OW81537  14.055  14.200  11.606
26547SOL    HW181538  14.004  14.281  11.594
26547SOL    HW281539  14.083  14.202  11.697
26548SOL     OW81540  13.954   3.318  10.866
26548SOL    HW181541  13.881   3.303  10.807
26548SOL    HW281542  13.924   3.285  10.951
26549SOL     OW81543   4.905   3.876   8.947
26549SOL    HW181544   4.916   3.785   8.921
26549SOL    HW281545   4.846   3.913   8.881
26550SOL     OW81546  13.675  10.966  11.235
26550SOL    HW181547  13.661  10.930  11.323
26550SOL    HW281548  13.723  10.898  11.189
26551SOL     OW81549   2.981   4.591  10.719
26551SOL    HW181550   3.060   4.558  10.675
26551SOL    HW281551   2.916   4.521  10.707
26552SOL     OW81552  10.447   1.963   9.859
26552SOL    HW181553  10.463   2.047   9.902
26552SOL    HW281554  10.500   1.900   9.908
26553SOL     OW81555   3.834  12.998  10.582
26553SOL    HW181556   3.744  13.026  10.593
26553SOL    HW281557   3.884  13.053  10.642
26554SOL     OW81558   2.551   0.446   7.887
26554SOL    HW181559   2.542   0.354   7.913
26554SOL    HW281560   2.547   0.444   7.791
26555SOL     OW81561   4.146   3.140  12.392
26555SOL    HW181562   4.227   3.191  12.387
26555SOL    HW281563   4.088   3.180  12.327
26556SOL     OW81564   9.450  12.190   8.883
26556SOL    HW181565   9.412  12.278   8.873
26556SOL    HW281566   9.521  12.201   8.946
26557SOL     OW81567  10.905   1.255   0.290
26557SOL    HW181568  10.877   1.332   0.240
26557SOL    HW281569  10.982   1.284   0.338
26558SOL     OW81570   4.687   8.633   5.730
26558SOL    HW181571   4.719   8.545   5.747
26558SOL    HW281572   4.703   8.647   5.636
26559SOL     OW81573   8.960   1.035  10.730
26559SOL    HW181574   9.036   1.068  10.777
26559SOL    HW281575   8.888   1.090  10.760
26560SOL     OW81576  13.903  13.432   5.808
26560SOL    HW181577  13.984  13.428   5.859
26560SOL    HW281578  13.864  13.345   5.817
26561SOL     OW81579   3.005  14.336   9.424
26561SOL    HW181580   2.981  14.428   9.429
26561SOL    HW281581   3.039  14.315   9.511
26562SOL     OW81582  14.745  10.708  12.724
26562SOL    HW181583  14.652  10.713  12.703
26562SOL    HW281584  14.768  10.616  12.709
26563SOL     OW81585   4.934   6.775  14.238
26563SOL    HW181586   4.839   6.774  14.231
26563SOL    HW281587   4.965   6.790  14.149
26564SOL     OW81588   6.547  11.274   7.662
26564SOL    HW181589   6.548  11.178   7.660
26564SOL    HW281590   6.483  11.298   7.596
26565SOL     OW81591   7.709   4.704   8.909
26565SOL    HW181592   7.720   4.721   8.815
26565SOL    HW281593   7.642   4.766   8.937
26566SOL     OW81594   1.788   4.691  12.340
26566SOL    HW181595   1.845   4.638  12.397
26566SOL    HW281596   1.801   4.654  12.253
26567SOL     OW81597   1.361   9.043  10.547
26567SOL    HW181598   1.311   9.048  10.465
26567SOL    HW281599   1.452   9.040  10.520
26568SOL     OW81600   1.296   2.843   5.291
26568SOL    HW181601   1.249   2.894   5.225
26568SOL    HW281602   1.381   2.886   5.300
26569SOL     OW81603   5.810  10.486   6.120
26569SOL    HW181604   5.812  10.535   6.037
26569SOL    HW281605   5.878  10.526   6.173
26570SOL     OW81606   4.129   0.645   4.516
26570SOL    HW181607   4.169   0.732   4.521
26570SOL    HW281608   4.047   0.659   4.468
26571SOL     OW81609   6.321   6.246   2.018
26571SOL    HW181610   6.316   6.335   1.984
26571SOL    HW281611   6.264   6.247   2.095
26572SOL     OW81612   9.794  14.030  10.324
26572SOL    HW181613   9.792  14.057  10.416
26572SOL    HW281614   9.862  14.084  10.285
26573SOL     OW81615  12.005   3.013  11.044
26573SOL    HW181616  12.063   2.947  11.084
26573SOL    HW281617  11.919   2.996  11.081
26574SOL     OW81618   0.341  10.070   9.868
26574SOL    HW181619   0.319   9.990   9.820
26574SOL    HW281620   0.256  10.106   9.895
26575SOL     OW81621   5.825   0.704  13.084
26575SOL    HW181622   5.802   0.794  13.061
26575SOL    HW281623   5.759   0.650  13.041
26576SOL     OW81624  11.959  10.865   0.601
26576SOL    HW181625  11.894  10.798   0.623
26576SOL    HW281626  11.944  10.936   0.664
26577SOL     OW81627  11.141   2.515  12.172
26577SOL    HW181628  11.095   2.444  12.126
26577SOL    HW281629  11.178   2.473  12.249
26578SOL     OW81630  13.652   2.720   1.158
26578SOL    HW181631  13.575   2.708   1.102
26578SOL    HW281632  13.645   2.652   1.224
26579SOL     OW81633   8.772  14.783   3.024
26579SOL    HW181634   8.788  14.768   3.117
26579SOL    HW281635   8.810  14.869   3.006
26580SOL     OW81636   9.754   7.819   3.031
26580SOL    HW181637   9.767   7.789   2.941
26580SOL    HW281638   9.763   7.741   3.084
26581SOL     OW81639  13.964   9.127   3.598
26581SOL    HW181640  14.016   9.186   3.544
26581SOL    HW281641  13.876   9.165   3.599
26582SOL     OW81642   7.867   7.836  10.373
26582SOL    HW181643   7.781   7.867  10.344
26582SOL    HW281644   7.868   7.853  10.467
26583SOL     OW81645  14.733  11.686  12.189
26583SOL    HW181646  14.655  11.709  12.139
26583SOL    HW281647  14.744  11.592  12.174
26584SOL     OW81648   0.523   8.570  10.667
26584SOL    HW181649   0.450   8.621  10.702
26584SOL    HW281650   0.514   8.577  10.572
26585SOL     OW81651   9.938   6.838   4.968
26585SOL    HW181652   9.853   6.872   4.940
26585SOL    HW281653  10.000   6.908   4.948
26586SOL     OW81654  13.892   3.767  10.249
26586SOL    HW181655  13.900   3.717  10.169
26586SOL    HW281656  13.827   3.720  10.301
26587SOL     OW81657   3.167   3.334   4.379
26587SOL    HW181658   3.153   3.242   4.401
26587SOL    HW281659   3.157   3.381   4.463
26588SOL     OW81660   8.458   0.435  10.493
26588SOL    HW181661   8.469   0.501  10.425
26588SOL    HW281662   8.479   0.352  10.450
26589SOL     OW81663   6.948   1.349  12.638
26589SOL    HW181664   6.856   1.328  12.652
26589SOL    HW281665   6.947   1.412  12.566
26590SOL     OW81666   3.452   7.415  12.312
26590SOL    HW181667   3.454   7.343  12.376
26590SOL    HW281668   3.505   7.384  12.239
26591SOL     OW81669   5.723   1.241   3.637
26591SOL    HW181670   5.719   1.230   3.542
26591SOL    HW281671   5.710   1.335   3.650
26592SOL     OW81672  12.153  11.313   2.685
26592SOL    HW181673  12.207  11.390   2.705
26592SOL    HW281674  12.065  11.349   2.672
26593SOL     OW81675  13.529   4.857  10.437
26593SOL    HW181676  13.486   4.776  10.465
26593SOL    HW281677  13.597   4.828  10.376
26594SOL     OW81678   6.097   6.935  14.156
26594SOL    HW181679   6.053   7.008  14.113
26594SOL    HW281680   6.059   6.933  14.244
26595SOL     OW81681  11.109   9.571   4.725
26595SOL    HW181682  11.121   9.661   4.695
26595SOL    HW281683  11.077   9.580   4.815
26596SOL     OW81684   4.291   6.131  12.268
26596SOL    HW181685   4.267   6.183  12.345
26596SOL    HW281686   4.236   6.167  12.198
26597SOL     OW81687  13.188   8.701  11.450
26597SOL    HW181688  13.208   8.665  11.536
26597SOL    HW281689  13.232   8.786  11.449
26598SOL     OW81690  11.569  13.135   0.174
26598SOL    HW181691  11.531  13.209   0.126
26598SOL    HW281692  11.659  13.163   0.193
26599SOL     OW81693   2.075   3.114   5.952
26599SOL    HW181694   2.046   3.024   5.945
26599SOL    HW281695   1.994   3.165   5.957
26600SOL     OW81696  13.431   7.631   3.782
26600SOL    HW181697  13.370   7.574   3.734
26600SOL    HW281698  13.489   7.666   3.716
26601SOL     OW81699   0.940   1.826   6.989
26601SOL    HW181700   1.006   1.877   7.037
26601SOL    HW281701   0.988   1.790   6.914
26602SOL     OW81702  13.305   0.198   3.385
26602SOL    HW181703  13.377   0.217   3.445
26602SOL    HW281704  13.235   0.257   3.412
26603SOL     OW81705  10.911  12.224   7.881
26603SOL    HW181706  11.000  12.240   7.849
26603SOL    HW281707  10.920  12.216   7.976
26604SOL     OW81708   3.748   8.752   2.501
26604SOL    HW181709   3.836   8.765   2.465
26604SOL    HW281710   3.758   8.681   2.564
26605SOL     OW81711   7.633   0.948   5.504
26605SOL    HW181712   7.723   0.915   5.506
26605SOL    HW281713   7.582   0.877   5.465
26606SOL     OW81714  14.177   9.998   9.077
26606SOL    HW181715  14.229  10.066   9.120
26606SOL    HW281716  14.091  10.038   9.062
26607SOL     OW81717   5.411   3.388   1.822
26607SOL    HW181718   5.463   3.378   1.742
26607SOL    HW281719   5.321   3.377   1.793
26608SOL     OW81720   0.549   6.721   3.436
26608SOL    HW181721   0.625   6.764   3.398
26608SOL    HW281722   0.486   6.714   3.364
26609SOL     OW81723  13.374  10.268   2.395
26609SOL    HW181724  13.415  10.353   2.377
26609SOL    HW281725  13.422  10.234   2.470
26610SOL     OW81726  13.560   1.136  14.426
26610SOL    HW181727  13.513   1.118  14.345
26610SOL    HW281728  13.537   1.226  14.448
26611SOL     OW81729  14.155   0.230  13.726
26611SOL    HW181730  14.250   0.241  13.722
26611SOL    HW281731  14.121   0.300  13.669
26612SOL     OW81732   7.682  12.388   0.657
26612SOL    HW181733   7.613  12.329   0.685
26612SOL    HW281734   7.657  12.415   0.569
26613SOL     OW81735   9.757   2.226   7.912
26613SOL    HW181736   9.722   2.208   7.825
26613SOL    HW281737   9.706   2.300   7.944
26614SOL     OW81738   5.963   5.984   6.360
26614SOL    HW181739   5.901   6.057   6.364
26614SOL    HW281740   5.932   5.931   6.287
26615SOL     OW81741   7.426   9.625   0.124
26615SOL    HW181742   7.384   9.677   0.055
26615SOL    HW281743   7.368   9.549   0.136
26616SOL     OW81744   4.004  11.791   0.965
26616SOL    HW181745   4.012  11.759   0.876
26616SOL    HW281746   3.953  11.872   0.957
26617SOL     OW81747   6.697   9.259   2.802
26617SOL    HW181748   6.646   9.269   2.722
26617SOL    HW281749   6.694   9.165   2.821
26618SOL     OW81750   6.638   9.980  11.213
26618SOL    HW181751   6.669  10.068  11.190
26618SOL    HW281752   6.545   9.993  11.233
26619SOL     OW81753   6.485   3.963   3.395
26619SOL    HW181754   6.502   3.974   3.302
26619SOL    HW281755   6.403   3.913   3.399
26620SOL     OW81756   5.331   8.938   2.296
26620SOL    HW181757   5.321   8.992   2.217
26620SOL    HW281758   5.242   8.919   2.324
26621SOL     OW81759   0.003   8.594   4.837
26621SOL    HW181760  14.826   8.667   4.800
26621SOL    HW281761   0.054   8.560   4.763
26622SOL     OW81762   1.154  12.724  11.719
26622SOL    HW181763   1.155  12.820  11.718
26622SOL    HW281764   1.168  12.699  11.628
26623SOL     OW81765   1.708   5.958   5.174
26623SOL    HW181766   1.664   5.916   5.101
26623SOL    HW281767   1.676   6.049   5.172
26624SOL     OW81768  11.031   8.897  14.378
26624SOL    HW181769  10.995   8.813  14.348
26624SOL    HW281770  11.078   8.931  14.302
26625SOL     OW81771   2.233  13.238   1.238
26625SOL    HW181772   2.145  13.212   1.209
26625SOL    HW281773   2.222  13.325   1.276
26626SOL     OW81774   9.463   3.526   1.990
26626SOL    HW181775   9.433   3.547   1.902
26626SOL    HW281776   9.484   3.433   1.987
26627SOL     OW81777  13.926  12.688  11.233
26627SOL    HW181778  13.872  12.764  11.212
26627SOL    HW281779  13.918  12.679  11.328
26628SOL     OW81780   8.195   2.681   4.522
26628SOL    HW181781   8.192   2.775   4.504
26628SOL    HW281782   8.146   2.670   4.603
26629SOL     OW81783   0.982   7.220   7.444
26629SOL    HW181784   0.991   7.315   7.455
26629SOL    HW281785   1.041   7.183   7.509
26630SOL     OW81786   5.176   3.958  10.485
26630SOL    HW181787   5.086   3.978  10.512
26630SOL    HW281788   5.166   3.920  10.398
26631SOL     OW81789   0.428   3.804  14.285
26631SOL    HW181790   0.378   3.793  14.204
26631SOL    HW281791   0.444   3.898  14.290
26632SOL     OW81792   9.956   3.603   3.698
26632SOL    HW181793   9.924   3.651   3.774
26632SOL    HW281794   9.878   3.560   3.661
26633SOL     OW81795   1.432   9.250   2.450
26633SOL    HW181796   1.416   9.170   2.401
26633SOL    HW281797   1.502   9.226   2.512
26634SOL     OW81798   1.520  11.117   9.133
26634SOL    HW181799   1.537  11.095   9.041
26634SOL    HW281800   1.458  11.189   9.129
26635SOL     OW81801  10.224   5.522  14.669
26635SOL    HW181802  10.300   5.530  14.611
26635SOL    HW281803  10.164   5.591  14.639
26636SOL     OW81804   3.984  12.560   2.626
26636SOL    HW181805   4.076  12.532   2.633
26636SOL    HW281806   3.936  12.498   2.682
26637SOL     OW81807   4.724   7.235  10.357
26637SOL    HW181808   4.748   7.252  10.448
26637SOL    HW281809   4.807   7.241  10.310
26638SOL     OW81810   1.516   9.430   2.206
26638SOL    HW181811   1.441   9.392   2.251
26638SOL    HW281812   1.481   9.506   2.160
26639SOL     OW81813   3.042   9.933   3.804
26639SOL    HW181814   3.097   9.895   3.873
26639SOL    HW281815   3.061  10.027   3.807
26640SOL     OW81816  12.030   2.930   5.523
26640SOL    HW181817  12.125   2.928   5.516
26640SOL    HW281818  12.010   3.015   5.561
26641SOL     OW81819   2.307   0.828  11.343
26641SOL    HW181820   2.364   0.761  11.381
26641SOL    HW281821   2.240   0.843  11.410
26642SOL     OW81822   9.372  13.221   2.874
26642SOL    HW181823   9.328  13.211   2.958
26642SOL    HW281824   9.456  13.261   2.897
26643SOL     OW81825   2.852   2.644   9.218
26643SOL    HW181826   2.766   2.685   9.215
26643SOL    HW281827   2.907   2.707   9.264
26644SOL     OW81828  13.609   2.154   3.174
26644SOL    HW181829  13.514   2.152   3.161
26644SOL    HW281830  13.636   2.063   3.164
26645SOL     OW81831   8.348   5.793   3.939
26645SOL    HW181832   8.419   5.847   3.974
26645SOL    HW281833   8.337   5.724   4.005
26646SOL     OW81834   3.055   6.081   5.313
26646SOL    HW181835   2.987   6.044   5.370
26646SOL    HW281836   3.038   6.040   5.228
26647SOL     OW81837   0.228  11.097  10.434
26647SOL    HW181838   0.307  11.124  10.480
26647SOL    HW281839   0.170  11.063  10.503
26648SOL     OW81840   8.526   5.477   2.104
26648SOL    HW181841   8.431   5.479   2.102
26648SOL    HW281842   8.553   5.521   2.023
26649SOL     OW81843   8.480   6.698  12.872
26649SOL    HW181844   8.447   6.740  12.792
26649SOL    HW281845   8.558   6.749  12.896
26650SOL     OW81846   0.336   9.981   4.106
26650SOL    HW181847   0.341  10.021   4.192
26650SOL    HW281848   0.425   9.953   4.086
26651SOL     OW81849   8.576   0.660   6.635
26651SOL    HW181850   8.550   0.678   6.545
26651SOL    HW281851   8.609   0.570   6.633
26652SOL     OW81852   7.948   5.145   2.464
26652SOL    HW181853   7.882   5.125   2.398
26652SOL    HW281854   8.023   5.179   2.414
26653SOL     OW81855  12.618   4.368   9.243
26653SOL    HW181856  12.531   4.374   9.205
26653SOL    HW281857  12.632   4.453   9.285
26654SOL     OW81858  14.145   5.999   3.054
26654SOL    HW181859  14.194   6.078   3.032
26654SOL    HW281860  14.195   5.957   3.123
26655SOL     OW81861   4.498  12.462   0.912
26655SOL    HW181862   4.487  12.373   0.877
26655SOL    HW281863   4.464  12.457   1.001
26656SOL     OW81864  11.407   3.234  12.295
26656SOL    HW181865  11.408   3.328  12.281
26656SOL    HW281866  11.399   3.223  12.390
26657SOL     OW81867   4.870  13.085   1.006
26657SOL    HW181868   4.963  13.066   1.020
26657SOL    HW281869   4.836  13.008   0.961
26658SOL     OW81870  12.156  11.200   4.845
26658SOL    HW181871  12.251  11.188   4.841
26658SOL    HW281872  12.128  11.202   4.753
26659SOL     OW81873   0.147  11.474  14.758
26659SOL    HW181874   0.175  11.557  14.795
26659SOL    HW281875   0.071  11.495  14.703
26660SOL     OW81876  14.837   8.090   0.394
26660SOL    HW181877  14.742   8.078   0.399
26660SOL    HW281878  14.869   8.063   0.480
26661SOL     OW81879   5.725   5.344  14.426
26661SOL    HW181880   5.782   5.419  14.410
26661SOL    HW281881   5.665   5.342  14.351
26662SOL     OW81882  13.658  14.647   1.286
26662SOL    HW181883  13.608  14.580   1.332
26662SOL    HW281884  13.601  14.675   1.215
26663SOL     OW81885   8.060   0.117   8.729
26663SOL    HW181886   8.017   0.133   8.645
26663SOL    HW281887   8.149   0.092   8.706
26664SOL     OW81888   7.062   9.328   3.481
26664SOL    HW181889   7.111   9.408   3.498
26664SOL    HW281890   7.129   9.260   3.470
26665SOL     OW81891   8.396   4.380  10.251
26665SOL    HW181892   8.401   4.285  10.237
26665SOL    HW281893   8.318   4.392  10.304
26666SOL     OW81894   4.293   7.018   2.769
26666SOL    HW181895   4.355   7.076   2.814
26666SOL    HW281896   4.301   6.935   2.815
26667SOL     OW81897   3.916   1.032  12.904
26667SOL    HW181898   3.854   0.960  12.895
26667SOL    HW281899   3.869   1.109  12.871
26668SOL     OW81900  12.990  13.278   0.173
26668SOL    HW181901  13.007  13.184   0.171
26668SOL    HW281902  12.914  13.287   0.231
26669SOL     OW81903   0.170   8.662   3.390
26669SOL    HW181904   0.105   8.702   3.448
26669SOL    HW281905   0.254   8.682   3.431
26670SOL     OW81906   1.488   8.499  11.242
26670SOL    HW181907   1.406   8.451  11.236
26670SOL    HW281908   1.543   8.462  11.173
26671SOL     OW81909  11.399   6.381   0.354
26671SOL    HW181910  11.455   6.445   0.311
26671SOL    HW281911  11.326   6.432   0.389
26672SOL     OW81912   8.950  12.527   8.362
26672SOL    HW181913   9.013  12.543   8.292
26672SOL    HW281914   8.957  12.605   8.418
26673SOL     OW81915   2.355   3.146  13.857
26673SOL    HW181916   2.411   3.081  13.815
26673SOL    HW281917   2.410   3.223  13.868
26674SOL     OW81918  12.278  14.343   9.158
26674SOL    HW181919  12.225  14.417   9.128
26674SOL    HW281920  12.329  14.378   9.231
26675SOL     OW81921   8.002   1.800  12.641
26675SOL    HW181922   8.057   1.861  12.592
26675SOL    HW281923   7.913   1.830  12.627
26676SOL     OW81924  12.260  12.074   0.761
26676SOL    HW181925  12.313  12.004   0.799
26676SOL    HW281926  12.269  12.147   0.822
26677SOL     OW81927  12.653  12.737   8.062
26677SOL    HW181928  12.628  12.757   8.152
26677SOL    HW281929  12.705  12.813   8.034
26678SOL     OW81930   5.598   0.705   3.165
26678SOL    HW181931   5.652   0.783   3.181
26678SOL    HW281932   5.653   0.649   3.110
26679SOL     OW81933  11.517  13.703   3.168
26679SOL    HW181934  11.518  13.648   3.246
26679SOL    HW281935  11.561  13.784   3.196
26680SOL     OW81936  10.637  14.738   3.532
26680SOL    HW181937  10.541  14.744   3.526
26680SOL    HW281938  10.667  14.766   3.445
26681SOL     OW81939   5.641   1.433  10.753
26681SOL    HW181940   5.673   1.469  10.836
26681SOL    HW281941   5.719   1.430  10.697
26682SOL     OW81942  12.091  11.140   7.436
26682SOL    HW181943  12.083  11.174   7.526
26682SOL    HW281944  12.024  11.072   7.431
26683SOL     OW81945  14.574  11.648   1.324
26683SOL    HW181946  14.570  11.554   1.308
26683SOL    HW281947  14.488  11.669   1.361
26684SOL     OW81948   7.022   9.160   8.420
26684SOL    HW181949   7.061   9.247   8.418
26684SOL    HW281950   6.928   9.175   8.434
26685SOL     OW81951   5.141   0.462   3.719
26685SOL    HW181952   5.205   0.446   3.650
26685SOL    HW281953   5.094   0.380   3.729
26686SOL     OW81954  14.366  14.236   5.314
26686SOL    HW181955  14.324  14.311   5.271
26686SOL    HW281956  14.434  14.208   5.252
26687SOL     OW81957   6.722   0.690  11.068
26687SOL    HW181958   6.761   0.610  11.033
26687SOL    HW281959   6.721   0.676  11.163
26688SOL     OW81960   1.717   0.714   4.803
26688SOL    HW181961   1.751   0.665   4.728
26688SOL    HW281962   1.659   0.780   4.764
26689SOL     OW81963  11.345  11.408   9.084
26689SOL    HW181964  11.301  11.434   9.003
26689SOL    HW281965  11.433  11.383   9.057
26690SOL     OW81966  11.497   2.999   7.886
26690SOL    HW181967  11.539   3.082   7.910
26690SOL    HW281968  11.569   2.943   7.858
26691SOL     OW81969  10.711  10.726   8.187
26691SOL    HW181970  10.753  10.755   8.268
26691SOL    HW281971  10.645  10.793   8.169
26692SOL     OW81972  14.674   1.158   4.432
26692SOL    HW181973  14.701   1.247   4.413
26692SOL    HW281974  14.579   1.158   4.420
26693SOL     OW81975   2.977  13.222   1.766
26693SOL    HW181976   2.885  13.230   1.740
26693SOL    HW281977   3.025  13.224   1.683
26694SOL     OW81978  12.049   1.325   3.528
26694SOL    HW181979  12.036   1.406   3.578
26694SOL    HW281980  12.117   1.348   3.465
26695SOL     OW81981  12.508  12.386   1.087
26695SOL    HW181982  12.498  12.403   0.994
26695SOL    HW281983  12.422  12.404   1.125
26696SOL     OW81984  14.781   9.013  10.447
26696SOL    HW181985  14.844   9.084  10.439
26696SOL    HW281986  14.775   8.975  10.360
26697SOL     OW81987   8.435   9.202   3.664
26697SOL    HW181988   8.529   9.181   3.666
26697SOL    HW281989   8.394   9.123   3.629
26698SOL     OW81990   7.077   4.834   1.660
26698SOL    HW181991   7.011   4.899   1.635
26698SOL    HW281992   7.124   4.815   1.578
26699SOL     OW81993   0.020   5.951   2.441
26699SOL    HW181994   0.082   5.951   2.368
26699SOL    HW281995   0.039   5.871   2.489
26700SOL     OW81996   5.603   2.975   9.564
26700SOL    HW181997   5.674   2.967   9.627
26700SOL    HW281998   5.552   2.894   9.575
26701SOL     OW81999   1.561   8.484   7.728
26701SOL    HW182000   1.631   8.426   7.759
26701SOL    HW282001   1.490   8.426   7.703
26702SOL     OW82002   2.103   5.188   6.901
26702SOL    HW182003   2.022   5.181   6.950
26702SOL    HW282004   2.159   5.119   6.936
26703SOL     OW82005   2.943   1.921  11.979
26703SOL    HW182006   2.954   1.861  12.054
26703SOL    HW282007   2.944   2.008  12.019
26704SOL     OW82008   3.345  11.841   6.948
26704SOL    HW182009   3.385  11.821   6.863
26704SOL    HW282010   3.384  11.777   7.008
26705SOL     OW82011  12.970  13.585   0.402
26705SOL    HW182012  12.890  13.606   0.452
26705SOL    HW282013  12.998  13.501   0.437
26706SOL     OW82014   3.219   5.717  13.939
26706SOL    HW182015   3.243   5.807  13.962
26706SOL    HW282016   3.267   5.662  14.001
26707SOL     OW82017   0.232  10.983   7.032
26707SOL    HW182018   0.303  10.928   7.065
26707SOL    HW282019   0.152  10.936   7.055
26708SOL     OW82020   3.668   9.291  13.351
26708SOL    HW182021   3.757   9.308  13.322
26708SOL    HW282022   3.675   9.218  13.412
26709SOL     OW82023   2.019   9.117   4.320
26709SOL    HW182024   2.002   9.048   4.384
26709SOL    HW282025   1.951   9.106   4.254
26710SOL     OW82026  12.793   1.917   2.674
26710SOL    HW182027  12.758   2.001   2.702
26710SOL    HW282028  12.724   1.878   2.621
26711SOL     OW82029  13.779  12.796   3.656
26711SOL    HW182030  13.701  12.818   3.707
26711SOL    HW282031  13.750  12.805   3.565
26712SOL     OW82032   5.513  10.115   2.903
26712SOL    HW182033   5.574  10.042   2.915
26712SOL    HW282034   5.550  10.164   2.829
26713SOL     OW82035  11.779   6.553  12.033
26713SOL    HW182036  11.814   6.542  11.945
26713SOL    HW282037  11.781   6.465  12.071
26714SOL     OW82038   9.481   3.482   8.385
26714SOL    HW182039   9.476   3.575   8.363
26714SOL    HW282040   9.569   3.456   8.359
26715SOL     OW82041  14.569   5.171  11.518
26715SOL    HW182042  14.508   5.097  11.518
26715SOL    HW282043  14.654   5.132  11.496
26716SOL     OW82044   6.929   3.760  10.700
26716SOL    HW182045   6.941   3.677  10.653
26716SOL    HW282046   6.903   3.823  10.632
26717SOL     OW82047   8.646   7.481  13.943
26717SOL    HW182048   8.737   7.474  13.916
26717SOL    HW282049   8.622   7.393  13.970
26718SOL     OW82050   6.904  12.954  14.234
26718SOL    HW182051   6.891  13.047  14.216
26718SOL    HW282052   6.946  12.952  14.320
26719SOL     OW82053   4.612  12.081  11.419
26719SOL    HW182054   4.519  12.068  11.436
26719SOL    HW282055   4.655  12.060  11.502
26720SOL     OW82056   4.289   8.561   5.475
26720SOL    HW182057   4.286   8.483   5.419
26720SOL    HW282058   4.359   8.614   5.437
26721SOL     OW82059  13.210   1.622  10.858
26721SOL    HW182060  13.278   1.561  10.886
26721SOL    HW282061  13.256   1.688  10.806
26722SOL     OW82062   1.205  14.759   7.260
26722SOL    HW182063   1.292  14.797   7.252
26722SOL    HW282064   1.221  14.668   7.287
26723SOL     OW82065   9.808  14.321   0.161
26723SOL    HW182066   9.754  14.264   0.215
26723SOL    HW282067   9.747  14.380   0.118
26724SOL     OW82068   3.306  14.700   5.655
26724SOL    HW182069   3.255  14.631   5.613
26724SOL    HW282070   3.395  14.689   5.620
26725SOL     OW82071   0.892   6.238  14.342
26725SOL    HW182072   0.851   6.306  14.395
26725SOL    HW282073   0.860   6.155  14.378
26726SOL     OW82074  12.080   6.835   3.422
26726SOL    HW182075  12.055   6.790   3.341
26726SOL    HW282076  12.053   6.776   3.492
26727SOL     OW82077  14.275  14.635   0.911
26727SOL    HW182078  14.336  14.607   0.843
26727SOL    HW282079  14.189  14.611   0.878
26728SOL     OW82080   0.229  11.489   4.623
26728SOL    HW182081   0.303  11.489   4.684
26728SOL    HW282082   0.217  11.397   4.601
26729SOL     OW82083   4.445  14.436  10.547
26729SOL    HW182084   4.415  14.385  10.623
26729SOL    HW282085   4.445  14.527  10.578
26730SOL     OW82086  12.611   2.565   6.308
26730SOL    HW182087  12.598   2.635   6.373
26730SOL    HW282088  12.523   2.549   6.273
26731SOL     OW82089   3.444   6.663   7.360
26731SOL    HW182090   3.506   6.690   7.427
26731SOL    HW282091   3.484   6.692   7.278
26732SOL     OW82092  13.223   2.041  12.504
26732SOL    HW182093  13.196   1.962  12.551
26732SOL    HW282094  13.196   2.113  12.561
26733SOL     OW82095   9.202  14.315   4.231
26733SOL    HW182096   9.278  14.303   4.175
26733SOL    HW282097   9.129  14.280   4.180
26734SOL     OW82098   1.128   4.886   5.641
26734SOL    HW182099   1.091   4.968   5.675
26734SOL    HW282100   1.164   4.909   5.556
26735SOL     OW82101   6.181   2.423   8.016
26735SOL    HW182102   6.089   2.418   8.041
26735SOL    HW282103   6.193   2.350   7.955
26736SOL     OW82104   6.359  13.293  12.876
26736SOL    HW182105   6.419  13.345  12.928
26736SOL    HW282106   6.330  13.223  12.935
26737SOL     OW82107   8.666   8.126  13.067
26737SOL    HW182108   8.686   8.161  13.153
26737SOL    HW282109   8.751   8.117  13.024
26738SOL     OW82110   1.861   1.824   0.664
26738SOL    HW182111   1.782   1.809   0.612
26738SOL    HW282112   1.870   1.919   0.668
26739SOL     OW82113  12.079  13.133   5.481
26739SOL    HW182114  12.098  13.069   5.550
26739SOL    HW282115  11.992  13.167   5.504
26740SOL     OW82116  11.039  12.782   5.413
26740SOL    HW182117  10.988  12.711   5.375
26740SOL    HW282118  11.054  12.842   5.339
26741SOL     OW82119   4.460   2.263  11.272
26741SOL    HW182120   4.448   2.302  11.185
26741SOL    HW282121   4.373   2.234  11.298
26742SOL     OW82122  14.137   9.088  11.777
26742SOL    HW182123  14.131   9.008  11.724
26742SOL    HW282124  14.231   9.099  11.792
26743SOL     OW82125  10.797  10.245  14.672
26743SOL    HW182126  10.714  10.198  14.664
26743SOL    HW282127  10.864  10.178  14.663
26744SOL     OW82128   1.783  13.908  13.947
26744SOL    HW182129   1.865  13.923  13.994
26744SOL    HW282130   1.777  13.981  13.886
26745SOL     OW82131   9.000   7.873   1.548
26745SOL    HW182132   9.058   7.810   1.592
26745SOL    HW282133   9.044   7.892   1.465
26746SOL     OW82134   6.958  10.860  10.326
26746SOL    HW182135   6.961  10.953  10.348
26746SOL    HW282136   6.894  10.855  10.254
26747SOL     OW82137   1.778  12.634   3.872
26747SOL    HW182138   1.755  12.573   3.942
26747SOL    HW282139   1.695  12.676   3.849
26748SOL     OW82140   6.186   9.256   2.226
26748SOL    HW182141   6.094   9.231   2.226
26748SOL    HW282142   6.233   9.176   2.202
26749SOL     OW82143  14.753   1.699   0.211
26749SOL    HW182144  14.840   1.680   0.246
26749SOL    HW282145  14.767   1.705   0.116
26750SOL     OW82146  11.430   7.072   8.778
26750SOL    HW182147  11.474   6.997   8.739
26750SOL    HW282148  11.426   7.137   8.707
26751SOL     OW82149   4.902  12.444   8.656
26751SOL    HW182150   4.939  12.424   8.742
26751SOL    HW282151   4.955  12.392   8.595
26752SOL     OW82152  12.527   6.507   8.197
26752SOL    HW182153  12.571   6.577   8.245
26752SOL    HW282154  12.562   6.512   8.109
26753SOL     OW82155   5.917   1.717  12.308
26753SOL    HW182156   5.898   1.714  12.402
26753SOL    HW282157   5.901   1.808  12.283
26754SOL     OW82158  10.047   1.183   9.233
26754SOL    HW182159  10.065   1.181   9.139
26754SOL    HW282160  10.132   1.202   9.273
26755SOL     OW82161   9.948  13.331   2.566
26755SOL    HW182162   9.990  13.405   2.521
26755SOL    HW282163   9.998  13.255   2.538
26756SOL     OW82164   4.815  12.319   6.054
26756SOL    HW182165   4.732  12.296   6.096
26756SOL    HW282166   4.790  12.379   5.984
26757SOL     OW82167  12.788  14.836   9.345
26757SOL    HW182168  12.876  14.841   9.383
26757SOL    HW282169  12.804  14.819   9.252
26758SOL     OW82170   7.758   2.446   6.265
26758SOL    HW182171   7.768   2.531   6.223
26758SOL    HW282172   7.826   2.391   6.226
26759SOL     OW82173  11.089  13.190   6.682
26759SOL    HW182174  11.063  13.152   6.598
26759SOL    HW282175  11.155  13.129   6.716
26760SOL     OW82176   4.388  10.977   0.008
26760SOL    HW182177   4.311  11.011  14.833
26760SOL    HW282178   4.372  10.883   0.015
26761SOL     OW82179  11.528  10.452  11.633
26761SOL    HW182180  11.475  10.423  11.559
26761SOL    HW282181  11.529  10.548  11.626
26762SOL     OW82182   5.793  11.739   9.799
26762SOL    HW182183   5.751  11.657   9.825
26762SOL    HW282184   5.761  11.756   9.711
26763SOL     OW82185   7.677   4.677   0.807
26763SOL    HW182186   7.695   4.759   0.761
26763SOL    HW282187   7.721   4.685   0.891
26764SOL     OW82188   7.544   2.209  11.206
26764SOL    HW182189   7.583   2.266  11.140
26764SOL    HW282190   7.607   2.138  11.216
26765SOL     OW82191   7.601   0.008  14.097
26765SOL    HW182192   7.620  14.786  14.105
26765SOL    HW282193   7.625   0.044  14.183
26766SOL     OW82194   1.681  11.068   9.509
26766SOL    HW182195   1.646  11.022   9.432
26766SOL    HW282196   1.649  11.017   9.583
26767SOL     OW82197   1.596   5.261   5.220
26767SOL    HW182198   1.686   5.232   5.205
26767SOL    HW282199   1.571   5.303   5.138
26768SOL     OW82200   9.617  13.469   5.827
26768SOL    HW182201   9.530  13.509   5.825
26768SOL    HW282202   9.603  13.379   5.800
26769SOL     OW82203   3.009  12.179   1.170
26769SOL    HW182204   3.094  12.136   1.160
26769SOL    HW282205   2.945  12.108   1.164
26770SOL     OW82206  11.626   1.353   1.104
26770SOL    HW182207  11.613   1.445   1.128
26770SOL    HW282208  11.672   1.315   1.179
26771SOL     OW82209   5.914  13.874   2.607
26771SOL    HW182210   5.900  13.799   2.549
26771SOL    HW282211   5.827  13.908   2.625
26772SOL     OW82212   8.279   2.476   9.551
26772SOL    HW182213   8.280   2.494   9.457
26772SOL    HW282214   8.325   2.550   9.590
26773SOL     OW82215   6.170  12.842   3.669
26773SOL    HW182216   6.206  12.913   3.721
26773SOL    HW282217   6.196  12.863   3.579
26774SOL     OW82218   2.188   2.029  10.877
26774SOL    HW182219   2.263   1.984  10.916
26774SOL    HW282220   2.190   2.116  10.915
26775SOL     OW82221   3.001   7.414   1.348
26775SOL    HW182222   3.001   7.502   1.385
26775SOL    HW282223   3.055   7.420   1.270
26776SOL     OW82224   0.255   0.606   0.599
26776SOL    HW182225   0.261   0.646   0.686
26776SOL    HW282226   0.274   0.678   0.538
26777SOL     OW82227  12.107  14.116   8.400
26777SOL    HW182228  12.078  14.207   8.410
26777SOL    HW282229  12.109  14.101   8.306
26778SOL     OW82230   7.187  13.006  13.203
26778SOL    HW182231   7.282  13.010  13.191
26778SOL    HW282232   7.170  12.913  13.222
26779SOL     OW82233   5.363  10.682   8.336
26779SOL    HW182234   5.279  10.713   8.370
26779SOL    HW282235   5.353  10.689   8.241
26780SOL     OW82236   0.427  13.550  12.602
26780SOL    HW182237   0.355  13.503  12.645
26780SOL    HW282238   0.384  13.613  12.545
26781SOL     OW82239   1.679  11.999   8.707
26781SOL    HW182240   1.584  11.986   8.708
26781SOL    HW282241   1.692  12.079   8.759
26782SOL     OW82242   5.929   7.312   8.598
26782SOL    HW182243   5.978   7.383   8.556
26782SOL    HW282244   5.978   7.233   8.575
26783SOL     OW82245  10.136  11.816   1.695
26783SOL    HW182246  10.108  11.907   1.697
26783SOL    HW282247  10.123  11.785   1.784
26784SOL     OW82248   7.074   5.181   9.781
26784SOL    HW182249   7.061   5.157   9.873
26784SOL    HW282250   7.126   5.261   9.784
26785SOL     OW82251   7.542  13.231   9.962
26785SOL    HW182252   7.555  13.168  10.033
26785SOL    HW282253   7.631  13.247   9.928
26786SOL     OW82254   7.606   9.833   0.158
26786SOL    HW182255   7.694   9.798   0.168
26786SOL    HW282256   7.549   9.756   0.154
26787SOL     OW82257  10.328   8.403   2.451
26787SOL    HW182258  10.314   8.352   2.530
26787SOL    HW282259  10.268   8.477   2.459
26788SOL     OW82260   6.231  13.254   3.024
26788SOL    HW182261   6.156  13.227   3.077
26788SOL    HW282262   6.305  13.206   3.061
26789SOL     OW82263   4.849  12.157   2.928
26789SOL    HW182264   4.767  12.137   2.883
26789SOL    HW282265   4.840  12.248   2.955
26790SOL     OW82266   3.307   6.354   3.038
26790SOL    HW182267   3.393   6.344   2.996
26790SOL    HW282268   3.289   6.448   3.032
26791SOL     OW82269   6.094  14.434   9.844
26791SOL    HW182270   6.103  14.510   9.785
26791SOL    HW282271   6.137  14.362   9.797
26792SOL     OW82272  13.911  13.963   1.656
26792SOL    HW182273  13.955  14.015   1.589
26792SOL    HW282274  13.951  13.989   1.738
26793SOL     OW82275   2.907  14.464   7.075
26793SOL    HW182276   2.868  14.496   6.993
26793SOL    HW282277   3.001  14.477   7.062
26794SOL     OW82278   7.849  13.209   1.776
26794SOL    HW182279   7.883  13.216   1.687
26794SOL    HW282280   7.841  13.300   1.806
26795SOL     OW82281   3.987  14.810  11.524
26795SOL    HW182282   4.055  14.762  11.570
26795SOL    HW282283   3.947  14.746  11.465
26796SOL     OW82284   8.183   1.304  10.234
26796SOL    HW182285   8.106   1.265  10.193
26796SOL    HW282286   8.193   1.257  10.317
26797SOL     OW82287   2.385   8.887   6.693
26797SOL    HW182288   2.326   8.947   6.647
26797SOL    HW282289   2.358   8.892   6.784
26798SOL     OW82290   2.512  13.674   2.133
26798SOL    HW182291   2.538  13.709   2.048
26798SOL    HW282292   2.589  13.684   2.188
26799SOL     OW82293   1.341  10.068   1.059
26799SOL    HW182294   1.403  10.137   1.083
26799SOL    HW282295   1.342  10.008   1.134
26800SOL     OW82296   8.073   8.268  10.756
26800SOL    HW182297   7.989   8.262  10.801
26800SOL    HW282298   8.137   8.236  10.820
26801SOL     OW82299  13.711   4.870  10.024
26801SOL    HW182300  13.693   4.963  10.041
26801SOL    HW282301  13.763   4.842  10.099
26802SOL     OW82302   2.367   4.476   5.404
26802SOL    HW182303   2.410   4.400   5.443
26802SOL    HW282304   2.352   4.535   5.478
26803SOL     OW82305   0.455   2.641   9.772
26803SOL    HW182306   0.391   2.571   9.758
26803SOL    HW282307   0.519   2.603   9.832
26804SOL     OW82308   2.545  12.901   0.620
26804SOL    HW182309   2.567  12.964   0.689
26804SOL    HW282310   2.556  12.816   0.661
26805SOL     OW82311   1.178  10.618   8.759
26805SOL    HW182312   1.272  10.604   8.754
26805SOL    HW282313   1.152  10.573   8.840
26806SOL     OW82314  14.065  12.216   2.554
26806SOL    HW182315  14.157  12.194   2.569
26806SOL    HW282316  14.031  12.235   2.642
26807SOL     OW82317   9.376  12.881   4.975
26807SOL    HW182318   9.425  12.945   5.027
26807SOL    HW282319   9.377  12.801   5.028
26808SOL     OW82320  10.605   9.116  10.089
26808SOL    HW182321  10.680   9.057  10.086
26808SOL    HW282322  10.628   9.181  10.155
26809SOL     OW82323   7.811  13.287   9.871
26809SOL    HW182324   7.856  13.368   9.894
26809SOL    HW282325   7.880  13.232   9.833
26810SOL     OW82326   3.355   6.411   0.463
26810SOL    HW182327   3.281   6.450   0.509
26810SOL    HW282328   3.409   6.486   0.436
26811SOL     OW82329   9.152   0.579  14.261
26811SOL    HW182330   9.210   0.652  14.280
26811SOL    HW282331   9.079   0.617  14.212
26812SOL     OW82332   1.829  13.860  14.332
26812SOL    HW182333   1.769  13.925  14.297
26812SOL    HW282334   1.884  13.909  14.394
26813SOL     OW82335   5.686  11.946   2.139
26813SOL    HW182336   5.620  11.980   2.079
26813SOL    HW282337   5.655  11.969   2.226
26814SOL     OW82338   6.068   3.529  13.405
26814SOL    HW182339   6.031   3.443  13.389
26814SOL    HW282340   6.144   3.534  13.347
26815SOL     OW82341   8.538   5.324  13.890
26815SOL    HW182342   8.593   5.401  13.874
26815SOL    HW282343   8.492   5.310  13.807
26816SOL     OW82344  10.695   5.400  14.010
26816SOL    HW182345  10.743   5.481  14.028
26816SOL    HW282346  10.657   5.412  13.924
26817SOL     OW82347   9.042  12.695  10.593
26817SOL    HW182348   8.993  12.716  10.672
26817SOL    HW282349   9.035  12.600  10.585
26818SOL     OW82350   5.954   9.431   8.655
26818SOL    HW182351   6.047   9.413   8.640
26818SOL    HW282352   5.909   9.378   8.589
26819SOL     OW82353   2.694   3.072   9.758
26819SOL    HW182354   2.650   3.148   9.795
26819SOL    HW282355   2.764   3.108   9.704
26820SOL     OW82356   0.817   5.329   1.646
26820SOL    HW182357   0.794   5.293   1.560
26820SOL    HW282358   0.863   5.257   1.690
26821SOL     OW82359   8.041  13.958   4.555
26821SOL    HW182360   8.090  13.998   4.483
26821SOL    HW282361   8.040  14.025   4.623
26822SOL     OW82362   9.860   9.382   1.772
26822SOL    HW182363   9.872   9.290   1.794
26822SOL    HW282364   9.944   9.408   1.733
26823SOL     OW82365   8.046   1.705  11.341
26823SOL    HW182366   8.029   1.675  11.252
26823SOL    HW282367   8.067   1.798  11.331
26824SOL     OW82368  13.911  13.903  13.252
26824SOL    HW182369  13.927  13.969  13.185
26824SOL    HW282370  13.839  13.851  13.217
26825SOL     OW82371   5.373   8.870  12.636
26825SOL    HW182372   5.395   8.942  12.695
26825SOL    HW282373   5.386   8.905  12.548
26826SOL     OW82374  14.199  12.405   6.599
26826SOL    HW182375  14.288  12.386   6.629
26826SOL    HW282376  14.142  12.373   6.668
26827SOL     OW82377   6.372  10.115   6.522
26827SOL    HW182378   6.420  10.086   6.599
26827SOL    HW282379   6.428  10.091   6.448
26828SOL     OW82380  12.527  12.558   9.339
26828SOL    HW182381  12.517  12.478   9.286
26828SOL    HW282382  12.507  12.629   9.279
26829SOL     OW82383   5.432   8.739   0.610
26829SOL    HW182384   5.495   8.810   0.601
26829SOL    HW282385   5.353   8.780   0.647
26830SOL     OW82386   7.776  14.338   6.314
26830SOL    HW182387   7.761  14.429   6.287
26830SOL    HW282388   7.852  14.310   6.263
26831SOL     OW82389  11.372   4.206  13.451
26831SOL    HW182390  11.446   4.206  13.391
26831SOL    HW282391  11.410   4.192  13.537
26832SOL     OW82392   5.458   7.171   6.531
26832SOL    HW182393   5.455   7.263   6.556
26832SOL    HW282394   5.512   7.169   6.453
26833SOL     OW82395  10.487   6.448   2.131
26833SOL    HW182396  10.514   6.362   2.162
26833SOL    HW282397  10.546   6.467   2.058
26834SOL     OW82398   5.176   2.022   9.856
26834SOL    HW182399   5.090   2.063   9.864
26834SOL    HW282400   5.203   2.006   9.946
26835SOL     OW82401   2.427   8.267   1.073
26835SOL    HW182402   2.452   8.224   0.991
26835SOL    HW282403   2.495   8.241   1.136
26836SOL     OW82404   9.883   7.917   6.287
26836SOL    HW182405   9.838   7.862   6.351
26836SOL    HW282406   9.975   7.912   6.312
26837SOL     OW82407  13.028  13.695   5.092
26837SOL    HW182408  13.022  13.791   5.087
26837SOL    HW282409  13.060  13.669   5.006
26838SOL     OW82410  13.378   6.019   3.652
26838SOL    HW182411  13.304   6.075   3.673
26838SOL    HW282412  13.373   6.007   3.557
26839SOL     OW82413   2.329  13.904   4.726
26839SOL    HW182414   2.313  13.933   4.815
26839SOL    HW282415   2.393  13.965   4.691
26840SOL     OW82416   8.918   1.637   1.683
26840SOL    HW182417   8.827   1.614   1.702
26840SOL    HW282418   8.912   1.723   1.641
26841SOL     OW82419   0.165  13.797   4.270
26841SOL    HW182420   0.141  13.799   4.178
26841SOL    HW282421   0.224  13.722   4.278
26842SOL     OW82422   2.265  12.092   3.350
26842SOL    HW182423   2.240  12.021   3.410
26842SOL    HW282424   2.269  12.170   3.405
26843SOL     OW82425   9.137   7.438   8.491
26843SOL    HW182426   9.077   7.444   8.566
26843SOL    HW282427   9.216   7.397   8.526
26844SOL     OW82428   6.468  12.845   7.053
26844SOL    HW182429   6.503  12.904   7.121
26844SOL    HW282430   6.515  12.763   7.066
26845SOL     OW82431  12.550   6.957   1.063
26845SOL    HW182432  12.569   7.044   1.027
26845SOL    HW282433  12.491   6.975   1.136
26846SOL     OW82434   7.949  11.082  10.628
26846SOL    HW182435   8.026  11.035  10.660
26846SOL    HW282436   7.875  11.027  10.652
26847SOL     OW82437   8.436  11.948  13.903
26847SOL    HW182438   8.518  11.904  13.882
26847SOL    HW282439   8.446  12.036  13.866
26848SOL     OW82440   6.633   3.905   8.603
26848SOL    HW182441   6.705   3.920   8.542
26848SOL    HW282442   6.618   3.810   8.599
26849SOL     OW82443  14.389   7.998   9.998
26849SOL    HW182444  14.350   7.911  10.002
26849SOL    HW282445  14.327   8.055  10.043
26850SOL     OW82446  13.422  13.756   5.900
26850SOL    HW182447  13.403  13.848   5.916
26850SOL    HW282448  13.468  13.755   5.816
26851SOL     OW82449   7.860   5.930   3.220
26851SOL    HW182450   7.789   5.975   3.174
26851SOL    HW282451   7.849   5.955   3.312
26852SOL     OW82452   5.770  11.952   7.314
26852SOL    HW182453   5.728  11.873   7.347
26852SOL    HW282454   5.796  12.000   7.392
26853SOL     OW82455   6.368   1.124   5.227
26853SOL    HW182456   6.351   1.053   5.288
26853SOL    HW282457   6.341   1.203   5.275
26854SOL     OW82458   3.459  13.158   9.720
26854SOL    HW182459   3.508  13.076   9.720
26854SOL    HW282460   3.376  13.136   9.677
26855SOL     OW82461   4.063   4.298   5.514
26855SOL    HW182462   4.049   4.283   5.421
26855SOL    HW282463   4.150   4.336   5.520
26856SOL     OW82464   2.766  11.563   3.648
26856SOL    HW182465   2.710  11.488   3.626
26856SOL    HW282466   2.800  11.593   3.563
26857SOL     OW82467   3.629   7.899  12.866
26857SOL    HW182468   3.595   7.815  12.836
26857SOL    HW282469   3.684   7.877  12.941
26858SOL     OW82470   1.936  13.405   0.974
26858SOL    HW182471   1.975  13.319   0.958
26858SOL    HW282472   1.948  13.420   1.067
26859SOL     OW82473   2.946  13.614   1.674
26859SOL    HW182474   2.998  13.548   1.628
26859SOL    HW282475   2.997  13.635   1.752
26860SOL     OW82476   6.892   8.398   0.849
26860SOL    HW182477   6.808   8.398   0.896
26860SOL    HW282478   6.957   8.416   0.916
26861SOL     OW82479   8.430   7.720  12.560
26861SOL    HW182480   8.477   7.721  12.476
26861SOL    HW282481   8.451   7.805  12.600
26862SOL     OW82482   9.849  12.784   4.562
26862SOL    HW182483   9.895  12.817   4.640
26862SOL    HW282484   9.785  12.722   4.597
26863SOL     OW82485  12.743   8.823   4.161
26863SOL    HW182486  12.664   8.857   4.118
26863SOL    HW282487  12.789   8.775   4.093
26864SOL     OW82488  10.028   7.692   7.634
26864SOL    HW182489  10.024   7.734   7.720
26864SOL    HW282490  10.085   7.750   7.582
26865SOL     OW82491   3.178   1.058   2.696
26865SOL    HW182492   3.241   1.087   2.630
26865SOL    HW282493   3.232   1.033   2.771
26866SOL     OW82494   7.395   4.393   2.814
26866SOL    HW182495   7.363   4.473   2.856
26866SOL    HW282496   7.485   4.413   2.790
26867SOL     OW82497   0.604   8.429  13.337
26867SOL    HW182498   0.593   8.523  13.326
26867SOL    HW282499   0.686   8.409  13.292
26868SOL     OW82500   0.147  12.277   8.726
26868SOL    HW182501   0.180  12.335   8.794
26868SOL    HW282502   0.137  12.192   8.769
26869SOL     OW82503  13.068   4.662   1.743
26869SOL    HW182504  13.111   4.734   1.789
26869SOL    HW282505  13.026   4.703   1.667
26870SOL     OW82506   2.913   1.863   4.069
26870SOL    HW182507   2.930   1.836   3.979
26870SOL    HW282508   2.969   1.940   4.082
26871SOL     OW82509   2.394  11.002  11.328
26871SOL    HW182510   2.318  11.030  11.380
26871SOL    HW282511   2.418  10.917  11.365
26872SOL     OW82512   4.730   1.421   3.779
26872SOL    HW182513   4.719   1.445   3.687
26872SOL    HW282514   4.753   1.328   3.776
26873SOL     OW82515   5.192   4.710   4.124
26873SOL    HW182516   5.270   4.763   4.109
26873SOL    HW282517   5.171   4.725   4.216
26874SOL     OW82518  13.912   2.688   0.219
26874SOL    HW182519  13.884   2.775   0.248
26874SOL    HW282520  13.857   2.669   0.143
26875SOL     OW82521  14.121   5.530  12.063
26875SOL    HW182522  14.105   5.458  12.124
26875SOL    HW282523  14.125   5.608  12.118
26876SOL     OW82524   2.681   3.773   6.458
26876SOL    HW182525   2.762   3.778   6.509
26876SOL    HW282526   2.682   3.686   6.419
26877SOL     OW82527   2.909   2.702  13.240
26877SOL    HW182528   2.959   2.742  13.169
26877SOL    HW282529   2.960   2.720  13.319
26878SOL     OW82530   3.508  14.407   5.247
26878SOL    HW182531   3.471  14.391   5.334
26878SOL    HW282532   3.485  14.498   5.228
26879SOL     OW82533   1.946   8.349   0.737
26879SOL    HW182534   1.887   8.387   0.672
26879SOL    HW282535   2.011   8.416   0.754
26880SOL     OW82536  11.103   0.928   9.124
26880SOL    HW182537  11.007   0.925   9.133
26880SOL    HW282538  11.118   1.000   9.062
26881SOL     OW82539   7.764  11.442   6.502
26881SOL    HW182540   7.840  11.410   6.453
26881SOL    HW282541   7.689  11.424   6.445
26882SOL     OW82542   1.389   2.980   0.478
26882SOL    HW182543   1.333   3.057   0.473
26882SOL    HW282544   1.329   2.906   0.469
26883SOL     OW82545  13.493   5.822   0.367
26883SOL    HW182546  13.578   5.787   0.342
26883SOL    HW282547  13.459   5.758   0.430
26884SOL     OW82548   9.915   5.968  10.740
26884SOL    HW182549   9.841   5.955  10.680
26884SOL    HW282550   9.961   6.044  10.704
26885SOL     OW82551   4.938   4.874   6.560
26885SOL    HW182552   4.890   4.840   6.485
26885SOL    HW282553   4.995   4.802   6.587
26886SOL     OW82554   2.251   4.493   4.472
26886SOL    HW182555   2.325   4.485   4.411
26886SOL    HW282556   2.212   4.578   4.452
26887SOL     OW82557  11.466  14.332   0.334
26887SOL    HW182558  11.467  14.377   0.249
26887SOL    HW282559  11.471  14.402   0.398
26888SOL     OW82560  10.304   2.529  11.443
26888SOL    HW182561  10.366   2.517  11.514
26888SOL    HW282562  10.242   2.595  11.475
26889SOL     OW82563  10.682   9.553   6.606
26889SOL    HW182564  10.602   9.601   6.584
26889SOL    HW282565  10.737   9.617   6.651
26890SOL     OW82566   9.410   7.412  12.092
26890SOL    HW182567   9.503   7.428  12.077
26890SOL    HW282568   9.367   7.492  12.062
26891SOL     OW82569  13.280   3.395   1.395
26891SOL    HW182570  13.195   3.361   1.425
26891SOL    HW282571  13.296   3.472   1.450
26892SOL     OW82572  13.322  10.778   5.881
26892SOL    HW182573  13.373  10.708   5.840
26892SOL    HW282574  13.357  10.859   5.842
26893SOL     OW82575  12.864  11.624  10.694
26893SOL    HW182576  12.793  11.671  10.738
26893SOL    HW282577  12.929  11.609  10.763
26894SOL     OW82578   6.338  12.254   3.478
26894SOL    HW182579   6.307  12.320   3.540
26894SOL    HW282580   6.358  12.303   3.398
26895SOL     OW82581  13.325  13.805   6.536
26895SOL    HW182582  13.334  13.884   6.483
26895SOL    HW282583  13.232  13.802   6.559
26896SOL     OW82584   8.652  12.865   9.287
26896SOL    HW182585   8.614  12.911   9.362
26896SOL    HW282586   8.583  12.868   9.220
26897SOL     OW82587  10.874   4.915   4.659
26897SOL    HW182588  10.885   4.820   4.666
26897SOL    HW282589  10.832   4.929   4.574
26898SOL     OW82590   4.829  13.637   8.222
26898SOL    HW182591   4.736  13.646   8.241
26898SOL    HW282592   4.836  13.656   8.128
26899SOL     OW82593   6.984  14.637   7.750
26899SOL    HW182594   7.035  14.559   7.730
26899SOL    HW282595   7.008  14.660   7.840
26900SOL     OW82596  11.261   5.322  12.793
26900SOL    HW182597  11.352   5.327  12.766
26900SOL    HW282598  11.259   5.358  12.881
26901SOL     OW82599   3.753   8.741   5.653
26901SOL    HW182600   3.691   8.692   5.707
26901SOL    HW282601   3.836   8.734   5.700
26902SOL     OW82602   6.301   3.112   9.111
26902SOL    HW182603   6.219   3.108   9.061
26902SOL    HW282604   6.344   3.029   9.091
26903SOL     OW82605  11.131   9.571   6.588
26903SOL    HW182606  11.152   9.650   6.539
26903SOL    HW282607  11.182   9.577   6.668
26904SOL     OW82608   7.300   7.245   8.746
26904SOL    HW182609   7.217   7.215   8.783
26904SOL    HW282610   7.313   7.332   8.784
26905SOL     OW82611  12.939  10.337   6.061
26905SOL    HW182612  12.897  10.285   6.129
26905SOL    HW282613  13.014  10.377   6.104
26906SOL     OW82614   4.112   1.540   7.512
26906SOL    HW182615   4.147   1.459   7.475
26906SOL    HW282616   4.026   1.517   7.546
26907SOL     OW82617   7.566  12.276  10.988
26907SOL    HW182618   7.548  12.198  10.935
26907SOL    HW282619   7.660  12.271  11.007
26908SOL     OW82620   6.370   5.835   8.209
26908SOL    HW182621   6.289   5.784   8.217
26908SOL    HW282622   6.365   5.898   8.281
26909SOL     OW82623   9.118   5.196   2.370
26909SOL    HW182624   9.160   5.229   2.449
26909SOL    HW282625   9.190   5.183   2.308
26910SOL     OW82626   1.813  14.283   7.633
26910SOL    HW182627   1.726  14.245   7.625
26910SOL    HW282628   1.856  14.265   7.549
26911SOL     OW82629  12.666   3.702   7.668
26911SOL    HW182630  12.701   3.764   7.732
26911SOL    HW282631  12.699   3.733   7.584
26912SOL     OW82632   1.616   5.621   4.035
26912SOL    HW182633   1.637   5.645   4.125
26912SOL    HW282634   1.654   5.534   4.024
26913SOL     OW82635  11.530  10.515  10.292
26913SOL    HW182636  11.613  10.509  10.339
26913SOL    HW282637  11.511  10.609  10.287
26914SOL     OW82638   1.503  11.372   4.741
26914SOL    HW182639   1.431  11.413   4.789
26914SOL    HW282640   1.576  11.433   4.752
26915SOL     OW82641  12.769   5.507   3.343
26915SOL    HW182642  12.724   5.549   3.417
26915SOL    HW282643  12.802   5.580   3.290
26916SOL     OW82644   4.860   9.864   5.481
26916SOL    HW182645   4.788   9.861   5.545
26916SOL    HW282646   4.915   9.790   5.504
26917SOL     OW82647  10.530   6.854  13.994
26917SOL    HW182648  10.460   6.915  14.017
26917SOL    HW282649  10.508   6.825  13.905
26918SOL     OW82650   0.120   1.789   8.673
26918SOL    HW182651   0.051   1.763   8.734
26918SOL    HW282652   0.157   1.870   8.711
26919SOL     OW82653   1.101   1.718   3.726
26919SOL    HW182654   1.048   1.735   3.648
26919SOL    HW282655   1.189   1.699   3.692
26920SOL     OW82656   4.848   4.129   7.734
26920SOL    HW182657   4.884   4.214   7.756
26920SOL    HW282658   4.868   4.074   7.810
26921SOL     OW82659  10.118   9.471   0.065
26921SOL    HW182660  10.056   9.535   0.030
26921SOL    HW282661  10.063   9.406   0.109
26922SOL     OW82662   2.315   2.815  13.040
26922SOL    HW182663   2.220   2.811  13.050
26922SOL    HW282664   2.328   2.853  12.953
26923SOL     OW82665   4.877   7.631  14.371
26923SOL    HW182666   4.944   7.593  14.314
26923SOL    HW282667   4.869   7.569  14.443
26924SOL     OW82668   9.826   3.981  11.395
26924SOL    HW182669   9.919   3.993  11.376
26924SOL    HW282670   9.824   3.947  11.484
26925SOL     OW82671   4.234  11.431   2.526
26925SOL    HW182672   4.302  11.498   2.528
26925SOL    HW282673   4.270  11.362   2.470
26926SOL     OW82674   0.670  13.524  13.486
26926SOL    HW182675   0.694  13.440  13.446
26926SOL    HW282676   0.748  13.550  13.535
26927SOL     OW82677   5.365  12.087   4.984
26927SOL    HW182678   5.306  12.055   5.052
26927SOL    HW282679   5.311  12.146   4.931
26928SOL     OW82680   2.331   2.683  13.924
26928SOL    HW182681   2.306   2.633  14.001
26928SOL    HW282682   2.264   2.662  13.859
26929SOL     OW82683  10.052   7.713   0.406
26929SOL    HW182684   9.974   7.691   0.355
26929SOL    HW282685  10.036   7.803   0.436
26930SOL     OW82686  11.387   6.088   2.518
26930SOL    HW182687  11.361   6.038   2.595
26930SOL    HW282688  11.362   6.033   2.444
26931SOL     OW82689   5.783   3.211  12.177
26931SOL    HW182690   5.726   3.149  12.223
26931SOL    HW282691   5.812   3.163  12.099
26932SOL     OW82692   4.019   6.007   4.397
26932SOL    HW182693   3.949   5.943   4.407
26932SOL    HW282694   4.049   5.996   4.306
26933SOL     OW82695   5.922  14.703  10.270
26933SOL    HW182696   5.958  14.700  10.181
26933SOL    HW282697   5.829  14.717  10.258
26934SOL     OW82698  14.030   8.961   8.256
26934SOL    HW182699  14.018   9.022   8.183
26934SOL    HW282700  14.125   8.948   8.261
26935SOL     OW82701   2.571  10.922  13.567
26935SOL    HW182702   2.603  10.942  13.655
26935SOL    HW282703   2.542  11.007  13.533
26936SOL     OW82704  13.411  12.495  10.534
26936SOL    HW182705  13.380  12.504  10.444
26936SOL    HW282706  13.344  12.539  10.587
26937SOL     OW82707   1.099  12.572   6.866
26937SOL    HW182708   1.016  12.583   6.819
26937SOL    HW282709   1.088  12.622   6.946
26938SOL     OW82710   5.957   0.789   5.864
26938SOL    HW182711   5.892   0.782   5.795
26938SOL    HW282712   6.003   0.871   5.846
26939SOL     OW82713  11.265   4.896   6.643
26939SOL    HW182714  11.323   4.862   6.712
26939SOL    HW282715  11.198   4.829   6.632
26940SOL     OW82716   5.710   5.405  13.860
26940SOL    HW182717   5.768   5.455  13.917
26940SOL    HW282718   5.664   5.471  13.808
26941SOL     OW82719   7.862   9.738   0.152
26941SOL    HW182720   7.951   9.757   0.179
26941SOL    HW282721   7.858   9.643   0.143
26942SOL     OW82722   2.171   6.097  10.163
26942SOL    HW182723   2.174   6.077  10.070
26942SOL    HW282724   2.083   6.069  10.191
26943SOL     OW82725  13.708   2.746   5.162
26943SOL    HW182726  13.675   2.695   5.236
26943SOL    HW282727  13.674   2.834   5.176
26944SOL     OW82728  10.542   2.073   4.340
26944SOL    HW182729  10.521   2.010   4.271
26944SOL    HW282730  10.469   2.065   4.403
26945SOL     OW82731   6.012   2.104   3.298
26945SOL    HW182732   6.033   2.089   3.206
26945SOL    HW282733   6.034   2.022   3.341
26946SOL     OW82734  11.867   7.153   7.008
26946SOL    HW182735  11.780   7.143   6.970
26946SOL    HW282736  11.925   7.165   6.932
26947SOL     OW82737   6.274   3.241  14.352
26947SOL    HW182738   6.235   3.156  14.334
26947SOL    HW282739   6.274   3.248  14.448
26948SOL     OW82740  11.437  11.836   2.024
26948SOL    HW182741  11.352  11.871   1.997
26948SOL    HW282742  11.428  11.821   2.118
26949SOL     OW82743  13.794   2.128  13.095
26949SOL    HW182744  13.760   2.209  13.056
26949SOL    HW282745  13.806   2.069  13.021
26950SOL     OW82746   4.774   4.686   7.057
26950SOL    HW182747   4.750   4.709   6.967
26950SOL    HW282748   4.720   4.744   7.112
26951SOL     OW82749   2.084   7.351   3.442
26951SOL    HW182750   2.143   7.280   3.417
26951SOL    HW282751   2.142   7.424   3.463
26952SOL     OW82752  12.739  12.146   7.906
26952SOL    HW182753  12.740  12.109   7.995
26952SOL    HW282754  12.735  12.070   7.848
26953SOL     OW82755  12.818   9.511  12.207
26953SOL    HW182756  12.829   9.514  12.112
26953SOL    HW282757  12.870   9.585  12.240
26954SOL     OW82758  13.189  14.372   9.749
26954SOL    HW182759  13.149  14.319   9.817
26954SOL    HW282760  13.283  14.367   9.766
26955SOL     OW82761   0.907   7.880   8.737
26955SOL    HW182762   0.956   7.798   8.739
26955SOL    HW282763   0.848   7.870   8.662
26956SOL     OW82764   7.876   3.054   3.418
26956SOL    HW182765   7.868   3.043   3.323
26956SOL    HW282766   7.918   2.974   3.448
26957SOL     OW82767  11.714   3.086   4.118
26957SOL    HW182768  11.662   3.074   4.198
26957SOL    HW282769  11.781   3.150   4.143
26958SOL     OW82770   3.175   0.967   7.779
26958SOL    HW182771   3.118   0.994   7.850
26958SOL    HW282772   3.117   0.961   7.703
26959SOL     OW82773   4.699   2.867   5.833
26959SOL    HW182774   4.701   2.938   5.897
26959SOL    HW282775   4.749   2.797   5.873
26960SOL     OW82776   2.092   8.937  11.822
26960SOL    HW182777   2.098   8.918  11.728
26960SOL    HW282778   2.143   8.868  11.864
26961SOL     OW82779   9.187   5.496   0.554
26961SOL    HW182780   9.254   5.549   0.510
26961SOL    HW282781   9.152   5.553   0.622
26962SOL     OW82782   0.111  10.199   4.635
26962SOL    HW182783   0.048  10.260   4.673
26962SOL    HW282784   0.179  10.190   4.701
26963SOL     OW82785  13.172  10.098   5.016
26963SOL    HW182786  13.097  10.039   5.022
26963SOL    HW282787  13.189  10.125   5.106
26964SOL     OW82788  14.523   4.057  11.336
26964SOL    HW182789  14.574   4.117  11.392
26964SOL    HW282790  14.470   4.006  11.397
26965SOL     OW82791  13.632   4.316   4.617
26965SOL    HW182792  13.686   4.304   4.695
26965SOL    HW282793  13.660   4.248   4.556
26966SOL     OW82794   7.798   8.020  12.457
26966SOL    HW182795   7.837   8.003  12.543
26966SOL    HW282796   7.838   8.102  12.428
26967SOL     OW82797   5.540  13.166   9.021
26967SOL    HW182798   5.569  13.142   8.933
26967SOL    HW282799   5.450  13.196   9.010
26968SOL     OW82800  13.928  10.974  13.297
26968SOL    HW182801  13.973  11.056  13.277
26968SOL    HW282802  13.845  11.001  13.335
26969SOL     OW82803   3.523   1.584   1.438
26969SOL    HW182804   3.501   1.501   1.397
26969SOL    HW282805   3.513   1.649   1.368
26970SOL     OW82806   2.244   5.644   1.304
26970SOL    HW182807   2.158   5.659   1.267
26970SOL    HW282808   2.290   5.727   1.295
26971SOL     OW82809  12.707   4.838   2.211
26971SOL    HW182810  12.769   4.909   2.199
26971SOL    HW282811  12.710   4.789   2.129
26972SOL     OW82812   7.907   9.535  10.489
26972SOL    HW182813   7.844   9.472  10.524
26972SOL    HW282814   7.867   9.621  10.502
26973SOL     OW82815   6.434   7.799   3.689
26973SOL    HW182816   6.427   7.793   3.784
26973SOL    HW282817   6.346   7.777   3.657
26974SOL     OW82818   0.397   5.663  11.342
26974SOL    HW182819   0.412   5.752  11.374
26974SOL    HW282820   0.338   5.674  11.268
26975SOL     OW82821  11.401   9.342   2.367
26975SOL    HW182822  11.344   9.315   2.440
26975SOL    HW282823  11.399   9.438   2.369
26976SOL     OW82824  10.248  12.324   7.269
26976SOL    HW182825  10.254  12.340   7.363
26976SOL    HW282826  10.254  12.229   7.261
26977SOL     OW82827   9.668  12.771   0.966
26977SOL    HW182828   9.739  12.831   0.944
26977SOL    HW282829   9.694  12.733   1.050
26978SOL     OW82830   1.750  10.239  12.648
26978SOL    HW182831   1.664  10.266  12.681
26978SOL    HW282832   1.732  10.204  12.561
26979SOL     OW82833  14.707   8.794   3.296
26979SOL    HW182834  14.796   8.828   3.286
26979SOL    HW282835  14.692   8.740   3.219
26980SOL     OW82836   7.348   1.905  12.881
26980SOL    HW182837   7.325   1.944  12.965
26980SOL    HW282838   7.429   1.857  12.898
26981SOL     OW82839   1.040  12.087  12.389
26981SOL    HW182840   1.058  12.032  12.313
26981SOL    HW282841   1.111  12.069  12.450
26982SOL     OW82842   4.102   3.147  13.414
26982SOL    HW182843   4.078   3.239  13.401
26982SOL    HW282844   4.197   3.146  13.408
26983SOL     OW82845  12.989   9.232  10.299
26983SOL    HW182846  12.962   9.244  10.390
26983SOL    HW282847  12.923   9.175  10.261
26984SOL     OW82848  14.571   4.544   7.759
26984SOL    HW182849  14.589   4.555   7.853
26984SOL    HW282850  14.526   4.625   7.734
26985SOL     OW82851   5.839  13.381  10.897
26985SOL    HW182852   5.844  13.310  10.961
26985SOL    HW282853   5.767  13.436  10.927
26986SOL     OW82854   4.653  14.579   8.135
26986SOL    HW182855   4.561  14.559   8.117
26986SOL    HW282856   4.658  14.584   8.231
26987SOL     OW82857   3.203  13.569  12.192
26987SOL    HW182858   3.195  13.585  12.286
26987SOL    HW282859   3.230  13.477  12.186
26988SOL     OW82860   5.043   5.820  11.425
26988SOL    HW182861   5.054   5.725  11.427
26988SOL    HW282862   5.101   5.853  11.494
26989SOL     OW82863   5.201  11.735  13.944
26989SOL    HW182864   5.248  11.806  13.900
26989SOL    HW282865   5.163  11.777  14.021
26990SOL     OW82866   4.707   0.947   5.269
26990SOL    HW182867   4.632   0.936   5.327
26990SOL    HW282868   4.766   0.875   5.292
26991SOL     OW82869   5.341   0.090   1.747
26991SOL    HW182870   5.383   0.150   1.809
26991SOL    HW282871   5.324   0.144   1.670
26992SOL     OW82872   9.345   9.307  11.856
26992SOL    HW182873   9.318   9.398  11.870
26992SOL    HW282874   9.437   9.305  11.880
26993SOL     OW82875   2.056   7.007   0.201
26993SOL    HW182876   2.134   6.998   0.147
26993SOL    HW282877   1.985   6.972   0.148
26994SOL     OW82878  12.648  11.158   3.686
26994SOL    HW182879  12.727  11.137   3.637
26994SOL    HW282880  12.661  11.117   3.771
26995SOL     OW82881   7.208   5.070   0.421
26995SOL    HW182882   7.289   5.058   0.471
26995SOL    HW282883   7.238   5.087   0.332
26996SOL     OW82884   5.940  13.739  12.308
26996SOL    HW182885   5.926  13.799  12.234
26996SOL    HW282886   5.880  13.770  12.376
26997SOL     OW82887  14.513   5.958  13.801
26997SOL    HW182888  14.523   5.873  13.845
26997SOL    HW282889  14.581   6.012  13.840
26998SOL     OW82890   8.374   7.731  10.245
26998SOL    HW182891   8.427   7.806  10.220
26998SOL    HW282892   8.300   7.768  10.294
26999SOL     OW82893   8.168   1.988  12.516
26999SOL    HW182894   8.143   2.031  12.434
26999SOL    HW282895   8.255   1.954  12.500
27000SOL     OW82896   5.996   6.197   1.643
27000SOL    HW182897   5.988   6.250   1.722
27000SOL    HW282898   6.060   6.244   1.589
27001SOL     OW82899  11.573  14.026   2.676
27001SOL    HW182900  11.489  13.988   2.702
27001SOL    HW282901  11.618  13.954   2.631
27002SOL     OW82902  12.761   1.616   6.874
27002SOL    HW182903  12.802   1.661   6.800
27002SOL    HW282904  12.832   1.563   6.911
27003SOL     OW82905  12.795  10.991  13.358
27003SOL    HW182906  12.868  11.042  13.322
27003SOL    HW282907  12.824  10.900  13.351
27004SOL     OW82908  13.805   1.155  12.885
27004SOL    HW182909  13.852   1.158  12.969
27004SOL    HW282910  13.833   1.234  12.839
27005SOL     OW82911   2.465   1.274   8.540
27005SOL    HW182912   2.537   1.320   8.583
27005SOL    HW282913   2.405   1.343   8.513
27006SOL     OW82914   7.100   7.178  11.533
27006SOL    HW182915   7.038   7.165  11.605
27006SOL    HW282916   7.112   7.091  11.496
27007SOL     OW82917   3.336  12.638   0.987
27007SOL    HW182918   3.429  12.652   1.007
27007SOL    HW282919   3.326  12.672   0.898
27008SOL     OW82920   8.901   0.834  10.953
27008SOL    HW182921   8.838   0.888  11.001
27008SOL    HW282922   8.934   0.891  10.884
27009SOL     OW82923  11.188  13.606  14.052
27009SOL    HW182924  11.103  13.588  14.011
27009SOL    HW282925  11.181  13.566  14.139
27010SOL     OW82926  13.666   0.726  12.895
27010SOL    HW182927  13.650   0.632  12.885
27010SOL    HW282928  13.761   0.734  12.891
27011SOL     OW82929   8.629   1.636   2.828
27011SOL    HW182930   8.624   1.730   2.847
27011SOL    HW282931   8.618   1.594   2.913
27012SOL     OW82932   5.227   6.462  12.583
27012SOL    HW182933   5.258   6.511  12.507
27012SOL    HW282934   5.250   6.517  12.659
27013SOL     OW82935   4.575  10.915  11.282
27013SOL    HW182936   4.519  10.992  11.270
27013SOL    HW282937   4.582  10.876  11.195
27014SOL     OW82938  14.146   6.459   1.955
27014SOL    HW182939  14.225   6.412   1.983
27014SOL    HW282940  14.180   6.527   1.896
27015SOL     OW82941   3.721   1.658  12.921
27015SOL    HW182942   3.783   1.722  12.886
27015SOL    HW282943   3.665   1.708  12.980
27016SOL     OW82944   5.919  13.022  12.575
27016SOL    HW182945   5.931  13.039  12.481
27016SOL    HW282946   5.876  13.101  12.608
27017SOL     OW82947   6.796   1.030   1.638
27017SOL    HW182948   6.852   1.100   1.605
27017SOL    HW282949   6.711   1.071   1.651
27018SOL     OW82950  14.850  11.788  13.344
27018SOL    HW182951   0.023  11.708  13.317
27018SOL    HW282952   0.008  11.854  13.282
27019SOL     OW82953   3.571   3.150   5.780
27019SOL    HW182954   3.580   3.240   5.748
27019SOL    HW282955   3.645   3.104   5.741
27020SOL     OW82956   1.217   9.234  14.606
27020SOL    HW182957   1.123   9.241  14.620
27020SOL    HW282958   1.226   9.192  14.521
27021SOL     OW82959   4.343  11.145   3.397
27021SOL    HW182960   4.321  11.167   3.307
27021SOL    HW282961   4.436  11.168   3.405
27022SOL     OW82962   6.800   1.282  11.893
27022SOL    HW182963   6.796   1.303  11.986
27022SOL    HW282964   6.716   1.240  11.874
27023SOL     OW82965  14.417  11.043   6.396
27023SOL    HW182966  14.499  11.082   6.365
27023SOL    HW282967  14.419  10.954   6.361
27024SOL     OW82968   4.660   8.938   2.822
27024SOL    HW182969   4.753   8.954   2.840
27024SOL    HW282970   4.659   8.852   2.779
27025SOL     OW82971  11.786   5.441   9.150
27025SOL    HW182972  11.842   5.471   9.222
27025SOL    HW282973  11.831   5.471   9.071
27026SOL     OW82974   1.406   5.465   2.700
27026SOL    HW182975   1.351   5.539   2.676
27026SOL    HW282976   1.465   5.454   2.625
27027SOL     OW82977   5.317  14.371   2.036
27027SOL    HW182978   5.282  14.306   2.098
27027SOL    HW282979   5.404  14.339   2.014
27028SOL     OW82980   8.220  10.917   7.238
27028SOL    HW182981   8.243  10.986   7.300
27028SOL    HW282982   8.304  10.891   7.199
27029SOL     OW82983   2.682   2.081   4.966
27029SOL    HW182984   2.764   2.105   5.009
27029SOL    HW282985   2.704   2.080   4.873
27030SOL     OW82986   2.094  10.125  12.580
27030SOL    HW182987   2.063  10.190  12.643
27030SOL    HW282988   2.179  10.158  12.551
27031SOL     OW82989   4.389   8.400  13.978
27031SOL    HW182990   4.346   8.472  14.024
27031SOL    HW282991   4.433   8.350  14.046
27032SOL     OW82992   3.604   7.322  14.003
27032SOL    HW182993   3.544   7.262  13.959
27032SOL    HW282994   3.609   7.291  14.093
27033SOL     OW82995   5.813   6.379   7.794
27033SOL    HW182996   5.719   6.382   7.777
27033SOL    HW282997   5.853   6.416   7.716
27034SOL     OW82998   0.019  12.772   8.279
27034SOL    HW182999  14.810  12.821   8.263
27034SOL    HW283000   0.003  12.687   8.238
27035SOL     OW83001   0.754   5.002  10.255
27035SOL    HW183002   0.702   5.049  10.189
27035SOL    HW283003   0.838   4.987  10.212
27036SOL     OW83004   9.984   1.003   7.228
27036SOL    HW183005  10.046   0.931   7.238
27036SOL    HW283006   9.931   1.000   7.308
27037SOL     OW83007   6.921   9.293   8.036
27037SOL    HW183008   6.887   9.249   8.114
27037SOL    HW283009   7.008   9.256   8.024
27038SOL     OW83010   1.930  14.082   5.571
27038SOL    HW183011   1.838  14.056   5.578
27038SOL    HW283012   1.946  14.134   5.650
27039SOL     OW83013   6.492  12.516   0.518
27039SOL    HW183014   6.425  12.577   0.488
27039SOL    HW283015   6.516  12.466   0.440
27040SOL     OW83016   9.214  13.594  14.489
27040SOL    HW183017   9.178  13.538  14.557
27040SOL    HW283018   9.148  13.593  14.420
27041SOL     OW83019   9.514   6.308  10.430
27041SOL    HW183020   9.598   6.303  10.384
27041SOL    HW283021   9.470   6.225  10.408
27042SOL     OW83022  11.634   0.203  14.061
27042SOL    HW183023  11.630   0.109  14.043
27042SOL    HW283024  11.604   0.244  13.980
27043SOL     OW83025  10.704  10.438  10.470
27043SOL    HW183026  10.794  10.465  10.487
27043SOL    HW283027  10.684  10.376  10.540
27044SOL     OW83028   4.829   8.210   9.526
27044SOL    HW183029   4.900   8.255   9.572
27044SOL    HW283030   4.761   8.198   9.593
27045SOL     OW83031   1.954  12.563  12.265
27045SOL    HW183032   1.867  12.539  12.299
27045SOL    HW283033   1.941  12.649  12.224
27046SOL     OW83034   0.915   9.053   1.874
27046SOL    HW183035   0.845   9.007   1.827
27046SOL    HW283036   0.991   9.043   1.817
27047SOL     OW83037   6.003   5.943   1.727
27047SOL    HW183038   6.078   5.900   1.685
27047SOL    HW283039   6.007   6.033   1.695
27048SOL     OW83040   7.552   2.990   2.386
27048SOL    HW183041   7.594   2.933   2.450
27048SOL    HW283042   7.551   2.940   2.305
27049SOL     OW83043   7.816   8.566  12.586
27049SOL    HW183044   7.871   8.627  12.635
27049SOL    HW283045   7.729   8.575  12.626
27050SOL     OW83046  13.351  11.625   8.895
27050SOL    HW183047  13.309  11.551   8.853
27050SOL    HW283048  13.445  11.610   8.884
27051SOL     OW83049  10.696  13.366   5.497
27051SOL    HW183050  10.782  13.325   5.494
27051SOL    HW283051  10.705  13.436   5.562
27052SOL     OW83052  12.158   5.646  11.853
27052SOL    HW183053  12.114   5.651  11.938
27052SOL    HW283054  12.167   5.552  11.836
27053SOL     OW83055   3.119   0.103   4.849
27053SOL    HW183056   3.064   0.142   4.781
27053SOL    HW283057   3.189   0.167   4.863
27054SOL     OW83058  11.360   3.221   7.200
27054SOL    HW183059  11.327   3.211   7.290
27054SOL    HW283060  11.443   3.173   7.199
27055SOL     OW83061  10.630   5.352   4.487
27055SOL    HW183062  10.682   5.426   4.455
27055SOL    HW283063  10.555   5.348   4.427
27056SOL     OW83064  10.836   4.684   6.190
27056SOL    HW183065  10.865   4.756   6.245
27056SOL    HW283066  10.877   4.607   6.227
27057SOL     OW83067   7.623   7.003   6.364
27057SOL    HW183068   7.625   6.980   6.457
27057SOL    HW283069   7.694   6.952   6.325
27058SOL     OW83070   7.612   8.725  11.259
27058SOL    HW183071   7.575   8.791  11.318
27058SOL    HW283072   7.658   8.776  11.193
27059SOL     OW83073   2.608   0.950   4.242
27059SOL    HW183074   2.643   1.033   4.209
27059SOL    HW283075   2.616   0.957   4.337
27060SOL     OW83076  10.476  12.073   9.059
27060SOL    HW183077  10.425  12.090   8.980
27060SOL    HW283078  10.427  12.004   9.104
27061SOL     OW83079   3.018   0.357   1.100
27061SOL    HW183080   2.950   0.423   1.087
27061SOL    HW283081   3.049   0.373   1.189
27062SOL     OW83082  14.159   1.112   4.125
27062SOL    HW183083  14.107   1.126   4.204
27062SOL    HW283084  14.109   1.048   4.075
27063SOL     OW83085   9.098  12.341   6.675
27063SOL    HW183086   9.095  12.250   6.643
27063SOL    HW283087   9.167  12.382   6.624
27064SOL     OW83088   6.138  12.431   6.625
27064SOL    HW183089   6.127  12.428   6.530
27064SOL    HW283090   6.053  12.403   6.659
27065SOL     OW83091   1.196  14.061  11.484
27065SOL    HW183092   1.280  14.104  11.503
27065SOL    HW283093   1.219  13.991  11.422
27066SOL     OW83094  12.364   5.057   8.184
27066SOL    HW183095  12.425   5.108   8.130
27066SOL    HW283096  12.280   5.064   8.139
27067SOL     OW83097  14.515   7.065   8.333
27067SOL    HW183098  14.425   7.098   8.330
27067SOL    HW283099  14.525   7.030   8.421
27068SOL     OW83100  10.382   0.543   3.502
27068SOL    HW183101  10.428   0.461   3.488
27068SOL    HW283102  10.322   0.550   3.428
27069SOL     OW83103   2.581   2.475   5.056
27069SOL    HW183104   2.631   2.402   5.091
27069SOL    HW283105   2.556   2.447   4.968
27070SOL     OW83106   2.078   6.401   6.755
27070SOL    HW183107   2.168   6.370   6.748
27070SOL    HW283108   2.058   6.393   6.849
27071SOL     OW83109   8.516  14.195  10.971
27071SOL    HW183110   8.456  14.266  10.947
27071SOL    HW283111   8.513  14.193  11.067
27072SOL     OW83112  12.962   9.388  14.068
27072SOL    HW183113  12.995   9.474  14.095
27072SOL    HW283114  12.985   9.381  13.975
27073SOL     OW83115   4.177   3.592  10.027
27073SOL    HW183116   4.095   3.641  10.025
27073SOL    HW283117   4.186   3.564  10.118
27074SOL     OW83118  10.548   6.209   8.738
27074SOL    HW183119  10.571   6.246   8.823
27074SOL    HW283120  10.455   6.232   8.726
27075SOL     OW83121   1.171   6.035   6.540
27075SOL    HW183122   1.235   6.100   6.511
27075SOL    HW283123   1.205   6.004   6.624
27076SOL     OW83124  13.618  13.108   7.706
27076SOL    HW183125  13.588  13.199   7.704
27076SOL    HW283126  13.636  13.088   7.614
27077SOL     OW83127   0.150   3.919   8.175
27077SOL    HW183128   0.133   3.920   8.269
27077SOL    HW283129   0.246   3.920   8.168
27078SOL     OW83130   3.479   5.902   7.486
27078SOL    HW183131   3.528   5.843   7.544
27078SOL    HW283132   3.438   5.844   7.422
27079SOL     OW83133   1.727   5.206   0.757
27079SOL    HW183134   1.740   5.209   0.852
27079SOL    HW283135   1.636   5.234   0.745
27080SOL     OW83136   8.744   4.209   7.551
27080SOL    HW183137   8.693   4.286   7.577
27080SOL    HW283138   8.827   4.245   7.519
27081SOL     OW83139   0.203   3.469   3.290
27081SOL    HW183140   0.241   3.451   3.204
27081SOL    HW283141   0.157   3.553   3.279
27082SOL     OW83142   7.111   1.800  11.683
27082SOL    HW183143   7.188   1.807  11.739
27082SOL    HW283144   7.039   1.780  11.743
27083SOL     OW83145   7.744  14.421   4.889
27083SOL    HW183146   7.656  14.424   4.926
27083SOL    HW283147   7.732  14.379   4.803
27084SOL     OW83148   1.493   0.981  14.074
27084SOL    HW183149   1.482   1.011  13.984
27084SOL    HW283150   1.439   0.903  14.081
27085SOL     OW83151   6.629  10.043  10.202
27085SOL    HW183152   6.706  10.054  10.147
27085SOL    HW283153   6.641  10.104  10.274
27086SOL     OW83154   1.086   2.901   0.172
27086SOL    HW183155   1.130   2.952   0.240
27086SOL    HW283156   0.999   2.940   0.164
27087SOL     OW83157   9.929   4.146  12.717
27087SOL    HW183158   9.987   4.221  12.720
27087SOL    HW283159   9.847   4.180  12.681
27088SOL     OW83160   7.811  14.073   4.172
27088SOL    HW183161   7.760  13.991   4.165
27088SOL    HW283162   7.895  14.052   4.131
27089SOL     OW83163  12.500   2.197   6.941
27089SOL    HW183164  12.405   2.189   6.948
27089SOL    HW283165  12.531   2.207   7.031
27090SOL     OW83166   7.361   7.703   8.334
27090SOL    HW183167   7.315   7.687   8.251
27090SOL    HW283168   7.382   7.616   8.366
27091SOL     OW83169  14.028   0.188   8.030
27091SOL    HW183170  13.971   0.208   8.104
27091SOL    HW283171  14.052   0.096   8.042
27092SOL     OW83172   3.910   1.088   2.392
27092SOL    HW183173   3.957   1.018   2.438
27092SOL    HW283174   3.840   1.114   2.452
27093SOL     OW83175  14.057   1.316   3.407
27093SOL    HW183176  14.041   1.229   3.369
27093SOL    HW283177  14.029   1.307   3.498
27094SOL     OW83178   1.781  10.210   7.325
27094SOL    HW183179   1.729  10.159   7.386
27094SOL    HW283180   1.736  10.200   7.241
27095SOL     OW83181   8.638  10.125   9.593
27095SOL    HW183182   8.636  10.211   9.635
27095SOL    HW283183   8.591  10.067   9.654
27096SOL     OW83184   9.226   8.398   2.369
27096SOL    HW183185   9.131   8.397   2.385
27096SOL    HW283186   9.241   8.477   2.318
27097SOL     OW83187   3.045   7.096   5.020
27097SOL    HW183188   3.013   7.098   4.930
27097SOL    HW283189   2.972   7.060   5.071
27098SOL     OW83190  10.117  10.537   2.696
27098SOL    HW183191  10.180  10.465   2.699
27098SOL    HW283192  10.035  10.498   2.726
27099SOL     OW83193   4.999   1.967  10.307
27099SOL    HW183194   5.010   1.986  10.400
27099SOL    HW283195   4.906   1.950  10.296
27100SOL     OW83196   0.214  10.825  12.416
27100SOL    HW183197   0.120  10.831  12.431
27100SOL    HW283198   0.240  10.741  12.454
27101SOL     OW83199   3.114   8.714  11.740
27101SOL    HW183200   3.200   8.756  11.749
27101SOL    HW283201   3.059   8.759  11.804
27102SOL     OW83202   2.261   8.094  12.657
27102SOL    HW183203   2.230   8.123  12.571
27102SOL    HW283204   2.336   8.038  12.639
27103SOL     OW83205   7.599  12.450  11.267
27103SOL    HW183206   7.611  12.381  11.332
27103SOL    HW283207   7.609  12.406  11.183
27104SOL     OW83208  14.220  11.752   6.187
27104SOL    HW183209  14.283  11.705   6.133
27104SOL    HW283210  14.157  11.686   6.214
27105SOL     OW83211   9.719   8.390   6.264
27105SOL    HW183212   9.683   8.404   6.352
27105SOL    HW283213   9.783   8.461   6.254
27106SOL     OW83214   6.523   7.059   3.818
27106SOL    HW183215   6.472   6.991   3.863
27106SOL    HW283216   6.593   7.081   3.880
27107SOL     OW83217   3.402   6.232   0.684
27107SOL    HW183218   3.480   6.177   0.691
27107SOL    HW283219   3.412   6.278   0.600
27108SOL     OW83220   0.741  10.259  10.954
27108SOL    HW183221   0.729  10.344  10.913
27108SOL    HW283222   0.758  10.200  10.880
27109SOL     OW83223   4.331  10.758  11.166
27109SOL    HW183224   4.384  10.705  11.225
27109SOL    HW283225   4.340  10.715  11.081
27110SOL     OW83226   1.192   4.375   4.111
27110SOL    HW183227   1.169   4.465   4.131
27110SOL    HW283228   1.163   4.325   4.188
27111SOL     OW83229  10.276   7.959   4.907
27111SOL    HW183230  10.229   7.927   4.830
27111SOL    HW283231  10.291   7.881   4.961
27112SOL     OW83232   5.243   2.832   0.954
27112SOL    HW183233   5.259   2.761   0.891
27112SOL    HW283234   5.158   2.811   0.993
27113SOL     OW83235   9.153   5.258   9.336
27113SOL    HW183236   9.171   5.299   9.251
27113SOL    HW283237   9.226   5.198   9.350
27114SOL     OW83238  11.596   7.637   9.070
27114SOL    HW183239  11.519   7.598   9.110
27114SOL    HW283240  11.666   7.574   9.085
27115SOL     OW83241   9.961   9.674  14.850
27115SOL    HW183242   9.868   9.689  14.832
27115SOL    HW283243  10.005   9.749  14.810
27116SOL     OW83244  10.409   7.002   0.161
27116SOL    HW183245  10.441   7.092   0.153
27116SOL    HW283246  10.459   6.966   0.235
27117SOL     OW83247  10.099   1.410  12.278
27117SOL    HW183248  10.095   1.495  12.321
27117SOL    HW283249  10.049   1.422  12.196
27118SOL     OW83250   7.936  11.131   6.907
27118SOL    HW183251   7.916  11.037   6.912
27118SOL    HW283252   7.949  11.148   6.814
27119SOL     OW83253   4.773  13.680   8.536
27119SOL    HW183254   4.852  13.709   8.490
27119SOL    HW283255   4.706  13.676   8.468
27120SOL     OW83256   3.901  10.242   3.527
27120SOL    HW183257   3.810  10.257   3.553
27120SOL    HW283258   3.951  10.258   3.606
27121SOL     OW83259  10.953  12.382  14.726
27121SOL    HW183260  11.048  12.377  14.727
27121SOL    HW283261  10.934  12.475  14.710
27122SOL     OW83262   2.606   6.040  11.268
27122SOL    HW183263   2.585   5.950  11.293
27122SOL    HW283264   2.651   6.077  11.343
27123SOL     OW83265  11.493   5.008  10.892
27123SOL    HW183266  11.519   5.048  10.809
27123SOL    HW283267  11.400   4.988  10.881
27124SOL     OW83268   5.823   5.797   1.011
27124SOL    HW183269   5.731   5.787   1.033
27124SOL    HW283270   5.825   5.805   0.916
27125SOL     OW83271   0.471   4.007   1.256
27125SOL    HW183272   0.555   4.002   1.301
27125SOL    HW283273   0.461   3.921   1.216
27126SOL     OW83274   1.706   7.550   1.755
27126SOL    HW183275   1.653   7.524   1.679
27126SOL    HW283276   1.664   7.629   1.787
27127SOL     OW83277   8.384  10.624   6.860
27127SOL    HW183278   8.474  10.606   6.835
27127SOL    HW283279   8.391  10.683   6.935
27128SOL     OW83280   6.154  14.121   5.868
27128SOL    HW183281   6.162  14.209   5.831
27128SOL    HW283282   6.178  14.132   5.960
27129SOL     OW83283  13.872   6.676   9.377
27129SOL    HW183284  13.845   6.608   9.316
27129SOL    HW283285  13.885   6.754   9.322
27130SOL     OW83286  12.402   3.226   9.581
27130SOL    HW183287  12.439   3.155   9.634
27130SOL    HW283288  12.436   3.210   9.493
27131SOL     OW83289  10.956   8.799   9.454
27131SOL    HW183290  11.051   8.784   9.453
27131SOL    HW283291  10.947   8.894   9.442
27132SOL     OW83292  14.823  11.054   0.439
27132SOL    HW183293  14.837  10.988   0.507
27132SOL    HW283294   0.010  11.126   0.462
27133SOL     OW83295   6.620   4.454   1.248
27133SOL    HW183296   6.581   4.442   1.161
27133SOL    HW283297   6.556   4.505   1.297
27134SOL     OW83298   3.898  11.339  13.063
27134SOL    HW183299   3.831  11.271  13.069
27134SOL    HW283300   3.851  11.421  13.079
27135SOL     OW83301   2.170   4.495   5.224
27135SOL    HW183302   2.241   4.472   5.284
27135SOL    HW283303   2.090   4.478   5.274
27136SOL     OW83304   0.724   7.742   5.854
27136SOL    HW183305   0.687   7.721   5.769
27136SOL    HW283306   0.648   7.763   5.909
27137SOL     OW83307   8.897  10.187   4.429
27137SOL    HW183308   8.959  10.213   4.498
27137SOL    HW283309   8.860  10.104   4.459
27138SOL     OW83310   4.350   6.691   8.541
27138SOL    HW183311   4.358   6.770   8.487
27138SOL    HW283312   4.290   6.715   8.611
27139SOL     OW83313  11.660   4.821  10.243
27139SOL    HW183314  11.581   4.868  10.216
27139SOL    HW283315  11.669   4.750  10.179
27140SOL     OW83316  13.476   9.381   3.826
27140SOL    HW183317  13.551   9.431   3.858
27140SOL    HW283318  13.468   9.308   3.888
27141SOL     OW83319   9.334   4.900  14.570
27141SOL    HW183320   9.366   4.981  14.609
27141SOL    HW283321   9.347   4.910  14.476
27142SOL     OW83322   8.236  11.516   2.570
27142SOL    HW183323   8.252  11.463   2.493
27142SOL    HW283324   8.322  11.550   2.594
27143SOL     OW83325  10.328   5.186   7.783
27143SOL    HW183326  10.332   5.113   7.845
27143SOL    HW283327  10.406   5.177   7.729
27144SOL     OW83328   4.792  11.234   4.549
27144SOL    HW183329   4.704  11.196   4.554
27144SOL    HW283330   4.783  11.306   4.487
27145SOL     OW83331   5.715   7.052  14.709
27145SOL    HW183332   5.620   7.045  14.719
27145SOL    HW283333   5.743   6.964  14.685
27146SOL     OW83334   2.006  12.801  10.209
27146SOL    HW183335   1.998  12.864  10.137
27146SOL    HW283336   1.977  12.718  10.171
27147SOL     OW83337   4.279  12.324  12.678
27147SOL    HW183338   4.338  12.359  12.744
27147SOL    HW283339   4.290  12.381  12.602
27148SOL     OW83340   9.288   0.303   2.669
27148SOL    HW183341   9.277   0.299   2.764
27148SOL    HW283342   9.213   0.352   2.637
27149SOL     OW83343   5.932  11.159   7.054
27149SOL    HW183344   5.841  11.189   7.054
27149SOL    HW283345   5.951  11.138   6.963
27150SOL     OW83346   8.256   0.163   3.190
27150SOL    HW183347   8.254   0.258   3.197
27150SOL    HW283348   8.338   0.137   3.232
27151SOL     OW83349   7.851   7.843  14.724
27151SOL    HW183350   7.921   7.892  14.767
27151SOL    HW283351   7.841   7.764  14.776
27152SOL     OW83352   7.761  14.528  10.776
27152SOL    HW183353   7.818  14.451  10.778
27152SOL    HW283354   7.772  14.568  10.862
27153SOL     OW83355   6.144  13.632   7.858
27153SOL    HW183356   6.179  13.717   7.832
27153SOL    HW283357   6.135  13.638   7.953
27154SOL     OW83358   7.751   0.396  13.039
27154SOL    HW183359   7.839   0.415  13.006
27154SOL    HW283360   7.700   0.376  12.960
27155SOL     OW83361   8.125   2.183   2.634
27155SOL    HW183362   8.126   2.101   2.684
27155SOL    HW283363   8.168   2.247   2.691
27156SOL     OW83364   5.336   2.384   9.533
27156SOL    HW183365   5.383   2.347   9.458
27156SOL    HW283366   5.402   2.394   9.601
27157SOL     OW83367   0.918   8.566   1.682
27157SOL    HW183368   0.844   8.562   1.622
27157SOL    HW283369   0.947   8.475   1.691
27158SOL     OW83370   9.304   5.221  13.394
27158SOL    HW183371   9.341   5.221  13.483
27158SOL    HW283372   9.359   5.160  13.346
27159SOL     OW83373   8.200   1.231   2.354
27159SOL    HW183374   8.149   1.228   2.273
27159SOL    HW283375   8.285   1.264   2.327
27160SOL     OW83376  13.258  12.683   3.307
27160SOL    HW183377  13.311  12.734   3.246
27160SOL    HW283378  13.318  12.617   3.341
27161SOL     OW83379  13.250   1.239   4.790
27161SOL    HW183380  13.287   1.284   4.866
27161SOL    HW283381  13.220   1.155   4.825
27162SOL     OW83382   0.176   8.463   2.104
27162SOL    HW183383   0.203   8.388   2.051
27162SOL    HW283384   0.086   8.482   2.076
27163SOL     OW83385   3.010  12.831   5.119
27163SOL    HW183386   2.988  12.769   5.049
27163SOL    HW283387   2.927  12.844   5.165
27164SOL     OW83388   2.087   9.058   1.224
27164SOL    HW183389   1.994   9.069   1.248
27164SOL    HW283390   2.111   9.142   1.185
27165SOL     OW83391   7.318  13.330   8.066
27165SOL    HW183392   7.391  13.346   8.006
27165SOL    HW283393   7.360  13.325   8.152
27166SOL     OW83394  13.205  10.299   5.566
27166SOL    HW183395  13.134  10.258   5.616
27166SOL    HW283396  13.217  10.384   5.608
27167SOL     OW83397   5.496   6.063  12.016
27167SOL    HW183398   5.537   5.987  11.975
27167SOL    HW283399   5.425   6.087  11.957
27168SOL     OW83400  13.604  11.108   9.148
27168SOL    HW183401  13.571  11.159   9.074
27168SOL    HW283402  13.612  11.019   9.115
27169SOL     OW83403   0.325   3.053  11.691
27169SOL    HW183404   0.397   2.992  11.672
27169SOL    HW283405   0.345   3.086  11.779
27170SOL     OW83406   0.734   8.343   7.811
27170SOL    HW183407   0.744   8.286   7.735
27170SOL    HW283408   0.781   8.298   7.881
27171SOL     OW83409   7.502   9.067   5.804
27171SOL    HW183410   7.580   9.032   5.848
27171SOL    HW283411   7.459   8.990   5.767
27172SOL     OW83412  13.318   6.567  12.244
27172SOL    HW183413  13.364   6.486  12.223
27172SOL    HW283414  13.304   6.563  12.338
27173SOL     OW83415   0.989   8.019   9.525
27173SOL    HW183416   0.982   8.112   9.546
27173SOL    HW283417   0.921   7.978   9.578
27174SOL     OW83418   5.505  14.119  12.909
27174SOL    HW183419   5.590  14.076  12.903
27174SOL    HW283420   5.512  14.177  12.985
27175SOL     OW83421   5.629   8.737  13.041
27175SOL    HW183422   5.570   8.809  13.063
27175SOL    HW283423   5.577   8.679  12.985
27176SOL     OW83424   2.750   0.304  13.695
27176SOL    HW183425   2.757   0.257  13.779
27176SOL    HW283426   2.666   0.348  13.699
27177SOL     OW83427   1.395   7.857   0.961
27177SOL    HW183428   1.323   7.905   0.921
27177SOL    HW283429   1.416   7.789   0.898
27178SOL     OW83430   2.704  11.677  14.074
27178SOL    HW183431   2.615  11.641  14.070
27178SOL    HW283432   2.754  11.610  14.121
27179SOL     OW83433   4.070   5.914   3.757
27179SOL    HW183434   4.114   5.970   3.692
27179SOL    HW283435   4.141   5.868   3.801
27180SOL     OW83436   6.810  10.122   9.411
27180SOL    HW183437   6.835  10.030   9.403
27180SOL    HW283438   6.768  10.143   9.328
27181SOL     OW83439   4.000  12.971  12.384
27181SOL    HW183440   4.071  12.940  12.327
27181SOL    HW283441   3.999  13.066  12.372
27182SOL     OW83442   5.087   1.239   5.229
27182SOL    HW183443   5.086   1.318   5.176
27182SOL    HW283444   5.020   1.182   5.190
27183SOL     OW83445  11.693  11.884   9.511
27183SOL    HW183446  11.632  11.823   9.472
27183SOL    HW283447  11.746  11.916   9.437
27184SOL     OW83448  12.376   7.122  14.870
27184SOL    HW183449  12.427   7.136   0.079
27184SOL    HW283450  12.379   7.028  14.856
27185SOL     OW83451   1.661  10.224   6.498
27185SOL    HW183452   1.732  10.287   6.486
27185SOL    HW283453   1.610  10.229   6.417
27186SOL     OW83454  12.531  12.274  13.302
27186SOL    HW183455  12.506  12.366  13.313
27186SOL    HW283456  12.626  12.275  13.297
27187SOL     OW83457   2.187   2.681  14.416
27187SOL    HW183458   2.105   2.729  14.409
27187SOL    HW283459   2.168   2.610  14.478
27188SOL     OW83460  13.186   1.273   9.135
27188SOL    HW183461  13.181   1.356   9.088
27188SOL    HW283462  13.096   1.256   9.163
27189SOL     OW83463   2.663   0.771   0.022
27189SOL    HW183464   2.708   0.792   0.103
27189SOL    HW283465   2.570   0.782   0.042
27190SOL     OW83466  14.729  11.347  10.701
27190SOL    HW183467  14.775  11.301  10.771
27190SOL    HW283468  14.708  11.432  10.739
27191SOL     OW83469   6.353   9.165   5.680
27191SOL    HW183470   6.373   9.151   5.587
27191SOL    HW283471   6.431   9.136   5.726
27192SOL     OW83472  12.023  14.736   7.838
27192SOL    HW183473  11.930  14.752   7.855
27192SOL    HW283474  12.068  14.813   7.873
27193SOL     OW83475  12.819  11.702   4.023
27193SOL    HW183476  12.881  11.676   3.955
27193SOL    HW283477  12.771  11.775   3.986
27194SOL     OW83478   7.432   8.591   8.154
27194SOL    HW183479   7.355   8.537   8.137
27194SOL    HW283480   7.404   8.653   8.221
27195SOL     OW83481  11.171  11.659  13.087
27195SOL    HW183482  11.110  11.652  13.014
27195SOL    HW283483  11.122  11.627  13.162
27196SOL     OW83484  13.432   2.857  11.539
27196SOL    HW183485  13.359   2.916  11.523
27196SOL    HW283486  13.399   2.795  11.603
27197SOL     OW83487  11.924   3.235   4.196
27197SOL    HW183488  11.997   3.175   4.213
27197SOL    HW283489  11.964   3.310   4.151
27198SOL     OW83490   7.672   0.255  13.261
27198SOL    HW183491   7.736   0.270  13.331
27198SOL    HW283492   7.696   0.318  13.193
27199SOL     OW83493   3.373   7.749   1.081
27199SOL    HW183494   3.447   7.704   1.121
27199SOL    HW283495   3.345   7.813   1.146
27200SOL     OW83496  14.541  10.543   0.477
27200SOL    HW183497  14.553  10.574   0.567
27200SOL    HW283498  14.448  10.552   0.460
27201SOL     OW83499  14.361   6.131   2.948
27201SOL    HW183500  14.401   6.216   2.969
27201SOL    HW283501  14.419   6.094   2.881
27202SOL     OW83502   4.903   1.124  13.685
27202SOL    HW183503   4.876   1.182  13.615
27202SOL    HW283504   4.958   1.058  13.643
27203SOL     OW83505   5.275   0.707   3.661
27203SOL    HW183506   5.219   0.632   3.678
27203SOL    HW283507   5.230   0.755   3.591
27204SOL     OW83508  10.806   9.480  12.039
27204SOL    HW183509  10.755   9.445  12.111
27204SOL    HW283510  10.799   9.575  12.047
27205SOL     OW83511   7.594   1.077   7.377
27205SOL    HW183512   7.536   1.069   7.301
27205SOL    HW283513   7.539   1.054   7.451
27206SOL     OW83514  13.178   2.258  13.412
27206SOL    HW183515  13.271   2.237  13.402
27206SOL    HW283516  13.137   2.175  13.438
27207SOL     OW83517  14.806  10.504   0.954
27207SOL    HW183518  14.835  10.414   0.966
27207SOL    HW283519  14.775  10.530   1.041
27208SOL     OW83520   4.792  10.361   5.564
27208SOL    HW183521   4.708  10.406   5.552
27208SOL    HW283522   4.851  10.404   5.501
27209SOL     OW83523   6.256  14.607   8.746
27209SOL    HW183524   6.347  14.611   8.717
27209SOL    HW283525   6.215  14.546   8.685
27210SOL     OW83526   5.619   7.778   7.643
27210SOL    HW183527   5.713   7.793   7.648
27210SOL    HW283528   5.595   7.751   7.732
27211SOL     OW83529   9.835   8.565  11.789
27211SOL    HW183530   9.855   8.493  11.729
27211SOL    HW283531   9.920   8.606  11.806
27212SOL     OW83532   7.199  10.121  14.113
27212SOL    HW183533   7.254  10.177  14.059
27212SOL    HW283534   7.116  10.168  14.122
27213SOL     OW83535   1.981   2.320   4.046
27213SOL    HW183536   2.013   2.393   4.100
27213SOL    HW283537   2.048   2.311   3.978
27214SOL     OW83538  10.560   4.174   9.640
27214SOL    HW183539  10.540   4.259   9.680
27214SOL    HW283540  10.544   4.187   9.547
27215SOL     OW83541   4.801  10.128   2.027
27215SOL    HW183542   4.846  10.065   1.971
27215SOL    HW283543   4.744  10.176   1.967
27216SOL     OW83544   0.602   9.826   4.423
27216SOL    HW183545   0.629   9.917   4.407
27216SOL    HW283546   0.572   9.826   4.514
27217SOL     OW83547   1.063   0.829   5.272
27217SOL    HW183548   0.985   0.843   5.219
27217SOL    HW283549   1.122   0.901   5.248
27218SOL     OW83550   0.891  12.036  10.718
27218SOL    HW183551   0.822  12.050  10.653
27218SOL    HW283552   0.907  12.122  10.755
27219SOL     OW83553   4.828   4.601  10.738
27219SOL    HW183554   4.743   4.592  10.697
27219SOL    HW283555   4.838   4.695  10.753
27220SOL     OW83556  10.930   8.771   8.824
27220SOL    HW183557  10.846   8.808   8.797
27220SOL    HW283558  10.926   8.767   8.919
27221SOL     OW83559   4.274  14.235  12.839
27221SOL    HW183560   4.339  14.168  12.817
27221SOL    HW283561   4.210  14.189  12.893
27222SOL     OW83562  13.196   9.227   4.667
27222SOL    HW183563  13.289   9.207   4.655
27222SOL    HW283564  13.195   9.310   4.714
27223SOL     OW83565   3.950   8.755   6.258
27223SOL    HW183566   3.912   8.685   6.204
27223SOL    HW283567   3.947   8.720   6.347
27224SOL     OW83568   9.643  14.417  14.469
27224SOL    HW183569   9.550  14.402  14.450
27224SOL    HW283570   9.680  14.447  14.386
27225SOL     OW83571   3.016   7.999  11.143
27225SOL    HW183572   2.972   8.082  11.160
27225SOL    HW283573   2.968   7.934  11.195
27226SOL     OW83574   5.777   6.560  11.506
27226SOL    HW183575   5.734   6.613  11.573
27226SOL    HW283576   5.741   6.591  11.424
27227SOL     OW83577  12.631  14.236   0.784
27227SOL    HW183578  12.615  14.141   0.789
27227SOL    HW283579  12.589  14.271   0.862
27228SOL     OW83580  14.651   1.824   1.022
27228SOL    HW183581  14.613   1.900   0.978
27228SOL    HW283582  14.704   1.861   1.093
27229SOL     OW83583   2.426  12.383   3.177
27229SOL    HW183584   2.455  12.454   3.235
27229SOL    HW283585   2.336  12.405   3.157
27230SOL     OW83586  10.008   7.360   8.793
27230SOL    HW183587   9.932   7.403   8.756
27230SOL    HW283588  10.051   7.318   8.718
27231SOL     OW83589   3.763   3.119   7.249
27231SOL    HW183590   3.670   3.138   7.259
27231SOL    HW283591   3.803   3.205   7.235
27232SOL     OW83592   7.409  10.363   6.136
27232SOL    HW183593   7.463  10.291   6.105
27232SOL    HW283594   7.320  10.340   6.110
27233SOL     OW83595  11.286   5.608  11.753
27233SOL    HW183596  11.262   5.589  11.844
27233SOL    HW283597  11.270   5.525  11.707
27234SOL     OW83598  11.743   8.212   6.774
27234SOL    HW183599  11.726   8.118   6.784
27234SOL    HW283600  11.838   8.219   6.783
27235SOL     OW83601   1.928   8.751  14.871
27235SOL    HW183602   1.994   8.722  14.808
27235SOL    HW283603   1.849   8.764  14.819
27236SOL     OW83604  13.633  14.282   6.830
27236SOL    HW183605  13.620  14.361   6.882
27236SOL    HW283606  13.690  14.227   6.884
27237SOL     OW83607   3.705  14.182   0.687
27237SOL    HW183608   3.774  14.234   0.728
27237SOL    HW283609   3.740  14.158   0.601
27238SOL     OW83610  14.623  13.542   7.283
27238SOL    HW183611  14.536  13.511   7.258
27238SOL    HW283612  14.620  13.637   7.270
27239SOL     OW83613   0.083  11.386   9.897
27239SOL    HW183614   0.055  11.453   9.959
27239SOL    HW283615   0.068  11.426   9.811
27240SOL     OW83616  13.922   7.655   4.121
27240SOL    HW183617  13.947   7.738   4.080
27240SOL    HW283618  13.884   7.680   4.205
27241SOL     OW83619   7.377   8.440   2.195
27241SOL    HW183620   7.451   8.501   2.193
27241SOL    HW283621   7.407   8.364   2.145
27242SOL     OW83622  12.663   0.123   4.000
27242SOL    HW183623  12.645   0.213   4.026
27242SOL    HW283624  12.585   0.074   4.029
27243SOL     OW83625   3.531  11.055   9.096
27243SOL    HW183626   3.559  11.065   9.005
27243SOL    HW283627   3.600  11.004   9.137
27244SOL     OW83628   3.806   1.142   3.961
27244SOL    HW183629   3.749   1.084   4.011
27244SOL    HW283630   3.797   1.227   4.004
27245SOL     OW83631   4.017  10.662   0.798
27245SOL    HW183632   4.099  10.694   0.760
27245SOL    HW283633   4.044  10.590   0.856
27246SOL     OW83634   2.022   0.313  13.813
27246SOL    HW183635   2.061   0.385  13.862
27246SOL    HW283636   1.966   0.268  13.876
27247SOL     OW83637   2.977   9.495   6.757
27247SOL    HW183638   2.937   9.557   6.697
27247SOL    HW283639   2.913   9.424   6.765
27248SOL     OW83640   7.750  14.173   5.833
27248SOL    HW183641   7.835  14.139   5.861
27248SOL    HW283642   7.692  14.097   5.834
27249SOL     OW83643   9.071   3.695  12.031
27249SOL    HW183644   9.079   3.604  12.003
27249SOL    HW283645   9.089   3.746  11.952
27250SOL     OW83646   1.135  12.371  12.538
27250SOL    HW183647   1.064  12.345  12.597
27250SOL    HW283648   1.215  12.342  12.582
27251SOL     OW83649   8.683  11.258   8.897
27251SOL    HW183650   8.640  11.342   8.882
27251SOL    HW283651   8.759  11.259   8.838
27252SOL     OW83652   0.292  14.742   3.760
27252SOL    HW183653   0.250  14.674   3.812
27252SOL    HW283654   0.228  14.813   3.758
27253SOL     OW83655   8.470  11.128   3.342
27253SOL    HW183656   8.431  11.199   3.392
27253SOL    HW283657   8.562  11.126   3.371
27254SOL     OW83658   9.786   2.987   0.927
27254SOL    HW183659   9.880   2.969   0.928
27254SOL    HW283660   9.745   2.903   0.947
27255SOL     OW83661   6.173   4.337   2.622
27255SOL    HW183662   6.262   4.358   2.595
27255SOL    HW283663   6.175   4.245   2.645
27256SOL     OW83664   5.699  12.024  14.461
27256SOL    HW183665   5.736  12.106  14.427
27256SOL    HW283666   5.765  11.958  14.440
27257SOL     OW83667   9.771  11.348   6.717
27257SOL    HW183668   9.717  11.293   6.774
27257SOL    HW283669   9.853  11.359   6.765
27258SOL     OW83670   4.666   5.249   5.043
27258SOL    HW183671   4.674   5.342   5.022
27258SOL    HW283672   4.583   5.223   5.003
27259SOL     OW83673   3.049  13.055  13.530
27259SOL    HW183674   3.034  13.147  13.507
27259SOL    HW283675   3.083  13.016  13.449
27260SOL     OW83676  12.867   8.677  11.180
27260SOL    HW183677  12.863   8.638  11.267
27260SOL    HW283678  12.919   8.616  11.128
27261SOL     OW83679   6.246   3.448  14.574
27261SOL    HW183680   6.220   3.376  14.632
27261SOL    HW283681   6.166   3.500  14.563
27262SOL     OW83682   5.645   7.875   9.005
27262SOL    HW183683   5.734   7.894   9.034
27262SOL    HW283684   5.656   7.832   8.921
27263SOL     OW83685   0.039  11.143  11.225
27263SOL    HW183686   0.005  11.158  11.314
27263SOL    HW283687  14.833  11.125  11.173
27264SOL     OW83688  12.788   7.364  14.499
27264SOL    HW183689  12.771   7.381  14.592
27264SOL    HW283690  12.862   7.421  14.478
27265SOL     OW83691   9.241   9.497  13.231
27265SOL    HW183692   9.190   9.463  13.304
27265SOL    HW283693   9.199   9.461  13.153
27266SOL     OW83694   6.614  12.952   7.259
27266SOL    HW183695   6.662  13.033   7.275
27266SOL    HW283696   6.605  12.912   7.345
27267SOL     OW83697   9.425   8.384  14.701
27267SOL    HW183698   9.511   8.382  14.660
27267SOL    HW283699   9.443   8.405  14.793
27268SOL     OW83700   2.296   9.876  10.940
27268SOL    HW183701   2.353   9.802  10.922
27268SOL    HW283702   2.338   9.950  10.896
27269SOL     OW83703   1.335   7.551  11.093
27269SOL    HW183704   1.369   7.487  11.156
27269SOL    HW283705   1.251   7.515  11.065
27270SOL     OW83706   0.912   8.332  11.272
27270SOL    HW183707   0.986   8.389  11.249
27270SOL    HW283708   0.876   8.305  11.187
27271SOL     OW83709   6.596   6.709   8.252
27271SOL    HW183710   6.681   6.735   8.288
27271SOL    HW283711   6.534   6.725   8.322
27272SOL     OW83712  13.383   7.159  11.098
27272SOL    HW183713  13.376   7.078  11.047
27272SOL    HW283714  13.323   7.145  11.171
27273SOL     OW83715  10.102  14.806   3.997
27273SOL    HW183716  10.104  14.805   3.901
27273SOL    HW283717  10.171  14.867   4.022
27274SOL     OW83718   8.741  14.152   0.158
27274SOL    HW183719   8.678  14.213   0.120
27274SOL    HW283720   8.713  14.066   0.127
27275SOL     OW83721  14.556   5.395  14.295
27275SOL    HW183722  14.485   5.449  14.330
27275SOL    HW283723  14.545   5.311  14.340
27276SOL     OW83724   1.596   4.570   4.734
27276SOL    HW183725   1.554   4.589   4.650
27276SOL    HW283726   1.523   4.541   4.790
27277SOL     OW83727  13.242  12.879   7.720
27277SOL    HW183728  13.194  12.816   7.773
27277SOL    HW283729  13.280  12.940   7.784
27278SOL     OW83730  12.950  13.605  10.808
27278SOL    HW183731  12.941  13.522  10.856
27278SOL    HW283732  13.016  13.587  10.742
27279SOL     OW83733   2.268  11.893  12.371
27279SOL    HW183734   2.310  11.920  12.289
27279SOL    HW283735   2.299  11.804  12.387
27280SOL     OW83736  14.382   3.589   0.394
27280SOL    HW183737  14.338   3.564   0.313
27280SOL    HW283738  14.446   3.655   0.367
27281SOL     OW83739  12.765   0.643   9.657
27281SOL    HW183740  12.724   0.681   9.735
27281SOL    HW283741  12.805   0.718   9.613
27282SOL     OW83742   0.743   7.413   9.273
27282SOL    HW183743   0.686   7.378   9.206
27282SOL    HW283744   0.829   7.375   9.254
27283SOL     OW83745  11.157   7.166  11.439
27283SOL    HW183746  11.240   7.149  11.396
27283SOL    HW283747  11.178   7.229  11.508
27284SOL     OW83748  12.895  11.472   8.561
27284SOL    HW183749  12.824  11.511   8.510
27284SOL    HW283750  12.884  11.378   8.549
27285SOL     OW83751  11.554   2.808   3.397
27285SOL    HW183752  11.594   2.883   3.441
27285SOL    HW283753  11.497   2.769   3.463
27286SOL     OW83754  12.934   8.737  14.786
27286SOL    HW183755  13.009   8.795  14.801
27286SOL    HW283756  12.968   8.669  14.727
27287SOL     OW83757   6.956  10.920   8.472
27287SOL    HW183758   6.864  10.906   8.447
27287SOL    HW283759   6.967  10.867   8.551
27288SOL     OW83760  11.873   0.728   4.072
27288SOL    HW183761  11.878   0.680   3.989
27288SOL    HW283762  11.938   0.798   4.062
27289SOL     OW83763   5.373  12.881   6.771
27289SOL    HW183764   5.358  12.802   6.823
27289SOL    HW283765   5.399  12.947   6.835
27290SOL     OW83766   1.182   0.010   7.642
27290SOL    HW183767   1.158   0.023   7.551
27290SOL    HW283768   1.103  14.847   7.683
27291SOL     OW83769   8.574  13.964  11.576
27291SOL    HW183770   8.583  13.947  11.482
27291SOL    HW283771   8.480  13.960  11.592
27292SOL     OW83772   0.405   2.934   0.448
27292SOL    HW183773   0.351   2.896   0.518
27292SOL    HW283774   0.356   2.917   0.368
27293SOL     OW83775  14.792  10.595   1.628
27293SOL    HW183776  14.838  10.525   1.581
27293SOL    HW283777  14.846  10.611   1.706
27294SOL     OW83778   6.947   2.549   7.811
27294SOL    HW183779   6.896   2.621   7.848
27294SOL    HW283780   6.883   2.489   7.774
27295SOL     OW83781   5.648   1.453  12.424
27295SOL    HW183782   5.667   1.393  12.352
27295SOL    HW283783   5.727   1.452  12.478
27296SOL     OW83784   0.222   7.072   9.055
27296SOL    HW183785   0.185   7.056   8.968
27296SOL    HW283786   0.165   7.138   9.094
27297SOL     OW83787   2.240   3.225   1.604
27297SOL    HW183788   2.301   3.290   1.568
27297SOL    HW283789   2.280   3.200   1.688
27298SOL     OW83790   7.405   1.628  14.825
27298SOL    HW183791   7.466   1.580   0.009
27298SOL    HW283792   7.379   1.566  14.757
27299SOL     OW83793  10.169   4.886   1.071
27299SOL    HW183794  10.265   4.882   1.064
27299SOL    HW283795  10.152   4.965   1.122
27300SOL     OW83796   8.521  11.744   9.992
27300SOL    HW183797   8.577  11.681   9.947
27300SOL    HW283798   8.482  11.694  10.064
27301SOL     OW83799   1.791   1.011   9.542
27301SOL    HW183800   1.734   1.060   9.483
27301SOL    HW283801   1.734   0.982   9.613
27302SOL     OW83802  12.514   6.664   3.227
27302SOL    HW183803  12.528   6.653   3.133
27302SOL    HW283804  12.597   6.697   3.261
27303SOL     OW83805  10.834   7.581   6.556
27303SOL    HW183806  10.764   7.642   6.579
27303SOL    HW283807  10.818   7.505   6.612
27304SOL     OW83808   0.736  13.439   5.063
27304SOL    HW183809   0.774  13.483   5.139
27304SOL    HW283810   0.665  13.496   5.035
27305SOL     OW83811   0.533  11.316  10.872
27305SOL    HW183812   0.612  11.293  10.824
27305SOL    HW283813   0.511  11.238  10.923
27306SOL     OW83814  11.874  10.124   0.966
27306SOL    HW183815  11.823  10.178   0.906
27306SOL    HW283816  11.963  10.125   0.930
27307SOL     OW83817   3.155   8.419   5.537
27307SOL    HW183818   3.216   8.425   5.610
27307SOL    HW283819   3.189   8.348   5.483
27308SOL     OW83820  12.955   6.659  12.746
27308SOL    HW183821  12.907   6.694  12.671
27308SOL    HW283822  13.024   6.723  12.762
27309SOL     OW83823   8.787   3.480   9.630
27309SOL    HW183824   8.876   3.494   9.598
27309SOL    HW283825   8.764   3.562   9.673
27310SOL     OW83826   3.623   9.343  12.145
27310SOL    HW183827   3.556   9.367  12.081
27310SOL    HW283828   3.596   9.387  12.225
27311SOL     OW83829   0.748   4.581  12.135
27311SOL    HW183830   0.823   4.576  12.194
27311SOL    HW283831   0.786   4.581  12.047
27312SOL     OW83832  13.143  11.098   2.536
27312SOL    HW183833  13.172  11.016   2.495
27312SOL    HW283834  13.223  11.150   2.547
27313SOL     OW83835  11.218  13.141  10.894
27313SOL    HW183836  11.277  13.200  10.846
27313SOL    HW283837  11.244  13.053  10.867
27314SOL     OW83838  12.655   5.188   2.946
27314SOL    HW183839  12.742   5.225   2.930
27314SOL    HW283840  12.606   5.261   2.985
27315SOL     OW83841   9.597   9.811  14.518
27315SOL    HW183842   9.571   9.805  14.426
27315SOL    HW283843   9.675   9.756  14.524
27316SOL     OW83844   3.660  10.250   3.662
27316SOL    HW183845   3.621  10.171   3.699
27316SOL    HW283846   3.619  10.322   3.709
27317SOL     OW83847   0.824   0.233  12.241
27317SOL    HW183848   0.859   0.301  12.184
27317SOL    HW283849   0.894   0.168  12.247
27318SOL     OW83850  13.232   1.301  14.850
27318SOL    HW183851  13.238   1.280  14.757
27318SOL    HW283852  13.220   1.216   0.021
27319SOL     OW83853   2.672  12.891   3.165
27319SOL    HW183854   2.686  12.943   3.243
27319SOL    HW283855   2.617  12.818   3.194
27320SOL     OW83856  10.112   7.717   9.561
27320SOL    HW183857  10.120   7.807   9.594
27320SOL    HW283858  10.098   7.726   9.467
27321SOL     OW83859   0.738   6.243   0.940
27321SOL    HW183860   0.656   6.193   0.941
27321SOL    HW283861   0.800   6.190   0.990
27322SOL     OW83862  13.443   7.811   0.830
27322SOL    HW183863  13.401   7.803   0.745
27322SOL    HW283864  13.495   7.731   0.839
27323SOL     OW83865   9.666  12.985   8.901
27323SOL    HW183866   9.757  12.983   8.871
27323SOL    HW283867   9.639  13.076   8.887
27324SOL     OW83868  13.172  13.494  11.927
27324SOL    HW183869  13.162  13.500  12.022
27324SOL    HW283870  13.266  13.485  11.913
27325SOL     OW83871   2.061   5.120  10.382
27325SOL    HW183872   2.010   5.142  10.460
27325SOL    HW283873   2.137   5.179  10.386
27326SOL     OW83874   6.903  13.109  10.092
27326SOL    HW183875   6.917  13.072  10.005
27326SOL    HW283876   6.880  13.201  10.076
27327SOL     OW83877   3.672   7.231   8.733
27327SOL    HW183878   3.668   7.188   8.819
27327SOL    HW283879   3.689   7.160   8.671
27328SOL     OW83880   6.724  11.297  14.122
27328SOL    HW183881   6.764  11.239  14.057
27328SOL    HW283882   6.636  11.313  14.089
27329SOL     OW83883  10.125   7.471  13.303
27329SOL    HW183884  10.091   7.457  13.391
27329SOL    HW283885  10.085   7.553  13.275
27330SOL     OW83886   9.531   7.362  13.698
27330SOL    HW183887   9.580   7.359  13.616
27330SOL    HW283888   9.440   7.376  13.672
27331SOL     OW83889  14.170  12.490   5.350
27331SOL    HW183890  14.137  12.404   5.377
27331SOL    HW283891  14.194  12.478   5.258
27332SOL     OW83892  11.923   6.876  11.606
27332SOL    HW183893  11.898   6.943  11.541
27332SOL    HW283894  11.856   6.882  11.673
27333SOL     OW83895   3.035   8.568  12.681
27333SOL    HW183896   3.051   8.647  12.630
27333SOL    HW283897   3.057   8.496  12.622
27334SOL     OW83898  14.218   6.659  10.869
27334SOL    HW183899  14.150   6.618  10.921
27334SOL    HW283900  14.228   6.602  10.793
27335SOL     OW83901   3.957  11.748   6.641
27335SOL    HW183902   3.995  11.713   6.560
27335SOL    HW283903   3.863  11.739   6.629
27336SOL     OW83904   9.136  10.009   9.523
27336SOL    HW183905   9.170  10.061   9.450
27336SOL    HW283906   9.148   9.918   9.496
27337SOL     OW83907   4.011  11.456   0.132
27337SOL    HW183908   3.915  11.460   0.130
27337SOL    HW283909   4.033  11.470   0.224
27338SOL     OW83910   5.887   9.705   4.050
27338SOL    HW183911   5.974   9.725   4.014
27338SOL    HW283912   5.843   9.790   4.054
27339SOL     OW83913   5.790   8.436   6.884
27339SOL    HW183914   5.877   8.395   6.886
27339SOL    HW283915   5.766   8.435   6.791
27340SOL     OW83916  11.625  14.032   2.168
27340SOL    HW183917  11.578  14.112   2.144
27340SOL    HW283918  11.680  14.057   2.242
27341SOL     OW83919   3.083   7.350   4.498
27341SOL    HW183920   3.149   7.406   4.457
27341SOL    HW283921   3.027   7.410   4.547
27342SOL     OW83922   9.926   3.318   2.235
27342SOL    HW183923   9.951   3.226   2.231
27342SOL    HW283924   9.910   3.342   2.144
27343SOL     OW83925   6.315  11.260  11.253
27343SOL    HW183926   6.317  11.279  11.347
27343SOL    HW283927   6.404  11.233  11.232
27344SOL     OW83928   3.130  13.736   2.591
27344SOL    HW183929   3.195  13.697   2.533
27344SOL    HW283930   3.177  13.808   2.633
27345SOL     OW83931   8.513   8.791   9.676
27345SOL    HW183932   8.544   8.738   9.750
27345SOL    HW283933   8.519   8.881   9.708
27346SOL     OW83934   7.349  11.840  10.693
27346SOL    HW183935   7.325  11.771  10.755
27346SOL    HW283936   7.397  11.904  10.745
27347SOL     OW83937   4.582   8.245  12.135
27347SOL    HW183938   4.662   8.194  12.123
27347SOL    HW283939   4.526   8.219  12.062
27348SOL     OW83940  10.817   4.863   4.171
27348SOL    HW183941  10.883   4.930   4.187
27348SOL    HW283942  10.866   4.786   4.142
27349SOL     OW83943   7.756  10.961   6.733
27349SOL    HW183944   7.786  11.047   6.704
27349SOL    HW283945   7.665  10.974   6.758
27350SOL     OW83946  11.931   9.855   2.442
27350SOL    HW183947  11.985   9.826   2.516
27350SOL    HW283948  11.990   9.854   2.367
27351SOL     OW83949   4.188   2.067   5.929
27351SOL    HW183950   4.251   1.995   5.934
27351SOL    HW283951   4.138   2.061   6.010
27352SOL     OW83952   8.140   9.314   6.269
27352SOL    HW183953   8.106   9.230   6.300
27352SOL    HW283954   8.232   9.313   6.295
27353SOL     OW83955   2.263   5.575   7.270
27353SOL    HW183956   2.215   5.493   7.271
27353SOL    HW283957   2.229   5.624   7.346
27354SOL     OW83958   0.032  11.092   2.684
27354SOL    HW183959  14.856  11.079   2.767
27354SOL    HW283960   0.043  11.004   2.649
27355SOL     OW83961   0.805   9.327  12.451
27355SOL    HW183962   0.798   9.419  12.425
27355SOL    HW283963   0.818   9.280  12.369
27356SOL     OW83964  12.942   9.479   4.952
27356SOL    HW183965  12.948   9.433   4.869
27356SOL    HW283966  13.015   9.540   4.951
27357SOL     OW83967  10.530   7.094   4.943
27357SOL    HW183968  10.624   7.104   4.929
27357SOL    HW283969  10.509   7.008   4.908
27358SOL     OW83970  10.492  10.698   2.535
27358SOL    HW183971  10.531  10.743   2.610
27358SOL    HW283972  10.488  10.606   2.563
27359SOL     OW83973   9.575   5.998   2.687
27359SOL    HW183974   9.552   5.906   2.701
27359SOL    HW283975   9.600   6.003   2.595
27360SOL     OW83976   1.538   0.666  14.850
27360SOL    HW183977   1.612   0.620   0.018
27360SOL    HW283978   1.526   0.745   0.032
27361SOL     OW83979  11.527   0.022   0.144
27361SOL    HW183980  11.547   0.088   0.078
27361SOL    HW283981  11.446   0.053   0.185
27362SOL     OW83982   3.361  10.164   4.349
27362SOL    HW183983   3.364  10.071   4.372
27362SOL    HW283984   3.280  10.196   4.389
27363SOL     OW83985   8.979   1.870   3.042
27363SOL    HW183986   9.021   1.808   2.982
27363SOL    HW283987   9.019   1.851   3.127
27364SOL     OW83988  10.474  11.169  12.856
27364SOL    HW183989  10.393  11.174  12.908
27364SOL    HW283990  10.468  11.085  12.811
27365SOL     OW83991   2.522   4.114  11.429
27365SOL    HW183992   2.584   4.178  11.464
27365SOL    HW283993   2.464   4.094  11.502
27366SOL     OW83994   3.625  13.506  11.776
27366SOL    HW183995   3.686  13.473  11.710
27366SOL    HW283996   3.665  13.483  11.860
27367SOL     OW83997   3.530   2.704  12.492
27367SOL    HW183998   3.600   2.757  12.453
27367SOL    HW283999   3.454   2.763  12.495
27368SOL     OW84000  10.644   8.031  13.828
27368SOL    HW184001  10.681   7.960  13.774
27368SOL    HW284002  10.704   8.038  13.902
27369SOL     OW84003  11.374   8.721  11.941
27369SOL    HW184004  11.348   8.634  11.911
27369SOL    HW284005  11.295   8.775  11.931
27370SOL     OW84006   4.228  14.022   8.193
27370SOL    HW184007   4.138  14.019   8.161
27370SOL    HW284008   4.260  13.932   8.182
27371SOL     OW84009   7.279  13.923  12.500
27371SOL    HW184010   7.305  13.874  12.578
27371SOL    HW284011   7.210  13.981  12.530
27372SOL     OW84012  13.164   7.289  10.546
27372SOL    HW184013  13.158   7.205  10.502
27372SOL    HW284014  13.093   7.341  10.509
27373SOL     OW84015   8.030   2.907  12.535
27373SOL    HW184016   8.112   2.901  12.487
27373SOL    HW284017   8.057   2.924  12.626
27374SOL     OW84018  13.142  10.909  11.489
27374SOL    HW184019  13.065  10.875  11.443
27374SOL    HW284020  13.155  10.996  11.451
27375SOL     OW84021   1.928   0.086   5.601
27375SOL    HW184022   1.956   0.088   5.510
27375SOL    HW284023   1.833   0.075   5.596
27376SOL     OW84024  13.211   0.474   2.664
27376SOL    HW184025  13.295   0.491   2.708
27376SOL    HW284026  13.205   0.378   2.661
27377SOL     OW84027  12.556   6.493   7.632
27377SOL    HW184028  12.488   6.561   7.630
27377SOL    HW284029  12.539   6.441   7.554
27378SOL     OW84030   8.847   0.155   9.686
27378SOL    HW184031   8.758   0.120   9.689
27378SOL    HW284032   8.855   0.207   9.766
27379SOL     OW84033   7.670   1.599   5.838
27379SOL    HW184034   7.734   1.618   5.907
27379SOL    HW284035   7.644   1.508   5.854
27380SOL     OW84036   9.915  10.294   8.318
27380SOL    HW184037   9.950  10.340   8.394
27380SOL    HW284038   9.987  10.293   8.255
27381SOL     OW84039  10.271  10.178   5.416
27381SOL    HW184040  10.287  10.165   5.322
27381SOL    HW284041  10.201  10.117   5.437
27382SOL     OW84042  11.011   5.672  12.765
27382SOL    HW184043  10.938   5.635  12.815
27382SOL    HW284044  11.047   5.740  12.822
27383SOL     OW84045   5.575  13.310   7.306
27383SOL    HW184046   5.593  13.397   7.271
27383SOL    HW284047   5.505  13.325   7.370
27384SOL     OW84048  10.364   2.865   7.117
27384SOL    HW184049  10.413   2.900   7.191
27384SOL    HW284050  10.332   2.780   7.147
27385SOL     OW84051  11.679  10.797  13.209
27385SOL    HW184052  11.650  10.888  13.197
27385SOL    HW284053  11.755  10.788  13.151
27386SOL     OW84054  12.468   5.847   5.083
27386SOL    HW184055  12.522   5.911   5.130
27386SOL    HW284056  12.519   5.825   5.005
27387SOL     OW84057   4.250   2.084   8.542
27387SOL    HW184058   4.282   2.145   8.476
27387SOL    HW284059   4.329   2.045   8.579
27388SOL     OW84060   5.761   7.908  13.556
27388SOL    HW184061   5.748   7.980  13.494
27388SOL    HW284062   5.855   7.890  13.554
27389SOL     OW84063  14.675   2.833  12.203
27389SOL    HW184064  14.594   2.837  12.253
27389SOL    HW284065  14.742   2.807  12.267
27390SOL     OW84066   4.065  12.217   5.992
27390SOL    HW184067   4.125  12.292   5.993
27390SOL    HW284068   3.983  12.251   6.026
27391SOL     OW84069   0.757   1.260   8.439
27391SOL    HW184070   0.674   1.261   8.487
27391SOL    HW284071   0.761   1.173   8.400
27392SOL     OW84072   2.628  13.874   8.396
27392SOL    HW184073   2.581  13.957   8.405
27392SOL    HW284074   2.686  13.887   8.321
27393SOL     OW84075   9.498   0.238   4.056
27393SOL    HW184076   9.498   0.276   4.144
27393SOL    HW284077   9.430   0.171   4.059
27394SOL     OW84078   7.394   5.841   1.781
27394SOL    HW184079   7.327   5.909   1.786
27394SOL    HW284080   7.391   5.811   1.690
27395SOL     OW84081  12.178  10.478  10.895
27395SOL    HW184082  12.110  10.456  10.959
27395SOL    HW284083  12.162  10.419  10.822
27396SOL     OW84084  10.543   1.100   6.538
27396SOL    HW184085  10.602   1.057   6.476
27396SOL    HW284086  10.567   1.193   6.532
27397SOL     OW84087   7.216  14.808  10.663
27397SOL    HW184088   7.294  14.753  10.666
27397SOL    HW284089   7.149  14.751  10.625
27398SOL     OW84090  13.497   5.799  13.604
27398SOL    HW184091  13.528   5.857  13.673
27398SOL    HW284092  13.413   5.837  13.577
27399SOL     OW84093   1.467   8.966   9.775
27399SOL    HW184094   1.441   9.056   9.796
27399SOL    HW284095   1.526   8.976   9.699
27400SOL     OW84096   5.167  10.429  12.369
27400SOL    HW184097   5.080  10.465  12.357
27400SOL    HW284098   5.165  10.387  12.455
27401SOL     OW84099  11.805   2.850   4.096
27401SOL    HW184100  11.900   2.861   4.093
27401SOL    HW284101  11.771   2.939   4.094
27402SOL     OW84102   7.402   2.326   5.663
27402SOL    HW184103   7.419   2.398   5.603
27402SOL    HW284104   7.489   2.288   5.678
27403SOL     OW84105  14.442   5.069   7.024
27403SOL    HW184106  14.497   5.056   6.946
27403SOL    HW284107  14.384   4.994   7.025
27404SOL     OW84108   0.336   3.972   2.813
27404SOL    HW184109   0.383   3.984   2.730
27404SOL    HW284110   0.383   4.026   2.876
27405SOL     OW84111   8.868   8.705  12.412
27405SOL    HW184112   8.833   8.652  12.340
27405SOL    HW284113   8.794   8.760  12.439
27406SOL     OW84114   9.802   0.930   8.070
27406SOL    HW184115   9.751   1.010   8.085
27406SOL    HW284116   9.892   0.960   8.063
27407SOL     OW84117   7.413   9.687   2.016
27407SOL    HW184118   7.489   9.710   2.070
27407SOL    HW284119   7.450   9.641   1.941
27408SOL     OW84120   7.026   0.582  12.335
27408SOL    HW184121   7.102   0.538  12.373
27408SOL    HW284122   6.951   0.545  12.383
27409SOL     OW84123   9.525   0.243   3.656
27409SOL    HW184124   9.431   0.234   3.674
27409SOL    HW284125   9.560   0.288   3.733
27410SOL     OW84126   6.757  13.391   0.293
27410SOL    HW184127   6.788  13.357   0.209
27410SOL    HW284128   6.806  13.340   0.358
27411SOL     OW84129   4.991  14.582   9.851
27411SOL    HW184130   5.069  14.539   9.816
27411SOL    HW284131   4.977  14.540   9.935
27412SOL     OW84132  11.753   6.471   0.386
27412SOL    HW184133  11.734   6.564   0.374
27412SOL    HW284134  11.739   6.455   0.480
27413SOL     OW84135   3.784   8.038   6.764
27413SOL    HW184136   3.754   7.952   6.733
27413SOL    HW284137   3.826   8.020   6.848
27414SOL     OW84138   8.135   2.933   4.535
27414SOL    HW184139   8.117   2.956   4.444
27414SOL    HW284140   8.067   2.978   4.585
27415SOL     OW84141   0.079   2.717   9.357
27415SOL    HW184142   0.149   2.734   9.420
27415SOL    HW284143   0.053   2.804   9.326
27416SOL     OW84144   3.954   5.842   5.207
27416SOL    HW184145   3.963   5.829   5.301
27416SOL    HW284146   4.034   5.889   5.182
27417SOL     OW84147   1.583   5.232   4.488
27417SOL    HW184148   1.535   5.186   4.420
27417SOL    HW284149   1.567   5.324   4.471
27418SOL     OW84150  13.199  10.257   3.009
27418SOL    HW184151  13.154  10.187   3.057
27418SOL    HW284152  13.292  10.235   3.016
27419SOL     OW84153   0.062   5.051  13.230
27419SOL    HW184154   0.130   5.061  13.297
27419SOL    HW284155  14.862   5.108  13.259
27420SOL     OW84156   0.320  13.249   9.289
27420SOL    HW184157   0.387  13.294   9.238
27420SOL    HW284158   0.292  13.176   9.233
27421SOL     OW84159  10.391   1.971   5.878
27421SOL    HW184160  10.410   1.919   5.800
27421SOL    HW284161  10.384   2.061   5.847
27422SOL     OW84162   4.168   9.358  12.387
27422SOL    HW184163   4.215   9.285  12.430
27422SOL    HW284164   4.168   9.334  12.294
27423SOL     OW84165   9.994  13.622   2.050
27423SOL    HW184166  10.076  13.595   2.008
27423SOL    HW284167  10.010  13.713   2.076
27424SOL     OW84168   2.193   7.637   2.012
27424SOL    HW184169   2.215   7.688   1.933
27424SOL    HW284170   2.098   7.643   2.018
27425SOL     OW84171   2.223   5.817   6.937
27425SOL    HW184172   2.153   5.767   6.895
27425SOL    HW284173   2.304   5.781   6.901
27426SOL     OW84174  11.570   9.299   5.255
27426SOL    HW184175  11.574   9.213   5.296
27426SOL    HW284176  11.518   9.352   5.315
27427SOL     OW84177   3.706   4.527  11.693
27427SOL    HW184178   3.636   4.591  11.684
27427SOL    HW284179   3.780   4.576  11.728
27428SOL     OW84180   5.784  10.163   9.338
27428SOL    HW184181   5.742  10.159   9.424
27428SOL    HW284182   5.814  10.074   9.321
27429SOL     OW84183   2.038   6.216   6.100
27429SOL    HW184184   2.056   6.126   6.070
27429SOL    HW284185   1.943   6.226   6.091
27430SOL     OW84186  11.419  10.499   9.667
27430SOL    HW184187  11.353  10.456   9.613
27430SOL    HW284188  11.439  10.436   9.736
27431SOL     OW84189   3.534   2.989  12.345
27431SOL    HW184190   3.474   3.042  12.292
27431SOL    HW284191   3.480   2.955  12.416
27432SOL     OW84192  11.630   5.973  12.102
27432SOL    HW184193  11.543   5.935  12.092
27432SOL    HW284194  11.685   5.899  12.129
27433SOL     OW84195  11.966   9.140   1.198
27433SOL    HW184196  12.053   9.174   1.179
27433SOL    HW284197  11.923   9.208   1.248
27434SOL     OW84198   9.767   4.308   8.640
27434SOL    HW184199   9.731   4.293   8.553
27434SOL    HW284200   9.726   4.241   8.695
27435SOL     OW84201   0.406   2.985   7.351
27435SOL    HW184202   0.387   3.021   7.438
27435SOL    HW284203   0.322   2.991   7.304
27436SOL     OW84204  14.421   4.032   2.882
27436SOL    HW184205  14.495   3.989   2.925
27436SOL    HW284206  14.457   4.114   2.849
27437SOL     OW84207   5.210  11.702   5.374
27437SOL    HW184208   5.237  11.794   5.365
27437SOL    HW284209   5.123  11.707   5.413
27438SOL     OW84210  14.164  12.410  14.552
27438SOL    HW184211  14.116  12.467  14.612
27438SOL    HW284212  14.202  12.470  14.488
27439SOL     OW84213   0.840   2.666  13.367
27439SOL    HW184214   0.884   2.582  13.380
27439SOL    HW284215   0.814   2.665  13.274
27440SOL     OW84216   0.926   8.996  10.659
27440SOL    HW184217   0.945   9.025  10.570
27440SOL    HW284218   0.935   9.075  10.712
27441SOL     OW84219   1.089   2.366   9.668
27441SOL    HW184220   1.053   2.278   9.679
27441SOL    HW284221   1.062   2.413   9.748
27442SOL     OW84222   9.588  12.850   7.490
27442SOL    HW184223   9.569  12.921   7.429
27442SOL    HW284224   9.679  12.864   7.517
27443SOL     OW84225   7.313   1.282  11.804
27443SOL    HW184226   7.282   1.272  11.714
27443SOL    HW284227   7.394   1.333  11.795
27444SOL     OW84228  10.339   4.932   7.254
27444SOL    HW184229  10.288   5.009   7.279
27444SOL    HW284230  10.302   4.860   7.306
27445SOL     OW84231  11.287   4.958  14.343
27445SOL    HW184232  11.346   4.911  14.402
27445SOL    HW284233  11.254   4.890  14.284
27446SOL     OW84234   6.074   9.284   4.956
27446SOL    HW184235   6.100   9.325   5.039
27446SOL    HW284236   6.106   9.344   4.889
27447SOL     OW84237   1.467   6.652   9.805
27447SOL    HW184238   1.405   6.712   9.765
27447SOL    HW284239   1.474   6.683   9.896
27448SOL     OW84240   2.858   7.640  11.654
27448SOL    HW184241   2.836   7.698  11.727
27448SOL    HW284242   2.891   7.699  11.586
27449SOL     OW84243   3.555  14.773  14.172
27449SOL    HW184244   3.569  14.678  14.170
27449SOL    HW284245   3.460  14.784  14.166
27450SOL     OW84246   3.902  10.853   2.273
27450SOL    HW184247   3.922  10.762   2.248
27450SOL    HW284248   3.949  10.906   2.208
27451SOL     OW84249   8.961   0.380  14.050
27451SOL    HW184250   8.877   0.417  14.077
27451SOL    HW284251   8.948   0.355  13.959
27452SOL     OW84252  10.788   0.714   2.532
27452SOL    HW184253  10.752   0.669   2.608
27452SOL    HW284254  10.780   0.650   2.461
27453SOL     OW84255  13.613   0.064   6.480
27453SOL    HW184256  13.553   0.135   6.504
27453SOL    HW284257  13.569   0.017   6.410
27454SOL     OW84258   0.926  12.154  14.450
27454SOL    HW184259   0.856  12.211  14.420
27454SOL    HW284260   0.997  12.167  14.387
27455SOL     OW84261   1.784   5.648   5.162
27455SOL    HW184262   1.697   5.661   5.126
27455SOL    HW284263   1.824   5.735   5.161
27456SOL     OW84264   4.611   0.097  13.212
27456SOL    HW184265   4.519   0.121  13.207
27456SOL    HW284266   4.612   0.001  13.203
27457SOL     OW84267   7.403  11.501   4.039
27457SOL    HW184268   7.314  11.533   4.030
27457SOL    HW284269   7.444  11.560   4.102
27458SOL     OW84270  13.476   9.159   9.214
27458SOL    HW184271  13.396   9.145   9.163
27458SOL    HW284272  13.540   9.098   9.177
27459SOL     OW84273  11.222  13.793  13.867
27459SOL    HW184274  11.300  13.842  13.893
27459SOL    HW284275  11.227  13.712  13.917
27460SOL     OW84276  14.231   6.896   1.626
27460SOL    HW184277  14.169   6.835   1.665
27460SOL    HW284278  14.259   6.853   1.545
27461SOL     OW84279  12.534   3.342  11.534
27461SOL    HW184280  12.574   3.265  11.493
27461SOL    HW284281  12.498   3.309  11.616
27462SOL     OW84282   1.745   3.555  13.945
27462SOL    HW184283   1.702   3.473  13.971
27462SOL    HW284284   1.720   3.617  14.013
27463SOL     OW84285  12.159   8.753   1.753
27463SOL    HW184286  12.222   8.786   1.689
27463SOL    HW284287  12.194   8.668   1.779
27464SOL     OW84288   6.300   4.502   6.645
27464SOL    HW184289   6.277   4.556   6.569
27464SOL    HW284290   6.384   4.537   6.674
27465SOL     OW84291   2.266   3.458  14.599
27465SOL    HW184292   2.213   3.383  14.624
27465SOL    HW284293   2.211   3.508  14.539
27466SOL     OW84294   4.413   3.466  11.901
27466SOL    HW184295   4.333   3.450  11.850
27466SOL    HW284296   4.408   3.403  11.973
27467SOL     OW84297   4.098   7.474  10.297
27467SOL    HW184298   4.004   7.454  10.295
27467SOL    HW284299   4.131   7.430  10.375
27468SOL     OW84300  14.633  12.611  11.248
27468SOL    HW184301  14.558  12.610  11.307
27468SOL    HW284302  14.709  12.615  11.305
27469SOL     OW84303   6.398  13.698  13.117
27469SOL    HW184304   6.394  13.605  13.141
27469SOL    HW284305   6.402  13.744  13.200
27470SOL     OW84306  14.601  12.808   3.836
27470SOL    HW184307  14.645  12.725   3.854
27470SOL    HW284308  14.508  12.789   3.850
27471SOL     OW84309   5.960   0.818  12.396
27471SOL    HW184310   5.991   0.741  12.349
27471SOL    HW284311   6.004   0.891  12.353
27472SOL     OW84312   9.060   3.088  13.072
27472SOL    HW184313   9.133   3.134  13.114
27472SOL    HW284314   8.982   3.134  13.101
27473SOL     OW84315  14.574   0.551  11.823
27473SOL    HW184316  14.548   0.595  11.905
27473SOL    HW284317  14.659   0.513  11.842
27474SOL     OW84318  10.199   8.979   9.813
27474SOL    HW184319  10.155   8.896   9.832
27474SOL    HW284320  10.251   8.961   9.735
27475SOL     OW84321   9.868   2.628   2.454
27475SOL    HW184322   9.889   2.595   2.542
27475SOL    HW284323   9.804   2.698   2.470
27476SOL     OW84324   5.401   8.214   2.978
27476SOL    HW184325   5.421   8.270   2.903
27476SOL    HW284326   5.482   8.168   2.996
27477SOL     OW84327   7.265   0.532  10.574
27477SOL    HW184328   7.189   0.477  10.556
27477SOL    HW284329   7.339   0.471  10.573
27478SOL     OW84330  10.891   5.093  14.341
27478SOL    HW184331  10.909   5.004  14.371
27478SOL    HW284332  10.883   5.086  14.246
27479SOL     OW84333   0.936   1.778   3.042
27479SOL    HW184334   0.934   1.786   2.947
27479SOL    HW284335   0.899   1.692   3.060
27480SOL     OW84336   2.647   4.374  10.047
27480SOL    HW184337   2.709   4.340  10.111
27480SOL    HW284338   2.575   4.409  10.099
27481SOL     OW84339  10.724   1.779   6.182
27481SOL    HW184340  10.678   1.788   6.265
27481SOL    HW284341  10.808   1.740   6.205
27482SOL     OW84342   6.073  10.999   9.639
27482SOL    HW184343   6.113  10.934   9.697
27482SOL    HW284344   5.992  10.957   9.610
27483SOL     OW84345   1.190   2.905  10.965
27483SOL    HW184346   1.283   2.915  10.986
27483SOL    HW284347   1.169   2.983  10.914
27484SOL     OW84348   5.063   8.199  11.252
27484SOL    HW184349   5.026   8.116  11.220
27484SOL    HW284350   5.053   8.260  11.178
27485SOL     OW84351  11.094  13.267   5.067
27485SOL    HW184352  10.999  13.276   5.080
27485SOL    HW284353  11.105  13.256   4.973
27486SOL     OW84354  14.621  11.882   9.941
27486SOL    HW184355  14.668  11.894  10.024
27486SOL    HW284356  14.675  11.819   9.892
27487SOL     OW84357  10.565   0.938  14.802
27487SOL    HW184358  10.497   0.989  14.759
27487SOL    HW284359  10.618   0.902  14.731
27488SOL     OW84360  11.383   3.584   6.677
27488SOL    HW184361  11.444   3.625   6.738
27488SOL    HW284362  11.296   3.604   6.713
27489SOL     OW84363   7.641   8.475  14.679
27489SOL    HW184364   7.611   8.436  14.762
27489SOL    HW284365   7.733   8.451  14.673
27490SOL     OW84366   9.578   0.377   4.530
27490SOL    HW184367   9.592   0.463   4.570
27490SOL    HW284368   9.642   0.320   4.574
27491SOL     OW84369   0.746   8.162  11.703
27491SOL    HW184370   0.809   8.212  11.755
27491SOL    HW284371   0.729   8.217  11.626
27492SOL     OW84372   2.021  13.111   9.686
27492SOL    HW184373   2.068  13.032   9.660
27492SOL    HW284374   2.063  13.181   9.636
27493SOL     OW84375   7.029  13.415   9.137
27493SOL    HW184376   7.036  13.469   9.058
27493SOL    HW284377   6.950  13.446   9.181
27494SOL     OW84378   9.168   8.887   5.951
27494SOL    HW184379   9.217   8.969   5.950
27494SOL    HW284380   9.098   8.900   5.887
27495SOL     OW84381   3.484   7.679   6.992
27495SOL    HW184382   3.504   7.586   7.004
27495SOL    HW284383   3.524   7.701   6.908
27496SOL     OW84384  11.143   7.902   2.666
27496SOL    HW184385  11.063   7.871   2.709
27496SOL    HW284386  11.136   7.998   2.669
27497SOL     OW84387   4.768   1.856  10.244
27497SOL    HW184388   4.684   1.845  10.290
27497SOL    HW284389   4.812   1.772  10.255
27498SOL     OW84390   0.931   1.481   4.006
27498SOL    HW184391   0.911   1.462   3.914
27498SOL    HW284392   1.016   1.525   4.003
27499SOL     OW84393  13.493   5.501   1.598
27499SOL    HW184394  13.496   5.495   1.502
27499SOL    HW284395  13.407   5.465   1.621
27500SOL     OW84396   0.937   0.459  10.556
27500SOL    HW184397   0.949   0.444  10.462
27500SOL    HW284398   0.861   0.517  10.562
27501SOL     OW84399   0.364   2.652  11.715
27501SOL    HW184400   0.271   2.674  11.719
27501SOL    HW284401   0.382   2.605  11.796
27502SOL     OW84402  11.510   8.139  13.974
27502SOL    HW184403  11.466   8.206  13.921
27502SOL    HW284404  11.467   8.057  13.950
27503SOL     OW84405   5.994   2.945   0.864
27503SOL    HW184406   5.972   2.866   0.913
27503SOL    HW284407   6.023   3.007   0.931
27504SOL     OW84408   6.650  12.255   7.850
27504SOL    HW184409   6.716  12.211   7.904
27504SOL    HW284410   6.583  12.284   7.913
27505SOL     OW84411   9.699   5.314  14.261
27505SOL    HW184412   9.773   5.268  14.300
27505SOL    HW284413   9.652   5.350  14.336
27506SOL     OW84414   8.295   0.060   8.326
27506SOL    HW184415   8.377   0.108   8.337
27506SOL    HW284416   8.322  14.844   8.300
27507SOL     OW84417  13.180   1.127   8.836
27507SOL    HW184418  13.248   1.123   8.903
27507SOL    HW284419  13.139   1.040   8.838
27508SOL     OW84420   4.534  10.549  13.584
27508SOL    HW184421   4.446  10.556  13.622
27508SOL    HW284422   4.518  10.518  13.495
27509SOL     OW84423  11.255   2.062  10.855
27509SOL    HW184424  11.247   2.012  10.774
27509SOL    HW284425  11.316   2.011  10.908
27510SOL     OW84426   3.105   2.424  10.711
27510SOL    HW184427   3.161   2.494  10.745
27510SOL    HW284428   3.033   2.418  10.773
27511SOL     OW84429   5.151   7.415  10.162
27511SOL    HW184430   5.219   7.414  10.095
27511SOL    HW284431   5.198   7.402  10.244
27512SOL     OW84432  11.549   8.895   6.206
27512SOL    HW184433  11.590   8.940   6.280
27512SOL    HW284434  11.603   8.918   6.130
27513SOL     OW84435   3.694   9.322  10.649
27513SOL    HW184436   3.784   9.299  10.626
27513SOL    HW284437   3.691   9.417  10.647
27514SOL     OW84438   0.341   7.612  11.867
27514SOL    HW184439   0.299   7.698  11.866
27514SOL    HW284440   0.417   7.622  11.810
27515SOL     OW84441  10.702  14.039   1.497
27515SOL    HW184442  10.759  14.115   1.503
27515SOL    HW284443  10.616  14.070   1.524
27516SOL     OW84444   3.591   4.059   9.922
27516SOL    HW184445   3.521   4.121   9.901
27516SOL    HW284446   3.556   3.973   9.897
27517SOL     OW84447  10.575   2.727   0.084
27517SOL    HW184448  10.578   2.777   0.166
27517SOL    HW284449  10.588   2.636   0.112
27518SOL     OW84450   7.896   2.106   2.902
27518SOL    HW184451   7.828   2.126   2.837
27518SOL    HW284452   7.979   2.122   2.855
27519SOL     OW84453  12.076   4.184  13.896
27519SOL    HW184454  12.030   4.161  13.977
27519SOL    HW284455  12.067   4.279  13.889
27520SOL     OW84456  11.140   6.934   1.289
27520SOL    HW184457  11.100   6.926   1.202
27520SOL    HW284458  11.228   6.897   1.278
27521SOL     OW84459   1.151   6.268   8.754
27521SOL    HW184460   1.083   6.201   8.760
27521SOL    HW284461   1.173   6.288   8.845
27522SOL     OW84462   7.963   1.925   4.218
27522SOL    HW184463   7.898   1.990   4.192
27522SOL    HW284464   8.012   1.967   4.289
27523SOL     OW84465   1.210   5.954   0.802
27523SOL    HW184466   1.212   5.942   0.897
27523SOL    HW284467   1.121   5.982   0.783
27524SOL     OW84468   4.803   2.461   4.800
27524SOL    HW184469   4.766   2.549   4.790
27524SOL    HW284470   4.728   2.404   4.816
27525SOL     OW84471   1.951   3.080  13.475
27525SOL    HW184472   1.942   3.071  13.380
27525SOL    HW284473   1.862   3.069  13.509
27526SOL     OW84474   2.687   1.001  11.139
27526SOL    HW184475   2.775   1.034  11.161
27526SOL    HW284476   2.660   0.953  11.217
27527SOL     OW84477   7.485   3.659  13.774
27527SOL    HW184478   7.508   3.634  13.685
27527SOL    HW284479   7.396   3.624  13.787
27528SOL     OW84480   6.108  10.401   8.058
27528SOL    HW184481   6.073  10.350   8.131
27528SOL    HW284482   6.099  10.492   8.085
27529SOL     OW84483   2.233  10.539   2.638
27529SOL    HW184484   2.243  10.469   2.702
27529SOL    HW284485   2.150  10.581   2.662
27530SOL     OW84486   3.694  12.714  12.157
27530SOL    HW184487   3.636  12.640  12.177
27530SOL    HW284488   3.640  12.792  12.172
27531SOL     OW84489   6.610   5.332   6.375
27531SOL    HW184490   6.550   5.391   6.331
27531SOL    HW284491   6.580   5.330   6.466
27532SOL     OW84492   0.490   7.580   6.876
27532SOL    HW184493   0.550   7.505   6.883
27532SOL    HW284494   0.403   7.543   6.887
27533SOL     OW84495  10.467  14.478   1.156
27533SOL    HW184496  10.381  14.519   1.144
27533SOL    HW284497  10.475  14.470   1.251
27534SOL     OW84498   7.281   3.922   8.012
27534SOL    HW184499   7.370   3.886   8.014
27534SOL    HW284500   7.224   3.847   8.025
27535SOL     OW84501  14.490  13.680   5.264
27535SOL    HW184502  14.396  13.675   5.276
27535SOL    HW284503  14.505  13.765   5.221
27536SOL     OW84504   4.828   3.909   2.070
27536SOL    HW184505   4.850   3.982   2.012
27536SOL    HW284506   4.910   3.887   2.114
27537SOL     OW84507   0.573   4.398   0.140
27537SOL    HW184508   0.611   4.481   0.168
27537SOL    HW284509   0.624   4.331   0.186
27538SOL     OW84510   0.128   8.531  11.838
27538SOL    HW184511   0.160   8.445  11.809
27538SOL    HW284512   0.193   8.561  11.901
27539SOL     OW84513  12.593   8.456   5.643
27539SOL    HW184514  12.675   8.503   5.630
27539SOL    HW284515  12.605   8.409   5.725
27540SOL     OW84516  10.068  11.272   2.713
27540SOL    HW184517  10.082  11.356   2.757
27540SOL    HW284518   9.982  11.243   2.742
27541SOL     OW84519   1.694   0.673   7.012
27541SOL    HW184520   1.638   0.644   7.084
27541SOL    HW284521   1.757   0.602   7.001
27542SOL     OW84522   8.492   2.090  14.825
27542SOL    HW184523   8.548   2.090   0.031
27542SOL    HW284524   8.467   1.998  14.813
27543SOL     OW84525   1.983  10.909  11.444
27543SOL    HW184526   2.045  10.866  11.385
27543SOL    HW284527   1.908  10.849  11.448
27544SOL     OW84528   2.467   9.573  14.005
27544SOL    HW184529   2.451   9.503  13.941
27544SOL    HW284530   2.390   9.572  14.061
27545SOL     OW84531   5.764   9.007   6.417
27545SOL    HW184532   5.792   9.066   6.347
27545SOL    HW284533   5.837   8.946   6.428
27546SOL     OW84534   3.694   6.671   5.480
27546SOL    HW184535   3.618   6.681   5.537
27546SOL    HW284536   3.693   6.749   5.424
27547SOL     OW84537   1.590   8.535   9.013
27547SOL    HW184538   1.516   8.487   9.051
27547SOL    HW284539   1.632   8.471   8.955
27548SOL     OW84540  13.409   2.249   9.453
27548SOL    HW184541  13.374   2.335   9.477
27548SOL    HW284542  13.386   2.192   9.527
27549SOL     OW84543   5.219  13.214  13.553
27549SOL    HW184544   5.301  13.166  13.542
27549SOL    HW284545   5.198  13.204  13.646
27550SOL     OW84546  11.059   8.932   6.298
27550SOL    HW184547  11.153   8.952   6.290
27550SOL    HW284548  11.026   8.999   6.358
27551SOL     OW84549   8.285  11.359   6.666
27551SOL    HW184550   8.191  11.373   6.655
27551SOL    HW284551   8.293  11.310   6.748
27552SOL     OW84552   5.701   7.743   8.719
27552SOL    HW184553   5.656   7.660   8.735
27552SOL    HW284554   5.645   7.789   8.657
27553SOL     OW84555   6.845  12.506  12.245
27553SOL    HW184556   6.922  12.520  12.190
27553SOL    HW284557   6.880  12.471  12.327
27554SOL     OW84558   2.800  10.538   7.627
27554SOL    HW184559   2.768  10.583   7.705
27554SOL    HW284560   2.739  10.465   7.615
27555SOL     OW84561  10.822   2.842   8.446
27555SOL    HW184562  10.839   2.767   8.505
27555SOL    HW284563  10.726   2.845   8.439
27556SOL     OW84564   7.159   3.555  13.782
27556SOL    HW184565   7.183   3.485  13.721
27556SOL    HW284566   7.065   3.543  13.797
27557SOL     OW84567   9.400   8.972  12.711
27557SOL    HW184568   9.310   8.986  12.739
27557SOL    HW284569   9.393   8.921  12.631
27558SOL     OW84570  12.325  11.526   8.933
27558SOL    HW184571  12.240  11.486   8.950
27558SOL    HW284572  12.328  11.602   8.991
27559SOL     OW84573   1.181   0.160  14.059
27559SOL    HW184574   1.154   0.081  14.106
27559SOL    HW284575   1.245   0.201  14.117
27560SOL     OW84576   1.787   9.796  11.923
27560SOL    HW184577   1.872   9.753  11.920
27560SOL    HW284578   1.774   9.816  12.016
27561SOL     OW84579   6.172   5.024   6.891
27561SOL    HW184580   6.151   5.016   6.985
27561SOL    HW284581   6.088   5.041   6.849
27562SOL     OW84582   2.641  10.509   0.824
27562SOL    HW184583   2.589  10.589   0.834
27562SOL    HW284584   2.616  10.476   0.738
27563SOL     OW84585  10.389  10.550   8.335
27563SOL    HW184586  10.368  10.640   8.310
27563SOL    HW284587  10.467  10.559   8.390
27564SOL     OW84588   0.420  11.704   1.801
27564SOL    HW184589   0.366  11.708   1.722
27564SOL    HW284590   0.460  11.791   1.806
27565SOL     OW84591   5.232  12.870   5.564
27565SOL    HW184592   5.179  12.806   5.611
27565SOL    HW284593   5.322  12.843   5.578
27566SOL     OW84594   6.491  13.050   6.827
27566SOL    HW184595   6.452  13.014   6.906
27566SOL    HW284596   6.438  13.016   6.756
27567SOL     OW84597  11.833   2.736  14.037
27567SOL    HW184598  11.868   2.804  14.094
27567SOL    HW284599  11.894   2.733  13.963
27568SOL     OW84600  14.630   8.818   6.013
27568SOL    HW184601  14.604   8.900   6.054
27568SOL    HW284602  14.687   8.776   6.077
27569SOL     OW84603   1.500   1.480  14.665
27569SOL    HW184604   1.531   1.569  14.677
27569SOL    HW284605   1.578   1.425  14.681
27570SOL     OW84606   3.834   7.027   5.955
27570SOL    HW184607   3.864   7.003   5.867
27570SOL    HW284608   3.740   7.012   5.952
27571SOL     OW84609  13.188   9.866   7.087
27571SOL    HW184610  13.176   9.773   7.068
27571SOL    HW284611  13.103   9.894   7.120
27572SOL     OW84612   1.349   1.701   0.627
27572SOL    HW184613   1.363   1.729   0.537
27572SOL    HW284614   1.298   1.621   0.620
27573SOL     OW84615  13.471   5.489   2.373
27573SOL    HW184616  13.469   5.474   2.468
27573SOL    HW284617  13.523   5.568   2.363
27574SOL     OW84618   0.949   6.906   2.669
27574SOL    HW184619   0.911   6.853   2.599
27574SOL    HW284620   1.017   6.958   2.626
27575SOL     OW84621   9.102   3.858  14.287
27575SOL    HW184622   9.033   3.863  14.353
27575SOL    HW284623   9.142   3.773  14.299
27576SOL     OW84624  14.660  11.681   6.072
27576SOL    HW184625  14.589  11.730   6.115
27576SOL    HW284626  14.727  11.747   6.055
27577SOL     OW84627   2.326  13.914   2.216
27577SOL    HW184628   2.381  13.853   2.166
27577SOL    HW284629   2.310  13.986   2.155
27578SOL     OW84630  10.368   0.400   0.107
27578SOL    HW184631  10.391   0.493   0.107
27578SOL    HW284632  10.424   0.362   0.039
27579SOL     OW84633   6.201   3.159   7.423
27579SOL    HW184634   6.162   3.150   7.336
27579SOL    HW284635   6.236   3.248   7.424
27580SOL     OW84636   2.731   5.416   8.754
27580SOL    HW184637   2.679   5.456   8.824
27580SOL    HW284638   2.674   5.347   8.719
27581SOL     OW84639   4.382  11.974   5.228
27581SOL    HW184640   4.415  11.885   5.236
27581SOL    HW284641   4.459  12.030   5.239
27582SOL     OW84642   8.042   6.955  11.190
27582SOL    HW184643   8.078   7.031  11.143
27582SOL    HW284644   8.003   6.901  11.121
27583SOL     OW84645   1.433   7.636   0.788
27583SOL    HW184646   1.513   7.679   0.756
27583SOL    HW284647   1.410   7.575   0.718
27584SOL     OW84648  14.773   9.844  14.194
27584SOL    HW184649  14.806   9.755  14.183
27584SOL    HW284650  14.678   9.836  14.189
27585SOL     OW84651   1.768   6.841   6.572
27585SOL    HW184652   1.803   6.771   6.626
27585SOL    HW284653   1.682   6.859   6.610
27586SOL     OW84654  13.736   7.915   8.061
27586SOL    HW184655  13.777   7.961   7.988
27586SOL    HW284656  13.762   7.823   8.050
27587SOL     OW84657   6.429  12.212  13.539
27587SOL    HW184658   6.486  12.195  13.464
27587SOL    HW284659   6.471  12.168  13.612
27588SOL     OW84660   9.273   2.790   1.556
27588SOL    HW184661   9.281   2.729   1.629
27588SOL    HW284662   9.332   2.862   1.578
27589SOL     OW84663   1.889   4.874  13.830
27589SOL    HW184664   1.943   4.795  13.838
27589SOL    HW284665   1.928   4.935  13.893
27590SOL     OW84666   4.093   7.405   5.071
27590SOL    HW184667   4.134   7.336   5.122
27590SOL    HW284668   4.164   7.441   5.017
27591SOL     OW84669   1.155   4.996   1.747
27591SOL    HW184670   1.091   5.054   1.788
27591SOL    HW284671   1.180   5.041   1.667
27592SOL     OW84672  11.466  10.900   5.370
27592SOL    HW184673  11.419  10.983   5.371
27592SOL    HW284674  11.558  10.924   5.364
27593SOL     OW84675   6.584   0.305   1.583
27593SOL    HW184676   6.574   0.382   1.527
27593SOL    HW284677   6.646   0.331   1.651
27594SOL     OW84678   9.767  11.513   6.094
27594SOL    HW184679   9.736  11.555   6.174
27594SOL    HW284680   9.786  11.586   6.035
27595SOL     OW84681   6.321   2.103   2.676
27595SOL    HW184682   6.249   2.146   2.630
27595SOL    HW284683   6.366   2.174   2.722
27596SOL     OW84684   0.750   6.614   3.785
27596SOL    HW184685   0.821   6.585   3.841
27596SOL    HW284686   0.672   6.569   3.819
27597SOL     OW84687   0.600  10.532   2.940
27597SOL    HW184688   0.561  10.541   2.853
27597SOL    HW284689   0.547  10.465   2.983
27598SOL     OW84690   6.852   8.450  11.504
27598SOL    HW184691   6.921   8.400  11.548
27598SOL    HW284692   6.872   8.541  11.524
27599SOL     OW84693   5.735   9.949   7.676
27599SOL    HW184694   5.640   9.943   7.675
27599SOL    HW284695   5.753  10.039   7.704
27600SOL     OW84696  13.191   4.723   5.637
27600SOL    HW184697  13.172   4.654   5.573
27600SOL    HW284698  13.109   4.771   5.644
27601SOL     OW84699   0.011   4.928  10.104
27601SOL    HW184700  14.857   4.983  10.179
27601SOL    HW284701   0.097   4.893  10.129
27602SOL     OW84702   8.980   7.259  10.795
27602SOL    HW184703   9.060   7.209  10.812
27602SOL    HW284704   8.919   7.231  10.863
27603SOL     OW84705   9.259   5.018  13.072
27603SOL    HW184706   9.329   5.037  13.010
27603SOL    HW284707   9.248   5.100  13.120
27604SOL     OW84708  11.664  14.317   7.513
27604SOL    HW184709  11.695  14.321   7.603
27604SOL    HW284710  11.569  14.330   7.519
27605SOL     OW84711   1.835   0.114   0.331
27605SOL    HW184712   1.820   0.020   0.321
27605SOL    HW284713   1.881   0.122   0.415
27606SOL     OW84714   1.067   0.308  13.879
27606SOL    HW184715   1.001   0.346  13.936
27606SOL    HW284716   1.115   0.246  13.934
27607SOL     OW84717  10.995   1.867  10.137
27607SOL    HW184718  10.907   1.847  10.171
27607SOL    HW284719  10.996   1.828  10.050
27608SOL     OW84720  13.535   3.043   4.377
27608SOL    HW184721  13.534   2.984   4.452
27608SOL    HW284722  13.596   3.112   4.401
27609SOL     OW84723  10.311   5.211  12.483
27609SOL    HW184724  10.263   5.129  12.493
27609SOL    HW284725  10.378   5.192  12.417
27610SOL     OW84726   4.461   1.286  12.459
27610SOL    HW184727   4.374   1.249  12.442
27610SOL    HW284728   4.446   1.381  12.464
27611SOL     OW84729   3.147   5.250  13.430
27611SOL    HW184730   3.187   5.315  13.373
27611SOL    HW284731   3.090   5.300  13.488
27612SOL     OW84732  10.960  10.475  10.531
27612SOL    HW184733  10.986  10.390  10.566
27612SOL    HW284734  11.033  10.533  10.551
27613SOL     OW84735   7.507   0.684   8.086
27613SOL    HW184736   7.429   0.704   8.034
27613SOL    HW284737   7.538   0.600   8.053
27614SOL     OW84738  11.025  10.125  11.097
27614SOL    HW184739  11.004  10.190  11.029
27614SOL    HW284740  10.983  10.158  11.176
27615SOL     OW84741  13.841   9.001   4.815
27615SOL    HW184742  13.792   8.935   4.766
27615SOL    HW284743  13.851   8.963   4.902
27616SOL     OW84744  14.311   2.115   3.061
27616SOL    HW184745  14.375   2.140   3.127
27616SOL    HW284746  14.229   2.155   3.089
27617SOL     OW84747   2.359  11.872  13.988
27617SOL    HW184748   2.343  11.962  14.015
27617SOL    HW284749   2.404  11.880  13.904
27618SOL     OW84750   4.568   6.600   6.073
27618SOL    HW184751   4.522   6.517   6.082
27618SOL    HW284752   4.636   6.582   6.007
27619SOL     OW84753  10.701  13.832   4.480
27619SOL    HW184754  10.621  13.837   4.533
27619SOL    HW284755  10.688  13.897   4.411
27620SOL     OW84756   4.079   6.620   3.643
27620SOL    HW184757   4.129   6.659   3.571
27620SOL    HW284758   4.078   6.527   3.624
27621SOL     OW84759   0.938   3.494   8.441
27621SOL    HW184760   0.987   3.573   8.464
27621SOL    HW284761   0.892   3.517   8.360
27622SOL     OW84762   4.089  13.349   2.826
27622SOL    HW184763   4.037  13.276   2.793
27622SOL    HW284764   4.037  13.387   2.896
27623SOL     OW84765   0.298  11.081   3.284
27623SOL    HW184766   0.295  10.985   3.285
27623SOL    HW284767   0.384  11.102   3.248
27624SOL     OW84768   5.408  13.487   7.981
27624SOL    HW184769   5.375  13.480   7.892
27624SOL    HW284770   5.499  13.515   7.971
27625SOL     OW84771  13.186  12.441   4.817
27625SOL    HW184772  13.271  12.475   4.843
27625SOL    HW284773  13.158  12.388   4.892
27626SOL     OW84774   2.780   0.743   4.598
27626SOL    HW184775   2.742   0.692   4.671
27626SOL    HW284776   2.774   0.834   4.628
27627SOL     OW84777   2.552  14.735   0.424
27627SOL    HW184778   2.498  14.690   0.358
27627SOL    HW284779   2.642  14.708   0.404
27628SOL     OW84780  14.709   8.585   3.069
27628SOL    HW184781  14.698   8.621   2.981
27628SOL    HW284782  14.804   8.585   3.083
27629SOL     OW84783  14.003  13.453   0.971
27629SOL    HW184784  13.939  13.516   0.938
27629SOL    HW284785  13.974  13.369   0.937
27630SOL     OW84786   0.659   4.652   1.723
27630SOL    HW184787   0.743   4.690   1.750
27630SOL    HW284788   0.594   4.710   1.763
27631SOL     OW84789   2.228   8.458  10.619
27631SOL    HW184790   2.171   8.382  10.615
27631SOL    HW284791   2.186   8.516  10.682
27632SOL     OW84792   6.719  13.381   6.993
27632SOL    HW184793   6.644  13.437   7.016
27632SOL    HW284794   6.704  13.358   6.901
27633SOL     OW84795   2.928   7.342   3.907
27633SOL    HW184796   2.900   7.429   3.879
27633SOL    HW284797   2.883   7.328   3.990
27634SOL     OW84798   7.023   4.511   5.400
27634SOL    HW184799   6.962   4.523   5.326
27634SOL    HW284800   6.975   4.455   5.461
27635SOL     OW84801  12.146  10.862   3.588
27635SOL    HW184802  12.140  10.884   3.495
27635SOL    HW284803  12.210  10.791   3.592
27636SOL     OW84804   8.711   7.421  10.227
27636SOL    HW184805   8.629   7.431  10.276
27636SOL    HW284806   8.767   7.490  10.261
27637SOL     OW84807  12.794   6.435   8.035
27637SOL    HW184808  12.821   6.489   8.109
27637SOL    HW284809  12.823   6.346   8.057
27638SOL     OW84810  13.465  14.191   0.698
27638SOL    HW184811  13.410  14.221   0.625
27638SOL    HW284812  13.477  14.268   0.753
27639SOL     OW84813  13.337   9.505   0.830
27639SOL    HW184814  13.402   9.537   0.893
27639SOL    HW284815  13.376   9.522   0.744
27640SOL     OW84816   5.148  11.308   9.984
27640SOL    HW184817   5.195  11.252   9.922
27640SOL    HW284818   5.208  11.381  10.000
27641SOL     OW84819   4.317   2.477  11.588
27641SOL    HW184820   4.401   2.522  11.583
27641SOL    HW284821   4.336   2.387  11.562
27642SOL     OW84822   2.561   4.179   4.895
27642SOL    HW184823   2.477   4.184   4.941
27642SOL    HW284824   2.579   4.269   4.869
27643SOL     OW84825   4.010  10.230   0.406
27643SOL    HW184826   4.094  10.237   0.362
27643SOL    HW284827   4.027  10.260   0.496
27644SOL     OW84828   1.453  13.895   6.673
27644SOL    HW184829   1.395  13.965   6.703
27644SOL    HW284830   1.530  13.941   6.639
27645SOL     OW84831  12.869  13.203  14.736
27645SOL    HW184832  12.795  13.219  14.678
27645SOL    HW284833  12.896  13.290  14.766
27646SOL     OW84834  11.577   2.673   3.992
27646SOL    HW184835  11.493   2.718   3.981
27646SOL    HW284836  11.631   2.734   4.042
27647SOL     OW84837  11.933  13.932   9.571
27647SOL    HW184838  11.877  13.865   9.532
27647SOL    HW284839  11.974  13.975   9.496
27648SOL     OW84840   1.428   7.257  11.734
27648SOL    HW184841   1.474   7.178  11.707
27648SOL    HW284842   1.477   7.328  11.693
27649SOL     OW84843   8.207  12.539  12.104
27649SOL    HW184844   8.209  12.526  12.199
27649SOL    HW284845   8.139  12.478  12.074
27650SOL     OW84846   7.561   3.596   8.950
27650SOL    HW184847   7.510   3.518   8.969
27650SOL    HW284848   7.577   3.635   9.036
27651SOL     OW84849   5.215   9.924  13.322
27651SOL    HW184850   5.273   9.981  13.372
27651SOL    HW284851   5.161   9.984  13.271
27652SOL     OW84852  14.097   5.035   3.455
27652SOL    HW184853  14.162   5.099   3.486
27652SOL    HW284854  14.127   5.013   3.366
27653SOL     OW84855  12.056   1.130   0.853
27653SOL    HW184856  11.987   1.137   0.919
27653SOL    HW284857  12.126   1.188   0.885
27654SOL     OW84858  11.895   3.728   8.320
27654SOL    HW184859  11.939   3.808   8.350
27654SOL    HW284860  11.961   3.683   8.266
27655SOL     OW84861   6.194   5.771   9.080
27655SOL    HW184862   6.264   5.790   9.143
27655SOL    HW284863   6.162   5.856   9.053
27656SOL     OW84864   5.128   0.364   7.414
27656SOL    HW184865   5.092   0.452   7.404
27656SOL    HW284866   5.109   0.341   7.505
27657SOL     OW84867  10.437   2.807  13.208
27657SOL    HW184868  10.371   2.776  13.271
27657SOL    HW284869  10.496   2.861  13.260
27658SOL     OW84870   1.022   0.442  14.317
27658SOL    HW184871   0.955   0.445  14.385
27658SOL    HW284872   1.098   0.403  14.360
27659SOL     OW84873  11.737  12.095  11.688
27659SOL    HW184874  11.673  12.094  11.759
27659SOL    HW284875  11.770  12.006  11.684
27660SOL     OW84876   2.819   9.123   4.824
27660SOL    HW184877   2.849   9.059   4.889
27660SOL    HW284878   2.768   9.186   4.875
27661SOL     OW84879   6.970   1.233   5.848
27661SOL    HW184880   6.880   1.261   5.866
27661SOL    HW284881   6.968   1.204   5.757
27662SOL     OW84882   5.578   3.945  13.125
27662SOL    HW184883   5.638   3.936  13.199
27662SOL    HW284884   5.510   4.005  13.156
27663SOL     OW84885   7.301  10.921   9.268
27663SOL    HW184886   7.251  10.840   9.259
27663SOL    HW284887   7.315  10.931   9.362
27664SOL     OW84888   0.660   4.012  11.556
27664SOL    HW184889   0.643   4.106  11.554
27664SOL    HW284890   0.691   3.992  11.467
27665SOL     OW84891   4.494   9.840   4.325
27665SOL    HW184892   4.399   9.831   4.322
27665SOL    HW284893   4.521   9.794   4.404
27666SOL     OW84894  13.944  10.773   3.339
27666SOL    HW184895  13.948  10.838   3.409
27666SOL    HW284896  13.930  10.690   3.384
27667SOL     OW84897   0.984   8.558   9.623
27667SOL    HW184898   0.891   8.543   9.606
27667SOL    HW284899   0.999   8.519   9.709
27668SOL     OW84900  11.411  11.007   1.894
27668SOL    HW184901  11.459  10.926   1.912
27668SOL    HW284902  11.478  11.070   1.868
27669SOL     OW84903  13.987   0.133   0.533
27669SOL    HW184904  14.049   0.203   0.555
27669SOL    HW284905  13.966   0.093   0.616
27670SOL     OW84906   5.495  10.673   1.411
27670SOL    HW184907   5.568  10.614   1.391
27670SOL    HW284908   5.524  10.723   1.488
27671SOL     OW84909   8.014  14.152   4.715
27671SOL    HW184910   8.058  14.227   4.673
27671SOL    HW284911   8.068  14.133   4.791
27672SOL     OW84912   5.887   4.089   1.110
27672SOL    HW184913   5.797   4.058   1.101
27672SOL    HW284914   5.914   4.113   1.022
27673SOL     OW84915  10.868   8.833   3.382
27673SOL    HW184916  10.891   8.760   3.439
27673SOL    HW284917  10.774   8.843   3.393
27674SOL     OW84918  12.762   0.063   6.993
27674SOL    HW184919  12.740   0.156   6.988
27674SOL    HW284920  12.706   0.029   7.062
27675SOL     OW84921   2.609  11.277   8.471
27675SOL    HW184922   2.684  11.253   8.525
27675SOL    HW284923   2.542  11.212   8.493
27676SOL     OW84924   3.928   5.530  10.491
27676SOL    HW184925   3.853   5.580  10.460
27676SOL    HW284926   3.890   5.456  10.539
27677SOL     OW84927   3.396  12.419  12.000
27677SOL    HW184928   3.492  12.416  12.001
27677SOL    HW284929   3.374  12.509  12.022
27678SOL     OW84930   6.096  10.443   5.916
27678SOL    HW184931   6.029  10.421   5.980
27678SOL    HW284932   6.178  10.411   5.954
27679SOL     OW84933   2.037   4.402  10.095
27679SOL    HW184934   2.005   4.326  10.144
27679SOL    HW284935   1.971   4.470  10.112
27680SOL     OW84936  14.090   0.642   0.373
27680SOL    HW184937  14.004   0.618   0.409
27680SOL    HW284938  14.072   0.716   0.316
27681SOL     OW84939   8.972   9.345  14.623
27681SOL    HW184940   9.051   9.383  14.583
27681SOL    HW284941   8.910   9.418  14.625
27682SOL     OW84942   9.380  10.013   8.487
27682SOL    HW184943   9.354  10.029   8.397
27682SOL    HW284944   9.301   9.980   8.530
27683SOL     OW84945   7.287  11.359   3.118
27683SOL    HW184946   7.348  11.293   3.085
27683SOL    HW284947   7.339  11.439   3.124
27684SOL     OW84948   3.255  14.034  14.492
27684SOL    HW184949   3.289  14.070  14.410
27684SOL    HW284950   3.233  14.110  14.545
27685SOL     OW84951  12.809  12.978  10.214
27685SOL    HW184952  12.828  12.904  10.271
27685SOL    HW284953  12.810  12.942  10.126
27686SOL     OW84954   3.622   6.536  13.028
27686SOL    HW184955   3.620   6.441  13.038
27686SOL    HW284956   3.597   6.551  12.937
27687SOL     OW84957   9.259  11.137   9.130
27687SOL    HW184958   9.216  11.052   9.120
27687SOL    HW284959   9.334  11.133   9.070
27688SOL     OW84960  10.903   5.854  12.996
27688SOL    HW184961  10.849   5.775  12.991
27688SOL    HW284962  10.846   5.923  12.963
27689SOL     OW84963   7.227   7.685  12.320
27689SOL    HW184964   7.226   7.635  12.402
27689SOL    HW284965   7.141   7.727  12.316
27690SOL     OW84966  11.277   8.606   3.559
27690SOL    HW184967  11.357   8.554   3.553
27690SOL    HW284968  11.225   8.578   3.484
27691SOL     OW84969   0.742  12.317   6.883
27691SOL    HW184970   0.781  12.232   6.901
27691SOL    HW284971   0.671  12.299   6.821
27692SOL     OW84972  13.845   3.722   2.588
27692SOL    HW184973  13.806   3.759   2.508
27692SOL    HW284974  13.838   3.627   2.576
27693SOL     OW84975  11.062  11.836  13.515
27693SOL    HW184976  11.050  11.928  13.491
27693SOL    HW284977  10.994  11.819  13.581
27694SOL     OW84978   3.456   7.837   0.043
27694SOL    HW184979   3.516   7.814  14.844
27694SOL    HW284980   3.370   7.835   0.003
27695SOL     OW84981   0.177   1.153   5.562
27695SOL    HW184982   0.083   1.139   5.575
27695SOL    HW284983   0.185   1.246   5.544
27696SOL     OW84984  13.165  12.779   0.391
27696SOL    HW184985  13.158  12.683   0.391
27696SOL    HW284986  13.155  12.804   0.482
27697SOL     OW84987   5.656  14.611   0.214
27697SOL    HW184988   5.720  14.549   0.176
27697SOL    HW284989   5.571  14.573   0.192
27698SOL     OW84990   2.273   2.643  11.409
27698SOL    HW184991   2.344   2.641  11.344
27698SOL    HW284992   2.196   2.611  11.361
27699SOL     OW84993   2.825   4.677   6.322
27699SOL    HW184994   2.827   4.586   6.352
27699SOL    HW284995   2.793   4.726   6.398
27700SOL     OW84996   9.503   9.662   5.557
27700SOL    HW184997   9.422   9.672   5.606
27700SOL    HW284998   9.557   9.604   5.611
27701SOL     OW84999   9.196  13.492  13.264
27701SOL    HW185000   9.206  13.396  13.264
27701SOL    HW285001   9.222  13.519  13.176
27702SOL     OW85002   2.652   7.460   8.126
27702SOL    HW185003   2.593   7.431   8.196
27702SOL    HW285004   2.729   7.405   8.136
27703SOL     OW85005   3.042   2.143  14.072
27703SOL    HW185006   2.993   2.193  14.007
27703SOL    HW285007   3.114   2.201  14.098
27704SOL     OW85008   9.728   4.645   4.064
27704SOL    HW185009   9.714   4.553   4.041
27704SOL    HW285010   9.664   4.663   4.133
27705SOL     OW85011   5.508   6.613   6.333
27705SOL    HW185012   5.505   6.575   6.421
27705SOL    HW285013   5.580   6.566   6.290
27706SOL     OW85014  11.602   0.066  14.696
27706SOL    HW185015  11.623  14.864  14.753
27706SOL    HW285016  11.511   0.052  14.672
27707SOL     OW85017  11.184  10.213  12.992
27707SOL    HW185018  11.128  10.150  13.036
27707SOL    HW285019  11.144  10.224  12.905
27708SOL     OW85020  11.351   7.223   7.569
27708SOL    HW185021  11.274   7.268   7.602
27708SOL    HW285022  11.424   7.264   7.615
27709SOL     OW85023  12.290   3.667   4.667
27709SOL    HW185024  12.299   3.707   4.753
27709SOL    HW285025  12.255   3.737   4.611
27710SOL     OW85026  11.163   0.157   6.394
27710SOL    HW185027  11.227   0.103   6.348
27710SOL    HW285028  11.085   0.103   6.401
27711SOL     OW85029   4.487   1.796   9.524
27711SOL    HW185030   4.453   1.859   9.460
27711SOL    HW285031   4.463   1.834   9.609
27712SOL     OW85032  12.104   6.035   8.803
27712SOL    HW185033  12.154   6.085   8.738
27712SOL    HW285034  12.157   6.041   8.883
27713SOL     OW85035  14.795  11.795   2.420
27713SOL    HW185036  14.805  11.857   2.348
27713SOL    HW285037  14.785  11.710   2.378
27714SOL     OW85038   7.828  13.496   6.457
27714SOL    HW185039   7.864  13.449   6.382
27714SOL    HW285040   7.841  13.588   6.436
27715SOL     OW85041   8.746   8.680   8.801
27715SOL    HW185042   8.771   8.609   8.743
27715SOL    HW285043   8.668   8.649   8.846
27716SOL     OW85044  10.597  10.043  11.858
27716SOL    HW185045  10.502  10.037  11.846
27716SOL    HW285046  10.624  10.114  11.800
27717SOL     OW85047   0.510   3.911  11.989
27717SOL    HW185048   0.517   3.846  11.919
27717SOL    HW285049   0.597   3.914  12.027
27718SOL     OW85050   2.563   8.315  10.506
27718SOL    HW185051   2.512   8.261  10.446
27718SOL    HW285052   2.651   8.317  10.468
27719SOL     OW85053   7.601   9.905  13.421
27719SOL    HW185054   7.585   9.997  13.443
27719SOL    HW285055   7.694   9.903  13.396
27720SOL     OW85056   9.227   9.775  12.184
27720SOL    HW185057   9.166   9.813  12.121
27720SOL    HW285058   9.299   9.838  12.188
27721SOL     OW85059   1.304   6.593  11.913
27721SOL    HW185060   1.251   6.517  11.889
27721SOL    HW285061   1.365   6.561  11.979
27722SOL     OW85062  12.870   0.864  10.346
27722SOL    HW185063  12.796   0.844  10.403
27722SOL    HW285064  12.851   0.816  10.265
27723SOL     OW85065   8.506  12.792  10.543
27723SOL    HW185066   8.518  12.697  10.550
27723SOL    HW285067   8.521  12.825  10.631
27724SOL     OW85068   8.082  12.752  11.605
27724SOL    HW185069   8.012  12.751  11.539
27724SOL    HW285070   8.126  12.836  11.591
27725SOL     OW85071  14.825   8.356  11.409
27725SOL    HW185072   0.033   8.380  11.456
27725SOL    HW285073  14.812   8.428  11.347
27726SOL     OW85074   0.252   8.370   4.128
27726SOL    HW185075   0.182   8.436   4.131
27726SOL    HW285076   0.243   8.323   4.210
27727SOL     OW85077   9.349   0.479  12.148
27727SOL    HW185078   9.367   0.439  12.233
27727SOL    HW285079   9.273   0.431  12.115
27728SOL     OW85080   8.985   0.196   6.877
27728SOL    HW185081   9.075   0.162   6.882
27728SOL    HW285082   8.943   0.141   6.811
27729SOL     OW85083   0.571   5.533  14.495
27729SOL    HW185084   0.489   5.496  14.464
27729SOL    HW285085   0.563   5.531  14.591
27730SOL     OW85086  11.632  11.793   4.109
27730SOL    HW185087  11.618  11.699   4.101
27730SOL    HW285088  11.727  11.802   4.123
27731SOL     OW85089   0.278  12.495  11.842
27731SOL    HW185090   0.191  12.529  11.864
27731SOL    HW285091   0.325  12.491  11.925
27732SOL     OW85092   3.469   3.188   4.539
27732SOL    HW185093   3.381   3.150   4.534
27732SOL    HW285094   3.456   3.269   4.589
27733SOL     OW85095   7.916   5.805   4.781
27733SOL    HW185096   7.904   5.726   4.730
27733SOL    HW285097   8.011   5.816   4.786
27734SOL     OW85098   8.458   9.194   4.478
27734SOL    HW185099   8.515   9.126   4.515
27734SOL    HW285100   8.373   9.180   4.519
27735SOL     OW85101   0.041   6.149   5.597
27735SOL    HW185102   0.028   6.236   5.635
27735SOL    HW285103  14.837   6.135   5.541
27736SOL     OW85104   9.258   6.735  10.308
27736SOL    HW185105   9.300   6.670  10.252
27736SOL    HW285106   9.302   6.817  10.287
27737SOL     OW85107   0.483   4.552   9.415
27737SOL    HW185108   0.465   4.558   9.322
27737SOL    HW285109   0.402   4.582   9.457
27738SOL     OW85110   5.069   2.071  12.716
27738SOL    HW185111   5.072   1.996  12.657
27738SOL    HW285112   4.991   2.055  12.770
27739SOL     OW85113   0.916  14.171  13.400
27739SOL    HW185114   0.988  14.221  13.440
27739SOL    HW285115   0.945  14.155  13.310
27740SOL     OW85116   2.503   6.620   8.516
27740SOL    HW185117   2.453   6.539   8.518
27740SOL    HW285118   2.561   6.610   8.440
27741SOL     OW85119  13.050   3.844   2.031
27741SOL    HW185120  13.075   3.758   1.998
27741SOL    HW285121  13.123   3.871   2.086
27742SOL     OW85122   4.647   6.129   6.287
27742SOL    HW185123   4.650   6.118   6.382
27742SOL    HW285124   4.627   6.042   6.253
27743SOL     OW85125   7.572   9.877   2.738
27743SOL    HW185126   7.637   9.907   2.675
27743SOL    HW285127   7.556   9.786   2.715
27744SOL     OW85128  13.194   0.011  12.019
27744SOL    HW185129  13.190  14.796  12.060
27744SOL    HW285130  13.226  14.865  11.930
27745SOL     OW85131   4.463   8.270   9.600
27745SOL    HW185132   4.448   8.216   9.522
27745SOL    HW285133   4.517   8.215   9.658
27746SOL     OW85134   8.174   9.259   9.359
27746SOL    HW185135   8.130   9.340   9.333
27746SOL    HW285136   8.104   9.194   9.362
27747SOL     OW85137   1.738   9.200   5.811
27747SOL    HW185138   1.683   9.148   5.870
27747SOL    HW285139   1.678   9.233   5.744
27748SOL     OW85140   7.734   2.839   8.345
27748SOL    HW185141   7.702   2.908   8.287
27748SOL    HW285142   7.773   2.774   8.287
27749SOL     OW85143   3.189   0.353   0.835
27749SOL    HW185144   3.171   0.447   0.825
27749SOL    HW285145   3.133   0.326   0.907
27750SOL     OW85146  10.502  12.766  14.069
27750SOL    HW185147  10.595  12.757  14.048
27750SOL    HW285148  10.460  12.778  13.984
27751SOL     OW85149  14.618  12.088  14.308
27751SOL    HW185150  14.619  12.168  14.362
27751SOL    HW285151  14.580  12.116  14.225
27752SOL     OW85152  13.978  13.764   5.554
27752SOL    HW185153  14.044  13.743   5.488
27752SOL    HW285154  13.907  13.805   5.503
27753SOL     OW85155  13.148  12.872   2.881
27753SOL    HW185156  13.163  12.817   2.804
27753SOL    HW285157  13.204  12.835   2.948
27754SOL     OW85158   7.235   5.169   2.529
27754SOL    HW185159   7.164   5.233   2.543
27754SOL    HW285160   7.311   5.208   2.573
27755SOL     OW85161   6.624   3.216   9.583
27755SOL    HW185162   6.548   3.269   9.559
27755SOL    HW285163   6.617   3.137   9.529
27756SOL     OW85164   0.941   8.462   7.386
27756SOL    HW185165   0.876   8.477   7.454
27756SOL    HW285166   0.890   8.459   7.305
27757SOL     OW85167   6.745   4.307   8.989
27757SOL    HW185168   6.698   4.336   9.067
27757SOL    HW285169   6.831   4.279   9.022
27758SOL     OW85170   5.380   1.764   9.650
27758SOL    HW185171   5.367   1.859   9.655
27758SOL    HW285172   5.386   1.736   9.741
27759SOL     OW85173   8.573   9.030   9.815
27759SOL    HW185174   8.611   9.012   9.901
27759SOL    HW285175   8.495   9.083   9.834
27760SOL     OW85176   0.541   3.407  10.453
27760SOL    HW185177   0.548   3.499  10.477
27760SOL    HW285178   0.511   3.363  10.533
27761SOL     OW85179  13.710   0.545  10.962
27761SOL    HW185180  13.750   0.494  11.033
27761SOL    HW285181  13.617   0.545  10.981
27762SOL     OW85182   4.985  10.654   4.765
27762SOL    HW185183   5.028  10.593   4.824
27762SOL    HW285184   4.893  10.652   4.791
27763SOL     OW85185   9.964   8.370  14.653
27763SOL    HW185186   9.911   8.420  14.592
27763SOL    HW285187   9.958   8.418  14.736
27764SOL     OW85188   3.677   2.053   9.085
27764SOL    HW185189   3.668   1.981   9.147
27764SOL    HW285190   3.749   2.027   9.028
27765SOL     OW85191  13.717   6.314   1.358
27765SOL    HW185192  13.631   6.347   1.385
27765SOL    HW285193  13.713   6.312   1.263
27766SOL     OW85194   8.802   4.129  10.066
27766SOL    HW185195   8.872   4.166  10.012
27766SOL    HW285196   8.812   4.172  10.151
27767SOL     OW85197   9.329  10.848   5.096
27767SOL    HW185198   9.355  10.936   5.121
27767SOL    HW285199   9.380  10.829   5.017
27768SOL     OW85200   1.223   6.420   4.471
27768SOL    HW185201   1.174   6.338   4.461
27768SOL    HW285202   1.309   6.393   4.503
27769SOL     OW85203   4.359   1.476  14.255
27769SOL    HW185204   4.368   1.394  14.303
27769SOL    HW285205   4.298   1.457  14.184
27770SOL     OW85206   8.552   4.443   0.160
27770SOL    HW185207   8.512   4.362   0.126
27770SOL    HW285208   8.574   4.493   0.081
27771SOL     OW85209   6.226   7.454  12.451
27771SOL    HW185210   6.260   7.417  12.370
27771SOL    HW285211   6.168   7.525  12.423
27772SOL     OW85212   9.302  12.560   0.273
27772SOL    HW185213   9.389  12.538   0.307
27772SOL    HW285214   9.305  12.535   0.181
27773SOL     OW85215  11.624  13.695   4.859
27773SOL    HW185216  11.634  13.789   4.876
27773SOL    HW285217  11.666  13.653   4.935
27774SOL     OW85218   2.697   4.534   7.803
27774SOL    HW185219   2.620   4.484   7.832
27774SOL    HW285220   2.716   4.500   7.716
27775SOL     OW85221   1.375  12.355   3.256
27775SOL    HW185222   1.382  12.372   3.350
27775SOL    HW285223   1.299  12.406   3.228
27776SOL     OW85224   1.899  13.804  12.213
27776SOL    HW185225   1.881  13.796  12.307
27776SOL    HW285226   1.901  13.714  12.181
27777SOL     OW85227   3.050   9.563  11.209
27777SOL    HW185228   3.024   9.533  11.122
27777SOL    HW285229   3.106   9.494  11.243
27778SOL     OW85230   7.581   9.460   5.173
27778SOL    HW185231   7.676   9.457   5.162
27778SOL    HW285232   7.562   9.397   5.243
27779SOL     OW85233   3.191   5.126   5.248
27779SOL    HW185234   3.283   5.138   5.272
27779SOL    HW285235   3.193   5.110   5.153
27780SOL     OW85236  13.400   8.815   7.731
27780SOL    HW185237  13.315   8.802   7.773
27780SOL    HW285238  13.453   8.859   7.798
27781SOL     OW85239   5.772  14.544  14.609
27781SOL    HW185240   5.776  14.544  14.514
27781SOL    HW285241   5.736  14.458  14.632
27782SOL     OW85242  10.002  12.104   3.781
27782SOL    HW185243   9.999  12.189   3.826
27782SOL    HW285244  10.026  12.126   3.691
27783SOL     OW85245   5.014  12.342   5.572
27783SOL    HW185246   5.064  12.294   5.638
27783SOL    HW285247   4.928  12.298   5.572
27784SOL     OW85248  14.187   6.817  12.322
27784SOL    HW185249  14.193   6.912  12.330
27784SOL    HW285250  14.210   6.784  12.409
27785SOL     OW85251   4.354   0.123   1.734
27785SOL    HW185252   4.270   0.088   1.764
27785SOL    HW285253   4.397   0.154   1.814
27786SOL     OW85254   3.066   5.977   8.574
27786SOL    HW185255   3.104   5.888   8.576
27786SOL    HW285256   3.007   5.979   8.649
27787SOL     OW85257  13.175   1.839  13.805
27787SOL    HW185258  13.210   1.800  13.885
27787SOL    HW285259  13.082   1.852  13.823
27788SOL     OW85260   6.021  11.612  11.935
27788SOL    HW185261   6.105  11.642  11.966
27788SOL    HW285262   6.003  11.533  11.986
27789SOL     OW85263   3.269   0.776   2.082
27789SOL    HW185264   3.261   0.864   2.046
27789SOL    HW285265   3.235   0.783   2.171
27790SOL     OW85266   1.395   8.445  13.684
27790SOL    HW185267   1.328   8.391  13.724
27790SOL    HW285268   1.467   8.445  13.748
27791SOL     OW85269  13.419  13.341  13.319
27791SOL    HW185270  13.394  13.264  13.370
27791SOL    HW285271  13.344  13.399  13.324
27792SOL     OW85272   2.761   8.352   2.440
27792SOL    HW185273   2.809   8.426   2.402
27792SOL    HW285274   2.674   8.356   2.399
27793SOL     OW85275   2.871   4.773   5.324
27793SOL    HW185276   2.914   4.858   5.312
27793SOL    HW285277   2.927   4.727   5.386
27794SOL     OW85278   4.466   5.609   6.218
27794SOL    HW185279   4.474   5.680   6.155
27794SOL    HW285280   4.540   5.621   6.278
27795SOL     OW85281   7.297   1.466  13.747
27795SOL    HW185282   7.335   1.544  13.708
27795SOL    HW285283   7.372   1.412  13.773
27796SOL     OW85284  11.702   2.124  10.790
27796SOL    HW185285  11.791   2.115  10.823
27796SOL    HW285286  11.654   2.165  10.862
27797SOL     OW85287  13.528   5.821   6.569
27797SOL    HW185288  13.487   5.765   6.636
27797SOL    HW285289  13.573   5.889   6.619
27798SOL     OW85290  13.493  12.460  14.095
27798SOL    HW185291  13.504  12.522  14.023
27798SOL    HW285292  13.562  12.396  14.084
27799SOL     OW85293  14.175   7.305   3.340
27799SOL    HW185294  14.158   7.399   3.330
27799SOL    HW285295  14.250   7.288   3.283
27800SOL     OW85296   8.592  13.887  14.285
27800SOL    HW185297   8.532  13.915  14.354
27800SOL    HW285298   8.615  13.967  14.238
27801SOL     OW85299  14.179   7.823   0.586
27801SOL    HW185300  14.221   7.831   0.672
27801SOL    HW285301  14.251   7.812   0.525
27802SOL     OW85302  13.417  12.288   9.944
27802SOL    HW185303  13.385  12.209   9.988
27802SOL    HW285304  13.512  12.284   9.954
27803SOL     OW85305   8.931   7.418   7.693
27803SOL    HW185306   8.940   7.328   7.724
27803SOL    HW285307   8.847   7.446   7.729
27804SOL     OW85308   3.752  11.230   9.575
27804SOL    HW185309   3.817  11.286   9.534
27804SOL    HW285310   3.801  11.175   9.636
27805SOL     OW85311   9.761   6.605   1.569
27805SOL    HW185312   9.792   6.518   1.544
27805SOL    HW285313   9.821   6.633   1.638
27806SOL     OW85314   5.130   2.908   5.035
27806SOL    HW185315   5.104   2.968   4.965
27806SOL    HW285316   5.178   2.838   4.991
27807SOL     OW85317   6.465   1.755  12.202
27807SOL    HW185318   6.400   1.697  12.239
27807SOL    HW285319   6.415   1.830  12.169
27808SOL     OW85320   8.834  11.328  10.453
27808SOL    HW185321   8.827  11.233  10.454
27808SOL    HW285322   8.841  11.352  10.546
27809SOL     OW85323   2.606   9.874   8.636
27809SOL    HW185324   2.531   9.846   8.583
27809SOL    HW285325   2.674   9.892   8.572
27810SOL     OW85326   5.699   4.697   9.602
27810SOL    HW185327   5.669   4.644   9.528
27810SOL    HW285328   5.678   4.787   9.577
27811SOL     OW85329   4.585   7.436  11.262
27811SOL    HW185330   4.519   7.456  11.195
27811SOL    HW285331   4.594   7.341  11.259
27812SOL     OW85332   6.050   4.232   0.423
27812SOL    HW185333   6.077   4.229   0.331
27812SOL    HW285334   5.965   4.187   0.424
27813SOL     OW85335   6.386  13.094  10.567
27813SOL    HW185336   6.456  13.030  10.552
27813SOL    HW285337   6.327  13.051  10.628
27814SOL     OW85338  13.157   3.203   3.953
27814SOL    HW185339  13.107   3.197   3.871
27814SOL    HW285340  13.249   3.205   3.925
27815SOL     OW85341   2.385   5.399   8.772
27815SOL    HW185342   2.347   5.361   8.851
27815SOL    HW285343   2.314   5.448   8.731
27816SOL     OW85344   5.124   4.120   9.915
27816SOL    HW185345   5.117   4.036   9.870
27816SOL    HW285346   5.086   4.183   9.854
27817SOL     OW85347   6.821   6.364   8.829
27817SOL    HW185348   6.767   6.320   8.894
27817SOL    HW285349   6.766   6.369   8.751
27818SOL     OW85350   2.907   5.291  11.611
27818SOL    HW185351   2.835   5.302  11.549
27818SOL    HW285352   2.877   5.334  11.691
27819SOL     OW85353  10.503   3.272   2.689
27819SOL    HW185354  10.414   3.237   2.679
27819SOL    HW285355  10.530   3.296   2.601
27820SOL     OW85356   1.426   9.145   0.436
27820SOL    HW185357   1.491   9.204   0.400
27820SOL    HW285358   1.350   9.201   0.455
27821SOL     OW85359   6.471   1.755   4.555
27821SOL    HW185360   6.427   1.732   4.636
27821SOL    HW285361   6.403   1.793   4.500
27822SOL     OW85362  10.399   4.205  11.791
27822SOL    HW185363  10.305   4.221  11.782
27822SOL    HW285364  10.406   4.122  11.837
27823SOL     OW85365  11.177   0.998   4.443
27823SOL    HW185366  11.132   0.959   4.368
27823SOL    HW285367  11.179   1.092   4.424
27824SOL     OW85368   3.557   6.435   7.271
27824SOL    HW185369   3.499   6.493   7.321
27824SOL    HW285370   3.510   6.417   7.190
27825SOL     OW85371  14.829   0.492   4.121
27825SOL    HW185372  14.851   0.409   4.163
27825SOL    HW285373  14.863   0.483   4.032
27826SOL     OW85374   0.053  12.300   7.672
27826SOL    HW185375   0.011  12.214   7.670
27826SOL    HW285376  14.868  12.353   7.728
27827SOL     OW85377  10.751   4.463   1.846
27827SOL    HW185378  10.751   4.459   1.941
27827SOL    HW285379  10.843   4.473   1.822
27828SOL     OW85380   5.999   8.539   5.259
27828SOL    HW185381   5.977   8.528   5.167
27828SOL    HW285382   5.987   8.453   5.297
27829SOL     OW85383  14.750   8.761   1.601
27829SOL    HW185384  14.802   8.709   1.662
27829SOL    HW285385  14.799   8.757   1.519
27830SOL     OW85386  10.999  11.976   4.173
27830SOL    HW185387  11.006  12.069   4.154
27830SOL    HW285388  11.089  11.948   4.192
27831SOL     OW85389  12.290   3.314   8.290
27831SOL    HW185390  12.316   3.345   8.203
27831SOL    HW285391  12.198   3.340   8.299
27832SOL     OW85392   6.090   5.236  13.813
27832SOL    HW185393   6.075   5.326  13.785
27832SOL    HW285394   6.174   5.239  13.859
27833SOL     OW85395   6.322  14.569   9.626
27833SOL    HW185396   6.234  14.552   9.592
27833SOL    HW285397   6.335  14.663   9.611
27834SOL     OW85398   4.812   6.274  10.339
27834SOL    HW185399   4.901   6.272  10.375
27834SOL    HW285400   4.816   6.338  10.268
27835SOL     OW85401   4.123  14.334  12.126
27835SOL    HW185402   4.113  14.337  12.031
27835SOL    HW285403   4.206  14.378  12.143
27836SOL     OW85404   0.542   0.113  12.219
27836SOL    HW185405   0.532   0.186  12.280
27836SOL    HW285406   0.456   0.073  12.215
27837SOL     OW85407   2.246  10.039   7.498
27837SOL    HW185408   2.160  10.006   7.525
27837SOL    HW285409   2.269   9.986   7.422
27838SOL     OW85410   4.639   7.859   5.108
27838SOL    HW185411   4.655   7.942   5.153
27838SOL    HW285412   4.629   7.795   5.178
27839SOL     OW85413  12.625  10.718  10.354
27839SOL    HW185414  12.608  10.628  10.327
27839SOL    HW285415  12.574  10.772  10.293
27840SOL     OW85416   8.545   5.924   0.756
27840SOL    HW185417   8.464   5.935   0.706
27840SOL    HW285418   8.562   6.010   0.794
27841SOL     OW85419  13.286   0.856   0.844
27841SOL    HW185420  13.379   0.845   0.866
27841SOL    HW285421  13.279   0.822   0.754
27842SOL     OW85422   7.412   1.585   2.271
27842SOL    HW185423   7.506   1.592   2.288
27842SOL    HW285424   7.404   1.508   2.214
27843SOL     OW85425  12.389   9.187   4.369
27843SOL    HW185426  12.329   9.202   4.295
27843SOL    HW285427  12.378   9.094   4.390
27844SOL     OW85428  14.518  10.192   8.927
27844SOL    HW185429  14.536  10.118   8.985
27844SOL    HW285430  14.570  10.173   8.848
27845SOL     OW85431   5.137   2.278  11.045
27845SOL    HW185432   5.067   2.294  11.107
27845SOL    HW285433   5.207   2.239  11.097
27846SOL     OW85434  12.339   0.236   3.886
27846SOL    HW185435  12.365   0.308   3.944
27846SOL    HW285436  12.244   0.234   3.892
27847SOL     OW85437   5.625   2.124  14.569
27847SOL    HW185438   5.648   2.112  14.477
27847SOL    HW285439   5.685   2.066  14.617
27848SOL     OW85440   0.582   9.661  11.072
27848SOL    HW185441   0.651   9.596  11.060
27848SOL    HW285442   0.628   9.744  11.084
27849SOL     OW85443  11.167   4.126   7.010
27849SOL    HW185444  11.167   4.168   7.096
27849SOL    HW285445  11.256   4.092   6.999
27850SOL     OW85446   0.251   5.158   7.824
27850SOL    HW185447   0.296   5.193   7.901
27850SOL    HW285448   0.255   5.063   7.836
27851SOL     OW85449   0.392   7.905   0.870
27851SOL    HW185450   0.337   7.840   0.913
27851SOL    HW285451   0.423   7.861   0.790
27852SOL     OW85452   0.628  10.660   0.347
27852SOL    HW185453   0.648  10.672   0.440
27852SOL    HW285454   0.551  10.602   0.346
27853SOL     OW85455   1.159   9.303   5.434
27853SOL    HW185456   1.186   9.390   5.405
27853SOL    HW285457   1.197   9.294   5.521
27854SOL     OW85458   6.327   1.108  10.482
27854SOL    HW185459   6.320   1.059  10.564
27854SOL    HW285460   6.387   1.180  10.502
27855SOL     OW85461  13.173   9.154  10.970
27855SOL    HW185462  13.103   9.165  10.906
27855SOL    HW285463  13.253   9.172  10.921
27856SOL     OW85464   5.000   7.172   4.718
27856SOL    HW185465   5.005   7.080   4.742
27856SOL    HW285466   5.083   7.190   4.673
27857SOL     OW85467  13.581  10.885  10.375
27857SOL    HW185468  13.530  10.804  10.373
27857SOL    HW285469  13.602  10.899  10.467
27858SOL     OW85470   5.077   2.962   5.315
27858SOL    HW185471   5.033   3.047   5.325
27858SOL    HW285472   5.109   2.962   5.225
27859SOL     OW85473  12.973   4.470  11.952
27859SOL    HW185474  13.029   4.539  11.986
27859SOL    HW285475  12.887   4.511  11.941
27860SOL     OW85476   4.936  14.093   3.968
27860SOL    HW185477   4.987  14.035   4.025
27860SOL    HW285478   4.909  14.165   4.026
27861SOL     OW85479   3.978   7.170   9.309
27861SOL    HW185480   3.916   7.233   9.345
27861SOL    HW285481   3.935   7.137   9.230
27862SOL     OW85482  13.395  14.861   6.064
27862SOL    HW185483  13.418   0.063   6.006
27862SOL    HW285484  13.304   0.006   6.088
27863SOL     OW85485   0.893  13.073   2.021
27863SOL    HW185486   0.824  13.097   1.960
27863SOL    HW285487   0.928  12.990   1.988
27864SOL     OW85488   6.329  13.492   2.294
27864SOL    HW185489   6.289  13.483   2.208
27864SOL    HW285490   6.264  13.456   2.355
27865SOL     OW85491   7.446   8.275  10.326
27865SOL    HW185492   7.420   8.204  10.267
27865SOL    HW285493   7.462   8.349  10.268
27866SOL     OW85494   4.319   2.895  11.822
27866SOL    HW185495   4.251   2.832  11.846
27866SOL    HW285496   4.363   2.855  11.747
27867SOL     OW85497   4.460   7.344   6.163
27867SOL    HW185498   4.468   7.385   6.077
27867SOL    HW285499   4.367   7.324   6.172
27868SOL     OW85500  11.677  13.205   9.381
27868SOL    HW185501  11.631  13.189   9.299
27868SOL    HW285502  11.612  13.184   9.449
27869SOL     OW85503   1.758   6.239   5.203
27869SOL    HW185504   1.680   6.220   5.152
27869SOL    HW285505   1.739   6.322   5.246
27870SOL     OW85506   0.480   3.939   8.213
27870SOL    HW185507   0.545   3.990   8.166
27870SOL    HW285508   0.445   3.879   8.147
27871SOL     OW85509   8.238  13.131   0.483
27871SOL    HW185510   8.280  13.098   0.404
27871SOL    HW285511   8.145  13.133   0.463
27872SOL     OW85512   9.801  10.286   2.927
27872SOL    HW185513   9.726  10.228   2.936
27872SOL    HW285514   9.871  10.230   2.894
27873SOL     OW85515   0.463   7.333  11.913
27873SOL    HW185516   0.398   7.326  11.843
27873SOL    HW285517   0.415   7.368  11.988
27874SOL     OW85518   6.762   1.727   9.717
27874SOL    HW185519   6.822   1.794   9.750
27874SOL    HW285520   6.695   1.720   9.785
27875SOL     OW85521   5.082   7.586   7.987
27875SOL    HW185522   5.099   7.520   7.920
27875SOL    HW285523   5.162   7.588   8.040
27876SOL     OW85524   1.938   5.827  13.487
27876SOL    HW185525   1.903   5.916  13.493
27876SOL    HW285526   1.884   5.777  13.548
27877SOL     OW85527  12.490   4.383   4.155
27877SOL    HW185528  12.402   4.347   4.163
27877SOL    HW285529  12.548   4.313   4.185
27878SOL     OW85530   0.876   4.865   2.090
27878SOL    HW185531   0.814   4.935   2.070
27878SOL    HW285532   0.958   4.911   2.109
27879SOL     OW85533  13.786   0.411   3.773
27879SOL    HW185534  13.845   0.449   3.708
27879SOL    HW285535  13.784   0.317   3.752
27880SOL     OW85536   9.213   1.212   5.184
27880SOL    HW185537   9.267   1.285   5.215
27880SOL    HW285538   9.223   1.214   5.089
27881SOL     OW85539   4.328   3.287   3.478
27881SOL    HW185540   4.395   3.223   3.504
27881SOL    HW285541   4.259   3.235   3.437
27882SOL     OW85542   0.838  11.675  13.252
27882SOL    HW185543   0.822  11.598  13.197
27882SOL    HW285544   0.805  11.650  13.338
27883SOL     OW85545   4.699  13.144  10.257
27883SOL    HW185546   4.781  13.193  10.253
27883SOL    HW285547   4.699  13.090  10.179
27884SOL     OW85548   0.466   2.742   3.709
27884SOL    HW185549   0.463   2.830   3.746
27884SOL    HW285550   0.377   2.726   3.677
27885SOL     OW85551   0.505   2.964  14.264
27885SOL    HW185552   0.492   2.908  14.187
27885SOL    HW285553   0.464   2.915  14.336
27886SOL     OW85554  12.521   4.516  11.103
27886SOL    HW185555  12.448   4.458  11.125
27886SOL    HW285556  12.584   4.502  11.174
27887SOL     OW85557  13.326  10.952  14.361
27887SOL    HW185558  13.340  10.942  14.455
27887SOL    HW285559  13.231  10.941  14.349
27888SOL     OW85560  14.455   2.483   7.239
27888SOL    HW185561  14.498   2.442   7.315
27888SOL    HW285562  14.518   2.470   7.167
27889SOL     OW85563   0.937  12.412  11.433
27889SOL    HW185564   0.898  12.435  11.517
27889SOL    HW285565   0.964  12.496  11.396
27890SOL     OW85566   5.500   9.978  11.329
27890SOL    HW185567   5.543  10.056  11.294
27890SOL    HW285568   5.521   9.979  11.422
27891SOL     OW85569   2.101   4.137  13.319
27891SOL    HW185570   2.167   4.137  13.249
27891SOL    HW285571   2.086   4.045  13.338
27892SOL     OW85572   8.546   7.536  14.837
27892SOL    HW185573   8.624   7.549   0.020
27892SOL    HW285574   8.479   7.593   0.005
27893SOL     OW85575   3.476   7.602  10.291
27893SOL    HW185576   3.486   7.570  10.202
27893SOL    HW285577   3.561   7.640  10.313
27894SOL     OW85578   0.423   4.309   9.592
27894SOL    HW185579   0.460   4.374   9.532
27894SOL    HW285580   0.344   4.278   9.547
27895SOL     OW85581   8.273  11.003   8.043
27895SOL    HW185582   8.366  10.997   8.063
27895SOL    HW285583   8.262  11.089   8.003
27896SOL     OW85584   1.260   9.693  13.392
27896SOL    HW185585   1.350   9.693  13.359
27896SOL    HW285586   1.270   9.699  13.487
27897SOL     OW85587   4.641   0.558   3.485
27897SOL    HW185588   4.704   0.522   3.547
27897SOL    HW285589   4.558   0.515   3.507
27898SOL     OW85590   2.468   7.151   0.183
27898SOL    HW185591   2.526   7.222   0.158
27898SOL    HW285592   2.380   7.187   0.173
27899SOL     OW85593   2.168   3.716   7.571
27899SOL    HW185594   2.118   3.697   7.492
27899SOL    HW285595   2.106   3.759   7.630
27900SOL     OW85596   3.574   8.917   3.610
27900SOL    HW185597   3.517   8.952   3.678
27900SOL    HW285598   3.516   8.904   3.535
27901SOL     OW85599  14.357  10.214   5.984
27901SOL    HW185600  14.418  10.274   6.027
27901SOL    HW285601  14.303  10.179   6.055
27902SOL     OW85602  13.796   8.626   5.781
27902SOL    HW185603  13.861   8.633   5.711
27902SOL    HW285604  13.798   8.712   5.823
27903SOL     OW85605  12.205   4.325   5.168
27903SOL    HW185606  12.164   4.405   5.137
27903SOL    HW285607  12.151   4.297   5.242
27904SOL     OW85608  11.363   0.221   6.928
27904SOL    HW185609  11.398   0.148   6.979
27904SOL    HW285610  11.299   0.181   6.869
27905SOL     OW85611  12.525   6.018   1.232
27905SOL    HW185612  12.528   6.050   1.142
27905SOL    HW285613  12.505   6.095   1.284
27906SOL     OW85614   7.206   5.888   7.961
27906SOL    HW185615   7.213   5.895   7.865
27906SOL    HW285616   7.252   5.964   7.995
27907SOL     OW85617   8.204   5.917   3.519
27907SOL    HW185618   8.236   5.925   3.430
27907SOL    HW285619   8.126   5.861   3.512
27908SOL     OW85620  10.901  10.630   6.877
27908SOL    HW185621  10.978  10.669   6.837
27908SOL    HW285622  10.842  10.612   6.803
27909SOL     OW85623  13.654   4.505   0.674
27909SOL    HW185624  13.571   4.474   0.711
27909SOL    HW285625  13.721   4.457   0.721
27910SOL     OW85626   4.366   2.981  12.979
27910SOL    HW185627   4.337   2.946  13.063
27910SOL    HW285628   4.286   3.018  12.940
27911SOL     OW85629   3.298   6.825  11.832
27911SOL    HW185630   3.225   6.804  11.774
27911SOL    HW285631   3.294   6.759  11.901
27912SOL     OW85632  14.353  13.324   9.107
27912SOL    HW185633  14.385  13.373   9.183
27912SOL    HW285634  14.401  13.241   9.110
27913SOL     OW85635   0.284   1.380  12.081
27913SOL    HW185636   0.341   1.310  12.111
27913SOL    HW285637   0.342   1.441  12.035
27914SOL     OW85638   0.526   1.934   4.173
27914SOL    HW185639   0.466   1.903   4.242
27914SOL    HW285640   0.542   2.026   4.195
27915SOL     OW85641  14.503   4.041   7.949
27915SOL    HW185642  14.452   4.095   7.889
27915SOL    HW285643  14.590   4.081   7.950
27916SOL     OW85644  11.153   5.195  14.437
27916SOL    HW185645  11.064   5.175  14.406
27916SOL    HW285646  11.208   5.128  14.396
27917SOL     OW85647   9.865   5.930   5.384
27917SOL    HW185648   9.820   5.988   5.445
27917SOL    HW285649   9.897   5.988   5.314
27918SOL     OW85650   0.326   4.683   9.930
27918SOL    HW185651   0.271   4.639   9.995
27918SOL    HW285652   0.415   4.654   9.951
27919SOL     OW85653   9.810   4.886  13.551
27919SOL    HW185654   9.754   4.946  13.503
27919SOL    HW285655   9.892   4.934  13.563
27920SOL     OW85656  10.917  13.845  12.949
27920SOL    HW185657  10.893  13.889  12.868
27920SOL    HW285658  10.986  13.784  12.925
27921SOL     OW85659   6.721   4.560   2.761
27921SOL    HW185660   6.806   4.548   2.804
27921SOL    HW285661   6.660   4.506   2.811
27922SOL     OW85662   9.283  11.571   4.789
27922SOL    HW185663   9.313  11.613   4.870
27922SOL    HW285664   9.358  11.518   4.761
27923SOL     OW85665   3.407   9.708   5.173
27923SOL    HW185666   3.393   9.615   5.156
27923SOL    HW285667   3.362   9.725   5.256
27924SOL     OW85668   0.669   0.697  13.305
27924SOL    HW185669   0.634   0.783  13.281
27924SOL    HW285670   0.613   0.635  13.259
27925SOL     OW85671  10.361  13.915   0.566
27925SOL    HW185672  10.429  13.922   0.499
27925SOL    HW285673  10.335  14.005   0.584
27926SOL     OW85674   0.469   2.817  11.382
27926SOL    HW185675   0.392   2.766  11.356
27926SOL    HW285676   0.535   2.796  11.315
27927SOL     OW85677   8.446   4.491   6.237
27927SOL    HW185678   8.480   4.534   6.316
27927SOL    HW285679   8.352   4.481   6.254
27928SOL     OW85680   1.763  11.827  10.769
27928SOL    HW185681   1.825  11.878  10.822
27928SOL    HW285682   1.818  11.784  10.703
27929SOL     OW85683   4.311   2.118   5.612
27929SOL    HW185684   4.233   2.062   5.622
27929SOL    HW285685   4.380   2.071   5.658
27930SOL     OW85686  12.332   7.151  10.166
27930SOL    HW185687  12.374   7.086  10.223
27930SOL    HW285688  12.405   7.201  10.129
27931SOL     OW85689   6.245   7.364  11.751
27931SOL    HW185690   6.248   7.422  11.675
27931SOL    HW285691   6.188   7.292  11.725
27932SOL     OW85692   2.584   6.556   3.802
27932SOL    HW185693   2.521   6.499   3.846
27932SOL    HW285694   2.530   6.611   3.745
27933SOL     OW85695   1.977   1.099   1.436
27933SOL    HW185696   1.922   1.023   1.417
27933SOL    HW285697   1.994   1.138   1.350
27934SOL     OW85698   4.308   6.759   6.630
27934SOL    HW185699   4.364   6.750   6.553
27934SOL    HW285700   4.330   6.845   6.666
27935SOL     OW85701   2.367  13.456   1.947
27935SOL    HW185702   2.366  13.479   1.854
27935SOL    HW285703   2.398  13.536   1.991
27936SOL     OW85704  13.040   9.713   9.500
27936SOL    HW185705  13.018   9.623   9.475
27936SOL    HW285706  13.101   9.703   9.573
27937SOL     OW85707  10.485  13.578   8.063
27937SOL    HW185708  10.412  13.636   8.082
27937SOL    HW285709  10.446  13.505   8.014
27938SOL     OW85710   7.608   4.781   6.748
27938SOL    HW185711   7.583   4.816   6.663
27938SOL    HW285712   7.623   4.688   6.733
27939SOL     OW85713   9.233   5.835   2.655
27939SOL    HW185714   9.278   5.779   2.592
27939SOL    HW285715   9.284   5.827   2.736
27940SOL     OW85716   5.502   2.766   9.774
27940SOL    HW185717   5.532   2.692   9.827
27940SOL    HW285718   5.467   2.829   9.837
27941SOL     OW85719   3.304   7.368   0.746
27941SOL    HW185720   3.216   7.405   0.732
27941SOL    HW285721   3.353   7.439   0.788
27942SOL     OW85722   5.196   5.905   8.401
27942SOL    HW185723   5.193   5.879   8.309
27942SOL    HW285724   5.288   5.896   8.426
27943SOL     OW85725  10.842   2.018  13.792
27943SOL    HW185726  10.779   1.997  13.723
27943SOL    HW285727  10.894   1.938  13.802
27944SOL     OW85728  12.621   5.400   8.849
27944SOL    HW185729  12.690   5.369   8.790
27944SOL    HW285730  12.613   5.493   8.831
27945SOL     OW85731   3.880   1.860  12.816
27945SOL    HW185732   3.951   1.921  12.796
27945SOL    HW285733   3.807   1.890  12.761
27946SOL     OW85734  13.473   4.061   3.784
27946SOL    HW185735  13.413   4.132   3.808
27946SOL    HW285736  13.526   4.047   3.862
27947SOL     OW85737   2.641  11.389  13.522
27947SOL    HW185738   2.644  11.430  13.436
27947SOL    HW285739   2.613  11.459  13.581
27948SOL     OW85740   3.883   3.251   1.775
27948SOL    HW185741   3.836   3.183   1.825
27948SOL    HW285742   3.818   3.320   1.762
27949SOL     OW85743   2.907   2.603   0.879
27949SOL    HW185744   2.875   2.536   0.939
27949SOL    HW285745   2.829   2.656   0.859
27950SOL     OW85746  12.589   9.157   6.758
27950SOL    HW185747  12.610   9.229   6.817
27950SOL    HW285748  12.616   9.079   6.806
27951SOL     OW85749   3.719  10.262   9.635
27951SOL    HW185750   3.659  10.188   9.624
27951SOL    HW285751   3.663  10.339   9.623
27952SOL     OW85752  12.190  12.243   7.390
27952SOL    HW185753  12.285  12.255   7.386
27952SOL    HW285754  12.156  12.328   7.415
27953SOL     OW85755   2.214  11.824   0.816
27953SOL    HW185756   2.232  11.917   0.805
27953SOL    HW285757   2.123  11.813   0.789
27954SOL     OW85758   8.724  10.493   1.003
27954SOL    HW185759   8.804  10.538   0.974
27954SOL    HW285760   8.750  10.402   1.012
27955SOL     OW85761   1.489   8.249   8.104
27955SOL    HW185762   1.485   8.271   8.011
27955SOL    HW285763   1.483   8.333   8.149
27956SOL     OW85764  10.419  12.797  10.539
27956SOL    HW185765  10.442  12.890  10.543
27956SOL    HW285766  10.484  12.754  10.595
27957SOL     OW85767   2.806   9.901   1.947
27957SOL    HW185768   2.843   9.859   1.869
27957SOL    HW285769   2.851   9.985   1.953
27958SOL     OW85770   7.124  11.878   7.989
27958SOL    HW185771   7.040  11.892   8.033
27958SOL    HW285772   7.190  11.903   8.054
27959SOL     OW85773   0.109   1.284   0.080
27959SOL    HW185774   0.103   1.198   0.120
27959SOL    HW285775   0.047   1.282   0.008
27960SOL     OW85776  12.978   0.742  13.104
27960SOL    HW185777  12.887   0.756  13.130
27960SOL    HW285778  12.978   0.746  13.009
27961SOL     OW85779   2.884  14.751   2.268
27961SOL    HW185780   2.867  14.659   2.251
27961SOL    HW285781   2.971  14.767   2.232
27962SOL     OW85782   2.998  11.263  11.488
27962SOL    HW185783   3.039  11.323  11.425
27962SOL    HW285784   3.026  11.296  11.573
27963SOL     OW85785   2.177  14.028   0.079
27963SOL    HW185786   2.126  14.066   0.007
27963SOL    HW285787   2.211  14.104   0.126
27964SOL     OW85788  11.999   2.803   5.276
27964SOL    HW185789  12.024   2.846   5.357
27964SOL    HW285790  11.996   2.873   5.211
27965SOL     OW85791   5.238  10.426  14.393
27965SOL    HW185792   5.321  10.385  14.371
27965SOL    HW285793   5.172  10.374  14.347
27966SOL     OW85794   4.767   1.464   9.390
27966SOL    HW185795   4.793   1.468   9.298
27966SOL    HW285796   4.705   1.391   9.393
27967SOL     OW85797   4.002   2.255   1.795
27967SOL    HW185798   3.986   2.349   1.787
27967SOL    HW285799   3.971   2.233   1.883
27968SOL     OW85800  14.519   2.123   6.091
27968SOL    HW185801  14.493   2.211   6.065
27968SOL    HW285802  14.612   2.130   6.111
27969SOL     OW85803  12.516  14.748   1.466
27969SOL    HW185804  12.434  14.787   1.436
27969SOL    HW285805  12.572  14.747   1.388
27970SOL     OW85806   6.517   5.350  11.055
27970SOL    HW185807   6.431   5.314  11.032
27970SOL    HW285808   6.500   5.442  11.077
27971SOL     OW85809  11.868   4.115   5.148
27971SOL    HW185810  11.857   4.123   5.243
27971SOL    HW285811  11.847   4.202   5.114
27972SOL     OW85812   2.030  11.897  12.164
27972SOL    HW185813   1.991  11.810  12.172
27972SOL    HW285814   2.007  11.942  12.245
27973SOL     OW85815   8.189   3.408   0.880
27973SOL    HW185816   8.254   3.465   0.921
27973SOL    HW285817   8.120   3.398   0.945
27974SOL     OW85818  10.315  12.383  11.349
27974SOL    HW185819  10.231  12.391  11.394
27974SOL    HW285820  10.319  12.459  11.291
27975SOL     OW85821   3.962   1.832   0.467
27975SOL    HW185822   3.875   1.792   0.472
27975SOL    HW285823   4.020   1.767   0.507
27976SOL     OW85824  12.390   7.009  12.647
27976SOL    HW185825  12.310   6.986  12.599
27976SOL    HW285826  12.402   7.103  12.631
27977SOL     OW85827  12.979   3.507  11.220
27977SOL    HW185828  12.913   3.467  11.277
27977SOL    HW285829  13.050   3.532  11.279
27978SOL     OW85830   1.864   5.043   9.550
27978SOL    HW185831   1.898   5.025   9.638
27978SOL    HW285832   1.909   4.981   9.493
27979SOL     OW85833  13.919   4.178  11.283
27979SOL    HW185834  13.857   4.138  11.343
27979SOL    HW285835  13.984   4.110  11.266
27980SOL     OW85836   5.457  12.341  10.682
27980SOL    HW185837   5.550  12.321  10.671
27980SOL    HW285838   5.416  12.257  10.703
27981SOL     OW85839   3.460   4.502   3.604
27981SOL    HW185840   3.411   4.584   3.613
27981SOL    HW285841   3.541   4.517   3.653
27982SOL     OW85842   7.685   8.424   7.427
27982SOL    HW185843   7.721   8.512   7.426
27982SOL    HW285844   7.624   8.423   7.501
27983SOL     OW85845   6.217  14.773   8.246
27983SOL    HW185846   6.305  14.761   8.281
27983SOL    HW285847   6.229  14.831   8.171
27984SOL     OW85848  12.044   3.056   1.479
27984SOL    HW185849  12.066   3.086   1.567
27984SOL    HW285850  12.010   2.968   1.491
27985SOL     OW85851  13.346   3.815   6.755
27985SOL    HW185852  13.269   3.871   6.745
27985SOL    HW285853  13.369   3.790   6.665
27986SOL     OW85854  10.178  13.091   7.691
27986SOL    HW185855  10.255  13.147   7.688
27986SOL    HW285856  10.123  13.130   7.759
27987SOL     OW85857  14.202   2.080  12.541
27987SOL    HW185858  14.235   1.995  12.570
27987SOL    HW285859  14.108   2.077  12.562
27988SOL     OW85860   8.723  13.630  12.947
27988SOL    HW185861   8.748  13.566  13.014
27988SOL    HW285862   8.692  13.577  12.873
27989SOL     OW85863   8.258   6.269   6.470
27989SOL    HW185864   8.165   6.247   6.473
27989SOL    HW285865   8.301   6.189   6.438
27990SOL     OW85866  11.477   4.622  13.868
27990SOL    HW185867  11.539   4.659  13.805
27990SOL    HW285868  11.396   4.613  13.818
27991SOL     OW85869   6.313  10.747   3.303
27991SOL    HW185870   6.349  10.798   3.376
27991SOL    HW285871   6.226  10.721   3.333
27992SOL     OW85872   5.434   3.964   0.245
27992SOL    HW185873   5.468   4.049   0.219
27992SOL    HW285874   5.366   3.984   0.309
27993SOL     OW85875   6.535  11.647  13.378
27993SOL    HW185876   6.567  11.576  13.321
27993SOL    HW285877   6.451  11.671  13.340
27994SOL     OW85878   6.469   0.205   8.611
27994SOL    HW185879   6.495   0.296   8.594
27994SOL    HW285880   6.435   0.174   8.527
27995SOL     OW85881  10.036  14.336   0.008
27995SOL    HW185882   9.947  14.318   0.035
27995SOL    HW285883  10.029  14.413  14.822
27996SOL     OW85884   1.296   0.123   6.011
27996SOL    HW185885   1.362   0.160   6.070
27996SOL    HW285886   1.239   0.196   5.990
27997SOL     OW85887   6.098   1.999   9.480
27997SOL    HW185888   6.130   1.918   9.519
27997SOL    HW285889   6.043   2.039   9.549
27998SOL     OW85890   5.398   7.712   4.002
27998SOL    HW185891   5.382   7.621   4.028
27998SOL    HW285892   5.355   7.720   3.917
27999SOL     OW85893   2.458  11.330  14.500
27999SOL    HW185894   2.375  11.295  14.532
27999SOL    HW285895   2.518  11.324  14.574
28000SOL     OW85896   0.657   9.891  10.845
28000SOL    HW185897   0.632   9.946  10.770
28000SOL    HW285898   0.703   9.817  10.805
28001SOL     OW85899  11.044   4.900   5.967
28001SOL    HW185900  10.961   4.857   5.945
28001SOL    HW285901  11.084   4.842   6.032
28002SOL     OW85902   0.971  13.357   6.161
28002SOL    HW185903   1.060  13.334   6.189
28002SOL    HW285904   0.983  13.439   6.112
28003SOL     OW85905  13.266   0.047   6.736
28003SOL    HW185906  13.314   0.101   6.799
28003SOL    HW285907  13.288  14.829   6.760
28004SOL     OW85908   8.631   1.051   5.426
28004SOL    HW185909   8.623   1.144   5.448
28004SOL    HW285910   8.705   1.048   5.365
28005SOL     OW85911   6.310  10.387   7.114
28005SOL    HW185912   6.251  10.418   7.045
28005SOL    HW285913   6.397  10.390   7.074
28006SOL     OW85914  13.045  12.203   8.408
28006SOL    HW185915  13.101  12.191   8.485
28006SOL    HW285916  13.105  12.231   8.339
28007SOL     OW85917  10.305   8.497   4.422
28007SOL    HW185918  10.368   8.426   4.432
28007SOL    HW285919  10.224   8.463   4.461
28008SOL     OW85920  13.423   4.775   4.489
28008SOL    HW185921  13.508   4.811   4.465
28008SOL    HW285922  13.441   4.684   4.512
28009SOL     OW85923   2.293  11.774   0.320
28009SOL    HW185924   2.222  11.734   0.270
28009SOL    HW285925   2.359  11.705   0.328
28010SOL     OW85926   3.579   5.901   8.202
28010SOL    HW185927   3.583   5.858   8.116
28010SOL    HW285928   3.668   5.894   8.236
28011SOL     OW85929   1.747   8.943   8.243
28011SOL    HW185930   1.748   8.966   8.336
28011SOL    HW285931   1.784   9.019   8.199
28012SOL     OW85932  10.885   1.849   5.603
28012SOL    HW185933  10.960   1.908   5.594
28012SOL    HW285934  10.818   1.902   5.646
28013SOL     OW85935   0.170  11.484  14.194
28013SOL    HW185936   0.154  11.399  14.234
28013SOL    HW285937   0.085  11.528  14.195
28014SOL     OW85938   8.600   2.706  11.427
28014SOL    HW185939   8.586   2.706  11.522
28014SOL    HW285940   8.646   2.624  11.409
28015SOL     OW85941  11.093  14.551   7.288
28015SOL    HW185942  11.158  14.491   7.324
28015SOL    HW285943  11.130  14.638   7.301
28016SOL     OW85944   6.600   6.764   7.974
28016SOL    HW185945   6.609   6.735   8.065
28016SOL    HW285946   6.559   6.850   7.981
28017SOL     OW85947   2.814   4.318   8.137
28017SOL    HW185948   2.858   4.343   8.056
28017SOL    HW285949   2.756   4.246   8.113
28018SOL     OW85950   9.161  14.288  12.072
28018SOL    HW185951   9.200  14.252  11.992
28018SOL    HW285952   9.231  14.281  12.137
28019SOL     OW85953  13.076  11.055  13.507
28019SOL    HW185954  13.036  11.047  13.420
28019SOL    HW285955  13.169  11.042  13.492
28020SOL     OW85956   7.428   2.627   4.403
28020SOL    HW185957   7.437   2.541   4.445
28020SOL    HW285958   7.357   2.616   4.340
28021SOL     OW85959   0.634   5.557   9.253
28021SOL    HW185960   0.658   5.470   9.286
28021SOL    HW285961   0.718   5.603   9.247
28022SOL     OW85962  14.809  11.381   9.388
28022SOL    HW185963  14.850  11.295   9.381
28022SOL    HW285964   0.011  11.442   9.394
28023SOL     OW85965   9.008   5.144   3.304
28023SOL    HW185966   9.071   5.213   3.322
28023SOL    HW285967   8.923   5.181   3.328
28024SOL     OW85968   1.409   4.163   3.527
28024SOL    HW185969   1.374   4.141   3.613
28024SOL    HW285970   1.345   4.127   3.465
28025SOL     OW85971   6.560   9.091  13.457
28025SOL    HW185972   6.466   9.108  13.454
28025SOL    HW285973   6.593   9.155  13.521
28026SOL     OW85974   5.121   9.930  13.792
28026SOL    HW185975   5.154   9.917  13.880
28026SOL    HW285976   5.081   9.846  13.769
28027SOL     OW85977   8.098  14.142   6.404
28027SOL    HW185978   8.092  14.094   6.486
28027SOL    HW285979   8.131  14.079   6.341
28028SOL     OW85980   2.038  14.251   6.754
28028SOL    HW185981   2.071  14.339   6.737
28028SOL    HW285982   2.046  14.206   6.670
28029SOL     OW85983  12.706  11.906  13.705
28029SOL    HW185984  12.774  11.861  13.755
28029SOL    HW285985  12.720  11.999  13.724
28030SOL     OW85986  14.201   4.972  10.348
28030SOL    HW185987  14.241   5.056  10.370
28030SOL    HW285988  14.270   4.907  10.363
28031SOL     OW85989   8.163   7.869  11.908
28031SOL    HW185990   8.173   7.913  11.992
28031SOL    HW285991   8.251   7.874  11.869
28032SOL     OW85992   2.862   9.979   9.421
28032SOL    HW185993   2.846  10.042   9.351
28032SOL    HW285994   2.958   9.976   9.429
28033SOL     OW85995   1.843   4.910   2.149
28033SOL    HW185996   1.787   4.837   2.174
28033SOL    HW285997   1.924   4.870   2.120
28034SOL     OW85998   2.372   9.683  13.686
28034SOL    HW185999   2.297   9.722  13.642
28034SOL    HW286000   2.446   9.738  13.661
28035SOL     OW86001   3.576  12.049   7.999
28035SOL    HW186002   3.538  12.094   8.075
28035SOL    HW286003   3.629  11.979   8.037
28036SOL     OW86004  14.722   5.026  13.534
28036SOL    HW186005  14.720   5.055  13.442
28036SOL    HW286006  14.815   5.010  13.551
28037SOL     OW86007   3.846   1.940  13.875
28037SOL    HW186008   3.879   1.885  13.804
28037SOL    HW286009   3.909   1.928  13.946
28038SOL     OW86010   8.333   6.940   3.157
28038SOL    HW186011   8.356   6.871   3.095
28038SOL    HW286012   8.316   6.894   3.239
28039SOL     OW86013   4.714   8.250   4.580
28039SOL    HW186014   4.642   8.239   4.641
28039SOL    HW286015   4.679   8.223   4.496
28040SOL     OW86016   3.497  11.291   7.252
28040SOL    HW186017   3.481  11.237   7.329
28040SOL    HW286018   3.460  11.241   7.179
28041SOL     OW86019  11.362   2.745   6.584
28041SOL    HW186020  11.267   2.748   6.592
28041SOL    HW286021  11.383   2.817   6.524
28042SOL     OW86022   8.972   7.591  12.199
28042SOL    HW186023   8.931   7.669  12.163
28042SOL    HW286024   9.024   7.556  12.126
28043SOL     OW86025  14.429  13.343   8.150
28043SOL    HW186026  14.367  13.357   8.221
28043SOL    HW286027  14.494  13.283   8.185
28044SOL     OW86028   2.326  10.490   3.215
28044SOL    HW186029   2.405  10.456   3.174
28044SOL    HW286030   2.254  10.444   3.171
28045SOL     OW86031  12.944   6.458   5.613
28045SOL    HW186032  12.965   6.535   5.665
28045SOL    HW286033  12.940   6.491   5.523
28046SOL     OW86034   2.665   2.089   7.790
28046SOL    HW186035   2.688   2.077   7.697
28046SOL    HW286036   2.587   2.036   7.802
28047SOL     OW86037  13.505   4.857  11.691
28047SOL    HW186038  13.562   4.780  11.686
28047SOL    HW286039  13.462   4.850  11.776
28048SOL     OW86040   0.447  10.362   1.962
28048SOL    HW186041   0.397  10.368   2.043
28048SOL    HW286042   0.524  10.417   1.976
28049SOL     OW86043  13.788  14.099   6.977
28049SOL    HW186044  13.823  14.045   7.048
28049SOL    HW286045  13.784  14.041   6.901
28050SOL     OW86046  10.705   3.685   5.018
28050SOL    HW186047  10.728   3.775   4.997
28050SOL    HW286048  10.731   3.674   5.109
28051SOL     OW86049   5.085   1.359   2.316
28051SOL    HW186050   5.121   1.359   2.405
28051SOL    HW286051   5.152   1.317   2.263
28052SOL     OW86052   3.108  13.348   4.137
28052SOL    HW186053   3.182  13.288   4.140
28052SOL    HW286054   3.121  13.399   4.057
28053SOL     OW86055  12.884   2.677   0.913
28053SOL    HW186056  12.792   2.681   0.939
28053SOL    HW286057  12.895   2.591   0.873
28054SOL     OW86058   4.688   4.603   7.501
28054SOL    HW186059   4.670   4.559   7.584
28054SOL    HW286060   4.772   4.567   7.472
28055SOL     OW86061   9.444   1.321   4.193
28055SOL    HW186062   9.462   1.259   4.264
28055SOL    HW286063   9.366   1.369   4.223
28056SOL     OW86064  14.387   1.599   2.349
28056SOL    HW186065  14.478   1.625   2.358
28056SOL    HW286066  14.340   1.681   2.331
28057SOL     OW86067   6.453   8.842  12.571
28057SOL    HW186068   6.524   8.780  12.553
28057SOL    HW286069   6.474   8.877  12.657
28058SOL     OW86070   8.079   9.848   7.423
28058SOL    HW186071   8.032   9.771   7.454
28058SOL    HW286072   8.065   9.914   7.491
28059SOL     OW86073  10.178   2.076   8.693
28059SOL    HW186074  10.179   2.032   8.608
28059SOL    HW286075  10.135   2.014   8.752
28060SOL     OW86076   0.008   2.356  11.180
28060SOL    HW186077  14.789   2.330  11.162
28060SOL    HW286078   0.015   2.445  11.144
28061SOL     OW86079   2.619  14.647   4.357
28061SOL    HW186080   2.599  14.553   4.352
28061SOL    HW286081   2.541  14.686   4.395
28062SOL     OW86082   7.107  10.606  10.366
28062SOL    HW186083   7.040  10.674  10.357
28062SOL    HW286084   7.066  10.528  10.328
28063SOL     OW86085   0.577   9.223  11.803
28063SOL    HW186086   0.522   9.147  11.784
28063SOL    HW286087   0.524   9.298  11.774
28064SOL     OW86088  11.949   9.704   7.515
28064SOL    HW186089  11.929   9.618   7.553
28064SOL    HW286090  12.037   9.695   7.479
28065SOL     OW86091   8.988   6.750   9.186
28065SOL    HW186092   8.916   6.746   9.124
28065SOL    HW286093   9.014   6.842   9.187
28066SOL     OW86094   3.631   2.002   9.542
28066SOL    HW186095   3.700   2.044   9.594
28066SOL    HW286096   3.574   2.073   9.516
28067SOL     OW86097  10.272  13.019   6.918
28067SOL    HW186098  10.278  12.970   7.000
28067SOL    HW286099  10.322  13.099   6.934
28068SOL     OW86100   5.981   7.102  14.645
28068SOL    HW186101   5.887   7.109  14.661
28068SOL    HW286102   6.022   7.122  14.729
28069SOL     OW86103   1.014   8.782   9.866
28069SOL    HW186104   0.977   8.867   9.886
28069SOL    HW286105   0.964   8.751   9.790
28070SOL     OW86106   3.230   7.616  11.304
28070SOL    HW186107   3.256   7.700  11.267
28070SOL    HW286108   3.312   7.576  11.332
28071SOL     OW86109  12.864  10.962   8.096
28071SOL    HW186110  12.770  10.971   8.114
28071SOL    HW286111  12.905  10.968   8.182
28072SOL     OW86112   2.501   0.143   0.345
28072SOL    HW186113   2.502   0.108   0.256
28072SOL    HW286114   2.502   0.065   0.401
28073SOL     OW86115  13.333   3.796   4.174
28073SOL    HW186116  13.357   3.802   4.081
28073SOL    HW286117  13.348   3.884   4.208
28074SOL     OW86118  11.780   7.584  12.141
28074SOL    HW186119  11.761   7.522  12.070
28074SOL    HW286120  11.829   7.654  12.098
28075SOL     OW86121  13.668   5.459   0.967
28075SOL    HW186122  13.598   5.512   1.004
28075SOL    HW286123  13.625   5.402   0.904
28076SOL     OW86124   4.744   4.390   9.563
28076SOL    HW186125   4.718   4.430   9.480
28076SOL    HW286126   4.794   4.459   9.608
28077SOL     OW86127   0.879  13.768   9.829
28077SOL    HW186128   0.891  13.804   9.741
28077SOL    HW286129   0.939  13.819   9.884
28078SOL     OW86130   2.934   5.095   7.119
28078SOL    HW186131   2.989   5.111   7.043
28078SOL    HW286132   2.865   5.038   7.087
28079SOL     OW86133   3.353   7.289   2.626
28079SOL    HW186134   3.368   7.318   2.536
28079SOL    HW286135   3.327   7.197   2.617
28080SOL     OW86136   4.274   2.065   1.238
28080SOL    HW186137   4.261   2.112   1.321
28080SOL    HW286138   4.188   2.031   1.216
28081SOL     OW86139  14.343   4.408   8.486
28081SOL    HW186140  14.300   4.491   8.463
28081SOL    HW286141  14.272   4.344   8.482
28082SOL     OW86142   0.001   3.312  11.756
28082SOL    HW186143   0.006   3.315  11.661
28082SOL    HW286144  14.788   3.269  11.774
28083SOL     OW86145  13.431   0.774  13.055
28083SOL    HW186146  13.450   0.759  13.148
28083SOL    HW286147  13.512   0.750  13.010
28084SOL     OW86148  12.736   8.546   6.089
28084SOL    HW186149  12.798   8.546   6.016
28084SOL    HW286150  12.790   8.540   6.168
28085SOL     OW86151   2.812   5.529   8.290
28085SOL    HW186152   2.841   5.553   8.378
28085SOL    HW286153   2.857   5.591   8.233
28086SOL     OW86154   2.024   6.585   2.611
28086SOL    HW186155   2.018   6.644   2.686
28086SOL    HW286156   2.110   6.543   2.620
28087SOL     OW86157   3.641   4.098   5.476
28087SOL    HW186158   3.549   4.119   5.461
28087SOL    HW286159   3.688   4.180   5.456
28088SOL     OW86160   2.825  11.713   6.758
28088SOL    HW186161   2.802  11.799   6.796
28088SOL    HW286162   2.920  11.715   6.751
28089SOL     OW86163   8.769   1.728   0.877
28089SOL    HW186164   8.811   1.744   0.961
28089SOL    HW286165   8.729   1.642   0.886
28090SOL     OW86166   9.173   5.044   6.060
28090SOL    HW186167   9.085   5.013   6.040
28090SOL    HW286168   9.170   5.069   6.153
28091SOL     OW86169   1.742   0.523   2.697
28091SOL    HW186170   1.785   0.449   2.654
28091SOL    HW286171   1.811   0.589   2.705
28092SOL     OW86172  14.247  13.780   2.678
28092SOL    HW186173  14.193  13.707   2.709
28092SOL    HW286174  14.186  13.853   2.668
28093SOL     OW86175  10.624  11.811   4.655
28093SOL    HW186176  10.565  11.753   4.704
28093SOL    HW286177  10.697  11.754   4.628
28094SOL     OW86178  14.273   8.312   2.213
28094SOL    HW186179  14.208   8.282   2.150
28094SOL    HW286180  14.227   8.376   2.267
28095SOL     OW86181   1.312  10.433   0.781
28095SOL    HW186182   1.351  10.476   0.858
28095SOL    HW286183   1.322  10.497   0.710
28096SOL     OW86184   4.696   0.341   8.407
28096SOL    HW186185   4.789   0.322   8.393
28096SOL    HW286186   4.662   0.263   8.451
28097SOL     OW86187   8.983  10.112   9.730
28097SOL    HW186188   8.899  10.145   9.696
28097SOL    HW286189   9.022  10.066   9.656
28098SOL     OW86190  13.001   9.732   1.048
28098SOL    HW186191  13.071   9.680   1.089
28098SOL    HW286192  13.008   9.818   1.088
28099SOL     OW86193  10.315  11.230  10.758
28099SOL    HW186194  10.385  11.277  10.711
28099SOL    HW286195  10.249  11.297  10.775
28100SOL     OW86196  12.084   3.152   1.717
28100SOL    HW186197  12.023   3.214   1.756
28100SOL    HW286198  12.157   3.147   1.779
28101SOL     OW86199  14.331   1.557  12.158
28101SOL    HW186200  14.278   1.636  12.170
28101SOL    HW286201  14.270   1.485  12.176
28102SOL     OW86202   5.877  11.356  10.156
28102SOL    HW186203   5.915  11.285  10.208
28102SOL    HW286204   5.819  11.403  10.217
28103SOL     OW86205   4.153   6.822   8.690
28103SOL    HW186206   4.067   6.847   8.722
28103SOL    HW286207   4.194   6.905   8.666
28104SOL     OW86208  12.888   2.956   8.234
28104SOL    HW186209  12.876   3.047   8.260
28104SOL    HW286210  12.832   2.907   8.294
28105SOL     OW86211  14.182  10.783   6.888
28105SOL    HW186212  14.195  10.761   6.981
28105SOL    HW286213  14.265  10.760   6.847
28106SOL     OW86214  14.464   0.976   6.947
28106SOL    HW186215  14.541   1.032   6.953
28106SOL    HW286216  14.395   1.035   6.916
28107SOL     OW86217   5.995   1.847   5.969
28107SOL    HW186218   5.915   1.825   5.922
28107SOL    HW286219   6.063   1.848   5.902
28108SOL     OW86220   4.693   2.380   6.753
28108SOL    HW186221   4.683   2.300   6.701
28108SOL    HW286222   4.787   2.400   6.749
28109SOL     OW86223   9.059   6.949   3.713
28109SOL    HW186224   9.041   6.888   3.784
28109SOL    HW286225   9.054   6.897   3.633
28110SOL     OW86226   8.345   6.511   9.032
28110SOL    HW186227   8.404   6.523   9.106
28110SOL    HW286228   8.375   6.574   8.967
28111SOL     OW86229   5.468   1.348   1.686
28111SOL    HW186230   5.482   1.418   1.623
28111SOL    HW286231   5.432   1.393   1.763
28112SOL     OW86232  11.606  11.570   5.874
28112SOL    HW186233  11.513  11.549   5.877
28112SOL    HW286234  11.646  11.512   5.938
28113SOL     OW86235  10.615  11.355   7.906
28113SOL    HW186236  10.591  11.447   7.902
28113SOL    HW286237  10.705  11.355   7.939
28114SOL     OW86238  11.489   9.787  12.685
28114SOL    HW186239  11.579   9.800  12.653
28114SOL    HW286240  11.483   9.842  12.763
28115SOL     OW86241  10.147  13.165  14.290
28115SOL    HW186242  10.210  13.107  14.247
28115SOL    HW286243  10.129  13.233  14.226
28116SOL     OW86244   1.696   2.734  14.268
28116SOL    HW186245   1.724   2.796  14.200
28116SOL    HW286246   1.772   2.723  14.324
28117SOL     OW86247   3.329   2.128   2.928
28117SOL    HW186248   3.359   2.152   3.016
28117SOL    HW286249   3.388   2.058   2.901
28118SOL     OW86250   6.289   5.531   7.173
28118SOL    HW186251   6.262   5.460   7.115
28118SOL    HW286252   6.215   5.592   7.171
28119SOL     OW86253   8.508   5.253   8.503
28119SOL    HW186254   8.420   5.217   8.492
28119SOL    HW286255   8.557   5.221   8.428
28120SOL     OW86256  13.322   3.675  11.087
28120SOL    HW186257  13.366   3.759  11.101
28120SOL    HW286258  13.266   3.663  11.164
28121SOL     OW86259   3.253  12.471   9.941
28121SOL    HW186260   3.304  12.545   9.908
28121SOL    HW286261   3.318  12.410   9.974
28122SOL     OW86262   3.221  14.634  14.460
28122SOL    HW186263   3.270  14.710  14.491
28122SOL    HW286264   3.228  14.638  14.365
28123SOL     OW86265   8.730   0.842   0.924
28123SOL    HW186266   8.750   0.886   1.007
28123SOL    HW286267   8.712   0.751   0.949
28124SOL     OW86268   7.945  13.756   6.431
28124SOL    HW186269   7.928  13.800   6.348
28124SOL    HW286270   8.035  13.726   6.424
28125SOL     OW86271  14.158  10.089   9.407
28125SOL    HW186272  14.089  10.054   9.350
28125SOL    HW286273  14.127  10.073   9.496
28126SOL     OW86274  10.530  12.616  10.222
28126SOL    HW186275  10.487  12.555  10.162
28126SOL    HW286276  10.468  12.688  10.231
28127SOL     OW86277   2.068  12.704   8.502
28127SOL    HW186278   2.020  12.767   8.556
28127SOL    HW286279   2.031  12.713   8.415
28128SOL     OW86280  12.295   3.645   0.941
28128SOL    HW186281  12.284   3.569   0.885
28128SOL    HW286282  12.279   3.612   1.030
28129SOL     OW86283  12.383   0.236   4.326
28129SOL    HW186284  12.400   0.328   4.307
28129SOL    HW286285  12.470   0.196   4.330
28130SOL     OW86286   2.597   9.468   8.863
28130SOL    HW186287   2.563   9.486   8.775
28130SOL    HW286288   2.612   9.555   8.901
28131SOL     OW86289   3.344   6.913   8.926
28131SOL    HW186290   3.348   6.861   8.846
28131SOL    HW286291   3.350   6.849   8.997
28132SOL     OW86292   7.944   7.263   1.353
28132SOL    HW186293   7.873   7.221   1.305
28132SOL    HW286294   7.912   7.351   1.373
28133SOL     OW86295   2.059   5.268   3.892
28133SOL    HW186296   2.124   5.241   3.828
28133SOL    HW286297   2.110   5.292   3.969
28134SOL     OW86298  14.445   3.235  14.603
28134SOL    HW186299  14.457   3.330  14.599
28134SOL    HW286300  14.369   3.219  14.547
28135SOL     OW86301   1.713   4.834   4.805
28135SOL    HW186302   1.665   4.867   4.729
28135SOL    HW286303   1.685   4.744   4.815
28136SOL     OW86304  13.757  12.029   6.432
28136SOL    HW186305  13.719  11.967   6.494
28136SOL    HW286306  13.773  11.978   6.353
28137SOL     OW86307   9.717  10.340   3.637
28137SOL    HW186308   9.733  10.380   3.552
28137SOL    HW286309   9.696  10.248   3.618
28138SOL     OW86310   3.920   5.897   7.555
28138SOL    HW186311   3.871   5.897   7.638
28138SOL    HW286312   3.999   5.948   7.574
28139SOL     OW86313   2.073  13.927  12.651
28139SOL    HW186314   2.093  13.868  12.724
28139SOL    HW286315   2.153  13.928  12.598
28140SOL     OW86316   7.668   2.827  10.352
28140SOL    HW186317   7.600   2.805  10.289
28140SOL    HW286318   7.621   2.868  10.425
28141SOL     OW86319   5.455   7.919  12.990
28141SOL    HW186320   5.400   7.939  13.066
28141SOL    HW286321   5.444   7.825  12.977
28142SOL     OW86322   4.340   8.155  12.393
28142SOL    HW186323   4.415   8.211  12.375
28142SOL    HW286324   4.369   8.067  12.369
28143SOL     OW86325  13.966   7.354  12.985
28143SOL    HW186326  13.923   7.323  12.905
28143SOL    HW286327  13.964   7.450  12.977
28144SOL     OW86328  12.659   8.044  13.972
28144SOL    HW186329  12.713   7.976  14.012
28144SOL    HW286330  12.572   8.032  14.010
28145SOL     OW86331   7.862  11.626   4.483
28145SOL    HW186332   7.791  11.630   4.548
28145SOL    HW286333   7.850  11.705   4.430
28146SOL     OW86334   8.979   4.364   4.983
28146SOL    HW186335   9.005   4.433   4.922
28146SOL    HW286336   9.052   4.359   5.045
28147SOL     OW86337   7.833   4.175   8.949
28147SOL    HW186338   7.811   4.110   9.015
28147SOL    HW286339   7.761   4.238   8.951
28148SOL     OW86340  10.803  12.641   0.004
28148SOL    HW186341  10.711  12.629   0.030
28148SOL    HW286342  10.802  12.635  14.780
28149SOL     OW86343   9.171   9.800   5.949
28149SOL    HW186344   9.247   9.758   5.989
28149SOL    HW286345   9.196   9.815   5.858
28150SOL     OW86346   5.649   5.679  13.784
28150SOL    HW186347   5.719   5.706  13.725
28150SOL    HW286348   5.581   5.746  13.772
28151SOL     OW86349   6.206  14.716   2.593
28151SOL    HW186350   6.124  14.766   2.602
28151SOL    HW286351   6.196  14.643   2.654
28152SOL     OW86352   2.441   1.479  11.599
28152SOL    HW186353   2.510   1.484  11.666
28152SOL    HW286354   2.488   1.478  11.516
28153SOL     OW86355   3.336  13.603  14.573
28153SOL    HW186356   3.297  13.658  14.641
28153SOL    HW286357   3.274  13.608  14.500
28154SOL     OW86358   2.380   5.979   5.869
28154SOL    HW186359   2.368   6.070   5.842
28154SOL    HW286360   2.317   5.966   5.940
28155SOL     OW86361   2.529  12.963   9.928
28155SOL    HW186362   2.524  13.013   9.846
28155SOL    HW286363   2.439  12.964   9.961
28156SOL     OW86364  10.677   5.551   8.865
28156SOL    HW186365  10.593   5.595   8.865
28156SOL    HW286366  10.714   5.569   8.779
28157SOL     OW86367   0.248   6.499   3.018
28157SOL    HW186368   0.335   6.459   3.013
28157SOL    HW286369   0.194   6.433   3.061
28158SOL     OW86370   8.645   8.703   5.901
28158SOL    HW186371   8.613   8.791   5.924
28158SOL    HW286372   8.643   8.701   5.805
28159SOL     OW86373  13.287  14.122  13.658
28159SOL    HW186374  13.266  14.047  13.601
28159SOL    HW286375  13.355  14.169  13.610
28160SOL     OW86376  11.423   4.372  12.041
28160SOL    HW186377  11.331   4.347  12.032
28160SOL    HW286378  11.428   4.461  12.006
28161SOL     OW86379  12.181   2.936  11.557
28161SOL    HW186380  12.139   2.875  11.495
28161SOL    HW286381  12.164   3.022  11.520
28162SOL     OW86382   3.961  13.172   0.738
28162SOL    HW186383   3.928  13.258   0.764
28162SOL    HW286384   4.056  13.183   0.733
28163SOL     OW86385   6.662  11.106   4.261
28163SOL    HW186386   6.699  11.184   4.302
28163SOL    HW286387   6.737  11.047   4.250
28164SOL     OW86388   1.541  12.004  14.445
28164SOL    HW186389   1.517  12.083  14.494
28164SOL    HW286390   1.458  11.965  14.420
28165SOL     OW86391   5.038   8.664   1.222
28165SOL    HW186392   5.107   8.680   1.158
28165SOL    HW286393   4.957   8.664   1.171
28166SOL     OW86394  10.519   9.828  14.662
28166SOL    HW186395  10.477   9.832  14.576
28166SOL    HW286396  10.596   9.771  14.648
28167SOL     OW86397   4.353   3.175   5.049
28167SOL    HW186398   4.345   3.088   5.089
28167SOL    HW286399   4.434   3.170   4.998
28168SOL     OW86400   0.720  11.615   2.396
28168SOL    HW186401   0.669  11.586   2.471
28168SOL    HW286402   0.811  11.605   2.423
28169SOL     OW86403   7.038   8.680   3.227
28169SOL    HW186404   7.064   8.638   3.310
28169SOL    HW286405   6.959   8.633   3.201
28170SOL     OW86406  10.141  10.455  11.563
28170SOL    HW186407  10.062  10.400  11.562
28170SOL    HW286408  10.139  10.503  11.480
28171SOL     OW86409   3.368  11.045   6.372
28171SOL    HW186410   3.398  10.955   6.366
28171SOL    HW286411   3.388  11.071   6.462
28172SOL     OW86412   1.739  11.679  14.822
28172SOL    HW186413   1.800  11.606  14.815
28172SOL    HW286414   1.692  11.679  14.738
28173SOL     OW86415   2.592   0.313   3.817
28173SOL    HW186416   2.501   0.311   3.845
28173SOL    HW286417   2.608   0.404   3.793
28174SOL     OW86418   8.934  12.624   1.701
28174SOL    HW186419   8.875  12.550   1.714
28174SOL    HW286420   8.995  12.595   1.633
28175SOL     OW86421  14.371  10.890   1.813
28175SOL    HW186422  14.399  10.937   1.735
28175SOL    HW286423  14.417  10.933   1.885
28176SOL     OW86424   4.446   5.412  11.364
28176SOL    HW186425   4.421   5.452  11.281
28176SOL    HW286426   4.480   5.485  11.416
28177SOL     OW86427  14.459   7.971   4.461
28177SOL    HW186428  14.425   8.044   4.513
28177SOL    HW286429  14.542   8.004   4.425
28178SOL     OW86430   6.236   3.845   8.735
28178SOL    HW186431   6.280   3.787   8.797
28178SOL    HW286432   6.307   3.889   8.688
28179SOL     OW86433   4.995  11.866   0.830
28179SOL    HW186434   4.989  11.893   0.922
28179SOL    HW286435   5.088  11.859   0.812
28180SOL     OW86436  12.128  10.870   7.657
28180SOL    HW186437  12.223  10.860   7.654
28180SOL    HW286438  12.110  10.903   7.745
28181SOL     OW86439  14.679  10.488   4.590
28181SOL    HW186440  14.597  10.517   4.629
28181SOL    HW286441  14.652  10.435   4.515
28182SOL     OW86442  13.922   2.984  10.405
28182SOL    HW186443  13.835   2.957  10.434
28182SOL    HW286444  13.955   3.040  10.475
28183SOL     OW86445   0.306   1.660  14.470
28183SOL    HW186446   0.358   1.625  14.398
28183SOL    HW286447   0.326   1.753  14.471
28184SOL     OW86448   2.685   1.030   1.373
28184SOL    HW186449   2.760   0.974   1.356
28184SOL    HW286450   2.702   1.109   1.322
28185SOL     OW86451  14.869   3.965   5.475
28185SOL    HW186452   0.061   3.921   5.418
28185SOL    HW286453   0.021   4.057   5.471
28186SOL     OW86454   7.552   4.499   6.996
28186SOL    HW186455   7.501   4.580   6.991
28186SOL    HW286456   7.633   4.524   7.040
28187SOL     OW86457   9.523  13.294   8.026
28187SOL    HW186458   9.505  13.321   8.115
28187SOL    HW286459   9.460  13.224   8.009
28188SOL     OW86460   4.348  11.695   7.390
28188SOL    HW186461   4.287  11.646   7.335
28188SOL    HW286462   4.379  11.632   7.455
28189SOL     OW86463   4.000   3.092   4.810
28189SOL    HW186464   3.995   3.035   4.734
28189SOL    HW286465   4.085   3.136   4.801
28190SOL     OW86466   4.169   7.784   4.099
28190SOL    HW186467   4.199   7.695   4.086
28190SOL    HW286468   4.245   7.831   4.134
28191SOL     OW86469   4.682   7.875  10.712
28191SOL    HW186470   4.618   7.945  10.697
28191SOL    HW286471   4.646   7.825  10.785
28192SOL     OW86472   1.470   1.998  12.657
28192SOL    HW186473   1.532   2.017  12.728
28192SOL    HW286474   1.386   1.985  12.701
28193SOL     OW86475  12.174   2.247  14.637
28193SOL    HW186476  12.146   2.196  14.561
28193SOL    HW286477  12.134   2.333  14.625
28194SOL     OW86478  12.978  13.390   8.441
28194SOL    HW186479  12.900  13.421   8.395
28194SOL    HW286480  13.051  13.431   8.394
28195SOL     OW86481   9.831   2.643  10.157
28195SOL    HW186482   9.738   2.648  10.178
28195SOL    HW286483   9.838   2.568  10.097
28196SOL     OW86484   6.397  11.037   5.236
28196SOL    HW186485   6.372  11.055   5.326
28196SOL    HW286486   6.337  10.968   5.207
28197SOL     OW86487   6.761   6.752  11.973
28197SOL    HW186488   6.761   6.656  11.968
28197SOL    HW286489   6.678   6.778  11.933
28198SOL     OW86490   0.831  12.688   0.380
28198SOL    HW186491   0.808  12.745   0.307
28198SOL    HW286492   0.780  12.608   0.366
28199SOL     OW86493  11.662  10.212  11.137
28199SOL    HW186494  11.673  10.269  11.061
28199SOL    HW286495  11.612  10.137  11.105
28200SOL     OW86496  14.389  13.754   6.715
28200SOL    HW186497  14.440  13.689   6.666
28200SOL    HW286498  14.335  13.703   6.774
28201SOL     OW86499   3.964   0.463   5.501
28201SOL    HW186500   4.048   0.473   5.456
28201SOL    HW286501   3.984   0.482   5.592
28202SOL     OW86502   0.060  13.192  13.426
28202SOL    HW186503   0.008  13.256  13.378
28202SOL    HW286504   0.001  13.118  13.441
28203SOL     OW86505  12.254  12.421  11.092
28203SOL    HW186506  12.221  12.383  11.010
28203SOL    HW286507  12.326  12.364  11.118
28204SOL     OW86508   7.976   4.998  13.355
28204SOL    HW186509   7.963   4.924  13.295
28204SOL    HW286510   7.935   4.969  13.437
28205SOL     OW86511   5.173   3.151   8.054
28205SOL    HW186512   5.159   3.231   8.003
28205SOL    HW286513   5.087   3.132   8.092
28206SOL     OW86514  11.135   4.591   7.454
28206SOL    HW186515  11.085   4.542   7.388
28206SOL    HW286516  11.219   4.608   7.412
28207SOL     OW86517   2.071  13.527   5.851
28207SOL    HW186518   2.108  13.453   5.899
28207SOL    HW286519   1.977  13.517   5.861
28208SOL     OW86520  10.167   2.317   7.731
28208SOL    HW186521  10.093   2.319   7.671
28208SOL    HW286522  10.241   2.288   7.678
28209SOL     OW86523   3.855   3.065  12.152
28209SOL    HW186524   3.943   3.100  12.138
28209SOL    HW286525   3.816   3.061  12.064
28210SOL     OW86526   9.276   5.141  12.246
28210SOL    HW186527   9.268   5.090  12.166
28210SOL    HW286528   9.210   5.209  12.238
28211SOL     OW86529   7.144   2.540   4.476
28211SOL    HW186530   7.217   2.550   4.538
28211SOL    HW286531   7.126   2.446   4.474
28212SOL     OW86532   8.905   4.951   5.970
28212SOL    HW186533   8.823   4.955   6.020
28212SOL    HW286534   8.879   4.919   5.884
28213SOL     OW86535   7.941   6.850  10.976
28213SOL    HW186536   7.869   6.797  10.943
28213SOL    HW286537   7.947   6.924  10.915
28214SOL     OW86538   1.772   6.806   2.711
28214SOL    HW186539   1.775   6.713   2.729
28214SOL    HW286540   1.724   6.813   2.628
28215SOL     OW86541  12.751   0.981   9.095
28215SOL    HW186542  12.787   0.991   9.183
28215SOL    HW286543  12.750   0.886   9.080
28216SOL     OW86544   1.006   0.504   8.538
28216SOL    HW186545   0.918   0.467   8.551
28216SOL    HW286546   1.004   0.538   8.449
28217SOL     OW86547  11.075   3.961   0.027
28217SOL    HW186548  11.047   3.876  14.864
28217SOL    HW286549  11.099   4.012  14.821
28218SOL     OW86550  14.099   1.562  14.799
28218SOL    HW186551  14.035   1.594  14.736
28218SOL    HW286552  14.075   1.471  14.814
28219SOL     OW86553   4.485  13.576   5.680
28219SOL    HW186554   4.546  13.527   5.625
28219SOL    HW286555   4.513  13.667   5.671
28220SOL     OW86556   9.519   5.721   2.693
28220SOL    HW186557   9.504   5.728   2.787
28220SOL    HW286558   9.533   5.627   2.679
28221SOL     OW86559  13.204  13.311  11.729
28221SOL    HW186560  13.153  13.363  11.792
28221SOL    HW286561  13.268  13.265  11.783
28222SOL     OW86562   9.363   2.344  10.234
28222SOL    HW186563   9.399   2.331  10.146
28222SOL    HW286564   9.438   2.370  10.287
28223SOL     OW86565   3.733   5.233  12.662
28223SOL    HW186566   3.723   5.147  12.621
28223SOL    HW286567   3.804   5.275  12.613
28224SOL     OW86568   9.292   7.670  12.018
28224SOL    HW186569   9.289   7.741  11.955
28224SOL    HW286570   9.226   7.608  11.988
28225SOL     OW86571   9.781  12.615   2.517
28225SOL    HW186572   9.847  12.575   2.574
28225SOL    HW286573   9.700  12.613   2.568
28226SOL     OW86574  12.429   7.033  14.112
28226SOL    HW186575  12.444   7.093  14.038
28226SOL    HW286576  12.480   7.070  14.183
28227SOL     OW86577  10.678   0.654  13.805
28227SOL    HW186578  10.761   0.699  13.787
28227SOL    HW286579  10.628   0.666  13.724
28228SOL     OW86580  14.264  13.109   9.699
28228SOL    HW186581  14.285  13.135   9.609
28228SOL    HW286582  14.338  13.053   9.725
28229SOL     OW86583   4.311  11.295  13.600
28229SOL    HW186584   4.342  11.368  13.545
28229SOL    HW286585   4.390  11.244  13.619
28230SOL     OW86586   0.527   1.533  13.816
28230SOL    HW186587   0.615   1.516  13.781
28230SOL    HW286588   0.490   1.446  13.831
28231SOL     OW86589  13.218  12.387   7.438
28231SOL    HW186590  13.291  12.438   7.472
28231SOL    HW286591  13.248  12.296   7.442
28232SOL     OW86592   5.403   9.296   4.011
28232SOL    HW186593   5.394   9.216   4.063
28232SOL    HW286594   5.492   9.293   3.978
28233SOL     OW86595   6.454  14.353  14.658
28233SOL    HW186596   6.413  14.267  14.667
28233SOL    HW286597   6.409  14.408  14.722
28234SOL     OW86598   6.389   9.254  13.128
28234SOL    HW186599   6.382   9.235  13.221
28234SOL    HW286600   6.459   9.197  13.097
28235SOL     OW86601   6.950   0.909   6.518
28235SOL    HW186602   6.880   0.855   6.553
28235SOL    HW286603   6.907   0.990   6.491
28236SOL     OW86604   4.117   9.283  11.374
28236SOL    HW186605   4.116   9.333  11.455
28236SOL    HW286606   4.210   9.271  11.354
28237SOL     OW86607  12.849  11.078   7.815
28237SOL    HW186608  12.856  11.052   7.907
28237SOL    HW286609  12.938  11.098   7.789
28238SOL     OW86610   5.307   0.587   4.256
28238SOL    HW186611   5.252   0.559   4.182
28238SOL    HW286612   5.300   0.683   4.255
28239SOL     OW86613   3.402   5.880   3.230
28239SOL    HW186614   3.423   5.947   3.165
28239SOL    HW286615   3.484   5.834   3.245
28240SOL     OW86616   3.701  13.061   5.906
28240SOL    HW186617   3.654  13.093   5.829
28240SOL    HW286618   3.794  13.067   5.882
28241SOL     OW86619  14.439  14.131   5.006
28241SOL    HW186620  14.406  14.048   4.970
28241SOL    HW286621  14.413  14.197   4.943
28242SOL     OW86622   8.309   2.638   2.383
28242SOL    HW186623   8.299   2.543   2.377
28242SOL    HW286624   8.345   2.663   2.298
28243SOL     OW86625   0.882  10.082  10.150
28243SOL    HW186626   0.925  10.075  10.236
28243SOL    HW286627   0.951  10.059  10.088
28244SOL     OW86628   1.357  11.144   3.507
28244SOL    HW186629   1.265  11.149   3.480
28244SOL    HW286630   1.405  11.173   3.430
28245SOL     OW86631  14.510   7.509  11.805
28245SOL    HW186632  14.514   7.427  11.756
28245SOL    HW286633  14.432   7.500  11.860
28246SOL     OW86634   7.165   1.082   7.145
28246SOL    HW186635   7.131   1.060   7.232
28246SOL    HW286636   7.223   1.009   7.122
28247SOL     OW86637   5.872   2.382   0.066
28247SOL    HW186638   5.815   2.397   0.141
28247SOL    HW286639   5.849   2.294   0.036
28248SOL     OW86640  13.790   8.527   5.005
28248SOL    HW186641  13.869   8.496   4.962
28248SOL    HW286642  13.732   8.451   5.006
28249SOL     OW86643   2.399  10.787  12.213
28249SOL    HW186644   2.432  10.835  12.137
28249SOL    HW286645   2.441  10.701  12.208
28250SOL     OW86646   1.241   4.078   9.827
28250SOL    HW186647   1.297   4.153   9.811
28250SOL    HW286648   1.265   4.015   9.759
28251SOL     OW86649   8.882   0.888  11.445
28251SOL    HW186650   8.880   0.794  11.427
28251SOL    HW286651   8.975   0.912  11.441
28252SOL     OW86652   3.563  11.989   3.587
28252SOL    HW186653   3.474  11.953   3.582
28252SOL    HW286654   3.576  12.007   3.680
28253SOL     OW86655   9.514   6.377  13.010
28253SOL    HW186656   9.565   6.301  12.983
28253SOL    HW286657   9.480   6.414  12.928
28254SOL     OW86658   2.231  11.406   2.466
28254SOL    HW186659   2.293  11.478   2.471
28254SOL    HW286660   2.283  11.328   2.486
28255SOL     OW86661   6.876   2.516   1.123
28255SOL    HW186662   6.970   2.499   1.115
28255SOL    HW286663   6.840   2.490   1.038
28256SOL     OW86664   1.555  13.858  10.344
28256SOL    HW186665   1.477  13.872  10.397
28256SOL    HW286666   1.576  13.944  10.308
28257SOL     OW86667   8.183   1.086   3.304
28257SOL    HW186668   8.096   1.090   3.264
28257SOL    HW286669   8.225   1.169   3.279
28258SOL     OW86670   5.360  14.775  14.834
28258SOL    HW186671   5.368  14.816  14.748
28258SOL    HW286672   5.433  14.714  14.838
28259SOL     OW86673   3.076   4.465  13.148
28259SOL    HW186674   3.140   4.494  13.213
28259SOL    HW286675   3.001   4.523  13.160
28260SOL     OW86676   9.937  14.463   3.029
28260SOL    HW186677   9.960  14.539   3.083
28260SOL    HW286678   9.997  14.394   3.057
28261SOL     OW86679   7.999  12.010  11.412
28261SOL    HW186680   7.925  12.001  11.471
28261SOL    HW286681   8.027  11.920  11.394
28262SOL     OW86682   6.880  14.399   0.834
28262SOL    HW186683   6.902  14.306   0.833
28262SOL    HW286684   6.831  14.413   0.752
28263SOL     OW86685   2.844   7.904   9.932
28263SOL    HW186686   2.894   7.892   9.851
28263SOL    HW286687   2.864   7.993   9.960
28264SOL     OW86688   3.235   8.110  14.176
28264SOL    HW186689   3.243   8.145  14.264
28264SOL    HW286690   3.324   8.116  14.140
28265SOL     OW86691   7.921  13.541   9.945
28265SOL    HW186692   8.005  13.542   9.900
28265SOL    HW286693   7.929  13.609  10.013
28266SOL     OW86694   9.259  10.621  13.163
28266SOL    HW186695   9.266  10.692  13.226
28266SOL    HW286696   9.256  10.542  13.217
28267SOL     OW86697   2.300   8.111  10.879
28267SOL    HW186698   2.362   8.041  10.863
28267SOL    HW286699   2.330   8.184  10.824
28268SOL     OW86700  13.950  12.498   8.217
28268SOL    HW186701  13.896  12.422   8.196
28268SOL    HW286702  13.944  12.506   8.312
28269SOL     OW86703   0.613   8.810  11.848
28269SOL    HW186704   0.616   8.736  11.787
28269SOL    HW286705   0.590   8.885  11.794
28270SOL     OW86706   0.231   8.121  13.028
28270SOL    HW186707   0.294   8.126  13.100
28270SOL    HW286708   0.244   8.203  12.979
28271SOL     OW86709   7.243   2.931  12.800
28271SOL    HW186710   7.167   2.906  12.747
28271SOL    HW286711   7.206   2.979  12.874
28272SOL     OW86712   0.931  13.843   8.537
28272SOL    HW186713   0.900  13.790   8.463
28272SOL    HW286714   0.961  13.778   8.601
28273SOL     OW86715  12.513  12.549   0.865
28273SOL    HW186716  12.602  12.523   0.889
28273SOL    HW286717  12.489  12.491   0.793
28274SOL     OW86718   2.045  11.279   7.281
28274SOL    HW186719   2.063  11.219   7.353
28274SOL    HW286720   2.124  11.332   7.273
28275SOL     OW86721   3.038   5.388  10.308
28275SOL    HW186722   2.980   5.429  10.372
28275SOL    HW286723   3.104   5.455  10.290
28276SOL     OW86724   7.472  13.629   8.893
28276SOL    HW186725   7.504  13.621   8.982
28276SOL    HW286726   7.421  13.710   8.893
28277SOL     OW86727  10.808   5.802   2.021
28277SOL    HW186728  10.902   5.818   2.032
28277SOL    HW286729  10.803   5.740   1.948
28278SOL     OW86730   6.666   7.709   5.068
28278SOL    HW186731   6.738   7.715   5.131
28278SOL    HW286732   6.608   7.781   5.091
28279SOL     OW86733   0.257  13.839   5.343
28279SOL    HW186734   0.213  13.906   5.396
28279SOL    HW286735   0.262  13.877   5.256
28280SOL     OW86736   8.364   1.670   2.499
28280SOL    HW186737   8.404   1.741   2.448
28280SOL    HW286738   8.302   1.629   2.438
28281SOL     OW86739   8.263   1.416   6.947
28281SOL    HW186740   8.277   1.455   6.860
28281SOL    HW286741   8.236   1.490   7.002
28282SOL     OW86742  14.594  10.272   8.080
28282SOL    HW186743  14.617  10.183   8.052
28282SOL    HW286744  14.531  10.259   8.151
28283SOL     OW86745   7.176  14.288   8.903
28283SOL    HW186746   7.213  14.375   8.915
28283SOL    HW286747   7.178  14.248   8.990
28284SOL     OW86748   1.552   2.066  10.410
28284SOL    HW186749   1.579   2.124  10.481
28284SOL    HW286750   1.506   2.124  10.348
28285SOL     OW86751   3.519   6.134  11.348
28285SOL    HW186752   3.536   6.043  11.323
28285SOL    HW286753   3.518   6.134  11.443
28286SOL     OW86754   3.059   5.571   6.547
28286SOL    HW186755   3.143   5.548   6.507
28286SOL    HW286756   2.998   5.575   6.474
28287SOL     OW86757  10.523  11.858   3.572
28287SOL    HW186758  10.603  11.874   3.623
28287SOL    HW286759  10.477  11.790   3.620
28288SOL     OW86760   1.310   9.378   1.073
28288SOL    HW186761   1.255   9.450   1.103
28288SOL    HW286762   1.370   9.419   1.010
28289SOL     OW86763  13.564   2.348   8.383
28289SOL    HW186764  13.470   2.347   8.365
28289SOL    HW286765  13.600   2.281   8.325
28290SOL     OW86766   2.423   5.258   0.198
28290SOL    HW186767   2.394   5.311   0.272
28290SOL    HW286768   2.418   5.317   0.123
28291SOL     OW86769  10.601   5.074   3.392
28291SOL    HW186770  10.550   5.008   3.345
28291SOL    HW286771  10.688   5.072   3.351
28292SOL     OW86772  11.027   9.542  12.218
28292SOL    HW186773  11.049   9.449  12.222
28292SOL    HW286774  10.968   9.550  12.143
28293SOL     OW86775  11.570   0.606   8.166
28293SOL    HW186776  11.477   0.585   8.174
28293SOL    HW286777  11.575   0.662   8.088
28294SOL     OW86778  14.617  13.731   0.182
28294SOL    HW186779  14.675  13.656   0.168
28294SOL    HW286780  14.552  13.725   0.112
28295SOL     OW86781   5.654   9.334   8.856
28295SOL    HW186782   5.692   9.253   8.822
28295SOL    HW286783   5.637   9.316   8.948
28296SOL     OW86784  11.354  14.653   5.695
28296SOL    HW186785  11.386  14.739   5.722
28296SOL    HW286786  11.278  14.638   5.752
28297SOL     OW86787   6.213   3.328   6.196
28297SOL    HW186788   6.308   3.345   6.195
28297SOL    HW286789   6.205   3.240   6.232
28298SOL     OW86790  13.748  12.072  10.926
28298SOL    HW186791  13.807  12.083  11.000
28298SOL    HW286792  13.799  12.099  10.850
28299SOL     OW86793   6.750  10.313   1.984
28299SOL    HW186794   6.750  10.340   1.892
28299SOL    HW286795   6.827  10.357   2.021
28300SOL     OW86796   0.835   3.103   0.188
28300SOL    HW186797   0.778   3.180   0.186
28300SOL    HW286798   0.781   3.033   0.153
28301SOL     OW86799   2.846   6.304  12.699
28301SOL    HW186800   2.823   6.267  12.784
28301SOL    HW286801   2.882   6.391  12.720
28302SOL     OW86802   0.078   2.731   5.316
28302SOL    HW186803   0.106   2.649   5.358
28302SOL    HW286804   0.127   2.799   5.363
28303SOL     OW86805   9.414  13.051  11.385
28303SOL    HW186806   9.354  13.055  11.311
28303SOL    HW286807   9.450  12.962  11.382
28304SOL     OW86808  12.385   6.453  11.230
28304SOL    HW186809  12.480   6.456  11.226
28304SOL    HW286810  12.361   6.514  11.300
28305SOL     OW86811   5.972   9.999   0.543
28305SOL    HW186812   6.005  10.089   0.547
28305SOL    HW286813   6.019   9.959   0.469
28306SOL     OW86814   8.628  12.163  13.270
28306SOL    HW186815   8.534  12.178  13.265
28306SOL    HW286816   8.663  12.202  13.189
28307SOL     OW86817  11.876   6.853  12.405
28307SOL    HW186818  11.805   6.827  12.346
28307SOL    HW286819  11.921   6.772  12.426
28308SOL     OW86820  10.124   9.428   1.593
28308SOL    HW186821  10.088   9.390   1.513
28308SOL    HW286822  10.147   9.518   1.568
28309SOL     OW86823  11.365   9.390  10.372
28309SOL    HW186824  11.366   9.391  10.276
28309SOL    HW286825  11.279   9.425  10.395
28310SOL     OW86826  12.183  10.321   6.177
28310SOL    HW186827  12.125  10.248   6.198
28310SOL    HW286828  12.199  10.364   6.262
28311SOL     OW86829   4.956  13.134  13.219
28311SOL    HW186830   4.892  13.072  13.253
28311SOL    HW286831   4.989  13.093  13.139
28312SOL     OW86832  14.045  14.803   3.109
28312SOL    HW186833  14.117  14.835   3.163
28312SOL    HW286834  13.990  14.752   3.169
28313SOL     OW86835   5.084   8.968   8.191
28313SOL    HW186836   5.036   9.025   8.130
28313SOL    HW286837   5.175   8.997   8.185
28314SOL     OW86838   5.691   7.132  12.005
28314SOL    HW186839   5.607   7.177  12.000
28314SOL    HW286840   5.705   7.117  12.099
28315SOL     OW86841   5.908   9.820  10.706
28315SOL    HW186842   5.962   9.860  10.774
28315SOL    HW286843   5.971   9.785  10.643
28316SOL     OW86844  10.958  12.004   2.135
28316SOL    HW186845  10.939  11.951   2.212
28316SOL    HW286846  10.872  12.034   2.105
28317SOL     OW86847   5.259   5.746  12.146
28317SOL    HW186848   5.164   5.736  12.155
28317SOL    HW286849   5.289   5.768  12.234
28318SOL     OW86850  11.701   1.471   7.782
28318SOL    HW186851  11.704   1.422   7.864
28318SOL    HW286852  11.609   1.497   7.772
28319SOL     OW86853   1.085   6.116  12.486
28319SOL    HW186854   1.146   6.060  12.535
28319SOL    HW286855   1.124   6.203  12.490
28320SOL     OW86856   7.747   5.875  11.110
28320SOL    HW186857   7.722   5.967  11.116
28320SOL    HW286858   7.829   5.876  11.060
28321SOL     OW86859  14.595   8.764   7.104
28321SOL    HW186860  14.629   8.676   7.091
28321SOL    HW286861  14.532   8.756   7.176
28322SOL     OW86862   9.605   4.328  13.454
28322SOL    HW186863   9.690   4.292  13.430
28322SOL    HW286864   9.569   4.264  13.515
28323SOL     OW86865  12.165   9.871   7.080
28323SOL    HW186866  12.113   9.946   7.051
28323SOL    HW286867  12.108   9.795   7.065
28324SOL     OW86868   1.959  12.786  12.085
28324SOL    HW186869   2.010  12.781  12.004
28324SOL    HW286870   2.019  12.822  12.150
28325SOL     OW86871  12.370   4.785   4.104
28325SOL    HW186872  12.383   4.855   4.168
28325SOL    HW286873  12.433   4.717   4.131
28326SOL     OW86874   9.549  13.085  13.461
28326SOL    HW186875   9.637  13.113  13.485
28326SOL    HW286876   9.538  13.001  13.506
28327SOL     OW86877   0.185   1.716   8.017
28327SOL    HW186878   0.155   1.629   7.990
28327SOL    HW286879   0.277   1.704   8.039
28328SOL     OW86880   0.309   8.209   6.856
28328SOL    HW186881   0.312   8.268   6.780
28328SOL    HW286882   0.270   8.129   6.822
28329SOL     OW86883  12.212   3.843   3.071
28329SOL    HW186884  12.307   3.833   3.081
28329SOL    HW286885  12.180   3.754   3.062
28330SOL     OW86886   4.427   4.717  14.733
28330SOL    HW186887   4.489   4.645  14.745
28330SOL    HW286888   4.399   4.710  14.642
28331SOL     OW86889   1.015   3.279  12.705
28331SOL    HW186890   0.954   3.327  12.649
28331SOL    HW286891   0.970   3.272  12.789
28332SOL     OW86892   8.142   2.020  14.296
28332SOL    HW186893   8.153   1.929  14.266
28332SOL    HW286894   8.117   2.068  14.218
28333SOL     OW86895   3.234   2.075   4.099
28333SOL    HW186896   3.249   2.078   4.005
28333SOL    HW286897   3.289   2.143   4.136
28334SOL     OW86898   4.294   8.820   0.606
28334SOL    HW186899   4.296   8.886   0.675
28334SOL    HW286900   4.214   8.771   0.622
28335SOL     OW86901   4.702   7.841   4.648
28335SOL    HW186902   4.665   7.893   4.577
28335SOL    HW286903   4.762   7.780   4.605
28336SOL     OW86904  13.341   3.993  12.686
28336SOL    HW186905  13.270   4.014  12.626
28336SOL    HW286906  13.406   4.062  12.671
28337SOL     OW86907  13.406  13.615   7.805
28337SOL    HW186908  13.426  13.692   7.859
28337SOL    HW286909  13.465  13.547   7.838
28338SOL     OW86910   0.343  13.319   6.207
28338SOL    HW186911   0.327  13.328   6.301
28338SOL    HW286912   0.265  13.274   6.174
28339SOL     OW86913  12.761   6.698   0.353
28339SOL    HW186914  12.705   6.646   0.295
28339SOL    HW286915  12.713   6.704   0.435
28340SOL     OW86916   1.124   5.984   8.601
28340SOL    HW186917   1.104   5.894   8.577
28340SOL    HW286918   1.075   6.037   8.538
28341SOL     OW86919   3.286   9.914   9.605
28341SOL    HW186920   3.225   9.986   9.619
28341SOL    HW286921   3.252   9.868   9.528
28342SOL     OW86922  14.846  13.761   6.873
28342SOL    HW186923  14.772  13.705   6.896
28342SOL    HW286924  14.816  13.850   6.894
28343SOL     OW86925  11.483   3.961  12.607
28343SOL    HW186926  11.393   3.990  12.590
28343SOL    HW286927  11.537   4.017  12.550
28344SOL     OW86928  12.338   8.097  11.315
28344SOL    HW186929  12.422   8.143  11.311
28344SOL    HW286930  12.360   8.007  11.335
28345SOL     OW86931   0.222   7.679   0.639
28345SOL    HW186932   0.245   7.693   0.547
28345SOL    HW286933   0.138   7.723   0.650
28346SOL     OW86934  12.506   6.557   8.880
28346SOL    HW186935  12.515   6.607   8.961
28346SOL    HW286936  12.531   6.468   8.903
28347SOL     OW86937   7.531  13.385   3.919
28347SOL    HW186938   7.476  13.404   3.843
28347SOL    HW286939   7.474  13.338   3.980
28348SOL     OW86940  14.117  10.881   2.557
28348SOL    HW186941  14.158  10.952   2.508
28348SOL    HW286942  14.160  10.882   2.642
28349SOL     OW86943   7.963  14.129   5.420
28349SOL    HW186944   7.882  14.173   5.446
28349SOL    HW286945   8.003  14.102   5.502
28350SOL     OW86946  11.183   8.376  12.842
28350SOL    HW186947  11.167   8.282  12.843
28350SOL    HW286948  11.163   8.404  12.753
28351SOL     OW86949   6.166  12.451  12.305
28351SOL    HW186950   6.166  12.545  12.286
28351SOL    HW286951   6.259  12.428  12.311
28352SOL     OW86952   8.958  13.292  10.207
28352SOL    HW186953   8.893  13.235  10.249
28352SOL    HW286954   9.009  13.327  10.280
28353SOL     OW86955   7.122   4.952   6.132
28353SOL    HW186956   7.077   4.956   6.048
28353SOL    HW286957   7.129   5.043   6.159
28354SOL     OW86958   8.620  10.088   4.206
28354SOL    HW186959   8.551  10.137   4.250
28354SOL    HW286960   8.649  10.024   4.271
28355SOL     OW86961  12.250   0.178  11.576
28355SOL    HW186962  12.288   0.243  11.635
28355SOL    HW286963  12.237   0.225  11.494
28356SOL     OW86964   9.289   1.334   9.151
28356SOL    HW186965   9.378   1.299   9.152
28356SOL    HW286966   9.301   1.429   9.139
28357SOL     OW86967  12.445   1.054   9.782
28357SOL    HW186968  12.476   1.132   9.737
28357SOL    HW286969  12.394   1.088   9.856
28358SOL     OW86970   0.816   7.297   1.060
28358SOL    HW186971   0.861   7.234   1.117
28358SOL    HW286972   0.724   7.277   1.071
28359SOL     OW86973  11.313   8.653   7.650
28359SOL    HW186974  11.330   8.562   7.673
28359SOL    HW286975  11.356   8.704   7.719
28360SOL     OW86976   5.520   3.406   3.317
28360SOL    HW186977   5.566   3.458   3.250
28360SOL    HW286978   5.432   3.396   3.282
28361SOL     OW86979  14.220  13.396   4.414
28361SOL    HW186980  14.172  13.399   4.331
28361SOL    HW286981  14.312  13.407   4.389
28362SOL     OW86982   2.805   6.799   2.295
28362SOL    HW186983   2.764   6.844   2.368
28362SOL    HW286984   2.882   6.755   2.333
28363SOL     OW86985   3.245  12.810   7.823
28363SOL    HW186986   3.226  12.724   7.860
28363SOL    HW286987   3.321  12.841   7.872
28364SOL     OW86988   8.340   1.475   2.759
28364SOL    HW186989   8.343   1.395   2.708
28364SOL    HW286990   8.402   1.534   2.716
28365SOL     OW86991   1.791  13.707   9.959
28365SOL    HW186992   1.871  13.694  10.010
28365SOL    HW286993   1.813  13.779   9.899
28366SOL     OW86994   1.930   8.858   6.051
28366SOL    HW186995   1.941   8.949   6.021
28366SOL    HW286996   1.956   8.805   5.975
28367SOL     OW86997   0.166   7.372  12.807
28367SOL    HW186998   0.247   7.411  12.840
28367SOL    HW286999   0.100   7.440  12.821
28368SOL     OW87000   0.838   5.936   1.115
28368SOL    HW187001   0.884   5.909   1.194
28368SOL    HW287002   0.778   5.863   1.096
28369SOL     OW87003  12.161   6.666   3.861
28369SOL    HW187004  12.104   6.742   3.852
28369SOL    HW287005  12.231   6.695   3.920
28370SOL     OW87006   9.467   0.647   8.385
28370SOL    HW187007   9.414   0.575   8.351
28370SOL    HW287008   9.404   0.713   8.413
28371SOL     OW87009   4.506  14.848   0.030
28371SOL    HW187010   4.446  14.832   0.102
28371SOL    HW287011   4.569  14.776   0.033
28372SOL     OW87012  13.693  13.192   1.913
28372SOL    HW187013  13.716  13.185   1.820
28372SOL    HW287014  13.770  13.158   1.959
28373SOL     OW87015  10.449  10.093   8.944
28373SOL    HW187016  10.540  10.065   8.956
28373SOL    HW287017  10.413  10.095   9.032
28374SOL     OW87018  10.201   4.905   5.448
28374SOL    HW187019  10.258   4.898   5.371
28374SOL    HW287020  10.129   4.961   5.419
28375SOL     OW87021   8.598   6.590   5.538
28375SOL    HW187022   8.619   6.502   5.568
28375SOL    HW287023   8.555   6.576   5.453
28376SOL     OW87024   9.991  12.391  13.216
28376SOL    HW187025   9.976  12.457  13.284
28376SOL    HW287026   9.903  12.369  13.185
28377SOL     OW87027   3.953  12.083   7.015
28377SOL    HW187028   4.027  12.127   7.057
28377SOL    HW287029   3.989  12.000   6.982
28378SOL     OW87030  11.835   9.679  12.041
28378SOL    HW187031  11.849   9.770  12.069
28378SOL    HW287032  11.800   9.686  11.952
28379SOL     OW87033  11.793   9.418   5.171
28379SOL    HW187034  11.706   9.397   5.207
28379SOL    HW287035  11.834   9.333   5.155
28380SOL     OW87036   3.764   9.946   7.028
28380SOL    HW187037   3.747  10.025   6.975
28380SOL    HW287038   3.730   9.968   7.115
28381SOL     OW87039  11.846   7.962   3.569
28381SOL    HW187040  11.783   8.033   3.582
28381SOL    HW287041  11.868   7.967   3.476
28382SOL     OW87042  13.893   8.899  11.232
28382SOL    HW187043  13.824   8.860  11.285
28382SOL    HW287044  13.915   8.832  11.167
28383SOL     OW87045   9.247   3.611   4.948
28383SOL    HW187046   9.196   3.536   4.981
28383SOL    HW287047   9.195   3.687   4.974
28384SOL     OW87048   4.598   5.334   5.685
28384SOL    HW187049   4.675   5.302   5.638
28384SOL    HW287050   4.541   5.370   5.617
28385SOL     OW87051   0.612  11.193  13.693
28385SOL    HW187052   0.599  11.244  13.773
28385SOL    HW287053   0.561  11.240  13.627
28386SOL     OW87054  13.078   4.633   8.416
28386SOL    HW187055  13.092   4.712   8.469
28386SOL    HW287056  13.134   4.567   8.457
28387SOL     OW87057  13.535   8.988   4.659
28387SOL    HW187058  13.562   8.981   4.568
28387SOL    HW287059  13.550   9.079   4.683
28388SOL     OW87060   1.774   9.749   0.034
28388SOL    HW187061   1.793   9.724   0.124
28388SOL    HW287062   1.858   9.739  14.860
28389SOL     OW87063   1.541  11.199   1.090
28389SOL    HW187064   1.542  11.146   1.010
28389SOL    HW287065   1.481  11.271   1.070
28390SOL     OW87066  13.380   6.380   4.578
28390SOL    HW187067  13.375   6.391   4.483
28390SOL    HW287068  13.378   6.469   4.613
28391SOL     OW87069   6.950   0.595   7.516
28391SOL    HW187070   6.864   0.554   7.528
28391SOL    HW287071   6.951   0.667   7.578
28392SOL     OW87072   0.417  12.839  10.327
28392SOL    HW187073   0.471  12.781  10.274
28392SOL    HW287074   0.464  12.922  10.327
28393SOL     OW87075   4.713  12.776  10.742
28393SOL    HW187076   4.662  12.816  10.812
28393SOL    HW287077   4.678  12.814  10.662
28394SOL     OW87078   3.228   8.525   7.930
28394SOL    HW187079   3.239   8.588   7.859
28394SOL    HW287080   3.307   8.471   7.927
28395SOL     OW87081  10.959  13.114  14.158
28395SOL    HW187082  10.998  13.127  14.244
28395SOL    HW287083  11.034  13.097  14.100
28396SOL     OW87084  12.475  12.328   2.913
28396SOL    HW187085  12.470  12.418   2.881
28396SOL    HW287086  12.385  12.308   2.941
28397SOL     OW87087  13.169   7.662   5.375
28397SOL    HW187088  13.093   7.718   5.389
28397SOL    HW287089  13.224   7.677   5.451
28398SOL     OW87090   5.333  12.420  12.542
28398SOL    HW187091   5.338  12.345  12.601
28398SOL    HW287092   5.386  12.487  12.584
28399SOL     OW87093   9.967   0.955   5.780
28399SOL    HW187094   9.995   0.940   5.690
28399SOL    HW287095   9.942   0.868   5.812
28400SOL     OW87096  13.755   0.294   9.617
28400SOL    HW187097  13.837   0.268   9.576
28400SOL    HW287098  13.693   0.301   9.544
28401SOL     OW87099   5.566   4.153   4.612
28401SOL    HW187100   5.480   4.193   4.626
28401SOL    HW287101   5.590   4.177   4.523
28402SOL     OW87102   2.404  13.697  11.654
28402SOL    HW187103   2.482  13.690  11.709
28402SOL    HW287104   2.435  13.737  11.573
28403SOL     OW87105   2.981   1.349   2.371
28403SOL    HW187106   3.015   1.328   2.458
28403SOL    HW287107   3.034   1.424   2.342
28404SOL     OW87108   0.489   7.000  14.720
28404SOL    HW187109   0.583   6.995  14.703
28404SOL    HW287110   0.479   7.071  14.783
28405SOL     OW87111   2.160  13.466   7.760
28405SOL    HW187112   2.230  13.507   7.812
28405SOL    HW287113   2.195  13.381   7.736
28406SOL     OW87114   7.467  14.328  14.362
28406SOL    HW187115   7.529  14.401  14.355
28406SOL    HW287116   7.493  14.268  14.292
28407SOL     OW87117  11.618  11.875   6.536
28407SOL    HW187118  11.532  11.880   6.496
28407SOL    HW287119  11.602  11.885   6.630
28408SOL     OW87120   2.421  11.810  12.714
28408SOL    HW187121   2.503  11.805  12.665
28408SOL    HW287122   2.377  11.888  12.679
28409SOL     OW87123   2.868  14.789  11.866
28409SOL    HW187124   2.905  14.844  11.796
28409SOL    HW287125   2.878  14.700  11.834
28410SOL     OW87126   4.293   1.415   5.014
28410SOL    HW187127   4.283   1.376   4.927
28410SOL    HW287128   4.222   1.375   5.066
28411SOL     OW87129   4.414   4.151   1.445
28411SOL    HW187130   4.462   4.073   1.473
28411SOL    HW287131   4.337   4.116   1.399
28412SOL     OW87132   4.591   3.806   4.814
28412SOL    HW187133   4.560   3.857   4.889
28412SOL    HW287134   4.596   3.716   4.846
28413SOL     OW87135   0.527   0.053   2.626
28413SOL    HW187136   0.554  14.836   2.603
28413SOL    HW287137   0.545   0.060   2.719
28414SOL     OW87138  11.438   5.947  10.551
28414SOL    HW187139  11.452   6.038  10.526
28414SOL    HW287140  11.525   5.914  10.572
28415SOL     OW87141   0.732   2.841   6.240
28415SOL    HW187142   0.689   2.756   6.226
28415SOL    HW287143   0.663   2.906   6.225
28416SOL     OW87144   9.513   2.833   7.794
28416SOL    HW187145   9.521   2.829   7.699
28416SOL    HW287146   9.568   2.761   7.826
28417SOL     OW87147   3.047   0.292   1.412
28417SOL    HW187148   2.958   0.324   1.430
28417SOL    HW287149   3.039   0.197   1.413
28418SOL     OW87150  13.506   3.579   2.118
28418SOL    HW187151  13.531   3.624   2.037
28418SOL    HW287152  13.578   3.598   2.178
28419SOL     OW87153   2.339   2.468   7.362
28419SOL    HW187154   2.326   2.414   7.440
28419SOL    HW287155   2.262   2.525   7.360
28420SOL     OW87156   4.231   8.577  12.621
28420SOL    HW187157   4.228   8.651  12.682
28420SOL    HW287158   4.191   8.505  12.670
28421SOL     OW87159   6.438   1.978   7.842
28421SOL    HW187160   6.383   1.933   7.906
28421SOL    HW287161   6.505   2.022   7.895
28422SOL     OW87162  14.553   2.932   7.828
28422SOL    HW187163  14.605   2.981   7.764
28422SOL    HW287164  14.550   2.989   7.905
28423SOL     OW87165   3.096   5.576  11.358
28423SOL    HW187166   3.129   5.501  11.407
28423SOL    HW287167   3.175   5.617  11.321
28424SOL     OW87168  14.027   2.640   9.214
28424SOL    HW187169  13.938   2.670   9.231
28424SOL    HW287170  14.083   2.705   9.257
28425SOL     OW87171   9.653  11.223  10.739
28425SOL    HW187172   9.697  11.149  10.697
28425SOL    HW287173   9.669  11.297  10.680
28426SOL     OW87174   5.542   2.867   5.798
28426SOL    HW187175   5.543   2.772   5.804
28426SOL    HW287176   5.481   2.886   5.727
28427SOL     OW87177   1.807   9.247   7.931
28427SOL    HW187178   1.820   9.225   8.023
28427SOL    HW287179   1.713   9.267   7.924
28428SOL     OW87180  14.202   3.462   8.926
28428SOL    HW187181  14.146   3.537   8.947
28428SOL    HW287182  14.184   3.445   8.833
28429SOL     OW87183  10.168   9.089  10.285
28429SOL    HW187184  10.220   9.046  10.217
28429SOL    HW287185  10.230   9.146  10.331
28430SOL     OW87186   8.358  12.949   9.671
28430SOL    HW187187   8.265  12.944   9.650
28430SOL    HW287188   8.381  13.041   9.656
28431SOL     OW87189   6.493   9.326   3.064
28431SOL    HW187190   6.427   9.347   2.999
28431SOL    HW287191   6.448   9.337   3.148
28432SOL     OW87192   8.864   6.359   5.253
28432SOL    HW187193   8.902   6.403   5.177
28432SOL    HW287194   8.773   6.343   5.228
28433SOL     OW87195   6.129   0.860   8.184
28433SOL    HW187196   6.210   0.891   8.226
28433SOL    HW287197   6.068   0.934   8.192
28434SOL     OW87198  12.844   4.023  10.615
28434SOL    HW187199  12.752   4.007  10.635
28434SOL    HW287200  12.865   4.104  10.661
28435SOL     OW87201  10.535   6.898   0.400
28435SOL    HW187202  10.520   6.803   0.394
28435SOL    HW287203  10.454   6.933   0.436
28436SOL     OW87204   6.176  12.160   9.380
28436SOL    HW187205   6.157  12.066   9.385
28436SOL    HW287206   6.250  12.167   9.321
28437SOL     OW87207   0.358   9.873   3.697
28437SOL    HW187208   0.332   9.933   3.767
28437SOL    HW287209   0.291   9.804   3.698
28438SOL     OW87210  14.816  11.533   2.271
28438SOL    HW187211  14.797  11.496   2.185
28438SOL    HW287212  14.833  11.457   2.327
28439SOL     OW87213   8.789   2.507   1.998
28439SOL    HW187214   8.737   2.548   1.929
28439SOL    HW287215   8.879   2.517   1.969
28440SOL     OW87216  11.153   1.343   6.908
28440SOL    HW187217  11.236   1.302   6.881
28440SOL    HW287218  11.097   1.337   6.830
28441SOL     OW87219   4.276  14.314   6.126
28441SOL    HW187220   4.318  14.333   6.210
28441SOL    HW287221   4.199  14.262   6.148
28442SOL     OW87222   9.017   7.560   2.128
28442SOL    HW187223   8.922   7.546   2.128
28442SOL    HW287224   9.048   7.517   2.207
28443SOL     OW87225   5.239   7.196   8.473
28443SOL    HW187226   5.218   7.106   8.451
28443SOL    HW287227   5.248   7.240   8.389
28444SOL     OW87228   7.463  13.408  12.564
28444SOL    HW187229   7.377  13.371  12.543
28444SOL    HW287230   7.501  13.346  12.627
28445SOL     OW87231   9.402  11.642  14.674
28445SOL    HW187232   9.321  11.661  14.628
28445SOL    HW287233   9.451  11.586  14.614
28446SOL     OW87234   9.179   6.461  13.392
28446SOL    HW187235   9.232   6.412  13.329
28446SOL    HW287236   9.237   6.531  13.422
28447SOL     OW87237  11.957   1.142   7.480
28447SOL    HW187238  11.949   1.056   7.521
28447SOL    HW287239  11.919   1.202   7.545
28448SOL     OW87240   6.772  11.850   6.713
28448SOL    HW187241   6.729  11.781   6.763
28448SOL    HW287242   6.786  11.813   6.626
28449SOL     OW87243   9.693   0.621   4.011
28449SOL    HW187244   9.703   0.557   4.082
28449SOL    HW287245   9.775   0.616   3.963
28450SOL     OW87246   8.667   1.430  14.008
28450SOL    HW187247   8.596   1.426  14.073
28450SOL    HW287248   8.742   1.393  14.054
28451SOL     OW87249   1.283   8.440  11.501
28451SOL    HW187250   1.261   8.385  11.576
28451SOL    HW287251   1.354   8.395  11.457
28452SOL     OW87252  14.076   2.448   6.042
28452SOL    HW187253  14.053   2.431   6.134
28452SOL    HW287254  13.994   2.474   6.001
28453SOL     OW87255   4.421   5.005  11.978
28453SOL    HW187256   4.480   5.058  12.031
28453SOL    HW287257   4.352   4.977  12.039
28454SOL     OW87258   8.290  11.239   9.816
28454SOL    HW187259   8.324  11.182   9.885
28454SOL    HW287260   8.286  11.183   9.738
28455SOL     OW87261  13.280   9.831   3.892
28455SOL    HW187262  13.203   9.779   3.915
28455SOL    HW287263  13.351   9.767   3.885
28456SOL     OW87264  11.159  12.518   8.433
28456SOL    HW187265  11.114  12.533   8.516
28456SOL    HW287266  11.145  12.599   8.384
28457SOL     OW87267   0.798   7.563   3.386
28457SOL    HW187268   0.818   7.508   3.310
28457SOL    HW287269   0.780   7.501   3.457
28458SOL     OW87270   2.947  14.681   3.090
28458SOL    HW187271   2.987  14.765   3.117
28458SOL    HW287272   2.988  14.616   3.147
28459SOL     OW87273  11.516  12.310  10.622
28459SOL    HW187274  11.454  12.283  10.554
28459SOL    HW287275  11.522  12.405  10.612
28460SOL     OW87276  11.244   1.976   6.308
28460SOL    HW187277  11.150   1.977   6.327
28460SOL    HW287278  11.286   1.955   6.391
28461SOL     OW87279   5.828   3.089  11.919
28461SOL    HW187280   5.897   3.125  11.864
28461SOL    HW287281   5.760   3.062  11.857
28462SOL     OW87282   3.806   0.798   6.864
28462SOL    HW187283   3.869   0.756   6.923
28462SOL    HW287284   3.847   0.794   6.778
28463SOL     OW87285   7.202   7.360   6.559
28463SOL    HW187286   7.147   7.296   6.604
28463SOL    HW287287   7.228   7.421   6.628
28464SOL     OW87288  10.572   8.717   8.615
28464SOL    HW187289  10.503   8.665   8.656
28464SOL    HW287290  10.640   8.723   8.682
28465SOL     OW87291  10.683  10.154   3.534
28465SOL    HW187292  10.694  10.224   3.598
28465SOL    HW287293  10.773  10.130   3.510
28466SOL     OW87294   9.194   9.181   0.286
28466SOL    HW187295   9.253   9.129   0.232
28466SOL    HW287296   9.128   9.119   0.317
28467SOL     OW87297  10.610  14.690  12.335
28467SOL    HW187298  10.654  14.721  12.414
28467SOL    HW287299  10.526  14.736  12.336
28468SOL     OW87300  12.662   4.318   8.055
28468SOL    HW187301  12.584   4.357   8.015
28468SOL    HW287302  12.692   4.253   7.992
28469SOL     OW87303   7.899   6.357  10.600
28469SOL    HW187304   7.824   6.328  10.549
28469SOL    HW287305   7.863   6.377  10.687
28470SOL     OW87306   0.216   5.625   6.343
28470SOL    HW187307   0.209   5.628   6.439
28470SOL    HW287308   0.268   5.702   6.320
28471SOL     OW87309  11.570   5.419  10.863
28471SOL    HW187310  11.476   5.400  10.855
28471SOL    HW287311  11.601   5.357  10.929
28472SOL     OW87312   8.443   2.290  12.393
28472SOL    HW187313   8.371   2.351  12.405
28472SOL    HW287314   8.451   2.246  12.478
28473SOL     OW87315  13.909   6.602  11.865
28473SOL    HW187316  13.909   6.689  11.904
28473SOL    HW287317  13.907   6.542  11.940
28474SOL     OW87318  11.962   3.170   5.580
28474SOL    HW187319  11.870   3.168   5.555
28474SOL    HW287320  12.009   3.184   5.497
28475SOL     OW87321  13.588  14.282  14.377
28475SOL    HW187322  13.521  14.256  14.314
28475SOL    HW287323  13.586  14.214  14.444
28476SOL     OW87324   9.332   8.295  12.191
28476SOL    HW187325   9.388   8.309  12.267
28476SOL    HW287326   9.303   8.383  12.167
28477SOL     OW87327   0.722   6.505   2.088
28477SOL    HW187328   0.806   6.531   2.127
28477SOL    HW287329   0.680   6.587   2.064
28478SOL     OW87330  14.647  10.579   9.286
28478SOL    HW187331  14.607  10.643   9.346
28478SOL    HW287332  14.626  10.494   9.326
28479SOL     OW87333  13.809  12.128  14.856
28479SOL    HW187334  13.794  12.211   0.028
28479SOL    HW287335  13.895  12.100   0.014
28480SOL     OW87336   7.914  11.881  13.057
28480SOL    HW187337   7.958  11.860  12.975
28480SOL    HW287338   7.948  11.817  13.120
28481SOL     OW87339  10.721   5.043   4.436
28481SOL    HW187340  10.639   5.029   4.484
28481SOL    HW287341  10.696   5.098   4.361
28482SOL     OW87342   6.314   9.090   8.738
28482SOL    HW187343   6.262   9.138   8.802
28482SOL    HW287344   6.388   9.056   8.787
28483SOL     OW87345  14.508   2.906   3.671
28483SOL    HW187346  14.567   2.979   3.685
28483SOL    HW287347  14.526   2.846   3.744
28484SOL     OW87348   5.964   5.858  12.290
28484SOL    HW187349   6.046   5.905  12.273
28484SOL    HW287350   5.976   5.773  12.247
28485SOL     OW87351   9.024   3.819   1.254
28485SOL    HW187352   9.069   3.889   1.207
28485SOL    HW287353   8.941   3.859   1.281
28486SOL     OW87354   4.989  10.003   9.346
28486SOL    HW187355   4.915   9.943   9.359
28486SOL    HW287356   5.064   9.957   9.381
28487SOL     OW87357  14.565   3.706  13.921
28487SOL    HW187358  14.660   3.703  13.909
28487SOL    HW287359  14.535   3.775  13.862
28488SOL     OW87360   1.078   9.059   7.917
28488SOL    HW187361   1.133   9.089   7.990
28488SOL    HW287362   1.120   9.095   7.839
28489SOL     OW87363   6.583   5.194   2.319
28489SOL    HW187364   6.537   5.265   2.364
28489SOL    HW287365   6.622   5.143   2.390
28490SOL     OW87366   5.458   4.700   8.129
28490SOL    HW187367   5.433   4.662   8.213
28490SOL    HW287368   5.507   4.631   8.085
28491SOL     OW87369   0.234   9.543   2.332
28491SOL    HW187370   0.227   9.592   2.414
28491SOL    HW287371   0.320   9.566   2.298
28492SOL     OW87372   7.141  12.251   5.128
28492SOL    HW187373   7.105  12.208   5.205
28492SOL    HW287374   7.096  12.336   5.125
28493SOL     OW87375   5.173  11.309   8.195
28493SOL    HW187376   5.237  11.238   8.202
28493SOL    HW287377   5.102  11.272   8.142
28494SOL     OW87378   2.397  12.354   4.289
28494SOL    HW187379   2.433  12.330   4.374
28494SOL    HW287380   2.466  12.332   4.226
28495SOL     OW87381   4.232  10.580  14.539
28495SOL    HW187382   4.295  10.553  14.605
28495SOL    HW287383   4.254  10.671  14.521
28496SOL     OW87384  12.842   9.168  11.932
28496SOL    HW187385  12.827   9.175  11.838
28496SOL    HW287386  12.758   9.193  11.972
28497SOL     OW87387  13.750   2.378  12.969
28497SOL    HW187388  13.732   2.449  13.029
28497SOL    HW287389  13.709   2.405  12.886
28498SOL     OW87390   5.821   1.898   7.825
28498SOL    HW187391   5.809   1.809   7.857
28498SOL    HW287392   5.895   1.932   7.875
28499SOL     OW87393   3.729   0.233  10.542
28499SOL    HW187394   3.680   0.269  10.616
28499SOL    HW287395   3.808   0.287  10.537
28500SOL     OW87396   9.716  10.658  12.189
28500SOL    HW187397   9.756  10.745  12.195
28500SOL    HW287398   9.695  10.648  12.097
28501SOL     OW87399   2.440   9.497   1.151
28501SOL    HW187400   2.455   9.473   1.060
28501SOL    HW287401   2.524   9.532   1.181
28502SOL     OW87402   3.084  13.687  10.183
28502SOL    HW187403   3.155  13.678  10.246
28502SOL    HW287404   3.038  13.603  10.185
28503SOL     OW87405   3.726   1.573   3.098
28503SOL    HW187406   3.646   1.623   3.079
28503SOL    HW287407   3.714   1.541   3.187
28504SOL     OW87408  10.478   9.021   0.299
28504SOL    HW187409  10.504   9.083   0.367
28504SOL    HW287410  10.426   9.073   0.238
28505SOL     OW87411  10.829  13.684  11.278
28505SOL    HW187412  10.817  13.705  11.371
28505SOL    HW287413  10.740  13.677  11.243
28506SOL     OW87414  10.084   6.101   3.102
28506SOL    HW187415  10.115   6.191   3.110
28506SOL    HW287416  10.158   6.047   3.130
28507SOL     OW87417  10.572   9.898   6.350
28507SOL    HW187418  10.658   9.919   6.313
28507SOL    HW287419  10.562   9.957   6.424
28508SOL     OW87420  10.418   5.937   2.996
28508SOL    HW187421  10.418   5.911   2.904
28508SOL    HW287422  10.508   5.923   3.025
28509SOL     OW87423   3.381   5.279  14.584
28509SOL    HW187424   3.429   5.225  14.522
28509SOL    HW287425   3.338   5.345  14.530
28510SOL     OW87426   6.628   5.682   7.762
28510SOL    HW187427   6.564   5.723   7.819
28510SOL    HW287428   6.645   5.597   7.801
28511SOL     OW87429   2.347  13.026   4.313
28511SOL    HW187430   2.415  13.032   4.246
28511SOL    HW287431   2.328  13.116   4.336
28512SOL     OW87432   2.886   2.711   8.764
28512SOL    HW187433   2.814   2.774   8.758
28512SOL    HW287434   2.843   2.625   8.768
28513SOL     OW87435  12.600  10.247  13.023
28513SOL    HW187436  12.553  10.176  13.067
28513SOL    HW287437  12.547  10.325  13.041
28514SOL     OW87438   8.294  13.051  14.799
28514SOL    HW187439   8.219  13.022  14.749
28514SOL    HW287440   8.302  13.144  14.780
28515SOL     OW87441  12.752   5.480   2.279
28515SOL    HW187442  12.787   5.405   2.327
28515SOL    HW287443  12.775   5.462   2.188
28516SOL     OW87444   5.114   5.363   9.182
28516SOL    HW187445   5.041   5.423   9.196
28516SOL    HW287446   5.166   5.404   9.113
28517SOL     OW87447  14.650  14.673   9.774
28517SOL    HW187448  14.575  14.635   9.728
28517SOL    HW287449  14.620  14.759   9.803
28518SOL     OW87450  14.402  12.465   1.835
28518SOL    HW187451  14.456  12.386   1.825
28518SOL    HW287452  14.358  12.475   1.751
28519SOL     OW87453  11.481   8.476   1.388
28519SOL    HW187454  11.477   8.381   1.381
28519SOL    HW287455  11.465   8.508   1.299
28520SOL     OW87456  12.675   6.498   2.459
28520SOL    HW187457  12.648   6.512   2.369
28520SOL    HW287458  12.602   6.532   2.511
28521SOL     OW87459  10.372  10.249  12.356
28521SOL    HW187460  10.467  10.247  12.362
28521SOL    HW287461  10.347  10.335  12.390
28522SOL     OW87462   2.760   9.689  11.502
28522SOL    HW187463   2.666   9.673  11.508
28522SOL    HW287464   2.779   9.684  11.408
28523SOL     OW87465  11.035   7.729   6.692
28523SOL    HW187466  10.980   7.680   6.632
28523SOL    HW287467  10.996   7.817   6.695
28524SOL     OW87468  11.176   9.249   1.076
28524SOL    HW187469  11.130   9.252   0.992
28524SOL    HW287470  11.269   9.256   1.053
28525SOL     OW87471  10.634   1.663   2.826
28525SOL    HW187472  10.683   1.589   2.862
28525SOL    HW287473  10.680   1.684   2.744
28526SOL     OW87474  10.620  11.788  14.065
28526SOL    HW187475  10.572  11.845  14.125
28526SOL    HW287476  10.704  11.832  14.051
28527SOL     OW87477   3.292   0.876   5.161
28527SOL    HW187478   3.356   0.817   5.200
28527SOL    HW287479   3.344   0.949   5.127
28528SOL     OW87480  10.975   1.192   7.585
28528SOL    HW187481  11.044   1.138   7.547
28528SOL    HW287482  11.018   1.239   7.657
28529SOL     OW87483  14.152  14.396   3.004
28529SOL    HW187484  14.109  14.358   3.080
28529SOL    HW287485  14.081  14.439   2.956
28530SOL     OW87486  13.792   7.589   0.543
28530SOL    HW187487  13.818   7.675   0.575
28530SOL    HW287488  13.856   7.529   0.581
28531SOL     OW87489   2.205   9.597   5.867
28531SOL    HW187490   2.296   9.611   5.843
28531SOL    HW287491   2.170   9.685   5.884
28532SOL     OW87492  14.563   5.461   3.518
28532SOL    HW187493  14.632   5.426   3.462
28532SOL    HW287494  14.607   5.526   3.573
28533SOL     OW87495  10.925  11.835   3.415
28533SOL    HW187496  10.928  11.808   3.507
28533SOL    HW287497  10.844  11.795   3.382
28534SOL     OW87498   9.860   4.829   9.421
28534SOL    HW187499   9.771   4.817   9.387
28534SOL    HW287500   9.908   4.753   9.386
28535SOL     OW87501   0.698   6.690   8.115
28535SOL    HW187502   0.612   6.716   8.083
28535SOL    HW287503   0.685   6.672   8.208
28536SOL     OW87504   0.047  10.529   2.327
28536SOL    HW187505   0.032  10.437   2.349
28536SOL    HW287506   0.035  10.534   2.232
28537SOL     OW87507  14.159   0.028   7.109
28537SOL    HW187508  14.109   0.108   7.127
28537SOL    HW287509  14.155  14.849   7.190
28538SOL     OW87510   9.660  12.653   5.252
28538SOL    HW187511   9.753  12.650   5.275
28538SOL    HW287512   9.656  12.705   5.172
28539SOL     OW87513   8.112   4.509   5.747
28539SOL    HW187514   8.021   4.510   5.778
28539SOL    HW287515   8.105   4.505   5.652
28540SOL     OW87516   3.541   8.627  12.965
28540SOL    HW187517   3.522   8.534  12.976
28540SOL    HW287518   3.628   8.639  13.003
28541SOL     OW87519  11.630  12.922   6.101
28541SOL    HW187520  11.536  12.910   6.087
28541SOL    HW287521  11.668  12.836   6.083
28542SOL     OW87522   5.992   5.349   2.954
28542SOL    HW187523   6.046   5.349   2.876
28542SOL    HW287524   5.975   5.442   2.972
28543SOL     OW87525  13.714  14.856  14.795
28543SOL    HW187526  13.730   0.061  14.850
28543SOL    HW287527  13.623  14.866  14.766
28544SOL     OW87528   9.223  11.992  10.260
28544SOL    HW187529   9.316  12.010  10.273
28544SOL    HW287530   9.198  12.048  10.186
28545SOL     OW87531   6.727  12.006  13.089
28545SOL    HW187532   6.719  11.912  13.102
28545SOL    HW287533   6.761  12.015  13.000
28546SOL     OW87534  11.234   0.058   9.596
28546SOL    HW187535  11.157   0.035   9.648
28546SOL    HW287536  11.227   0.153   9.584
28547SOL     OW87537  13.606   2.049   3.549
28547SOL    HW187538  13.654   1.967   3.544
28547SOL    HW287539  13.514   2.024   3.541
28548SOL     OW87540   8.589  11.953   4.232
28548SOL    HW187541   8.641  11.917   4.304
28548SOL    HW287542   8.503  11.969   4.270
28549SOL     OW87543  10.298  14.104   3.917
28549SOL    HW187544  10.246  14.138   3.844
28549SOL    HW287545  10.234  14.063   3.975
28550SOL     OW87546   5.468  11.229   2.374
28550SOL    HW187547   5.561  11.248   2.377
28550SOL    HW287548   5.425  11.315   2.379
28551SOL     OW87549   3.225  10.456   9.530
28551SOL    HW187550   3.177  10.496   9.602
28551SOL    HW287551   3.161  10.449   9.459
28552SOL     OW87552   0.554   8.432   9.779
28552SOL    HW187553   0.616   8.360   9.797
28552SOL    HW287554   0.501   8.437   9.858
28553SOL     OW87555   4.888  14.615   6.780
28553SOL    HW187556   4.911  14.541   6.724
28553SOL    HW287557   4.945  14.686   6.751
28554SOL     OW87558   1.496  13.139   7.622
28554SOL    HW187559   1.459  13.147   7.534
28554SOL    HW287560   1.491  13.227   7.659
28555SOL     OW87561  10.798   6.399   5.242
28555SOL    HW187562  10.812   6.366   5.153
28555SOL    HW287563  10.820   6.324   5.298
28556SOL     OW87564   3.219   5.457   2.223
28556SOL    HW187565   3.251   5.546   2.215
28556SOL    HW287566   3.139   5.455   2.170
28557SOL     OW87567   8.136   6.632   2.253
28557SOL    HW187568   8.230   6.632   2.273
28557SOL    HW287569   8.094   6.609   2.336
28558SOL     OW87570   2.525  11.828   2.954
28558SOL    HW187571   2.615  11.842   2.926
28558SOL    HW287572   2.531  11.812   3.049
28559SOL     OW87573  11.987  14.656  13.513
28559SOL    HW187574  11.971  14.563  13.533
28559SOL    HW287575  11.997  14.659  13.418
28560SOL     OW87576   8.683   0.539   2.799
28560SOL    HW187577   8.659   0.448   2.786
28560SOL    HW287578   8.714   0.569   2.714
28561SOL     OW87579  12.190   0.494   6.777
28561SOL    HW187580  12.250   0.513   6.848
28561SOL    HW287581  12.245   0.460   6.706
28562SOL     OW87582   0.158   6.299   9.158
28562SOL    HW187583   0.231   6.313   9.098
28562SOL    HW287584   0.143   6.385   9.199
28563SOL     OW87585   6.483  11.353   4.879
28563SOL    HW187586   6.517  11.308   4.956
28563SOL    HW287587   6.389  11.337   4.881
28564SOL     OW87588   8.131  12.794  11.110
28564SOL    HW187589   8.211  12.755  11.074
28564SOL    HW287590   8.062  12.732  11.087
28565SOL     OW87591   9.750   3.605   6.831
28565SOL    HW187592   9.805   3.532   6.804
28565SOL    HW287593   9.731   3.588   6.923
28566SOL     OW87594   5.256   7.639   5.051
28566SOL    HW187595   5.166   7.669   5.040
28566SOL    HW287596   5.255   7.589   5.133
28567SOL     OW87597  14.599  12.874  11.747
28567SOL    HW187598  14.509  12.843  11.762
28567SOL    HW287599  14.653  12.809  11.792
28568SOL     OW87600  14.484   1.263   8.959
28568SOL    HW187601  14.431   1.332   8.919
28568SOL    HW287602  14.483   1.282   9.053
28569SOL     OW87603   9.039  10.099  14.199
28569SOL    HW187604   9.006  10.145  14.121
28569SOL    HW287605   9.038  10.166  14.268
28570SOL     OW87606   4.660  11.280  13.696
28570SOL    HW187607   4.714  11.214  13.651
28570SOL    HW287608   4.672  11.261  13.789
28571SOL     OW87609   0.681   4.325   0.910
28571SOL    HW187610   0.611   4.305   0.973
28571SOL    HW287611   0.646   4.296   0.826
28572SOL     OW87612   1.129   6.672   6.669
28572SOL    HW187613   1.136   6.689   6.575
28572SOL    HW287614   1.091   6.585   6.675
28573SOL     OW87615   1.575   4.412   9.235
28573SOL    HW187616   1.526   4.330   9.228
28573SOL    HW287617   1.566   4.438   9.327
28574SOL     OW87618   1.460  13.631   3.364
28574SOL    HW187619   1.500  13.620   3.451
28574SOL    HW287620   1.513  13.577   3.306
28575SOL     OW87621   6.338   1.002   0.372
28575SOL    HW187622   6.333   1.016   0.467
28575SOL    HW287623   6.289   0.921   0.357
28576SOL     OW87624  12.382   2.116   3.081
28576SOL    HW187625  12.397   2.021   3.077
28576SOL    HW287626  12.412   2.141   3.168
28577SOL     OW87627  11.700   5.890   0.170
28577SOL    HW187628  11.661   5.846   0.095
28577SOL    HW287629  11.670   5.981   0.162
28578SOL     OW87630   9.083  14.434   8.432
28578SOL    HW187631   9.052  14.434   8.342
28578SOL    HW287632   9.174  14.404   8.427
28579SOL     OW87633  12.202   8.352   1.685
28579SOL    HW187634  12.257   8.277   1.710
28579SOL    HW287635  12.115   8.330   1.718
28580SOL     OW87636   7.784   8.332   3.492
28580SOL    HW187637   7.842   8.382   3.434
28580SOL    HW287638   7.813   8.356   3.580
28581SOL     OW87639   0.105  13.122   5.545
28581SOL    HW187640   0.069  13.129   5.457
28581SOL    HW287641   0.110  13.212   5.577
28582SOL     OW87642  10.506  10.807  12.991
28582SOL    HW187643  10.594  10.836  12.966
28582SOL    HW287644  10.486  10.737  12.928
28583SOL     OW87645   6.225  12.841   6.924
28583SOL    HW187646   6.307  12.821   6.969
28583SOL    HW287647   6.171  12.763   6.937
28584SOL     OW87648  14.095   3.261   3.652
28584SOL    HW187649  14.189   3.260   3.670
28584SOL    HW287650  14.088   3.291   3.562
28585SOL     OW87651  14.040  14.277   4.784
28585SOL    HW187652  14.126  14.289   4.825
28585SOL    HW287653  14.054  14.208   4.719
28586SOL     OW87654  12.483   6.122  13.526
28586SOL    HW187655  12.532   6.195  13.487
28586SOL    HW287656  12.511   6.045  13.477
28587SOL     OW87657   3.086   6.634   5.263
28587SOL    HW187658   3.100   6.658   5.171
28587SOL    HW287659   3.093   6.538   5.263
28588SOL     OW87660   3.001   6.592   4.519
28588SOL    HW187661   2.962   6.645   4.450
28588SOL    HW287662   2.994   6.502   4.488
28589SOL     OW87663   0.309   3.217   1.412
28589SOL    HW187664   0.305   3.312   1.421
28589SOL    HW287665   0.341   3.186   1.497
28590SOL     OW87666   5.662   1.226   6.575
28590SOL    HW187667   5.699   1.302   6.532
28590SOL    HW287668   5.658   1.250   6.668
28591SOL     OW87669   3.032   4.014  13.810
28591SOL    HW187670   3.039   3.923  13.780
28591SOL    HW287671   3.035   4.008  13.906
28592SOL     OW87672  12.808   9.289   0.245
28592SOL    HW187673  12.758   9.359   0.203
28592SOL    HW287674  12.762   9.272   0.327
28593SOL     OW87675  10.730  13.593  12.834
28593SOL    HW187676  10.679  13.556  12.906
28593SOL    HW287677  10.687  13.676  12.813
28594SOL     OW87678  14.408   5.329   4.706
28594SOL    HW187679  14.379   5.405   4.655
28594SOL    HW287680  14.337   5.266   4.696
28595SOL     OW87681   7.335   8.977   0.378
28595SOL    HW187682   7.239   8.973   0.370
28595SOL    HW287683   7.366   8.900   0.330
28596SOL     OW87684   6.243  12.507   3.780
28596SOL    HW187685   6.179  12.554   3.833
28596SOL    HW287686   6.279  12.572   3.721
28597SOL     OW87687   0.317   8.120   9.320
28597SOL    HW187688   0.278   8.120   9.232
28597SOL    HW287689   0.287   8.038   9.359
28598SOL     OW87690  14.814   7.872   1.534
28598SOL    HW187691  14.732   7.842   1.572
28598SOL    HW287692  14.789   7.940   1.472
28599SOL     OW87693   4.467   2.727  12.876
28599SOL    HW187694   4.440   2.786  12.946
28599SOL    HW287695   4.398   2.737  12.810
28600SOL     OW87696  10.010   0.322  14.630
28600SOL    HW187697   9.998   0.409  14.592
28600SOL    HW287698  10.004   0.262  14.556
28601SOL     OW87699   4.320  12.367   5.464
28601SOL    HW187700   4.276  12.310   5.401
28601SOL    HW287701   4.413  12.343   5.457
28602SOL     OW87702  14.543  14.713  10.738
28602SOL    HW187703  14.596  14.690  10.815
28602SOL    HW287704  14.513  14.629  10.703
28603SOL     OW87705   1.529  14.194  10.502
28603SOL    HW187706   1.602  14.231  10.454
28603SOL    HW287707   1.548  14.214  10.594
28604SOL     OW87708   3.931   3.229   0.888
28604SOL    HW187709   3.993   3.164   0.923
28604SOL    HW287710   3.986   3.303   0.864
28605SOL     OW87711   1.115   6.930  12.423
28605SOL    HW187712   1.143   6.881  12.346
28605SOL    HW287713   1.110   6.864  12.492
28606SOL     OW87714   1.871   1.660   5.211
28606SOL    HW187715   1.930   1.616   5.273
28606SOL    HW287716   1.833   1.732   5.260
28607SOL     OW87717   1.972   4.111  10.700
28607SOL    HW187718   1.952   4.196  10.661
28607SOL    HW287719   2.067   4.109  10.707
28608SOL     OW87720   9.853   8.422   1.364
28608SOL    HW187721   9.933   8.411   1.415
28608SOL    HW287722   9.787   8.447   1.428
28609SOL     OW87723   3.193   3.767   8.803
28609SOL    HW187724   3.227   3.814   8.727
28609SOL    HW287725   3.222   3.676   8.791
28610SOL     OW87726   8.791   6.137   6.724
28610SOL    HW187727   8.742   6.120   6.644
28610SOL    HW287728   8.842   6.057   6.739
28611SOL     OW87729   5.391   7.513   8.399
28611SOL    HW187730   5.440   7.435   8.425
28611SOL    HW287731   5.446   7.555   8.332
28612SOL     OW87732  13.886   8.710  11.817
28612SOL    HW187733  13.817   8.695  11.753
28612SOL    HW287734  13.860   8.661  11.894
28613SOL     OW87735   7.912   7.236   8.808
28613SOL    HW187736   7.851   7.286   8.862
28613SOL    HW287737   7.997   7.277   8.824
28614SOL     OW87738  11.760   4.936   4.640
28614SOL    HW187739  11.691   4.923   4.575
28614SOL    HW287740  11.728   4.891   4.718
28615SOL     OW87741   9.869  11.337   9.943
28615SOL    HW187742   9.820  11.315  10.023
28615SOL    HW287743   9.874  11.432   9.944
28616SOL     OW87744   3.933   8.504  11.123
28616SOL    HW187745   3.867   8.516  11.190
28616SOL    HW287746   4.012   8.546  11.159
28617SOL     OW87747  13.909   5.365   5.115
28617SOL    HW187748  13.859   5.446   5.101
28617SOL    HW287749  13.962   5.356   5.036
28618SOL     OW87750   0.450   7.107   8.209
28618SOL    HW187751   0.537   7.139   8.233
28618SOL    HW287752   0.456   7.093   8.114
28619SOL     OW87753   8.904   1.953   0.683
28619SOL    HW187754   8.848   1.933   0.758
28619SOL    HW287755   8.974   2.008   0.719
28620SOL     OW87756  10.172   0.100   4.413
28620SOL    HW187757  10.157   0.190   4.440
28620SOL    HW287758  10.103   0.083   4.348
28621SOL     OW87759   6.766  14.552  11.020
28621SOL    HW187760   6.729  14.622  11.074
28621SOL    HW287761   6.747  14.472  11.068
28622SOL     OW87762  12.908   8.544   9.595
28622SOL    HW187763  12.889   8.462   9.640
28622SOL    HW287764  12.976   8.521   9.531
28623SOL     OW87765   6.593   0.450   9.264
28623SOL    HW187766   6.662   0.458   9.198
28623SOL    HW287767   6.634   0.485   9.344
28624SOL     OW87768   6.191   4.185  12.456
28624SOL    HW187769   6.163   4.198  12.366
28624SOL    HW287770   6.128   4.235  12.508
28625SOL     OW87771   4.541   2.212   7.423
28625SOL    HW187772   4.632   2.183   7.429
28625SOL    HW287773   4.517   2.194   7.332
28626SOL     OW87774   4.742   7.985   9.005
28626SOL    HW187775   4.834   7.994   8.979
28626SOL    HW287776   4.699   8.064   8.973
28627SOL     OW87777   4.710   9.772   7.462
28627SOL    HW187778   4.782   9.824   7.497
28627SOL    HW287779   4.652   9.836   7.421
28628SOL     OW87780  12.319  13.562  13.256
28628SOL    HW187781  12.310  13.482  13.204
28628SOL    HW287782  12.394  13.607  13.218
28629SOL     OW87783   8.283  14.009   1.822
28629SOL    HW187784   8.198  14.038   1.855
28629SOL    HW287785   8.266  13.921   1.788
28630SOL     OW87786  13.450  11.387   0.393
28630SOL    HW187787  13.546  11.386   0.400
28630SOL    HW287788  13.426  11.295   0.382
28631SOL     OW87789  10.937  14.185  13.673
28631SOL    HW187790  10.843  14.196  13.661
28631SOL    HW287791  10.952  14.091  13.668
28632SOL     OW87792   2.140   8.223   4.245
28632SOL    HW187793   2.220   8.231   4.194
28632SOL    HW287794   2.124   8.311   4.280
28633SOL     OW87795  13.923   9.447   3.567
28633SOL    HW187796  13.845   9.439   3.512
28633SOL    HW287797  13.911   9.529   3.614
28634SOL     OW87798   7.502   5.711   3.292
28634SOL    HW187799   7.578   5.753   3.253
28634SOL    HW287800   7.518   5.617   3.280
28635SOL     OW87801   1.213   5.909  11.992
28635SOL    HW187802   1.278   5.844  11.965
28635SOL    HW287803   1.156   5.917  11.916
28636SOL     OW87804  10.011   0.073   0.111
28636SOL    HW187805  10.008  14.851   0.087
28636SOL    HW287806  10.099   0.086   0.145
28637SOL     OW87807  13.720   0.454   9.839
28637SOL    HW187808  13.740   0.410   9.757
28637SOL    HW287809  13.691   0.384   9.897
28638SOL     OW87810   7.107   3.934   5.963
28638SOL    HW187811   7.020   3.934   6.004
28638SOL    HW287812   7.168   3.919   6.035
28639SOL     OW87813   1.026  12.222   6.058
28639SOL    HW187814   0.996  12.160   5.992
28639SOL    HW287815   0.986  12.305   6.033
28640SOL     OW87816   5.838   7.444   2.570
28640SOL    HW187817   5.818   7.401   2.654
28640SOL    HW287818   5.779   7.402   2.507
28641SOL     OW87819   5.354   7.610  12.124
28641SOL    HW187820   5.281   7.663  12.093
28641SOL    HW287821   5.335   7.522  12.093
28642SOL     OW87822  13.798  12.451   0.724
28642SOL    HW187823  13.874  12.508   0.711
28642SOL    HW287824  13.818  12.403   0.804
28643SOL     OW87825   6.093   0.396   3.656
28643SOL    HW187826   6.076   0.307   3.685
28643SOL    HW287827   6.186   0.410   3.677
28644SOL     OW87828   3.328  13.727   1.648
28644SOL    HW187829   3.400  13.746   1.708
28644SOL    HW287830   3.298  13.813   1.619
28645SOL     OW87831  14.718  14.674   0.330
28645SOL    HW187832  14.714  14.739   0.261
28645SOL    HW287833  14.782  14.709   0.392
28646SOL     OW87834   8.336  14.546   5.119
28646SOL    HW187835   8.295  14.467   5.083
28646SOL    HW287836   8.364  14.520   5.206
28647SOL     OW87837   6.617   5.615   0.133
28647SOL    HW187838   6.642   5.707   0.144
28647SOL    HW287839   6.530   5.609   0.171
28648SOL     OW87840   9.383   4.936   2.314
28648SOL    HW187841   9.433   4.880   2.254
28648SOL    HW287842   9.295   4.940   2.276
28649SOL     OW87843  11.774   6.476  12.384
28649SOL    HW187844  11.840   6.512  12.325
28649SOL    HW287845  11.713   6.549  12.400
28650SOL     OW87846  13.630  11.969   6.674
28650SOL    HW187847  13.655  12.047   6.725
28650SOL    HW287848  13.697  11.904   6.694
28651SOL     OW87849  11.054   5.539   3.409
28651SOL    HW187850  11.082   5.449   3.423
28651SOL    HW287851  11.136   5.588   3.397
28652SOL     OW87852   1.642   7.904   4.282
28652SOL    HW187853   1.695   7.891   4.203
28652SOL    HW287854   1.617   7.996   4.278
28653SOL     OW87855  11.042   5.502  13.712
28653SOL    HW187856  10.968   5.447  13.737
28653SOL    HW287857  11.027   5.523  13.620
28654SOL     OW87858   6.393   2.064  13.028
28654SOL    HW187859   6.387   2.093  12.937
28654SOL    HW287860   6.475   2.102  13.060
28655SOL     OW87861  11.321   8.898   3.509
28655SOL    HW187862  11.312   8.803   3.515
28655SOL    HW287863  11.407   8.916   3.546
28656SOL     OW87864   1.265   5.795   7.476
28656SOL    HW187865   1.190   5.855   7.474
28656SOL    HW287866   1.323   5.832   7.543
28657SOL     OW87867   7.500   8.405   2.582
28657SOL    HW187868   7.438   8.447   2.523
28657SOL    HW287869   7.484   8.311   2.571
28658SOL     OW87870   3.257   1.014   8.097
28658SOL    HW187871   3.286   0.959   8.025
28658SOL    HW287872   3.259   0.957   8.174
28659SOL     OW87873  13.736  14.476  13.978
28659SOL    HW187874  13.662  14.526  14.014
28659SOL    HW287875  13.775  14.534  13.913
28660SOL     OW87876   6.162   4.971  14.011
28660SOL    HW187877   6.232   4.915  13.977
28660SOL    HW287878   6.116   5.002  13.933
28661SOL     OW87879   3.176   0.632   2.434
28661SOL    HW187880   3.266   0.662   2.425
28661SOL    HW287881   3.142   0.681   2.508
28662SOL     OW87882  10.810   8.360   8.813
28662SOL    HW187883  10.823   8.362   8.907
28662SOL    HW287884  10.718   8.335   8.802
28663SOL     OW87885   5.431   0.706  13.129
28663SOL    HW187886   5.494   0.754  13.183
28663SOL    HW287887   5.419   0.623  13.175
28664SOL     OW87888   5.596  10.127  13.374
28664SOL    HW187889   5.617  10.035  13.363
28664SOL    HW287890   5.679  10.173  13.364
28665SOL     OW87891  11.954   9.320   3.431
28665SOL    HW187892  11.943   9.413   3.409
28665SOL    HW287893  12.038   9.316   3.476
28666SOL     OW87894  10.208   6.954   7.138
28666SOL    HW187895  10.122   6.944   7.178
28666SOL    HW287896  10.254   7.016   7.194
28667SOL     OW87897   3.376   2.536   9.979
28667SOL    HW187898   3.314   2.609   9.978
28667SOL    HW287899   3.387   2.517  10.072
28668SOL     OW87900   8.964   4.299  11.796
28668SOL    HW187901   8.883   4.340  11.827
28668SOL    HW287902   9.027   4.371  11.792
28669SOL     OW87903   7.990   8.250   5.645
28669SOL    HW187904   7.900   8.277   5.664
28669SOL    HW287905   8.019   8.207   5.726
28670SOL     OW87906  14.662  12.506   3.107
28670SOL    HW187907  14.638  12.490   3.198
28670SOL    HW287908  14.721  12.434   3.085
28671SOL     OW87909  14.030  10.480   3.163
28671SOL    HW187910  13.943  10.495   3.127
28671SOL    HW287911  14.047  10.556   3.218
28672SOL     OW87912   7.727   8.619  11.707
28672SOL    HW187913   7.701   8.711  11.713
28672SOL    HW287914   7.753   8.607  11.616
28673SOL     OW87915  13.766  12.994   5.922
28673SOL    HW187916  13.684  12.968   5.964
28673SOL    HW287917  13.782  12.925   5.857
28674SOL     OW87918   6.503  10.156  14.180
28674SOL    HW187919   6.458  10.071  14.182
28674SOL    HW287920   6.595  10.135  14.195
28675SOL     OW87921  13.301  13.181   1.442
28675SOL    HW187922  13.248  13.260   1.432
28675SOL    HW287923  13.250  13.125   1.500
28676SOL     OW87924   4.761   5.593   0.792
28676SOL    HW187925   4.698   5.620   0.725
28676SOL    HW287926   4.837   5.564   0.743
28677SOL     OW87927   0.120   3.766  12.081
28677SOL    HW187928   0.204   3.723  12.101
28677SOL    HW287929   0.070   3.700  12.034
28678SOL     OW87930   1.104   2.783   1.692
28678SOL    HW187931   1.119   2.822   1.778
28678SOL    HW287932   1.084   2.691   1.710
28679SOL     OW87933   0.265   9.152  10.569
28679SOL    HW187934   0.279   9.134  10.662
28679SOL    HW287935   0.205   9.226  10.568
28680SOL     OW87936   0.433   6.407   1.351
28680SOL    HW187937   0.507   6.403   1.291
28680SOL    HW287938   0.436   6.496   1.386
28681SOL     OW87939   5.638   0.519   5.673
28681SOL    HW187940   5.671   0.430   5.661
28681SOL    HW287941   5.542   0.510   5.670
28682SOL     OW87942  11.919   2.813  12.479
28682SOL    HW187943  11.934   2.898  12.519
28682SOL    HW287944  11.999   2.795  12.430
28683SOL     OW87945  11.280   5.728   8.650
28683SOL    HW187946  11.328   5.651   8.678
28683SOL    HW287947  11.335   5.768   8.583
28684SOL     OW87948  12.287   5.916  10.804
28684SOL    HW187949  12.263   5.962  10.885
28684SOL    HW287950  12.253   5.973  10.735
28685SOL     OW87951  10.776   0.340   5.339
28685SOL    HW187952  10.719   0.302   5.406
28685SOL    HW287953  10.741   0.307   5.256
28686SOL     OW87954   8.614   8.051   2.421
28686SOL    HW187955   8.549   7.983   2.439
28686SOL    HW287956   8.688   8.003   2.384
28687SOL     OW87957  10.962   0.832   7.702
28687SOL    HW187958  10.974   0.749   7.748
28687SOL    HW287959  10.942   0.895   7.771
28688SOL     OW87960   2.559  14.574   5.324
28688SOL    HW187961   2.556  14.645   5.261
28688SOL    HW287962   2.589  14.498   5.274
28689SOL     OW87963   6.256   9.593   0.961
28689SOL    HW187964   6.247   9.668   0.902
28689SOL    HW287965   6.213   9.521   0.915
28690SOL     OW87966   5.508   2.324   6.278
28690SOL    HW187967   5.522   2.231   6.292
28690SOL    HW287968   5.462   2.354   6.356
28691SOL     OW87969   7.464  14.235  13.443
28691SOL    HW187970   7.557  14.235  13.423
28691SOL    HW287971   7.442  14.328  13.456
28692SOL     OW87972   0.955   9.595   5.726
28692SOL    HW187973   0.898   9.559   5.658
28692SOL    HW287974   0.973   9.522   5.784
28693SOL     OW87975   2.851  11.654  12.733
28693SOL    HW187976   2.821  11.573  12.691
28693SOL    HW287977   2.795  11.722  12.696
28694SOL     OW87978  11.472   7.052  12.733
28694SOL    HW187979  11.521   7.056  12.816
28694SOL    HW287980  11.381   7.069  12.759
28695SOL     OW87981   3.866   8.905   5.251
28695SOL    HW187982   3.797   8.858   5.299
28695SOL    HW287983   3.832   8.994   5.243
28696SOL     OW87984  14.079   7.435   6.018
28696SOL    HW187985  14.036   7.462   5.937
28696SOL    HW287986  14.009   7.432   6.083
28697SOL     OW87987  10.217  10.436   3.101
28697SOL    HW187988  10.166  10.517   3.094
28697SOL    HW287989  10.278  10.440   3.028
28698SOL     OW87990   6.218   2.962  10.787
28698SOL    HW187991   6.262   2.878  10.800
28698SOL    HW287992   6.157   2.968  10.860
28699SOL     OW87993  13.118  14.032  12.582
28699SOL    HW187994  13.194  14.006  12.529
28699SOL    HW287995  13.127  14.126  12.591
28700SOL     OW87996   5.157   9.365   2.517
28700SOL    HW187997   5.181   9.337   2.429
28700SOL    HW287998   5.072   9.325   2.533
28701SOL     OW87999   6.016  10.435   3.207
28701SOL    HW188000   5.936  10.386   3.185
28701SOL    HW288001   6.045  10.396   3.290
28702SOL     OW88002   1.758  10.096   4.906
28702SOL    HW188003   1.844  10.136   4.890
28702SOL    HW288004   1.739  10.116   4.998
28703SOL     OW88005  13.548   7.559   0.914
28703SOL    HW188006  13.640   7.535   0.904
28703SOL    HW288007  13.501   7.492   0.864
28704SOL     OW88008  14.721   5.731  10.147
28704SOL    HW188009  14.727   5.725  10.242
28704SOL    HW288010  14.704   5.641  10.118
28705SOL     OW88011   5.440   7.257  12.024
28705SOL    HW188012   5.407   7.205  12.097
28705SOL    HW288013   5.365   7.269  11.966
28706SOL     OW88014  13.750   3.571   0.166
28706SOL    HW188015  13.696   3.589   0.242
28706SOL    HW288016  13.697   3.513   0.111
28707SOL     OW88017   8.396   1.172   9.329
28707SOL    HW188018   8.469   1.142   9.383
28707SOL    HW288019   8.427   1.254   9.290
28708SOL     OW88020  10.453  12.958   7.763
28708SOL    HW188021  10.543  12.928   7.778
28708SOL    HW288022  10.459  13.011   7.684
28709SOL     OW88023   9.642   0.264   8.759
28709SOL    HW188024   9.635   0.302   8.847
28709SOL    HW288025   9.641   0.340   8.701
28710SOL     OW88026   7.639   8.870  12.763
28710SOL    HW188027   7.714   8.923  12.789
28710SOL    HW288028   7.622   8.894  12.672
28711SOL     OW88029  14.237   7.129   8.396
28711SOL    HW188030  14.154   7.160   8.360
28711SOL    HW288031  14.230   7.033   8.393
28712SOL     OW88032   5.248  11.077   1.963
28712SOL    HW188033   5.273  11.039   2.047
28712SOL    HW288034   5.243  11.171   1.980
28713SOL     OW88035   4.747   2.039  13.187
28713SOL    HW188036   4.708   1.956  13.159
28713SOL    HW288037   4.699   2.106  13.138
28714SOL     OW88038  11.916   6.560   9.294
28714SOL    HW188039  11.990   6.621   9.283
28714SOL    HW288040  11.882   6.549   9.205
28715SOL     OW88041   8.101   8.741   1.931
28715SOL    HW188042   8.010   8.756   1.906
28715SOL    HW288043   8.096   8.687   2.010
28716SOL     OW88044   1.451   6.076  10.456
28716SOL    HW188045   1.528   6.023  10.476
28716SOL    HW288046   1.462   6.101  10.364
28717SOL     OW88047  10.550   0.189  10.772
28717SOL    HW188048  10.602   0.194  10.852
28717SOL    HW288049  10.467   0.232  10.794
28718SOL     OW88050   6.025   8.763   9.254
28718SOL    HW188051   6.056   8.846   9.217
28718SOL    HW288052   6.041   8.771   9.348
28719SOL     OW88053   1.365  11.981  13.350
28719SOL    HW188054   1.409  12.000  13.432
28719SOL    HW288055   1.292  11.923  13.374
28720SOL     OW88056  12.113  11.481   5.198
28720SOL    HW188057  12.148  11.395   5.224
28720SOL    HW288058  12.066  11.464   5.117
28721SOL     OW88059   2.884  10.845   7.127
28721SOL    HW188060   2.919  10.790   7.056
28721SOL    HW288061   2.819  10.790   7.170
28722SOL     OW88062   4.906   3.884  10.609
28722SOL    HW188063   4.869   3.823  10.673
28722SOL    HW288064   4.959   3.944  10.662
28723SOL     OW88065   0.661   6.952  11.226
28723SOL    HW188066   0.599   6.884  11.252
28723SOL    HW288067   0.608   7.016  11.179
28724SOL     OW88068   9.162   8.788  14.828
28724SOL    HW188069   9.149   8.729   0.031
28724SOL    HW288070   9.177   8.731  14.753
28725SOL     OW88071   5.715   0.093   1.795
28725SOL    HW188072   5.685   0.008   1.762
28725SOL    HW288073   5.810   0.083   1.804
28726SOL     OW88074   0.382   5.384   6.696
28726SOL    HW188075   0.440   5.395   6.772
28726SOL    HW288076   0.399   5.294   6.667
28727SOL     OW88077   8.825   4.029  13.300
28727SOL    HW188078   8.784   3.951  13.262
28727SOL    HW288079   8.864   4.074  13.225
28728SOL     OW88080   9.558   1.456   8.878
28728SOL    HW188081   9.534   1.490   8.964
28728SOL    HW288082   9.645   1.417   8.891
28729SOL     OW88083  11.326   5.056   7.341
28729SOL    HW188084  11.240   5.017   7.355
28729SOL    HW288085  11.316   5.105   7.259
28730SOL     OW88086  11.284   8.187  11.324
28730SOL    HW188087  11.196   8.163  11.353
28730SOL    HW288088  11.309   8.118  11.262
28731SOL     OW88089  13.678   8.977  12.583
28731SOL    HW188090  13.584   8.961  12.579
28731SOL    HW288091  13.690   9.031  12.662
28732SOL     OW88092  10.203   6.231  13.722
28732SOL    HW188093  10.214   6.292  13.650
28732SOL    HW288094  10.284   6.181  13.725
28733SOL     OW88095   9.563  10.759   2.942
28733SOL    HW188096   9.511  10.693   2.896
28733SOL    HW288097   9.538  10.842   2.901
28734SOL     OW88098  12.711  14.075   9.281
28734SOL    HW188099  12.733  13.985   9.257
28734SOL    HW288100  12.768  14.129   9.227
28735SOL     OW88101  14.199   8.109  10.844
28735SOL    HW188102  14.158   8.196  10.841
28735SOL    HW288103  14.291   8.127  10.861
28736SOL     OW88104   3.585   5.745   5.667
28736SOL    HW188105   3.558   5.682   5.600
28736SOL    HW288106   3.624   5.692   5.736
28737SOL     OW88107  10.041   9.152   5.321
28737SOL    HW188108  10.007   9.222   5.376
28737SOL    HW288109  10.106   9.195   5.265
28738SOL     OW88110   0.980   3.284   9.861
28738SOL    HW188111   0.907   3.239   9.818
28738SOL    HW288112   0.940   3.363   9.898
28739SOL     OW88113   8.394  14.032  10.095
28739SOL    HW188114   8.426  14.110  10.050
28739SOL    HW288115   8.350  14.066  10.173
28740SOL     OW88116  11.678  10.667   4.953
28740SOL    HW188117  11.742  10.674   5.023
28740SOL    HW288118  11.600  10.712   4.986
28741SOL     OW88119  14.181   3.147   8.604
28741SOL    HW188120  14.249   3.082   8.621
28741SOL    HW288121  14.152   3.129   8.514
28742SOL     OW88122   4.533  13.796   0.384
28742SOL    HW188123   4.482  13.725   0.344
28742SOL    HW288124   4.526  13.868   0.321
28743SOL     OW88125   7.938  13.659   8.256
28743SOL    HW188126   7.915  13.624   8.342
28743SOL    HW288127   7.867  13.719   8.233
28744SOL     OW88128   0.321   0.601   5.363
28744SOL    HW188129   0.376   0.666   5.408
28744SOL    HW288130   0.383   0.554   5.307
28745SOL     OW88131   2.995   9.135  10.590
28745SOL    HW188132   3.075   9.153  10.640
28745SOL    HW288133   2.956   9.221  10.575
28746SOL     OW88134   8.481   8.169   7.711
28746SOL    HW188135   8.421   8.242   7.721
28746SOL    HW288136   8.485   8.152   7.617
28747SOL     OW88137  10.630  12.096   9.579
28747SOL    HW188138  10.709  12.044   9.593
28747SOL    HW288139  10.558  12.035   9.597
28748SOL     OW88140  10.091  12.846   7.720
28748SOL    HW188141  10.114  12.826   7.811
28748SOL    HW288142  10.118  12.937   7.708
28749SOL     OW88143   2.585   9.651   2.736
28749SOL    HW188144   2.509   9.708   2.734
28749SOL    HW288145   2.604   9.632   2.644
28750SOL     OW88146   4.888   2.824  14.477
28750SOL    HW188147   4.852   2.904  14.516
28750SOL    HW288148   4.855   2.825  14.387
28751SOL     OW88149  12.222   1.967  14.223
28751SOL    HW188150  12.139   1.969  14.175
28751SOL    HW288151  12.269   1.892  14.187
28752SOL     OW88152   6.016   4.708  12.849
28752SOL    HW188153   5.972   4.718  12.934
28752SOL    HW288154   6.072   4.632  12.860
28753SOL     OW88155   5.373   0.499   2.510
28753SOL    HW188156   5.444   0.533   2.455
28753SOL    HW288157   5.382   0.404   2.504
28754SOL     OW88158   1.938   1.232   6.256
28754SOL    HW188159   1.886   1.156   6.230
28754SOL    HW288160   2.018   1.225   6.203
28755SOL     OW88161   4.390  10.988   1.550
28755SOL    HW188162   4.402  11.072   1.506
28755SOL    HW288163   4.360  11.011   1.638
28756SOL     OW88164  13.600   1.405  10.018
28756SOL    HW188165  13.663   1.390   9.948
28756SOL    HW288166  13.514   1.397   9.975
28757SOL     OW88167   8.457   3.185   9.407
28757SOL    HW188168   8.459   3.171   9.501
28757SOL    HW288169   8.458   3.281   9.397
28758SOL     OW88170  11.207   0.371   0.282
28758SOL    HW188171  11.266   0.416   0.343
28758SOL    HW288172  11.152   0.440   0.246
28759SOL     OW88173   4.973   3.889   6.715
28759SOL    HW188174   4.894   3.942   6.721
28759SOL    HW288175   5.029   3.934   6.652
28760SOL     OW88176  11.335   8.817   4.642
28760SOL    HW188177  11.288   8.741   4.606
28760SOL    HW288178  11.266   8.883   4.656
28761SOL     OW88179   4.916   0.326  12.736
28761SOL    HW188180   4.985   0.275  12.778
28761SOL    HW288181   4.906   0.285  12.650
28762SOL     OW88182  11.793   6.428  10.703
28762SOL    HW188183  11.710   6.383  10.687
28762SOL    HW288184  11.828   6.445  10.616
28763SOL     OW88185   3.486   3.017   4.912
28763SOL    HW188186   3.506   2.925   4.895
28763SOL    HW288187   3.570   3.062   4.899
28764SOL     OW88188   4.471   3.621   9.397
28764SOL    HW188189   4.544   3.563   9.416
28764SOL    HW288190   4.393   3.567   9.408
28765SOL     OW88191   4.822   1.737   6.498
28765SOL    HW188192   4.754   1.768   6.558
28765SOL    HW288193   4.868   1.670   6.548
28766SOL     OW88194   4.674  10.433   2.634
28766SOL    HW188195   4.617  10.500   2.596
28766SOL    HW288196   4.727  10.480   2.698
28767SOL     OW88197   7.170  12.223   9.133
28767SOL    HW188198   7.203  12.310   9.111
28767SOL    HW288199   7.162  12.179   9.048
28768SOL     OW88200   4.159   8.899  11.462
28768SOL    HW188201   4.065   8.882  11.470
28768SOL    HW288202   4.196   8.862  11.541
28769SOL     OW88203   5.855   9.810   6.317
28769SOL    HW188204   5.948   9.819   6.300
28769SOL    HW288205   5.844   9.718   6.342
28770SOL     OW88206   0.637   4.170  13.508
28770SOL    HW188207   0.618   4.095  13.564
28770SOL    HW288208   0.675   4.235  13.568
28771SOL     OW88209   1.689   0.117   6.952
28771SOL    HW188210   1.603   0.159   6.954
28771SOL    HW288211   1.671   0.024   6.966
28772SOL     OW88212   9.434   8.717   7.548
28772SOL    HW188213   9.436   8.809   7.575
28772SOL    HW288214   9.525   8.688   7.558
28773SOL     OW88215   9.532   6.096  11.417
28773SOL    HW188216   9.601   6.074  11.478
28773SOL    HW288217   9.458   6.122  11.472
28774SOL     OW88218   7.911   0.609   6.821
28774SOL    HW188219   7.861   0.681   6.859
28774SOL    HW288220   7.856   0.578   6.748
28775SOL     OW88221   7.674  10.545  13.581
28775SOL    HW188222   7.607  10.568  13.516
28775SOL    HW288223   7.756  10.571  13.540
28776SOL     OW88224   7.408   7.414  12.735
28776SOL    HW188225   7.375   7.330  12.704
28776SOL    HW288226   7.334   7.453  12.781
28777SOL     OW88227   0.942   8.346   8.962
28777SOL    HW188228   0.979   8.429   8.991
28777SOL    HW288229   0.943   8.291   9.041
28778SOL     OW88230  10.311   5.446   7.687
28778SOL    HW188231  10.375   5.471   7.754
28778SOL    HW288232  10.287   5.357   7.709
28779SOL     OW88233   9.545  13.231  11.701
28779SOL    HW188234   9.522  13.138  11.693
28779SOL    HW288235   9.523  13.268  11.615
28780SOL     OW88236   8.266  13.328  12.605
28780SOL    HW188237   8.244  13.407  12.654
28780SOL    HW288238   8.190  13.271  12.616
28781SOL     OW88239   3.254   2.870   5.196
28781SOL    HW188240   3.268   2.945   5.254
28781SOL    HW288241   3.225   2.910   5.113
28782SOL     OW88242   9.075  12.935   9.915
28782SOL    HW188243   8.983  12.940   9.941
28782SOL    HW288244   9.095  12.842   9.917
28783SOL     OW88245   6.697   9.577  13.116
28783SOL    HW188246   6.675   9.528  13.037
28783SOL    HW288247   6.737   9.658  13.084
28784SOL     OW88248   0.258  10.059   7.396
28784SOL    HW188249   0.322   9.994   7.365
28784SOL    HW288250   0.305  10.142   7.394
28785SOL     OW88251  10.618   1.539   4.532
28785SOL    HW188252  10.669   1.594   4.591
28785SOL    HW288253  10.596   1.462   4.584
28786SOL     OW88254  10.001   9.282   8.120
28786SOL    HW188255  10.066   9.280   8.049
28786SOL    HW288256  10.022   9.205   8.174
28787SOL     OW88257   4.220  11.690   6.725
28787SOL    HW188258   4.126  11.711   6.719
28787SOL    HW288259   4.251  11.692   6.634
28788SOL     OW88260   3.479   2.335   7.454
28788SOL    HW188261   3.508   2.375   7.372
28788SOL    HW288262   3.435   2.405   7.502
28789SOL     OW88263   1.496   4.249   5.069
28789SOL    HW188264   1.582   4.287   5.086
28789SOL    HW288265   1.463   4.225   5.155
28790SOL     OW88266   7.937   3.394   1.978
28790SOL    HW188267   7.929   3.370   2.070
28790SOL    HW288268   7.883   3.473   1.969
28791SOL     OW88269   1.983   4.446   2.643
28791SOL    HW188270   2.045   4.482   2.580
28791SOL    HW288271   2.037   4.397   2.705
28792SOL     OW88272   5.712   2.705   7.545
28792SOL    HW188273   5.768   2.665   7.611
28792SOL    HW288274   5.745   2.795   7.537
28793SOL     OW88275   2.252   2.785   1.344
28793SOL    HW188276   2.310   2.836   1.401
28793SOL    HW288277   2.176   2.765   1.399
28794SOL     OW88278  10.504   6.407   8.442
28794SOL    HW188279  10.462   6.480   8.397
28794SOL    HW288280  10.457   6.400   8.525
28795SOL     OW88281  10.164   2.442   1.990
28795SOL    HW188282  10.110   2.364   1.975
28795SOL    HW288283  10.241   2.410   2.037
28796SOL     OW88284   9.187   9.087   5.327
28796SOL    HW188285   9.281   9.106   5.332
28796SOL    HW288286   9.163   9.062   5.416
28797SOL     OW88287   8.043   8.713  12.698
28797SOL    HW188288   8.092   8.786  12.660
28797SOL    HW288289   8.016   8.745  12.784
28798SOL     OW88290  10.056   0.141  14.117
28798SOL    HW188291  10.056   0.234  14.139
28798SOL    HW288292  10.133   0.130  14.061
28799SOL     OW88293   8.920   2.701   3.462
28799SOL    HW188294   8.915   2.608   3.441
28799SOL    HW288295   8.878   2.745   3.387
28800SOL     OW88296   8.511  10.349   9.050
28800SOL    HW188297   8.508  10.421   9.112
28800SOL    HW288298   8.549  10.276   9.098
28801SOL     OW88299  10.582  10.473  13.052
28801SOL    HW188300  10.661  10.527  13.044
28801SOL    HW288301  10.550  10.488  13.141
28802SOL     OW88302  12.543   5.961   2.474
28802SOL    HW188303  12.567   5.991   2.386
28802SOL    HW288304  12.621   5.915   2.505
28803SOL     OW88305  14.258  12.280  13.965
28803SOL    HW188306  14.255  12.347  13.896
28803SOL    HW288307  14.168  12.278  13.999
28804SOL     OW88308   2.604   4.861  14.500
28804SOL    HW188309   2.530   4.844  14.442
28804SOL    HW288310   2.567   4.913  14.572
28805SOL     OW88311  14.089   6.573  10.280
28805SOL    HW188312  13.998   6.548  10.265
28805SOL    HW288313  14.129   6.497  10.321
28806SOL     OW88314   8.191   6.106   5.132
28806SOL    HW188315   8.102   6.074   5.149
28806SOL    HW288316   8.248   6.037   5.168
28807SOL     OW88317   6.843   2.720   2.817
28807SOL    HW188318   6.891   2.685   2.741
28807SOL    HW288319   6.858   2.655   2.886
28808SOL     OW88320   4.400   4.102   6.115
28808SOL    HW188321   4.474   4.080   6.171
28808SOL    HW288322   4.340   4.028   6.124
28809SOL     OW88323  11.594  12.420   5.734
28809SOL    HW188324  11.685  12.404   5.758
28809SOL    HW288325  11.554  12.333   5.727
28810SOL     OW88326  10.572  13.546   3.687
28810SOL    HW188327  10.527  13.544   3.603
28810SOL    HW288328  10.630  13.470   3.685
28811SOL     OW88329   4.241   8.178   0.293
28811SOL    HW188330   4.248   8.129   0.211
28811SOL    HW288331   4.206   8.263   0.267
28812SOL     OW88332   9.286   9.026   7.159
28812SOL    HW188333   9.290   8.959   7.091
28812SOL    HW288334   9.223   9.090   7.126
28813SOL     OW88335  10.550   8.745   4.817
28813SOL    HW188336  10.547   8.697   4.734
28813SOL    HW288337  10.644   8.756   4.835
28814SOL     OW88338   3.150  11.152   6.806
28814SOL    HW188339   3.125  11.063   6.830
28814SOL    HW288340   3.096  11.208   6.861
28815SOL     OW88341  13.289   3.280   1.139
28815SOL    HW188342  13.195   3.272   1.155
28815SOL    HW288343  13.326   3.306   1.223
28816SOL     OW88344   1.265  11.541   4.575
28816SOL    HW188345   1.214  11.619   4.554
28816SOL    HW288346   1.287  11.551   4.668
28817SOL     OW88347  12.768  13.898   2.288
28817SOL    HW188348  12.818  13.958   2.231
28817SOL    HW288349  12.678  13.902   2.254
28818SOL     OW88350  10.169   2.168   3.579
28818SOL    HW188351  10.137   2.258   3.589
28818SOL    HW288352  10.137   2.123   3.657
28819SOL     OW88353  10.530   5.351   0.128
28819SOL    HW188354  10.557   5.288   0.195
28819SOL    HW288355  10.579   5.327   0.050
28820SOL     OW88356   6.968   8.496   4.591
28820SOL    HW188357   7.013   8.481   4.509
28820SOL    HW288358   6.983   8.416   4.642
28821SOL     OW88359  14.481   8.991  14.613
28821SOL    HW188360  14.432   9.036  14.545
28821SOL    HW288361  14.415   8.962  14.676
28822SOL     OW88362   3.521  10.609   9.181
28822SOL    HW188363   3.572  10.687   9.200
28822SOL    HW288364   3.548  10.582   9.093
28823SOL     OW88365   2.102   5.723   3.730
28823SOL    HW188366   2.178   5.680   3.691
28823SOL    HW288367   2.031   5.708   3.667
28824SOL     OW88368  14.377   7.494   0.239
28824SOL    HW188369  14.322   7.572   0.236
28824SOL    HW288370  14.339   7.441   0.309
28825SOL     OW88371   0.052   7.290   9.138
28825SOL    HW188372   0.126   7.349   9.153
28825SOL    HW288373  14.861   7.311   9.207
28826SOL     OW88374   8.928   7.814   2.005
28826SOL    HW188375   8.855   7.783   1.951
28826SOL    HW288376   8.964   7.734   2.043
28827SOL     OW88377   2.433   2.317  12.947
28827SOL    HW188378   2.405   2.408  12.954
28827SOL    HW288379   2.418   2.281  13.034
28828SOL     OW88380   4.941  10.652   2.604
28828SOL    HW188381   4.890  10.659   2.684
28828SOL    HW288382   5.015  10.595   2.628
28829SOL     OW88383   7.572   3.365   5.998
28829SOL    HW188384   7.646   3.362   5.936
28829SOL    HW288385   7.601   3.424   6.067
28830SOL     OW88386  10.713   4.453  11.429
28830SOL    HW188387  10.731   4.385  11.364
28830SOL    HW288388  10.619   4.470  11.419
28831SOL     OW88389  10.653  13.076   7.306
28831SOL    HW188390  10.723  13.025   7.348
28831SOL    HW288391  10.573  13.033   7.334
28832SOL     OW88392   9.524   1.502   0.229
28832SOL    HW188393   9.472   1.454   0.293
28832SOL    HW288394   9.581   1.558   0.282
28833SOL     OW88395  12.539   1.866   9.830
28833SOL    HW188396  12.584   1.881   9.912
28833SOL    HW288397  12.596   1.905   9.763
28834SOL     OW88398   2.054  10.454   0.703
28834SOL    HW188399   2.030  10.416   0.618
28834SOL    HW288400   2.081  10.379   0.756
28835SOL     OW88401  13.860  14.809  12.186
28835SOL    HW188402  13.775  14.788  12.149
28835SOL    HW288403  13.856  14.780  12.277
28836SOL     OW88404   2.985   9.988   8.918
28836SOL    HW188405   2.912   9.949   8.966
28836SOL    HW288406   2.983   9.945   8.832
28837SOL     OW88407   2.189   5.952  13.170
28837SOL    HW188408   2.262   5.905  13.129
28837SOL    HW288409   2.128   5.884  13.197
28838SOL     OW88410   3.412   1.093   0.387
28838SOL    HW188411   3.416   1.059   0.297
28838SOL    HW288412   3.503   1.097   0.415
28839SOL     OW88413   1.837  14.862  12.061
28839SOL    HW188414   1.807  14.800  12.128
28839SOL    HW288415   1.786  14.838  11.983
28840SOL     OW88416   9.630  10.034  13.206
28840SOL    HW188417   9.540  10.053  13.232
28840SOL    HW288418   9.683  10.089  13.264
28841SOL     OW88419   3.437  12.534   0.545
28841SOL    HW188420   3.449  12.602   0.479
28841SOL    HW288421   3.442  12.452   0.496
28842SOL     OW88422   2.155   5.378   6.182
28842SOL    HW188423   2.161   5.325   6.103
28842SOL    HW288424   2.238   5.363   6.227
28843SOL     OW88425  12.060   0.644   6.242
28843SOL    HW188426  12.059   0.632   6.147
28843SOL    HW288427  12.101   0.565   6.277
28844SOL     OW88428   7.003   3.933   5.646
28844SOL    HW188429   7.077   3.872   5.650
28844SOL    HW288430   7.041   4.015   5.615
28845SOL     OW88431   9.000   8.775   3.166
28845SOL    HW188432   9.075   8.716   3.162
28845SOL    HW288433   8.947   8.753   3.090
28846SOL     OW88434   7.138   0.284   5.630
28846SOL    HW188435   7.210   0.308   5.571
28846SOL    HW288436   7.166   0.317   5.716
28847SOL     OW88437   6.911   1.255   1.537
28847SOL    HW188438   6.842   1.289   1.480
28847SOL    HW288439   6.906   1.311   1.615
28848SOL     OW88440   3.211   1.797   7.655
28848SOL    HW188441   3.267   1.868   7.685
28848SOL    HW288442   3.239   1.721   7.706
28849SOL     OW88443  11.116  10.064   0.562
28849SOL    HW188444  11.036  10.116   0.575
28849SOL    HW288445  11.143  10.038   0.650
28850SOL     OW88446  13.507   4.687   1.686
28850SOL    HW188447  13.500   4.647   1.773
28850SOL    HW288448  13.521   4.780   1.703
28851SOL     OW88449  11.847  14.439   9.648
28851SOL    HW188450  11.921  14.491   9.681
28851SOL    HW288451  11.883  14.388   9.576
28852SOL     OW88452  13.871   9.665   0.512
28852SOL    HW188453  13.870   9.601   0.582
28852SOL    HW288454  13.901   9.746   0.554
28853SOL     OW88455   5.365   5.918   6.381
28853SOL    HW188456   5.385   6.011   6.390
28853SOL    HW288457   5.444   5.880   6.344
28854SOL     OW88458  13.851  10.909  10.239
28854SOL    HW188459  13.760  10.897  10.267
28854SOL    HW288460  13.857  10.861  10.156
28855SOL     OW88461  12.438  12.603   7.926
28855SOL    HW188462  12.507  12.639   7.980
28855SOL    HW288463  12.476  12.524   7.887
28856SOL     OW88464   6.872  12.307   4.871
28856SOL    HW188465   6.885  12.355   4.953
28856SOL    HW288466   6.780  12.281   4.873
28857SOL     OW88467   6.816  14.309   8.296
28857SOL    HW188468   6.817  14.321   8.391
28857SOL    HW288469   6.842  14.218   8.283
28858SOL     OW88470  10.743  14.293   0.951
28858SOL    HW188471  10.751  14.277   1.045
28858SOL    HW288472  10.706  14.381   0.944
28859SOL     OW88473  13.789  11.773   0.064
28859SOL    HW188474  13.828  11.692   0.097
28859SOL    HW288475  13.802  11.769  14.841
28860SOL     OW88476   7.739   0.803  14.305
28860SOL    HW188477   7.661   0.858  14.293
28860SOL    HW288478   7.716   0.720  14.264
28861SOL     OW88479   1.436   6.978   7.414
28861SOL    HW188480   1.481   6.950   7.493
28861SOL    HW288481   1.345   6.989   7.441
28862SOL     OW88482  11.208   6.306   6.484
28862SOL    HW188483  11.231   6.375   6.547
28862SOL    HW288484  11.230   6.343   6.399
28863SOL     OW88485   6.965   2.718   0.545
28863SOL    HW188486   6.919   2.706   0.628
28863SOL    HW288487   6.902   2.763   0.489
28864SOL     OW88488   6.837   2.903   5.432
28864SOL    HW188489   6.777   2.963   5.387
28864SOL    HW288490   6.813   2.816   5.401
28865SOL     OW88491   8.801  13.482   5.864
28865SOL    HW188492   8.777  13.531   5.785
28865SOL    HW288493   8.723  13.429   5.883
28866SOL     OW88494   4.016   2.211   8.286
28866SOL    HW188495   3.995   2.208   8.192
28866SOL    HW288496   3.947   2.158   8.327
28867SOL     OW88497   8.735   3.398   8.121
28867SOL    HW188498   8.687   3.344   8.058
28867SOL    HW288499   8.791   3.454   8.067
28868SOL     OW88500  11.974   3.171   9.167
28868SOL    HW188501  11.999   3.082   9.142
28868SOL    HW288502  11.893   3.160   9.217
28869SOL     OW88503   0.660   8.773  14.853
28869SOL    HW188504   0.728   8.715   0.017
28869SOL    HW288505   0.578   8.730   0.003
28870SOL     OW88506   9.784   3.437  13.307
28870SOL    HW188507   9.877   3.453  13.323
28870SOL    HW288508   9.773   3.450  13.213
28871SOL     OW88509   2.226  11.717  13.218
28871SOL    HW188510   2.313  11.721  13.177
28871SOL    HW288511   2.167  11.691  13.147
28872SOL     OW88512   0.173  10.789   3.983
28872SOL    HW188513   0.132  10.762   3.901
28872SOL    HW288514   0.122  10.745   4.051
28873SOL     OW88515  13.019  11.963  12.367
28873SOL    HW188516  13.079  12.035  12.347
28873SOL    HW288517  13.011  11.915  12.284
28874SOL     OW88518   8.110   3.626   4.324
28874SOL    HW188519   8.033   3.609   4.270
28874SOL    HW288520   8.085   3.698   4.381
28875SOL     OW88521   2.348   5.834   5.415
28875SOL    HW188522   2.332   5.744   5.388
28875SOL    HW288523   2.302   5.842   5.499
28876SOL     OW88524   8.872   3.644   8.817
28876SOL    HW188525   8.794   3.645   8.760
28876SOL    HW288526   8.882   3.734   8.845
28877SOL     OW88527   3.458   3.164  11.099
28877SOL    HW188528   3.395   3.225  11.061
28877SOL    HW288529   3.536   3.171  11.043
28878SOL     OW88530   8.559   7.950   2.764
28878SOL    HW188531   8.583   8.042   2.751
28878SOL    HW288532   8.563   7.937   2.859
28879SOL     OW88533   9.977   6.524  14.821
28879SOL    HW188534   9.997   6.438  14.785
28879SOL    HW288535   9.882   6.534  14.809
28880SOL     OW88536   4.423   2.015  13.471
28880SOL    HW188537   4.480   2.023  13.548
28880SOL    HW288538   4.462   1.943  13.420
28881SOL     OW88539   0.117   6.638   6.583
28881SOL    HW188540   0.090   6.547   6.571
28881SOL    HW288541   0.046   6.678   6.634
28882SOL     OW88542   5.591   9.181   9.628
28882SOL    HW188543   5.647   9.259   9.634
28882SOL    HW288544   5.576   9.156   9.720
28883SOL     OW88545  12.363   7.064   1.224
28883SOL    HW188546  12.283   7.012   1.222
28883SOL    HW288547  12.359   7.118   1.145
28884SOL     OW88548   5.552   1.693  13.529
28884SOL    HW188549   5.618   1.691  13.460
28884SOL    HW288550   5.518   1.783  13.527
28885SOL     OW88551   3.889   8.715  12.303
28885SOL    HW188552   3.926   8.750  12.222
28885SOL    HW288553   3.797   8.743  12.301
28886SOL     OW88554   5.168   3.557   6.958
28886SOL    HW188555   5.249   3.522   6.996
28886SOL    HW288556   5.146   3.631   7.015
28887SOL     OW88557   2.204   4.887  13.338
28887SOL    HW188558   2.176   4.854  13.423
28887SOL    HW288559   2.298   4.870  13.335
28888SOL     OW88560   0.980  10.075   7.967
28888SOL    HW188561   1.070  10.100   7.989
28888SOL    HW288562   0.961  10.000   8.023
28889SOL     OW88563   5.779   1.815   8.871
28889SOL    HW188564   5.840   1.772   8.931
28889SOL    HW288565   5.694   1.776   8.891
28890SOL     OW88566   9.178   8.299  11.417
28890SOL    HW188567   9.206   8.233  11.355
28890SOL    HW288568   9.227   8.378  11.392
28891SOL     OW88569   5.845   0.064   7.178
28891SOL    HW188570   5.901   0.141   7.195
28891SOL    HW288571   5.781   0.094   7.114
28892SOL     OW88572   4.579  13.338   5.087
28892SOL    HW188573   4.660  13.386   5.106
28892SOL    HW288574   4.559  13.293   5.169
28893SOL     OW88575   4.848  11.336   3.657
28893SOL    HW188576   4.838  11.243   3.636
28893SOL    HW288577   4.898  11.338   3.738
28894SOL     OW88578   3.118  12.849   2.069
28894SOL    HW188579   3.029  12.872   2.096
28894SOL    HW288580   3.158  12.933   2.046
28895SOL     OW88581  10.738  11.081   3.745
28895SOL    HW188582  10.719  11.003   3.693
28895SOL    HW288583  10.761  11.047   3.832
28896SOL     OW88584   3.356  13.067   1.126
28896SOL    HW188585   3.373  13.040   1.216
28896SOL    HW288586   3.325  13.157   1.134
28897SOL     OW88587   7.277   7.579  13.151
28897SOL    HW188588   7.198   7.540  13.188
28897SOL    HW288589   7.259   7.673  13.147
28898SOL     OW88590  10.255   4.207  14.806
28898SOL    HW188591  10.329   4.161  14.766
28898SOL    HW288592  10.234   4.156   0.012
28899SOL     OW88593   4.856  10.445   9.566
28899SOL    HW188594   4.903  10.469   9.487
28899SOL    HW288595   4.818  10.360   9.546
28900SOL     OW88596   2.435   9.533  11.446
28900SOL    HW188597   2.386   9.595  11.392
28900SOL    HW288598   2.510   9.508  11.392
28901SOL     OW88599   7.829   9.429   5.504
28901SOL    HW188600   7.862   9.437   5.415
28901SOL    HW288601   7.734   9.432   5.494
28902SOL     OW88602  10.309  11.318   4.617
28902SOL    HW188603  10.335  11.344   4.705
28902SOL    HW288604  10.270  11.231   4.628
28903SOL     OW88605   5.305   1.659  13.283
28903SOL    HW188606   5.232   1.707  13.322
28903SOL    HW288607   5.285   1.567  13.299
28904SOL     OW88608   7.388   4.124   7.274
28904SOL    HW188609   7.445   4.126   7.198
28904SOL    HW288610   7.299   4.126   7.238
28905SOL     OW88611   9.755  12.092  11.456
28905SOL    HW188612   9.715  12.057  11.536
28905SOL    HW288613   9.705  12.172  11.439
28906SOL     OW88614   7.180   3.797   4.723
28906SOL    HW188615   7.188   3.882   4.679
28906SOL    HW288616   7.089   3.795   4.752
28907SOL     OW88617   4.152   8.304   7.621
28907SOL    HW188618   4.162   8.282   7.714
28907SOL    HW288619   4.078   8.250   7.592
28908SOL     OW88620   6.985   2.495   7.127
28908SOL    HW188621   6.991   2.580   7.169
28908SOL    HW288622   7.071   2.456   7.139
28909SOL     OW88623   6.512  14.855   4.445
28909SOL    HW188624   6.547  14.860   4.356
28909SOL    HW288625   6.462  14.774   4.447
28910SOL     OW88626   5.376   3.822   2.793
28910SOL    HW188627   5.444   3.847   2.730
28910SOL    HW288628   5.358   3.730   2.774
28911SOL     OW88629   6.727   4.339   0.842
28911SOL    HW188630   6.662   4.344   0.772
28911SOL    HW288631   6.707   4.257   0.887
28912SOL     OW88632   1.440   2.654   1.257
28912SOL    HW188633   1.508   2.587   1.264
28912SOL    HW288634   1.407   2.663   1.347
28913SOL     OW88635   8.552  12.694   7.838
28913SOL    HW188636   8.506  12.613   7.860
28913SOL    HW288637   8.547  12.747   7.917
28914SOL     OW88638  11.608   8.840   1.307
28914SOL    HW188639  11.683   8.899   1.320
28914SOL    HW288640  11.603   8.789   1.389
28915SOL     OW88641  11.503  13.754   2.662
28915SOL    HW188642  11.475  13.788   2.747
28915SOL    HW288643  11.502  13.659   2.672
28916SOL     OW88644  13.765  12.275   5.207
28916SOL    HW188645  13.848  12.234   5.183
28916SOL    HW288646  13.790  12.362   5.239
28917SOL     OW88647   8.338   3.051  14.552
28917SOL    HW188648   8.407   3.086  14.609
28917SOL    HW288649   8.292   2.987  14.607
28918SOL     OW88650   1.079  11.910  11.704
28918SOL    HW188651   1.171  11.916  11.676
28918SOL    HW288652   1.041  11.994  11.677
28919SOL     OW88653   3.779   8.692  13.072
28919SOL    HW188654   3.794   8.659  13.161
28919SOL    HW288655   3.799   8.786  13.078
28920SOL     OW88656  14.537  11.331  13.677
28920SOL    HW188657  14.572  11.288  13.755
28920SOL    HW288658  14.544  11.264  13.609
28921SOL     OW88659   7.882  14.427   9.070
28921SOL    HW188660   7.824  14.503   9.076
28921SOL    HW288661   7.957  14.450   9.126
28922SOL     OW88662   0.556   3.044   7.981
28922SOL    HW188663   0.554   3.140   7.985
28922SOL    HW288664   0.543   3.024   7.888
28923SOL     OW88665  12.912   1.045   4.658
28923SOL    HW188666  12.940   1.115   4.599
28923SOL    HW288667  12.932   1.079   4.745
28924SOL     OW88668  14.207   0.327   5.200
28924SOL    HW188669  14.298   0.353   5.213
28924SOL    HW288670  14.162   0.354   5.280
28925SOL     OW88671   4.595   4.886  12.812
28925SOL    HW188672   4.557   4.812  12.861
28925SOL    HW288673   4.630   4.944  12.880
28926SOL     OW88674   6.330  12.854   1.735
28926SOL    HW188675   6.358  12.769   1.768
28926SOL    HW288676   6.349  12.852   1.641
28927SOL     OW88677   1.019   2.239  10.048
28927SOL    HW188678   1.065   2.157  10.067
28927SOL    HW288679   1.085   2.307  10.063
28928SOL     OW88680   8.277   4.695  13.127
28928SOL    HW188681   8.331   4.702  13.049
28928SOL    HW288682   8.314   4.621  13.175
28929SOL     OW88683   7.920   2.588   8.976
28929SOL    HW188684   7.924   2.566   9.070
28929SOL    HW288685   7.828   2.577   8.953
28930SOL     OW88686  11.310   7.764  14.043
28930SOL    HW188687  11.270   7.701  14.102
28930SOL    HW288688  11.394   7.725  14.019
28931SOL     OW88689   3.042  12.635   3.310
28931SOL    HW188690   2.968  12.674   3.358
28931SOL    HW288691   3.081  12.708   3.262
28932SOL     OW88692   4.093   9.747   6.104
28932SOL    HW188693   4.037   9.760   6.181
28932SOL    HW288694   4.112   9.653   6.104
28933SOL     OW88695  10.497   0.071   2.670
28933SOL    HW188696  10.478   0.074   2.577
28933SOL    HW288697  10.561   0.141   2.684
28934SOL     OW88698   5.159  11.764   2.116
28934SOL    HW188699   5.085  11.726   2.165
28934SOL    HW288700   5.118  11.814   2.046
28935SOL     OW88701   7.101  11.758  14.656
28935SOL    HW188702   7.150  11.800  14.727
28935SOL    HW288703   7.011  11.789  14.667
28936SOL     OW88704   3.914   8.749  12.003
28936SOL    HW188705   3.828   8.713  11.986
28936SOL    HW288706   3.916   8.832  11.954
28937SOL     OW88707   0.060   2.648  14.186
28937SOL    HW188708   0.119   2.592  14.136
28937SOL    HW288709  14.864   2.674  14.123
28938SOL     OW88710   5.483  11.657   3.801
28938SOL    HW188711   5.422  11.723   3.770
28938SOL    HW288712   5.430  11.598   3.855
28939SOL     OW88713  13.008   0.714   1.492
28939SOL    HW188714  13.076   0.746   1.433
28939SOL    HW288715  13.054   0.697   1.574
28940SOL     OW88716   0.396  14.138   2.081
28940SOL    HW188717   0.490  14.121   2.076
28940SOL    HW288718   0.356  14.050   2.079
28941SOL     OW88719  14.634   6.457   4.340
28941SOL    HW188720  14.660   6.419   4.256
28941SOL    HW288721  14.650   6.551   4.329
28942SOL     OW88722   1.077   0.408   3.848
28942SOL    HW188723   1.145   0.383   3.785
28942SOL    HW288724   1.054   0.498   3.824
28943SOL     OW88725   1.157   7.266   0.893
28943SOL    HW188726   1.122   7.191   0.942
28943SOL    HW288727   1.195   7.226   0.814
28944SOL     OW88728   2.822   5.390   5.450
28944SOL    HW188729   2.842   5.386   5.544
28944SOL    HW288730   2.730   5.365   5.445
28945SOL     OW88731   3.710  10.802   1.578
28945SOL    HW188732   3.707  10.898   1.579
28945SOL    HW288733   3.665  10.778   1.497
28946SOL     OW88734  10.818  12.618   3.001
28946SOL    HW188735  10.792  12.675   3.073
28946SOL    HW288736  10.754  12.634   2.932
28947SOL     OW88737   2.871   4.802  14.550
28947SOL    HW188738   2.782   4.838  14.553
28947SOL    HW288739   2.905   4.817  14.638
28948SOL     OW88740   7.303   3.442  13.574
28948SOL    HW188741   7.330   3.353  13.598
28948SOL    HW288742   7.380   3.480  13.532
28949SOL     OW88743   5.500   3.095   3.854
28949SOL    HW188744   5.592   3.068   3.859
28949SOL    HW288745   5.475   3.113   3.945
28950SOL     OW88746  11.787   4.165   4.311
28950SOL    HW188747  11.790   4.260   4.308
28950SOL    HW288748  11.812   4.137   4.222
28951SOL     OW88749   5.403   4.161   1.012
28951SOL    HW188750   5.327   4.111   0.983
28951SOL    HW288751   5.408   4.235   0.951
28952SOL     OW88752  13.689   2.844  11.218
28952SOL    HW188753  13.711   2.919  11.274
28952SOL    HW288754  13.767   2.832  11.163
28953SOL     OW88755  13.278   3.718   9.291
28953SOL    HW188756  13.248   3.629   9.275
28953SOL    HW288757  13.365   3.707   9.331
28954SOL     OW88758   1.925   4.337   0.501
28954SOL    HW188759   1.995   4.400   0.480
28954SOL    HW288760   1.880   4.323   0.418
28955SOL     OW88761   6.627   8.839   7.005
28955SOL    HW188762   6.573   8.845   7.084
28955SOL    HW288763   6.625   8.746   6.981
28956SOL     OW88764  11.869   7.156   0.181
28956SOL    HW188765  11.788   7.117   0.150
28956SOL    HW288766  11.896   7.100   0.254
28957SOL     OW88767  12.894  10.309   0.568
28957SOL    HW188768  12.927  10.219   0.569
28957SOL    HW288769  12.939  10.350   0.493
28958SOL     OW88770   2.373   2.057  12.764
28958SOL    HW188771   2.378   2.068  12.859
28958SOL    HW288772   2.320   2.130  12.734
28959SOL     OW88773   0.583  12.608   4.533
28959SOL    HW188774   0.653  12.577   4.590
28959SOL    HW288775   0.503  12.572   4.570
28960SOL     OW88776   7.260  11.090  10.374
28960SOL    HW188777   7.180  11.039  10.362
28960SOL    HW288778   7.234  11.180  10.352
28961SOL     OW88779   8.083   8.412   3.604
28961SOL    HW188780   8.159   8.364   3.635
28961SOL    HW288781   8.017   8.399   3.672
28962SOL     OW88782   5.913   7.711   1.663
28962SOL    HW188783   5.924   7.742   1.753
28962SOL    HW288784   5.953   7.624   1.662
28963SOL     OW88785  12.252  10.325   8.076
28963SOL    HW188786  12.292  10.238   8.083
28963SOL    HW288787  12.318  10.378   8.030
28964SOL     OW88788  10.342   8.752   7.137
28964SOL    HW188789  10.266   8.784   7.186
28964SOL    HW288790  10.417   8.777   7.191
28965SOL     OW88791   3.916   3.418  11.905
28965SOL    HW188792   3.878   3.483  11.847
28965SOL    HW288793   3.895   3.334  11.865
28966SOL     OW88794  10.296   1.401  10.760
28966SOL    HW188795  10.226   1.455  10.722
28966SOL    HW288796  10.290   1.416  10.854
28967SOL     OW88797   5.093  12.330   7.003
28967SOL    HW188798   5.075  12.417   6.966
28967SOL    HW288799   5.111  12.348   7.096
28968SOL     OW88800   4.225  11.769  13.812
28968SOL    HW188801   4.266  11.842  13.765
28968SOL    HW288802   4.140  11.759  13.771
28969SOL     OW88803   3.461   0.771   0.001
28969SOL    HW188804   3.375   0.754  14.836
28969SOL    HW288805   3.493   0.848  14.825
28970SOL     OW88806   4.929  10.722  13.993
28970SOL    HW188807   5.007  10.747  13.943
28970SOL    HW288808   4.872  10.680  13.929
28971SOL     OW88809  13.747  11.299   2.427
28971SOL    HW188810  13.700  11.223   2.393
28971SOL    HW288811  13.694  11.374   2.403
28972SOL     OW88812  11.979   3.992   2.082
28972SOL    HW188813  12.050   4.037   2.128
28972SOL    HW288814  12.021   3.952   2.006
28973SOL     OW88815  14.131   2.643   6.967
28973SOL    HW188816  14.036   2.640   6.962
28973SOL    HW288817  14.154   2.594   7.046
28974SOL     OW88818   8.913   8.380   1.029
28974SOL    HW188819   8.956   8.409   0.949
28974SOL    HW288820   8.903   8.285   1.019
28975SOL     OW88821   8.593   3.834   5.434
28975SOL    HW188822   8.574   3.852   5.526
28975SOL    HW288823   8.554   3.748   5.418
28976SOL     OW88824   4.775   8.727  10.968
28976SOL    HW188825   4.767   8.779  11.048
28976SOL    HW288826   4.720   8.650  10.985
28977SOL     OW88827   6.840   7.143  14.469
28977SOL    HW188828   6.780   7.174  14.536
28977SOL    HW288829   6.797   7.067  14.430
28978SOL     OW88830   6.185  12.911   4.436
28978SOL    HW188831   6.092  12.909   4.415
28978SOL    HW288832   6.200  13.001   4.466
28979SOL     OW88833   5.275   4.173   9.599
28979SOL    HW188834   5.351   4.227   9.578
28979SOL    HW288835   5.312   4.091   9.632
28980SOL     OW88836   0.071   3.294  14.825
28980SOL    HW188837   0.109   3.207  14.840
28980SOL    HW288838  14.849   3.278  14.818
28981SOL     OW88839  14.436   8.578  10.532
28981SOL    HW188840  14.397   8.492  10.513
28981SOL    HW288841  14.498   8.561  10.603
28982SOL     OW88842  11.827   0.792   5.440
28982SOL    HW188843  11.814   0.704   5.476
28982SOL    HW288844  11.807   0.851   5.513
28983SOL     OW88845   9.146   8.862   4.324
28983SOL    HW188846   9.094   8.937   4.296
28983SOL    HW288847   9.200   8.895   4.396
28984SOL     OW88848   8.136   3.346   6.813
28984SOL    HW188849   8.111   3.255   6.797
28984SOL    HW288850   8.230   3.349   6.796
28985SOL     OW88851   6.076   5.735   0.932
28985SOL    HW188852   6.082   5.780   0.847
28985SOL    HW288853   5.991   5.760   0.966
28986SOL     OW88854  11.632  11.335  13.380
28986SOL    HW188855  11.612  11.391  13.455
28986SOL    HW288856  11.589  11.252  13.400
28987SOL     OW88857   4.098   0.485  14.186
28987SOL    HW188858   4.050   0.405  14.166
28987SOL    HW288859   4.037   0.555  14.164
28988SOL     OW88860   2.861  11.319   7.531
28988SOL    HW188861   2.889  11.312   7.440
28988SOL    HW288862   2.779  11.368   7.527
28989SOL     OW88863   0.850  11.479   7.389
28989SOL    HW188864   0.771  11.515   7.429
28989SOL    HW288865   0.818  11.409   7.331
28990SOL     OW88866   4.383  14.020   0.269
28990SOL    HW188867   4.411  14.111   0.259
28990SOL    HW288868   4.386  14.004   0.363
28991SOL     OW88869   5.777   0.484  12.216
28991SOL    HW188870   5.799   0.429  12.291
28991SOL    HW288871   5.748   0.567  12.255
28992SOL     OW88872   8.728   7.745   6.775
28992SOL    HW188873   8.640   7.709   6.770
28992SOL    HW288874   8.772   7.711   6.697
28993SOL     OW88875   9.903  10.210  12.456
28993SOL    HW188876   9.936  10.220  12.545
28993SOL    HW288877   9.861  10.294  12.436
28994SOL     OW88878   2.854   8.093   2.496
28994SOL    HW188879   2.918   8.084   2.566
28994SOL    HW288880   2.828   8.185   2.499
28995SOL     OW88881  12.014   2.697  11.366
28995SOL    HW188882  11.966   2.626  11.323
28995SOL    HW288883  12.043   2.660  11.449
28996SOL     OW88884   7.834   0.253   6.354
28996SOL    HW188885   7.926   0.228   6.339
28996SOL    HW288886   7.811   0.209   6.437
28997SOL     OW88887   5.894   8.973   9.632
28997SOL    HW188888   5.948   8.954   9.555
28997SOL    HW288889   5.945   9.036   9.682
28998SOL     OW88890  10.851   8.017  12.857
28998SOL    HW188891  10.891   8.022  12.770
28998SOL    HW288892  10.921   7.986  12.913
28999SOL     OW88893  10.758  11.671   9.929
28999SOL    HW188894  10.847  11.639   9.914
28999SOL    HW288895  10.706  11.629   9.859
29000SOL     OW88896  10.064  10.359   8.052
29000SOL    HW188897  10.155  10.388   8.064
29000SOL    HW288898  10.011  10.431   8.087
29001SOL     OW88899   1.307  13.904   8.840
29001SOL    HW188900   1.400  13.924   8.851
29001SOL    HW288901   1.304  13.844   8.765
29002SOL     OW88902   5.483   9.319  14.677
29002SOL    HW188903   5.527   9.276  14.603
29002SOL    HW288904   5.394   9.332  14.647
29003SOL     OW88905   4.731   2.324  13.110
29003SOL    HW188906   4.670   2.397  13.118
29003SOL    HW288907   4.735   2.307  13.016
29004SOL     OW88908  11.194   7.074  12.775
29004SOL    HW188909  11.167   7.081  12.867
29004SOL    HW288910  11.176   7.161  12.739
29005SOL     OW88911   7.276   6.925   3.694
29005SOL    HW188912   7.253   6.916   3.786
29005SOL    HW288913   7.372   6.930   3.693
29006SOL     OW88914  10.978  11.305  13.005
29006SOL    HW188915  10.978  11.322  12.911
29006SOL    HW288916  10.904  11.245  13.018
29007SOL     OW88917  11.333   7.851   5.704
29007SOL    HW188918  11.314   7.824   5.615
29007SOL    HW288919  11.259   7.818   5.756
29008SOL     OW88920   6.307   7.722  12.335
29008SOL    HW188921   6.220   7.696  12.366
29008SOL    HW288922   6.293   7.805  12.290
29009SOL     OW88923   0.062   5.003   2.694
29009SOL    HW188924   0.078   4.913   2.664
29009SOL    HW288925   0.099   5.005   2.782
29010SOL     OW88926   3.267  11.970   4.062
29010SOL    HW188927   3.270  12.035   3.991
29010SOL    HW288928   3.246  12.020   4.140
29011SOL     OW88929  13.143  14.209   8.335
29011SOL    HW188930  13.125  14.131   8.386
29011SOL    HW288931  13.106  14.281   8.387
29012SOL     OW88932   3.907  10.408   7.669
29012SOL    HW188933   3.913  10.435   7.761
29012SOL    HW288934   3.984  10.446   7.627
29013SOL     OW88935  13.674   5.783  12.919
29013SOL    HW188936  13.664   5.720  12.848
29013SOL    HW288937  13.687   5.729  12.997
29014SOL     OW88938  11.370   8.409   7.755
29014SOL    HW188939  11.372   8.335   7.695
29014SOL    HW288940  11.440   8.390   7.818
29015SOL     OW88941  11.942   1.695  14.269
29015SOL    HW188942  11.982   1.691  14.356
29015SOL    HW288943  11.852   1.666  14.283
29016SOL     OW88944   5.158   3.766   3.877
29016SOL    HW188945   5.200   3.760   3.963
29016SOL    HW288946   5.083   3.823   3.891
29017SOL     OW88947   5.206  12.196  12.788
29017SOL    HW188948   5.146  12.263  12.757
29017SOL    HW288949   5.159  12.152  12.858
29018SOL     OW88950   0.573   7.528   8.393
29018SOL    HW188951   0.555   7.506   8.302
29018SOL    HW288952   0.664   7.560   8.393
29019SOL     OW88953   3.724   8.623   4.565
29019SOL    HW188954   3.726   8.532   4.534
29019SOL    HW288955   3.767   8.672   4.495
29020SOL     OW88956   9.072  13.765  13.968
29020SOL    HW188957   9.042  13.697  13.908
29020SOL    HW288958   9.000  13.829  13.969
29021SOL     OW88959   1.676  10.892   3.353
29021SOL    HW188960   1.585  10.882   3.383
29021SOL    HW288961   1.711  10.963   3.407
29022SOL     OW88962   0.662  10.504  13.927
29022SOL    HW188963   0.575  10.515  13.888
29022SOL    HW288964   0.719  10.484  13.853
29023SOL     OW88965  13.496   5.316   4.489
29023SOL    HW188966  13.493   5.407   4.518
29023SOL    HW288967  13.583   5.286   4.514
29024SOL     OW88968  10.032  10.739   8.459
29024SOL    HW188969  10.014  10.719   8.368
29024SOL    HW288970   9.953  10.781   8.492
29025SOL     OW88971   8.284   2.417   2.729
29025SOL    HW188972   8.331   2.386   2.806
29025SOL    HW288973   8.267   2.509   2.747
29026SOL     OW88974   8.084  10.229   2.540
29026SOL    HW188975   8.172  10.250   2.570
29026SOL    HW288976   8.083  10.133   2.533
29027SOL     OW88977   1.555   7.652  10.469
29027SOL    HW188978   1.524   7.616  10.386
29027SOL    HW288979   1.497   7.613  10.535
29028SOL     OW88980  14.539  13.335   9.621
29028SOL    HW188981  14.502  13.267   9.678
29028SOL    HW288982  14.632  13.337   9.644
29029SOL     OW88983   1.943   6.696   2.109
29029SOL    HW188984   1.885   6.721   2.181
29029SOL    HW288985   1.977   6.779   2.077
29030SOL     OW88986  12.422   7.584   6.231
29030SOL    HW188987  12.365   7.566   6.305
29030SOL    HW288988  12.363   7.616   6.163
29031SOL     OW88989  11.319   5.705   5.523
29031SOL    HW188990  11.276   5.766   5.463
29031SOL    HW288991  11.328   5.753   5.605
29032SOL     OW88992   7.265   6.380  12.431
29032SOL    HW188993   7.306   6.458  12.469
29032SOL    HW288994   7.178   6.377  12.472
29033SOL     OW88995  12.681   0.472   2.867
29033SOL    HW188996  12.667   0.564   2.889
29033SOL    HW288997  12.721   0.473   2.780
29034SOL     OW88998   2.644   9.604   1.365
29034SOL    HW188999   2.717   9.633   1.420
29034SOL    HW289000   2.566   9.617   1.418
29035SOL     OW89001  14.781  13.971   8.199
29035SOL    HW189002  14.811  13.887   8.162
29035SOL    HW289003  14.860  14.011   8.235
29036SOL     OW89004   8.693   9.069   7.588
29036SOL    HW189005   8.620   9.023   7.547
29036SOL    HW289006   8.767   9.054   7.528
29037SOL     OW89007   3.742  13.505   1.664
29037SOL    HW189008   3.817  13.511   1.604
29037SOL    HW289009   3.765  13.562   1.737
29038SOL     OW89010   7.607   2.656   1.219
29038SOL    HW189011   7.579   2.582   1.273
29038SOL    HW289012   7.651   2.617   1.144
29039SOL     OW89013   7.311  10.742   6.017
29039SOL    HW189014   7.277  10.695   5.941
29039SOL    HW289015   7.339  10.673   6.077
29040SOL     OW89016   8.135   5.754   7.838
29040SOL    HW189017   8.064   5.691   7.827
29040SOL    HW289018   8.108   5.829   7.785
29041SOL     OW89019   2.954  11.837  13.249
29041SOL    HW189020   2.978  11.789  13.328
29041SOL    HW289021   2.884  11.784  13.209
29042SOL     OW89022   2.539   2.116  12.317
29042SOL    HW189023   2.510   2.105  12.227
29042SOL    HW289024   2.497   2.045  12.365
29043SOL     OW89025   2.171   5.318  13.771
29043SOL    HW189026   2.258   5.279  13.758
29043SOL    HW289027   2.153   5.363  13.688
29044SOL     OW89028   4.722   8.761  11.361
29044SOL    HW189029   4.673   8.833  11.321
29044SOL    HW289030   4.654   8.703  11.397
29045SOL     OW89031  11.337   4.624   3.590
29045SOL    HW189032  11.256   4.602   3.545
29045SOL    HW289033  11.363   4.708   3.552
29046SOL     OW89034   3.662  13.928   7.419
29046SOL    HW189035   3.687  13.836   7.423
29046SOL    HW289036   3.584  13.929   7.363
29047SOL     OW89037   8.862   4.029   5.775
29047SOL    HW189038   8.912   3.948   5.781
29047SOL    HW289039   8.918   4.089   5.726
29048SOL     OW89040   1.385  11.193   1.517
29048SOL    HW189041   1.446  11.142   1.464
29048SOL    HW289042   1.300  11.181   1.476
29049SOL     OW89043   1.161  10.034   0.482
29049SOL    HW189044   1.228   9.973   0.451
29049SOL    HW289045   1.189  10.119   0.450
29050SOL     OW89046   3.735   3.021   5.581
29050SOL    HW189047   3.760   2.932   5.606
29050SOL    HW289048   3.787   3.039   5.502
29051SOL     OW89049  13.278   9.751   3.360
29051SOL    HW189050  13.204   9.750   3.300
29051SOL    HW289051  13.253   9.813   3.428
29052SOL     OW89052   7.774   8.244   0.378
29052SOL    HW189053   7.790   8.165   0.325
29052SOL    HW289054   7.721   8.213   0.451
29053SOL     OW89055   8.844   0.506   3.586
29053SOL    HW189056   8.844   0.563   3.662
29053SOL    HW289057   8.816   0.421   3.620
29054SOL     OW89058   0.117   1.849  14.055
29054SOL    HW189059   0.056   1.819  13.987
29054SOL    HW289060   0.174   1.774  14.069
29055SOL     OW89061   9.427   9.770  12.971
29055SOL    HW189062   9.507   9.782  13.022
29055SOL    HW289063   9.356   9.776  13.035
29056SOL     OW89064   1.738   2.458   2.142
29056SOL    HW189065   1.712   2.446   2.233
29056SOL    HW289066   1.762   2.550   2.136
29057SOL     OW89067   8.463   2.682  10.752
29057SOL    HW189068   8.407   2.605  10.758
29057SOL    HW289069   8.498   2.680  10.663
29058SOL     OW89070  12.745   1.556   6.420
29058SOL    HW189071  12.697   1.580   6.341
29058SOL    HW289072  12.773   1.639   6.459
29059SOL     OW89073   0.673  11.141   9.015
29059SOL    HW189074   0.579  11.130   9.000
29059SOL    HW289075   0.715  11.102   8.938
29060SOL     OW89076  12.066  14.478   3.944
29060SOL    HW189077  12.026  14.477   3.857
29060SOL    HW289078  12.038  14.561   3.982
29061SOL     OW89079   8.004   2.216   0.572
29061SOL    HW189080   7.931   2.202   0.513
29061SOL    HW289081   7.963   2.239   0.656
29062SOL     OW89082  12.146  13.719   1.481
29062SOL    HW189083  12.138  13.647   1.418
29062SOL    HW289084  12.096  13.689   1.557
29063SOL     OW89085  11.469  11.699   8.765
29063SOL    HW189086  11.557  11.676   8.794
29063SOL    HW289087  11.478  11.788   8.729
29064SOL     OW89088  13.064   4.104   9.794
29064SOL    HW189089  13.053   4.012   9.815
29064SOL    HW289090  13.056   4.149   9.879
29065SOL     OW89091   8.268  10.771  13.858
29065SOL    HW189092   8.208  10.843  13.837
29065SOL    HW289093   8.211  10.696  13.871
29066SOL     OW89094   5.921   7.799   5.984
29066SOL    HW189095   6.005   7.766   6.015
29066SOL    HW289096   5.878   7.834   6.062
29067SOL     OW89097   5.274   9.394   8.305
29067SOL    HW189098   5.186   9.405   8.268
29067SOL    HW289099   5.324   9.467   8.270
29068SOL     OW89100   6.297  14.473   0.217
29068SOL    HW189101   6.217  14.522   0.235
29068SOL    HW289102   6.356  14.496   0.289
29069SOL     OW89103   5.977   5.514  12.977
29069SOL    HW189104   6.044   5.542  13.039
29069SOL    HW289105   5.918   5.589  12.971
29070SOL     OW89106  11.023   5.170   5.892
29070SOL    HW189107  11.073   5.174   5.810
29070SOL    HW289108  11.030   5.079   5.920
29071SOL     OW89109   1.204  14.800   9.943
29071SOL    HW189110   1.222  14.706   9.942
29071SOL    HW289111   1.119  14.808   9.987
29072SOL     OW89112   9.448   0.829   8.742
29072SOL    HW189113   9.436   0.828   8.837
29072SOL    HW289114   9.363   0.854   8.707
29073SOL     OW89115   4.816  13.026  10.980
29073SOL    HW189116   4.726  12.996  10.966
29073SOL    HW289117   4.865  12.948  11.004
29074SOL     OW89118   6.933  12.991   9.329
29074SOL    HW189119   6.847  13.022   9.358
29074SOL    HW289120   6.988  13.069   9.331
29075SOL     OW89121   6.047  12.094   7.060
29075SOL    HW189122   6.107  12.081   7.133
29075SOL    HW289123   5.993  12.169   7.086
29076SOL     OW89124   9.192   3.823   7.962
29076SOL    HW189125   9.184   3.876   8.042
29076SOL    HW289126   9.259   3.758   7.983
29077SOL     OW89127   8.183  10.547  12.788
29077SOL    HW189128   8.125  10.503  12.726
29077SOL    HW289129   8.250  10.588  12.733
29078SOL     OW89130   7.617  12.003   8.724
29078SOL    HW189131   7.552  12.056   8.677
29078SOL    HW289132   7.569  11.923   8.748
29079SOL     OW89133   1.641  12.728   4.145
29079SOL    HW189134   1.736  12.718   4.140
29079SOL    HW289135   1.607  12.640   4.129
29080SOL     OW89136  14.097   9.862   0.051
29080SOL    HW189137  14.021   9.804   0.046
29080SOL    HW289138  14.062   9.950   0.034
29081SOL     OW89139   2.153   4.025   9.332
29081SOL    HW189140   2.122   3.934   9.326
29081SOL    HW289141   2.122   4.055   9.418
29082SOL     OW89142   1.455   7.763   9.377
29082SOL    HW189143   1.362   7.755   9.395
29082SOL    HW289144   1.463   7.843   9.325
29083SOL     OW89145   9.181   7.955   6.704
29083SOL    HW189146   9.158   8.034   6.753
29083SOL    HW289147   9.188   7.984   6.613
29084SOL     OW89148   1.872   4.537   1.086
29084SOL    HW189149   1.932   4.554   1.159
29084SOL    HW289150   1.788   4.573   1.115
29085SOL     OW89151   8.070   7.752   8.431
29085SOL    HW189152   8.089   7.691   8.360
29085SOL    HW289153   8.119   7.718   8.506
29086SOL     OW89154   9.562  12.644  14.365
29086SOL    HW189155   9.609  12.713  14.318
29086SOL    HW289156   9.584  12.564  14.317
29087SOL     OW89157  13.805  12.502  13.005
29087SOL    HW189158  13.771  12.413  13.011
29087SOL    HW289159  13.791  12.527  12.913
29088SOL     OW89160   4.006  10.740   7.692
29088SOL    HW189161   3.968  10.792   7.621
29088SOL    HW289162   4.071  10.685   7.648
29089SOL     OW89163  11.145   9.335   5.924
29089SOL    HW189164  11.160   9.426   5.898
29089SOL    HW289165  11.150   9.286   5.843
29090SOL     OW89166   5.401   1.506   6.619
29090SOL    HW189167   5.345   1.434   6.649
29090SOL    HW289168   5.345   1.583   6.623
29091SOL     OW89169   5.691   3.100   1.651
29091SOL    HW189170   5.768   3.134   1.606
29091SOL    HW289171   5.624   3.167   1.637
29092SOL     OW89172  14.201   1.693   6.072
29092SOL    HW189173  14.222   1.783   6.046
29092SOL    HW289174  14.263   1.639   6.024
29093SOL     OW89175  11.933   2.341   1.582
29093SOL    HW189176  11.878   2.334   1.661
29093SOL    HW289177  11.985   2.421   1.596
29094SOL     OW89178   1.472  14.581  13.730
29094SOL    HW189179   1.400  14.624  13.776
29094SOL    HW289180   1.544  14.643  13.736
29095SOL     OW89181  11.835   6.470  14.560
29095SOL    HW189182  11.798   6.558  14.555
29095SOL    HW289183  11.759   6.412  14.560
29096SOL     OW89184   1.101   3.691  11.393
29096SOL    HW189185   1.171   3.702  11.328
29096SOL    HW289186   1.056   3.611  11.366
29097SOL     OW89187  10.012   8.921   7.782
29097SOL    HW189188   9.932   8.964   7.753
29097SOL    HW289189  10.024   8.849   7.720
29098SOL     OW89190   9.776  10.624   3.902
29098SOL    HW189191   9.699  10.680   3.909
29098SOL    HW289192   9.742  10.535   3.912
29099SOL     OW89193  12.011   3.999   7.672
29099SOL    HW189194  12.044   3.916   7.707
29099SOL    HW289195  12.090   4.051   7.657
29100SOL     OW89196   4.980  12.084   1.455
29100SOL    HW189197   5.066  12.061   1.419
29100SOL    HW289198   4.976  12.179   1.448
29101SOL     OW89199   1.982   8.086   0.742
29101SOL    HW189200   1.982   8.182   0.739
29101SOL    HW289201   1.919   8.064   0.810
29102SOL     OW89202   0.259  10.408  12.743
29102SOL    HW189203   0.325  10.348  12.708
29102SOL    HW289204   0.184  10.351  12.761
29103SOL     OW89205  12.072   0.532  11.534
29103SOL    HW189206  12.078   0.612  11.481
29103SOL    HW289207  11.987   0.495  11.511
29104SOL     OW89208   3.988   2.541   2.043
29104SOL    HW189209   4.055   2.608   2.030
29104SOL    HW289210   3.940   2.571   2.120
29105SOL     OW89211   2.129   4.881  13.077
29105SOL    HW189212   2.160   4.880  13.167
29105SOL    HW289213   2.159   4.798  13.040
29106SOL     OW89214   1.619   7.878   8.669
29106SOL    HW189215   1.660   7.798   8.701
29106SOL    HW289216   1.690   7.942   8.665
29107SOL     OW89217  12.828   5.710   6.101
29107SOL    HW189218  12.901   5.650   6.088
29107SOL    HW289219  12.799   5.733   6.013
29108SOL     OW89220  11.004  11.254   2.575
29108SOL    HW189221  10.993  11.175   2.629
29108SOL    HW289222  11.007  11.222   2.485
29109SOL     OW89223  10.132  10.970  13.682
29109SOL    HW189224  10.105  10.887  13.721
29109SOL    HW289225  10.164  11.022  13.757
29110SOL     OW89226   3.295   1.562   5.790
29110SOL    HW189227   3.354   1.570   5.865
29110SOL    HW289228   3.351   1.564   5.713
29111SOL     OW89229  13.896   3.828   1.302
29111SOL    HW189230  13.906   3.788   1.388
29111SOL    HW289231  13.852   3.762   1.249
29112SOL     OW89232  14.826   5.031   3.396
29112SOL    HW189233   0.028   4.970   3.383
29112SOL    HW289234  14.796   5.014   3.485
29113SOL     OW89235  10.114   8.152   7.561
29113SOL    HW189236  10.086   8.102   7.484
29113SOL    HW289237  10.209   8.141   7.563
29114SOL     OW89238   6.696   6.707   2.545
29114SOL    HW189239   6.710   6.624   2.591
29114SOL    HW289240   6.724   6.690   2.455
29115SOL     OW89241   9.419   8.954  10.669
29115SOL    HW189242   9.504   8.989  10.641
29115SOL    HW289243   9.372   9.029  10.704
29116SOL     OW89244  10.295   6.292   5.243
29116SOL    HW189245  10.295   6.299   5.147
29116SOL    HW289246  10.285   6.382   5.274
29117SOL     OW89247   7.986   0.814   5.097
29117SOL    HW189248   7.892   0.802   5.104
29117SOL    HW289249   8.009   0.779   5.011
29118SOL     OW89250   8.680   3.096   9.330
29118SOL    HW189251   8.695   3.025   9.393
29118SOL    HW289252   8.597   3.135   9.358
29119SOL     OW89253   0.856   6.482  11.724
29119SOL    HW189254   0.868   6.551  11.788
29119SOL    HW289255   0.797   6.420  11.767
29120SOL     OW89256   9.644   8.378  10.827
29120SOL    HW189257   9.560   8.388  10.783
29120SOL    HW289258   9.691   8.459  10.806
29121SOL     OW89259   0.680   8.295   3.474
29121SOL    HW189260   0.733   8.326   3.548
29121SOL    HW289261   0.740   8.242   3.423
29122SOL     OW89262   1.314   9.753   3.000
29122SOL    HW189263   1.328   9.676   3.054
29122SOL    HW289264   1.380   9.816   3.030
29123SOL     OW89265  14.466  12.340   9.438
29123SOL    HW189266  14.477  12.257   9.393
29123SOL    HW289267  14.488  12.406   9.372
29124SOL     OW89268  12.033  14.865  12.549
29124SOL    HW189269  12.101  14.824  12.496
29124SOL    HW289270  11.954  14.858  12.496
29125SOL     OW89271   4.251   3.547   4.124
29125SOL    HW189272   4.156   3.538   4.120
29125SOL    HW289273   4.279   3.473   4.179
29126SOL     OW89274  10.641  10.336   7.719
29126SOL    HW189275  10.574  10.306   7.780
29126SOL    HW289276  10.653  10.429   7.739
29127SOL     OW89277  11.988   7.936   2.151
29127SOL    HW189278  11.951   8.003   2.093
29127SOL    HW289279  11.912   7.900   2.197
29128SOL     OW89280   0.382   5.754  10.974
29128SOL    HW189281   0.321   5.818  10.936
29128SOL    HW289282   0.327   5.678  10.994
29129SOL     OW89283   0.081   5.172   5.472
29129SOL    HW189284   0.058   5.248   5.525
29129SOL    HW289285   0.174   5.156   5.492
29130SOL     OW89286   9.573  11.724   4.851
29130SOL    HW189287   9.575  11.742   4.757
29130SOL    HW289288   9.497  11.667   4.864
29131SOL     OW89289  14.815  12.650   9.513
29131SOL    HW189290   0.025  12.700   9.522
29131SOL    HW289291  14.800  12.612   9.599
29132SOL     OW89292   1.237  13.036  12.386
29132SOL    HW189293   1.218  13.032  12.480
29132SOL    HW289294   1.323  12.997  12.377
29133SOL     OW89295   0.936   7.967   6.160
29133SOL    HW189296   0.935   8.031   6.231
29133SOL    HW289297   0.845   7.940   6.150
29134SOL     OW89298   1.193   3.305   5.667
29134SOL    HW189299   1.195   3.381   5.608
29134SOL    HW289300   1.104   3.271   5.659
29135SOL     OW89301  12.862  13.469   4.897
29135SOL    HW189302  12.949  13.449   4.931
29135SOL    HW289303  12.856  13.564   4.898
29136SOL     OW89304   3.695   9.459   9.292
29136SOL    HW189305   3.777   9.430   9.332
29136SOL    HW289306   3.627   9.426   9.351
29137SOL     OW89307  14.172  10.342  13.900
29137SOL    HW189308  14.257  10.318  13.937
29137SOL    HW289309  14.175  10.310  13.810
29138SOL     OW89310  13.959   7.148   6.181
29138SOL    HW189311  13.930   7.063   6.213
29138SOL    HW289312  14.053   7.149   6.198
29139SOL     OW89313  12.325   7.436   1.392
29139SOL    HW189314  12.278   7.354   1.376
29139SOL    HW289315  12.391   7.440   1.322
29140SOL     OW89316   5.103  14.620  11.316
29140SOL    HW189317   5.149  14.600  11.397
29140SOL    HW289318   5.069  14.536  11.286
29141SOL     OW89319   3.917   0.994   0.492
29141SOL    HW189320   3.906   0.943   0.412
29141SOL    HW289321   3.973   0.940   0.547
29142SOL     OW89322   0.398   2.533   8.817
29142SOL    HW189323   0.378   2.476   8.742
29142SOL    HW289324   0.313   2.555   8.854
29143SOL     OW89325   6.882  13.219  14.165
29143SOL    HW189326   6.871  13.304  14.207
29143SOL    HW289327   6.870  13.237  14.072
29144SOL     OW89328  10.567   6.315   3.442
29144SOL    HW189329  10.545   6.318   3.349
29144SOL    HW289330  10.509   6.379   3.483
29145SOL     OW89331   3.082   7.975  14.645
29145SOL    HW189332   2.987   7.965  14.641
29145SOL    HW289333   3.100   8.050  14.590
29146SOL     OW89334   3.060   9.706   5.029
29146SOL    HW189335   3.047   9.614   5.053
29146SOL    HW289336   2.984   9.728   4.975
29147SOL     OW89337   5.599   4.987   5.495
29147SOL    HW189338   5.609   4.999   5.401
29147SOL    HW289339   5.517   4.938   5.505
29148SOL     OW89340  12.736   8.050  10.400
29148SOL    HW189341  12.818   8.071  10.355
29148SOL    HW289342  12.742   8.096  10.484
29149SOL     OW89343   1.711  11.804   7.673
29149SOL    HW189344   1.707  11.887   7.720
29149SOL    HW289345   1.805  11.789   7.658
29150SOL     OW89346   9.201   0.259   7.115
29150SOL    HW189347   9.243   0.320   7.055
29150SOL    HW289348   9.111   0.290   7.122
29151SOL     OW89349  13.872  14.430  11.623
29151SOL    HW189350  13.934  14.502  11.636
29151SOL    HW289351  13.816  14.459  11.551
29152SOL     OW89352   9.906   2.262  14.337
29152SOL    HW189353  10.002   2.267  14.343
29152SOL    HW289354   9.876   2.349  14.363
29153SOL     OW89355  12.205  12.277   3.881
29153SOL    HW189356  12.241  12.344   3.940
29153SOL    HW289357  12.272  12.265   3.815
29154SOL     OW89358  11.732   8.507   5.483
29154SOL    HW189359  11.683   8.435   5.523
29154SOL    HW289360  11.824   8.480   5.489
29155SOL     OW89361   1.685   8.591   4.388
29155SOL    HW189362   1.764   8.580   4.334
29155SOL    HW289363   1.718   8.605   4.476
29156SOL     OW89364   1.271   0.812   5.688
29156SOL    HW189365   1.341   0.857   5.640
29156SOL    HW289366   1.192   0.830   5.638
29157SOL     OW89367  12.611  13.753  13.681
29157SOL    HW189368  12.638  13.709  13.601
29157SOL    HW289369  12.559  13.688  13.729
29158SOL     OW89370   0.493  12.315  13.630
29158SOL    HW189371   0.434  12.248  13.594
29158SOL    HW289372   0.435  12.387  13.654
29159SOL     OW89373   9.958   2.319   8.255
29159SOL    HW189374  10.010   2.386   8.211
29159SOL    HW289375   9.913   2.367   8.325
29160SOL     OW89376   6.806   2.157   6.406
29160SOL    HW189377   6.873   2.175   6.340
29160SOL    HW289378   6.822   2.223   6.474
29161SOL     OW89379   8.490   2.233  12.934
29161SOL    HW189380   8.472   2.139  12.934
29161SOL    HW289381   8.408   2.273  12.906
29162SOL     OW89382   3.951   3.150   0.241
29162SOL    HW189383   3.937   3.206   0.165
29162SOL    HW289384   3.877   3.169   0.299
29163SOL     OW89385   2.828   0.966   2.054
29163SOL    HW189386   2.768   0.972   2.129
29163SOL    HW289387   2.839   0.872   2.040
29164SOL     OW89388   1.993  13.622   7.614
29164SOL    HW189389   1.965  13.684   7.682
29164SOL    HW289390   2.047  13.558   7.661
29165SOL     OW89391   6.169   5.715  11.166
29165SOL    HW189392   6.153   5.806  11.191
29165SOL    HW289393   6.218   5.721  11.084
29166SOL     OW89394   5.236   3.504   4.655
29166SOL    HW189395   5.155   3.485   4.703
29166SOL    HW289396   5.297   3.436   4.681
29167SOL     OW89397   2.930   3.023  12.915
29167SOL    HW189398   2.960   3.086  12.850
29167SOL    HW289399   2.869   2.967  12.867
29168SOL     OW89400  12.696  10.725   7.245
29168SOL    HW189401  12.609  10.746   7.279
29168SOL    HW289402  12.733  10.810   7.220
29169SOL     OW89403   1.039   3.638  13.846
29169SOL    HW189404   0.991   3.564  13.883
29169SOL    HW289405   1.104   3.661  13.912
29170SOL     OW89406   0.496   9.067   1.055
29170SOL    HW189407   0.430   9.106   0.997
29170SOL    HW289408   0.500   9.126   1.130
29171SOL     OW89409  13.103  14.651   8.300
29171SOL    HW189410  13.037  14.684   8.361
29171SOL    HW289411  13.186  14.668   8.343
29172SOL     OW89412   6.012  13.054   8.950
29172SOL    HW189413   5.960  13.071   9.028
29172SOL    HW289414   5.957  12.997   8.896
29173SOL     OW89415  10.355   1.078  14.706
29173SOL    HW189416  10.291   1.070  14.776
29173SOL    HW289417  10.306   1.058  14.626
29174SOL     OW89418  10.275   5.582  11.122
29174SOL    HW189419  10.247   5.544  11.039
29174SOL    HW289420  10.244   5.672  11.119
29175SOL     OW89421  12.672   9.074   5.250
29175SOL    HW189422  12.749   9.054   5.196
29175SOL    HW289423  12.600   9.078   5.188
29176SOL     OW89424   5.728   9.365   6.258
29176SOL    HW189425   5.761   9.443   6.304
29176SOL    HW289426   5.636   9.359   6.286
29177SOL     OW89427   2.508  13.516   8.609
29177SOL    HW189428   2.602  13.528   8.593
29177SOL    HW289429   2.498  13.533   8.702
29178SOL     OW89430   3.119  10.155   4.472
29178SOL    HW189431   3.128  10.201   4.555
29178SOL    HW289432   3.075  10.073   4.495
29179SOL     OW89433   6.227  10.097   1.210
29179SOL    HW189434   6.202  10.044   1.134
29179SOL    HW289435   6.218  10.037   1.284
29180SOL     OW89436  13.741  10.194   4.653
29180SOL    HW189437  13.649  10.217   4.663
29180SOL    HW289438  13.758  10.134   4.726
29181SOL     OW89439  11.409   2.983   2.307
29181SOL    HW189440  11.428   3.007   2.217
29181SOL    HW289441  11.363   3.059   2.343
29182SOL     OW89442   8.095   8.734   6.452
29182SOL    HW189443   8.012   8.782   6.447
29182SOL    HW289444   8.069   8.642   6.452
29183SOL     OW89445   5.574   5.622  12.058
29183SOL    HW189446   5.570   5.714  12.085
29183SOL    HW289447   5.640   5.583  12.115
29184SOL     OW89448   8.798   3.657  14.828
29184SOL    HW189449   8.803   3.599  14.752
29184SOL    HW289450   8.835   3.740  14.797
29185SOL     OW89451   5.532   0.719  13.568
29185SOL    HW189452   5.478   0.643  13.592
29185SOL    HW289453   5.615   0.704  13.613
29186SOL     OW89454  11.418   4.453   9.818
29186SOL    HW189455  11.358   4.528   9.821
29186SOL    HW289456  11.502   4.488   9.847
29187SOL     OW89457   7.511   0.065   3.838
29187SOL    HW189458   7.587   0.030   3.884
29187SOL    HW289459   7.500   0.153   3.873
29188SOL     OW89460   4.508   1.147   1.565
29188SOL    HW189461   4.549   1.227   1.597
29188SOL    HW289462   4.450   1.177   1.494
29189SOL     OW89463  12.444   4.405  12.306
29189SOL    HW189464  12.400   4.421  12.222
29189SOL    HW289465  12.514   4.343  12.285
29190SOL     OW89466   3.459   3.530   1.877
29190SOL    HW189467   3.436   3.578   1.956
29190SOL    HW289468   3.375   3.516   1.833
29191SOL     OW89469   7.497   6.777  11.826
29191SOL    HW189470   7.528   6.854  11.873
29191SOL    HW289471   7.455   6.723  11.893
29192SOL     OW89472  11.560   0.341  14.635
29192SOL    HW189473  11.577   0.248  14.644
29192SOL    HW289474  11.482   0.346  14.579
29193SOL     OW89475  10.250   7.726   0.155
29193SOL    HW189476  10.272   7.668   0.082
29193SOL    HW289477  10.332   7.736   0.203
29194SOL     OW89478  13.729   9.493   3.936
29194SOL    HW189479  13.784   9.419   3.963
29194SOL    HW289480  13.781   9.570   3.958
29195SOL     OW89481   9.749   9.191   6.626
29195SOL    HW189482   9.674   9.243   6.599
29195SOL    HW289483   9.789   9.242   6.697
29196SOL     OW89484  14.703  10.259   9.894
29196SOL    HW189485  14.619  10.270   9.939
29196SOL    HW289486  14.694  10.309   9.813
29197SOL     OW89487   2.305  13.609   5.266
29197SOL    HW189488   2.238  13.595   5.333
29197SOL    HW289489   2.356  13.683   5.298
29198SOL     OW89490   7.151   1.999   4.799
29198SOL    HW189491   7.072   1.945   4.798
29198SOL    HW289492   7.223   1.936   4.803
29199SOL     OW89493   4.980   8.851  14.239
29199SOL    HW189494   5.026   8.810  14.312
29199SOL    HW289495   4.977   8.784  14.171
29200SOL     OW89496   9.470   8.542  10.996
29200SOL    HW189497   9.461   8.453  10.962
29200SOL    HW289498   9.380   8.576  10.999
29201SOL     OW89499  12.141  13.617   2.262
29201SOL    HW189500  12.130  13.678   2.335
29201SOL    HW289501  12.096  13.538   2.289
29202SOL     OW89502   4.483   3.559   7.591
29202SOL    HW189503   4.538   3.578   7.515
29202SOL    HW289504   4.397   3.595   7.568
29203SOL     OW89505   1.838   2.968   2.914
29203SOL    HW189506   1.874   3.017   2.840
29203SOL    HW289507   1.806   2.886   2.876
29204SOL     OW89508  14.120   8.422  13.799
29204SOL    HW189509  14.152   8.332  13.793
29204SOL    HW289510  14.095   8.433  13.891
29205SOL     OW89511   7.084   7.460   9.234
29205SOL    HW189512   7.112   7.478   9.323
29205SOL    HW289513   7.087   7.544   9.190
29206SOL     OW89514   9.831   6.464   6.159
29206SOL    HW189515   9.897   6.534   6.161
29206SOL    HW289516   9.786   6.477   6.076
29207SOL     OW89517   5.433   3.804  11.468
29207SOL    HW189518   5.470   3.856  11.397
29207SOL    HW289519   5.448   3.713  11.441
29208SOL     OW89520   5.467   8.967   9.239
29208SOL    HW189521   5.514   9.027   9.182
29208SOL    HW289522   5.533   8.936   9.301
29209SOL     OW89523  11.194   4.781  10.518
29209SOL    HW189524  11.225   4.871  10.519
29209SOL    HW289525  11.099   4.788  10.527
29210SOL     OW89526  10.372   7.944   7.196
29210SOL    HW189527  10.416   8.017   7.239
29210SOL    HW289528  10.279   7.957   7.218
29211SOL     OW89529  12.026   2.611   0.815
29211SOL    HW189530  12.005   2.701   0.793
29211SOL    HW289531  12.086   2.617   0.889
29212SOL     OW89532   8.053   7.526  13.804
29212SOL    HW189533   7.964   7.531  13.839
29212SOL    HW289534   8.082   7.437  13.823
29213SOL     OW89535   9.509  14.767   3.716
29213SOL    HW189536   9.602  14.778   3.695
29213SOL    HW289537   9.463  14.783   3.634
29214SOL     OW89538   1.443  10.380   6.166
29214SOL    HW189539   1.456  10.423   6.250
29214SOL    HW289540   1.496  10.432   6.104
29215SOL     OW89541  10.888  12.734   9.915
29215SOL    HW189542  10.962  12.761   9.971
29215SOL    HW289543  10.816  12.790   9.942
29216SOL     OW89544   0.617   5.740   0.789
29216SOL    HW189545   0.654   5.744   0.877
29216SOL    HW289546   0.539   5.686   0.798
29217SOL     OW89547   2.381   3.506   1.775
29217SOL    HW189548   2.345   3.485   1.689
29217SOL    HW289549   2.455   3.447   1.786
29218SOL     OW89550   8.741   0.820   1.548
29218SOL    HW189551   8.767   0.814   1.456
29218SOL    HW289552   8.792   0.753   1.593
29219SOL     OW89553  13.291   9.816  11.311
29219SOL    HW189554  13.229   9.751  11.344
29219SOL    HW289555  13.374   9.793  11.352
29220SOL     OW89556   6.214   2.824   6.175
29220SOL    HW189557   6.303   2.857   6.162
29220SOL    HW289558   6.224   2.729   6.181
29221SOL     OW89559  14.441   1.437   7.889
29221SOL    HW189560  14.508   1.505   7.900
29221SOL    HW289561  14.358   1.483   7.896
29222SOL     OW89562   9.164   7.929  10.193
29222SOL    HW189563   9.094   7.966  10.139
29222SOL    HW289564   9.208   7.866  10.136
29223SOL     OW89565   1.729   4.974   4.232
29223SOL    HW189566   1.785   5.051   4.228
29223SOL    HW289567   1.640   5.008   4.219
29224SOL     OW89568   4.890  12.161   0.263
29224SOL    HW189569   4.937  12.109   0.328
29224SOL    HW289570   4.804  12.177   0.302
29225SOL     OW89571  10.049  13.588  12.913
29225SOL    HW189572  10.005  13.508  12.885
29225SOL    HW289573   9.984  13.634  12.966
29226SOL     OW89574   2.993  14.846   6.094
29226SOL    HW189575   3.040  14.814   6.171
29226SOL    HW289576   3.023  14.789   6.023
29227SOL     OW89577   1.210  14.864   8.395
29227SOL    HW189578   1.164  14.786   8.424
29227SOL    HW289579   1.261   0.020   8.471
29228SOL     OW89580   4.054   3.712  11.582
29228SOL    HW189581   4.031   3.781  11.520
29228SOL    HW289582   4.125   3.748  11.634
29229SOL     OW89583   3.011   2.456   0.167
29229SOL    HW189584   3.051   2.492   0.087
29229SOL    HW289585   2.993   2.365   0.145
29230SOL     OW89586  13.361  11.703  11.154
29230SOL    HW189587  13.391  11.790  11.180
29230SOL    HW289588  13.353  11.707  11.059
29231SOL     OW89589   7.696   9.543   1.009
29231SOL    HW189590   7.681   9.504   0.923
29231SOL    HW289591   7.619   9.519   1.060
29232SOL     OW89592  13.894   1.553   2.322
29232SOL    HW189593  13.978   1.508   2.318
29232SOL    HW289594  13.908   1.633   2.271
29233SOL     OW89595  10.766   2.525  13.747
29233SOL    HW189596  10.688   2.543  13.694
29233SOL    HW289597  10.820   2.469  13.692
29234SOL     OW89598  12.630   5.308  13.474
29234SOL    HW189599  12.666   5.226  13.510
29234SOL    HW289600  12.559   5.331  13.534
29235SOL     OW89601   5.241   9.585  10.928
29235SOL    HW189602   5.155   9.619  10.906
29235SOL    HW289603   5.302   9.649  10.892
29236SOL     OW89604  12.817   7.410   3.529
29236SOL    HW189605  12.869   7.330   3.527
29236SOL    HW289606  12.872   7.473   3.576
29237SOL     OW89607  10.702   0.379   6.074
29237SOL    HW189608  10.636   0.385   6.005
29237SOL    HW289609  10.755   0.458   6.064
29238SOL     OW89610  10.330  13.579  12.087
29238SOL    HW189611  10.252  13.625  12.056
29238SOL    HW289612  10.403  13.638  12.069
29239SOL     OW89613  10.543   8.996  13.503
29239SOL    HW189614  10.513   9.013  13.413
29239SOL    HW289615  10.638   8.986  13.494
29240SOL     OW89616   8.175   1.015   5.139
29240SOL    HW189617   8.102   0.953   5.136
29240SOL    HW289618   8.133   1.101   5.137
29241SOL     OW89619   4.499   8.787  11.104
29241SOL    HW189620   4.409   8.821  11.102
29241SOL    HW289621   4.490   8.693  11.092
29242SOL     OW89622   4.938   2.160   8.817
29242SOL    HW189623   4.907   2.131   8.731
29242SOL    HW289624   5.029   2.131   8.821
29243SOL     OW89625   6.490  14.528   5.202
29243SOL    HW189626   6.581  14.558   5.204
29243SOL    HW289627   6.450  14.569   5.279
29244SOL     OW89628  10.010  11.525   5.783
29244SOL    HW189629   9.982  11.435   5.767
29244SOL    HW289630   9.960  11.577   5.721
29245SOL     OW89631  13.200   5.632   0.768
29245SOL    HW189632  13.251   5.660   0.692
29245SOL    HW289633  13.153   5.554   0.738
29246SOL     OW89634   3.393   6.134  14.215
29246SOL    HW189635   3.338   6.213  14.219
29246SOL    HW289636   3.463   6.150  14.278
29247SOL     OW89637  11.814   8.306   1.469
29247SOL    HW189638  11.768   8.288   1.551
29247SOL    HW289639  11.763   8.260   1.402
29248SOL     OW89640   7.293  14.669   7.015
29248SOL    HW189641   7.380  14.668   7.055
29248SOL    HW289642   7.289  14.755   6.972
29249SOL     OW89643  10.617   6.646   0.707
29249SOL    HW189644  10.701   6.602   0.723
29249SOL    HW289645  10.629   6.733   0.744
29250SOL     OW89646   0.886   2.173   9.698
29250SOL    HW189647   0.856   2.083   9.695
29250SOL    HW289648   0.841   2.217   9.626
29251SOL     OW89649   5.693  11.094   2.923
29251SOL    HW189650   5.719  11.027   2.986
29251SOL    HW289651   5.771  11.147   2.910
29252SOL     OW89652  14.130   3.857   6.423
29252SOL    HW189653  14.202   3.862   6.487
29252SOL    HW289654  14.069   3.794   6.461
29253SOL     OW89655   9.902   2.190   9.833
29253SOL    HW189656   9.967   2.126   9.862
29253SOL    HW289657   9.926   2.209   9.742
29254SOL     OW89658   9.312   7.323   3.337
29254SOL    HW189659   9.245   7.391   3.329
29254SOL    HW289660   9.278   7.250   3.285
29255SOL     OW89661   2.324   5.642   1.860
29255SOL    HW189662   2.366   5.563   1.825
29255SOL    HW289663   2.235   5.614   1.882
29256SOL     OW89664   1.042  11.714  11.013
29256SOL    HW189665   1.117  11.655  11.014
29256SOL    HW289666   1.063  11.779  10.946
29257SOL     OW89667  13.419   4.303   0.848
29257SOL    HW189668  13.397   4.267   0.934
29257SOL    HW289669  13.500   4.260   0.824
29258SOL     OW89670   9.724   9.020   7.273
29258SOL    HW189671   9.761   8.957   7.336
29258SOL    HW289672   9.640   8.981   7.247
29259SOL     OW89673  12.093   9.607   9.422
29259SOL    HW189674  12.136   9.562   9.349
29259SOL    HW289675  12.148   9.683   9.439
29260SOL     OW89676   3.367   5.632   6.023
29260SOL    HW189677   3.339   5.544   6.000
29260SOL    HW289678   3.454   5.640   5.984
29261SOL     OW89679   8.727   5.183  10.587
29261SOL    HW189680   8.733   5.273  10.556
29261SOL    HW289681   8.818   5.154  10.595
29262SOL     OW89682  11.664   9.037   9.369
29262SOL    HW189683  11.734   9.063   9.309
29262SOL    HW289684  11.622   9.120   9.394
29263SOL     OW89685  10.459   3.998   6.925
29263SOL    HW189686  10.395   3.929   6.912
29263SOL    HW289687  10.524   3.960   6.984
29264SOL     OW89688   5.610   2.687   0.537
29264SOL    HW189689   5.577   2.770   0.571
29264SOL    HW289690   5.688   2.669   0.590
29265SOL     OW89691   6.701   4.778   1.553
29265SOL    HW189692   6.764   4.712   1.580
29265SOL    HW289693   6.731   4.805   1.465
29266SOL     OW89694  14.056  14.014   1.894
29266SOL    HW189695  14.122  14.083   1.897
29266SOL    HW289696  14.052  13.982   1.984
29267SOL     OW89697  13.928   7.800   4.375
29267SOL    HW189698  14.012   7.814   4.330
29267SOL    HW289699  13.952   7.762   4.460
29268SOL     OW89700  13.152   4.555   9.931
29268SOL    HW189701  13.063   4.563   9.896
29268SOL    HW289702  13.175   4.644   9.958
29269SOL     OW89703   1.039  14.318  10.971
29269SOL    HW189704   1.079  14.360  11.048
29269SOL    HW289705   0.945  14.335  10.981
29270SOL     OW89706   9.820   6.103  10.460
29270SOL    HW189707   9.790   6.192  10.478
29270SOL    HW289708   9.883   6.113  10.389
29271SOL     OW89709  14.232  12.874   4.582
29271SOL    HW189710  14.150  12.915   4.553
29271SOL    HW289711  14.257  12.817   4.510
29272SOL     OW89712  13.793   3.094  13.092
29272SOL    HW189713  13.738   3.155  13.043
29272SOL    HW289714  13.762   3.101  13.182
29273SOL     OW89715   3.730   2.696  13.729
29273SOL    HW189716   3.651   2.657  13.767
29273SOL    HW289717   3.717   2.791  13.741
29274SOL     OW89718   8.447  13.229   6.524
29274SOL    HW189719   8.516  13.162   6.526
29274SOL    HW289720   8.391  13.204   6.451
29275SOL     OW89721  12.396   5.950   8.059
29275SOL    HW189722  12.415   6.016   8.127
29275SOL    HW289723  12.396   6.000   7.977
29276SOL     OW89724   0.543  12.123   7.126
29276SOL    HW189725   0.511  12.196   7.072
29276SOL    HW289726   0.628  12.152   7.157
29277SOL     OW89727  10.464   2.594  13.064
29277SOL    HW189728  10.431   2.539  13.136
29277SOL    HW289729  10.425   2.680  13.080
29278SOL     OW89730  10.989   5.114   4.807
29278SOL    HW189731  10.956   5.159   4.729
29278SOL    HW289732  10.956   5.024   4.799
29279SOL     OW89733   8.768   9.890   1.103
29279SOL    HW189734   8.721   9.873   1.185
29279SOL    HW289735   8.812   9.808   1.083
29280SOL     OW89736   9.327  14.550  14.864
29280SOL    HW189737   9.351  14.490  14.792
29280SOL    HW289738   9.305  14.632  14.820
29281SOL     OW89739  12.020   4.887   6.568
29281SOL    HW189740  11.941   4.833   6.577
29281SOL    HW289741  11.995   4.972   6.602
29282SOL     OW89742   8.745   4.565  10.822
29282SOL    HW189743   8.721   4.486  10.774
29282SOL    HW289744   8.662   4.597  10.857
29283SOL     OW89745  11.463  12.508  11.048
29283SOL    HW189746  11.453  12.413  11.055
29283SOL    HW289747  11.495  12.535  11.134
29284SOL     OW89748   7.012  12.327   8.160
29284SOL    HW189749   7.018  12.337   8.065
29284SOL    HW289750   7.024  12.416   8.194
29285SOL     OW89751   6.631   5.372  12.735
29285SOL    HW189752   6.592   5.440  12.681
29285SOL    HW289753   6.563   5.305  12.743
29286SOL     OW89754   4.602   7.138  12.406
29286SOL    HW189755   4.562   7.206  12.350
29286SOL    HW289756   4.586   7.168  12.495
29287SOL     OW89757  13.327   6.503   3.469
29287SOL    HW189758  13.415   6.506   3.508
29287SOL    HW289759  13.339   6.533   3.379
29288SOL     OW89760   8.695   6.401   6.586
29288SOL    HW189761   8.663   6.332   6.644
29288SOL    HW289762   8.618   6.425   6.534
29289SOL     OW89763   8.017  12.433  13.519
29289SOL    HW189764   7.953  12.372  13.554
29289SOL    HW289765   7.995  12.517  13.560
29290SOL     OW89766  13.072  12.045   5.130
29290SOL    HW189767  13.164  12.062   5.111
29290SOL    HW289768  13.072  11.997   5.212
29291SOL     OW89769   3.361   1.322   4.972
29291SOL    HW189770   3.439   1.297   5.023
29291SOL    HW289771   3.287   1.291   5.025
29292SOL     OW89772  13.678   0.993  10.836
29292SOL    HW189773  13.591   1.018  10.804
29292SOL    HW289774  13.676   1.015  10.929
29293SOL     OW89775   0.939  10.397   7.182
29293SOL    HW189776   0.898  10.367   7.264
29293SOL    HW289777   0.979  10.318   7.146
29294SOL     OW89778  11.183   1.333   0.313
29294SOL    HW189779  11.168   1.311   0.221
29294SOL    HW289780  11.191   1.428   0.313
29295SOL     OW89781   2.033  10.765   8.407
29295SOL    HW189782   2.032  10.729   8.318
29295SOL    HW289783   2.126  10.780   8.425
29296SOL     OW89784   4.710  10.559   4.598
29296SOL    HW189785   4.726  10.576   4.691
29296SOL    HW289786   4.671  10.640   4.565
29297SOL     OW89787  13.428   5.994  14.041
29297SOL    HW189788  13.374   6.068  14.068
29297SOL    HW289789  13.518   6.020  14.062
29298SOL     OW89790   0.932   5.656   2.861
29298SOL    HW189791   0.959   5.633   2.772
29298SOL    HW289792   0.857   5.600   2.879
29299SOL     OW89793   8.565   0.125   9.693
29299SOL    HW189794   8.591   0.215   9.713
29299SOL    HW289795   8.508   0.132   9.617
29300SOL     OW89796   3.907  14.084   8.094
29300SOL    HW189797   3.815  14.083   8.121
29300SOL    HW289798   3.933  14.176   8.103
29301SOL     OW89799   2.189   3.730   6.285
29301SOL    HW189800   2.185   3.823   6.307
29301SOL    HW289801   2.210   3.686   6.368
29302SOL     OW89802  12.648  10.654   6.832
29302SOL    HW189803  12.739  10.678   6.849
29302SOL    HW289804  12.597  10.720   6.880
29303SOL     OW89805  11.034   1.685   0.961
29303SOL    HW189806  11.064   1.651   0.877
29303SOL    HW289807  10.997   1.609   1.006
29304SOL     OW89808   1.161  13.411  14.360
29304SOL    HW189809   1.134  13.436  14.449
29304SOL    HW289810   1.209  13.329  14.372
29305SOL     OW89811  12.489  14.237  11.544
29305SOL    HW189812  12.535  14.211  11.623
29305SOL    HW289813  12.537  14.314  11.512
29306SOL     OW89814  14.114   7.317   2.078
29306SOL    HW189815  14.033   7.367   2.087
29306SOL    HW289816  14.138   7.292   2.167
29307SOL     OW89817   0.874   6.251  12.058
29307SOL    HW189818   0.781   6.263  12.036
29307SOL    HW289819   0.895   6.164  12.024
29308SOL     OW89820  10.213  14.510   9.877
29308SOL    HW189821  10.292  14.502   9.824
29308SOL    HW289822  10.141  14.504   9.814
29309SOL     OW89823   8.348  14.085   3.459
29309SOL    HW189824   8.288  14.160   3.466
29309SOL    HW289825   8.370  14.065   3.550
29310SOL     OW89826  12.608   1.304   6.381
29310SOL    HW189827  12.643   1.389   6.352
29310SOL    HW289828  12.536   1.286   6.320
29311SOL     OW89829   9.444   7.280   7.470
29311SOL    HW189830   9.433   7.349   7.534
29311SOL    HW289831   9.385   7.210   7.500
29312SOL     OW89832  13.461   1.370   5.275
29312SOL    HW189833  13.510   1.292   5.300
29312SOL    HW289834  13.527   1.440   5.272
29313SOL     OW89835   7.871   5.942  10.659
29313SOL    HW189836   7.918   5.972  10.737
29313SOL    HW289837   7.799   6.004  10.650
29314SOL     OW89838   0.847   5.886   1.910
29314SOL    HW189839   0.860   5.907   1.818
29314SOL    HW289840   0.935   5.885   1.947
29315SOL     OW89841   1.376   4.501   6.120
29315SOL    HW189842   1.461   4.530   6.086
29315SOL    HW289843   1.314   4.568   6.089
29316SOL     OW89844  13.506   6.668  11.943
29316SOL    HW189845  13.579   6.676  12.004
29316SOL    HW289846  13.460   6.589  11.971
29317SOL     OW89847  11.357   7.592   2.247
29317SOL    HW189848  11.446   7.628   2.242
29317SOL    HW289849  11.367   7.511   2.297
29318SOL     OW89850   0.386  13.075   5.064
29318SOL    HW189851   0.473  13.105   5.088
29318SOL    HW289852   0.348  13.147   5.013
29319SOL     OW89853   4.945   5.031  13.224
29319SOL    HW189854   4.923   5.075  13.306
29319SOL    HW289855   5.011   5.087  13.183
29320SOL     OW89856  10.825  11.474   8.060
29320SOL    HW189857  10.757  11.492   8.125
29320SOL    HW289858  10.856  11.561   8.033
29321SOL     OW89859   9.360   3.641   0.388
29321SOL    HW189860   9.327   3.592   0.463
29321SOL    HW289861   9.285   3.647   0.328
29322SOL     OW89862  12.028  13.565   3.912
29322SOL    HW189863  11.953  13.549   3.854
29322SOL    HW289864  12.006  13.518   3.993
29323SOL     OW89865  10.143   7.536   2.559
29323SOL    HW189866  10.093   7.616   2.569
29323SOL    HW289867  10.234   7.561   2.578
29324SOL     OW89868   2.108   6.220   8.308
29324SOL    HW189869   2.076   6.205   8.220
29324SOL    HW289870   2.093   6.137   8.354
29325SOL     OW89871   5.861   4.209  13.898
29325SOL    HW189872   5.941   4.211  13.846
29325SOL    HW289873   5.857   4.120  13.933
29326SOL     OW89874   1.720  14.797   9.609
29326SOL    HW189875   1.792  14.843   9.653
29326SOL    HW289876   1.747  14.792   9.518
29327SOL     OW89877  11.222  14.756  10.038
29327SOL    HW189878  11.127  14.752  10.023
29327SOL    HW289879  11.249  14.837   9.996
29328SOL     OW89880   1.696  14.683   8.065
29328SOL    HW189881   1.622  14.622   8.055
29328SOL    HW289882   1.677  14.731   8.145
29329SOL     OW89883  13.666  13.463  13.239
29329SOL    HW189884  13.724  13.390  13.261
29329SOL    HW289885  13.582  13.439  13.278
29330SOL     OW89886   8.658   0.798  14.115
29330SOL    HW189887   8.659   0.820  14.022
29330SOL    HW289888   8.738   0.838  14.150
29331SOL     OW89889   4.450   4.022   0.736
29331SOL    HW189890   4.415   4.060   0.816
29331SOL    HW289891   4.527   3.973   0.765
29332SOL     OW89892  10.834   0.699   1.414
29332SOL    HW189893  10.870   0.770   1.468
29332SOL    HW289894  10.752   0.735   1.380
29333SOL     OW89895   4.804  10.434  13.175
29333SOL    HW189896   4.753  10.512  13.199
29333SOL    HW289897   4.793  10.427  13.080
29334SOL     OW89898   1.983  10.829   4.658
29334SOL    HW189899   1.954  10.847   4.747
29334SOL    HW289900   2.077  10.812   4.667
29335SOL     OW89901   9.529  11.933   9.785
29335SOL    HW189902   9.448  11.976   9.757
29335SOL    HW289903   9.510  11.900   9.872
29336SOL     OW89904  14.704   0.763   5.815
29336SOL    HW189905  14.673   0.687   5.767
29336SOL    HW289906  14.782   0.792   5.767
29337SOL     OW89907   1.484   3.770  12.436
29337SOL    HW189908   1.559   3.805  12.483
29337SOL    HW289909   1.507   3.679  12.417
29338SOL     OW89910   0.824  14.485   3.296
29338SOL    HW189911   0.903  14.528   3.329
29338SOL    HW289912   0.850  14.448   3.212
29339SOL     OW89913   9.630   1.313  12.077
29339SOL    HW189914   9.669   1.278  12.157
29339SOL    HW289915   9.554   1.363  12.107
29340SOL     OW89916   6.321  14.846   5.801
29340SOL    HW189917   6.325  14.763   5.754
29340SOL    HW289918   6.409  14.861   5.833
29341SOL     OW89919   9.553   0.182   8.337
29341SOL    HW189920   9.476   0.155   8.286
29341SOL    HW289921   9.617   0.210   8.271
29342SOL     OW89922   6.216   0.661   0.659
29342SOL    HW189923   6.183   0.580   0.620
29342SOL    HW289924   6.170   0.731   0.612
29343SOL     OW89925   7.783  12.837   3.487
29343SOL    HW189926   7.865  12.825   3.439
29343SOL    HW289927   7.807  12.827   3.579
29344SOL     OW89928  12.197   6.185  10.061
29344SOL    HW189929  12.192   6.093  10.088
29344SOL    HW289930  12.282   6.215  10.091
29345SOL     OW89931  12.352   6.301   1.292
29345SOL    HW189932  12.297   6.377   1.313
29345SOL    HW289933  12.307   6.259   1.218
29346SOL     OW89934   9.640   2.596   7.853
29346SOL    HW189935   9.628   2.547   7.772
29346SOL    HW289936   9.732   2.623   7.851
29347SOL     OW89937   9.190   1.848   2.860
29347SOL    HW189938   9.135   1.922   2.885
29347SOL    HW289939   9.262   1.849   2.923
29348SOL     OW89940   0.641   7.777   5.599
29348SOL    HW189941   0.605   7.702   5.550
29348SOL    HW289942   0.657   7.844   5.533
29349SOL     OW89943   0.386  13.535   3.105
29349SOL    HW189944   0.438  13.540   3.186
29349SOL    HW289945   0.337  13.453   3.113
29350SOL     OW89946   3.401   2.172   8.742
29350SOL    HW189947   3.468   2.185   8.809
29350SOL    HW289948   3.413   2.244   8.681
29351SOL     OW89949   7.521  11.205  14.002
29351SOL    HW189950   7.432  11.205  14.036
29351SOL    HW289951   7.527  11.124  13.951
29352SOL     OW89952   7.628   6.453   4.227
29352SOL    HW189953   7.710   6.498   4.246
29352SOL    HW289954   7.615   6.394   4.301
29353SOL     OW89955  14.621   3.151   6.723
29353SOL    HW189956  14.574   3.088   6.778
29353SOL    HW289957  14.637   3.226   6.781
29354SOL     OW89958   3.304   8.210  10.467
29354SOL    HW189959   3.397   8.216  10.488
29354SOL    HW289960   3.265   8.286  10.509
29355SOL     OW89961   2.248   5.971  14.354
29355SOL    HW189962   2.179   5.938  14.410
29355SOL    HW289963   2.242   5.918  14.274
29356SOL     OW89964   9.556  13.657   7.724
29356SOL    HW189965   9.477  13.621   7.765
29356SOL    HW289966   9.582  13.729   7.781
29357SOL     OW89967  10.374   0.420   8.656
29357SOL    HW189968  10.337   0.389   8.574
29357SOL    HW289969  10.416   0.503   8.635
29358SOL     OW89970   5.034   3.110   9.216
29358SOL    HW189971   4.991   3.095   9.133
29358SOL    HW289972   5.093   3.184   9.200
29359SOL     OW89973   4.423  14.571  11.213
29359SOL    HW189974   4.438  14.521  11.293
29359SOL    HW289975   4.458  14.516  11.143
29360SOL     OW89976  11.976   3.150  10.806
29360SOL    HW189977  11.957   3.102  10.887
29360SOL    HW289978  12.038   3.218  10.832
29361SOL     OW89979   9.854  14.739   7.325
29361SOL    HW189980   9.842  14.776   7.413
29361SOL    HW289981   9.863  14.645   7.341
29362SOL     OW89982   4.153  11.203  11.865
29362SOL    HW189983   4.246  11.215  11.885
29362SOL    HW289984   4.138  11.258  11.788
29363SOL     OW89985   6.230   3.402  11.392
29363SOL    HW189986   6.242   3.437  11.480
29363SOL    HW289987   6.309   3.351  11.376
29364SOL     OW89988   9.696   2.029  13.097
29364SOL    HW189989   9.616   1.990  13.134
29364SOL    HW289990   9.740   2.069  13.172
29365SOL     OW89991   3.684   2.983  13.789
29365SOL    HW189992   3.676   2.991  13.884
29365SOL    HW289993   3.602   3.019  13.755
29366SOL     OW89994   0.897   7.605  10.170
29366SOL    HW189995   0.985   7.578  10.193
29366SOL    HW289996   0.841   7.570  10.239
29367SOL     OW89997  13.915  14.679   6.422
29367SOL    HW189998  13.873  14.745   6.477
29367SOL    HW289999  13.844  14.623   6.392
29368SOL     OW90000   8.295   6.191   1.591
29368SOL    HW190001   8.334   6.260   1.537
29368SOL    HW290002   8.209   6.226   1.616
29369SOL     OW90003  13.098   2.356   0.336
29369SOL    HW190004  13.021   2.326   0.287
29369SOL    HW290005  13.167   2.294   0.312
29370SOL     OW90006   7.216  10.792  12.448
29370SOL    HW190007   7.262  10.726  12.500
29370SOL    HW290008   7.255  10.786  12.361
29371SOL     OW90009   5.300   3.490   9.856
29371SOL    HW190010   5.215   3.453   9.834
29371SOL    HW290011   5.329   3.533   9.776
29372SOL     OW90012   7.800  14.116   3.825
29372SOL    HW190013   7.745  14.133   3.748
29372SOL    HW290014   7.851  14.196   3.835
29373SOL     OW90015  10.434  13.365   5.094
29373SOL    HW190016  10.497  13.293   5.089
29373SOL    HW290017  10.480  13.439   5.055
29374SOL     OW90018  10.305  10.896   0.348
29374SOL    HW190019  10.365  10.970   0.348
29374SOL    HW290020  10.230  10.926   0.297
29375SOL     OW90021   6.777   0.884   3.330
29375SOL    HW190022   6.777   0.979   3.335
29375SOL    HW290023   6.700   0.857   3.380
29376SOL     OW90024   0.961   0.155   9.075
29376SOL    HW190025   1.012   0.234   9.061
29376SOL    HW290026   0.998   0.116   9.154
29377SOL     OW90027   2.405   9.921  11.230
29377SOL    HW190028   2.402   9.835  11.272
29377SOL    HW290029   2.388   9.903  11.138
29378SOL     OW90030   6.432   0.352  13.780
29378SOL    HW190031   6.418   0.302  13.700
29378SOL    HW290032   6.360   0.416  13.781
29379SOL     OW90033   0.998   9.284   0.879
29379SOL    HW190034   0.936   9.229   0.928
29379SOL    HW290035   1.071   9.225   0.860
29380SOL     OW90036  10.681   9.266   8.412
29380SOL    HW190037  10.616   9.268   8.342
29380SOL    HW290038  10.635   9.228   8.487
29381SOL     OW90039  13.860  12.959   5.483
29381SOL    HW190040  13.790  12.926   5.427
29381SOL    HW290041  13.937  12.908   5.457
29382SOL     OW90042   7.941  13.163   6.409
29382SOL    HW190043   8.016  13.158   6.349
29382SOL    HW290044   7.873  13.110   6.367
29383SOL     OW90045  13.994   9.017   6.796
29383SOL    HW190046  13.954   9.093   6.840
29383SOL    HW290047  14.074   9.000   6.847
29384SOL     OW90048  12.176   3.940   6.550
29384SOL    HW190049  12.093   3.982   6.529
29384SOL    HW290050  12.158   3.889   6.629
29385SOL     OW90051   4.402   3.420  13.695
29385SOL    HW190052   4.480   3.476  13.689
29385SOL    HW290053   4.383   3.416  13.789
29386SOL     OW90054   6.770   4.738   7.131
29386SOL    HW190055   6.832   4.769   7.066
29386SOL    HW290056   6.697   4.701   7.080
29387SOL     OW90057   6.161   4.873   8.324
29387SOL    HW190058   6.251   4.841   8.332
29387SOL    HW290059   6.135   4.850   8.235
29388SOL     OW90060   5.243  14.703  11.068
29388SOL    HW190061   5.223  14.691  10.975
29388SOL    HW290062   5.180  14.647  11.113
29389SOL     OW90063   1.722  12.518   5.640
29389SOL    HW190064   1.792  12.454   5.644
29389SOL    HW290065   1.765  12.602   5.659
29390SOL     OW90066   3.400   6.160  14.764
29390SOL    HW190067   3.397   6.240  14.817
29390SOL    HW290068   3.440   6.094  14.821
29391SOL     OW90069   0.560   2.031   4.805
29391SOL    HW190070   0.571   2.068   4.892
29391SOL    HW290071   0.509   1.951   4.820
29392SOL     OW90072   4.454   7.099  11.550
29392SOL    HW190073   4.359   7.089  11.543
29392SOL    HW290074   4.475   7.172  11.492
29393SOL     OW90075   2.147   8.863   1.943
29393SOL    HW190076   2.208   8.913   1.998
29393SOL    HW290077   2.114   8.928   1.880
29394SOL     OW90078   9.667   4.182   8.879
29394SOL    HW190079   9.622   4.160   8.961
29394SOL    HW290080   9.755   4.147   8.891
29395SOL     OW90081   5.118   1.100  14.645
29395SOL    HW190082   5.169   1.160  14.591
29395SOL    HW290083   5.027   1.126  14.631
29396SOL     OW90084   4.854   1.624   8.485
29396SOL    HW190085   4.945   1.653   8.496
29396SOL    HW290086   4.801   1.696   8.519
29397SOL     OW90087   5.073  10.859   4.007
29397SOL    HW190088   5.047  10.777   3.966
29397SOL    HW290089   5.100  10.833   4.096
29398SOL     OW90090  13.230   1.772  11.687
29398SOL    HW190091  13.235   1.772  11.592
29398SOL    HW290092  13.318   1.797  11.716
29399SOL     OW90093  13.291   9.919   6.638
29399SOL    HW190094  13.330   9.836   6.613
29399SOL    HW290095  13.212   9.926   6.584
29400SOL     OW90096   9.808  14.629   7.798
29400SOL    HW190097   9.748  14.556   7.780
29400SOL    HW290098   9.893  14.599   7.766
29401SOL     OW90099  14.050   6.456  13.717
29401SOL    HW190100  14.109   6.404  13.772
29401SOL    HW290101  14.097   6.538  13.702
29402SOL     OW90102   9.602  10.666   7.562
29402SOL    HW190103   9.674  10.699   7.509
29402SOL    HW290104   9.539  10.738   7.564
29403SOL     OW90105   6.761   9.651   3.138
29403SOL    HW190106   6.696   9.607   3.194
29403SOL    HW290107   6.836   9.591   3.138
29404SOL     OW90108   1.623   8.593   1.503
29404SOL    HW190109   1.601   8.524   1.566
29404SOL    HW290110   1.540   8.611   1.458
29405SOL     OW90111  12.271  11.447   4.894
29405SOL    HW190112  12.310  11.476   4.812
29405SOL    HW290113  12.184  11.417   4.870
29406SOL     OW90114  12.941   9.862  11.491
29406SOL    HW190115  12.912   9.934  11.435
29406SOL    HW290116  13.019   9.896  11.535
29407SOL     OW90117   1.234  11.678   5.540
29407SOL    HW190118   1.191  11.718   5.615
29407SOL    HW290119   1.305  11.737   5.519
29408SOL     OW90120   4.496  13.196   6.905
29408SOL    HW190121   4.542  13.134   6.961
29408SOL    HW290122   4.531  13.282   6.930
29409SOL     OW90123   8.976  12.872  11.916
29409SOL    HW190124   9.031  12.913  11.849
29409SOL    HW290125   8.962  12.941  11.982
29410SOL     OW90126   7.048   5.402   6.969
29410SOL    HW190127   7.022   5.429   6.880
29410SOL    HW290128   6.993   5.454   7.027
29411SOL     OW90129  10.491   9.499  10.809
29411SOL    HW190130  10.539   9.537  10.882
29411SOL    HW290131  10.400   9.500  10.836
29412SOL     OW90132   0.348   9.339   1.799
29412SOL    HW190133   0.339   9.412   1.860
29412SOL    HW290134   0.428   9.295   1.827
29413SOL     OW90135   6.081   2.803  11.751
29413SOL    HW190136   6.048   2.714  11.739
29413SOL    HW290137   6.121   2.825  11.667
29414SOL     OW90138   6.173  11.758   0.450
29414SOL    HW190139   6.116  11.831   0.476
29414SOL    HW290140   6.167  11.696   0.523
29415SOL     OW90141   8.976   0.475   6.885
29415SOL    HW190142   9.063   0.494   6.849
29415SOL    HW290143   8.970   0.380   6.884
29416SOL     OW90144  12.676   5.095  14.360
29416SOL    HW190145  12.667   5.189  14.347
29416SOL    HW290146  12.770   5.078  14.352
29417SOL     OW90147   3.656  12.703  10.172
29417SOL    HW190148   3.741  12.722  10.212
29417SOL    HW290149   3.678  12.668  10.085
29418SOL     OW90150   3.198  12.913   0.162
29418SOL    HW190151   3.158  12.984   0.213
29418SOL    HW290152   3.256  12.958   0.100
29419SOL     OW90153   1.899   5.775   3.495
29419SOL    HW190154   1.981   5.791   3.448
29419SOL    HW290155   1.831   5.798   3.432
29420SOL     OW90156   2.141   2.899   5.350
29420SOL    HW190157   2.120   2.912   5.443
29420SOL    HW290158   2.231   2.932   5.341
29421SOL     OW90159   2.210   8.335   7.598
29421SOL    HW190160   2.203   8.260   7.538
29421SOL    HW290161   2.120   8.365   7.609
29422SOL     OW90162  10.930  13.337   3.642
29422SOL    HW190163  10.973  13.320   3.726
29422SOL    HW290164  10.895  13.426   3.650
29423SOL     OW90165   5.397  13.022   5.271
29423SOL    HW190166   5.448  13.023   5.191
29423SOL    HW290167   5.333  13.092   5.259
29424SOL     OW90168  10.006   1.754   3.959
29424SOL    HW190169  10.084   1.757   3.903
29424SOL    HW290170   9.940   1.708   3.906
29425SOL     OW90171   9.903   1.053   1.974
29425SOL    HW190172   9.947   0.990   2.031
29425SOL    HW290173   9.941   1.037   1.887
29426SOL     OW90174   3.169   7.707   7.266
29426SOL    HW190175   3.173   7.619   7.229
29426SOL    HW290176   3.196   7.764   7.195
29427SOL     OW90177   0.520  10.276   9.588
29427SOL    HW190178   0.468  10.266   9.508
29427SOL    HW290179   0.563  10.191   9.599
29428SOL     OW90180   5.989  11.462   7.566
29428SOL    HW190181   6.010  11.507   7.484
29428SOL    HW290182   6.039  11.508   7.633
29429SOL     OW90183   5.407   8.674  10.567
29429SOL    HW190184   5.449   8.591  10.545
29429SOL    HW290185   5.449   8.738  10.510
29430SOL     OW90186   1.566   6.203   3.146
29430SOL    HW190187   1.581   6.295   3.126
29430SOL    HW290188   1.491   6.203   3.206
29431SOL     OW90189   3.091  12.991  12.551
29431SOL    HW190190   3.135  12.916  12.591
29431SOL    HW290191   3.162  13.041  12.510
29432SOL     OW90192  11.809  14.224  10.457
29432SOL    HW190193  11.784  14.168  10.383
29432SOL    HW290194  11.726  14.260  10.489
29433SOL     OW90195   5.210   2.524  12.234
29433SOL    HW190196   5.199   2.478  12.317
29433SOL    HW290197   5.258   2.603  12.256
29434SOL     OW90198   6.636   1.828   7.195
29434SOL    HW190199   6.638   1.840   7.100
29434SOL    HW290200   6.663   1.737   7.209
29435SOL     OW90201   1.273  10.416   5.225
29435SOL    HW190202   1.227  10.350   5.277
29435SOL    HW290203   1.204  10.477   5.199
29436SOL     OW90204   1.415   4.555  13.985
29436SOL    HW190205   1.343   4.507  13.945
29436SOL    HW290206   1.492   4.500  13.968
29437SOL     OW90207   1.655  13.542   2.923
29437SOL    HW190208   1.583  13.513   2.867
29437SOL    HW290209   1.733  13.524   2.872
29438SOL     OW90210   5.714   1.665  11.761
29438SOL    HW190211   5.702   1.757  11.734
29438SOL    HW290212   5.757   1.670  11.846
29439SOL     OW90213  14.368  10.403   4.080
29439SOL    HW190214  14.365  10.318   4.038
29439SOL    HW290215  14.419  10.458   4.021
29440SOL     OW90216  12.571   6.468  10.519
29440SOL    HW190217  12.663   6.452  10.542
29440SOL    HW290218  12.545   6.390  10.470
29441SOL     OW90219   2.577  14.169   6.682
29441SOL    HW190220   2.609  14.082   6.703
29441SOL    HW290221   2.588  14.219   6.763
29442SOL     OW90222   4.044  11.074   8.549
29442SOL    HW190223   4.119  11.015   8.555
29442SOL    HW290224   4.074  11.155   8.589
29443SOL     OW90225   3.450  10.386   0.759
29443SOL    HW190226   3.453  10.433   0.842
29443SOL    HW290227   3.537  10.401   0.720
29444SOL     OW90228  12.023  13.258   7.668
29444SOL    HW190229  11.984  13.201   7.601
29444SOL    HW290230  12.110  13.220   7.685
29445SOL     OW90231  13.034  13.744   5.433
29445SOL    HW190232  13.093  13.728   5.359
29445SOL    HW290233  13.083  13.712   5.509
29446SOL     OW90234   8.943   8.541   8.143
29446SOL    HW190235   9.021   8.595   8.134
29446SOL    HW290236   8.960   8.466   8.085
29447SOL     OW90237   4.673   6.371   5.235
29447SOL    HW190238   4.714   6.381   5.320
29447SOL    HW290239   4.616   6.448   5.226
29448SOL     OW90240   2.398  12.712  11.556
29448SOL    HW190241   2.313  12.720  11.598
29448SOL    HW290242   2.379  12.709  11.462
29449SOL     OW90243  11.302   1.962  13.423
29449SOL    HW190244  11.331   2.009  13.344
29449SOL    HW290245  11.229   2.013  13.456
29450SOL     OW90246   3.811   7.764   8.949
29450SOL    HW190247   3.726   7.729   8.922
29450SOL    HW290248   3.822   7.844   8.898
29451SOL     OW90249  12.375  14.336   8.489
29451SOL    HW190250  12.323  14.409   8.454
29451SOL    HW290251  12.387  14.277   8.414
29452SOL     OW90252  12.555   6.381   9.665
29452SOL    HW190253  12.575   6.466   9.626
29452SOL    HW290254  12.606   6.318   9.615
29453SOL     OW90255   0.084   3.320   0.668
29453SOL    HW190256   0.003   3.330   0.718
29453SOL    HW290257   0.060   3.339   0.578
29454SOL     OW90258   5.786   2.971   3.448
29454SOL    HW190259   5.748   2.991   3.533
29454SOL    HW290260   5.797   2.876   3.448
29455SOL     OW90261  10.806   8.429   9.084
29455SOL    HW190262  10.853   8.360   9.130
29455SOL    HW290263  10.714   8.418   9.110
29456SOL     OW90264  12.981   1.762  11.364
29456SOL    HW190265  12.947   1.799  11.282
29456SOL    HW290266  12.905   1.718  11.403
29457SOL     OW90267   3.046  14.764  13.464
29457SOL    HW190268   3.101  14.704  13.514
29457SOL    HW290269   2.968  14.712  13.442
29458SOL     OW90270  14.803  12.613  10.678
29458SOL    HW190271  14.761  12.584  10.759
29458SOL    HW290272  14.751  12.688  10.649
29459SOL     OW90273  13.354   4.139   6.034
29459SOL    HW190274  13.421   4.088   5.987
29459SOL    HW290275  13.318   4.078   6.098
29460SOL     OW90276  14.107   4.862  14.194
29460SOL    HW190277  14.050   4.939  14.190
29460SOL    HW290278  14.169   4.881  14.264
29461SOL     OW90279   0.793  13.150  11.657
29461SOL    HW190280   0.719  13.089  11.655
29461SOL    HW290281   0.799  13.176  11.749
29462SOL     OW90282   7.555  14.516   0.285
29462SOL    HW190283   7.582  14.605   0.306
29462SOL    HW290284   7.545  14.473   0.370
29463SOL     OW90285   9.523   7.743   9.979
29463SOL    HW190286   9.610   7.779   9.998
29463SOL    HW290287   9.531   7.705   9.891
29464SOL     OW90288   8.355  12.137  10.447
29464SOL    HW190289   8.402  12.186  10.379
29464SOL    HW290290   8.275  12.188  10.462
29465SOL     OW90291  11.452   9.769  13.184
29465SOL    HW190292  11.398   9.827  13.238
29465SOL    HW290293  11.428   9.791  13.094
29466SOL     OW90294   5.678   7.373  13.618
29466SOL    HW190295   5.679   7.454  13.668
29466SOL    HW290296   5.759   7.375  13.566
29467SOL     OW90297   7.888  12.855   4.426
29467SOL    HW190298   7.835  12.918   4.378
29467SOL    HW290299   7.970  12.902   4.443
29468SOL     OW90300   4.666  14.631  10.337
29468SOL    HW190301   4.655  14.631  10.242
29468SOL    HW290302   4.597  14.574  10.369
29469SOL     OW90303  14.073  10.470  12.478
29469SOL    HW190304  14.110  10.542  12.530
29469SOL    HW290305  13.986  10.457  12.515
29470SOL     OW90306  12.212   2.217   0.055
29470SOL    HW190307  12.197   2.219  14.832
29470SOL    HW290308  12.126   2.237   0.093
29471SOL     OW90309   6.671   9.669   8.424
29471SOL    HW190310   6.663   9.734   8.494
29471SOL    HW290311   6.719   9.596   8.464
29472SOL     OW90312  14.075  13.115  13.533
29472SOL    HW190313  14.156  13.158  13.562
29472SOL    HW290314  14.053  13.055  13.604
29473SOL     OW90315   1.926  14.693   0.979
29473SOL    HW190316   1.854  14.633   0.961
29473SOL    HW290317   1.994  14.639   1.019
29474SOL     OW90318  13.712   1.242   5.415
29474SOL    HW190319  13.731   1.281   5.330
29474SOL    HW290320  13.793   1.249   5.465
29475SOL     OW90321   8.823   2.047  11.951
29475SOL    HW190322   8.890   2.033  11.883
29475SOL    HW290323   8.747   2.079  11.903
29476SOL     OW90324   7.980  14.138   5.962
29476SOL    HW190325   7.986  14.051   6.000
29476SOL    HW290326   8.053  14.187   5.999
29477SOL     OW90327   6.707   2.288   1.751
29477SOL    HW190328   6.714   2.382   1.733
29477SOL    HW290329   6.623   2.263   1.712
29478SOL     OW90330   6.747  12.722   0.135
29478SOL    HW190331   6.836  12.744   0.109
29478SOL    HW290332   6.692  12.770   0.073
29479SOL     OW90333  13.803  10.650   7.452
29479SOL    HW190334  13.878  10.603   7.416
29479SOL    HW290335  13.735  10.642   7.385
29480SOL     OW90336   8.461   5.183  10.646
29480SOL    HW190337   8.466   5.202  10.740
29480SOL    HW290338   8.552   5.189  10.616
29481SOL     OW90339  10.163   3.291   8.711
29481SOL    HW190340  10.127   3.340   8.786
29481SOL    HW290341  10.099   3.221   8.697
29482SOL     OW90342   4.249  11.800  11.752
29482SOL    HW190343   4.178  11.755  11.799
29482SOL    HW290344   4.219  11.804  11.661
29483SOL     OW90345   0.000   2.958  14.447
29483SOL    HW190346  14.821   2.889  14.489
29483SOL    HW290347  14.815   2.990  14.377
29484SOL     OW90348  13.934   7.481   9.516
29484SOL    HW190349  14.000   7.545   9.544
29484SOL    HW290350  13.961   7.455   9.428
29485SOL     OW90351   1.365   3.641   1.110
29485SOL    HW190352   1.430   3.689   1.058
29485SOL    HW290353   1.324   3.581   1.047
29486SOL     OW90354  10.809  10.373  13.989
29486SOL    HW190355  10.864  10.322  14.048
29486SOL    HW290356  10.816  10.463  14.021
29487SOL     OW90357   9.340   4.624   6.587
29487SOL    HW190358   9.260   4.583   6.620
29487SOL    HW290359   9.344   4.597   6.495
29488SOL     OW90360  14.621   4.164  10.883
29488SOL    HW190361  14.711   4.145  10.856
29488SOL    HW290362  14.615   4.260  10.882
29489SOL     OW90363  12.263  11.276   1.306
29489SOL    HW190364  12.335  11.324   1.266
29489SOL    HW290365  12.303  11.225   1.376
29490SOL     OW90366   8.582  14.480   9.163
29490SOL    HW190367   8.574  14.516   9.075
29490SOL    HW290368   8.653  14.416   9.157
29491SOL     OW90369  14.538   6.567  14.234
29491SOL    HW190370  14.531   6.573  14.329
29491SOL    HW290371  14.615   6.511  14.220
29492SOL     OW90372   8.380   8.905   0.825
29492SOL    HW190373   8.330   8.861   0.893
29492SOL    HW290374   8.458   8.939   0.870
29493SOL     OW90375  10.381   8.935  10.374
29493SOL    HW190376  10.460   8.882  10.380
29493SOL    HW290377  10.406   9.009  10.318
29494SOL     OW90378   9.637   2.482  11.918
29494SOL    HW190379   9.564   2.544  11.914
29494SOL    HW290380   9.599   2.397  11.896
29495SOL     OW90381   0.453   0.730   4.655
29495SOL    HW190382   0.529   0.677   4.631
29495SOL    HW290383   0.384   0.667   4.674
29496SOL     OW90384   3.669   7.789   6.687
29496SOL    HW190385   3.576   7.787   6.707
29496SOL    HW290386   3.674   7.811   6.594
29497SOL     OW90387   0.972   5.341   8.156
29497SOL    HW190388   1.054   5.384   8.180
29497SOL    HW290389   0.991   5.247   8.163
29498SOL     OW90390  11.059   3.673  14.438
29498SOL    HW190391  11.054   3.743  14.373
29498SOL    HW290392  10.996   3.607  14.407
29499SOL     OW90393  12.704   7.374   8.371
29499SOL    HW190394  12.701   7.469   8.379
29499SOL    HW290395  12.735   7.358   8.282
29500SOL     OW90396   6.216   9.234   1.907
29500SOL    HW190397   6.252   9.147   1.892
29500SOL    HW290398   6.150   9.222   1.975
29501SOL     OW90399   6.553   3.899   3.813
29501SOL    HW190400   6.607   3.901   3.892
29501SOL    HW290401   6.463   3.895   3.846
29502SOL     OW90402  13.034   8.425  12.143
29502SOL    HW190403  13.123   8.452  12.168
29502SOL    HW290404  13.010   8.486  12.072
29503SOL     OW90405   1.354   9.873   8.639
29503SOL    HW190406   1.266   9.887   8.674
29503SOL    HW290407   1.361   9.934   8.567
29504SOL     OW90408   9.159   6.823   8.069
29504SOL    HW190409   9.208   6.766   8.128
29504SOL    HW290410   9.138   6.900   8.122
29505SOL     OW90411   5.179  14.412   9.397
29505SOL    HW190412   5.097  14.364   9.405
29505SOL    HW290413   5.246  14.344   9.385
29506SOL     OW90414  12.360   6.150   7.867
29506SOL    HW190415  12.429   6.135   7.802
29506SOL    HW290416  12.388   6.226   7.916
29507SOL     OW90417  13.714   2.223  14.371
29507SOL    HW190418  13.784   2.182  14.320
29507SOL    HW290419  13.757   2.249  14.453
29508SOL     OW90420   3.095   0.206   7.619
29508SOL    HW190421   3.109   0.277   7.556
29508SOL    HW290422   3.180   0.192   7.660
29509SOL     OW90423   4.425   7.208   7.256
29509SOL    HW190424   4.354   7.238   7.313
29509SOL    HW290425   4.504   7.220   7.309
29510SOL     OW90426  13.713  13.697   9.419
29510SOL    HW190427  13.617  13.701   9.419
29510SOL    HW290428  13.740  13.778   9.462
29511SOL     OW90429   2.009   6.805   2.435
29511SOL    HW190430   1.932   6.804   2.378
29511SOL    HW290431   1.991   6.737   2.500
29512SOL     OW90432   1.135  12.789   7.689
29512SOL    HW190433   1.201  12.821   7.750
29512SOL    HW290434   1.136  12.851   7.617
29513SOL     OW90435   7.529   0.306  12.566
29513SOL    HW190436   7.559   0.309  12.657
29513SOL    HW290437   7.572   0.381  12.524
29514SOL     OW90438  11.372  13.643   8.103
29514SOL    HW190439  11.371  13.598   8.018
29514SOL    HW290440  11.366  13.736   8.081
29515SOL     OW90441  13.372   5.524  13.327
29515SOL    HW190442  13.297   5.486  13.373
29515SOL    HW290443  13.442   5.525  13.391
29516SOL     OW90444  12.851  13.712  12.466
29516SOL    HW190445  12.824  13.637  12.413
29516SOL    HW290446  12.873  13.674  12.551
29517SOL     OW90447  14.647   3.917  10.126
29517SOL    HW190448  14.613   3.872  10.048
29517SOL    HW290449  14.571   3.928  10.182
29518SOL     OW90450   3.132  11.603   9.694
29518SOL    HW190451   3.197  11.673   9.687
29518SOL    HW290452   3.084  11.606   9.612
29519SOL     OW90453   6.749   2.450  10.160
29519SOL    HW190454   6.742   2.421  10.069
29519SOL    HW290455   6.709   2.537  10.160
29520SOL     OW90456   4.677  10.696   5.406
29520SOL    HW190457   4.630  10.623   5.446
29520SOL    HW290458   4.664  10.769   5.466
29521SOL     OW90459  11.091   5.590   9.329
29521SOL    HW190460  11.159   5.614   9.266
29521SOL    HW290461  11.009   5.604   9.283
29522SOL     OW90462   8.112   0.169   9.342
29522SOL    HW190463   8.033   0.149   9.291
29522SOL    HW290464   8.145   0.251   9.304
29523SOL     OW90465   9.545   0.556   6.377
29523SOL    HW190466   9.522   0.637   6.423
29523SOL    HW290467   9.461   0.520   6.347
29524SOL     OW90468  12.312   6.761   4.743
29524SOL    HW190469  12.235   6.718   4.781
29524SOL    HW290470  12.288   6.854   4.739
29525SOL     OW90471   5.109   5.390   3.408
29525SOL    HW190472   5.097   5.362   3.317
29525SOL    HW290473   5.021   5.388   3.445
29526SOL     OW90474  10.857   7.604   0.685
29526SOL    HW190475  10.917   7.568   0.750
29526SOL    HW290476  10.796   7.657   0.735
29527SOL     OW90477   0.112  12.197   4.523
29527SOL    HW190478   0.206  12.177   4.522
29527SOL    HW290479   0.107  12.288   4.495
29528SOL     OW90480  11.691   1.315   5.461
29528SOL    HW190481  11.610   1.298   5.411
29528SOL    HW290482  11.688   1.409   5.479
29529SOL     OW90483   3.446  11.768   7.886
29529SOL    HW190484   3.496  11.807   7.958
29529SOL    HW290485   3.506  11.707   7.844
29530SOL     OW90486  13.148   6.598   8.901
29530SOL    HW190487  13.194   6.659   8.959
29530SOL    HW290488  13.170   6.626   8.813
29531SOL     OW90489  13.441   5.777   1.407
29531SOL    HW190490  13.472   5.764   1.497
29531SOL    HW290491  13.465   5.696   1.362
29532SOL     OW90492  13.486  13.300  10.132
29532SOL    HW190493  13.557  13.297  10.068
29532SOL    HW290494  13.490  13.389  10.168
29533SOL     OW90495   5.605   6.436   1.775
29533SOL    HW190496   5.654   6.483   1.707
29533SOL    HW290497   5.541   6.384   1.726
29534SOL     OW90498   5.502   6.094   8.507
29534SOL    HW190499   5.483   6.141   8.588
29534SOL    HW290500   5.554   6.156   8.455
29535SOL     OW90501  13.589   4.584  10.023
29535SOL    HW190502  13.670   4.533  10.024
29535SOL    HW290503  13.618   4.674  10.010
29536SOL     OW90504  14.045  12.465   8.707
29536SOL    HW190505  14.133  12.494   8.683
29536SOL    HW290506  14.022  12.519   8.782
29537SOL     OW90507   2.295   5.218   3.689
29537SOL    HW190508   2.350   5.282   3.734
29537SOL    HW290509   2.357   5.153   3.655
29538SOL     OW90510  12.282  11.922   1.225
29538SOL    HW190511  12.256  11.851   1.166
29538SOL    HW290512  12.266  12.002   1.174
29539SOL     OW90513   9.732   1.150  10.425
29539SOL    HW190514   9.742   1.191  10.339
29539SOL    HW290515   9.641   1.165  10.449
29540SOL     OW90516   6.555   6.408   2.601
29540SOL    HW190517   6.571   6.403   2.507
29540SOL    HW290518   6.459   6.408   2.609
29541SOL     OW90519  12.118   1.749   1.737
29541SOL    HW190520  12.068   1.828   1.718
29541SOL    HW290521  12.074   1.680   1.687
29542SOL     OW90522   6.445   8.456   1.720
29542SOL    HW190523   6.351   8.460   1.701
29542SOL    HW290524   6.487   8.449   1.634
29543SOL     OW90525  13.630   3.081  11.906
29543SOL    HW190526  13.548   3.032  11.918
29543SOL    HW290527  13.630   3.146  11.976
29544SOL     OW90528  13.902  14.127  13.029
29544SOL    HW190529  13.891  14.180  13.108
29544SOL    HW290530  13.817  14.085  13.016
29545SOL     OW90531   6.396   0.517  14.732
29545SOL    HW190532   6.473   0.461  14.732
29545SOL    HW290533   6.419   0.588  14.792
29546SOL     OW90534  14.016  13.034   9.811
29546SOL    HW190535  14.078  13.019   9.740
29546SOL    HW290536  13.940  13.073   9.768
29547SOL     OW90537  10.997   5.942   2.474
29547SOL    HW190538  11.083   5.940   2.433
29547SOL    HW290539  11.014   5.961   2.566
29548SOL     OW90540   3.426   2.973  10.591
29548SOL    HW190541   3.478   2.913  10.645
29548SOL    HW290542   3.339   2.934  10.589
29549SOL     OW90543   9.828  10.262  10.203
29549SOL    HW190544   9.827  10.321  10.278
29549SOL    HW290545   9.764  10.299  10.142
29550SOL     OW90546   4.627   9.122   5.747
29550SOL    HW190547   4.644   9.080   5.663
29550SOL    HW290548   4.534   9.143   5.746
29551SOL     OW90549   2.779   7.156   8.778
29551SOL    HW190550   2.798   7.153   8.871
29551SOL    HW290551   2.784   7.249   8.755
29552SOL     OW90552   1.012   9.924  11.668
29552SOL    HW190553   0.953   9.926  11.593
29552SOL    HW290554   0.958   9.888  11.739
29553SOL     OW90555   6.172   4.069   2.676
29553SOL    HW190556   6.089   4.024   2.659
29553SOL    HW290557   6.233   3.998   2.697
29554SOL     OW90558   7.158   6.908   5.975
29554SOL    HW190559   7.166   6.871   5.887
29554SOL    HW290560   7.063   6.919   5.988
29555SOL     OW90561   2.375  10.441  12.573
29555SOL    HW190562   2.437  10.412  12.506
29555SOL    HW290563   2.336  10.521  12.538
29556SOL     OW90564  11.787   3.147  10.339
29556SOL    HW190565  11.709   3.196  10.316
29556SOL    HW290566  11.837   3.140  10.258
29557SOL     OW90567  14.651   7.759   3.910
29557SOL    HW190568  14.703   7.821   3.860
29557SOL    HW290569  14.561   7.773   3.880
29558SOL     OW90570  10.116   3.785  12.600
29558SOL    HW190571  10.051   3.822  12.659
29558SOL    HW290572  10.067   3.761  12.521
29559SOL     OW90573   3.776   0.327   8.855
29559SOL    HW190574   3.836   0.252   8.848
29559SOL    HW290575   3.735   0.317   8.941
29560SOL     OW90576   1.401   5.834   1.175
29560SOL    HW190577   1.343   5.828   1.099
29560SOL    HW290578   1.430   5.744   1.192
29561SOL     OW90579   3.112  13.775   0.305
29561SOL    HW190580   3.170  13.851   0.303
29561SOL    HW290581   3.129  13.734   0.390
29562SOL     OW90582   7.943  10.103   2.091
29562SOL    HW190583   7.976  10.121   2.003
29562SOL    HW290584   7.873  10.039   2.077
29563SOL     OW90585   5.266  11.058   6.908
29563SOL    HW190586   5.194  10.996   6.922
29563SOL    HW290587   5.345  11.004   6.908
29564SOL     OW90588  10.659   6.688  14.864
29564SOL    HW190589  10.713   6.735  14.801
29564SOL    HW290590  10.718   6.666   0.064
29565SOL     OW90591   3.323   0.366   1.284
29565SOL    HW190592   3.359   0.294   1.232
29565SOL    HW290593   3.248   0.327   1.329
29566SOL     OW90594   1.867   4.838  10.461
29566SOL    HW190595   1.956   4.818  10.434
29566SOL    HW290596   1.877   4.890  10.541
29567SOL     OW90597  10.160  14.570   8.917
29567SOL    HW190598  10.168  14.651   8.867
29567SOL    HW290599  10.085  14.584   8.975
29568SOL     OW90600   4.722  11.669   6.358
29568SOL    HW190601   4.676  11.716   6.427
29568SOL    HW290602   4.814  11.695   6.369
29569SOL     OW90603  11.870  14.764   1.984
29569SOL    HW190604  11.800  14.721   1.936
29569SOL    HW290605  11.948  14.714   1.963
29570SOL     OW90606  10.962   7.104   3.358
29570SOL    HW190607  11.042   7.083   3.310
29570SOL    HW290608  10.918   7.020   3.371
29571SOL     OW90609  12.284   2.951   7.948
29571SOL    HW190610  12.331   2.917   7.871
29571SOL    HW290611  12.278   2.876   8.007
29572SOL     OW90612  13.412   9.704   7.556
29572SOL    HW190613  13.377   9.761   7.488
29572SOL    HW290614  13.365   9.622   7.544
29573SOL     OW90615   3.891   3.678   8.095
29573SOL    HW190616   3.922   3.600   8.140
29573SOL    HW290617   3.958   3.744   8.112
29574SOL     OW90618   0.216  11.054   5.805
29574SOL    HW190619   0.269  10.978   5.830
29574SOL    HW290620   0.156  11.067   5.879
29575SOL     OW90621   0.307   8.691   4.651
29575SOL    HW190622   0.382   8.735   4.690
29575SOL    HW290623   0.312   8.712   4.558
29576SOL     OW90624   2.387   6.102   1.622
29576SOL    HW190625   2.480   6.098   1.642
29576SOL    HW290626   2.347   6.136   1.702
29577SOL     OW90627   1.057  12.059   4.183
29577SOL    HW190628   1.072  12.086   4.274
29577SOL    HW290629   1.090  11.969   4.178
29578SOL     OW90630  10.194   7.872   7.476
29578SOL    HW190631  10.235   7.801   7.427
29578SOL    HW290632  10.267   7.915   7.521
29579SOL     OW90633   0.991  12.260   3.134
29579SOL    HW190634   1.038  12.305   3.063
29579SOL    HW290635   1.052  12.193   3.164
29580SOL     OW90636  11.837   4.778  14.340
29580SOL    HW190637  11.895   4.741  14.407
29580SOL    HW290638  11.892   4.784  14.262
29581SOL     OW90639   1.703   5.985   4.689
29581SOL    HW190640   1.618   6.027   4.704
29581SOL    HW290641   1.760   6.056   4.661
29582SOL     OW90642   2.491   8.597   3.871
29582SOL    HW190643   2.509   8.624   3.781
29582SOL    HW290644   2.461   8.677   3.914
29583SOL     OW90645  13.143   3.219   2.865
29583SOL    HW190646  13.069   3.269   2.830
29583SOL    HW290647  13.120   3.205   2.956
29584SOL     OW90648   4.114   0.353   0.894
29584SOL    HW190649   4.088   0.265   0.921
29584SOL    HW290650   4.198   0.341   0.850
29585SOL     OW90651   8.845  11.033   9.378
29585SOL    HW190652   8.751  11.022   9.363
29585SOL    HW290653   8.869  11.109   9.324
29586SOL     OW90654   5.083   7.758  11.991
29586SOL    HW190655   5.044   7.672  12.003
29586SOL    HW290656   5.017   7.808  11.943
29587SOL     OW90657   4.188  10.258   3.971
29587SOL    HW190658   4.213  10.194   4.038
29587SOL    HW290659   4.143  10.327   4.020
29588SOL     OW90660   8.875  10.886   0.485
29588SOL    HW190661   8.863  10.908   0.578
29588SOL    HW290662   8.790  10.900   0.445
29589SOL     OW90663   4.479   1.678   6.585
29589SOL    HW190664   4.463   1.749   6.647
29589SOL    HW290665   4.468   1.719   6.499
29590SOL     OW90666  11.657   0.022   9.969
29590SOL    HW190667  11.603   0.069  10.033
29590SOL    HW290668  11.736  14.870  10.017
29591SOL     OW90669   9.338   3.425  12.474
29591SOL    HW190670   9.396   3.501  12.481
29591SOL    HW290671   9.262   3.457  12.426
29592SOL     OW90672  14.290   5.907   6.847
29592SOL    HW190673  14.201   5.900   6.881
29592SOL    HW290674  14.301   5.831   6.790
29593SOL     OW90675   3.483  13.149   2.944
29593SOL    HW190676   3.534  13.168   3.023
29593SOL    HW290677   3.539  13.090   2.893
29594SOL     OW90678  12.587  10.496   6.268
29594SOL    HW190679  12.566  10.432   6.200
29594SOL    HW290680  12.576  10.447   6.350
29595SOL     OW90681   6.249   5.334   0.575
29595SOL    HW190682   6.264   5.241   0.589
29595SOL    HW290683   6.219   5.340   0.485
29596SOL     OW90684   0.320   6.829   8.727
29596SOL    HW190685   0.275   6.885   8.790
29596SOL    HW290686   0.349   6.889   8.658
29597SOL     OW90687   4.458   5.337   4.247
29597SOL    HW190688   4.399   5.323   4.173
29597SOL    HW290689   4.513   5.259   4.250
29598SOL     OW90690   0.686   8.583   7.943
29598SOL    HW190691   0.701   8.496   7.906
29598SOL    HW290692   0.659   8.566   8.033
29599SOL     OW90693  14.840   3.693  13.726
29599SOL    HW190694  14.828   3.770  13.671
29599SOL    HW290695  14.861   3.622  13.665
29600SOL     OW90696   5.314  14.174   5.107
29600SOL    HW190697   5.248  14.211   5.048
29600SOL    HW290698   5.313  14.232   5.183
29601SOL     OW90699  11.107   6.266   5.811
29601SOL    HW190700  11.164   6.192   5.791
29601SOL    HW290701  11.039   6.263   5.743
29602SOL     OW90702   4.086  12.621  10.883
29602SOL    HW190703   4.171  12.581  10.898
29602SOL    HW290704   4.101  12.685  10.813
29603SOL     OW90705   5.551  11.231   9.438
29603SOL    HW190706   5.504  11.170   9.496
29603SOL    HW290707   5.515  11.214   9.351
29604SOL     OW90708   3.440  10.763   1.092
29604SOL    HW190709   3.505  10.834   1.091
29604SOL    HW290710   3.492  10.684   1.111
29605SOL     OW90711   3.318   8.974  12.195
29605SOL    HW190712   3.390   8.937  12.245
29605SOL    HW290713   3.241   8.961  12.250
29606SOL     OW90714   8.354   8.997   3.295
29606SOL    HW190715   8.439   9.042   3.299
29606SOL    HW290716   8.334   8.977   3.386
29607SOL     OW90717   3.555  10.900   5.552
29607SOL    HW190718   3.520  10.826   5.504
29607SOL    HW290719   3.561  10.970   5.487
29608SOL     OW90720  12.069   8.844   5.388
29608SOL    HW190721  12.133   8.812   5.325
29608SOL    HW290722  11.986   8.845   5.340
29609SOL     OW90723   1.269   7.977  12.981
29609SOL    HW190724   1.198   8.029  12.943
29609SOL    HW290725   1.343   7.988  12.922
29610SOL     OW90726  12.104   9.111  12.284
29610SOL    HW190727  12.028   9.142  12.335
29610SOL    HW290728  12.180   9.134  12.338
29611SOL     OW90729   9.585   4.303   5.239
29611SOL    HW190730   9.607   4.339   5.325
29611SOL    HW290731   9.603   4.375   5.178
29612SOL     OW90732   8.645   7.475   4.590
29612SOL    HW190733   8.715   7.505   4.647
29612SOL    HW290734   8.633   7.383   4.614
29613SOL     OW90735   7.122  13.165   4.036
29613SOL    HW190736   7.198  13.221   4.047
29613SOL    HW290737   7.137  13.091   4.095
29614SOL     OW90738  11.466   3.217  14.636
29614SOL    HW190739  11.371   3.229  14.624
29614SOL    HW290740  11.490   3.281  14.703
29615SOL     OW90741  11.719   9.644   1.724
29615SOL    HW190742  11.663   9.647   1.801
29615SOL    HW290743  11.658   9.645   1.650
29616SOL     OW90744   0.154  14.328   3.240
29616SOL    HW190745   0.212  14.284   3.178
29616SOL    HW290746   0.083  14.363   3.187
29617SOL     OW90747   2.965   7.460  10.484
29617SOL    HW190748   3.033   7.443  10.419
29617SOL    HW290749   2.893   7.403  10.459
29618SOL     OW90750  13.167  14.762  12.369
29618SOL    HW190751  13.165  14.710  12.290
29618SOL    HW290752  13.250  14.740  12.411
29619SOL     OW90753   8.257  13.044   2.368
29619SOL    HW190754   8.335  13.003   2.332
29619SOL    HW290755   8.206  12.971   2.404
29620SOL     OW90756  11.018  14.592   6.420
29620SOL    HW190757  11.093  14.563   6.367
29620SOL    HW290758  10.943  14.543   6.385
29621SOL     OW90759   1.951   4.450   8.327
29621SOL    HW190760   2.017   4.515   8.350
29621SOL    HW290761   1.919   4.479   8.242
29622SOL     OW90762   6.633   3.922   9.135
29622SOL    HW190763   6.625   3.990   9.202
29622SOL    HW290764   6.711   3.947   9.085
29623SOL     OW90765   5.556   1.432   5.319
29623SOL    HW190766   5.571   1.398   5.407
29623SOL    HW290767   5.498   1.368   5.278
29624SOL     OW90768   1.747   1.683   1.044
29624SOL    HW190769   1.685   1.753   1.025
29624SOL    HW290770   1.787   1.661   0.960
29625SOL     OW90771  10.062   0.474   3.633
29625SOL    HW190772  10.062   0.495   3.539
29625SOL    HW290773   9.970   0.474   3.658
29626SOL     OW90774   7.805   9.173   0.990
29626SOL    HW190775   7.802   9.131   0.903
29626SOL    HW290776   7.881   9.232   0.985
29627SOL     OW90777   2.115  12.866   8.106
29627SOL    HW190778   2.093  12.789   8.054
29627SOL    HW290779   2.086  12.940   8.053
29628SOL     OW90780   4.685   6.116   9.376
29628SOL    HW190781   4.636   6.079   9.450
29628SOL    HW290782   4.662   6.060   9.302
29629SOL     OW90783   8.701  12.485  12.628
29629SOL    HW190784   8.624  12.541  12.615
29629SOL    HW290785   8.682  12.407  12.576
29630SOL     OW90786   6.928   0.098  13.873
29630SOL    HW190787   6.846   0.057  13.846
29630SOL    HW290788   6.903   0.159  13.943
29631SOL     OW90789   8.363   1.849  11.794
29631SOL    HW190790   8.430   1.918  11.788
29631SOL    HW290791   8.363   1.824  11.886
29632SOL     OW90792   1.882  11.312  11.206
29632SOL    HW190793   1.942  11.241  11.227
29632SOL    HW290794   1.803  11.268  11.174
29633SOL     OW90795   6.470   9.571   2.832
29633SOL    HW190796   6.491   9.490   2.785
29633SOL    HW290797   6.438   9.631   2.765
29634SOL     OW90798   0.279   4.956   4.154
29634SOL    HW190799   0.210   5.000   4.204
29634SOL    HW290800   0.234   4.924   4.076
29635SOL     OW90801   6.711   3.152   1.409
29635SOL    HW190802   6.794   3.187   1.376
29635SOL    HW290803   6.673   3.106   1.334
29636SOL     OW90804   4.513   4.454   7.994
29636SOL    HW190805   4.519   4.363   8.023
29636SOL    HW290806   4.462   4.498   8.062
29637SOL     OW90807   8.153   9.863  12.875
29637SOL    HW190808   8.120   9.878  12.963
29637SOL    HW290809   8.088   9.808  12.833
29638SOL     OW90810   6.927  12.060   7.297
29638SOL    HW190811   6.884  11.984   7.336
29638SOL    HW290812   7.015  12.031   7.277
29639SOL     OW90813   7.783   6.650   8.956
29639SOL    HW190814   7.697   6.683   8.979
29639SOL    HW290815   7.802   6.688   8.870
29640SOL     OW90816   6.098   9.663   3.048
29640SOL    HW190817   6.122   9.656   2.955
29640SOL    HW290818   6.180   9.682   3.093
29641SOL     OW90819   1.930   7.706   2.063
29641SOL    HW190820   1.883   7.625   2.048
29641SOL    HW290821   1.905   7.733   2.152
29642SOL     OW90822  11.487   3.324  13.862
29642SOL    HW190823  11.403   3.350  13.823
29642SOL    HW290824  11.465   3.294  13.950
29643SOL     OW90825   0.457   9.915   7.266
29643SOL    HW190826   0.550   9.903   7.283
29643SOL    HW290827   0.453   9.944   7.175
29644SOL     OW90828   1.274   2.626   9.218
29644SOL    HW190829   1.312   2.540   9.202
29644SOL    HW290830   1.279   2.671   9.133
29645SOL     OW90831   7.094   4.994   2.735
29645SOL    HW190832   7.125   4.918   2.784
29645SOL    HW290833   7.151   5.066   2.764
29646SOL     OW90834   0.474  13.544   6.596
29646SOL    HW190835   0.429  13.485   6.535
29646SOL    HW290836   0.451  13.631   6.566
29647SOL     OW90837  12.809   4.925   7.781
29647SOL    HW190838  12.805   4.870   7.703
29647SOL    HW290839  12.898   4.960   7.782
29648SOL     OW90840   9.944   3.501   0.613
29648SOL    HW190841  10.006   3.507   0.686
29648SOL    HW290842   9.992   3.535   0.538
29649SOL     OW90843   5.410   9.107  12.862
29649SOL    HW190844   5.347   9.055  12.912
29649SOL    HW290845   5.363   9.132  12.782
29650SOL     OW90846  10.443   0.279   4.522
29650SOL    HW190847  10.465   0.186   4.514
29650SOL    HW290848  10.463   0.315   4.436
29651SOL     OW90849  12.458  13.099   6.042
29651SOL    HW190850  12.494  13.089   6.130
29651SOL    HW290851  12.368  13.128   6.056
29652SOL     OW90852  11.534  10.267   9.460
29652SOL    HW190853  11.593  10.211   9.409
29652SOL    HW290854  11.590  10.337   9.494
29653SOL     OW90855   1.650  10.456   1.408
29653SOL    HW190856   1.642  10.518   1.335
29653SOL    HW290857   1.695  10.506   1.476
29654SOL     OW90858   9.438   8.813  13.705
29654SOL    HW190859   9.463   8.898  13.668
29654SOL    HW290860   9.464   8.750  13.639
29655SOL     OW90861   9.423   8.829  12.038
29655SOL    HW190862   9.464   8.881  11.969
29655SOL    HW290863   9.494   8.773  12.070
29656SOL     OW90864  11.685   3.446   9.290
29656SOL    HW190865  11.623   3.471   9.221
29656SOL    HW290866  11.771   3.451   9.247
29657SOL     OW90867   2.106   0.401  14.142
29657SOL    HW190868   2.158   0.434  14.215
29657SOL    HW290869   2.042   0.471  14.124
29658SOL     OW90870   6.475   6.304   8.024
29658SOL    HW190871   6.559   6.346   8.044
29658SOL    HW290872   6.493   6.246   7.950
29659SOL     OW90873  11.638  10.177  14.586
29659SOL    HW190874  11.655  10.098  14.535
29659SOL    HW290875  11.697  10.243  14.550
29660SOL     OW90876   5.413  10.689   1.946
29660SOL    HW190877   5.403  10.671   2.039
29660SOL    HW290878   5.328  10.667   1.908
29661SOL     OW90879   2.478   3.604  14.028
29661SOL    HW190880   2.526   3.664  13.971
29661SOL    HW290881   2.452   3.657  14.103
29662SOL     OW90882   3.976   9.699   9.290
29662SOL    HW190883   4.016   9.730   9.371
29662SOL    HW290884   3.929   9.619   9.316
29663SOL     OW90885   5.981  10.838   5.923
29663SOL    HW190886   5.994  10.903   5.993
29663SOL    HW290887   5.945  10.888   5.850
29664SOL     OW90888  12.136   1.531   8.789
29664SOL    HW190889  12.068   1.583   8.833
29664SOL    HW290890  12.116   1.441   8.812
29665SOL     OW90891  10.573   8.995   5.633
29665SOL    HW190892  10.522   8.967   5.557
29665SOL    HW290893  10.617   8.915   5.662
29666SOL     OW90894   1.992   6.842   4.679
29666SOL    HW190895   1.913   6.895   4.668
29666SOL    HW290896   2.006   6.839   4.773
29667SOL     OW90897   6.280   5.258   6.246
29667SOL    HW190898   6.342   5.330   6.253
29667SOL    HW290899   6.256   5.238   6.336
29668SOL     OW90900   5.332   4.758   0.184
29668SOL    HW190901   5.376   4.789   0.106
29668SOL    HW290902   5.403   4.735   0.245
29669SOL     OW90903   6.536   8.066   5.552
29669SOL    HW190904   6.486   8.052   5.472
29669SOL    HW290905   6.501   8.147   5.589
29670SOL     OW90906  13.994   4.818   4.116
29670SOL    HW190907  14.041   4.744   4.156
29670SOL    HW290908  14.044   4.837   4.037
29671SOL     OW90909   9.706  10.584   1.240
29671SOL    HW190910   9.657  10.567   1.160
29671SOL    HW290911   9.665  10.662   1.278
29672SOL     OW90912  12.914   0.667   5.218
29672SOL    HW190913  12.828   0.628   5.230
29672SOL    HW290914  12.901   0.760   5.237
29673SOL     OW90915   2.643   6.150   3.458
29673SOL    HW190916   2.592   6.226   3.486
29673SOL    HW290917   2.711   6.140   3.526
29674SOL     OW90918   7.573   0.859   9.598
29674SOL    HW190919   7.595   0.952   9.594
29674SOL    HW290920   7.627   0.824   9.669
29675SOL     OW90921   5.221   8.730   5.365
29675SOL    HW190922   5.273   8.668   5.315
29675SOL    HW290923   5.274   8.810   5.366
29676SOL     OW90924   7.884  14.836   9.296
29676SOL    HW190925   7.796   0.003   9.289
29676SOL    HW290926   7.911  14.824   9.205
29677SOL     OW90927  14.150   0.246   1.203
29677SOL    HW190928  14.181   0.315   1.261
29677SOL    HW290929  14.076   0.206   1.250
29678SOL     OW90930   1.971  12.154   5.099
29678SOL    HW190931   1.971  12.244   5.132
29678SOL    HW290932   2.046  12.149   5.040
29679SOL     OW90933   4.988  13.433   1.892
29679SOL    HW190934   5.007  13.417   1.800
29679SOL    HW290935   4.914  13.376   1.912
29680SOL     OW90936  11.933  13.027   1.786
29680SOL    HW190937  11.846  12.988   1.792
29680SOL    HW290938  11.920  13.119   1.809
29681SOL     OW90939   2.298   7.552   7.692
29681SOL    HW190940   2.277   7.613   7.622
29681SOL    HW290941   2.345   7.481   7.649
29682SOL     OW90942   3.784  12.337   4.447
29682SOL    HW190943   3.818  12.352   4.535
29682SOL    HW290944   3.854  12.364   4.388
29683SOL     OW90945   5.722   6.812  13.667
29683SOL    HW190946   5.738   6.749  13.737
29683SOL    HW290947   5.670   6.881  13.708
29684SOL     OW90948   9.799  10.349  13.942
29684SOL    HW190949   9.862  10.287  13.978
29684SOL    HW290950   9.739  10.367  14.015
29685SOL     OW90951   1.732   3.214   2.624
29685SOL    HW190952   1.716   3.168   2.541
29685SOL    HW290953   1.673   3.290   2.621
29686SOL     OW90954   3.610   5.527   5.455
29686SOL    HW190955   3.665   5.550   5.380
29686SOL    HW290956   3.520   5.540   5.423
29687SOL     OW90957   3.461   8.066   6.382
29687SOL    HW190958   3.459   8.053   6.477
29687SOL    HW290959   3.548   8.100   6.364
29688SOL     OW90960   8.136   7.051   7.391
29688SOL    HW190961   8.065   6.990   7.409
29688SOL    HW290962   8.194   7.003   7.331
29689SOL     OW90963  13.689   7.621   3.185
29689SOL    HW190964  13.764   7.562   3.180
29689SOL    HW290965  13.626   7.575   3.241
29690SOL     OW90966   8.762   0.035  13.358
29690SOL    HW190967   8.720  14.821  13.347
29690SOL    HW290968   8.779   0.065  13.268
29691SOL     OW90969   7.748   5.876   2.824
29691SOL    HW190970   7.710   5.816   2.760
29691SOL    HW290971   7.819   5.920   2.777
29692SOL     OW90972   7.351  11.801   8.128
29692SOL    HW190973   7.446  11.798   8.118
29692SOL    HW290974   7.324  11.709   8.124
29693SOL     OW90975   7.371   1.025   0.586
29693SOL    HW190976   7.290   1.064   0.618
29693SOL    HW290977   7.344   0.969   0.513
29694SOL     OW90978   9.440   1.244  10.487
29694SOL    HW190979   9.449   1.238  10.582
29694SOL    HW290980   9.417   1.155  10.459
29695SOL     OW90981  14.865   9.671  10.427
29695SOL    HW190982  14.836   9.700  10.514
29695SOL    HW290983  14.794   9.697  10.368
29696SOL     OW90984   3.553  12.264  11.055
29696SOL    HW190985   3.528  12.353  11.030
29696SOL    HW290986   3.648  12.261  11.042
29697SOL     OW90987   2.041  14.125   4.711
29697SOL    HW190988   2.083  14.077   4.782
29697SOL    HW290989   1.999  14.057   4.658
29698SOL     OW90990  14.672  11.816   8.673
29698SOL    HW190991  14.759  11.789   8.703
29698SOL    HW290992  14.649  11.890   8.729
29699SOL     OW90993   3.894   3.700   0.045
29699SOL    HW190994   3.985   3.727   0.032
29699SOL    HW290995   3.874   3.644  14.842
29700SOL     OW90996  12.344   9.354  14.480
29700SOL    HW190997  12.385   9.342  14.566
29700SOL    HW290998  12.336   9.265  14.445
29701SOL     OW90999   0.932  13.807   5.532
29701SOL    HW191000   0.951  13.898   5.508
29701SOL    HW291001   1.002  13.782   5.592
29702SOL     OW91002  14.597  10.130   4.495
29702SOL    HW191003  14.608  10.215   4.451
29702SOL    HW291004  14.686  10.094   4.500
29703SOL     OW91005   3.956  10.213   9.088
29703SOL    HW191006   3.949  10.119   9.103
29703SOL    HW291007   4.004  10.246   9.164
29704SOL     OW91008   8.065   4.116  12.256
29704SOL    HW191009   8.020   4.173  12.319
29704SOL    HW291010   8.031   4.028  12.274
29705SOL     OW91011   0.978  14.168   8.284
29705SOL    HW191012   0.895  14.126   8.265
29705SOL    HW291013   1.027  14.163   8.202
29706SOL     OW91014   3.557   9.883   5.939
29706SOL    HW191015   3.624   9.911   6.001
29706SOL    HW291016   3.582   9.924   5.856
29707SOL     OW91017  14.305   8.930   8.154
29707SOL    HW191018  14.338   9.017   8.178
29707SOL    HW291019  14.373   8.894   8.096
29708SOL     OW91020   0.481  13.004  13.842
29708SOL    HW191021   0.391  13.017  13.870
29708SOL    HW291022   0.528  12.984  13.923
29709SOL     OW91023  10.108   6.685  13.681
29709SOL    HW191024  10.149   6.678  13.767
29709SOL    HW291025  10.064   6.602  13.668
29710SOL     OW91026  13.382   1.368   1.626
29710SOL    HW191027  13.301   1.335   1.665
29710SOL    HW291028  13.451   1.333   1.682
29711SOL     OW91029  10.380   9.909  12.903
29711SOL    HW191030  10.469   9.893  12.872
29711SOL    HW291031  10.364  10.001  12.884
29712SOL     OW91032  10.331   3.381   0.243
29712SOL    HW191033  10.333   3.292   0.208
29712SOL    HW291034  10.423   3.402   0.258
29713SOL     OW91035  14.447   9.271  13.557
29713SOL    HW191036  14.416   9.236  13.641
29713SOL    HW291037  14.417   9.362  13.556
29714SOL     OW91038  10.360   1.815   8.318
29714SOL    HW191039  10.299   1.753   8.357
29714SOL    HW291040  10.308   1.859   8.250
29715SOL     OW91041   5.798   1.763  10.631
29715SOL    HW191042   5.875   1.801  10.587
29715SOL    HW291043   5.731   1.831  10.622
29716SOL     OW91044  12.931   3.564   7.486
29716SOL    HW191045  12.847   3.589   7.449
29716SOL    HW291046  12.994   3.624   7.446
29717SOL     OW91047  14.697   6.414   5.310
29717SOL    HW191048  14.687   6.371   5.226
29717SOL    HW291049  14.785   6.453   5.307
29718SOL     OW91050  12.167  12.538   7.419
29718SOL    HW191051  12.206  12.534   7.507
29718SOL    HW291052  12.093  12.598   7.428
29719SOL     OW91053   9.890   0.950   1.548
29719SOL    HW191054   9.840   0.871   1.565
29719SOL    HW291055   9.933   0.934   1.464
29720SOL     OW91056  11.669  12.726   2.036
29720SOL    HW191057  11.707  12.649   2.078
29720SOL    HW291058  11.601  12.690   1.978
29721SOL     OW91059   7.623   6.230  12.379
29721SOL    HW191060   7.688   6.187  12.433
29721SOL    HW291061   7.670   6.302  12.337
29722SOL     OW91062  12.886   6.357  11.136
29722SOL    HW191063  12.868   6.286  11.074
29722SOL    HW291064  12.803   6.401  11.148
29723SOL     OW91065  12.964   3.120  12.347
29723SOL    HW191066  12.887   3.102  12.401
29723SOL    HW291067  13.006   3.035  12.335
29724SOL     OW91068   0.185  11.665   0.901
29724SOL    HW191069   0.198  11.760   0.909
29724SOL    HW291070   0.117  11.656   0.835
29725SOL     OW91071   3.602  13.788  10.305
29725SOL    HW191072   3.527  13.734  10.329
29725SOL    HW291073   3.627  13.832  10.386
29726SOL     OW91074   4.469   4.438   0.708
29726SOL    HW191075   4.419   4.367   0.668
29726SOL    HW291076   4.416   4.516   0.694
29727SOL     OW91077   5.717  14.781   8.071
29727SOL    HW191078   5.668  14.700   8.059
29727SOL    HW291079   5.789  14.758   8.130
29728SOL     OW91080   1.679   6.051   8.161
29728SOL    HW191081   1.722   6.017   8.240
29728SOL    HW291082   1.747   6.100   8.115
29729SOL     OW91083   1.196  14.491  13.201
29729SOL    HW191084   1.174  14.410  13.247
29729SOL    HW291085   1.156  14.482  13.115
29730SOL     OW91086   3.597   3.989   9.116
29730SOL    HW191087   3.544   3.961   9.041
29730SOL    HW291088   3.655   3.914   9.133
29731SOL     OW91089   0.898  12.932  10.019
29731SOL    HW191090   0.988  12.944  10.051
29731SOL    HW291091   0.909  12.897   9.931
29732SOL     OW91092  14.170   2.086   1.375
29732SOL    HW191093  14.260   2.058   1.361
29732SOL    HW291094  14.147   2.137   1.297
29733SOL     OW91095   7.063   8.025  10.669
29733SOL    HW191096   7.116   7.963  10.619
29733SOL    HW291097   7.003   8.062  10.604
29734SOL     OW91098   7.135   0.428  13.455
29734SOL    HW191099   7.141   0.359  13.521
29734SOL    HW291100   7.209   0.411  13.396
29735SOL     OW91101  12.423   4.798  14.219
29735SOL    HW191102  12.357   4.856  14.257
29735SOL    HW291103  12.393   4.783  14.130
29736SOL     OW91104   1.456   3.431   2.563
29736SOL    HW191105   1.510   3.494   2.611
29736SOL    HW291106   1.427   3.369   2.629
29737SOL     OW91107   3.674  10.920   1.129
29737SOL    HW191108   3.712  11.008   1.127
29737SOL    HW291109   3.624  10.917   1.211
29738SOL     OW91110  11.914  11.939   5.187
29738SOL    HW191111  11.825  11.908   5.207
29738SOL    HW291112  11.956  11.945   5.273
29739SOL     OW91113   6.676   5.034   5.684
29739SOL    HW191114   6.593   4.986   5.678
29739SOL    HW291115   6.743   4.969   5.663
29740SOL     OW91116  10.051   4.796   3.938
29740SOL    HW191117  10.055   4.888   3.911
29740SOL    HW291118   9.967   4.765   3.903
29741SOL     OW91119   1.053   5.029   0.983
29741SOL    HW191120   1.040   5.084   1.061
29741SOL    HW291121   1.140   4.991   0.995
29742SOL     OW91122   9.745   9.015  14.698
29742SOL    HW191123   9.736   8.977  14.611
29742SOL    HW291124   9.773   9.105  14.683
29743SOL     OW91125  10.396  10.499   4.045
29743SOL    HW191126  10.429  10.502   3.955
29743SOL    HW291127  10.460  10.549   4.095
29744SOL     OW91128   3.633   6.185  14.387
29744SOL    HW191129   3.609   6.146  14.471
29744SOL    HW291130   3.725   6.163  14.375
29745SOL     OW91131   3.280  13.107  13.058
29745SOL    HW191132   3.254  13.016  13.073
29745SOL    HW291133   3.199  13.151  13.031
29746SOL     OW91134   2.337   8.371   2.875
29746SOL    HW191135   2.353   8.465   2.871
29746SOL    HW291136   2.271   8.360   2.944
29747SOL     OW91137  13.641  14.542   6.376
29747SOL    HW191138  13.578  14.614   6.364
29747SOL    HW291139  13.683  14.532   6.290
29748SOL     OW91140   3.293   6.657  10.235
29748SOL    HW191141   3.287   6.728  10.299
29748SOL    HW291142   3.376   6.614  10.255
29749SOL     OW91143   2.788  14.570   9.711
29749SOL    HW191144   2.788  14.576   9.616
29749SOL    HW291145   2.720  14.632   9.738
29750SOL     OW91146  11.347  13.967  11.201
29750SOL    HW191147  11.293  14.002  11.130
29750SOL    HW291148  11.313  14.010  11.280
29751SOL     OW91149   0.521   0.233   2.427
29751SOL    HW191150   0.530   0.182   2.507
29751SOL    HW291151   0.483   0.173   2.364
29752SOL     OW91152   1.827   5.075   9.249
29752SOL    HW191153   1.837   5.104   9.340
29752SOL    HW291154   1.879   5.137   9.198
29753SOL     OW91155  12.193   0.658   3.889
29753SOL    HW191156  12.098   0.662   3.898
29753SOL    HW291157  12.218   0.746   3.860
29754SOL     OW91158  12.338   8.399  10.876
29754SOL    HW191159  12.285   8.319  10.877
29754SOL    HW291160  12.373   8.407  10.964
29755SOL     OW91161   0.131   5.518  12.356
29755SOL    HW191162   0.128   5.507  12.261
29755SOL    HW291163   0.224   5.524  12.377
29756SOL     OW91164   1.180   7.330   5.160
29756SOL    HW191165   1.157   7.419   5.131
29756SOL    HW291166   1.179   7.335   5.255
29757SOL     OW91167   7.043   6.621  14.292
29757SOL    HW191168   7.001   6.637  14.376
29757SOL    HW291169   7.023   6.698  14.240
29758SOL     OW91170   9.656   5.658   9.134
29758SOL    HW191171   9.609   5.683   9.055
29758SOL    HW291172   9.588   5.622   9.192
29759SOL     OW91173   4.828   3.982  14.172
29759SOL    HW191174   4.736   4.009  14.160
29759SOL    HW291175   4.832   3.894  14.134
29760SOL     OW91176   7.044  12.146   0.491
29760SOL    HW191177   7.089  12.126   0.409
29760SOL    HW291178   7.115  12.155   0.555
29761SOL     OW91179   5.700   3.770  14.624
29761SOL    HW191180   5.710   3.811  14.538
29761SOL    HW291181   5.621   3.716  14.616
29762SOL     OW91182  10.323   6.148   4.668
29762SOL    HW191183  10.366   6.147   4.754
29762SOL    HW291184  10.370   6.216   4.619
29763SOL     OW91185  10.666   1.823   4.492
29763SOL    HW191186  10.621   1.848   4.573
29763SOL    HW291187  10.596   1.806   4.430
29764SOL     OW91188   2.657  12.139  12.660
29764SOL    HW191189   2.718  12.204  12.696
29764SOL    HW291190   2.612  12.185  12.589
29765SOL     OW91191  14.811   2.831   8.160
29765SOL    HW191192  14.756   2.850   8.236
29765SOL    HW291193  14.853   2.748   8.181
29766SOL     OW91194   0.593  10.327   2.380
29766SOL    HW191195   0.676  10.373   2.369
29766SOL    HW291196   0.529  10.384   2.337
29767SOL     OW91197  13.726   7.237   6.268
29767SOL    HW191198  13.816   7.218   6.242
29767SOL    HW291199  13.714   7.188   6.350
29768SOL     OW91200   3.478   0.701  10.173
29768SOL    HW191201   3.411   0.693  10.105
29768SOL    HW291202   3.561   0.689  10.127
29769SOL     OW91203   7.621   5.677   1.570
29769SOL    HW191204   7.528   5.659   1.556
29769SOL    HW291205   7.643   5.745   1.507
29770SOL     OW91206   2.585  13.220  12.986
29770SOL    HW191207   2.512  13.160  13.005
29770SOL    HW291208   2.607  13.202  12.894
29771SOL     OW91209  14.319  11.352   9.620
29771SOL    HW191210  14.292  11.434   9.663
29771SOL    HW291211  14.395  11.377   9.567
29772SOL     OW91212  11.617   7.375   8.029
29772SOL    HW191213  11.592   7.359   8.120
29772SOL    HW291214  11.644   7.466   8.027
29773SOL     OW91215  11.342   6.928   4.665
29773SOL    HW191216  11.267   6.951   4.720
29773SOL    HW291217  11.304   6.907   4.580
29774SOL     OW91218  13.574   2.063   1.172
29774SOL    HW191219  13.590   2.104   1.257
29774SOL    HW291220  13.614   1.976   1.179
29775SOL     OW91221   3.246   7.210  11.496
29775SOL    HW191222   3.230   7.305  11.490
29775SOL    HW291223   3.183   7.180  11.561
29776SOL     OW91224   0.712   9.792   2.278
29776SOL    HW191225   0.803   9.766   2.264
29776SOL    HW291226   0.715   9.886   2.294
29777SOL     OW91227   7.413   9.406   3.722
29777SOL    HW191228   7.370   9.439   3.642
29777SOL    HW291229   7.506   9.417   3.704
29778SOL     OW91230  13.801  14.134   3.026
29778SOL    HW191231  13.785  14.139   3.120
29778SOL    HW291232  13.723  14.092   2.990
29779SOL     OW91233   8.986  10.743  10.855
29779SOL    HW191234   9.069  10.755  10.808
29779SOL    HW291235   8.960  10.832  10.879
29780SOL     OW91236   2.382   5.062   7.820
29780SOL    HW191237   2.469   5.057   7.782
29780SOL    HW291238   2.378   5.148   7.861
29781SOL     OW91239  10.681  14.823   2.431
29781SOL    HW191240  10.637   0.037   2.437
29781SOL    HW291241  10.616  14.766   2.391
29782SOL     OW91242  11.720   6.501  10.979
29782SOL    HW191243  11.736   6.474  10.889
29782SOL    HW291244  11.750   6.428  11.032
29783SOL     OW91245   4.872  13.387   4.887
29783SOL    HW191246   4.909  13.380   4.975
29783SOL    HW291247   4.807  13.317   4.883
29784SOL     OW91248  11.701  11.262   0.135
29784SOL    HW191249  11.671  11.353   0.140
29784SOL    HW291250  11.690  11.240   0.042
29785SOL     OW91251  10.129   7.695   9.848
29785SOL    HW191252  10.062   7.673   9.912
29785SOL    HW291253  10.092   7.669   9.764
29786SOL     OW91254  11.116   0.303  12.679
29786SOL    HW191255  11.144   0.336  12.764
29786SOL    HW291256  11.025   0.332  12.671
29787SOL     OW91257  13.845  14.117  14.076
29787SOL    HW191258  13.898  14.054  14.027
29787SOL    HW291259  13.765  14.125  14.024
29788SOL     OW91260  14.263  14.860  14.155
29788SOL    HW191261  14.233  14.839  14.066
29788SOL    HW291262  14.262   0.084  14.159
29789SOL     OW91263   7.341   5.339  10.827
29789SOL    HW191264   7.414   5.278  10.836
29789SOL    HW291265   7.383   5.425  10.817
29790SOL     OW91266   5.735  13.470   4.572
29790SOL    HW191267   5.770  13.549   4.614
29790SOL    HW291268   5.716  13.497   4.483
29791SOL     OW91269   5.859   5.753   3.860
29791SOL    HW191270   5.834   5.661   3.860
29791SOL    HW291271   5.914   5.763   3.782
29792SOL     OW91272   2.116   9.218   6.274
29792SOL    HW191273   2.095   9.285   6.340
29792SOL    HW291274   2.063   9.142   6.300
29793SOL     OW91275   4.428  12.049  13.965
29793SOL    HW191276   4.350  12.083  14.009
29793SOL    HW291277   4.455  11.973  14.017
29794SOL     OW91278   4.649  10.524   7.863
29794SOL    HW191279   4.663  10.474   7.943
29794SOL    HW291280   4.651  10.615   7.890
29795SOL     OW91281   6.686   5.393  14.211
29795SOL    HW191282   6.628   5.420  14.283
29795SOL    HW291283   6.663   5.453  14.139
29796SOL     OW91284  10.617   7.691   3.817
29796SOL    HW191285  10.576   7.639   3.886
29796SOL    HW291286  10.553   7.690   3.745
29797SOL     OW91287   1.087   0.550   1.027
29797SOL    HW191288   1.017   0.527   0.966
29797SOL    HW291289   1.150   0.600   0.975
29798SOL     OW91290   5.690   5.416   1.548
29798SOL    HW191291   5.680   5.497   1.499
29798SOL    HW291292   5.771   5.426   1.597
29799SOL     OW91293   8.316  10.737   6.610
29799SOL    HW191294   8.329  10.682   6.687
29799SOL    HW291295   8.246  10.798   6.635
29800SOL     OW91296   0.967  11.053   0.807
29800SOL    HW191297   0.958  10.979   0.866
29800SOL    HW291298   1.054  11.045   0.770
29801SOL     OW91299   3.314  12.167  10.681
29801SOL    HW191300   3.219  12.172  10.687
29801SOL    HW291301   3.344  12.153  10.771
29802SOL     OW91302   5.946   0.101   5.546
29802SOL    HW191303   5.854   0.116   5.570
29802SOL    HW291304   5.961   0.161   5.473
29803SOL     OW91305   1.731   2.204  12.715
29803SOL    HW191306   1.677   2.193  12.793
29803SOL    HW291307   1.764   2.293  12.721
29804SOL     OW91308   5.672   1.397  13.853
29804SOL    HW191309   5.590   1.360  13.821
29804SOL    HW291310   5.665   1.490  13.834
29805SOL     OW91311   8.021  10.524   3.977
29805SOL    HW191312   7.938  10.478   3.987
29805SOL    HW291313   8.054  10.533   4.067
29806SOL     OW91314   4.364  11.762   9.746
29806SOL    HW191315   4.349  11.855   9.763
29806SOL    HW291316   4.285  11.719   9.779
29807SOL     OW91317   9.410  11.867   7.478
29807SOL    HW191318   9.483  11.837   7.532
29807SOL    HW291319   9.451  11.920   7.409
29808SOL     OW91320  14.702   9.287   3.390
29808SOL    HW191321  14.683   9.199   3.423
29808SOL    HW291322  14.616   9.325   3.372
29809SOL     OW91323  10.420   0.763   9.763
29809SOL    HW191324  10.476   0.840   9.754
29809SOL    HW291325  10.406   0.754   9.857
29810SOL     OW91326   6.017   7.271   5.925
29810SOL    HW191327   5.929   7.299   5.951
29810SOL    HW291328   6.071   7.285   6.003
29811SOL     OW91329  10.610   6.452   6.478
29811SOL    HW191330  10.671   6.449   6.405
29811SOL    HW291331  10.666   6.456   6.556
29812SOL     OW91332  13.544  13.016   9.998
29812SOL    HW191333  13.581  13.041   9.913
29812SOL    HW291334  13.464  13.067  10.006
29813SOL     OW91335  14.395  13.201   5.745
29813SOL    HW191336  14.372  13.213   5.653
29813SOL    HW291337  14.485  13.234   5.751
29814SOL     OW91338   0.543  10.503   3.917
29814SOL    HW191339   0.515  10.474   4.003
29814SOL    HW291340   0.589  10.585   3.933
29815SOL     OW91341   3.070   2.365   1.561
29815SOL    HW191342   3.019   2.308   1.504
29815SOL    HW291343   3.160   2.353   1.533
29816SOL     OW91344  14.327  11.069  13.169
29816SOL    HW191345  14.327  11.152  13.122
29816SOL    HW291346  14.391  11.081  13.239
29817SOL     OW91347   2.971   8.217  14.282
29817SOL    HW191348   2.932   8.196  14.197
29817SOL    HW291349   3.031   8.290  14.264
29818SOL     OW91350  13.495   8.886   1.648
29818SOL    HW191351  13.447   8.908   1.728
29818SOL    HW291352  13.572   8.838   1.678
29819SOL     OW91353   5.029   1.741   8.685
29819SOL    HW191354   5.004   1.811   8.745
29819SOL    HW291355   4.995   1.661   8.725
29820SOL     OW91356   2.351   3.078   0.006
29820SOL    HW191357   2.444   3.095  14.865
29820SOL    HW291358   2.331   3.112   0.093
29821SOL     OW91359  14.459   2.871  12.379
29821SOL    HW191360  14.370   2.839  12.361
29821SOL    HW291361  14.447   2.935  12.450
29822SOL     OW91362   7.285  13.665  11.683
29822SOL    HW191363   7.372  13.627  11.694
29822SOL    HW291364   7.233  13.627  11.753
29823SOL     OW91365   2.872   2.063   8.174
29823SOL    HW191366   2.882   2.101   8.087
29823SOL    HW291367   2.884   1.969   8.161
29824SOL     OW91368   7.275   9.685   7.696
29824SOL    HW191369   7.336   9.741   7.745
29824SOL    HW291370   7.219   9.647   7.764
29825SOL     OW91371   2.146  14.572  14.146
29825SOL    HW191372   2.156  14.610  14.233
29825SOL    HW291373   2.059  14.601  14.117
29826SOL     OW91374   2.431  10.153   9.927
29826SOL    HW191375   2.419  10.195   9.842
29826SOL    HW291376   2.367  10.195   9.984
29827SOL     OW91377   6.708   2.763  13.707
29827SOL    HW191378   6.720   2.848  13.750
29827SOL    HW291379   6.663   2.784  13.625
29828SOL     OW91380   7.120   6.443  10.690
29828SOL    HW191381   7.128   6.495  10.770
29828SOL    HW291382   7.133   6.353  10.720
29829SOL     OW91383  12.951   7.128   7.788
29829SOL    HW191384  12.905   7.049   7.816
29829SOL    HW291385  12.986   7.106   7.701
29830SOL     OW91386   5.269   5.014  13.990
29830SOL    HW191387   5.304   5.102  13.986
29830SOL    HW291388   5.225   5.009  14.075
29831SOL     OW91389   8.806  13.670   5.399
29831SOL    HW191390   8.818  13.666   5.304
29831SOL    HW291391   8.875  13.612   5.433
29832SOL     OW91392  12.924   8.364  11.183
29832SOL    HW191393  12.967   8.279  11.186
29832SOL    HW291394  12.984   8.424  11.227
29833SOL     OW91395  11.342   0.069  10.560
29833SOL    HW191396  11.322   0.035  10.473
29833SOL    HW291397  11.326   0.163  10.553
29834SOL     OW91398   4.068   1.049  13.836
29834SOL    HW191399   4.017   1.130  13.841
29834SOL    HW291400   4.141   1.071  13.778
29835SOL     OW91401   2.119   8.705  14.685
29835SOL    HW191402   2.182   8.774  14.665
29835SOL    HW291403   2.172   8.626  14.696
29836SOL     OW91404   6.484  10.258   5.222
29836SOL    HW191405   6.576  10.237   5.241
29836SOL    HW291406   6.435  10.210   5.288
29837SOL     OW91407   5.830   1.529   9.662
29837SOL    HW191408   5.767   1.458   9.648
29837SOL    HW291409   5.874   1.540   9.578
29838SOL     OW91410  10.433  13.820   6.129
29838SOL    HW191411  10.458  13.784   6.214
29838SOL    HW291412  10.384  13.750   6.087
29839SOL     OW91413   7.015   3.658   7.231
29839SOL    HW191414   7.085   3.712   7.195
29839SOL    HW291415   6.965   3.718   7.287
29840SOL     OW91416   4.346   7.576  11.396
29840SOL    HW191417   4.338   7.572  11.491
29840SOL    HW291418   4.429   7.532  11.377
29841SOL     OW91419   9.030   5.639   0.734
29841SOL    HW191420   8.949   5.601   0.767
29841SOL    HW291421   9.046   5.715   0.789
29842SOL     OW91422   1.271   8.766  14.262
29842SOL    HW191423   1.243   8.850  14.224
29842SOL    HW291424   1.194   8.710  14.254
29843SOL     OW91425  10.258   2.266  13.627
29843SOL    HW191426  10.174   2.309  13.644
29843SOL    HW291427  10.254   2.185  13.679
29844SOL     OW91428   0.382  13.797   6.520
29844SOL    HW191429   0.300  13.821   6.564
29844SOL    HW291430   0.407  13.876   6.472
29845SOL     OW91431   2.407   9.571  13.394
29845SOL    HW191432   2.337   9.515  13.429
29845SOL    HW291433   2.488   9.534  13.431
29846SOL     OW91434  12.853   6.088   7.190
29846SOL    HW191435  12.760   6.094   7.169
29846SOL    HW291436  12.898   6.106   7.108
29847SOL     OW91437   0.810  14.220   7.070
29847SOL    HW191438   0.853  14.150   7.120
29847SOL    HW291439   0.814  14.189   6.979
29848SOL     OW91440   5.427   1.389   2.282
29848SOL    HW191441   5.461   1.332   2.350
29848SOL    HW291442   5.360   1.337   2.238
29849SOL     OW91443   2.275  14.177   6.930
29849SOL    HW191444   2.233  14.207   6.850
29849SOL    HW291445   2.269  14.081   6.925
29850SOL     OW91446   0.296  13.993   9.108
29850SOL    HW191447   0.348  14.069   9.082
29850SOL    HW291448   0.251  14.021   9.188
29851SOL     OW91449  14.311   6.868   9.395
29851SOL    HW191450  14.236   6.865   9.336
29851SOL    HW291451  14.337   6.960   9.397
29852SOL     OW91452   1.480   9.444   1.788
29852SOL    HW191453   1.549   9.380   1.773
29852SOL    HW291454   1.403   9.392   1.812
29853SOL     OW91455   1.851   8.746   1.360
29853SOL    HW191456   1.759   8.717   1.360
29853SOL    HW291457   1.866   8.775   1.270
29854SOL     OW91458  10.662   0.458  12.826
29854SOL    HW191459  10.591   0.396  12.841
29854SOL    HW291460  10.640   0.533  12.881
29855SOL     OW91461   6.336   9.021   2.198
29855SOL    HW191462   6.426   9.020   2.166
29855SOL    HW291463   6.302   8.933   2.180
29856SOL     OW91464  12.827  10.009   3.178
29856SOL    HW191465  12.853   9.923   3.211
29856SOL    HW291466  12.738  10.021   3.213
29857SOL     OW91467   1.776   2.073   3.760
29857SOL    HW191468   1.783   1.984   3.795
29857SOL    HW291469   1.715   2.118   3.819
29858SOL     OW91470  12.625  12.476   6.891
29858SOL    HW191471  12.601  12.529   6.815
29858SOL    HW291472  12.709  12.512   6.919
29859SOL     OW91473  14.540   1.864   6.976
29859SOL    HW191474  14.460   1.815   6.995
29859SOL    HW291475  14.610   1.810   7.014
29860SOL     OW91476   3.762   8.965   2.011
29860SOL    HW191477   3.743   8.919   2.092
29860SOL    HW291478   3.696   8.933   1.949
29861SOL     OW91479  10.112  12.904   6.210
29861SOL    HW191480  10.183  12.875   6.268
29861SOL    HW291481  10.105  12.835   6.144
29862SOL     OW91482   1.424   0.824  14.665
29862SOL    HW191483   1.426   0.762  14.737
29862SOL    HW291484   1.511   0.817  14.625
29863SOL     OW91485   7.669   9.721   5.258
29863SOL    HW191486   7.640   9.639   5.220
29863SOL    HW291487   7.619   9.729   5.339
29864SOL     OW91488  10.149   9.471  14.644
29864SOL    HW191489  10.155   9.376  14.657
29864SOL    HW291490  10.173   9.508  14.729
29865SOL     OW91491   9.314   8.328  13.152
29865SOL    HW191492   9.368   8.403  13.175
29865SOL    HW291493   9.365   8.281  13.086
29866SOL     OW91494   0.020   4.570   2.696
29866SOL    HW191495  14.855   4.519   2.624
29866SOL    HW291496  14.825   4.636   2.715
29867SOL     OW91497  11.269   7.508   6.404
29867SOL    HW191498  11.307   7.422   6.386
29867SOL    HW291499  11.343   7.569   6.400
29868SOL     OW91500   3.876   1.912   7.832
29868SOL    HW191501   3.848   1.856   7.904
29868SOL    HW291502   3.950   1.961   7.868
29869SOL     OW91503  10.659   4.070   6.462
29869SOL    HW191504  10.748   4.060   6.493
29869SOL    HW291505  10.609   4.098   6.539
29870SOL     OW91506  11.547   4.268   5.499
29870SOL    HW191507  11.464   4.296   5.537
29870SOL    HW291508  11.563   4.328   5.426
29871SOL     OW91509   5.495   4.190   7.605
29871SOL    HW191510   5.573   4.166   7.555
29871SOL    HW291511   5.476   4.280   7.578
29872SOL     OW91512  14.841  10.979   0.951
29872SOL    HW191513   0.042  10.970   0.889
29872SOL    HW291514  14.773  10.921   0.917
29873SOL     OW91515   1.097   1.366  12.810
29873SOL    HW191516   1.136   1.436  12.757
29873SOL    HW291517   1.060   1.305  12.747
29874SOL     OW91518   2.874  12.248   7.110
29874SOL    HW191519   2.918  12.214   7.032
29874SOL    HW291520   2.810  12.181   7.133
29875SOL     OW91521  10.853   8.501  14.144
29875SOL    HW191522  10.793   8.427  14.153
29875SOL    HW291523  10.928   8.466  14.096
29876SOL     OW91524   5.620   4.214  11.126
29876SOL    HW191525   5.672   4.293  11.110
29876SOL    HW291526   5.599   4.181  11.039
29877SOL     OW91527  11.620   7.709   3.212
29877SOL    HW191528  11.664   7.781   3.167
29877SOL    HW291529  11.605   7.644   3.143
29878SOL     OW91530   0.331   4.967  10.012
29878SOL    HW191531   0.292   4.895   9.963
29878SOL    HW291532   0.416   4.983   9.970
29879SOL     OW91533   4.276   3.826  10.885
29879SOL    HW191534   4.299   3.751  10.830
29879SOL    HW291535   4.207   3.792  10.942
29880SOL     OW91536   9.347   5.598  12.585
29880SOL    HW191537   9.274   5.576  12.643
29880SOL    HW291538   9.343   5.532  12.516
29881SOL     OW91539   4.460  10.483  14.631
29881SOL    HW191540   4.528  10.530  14.583
29881SOL    HW291541   4.501  10.400  14.654
29882SOL     OW91542   1.282   5.418  13.767
29882SOL    HW191543   1.197   5.462  13.768
29882SOL    HW291544   1.329   5.455  13.842
29883SOL     OW91545  11.489  12.093  10.880
29883SOL    HW191546  11.429  12.033  10.836
29883SOL    HW291547  11.465  12.180  10.848
29884SOL     OW91548  12.418   4.606   0.642
29884SOL    HW191549  12.513   4.614   0.635
29884SOL    HW291550  12.395   4.540   0.577
29885SOL     OW91551  11.562  10.019   7.378
29885SOL    HW191552  11.505  10.030   7.454
29885SOL    HW291553  11.534   9.938   7.338
29886SOL     OW91554   5.569  11.862   0.247
29886SOL    HW191555   5.511  11.860   0.171
29886SOL    HW291556   5.597  11.954   0.254
29887SOL     OW91557  12.764  14.611   5.736
29887SOL    HW191558  12.689  14.597   5.793
29887SOL    HW291559  12.757  14.543   5.669
29888SOL     OW91560   2.854   5.731   5.981
29888SOL    HW191561   2.903   5.793   6.033
29888SOL    HW291562   2.790   5.785   5.933
29889SOL     OW91563   8.879  14.114  11.256
29889SOL    HW191564   8.818  14.150  11.321
29889SOL    HW291565   8.863  14.165  11.177
29890SOL     OW91566  13.449   5.561  12.849
29890SOL    HW191567  13.485   5.572  12.937
29890SOL    HW291568  13.399   5.480  12.853
29891SOL     OW91569   3.882   9.230   5.887
29891SOL    HW191570   3.931   9.157   5.848
29891SOL    HW291571   3.864   9.202   5.976
29892SOL     OW91572   2.588  10.400  11.490
29892SOL    HW191573   2.658  10.426  11.550
29892SOL    HW291574   2.614  10.313  11.459
29893SOL     OW91575   2.830   0.358  13.070
29893SOL    HW191576   2.787   0.418  13.010
29893SOL    HW291577   2.891   0.413  13.120
29894SOL     OW91578   3.444   0.186  14.354
29894SOL    HW191579   3.431   0.279  14.374
29894SOL    HW291580   3.389   0.170  14.278
29895SOL     OW91581  12.512  12.468  13.004
29895SOL    HW191582  12.495  12.390  12.951
29895SOL    HW291583  12.536  12.536  12.942
29896SOL     OW91584   2.690   1.284   7.738
29896SOL    HW191585   2.689   1.380   7.734
29896SOL    HW291586   2.597   1.260   7.745
29897SOL     OW91587   3.698  12.272   8.374
29897SOL    HW191588   3.786  12.290   8.341
29897SOL    HW291589   3.698  12.304   8.464
29898SOL     OW91590   0.176  14.675  11.050
29898SOL    HW191591   0.245  14.651  10.988
29898SOL    HW291592   0.115  14.727  10.998
29899SOL     OW91593  10.090   0.956  10.447
29899SOL    HW191594  10.180   0.924  10.446
29899SOL    HW291595  10.079   1.000  10.363
29900SOL     OW91596   4.430   4.069   9.364
29900SOL    HW191597   4.504   4.019   9.400
29900SOL    HW291598   4.368   4.076   9.437
29901SOL     OW91599  14.717   8.047   6.120
29901SOL    HW191600  14.662   7.970   6.106
29901SOL    HW291601  14.655   8.115   6.148
29902SOL     OW91602  13.403  14.394   4.717
29902SOL    HW191603  13.455  14.315   4.735
29902SOL    HW291604  13.317  14.376   4.753
29903SOL     OW91605   6.043   9.012   4.995
29903SOL    HW191606   6.054   9.105   5.018
29903SOL    HW291607   5.976   8.980   5.056
29904SOL     OW91608   1.111  14.492   1.842
29904SOL    HW191609   1.114  14.585   1.823
29904SOL    HW291610   1.022  14.477   1.875
29905SOL     OW91611   5.504  11.103  12.732
29905SOL    HW191612   5.589  11.140  12.755
29905SOL    HW291613   5.443  11.176  12.739
29906SOL     OW91614   1.274  13.484  13.914
29906SOL    HW191615   1.349  13.487  13.973
29906SOL    HW291616   1.304  13.431  13.840
29907SOL     OW91617  13.631   0.346   7.804
29907SOL    HW191618  13.714   0.308   7.779
29907SOL    HW291619  13.568   0.274   7.797
29908SOL     OW91620   0.032   7.074   7.542
29908SOL    HW191621   0.025   6.990   7.497
29908SOL    HW291622   0.126   7.094   7.538
29909SOL     OW91623   4.434  11.564   8.002
29909SOL    HW191624   4.359  11.623   8.005
29909SOL    HW291625   4.444  11.531   8.091
29910SOL     OW91626   5.497  12.263  14.661
29910SOL    HW191627   5.468  12.249  14.751
29910SOL    HW291628   5.591  12.279  14.667
29911SOL     OW91629   0.420  10.401   8.080
29911SOL    HW191630   0.355  10.466   8.106
29911SOL    HW291631   0.369  10.321   8.064
29912SOL     OW91632  10.742   4.614   4.899
29912SOL    HW191633  10.787   4.549   4.953
29912SOL    HW291634  10.727   4.569   4.816
29913SOL     OW91635   6.024  13.677   4.916
29913SOL    HW191636   5.970  13.697   4.840
29913SOL    HW291637   6.079  13.604   4.888
29914SOL     OW91638  12.031   3.975   9.985
29914SOL    HW191639  12.010   3.975   9.892
29914SOL    HW291640  12.108   3.917   9.992
29915SOL     OW91641   3.425   1.538   3.271
29915SOL    HW191642   3.457   1.624   3.242
29915SOL    HW291643   3.330   1.549   3.276
29916SOL     OW91644   8.270   1.000   7.156
29916SOL    HW191645   8.251   1.048   7.075
29916SOL    HW291646   8.364   1.012   7.170
29917SOL     OW91647   4.376   5.955   7.466
29917SOL    HW191648   4.434   6.028   7.443
29917SOL    HW291649   4.325   5.988   7.540
29918SOL     OW91650   6.985  14.800   2.408
29918SOL    HW191651   6.963  14.719   2.453
29918SOL    HW291652   7.079  14.811   2.422
29919SOL     OW91653  12.053  12.166   1.661
29919SOL    HW191654  12.130  12.206   1.702
29919SOL    HW291655  11.980  12.222   1.685
29920SOL     OW91656  11.354   0.371   1.036
29920SOL    HW191657  11.305   0.435   0.985
29920SOL    HW291658  11.297   0.349   1.109
29921SOL     OW91659   2.290   4.850   9.386
29921SOL    HW191660   2.297   4.945   9.395
29921SOL    HW291661   2.361   4.815   9.440
29922SOL     OW91662  10.804  10.226   2.151
29922SOL    HW191663  10.877  10.192   2.202
29922SOL    HW291664  10.835  10.227   2.061
29923SOL     OW91665   7.878   5.555   4.629
29923SOL    HW191666   7.788   5.526   4.614
29923SOL    HW291667   7.932   5.480   4.603
29924SOL     OW91668   2.997   3.263   5.534
29924SOL    HW191669   3.069   3.323   5.516
29924SOL    HW291670   2.943   3.265   5.455
29925SOL     OW91671  10.042  13.537   2.419
29925SOL    HW191672   9.982  13.509   2.350
29925SOL    HW291673  10.069  13.625   2.393
29926SOL     OW91674   8.015  10.559   6.116
29926SOL    HW191675   8.024  10.637   6.061
29926SOL    HW291676   8.105  10.539   6.144
29927SOL     OW91677   1.313  12.871   6.975
29927SOL    HW191678   1.357  12.854   7.058
29927SOL    HW291679   1.378  12.847   6.908
29928SOL     OW91680   1.463   6.470   2.560
29928SOL    HW191681   1.503   6.449   2.644
29928SOL    HW291682   1.369   6.470   2.577
29929SOL     OW91683   4.457   4.290   5.913
29929SOL    HW191684   4.437   4.375   5.951
29929SOL    HW291685   4.441   4.228   5.984
29930SOL     OW91686   6.757   0.796  10.320
29930SOL    HW191687   6.771   0.852  10.397
29930SOL    HW291688   6.821   0.726  10.329
29931SOL     OW91689   6.703   7.565   1.489
29931SOL    HW191690   6.694   7.569   1.584
29931SOL    HW291691   6.673   7.477   1.465
29932SOL     OW91692  11.959   2.158   6.548
29932SOL    HW191693  12.000   2.244   6.558
29932SOL    HW291694  11.870   2.171   6.580
29933SOL     OW91695   4.627   6.839   0.381
29933SOL    HW191696   4.680   6.764   0.352
29933SOL    HW291697   4.691   6.903   0.411
29934SOL     OW91698   4.670   7.758   8.636
29934SOL    HW191699   4.762   7.778   8.618
29934SOL    HW291700   4.644   7.699   8.566
29935SOL     OW91701   7.212  12.876   8.209
29935SOL    HW191702   7.273  12.847   8.277
29935SOL    HW291703   7.127  12.876   8.252
29936SOL     OW91704   3.830  13.000   6.571
29936SOL    HW191705   3.871  13.011   6.485
29936SOL    HW291706   3.739  12.976   6.551
29937SOL     OW91707   0.616  13.707  12.011
29937SOL    HW191708   0.608  13.800  11.987
29937SOL    HW291709   0.581  13.703  12.100
29938SOL     OW91710   2.582   2.135   4.256
29938SOL    HW191711   2.650   2.154   4.321
29938SOL    HW291712   2.565   2.220   4.215
29939SOL     OW91713   1.411   2.193   5.177
29939SOL    HW191714   1.457   2.161   5.254
29939SOL    HW291715   1.366   2.116   5.142
29940SOL     OW91716  12.020   1.377   1.382
29940SOL    HW191717  12.055   1.447   1.437
29940SOL    HW291718  11.994   1.420   1.301
29941SOL     OW91719   1.276  13.525  13.513
29941SOL    HW191720   1.225  13.593  13.557
29941SOL    HW291721   1.265  13.447  13.567
29942SOL     OW91722  10.067   8.704  12.120
29942SOL    HW191723  10.018   8.763  12.062
29942SOL    HW291724  10.065   8.619  12.076
29943SOL     OW91725   6.246  14.310  11.475
29943SOL    HW191726   6.306  14.255  11.524
29943SOL    HW291727   6.266  14.400  11.503
29944SOL     OW91728   4.571  13.387   9.035
29944SOL    HW191729   4.538  13.303   9.000
29944SOL    HW291730   4.550  13.450   8.966
29945SOL     OW91731  13.913   3.223   6.187
29945SOL    HW191732  13.906   3.187   6.098
29945SOL    HW291733  13.909   3.146   6.244
29946SOL     OW91734   1.274   0.307   8.752
29946SOL    HW191735   1.236   0.395   8.758
29946SOL    HW291736   1.366   0.319   8.775
29947SOL     OW91737   5.353   0.274  13.968
29947SOL    HW191738   5.268   0.242  13.938
29947SOL    HW291739   5.408   0.271  13.889
29948SOL     OW91740   2.056   9.307   8.812
29948SOL    HW191741   2.037   9.324   8.720
29948SOL    HW291742   2.144   9.270   8.813
29949SOL     OW91743  14.185   8.830  14.623
29949SOL    HW191744  14.110   8.881  14.652
29949SOL    HW291745  14.250   8.841  14.692
29950SOL     OW91746  14.362  13.738   0.061
29950SOL    HW191747  14.290  13.782   0.107
29950SOL    HW291748  14.363  13.778  14.846
29951SOL     OW91749   9.929   9.455   2.614
29951SOL    HW191750  10.024   9.449   2.606
29951SOL    HW291751   9.899   9.492   2.531
29952SOL     OW91752  11.757   3.563   0.011
29952SOL    HW191753  11.740   3.554   0.105
29952SOL    HW291754  11.849   3.588   0.006
29953SOL     OW91755   9.020   6.778   7.453
29953SOL    HW191756   9.046   6.833   7.527
29953SOL    HW291757   9.028   6.835   7.376
29954SOL     OW91758   8.240   4.593   4.843
29954SOL    HW191759   8.245   4.650   4.920
29954SOL    HW291760   8.277   4.646   4.772
29955SOL     OW91761   5.758  11.639   4.929
29955SOL    HW191762   5.752  11.550   4.963
29955SOL    HW291763   5.667  11.666   4.916
29956SOL     OW91764   1.826  12.175   1.786
29956SOL    HW191765   1.790  12.230   1.856
29956SOL    HW291766   1.915  12.155   1.815
29957SOL     OW91767   6.081   8.642   0.643
29957SOL    HW191768   6.119   8.721   0.605
29957SOL    HW291769   6.053   8.669   0.731
29958SOL     OW91770   6.938  12.708   1.367
29958SOL    HW191771   6.993  12.764   1.421
29958SOL    HW291772   6.883  12.660   1.429
29959SOL     OW91773   7.942   1.834   3.219
29959SOL    HW191774   8.019   1.858   3.166
29959SOL    HW291775   7.961   1.869   3.306
29960SOL     OW91776   0.219   4.749   5.970
29960SOL    HW191777   0.293   4.692   5.954
29960SOL    HW291778   0.239   4.790   6.054
29961SOL     OW91779   5.504   7.949  11.989
29961SOL    HW191780   5.578   7.904  12.029
29961SOL    HW291781   5.543   8.023  11.942
29962SOL     OW91782   3.141  11.878  13.036
29962SOL    HW191783   3.070  11.847  13.092
29962SOL    HW291784   3.220  11.863  13.086
29963SOL     OW91785   2.448  14.195   7.534
29963SOL    HW191786   2.415  14.284   7.523
29963SOL    HW291787   2.539  14.206   7.561
29964SOL     OW91788   6.899  13.783   7.215
29964SOL    HW191789   6.957  13.725   7.166
29964SOL    HW291790   6.956  13.827   7.277
29965SOL     OW91791  10.893   0.857   6.517
29965SOL    HW191792  10.877   0.803   6.594
29965SOL    HW291793  10.985   0.843   6.496
29966SOL     OW91794   0.472  10.449   7.814
29966SOL    HW191795   0.441  10.438   7.904
29966SOL    HW291796   0.397  10.426   7.760
29967SOL     OW91797   7.156   9.106   7.789
29967SOL    HW191798   7.250   9.119   7.779
29967SOL    HW291799   7.128   9.071   7.704
29968SOL     OW91800   2.482   6.358   5.422
29968SOL    HW191801   2.562   6.400   5.390
29968SOL    HW291802   2.471   6.281   5.366
29969SOL     OW91803   0.669  10.961   5.405
29969SOL    HW191804   0.647  10.977   5.313
29969SOL    HW291805   0.737  10.894   5.403
29970SOL     OW91806   7.593   1.998  13.258
29970SOL    HW191807   7.512   2.008  13.208
29970SOL    HW291808   7.649   2.068  13.226
29971SOL     OW91809  12.328  12.162  13.706
29971SOL    HW191810  12.343  12.123  13.620
29971SOL    HW291811  12.233  12.166  13.715
29972SOL     OW91812   1.610   3.304   0.050
29972SOL    HW191813   1.676   3.318  14.854
29972SOL    HW291814   1.659   3.266   0.123
29973SOL     OW91815  14.004   8.997   5.778
29973SOL    HW191816  14.094   8.966   5.786
29973SOL    HW291817  13.999   9.073   5.836
29974SOL     OW91818   5.175   1.708   5.214
29974SOL    HW191819   5.219   1.677   5.292
29974SOL    HW291820   5.237   1.769   5.174
29975SOL     OW91821   4.055   0.150   3.947
29975SOL    HW191822   3.995   0.079   3.923
29975SOL    HW291823   4.117   0.109   4.008
29976SOL     OW91824   9.300   3.153   8.761
29976SOL    HW191825   9.307   3.076   8.705
29976SOL    HW291826   9.370   3.211   8.731
29977SOL     OW91827  11.935   4.242   2.438
29977SOL    HW191828  11.883   4.294   2.499
29977SOL    HW291829  12.023   4.277   2.445
29978SOL     OW91830   9.240   1.449  12.945
29978SOL    HW191831   9.154   1.466  12.907
29978SOL    HW291832   9.226   1.456  13.040
29979SOL     OW91833   2.454   3.702   6.661
29979SOL    HW191834   2.539   3.665   6.637
29979SOL    HW291835   2.462   3.796   6.641
29980SOL     OW91836  10.526   9.467   4.679
29980SOL    HW191837  10.556   9.405   4.612
29980SOL    HW291838  10.507   9.413   4.755
29981SOL     OW91839   3.206  14.692   2.907
29981SOL    HW191840   3.243  14.655   2.827
29981SOL    HW291841   3.114  14.706   2.887
29982SOL     OW91842   3.188   1.842   8.449
29982SOL    HW191843   3.267   1.832   8.503
29982SOL    HW291844   3.202   1.924   8.402
29983SOL     OW91845   1.137   3.147  10.883
29983SOL    HW191846   1.107   3.189  10.802
29983SOL    HW291847   1.228   3.176  10.892
29984SOL     OW91848   5.104   8.285  12.925
29984SOL    HW191849   5.153   8.213  12.884
29984SOL    HW291850   5.057   8.244  12.997
29985SOL     OW91851   8.032   5.510   3.987
29985SOL    HW191852   8.117   5.468   3.977
29985SOL    HW291853   8.006   5.491   4.077
29986SOL     OW91854   4.080   6.203  13.304
29986SOL    HW191855   4.025   6.267  13.350
29986SOL    HW291856   4.047   6.204  13.214
29987SOL     OW91857   8.216   6.138  14.078
29987SOL    HW191858   8.264   6.101  14.004
29987SOL    HW291859   8.169   6.064  14.115
29988SOL     OW91860   0.000   7.118  12.962
29988SOL    HW191861  14.784   7.141  12.932
29988SOL    HW291862  14.858   7.051  13.028
29989SOL     OW91863   3.431   7.028   0.007
29989SOL    HW191864   3.404   6.967   0.076
29989SOL    HW291865   3.418   7.114   0.046
29990SOL     OW91866   9.769   1.579   0.922
29990SOL    HW191867   9.715   1.658   0.920
29990SOL    HW291868   9.735   1.529   0.996
29991SOL     OW91869  13.978  13.999  12.806
29991SOL    HW191870  14.012  14.072  12.754
29991SOL    HW291871  13.965  14.037  12.893
29992SOL     OW91872   2.820   7.853   9.362
29992SOL    HW191873   2.867   7.773   9.384
29992SOL    HW291874   2.803   7.846   9.268
29993SOL     OW91875   0.372   3.419   6.812
29993SOL    HW191876   0.465   3.434   6.829
29993SOL    HW291877   0.366   3.405   6.717
29994SOL     OW91878   0.718  10.265   6.683
29994SOL    HW191879   0.636  10.299   6.719
29994SOL    HW291880   0.752  10.336   6.629
29995SOL     OW91881  10.842  12.069   7.655
29995SOL    HW191882  10.865  12.108   7.739
29995SOL    HW291883  10.857  12.139   7.591
29996SOL     OW91884  11.603   1.438  11.379
29996SOL    HW191885  11.555   1.387  11.314
29996SOL    HW291886  11.694   1.434  11.350
29997SOL     OW91887   0.334   3.096  12.769
29997SOL    HW191888   0.327   3.187  12.796
29997SOL    HW291889   0.259   3.081  12.711
29998SOL     OW91890   4.516  13.882  12.234
29998SOL    HW191891   4.448  13.944  12.261
29998SOL    HW291892   4.499  13.867  12.141
29999SOL     OW91893   1.663   7.791   8.101
29999SOL    HW191894   1.578   7.814   8.137
29999SOL    HW291895   1.662   7.696   8.095
30000SOL     OW91896  10.527  14.644   6.341
30000SOL    HW191897  10.501  14.566   6.390
30000SOL    HW291898  10.468  14.713   6.372
30001SOL     OW91899   4.582   8.794   1.306
30001SOL    HW191900   4.577   8.830   1.395
30001SOL    HW291901   4.549   8.864   1.250
30002SOL     OW91902   8.455   6.679   8.846
30002SOL    HW191903   8.441   6.693   8.752
30002SOL    HW291904   8.543   6.642   8.851
30003SOL     OW91905   6.925  13.377   1.589
30003SOL    HW191906   6.940  13.448   1.651
30003SOL    HW291907   6.991  13.391   1.521
30004SOL     OW91908  12.905   0.052   2.680
30004SOL    HW191909  12.991   0.011   2.692
30004SOL    HW291910  12.896   0.111   2.755
30005SOL     OW91911   7.220   7.343  11.056
30005SOL    HW191912   7.288   7.387  11.004
30005SOL    HW291913   7.138   7.374  11.018
30006SOL     OW91914   7.869   8.326  12.067
30006SOL    HW191915   7.876   8.421  12.067
30006SOL    HW291916   7.883   8.300  11.976
30007SOL     OW91917  11.020   5.443   4.725
30007SOL    HW191918  11.016   5.349   4.743
30007SOL    HW291919  11.100   5.454   4.673
30008SOL     OW91920   8.734   1.927   2.940
30008SOL    HW191921   8.816   1.908   2.985
30008SOL    HW291922   8.755   1.918   2.847
30009SOL     OW91923  10.170   3.650   9.141
30009SOL    HW191924  10.153   3.695   9.224
30009SOL    HW291925  10.101   3.680   9.083
30010SOL     OW91926   0.804   3.513   7.546
30010SOL    HW191927   0.874   3.531   7.484
30010SOL    HW291928   0.728   3.493   7.492
30011SOL     OW91929   4.083   9.829   8.891
30011SOL    HW191930   4.073   9.923   8.907
30011SOL    HW291931   4.169   9.821   8.850
30012SOL     OW91932  13.023   7.294   7.317
30012SOL    HW191933  13.054   7.326   7.232
30012SOL    HW291934  13.040   7.200   7.315
30013SOL     OW91935  13.219   8.116   2.549
30013SOL    HW191936  13.188   8.045   2.493
30013SOL    HW291937  13.161   8.112   2.625
30014SOL     OW91938  13.587  14.463  12.535
30014SOL    HW191939  13.612  14.464  12.443
30014SOL    HW291940  13.589  14.370  12.560
30015SOL     OW91941   9.636  11.676  11.921
30015SOL    HW191942   9.677  11.762  11.936
30015SOL    HW291943   9.705  11.613  11.941
30016SOL     OW91944   8.540  12.350   7.639
30016SOL    HW191945   8.505  12.426   7.593
30016SOL    HW291946   8.512  12.363   7.730
30017SOL     OW91947  10.635   7.682  11.515
30017SOL    HW191948  10.588   7.610  11.472
30017SOL    HW291949  10.567   7.736  11.553
30018SOL     OW91950  10.364   8.956   9.332
30018SOL    HW191951  10.293   8.892   9.330
30018SOL    HW291952  10.377   8.974   9.425
30019SOL     OW91953  11.779  10.678  13.499
30019SOL    HW191954  11.785  10.702  13.407
30019SOL    HW291955  11.830  10.598  13.507
30020SOL     OW91956   6.146   3.327   9.707
30020SOL    HW191957   6.233   3.332   9.666
30020SOL    HW291958   6.154   3.379   9.787
30021SOL     OW91959  10.039   2.815   3.695
30021SOL    HW191960  10.120   2.769   3.716
30021SOL    HW291961  10.066   2.885   3.634
30022SOL     OW91962   5.981   3.847   2.806
30022SOL    HW191963   5.958   3.861   2.714
30022SOL    HW291964   6.019   3.759   2.808
30023SOL     OW91965   5.353  14.585   9.940
30023SOL    HW191966   5.401  14.558  10.018
30023SOL    HW291967   5.359  14.680   9.939
30024SOL     OW91968   3.713   9.241  11.355
30024SOL    HW191969   3.640   9.302  11.346
30024SOL    HW291970   3.791   9.296  11.352
30025SOL     OW91971  10.878   5.954   4.127
30025SOL    HW191972  10.814   5.893   4.092
30025SOL    HW291973  10.900   5.920   4.214
30026SOL     OW91974   4.498   7.960   1.011
30026SOL    HW191975   4.465   7.870   1.007
30026SOL    HW291976   4.582   7.952   1.056
30027SOL     OW91977   3.616   8.050  13.555
30027SOL    HW191978   3.634   7.985  13.623
30027SOL    HW291979   3.521   8.060  13.556
30028SOL     OW91980   9.682   4.679   1.386
30028SOL    HW191981   9.605   4.691   1.442
30028SOL    HW291982   9.756   4.690   1.446
30029SOL     OW91983   4.283  14.066   3.790
30029SOL    HW191984   4.212  14.129   3.795
30029SOL    HW291985   4.242  13.982   3.810
30030SOL     OW91986  14.561   2.451   4.859
30030SOL    HW191987  14.567   2.430   4.952
30030SOL    HW291988  14.468   2.448   4.840
30031SOL     OW91989  14.796   5.401   2.527
30031SOL    HW191990  14.778   5.414   2.434
30031SOL    HW291991  14.747   5.470   2.571
30032SOL     OW91992  12.079   5.112  13.371
30032SOL    HW191993  12.169   5.141  13.362
30032SOL    HW291994  12.027   5.179  13.326
30033SOL     OW91995  14.206  12.556   1.684
30033SOL    HW191996  14.199  12.651   1.686
30033SOL    HW291997  14.136  12.528   1.624
30034SOL     OW91998  12.585  13.060   4.768
30034SOL    HW191999  12.629  13.004   4.704
30034SOL    HW292000  12.506  13.090   4.723
30035SOL     OW92001  11.941   9.804   0.004
30035SOL    HW192002  11.866   9.760   0.043
30035SOL    HW292003  12.008   9.803   0.072
30036SOL     OW92004   0.152   2.228  12.763
30036SOL    HW192005   0.176   2.233  12.670
30036SOL    HW292006   0.072   2.176  12.765
30037SOL     OW92007  11.658   8.205   1.141
30037SOL    HW192008  11.595   8.193   1.212
30037SOL    HW292009  11.648   8.128   1.086
30038SOL     OW92010   1.816  12.695   9.024
30038SOL    HW192011   1.896  12.734   8.987
30038SOL    HW292012   1.752  12.766   9.023
30039SOL     OW92013  12.032   3.188  12.368
30039SOL    HW192014  12.109   3.147  12.408
30039SOL    HW292015  12.068   3.246  12.301
30040SOL     OW92016  10.967   0.139   0.896
30040SOL    HW192017  10.905   0.172   0.961
30040SOL    HW292018  10.962   0.202   0.824
30041SOL     OW92019   3.687  13.651   7.322
30041SOL    HW192020   3.685  13.608   7.237
30041SOL    HW292021   3.721  13.585   7.382
30042SOL     OW92022  10.600  11.670   8.736
30042SOL    HW192023  10.515  11.710   8.715
30042SOL    HW292024  10.582  11.611   8.809
30043SOL     OW92025   2.982   1.979   5.908
30043SOL    HW192026   3.008   2.067   5.879
30043SOL    HW292027   3.024   1.920   5.846
30044SOL     OW92028   1.211   3.863  11.892
30044SOL    HW192029   1.180   3.826  11.810
30044SOL    HW292030   1.221   3.957  11.874
30045SOL     OW92031   3.983  11.130  10.592
30045SOL    HW192032   3.910  11.071  10.572
30045SOL    HW292033   4.049  11.109  10.527
30046SOL     OW92034   9.169  11.180   3.448
30046SOL    HW192035   9.129  11.215   3.527
30046SOL    HW292036   9.262  11.198   3.458
30047SOL     OW92037  14.149  14.488  10.764
30047SOL    HW192038  14.163  14.570  10.810
30047SOL    HW292039  14.067  14.454  10.800
30048SOL     OW92040  12.240   5.899   4.022
30048SOL    HW192041  12.231   5.988   3.987
30048SOL    HW292042  12.304   5.908   4.092
30049SOL     OW92043  11.547  13.024  12.666
30049SOL    HW192044  11.467  12.987  12.629
30049SOL    HW292045  11.607  12.950  12.672
30050SOL     OW92046  10.986   4.066   4.230
30050SOL    HW192047  10.931   4.104   4.298
30050SOL    HW292048  11.028   4.141   4.188
30051SOL     OW92049   5.952  13.970   0.031
30051SOL    HW192050   6.008  13.982   0.107
30051SOL    HW292051   5.872  14.017   0.052
30052SOL     OW92052   6.494   9.177   4.016
30052SOL    HW192053   6.440   9.107   3.980
30052SOL    HW292054   6.444   9.209   4.092
30053SOL     OW92055  12.488  10.269  14.219
30053SOL    HW192056  12.550  10.261  14.147
30053SOL    HW292057  12.542  10.279  14.297
30054SOL     OW92058  10.699   0.369   1.162
30054SOL    HW192059  10.672   0.336   1.247
30054SOL    HW292060  10.683   0.464   1.167
30055SOL     OW92061   6.046   6.271  11.729
30055SOL    HW192062   6.052   6.356  11.686
30055SOL    HW292063   6.040   6.291  11.823
30056SOL     OW92064   9.570  10.473  12.805
30056SOL    HW192065   9.494  10.465  12.748
30056SOL    HW292066   9.622  10.544  12.766
30057SOL     OW92067   1.019   6.838   9.087
30057SOL    HW192068   1.093   6.784   9.113
30057SOL    HW292069   1.050   6.885   9.010
30058SOL     OW92070  14.816   0.780   7.075
30058SOL    HW192071   0.005   0.831   7.021
30058SOL    HW292072  14.832   0.812   7.164
30059SOL     OW92073   4.172   9.937  10.604
30059SOL    HW192074   4.132  10.016  10.641
30059SOL    HW292075   4.247   9.919  10.660
30060SOL     OW92076   7.273   0.683   7.928
30060SOL    HW192077   7.246   0.625   7.998
30060SOL    HW292078   7.195   0.734   7.906
30061SOL     OW92079   1.901   3.361   4.862
30061SOL    HW192080   1.970   3.412   4.905
30061SOL    HW292081   1.889   3.402   4.777
30062SOL     OW92082  11.926   3.932   3.380
30062SOL    HW192083  11.833   3.951   3.366
30062SOL    HW292084  11.931   3.836   3.380
30063SOL     OW92085  12.587  13.335   5.950
30063SOL    HW192086  12.511  13.388   5.975
30063SOL    HW292087  12.605  13.282   6.028
30064SOL     OW92088   1.539   8.310   9.398
30064SOL    HW192089   1.507   8.388   9.352
30064SOL    HW292090   1.625   8.293   9.359
30065SOL     OW92091   1.958  11.649   7.396
30065SOL    HW192092   1.895  11.579   7.379
30065SOL    HW292093   2.042  11.604   7.403
30066SOL     OW92094  11.526  11.724   7.610
30066SOL    HW192095  11.521  11.806   7.562
30066SOL    HW292096  11.616  11.693   7.595
30067SOL     OW92097   3.136   2.172  11.491
30067SOL    HW192098   3.169   2.145  11.405
30067SOL    HW292099   3.131   2.267  11.485
30068SOL     OW92100   3.000   5.184   3.049
30068SOL    HW192101   3.086   5.223   3.038
30068SOL    HW292102   2.964   5.226   3.128
30069SOL     OW92103  14.270  10.244   2.273
30069SOL    HW192104  14.192  10.264   2.221
30069SOL    HW292105  14.259  10.152   2.297
30070SOL     OW92106  12.791   9.523   6.742
30070SOL    HW192107  12.794   9.514   6.837
30070SOL    HW292108  12.849   9.454   6.709
30071SOL     OW92109  13.143   1.954   2.009
30071SOL    HW192110  13.062   1.923   2.050
30071SOL    HW292111  13.127   1.945   1.915
30072SOL     OW92112  12.318  11.991   4.889
30072SOL    HW192113  12.375  12.042   4.946
30072SOL    HW292114  12.368  11.982   4.807
30073SOL     OW92115  13.263   1.609   1.621
30073SOL    HW192116  13.316   1.529   1.617
30073SOL    HW292117  13.298   1.656   1.696
30074SOL     OW92118   0.816  10.901   8.201
30074SOL    HW192119   0.897  10.952   8.210
30074SOL    HW292120   0.764  10.950   8.137
30075SOL     OW92121   3.592   3.035  10.174
30075SOL    HW192122   3.622   3.081  10.252
30075SOL    HW292123   3.671   3.016  10.125
30076SOL     OW92124  10.770  11.937   7.972
30076SOL    HW192125  10.731  11.918   7.886
30076SOL    HW292126  10.844  11.877   7.978
30077SOL     OW92127  13.756  13.581   7.013
30077SOL    HW192128  13.670  13.577   6.971
30077SOL    HW292129  13.738  13.605   7.104
30078SOL     OW92130   4.579   6.217   8.425
30078SOL    HW192131   4.572   6.302   8.469
30078SOL    HW292132   4.670   6.191   8.438
30079SOL     OW92133  12.245   7.511  14.027
30079SOL    HW192134  12.190   7.577  14.070
30079SOL    HW292135  12.309   7.561  13.978
30080SOL     OW92136  13.551   2.573   3.995
30080SOL    HW192137  13.567   2.526   4.077
30080SOL    HW292138  13.455   2.575   3.988
30081SOL     OW92139   7.746   4.683   8.112
30081SOL    HW192140   7.819   4.661   8.054
30081SOL    HW292141   7.670   4.640   8.072
30082SOL     OW92142   3.886  13.487   6.400
30082SOL    HW192143   3.948  13.467   6.470
30082SOL    HW292144   3.876  13.405   6.352
30083SOL     OW92145  13.817  14.103   0.576
30083SOL    HW192146  13.759  14.064   0.641
30083SOL    HW292147  13.779  14.189   0.557
30084SOL     OW92148   0.261   0.993   1.052
30084SOL    HW192149   0.181   1.004   1.103
30084SOL    HW292150   0.282   0.900   1.060
30085SOL     OW92151  14.497   6.387   4.867
30085SOL    HW192152  14.414   6.347   4.895
30085SOL    HW292153  14.495   6.380   4.771
30086SOL     OW92154   9.664   6.092   1.628
30086SOL    HW192155   9.664   6.125   1.718
30086SOL    HW292156   9.604   6.151   1.582
30087SOL     OW92157   6.166  14.718   5.308
30087SOL    HW192158   6.254  14.701   5.341
30087SOL    HW292159   6.160  14.813   5.301
30088SOL     OW92160   8.436   1.589  14.317
30088SOL    HW192161   8.470   1.596  14.406
30088SOL    HW292162   8.352   1.634  14.319
30089SOL     OW92163   5.547  13.102   8.753
30089SOL    HW192164   5.642  13.086   8.753
30089SOL    HW292165   5.537  13.190   8.717
30090SOL     OW92166   5.408  12.978   2.258
30090SOL    HW192167   5.492  12.950   2.294
30090SOL    HW292168   5.419  13.071   2.241
30091SOL     OW92169   7.691   1.357  10.402
30091SOL    HW192170   7.656   1.384  10.487
30091SOL    HW292171   7.689   1.437  10.349
30092SOL     OW92172   2.399  12.117  10.858
30092SOL    HW192173   2.380  12.056  10.787
30092SOL    HW292174   2.495  12.122  10.860
30093SOL     OW92175   9.051   1.204   2.229
30093SOL    HW192176   9.116   1.171   2.167
30093SOL    HW292177   9.025   1.289   2.194
30094SOL     OW92178   1.958   7.339   2.960
30094SOL    HW192179   1.896   7.351   3.033
30094SOL    HW292180   1.904   7.317   2.885
30095SOL     OW92181   2.975   1.661  14.016
30095SOL    HW192182   2.955   1.697  14.103
30095SOL    HW292183   2.902   1.601  13.998
30096SOL     OW92184  11.949   5.893   6.726
30096SOL    HW192185  11.982   5.965   6.778
30096SOL    HW292186  11.872   5.862   6.774
30097SOL     OW92187   7.330   3.122  11.289
30097SOL    HW192188   7.415   3.161  11.267
30097SOL    HW292189   7.318   3.144  11.382
30098SOL     OW92190   0.802  11.970  12.429
30098SOL    HW192191   0.887  12.013  12.414
30098SOL    HW292192   0.764  11.964  12.341
30099SOL     OW92193   1.627   1.549   3.653
30099SOL    HW192194   1.656   1.537   3.744
30099SOL    HW292195   1.697   1.599   3.612
30100SOL     OW92196  10.445   4.744   8.870
30100SOL    HW192197  10.504   4.673   8.847
30100SOL    HW292198  10.445   4.745   8.966
30101SOL     OW92199   8.285  13.040   0.237
30101SOL    HW192200   8.326  12.955   0.223
30101SOL    HW292201   8.225  13.051   0.164
30102SOL     OW92202   5.794  12.819   3.624
30102SOL    HW192203   5.861  12.757   3.597
30102SOL    HW292204   5.822  12.903   3.588
30103SOL     OW92205  12.091   7.103  10.401
30103SOL    HW192206  12.083   7.109  10.496
30103SOL    HW292207  12.169   7.155  10.380
30104SOL     OW92208   9.698  10.558   0.923
30104SOL    HW192209   9.786  10.544   0.956
30104SOL    HW292210   9.709  10.613   0.846
30105SOL     OW92211   1.540  13.071   9.337
30105SOL    HW192212   1.632  13.049   9.351
30105SOL    HW292213   1.503  13.077   9.425
30106SOL     OW92214   1.976  11.224   9.055
30106SOL    HW192215   1.925  11.199   8.977
30106SOL    HW292216   1.913  11.270   9.111
30107SOL     OW92217  13.223   2.529   8.384
30107SOL    HW192218  13.127   2.533   8.384
30107SOL    HW292219  13.249   2.592   8.316
30108SOL     OW92220   4.113   4.307  12.673
30108SOL    HW192221   4.100   4.354  12.755
30108SOL    HW292222   4.203   4.328  12.647
30109SOL     OW92223   7.259   3.431  11.004
30109SOL    HW192224   7.207   3.356  11.034
30109SOL    HW292225   7.346   3.394  10.990
30110SOL     OW92226   9.469   6.237  14.618
30110SOL    HW192227   9.388   6.201  14.656
30110SOL    HW292228   9.526   6.252  14.693
30111SOL     OW92229   1.032   5.109   3.307
30111SOL    HW192230   1.009   5.137   3.218
30111SOL    HW292231   1.103   5.167   3.333
30112SOL     OW92232   5.622  10.155   6.706
30112SOL    HW192233   5.538  10.192   6.679
30112SOL    HW292234   5.633  10.078   6.651
30113SOL     OW92235  11.397   5.614   6.347
30113SOL    HW192236  11.378   5.543   6.285
30113SOL    HW292237  11.465   5.666   6.303
30114SOL     OW92238   3.687  11.595  11.885
30114SOL    HW192239   3.672  11.616  11.978
30114SOL    HW292240   3.600  11.573  11.852
30115SOL     OW92241   2.632   0.721  12.583
30115SOL    HW192242   2.605   0.813  12.579
30115SOL    HW292243   2.571   0.675  12.526
30116SOL     OW92244   3.812  13.119  14.867
30116SOL    HW192245   3.729  13.154  14.835
30116SOL    HW292246   3.803  13.123   0.091
30117SOL     OW92247  12.227   1.335  11.438
30117SOL    HW192248  12.204   1.244  11.423
30117SOL    HW292249  12.180   1.359  11.518
30118SOL     OW92250  12.460   8.060   3.628
30118SOL    HW192251  12.402   8.095   3.695
30118SOL    HW292252  12.543   8.105   3.642
30119SOL     OW92253  10.673   9.990   6.916
30119SOL    HW192254  10.612  10.001   6.989
30119SOL    HW292255  10.758  10.013   6.954
30120SOL     OW92256   7.994  13.401   8.153
30120SOL    HW192257   7.987  13.484   8.201
30120SOL    HW292258   7.957  13.336   8.212
30121SOL     OW92259   3.773  13.871  10.559
30121SOL    HW192260   3.851  13.820  10.579
30121SOL    HW292261   3.803  13.937  10.496
30122SOL     OW92262   0.929   4.593   5.446
30122SOL    HW192263   0.971   4.627   5.525
30122SOL    HW292264   0.936   4.498   5.455
30123SOL     OW92265  11.777   4.087   1.867
30123SOL    HW192266  11.712   4.026   1.903
30123SOL    HW292267  11.849   4.084   1.929
30124SOL     OW92268   6.816  13.119   2.834
30124SOL    HW192269   6.868  13.123   2.754
30124SOL    HW292270   6.748  13.186   2.822
30125SOL     OW92271   2.215   4.847   2.935
30125SOL    HW192272   2.122   4.851   2.957
30125SOL    HW292273   2.220   4.784   2.863
30126SOL     OW92274   1.950   8.581  10.552
30126SOL    HW192275   1.980   8.535  10.474
30126SOL    HW292276   1.886   8.522  10.592
30127SOL     OW92277   0.412   0.458   0.239
30127SOL    HW192278   0.322   0.432   0.259
30127SOL    HW292279   0.408   0.552   0.225
30128SOL     OW92280   6.528  13.647  10.422
30128SOL    HW192281   6.532  13.552  10.430
30128SOL    HW292282   6.467  13.675  10.490
30129SOL     OW92283   4.681   1.877   2.239
30129SOL    HW192284   4.669   1.782   2.237
30129SOL    HW292285   4.593   1.913   2.245
30130SOL     OW92286   5.713   9.385  14.238
30130SOL    HW192287   5.684   9.465  14.194
30130SOL    HW292288   5.808   9.385  14.227
30131SOL     OW92289   8.943   1.689   8.464
30131SOL    HW192290   8.939   1.728   8.377
30131SOL    HW292291   8.867   1.630   8.467
30132SOL     OW92292   1.010  10.032   5.510
30132SOL    HW192293   1.006  10.083   5.590
30132SOL    HW292294   1.047   9.948   5.537
30133SOL     OW92295   6.910  13.860  13.789
30133SOL    HW192296   6.830  13.901  13.823
30133SOL    HW292297   6.976  13.928  13.793
30134SOL     OW92298   7.829  11.506   9.729
30134SOL    HW192299   7.849  11.599   9.724
30134SOL    HW292300   7.914  11.463   9.731
30135SOL     OW92301   3.334   3.421  14.203
30135SOL    HW192302   3.308   3.428  14.295
30135SOL    HW292303   3.413   3.475  14.196
30136SOL     OW92304   7.470   1.619   9.856
30136SOL    HW192305   7.397   1.640   9.913
30136SOL    HW292306   7.441   1.542   9.807
30137SOL     OW92307  12.252   3.437  12.853
30137SOL    HW192308  12.193   3.403  12.919
30137SOL    HW292309  12.202   3.505  12.807
30138SOL     OW92310  11.926  12.424   1.679
30138SOL    HW192311  11.867  12.462   1.614
30138SOL    HW292312  11.923  12.484   1.753
30139SOL     OW92313  14.053   9.863   4.851
30139SOL    HW192314  14.013   9.889   4.934
30139SOL    HW292315  14.127   9.923   4.840
30140SOL     OW92316   5.503   4.099   1.976
30140SOL    HW192317   5.467   4.142   1.898
30140SOL    HW292318   5.571   4.041   1.941
30141SOL     OW92319   0.855  12.087   0.933
30141SOL    HW192320   0.825  12.151   0.998
30141SOL    HW292321   0.898  12.019   0.984
30142SOL     OW92322   2.515   0.810   1.457
30142SOL    HW192323   2.442   0.839   1.511
30142SOL    HW292324   2.566   0.889   1.439
30143SOL     OW92325   1.493   8.866  12.931
30143SOL    HW192326   1.483   8.941  12.873
30143SOL    HW292327   1.511   8.904  13.017
30144SOL     OW92328   8.018   7.880   3.414
30144SOL    HW192329   8.015   7.954   3.474
30144SOL    HW292330   8.106   7.883   3.377
30145SOL     OW92331   4.935  13.112   9.371
30145SOL    HW192332   4.897  13.024   9.371
30145SOL    HW292333   4.909  13.148   9.286
30146SOL     OW92334   5.830  10.821  12.088
30146SOL    HW192335   5.793  10.734  12.074
30146SOL    HW292336   5.894  10.809  12.158
30147SOL     OW92337  11.557   5.646  14.348
30147SOL    HW192338  11.522   5.734  14.361
30147SOL    HW292339  11.631   5.641  14.409
30148SOL     OW92340   4.651   1.404   5.712
30148SOL    HW192341   4.682   1.351   5.786
30148SOL    HW292342   4.709   1.480   5.710
30149SOL     OW92343   3.515  10.294   6.155
30149SOL    HW192344   3.472  10.343   6.084
30149SOL    HW292345   3.449  10.230   6.182
30150SOL     OW92346   4.249  12.118   9.768
30150SOL    HW192347   4.266  12.117   9.674
30150SOL    HW292348   4.257  12.027   9.794
30151SOL     OW92349  12.065   4.126   1.451
30151SOL    HW192350  12.133   4.068   1.417
30151SOL    HW292351  11.991   4.068   1.470
30152SOL     OW92352   9.259   4.978   8.204
30152SOL    HW192353   9.232   5.014   8.119
30152SOL    HW292354   9.269   5.056   8.260
30153SOL     OW92355   7.275   3.385   3.613
30153SOL    HW192356   7.182   3.405   3.621
30153SOL    HW292357   7.294   3.394   3.519
30154SOL     OW92358   1.346  11.566   6.497
30154SOL    HW192359   1.312  11.614   6.422
30154SOL    HW292360   1.430  11.531   6.468
30155SOL     OW92361   9.752   5.429   2.241
30155SOL    HW192362   9.678   5.436   2.181
30155SOL    HW292363   9.828   5.454   2.189
30156SOL     OW92364  12.093   4.798  12.332
30156SOL    HW192365  12.054   4.885  12.321
30156SOL    HW292366  12.172   4.814  12.384
30157SOL     OW92367   0.985   1.539  11.785
30157SOL    HW192368   0.926   1.548  11.710
30157SOL    HW292369   1.071   1.522  11.746
30158SOL     OW92370   7.673  10.453   6.955
30158SOL    HW192371   7.724  10.395   6.897
30158SOL    HW292372   7.708  10.540   6.938
30159SOL     OW92373   2.375   0.975  13.473
30159SOL    HW192374   2.419   1.060  13.480
30159SOL    HW292375   2.306   0.979  13.539
30160SOL     OW92376  12.837   2.743  12.725
30160SOL    HW192377  12.838   2.726  12.631
30160SOL    HW292378  12.919   2.788  12.742
30161SOL     OW92379   6.220   2.352   5.809
30161SOL    HW192380   6.238   2.381   5.719
30161SOL    HW292381   6.303   2.365   5.855
30162SOL     OW92382  12.708  14.645   5.121
30162SOL    HW192383  12.662  14.729   5.117
30162SOL    HW292384  12.731  14.626   5.031
30163SOL     OW92385   4.117   6.218  13.991
30163SOL    HW192386   4.085   6.207  13.901
30163SOL    HW292387   4.040   6.204  14.046
30164SOL     OW92388   4.840   5.281   3.007
30164SOL    HW192389   4.806   5.341   3.073
30164SOL    HW292390   4.923   5.250   3.043
30165SOL     OW92391   7.285   1.875  14.116
30165SOL    HW192392   7.375   1.906  14.125
30165SOL    HW292393   7.262   1.896  14.026
30166SOL     OW92394  10.770  14.601  10.826
30166SOL    HW192395  10.738  14.570  10.911
30166SOL    HW292396  10.711  14.673  10.803
30167SOL     OW92397   3.684  11.172   4.354
30167SOL    HW192398   3.770  11.184   4.313
30167SOL    HW292399   3.632  11.128   4.287
30168SOL     OW92400   5.196   8.635   6.968
30168SOL    HW192401   5.132   8.680   7.023
30168SOL    HW292402   5.275   8.631   7.021
30169SOL     OW92403   9.842   5.387   6.243
30169SOL    HW192404   9.905   5.333   6.195
30169SOL    HW292405   9.776   5.326   6.274
30170SOL     OW92406   0.327  12.933   6.165
30170SOL    HW192407   0.353  12.947   6.074
30170SOL    HW292408   0.232  12.919   6.161
30171SOL     OW92409  12.729  11.393   6.106
30171SOL    HW192410  12.766  11.356   6.186
30171SOL    HW292411  12.727  11.488   6.122
30172SOL     OW92412   9.079   4.579   4.833
30172SOL    HW192413   9.030   4.659   4.848
30172SOL    HW292414   9.168   4.608   4.812
30173SOL     OW92415  13.565   5.421   4.892
30173SOL    HW192416  13.640   5.467   4.929
30173SOL    HW292417  13.498   5.425   4.959
30174SOL     OW92418   0.958   0.939  11.609
30174SOL    HW192419   0.865   0.927  11.591
30174SOL    HW292420   0.990   0.852  11.634
30175SOL     OW92421   5.736   6.115   2.523
30175SOL    HW192422   5.708   6.195   2.566
30175SOL    HW292423   5.685   6.113   2.441
30176SOL     OW92424  11.511   7.043   0.570
30176SOL    HW192425  11.496   6.995   0.489
30176SOL    HW292426  11.430   7.092   0.585
30177SOL     OW92427  11.192   7.194   3.551
30177SOL    HW192428  11.187   7.288   3.536
30177SOL    HW292429  11.110   7.173   3.596
30178SOL     OW92430   7.335   1.076   2.536
30178SOL    HW192431   7.395   1.134   2.585
30178SOL    HW292432   7.281   1.036   2.604
30179SOL     OW92433  14.559   9.275   4.392
30179SOL    HW192434  14.624   9.287   4.461
30179SOL    HW292435  14.518   9.190   4.411
30180SOL     OW92436  14.544   9.995   3.647
30180SOL    HW192437  14.486  10.070   3.660
30180SOL    HW292438  14.507   9.948   3.572
30181SOL     OW92439  14.141  11.838   4.349
30181SOL    HW192440  14.218  11.895   4.350
30181SOL    HW292441  14.086  11.875   4.279
30182SOL     OW92442   6.243  11.059   1.058
30182SOL    HW192443   6.221  11.031   0.969
30182SOL    HW292444   6.327  11.103   1.049
30183SOL     OW92445   3.827  14.433  12.381
30183SOL    HW192446   3.754  14.482  12.419
30183SOL    HW292447   3.835  14.355  12.436
30184SOL     OW92448   6.365   3.282   2.438
30184SOL    HW192449   6.293   3.222   2.457
30184SOL    HW292450   6.426   3.270   2.511
30185SOL     OW92451   8.166   1.835   5.678
30185SOL    HW192452   8.129   1.748   5.694
30185SOL    HW292453   8.208   1.828   5.593
30186SOL     OW92454   0.229  11.662   8.929
30186SOL    HW192455   0.256  11.627   8.844
30186SOL    HW292456   0.247  11.591   8.991
30187SOL     OW92457  10.352  10.288  13.714
30187SOL    HW192458  10.368  10.196  13.736
30187SOL    HW292459  10.412  10.306  13.642
30188SOL     OW92460   4.267   9.796  14.262
30188SOL    HW192461   4.213   9.857  14.311
30188SOL    HW292462   4.214   9.772  14.186
30189SOL     OW92463   8.780  11.291   8.056
30189SOL    HW192464   8.706  11.304   8.115
30189SOL    HW292465   8.786  11.197   8.044
30190SOL     OW92466  13.202  13.333  12.776
30190SOL    HW192467  13.207  13.300  12.866
30190SOL    HW292468  13.116  13.306  12.746
30191SOL     OW92469  11.196   6.580   7.410
30191SOL    HW192470  11.289   6.582   7.434
30191SOL    HW292471  11.152   6.631   7.478
30192SOL     OW92472   0.613  12.829  12.354
30192SOL    HW192473   0.639  12.738  12.343
30192SOL    HW292474   0.695  12.879  12.353
30193SOL     OW92475   4.410   0.714  11.953
30193SOL    HW192476   4.370   0.750  12.032
30193SOL    HW292477   4.489   0.767  11.940
30194SOL     OW92478   0.650  13.566  12.939
30194SOL    HW192479   0.577  13.507  12.956
30194SOL    HW292480   0.709  13.518  12.881
30195SOL     OW92481  11.289  11.529  10.036
30195SOL    HW192482  11.300  11.617  10.001
30195SOL    HW292483  11.346  11.527  10.113
30196SOL     OW92484   8.588  11.922   3.419
30196SOL    HW192485   8.549  11.987   3.478
30196SOL    HW292486   8.542  11.935   3.336
30197SOL     OW92487  14.324   9.604   6.172
30197SOL    HW192488  14.343   9.553   6.251
30197SOL    HW292489  14.319   9.539   6.102
30198SOL     OW92490  11.092  10.951   3.167
30198SOL    HW192491  11.049  11.008   3.231
30198SOL    HW292492  11.065  10.863   3.191
30199SOL     OW92493   1.115   2.192   3.532
30199SOL    HW192494   1.201   2.169   3.566
30199SOL    HW292495   1.128   2.201   3.438
30200SOL     OW92496   7.204   8.581   2.055
30200SOL    HW192497   7.253   8.532   2.121
30200SOL    HW292498   7.140   8.518   2.022
30201SOL     OW92499   8.409  10.405   1.412
30201SOL    HW192500   8.352  10.329   1.399
30201SOL    HW292501   8.439  10.428   1.324
30202SOL     OW92502  14.268   1.881   1.972
30202SOL    HW192503  14.354   1.844   1.954
30202SOL    HW292504  14.213   1.850   1.900
30203SOL     OW92505   3.568   4.770  10.241
30203SOL    HW192506   3.485   4.767  10.289
30203SOL    HW292507   3.616   4.692  10.270
30204SOL     OW92508   4.257  12.712   8.970
30204SOL    HW192509   4.168  12.698   8.940
30204SOL    HW292510   4.253  12.792   9.023
30205SOL     OW92511  14.325  14.291   0.452
30205SOL    HW192512  14.284  14.369   0.416
30205SOL    HW292513  14.419  14.306   0.442
30206SOL     OW92514   3.090   0.225   3.412
30206SOL    HW192515   3.016   0.177   3.374
30206SOL    HW292516   3.127   0.274   3.338
30207SOL     OW92517   3.701   9.067  14.727
30207SOL    HW192518   3.616   9.068  14.682
30207SOL    HW292519   3.764   9.044  14.659
30208SOL     OW92520   7.445   6.176  11.026
30208SOL    HW192521   7.444   6.123  10.946
30208SOL    HW292522   7.382   6.133  11.084
30209SOL     OW92523   5.500  10.068  14.192
30209SOL    HW192524   5.421  10.083  14.140
30209SOL    HW292525   5.547  10.000  14.145
30210SOL     OW92526   4.922   9.085  13.410
30210SOL    HW192527   4.943   8.996  13.383
30210SOL    HW292528   4.864   9.074  13.486
30211SOL     OW92529  13.899   8.571   2.180
30211SOL    HW192530  13.882   8.494   2.126
30211SOL    HW292531  13.817   8.620   2.177
30212SOL     OW92532   9.523   7.667  12.894
30212SOL    HW192533   9.591   7.734  12.889
30212SOL    HW292534   9.497   7.664  12.986
30213SOL     OW92535   7.268   4.013   9.966
30213SOL    HW192536   7.310   4.083  10.016
30213SOL    HW292537   7.271   3.937  10.024
30214SOL     OW92538   3.567  10.598   4.864
30214SOL    HW192539   3.601  10.582   4.952
30214SOL    HW292540   3.525  10.683   4.869
30215SOL     OW92541  10.921  11.476   6.594
30215SOL    HW192542  10.866  11.508   6.666
30215SOL    HW292543  10.912  11.381   6.597
30216SOL     OW92544   2.492   3.363  13.861
30216SOL    HW192545   2.507   3.445  13.906
30216SOL    HW292546   2.473   3.388  13.771
30217SOL     OW92547  10.829   6.103   7.476
30217SOL    HW192548  10.907   6.083   7.424
30217SOL    HW292549  10.862   6.116   7.565
30218SOL     OW92550   4.801   8.444  12.253
30218SOL    HW192551   4.748   8.519  12.282
30218SOL    HW292552   4.871   8.438  12.317
30219SOL     OW92553  11.573   2.578  14.333
30219SOL    HW192554  11.616   2.600  14.416
30219SOL    HW292555  11.530   2.660  14.306
30220SOL     OW92556   2.647   9.368   0.356
30220SOL    HW192557   2.719   9.316   0.319
30220SOL    HW292558   2.655   9.453   0.313
30221SOL     OW92559   9.178   6.928  14.366
30221SOL    HW192560   9.236   6.853  14.375
30221SOL    HW292561   9.205   6.988  14.436
30222SOL     OW92562  13.583  10.811   2.305
30222SOL    HW192563  13.542  10.727   2.285
30222SOL    HW292564  13.677  10.796   2.292
30223SOL     OW92565  10.686   5.452   6.734
30223SOL    HW192566  10.754   5.433   6.799
30223SOL    HW292567  10.666   5.545   6.746
30224SOL     OW92568  13.035   9.323   7.014
30224SOL    HW192569  12.990   9.322   6.930
30224SOL    HW292570  12.965   9.333   7.079
30225SOL     OW92571  14.364  13.913   4.794
30225SOL    HW192572  14.424  13.840   4.782
30225SOL    HW292573  14.395  13.980   4.733
30226SOL     OW92574   0.475   7.351   7.371
30226SOL    HW192575   0.525   7.345   7.289
30226SOL    HW292576   0.439   7.439   7.370
30227SOL     OW92577   7.172   6.542   7.609
30227SOL    HW192578   7.176   6.487   7.687
30227SOL    HW292579   7.108   6.610   7.629
30228SOL     OW92580  10.679   5.246  12.669
30228SOL    HW192581  10.681   5.340  12.686
30228SOL    HW292582  10.669   5.205  12.755
30229SOL     OW92583  13.405   2.320  13.677
30229SOL    HW192584  13.397   2.253  13.610
30229SOL    HW292585  13.339   2.296  13.743
30230SOL     OW92586   7.130   0.996   9.261
30230SOL    HW192587   7.185   0.921   9.283
30230SOL    HW292588   7.187   1.072   9.273
30231SOL     OW92589   6.775  13.951   2.025
30231SOL    HW192590   6.748  13.859   2.026
30231SOL    HW292591   6.848  13.955   1.964
30232SOL     OW92592   3.214   8.121   9.619
30232SOL    HW192593   3.275   8.194   9.608
30232SOL    HW292594   3.128   8.158   9.598
30233SOL     OW92595  10.849   7.345   8.869
30233SOL    HW192596  10.788   7.272   8.856
30233SOL    HW292597  10.934   7.303   8.882
30234SOL     OW92598   1.463   8.937   8.357
30234SOL    HW192599   1.416   8.863   8.317
30234SOL    HW292600   1.516   8.973   8.286
30235SOL     OW92601   1.854   8.448   7.626
30235SOL    HW192602   1.829   8.471   7.536
30235SOL    HW292603   1.836   8.528   7.676
30236SOL     OW92604   0.919   9.706   4.795
30236SOL    HW192605   0.940   9.617   4.824
30236SOL    HW292606   0.882   9.694   4.707
30237SOL     OW92607   8.014   8.061   3.616
30237SOL    HW192608   7.954   8.134   3.630
30237SOL    HW292609   8.082   8.072   3.682
30238SOL     OW92610   7.624   7.359   6.510
30238SOL    HW192611   7.621   7.385   6.602
30238SOL    HW292612   7.715   7.370   6.484
30239SOL     OW92613   0.651  13.038   2.763
30239SOL    HW192614   0.647  13.110   2.826
30239SOL    HW292615   0.671  13.080   2.680
30240SOL     OW92616   2.861   6.622   0.694
30240SOL    HW192617   2.902   6.597   0.611
30240SOL    HW292618   2.851   6.539   0.741
30241SOL     OW92619  14.504   5.605   8.214
30241SOL    HW192620  14.589   5.570   8.240
30241SOL    HW292621  14.521   5.698   8.197
30242SOL     OW92622   6.424   2.948   0.204
30242SOL    HW192623   6.486   3.008   0.164
30242SOL    HW292624   6.470   2.864   0.209
30243SOL     OW92625   7.604   6.326   4.648
30243SOL    HW192626   7.572   6.303   4.735
30243SOL    HW292627   7.693   6.358   4.663
30244SOL     OW92628   9.660   1.808   0.915
30244SOL    HW192629   9.627   1.831   0.828
30244SOL    HW292630   9.595   1.842   0.976
30245SOL     OW92631   2.260   1.566   2.838
30245SOL    HW192632   2.334   1.513   2.808
30245SOL    HW292633   2.270   1.649   2.792
30246SOL     OW92634   7.073  13.773   3.797
30246SOL    HW192635   7.112  13.688   3.775
30246SOL    HW292636   6.981  13.765   3.770
30247SOL     OW92637  14.231  12.260  12.265
30247SOL    HW192638  14.307  12.205  12.250
30247SOL    HW292639  14.200  12.284  12.178
30248SOL     OW92640   0.535  11.025  14.056
30248SOL    HW192641   0.508  11.116  14.046
30248SOL    HW292642   0.512  10.984  13.972
30249SOL     OW92643   1.057   9.251   6.387
30249SOL    HW192644   1.069   9.338   6.425
30249SOL    HW292645   1.105   9.192   6.445
30250SOL     OW92646   3.165   6.259  12.227
30250SOL    HW192647   3.108   6.336  12.233
30250SOL    HW292648   3.223   6.278  12.154
30251SOL     OW92649   8.043   3.730   9.020
30251SOL    HW192650   7.997   3.651   9.049
30251SOL    HW292651   8.136   3.706   9.023
30252SOL     OW92652   5.440   9.334   0.071
30252SOL    HW192653   5.503   9.294   0.131
30252SOL    HW292654   5.474   9.317  14.855
30253SOL     OW92655  11.604   1.093   0.272
30253SOL    HW192656  11.568   1.181   0.278
30253SOL    HW292657  11.651   1.081   0.355
30254SOL     OW92658   1.429   4.983  10.571
30254SOL    HW192659   1.343   5.023  10.582
30254SOL    HW292660   1.487   5.034  10.627
30255SOL     OW92661  13.852  12.216  12.005
30255SOL    HW192662  13.810  12.140  11.966
30255SOL    HW292663  13.944  12.207  11.981
30256SOL     OW92664   3.907   2.557   7.029
30256SOL    HW192665   3.918   2.628   6.966
30256SOL    HW292666   3.839   2.502   6.990
30257SOL     OW92667  14.206   0.225   7.720
30257SOL    HW192668  14.271   0.237   7.652
30257SOL    HW292669  14.214   0.302   7.776
30258SOL     OW92670   0.647   6.199   2.194
30258SOL    HW192671   0.663   6.263   2.263
30258SOL    HW292672   0.705   6.226   2.122
30259SOL     OW92673   7.017   5.264   5.030
30259SOL    HW192674   7.062   5.233   5.108
30259SOL    HW292675   6.952   5.196   5.011
30260SOL     OW92676  14.559  13.902  12.413
30260SOL    HW192677  14.511  13.832  12.370
30260SOL    HW292678  14.560  13.878  12.505
30261SOL     OW92679  13.402  14.110  11.450
30261SOL    HW192680  13.379  14.195  11.412
30261SOL    HW292681  13.343  14.048  11.407
30262SOL     OW92682   9.830   3.332   5.152
30262SOL    HW192683   9.885   3.351   5.076
30262SOL    HW292684   9.893   3.301   5.219
30263SOL     OW92685  10.082  11.139   2.457
30263SOL    HW192686  10.083  11.171   2.547
30263SOL    HW292687  10.028  11.060   2.460
30264SOL     OW92688  11.712   8.690   9.249
30264SOL    HW192689  11.767   8.611   9.254
30264SOL    HW292690  11.648   8.670   9.180
30265SOL     OW92691   6.110   1.149   6.956
30265SOL    HW192692   6.126   1.224   7.012
30265SOL    HW292693   6.065   1.184   6.880
30266SOL     OW92694   5.206  13.749   1.140
30266SOL    HW192695   5.136  13.684   1.130
30266SOL    HW292696   5.198  13.805   1.063
30267SOL     OW92697  14.679   6.192   3.164
30267SOL    HW192698  14.707   6.158   3.079
30267SOL    HW292699  14.728   6.140   3.228
30268SOL     OW92700  11.348   0.015  12.978
30268SOL    HW192701  11.307  14.800  12.983
30268SOL    HW292702  11.393   0.016  12.894
30269SOL     OW92703  12.172   2.351  11.898
30269SOL    HW192704  12.082   2.344  11.867
30269SOL    HW292705  12.222   2.296  11.837
30270SOL     OW92706   7.733   3.480   4.698
30270SOL    HW192707   7.733   3.384   4.704
30270SOL    HW292708   7.820   3.505   4.728
30271SOL     OW92709   1.116   1.311  12.503
30271SOL    HW192710   1.179   1.251  12.462
30271SOL    HW292711   1.042   1.256  12.527
30272SOL     OW92712   5.888  13.012   4.514
30272SOL    HW192713   5.798  12.978   4.513
30272SOL    HW292714   5.926  12.983   4.431
30273SOL     OW92715  11.591   8.767   2.025
30273SOL    HW192716  11.665   8.786   1.967
30273SOL    HW292717  11.538   8.847   2.022
30274SOL     OW92718   7.418   5.635  13.313
30274SOL    HW192719   7.512   5.617  13.312
30274SOL    HW292720   7.377   5.549  13.323
30275SOL     OW92721   2.105   7.412   4.626
30275SOL    HW192722   2.070   7.423   4.715
30275SOL    HW292723   2.074   7.325   4.599
30276SOL     OW92724   2.844   9.884   2.620
30276SOL    HW192725   2.800   9.822   2.563
30276SOL    HW292726   2.844   9.966   2.572
30277SOL     OW92727  14.361   9.875  13.353
30277SOL    HW192728  14.321   9.957  13.325
30277SOL    HW292729  14.319   9.854  13.436
30278SOL     OW92730   8.701  12.010   0.896
30278SOL    HW192731   8.728  11.982   0.809
30278SOL    HW292732   8.618  12.055   0.883
30279SOL     OW92733   2.400   9.185  10.540
30279SOL    HW192734   2.435   9.233  10.465
30279SOL    HW292735   2.358   9.108  10.501
30280SOL     OW92736  13.961   7.893  12.734
30280SOL    HW192737  13.966   7.802  12.704
30280SOL    HW292738  13.875   7.924  12.703
30281SOL     OW92739   3.838   4.130   9.155
30281SOL    HW192740   3.834   4.225   9.172
30281SOL    HW292741   3.761   4.095   9.200
30282SOL     OW92742   8.184   9.650   3.115
30282SOL    HW192743   8.269   9.657   3.072
30282SOL    HW292744   8.186   9.564   3.158
30283SOL     OW92745   4.777   0.133  12.291
30283SOL    HW192746   4.737   0.111  12.206
30283SOL    HW292747   4.757   0.226  12.303
30284SOL     OW92748  12.692   2.676  14.089
30284SOL    HW192749  12.731   2.618  14.024
30284SOL    HW292750  12.762   2.692  14.153
30285SOL     OW92751  13.716   6.930   5.814
30285SOL    HW192752  13.757   6.988   5.879
30285SOL    HW292753  13.756   6.955   5.731
30286SOL     OW92754   0.911   2.995  12.130
30286SOL    HW192755   0.987   3.019  12.077
30286SOL    HW292756   0.923   3.044  12.212
30287SOL     OW92757   3.213   4.273   3.542
30287SOL    HW192758   3.300   4.310   3.557
30287SOL    HW292759   3.225   4.178   3.554
30288SOL     OW92760  14.779   9.879   7.833
30288SOL    HW192761  14.813   9.797   7.869
30288SOL    HW292762  14.743   9.856   7.748
30289SOL     OW92763   2.685   8.386   5.902
30289SOL    HW192764   2.638   8.463   5.868
30289SOL    HW292765   2.672   8.391   5.997
30290SOL     OW92766   2.685   8.758   8.300
30290SOL    HW192767   2.740   8.705   8.358
30290SOL    HW292768   2.728   8.752   8.215
30291SOL     OW92769   6.558   4.613   0.474
30291SOL    HW192770   6.509   4.547   0.524
30291SOL    HW292771   6.573   4.684   0.536
30292SOL     OW92772   8.232   5.735   0.527
30292SOL    HW192773   8.258   5.824   0.551
30292SOL    HW292774   8.284   5.678   0.583
30293SOL     OW92775   1.250   4.767   8.253
30293SOL    HW192776   1.308   4.812   8.193
30293SOL    HW292777   1.253   4.675   8.226
30294SOL     OW92778   8.342   8.610   6.491
30294SOL    HW192779   8.336   8.529   6.441
30294SOL    HW292780   8.263   8.658   6.468
30295SOL     OW92781   0.458   9.717   7.901
30295SOL    HW192782   0.531   9.744   7.957
30295SOL    HW292783   0.422   9.640   7.944
30296SOL     OW92784   7.476   1.083  12.349
30296SOL    HW192785   7.565   1.114  12.364
30296SOL    HW292786   7.425   1.121  12.420
30297SOL     OW92787   1.436   4.016   2.281
30297SOL    HW192788   1.385   3.935   2.282
30297SOL    HW292789   1.527   3.988   2.291
30298SOL     OW92790  14.115   7.093   6.577
30298SOL    HW192791  14.119   6.998   6.566
30298SOL    HW292792  14.146   7.109   6.666
30299SOL     OW92793  14.851   1.820  13.824
30299SOL    HW192794   0.049   1.766  13.787
30299SOL    HW292795  14.772   1.767  13.813
30300SOL     OW92796   0.409   2.667   6.996
30300SOL    HW192797   0.503   2.678   7.012
30300SOL    HW292798   0.393   2.716   6.915
30301SOL     OW92799  10.635   1.670   0.864
30301SOL    HW192800  10.570   1.738   0.882
30301SOL    HW292801  10.684   1.703   0.789
30302SOL     OW92802   2.732  13.996   6.150
30302SOL    HW192803   2.673  14.059   6.108
30302SOL    HW292804   2.726  13.917   6.096
30303SOL     OW92805  11.331   7.282   1.005
30303SOL    HW192806  11.282   7.345   1.057
30303SOL    HW292807  11.350   7.328   0.923
30304SOL     OW92808   1.413   0.979  12.552
30304SOL    HW192809   1.484   1.008  12.495
30304SOL    HW292810   1.453   0.975  12.639
30305SOL     OW92811   7.555   2.244  10.260
30305SOL    HW192812   7.470   2.276  10.289
30305SOL    HW292813   7.582   2.182  10.327
30306SOL     OW92814  10.282   5.228   0.186
30306SOL    HW192815  10.364   5.275   0.174
30306SOL    HW292816  10.239   5.232   0.101
30307SOL     OW92817   0.685  10.715  12.534
30307SOL    HW192818   0.596  10.713  12.498
30307SOL    HW292819   0.689  10.638  12.591
30308SOL     OW92820   0.220   0.256   3.449
30308SOL    HW192821   0.202   0.278   3.540
30308SOL    HW292822   0.304   0.209   3.451
30309SOL     OW92823   7.349  13.134   0.449
30309SOL    HW192824   7.322  13.063   0.507
30309SOL    HW292825   7.269  13.162   0.406
30310SOL     OW92826  13.363   3.626   8.746
30310SOL    HW192827  13.377   3.660   8.834
30310SOL    HW292828  13.275   3.589   8.747
30311SOL     OW92829   0.529  10.746  13.615
30311SOL    HW192830   0.522  10.673  13.677
30311SOL    HW292831   0.527  10.824  13.670
30312SOL     OW92832   0.644   3.142   7.257
30312SOL    HW192833   0.719   3.107   7.306
30312SOL    HW292834   0.571   3.085   7.282
30313SOL     OW92835   5.782  11.116  10.337
30313SOL    HW192836   5.793  11.021  10.340
30313SOL    HW292837   5.739  11.138  10.420
30314SOL     OW92838  13.261   3.563  11.742
30314SOL    HW192839  13.184   3.514  11.714
30314SOL    HW292840  13.319   3.497  11.779
30315SOL     OW92841   7.943   8.547   4.851
30315SOL    HW192842   7.910   8.559   4.940
30315SOL    HW292843   7.877   8.587   4.795
30316SOL     OW92844   6.697  12.120   6.653
30316SOL    HW192845   6.711  12.029   6.678
30316SOL    HW292846   6.679  12.165   6.736
30317SOL     OW92847  11.990  11.089  11.077
30317SOL    HW192848  12.073  11.121  11.044
30317SOL    HW292849  12.013  11.033  11.151
30318SOL     OW92850   1.761  14.134   8.138
30318SOL    HW192851   1.800  14.058   8.182
30318SOL    HW292852   1.825  14.157   8.071
30319SOL     OW92853  10.676  13.614   0.691
30319SOL    HW192854  10.680  13.697   0.643
30319SOL    HW292855  10.683  13.639   0.783
30320SOL     OW92856   3.495  11.505  14.133
30320SOL    HW192857   3.510  11.596  14.110
30320SOL    HW292858   3.572  11.458  14.100
30321SOL     OW92859  11.858   6.987   6.707
30321SOL    HW192860  11.771   6.972   6.743
30321SOL    HW292861  11.870   6.917   6.642
30322SOL     OW92862  14.759  14.657   6.664
30322SOL    HW192863  14.745  14.645   6.758
30322SOL    HW292864  14.851  14.682   6.656
30323SOL     OW92865   3.667   5.856   4.957
30323SOL    HW192866   3.651   5.907   5.037
30323SOL    HW292867   3.744   5.896   4.918
30324SOL     OW92868  11.956   7.715   6.701
30324SOL    HW192869  11.863   7.690   6.699
30324SOL    HW292870  11.990   7.685   6.617
30325SOL     OW92871  13.789  13.058   1.304
30325SOL    HW192872  13.744  13.089   1.225
30325SOL    HW292873  13.767  12.965   1.308
30326SOL     OW92874   5.297   6.669   7.913
30326SOL    HW192875   5.241   6.695   7.840
30326SOL    HW292876   5.385   6.663   7.876
30327SOL     OW92877  13.355   0.215   1.199
30327SOL    HW192878  13.433   0.162   1.213
30327SOL    HW292879  13.337   0.208   1.105
30328SOL     OW92880   3.900   6.224  11.200
30328SOL    HW192881   3.864   6.280  11.132
30328SOL    HW292882   3.844   6.146  11.199
30329SOL     OW92883   9.153  11.067   0.733
30329SOL    HW192884   9.125  11.096   0.646
30329SOL    HW292885   9.083  11.008   0.761
30330SOL     OW92886  13.696  10.048  13.384
30330SOL    HW192887  13.736   9.974  13.429
30330SOL    HW292888  13.645  10.009  13.313
30331SOL     OW92889  10.732   7.887  14.515
30331SOL    HW192890  10.736   7.886  14.611
30331SOL    HW292891  10.641   7.909  14.495
30332SOL     OW92892   6.900   4.058  13.458
30332SOL    HW192893   6.832   3.993  13.473
30332SOL    HW292894   6.854   4.134  13.423
30333SOL     OW92895   4.693   2.256  12.843
30333SOL    HW192896   4.633   2.201  12.792
30333SOL    HW292897   4.678   2.344  12.809
30334SOL     OW92898   8.125  11.007   1.612
30334SOL    HW192899   8.194  10.961   1.563
30334SOL    HW292900   8.107  11.085   1.561
30335SOL     OW92901   3.946   5.163   3.345
30335SOL    HW192902   3.851   5.172   3.336
30335SOL    HW292903   3.974   5.245   3.383
30336SOL     OW92904   5.428   7.270   0.816
30336SOL    HW192905   5.457   7.332   0.748
30336SOL    HW292906   5.445   7.316   0.898
30337SOL     OW92907   6.565   2.454  12.077
30337SOL    HW192908   6.659   2.458  12.096
30337SOL    HW292909   6.536   2.372  12.117
30338SOL     OW92910  10.300   7.309  13.798
30338SOL    HW192911  10.356   7.315  13.874
30338SOL    HW292912  10.324   7.226  13.757
30339SOL     OW92913   5.565   1.558   0.629
30339SOL    HW192914   5.605   1.487   0.580
30339SOL    HW292915   5.629   1.579   0.698
30340SOL     OW92916   9.217   3.917   0.281
30340SOL    HW192917   9.143   3.957   0.327
30340SOL    HW292918   9.288   3.916   0.345
30341SOL     OW92919  12.928  11.746   6.647
30341SOL    HW192920  12.899  11.675   6.591
30341SOL    HW292921  12.909  11.826   6.598
30342SOL     OW92922   3.955  11.342  10.093
30342SOL    HW192923   3.997  11.321  10.176
30342SOL    HW292924   4.027  11.344  10.030
30343SOL     OW92925   0.270   1.697   3.376
30343SOL    HW192926   0.212   1.773   3.370
30343SOL    HW292927   0.284   1.670   3.286
30344SOL     OW92928   0.030   0.399   3.050
30344SOL    HW192929  14.807   0.410   3.061
30344SOL    HW292930   0.057   0.350   3.128
30345SOL     OW92931  10.877   2.396   0.443
30345SOL    HW192932  10.894   2.436   0.528
30345SOL    HW292933  10.858   2.469   0.385
30346SOL     OW92934  14.787   7.078  13.485
30346SOL    HW192935  14.719   7.072  13.552
30346SOL    HW292936  14.765   7.008  13.423
30347SOL     OW92937  11.573  10.544  10.757
30347SOL    HW192938  11.626  10.619  10.783
30347SOL    HW292939  11.516  10.578  10.687
30348SOL     OW92940   8.565   8.007   8.212
30348SOL    HW192941   8.515   8.037   8.136
30348SOL    HW292942   8.656   8.030   8.192
30349SOL     OW92943   1.129   8.712   1.779
30349SOL    HW192944   1.057   8.656   1.752
30349SOL    HW292945   1.138   8.697   1.873
30350SOL     OW92946  10.964   8.537  14.762
30350SOL    HW192947  10.984   8.538  14.669
30350SOL    HW292948  11.029   8.596  14.801
30351SOL     OW92949   9.226  13.972   3.111
30351SOL    HW192950   9.166  14.039   3.078
30351SOL    HW292951   9.168  13.903   3.143
30352SOL     OW92952   7.135   7.130   2.926
30352SOL    HW192953   7.068   7.085   2.977
30352SOL    HW292954   7.092   7.210   2.896
30353SOL     OW92955   8.195   9.045   8.064
30353SOL    HW192956   8.187   9.025   7.971
30353SOL    HW292957   8.247   8.973   8.100
30354SOL     OW92958   4.986  13.580   7.495
30354SOL    HW192959   4.906  13.629   7.514
30354SOL    HW292960   5.032  13.577   7.579
30355SOL     OW92961   4.685   5.883   9.220
30355SOL    HW192962   4.666   5.806   9.273
30355SOL    HW292963   4.731   5.849   9.144
30356SOL     OW92964   0.189  14.328  14.075
30356SOL    HW192965   0.212  14.254  14.131
30356SOL    HW292966   0.205  14.405  14.130
30357SOL     OW92967   4.090   9.141  13.159
30357SOL    HW192968   4.150   9.131  13.233
30357SOL    HW292969   4.144   9.119  13.082
30358SOL     OW92970   8.586   0.975   6.770
30358SOL    HW192971   8.543   1.036   6.710
30358SOL    HW292972   8.519   0.911   6.792
30359SOL     OW92973   0.294  11.181  11.745
30359SOL    HW192974   0.205  11.146  11.759
30359SOL    HW292975   0.351  11.106  11.762
30360SOL     OW92976   3.195   4.310   2.504
30360SOL    HW192977   3.197   4.394   2.549
30360SOL    HW292978   3.287   4.284   2.498
30361SOL     OW92979   7.428   5.983  14.093
30361SOL    HW192980   7.518   6.007  14.069
30361SOL    HW292981   7.382   5.977  14.009
30362SOL     OW92982   5.788   8.766   4.782
30362SOL    HW192983   5.795   8.824   4.858
30362SOL    HW292984   5.716   8.707   4.803
30363SOL     OW92985   2.432   2.594   9.957
30363SOL    HW192986   2.383   2.642   9.890
30363SOL    HW292987   2.366   2.543  10.004
30364SOL     OW92988  10.705   7.115   5.476
30364SOL    HW192989  10.701   7.049   5.545
30364SOL    HW292990  10.664   7.193   5.514
30365SOL     OW92991  14.664   8.833   5.451
30365SOL    HW192992  14.664   8.904   5.515
30365SOL    HW292993  14.596   8.857   5.388
30366SOL     OW92994   6.709   5.587   1.965
30366SOL    HW192995   6.770   5.581   2.038
30366SOL    HW292996   6.742   5.661   1.913
30367SOL     OW92997  13.472   1.909   7.656
30367SOL    HW192998  13.484   1.899   7.562
30367SOL    HW292999  13.464   1.820   7.690
30368SOL     OW93000  14.403  13.750   9.275
30368SOL    HW193001  14.452  13.692   9.217
30368SOL    HW293002  14.320  13.705   9.291
30369SOL     OW93003  12.764  13.167   6.197
30369SOL    HW193004  12.809  13.237   6.244
30369SOL    HW293005  12.716  13.119   6.264
30370SOL     OW93006  10.115  13.547  10.308
30370SOL    HW193007  10.118  13.485  10.381
30370SOL    HW293008  10.134  13.632  10.349
30371SOL     OW93009   5.808   0.615  13.362
30371SOL    HW193010   5.763   0.531  13.359
30371SOL    HW293011   5.829   0.634  13.271
30372SOL     OW93012  12.845   5.186   1.567
30372SOL    HW193013  12.762   5.138   1.565
30372SOL    HW293014  12.888   5.163   1.485
30373SOL     OW93015   1.200   4.255   1.196
30373SOL    HW193016   1.185   4.331   1.141
30373SOL    HW293017   1.126   4.197   1.177
30374SOL     OW93018  11.108   2.183  13.850
30374SOL    HW193019  11.048   2.117  13.814
30374SOL    HW293020  11.107   2.253  13.785
30375SOL     OW93021   7.656   3.599   6.803
30375SOL    HW193022   7.673   3.545   6.725
30375SOL    HW293023   7.719   3.567   6.867
30376SOL     OW93024  11.147   4.934  12.971
30376SOL    HW193025  11.116   4.996  12.905
30376SOL    HW293026  11.155   4.851  12.924
30377SOL     OW93027   5.426   3.382   0.660
30377SOL    HW193028   5.355   3.362   0.722
30377SOL    HW293029   5.440   3.476   0.669
30378SOL     OW93030   9.082   4.349   0.888
30378SOL    HW193031   9.062   4.373   0.798
30378SOL    HW293032   9.167   4.306   0.883
30379SOL     OW93033  12.229  11.408   5.510
30379SOL    HW193034  12.230  11.313   5.498
30379SOL    HW293035  12.223  11.444   5.422
30380SOL     OW93036   0.451   5.551   2.733
30380SOL    HW193037   0.486   5.593   2.654
30380SOL    HW293038   0.364   5.588   2.743
30381SOL     OW93039   7.027  10.524   5.289
30381SOL    HW193040   7.011  10.542   5.196
30381SOL    HW293041   7.072  10.439   5.289
30382SOL     OW93042   1.689   6.584  13.219
30382SOL    HW193043   1.737   6.651  13.170
30382SOL    HW293044   1.758   6.530  13.259
30383SOL     OW93045  13.511  13.782   2.113
30383SOL    HW193046  13.472  13.696   2.129
30383SOL    HW293047  13.469  13.813   2.033
30384SOL     OW93048   1.787  10.129   7.641
30384SOL    HW193049   1.715  10.102   7.584
30384SOL    HW293050   1.746  10.184   7.707
30385SOL     OW93051   8.105  11.720  10.720
30385SOL    HW193052   8.101  11.647  10.781
30385SOL    HW293053   8.022  11.716  10.671
30386SOL     OW93054   0.011   6.866  11.352
30386SOL    HW193055   0.036   6.948  11.310
30386SOL    HW293056  14.801   6.887  11.397
30387SOL     OW93057   6.361   9.397  14.091
30387SOL    HW193058   6.357   9.492  14.081
30387SOL    HW293059   6.389   9.365  14.006
30388SOL     OW93060  14.535   1.088   3.744
30388SOL    HW193061  14.579   1.122   3.666
30388SOL    HW293062  14.549   1.156   3.810
30389SOL     OW93063   4.501   4.117   9.093
30389SOL    HW193064   4.595   4.131   9.109
30389SOL    HW293065   4.471   4.071   9.171
30390SOL     OW93066  12.741   6.751  11.326
30390SOL    HW193067  12.835   6.735  11.327
30390SOL    HW293068  12.718   6.767  11.418
30391SOL     OW93069  13.275   5.621   9.634
30391SOL    HW193070  13.198   5.669   9.663
30391SOL    HW293071  13.242   5.556   9.572
30392SOL     OW93072  13.961  10.425  11.652
30392SOL    HW193073  13.910  10.445  11.730
30392SOL    HW293074  13.927  10.484  11.585
30393SOL     OW93075  13.651   4.022   0.034
30393SOL    HW193076  13.688   3.997  14.821
30393SOL    HW293077  13.558   4.003   0.026
30394SOL     OW93078   6.988  14.263   3.168
30394SOL    HW193079   7.060  14.253   3.230
30394SOL    HW293080   6.988  14.356   3.146
30395SOL     OW93081   9.029   4.630   2.103
30395SOL    HW193082   8.944   4.621   2.146
30395SOL    HW293083   9.093   4.617   2.172
30396SOL     OW93084   1.504   8.797   1.820
30396SOL    HW193085   1.435   8.813   1.884
30396SOL    HW293086   1.462   8.745   1.752
30397SOL     OW93087  11.361  13.899   5.652
30397SOL    HW193088  11.426  13.970   5.653
30397SOL    HW293089  11.412  13.819   5.664
30398SOL     OW93090   1.676   9.539  12.778
30398SOL    HW193091   1.745   9.492  12.823
30398SOL    HW293092   1.720   9.583  12.705
30399SOL     OW93093   5.896   0.482   1.856
30399SOL    HW193094   5.819   0.506   1.908
30399SOL    HW293095   5.920   0.395   1.888
30400SOL     OW93096   0.250  12.899   7.792
30400SOL    HW193097   0.208  12.825   7.749
30400SOL    HW293098   0.314  12.860   7.851
30401SOL     OW93099   2.887  11.788  11.511
30401SOL    HW193100   2.942  11.866  11.516
30401SOL    HW293101   2.798  11.821  11.500
30402SOL     OW93102   8.970   6.903  10.908
30402SOL    HW193103   8.937   6.843  10.976
30402SOL    HW293104   9.006   6.846  10.840
30403SOL     OW93105   2.983   6.516   6.275
30403SOL    HW193106   2.973   6.427   6.243
30403SOL    HW293107   2.933   6.570   6.213
30404SOL     OW93108  10.103   2.016   9.635
30404SOL    HW193109  10.048   1.940   9.653
30404SOL    HW293110  10.192   1.984   9.644
30405SOL     OW93111   7.281  12.265   9.729
30405SOL    HW193112   7.320  12.293   9.646
30405SOL    HW293113   7.292  12.340   9.787
30406SOL     OW93114   6.311   3.966   0.860
30406SOL    HW193115   6.217   3.949   0.850
30406SOL    HW293116   6.349   3.879   0.872
30407SOL     OW93117   3.428   9.364  10.496
30407SOL    HW193118   3.453   9.273  10.482
30407SOL    HW293119   3.504   9.415  10.467
30408SOL     OW93120  11.430   8.846  14.715
30408SOL    HW193121  11.522   8.820  14.725
30408SOL    HW293122  11.424   8.881  14.626
30409SOL     OW93123   6.091  12.104  12.388
30409SOL    HW193124   6.007  12.131  12.352
30409SOL    HW293125   6.154  12.169  12.356
30410SOL     OW93126  13.339   0.174  12.597
30410SOL    HW193127  13.381   0.256  12.624
30410SOL    HW293128  13.259   0.170  12.648
30411SOL     OW93129  12.981  13.571   9.997
30411SOL    HW193130  13.035  13.519  10.056
30411SOL    HW293131  13.015  13.551   9.910
30412SOL     OW93132   2.555   2.989   3.781
30412SOL    HW193133   2.528   3.002   3.873
30412SOL    HW293134   2.571   3.077   3.748
30413SOL     OW93135  12.827   0.110   4.591
30413SOL    HW193136  12.791   0.042   4.647
30413SOL    HW293137  12.888   0.063   4.533
30414SOL     OW93138   8.639  14.279   7.729
30414SOL    HW193139   8.557  14.249   7.769
30414SOL    HW293140   8.612  14.331   7.654
30415SOL     OW93141   2.018   3.006   8.398
30415SOL    HW193142   1.942   2.951   8.379
30415SOL    HW293143   1.990   3.094   8.374
30416SOL     OW93144   2.065   5.292   5.713
30416SOL    HW193145   2.038   5.381   5.737
30416SOL    HW293146   2.038   5.239   5.788
30417SOL     OW93147  14.356  10.652   9.605
30417SOL    HW193148  14.286  10.689   9.552
30417SOL    HW293149  14.432  10.707   9.587
30418SOL     OW93150   0.858   8.637   0.087
30418SOL    HW193151   0.834   8.616   0.177
30418SOL    HW293152   0.882   8.553   0.048
30419SOL     OW93153   8.958   1.832   9.596
30419SOL    HW193154   8.952   1.739   9.578
30419SOL    HW293155   8.970   1.837   9.691
30420SOL     OW93156   5.350   2.417   4.067
30420SOL    HW193157   5.416   2.381   4.008
30420SOL    HW293158   5.346   2.510   4.045
30421SOL     OW93159   2.004   0.137   7.606
30421SOL    HW193160   1.945   0.122   7.680
30421SOL    HW293161   2.087   0.098   7.633
30422SOL     OW93162  11.338  12.323   8.024
30422SOL    HW193163  11.381  12.311   8.108
30422SOL    HW293164  11.378  12.402   7.987
30423SOL     OW93165  10.948  12.943   3.275
30423SOL    HW193166  11.008  12.978   3.209
30423SOL    HW293167  10.997  12.873   3.318
30424SOL     OW93168   4.085   7.463   0.529
30424SOL    HW193169   4.124   7.446   0.615
30424SOL    HW293170   4.130   7.403   0.470
30425SOL     OW93171   7.342   3.911  10.498
30425SOL    HW193172   7.409   3.857  10.456
30425SOL    HW293173   7.383   3.996  10.509
30426SOL     OW93174   8.042   7.745  10.694
30426SOL    HW193175   8.087   7.819  10.655
30426SOL    HW293176   7.960   7.781  10.727
30427SOL     OW93177  11.115   1.161  12.426
30427SOL    HW193178  11.070   1.128  12.349
30427SOL    HW293179  11.074   1.115  12.500
30428SOL     OW93180   4.720   5.048   0.129
30428SOL    HW193181   4.671   5.031   0.048
30428SOL    HW293182   4.702   4.971   0.184
30429SOL     OW93183  14.634   0.624   0.100
30429SOL    HW193184  14.670   0.712   0.107
30429SOL    HW293185  14.546   0.636   0.066
30430SOL     OW93186   6.713   5.874  13.410
30430SOL    HW193187   6.704   5.800  13.350
30430SOL    HW293188   6.634   5.870  13.464
30431SOL     OW93189  12.189   1.981   5.639
30431SOL    HW193190  12.100   1.966   5.609
30431SOL    HW293191  12.189   1.957   5.731
30432SOL     OW93192   0.743   5.807   6.138
30432SOL    HW193193   0.825   5.773   6.174
30432SOL    HW293194   0.694   5.730   6.113
30433SOL     OW93195   7.737   9.432   3.917
30433SOL    HW193196   7.780   9.362   3.867
30433SOL    HW293197   7.732   9.505   3.855
30434SOL     OW93198   7.540   9.704   2.979
30434SOL    HW193199   7.493   9.669   2.904
30434SOL    HW293200   7.627   9.724   2.945
30435SOL     OW93201   3.936  11.365   3.109
30435SOL    HW193202   3.878  11.366   3.033
30435SOL    HW293203   4.024  11.368   3.071
30436SOL     OW93204   6.662  11.499  13.830
30436SOL    HW193205   6.587  11.551  13.798
30436SOL    HW293206   6.640  11.409  13.807
30437SOL     OW93207   1.117  11.749   9.888
30437SOL    HW193208   1.023  11.732   9.893
30437SOL    HW293209   1.152  11.672   9.844
30438SOL     OW93210   0.997  14.845   1.192
30438SOL    HW193211   0.915  14.863   1.238
30438SOL    HW293212   0.973  14.841   1.100
30439SOL     OW93213  10.813   1.149   8.114
30439SOL    HW193214  10.809   1.169   8.208
30439SOL    HW293215  10.729   1.109   8.095
30440SOL     OW93216   5.420   0.722   3.910
30440SOL    HW193217   5.474   0.678   3.845
30440SOL    HW293218   5.340   0.670   3.915
30441SOL     OW93219  14.592   6.541   8.660
30441SOL    HW193220  14.534   6.575   8.728
30441SOL    HW293221  14.664   6.500   8.709
30442SOL     OW93222  12.847   1.590   0.432
30442SOL    HW193223  12.878   1.650   0.500
30442SOL    HW293224  12.763   1.558   0.465
30443SOL     OW93225   5.098  11.047  13.529
30443SOL    HW193226   5.112  10.965  13.577
30443SOL    HW293227   5.121  11.026  13.439
30444SOL     OW93228  10.789   2.680   2.261
30444SOL    HW193229  10.835   2.741   2.318
30444SOL    HW293230  10.806   2.712   2.173
30445SOL     OW93231  12.419  13.338   6.269
30445SOL    HW193232  12.380  13.363   6.185
30445SOL    HW293233  12.492  13.399   6.281
30446SOL     OW93234  14.451   6.007   3.958
30446SOL    HW193235  14.504   6.056   4.021
30446SOL    HW293236  14.435   5.923   4.000
30447SOL     OW93237  13.263   4.700   3.857
30447SOL    HW193238  13.219   4.707   3.941
30447SOL    HW293239  13.345   4.655   3.876
30448SOL     OW93240   2.115   1.442   9.998
30448SOL    HW193241   2.123   1.525   9.951
30448SOL    HW293242   2.021   1.426  10.003
30449SOL     OW93243  12.889   1.259  12.468
30449SOL    HW193244  12.978   1.235  12.493
30449SOL    HW293245  12.855   1.307  12.544
30450SOL     OW93246   1.413   5.292   3.415
30450SOL    HW193247   1.495   5.342   3.420
30450SOL    HW293248   1.438   5.210   3.372
30451SOL     OW93249  13.404   6.012   2.452
30451SOL    HW193250  13.337   6.011   2.521
30451SOL    HW293251  13.476   6.062   2.490
30452SOL     OW93252   1.513   6.128   0.575
30452SOL    HW193253   1.496   6.038   0.604
30452SOL    HW293254   1.508   6.123   0.479
30453SOL     OW93255   1.513   5.624  10.435
30453SOL    HW193256   1.547   5.711  10.454
30453SOL    HW293257   1.558   5.598  10.354
30454SOL     OW93258   3.967   0.621   4.889
30454SOL    HW193259   3.949   0.629   4.983
30454SOL    HW293260   3.933   0.536   4.865
30455SOL     OW93261   4.659   5.008   6.233
30455SOL    HW193262   4.583   5.061   6.259
30455SOL    HW293263   4.732   5.070   6.233
30456SOL     OW93264   6.137  11.663   5.476
30456SOL    HW193265   6.199  11.734   5.463
30456SOL    HW293266   6.080  11.666   5.399
30457SOL     OW93267   7.105  13.275  10.988
30457SOL    HW193268   7.056  13.358  10.992
30457SOL    HW293269   7.058  13.223  10.922
30458SOL     OW93270  14.375   4.635  12.535
30458SOL    HW193271  14.303   4.571  12.530
30458SOL    HW293272  14.451   4.588  12.501
30459SOL     OW93273  10.156   1.344   2.311
30459SOL    HW193274  10.179   1.425   2.356
30459SOL    HW293275  10.155   1.277   2.380
30460SOL     OW93276   7.682   2.328   9.181
30460SOL    HW193277   7.762   2.356   9.225
30460SOL    HW293278   7.644   2.409   9.146
30461SOL     OW93279  13.644  13.069   0.022
30461SOL    HW193280  13.665  13.012   0.096
30461SOL    HW293281  13.557  13.040  14.866
30462SOL     OW93282   3.002  11.968  12.346
30462SOL    HW193283   3.017  11.974  12.252
30462SOL    HW293284   2.987  11.875  12.362
30463SOL     OW93285   9.800  12.486   8.767
30463SOL    HW193286   9.807  12.518   8.677
30463SOL    HW293287   9.783  12.393   8.758
30464SOL     OW93288   1.405  10.042   8.411
30464SOL    HW193289   1.485  10.006   8.372
30464SOL    HW293290   1.381  10.114   8.354
30465SOL     OW93291   7.032  11.077   0.547
30465SOL    HW193292   7.070  10.990   0.535
30465SOL    HW293293   7.052  11.124   0.466
30466SOL     OW93294  14.793   4.718  14.679
30466SOL    HW193295  14.773   4.670  14.759
30466SOL    HW293296  14.719   4.778  14.668
30467SOL     OW93297   4.898   7.702   2.623
30467SOL    HW193298   4.905   7.754   2.543
30467SOL    HW293299   4.896   7.766   2.694
30468SOL     OW93300   6.190   5.250  13.496
30468SOL    HW193301   6.234   5.257  13.580
30468SOL    HW293302   6.204   5.158  13.469
30469SOL     OW93303  12.176   0.966   3.217
30469SOL    HW193304  12.221   0.884   3.195
30469SOL    HW293305  12.147   1.001   3.133
30470SOL     OW93306   2.154  10.740   4.006
30470SOL    HW193307   2.111  10.798   3.944
30470SOL    HW293308   2.165  10.792   4.085
30471SOL     OW93309   3.887   2.537   0.012
30471SOL    HW193310   3.919   2.470   0.073
30471SOL    HW293311   3.953   2.606   0.014
30472SOL     OW93312   9.962   6.228  11.260
30472SOL    HW193313   9.941   6.262  11.346
30472SOL    HW293314  10.050   6.261  11.242
30473SOL     OW93315   7.035   9.996  13.283
30473SOL    HW193316   7.079  10.066  13.236
30473SOL    HW293317   7.097   9.969  13.351
30474SOL     OW93318   5.008   5.598  11.137
30474SOL    HW193319   5.070   5.530  11.110
30474SOL    HW293320   5.021   5.607  11.231
30475SOL     OW93321   4.650   3.352   6.548
30475SOL    HW193322   4.688   3.277   6.502
30475SOL    HW293323   4.563   3.361   6.510
30476SOL     OW93324  11.785   6.655  11.538
30476SOL    HW193325  11.789   6.627  11.446
30476SOL    HW293326  11.854   6.721  11.545
30477SOL     OW93327   4.262   7.771  14.360
30477SOL    HW193328   4.346   7.725  14.349
30477SOL    HW293329   4.225   7.774  14.272
30478SOL     OW93330   9.800   1.637  13.749
30478SOL    HW193331   9.827   1.628  13.840
30478SOL    HW293332   9.706   1.654  13.753
30479SOL     OW93333  11.515   6.836   2.370
30479SOL    HW193334  11.509   6.930   2.351
30479SOL    HW293335  11.470   6.795   2.296
30480SOL     OW93336   1.021  11.700   8.713
30480SOL    HW193337   0.993  11.621   8.759
30480SOL    HW293338   1.031  11.673   8.622
30481SOL     OW93339   4.949   5.799  13.127
30481SOL    HW193340   4.986   5.815  13.214
30481SOL    HW293341   4.890   5.725  13.140
30482SOL     OW93342   8.791   0.787   5.016
30482SOL    HW193343   8.856   0.758   4.952
30482SOL    HW293344   8.811   0.880   5.029
30483SOL     OW93345  12.253  10.995  11.643
30483SOL    HW193346  12.194  10.951  11.582
30483SOL    HW293347  12.336  11.001  11.596
30484SOL     OW93348  12.676  12.655   8.809
30484SOL    HW193349  12.603  12.594   8.818
30484SOL    HW293350  12.708  12.641   8.719
30485SOL     OW93351   8.508  10.017  11.394
30485SOL    HW193352   8.571   9.976  11.453
30485SOL    HW293353   8.423   9.981  11.420
30486SOL     OW93354   6.106  14.398   0.825
30486SOL    HW193355   6.059  14.461   0.769
30486SOL    HW293356   6.069  14.313   0.802
30487SOL     OW93357  14.521   3.817   6.910
30487SOL    HW193358  14.602   3.838   6.863
30487SOL    HW293359  14.547   3.750   6.973
30488SOL     OW93360   5.235   9.964   7.105
30488SOL    HW193361   5.201   9.998   7.022
30488SOL    HW293362   5.322  10.004   7.114
30489SOL     OW93363   0.588   7.785   2.850
30489SOL    HW193364   0.526   7.825   2.790
30489SOL    HW293365   0.567   7.692   2.848
30490SOL     OW93366  12.139   4.336  12.676
30490SOL    HW193367  12.199   4.329  12.751
30490SOL    HW293368  12.177   4.278  12.610
30491SOL     OW93369   6.537   2.145   0.001
30491SOL    HW193370   6.488   2.069   0.032
30491SOL    HW293371   6.567   2.189   0.080
30492SOL     OW93372  11.202   7.652   2.943
30492SOL    HW193373  11.153   7.578   2.980
30492SOL    HW293374  11.176   7.655   2.851
30493SOL     OW93375  12.451  12.546   9.795
30493SOL    HW193376  12.535  12.525   9.756
30493SOL    HW293377  12.396  12.573   9.721
30494SOL     OW93378  10.030  11.836   9.726
30494SOL    HW193379  10.089  11.899   9.768
30494SOL    HW293380  10.067  11.823   9.638
30495SOL     OW93381   7.242   9.215   5.126
30495SOL    HW193382   7.195   9.252   5.201
30495SOL    HW293383   7.257   9.124   5.151
30496SOL     OW93384  11.171   8.612   0.240
30496SOL    HW193385  11.081   8.624   0.212
30496SOL    HW293386  11.165   8.557   0.318
30497SOL     OW93387   8.491  10.281   7.173
30497SOL    HW193388   8.489  10.208   7.234
30497SOL    HW293389   8.405  10.324   7.183
30498SOL     OW93390   8.471   2.837   2.569
30498SOL    HW193391   8.563   2.818   2.582
30498SOL    HW293392   8.469   2.900   2.497
30499SOL     OW93393   8.216  14.000  10.728
30499SOL    HW193394   8.157  14.065  10.766
30499SOL    HW293395   8.201  14.006  10.634
30500SOL     OW93396  13.276  13.440   8.375
30500SOL    HW193397  13.245  13.358   8.336
30500SOL    HW293398  13.282  13.501   8.302
30501SOL     OW93399  13.022   4.681  14.188
30501SOL    HW193400  13.112   4.653  14.173
30501SOL    HW293401  12.969   4.622  14.134
30502SOL     OW93402  10.509   7.428   0.497
30502SOL    HW193403  10.451   7.504   0.497
30502SOL    HW293404  10.554   7.432   0.581
30503SOL     OW93405   8.192   1.919   5.378
30503SOL    HW193406   8.122   1.946   5.318
30503SOL    HW293407   8.217   1.832   5.348
30504SOL     OW93408  11.522   5.557  13.597
30504SOL    HW193409  11.519   5.550  13.692
30504SOL    HW293410  11.592   5.497  13.571
30505SOL     OW93411   8.133   3.937  14.068
30505SOL    HW193412   8.201   3.961  14.006
30505SOL    HW293413   8.180   3.923  14.151
30506SOL     OW93414  13.011   2.582   6.511
30506SOL    HW193415  13.017   2.673   6.541
30506SOL    HW293416  13.101   2.550   6.516
30507SOL     OW93417   9.107   0.517   5.012
30507SOL    HW193418   9.033   0.477   5.057
30507SOL    HW293419   9.076   0.605   4.988
30508SOL     OW93420   7.862  11.860   3.212
30508SOL    HW193421   7.837  11.837   3.302
30508SOL    HW293422   7.878  11.775   3.170
30509SOL     OW93423  10.060   7.112   9.117
30509SOL    HW193424  10.039   7.141   9.206
30509SOL    HW293425  10.112   7.033   9.129
30510SOL     OW93426  13.511   2.314  10.008
30510SOL    HW193427  13.454   2.279  10.076
30510SOL    HW293428  13.572   2.372  10.055
30511SOL     OW93429   7.883   9.427  14.362
30511SOL    HW193430   7.883   9.403  14.454
30511SOL    HW293431   7.915   9.517  14.360
30512SOL     OW93432   0.593   3.091  10.409
30512SOL    HW193433   0.650   3.019  10.436
30512SOL    HW293434   0.653   3.157  10.375
30513SOL     OW93435  14.029  11.639   8.353
30513SOL    HW193436  14.041  11.707   8.419
30513SOL    HW293437  13.941  11.604   8.369
30514SOL     OW93438   4.436   1.656   7.443
30514SOL    HW193439   4.381   1.669   7.366
30514SOL    HW293440   4.513   1.610   7.410
30515SOL     OW93441  12.787   0.767   1.177
30515SOL    HW193442  12.706   0.785   1.128
30515SOL    HW293443  12.815   0.852   1.208
30516SOL     OW93444  12.972   4.101   1.157
30516SOL    HW193445  12.985   4.080   1.250
30516SOL    HW293446  12.878   4.114   1.148
30517SOL     OW93447  13.751   9.151   2.704
30517SOL    HW193448  13.830   9.178   2.658
30517SOL    HW293449  13.689   9.223   2.690
30518SOL     OW93450   8.763   0.700  14.531
30518SOL    HW193451   8.740   0.627  14.472
30518SOL    HW293452   8.857   0.714  14.516
30519SOL     OW93453   4.326  11.291   1.459
30519SOL    HW193454   4.234  11.265   1.465
30519SOL    HW293455   4.349  11.321   1.547
30520SOL     OW93456  14.508   5.270  12.873
30520SOL    HW193457  14.478   5.229  12.792
30520SOL    HW293458  14.600   5.245  12.880
30521SOL     OW93459   4.763   5.675   0.099
30521SOL    HW193460   4.721   5.597   0.135
30521SOL    HW293461   4.807   5.715   0.174
30522SOL     OW93462   4.489   2.852  14.477
30522SOL    HW193463   4.453   2.765  14.458
30522SOL    HW293464   4.487   2.897  14.393
30523SOL     OW93465  13.652   1.870   6.331
30523SOL    HW193466  13.567   1.904   6.304
30523SOL    HW293467  13.637   1.777   6.348
30524SOL     OW93468  11.964  13.738   0.461
30524SOL    HW193469  12.031  13.683   0.501
30524SOL    HW293470  11.898  13.749   0.530
30525SOL     OW93471   3.826   1.519  12.568
30525SOL    HW193472   3.903   1.517  12.625
30525SOL    HW293473   3.857   1.562  12.488
30526SOL     OW93474  13.939   9.501   7.520
30526SOL    HW193475  13.869   9.562   7.545
30526SOL    HW293476  13.930   9.492   7.425
30527SOL     OW93477  14.130   6.634   2.602
30527SOL    HW193478  14.092   6.563   2.654
30527SOL    HW293479  14.206   6.663   2.653
30528SOL     OW93480  10.846   7.768   8.073
30528SOL    HW193481  10.826   7.794   8.163
30528SOL    HW293482  10.855   7.673   8.077
30529SOL     OW93483   7.748   4.666   1.337
30529SOL    HW193484   7.658   4.636   1.343
30529SOL    HW293485   7.760   4.723   1.413
30530SOL     OW93486   7.852   3.519   8.542
30530SOL    HW193487   7.944   3.517   8.568
30530SOL    HW293488   7.809   3.573   8.608
30531SOL     OW93489   0.691   8.630   1.579
30531SOL    HW193490   0.662   8.688   1.509
30531SOL    HW293491   0.614   8.619   1.635
30532SOL     OW93492  11.987  14.666   6.573
30532SOL    HW193493  11.900  14.649   6.608
30532SOL    HW293494  11.971  14.709   6.489
30533SOL     OW93495   6.059   9.684   7.186
30533SOL    HW193496   6.114   9.750   7.225
30533SOL    HW293497   6.071   9.695   7.092
30534SOL     OW93498  13.040   2.275  10.947
30534SOL    HW193499  13.120   2.326  10.947
30534SOL    HW293500  12.971   2.338  10.969
30535SOL     OW93501   5.067   4.484  14.744
30535SOL    HW193502   5.009   4.520  14.678
30535SOL    HW293503   5.014   4.482  14.824
30536SOL     OW93504   6.870   5.184  13.561
30536SOL    HW193505   6.882   5.141  13.645
30536SOL    HW293506   6.775   5.187  13.549
30537SOL     OW93507   7.685  14.728   9.945
30537SOL    HW193508   7.682  14.638   9.916
30537SOL    HW293509   7.600  14.743   9.988
30538SOL     OW93510   1.037  10.151   4.774
30538SOL    HW193511   1.128  10.158   4.803
30538SOL    HW293512   1.010  10.240   4.754
30539SOL     OW93513  12.173   1.844   4.401
30539SOL    HW193514  12.166   1.875   4.491
30539SOL    HW293515  12.134   1.757   4.403
30540SOL     OW93516   7.666  11.118  10.030
30540SOL    HW193517   7.604  11.103  10.101
30540SOL    HW293518   7.611  11.132   9.953
30541SOL     OW93519   5.003   3.877   5.414
30541SOL    HW193520   5.046   3.947   5.365
30541SOL    HW293521   4.912   3.908   5.423
30542SOL     OW93522   9.769   6.550   9.398
30542SOL    HW193523   9.712   6.478   9.371
30542SOL    HW293524   9.717   6.598   9.462
30543SOL     OW93525   8.582  14.814  11.231
30543SOL    HW193526   8.545  14.776  11.152
30543SOL    HW293527   8.653  14.871  11.200
30544SOL     OW93528   5.597  13.283   7.871
30544SOL    HW193529   5.637  13.319   7.951
30544SOL    HW293530   5.667  13.285   7.806
30545SOL     OW93531   8.239   7.498   8.224
30545SOL    HW193532   8.319   7.506   8.172
30545SOL    HW293533   8.255   7.421   8.280
30546SOL     OW93534   6.381   5.383  14.835
30546SOL    HW193535   6.394   5.350   0.053
30546SOL    HW293536   6.304   5.439  14.841
30547SOL     OW93537  11.188  11.796  14.340
30547SOL    HW193538  11.218  11.776  14.252
30547SOL    HW293539  11.266  11.826  14.387
30548SOL     OW93540   7.873  10.254   0.314
30548SOL    HW193541   7.869  10.265   0.219
30548SOL    HW293542   7.803  10.310   0.348
30549SOL     OW93543   1.280  11.099   4.790
30549SOL    HW193544   1.348  11.135   4.847
30549SOL    HW293545   1.313  11.012   4.765
30550SOL     OW93546  11.016   8.834  13.412
30550SOL    HW193547  11.072   8.830  13.335
30550SOL    HW293548  11.074   8.863  13.483
30551SOL     OW93549   0.199   9.510   6.391
30551SOL    HW193550   0.172   9.593   6.430
30551SOL    HW293551   0.287   9.527   6.357
30552SOL     OW93552   0.230   2.863   8.666
30552SOL    HW193553   0.257   2.928   8.601
30552SOL    HW293554   0.261   2.897   8.750
30553SOL     OW93555   7.228   0.232   2.192
30553SOL    HW193556   7.213   0.177   2.115
30553SOL    HW293557   7.159   0.208   2.253
30554SOL     OW93558  10.306   3.024   6.235
30554SOL    HW193559  10.318   3.118   6.217
30554SOL    HW293560  10.394   2.988   6.232
30555SOL     OW93561   5.220   9.387  12.214
30555SOL    HW193562   5.141   9.343  12.246
30555SOL    HW293563   5.279   9.315  12.190
30556SOL     OW93564  13.844   9.789   4.692
30556SOL    HW193565  13.897   9.741   4.628
30556SOL    HW293566  13.908   9.834   4.747
30557SOL     OW93567   8.019   4.740  10.909
30557SOL    HW193568   7.944   4.728  10.851
30557SOL    HW293569   8.002   4.680  10.982
30558SOL     OW93570   2.850  10.273  13.670
30558SOL    HW193571   2.806  10.311  13.746
30558SOL    HW293572   2.876  10.185  13.699
30559SOL     OW93573   7.806   1.787   2.464
30559SOL    HW193574   7.835   1.761   2.551
30559SOL    HW293575   7.886   1.816   2.420
30560SOL     OW93576  12.328  10.829   1.689
30560SOL    HW193577  12.346  10.886   1.764
30560SOL    HW293578  12.235  10.839   1.672
30561SOL     OW93579  11.505   1.458  11.784
30561SOL    HW193580  11.435   1.411  11.737
30561SOL    HW293581  11.509   1.415  11.869
30562SOL     OW93582   7.460   8.284   1.996
30562SOL    HW193583   7.407   8.225   1.942
30562SOL    HW293584   7.520   8.326   1.934
30563SOL     OW93585   1.855   1.179   7.742
30563SOL    HW193586   1.852   1.275   7.739
30563SOL    HW293587   1.937   1.157   7.698
30564SOL     OW93588  13.784   6.989   4.836
30564SOL    HW193589  13.702   6.994   4.886
30564SOL    HW293590  13.823   7.076   4.846
30565SOL     OW93591   8.057   5.934  11.238
30565SOL    HW193592   8.049   5.918  11.144
30565SOL    HW293593   8.020   5.856  11.279
30566SOL     OW93594  10.499  10.429   2.578
30566SOL    HW193595  10.483  10.355   2.637
30566SOL    HW293596  10.552  10.393   2.507
30567SOL     OW93597   7.411  14.061   2.073
30567SOL    HW193598   7.480  14.094   2.130
30567SOL    HW293599   7.396  14.132   2.010
30568SOL     OW93600   2.700   7.255   5.007
30568SOL    HW193601   2.632   7.189   5.005
30568SOL    HW293602   2.777   7.212   4.970
30569SOL     OW93603   7.749  12.719   2.876
30569SOL    HW193604   7.703  12.792   2.918
30569SOL    HW293605   7.697  12.641   2.899
30570SOL     OW93606  11.064  10.319   1.424
30570SOL    HW193607  10.973  10.291   1.427
30570SOL    HW293608  11.059  10.411   1.398
30571SOL     OW93609  13.907  10.071  12.019
30571SOL    HW193610  13.874  10.004  11.959
30571SOL    HW293611  13.836  10.085  12.081
30572SOL     OW93612   4.760   0.104  12.011
30572SOL    HW193613   4.736   0.012  12.002
30572SOL    HW293614   4.729   0.145  11.930
30573SOL     OW93615   6.376   4.656   9.115
30573SOL    HW193616   6.465   4.663   9.081
30573SOL    HW293617   6.361   4.738   9.162
30574SOL     OW93618   8.610   1.320  12.338
30574SOL    HW193619   8.587   1.408  12.365
30574SOL    HW293620   8.656   1.331  12.255
30575SOL     OW93621   7.918  14.274  14.363
30575SOL    HW193622   7.925  14.350  14.305
30575SOL    HW293623   8.009  14.250  14.380
30576SOL     OW93624   8.767   4.962   4.536
30576SOL    HW193625   8.783   5.016   4.459
30576SOL    HW293626   8.820   4.883   4.521
30577SOL     OW93627  14.485  11.580   0.789
30577SOL    HW193628  14.460  11.589   0.697
30577SOL    HW293629  14.444  11.499   0.818
30578SOL     OW93630   9.099   5.355   6.494
30578SOL    HW193631   9.020   5.336   6.443
30578SOL    HW293632   9.130   5.439   6.461
30579SOL     OW93633   8.385  13.967   3.076
30579SOL    HW193634   8.455  14.005   3.129
30579SOL    HW293635   8.308  13.969   3.133
30580SOL     OW93636   9.930   3.341  11.948
30580SOL    HW193637  10.004   3.356  12.006
30580SOL    HW293638   9.890   3.260  11.979
30581SOL     OW93639   3.909   8.774  10.282
30581SOL    HW193640   3.893   8.842  10.216
30581SOL    HW293641   3.891   8.692  10.236
30582SOL     OW93642   1.158   3.215  14.310
30582SOL    HW193643   1.105   3.241  14.385
30582SOL    HW293644   1.118   3.259  14.235
30583SOL     OW93645   7.330   3.763   0.832
30583SOL    HW193646   7.334   3.673   0.866
30583SOL    HW293647   7.411   3.773   0.782
30584SOL     OW93648  12.134   0.155   7.289
30584SOL    HW193649  12.142   0.117   7.201
30584SOL    HW293650  12.225   0.163   7.320
30585SOL     OW93651   7.082   4.686   2.342
30585SOL    HW193652   7.067   4.769   2.297
30585SOL    HW293653   7.066   4.619   2.276
30586SOL     OW93654   2.764   8.841   7.451
30586SOL    HW193655   2.718   8.814   7.531
30586SOL    HW293656   2.694   8.854   7.387
30587SOL     OW93657   5.998   1.177   9.871
30587SOL    HW193658   5.904   1.164   9.875
30587SOL    HW293659   6.023   1.201   9.960
30588SOL     OW93660   1.041   8.018  10.644
30588SOL    HW193661   1.065   7.956  10.575
30588SOL    HW293662   0.946   8.025  10.638
30589SOL     OW93663   7.963   1.926  11.126
30589SOL    HW193664   8.040   1.980  11.106
30589SOL    HW293665   7.976   1.845  11.077
30590SOL     OW93666   3.605   8.099   2.369
30590SOL    HW193667   3.510   8.110   2.363
30590SOL    HW293668   3.618   8.007   2.390
30591SOL     OW93669  13.444   0.443  14.044
30591SOL    HW193670  13.377   0.491  13.996
30591SOL    HW293671  13.501   0.407  13.977
30592SOL     OW93672  11.487  14.006  13.225
30592SOL    HW193673  11.552  13.972  13.164
30592SOL    HW293674  11.454  13.928  13.270
30593SOL     OW93675   9.137   6.432   8.762
30593SOL    HW193676   9.143   6.489   8.839
30593SOL    HW293677   9.074   6.364   8.787
30594SOL     OW93678   4.679  11.388   6.363
30594SOL    HW193679   4.676  11.381   6.268
30594SOL    HW293680   4.732  11.466   6.380
30595SOL     OW93681   7.825  14.436  10.068
30595SOL    HW193682   7.811  14.428   9.974
30595SOL    HW293683   7.751  14.488  10.099
30596SOL     OW93684   6.403  14.331   5.043
30596SOL    HW193685   6.445  14.377   5.116
30596SOL    HW293686   6.336  14.392   5.011
30597SOL     OW93687   6.976  10.293   8.006
30597SOL    HW193688   7.044  10.230   7.982
30597SOL    HW293689   6.915  10.292   7.932
30598SOL     OW93690  12.827   4.333   8.287
30598SOL    HW193691  12.788   4.418   8.309
30598SOL    HW293692  12.796   4.315   8.199
30599SOL     OW93693   5.606   1.999   0.348
30599SOL    HW193694   5.513   2.011   0.367
30599SOL    HW293695   5.611   1.996   0.253
30600SOL     OW93696   7.112  10.516   2.827
30600SOL    HW193697   7.118  10.611   2.819
30600SOL    HW293698   7.147  10.483   2.744
30601SOL     OW93699  10.169   7.036  12.851
30601SOL    HW193700  10.107   7.000  12.788
30601SOL    HW293701  10.246   7.059  12.798
30602SOL     OW93702   1.952   6.543  13.331
30602SOL    HW193703   1.993   6.489  13.264
30602SOL    HW293704   1.997   6.627  13.325
30603SOL     OW93705  10.828  14.592   4.999
30603SOL    HW193706  10.820  14.543   5.081
30603SOL    HW293707  10.745  14.576   4.953
30604SOL     OW93708  11.243   2.035   1.413
30604SOL    HW193709  11.215   2.037   1.322
30604SOL    HW293710  11.246   2.128   1.439
30605SOL     OW93711   8.388  12.741   9.842
30605SOL    HW193712   8.442  12.686   9.786
30605SOL    HW293713   8.365  12.816   9.787
30606SOL     OW93714   0.413   9.127  11.342
30606SOL    HW193715   0.429   9.221  11.346
30606SOL    HW293716   0.446   9.100  11.257
30607SOL     OW93717   6.403   9.890  14.834
30607SOL    HW193718   6.349   9.928  14.765
30607SOL    HW293719   6.353   9.906   0.043
30608SOL     OW93720   3.362   7.298   9.849
30608SOL    HW193721   3.312   7.223   9.819
30608SOL    HW293722   3.377   7.282   9.942
30609SOL     OW93723   2.453   4.576  10.248
30609SOL    HW193724   2.454   4.578  10.344
30609SOL    HW293725   2.389   4.509  10.227
30610SOL     OW93726   0.264   6.288  11.981
30610SOL    HW193727   0.301   6.337  11.908
30610SOL    HW293728   0.302   6.329  12.059
30611SOL     OW93729   6.403  11.586  10.541
30611SOL    HW193730   6.364  11.573  10.627
30611SOL    HW293731   6.495  11.607  10.559
30612SOL     OW93732  10.172   5.099   9.993
30612SOL    HW193733  10.077   5.105   9.983
30612SOL    HW293734  10.207   5.140   9.914
30613SOL     OW93735   8.356  10.577   5.054
30613SOL    HW193736   8.338  10.652   5.110
30613SOL    HW293737   8.442  10.595   5.016
30614SOL     OW93738   9.451   9.502   6.264
30614SOL    HW193739   9.459   9.552   6.345
30614SOL    HW293740   9.536   9.512   6.221
30615SOL     OW93741   6.558   1.641  12.626
30615SOL    HW193742   6.599   1.647  12.713
30615SOL    HW293743   6.579   1.724  12.584
30616SOL     OW93744   0.411   2.190   6.958
30616SOL    HW193745   0.483   2.216   6.900
30616SOL    HW293746   0.335   2.239   6.927
30617SOL     OW93747   1.377   1.579   9.780
30617SOL    HW193748   1.393   1.626   9.698
30617SOL    HW293749   1.359   1.489   9.754
30618SOL     OW93750   5.759  14.506   0.547
30618SOL    HW193751   5.731  14.570   0.482
30618SOL    HW293752   5.681  14.453   0.564
30619SOL     OW93753  13.588   4.402   6.132
30619SOL    HW193754  13.657   4.355   6.086
30619SOL    HW293755  13.555   4.340   6.196
30620SOL     OW93756   9.819  10.103   5.715
30620SOL    HW193757   9.873  10.133   5.788
30620SOL    HW293758   9.876  10.109   5.639
30621SOL     OW93759   0.758   5.985  10.840
30621SOL    HW193760   0.707   5.933  10.777
30621SOL    HW293761   0.841   6.000  10.795
30622SOL     OW93762   3.290   9.065  11.931
30622SOL    HW193763   3.281   9.027  12.018
30622SOL    HW293764   3.338   9.147  11.946
30623SOL     OW93765   9.021  10.169   7.725
30623SOL    HW193766   9.011  10.105   7.655
30623SOL    HW293767   9.023  10.254   7.681
30624SOL     OW93768  11.580  12.012   2.873
30624SOL    HW193769  11.557  11.958   2.949
30624SOL    HW293770  11.580  11.950   2.800
30625SOL     OW93771  10.241   0.302   4.754
30625SOL    HW193772  10.186   0.380   4.741
30625SOL    HW293773  10.282   0.287   4.669
30626SOL     OW93774   0.899   0.768  12.053
30626SOL    HW193775   0.938   0.740  12.136
30626SOL    HW293776   0.967   0.751  11.988
30627SOL     OW93777  13.650   6.993   5.085
30627SOL    HW193778  13.618   7.076   5.121
30627SOL    HW293779  13.606   6.925   5.136
30628SOL     OW93780   0.765   3.982   5.134
30628SOL    HW193781   0.700   3.964   5.066
30628SOL    HW293782   0.846   3.998   5.085
30629SOL     OW93783   6.974   9.125  11.934
30629SOL    HW193784   7.027   9.056  11.895
30629SOL    HW293785   7.031   9.202  11.934
30630SOL     OW93786  13.916  12.070  13.918
30630SOL    HW193787  13.840  12.011  13.915
30630SOL    HW293788  13.959  12.050  14.001
30631SOL     OW93789   1.393  12.692   6.176
30631SOL    HW193790   1.318  12.740   6.140
30631SOL    HW293791   1.353  12.631   6.239
30632SOL     OW93792  14.249   4.273  13.744
30632SOL    HW193793  14.229   4.223  13.824
30632SOL    HW293794  14.200   4.227  13.675
30633SOL     OW93795  11.810  14.338   1.751
30633SOL    HW193796  11.755  14.287   1.691
30633SOL    HW293797  11.816  14.285   1.830
30634SOL     OW93798  11.496   6.661   4.852
30634SOL    HW193799  11.520   6.750   4.878
30634SOL    HW293800  11.552   6.642   4.777
30635SOL     OW93801  10.295   6.471   6.158
30635SOL    HW193802  10.350   6.544   6.131
30635SOL    HW293803  10.264   6.433   6.076
30636SOL     OW93804   7.914   3.717  13.958
30636SOL    HW193805   7.818   3.724  13.958
30636SOL    HW293806   7.943   3.798  14.001
30637SOL     OW93807  13.579   0.169   9.373
30637SOL    HW193808  13.659   0.117   9.364
30637SOL    HW293809  13.569   0.210   9.287
30638SOL     OW93810  14.166  10.227  10.270
30638SOL    HW193811  14.080  10.246  10.234
30638SOL    HW293812  14.161  10.257  10.361
30639SOL     OW93813  10.579  12.665   2.867
30639SOL    HW193814  10.556  12.575   2.844
30639SOL    HW293815  10.556  12.716   2.790
30640SOL     OW93816  11.829   4.959   5.499
30640SOL    HW193817  11.745   4.914   5.493
30640SOL    HW293818  11.830   4.996   5.587
30641SOL     OW93819   2.596   8.135   6.137
30641SOL    HW193820   2.602   8.063   6.075
30641SOL    HW293821   2.680   8.181   6.127
30642SOL     OW93822   5.126   7.841   7.598
30642SOL    HW193823   5.144   7.871   7.686
30642SOL    HW293824   5.180   7.896   7.542
30643SOL     OW93825   0.210   9.413  13.060
30643SOL    HW193826   0.183   9.373  13.143
30643SOL    HW293827   0.129   9.450  13.025
30644SOL     OW93828  14.586   8.192   7.583
30644SOL    HW193829  14.624   8.197   7.671
30644SOL    HW293830  14.518   8.260   7.584
30645SOL     OW93831   9.414  12.668  11.707
30645SOL    HW193832   9.418  12.692  11.800
30645SOL    HW293833   9.321  12.675  11.685
30646SOL     OW93834   6.757  14.743   8.809
30646SOL    HW193835   6.817  14.707   8.875
30646SOL    HW293836   6.696  14.797   8.860
30647SOL     OW93837  13.633   4.740   6.031
30647SOL    HW193838  13.611   4.703   5.945
30647SOL    HW293839  13.569   4.703   6.091
30648SOL     OW93840  14.146  13.398   4.839
30648SOL    HW193841  14.235  13.399   4.805
30648SOL    HW293842  14.131  13.487   4.870
30649SOL     OW93843  13.986  12.691  13.075
30649SOL    HW193844  13.919  12.626  13.054
30649SOL    HW293845  13.969  12.763  13.014
30650SOL     OW93846   2.432   0.455  10.394
30650SOL    HW193847   2.459   0.421  10.308
30650SOL    HW293848   2.460   0.547  10.393
30651SOL     OW93849  11.238   4.906   2.076
30651SOL    HW193850  11.280   4.947   2.152
30651SOL    HW293851  11.219   4.979   2.017
30652SOL     OW93852   7.543  13.317   8.286
30652SOL    HW193853   7.565  13.403   8.321
30652SOL    HW293854   7.519  13.265   8.363
30653SOL     OW93855   0.280   3.730  12.792
30653SOL    HW193856   0.279   3.825  12.806
30653SOL    HW293857   0.316   3.719  12.704
30654SOL     OW93858  10.795   3.757   2.190
30654SOL    HW193859  10.818   3.825   2.253
30654SOL    HW293860  10.747   3.802   2.121
30655SOL     OW93861   9.935  10.712   9.870
30655SOL    HW193862   9.860  10.763   9.902
30655SOL    HW293863  10.011  10.765   9.891
30656SOL     OW93864  11.951   1.523  11.349
30656SOL    HW193865  11.986   1.559  11.267
30656SOL    HW293866  11.912   1.440  11.324
30657SOL     OW93867   9.463  14.571   3.375
30657SOL    HW193868   9.452  14.589   3.282
30657SOL    HW293869   9.547  14.524   3.380
30658SOL     OW93870  11.334   6.179   4.210
30658SOL    HW193871  11.336   6.229   4.292
30658SOL    HW293872  11.242   6.154   4.200
30659SOL     OW93873   0.337   1.867   4.378
30659SOL    HW193874   0.275   1.928   4.338
30659SOL    HW293875   0.304   1.780   4.353
30660SOL     OW93876  13.722   2.637   0.471
30660SOL    HW193877  13.813   2.655   0.496
30660SOL    HW293878  13.675   2.636   0.554
30661SOL     OW93879   6.411  12.683  13.720
30661SOL    HW193880   6.475  12.625  13.678
30661SOL    HW293881   6.339  12.625  13.745
30662SOL     OW93882   2.214  10.103   2.446
30662SOL    HW193883   2.218  10.193   2.412
30662SOL    HW293884   2.270  10.104   2.523
30663SOL     OW93885   0.878   3.012  13.128
30663SOL    HW193886   0.789   3.007  13.164
30663SOL    HW293887   0.934   3.029  13.205
30664SOL     OW93888   3.067   8.748  12.902
30664SOL    HW193889   3.138   8.751  12.965
30664SOL    HW293890   3.081   8.667  12.853
30665SOL     OW93891   8.357   9.306  11.306
30665SOL    HW193892   8.314   9.258  11.377
30665SOL    HW293893   8.416   9.367  11.352
30666SOL     OW93894  10.446  12.884   7.110
30666SOL    HW193895  10.528  12.892   7.160
30666SOL    HW293896  10.377  12.884   7.176
30667SOL     OW93897  14.280   5.472   1.186
30667SOL    HW193898  14.285   5.552   1.133
30667SOL    HW293899  14.202   5.485   1.240
30668SOL     OW93900   7.657   9.955   9.724
30668SOL    HW193901   7.575   9.987   9.687
30668SOL    HW293902   7.699   9.907   9.653
30669SOL     OW93903   6.634   5.389   1.105
30669SOL    HW193904   6.711   5.442   1.085
30669SOL    HW293905   6.582   5.444   1.164
30670SOL     OW93906   5.144  12.291   9.112
30670SOL    HW193907   5.102  12.206   9.124
30670SOL    HW293908   5.233  12.269   9.082
30671SOL     OW93909  14.460  14.255   6.549
30671SOL    HW193910  14.406  14.206   6.487
30671SOL    HW293911  14.415  14.339   6.560
30672SOL     OW93912   1.214   8.273   5.079
30672SOL    HW193913   1.207   8.317   5.164
30672SOL    HW293914   1.307   8.250   5.072
30673SOL     OW93915   4.221   3.905   2.425
30673SOL    HW193916   4.280   3.979   2.408
30673SOL    HW293917   4.136   3.934   2.391
30674SOL     OW93918  11.219   0.674  11.122
30674SOL    HW193919  11.300   0.642  11.163
30674SOL    HW293920  11.182   0.734  11.186
30675SOL     OW93921  10.522   4.393   1.246
30675SOL    HW193922  10.501   4.300   1.235
30675SOL    HW293923  10.614   4.394   1.270
30676SOL     OW93924   2.831   4.976   0.824
30676SOL    HW193925   2.817   4.911   0.754
30676SOL    HW293926   2.770   4.950   0.893
30677SOL     OW93927  13.480   1.717  10.078
30677SOL    HW193928  13.452   1.662  10.005
30677SOL    HW293929  13.536   1.659  10.130
30678SOL     OW93930   4.211   0.689   6.813
30678SOL    HW193931   4.235   0.780   6.794
30678SOL    HW293932   4.146   0.696   6.883
30679SOL     OW93933   1.428   6.880   4.639
30679SOL    HW193934   1.401   6.931   4.716
30679SOL    HW293935   1.425   6.789   4.668
30680SOL     OW93936   9.958  14.745   6.932
30680SOL    HW193937   9.894  14.814   6.917
30680SOL    HW293938  10.010  14.776   7.007
30681SOL     OW93939  10.133   5.703   8.141
30681SOL    HW193940  10.112   5.610   8.142
30681SOL    HW293941  10.069   5.742   8.082
30682SOL     OW93942   0.993   8.650  13.070
30682SOL    HW193943   1.065   8.603  13.028
30682SOL    HW293944   1.032   8.730  13.104
30683SOL     OW93945   3.720  11.564   4.210
30683SOL    HW193946   3.662  11.541   4.137
30683SOL    HW293947   3.682  11.643   4.246
30684SOL     OW93948   3.055   5.380   9.310
30684SOL    HW193949   3.082   5.472   9.311
30684SOL    HW293950   3.016   5.365   9.396
30685SOL     OW93951  14.756   9.690   3.135
30685SOL    HW193952  14.836   9.738   3.155
30685SOL    HW293953  14.692   9.759   3.113
30686SOL     OW93954  10.601   9.815   2.664
30686SOL    HW193955  10.647   9.747   2.613
30686SOL    HW293956  10.522   9.833   2.612
30687SOL     OW93957   6.801   0.960   2.113
30687SOL    HW193958   6.871   1.019   2.141
30687SOL    HW293959   6.833   0.873   2.136
30688SOL     OW93960  11.793   7.069  10.905
30688SOL    HW193961  11.863   7.077  10.970
30688SOL    HW293962  11.760   7.158  10.893
30689SOL     OW93963  11.406  11.902  14.438
30689SOL    HW193964  11.426  11.938  14.525
30689SOL    HW293965  11.426  11.973  14.377
30690SOL     OW93966  11.383   8.466   5.694
30690SOL    HW193967  11.461   8.417   5.671
30690SOL    HW293968  11.311   8.419   5.652
30691SOL     OW93969  13.012  12.502  11.985
30691SOL    HW193970  12.966  12.551  11.918
30691SOL    HW293971  13.047  12.425  11.940
30692SOL     OW93972   6.558   3.505   8.169
30692SOL    HW193973   6.554   3.577   8.107
30692SOL    HW293974   6.509   3.536   8.245
30693SOL     OW93975  12.113  14.567   9.087
30693SOL    HW193976  12.103  14.618   9.167
30693SOL    HW293977  12.136  14.631   9.020
30694SOL     OW93978   0.102   1.113   6.635
30694SOL    HW193979   0.031   1.125   6.572
30694SOL    HW293980   0.110   1.018   6.645
30695SOL     OW93981  11.220   2.321   8.374
30695SOL    HW193982  11.167   2.334   8.296
30695SOL    HW293983  11.297   2.377   8.361
30696SOL     OW93984   9.770   3.287  13.552
30696SOL    HW193985   9.865   3.275  13.541
30696SOL    HW293986   9.742   3.329  13.471
30697SOL     OW93987   0.587   5.662   8.999
30697SOL    HW193988   0.591   5.741   9.052
30697SOL    HW293989   0.606   5.591   9.061
30698SOL     OW93990  13.766   8.020   6.051
30698SOL    HW193991  13.686   8.070   6.035
30698SOL    HW293992  13.818   8.033   5.971
30699SOL     OW93993   1.943   8.470  13.934
30699SOL    HW193994   1.896   8.390  13.908
30699SOL    HW293995   1.875   8.537  13.936
30700SOL     OW93996   0.682   7.837   6.228
30700SOL    HW193997   0.665   7.744   6.212
30700SOL    HW293998   0.720   7.840   6.315
30701SOL     OW93999   8.622   6.587   4.528
30701SOL    HW194000   8.688   6.640   4.574
30701SOL    HW294001   8.545   6.592   4.584
30702SOL     OW94002   5.394  13.265   0.167
30702SOL    HW194003   5.356  13.329   0.108
30702SOL    HW294004   5.321  13.207   0.191
30703SOL     OW94005   4.716  12.321   9.588
30703SOL    HW194006   4.655  12.263   9.634
30703SOL    HW294007   4.797  12.317   9.639
30704SOL     OW94008  11.417   3.358   2.637
30704SOL    HW194009  11.399   3.449   2.613
30704SOL    HW294010  11.410   3.310   2.554
30705SOL     OW94011   8.280   1.960   6.633
30705SOL    HW194012   8.294   1.883   6.689
30705SOL    HW294013   8.349   1.955   6.567
30706SOL     OW94014  11.621  11.233   7.254
30706SOL    HW194015  11.612  11.247   7.349
30706SOL    HW294016  11.641  11.140   7.246
30707SOL     OW94017   5.516   1.853  14.130
30707SOL    HW194018   5.506   1.862  14.036
30707SOL    HW294019   5.428   1.863  14.165
30708SOL     OW94020  11.940  11.443   7.073
30708SOL    HW194021  11.880  11.434   7.147
30708SOL    HW294022  11.997  11.366   7.078
30709SOL     OW94023  10.465   2.094   0.592
30709SOL    HW194024  10.388   2.151   0.590
30709SOL    HW294025  10.538   2.152   0.572
30710SOL     OW94026  10.674   4.455   2.433
30710SOL    HW194027  10.757   4.412   2.414
30710SOL    HW294028  10.657   4.510   2.357
30711SOL     OW94029   7.164   4.650   0.676
30711SOL    HW194030   7.100   4.721   0.677
30711SOL    HW294031   7.127   4.584   0.735
30712SOL     OW94032   3.148   0.724   3.554
30712SOL    HW194033   3.240   0.737   3.578
30712SOL    HW294034   3.146   0.741   3.459
30713SOL     OW94035  10.464  11.487   1.366
30713SOL    HW194036  10.428  11.498   1.454
30713SOL    HW294037  10.510  11.569   1.348
30714SOL     OW94038   7.941   9.538   2.945
30714SOL    HW194039   7.895   9.536   3.029
30714SOL    HW294040   7.981   9.624   2.942
30715SOL     OW94041   1.630  10.881   5.080
30715SOL    HW194042   1.636  10.787   5.094
30715SOL    HW294043   1.643  10.920   5.167
30716SOL     OW94044   0.837   1.555   7.556
30716SOL    HW194045   0.757   1.581   7.511
30716SOL    HW294046   0.896   1.630   7.544
30717SOL     OW94047   9.573   3.255   6.712
30717SOL    HW194048   9.627   3.274   6.789
30717SOL    HW294049   9.489   3.296   6.730
30718SOL     OW94050   5.587   4.307  10.418
30718SOL    HW194051   5.577   4.239  10.485
30718SOL    HW294052   5.503   4.308  10.372
30719SOL     OW94053  13.936  11.608   9.513
30719SOL    HW194054  13.909  11.699   9.507
30719SOL    HW294055  13.987  11.603   9.594
30720SOL     OW94056   0.655   6.745  14.052
30720SOL    HW194057   0.681   6.792  13.973
30720SOL    HW294058   0.600   6.806  14.100
30721SOL     OW94059   9.104   6.315  10.491
30721SOL    HW194060   9.126   6.405  10.518
30721SOL    HW294061   9.137   6.308  10.402
30722SOL     OW94062   2.220  11.396   5.953
30722SOL    HW194063   2.128  11.411   5.929
30722SOL    HW294064   2.261  11.482   5.945
30723SOL     OW94065   5.511  10.039   7.119
30723SOL    HW194066   5.541  10.003   7.203
30723SOL    HW294067   5.498   9.962   7.064
30724SOL     OW94068  10.948   2.407  11.484
30724SOL    HW194069  10.938   2.351  11.407
30724SOL    HW294070  10.927   2.495  11.453
30725SOL     OW94071   5.746   4.474   5.893
30725SOL    HW194072   5.738   4.453   5.986
30725SOL    HW294073   5.773   4.566   5.891
30726SOL     OW94074   7.966  12.715  14.720
30726SOL    HW194075   7.933  12.659  14.790
30726SOL    HW294076   8.059  12.696  14.715
30727SOL     OW94077   8.734   9.688  13.081
30727SOL    HW194078   8.783   9.675  13.001
30727SOL    HW294079   8.650   9.724  13.052
30728SOL     OW94080  11.122   3.523   3.050
30728SOL    HW194081  11.108   3.503   3.142
30728SOL    HW294082  11.055   3.474   3.003
30729SOL     OW94083  10.779  14.371  14.598
30729SOL    HW194084  10.843  14.329  14.541
30729SOL    HW294085  10.750  14.302  14.657
30730SOL     OW94086   4.903   1.241   3.583
30730SOL    HW194087   4.960   1.200   3.519
30730SOL    HW294088   4.958   1.252   3.661
30731SOL     OW94089   4.891   9.910   1.846
30731SOL    HW194090   4.957   9.845   1.822
30731SOL    HW294091   4.814   9.885   1.794
30732SOL     OW94092   5.371   6.792  14.648
30732SOL    HW194093   5.296   6.789  14.708
30732SOL    HW294094   5.348   6.860  14.585
30733SOL     OW94095  12.375   8.027   5.137
30733SOL    HW194096  12.360   8.088   5.065
30733SOL    HW294097  12.433   8.075   5.197
30734SOL     OW94098   3.723  14.138   5.643
30734SOL    HW194099   3.633  14.110   5.626
30734SOL    HW294100   3.756  14.076   5.708
30735SOL     OW94101  12.057   7.048  13.634
30735SOL    HW194102  12.141   7.095  13.634
30735SOL    HW294103  12.016   7.073  13.716
30736SOL     OW94104   6.345  11.419  12.170
30736SOL    HW194105   6.330  11.418  12.264
30736SOL    HW294106   6.336  11.328  12.143
30737SOL     OW94107  10.584  11.646   7.863
30737SOL    HW194108  10.627  11.728   7.838
30737SOL    HW294109  10.545  11.664   7.949
30738SOL     OW94110   6.523  14.509  10.670
30738SOL    HW194111   6.492  14.529  10.581
30738SOL    HW294112   6.446  14.474  10.714
30739SOL     OW94113  13.619   2.016   4.956
30739SOL    HW194114  13.670   2.072   5.015
30739SOL    HW294115  13.575   1.954   5.015
30740SOL     OW94116  11.616  14.468   9.363
30740SOL    HW194117  11.687  14.407   9.341
30740SOL    HW294118  11.570  14.482   9.280
30741SOL     OW94119   3.138   5.193   8.179
30741SOL    HW194120   3.056   5.208   8.226
30741SOL    HW294121   3.110   5.166   8.091
30742SOL     OW94122   8.133  14.541  14.045
30742SOL    HW194123   8.143  14.493  13.963
30742SOL    HW294124   8.112  14.630  14.018
30743SOL     OW94125   3.893   0.121   5.771
30743SOL    HW194126   3.962   0.180   5.801
30743SOL    HW294127   3.852   0.089   5.852
30744SOL     OW94128   3.746  11.352   2.915
30744SOL    HW194129   3.730  11.388   2.828
30744SOL    HW294130   3.661  11.323   2.946
30745SOL     OW94131   0.299   7.094   2.046
30745SOL    HW194132   0.309   7.001   2.068
30745SOL    HW294133   0.225   7.123   2.101
30746SOL     OW94134  14.212   5.532   6.615
30746SOL    HW194135  14.177   5.448   6.643
30746SOL    HW294136  14.237   5.576   6.696
30747SOL     OW94137   6.213   0.050   7.989
30747SOL    HW194138   6.162   0.015   7.916
30747SOL    HW294139   6.249   0.132   7.956
30748SOL     OW94140  10.737   1.158   5.532
30748SOL    HW194141  10.815   1.105   5.516
30748SOL    HW294142  10.664   1.097   5.516
30749SOL     OW94143  12.822  12.442  11.049
30749SOL    HW194144  12.911  12.410  11.065
30749SOL    HW294145  12.773  12.363  11.024
30750SOL     OW94146   9.122   6.455   5.118
30750SOL    HW194147   9.195   6.443   5.178
30750SOL    HW294148   9.156   6.511   5.049
30751SOL     OW94149  14.093  11.540   6.333
30751SOL    HW194150  14.105  11.447   6.316
30751SOL    HW294151  14.108  11.550   6.427
30752SOL     OW94152   7.553   1.714  12.942
30752SOL    HW194153   7.601   1.724  13.024
30752SOL    HW294154   7.526   1.622  12.942
30753SOL     OW94155  13.015   9.528   1.839
30753SOL    HW194156  12.946   9.576   1.884
30753SOL    HW294157  13.096   9.571   1.865
30754SOL     OW94158   3.124  11.648   4.306
30754SOL    HW194159   3.139  11.728   4.356
30754SOL    HW294160   3.206  11.599   4.314
30755SOL     OW94161  10.355   7.658  11.257
30755SOL    HW194162  10.417   7.617  11.317
30755SOL    HW294163  10.310   7.585  11.215
30756SOL     OW94164   4.044   4.146  13.684
30756SOL    HW194165   3.994   4.098  13.750
30756SOL    HW294166   3.981   4.208  13.646
30757SOL     OW94167   3.631  13.580  10.678
30757SOL    HW194168   3.631  13.494  10.635
30757SOL    HW294169   3.633  13.643  10.606
30758SOL     OW94170   7.743   4.176   1.988
30758SOL    HW194171   7.740   4.270   2.006
30758SOL    HW294172   7.813   4.143   2.044
30759SOL     OW94173   8.228   1.847  13.085
30759SOL    HW194174   8.256   1.880  13.171
30759SOL    HW294175   8.233   1.752  13.094
30760SOL     OW94176  11.093   7.216   1.612
30760SOL    HW194177  11.180   7.249   1.635
30760SOL    HW294178  11.065   7.272   1.539
30761SOL     OW94179   4.443  13.016   9.848
30761SOL    HW194180   4.430  13.108   9.823
30761SOL    HW294181   4.385  13.003   9.922
30762SOL     OW94182  10.653  12.695   0.922
30762SOL    HW194183  10.666  12.601   0.909
30762SOL    HW294184  10.718  12.720   0.988
30763SOL     OW94185  13.241  10.494  10.389
30763SOL    HW194186  13.224  10.400  10.381
30763SOL    HW294187  13.167  10.535  10.344
30764SOL     OW94188   1.964  14.865  11.687
30764SOL    HW194189   1.925   0.023  11.604
30764SOL    HW294190   1.914   0.038  11.755
30765SOL     OW94191   1.529  11.642   0.595
30765SOL    HW194192   1.509  11.650   0.501
30765SOL    HW294193   1.598  11.576   0.599
30766SOL     OW94194   6.715  12.282  10.073
30766SOL    HW194195   6.668  12.201  10.095
30766SOL    HW294196   6.655  12.329  10.016
30767SOL     OW94197   7.796  13.932   7.448
30767SOL    HW194198   7.774  13.933   7.541
30767SOL    HW294199   7.735  13.994   7.409
30768SOL     OW94200   6.712  13.324  12.863
30768SOL    HW194201   6.700  13.270  12.941
30768SOL    HW294202   6.701  13.414  12.895
30769SOL     OW94203   1.166   7.003  14.045
30769SOL    HW194204   1.075   7.027  14.064
30769SOL    HW294205   1.180   6.922  14.094
30770SOL     OW94206   0.277  11.184   5.115
30770SOL    HW194207   0.367  11.167   5.141
30770SOL    HW294208   0.283  11.209   5.022
30771SOL     OW94209   4.142   8.181  10.760
30771SOL    HW194210   4.228   8.199  10.723
30771SOL    HW294211   4.080   8.202  10.691
30772SOL     OW94212   3.663   5.551  10.681
30772SOL    HW194213   3.607   5.628  10.667
30772SOL    HW294214   3.603   5.483  10.710
30773SOL     OW94215   5.914   7.374   9.652
30773SOL    HW194216   5.919   7.461   9.612
30773SOL    HW294217   6.005   7.345   9.655
30774SOL     OW94218   5.870   5.712   9.190
30774SOL    HW194219   5.842   5.636   9.139
30774SOL    HW294220   5.936   5.677   9.250
30775SOL     OW94221   3.152   2.822  13.651
30775SOL    HW194222   3.209   2.889  13.689
30775SOL    HW294223   3.083   2.808  13.716
30776SOL     OW94224   4.792   1.276  10.493
30776SOL    HW194225   4.878   1.236  10.499
30776SOL    HW294226   4.737   1.227  10.554
30777SOL     OW94227  14.275  12.616   3.302
30777SOL    HW194228  14.323  12.582   3.378
30777SOL    HW294229  14.287  12.550   3.234
30778SOL     OW94230   8.223   2.811   3.083
30778SOL    HW194231   8.230   2.738   3.145
30778SOL    HW294232   8.304   2.809   3.033
30779SOL     OW94233   5.416   3.027   5.337
30779SOL    HW194234   5.417   2.980   5.254
30779SOL    HW294235   5.339   3.083   5.332
30780SOL     OW94236   9.374   0.904   5.096
30780SOL    HW194237   9.374   0.938   5.186
30780SOL    HW294238   9.326   0.971   5.046
30781SOL     OW94239   9.910  13.069   6.345
30781SOL    HW194240   9.949  13.129   6.408
30781SOL    HW294241   9.985  13.020   6.310
30782SOL     OW94242   7.244  12.433   5.300
30782SOL    HW194243   7.337  12.420   5.320
30782SOL    HW294244   7.198  12.384   5.367
30783SOL     OW94245   1.540  12.694  14.269
30783SOL    HW194246   1.484  12.643  14.328
30783SOL    HW294247   1.582  12.758  14.326
30784SOL     OW94248   2.400   0.725   3.847
30784SOL    HW194249   2.360   0.800   3.803
30784SOL    HW294250   2.335   0.655   3.837
30785SOL     OW94251  13.990  13.810   0.682
30785SOL    HW194252  13.978  13.903   0.701
30785SOL    HW294253  13.901  13.774   0.682
30786SOL     OW94254  13.771   9.515   5.417
30786SOL    HW194255  13.685   9.554   5.435
30786SOL    HW294256  13.753   9.442   5.359
30787SOL     OW94257   7.795   5.960  11.777
30787SOL    HW194258   7.847   6.030  11.738
30787SOL    HW294259   7.858   5.905  11.823
30788SOL     OW94260   6.921   1.466   3.975
30788SOL    HW194261   6.861   1.439   3.905
30788SOL    HW294262   6.865   1.514   4.036
30789SOL     OW94263  12.463  14.438   0.650
30789SOL    HW194264  12.526  14.395   0.592
30789SOL    HW294265  12.491  14.413   0.738
30790SOL     OW94266  14.691   4.685  12.468
30790SOL    HW194267  14.627   4.665  12.400
30790SOL    HW294268  14.773   4.698  12.420
30791SOL     OW94269   4.480  12.595   5.848
30791SOL    HW194270   4.441  12.665   5.900
30791SOL    HW294271   4.408  12.561   5.796
30792SOL     OW94272  12.933   7.041  14.104
30792SOL    HW194273  12.886   7.118  14.136
30792SOL    HW294274  13.026   7.063  14.113
30793SOL     OW94275  11.002   4.610  13.685
30793SOL    HW194276  10.944   4.535  13.700
30793SOL    HW294277  10.974   4.646  13.601
30794SOL     OW94278  13.402   6.009   4.451
30794SOL    HW194279  13.434   6.095   4.478
30794SOL    HW294280  13.336   5.986   4.517
30795SOL     OW94281   9.649   3.399   6.216
30795SOL    HW194282   9.668   3.366   6.128
30795SOL    HW294283   9.732   3.437   6.246
30796SOL     OW94284   6.185  13.824   5.137
30796SOL    HW194285   6.228  13.910   5.132
30796SOL    HW294286   6.241  13.767   5.084
30797SOL     OW94287   1.414   2.888  11.285
30797SOL    HW194288   1.357   2.815  11.260
30797SOL    HW294289   1.360   2.966  11.271
30798SOL     OW94290  10.172  13.459  13.183
30798SOL    HW194291  10.200  13.539  13.139
30798SOL    HW294292  10.207  13.388  13.129
30799SOL     OW94293   7.017  11.553   5.305
30799SOL    HW194294   6.980  11.622   5.360
30799SOL    HW294295   7.024  11.592   5.218
30800SOL     OW94296  10.210   7.276   5.303
30800SOL    HW194297  10.239   7.340   5.238
30800SOL    HW294298  10.126   7.311   5.335
30801SOL     OW94299  11.395   6.431   6.668
30801SOL    HW194300  11.490   6.436   6.681
30801SOL    HW294301  11.359   6.428   6.756
30802SOL     OW94302   2.610   0.687   6.316
30802SOL    HW194303   2.690   0.649   6.280
30802SOL    HW294304   2.544   0.669   6.250
30803SOL     OW94305   7.332   5.084   9.901
30803SOL    HW194306   7.371   5.045   9.978
30803SOL    HW294307   7.292   5.010   9.854
30804SOL     OW94308  10.939   7.384  11.008
30804SOL    HW194309  11.018   7.438  11.015
30804SOL    HW294310  10.958   7.306  11.060
30805SOL     OW94311   1.033  10.862   4.255
30805SOL    HW194312   1.089  10.800   4.208
30805SOL    HW294313   1.026  10.937   4.195
30806SOL     OW94314   8.070  14.067   0.800
30806SOL    HW194315   8.007  14.011   0.846
30806SOL    HW294316   8.103  14.126   0.868
30807SOL     OW94317   0.715   9.059  10.952
30807SOL    HW194318   0.668   9.114  10.889
30807SOL    HW294319   0.739   8.981  10.902
30808SOL     OW94320   4.183  13.622  13.960
30808SOL    HW194321   4.097  13.592  13.930
30808SOL    HW294322   4.245  13.574  13.906
30809SOL     OW94323  10.856   8.071   7.206
30809SOL    HW194324  10.929   8.132   7.209
30809SOL    HW294325  10.861   8.029   7.120
30810SOL     OW94326   6.689   5.782   7.197
30810SOL    HW194327   6.741   5.828   7.130
30810SOL    HW294328   6.678   5.847   7.266
30811SOL     OW94329  14.402   7.921   8.870
30811SOL    HW194330  14.480   7.869   8.893
30811SOL    HW294331  14.330   7.875   8.913
30812SOL     OW94332   5.771   7.337   4.022
30812SOL    HW194333   5.690   7.286   4.017
30812SOL    HW294334   5.840   7.275   3.997
30813SOL     OW94335   8.404  11.676  12.802
30813SOL    HW194336   8.483  11.624  12.814
30813SOL    HW294337   8.359  11.634  12.729
30814SOL     OW94338  10.562  14.570   5.182
30814SOL    HW194339  10.647  14.552   5.222
30814SOL    HW294340  10.554  14.506   5.111
30815SOL     OW94341   1.028   8.741   7.050
30815SOL    HW194342   0.949   8.770   7.097
30815SOL    HW294343   1.037   8.649   7.074
30816SOL     OW94344   0.637  14.260   3.009
30816SOL    HW194345   0.727  14.239   2.983
30816SOL    HW294346   0.619  14.344   2.968
30817SOL     OW94347   9.032  11.042   2.895
30817SOL    HW194348   9.028  11.138   2.895
30817SOL    HW294349   8.943  11.014   2.913
30818SOL     OW94350   0.047   9.231  10.809
30818SOL    HW194351  14.846   9.169  10.798
30818SOL    HW294352   0.095   9.199  10.885
30819SOL     OW94353  14.658   6.645  11.549
30819SOL    HW194354  14.655   6.714  11.482
30819SOL    HW294355  14.729   6.672  11.606
30820SOL     OW94356   1.911  12.025  12.400
30820SOL    HW194357   1.974  12.096  12.401
30820SOL    HW294358   1.835  12.060  12.447
30821SOL     OW94359   5.541   6.347   0.394
30821SOL    HW194360   5.633   6.366   0.374
30821SOL    HW294361   5.493   6.384   0.319
30822SOL     OW94362  10.148   8.160   1.280
30822SOL    HW194363  10.150   8.162   1.185
30822SOL    HW294364  10.202   8.085   1.305
30823SOL     OW94365  14.086   5.015   0.487
30823SOL    HW194366  14.087   4.983   0.396
30823SOL    HW294367  14.106   5.108   0.480
30824SOL     OW94368   0.752  10.123  12.723
30824SOL    HW194369   0.839  10.161  12.712
30824SOL    HW294370   0.757  10.074  12.805
30825SOL     OW94371  11.169  11.018   6.922
30825SOL    HW194372  11.090  11.006   6.868
30825SOL    HW294373  11.222  10.940   6.905
30826SOL     OW94374   5.098   6.244   4.852
30826SOL    HW194375   5.087   6.244   4.947
30826SOL    HW294376   5.178   6.293   4.837
30827SOL     OW94377  14.801   9.737   6.177
30827SOL    HW194378  14.706   9.726   6.180
30827SOL    HW294379  14.815   9.818   6.129
30828SOL     OW94380   2.132   7.871  11.874
30828SOL    HW194381   2.113   7.964  11.864
30828SOL    HW294382   2.223   7.862  11.848
30829SOL     OW94383  13.959   1.416   8.234
30829SOL    HW194384  14.043   1.427   8.280
30829SOL    HW294385  13.983   1.371   8.152
30830SOL     OW94386   1.682  12.861  12.056
30830SOL    HW194387   1.761  12.812  12.074
30830SOL    HW294388   1.713  12.947  12.027
30831SOL     OW94389   6.579  10.106   0.257
30831SOL    HW194390   6.592  10.021   0.215
30831SOL    HW294391   6.497  10.139   0.220
30832SOL     OW94392   4.430   0.117   1.259
30832SOL    HW194393   4.353   0.133   1.204
30832SOL    HW294394   4.500   0.169   1.220
30833SOL     OW94395   8.289   9.100  14.451
30833SOL    HW194396   8.274   9.009  14.479
30833SOL    HW294397   8.278   9.151  14.531
30834SOL     OW94398  12.555  13.669  12.617
30834SOL    HW194399  12.598  13.753  12.631
30834SOL    HW294400  12.535  13.668  12.523
30835SOL     OW94401   8.564   4.095  11.887
30835SOL    HW194402   8.551   4.083  11.981
30835SOL    HW294403   8.603   4.013  11.858
30836SOL     OW94404   3.584  11.747   4.324
30836SOL    HW194405   3.498  11.766   4.363
30836SOL    HW294406   3.646  11.760   4.396
30837SOL     OW94407  13.410  12.572   7.552
30837SOL    HW194408  13.402  12.667   7.545
30837SOL    HW294409  13.455  12.558   7.636
30838SOL     OW94410  14.110  14.592   7.880
30838SOL    HW194411  14.016  14.609   7.878
30838SOL    HW294412  14.138  14.601   7.789
30839SOL     OW94413   1.608  10.873  11.714
30839SOL    HW194414   1.608  10.967  11.729
30839SOL    HW294415   1.568  10.836  11.793
30840SOL     OW94416   4.530   8.563   8.064
30840SOL    HW194417   4.545   8.539   8.156
30840SOL    HW294418   4.561   8.487   8.014
30841SOL     OW94419   6.746   0.245  10.723
30841SOL    HW194420   6.832   0.206  10.715
30841SOL    HW294421   6.688   0.185  10.675
30842SOL     OW94422  11.691   8.937   0.666
30842SOL    HW194423  11.627   8.875   0.702
30842SOL    HW294424  11.638   9.008   0.631
30843SOL     OW94425  14.200   4.710   5.220
30843SOL    HW194426  14.211   4.692   5.126
30843SOL    HW294427  14.286   4.740   5.248
30844SOL     OW94428  14.541   7.586   2.436
30844SOL    HW194429  14.625   7.542   2.433
30844SOL    HW294430  14.493   7.551   2.361
30845SOL     OW94431   5.084   0.935  12.007
30845SOL    HW194432   5.100   0.841  12.007
30845SOL    HW294433   5.063   0.956  12.098
30846SOL     OW94434   4.810   3.746   1.105
30846SOL    HW194435   4.769   3.660   1.106
30846SOL    HW294436   4.896   3.731   1.065
30847SOL     OW94437  11.756   1.098   8.749
30847SOL    HW194438  11.806   1.024   8.714
30847SOL    HW294439  11.745   1.078   8.842
30848SOL     OW94440  13.150   5.214   3.885
30848SOL    HW194441  13.186   5.261   3.809
30848SOL    HW294442  13.195   5.130   3.885
30849SOL     OW94443   1.197  10.989   6.487
30849SOL    HW194444   1.224  10.920   6.548
30849SOL    HW294445   1.271  11.000   6.428
30850SOL     OW94446   7.481   3.487   9.330
30850SOL    HW194447   7.430   3.527   9.260
30850SOL    HW294448   7.420   3.479   9.403
30851SOL     OW94449  14.852   9.086  14.380
30851SOL    HW194450  14.799   9.131  14.314
30851SOL    HW294451  14.822   8.996  14.377
30852SOL     OW94452   3.763  14.648  14.541
30852SOL    HW194453   3.790  14.639  14.632
30852SOL    HW294454   3.760  14.743  14.527
30853SOL     OW94455  14.594   1.182   9.341
30853SOL    HW194456  14.572   1.194   9.433
30853SOL    HW294457  14.679   1.226   9.330
30854SOL     OW94458   0.481   3.717   1.200
30854SOL    HW194459   0.545   3.761   1.144
30854SOL    HW294460   0.534   3.682   1.272
30855SOL     OW94461   7.238  14.292  14.506
30855SOL    HW194462   7.252  14.327  14.594
30855SOL    HW294463   7.320  14.307  14.461
30856SOL     OW94464   1.857   9.518   0.731
30856SOL    HW194465   1.819   9.455   0.793
30856SOL    HW294466   1.925   9.468   0.685
30857SOL     OW94467  14.798   0.864   6.448
30857SOL    HW194468  14.816   0.771   6.462
30857SOL    HW294469  14.716   0.865   6.399
30858SOL     OW94470   5.267   0.072   9.453
30858SOL    HW194471   5.351   0.034   9.481
30858SOL    HW294472   5.206   0.049   9.524
30859SOL     OW94473  11.016   9.555  13.047
30859SOL    HW194474  11.038   9.462  13.060
30859SOL    HW294475  10.928   9.554  13.011
30860SOL     OW94476   8.478   4.342   8.745
30860SOL    HW194477   8.478   4.404   8.672
30860SOL    HW294478   8.476   4.256   8.704
30861SOL     OW94479  12.973   6.892   4.531
30861SOL    HW194480  12.903   6.845   4.486
30861SOL    HW294481  13.003   6.956   4.466
30862SOL     OW94482   3.512   5.782  11.772
30862SOL    HW194483   3.590   5.837  11.781
30862SOL    HW294484   3.541   5.695  11.799
30863SOL     OW94485   8.115  10.877  10.720
30863SOL    HW194486   8.105  10.782  10.712
30863SOL    HW294487   8.093  10.896  10.811
30864SOL     OW94488   7.506   5.772  11.161
30864SOL    HW194489   7.595   5.795  11.136
30864SOL    HW294490   7.451   5.836  11.115
30865SOL     OW94491   1.797   7.329   0.103
30865SOL    HW194492   1.761   7.401   0.050
30865SOL    HW294493   1.884   7.360   0.129
30866SOL     OW94494  11.339   9.051   7.244
30866SOL    HW194495  11.272   9.025   7.307
30866SOL    HW294496  11.414   9.077   7.297
30867SOL     OW94497   3.458  12.304  14.043
30867SOL    HW194498   3.443  12.232  14.104
30867SOL    HW294499   3.421  12.381  14.087
30868SOL     OW94500   2.771  10.752  12.946
30868SOL    HW194501   2.770  10.724  12.854
30868SOL    HW294502   2.679  10.759  12.970
30869SOL     OW94503   8.613   1.838   9.798
30869SOL    HW194504   8.679   1.894   9.840
30869SOL    HW294505   8.561   1.804   9.870
30870SOL     OW94506   0.802  11.953   4.136
30870SOL    HW194507   0.889  11.992   4.139
30870SOL    HW294508   0.816  11.860   4.153
30871SOL     OW94509   6.580   9.789  12.492
30871SOL    HW194510   6.523   9.841  12.549
30871SOL    HW294511   6.620   9.854  12.434
30872SOL     OW94512   2.271   3.214   9.593
30872SOL    HW194513   2.289   3.240   9.502
30872SOL    HW294514   2.325   3.136   9.607
30873SOL     OW94515   5.163  11.040  12.794
30873SOL    HW194516   5.210  11.077  12.719
30873SOL    HW294517   5.224  10.978  12.833
30874SOL     OW94518   4.769  10.084   4.883
30874SOL    HW194519   4.806  10.014   4.829
30874SOL    HW294520   4.761  10.159   4.824
30875SOL     OW94521   0.736   2.303   8.132
30875SOL    HW194522   0.677   2.357   8.080
30875SOL    HW294523   0.687   2.223   8.149
30876SOL     OW94524   2.392   2.729   4.470
30876SOL    HW194525   2.435   2.724   4.384
30876SOL    HW294526   2.299   2.726   4.450
30877SOL     OW94527  11.285  10.330   7.171
30877SOL    HW194528  11.302  10.339   7.078
30877SOL    HW294529  11.347  10.263   7.200
30878SOL     OW94530  11.696  14.166   6.150
30878SOL    HW194531  11.730  14.234   6.209
30878SOL    HW294532  11.625  14.209   6.103
30879SOL     OW94533   3.230   4.334   0.930
30879SOL    HW194534   3.192   4.419   0.911
30879SOL    HW294535   3.206   4.316   1.021
30880SOL     OW94536   5.269   4.856  14.264
30880SOL    HW194537   5.220   4.938  14.269
30880SOL    HW294538   5.253   4.814  14.348
30881SOL     OW94539   1.548   0.306   7.600
30881SOL    HW194540   1.574   0.389   7.638
30881SOL    HW294541   1.481   0.272   7.659
30882SOL     OW94542  11.906   3.314   4.726
30882SOL    HW194543  11.891   3.226   4.758
30882SOL    HW294544  12.000   3.317   4.705
30883SOL     OW94545   8.542  10.588   6.435
30883SOL    HW194546   8.466  10.604   6.490
30883SOL    HW294547   8.556  10.493   6.439
30884SOL     OW94548   8.299   7.050   3.795
30884SOL    HW194549   8.296   7.145   3.791
30884SOL    HW294550   8.390   7.027   3.777
30885SOL     OW94551   6.018   6.779   5.750
30885SOL    HW194552   6.018   6.763   5.656
30885SOL    HW294553   5.985   6.868   5.760
30886SOL     OW94554  12.794   5.193  10.290
30886SOL    HW194555  12.728   5.259  10.308
30886SOL    HW294556  12.841   5.225  10.213
30887SOL     OW94557  13.934   3.209   6.921
30887SOL    HW194558  14.001   3.194   6.989
30887SOL    HW294559  13.875   3.274   6.960
30888SOL     OW94560   3.765   0.834   7.858
30888SOL    HW194561   3.796   0.912   7.904
30888SOL    HW294562   3.726   0.867   7.777
30889SOL     OW94563  14.362  12.822   0.742
30889SOL    HW194564  14.429  12.884   0.714
30889SOL    HW294565  14.351  12.763   0.667
30890SOL     OW94566   5.993  12.469  14.043
30890SOL    HW194567   6.076  12.467  14.089
30890SOL    HW294568   5.962  12.378  14.047
30891SOL     OW94569  12.489  13.788  13.228
30891SOL    HW194570  12.515  13.804  13.138
30891SOL    HW294571  12.455  13.872  13.259
30892SOL     OW94572   3.140  14.552  11.831
30892SOL    HW194573   3.138  14.491  11.905
30892SOL    HW294574   3.077  14.516  11.769
30893SOL     OW94575   5.309  13.524   2.827
30893SOL    HW194576   5.382  13.547   2.885
30893SOL    HW294577   5.327  13.571   2.746
30894SOL     OW94578   1.252   1.929   4.121
30894SOL    HW194579   1.310   1.975   4.182
30894SOL    HW294580   1.179   1.899   4.175
30895SOL     OW94581   8.858   7.536   4.742
30895SOL    HW194582   8.926   7.602   4.759
30895SOL    HW294583   8.794   7.550   4.812
30896SOL     OW94584   7.295   8.615  11.348
30896SOL    HW194585   7.317   8.697  11.304
30896SOL    HW294586   7.335   8.623  11.435
30897SOL     OW94587   5.248   3.359   3.398
30897SOL    HW194588   5.270   3.429   3.460
30897SOL    HW294589   5.276   3.279   3.442
30898SOL     OW94590  12.764   6.237   9.534
30898SOL    HW194591  12.853   6.269   9.547
30898SOL    HW294592  12.758   6.218   9.441
30899SOL     OW94593  13.547   0.963  11.129
30899SOL    HW194594  13.602   1.032  11.166
30899SOL    HW294595  13.457   0.992  11.148
30900SOL     OW94596  10.527   0.098  13.800
30900SOL    HW194597  10.581   0.025  13.770
30900SOL    HW294598  10.589   0.162  13.835
30901SOL     OW94599  14.577   3.753   9.270
30901SOL    HW194600  14.494   3.781   9.233
30901SOL    HW294601  14.634   3.830   9.264
30902SOL     OW94602   6.631  12.982   8.664
30902SOL    HW194603   6.619  12.968   8.758
30902SOL    HW294604   6.693  13.055   8.658
30903SOL     OW94605   1.031   5.122   1.347
30903SOL    HW194606   1.091   5.155   1.415
30903SOL    HW294607   1.067   5.036   1.324
30904SOL     OW94608   5.804  11.939   6.407
30904SOL    HW194609   5.715  11.903   6.407
30904SOL    HW294610   5.858  11.869   6.372
30905SOL     OW94611   8.031  10.467  12.582
30905SOL    HW194612   7.942  10.434  12.573
30905SOL    HW294613   8.052  10.504  12.496
30906SOL     OW94614   8.311   5.159  11.563
30906SOL    HW194615   8.379   5.175  11.628
30906SOL    HW294616   8.329   5.223  11.494
30907SOL     OW94617   8.456  10.745   7.113
30907SOL    HW194618   8.466  10.653   7.136
30907SOL    HW294619   8.530  10.789   7.155
30908SOL     OW94620   6.398   1.178   0.134
30908SOL    HW194621   6.380   1.138   0.219
30908SOL    HW294622   6.440   1.261   0.156
30909SOL     OW94623  10.070   0.970   8.151
30909SOL    HW194624  10.134   0.915   8.105
30909SOL    HW294625  10.121   1.044   8.183
30910SOL     OW94626  10.070   4.267   2.261
30910SOL    HW194627  10.074   4.333   2.192
30910SOL    HW294628  10.116   4.191   2.225
30911SOL     OW94629  14.510  11.019   2.795
30911SOL    HW194630  14.601  10.990   2.807
30911SOL    HW294631  14.507  11.105   2.838
30912SOL     OW94632  11.024   1.648   9.254
30912SOL    HW194633  11.010   1.554   9.243
30912SOL    HW294634  10.941   1.687   9.228
30913SOL     OW94635   2.022  13.012   3.629
30913SOL    HW194636   2.077  13.078   3.588
30913SOL    HW294637   2.008  12.946   3.561
30914SOL     OW94638   8.485   7.259   3.544
30914SOL    HW194639   8.561   7.253   3.486
30914SOL    HW294640   8.489   7.179   3.597
30915SOL     OW94641   4.003   5.879  11.007
30915SOL    HW194642   4.064   5.953  11.009
30915SOL    HW294643   4.038   5.817  11.070
30916SOL     OW94644  10.170  14.155  12.391
30916SOL    HW194645  10.253  14.169  12.346
30916SOL    HW294646  10.194  14.126  12.478
30917SOL     OW94647   9.599   6.690   7.901
30917SOL    HW194648   9.665   6.661   7.838
30917SOL    HW294649   9.515   6.678   7.855
30918SOL     OW94650   1.044   9.590   9.533
30918SOL    HW194651   1.129   9.604   9.491
30918SOL    HW294652   1.026   9.673   9.578
30919SOL     OW94653   4.100  12.519   6.862
30919SOL    HW194654   4.110  12.443   6.804
30919SOL    HW294655   4.189  12.542   6.888
30920SOL     OW94656   1.656   6.136  13.021
30920SOL    HW194657   1.643   6.203  12.954
30920SOL    HW294658   1.589   6.156  13.087
30921SOL     OW94659   5.760   7.801   0.973
30921SOL    HW194660   5.787   7.884   1.012
30921SOL    HW294661   5.687   7.771   1.027
30922SOL     OW94662   6.783   8.734   0.869
30922SOL    HW194663   6.756   8.762   0.782
30922SOL    HW294664   6.867   8.776   0.884
30923SOL     OW94665   4.560   8.112  12.891
30923SOL    HW194666   4.489   8.140  12.948
30923SOL    HW294667   4.526   8.124  12.802
30924SOL     OW94668  13.835   0.397  10.755
30924SOL    HW194669  13.800   0.451  10.825
30924SOL    HW294670  13.916   0.441  10.728
30925SOL     OW94671   8.152   2.398   1.443
30925SOL    HW194672   8.154   2.356   1.356
30925SOL    HW294673   8.153   2.492   1.425
30926SOL     OW94674   9.507   2.207   9.945
30926SOL    HW194675   9.579   2.228  10.004
30926SOL    HW294676   9.520   2.115   9.923
30927SOL     OW94677   2.132  14.327  11.362
30927SOL    HW194678   2.083  14.330  11.279
30927SOL    HW294679   2.217  14.365  11.340
30928SOL     OW94680   9.200   6.644   7.838
30928SOL    HW194681   9.106   6.631   7.821
30928SOL    HW294682   9.203   6.687   7.923
30929SOL     OW94683   5.449   6.069   1.788
30929SOL    HW194684   5.356   6.049   1.781
30929SOL    HW294685   5.489   6.024   1.714
30930SOL     OW94686   5.944   0.321  12.973
30930SOL    HW194687   5.982   0.254  12.916
30930SOL    HW294688   5.952   0.283  13.061
30931SOL     OW94689   2.083  12.397   2.544
30931SOL    HW194690   2.002  12.385   2.592
30931SOL    HW294691   2.138  12.449   2.603
30932SOL     OW94692   8.371   3.494  11.268
30932SOL    HW194693   8.374   3.498  11.363
30932SOL    HW294694   8.302   3.430  11.249
30933SOL     OW94695   8.052   8.290   7.742
30933SOL    HW194696   7.984   8.241   7.696
30933SOL    HW294697   8.049   8.259   7.832
30934SOL     OW94698   9.316  12.518  13.541
30934SOL    HW194699   9.316  12.611  13.561
30934SOL    HW294700   9.307  12.475  13.627
30935SOL     OW94701   3.389  13.584   2.448
30935SOL    HW194702   3.457  13.649   2.425
30935SOL    HW294703   3.426  13.501   2.419
30936SOL     OW94704  11.405   0.292  14.210
30936SOL    HW194705  11.395   0.237  14.132
30936SOL    HW294706  11.495   0.324  14.206
30937SOL     OW94707   8.518  11.512   4.752
30937SOL    HW194708   8.482  11.493   4.838
30937SOL    HW294709   8.603  11.467   4.751
30938SOL     OW94710   7.470   6.408   6.272
30938SOL    HW194711   7.428   6.460   6.204
30938SOL    HW294712   7.555   6.383   6.233
30939SOL     OW94713   9.441   3.644   6.301
30939SOL    HW194714   9.357   3.683   6.328
30939SOL    HW294715   9.495   3.648   6.380
30940SOL     OW94716   1.402  13.147   5.470
30940SOL    HW194717   1.383  13.058   5.501
30940SOL    HW294718   1.371  13.204   5.540
30941SOL     OW94719   4.190  12.867   5.018
30941SOL    HW194720   4.110  12.868   4.967
30941SOL    HW294721   4.212  12.959   5.030
30942SOL     OW94722  10.389   2.313   1.140
30942SOL    HW194723  10.317   2.255   1.164
30942SOL    HW294724  10.452   2.303   1.211
30943SOL     OW94725   3.319   3.128   5.908
30943SOL    HW194726   3.413   3.113   5.899
30943SOL    HW294727   3.311   3.184   5.986
30944SOL     OW94728  12.035   4.144  10.872
30944SOL    HW194729  12.082   4.121  10.792
30944SOL    HW294730  12.063   4.079  10.936
30945SOL     OW94731   2.036   2.868   1.757
30945SOL    HW194732   2.130   2.881   1.768
30945SOL    HW294733   2.001   2.876   1.846
30946SOL     OW94734  13.674   1.523  11.785
30946SOL    HW194735  13.716   1.562  11.709
30946SOL    HW294736  13.585   1.559  11.785
30947SOL     OW94737   3.817   0.730   6.167
30947SOL    HW194738   3.890   0.681   6.129
30947SOL    HW294739   3.796   0.796   6.101
30948SOL     OW94740  10.093   9.968  12.143
30948SOL    HW194741  10.070   9.887  12.190
30948SOL    HW294742  10.016  10.024  12.153
30949SOL     OW94743   5.187   5.518  10.703
30949SOL    HW194744   5.142   5.560  10.630
30949SOL    HW294745   5.274   5.497  10.668
30950SOL     OW94746   7.167   4.939   3.049
30950SOL    HW194747   7.191   5.031   3.057
30950SOL    HW294748   7.206   4.911   2.966
30951SOL     OW94749  11.941  11.896   1.085
30951SOL    HW194750  11.922  11.902   1.179
30951SOL    HW294751  11.882  11.829   1.052
30952SOL     OW94752   7.312   0.697   8.326
30952SOL    HW194753   7.357   0.704   8.241
30952SOL    HW294754   7.337   0.611   8.360
30953SOL     OW94755   6.051   8.341  14.463
30953SOL    HW194756   5.998   8.306  14.535
30953SOL    HW294757   6.132   8.370  14.505
30954SOL     OW94758  13.492   6.496   8.004
30954SOL    HW194759  13.435   6.492   7.927
30954SOL    HW294760  13.506   6.404   8.029
30955SOL     OW94761   2.884   3.025   3.876
30955SOL    HW194762   2.840   2.971   3.941
30955SOL    HW294763   2.848   3.112   3.888
30956SOL     OW94764  14.486   6.787  13.031
30956SOL    HW194765  14.411   6.820  13.080
30956SOL    HW294766  14.449   6.762  12.946
30957SOL     OW94767   7.837   8.145   9.178
30957SOL    HW194768   7.866   8.157   9.088
30957SOL    HW294769   7.752   8.102   9.171
30958SOL     OW94770   2.210   2.156  14.031
30958SOL    HW194771   2.215   2.225  13.964
30958SOL    HW294772   2.287   2.171  14.086
30959SOL     OW94773  10.271   5.549   0.810
30959SOL    HW194774  10.205   5.575   0.746
30959SOL    HW294775  10.333   5.495   0.761
30960SOL     OW94776   6.836   7.644   3.356
30960SOL    HW194777   6.747   7.622   3.383
30960SOL    HW294778   6.893   7.592   3.412
30961SOL     OW94779   4.693  10.525   9.225
30961SOL    HW194780   4.774  10.539   9.275
30961SOL    HW294781   4.670  10.611   9.191
30962SOL     OW94782   7.016  10.631   8.947
30962SOL    HW194783   6.993  10.551   8.993
30962SOL    HW294784   7.112  10.632   8.947
30963SOL     OW94785   8.234   3.574   3.321
30963SOL    HW194786   8.209   3.659   3.284
30963SOL    HW294787   8.232   3.514   3.247
30964SOL     OW94788   3.749  11.391  11.667
30964SOL    HW194789   3.735  11.450  11.741
30964SOL    HW294790   3.662  11.363  11.641
30965SOL     OW94791   6.307  14.835  12.267
30965SOL    HW194792   6.395  14.829  12.231
30965SOL    HW294793   6.254  14.870  12.195
30966SOL     OW94794   7.439   3.945   3.531
30966SOL    HW194795   7.475   4.033   3.544
30966SOL    HW294796   7.515   3.887   3.534
30967SOL     OW94797   7.788   5.556   0.359
30967SOL    HW194798   7.831   5.614   0.296
30967SOL    HW294799   7.809   5.468   0.329
30968SOL     OW94800   0.675  13.097  14.574
30968SOL    HW194801   0.705  13.163  14.637
30968SOL    HW294802   0.596  13.060  14.613
30969SOL     OW94803   7.920   2.337   7.587
30969SOL    HW194804   8.013   2.334   7.607
30969SOL    HW294805   7.895   2.246   7.570
30970SOL     OW94806   4.967  13.938  12.337
30970SOL    HW194807   4.997  14.020  12.376
30970SOL    HW294808   4.877  13.955  12.311
30971SOL     OW94809   9.491   3.574   1.698
30971SOL    HW194810   9.551   3.578   1.624
30971SOL    HW294811   9.453   3.662   1.703
30972SOL     OW94812  11.108   6.663   9.718
30972SOL    HW194813  11.159   6.607   9.659
30972SOL    HW294814  11.170   6.730   9.746
30973SOL     OW94815   8.493  10.117   1.979
30973SOL    HW194816   8.414  10.171   1.976
30973SOL    HW294817   8.481  10.052   1.910
30974SOL     OW94818   4.399   9.108  10.475
30974SOL    HW194819   4.430   9.022  10.445
30974SOL    HW294820   4.473   9.166  10.458
30975SOL     OW94821   9.372   8.791   5.708
30975SOL    HW194822   9.347   8.715   5.656
30975SOL    HW294823   9.356   8.764   5.799
30976SOL     OW94824   8.147  11.311  11.691
30976SOL    HW194825   8.196  11.258  11.628
30976SOL    HW294826   8.143  11.398  11.652
30977SOL     OW94827   1.172   6.537   7.581
30977SOL    HW194828   1.246   6.501   7.532
30977SOL    HW294829   1.210   6.608   7.632
30978SOL     OW94830  12.318   9.117  12.051
30978SOL    HW194831  12.242   9.157  12.094
30978SOL    HW294832  12.317   9.026  12.080
30979SOL     OW94833   1.812   7.204   7.594
30979SOL    HW194834   1.892   7.158   7.569
30979SOL    HW294835   1.837   7.296   7.596
30980SOL     OW94836   6.400   5.685  10.020
30980SOL    HW194837   6.482   5.695  10.070
30980SOL    HW294838   6.350   5.620  10.068
30981SOL     OW94839   7.009   7.537  12.123
30981SOL    HW194840   6.997   7.620  12.168
30981SOL    HW294841   6.986   7.555  12.032
30982SOL     OW94842   5.383   6.964   3.313
30982SOL    HW194843   5.377   6.900   3.241
30982SOL    HW294844   5.293   6.975   3.343
30983SOL     OW94845   1.329  10.943   3.690
30983SOL    HW194846   1.418  10.933   3.723
30983SOL    HW294847   1.336  11.011   3.622
30984SOL     OW94848   5.796  12.279   8.353
30984SOL    HW194849   5.712  12.254   8.314
30984SOL    HW294850   5.841  12.326   8.283
30985SOL     OW94851  12.824  10.211   5.806
30985SOL    HW194852  12.746  10.261   5.829
30985SOL    HW294853  12.897  10.268   5.832
30986SOL     OW94854   9.896  13.879  14.547
30986SOL    HW194855   9.990  13.880  14.568
30986SOL    HW294856   9.853  13.891  14.631
30987SOL     OW94857   2.971   2.047  10.781
30987SOL    HW194858   3.011   2.113  10.725
30987SOL    HW294859   2.888   2.086  10.809
30988SOL     OW94860   5.611  13.835  10.685
30988SOL    HW194861   5.656  13.895  10.627
30988SOL    HW294862   5.665  13.756  10.686
30989SOL     OW94863   4.419   5.158  14.610
30989SOL    HW194864   4.345   5.149  14.550
30989SOL    HW294865   4.423   5.252  14.628
30990SOL     OW94866  14.224   9.728  13.568
30990SOL    HW194867  14.200   9.641  13.599
30990SOL    HW294868  14.211   9.785  13.643
30991SOL     OW94869  13.820  11.211  12.724
30991SOL    HW194870  13.733  11.173  12.720
30991SOL    HW294871  13.819  11.267  12.802
30992SOL     OW94872  10.642   5.834  10.053
30992SOL    HW194873  10.697   5.843  10.130
30992SOL    HW294874  10.665   5.748  10.017
30993SOL     OW94875  11.225   5.911  12.446
30993SOL    HW194876  11.152   5.910  12.508
30993SOL    HW294877  11.187   5.884  12.363
30994SOL     OW94878   4.381   5.642   3.472
30994SOL    HW194879   4.457   5.700   3.472
30994SOL    HW294880   4.369   5.617   3.564
30995SOL     OW94881   3.664  13.759  14.648
30995SOL    HW194882   3.594  13.806  14.693
30995SOL    HW294883   3.742  13.814  14.662
30996SOL     OW94884   3.807   6.933   2.914
30996SOL    HW194885   3.763   7.017   2.926
30996SOL    HW294886   3.894   6.946   2.952
30997SOL     OW94887   6.935   5.497   4.273
30997SOL    HW194888   6.930   5.444   4.352
30997SOL    HW294889   6.883   5.448   4.209
30998SOL     OW94890   5.119   6.457  13.194
30998SOL    HW194891   5.117   6.552  13.208
30998SOL    HW294892   5.175   6.424  13.264
30999SOL     OW94893   6.005   4.923  10.791
30999SOL    HW194894   5.947   4.892  10.861
30999SOL    HW294895   6.080   4.864  10.794
31000SOL     OW94896  11.834  10.619   0.279
31000SOL    HW194897  11.740  10.619   0.261
31000SOL    HW294898  11.848  10.543   0.335
31001SOL     OW94899   1.864  12.192  13.683
31001SOL    HW194900   1.786  12.222  13.729
31001SOL    HW294901   1.930  12.182  13.752
31002SOL     OW94902   5.367   9.114   2.068
31002SOL    HW194903   5.272   9.103   2.065
31002SOL    HW294904   5.384   9.192   2.015
31003SOL     OW94905  12.841   6.284  13.643
31003SOL    HW194906  12.914   6.324  13.689
31003SOL    HW294907  12.866   6.286  13.551
31004SOL     OW94908   0.897   2.006   9.085
31004SOL    HW194909   0.933   2.092   9.065
31004SOL    HW294910   0.963   1.964   9.140
31005SOL     OW94911  10.857   4.083  10.580
31005SOL    HW194912  10.924   4.015  10.571
31005SOL    HW294913  10.797   4.048  10.646
31006SOL     OW94914   8.647   9.188   1.290
31006SOL    HW194915   8.680   9.180   1.380
31006SOL    HW294916   8.552   9.199   1.300
31007SOL     OW94917   1.308   9.474   2.832
31007SOL    HW194918   1.298   9.502   2.741
31007SOL    HW294919   1.400   9.491   2.853
31008SOL     OW94920   5.561   7.734   2.099
31008SOL    HW194921   5.626   7.672   2.064
31008SOL    HW294922   5.535   7.697   2.183
31009SOL     OW94923  11.094  14.728   5.596
31009SOL    HW194924  11.049  14.644   5.590
31009SOL    HW294925  11.080  14.756   5.686
31010SOL     OW94926   7.525   9.871   8.946
31010SOL    HW194927   7.471   9.919   8.883
31010SOL    HW294928   7.465   9.808   8.986
31011SOL     OW94929   6.294   3.339  11.777
31011SOL    HW194930   6.321   3.276  11.843
31011SOL    HW294931   6.291   3.422  11.823
31012SOL     OW94932   8.514   3.661   6.435
31012SOL    HW194933   8.510   3.737   6.493
31012SOL    HW294934   8.426   3.622   6.440
31013SOL     OW94935   5.885   0.859   0.209
31013SOL    HW194936   5.978   0.842   0.192
31013SOL    HW294937   5.844   0.773   0.206
31014SOL     OW94938   6.016   4.604  10.704
31014SOL    HW194939   5.974   4.545  10.766
31014SOL    HW294940   5.947   4.625  10.641
31015SOL     OW94941   6.570   6.061  11.013
31015SOL    HW194942   6.480   6.085  10.992
31015SOL    HW294943   6.571   6.051  11.108
31016SOL     OW94944  13.068   7.052   6.615
31016SOL    HW194945  13.014   7.014   6.545
31016SOL    HW294946  13.156   7.018   6.598
31017SOL     OW94947  11.797   3.915  14.802
31017SOL    HW194948  11.720   3.875  14.842
31017SOL    HW294949  11.835   3.845  14.748
31018SOL     OW94950   7.324   1.064   1.732
31018SOL    HW194951   7.310   0.984   1.681
31018SOL    HW294952   7.367   1.123   1.671
31019SOL     OW94953   1.324   4.005   8.385
31019SOL    HW194954   1.364   4.054   8.456
31019SOL    HW294955   1.377   3.926   8.378
31020SOL     OW94956  12.253   8.840   8.164
31020SOL    HW194957  12.340   8.850   8.124
31020SOL    HW294958  12.205   8.919   8.138
31021SOL     OW94959   0.176   0.375   9.264
31021SOL    HW194960   0.186   0.296   9.212
31021SOL    HW294961   0.159   0.444   9.200
31022SOL     OW94962  11.354   3.261   4.067
31022SOL    HW194963  11.283   3.313   4.105
31022SOL    HW294964  11.428   3.274   4.125
31023SOL     OW94965   4.427   0.181  13.687
31023SOL    HW194966   4.349   0.191  13.632
31023SOL    HW294967   4.414   0.244  13.758
31024SOL     OW94968   5.358   9.952   8.946
31024SOL    HW194969   5.397  10.013   8.883
31024SOL    HW294970   5.264   9.955   8.927
31025SOL     OW94971  14.285   4.563  14.281
31025SOL    HW194972  14.290   4.547  14.376
31025SOL    HW294973  14.207   4.514  14.253
31026SOL     OW94974  11.506  11.019   9.203
31026SOL    HW194975  11.586  10.969   9.218
31026SOL    HW294976  11.438  10.952   9.194
31027SOL     OW94977  12.191   0.554  14.814
31027SOL    HW194978  12.268   0.498  14.805
31027SOL    HW294979  12.190   0.606  14.733
31028SOL     OW94980  14.464   0.559   9.921
31028SOL    HW194981  14.412   0.589   9.995
31028SOL    HW294982  14.528   0.629   9.907
31029SOL     OW94983   1.369   5.705   4.740
31029SOL    HW194984   1.352   5.612   4.727
31029SOL    HW294985   1.464   5.712   4.738
31030SOL     OW94986   7.562  10.766  12.835
31030SOL    HW194987   7.656  10.761  12.848
31030SOL    HW294988   7.535  10.843  12.886
31031SOL     OW94989  10.022   9.383   3.221
31031SOL    HW194990  10.041   9.300   3.177
31031SOL    HW294991  10.090   9.392   3.288
31032SOL     OW94992   2.091   3.733  10.425
31032SOL    HW194993   2.181   3.759  10.439
31032SOL    HW294994   2.041   3.777  10.493
31033SOL     OW94995   9.636   2.864   6.110
31033SOL    HW194996   9.569   2.911   6.158
31033SOL    HW294997   9.719   2.898   6.144
31034SOL     OW94998   0.819   1.303   7.133
31034SOL    HW194999   0.863   1.228   7.094
31034SOL    HW295000   0.731   1.271   7.154
31035SOL     OW95001   4.633   4.346   8.637
31035SOL    HW195002   4.663   4.351   8.728
31035SOL    HW295003   4.640   4.437   8.606
31036SOL     OW95004   0.903  10.444   3.428
31036SOL    HW195005   0.835  10.494   3.383
31036SOL    HW295006   0.951  10.400   3.358
31037SOL     OW95007   7.936   9.097   6.262
31037SOL    HW195008   7.983   9.088   6.180
31037SOL    HW295009   7.848   9.124   6.237
31038SOL     OW95010  10.554   5.147  11.366
31038SOL    HW195011  10.619   5.136  11.297
31038SOL    HW295012  10.507   5.227  11.342
31039SOL     OW95013   0.807   3.578   9.707
31039SOL    HW195014   0.737   3.561   9.644
31039SOL    HW295015   0.792   3.514   9.777
31040SOL     OW95016  14.494  13.978  14.565
31040SOL    HW195017  14.433  13.932  14.623
31040SOL    HW295018  14.572  13.992  14.619
31041SOL     OW95019   1.239   4.537  12.273
31041SOL    HW195020   1.306   4.594  12.310
31041SOL    HW295021   1.247   4.549  12.178
31042SOL     OW95022   9.765   8.079   8.610
31042SOL    HW195023   9.827   8.020   8.653
31042SOL    HW295024   9.778   8.063   8.517
31043SOL     OW95025   5.676  13.085  10.853
31043SOL    HW195026   5.597  13.087  10.907
31043SOL    HW295027   5.746  13.111  10.913
31044SOL     OW95028   8.007   4.467   9.278
31044SOL    HW195029   7.964   4.415   9.346
31044SOL    HW295030   7.938   4.525   9.244
31045SOL     OW95031   1.809   3.821   5.378
31045SOL    HW195032   1.742   3.888   5.363
31045SOL    HW295033   1.828   3.786   5.291
31046SOL     OW95034   6.600  10.983   1.063
31046SOL    HW195035   6.567  11.071   1.086
31046SOL    HW295036   6.695  10.992   1.065
31047SOL     OW95037  11.392   0.166  13.188
31047SOL    HW195038  11.387   0.240  13.127
31047SOL    HW295039  11.381   0.088  13.133
31048SOL     OW95040   0.825   8.573  13.686
31048SOL    HW195041   0.838   8.480  13.665
31048SOL    HW295042   0.735   8.591  13.659
31049SOL     OW95043   6.703   5.758  13.714
31049SOL    HW195044   6.722   5.797  13.629
31049SOL    HW295045   6.613   5.785  13.733
31050SOL     OW95046   7.468  12.638   3.869
31050SOL    HW195047   7.509  12.573   3.811
31050SOL    HW295048   7.391  12.669   3.820
31051SOL     OW95049  14.419   1.345  13.995
31051SOL    HW195050  14.428   1.396  14.075
31051SOL    HW295051  14.491   1.282  13.999
31052SOL     OW95052  14.276   8.879   5.015
31052SOL    HW195053  14.234   8.921   4.940
31052SOL    HW295054  14.203   8.856   5.073
31053SOL     OW95055  10.555   5.931   0.655
31053SOL    HW195056  10.611   5.940   0.577
31053SOL    HW295057  10.563   6.015   0.700
31054SOL     OW95058  11.537  11.074   8.144
31054SOL    HW195059  11.488  10.997   8.116
31054SOL    HW295060  11.516  11.141   8.079
31055SOL     OW95061  12.257   1.107   4.880
31055SOL    HW195062  12.235   1.113   4.973
31055SOL    HW295063  12.345   1.069   4.879
31056SOL     OW95064   3.828   6.543  12.660
31056SOL    HW195065   3.754   6.602  12.668
31056SOL    HW295066   3.789   6.455  12.662
31057SOL     OW95067   0.641  11.285   2.997
31057SOL    HW195068   0.550  11.280   3.026
31057SOL    HW295069   0.637  11.282   2.902
31058SOL     OW95070  14.282   8.943   5.669
31058SOL    HW195071  14.370   8.907   5.678
31058SOL    HW295072  14.268   8.992   5.749
31059SOL     OW95073   3.890   6.910  12.733
31059SOL    HW195074   3.809   6.910  12.785
31059SOL    HW295075   3.950   6.855  12.783
31060SOL     OW95076   4.440   3.228  12.105
31060SOL    HW195077   4.456   3.143  12.064
31060SOL    HW295078   4.525   3.271  12.105
31061SOL     OW95079  13.698  11.460   5.566
31061SOL    HW195080  13.735  11.401   5.501
31061SOL    HW295081  13.651  11.402   5.626
31062SOL     OW95082  12.547   7.540   7.080
31062SOL    HW195083  12.544   7.507   6.990
31062SOL    HW295084  12.466   7.507   7.120
31063SOL     OW95085  11.412   5.061   4.339
31063SOL    HW195086  11.376   5.044   4.427
31063SOL    HW295087  11.404   4.977   4.294
31064SOL     OW95088   1.722  14.802   7.777
31064SOL    HW195089   1.719  14.760   7.863
31064SOL    HW295090   1.631  14.804   7.748
31065SOL     OW95091  11.659   6.793   2.835
31065SOL    HW195092  11.676   6.784   2.929
31065SOL    HW295093  11.566   6.818   2.831
31066SOL     OW95094   6.331   8.692   4.915
31066SOL    HW195095   6.277   8.621   4.948
31066SOL    HW295096   6.409   8.649   4.878
31067SOL     OW95097   8.744   0.840   8.119
31067SOL    HW195098   8.674   0.816   8.058
31067SOL    HW295099   8.741   0.772   8.187
31068SOL     OW95100   4.084   0.254   2.961
31068SOL    HW195101   4.037   0.201   2.896
31068SOL    HW295102   4.175   0.224   2.954
31069SOL     OW95103  13.560  10.202   7.035
31069SOL    HW195104  13.484  10.143   7.033
31069SOL    HW295105  13.562  10.240   6.947
31070SOL     OW95106   6.248   4.126   9.031
31070SOL    HW195107   6.212   4.154   9.115
31070SOL    HW295108   6.299   4.048   9.052
31071SOL     OW95109   4.718   7.696  14.663
31071SOL    HW195110   4.773   7.625  14.629
31071SOL    HW295111   4.633   7.655  14.679
31072SOL     OW95112   3.352  13.514   3.420
31072SOL    HW195113   3.330  13.519   3.513
31072SOL    HW295114   3.418  13.583   3.408
31073SOL     OW95115  13.854   6.635   3.020
31073SOL    HW195116  13.940   6.603   3.048
31073SOL    HW295117  13.834   6.707   3.080
31074SOL     OW95118  14.612  12.087  14.638
31074SOL    HW195119  14.594  12.021  14.571
31074SOL    HW295120  14.533  12.089  14.691
31075SOL     OW95121   0.116   4.200  11.382
31075SOL    HW195122   0.179   4.201  11.455
31075SOL    HW295123   0.057   4.128  11.402
31076SOL     OW95124   4.293  14.090   9.494
31076SOL    HW195125   4.243  14.168   9.517
31076SOL    HW295126   4.365  14.087   9.558
31077SOL     OW95127   3.604  11.814   6.311
31077SOL    HW195128   3.636  11.731   6.346
31077SOL    HW295129   3.676  11.847   6.258
31078SOL     OW95130  13.054  11.117   4.955
31078SOL    HW195131  13.141  11.146   4.927
31078SOL    HW295132  13.050  11.140   5.048
31079SOL     OW95133   2.502   1.738   5.108
31079SOL    HW195134   2.554   1.692   5.043
31079SOL    HW295135   2.418   1.692   5.110
31080SOL     OW95136  11.750  10.339   1.711
31080SOL    HW195137  11.735  10.283   1.634
31080SOL    HW295138  11.704  10.294   1.782
31081SOL     OW95139   9.610  14.322  11.879
31081SOL    HW195140   9.579  14.297  11.966
31081SOL    HW295141   9.567  14.406  11.862
31082SOL     OW95142   7.364   8.990   2.038
31082SOL    HW195143   7.447   8.981   2.087
31082SOL    HW295144   7.353   8.906   1.994
31083SOL     OW95145  10.060  13.045  12.303
31083SOL    HW195146   9.998  13.083  12.364
31083SOL    HW295147  10.144  13.047  12.349
31084SOL     OW95148   7.909   0.604  11.975
31084SOL    HW195149   7.996   0.566  11.983
31084SOL    HW295150   7.888   0.597  11.882
31085SOL     OW95151  13.140   4.634  13.388
31085SOL    HW195152  13.143   4.539  13.375
31085SOL    HW295153  13.051   4.658  13.364
31086SOL     OW95154   3.674   4.200   8.928
31086SOL    HW195155   3.664   4.158   9.014
31086SOL    HW295156   3.761   4.176   8.899
31087SOL     OW95157   8.282  13.666   9.480
31087SOL    HW195158   8.210  13.605   9.464
31087SOL    HW295159   8.361  13.616   9.455
31088SOL     OW95160  11.299   6.504   2.647
31088SOL    HW195161  11.241   6.504   2.571
31088SOL    HW295162  11.316   6.597   2.664
31089SOL     OW95163   9.581   9.931   2.561
31089SOL    HW195164   9.587   9.962   2.652
31089SOL    HW295165   9.646   9.984   2.514
31090SOL     OW95166   2.173  10.179   2.139
31090SOL    HW195167   2.079  10.180   2.155
31090SOL    HW295168   2.191  10.261   2.093
31091SOL     OW95169   6.893   5.334   2.005
31091SOL    HW195170   6.856   5.259   2.051
31091SOL    HW295171   6.907   5.400   2.072
31092SOL     OW95172   4.229   8.207  10.301
31092SOL    HW195173   4.318   8.171  10.296
31092SOL    HW295174   4.222   8.264  10.225
31093SOL     OW95175  14.185  11.571   6.599
31093SOL    HW195176  14.207  11.521   6.678
31093SOL    HW295177  14.268  11.612   6.573
31094SOL     OW95178   9.045   3.761   9.320
31094SOL    HW195179   8.993   3.822   9.267
31094SOL    HW295180   8.980   3.703   9.359
31095SOL     OW95181   1.676  10.900  14.522
31095SOL    HW195182   1.725  10.953  14.459
31095SOL    HW295183   1.622  10.964  14.570
31096SOL     OW95184   9.580   1.846   5.948
31096SOL    HW195185   9.647   1.793   5.989
31096SOL    HW295186   9.503   1.835   6.004
31097SOL     OW95187   5.455   9.104   4.187
31097SOL    HW195188   5.365   9.101   4.220
31097SOL    HW295189   5.510   9.092   4.264
31098SOL     OW95190  11.813   5.632  12.685
31098SOL    HW195191  11.872   5.687  12.632
31098SOL    HW295192  11.830   5.659  12.775
31099SOL     OW95193   4.401  10.119  11.900
31099SOL    HW195194   4.335  10.053  11.877
31099SOL    HW295195   4.471  10.105  11.837
31100SOL     OW95196   0.728   4.322   5.173
31100SOL    HW195197   0.651   4.299   5.120
31100SOL    HW295198   0.797   4.264   5.142
31101SOL     OW95199  10.838   3.505  11.352
31101SOL    HW195200  10.887   3.537  11.428
31101SOL    HW295201  10.863   3.564  11.282
31102SOL     OW95202   6.358   4.106   5.100
31102SOL    HW195203   6.291   4.146   5.156
31102SOL    HW295204   6.424   4.174   5.090
31103SOL     OW95205   5.145  14.130   8.584
31103SOL    HW195206   5.062  14.101   8.624
31103SOL    HW295207   5.135  14.225   8.576
31104SOL     OW95208   2.232   2.447  14.564
31104SOL    HW195209   2.286   2.468  14.641
31104SOL    HW295210   2.194   2.362  14.584
31105SOL     OW95211  11.887   9.163   9.602
31105SOL    HW195212  11.913   9.120   9.683
31105SOL    HW295213  11.919   9.105   9.532
31106SOL     OW95214  11.207   7.767  13.308
31106SOL    HW195215  11.233   7.720  13.387
31106SOL    HW295216  11.152   7.705  13.260
31107SOL     OW95217  11.754   6.164   3.931
31107SOL    HW195218  11.794   6.220   3.997
31107SOL    HW295219  11.794   6.191   3.849
31108SOL     OW95220   6.691   0.288  10.366
31108SOL    HW195221   6.705   0.205  10.411
31108SOL    HW295222   6.777   0.314  10.334
31109SOL     OW95223   9.192   5.724  14.057
31109SOL    HW195224   9.144   5.771  13.989
31109SOL    HW295225   9.284   5.749  14.043
31110SOL     OW95226  11.453   0.186  12.062
31110SOL    HW195227  11.504   0.264  12.040
31110SOL    HW295228  11.486   0.119  12.003
31111SOL     OW95229  10.456   2.819   2.307
31111SOL    HW195230  10.379   2.795   2.357
31111SOL    HW295231  10.449   2.769   2.226
31112SOL     OW95232  12.410   0.376  13.947
31112SOL    HW195233  12.401   0.434  13.872
31112SOL    HW295234  12.487   0.409  13.994
31113SOL     OW95235   5.001   9.128   0.035
31113SOL    HW195236   4.975   9.067   0.104
31113SOL    HW295237   5.018   9.073  14.830
31114SOL     OW95238   7.026   7.175   7.795
31114SOL    HW195239   7.049   7.259   7.755
31114SOL    HW295240   6.950   7.145   7.745
31115SOL     OW95241   2.891  12.747   4.884
31115SOL    HW195242   2.943  12.801   4.825
31115SOL    HW295243   2.893  12.659   4.846
31116SOL     OW95244   8.787  10.713   1.714
31116SOL    HW195245   8.810  10.805   1.703
31116SOL    HW295246   8.692  10.712   1.715
31117SOL     OW95247   6.443  12.424   3.969
31117SOL    HW195248   6.393  12.465   3.898
31117SOL    HW295249   6.404  12.459   4.049
31118SOL     OW95250  10.050   1.620   5.716
31118SOL    HW195251  10.073   1.575   5.797
31118SOL    HW295252   9.959   1.646   5.728
31119SOL     OW95253  12.435   7.180   2.131
31119SOL    HW195254  12.529   7.172   2.149
31119SOL    HW295255  12.422   7.274   2.117
31120SOL     OW95256   0.253   0.908   3.321
31120SOL    HW195257   0.167   0.943   3.300
31120SOL    HW295258   0.315   0.977   3.296
31121SOL     OW95259  13.559   5.047   3.392
31121SOL    HW195260  13.471   5.015   3.375
31121SOL    HW295261  13.563   5.132   3.347
31122SOL     OW95262   3.909   6.196  14.396
31122SOL    HW195263   3.994   6.151  14.392
31122SOL    HW295264   3.921   6.262  14.465
31123SOL     OW95265   1.515   3.519   4.635
31123SOL    HW195266   1.516   3.614   4.647
31123SOL    HW295267   1.483   3.484   4.718
31124SOL     OW95268   2.077  12.640   6.002
31124SOL    HW195269   2.064  12.724   5.957
31124SOL    HW295270   2.073  12.663   6.095
31125SOL     OW95271   4.465   9.359   1.377
31125SOL    HW195272   4.523   9.433   1.359
31125SOL    HW295273   4.378   9.390   1.355
31126SOL     OW95274  11.293  14.131   0.315
31126SOL    HW195275  11.263  14.092   0.397
31126SOL    HW295276  11.348  14.204   0.342
31127SOL     OW95277  10.863  10.270  11.884
31127SOL    HW195278  10.923  10.343  11.896
31127SOL    HW295279  10.778  10.305  11.912
31128SOL     OW95280  13.747   4.061   7.401
31128SOL    HW195281  13.702   4.069   7.317
31128SOL    HW295282  13.805   4.137   7.405
31129SOL     OW95283   4.865  13.952   1.697
31129SOL    HW195284   4.786  13.910   1.733
31129SOL    HW295285   4.831  14.016   1.634
31130SOL     OW95286   1.530   7.928  10.615
31130SOL    HW195287   1.574   7.845  10.600
31130SOL    HW295288   1.483   7.946  10.533
31131SOL     OW95289   4.727   2.669  12.743
31131SOL    HW195290   4.778   2.692  12.820
31131SOL    HW295291   4.663   2.739  12.734
31132SOL     OW95292   1.626   2.981   8.907
31132SOL    HW195293   1.660   3.070   8.915
31132SOL    HW295294   1.540   2.984   8.947
31133SOL     OW95295   2.243   7.971  11.297
31133SOL    HW195296   2.269   8.036  11.231
31133SOL    HW295297   2.195   7.905  11.248
31134SOL     OW95298   3.503   7.043  13.915
31134SOL    HW195299   3.450   7.112  13.876
31134SOL    HW295300   3.466   6.962  13.880
31135SOL     OW95301  10.799   7.463   2.977
31135SOL    HW195302  10.784   7.549   2.936
31135SOL    HW295303  10.737   7.405   2.933
31136SOL     OW95304   5.192   7.145   4.157
31136SOL    HW195305   5.167   7.233   4.187
31136SOL    HW295306   5.112   7.109   4.118
31137SOL     OW95307   8.852   4.402  13.228
31137SOL    HW195308   8.811   4.412  13.314
31137SOL    HW295309   8.779   4.393  13.168
31138SOL     OW95310   3.060   4.009   5.069
31138SOL    HW195311   3.117   4.068   5.118
31138SOL    HW295312   2.971   4.038   5.090
31139SOL     OW95313   6.514   0.638   2.128
31139SOL    HW195314   6.521   0.686   2.211
31139SOL    HW295315   6.428   0.664   2.093
31140SOL     OW95316   8.886   6.544   9.390
31140SOL    HW195317   8.879   6.455   9.355
31140SOL    HW295318   8.933   6.592   9.323
31141SOL     OW95319   3.864   9.188  11.706
31141SOL    HW195320   3.825   9.140  11.632
31141SOL    HW295321   3.791   9.200  11.767
31142SOL     OW95322  13.217   2.474   9.296
31142SOL    HW195323  13.156   2.402   9.304
31142SOL    HW295324  13.266   2.455   9.215
31143SOL     OW95325  10.531   0.872   0.349
31143SOL    HW195326  10.537   0.801   0.286
31143SOL    HW295327  10.546   0.951   0.298
31144SOL     OW95328   6.608  10.584   4.692
31144SOL    HW195329   6.579  10.497   4.664
31144SOL    HW295330   6.601  10.582   4.787
31145SOL     OW95331   7.586  10.197  13.406
31145SOL    HW195332   7.616  10.200  13.497
31145SOL    HW295333   7.663  10.218  13.355
31146SOL     OW95334  13.979  10.288  13.481
31146SOL    HW195335  13.988  10.382  13.491
31146SOL    HW295336  14.023  10.251  13.557
31147SOL     OW95337  12.829   9.419  13.036
31147SOL    HW195338  12.736   9.440  13.046
31147SOL    HW295339  12.872   9.465  13.109
31148SOL     OW95340   7.258   6.959   2.756
31148SOL    HW195341   7.190   6.904   2.719
31148SOL    HW295342   7.211   7.024   2.808
31149SOL     OW95343   9.910   1.322   0.913
31149SOL    HW195344   9.982   1.352   0.969
31149SOL    HW295345   9.840   1.386   0.926
31150SOL     OW95346   4.747   5.508   6.073
31150SOL    HW195347   4.795   5.461   6.141
31150SOL    HW295348   4.719   5.589   6.115
31151SOL     OW95349   8.424  13.802   3.909
31151SOL    HW195350   8.360  13.862   3.872
31151SOL    HW295351   8.507  13.828   3.869
31152SOL     OW95352   3.954  14.630   5.978
31152SOL    HW195353   4.030  14.606   5.924
31152SOL    HW295354   3.887  14.566   5.954
31153SOL     OW95355   6.178  12.837   9.347
31153SOL    HW195356   6.231  12.869   9.275
31153SOL    HW295357   6.094  12.881   9.336
31154SOL     OW95358   5.792  14.341  14.000
31154SOL    HW195359   5.778  14.308  13.912
31154SOL    HW295360   5.769  14.434  13.995
31155SOL     OW95361   2.611   5.186   5.618
31155SOL    HW195362   2.554   5.135   5.675
31155SOL    HW295363   2.699   5.164   5.645
31156SOL     OW95364   7.538   7.558  14.005
31156SOL    HW195365   7.606   7.496  14.032
31156SOL    HW295366   7.517   7.532  13.915
31157SOL     OW95367  11.781   1.271   1.346
31157SOL    HW195368  11.790   1.178   1.325
31157SOL    HW295369  11.868   1.298   1.373
31158SOL     OW95370  11.425  10.242  13.829
31158SOL    HW195371  11.418  10.278  13.918
31158SOL    HW295372  11.518  10.248  13.808
31159SOL     OW95373  14.352   0.761   7.558
31159SOL    HW195374  14.335   0.850   7.591
31159SOL    HW295375  14.399   0.718   7.629
31160SOL     OW95376   8.138   6.993  13.498
31160SOL    HW195377   8.120   7.052  13.424
31160SOL    HW295378   8.087   7.029  13.570
31161SOL     OW95379  13.933   7.587   7.246
31161SOL    HW195380  13.857   7.576   7.303
31161SOL    HW295381  13.897   7.587   7.158
31162SOL     OW95382   4.699   2.125   3.447
31162SOL    HW195383   4.688   2.126   3.352
31162SOL    HW295384   4.662   2.042   3.475
31163SOL     OW95385  14.051   3.117   9.764
31163SOL    HW195386  13.957   3.108   9.746
31163SOL    HW295387  14.094   3.095   9.682
31164SOL     OW95388  10.779   8.080   8.498
31164SOL    HW195389  10.774   7.989   8.469
31164SOL    HW295390  10.770   8.075   8.593
31165SOL     OW95391   9.180   8.827   6.969
31165SOL    HW195392   9.225   8.744   6.952
31165SOL    HW295393   9.087   8.803   6.976
31166SOL     OW95394   3.218   4.640   0.941
31166SOL    HW195395   3.297   4.662   0.991
31166SOL    HW295396   3.249   4.630   0.851
31167SOL     OW95397   6.350   1.782   6.678
31167SOL    HW195398   6.260   1.807   6.698
31167SOL    HW295399   6.362   1.805   6.586
31168SOL     OW95400   8.694   3.284   6.263
31168SOL    HW195401   8.608   3.326   6.254
31168SOL    HW295402   8.675   3.191   6.252
31169SOL     OW95403   3.378   7.496   4.196
31169SOL    HW195404   3.324   7.429   4.154
31169SOL    HW295405   3.468   7.464   4.187
31170SOL     OW95406  10.163   1.108  13.621
31170SOL    HW195407  10.225   1.098  13.549
31170SOL    HW295408  10.217   1.120  13.699
31171SOL     OW95409   3.513  14.113  11.774
31171SOL    HW195410   3.521  14.028  11.817
31171SOL    HW295411   3.532  14.177  11.842
31172SOL     OW95412   5.399   8.484   2.869
31172SOL    HW195413   5.480   8.492   2.818
31172SOL    HW295414   5.334   8.452   2.807
31173SOL     OW95415   5.703   8.211   7.009
31173SOL    HW195416   5.705   8.298   6.968
31173SOL    HW295417   5.787   8.172   6.984
31174SOL     OW95418  10.881   6.671   8.563
31174SOL    HW195419  10.786   6.676   8.574
31174SOL    HW295420  10.916   6.734   8.625
31175SOL     OW95421  14.015   3.020   2.112
31175SOL    HW195422  14.110   3.026   2.128
31175SOL    HW295423  13.997   3.089   2.049
31176SOL     OW95424   3.502   3.478  14.763
31176SOL    HW195425   3.490   3.551  14.823
31176SOL    HW295426   3.594   3.482  14.738
31177SOL     OW95427   0.175   3.940   9.908
31177SOL    HW195428   0.170   3.856   9.863
31177SOL    HW295429   0.216   3.999   9.845
31178SOL     OW95430  13.624   8.393   4.639
31178SOL    HW195431  13.698   8.355   4.686
31178SOL    HW295432  13.553   8.330   4.651
31179SOL     OW95433   3.594   2.039  13.942
31179SOL    HW195434   3.609   2.087  14.024
31179SOL    HW295435   3.679   1.998  13.923
31180SOL     OW95436  13.520  12.508   6.598
31180SOL    HW195437  13.559  12.588   6.633
31180SOL    HW295438  13.426  12.524   6.603
31181SOL     OW95439  11.963   5.264   7.337
31181SOL    HW195440  11.987   5.272   7.430
31181SOL    HW295441  11.877   5.223   7.337
31182SOL     OW95442   3.592   1.948   5.429
31182SOL    HW195443   3.561   1.931   5.340
31182SOL    HW295444   3.589   2.044   5.437
31183SOL     OW95445   1.936   7.332  14.569
31183SOL    HW195446   1.950   7.421  14.603
31183SOL    HW295447   1.842   7.319  14.574
31184SOL     OW95448   0.150  11.632   0.335
31184SOL    HW195449   0.078  11.674   0.383
31184SOL    HW295450   0.149  11.674   0.249
31185SOL     OW95451   7.095   5.046   3.701
31185SOL    HW195452   7.113   5.138   3.682
31185SOL    HW295453   7.035   5.047   3.776
31186SOL     OW95454   5.264   2.901   1.931
31186SOL    HW195455   5.274   2.879   1.838
31186SOL    HW295456   5.172   2.879   1.950
31187SOL     OW95457  12.101   4.179  11.337
31187SOL    HW195458  12.154   4.120  11.284
31187SOL    HW295459  12.023   4.196  11.284
31188SOL     OW95460   5.241   4.404  13.517
31188SOL    HW195461   5.317   4.360  13.555
31188SOL    HW295462   5.202   4.338  13.459
31189SOL     OW95463   2.672   4.134   3.305
31189SOL    HW195464   2.651   4.227   3.309
31189SOL    HW295465   2.743   4.122   3.369
31190SOL     OW95466   4.915   4.227   5.679
31190SOL    HW195467   4.982   4.293   5.695
31190SOL    HW295468   4.884   4.201   5.766
31191SOL     OW95469   0.495  10.321  14.409
31191SOL    HW195470   0.548  10.384  14.361
31191SOL    HW295471   0.416  10.309  14.355
31192SOL     OW95472  10.888   9.845   3.469
31192SOL    HW195473  10.856   9.775   3.412
31192SOL    HW295474  10.888   9.923   3.414
31193SOL     OW95475  12.665   8.472   0.167
31193SOL    HW195476  12.649   8.450   0.259
31193SOL    HW295477  12.578   8.484   0.129
31194SOL     OW95478   8.169  14.293   2.814
31194SOL    HW195479   8.226  14.321   2.885
31194SOL    HW295480   8.080  14.311   2.846
31195SOL     OW95481   7.595   4.447  13.200
31195SOL    HW195482   7.687   4.428  13.183
31195SOL    HW295483   7.597   4.511  13.271
31196SOL     OW95484   8.565   8.156   9.241
31196SOL    HW195485   8.604   8.100   9.174
31196SOL    HW295486   8.554   8.099   9.317
31197SOL     OW95487   3.817   0.286  13.439
31197SOL    HW195488   3.784   0.374  13.424
31197SOL    HW295489   3.801   0.241  13.356
31198SOL     OW95490   6.415  10.366   1.767
31198SOL    HW195491   6.350  10.375   1.836
31198SOL    HW295492   6.448  10.277   1.776
31199SOL     OW95493   7.822  13.799   8.690
31199SOL    HW195494   7.861  13.712   8.704
31199SOL    HW295495   7.886  13.846   8.637
31200SOL     OW95496   2.589   1.812  11.558
31200SOL    HW195497   2.682   1.803  11.577
31200SOL    HW295498   2.581   1.893  11.509
31201SOL     OW95499   1.237  14.143   1.430
31201SOL    HW195500   1.302  14.160   1.498
31201SOL    HW295501   1.155  14.130   1.477
31202SOL     OW95502   8.618   5.543   0.582
31202SOL    HW195503   8.580   5.485   0.516
31202SOL    HW295504   8.608   5.631   0.545
31203SOL     OW95505   1.567   2.712   8.456
31203SOL    HW195506   1.557   2.760   8.537
31203SOL    HW295507   1.492   2.738   8.403
31204SOL     OW95508   7.705   7.502   4.709
31204SOL    HW195509   7.753   7.563   4.764
31204SOL    HW295510   7.613   7.520   4.726
31205SOL     OW95511   6.504   2.814   6.504
31205SOL    HW195512   6.544   2.728   6.519
31205SOL    HW295513   6.565   2.859   6.445
31206SOL     OW95514   0.133   9.570   8.606
31206SOL    HW195515   0.118   9.510   8.679
31206SOL    HW295516   0.173   9.516   8.539
31207SOL     OW95517   2.546  12.806   1.419
31207SOL    HW195518   2.615  12.829   1.357
31207SOL    HW295519   2.526  12.888   1.464
31208SOL     OW95520   3.943   9.608  14.182
31208SOL    HW195521   3.947   9.547  14.256
31208SOL    HW295522   3.868   9.578  14.131
31209SOL     OW95523  10.767   2.446  11.120
31209SOL    HW195524  10.849   2.464  11.165
31209SOL    HW295525  10.742   2.358  11.149
31210SOL     OW95526  13.180   8.525   5.678
31210SOL    HW195527  13.208   8.536   5.769
31210SOL    HW295528  13.138   8.608   5.656
31211SOL     OW95529   6.269  10.566  12.272
31211SOL    HW195530   6.230  10.602  12.192
31211SOL    HW295531   6.358  10.602  12.273
31212SOL     OW95532   3.245   5.551  11.901
31212SOL    HW195533   3.242   5.612  11.975
31212SOL    HW295534   3.192   5.592  11.833
31213SOL     OW95535   9.362   9.665  13.975
31213SOL    HW195536   9.375   9.686  14.067
31213SOL    HW295537   9.428   9.718  13.929
31214SOL     OW95538  10.468   0.101   2.005
31214SOL    HW195539  10.464   0.173   1.941
31214SOL    HW295540  10.556   0.064   1.994
31215SOL     OW95541  10.683   1.206  14.096
31215SOL    HW195542  10.605   1.163  14.129
31215SOL    HW295543  10.755   1.146  14.117
31216SOL     OW95544   1.542  13.467  14.554
31216SOL    HW195545   1.596  13.396  14.519
31216SOL    HW295546   1.592  13.546  14.534
31217SOL     OW95547   1.518  12.024  11.049
31217SOL    HW195548   1.573  12.046  10.974
31217SOL    HW295549   1.432  12.005  11.011
31218SOL     OW95550   7.076   3.860  11.420
31218SOL    HW195551   7.137   3.903  11.479
31218SOL    HW295552   7.031   3.796  11.475
31219SOL     OW95553   3.938   0.194   6.833
31219SOL    HW195554   3.860   0.227   6.788
31219SOL    HW295555   3.910   0.181   6.924
31220SOL     OW95556   9.439   2.694   4.134
31220SOL    HW195557   9.352   2.661   4.109
31220SOL    HW295558   9.499   2.625   4.107
31221SOL     OW95559   2.944   0.128   8.890
31221SOL    HW195560   2.946   0.130   8.986
31221SOL    HW295561   2.851   0.132   8.868
31222SOL     OW95562  13.618  11.128  10.943
31222SOL    HW195563  13.623  11.062  11.012
31222SOL    HW295564  13.610  11.211  10.991
31223SOL     OW95565   1.098  13.235   4.288
31223SOL    HW195566   1.145  13.158   4.321
31223SOL    HW295567   1.008  13.206   4.278
31224SOL     OW95568   5.190  11.357   1.078
31224SOL    HW195569   5.094  11.352   1.087
31224SOL    HW295570   5.212  11.447   1.100
31225SOL     OW95571  10.372   4.009  12.009
31225SOL    HW195572  10.380   3.915  11.993
31225SOL    HW295573  10.436   4.027  12.078
31226SOL     OW95574   4.529   6.512   3.347
31226SOL    HW195575   4.496   6.525   3.436
31226SOL    HW295576   4.575   6.428   3.351
31227SOL     OW95577  10.001   3.587   3.065
31227SOL    HW195578   9.977   3.548   3.149
31227SOL    HW295579   9.933   3.653   3.048
31228SOL     OW95580   1.248   5.162   9.786
31228SOL    HW195581   1.175   5.170   9.848
31228SOL    HW295582   1.254   5.249   9.745
31229SOL     OW95583   9.143   8.811   9.606
31229SOL    HW195584   9.135   8.880   9.540
31229SOL    HW295585   9.229   8.771   9.588
31230SOL     OW95586  14.324   6.213   7.573
31230SOL    HW195587  14.361   6.301   7.570
31230SOL    HW295588  14.400   6.156   7.588
31231SOL     OW95589   1.857   6.881  13.587
31231SOL    HW195590   1.802   6.807  13.561
31231SOL    HW295591   1.808   6.924  13.657
31232SOL     OW95592   5.793   1.935  14.723
31232SOL    HW195593   5.713   1.885  14.739
31232SOL    HW295594   5.860   1.868  14.705
31233SOL     OW95595   5.771  14.004   5.260
31233SOL    HW195596   5.689  14.051   5.273
31233SOL    HW295597   5.805  13.990   5.349
31234SOL     OW95598  14.582  12.494   2.791
31234SOL    HW195599  14.503  12.461   2.835
31234SOL    HW295600  14.654  12.453   2.839
31235SOL     OW95601   1.686   8.658   3.867
31235SOL    HW195602   1.717   8.620   3.949
31235SOL    HW295603   1.659   8.747   3.890
31236SOL     OW95604   8.154   3.328  14.013
31236SOL    HW195605   8.083   3.353  13.954
31236SOL    HW295606   8.110   3.290  14.089
31237SOL     OW95607  14.669  10.901   3.941
31237SOL    HW195608  14.764  10.900   3.932
31237SOL    HW295609  14.654  10.894   4.035
31238SOL     OW95610  12.465  13.284  11.609
31238SOL    HW195611  12.462  13.329  11.525
31238SOL    HW295612  12.373  13.275  11.635
31239SOL     OW95613  10.393   1.901   0.378
31239SOL    HW195614  10.429   1.964   0.440
31239SOL    HW295615  10.374   1.953   0.300
31240SOL     OW95616   0.010   9.277   9.298
31240SOL    HW195617   0.093   9.261   9.343
31240SOL    HW295618  14.815   9.244   9.359
31241SOL     OW95619   2.381  12.701  11.891
31241SOL    HW195620   2.414  12.617  11.919
31241SOL    HW295621   2.414  12.712  11.801
31242SOL     OW95622   1.644   0.517   1.331
31242SOL    HW195623   1.583   0.450   1.301
31242SOL    HW295624   1.594   0.599   1.328
31243SOL     OW95625  13.249   0.914  14.259
31243SOL    HW195626  13.250   0.938  14.166
31243SOL    HW295627  13.218   0.824  14.260
31244SOL     OW95628   4.462   2.412   3.888
31244SOL    HW195629   4.544   2.435   3.843
31244SOL    HW295630   4.450   2.482   3.952
31245SOL     OW95631   9.447   1.846  13.217
31245SOL    HW195632   9.480   1.762  13.184
31245SOL    HW295633   9.395   1.823  13.293
31246SOL     OW95634  13.418   8.683   2.655
31246SOL    HW195635  13.394   8.750   2.718
31246SOL    HW295636  13.489   8.634   2.696
31247SOL     OW95637  11.592   6.356  13.460
31247SOL    HW195638  11.578   6.261  13.450
31247SOL    HW295639  11.603   6.388  13.371
31248SOL     OW95640   6.191  10.427   6.867
31248SOL    HW195641   6.217  10.406   6.778
31248SOL    HW295642   6.099  10.399   6.873
31249SOL     OW95643   0.778   5.715   7.365
31249SOL    HW195644   0.706   5.656   7.386
31249SOL    HW295645   0.792   5.702   7.271
31250SOL     OW95646   3.562   9.407   4.604
31250SOL    HW195647   3.492   9.396   4.668
31250SOL    HW295648   3.643   9.411   4.656
31251SOL     OW95649  14.570   7.833  12.953
31251SOL    HW195650  14.476   7.816  12.962
31251SOL    HW295651  14.582   7.859  12.862
31252SOL     OW95652   6.601   7.902   0.178
31252SOL    HW195653   6.613   7.884   0.271
31252SOL    HW295654   6.686   7.883   0.139
31253SOL     OW95655   2.025  13.849   4.518
31253SOL    HW195656   1.967  13.842   4.442
31253SOL    HW295657   2.088  13.917   4.493
31254SOL     OW95658   0.032  12.550   8.100
31254SOL    HW195659   0.019  12.611   8.028
31254SOL    HW295660  14.815  12.535   8.135
31255SOL     OW95661  13.045   6.825   1.732
31255SOL    HW195662  13.063   6.770   1.809
31255SOL    HW295663  13.104   6.900   1.743
31256SOL     OW95664   7.645   1.542   7.563
31256SOL    HW195665   7.584   1.503   7.626
31256SOL    HW295666   7.696   1.604   7.615
31257SOL     OW95667   4.578   7.171  11.297
31257SOL    HW195668   4.668   7.138  11.297
31257SOL    HW295669   4.525   7.093  11.310
31258SOL     OW95670   0.844   1.092   8.675
31258SOL    HW195671   0.800   1.149   8.738
31258SOL    HW295672   0.844   1.142   8.594
31259SOL     OW95673  13.473   2.167  12.595
31259SOL    HW195674  13.408   2.103  12.565
31259SOL    HW295675  13.549   2.153  12.538
31260SOL     OW95676   9.395   9.326   3.241
31260SOL    HW195677   9.377   9.267   3.167
31260SOL    HW295678   9.309   9.364   3.263
31261SOL     OW95679  13.838  10.778  14.784
31261SOL    HW195680  13.743  10.787  14.774
31261SOL    HW295681  13.866  10.864  14.816
31262SOL     OW95682   1.366   8.274   9.615
31262SOL    HW195683   1.377   8.343   9.681
31262SOL    HW295684   1.422   8.300   9.542
31263SOL     OW95685  13.261  12.068   7.474
31263SOL    HW195686  13.179  12.086   7.521
31263SOL    HW295687  13.314  12.019   7.537
31264SOL     OW95688  10.321  14.424   6.205
31264SOL    HW195689  10.339  14.388   6.292
31264SOL    HW295690  10.391  14.389   6.150
31265SOL     OW95691   1.712  13.510  14.268
31265SOL    HW195692   1.658  13.573  14.220
31265SOL    HW295693   1.776  13.564  14.315
31266SOL     OW95694   6.659   6.367   8.596
31266SOL    HW195695   6.592   6.367   8.528
31266SOL    HW295696   6.730   6.420   8.560
31267SOL     OW95697  14.399  14.565   9.861
31267SOL    HW195698  14.471  14.569   9.924
31267SOL    HW295699  14.347  14.643   9.879
31268SOL     OW95700   6.986   4.048   4.967
31268SOL    HW195701   7.039   4.101   4.909
31268SOL    HW295702   6.938   3.989   4.909
31269SOL     OW95703   4.821  13.198   6.881
31269SOL    HW195704   4.751  13.156   6.931
31269SOL    HW295705   4.802  13.291   6.888
31270SOL     OW95706   6.556  13.060   4.222
31270SOL    HW195707   6.649  13.044   4.203
31270SOL    HW295708   6.543  13.152   4.202
31271SOL     OW95709   9.597   2.173   5.432
31271SOL    HW195710   9.534   2.111   5.469
31271SOL    HW295711   9.581   2.169   5.338
31272SOL     OW95712  14.654   9.444   2.200
31272SOL    HW195713  14.668   9.411   2.289
31272SOL    HW295714  14.732   9.416   2.152
31273SOL     OW95715  10.697   5.415   1.704
31273SOL    HW195716  10.714   5.357   1.630
31273SOL    HW295717  10.719   5.363   1.781
31274SOL     OW95718   9.392  10.865   4.183
31274SOL    HW195719   9.343  10.929   4.130
31274SOL    HW295720   9.345  10.862   4.266
31275SOL     OW95721   5.094   7.994  10.671
31275SOL    HW195722   5.079   8.079  10.712
31275SOL    HW295723   5.163   8.010  10.607
31276SOL     OW95724   1.359   2.722   1.575
31276SOL    HW195725   1.312   2.779   1.636
31276SOL    HW295726   1.450   2.748   1.582
31277SOL     OW95727   6.331  11.872  14.821
31277SOL    HW195728   6.237  11.853  14.813
31277SOL    HW295729   6.346  11.882   0.044
31278SOL     OW95730   2.837   2.589  11.552
31278SOL    HW195731   2.871   2.568  11.465
31278SOL    HW295732   2.768   2.654  11.535
31279SOL     OW95733   7.912   2.553  12.760
31279SOL    HW195734   7.836   2.497  12.742
31279SOL    HW295735   7.949   2.517  12.841
31280SOL     OW95736  10.993  12.544   7.947
31280SOL    HW195737  11.004  12.609   8.015
31280SOL    HW295738  11.019  12.461   7.988
31281SOL     OW95739   6.285  12.630   6.368
31281SOL    HW195740   6.380  12.619   6.375
31281SOL    HW295741   6.271  12.666   6.280
31282SOL     OW95742   2.090   8.857  10.556
31282SOL    HW195743   2.010   8.908  10.572
31282SOL    HW295744   2.061   8.766  10.563
31283SOL     OW95745  12.129   1.000  11.659
31283SOL    HW195746  12.169   1.073  11.611
31283SOL    HW295747  12.204   0.956  11.700
31284SOL     OW95748   2.734   4.839   3.788
31284SOL    HW195749   2.795   4.881   3.726
31284SOL    HW295750   2.789   4.816   3.863
31285SOL     OW95751   1.622   3.554  12.894
31285SOL    HW195752   1.661   3.538  12.808
31285SOL    HW295753   1.606   3.648  12.896
31286SOL     OW95754  10.729   7.791   1.461
31286SOL    HW195755  10.637   7.800   1.484
31286SOL    HW295756  10.774   7.784   1.545
31287SOL     OW95757   5.137   8.307  11.670
31287SOL    HW195758   5.081   8.356  11.730
31287SOL    HW295759   5.226   8.335  11.693
31288SOL     OW95760   8.469  11.898  14.821
31288SOL    HW195761   8.423  11.835   0.005
31288SOL    HW295762   8.561  11.873  14.827
31289SOL     OW95763   0.282   7.445   3.311
31289SOL    HW195764   0.343   7.406   3.248
31289SOL    HW295765   0.215   7.487   3.257
31290SOL     OW95766   7.690  13.580  10.227
31290SOL    HW195767   7.717  13.658  10.276
31290SOL    HW295768   7.705  13.603  10.135
31291SOL     OW95769  13.622   4.079   7.166
31291SOL    HW195770  13.560   4.149   7.188
31291SOL    HW295771  13.585   4.038   7.088
31292SOL     OW95772  10.976   7.176   5.596
31292SOL    HW195773  10.898   7.231   5.595
31292SOL    HW295774  10.943   7.087   5.602
31293SOL     OW95775  11.024   6.239   6.078
31293SOL    HW195776  11.061   6.246   5.990
31293SOL    HW295777  10.931   6.222   6.064
31294SOL     OW95778   2.887   9.057   0.449
31294SOL    HW195779   2.950   8.989   0.424
31294SOL    HW295780   2.802   9.014   0.442
31295SOL     OW95781   7.663  12.361   7.980
31295SOL    HW195782   7.670  12.456   7.989
31295SOL    HW295783   7.672  12.345   7.886
31296SOL     OW95784  11.215   6.513   5.780
31296SOL    HW195785  11.182   6.425   5.798
31296SOL    HW295786  11.187   6.532   5.691
31297SOL     OW95787  11.520   8.722  12.861
31297SOL    HW195788  11.516   8.628  12.840
31297SOL    HW295789  11.476   8.730  12.945
31298SOL     OW95790   1.811   8.247  14.277
31298SOL    HW195791   1.794   8.340  14.261
31298SOL    HW295792   1.733   8.202  14.243
31299SOL     OW95793  11.283  14.476  12.833
31299SOL    HW195794  11.299  14.475  12.928
31299SOL    HW295795  11.354  14.529  12.797
31300SOL     OW95796  14.075   9.019   0.334
31300SOL    HW195797  14.012   9.044   0.267
31300SOL    HW295798  14.031   8.949   0.383
31301SOL     OW95799   4.574   8.828   7.429
31301SOL    HW195800   4.616   8.743   7.436
31301SOL    HW295801   4.541   8.846   7.517
31302SOL     OW95802  13.207   1.655   3.882
31302SOL    HW195803  13.295   1.668   3.918
31302SOL    HW295804  13.152   1.642   3.959
31303SOL     OW95805  11.528   1.234   7.736
31303SOL    HW195806  11.487   1.156   7.700
31303SOL    HW295807  11.515   1.302   7.670
31304SOL     OW95808   4.864  14.782   5.282
31304SOL    HW195809   4.816  14.740   5.353
31304SOL    HW295810   4.878  14.713   5.217
31305SOL     OW95811   5.099  10.748   4.268
31305SOL    HW195812   5.142  10.663   4.271
31305SOL    HW295813   5.141  10.799   4.337
31306SOL     OW95814  14.690   0.218   5.230
31306SOL    HW195815  14.759   0.267   5.274
31306SOL    HW295816  14.723   0.206   5.140
31307SOL     OW95817  11.222   9.061   1.783
31307SOL    HW195818  11.153   9.114   1.745
31307SOL    HW295819  11.179   8.979   1.807
31308SOL     OW95820   7.555   1.246   7.113
31308SOL    HW195821   7.597   1.320   7.069
31308SOL    HW295822   7.564   1.266   7.207
31309SOL     OW95823  11.402   4.965  12.710
31309SOL    HW195824  11.392   5.038  12.649
31309SOL    HW295825  11.439   4.895  12.657
31310SOL     OW95826   9.934   4.713  14.853
31310SOL    HW195827   9.969   4.797   0.010
31310SOL    HW295828   9.922   4.723  14.758
31311SOL     OW95829   3.693  12.327   7.869
31311SOL    HW195830   3.605  12.302   7.840
31311SOL    HW295831   3.747  12.250   7.852
31312SOL     OW95832   0.441   6.929   6.954
31312SOL    HW195833   0.368   6.939   6.893
31312SOL    HW295834   0.432   7.002   7.015
31313SOL     OW95835   1.162   0.114   9.725
31313SOL    HW195836   1.196   0.034   9.763
31313SOL    HW295837   1.188   0.183   9.786
31314SOL     OW95838  14.432   3.030   9.777
31314SOL    HW195839  14.346   2.997   9.802
31314SOL    HW295840  14.426   3.043   9.682
31315SOL     OW95841  13.997   1.459  10.562
31315SOL    HW195842  14.084   1.419  10.573
31315SOL    HW295843  13.938   1.385  10.549
31316SOL     OW95844   2.587  13.065  11.249
31316SOL    HW195845   2.666  13.056  11.302
31316SOL    HW295846   2.617  13.060  11.159
31317SOL     OW95847   4.745   1.214   9.994
31317SOL    HW195848   4.814   1.147   9.991
31317SOL    HW295849   4.765   1.272   9.921
31318SOL     OW95850  14.821   3.230   5.302
31318SOL    HW195851  14.776   3.285   5.367
31318SOL    HW295852  14.818   3.280   5.221
31319SOL     OW95853  12.664   9.194   8.126
31319SOL    HW195854  12.739   9.250   8.144
31319SOL    HW295855  12.628   9.174   8.212
31320SOL     OW95856  12.258   3.848   9.957
31320SOL    HW195857  12.317   3.912   9.995
31320SOL    HW295858  12.261   3.774  10.017
31321SOL     OW95859  12.084   5.356   2.929
31321SOL    HW195860  12.110   5.302   3.004
31321SOL    HW295861  12.056   5.293   2.862
31322SOL     OW95862   5.280   8.601   5.853
31322SOL    HW195863   5.209   8.574   5.910
31322SOL    HW295864   5.360   8.575   5.899
31323SOL     OW95865   1.405   0.808   9.907
31323SOL    HW195866   1.483   0.846   9.866
31323SOL    HW295867   1.413   0.831   9.999
31324SOL     OW95868  13.449   9.353   4.960
31324SOL    HW195869  13.479   9.388   5.043
31324SOL    HW295870  13.524   9.306   4.925
31325SOL     OW95871   1.987  10.282   4.879
31325SOL    HW195872   2.070  10.279   4.927
31325SOL    HW295873   1.946  10.364   4.906
31326SOL     OW95874   4.612   3.835   3.219
31326SOL    HW195875   4.697   3.793   3.225
31326SOL    HW295876   4.591   3.835   3.126
31327SOL     OW95877   1.172   0.516  10.178
31327SOL    HW195878   1.189   0.588  10.239
31327SOL    HW295879   1.100   0.467  10.218
31328SOL     OW95880   5.163  10.327   3.524
31328SOL    HW195881   5.238  10.387   3.519
31328SOL    HW295882   5.114  10.343   3.444
31329SOL     OW95883  10.757   5.102   6.178
31329SOL    HW195884  10.791   5.150   6.103
31329SOL    HW295885  10.679   5.151   6.205
31330SOL     OW95886  14.202  10.009   1.166
31330SOL    HW195887  14.189  10.024   1.259
31330SOL    HW295888  14.275  10.065   1.142
31331SOL     OW95889  12.380   6.863  14.776
31331SOL    HW195890  12.443   6.793  14.793
31331SOL    HW295891  12.299   6.818  14.752
31332SOL     OW95892  13.669   7.264  11.768
31332SOL    HW195893  13.658   7.289  11.860
31332SOL    HW295894  13.583   7.277  11.729
31333SOL     OW95895   2.450   9.023   2.170
31333SOL    HW195896   2.488   8.947   2.212
31333SOL    HW295897   2.445   9.000   2.077
31334SOL     OW95898  12.292  13.401  13.060
31334SOL    HW195899  12.265  13.430  12.973
31334SOL    HW295900  12.242  13.320  13.075
31335SOL     OW95901   6.256   9.051  10.308
31335SOL    HW195902   6.218   9.018  10.226
31335SOL    HW295903   6.191   9.113  10.340
31336SOL     OW95904   4.994   1.814   8.965
31336SOL    HW195905   4.904   1.794   8.939
31336SOL    HW295906   5.002   1.781   9.054
31337SOL     OW95907   6.113   3.136  12.106
31337SOL    HW195908   6.121   3.075  12.034
31337SOL    HW295909   6.071   3.086  12.176
31338SOL     OW95910  11.940  14.752   6.319
31338SOL    HW195911  11.923  14.661   6.296
31338SOL    HW295912  11.960  14.795   6.235
31339SOL     OW95913   6.300  10.731   7.896
31339SOL    HW195914   6.379  10.737   7.842
31339SOL    HW295915   6.332  10.731   7.986
31340SOL     OW95916  11.221  10.118   6.813
31340SOL    HW195917  11.157  10.180   6.848
31340SOL    HW295918  11.208  10.121   6.718
31341SOL     OW95919   5.779   0.292  13.940
31341SOL    HW195920   5.874   0.283  13.948
31341SOL    HW295921   5.744   0.208  13.968
31342SOL     OW95922   3.213   5.305   9.979
31342SOL    HW195923   3.157   5.235  10.011
31342SOL    HW295924   3.202   5.302   9.884
31343SOL     OW95925  11.580   1.167   4.496
31343SOL    HW195926  11.548   1.257   4.498
31343SOL    HW295927  11.563   1.134   4.584
31344SOL     OW95928  13.535   2.533   5.944
31344SOL    HW195929  13.556   2.457   5.891
31344SOL    HW295930  13.475   2.584   5.890
31345SOL     OW95931  13.192   0.516   5.010
31345SOL    HW195932  13.173   0.498   5.102
31345SOL    HW295933  13.142   0.450   4.962
31346SOL     OW95934   3.186   2.267   6.214
31346SOL    HW195935   3.109   2.308   6.175
31346SOL    HW295936   3.158   2.244   6.303
31347SOL     OW95937  12.866   1.686   7.541
31347SOL    HW195938  12.899   1.744   7.610
31347SOL    HW295939  12.944   1.662   7.492
31348SOL     OW95940   9.727   6.633  13.915
31348SOL    HW195941   9.764   6.668  13.834
31348SOL    HW295942   9.765   6.545  13.922
31349SOL     OW95943   8.892  10.730   9.988
31349SOL    HW195944   8.901  10.636   9.976
31349SOL    HW295945   8.828  10.757   9.923
31350SOL     OW95946   0.016   1.613   3.920
31350SOL    HW195947   0.111   1.615   3.903
31350SOL    HW295948  14.848   1.639   3.837
31351SOL     OW95949   7.334   0.466   8.452
31351SOL    HW195950   7.420   0.507   8.463
31351SOL    HW295951   7.328   0.402   8.523
31352SOL     OW95952  13.630   1.028   4.007
31352SOL    HW195953  13.626   0.952   4.066
31352SOL    HW295954  13.611   0.992   3.921
31353SOL     OW95955  10.168   2.881  10.342
31353SOL    HW195956  10.249   2.830  10.338
31353SOL    HW295957  10.192   2.968  10.311
31354SOL     OW95958   5.299  10.346   9.123
31354SOL    HW195959   5.233  10.279   9.143
31354SOL    HW295960   5.368  10.330   9.187
31355SOL     OW95961   7.580  12.497   4.277
31355SOL    HW195962   7.494  12.456   4.265
31355SOL    HW295963   7.583  12.566   4.211
31356SOL     OW95964   2.381   2.310   9.655
31356SOL    HW195965   2.343   2.396   9.636
31356SOL    HW295966   2.417   2.281   9.571
31357SOL     OW95967   4.891   8.519   6.450
31357SOL    HW195968   4.953   8.450   6.473
31357SOL    HW295969   4.816   8.502   6.508
31358SOL     OW95970  11.009  14.797  13.193
31358SOL    HW195971  11.030   0.013  13.162
31358SOL    HW295972  11.051  14.791  13.278
31359SOL     OW95973   8.572  13.578   2.054
31359SOL    HW195974   8.600  13.598   2.144
31359SOL    HW295975   8.575  13.482   2.049
31360SOL     OW95976  13.608   2.648   6.320
31360SOL    HW195977  13.663   2.571   6.309
31360SOL    HW295978  13.527   2.626   6.275
31361SOL     OW95979  10.499   7.022   2.140
31361SOL    HW195980  10.590   6.991   2.141
31361SOL    HW295981  10.451   6.954   2.094
31362SOL     OW95982  14.745   3.014  12.496
31362SOL    HW195983  14.799   3.032  12.419
31362SOL    HW295984  14.802   2.963  12.554
31363SOL     OW95985   9.089  13.737  13.369
31363SOL    HW195986   9.097  13.786  13.287
31363SOL    HW295987   9.124  13.650  13.348
31364SOL     OW95988   8.441   6.781  11.874
31364SOL    HW195989   8.404   6.710  11.927
31364SOL    HW295990   8.516   6.743  11.830
31365SOL     OW95991  13.346   0.681   8.059
31365SOL    HW195992  13.436   0.706   8.081
31365SOL    HW295993  13.322   0.740   7.986
31366SOL     OW95994  12.979   0.483  12.671
31366SOL    HW195995  12.993   0.519  12.583
31366SOL    HW295996  12.994   0.389  12.661
31367SOL     OW95997  14.717  11.208  10.262
31367SOL    HW195998  14.660  11.166  10.197
31367SOL    HW295999  14.772  11.137  10.295
31368SOL     OW96000  10.424   4.030  11.196
31368SOL    HW196001  10.330   4.011  11.197
31368SOL    HW296002  10.451   4.027  11.288
31369SOL     OW96003   1.287   4.790   9.823
31369SOL    HW196004   1.300   4.751   9.737
31369SOL    HW296005   1.331   4.874   9.820
31370SOL     OW96006   5.315   9.264  13.282
31370SOL    HW196007   5.353   9.257  13.194
31370SOL    HW296008   5.226   9.296  13.267
31371SOL     OW96009   8.694   0.158  13.116
31371SOL    HW196010   8.607   0.177  13.151
31371SOL    HW296011   8.703   0.217  13.041
31372SOL     OW96012   3.445   5.109   6.909
31372SOL    HW196013   3.481   5.194   6.935
31372SOL    HW296014   3.350   5.120   6.913
31373SOL     OW96015   5.052   4.726   5.551
31373SOL    HW196016   4.974   4.777   5.527
31373SOL    HW296017   5.096   4.709   5.468
31374SOL     OW96018   0.543   9.201   1.581
31374SOL    HW196019   0.478   9.264   1.610
31374SOL    HW296020   0.623   9.252   1.571
31375SOL     OW96021   8.053   4.713   1.088
31375SOL    HW196022   8.122   4.737   1.026
31375SOL    HW296023   8.099   4.667   1.158
31376SOL     OW96024   7.606   8.326   3.117
31376SOL    HW196025   7.562   8.276   3.048
31376SOL    HW296026   7.547   8.399   3.134
31377SOL     OW96027   7.740  13.772  10.406
31377SOL    HW196028   7.764  13.853  10.451
31377SOL    HW296029   7.709  13.714  10.476
31378SOL     OW96030  11.449   6.209   6.249
31378SOL    HW196031  11.479   6.193   6.339
31378SOL    HW296032  11.360   6.244   6.259
31379SOL     OW96033  12.691   3.835   1.022
31379SOL    HW196034  12.632   3.796   0.958
31379SOL    HW296035  12.778   3.822   0.985
31380SOL     OW96036   9.245   0.057   4.924
31380SOL    HW196037   9.272  14.870   4.994
31380SOL    HW296038   9.251   0.005   4.844
31381SOL     OW96039   8.732   3.050   8.899
31381SOL    HW196040   8.687   3.091   8.825
31381SOL    HW296041   8.801   3.112   8.922
31382SOL     OW96042   6.580   2.515   7.881
31382SOL    HW196043   6.561   2.515   7.787
31382SOL    HW296044   6.541   2.597   7.913
31383SOL     OW96045   2.111  11.907   6.619
31383SOL    HW196046   2.094  11.826   6.570
31383SOL    HW296047   2.049  11.904   6.692
31384SOL     OW96048   8.916  10.010   6.443
31384SOL    HW196049   8.913   9.991   6.350
31384SOL    HW296050   8.942   9.928   6.484
31385SOL     OW96051   7.723   1.887   1.627
31385SOL    HW196052   7.716   1.847   1.540
31385SOL    HW296053   7.751   1.815   1.684
31386SOL     OW96054   6.907   5.558  10.521
31386SOL    HW196055   6.999   5.539  10.537
31386SOL    HW296056   6.907   5.619  10.448
31387SOL     OW96057   5.437   1.225  11.801
31387SOL    HW196058   5.477   1.307  11.772
31387SOL    HW296059   5.410   1.181  11.720
31388SOL     OW96060   3.819   2.518  11.823
31388SOL    HW196061   3.874   2.502  11.900
31388SOL    HW296062   3.734   2.482  11.847
31389SOL     OW96063   2.234  14.858   4.117
31389SOL    HW196064   2.315  14.857   4.067
31389SOL    HW296065   2.195  14.772   4.100
31390SOL     OW96066   1.332  14.461   6.075
31390SOL    HW196067   1.325  14.509   5.992
31390SOL    HW296068   1.244  14.463   6.112
31391SOL     OW96069   5.325   2.248   1.242
31391SOL    HW196070   5.363   2.164   1.267
31391SOL    HW296071   5.280   2.278   1.322
31392SOL     OW96072   2.397  11.078   8.097
31392SOL    HW196073   2.346  11.064   8.177
31392SOL    HW296074   2.428  10.991   8.073
31393SOL     OW96075  12.345  14.652   2.315
31393SOL    HW196076  12.432  14.693   2.319
31393SOL    HW296077  12.350  14.594   2.238
31394SOL     OW96078   4.587  13.020   8.507
31394SOL    HW196079   4.581  13.042   8.600
31394SOL    HW296080   4.615  13.102   8.465
31395SOL     OW96081  14.009  14.559  12.044
31395SOL    HW196082  14.041  14.615  12.116
31395SOL    HW296083  13.913  14.569  12.048
31396SOL     OW96084  14.246   0.891   3.090
31396SOL    HW196085  14.256   0.929   3.177
31396SOL    HW296086  14.239   0.797   3.105
31397SOL     OW96087  10.876   3.064  14.606
31397SOL    HW196088  10.966   3.042  14.585
31397SOL    HW296089  10.840   2.983  14.643
31398SOL     OW96090   9.729  14.735  10.897
31398SOL    HW196091   9.715  14.829  10.914
31398SOL    HW296092   9.764  14.732  10.808
31399SOL     OW96093  13.785   0.103  11.854
31399SOL    HW196094  13.803   0.185  11.808
31399SOL    HW296095  13.786   0.036  11.785
31400SOL     OW96096   6.260   7.704   3.464
31400SOL    HW196097   6.273   7.629   3.406
31400SOL    HW296098   6.167   7.703   3.485
31401SOL     OW96099   2.441   5.712  10.652
31401SOL    HW196100   2.507   5.771  10.690
31401SOL    HW296101   2.388   5.684  10.727
31402SOL     OW96102  14.593   9.755   2.376
31402SOL    HW196103  14.622   9.679   2.427
31402SOL    HW296104  14.663   9.770   2.313
31403SOL     OW96105   4.629   7.497  12.139
31403SOL    HW196106   4.664   7.431  12.079
31403SOL    HW296107   4.542   7.517  12.104
31404SOL     OW96108   1.344  13.257   5.710
31404SOL    HW196109   1.429  13.243   5.753
31404SOL    HW296110   1.295  13.310   5.773
31405SOL     OW96111   2.276   8.281  13.222
31405SOL    HW196112   2.232   8.340  13.161
31405SOL    HW296113   2.208   8.254  13.284
31406SOL     OW96114  12.580   7.328   5.374
31406SOL    HW196115  12.595   7.234   5.365
31406SOL    HW296116  12.487   7.336   5.393
31407SOL     OW96117  14.451   5.211  13.931
31407SOL    HW196118  14.457   5.127  13.977
31407SOL    HW296119  14.526   5.210  13.872
31408SOL     OW96120   4.857   0.994  13.344
31408SOL    HW196121   4.791   0.936  13.308
31408SOL    HW296122   4.881   1.052  13.272
31409SOL     OW96123   0.763   0.880   1.698
31409SOL    HW196124   0.755   0.858   1.791
31409SOL    HW296125   0.695   0.946   1.684
31410SOL     OW96126  12.819  10.985   1.545
31410SOL    HW196127  12.789  11.076   1.539
31410SOL    HW296128  12.912  10.989   1.527
31411SOL     OW96129   6.556   3.652   6.016
31411SOL    HW196130   6.590   3.692   5.936
31411SOL    HW296131   6.600   3.700   6.087
31412SOL     OW96132  11.724  12.792   1.483
31412SOL    HW196133  11.704  12.743   1.562
31412SOL    HW296134  11.701  12.883   1.505
31413SOL     OW96135   8.938  12.990  12.421
31413SOL    HW196136   8.905  12.910  12.463
31413SOL    HW296137   8.872  13.057  12.440
31414SOL     OW96138   0.425  13.038  14.677
31414SOL    HW196139   0.421  13.078  14.764
31414SOL    HW296140   0.349  13.073  14.631
31415SOL     OW96141  11.069   4.878   4.476
31415SOL    HW196142  11.141   4.915   4.526
31415SOL    HW296143  10.995   4.879   4.536
31416SOL     OW96144   0.922   8.708  11.792
31416SOL    HW196145   0.980   8.777  11.824
31416SOL    HW296146   0.838   8.751  11.777
31417SOL     OW96147   6.584   0.563   8.836
31417SOL    HW196148   6.576   0.486   8.780
31417SOL    HW296149   6.557   0.636   8.781
31418SOL     OW96150   7.235   3.592   7.673
31418SOL    HW196151   7.166   3.591   7.606
31418SOL    HW296152   7.259   3.500   7.684
31419SOL     OW96153   4.969   9.553   9.309
31419SOL    HW196154   4.953   9.633   9.259
31419SOL    HW296155   4.931   9.483   9.256
31420SOL     OW96156  12.890   8.958   3.065
31420SOL    HW196157  12.868   9.047   3.039
31420SOL    HW296158  12.807   8.911   3.063
31421SOL     OW96159   3.329   6.640  13.664
31421SOL    HW196160   3.359   6.717  13.615
31421SOL    HW296161   3.243   6.621  13.626
31422SOL     OW96162   2.174   2.775   8.827
31422SOL    HW196163   2.146   2.866   8.829
31422SOL    HW296164   2.108   2.730   8.775
31423SOL     OW96165   3.821   7.645   7.161
31423SOL    HW196166   3.916   7.642   7.168
31423SOL    HW296167   3.803   7.625   7.069
31424SOL     OW96168   9.088   8.799   1.650
31424SOL    HW196169   9.045   8.721   1.616
31424SOL    HW296170   9.156   8.819   1.584
31425SOL     OW96171   7.907  11.128   7.632
31425SOL    HW196172   7.952  11.053   7.670
31425SOL    HW296173   7.868  11.095   7.551
31426SOL     OW96174  13.550   8.212  11.640
31426SOL    HW196175  13.556   8.119  11.662
31426SOL    HW296176  13.562   8.215  11.545
31427SOL     OW96177  11.242  14.456  11.157
31427SOL    HW196178  11.266  14.546  11.134
31427SOL    HW296179  11.324  14.416  11.185
31428SOL     OW96180   1.861  10.473  12.725
31428SOL    HW196181   1.919  10.448  12.798
31428SOL    HW296182   1.844  10.390  12.680
31429SOL     OW96183   3.491   8.286   0.510
31429SOL    HW196184   3.538   8.259   0.432
31429SOL    HW296185   3.553   8.273   0.582
31430SOL     OW96186   2.138   2.039  10.423
31430SOL    HW196187   2.069   2.068  10.484
31430SOL    HW296188   2.201   1.994  10.479
31431SOL     OW96189  13.310   9.141  13.725
31431SOL    HW196190  13.359   9.177  13.650
31431SOL    HW296191  13.249   9.079  13.685
31432SOL     OW96192   6.901   5.499   8.127
31432SOL    HW196193   6.992   5.470   8.123
31432SOL    HW296194   6.867   5.485   8.039
31433SOL     OW96195   9.134   0.967  11.463
31433SOL    HW196196   9.122   1.046  11.515
31433SOL    HW296197   9.172   0.997  11.381
31434SOL     OW96198   5.246   9.879   1.562
31434SOL    HW196199   5.332   9.905   1.595
31434SOL    HW296200   5.265   9.825   1.486
31435SOL     OW96201   4.284   7.970  13.765
31435SOL    HW196202   4.240   7.935  13.842
31435SOL    HW296203   4.334   7.897  13.729
31436SOL     OW96204  12.515  13.839  12.965
31436SOL    HW196205  12.525  13.868  12.875
31436SOL    HW296206  12.552  13.750  12.966
31437SOL     OW96207   5.431   3.936  10.519
31437SOL    HW196208   5.337   3.955  10.512
31437SOL    HW296209   5.447   3.874  10.448
31438SOL     OW96210   1.041  11.221  13.641
31438SOL    HW196211   1.008  11.219  13.551
31438SOL    HW296212   1.105  11.150  13.644
31439SOL     OW96213  13.415   9.541   6.886
31439SOL    HW196214  13.494   9.566   6.934
31439SOL    HW296215  13.394   9.453   6.918
31440SOL     OW96216  10.419  13.401  10.254
31440SOL    HW196217  10.338  13.446  10.233
31440SOL    HW296218  10.488  13.457  10.217
31441SOL     OW96219   3.349   7.568  14.591
31441SOL    HW196220   3.357   7.661  14.610
31441SOL    HW296221   3.266   7.559  14.545
31442SOL     OW96222   6.259  10.042   8.886
31442SOL    HW196223   6.240  10.046   8.980
31442SOL    HW296224   6.233   9.954   8.860
31443SOL     OW96225   6.680   7.368   9.545
31443SOL    HW196226   6.648   7.411   9.465
31443SOL    HW296227   6.775   7.362   9.531
31444SOL     OW96228   1.908   0.543   4.379
31444SOL    HW196229   1.823   0.584   4.364
31444SOL    HW296230   1.889   0.469   4.436
31445SOL     OW96231  11.025   2.962   2.945
31445SOL    HW196232  10.959   2.919   2.891
31445SOL    HW296233  10.975   3.013   3.008
31446SOL     OW96234   7.759   3.743   8.132
31446SOL    HW196235   7.808   3.698   8.201
31446SOL    HW296236   7.827   3.785   8.079
31447SOL     OW96237   1.228  14.768  14.192
31447SOL    HW196238   1.141  14.728  14.194
31447SOL    HW296239   1.269  14.740  14.274
31448SOL     OW96240   6.318   9.519   4.582
31448SOL    HW196241   6.352   9.608   4.571
31448SOL    HW296242   6.316   9.483   4.494
31449SOL     OW96243   5.707   0.185   8.009
31449SOL    HW196244   5.757   0.119   8.058
31449SOL    HW296245   5.661   0.135   7.942
31450SOL     OW96246   4.316  10.971   1.227
31450SOL    HW196247   4.284  10.921   1.302
31450SOL    HW296248   4.253  10.953   1.158
31451SOL     OW96249   4.358  14.159   7.298
31451SOL    HW196250   4.393  14.221   7.362
31451SOL    HW296251   4.303  14.099   7.349
31452SOL     OW96252   2.530  10.113   7.933
31452SOL    HW196253   2.498  10.022   7.927
31452SOL    HW296254   2.533  10.131   8.027
31453SOL     OW96255   8.873  11.042  11.278
31453SOL    HW196256   8.857  10.977  11.209
31453SOL    HW296257   8.792  11.045  11.327
31454SOL     OW96258   8.486   2.393   6.129
31454SOL    HW196259   8.567   2.427   6.167
31454SOL    HW296260   8.419   2.415   6.193
31455SOL     OW96261  12.941  13.038   4.032
31455SOL    HW196262  12.990  13.056   3.951
31455SOL    HW296263  12.876  12.972   4.006
31456SOL     OW96264   7.455  12.725   2.748
31456SOL    HW196265   7.384  12.769   2.795
31456SOL    HW296266   7.498  12.795   2.698
31457SOL     OW96267   6.161   8.786  10.723
31457SOL    HW196268   6.209   8.867  10.740
31457SOL    HW296269   6.081   8.814  10.679
31458SOL     OW96270  14.510   8.012   5.139
31458SOL    HW196271  14.572   7.995   5.069
31458SOL    HW296272  14.537   7.954   5.210
31459SOL     OW96273   7.220   6.929   3.977
31459SOL    HW196274   7.152   6.864   3.959
31459SOL    HW296275   7.234   6.923   4.072
31460SOL     OW96276   4.193  11.877   9.305
31460SOL    HW196277   4.188  11.782   9.302
31460SOL    HW296278   4.110  11.907   9.266
31461SOL     OW96279   3.995   2.247   4.153
31461SOL    HW196280   4.072   2.299   4.175
31461SOL    HW296281   3.972   2.202   4.235
31462SOL     OW96282   1.912   3.142  10.814
31462SOL    HW196283   1.900   3.148  10.719
31462SOL    HW296284   1.960   3.221  10.837
31463SOL     OW96285  14.210   1.463   5.703
31463SOL    HW196286  14.134   1.439   5.756
31463SOL    HW296287  14.185   1.545   5.661
31464SOL     OW96288   0.781   6.603   7.837
31464SOL    HW196289   0.747   6.604   7.927
31464SOL    HW296290   0.703   6.612   7.782
31465SOL     OW96291   3.313   3.377   0.403
31465SOL    HW196292   3.375   3.447   0.423
31465SOL    HW296293   3.345   3.302   0.452
31466SOL     OW96294   1.247   1.050   7.503
31466SOL    HW196295   1.197   1.000   7.567
31466SOL    HW296296   1.324   1.081   7.550
31467SOL     OW96297   7.468   5.914  10.841
31467SOL    HW196298   7.482   5.948  10.753
31467SOL    HW296299   7.374   5.923  10.856
31468SOL     OW96300  10.088   6.639   7.160
31468SOL    HW196301  10.152   6.588   7.109
31468SOL    HW296302  10.040   6.689   7.094
31469SOL     OW96303  11.890   2.402   3.348
31469SOL    HW196304  11.857   2.366   3.430
31469SOL    HW296305  11.944   2.476   3.374
31470SOL     OW96306   9.113  10.039   5.222
31470SOL    HW196307   9.132  10.132   5.230
31470SOL    HW296308   9.197   9.996   5.235
31471SOL     OW96309  10.696   8.846   3.100
31471SOL    HW196310  10.732   8.757   3.097
31471SOL    HW296311  10.646   8.854   3.018
31472SOL     OW96312   9.402   4.643   5.167
31472SOL    HW196313   9.395   4.713   5.103
31472SOL    HW296314   9.422   4.565   5.116
31473SOL     OW96315   9.408  14.562  14.158
31473SOL    HW196316   9.415  14.486  14.215
31473SOL    HW296317   9.454  14.537  14.078
31474SOL     OW96318   2.533   7.976   7.707
31474SOL    HW196319   2.516   8.022   7.625
31474SOL    HW296320   2.453   7.987   7.758
31475SOL     OW96321  14.869   1.594   7.761
31475SOL    HW196322  14.802   1.655   7.792
31475SOL    HW296323   0.010   1.533   7.834
31476SOL     OW96324   2.939   2.773   7.809
31476SOL    HW196325   2.896   2.854   7.838
31476SOL    HW296326   3.013   2.762   7.870
31477SOL     OW96327   6.293   7.704  10.130
31477SOL    HW196328   6.279   7.718  10.037
31477SOL    HW296329   6.379   7.661  10.135
31478SOL     OW96330  13.911   5.577  14.637
31478SOL    HW196331  13.953   5.514  14.696
31478SOL    HW296332  13.976   5.647  14.627
31479SOL     OW96333   0.310   2.429   4.829
31479SOL    HW196334   0.248   2.502   4.816
31479SOL    HW296335   0.391   2.472   4.856
31480SOL     OW96336  11.803   5.154   3.340
31480SOL    HW196337  11.833   5.242   3.320
31480SOL    HW296338  11.872   5.116   3.393
31481SOL     OW96339   5.776   7.662   5.785
31481SOL    HW196340   5.844   7.596   5.771
31481SOL    HW296341   5.814   7.722   5.849
31482SOL     OW96342   6.404  12.264   0.726
31482SOL    HW196343   6.496  12.236   0.721
31482SOL    HW296344   6.374  12.234   0.811
31483SOL     OW96345   2.333   6.970   5.881
31483SOL    HW196346   2.262   6.936   5.936
31483SOL    HW296347   2.413   6.945   5.928
31484SOL     OW96348  10.629   7.825   9.810
31484SOL    HW196349  10.592   7.751   9.762
31484SOL    HW296350  10.563   7.893   9.805
31485SOL     OW96351   8.659  10.111  12.293
31485SOL    HW196352   8.739  10.159  12.315
31485SOL    HW296353   8.615  10.098  12.377
31486SOL     OW96354   5.571   5.749  12.908
31486SOL    HW196355   5.541   5.830  12.866
31486SOL    HW296356   5.494   5.693  12.910
31487SOL     OW96357  12.149   6.096   3.610
31487SOL    HW196358  12.215   6.116   3.544
31487SOL    HW296359  12.112   6.012   3.582
31488SOL     OW96360   5.707   2.422   1.969
31488SOL    HW196361   5.755   2.345   2.000
31488SOL    HW296362   5.737   2.436   1.879
31489SOL     OW96363   6.185   4.028   3.643
31489SOL    HW196364   6.106   4.046   3.694
31489SOL    HW296365   6.255   4.073   3.690
31490SOL     OW96366   9.322   4.058   1.321
31490SOL    HW196367   9.388   4.124   1.300
31490SOL    HW296368   9.373   3.982   1.349
31491SOL     OW96369   4.920   0.941  14.408
31491SOL    HW196370   4.970   1.022  14.406
31491SOL    HW296371   4.845   0.957  14.350
31492SOL     OW96372   1.409  11.988  12.223
31492SOL    HW196373   1.409  12.075  12.264
31492SOL    HW296374   1.400  12.005  12.130
31493SOL     OW96375   0.017  14.014   9.848
31493SOL    HW196376   0.039  13.924   9.822
31493SOL    HW296377   0.046  14.020   9.939
31494SOL     OW96378  12.778   4.561  11.003
31494SOL    HW196379  12.818   4.599  11.081
31494SOL    HW296380  12.684   4.570  11.017
31495SOL     OW96381   1.235   4.669   7.530
31495SOL    HW196382   1.237   4.642   7.438
31495SOL    HW296383   1.176   4.606   7.572
31496SOL     OW96384  11.926   8.824  11.770
31496SOL    HW196385  11.835   8.822  11.739
31496SOL    HW296386  11.958   8.911  11.745
31497SOL     OW96387   6.214  10.426   7.785
31497SOL    HW196388   6.213  10.478   7.865
31497SOL    HW296389   6.154  10.353   7.802
31498SOL     OW96390   2.064  11.116  11.243
31498SOL    HW196391   2.079  11.081  11.155
31498SOL    HW296392   2.061  11.040  11.300
31499SOL     OW96393   1.024   6.784  14.702
31499SOL    HW196394   0.990   6.830  14.626
31499SOL    HW296395   1.081   6.716  14.665
31500SOL     OW96396  11.510   9.474   1.450
31500SOL    HW196397  11.566   9.488   1.526
31500SOL    HW296398  11.527   9.384   1.423
31501SOL     OW96399   7.150   1.442  12.910
31501SOL    HW196400   7.136   1.445  12.815
31501SOL    HW296401   7.219   1.378  12.922
31502SOL     OW96402   5.108  12.064   0.436
31502SOL    HW196403   5.163  12.001   0.390
31502SOL    HW296404   5.109  12.036   0.528
31503SOL     OW96405   3.970   1.775   1.837
31503SOL    HW196406   4.060   1.768   1.870
31503SOL    HW296407   3.973   1.848   1.775
31504SOL     OW96408   0.585  12.737   6.575
31504SOL    HW196409   0.612  12.706   6.661
31504SOL    HW296410   0.548  12.660   6.532
31505SOL     OW96411   4.941   3.279   6.044
31505SOL    HW196412   4.924   3.214   6.112
31505SOL    HW296413   4.965   3.358   6.092
31506SOL     OW96414   9.021  11.812  11.628
31506SOL    HW196415   9.058  11.837  11.713
31506SOL    HW296416   9.058  11.877  11.567
31507SOL     OW96417  11.462  12.240   3.030
31507SOL    HW196418  11.518  12.164   3.046
31507SOL    HW296419  11.464  12.252   2.935
31508SOL     OW96420   3.380   8.283   4.757
31508SOL    HW196421   3.459   8.302   4.706
31508SOL    HW296422   3.404   8.305   4.847
31509SOL     OW96423  10.255  10.979  10.222
31509SOL    HW196424  10.351  10.987  10.231
31509SOL    HW296425  10.236  10.890  10.251
31510SOL     OW96426   6.895   0.634   0.218
31510SOL    HW196427   6.969   0.598   0.265
31510SOL    HW296428   6.923   0.722   0.192
31511SOL     OW96429   4.656   2.955  13.715
31511SOL    HW196430   4.613   3.024  13.665
31511SOL    HW296431   4.622   2.873  13.678
31512SOL     OW96432   3.952   5.812   9.731
31512SOL    HW196433   3.987   5.900   9.722
31512SOL    HW296434   3.865   5.824   9.770
31513SOL     OW96435   7.823   4.269   7.689
31513SOL    HW196436   7.744   4.293   7.737
31513SOL    HW296437   7.791   4.247   7.601
31514SOL     OW96438   6.809   5.274   8.442
31514SOL    HW196439   6.860   5.315   8.512
31514SOL    HW296440   6.762   5.347   8.401
31515SOL     OW96441   2.566  13.195   7.157
31515SOL    HW196442   2.585  13.212   7.065
31515SOL    HW296443   2.515  13.270   7.185
31516SOL     OW96444  12.730  12.277   8.796
31516SOL    HW196445  12.770  12.191   8.807
31516SOL    HW296446  12.791  12.337   8.838
31517SOL     OW96447   3.880   7.604   9.736
31517SOL    HW196448   3.940   7.609   9.661
31517SOL    HW296449   3.890   7.688   9.781
31518SOL     OW96450  11.600   8.136   7.582
31518SOL    HW196451  11.664   8.178   7.638
31518SOL    HW296452  11.516   8.176   7.606
31519SOL     OW96453   1.669   6.425   7.539
31519SOL    HW196454   1.757   6.388   7.541
31519SOL    HW296455   1.612   6.355   7.572
31520SOL     OW96456   5.538   7.487  10.384
31520SOL    HW196457   5.460   7.433  10.399
31520SOL    HW296458   5.507   7.558  10.328
31521SOL     OW96459   8.994  13.844   5.272
31521SOL    HW196460   9.069  13.878   5.320
31521SOL    HW296461   8.930  13.915   5.274
31522SOL     OW96462  13.491   9.180   6.308
31522SOL    HW196463  13.451   9.154   6.391
31522SOL    HW296464  13.525   9.098   6.271
31523SOL     OW96465  13.360   4.757  13.245
31523SOL    HW196466  13.272   4.737  13.279
31523SOL    HW296467  13.348   4.835  13.191
31524SOL     OW96468   3.643   7.024  11.001
31524SOL    HW196469   3.684   7.004  11.086
31524SOL    HW296470   3.571   7.083  11.023
31525SOL     OW96471   2.744   4.185   6.826
31525SOL    HW196472   2.692   4.232   6.891
31525SOL    HW296473   2.798   4.253   6.785
31526SOL     OW96474   4.972   5.365   6.148
31526SOL    HW196475   4.969   5.353   6.243
31526SOL    HW296476   5.008   5.283   6.115
31527SOL     OW96477   0.289   3.856  11.537
31527SOL    HW196478   0.275   3.782  11.479
31527SOL    HW296479   0.373   3.838  11.579
31528SOL     OW96480   3.771  14.098   1.441
31528SOL    HW196481   3.838  14.034   1.418
31528SOL    HW296482   3.689  14.050   1.433
31529SOL     OW96483  10.055  12.113   7.475
31529SOL    HW196484  10.012  12.197   7.463
31529SOL    HW296485  10.124  12.130   7.539
31530SOL     OW96486   2.457   5.458  10.320
31530SOL    HW196487   2.422   5.483  10.235
31530SOL    HW296488   2.533   5.403  10.300
31531SOL     OW96489   7.376  12.895   7.541
31531SOL    HW196490   7.436  12.879   7.615
31531SOL    HW296491   7.417  12.852   7.467
31532SOL     OW96492   5.989  10.400  11.979
31532SOL    HW196493   6.059  10.414  11.915
31532SOL    HW296494   6.029  10.349  12.048
31533SOL     OW96495   0.982  14.657   1.453
31533SOL    HW196496   0.890  14.670   1.477
31533SOL    HW296497   0.987  14.683   1.361
31534SOL     OW96498   3.107   8.346  13.928
31534SOL    HW196499   3.110   8.270  13.985
31534SOL    HW296500   3.016   8.376  13.933
31535SOL     OW96501   9.104   0.613   3.243
31535SOL    HW196502   9.013   0.589   3.264
31535SOL    HW296503   9.096   0.678   3.174
31536SOL     OW96504   4.529  10.547  12.290
31536SOL    HW196505   4.457  10.592  12.334
31536SOL    HW296506   4.572  10.616  12.239
31537SOL     OW96507  11.430  12.568   9.234
31537SOL    HW196508  11.457  12.604   9.319
31537SOL    HW296509  11.472  12.482   9.230
31538SOL     OW96510   5.315  11.746   2.862
31538SOL    HW196511   5.407  11.726   2.843
31538SOL    HW296512   5.285  11.794   2.785
31539SOL     OW96513  14.409   3.464   6.572
31539SOL    HW196514  14.393   3.409   6.648
31539SOL    HW296515  14.407   3.554   6.606
31540SOL     OW96516  10.075   4.924  10.222
31540SOL    HW196517  10.097   4.991  10.156
31540SOL    HW296518  10.157   4.877  10.236
31541SOL     OW96519   5.321   2.081   6.140
31541SOL    HW196520   5.412   2.082   6.110
31541SOL    HW296521   5.327   2.071   6.235
31542SOL     OW96522  13.774  10.511   9.361
31542SOL    HW196523  13.862  10.483   9.335
31542SOL    HW296524  13.721  10.504   9.281
31543SOL     OW96525  14.655   7.436   7.718
31543SOL    HW196526  14.573   7.483   7.705
31543SOL    HW296527  14.697   7.481   7.792
31544SOL     OW96528   8.443   5.350   4.390
31544SOL    HW196529   8.352   5.377   4.406
31544SOL    HW296530   8.496   5.417   4.433
31545SOL     OW96531   2.675   3.228   6.904
31545SOL    HW196532   2.686   3.138   6.933
31545SOL    HW296533   2.764   3.263   6.898
31546SOL     OW96534  11.546   8.572   3.565
31546SOL    HW196535  11.535   8.619   3.483
31546SOL    HW296536  11.641   8.557   3.572
31547SOL     OW96537  12.557  11.620   5.718
31547SOL    HW196538  12.503  11.561   5.771
31547SOL    HW296539  12.634  11.568   5.696
31548SOL     OW96540  12.407   6.861  13.018
31548SOL    HW196541  12.418   6.882  13.111
31548SOL    HW296542  12.315   6.880  12.999
31549SOL     OW96543   2.106   7.495   9.550
31549SOL    HW196544   2.113   7.507   9.455
31549SOL    HW296545   2.047   7.565   9.579
31550SOL     OW96546   9.982  11.844   6.126
31550SOL    HW196547   9.894  11.815   6.102
31550SOL    HW296548  10.040  11.781   6.085
31551SOL     OW96549   5.096  13.420  14.228
31551SOL    HW196550   5.177  13.375  14.250
31551SOL    HW296551   5.036  13.350  14.202
31552SOL     OW96552   9.147   2.898  13.724
31552SOL    HW196553   9.134   2.805  13.744
31552SOL    HW296554   9.241   2.905  13.705
31553SOL     OW96555   1.139  13.024  13.695
31553SOL    HW196556   1.169  12.967  13.766
31553SOL    HW296557   1.130  12.966  13.620
31554SOL     OW96558  14.673   8.278   8.285
31554SOL    HW196559  14.760   8.238   8.280
31554SOL    HW296560  14.668   8.315   8.373
31555SOL     OW96561   2.057   2.497   0.558
31555SOL    HW196562   1.993   2.497   0.487
31555SOL    HW296563   2.141   2.480   0.514
31556SOL     OW96564  13.661   5.997  13.245
31556SOL    HW196565  13.645   6.013  13.152
31556SOL    HW296566  13.585   6.034  13.289
31557SOL     OW96567  13.472   4.418   4.212
31557SOL    HW196568  13.486   4.323   4.210
31557SOL    HW296569  13.509   4.446   4.296
31558SOL     OW96570   8.617   6.903  14.439
31558SOL    HW196571   8.603   6.963  14.512
31558SOL    HW296572   8.702   6.862  14.456
31559SOL     OW96573  12.616   7.776   3.652
31559SOL    HW196574  12.552   7.846   3.642
31559SOL    HW296575  12.648   7.760   3.563
31560SOL     OW96576  10.233  13.930   4.228
31560SOL    HW196577  10.164  13.996   4.229
31560SOL    HW296578  10.187  13.847   4.238
31561SOL     OW96579   0.072   6.037   4.918
31561SOL    HW196580   0.028   6.026   5.002
31561SOL    HW296581   0.091   5.948   4.889
31562SOL     OW96582   3.181   8.622   7.169
31562SOL    HW196583   3.145   8.646   7.084
31562SOL    HW296584   3.180   8.704   7.219
31563SOL     OW96585   2.391   2.168  14.232
31563SOL    HW196586   2.459   2.127  14.178
31563SOL    HW296587   2.438   2.201  14.308
31564SOL     OW96588  10.403   3.612  11.078
31564SOL    HW196589  10.338   3.587  11.143
31564SOL    HW296590  10.479   3.556  11.096
31565SOL     OW96591   5.989   9.332   4.129
31565SOL    HW196592   5.923   9.368   4.189
31565SOL    HW296593   5.954   9.246   4.106
31566SOL     OW96594   3.071   1.912   7.983
31566SOL    HW196595   3.031   1.994   7.956
31566SOL    HW296596   3.120   1.933   8.062
31567SOL     OW96597  14.306   2.392   5.093
31567SOL    HW196598  14.220   2.389   5.134
31567SOL    HW296599  14.289   2.397   4.999
31568SOL     OW96600  10.017   6.038   5.154
31568SOL    HW196601  10.004   5.974   5.084
31568SOL    HW296602  10.108   6.026   5.181
31569SOL     OW96603   1.240   3.720  13.464
31569SOL    HW196604   1.164   3.772  13.490
31569SOL    HW296605   1.228   3.705  13.370
31570SOL     OW96606   9.244   6.880   0.759
31570SOL    HW196607   9.300   6.953   0.733
31570SOL    HW296608   9.304   6.814   0.793
31571SOL     OW96609   2.214   8.219   9.312
31571SOL    HW196610   2.273   8.291   9.337
31571SOL    HW296611   2.196   8.174   9.394
31572SOL     OW96612   4.379   4.644   1.295
31572SOL    HW196613   4.336   4.589   1.360
31572SOL    HW296614   4.378   4.732   1.333
31573SOL     OW96615   6.707   5.392  10.637
31573SOL    HW196616   6.736   5.367  10.724
31573SOL    HW296617   6.772   5.456  10.607
31574SOL     OW96618   6.853  11.203   2.705
31574SOL    HW196619   6.785  11.205   2.772
31574SOL    HW296620   6.893  11.116   2.714
31575SOL     OW96621   9.429   3.510  13.080
31575SOL    HW196622   9.353   3.462  13.047
31575SOL    HW296623   9.401   3.602  13.080
31576SOL     OW96624  14.096   4.311   4.106
31576SOL    HW196625  14.140   4.229   4.084
31576SOL    HW296626  14.108   4.367   4.029
31577SOL     OW96627   7.292   6.429   4.377
31577SOL    HW196628   7.372   6.451   4.425
31577SOL    HW296629   7.277   6.504   4.319
31578SOL     OW96630  14.208   5.359  11.105
31578SOL    HW196631  14.205   5.350  11.200
31578SOL    HW296632  14.119   5.339  11.076
31579SOL     OW96633   4.395  10.340   3.090
31579SOL    HW196634   4.463  10.320   3.154
31579SOL    HW296635   4.318  10.292   3.120
31580SOL     OW96636  13.466   0.722   7.597
31580SOL    HW196637  13.530   0.725   7.668
31580SOL    HW296638  13.448   0.814   7.577
31581SOL     OW96639   0.538   4.155   6.507
31581SOL    HW196640   0.555   4.061   6.497
31581SOL    HW296641   0.619   4.197   6.476
31582SOL     OW96642   0.007  14.159   8.552
31582SOL    HW196643   0.027  14.217   8.625
31582SOL    HW296644  14.787  14.136   8.564
31583SOL     OW96645   3.645  10.189   4.744
31583SOL    HW196646   3.648  10.137   4.824
31583SOL    HW296647   3.687  10.133   4.678
31584SOL     OW96648   7.662   5.665  10.815
31584SOL    HW196649   7.756   5.680  10.805
31584SOL    HW296650   7.622   5.751  10.804
31585SOL     OW96651   3.407  13.737  10.481
31585SOL    HW196652   3.427  13.801  10.550
31585SOL    HW296653   3.312  13.731  10.481
31586SOL     OW96654   4.822   5.695   3.919
31586SOL    HW196655   4.908   5.733   3.906
31586SOL    HW296656   4.765   5.770   3.939
31587SOL     OW96657   3.259   7.069   5.453
31587SOL    HW196658   3.202   7.146   5.459
31587SOL    HW296659   3.217   7.012   5.388
31588SOL     OW96660  12.563  13.295   0.956
31588SOL    HW196661  12.468  13.303   0.962
31588SOL    HW296662  12.594  13.317   1.044
31589SOL     OW96663  10.936   8.353   1.842
31589SOL    HW196664  10.878   8.281   1.865
31589SOL    HW296665  11.022   8.313   1.835
31590SOL     OW96666  10.041   7.064  13.759
31590SOL    HW196667   9.974   7.016  13.807
31590SOL    HW296668  10.005   7.153  13.752
31591SOL     OW96669   0.876   8.118   2.685
31591SOL    HW196670   0.855   8.026   2.699
31591SOL    HW296671   0.791   8.162   2.684
31592SOL     OW96672   5.961   4.546  12.081
31592SOL    HW196673   5.891   4.526  12.143
31592SOL    HW296674   6.025   4.595  12.133
31593SOL     OW96675  10.599  11.783   6.800
31593SOL    HW196676  10.526  11.785   6.739
31593SOL    HW296677  10.677  11.776   6.745
31594SOL     OW96678   5.819   0.680   5.412
31594SOL    HW196679   5.912   0.682   5.388
31594SOL    HW296680   5.773   0.701   5.331
31595SOL     OW96681   5.121   4.628   8.318
31595SOL    HW196682   5.201   4.597   8.362
31595SOL    HW296683   5.134   4.723   8.310
31596SOL     OW96684   8.674   6.046   8.294
31596SOL    HW196685   8.668   5.950   8.299
31596SOL    HW296686   8.698   6.073   8.382
31597SOL     OW96687   9.404  12.510   2.104
31597SOL    HW196688   9.314  12.478   2.097
31597SOL    HW296689   9.400  12.581   2.168
31598SOL     OW96690  14.530   4.257   0.452
31598SOL    HW196691  14.446   4.263   0.499
31598SOL    HW296692  14.524   4.174   0.404
31599SOL     OW96693  14.613   4.378   1.130
31599SOL    HW196694  14.568   4.445   1.181
31599SOL    HW296695  14.595   4.296   1.177
31600SOL     OW96696  11.176   0.995  14.331
31600SOL    HW196697  11.254   1.009  14.279
31600SOL    HW296698  11.160   0.901  14.326
31601SOL     OW96699   9.440   4.220  14.502
31601SOL    HW196700   9.407   4.160  14.436
31601SOL    HW296701   9.465   4.164  14.576
31602SOL     OW96702   7.045   5.240  14.530
31602SOL    HW196703   6.981   5.197  14.474
31602SOL    HW296704   7.121   5.182  14.529
31603SOL     OW96705   5.306   1.601   9.441
31603SOL    HW196706   5.220   1.568   9.466
31603SOL    HW296707   5.331   1.661   9.512
31604SOL     OW96708   3.855   7.553  14.537
31604SOL    HW196709   3.916   7.542  14.464
31604SOL    HW296710   3.768   7.545  14.498
31605SOL     OW96711   6.059   5.355  14.705
31605SOL    HW196712   6.110   5.274  14.709
31605SOL    HW296713   6.066   5.392  14.793
31606SOL     OW96714   1.986  10.133  14.199
31606SOL    HW196715   1.906  10.139  14.148
31606SOL    HW296716   2.025  10.050  14.172
31607SOL     OW96717   2.327   8.902   7.347
31607SOL    HW196718   2.327   8.809   7.372
31607SOL    HW296719   2.403   8.939   7.392
31608SOL     OW96720   0.235   5.542   9.715
31608SOL    HW196721   0.276   5.495   9.643
31608SOL    HW296722   0.225   5.632   9.683
31609SOL     OW96723   5.249   0.662  10.072
31609SOL    HW196724   5.328   0.675  10.018
31609SOL    HW296725   5.213   0.580  10.041
31610SOL     OW96726   1.118  13.304   3.175
31610SOL    HW196727   1.105  13.289   3.081
31610SOL    HW296728   1.208  13.277   3.192
31611SOL     OW96729   1.112   8.454   9.851
31611SOL    HW196730   1.126   8.365   9.883
31611SOL    HW296731   1.198   8.481   9.817
31612SOL     OW96732  11.161  11.402  12.029
31612SOL    HW196733  11.176  11.461  11.956
31612SOL    HW296734  11.249  11.384  12.063
31613SOL     OW96735  14.195  10.709  13.764
31613SOL    HW196736  14.287  10.695  13.745
31613SOL    HW296737  14.151  10.705  13.679
31614SOL     OW96738   5.331   8.766   9.013
31614SOL    HW196739   5.311   8.768   8.919
31614SOL    HW296740   5.397   8.835   9.024
31615SOL     OW96741   2.417   1.876   5.857
31615SOL    HW196742   2.455   1.899   5.772
31615SOL    HW296743   2.363   1.951   5.880
31616SOL     OW96744   6.959   2.525  10.651
31616SOL    HW196745   6.990   2.457  10.710
31616SOL    HW296746   6.953   2.481  10.566
31617SOL     OW96747   3.319   2.643  12.231
31617SOL    HW196748   3.287   2.637  12.141
31617SOL    HW296749   3.405   2.683  12.222
31618SOL     OW96750   0.453  10.925  12.022
31618SOL    HW196751   0.435  10.914  11.928
31618SOL    HW296752   0.384  10.985  12.052
31619SOL     OW96753  13.681   3.256   4.451
31619SOL    HW196754  13.616   3.323   4.472
31619SOL    HW296755  13.760   3.283   4.497
31620SOL     OW96756   6.005   0.170   0.436
31620SOL    HW196757   6.031   0.218   0.357
31620SOL    HW296758   6.073   0.104   0.447
31621SOL     OW96759  10.486   2.648  10.774
31621SOL    HW196760  10.423   2.647  10.847
31621SOL    HW296761  10.571   2.659  10.817
31622SOL     OW96762  10.999   0.573   1.606
31622SOL    HW196763  10.910   0.559   1.574
31622SOL    HW296764  10.995   0.550   1.699
31623SOL     OW96765   9.400   7.526  11.364
31623SOL    HW196766   9.464   7.454  11.368
31623SOL    HW296767   9.342   7.502  11.292
31624SOL     OW96768   3.855   3.986   6.397
31624SOL    HW196769   3.909   3.932   6.340
31624SOL    HW296770   3.765   3.969   6.369
31625SOL     OW96771  10.882   0.670  13.078
31625SOL    HW196772  10.868   0.579  13.050
31625SOL    HW296773  10.974   0.687  13.061
31626SOL     OW96774  13.101   1.131  14.380
31626SOL    HW196775  13.028   1.108  14.322
31626SOL    HW296776  13.162   1.059  14.372
31627SOL     OW96777   8.151   6.674   1.579
31627SOL    HW196778   8.129   6.588   1.615
31627SOL    HW296779   8.211   6.654   1.506
31628SOL     OW96780  10.392  11.362   9.606
31628SOL    HW196781  10.418  11.349   9.697
31628SOL    HW296782  10.329  11.434   9.609
31629SOL     OW96783   2.744   2.855  12.187
31629SOL    HW196784   2.659   2.812  12.201
31629SOL    HW296785   2.808   2.793  12.221
31630SOL     OW96786  14.655   3.802   8.853
31630SOL    HW196787  14.646   3.810   8.758
31630SOL    HW296788  14.575   3.757   8.881
31631SOL     OW96789   7.026  12.541   7.147
31631SOL    HW196790   7.068  12.544   7.061
31631SOL    HW296791   6.952  12.602   7.139
31632SOL     OW96792   4.439   4.936   5.647
31632SOL    HW196793   4.416   5.014   5.697
31632SOL    HW296794   4.483   4.879   5.709
31633SOL     OW96795   9.459   4.747   6.077
31633SOL    HW196796   9.397   4.784   6.014
31633SOL    HW296797   9.414   4.754   6.161
31634SOL     OW96798   6.524   0.707   3.308
31634SOL    HW196799   6.594   0.730   3.247
31634SOL    HW296800   6.522   0.611   3.306
31635SOL     OW96801   4.315   6.819   9.237
31635SOL    HW196802   4.273   6.826   9.151
31635SOL    HW296803   4.402   6.855   9.224
31636SOL     OW96804  13.050   7.067   2.080
31636SOL    HW196805  13.044   6.974   2.105
31636SOL    HW296806  13.102   7.107   2.149
31637SOL     OW96807  11.655  11.243  11.322
31637SOL    HW196808  11.751  11.242  11.316
31637SOL    HW296809  11.636  11.193  11.402
31638SOL     OW96810  13.149   6.743   2.952
31638SOL    HW196811  13.084   6.738   3.022
31638SOL    HW296812  13.218   6.800   2.987
31639SOL     OW96813   6.316   6.613   5.354
31639SOL    HW196814   6.310   6.665   5.435
31639SOL    HW296815   6.321   6.522   5.384
31640SOL     OW96816   1.671   8.887   7.334
31640SOL    HW196817   1.638   8.805   7.299
31640SOL    HW296818   1.621   8.902   7.414
31641SOL     OW96819   1.267  10.737   9.871
31641SOL    HW196820   1.348  10.711   9.915
31641SOL    HW296821   1.238  10.815   9.918
31642SOL     OW96822   8.299  13.901  11.644
31642SOL    HW196823   8.282  13.878  11.735
31642SOL    HW296824   8.261  13.988  11.634
31643SOL     OW96825   3.628  10.421  10.723
31643SOL    HW196826   3.592  10.354  10.781
31643SOL    HW296827   3.642  10.375  10.640
31644SOL     OW96828  11.784   4.857   7.539
31644SOL    HW196829  11.697   4.894   7.532
31644SOL    HW296830  11.823   4.900   7.616
31645SOL     OW96831   9.717   0.155   0.858
31645SOL    HW196832   9.676   0.068   0.865
31645SOL    HW296833   9.700   0.183   0.768
31646SOL     OW96834   3.275   3.084   8.374
31646SOL    HW196835   3.345   3.149   8.369
31646SOL    HW296836   3.198   3.128   8.339
31647SOL     OW96837  12.960   4.890   6.626
31647SOL    HW196838  12.908   4.956   6.671
31647SOL    HW296839  12.896   4.833   6.583
31648SOL     OW96840   1.356   6.316  14.623
31648SOL    HW196841   1.273   6.354  14.653
31648SOL    HW296842   1.355   6.227  14.656
31649SOL     OW96843   7.557  14.411   0.051
31649SOL    HW196844   7.562  14.449   0.139
31649SOL    HW296845   7.633  14.352   0.047
31650SOL     OW96846  10.623   1.401   1.159
31650SOL    HW196847  10.684   1.474   1.157
31650SOL    HW296848  10.615   1.378   1.251
31651SOL     OW96849  14.026   3.444   3.855
31651SOL    HW196850  14.052   3.503   3.785
31651SOL    HW296851  14.090   3.373   3.854
31652SOL     OW96852  14.564   3.784   9.867
31652SOL    HW196853  14.504   3.736   9.924
31652SOL    HW296854  14.603   3.716   9.811
31653SOL     OW96855  14.366   6.955   8.893
31653SOL    HW196856  14.389   7.033   8.944
31653SOL    HW296857  14.334   6.990   8.810
31654SOL     OW96858  10.239   7.963   7.837
31654SOL    HW196859  10.323   7.919   7.856
31654SOL    HW296860  10.252   8.053   7.866
31655SOL     OW96861  10.800   9.591   0.675
31655SOL    HW196862  10.834   9.634   0.597
31655SOL    HW296863  10.875   9.587   0.735
31656SOL     OW96864  12.963   1.131  11.284
31656SOL    HW196865  13.046   1.085  11.297
31656SOL    HW296866  12.985   1.203  11.225
31657SOL     OW96867  11.684   2.165   2.227
31657SOL    HW196868  11.659   2.097   2.164
31657SOL    HW296869  11.777   2.181   2.210
31658SOL     OW96870  12.221   9.724   7.576
31658SOL    HW196871  12.305   9.740   7.532
31658SOL    HW296872  12.179   9.810   7.579
31659SOL     OW96873   0.149   4.471   8.323
31659SOL    HW196874   0.202   4.410   8.374
31659SOL    HW296875   0.122   4.538   8.386
31660SOL     OW96876   6.510   2.761   1.914
31660SOL    HW196877   6.422   2.782   1.946
31660SOL    HW296878   6.550   2.846   1.896
31661SOL     OW96879   0.773   7.858   9.617
31661SOL    HW196880   0.836   7.814   9.561
31661SOL    HW296881   0.688   7.828   9.586
31662SOL     OW96882  11.173   5.689  14.154
31662SOL    HW196883  11.172   5.636  14.234
31662SOL    HW296884  11.216   5.634  14.089
31663SOL     OW96885  10.001   4.204  10.834
31663SOL    HW196886   9.921   4.152  10.832
31663SOL    HW296887   9.980   4.282  10.782
31664SOL     OW96888   0.204  12.943   2.656
31664SOL    HW196889   0.261  12.944   2.733
31664SOL    HW296890   0.261  12.967   2.583
31665SOL     OW96891  10.446   7.923  10.679
31665SOL    HW196892  10.451   7.861  10.606
31665SOL    HW296893  10.538   7.941  10.701
31666SOL     OW96894  10.451   0.296  12.237
31666SOL    HW196895  10.519   0.292  12.170
31666SOL    HW296896  10.475   0.373  12.290
31667SOL     OW96897  12.657   5.613   0.030
31667SOL    HW196898  12.602   5.690   0.018
31667SOL    HW296899  12.744   5.641  14.871
31668SOL     OW96900   3.385   6.985   3.608
31668SOL    HW196901   3.428   6.900   3.606
31668SOL    HW296902   3.340   6.990   3.523
31669SOL     OW96903   3.505  14.450   1.474
31669SOL    HW196904   3.600  14.453   1.464
31669SOL    HW296905   3.491  14.448   1.569
31670SOL     OW96906  12.258  10.922  14.354
31670SOL    HW196907  12.268  10.990  14.421
31670SOL    HW296908  12.220  10.968  14.279
31671SOL     OW96909   8.129  13.147   0.781
31671SOL    HW196910   8.142  13.076   0.718
31671SOL    HW296911   8.035  13.149   0.796
31672SOL     OW96912   3.125   3.747  14.550
31672SOL    HW196913   3.066   3.785  14.485
31672SOL    HW296914   3.137   3.656  14.522
31673SOL     OW96915  12.806  12.424   4.957
31673SOL    HW196916  12.776  12.348   4.907
31673SOL    HW296917  12.773  12.409   5.045
31674SOL     OW96918   2.345   0.551  12.653
31674SOL    HW196919   2.393   0.521  12.576
31674SOL    HW296920   2.412   0.595  12.707
31675SOL     OW96921  14.640  13.686  12.208
31675SOL    HW196922  14.561  13.639  12.184
31675SOL    HW296923  14.706  13.618  12.223
31676SOL     OW96924  13.541   3.338   1.890
31676SOL    HW196925  13.519   3.346   1.983
31676SOL    HW296926  13.549   3.244   1.876
31677SOL     OW96927   8.889   4.746   3.449
31677SOL    HW196928   8.815   4.788   3.492
31677SOL    HW296929   8.957   4.742   3.516
31678SOL     OW96930   7.125  13.202  13.583
31678SOL    HW196931   7.215  13.186  13.613
31678SOL    HW296932   7.091  13.114  13.564
31679SOL     OW96933   6.211   6.389  10.973
31679SOL    HW196934   6.167   6.392  10.887
31679SOL    HW296935   6.182   6.469  11.017
31680SOL     OW96936   7.681   5.085  10.505
31680SOL    HW196937   7.702   5.166  10.552
31680SOL    HW296938   7.597   5.103  10.462
31681SOL     OW96939  11.825  11.179  13.874
31681SOL    HW196940  11.881  11.189  13.951
31681SOL    HW296941  11.797  11.088  13.877
31682SOL     OW96942  10.961   8.079  13.504
31682SOL    HW196943  10.926   7.999  13.465
31682SOL    HW296944  11.044   8.052  13.543
31683SOL     OW96945   0.462   9.307   3.941
31683SOL    HW196946   0.532   9.246   3.917
31683SOL    HW296947   0.445   9.358   3.862
31684SOL     OW96948  10.672   5.975  12.450
31684SOL    HW196949  10.633   6.051  12.493
31684SOL    HW296950  10.702   6.009  12.365
31685SOL     OW96951   8.147   3.228   0.261
31685SOL    HW196952   8.211   3.225   0.333
31685SOL    HW296953   8.094   3.305   0.280
31686SOL     OW96954  11.180  14.498   8.658
31686SOL    HW196955  11.109  14.516   8.597
31686SOL    HW296956  11.157  14.548   8.737
31687SOL     OW96957   9.431  12.755  11.963
31687SOL    HW196958   9.493  12.685  11.985
31687SOL    HW296959   9.384  12.772  12.045
31688SOL     OW96960   0.852   1.385  14.432
31688SOL    HW196961   0.908   1.354  14.361
31688SOL    HW296962   0.817   1.467  14.400
31689SOL     OW96963   0.792   4.750   3.687
31689SOL    HW196964   0.761   4.668   3.649
31689SOL    HW296965   0.717   4.784   3.735
31690SOL     OW96966  13.333  10.907   2.087
31690SOL    HW196967  13.284  10.831   2.056
31690SOL    HW296968  13.421  10.894   2.051
31691SOL     OW96969   5.563   1.561   0.065
31691SOL    HW196970   5.637   1.502   0.080
31691SOL    HW296971   5.553   1.564  14.842
31692SOL     OW96972   2.487   4.482   7.370
31692SOL    HW196973   2.445   4.499   7.454
31692SOL    HW296974   2.416   4.483   7.306
31693SOL     OW96975   2.621  10.279   2.000
31693SOL    HW196976   2.659  10.338   2.064
31693SOL    HW296977   2.674  10.292   1.921
31694SOL     OW96978   5.491   3.422   6.682
31694SOL    HW196979   5.448   3.507   6.678
31694SOL    HW296980   5.421   3.359   6.666
31695SOL     OW96981  12.769   6.843  11.025
31695SOL    HW196982  12.833   6.773  11.039
31695SOL    HW296983  12.711   6.837  11.100
31696SOL     OW96984  11.542  14.861   1.126
31696SOL    HW196985  11.573   0.080   1.120
31696SOL    HW296986  11.454  14.868   1.163
31697SOL     OW96987   1.665  13.427   3.525
31697SOL    HW196988   1.618  13.370   3.465
31697SOL    HW296989   1.751  13.386   3.536
31698SOL     OW96990   8.302   8.241  12.581
31698SOL    HW196991   8.377   8.265  12.636
31698SOL    HW296992   8.324   8.273  12.494
31699SOL     OW96993   8.032  12.660   8.430
31699SOL    HW196994   7.948  12.616   8.445
31699SOL    HW296995   8.088  12.630   8.501
31700SOL     OW96996   5.256   1.228   2.148
31700SOL    HW196997   5.270   1.134   2.161
31700SOL    HW296998   5.219   1.235   2.060
31701SOL     OW96999   8.234   0.569   4.776
31701SOL    HW197000   8.313   0.611   4.810
31701SOL    HW297001   8.229   0.597   4.685
31702SOL     OW97002   4.802  14.030   9.076
31702SOL    HW197003   4.887  14.015   9.035
31702SOL    HW297004   4.763  13.942   9.080
31703SOL     OW97005   4.350   1.283  14.823
31703SOL    HW197006   4.352   1.226   0.028
31703SOL    HW297007   4.322   1.226  14.751
31704SOL     OW97008   5.148   2.668   0.731
31704SOL    HW197009   5.177   2.749   0.688
31704SOL    HW297010   5.213   2.603   0.705
31705SOL     OW97011   7.224   7.553  12.875
31705SOL    HW197012   7.198   7.644  12.893
31705SOL    HW297013   7.260   7.522  12.957
31706SOL     OW97014   7.751   7.135  10.098
31706SOL    HW197015   7.673   7.099  10.056
31706SOL    HW297016   7.717   7.180  10.175
31707SOL     OW97017   3.411   6.530   1.460
31707SOL    HW197018   3.432   6.437   1.470
31707SOL    HW297019   3.495   6.575   1.474
31708SOL     OW97020   9.906   1.484   2.072
31708SOL    HW197021   9.813   1.485   2.049
31708SOL    HW297022   9.919   1.404   2.123
31709SOL     OW97023  11.997   2.631   1.678
31709SOL    HW197024  11.941   2.703   1.648
31709SOL    HW297025  12.022   2.656   1.767
31710SOL     OW97026   6.153   5.230   6.494
31710SOL    HW197027   6.182   5.149   6.536
31710SOL    HW297028   6.205   5.298   6.537
31711SOL     OW97029   9.219   1.635   8.764
31711SOL    HW197030   9.167   1.685   8.827
31711SOL    HW297031   9.303   1.681   8.761
31712SOL     OW97032  12.349  14.044   1.386
31712SOL    HW197033  12.355  14.010   1.297
31712SOL    HW297034  12.259  14.077   1.393
31713SOL     OW97035   6.550   0.894  10.727
31713SOL    HW197036   6.474   0.950  10.743
31713SOL    HW297037   6.555   0.838  10.804
31714SOL     OW97038   1.948   1.814   6.757
31714SOL    HW197039   1.912   1.781   6.840
31714SOL    HW297040   1.938   1.909   6.764
31715SOL     OW97041   6.456   4.937  12.178
31715SOL    HW197042   6.471   5.024  12.141
31715SOL    HW297043   6.361   4.928  12.180
31716SOL     OW97044  10.360   4.831   4.219
31716SOL    HW197045  10.395   4.829   4.308
31716SOL    HW297046  10.268   4.806   4.228
31717SOL     OW97047   0.407   8.823  13.745
31717SOL    HW197048   0.426   8.908  13.786
31717SOL    HW297049   0.410   8.760  13.817
31718SOL     OW97050   4.915   9.633   9.549
31718SOL    HW197051   4.942   9.598   9.463
31718SOL    HW297052   4.865   9.562   9.588
31719SOL     OW97053   1.191  11.041   5.753
31719SOL    HW197054   1.185  11.101   5.679
31719SOL    HW297055   1.235  10.963   5.718
31720SOL     OW97056  13.337  11.357  14.255
31720SOL    HW197057  13.371  11.301  14.325
31720SOL    HW297058  13.274  11.415  14.298
31721SOL     OW97059   0.915  11.725   3.904
31721SOL    HW197060   0.957  11.650   3.861
31721SOL    HW297061   0.973  11.799   3.885
31722SOL     OW97062   3.102  11.236   4.527
31722SOL    HW197063   3.136  11.263   4.442
31722SOL    HW297064   3.061  11.151   4.511
31723SOL     OW97065  12.417   3.337   0.940
31723SOL    HW197066  12.333   3.300   0.968
31723SOL    HW297067  12.482   3.277   0.975
31724SOL     OW97068   7.169   1.219   4.066
31724SOL    HW197069   7.150   1.278   4.139
31724SOL    HW297070   7.111   1.248   3.996
31725SOL     OW97071   8.501   9.291   4.217
31725SOL    HW197072   8.470   9.270   4.305
31725SOL    HW297073   8.424   9.325   4.172
31726SOL     OW97074   9.517   2.731  11.235
31726SOL    HW197075   9.502   2.648  11.281
31726SOL    HW297076   9.431   2.755  11.201
31727SOL     OW97077   1.226   2.954   4.387
31727SOL    HW197078   1.170   3.028   4.412
31727SOL    HW297079   1.221   2.953   4.291
31728SOL     OW97080  10.716   3.389   2.796
31728SOL    HW197081  10.675   3.464   2.837
31728SOL    HW297082  10.648   3.353   2.738
31729SOL     OW97083  12.109   8.891  10.604
31729SOL    HW197084  12.133   8.805  10.569
31729SOL    HW297085  12.017   8.882  10.629
31730SOL     OW97086   3.947   6.724   2.149
31730SOL    HW197087   4.012   6.693   2.213
31730SOL    HW297088   3.937   6.817   2.168
31731SOL     OW97089  11.189   2.529   7.384
31731SOL    HW197090  11.198   2.435   7.368
31731SOL    HW297091  11.184   2.568   7.297
31732SOL     OW97092  10.524   7.471  11.408
31732SOL    HW197093  10.455   7.420  11.451
31732SOL    HW297094  10.554   7.415  11.336
31733SOL     OW97095  10.353  10.659  12.280
31733SOL    HW197096  10.303  10.642  12.200
31733SOL    HW297097  10.321  10.594  12.343
31734SOL     OW97098   5.636   9.710   6.633
31734SOL    HW197099   5.631   9.804   6.649
31734SOL    HW297100   5.548   9.684   6.607
31735SOL     OW97101   3.642  14.497   7.898
31735SOL    HW197102   3.568  14.492   7.958
31735SOL    HW297103   3.603  14.523   7.814
31736SOL     OW97104   2.400   1.281  13.306
31736SOL    HW197105   2.316   1.245  13.277
31736SOL    HW297106   2.464   1.243  13.247
31737SOL     OW97107   2.230   1.386   5.475
31737SOL    HW197108   2.258   1.367   5.565
31737SOL    HW297109   2.308   1.371   5.422
31738SOL     OW97110   0.655   1.727   3.283
31738SOL    HW197111   0.595   1.667   3.238
31738SOL    HW297112   0.621   1.733   3.372
31739SOL     OW97113   5.735   7.346   2.805
31739SOL    HW197114   5.679   7.282   2.848
31739SOL    HW297115   5.713   7.429   2.846
31740SOL     OW97116   6.082   0.685   5.026
31740SOL    HW197117   6.144   0.748   4.988
31740SOL    HW297118   6.133   0.604   5.035
31741SOL     OW97119  10.457   1.917   0.806
31741SOL    HW197120  10.366   1.887   0.805
31741SOL    HW297121  10.461   1.985   0.738
31742SOL     OW97122   2.341  12.719   3.424
31742SOL    HW197123   2.306  12.742   3.338
31742SOL    HW297124   2.419  12.668   3.405
31743SOL     OW97125  14.657  11.443   1.099
31743SOL    HW197126  14.612  11.376   1.049
31743SOL    HW297127  14.724  11.396   1.148
31744SOL     OW97128  10.604   5.832  12.663
31744SOL    HW197129  10.658   5.863  12.591
31744SOL    HW297130  10.620   5.737  12.666
31745SOL     OW97131   0.589  11.101  12.293
31745SOL    HW197132   0.531  11.079  12.366
31745SOL    HW297133   0.553  11.052  12.218
31746SOL     OW97134   2.587   9.977   3.488
31746SOL    HW197135   2.561   9.899   3.440
31746SOL    HW297136   2.517  10.041   3.470
31747SOL     OW97137  13.289   5.308   8.519
31747SOL    HW197138  13.339   5.282   8.441
31747SOL    HW297139  13.306   5.402   8.528
31748SOL     OW97140   5.494   2.644  11.930
31748SOL    HW197141   5.527   2.733  11.938
31748SOL    HW297142   5.495   2.610  12.019
31749SOL     OW97143  13.587  11.197   3.682
31749SOL    HW197144  13.640  11.239   3.749
31749SOL    HW297145  13.503  11.179   3.725
31750SOL     OW97146   3.985   4.377   0.614
31750SOL    HW197147   4.009   4.395   0.705
31750SOL    HW297148   3.890   4.370   0.616
31751SOL     OW97149   5.116   5.025   7.956
31751SOL    HW197150   5.094   5.003   8.047
31751SOL    HW297151   5.031   5.039   7.914
31752SOL     OW97152   4.227   0.701  10.899
31752SOL    HW197153   4.261   0.695  10.988
31752SOL    HW297154   4.304   0.719  10.845
31753SOL     OW97155  14.558  12.834   4.298
31753SOL    HW197156  14.586  12.874   4.216
31753SOL    HW297157  14.637  12.794   4.334
31754SOL     OW97158   4.571  11.170   0.543
31754SOL    HW197159   4.626  11.117   0.601
31754SOL    HW297160   4.550  11.111   0.470
31755SOL     OW97161   4.268   1.315   4.763
31755SOL    HW197162   4.265   1.220   4.756
31755SOL    HW297163   4.352   1.339   4.722
31756SOL     OW97164   7.596   9.442  13.644
31756SOL    HW197165   7.682   9.465  13.609
31756SOL    HW297166   7.604   9.351  13.672
31757SOL     OW97167  11.343   2.421  13.882
31757SOL    HW197168  11.348   2.328  13.901
31757SOL    HW297169  11.250   2.439  13.870
31758SOL     OW97170  14.823   8.529   1.400
31758SOL    HW197171   0.032   8.504   1.355
31758SOL    HW297172  14.780   8.446   1.420
31759SOL     OW97173   9.827  12.793   0.404
31759SOL    HW197174   9.875  12.851   0.462
31759SOL    HW297175   9.882  12.715   0.398
31760SOL     OW97176   4.721   6.333  11.883
31760SOL    HW197177   4.662   6.258  11.878
31760SOL    HW297178   4.764   6.335  11.798
31761SOL     OW97179   4.620  11.534   8.539
31761SOL    HW197180   4.649  11.595   8.607
31761SOL    HW297181   4.699  11.487   8.514
31762SOL     OW97182   8.406   9.419   1.205
31762SOL    HW197183   8.409   9.513   1.186
31762SOL    HW297184   8.319   9.404   1.241
31763SOL     OW97185   6.686   6.816   4.201
31763SOL    HW197186   6.623   6.837   4.132
31763SOL    HW297187   6.683   6.720   4.207
31764SOL     OW97188  11.864   9.603   6.401
31764SOL    HW197189  11.834   9.685   6.361
31764SOL    HW297190  11.823   9.602   6.487
31765SOL     OW97191  11.460  11.670  11.934
31765SOL    HW197192  11.471  11.579  11.960
31765SOL    HW297193  11.381  11.670  11.881
31766SOL     OW97194   9.941   9.614   8.328
31766SOL    HW197195   9.960   9.603   8.235
31766SOL    HW297196  10.020   9.584   8.373
31767SOL     OW97197   2.315   3.845   8.671
31767SOL    HW197198   2.270   3.775   8.625
31767SOL    HW297199   2.268   3.854   8.754
31768SOL     OW97200   0.214  12.386   3.248
31768SOL    HW197201   0.206  12.479   3.269
31768SOL    HW297202   0.264  12.384   3.166
31769SOL     OW97203   7.265   5.541  10.109
31769SOL    HW197204   7.248   5.512  10.199
31769SOL    HW297205   7.305   5.466  10.066
31770SOL     OW97206   6.716   5.660   8.497
31770SOL    HW197207   6.651   5.719   8.458
31770SOL    HW297208   6.721   5.586   8.437
31771SOL     OW97209   2.068   0.242   9.722
31771SOL    HW197210   2.073   0.148   9.740
31771SOL    HW297211   1.978   0.256   9.693
31772SOL     OW97212   7.211   5.351   7.291
31772SOL    HW197213   7.236   5.271   7.336
31772SOL    HW297214   7.116   5.356   7.301
31773SOL     OW97215   9.911   7.190   9.667
31773SOL    HW197216   9.824   7.229   9.674
31773SOL    HW297217   9.929   7.156   9.755
31774SOL     OW97218   0.109   2.430   2.287
31774SOL    HW197219   0.019   2.452   2.310
31774SOL    HW297220   0.133   2.359   2.346
31775SOL     OW97221  13.149  10.556   0.641
31775SOL    HW197222  13.120  10.494   0.708
31775SOL    HW297223  13.242  10.567   0.657
31776SOL     OW97224   4.172   4.133  11.352
31776SOL    HW197225   4.231   4.136  11.276
31776SOL    HW297226   4.183   4.218  11.395
31777SOL     OW97227   9.611   0.686  11.859
31777SOL    HW197228   9.665   0.747  11.809
31777SOL    HW297229   9.580   0.737  11.934
31778SOL     OW97230  12.280   8.144   7.337
31778SOL    HW197231  12.240   8.227   7.364
31778SOL    HW297232  12.286   8.150   7.242
31779SOL     OW97233   8.541   6.622  14.861
31779SOL    HW197234   8.465   6.584   0.033
31779SOL    HW297235   8.542   6.582  14.774
31780SOL     OW97236   4.067   9.389   9.143
31780SOL    HW197237   3.980   9.426   9.130
31780SOL    HW297238   4.077   9.326   9.071
31781SOL     OW97239   3.609  14.203   7.716
31781SOL    HW197240   3.694  14.223   7.755
31781SOL    HW297241   3.612  14.245   7.630
31782SOL     OW97242   6.810   8.285   1.313
31782SOL    HW197243   6.852   8.351   1.258
31782SOL    HW297244   6.877   8.262   1.377
31783SOL     OW97245   1.227   9.918  12.071
31783SOL    HW197246   1.314   9.934  12.035
31783SOL    HW297247   1.203   9.832  12.038
31784SOL     OW97248   8.820  11.701  14.781
31784SOL    HW197249   8.779  11.706  14.695
31784SOL    HW297250   8.828  11.792  14.810
31785SOL     OW97251   2.763  10.978   7.847
31785SOL    HW197252   2.855  10.994   7.825
31785SOL    HW297253   2.716  11.048   7.802
31786SOL     OW97254  10.721  13.583   9.865
31786SOL    HW197255  10.649  13.527   9.894
31786SOL    HW297256  10.787  13.576   9.933
31787SOL     OW97257   9.446  11.097  11.521
31787SOL    HW197258   9.432  11.183  11.561
31787SOL    HW297259   9.465  11.116  11.429
31788SOL     OW97260   6.699  11.880   9.323
31788SOL    HW197261   6.733  11.904   9.409
31788SOL    HW297262   6.605  11.894   9.329
31789SOL     OW97263   5.095  14.479  13.483
31789SOL    HW197264   5.075  14.572  13.499
31789SOL    HW297265   5.018  14.445  13.438
31790SOL     OW97266  13.974  13.367  13.585
31790SOL    HW197267  14.056  13.410  13.607
31790SOL    HW297268  14.000  13.281  13.551
31791SOL     OW97269   1.055   4.634  10.241
31791SOL    HW197270   1.057   4.591  10.155
31791SOL    HW297271   1.096   4.719  10.226
31792SOL     OW97272   0.010  11.832   9.605
31792SOL    HW197273   0.099  11.795   9.607
31792SOL    HW297274  14.852  11.818   9.515
31793SOL     OW97275   6.612  13.909   3.451
31793SOL    HW197276   6.564  13.895   3.532
31793SOL    HW297277   6.564  13.859   3.385
31794SOL     OW97278   5.114  12.305   3.037
31794SOL    HW197279   5.028  12.263   3.033
31794SOL    HW297280   5.116  12.364   2.962
31795SOL     OW97281   4.224   1.603  13.807
31795SOL    HW197282   4.134   1.636  13.808
31795SOL    HW297283   4.220   1.523  13.754
31796SOL     OW97284   6.232   6.770  12.317
31796SOL    HW197285   6.278   6.815  12.245
31796SOL    HW297286   6.173   6.837  12.352
31797SOL     OW97287   9.963   3.073  12.421
31797SOL    HW197288   9.916   3.037  12.497
31797SOL    HW297289  10.055   3.057  12.440
31798SOL     OW97290   6.323   2.938  10.424
31798SOL    HW197291   6.356   3.007  10.482
31798SOL    HW297292   6.385   2.935  10.352
31799SOL     OW97293  11.895   3.816   0.405
31799SOL    HW197294  11.949   3.738   0.393
31799SOL    HW297295  11.902   3.836   0.498
31800SOL     OW97296   1.679   5.225   8.565
31800SOL    HW197297   1.710   5.136   8.586
31800SOL    HW297298   1.665   5.224   8.471
31801SOL     OW97299   3.795  13.962   1.164
31801SOL    HW197300   3.700  13.974   1.171
31801SOL    HW297301   3.828  14.050   1.144
31802SOL     OW97302  12.904   7.116   3.483
31802SOL    HW197303  12.928   7.083   3.570
31802SOL    HW297304  12.869   7.039   3.438
31803SOL     OW97305  13.365   1.601   6.483
31803SOL    HW197306  13.299   1.586   6.551
31803SOL    HW297307  13.316   1.631   6.407
31804SOL     OW97308   9.790   4.966   5.573
31804SOL    HW197309   9.744   5.026   5.631
31804SOL    HW297310   9.817   4.893   5.630
31805SOL     OW97311  12.064   1.394  12.567
31805SOL    HW197312  12.050   1.465  12.505
31805SOL    HW297313  12.038   1.431  12.652
31806SOL     OW97314  10.036   6.808   8.005
31806SOL    HW197315   9.972   6.852   8.061
31806SOL    HW297316  10.007   6.827   7.916
31807SOL     OW97317   9.511   2.513   0.077
31807SOL    HW197318   9.484   2.506  14.857
31807SOL    HW297319   9.550   2.600   0.083
31808SOL     OW97320   0.448   3.295   9.288
31808SOL    HW197321   0.435   3.390   9.286
31808SOL    HW297322   0.362   3.259   9.270
31809SOL     OW97323  13.132   7.335   0.449
31809SOL    HW197324  13.125   7.279   0.371
31809SOL    HW297325  13.195   7.403   0.424
31810SOL     OW97326  13.297  11.524  13.643
31810SOL    HW197327  13.261  11.559  13.562
31810SOL    HW297328  13.223  11.481  13.685
31811SOL     OW97329   3.876   3.053   5.060
31811SOL    HW197330   3.919   3.102   4.990
31811SOL    HW297331   3.842   2.974   5.016
31812SOL     OW97332   8.210   5.854   6.380
31812SOL    HW197333   8.125   5.838   6.340
31812SOL    HW297334   8.264   5.780   6.353
31813SOL     OW97335  12.834   1.536  11.786
31813SOL    HW197336  12.777   1.579  11.849
31813SOL    HW297337  12.911   1.593  11.780
31814SOL     OW97338   3.160  11.165   4.776
31814SOL    HW197339   3.121  11.186   4.691
31814SOL    HW297340   3.163  11.249   4.822
31815SOL     OW97341   8.754   7.539   2.190
31815SOL    HW197342   8.783   7.565   2.277
31815SOL    HW297343   8.673   7.491   2.205
31816SOL     OW97344   6.209   5.118  14.710
31816SOL    HW197345   6.266   5.123  14.787
31816SOL    HW297346   6.198   5.025  14.694
31817SOL     OW97347   4.814  14.062   9.358
31817SOL    HW197348   4.765  13.987   9.392
31817SOL    HW297349   4.833  14.039   9.267
31818SOL     OW97350  12.316   2.023   8.314
31818SOL    HW197351  12.338   1.960   8.245
31818SOL    HW297352  12.370   2.100   8.295
31819SOL     OW97353   0.326   7.501   4.707
31819SOL    HW197354   0.271   7.527   4.781
31819SOL    HW297355   0.278   7.429   4.665
31820SOL     OW97356  12.207   4.005   1.215
31820SOL    HW197357  12.247   3.983   1.131
31820SOL    HW297358  12.244   4.090   1.238
31821SOL     OW97359   5.222  11.267  14.671
31821SOL    HW197360   5.277  11.194  14.699
31821SOL    HW297361   5.155  11.273  14.739
31822SOL     OW97362   0.140  14.002   5.907
31822SOL    HW197363   0.182  13.943   5.969
31822SOL    HW297364   0.050  14.011   5.940
31823SOL     OW97365   2.155   3.661  10.037
31823SOL    HW197366   2.134   3.746   9.998
31823SOL    HW297367   2.184   3.682  10.126
31824SOL     OW97368  12.592  14.253   7.236
31824SOL    HW197369  12.595  14.248   7.141
31824SOL    HW297370  12.601  14.162   7.265
31825SOL     OW97371  13.751   3.553  12.641
31825SOL    HW197372  13.837   3.563  12.682
31825SOL    HW297373  13.690   3.596  12.701
31826SOL     OW97374  10.907   7.728   6.139
31826SOL    HW197375  10.956   7.802   6.174
31826SOL    HW297376  10.815   7.756   6.142
31827SOL     OW97377  14.677  12.296   5.684
31827SOL    HW197378  14.702  12.257   5.768
31827SOL    HW297379  14.711  12.235   5.618
31828SOL     OW97380  11.079   1.513   9.744
31828SOL    HW197381  11.132   1.503   9.664
31828SOL    HW297382  11.045   1.425   9.761
31829SOL     OW97383   2.658   1.216   2.925
31829SOL    HW197384   2.616   1.217   2.839
31829SOL    HW297385   2.716   1.292   2.924
31830SOL     OW97386  14.476   6.473   6.188
31830SOL    HW197387  14.415   6.520   6.131
31830SOL    HW297388  14.520   6.542   6.237
31831SOL     OW97389   8.368  11.841   7.439
31831SOL    HW197390   8.439  11.886   7.486
31831SOL    HW297391   8.333  11.779   7.502
31832SOL     OW97392  13.970   1.500   1.643
31832SOL    HW197393  14.058   1.528   1.618
31832SOL    HW297394  13.929   1.578   1.680
31833SOL     OW97395   8.003   9.960   3.565
31833SOL    HW197396   7.968  10.034   3.615
31833SOL    HW297397   7.925   9.912   3.536
31834SOL     OW97398   4.239   4.572  14.323
31834SOL    HW197399   4.306   4.554  14.389
31834SOL    HW297400   4.173   4.504  14.337
31835SOL     OW97401  11.216   3.228   0.416
31835SOL    HW197402  11.284   3.186   0.468
31835SOL    HW297403  11.263   3.293   0.363
31836SOL     OW97404   6.774   3.326   3.824
31836SOL    HW197405   6.690   3.318   3.870
31836SOL    HW297406   6.775   3.415   3.789
31837SOL     OW97407   1.804   3.697  10.003
31837SOL    HW197408   1.752   3.638  10.058
31837SOL    HW297409   1.781   3.673   9.914
31838SOL     OW97410  10.611  10.769   1.156
31838SOL    HW197411  10.560  10.809   1.085
31838SOL    HW297412  10.695  10.815   1.155
31839SOL     OW97413   0.108  10.801   5.379
31839SOL    HW197414   0.200  10.814   5.403
31839SOL    HW297415   0.074  10.889   5.364
31840SOL     OW97416  12.439  14.821   3.247
31840SOL    HW197417  12.504   0.010   3.212
31840SOL    HW297418  12.474  14.794   3.332
31841SOL     OW97419   5.136  13.662  14.426
31841SOL    HW197420   5.149  13.606  14.350
31841SOL    HW297421   5.044  13.689  14.421
31842SOL     OW97422   2.290   2.752   2.173
31842SOL    HW197423   2.230   2.689   2.133
31842SOL    HW297424   2.288   2.827   2.115
31843SOL     OW97425   1.630   2.722   3.307
31843SOL    HW197426   1.636   2.629   3.289
31843SOL    HW297427   1.705   2.761   3.261
31844SOL     OW97428   5.774   7.750  12.453
31844SOL    HW197429   5.700   7.810  12.440
31844SOL    HW297430   5.753   7.703  12.533
31845SOL     OW97431   7.671   4.234   1.417
31845SOL    HW197432   7.603   4.167   1.404
31845SOL    HW297433   7.624   4.309   1.454
31846SOL     OW97434   8.357  13.610   4.320
31846SOL    HW197435   8.437  13.609   4.268
31846SOL    HW297436   8.301  13.673   4.275
31847SOL     OW97437   4.100   3.748  12.709
31847SOL    HW197438   4.058   3.800  12.778
31847SOL    HW297439   4.180   3.796  12.688
31848SOL     OW97440   7.540   0.194  10.016
31848SOL    HW197441   7.523   0.280  10.055
31848SOL    HW297442   7.634   0.194   9.998
31849SOL     OW97443   6.094   8.678  12.801
31849SOL    HW197444   6.015   8.657  12.852
31849SOL    HW297445   6.097   8.774  12.801
31850SOL     OW97446   6.017  10.326  10.597
31850SOL    HW197447   6.056  10.249  10.638
31850SOL    HW297448   6.027  10.395  10.663
31851SOL     OW97449   8.866   2.359  10.077
31851SOL    HW197450   8.953   2.341  10.040
31851SOL    HW297451   8.819   2.403  10.006
31852SOL     OW97452   6.461   6.559   7.879
31852SOL    HW197453   6.509   6.634   7.915
31852SOL    HW297454   6.461   6.495   7.950
31853SOL     OW97455   6.001  12.659   3.511
31853SOL    HW197456   6.020  12.674   3.418
31853SOL    HW297457   6.076  12.698   3.556
31854SOL     OW97458   3.529   0.250   5.618
31854SOL    HW197459   3.515   0.310   5.692
31854SOL    HW297460   3.444   0.209   5.604
31855SOL     OW97461   5.316  10.993  10.489
31855SOL    HW197462   5.329  10.950  10.404
31855SOL    HW297463   5.403  10.991  10.530
31856SOL     OW97464  14.062   4.336   1.088
31856SOL    HW197465  14.053   4.379   1.173
31856SOL    HW297466  14.155   4.344   1.066
31857SOL     OW97467  12.445   4.967   9.134
31857SOL    HW197468  12.383   4.916   9.185
31857SOL    HW297469  12.393   5.039   9.099
31858SOL     OW97470   3.832  13.359  11.674
31858SOL    HW197471   3.814  13.266  11.667
31858SOL    HW297472   3.905  13.365  11.735
31859SOL     OW97473   2.256   0.237   0.872
31859SOL    HW197474   2.341   0.235   0.828
31859SOL    HW297475   2.275   0.272   0.959
31860SOL     OW97476  14.756   0.842   5.271
31860SOL    HW197477  14.841   0.885   5.272
31860SOL    HW297478  14.776   0.749   5.266
31861SOL     OW97479   9.143   9.857   6.915
31861SOL    HW197480   9.077   9.830   6.978
31861SOL    HW297481   9.211   9.790   6.922
31862SOL     OW97482   5.543  12.662   3.573
31862SOL    HW197483   5.538  12.567   3.559
31862SOL    HW297484   5.631  12.687   3.544
31863SOL     OW97485   0.679  10.564   4.965
31863SOL    HW197486   0.605  10.576   5.024
31863SOL    HW297487   0.664  10.627   4.894
31864SOL     OW97488   9.331   4.347   7.765
31864SOL    HW197489   9.274   4.273   7.786
31864SOL    HW297490   9.271   4.419   7.746
31865SOL     OW97491   6.958  14.686  14.107
31865SOL    HW197492   7.007  14.759  14.144
31865SOL    HW297493   7.024  14.633  14.062
31866SOL     OW97494   2.989   1.941   7.587
31866SOL    HW197495   3.021   2.031   7.593
31866SOL    HW297496   3.067   1.886   7.593
31867SOL     OW97497   8.587   1.593   4.716
31867SOL    HW197498   8.565   1.514   4.666
31867SOL    HW297499   8.682   1.590   4.725
31868SOL     OW97500  12.769   3.909  10.047
31868SOL    HW197501  12.708   3.835  10.037
31868SOL    HW297502  12.822   3.885  10.123
31869SOL     OW97503   1.826   7.203   0.748
31869SOL    HW197504   1.877   7.229   0.825
31869SOL    HW297505   1.795   7.114   0.768
31870SOL     OW97506   7.061  12.187   4.411
31870SOL    HW197507   7.055  12.190   4.506
31870SOL    HW297508   6.993  12.248   4.381
31871SOL     OW97509  11.822   4.365   3.565
31871SOL    HW197510  11.788   4.454   3.573
31871SOL    HW297511  11.746   4.312   3.539
31872SOL     OW97512  13.958   9.051   2.358
31872SOL    HW197513  13.986   9.088   2.441
31872SOL    HW297514  14.023   9.082   2.295
31873SOL     OW97515  13.320   3.997   2.594
31873SOL    HW197516  13.302   3.999   2.500
31873SOL    HW297517  13.317   3.904   2.617
31874SOL     OW97518   5.251  14.810  11.905
31874SOL    HW197519   5.182  14.843  11.847
31874SOL    HW297520   5.317  14.775  11.845
31875SOL     OW97521   2.290  14.398   2.603
31875SOL    HW197522   2.237  14.472   2.630
31875SOL    HW297523   2.267  14.383   2.511
31876SOL     OW97524   4.982  11.975   3.680
31876SOL    HW197525   5.018  12.044   3.736
31876SOL    HW297526   4.915  11.933   3.735
31877SOL     OW97527   7.297  11.705  10.189
31877SOL    HW197528   7.232  11.651  10.235
31877SOL    HW297529   7.317  11.776  10.251
31878SOL     OW97530   0.790   0.452   4.304
31878SOL    HW197531   0.747   0.394   4.367
31878SOL    HW297532   0.747   0.537   4.315
31879SOL     OW97533   7.466   6.289   3.139
31879SOL    HW197534   7.403   6.254   3.202
31879SOL    HW297535   7.524   6.344   3.190
31880SOL     OW97536   8.569   4.331   0.489
31880SOL    HW197537   8.485   4.325   0.443
31880SOL    HW297538   8.557   4.402   0.552
31881SOL     OW97539   2.732  13.930   3.217
31881SOL    HW197540   2.787  13.869   3.169
31881SOL    HW297541   2.790  14.002   3.241
31882SOL     OW97542  11.253   4.981  12.239
31882SOL    HW197543  11.173   4.954  12.195
31882SOL    HW297544  11.288   4.900  12.276
31883SOL     OW97545   9.493   1.479   6.993
31883SOL    HW197546   9.486   1.522   6.908
31883SOL    HW297547   9.581   1.501   7.024
31884SOL     OW97548   1.692   3.924  12.055
31884SOL    HW197549   1.721   3.835  12.074
31884SOL    HW297550   1.772   3.973  12.039
31885SOL     OW97551  14.831  11.353   7.517
31885SOL    HW197552  14.768  11.341   7.445
31885SOL    HW297553  14.868  11.439   7.502
31886SOL     OW97554  12.600   8.712   3.466
31886SOL    HW197555  12.599   8.781   3.533
31886SOL    HW297556  12.576   8.632   3.513
31887SOL     OW97557   9.011   4.759   3.735
31887SOL    HW197558   9.105   4.750   3.750
31887SOL    HW297559   8.975   4.778   3.822
31888SOL     OW97560  12.809  10.603   0.025
31888SOL    HW197561  12.889  10.587  14.845
31888SOL    HW297562  12.767  10.517   0.030
31889SOL     OW97563   9.690   2.124  10.563
31889SOL    HW197564   9.658   2.065  10.494
31889SOL    HW297565   9.741   2.067  10.621
31890SOL     OW97566  11.382   6.013   9.838
31890SOL    HW197567  11.330   6.086   9.870
31890SOL    HW297568  11.452   6.055   9.787
31891SOL     OW97569   4.820  12.617   7.217
31891SOL    HW197570   4.905  12.628   7.174
31891SOL    HW297571   4.833  12.543   7.277
31892SOL     OW97572  14.330   1.356  11.208
31892SOL    HW197573  14.376   1.347  11.291
31892SOL    HW297574  14.277   1.277  11.200
31893SOL     OW97575   0.857   5.808  12.631
31893SOL    HW197576   0.892   5.809  12.720
31893SOL    HW297577   0.806   5.888  12.624
31894SOL     OW97578  14.046   5.290  12.165
31894SOL    HW197579  13.962   5.281  12.120
31894SOL    HW297580  14.101   5.221  12.128
31895SOL     OW97581   9.205  12.018  14.777
31895SOL    HW197582   9.271  11.956  14.747
31895SOL    HW297583   9.232  12.102  14.739
31896SOL     OW97584  13.201   3.855  11.544
31896SOL    HW197585  13.234   3.853  11.634
31896SOL    HW297586  13.127   3.915  11.547
31897SOL     OW97587  14.808   2.045   7.164
31897SOL    HW197588  14.797   2.140   7.168
31897SOL    HW297589   0.022   2.032   7.124
31898SOL     OW97590   0.742   5.699   4.061
31898SOL    HW197591   0.654   5.663   4.069
31898SOL    HW297592   0.743   5.740   3.974
31899SOL     OW97593   1.339   2.857  13.522
31899SOL    HW197594   1.265   2.796  13.524
31899SOL    HW297595   1.368   2.856  13.430
31900SOL     OW97596   0.769   8.335  11.013
31900SOL    HW197597   0.779   8.412  10.957
31900SOL    HW297598   0.780   8.261  10.954
31901SOL     OW97599   5.318  12.122   8.385
31901SOL    HW197600   5.298  12.040   8.340
31901SOL    HW297601   5.233  12.161   8.402
31902SOL     OW97602   5.112   8.456  12.702
31902SOL    HW197603   5.133   8.401  12.778
31902SOL    HW297604   5.091   8.393  12.633
31903SOL     OW97605   0.748   2.689  10.492
31903SOL    HW197606   0.694   2.688  10.413
31903SOL    HW297607   0.837   2.701  10.460
31904SOL     OW97608  13.076  11.180   0.768
31904SOL    HW197609  13.139  11.142   0.830
31904SOL    HW297610  12.995  11.130   0.782
31905SOL     OW97611   6.803   0.075   9.014
31905SOL    HW197612   6.894   0.078   8.985
31905SOL    HW297613   6.757   0.137   8.958
31906SOL     OW97614  14.274  10.879   7.827
31906SOL    HW197615  14.351  10.868   7.771
31906SOL    HW297616  14.206  10.910   7.768
31907SOL     OW97617   7.704   7.592   0.856
31907SOL    HW197618   7.747   7.588   0.941
31907SOL    HW297619   7.725   7.679   0.823
31908SOL     OW97620  12.230  11.874   2.546
31908SOL    HW197621  12.257  11.827   2.467
31908SOL    HW297622  12.136  11.885   2.536
31909SOL     OW97623   2.981   8.354  12.963
31909SOL    HW197624   2.923   8.326  12.892
31909SOL    HW297625   2.921   8.386  13.031
31910SOL     OW97626   9.299  12.310   5.564
31910SOL    HW197627   9.216  12.265   5.550
31910SOL    HW297628   9.296  12.385   5.505
31911SOL     OW97629   5.902   8.008   2.148
31911SOL    HW197630   5.836   8.077   2.149
31911SOL    HW297631   5.872   7.945   2.213
31912SOL     OW97632  14.571   6.301   4.089
31912SOL    HW197633  14.667   6.311   4.091
31912SOL    HW297634  14.554   6.225   4.145
31913SOL     OW97635   9.636   9.337   3.382
31913SOL    HW197636   9.581   9.318   3.305
31913SOL    HW297637   9.593   9.291   3.454
31914SOL     OW97638   2.913  12.680   0.661
31914SOL    HW197639   2.862  12.737   0.603
31914SOL    HW297640   2.959  12.741   0.719
31915SOL     OW97641  12.593   9.061  10.196
31915SOL    HW197642  12.590   9.106  10.280
31915SOL    HW297643  12.509   9.082  10.155
31916SOL     OW97644   3.120  11.240  12.535
31916SOL    HW197645   3.114  11.333  12.554
31916SOL    HW297646   3.182  11.233  12.462
31917SOL     OW97647  14.851   2.345   5.368
31917SOL    HW197648   0.028   2.269   5.398
31917SOL    HW297649   0.044   2.416   5.366
31918SOL     OW97650   3.768  14.841   9.175
31918SOL    HW197651   3.704  14.870   9.110
31918SOL    HW297652   3.841   0.031   9.166
31919SOL     OW97653  13.738   3.412   3.274
31919SOL    HW197654  13.728   3.505   3.252
31919SOL    HW297655  13.682   3.367   3.210
31920SOL     OW97656   4.260  12.913   2.778
31920SOL    HW197657   4.329  12.932   2.841
31920SOL    HW297658   4.191  12.872   2.830
31921SOL     OW97659  10.931  13.538   0.146
31921SOL    HW197660  10.909  13.565   0.057
31921SOL    HW297661  10.847  13.512   0.185
31922SOL     OW97662   2.136   6.595   0.441
31922SOL    HW197663   2.059   6.592   0.385
31922SOL    HW297664   2.183   6.673   0.413
31923SOL     OW97665  10.689   9.188   5.760
31923SOL    HW197666  10.709   9.270   5.715
31923SOL    HW297667  10.642   9.136   5.694
31924SOL     OW97668   3.939   8.942   2.913
31924SOL    HW197669   3.965   8.985   2.995
31924SOL    HW297670   3.859   8.988   2.887
31925SOL     OW97671   8.806   3.272   0.373
31925SOL    HW197672   8.748   3.345   0.352
31925SOL    HW297673   8.803   3.216   0.296
31926SOL     OW97674   9.689  12.334   3.144
31926SOL    HW197675   9.782  12.353   3.153
31926SOL    HW297676   9.681  12.299   3.054
31927SOL     OW97677   1.367   9.843  10.475
31927SOL    HW197678   1.391   9.834  10.567
31927SOL    HW297679   1.352   9.937  10.464
31928SOL     OW97680   7.425  12.213   6.163
31928SOL    HW197681   7.343  12.170   6.183
31928SOL    HW297682   7.402  12.281   6.099
31929SOL     OW97683  14.492   6.476   0.772
31929SOL    HW197684  14.459   6.403   0.825
31929SOL    HW297685  14.471   6.554   0.823
31930SOL     OW97686  10.989   2.125  10.905
31930SOL    HW197687  10.954   2.088  10.824
31930SOL    HW297688  11.083   2.107  10.901
31931SOL     OW97689   8.104  12.182  13.736
31931SOL    HW197690   8.013  12.212  13.729
31931SOL    HW297691   8.148  12.249  13.789
31932SOL     OW97692   2.337   9.761   3.986
31932SOL    HW197693   2.291   9.788   4.066
31932SOL    HW297694   2.270   9.715   3.935
31933SOL     OW97695   4.970   7.414   0.063
31933SOL    HW197696   4.989   7.376  14.849
31933SOL    HW297697   4.885   7.377   0.087
31934SOL     OW97698   4.446   2.091   9.596
31934SOL    HW197699   4.356   2.117   9.581
31934SOL    HW297700   4.497   2.171   9.586
31935SOL     OW97701   9.768   9.314   7.118
31935SOL    HW197702   9.678   9.283   7.102
31935SOL    HW297703   9.823   9.240   7.093
31936SOL     OW97704   7.126   2.584   9.203
31936SOL    HW197705   7.105   2.610   9.113
31936SOL    HW297706   7.146   2.666   9.248
31937SOL     OW97707  12.240  12.051   9.295
31937SOL    HW197708  12.320  12.071   9.344
31937SOL    HW297709  12.212  11.966   9.330
31938SOL     OW97710   1.285   2.557   5.229
31938SOL    HW197711   1.276   2.474   5.275
31938SOL    HW297712   1.313   2.619   5.296
31939SOL     OW97713   8.134   6.506  12.942
31939SOL    HW197714   8.112   6.581  12.996
31939SOL    HW297715   8.068   6.506  12.873
31940SOL     OW97716   2.764   3.495   0.517
31940SOL    HW197717   2.855   3.495   0.485
31940SOL    HW297718   2.714   3.532   0.445
31941SOL     OW97719   9.721   0.160   7.172
31941SOL    HW197720   9.689   0.071   7.186
31941SOL    HW297721   9.729   0.169   7.077
31942SOL     OW97722   3.365   4.987   7.857
31942SOL    HW197723   3.379   4.892   7.858
31942SOL    HW297724   3.411   5.017   7.779
31943SOL     OW97725  11.858   5.978   4.333
31943SOL    HW197726  11.911   5.946   4.260
31943SOL    HW297727  11.819   6.059   4.300
31944SOL     OW97728   8.630   9.628   2.365
31944SOL    HW197729   8.659   9.699   2.309
31944SOL    HW297730   8.574   9.574   2.310
31945SOL     OW97731   4.810   9.726   4.916
31945SOL    HW197732   4.879   9.784   4.950
31945SOL    HW297733   4.732   9.752   4.964
31946SOL     OW97734   0.820   0.917   4.678
31946SOL    HW197735   0.824   0.844   4.740
31946SOL    HW297736   0.899   0.907   4.624
31947SOL     OW97737  13.307  11.426  11.478
31947SOL    HW197738  13.336  11.491  11.413
31947SOL    HW297739  13.386  11.376  11.499
31948SOL     OW97740   4.866   9.414   5.937
31948SOL    HW197741   4.885   9.496   5.892
31948SOL    HW297742   4.882   9.433   6.030
31949SOL     OW97743   8.841  10.750   4.582
31949SOL    HW197744   8.772  10.685   4.592
31949SOL    HW297745   8.849  10.791   4.669
31950SOL     OW97746   8.844  10.034  14.842
31950SOL    HW197747   8.867  10.035   0.064
31950SOL    HW297748   8.879   9.950  14.810
31951SOL     OW97749   1.638   9.234   9.139
31951SOL    HW197750   1.675   9.149   9.118
31951SOL    HW297751   1.573   9.250   9.070
31952SOL     OW97752  13.167   1.229   9.844
31952SOL    HW197753  13.200   1.212   9.756
31952SOL    HW297754  13.176   1.323   9.856
31953SOL     OW97755   2.203  13.063   3.216
31953SOL    HW197756   2.184  13.146   3.173
31953SOL    HW297757   2.291  13.074   3.252
31954SOL     OW97758   6.153   2.753  10.349
31954SOL    HW197759   6.197   2.827  10.392
31954SOL    HW297760   6.139   2.689  10.419
31955SOL     OW97761  13.917   0.289   1.599
31955SOL    HW197762  13.988   0.350   1.578
31955SOL    HW297763  13.951   0.203   1.574
31956SOL     OW97764   0.544   8.768   7.806
31956SOL    HW197765   0.599   8.707   7.856
31956SOL    HW297766   0.470   8.786   7.865
31957SOL     OW97767   7.192   8.413   8.030
31957SOL    HW197768   7.119   8.358   8.002
31957SOL    HW297769   7.231   8.365   8.104
31958SOL     OW97770   9.059  10.651   9.083
31958SOL    HW197771   9.117  10.619   9.014
31958SOL    HW297772   9.103  10.628   9.165
31959SOL     OW97773   3.065   5.657  14.542
31959SOL    HW197774   3.049   5.723  14.475
31959SOL    HW297775   2.980   5.646  14.586
31960SOL     OW97776   8.781   9.203  14.836
31960SOL    HW197777   8.737   9.166  14.760
31960SOL    HW297778   8.841   9.269  14.800
31961SOL     OW97779  11.859   5.823  11.660
31961SOL    HW197780  11.922   5.888  11.694
31961SOL    HW297781  11.777   5.844  11.705
31962SOL     OW97782   4.993  14.471   5.406
31962SOL    HW197783   5.043  14.410   5.461
31962SOL    HW297784   5.055  14.541   5.385
31963SOL     OW97785   4.064   2.805   7.688
31963SOL    HW197786   4.147   2.766   7.659
31963SOL    HW297787   4.085   2.897   7.702
31964SOL     OW97788   6.633  11.282  10.012
31964SOL    HW197789   6.665  11.194   9.994
31964SOL    HW297790   6.585  11.275  10.094
31965SOL     OW97791   6.403  11.880   0.695
31965SOL    HW197792   6.317  11.887   0.655
31965SOL    HW297793   6.463  11.916   0.629
31966SOL     OW97794   4.446  12.549   1.847
31966SOL    HW197795   4.353  12.535   1.861
31966SOL    HW297796   4.480  12.463   1.821
31967SOL     OW97797   2.126   2.270   7.917
31967SOL    HW197798   2.108   2.357   7.951
31967SOL    HW297799   2.097   2.211   7.987
31968SOL     OW97800   8.154   0.800  14.147
31968SOL    HW197801   8.164   0.742  14.222
31968SOL    HW297802   8.244   0.827  14.127
31969SOL     OW97803   1.362   7.864   8.765
31969SOL    HW197804   1.308   7.855   8.687
31969SOL    HW297805   1.452   7.862   8.733
31970SOL     OW97806   9.369  12.341  12.860
31970SOL    HW197807   9.331  12.254  12.868
31970SOL    HW297808   9.453  12.326  12.815
31971SOL     OW97809  12.153   8.403  12.292
31971SOL    HW197810  12.089   8.437  12.230
31971SOL    HW297811  12.238   8.429  12.255
31972SOL     OW97812   1.410  13.812   0.877
31972SOL    HW197813   1.401  13.889   0.933
31972SOL    HW297814   1.379  13.739   0.930
31973SOL     OW97815   3.717   6.207   4.823
31973SOL    HW197816   3.632   6.222   4.783
31973SOL    HW297817   3.738   6.116   4.800
31974SOL     OW97818   3.912   4.157   7.999
31974SOL    HW197819   3.930   4.202   7.917
31974SOL    HW297820   3.981   4.186   8.059
31975SOL     OW97821   3.585   7.971   8.290
31975SOL    HW197822   3.623   8.022   8.362
31975SOL    HW297823   3.595   7.880   8.318
31976SOL     OW97824  12.403   0.416  12.839
31976SOL    HW197825  12.353   0.334  12.833
31976SOL    HW297826  12.338   0.484  12.822
31977SOL     OW97827   1.482   6.143   0.957
31977SOL    HW197828   1.533   6.163   1.035
31977SOL    HW297829   1.391   6.159   0.982
31978SOL     OW97830   7.971  13.899   6.077
31978SOL    HW197831   8.051  13.892   6.127
31978SOL    HW297832   7.984  13.842   6.001
31979SOL     OW97833   0.090   8.456  11.072
31979SOL    HW197834   0.126   8.369  11.089
31979SOL    HW297835   0.011   8.461  11.126
31980SOL     OW97836   9.943  11.072  11.461
31980SOL    HW197837   9.994  11.054  11.540
31980SOL    HW297838   9.986  11.021  11.393
31981SOL     OW97839  13.120   6.143   1.422
31981SOL    HW197840  13.154   6.055   1.407
31981SOL    HW297841  13.181   6.200   1.374
31982SOL     OW97842   2.722   3.070   5.090
31982SOL    HW197843   2.636   3.070   5.132
31982SOL    HW297844   2.705   3.041   5.000
31983SOL     OW97845   9.906  13.771   4.721
31983SOL    HW197846   9.923  13.850   4.669
31983SOL    HW297847   9.992  13.734   4.738
31984SOL     OW97848   0.407   4.048  14.471
31984SOL    HW197849   0.446   4.129  14.438
31984SOL    HW297850   0.342   4.078  14.535
31985SOL     OW97851   7.243  10.286   1.713
31985SOL    HW197852   7.235  10.226   1.787
31985SOL    HW297853   7.196  10.244   1.641
31986SOL     OW97854   4.203   9.881   0.245
31986SOL    HW197855   4.282   9.903   0.296
31986SOL    HW297856   4.237   9.851   0.161
31987SOL     OW97857   5.563   9.226   9.095
31987SOL    HW197858   5.477   9.264   9.110
31987SOL    HW297859   5.612   9.244   9.175
31988SOL     OW97860   6.050   5.332  11.421
31988SOL    HW197861   6.103   5.366  11.494
31988SOL    HW297862   6.072   5.389  11.348
31989SOL     OW97863   1.075   6.869   9.781
31989SOL    HW197864   1.122   6.856   9.864
31989SOL    HW297865   0.998   6.813   9.788
31990SOL     OW97866   4.307   7.604  11.656
31990SOL    HW197867   4.222   7.646  11.651
31990SOL    HW297868   4.370   7.676  11.649
31991SOL     OW97869  12.058  12.221   7.644
31991SOL    HW197870  11.976  12.213   7.596
31991SOL    HW297871  12.036  12.272   7.722
31992SOL     OW97872  12.707   1.108  13.454
31992SOL    HW197873  12.668   1.171  13.514
31992SOL    HW297874  12.795   1.142  13.437
31993SOL     OW97875  12.233   8.255   8.214
31993SOL    HW197876  12.288   8.331   8.232
31993SOL    HW297877  12.238   8.244   8.119
31994SOL     OW97878   6.093  11.726  12.747
31994SOL    HW197879   6.068  11.789  12.679
31994SOL    HW297880   6.123  11.649  12.698
31995SOL     OW97881  12.769  10.396   4.663
31995SOL    HW197882  12.842  10.372   4.606
31995SOL    HW297883  12.702  10.329   4.648
31996SOL     OW97884  12.349   4.511  14.675
31996SOL    HW197885  12.387   4.433  14.632
31996SOL    HW297886  12.299   4.554  14.605
31997SOL     OW97887  14.045  11.437  11.282
31997SOL    HW197888  14.002  11.401  11.205
31997SOL    HW297889  13.980  11.495  11.321
31998SOL     OW97890   8.784   2.924   0.428
31998SOL    HW197891   8.728   2.960   0.360
31998SOL    HW297892   8.798   2.997   0.489
31999SOL     OW97893   8.196  13.693   8.258
31999SOL    HW197894   8.201  13.785   8.281
31999SOL    HW297895   8.102  13.673   8.258
32000SOL     OW97896   8.012   5.263   2.757
32000SOL    HW197897   7.962   5.216   2.691
32000SOL    HW297898   8.101   5.229   2.749
32001SOL     OW97899   0.210  10.608   3.541
32001SOL    HW197900   0.169  10.637   3.460
32001SOL    HW297901   0.303  10.627   3.528
32002SOL     OW97902   1.203  13.501   9.122
32002SOL    HW197903   1.201  13.545   9.207
32002SOL    HW297904   1.121  13.525   9.079
32003SOL     OW97905  13.939  10.842  11.839
32003SOL    HW197906  14.006  10.845  11.907
32003SOL    HW297907  13.954  10.920  11.787
32004SOL     OW97908  14.383   7.293   3.156
32004SOL    HW197909  14.466   7.245   3.159
32004SOL    HW297910  14.405   7.378   3.120
32005SOL     OW97911   7.834   5.870  14.438
32005SOL    HW197912   7.925   5.859  14.411
32005SOL    HW297913   7.791   5.788  14.412
32006SOL     OW97914   8.843   9.040   5.380
32006SOL    HW197915   8.763   9.093   5.379
32006SOL    HW297916   8.862   9.026   5.473
32007SOL     OW97917  12.569  12.990  13.817
32007SOL    HW197918  12.488  13.021  13.776
32007SOL    HW297919  12.636  13.052  13.788
32008SOL     OW97920  13.922   9.000  10.568
32008SOL    HW197921  13.835   8.996  10.609
32008SOL    HW297922  13.921   9.082  10.518
32009SOL     OW97923   4.172  13.687   9.395
32009SOL    HW197924   4.108  13.676   9.466
32009SOL    HW297925   4.257  13.683   9.439
32010SOL     OW97926   3.364   2.319   2.719
32010SOL    HW197927   3.323   2.372   2.787
32010SOL    HW297928   3.346   2.228   2.745
32011SOL     OW97929   6.840  10.056   1.121
32011SOL    HW197930   6.839   9.968   1.158
32011SOL    HW297931   6.810  10.112   1.193
32012SOL     OW97932   4.111   6.566   8.785
32012SOL    HW197933   4.155   6.641   8.747
32012SOL    HW297934   4.060   6.529   8.713
32013SOL     OW97935   2.152   5.619   0.031
32013SOL    HW197936   2.131   5.695   0.085
32013SOL    HW297937   2.088   5.622  14.831
32014SOL     OW97938   5.526   2.326   2.323
32014SOL    HW197939   5.539   2.331   2.228
32014SOL    HW297940   5.435   2.349   2.337
32015SOL     OW97941   7.165   5.213   1.457
32015SOL    HW197942   7.238   5.162   1.422
32015SOL    HW297943   7.126   5.157   1.524
32016SOL     OW97944   3.035   0.906  12.336
32016SOL    HW197945   3.053   0.991  12.296
32016SOL    HW297946   2.958   0.873  12.290
32017SOL     OW97947   5.839   3.047  11.257
32017SOL    HW197948   5.846   2.975  11.194
32017SOL    HW297949   5.745   3.064  11.263
32018SOL     OW97950  12.817   4.284  13.658
32018SOL    HW197951  12.815   4.267  13.563
32018SOL    HW297952  12.897   4.240  13.688
32019SOL     OW97953   2.189   7.031   4.612
32019SOL    HW197954   2.125   6.960   4.606
32019SOL    HW297955   2.164   7.080   4.690
32020SOL     OW97956   8.234   2.982   6.463
32020SOL    HW197957   8.254   2.999   6.371
32020SOL    HW297958   8.309   2.932   6.495
32021SOL     OW97959  10.882  14.000   8.067
32021SOL    HW197960  10.801  13.967   8.106
32021SOL    HW297961  10.936  13.922   8.054
32022SOL     OW97962   6.962   8.483   2.638
32022SOL    HW197963   7.007   8.500   2.721
32022SOL    HW297964   7.030   8.497   2.571
32023SOL     OW97965   1.259   0.775   7.072
32023SOL    HW197966   1.319   0.834   7.026
32023SOL    HW297967   1.301   0.689   7.067
32024SOL     OW97968  13.553   3.270   5.293
32024SOL    HW197969  13.460   3.250   5.280
32024SOL    HW297970  13.561   3.288   5.387
32025SOL     OW97971   6.619   1.517  11.667
32025SOL    HW197972   6.580   1.543  11.583
32025SOL    HW297973   6.558   1.550  11.733
32026SOL     OW97974   6.826   5.276   6.797
32026SOL    HW197975   6.740   5.304   6.764
32026SOL    HW297976   6.888   5.337   6.756
32027SOL     OW97977   8.479  11.279  12.271
32027SOL    HW197978   8.486  11.281  12.366
32027SOL    HW297979   8.494  11.370  12.245
32028SOL     OW97980  14.163  11.355   6.773
32028SOL    HW197981  14.128  11.378   6.859
32028SOL    HW297982  14.226  11.286   6.791
32029SOL     OW97983  10.710  10.158   2.784
32029SOL    HW197984  10.774  10.219   2.819
32029SOL    HW297985  10.762  10.088   2.744
32030SOL     OW97986  14.633   1.176   8.287
32030SOL    HW197987  14.678   1.221   8.359
32030SOL    HW297988  14.610   1.090   8.323
32031SOL     OW97989   4.217   8.361  13.166
32031SOL    HW197990   4.189   8.413  13.242
32031SOL    HW297991   4.135   8.335  13.124
32032SOL     OW97992  11.552  10.803   8.831
32032SOL    HW197993  11.599  10.792   8.748
32032SOL    HW297994  11.485  10.734   8.830
32033SOL     OW97995  10.594   7.700  13.013
32033SOL    HW197996  10.590   7.754  12.934
32033SOL    HW297997  10.534   7.627  12.996
32034SOL     OW97998   8.888  14.608   3.865
32034SOL    HW197999   8.974  14.601   3.822
32034SOL    HW298000   8.827  14.622   3.793
32035SOL     OW98001   3.894   9.154   1.872
32035SOL    HW198002   3.841   9.078   1.895
32035SOL    HW298003   3.894   9.156   1.777
32036SOL     OW98004   8.035   0.408   3.030
32036SOL    HW198005   8.059   0.432   2.941
32036SOL    HW298006   8.116   0.414   3.080
32037SOL     OW98007   0.022   9.990   4.485
32037SOL    HW198008   0.035  10.079   4.518
32037SOL    HW298009   0.111   9.957   4.469
32038SOL     OW98010   6.861   0.495   5.212
32038SOL    HW198011   6.902   0.409   5.215
32038SOL    HW298012   6.769   0.479   5.231
32039SOL     OW98013   9.627  10.236  10.913
32039SOL    HW198014   9.599  10.253  11.004
32039SOL    HW298015   9.562  10.174  10.880
32040SOL     OW98016  10.125   4.378  12.744
32040SOL    HW198017  10.138   4.369  12.839
32040SOL    HW298018  10.073   4.458  12.735
32041SOL     OW98019   2.861   2.522   1.917
32041SOL    HW198020   2.779   2.548   1.959
32041SOL    HW298021   2.841   2.441   1.871
32042SOL     OW98022  14.046   2.460   9.680
32042SOL    HW198023  14.038   2.431   9.589
32042SOL    HW298024  13.957   2.480   9.707
32043SOL     OW98025   4.154  10.163   3.131
32043SOL    HW198026   4.081  10.222   3.111
32043SOL    HW298027   4.121  10.076   3.112
32044SOL     OW98028   9.966   0.228  11.430
32044SOL    HW198029  10.011   0.204  11.511
32044SOL    HW298030  10.015   0.303  11.397
32045SOL     OW98031  11.609  12.206   8.721
32045SOL    HW198032  11.648  12.214   8.808
32045SOL    HW298033  11.588  12.296   8.696
32046SOL     OW98034  11.107  14.376   0.753
32046SOL    HW198035  11.091  14.467   0.730
32046SOL    HW298036  11.063  14.326   0.684
32047SOL     OW98037   4.228  10.545   7.955
32047SOL    HW198038   4.144  10.591   7.958
32047SOL    HW298039   4.273  10.583   7.879
32048SOL     OW98040   0.288   4.695  14.371
32048SOL    HW198041   0.264   4.624  14.311
32048SOL    HW298042   0.363   4.738  14.329
32049SOL     OW98043   2.761   8.628  14.789
32049SOL    HW198044   2.674   8.589  14.799
32049SOL    HW298045   2.743   8.719  14.763
32050SOL     OW98046   2.236   6.551   4.221
32050SOL    HW198047   2.224   6.641   4.253
32050SOL    HW298048   2.281   6.506   4.292
32051SOL     OW98049   9.761   6.572  12.015
32051SOL    HW198050   9.746   6.665  11.998
32051SOL    HW298051   9.855   6.564  12.028
32052SOL     OW98052   6.338  13.732  11.999
32052SOL    HW198053   6.249  13.700  12.013
32052SOL    HW298054   6.394  13.661  12.030
32053SOL     OW98055  11.394   6.202   3.945
32053SOL    HW198056  11.436   6.123   3.909
32053SOL    HW298057  11.367   6.176   4.033
32054SOL     OW98058   3.940   6.605   1.883
32054SOL    HW198059   3.909   6.530   1.934
32054SOL    HW298060   3.951   6.675   1.948
32055SOL     OW98061   3.452   2.190   3.163
32055SOL    HW198062   3.533   2.153   3.199
32055SOL    HW298063   3.478   2.275   3.127
32056SOL     OW98064   2.587   0.598   0.782
32056SOL    HW198065   2.591   0.662   0.853
32056SOL    HW298066   2.496   0.567   0.783
32057SOL     OW98067  10.899   2.420   6.881
32057SOL    HW198068  10.856   2.493   6.837
32057SOL    HW298069  10.986   2.454   6.902
32058SOL     OW98070   6.119  14.077  12.261
32058SOL    HW198071   6.129  14.053  12.353
32058SOL    HW298072   6.025  14.092  12.250
32059SOL     OW98073   6.927   7.156   1.777
32059SOL    HW198074   6.865   7.102   1.826
32059SOL    HW298075   6.879   7.180   1.697
32060SOL     OW98076   5.610   2.634  12.455
32060SOL    HW198077   5.613   2.555  12.510
32060SOL    HW298078   5.630   2.706  12.515
32061SOL     OW98079   1.553   0.927   7.299
32061SOL    HW198080   1.588   0.845   7.264
32061SOL    HW298081   1.495   0.900   7.370
32062SOL     OW98082   2.135  11.591  11.521
32062SOL    HW198083   2.085  11.609  11.601
32062SOL    HW298084   2.216  11.551  11.551
32063SOL     OW98085  14.862   3.740   7.223
32063SOL    HW198086   0.045   3.740   7.301
32063SOL    HW298087  14.814   3.823   7.228
32064SOL     OW98088   7.967  10.524   8.176
32064SOL    HW198089   7.951  10.536   8.270
32064SOL    HW298090   8.053  10.482   8.172
32065SOL     OW98091   7.307   1.107  13.512
32065SOL    HW198092   7.249   1.172  13.551
32065SOL    HW298093   7.250   1.035  13.487
32066SOL     OW98094   1.965  10.000   3.209
32066SOL    HW198095   1.967   9.930   3.275
32066SOL    HW298096   1.922  10.073   3.253
32067SOL     OW98097   3.473   0.041   3.578
32067SOL    HW198098   3.499   0.023   3.668
32067SOL    HW298099   3.555   0.043   3.529
32068SOL     OW98100   7.821  10.883   4.933
32068SOL    HW198101   7.883  10.907   4.864
32068SOL    HW298102   7.870  10.824   4.991
32069SOL     OW98103   4.110   8.439   8.259
32069SOL    HW198104   4.022   8.405   8.274
32069SOL    HW298105   4.120   8.510   8.322
32070SOL     OW98106  14.347   5.142   1.356
32070SOL    HW198107  14.369   5.184   1.273
32070SOL    HW298108  14.388   5.198   1.423
32071SOL     OW98109   8.469  12.991   7.209
32071SOL    HW198110   8.495  12.936   7.282
32071SOL    HW298111   8.430  13.069   7.250
32072SOL     OW98112   2.598   5.471   5.765
32072SOL    HW198113   2.548   5.462   5.846
32072SOL    HW298114   2.579   5.392   5.716
32073SOL     OW98115   3.210   0.871  13.800
32073SOL    HW198116   3.170   0.929  13.865
32073SOL    HW298117   3.233   0.792  13.849
32074SOL     OW98118   1.893   1.614  13.740
32074SOL    HW198119   1.870   1.693  13.790
32074SOL    HW298120   1.984   1.596  13.765
32075SOL     OW98121   2.620  13.343   9.284
32075SOL    HW198122   2.647  13.252   9.300
32075SOL    HW298123   2.524  13.337   9.274
32076SOL     OW98124   6.938  13.780   6.739
32076SOL    HW198125   6.977  13.841   6.676
32076SOL    HW298126   7.013  13.751   6.792
32077SOL     OW98127   3.339   3.081   7.956
32077SOL    HW198128   3.328   3.118   7.869
32077SOL    HW298129   3.417   3.124   7.991
32078SOL     OW98130   8.394  14.605   6.957
32078SOL    HW198131   8.325  14.639   7.013
32078SOL    HW298132   8.348  14.559   6.886
32079SOL     OW98133   2.969   2.153  12.563
32079SOL    HW198134   2.886   2.199  12.547
32079SOL    HW298135   2.974   2.087  12.494
32080SOL     OW98136   8.909   0.376  10.516
32080SOL    HW198137   8.935   0.398  10.606
32080SOL    HW298138   8.972   0.310  10.488
32081SOL     OW98139   2.475   0.208  12.865
32081SOL    HW198140   2.460   0.122  12.826
32081SOL    HW298141   2.403   0.262  12.833
32082SOL     OW98142  13.699   9.608  13.299
32082SOL    HW198143  13.704   9.701  13.317
32082SOL    HW298144  13.752   9.567  13.367
32083SOL     OW98145   0.024   1.856   4.557
32083SOL    HW198146   0.007   1.947   4.535
32083SOL    HW298147   0.083   1.859   4.632
32084SOL     OW98148  12.956   3.750   5.594
32084SOL    HW198149  12.881   3.809   5.592
32084SOL    HW298150  12.932   3.679   5.534
32085SOL     OW98151   6.823   8.870   7.247
32085SOL    HW198152   6.731   8.893   7.230
32085SOL    HW298153   6.830   8.869   7.342
32086SOL     OW98154   9.921  13.387   3.434
32086SOL    HW198155  10.010  13.421   3.431
32086SOL    HW298156   9.911  13.354   3.524
32087SOL     OW98157   6.391  12.295  12.232
32087SOL    HW198158   6.438  12.357  12.176
32087SOL    HW298159   6.377  12.219  12.177
32088SOL     OW98160   9.995   1.150   3.546
32088SOL    HW198161   9.966   1.082   3.485
32088SOL    HW298162   9.978   1.114   3.633
32089SOL     OW98163   4.391   5.945   4.668
32089SOL    HW198164   4.342   5.868   4.694
32089SOL    HW298165   4.453   5.960   4.739
32090SOL     OW98166   1.013   2.611   2.262
32090SOL    HW198167   1.083   2.603   2.196
32090SOL    HW298168   0.975   2.697   2.246
32091SOL     OW98169   9.026   3.125  13.763
32091SOL    HW198170   9.056   3.195  13.706
32091SOL    HW298171   9.079   3.049  13.738
32092SOL     OW98172   9.713   3.509   3.616
32092SOL    HW198173   9.752   3.423   3.604
32092SOL    HW298174   9.630   3.504   3.569
32093SOL     OW98175  10.255   6.200   8.732
32093SOL    HW198176  10.221   6.192   8.821
32093SOL    HW298177  10.224   6.286   8.703
32094SOL     OW98178   3.230   6.659  14.218
32094SOL    HW198179   3.323   6.647  14.197
32094SOL    HW298180   3.188   6.580  14.187
32095SOL     OW98181   0.053  14.710  11.581
32095SOL    HW198182   0.051  14.744  11.671
32095SOL    HW298183   0.042  14.616  11.591
32096SOL     OW98184   4.273   5.358  12.717
32096SOL    HW198185   4.217   5.336  12.643
32096SOL    HW298186   4.216   5.350  12.794
32097SOL     OW98187   2.053  10.432   9.063
32097SOL    HW198188   2.120  10.440   8.995
32097SOL    HW298189   2.046  10.520   9.100
32098SOL     OW98190  10.320  11.221   1.044
32098SOL    HW198191  10.262  11.191   0.974
32098SOL    HW298192  10.289  11.309   1.064
32099SOL     OW98193   0.564   1.501   4.881
32099SOL    HW198194   0.495   1.554   4.841
32099SOL    HW298195   0.536   1.491   4.972
32100SOL     OW98196  11.370   2.847   3.642
32100SOL    HW198197  11.315   2.802   3.706
32100SOL    HW298198  11.411   2.918   3.690
32101SOL     OW98199   2.738   0.961   3.054
32101SOL    HW198200   2.690   1.034   3.014
32101SOL    HW298201   2.670   0.909   3.096
32102SOL     OW98202  12.999   9.195   7.604
32102SOL    HW198203  12.933   9.162   7.666
32102SOL    HW298204  13.071   9.226   7.659
32103SOL     OW98205   9.569   9.645  14.752
32103SOL    HW198206   9.617   9.725  14.772
32103SOL    HW298207   9.617   9.576  14.798
32104SOL     OW98208   3.618   8.420   4.176
32104SOL    HW198209   3.635   8.510   4.150
32104SOL    HW298210   3.612   8.371   4.094
32105SOL     OW98211   9.429   0.149   2.461
32105SOL    HW198212   9.357   0.180   2.516
32105SOL    HW298213   9.493   0.114   2.523
32106SOL     OW98214  14.184   0.436   7.361
32106SOL    HW198215  14.210   0.352   7.400
32106SOL    HW298216  14.100   0.417   7.319
32107SOL     OW98217  12.827   1.509  14.197
32107SOL    HW198218  12.834   1.416  14.177
32107SOL    HW298219  12.792   1.512  14.286
32108SOL     OW98220   7.475  10.321   7.060
32108SOL    HW198221   7.497  10.320   7.153
32108SOL    HW298222   7.546  10.371   7.019
32109SOL     OW98223   6.878  14.201   5.618
32109SOL    HW198224   6.901  14.123   5.668
32109SOL    HW298225   6.943  14.266   5.644
32110SOL     OW98226   1.969  13.572  14.540
32110SOL    HW198227   2.025  13.632  14.490
32110SOL    HW298228   1.889  13.622  14.558
32111SOL     OW98229   4.793   6.291   0.037
32111SOL    HW198230   4.813   6.295   0.131
32111SOL    HW298231   4.873   6.324  14.866
32112SOL     OW98232  10.181  13.893   4.554
32112SOL    HW198233  10.138  13.822   4.505
32112SOL    HW298234  10.204  13.958   4.487
32113SOL     OW98235  11.896   1.255   2.972
32113SOL    HW198236  11.975   1.202   2.978
32113SOL    HW298237  11.853   1.225   2.892
32114SOL     OW98238   1.494   2.298   7.759
32114SOL    HW198239   1.419   2.337   7.802
32114SOL    HW298240   1.501   2.346   7.676
32115SOL     OW98241   5.923   3.375   2.689
32115SOL    HW198242   5.974   3.362   2.769
32115SOL    HW298243   5.961   3.453   2.648
32116SOL     OW98244   8.233   1.902   0.739
32116SOL    HW198245   8.239   1.996   0.727
32116SOL    HW298246   8.303   1.866   0.685
32117SOL     OW98247   7.791  14.788   6.788
32117SOL    HW198248   7.772  14.822   6.876
32117SOL    HW298249   7.886  14.779   6.786
32118SOL     OW98250   6.538   1.433   1.718
32118SOL    HW198251   6.498   1.393   1.640
32118SOL    HW298252   6.587   1.508   1.684
32119SOL     OW98253   2.039  11.900   2.949
32119SOL    HW198254   2.046  11.970   3.014
32119SOL    HW298255   2.128  11.884   2.921
32120SOL     OW98256   6.488   3.518   4.734
32120SOL    HW198257   6.568   3.474   4.707
32120SOL    HW298258   6.499   3.535   4.827
32121SOL     OW98259  14.324   1.928   0.353
32121SOL    HW198260  14.311   1.843   0.310
32121SOL    HW298261  14.258   1.930   0.422
32122SOL     OW98262   5.680   4.226  12.792
32122SOL    HW198263   5.657   4.133  12.800
32122SOL    HW298264   5.620   4.271  12.850
32123SOL     OW98265   6.743   7.816  10.320
32123SOL    HW198266   6.837   7.796  10.323
32123SOL    HW298267   6.722   7.844  10.409
32124SOL     OW98268   4.596   9.775  14.470
32124SOL    HW198269   4.561   9.849  14.421
32124SOL    HW298270   4.622   9.712  14.402
32125SOL     OW98271   1.208   4.862  13.422
32125SOL    HW198272   1.228   4.864  13.329
32125SOL    HW298273   1.114   4.880  13.427
32126SOL     OW98274   9.873   6.329   1.527
32126SOL    HW198275   9.852   6.285   1.444
32126SOL    HW298276   9.795   6.317   1.581
32127SOL     OW98277   4.892   7.638   7.274
32127SOL    HW198278   4.918   7.622   7.183
32127SOL    HW298279   4.814   7.693   7.267
32128SOL     OW98280  11.722   1.355  14.426
32128SOL    HW198281  11.777   1.378  14.501
32128SOL    HW298282  11.632   1.362  14.460
32129SOL     OW98283   7.119   2.608  14.067
32129SOL    HW198284   7.205   2.641  14.042
32129SOL    HW298285   7.063   2.628  13.992
32130SOL     OW98286  14.833   2.438   9.876
32130SOL    HW198287   0.030   2.503   9.864
32130SOL    HW298288  14.766   2.482   9.929
32131SOL     OW98289   3.530  11.418   5.372
32131SOL    HW198290   3.504  11.491   5.428
32131SOL    HW298291   3.624  11.431   5.358
32132SOL     OW98292  10.381   0.241   5.491
32132SOL    HW198293  10.447   0.200   5.437
32132SOL    HW298294  10.333   0.168   5.531
32133SOL     OW98295   5.662   6.923   5.216
32133SOL    HW198296   5.652   6.892   5.126
32133SOL    HW298297   5.653   6.844   5.270
32134SOL     OW98298   6.349  11.743   4.246
32134SOL    HW198299   6.434  11.780   4.271
32134SOL    HW298300   6.286  11.789   4.302
32135SOL     OW98301   4.916   6.970   8.830
32135SOL    HW198302   4.841   7.028   8.842
32135SOL    HW298303   4.903   6.900   8.894
32136SOL     OW98304  14.205   7.015  13.448
32136SOL    HW198305  14.123   7.035  13.402
32136SOL    HW298306  14.200   6.922  13.467
32137SOL     OW98307   5.153   5.843   2.450
32137SOL    HW198308   5.070   5.885   2.472
32137SOL    HW298309   5.219   5.910   2.466
32138SOL     OW98310   2.150  12.379   6.266
32138SOL    HW198311   2.108  12.306   6.221
32138SOL    HW298312   2.086  12.449   6.264
32139SOL     OW98313   9.292   5.357   7.937
32139SOL    HW198314   9.206   5.387   7.907
32139SOL    HW298315   9.350   5.433   7.923
32140SOL     OW98316   4.385  11.733  12.430
32140SOL    HW198317   4.420  11.682  12.503
32140SOL    HW298318   4.356  11.667  12.367
32141SOL     OW98319  13.907  10.003   9.034
32141SOL    HW198320  13.900   9.908   9.018
32141SOL    HW298321  13.860  10.042   8.960
32142SOL     OW98322   4.216  13.225   2.044
32142SOL    HW198323   4.215  13.321   2.036
32142SOL    HW298324   4.176  13.208   2.129
32143SOL     OW98325   5.976   1.684  14.716
32143SOL    HW198326   5.953   1.623  14.786
32143SOL    HW298327   6.031   1.632  14.657
32144SOL     OW98328   9.790   6.830   5.772
32144SOL    HW198329   9.826   6.883   5.844
32144SOL    HW298330   9.761   6.749   5.815
32145SOL     OW98331   8.694  14.049   8.028
32145SOL    HW198332   8.725  14.120   8.084
32145SOL    HW298333   8.599  14.056   8.030
32146SOL     OW98334   2.551   1.830   3.418
32146SOL    HW198335   2.544   1.905   3.359
32146SOL    HW298336   2.461   1.812   3.445
32147SOL     OW98337   8.944   2.154   1.748
32147SOL    HW198338   9.035   2.176   1.731
32147SOL    HW298339   8.925   2.195   1.833
32148SOL     OW98340   0.379  13.142   2.178
32148SOL    HW198341   0.363  13.082   2.250
32148SOL    HW298342   0.363  13.090   2.099
32149SOL     OW98343  12.040   7.448  11.046
32149SOL    HW198344  12.133   7.462  11.062
32149SOL    HW298345  12.034   7.430  10.952
32150SOL     OW98346   4.554  12.199   4.992
32150SOL    HW198347   4.564  12.177   5.085
32150SOL    HW298348   4.637  12.174   4.953
32151SOL     OW98349  12.796   1.747   8.373
32151SOL    HW198350  12.790   1.690   8.449
32151SOL    HW298351  12.742   1.704   8.306
32152SOL     OW98352  11.814  11.818  11.734
32152SOL    HW198353  11.878  11.841  11.666
32152SOL    HW298354  11.866  11.779  11.804
32153SOL     OW98355   1.581   5.015   8.095
32153SOL    HW198356   1.525   4.963   8.153
32153SOL    HW298357   1.564   4.981   8.008
32154SOL     OW98358   7.445   2.656   8.023
32154SOL    HW198359   7.434   2.569   7.986
32154SOL    HW298360   7.362   2.674   8.069
32155SOL     OW98361   6.686  10.498   7.278
32155SOL    HW198362   6.745  10.560   7.321
32155SOL    HW298363   6.723  10.412   7.297
32156SOL     OW98364  10.942   5.744   2.900
32156SOL    HW198365  10.986   5.694   2.968
32156SOL    HW298366  11.006   5.747   2.828
32157SOL     OW98367  10.480  13.409   5.673
32157SOL    HW198368  10.452  13.490   5.629
32157SOL    HW298369  10.548  13.373   5.617
32158SOL     OW98370   7.005   1.473   9.452
32158SOL    HW198371   7.048   1.436   9.529
32158SOL    HW298372   7.022   1.411   9.382
32159SOL     OW98373  11.678   1.934   6.274
32159SOL    HW198374  11.760   1.960   6.234
32159SOL    HW298375  11.642   1.868   6.215
32160SOL     OW98376   4.450  12.877   0.744
32160SOL    HW198377   4.485  12.803   0.695
32160SOL    HW298378   4.474  12.954   0.692
32161SOL     OW98379  14.197   2.339   3.419
32161SOL    HW198380  14.278   2.354   3.370
32161SOL    HW298381  14.130   2.382   3.366
32162SOL     OW98382   5.375  12.218   2.863
32162SOL    HW198383   5.304  12.259   2.913
32162SOL    HW298384   5.380  12.129   2.899
32163SOL     OW98385  10.248   7.320  14.531
32163SOL    HW198386  10.271   7.406  14.497
32163SOL    HW298387  10.316   7.301  14.596
32164SOL     OW98388   2.948  10.851   6.331
32164SOL    HW198389   2.999  10.781   6.290
32164SOL    HW298390   3.009  10.925   6.335
32165SOL     OW98391  10.657   6.720  13.404
32165SOL    HW198392  10.637   6.814  13.403
32165SOL    HW298393  10.716   6.708  13.330
32166SOL     OW98394   4.017  14.720   1.315
32166SOL    HW198395   3.929  14.714   1.352
32166SOL    HW298396   4.048  14.630   1.311
32167SOL     OW98397   9.022   6.693   2.104
32167SOL    HW198398   8.932   6.719   2.082
32167SOL    HW298399   9.077   6.751   2.052
32168SOL     OW98400   6.806   2.771   7.898
32168SOL    HW198401   6.853   2.846   7.936
32168SOL    HW298402   6.717   2.779   7.931
32169SOL     OW98403   5.191   3.464   8.581
32169SOL    HW198404   5.237   3.546   8.563
32169SOL    HW298405   5.177   3.465   8.676
32170SOL     OW98406   3.687   5.629  11.119
32170SOL    HW198407   3.683   5.671  11.034
32170SOL    HW298408   3.781   5.613  11.134
32171SOL     OW98409   4.846   2.352   7.114
32171SOL    HW198410   4.761   2.392   7.133
32171SOL    HW298411   4.908   2.405   7.164
32172SOL     OW98412   9.997   6.446   7.873
32172SOL    HW198413  10.052   6.370   7.857
32172SOL    HW298414  10.040   6.493   7.944
32173SOL     OW98415  10.890   6.627   6.151
32173SOL    HW198416  10.872   6.539   6.185
32173SOL    HW298417  10.915   6.678   6.228
32174SOL     OW98418  10.142   8.653  13.899
32174SOL    HW198419  10.105   8.588  13.959
32174SOL    HW298420  10.152   8.607  13.816
32175SOL     OW98421   2.569   1.072  10.066
32175SOL    HW198422   2.488   1.106  10.029
32175SOL    HW298423   2.621   1.046   9.991
32176SOL     OW98424  14.271  13.879   0.716
32176SOL    HW198425  14.177  13.874   0.736
32176SOL    HW298426  14.275  13.931   0.636
32177SOL     OW98427   8.831   2.500   2.724
32177SOL    HW198428   8.814   2.440   2.652
32177SOL    HW298429   8.922   2.528   2.711
32178SOL     OW98430   1.502   0.044   3.670
32178SOL    HW198431   1.590   0.065   3.702
32178SOL    HW298432   1.469  14.851   3.733
32179SOL     OW98433  10.240  14.574   5.963
32179SOL    HW198434  10.190  14.655   5.978
32179SOL    HW298435  10.274  14.551   6.049
32180SOL     OW98436  10.715   4.872   1.764
32180SOL    HW198437  10.794   4.818   1.773
32180SOL    HW298438  10.746   4.953   1.723
32181SOL     OW98439   5.324  14.244  14.003
32181SOL    HW198440   5.254  14.304  14.031
32181SOL    HW298441   5.369  14.221  14.085
32182SOL     OW98442   0.893   8.307   1.623
32182SOL    HW198443   0.827   8.251   1.663
32182SOL    HW298444   0.908   8.270   1.536
32183SOL     OW98445  10.853   9.628   9.312
32183SOL    HW198446  10.766   9.649   9.277
32183SOL    HW298447  10.849   9.657   9.404
32184SOL     OW98448   4.418  11.889  10.629
32184SOL    HW198449   4.378  11.972  10.653
32184SOL    HW298450   4.371  11.823  10.680
32185SOL     OW98451  13.763   7.119  13.787
32185SOL    HW198452  13.736   7.195  13.838
32185SOL    HW298453  13.702   7.117  13.713
32186SOL     OW98454   5.075   8.465   1.432
32186SOL    HW198455   5.102   8.537   1.374
32186SOL    HW298456   5.001   8.500   1.481
32187SOL     OW98457  12.108  10.626   8.703
32187SOL    HW198458  12.067  10.713   8.700
32187SOL    HW298459  12.110  10.598   8.611
32188SOL     OW98460   1.957   1.073   7.274
32188SOL    HW198461   1.954   1.003   7.210
32188SOL    HW298462   2.044   1.067   7.314
32189SOL     OW98463  11.473   7.759   1.038
32189SOL    HW198464  11.507   7.842   1.006
32189SOL    HW298465  11.387   7.780   1.075
32190SOL     OW98466   9.196  12.113   4.140
32190SOL    HW198467   9.141  12.041   4.108
32190SOL    HW298468   9.142  12.191   4.129
32191SOL     OW98469   7.451  13.136   3.042
32191SOL    HW198470   7.501  13.217   3.030
32191SOL    HW298471   7.505  13.069   3.000
32192SOL     OW98472  10.971  14.523  13.193
32192SOL    HW198473  10.920  14.528  13.274
32192SOL    HW298474  10.969  14.613  13.159
32193SOL     OW98475   9.046   9.725  11.459
32193SOL    HW198476   8.979   9.657  11.454
32193SOL    HW298477   9.118   9.691  11.406
32194SOL     OW98478  14.735   5.410  12.678
32194SOL    HW198479  14.658   5.439  12.727
32194SOL    HW298480  14.798   5.481  12.688
32195SOL     OW98481   6.243   0.523   3.954
32195SOL    HW198482   6.213   0.593   3.897
32195SOL    HW298483   6.163   0.488   3.993
32196SOL     OW98484   8.264   6.622  12.060
32196SOL    HW198485   8.270   6.678  12.137
32196SOL    HW298486   8.171   6.615  12.042
32197SOL     OW98487   7.663   7.065   7.557
32197SOL    HW198488   7.690   6.977   7.529
32197SOL    HW298489   7.697   7.123   7.489
32198SOL     OW98490   7.981   8.702   0.858
32198SOL    HW198491   7.989   8.658   0.773
32198SOL    HW298492   7.932   8.641   0.912
32199SOL     OW98493   1.430   4.921   3.691
32199SOL    HW198494   1.483   4.949   3.616
32199SOL    HW298495   1.488   4.927   3.766
32200SOL     OW98496   3.273  14.389   7.327
32200SOL    HW198497   3.349  14.335   7.303
32200SOL    HW298498   3.218  14.388   7.249
32201SOL     OW98499   5.438   2.767   7.616
32201SOL    HW198500   5.485   2.827   7.675
32201SOL    HW298501   5.507   2.724   7.566
32202SOL     OW98502  13.939   7.611  12.994
32202SOL    HW198503  13.975   7.695  12.967
32202SOL    HW298504  13.845   7.624  12.997
32203SOL     OW98505   9.526   6.396  14.843
32203SOL    HW198506   9.486   6.438   0.047
32203SOL    HW298507   9.599   6.453  14.819
32204SOL     OW98508   1.384  13.170   4.057
32204SOL    HW198509   1.443  13.095   4.051
32204SOL    HW298510   1.403  13.209   4.143
32205SOL     OW98511   6.682   6.241   7.572
32205SOL    HW198512   6.722   6.156   7.590
32205SOL    HW298513   6.674   6.282   7.658
32206SOL     OW98514  14.356   3.613  13.293
32206SOL    HW198515  14.336   3.703  13.267
32206SOL    HW298516  14.431   3.621  13.352
32207SOL     OW98517  10.995  12.045  14.738
32207SOL    HW198518  10.988  12.140  14.740
32207SOL    HW298519  11.053  12.026  14.665
32208SOL     OW98520   6.609   9.498   7.303
32208SOL    HW198521   6.619   9.454   7.218
32208SOL    HW298522   6.557   9.438   7.355
32209SOL     OW98523  11.738  14.290   3.382
32209SOL    HW198524  11.668  14.309   3.319
32209SOL    HW298525  11.704  14.321   3.465
32210SOL     OW98526   1.317  11.157   9.904
32210SOL    HW198527   1.250  11.213   9.867
32210SOL    HW298528   1.327  11.187   9.994
32211SOL     OW98529  13.358   4.822  10.770
32211SOL    HW198530  13.349   4.767  10.848
32211SOL    HW298531  13.352   4.912  10.803
32212SOL     OW98532  14.745  14.139   6.324
32212SOL    HW198533  14.702  14.157   6.407
32212SOL    HW298534  14.839  14.135   6.346
32213SOL     OW98535  12.942   7.456   5.358
32213SOL    HW198536  12.885   7.479   5.431
32213SOL    HW298537  13.031   7.468   5.391
32214SOL     OW98538   7.040   4.824   3.553
32214SOL    HW198539   7.058   4.856   3.464
32214SOL    HW298540   7.054   4.901   3.609
32215SOL     OW98541   7.529   3.248  13.382
32215SOL    HW198542   7.573   3.164  13.368
32215SOL    HW298543   7.582   3.293  13.447
32216SOL     OW98544   5.640   8.735   2.903
32216SOL    HW198545   5.621   8.650   2.863
32216SOL    HW298546   5.658   8.715   2.995
32217SOL     OW98547   5.156   3.347   9.022
32217SOL    HW198548   5.153   3.420   8.960
32217SOL    HW298549   5.250   3.329   9.034
32218SOL     OW98550  11.437   4.093   5.982
32218SOL    HW198551  11.446   4.045   5.900
32218SOL    HW298552  11.383   4.169   5.960
32219SOL     OW98553   4.905   1.467  11.254
32219SOL    HW198554   4.866   1.524  11.188
32219SOL    HW298555   4.962   1.408  11.204
32220SOL     OW98556  13.765   1.619  10.658
32220SOL    HW198557  13.702   1.551  10.681
32220SOL    HW298558  13.848   1.573  10.648
32221SOL     OW98559  10.313   1.286   7.926
32221SOL    HW198560  10.240   1.232   7.956
32221SOL    HW298561  10.296   1.301   7.833
32222SOL     OW98562  12.935   5.405   6.018
32222SOL    HW198563  12.870   5.336   6.011
32222SOL    HW298564  12.952   5.430   5.927
32223SOL     OW98565  13.836   1.689   0.201
32223SOL    HW198566  13.789   1.694   0.284
32223SOL    HW298567  13.767   1.693   0.134
32224SOL     OW98568   5.044   5.037   5.730
32224SOL    HW198569   5.131   5.012   5.761
32224SOL    HW298570   5.058   5.117   5.679
32225SOL     OW98571  14.582   8.478  10.157
32225SOL    HW198572  14.634   8.434  10.090
32225SOL    HW298573  14.611   8.439  10.240
32226SOL     OW98574   1.508  11.250  11.870
32226SOL    HW198575   1.536  11.314  11.805
32226SOL    HW298576   1.579  11.186  11.872
32227SOL     OW98577   0.855  11.746   7.296
32227SOL    HW198578   0.858  11.783   7.384
32227SOL    HW298579   0.859  11.652   7.309
32228SOL     OW98580   5.801   0.383  13.613
32228SOL    HW198581   5.873   0.367  13.674
32228SOL    HW298582   5.798   0.478  13.604
32229SOL     OW98583  10.704   0.128   6.257
32229SOL    HW198584  10.622   0.089   6.230
32229SOL    HW298585  10.701   0.217   6.223
32230SOL     OW98586  13.434   9.762   4.577
32230SOL    HW198587  13.505   9.809   4.621
32230SOL    HW298588  13.472   9.733   4.494
32231SOL     OW98589   1.769   9.155   7.068
32231SOL    HW198590   1.692   9.132   7.119
32231SOL    HW298591   1.797   9.239   7.104
32232SOL     OW98592   2.942   6.730   0.058
32232SOL    HW198593   3.030   6.692   0.055
32232SOL    HW298594   2.935   6.768   0.145
32233SOL     OW98595  11.147   1.654  12.864
32233SOL    HW198596  11.238   1.633  12.842
32233SOL    HW298597  11.113   1.575  12.906
32234SOL     OW98598   5.160   2.589   8.210
32234SOL    HW198599   5.090   2.546   8.260
32234SOL    HW298600   5.197   2.519   8.156
32235SOL     OW98601   6.759  14.250  11.434
32235SOL    HW198602   6.828  14.184  11.442
32235SOL    HW298603   6.747  14.284  11.522
32236SOL     OW98604   7.696  13.903   1.604
32236SOL    HW198605   7.708  13.821   1.556
32236SOL    HW298606   7.602  13.910   1.616
32237SOL     OW98607   2.981   8.722  12.307
32237SOL    HW198608   3.049   8.656  12.296
32237SOL    HW298609   3.028   8.805  12.311
32238SOL     OW98610   9.182  14.475   9.286
32238SOL    HW198611   9.262  14.438   9.249
32238SOL    HW298612   9.144  14.404   9.337
32239SOL     OW98613  13.886  12.546   5.285
32239SOL    HW198614  13.829  12.581   5.353
32239SOL    HW298615  13.973  12.543   5.325
32240SOL     OW98616  11.776   9.576   8.641
32240SOL    HW198617  11.698   9.531   8.609
32240SOL    HW298618  11.777   9.659   8.594
32241SOL     OW98619  13.960   2.686  10.694
32241SOL    HW198620  13.972   2.763  10.750
32241SOL    HW298621  13.877   2.648  10.723
32242SOL     OW98622  14.058   4.581  10.316
32242SOL    HW198623  14.146   4.575  10.353
32242SOL    HW298624  14.045   4.497  10.271
32243SOL     OW98625  11.097  12.750   3.392
32243SOL    HW198626  11.111  12.661   3.359
32243SOL    HW298627  11.160  12.759   3.464
32244SOL     OW98628   8.223  10.155   4.688
32244SOL    HW198629   8.176  10.208   4.752
32244SOL    HW298630   8.164  10.148   4.614
32245SOL     OW98631  11.425   9.376   1.035
32245SOL    HW198632  11.390   9.410   1.118
32245SOL    HW298633  11.468   9.451   0.995
32246SOL     OW98634  10.208   0.920   3.087
32246SOL    HW198635  10.124   0.955   3.116
32246SOL    HW298636  10.223   0.961   3.002
32247SOL     OW98637   1.259  11.198   7.200
32247SOL    HW198638   1.205  11.184   7.278
32247SOL    HW298639   1.207  11.256   7.145
32248SOL     OW98640   9.460   0.117  12.815
32248SOL    HW198641   9.524   0.090  12.882
32248SOL    HW298642   9.430   0.035  12.777
32249SOL     OW98643   5.362   3.073  13.997
32249SOL    HW198644   5.425   3.108  14.060
32249SOL    HW298645   5.383   3.118  13.914
32250SOL     OW98646  10.577   5.235   4.881
32250SOL    HW198647  10.498   5.242   4.827
32250SOL    HW298648  10.634   5.304   4.847
32251SOL     OW98649   1.901   2.476   9.424
32251SOL    HW198650   1.826   2.491   9.366
32251SOL    HW298651   1.928   2.386   9.406
32252SOL     OW98652   8.660   1.868   8.625
32252SOL    HW198653   8.649   1.959   8.652
32252SOL    HW298654   8.712   1.828   8.695
32253SOL     OW98655   4.453   3.223  14.344
32253SOL    HW198656   4.362   3.232  14.316
32253SOL    HW298657   4.476   3.132  14.325
32254SOL     OW98658   6.361   1.399   4.236
32254SOL    HW198659   6.381   1.374   4.146
32254SOL    HW298660   6.389   1.490   4.242
32255SOL     OW98661   0.052   2.311   4.347
32255SOL    HW198662  14.853   2.375   4.362
32255SOL    HW298663   0.015   2.228   4.379
32256SOL     OW98664   0.256  11.572   4.948
32256SOL    HW198665   0.254  11.561   5.043
32256SOL    HW298666   0.346  11.550   4.923
32257SOL     OW98667  13.812   9.479   2.848
32257SOL    HW198668  13.828   9.542   2.917
32257SOL    HW298669  13.725   9.444   2.867
32258SOL     OW98670   4.961  11.296  12.450
32258SOL    HW198671   4.918  11.288  12.535
32258SOL    HW298672   4.928  11.221  12.400
32259SOL     OW98673   0.680   6.948   6.815
32259SOL    HW198674   0.609   6.921   6.874
32259SOL    HW298675   0.710   6.866   6.775
32260SOL     OW98676   0.257   1.712   3.103
32260SOL    HW198677   0.292   1.793   3.066
32260SOL    HW298678   0.162   1.724   3.100
32261SOL     OW98679   4.840  11.472   2.689
32261SOL    HW198680   4.884  11.552   2.661
32261SOL    HW298681   4.752  11.478   2.651
32262SOL     OW98682  13.680   7.522   7.382
32262SOL    HW198683  13.649   7.575   7.455
32262SOL    HW298684  13.693   7.435   7.420
32263SOL     OW98685   4.444   5.425  14.674
32263SOL    HW198686   4.421   5.441  14.765
32263SOL    HW298687   4.388   5.485  14.624
32264SOL     OW98688   8.090   5.428   5.813
32264SOL    HW198689   8.103   5.381   5.896
32264SOL    HW298690   8.020   5.380   5.769
32265SOL     OW98691   7.366   3.234   2.104
32265SOL    HW198692   7.385   3.255   2.013
32265SOL    HW298693   7.272   3.215   2.105
32266SOL     OW98694   9.227   4.072  11.231
32266SOL    HW198695   9.270   4.155  11.252
32266SOL    HW298696   9.299   4.009  11.222
32267SOL     OW98697   9.289  11.924   0.817
32267SOL    HW198698   9.289  12.019   0.828
32267SOL    HW298699   9.198  11.903   0.795
32268SOL     OW98700   8.277   3.323   3.459
32268SOL    HW198701   8.346   3.258   3.443
32268SOL    HW298702   8.271   3.371   3.377
32269SOL     OW98703   5.861  14.273   4.046
32269SOL    HW198704   5.919  14.319   3.985
32269SOL    HW298705   5.914  14.264   4.126
32270SOL     OW98706   7.249  11.239   8.469
32270SOL    HW198707   7.208  11.187   8.400
32270SOL    HW298708   7.190  11.230   8.544
32271SOL     OW98709  14.257   0.829   1.876
32271SOL    HW198710  14.236   0.737   1.888
32271SOL    HW298711  14.208   0.874   1.945
32272SOL     OW98712   5.098  11.533   5.185
32272SOL    HW198713   5.174  11.561   5.235
32272SOL    HW298714   5.111  11.439   5.173
32273SOL     OW98715  13.986  14.563   0.133
32273SOL    HW198716  14.045  14.580   0.206
32273SOL    HW298717  14.043  14.556   0.056
32274SOL     OW98718   4.417  11.260  11.866
32274SOL    HW198719   4.501  11.271  11.911
32274SOL    HW298720   4.431  11.298  11.779
32275SOL     OW98721   0.313   8.326   4.557
32275SOL    HW198722   0.406   8.317   4.536
32275SOL    HW298723   0.310   8.322   4.653
32276SOL     OW98724   8.488   1.341   1.421
32276SOL    HW198725   8.498   1.428   1.460
32276SOL    HW298726   8.413   1.349   1.363
32277SOL     OW98727   5.452   0.338  12.958
32277SOL    HW198728   5.402   0.323  13.037
32277SOL    HW298729   5.543   0.321  12.983
32278SOL     OW98730   7.434   2.672  12.330
32278SOL    HW198731   7.388   2.751  12.301
32278SOL    HW298732   7.371   2.601  12.321
32279SOL     OW98733   4.061  10.848   8.730
32279SOL    HW198734   4.123  10.798   8.677
32279SOL    HW298735   4.116  10.901   8.788
32280SOL     OW98736   7.046   4.091  10.746
32280SOL    HW198737   7.117   4.026  10.750
32280SOL    HW298738   7.052   4.126  10.657
32281SOL     OW98739   6.165  10.340   3.428
32281SOL    HW198740   6.231  10.347   3.359
32281SOL    HW298741   6.207  10.380   3.504
32282SOL     OW98742   0.533   5.077  14.390
32282SOL    HW198743   0.601   5.139  14.366
32282SOL    HW298744   0.483   5.064  14.310
32283SOL     OW98745   6.671   6.638  11.409
32283SOL    HW198746   6.607   6.596  11.467
32283SOL    HW298747   6.638   6.620  11.321
32284SOL     OW98748   4.701   9.706  14.822
32284SOL    HW198749   4.742   9.636   0.001
32284SOL    HW298750   4.637   9.661  14.766
32285SOL     OW98751   6.820   0.838   1.849
32285SOL    HW198752   6.807   0.871   1.938
32285SOL    HW298753   6.790   0.908   1.792
32286SOL     OW98754  14.507  10.738   7.053
32286SOL    HW198755  14.497  10.766   6.963
32286SOL    HW298756  14.438  10.784   7.101
32287SOL     OW98757   2.439  11.256  14.217
32287SOL    HW198758   2.500  11.185  14.201
32287SOL    HW298759   2.448  11.276  14.310
32288SOL     OW98760  12.723   8.324  11.799
32288SOL    HW198761  12.729   8.255  11.734
32288SOL    HW298762  12.778   8.395  11.765
32289SOL     OW98763   8.015   4.398  13.799
32289SOL    HW198764   7.940   4.458  13.802
32289SOL    HW298765   7.998   4.335  13.869
32290SOL     OW98766  13.133   9.067  12.202
32290SOL    HW198767  13.093   9.150  12.228
32290SOL    HW298768  13.066   9.024  12.149
32291SOL     OW98769   9.100   8.990   7.938
32291SOL    HW198770   9.007   8.973   7.950
32291SOL    HW298771   9.128   9.032   8.020
32292SOL     OW98772   4.559   0.755  13.515
32292SOL    HW198773   4.497   0.715  13.454
32292SOL    HW298774   4.541   0.849  13.509
32293SOL     OW98775  11.759  13.589   1.893
32293SOL    HW198776  11.675  13.594   1.847
32293SOL    HW298777  11.754  13.659   1.958
32294SOL     OW98778   8.042  13.218   9.417
32294SOL    HW198779   8.019  13.238   9.326
32294SOL    HW298780   7.983  13.148   9.442
32295SOL     OW98781  14.691   4.497   9.340
32295SOL    HW198782  14.772   4.458   9.308
32295SOL    HW298783  14.711   4.526   9.429
32296SOL     OW98784   0.358  10.218   9.362
32296SOL    HW198785   0.301  10.165   9.418
32296SOL    HW298786   0.333  10.195   9.273
32297SOL     OW98787   7.400   5.079   3.067
32297SOL    HW198788   7.421   5.010   3.131
32297SOL    HW298789   7.485   5.101   3.028
32298SOL     OW98790   4.458   4.267   0.944
32298SOL    HW198791   4.411   4.350   0.936
32298SOL    HW298792   4.520   4.281   1.015
32299SOL     OW98793   9.814  10.644   5.587
32299SOL    HW198794   9.832  10.610   5.500
32299SOL    HW298795   9.795  10.566   5.640
32300SOL     OW98796  10.232   4.208   6.976
32300SOL    HW198797  10.314   4.160   6.969
32300SOL    HW298798  10.224   4.256   6.894
32301SOL     OW98799   2.557   8.595   4.422
32301SOL    HW198800   2.610   8.617   4.499
32301SOL    HW298801   2.537   8.679   4.381
32302SOL     OW98802   7.591  13.777   4.057
32302SOL    HW198803   7.530  13.840   4.094
32302SOL    HW298804   7.605  13.808   3.967
32303SOL     OW98805  13.809  10.629   3.119
32303SOL    HW198806  13.837  10.703   3.173
32303SOL    HW298807  13.795  10.666   3.032
32304SOL     OW98808  13.019   8.583   7.703
32304SOL    HW198809  12.957   8.609   7.635
32304SOL    HW298810  12.980   8.504   7.741
32305SOL     OW98811   7.018   3.650   5.101
32305SOL    HW198812   7.105   3.663   5.062
32305SOL    HW298813   7.005   3.728   5.155
32306SOL     OW98814   8.558   9.078   5.407
32306SOL    HW198815   8.515   9.079   5.322
32306SOL    HW298816   8.509   9.015   5.458
32307SOL     OW98817   2.165   7.210   1.594
32307SOL    HW198818   2.106   7.216   1.669
32307SOL    HW298819   2.126   7.143   1.538
32308SOL     OW98820   0.225   4.155   3.592
32308SOL    HW198821   0.262   4.097   3.525
32308SOL    HW298822   0.213   4.239   3.547
32309SOL     OW98823  13.461   3.872  11.215
32309SOL    HW198824  13.554   3.851  11.209
32309SOL    HW298825  13.458   3.959  11.254
32310SOL     OW98826   9.014   0.998   4.843
32310SOL    HW198827   8.951   1.065   4.872
32310SOL    HW298828   9.040   1.026   4.756
32311SOL     OW98829  13.019   8.726   2.812
32311SOL    HW198830  12.931   8.723   2.774
32311SOL    HW298831  13.076   8.689   2.744
32312SOL     OW98832   8.044  11.399  14.454
32312SOL    HW198833   7.959  11.430  14.421
32312SOL    HW298834   8.021  11.329  14.516
32313SOL     OW98835   5.041   0.510   8.032
32313SOL    HW198836   5.030   0.491   8.125
32313SOL    HW298837   5.096   0.439   7.999
32314SOL     OW98838  10.783   2.165  14.539
32314SOL    HW198839  10.693   2.139  14.555
32314SOL    HW298840  10.831   2.082  14.531
32315SOL     OW98841   4.747  14.096   5.588
32315SOL    HW198842   4.753  14.117   5.494
32315SOL    HW298843   4.837  14.102   5.620
32316SOL     OW98844   1.810   7.555   5.852
32316SOL    HW198845   1.732   7.597   5.888
32316SOL    HW298846   1.787   7.538   5.760
32317SOL     OW98847   0.243   1.374   5.351
32317SOL    HW198848   0.192   1.454   5.366
32317SOL    HW298849   0.179   1.311   5.317
32318SOL     OW98850   2.763  11.581   9.263
32318SOL    HW198851   2.741  11.627   9.182
32318SOL    HW298852   2.719  11.631   9.332
32319SOL     OW98853   9.888   5.626   0.765
32319SOL    HW198854   9.961   5.637   0.705
32319SOL    HW298855   9.917   5.560   0.827
32320SOL     OW98856   8.260   8.102   8.766
32320SOL    HW198857   8.320   8.126   8.696
32320SOL    HW298858   8.192   8.051   8.723
32321SOL     OW98859   5.370  14.390   5.743
32321SOL    HW198860   5.388  14.411   5.834
32321SOL    HW298861   5.450  14.413   5.697
32322SOL     OW98862   2.730   3.610   9.038
32322SOL    HW198863   2.817   3.580   9.010
32322SOL    HW298864   2.708   3.679   8.976
32323SOL     OW98865  13.920  10.801   5.932
32323SOL    HW198866  13.922  10.814   6.027
32323SOL    HW298867  14.008  10.771   5.909
32324SOL     OW98868   5.260   7.375   4.549
32324SOL    HW198869   5.317   7.376   4.626
32324SOL    HW298870   5.320   7.383   4.475
32325SOL     OW98871   5.479  10.557   6.325
32325SOL    HW198872   5.394  10.529   6.358
32325SOL    HW298873   5.521  10.476   6.296
32326SOL     OW98874   6.219   6.982   9.251
32326SOL    HW198875   6.152   7.030   9.203
32326SOL    HW298876   6.222   6.896   9.208
32327SOL     OW98877   7.843   4.988  13.589
32327SOL    HW198878   7.884   4.950  13.668
32327SOL    HW298879   7.784   5.055  13.623
32328SOL     OW98880   0.235  10.623   7.310
32328SOL    HW198881   0.308  10.582   7.357
32328SOL    HW298882   0.178  10.550   7.286
32329SOL     OW98883   4.161  12.219   2.292
32329SOL    HW198884   4.139  12.312   2.290
32329SOL    HW298885   4.238  12.213   2.349
32330SOL     OW98886   0.997   7.792   4.452
32330SOL    HW198887   0.997   7.871   4.506
32330SOL    HW298888   0.911   7.753   4.467
32331SOL     OW98889   5.683  13.333  10.223
32331SOL    HW198890   5.748  13.379  10.275
32331SOL    HW298891   5.734  13.270  10.171
32332SOL     OW98892   2.528  14.775   2.639
32332SOL    HW198893   2.551  14.810   2.725
32332SOL    HW298894   2.596  14.809   2.581
32333SOL     OW98895   7.081   4.254  14.108
32333SOL    HW198896   7.099   4.220  14.196
32333SOL    HW298897   6.999   4.302  14.117
32334SOL     OW98898   0.046   4.603  13.566
32334SOL    HW198899  14.835   4.599  13.518
32334SOL    HW298900   0.114   4.599  13.498
32335SOL     OW98901  14.206  12.489   9.359
32335SOL    HW198902  14.154  12.411   9.377
32335SOL    HW298903  14.285  12.457   9.316
32336SOL     OW98904   0.237   7.606  10.332
32336SOL    HW198905   0.285   7.671  10.383
32336SOL    HW298906   0.206   7.543  10.396
32337SOL     OW98907   1.793   9.894   1.961
32337SOL    HW198908   1.798   9.806   1.997
32337SOL    HW298909   1.884   9.924   1.959
32338SOL     OW98910  12.422   5.759   1.576
32338SOL    HW198911  12.342   5.810   1.567
32338SOL    HW298912  12.405   5.679   1.526
32339SOL     OW98913   1.823   9.674   2.970
32339SOL    HW198914   1.912   9.659   3.002
32339SOL    HW298915   1.828   9.755   2.921
32340SOL     OW98916   2.905   1.155  12.747
32340SOL    HW198917   2.915   1.250  12.761
32340SOL    HW298918   2.811   1.141  12.741
32341SOL     OW98919   3.832   6.218   5.978
32341SOL    HW198920   3.882   6.197   5.899
32341SOL    HW298921   3.869   6.300   6.009
32342SOL     OW98922  11.405  12.879  13.548
32342SOL    HW198923  11.470  12.873  13.618
32342SOL    HW298924  11.356  12.797  13.554
32343SOL     OW98925  13.063  14.113   5.302
32343SOL    HW198926  13.034  14.115   5.394
32343SOL    HW298927  13.015  14.185   5.261
32344SOL     OW98928   2.085  14.825  10.858
32344SOL    HW198929   2.152   0.021  10.866
32344SOL    HW298930   2.130  14.751  10.817
32345SOL     OW98931   2.966   6.959   0.282
32345SOL    HW198932   2.905   6.982   0.352
32345SOL    HW298933   2.980   7.041   0.235
32346SOL     OW98934   1.828   4.255   6.110
32346SOL    HW198935   1.815   4.349   6.127
32346SOL    HW298936   1.796   4.212   6.189
32347SOL     OW98937   8.176  13.200   1.867
32347SOL    HW198938   8.183  13.133   1.799
32347SOL    HW298939   8.113  13.164   1.930
32348SOL     OW98940   2.627  14.744   4.750
32348SOL    HW198941   2.643  14.837   4.766
32348SOL    HW298942   2.569  14.743   4.673
32349SOL     OW98943   2.187  11.117   8.307
32349SOL    HW198944   2.106  11.070   8.329
32349SOL    HW298945   2.157  11.201   8.272
32350SOL     OW98946  14.148  11.932   1.909
32350SOL    HW198947  14.231  11.969   1.938
32350SOL    HW298948  14.084  11.964   1.973
32351SOL     OW98949   8.810  13.304   6.885
32351SOL    HW198950   8.752  13.253   6.942
32351SOL    HW298951   8.866  13.354   6.946
32352SOL     OW98952  14.770   6.689   9.589
32352SOL    HW198953  14.774   6.604   9.545
32352SOL    HW298954  14.743   6.668   9.678
32353SOL     OW98955  10.046   4.088   4.245
32353SOL    HW198956  10.022   4.168   4.292
32353SOL    HW298957  10.084   4.118   4.163
32354SOL     OW98958   6.075  10.867  10.576
32354SOL    HW198959   6.120  10.838  10.497
32354SOL    HW298960   6.145  10.889  10.638
32355SOL     OW98961   0.513   6.799  10.730
32355SOL    HW198962   0.483   6.878  10.685
32355SOL    HW298963   0.584   6.765  10.675
32356SOL     OW98964  14.764  11.991  10.149
32356SOL    HW198965  14.727  12.079  10.141
32356SOL    HW298966  14.857  12.003  10.129
32357SOL     OW98967   6.224  11.528   9.777
32357SOL    HW198968   6.304  11.510   9.827
32357SOL    HW298969   6.170  11.450   9.790
32358SOL     OW98970   8.775   0.306   7.670
32358SOL    HW198971   8.810   0.254   7.597
32358SOL    HW298972   8.707   0.360   7.630
32359SOL     OW98973   8.669   2.499  13.293
32359SOL    HW198974   8.659   2.580  13.242
32359SOL    HW298975   8.659   2.429  13.230
32360SOL     OW98976   4.378   7.258  14.671
32360SOL    HW198977   4.283   7.246  14.667
32360SOL    HW298978   4.414   7.169  14.676
32361SOL     OW98979   5.070  14.315  10.072
32361SOL    HW198980   5.110  14.325   9.986
32361SOL    HW298981   5.125  14.250  10.116
32362SOL     OW98982  10.403   9.610   2.126
32362SOL    HW198983  10.343   9.612   2.200
32362SOL    HW298984  10.377   9.533   2.075
32363SOL     OW98985   4.626   7.672   8.367
32363SOL    HW198986   4.718   7.661   8.345
32363SOL    HW298987   4.599   7.752   8.322
32364SOL     OW98988   4.602   0.504   0.110
32364SOL    HW198989   4.608   0.414   0.079
32364SOL    HW298990   4.640   0.556   0.040
32365SOL     OW98991   4.647  14.361   0.059
32365SOL    HW198992   4.634  14.454   0.043
32365SOL    HW298993   4.601  14.318  14.859
32366SOL     OW98994  13.230   9.791   6.115
32366SOL    HW198995  13.276   9.866   6.153
32366SOL    HW298996  13.287   9.760   6.045
32367SOL     OW98997   2.995  13.772   3.738
32367SOL    HW198998   3.043  13.746   3.817
32367SOL    HW298999   2.994  13.693   3.684
32368SOL     OW99000  13.690  13.717  13.146
32368SOL    HW199001  13.684  13.737  13.052
32368SOL    HW299002  13.691  13.621  13.149
32369SOL     OW99003  14.867  11.844   2.880
32369SOL    HW199004   0.015  11.896   2.802
32369SOL    HW299005  14.823  11.905   2.939
32370SOL     OW99006   7.182   7.214   5.362
32370SOL    HW199007   7.230   7.239   5.441
32370SOL    HW299008   7.175   7.296   5.312
32371SOL     OW99009  13.044  12.544   3.241
32371SOL    HW199010  13.068  12.459   3.206
32371SOL    HW299011  13.127  12.584   3.268
32372SOL     OW99012  10.527  11.257  10.943
32372SOL    HW199013  10.450  11.219  10.900
32372SOL    HW299014  10.567  11.311  10.875
32373SOL     OW99015  13.551   3.147   2.713
32373SOL    HW199016  13.535   3.093   2.635
32373SOL    HW299017  13.613   3.096   2.765
32374SOL     OW99018  12.175   6.778   8.106
32374SOL    HW199019  12.242   6.747   8.166
32374SOL    HW299020  12.094   6.738   8.137
32375SOL     OW99021   9.504  12.888  14.870
32375SOL    HW199022   9.541  12.822  14.811
32375SOL    HW299023   9.557  12.966  14.855
32376SOL     OW99024   9.758   4.476   4.852
32376SOL    HW199025   9.794   4.415   4.787
32376SOL    HW299026   9.794   4.446   4.936
32377SOL     OW99027   5.617  10.390  12.206
32377SOL    HW199028   5.631  10.483  12.191
32377SOL    HW299029   5.524  10.383  12.230
32378SOL     OW99030   8.592   0.407   2.174
32378SOL    HW199031   8.686   0.423   2.166
32378SOL    HW299032   8.586   0.317   2.205
32379SOL     OW99033   6.480   5.250  10.623
32379SOL    HW199034   6.573   5.275  10.619
32379SOL    HW299035   6.482   5.157  10.645
32380SOL     OW99036  13.474   8.211  12.810
32380SOL    HW199037  13.437   8.282  12.862
32380SOL    HW299038  13.413   8.138  12.821
32381SOL     OW99039  13.913   6.763   7.783
32381SOL    HW199040  13.907   6.673   7.750
32381SOL    HW299041  14.007   6.779   7.792
32382SOL     OW99042  13.819   8.543  12.017
32382SOL    HW199043  13.844   8.456  11.986
32382SOL    HW299044  13.795   8.530  12.108
32383SOL     OW99045  12.453   0.386  12.097
32383SOL    HW199046  12.374   0.336  12.073
32383SOL    HW299047  12.500   0.328  12.157
32384SOL     OW99048   1.446   6.518   7.859
32384SOL    HW199049   1.459   6.428   7.828
32384SOL    HW299050   1.517   6.567   7.819
32385SOL     OW99051   6.794   0.044   0.523
32385SOL    HW199052   6.844   0.102   0.466
32385SOL    HW299053   6.789   0.091   0.607
32386SOL     OW99054  13.269   6.677   7.285
32386SOL    HW199055  13.249   6.762   7.325
32386SOL    HW299056  13.208   6.616   7.328
32387SOL     OW99057   4.475  12.985   4.512
32387SOL    HW199058   4.546  13.049   4.523
32387SOL    HW299059   4.477  12.963   4.419
32388SOL     OW99060   5.334  13.787   0.165
32388SOL    HW199061   5.417  13.799   0.212
32388SOL    HW299062   5.275  13.850   0.206
32389SOL     OW99063   3.951   1.445   2.912
32389SOL    HW199064   3.936   1.535   2.940
32389SOL    HW299065   3.954   1.395   2.993
32390SOL     OW99066  11.897   1.098  11.539
32390SOL    HW199067  11.954   1.093  11.462
32390SOL    HW299068  11.953   1.137  11.607
32391SOL     OW99069  10.148   0.939   3.368
32391SOL    HW199070  10.218   0.955   3.431
32391SOL    HW299071  10.194   0.924   3.285
32392SOL     OW99072   6.377   6.490   8.653
32392SOL    HW199073   6.302   6.436   8.679
32392SOL    HW299074   6.428   6.499   8.733
32393SOL     OW99075   1.835   2.194  13.748
32393SOL    HW199076   1.874   2.134  13.812
32393SOL    HW299077   1.772   2.140  13.700
32394SOL     OW99078   7.878   5.303   0.742
32394SOL    HW199079   7.901   5.280   0.832
32394SOL    HW299080   7.961   5.301   0.695
32395SOL     OW99081   5.386   2.290   3.242
32395SOL    HW199082   5.364   2.214   3.297
32395SOL    HW299083   5.319   2.290   3.174
32396SOL     OW99084  14.239  14.163   7.243
32396SOL    HW199085  14.195  14.182   7.161
32396SOL    HW299086  14.292  14.241   7.261
32397SOL     OW99087   2.858  14.481  14.584
32397SOL    HW199088   2.772  14.504  14.550
32397SOL    HW299089   2.904  14.565  14.592
32398SOL     OW99090   6.063   8.626   2.289
32398SOL    HW199091   6.076   8.535   2.316
32398SOL    HW299092   6.132   8.642   2.225
32399SOL     OW99093   8.764  11.412  14.773
32399SOL    HW199094   8.844  11.385  14.728
32399SOL    HW299095   8.766  11.508  14.772
32400SOL     OW99096   5.167   7.182  13.860
32400SOL    HW199097   5.123   7.225  13.934
32400SOL    HW299098   5.134   7.228  13.783
32401SOL     OW99099   0.644   1.266  11.235
32401SOL    HW199100   0.577   1.267  11.304
32401SOL    HW299101   0.598   1.297  11.157
32402SOL     OW99102  12.079   4.289   3.048
32402SOL    HW199103  12.094   4.205   3.091
32402SOL    HW299104  11.983   4.298   3.047
32403SOL     OW99105   8.584  11.218  13.253
32403SOL    HW199106   8.574  11.178  13.340
32403SOL    HW299107   8.651  11.165  13.210
32404SOL     OW99108  14.186   7.529   7.261
32404SOL    HW199109  14.219   7.556   7.347
32404SOL    HW299110  14.091   7.542   7.266
32405SOL     OW99111   2.230  10.914   0.633
32405SOL    HW199112   2.256  10.926   0.725
32405SOL    HW299113   2.190  10.997   0.608
32406SOL     OW99114   3.501   0.270  13.706
32406SOL    HW199115   3.540   0.355  13.688
32406SOL    HW299116   3.456   0.281  13.790
32407SOL     OW99117   8.710  12.361   0.323
32407SOL    HW199118   8.644  12.391   0.259
32407SOL    HW299119   8.758  12.441   0.345
32408SOL     OW99120   7.178   9.480   7.880
32408SOL    HW199121   7.255   9.425   7.892
32408SOL    HW299122   7.114   9.424   7.837
32409SOL     OW99123   1.326   3.789  13.082
32409SOL    HW199124   1.309   3.830  12.997
32409SOL    HW299125   1.295   3.853  13.146
32410SOL     OW99126  11.440   4.543  12.860
32410SOL    HW199127  11.466   4.513  12.773
32410SOL    HW299128  11.455   4.467  12.917
32411SOL     OW99129   4.145   2.581   9.762
32411SOL    HW199130   4.067   2.628   9.793
32411SOL    HW299131   4.115   2.491   9.750
32412SOL     OW99132   0.780  13.868   6.732
32412SOL    HW199133   0.753  13.776   6.733
32412SOL    HW299134   0.875  13.865   6.715
32413SOL     OW99135   7.913  11.428   2.829
32413SOL    HW199136   8.002  11.403   2.852
32413SOL    HW299137   7.922  11.471   2.744
32414SOL     OW99138  14.515   2.831   7.440
32414SOL    HW199139  14.565   2.909   7.415
32414SOL    HW299140  14.579   2.760   7.439
32415SOL     OW99141  14.324   0.592   4.865
32415SOL    HW199142  14.343   0.500   4.883
32415SOL    HW299143  14.249   0.590   4.806
32416SOL     OW99144   9.836   1.613   8.618
32416SOL    HW199145   9.860   1.695   8.574
32416SOL    HW299146   9.815   1.640   8.708
32417SOL     OW99147   7.697   9.387   0.780
32417SOL    HW199148   7.764   9.418   0.719
32417SOL    HW299149   7.691   9.293   0.763
32418SOL     OW99150   7.586   9.223   4.606
32418SOL    HW199151   7.586   9.317   4.591
32418SOL    HW299152   7.664   9.191   4.560
32419SOL     OW99153   2.568   1.199   5.730
32419SOL    HW199154   2.478   1.229   5.741
32419SOL    HW299155   2.623   1.273   5.758
32420SOL     OW99156   4.808   2.603   1.860
32420SOL    HW199157   4.723   2.647   1.864
32420SOL    HW299158   4.804   2.536   1.929
32421SOL     OW99159  13.851   2.316   9.011
32421SOL    HW199160  13.890   2.403   9.022
32421SOL    HW299161  13.757   2.332   9.007
32422SOL     OW99162   1.460   1.376  14.251
32422SOL    HW199163   1.533   1.361  14.311
32422SOL    HW299164   1.422   1.289  14.238
32423SOL     OW99165   7.251   1.343  10.392
32423SOL    HW199166   7.278   1.252  10.379
32423SOL    HW299167   7.326   1.395  10.362
32424SOL     OW99168   1.748   0.058   8.685
32424SOL    HW199169   1.716  14.848   8.724
32424SOL    HW299170   1.842   0.044   8.675
32425SOL     OW99171   4.412   6.919   4.715
32425SOL    HW199172   4.318   6.912   4.697
32425SOL    HW299173   4.452   6.863   4.648
32426SOL     OW99174   9.672  12.210   6.456
32426SOL    HW199175   9.600  12.188   6.398
32426SOL    HW299176   9.631  12.226   6.541
32427SOL     OW99177   2.129   4.347   4.658
32427SOL    HW199178   2.113   4.396   4.738
32427SOL    HW299179   2.152   4.413   4.593
32428SOL     OW99180   6.282  11.447   2.820
32428SOL    HW199181   6.250  11.396   2.894
32428SOL    HW299182   6.274  11.538   2.848
32429SOL     OW99183  11.238   4.643   2.784
32429SOL    HW199184  11.225   4.654   2.878
32429SOL    HW299185  11.153   4.615   2.751
32430SOL     OW99186   4.055  11.272  11.287
32430SOL    HW199187   3.968  11.242  11.261
32430SOL    HW299188   4.109  11.260  11.209
32431SOL     OW99189   9.859   4.717   0.674
32431SOL    HW199190   9.808   4.797   0.662
32431SOL    HW299191   9.794   4.652   0.700
32432SOL     OW99192  11.604  10.196   8.407
32432SOL    HW199193  11.554  10.116   8.422
32432SOL    HW299194  11.687  10.166   8.370
32433SOL     OW99195   7.755  11.253  14.179
32433SOL    HW199196   7.689  11.251  14.110
32433SOL    HW299197   7.829  11.203  14.144
32434SOL     OW99198  12.596   7.714   9.535
32434SOL    HW199199  12.638   7.647   9.588
32434SOL    HW299200  12.506   7.681   9.522
32435SOL     OW99201   2.817   7.291   2.542
32435SOL    HW199202   2.737   7.338   2.519
32435SOL    HW299203   2.788   7.202   2.560
32436SOL     OW99204  13.431   1.918   5.404
32436SOL    HW199205  13.412   1.847   5.343
32436SOL    HW299206  13.526   1.926   5.402
32437SOL     OW99207  10.062   3.851  13.889
32437SOL    HW199208  10.028   3.920  13.946
32437SOL    HW299209  10.114   3.795  13.948
32438SOL     OW99210   2.964   8.547   8.384
32438SOL    HW199211   3.031   8.539   8.316
32438SOL    HW299212   2.913   8.466   8.378
32439SOL     OW99213   7.785   3.420   5.230
32439SOL    HW199214   7.842   3.349   5.198
32439SOL    HW299215   7.698   3.380   5.233
32440SOL     OW99216   5.934   7.640  14.779
32440SOL    HW199217   5.901   7.720  14.740
32440SOL    HW299218   5.888   7.633  14.863
32441SOL     OW99219   2.929   3.412   0.917
32441SOL    HW199220   2.893   3.408   1.005
32441SOL    HW299221   2.958   3.503   0.907
32442SOL     OW99222   6.152   1.024   4.295
32442SOL    HW199223   6.086   0.995   4.359
32442SOL    HW299224   6.208   0.947   4.282
32443SOL     OW99225  11.881   3.254  13.675
32443SOL    HW199226  11.786   3.237  13.678
32443SOL    HW299227  11.920   3.173  13.707
32444SOL     OW99228   3.190  10.965  13.502
32444SOL    HW199229   3.099  10.960  13.530
32444SOL    HW299230   3.241  10.966  13.583
32445SOL     OW99231   5.546  13.108   1.168
32445SOL    HW199232   5.625  13.159   1.189
32445SOL    HW299233   5.539  13.045   1.239
32446SOL     OW99234   3.923   2.262   6.853
32446SOL    HW199235   4.005   2.294   6.891
32446SOL    HW299236   3.859   2.331   6.872
32447SOL     OW99237   3.816   0.217   0.039
32447SOL    HW199238   3.854   0.305   0.044
32447SOL    HW299239   3.724   0.232   0.014
32448SOL     OW99240  10.609   3.033   6.257
32448SOL    HW199241  10.663   3.014   6.334
32448SOL    HW299242  10.631   3.123   6.233
32449SOL     OW99243  13.450  12.771  12.434
32449SOL    HW199244  13.474  12.712  12.362
32449SOL    HW299245  13.507  12.744  12.506
32450SOL     OW99246   8.539  12.090   7.566
32450SOL    HW199247   8.549  12.182   7.591
32450SOL    HW299248   8.542  12.042   7.649
32451SOL     OW99249  11.038  12.486   1.501
32451SOL    HW199250  11.005  12.502   1.412
32451SOL    HW299251  11.108  12.422   1.489
32452SOL     OW99252   9.627   7.883   5.932
32452SOL    HW199253   9.635   7.919   5.844
32452SOL    HW299254   9.595   7.793   5.918
32453SOL     OW99255   5.000   0.794  12.548
32453SOL    HW199256   4.938   0.730  12.581
32453SOL    HW299257   5.085   0.766  12.584
32454SOL     OW99258   6.687   1.986  12.289
32454SOL    HW199259   6.672   1.902  12.332
32454SOL    HW299260   6.781   2.002  12.300
32455SOL     OW99261   9.666  12.427   1.213
32455SOL    HW199262   9.760  12.424   1.198
32455SOL    HW299263   9.638  12.335   1.208
32456SOL     OW99264  12.277   2.198   2.428
32456SOL    HW199265  12.341   2.143   2.472
32456SOL    HW299266  12.201   2.198   2.486
32457SOL     OW99267   3.339   3.361   0.795
32457SOL    HW199268   3.424   3.405   0.801
32457SOL    HW299269   3.361   3.267   0.797
32458SOL     OW99270   4.313   0.206   0.368
32458SOL    HW199271   4.227   0.216   0.408
32458SOL    HW299272   4.362   0.283   0.396
32459SOL     OW99273   8.208   5.320   9.524
32459SOL    HW199274   8.183   5.280   9.607
32459SOL    HW299275   8.168   5.264   9.457
32460SOL     OW99276   8.270   5.358  12.170
32460SOL    HW199277   8.224   5.385  12.090
32460SOL    HW299278   8.213   5.388  12.241
32461SOL     OW99279  12.323   4.771  13.111
32461SOL    HW199280  12.263   4.711  13.066
32461SOL    HW299281  12.286   4.858  13.094
32462SOL     OW99282   5.008  14.441  11.854
32462SOL    HW199283   4.920  14.409  11.836
32462SOL    HW299284   5.052  14.367  11.895
32463SOL     OW99285  11.936  11.407  13.406
32463SOL    HW199286  11.843  11.400  13.383
32463SOL    HW299287  11.939  11.387  13.500
32464SOL     OW99288  11.812   8.634   5.080
32464SOL    HW199289  11.878   8.591   5.024
32464SOL    HW299290  11.730   8.620   5.033
32465SOL     OW99291   9.623  12.420   5.958
32465SOL    HW199292   9.644  12.367   6.035
32465SOL    HW299293   9.545  12.378   5.921
32466SOL     OW99294   3.687   4.592   5.487
32466SOL    HW199295   3.768   4.644   5.485
32466SOL    HW299296   3.711   4.512   5.534
32467SOL     OW99297   3.637   2.867   2.760
32467SOL    HW199298   3.593   2.937   2.711
32467SOL    HW299299   3.636   2.897   2.850
32468SOL     OW99300   3.633   2.114   4.120
32468SOL    HW199301   3.614   2.063   4.199
32468SOL    HW299302   3.728   2.106   4.108
32469SOL     OW99303  11.025   0.974  12.126
32469SOL    HW199304  11.035   0.915  12.051
32469SOL    HW299305  11.115   0.987  12.157
32470SOL     OW99306   9.349   6.039  13.111
32470SOL    HW199307   9.291   5.963  13.104
32470SOL    HW299308   9.413   6.014  13.178
32471SOL     OW99309   8.166  12.786   1.111
32471SOL    HW199310   8.223  12.791   1.187
32471SOL    HW299311   8.149  12.692   1.100
32472SOL     OW99312  14.325   3.780   9.167
32472SOL    HW199313  14.296   3.854   9.221
32472SOL    HW299314  14.264   3.710   9.188
32473SOL     OW99315  10.912   5.723   5.528
32473SOL    HW199316  10.878   5.797   5.578
32473SOL    HW299317  10.937   5.659   5.595
32474SOL     OW99318   1.738   5.752   1.071
32474SOL    HW199319   1.690   5.713   0.998
32474SOL    HW299320   1.784   5.827   1.032
32475SOL     OW99321   5.293  13.934  14.292
32475SOL    HW199322   5.325  13.874  14.359
32475SOL    HW299323   5.271  13.878  14.218
32476SOL     OW99324   9.213   7.364   0.973
32476SOL    HW199325   9.208   7.426   0.901
32476SOL    HW299326   9.306   7.350   0.987
32477SOL     OW99327   0.334  12.531  12.126
32477SOL    HW199328   0.305  12.494  12.209
32477SOL    HW299329   0.380  12.612  12.150
32478SOL     OW99330   9.742  11.293   2.756
32478SOL    HW199331   9.694  11.376   2.748
32478SOL    HW299332   9.769  11.290   2.848
32479SOL     OW99333   3.783   5.021   2.867
32479SOL    HW199334   3.849   5.050   2.804
32479SOL    HW299335   3.830   5.019   2.951
32480SOL     OW99336   0.002   1.724   5.816
32480SOL    HW199337   0.073   1.776   5.854
32480SOL    HW299338  14.796   1.747   5.868
32481SOL     OW99339   8.796   4.622   9.485
32481SOL    HW199340   8.731   4.676   9.532
32481SOL    HW299341   8.880   4.664   9.504
32482SOL     OW99342   6.877   9.565   7.087
32482SOL    HW199343   6.909   9.489   7.135
32482SOL    HW299344   6.907   9.640   7.139
32483SOL     OW99345   8.520   2.472   0.545
32483SOL    HW199346   8.594   2.420   0.514
32483SOL    HW299347   8.545   2.563   0.526
32484SOL     OW99348   8.913   6.963   1.041
32484SOL    HW199349   8.925   6.875   1.077
32484SOL    HW299350   8.994   7.009   1.064
32485SOL     OW99351   9.739   7.856  11.663
32485SOL    HW199352   9.678   7.802  11.614
32485SOL    HW299353   9.717   7.946  11.640
32486SOL     OW99354   7.130  11.212   2.961
32486SOL    HW199355   7.171  11.288   3.004
32486SOL    HW299356   7.180  11.202   2.880
32487SOL     OW99357  11.409   5.178   1.454
32487SOL    HW199358  11.327   5.168   1.405
32487SOL    HW299359  11.431   5.271   1.445
32488SOL     OW99360  11.013   7.387   7.090
32488SOL    HW199361  10.969   7.302   7.087
32488SOL    HW299362  10.964   7.442   7.029
32489SOL     OW99363  11.026   1.177  13.266
32489SOL    HW199364  11.050   1.269  13.277
32489SOL    HW299365  11.074   1.149  13.188
32490SOL     OW99366   9.872   0.145  11.023
32490SOL    HW199367   9.955   0.158  11.069
32490SOL    HW299368   9.891   0.077  10.959
32491SOL     OW99369   0.283   7.874  11.465
32491SOL    HW199370   0.324   7.950  11.506
32491SOL    HW299371   0.352   7.808  11.461
32492SOL     OW99372   1.842   5.327   9.640
32492SOL    HW199373   1.769   5.309   9.700
32492SOL    HW299374   1.870   5.240   9.611
32493SOL     OW99375  14.697   6.805   2.089
32493SOL    HW199376  14.604   6.806   2.065
32493SOL    HW299377  14.705   6.733   2.152
32494SOL     OW99378  12.955  11.095   4.518
32494SOL    HW199379  12.951  11.003   4.543
32494SOL    HW299380  12.864  11.120   4.501
32495SOL     OW99381  11.207   6.107  13.750
32495SOL    HW199382  11.259   6.150  13.819
32495SOL    HW299383  11.118   6.140  13.764
32496SOL     OW99384  13.411  13.559  10.320
32496SOL    HW199385  13.442  13.484  10.370
32496SOL    HW299386  13.428  13.634  10.377
32497SOL     OW99387   9.698   5.578   8.052
32497SOL    HW199388   9.630   5.547   8.112
32497SOL    HW299389   9.658   5.574   7.965
32498SOL     OW99390   6.179  13.738   6.477
32498SOL    HW199391   6.142  13.819   6.512
32498SOL    HW299392   6.200  13.758   6.386
32499SOL     OW99393   3.963  11.745   7.572
32499SOL    HW199394   3.991  11.748   7.480
32499SOL    HW299395   4.043  11.727   7.621
32500SOL     OW99396  13.221   0.126   8.632
32500SOL    HW199397  13.139   0.166   8.604
32500SOL    HW299398  13.219   0.132   8.728
32501SOL     OW99399   4.976   4.369   7.769
32501SOL    HW199400   5.035   4.414   7.830
32501SOL    HW299401   5.014   4.385   7.683
32502SOL     OW99402   7.472  14.308  13.071
32502SOL    HW199403   7.563  14.286  13.089
32502SOL    HW299404   7.448  14.369  13.141
32503SOL     OW99405   7.176   8.605  11.942
32503SOL    HW199406   7.261   8.637  11.974
32503SOL    HW299407   7.197   8.540  11.876
32504SOL     OW99408  14.688  13.720   9.437
32504SOL    HW199409  14.610  13.769   9.410
32504SOL    HW299410  14.745  13.721   9.360
32505SOL     OW99411   8.384   1.413   0.798
32505SOL    HW199412   8.324   1.338   0.802
32505SOL    HW299413   8.329   1.487   0.774
32506SOL     OW99414  10.705   7.541  13.346
32506SOL    HW199415  10.621   7.584  13.359
32506SOL    HW299416  10.720   7.490  13.426
32507SOL     OW99417   8.045  10.910   1.211
32507SOL    HW199418   7.979  10.842   1.224
32507SOL    HW299419   8.037  10.934   1.119
32508SOL     OW99420  12.460   4.011   5.910
32508SOL    HW199421  12.473   4.026   6.004
32508SOL    HW299422  12.374   4.047   5.891
32509SOL     OW99423  14.866   3.940   0.955
32509SOL    HW199424   0.067   3.922   0.896
32509SOL    HW299425  14.788   3.927   0.900
32510SOL     OW99426   7.838   9.743  11.542
32510SOL    HW199427   7.918   9.713  11.499
32510SOL    HW299428   7.779   9.765  11.470
32511SOL     OW99429   8.692   3.878  11.766
32511SOL    HW199430   8.693   3.874  11.671
32511SOL    HW299431   8.693   3.786  11.794
32512SOL     OW99432  12.085  13.337   4.139
32512SOL    HW199433  12.150  13.366   4.203
32512SOL    HW299434  12.132  13.273   4.085
32513SOL     OW99435  11.963  10.403   6.663
32513SOL    HW199436  11.955  10.320   6.710
32513SOL    HW299437  11.909  10.392   6.585
32514SOL     OW99438  11.900   7.132   5.669
32514SOL    HW199439  11.816   7.100   5.635
32514SOL    HW299440  11.911   7.217   5.626
32515SOL     OW99441  10.428   2.825  11.455
32515SOL    HW199442  10.515   2.832  11.493
32515SOL    HW299443  10.415   2.730  11.444
32516SOL     OW99444   7.945  12.238   2.649
32516SOL    HW199445   7.878  12.260   2.585
32516SOL    HW299446   7.995  12.319   2.661
32517SOL     OW99447  10.802   9.326   1.083
32517SOL    HW199448  10.776   9.269   1.156
32517SOL    HW299449  10.720   9.349   1.040
32518SOL     OW99450   2.172   4.309   9.793
32518SOL    HW199451   2.079   4.307   9.815
32518SOL    HW299452   2.209   4.374   9.853
32519SOL     OW99453   1.475   2.814  11.586
32519SOL    HW199454   1.458   2.852  11.673
32519SOL    HW299455   1.568   2.828  11.572
32520SOL     OW99456  13.582   4.236   2.377
32520SOL    HW199457  13.535   4.315   2.404
32520SOL    HW299458  13.517   4.184   2.330
32521SOL     OW99459   2.058   4.460   3.690
32521SOL    HW199460   1.997   4.483   3.760
32521SOL    HW299461   2.030   4.513   3.615
32522SOL     OW99462  11.717   1.197   6.010
32522SOL    HW199463  11.643   1.140   5.989
32522SOL    HW299464  11.789   1.136   6.026
32523SOL     OW99465   8.924   5.180   8.488
32523SOL    HW199466   8.931   5.253   8.427
32523SOL    HW299467   8.924   5.102   8.432
32524SOL     OW99468   2.893   5.395  14.329
32524SOL    HW199469   2.830   5.429  14.393
32524SOL    HW299470   2.922   5.472  14.281
32525SOL     OW99471  11.743  10.761  10.794
32525SOL    HW199472  11.774  10.823  10.861
32525SOL    HW299473  11.823  10.727  10.754
32526SOL     OW99474  12.418   8.055  12.414
32526SOL    HW199475  12.366   7.994  12.362
32526SOL    HW299476  12.488   8.083  12.355
32527SOL     OW99477   5.965   8.387  11.960
32527SOL    HW199478   5.962   8.460  11.898
32527SOL    HW299479   6.042   8.404  12.014
32528SOL     OW99480  13.679  10.624   3.959
32528SOL    HW199481  13.639  10.682   4.024
32528SOL    HW299482  13.726  10.558   4.011
32529SOL     OW99483   6.980  10.878   3.695
32529SOL    HW199484   6.907  10.930   3.730
32529SOL    HW299485   7.051  10.941   3.684
32530SOL     OW99486   8.447   0.325   7.701
32530SOL    HW199487   8.360   0.348   7.669
32530SOL    HW299488   8.507   0.362   7.636
32531SOL     OW99489   5.803   3.777  10.182
32531SOL    HW199490   5.888   3.789  10.139
32531SOL    HW299491   5.752   3.854  10.156
32532SOL     OW99492   4.836   9.053   2.419
32532SOL    HW199493   4.866   9.136   2.454
32532SOL    HW299494   4.806   9.074   2.330
32533SOL     OW99495   0.946   5.507   4.303
32533SOL    HW199496   0.867   5.470   4.264
32533SOL    HW299497   0.982   5.436   4.355
32534SOL     OW99498  14.195   2.440   7.145
32534SOL    HW199499  14.291   2.445   7.150
32534SOL    HW299500  14.171   2.375   7.210
32535SOL     OW99501  10.916   0.998   0.414
32535SOL    HW199502  10.906   1.089   0.388
32535SOL    HW299503  10.860   0.989   0.492
32536SOL     OW99504   4.616  14.689   0.870
32536SOL    HW199505   4.623  14.617   0.932
32536SOL    HW299506   4.609  14.647   0.784
32537SOL     OW99507  14.335   5.636  11.605
32537SOL    HW199508  14.338   5.638  11.701
32537SOL    HW299509  14.392   5.563  11.581
32538SOL     OW99510   6.955   4.601  10.594
32538SOL    HW199511   7.022   4.654  10.551
32538SOL    HW299512   6.955   4.518  10.546
32539SOL     OW99513  11.364   8.923  10.096
32539SOL    HW199514  11.418   9.001  10.090
32539SOL    HW299515  11.426   8.850  10.101
32540SOL     OW99516  13.735   9.186   9.308
32540SOL    HW199517  13.684   9.260   9.275
32540SOL    HW299518  13.716   9.184   9.402
32541SOL     OW99519  14.855  10.043  10.294
32541SOL    HW199520   0.072  10.079  10.304
32541SOL    HW299521  14.867   9.964  10.240
32542SOL     OW99522   4.768   4.653   9.035
32542SOL    HW199523   4.747   4.707   9.110
32542SOL    HW299524   4.813   4.712   8.975
32543SOL     OW99525   1.227   0.263   5.283
32543SOL    HW199526   1.224   0.343   5.231
32543SOL    HW299527   1.312   0.266   5.327
32544SOL     OW99528   2.832  11.049  12.912
32544SOL    HW199529   2.820  10.961  12.876
32544SOL    HW299530   2.793  11.045  12.999
32545SOL     OW99531   1.018   5.800   1.338
32545SOL    HW199532   1.104   5.840   1.352
32545SOL    HW299533   1.007   5.741   1.412
32546SOL     OW99534   0.522   9.077   3.637
32546SOL    HW199535   0.600   9.078   3.693
32546SOL    HW299536   0.452   9.044   3.693
32547SOL     OW99537   8.921   2.462   4.050
32547SOL    HW199538   8.943   2.432   3.962
32547SOL    HW299539   8.840   2.512   4.040
32548SOL     OW99540  14.563   5.731   0.356
32548SOL    HW199541  14.517   5.812   0.332
32548SOL    HW299542  14.546   5.721   0.449
32549SOL     OW99543   8.240   9.676   9.641
32549SOL    HW199544   8.146   9.678   9.625
32549SOL    HW299545   8.274   9.612   9.578
32550SOL     OW99546   5.305   3.528   4.388
32550SOL    HW199547   5.221   3.500   4.351
32550SOL    HW299548   5.292   3.521   4.483
32551SOL     OW99549   2.203   8.055   9.773
32551SOL    HW199550   2.128   8.100   9.812
32551SOL    HW299551   2.240   8.004   9.844
32552SOL     OW99552   4.532   0.368   9.188
32552SOL    HW199553   4.540   0.303   9.119
32552SOL    HW299554   4.480   0.326   9.256
32553SOL     OW99555  12.777  13.931  11.784
32553SOL    HW199556  12.706  13.866  11.775
32553SOL    HW299557  12.856  13.882  11.763
32554SOL     OW99558   2.984   8.720   6.183
32554SOL    HW199559   3.027   8.640   6.154
32554SOL    HW299560   3.040   8.790   6.151
32555SOL     OW99561  11.283   5.464  13.037
32555SOL    HW199562  11.215   5.513  13.082
32555SOL    HW299563  11.291   5.382  13.087
32556SOL     OW99564  10.622   3.901   8.381
32556SOL    HW199565  10.612   3.856   8.465
32556SOL    HW299566  10.542   3.882   8.333
32557SOL     OW99567   4.617  13.430   3.802
32557SOL    HW199568   4.597  13.438   3.709
32557SOL    HW299569   4.640  13.338   3.814
32558SOL     OW99570  10.122  14.252   8.233
32558SOL    HW199571  10.056  14.322   8.236
32558SOL    HW299572  10.080  14.181   8.184
32559SOL     OW99573   6.294   9.495  12.367
32559SOL    HW199574   6.345   9.570  12.335
32559SOL    HW299575   6.350   9.453  12.432
32560SOL     OW99576  11.827  14.148   8.024
32560SOL    HW199577  11.859  14.117   8.109
32560SOL    HW299578  11.760  14.212   8.046
32561SOL     OW99579  10.839   0.222   1.693
32561SOL    HW199580  10.932   0.209   1.671
32561SOL    HW299581  10.827   0.174   1.775
32562SOL     OW99582   5.568   6.320   7.359
32562SOL    HW199583   5.499   6.366   7.312
32562SOL    HW299584   5.522   6.260   7.418
32563SOL     OW99585   1.106  13.663   6.694
32563SOL    HW199586   1.081  13.753   6.711
32563SOL    HW299587   1.149  13.665   6.608
32564SOL     OW99588  10.179   9.749   9.999
32564SOL    HW199589  10.112   9.697  10.042
32564SOL    HW299590  10.160   9.839  10.026
32565SOL     OW99591  12.674  10.748   4.057
32565SOL    HW199592  12.627  10.718   4.134
32565SOL    HW299593  12.650  10.687   3.988
32566SOL     OW99594   4.083   2.533   3.851
32566SOL    HW199595   4.040   2.594   3.791
32566SOL    HW299596   4.015   2.471   3.875
32567SOL     OW99597   9.549   5.390  11.460
32567SOL    HW199598   9.609   5.389  11.386
32567SOL    HW299599   9.594   5.442  11.527
32568SOL     OW99600   0.875  11.719   0.479
32568SOL    HW199601   0.949  11.759   0.432
32568SOL    HW299602   0.878  11.627   0.452
32569SOL     OW99603   1.005   3.543  12.465
32569SOL    HW199604   0.927   3.506  12.507
32569SOL    HW299605   1.009   3.633  12.498
32570SOL     OW99606   5.587  11.919   6.656
32570SOL    HW199607   5.541  11.836   6.666
32570SOL    HW299608   5.675  11.902   6.690
32571SOL     OW99609  10.684  10.175   6.097
32571SOL    HW199610  10.714  10.236   6.164
32571SOL    HW299611  10.714  10.089   6.127
32572SOL     OW99612   4.103   7.666   5.594
32572SOL    HW199613   4.132   7.581   5.628
32572SOL    HW299614   4.027   7.646   5.540
32573SOL     OW99615   0.447   9.006  11.674
32573SOL    HW199616   0.458   8.998  11.579
32573SOL    HW299617   0.360   8.969  11.691
32574SOL     OW99618   1.893   0.863   5.385
32574SOL    HW199619   1.922   0.948   5.352
32574SOL    HW299620   1.803   0.854   5.353
32575SOL     OW99621  12.975   8.165   6.138
32575SOL    HW199622  12.894   8.123   6.106
32575SOL    HW299623  12.959   8.182   6.230
32576SOL     OW99624  12.619  14.631  14.231
32576SOL    HW199625  12.597  14.558  14.290
32576SOL    HW299626  12.585  14.603  14.146
32577SOL     OW99627   4.481   8.549   3.669
32577SOL    HW199628   4.418   8.505   3.727
32577SOL    HW299629   4.429   8.577   3.594
32578SOL     OW99630  11.647   5.551  11.117
32578SOL    HW199631  11.567   5.502  11.098
32578SOL    HW299632  11.695   5.553  11.035
32579SOL     OW99633  11.094  13.513   4.807
32579SOL    HW199634  11.081  13.565   4.728
32579SOL    HW299635  11.113  13.425   4.775
32580SOL     OW99636  11.137   2.424  10.347
32580SOL    HW199637  11.070   2.491  10.333
32580SOL    HW299638  11.220   2.473  10.346
32581SOL     OW99639   1.201   7.684   2.535
32581SOL    HW199640   1.179   7.614   2.474
32581SOL    HW299641   1.125   7.743   2.533
32582SOL     OW99642   1.816  14.559  12.543
32582SOL    HW199643   1.873  14.604  12.480
32582SOL    HW299644   1.817  14.468  12.515
32583SOL     OW99645  14.695   2.268   8.486
32583SOL    HW199646  14.657   2.185   8.515
32583SOL    HW299647  14.690   2.325   8.563
32584SOL     OW99648   4.736   7.979   2.343
32584SOL    HW199649   4.704   7.889   2.353
32584SOL    HW299650   4.804   7.972   2.276
32585SOL     OW99651   8.400   0.058  11.377
32585SOL    HW199652   8.434   0.062  11.467
32585SOL    HW299653   8.450  14.858  11.336
32586SOL     OW99654   4.563   2.252   0.396
32586SOL    HW199655   4.536   2.341   0.372
32586SOL    HW299656   4.568   2.254   0.492
32587SOL     OW99657   9.810  13.482   3.991
32587SOL    HW199658   9.821  13.388   3.976
32587SOL    HW299659   9.778  13.490   4.081
32588SOL     OW99660   5.358  10.130   0.552
32588SOL    HW199661   5.417  10.200   0.524
32588SOL    HW299662   5.322  10.161   0.635
32589SOL     OW99663  14.152   4.622  14.697
32589SOL    HW199664  14.169   4.645  14.788
32589SOL    HW299665  14.238   4.621  14.656
32590SOL     OW99666   1.263  11.987  10.974
32590SOL    HW199667   1.220  11.963  10.892
32590SOL    HW299668   1.192  12.022  11.028
32591SOL     OW99669  10.640   8.272   0.988
32591SOL    HW199670  10.703   8.335   0.952
32591SOL    HW299671  10.650   8.194   0.934
32592SOL     OW99672   5.820   1.145   1.081
32592SOL    HW199673   5.742   1.135   1.136
32592SOL    HW299674   5.789   1.191   1.003
32593SOL     OW99675   9.294   5.172   8.893
32593SOL    HW199676   9.389   5.178   8.891
32593SOL    HW299677   9.268   5.184   8.801
32594SOL     OW99678   9.632   5.812   3.841
32594SOL    HW199679   9.590   5.773   3.918
32594SOL    HW299680   9.724   5.785   3.847
32595SOL     OW99681   4.085   7.005   3.266
32595SOL    HW199682   4.036   6.966   3.338
32595SOL    HW299683   4.151   7.060   3.309
32596SOL     OW99684   5.882  13.824   3.157
32596SOL    HW199685   5.826  13.747   3.152
32596SOL    HW299686   5.971  13.791   3.147
32597SOL     OW99687   1.365  12.751  10.631
32597SOL    HW199688   1.337  12.677  10.685
32597SOL    HW299689   1.340  12.727  10.542
32598SOL     OW99690  13.653   1.609   5.567
32598SOL    HW199691  13.582   1.563   5.522
32598SOL    HW299692  13.691   1.666   5.501
32599SOL     OW99693   1.605  13.486   8.096
32599SOL    HW199694   1.697  13.480   8.068
32599SOL    HW299695   1.593  13.410   8.154
32600SOL     OW99696   9.926  13.582  10.055
32600SOL    HW199697   9.951  13.667  10.091
32600SOL    HW299698  10.004  13.527  10.068
32601SOL     OW99699  10.591  11.966  14.303
32601SOL    HW199700  10.539  12.023  14.360
32601SOL    HW299701  10.585  11.880  14.345
32602SOL     OW99702  10.435   3.559   3.045
32602SOL    HW199703  10.418   3.561   2.951
32602SOL    HW299704  10.425   3.467   3.070
32603SOL     OW99705   7.550   6.581  12.040
32603SOL    HW199706   7.492   6.506  12.027
32603SOL    HW299707   7.532   6.609  12.130
32604SOL     OW99708   8.250  12.198   2.330
32604SOL    HW199709   8.334  12.167   2.295
32604SOL    HW299710   8.186  12.135   2.298
32605SOL     OW99711   9.490  10.041   7.069
32605SOL    HW199712   9.541  10.114   7.103
32605SOL    HW299713   9.400  10.060   7.094
32606SOL     OW99714   7.763   7.500   6.198
32606SOL    HW199715   7.772   7.410   6.231
32606SOL    HW299716   7.711   7.545   6.265
32607SOL     OW99717  12.427   6.796   0.308
32607SOL    HW199718  12.468   6.762   0.388
32607SOL    HW299719  12.473   6.878   0.290
32608SOL     OW99720   2.091   8.534  11.269
32608SOL    HW199721   2.138   8.615  11.247
32608SOL    HW299722   2.059   8.549  11.358
32609SOL     OW99723  11.023   2.242  14.108
32609SOL    HW199724  11.052   2.249  14.017
32609SOL    HW299725  11.085   2.295  14.157
32610SOL     OW99726   5.243   1.261   4.140
32610SOL    HW199727   5.241   1.280   4.234
32610SOL    HW299728   5.316   1.200   4.130
32611SOL     OW99729  12.899   2.616   7.997
32611SOL    HW199730  12.835   2.632   8.067
32611SOL    HW299731  12.972   2.572   8.042
32612SOL     OW99732  11.676  14.217  10.797
32612SOL    HW199733  11.620  14.141  10.808
32612SOL    HW299734  11.642  14.281  10.859
32613SOL     OW99735   1.674  10.316   4.562
32613SOL    HW199736   1.693  10.400   4.603
32613SOL    HW299737   1.757  10.289   4.523
32614SOL     OW99738   1.540   7.533   3.714
32614SOL    HW199739   1.598   7.484   3.773
32614SOL    HW299740   1.569   7.624   3.723
32615SOL     OW99741  11.232   5.355  11.318
32615SOL    HW199742  11.145   5.336  11.283
32615SOL    HW299743  11.276   5.270  11.320
32616SOL     OW99744   3.356  10.531   7.208
32616SOL    HW199745   3.427  10.467   7.201
32616SOL    HW299746   3.360  10.581   7.127
32617SOL     OW99747   1.927  12.680   8.233
32617SOL    HW199748   1.964  12.758   8.192
32617SOL    HW299749   1.978  12.607   8.196
32618SOL     OW99750   1.269  10.104   1.796
32618SOL    HW199751   1.293  10.140   1.711
32618SOL    HW299752   1.310  10.018   1.798
32619SOL     OW99753   0.223   7.420  11.687
32619SOL    HW199754   0.219   7.468  11.604
32619SOL    HW299755   0.273   7.477  11.745
32620SOL     OW99756   7.206   7.672  11.694
32620SOL    HW199757   7.216   7.682  11.599
32620SOL    HW299758   7.144   7.600  11.703
32621SOL     OW99759  14.622   0.247   8.026
32621SOL    HW199760  14.560   0.319   8.022
32621SOL    HW299761  14.690   0.276   8.087
32622SOL     OW99762  14.654   4.061   2.144
32622SOL    HW199763  14.571   4.059   2.192
32622SOL    HW299764  14.709   4.122   2.193
32623SOL     OW99765  14.633   8.950   6.671
32623SOL    HW199766  14.633   8.977   6.762
32623SOL    HW299767  14.587   8.866   6.671
32624SOL     OW99768   6.480   2.891   5.191
32624SOL    HW199769   6.393   2.926   5.212
32624SOL    HW299770   6.475   2.868   5.098
32625SOL     OW99771  12.465   1.813  12.198
32625SOL    HW199772  12.394   1.821  12.135
32625SOL    HW299773  12.518   1.892  12.185
32626SOL     OW99774   4.254   8.576   3.386
32626SOL    HW199775   4.204   8.587   3.305
32626SOL    HW299776   4.198   8.615   3.453
32627SOL     OW99777   9.803   5.352   8.558
32627SOL    HW199778   9.717   5.393   8.546
32627SOL    HW299779   9.829   5.325   8.470
32628SOL     OW99780   0.454   8.619   5.938
32628SOL    HW199781   0.373   8.646   5.981
32628SOL    HW299782   0.501   8.700   5.922
32629SOL     OW99783  11.557   7.463   8.530
32629SOL    HW199784  11.577   7.436   8.620
32629SOL    HW299785  11.579   7.556   8.528
32630SOL     OW99786  11.148  14.346   5.139
32630SOL    HW199787  11.240  14.322   5.149
32630SOL    HW299788  11.145  14.405   5.064
32631SOL     OW99789   9.599   7.404  10.542
32631SOL    HW199790   9.588   7.345  10.617
32631SOL    HW299791   9.581   7.491  10.578
32632SOL     OW99792   3.780  12.626   9.904
32632SOL    HW199793   3.861  12.596   9.945
32632SOL    HW299794   3.783  12.588   9.816
32633SOL     OW99795  11.093   2.375   3.246
32633SOL    HW199796  11.008   2.359   3.206
32633SOL    HW299797  11.075   2.380   3.340
32634SOL     OW99798   4.626  10.649   6.770
32634SOL    HW199799   4.578  10.612   6.844
32634SOL    HW299800   4.680  10.577   6.737
32635SOL     OW99801   7.646   3.492   7.300
32635SOL    HW199802   7.554   3.511   7.281
32635SOL    HW299803   7.657   3.401   7.272
32636SOL     OW99804  10.926   3.036   9.290
32636SOL    HW199805  10.939   3.032   9.195
32636SOL    HW299806  10.831   3.037   9.301
32637SOL     OW99807  11.868   7.016   7.946
32637SOL    HW199808  11.854   6.980   7.858
32637SOL    HW299809  11.812   6.963   8.003
32638SOL     OW99810  11.877  13.937  11.597
32638SOL    HW199811  11.837  14.023  11.592
32638SOL    HW299812  11.852  13.894  11.515
32639SOL     OW99813   2.143   3.725   0.315
32639SOL    HW199814   2.230   3.745   0.349
32639SOL    HW299815   2.103   3.811   0.300
32640SOL     OW99816  14.823   2.087  12.022
32640SOL    HW199817  14.855   2.077  11.933
32640SOL    HW299818  14.777   2.005  12.041
32641SOL     OW99819  13.776  14.481   9.770
32641SOL    HW199820  13.790  14.398   9.725
32641SOL    HW299821  13.848  14.489   9.831
32642SOL     OW99822   9.149   4.928   2.135
32642SOL    HW199823   9.146   4.957   2.043
32642SOL    HW299824   9.081   4.861   2.141
32643SOL     OW99825   5.804  11.537  13.887
32643SOL    HW199826   5.782  11.600  13.956
32643SOL    HW299827   5.900  11.532  13.889
32644SOL     OW99828   9.739   6.919   2.662
32644SOL    HW199829   9.796   6.910   2.739
32644SOL    HW299830   9.724   7.014   2.655
32645SOL     OW99831  12.405   1.475  13.489
32645SOL    HW199832  12.448   1.555  13.458
32645SOL    HW299833  12.420   1.411  13.420
32646SOL     OW99834  10.176   2.614  14.578
32646SOL    HW199835  10.183   2.538  14.636
32646SOL    HW299836  10.156   2.687  14.638
32647SOL     OW99837   2.101  14.852  12.571
32647SOL    HW199838   2.034   0.044  12.544
32647SOL    HW299839   2.102  14.858  12.667
32648SOL     OW99840   0.200   8.131  11.863
32648SOL    HW199841   0.250   8.198  11.910
32648SOL    HW299842   0.242   8.048  11.888
32649SOL     OW99843   0.494   0.729   2.434
32649SOL    HW199844   0.461   0.643   2.461
32649SOL    HW299845   0.585   0.713   2.408
32650SOL     OW99846  11.338  14.700   2.061
32650SOL    HW199847  11.350  14.781   2.011
32650SOL    HW299848  11.263  14.657   2.020
32651SOL     OW99849   3.799  10.740  12.877
32651SOL    HW199850   3.803  10.744  12.782
32651SOL    HW299851   3.727  10.680  12.896
32652SOL     OW99852   0.625   8.762  12.897
32652SOL    HW199853   0.670   8.696  12.845
32652SOL    HW299854   0.618   8.722  12.984
32653SOL     OW99855   0.472  14.242   1.014
32653SOL    HW199856   0.486  14.287   1.098
32653SOL    HW299857   0.536  14.171   1.015
32654SOL     OW99858   3.672  11.541  14.831
32654SOL    HW199859   3.587  11.550  14.789
32654SOL    HW299860   3.701  11.453  14.808
32655SOL     OW99861   0.244  14.695  13.768
32655SOL    HW199862   0.333  14.664  13.786
32655SOL    HW299863   0.188  14.619  13.785
32656SOL     OW99864  14.674   8.488   2.391
32656SOL    HW199865  14.588   8.531   2.390
32656SOL    HW299866  14.695   8.478   2.483
32657SOL     OW99867  14.285   7.869   5.850
32657SOL    HW199868  14.360   7.927   5.836
32657SOL    HW299869  14.314   7.784   5.819
32658SOL     OW99870   2.601   0.917   0.615
32658SOL    HW199871   2.636   0.946   0.699
32658SOL    HW299872   2.661   0.849   0.585
32659SOL     OW99873   7.522   7.496  13.175
32659SOL    HW199874   7.548   7.505  13.083
32659SOL    HW299875   7.433   7.531  13.178
32660SOL     OW99876   6.427   8.065   2.510
32660SOL    HW199877   6.467   8.100   2.430
32660SOL    HW299878   6.395   7.978   2.485
32661SOL     OW99879   3.049   7.460   0.750
32661SOL    HW199880   3.041   7.367   0.728
32661SOL    HW299881   2.966   7.498   0.722
32662SOL     OW99882   4.139  11.372   2.775
32662SOL    HW199883   4.175  11.283   2.780
32662SOL    HW299884   4.148  11.395   2.682
32663SOL     OW99885   0.794   7.521   2.837
32663SOL    HW199886   0.764   7.508   2.927
32663SOL    HW299887   0.752   7.451   2.787
32664SOL     OW99888   4.476   8.964   6.265
32664SOL    HW199889   4.444   8.878   6.295
32664SOL    HW299890   4.487   8.953   6.171
32665SOL     OW99891  13.375   7.091   8.823
32665SOL    HW199892  13.317   7.116   8.751
32665SOL    HW299893  13.382   6.996   8.817
32666SOL     OW99894   4.204  10.695   9.299
32666SOL    HW199895   4.274  10.641   9.338
32666SOL    HW299896   4.175  10.752   9.371
32667SOL     OW99897   2.888  13.056   7.269
32667SOL    HW199898   2.881  12.970   7.310
32667SOL    HW299899   2.816  13.058   7.207
32668SOL     OW99900   0.223  11.154   0.585
32668SOL    HW199901   0.173  11.189   0.659
32668SOL    HW299902   0.230  11.228   0.524
32669SOL     OW99903  14.496   8.375   5.695
32669SOL    HW199904  14.544   8.316   5.637
32669SOL    HW299905  14.531   8.462   5.675
32670SOL     OW99906   6.426   2.121   0.673
32670SOL    HW199907   6.428   2.137   0.768
32670SOL    HW299908   6.402   2.028   0.666
32671SOL     OW99909  13.814   0.694   4.598
32671SOL    HW199910  13.788   0.786   4.596
32671SOL    HW299911  13.770   0.658   4.675
32672SOL     OW99912  13.558  10.709   1.686
32672SOL    HW199913  13.632  10.651   1.668
32672SOL    HW299914  13.512  10.666   1.759
32673SOL     OW99915   9.803   1.095   8.444
32673SOL    HW199916   9.731   1.087   8.506
32673SOL    HW299917   9.826   1.188   8.446
32674SOL     OW99918   1.304   2.228  13.300
32674SOL    HW199919   1.321   2.134  13.310
32674SOL    HW299920   1.350   2.253  13.219
32675SOL     OW99921  12.760   5.751   6.675
32675SOL    HW199922  12.822   5.816   6.643
32675SOL    HW299923  12.802   5.713   6.752
32676SOL     OW99924  10.118   8.685   0.591
32676SOL    HW199925  10.160   8.729   0.666
32676SOL    HW299926  10.063   8.753   0.552
32677SOL     OW99927   2.752   2.902   8.188
32677SOL    HW199928   2.714   2.896   8.276
32677SOL    HW299929   2.839   2.864   8.196
32678SOL     OW99930   2.418  13.193  11.956
32678SOL    HW199931   2.499  13.146  11.979
32678SOL    HW299932   2.448  13.272  11.911
32679SOL     OW99933   1.435   7.256  14.764
32679SOL    HW199934   1.383   7.176  14.774
32679SOL    HW299935   1.372   7.322  14.736
32680SOL     OW99936   3.246   6.150   4.720
32680SOL    HW199937   3.219   6.094   4.792
32680SOL    HW299938   3.206   6.235   4.739
32681SOL     OW99939   8.151   9.779  13.972
32681SOL    HW199940   8.103   9.861  13.985
32681SOL    HW299941   8.149   9.765  13.877
32682SOL     OW99942  10.518   2.011   4.757
32682SOL    HW199943  10.541   1.938   4.814
32682SOL    HW299944  10.424   2.002   4.743
32683SOL     OW99945   9.518   2.422   4.118
32683SOL    HW199946   9.498   2.349   4.177
32683SOL    HW299947   9.503   2.386   4.031
32684SOL     OW99948   7.539  14.598   5.554
32684SOL    HW199949   7.539  14.561   5.466
32684SOL    HW299950   7.630  14.591   5.583
32685SOL     OW99951  12.299   1.258  14.037
32685SOL    HW199952  12.284   1.165  14.056
32685SOL    HW299953  12.226   1.303  14.079
32686SOL     OW99954  14.723  11.473   5.303
32686SOL    HW199955  14.795  11.486   5.242
32686SOL    HW299956  14.763  11.435   5.380
32687SOL     OW99957   4.178   3.762   1.775
32687SOL    HW199958   4.151   3.682   1.820
32687SOL    HW299959   4.132   3.759   1.691
32688SOL     OW99960   5.652   0.183   7.054
32688SOL    HW199961   5.564   0.212   7.028
32688SOL    HW299962   5.692   0.259   7.096
32689SOL     OW99963  13.560  13.049   7.411
32689SOL    HW199964  13.640  13.101   7.408
32689SOL    HW299965  13.544  13.026   7.319
32690SOL     OW99966   9.000   4.596  11.992
32690SOL    HW199967   8.945   4.528  11.953
32690SOL    HW299968   8.988   4.672  11.935
32691SOL     OW99969   6.627   2.775  11.624
32691SOL    HW199970   6.676   2.838  11.677
32691SOL    HW299971   6.557   2.744  11.681
32692SOL     OW99972   6.321   0.119  13.623
32692SOL    HW199973   6.403   0.076  13.644
32692SOL    HW299974   6.255   0.072  13.674
32693SOL     OW99975  14.665  10.311  12.353
32693SOL    HW199976  14.698  10.383  12.299
32693SOL    HW299977  14.578  10.293  12.319
32694SOL     OW99978  10.384  12.557   6.354
32694SOL    HW199979  10.355  12.484   6.300
32694SOL    HW299980  10.462  12.591   6.309
32695SOL     OW99981   6.693  13.110  11.592
32695SOL    HW199982   6.672  13.062  11.672
32695SOL    HW299983   6.737  13.045  11.537
32696SOL     OW99984   1.114   3.269   6.500
32696SOL    HW199985   1.045   3.326   6.534
32696SOL    HW299986   1.181   3.270   6.569
32697SOL     OW99987   3.493   6.569  10.756
32697SOL    HW199988   3.469   6.498  10.697
32697SOL    HW299989   3.421   6.632  10.748
32698SOL     OW99990  11.921  10.749   2.639
32698SOL    HW199991  11.853  10.760   2.571
32698SOL    HW299992  11.928  10.836   2.679
32699SOL     OW99993  14.065   4.649   9.214
32699SOL    HW199994  14.055   4.578   9.278
32699SOL    HW299995  14.006   4.717   9.245
32700SOL     OW99996   4.599   1.003   9.164
32700SOL    HW199997   4.624   1.024   9.254
32700SOL    HW299998   4.515   1.048   9.151
32701SOL     OW99999   2.297   6.826  14.115
32701SOL    HW1    0   2.308   6.763  14.186
32701SOL    HW2    1   2.281   6.773  14.037
32702SOL     OW    2   2.402   0.483  13.812
32702SOL    HW1    3   2.336   0.479  13.743
32702SOL    HW2    4   2.386   0.404  13.864
32703SOL     OW    5  14.538   2.427   1.491
32703SOL    HW1    6  14.490   2.465   1.417
32703SOL    HW2    7  14.603   2.493   1.513
32704SOL     OW    8   1.193  12.018  13.780
32704SOL    HW1    9   1.278  12.048  13.813
32704SOL    HW2   10   1.211  11.932  13.743
32705SOL     OW   11   1.093   9.742  12.595
32705SOL    HW1   12   1.101   9.726  12.689
32705SOL    HW2   13   1.179   9.778  12.570
32706SOL     OW   14  11.392   8.207   6.395
32706SOL    HW1   15  11.389   8.260   6.475
32706SOL    HW2   16  11.477   8.227   6.356
32707SOL     OW   17   7.469   4.960  12.931
32707SOL    HW1   18   7.478   5.038  12.986
32707SOL    HW2   19   7.503   4.986  12.846
32708SOL     OW   20   6.010  11.901  11.156
32708SOL    HW1   21   5.956  11.919  11.233
32708SOL    HW2   22   6.053  11.818  11.176
32709SOL     OW   23   9.921  13.371   6.029
32709SOL    HW1   24   9.939  13.277   6.027
32709SOL    HW2   25   9.831  13.377   6.060
32710SOL     OW   26   4.835  14.256  10.864
32710SOL    HW1   27   4.878  14.200  10.800
32710SOL    HW2   28   4.749  14.215  10.877
32711SOL     OW   29  10.745   5.151   4.155
32711SOL    HW1   30  10.729   5.115   4.068
32711SOL    HW2   31  10.828   5.113   4.182
32712SOL     OW   32   4.067   7.628   8.662
32712SOL    HW1   33   4.116   7.648   8.742
32712SOL    HW2   34   4.003   7.563   8.689
32713SOL     OW   35   8.192   7.026   4.697
32713SOL    HW1   36   8.103   7.059   4.685
32713SOL    HW2   37   8.241   7.102   4.730
32714SOL     OW   38  14.122   0.232   6.628
32714SOL    HW1   39  14.046   0.173   6.619
32714SOL    HW2   40  14.084   0.316   6.652
32715SOL     OW   41  10.609  13.577   1.102
32715SOL    HW1   42  10.584  13.525   1.025
32715SOL    HW2   43  10.683  13.529   1.140
32716SOL     OW   44   5.403   4.481  10.140
32716SOL    HW1   45   5.336   4.470  10.072
32716SOL    HW2   46   5.412   4.575  10.149
32717SOL     OW   47  12.149   8.339  13.190
32717SOL    HW1   48  12.183   8.403  13.128
32717SOL    HW2   49  12.225   8.312  13.241
32718SOL     OW   50   3.060   6.730   5.618
32718SOL    HW1   51   3.026   6.643   5.638
32718SOL    HW2   52   3.037   6.745   5.527
32719SOL     OW   53   5.010   3.873   6.985
32719SOL    HW1   54   4.973   3.787   6.966
32719SOL    HW2   55   5.013   3.917   6.899
32720SOL     OW   56   2.764   2.679   5.439
32720SOL    HW1   57   2.801   2.752   5.389
32720SOL    HW2   58   2.792   2.601   5.392
32721SOL     OW   59   6.608  11.160   2.842
32721SOL    HW1   60   6.589  11.070   2.813
32721SOL    HW2   61   6.541  11.178   2.909
32722SOL     OW   62   5.500  14.738   5.781
32722SOL    HW1   63   5.551  14.659   5.800
32722SOL    HW2   64   5.550  14.810   5.819
32723SOL     OW   65   1.354   8.676   7.831
32723SOL    HW1   66   1.443   8.657   7.800
32723SOL    HW2   67   1.303   8.598   7.808
32724SOL     OW   68   8.372   8.573  11.805
32724SOL    HW1   69   8.407   8.524  11.730
32724SOL    HW2   70   8.402   8.524  11.882
32725SOL     OW   71   5.318   3.601  11.810
32725SOL    HW1   72   5.394   3.639  11.766
32725SOL    HW2   73   5.306   3.653  11.889
32726SOL     OW   74  14.347  12.722  11.778
32726SOL    HW1   75  14.302  12.745  11.697
32726SOL    HW2   76  14.362  12.628  11.771
32727SOL     OW   77   9.545   2.737   2.942
32727SOL    HW1   78   9.508   2.773   2.861
32727SOL    HW2   79   9.627   2.785   2.954
32728SOL     OW   80   6.349   4.063  14.611
32728SOL    HW1   81   6.327   4.050  14.519
32728SOL    HW2   82   6.273   4.029  14.659
32729SOL     OW   83   2.487  13.466  11.067
32729SOL    HW1   84   2.552  13.499  11.005
32729SOL    HW2   85   2.495  13.371  11.063
32730SOL     OW   86   5.973  14.588   2.948
32730SOL    HW1   87   5.978  14.549   3.035
32730SOL    HW2   88   6.039  14.541   2.896
32731SOL     OW   89   7.993   7.323   6.546
32731SOL    HW1   90   8.039   7.340   6.628
32731SOL    HW2   91   7.953   7.237   6.559
32732SOL     OW   92  14.383   5.535  12.682
32732SOL    HW1   93  14.332   5.462  12.718
32732SOL    HW2   94  14.331   5.566  12.608
32733SOL     OW   95   6.988   2.103   0.283
32733SOL    HW1   96   6.930   2.177   0.265
32733SOL    HW2   97   6.980   2.088   0.377
32734SOL     OW   98   7.625   5.121  13.723
32734SOL    HW1   99   7.624   5.216  13.726
32734SOL    HW2  100   7.644   5.093  13.812
32735SOL     OW  101  13.073  13.370  14.361
32735SOL    HW1  102  13.095  13.457  14.395
32735SOL    HW2  103  13.091  13.310  14.434
32736SOL     OW  104   5.703   8.151  14.796
32736SOL    HW1  105   5.766   8.192  14.855
32736SOL    HW2  106   5.756   8.100  14.735
32737SOL     OW  107   9.242   5.847   9.124
32737SOL    HW1  108   9.313   5.887   9.174
32737SOL    HW2  109   9.166   5.900   9.145
32738SOL     OW  110   4.803   2.121   7.417
32738SOL    HW1  111   4.847   2.058   7.361
32738SOL    HW2  112   4.872   2.155   7.474
32739SOL     OW  113  14.853   6.466   3.857
32739SOL    HW1  114  14.859   6.409   3.934
32739SOL    HW2  115  14.760   6.471   3.837
32740SOL     OW  116   8.817   1.528   8.216
32740SOL    HW1  117   8.761   1.606   8.218
32740SOL    HW2  118   8.854   1.523   8.304
32741SOL     OW  119   9.670   0.912   0.779
32741SOL    HW1  120   9.724   0.894   0.857
32741SOL    HW2  121   9.615   0.834   0.770
32742SOL     OW  122  13.984   4.730   7.307
32742SOL    HW1  123  13.901   4.696   7.341
32742SOL    HW2  124  14.029   4.765   7.384
32743SOL     OW  125   1.854   7.384   7.122
32743SOL    HW1  126   1.779   7.436   7.150
32743SOL    HW2  127   1.826   7.340   7.043
32744SOL     OW  128  14.665   1.278   0.295
32744SOL    HW1  129  14.688   1.186   0.310
32744SOL    HW2  130  14.631   1.279   0.205
32745SOL     OW  131   3.946   3.836   9.806
32745SOL    HW1  132   3.964   3.878   9.722
32745SOL    HW2  133   3.886   3.896   9.850
32746SOL     OW  134   9.848   9.554  10.953
32746SOL    HW1  135   9.944   9.547  10.953
32746SOL    HW2  136   9.818   9.465  10.971
32747SOL     OW  137   9.655   6.411   0.518
32747SOL    HW1  138   9.644   6.316   0.505
32747SOL    HW2  139   9.745   6.428   0.491
32748SOL     OW  140   3.075   8.052  13.956
32748SOL    HW1  141   3.074   7.959  13.933
32748SOL    HW2  142   3.121   8.056  14.040
32749SOL     OW  143  12.295   1.900   0.651
32749SOL    HW1  144  12.284   1.879   0.558
32749SOL    HW2  145  12.344   1.983   0.651
32750SOL     OW  146  14.523   5.916   9.168
32750SOL    HW1  147  14.573   5.929   9.249
32750SOL    HW2  148  14.588   5.928   9.098
32751SOL     OW  149   5.144  11.037   9.452
32751SOL    HW1  150   5.081  10.966   9.468
32751SOL    HW2  151   5.111  11.081   9.374
32752SOL     OW  152   7.991  10.557  10.318
32752SOL    HW1  153   8.001  10.638  10.368
32752SOL    HW2  154   8.035  10.574  10.235
32753SOL     OW  155   6.913  13.752   9.765
32753SOL    HW1  156   6.845  13.769   9.831
32753SOL    HW2  157   6.908  13.658   9.749
32754SOL     OW  158  10.048  10.225  10.765
32754SOL    HW1  159  10.015  10.142  10.799
32754SOL    HW2  160  10.058  10.281  10.842
32755SOL     OW  161  14.383  12.293   8.704
32755SOL    HW1  162  14.332  12.260   8.778
32755SOL    HW2  163  14.354  12.241   8.629
32756SOL     OW  164  12.881   6.161  13.947
32756SOL    HW1  165  12.838   6.157  13.862
32756SOL    HW2  166  12.818   6.124  14.008
32757SOL     OW  167   1.556  10.769  10.314
32757SOL    HW1  168   1.537  10.845  10.369
32757SOL    HW2  169   1.652  10.766  10.310
32758SOL     OW  170  10.295  10.132  14.172
32758SOL    HW1  171  10.300  10.197  14.102
32758SOL    HW2  172  10.354  10.062  14.145
32759SOL     OW  173   4.854  14.137   0.106
32759SOL    HW1  174   4.782  14.199   0.092
32759SOL    HW2  175   4.883  14.154   0.196
32760SOL     OW  176   6.873  12.045   0.765
32760SOL    HW1  177   6.940  12.082   0.823
32760SOL    HW2  178   6.903  11.956   0.747
32761SOL     OW  179   1.615   9.089  10.441
32761SOL    HW1  180   1.598   9.010  10.390
32761SOL    HW2  181   1.624   9.159  10.376
32762SOL     OW  182   8.006   1.805   0.514
32762SOL    HW1  183   8.086   1.796   0.566
32762SOL    HW2  184   8.034   1.789   0.424
32763SOL     OW  185   1.753   6.112   3.511
32763SOL    HW1  186   1.693   6.042   3.486
32763SOL    HW2  187   1.786   6.146   3.428
32764SOL     OW  188  10.238   6.156   0.936
32764SOL    HW1  189  10.278   6.099   0.870
32764SOL    HW2  190  10.218   6.237   0.888
32765SOL     OW  191   6.782  13.533  10.397
32765SOL    HW1  192   6.720  13.604  10.413
32765SOL    HW2  193   6.774  13.476  10.473
32766SOL     OW  194   9.307  10.913   8.535
32766SOL    HW1  195   9.291  10.970   8.611
32766SOL    HW2  196   9.220  10.885   8.508
32767SOL     OW  197  11.105   3.733  11.412
32767SOL    HW1  198  11.170   3.795  11.380
32767SOL    HW2  199  11.093   3.672  11.339
32768SOL     OW  200   2.056   3.489  12.092
32768SOL    HW1  201   2.065   3.421  12.025
32768SOL    HW2  202   2.123   3.553  12.070
32769SOL     OW  203   9.621   2.977   8.115
32769SOL    HW1  204   9.649   2.886   8.109
32769SOL    HW2  205   9.546   2.975   8.174
32770SOL     OW  206  11.545   3.219   5.750
32770SOL    HW1  207  11.520   3.127   5.765
32770SOL    HW2  208  11.467   3.269   5.774
32771SOL     OW  209  10.615  13.362  11.563
32771SOL    HW1  210  10.582  13.330  11.647
32771SOL    HW2  211  10.595  13.456  11.564
32772SOL     OW  212  11.627   9.901   1.222
32772SOL    HW1  213  11.589   9.969   1.165
32772SOL    HW2  214  11.561   9.889   1.291
32773SOL     OW  215   1.582   9.580  14.641
32773SOL    HW1  216   1.488   9.589  14.625
32773SOL    HW2  217   1.613   9.670  14.653
32774SOL     OW  218   2.521   2.677  12.565
32774SOL    HW1  219   2.608   2.637  12.576
32774SOL    HW2  220   2.539   2.769  12.548
32775SOL     OW  221  10.654   1.321   2.854
32775SOL    HW1  222  10.747   1.339   2.865
32775SOL    HW2  223  10.646   1.283   2.766
32776SOL     OW  224   0.317   7.659   9.798
32776SOL    HW1  225   0.309   7.655   9.893
32776SOL    HW2  226   0.282   7.576   9.767
32777SOL     OW  227   4.634   6.167  10.101
32777SOL    HW1  228   4.601   6.150  10.190
32777SOL    HW2  229   4.603   6.254  10.080
32778SOL     OW  230   4.035   0.089  13.196
32778SOL    HW1  231   4.063   0.101  13.106
32778SOL    HW2  232   3.946   0.125  13.198
32779SOL     OW  233   9.836   8.607  11.423
32779SOL    HW1  234   9.862   8.605  11.515
32779SOL    HW2  235   9.763   8.544  11.418
32780SOL     OW  236   0.783  13.148   6.093
32780SOL    HW1  237   0.828  13.227   6.122
32780SOL    HW2  238   0.723  13.127   6.164
32781SOL     OW  239  11.852  10.491   8.474
32781SOL    HW1  240  11.903  10.418   8.440
32781SOL    HW2  241  11.849  10.555   8.402
32782SOL     OW  242  12.146   7.057  14.481
32782SOL    HW1  243  12.092   7.077  14.558
32782SOL    HW2  244  12.220   7.008  14.517
32783SOL     OW  245   7.962   3.069   7.924
32783SOL    HW1  246   8.000   3.113   8.000
32783SOL    HW2  247   7.872   3.103   7.919
32784SOL     OW  248  10.975   5.327   2.934
32784SOL    HW1  249  11.028   5.403   2.958
32784SOL    HW2  250  10.994   5.314   2.841
32785SOL     OW  251   8.592   8.710   5.597
32785SOL    HW1  252   8.553   8.641   5.544
32785SOL    HW2  253   8.687   8.695   5.589
32786SOL     OW  254   7.796  12.997   0.672
32786SOL    HW1  255   7.739  12.920   0.673
32786SOL    HW2  256   7.884  12.962   0.658
32787SOL     OW  257  13.074   8.108   7.014
32787SOL    HW1  258  13.082   8.200   6.988
32787SOL    HW2  259  12.982   8.098   7.040
32788SOL     OW  260  12.211   1.655   2.712
32788SOL    HW1  261  12.282   1.718   2.717
32788SOL    HW2  262  12.135   1.706   2.682
32789SOL     OW  263   0.087   8.383   1.808
32789SOL    HW1  264   0.134   8.311   1.850
32789SOL    HW2  265   0.051   8.345   1.728
32790SOL     OW  266   8.456   3.566   1.722
32790SOL    HW1  267   8.400   3.538   1.794
32790SOL    HW2  268   8.475   3.658   1.741
32791SOL     OW  269  11.160   4.181  10.650
32791SOL    HW1  270  11.200   4.240  10.586
32791SOL    HW2  271  11.124   4.109  10.597
32792SOL     OW  272  12.544  13.571  11.140
32792SOL    HW1  273  12.517  13.609  11.056
32792SOL    HW2  274  12.631  13.536  11.124
32793SOL     OW  275   8.771   4.097   0.793
32793SOL    HW1  276   8.770   4.126   0.702
32793SOL    HW2  277   8.781   4.002   0.788
32794SOL     OW  278   9.244   7.424  10.550
32794SOL    HW1  279   9.325   7.379  10.526
32794SOL    HW2  280   9.180   7.396  10.485
32795SOL     OW  281   6.212   6.696  11.880
32795SOL    HW1  282   6.171   6.609  11.881
32795SOL    HW2  283   6.241   6.708  11.789
32796SOL     OW  284   0.082   9.642  12.701
32796SOL    HW1  285   0.036   9.624  12.783
32796SOL    HW2  286   0.145   9.570  12.693
32797SOL     OW  287   6.790  14.085   3.174
32797SOL    HW1  288   6.864  14.146   3.178
32797SOL    HW2  289   6.822  14.011   3.123
32798SOL     OW  290   9.042   0.428   2.012
32798SOL    HW1  291   8.962   0.382   1.989
32798SOL    HW2  292   9.031   0.451   2.104
32799SOL     OW  293   1.527   6.282   9.742
32799SOL    HW1  294   1.516   6.216   9.674
32799SOL    HW2  295   1.450   6.339   9.732
32800SOL     OW  296  14.406   8.905   0.991
32800SOL    HW1  297  14.409   9.000   1.003
32800SOL    HW2  298  14.470   8.871   1.053
32801SOL     OW  299   9.924   6.784   6.353
32801SOL    HW1  300   9.839   6.739   6.351
32801SOL    HW2  301   9.951   6.787   6.261
32802SOL     OW  302   0.377   0.615  13.239
32802SOL    HW1  303   0.380   0.521  13.222
32802SOL    HW2  304   0.319   0.650  13.171
32803SOL     OW  305   4.079   4.428   0.903
32803SOL    HW1  306   4.127   4.506   0.874
32803SOL    HW2  307   4.079   4.434   0.999
32804SOL     OW  308   4.338   4.977   8.362
32804SOL    HW1  309   4.352   4.952   8.453
32804SOL    HW2  310   4.397   5.051   8.348
32805SOL     OW  311   8.176   8.587   8.946
32805SOL    HW1  312   8.195   8.626   9.031
32805SOL    HW2  313   8.205   8.496   8.955
32806SOL     OW  314   8.820   2.836  10.288
32806SOL    HW1  315   8.850   2.784  10.363
32806SOL    HW2  316   8.794   2.920  10.326
32807SOL     OW  317  11.007   3.188   6.232
32807SOL    HW1  318  10.933   3.206   6.174
32807SOL    HW2  319  11.010   3.093   6.238
32808SOL     OW  320   9.502   9.204   7.128
32808SOL    HW1  321   9.427   9.261   7.110
32808SOL    HW2  322   9.465   9.116   7.133
32809SOL     OW  323   2.756  12.253   4.378
32809SOL    HW1  324   2.791  12.196   4.446
32809SOL    HW2  325   2.821  12.248   4.307
32810SOL     OW  326   0.859   9.156   3.311
32810SOL    HW1  327   0.853   9.213   3.234
32810SOL    HW2  328   0.769   9.145   3.340
32811SOL     OW  329  13.632   6.068   7.504
32811SOL    HW1  330  13.609   5.984   7.464
32811SOL    HW2  331  13.694   6.046   7.573
32812SOL     OW  332   3.607  13.163   0.740
32812SOL    HW1  333   3.565  13.107   0.805
32812SOL    HW2  334   3.543  13.233   0.723
32813SOL     OW  335  10.037   4.066  12.978
32813SOL    HW1  336   9.971   4.079  12.909
32813SOL    HW2  337  10.109   4.124  12.954
32814SOL     OW  338  13.555   5.174   7.258
32814SOL    HW1  339  13.601   5.239   7.311
32814SOL    HW2  340  13.623   5.116   7.226
32815SOL     OW  341  13.893   2.620   4.086
32815SOL    HW1  342  13.974   2.646   4.042
32815SOL    HW2  343  13.832   2.692   4.070
32816SOL     OW  344  10.402   9.912   3.843
32816SOL    HW1  345  10.368   9.848   3.905
32816SOL    HW2  346  10.448   9.859   3.778
32817SOL     OW  347   9.930   5.591   3.366
32817SOL    HW1  348   9.938   5.683   3.342
32817SOL    HW2  349   9.899   5.548   3.287
32818SOL     OW  350  12.375  13.341  10.319
32818SOL    HW1  351  12.325  13.285  10.377
32818SOL    HW2  352  12.345  13.318  10.231
32819SOL     OW  353   3.914   3.676   6.834
32819SOL    HW1  354   3.955   3.694   6.919
32819SOL    HW2  355   3.960   3.734   6.773
32820SOL     OW  356  10.285  13.674  13.056
32820SOL    HW1  357  10.334  13.631  12.986
32820SOL    HW2  358  10.219  13.726  13.010
32821SOL     OW  359  14.466   1.880   0.624
32821SOL    HW1  360  14.492   1.932   0.548
32821SOL    HW2  361  14.417   1.941   0.680
32822SOL     OW  362   4.324   6.481   9.113
32822SOL    HW1  363   4.400   6.521   9.157
32822SOL    HW2  364   4.353   6.469   9.022
32823SOL     OW  365   7.600   1.663   1.113
32823SOL    HW1  366   7.626   1.713   1.036
32823SOL    HW2  367   7.506   1.674   1.118
32824SOL     OW  368   7.032  11.113   4.218
32824SOL    HW1  369   7.035  11.159   4.302
32824SOL    HW2  370   7.081  11.170   4.158
32825SOL     OW  371   7.234  13.562   3.778
32825SOL    HW1  372   7.261  13.482   3.735
32825SOL    HW2  373   7.315  13.612   3.789
32826SOL     OW  374  10.620   0.635   8.251
32826SOL    HW1  375  10.682   0.652   8.321
32826SOL    HW2  376  10.643   0.697   8.182
32827SOL     OW  377   3.938   1.398  14.679
32827SOL    HW1  378   3.880   1.454  14.731
32827SOL    HW2  379   3.888   1.378  14.600
32828SOL     OW  380   8.478   9.106  11.110
32828SOL    HW1  381   8.444   9.126  11.198
32828SOL    HW2  382   8.543   9.174  11.095
32829SOL     OW  383   3.494  10.081   2.723
32829SOL    HW1  384   3.522  10.102   2.634
32829SOL    HW2  385   3.451  10.161   2.753
32830SOL     OW  386   6.516   9.802   7.930
32830SOL    HW1  387   6.455   9.756   7.987
32830SOL    HW2  388   6.528   9.742   7.856
32831SOL     OW  389   5.948   1.793   9.663
32831SOL    HW1  390   6.027   1.754   9.624
32831SOL    HW2  391   5.886   1.720   9.668
32832SOL     OW  392   4.429   1.906   9.791
32832SOL    HW1  393   4.512   1.917   9.836
32832SOL    HW2  394   4.427   1.977   9.726
32833SOL     OW  395   7.379   1.993  10.695
32833SOL    HW1  396   7.331   2.030  10.769
32833SOL    HW2  397   7.471   2.007  10.717
32834SOL     OW  398   2.914  11.269   1.376
32834SOL    HW1  399   2.895  11.212   1.450
32834SOL    HW2  400   2.932  11.209   1.303
32835SOL     OW  401  11.707   3.780   9.271
32835SOL    HW1  402  11.749   3.694   9.276
32835SOL    HW2  403  11.631   3.768   9.215
32836SOL     OW  404   4.701  13.427   4.109
32836SOL    HW1  405   4.692  13.426   4.013
32836SOL    HW2  406   4.661  13.510   4.135
32837SOL     OW  407   9.705   8.651  11.133
32837SOL    HW1  408   9.643   8.610  11.073
32837SOL    HW2  409   9.785   8.599  11.124
32838SOL     OW  410  11.520   5.522  13.881
32838SOL    HW1  411  11.570   5.463  13.938
32838SOL    HW2  412  11.432   5.520  13.916
32839SOL     OW  413   3.241   7.762  12.664
32839SOL    HW1  414   3.270   7.678  12.629
32839SOL    HW2  415   3.267   7.826  12.598
32840SOL     OW  416   5.532   1.485  11.805
32840SOL    HW1  417   5.600   1.551  11.794
32840SOL    HW2  418   5.499   1.498  11.894
32841SOL     OW  419  11.415   9.514  11.610
32841SOL    HW1  420  11.387   9.575  11.541
32841SOL    HW2  421  11.351   9.526  11.680
32842SOL     OW  422  10.174   6.887   9.187
32842SOL    HW1  423  10.125   6.811   9.155
32842SOL    HW2  424  10.262   6.854   9.202
32843SOL     OW  425  11.748   0.243   8.913
32843SOL    HW1  426  11.825   0.298   8.927
32843SOL    HW2  427  11.751   0.179   8.984
32844SOL     OW  428   0.316  13.382   4.220
32844SOL    HW1  429   0.381  13.321   4.183
32844SOL    HW2  430   0.353  13.409   4.304
32845SOL     OW  431   8.531  10.957   4.915
32845SOL    HW1  432   8.571  11.008   4.985
32845SOL    HW2  433   8.563  10.998   4.834
32846SOL     OW  434   9.403  14.343  14.315
32846SOL    HW1  435   9.311  14.317  14.318
32846SOL    HW2  436   9.451  14.261  14.323
32847SOL     OW  437   4.061  10.029  12.799
32847SOL    HW1  438   3.984  10.059  12.751
32847SOL    HW2  439   4.135  10.054  12.743
32848SOL     OW  440   8.156  13.993   5.251
32848SOL    HW1  441   8.095  14.005   5.324
32848SOL    HW2  442   8.242  13.988   5.292
32849SOL     OW  443  11.865   5.132   4.782
32849SOL    HW1  444  11.844   5.047   4.744
32849SOL    HW2  445  11.944   5.117   4.834
32850SOL     OW  446  11.182  14.237   8.734
32850SOL    HW1  447  11.192  14.188   8.653
32850SOL    HW2  448  11.176  14.329   8.706
32851SOL     OW  449  12.752   2.401   4.831
32851SOL    HW1  450  12.744   2.408   4.926
32851SOL    HW2  451  12.739   2.308   4.813
32852SOL     OW  452   8.051  12.604   5.003
32852SOL    HW1  453   7.999  12.676   4.969
32852SOL    HW2  454   8.119  12.591   4.936
32853SOL     OW  455   2.926  14.417   0.773
32853SOL    HW1  456   2.872  14.365   0.833
32853SOL    HW2  457   2.876  14.420   0.691
32854SOL     OW  458  11.178  13.737  14.769
32854SOL    HW1  459  11.102  13.793  14.777
32854SOL    HW2  460  11.179  13.710  14.678
32855SOL     OW  461  13.888  13.944  11.783
32855SOL    HW1  462  13.844  14.017  11.740
32855SOL    HW2  463  13.972  13.937  11.738
32856SOL     OW  464   8.703   9.140   0.846
32856SOL    HW1  465   8.677   9.056   0.883
32856SOL    HW2  466   8.643   9.203   0.886
32857SOL     OW  467   8.019   6.523   3.495
32857SOL    HW1  468   7.993   6.455   3.557
32857SOL    HW2  469   8.112   6.507   3.480
32858SOL     OW  470   0.861   8.668   7.728
32858SOL    HW1  471   0.819   8.634   7.808
32858SOL    HW2  472   0.835   8.607   7.660
32859SOL     OW  473   1.193  14.139   6.160
32859SOL    HW1  474   1.234  14.085   6.228
32859SOL    HW2  475   1.254  14.134   6.086
32860SOL     OW  476  12.787   2.727   4.345
32860SOL    HW1  477  12.784   2.700   4.436
32860SOL    HW2  478  12.802   2.646   4.296
32861SOL     OW  479  11.583  13.147   7.906
32861SOL    HW1  480  11.642  13.194   7.847
32861SOL    HW2  481  11.553  13.214   7.968
32862SOL     OW  482   1.383  13.706   7.135
32862SOL    HW1  483   1.398  13.797   7.108
32862SOL    HW2  484   1.339  13.666   7.061
32863SOL     OW  485  14.871   0.545  12.424
32863SOL    HW1  486  14.794   0.601  12.414
32863SOL    HW2  487  14.854   0.494  12.503
32864SOL     OW  488   0.660  13.947  12.362
32864SOL    HW1  489   0.624  13.951  12.273
32864SOL    HW2  490   0.744  13.901  12.351
32865SOL     OW  491  14.002  10.639   2.454
32865SOL    HW1  492  14.003  10.720   2.505
32865SOL    HW2  493  14.093  10.626   2.428
32866SOL     OW  494   1.291  13.437   4.152
32866SOL    HW1  495   1.209  13.394   4.178
32866SOL    HW2  496   1.359  13.389   4.200
32867SOL     OW  497   7.516   1.586   5.307
32867SOL    HW1  498   7.607   1.617   5.304
32867SOL    HW2  499   7.515   1.522   5.379
32868SOL     OW  500  10.641  14.315  11.303
32868SOL    HW1  501  10.692  14.327  11.384
32868SOL    HW2  502  10.632  14.220  11.294
32869SOL     OW  503  13.997   2.661   5.173
32869SOL    HW1  504  13.980   2.641   5.081
32869SOL    HW2  505  13.942   2.599   5.221
32870SOL     OW  506   3.787   1.642   1.054
32870SOL    HW1  507   3.791   1.693   0.973
32870SOL    HW2  508   3.801   1.706   1.124
32871SOL     OW  509   3.618   3.689   5.129
32871SOL    HW1  510   3.674   3.764   5.107
32871SOL    HW2  511   3.610   3.693   5.225
32872SOL     OW  512   1.623   0.345  14.811
32872SOL    HW1  513   1.706   0.387  14.789
32872SOL    HW2  514   1.575   0.342  14.728
32873SOL     OW  515   3.699   5.450   6.574
32873SOL    HW1  516   3.771   5.511   6.565
32873SOL    HW2  517   3.685   5.443   6.669
32874SOL     OW  518   3.736  10.481   2.267
32874SOL    HW1  519   3.715  10.388   2.263
32874SOL    HW2  520   3.700  10.510   2.351
32875SOL     OW  521  11.452  11.615   3.876
32875SOL    HW1  522  11.452  11.521   3.894
32875SOL    HW2  523  11.366  11.645   3.905
32876SOL     OW  524   5.551  14.554   2.296
32876SOL    HW1  525   5.595  14.583   2.376
32876SOL    HW2  526   5.459  14.545   2.322
32877SOL     OW  527   9.666   1.011   6.575
32877SOL    HW1  528   9.747   0.963   6.557
32877SOL    HW2  529   9.637   0.977   6.660
32878SOL     OW  530  11.127   0.071  14.225
32878SOL    HW1  531  11.114  14.865  14.171
32878SOL    HW2  532  11.051   0.126  14.207
32879SOL     OW  533  11.614   3.116  13.735
32879SOL    HW1  534  11.590   3.205  13.759
32879SOL    HW2  535  11.601   3.065  13.815
32880SOL     OW  536   0.748  13.682  11.251
32880SOL    HW1  537   0.829  13.665  11.299
32880SOL    HW2  538   0.770  13.753  11.191
32881SOL     OW  539   2.731  13.302   8.720
32881SOL    HW1  540   2.769  13.325   8.634
32881SOL    HW2  541   2.678  13.224   8.703
32882SOL     OW  542   8.627  13.281  12.903
32882SOL    HW1  543   8.640  13.298  12.996
32882SOL    HW2  544   8.543  13.235  12.898
32883SOL     OW  545   5.866  14.333  11.646
32883SOL    HW1  546   5.771  14.319  11.655
32883SOL    HW2  547   5.888  14.394  11.717
32884SOL     OW  548   1.046  12.501  14.688
32884SOL    HW1  549   1.063  12.506  14.782
32884SOL    HW2  550   1.133  12.498  14.648
32885SOL     OW  551  12.928   1.542  13.045
32885SOL    HW1  552  12.893   1.463  13.087
32885SOL    HW2  553  12.963   1.594  13.117
32886SOL     OW  554  13.696  12.241   6.775
32886SOL    HW1  555  13.703  12.238   6.870
32886SOL    HW2  556  13.679  12.332   6.755
32887SOL     OW  557   2.957   1.190   1.254
32887SOL    HW1  558   3.017   1.118   1.277
32887SOL    HW2  559   2.951   1.242   1.334
32888SOL     OW  560   0.147  11.808  11.602
32888SOL    HW1  561   0.139  11.789  11.508
32888SOL    HW2  562   0.197  11.889  11.606
32889SOL     OW  563  12.810   6.844   8.128
32889SOL    HW1  564  12.793   6.871   8.037
32889SOL    HW2  565  12.741   6.888   8.178
32890SOL     OW  566   7.972   6.381   8.607
32890SOL    HW1  567   7.963   6.411   8.697
32890SOL    HW2  568   7.936   6.452   8.554
32891SOL     OW  569   6.688   3.315  13.859
32891SOL    HW1  570   6.694   3.299  13.953
32891SOL    HW2  571   6.595   3.329  13.843
32892SOL     OW  572   5.778  14.485  11.127
32892SOL    HW1  573   5.719  14.493  11.051
32892SOL    HW2  574   5.761  14.397  11.162
32893SOL     OW  575   6.251  12.026   8.992
32893SOL    HW1  576   6.251  11.932   8.972
32893SOL    HW2  577   6.240  12.068   8.907
32894SOL     OW  578  13.941  13.248   3.035
32894SOL    HW1  579  13.985  13.333   3.047
32894SOL    HW2  580  13.857  13.258   3.078
32895SOL     OW  581   8.364  11.667  10.204
32895SOL    HW1  582   8.316  11.590  10.174
32895SOL    HW2  583   8.312  11.701  10.276
32896SOL     OW  584   5.207  10.541   6.976
32896SOL    HW1  585   5.120  10.578   6.963
32896SOL    HW2  586   5.192  10.459   7.022
32897SOL     OW  587   2.543   0.432   7.628
32897SOL    HW1  588   2.635   0.452   7.614
32897SOL    HW2  589   2.504   0.436   7.541
32898SOL     OW  590   8.246   3.269  13.289
32898SOL    HW1  591   8.322   3.319  13.320
32898SOL    HW2  592   8.186   3.269  13.363
32899SOL     OW  593   5.784  14.183  10.942
32899SOL    HW1  594   5.793  14.180  11.037
32899SOL    HW2  595   5.693  14.211  10.928
32900SOL     OW  596   0.828   0.480  12.396
32900SOL    HW1  597   0.779   0.398  12.397
32900SOL    HW2  598   0.879   0.478  12.478
32901SOL     OW  599   0.104  10.357   8.362
32901SOL    HW1  600   0.047  10.289   8.325
32901SOL    HW2  601   0.163  10.380   8.291
32902SOL     OW  602   7.222   9.526   0.522
32902SOL    HW1  603   7.208   9.581   0.599
32902SOL    HW2  604   7.173   9.570   0.452
32903SOL     OW  605  14.083   4.017   7.551
32903SOL    HW1  606  14.172   4.015   7.588
32903SOL    HW2  607  14.091   4.070   7.472
32904SOL     OW  608   5.526   6.680  10.164
32904SOL    HW1  609   5.583   6.750  10.132
32904SOL    HW2  610   5.578   6.600  10.156
32905SOL     OW  611  10.825   7.975   5.772
32905SOL    HW1  612  10.865   7.976   5.685
32905SOL    HW2  613  10.734   7.948   5.756
32906SOL     OW  614   6.732  12.680  13.821
32906SOL    HW1  615   6.779  12.647  13.898
32906SOL    HW2  616   6.801  12.713  13.764
32907SOL     OW  617   6.647  10.546   0.110
32907SOL    HW1  618   6.710  10.478   0.085
32907SOL    HW2  619   6.664  10.561   0.203
32908SOL     OW  620   4.683   8.658   6.803
32908SOL    HW1  621   4.672   8.729   6.740
32908SOL    HW2  622   4.769   8.622   6.784
32909SOL     OW  623   9.021   4.916  10.465
32909SOL    HW1  624   9.029   4.827  10.428
32909SOL    HW2  625   8.928   4.935  10.460
32910SOL     OW  626   7.191   8.366   1.312
32910SOL    HW1  627   7.161   8.431   1.376
32910SOL    HW2  628   7.201   8.416   1.230
32911SOL     OW  629  14.636   7.220   2.295
32911SOL    HW1  630  14.561   7.161   2.302
32911SOL    HW2  631  14.605   7.292   2.240
32912SOL     OW  632   4.576  11.210   3.106
32912SOL    HW1  633   4.672  11.211   3.097
32912SOL    HW2  634   4.560  11.227   3.198
32913SOL     OW  635   2.377   2.416  14.817
32913SOL    HW1  636   2.347   2.503  14.843
32913SOL    HW2  637   2.445   2.394   0.008
32914SOL     OW  638   7.379   5.176  10.517
32914SOL    HW1  639   7.352   5.092  10.554
32914SOL    HW2  640   7.363   5.240  10.586
32915SOL     OW  641   1.523  10.889   7.241
32915SOL    HW1  642   1.602  10.930   7.207
32915SOL    HW2  643   1.488  10.840   7.167
32916SOL     OW  644  14.241  12.806  13.372
32916SOL    HW1  645  14.199  12.863  13.307
32916SOL    HW2  646  14.238  12.719  13.333
32917SOL     OW  647  12.874   6.376   9.131
32917SOL    HW1  648  12.928   6.308   9.090
32917SOL    HW2  649  12.843   6.429   9.058
32918SOL     OW  650   6.649  10.081   5.394
32918SOL    HW1  651   6.570  10.109   5.440
32918SOL    HW2  652   6.653   9.986   5.409
32919SOL     OW  653  11.183   9.046   7.505
32919SOL    HW1  654  11.186   9.003   7.590
32919SOL    HW2  655  11.101   9.015   7.466
32920SOL     OW  656   0.733   5.677   0.547
32920SOL    HW1  657   0.685   5.705   0.625
32920SOL    HW2  658   0.771   5.593   0.572
32921SOL     OW  659   3.257   6.390  10.356
32921SOL    HW1  660   3.200   6.462  10.383
32921SOL    HW2  661   3.282   6.411  10.266
32922SOL     OW  662  13.734   5.999   9.006
32922SOL    HW1  663  13.645   6.032   9.003
32922SOL    HW2  664  13.725   5.905   8.997
32923SOL     OW  665  11.543   5.892   6.615
32923SOL    HW1  666  11.559   5.805   6.577
32923SOL    HW2  667  11.469   5.879   6.674
32924SOL     OW  668   9.355   3.078   1.634
32924SOL    HW1  669   9.442   3.087   1.595
32924SOL    HW2  670   9.310   3.159   1.612
32925SOL     OW  671  11.959   1.937   5.028
32925SOL    HW1  672  11.872   1.970   5.052
32925SOL    HW2  673  11.971   1.859   5.081
32926SOL     OW  674   4.746   0.124  10.029
32926SOL    HW1  675   4.809   0.060  10.061
32926SOL    HW2  676   4.678   0.127  10.096
32927SOL     OW  677  11.724  14.846   0.809
32927SOL    HW1  678  11.649  14.787   0.805
32927SOL    HW2  679  11.788  14.807   0.750
32928SOL     OW  680   5.706   6.543  12.171
32928SOL    HW1  681   5.786   6.535  12.118
32928SOL    HW2  682   5.668   6.455  12.168
32929SOL     OW  683   9.232   3.157   9.277
32929SOL    HW1  684   9.215   3.102   9.200
32929SOL    HW2  685   9.145   3.177   9.311
32930SOL     OW  686   3.162  11.053  13.144
32930SOL    HW1  687   3.067  11.061  13.145
32930SOL    HW2  688   3.180  10.971  13.189
32931SOL     OW  689  14.079   2.127  14.020
32931SOL    HW1  690  14.121   2.212  14.028
32931SOL    HW2  691  14.128   2.083  13.951
32932SOL     OW  692   5.820   3.360   3.507
32932SOL    HW1  693   5.735   3.367   3.551
32932SOL    HW2  694   5.798   3.343   3.415
32933SOL     OW  695   6.472  14.848   7.924
32933SOL    HW1  696   6.380  14.871   7.940
32933SOL    HW2  697   6.496   0.027   7.846
32934SOL     OW  698   4.934  10.621  12.022
32934SOL    HW1  699   4.929  10.552  11.956
32934SOL    HW2  700   4.926  10.703  11.973
32935SOL     OW  701   7.330  13.621  10.025
32935SOL    HW1  702   7.353  13.635  10.117
32935SOL    HW2  703   7.259  13.683  10.008
32936SOL     OW  704  14.341   5.152  12.684
32936SOL    HW1  705  14.260   5.142  12.634
32936SOL    HW2  706  14.406   5.180  12.620
32937SOL     OW  707   4.862  13.580   0.832
32937SOL    HW1  708   4.898  13.491   0.836
32937SOL    HW2  709   4.920  13.626   0.770
32938SOL     OW  710   0.337   7.113   6.690
32938SOL    HW1  711   0.431   7.129   6.696
32938SOL    HW2  712   0.322   7.038   6.747
32939SOL     OW  713  12.588   6.413   4.098
32939SOL    HW1  714  12.495   6.395   4.085
32939SOL    HW2  715  12.621   6.433   4.010
32940SOL     OW  716   7.543   3.307   5.126
32940SOL    HW1  717   7.499   3.293   5.042
32940SOL    HW2  718   7.519   3.230   5.179
32941SOL     OW  719   2.955   9.924  11.539
32941SOL    HW1  720   3.015   9.877  11.480
32941SOL    HW2  721   2.869   9.888  11.518
32942SOL     OW  722  10.382   7.983   1.701
32942SOL    HW1  723  10.478   7.974   1.705
32942SOL    HW2  724  10.355   7.919   1.636
32943SOL     OW  725   2.005  13.424   5.022
32943SOL    HW1  726   1.947  13.348   5.025
32943SOL    HW2  727   1.955  13.493   5.065
32944SOL     OW  728   3.043  12.460   7.104
32944SOL    HW1  729   2.984  12.385   7.101
32944SOL    HW2  730   3.114  12.438   7.043
32945SOL     OW  731  11.786  11.785  11.259
32945SOL    HW1  732  11.786  11.795  11.164
32945SOL    HW2  733  11.758  11.870  11.293
32946SOL     OW  734  14.174   8.948  11.189
32946SOL    HW1  735  14.206   8.868  11.147
32946SOL    HW2  736  14.086   8.926  11.219
32947SOL     OW  737   7.089   2.097   1.990
32947SOL    HW1  738   6.995   2.084   1.977
32947SOL    HW2  739   7.130   2.059   1.912
32948SOL     OW  740   2.305  12.892   8.642
32948SOL    HW1  741   2.343  12.973   8.675
32948SOL    HW2  742   2.239  12.921   8.578
32949SOL     OW  743  14.155   3.306   6.632
32949SOL    HW1  744  14.223   3.330   6.695
32949SOL    HW2  745  14.166   3.212   6.619
32950SOL     OW  746   5.658   2.428   3.933
32950SOL    HW1  747   5.691   2.507   3.975
32950SOL    HW2  748   5.637   2.455   3.844
32951SOL     OW  749   5.643   9.403  12.570
32951SOL    HW1  750   5.620   9.462  12.642
32951SOL    HW2  751   5.570   9.413  12.508
32952SOL     OW  752   3.364   1.820   1.752
32952SOL    HW1  753   3.419   1.742   1.743
32952SOL    HW2  754   3.401   1.883   1.689
32953SOL     OW  755   0.393   4.300   4.144
32953SOL    HW1  756   0.341   4.229   4.183
32953SOL    HW2  757   0.480   4.262   4.131
32954SOL     OW  758   1.436  14.487   4.705
32954SOL    HW1  759   1.356  14.491   4.757
32954SOL    HW2  760   1.505  14.519   4.764
32955SOL     OW  761  13.251  12.454  13.654
32955SOL    HW1  762  13.263  12.461  13.560
32955SOL    HW2  763  13.319  12.510  13.692
32956SOL     OW  764  10.192   1.602  14.415
32956SOL    HW1  765  10.234   1.650  14.343
32956SOL    HW2  766  10.236   1.635  14.493
32957SOL     OW  767   1.959   0.183   2.257
32957SOL    HW1  768   1.879   0.232   2.278
32957SOL    HW2  769   1.980   0.209   2.167
32958SOL     OW  770  12.217   9.159   0.468
32958SOL    HW1  771  12.209   9.168   0.373
32958SOL    HW2  772  12.193   9.245   0.502
32959SOL     OW  773  12.333   4.904  11.369
32959SOL    HW1  774  12.318   4.816  11.402
32959SOL    HW2  775  12.311   4.899  11.276
32960SOL     OW  776   0.139   5.134  10.425
32960SOL    HW1  777   0.171   5.132  10.334
32960SOL    HW2  778   0.219   5.143  10.478
32961SOL     OW  779  12.460   1.100   5.338
32961SOL    HW1  780  12.490   1.075   5.426
32961SOL    HW2  781  12.512   1.179   5.318
32962SOL     OW  782  14.751  11.893   5.928
32962SOL    HW1  783  14.793  11.883   5.843
32962SOL    HW2  784  14.732  11.987   5.934
32963SOL     OW  785  14.631   8.835  12.076
32963SOL    HW1  786  14.586   8.752  12.057
32963SOL    HW2  787  14.679   8.855  11.997
32964SOL     OW  788   0.590  12.689   4.114
32964SOL    HW1  789   0.502  12.669   4.145
32964SOL    HW2  790   0.577  12.737   4.032
32965SOL     OW  791   2.198   5.231  11.358
32965SOL    HW1  792   2.179   5.264  11.446
32965SOL    HW2  793   2.159   5.144  11.356
32966SOL     OW  794   5.048   1.212  12.217
32966SOL    HW1  795   5.105   1.217  12.141
32966SOL    HW2  796   5.055   1.298  12.258
32967SOL     OW  797   6.396  10.569   3.072
32967SOL    HW1  798   6.486  10.560   3.104
32967SOL    HW2  799   6.351  10.619   3.141
32968SOL     OW  800   6.257   9.648  14.047
32968SOL    HW1  801   6.188   9.616  13.989
32968SOL    HW2  802   6.215   9.652  14.133
32969SOL     OW  803  14.372  12.667   6.589
32969SOL    HW1  804  14.468  12.666   6.591
32969SOL    HW2  805  14.348  12.574   6.587
32970SOL     OW  806   8.771   4.461   8.180
32970SOL    HW1  807   8.697   4.522   8.177
32970SOL    HW2  808   8.767   4.414   8.097
32971SOL     OW  809   9.564   0.139   5.377
32971SOL    HW1  810   9.526   0.073   5.436
32971SOL    HW2  811   9.659   0.131   5.390
32972SOL     OW  812   3.093   4.420   3.837
32972SOL    HW1  813   3.090   4.373   3.753
32972SOL    HW2  814   3.118   4.353   3.901
32973SOL     OW  815   1.601  10.520   6.369
32973SOL    HW1  816   1.548  10.486   6.441
32973SOL    HW2  817   1.616  10.612   6.391
32974SOL     OW  818   7.635  13.790  10.004
32974SOL    HW1  819   7.722  13.829  10.009
32974SOL    HW2  820   7.577  13.857  10.040
32975SOL     OW  821   1.318  12.619   7.428
32975SOL    HW1  822   1.299  12.547   7.367
32975SOL    HW2  823   1.232  12.651   7.453
32976SOL     OW  824  13.496   7.322   7.797
32976SOL    HW1  825  13.428   7.279   7.849
32976SOL    HW2  826  13.559   7.253   7.778
32977SOL     OW  827   6.752   7.307  10.924
32977SOL    HW1  828   6.764   7.214  10.904
32977SOL    HW2  829   6.815   7.353  10.868
32978SOL     OW  830   2.429   2.620   1.855
32978SOL    HW1  831   2.407   2.529   1.873
32978SOL    HW2  832   2.510   2.615   1.804
32979SOL     OW  833  13.114  11.574  11.269
32979SOL    HW1  834  13.196  11.622  11.283
32979SOL    HW2  835  13.066  11.628  11.206
32980SOL     OW  836   1.890  10.142   3.955
32980SOL    HW1  837   1.974  10.102   3.980
32980SOL    HW2  838   1.872  10.205   4.025
32981SOL     OW  839  14.859   8.079   2.334
32981SOL    HW1  840  14.828   8.072   2.424
32981SOL    HW2  841   0.009   8.172   2.324
32982SOL     OW  842  13.916   8.694  10.451
32982SOL    HW1  843  13.940   8.774  10.496
32982SOL    HW2  844  13.991   8.676  10.393
32983SOL     OW  845   6.833   1.685  10.798
32983SOL    HW1  846   6.927   1.675  10.782
32983SOL    HW2  847   6.824   1.676  10.893
32984SOL     OW  848   7.871  12.749  14.476
32984SOL    HW1  849   7.897  12.728  14.566
32984SOL    HW2  850   7.950  12.786  14.436
32985SOL     OW  851   5.699   5.220  11.148
32985SOL    HW1  852   5.733   5.298  11.105
32985SOL    HW2  853   5.631   5.253  11.206
32986SOL     OW  854  14.406   1.972  11.664
32986SOL    HW1  855  14.400   2.068  11.668
32986SOL    HW2  856  14.357   1.948  11.585
32987SOL     OW  857   0.254  13.809   9.574
32987SOL    HW1  858   0.167  13.772   9.584
32987SOL    HW2  859   0.266  13.865   9.652
32988SOL     OW  860  11.151   7.609  14.268
32988SOL    HW1  861  11.093   7.535  14.253
32988SOL    HW2  862  11.225   7.574  14.317
32989SOL     OW  863   7.304   9.465   3.472
32989SOL    HW1  864   7.343   9.404   3.410
32989SOL    HW2  865   7.325   9.552   3.438
32990SOL     OW  866  12.875  11.481   3.034
32990SOL    HW1  867  12.909  11.503   3.120
32990SOL    HW2  868  12.809  11.549   3.017
32991SOL     OW  869   6.229   9.903   8.303
32991SOL    HW1  870   6.212   9.996   8.314
32991SOL    HW2  871   6.272   9.876   8.384
32992SOL     OW  872   2.181  10.955   7.685
32992SOL    HW1  873   2.118  10.963   7.757
32992SOL    HW2  874   2.239  10.884   7.713
32993SOL     OW  875   2.984   8.144   3.001
32993SOL    HW1  876   2.975   8.235   3.029
32993SOL    HW2  877   2.950   8.093   3.075
32994SOL     OW  878   8.043  11.586   8.224
32994SOL    HW1  879   7.954  11.613   8.202
32994SOL    HW2  880   8.058  11.508   8.169
32995SOL     OW  881   9.906   7.160   2.706
32995SOL    HW1  882   9.956   7.103   2.648
32995SOL    HW2  883   9.930   7.249   2.680
32996SOL     OW  884   0.441   9.359   9.277
32996SOL    HW1  885   0.456   9.390   9.367
32996SOL    HW2  886   0.520   9.384   9.229
32997SOL     OW  887   1.478   9.562   0.424
32997SOL    HW1  888   1.565   9.601   0.432
32997SOL    HW2  889   1.495   9.470   0.403
32998SOL     OW  890   5.516   4.571  14.005
32998SOL    HW1  891   5.482   4.655  14.035
32998SOL    HW2  892   5.609   4.573  14.026
32999SOL     OW  893   7.022   4.353   9.826
32999SOL    HW1  894   7.100   4.364   9.771
32999SOL    HW2  895   7.056   4.320   9.909
33000SOL     OW  896   5.895   7.104  13.941
33000SOL    HW1  897   5.944   7.097  13.860
33000SOL    HW2  898   5.811   7.142  13.915
33001SOL     OW  899   3.478   1.683   0.241
33001SOL    HW1  900   3.394   1.646   0.271
33001SOL    HW2  901   3.471   1.776   0.263
33002SOL     OW  902   0.753  12.219   2.996
33002SOL    HW1  903   0.750  12.296   2.939
33002SOL    HW2  904   0.831  12.234   3.051
33003SOL     OW  905  10.247   5.193   9.249
33003SOL    HW1  906  10.202   5.148   9.321
33003SOL    HW2  907  10.195   5.173   9.172
33004SOL     OW  908   4.906  10.528  12.341
33004SOL    HW1  909   4.880  10.576  12.262
33004SOL    HW2  910   4.952  10.592  12.394
33005SOL     OW  911   9.463   6.420   2.804
33005SOL    HW1  912   9.426   6.500   2.843
33005SOL    HW2  913   9.514   6.380   2.874
33006SOL     OW  914  10.431   1.677   2.132
33006SOL    HW1  915  10.345   1.639   2.150
33006SOL    HW2  916  10.459   1.713   2.217
33007SOL     OW  917   9.794   5.784   2.226
33007SOL    HW1  918   9.710   5.812   2.192
33007SOL    HW2  919   9.815   5.704   2.177
33008SOL     OW  920   5.493   2.035   2.887
33008SOL    HW1  921   5.523   2.126   2.876
33008SOL    HW2  922   5.572   1.987   2.910
33009SOL     OW  923   3.693  11.220   2.497
33009SOL    HW1  924   3.611  11.183   2.528
33009SOL    HW2  925   3.717  11.167   2.421
33010SOL     OW  926   2.167  13.991   3.196
33010SOL    HW1  927   2.148  14.020   3.107
33010SOL    HW2  928   2.262  13.993   3.202
33011SOL     OW  929  14.068   2.597  11.126
33011SOL    HW1  930  14.005   2.534  11.092
33011SOL    HW2  931  14.037   2.682  11.094
33012SOL     OW  932   4.416   1.977   4.649
33012SOL    HW1  933   4.369   1.897   4.626
33012SOL    HW2  934   4.446   1.962   4.738
33013SOL     OW  935  13.076  13.067   7.607
33013SOL    HW1  936  13.031  13.035   7.529
33013SOL    HW2  937  13.144  13.002   7.624
33014SOL     OW  938  10.909   1.390   5.192
33014SOL    HW1  939  10.953   1.305   5.198
33014SOL    HW2  940  10.853   1.394   5.270
33015SOL     OW  941  10.349  11.283  14.822
33015SOL    HW1  942  10.348  11.362  14.768
33015SOL    HW2  943  10.369  11.314   0.038
33016SOL     OW  944   1.764   2.236   0.949
33016SOL    HW1  945   1.732   2.193   0.869
33016SOL    HW2  946   1.846   2.277   0.923
33017SOL     OW  947   4.067   5.007   7.314
33017SOL    HW1  948   4.147   4.977   7.272
33017SOL    HW2  949   4.072   4.973   7.403
33018SOL     OW  950  13.718   7.711  12.720
33018SOL    HW1  951  13.745   7.787  12.772
33018SOL    HW2  952  13.632   7.736  12.684
33019SOL     OW  953   3.651   6.383  12.091
33019SOL    HW1  954   3.694   6.341  12.017
33019SOL    HW2  955   3.559   6.391  12.064
33020SOL     OW  956   3.210   4.200  13.293
33020SOL    HW1  957   3.217   4.119  13.242
33020SOL    HW2  958   3.213   4.270  13.228
33021SOL     OW  959   2.249   3.750  14.250
33021SOL    HW1  960   2.159   3.779  14.258
33021SOL    HW2  961   2.281   3.794  14.171
33022SOL     OW  962   5.233  12.095   6.325
33022SOL    HW1  963   5.193  12.029   6.382
33022SOL    HW2  964   5.323  12.104   6.358
33023SOL     OW  965   0.678  11.725   0.990
33023SOL    HW1  966   0.610  11.680   0.939
33023SOL    HW2  967   0.643  11.813   1.004
33024SOL     OW  968  11.434   6.411  10.323
33024SOL    HW1  969  11.525   6.436  10.306
33024SOL    HW2  970  11.388   6.432  10.242
33025SOL     OW  971   4.991   8.018   8.890
33025SOL    HW1  972   5.023   7.973   8.812
33025SOL    HW2  973   5.066   8.068   8.922
33026SOL     OW  974   1.062   3.263   0.100
33026SOL    HW1  975   1.003   3.206   0.149
33026SOL    HW2  976   1.053   3.235   0.009
33027SOL     OW  977   8.509   1.890   3.514
33027SOL    HW1  978   8.423   1.888   3.472
33027SOL    HW2  979   8.541   1.979   3.498
33028SOL     OW  980  14.585  11.781  10.258
33028SOL    HW1  981  14.610  11.704  10.208
33028SOL    HW2  982  14.657  11.842  10.246
33029SOL     OW  983   6.463   0.403   1.873
33029SOL    HW1  984   6.478   0.490   1.837
33029SOL    HW2  985   6.542   0.354   1.853
33030SOL     OW  986  10.279  13.978  13.708
33030SOL    HW1  987  10.308  13.955  13.619
33030SOL    HW2  988  10.358  14.009  13.752
33031SOL     OW  989   7.785  13.464   9.302
33031SOL    HW1  990   7.756  13.410   9.375
33031SOL    HW2  991   7.778  13.554   9.334
33032SOL     OW  992   3.883  13.578   1.025
33032SOL    HW1  993   3.865  13.587   1.118
33032SOL    HW2  994   3.910  13.666   0.997
33033SOL     OW  995   8.489  10.380  14.691
33033SOL    HW1  996   8.454  10.340  14.611
33033SOL    HW2  997   8.450  10.330  14.762
33034SOL     OW  998   1.154   4.991   0.433
33034SOL    HW1  999   1.148   5.083   0.460
33034SOL    HW2 1000   1.077   4.950   0.471
33035SOL     OW 1001   4.827   5.739   7.228
33035SOL    HW1 1002   4.820   5.801   7.301
33035SOL    HW2 1003   4.899   5.773   7.174
33036SOL     OW 1004  12.415  11.206  12.333
33036SOL    HW1 1005  12.482  11.150  12.295
33036SOL    HW2 1006  12.395  11.165  12.417
33037SOL     OW 1007   2.259  11.313  11.311
33037SOL    HW1 1008   2.233  11.309  11.403
33037SOL    HW2 1009   2.192  11.264  11.264
33038SOL     OW 1010   1.477   2.299  12.597
33038SOL    HW1 1011   1.554   2.247  12.578
33038SOL    HW2 1012   1.448   2.269  12.683
33039SOL     OW 1013   4.461   1.520   9.590
33039SOL    HW1 1014   4.525   1.518   9.661
33039SOL    HW2 1015   4.474   1.605   9.549
33040SOL     OW 1016  11.564   9.579  13.353
33040SOL    HW1 1017  11.511   9.645  13.309
33040SOL    HW2 1018  11.645   9.577  13.303
33041SOL     OW 1019   1.531  10.137   6.285
33041SOL    HW1 1020   1.510  10.067   6.224
33041SOL    HW2 1021   1.490  10.215   6.246
33042SOL     OW 1022   2.458  14.149   4.681
33042SOL    HW1 1023   2.402  14.213   4.725
33042SOL    HW2 1024   2.540  14.195   4.667
33043SOL     OW 1025  12.899   5.987  14.662
33043SOL    HW1 1026  12.971   6.045  14.684
33043SOL    HW2 1027  12.917   5.957  14.573
33044SOL     OW 1028   3.673   3.953   7.545
33044SOL    HW1 1029   3.672   3.938   7.451
33044SOL    HW2 1030   3.762   3.981   7.564
33045SOL     OW 1031   7.264  14.554   6.739
33045SOL    HW1 1032   7.307  14.576   6.822
33045SOL    HW2 1033   7.179  14.596   6.744
33046SOL     OW 1034  12.758   1.525  10.962
33046SOL    HW1 1035  12.764   1.560  11.051
33046SOL    HW2 1036  12.681   1.568  10.924
33047SOL     OW 1037   5.347   4.071  13.819
33047SOL    HW1 1038   5.336   3.980  13.791
33047SOL    HW2 1039   5.348   4.121  13.738
33048SOL     OW 1040   6.237   6.799   3.674
33048SOL    HW1 1041   6.273   6.832   3.756
33048SOL    HW2 1042   6.197   6.876   3.633
33049SOL     OW 1043   9.116  13.825  13.115
33049SOL    HW1 1044   9.021  13.838  13.109
33049SOL    HW2 1045   9.151  13.862  13.034
33050SOL     OW 1046   0.927  11.433   5.152
33050SOL    HW1 1047   0.879  11.504   5.112
33050SOL    HW2 1048   1.004  11.474   5.192
33051SOL     OW 1049   4.838   9.450   3.462
33051SOL    HW1 1050   4.875   9.529   3.502
33051SOL    HW2 1051   4.750   9.476   3.435
33052SOL     OW 1052  11.706  12.784   7.212
33052SOL    HW1 1053  11.700  12.784   7.116
33052SOL    HW2 1054  11.628  12.736   7.241
33053SOL     OW 1055   2.342   1.701  11.263
33053SOL    HW1 1056   2.421   1.681  11.312
33053SOL    HW2 1057   2.362   1.673  11.174
33054SOL     OW 1058   0.371   9.028   5.836
33054SOL    HW1 1059   0.330   9.114   5.831
33054SOL    HW2 1060   0.368   8.994   5.747
33055SOL     OW 1061   0.810   8.605  10.289
33055SOL    HW1 1062   0.903   8.594  10.270
33055SOL    HW2 1063   0.766   8.559  10.217
33056SOL     OW 1064   9.862   0.501  12.152
33056SOL    HW1 1065   9.898   0.423  12.110
33056SOL    HW2 1066   9.818   0.468  12.230
33057SOL     OW 1067   6.181  11.169   1.344
33057SOL    HW1 1068   6.184  11.253   1.297
33057SOL    HW2 1069   6.119  11.116   1.294
33058SOL     OW 1070   1.560   0.232   7.351
33058SOL    HW1 1071   1.546   0.248   7.444
33058SOL    HW2 1072   1.655   0.233   7.340
33059SOL     OW 1073   0.748   2.268   1.522
33059SOL    HW1 1074   0.675   2.207   1.520
33059SOL    HW2 1075   0.811   2.228   1.582
33060SOL     OW 1076   0.687  12.448   5.016
33060SOL    HW1 1077   0.598  12.445   5.050
33060SOL    HW2 1078   0.741  12.473   5.091
33061SOL     OW 1079   2.302   2.090   1.813
33061SOL    HW1 1080   2.388   2.056   1.834
33061SOL    HW2 1081   2.318   2.180   1.784
33062SOL     OW 1082  11.531   4.264  14.036
33062SOL    HW1 1083  11.574   4.212  14.103
33062SOL    HW2 1084  11.439   4.237  14.039
33063SOL     OW 1085  10.598   4.548   4.138
33063SOL    HW1 1086  10.584   4.643   4.137
33063SOL    HW2 1087  10.556   4.519   4.219
33064SOL     OW 1088  12.240  13.333  13.828
33064SOL    HW1 1089  12.219  13.417  13.787
33064SOL    HW2 1090  12.178  13.325  13.901
33065SOL     OW 1091  14.431  11.844  14.265
33065SOL    HW1 1092  14.341  11.873  14.283
33065SOL    HW2 1093  14.486  11.915  14.298
33066SOL     OW 1094   0.423  14.344   6.383
33066SOL    HW1 1095   0.365  14.384   6.449
33066SOL    HW2 1096   0.365  14.325   6.310
33067SOL     OW 1097   1.946  10.778  13.591
33067SOL    HW1 1098   2.024  10.831  13.574
33067SOL    HW2 1099   1.908  10.764  13.504
33068SOL     OW 1100   6.278   8.706   7.879
33068SOL    HW1 1101   6.257   8.751   7.797
33068SOL    HW2 1102   6.200   8.654   7.897
33069SOL     OW 1103   3.568   0.603   7.835
33069SOL    HW1 1104   3.619   0.554   7.899
33069SOL    HW2 1105   3.631   0.663   7.795
33070SOL     OW 1106   8.053   1.317  12.907
33070SOL    HW1 1107   7.968   1.360  12.903
33070SOL    HW2 1108   8.116   1.385  12.884
33071SOL     OW 1109  10.081   8.537   0.958
33071SOL    HW1 1110  10.031   8.512   1.036
33071SOL    HW2 1111  10.056   8.472   0.893
33072SOL     OW 1112  10.986  12.086   2.977
33072SOL    HW1 1113  10.946  12.004   3.007
33072SOL    HW2 1114  11.068  12.092   3.025
33073SOL     OW 1115   2.543   6.342   1.963
33073SOL    HW1 1116   2.526   6.324   1.871
33073SOL    HW2 1117   2.635   6.367   1.967
33074SOL     OW 1118  14.150   6.107   2.066
33074SOL    HW1 1119  14.197   6.112   2.149
33074SOL    HW2 1120  14.060   6.130   2.088
33075SOL     OW 1121  11.935   8.499  10.362
33075SOL    HW1 1122  11.914   8.558  10.434
33075SOL    HW2 1123  11.916   8.412  10.396
33076SOL     OW 1124   7.306  11.400   1.616
33076SOL    HW1 1125   7.286  11.391   1.709
33076SOL    HW2 1126   7.249  11.471   1.585
33077SOL     OW 1127  12.688  11.770   8.257
33077SOL    HW1 1128  12.609  11.733   8.297
33077SOL    HW2 1129  12.726  11.697   8.208
33078SOL     OW 1130   8.338   1.053  11.525
33078SOL    HW1 1131   8.289   1.056  11.608
33078SOL    HW2 1132   8.422   1.092  11.546
33079SOL     OW 1133   5.044   0.520   9.685
33079SOL    HW1 1134   5.020   0.610   9.707
33079SOL    HW2 1135   5.124   0.528   9.634
33080SOL     OW 1136   8.435   9.210   4.846
33080SOL    HW1 1137   8.449   9.250   4.932
33080SOL    HW2 1138   8.515   9.230   4.797
33081SOL     OW 1139   1.833   0.283   9.300
33081SOL    HW1 1140   1.804   0.361   9.253
33081SOL    HW2 1141   1.850   0.219   9.232
33082SOL     OW 1142  14.452   8.532   3.124
33082SOL    HW1 1143  14.444   8.551   3.218
33082SOL    HW2 1144  14.546   8.532   3.108
33083SOL     OW 1145   7.836   6.078   0.615
33083SOL    HW1 1146   7.838   6.109   0.525
33083SOL    HW2 1147   7.891   6.140   0.664
33084SOL     OW 1148  12.285   5.487  11.259
33084SOL    HW1 1149  12.358   5.434  11.225
33084SOL    HW2 1150  12.207   5.434  11.243
33085SOL     OW 1151   3.776   2.412   5.996
33085SOL    HW1 1152   3.797   2.319   6.001
33085SOL    HW2 1153   3.780   2.443   6.086
33086SOL     OW 1154  10.714  10.001   9.019
33086SOL    HW1 1155  10.690   9.953   9.098
33086SOL    HW2 1156  10.791  10.053   9.045
33087SOL     OW 1157   1.376   7.512   6.605
33087SOL    HW1 1158   1.337   7.496   6.691
33087SOL    HW2 1159   1.438   7.440   6.593
33088SOL     OW 1160   4.310   9.826   0.007
33088SOL    HW1 1161   4.356   9.773  14.813
33088SOL    HW2 1162   4.358   9.909   0.010
33089SOL     OW 1163   5.191   5.961   7.313
33089SOL    HW1 1164   5.198   5.870   7.286
33089SOL    HW2 1165   5.130   5.959   7.387
33090SOL     OW 1166  12.893   3.415  11.837
33090SOL    HW1 1167  12.935   3.404  11.922
33090SOL    HW2 1168  12.834   3.341  11.829
33091SOL     OW 1169  11.671  10.288  13.698
33091SOL    HW1 1170  11.677  10.372  13.742
33091SOL    HW2 1171  11.612  10.303  13.624
33092SOL     OW 1172   5.407  11.498   2.389
33092SOL    HW1 1173   5.458  11.574   2.415
33092SOL    HW2 1174   5.316  11.526   2.396
33093SOL     OW 1175   1.826  14.170   9.758
33093SOL    HW1 1176   1.838  14.224   9.837
33093SOL    HW2 1177   1.869  14.219   9.689
33094SOL     OW 1178  11.315   8.423  12.092
33094SOL    HW1 1179  11.325   8.443  11.998
33094SOL    HW2 1180  11.398   8.451  12.131
33095SOL     OW 1181   6.324   8.291   5.066
33095SOL    HW1 1182   6.399   8.237   5.043
33095SOL    HW2 1183   6.336   8.311   5.159
33096SOL     OW 1184  11.709   3.298   3.234
33096SOL    HW1 1185  11.746   3.251   3.309
33096SOL    HW2 1186  11.618   3.270   3.230
33097SOL     OW 1187   1.061   2.496  11.013
33097SOL    HW1 1188   1.151   2.528  11.000
33097SOL    HW2 1189   1.016   2.516  10.932
33098SOL     OW 1190   5.961  10.013  14.160
33098SOL    HW1 1191   5.952   9.921  14.135
33098SOL    HW2 1192   5.952  10.061  14.078
33099SOL     OW 1193  13.750  11.083   8.382
33099SOL    HW1 1194  13.674  11.026   8.389
33099SOL    HW2 1195  13.819  11.027   8.344
33100SOL     OW 1196   0.588  12.166  14.686
33100SOL    HW1 1197   0.525  12.171  14.614
33100SOL    HW2 1198   0.663  12.120  14.649
33101SOL     OW 1199   9.810   7.467  13.092
33101SOL    HW1 1200   9.734   7.411  13.109
33101SOL    HW2 1201   9.820   7.519  13.171
33102SOL     OW 1202  10.311   9.358   9.290
33102SOL    HW1 1203  10.360   9.403   9.358
33102SOL    HW2 1204  10.251   9.425   9.256
33103SOL     OW 1205   9.601   9.183   8.041
33103SOL    HW1 1206   9.661   9.108   8.050
33103SOL    HW2 1207   9.643   9.253   8.090
33104SOL     OW 1208   6.489   0.029   1.975
33104SOL    HW1 1209   6.459  14.824   2.023
33104SOL    HW2 1210   6.442   0.024   1.891
33105SOL     OW 1211  14.362   7.579   4.594
33105SOL    HW1 1212  14.454   7.592   4.570
33105SOL    HW2 1213  14.313   7.633   4.531
33106SOL     OW 1214  14.562   8.101   1.087
33106SOL    HW1 1215  14.496   8.032   1.084
33106SOL    HW2 1216  14.573   8.120   1.180
33107SOL     OW 1217   3.012   7.905  10.741
33107SOL    HW1 1218   3.093   7.897  10.691
33107SOL    HW2 1219   2.971   7.985  10.709
33108SOL     OW 1220  13.536  10.934   5.506
33108SOL    HW1 1221  13.561  10.997   5.438
33108SOL    HW2 1222  13.589  10.958   5.582
33109SOL     OW 1223   8.211   4.416   0.841
33109SOL    HW1 1224   8.286   4.421   0.901
33109SOL    HW2 1225   8.245   4.368   0.765
33110SOL     OW 1226   0.339   6.261   4.937
33110SOL    HW1 1227   0.314   6.260   4.845
33110SOL    HW2 1228   0.428   6.298   4.937
33111SOL     OW 1229   1.111  11.853   6.071
33111SOL    HW1 1230   1.146  11.924   6.017
33111SOL    HW2 1231   1.024  11.884   6.097
33112SOL     OW 1232  11.341   4.531   0.828
33112SOL    HW1 1233  11.393   4.587   0.770
33112SOL    HW2 1234  11.316   4.589   0.900
33113SOL     OW 1235  10.720   4.459   9.664
33113SOL    HW1 1236  10.781   4.463   9.738
33113SOL    HW2 1237  10.767   4.503   9.593
33114SOL     OW 1238  14.169   2.178   6.203
33114SOL    HW1 1239  14.098   2.242   6.208
33114SOL    HW2 1240  14.124   2.093   6.199
33115SOL     OW 1241  14.491   0.493   2.408
33115SOL    HW1 1242  14.550   0.471   2.481
33115SOL    HW2 1243  14.435   0.563   2.443
33116SOL     OW 1244   8.966  12.262  12.418
33116SOL    HW1 1245   9.036  12.269  12.353
33116SOL    HW2 1246   9.010  12.283  12.501
33117SOL     OW 1247   4.420   4.672   7.479
33117SOL    HW1 1248   4.504   4.686   7.522
33117SOL    HW2 1249   4.439   4.610   7.409
33118SOL     OW 1250  14.488  13.438   5.555
33118SOL    HW1 1251  14.559  13.399   5.607
33118SOL    HW2 1252  14.485  13.385   5.475
33119SOL     OW 1253   8.336   6.066   6.698
33119SOL    HW1 1254   8.286   6.046   6.778
33119SOL    HW2 1255   8.269   6.095   6.636
33120SOL     OW 1256  12.968   6.702   5.759
33120SOL    HW1 1257  12.892   6.744   5.799
33120SOL    HW2 1258  13.011   6.772   5.709
33121SOL     OW 1259  10.364   7.164   9.290
33121SOL    HW1 1260  10.325   7.104   9.353
33121SOL    HW2 1261  10.406   7.108   9.225
33122SOL     OW 1262   9.871   4.403  10.704
33122SOL    HW1 1263   9.842   4.405  10.613
33122SOL    HW2 1264   9.790   4.403  10.755
33123SOL     OW 1265   4.461  14.749  12.129
33123SOL    HW1 1266   4.435  14.766  12.039
33123SOL    HW2 1267   4.553  14.723  12.124
33124SOL     OW 1268  11.369   7.252   6.355
33124SOL    HW1 1269  11.430   7.227   6.285
33124SOL    HW2 1270  11.378   7.183   6.421
33125SOL     OW 1271   2.190  12.450  11.899
33125SOL    HW1 1272   2.184  12.498  11.816
33125SOL    HW2 1273   2.102  12.415  11.912
33126SOL     OW 1274  13.053   2.424  13.857
33126SOL    HW1 1275  13.101   2.342  13.868
33126SOL    HW2 1276  13.103   2.488  13.910
33127SOL     OW 1277  13.009  11.973  12.710
33127SOL    HW1 1278  12.942  12.041  12.703
33127SOL    HW2 1279  13.057  11.979  12.628
33128SOL     OW 1280   3.634   4.190   3.671
33128SOL    HW1 1281   3.658   4.283   3.662
33128SOL    HW2 1282   3.704   4.152   3.723
33129SOL     OW 1283   3.756   3.776   9.041
33129SOL    HW1 1284   3.816   3.841   9.006
33129SOL    HW2 1285   3.731   3.723   8.964
33130SOL     OW 1286   5.878   0.439  11.069
33130SOL    HW1 1287   5.810   0.404  11.012
33130SOL    HW2 1288   5.948   0.466  11.010
33131SOL     OW 1289   5.130   1.314   9.243
33131SOL    HW1 1290   5.124   1.249   9.173
33131SOL    HW2 1291   5.222   1.339   9.245
33132SOL     OW 1292  14.526   2.176   8.117
33132SOL    HW1 1293  14.460   2.194   8.050
33132SOL    HW2 1294  14.516   2.246   8.181
33133SOL     OW 1295   2.667   6.776  14.503
33133SOL    HW1 1296   2.707   6.790  14.589
33133SOL    HW2 1297   2.573   6.783  14.520
33134SOL     OW 1298   3.601   3.936  14.067
33134SOL    HW1 1299   3.610   4.022  14.109
33134SOL    HW2 1300   3.684   3.892  14.083
33135SOL     OW 1301  10.956  12.857   6.672
33135SOL    HW1 1302  10.906  12.930   6.635
33135SOL    HW2 1303  10.912  12.779   6.638
33136SOL     OW 1304   1.898  11.443  10.350
33136SOL    HW1 1305   1.863  11.393  10.424
33136SOL    HW2 1306   1.993  11.431  10.356
33137SOL     OW 1307   3.772   6.636  10.138
33137SOL    HW1 1308   3.839   6.569  10.150
33137SOL    HW2 1309   3.806   6.692  10.069
33138SOL     OW 1310  13.889   4.444   0.907
33138SOL    HW1 1311  13.935   4.386   0.968
33138SOL    HW2 1312  13.919   4.532   0.929
33139SOL     OW 1313   8.325   7.873   1.822
33139SOL    HW1 1314   8.306   7.785   1.855
33139SOL    HW2 1315   8.260   7.888   1.754
33140SOL     OW 1316  14.278  14.013   9.829
33140SOL    HW1 1317  14.247  13.935   9.783
33140SOL    HW2 1318  14.367  14.026   9.798
33141SOL     OW 1319   4.879   9.115   5.104
33141SOL    HW1 1320   4.930   9.039   5.078
33141SOL    HW2 1321   4.900   9.182   5.039
33142SOL     OW 1322   7.375  13.032  10.836
33142SOL    HW1 1323   7.296  12.981  10.852
33142SOL    HW2 1324   7.361  13.073  10.751
33143SOL     OW 1325   3.620   8.399   3.259
33143SOL    HW1 1326   3.694   8.374   3.315
33143SOL    HW2 1327   3.599   8.489   3.286
33144SOL     OW 1328   5.099  10.468  13.252
33144SOL    HW1 1329   5.140  10.497  13.170
33144SOL    HW2 1330   5.010  10.445  13.229
33145SOL     OW 1331   3.518   6.176   7.379
33145SOL    HW1 1332   3.554   6.123   7.308
33145SOL    HW2 1333   3.550   6.264   7.361
33146SOL     OW 1334   1.982   0.912  11.612
33146SOL    HW1 1335   1.935   0.934  11.692
33146SOL    HW2 1336   1.958   0.981  11.550
33147SOL     OW 1337   6.723   6.989  13.492
33147SOL    HW1 1338   6.636   7.026  13.506
33147SOL    HW2 1339   6.739   6.934  13.569
33148SOL     OW 1340   7.748  11.968   8.359
33148SOL    HW1 1341   7.663  11.925   8.375
33148SOL    HW2 1342   7.725  12.054   8.322
33149SOL     OW 1343   9.983  10.157  14.022
33149SOL    HW1 1344  10.030  10.238  14.044
33149SOL    HW2 1345  10.012  10.094  14.088
33150SOL     OW 1346   2.242   6.773  10.651
33150SOL    HW1 1347   2.180   6.732  10.590
33150SOL    HW2 1348   2.302   6.822  10.595
33151SOL     OW 1349  12.935   6.350   1.259
33151SOL    HW1 1350  13.013   6.334   1.312
33151SOL    HW2 1351  12.903   6.436   1.288
33152SOL     OW 1352  13.968  11.212   9.736
33152SOL    HW1 1353  14.011  11.297   9.746
33152SOL    HW2 1354  13.992  11.164   9.816
33153SOL     OW 1355   7.872   5.816   1.169
33153SOL    HW1 1356   7.856   5.865   1.249
33153SOL    HW2 1357   7.788   5.774   1.148
33154SOL     OW 1358   6.971  13.030   1.028
33154SOL    HW1 1359   6.945  13.026   0.936
33154SOL    HW2 1360   7.048  12.973   1.034
33155SOL     OW 1361   0.634   9.450   3.456
33155SOL    HW1 1362   0.543   9.450   3.425
33155SOL    HW2 1363   0.629   9.409   3.543
33156SOL     OW 1364   5.713   0.314   8.260
33156SOL    HW1 1365   5.780   0.377   8.232
33156SOL    HW2 1366   5.708   0.252   8.187
33157SOL     OW 1367   9.613  10.090   2.857
33157SOL    HW1 1368   9.642  10.116   2.769
33157SOL    HW2 1369   9.591   9.998   2.848
33158SOL     OW 1370   4.212   0.662   1.545
33158SOL    HW1 1371   4.239   0.571   1.554
33158SOL    HW2 1372   4.169   0.683   1.628
33159SOL     OW 1373   4.751  14.048   3.718
33159SOL    HW1 1374   4.795  14.071   3.800
33159SOL    HW2 1375   4.785  13.962   3.695
33160SOL     OW 1376   8.216   5.083   1.570
33160SOL    HW1 1377   8.171   5.125   1.498
33160SOL    HW2 1378   8.225   5.151   1.637
33161SOL     OW 1379   1.265   3.715   9.585
33161SOL    HW1 1380   1.274   3.784   9.520
33161SOL    HW2 1381   1.354   3.704   9.619
33162SOL     OW 1382   3.746   1.833  14.252
33162SOL    HW1 1383   3.842   1.833  14.244
33162SOL    HW2 1384   3.721   1.923  14.236
33163SOL     OW 1385   0.588   3.655  14.698
33163SOL    HW1 1386   0.630   3.571  14.682
33163SOL    HW2 1387   0.652   3.721  14.670
33164SOL     OW 1388   0.793   8.066  13.397
33164SOL    HW1 1389   0.781   7.986  13.347
33164SOL    HW2 1390   0.807   8.134  13.331
33165SOL     OW 1391   7.333   5.364   7.044
33165SOL    HW1 1392   7.327   5.395   7.135
33165SOL    HW2 1393   7.243   5.367   7.012
33166SOL     OW 1394   7.394  10.075   8.070
33166SOL    HW1 1395   7.397  10.113   7.982
33166SOL    HW2 1396   7.483  10.084   8.103
33167SOL     OW 1397  13.159   1.638   6.294
33167SOL    HW1 1398  13.110   1.596   6.364
33167SOL    HW2 1399  13.139   1.586   6.216
33168SOL     OW 1400   8.458   3.431   9.304
33168SOL    HW1 1401   8.466   3.517   9.261
33168SOL    HW2 1402   8.426   3.373   9.235
33169SOL     OW 1403   6.474   0.618  14.392
33169SOL    HW1 1404   6.489   0.712  14.404
33169SOL    HW2 1405   6.406   0.597  14.456
33170SOL     OW 1406   7.280  12.824  14.655
33170SOL    HW1 1407   7.200  12.780  14.683
33170SOL    HW2 1408   7.348  12.756  14.659
33171SOL     OW 1409   0.138  12.522   5.034
33171SOL    HW1 1410   0.069  12.547   5.096
33171SOL    HW2 1411   0.188  12.602   5.020
33172SOL     OW 1412  13.426   8.584  11.189
33172SOL    HW1 1413  13.489   8.539  11.132
33172SOL    HW2 1414  13.440   8.677  11.172
33173SOL     OW 1415   7.529   9.582  12.025
33173SOL    HW1 1416   7.447   9.606  12.070
33173SOL    HW2 1417   7.539   9.649  11.958
33174SOL     OW 1418   7.826  14.802   4.647
33174SOL    HW1 1419   7.772  14.723   4.643
33174SOL    HW2 1420   7.764   0.003   4.652
33175SOL     OW 1421   6.073   1.421   8.046
33175SOL    HW1 1422   6.022   1.390   7.972
33175SOL    HW2 1423   6.011   1.427   8.118
33176SOL     OW 1424   8.640  10.801   0.028
33176SOL    HW1 1425   8.735  10.796   0.029
33176SOL    HW2 1426   8.611  10.714   0.000
33177SOL     OW 1427   7.019   5.005   4.068
33177SOL    HW1 1428   7.052   5.040   4.152
33177SOL    HW2 1429   6.960   5.073   4.035
33178SOL     OW 1430   4.989  13.374   7.333
33178SOL    HW1 1431   5.031  13.399   7.251
33178SOL    HW2 1432   4.995  13.453   7.388
33179SOL     OW 1433   9.944  11.955  14.434
33179SOL    HW1 1434   9.955  11.895  14.508
33179SOL    HW2 1435  10.002  11.920  14.366
33180SOL     OW 1436   7.146  12.043   4.869
33180SOL    HW1 1437   7.080  12.006   4.927
33180SOL    HW2 1438   7.187  12.113   4.919
33181SOL     OW 1439   5.425   5.275  11.265
33181SOL    HW1 1440   5.428   5.370  11.262
33181SOL    HW2 1441   5.412   5.254  11.358
33182SOL     OW 1442  12.979  13.392   2.197
33182SOL    HW1 1443  12.958  13.417   2.287
33182SOL    HW2 1444  12.970  13.297   2.197
33183SOL     OW 1445  12.010  10.457  11.737
33183SOL    HW1 1446  12.105  10.451  11.724
33183SOL    HW2 1447  11.999  10.528  11.800
33184SOL     OW 1448   3.120   3.936   7.939
33184SOL    HW1 1449   3.143   3.880   7.864
33184SOL    HW2 1450   3.043   3.984   7.910
33185SOL     OW 1451   5.164   8.771  14.420
33185SOL    HW1 1452   5.258   8.753  14.417
33185SOL    HW2 1453   5.135   8.734  14.503
33186SOL     OW 1454  14.444   9.912   8.182
33186SOL    HW1 1455  14.485   9.831   8.153
33186SOL    HW2 1456  14.422   9.959   8.102
33187SOL     OW 1457   8.294  12.847   3.684
33187SOL    HW1 1458   8.229  12.870   3.751
33187SOL    HW2 1459   8.261  12.889   3.604
33188SOL     OW 1460  10.312   2.601   8.847
33188SOL    HW1 1461  10.305   2.636   8.758
33188SOL    HW2 1462  10.278   2.512   8.840
33189SOL     OW 1463   4.757  13.244   1.198
33189SOL    HW1 1464   4.794  13.184   1.133
33189SOL    HW2 1465   4.751  13.328   1.153
33190SOL     OW 1466   3.562   3.588   3.935
33190SOL    HW1 1467   3.556   3.682   3.918
33190SOL    HW2 1468   3.625   3.556   3.871
33191SOL     OW 1469   7.641  11.894  14.629
33191SOL    HW1 1470   7.573  11.831  14.608
33191SOL    HW2 1471   7.685  11.910  14.545
33192SOL     OW 1472   6.396   3.748  12.174
33192SOL    HW1 1473   6.458   3.803  12.221
33192SOL    HW2 1474   6.376   3.796  12.094
33193SOL     OW 1475  11.932  10.007   6.582
33193SOL    HW1 1476  12.016   9.964   6.567
33193SOL    HW2 1477  11.952  10.080   6.642
33194SOL     OW 1478  13.115  11.295  14.451
33194SOL    HW1 1479  13.108  11.228  14.382
33194SOL    HW2 1480  13.075  11.373  14.412
33195SOL     OW 1481  10.631   5.224   9.753
33195SOL    HW1 1482  10.586   5.191   9.675
33195SOL    HW2 1483  10.711   5.263   9.720
33196SOL     OW 1484  12.986  10.266   0.018
33196SOL    HW1 1485  13.020  10.349  14.856
33196SOL    HW2 1486  12.932  10.231  14.819
33197SOL     OW 1487  10.244  10.843   4.059
33197SOL    HW1 1488  10.316  10.874   4.002
33197SOL    HW2 1489  10.246  10.903   4.133
33198SOL     OW 1490   8.048   4.575   5.119
33198SOL    HW1 1491   8.039   4.630   5.197
33198SOL    HW2 1492   8.000   4.623   5.051
33199SOL     OW 1493   8.763   5.506   5.624
33199SOL    HW1 1494   8.746   5.439   5.558
33199SOL    HW2 1495   8.822   5.464   5.687
33200SOL     OW 1496   8.428  11.675   3.706
33200SOL    HW1 1497   8.407  11.622   3.629
33200SOL    HW2 1498   8.515  11.645   3.732
33201SOL     OW 1499  13.579  11.851  10.733
33201SOL    HW1 1500  13.585  11.941  10.699
33201SOL    HW2 1501  13.658  11.808  10.700
33202SOL     OW 1502  13.460  11.194  13.390
33202SOL    HW1 1503  13.382  11.234  13.351
33202SOL    HW2 1504  13.424  11.133  13.455
33203SOL     OW 1505  10.786  13.814  13.182
33203SOL    HW1 1506  10.834  13.845  13.106
33203SOL    HW2 1507  10.762  13.724  13.161
33204SOL     OW 1508   7.509  11.079  10.480
33204SOL    HW1 1509   7.428  11.107  10.437
33204SOL    HW2 1510   7.488  11.077  10.573
33205SOL     OW 1511   9.867  10.352  10.623
33205SOL    HW1 1512   9.813  10.396  10.688
33205SOL    HW2 1513   9.934  10.307  10.673
33206SOL     OW 1514  13.121  13.417   5.443
33206SOL    HW1 1515  13.026  13.424   5.428
33206SOL    HW2 1516  13.158  13.409   5.356
33207SOL     OW 1517   6.063   2.905   0.388
33207SOL    HW1 1518   6.019   2.981   0.425
33207SOL    HW2 1519   5.992   2.846   0.362
33208SOL     OW 1520  12.130  12.672   5.143
33208SOL    HW1 1521  12.152  12.655   5.052
33208SOL    HW2 1522  12.186  12.745   5.168
33209SOL     OW 1523  12.649  12.798  13.634
33209SOL    HW1 1524  12.658  12.842  13.549
33209SOL    HW2 1525  12.660  12.868  13.698
33210SOL     OW 1526   3.926   9.876   5.344
33210SOL    HW1 1527   3.851   9.900   5.290
33210SOL    HW2 1528   3.895   9.803   5.397
33211SOL     OW 1529  14.114   1.573   8.685
33211SOL    HW1 1530  14.034   1.563   8.634
33211SOL    HW2 1531  14.088   1.622   8.763
33212SOL     OW 1532   0.151   8.703   2.731
33212SOL    HW1 1533   0.120   8.794   2.726
33212SOL    HW2 1534   0.180   8.683   2.642
33213SOL     OW 1535   3.223   9.738   7.648
33213SOL    HW1 1536   3.265   9.689   7.719
33213SOL    HW2 1537   3.188   9.816   7.689
33214SOL     OW 1538  13.633  14.419  12.925
33214SOL    HW1 1539  13.624  14.488  12.859
33214SOL    HW2 1540  13.544  14.399  12.952
33215SOL     OW 1541   3.267  14.661   4.405
33215SOL    HW1 1542   3.239  14.732   4.463
33215SOL    HW2 1543   3.189  14.607   4.394
33216SOL     OW 1544   2.448   4.111   8.913
33216SOL    HW1 1545   2.416   4.053   8.983
33216SOL    HW2 1546   2.369   4.150   8.877
33217SOL     OW 1547  13.800   6.640   5.272
33217SOL    HW1 1548  13.869   6.649   5.338
33217SOL    HW2 1549  13.810   6.550   5.240
33218SOL     OW 1550   4.704   3.906   8.732
33218SOL    HW1 1551   4.654   3.877   8.656
33218SOL    HW2 1552   4.766   3.970   8.696
33219SOL     OW 1553   6.454   1.315   8.376
33219SOL    HW1 1554   6.430   1.246   8.437
33219SOL    HW2 1555   6.545   1.296   8.352
33220SOL     OW 1556  11.581   7.489  14.616
33220SOL    HW1 1557  11.579   7.393  14.616
33220SOL    HW2 1558  11.661   7.511  14.567
33221SOL     OW 1559  10.838   6.888   0.378
33221SOL    HW1 1560  10.744   6.904   0.378
33221SOL    HW2 1561  10.850   6.817   0.314
33222SOL     OW 1562  10.681  14.573   0.525
33222SOL    HW1 1563  10.735  14.615   0.592
33222SOL    HW2 1564  10.738  14.570   0.448
33223SOL     OW 1565   5.327   4.772  13.835
33223SOL    HW1 1566   5.343   4.816  13.918
33223SOL    HW2 1567   5.282   4.838  13.781
33224SOL     OW 1568   6.267   5.886   6.421
33224SOL    HW1 1569   6.175   5.858   6.421
33224SOL    HW2 1570   6.311   5.822   6.364
33225SOL     OW 1571   0.056  12.639   0.799
33225SOL    HW1 1572  14.867  12.652   0.726
33225SOL    HW2 1573   0.110  12.565   0.773
33226SOL     OW 1574  14.213   3.095   3.938
33226SOL    HW1 1575  14.301   3.129   3.954
33226SOL    HW2 1576  14.223   3.038   3.862
33227SOL     OW 1577   6.945  12.875   3.549
33227SOL    HW1 1578   6.882  12.944   3.528
33227SOL    HW2 1579   6.941  12.866   3.644
33228SOL     OW 1580   6.540  14.173   1.215
33228SOL    HW1 1581   6.565  14.265   1.210
33228SOL    HW2 1582   6.445  14.174   1.201
33229SOL     OW 1583   6.084   3.913   8.975
33229SOL    HW1 1584   6.132   3.993   8.995
33229SOL    HW2 1585   6.120   3.884   8.891
33230SOL     OW 1586  11.230   6.487   9.538
33230SOL    HW1 1587  11.230   6.428   9.462
33230SOL    HW2 1588  11.313   6.469   9.582
33231SOL     OW 1589   8.419   0.368   6.856
33231SOL    HW1 1590   8.438   0.346   6.765
33231SOL    HW2 1591   8.444   0.290   6.906
33232SOL     OW 1592   5.973   7.784  13.424
33232SOL    HW1 1593   6.022   7.712  13.384
33232SOL    HW2 1594   6.022   7.804  13.505
33233SOL     OW 1595   0.686   8.992  14.262
33233SOL    HW1 1596   0.692   9.085  14.283
33233SOL    HW2 1597   0.775   8.959  14.275
33234SOL     OW 1598  11.617  12.608  13.974
33234SOL    HW1 1599  11.689  12.582  14.031
33234SOL    HW2 1600  11.659  12.649  13.899
33235SOL     OW 1601  14.435   4.236   5.032
33235SOL    HW1 1602  14.363   4.272   5.084
33235SOL    HW2 1603  14.392   4.194   4.958
33236SOL     OW 1604  10.845   0.093   0.194
33236SOL    HW1 1605  10.886   0.022   0.145
33236SOL    HW2 1606  10.837   0.165   0.132
33237SOL     OW 1607  12.187   3.046   0.790
33237SOL    HW1 1608  12.204   2.992   0.867
33237SOL    HW2 1609  12.097   3.077   0.800
33238SOL     OW 1610   8.226   9.993  11.415
33238SOL    HW1 1611   8.169  10.000  11.492
33238SOL    HW2 1612   8.218   9.901  11.388
33239SOL     OW 1613  13.862  12.651  11.507
33239SOL    HW1 1614  13.869  12.744  11.531
33239SOL    HW2 1615  13.849  12.606  11.590
33240SOL     OW 1616   3.572   0.322  11.259
33240SOL    HW1 1617   3.502   0.371  11.302
33240SOL    HW2 1618   3.653   0.362  11.291
33241SOL     OW 1619   0.992   8.817   0.517
33241SOL    HW1 1620   0.983   8.827   0.422
33241SOL    HW2 1621   0.999   8.723   0.531
33242SOL     OW 1622   1.293  10.910  10.799
33242SOL    HW1 1623   1.327  10.843  10.740
33242SOL    HW2 1624   1.206  10.879  10.823
33243SOL     OW 1625   6.105   6.002  10.745
33243SOL    HW1 1626   6.186   5.955  10.725
33243SOL    HW2 1627   6.057   6.004  10.662
33244SOL     OW 1628   4.938   7.840   8.573
33244SOL    HW1 1629   4.999   7.890   8.518
33244SOL    HW2 1630   4.983   7.758   8.592
33245SOL     OW 1631   7.154   1.621   0.215
33245SOL    HW1 1632   7.093   1.673   0.266
33245SOL    HW2 1633   7.187   1.681   0.148
33246SOL     OW 1634   0.378   2.995   9.442
33246SOL    HW1 1635   0.349   3.073   9.395
33246SOL    HW2 1636   0.397   3.027   9.531
33247SOL     OW 1637  12.128   9.386   9.585
33247SOL    HW1 1638  12.122   9.460   9.525
33247SOL    HW2 1639  12.040   9.348   9.583
33248SOL     OW 1640   0.029   9.332  13.946
33248SOL    HW1 1641  14.833   9.292  13.892
33248SOL    HW2 1642   0.061   9.261  14.002
33249SOL     OW 1643   9.909  12.960   3.188
33249SOL    HW1 1644   9.869  12.950   3.101
33249SOL    HW2 1645   9.835  12.963   3.248
33250SOL     OW 1646   9.726   4.841  10.841
33250SOL    HW1 1647   9.676   4.768  10.877
33250SOL    HW2 1648   9.738   4.819  10.748
33251SOL     OW 1649   6.684  12.355   5.156
33251SOL    HW1 1650   6.668  12.448   5.174
33251SOL    HW2 1651   6.642  12.339   5.072
33252SOL     OW 1652   8.441   3.436  14.432
33252SOL    HW1 1653   8.510   3.500  14.416
33252SOL    HW2 1654   8.427   3.439  14.527
33253SOL     OW 1655  13.434   2.226  10.435
33253SOL    HW1 1656  13.509   2.168  10.445
33253SOL    HW2 1657  13.387   2.193  10.359
33254SOL     OW 1658   0.337  11.138   2.431
33254SOL    HW1 1659   0.359  11.227   2.406
33254SOL    HW2 1660   0.311  11.144   2.523
33255SOL     OW 1661   5.653   2.582  13.534
33255SOL    HW1 1662   5.664   2.676  13.524
33255SOL    HW2 1663   5.652   2.568  13.628
33256SOL     OW 1664   5.074   4.444   5.656
33256SOL    HW1 1665   5.070   4.539   5.663
33256SOL    HW2 1666   5.167   4.424   5.649
33257SOL     OW 1667  12.513   2.791  11.743
33257SOL    HW1 1668  12.522   2.712  11.796
33257SOL    HW2 1669  12.445   2.842  11.786
33258SOL     OW 1670  13.597   1.925  13.898
33258SOL    HW1 1671  13.686   1.957  13.893
33258SOL    HW2 1672  13.575   1.902  13.807
33259SOL     OW 1673   9.483   6.591   0.606
33259SOL    HW1 1674   9.404   6.540   0.617
33259SOL    HW2 1675   9.542   6.535   0.556
33260SOL     OW 1676  10.828   0.486  14.416
33260SOL    HW1 1677  10.921   0.488  14.393
33260SOL    HW2 1678  10.805   0.393  14.415
33261SOL     OW 1679   4.658   1.153  14.865
33261SOL    HW1 1680   4.568   1.162  14.833
33261SOL    HW2 1681   4.655   1.078   0.053
33262SOL     OW 1682   4.101   9.643   3.341
33262SOL    HW1 1683   4.193   9.670   3.332
33262SOL    HW2 1684   4.092   9.619   3.433
33263SOL     OW 1685   1.951   1.596   8.647
33263SOL    HW1 1686   2.012   1.625   8.714
33263SOL    HW2 1687   1.989   1.514   8.614
33264SOL     OW 1688   5.303   3.336   0.939
33264SOL    HW1 1689   5.394   3.313   0.955
33264SOL    HW2 1690   5.258   3.253   0.927
33265SOL     OW 1691   3.549   3.670   5.799
33265SOL    HW1 1692   3.589   3.644   5.881
33265SOL    HW2 1693   3.609   3.735   5.762
33266SOL     OW 1694   2.469   5.397   6.772
33266SOL    HW1 1695   2.486   5.318   6.823
33266SOL    HW2 1696   2.393   5.375   6.718
33267SOL     OW 1697   6.906   1.041   4.366
33267SOL    HW1 1698   6.939   1.127   4.337
33267SOL    HW2 1699   6.981   0.983   4.356
33268SOL     OW 1700   6.575   2.858  11.335
33268SOL    HW1 1701   6.570   2.853  11.430
33268SOL    HW2 1702   6.540   2.774  11.304
33269SOL     OW 1703   9.268  12.915   1.243
33269SOL    HW1 1704   9.250  13.002   1.279
33269SOL    HW2 1705   9.344  12.884   1.293
33270SOL     OW 1706  12.267  14.078  11.832
33270SOL    HW1 1707  12.208  14.144  11.796
33270SOL    HW2 1708  12.285  14.108  11.921
33271SOL     OW 1709   9.572   7.322  12.960
33271SOL    HW1 1710   9.525   7.317  12.877
33271SOL    HW2 1711   9.514   7.373  13.017
33272SOL     OW 1712  12.043   8.351   3.458
33272SOL    HW1 1713  12.115   8.310   3.507
33272SOL    HW2 1714  12.086   8.418   3.404
33273SOL     OW 1715   3.989   7.246   8.467
33273SOL    HW1 1716   4.070   7.293   8.487
33273SOL    HW2 1717   3.993   7.167   8.521
33274SOL     OW 1718  10.916  10.083   7.405
33274SOL    HW1 1719  10.822  10.098   7.389
33274SOL    HW2 1720  10.931   9.994   7.374
33275SOL     OW 1721   7.204   3.348   7.212
33275SOL    HW1 1722   7.212   3.293   7.290
33275SOL    HW2 1723   7.110   3.352   7.195
33276SOL     OW 1724  12.233   0.272   9.554
33276SOL    HW1 1725  12.159   0.280   9.494
33276SOL    HW2 1726  12.256   0.362   9.576
33277SOL     OW 1727   7.593   5.572   4.543
33277SOL    HW1 1728   7.556   5.659   4.562
33277SOL    HW2 1729   7.517   5.515   4.533
33278SOL     OW 1730  12.060  11.725  14.281
33278SOL    HW1 1731  12.136  11.782  14.290
33278SOL    HW2 1732  12.012  11.759  14.206
33279SOL     OW 1733   4.999  13.652  12.304
33279SOL    HW1 1734   4.946  13.613  12.235
33279SOL    HW2 1735   4.988  13.746  12.292
33280SOL     OW 1736   7.214  12.108  11.447
33280SOL    HW1 1737   7.262  12.184  11.480
33280SOL    HW2 1738   7.169  12.073  11.523
33281SOL     OW 1739   1.023   9.069   7.450
33281SOL    HW1 1740   1.004   8.975   7.454
33281SOL    HW2 1741   1.118   9.075   7.441
33282SOL     OW 1742  12.393   0.612  12.532
33282SOL    HW1 1743  12.365   0.540  12.475
33282SOL    HW2 1744  12.362   0.586  12.619
33283SOL     OW 1745  13.497  10.172   8.002
33283SOL    HW1 1746  13.446  10.096   7.972
33283SOL    HW2 1747  13.441  10.247   7.984
33284SOL     OW 1748  14.448   3.983   5.570
33284SOL    HW1 1749  14.386   4.006   5.501
33284SOL    HW2 1750  14.428   4.043   5.642
33285SOL     OW 1751   0.436  12.826   8.282
33285SOL    HW1 1752   0.453  12.753   8.342
33285SOL    HW2 1753   0.361  12.872   8.321
33286SOL     OW 1754  13.888   1.266   2.125
33286SOL    HW1 1755  13.918   1.211   2.197
33286SOL    HW2 1756  13.792   1.265   2.132
33287SOL     OW 1757   6.530   2.297   6.735
33287SOL    HW1 1758   6.611   2.331   6.696
33287SOL    HW2 1759   6.548   2.298   6.830
33288SOL     OW 1760   5.801  13.812  10.134
33288SOL    HW1 1761   5.806  13.882  10.070
33288SOL    HW2 1762   5.765  13.853  10.212
33289SOL     OW 1763   9.125   0.908   4.105
33289SOL    HW1 1764   9.155   0.947   4.187
33289SOL    HW2 1765   9.196   0.925   4.043
33290SOL     OW 1766   8.240   6.285  13.180
33290SOL    HW1 1767   8.247   6.287  13.084
33290SOL    HW2 1768   8.191   6.365  13.201
33291SOL     OW 1769   1.899   5.460  12.144
33291SOL    HW1 1770   1.893   5.556  12.149
33291SOL    HW2 1771   1.859   5.429  12.226
33292SOL     OW 1772  12.132   2.435  10.203
33292SOL    HW1 1773  12.220   2.454  10.237
33292SOL    HW2 1774  12.129   2.340  10.197
33293SOL     OW 1775   3.000   3.239  11.047
33293SOL    HW1 1776   2.975   3.218  11.137
33293SOL    HW2 1777   2.917   3.252  11.001
33294SOL     OW 1778   6.503   5.350   9.850
33294SOL    HW1 1779   6.464   5.438   9.848
33294SOL    HW2 1780   6.552   5.344   9.768
33295SOL     OW 1781  13.791   4.250   1.415
33295SOL    HW1 1782  13.751   4.325   1.458
33295SOL    HW2 1783  13.841   4.206   1.484
33296SOL     OW 1784   2.363   0.704   2.522
33296SOL    HW1 1785   2.363   0.654   2.604
33296SOL    HW2 1786   2.336   0.641   2.456
33297SOL     OW 1787   1.868   1.713   2.315
33297SOL    HW1 1788   1.887   1.651   2.245
33297SOL    HW2 1789   1.914   1.677   2.391
33298SOL     OW 1790  11.290   5.906   0.379
33298SOL    HW1 1791  11.264   5.846   0.448
33298SOL    HW2 1792  11.239   5.986   0.397
33299SOL     OW 1793  10.326  12.500   1.115
33299SOL    HW1 1794  10.364  12.587   1.105
33299SOL    HW2 1795  10.320  12.487   1.209
33300SOL     OW 1796  13.180  10.973   4.753
33300SOL    HW1 1797  13.098  11.014   4.782
33300SOL    HW2 1798  13.217  11.036   4.691
33301SOL     OW 1799  13.270  12.542  11.628
33301SOL    HW1 1800  13.299  12.455  11.656
33301SOL    HW2 1801  13.194  12.526  11.573
33302SOL     OW 1802  13.258   3.281   0.710
33302SOL    HW1 1803  13.204   3.204   0.691
33302SOL    HW2 1804  13.321   3.285   0.638
33303SOL     OW 1805   7.192   5.425   9.830
33303SOL    HW1 1806   7.121   5.480   9.861
33303SOL    HW2 1807   7.269   5.480   9.834
33304SOL     OW 1808   3.812  12.010   8.494
33304SOL    HW1 1809   3.805  11.914   8.497
33304SOL    HW2 1810   3.816  12.030   8.401
33305SOL     OW 1811  12.062   0.445   5.555
33305SOL    HW1 1812  12.152   0.422   5.581
33305SOL    HW2 1813  12.046   0.530   5.596
33306SOL     OW 1814   6.175  12.608   1.519
33306SOL    HW1 1815   6.232  12.684   1.507
33306SOL    HW2 1816   6.192  12.579   1.609
33307SOL     OW 1817   0.845   9.681  11.733
33307SOL    HW1 1818   0.874   9.630  11.809
33307SOL    HW2 1819   0.753   9.698  11.750
33308SOL     OW 1820   8.017   1.099  14.438
33308SOL    HW1 1821   7.975   1.184  14.446
33308SOL    HW2 1822   7.976   1.058  14.361
33309SOL     OW 1823  11.992  14.129  12.074
33309SOL    HW1 1824  12.072  14.167  12.037
33309SOL    HW2 1825  12.002  14.035  12.059
33310SOL     OW 1826   4.201  13.233   4.482
33310SOL    HW1 1827   4.222  13.293   4.411
33310SOL    HW2 1828   4.252  13.266   4.556
33311SOL     OW 1829   7.738   3.316  13.559
33311SOL    HW1 1830   7.825   3.308  13.520
33311SOL    HW2 1831   7.747   3.275  13.646
33312SOL     OW 1832   0.991  11.371  11.990
33312SOL    HW1 1833   0.926  11.351  12.057
33312SOL    HW2 1834   1.071  11.328  12.020
33313SOL     OW 1835   4.642   4.139   7.559
33313SOL    HW1 1836   4.707   4.125   7.627
33313SOL    HW2 1837   4.689   4.186   7.490
33314SOL     OW 1838   7.273   7.150   3.538
33314SOL    HW1 1839   7.288   7.072   3.593
33314SOL    HW2 1840   7.186   7.136   3.501
33315SOL     OW 1841   3.447   3.444  10.251
33315SOL    HW1 1842   3.370   3.391  10.230
33315SOL    HW2 1843   3.504   3.434  10.175
33316SOL     OW 1844   5.603  10.701  10.605
33316SOL    HW1 1845   5.683  10.649  10.592
33316SOL    HW2 1846   5.534  10.636  10.617
33317SOL     OW 1847  12.809   4.098  10.950
33317SOL    HW1 1848  12.726   4.050  10.940
33317SOL    HW2 1849  12.871   4.031  10.978
33318SOL     OW 1850   9.506   0.152   0.265
33318SOL    HW1 1851   9.421   0.126   0.230
33318SOL    HW2 1852   9.541   0.213   0.200
33319SOL     OW 1853   7.414   5.800  13.061
33319SOL    HW1 1854   7.424   5.784  13.155
33319SOL    HW2 1855   7.411   5.712  13.022
33320SOL     OW 1856  12.051   5.514   8.509
33320SOL    HW1 1857  12.033   5.538   8.418
33320SOL    HW2 1858  11.965   5.504   8.549
33321SOL     OW 1859   3.564   0.997   9.664
33321SOL    HW1 1860   3.524   0.910   9.670
33321SOL    HW2 1861   3.553   1.035   9.751
33322SOL     OW 1862   7.356  10.669   3.605
33322SOL    HW1 1863   7.373  10.760   3.579
33322SOL    HW2 1864   7.443  10.631   3.617
33323SOL     OW 1865   0.906  10.096   0.436
33323SOL    HW1 1866   0.845  10.029   0.467
33323SOL    HW2 1867   0.992  10.054   0.443
33324SOL     OW 1868  10.709  11.157  12.533
33324SOL    HW1 1869  10.774  11.114  12.588
33324SOL    HW2 1870  10.716  11.250  12.555
33325SOL     OW 1871   6.232   7.988   1.185
33325SOL    HW1 1872   6.226   8.066   1.240
33325SOL    HW2 1873   6.317   7.995   1.141
33326SOL     OW 1874   4.655   1.724   3.172
33326SOL    HW1 1875   4.606   1.682   3.101
33326SOL    HW2 1876   4.701   1.797   3.130
33327SOL     OW 1877  14.371   4.358   5.475
33327SOL    HW1 1878  14.453   4.376   5.429
33327SOL    HW2 1879  14.397   4.342   5.565
33328SOL     OW 1880   4.469   1.801  10.347
33328SOL    HW1 1881   4.413   1.786  10.422
33328SOL    HW2 1882   4.410   1.799  10.272
33329SOL     OW 1883  11.592   4.029  10.033
33329SOL    HW1 1884  11.503   4.057  10.015
33329SOL    HW2 1885  11.614   3.970   9.960
33330SOL     OW 1886   8.789  10.858  10.502
33330SOL    HW1 1887   8.765  10.853  10.409
33330SOL    HW2 1888   8.879  10.827  10.505
33331SOL     OW 1889  11.960   3.227   0.516
33331SOL    HW1 1890  11.905   3.244   0.439
33331SOL    HW2 1891  11.957   3.132   0.526
33332SOL     OW 1892  14.688  12.007   4.840
33332SOL    HW1 1893  14.699  11.918   4.808
33332SOL    HW2 1894  14.593  12.019   4.846
33333SOL     OW 1895  10.178  13.850   6.690
33333SOL    HW1 1896  10.117  13.862   6.617
33333SOL    HW2 1897  10.166  13.759   6.717
33334SOL     OW 1898   2.835   9.966   5.483
33334SOL    HW1 1899   2.925   9.981   5.512
33334SOL    HW2 1900   2.782   9.976   5.563
33335SOL     OW 1901  14.254   2.988   1.745
33335SOL    HW1 1902  14.174   3.002   1.694
33335SOL    HW2 1903  14.264   3.068   1.796
33336SOL     OW 1904   2.249   6.045   2.791
33336SOL    HW1 1905   2.296   5.984   2.847
33336SOL    HW2 1906   2.282   6.131   2.816
33337SOL     OW 1907   4.596  11.054   9.946
33337SOL    HW1 1908   4.506  11.027   9.929
33337SOL    HW2 1909   4.633  11.071   9.860
33338SOL     OW 1910   3.395   1.808  14.631
33338SOL    HW1 1911   3.473   1.782  14.581
33338SOL    HW2 1912   3.414   1.898  14.659
33339SOL     OW 1913   4.063  11.228   1.546
33339SOL    HW1 1914   3.995  11.169   1.515
33339SOL    HW2 1915   4.015  11.302   1.584
33340SOL     OW 1916   1.730   3.993  11.697
33340SOL    HW1 1917   1.714   4.043  11.777
33340SOL    HW2 1918   1.649   3.944  11.683
33341SOL     OW 1919   5.242   2.079  13.070
33341SOL    HW1 1920   5.161   2.027  13.074
33341SOL    HW2 1921   5.220   2.153  13.014
33342SOL     OW 1922   8.662  11.409   3.815
33342SOL    HW1 1923   8.592  11.394   3.751
33342SOL    HW2 1924   8.678  11.322   3.854
33343SOL     OW 1925   9.578   0.693   5.213
33343SOL    HW1 1926   9.518   0.767   5.205
33343SOL    HW2 1927   9.568   0.662   5.303
33344SOL     OW 1928   2.632  14.679  12.244
33344SOL    HW1 1929   2.607  14.621  12.172
33344SOL    HW2 1930   2.586  14.644  12.320
33345SOL     OW 1931  13.977   5.820   0.178
33345SOL    HW1 1932  13.947   5.831   0.088
33345SOL    HW2 1933  14.045   5.752   0.173
33346SOL     OW 1934  14.508   1.227  11.407
33346SOL    HW1 1935  14.579   1.290  11.418
33346SOL    HW2 1936  14.449   1.244  11.481
33347SOL     OW 1937  10.093   7.603  12.593
33347SOL    HW1 1938  10.138   7.529  12.634
33347SOL    HW2 1939  10.121   7.600  12.501
33348SOL     OW 1940   2.839  10.128   2.482
33348SOL    HW1 1941   2.747  10.143   2.506
33348SOL    HW2 1942   2.867  10.210   2.441
33349SOL     OW 1943   3.332  14.435  10.673
33349SOL    HW1 1944   3.257  14.439  10.733
33349SOL    HW2 1945   3.301  14.383  10.599
33350SOL     OW 1946  10.455  12.862  13.795
33350SOL    HW1 1947  10.401  12.809  13.735
33350SOL    HW2 1948  10.545  12.843  13.769
33351SOL     OW 1949   5.818   0.431  10.053
33351SOL    HW1 1950   5.750   0.498  10.062
33351SOL    HW2 1951   5.843   0.410  10.143
33352SOL     OW 1952   0.768   9.850   7.587
33352SOL    HW1 1953   0.823   9.839   7.665
33352SOL    HW2 1954   0.704   9.917   7.613
33353SOL     OW 1955  11.244   9.508  13.542
33353SOL    HW1 1956  11.164   9.506  13.489
33353SOL    HW2 1957  11.310   9.546  13.485
33354SOL     OW 1958  11.720   9.520  12.695
33354SOL    HW1 1959  11.714   9.612  12.668
33354SOL    HW2 1960  11.650   9.509  12.759
33355SOL     OW 1961   5.916  12.176   2.282
33355SOL    HW1 1962   5.952  12.265   2.276
33355SOL    HW2 1963   5.950  12.141   2.364
33356SOL     OW 1964  10.564   8.359   3.284
33356SOL    HW1 1965  10.643   8.308   3.298
33356SOL    HW2 1966  10.570   8.431   3.347
33357SOL     OW 1967  14.422   8.283  12.486
33357SOL    HW1 1968  14.399   8.374  12.505
33357SOL    HW2 1969  14.351   8.252  12.430
33358SOL     OW 1970   0.007   6.031   0.235
33358SOL    HW1 1971   0.050   6.108   0.197
33358SOL    HW2 1972  14.834   5.989   0.162
33359SOL     OW 1973   3.177   4.467  11.656
33359SOL    HW1 1974   3.167   4.552  11.615
33359SOL    HW2 1975   3.196   4.407  11.583
33360SOL     OW 1976   2.454  13.706   3.257
33360SOL    HW1 1977   2.458  13.739   3.346
33360SOL    HW2 1978   2.541  13.672   3.240
33361SOL     OW 1979   3.954   0.041   4.201
33361SOL    HW1 1980   3.872   0.036   4.251
33361SOL    HW2 1981   3.974   0.135   4.198
33362SOL     OW 1982  10.358   6.861   7.748
33362SOL    HW1 1983  10.288   6.796   7.753
33362SOL    HW2 1984  10.401   6.843   7.665
33363SOL     OW 1985  12.368   5.785   2.859
33363SOL    HW1 1986  12.404   5.698   2.876
33363SOL    HW2 1987  12.342   5.782   2.767
33364SOL     OW 1988   2.281   2.598   8.606
33364SOL    HW1 1989   2.193   2.624   8.634
33364SOL    HW2 1990   2.287   2.629   8.515
33365SOL     OW 1991   3.440  11.747   4.066
33365SOL    HW1 1992   3.449  11.770   3.974
33365SOL    HW2 1993   3.405  11.826   4.108
33366SOL     OW 1994  12.282  11.388   9.668
33366SOL    HW1 1995  12.309  11.438   9.745
33366SOL    HW2 1996  12.357  11.393   9.609
33367SOL     OW 1997  12.838   0.359   7.764
33367SOL    HW1 1998  12.781   0.333   7.837
33367SOL    HW2 1999  12.870   0.276   7.728
33368SOL     OW 2000   3.624   3.810   9.708
33368SOL    HW1 2001   3.689   3.812   9.638
33368SOL    HW2 2002   3.550   3.860   9.673
33369SOL     OW 2003   9.047  12.420   7.490
33369SOL    HW1 2004   9.074  12.420   7.582
33369SOL    HW2 2005   9.129  12.411   7.442
33370SOL     OW 2006  12.041   4.793  14.120
33370SOL    HW1 2007  12.082   4.878  14.102
33370SOL    HW2 2008  12.115   4.735  14.139
33371SOL     OW 2009   3.486   9.172  12.848
33371SOL    HW1 2010   3.555   9.167  12.781
33371SOL    HW2 2011   3.450   9.260  12.838
33372SOL     OW 2012   1.815   0.277   9.610
33372SOL    HW1 2013   1.730   0.235   9.626
33372SOL    HW2 2014   1.823   0.277   9.514
33373SOL     OW 2015   7.872  11.974   7.484
33373SOL    HW1 2016   7.964  11.960   7.462
33373SOL    HW2 2017   7.845  11.892   7.526
33374SOL     OW 2018   6.824   8.964   2.816
33374SOL    HW1 2019   6.892   8.902   2.790
33374SOL    HW2 2020   6.795   9.005   2.735
33375SOL     OW 2021   4.375   6.592  14.295
33375SOL    HW1 2022   4.453   6.543  14.267
33375SOL    HW2 2023   4.387   6.680  14.258
33376SOL     OW 2024  10.166  11.674  13.623
33376SOL    HW1 2025  10.107  11.742  13.592
33376SOL    HW2 2026  10.109  11.602  13.649
33377SOL     OW 2027   9.115  14.489   4.927
33377SOL    HW1 2028   9.197  14.458   4.889
33377SOL    HW2 2029   9.062  14.409   4.936
33378SOL     OW 2030   6.257   3.191   0.778
33378SOL    HW1 2031   6.290   3.192   0.868
33378SOL    HW2 2032   6.173   3.146   0.783
33379SOL     OW 2033   9.804   9.943  13.987
33379SOL    HW1 2034   9.855  10.024  13.988
33379SOL    HW2 2035   9.832   9.898  13.907
33380SOL     OW 2036   8.101  11.342   0.678
33380SOL    HW1 2037   8.141  11.264   0.639
33380SOL    HW2 2038   8.125  11.413   0.619
33381SOL     OW 2039   9.049   5.723   2.324
33381SOL    HW1 2040   8.984   5.690   2.386
33381SOL    HW2 2041   9.029   5.677   2.243
33382SOL     OW 2042   1.382  12.459   9.725
33382SOL    HW1 2043   1.325  12.384   9.705
33382SOL    HW2 2044   1.465  12.419   9.752
33383SOL     OW 2045  14.385   4.248  11.649
33383SOL    HW1 2046  14.442   4.226  11.723
33383SOL    HW2 2047  14.327   4.172  11.640
33384SOL     OW 2048   8.619   8.529   6.493
33384SOL    HW1 2049   8.647   8.513   6.583
33384SOL    HW2 2050   8.524   8.541   6.498
33385SOL     OW 2051   9.379   3.467   9.748
33385SOL    HW1 2052   9.356   3.558   9.766
33385SOL    HW2 2053   9.301   3.417   9.773
33386SOL     OW 2054   2.177  10.030   9.676
33386SOL    HW1 2055   2.096   9.990   9.705
33386SOL    HW2 2056   2.159  10.059   9.586
33387SOL     OW 2057   2.299   4.375  10.127
33387SOL    HW1 2058   2.309   4.281  10.140
33387SOL    HW2 2059   2.206   4.388  10.110
33388SOL     OW 2060   7.119  14.661  11.234
33388SOL    HW1 2061   7.204  14.618  11.221
33388SOL    HW2 2062   7.083  14.620  11.312
33389SOL     OW 2063   5.497  14.573   4.383
33389SOL    HW1 2064   5.430  14.504   4.388
33389SOL    HW2 2065   5.495  14.614   4.469
33390SOL     OW 2066   0.227   8.623   5.230
33390SOL    HW1 2067   0.204   8.569   5.154
33390SOL    HW2 2068   0.142   8.653   5.264
33391SOL     OW 2069   3.208   5.268   4.231
33391SOL    HW1 2070   3.113   5.264   4.238
33391SOL    HW2 2071   3.239   5.209   4.300
33392SOL     OW 2072  14.588  11.142  13.472
33392SOL    HW1 2073  14.578  11.065  13.529
33392SOL    HW2 2074  14.613  11.105  13.387
33393SOL     OW 2075   5.115  13.499   4.533
33393SOL    HW1 2076   5.149  13.414   4.505
33393SOL    HW2 2077   5.060  13.529   4.460
33394SOL     OW 2078   7.974  12.588   1.391
33394SOL    HW1 2079   7.889  12.593   1.434
33394SOL    HW2 2080   8.034  12.557   1.458
33395SOL     OW 2081   9.714  12.779  12.251
33395SOL    HW1 2082   9.765  12.799  12.173
33395SOL    HW2 2083   9.658  12.856  12.264
33396SOL     OW 2084  11.106  14.328   6.976
33396SOL    HW1 2085  11.086  14.237   6.950
33396SOL    HW2 2086  11.196  14.325   7.007
33397SOL     OW 2087   0.755   6.682   2.629
33397SOL    HW1 2088   0.668   6.719   2.646
33397SOL    HW2 2089   0.766   6.615   2.697
33398SOL     OW 2090   2.553   6.872  10.150
33398SOL    HW1 2091   2.461   6.848  10.138
33398SOL    HW2 2092   2.573   6.847  10.240
33399SOL     OW 2093   8.976   8.431   1.697
33399SOL    HW1 2094   8.945   8.470   1.615
33399SOL    HW2 2095   8.925   8.476   1.765
33400SOL     OW 2096  13.602   7.995   9.855
33400SOL    HW1 2097  13.638   8.075   9.894
33400SOL    HW2 2098  13.654   7.924   9.893
33401SOL     OW 2099   5.001   8.894   3.805
33401SOL    HW1 2100   4.974   8.809   3.772
33401SOL    HW2 2101   5.065   8.926   3.741
33402SOL     OW 2102   4.855   4.997  10.039
33402SOL    HW1 2103   4.807   4.968  10.116
33402SOL    HW2 2104   4.863   5.092  10.050
33403SOL     OW 2105  12.501   2.864  14.041
33403SOL    HW1 2106  12.528   2.927  14.107
33403SOL    HW2 2107  12.541   2.781  14.068
33404SOL     OW 2108   9.281   6.671   1.533
33404SOL    HW1 2109   9.375   6.670   1.515
33404SOL    HW2 2110   9.256   6.578   1.533
33405SOL     OW 2111   0.968   2.173  14.867
33405SOL    HW1 2112   0.904   2.184   0.066
33405SOL    HW2 2113   1.010   2.258  14.860
33406SOL     OW 2114  13.337   7.340   0.915
33406SOL    HW1 2115  13.242   7.333   0.909
33406SOL    HW2 2116  13.360   7.291   0.994
33407SOL     OW 2117   8.036  13.488   4.698
33407SOL    HW1 2118   8.101  13.554   4.675
33407SOL    HW2 2119   7.953  13.521   4.663
33408SOL     OW 2120   4.979   5.962   8.870
33408SOL    HW1 2121   4.978   5.951   8.775
33408SOL    HW2 2122   5.066   5.997   8.889
33409SOL     OW 2123   1.524   4.969   9.786
33409SOL    HW1 2124   1.526   4.931   9.698
33409SOL    HW2 2125   1.568   4.903   9.840
33410SOL     OW 2126   9.838  11.674   8.569
33410SOL    HW1 2127   9.896  11.608   8.606
33410SOL    HW2 2128   9.859  11.674   8.475
33411SOL     OW 2129   2.341  10.738   2.476
33411SOL    HW1 2130   2.434  10.722   2.457
33411SOL    HW2 2131   2.325  10.692   2.558
33412SOL     OW 2132  13.171   8.516  11.240
33412SOL    HW1 2133  13.254   8.533  11.194
33412SOL    HW2 2134  13.168   8.583  11.309
33413SOL     OW 2135  10.453  14.202  11.572
33413SOL    HW1 2136  10.360  14.224  11.570
33413SOL    HW2 2137  10.457  14.113  11.535
33414SOL     OW 2138   8.807   2.343   6.010
33414SOL    HW1 2139   8.899   2.366   6.001
33414SOL    HW2 2140   8.787   2.358   6.103
33415SOL     OW 2141  11.870   1.968   4.523
33415SOL    HW1 2142  11.881   1.921   4.606
33415SOL    HW2 2143  11.779   1.999   4.525
33416SOL     OW 2144  10.106   9.977   4.782
33416SOL    HW1 2145  10.106   9.929   4.699
33416SOL    HW2 2146  10.136  10.065   4.759
33417SOL     OW 2147  12.724   1.507  14.485
33417SOL    HW1 2148  12.746   1.439  14.549
33417SOL    HW2 2149  12.698   1.582  14.539
33418SOL     OW 2150   9.881   0.090   7.973
33418SOL    HW1 2151   9.802   0.140   7.993
33418SOL    HW2 2152   9.850   0.013   7.925
33419SOL     OW 2153   9.077   4.478   1.386
33419SOL    HW1 2154   9.092   4.470   1.292
33419SOL    HW2 2155   9.014   4.408   1.407
33420SOL     OW 2156  12.499   3.970   4.470
33420SOL    HW1 2157  12.407   3.954   4.490
33420SOL    HW2 2158  12.533   4.014   4.549
33421SOL     OW 2159  11.885   7.835  14.811
33421SOL    HW1 2160  11.940   7.820   0.017
33421SOL    HW2 2161  11.848   7.922  14.825
33422SOL     OW 2162   6.609  10.304   9.467
33422SOL    HW1 2163   6.539  10.238   9.463
33422SOL    HW2 2164   6.689  10.255   9.448
33423SOL     OW 2165  14.451   5.897   6.277
33423SOL    HW1 2166  14.359   5.872   6.289
33423SOL    HW2 2167  14.454   5.940   6.191
33424SOL     OW 2168   9.218   8.383   2.808
33424SOL    HW1 2169   9.146   8.365   2.868
33424SOL    HW2 2170   9.175   8.399   2.724
33425SOL     OW 2171   0.211  10.325   0.157
33425SOL    HW1 2172   0.157  10.401   0.181
33425SOL    HW2 2173   0.208  10.323   0.062
33426SOL     OW 2174  12.340   2.676  12.705
33426SOL    HW1 2175  12.426   2.648  12.738
33426SOL    HW2 2176  12.343   2.655  12.611
33427SOL     OW 2177  12.428  11.197   9.018
33427SOL    HW1 2178  12.351  11.212   8.963
33427SOL    HW2 2179  12.395  11.205   9.108
33428SOL     OW 2180   4.457   7.268   0.071
33428SOL    HW1 2181   4.445   7.192   0.129
33428SOL    HW2 2182   4.408   7.246  14.864
33429SOL     OW 2183  10.280   0.636   6.617
33429SOL    HW1 2184  10.202   0.690   6.629
33429SOL    HW2 2185  10.353   0.695   6.638
33430SOL     OW 2186  10.934   8.571   2.868
33430SOL    HW1 2187  10.945   8.593   2.961
33430SOL    HW2 2188  10.894   8.484   2.868
33431SOL     OW 2189   1.635  14.422   1.283
33431SOL    HW1 2190   1.693  14.480   1.235
33431SOL    HW2 2191   1.555  14.472   1.296
33432SOL     OW 2192   9.319   0.423  11.525
33432SOL    HW1 2193   9.348   0.507  11.560
33432SOL    HW2 2194   9.399   0.370  11.520
33433SOL     OW 2195   3.006   9.326  11.773
33433SOL    HW1 2196   2.945   9.265  11.731
33433SOL    HW2 2197   3.091   9.283  11.767
33434SOL     OW 2198   5.756  13.097   0.222
33434SOL    HW1 2199   5.719  13.134   0.142
33434SOL    HW2 2200   5.814  13.166   0.256
33435SOL     OW 2201   7.344   9.095  11.237
33435SOL    HW1 2202   7.251   9.117  11.235
33435SOL    HW2 2203   7.388   9.178  11.259
33436SOL     OW 2204   8.160   3.031   1.155
33436SOL    HW1 2205   8.106   2.954   1.168
33436SOL    HW2 2206   8.127   3.095   1.218
33437SOL     OW 2207   6.224   4.753  10.856
33437SOL    HW1 2208   6.178   4.701  10.791
33437SOL    HW2 2209   6.231   4.695  10.932
33438SOL     OW 2210  14.519   8.018   4.127
33438SOL    HW1 2211  14.521   8.009   4.032
33438SOL    HW2 2212  14.514   7.928   4.160
33439SOL     OW 2213   3.587  12.553  10.975
33439SOL    HW1 2214   3.663  12.592  10.931
33439SOL    HW2 2215   3.514  12.567  10.915
33440SOL     OW 2216   2.105  13.930  13.533
33440SOL    HW1 2217   2.060  13.970  13.608
33440SOL    HW2 2218   2.079  13.837  13.537
33441SOL     OW 2219   7.313   4.432   3.528
33441SOL    HW1 2220   7.373   4.504   3.508
33441SOL    HW2 2221   7.355   4.385   3.600
33442SOL     OW 2222  14.701  10.534   8.258
33442SOL    HW1 2223  14.620  10.549   8.210
33442SOL    HW2 2224  14.698  10.442   8.283
33443SOL     OW 2225   3.612   4.231  10.261
33443SOL    HW1 2226   3.692   4.189  10.230
33443SOL    HW2 2227   3.561   4.160  10.299
33444SOL     OW 2228  10.612   1.924   3.171
33444SOL    HW1 2229  10.656   1.841   3.188
33444SOL    HW2 2230  10.659   1.962   3.097
33445SOL     OW 2231   9.377  11.661  10.254
33445SOL    HW1 2232   9.300  11.710  10.281
33445SOL    HW2 2233   9.444  11.682  10.320
33446SOL     OW 2234  11.071   1.488   4.215
33446SOL    HW1 2235  11.065   1.558   4.279
33446SOL    HW2 2236  10.980   1.471   4.189
33447SOL     OW 2237   2.161   8.718   7.832
33447SOL    HW1 2238   2.238   8.661   7.844
33447SOL    HW2 2239   2.194   8.791   7.781
33448SOL     OW 2240   1.284  13.773   9.993
33448SOL    HW1 2241   1.375  13.756  10.017
33448SOL    HW2 2242   1.261  13.704   9.932
33449SOL     OW 2243   8.002   3.373   3.317
33449SOL    HW1 2244   8.076   3.347   3.372
33449SOL    HW2 2245   8.039   3.383   3.230
33450SOL     OW 2246   5.652   0.131  10.598
33450SOL    HW1 2247   5.703   0.143  10.517
33450SOL    HW2 2248   5.692   0.055  10.640
33451SOL     OW 2249   9.485   9.969   1.502
33451SOL    HW1 2250   9.488  10.036   1.570
33451SOL    HW2 2251   9.458  10.016   1.424
33452SOL     OW 2252   3.655   8.937  11.969
33452SOL    HW1 2253   3.741   8.938  11.926
33452SOL    HW2 2254   3.620   9.024  11.953
33453SOL     OW 2255  13.553   5.956   9.362
33453SOL    HW1 2256  13.512   5.913   9.286
33453SOL    HW2 2257  13.549   6.049   9.341
33454SOL     OW 2258  10.964   3.498   6.001
33454SOL    HW1 2259  10.871   3.508   5.981
33454SOL    HW2 2260  10.971   3.520   6.094
33455SOL     OW 2261   4.279   0.886   5.598
33455SOL    HW1 2262   4.191   0.915   5.621
33455SOL    HW2 2263   4.330   0.898   5.678
33456SOL     OW 2264   4.548   7.914   4.445
33456SOL    HW1 2265   4.549   7.954   4.358
33456SOL    HW2 2266   4.468   7.948   4.486
33457SOL     OW 2267  10.231   9.544   2.937
33457SOL    HW1 2268  10.140   9.561   2.964
33457SOL    HW2 2269  10.280   9.542   3.019
33458SOL     OW 2270  13.719  12.047   9.681
33458SOL    HW1 2271  13.760  12.134   9.678
33458SOL    HW2 2272  13.776  11.995   9.737
33459SOL     OW 2273   4.223   7.872   7.660
33459SOL    HW1 2274   4.138   7.854   7.620
33459SOL    HW2 2275   4.259   7.786   7.679
33460SOL     OW 2276  10.997   3.617  12.287
33460SOL    HW1 2277  11.037   3.638  12.203
33460SOL    HW2 2278  10.971   3.701  12.324
33461SOL     OW 2279  14.690   9.666   3.411
33461SOL    HW1 2280  14.644   9.749   3.424
33461SOL    HW2 2281  14.718   9.667   3.319
33462SOL     OW 2282   5.471  14.726   8.653
33462SOL    HW1 2283   5.472  14.762   8.564
33462SOL    HW2 2284   5.556  14.684   8.663
33463SOL     OW 2285   0.867   3.600   8.735
33463SOL    HW1 2286   0.949   3.611   8.686
33463SOL    HW2 2287   0.801   3.582   8.668
33464SOL     OW 2288   3.022  12.340   7.882
33464SOL    HW1 2289   2.963  12.264   7.878
33464SOL    HW2 2290   3.084  12.325   7.810
33465SOL     OW 2291   1.565  10.297  11.504
33465SOL    HW1 2292   1.554  10.384  11.466
33465SOL    HW2 2293   1.493  10.290  11.567
33466SOL     OW 2294   9.519  11.793  13.466
33466SOL    HW1 2295   9.547  11.878  13.434
33466SOL    HW2 2296   9.566  11.730  13.411
33467SOL     OW 2297   3.855   1.805   3.006
33467SOL    HW1 2298   3.944   1.791   3.041
33467SOL    HW2 2299   3.816   1.718   3.006
33468SOL     OW 2300   2.248   9.927  14.657
33468SOL    HW1 2301   2.311   9.867  14.618
33468SOL    HW2 2302   2.291   9.958  14.737
33469SOL     OW 2303   3.174   2.634   7.912
33469SOL    HW1 2304   3.162   2.578   7.989
33469SOL    HW2 2305   3.213   2.714   7.946
33470SOL     OW 2306  12.208   0.842  13.165
33470SOL    HW1 2307  12.251   0.891  13.235
33470SOL    HW2 2308  12.135   0.898  13.138
33471SOL     OW 2309  14.282  12.257   3.502
33471SOL    HW1 2310  14.195  12.277   3.467
33471SOL    HW2 2311  14.343  12.286   3.435
33472SOL     OW 2312   0.692   1.840   2.647
33472SOL    HW1 2313   0.713   1.919   2.697
33472SOL    HW2 2314   0.666   1.872   2.561
33473SOL     OW 2315   8.267   8.441  12.135
33473SOL    HW1 2316   8.358   8.451  12.107
33473SOL    HW2 2317   8.236   8.530  12.150
33474SOL     OW 2318  11.635   3.923   9.550
33474SOL    HW1 2319  11.621   3.938   9.456
33474SOL    HW2 2320  11.712   3.866   9.553
33475SOL     OW 2321   5.393   8.664   3.870
33475SOL    HW1 2322   5.420   8.576   3.893
33475SOL    HW2 2323   5.301   8.670   3.898
33476SOL     OW 2324  14.653  13.951  12.143
33476SOL    HW1 2325  14.668  13.857  12.154
33476SOL    HW2 2326  14.638  13.984  12.231
33477SOL     OW 2327  10.953  10.436  12.550
33477SOL    HW1 2328  11.047  10.418  12.556
33477SOL    HW2 2329  10.934  10.431  12.456
33478SOL     OW 2330   0.787   5.837  12.958
33478SOL    HW1 2331   0.694   5.822  12.977
33478SOL    HW2 2332   0.833   5.804  13.036
33479SOL     OW 2333   4.808   8.959  12.112
33479SOL    HW1 2334   4.765   9.043  12.128
33479SOL    HW2 2335   4.759   8.921  12.040
33480SOL     OW 2336   9.961   9.860   7.347
33480SOL    HW1 2337   9.881   9.900   7.382
33480SOL    HW2 2338  10.006   9.932   7.302
33481SOL     OW 2339  10.964   4.644   9.018
33481SOL    HW1 2340  10.936   4.591   8.943
33481SOL    HW2 2341  11.007   4.582   9.076
33482SOL     OW 2342   3.740   6.391  11.051
33482SOL    HW1 2343   3.663   6.443  11.072
33482SOL    HW2 2344   3.705   6.313  11.007
33483SOL     OW 2345  10.522  12.765  11.238
33483SOL    HW1 2346  10.598  12.751  11.294
33483SOL    HW2 2347  10.497  12.856  11.252
33484SOL     OW 2348   2.614   2.003   5.213
33484SOL    HW1 2349   2.598   1.909   5.211
33484SOL    HW2 2350   2.634   2.027   5.123
33485SOL     OW 2351  13.042   3.286   9.480
33485SOL    HW1 2352  12.947   3.274   9.479
33485SOL    HW2 2353  13.054   3.380   9.492
33486SOL     OW 2354   1.249  13.119  13.332
33486SOL    HW1 2355   1.289  13.205  13.321
33486SOL    HW2 2356   1.162  13.128  13.292
33487SOL     OW 2357   9.483  14.268   4.914
33487SOL    HW1 2358   9.560  14.267   4.857
33487SOL    HW2 2359   9.417  14.317   4.865
33488SOL     OW 2360   0.576   0.489   6.400
33488SOL    HW1 2361   0.642   0.455   6.341
33488SOL    HW2 2362   0.502   0.512   6.344
33489SOL     OW 2363   3.735   0.817  12.921
33489SOL    HW1 2364   3.751   0.723  12.935
33489SOL    HW2 2365   3.694   0.822  12.835
33490SOL     OW 2366   6.710   9.752   2.891
33490SOL    HW1 2367   6.627   9.712   2.867
33490SOL    HW2 2368   6.735   9.709   2.973
33491SOL     OW 2369   4.705   5.592  14.696
33491SOL    HW1 2370   4.715   5.497  14.694
33491SOL    HW2 2371   4.681   5.611  14.787
33492SOL     OW 2372  14.023  14.659  12.672
33492SOL    HW1 2373  14.106  14.706  12.667
33492SOL    HW2 2374  13.971  14.696  12.600
33493SOL     OW 2375  12.803   7.942  11.017
33493SOL    HW1 2376  12.749   8.020  11.034
33493SOL    HW2 2377  12.834   7.954  10.927
33494SOL     OW 2378   0.755   6.256   1.977
33494SOL    HW1 2379   0.700   6.208   1.915
33494SOL    HW2 2380   0.740   6.348   1.957
33495SOL     OW 2381   5.677   0.493  14.264
33495SOL    HW1 2382   5.633   0.485  14.179
33495SOL    HW2 2383   5.609   0.476  14.329
33496SOL     OW 2384   2.197  11.443  11.902
33496SOL    HW1 2385   2.179  11.354  11.871
33496SOL    HW2 2386   2.254  11.430  11.978
33497SOL     OW 2387  10.197  11.388  10.361
33497SOL    HW1 2388  10.109  11.420  10.340
33497SOL    HW2 2389  10.188  11.293  10.358
33498SOL     OW 2390   4.906  13.874   4.756
33498SOL    HW1 2391   4.955  13.795   4.778
33498SOL    HW2 2392   4.932  13.938   4.822
33499SOL     OW 2393   5.887  11.872  12.231
33499SOL    HW1 2394   5.795  11.886  12.208
33499SOL    HW2 2395   5.934  11.939  12.181
33500SOL     OW 2396  14.081  14.168   6.089
33500SOL    HW1 2397  14.124  14.087   6.061
33500SOL    HW2 2398  14.152  14.223   6.120
33501SOL     OW 2399  12.002  10.163   6.791
33501SOL    HW1 2400  11.992  10.122   6.877
33501SOL    HW2 2401  12.088  10.204   6.794
33502SOL     OW 2402   7.880  10.343   0.045
33502SOL    HW1 2403   7.854  10.297  14.837
33502SOL    HW2 2404   7.803  10.396   0.069
33503SOL     OW 2405   9.866   1.416  14.422
33503SOL    HW1 2406   9.886   1.463  14.503
33503SOL    HW2 2407   9.779   1.380  14.437
33504SOL     OW 2408   3.376   7.556   8.950
33504SOL    HW1 2409   3.389   7.498   8.875
33504SOL    HW2 2410   3.419   7.638   8.925
33505SOL     OW 2411   5.846   4.917   2.893
33505SOL    HW1 2412   5.843   5.002   2.936
33505SOL    HW2 2413   5.893   4.861   2.955
33506SOL     OW 2414   3.392   3.786   7.179
33506SOL    HW1 2415   3.309   3.833   7.191
33506SOL    HW2 2416   3.417   3.805   7.089
33507SOL     OW 2417   4.267  11.262   5.569
33507SOL    HW1 2418   4.362  11.249   5.575
33507SOL    HW2 2419   4.231  11.211   5.642
33508SOL     OW 2420  14.802   2.620   0.207
33508SOL    HW1 2421  14.866   2.657   0.146
33508SOL    HW2 2422  14.800   2.527   0.185
33509SOL     OW 2423   7.471   5.835   4.529
33509SOL    HW1 2424   7.396   5.802   4.481
33509SOL    HW2 2425   7.433   5.884   4.602
33510SOL     OW 2426  13.931   4.650   2.274
33510SOL    HW1 2427  13.906   4.671   2.185
33510SOL    HW2 2428  14.026   4.643   2.271
33511SOL     OW 2429   3.331   0.262   4.899
33511SOL    HW1 2430   3.304   0.347   4.865
33511SOL    HW2 2431   3.399   0.281   4.963
33512SOL     OW 2432   4.002   8.441   2.883
33512SOL    HW1 2433   3.978   8.532   2.898
33512SOL    HW2 2434   3.919   8.394   2.889
33513SOL     OW 2435   2.456  12.064   5.240
33513SOL    HW1 2436   2.412  12.146   5.220
33513SOL    HW2 2437   2.431  12.005   5.168
33514SOL     OW 2438   8.489   3.514   3.779
33514SOL    HW1 2439   8.519   3.423   3.789
33514SOL    HW2 2440   8.461   3.520   3.687
33515SOL     OW 2441   6.748   9.643   4.370
33515SOL    HW1 2442   6.706   9.573   4.320
33515SOL    HW2 2443   6.754   9.716   4.308
33516SOL     OW 2444   8.945   2.356   1.336
33516SOL    HW1 2445   8.966   2.263   1.343
33516SOL    HW2 2446   8.853   2.361   1.361
33517SOL     OW 2447  13.033  11.788   3.580
33517SOL    HW1 2448  13.008  11.758   3.493
33517SOL    HW2 2449  13.093  11.861   3.564
33518SOL     OW 2450   5.213   4.905   7.209
33518SOL    HW1 2451   5.242   4.994   7.232
33518SOL    HW2 2452   5.158   4.917   7.132
33519SOL     OW 2453   3.941   2.473   8.429
33519SOL    HW1 2454   4.032   2.500   8.422
33519SOL    HW2 2455   3.937   2.388   8.386
33520SOL     OW 2456   3.901   4.426   4.406
33520SOL    HW1 2457   3.827   4.407   4.463
33520SOL    HW2 2458   3.900   4.356   4.340
33521SOL     OW 2459   5.751   8.082   1.033
33521SOL    HW1 2460   5.661   8.099   1.006
33521SOL    HW2 2461   5.744   8.059   1.125
33522SOL     OW 2462   5.256   2.186  12.408
33522SOL    HW1 2463   5.191   2.129  12.450
33522SOL    HW2 2464   5.254   2.267  12.459
33523SOL     OW 2465   8.529   8.046   5.124
33523SOL    HW1 2466   8.561   8.095   5.048
33523SOL    HW2 2467   8.466   7.984   5.088
33524SOL     OW 2468   5.817   2.066  12.163
33524SOL    HW1 2469   5.801   2.158  12.144
33524SOL    HW2 2470   5.822   2.062  12.258
33525SOL     OW 2471   1.661   5.681   4.736
33525SOL    HW1 2472   1.703   5.599   4.761
33525SOL    HW2 2473   1.715   5.716   4.665
33526SOL     OW 2474  12.096   0.337   3.639
33526SOL    HW1 2475  12.005   0.365   3.637
33526SOL    HW2 2476  12.114   0.317   3.731
33527SOL     OW 2477   2.166   3.391   6.691
33527SOL    HW1 2478   2.217   3.424   6.765
33527SOL    HW2 2479   2.080   3.431   6.702
33528SOL     OW 2480   5.149   2.072   3.891
33528SOL    HW1 2481   5.054   2.060   3.892
33528SOL    HW2 2482   5.168   2.117   3.973
33529SOL     OW 2483   2.153   4.952   5.611
33529SOL    HW1 2484   2.202   4.992   5.539
33529SOL    HW2 2485   2.065   4.987   5.603
33530SOL     OW 2486   1.639   8.125   3.971
33530SOL    HW1 2487   1.725   8.128   3.930
33530SOL    HW2 2488   1.595   8.050   3.930
33531SOL     OW 2489   8.197   1.864   3.100
33531SOL    HW1 2490   8.231   1.951   3.080
33531SOL    HW2 2491   8.194   1.819   3.016
33532SOL     OW 2492   4.111   5.893   1.981
33532SOL    HW1 2493   4.120   5.904   2.076
33532SOL    HW2 2494   4.199   5.871   1.951
33533SOL     OW 2495   8.630   0.685   3.193
33533SOL    HW1 2496   8.629   0.590   3.196
33533SOL    HW2 2497   8.681   0.711   3.270
33534SOL     OW 2498  12.518   6.785  12.582
33534SOL    HW1 2499  12.466   6.842  12.638
33534SOL    HW2 2500  12.604   6.826  12.578
33535SOL     OW 2501   6.981  14.003   1.866
33535SOL    HW1 2502   7.025  13.922   1.840
33535SOL    HW2 2503   7.043  14.072   1.845
33536SOL     OW 2504   8.660  12.544   9.283
33536SOL    HW1 2505   8.693  12.463   9.322
33536SOL    HW2 2506   8.634  12.598   9.357
33537SOL     OW 2507   9.665   7.731   8.712
33537SOL    HW1 2508   9.628   7.740   8.800
33537SOL    HW2 2509   9.593   7.698   8.659
33538SOL     OW 2510   1.695   3.686   8.691
33538SOL    HW1 2511   1.651   3.603   8.673
33538SOL    HW2 2512   1.623   3.748   8.706
33539SOL     OW 2513   9.309   6.356   1.336
33539SOL    HW1 2514   9.258   6.346   1.417
33539SOL    HW2 2515   9.289   6.444   1.306
33540SOL     OW 2516  14.199   9.473   7.027
33540SOL    HW1 2517  14.178   9.507   6.941
33540SOL    HW2 2518  14.161   9.385   7.028
33541SOL     OW 2519   9.421  13.738  10.071
33541SOL    HW1 2520   9.449  13.778   9.988
33541SOL    HW2 2521   9.435  13.644  10.058
33542SOL     OW 2522   2.699   2.497  12.661
33542SOL    HW1 2523   2.712   2.416  12.612
33542SOL    HW2 2524   2.787   2.529  12.678
33543SOL     OW 2525   4.372   9.261  14.032
33543SOL    HW1 2526   4.377   9.191  13.967
33543SOL    HW2 2527   4.461   9.296  14.036
33544SOL     OW 2528   2.267   5.754   4.799
33544SOL    HW1 2529   2.304   5.669   4.821
33544SOL    HW2 2530   2.181   5.734   4.761
33545SOL     OW 2531   9.923   9.100   7.108
33545SOL    HW1 2532  10.001   9.047   7.124
33545SOL    HW2 2533   9.860   9.072   7.174
33546SOL     OW 2534  11.888   5.848   8.624
33546SOL    HW1 2535  11.968   5.897   8.608
33546SOL    HW2 2536  11.840   5.900   8.688
33547SOL     OW 2537   7.423  14.494   1.616
33547SOL    HW1 2538   7.496  14.499   1.678
33547SOL    HW2 2539   7.345  14.502   1.670
33548SOL     OW 2540   1.891  10.006   9.775
33548SOL    HW1 2541   1.839  10.087   9.771
33548SOL    HW2 2542   1.829   9.937   9.752
33549SOL     OW 2543   3.683  10.398   0.642
33549SOL    HW1 2544   3.727  10.475   0.678
33549SOL    HW2 2545   3.670  10.420   0.550
33550SOL     OW 2546   0.254   9.031   9.084
33550SOL    HW1 2547   0.258   9.062   8.994
33550SOL    HW2 2548   0.337   8.986   9.098
33551SOL     OW 2549   6.122   4.635  10.097
33551SOL    HW1 2550   6.080   4.591  10.023
33551SOL    HW2 2551   6.145   4.563  10.157
33552SOL     OW 2552   6.022   0.738   3.108
33552SOL    HW1 2553   5.965   0.674   3.150
33552SOL    HW2 2554   6.095   0.687   3.074
33553SOL     OW 2555  10.673  11.120  14.801
33553SOL    HW1 2556  10.591  11.069  14.799
33553SOL    HW2 2557  10.709  11.110  14.713
33554SOL     OW 2558   4.953   0.201   7.079
33554SOL    HW1 2559   4.942   0.157   6.994
33554SOL    HW2 2560   4.953   0.295   7.057
33555SOL     OW 2561  14.252   8.202   0.251
33555SOL    HW1 2562  14.296   8.204   0.166
33555SOL    HW2 2563  14.182   8.137   0.240
33556SOL     OW 2564   7.145  10.445   5.638
33556SOL    HW1 2565   7.168  10.525   5.591
33556SOL    HW2 2566   7.055  10.426   5.610
33557SOL     OW 2567   7.145   9.508   4.070
33557SOL    HW1 2568   7.088   9.517   3.994
33557SOL    HW2 2569   7.204   9.436   4.047
33558SOL     OW 2570   1.897  13.088  14.356
33558SOL    HW1 2571   1.939  13.002  14.353
33558SOL    HW2 2572   1.967  13.149  14.332
33559SOL     OW 2573   7.560   3.984   5.709
33559SOL    HW1 2574   7.472   3.947   5.718
33559SOL    HW2 2575   7.566   4.011   5.618
33560SOL     OW 2576   9.477  10.510   2.825
33560SOL    HW1 2577   9.430  10.493   2.744
33560SOL    HW2 2578   9.564  10.474   2.811
33561SOL     OW 2579   4.901   0.379  14.656
33561SOL    HW1 2580   4.973   0.416  14.605
33561SOL    HW2 2581   4.943   0.316  14.714
33562SOL     OW 2582  13.567  10.061  13.790
33562SOL    HW1 2583  13.654  10.089  13.764
33562SOL    HW2 2584  13.537  10.129  13.851
33563SOL     OW 2585  13.868   2.398   7.823
33563SOL    HW1 2586  13.886   2.454   7.748
33563SOL    HW2 2587  13.858   2.458   7.897
33564SOL     OW 2588  14.046  12.679   0.171
33564SOL    HW1 2589  13.982  12.708   0.106
33564SOL    HW2 2590  14.119  12.646   0.120
33565SOL     OW 2591   9.197   4.606  14.170
33565SOL    HW1 2592   9.152   4.600  14.254
33565SOL    HW2 2593   9.206   4.700  14.154
33566SOL     OW 2594   5.114   9.068   2.024
33566SOL    HW1 2595   5.071   9.128   1.963
33566SOL    HW2 2596   5.057   8.992   2.027
33567SOL     OW 2597   1.672   7.632  12.902
33567SOL    HW1 2598   1.752   7.592  12.936
33567SOL    HW2 2599   1.601   7.588  12.950
33568SOL     OW 2600   6.514   5.843  12.024
33568SOL    HW1 2601   6.546   5.933  12.027
33568SOL    HW2 2602   6.554   5.801  12.100
33569SOL     OW 2603   4.107  11.044  11.571
33569SOL    HW1 2604   4.195  11.014  11.548
33569SOL    HW2 2605   4.114  11.070  11.663
33570SOL     OW 2606   8.284  13.296  14.689
33570SOL    HW1 2607   8.356  13.352  14.718
33570SOL    HW2 2608   8.210  13.356  14.679
33571SOL     OW 2609   9.561   5.084   9.242
33571SOL    HW1 2610   9.618   5.131   9.181
33571SOL    HW2 2611   9.610   5.005   9.264
33572SOL     OW 2612  12.912  11.530   9.493
33572SOL    HW1 2613  12.881  11.469   9.426
33572SOL    HW2 2614  13.004  11.543   9.473
33573SOL     OW 2615   8.033   0.924  13.917
33573SOL    HW1 2616   8.012   0.856  13.853
33573SOL    HW2 2617   8.069   0.876  13.992
33574SOL     OW 2618   8.580   9.644   5.058
33574SOL    HW1 2619   8.506   9.653   4.998
33574SOL    HW2 2620   8.646   9.596   5.007
33575SOL     OW 2621   4.281   4.814   6.497
33575SOL    HW1 2622   4.281   4.815   6.592
33575SOL    HW2 2623   4.362   4.858   6.472
33576SOL     OW 2624   2.478  10.262   8.845
33576SOL    HW1 2625   2.404  10.320   8.858
33576SOL    HW2 2626   2.494  10.223   8.931
33577SOL     OW 2627   3.848  14.075  10.186
33577SOL    HW1 2628   3.787  14.103  10.254
33577SOL    HW2 2629   3.792  14.057  10.110
33578SOL     OW 2630  11.224  13.877   6.334
33578SOL    HW1 2631  11.218  13.872   6.238
33578SOL    HW2 2632  11.134  13.867   6.364
33579SOL     OW 2633   0.306   0.700   0.872
33579SOL    HW1 2634   0.348   0.689   0.957
33579SOL    HW2 2635   0.213   0.713   0.893
33580SOL     OW 2636  10.026   5.045  13.621
33580SOL    HW1 2637  10.022   4.982  13.693
33580SOL    HW2 2638  10.071   5.121  13.658
33581SOL     OW 2639   1.731   6.392   1.721
33581SOL    HW1 2640   1.684   6.450   1.781
33581SOL    HW2 2641   1.799   6.447   1.682
33582SOL     OW 2642   2.376   4.936   3.117
33582SOL    HW1 2643   2.372   5.031   3.126
33582SOL    HW2 2644   2.302   4.914   3.059
33583SOL     OW 2645   5.942   3.084   0.613
33583SOL    HW1 2646   5.871   3.148   0.607
33583SOL    HW2 2647   5.932   3.045   0.699
33584SOL     OW 2648   5.081   1.813  14.351
33584SOL    HW1 2649   5.064   1.851  14.437
33584SOL    HW2 2650   5.158   1.860  14.319
33585SOL     OW 2651  13.742   4.476  10.956
33585SOL    HW1 2652  13.652   4.453  10.979
33585SOL    HW2 2653  13.735   4.562  10.915
33586SOL     OW 2654   2.627  13.810  10.122
33586SOL    HW1 2655   2.586  13.871  10.184
33586SOL    HW2 2656   2.556  13.750  10.097
33587SOL     OW 2657   1.082   7.443  10.991
33587SOL    HW1 2658   1.065   7.355  11.025
33587SOL    HW2 2659   1.125   7.428  10.907
33588SOL     OW 2660   4.422  12.578   9.379
33588SOL    HW1 2661   4.428  12.486   9.356
33588SOL    HW2 2662   4.467  12.624   9.308
33589SOL     OW 2663  14.747   9.217   4.837
33589SOL    HW1 2664  14.708   9.131   4.857
33589SOL    HW2 2665  14.732   9.229   4.743
33590SOL     OW 2666   2.636   2.155   0.834
33590SOL    HW1 2667   2.590   2.181   0.755
33590SOL    HW2 2668   2.596   2.206   0.904
33591SOL     OW 2669  14.395  14.762   5.295
33591SOL    HW1 2670  14.434  14.833   5.346
33591SOL    HW2 2671  14.444  14.763   5.212
33592SOL     OW 2672   2.033   6.270   2.506
33592SOL    HW1 2673   2.003   6.189   2.547
33592SOL    HW2 2674   2.096   6.306   2.569
33593SOL     OW 2675   2.753   3.902   9.665
33593SOL    HW1 2676   2.693   3.977   9.666
33593SOL    HW2 2677   2.742   3.863   9.579
33594SOL     OW 2678   3.293  12.455   8.902
33594SOL    HW1 2679   3.328  12.441   8.990
33594SOL    HW2 2680   3.370  12.475   8.849
33595SOL     OW 2681   1.447  10.983   6.364
33595SOL    HW1 2682   1.461  10.920   6.435
33595SOL    HW2 2683   1.510  10.958   6.297
33596SOL     OW 2684   6.029  13.457   9.744
33596SOL    HW1 2685   6.072  13.434   9.826
33596SOL    HW2 2686   6.020  13.552   9.746
33597SOL     OW 2687  14.390   7.665   5.075
33597SOL    HW1 2688  14.465   7.709   5.035
33597SOL    HW2 2689  14.379   7.585   5.024
33598SOL     OW 2690   1.960  14.463   5.065
33598SOL    HW1 2691   1.995  14.539   5.019
33598SOL    HW2 2692   1.933  14.403   4.994
33599SOL     OW 2693   3.138  14.145  12.218
33599SOL    HW1 2694   3.053  14.119  12.185
33599SOL    HW2 2695   3.151  14.091  12.296
33600SOL     OW 2696   5.959   3.067   5.436
33600SOL    HW1 2697   5.891   3.015   5.394
33600SOL    HW2 2698   5.938   3.157   5.412
33601SOL     OW 2699  14.850   4.666  10.792
33601SOL    HW1 2700   0.026   4.588  10.820
33601SOL    HW2 2701  14.816   4.704  10.873
33602SOL     OW 2702   1.680   6.731   4.472
33602SOL    HW1 2703   1.623   6.731   4.549
33602SOL    HW2 2704   1.620   6.727   4.398
33603SOL     OW 2705   8.936   4.207   4.499
33603SOL    HW1 2706   9.012   4.159   4.533
33603SOL    HW2 2707   8.861   4.156   4.530
33604SOL     OW 2708  12.348  13.483   6.019
33604SOL    HW1 2709  12.257  13.462   6.001
33604SOL    HW2 2710  12.376  13.535   5.944
33605SOL     OW 2711  10.595   4.971   6.419
33605SOL    HW1 2712  10.586   5.045   6.479
33605SOL    HW2 2713  10.645   5.005   6.345
33606SOL     OW 2714   1.434  11.847   0.130
33606SOL    HW1 2715   1.522  11.871   0.101
33606SOL    HW2 2716   1.395  11.930   0.158
33607SOL     OW 2717   4.562   8.604   9.850
33607SOL    HW1 2718   4.607   8.551   9.917
33607SOL    HW2 2719   4.469   8.596   9.872
33608SOL     OW 2720  14.823   4.369  12.302
33608SOL    HW1 2721  14.815   4.422  12.222
33608SOL    HW2 2722   0.024   4.408  12.349
33609SOL     OW 2723  14.112   8.424   5.881
33609SOL    HW1 2724  14.039   8.413   5.941
33609SOL    HW2 2725  14.157   8.503   5.912
33610SOL     OW 2726   8.233   8.053  14.235
33610SOL    HW1 2727   8.262   8.015  14.152
33610SOL    HW2 2728   8.159   8.108  14.212
33611SOL     OW 2729  11.999   4.276   1.677
33611SOL    HW1 2730  11.977   4.360   1.636
33611SOL    HW2 2731  12.020   4.218   1.603
33612SOL     OW 2732  10.769   0.062  13.089
33612SOL    HW1 2733  10.727   0.021  13.165
33612SOL    HW2 2734  10.851   0.014  13.078
33613SOL     OW 2735  12.923   2.135  14.612
33613SOL    HW1 2736  12.903   2.076  14.540
33613SOL    HW2 2737  12.948   2.076  14.684
33614SOL     OW 2738   1.778  12.227  12.239
33614SOL    HW1 2739   1.760  12.205  12.330
33614SOL    HW2 2740   1.747  12.318  12.230
33615SOL     OW 2741   1.830   9.471  13.217
33615SOL    HW1 2742   1.903   9.527  13.242
33615SOL    HW2 2743   1.775   9.526  13.161
33616SOL     OW 2744   7.775   2.670   9.563
33616SOL    HW1 2745   7.766   2.704   9.652
33616SOL    HW2 2746   7.730   2.586   9.565
33617SOL     OW 2747   8.105   4.754   9.671
33617SOL    HW1 2748   8.133   4.711   9.753
33617SOL    HW2 2749   8.063   4.835   9.700
33618SOL     OW 2750   0.879   4.976  10.505
33618SOL    HW1 2751   0.900   4.883  10.514
33618SOL    HW2 2752   0.817   4.979  10.432
33619SOL     OW 2753  10.182   6.506   8.393
33619SOL    HW1 2754  10.271   6.532   8.370
33619SOL    HW2 2755  10.185   6.410   8.397
33620SOL     OW 2756   4.623   7.201   6.325
33620SOL    HW1 2757   4.555   7.160   6.378
33620SOL    HW2 2758   4.576   7.247   6.256
33621SOL     OW 2759  12.740  10.491   3.300
33621SOL    HW1 2760  12.652  10.510   3.268
33621SOL    HW2 2761  12.798  10.535   3.238
33622SOL     OW 2762   6.040  10.520  13.946
33622SOL    HW1 2763   5.980  10.490  14.014
33622SOL    HW2 2764   5.992  10.506  13.864
33623SOL     OW 2765   5.664   3.537   6.179
33623SOL    HW1 2766   5.684   3.480   6.253
33623SOL    HW2 2767   5.646   3.477   6.107
33624SOL     OW 2768   4.734   0.566   8.549
33624SOL    HW1 2769   4.645   0.577   8.581
33624SOL    HW2 2770   4.733   0.481   8.505
33625SOL     OW 2771  10.262  11.712   6.940
33625SOL    HW1 2772  10.192  11.762   6.898
33625SOL    HW2 2773  10.304  11.664   6.869
33626SOL     OW 2774   0.596  12.559   1.985
33626SOL    HW1 2775   0.624  12.497   1.918
33626SOL    HW2 2776   0.557  12.632   1.936
33627SOL     OW 2777  11.907   7.212  12.928
33627SOL    HW1 2778  11.976   7.159  12.889
33627SOL    HW2 2779  11.944   7.242  13.011
33628SOL     OW 2780  10.530   5.457   1.222
33628SOL    HW1 2781  10.566   5.541   1.194
33628SOL    HW2 2782  10.608   5.404   1.242
33629SOL     OW 2783  11.108  12.593   3.085
33629SOL    HW1 2784  11.152  12.660   3.033
33629SOL    HW2 2785  11.040  12.559   3.027
33630SOL     OW 2786   0.822  13.700   3.777
33630SOL    HW1 2787   0.813  13.689   3.872
33630SOL    HW2 2788   0.890  13.767   3.767
33631SOL     OW 2789   0.494   5.487   7.889
33631SOL    HW1 2790   0.580   5.526   7.875
33631SOL    HW2 2791   0.511   5.407   7.938
33632SOL     OW 2792  14.406   4.349   9.236
33632SOL    HW1 2793  14.350   4.408   9.186
33632SOL    HW2 2794  14.479   4.404   9.265
33633SOL     OW 2795   9.258   8.594  14.654
33633SOL    HW1 2796   9.309   8.517  14.679
33633SOL    HW2 2797   9.240   8.581  14.560
33634SOL     OW 2798   2.406  13.535   2.350
33634SOL    HW1 2799   2.452  13.549   2.433
33634SOL    HW2 2800   2.472  13.551   2.282
33635SOL     OW 2801  13.012   3.863  11.197
33635SOL    HW1 2802  13.016   3.944  11.248
33635SOL    HW2 2803  13.050   3.887  11.112
33636SOL     OW 2804   0.772  10.230   6.194
33636SOL    HW1 2805   0.693  10.282   6.203
33636SOL    HW2 2806   0.797  10.207   6.283
33637SOL     OW 2807  14.109   0.985  13.872
33637SOL    HW1 2808  14.098   1.011  13.963
33637SOL    HW2 2809  14.021   0.965  13.841
33638SOL     OW 2810   5.685  11.860   8.914
33638SOL    HW1 2811   5.613  11.804   8.885
33638SOL    HW2 2812   5.761  11.829   8.866
33639SOL     OW 2813  10.987   5.262  11.936
33639SOL    HW1 2814  10.999   5.275  11.842
33639SOL    HW2 2815  11.059   5.205  11.962
33640SOL     OW 2816   0.703   3.591  13.079
33640SOL    HW1 2817   0.668   3.506  13.049
33640SOL    HW2 2818   0.690   3.590  13.174
33641SOL     OW 2819   8.610   9.433  12.506
33641SOL    HW1 2820   8.628   9.517  12.464
33641SOL    HW2 2821   8.614   9.369  12.435
33642SOL     OW 2822  10.014  12.727  12.431
33642SOL    HW1 2823  10.014  12.816  12.395
33642SOL    HW2 2824  10.104  12.696  12.418
33643SOL     OW 2825   9.130  11.302  10.794
33643SOL    HW1 2826   9.218  11.288  10.760
33643SOL    HW2 2827   9.074  11.243  10.743
33644SOL     OW 2828   7.211  10.731  10.050
33644SOL    HW1 2829   7.125  10.726  10.008
33644SOL    HW2 2830   7.192  10.723  10.144
33645SOL     OW 2831  14.378   9.093   6.227
33645SOL    HW1 2832  14.454   9.047   6.263
33645SOL    HW2 2833  14.309   9.027   6.226
33646SOL     OW 2834  13.839  14.579   4.513
33646SOL    HW1 2835  13.756  14.596   4.468
33646SOL    HW2 2836  13.821  14.598   4.605
33647SOL     OW 2837  14.011   5.946  13.182
33647SOL    HW1 2838  13.997   5.958  13.276
33647SOL    HW2 2839  14.045   6.030  13.152
33648SOL     OW 2840  12.868  12.334  12.349
33648SOL    HW1 2841  12.871  12.248  12.391
33648SOL    HW2 2842  12.854  12.315  12.256
33649SOL     OW 2843   6.458  14.083   7.486
33649SOL    HW1 2844   6.453  14.049   7.397
33649SOL    HW2 2845   6.543  14.052   7.518
33650SOL     OW 2846  11.798   6.729  10.362
33650SOL    HW1 2847  11.878   6.723  10.413
33650SOL    HW2 2848  11.729   6.700  10.421
33651SOL     OW 2849   4.057   1.484   8.890
33651SOL    HW1 2850   4.016   1.526   8.966
33651SOL    HW2 2851   4.148   1.470   8.915
33652SOL     OW 2852   2.434   3.646  12.908
33652SOL    HW1 2853   2.364   3.710  12.897
33652SOL    HW2 2854   2.515   3.695  12.892
33653SOL     OW 2855   2.461   7.951  13.514
33653SOL    HW1 2856   2.475   7.928  13.422
33653SOL    HW2 2857   2.374   7.917  13.534
33654SOL     OW 2858   8.135   5.847  14.458
33654SOL    HW1 2859   8.111   5.771  14.512
33654SOL    HW2 2860   8.219   5.876  14.494
33655SOL     OW 2861  10.006   5.957  14.093
33655SOL    HW1 2862   9.936   5.989  14.150
33655SOL    HW2 2863   9.964   5.946  14.008
33656SOL     OW 2864   1.183   3.750   7.803
33656SOL    HW1 2865   1.204   3.763   7.896
33656SOL    HW2 2866   1.244   3.807   7.756
33657SOL     OW 2867   3.992   8.318  14.738
33657SOL    HW1 2868   3.988   8.314  14.834
33657SOL    HW2 2869   4.052   8.247  14.714
33658SOL     OW 2870  14.421   3.700  10.550
33658SOL    HW1 2871  14.362   3.677  10.478
33658SOL    HW2 2872  14.508   3.697  10.510
33659SOL     OW 2873  11.104  14.286   5.644
33659SOL    HW1 2874  11.149  14.286   5.559
33659SOL    HW2 2875  11.071  14.375   5.654
33660SOL     OW 2876   6.848  12.475   0.916
33660SOL    HW1 2877   6.828  12.528   0.993
33660SOL    HW2 2878   6.802  12.520   0.844
33661SOL     OW 2879  12.022   7.370   7.260
33661SOL    HW1 2880  11.962   7.442   7.277
33661SOL    HW2 2881  11.966   7.293   7.249
33662SOL     OW 2882   8.466   8.040   7.033
33662SOL    HW1 2883   8.478   7.960   7.084
33662SOL    HW2 2884   8.422   8.100   7.094
33663SOL     OW 2885  11.531  10.371   6.758
33663SOL    HW1 2886  11.595  10.331   6.817
33663SOL    HW2 2887  11.461  10.403   6.814
33664SOL     OW 2888   3.267  13.653   5.490
33664SOL    HW1 2889   3.223  13.632   5.408
33664SOL    HW2 2890   3.355  13.616   5.480
33665SOL     OW 2891  14.660   7.752  13.333
33665SOL    HW1 2892  14.566   7.732  13.339
33665SOL    HW2 2893  14.665   7.847  13.339
33666SOL     OW 2894  13.521  11.904  14.537
33666SOL    HW1 2895  13.479  11.960  14.472
33666SOL    HW2 2896  13.457  11.897  14.608
33667SOL     OW 2897  10.969  11.669  14.452
33667SOL    HW1 2898  11.043  11.727  14.433
33667SOL    HW2 2899  10.940  11.694  14.539
33668SOL     OW 2900   6.309   4.359   1.667
33668SOL    HW1 2901   6.371   4.426   1.637
33668SOL    HW2 2902   6.226   4.381   1.624
33669SOL     OW 2903   2.228   5.425  11.636
33669SOL    HW1 2904   2.165   5.495  11.623
33669SOL    HW2 2905   2.309   5.457  11.596
33670SOL     OW 2906  13.466   3.984  14.000
33670SOL    HW1 2907  13.534   4.051  14.006
33670SOL    HW2 2908  13.471   3.937  14.083
33671SOL     OW 2909  13.081   5.544   9.928
33671SOL    HW1 2910  13.085   5.627   9.976
33671SOL    HW2 2911  13.034   5.565   9.847
33672SOL     OW 2912   1.162   7.585  14.205
33672SOL    HW1 2913   1.195   7.611  14.119
33672SOL    HW2 2914   1.163   7.489  14.203
33673SOL     OW 2915   4.426   6.565  10.450
33673SOL    HW1 2916   4.367   6.598  10.518
33673SOL    HW2 2917   4.369   6.520  10.388
33674SOL     OW 2918  11.449   1.756   0.881
33674SOL    HW1 2919  11.469   1.844   0.851
33674SOL    HW2 2920  11.534   1.714   0.894
33675SOL     OW 2921   6.645  13.736   4.503
33675SOL    HW1 2922   6.662  13.642   4.492
33675SOL    HW2 2923   6.581  13.740   4.574
33676SOL     OW 2924  11.854   8.509  10.078
33676SOL    HW1 2925  11.764   8.485  10.098
33676SOL    HW2 2926  11.903   8.489  10.157
33677SOL     OW 2927   9.685   0.328   1.267
33677SOL    HW1 2928   9.622   0.371   1.324
33677SOL    HW2 2929   9.661   0.236   1.270
33678SOL     OW 2930   0.916  14.600   6.536
33678SOL    HW1 2931   0.999  14.553   6.540
33678SOL    HW2 2932   0.876  14.587   6.622
33679SOL     OW 2933   8.584  12.635  12.024
33679SOL    HW1 2934   8.644  12.674  11.961
33679SOL    HW2 2935   8.517  12.702  12.039
33680SOL     OW 2936   4.209  12.635   4.370
33680SOL    HW1 2937   4.209  12.683   4.288
33680SOL    HW2 2938   4.170  12.695   4.434
33681SOL     OW 2939   4.890   4.383   0.092
33681SOL    HW1 2940   4.848   4.467   0.073
33681SOL    HW2 2941   4.901   4.383   0.187
33682SOL     OW 2942   9.404   1.452  14.857
33682SOL    HW1 2943   9.429   1.483   0.072
33682SOL    HW2 2944   9.324   1.500  14.836
33683SOL     OW 2945   8.011   1.916  10.498
33683SOL    HW1 2946   8.088   1.886  10.450
33683SOL    HW2 2947   8.010   2.011  10.485
33684SOL     OW 2948   3.742   5.228  11.156
33684SOL    HW1 2949   3.758   5.302  11.214
33684SOL    HW2 2950   3.723   5.155  11.215
33685SOL     OW 2951   8.027  12.830   3.391
33685SOL    HW1 2952   8.048  12.749   3.437
33685SOL    HW2 2953   8.105  12.885   3.404
33686SOL     OW 2954   6.496   3.341   1.458
33686SOL    HW1 2955   6.528   3.374   1.541
33686SOL    HW2 2956   6.560   3.274   1.433
33687SOL     OW 2957   3.997  12.777  10.665
33687SOL    HW1 2958   4.036  12.717  10.601
33687SOL    HW2 2959   3.955  12.844  10.612
33688SOL     OW 2960   9.261  10.964   1.064
33688SOL    HW1 2961   9.351  10.969   1.097
33688SOL    HW2 2962   9.259  10.881   1.017
33689SOL     OW 2963   5.705   8.423  14.478
33689SOL    HW1 2964   5.773   8.485  14.506
33689SOL    HW2 2965   5.754   8.345  14.453
33690SOL     OW 2966   3.012   7.849   2.584
33690SOL    HW1 2967   3.038   7.939   2.604
33690SOL    HW2 2968   2.917   7.850   2.587
33691SOL     OW 2969   3.253   2.069   5.698
33691SOL    HW1 2970   3.206   1.999   5.742
33691SOL    HW2 2971   3.341   2.034   5.683
33692SOL     OW 2972  13.291   4.102   9.646
33692SOL    HW1 2973  13.363   4.069   9.698
33692SOL    HW2 2974  13.217   4.106   9.707
33693SOL     OW 2975  11.377   2.035   5.414
33693SOL    HW1 2976  11.435   2.015   5.340
33693SOL    HW2 2977  11.339   2.120   5.391
33694SOL     OW 2978  14.855  12.837  13.175
33694SOL    HW1 2979  14.766  12.869  13.162
33694SOL    HW2 2980  14.861  12.758  13.121
33695SOL     OW 2981   8.156   1.755   4.769
33695SOL    HW1 2982   8.143   1.807   4.848
33695SOL    HW2 2983   8.145   1.818   4.697
33696SOL     OW 2984   0.733   1.380  12.722
33696SOL    HW1 2985   0.812   1.433  12.733
33696SOL    HW2 2986   0.737   1.350  12.631
33697SOL     OW 2987   9.495  13.681   4.856
33697SOL    HW1 2988   9.525  13.768   4.829
33697SOL    HW2 2989   9.575  13.634   4.877
33698SOL     OW 2990  13.459  10.667   5.557
33698SOL    HW1 2991  13.366  10.683   5.569
33698SOL    HW2 2992  13.496  10.752   5.535
33699SOL     OW 2993   9.065   3.887   2.301
33699SOL    HW1 2994   9.150   3.851   2.325
33699SOL    HW2 2995   9.063   3.974   2.340
33700SOL     OW 2996   1.565   2.426   0.931
33700SOL    HW1 2997   1.635   2.361   0.943
33700SOL    HW2 2998   1.489   2.374   0.905
33701SOL     OW 2999  13.339   5.893   2.884
33701SOL    HW1 3000  13.343   5.812   2.834
33701SOL    HW2 3001  13.428   5.929   2.879
33702SOL     OW 3002  10.469   6.533  12.593
33702SOL    HW1 3003  10.525   6.570  12.662
33702SOL    HW2 3004  10.456   6.605  12.531
33703SOL     OW 3005  10.654   6.027  13.903
33703SOL    HW1 3006  10.745   6.006  13.881
33703SOL    HW2 3007  10.659   6.107  13.956
33704SOL     OW 3008   8.526   5.669  14.028
33704SOL    HW1 3009   8.557   5.759  14.042
33704SOL    HW2 3010   8.585   5.634  13.961
33705SOL     OW 3011  10.832   0.537  12.091
33705SOL    HW1 3012  10.805   0.476  12.159
33705SOL    HW2 3013  10.752   0.556  12.042
33706SOL     OW 3014   3.762  14.668   1.444
33706SOL    HW1 3015   3.715  14.625   1.373
33706SOL    HW2 3016   3.781  14.598   1.507
33707SOL     OW 3017   5.945  10.623  10.637
33707SOL    HW1 3018   5.999  10.579  10.703
33707SOL    HW2 3019   5.971  10.715  10.642
33708SOL     OW 3020  11.084   8.409  12.581
33708SOL    HW1 3021  11.022   8.337  12.579
33708SOL    HW2 3022  11.122   8.412  12.494
33709SOL     OW 3023  12.579  13.981  11.428
33709SOL    HW1 3024  12.518  13.967  11.356
33709SOL    HW2 3025  12.549  14.062  11.471
33710SOL     OW 3026   7.338  12.230   1.278
33710SOL    HW1 3027   7.324  12.171   1.203
33710SOL    HW2 3028   7.431  12.221   1.299
33711SOL     OW 3029  10.901  12.938   5.833
33711SOL    HW1 3030  10.908  12.851   5.870
33711SOL    HW2 3031  10.823  12.976   5.873
33712SOL     OW 3032  11.283   5.673   4.801
33712SOL    HW1 3033  11.191   5.699   4.805
33712SOL    HW2 3034  11.290   5.621   4.721
33713SOL     OW 3035  10.388  12.486  12.658
33713SOL    HW1 3036  10.441  12.553  12.615
33713SOL    HW2 3037  10.426  12.478  12.746
33714SOL     OW 3038   1.708   5.237  13.815
33714SOL    HW1 3039   1.800   5.212  13.826
33714SOL    HW2 3040   1.671   5.231  13.903
33715SOL     OW 3041   3.861   1.328  11.041
33715SOL    HW1 3042   3.821   1.394  11.097
33715SOL    HW2 3043   3.889   1.376  10.963
33716SOL     OW 3044   3.895   7.315  10.889
33716SOL    HW1 3045   3.973   7.259  10.886
33716SOL    HW2 3046   3.823   7.258  10.861
33717SOL     OW 3047   4.915   1.876   1.213
33717SOL    HW1 3048   4.955   1.941   1.155
33717SOL    HW2 3049   4.985   1.850   1.272
33718SOL     OW 3050   3.512   2.968   6.367
33718SOL    HW1 3051   3.537   2.910   6.439
33718SOL    HW2 3052   3.432   2.930   6.332
33719SOL     OW 3053   7.593   3.988   4.946
33719SOL    HW1 3054   7.511   4.023   4.910
33719SOL    HW2 3055   7.619   3.919   4.884
33720SOL     OW 3056   2.550  11.391   5.882
33720SOL    HW1 3057   2.588  11.325   5.824
33720SOL    HW2 3058   2.590  11.374   5.967
33721SOL     OW 3059  10.224  14.401  10.840
33721SOL    HW1 3060  10.280  14.356  10.903
33721SOL    HW2 3061  10.229  14.493  10.865
33722SOL     OW 3062   5.413  12.393   7.031
33722SOL    HW1 3063   5.476  12.322   7.039
33722SOL    HW2 3064   5.344  12.358   6.975
33723SOL     OW 3065   9.110   0.067   9.212
33723SOL    HW1 3066   9.158   0.090   9.132
33723SOL    HW2 3067   9.170   0.010   9.260
33724SOL     OW 3068   6.503   0.755   7.643
33724SOL    HW1 3069   6.495   0.825   7.578
33724SOL    HW2 3070   6.466   0.678   7.601
33725SOL     OW 3071  10.890   5.125  11.399
33725SOL    HW1 3072  10.822   5.061  11.381
33725SOL    HW2 3073  10.938   5.090  11.474
33726SOL     OW 3074   2.117   3.301   3.675
33726SOL    HW1 3075   2.136   3.216   3.637
33726SOL    HW2 3076   2.109   3.284   3.769
33727SOL     OW 3077   7.403   8.244   2.946
33727SOL    HW1 3078   7.320   8.214   2.983
33727SOL    HW2 3079   7.433   8.171   2.892
33728SOL     OW 3080  12.110   5.392  10.226
33728SOL    HW1 3081  12.120   5.349  10.141
33728SOL    HW2 3082  12.104   5.485  10.206
33729SOL     OW 3083  13.198   6.760   9.883
33729SOL    HW1 3084  13.236   6.779   9.798
33729SOL    HW2 3085  13.218   6.668   9.898
33730SOL     OW 3086   1.733  10.876   6.466
33730SOL    HW1 3087   1.728  10.889   6.371
33730SOL    HW2 3088   1.696  10.955   6.503
33731SOL     OW 3089   8.328  13.407   8.861
33731SOL    HW1 3090   8.357  13.415   8.952
33731SOL    HW2 3091   8.260  13.474   8.851
33732SOL     OW 3092   8.845  11.866   5.499
33732SOL    HW1 3093   8.940  11.866   5.490
33732SOL    HW2 3094   8.827  11.940   5.558
33733SOL     OW 3095  12.424   1.270   9.620
33733SOL    HW1 3096  12.355   1.220   9.578
33733SOL    HW2 3097  12.479   1.300   9.548
33734SOL     OW 3098  10.071  12.041   2.197
33734SOL    HW1 3099  10.082  11.973   2.263
33734SOL    HW2 3100  10.150  12.094   2.205
33735SOL     OW 3101   9.649   9.747   4.637
33735SOL    HW1 3102   9.643   9.828   4.688
33735SOL    HW2 3103   9.676   9.776   4.550
33736SOL     OW 3104   1.329   5.319  12.187
33736SOL    HW1 3105   1.307   5.373  12.111
33736SOL    HW2 3106   1.419   5.343  12.209
33737SOL     OW 3107   5.856  11.942   8.281
33737SOL    HW1 3108   5.793  11.908   8.218
33737SOL    HW2 3109   5.923  11.873   8.288
33738SOL     OW 3110   5.269  10.068   4.464
33738SOL    HW1 3111   5.239  10.024   4.384
33738SOL    HW2 3112   5.190  10.074   4.519
33739SOL     OW 3113   6.008  14.676  14.684
33739SOL    HW1 3114   6.044  14.617  14.617
33739SOL    HW2 3115   5.914  14.659  14.683
33740SOL     OW 3116   4.630   3.372  10.505
33740SOL    HW1 3117   4.697   3.387  10.439
33740SOL    HW2 3118   4.631   3.277  10.520
33741SOL     OW 3119  10.394  11.277   7.107
33741SOL    HW1 3120  10.452  11.256   7.181
33741SOL    HW2 3121  10.324  11.330   7.146
33742SOL     OW 3122  11.116  13.618   0.358
33742SOL    HW1 3123  11.078  13.693   0.402
33742SOL    HW2 3124  11.049  13.589   0.297
33743SOL     OW 3125   1.514   7.703  14.537
33743SOL    HW1 3126   1.549   7.757  14.607
33743SOL    HW2 3127   1.538   7.749  14.456
33744SOL     OW 3128   3.791  10.375  13.335
33744SOL    HW1 3129   3.785  10.288  13.296
33744SOL    HW2 3130   3.718  10.379  13.396
33745SOL     OW 3131  13.536   6.202   1.600
33745SOL    HW1 3132  13.500   6.163   1.520
33745SOL    HW2 3133  13.631   6.206   1.583
33746SOL     OW 3134   1.854   7.760   3.148
33746SOL    HW1 3135   1.815   7.677   3.174
33746SOL    HW2 3136   1.812   7.826   3.204
33747SOL     OW 3137  11.226  12.059   0.086
33747SOL    HW1 3138  11.216  12.154   0.084
33747SOL    HW2 3139  11.302  12.043   0.141
33748SOL     OW 3140   1.567   3.816  12.868
33748SOL    HW1 3141   1.562   3.876  12.942
33748SOL    HW2 3142   1.479   3.816  12.831
33749SOL     OW 3143   3.706   0.977   8.315
33749SOL    HW1 3144   3.787   0.935   8.286
33749SOL    HW2 3145   3.637   0.929   8.270
33750SOL     OW 3146  10.982  14.201   9.219
33750SOL    HW1 3147  11.003  14.207   9.125
33750SOL    HW2 3148  10.923  14.126   9.226
33751SOL     OW 3149   1.625   7.768   0.358
33751SOL    HW1 3150   1.650   7.859   0.373
33751SOL    HW2 3151   1.579   7.742   0.438
33752SOL     OW 3152   5.466  10.002   9.511
33752SOL    HW1 3153   5.538  10.043   9.558
33752SOL    HW2 3154   5.508   9.951   9.442
33753SOL     OW 3155   3.859  10.633  13.249
33753SOL    HW1 3156   3.845  10.539  13.260
33753SOL    HW2 3157   3.771  10.670  13.249
33754SOL     OW 3158  12.141   8.982   6.437
33754SOL    HW1 3159  12.106   8.918   6.375
33754SOL    HW2 3160  12.097   8.962   6.520
33755SOL     OW 3161  14.525   2.162   7.111
33755SOL    HW1 3162  14.577   2.086   7.083
33755SOL    HW2 3163  14.496   2.139   7.199
33756SOL     OW 3164  13.079   4.121  13.179
33756SOL    HW1 3165  13.145   4.051  13.189
33756SOL    HW2 3166  13.053   4.142  13.269
33757SOL     OW 3167  14.031   2.609   2.644
33757SOL    HW1 3168  13.965   2.557   2.691
33757SOL    HW2 3169  13.980   2.663   2.583
33758SOL     OW 3170   9.134  12.336   5.893
33758SOL    HW1 3171   9.053  12.332   5.841
33758SOL    HW2 3172   9.111  12.291   5.974
33759SOL     OW 3173  11.215  12.136   7.335
33759SOL    HW1 3174  11.291  12.172   7.290
33759SOL    HW2 3175  11.180  12.070   7.275
33760SOL     OW 3176   8.111   1.779   1.333
33760SOL    HW1 3177   8.168   1.760   1.259
33760SOL    HW2 3178   8.072   1.695   1.356
33761SOL     OW 3179  12.931   6.726   7.641
33761SOL    HW1 3180  12.908   6.647   7.689
33761SOL    HW2 3181  13.026   6.736   7.654
33762SOL     OW 3182   4.650   7.520   9.782
33762SOL    HW1 3183   4.656   7.440   9.834
33762SOL    HW2 3184   4.629   7.589   9.846
33763SOL     OW 3185   3.135   8.124   8.174
33763SOL    HW1 3186   3.186   8.043   8.177
33763SOL    HW2 3187   3.132   8.148   8.082
33764SOL     OW 3188   0.297  12.252   0.113
33764SOL    HW1 3189   0.354  12.303   0.171
33764SOL    HW2 3190   0.246  12.317   0.066
33765SOL     OW 3191   7.097   4.202   5.584
33765SOL    HW1 3192   7.016   4.254   5.590
33765SOL    HW2 3193   7.149   4.229   5.659
33766SOL     OW 3194  14.341   2.636   9.243
33766SOL    HW1 3195  14.381   2.723   9.241
33766SOL    HW2 3196  14.385   2.588   9.173
33767SOL     OW 3197   0.421   7.781   6.709
33767SOL    HW1 3198   0.410   7.747   6.621
33767SOL    HW2 3199   0.474   7.716   6.755
33768SOL     OW 3200  10.513   4.772   4.933
33768SOL    HW1 3201  10.512   4.855   4.886
33768SOL    HW2 3202  10.602   4.739   4.922
33769SOL     OW 3203  14.664  11.410   0.082
33769SOL    HW1 3204  14.759  11.396   0.086
33769SOL    HW2 3205  14.649  11.487   0.138
33770SOL     OW 3206   6.177  10.344   9.917
33770SOL    HW1 3207   6.161  10.392   9.999
33770SOL    HW2 3208   6.264  10.307   9.928
33771SOL     OW 3209  13.353   7.456   6.934
33771SOL    HW1 3210  13.442   7.441   6.902
33771SOL    HW2 3211  13.364   7.485   7.025
33772SOL     OW 3212   4.171   5.801   9.976
33772SOL    HW1 3213   4.090   5.751   9.973
33772SOL    HW2 3214   4.143   5.893   9.967
33773SOL     OW 3215   4.546  13.340   1.884
33773SOL    HW1 3216   4.469  13.327   1.828
33773SOL    HW2 3217   4.541  13.431   1.911
33774SOL     OW 3218  12.419   1.149  11.895
33774SOL    HW1 3219  12.374   1.132  11.977
33774SOL    HW2 3220  12.499   1.196  11.921
33775SOL     OW 3221  10.833   5.249   9.600
33775SOL    HW1 3222  10.883   5.169   9.582
33775SOL    HW2 3223  10.900   5.312   9.628
33776SOL     OW 3224   0.661   3.076  10.106
33776SOL    HW1 3225   0.608   3.146  10.144
33776SOL    HW2 3226   0.750   3.109  10.108
33777SOL     OW 3227   8.836  11.722   6.258
33777SOL    HW1 3228   8.792  11.802   6.288
33777SOL    HW2 3229   8.926  11.749   6.241
33778SOL     OW 3230  13.425   1.651   7.751
33778SOL    HW1 3231  13.496   1.599   7.787
33778SOL    HW2 3232  13.345   1.606   7.778
33779SOL     OW 3233   7.609   9.334   8.495
33779SOL    HW1 3234   7.532   9.390   8.490
33779SOL    HW2 3235   7.601   9.275   8.420
33780SOL     OW 3236   9.329  13.097  14.341
33780SOL    HW1 3237   9.246  13.090  14.294
33780SOL    HW2 3238   9.376  13.166  14.294
33781SOL     OW 3239   3.443   7.403   0.474
33781SOL    HW1 3240   3.422   7.316   0.439
33781SOL    HW2 3241   3.358   7.442   0.493
33782SOL     OW 3242   5.395  11.925  12.905
33782SOL    HW1 3243   5.439  11.991  12.960
33782SOL    HW2 3244   5.303  11.932  12.929
33783SOL     OW 3245   4.642   4.925   8.454
33783SOL    HW1 3246   4.557   4.881   8.457
33783SOL    HW2 3247   4.695   4.871   8.395
33784SOL     OW 3248  10.942  13.917  10.266
33784SOL    HW1 3249  10.928  13.993  10.209
33784SOL    HW2 3250  10.868  13.919  10.327
33785SOL     OW 3251   0.162  12.455  13.444
33785SOL    HW1 3252   0.173  12.361  13.456
33785SOL    HW2 3253   0.234  12.481  13.386
33786SOL     OW 3254   8.975   2.538   8.716
33786SOL    HW1 3255   9.033   2.462   8.708
33786SOL    HW2 3256   8.937   2.530   8.803
33787SOL     OW 3257   0.664   7.321   9.876
33787SOL    HW1 3258   0.660   7.399   9.820
33787SOL    HW2 3259   0.755   7.318   9.906
33788SOL     OW 3260  12.015   1.576   7.188
33788SOL    HW1 3261  12.057   1.497   7.225
33788SOL    HW2 3262  12.010   1.558   7.094
33789SOL     OW 3263   3.991  12.909   8.727
33789SOL    HW1 3264   4.057  12.850   8.689
33789SOL    HW2 3265   4.034  12.946   8.804
33790SOL     OW 3266   7.041   6.595   3.072
33790SOL    HW1 3267   7.091   6.528   3.025
33790SOL    HW2 3268   7.085   6.604   3.156
33791SOL     OW 3269  10.963   1.894  10.720
33791SOL    HW1 3270  11.058   1.888  10.710
33791SOL    HW2 3271  10.939   1.817  10.772
33792SOL     OW 3272  12.024   4.512   5.587
33792SOL    HW1 3273  12.024   4.418   5.605
33792SOL    HW2 3274  11.932   4.535   5.576
33793SOL     OW 3275   9.787  11.732  14.331
33793SOL    HW1 3276   9.761  11.699  14.245
33793SOL    HW2 3277   9.754  11.822  14.334
33794SOL     OW 3278   5.471   8.638   6.838
33794SOL    HW1 3279   5.546   8.630   6.896
33794SOL    HW2 3280   5.415   8.565   6.860
33795SOL     OW 3281   1.943  13.759   8.978
33795SOL    HW1 3282   2.008  13.797   9.038
33795SOL    HW2 3283   1.917  13.832   8.922
33796SOL     OW 3284   9.345   8.837  12.491
33796SOL    HW1 3285   9.263   8.836  12.441
33796SOL    HW2 3286   9.355   8.747  12.522
33797SOL     OW 3287  10.587   0.288   4.271
33797SOL    HW1 3288  10.633   0.240   4.340
33797SOL    HW2 3289  10.657   0.318   4.213
33798SOL     OW 3290   9.875   6.723   5.376
33798SOL    HW1 3291   9.860   6.704   5.283
33798SOL    HW2 3292   9.908   6.642   5.413
33799SOL     OW 3293  10.577   0.949   4.643
33799SOL    HW1 3294  10.563   0.982   4.554
33799SOL    HW2 3295  10.547   1.020   4.700
33800SOL     OW 3296   7.674   6.325  10.810
33800SOL    HW1 3297   7.633   6.265  10.747
33800SOL    HW2 3298   7.620   6.404  10.805
33801SOL     OW 3299  12.523   0.403   5.343
33801SOL    HW1 3300  12.429   0.389   5.331
33801SOL    HW2 3301  12.551   0.331   5.401
33802SOL     OW 3302   8.856   9.827   3.220
33802SOL    HW1 3303   8.929   9.856   3.165
33802SOL    HW2 3304   8.847   9.897   3.286
33803SOL     OW 3305   8.009  10.265  13.705
33803SOL    HW1 3306   8.089  10.248  13.755
33803SOL    HW2 3307   8.039  10.299  13.621
33804SOL     OW 3308   8.243  14.379  12.404
33804SOL    HW1 3309   8.212  14.352  12.491
33804SOL    HW2 3310   8.287  14.463  12.419
33805SOL     OW 3311   7.291   3.245   3.231
33805SOL    HW1 3312   7.197   3.249   3.214
33805SOL    HW2 3313   7.298   3.201   3.316
33806SOL     OW 3314   8.278  13.197   6.250
33806SOL    HW1 3315   8.211  13.177   6.184
33806SOL    HW2 3316   8.261  13.287   6.276
33807SOL     OW 3317   3.689  11.692  10.478
33807SOL    HW1 3318   3.635  11.735  10.413
33807SOL    HW2 3319   3.657  11.602  10.481
33808SOL     OW 3320  14.865   7.405   7.201
33808SOL    HW1 3321  14.863   7.484   7.255
33808SOL    HW2 3322  14.795   7.418   7.137
33809SOL     OW 3323  13.249   7.718   3.064
33809SOL    HW1 3324  13.307   7.644   3.043
33809SOL    HW2 3325  13.306   7.795   3.060
33810SOL     OW 3326   6.893   2.006   1.567
33810SOL    HW1 3327   6.910   2.093   1.603
33810SOL    HW2 3328   6.920   1.946   1.637
33811SOL     OW 3329  12.394   7.726  14.405
33811SOL    HW1 3330  12.375   7.683  14.488
33811SOL    HW2 3331  12.458   7.669  14.362
33812SOL     OW 3332   3.786   5.150   1.860
33812SOL    HW1 3333   3.757   5.060   1.871
33812SOL    HW2 3334   3.766   5.171   1.768
33813SOL     OW 3335  11.201   5.183   0.345
33813SOL    HW1 3336  11.116   5.151   0.315
33813SOL    HW2 3337  11.180   5.239   0.420
33814SOL     OW 3338   4.070   9.401   4.585
33814SOL    HW1 3339   4.038   9.337   4.521
33814SOL    HW2 3340   4.112   9.469   4.533
33815SOL     OW 3341   4.759   3.280  14.410
33815SOL    HW1 3342   4.667   3.285  14.383
33815SOL    HW2 3343   4.755   3.255  14.502
33816SOL     OW 3344   7.915   8.970   0.768
33816SOL    HW1 3345   7.941   8.887   0.808
33816SOL    HW2 3346   7.992   9.026   0.779
33817SOL     OW 3347  12.054   6.419   3.861
33817SOL    HW1 3348  11.962   6.432   3.836
33817SOL    HW2 3349  12.091   6.507   3.860
33818SOL     OW 3350  10.725   6.956  13.716
33818SOL    HW1 3351  10.756   6.876  13.759
33818SOL    HW2 3352  10.789   6.973  13.647
33819SOL     OW 3353   1.021   4.461   9.733
33819SOL    HW1 3354   1.025   4.489   9.642
33819SOL    HW2 3355   0.983   4.373   9.730
33820SOL     OW 3356  11.612  12.307   6.339
33820SOL    HW1 3357  11.657  12.233   6.379
33820SOL    HW2 3358  11.655  12.320   6.255
33821SOL     OW 3359  11.456  10.384   3.342
33821SOL    HW1 3360  11.462  10.466   3.392
33821SOL    HW2 3361  11.546  10.350   3.341
33822SOL     OW 3362  10.912   9.610   4.952
33822SOL    HW1 3363  10.854   9.683   4.976
33822SOL    HW2 3364  10.998   9.635   4.986
33823SOL     OW 3365  11.721   1.568   4.411
33823SOL    HW1 3366  11.793   1.573   4.475
33823SOL    HW2 3367  11.763   1.536   4.331
33824SOL     OW 3368  11.549   1.192  13.427
33824SOL    HW1 3369  11.505   1.190  13.512
33824SOL    HW2 3370  11.510   1.267  13.382
33825SOL     OW 3371  14.347   9.458   5.951
33825SOL    HW1 3372  14.403   9.391   5.991
33825SOL    HW2 3373  14.367   9.454   5.858
33826SOL     OW 3374   9.077  12.831   9.224
33826SOL    HW1 3375   9.155  12.832   9.279
33826SOL    HW2 3376   9.106  12.868   9.141
33827SOL     OW 3377   2.053   8.640   3.201
33827SOL    HW1 3378   1.995   8.699   3.153
33827SOL    HW2 3379   2.047   8.556   3.156
33828SOL     OW 3380   1.793   2.364  11.234
33828SOL    HW1 3381   1.758   2.437  11.183
33828SOL    HW2 3382   1.758   2.286  11.191
33829SOL     OW 3383   7.359   8.808   9.096
33829SOL    HW1 3384   7.290   8.749   9.067
33829SOL    HW2 3385   7.373   8.786   9.188
33830SOL     OW 3386   8.874  10.678   2.836
33830SOL    HW1 3387   8.891  10.665   2.743
33830SOL    HW2 3388   8.788  10.721   2.838
33831SOL     OW 3389   9.150  11.670   8.046
33831SOL    HW1 3390   9.135  11.644   7.955
33831SOL    HW2 3391   9.064  11.694   8.079
33832SOL     OW 3392   7.877   6.607  10.445
33832SOL    HW1 3393   7.815   6.580  10.378
33832SOL    HW2 3394   7.887   6.530  10.501
33833SOL     OW 3395   0.653   3.932   7.222
33833SOL    HW1 3396   0.736   3.924   7.269
33833SOL    HW2 3397   0.633   4.026   7.225
33834SOL     OW 3398   7.169   9.280   0.456
33834SOL    HW1 3399   7.196   9.367   0.485
33834SOL    HW2 3400   7.076   9.275   0.478
33835SOL     OW 3401   2.420   3.237   3.970
33835SOL    HW1 3402   2.413   3.174   4.042
33835SOL    HW2 3403   2.338   3.228   3.922
33836SOL     OW 3404  10.209   1.795   0.560
33836SOL    HW1 3405  10.137   1.849   0.528
33836SOL    HW2 3406  10.269   1.789   0.486
33837SOL     OW 3407   5.418   9.508   1.204
33837SOL    HW1 3408   5.489   9.491   1.143
33837SOL    HW2 3409   5.375   9.424   1.216
33838SOL     OW 3410  11.272  10.146  10.362
33838SOL    HW1 3411  11.359  10.110  10.380
33838SOL    HW2 3412  11.270  10.230  10.408
33839SOL     OW 3413   2.394  10.863   1.419
33839SOL    HW1 3414   2.321  10.877   1.480
33839SOL    HW2 3415   2.406  10.948   1.376
33840SOL     OW 3416   1.954  11.076   0.422
33840SOL    HW1 3417   2.019  11.047   0.359
33840SOL    HW2 3418   2.004  11.122   0.489
33841SOL     OW 3419  12.915   6.262   4.149
33841SOL    HW1 3420  12.846   6.195   4.144
33841SOL    HW2 3421  12.975   6.229   4.217
33842SOL     OW 3422  10.520   9.152   5.223
33842SOL    HW1 3423  10.565   9.169   5.140
33842SOL    HW2 3424  10.429   9.136   5.197
33843SOL     OW 3425  13.774   4.540   1.925
33843SOL    HW1 3426  13.758   4.446   1.932
33843SOL    HW2 3427  13.687   4.579   1.916
33844SOL     OW 3428  10.164   6.278   5.971
33844SOL    HW1 3429  10.126   6.208   6.024
33844SOL    HW2 3430  10.089   6.319   5.928
33845SOL     OW 3431   1.775   2.319   1.211
33845SOL    HW1 3432   1.767   2.290   1.120
33845SOL    HW2 3433   1.853   2.274   1.244
33846SOL     OW 3434   6.865   7.544   6.426
33846SOL    HW1 3435   6.842   7.475   6.364
33846SOL    HW2 3436   6.956   7.564   6.407
33847SOL     OW 3437   6.547   8.148  11.041
33847SOL    HW1 3438   6.452   8.144  11.033
33847SOL    HW2 3439   6.566   8.239  11.061
33848SOL     OW 3440   8.359   0.896   8.960
33848SOL    HW1 3441   8.273   0.854   8.968
33848SOL    HW2 3442   8.349   0.979   9.007
33849SOL     OW 3443   0.270   8.923  12.206
33849SOL    HW1 3444   0.268   8.963  12.292
33849SOL    HW2 3445   0.357   8.883  12.200
33850SOL     OW 3446   1.667   3.282   0.919
33850SOL    HW1 3447   1.692   3.234   0.998
33850SOL    HW2 3448   1.573   3.263   0.908
33851SOL     OW 3449   7.635   7.865   7.500
33851SOL    HW1 3450   7.626   7.771   7.515
33851SOL    HW2 3451   7.709   7.891   7.555
33852SOL     OW 3452   1.649   4.344  10.649
33852SOL    HW1 3453   1.629   4.315  10.560
33852SOL    HW2 3454   1.574   4.315  10.701
33853SOL     OW 3455   9.397  10.491   2.558
33853SOL    HW1 3456   9.363  10.519   2.473
33853SOL    HW2 3457   9.471  10.550   2.574
33854SOL     OW 3458   1.372   4.984   8.602
33854SOL    HW1 3459   1.412   5.019   8.682
33854SOL    HW2 3460   1.280   5.009   8.609
33855SOL     OW 3461   4.477   2.653   5.723
33855SOL    HW1 3462   4.545   2.720   5.710
33855SOL    HW2 3463   4.453   2.626   5.634
33856SOL     OW 3464   5.908  10.644   7.669
33856SOL    HW1 3465   5.891  10.645   7.763
33856SOL    HW2 3466   5.821  10.644   7.629
33857SOL     OW 3467   1.355  12.628   8.120
33857SOL    HW1 3468   1.447  12.641   8.096
33857SOL    HW2 3469   1.352  12.645   8.214
33858SOL     OW 3470  11.049  12.034   5.937
33858SOL    HW1 3471  10.963  12.074   5.925
33858SOL    HW2 3472  11.085  12.077   6.014
33859SOL     OW 3473   1.551   6.564  10.135
33859SOL    HW1 3474   1.596   6.507  10.073
33859SOL    HW2 3475   1.532   6.509  10.210
33860SOL     OW 3476  13.169   7.255   7.073
33860SOL    HW1 3477  13.212   7.331   7.033
33860SOL    HW2 3478  13.220   7.180   7.044
33861SOL     OW 3479   8.421   3.458  14.699
33861SOL    HW1 3480   8.443   3.501  14.782
33861SOL    HW2 3481   8.342   3.408  14.718
33862SOL     OW 3482  11.825  11.252   9.672
33862SOL    HW1 3483  11.794  11.189   9.607
33862SOL    HW2 3484  11.840  11.200   9.750
33863SOL     OW 3485  11.386   1.625  12.704
33863SOL    HW1 3486  11.398   1.531  12.699
33863SOL    HW2 3487  11.364   1.651  12.614
33864SOL     OW 3488   7.895   4.102   9.589
33864SOL    HW1 3489   7.881   4.009   9.603
33864SOL    HW2 3490   7.975   4.122   9.637
33865SOL     OW 3491   6.642   7.994   4.840
33865SOL    HW1 3492   6.647   7.971   4.747
33865SOL    HW2 3493   6.729   7.975   4.874
33866SOL     OW 3494   3.609   1.825  10.347
33866SOL    HW1 3495   3.553   1.891  10.306
33866SOL    HW2 3496   3.631   1.765  10.276
33867SOL     OW 3497   6.214  10.306   2.647
33867SOL    HW1 3498   6.261  10.334   2.725
33867SOL    HW2 3499   6.148  10.245   2.679
33868SOL     OW 3500   2.260   4.700   3.620
33868SOL    HW1 3501   2.214   4.646   3.685
33868SOL    HW2 3502   2.351   4.699   3.649
33869SOL     OW 3503   9.980   9.933  12.610
33869SOL    HW1 3504   9.934   9.959  12.529
33869SOL    HW2 3505   9.922   9.869  12.651
33870SOL     OW 3506  11.342  11.134   5.364
33870SOL    HW1 3507  11.325  11.203   5.428
33870SOL    HW2 3508  11.260  11.127   5.314
33871SOL     OW 3509   0.281   1.167   8.113
33871SOL    HW1 3510   0.307   1.076   8.099
33871SOL    HW2 3511   0.261   1.199   8.026
33872SOL     OW 3512   9.591   3.273   2.077
33872SOL    HW1 3513   9.663   3.323   2.037
33872SOL    HW2 3514   9.626   3.246   2.162
33873SOL     OW 3515   9.613  13.098  13.834
33873SOL    HW1 3516   9.631  13.169  13.772
33873SOL    HW2 3517   9.629  13.136  13.920
33874SOL     OW 3518   9.202  13.369   1.510
33874SOL    HW1 3519   9.264  13.434   1.477
33874SOL    HW2 3520   9.213  13.371   1.605
33875SOL     OW 3521   8.096   3.412  10.410
33875SOL    HW1 3522   8.102   3.415  10.505
33875SOL    HW2 3523   8.147   3.486  10.379
33876SOL     OW 3524   1.477   5.994  10.869
33876SOL    HW1 3525   1.470   6.089  10.873
33876SOL    HW2 3526   1.485   5.966  10.960
33877SOL     OW 3527   5.129  12.823   3.894
33877SOL    HW1 3528   5.130  12.896   3.956
33877SOL    HW2 3529   5.172  12.857   3.816
33878SOL     OW 3530   8.238  10.245   7.448
33878SOL    HW1 3531   8.304  10.176   7.441
33878SOL    HW2 3532   8.220  10.251   7.542
33879SOL     OW 3533   9.084   8.353   9.415
33879SOL    HW1 3534   9.163   8.394   9.380
33879SOL    HW2 3535   9.104   8.339   9.508
33880SOL     OW 3536   9.691   0.874   9.324
33880SOL    HW1 3537   9.783   0.888   9.301
33880SOL    HW2 3538   9.693   0.850   9.416
33881SOL     OW 3539   6.184   4.558   8.972
33881SOL    HW1 3540   6.259   4.579   9.027
33881SOL    HW2 3541   6.221   4.539   8.886
33882SOL     OW 3542   2.548   4.293   2.814
33882SOL    HW1 3543   2.560   4.198   2.813
33882SOL    HW2 3544   2.486   4.309   2.744
33883SOL     OW 3545   7.889  12.201   6.246
33883SOL    HW1 3546   7.822  12.133   6.255
33883SOL    HW2 3547   7.882  12.229   6.154
33884SOL     OW 3548   1.525   0.950  13.522
33884SOL    HW1 3549   1.543   0.859  13.498
33884SOL    HW2 3550   1.550   1.001  13.444
33885SOL     OW 3551  12.154   3.505   1.152
33885SOL    HW1 3552  12.162   3.427   1.207
33885SOL    HW2 3553  12.164   3.578   1.212
33886SOL     OW 3554   9.836   1.084   9.627
33886SOL    HW1 3555   9.838   1.115   9.536
33886SOL    HW2 3556   9.855   0.990   9.621
33887SOL     OW 3557   1.577  11.599   9.300
33887SOL    HW1 3558   1.492  11.558   9.319
33887SOL    HW2 3559   1.640  11.546   9.350
33888SOL     OW 3560  12.905   3.164   6.130
33888SOL    HW1 3561  12.958   3.088   6.157
33888SOL    HW2 3562  12.938   3.236   6.183
33889SOL     OW 3563  10.779   5.725  11.266
33889SOL    HW1 3564  10.786   5.668  11.343
33889SOL    HW2 3565  10.862   5.714  11.220
33890SOL     OW 3566   1.023  13.435   2.661
33890SOL    HW1 3567   0.981  13.520   2.650
33890SOL    HW2 3568   0.985  13.380   2.592
33891SOL     OW 3569   3.620  11.581   7.722
33891SOL    HW1 3570   3.612  11.641   7.648
33891SOL    HW2 3571   3.713  11.559   7.725
33892SOL     OW 3572   7.999   9.154  13.344
33892SOL    HW1 3573   8.004   9.180  13.436
33892SOL    HW2 3574   7.922   9.098  13.339
33893SOL     OW 3575   4.425  13.411   4.316
33893SOL    HW1 3576   4.361  13.481   4.329
33893SOL    HW2 3577   4.483  13.416   4.392
33894SOL     OW 3578  11.379   6.709   3.185
33894SOL    HW1 3579  11.348   6.674   3.101
33894SOL    HW2 3580  11.305   6.699   3.244
33895SOL     OW 3581   9.724   3.927   2.636
33895SOL    HW1 3582   9.682   4.013   2.640
33895SOL    HW2 3583   9.791   3.930   2.703
33896SOL     OW 3584   2.577   3.430  11.303
33896SOL    HW1 3585   2.520   3.487  11.355
33896SOL    HW2 3586   2.619   3.489  11.241
33897SOL     OW 3587  10.612  14.779  11.134
33897SOL    HW1 3588  10.609  14.686  11.113
33897SOL    HW2 3589  10.524  14.799  11.167
33898SOL     OW 3590   7.075   1.563  13.858
33898SOL    HW1 3591   7.164   1.541  13.833
33898SOL    HW2 3592   7.038   1.482  13.892
33899SOL     OW 3593   9.218   0.950   6.127
33899SOL    HW1 3594   9.165   1.026   6.148
33899SOL    HW2 3595   9.295   0.986   6.083
33900SOL     OW 3596   2.441   2.045   0.123
33900SOL    HW1 3597   2.393   2.075   0.200
33900SOL    HW2 3598   2.414   2.106   0.053
33901SOL     OW 3599   4.708   7.479   0.386
33901SOL    HW1 3600   4.792   7.448   0.420
33901SOL    HW2 3601   4.682   7.548   0.446
33902SOL     OW 3602  13.178   5.258   0.045
33902SOL    HW1 3603  13.218   5.307  14.845
33902SOL    HW2 3604  13.115   5.200   0.003
33903SOL     OW 3605   3.763   6.553   1.219
33903SOL    HW1 3606   3.685   6.503   1.196
33903SOL    HW2 3607   3.733   6.644   1.223
33904SOL     OW 3608   5.123  12.318   8.502
33904SOL    HW1 3609   5.129  12.283   8.591
33904SOL    HW2 3610   5.212  12.346   8.481
33905SOL     OW 3611  12.212   5.954   6.250
33905SOL    HW1 3612  12.304   5.955   6.223
33905SOL    HW2 3613  12.215   5.940   6.344
33906SOL     OW 3614  12.240   2.874  10.143
33906SOL    HW1 3615  12.300   2.944  10.117
33906SOL    HW2 3616  12.239   2.878  10.239
33907SOL     OW 3617   1.855   0.459  14.699
33907SOL    HW1 3618   1.945   0.467  14.731
33907SOL    HW2 3619   1.863   0.414  14.615
33908SOL     OW 3620  13.306  12.674  14.144
33908SOL    HW1 3621  13.373  12.742  14.152
33908SOL    HW2 3622  13.351  12.593  14.168
33909SOL     OW 3623   1.630   5.914  11.137
33909SOL    HW1 3624   1.624   5.916  11.232
33909SOL    HW2 3625   1.724   5.910  11.118
33910SOL     OW 3626   5.315   5.602  10.936
33910SOL    HW1 3627   5.265   5.561  10.865
33910SOL    HW2 3628   5.313   5.696  10.916
33911SOL     OW 3629   1.563   8.237   2.687
33911SOL    HW1 3630   1.505   8.165   2.711
33911SOL    HW2 3631   1.539   8.308   2.748
33912SOL     OW 3632  14.184   1.897   3.014
33912SOL    HW1 3633  14.255   1.842   2.981
33912SOL    HW2 3634  14.224   1.985   3.020
33913SOL     OW 3635   9.397  13.668   6.104
33913SOL    HW1 3636   9.318  13.708   6.143
33913SOL    HW2 3637   9.431  13.612   6.173
33914SOL     OW 3638  13.357   1.657   9.156
33914SOL    HW1 3639  13.436   1.642   9.104
33914SOL    HW2 3640  13.288   1.612   9.108
33915SOL     OW 3641   7.519   4.098  12.453
33915SOL    HW1 3642   7.585   4.034  12.428
33915SOL    HW2 3643   7.570   4.170  12.492
33916SOL     OW 3644  12.938   2.562   8.379
33916SOL    HW1 3645  12.912   2.471   8.366
33916SOL    HW2 3646  12.952   2.569   8.473
33917SOL     OW 3647   2.578  12.481  11.625
33917SOL    HW1 3648   2.550  12.568  11.597
33917SOL    HW2 3649   2.672  12.490  11.640
33918SOL     OW 3650   2.712  10.157   8.755
33918SOL    HW1 3651   2.758  10.217   8.814
33918SOL    HW2 3652   2.620  10.169   8.776
33919SOL     OW 3653  12.315   5.699   7.921
33919SOL    HW1 3654  12.408   5.715   7.904
33919SOL    HW2 3655  12.309   5.694   8.016
33920SOL     OW 3656   2.416   1.390  14.007
33920SOL    HW1 3657   2.462   1.462  13.963
33920SOL    HW2 3658   2.417   1.318  13.943
33921SOL     OW 3659  11.879   0.636   3.776
33921SOL    HW1 3660  11.851   0.562   3.721
33921SOL    HW2 3661  11.913   0.700   3.714
33922SOL     OW 3662   2.829  14.827  12.764
33922SOL    HW1 3663   2.758  14.861  12.710
33922SOL    HW2 3664   2.884   0.032  12.781
33923SOL     OW 3665   2.386   8.924   0.150
33923SOL    HW1 3666   2.390   8.828   0.158
33923SOL    HW2 3667   2.317   8.950   0.210
33924SOL     OW 3668   9.900  11.090  12.271
33924SOL    HW1 3669   9.978  11.142  12.250
33924SOL    HW2 3670   9.886  11.035  12.194
33925SOL     OW 3671   0.118   4.412   3.244
33925SOL    HW1 3672   0.179   4.443   3.177
33925SOL    HW2 3673   0.092   4.325   3.214
33926SOL     OW 3674  13.848   8.082  14.642
33926SOL    HW1 3675  13.760   8.117  14.629
33926SOL    HW2 3676  13.856   8.071  14.736
33927SOL     OW 3677   7.890   4.357   0.217
33927SOL    HW1 3678   7.985   4.366   0.209
33927SOL    HW2 3679   7.859   4.447   0.228
33928SOL     OW 3680   8.664   7.865   4.648
33928SOL    HW1 3681   8.760   7.862   4.648
33928SOL    HW2 3682   8.642   7.937   4.590
33929SOL     OW 3683   7.321   6.913   4.245
33929SOL    HW1 3684   7.290   6.824   4.261
33929SOL    HW2 3685   7.405   6.917   4.291
33930SOL     OW 3686  14.748  14.863  10.628
33930SOL    HW1 3687  14.672  14.812  10.656
33930SOL    HW2 3688  14.731   0.079  10.664
33931SOL     OW 3689   9.317   7.123  12.144
33931SOL    HW1 3690   9.258   7.160  12.209
33931SOL    HW2 3691   9.270   7.131  12.061
33932SOL     OW 3692   8.728  13.389  10.033
33932SOL    HW1 3693   8.706  13.481  10.018
33932SOL    HW2 3694   8.807  13.391  10.086
33933SOL     OW 3695   5.472   1.736   9.244
33933SOL    HW1 3696   5.412   1.700   9.310
33933SOL    HW2 3697   5.425   1.728   9.162
33934SOL     OW 3698   9.044   4.632   3.064
33934SOL    HW1 3699   9.075   4.712   3.107
33934SOL    HW2 3700   9.084   4.561   3.114
33935SOL     OW 3701  10.864   0.319  11.888
33935SOL    HW1 3702  10.953   0.340  11.917
33935SOL    HW2 3703  10.808   0.380  11.936
33936SOL     OW 3704   4.321   4.038   4.848
33936SOL    HW1 3705   4.365   3.980   4.910
33936SOL    HW2 3706   4.248   4.075   4.897
33937SOL     OW 3707   8.209   5.048   6.705
33937SOL    HW1 3708   8.185   5.007   6.788
33937SOL    HW2 3709   8.301   5.022   6.692
33938SOL     OW 3710   5.312  14.509  14.644
33938SOL    HW1 3711   5.228  14.500  14.599
33938SOL    HW2 3712   5.345  14.595  14.618
33939SOL     OW 3713   9.244   4.268   5.749
33939SOL    HW1 3714   9.285   4.353   5.737
33939SOL    HW2 3715   9.270   4.241   5.837
33940SOL     OW 3716   5.164   9.539  11.982
33940SOL    HW1 3717   5.233   9.606  11.985
33940SOL    HW2 3718   5.154   9.511  12.072
33941SOL     OW 3719   7.087   1.538  10.239
33941SOL    HW1 3720   7.130   1.485  10.306
33941SOL    HW2 3721   7.073   1.623  10.281
33942SOL     OW 3722   7.856   5.418   1.370
33942SOL    HW1 3723   7.842   5.503   1.412
33942SOL    HW2 3724   7.789   5.362   1.407
33943SOL     OW 3725   8.036   5.142   9.394
33943SOL    HW1 3726   8.016   5.079   9.463
33943SOL    HW2 3727   8.041   5.089   9.314
33944SOL     OW 3728   0.032   4.697  14.432
33944SOL    HW1 3729   0.128   4.694  14.426
33944SOL    HW2 3730   0.014   4.712  14.524
33945SOL     OW 3731  11.063   0.989   2.285
33945SOL    HW1 3732  11.060   1.011   2.192
33945SOL    HW2 3733  11.125   1.052   2.322
33946SOL     OW 3734  10.839  12.620  14.619
33946SOL    HW1 3735  10.916  12.663  14.582
33946SOL    HW2 3736  10.768  12.645  14.560
33947SOL     OW 3737   3.226  14.754  12.097
33947SOL    HW1 3738   3.224  14.675  12.151
33947SOL    HW2 3739   3.179  14.729  12.017
33948SOL     OW 3740   3.095   4.681  14.750
33948SOL    HW1 3741   3.141   4.598  14.764
33948SOL    HW2 3742   3.020   4.677  14.809
33949SOL     OW 3743   1.725  10.585  11.299
33949SOL    HW1 3744   1.687  10.574  11.386
33949SOL    HW2 3745   1.789  10.655  11.309
33950SOL     OW 3746   7.857  12.869   6.273
33950SOL    HW1 3747   7.775  12.872   6.323
33950SOL    HW2 3748   7.918  12.823   6.330
33951SOL     OW 3749  12.854   7.647  14.304
33951SOL    HW1 3750  12.786   7.701  14.262
33951SOL    HW2 3751  12.926   7.708  14.321
33952SOL     OW 3752   9.874   6.054   6.083
33952SOL    HW1 3753   9.903   6.105   6.158
33952SOL    HW2 3754   9.827   5.980   6.121
33953SOL     OW 3755   0.763   4.802   9.856
33953SOL    HW1 3756   0.819   4.855   9.914
33953SOL    HW2 3757   0.708   4.751   9.916
33954SOL     OW 3758  13.555   8.165   3.990
33954SOL    HW1 3759  13.597   8.220   3.924
33954SOL    HW2 3760  13.467   8.202   3.999
33955SOL     OW 3761  12.935   2.852  10.296
33955SOL    HW1 3762  12.916   2.802  10.216
33955SOL    HW2 3763  12.898   2.800  10.367
33956SOL     OW 3764   0.584   9.240  14.050
33956SOL    HW1 3765   0.526   9.312  14.023
33956SOL    HW2 3766   0.618   9.268  14.135
33957SOL     OW 3767   5.601   9.329   5.772
33957SOL    HW1 3768   5.557   9.330   5.687
33957SOL    HW2 3769   5.663   9.255   5.766
33958SOL     OW 3770   5.112  12.825   6.647
33958SOL    HW1 3771   5.151  12.768   6.580
33958SOL    HW2 3772   5.186  12.876   6.681
33959SOL     OW 3773   7.268  13.424   5.716
33959SOL    HW1 3774   7.327  13.350   5.699
33959SOL    HW2 3775   7.295  13.491   5.653
33960SOL     OW 3776  11.295   2.102   2.305
33960SOL    HW1 3777  11.237   2.052   2.362
33960SOL    HW2 3778  11.377   2.053   2.304
33961SOL     OW 3779   2.549  10.416   3.095
33961SOL    HW1 3780   2.623  10.360   3.072
33961SOL    HW2 3781   2.553  10.488   3.033
33962SOL     OW 3782   1.413  11.782   6.665
33962SOL    HW1 3783   1.355  11.792   6.741
33962SOL    HW2 3784   1.377  11.708   6.617
33963SOL     OW 3785   2.441  14.464  14.281
33963SOL    HW1 3786   2.383  14.404  14.329
33963SOL    HW2 3787   2.454  14.422  14.196
33964SOL     OW 3788   6.860   9.471  14.246
33964SOL    HW1 3789   6.868   9.497  14.154
33964SOL    HW2 3790   6.825   9.382  14.243
33965SOL     OW 3791  10.234  14.546  12.349
33965SOL    HW1 3792  10.302  14.491  12.389
33965SOL    HW2 3793  10.262  14.635  12.367
33966SOL     OW 3794   5.964  12.703   2.697
33966SOL    HW1 3795   5.908  12.660   2.632
33966SOL    HW2 3796   5.907  12.716   2.773
33967SOL     OW 3797  11.658   8.656   4.168
33967SOL    HW1 3798  11.627   8.746   4.179
33967SOL    HW2 3799  11.700   8.634   4.251
33968SOL     OW 3800   9.895   9.057   1.505
33968SOL    HW1 3801   9.837   9.120   1.546
33968SOL    HW2 3802   9.861   9.047   1.416
33969SOL     OW 3803   5.920   2.462  12.844
33969SOL    HW1 3804   5.851   2.466  12.910
33969SOL    HW2 3805   5.925   2.551  12.809
33970SOL     OW 3806   0.237   1.367  10.363
33970SOL    HW1 3807   0.193   1.309  10.301
33970SOL    HW2 3808   0.167   1.426  10.393
33971SOL     OW 3809   9.905   6.867   9.595
33971SOL    HW1 3810   9.891   6.793   9.654
33971SOL    HW2 3811   9.949   6.933   9.649
33972SOL     OW 3812  13.610   1.787   5.116
33972SOL    HW1 3813  13.678   1.787   5.184
33972SOL    HW2 3814  13.623   1.706   5.068
33973SOL     OW 3815  14.342   4.060   1.580
33973SOL    HW1 3816  14.294   4.055   1.663
33973SOL    HW2 3817  14.353   4.154   1.564
33974SOL     OW 3818  10.380   4.022   3.588
33974SOL    HW1 3819  10.316   3.973   3.640
33974SOL    HW2 3820  10.347   4.111   3.587
33975SOL     OW 3821  13.855   7.114   9.763
33975SOL    HW1 3822  13.791   7.046   9.783
33975SOL    HW2 3823  13.807   7.176   9.708
33976SOL     OW 3824  12.479   4.583  11.744
33976SOL    HW1 3825  12.389   4.583  11.711
33976SOL    HW2 3826  12.519   4.661  11.706
33977SOL     OW 3827   0.006  14.848  13.913
33977SOL    HW1 3828  14.862   0.016  13.827
33977SOL    HW2 3829   0.100  14.854  13.926
33978SOL     OW 3830   8.392  10.535   7.682
33978SOL    HW1 3831   8.472  10.483   7.690
33978SOL    HW2 3832   8.331  10.479   7.634
33979SOL     OW 3833   0.993   9.242   6.138
33979SOL    HW1 3834   1.012   9.261   6.230
33979SOL    HW2 3835   1.034   9.158   6.121
33980SOL     OW 3836   7.653   9.305  11.515
33980SOL    HW1 3837   7.632   9.383  11.464
33980SOL    HW2 3838   7.571   9.255  11.517
33981SOL     OW 3839   7.093   2.667   2.059
33981SOL    HW1 3840   7.019   2.682   2.000
33981SOL    HW2 3841   7.056   2.617   2.132
33982SOL     OW 3842   8.546  12.966   0.163
33982SOL    HW1 3843   8.484  13.027   0.204
33982SOL    HW2 3844   8.578  12.912   0.235
33983SOL     OW 3845   2.392  12.128   2.636
33983SOL    HW1 3846   2.380  12.132   2.541
33983SOL    HW2 3847   2.474  12.082   2.648
33984SOL     OW 3848   7.836  14.483  10.502
33984SOL    HW1 3849   7.858  14.575  10.483
33984SOL    HW2 3850   7.776  14.488  10.577
33985SOL     OW 3851  11.660  11.276  12.087
33985SOL    HW1 3852  11.706  11.355  12.114
33985SOL    HW2 3853  11.729  11.218  12.054
33986SOL     OW 3854   7.549   3.632   4.486
33986SOL    HW1 3855   7.573   3.593   4.402
33986SOL    HW2 3856   7.610   3.594   4.549
33987SOL     OW 3857  10.337   7.987   1.021
33987SOL    HW1 3858  10.401   8.014   1.086
33987SOL    HW2 3859  10.275   8.060   1.016
33988SOL     OW 3860   7.853  10.481   1.804
33988SOL    HW1 3861   7.946  10.462   1.796
33988SOL    HW2 3862   7.848  10.576   1.816
33989SOL     OW 3863  13.530  12.830   7.870
33989SOL    HW1 3864  13.522  12.830   7.775
33989SOL    HW2 3865  13.618  12.863   7.887
33990SOL     OW 3866   5.583   2.297   8.421
33990SOL    HW1 3867   5.530   2.361   8.468
33990SOL    HW2 3868   5.663   2.289   8.473
33991SOL     OW 3869  11.829   4.370   2.663
33991SOL    HW1 3870  11.815   4.302   2.730
33991SOL    HW2 3871  11.826   4.452   2.712
33992SOL     OW 3872  13.757   3.529   7.040
33992SOL    HW1 3873  13.698   3.472   6.991
33992SOL    HW2 3874  13.758   3.611   6.991
33993SOL     OW 3875  14.046   0.892   0.229
33993SOL    HW1 3876  14.104   0.935   0.291
33993SOL    HW2 3877  13.966   0.873   0.279
33994SOL     OW 3878   4.825   6.993   5.440
33994SOL    HW1 3879   4.910   6.952   5.427
33994SOL    HW2 3880   4.771   6.925   5.480
33995SOL     OW 3881   6.280   1.194   1.661
33995SOL    HW1 3882   6.263   1.127   1.727
33995SOL    HW2 3883   6.256   1.276   1.705
33996SOL     OW 3884  10.342   8.625   5.693
33996SOL    HW1 3885  10.307   8.546   5.734
33996SOL    HW2 3886  10.272   8.657   5.637
33997SOL     OW 3887  10.243  12.266  12.622
33997SOL    HW1 3888  10.278  12.354  12.636
33997SOL    HW2 3889  10.224  12.263  12.528
33998SOL     OW 3890  13.890   9.307   6.268
33998SOL    HW1 3891  13.899   9.370   6.197
33998SOL    HW2 3892  13.976   9.305   6.310
33999SOL     OW 3893   0.634  14.106   2.236
33999SOL    HW1 3894   0.626  14.019   2.196
33999SOL    HW2 3895   0.596  14.096   2.323
34000SOL     OW 3896   1.146  10.267   9.067
34000SOL    HW1 3897   1.104  10.184   9.089
34000SOL    HW2 3898   1.239  10.252   9.084
34001SOL     OW 3899   0.569  11.114  14.561
34001SOL    HW1 3900   0.542  11.205  14.564
34001SOL    HW2 3901   0.665  11.117  14.553
34002SOL     OW 3902   5.896   5.049   6.897
34002SOL    HW1 3903   5.881   4.957   6.921
34002SOL    HW2 3904   5.831   5.066   6.829
34003SOL     OW 3905   4.990   4.739   2.662
34003SOL    HW1 3906   4.935   4.734   2.740
34003SOL    HW2 3907   5.031   4.825   2.667
34004SOL     OW 3908   8.639   1.918   1.642
34004SOL    HW1 3909   8.605   2.007   1.636
34004SOL    HW2 3910   8.732   1.926   1.621
34005SOL     OW 3911   5.484   0.094   3.770
34005SOL    HW1 3912   5.493   0.190   3.767
34005SOL    HW2 3913   5.392   0.080   3.791
34006SOL     OW 3914   6.218   9.241  11.282
34006SOL    HW1 3915   6.229   9.336  11.283
34006SOL    HW2 3916   6.295   9.209  11.234
34007SOL     OW 3917   3.605  12.842   9.863
34007SOL    HW1 3918   3.629  12.884   9.781
34007SOL    HW2 3919   3.673  12.777   9.878
34008SOL     OW 3920   6.095  10.055  13.901
34008SOL    HW1 3921   6.175  10.093  13.939
34008SOL    HW2 3922   6.113  10.051  13.807
34009SOL     OW 3923   3.745  10.558   1.270
34009SOL    HW1 3924   3.770  10.562   1.363
34009SOL    HW2 3925   3.663  10.508   1.270
34010SOL     OW 3926  13.499   1.839  13.131
34010SOL    HW1 3927  13.411   1.804  13.119
34010SOL    HW2 3928  13.556   1.775  13.088
34011SOL     OW 3929   0.887   4.041   3.508
34011SOL    HW1 3930   0.929   3.955   3.511
34011SOL    HW2 3931   0.939   4.094   3.568
34012SOL     OW 3932   1.139   6.979   8.864
34012SOL    HW1 3933   1.159   7.057   8.916
34012SOL    HW2 3934   1.213   6.971   8.804
34013SOL     OW 3935  14.117   6.877   5.919
34013SOL    HW1 3936  14.100   6.786   5.893
34013SOL    HW2 3937  14.083   6.929   5.846
34014SOL     OW 3938   9.668  12.869   6.407
34014SOL    HW1 3939   9.714  12.947   6.376
34014SOL    HW2 3940   9.737  12.807   6.429
34015SOL     OW 3941  13.833   4.012  14.206
34015SOL    HW1 3942  13.873   3.981  14.287
34015SOL    HW2 3943  13.829   3.935  14.150
34016SOL     OW 3944  14.049   2.639  12.305
34016SOL    HW1 3945  14.143   2.651  12.309
34016SOL    HW2 3946  14.037   2.547  12.282
34017SOL     OW 3947   8.245   5.034  14.779
34017SOL    HW1 3948   8.306   5.107  14.776
34017SOL    HW2 3949   8.300   4.956  14.769
34018SOL     OW 3950   5.241  12.072   3.355
34018SOL    HW1 3951   5.243  12.047   3.263
34018SOL    HW2 3952   5.213  11.992   3.400
34019SOL     OW 3953  14.119   6.716   8.760
34019SOL    HW1 3954  14.091   6.727   8.669
34019SOL    HW2 3955  14.043   6.679   8.804
34020SOL     OW 3956   5.249  12.988  14.079
34020SOL    HW1 3957   5.216  13.075  14.059
34020SOL    HW2 3958   5.199  12.960  14.156
34021SOL     OW 3959   3.968   9.797  12.711
34021SOL    HW1 3960   4.034   9.745  12.666
34021SOL    HW2 3961   4.018   9.856  12.767
34022SOL     OW 3962   7.318   4.617  13.988
34022SOL    HW1 3963   7.279   4.557  14.052
34022SOL    HW2 3964   7.302   4.575  13.903
34023SOL     OW 3965   3.486   1.992   0.125
34023SOL    HW1 3966   3.450   2.025   0.043
34023SOL    HW2 3967   3.411   1.953   0.170
34024SOL     OW 3968   0.301   9.104  11.933
34024SOL    HW1 3969   0.358   9.106  12.009
34024SOL    HW2 3970   0.260   9.017  11.935
34025SOL     OW 3971  13.478  14.710   1.091
34025SOL    HW1 3972  13.471  14.636   1.030
34025SOL    HW2 3973  13.532  14.774   1.045
34026SOL     OW 3974   8.406   7.150   9.663
34026SOL    HW1 3975   8.447   7.173   9.580
34026SOL    HW2 3976   8.450   7.206   9.727
34027SOL     OW 3977   9.745   1.576   7.016
34027SOL    HW1 3978   9.811   1.537   6.959
34027SOL    HW2 3979   9.794   1.634   7.073
34028SOL     OW 3980   1.966   4.304  11.447
34028SOL    HW1 3981   2.049   4.350  11.458
34028SOL    HW2 3982   1.936   4.329  11.360
34029SOL     OW 3983   4.674   4.540   4.784
34029SOL    HW1 3984   4.651   4.496   4.866
34029SOL    HW2 3985   4.662   4.633   4.802
34030SOL     OW 3986   2.185   7.942  13.580
34030SOL    HW1 3987   2.187   7.860  13.629
34030SOL    HW2 3988   2.159   8.008  13.645
34031SOL     OW 3989   1.033  10.226   1.673
34031SOL    HW1 3990   1.103  10.286   1.646
34031SOL    HW2 3991   0.956  10.257   1.626
34032SOL     OW 3992   9.292   1.431  12.491
34032SOL    HW1 3993   9.352   1.442  12.564
34032SOL    HW2 3994   9.205   1.436  12.531
34033SOL     OW 3995   8.911   4.229   9.681
34033SOL    HW1 3996   8.824   4.253   9.651
34033SOL    HW2 3997   8.963   4.221   9.601
34034SOL     OW 3998  11.764  13.379  14.650
34034SOL    HW1 3999  11.688  13.377  14.592
34034SOL    HW2 4000  11.775  13.472  14.672
34035SOL     OW 4001   0.059   0.307   8.924
34035SOL    HW1 4002  14.853   0.327   8.977
34035SOL    HW2 4003   0.027   0.247   8.857
34036SOL     OW 4004   7.122   0.679   3.884
34036SOL    HW1 4005   7.193   0.626   3.848
34036SOL    HW2 4006   7.135   0.766   3.848
34037SOL     OW 4007   6.842   5.988  11.899
34037SOL    HW1 4008   6.767   6.017  11.952
34037SOL    HW2 4009   6.914   6.045  11.926
34038SOL     OW 4010   8.930   0.770   6.271
34038SOL    HW1 4011   8.971   0.820   6.200
34038SOL    HW2 4012   8.916   0.835   6.341
34039SOL     OW 4013   3.556  13.762   8.541
34039SOL    HW1 4014   3.640  13.716   8.534
34039SOL    HW2 4015   3.499  13.701   8.587
34040SOL     OW 4016  10.002  11.412   9.184
34040SOL    HW1 4017  10.013  11.339   9.244
34040SOL    HW2 4018   9.955  11.375   9.110
34041SOL     OW 4019  12.939  14.567  11.200
34041SOL    HW1 4020  12.891  14.648  11.217
34041SOL    HW2 4021  12.911  14.540  11.113
34042SOL     OW 4022  12.108   2.215   3.851
34042SOL    HW1 4023  12.079   2.257   3.933
34042SOL    HW2 4024  12.031   2.166   3.821
34043SOL     OW 4025   6.082   9.418   1.747
34043SOL    HW1 4026   6.028   9.480   1.795
34043SOL    HW2 4027   6.112   9.355   1.812
34044SOL     OW 4028  12.895   4.969   4.593
34044SOL    HW1 4029  12.982   4.964   4.555
34044SOL    HW2 4030  12.880   5.062   4.607
34045SOL     OW 4031  13.106   1.423  10.622
34045SOL    HW1 4032  13.140   1.460  10.540
34045SOL    HW2 4033  13.136   1.484  10.690
34046SOL     OW 4034   6.295   5.684  14.656
34046SOL    HW1 4035   6.337   5.766  14.680
34046SOL    HW2 4036   6.308   5.627  14.732
34047SOL     OW 4037   2.489   5.811   9.073
34047SOL    HW1 4038   2.471   5.813   8.979
34047SOL    HW2 4039   2.582   5.788   9.079
34048SOL     OW 4040   3.799   5.290  11.918
34048SOL    HW1 4041   3.819   5.356  11.851
34048SOL    HW2 4042   3.871   5.228  11.912
34049SOL     OW 4043   9.122   4.243  14.461
34049SOL    HW1 4044   9.176   4.320  14.444
34049SOL    HW2 4045   9.184   4.176  14.490
34050SOL     OW 4046   9.053   2.865  14.361
34050SOL    HW1 4047   9.065   2.856  14.455
34050SOL    HW2 4048   9.127   2.818  14.322
34051SOL     OW 4049   0.430   0.846   3.682
34051SOL    HW1 4050   0.443   0.755   3.710
34051SOL    HW2 4051   0.349   0.843   3.631
34052SOL     OW 4052  10.620   2.678  10.031
34052SOL    HW1 4053  10.615   2.762   9.985
34052SOL    HW2 4054  10.532   2.641  10.023
34053SOL     OW 4055   5.978   8.872   7.182
34053SOL    HW1 4056   5.981   8.834   7.095
34053SOL    HW2 4057   5.953   8.800   7.239
34054SOL     OW 4058   4.336   4.328   1.942
34054SOL    HW1 4059   4.423   4.327   1.901
34054SOL    HW2 4060   4.322   4.237   1.968
34055SOL     OW 4061   4.773   0.398   7.474
34055SOL    HW1 4062   4.814   0.334   7.532
34055SOL    HW2 4063   4.707   0.442   7.528
34056SOL     OW 4064   7.732   5.377   6.464
34056SOL    HW1 4065   7.760   5.290   6.494
34056SOL    HW2 4066   7.809   5.432   6.474
34057SOL     OW 4067   5.773  12.229  14.648
34057SOL    HW1 4068   5.761  12.144  14.606
34057SOL    HW2 4069   5.831  12.277  14.588
34058SOL     OW 4070  11.973   7.890   8.113
34058SOL    HW1 4071  11.968   7.958   8.180
34058SOL    HW2 4072  12.058   7.848   8.127
34059SOL     OW 4073   4.619  12.791  10.466
34059SOL    HW1 4074   4.573  12.855  10.521
34059SOL    HW2 4075   4.710  12.820  10.468
34060SOL     OW 4076   7.686   6.066   6.462
34060SOL    HW1 4077   7.657   5.976   6.478
34060SOL    HW2 4078   7.680   6.077   6.367
34061SOL     OW 4079   8.189   4.954   0.847
34061SOL    HW1 4080   8.236   4.874   0.869
34061SOL    HW2 4081   8.256   5.022   0.846
34062SOL     OW 4082   5.021  11.733  10.783
34062SOL    HW1 4083   4.950  11.787  10.747
34062SOL    HW2 4084   5.022  11.754  10.876
34063SOL     OW 4085  10.811   5.853  13.548
34063SOL    HW1 4086  10.877   5.792  13.514
34063SOL    HW2 4087  10.819   5.846  13.643
34064SOL     OW 4088   4.116   7.681  13.246
34064SOL    HW1 4089   4.099   7.771  13.271
34064SOL    HW2 4090   4.049   7.661  13.180
34065SOL     OW 4091   5.781  12.079  10.050
34065SOL    HW1 4092   5.839  12.104  10.123
34065SOL    HW2 4093   5.823  12.002  10.012
34066SOL     OW 4094   6.179   8.633   1.321
34066SOL    HW1 4095   6.258   8.581   1.310
34066SOL    HW2 4096   6.113   8.589   1.267
34067SOL     OW 4097   9.518  14.833   5.737
34067SOL    HW1 4098   9.604  14.796   5.759
34067SOL    HW2 4099   9.514  14.829   5.641
34068SOL     OW 4100   9.680  13.705  13.565
34068SOL    HW1 4101   9.615  13.736  13.502
34068SOL    HW2 4102   9.750  13.770  13.561
34069SOL     OW 4103   8.594  14.328   0.973
34069SOL    HW1 4104   8.606  14.423   0.984
34069SOL    HW2 4105   8.559  14.318   0.885
34070SOL     OW 4106  13.385   6.749   1.240
34070SOL    HW1 4107  13.457   6.749   1.303
34070SOL    HW2 4108  13.307   6.764   1.293
34071SOL     OW 4109  14.678   3.615   6.035
34071SOL    HW1 4110  14.697   3.564   6.114
34071SOL    HW2 4111  14.629   3.554   5.979
34072SOL     OW 4112   2.996  13.618   8.647
34072SOL    HW1 4113   3.053  13.676   8.698
34072SOL    HW2 4114   3.044  13.534   8.644
34073SOL     OW 4115   4.431   3.249   5.934
34073SOL    HW1 4116   4.391   3.231   6.019
34073SOL    HW2 4117   4.510   3.195   5.932
34074SOL     OW 4118  11.017  14.859  12.775
34074SOL    HW1 4119  10.931   0.028  12.767
34074SOL    HW2 4120  10.999  14.765  12.771
34075SOL     OW 4121  14.028   5.325   5.440
34075SOL    HW1 4122  13.957   5.292   5.385
34075SOL    HW2 4123  14.038   5.258   5.508
34076SOL     OW 4124  10.779  10.493  14.618
34076SOL    HW1 4125  10.802  10.407  14.654
34076SOL    HW2 4126  10.686  10.503  14.639
34077SOL     OW 4127   3.912   7.340  11.151
34077SOL    HW1 4128   3.922   7.301  11.064
34077SOL    HW2 4129   3.942   7.430  11.140
34078SOL     OW 4130   0.044   7.523   9.357
34078SOL    HW1 4131  14.855   7.597   9.363
34078SOL    HW2 4132   0.130   7.563   9.344
34079SOL     OW 4133   2.149   4.474   3.287
34079SOL    HW1 4134   2.057   4.487   3.312
34079SOL    HW2 4135   2.183   4.414   3.353
34080SOL     OW 4136   0.268  14.141   4.295
34080SOL    HW1 4137   0.205  14.123   4.226
34080SOL    HW2 4138   0.344  14.176   4.249
34081SOL     OW 4139   2.743  12.219   5.132
34081SOL    HW1 4140   2.647  12.222   5.130
34081SOL    HW2 4141   2.763  12.157   5.202
34082SOL     OW 4142   6.688   0.201  12.908
34082SOL    HW1 4143   6.649   0.135  12.966
34082SOL    HW2 4144   6.640   0.192  12.826
34083SOL     OW 4145   5.276   1.883   8.935
34083SOL    HW1 4146   5.302   1.961   8.983
34083SOL    HW2 4147   5.182   1.873   8.953
34084SOL     OW 4148   8.933   4.075  11.155
34084SOL    HW1 4149   9.026   4.058  11.173
34084SOL    HW2 4150   8.890   4.060  11.239
34085SOL     OW 4151  11.424   6.939   7.271
34085SOL    HW1 4152  11.416   7.027   7.235
34085SOL    HW2 4153  11.513   6.913   7.252
34086SOL     OW 4154   3.756  14.587   3.850
34086SOL    HW1 4155   3.767  14.507   3.902
34086SOL    HW2 4156   3.782  14.561   3.762
34087SOL     OW 4157   7.729   6.354  13.087
34087SOL    HW1 4158   7.801   6.303  13.124
34087SOL    HW2 4159   7.662   6.288  13.065
34088SOL     OW 4160  11.639  13.740   8.047
34088SOL    HW1 4161  11.700  13.755   8.119
34088SOL    HW2 4162  11.554  13.725   8.090
34089SOL     OW 4163   4.717   7.141   4.313
34089SOL    HW1 4164   4.732   7.149   4.407
34089SOL    HW2 4165   4.766   7.063   4.287
34090SOL     OW 4166  10.719   1.254   0.030
34090SOL    HW1 4167  10.686   1.249   0.120
34090SOL    HW2 4168  10.793   1.193   0.028
34091SOL     OW 4169   7.452  14.265  10.058
34091SOL    HW1 4170   7.377  14.320  10.079
34091SOL    HW2 4171   7.513  14.279  10.130
34092SOL     OW 4172   5.525  13.175   9.807
34092SOL    HW1 4173   5.592  13.107   9.811
34092SOL    HW2 4174   5.574  13.257   9.802
34093SOL     OW 4175   4.644   1.950  14.610
34093SOL    HW1 4176   4.582   1.937  14.682
34093SOL    HW2 4177   4.623   2.038  14.577
34094SOL     OW 4178  12.839  12.169   4.827
34094SOL    HW1 4179  12.778  12.150   4.756
34094SOL    HW2 4180  12.809  12.114   4.899
34095SOL     OW 4181   1.532   0.848   6.365
34095SOL    HW1 4182   1.536   0.791   6.442
34095SOL    HW2 4183   1.491   0.928   6.397
34096SOL     OW 4184   8.216  13.233  12.976
34096SOL    HW1 4185   8.141  13.227  12.916
34096SOL    HW2 4186   8.218  13.325  13.002
34097SOL     OW 4187   5.434   4.424   0.530
34097SOL    HW1 4188   5.355   4.393   0.576
34097SOL    HW2 4189   5.501   4.360   0.553
34098SOL     OW 4190   8.979   8.052  12.595
34098SOL    HW1 4191   8.926   8.122  12.556
34098SOL    HW2 4192   9.069   8.083  12.586
34099SOL     OW 4193   5.577  13.443   0.350
34099SOL    HW1 4194   5.647  13.396   0.395
34099SOL    HW2 4195   5.532  13.375   0.298
34100SOL     OW 4196   4.203   4.247   7.255
34100SOL    HW1 4197   4.194   4.177   7.320
34100SOL    HW2 4198   4.114   4.266   7.227
34101SOL     OW 4199  13.444   5.467  14.846
34101SOL    HW1 4200  13.441   5.552   0.018
34101SOL    HW2 4201  13.464   5.487  14.754
34102SOL     OW 4202   2.889   8.377  10.558
34102SOL    HW1 4203   2.885   8.401  10.651
34102SOL    HW2 4204   2.829   8.438  10.515
34103SOL     OW 4205   8.710   4.584   1.032
34103SOL    HW1 4206   8.689   4.572   1.124
34103SOL    HW2 4207   8.733   4.676   1.024
34104SOL     OW 4208   4.078   0.877   9.048
34104SOL    HW1 4209   4.138   0.831   9.105
34104SOL    HW2 4210   3.999   0.890   9.101
34105SOL     OW 4211   4.772   0.839   4.324
34105SOL    HW1 4212   4.778   0.755   4.278
34105SOL    HW2 4213   4.714   0.892   4.270
34106SOL     OW 4214  11.341   4.264   6.226
34106SOL    HW1 4215  11.381   4.256   6.140
34106SOL    HW2 4216  11.364   4.353   6.255
34107SOL     OW 4217  11.337   6.000  11.284
34107SOL    HW1 4218  11.339   5.905  11.277
34107SOL    HW2 4219  11.338   6.017  11.379
34108SOL     OW 4220   7.763  12.933   9.904
34108SOL    HW1 4221   7.676  12.906   9.932
34108SOL    HW2 4222   7.796  12.986   9.976
34109SOL     OW 4223   3.390   9.528   9.394
34109SOL    HW1 4224   3.388   9.433   9.403
34109SOL    HW2 4225   3.365   9.544   9.303
34110SOL     OW 4226  12.794   9.695   5.008
34110SOL    HW1 4227  12.829   9.606   5.013
34110SOL    HW2 4228  12.772   9.706   4.915
34111SOL     OW 4229   2.375   4.543   0.869
34111SOL    HW1 4230   2.466   4.561   0.890
34111SOL    HW2 4231   2.326   4.610   0.917
34112SOL     OW 4232   0.469  14.465   2.676
34112SOL    HW1 4233   0.511  14.381   2.661
34112SOL    HW2 4234   0.512  14.525   2.615
34113SOL     OW 4235   4.246   0.971   6.181
34113SOL    HW1 4236   4.175   1.019   6.222
34113SOL    HW2 4237   4.320   0.980   6.242
34114SOL     OW 4238   6.302   2.574  11.467
34114SOL    HW1 4239   6.235   2.524  11.420
34114SOL    HW2 4240   6.266   2.662  11.474
34115SOL     OW 4241   7.853   5.495  12.051
34115SOL    HW1 4242   7.804   5.446  12.117
34115SOL    HW2 4243   7.945   5.482  12.074
34116SOL     OW 4244  12.398   5.184  12.534
34116SOL    HW1 4245  12.414   5.278  12.529
34116SOL    HW2 4246  12.302   5.177  12.542
34117SOL     OW 4247   6.617   4.215   6.688
34117SOL    HW1 4248   6.559   4.279   6.730
34117SOL    HW2 4249   6.704   4.233   6.724
34118SOL     OW 4250   6.409   4.619   0.241
34118SOL    HW1 4251   6.340   4.569   0.285
34118SOL    HW2 4252   6.476   4.631   0.309
34119SOL     OW 4253  10.856   2.930  13.428
34119SOL    HW1 4254  10.893   2.892  13.507
34119SOL    HW2 4255  10.917   3.001  13.404
34120SOL     OW 4256  14.102   1.726   5.367
34120SOL    HW1 4257  14.094   1.735   5.462
34120SOL    HW2 4258  14.156   1.799   5.340
34121SOL     OW 4259   0.855  13.449  13.178
34121SOL    HW1 4260   0.877  13.535  13.143
34121SOL    HW2 4261   0.884  13.450  13.269
34122SOL     OW 4262   3.135   0.397   3.064
34122SOL    HW1 4263   3.221   0.368   3.095
34122SOL    HW2 4264   3.080   0.319   3.068
34123SOL     OW 4265   1.925   7.411  11.638
34123SOL    HW1 4266   1.996   7.474  11.641
34123SOL    HW2 4267   1.957   7.342  11.580
34124SOL     OW 4268   8.979   3.116   9.406
34124SOL    HW1 4269   8.895   3.077   9.382
34124SOL    HW2 4270   8.988   3.099   9.499
34125SOL     OW 4271   7.966  14.851   2.785
34125SOL    HW1 4272   7.982   0.005   2.875
34125SOL    HW2 4273   7.976   0.060   2.734
34126SOL     OW 4274   4.152   8.823  10.046
34126SOL    HW1 4275   4.202   8.893  10.003
34126SOL    HW2 4276   4.182   8.743  10.004
34127SOL     OW 4277  13.008  14.125   8.613
34127SOL    HW1 4278  12.972  14.207   8.580
34127SOL    HW2 4279  12.938  14.090   8.669
34128SOL     OW 4280   4.405   5.476   9.687
34128SOL    HW1 4281   4.410   5.426   9.768
34128SOL    HW2 4282   4.328   5.533   9.699
34129SOL     OW 4283   5.578  10.376  12.565
34129SOL    HW1 4284   5.519  10.365  12.639
34129SOL    HW2 4285   5.569  10.468  12.540
34130SOL     OW 4286   1.879   2.928   2.417
34130SOL    HW1 4287   1.882   2.833   2.410
34130SOL    HW2 4288   1.809   2.955   2.358
34131SOL     OW 4289   8.699   9.595   5.629
34131SOL    HW1 4290   8.661   9.511   5.602
34131SOL    HW2 4291   8.624   9.647   5.658
34132SOL     OW 4292   7.841   2.238   8.921
34132SOL    HW1 4293   7.781   2.277   8.857
34132SOL    HW2 4294   7.789   2.232   9.001
34133SOL     OW 4295   9.120   1.196   0.474
34133SOL    HW1 4296   9.046   1.138   0.453
34133SOL    HW2 4297   9.102   1.225   0.564
34134SOL     OW 4298   9.187   3.238  10.660
34134SOL    HW1 4299   9.152   3.149  10.657
34134SOL    HW2 4300   9.236   3.248  10.579
34135SOL     OW 4301  14.012  13.453  14.381
34135SOL    HW1 4302  13.924  13.440  14.345
34135SOL    HW2 4303  14.035  13.542  14.355
34136SOL     OW 4304   8.063   4.361   7.301
34136SOL    HW1 4305   8.013   4.353   7.382
34136SOL    HW2 4306   8.034   4.443   7.262
34137SOL     OW 4307   1.973   3.201   3.383
34137SOL    HW1 4308   1.985   3.108   3.403
34137SOL    HW2 4309   1.881   3.218   3.402
34138SOL     OW 4310   0.812   3.541   4.181
34138SOL    HW1 4311   0.891   3.581   4.144
34138SOL    HW2 4312   0.759   3.518   4.104
34139SOL     OW 4313   1.874   4.449  11.664
34139SOL    HW1 4314   1.839   4.392  11.732
34139SOL    HW2 4315   1.873   4.396  11.584
34140SOL     OW 4316   7.090   6.416   1.002
34140SOL    HW1 4317   7.078   6.408   1.097
34140SOL    HW2 4318   7.022   6.359   0.964
34141SOL     OW 4319   1.620   6.392   0.861
34141SOL    HW1 4320   1.576   6.314   0.894
34141SOL    HW2 4321   1.670   6.362   0.785
34142SOL     OW 4322   7.462   1.743   3.816
34142SOL    HW1 4323   7.446   1.781   3.729
34142SOL    HW2 4324   7.542   1.691   3.805
34143SOL     OW 4325   2.350   7.775   4.900
34143SOL    HW1 4326   2.359   7.738   4.812
34143SOL    HW2 4327   2.318   7.702   4.953
34144SOL     OW 4328   5.654   0.957   0.328
34144SOL    HW1 4329   5.647   1.035   0.272
34144SOL    HW2 4330   5.741   0.922   0.308
34145SOL     OW 4331   9.977   7.077   6.392
34145SOL    HW1 4332   9.969   6.987   6.360
34145SOL    HW2 4333   9.903   7.088   6.451
34146SOL     OW 4334   3.516  14.351   0.942
34146SOL    HW1 4335   3.582  14.343   1.011
34146SOL    HW2 4336   3.449  14.409   0.979
34147SOL     OW 4337  13.260  10.748   3.066
34147SOL    HW1 4338  13.210  10.801   3.129
34147SOL    HW2 4339  13.203  10.674   3.046
34148SOL     OW 4340  13.783   4.525   5.726
34148SOL    HW1 4341  13.742   4.586   5.665
34148SOL    HW2 4342  13.866   4.566   5.750
34149SOL     OW 4343   3.183  10.200  12.644
34149SOL    HW1 4344   3.217  10.177  12.730
34149SOL    HW2 4345   3.089  10.210  12.657
34150SOL     OW 4346  10.397  14.323   9.088
34150SOL    HW1 4347  10.414  14.392   9.152
34150SOL    HW2 4348  10.342  14.259   9.135
34151SOL     OW 4349   4.547   6.958   7.014
34151SOL    HW1 4350   4.468   6.926   7.057
34151SOL    HW2 4351   4.617   6.945   7.078
34152SOL     OW 4352  11.960   7.176   4.386
34152SOL    HW1 4353  11.900   7.139   4.450
34152SOL    HW2 4354  12.032   7.113   4.380
34153SOL     OW 4355   5.051   5.211   3.143
34153SOL    HW1 4356   5.146   5.207   3.140
34153SOL    HW2 4357   5.024   5.124   3.172
34154SOL     OW 4358   0.431   4.495   1.381
34154SOL    HW1 4359   0.387   4.528   1.303
34154SOL    HW2 4360   0.374   4.521   1.454
34155SOL     OW 4361   3.748   1.876   6.640
34155SOL    HW1 4362   3.794   1.838   6.715
34155SOL    HW2 4363   3.671   1.918   6.678
34156SOL     OW 4364   5.877  11.916   1.760
34156SOL    HW1 4365   5.873  11.955   1.847
34156SOL    HW2 4366   5.928  11.836   1.772
34157SOL     OW 4367   4.195   6.160   1.831
34157SOL    HW1 4368   4.142   6.154   1.751
34157SOL    HW2 4369   4.234   6.248   1.826
34158SOL     OW 4370   4.874   2.729   0.697
34158SOL    HW1 4371   4.853   2.770   0.613
34158SOL    HW2 4372   4.969   2.724   0.699
34159SOL     OW 4373   4.671  10.718  12.509
34159SOL    HW1 4374   4.581  10.721  12.477
34159SOL    HW2 4375   4.710  10.801  12.481
34160SOL     OW 4376  12.628  13.123   8.604
34160SOL    HW1 4377  12.624  13.206   8.651
34160SOL    HW2 4378  12.654  13.059   8.670
34161SOL     OW 4379   8.327  10.389   3.018
34161SOL    HW1 4380   8.303  10.363   3.107
34161SOL    HW2 4381   8.279  10.471   3.004
34162SOL     OW 4382   8.030   7.441   7.212
34162SOL    HW1 4383   8.116   7.482   7.208
34162SOL    HW2 4384   8.046   7.349   7.190
34163SOL     OW 4385  14.333  14.506   5.935
34163SOL    HW1 4386  14.389  14.507   6.014
34163SOL    HW2 4387  14.326  14.598   5.910
34164SOL     OW 4388  11.928   0.924  12.280
34164SOL    HW1 4389  11.882   0.903  12.198
34164SOL    HW2 4390  11.865   0.901  12.349
34165SOL     OW 4391  12.490   2.462  14.603
34165SOL    HW1 4392  12.497   2.410  14.523
34165SOL    HW2 4393  12.567   2.437  14.654
34166SOL     OW 4394   7.505  14.685   7.221
34166SOL    HW1 4395   7.433  14.698   7.284
34166SOL    HW2 4396   7.574  14.744   7.252
34167SOL     OW 4397   7.460   6.893  12.213
34167SOL    HW1 4398   7.388   6.863  12.157
34167SOL    HW2 4399   7.491   6.814  12.256
34168SOL     OW 4400   8.846   8.570   4.600
34168SOL    HW1 4401   8.841   8.511   4.675
34168SOL    HW2 4402   8.926   8.621   4.615
34169SOL     OW 4403   7.974  10.256  12.891
34169SOL    HW1 4404   7.905  10.303  12.937
34169SOL    HW2 4405   8.056  10.289  12.929
34170SOL     OW 4406   5.266  10.172   5.788
34170SOL    HW1 4407   5.176  10.163   5.757
34170SOL    HW2 4408   5.265  10.250   5.845
34171SOL     OW 4409   2.332   3.902  11.922
34171SOL    HW1 4410   2.404   3.839  11.913
34171SOL    HW2 4411   2.363   3.963  11.989
34172SOL     OW 4412  13.607  13.953   2.692
34172SOL    HW1 4413  13.524  13.998   2.677
34172SOL    HW2 4414  13.611  13.940   2.787
34173SOL     OW 4415   1.557   8.959  14.606
34173SOL    HW1 4416   1.572   8.877  14.653
34173SOL    HW2 4417   1.463   8.960  14.588
34174SOL     OW 4418  13.258   3.396   7.966
34174SOL    HW1 4419  13.210   3.320   7.999
34174SOL    HW2 4420  13.228   3.469   8.020
34175SOL     OW 4421   1.100   9.061   4.743
34175SOL    HW1 4422   1.166   9.089   4.679
34175SOL    HW2 4423   1.143   9.072   4.828
34176SOL     OW 4424   7.622  12.959   2.260
34176SOL    HW1 4425   7.540  12.913   2.274
34176SOL    HW2 4426   7.614  12.995   2.171
34177SOL     OW 4427  11.504  10.778  11.101
34177SOL    HW1 4428  11.528  10.868  11.078
34177SOL    HW2 4429  11.588  10.734  11.115
34178SOL     OW 4430   4.803   5.291  11.098
34178SOL    HW1 4431   4.885   5.244  11.114
34178SOL    HW2 4432   4.738   5.222  11.083
34179SOL     OW 4433  12.286   2.607  11.981
34179SOL    HW1 4434  12.374   2.612  11.945
34179SOL    HW2 4435  12.249   2.528  11.943
34180SOL     OW 4436   2.128   7.804  12.926
34180SOL    HW1 4437   2.199   7.867  12.940
34180SOL    HW2 4438   2.100   7.779  13.014
34181SOL     OW 4439   0.248   2.366  12.974
34181SOL    HW1 4440   0.204   2.304  12.916
34181SOL    HW2 4441   0.180   2.428  13.000
34182SOL     OW 4442   0.783   6.111   8.664
34182SOL    HW1 4443   0.838   6.116   8.743
34182SOL    HW2 4444   0.767   6.018   8.652
34183SOL     OW 4445   0.776   6.655  12.614
34183SOL    HW1 4446   0.743   6.579  12.566
34183SOL    HW2 4447   0.700   6.689  12.661
34184SOL     OW 4448   1.022  11.427   1.232
34184SOL    HW1 4449   0.993  11.447   1.143
34184SOL    HW2 4450   0.993  11.502   1.285
34185SOL     OW 4451   2.244   8.799   9.093
34185SOL    HW1 4452   2.226   8.787   9.000
34185SOL    HW2 4453   2.159   8.823   9.131
34186SOL     OW 4454   9.171   9.692   5.328
34186SOL    HW1 4455   9.228   9.638   5.274
34186SOL    HW2 4456   9.085   9.686   5.286
34187SOL     OW 4457  14.096   7.755  10.347
34187SOL    HW1 4458  14.082   7.678  10.292
34187SOL    HW2 4459  14.017   7.808  10.336
34188SOL     OW 4460   5.784   0.339   4.319
34188SOL    HW1 4461   5.762   0.279   4.247
34188SOL    HW2 4462   5.717   0.407   4.313
34189SOL     OW 4463  10.774   5.965   4.590
34189SOL    HW1 4464  10.846   5.903   4.598
34189SOL    HW2 4465  10.710   5.921   4.536
34190SOL     OW 4466   6.390  11.814  10.994
34190SOL    HW1 4467   6.369  11.907  10.985
34190SOL    HW2 4468   6.485  11.810  10.987
34191SOL     OW 4469   7.348   6.139  12.319
34191SOL    HW1 4470   7.328   6.228  12.347
34191SOL    HW2 4471   7.443   6.135  12.314
34192SOL     OW 4472  12.078  10.848   1.839
34192SOL    HW1 4473  12.021  10.912   1.881
34192SOL    HW2 4474  12.022  10.803   1.776
34193SOL     OW 4475   1.532   7.854  14.321
34193SOL    HW1 4476   1.483   7.818  14.247
34193SOL    HW2 4477   1.539   7.948  14.302
34194SOL     OW 4478   8.131   8.443   1.718
34194SOL    HW1 4479   8.083   8.494   1.654
34194SOL    HW2 4480   8.179   8.508   1.770
34195SOL     OW 4481  13.765   1.883   8.090
34195SOL    HW1 4482  13.821   1.859   8.164
34195SOL    HW2 4483  13.767   1.806   8.033
34196SOL     OW 4484   7.766   7.172   2.639
34196SOL    HW1 4485   7.741   7.137   2.553
34196SOL    HW2 4486   7.683   7.202   2.677
34197SOL     OW 4487  11.892   4.518   9.681
34197SOL    HW1 4488  11.976   4.492   9.644
34197SOL    HW2 4489  11.861   4.440   9.727
34198SOL     OW 4490  14.763   6.910  10.138
34198SOL    HW1 4491  14.774   6.994  10.182
34198SOL    HW2 4492  14.762   6.931  10.045
34199SOL     OW 4493   9.012   3.240   9.636
34199SOL    HW1 4494   9.048   3.299   9.703
34199SOL    HW2 4495   9.010   3.292   9.556
34200SOL     OW 4496   6.128   5.438   7.527
34200SOL    HW1 4497   6.105   5.416   7.617
34200SOL    HW2 4498   6.045   5.459   7.485
34201SOL     OW 4499   4.885  10.919  11.441
34201SOL    HW1 4500   4.875  10.866  11.520
34201SOL    HW2 4501   4.968  10.965  11.454
34202SOL     OW 4502   9.176   2.521  12.540
34202SOL    HW1 4503   9.116   2.548  12.610
34202SOL    HW2 4504   9.181   2.597  12.482
34203SOL     OW 4505  12.882   5.425   8.715
34203SOL    HW1 4506  12.943   5.369   8.762
34203SOL    HW2 4507  12.925   5.511   8.714
34204SOL     OW 4508   5.488  14.866   9.673
34204SOL    HW1 4509   5.552   0.043   9.726
34204SOL    HW2 4510   5.412  14.857   9.730
34205SOL     OW 4511  12.095  13.708  12.023
34205SOL    HW1 4512  12.073  13.628  11.975
34205SOL    HW2 4513  12.041  13.776  11.983
34206SOL     OW 4514   0.651   1.273   2.836
34206SOL    HW1 4515   0.670   1.180   2.828
34206SOL    HW2 4516   0.734   1.316   2.818
34207SOL     OW 4517   2.833   6.106   2.983
34207SOL    HW1 4518   2.916   6.154   2.981
34207SOL    HW2 4519   2.823   6.080   3.075
34208SOL     OW 4520   7.129  13.620   6.879
34208SOL    HW1 4521   7.070  13.583   6.945
34208SOL    HW2 4522   7.203  13.560   6.877
34209SOL     OW 4523   7.116   2.882  11.720
34209SOL    HW1 4524   7.042   2.890  11.780
34209SOL    HW2 4525   7.184   2.938  11.757
34210SOL     OW 4526   1.542   2.407   0.541
34210SOL    HW1 4527   1.521   2.476   0.479
34210SOL    HW2 4528   1.548   2.328   0.487
34211SOL     OW 4529   2.014  11.670  12.460
34211SOL    HW1 4530   1.970  11.753  12.438
34211SOL    HW2 4531   1.992  11.655  12.552
34212SOL     OW 4532   4.116   4.759  14.154
34212SOL    HW1 4533   4.164   4.707  14.219
34212SOL    HW2 4534   4.090   4.838  14.201
34213SOL     OW 4535   7.807   7.845  10.768
34213SOL    HW1 4536   7.779   7.935  10.753
34213SOL    HW2 4537   7.730   7.792  10.746
34214SOL     OW 4538   1.746  13.726   5.552
34214SOL    HW1 4539   1.715  13.790   5.616
34214SOL    HW2 4540   1.745  13.643   5.599
34215SOL     OW 4541   5.668  13.523  11.041
34215SOL    HW1 4542   5.645  13.505  11.132
34215SOL    HW2 4543   5.678  13.618  11.037
34216SOL     OW 4544  12.740   0.676   5.731
34216SOL    HW1 4545  12.711   0.599   5.780
34216SOL    HW2 4546  12.789   0.729   5.795
34217SOL     OW 4547   5.419  12.320   8.006
34217SOL    HW1 4548   5.476  12.306   8.082
34217SOL    HW2 4549   5.453  12.400   7.966
34218SOL     OW 4550  10.321   1.384   8.498
34218SOL    HW1 4551  10.363   1.298   8.495
34218SOL    HW2 4552  10.380   1.442   8.449
34219SOL     OW 4553   5.682  13.965  11.344
34219SOL    HW1 4554   5.625  14.026  11.391
34219SOL    HW2 4555   5.688  13.889  11.401
34220SOL     OW 4556   3.067   3.182  12.364
34220SOL    HW1 4557   3.010   3.253  12.394
34220SOL    HW2 4558   3.072   3.193  12.269
34221SOL     OW 4559   4.101   9.595   3.594
34221SOL    HW1 4560   4.154   9.632   3.664
34221SOL    HW2 4561   4.031   9.548   3.639
34222SOL     OW 4562  12.110  12.164  14.529
34222SOL    HW1 4563  12.046  12.122  14.472
34222SOL    HW2 4564  12.078  12.253  14.540
34223SOL     OW 4565   8.730   6.930  11.849
34223SOL    HW1 4566   8.650   6.969  11.815
34223SOL    HW2 4567   8.716   6.836  11.843
34224SOL     OW 4568   5.626   3.233   5.319
34224SOL    HW1 4569   5.561   3.163   5.320
34224SOL    HW2 4570   5.646   3.248   5.411
34225SOL     OW 4571   1.127  12.426   9.013
34225SOL    HW1 4572   1.044  12.468   8.992
34225SOL    HW2 4573   1.181  12.496   9.050
34226SOL     OW 4574  10.863   4.285  13.409
34226SOL    HW1 4575  10.799   4.246  13.349
34226SOL    HW2 4576  10.846   4.379  13.404
34227SOL     OW 4577   2.056   3.344   4.038
34227SOL    HW1 4578   2.055   3.438   4.018
34227SOL    HW2 4579   1.966   3.324   4.063
34228SOL     OW 4580   4.931  14.208   2.435
34228SOL    HW1 4581   4.914  14.121   2.469
34228SOL    HW2 4582   4.847  14.253   2.440
34229SOL     OW 4583  13.162   5.568  13.871
34229SOL    HW1 4584  13.132   5.612  13.951
34229SOL    HW2 4585  13.147   5.633  13.801
34230SOL     OW 4586  10.777  11.524  11.344
34230SOL    HW1 4587  10.732  11.485  11.269
34230SOL    HW2 4588  10.749  11.616  11.344
34231SOL     OW 4589  11.598  10.761  14.101
34231SOL    HW1 4590  11.609  10.666  14.103
34231SOL    HW2 4591  11.503  10.774  14.103
34232SOL     OW 4592   2.521  12.387   0.347
34232SOL    HW1 4593   2.529  12.298   0.380
34232SOL    HW2 4594   2.608  12.425   0.358
34233SOL     OW 4595   1.603   0.713  13.406
34233SOL    HW1 4596   1.523   0.678  13.446
34233SOL    HW2 4597   1.672   0.691  13.469
34234SOL     OW 4598   2.311  12.421   9.552
34234SOL    HW1 4599   2.298  12.335   9.593
34234SOL    HW2 4600   2.223  12.448   9.525
34235SOL     OW 4601  14.295   6.752   7.924
34235SOL    HW1 4602  14.270   6.843   7.944
34235SOL    HW2 4603  14.354   6.759   7.849
34236SOL     OW 4604  10.889   6.813   5.668
34236SOL    HW1 4605  10.971   6.850   5.702
34236SOL    HW2 4606  10.860   6.752   5.735
34237SOL     OW 4607  12.996  11.788   8.509
34237SOL    HW1 4608  12.994  11.773   8.603
34237SOL    HW2 4609  13.053  11.864   8.497
34238SOL     OW 4610  12.790   2.772   9.084
34238SOL    HW1 4611  12.849   2.844   9.062
34238SOL    HW2 4612  12.755   2.795   9.170
34239SOL     OW 4613   2.818  12.104  11.892
34239SOL    HW1 4614   2.858  12.138  11.811
34239SOL    HW2 4615   2.747  12.047  11.862
34240SOL     OW 4616  10.921   9.737   4.507
34240SOL    HW1 4617  10.964   9.764   4.588
34240SOL    HW2 4618  10.991   9.737   4.441
34241SOL     OW 4619   2.722  11.941  14.178
34241SOL    HW1 4620   2.809  11.936  14.219
34241SOL    HW2 4621   2.713  11.858  14.132
34242SOL     OW 4622  13.125  13.216   6.212
34242SOL    HW1 4623  13.123  13.136   6.265
34242SOL    HW2 4624  13.107  13.286   6.274
34243SOL     OW 4625   6.944   4.427  14.562
34243SOL    HW1 4626   6.924   4.388  14.648
34243SOL    HW2 4627   6.998   4.504  14.583
34244SOL     OW 4628   5.873  10.985   2.567
34244SOL    HW1 4629   5.883  11.011   2.475
34244SOL    HW2 4630   5.884  10.890   2.566
34245SOL     OW 4631   4.172   7.445   5.701
34245SOL    HW1 4632   4.164   7.427   5.795
34245SOL    HW2 4633   4.242   7.386   5.671
34246SOL     OW 4634   6.452  11.074   0.283
34246SOL    HW1 4635   6.371  11.109   0.319
34246SOL    HW2 4636   6.460  10.986   0.320
34247SOL     OW 4637   2.478   9.884   0.591
34247SOL    HW1 4638   2.563   9.918   0.565
34247SOL    HW2 4639   2.428   9.960   0.620
34248SOL     OW 4640  14.306  11.943   2.306
34248SOL    HW1 4641  14.377  11.878   2.306
34248SOL    HW2 4642  14.226  11.890   2.301
34249SOL     OW 4643   9.121  11.071  11.404
34249SOL    HW1 4644   9.147  11.127  11.477
34249SOL    HW2 4645   9.031  11.096  11.386
34250SOL     OW 4646   9.341  12.820   6.901
34250SOL    HW1 4647   9.307  12.905   6.873
34250SOL    HW2 4648   9.414  12.802   6.842
34251SOL     OW 4649  11.043   3.452   9.266
34251SOL    HW1 4650  11.106   3.449   9.338
34251SOL    HW2 4651  10.983   3.380   9.285
34252SOL     OW 4652   6.064   5.124   3.302
34252SOL    HW1 4653   5.971   5.126   3.326
34252SOL    HW2 4654   6.085   5.031   3.299
34253SOL     OW 4655   5.340   7.584   1.616
34253SOL    HW1 4656   5.368   7.521   1.683
34253SOL    HW2 4657   5.422   7.613   1.575
34254SOL     OW 4658   1.842   1.198   0.045
34254SOL    HW1 4659   1.762   1.233   0.085
34254SOL    HW2 4660   1.888   1.153   0.116
34255SOL     OW 4661   0.526   9.637  13.284
34255SOL    HW1 4662   0.456   9.645  13.219
34255SOL    HW2 4663   0.515   9.714  13.340
34256SOL     OW 4664   9.483  14.821   7.271
34256SOL    HW1 4665   9.458  14.749   7.212
34256SOL    HW2 4666   9.481  14.781   7.359
34257SOL     OW 4667  11.862  13.319  11.216
34257SOL    HW1 4668  11.957  13.327  11.220
34257SOL    HW2 4669  11.829  13.401  11.252
34258SOL     OW 4670  12.340   4.443   0.450
34258SOL    HW1 4671  12.253   4.417   0.422
34258SOL    HW2 4672  12.393   4.363   0.439
34259SOL     OW 4673   4.942   4.669   1.539
34259SOL    HW1 4674   4.987   4.724   1.602
34259SOL    HW2 4675   4.853   4.660   1.574
34260SOL     OW 4676   6.962   7.696  14.532
34260SOL    HW1 4677   6.955   7.670  14.440
34260SOL    HW2 4678   6.876   7.729  14.555
34261SOL     OW 4679  10.364  13.136   0.469
34261SOL    HW1 4680  10.286  13.190   0.462
34261SOL    HW2 4681  10.347  13.061   0.411
34262SOL     OW 4682   3.541  13.499  13.283
34262SOL    HW1 4683   3.494  13.491  13.366
34262SOL    HW2 4684   3.580  13.587  13.286
34263SOL     OW 4685   4.408   8.611   4.958
34263SOL    HW1 4686   4.479   8.548   4.944
34263SOL    HW2 4687   4.333   8.558   4.984
34264SOL     OW 4688   1.536   9.116  13.637
34264SOL    HW1 4689   1.590   9.161  13.572
34264SOL    HW2 4690   1.470   9.069  13.585
34265SOL     OW 4691   4.584   2.866   1.449
34265SOL    HW1 4692   4.664   2.881   1.499
34265SOL    HW2 4693   4.594   2.921   1.371
34266SOL     OW 4694   4.620   7.068   9.841
34266SOL    HW1 4695   4.710   7.063   9.810
34266SOL    HW2 4696   4.624   7.034   9.930
34267SOL     OW 4697   3.054   0.961   9.603
34267SOL    HW1 4698   3.138   0.917   9.616
34267SOL    HW2 4699   3.077   1.041   9.556
34268SOL     OW 4700  10.650   6.464   9.829
34268SOL    HW1 4701  10.597   6.524   9.777
34268SOL    HW2 4702  10.711   6.522   9.876
34269SOL     OW 4703  11.932   8.221   6.056
34269SOL    HW1 4704  11.882   8.302   6.051
34269SOL    HW2 4705  12.021   8.248   6.076
34270SOL     OW 4706  10.700  12.061  10.622
34270SOL    HW1 4707  10.791  12.088  10.636
34270SOL    HW2 4708  10.699  11.968  10.643
34271SOL     OW 4709   7.344   6.642  12.483
34271SOL    HW1 4710   7.360   6.681  12.569
34271SOL    HW2 4711   7.298   6.710  12.434
34272SOL     OW 4712   5.401  10.566  13.565
34272SOL    HW1 4713   5.417  10.524  13.650
34272SOL    HW2 4714   5.319  10.527  13.534
34273SOL     OW 4715   4.554   2.241   6.992
34273SOL    HW1 4716   4.618   2.311   7.002
34273SOL    HW2 4717   4.499   2.247   7.070
34274SOL     OW 4718  14.513  12.591  14.000
34274SOL    HW1 4719  14.588  12.534  13.980
34274SOL    HW2 4720  14.437  12.542  13.969
34275SOL     OW 4721  12.341   6.202   0.018
34275SOL    HW1 4722  12.259   6.205   0.067
34275SOL    HW2 4723  12.409   6.201   0.085
34276SOL     OW 4724   9.604   2.050   4.537
34276SOL    HW1 4725   9.510   2.066   4.550
34276SOL    HW2 4726   9.646   2.132   4.562
34277SOL     OW 4727   6.904   3.335   4.403
34277SOL    HW1 4728   6.870   3.401   4.342
34277SOL    HW2 4729   6.999   3.341   4.396
34278SOL     OW 4730   2.181   6.822  13.514
34278SOL    HW1 4731   2.199   6.738  13.555
34278SOL    HW2 4732   2.131   6.871  13.579
34279SOL     OW 4733   1.413   6.991  10.620
34279SOL    HW1 4734   1.487   6.934  10.639
34279SOL    HW2 4735   1.358   6.986  10.699
34280SOL     OW 4736   1.411   2.369   9.121
34280SOL    HW1 4737   1.351   2.369   9.047
34280SOL    HW2 4738   1.479   2.305   9.097
34281SOL     OW 4739   9.793   3.611   0.960
34281SOL    HW1 4740   9.762   3.542   0.901
34281SOL    HW2 4741   9.799   3.689   0.904
34282SOL     OW 4742   0.014   0.884   3.687
34282SOL    HW1 4743  14.853   0.795   3.674
34282SOL    HW2 4744  14.862   0.906   3.777
34283SOL     OW 4745   6.425  12.711  13.392
34283SOL    HW1 4746   6.333  12.690  13.405
34283SOL    HW2 4747   6.473  12.644  13.441
34284SOL     OW 4748   9.702  13.338  10.562
34284SOL    HW1 4749   9.764  13.410  10.566
34284SOL    HW2 4750   9.732  13.277  10.630
34285SOL     OW 4751   9.284   8.378   0.537
34285SOL    HW1 4752   9.238   8.456   0.567
34285SOL    HW2 4753   9.342   8.409   0.467
34286SOL     OW 4754   3.847   9.069   3.258
34286SOL    HW1 4755   3.761   9.034   3.236
34286SOL    HW2 4756   3.886   9.092   3.173
34287SOL     OW 4757   6.115   1.653   5.518
34287SOL    HW1 4758   6.202   1.634   5.482
34287SOL    HW2 4759   6.131   1.678   5.608
34288SOL     OW 4760  14.502   9.158  12.497
34288SOL    HW1 4761  14.547   9.243  12.503
34288SOL    HW2 4762  14.477   9.139  12.588
34289SOL     OW 4763   4.469   4.728   2.019
34289SOL    HW1 4764   4.437   4.651   2.066
34289SOL    HW2 4765   4.541   4.695   1.965
34290SOL     OW 4766   7.680  10.781  13.232
34290SOL    HW1 4767   7.664  10.840  13.159
34290SOL    HW2 4768   7.740  10.828  13.289
34291SOL     OW 4769   1.131   7.409  12.446
34291SOL    HW1 4770   1.160   7.482  12.500
34291SOL    HW2 4771   1.106   7.449  12.363
34292SOL     OW 4772   2.197   7.309  14.483
34292SOL    HW1 4773   2.117   7.362  14.489
34292SOL    HW2 4774   2.167   7.224  14.451
34293SOL     OW 4775   6.548   5.089   3.430
34293SOL    HW1 4776   6.628   5.051   3.393
34293SOL    HW2 4777   6.540   5.049   3.516
34294SOL     OW 4778   8.627  13.997   8.792
34294SOL    HW1 4779   8.595  14.047   8.867
34294SOL    HW2 4780   8.556  13.936   8.772
34295SOL     OW 4781   6.530   9.944   8.192
34295SOL    HW1 4782   6.520   9.922   8.099
34295SOL    HW2 4783   6.458   9.898   8.235
34296SOL     OW 4784   6.423  14.108   5.576
34296SOL    HW1 4785   6.387  14.187   5.537
34296SOL    HW2 4786   6.458  14.058   5.502
34297SOL     OW 4787   9.087   1.400   3.836
34297SOL    HW1 4788   9.177   1.404   3.870
34297SOL    HW2 4789   9.079   1.478   3.780
34298SOL     OW 4790   1.834   1.712   6.966
34298SOL    HW1 4791   1.742   1.715   6.992
34298SOL    HW2 4792   1.875   1.655   7.030
34299SOL     OW 4793   1.832   8.325   4.254
34299SOL    HW1 4794   1.736   8.330   4.260
34299SOL    HW2 4795   1.860   8.295   4.341
34300SOL     OW 4796   6.565  10.285   1.168
34300SOL    HW1 4797   6.657  10.280   1.195
34300SOL    HW2 4798   6.524  10.340   1.234
34301SOL     OW 4799   1.040   0.513   6.236
34301SOL    HW1 4800   1.092   0.549   6.308
34301SOL    HW2 4801   1.104   0.468   6.181
34302SOL     OW 4802   4.579   7.554  11.793
34302SOL    HW1 4803   4.489   7.542  11.762
34302SOL    HW2 4804   4.632   7.553  11.713
34303SOL     OW 4805   6.823   1.856   2.964
34303SOL    HW1 4806   6.735   1.891   2.977
34303SOL    HW2 4807   6.878   1.909   3.022
34304SOL     OW 4808   8.195   7.464  11.868
34304SOL    HW1 4809   8.136   7.536  11.845
34304SOL    HW2 4810   8.142   7.385  11.858
34305SOL     OW 4811   3.968   1.054   2.855
34305SOL    HW1 4812   3.928   0.971   2.829
34305SOL    HW2 4813   4.022   1.032   2.931
34306SOL     OW 4814   7.446   5.357  13.820
34306SOL    HW1 4815   7.361   5.327  13.850
34306SOL    HW2 4816   7.508   5.324  13.885
34307SOL     OW 4817  12.310  11.960  12.422
34307SOL    HW1 4818  12.397  11.998  12.410
34307SOL    HW2 4819  12.251  12.018  12.372
34308SOL     OW 4820   2.333  14.500   3.714
34308SOL    HW1 4821   2.247  14.516   3.677
34308SOL    HW2 4822   2.352  14.408   3.692
34309SOL     OW 4823   7.222  12.612   4.908
34309SOL    HW1 4824   7.261  12.700   4.909
34309SOL    HW2 4825   7.183  12.604   4.821
34310SOL     OW 4826   5.509  13.183   7.587
34310SOL    HW1 4827   5.454  13.174   7.665
34310SOL    HW2 4828   5.525  13.093   7.559
34311SOL     OW 4829   9.687  12.456  10.423
34311SOL    HW1 4830   9.679  12.464  10.519
34311SOL    HW2 4831   9.732  12.537  10.397
34312SOL     OW 4832   0.232   9.835  13.746
34312SOL    HW1 4833   0.200   9.778  13.815
34312SOL    HW2 4834   0.225   9.924  13.782
34313SOL     OW 4835  12.040   5.734   0.480
34313SOL    HW1 4836  12.068   5.643   0.472
34313SOL    HW2 4837  12.095   5.782   0.418
34314SOL     OW 4838  13.080   6.834   4.903
34314SOL    HW1 4839  13.073   6.796   4.990
34314SOL    HW2 4840  12.993   6.869   4.886
34315SOL     OW 4841  11.932   9.127   1.990
34315SOL    HW1 4842  11.982   9.094   1.915
34315SOL    HW2 4843  11.922   9.052   2.048
34316SOL     OW 4844   8.147  11.544  10.406
34316SOL    HW1 4845   8.161  11.542  10.501
34316SOL    HW2 4846   8.137  11.452  10.381
34317SOL     OW 4847  10.996   3.891  14.158
34317SOL    HW1 4848  10.974   3.961  14.096
34317SOL    HW2 4849  11.056   3.835  14.110
34318SOL     OW 4850   5.818  13.805  13.276
34318SOL    HW1 4851   5.873  13.730  13.253
34318SOL    HW2 4852   5.881  13.877  13.289
34319SOL     OW 4853   5.169   4.204   0.118
34319SOL    HW1 4854   5.149   4.298   0.112
34319SOL    HW2 4855   5.209   4.194   0.204
34320SOL     OW 4856   9.444   2.188   4.280
34320SOL    HW1 4857   9.387   2.146   4.343
34320SOL    HW2 4858   9.519   2.130   4.272
34321SOL     OW 4859  11.419   9.253   5.592
34321SOL    HW1 4860  11.364   9.299   5.529
34321SOL    HW2 4861  11.361   9.235   5.666
34322SOL     OW 4862   5.648   9.693  10.910
34322SOL    HW1 4863   5.632   9.762  10.846
34322SOL    HW2 4864   5.614   9.728  10.992
34323SOL     OW 4865   7.968   1.181   0.240
34323SOL    HW1 4866   7.965   1.260   0.293
34323SOL    HW2 4867   7.981   1.110   0.304
34324SOL     OW 4868   1.915  13.205   9.188
34324SOL    HW1 4869   1.923  13.277   9.251
34324SOL    HW2 4870   1.848  13.234   9.126
34325SOL     OW 4871   9.662  11.240   6.081
34325SOL    HW1 4872   9.567  11.230   6.087
34325SOL    HW2 4873   9.676  11.335   6.076
34326SOL     OW 4874   2.119   6.738  12.326
34326SOL    HW1 4875   2.055   6.687  12.277
34326SOL    HW2 4876   2.189   6.676  12.347
34327SOL     OW 4877   9.549   5.103   6.820
34327SOL    HW1 4878   9.538   5.031   6.883
34327SOL    HW2 4879   9.468   5.101   6.769
34328SOL     OW 4880   2.231  10.900   3.752
34328SOL    HW1 4881   2.299  10.879   3.816
34328SOL    HW2 4882   2.185  10.975   3.790
34329SOL     OW 4883   6.028   7.825   9.343
34329SOL    HW1 4884   6.067   7.910   9.364
34329SOL    HW2 4885   6.012   7.829   9.249
34330SOL     OW 4886   0.544   4.203  10.701
34330SOL    HW1 4887   0.579   4.271  10.643
34330SOL    HW2 4888   0.465   4.242  10.738
34331SOL     OW 4889  12.551   8.599  12.957
34331SOL    HW1 4890  12.521   8.690  12.965
34331SOL    HW2 4891  12.543   8.563  13.045
34332SOL     OW 4892   9.048  11.566   9.244
34332SOL    HW1 4893   9.129  11.575   9.294
34332SOL    HW2 4894   8.982  11.609   9.298
34333SOL     OW 4895   5.639   3.214   9.960
34333SOL    HW1 4896   5.549   3.227   9.987
34333SOL    HW2 4897   5.686   3.291   9.991
34334SOL     OW 4898  13.094   5.637   9.257
34334SOL    HW1 4899  13.072   5.544   9.253
34334SOL    HW2 4900  13.013   5.680   9.283
34335SOL     OW 4901   8.551   9.579   7.954
34335SOL    HW1 4902   8.563   9.603   8.046
34335SOL    HW2 4903   8.499   9.499   7.957
34336SOL     OW 4904  10.106  12.545   1.809
34336SOL    HW1 4905  10.098  12.632   1.846
34336SOL    HW2 4906  10.037  12.541   1.742
34337SOL     OW 4907   2.687  11.186   0.902
34337SOL    HW1 4908   2.626  11.257   0.884
34337SOL    HW2 4909   2.672  11.163   0.993
34338SOL     OW 4910   5.711   9.061   5.756
34338SOL    HW1 4911   5.686   9.016   5.837
34338SOL    HW2 4912   5.652   9.024   5.690
34339SOL     OW 4913   1.551   9.139   0.873
34339SOL    HW1 4914   1.483   9.120   0.808
34339SOL    HW2 4915   1.606   9.204   0.831
34340SOL     OW 4916  10.186   7.924   2.671
34340SOL    HW1 4917  10.133   8.002   2.685
34340SOL    HW2 4918  10.124   7.856   2.644
34341SOL     OW 4919   1.030   5.314  10.453
34341SOL    HW1 4920   0.981   5.326  10.372
34341SOL    HW2 4921   1.111   5.362  10.440
34342SOL     OW 4922   9.186   2.528   0.947
34342SOL    HW1 4923   9.119   2.546   1.013
34342SOL    HW2 4924   9.242   2.606   0.948
34343SOL     OW 4925  10.438   3.236   4.818
34343SOL    HW1 4926  10.368   3.265   4.759
34343SOL    HW2 4927  10.469   3.315   4.860
34344SOL     OW 4928   6.560  12.322   6.507
34344SOL    HW1 4929   6.478  12.293   6.548
34344SOL    HW2 4930   6.623  12.253   6.529
34345SOL     OW 4931   8.446  11.220  14.385
34345SOL    HW1 4932   8.520  11.207  14.445
34345SOL    HW2 4933   8.378  11.162  14.420
34346SOL     OW 4934   0.192   8.579   7.413
34346SOL    HW1 4935   0.112   8.605   7.366
34346SOL    HW2 4936   0.212   8.492   7.379
34347SOL     OW 4937  14.415  13.574   3.219
34347SOL    HW1 4938  14.372  13.540   3.298
34347SOL    HW2 4939  14.354  13.639   3.184
34348SOL     OW 4940  13.932   2.472   7.269
34348SOL    HW1 4941  13.975   2.441   7.190
34348SOL    HW2 4942  13.902   2.392   7.313
34349SOL     OW 4943  13.684   8.824   9.157
34349SOL    HW1 4944  13.619   8.768   9.200
34349SOL    HW2 4945  13.753   8.835   9.222
34350SOL     OW 4946   9.609   9.978   4.763
34350SOL    HW1 4947   9.661  10.057   4.778
34350SOL    HW2 4948   9.556   9.968   4.842
34351SOL     OW 4949   1.647   2.139   5.336
34351SOL    HW1 4950   1.722   2.186   5.301
34351SOL    HW2 4951   1.618   2.191   5.411
34352SOL     OW 4952   7.201  13.605  13.285
34352SOL    HW1 4953   7.227  13.521  13.246
34352SOL    HW2 4954   7.106  13.606  13.278
34353SOL     OW 4955  12.832   1.303   7.061
34353SOL    HW1 4956  12.737   1.307   7.071
34353SOL    HW2 4957  12.846   1.237   6.993
34354SOL     OW 4958   6.983   7.670  11.103
34354SOL    HW1 4959   6.940   7.607  11.162
34354SOL    HW2 4960   6.964   7.756  11.142
34355SOL     OW 4961  11.710  13.687   7.303
34355SOL    HW1 4962  11.765  13.673   7.380
34355SOL    HW2 4963  11.623  13.658   7.329
34356SOL     OW 4964   3.204   5.187   5.992
34356SOL    HW1 4965   3.148   5.230   5.928
34356SOL    HW2 4966   3.208   5.247   6.067
34357SOL     OW 4967   6.154   2.238   7.832
34357SOL    HW1 4968   6.125   2.150   7.854
34357SOL    HW2 4969   6.221   2.225   7.765
34358SOL     OW 4970   0.578  11.243   4.027
34358SOL    HW1 4971   0.673  11.247   4.020
34358SOL    HW2 4972   0.553  11.173   3.967
34359SOL     OW 4973   5.745  13.577   0.583
34359SOL    HW1 4974   5.681  13.536   0.525
34359SOL    HW2 4975   5.726  13.540   0.669
34360SOL     OW 4976  10.205  10.383   1.460
34360SOL    HW1 4977  10.259  10.457   1.435
34360SOL    HW2 4978  10.191  10.334   1.379
34361SOL     OW 4979   5.154  11.739  13.545
34361SOL    HW1 4980   5.120  11.681  13.477
34361SOL    HW2 4981   5.248  11.720  13.548
34362SOL     OW 4982   0.575   3.025   4.608
34362SOL    HW1 4983   0.615   2.939   4.598
34362SOL    HW2 4984   0.497   3.009   4.662
34363SOL     OW 4985  13.439  13.192  12.223
34363SOL    HW1 4986  13.485  13.115  12.256
34363SOL    HW2 4987  13.447  13.256  12.294
34364SOL     OW 4988   3.115  11.376   0.387
34364SOL    HW1 4989   3.175  11.399   0.317
34364SOL    HW2 4990   3.058  11.452   0.396
34365SOL     OW 4991   4.157   6.745   5.169
34365SOL    HW1 4992   4.133   6.791   5.249
34365SOL    HW2 4993   4.142   6.809   5.099
34366SOL     OW 4994   7.048  12.125  11.105
34366SOL    HW1 4995   7.100  12.190  11.057
34366SOL    HW2 4996   7.114  12.073  11.151
34367SOL     OW 4997   0.132   8.997   6.915
34367SOL    HW1 4998   0.219   9.035   6.923
34367SOL    HW2 4999   0.140   8.932   6.845
34368SOL     OW 5000   3.573   8.805   7.108
34368SOL    HW1 5001   3.491   8.854   7.107
34368SOL    HW2 5002   3.631   8.856   7.164
34369SOL     OW 5003  14.450  14.437  10.726
34369SOL    HW1 5004  14.505  14.383  10.783
34369SOL    HW2 5005  14.366  14.442  10.771
34370SOL     OW 5006   6.089   5.529   9.071
34370SOL    HW1 5007   6.125   5.618   9.062
34370SOL    HW2 5008   6.076   5.519   9.165
34371SOL     OW 5009  10.678   6.594  12.778
34371SOL    HW1 5010  10.711   6.598  12.688
34371SOL    HW2 5011  10.728   6.523  12.819
34372SOL     OW 5012   1.009   5.141   7.235
34372SOL    HW1 5013   0.985   5.076   7.302
34372SOL    HW2 5014   1.090   5.180   7.268
34373SOL     OW 5015  12.144   1.199  14.389
34373SOL    HW1 5016  12.143   1.264  14.319
34373SOL    HW2 5017  12.069   1.222  14.444
34374SOL     OW 5018   4.170  11.715   7.861
34374SOL    HW1 5019   4.087  11.746   7.897
34374SOL    HW2 5020   4.226  11.793   7.858
34375SOL     OW 5021   7.221   4.677   9.183
34375SOL    HW1 5022   7.280   4.727   9.127
34375SOL    HW2 5023   7.277   4.636   9.248
34376SOL     OW 5024   8.541  11.909   2.364
34376SOL    HW1 5025   8.452  11.918   2.397
34376SOL    HW2 5026   8.597  11.930   2.439
34377SOL     OW 5027   4.349   8.819  10.394
34377SOL    HW1 5028   4.362   8.864  10.311
34377SOL    HW2 5029   4.305   8.737  10.370
34378SOL     OW 5030   3.139  13.211   6.199
34378SOL    HW1 5031   3.193  13.155   6.255
34378SOL    HW2 5032   3.100  13.151   6.136
34379SOL     OW 5033  14.537   4.219   6.948
34379SOL    HW1 5034  14.487   4.160   7.004
34379SOL    HW2 5035  14.539   4.302   6.995
34380SOL     OW 5036  11.402   9.148   2.855
34380SOL    HW1 5037  11.456   9.226   2.868
34380SOL    HW2 5038  11.448   9.079   2.902
34381SOL     OW 5039   4.752  11.607   0.812
34381SOL    HW1 5040   4.713  11.676   0.866
34381SOL    HW2 5041   4.838  11.641   0.788
34382SOL     OW 5042   8.734   8.620  12.165
34382SOL    HW1 5043   8.808   8.578  12.121
34382SOL    HW2 5044   8.726   8.706  12.122
34383SOL     OW 5045   7.916  10.047  10.279
34383SOL    HW1 5046   7.836  10.098  10.271
34383SOL    HW2 5047   7.931  10.013  10.191
34384SOL     OW 5048  13.651  14.521  11.462
34384SOL    HW1 5049  13.643  14.511  11.367
34384SOL    HW2 5050  13.565  14.498  11.496
34385SOL     OW 5051   3.910   3.421  13.078
34385SOL    HW1 5052   3.985   3.419  13.018
34385SOL    HW2 5053   3.836   3.443  13.021
34386SOL     OW 5054   0.640   6.024  12.742
34386SOL    HW1 5055   0.686   6.082  12.681
34386SOL    HW2 5056   0.644   6.069  12.826
34387SOL     OW 5057   7.176   9.672   1.868
34387SOL    HW1 5058   7.114   9.702   1.935
34387SOL    HW2 5059   7.260   9.669   1.914
34388SOL     OW 5060   2.890   1.775   5.553
34388SOL    HW1 5061   2.963   1.786   5.614
34388SOL    HW2 5062   2.924   1.803   5.468
34389SOL     OW 5063   1.024   8.485  10.896
34389SOL    HW1 5064   0.961   8.547  10.859
34389SOL    HW2 5065   1.020   8.408  10.839
34390SOL     OW 5066   6.798   1.160   3.374
34390SOL    HW1 5067   6.768   1.235   3.426
34390SOL    HW2 5068   6.879   1.132   3.417
34391SOL     OW 5069  10.505   6.985  13.110
34391SOL    HW1 5070  10.554   6.918  13.062
34391SOL    HW2 5071  10.560   7.063  13.105
34392SOL     OW 5072  14.613   2.436  14.824
34392SOL    HW1 5073  14.685   2.412   0.011
34392SOL    HW2 5074  14.645   2.512  14.775
34393SOL     OW 5075   6.530   0.067   3.043
34393SOL    HW1 5076   6.480   0.029   2.971
34393SOL    HW2 5077   6.587   0.132   3.002
34394SOL     OW 5078   9.925  11.522  12.733
34394SOL    HW1 5079   9.971  11.497  12.653
34394SOL    HW2 5080   9.833  11.499  12.717
34395SOL     OW 5081   1.822   2.488   3.574
34395SOL    HW1 5082   1.747   2.486   3.633
34395SOL    HW2 5083   1.854   2.397   3.573
34396SOL     OW 5084   0.640   6.257   8.971
34396SOL    HW1 5085   0.655   6.351   8.981
34396SOL    HW2 5086   0.728   6.220   8.961
34397SOL     OW 5087  14.837   4.292   7.033
34397SOL    HW1 5088   0.015   4.231   6.979
34397SOL    HW2 5089  14.747   4.286   7.000
34398SOL     OW 5090  13.723  12.203   2.669
34398SOL    HW1 5091  13.638  12.202   2.713
34398SOL    HW2 5092  13.750  12.295   2.673
34399SOL     OW 5093   9.406   2.163   0.570
34399SOL    HW1 5094   9.405   2.069   0.553
34399SOL    HW2 5095   9.481   2.196   0.520
34400SOL     OW 5096   9.418  11.343  14.779
34400SOL    HW1 5097   9.384  11.410  14.838
34400SOL    HW2 5098   9.340  11.299  14.745
34401SOL     OW 5099   0.936  12.426   7.088
34401SOL    HW1 5100   0.886  12.416   7.007
34401SOL    HW2 5101   1.020  12.385   7.070
34402SOL     OW 5102  10.551   5.227  14.490
34402SOL    HW1 5103  10.464   5.265  14.480
34402SOL    HW2 5104  10.611   5.294  14.458
34403SOL     OW 5105   1.574  13.180   3.432
34403SOL    HW1 5106   1.500  13.142   3.479
34403SOL    HW2 5107   1.649  13.128   3.460
34404SOL     OW 5108   4.263   7.611  14.741
34404SOL    HW1 5109   4.288   7.691  14.788
34404SOL    HW2 5110   4.212   7.561  14.804
34405SOL     OW 5111  10.535   1.442   4.804
34405SOL    HW1 5112  10.466   1.469   4.865
34405SOL    HW2 5113  10.617   1.470   4.846
34406SOL     OW 5114   7.483   5.579   2.381
34406SOL    HW1 5115   7.509   5.615   2.466
34406SOL    HW2 5116   7.418   5.641   2.349
34407SOL     OW 5117  13.983   1.400   5.838
34407SOL    HW1 5118  13.996   1.426   5.929
34407SOL    HW2 5119  13.912   1.456   5.806
34408SOL     OW 5120  13.856   7.320  14.725
34408SOL    HW1 5121  13.803   7.241  14.726
34408SOL    HW2 5122  13.923   7.304  14.658
34409SOL     OW 5123   5.268   3.566   0.316
34409SOL    HW1 5124   5.311   3.489   0.353
34409SOL    HW2 5125   5.290   3.564   0.223
34410SOL     OW 5126  10.953  11.323  12.704
34410SOL    HW1 5127  11.039  11.300  12.669
34410SOL    HW2 5128  10.924  11.396  12.650
34411SOL     OW 5129   0.007   9.358   9.051
34411SOL    HW1 5130  14.798   9.408   9.034
34411SOL    HW2 5131  14.867   9.324   9.140
34412SOL     OW 5132  13.057   1.507  10.228
34412SOL    HW1 5133  13.049   1.556  10.146
34412SOL    HW2 5134  12.967   1.484  10.251
34413SOL     OW 5135   7.394   2.302  11.838
34413SOL    HW1 5136   7.304   2.311  11.869
34413SOL    HW2 5137   7.408   2.376  11.780
34414SOL     OW 5138  10.084   5.783   1.869
34414SOL    HW1 5139  10.127   5.834   1.938
34414SOL    HW2 5140  10.153   5.729   1.832
34415SOL     OW 5141   2.822   5.417  12.457
34415SOL    HW1 5142   2.804   5.339  12.510
34415SOL    HW2 5143   2.857   5.383  12.375
34416SOL     OW 5144   8.697  10.588   3.945
34416SOL    HW1 5145   8.695  10.658   3.880
34416SOL    HW2 5146   8.769  10.532   3.918
34417SOL     OW 5147   3.128   5.864   6.361
34417SOL    HW1 5148   3.072   5.910   6.423
34417SOL    HW2 5149   3.203   5.923   6.347
34418SOL     OW 5150   4.068   0.110   1.209
34418SOL    HW1 5151   4.122   0.121   1.131
34418SOL    HW2 5152   4.084   0.020   1.237
34419SOL     OW 5153   5.203   3.841   8.791
34419SOL    HW1 5154   5.217   3.861   8.883
34419SOL    HW2 5155   5.168   3.922   8.753
34420SOL     OW 5156   2.558   6.883  11.283
34420SOL    HW1 5157   2.571   6.852  11.373
34420SOL    HW2 5158   2.623   6.952  11.272
34421SOL     OW 5159  11.439   7.559  12.574
34421SOL    HW1 5160  11.529   7.575  12.546
34421SOL    HW2 5161  11.386   7.583  12.498
34422SOL     OW 5162   0.463   3.100   6.873
34422SOL    HW1 5163   0.439   3.007   6.876
34422SOL    HW2 5164   0.409   3.137   6.803
34423SOL     OW 5165   2.565  11.070   9.622
34423SOL    HW1 5166   2.517  11.131   9.678
34423SOL    HW2 5167   2.657  11.088   9.642
34424SOL     OW 5168   7.925   7.424   9.431
34424SOL    HW1 5169   7.952   7.332   9.433
34424SOL    HW2 5170   7.858   7.427   9.363
34425SOL     OW 5171   4.710   7.281   7.400
34425SOL    HW1 5172   4.715   7.218   7.472
34425SOL    HW2 5173   4.796   7.324   7.401
34426SOL     OW 5174  13.756  12.660   1.355
34426SOL    HW1 5175  13.843  12.698   1.347
34426SOL    HW2 5176  13.764  12.573   1.315
34427SOL     OW 5177   1.931  11.759   1.099
34427SOL    HW1 5178   1.933  11.854   1.092
34427SOL    HW2 5179   1.841  11.735   1.075
34428SOL     OW 5180   5.143   7.339  11.160
34428SOL    HW1 5181   5.129   7.406  11.228
34428SOL    HW2 5182   5.234   7.312  11.172
34429SOL     OW 5183  13.315  14.640   3.648
34429SOL    HW1 5184  13.228  14.628   3.610
34429SOL    HW2 5185  13.309  14.719   3.701
34430SOL     OW 5186  13.106   5.973   5.995
34430SOL    HW1 5187  13.109   5.939   6.085
34430SOL    HW2 5188  13.197   5.971   5.966
34431SOL     OW 5189  12.409   6.803   9.284
34431SOL    HW1 5190  12.315   6.790   9.274
34431SOL    HW2 5191  12.418   6.845   9.369
34432SOL     OW 5192   3.067  11.481  10.976
34432SOL    HW1 5193   3.115  11.424  10.916
34432SOL    HW2 5194   2.989  11.507  10.927
34433SOL     OW 5195  12.078  11.058   1.329
34433SOL    HW1 5196  12.133  11.127   1.292
34433SOL    HW2 5197  12.053  11.090   1.415
34434SOL     OW 5198   1.174  13.248  11.822
34434SOL    HW1 5199   1.257  13.293  11.835
34434SOL    HW2 5200   1.136  13.289  11.745
34435SOL     OW 5201  13.672  13.520  13.972
34435SOL    HW1 5202  13.597  13.579  13.965
34435SOL    HW2 5203  13.690  13.494  13.881
34436SOL     OW 5204   6.246   5.854  13.193
34436SOL    HW1 5205   6.317   5.870  13.131
34436SOL    HW2 5206   6.208   5.771  13.166
34437SOL     OW 5207  11.607   5.307  11.398
34437SOL    HW1 5208  11.612   5.391  11.352
34437SOL    HW2 5209  11.539   5.258  11.353
34438SOL     OW 5210   3.084   6.722  13.612
34438SOL    HW1 5211   3.034   6.794  13.652
34438SOL    HW2 5212   3.122   6.761  13.533
34439SOL     OW 5213   3.832  14.037   9.694
34439SOL    HW1 5214   3.772  13.972   9.730
34439SOL    HW2 5215   3.812  14.041   9.601
34440SOL     OW 5216   3.342   4.179  12.539
34440SOL    HW1 5217   3.331   4.200  12.631
34440SOL    HW2 5218   3.363   4.085  12.538
34441SOL     OW 5219   4.347  14.844  12.386
34441SOL    HW1 5220   4.375  14.790  12.312
34441SOL    HW2 5221   4.276   0.026  12.351
34442SOL     OW 5222   1.817  10.022  10.246
34442SOL    HW1 5223   1.767  10.018  10.328
34442SOL    HW2 5224   1.816   9.933  10.213
34443SOL     OW 5225  10.919   4.029  13.905
34443SOL    HW1 5226  10.946   4.098  13.845
34443SOL    HW2 5227  10.984   3.960  13.893
34444SOL     OW 5228   0.843   0.631   1.403
34444SOL    HW1 5229   0.891   0.603   1.480
34444SOL    HW2 5230   0.821   0.549   1.357
34445SOL     OW 5231   1.522  12.655   1.904
34445SOL    HW1 5232   1.530  12.750   1.900
34445SOL    HW2 5233   1.439  12.636   1.860
34446SOL     OW 5234   5.237   8.849   1.132
34446SOL    HW1 5235   5.280   8.920   1.085
34446SOL    HW2 5236   5.298   8.828   1.203
34447SOL     OW 5237   5.212  10.310  12.626
34447SOL    HW1 5238   5.270  10.234  12.634
34447SOL    HW2 5239   5.147  10.299  12.695
34448SOL     OW 5240   2.960   0.161   5.076
34448SOL    HW1 5241   2.930   0.073   5.100
34448SOL    HW2 5242   3.033   0.146   5.015
34449SOL     OW 5243   5.876   4.816   7.714
34449SOL    HW1 5244   5.786   4.846   7.700
34449SOL    HW2 5245   5.881   4.799   7.808
34450SOL     OW 5246  11.976   7.531  11.755
34450SOL    HW1 5247  12.062   7.520  11.796
34450SOL    HW2 5248  11.995   7.543  11.662
34451SOL     OW 5249   5.788  13.723   4.732
34451SOL    HW1 5250   5.733  13.777   4.789
34451SOL    HW2 5251   5.786  13.768   4.648
34452SOL     OW 5252  12.346  11.394   1.032
34452SOL    HW1 5253  12.282  11.326   1.054
34452SOL    HW2 5254  12.308  11.440   0.957
34453SOL     OW 5255  13.407   5.249  10.269
34453SOL    HW1 5256  13.347   5.324  10.268
34453SOL    HW2 5257  13.438   5.244  10.359
34454SOL     OW 5258  11.395   0.288  10.213
34454SOL    HW1 5259  11.366   0.197  10.204
34454SOL    HW2 5260  11.489   0.284  10.199
34455SOL     OW 5261   2.389  10.847   0.273
34455SOL    HW1 5262   2.415  10.925   0.323
34455SOL    HW2 5263   2.444  10.848   0.195
34456SOL     OW 5264  13.326   0.074   2.947
34456SOL    HW1 5265  13.239   0.105   2.972
34456SOL    HW2 5266  13.315  14.851   2.935
34457SOL     OW 5267   7.241  12.532   5.680
34457SOL    HW1 5268   7.316  12.589   5.664
34457SOL    HW2 5269   7.267  12.447   5.645
34458SOL     OW 5270   4.569  10.202  12.822
34458SOL    HW1 5271   4.503  10.223  12.755
34458SOL    HW2 5272   4.525  10.139  12.879
34459SOL     OW 5273  14.461   8.005   0.126
34459SOL    HW1 5274  14.487   8.086   0.081
34459SOL    HW2 5275  14.466   8.028   0.219
34460SOL     OW 5276   0.020  11.551   2.784
34460SOL    HW1 5277   0.101  11.548   2.733
34460SOL    HW2 5278  14.866  11.643   2.784
34461SOL     OW 5279   6.334   7.892  11.212
34461SOL    HW1 5280   6.427   7.910  11.198
34461SOL    HW2 5281   6.288   7.963  11.167
34462SOL     OW 5282   6.862  13.177   7.925
34462SOL    HW1 5283   6.793  13.161   7.861
34462SOL    HW2 5284   6.939  13.134   7.888
34463SOL     OW 5285   7.949   8.537  12.969
34463SOL    HW1 5286   8.000   8.561  13.047
34463SOL    HW2 5287   7.864   8.579  12.982
34464SOL     OW 5288   6.756   0.900  10.554
34464SOL    HW1 5289   6.679   0.913  10.609
34464SOL    HW2 5290   6.826   0.947  10.599
34465SOL     OW 5291   0.910   3.106   3.060
34465SOL    HW1 5292   0.994   3.106   3.106
34465SOL    HW2 5293   0.847   3.136   3.126
34466SOL     OW 5294  10.364   7.022   8.719
34466SOL    HW1 5295  10.336   6.930   8.718
34466SOL    HW2 5296  10.333   7.055   8.803
34467SOL     OW 5297   1.411  11.876   3.547
34467SOL    HW1 5298   1.465  11.797   3.559
34467SOL    HW2 5299   1.438  11.911   3.462
34468SOL     OW 5300  14.860   8.684   5.334
34468SOL    HW1 5301  14.797   8.732   5.387
34468SOL    HW2 5302  14.806   8.631   5.275
34469SOL     OW 5303  10.781   9.595  11.555
34469SOL    HW1 5304  10.687   9.609  11.552
34469SOL    HW2 5305  10.808   9.629  11.640
34470SOL     OW 5306  10.263   2.646   3.705
34470SOL    HW1 5307  10.334   2.582   3.716
34470SOL    HW2 5308  10.307   2.731   3.704
34471SOL     OW 5309   8.838   7.267   1.997
34471SOL    HW1 5310   8.787   7.337   1.955
34471SOL    HW2 5311   8.923   7.270   1.953
34472SOL     OW 5312   4.030  12.901  13.783
34472SOL    HW1 5313   4.120  12.873  13.762
34472SOL    HW2 5314   4.035  12.929  13.874
34473SOL     OW 5315   1.808   7.845  12.967
34473SOL    HW1 5316   1.739   7.784  12.939
34473SOL    HW2 5317   1.889   7.795  12.955
34474SOL     OW 5318  11.753   6.032  14.272
34474SOL    HW1 5319  11.667   5.990  14.260
34474SOL    HW2 5320  11.771   6.074  14.188
34475SOL     OW 5321   2.067  13.354  11.834
34475SOL    HW1 5322   2.102  13.298  11.765
34475SOL    HW2 5323   2.135  13.420  11.847
34476SOL     OW 5324   3.503  11.297   3.029
34476SOL    HW1 5325   3.492  11.385   3.065
34476SOL    HW2 5326   3.503  11.240   3.106
34477SOL     OW 5327   9.203   7.118   8.906
34477SOL    HW1 5328   9.210   7.213   8.910
34477SOL    HW2 5329   9.156   7.101   8.824
34478SOL     OW 5330  13.823   5.977  11.861
34478SOL    HW1 5331  13.902   5.929  11.836
34478SOL    HW2 5332  13.854   6.065  11.883
34479SOL     OW 5333   3.217  12.408   4.849
34479SOL    HW1 5334   3.253  12.469   4.913
34479SOL    HW2 5335   3.147  12.456   4.805
34480SOL     OW 5336   7.681  13.744   1.073
34480SOL    HW1 5337   7.688  13.669   1.014
34480SOL    HW2 5338   7.630  13.711   1.148
34481SOL     OW 5339   9.158   0.281   7.760
34481SOL    HW1 5340   9.222   0.211   7.770
34481SOL    HW2 5341   9.191   0.334   7.688
34482SOL     OW 5342  14.226  11.296   0.302
34482SOL    HW1 5343  14.228  11.369   0.364
34482SOL    HW2 5344  14.313  11.294   0.264
34483SOL     OW 5345   8.102   4.121   9.978
34483SOL    HW1 5346   8.148   4.192   9.933
34483SOL    HW2 5347   8.170   4.056   9.995
34484SOL     OW 5348   0.602   6.036   0.718
34484SOL    HW1 5349   0.627   5.952   0.757
34484SOL    HW2 5350   0.552   6.080   0.788
34485SOL     OW 5351   0.697   7.327   1.578
34485SOL    HW1 5352   0.690   7.232   1.567
34485SOL    HW2 5353   0.740   7.358   1.498
34486SOL     OW 5354  12.385  12.266   1.390
34486SOL    HW1 5355  12.377  12.200   1.459
34486SOL    HW2 5356  12.429  12.339   1.433
34487SOL     OW 5357   9.846   3.893  12.678
34487SOL    HW1 5358   9.755   3.917  12.660
34487SOL    HW2 5359   9.884   3.972  12.718
34488SOL     OW 5360   7.742   1.450  12.312
34488SOL    HW1 5361   7.684   1.502  12.368
34488SOL    HW2 5362   7.798   1.514  12.270
34489SOL     OW 5363   9.714  10.953   7.493
34489SOL    HW1 5364   9.675  11.018   7.551
34489SOL    HW2 5365   9.800  10.934   7.532
34490SOL     OW 5366   1.206  13.072   6.833
34490SOL    HW1 5367   1.244  12.999   6.881
34490SOL    HW2 5368   1.121  13.039   6.804
34491SOL     OW 5369  14.207   6.911   2.945
34491SOL    HW1 5370  14.204   6.991   2.893
34491SOL    HW2 5371  14.284   6.922   3.002
34492SOL     OW 5372   7.921   6.901   7.436
34492SOL    HW1 5373   7.879   6.879   7.352
34492SOL    HW2 5374   7.894   6.832   7.495
34493SOL     OW 5375   9.282   4.231  14.792
34493SOL    HW1 5376   9.299   4.186   0.004
34493SOL    HW2 5377   9.291   4.162  14.726
34494SOL     OW 5378   4.636   9.164  12.654
34494SOL    HW1 5379   4.730   9.180  12.660
34494SOL    HW2 5380   4.628   9.099  12.583
34495SOL     OW 5381   3.991   4.306   9.873
34495SOL    HW1 5382   4.067   4.267   9.916
34495SOL    HW2 5383   3.946   4.232   9.833
34496SOL     OW 5384  10.419   5.452   5.617
34496SOL    HW1 5385  10.383   5.363   5.621
34496SOL    HW2 5386  10.354   5.506   5.662
34497SOL     OW 5387  10.156  12.793   3.651
34497SOL    HW1 5388  10.162  12.820   3.742
34497SOL    HW2 5389  10.062  12.779   3.636
34498SOL     OW 5390  13.251  10.908  13.298
34498SOL    HW1 5391  13.292  10.821  13.295
34498SOL    HW2 5392  13.249  10.936  13.206
34499SOL     OW 5393   7.501   6.388   8.012
34499SOL    HW1 5394   7.573   6.398   8.075
34499SOL    HW2 5395   7.485   6.294   8.009
34500SOL     OW 5396   8.272   4.395   2.736
34500SOL    HW1 5397   8.314   4.478   2.759
34500SOL    HW2 5398   8.210   4.378   2.807
34501SOL     OW 5399   7.030   0.965   7.410
34501SOL    HW1 5400   7.077   0.910   7.472
34501SOL    HW2 5401   6.940   0.932   7.412
34502SOL     OW 5402   4.525   7.508   1.642
34502SOL    HW1 5403   4.563   7.586   1.602
34502SOL    HW2 5404   4.431   7.524   1.642
34503SOL     OW 5405  13.263  11.798   7.257
34503SOL    HW1 5406  13.236  11.709   7.280
34503SOL    HW2 5407  13.197  11.827   7.195
34504SOL     OW 5408   2.033  13.169  14.848
34504SOL    HW1 5409   2.078  13.142  14.767
34504SOL    HW2 5410   2.012  13.261  14.834
34505SOL     OW 5411   8.241  11.263   8.774
34505SOL    HW1 5412   8.147  11.246   8.770
34505SOL    HW2 5413   8.259  11.275   8.868
34506SOL     OW 5414  13.634  10.785  13.272
34506SOL    HW1 5415  13.587  10.864  13.247
34506SOL    HW2 5416  13.650  10.739  13.190
34507SOL     OW 5417  11.146   7.477   3.545
34507SOL    HW1 5418  11.085   7.539   3.585
34507SOL    HW2 5419  11.204   7.532   3.492
34508SOL     OW 5420   1.624   4.487   0.390
34508SOL    HW1 5421   1.683   4.415   0.368
34508SOL    HW2 5422   1.546   4.445   0.424
34509SOL     OW 5423  13.061   5.162   8.558
34509SOL    HW1 5424  13.125   5.233   8.563
34509SOL    HW2 5425  12.977   5.207   8.550
34510SOL     OW 5426   8.037   8.640   1.200
34510SOL    HW1 5427   8.101   8.673   1.136
34510SOL    HW2 5428   7.965   8.607   1.146
34511SOL     OW 5429   3.725   6.113   6.816
34511SOL    HW1 5430   3.742   6.202   6.786
34511SOL    HW2 5431   3.662   6.078   6.754
34512SOL     OW 5432  10.524   9.646  14.376
34512SOL    HW1 5433  10.455   9.616  14.317
34512SOL    HW2 5434  10.537   9.574  14.438
34513SOL     OW 5435  13.612   9.619   1.731
34513SOL    HW1 5436  13.632   9.711   1.717
34513SOL    HW2 5437  13.675   9.572   1.677
34514SOL     OW 5438   8.177   7.142   0.353
34514SOL    HW1 5439   8.229   7.083   0.298
34514SOL    HW2 5440   8.236   7.214   0.374
34515SOL     OW 5441   7.621   3.749   1.413
34515SOL    HW1 5442   7.680   3.799   1.469
34515SOL    HW2 5443   7.574   3.816   1.362
34516SOL     OW 5444  11.061   9.077  14.150
34516SOL    HW1 5445  11.055   9.053  14.057
34516SOL    HW2 5446  10.973   9.104  14.174
34517SOL     OW 5447  11.770   2.842   9.755
34517SOL    HW1 5448  11.766   2.758   9.800
34517SOL    HW2 5449  11.717   2.829   9.676
34518SOL     OW 5450   0.317  13.285   1.568
34518SOL    HW1 5451   0.273  13.351   1.515
34518SOL    HW2 5452   0.332  13.328   1.652
34519SOL     OW 5453   0.087   1.057  12.392
34519SOL    HW1 5454   0.011   1.000  12.381
34519SOL    HW2 5455   0.071   1.130  12.332
34520SOL     OW 5456   5.497   2.199   7.724
34520SOL    HW1 5457   5.586   2.202   7.688
34520SOL    HW2 5458   5.460   2.285   7.704
34521SOL     OW 5459   7.124   5.659  11.873
34521SOL    HW1 5460   7.215   5.657  11.901
34521SOL    HW2 5461   7.125   5.713  11.793
34522SOL     OW 5462  13.530   7.436   2.753
34522SOL    HW1 5463  13.460   7.437   2.688
34522SOL    HW2 5464  13.603   7.480   2.710
34523SOL     OW 5465  12.041  10.945   7.124
34523SOL    HW1 5466  12.032  10.971   7.033
34523SOL    HW2 5467  11.994  11.012   7.173
34524SOL     OW 5468   5.956  10.467   9.749
34524SOL    HW1 5469   5.969  10.439   9.839
34524SOL    HW2 5470   6.044  10.481   9.715
34525SOL     OW 5471   0.547   4.237   4.991
34525SOL    HW1 5472   0.529   4.282   4.908
34525SOL    HW2 5473   0.566   4.147   4.965
34526SOL     OW 5474   7.716  13.811  13.320
34526SOL    HW1 5475   7.737  13.736  13.376
34526SOL    HW2 5476   7.625  13.831  13.341
34527SOL     OW 5477   5.189   4.166   3.209
34527SOL    HW1 5478   5.221   4.112   3.136
34527SOL    HW2 5479   5.183   4.106   3.283
34528SOL     OW 5480   4.040   1.172   3.481
34528SOL    HW1 5481   4.013   1.145   3.569
34528SOL    HW2 5482   4.130   1.202   3.493
34529SOL     OW 5483   3.040   5.422   7.574
34529SOL    HW1 5484   3.131   5.433   7.600
34529SOL    HW2 5485   3.035   5.461   7.486
34530SOL     OW 5486  12.643  13.361  12.484
34530SOL    HW1 5487  12.612  13.284  12.436
34530SOL    HW2 5488  12.589  13.365  12.562
34531SOL     OW 5489   5.091  14.256   3.405
34531SOL    HW1 5490   5.135  14.321   3.459
34531SOL    HW2 5491   5.000  14.256   3.436
34532SOL     OW 5492   2.985   5.674  13.241
34532SOL    HW1 5493   2.975   5.671  13.337
34532SOL    HW2 5494   3.078   5.659  13.226
34533SOL     OW 5495   7.408  14.176  14.053
34533SOL    HW1 5496   7.500  14.152  14.067
34533SOL    HW2 5497   7.362  14.092  14.048
34534SOL     OW 5498   6.171   2.056   0.529
34534SOL    HW1 5499   6.148   2.110   0.605
34534SOL    HW2 5500   6.181   2.117   0.457
34535SOL     OW 5501   4.778  14.479  11.359
34535SOL    HW1 5502   4.783  14.505  11.267
34535SOL    HW2 5503   4.788  14.383  11.358
34536SOL     OW 5504   1.299  12.746   8.388
34536SOL    HW1 5505   1.233  12.811   8.365
34536SOL    HW2 5506   1.354  12.789   8.454
34537SOL     OW 5507  13.623  12.060  12.130
34537SOL    HW1 5508  13.688  12.089  12.194
34537SOL    HW2 5509  13.671  11.999  12.074
34538SOL     OW 5510   7.618   9.642   5.758
34538SOL    HW1 5511   7.598   9.550   5.772
34538SOL    HW2 5512   7.537   9.688   5.783
34539SOL     OW 5513   1.722   4.282   5.665
34539SOL    HW1 5514   1.645   4.271   5.720
34539SOL    HW2 5515   1.795   4.256   5.721
34540SOL     OW 5516   7.882   2.273   2.515
34540SOL    HW1 5517   7.810   2.244   2.571
34540SOL    HW2 5518   7.960   2.237   2.556
34541SOL     OW 5519   4.516   8.831  14.099
34541SOL    HW1 5520   4.596   8.874  14.128
34541SOL    HW2 5521   4.460   8.829  14.176
34542SOL     OW 5522  11.049   9.902   1.629
34542SOL    HW1 5523  10.957   9.914   1.655
34542SOL    HW2 5524  11.083   9.837   1.690
34543SOL     OW 5525  10.519   3.801   5.767
34543SOL    HW1 5526  10.514   3.778   5.860
34543SOL    HW2 5527  10.606   3.840   5.757
34544SOL     OW 5528  12.046   4.719  11.316
34544SOL    HW1 5529  12.139   4.704  11.303
34544SOL    HW2 5530  12.019   4.653  11.380
34545SOL     OW 5531   0.970   7.493   1.895
34545SOL    HW1 5532   0.892   7.439   1.892
34545SOL    HW2 5533   1.030   7.452   1.833
34546SOL     OW 5534   7.975  14.654   3.232
34546SOL    HW1 5535   8.036  14.648   3.306
34546SOL    HW2 5536   7.966  14.564   3.201
34547SOL     OW 5537   7.652   7.220   9.647
34547SOL    HW1 5538   7.660   7.307   9.608
34547SOL    HW2 5539   7.618   7.236   9.735
34548SOL     OW 5540  10.947  10.793   4.718
34548SOL    HW1 5541  10.981  10.882   4.718
34548SOL    HW2 5542  10.902  10.783   4.634
34549SOL     OW 5543   5.925   5.947  13.481
34549SOL    HW1 5544   5.860   5.974  13.417
34549SOL    HW2 5545   5.979   6.025  13.494
34550SOL     OW 5546   8.565   5.802   7.930
34550SOL    HW1 5547   8.505   5.766   7.994
34550SOL    HW2 5548   8.527   5.886   7.905
34551SOL     OW 5549  10.078   7.349   0.325
34551SOL    HW1 5550  10.060   7.349   0.419
34551SOL    HW2 5551  10.057   7.260   0.296
34552SOL     OW 5552   4.689   2.256  13.728
34552SOL    HW1 5553   4.656   2.272  13.639
34552SOL    HW2 5554   4.709   2.342  13.763
34553SOL     OW 5555   9.892   6.374  13.924
34553SOL    HW1 5556   9.986   6.364  13.938
34553SOL    HW2 5557   9.861   6.286  13.905
34554SOL     OW 5558   7.229   9.146   4.601
34554SOL    HW1 5559   7.164   9.208   4.569
34554SOL    HW2 5560   7.257   9.182   4.685
34555SOL     OW 5561  12.203   5.984   0.678
34555SOL    HW1 5562  12.138   5.953   0.741
34555SOL    HW2 5563  12.188   5.930   0.600
34556SOL     OW 5564  10.801   9.799   4.150
34556SOL    HW1 5565  10.807   9.849   4.069
34556SOL    HW2 5566  10.892   9.787   4.178
34557SOL     OW 5567   6.995   0.134  10.751
34557SOL    HW1 5568   6.948   0.065  10.797
34557SOL    HW2 5569   7.081   0.097  10.733
34558SOL     OW 5570   5.086   0.446   4.783
34558SOL    HW1 5571   5.000   0.405   4.772
34558SOL    HW2 5572   5.102   0.492   4.700
34559SOL     OW 5573   1.059  12.259   2.709
34559SOL    HW1 5574   1.011  12.244   2.791
34559SOL    HW2 5575   1.139  12.305   2.736
34560SOL     OW 5576   0.682   5.160  12.084
34560SOL    HW1 5577   0.694   5.211  12.004
34560SOL    HW2 5578   0.768   5.124  12.104
34561SOL     OW 5579   6.465   5.864   1.392
34561SOL    HW1 5580   6.500   5.876   1.480
34561SOL    HW2 5581   6.394   5.800   1.402
34562SOL     OW 5582   7.798   0.088   1.123
34562SOL    HW1 5583   7.763   0.130   1.044
34562SOL    HW2 5584   7.830   0.003   1.093
34563SOL     OW 5585  13.005   1.189  10.530
34563SOL    HW1 5586  13.069   1.134  10.484
34563SOL    HW2 5587  13.056   1.261  10.567
34564SOL     OW 5588   2.246  11.611   6.231
34564SOL    HW1 5589   2.298  11.594   6.152
34564SOL    HW2 5590   2.308  11.603   6.303
34565SOL     OW 5591   7.200   2.198   3.234
34565SOL    HW1 5592   7.177   2.279   3.188
34565SOL    HW2 5593   7.205   2.224   3.326
34566SOL     OW 5594   6.029   6.643   1.594
34566SOL    HW1 5595   6.082   6.564   1.602
34566SOL    HW2 5596   5.988   6.637   1.508
34567SOL     OW 5597   9.723   7.960   1.601
34567SOL    HW1 5598   9.786   7.909   1.650
34567SOL    HW2 5599   9.776   8.012   1.540
34568SOL     OW 5600   2.049   3.995   0.309
34568SOL    HW1 5601   2.093   4.061   0.256
34568SOL    HW2 5602   2.055   4.027   0.399
34569SOL     OW 5603   6.172   9.984  13.183
34569SOL    HW1 5604   6.258  10.002  13.146
34569SOL    HW2 5605   6.123  10.065  13.171
34570SOL     OW 5606  10.860   7.503   4.124
34570SOL    HW1 5607  10.800   7.576   4.109
34570SOL    HW2 5608  10.947   7.544   4.130
34571SOL     OW 5609   5.149   5.214   2.094
34571SOL    HW1 5610   5.211   5.145   2.069
34571SOL    HW2 5611   5.103   5.235   2.013
34572SOL     OW 5612  12.215   3.630   8.783
34572SOL    HW1 5613  12.168   3.567   8.838
34572SOL    HW2 5614  12.218   3.588   8.697
34573SOL     OW 5615   0.324   6.720   9.455
34573SOL    HW1 5616   0.331   6.809   9.421
34573SOL    HW2 5617   0.295   6.732   9.546
34574SOL     OW 5618   5.893   5.841  14.441
34574SOL    HW1 5619   5.949   5.779  14.486
34574SOL    HW2 5620   5.929   5.846  14.352
34575SOL     OW 5621   0.429   4.118   3.770
34575SOL    HW1 5622   0.476   4.049   3.722
34575SOL    HW2 5623   0.359   4.145   3.710
34576SOL     OW 5624   4.518   7.836   2.203
34576SOL    HW1 5625   4.503   7.858   2.295
34576SOL    HW2 5626   4.580   7.764   2.205
34577SOL     OW 5627  12.961   2.022   3.283
34577SOL    HW1 5628  12.972   1.965   3.359
34577SOL    HW2 5629  12.921   2.102   3.319
34578SOL     OW 5630   2.389   3.525   8.049
34578SOL    HW1 5631   2.376   3.567   7.963
34578SOL    HW2 5632   2.418   3.596   8.106
34579SOL     OW 5633  13.791  13.256  13.340
34579SOL    HW1 5634  13.823  13.171  13.308
34579SOL    HW2 5635  13.802  13.251  13.435
34580SOL     OW 5636  10.648   2.048   1.269
34580SOL    HW1 5637  10.739   2.066   1.245
34580SOL    HW2 5638  10.641   2.074   1.361
34581SOL     OW 5639   5.187   6.262   2.248
34581SOL    HW1 5640   5.230   6.181   2.275
34581SOL    HW2 5641   5.214   6.327   2.313
34582SOL     OW 5642   4.873  11.365   1.222
34582SOL    HW1 5643   4.806  11.423   1.185
34582SOL    HW2 5644   4.836  11.335   1.305
34583SOL     OW 5645  11.934  12.943   0.561
34583SOL    HW1 5646  11.918  12.981   0.475
34583SOL    HW2 5647  12.028  12.924   0.561
34584SOL     OW 5648   9.351  11.201   5.905
34584SOL    HW1 5649   9.276  11.236   5.856
34584SOL    HW2 5650   9.352  11.251   5.987
34585SOL     OW 5651   4.797   4.915   5.698
34585SOL    HW1 5652   4.743   4.966   5.760
34585SOL    HW2 5653   4.881   4.961   5.696
34586SOL     OW 5654   7.717   3.821   8.482
34586SOL    HW1 5655   7.783   3.765   8.442
34586SOL    HW2 5656   7.648   3.761   8.510
34587SOL     OW 5657   3.152   9.416  14.116
34587SOL    HW1 5658   3.157   9.510  14.101
34587SOL    HW2 5659   3.153   9.377  14.029
34588SOL     OW 5660   9.144   8.168  12.866
34588SOL    HW1 5661   9.149   8.189  12.773
34588SOL    HW2 5662   9.224   8.120  12.885
34589SOL     OW 5663   0.052   8.120  11.639
34589SOL    HW1 5664   0.112   8.161  11.702
34589SOL    HW2 5665   0.081   8.029  11.635
34590SOL     OW 5666   4.525   5.692   8.707
34590SOL    HW1 5667   4.583   5.731   8.641
34590SOL    HW2 5668   4.480   5.767   8.746
34591SOL     OW 5669   3.791  14.605   2.418
34591SOL    HW1 5670   3.839  14.526   2.445
34591SOL    HW2 5671   3.712  14.572   2.376
34592SOL     OW 5672   4.428   5.985   8.490
34592SOL    HW1 5673   4.477   6.059   8.455
34592SOL    HW2 5674   4.495   5.917   8.503
34593SOL     OW 5675   7.912   6.772   2.203
34593SOL    HW1 5676   7.995   6.728   2.186
34593SOL    HW2 5677   7.869   6.718   2.269
34594SOL     OW 5678  12.014   7.456   4.447
34594SOL    HW1 5679  12.110   7.462   4.453
34594SOL    HW2 5680  11.997   7.367   4.418
34595SOL     OW 5681   1.914  13.848   3.526
34595SOL    HW1 5682   1.838  13.905   3.537
34595SOL    HW2 5683   1.915  13.827   3.433
34596SOL     OW 5684   2.755   4.592  14.274
34596SOL    HW1 5685   2.817   4.641  14.329
34596SOL    HW2 5686   2.786   4.608  14.185
34597SOL     OW 5687   9.137  14.208  14.304
34597SOL    HW1 5688   9.058  14.202  14.357
34597SOL    HW2 5689   9.105  14.226  14.215
34598SOL     OW 5690   5.151  12.384   5.833
34598SOL    HW1 5691   5.207  12.448   5.789
34598SOL    HW2 5692   5.112  12.433   5.906
34599SOL     OW 5693  14.676   8.214   1.838
34599SOL    HW1 5694  14.736   8.178   1.773
34599SOL    HW2 5695  14.681   8.154   1.912
34600SOL     OW 5696   4.514   0.578   2.284
34600SOL    HW1 5697   4.527   0.553   2.192
34600SOL    HW2 5698   4.585   0.535   2.331
34601SOL     OW 5699   6.957   4.552   2.124
34601SOL    HW1 5700   6.992   4.482   2.068
34601SOL    HW2 5701   6.865   4.559   2.099
34602SOL     OW 5702   9.416   3.120   3.237
34602SOL    HW1 5703   9.458   3.198   3.274
34602SOL    HW2 5704   9.490   3.064   3.212
34603SOL     OW 5705   3.049  10.644   9.644
34603SOL    HW1 5706   3.065  10.728   9.688
34603SOL    HW2 5707   3.025  10.669   9.555
34604SOL     OW 5708   1.316   4.142   5.878
34604SOL    HW1 5709   1.410   4.160   5.887
34604SOL    HW2 5710   1.290   4.106   5.963
34605SOL     OW 5711   3.837   6.770  12.200
34605SOL    HW1 5712   3.773   6.714  12.244
34605SOL    HW2 5713   3.826   6.751  12.107
34606SOL     OW 5714   2.363  10.980   3.026
34606SOL    HW1 5715   2.272  10.999   3.004
34606SOL    HW2 5716   2.409  10.979   2.942
34607SOL     OW 5717   9.525   2.904   7.518
34607SOL    HW1 5718   9.434   2.929   7.502
34607SOL    HW2 5719   9.543   2.835   7.454
34608SOL     OW 5720   6.779   4.825  14.619
34608SOL    HW1 5721   6.803   4.849  14.530
34608SOL    HW2 5722   6.843   4.870  14.674
34609SOL     OW 5723   0.257   0.784   9.794
34609SOL    HW1 5724   0.260   0.870   9.752
34609SOL    HW2 5725   0.308   0.727   9.737
34610SOL     OW 5726   9.566   4.073   5.084
34610SOL    HW1 5727   9.598   4.156   5.120
34610SOL    HW2 5728   9.471   4.077   5.093
34611SOL     OW 5729   1.164  11.230   1.373
34611SOL    HW1 5730   1.122  11.301   1.325
34611SOL    HW2 5731   1.103  11.157   1.366
34612SOL     OW 5732   3.965  14.455  10.930
34612SOL    HW1 5733   4.017  14.534  10.943
34612SOL    HW2 5734   3.905  14.478  10.858
34613SOL     OW 5735   4.848  13.317  10.048
34613SOL    HW1 5736   4.911  13.352   9.986
34613SOL    HW2 5737   4.796  13.392  10.075
34614SOL     OW 5738   6.430   2.413   2.394
34614SOL    HW1 5739   6.493   2.483   2.381
34614SOL    HW2 5740   6.356   2.454   2.438
34615SOL     OW 5741   0.565   5.917   9.113
34615SOL    HW1 5742   0.526   5.932   9.199
34615SOL    HW2 5743   0.512   5.968   9.053
34616SOL     OW 5744   2.125  13.037   9.308
34616SOL    HW1 5745   2.054  13.067   9.251
34616SOL    HW2 5746   2.141  13.110   9.368
34617SOL     OW 5747   8.600  13.010   6.533
34617SOL    HW1 5748   8.526  12.965   6.574
34617SOL    HW2 5749   8.677  12.961   6.562
34618SOL     OW 5750   4.081   5.037   3.630
34618SOL    HW1 5751   4.157   4.994   3.589
34618SOL    HW2 5752   4.009   5.020   3.570
34619SOL     OW 5753   9.788   2.761   3.278
34619SOL    HW1 5754   9.753   2.849   3.262
34619SOL    HW2 5755   9.874   2.761   3.236
34620SOL     OW 5756  10.952   0.019   9.626
34620SOL    HW1 5757  10.909   0.010   9.540
34620SOL    HW2 5758  10.908   0.093   9.667
34621SOL     OW 5759   4.936  11.486   3.449
34621SOL    HW1 5760   4.914  11.431   3.524
34621SOL    HW2 5761   4.985  11.428   3.391
34622SOL     OW 5762   5.080   5.523   9.933
34622SOL    HW1 5763   5.122   5.605   9.905
34622SOL    HW2 5764   4.987   5.543   9.934
34623SOL     OW 5765   0.991   6.544  14.501
34623SOL    HW1 5766   1.031   6.503  14.579
34623SOL    HW2 5767   0.898   6.526  14.511
34624SOL     OW 5768   9.034   4.681   6.356
34624SOL    HW1 5769   9.042   4.601   6.408
34624SOL    HW2 5770   8.951   4.672   6.310
34625SOL     OW 5771  11.108   1.256  10.299
34625SOL    HW1 5772  11.193   1.298  10.313
34625SOL    HW2 5773  11.130   1.169  10.265
34626SOL     OW 5774   5.981  13.977   4.530
34626SOL    HW1 5775   5.964  13.979   4.624
34626SOL    HW2 5776   5.957  13.889   4.502
34627SOL     OW 5777   0.467   5.818  13.603
34627SOL    HW1 5778   0.542   5.870  13.632
34627SOL    HW2 5779   0.481   5.804  13.510
34628SOL     OW 5780   4.897   3.137   0.869
34628SOL    HW1 5781   4.961   3.067   0.877
34628SOL    HW2 5782   4.929   3.206   0.928
34629SOL     OW 5783   3.796  11.684   2.801
34629SOL    HW1 5784   3.889  11.704   2.805
34629SOL    HW2 5785   3.791  11.606   2.746
34630SOL     OW 5786   7.190  13.163   5.108
34630SOL    HW1 5787   7.208  13.069   5.096
34630SOL    HW2 5788   7.185  13.197   5.019
34631SOL     OW 5789   9.458   2.866   0.898
34631SOL    HW1 5790   9.484   2.954   0.871
34631SOL    HW2 5791   9.540   2.825   0.927
34632SOL     OW 5792  11.383  10.942   9.886
34632SOL    HW1 5793  11.404  11.033   9.867
34632SOL    HW2 5794  11.382  10.899   9.801
34633SOL     OW 5795   7.743   5.397   7.649
34633SOL    HW1 5796   7.676   5.440   7.702
34633SOL    HW2 5797   7.709   5.400   7.559
34634SOL     OW 5798   2.040   0.155   1.032
34634SOL    HW1 5799   1.965   0.193   0.988
34634SOL    HW2 5800   2.102   0.134   0.962
34635SOL     OW 5801   4.493  14.213  14.751
34635SOL    HW1 5802   4.413  14.261  14.772
34635SOL    HW2 5803   4.474  14.123  14.774
34636SOL     OW 5804   1.021  10.159   7.129
34636SOL    HW1 5805   1.039  10.079   7.079
34636SOL    HW2 5806   1.107  10.191   7.155
34637SOL     OW 5807   1.599   1.480   2.191
34637SOL    HW1 5808   1.631   1.553   2.138
34637SOL    HW2 5809   1.677   1.448   2.237
34638SOL     OW 5810   7.894   0.991  11.860
34638SOL    HW1 5811   7.984   0.984  11.828
34638SOL    HW2 5812   7.840   0.990  11.781
34639SOL     OW 5813   7.338   8.421   6.491
34639SOL    HW1 5814   7.371   8.331   6.493
34639SOL    HW2 5815   7.253   8.415   6.449
34640SOL     OW 5816   0.980   6.405   9.416
34640SOL    HW1 5817   1.068   6.381   9.445
34640SOL    HW2 5818   0.974   6.499   9.431
34641SOL     OW 5819   9.305   2.888  11.133
34641SOL    HW1 5820   9.275   2.979  11.136
34641SOL    HW2 5821   9.375   2.888  11.068
34642SOL     OW 5822   0.296   3.318  11.514
34642SOL    HW1 5823   0.214   3.306  11.467
34642SOL    HW2 5824   0.326   3.230  11.534
34643SOL     OW 5825   0.814   9.049   4.057
34643SOL    HW1 5826   0.872   8.976   4.075
34643SOL    HW2 5827   0.727   9.017   4.083
34644SOL     OW 5828  14.857   9.067   4.112
34644SOL    HW1 5829   0.067   9.106   4.081
34644SOL    HW2 5830  14.827   9.012   4.040
34645SOL     OW 5831   8.245   7.530   0.531
34645SOL    HW1 5832   8.177   7.508   0.594
34645SOL    HW2 5833   8.240   7.625   0.521
34646SOL     OW 5834   5.727  10.445  11.688
34646SOL    HW1 5835   5.776  10.432  11.606
34646SOL    HW2 5836   5.734  10.361  11.734
34647SOL     OW 5837   7.516   0.874   9.950
34647SOL    HW1 5838   7.590   0.831   9.907
34647SOL    HW2 5839   7.524   0.849  10.042
34648SOL     OW 5840   0.060   0.343   4.730
34648SOL    HW1 5841   0.062   0.247   4.720
34648SOL    HW2 5842  14.842   0.368   4.706
34649SOL     OW 5843   2.769   6.675   3.093
34649SOL    HW1 5844   2.840   6.635   3.143
34649SOL    HW2 5845   2.778   6.769   3.109
34650SOL     OW 5846  13.394   3.879   1.768
34650SOL    HW1 5847  13.433   3.929   1.696
34650SOL    HW2 5848  13.315   3.929   1.791
34651SOL     OW 5849   7.316   5.944   9.318
34651SOL    HW1 5850   7.314   5.864   9.266
34651SOL    HW2 5851   7.224   5.967   9.332
34652SOL     OW 5852   1.682   7.975  13.197
34652SOL    HW1 5853   1.629   7.895  13.191
34652SOL    HW2 5854   1.752   7.962  13.134
34653SOL     OW 5855   3.761  10.269   7.502
34653SOL    HW1 5856   3.763  10.180   7.535
34653SOL    HW2 5857   3.810  10.320   7.567
34654SOL     OW 5858  12.095   0.391  13.089
34654SOL    HW1 5859  12.152   0.349  13.154
34654SOL    HW2 5860  12.061   0.319  13.036
34655SOL     OW 5861   8.275   1.964   4.636
34655SOL    HW1 5862   8.344   2.024   4.611
34655SOL    HW2 5863   8.321   1.886   4.668
34656SOL     OW 5864  13.333  10.739  11.304
34656SOL    HW1 5865  13.299  10.743  11.393
34656SOL    HW2 5866  13.255  10.730  11.248
34657SOL     OW 5867  11.609   9.001   8.371
34657SOL    HW1 5868  11.557   8.970   8.445
34657SOL    HW2 5869  11.668   8.928   8.352
34658SOL     OW 5870   4.707  11.391  12.610
34658SOL    HW1 5871   4.632  11.417  12.664
34658SOL    HW2 5872   4.782  11.430  12.654
34659SOL     OW 5873  12.387  12.663   2.754
34659SOL    HW1 5874  12.477  12.662   2.786
34659SOL    HW2 5875  12.371  12.755   2.732
34660SOL     OW 5876  12.643   7.200  13.928
34660SOL    HW1 5877  12.627   7.273  13.867
34660SOL    HW2 5878  12.650   7.123  13.872
34661SOL     OW 5879   9.250   3.746   5.637
34661SOL    HW1 5880   9.294   3.787   5.562
34661SOL    HW2 5881   9.312   3.678   5.666
34662SOL     OW 5882   2.265  13.704   4.961
34662SOL    HW1 5883   2.288  13.618   4.995
34662SOL    HW2 5884   2.256  13.759   5.039
34663SOL     OW 5885  13.580   3.550  11.314
34663SOL    HW1 5886  13.669   3.518  11.331
34663SOL    HW2 5887  13.589   3.645  11.310
34664SOL     OW 5888   6.069   4.852   3.302
34664SOL    HW1 5889   6.009   4.782   3.330
34664SOL    HW2 5890   6.155   4.811   3.299
34665SOL     OW 5891   8.373   1.676   9.136
34665SOL    HW1 5892   8.294   1.719   9.169
34665SOL    HW2 5893   8.367   1.687   9.041
34666SOL     OW 5894   8.461   6.751  12.587
34666SOL    HW1 5895   8.468   6.846  12.601
34666SOL    HW2 5896   8.393   6.742  12.520
34667SOL     OW 5897  11.931  14.411  13.679
34667SOL    HW1 5898  11.852  14.464  13.665
34667SOL    HW2 5899  11.983  14.462  13.742
34668SOL     OW 5900   2.373   2.983   7.570
34668SOL    HW1 5901   2.417   2.990   7.654
34668SOL    HW2 5902   2.280   2.987   7.591
34669SOL     OW 5903   5.050  10.274   0.465
34669SOL    HW1 5904   5.062  10.369   0.455
34669SOL    HW2 5905   5.138  10.238   0.460
34670SOL     OW 5906   2.047   6.004  13.829
34670SOL    HW1 5907   2.085   6.092  13.822
34670SOL    HW2 5908   2.052   5.969  13.740
34671SOL     OW 5909   9.673  13.857  11.814
34671SOL    HW1 5910   9.585  13.825  11.832
34671SOL    HW2 5911   9.682  13.935  11.869
34672SOL     OW 5912   4.604   2.774   3.954
34672SOL    HW1 5913   4.595   2.867   3.975
34672SOL    HW2 5914   4.533   2.732   4.002
34673SOL     OW 5915  11.070   4.629   9.988
34673SOL    HW1 5916  11.142   4.633  10.050
34673SOL    HW2 5917  11.112   4.623   9.902
34674SOL     OW 5918   3.837  11.767  11.736
34674SOL    HW1 5919   3.794  11.771  11.651
34674SOL    HW2 5920   3.777  11.716  11.791
34675SOL     OW 5921   8.001  12.944   5.745
34675SOL    HW1 5922   7.997  12.849   5.758
34675SOL    HW2 5923   7.915  12.975   5.772
34676SOL     OW 5924  13.102   4.970  10.569
34676SOL    HW1 5925  13.189   4.936  10.547
34676SOL    HW2 5926  13.099   4.969  10.664
34677SOL     OW 5927   4.369   2.026   2.870
34677SOL    HW1 5928   4.389   1.997   2.959
34677SOL    HW2 5929   4.320   1.953   2.832
34678SOL     OW 5930   9.057   8.389   6.671
34678SOL    HW1 5931   9.101   8.459   6.622
34678SOL    HW2 5932   9.127   8.346   6.720
34679SOL     OW 5933   3.749  11.410   5.808
34679SOL    HW1 5934   3.695  11.364   5.743
34679SOL    HW2 5935   3.705  11.494   5.821
34680SOL     OW 5936  13.531   0.935   6.912
34680SOL    HW1 5937  13.516   1.024   6.881
34680SOL    HW2 5938  13.589   0.895   6.847
34681SOL     OW 5939   0.458  12.895   0.088
34681SOL    HW1 5940   0.434  12.981   0.122
34681SOL    HW2 5941   0.550  12.904   0.062
34682SOL     OW 5942   4.745   2.371   2.012
34682SOL    HW1 5943   4.791   2.341   2.090
34682SOL    HW2 5944   4.702   2.293   1.978
34683SOL     OW 5945   5.343  11.068   2.549
34683SOL    HW1 5946   5.395  11.103   2.476
34683SOL    HW2 5947   5.386  11.101   2.627
34684SOL     OW 5948  11.374  11.579  10.319
34684SOL    HW1 5949  11.291  11.616  10.291
34684SOL    HW2 5950  11.436  11.652  10.316
34685SOL     OW 5951  12.809   4.522  14.326
34685SOL    HW1 5952  12.792   4.613  14.301
34685SOL    HW2 5953  12.768   4.512  14.412
34686SOL     OW 5954   7.676  11.447  13.336
34686SOL    HW1 5955   7.673  11.425  13.243
34686SOL    HW2 5956   7.598  11.406  13.373
34687SOL     OW 5957  13.461   1.077  10.706
34687SOL    HW1 5958  13.527   1.114  10.648
34687SOL    HW2 5959  13.389   1.051  10.648
34688SOL     OW 5960  10.221   2.837   4.861
34688SOL    HW1 5961  10.264   2.753   4.868
34688SOL    HW2 5962  10.130   2.821   4.888
34689SOL     OW 5963   8.975   6.264   4.940
34689SOL    HW1 5964   8.926   6.325   4.885
34689SOL    HW2 5965   9.011   6.319   5.011
34690SOL     OW 5966  14.474  11.634   6.509
34690SOL    HW1 5967  14.497  11.542   6.521
34690SOL    HW2 5968  14.518  11.679   6.581
34691SOL     OW 5969  14.506   1.042   2.635
34691SOL    HW1 5970  14.575   1.108   2.631
34691SOL    HW2 5971  14.520   0.997   2.717
34692SOL     OW 5972  10.214   4.273  13.886
34692SOL    HW1 5973  10.244   4.351  13.840
34692SOL    HW2 5974  10.280   4.258  13.953
34693SOL     OW 5975  10.721   6.205   6.076
34693SOL    HW1 5976  10.726   6.115   6.109
34693SOL    HW2 5977  10.630   6.215   6.048
34694SOL     OW 5978   8.684  13.406   4.565
34694SOL    HW1 5979   8.681  13.460   4.487
34694SOL    HW2 5980   8.690  13.316   4.532
34695SOL     OW 5981   7.763   6.398  12.160
34695SOL    HW1 5982   7.761   6.316  12.109
34695SOL    HW2 5983   7.694   6.451  12.121
34696SOL     OW 5984   8.939   3.300  11.285
34696SOL    HW1 5985   8.941   3.332  11.376
34696SOL    HW2 5986   8.860   3.247  11.280
34697SOL     OW 5987  10.559   8.903   6.013
34697SOL    HW1 5988  10.466   8.883   6.002
34697SOL    HW2 5989  10.597   8.884   5.927
34698SOL     OW 5990   0.158   6.062   7.369
34698SOL    HW1 5991   0.158   6.138   7.427
34698SOL    HW2 5992   0.240   6.068   7.320
34699SOL     OW 5993   0.783  12.339  14.025
34699SOL    HW1 5994   0.712  12.386  14.067
34699SOL    HW2 5995   0.763  12.247  14.041
34700SOL     OW 5996   0.212   1.920   1.046
34700SOL    HW1 5997   0.191   1.996   0.991
34700SOL    HW2 5998   0.159   1.849   1.010
34701SOL     OW 5999  13.290   3.153   0.289
34701SOL    HW1 6000  13.318   3.090   0.356
34701SOL    HW2 6001  13.326   3.118   0.207
34702SOL     OW 6002  13.359   3.107   6.049
34702SOL    HW1 6003  13.330   3.048   6.119
34702SOL    HW2 6004  13.440   3.068   6.017
34703SOL     OW 6005   0.288   0.957  11.798
34703SOL    HW1 6006   0.323   0.868  11.797
34703SOL    HW2 6007   0.278   0.977  11.892
34704SOL     OW 6008   9.796   7.657  13.300
34704SOL    HW1 6009   9.762   7.742  13.273
34704SOL    HW2 6010   9.881   7.677  13.341
34705SOL     OW 6011   5.248   2.762   0.279
34705SOL    HW1 6012   5.212   2.688   0.329
34705SOL    HW2 6013   5.339   2.738   0.262
34706SOL     OW 6014  13.528   7.253   4.196
34706SOL    HW1 6015  13.542   7.232   4.288
34706SOL    HW2 6016  13.553   7.346   4.189
34707SOL     OW 6017  13.484  12.415   4.634
34707SOL    HW1 6018  13.440  12.421   4.549
34707SOL    HW2 6019  13.536  12.335   4.628
34708SOL     OW 6020   0.529   1.178   1.050
34708SOL    HW1 6021   0.457   1.119   1.025
34708SOL    HW2 6022   0.500   1.217   1.133
34709SOL     OW 6023   9.399   1.809   1.070
34709SOL    HW1 6024   9.453   1.743   1.115
34709SOL    HW2 6025   9.312   1.770   1.068
34710SOL     OW 6026  14.398   6.418   8.498
34710SOL    HW1 6027  14.477   6.429   8.553
34710SOL    HW2 6028  14.326   6.414   8.561
34711SOL     OW 6029   8.864   2.193  12.849
34711SOL    HW1 6030   8.803   2.239  12.791
34711SOL    HW2 6031   8.951   2.212  12.812
34712SOL     OW 6032   1.879   6.769   9.480
34712SOL    HW1 6033   1.958   6.762   9.533
34712SOL    HW2 6034   1.899   6.835   9.414
34713SOL     OW 6035  10.003   0.829  12.934
34713SOL    HW1 6036  10.094   0.822  12.963
34713SOL    HW2 6037   9.976   0.739  12.916
34714SOL     OW 6038   6.468   6.587   0.907
34714SOL    HW1 6039   6.407   6.514   0.899
34714SOL    HW2 6040   6.516   6.570   0.988
34715SOL     OW 6041   2.251   4.673   9.629
34715SOL    HW1 6042   2.297   4.617   9.691
34715SOL    HW2 6043   2.203   4.612   9.573
34716SOL     OW 6044   9.870   3.369   2.819
34716SOL    HW1 6045   9.947   3.406   2.863
34716SOL    HW2 6046   9.853   3.429   2.746
34717SOL     OW 6047  11.338  13.764   4.181
34717SOL    HW1 6048  11.421  13.799   4.149
34717SOL    HW2 6049  11.322  13.686   4.128
34718SOL     OW 6050   3.029   0.473  12.834
34718SOL    HW1 6051   3.088   0.486  12.759
34718SOL    HW2 6052   2.951   0.524  12.812
34719SOL     OW 6053  10.301   9.084  14.286
34719SOL    HW1 6054  10.333   9.016  14.346
34719SOL    HW2 6055  10.208   9.092  14.307
34720SOL     OW 6056   4.642   8.141   8.318
34720SOL    HW1 6057   4.670   8.132   8.409
34720SOL    HW2 6058   4.563   8.194   8.322
34721SOL     OW 6059   8.805   1.392   5.118
34721SOL    HW1 6060   8.807   1.488   5.113
34721SOL    HW2 6061   8.883   1.365   5.069
34722SOL     OW 6062  13.640   2.214  11.931
34722SOL    HW1 6063  13.557   2.186  11.892
34722SOL    HW2 6064  13.643   2.167  12.015
34723SOL     OW 6065  10.109   5.590   0.603
34723SOL    HW1 6066  10.071   5.547   0.527
34723SOL    HW2 6067  10.163   5.660   0.567
34724SOL     OW 6068   0.240  10.139  10.249
34724SOL    HW1 6069   0.314  10.083  10.272
34724SOL    HW2 6070   0.280  10.223  10.224
34725SOL     OW 6071  11.796   7.738   1.590
34725SOL    HW1 6072  11.725   7.682   1.560
34725SOL    HW2 6073  11.787   7.740   1.685
34726SOL     OW 6074  13.262  11.951   8.310
34726SOL    HW1 6075  13.315  11.907   8.243
34726SOL    HW2 6076  13.175  11.959   8.270
34727SOL     OW 6077   7.425   9.384  10.940
34727SOL    HW1 6078   7.350   9.324  10.942
34727SOL    HW2 6079   7.482   9.348  10.872
34728SOL     OW 6080   8.747   3.244   4.586
34728SOL    HW1 6081   8.716   3.238   4.496
34728SOL    HW2 6082   8.684   3.302   4.629
34729SOL     OW 6083   5.403   7.745   0.670
34729SOL    HW1 6084   5.403   7.759   0.575
34729SOL    HW2 6085   5.479   7.795   0.701
34730SOL     OW 6086   1.456   3.210   6.119
34730SOL    HW1 6087   1.493   3.295   6.144
34730SOL    HW2 6088   1.431   3.220   6.028
34731SOL     OW 6089   7.427  14.243   5.534
34731SOL    HW1 6090   7.439  14.246   5.439
34731SOL    HW2 6091   7.403  14.152   5.552
34732SOL     OW 6092  12.262   6.616   7.367
34732SOL    HW1 6093  12.271   6.632   7.461
34732SOL    HW2 6094  12.324   6.545   7.349
34733SOL     OW 6095  13.103   1.767   1.078
34733SOL    HW1 6096  13.182   1.747   1.128
34733SOL    HW2 6097  13.112   1.859   1.055
34734SOL     OW 6098   4.191  12.064  13.141
34734SOL    HW1 6099   4.193  12.081  13.047
34734SOL    HW2 6100   4.158  12.145  13.179
34735SOL     OW 6101  12.290   5.445  13.502
34735SOL    HW1 6102  12.275   5.374  13.439
34735SOL    HW2 6103  12.251   5.522  13.460
34736SOL     OW 6104  12.197  13.101   7.424
34736SOL    HW1 6105  12.245  13.058   7.495
34736SOL    HW2 6106  12.238  13.067   7.344
34737SOL     OW 6107  14.317   8.411   7.297
34737SOL    HW1 6108  14.287   8.502   7.302
34737SOL    HW2 6109  14.251   8.367   7.243
34738SOL     OW 6110   6.986  13.460  14.304
34738SOL    HW1 6111   6.954  13.524  14.240
34738SOL    HW2 6112   7.021  13.513  14.375
34739SOL     OW 6113   5.622   2.004  14.313
34739SOL    HW1 6114   5.633   2.074  14.248
34739SOL    HW2 6115   5.579   1.934  14.264
34740SOL     OW 6116   6.717   8.544  13.058
34740SOL    HW1 6117   6.759   8.618  13.102
34740SOL    HW2 6118   6.628   8.541  13.095
34741SOL     OW 6119   2.621  14.550   7.955
34741SOL    HW1 6120   2.655  14.467   7.987
34741SOL    HW2 6121   2.548  14.570   8.014
34742SOL     OW 6122   1.689   9.523   4.860
34742SOL    HW1 6123   1.667   9.544   4.769
34742SOL    HW2 6124   1.734   9.600   4.893
34743SOL     OW 6125  13.995  13.019   4.503
34743SOL    HW1 6126  13.990  13.104   4.546
34743SOL    HW2 6127  13.986  13.039   4.409
34744SOL     OW 6128   4.322  14.750   9.098
34744SOL    HW1 6129   4.345  14.663   9.067
34744SOL    HW2 6130   4.284  14.735   9.185
34745SOL     OW 6131  11.558   7.733   0.006
34745SOL    HW1 6132  11.589   7.748   0.096
34745SOL    HW2 6133  11.546   7.638   0.000
34746SOL     OW 6134   2.139  12.613   2.267
34746SOL    HW1 6135   2.219  12.652   2.304
34746SOL    HW2 6136   2.080  12.688   2.254
34747SOL     OW 6137  14.508  13.667  14.465
34747SOL    HW1 6138  14.596  13.652  14.501
34747SOL    HW2 6139  14.505  13.762  14.451
34748SOL     OW 6140   9.215  13.115  12.786
34748SOL    HW1 6141   9.188  13.138  12.697
34748SOL    HW2 6142   9.216  13.020  12.788
34749SOL     OW 6143  10.749  10.535   9.180
34749SOL    HW1 6144  10.659  10.559   9.201
34749SOL    HW2 6145  10.758  10.445   9.210
34750SOL     OW 6146   5.301   9.843   6.789
34750SOL    HW1 6147   5.247   9.766   6.808
34750SOL    HW2 6148   5.251   9.890   6.721
34751SOL     OW 6149   8.497   0.721   4.299
34751SOL    HW1 6150   8.529   0.635   4.272
34751SOL    HW2 6151   8.507   0.723   4.394
34752SOL     OW 6152   1.906   4.876  13.246
34752SOL    HW1 6153   1.992   4.901  13.211
34752SOL    HW2 6154   1.924   4.856  13.338
34753SOL     OW 6155  14.481   6.523  10.675
34753SOL    HW1 6156  14.460   6.478  10.757
34753SOL    HW2 6157  14.541   6.463  10.630
34754SOL     OW 6158   6.061  11.525   7.124
34754SOL    HW1 6159   6.022  11.457   7.180
34754SOL    HW2 6160   6.155  11.505   7.125
34755SOL     OW 6161  11.362   2.989  11.633
34755SOL    HW1 6162  11.363   2.900  11.666
34755SOL    HW2 6163  11.380   3.044  11.709
34756SOL     OW 6164   3.513   2.356  10.833
34756SOL    HW1 6165   3.504   2.318  10.746
34756SOL    HW2 6166   3.593   2.408  10.828
34757SOL     OW 6167   3.332   7.159  12.841
34757SOL    HW1 6168   3.259   7.201  12.887
34757SOL    HW2 6169   3.406   7.217  12.857
34758SOL     OW 6170   5.242  13.071  14.459
34758SOL    HW1 6171   5.147  13.065  14.468
34758SOL    HW2 6172   5.273  13.093  14.547
34759SOL     OW 6173   4.310  13.312   8.474
34759SOL    HW1 6174   4.312  13.274   8.386
34759SOL    HW2 6175   4.397  13.351   8.485
34760SOL     OW 6176   4.384   3.914  12.435
34760SOL    HW1 6177   4.460   3.955  12.394
34760SOL    HW2 6178   4.317   3.982  12.433
34761SOL     OW 6179   2.730  14.406  13.617
34761SOL    HW1 6180   2.726  14.332  13.678
34761SOL    HW2 6181   2.728  14.484  13.672
34762SOL     OW 6182  11.059  11.495  11.293
34762SOL    HW1 6183  11.088  11.407  11.316
34762SOL    HW2 6184  10.964  11.491  11.300
34763SOL     OW 6185   9.878  13.447   1.705
34763SOL    HW1 6186   9.971  13.439   1.685
34763SOL    HW2 6187   9.872  13.523   1.763
34764SOL     OW 6188   6.867   0.444   1.357
34764SOL    HW1 6189   6.849   0.490   1.275
34764SOL    HW2 6190   6.926   0.373   1.331
34765SOL     OW 6191   4.795   8.788   2.479
34765SOL    HW1 6192   4.799   8.882   2.459
34765SOL    HW2 6193   4.787   8.746   2.393
34766SOL     OW 6194  14.322   7.016   7.036
34766SOL    HW1 6195  14.296   7.096   7.082
34766SOL    HW2 6196  14.264   6.948   7.070
34767SOL     OW 6197  13.078  10.280  11.313
34767SOL    HW1 6198  13.146  10.212  11.311
34767SOL    HW2 6199  13.057  10.295  11.220
34768SOL     OW 6200   7.021   0.810  12.939
34768SOL    HW1 6201   7.062   0.886  12.981
34768SOL    HW2 6202   6.927   0.827  12.946
34769SOL     OW 6203   4.272  10.357   1.362
34769SOL    HW1 6204   4.297  10.395   1.278
34769SOL    HW2 6205   4.315  10.271   1.364
34770SOL     OW 6206  10.319   5.281   8.074
34770SOL    HW1 6207  10.352   5.295   7.985
34770SOL    HW2 6208  10.248   5.345   8.084
34771SOL     OW 6209  12.896  13.856   0.737
34771SOL    HW1 6210  12.820  13.884   0.788
34771SOL    HW2 6211  12.903  13.921   0.667
34772SOL     OW 6212  10.336   5.273  11.080
34772SOL    HW1 6213  10.308   5.259  10.989
34772SOL    HW2 6214  10.389   5.353  11.076
34773SOL     OW 6215   3.991   6.802   9.649
34773SOL    HW1 6216   4.010   6.889   9.612
34773SOL    HW2 6217   4.077   6.760   9.656
34774SOL     OW 6218   8.693   1.527   3.098
34774SOL    HW1 6219   8.752   1.542   3.172
34774SOL    HW2 6220   8.746   1.479   3.034
34775SOL     OW 6221   6.225  12.145   5.081
34775SOL    HW1 6222   6.218  12.117   4.990
34775SOL    HW2 6223   6.147  12.199   5.095
34776SOL     OW 6224   8.444  13.666  14.025
34776SOL    HW1 6225   8.412  13.703  14.108
34776SOL    HW2 6226   8.415  13.728  13.958
34777SOL     OW 6227  10.931  13.315  13.313
34777SOL    HW1 6228  10.838  13.300  13.301
34777SOL    HW2 6229  10.956  13.373  13.241
34778SOL     OW 6230  11.900  10.304  14.132
34778SOL    HW1 6231  11.898  10.210  14.147
34778SOL    HW2 6232  11.993  10.327  14.134
34779SOL     OW 6233   8.097   1.136   1.269
34779SOL    HW1 6234   8.036   1.203   1.237
34779SOL    HW2 6235   8.121   1.166   1.356
34780SOL     OW 6236   7.736  12.393   3.297
34780SOL    HW1 6237   7.725  12.488   3.304
34780SOL    HW2 6238   7.662  12.365   3.242
34781SOL     OW 6239   2.725  11.012   3.048
34781SOL    HW1 6240   2.689  10.984   2.964
34781SOL    HW2 6241   2.733  10.931   3.099
34782SOL     OW 6242  14.168   0.017  10.194
34782SOL    HW1 6243  14.108  14.870  10.267
34782SOL    HW2 6244  14.128   0.092  10.149
34783SOL     OW 6245  14.218  11.958  13.951
34783SOL    HW1 6246  14.200  12.024  14.018
34783SOL    HW2 6247  14.243  11.879  14.000
34784SOL     OW 6248   7.734  13.755   5.278
34784SOL    HW1 6249   7.807  13.807   5.245
34784SOL    HW2 6250   7.662  13.773   5.218
34785SOL     OW 6251   9.975  11.818   7.639
34785SOL    HW1 6252   9.928  11.871   7.573
34785SOL    HW2 6253  10.062  11.858   7.644
34786SOL     OW 6254   2.216   8.911  13.655
34786SOL    HW1 6255   2.139   8.874  13.612
34786SOL    HW2 6256   2.198   8.903  13.749
34787SOL     OW 6257   4.464   6.530  13.357
34787SOL    HW1 6258   4.408   6.456  13.332
34787SOL    HW2 6259   4.476   6.520  13.451
34788SOL     OW 6260   6.163   6.121   0.183
34788SOL    HW1 6261   6.083   6.095   0.229
34788SOL    HW2 6262   6.136   6.127   0.091
34789SOL     OW 6263  13.941   1.481   5.357
34789SOL    HW1 6264  13.996   1.466   5.280
34789SOL    HW2 6265  13.994   1.537   5.414
34790SOL     OW 6266   0.118   4.673  10.415
34790SOL    HW1 6267   0.128   4.743  10.350
34790SOL    HW2 6268   0.065   4.607  10.371
34791SOL     OW 6269   1.569  10.099   0.535
34791SOL    HW1 6270   1.541  10.128   0.449
34791SOL    HW2 6271   1.527  10.160   0.596
34792SOL     OW 6272   5.342  10.526   3.919
34792SOL    HW1 6273   5.285  10.557   3.990
34792SOL    HW2 6274   5.412  10.592   3.915
34793SOL     OW 6275  11.117  10.194   8.731
34793SOL    HW1 6276  11.109  10.283   8.699
34793SOL    HW2 6277  11.135  10.142   8.653
34794SOL     OW 6278   2.113  12.549   9.444
34794SOL    HW1 6279   2.129  12.591   9.360
34794SOL    HW2 6280   2.055  12.610   9.490
34795SOL     OW 6281  11.262  14.290   3.328
34795SOL    HW1 6282  11.169  14.271   3.316
34795SOL    HW2 6283  11.264  14.356   3.397
34796SOL     OW 6284  13.509   9.012   2.650
34796SOL    HW1 6285  13.590   9.018   2.700
34796SOL    HW2 6286  13.454   8.952   2.700
34797SOL     OW 6287   3.163   0.839   5.718
34797SOL    HW1 6288   3.110   0.799   5.649
34797SOL    HW2 6289   3.171   0.931   5.692
34798SOL     OW 6290   8.073   3.665   4.649
34798SOL    HW1 6291   8.066   3.719   4.729
34798SOL    HW2 6292   8.035   3.720   4.580
34799SOL     OW 6293  13.761   3.188  10.025
34799SOL    HW1 6294  13.807   3.187  10.109
34799SOL    HW2 6295  13.695   3.119  10.034
34800SOL     OW 6296   0.411  10.827   5.469
34800SOL    HW1 6297   0.491  10.842   5.419
34800SOL    HW2 6298   0.376  10.914   5.485
34801SOL     OW 6299   1.400   3.529  14.289
34801SOL    HW1 6300   1.308   3.504  14.281
34801SOL    HW2 6301   1.397   3.614  14.334
34802SOL     OW 6302   1.306   5.810  14.303
34802SOL    HW1 6303   1.383   5.763  14.337
34802SOL    HW2 6304   1.237   5.791  14.366
34803SOL     OW 6305   8.985   2.132  10.324
34803SOL    HW1 6306   8.892   2.129  10.346
34803SOL    HW2 6307   8.989   2.182  10.243
34804SOL     OW 6308   9.698   3.844   5.664
34804SOL    HW1 6309   9.713   3.938   5.655
34804SOL    HW2 6310   9.605   3.832   5.643
34805SOL     OW 6311   7.605   5.920   9.734
34805SOL    HW1 6312   7.558   5.879   9.661
34805SOL    HW2 6313   7.536   5.954   9.791
34806SOL     OW 6314   8.785  13.623   5.116
34806SOL    HW1 6315   8.788  13.707   5.070
34806SOL    HW2 6316   8.692  13.609   5.135
34807SOL     OW 6317  12.375   2.808   7.664
34807SOL    HW1 6318  12.416   2.796   7.579
34807SOL    HW2 6319  12.286   2.772   7.654
34808SOL     OW 6320  10.440   6.701  11.986
34808SOL    HW1 6321  10.408   6.739  11.904
34808SOL    HW2 6322  10.394   6.617  11.993
34809SOL     OW 6323   3.514  10.670   6.133
34809SOL    HW1 6324   3.510  10.602   6.066
34809SOL    HW2 6325   3.478  10.748   6.091
34810SOL     OW 6326  12.012   0.830   9.121
34810SOL    HW1 6327  11.959   0.804   9.046
34810SOL    HW2 6328  11.988   0.768   9.190
34811SOL     OW 6329   1.689   9.464  11.101
34811SOL    HW1 6330   1.682   9.557  11.124
34811SOL    HW2 6331   1.682   9.462  11.006
34812SOL     OW 6332   3.242   4.738   1.962
34812SOL    HW1 6333   3.211   4.820   2.001
34812SOL    HW2 6334   3.248   4.758   1.868
34813SOL     OW 6335   9.029  13.470  14.677
34813SOL    HW1 6336   9.005  13.389  14.631
34813SOL    HW2 6337   8.946  13.507  14.706
34814SOL     OW 6338   6.215  14.852  13.175
34814SOL    HW1 6339   6.143  14.861  13.112
34814SOL    HW2 6340   6.275  14.790  13.134
34815SOL     OW 6341  12.193   9.813   5.419
34815SOL    HW1 6342  12.166   9.750   5.485
34815SOL    HW2 6343  12.258   9.766   5.366
34816SOL     OW 6344   7.557  12.456   3.697
34816SOL    HW1 6345   7.518  12.412   3.621
34816SOL    HW2 6346   7.646  12.422   3.701
34817SOL     OW 6347   5.528  14.691   7.131
34817SOL    HW1 6348   5.506  14.658   7.218
34817SOL    HW2 6349   5.623  14.688   7.127
34818SOL     OW 6350   4.054   5.784   2.729
34818SOL    HW1 6351   4.094   5.725   2.793
34818SOL    HW2 6352   3.962   5.761   2.729
34819SOL     OW 6353  13.951   8.942   1.895
34819SOL    HW1 6354  13.987   8.866   1.848
34819SOL    HW2 6355  13.949   8.915   1.986
34820SOL     OW 6356   4.018  10.206   1.035
34820SOL    HW1 6357   3.982  10.179   0.950
34820SOL    HW2 6358   3.987  10.140   1.096
34821SOL     OW 6359   2.874  12.825   1.684
34821SOL    HW1 6360   2.889  12.741   1.641
34821SOL    HW2 6361   2.943  12.831   1.749
34822SOL     OW 6362   4.462   9.427  12.121
34822SOL    HW1 6363   4.421   9.382  12.047
34822SOL    HW2 6364   4.489   9.512  12.086
34823SOL     OW 6365  11.095   3.076   0.753
34823SOL    HW1 6366  11.070   3.168   0.752
34823SOL    HW2 6367  11.187   3.077   0.726
34824SOL     OW 6368   5.404   1.940   6.648
34824SOL    HW1 6369   5.429   1.882   6.720
34824SOL    HW2 6370   5.485   1.959   6.601
34825SOL     OW 6371  12.692   6.586  13.429
34825SOL    HW1 6372  12.720   6.669  13.469
34825SOL    HW2 6373  12.702   6.600  13.335
34826SOL     OW 6374   3.464   3.824   2.333
34826SOL    HW1 6375   3.413   3.762   2.282
34826SOL    HW2 6376   3.399   3.867   2.390
34827SOL     OW 6377   2.737   7.913   8.049
34827SOL    HW1 6378   2.652   7.873   8.032
34827SOL    HW2 6379   2.800   7.860   8.001
34828SOL     OW 6380   8.478  10.212   5.140
34828SOL    HW1 6381   8.524  10.293   5.123
34828SOL    HW2 6382   8.391  10.239   5.171
34829SOL     OW 6383   9.059  11.242   6.377
34829SOL    HW1 6384   8.983  11.270   6.326
34829SOL    HW2 6385   9.132  11.244   6.316
34830SOL     OW 6386   5.497   5.363   8.827
34830SOL    HW1 6387   5.575   5.308   8.820
34830SOL    HW2 6388   5.529   5.452   8.811
34831SOL     OW 6389   7.846   3.394   0.297
34831SOL    HW1 6390   7.844   3.300   0.315
34831SOL    HW2 6391   7.826   3.401   0.204
34832SOL     OW 6392   8.068   3.860   8.565
34832SOL    HW1 6393   8.049   3.937   8.511
34832SOL    HW2 6394   8.024   3.878   8.648
34833SOL     OW 6395   4.583   6.605   5.695
34833SOL    HW1 6396   4.587   6.690   5.739
34833SOL    HW2 6397   4.587   6.626   5.602
34834SOL     OW 6398   0.314   0.653   6.826
34834SOL    HW1 6399   0.343   0.637   6.915
34834SOL    HW2 6400   0.278   0.568   6.798
34835SOL     OW 6401   5.434  13.848  10.154
34835SOL    HW1 6402   5.341  13.828  10.141
34835SOL    HW2 6403   5.477  13.763  10.152
34836SOL     OW 6404  13.902  10.727   6.221
34836SOL    HW1 6405  13.868  10.639   6.236
34836SOL    HW2 6406  13.889  10.772   6.305
34837SOL     OW 6407   2.343   4.692   5.863
34837SOL    HW1 6408   2.280   4.759   5.888
34837SOL    HW2 6409   2.425   4.739   5.852
34838SOL     OW 6410   2.341   0.202   1.313
34838SOL    HW1 6411   2.314   0.258   1.241
34838SOL    HW2 6412   2.363   0.262   1.384
34839SOL     OW 6413   8.506   3.224  10.314
34839SOL    HW1 6414   8.450   3.243  10.239
34839SOL    HW2 6415   8.574   3.290  10.311
34840SOL     OW 6416   5.587   2.738   2.647
34840SOL    HW1 6417   5.583   2.827   2.683
34840SOL    HW2 6418   5.509   2.695   2.682
34841SOL     OW 6419  10.668   3.645   5.545
34841SOL    HW1 6420  10.756   3.625   5.577
34841SOL    HW2 6421  10.632   3.704   5.611
34842SOL     OW 6422   6.708  11.845   5.224
34842SOL    HW1 6423   6.632  11.901   5.207
34842SOL    HW2 6424   6.690  11.765   5.175
34843SOL     OW 6425   7.141   4.876  12.574
34843SOL    HW1 6426   7.104   4.951  12.621
34843SOL    HW2 6427   7.208   4.841  12.633
34844SOL     OW 6428   1.557   4.384   2.887
34844SOL    HW1 6429   1.632   4.440   2.867
34844SOL    HW2 6430   1.503   4.436   2.946
34845SOL     OW 6431   5.718   5.117   4.183
34845SOL    HW1 6432   5.671   5.166   4.250
34845SOL    HW2 6433   5.676   5.031   4.182
34846SOL     OW 6434   0.449   6.491   2.739
34846SOL    HW1 6435   0.426   6.583   2.722
34846SOL    HW2 6436   0.476   6.490   2.831
34847SOL     OW 6437   3.555  13.007   0.137
34847SOL    HW1 6438   3.526  12.984   0.225
34847SOL    HW2 6439   3.475  13.029   0.089
34848SOL     OW 6440  11.936   2.611  12.041
34848SOL    HW1 6441  11.956   2.632  11.950
34848SOL    HW2 6442  11.907   2.694  12.079
34849SOL     OW 6443  13.453   8.496   5.369
34849SOL    HW1 6444  13.496   8.463   5.290
34849SOL    HW2 6445  13.429   8.586   5.348
34850SOL     OW 6446   2.837   2.121   4.681
34850SOL    HW1 6447   2.877   2.200   4.718
34850SOL    HW2 6448   2.810   2.147   4.593
34851SOL     OW 6449   5.998   9.126   8.697
34851SOL    HW1 6450   6.043   9.202   8.733
34851SOL    HW2 6451   6.026   9.122   8.606
34852SOL     OW 6452   7.028   3.913   2.354
34852SOL    HW1 6453   6.933   3.898   2.348
34852SOL    HW2 6454   7.065   3.861   2.283
34853SOL     OW 6455  12.704  13.028   3.762
34853SOL    HW1 6456  12.697  13.004   3.854
34853SOL    HW2 6457  12.734  13.119   3.762
34854SOL     OW 6458  11.388   4.506  11.433
34854SOL    HW1 6459  11.355   4.572  11.494
34854SOL    HW2 6460  11.440   4.557  11.370
34855SOL     OW 6461   9.436  12.099  11.542
34855SOL    HW1 6462   9.405  12.009  11.553
34855SOL    HW2 6463   9.437  12.114  11.448
34856SOL     OW 6464   4.867   5.286   2.739
34856SOL    HW1 6465   4.870   5.289   2.834
34856SOL    HW2 6466   4.957   5.306   2.711
34857SOL     OW 6467   4.991   8.495   8.330
34857SOL    HW1 6468   4.962   8.457   8.414
34857SOL    HW2 6469   5.029   8.580   8.354
34858SOL     OW 6470   2.306  12.080  13.322
34858SOL    HW1 6471   2.238  12.013  13.319
34858SOL    HW2 6472   2.266  12.157  13.282
34859SOL     OW 6473  10.482   3.669   9.648
34859SOL    HW1 6474  10.557   3.610   9.656
34859SOL    HW2 6475  10.519   3.756   9.662
34860SOL     OW 6476   8.233   8.899   2.890
34860SOL    HW1 6477   8.208   8.808   2.872
34860SOL    HW2 6478   8.186   8.950   2.823
34861SOL     OW 6479  10.598  14.799   9.692
34861SOL    HW1 6480  10.610  14.864   9.624
34861SOL    HW2 6481  10.678  14.747   9.692
34862SOL     OW 6482   3.066   6.953  12.237
34862SOL    HW1 6483   3.128   7.013  12.195
34862SOL    HW2 6484   2.984   6.967  12.190
34863SOL     OW 6485  10.952  12.220   5.714
34863SOL    HW1 6486  10.935  12.176   5.630
34863SOL    HW2 6487  10.983  12.307   5.690
34864SOL     OW 6488  13.974  14.049   7.957
34864SOL    HW1 6489  13.977  14.024   8.049
34864SOL    HW2 6490  13.934  13.974   7.913
34865SOL     OW 6491   7.840   0.191   0.597
34865SOL    HW1 6492   7.903   0.166   0.664
34865SOL    HW2 6493   7.874   0.151   0.517
34866SOL     OW 6494  12.602  10.343   3.033
34866SOL    HW1 6495  12.642  10.265   2.993
34866SOL    HW2 6496  12.656  10.416   3.002
34867SOL     OW 6497   1.224  14.320   5.522
34867SOL    HW1 6498   1.279  14.244   5.500
34867SOL    HW2 6499   1.278  14.395   5.499
34868SOL     OW 6500   6.023   1.524  11.961
34868SOL    HW1 6501   5.936   1.564  11.968
34868SOL    HW2 6502   6.052   1.514  12.052
34869SOL     OW 6503   7.828   9.744   3.505
34869SOL    HW1 6504   7.895   9.678   3.492
34869SOL    HW2 6505   7.762   9.725   3.437
34870SOL     OW 6506  14.333   8.128   1.611
34870SOL    HW1 6507  14.248   8.161   1.581
34870SOL    HW2 6508  14.348   8.173   1.694
34871SOL     OW 6509  12.917   0.485  10.255
34871SOL    HW1 6510  12.916   0.391  10.237
34871SOL    HW2 6511  13.009   0.503  10.277
34872SOL     OW 6512  10.437  13.022  12.053
34872SOL    HW1 6513  10.465  13.034  12.144
34872SOL    HW2 6514  10.459  13.104  12.010
34873SOL     OW 6515  13.793   2.453  11.616
34873SOL    HW1 6516  13.807   2.507  11.538
34873SOL    HW2 6517  13.715   2.490  11.657
34874SOL     OW 6518  13.499   3.994   6.904
34874SOL    HW1 6519  13.432   3.944   6.858
34874SOL    HW2 6520  13.523   4.064   6.843
34875SOL     OW 6521   3.532   4.678  12.386
34875SOL    HW1 6522   3.466   4.636  12.442
34875SOL    HW2 6523   3.518   4.641  12.300
34876SOL     OW 6524  11.465  13.430   9.260
34876SOL    HW1 6525  11.376  13.450   9.289
34876SOL    HW2 6526  11.492  13.354   9.311
34877SOL     OW 6527   9.557  13.709   1.094
34877SOL    HW1 6528   9.548  13.766   1.170
34877SOL    HW2 6529   9.597  13.629   1.128
34878SOL     OW 6530  11.905   6.654  10.035
34878SOL    HW1 6531  11.812   6.639  10.054
34878SOL    HW2 6532  11.928   6.585   9.974
34879SOL     OW 6533   4.936  10.987   5.073
34879SOL    HW1 6534   4.877  11.003   5.000
34879SOL    HW2 6535   5.021  10.971   5.032
34880SOL     OW 6536   3.033   1.271   0.920
34880SOL    HW1 6537   2.941   1.265   0.946
34880SOL    HW2 6538   3.077   1.206   0.974
34881SOL     OW 6539  12.517  12.627   3.929
34881SOL    HW1 6540  12.573  12.634   4.006
34881SOL    HW2 6541  12.457  12.555   3.949
34882SOL     OW 6542  10.292   1.225   3.514
34882SOL    HW1 6543  10.354   1.155   3.537
34882SOL    HW2 6544  10.206   1.190   3.537
34883SOL     OW 6545   3.722   8.614  14.550
34883SOL    HW1 6546   3.684   8.621  14.638
34883SOL    HW2 6547   3.816   8.622  14.565
34884SOL     OW 6548  14.046  11.928   6.372
34884SOL    HW1 6549  14.110  11.880   6.320
34884SOL    HW2 6550  13.969  11.934   6.315
34885SOL     OW 6551   9.720   3.515   5.960
34885SOL    HW1 6552   9.780   3.539   5.890
34885SOL    HW2 6553   9.634   3.513   5.919
34886SOL     OW 6554   6.074   7.746   3.935
34886SOL    HW1 6555   6.003   7.683   3.944
34886SOL    HW2 6556   6.054   7.814   3.999
34887SOL     OW 6557  13.594   1.045   1.236
34887SOL    HW1 6558  13.515   1.008   1.275
34887SOL    HW2 6559  13.656   0.973   1.235
34888SOL     OW 6560   6.381   7.427   3.406
34888SOL    HW1 6561   6.385   7.349   3.460
34888SOL    HW2 6562   6.457   7.479   3.433
34889SOL     OW 6563   9.625   9.612  11.850
34889SOL    HW1 6564   9.602   9.641  11.938
34889SOL    HW2 6565   9.720   9.602  11.852
34890SOL     OW 6566  14.261   3.029   7.330
34890SOL    HW1 6567  14.346   3.057   7.297
34890SOL    HW2 6568  14.268   3.037   7.425
34891SOL     OW 6569  14.649  12.053  13.649
34891SOL    HW1 6570  14.655  12.121  13.582
34891SOL    HW2 6571  14.690  11.977  13.609
34892SOL     OW 6572   5.735   0.454   7.920
34892SOL    HW1 6573   5.798   0.478   7.987
34892SOL    HW2 6574   5.715   0.362   7.938
34893SOL     OW 6575   1.225   4.573   0.227
34893SOL    HW1 6576   1.270   4.655   0.209
34893SOL    HW2 6577   1.214   4.531   0.142
34894SOL     OW 6578   2.434   7.535  11.785
34894SOL    HW1 6579   2.355   7.481  11.781
34894SOL    HW2 6580   2.502   7.481  11.745
34895SOL     OW 6581  12.189   0.870   3.639
34895SOL    HW1 6582  12.253   0.800   3.637
34895SOL    HW2 6583  12.229   0.939   3.692
34896SOL     OW 6584  10.984  10.862   4.052
34896SOL    HW1 6585  11.057  10.823   4.101
34896SOL    HW2 6586  11.013  10.952   4.035
34897SOL     OW 6587  14.341   3.841   9.580
34897SOL    HW1 6588  14.334   3.764   9.524
34897SOL    HW2 6589  14.429   3.875   9.563
34898SOL     OW 6590   5.967  10.253   2.408
34898SOL    HW1 6591   6.034  10.298   2.356
34898SOL    HW2 6592   6.005  10.168   2.429
34899SOL     OW 6593   1.444   2.050   8.026
34899SOL    HW1 6594   1.503   2.012   8.091
34899SOL    HW2 6595   1.493   2.046   7.944
34900SOL     OW 6596   7.477   7.998   8.025
34900SOL    HW1 6597   7.397   8.001   7.973
34900SOL    HW2 6598   7.461   8.058   8.098
34901SOL     OW 6599   8.884   4.864  10.816
34901SOL    HW1 6600   8.909   4.842  10.726
34901SOL    HW2 6601   8.921   4.794  10.869
34902SOL     OW 6602  11.958   4.820  12.776
34902SOL    HW1 6603  11.942   4.777  12.860
34902SOL    HW2 6604  12.053   4.829  12.771
34903SOL     OW 6605   7.856   4.387   9.485
34903SOL    HW1 6606   7.872   4.427   9.570
34903SOL    HW2 6607   7.848   4.294   9.503
34904SOL     OW 6608  11.821   7.051  10.163
34904SOL    HW1 6609  11.765   7.033  10.238
34904SOL    HW2 6610  11.847   7.143  10.174
34905SOL     OW 6611  10.170   4.949  11.369
34905SOL    HW1 6612  10.247   4.978  11.320
34905SOL    HW2 6613  10.198   4.870  11.414
34906SOL     OW 6614   0.686   4.425  11.878
34906SOL    HW1 6615   0.729   4.367  11.940
34906SOL    HW2 6616   0.685   4.376  11.796
34907SOL     OW 6617   6.721   1.217   8.355
34907SOL    HW1 6618   6.760   1.151   8.298
34907SOL    HW2 6619   6.718   1.176   8.442
34908SOL     OW 6620  14.390   3.368   1.519
34908SOL    HW1 6621  14.337   3.290   1.498
34908SOL    HW2 6622  14.327   3.439   1.524
34909SOL     OW 6623  14.126  11.790  13.778
34909SOL    HW1 6624  14.209  11.744  13.793
34909SOL    HW2 6625  14.141  11.878  13.810
34910SOL     OW 6626   3.767  11.851   4.606
34910SOL    HW1 6627   3.730  11.805   4.681
34910SOL    HW2 6628   3.733  11.940   4.614
34911SOL     OW 6629   4.175   4.887  10.759
34911SOL    HW1 6630   4.162   4.944  10.684
34911SOL    HW2 6631   4.086   4.871  10.792
34912SOL     OW 6632   5.403  12.996   4.159
34912SOL    HW1 6633   5.461  12.996   4.082
34912SOL    HW2 6634   5.322  13.036   4.128
34913SOL     OW 6635  11.255   2.356  11.584
34913SOL    HW1 6636  11.233   2.411  11.659
34913SOL    HW2 6637  11.175   2.353  11.531
34914SOL     OW 6638   8.033   5.012  14.172
34914SOL    HW1 6639   8.106   5.048  14.222
34914SOL    HW2 6640   8.009   4.932  14.219
34915SOL     OW 6641   0.277   6.012  10.979
34915SOL    HW1 6642   0.333   6.084  10.950
34915SOL    HW2 6643   0.289   6.009  11.074
34916SOL     OW 6644   0.727   9.061   6.979
34916SOL    HW1 6645   0.717   9.151   7.011
34916SOL    HW2 6646   0.817   9.058   6.947
34917SOL     OW 6647   3.906   3.400   6.903
34917SOL    HW1 6648   3.881   3.392   6.995
34917SOL    HW2 6649   3.896   3.493   6.884
34918SOL     OW 6650   8.702   0.265  13.781
34918SOL    HW1 6651   8.744   0.179  13.778
34918SOL    HW2 6652   8.664   0.271  13.869
34919SOL     OW 6653   6.767  14.708   2.805
34919SOL    HW1 6654   6.836  14.680   2.745
34919SOL    HW2 6655   6.787  14.800   2.823
34920SOL     OW 6656  11.662   4.072   5.685
34920SOL    HW1 6657  11.575   4.033   5.697
34920SOL    HW2 6658  11.644   4.162   5.659
34921SOL     OW 6659   7.498  11.587  10.019
34921SOL    HW1 6660   7.559  11.641   9.969
34921SOL    HW2 6661   7.489  11.632  10.103
34922SOL     OW 6662  13.281   8.832   2.190
34922SOL    HW1 6663  13.337   8.910   2.190
34922SOL    HW2 6664  13.322   8.772   2.252
34923SOL     OW 6665   7.669  12.485  14.775
34923SOL    HW1 6666   7.741  12.491  14.837
34923SOL    HW2 6667   7.707  12.443  14.698
34924SOL     OW 6668  12.776   1.576   1.295
34924SOL    HW1 6669  12.840   1.620   1.351
34924SOL    HW2 6670  12.797   1.483   1.304
34925SOL     OW 6671   1.729   9.499   5.385
34925SOL    HW1 6672   1.761   9.526   5.299
34925SOL    HW2 6673   1.806   9.466   5.430
34926SOL     OW 6674  14.237   0.630   9.702
34926SOL    HW1 6675  14.305   0.618   9.768
34926SOL    HW2 6676  14.235   0.724   9.686
34927SOL     OW 6677  12.503   1.303  11.436
34927SOL    HW1 6678  12.531   1.290  11.527
34927SOL    HW2 6679  12.408   1.312  11.442
34928SOL     OW 6680  10.214   8.575  10.923
34928SOL    HW1 6681  10.137   8.614  10.881
34928SOL    HW2 6682  10.187   8.562  11.014
34929SOL     OW 6683   2.495   5.483  12.604
34929SOL    HW1 6684   2.418   5.471  12.660
34929SOL    HW2 6685   2.569   5.487  12.665
34930SOL     OW 6686   8.580  14.328   6.408
34930SOL    HW1 6687   8.561  14.235   6.416
34930SOL    HW2 6688   8.595  14.358   6.498
34931SOL     OW 6689  13.732  14.088   0.051
34931SOL    HW1 6690  13.751  14.178   0.025
34931SOL    HW2 6691  13.815  14.042   0.040
34932SOL     OW 6692   2.418   0.463  13.467
34932SOL    HW1 6693   2.464   0.381  13.488
34932SOL    HW2 6694   2.341   0.462  13.523
34933SOL     OW 6695   5.958   2.923  14.144
34933SOL    HW1 6696   5.939   3.016  14.133
34933SOL    HW2 6697   5.877   2.885  14.177
34934SOL     OW 6698  10.065   5.023  11.661
34934SOL    HW1 6699  10.098   5.110  11.637
34934SOL    HW2 6700  10.133   4.963  11.633
34935SOL     OW 6701   2.508   9.243   7.995
34935SOL    HW1 6702   2.576   9.302   7.961
34935SOL    HW2 6703   2.515   9.250   8.090
34936SOL     OW 6704   2.306   7.563  14.243
34936SOL    HW1 6705   2.212   7.580  14.249
34936SOL    HW2 6706   2.313   7.470  14.225
34937SOL     OW 6707  13.195  11.157   8.044
34937SOL    HW1 6708  13.247  11.085   8.009
34937SOL    HW2 6709  13.129  11.115   8.099
34938SOL     OW 6710   6.536  11.009  12.262
34938SOL    HW1 6711   6.455  10.971  12.298
34938SOL    HW2 6712   6.508  11.094  12.226
34939SOL     OW 6713   0.351   2.225   4.654
34939SOL    HW1 6714   0.414   2.165   4.693
34939SOL    HW2 6715   0.345   2.297   4.717
34940SOL     OW 6716   3.038   2.784   4.743
34940SOL    HW1 6717   2.994   2.802   4.660
34940SOL    HW2 6718   3.123   2.826   4.735
34941SOL     OW 6719   1.623   1.317   6.393
34941SOL    HW1 6720   1.669   1.272   6.323
34941SOL    HW2 6721   1.676   1.395   6.410
34942SOL     OW 6722   2.499  14.440   3.465
34942SOL    HW1 6723   2.507  14.346   3.446
34942SOL    HW2 6724   2.434  14.472   3.403
34943SOL     OW 6725  13.546   2.021   8.387
34943SOL    HW1 6726  13.543   2.059   8.475
34943SOL    HW2 6727  13.561   1.928   8.402
34944SOL     OW 6728   2.976  10.365   1.589
34944SOL    HW1 6729   2.997  10.450   1.627
34944SOL    HW2 6730   2.981  10.379   1.495
34945SOL     OW 6731   4.047   9.773   2.227
34945SOL    HW1 6732   4.011   9.706   2.285
34945SOL    HW2 6733   3.978   9.839   2.221
34946SOL     OW 6734   6.848   6.808  10.018
34946SOL    HW1 6735   6.869   6.748   9.946
34946SOL    HW2 6736   6.928   6.858  10.032
34947SOL     OW 6737  10.811   2.140  12.624
34947SOL    HW1 6738  10.768   2.190  12.556
34947SOL    HW2 6739  10.742   2.088  12.664
34948SOL     OW 6740   6.988   5.649   9.873
34948SOL    HW1 6741   6.928   5.713   9.911
34948SOL    HW2 6742   7.013   5.686   9.788
34949SOL     OW 6743   6.574   6.291  10.129
34949SOL    HW1 6744   6.587   6.350  10.203
34949SOL    HW2 6745   6.479   6.280  10.124
34950SOL     OW 6746  11.049  13.716   4.603
34950SOL    HW1 6747  11.052  13.746   4.694
34950SOL    HW2 6748  11.039  13.795   4.552
34951SOL     OW 6749   4.934   4.899   2.342
34951SOL    HW1 6750   4.947   4.830   2.408
34951SOL    HW2 6751   5.023   4.928   2.320
34952SOL     OW 6752   8.570   5.826   5.316
34952SOL    HW1 6753   8.535   5.797   5.400
34952SOL    HW2 6754   8.642   5.885   5.339
34953SOL     OW 6755  11.366   5.412   7.022
34953SOL    HW1 6756  11.442   5.460   7.053
34953SOL    HW2 6757  11.365   5.427   6.927
34954SOL     OW 6758  13.074   2.366  14.717
34954SOL    HW1 6759  13.009   2.303  14.687
34954SOL    HW2 6760  13.127   2.317  14.780
34955SOL     OW 6761  10.312   3.703   3.248
34955SOL    HW1 6762  10.367   3.663   3.181
34955SOL    HW2 6763  10.227   3.715   3.205
34956SOL     OW 6764   9.399   7.186  11.099
34956SOL    HW1 6765   9.314   7.187  11.054
34956SOL    HW2 6766   9.449   7.119  11.054
34957SOL     OW 6767   5.975  12.960   4.277
34957SOL    HW1 6768   5.992  12.881   4.225
34957SOL    HW2 6769   5.996  13.033   4.219
34958SOL     OW 6770   4.705  12.010   6.457
34958SOL    HW1 6771   4.752  12.065   6.394
34958SOL    HW2 6772   4.613  12.034   6.446
34959SOL     OW 6773  11.783   5.660   1.358
34959SOL    HW1 6774  11.754   5.749   1.377
34959SOL    HW2 6775  11.749   5.641   1.271
34960SOL     OW 6776   1.133  13.853   3.997
34960SOL    HW1 6777   1.101  13.794   4.065
34960SOL    HW2 6778   1.219  13.818   3.973
34961SOL     OW 6779   5.536   4.602   7.761
34961SOL    HW1 6780   5.454   4.618   7.714
34961SOL    HW2 6781   5.580   4.688   7.761
34962SOL     OW 6782  14.281   5.861  10.028
34962SOL    HW1 6783  14.299   5.855  10.122
34962SOL    HW2 6784  14.306   5.951  10.004
34963SOL     OW 6785  11.491   3.703  10.532
34963SOL    HW1 6786  11.483   3.697  10.627
34963SOL    HW2 6787  11.492   3.797  10.514
34964SOL     OW 6788   1.740  13.782   2.493
34964SOL    HW1 6789   1.695  13.698   2.481
34964SOL    HW2 6790   1.770  13.781   2.584
34965SOL     OW 6791   6.517  10.646  13.571
34965SOL    HW1 6792   6.442  10.651  13.629
34965SOL    HW2 6793   6.482  10.666  13.484
34966SOL     OW 6794   9.347   4.876   8.976
34966SOL    HW1 6795   9.300   4.955   8.950
34966SOL    HW2 6796   9.437   4.892   8.947
34967SOL     OW 6797   8.945   9.112  14.030
34967SOL    HW1 6798   9.035   9.119  14.061
34967SOL    HW2 6799   8.893   9.155  14.098
34968SOL     OW 6800   0.080   1.751  12.428
34968SOL    HW1 6801   0.098   1.683  12.364
34968SOL    HW2 6802   0.080   1.833  12.378
34969SOL     OW 6803   0.063   4.971   8.841
34969SOL    HW1 6804  14.859   4.913   8.846
34969SOL    HW2 6805   0.027   5.057   8.820
34970SOL     OW 6806  13.068   9.495   4.546
34970SOL    HW1 6807  13.158   9.491   4.514
34970SOL    HW2 6808  13.022   9.428   4.497
34971SOL     OW 6809  14.503   8.776   9.032
34971SOL    HW1 6810  14.465   8.774   9.120
34971SOL    HW2 6811  14.566   8.848   9.035
34972SOL     OW 6812  10.291   7.446   6.265
34972SOL    HW1 6813  10.275   7.379   6.332
34972SOL    HW2 6814  10.302   7.396   6.184
34973SOL     OW 6815  11.052  10.589   2.271
34973SOL    HW1 6816  10.964  10.599   2.233
34973SOL    HW2 6817  11.040  10.529   2.344
34974SOL     OW 6818   4.957   2.616   0.284
34974SOL    HW1 6819   5.018   2.562   0.334
34974SOL    HW2 6820   4.896   2.650   0.349
34975SOL     OW 6821   3.882   5.554   7.813
34975SOL    HW1 6822   3.964   5.530   7.770
34975SOL    HW2 6823   3.900   5.545   7.906
34976SOL     OW 6824  11.117  10.256   7.463
34976SOL    HW1 6825  11.109  10.346   7.432
34976SOL    HW2 6826  11.032  10.216   7.443
34977SOL     OW 6827   1.016   3.528   8.967
34977SOL    HW1 6828   1.044   3.442   8.937
34977SOL    HW2 6829   0.955   3.559   8.899
34978SOL     OW 6830   5.201  12.513   8.847
34978SOL    HW1 6831   5.193  12.584   8.784
34978SOL    HW2 6832   5.132  12.530   8.911
34979SOL     OW 6833   2.685   9.005   4.154
34979SOL    HW1 6834   2.756   8.956   4.113
34979SOL    HW2 6835   2.728   9.083   4.190
34980SOL     OW 6836   4.906  10.276   6.840
34980SOL    HW1 6837   4.866  10.196   6.874
34980SOL    HW2 6838   4.977  10.294   6.901
34981SOL     OW 6839   2.924   7.821   4.961
34981SOL    HW1 6840   2.933   7.732   4.996
34981SOL    HW2 6841   2.975   7.876   5.022
34982SOL     OW 6842   0.128   8.255  14.665
34982SOL    HW1 6843   0.110   8.319  14.734
34982SOL    HW2 6844   0.144   8.308  14.587
34983SOL     OW 6845  11.847   4.130  10.561
34983SOL    HW1 6846  11.939   4.146  10.541
34983SOL    HW2 6847  11.813   4.215  10.587
34984SOL     OW 6848   8.527   3.954   6.454
34984SOL    HW1 6849   8.621   3.962   6.437
34984SOL    HW2 6850   8.496   4.045   6.458
34985SOL     OW 6851   6.350  13.252   9.588
34985SOL    HW1 6852   6.288  13.180   9.602
34985SOL    HW2 6853   6.395  13.261   9.672
34986SOL     OW 6854   5.114   3.575   6.172
34986SOL    HW1 6855   5.046   3.611   6.115
34986SOL    HW2 6856   5.179   3.540   6.111
34987SOL     OW 6857  14.706  10.249  13.715
34987SOL    HW1 6858  14.697  10.157  13.691
34987SOL    HW2 6859  14.727  10.248  13.808
34988SOL     OW 6860   7.806  13.391   5.972
34988SOL    HW1 6861   7.874  13.330   5.941
34988SOL    HW2 6862   7.727  13.363   5.926
34989SOL     OW 6863   7.923   8.074   8.867
34989SOL    HW1 6864   7.983   8.149   8.865
34989SOL    HW2 6865   7.849   8.101   8.813
34990SOL     OW 6866   9.692  14.164   4.064
34990SOL    HW1 6867   9.626  14.101   4.039
34990SOL    HW2 6868   9.771  14.112   4.078
34991SOL     OW 6869   6.311   9.058   0.458
34991SOL    HW1 6870   6.319   9.143   0.500
34991SOL    HW2 6871   6.244   9.070   0.391
34992SOL     OW 6872   8.941   4.291   7.358
34992SOL    HW1 6873   8.907   4.366   7.309
34992SOL    HW2 6874   8.929   4.216   7.299
34993SOL     OW 6875   6.503  14.213   0.172
34993SOL    HW1 6876   6.521  14.299   0.133
34993SOL    HW2 6877   6.575  14.157   0.142
34994SOL     OW 6878   9.366   7.888  13.157
34994SOL    HW1 6879   9.284   7.840  13.146
34994SOL    HW2 6880   9.425   7.826  13.200
34995SOL     OW 6881  12.878  14.070   2.572
34995SOL    HW1 6882  12.857  14.146   2.627
34995SOL    HW2 6883  12.812  14.072   2.503
34996SOL     OW 6884  12.906   6.065   1.802
34996SOL    HW1 6885  12.882   6.013   1.726
34996SOL    HW2 6886  12.837   6.047   1.866
34997SOL     OW 6887   4.699   9.184   6.002
34997SOL    HW1 6888   4.729   9.274   6.013
34997SOL    HW2 6889   4.698   9.170   5.907
34998SOL     OW 6890   8.876  13.827   0.649
34998SOL    HW1 6891   8.944  13.765   0.674
34998SOL    HW2 6892   8.881  13.896   0.716
34999SOL     OW 6893   4.133   1.799   8.876
34999SOL    HW1 6894   4.152   1.884   8.837
34999SOL    HW2 6895   4.107   1.744   8.802
35000SOL     OW 6896   6.376   3.948   7.988
35000SOL    HW1 6897   6.391   3.955   7.893
35000SOL    HW2 6898   6.457   3.983   8.027
35001SOL     OW 6899   3.831   9.790  10.055
35001SOL    HW1 6900   3.902   9.784  10.119
35001SOL    HW2 6901   3.813   9.883  10.046
35002SOL     OW 6902  10.698   4.266   7.659
35002SOL    HW1 6903  10.715   4.287   7.751
35002SOL    HW2 6904  10.623   4.207   7.661
35003SOL     OW 6905   1.999  12.063   4.300
35003SOL    HW1 6906   1.942  12.103   4.235
35003SOL    HW2 6907   2.063  12.013   4.249
35004SOL     OW 6908   2.150  10.020  10.595
35004SOL    HW1 6909   2.144  10.088  10.527
35004SOL    HW2 6910   2.235   9.979  10.579
35005SOL     OW 6911   8.464  13.473  12.480
35005SOL    HW1 6912   8.411  13.468  12.560
35005SOL    HW2 6913   8.400  13.488  12.410
35006SOL     OW 6914   2.205   8.832   5.571
35006SOL    HW1 6915   2.240   8.905   5.622
35006SOL    HW2 6916   2.174   8.872   5.489
35007SOL     OW 6917   7.020   4.852   0.905
35007SOL    HW1 6918   7.013   4.807   0.989
35007SOL    HW2 6919   7.115   4.863   0.892
35008SOL     OW 6920   7.848   2.126   0.145
35008SOL    HW1 6921   7.788   2.190   0.108
35008SOL    HW2 6922   7.932   2.145   0.104
35009SOL     OW 6923  12.228   9.674   8.343
35009SOL    HW1 6924  12.172   9.696   8.416
35009SOL    HW2 6925  12.210   9.582   8.325
35010SOL     OW 6926  13.263  11.875  10.300
35010SOL    HW1 6927  13.264  11.936  10.374
35010SOL    HW2 6928  13.334  11.814  10.317
35011SOL     OW 6929   6.171   0.695   5.471
35011SOL    HW1 6930   6.222   0.645   5.408
35011SOL    HW2 6931   6.134   0.630   5.530
35012SOL     OW 6932   2.445   6.196   1.149
35012SOL    HW1 6933   2.425   6.161   1.062
35012SOL    HW2 6934   2.493   6.277   1.131
35013SOL     OW 6935   8.001   2.841   9.002
35013SOL    HW1 6936   7.931   2.889   8.957
35013SOL    HW2 6937   7.981   2.749   8.985
35014SOL     OW 6938  12.958   7.491   7.493
35014SOL    HW1 6939  12.867   7.521   7.498
35014SOL    HW2 6940  12.956   7.420   7.429
35015SOL     OW 6941   7.488  12.241   0.331
35015SOL    HW1 6942   7.528  12.169   0.282
35015SOL    HW2 6943   7.395  12.237   0.308
35016SOL     OW 6944   9.642  11.899  11.661
35016SOL    HW1 6945   9.679  11.823  11.617
35016SOL    HW2 6946   9.548  11.892  11.647
35017SOL     OW 6947   5.140   6.070  12.253
35017SOL    HW1 6948   5.157   6.048  12.345
35017SOL    HW2 6949   5.171   6.160  12.244
35018SOL     OW 6950  14.275   0.034   3.268
35018SOL    HW1 6951  14.279  14.832   3.329
35018SOL    HW2 6952  14.277   0.111   3.325
35019SOL     OW 6953   0.688   9.665  13.028
35019SOL    HW1 6954   0.731   9.653  13.112
35019SOL    HW2 6955   0.609   9.611  13.033
35020SOL     OW 6956  12.543   5.225   7.458
35020SOL    HW1 6957  12.499   5.169   7.521
35020SOL    HW2 6958  12.604   5.167   7.412
35021SOL     OW 6959  10.518   5.823   7.103
35021SOL    HW1 6960  10.461   5.900   7.100
35021SOL    HW2 6961  10.604   5.855   7.076
35022SOL     OW 6962  13.456  13.826   9.486
35022SOL    HW1 6963  13.492  13.809   9.573
35022SOL    HW2 6964  13.439  13.920   9.485
35023SOL     OW 6965   1.068   8.245   3.031
35023SOL    HW1 6966   1.029   8.160   3.009
35023SOL    HW2 6967   1.161   8.234   3.011
35024SOL     OW 6968  13.007   3.138   7.235
35024SOL    HW1 6969  12.996   3.043   7.225
35024SOL    HW2 6970  12.917   3.171   7.241
35025SOL     OW 6971   7.891   0.339   3.474
35025SOL    HW1 6972   7.977   0.374   3.450
35025SOL    HW2 6973   7.863   0.393   3.548
35026SOL     OW 6974   8.175  11.723   8.975
35026SOL    HW1 6975   8.086  11.695   8.994
35026SOL    HW2 6976   8.182  11.717   8.879
35027SOL     OW 6977   4.836  11.430  10.322
35027SOL    HW1 6978   4.895  11.469  10.387
35027SOL    HW2 6979   4.748  11.449  10.356
35028SOL     OW 6980   2.405   9.786   8.835
35028SOL    HW1 6981   2.469   9.816   8.770
35028SOL    HW2 6982   2.385   9.696   8.809
35029SOL     OW 6983   7.872  10.663  14.820
35029SOL    HW1 6984   7.843  10.584  14.866
35029SOL    HW2 6985   7.854  10.644  14.728
35030SOL     OW 6986  14.332  11.429  10.109
35030SOL    HW1 6987  14.262  11.391  10.055
35030SOL    HW2 6988  14.287  11.491  10.166
35031SOL     OW 6989   2.022   6.738   6.988
35031SOL    HW1 6990   2.052   6.794   6.916
35031SOL    HW2 6991   2.073   6.765   7.064
35032SOL     OW 6992   6.064   2.125   5.131
35032SOL    HW1 6993   6.025   2.073   5.201
35032SOL    HW2 6994   6.012   2.104   5.053
35033SOL     OW 6995   5.891   0.793   9.908
35033SOL    HW1 6996   5.956   0.745   9.856
35033SOL    HW2 6997   5.899   0.756   9.996
35034SOL     OW 6998  12.739   7.371  11.367
35034SOL    HW1 6999  12.691   7.417  11.297
35034SOL    HW2 7000  12.684   7.381  11.444
35035SOL     OW 7001   9.634  10.072   6.253
35035SOL    HW1 7002   9.656   9.988   6.213
35035SOL    HW2 7003   9.641  10.055   6.347
35036SOL     OW 7004  12.853   0.332   0.365
35036SOL    HW1 7005  12.778   0.347   0.309
35036SOL    HW2 7006  12.816   0.298   0.447
35037SOL     OW 7007   1.779   6.802   2.299
35037SOL    HW1 7008   1.710   6.768   2.356
35037SOL    HW2 7009   1.740   6.881   2.260
35038SOL     OW 7010  12.468   7.152   9.493
35038SOL    HW1 7011  12.551   7.138   9.446
35038SOL    HW2 7012  12.408   7.186   9.426
35039SOL     OW 7013   2.223   1.148  10.834
35039SOL    HW1 7014   2.292   1.093  10.872
35039SOL    HW2 7015   2.257   1.172  10.748
35040SOL     OW 7016   9.400   2.146  14.531
35040SOL    HW1 7017   9.483   2.185  14.557
35040SOL    HW2 7018   9.418   2.052  14.525
35041SOL     OW 7019   2.829   8.123  12.333
35041SOL    HW1 7020   2.790   8.149  12.416
35041SOL    HW2 7021   2.891   8.192  12.312
35042SOL     OW 7022   7.986  10.349   5.180
35042SOL    HW1 7023   7.927  10.294   5.129
35042SOL    HW2 7024   7.932  10.421   5.210
35043SOL     OW 7025  13.614   5.274   3.257
35043SOL    HW1 7026  13.570   5.357   3.239
35043SOL    HW2 7027  13.616   5.229   3.173
35044SOL     OW 7028  14.053   4.180  13.557
35044SOL    HW1 7029  14.057   4.104  13.499
35044SOL    HW2 7030  14.024   4.251  13.500
35045SOL     OW 7031  13.996   1.806   3.764
35045SOL    HW1 7032  14.010   1.715   3.736
35045SOL    HW2 7033  14.027   1.808   3.855
35046SOL     OW 7034   7.636   4.783   7.382
35046SOL    HW1 7035   7.681   4.782   7.298
35046SOL    HW2 7036   7.547   4.753   7.363
35047SOL     OW 7037   5.865  11.192   0.023
35047SOL    HW1 7038   5.948  11.161   0.059
35047SOL    HW2 7039   5.866  11.164  14.803
35048SOL     OW 7040   9.286   2.724  14.335
35048SOL    HW1 7041   9.306   2.650  14.277
35048SOL    HW2 7042   9.356   2.723  14.401
35049SOL     OW 7043   1.653   2.577  11.885
35049SOL    HW1 7044   1.732   2.538  11.922
35049SOL    HW2 7045   1.667   2.574  11.790
35050SOL     OW 7046   7.517   7.970   1.693
35050SOL    HW1 7047   7.612   7.961   1.687
35050SOL    HW2 7048   7.504   8.035   1.762
35051SOL     OW 7049   8.715  11.715  14.520
35051SOL    HW1 7050   8.751  11.765  14.447
35051SOL    HW2 7051   8.656  11.652  14.479
35052SOL     OW 7052   5.605   7.362   9.549
35052SOL    HW1 7053   5.673   7.424   9.523
35052SOL    HW2 7054   5.622   7.347   9.642
35053SOL     OW 7055  10.686   3.045   0.614
35053SOL    HW1 7056  10.617   3.092   0.565
35053SOL    HW2 7057  10.725   3.112   0.670
35054SOL     OW 7058   0.589  13.335  12.621
35054SOL    HW1 7059   0.545  13.417  12.597
35054SOL    HW2 7060   0.544  13.305  12.700
35055SOL     OW 7061   7.292   2.360   8.669
35055SOL    HW1 7062   7.288   2.446   8.629
35055SOL    HW2 7063   7.201   2.340   8.692
35056SOL     OW 7064   2.427   6.489  11.580
35056SOL    HW1 7065   2.397   6.577  11.601
35056SOL    HW2 7066   2.508   6.503  11.530
35057SOL     OW 7067  10.119  11.474   8.214
35057SOL    HW1 7068  10.179  11.466   8.139
35057SOL    HW2 7069  10.171  11.444   8.289
35058SOL     OW 7070   8.043   9.791   6.757
35058SOL    HW1 7071   8.046   9.816   6.664
35058SOL    HW2 7072   8.135   9.776   6.780
35059SOL     OW 7073   8.391   4.840   0.592
35059SOL    HW1 7074   8.387   4.926   0.550
35059SOL    HW2 7075   8.415   4.858   0.683
35060SOL     OW 7076   9.332  14.280  13.559
35060SOL    HW1 7077   9.331  14.230  13.641
35060SOL    HW2 7078   9.249  14.258  13.516
35061SOL     OW 7079  13.824   5.508   4.736
35061SOL    HW1 7080  13.759   5.437   4.732
35061SOL    HW2 7081  13.898   5.475   4.686
35062SOL     OW 7082   9.239   0.764   8.502
35062SOL    HW1 7083   9.230   0.854   8.470
35062SOL    HW2 7084   9.174   0.756   8.571
35063SOL     OW 7085   8.103   6.611  11.003
35063SOL    HW1 7086   8.031   6.672  10.986
35063SOL    HW2 7087   8.178   6.650  10.957
35064SOL     OW 7088  13.964   6.174   7.133
35064SOL    HW1 7089  14.002   6.173   7.221
35064SOL    HW2 7090  13.900   6.103   7.134
35065SOL     OW 7091   0.522   6.150  11.202
35065SOL    HW1 7092   0.566   6.071  11.172
35065SOL    HW2 7093   0.469   6.120  11.276
35066SOL     OW 7094   4.159   1.046   1.780
35066SOL    HW1 7095   4.194   1.053   1.869
35066SOL    HW2 7096   4.101   1.121   1.770
35067SOL     OW 7097   7.448  11.799   2.772
35067SOL    HW1 7098   7.446  11.706   2.796
35067SOL    HW2 7099   7.388  11.806   2.698
35068SOL     OW 7100   1.809  10.507   3.987
35068SOL    HW1 7101   1.792  10.540   3.899
35068SOL    HW2 7102   1.722  10.497   4.027
35069SOL     OW 7103  14.465  10.612   2.942
35069SOL    HW1 7104  14.492  10.652   2.860
35069SOL    HW2 7105  14.541  10.621   3.000
35070SOL     OW 7106  13.945   4.772   0.084
35070SOL    HW1 7107  13.919   4.812   0.001
35070SOL    HW2 7108  13.877   4.708   0.102
35071SOL     OW 7109  12.491  10.873   9.474
35071SOL    HW1 7110  12.407  10.915   9.456
35071SOL    HW2 7111  12.529  10.926   9.544
35072SOL     OW 7112   7.782   6.515  11.210
35072SOL    HW1 7113   7.781   6.609  11.228
35072SOL    HW2 7114   7.797   6.474  11.296
35073SOL     OW 7115  14.334   2.321  12.045
35073SOL    HW1 7116  14.360   2.229  12.043
35073SOL    HW2 7117  14.402   2.363  12.099
35074SOL     OW 7118   8.838   8.938  14.666
35074SOL    HW1 7119   8.861   8.939  14.573
35074SOL    HW2 7120   8.912   8.895  14.708
35075SOL     OW 7121  12.847   9.706   1.461
35075SOL    HW1 7122  12.786   9.690   1.533
35075SOL    HW2 7123  12.929   9.665   1.490
35076SOL     OW 7124   9.801   2.475   4.048
35076SOL    HW1 7125   9.720   2.437   4.081
35076SOL    HW2 7126   9.780   2.504   3.960
35077SOL     OW 7127   5.897   9.617   0.391
35077SOL    HW1 7128   5.990   9.600   0.408
35077SOL    HW2 7129   5.867   9.540   0.342
35078SOL     OW 7130   0.265   4.041   5.905
35078SOL    HW1 7131   0.304   4.123   5.936
35078SOL    HW2 7132   0.340   3.988   5.877
35079SOL     OW 7133   2.092  12.544  11.633
35079SOL    HW1 7134   2.040  12.531  11.553
35079SOL    HW2 7135   2.178  12.510  11.610
35080SOL     OW 7136   3.987   3.421   2.902
35080SOL    HW1 7137   4.071   3.443   2.941
35080SOL    HW2 7138   3.938   3.377   2.972
35081SOL     OW 7139   8.160   9.575  14.563
35081SOL    HW1 7140   8.249   9.538  14.560
35081SOL    HW2 7141   8.170   9.664  14.528
35082SOL     OW 7142   6.454  11.468   8.762
35082SOL    HW1 7143   6.380  11.474   8.822
35082SOL    HW2 7144   6.416  11.431   8.682
35083SOL     OW 7145   2.361  11.615   1.251
35083SOL    HW1 7146   2.323  11.664   1.324
35083SOL    HW2 7147   2.287  11.602   1.191
35084SOL     OW 7148   7.535   0.790  11.845
35084SOL    HW1 7149   7.506   0.704  11.816
35084SOL    HW2 7150   7.460   0.847  11.831
35085SOL     OW 7151   1.670   5.303   1.700
35085SOL    HW1 7152   1.652   5.211   1.681
35085SOL    HW2 7153   1.766   5.308   1.707
35086SOL     OW 7154  14.711   3.169   1.346
35086SOL    HW1 7155  14.664   3.098   1.391
35086SOL    HW2 7156  14.790   3.127   1.311
35087SOL     OW 7157   6.063   8.260  12.412
35087SOL    HW1 7158   5.997   8.320  12.447
35087SOL    HW2 7159   6.102   8.308  12.339
35088SOL     OW 7160   5.299   1.165  11.349
35088SOL    HW1 7161   5.257   1.245  11.381
35088SOL    HW2 7162   5.345   1.192  11.269
35089SOL     OW 7163  11.275  11.665   4.315
35089SOL    HW1 7164  11.291  11.757   4.294
35089SOL    HW2 7165  11.326  11.649   4.395
35090SOL     OW 7166   8.110   4.213   1.817
35090SOL    HW1 7167   8.180   4.251   1.870
35090SOL    HW2 7168   8.066   4.288   1.777
35091SOL     OW 7169   8.642   6.781   6.819
35091SOL    HW1 7170   8.571   6.718   6.807
35091SOL    HW2 7171   8.704   6.737   6.878
35092SOL     OW 7172   2.490   4.058   2.056
35092SOL    HW1 7173   2.409   4.007   2.062
35092SOL    HW2 7174   2.468   4.129   1.996
35093SOL     OW 7175   7.129  12.119   2.608
35093SOL    HW1 7176   7.197  12.131   2.675
35093SOL    HW2 7177   7.155  12.040   2.561
35094SOL     OW 7178  11.025  12.065  10.582
35094SOL    HW1 7179  10.987  12.096  10.500
35094SOL    HW2 7180  11.059  11.978  10.562
35095SOL     OW 7181   8.297   9.100   7.438
35095SOL    HW1 7182   8.320   9.172   7.378
35095SOL    HW2 7183   8.274   9.144   7.520
35096SOL     OW 7184   9.446  11.708   9.574
35096SOL    HW1 7185   9.526  11.656   9.589
35096SOL    HW2 7186   9.424  11.743   9.660
35097SOL     OW 7187   9.747   1.132  11.921
35097SOL    HW1 7188   9.714   1.199  11.982
35097SOL    HW2 7189   9.669   1.082  11.897
35098SOL     OW 7190   5.671  11.781   9.522
35098SOL    HW1 7191   5.583  11.761   9.492
35098SOL    HW2 7192   5.729  11.745   9.454
35099SOL     OW 7193  14.289  14.316   8.394
35099SOL    HW1 7194  14.218  14.365   8.436
35099SOL    HW2 7195  14.304  14.361   8.311
35100SOL     OW 7196  11.705  12.155  12.480
35100SOL    HW1 7197  11.684  12.217  12.410
35100SOL    HW2 7198  11.734  12.076  12.434
35101SOL     OW 7199   5.873  13.861   5.469
35101SOL    HW1 7200   5.876  13.765   5.463
35101SOL    HW2 7201   5.935  13.882   5.539
35102SOL     OW 7202   4.864  13.135   0.182
35102SOL    HW1 7203   4.844  13.152   0.090
35102SOL    HW2 7204   4.959  13.124   0.184
35103SOL     OW 7205   8.797   0.762  13.219
35103SOL    HW1 7206   8.727   0.819  13.188
35103SOL    HW2 7207   8.878   0.808  13.196
35104SOL     OW 7208   9.698   6.707   5.154
35104SOL    HW1 7209   9.746   6.638   5.108
35104SOL    HW2 7210   9.632   6.735   5.091
35105SOL     OW 7211  11.414  12.909  10.348
35105SOL    HW1 7212  11.505  12.908  10.377
35105SOL    HW2 7213  11.363  12.898  10.429
35106SOL     OW 7214   8.921   6.167   3.162
35106SOL    HW1 7215   8.994   6.221   3.133
35106SOL    HW2 7216   8.936   6.154   3.256
35107SOL     OW 7217  11.893  14.553  13.938
35107SOL    HW1 7218  11.871  14.593  14.022
35107SOL    HW2 7219  11.913  14.462  13.960
35108SOL     OW 7220  11.515   0.125  10.764
35108SOL    HW1 7221  11.528   0.215  10.734
35108SOL    HW2 7222  11.454   0.088  10.701
35109SOL     OW 7223   9.731   0.900  11.706
35109SOL    HW1 7224   9.742   0.981  11.655
35109SOL    HW2 7225   9.812   0.893  11.757
35110SOL     OW 7226  12.388   8.460  11.151
35110SOL    HW1 7227  12.465   8.408  11.174
35110SOL    HW2 7228  12.345   8.478  11.235
35111SOL     OW 7229   8.142  12.331   8.398
35111SOL    HW1 7230   8.133  12.245   8.439
35111SOL    HW2 7231   8.125  12.394   8.469
35112SOL     OW 7232  13.394   7.497   8.845
35112SOL    HW1 7233  13.394   7.565   8.777
35112SOL    HW2 7234  13.306   7.499   8.881
35113SOL     OW 7235  10.126   0.515   7.829
35113SOL    HW1 7236  10.050   0.549   7.875
35113SOL    HW2 7237  10.115   0.420   7.829
35114SOL     OW 7238   5.048  11.094   5.493
35114SOL    HW1 7239   5.138  11.065   5.491
35114SOL    HW2 7240   5.008  11.056   5.415
35115SOL     OW 7241  13.601   2.128   6.587
35115SOL    HW1 7242  13.583   2.034   6.592
35115SOL    HW2 7243  13.581   2.161   6.675
35116SOL     OW 7244   2.870   8.225  14.575
35116SOL    HW1 7245   2.963   8.221  14.596
35116SOL    HW2 7246   2.865   8.198  14.483
35117SOL     OW 7247   8.445  10.932   1.881
35117SOL    HW1 7248   8.443  11.001   1.947
35117SOL    HW2 7249   8.538  10.915   1.867
35118SOL     OW 7250   9.992  11.415   4.402
35118SOL    HW1 7251  10.028  11.427   4.314
35118SOL    HW2 7252   9.908  11.372   4.388
35119SOL     OW 7253  10.999   0.371   2.152
35119SOL    HW1 7254  11.071   0.402   2.208
35119SOL    HW2 7255  10.920   0.395   2.200
35120SOL     OW 7256   3.911   2.717   9.606
35120SOL    HW1 7257   3.945   2.806   9.602
35120SOL    HW2 7258   3.885   2.706   9.698
35121SOL     OW 7259   0.636  12.644   7.673
35121SOL    HW1 7260   0.573  12.654   7.601
35121SOL    HW2 7261   0.721  12.662   7.633
35122SOL     OW 7262   9.897  14.041  12.432
35122SOL    HW1 7263   9.855  14.089  12.361
35122SOL    HW2 7264   9.984  14.079  12.438
35123SOL     OW 7265  12.751   8.677   0.435
35123SOL    HW1 7266  12.741   8.605   0.498
35123SOL    HW2 7267  12.842   8.671   0.406
35124SOL     OW 7268  11.635  13.580   4.171
35124SOL    HW1 7269  11.695  13.651   4.149
35124SOL    HW2 7270  11.668  13.546   4.254
35125SOL     OW 7271   1.671   2.919  10.790
35125SOL    HW1 7272   1.724   2.980  10.842
35125SOL    HW2 7273   1.595   2.900  10.845
35126SOL     OW 7274  11.952   6.474   0.176
35126SOL    HW1 7275  11.970   6.567   0.158
35126SOL    HW2 7276  11.882   6.476   0.241
35127SOL     OW 7277   5.068  12.377  11.126
35127SOL    HW1 7278   5.063  12.412  11.037
35127SOL    HW2 7279   5.146  12.417  11.163
35128SOL     OW 7280   7.178   3.135   5.328
35128SOL    HW1 7281   7.262   3.172   5.353
35128SOL    HW2 7282   7.132   3.206   5.284
35129SOL     OW 7283   7.678   2.024   2.423
35129SOL    HW1 7284   7.714   1.935   2.425
35129SOL    HW2 7285   7.618   2.027   2.498
35130SOL     OW 7286  11.931   8.256   7.216
35130SOL    HW1 7287  11.878   8.288   7.288
35130SOL    HW2 7288  11.893   8.171   7.192
35131SOL     OW 7289  11.815   3.385   0.681
35131SOL    HW1 7290  11.838   3.360   0.771
35131SOL    HW2 7291  11.854   3.316   0.627
35132SOL     OW 7292   6.560   8.820  10.297
35132SOL    HW1 7293   6.574   8.752  10.363
35132SOL    HW2 7294   6.633   8.881  10.311
35133SOL     OW 7295   8.074   8.534   9.966
35133SOL    HW1 7296   8.014   8.460   9.958
35133SOL    HW2 7297   8.091   8.561   9.875
35134SOL     OW 7298   0.084   3.034  10.257
35134SOL    HW1 7299   0.145   2.976  10.211
35134SOL    HW2 7300  14.870   2.993  10.248
35135SOL     OW 7301  12.203   6.244   1.069
35135SOL    HW1 7302  12.118   6.288   1.063
35135SOL    HW2 7303  12.244   6.260   0.984
35136SOL     OW 7304   7.241  12.384  12.548
35136SOL    HW1 7305   7.202  12.427  12.625
35136SOL    HW2 7306   7.244  12.291  12.571
35137SOL     OW 7307  13.223   0.096  11.296
35137SOL    HW1 7308  13.244   0.017  11.346
35137SOL    HW2 7309  13.217   0.165  11.361
35138SOL     OW 7310  13.378   6.234   1.120
35138SOL    HW1 7311  13.465   6.268   1.098
35138SOL    HW2 7312  13.350   6.189   1.041
35139SOL     OW 7313  12.822  11.661   7.745
35139SOL    HW1 7314  12.754  11.594   7.739
35139SOL    HW2 7315  12.893  11.620   7.795
35140SOL     OW 7316  11.266  11.699  12.751
35140SOL    HW1 7317  11.342  11.700  12.810
35140SOL    HW2 7318  11.281  11.624  12.694
35141SOL     OW 7319  12.522  13.932   0.493
35141SOL    HW1 7320  12.577  13.980   0.431
35141SOL    HW2 7321  12.435  13.968   0.480
35142SOL     OW 7322  12.989  13.764  11.831
35142SOL    HW1 7323  13.076  13.736  11.804
35142SOL    HW2 7324  12.965  13.704  11.901
35143SOL     OW 7325   1.005  14.257  12.800
35143SOL    HW1 7326   1.087  14.217  12.771
35143SOL    HW2 7327   0.948  14.182  12.818
35144SOL     OW 7328   0.594   4.779  10.278
35144SOL    HW1 7329   0.522   4.802  10.337
35144SOL    HW2 7330   0.637   4.863  10.261
35145SOL     OW 7331   3.478   9.072  11.153
35145SOL    HW1 7332   3.562   9.111  11.175
35145SOL    HW2 7333   3.435   9.138  11.098
35146SOL     OW 7334   2.145   2.041  10.141
35146SOL    HW1 7335   2.224   2.093  10.126
35146SOL    HW2 7336   2.136   2.038  10.236
35147SOL     OW 7337   9.122   9.403   7.856
35147SOL    HW1 7338   9.064   9.327   7.866
35147SOL    HW2 7339   9.070   9.467   7.808
35148SOL     OW 7340  11.220   3.020  12.047
35148SOL    HW1 7341  11.172   3.063  11.977
35148SOL    HW2 7342  11.195   2.928  12.040
35149SOL     OW 7343   0.394   9.594   0.036
35149SOL    HW1 7344   0.362   9.649   0.108
35149SOL    HW2 7345   0.338   9.517   0.037
35150SOL     OW 7346  11.811  14.220  11.630
35150SOL    HW1 7347  11.823  14.292  11.568
35150SOL    HW2 7348  11.729  14.179  11.604
35151SOL     OW 7349   5.185  12.695   3.275
35151SOL    HW1 7350   5.234  12.618   3.306
35151SOL    HW2 7351   5.242  12.769   3.297
35152SOL     OW 7352   7.957   2.531  14.806
35152SOL    HW1 7353   8.031   2.502  14.860
35152SOL    HW2 7354   7.922   2.607  14.854
35153SOL     OW 7355   3.748   8.831   1.349
35153SOL    HW1 7356   3.772   8.739   1.335
35153SOL    HW2 7357   3.736   8.866   1.261
35154SOL     OW 7358   5.127  10.761   1.204
35154SOL    HW1 7359   5.087  10.826   1.261
35154SOL    HW2 7360   5.056  10.728   1.150
35155SOL     OW 7361  13.913  13.602   4.333
35155SOL    HW1 7362  13.931  13.665   4.402
35155SOL    HW2 7363  13.996  13.592   4.286
35156SOL     OW 7364   5.194  10.590   8.020
35156SOL    HW1 7365   5.178  10.502   8.052
35156SOL    HW2 7366   5.107  10.628   8.006
35157SOL     OW 7367  13.295   6.214  14.134
35157SOL    HW1 7368  13.294   6.310  14.124
35157SOL    HW2 7369  13.267   6.200  14.224
35158SOL     OW 7370  12.062   3.038   7.048
35158SOL    HW1 7371  12.017   3.048   6.964
35158SOL    HW2 7372  12.078   3.128   7.077
35159SOL     OW 7373  13.857   6.677   2.317
35159SOL    HW1 7374  13.854   6.607   2.252
35159SOL    HW2 7375  13.770   6.717   2.314
35160SOL     OW 7376   4.937  13.910   7.170
35160SOL    HW1 7377   4.846  13.892   7.193
35160SOL    HW2 7378   4.985  13.834   7.203
35161SOL     OW 7379   4.733  10.744  12.180
35161SOL    HW1 7380   4.685  10.810  12.129
35161SOL    HW2 7381   4.802  10.714  12.121
35162SOL     OW 7382  12.248  12.566   6.726
35162SOL    HW1 7383  12.283  12.587   6.639
35162SOL    HW2 7384  12.261  12.471   6.734
35163SOL     OW 7385   3.578  14.258   5.954
35163SOL    HW1 7386   3.580  14.184   5.893
35163SOL    HW2 7387   3.670  14.272   5.976
35164SOL     OW 7388   9.493  14.103   0.028
35164SOL    HW1 7389   9.412  14.056   0.005
35164SOL    HW2 7390   9.524  14.140  14.817
35165SOL     OW 7391   9.205  12.716  11.514
35165SOL    HW1 7392   9.247  12.669  11.443
35165SOL    HW2 7393   9.130  12.662  11.538
35166SOL     OW 7394   0.652   1.177   3.691
35166SOL    HW1 7395   0.576   1.175   3.634
35166SOL    HW2 7396   0.633   1.110   3.757
35167SOL     OW 7397  10.423   6.965  11.552
35167SOL    HW1 7398  10.456   6.879  11.525
35167SOL    HW2 7399  10.376   6.998  11.475
35168SOL     OW 7400  14.353   7.919  12.805
35168SOL    HW1 7401  14.290   7.933  12.876
35168SOL    HW2 7402  14.392   8.005  12.790
35169SOL     OW 7403   2.654   8.929  11.955
35169SOL    HW1 7404   2.711   8.983  11.899
35169SOL    HW2 7405   2.566   8.948  11.923
35170SOL     OW 7406   6.564   8.867  14.710
35170SOL    HW1 7407   6.600   8.824  14.632
35170SOL    HW2 7408   6.641   8.887  14.764
35171SOL     OW 7409   2.837   1.410  12.995
35171SOL    HW1 7410   2.845   1.470  13.070
35171SOL    HW2 7411   2.885   1.453  12.925
35172SOL     OW 7412   2.946  11.502  13.637
35172SOL    HW1 7413   3.017  11.510  13.700
35172SOL    HW2 7414   2.925  11.409  13.635
35173SOL     OW 7415   3.938   0.632   0.904
35173SOL    HW1 7416   4.007   0.601   0.963
35173SOL    HW2 7417   3.947   0.577   0.826
35174SOL     OW 7418   8.578   0.602  13.870
35174SOL    HW1 7419   8.642   0.668  13.843
35174SOL    HW2 7420   8.493   0.643  13.852
35175SOL     OW 7421   2.736  13.240   0.576
35175SOL    HW1 7422   2.782  13.321   0.554
35175SOL    HW2 7423   2.758  13.180   0.504
35176SOL     OW 7424   6.400   4.086   4.414
35176SOL    HW1 7425   6.407   4.091   4.509
35176SOL    HW2 7426   6.491   4.082   4.384
35177SOL     OW 7427   7.365  14.671  14.074
35177SOL    HW1 7428   7.357  14.765  14.063
35177SOL    HW2 7429   7.421  14.642  14.002
35178SOL     OW 7430   1.625  10.045   1.830
35178SOL    HW1 7431   1.609   9.993   1.751
35178SOL    HW2 7432   1.684   9.990   1.883
35179SOL     OW 7433   8.747   7.839  10.459
35179SOL    HW1 7434   8.708   7.882  10.383
35179SOL    HW2 7435   8.832   7.806  10.427
35180SOL     OW 7436   6.024   4.488   3.635
35180SOL    HW1 7437   5.958   4.512   3.570
35180SOL    HW2 7438   6.038   4.568   3.686
35181SOL     OW 7439  14.550  11.271   5.964
35181SOL    HW1 7440  14.591  11.284   5.878
35181SOL    HW2 7441  14.594  11.194   6.001
35182SOL     OW 7442   2.607  11.862  11.512
35182SOL    HW1 7443   2.639  11.938  11.463
35182SOL    HW2 7444   2.529  11.894  11.556
35183SOL     OW 7445  11.776  11.307   5.394
35183SOL    HW1 7446  11.798  11.250   5.321
35183SOL    HW2 7447  11.823  11.389   5.377
35184SOL     OW 7448  14.788  12.120   1.381
35184SOL    HW1 7449  14.752  12.179   1.447
35184SOL    HW2 7450   0.010  12.117   1.400
35185SOL     OW 7451   3.470  11.418  12.163
35185SOL    HW1 7452   3.519  11.389  12.086
35185SOL    HW2 7453   3.491  11.511  12.170
35186SOL     OW 7454   1.548  14.588  12.378
35186SOL    HW1 7455   1.620  14.555  12.326
35186SOL    HW2 7456   1.569  14.564  12.468
35187SOL     OW 7457   3.352  10.038   3.398
35187SOL    HW1 7458   3.376  10.088   3.319
35187SOL    HW2 7459   3.311  10.103   3.455
35188SOL     OW 7460   2.051   3.125   1.331
35188SOL    HW1 7461   2.022   3.048   1.380
35188SOL    HW2 7462   2.147   3.117   1.327
35189SOL     OW 7463  14.228   7.161  14.104
35189SOL    HW1 7464  14.154   7.166  14.043
35189SOL    HW2 7465  14.188   7.143  14.189
35190SOL     OW 7466   7.028  12.480   2.225
35190SOL    HW1 7467   7.004  12.529   2.147
35190SOL    HW2 7468   7.123  12.489   2.231
35191SOL     OW 7469   3.549   1.112   1.075
35191SOL    HW1 7470   3.470   1.121   1.021
35191SOL    HW2 7471   3.621   1.121   1.013
35192SOL     OW 7472   5.599   7.115   5.479
35192SOL    HW1 7473   5.672   7.136   5.421
35192SOL    HW2 7474   5.622   7.031   5.518
35193SOL     OW 7475  13.741   2.397   2.247
35193SOL    HW1 7476  13.812   2.399   2.183
35193SOL    HW2 7477  13.667   2.438   2.202
35194SOL     OW 7478   1.086   5.699   3.645
35194SOL    HW1 7479   1.052   5.725   3.559
35194SOL    HW2 7480   1.016   5.646   3.683
35195SOL     OW 7481   3.215   8.445   1.644
35195SOL    HW1 7482   3.122   8.458   1.630
35195SOL    HW2 7483   3.257   8.502   1.579
35196SOL     OW 7484  12.855   8.328   5.444
35196SOL    HW1 7485  12.921   8.397   5.442
35196SOL    HW2 7486  12.856   8.296   5.534
35197SOL     OW 7487   6.650   0.324   1.032
35197SOL    HW1 7488   6.679   0.396   1.088
35197SOL    HW2 7489   6.567   0.354   0.996
35198SOL     OW 7490   9.076   8.311   9.123
35198SOL    HW1 7491   9.171   8.305   9.110
35198SOL    HW2 7492   9.066   8.339   9.214
35199SOL     OW 7493   9.294  13.929  14.837
35199SOL    HW1 7494   9.263  13.898  14.752
35199SOL    HW2 7495   9.213  13.950   0.014
35200SOL     OW 7496   9.895   0.601   5.859
35200SOL    HW1 7497   9.840   0.552   5.798
35200SOL    HW2 7498   9.956   0.536   5.894
35201SOL     OW 7499   5.865   0.072   4.641
35201SOL    HW1 7500   5.801   0.135   4.673
35201SOL    HW2 7501   5.818  14.859   4.643
35202SOL     OW 7502   5.021   2.133   1.178
35202SOL    HW1 7503   5.048   2.105   1.266
35202SOL    HW2 7504   5.010   2.227   1.186
35203SOL     OW 7505   3.100   9.008  13.328
35203SOL    HW1 7506   3.177   8.952  13.328
35203SOL    HW2 7507   3.133   9.095  13.304
35204SOL     OW 7508   8.019   5.237  10.413
35204SOL    HW1 7509   8.040   5.146  10.435
35204SOL    HW2 7510   8.015   5.282  10.497
35205SOL     OW 7511   6.397  12.377  13.808
35205SOL    HW1 7512   6.442  12.353  13.728
35205SOL    HW2 7513   6.313  12.412  13.779
35206SOL     OW 7514  11.146   1.901  14.022
35206SOL    HW1 7515  11.082   1.863  14.082
35206SOL    HW2 7516  11.135   1.995  14.031
35207SOL     OW 7517   3.606  14.571   1.197
35207SOL    HW1 7518   3.647  14.657   1.186
35207SOL    HW2 7519   3.512  14.589   1.201
35208SOL     OW 7520   9.445  12.314   6.271
35208SOL    HW1 7521   9.375  12.269   6.318
35208SOL    HW2 7522   9.411  12.402   6.256
35209SOL     OW 7523   8.318  10.724   8.295
35209SOL    HW1 7524   8.258  10.676   8.352
35209SOL    HW2 7525   8.340  10.662   8.225
35210SOL     OW 7526   1.321   8.509   5.730
35210SOL    HW1 7527   1.377   8.432   5.723
35210SOL    HW2 7528   1.252   8.483   5.791
35211SOL     OW 7529  14.033   7.872   5.956
35211SOL    HW1 7530  14.118   7.865   5.913
35211SOL    HW2 7531  14.034   7.805   6.024
35212SOL     OW 7532   2.218   3.330   6.216
35212SOL    HW1 7533   2.312   3.324   6.197
35212SOL    HW2 7534   2.176   3.333   6.130
35213SOL     OW 7535   4.273   5.488   5.916
35213SOL    HW1 7536   4.239   5.563   5.867
35213SOL    HW2 7537   4.222   5.413   5.885
35214SOL     OW 7538  13.312  11.795   7.872
35214SOL    HW1 7539  13.223  11.817   7.844
35214SOL    HW2 7540  13.307  11.796   7.968
35215SOL     OW 7541   5.309  12.444   3.256
35215SOL    HW1 7542   5.359  12.378   3.304
35215SOL    HW2 7543   5.288  12.402   3.172
35216SOL     OW 7544   6.577   9.858   0.700
35216SOL    HW1 7545   6.600   9.949   0.680
35216SOL    HW2 7546   6.623   9.840   0.783
35217SOL     OW 7547   7.544   5.343   6.032
35217SOL    HW1 7548   7.526   5.437   6.037
35217SOL    HW2 7549   7.558   5.316   6.122
35218SOL     OW 7550   4.769   3.978   0.132
35218SOL    HW1 7551   4.824   4.032   0.076
35218SOL    HW2 7552   4.810   3.891   0.130
35219SOL     OW 7553   1.232   7.436   6.833
35219SOL    HW1 7554   1.200   7.522   6.861
35219SOL    HW2 7555   1.161   7.376   6.855
35220SOL     OW 7556   1.257   5.907   1.419
35220SOL    HW1 7557   1.337   5.868   1.383
35220SOL    HW2 7558   1.278   5.999   1.431
35221SOL     OW 7559   0.339  11.022   4.106
35221SOL    HW1 7560   0.317  11.087   4.039
35221SOL    HW2 7561   0.298  10.941   4.074
35222SOL     OW 7562   8.662  11.651  12.123
35222SOL    HW1 7563   8.716  11.728  12.106
35222SOL    HW2 7564   8.574  11.687  12.137
35223SOL     OW 7565   1.710  10.655   3.156
35223SOL    HW1 7566   1.621  10.625   3.170
35223SOL    HW2 7567   1.715  10.738   3.203
35224SOL     OW 7568   0.501   5.808   8.445
35224SOL    HW1 7569   0.510   5.883   8.503
35224SOL    HW2 7570   0.513   5.732   8.502
35225SOL     OW 7571   2.310   8.534  11.581
35225SOL    HW1 7572   2.363   8.485  11.643
35225SOL    HW2 7573   2.346   8.511  11.495
35226SOL     OW 7574  14.662  13.802  11.495
35226SOL    HW1 7575  14.744  13.849  11.481
35226SOL    HW2 7576  14.652  13.799  11.590
35227SOL     OW 7577   3.779  14.396  14.754
35227SOL    HW1 7578   3.746  14.370  14.669
35227SOL    HW2 7579   3.753  14.325  14.813
35228SOL     OW 7580  11.197   5.683   7.099
35228SOL    HW1 7581  11.273   5.638   7.136
35228SOL    HW2 7582  11.123   5.624   7.117
35229SOL     OW 7583   9.792  12.505  12.760
35229SOL    HW1 7584   9.883  12.523  12.740
35229SOL    HW2 7585   9.792  12.420  12.805
35230SOL     OW 7586   8.293  10.871   9.620
35230SOL    HW1 7587   8.292  10.965   9.638
35230SOL    HW2 7588   8.304  10.864   9.526
35231SOL     OW 7589  10.756   8.620   7.010
35231SOL    HW1 7590  10.781   8.535   6.973
35231SOL    HW2 7591  10.675   8.642   6.966
35232SOL     OW 7592  12.092   4.909   5.576
35232SOL    HW1 7593  12.124   4.989   5.619
35232SOL    HW2 7594  12.007   4.934   5.540
35233SOL     OW 7595  14.787   3.844   7.797
35233SOL    HW1 7596  14.848   3.798   7.854
35233SOL    HW2 7597  14.702   3.804   7.816
35234SOL     OW 7598   6.076   9.359  13.305
35234SOL    HW1 7599   6.103   9.449  13.321
35234SOL    HW2 7600   6.036   9.361  13.218
35235SOL     OW 7601   1.476   7.291   7.238
35235SOL    HW1 7602   1.487   7.317   7.329
35235SOL    HW2 7603   1.565   7.292   7.202
35236SOL     OW 7604   0.592   3.841   1.622
35236SOL    HW1 7605   0.641   3.787   1.685
35236SOL    HW2 7606   0.506   3.800   1.618
35237SOL     OW 7607   8.946   9.725   2.189
35237SOL    HW1 7608   8.860   9.760   2.163
35237SOL    HW2 7609   8.954   9.748   2.281
35238SOL     OW 7610  14.484  13.882   6.389
35238SOL    HW1 7611  14.473  13.810   6.451
35238SOL    HW2 7612  14.566  13.863   6.344
35239SOL     OW 7613   9.791   6.808  14.224
35239SOL    HW1 7614   9.710   6.828  14.177
35239SOL    HW2 7615   9.857   6.802  14.155
35240SOL     OW 7616   4.701  11.333   1.777
35240SOL    HW1 7617   4.688  11.240   1.791
35240SOL    HW2 7618   4.745  11.364   1.856
35241SOL     OW 7619   8.178  13.684   3.990
35241SOL    HW1 7620   8.120  13.702   3.916
35241SOL    HW2 7621   8.265  13.713   3.960
35242SOL     OW 7622   7.970   8.726   4.082
35242SOL    HW1 7623   7.972   8.749   3.989
35242SOL    HW2 7624   7.896   8.776   4.117
35243SOL     OW 7625   2.221  14.087  11.899
35243SOL    HW1 7626   2.227  14.124  11.811
35243SOL    HW2 7627   2.182  14.000  11.886
35244SOL     OW 7628  13.973   3.126   1.260
35244SOL    HW1 7629  13.914   3.056   1.290
35244SOL    HW2 7630  13.942   3.147   1.172
35245SOL     OW 7631   1.868   6.722   8.096
35245SOL    HW1 7632   1.843   6.798   8.147
35245SOL    HW2 7633   1.938   6.680   8.147
35246SOL     OW 7634   1.950  11.655   2.115
35246SOL    HW1 7635   2.010  11.634   2.044
35246SOL    HW2 7636   1.937  11.573   2.162
35247SOL     OW 7637  12.867   3.772   3.830
35247SOL    HW1 7638  12.922   3.696   3.850
35247SOL    HW2 7639  12.928   3.845   3.826
35248SOL     OW 7640   7.709   6.360  12.738
35248SOL    HW1 7641   7.672   6.434  12.690
35248SOL    HW2 7642   7.804   6.376  12.736
35249SOL     OW 7643   8.997   2.375   7.331
35249SOL    HW1 7644   8.916   2.412   7.366
35249SOL    HW2 7645   9.063   2.393   7.398
35250SOL     OW 7646   8.386   6.501   1.737
35250SOL    HW1 7647   8.433   6.559   1.797
35250SOL    HW2 7648   8.416   6.526   1.650
35251SOL     OW 7649   3.812  11.912   5.751
35251SOL    HW1 7650   3.719  11.911   5.774
35251SOL    HW2 7651   3.856  11.948   5.829
35252SOL     OW 7652   8.435   6.129  12.113
35252SOL    HW1 7653   8.385   6.210  12.126
35252SOL    HW2 7654   8.370   6.059  12.124
35253SOL     OW 7655   4.736   4.020   4.732
35253SOL    HW1 7656   4.667   4.086   4.725
35253SOL    HW2 7657   4.689   3.938   4.749
35254SOL     OW 7658   3.136   2.772   5.490
35254SOL    HW1 7659   3.171   2.695   5.446
35254SOL    HW2 7660   3.209   2.833   5.494
35255SOL     OW 7661   5.898   8.360   6.621
35255SOL    HW1 7662   5.939   8.365   6.535
35255SOL    HW2 7663   5.868   8.270   6.629
35256SOL     OW 7664  14.344  11.646   1.045
35256SOL    HW1 7665  14.437  11.623   1.047
35256SOL    HW2 7666  14.337  11.707   0.971
35257SOL     OW 7667   3.263   6.498   4.569
35257SOL    HW1 7668   3.183   6.541   4.541
35257SOL    HW2 7669   3.277   6.529   4.658
35258SOL     OW 7670   2.866   7.395   7.255
35258SOL    HW1 7671   2.943   7.357   7.212
35258SOL    HW2 7672   2.882   7.383   7.348
35259SOL     OW 7673   6.897   4.051   6.099
35259SOL    HW1 7674   6.813   4.021   6.134
35259SOL    HW2 7675   6.919   4.128   6.152
35260SOL     OW 7676  13.943  10.578   0.756
35260SOL    HW1 7677  14.019  10.540   0.800
35260SOL    HW2 7678  13.931  10.525   0.677
35261SOL     OW 7679   6.215   0.139   9.122
35261SOL    HW1 7680   6.235   0.077   9.052
35261SOL    HW2 7681   6.296   0.188   9.135
35262SOL     OW 7682   8.514  12.375  12.285
35262SOL    HW1 7683   8.607  12.397  12.286
35262SOL    HW2 7684   8.487  12.380  12.376
35263SOL     OW 7685   6.761   1.553  14.468
35263SOL    HW1 7686   6.826   1.510  14.523
35263SOL    HW2 7687   6.812   1.607  14.408
35264SOL     OW 7688   8.765   6.399  12.156
35264SOL    HW1 7689   8.708   6.412  12.080
35264SOL    HW2 7690   8.729   6.323  12.201
35265SOL     OW 7691   0.057  13.124   2.269
35265SOL    HW1 7692   0.003  13.139   2.191
35265SOL    HW2 7693   0.137  13.174   2.253
35266SOL     OW 7694   0.500   0.787  13.698
35266SOL    HW1 7695   0.429   0.726  13.715
35266SOL    HW2 7696   0.562   0.738  13.644
35267SOL     OW 7697  10.045   4.473   0.140
35267SOL    HW1 7698  10.042   4.556   0.091
35267SOL    HW2 7699   9.979   4.483   0.209
35268SOL     OW 7700  13.005   9.049   3.496
35268SOL    HW1 7701  12.969   9.065   3.583
35268SOL    HW2 7702  12.971   9.121   3.443
35269SOL     OW 7703   0.012   1.133   6.119
35269SOL    HW1 7704   0.051   1.071   6.181
35269SOL    HW2 7705  14.792   1.108   6.113
35270SOL     OW 7706   6.874   7.738  11.376
35270SOL    HW1 7707   6.887   7.811  11.315
35270SOL    HW2 7708   6.961   7.719  11.409
35271SOL     OW 7709   3.253  13.425   1.834
35271SOL    HW1 7710   3.328  13.366   1.847
35271SOL    HW2 7711   3.287  13.511   1.860
35272SOL     OW 7712   5.675  14.554  10.074
35272SOL    HW1 7713   5.702  14.551   9.983
35272SOL    HW2 7714   5.675  14.648  10.096
35273SOL     OW 7715  12.046   9.457   2.859
35273SOL    HW1 7716  12.006   9.440   2.774
35273SOL    HW2 7717  12.052   9.553   2.864
35274SOL     OW 7718   2.969   8.301   9.040
35274SOL    HW1 7719   2.946   8.384   9.082
35274SOL    HW2 7720   2.955   8.235   9.108
35275SOL     OW 7721   1.882  13.357   6.156
35275SOL    HW1 7722   1.878  13.284   6.217
35275SOL    HW2 7723   1.902  13.434   6.210
35276SOL     OW 7724  12.881  10.900   6.997
35276SOL    HW1 7725  12.874  10.938   7.085
35276SOL    HW2 7726  12.791  10.875   6.975
35277SOL     OW 7727  14.169   0.722   5.264
35277SOL    HW1 7728  14.265   0.725   5.267
35277SOL    HW2 7729  14.144   0.803   5.220
35278SOL     OW 7730  10.287  14.676   8.161
35278SOL    HW1 7731  10.231  14.658   8.237
35278SOL    HW2 7732  10.350  14.741   8.192
35279SOL     OW 7733   7.110  12.511   0.305
35279SOL    HW1 7734   7.063  12.492   0.225
35279SOL    HW2 7735   7.043  12.543   0.366
35280SOL     OW 7736  12.342   7.355   0.429
35280SOL    HW1 7737  12.307   7.433   0.473
35280SOL    HW2 7738  12.437   7.361   0.441
35281SOL     OW 7739   4.861   3.271   5.549
35281SOL    HW1 7740   4.903   3.329   5.612
35281SOL    HW2 7741   4.776   3.250   5.588
35282SOL     OW 7742  12.386  11.466  12.973
35282SOL    HW1 7743  12.300  11.479  13.013
35282SOL    HW2 7744  12.373  11.394  12.912
35283SOL     OW 7745   9.806   1.716  11.151
35283SOL    HW1 7746   9.764   1.802  11.153
35283SOL    HW2 7747   9.735   1.654  11.170
35284SOL     OW 7748  13.181  10.320   7.120
35284SOL    HW1 7749  13.100  10.291   7.078
35284SOL    HW2 7750  13.216  10.387   7.061
35285SOL     OW 7751   0.132   7.663   6.137
35285SOL    HW1 7752   0.160   7.729   6.072
35285SOL    HW2 7753   0.063   7.614   6.093
35286SOL     OW 7754  12.948   3.688   3.434
35286SOL    HW1 7755  13.033   3.722   3.406
35286SOL    HW2 7756  12.969   3.616   3.493
35287SOL     OW 7757   9.564  10.377   1.909
35287SOL    HW1 7758   9.524  10.379   1.822
35287SOL    HW2 7759   9.657  10.394   1.894
35288SOL     OW 7760   3.422  13.449  11.612
35288SOL    HW1 7761   3.346  13.457  11.670
35288SOL    HW2 7762   3.497  13.472  11.667
35289SOL     OW 7763   5.972   4.775   6.587
35289SOL    HW1 7764   5.906   4.715   6.622
35289SOL    HW2 7765   6.014   4.813   6.664
35290SOL     OW 7766   7.718  12.224   4.879
35290SOL    HW1 7767   7.766  12.221   4.962
35290SOL    HW2 7768   7.786  12.235   4.812
35291SOL     OW 7769   3.054  13.023   8.757
35291SOL    HW1 7770   3.029  13.050   8.668
35291SOL    HW2 7771   3.134  12.971   8.745
35292SOL     OW 7772   0.292   0.303   5.289
35292SOL    HW1 7773   0.338   0.378   5.250
35292SOL    HW2 7774   0.330   0.227   5.246
35293SOL     OW 7775   0.033   1.068  14.143
35293SOL    HW1 7776  14.819   1.047  14.179
35293SOL    HW2 7777   0.040   1.016  14.064
35294SOL     OW 7778  14.800  13.279  13.760
35294SOL    HW1 7779  14.845  13.299  13.842
35294SOL    HW2 7780  14.730  13.344  13.754
35295SOL     OW 7781  11.574   7.672  14.092
35295SOL    HW1 7782  11.586   7.737  14.162
35295SOL    HW2 7783  11.662   7.660  14.056
35296SOL     OW 7784   7.580  11.628   2.444
35296SOL    HW1 7785   7.484  11.627   2.448
35296SOL    HW2 7786   7.604  11.535   2.442
35297SOL     OW 7787   4.851   7.938   7.733
35297SOL    HW1 7788   4.925   7.902   7.783
35297SOL    HW2 7789   4.882   8.023   7.704
35298SOL     OW 7790   9.707  12.607   6.808
35298SOL    HW1 7791   9.789  12.639   6.846
35298SOL    HW2 7792   9.734  12.535   6.751
35299SOL     OW 7793   1.811  14.590   2.268
35299SOL    HW1 7794   1.803  14.498   2.291
35299SOL    HW2 7795   1.851  14.631   2.345
35300SOL     OW 7796  14.389   0.261   5.503
35300SOL    HW1 7797  14.440   0.180   5.515
35300SOL    HW2 7798  14.410   0.289   5.414
35301SOL     OW 7799   6.010   7.483  14.585
35301SOL    HW1 7800   6.086   7.509  14.533
35301SOL    HW2 7801   5.994   7.557  14.644
35302SOL     OW 7802   8.934  10.080   5.901
35302SOL    HW1 7803   8.951  10.020   5.828
35302SOL    HW2 7804   9.021  10.113   5.925
35303SOL     OW 7805   8.798  11.423   7.275
35303SOL    HW1 7806   8.845  11.385   7.349
35303SOL    HW2 7807   8.705  11.414   7.298
35304SOL     OW 7808  11.815  14.653   9.096
35304SOL    HW1 7809  11.744  14.684   9.040
35304SOL    HW2 7810  11.889  14.641   9.036
35305SOL     OW 7811   4.904  14.799   1.279
35305SOL    HW1 7812   4.828  14.827   1.330
35305SOL    HW2 7813   4.975  14.797   1.342
35306SOL     OW 7814  13.490  12.374   0.380
35306SOL    HW1 7815  13.503  12.321   0.458
35306SOL    HW2 7816  13.512  12.316   0.307
35307SOL     OW 7817  11.088   3.368   2.392
35307SOL    HW1 7818  11.138   3.432   2.444
35307SOL    HW2 7819  11.034   3.421   2.334
35308SOL     OW 7820  13.959   3.862   1.869
35308SOL    HW1 7821  13.990   3.895   1.785
35308SOL    HW2 7822  13.888   3.801   1.847
35309SOL     OW 7823  12.159   9.978  10.766
35309SOL    HW1 7824  12.227   9.986  10.833
35309SOL    HW2 7825  12.199   9.923  10.698
35310SOL     OW 7826  11.385   5.139   8.669
35310SOL    HW1 7827  11.344   5.217   8.632
35310SOL    HW2 7828  11.315   5.095   8.717
35311SOL     OW 7829   5.678   5.074   4.997
35311SOL    HW1 7830   5.770   5.083   4.973
35311SOL    HW2 7831   5.642   5.014   4.932
35312SOL     OW 7832  14.842   6.824  12.736
35312SOL    HW1 7833  14.859   6.909  12.776
35312SOL    HW2 7834   0.041   6.813  12.672
35313SOL     OW 7835   2.399   9.869   3.312
35313SOL    HW1 7836   2.395   9.949   3.260
35313SOL    HW2 7837   2.317   9.823   3.291
35314SOL     OW 7838  10.863   5.856   8.969
35314SOL    HW1 7839  10.943   5.816   8.934
35314SOL    HW2 7840  10.824   5.788   9.024
35315SOL     OW 7841   1.530  10.372   5.240
35315SOL    HW1 7842   1.551  10.332   5.325
35315SOL    HW2 7843   1.439  10.400   5.249
35316SOL     OW 7844   6.095   2.371   0.491
35316SOL    HW1 7845   6.004   2.380   0.462
35316SOL    HW2 7846   6.089   2.349   0.584
35317SOL     OW 7847   0.912   0.090   0.221
35317SOL    HW1 7848   0.841   0.027   0.240
35317SOL    HW2 7849   0.931   0.130   0.306
35318SOL     OW 7850   6.376   9.610  14.401
35318SOL    HW1 7851   6.401   9.518  14.395
35318SOL    HW2 7852   6.281   9.610  14.386
35319SOL     OW 7853  10.505   5.644  12.344
35319SOL    HW1 7854  10.591   5.686  12.345
35319SOL    HW2 7855  10.519   5.562  12.297
35320SOL     OW 7856  13.999  12.150   5.139
35320SOL    HW1 7857  14.063  12.166   5.208
35320SOL    HW2 7858  14.048  12.100   5.073
35321SOL     OW 7859   9.563   7.263  13.325
35321SOL    HW1 7860   9.640   7.208  13.318
35321SOL    HW2 7861   9.489   7.202  13.315
35322SOL     OW 7862   7.612  10.847   7.001
35322SOL    HW1 7863   7.605  10.929   6.951
35322SOL    HW2 7864   7.532  10.844   7.053
35323SOL     OW 7865   4.251   6.633   7.526
35323SOL    HW1 7866   4.224   6.721   7.499
35323SOL    HW2 7867   4.213   6.622   7.613
35324SOL     OW 7868   2.945   1.646   9.632
35324SOL    HW1 7869   2.936   1.587   9.558
35324SOL    HW2 7870   2.927   1.733   9.596
35325SOL     OW 7871   7.099   8.293  10.425
35325SOL    HW1 7872   7.031   8.226  10.417
35325SOL    HW2 7873   7.125   8.310  10.334
35326SOL     OW 7874   7.213  14.492   4.226
35326SOL    HW1 7875   7.170  14.460   4.305
35326SOL    HW2 7876   7.302  14.513   4.253
35327SOL     OW 7877  12.330   7.545   9.820
35327SOL    HW1 7878  12.271   7.469   9.820
35327SOL    HW2 7879  12.358   7.552   9.728
35328SOL     OW 7880  13.121   0.466   5.815
35328SOL    HW1 7881  13.205   0.491   5.852
35328SOL    HW2 7882  13.093   0.391   5.868
35329SOL     OW 7883   9.922  14.183  13.122
35329SOL    HW1 7884   9.872  14.136  13.056
35329SOL    HW2 7885  10.007  14.199  13.081
35330SOL     OW 7886   6.170   3.044   9.800
35330SOL    HW1 7887   6.131   3.048   9.888
35330SOL    HW2 7888   6.162   3.133   9.766
35331SOL     OW 7889   3.928  12.394   7.306
35331SOL    HW1 7890   3.980  12.319   7.277
35331SOL    HW2 7891   3.940  12.460   7.237
35332SOL     OW 7892  12.791   4.374  13.269
35332SOL    HW1 7893  12.749   4.432  13.333
35332SOL    HW2 7894  12.742   4.292  13.275
35333SOL     OW 7895  13.881   1.608   7.489
35333SOL    HW1 7896  13.915   1.556   7.562
35333SOL    HW2 7897  13.892   1.551   7.412
35334SOL     OW 7898   9.565   8.280   9.262
35334SOL    HW1 7899   9.540   8.318   9.346
35334SOL    HW2 7900   9.640   8.333   9.233
35335SOL     OW 7901   0.045  14.805   9.961
35335SOL    HW1 7902   0.098  14.836  10.035
35335SOL    HW2 7903  14.827  14.812   9.992
35336SOL     OW 7904   6.883  14.737  12.963
35336SOL    HW1 7905   6.884  14.816  13.017
35336SOL    HW2 7906   6.938  14.758  12.888
35337SOL     OW 7907  11.125  11.004  13.411
35337SOL    HW1 7908  11.077  11.083  13.439
35337SOL    HW2 7909  11.131  11.012  13.316
35338SOL     OW 7910  11.309   0.685   9.988
35338SOL    HW1 7911  11.391   0.733  10.003
35338SOL    HW2 7912  11.335   0.609   9.937
35339SOL     OW 7913  12.824  11.909  11.673
35339SOL    HW1 7914  12.879  11.973  11.630
35339SOL    HW2 7915  12.881  11.866  11.736
35340SOL     OW 7916   3.390  14.029   5.336
35340SOL    HW1 7917   3.438  14.023   5.253
35340SOL    HW2 7918   3.435  13.968   5.394
35341SOL     OW 7919   0.792   3.588   6.654
35341SOL    HW1 7920   0.806   3.680   6.632
35341SOL    HW2 7921   0.728   3.557   6.590
35342SOL     OW 7922  10.545   0.957   5.554
35342SOL    HW1 7923  10.594   0.908   5.489
35342SOL    HW2 7924  10.464   0.907   5.566
35343SOL     OW 7925  12.352   8.247  11.852
35343SOL    HW1 7926  12.377   8.176  11.793
35343SOL    HW2 7927  12.317   8.315  11.795
35344SOL     OW 7928   1.922   4.083   6.670
35344SOL    HW1 7929   1.943   4.127   6.587
35344SOL    HW2 7930   1.834   4.050   6.658
35345SOL     OW 7931  14.388   0.194   6.597
35345SOL    HW1 7932  14.293   0.189   6.594
35345SOL    HW2 7933  14.406   0.265   6.659
35346SOL     OW 7934   2.792   0.925  14.648
35346SOL    HW1 7935   2.888   0.923  14.645
35346SOL    HW2 7936   2.769   0.858  14.712
35347SOL     OW 7937   6.992   1.811   4.413
35347SOL    HW1 7938   7.083   1.841   4.421
35347SOL    HW2 7939   6.984   1.740   4.477
35348SOL     OW 7940   1.253  10.807   5.276
35348SOL    HW1 7941   1.340  10.783   5.309
35348SOL    HW2 7942   1.264  10.896   5.244
35349SOL     OW 7943   8.909   5.602   1.248
35349SOL    HW1 7944   8.978   5.652   1.205
35349SOL    HW2 7945   8.888   5.532   1.185
35350SOL     OW 7946   1.688  12.765  10.186
35350SOL    HW1 7947   1.680  12.857  10.160
35350SOL    HW2 7948   1.651  12.715  10.113
35351SOL     OW 7949   1.623   1.178  10.757
35351SOL    HW1 7950   1.629   1.094  10.802
35351SOL    HW2 7951   1.676   1.238  10.811
35352SOL     OW 7952   7.423   6.855   0.673
35352SOL    HW1 7953   7.359   6.896   0.731
35352SOL    HW2 7954   7.450   6.775   0.719
35353SOL     OW 7955  14.396  10.709   5.817
35353SOL    HW1 7956  14.423  10.799   5.837
35353SOL    HW2 7957  14.422  10.697   5.726
35354SOL     OW 7958   1.590   2.188   3.933
35354SOL    HW1 7959   1.633   2.138   4.003
35354SOL    HW2 7960   1.496   2.177   3.950
35355SOL     OW 7961   5.198   2.855   8.901
35355SOL    HW1 7962   5.288   2.857   8.868
35355SOL    HW2 7963   5.161   2.939   8.873
35356SOL     OW 7964   1.279   2.179  13.934
35356SOL    HW1 7965   1.315   2.262  13.902
35356SOL    HW2 7966   1.188   2.200  13.957
35357SOL     OW 7967  11.538   2.516   7.195
35357SOL    HW1 7968  11.497   2.583   7.250
35357SOL    HW2 7969  11.560   2.562   7.114
35358SOL     OW 7970   1.526   6.452   4.724
35358SOL    HW1 7971   1.528   6.457   4.628
35358SOL    HW2 7972   1.490   6.366   4.743
35359SOL     OW 7973  13.087   9.349  10.544
35359SOL    HW1 7974  13.050   9.287  10.606
35359SOL    HW2 7975  13.150   9.298  10.492
35360SOL     OW 7976  13.451   6.035  10.807
35360SOL    HW1 7977  13.471   5.978  10.880
35360SOL    HW2 7978  13.536   6.065  10.775
35361SOL     OW 7979  10.929  12.317   5.960
35361SOL    HW1 7980  10.842  12.354   5.945
35361SOL    HW2 7981  10.954  12.279   5.876
35362SOL     OW 7982  11.087   8.592   3.742
35362SOL    HW1 7983  11.159   8.600   3.679
35362SOL    HW2 7984  11.047   8.508   3.721
35363SOL     OW 7985   4.497  13.001   0.493
35363SOL    HW1 7986   4.528  13.090   0.474
35363SOL    HW2 7987   4.433  12.984   0.424
35364SOL     OW 7988  11.310  10.260   4.256
35364SOL    HW1 7989  11.366  10.219   4.322
35364SOL    HW2 7990  11.280  10.341   4.297
35365SOL     OW 7991   0.189   3.861   0.097
35365SOL    HW1 7992   0.144   3.846   0.014
35365SOL    HW2 7993   0.133   3.924   0.143
35366SOL     OW 7994   3.602   5.296   0.243
35366SOL    HW1 7995   3.542   5.224   0.262
35366SOL    HW2 7996   3.682   5.273   0.291
35367SOL     OW 7997   2.012   2.595  14.818
35367SOL    HW1 7998   2.058   2.575   0.028
35367SOL    HW2 7999   1.950   2.523  14.807
35368SOL     OW 8000   1.598  12.282   9.856
35368SOL    HW1 8001   1.582  12.285   9.950
35368SOL    HW2 8002   1.624  12.191   9.839
35369SOL     OW 8003  10.793   9.758   5.500
35369SOL    HW1 8004  10.763   9.789   5.585
35369SOL    HW2 8005  10.737   9.683   5.480
35370SOL     OW 8006   1.222   5.357   9.172
35370SOL    HW1 8007   1.131   5.327   9.177
35370SOL    HW2 8008   1.255   5.322   9.090
35371SOL     OW 8009   5.055   8.282   4.030
35371SOL    HW1 8010   5.087   8.259   3.943
35371SOL    HW2 8011   4.995   8.211   4.053
35372SOL     OW 8012  13.514   4.555   1.920
35372SOL    HW1 8013  13.521   4.566   2.015
35372SOL    HW2 8014  13.464   4.474   1.910
35373SOL     OW 8015   9.867  12.886   6.701
35373SOL    HW1 8016   9.875  12.808   6.647
35373SOL    HW2 8017   9.950  12.932   6.689
35374SOL     OW 8018  10.032   5.364   7.267
35374SOL    HW1 8019  10.071   5.422   7.333
35374SOL    HW2 8020  10.013   5.421   7.193
35375SOL     OW 8021   1.514   4.767   3.395
35375SOL    HW1 8022   1.593   4.807   3.431
35375SOL    HW2 8023   1.520   4.675   3.421
35376SOL     OW 8024  14.643   1.862   5.168
35376SOL    HW1 8025  14.713   1.807   5.133
35376SOL    HW2 8026  14.668   1.876   5.260
35377SOL     OW 8027   8.421  10.780   9.860
35377SOL    HW1 8028   8.388  10.827   9.783
35377SOL    HW2 8029   8.406  10.688   9.840
35378SOL     OW 8030   0.317   3.133   7.615
35378SOL    HW1 8031   0.287   3.146   7.705
35378SOL    HW2 8032   0.408   3.161   7.616
35379SOL     OW 8033  13.231  10.989  12.636
35379SOL    HW1 8034  13.289  10.966  12.708
35379SOL    HW2 8035  13.262  10.937  12.562
35380SOL     OW 8036   2.401   5.074  10.877
35380SOL    HW1 8037   2.310   5.073  10.908
35380SOL    HW2 8038   2.446   5.134  10.937
35381SOL     OW 8039   4.924   4.565  14.539
35381SOL    HW1 8040   5.002   4.563  14.484
35381SOL    HW2 8041   4.851   4.547  14.480
35382SOL     OW 8042   5.600   8.640  12.391
35382SOL    HW1 8043   5.578   8.696  12.317
35382SOL    HW2 8044   5.649   8.696  12.451
35383SOL     OW 8045   5.378  10.355   2.050
35383SOL    HW1 8046   5.374  10.358   1.954
35383SOL    HW2 8047   5.292  10.384   2.079
35384SOL     OW 8048  14.034   4.962   1.895
35384SOL    HW1 8049  13.969   4.912   1.945
35384SOL    HW2 8050  14.041   4.917   1.811
35385SOL     OW 8051   7.445   4.232   8.503
35385SOL    HW1 8052   7.498   4.155   8.523
35385SOL    HW2 8053   7.426   4.225   8.410
35386SOL     OW 8054   7.597   5.496   2.697
35386SOL    HW1 8055   7.601   5.581   2.653
35386SOL    HW2 8056   7.644   5.436   2.639
35387SOL     OW 8057   8.492   9.378   3.087
35387SOL    HW1 8058   8.521   9.456   3.040
35387SOL    HW2 8059   8.568   9.352   3.139
35388SOL     OW 8060   3.209   7.587   5.129
35388SOL    HW1 8061   3.274   7.569   5.197
35388SOL    HW2 8062   3.228   7.524   5.060
35389SOL     OW 8063  10.405   2.411   6.878
35389SOL    HW1 8064  10.330   2.444   6.829
35389SOL    HW2 8065  10.418   2.322   6.844
35390SOL     OW 8066  11.001  14.438  13.920
35390SOL    HW1 8067  10.987  14.460  13.828
35390SOL    HW2 8068  11.052  14.357  13.918
35391SOL     OW 8069  13.294  13.403   0.407
35391SOL    HW1 8070  13.268  13.402   0.499
35391SOL    HW2 8071  13.287  13.494   0.380
35392SOL     OW 8072   9.395   7.461   9.715
35392SOL    HW1 8073   9.389   7.548   9.677
35392SOL    HW2 8074   9.310   7.420   9.694
35393SOL     OW 8075   4.107   1.689   1.016
35393SOL    HW1 8076   4.144   1.682   0.928
35393SOL    HW2 8077   4.013   1.676   1.004
35394SOL     OW 8078  13.494   9.009  13.912
35394SOL    HW1 8079  13.405   9.033  13.884
35394SOL    HW2 8080  13.541   8.992  13.830
35395SOL     OW 8081   3.899   0.535   8.747
35395SOL    HW1 8082   3.863   0.456   8.787
35395SOL    HW2 8083   3.930   0.588   8.820
35396SOL     OW 8084   0.682   8.039   6.592
35396SOL    HW1 8085   0.645   8.009   6.675
35396SOL    HW2 8086   0.766   7.994   6.584
35397SOL     OW 8087   5.211   5.390  12.559
35397SOL    HW1 8088   5.224   5.310  12.611
35397SOL    HW2 8089   5.168   5.451  12.619
35398SOL     OW 8090   9.220   2.581   1.782
35398SOL    HW1 8091   9.160   2.542   1.718
35398SOL    HW2 8092   9.306   2.544   1.760
35399SOL     OW 8093   8.855   2.550   0.360
35399SOL    HW1 8094   8.907   2.593   0.427
35399SOL    HW2 8095   8.898   2.466   0.346
35400SOL     OW 8096  10.197  13.704   7.490
35400SOL    HW1 8097  10.166  13.720   7.401
35400SOL    HW2 8098  10.137  13.754   7.545
35401SOL     OW 8099  14.680   9.564   9.161
35401SOL    HW1 8100  14.727   9.623   9.220
35401SOL    HW2 8101  14.659   9.618   9.085
35402SOL     OW 8102  11.035   2.278   1.715
35402SOL    HW1 8103  10.984   2.291   1.635
35402SOL    HW2 8104  10.985   2.323   1.783
35403SOL     OW 8105   4.510   4.855   8.866
35403SOL    HW1 8106   4.420   4.878   8.891
35403SOL    HW2 8107   4.549   4.823   8.946
35404SOL     OW 8108  13.086   7.341   0.717
35404SOL    HW1 8109  13.040   7.424   0.723
35404SOL    HW2 8110  13.126   7.342   0.630
35405SOL     OW 8111  13.272   4.586   7.902
35405SOL    HW1 8112  13.235   4.613   7.986
35405SOL    HW2 8113  13.276   4.491   7.907
35406SOL     OW 8114   0.728   5.113   3.719
35406SOL    HW1 8115   0.788   5.065   3.662
35406SOL    HW2 8116   0.683   5.046   3.770
35407SOL     OW 8117  13.246   7.555  10.604
35407SOL    HW1 8118  13.250   7.518  10.692
35407SOL    HW2 8119  13.230   7.479  10.547
35408SOL     OW 8120  12.653   5.864   5.656
35408SOL    HW1 8121  12.569   5.870   5.610
35408SOL    HW2 8122  12.642   5.920   5.733
35409SOL     OW 8123   8.277   6.799  14.656
35409SOL    HW1 8124   8.256   6.837  14.571
35409SOL    HW2 8125   8.347   6.735  14.637
35410SOL     OW 8126   8.108   8.965  11.640
35410SOL    HW1 8127   8.041   9.000  11.582
35410SOL    HW2 8128   8.123   8.876  11.609
35411SOL     OW 8129   2.655   7.460   6.347
35411SOL    HW1 8130   2.670   7.543   6.303
35411SOL    HW2 8131   2.732   7.408   6.327
35412SOL     OW 8132  11.029   8.439   1.101
35412SOL    HW1 8133  11.010   8.421   1.193
35412SOL    HW2 8134  11.116   8.478   1.101
35413SOL     OW 8135   1.159   8.720   4.991
35413SOL    HW1 8136   1.144   8.800   5.042
35413SOL    HW2 8137   1.250   8.697   5.010
35414SOL     OW 8138   7.492  11.188   5.222
35414SOL    HW1 8139   7.558  11.133   5.180
35414SOL    HW2 8140   7.408  11.152   5.191
35415SOL     OW 8141   5.119   5.384   7.880
35415SOL    HW1 8142   5.067   5.317   7.837
35415SOL    HW2 8143   5.192   5.337   7.919
35416SOL     OW 8144   4.063   8.819  13.074
35416SOL    HW1 8145   4.105   8.780  13.151
35416SOL    HW2 8146   4.133   8.865  13.029
35417SOL     OW 8147   3.701   6.887  13.817
35417SOL    HW1 8148   3.623   6.942  13.814
35417SOL    HW2 8149   3.669   6.800  13.839
35418SOL     OW 8150   7.339   9.671   4.740
35418SOL    HW1 8151   7.319   9.660   4.647
35418SOL    HW2 8152   7.280   9.740   4.769
35419SOL     OW 8153   3.185   3.762   7.760
35419SOL    HW1 8154   3.267   3.712   7.761
35419SOL    HW2 8155   3.116   3.696   7.762
35420SOL     OW 8156   5.087   8.206  12.055
35420SOL    HW1 8157   5.138   8.127  12.038
35420SOL    HW2 8158   5.130   8.245  12.131
35421SOL     OW 8159   7.653   1.564   8.849
35421SOL    HW1 8160   7.623   1.506   8.779
35421SOL    HW2 8161   7.676   1.646   8.806
35422SOL     OW 8162   6.425   8.183  12.196
35422SOL    HW1 8163   6.443   8.269  12.234
35422SOL    HW2 8164   6.482   8.178  12.119
35423SOL     OW 8165  10.708   3.560   3.514
35423SOL    HW1 8166  10.730   3.527   3.601
35423SOL    HW2 8167  10.697   3.654   3.526
35424SOL     OW 8168  11.999   4.630   6.824
35424SOL    HW1 8169  11.922   4.652   6.771
35424SOL    HW2 8170  12.073   4.639   6.764
35425SOL     OW 8171   0.888   7.469   8.992
35425SOL    HW1 8172   0.804   7.488   8.949
35425SOL    HW2 8173   0.947   7.448   8.920
35426SOL     OW 8174   9.654   5.083  14.841
35426SOL    HW1 8175   9.696   5.066   0.054
35426SOL    HW2 8176   9.610   5.167  14.853
35427SOL     OW 8177  10.549   9.941   7.474
35427SOL    HW1 8178  10.612   9.890   7.423
35427SOL    HW2 8179  10.593   9.957   7.557
35428SOL     OW 8180   9.637  13.983   8.506
35428SOL    HW1 8181   9.667  13.946   8.589
35428SOL    HW2 8182   9.564  13.927   8.480
35429SOL     OW 8183  14.649  11.750  10.527
35429SOL    HW1 8184  14.606  11.668  10.551
35429SOL    HW2 8185  14.621  11.766  10.436
35430SOL     OW 8186  10.755  13.911  14.237
35430SOL    HW1 8187  10.739  13.819  14.257
35430SOL    HW2 8188  10.796  13.910  14.150
35431SOL     OW 8189  12.924   7.398  13.845
35431SOL    HW1 8190  12.890   7.487  13.848
35431SOL    HW2 8191  12.856   7.348  13.799
35432SOL     OW 8192   3.645  14.041   3.888
35432SOL    HW1 8193   3.739  14.036   3.877
35432SOL    HW2 8194   3.631  14.120   3.941
35433SOL     OW 8195  13.083   1.923   2.715
35433SOL    HW1 8196  13.086   2.017   2.699
35433SOL    HW2 8197  12.998   1.895   2.681
35434SOL     OW 8198   5.083   3.110  10.095
35434SOL    HW1 8199   5.029   3.150  10.163
35434SOL    HW2 8200   5.051   3.149  10.013
35435SOL     OW 8201   5.698  13.604  14.362
35435SOL    HW1 8202   5.669  13.613  14.453
35435SOL    HW2 8203   5.668  13.684  14.320
35436SOL     OW 8204  14.027  11.726   1.693
35436SOL    HW1 8205  14.039  11.812   1.732
35436SOL    HW2 8206  14.054  11.736   1.602
35437SOL     OW 8207  12.587   5.790   3.324
35437SOL    HW1 8208  12.589   5.720   3.390
35437SOL    HW2 8209  12.680   5.806   3.305
35438SOL     OW 8210  12.612   6.205   4.348
35438SOL    HW1 8211  12.585   6.262   4.276
35438SOL    HW2 8212  12.616   6.117   4.309
35439SOL     OW 8213   9.278   1.114   4.920
35439SOL    HW1 8214   9.278   1.072   4.834
35439SOL    HW2 8215   9.359   1.165   4.922
35440SOL     OW 8216   3.345   9.111  12.489
35440SOL    HW1 8217   3.272   9.068  12.533
35440SOL    HW2 8218   3.375   9.047  12.424
35441SOL     OW 8219  13.499  13.451   3.241
35441SOL    HW1 8220  13.585  13.494   3.236
35441SOL    HW2 8221  13.462  13.460   3.154
35442SOL     OW 8222   8.211  11.741   8.068
35442SOL    HW1 8223   8.228  11.812   8.129
35442SOL    HW2 8224   8.167  11.674   8.120
35443SOL     OW 8225   2.784  10.122   8.474
35443SOL    HW1 8226   2.741  10.137   8.558
35443SOL    HW2 8227   2.750  10.037   8.445
35444SOL     OW 8228   7.241   6.456   6.098
35444SOL    HW1 8229   7.235   6.465   6.003
35444SOL    HW2 8230   7.235   6.545   6.131
35445SOL     OW 8231   9.915   2.218   6.699
35445SOL    HW1 8232   9.902   2.309   6.726
35445SOL    HW2 8233   9.953   2.175   6.776
35446SOL     OW 8234   8.311   3.174   7.900
35446SOL    HW1 8235   8.294   3.268   7.898
35446SOL    HW2 8236   8.247   3.137   7.839
35447SOL     OW 8237  13.846   2.203   5.796
35447SOL    HW1 8238  13.903   2.131   5.822
35447SOL    HW2 8239  13.809   2.235   5.878
35448SOL     OW 8240  12.761   4.015   2.817
35448SOL    HW1 8241  12.709   3.957   2.872
35448SOL    HW2 8242  12.699   4.051   2.754
35449SOL     OW 8243   3.407   9.701   2.102
35449SOL    HW1 8244   3.402   9.663   2.014
35449SOL    HW2 8245   3.407   9.625   2.161
35450SOL     OW 8246  11.633  10.557   1.798
35450SOL    HW1 8247  11.646  10.530   1.889
35450SOL    HW2 8248  11.673  10.487   1.746
35451SOL     OW 8249   1.041   5.421   6.496
35451SOL    HW1 8250   1.037   5.495   6.557
35451SOL    HW2 8251   0.958   5.425   6.449
35452SOL     OW 8252   4.028  10.916   6.442
35452SOL    HW1 8253   4.017  10.886   6.352
35452SOL    HW2 8254   4.123  10.921   6.454
35453SOL     OW 8255   1.424   6.460  13.254
35453SOL    HW1 8256   1.457   6.378  13.216
35453SOL    HW2 8257   1.502   6.514  13.265
35454SOL     OW 8258  14.787  12.471  10.222
35454SOL    HW1 8259   0.000  12.500  10.187
35454SOL    HW2 8260  14.807  12.391  10.270
35455SOL     OW 8261   0.053   5.080   6.981
35455SOL    HW1 8262   0.070   5.165   7.021
35455SOL    HW2 8263   0.131   5.028   7.000
35456SOL     OW 8264  11.220   2.662  13.623
35456SOL    HW1 8265  11.244   2.571  13.640
35456SOL    HW2 8266  11.275   2.688  13.550
35457SOL     OW 8267   5.770  12.733  11.882
35457SOL    HW1 8268   5.730  12.704  11.964
35457SOL    HW2 8269   5.808  12.654  11.845
35458SOL     OW 8270   2.613  14.272   0.642
35458SOL    HW1 8271   2.524  14.260   0.675
35458SOL    HW2 8272   2.624  14.203   0.576
35459SOL     OW 8273   3.955   1.008   7.382
35459SOL    HW1 8274   3.888   1.076   7.380
35459SOL    HW2 8275   3.953   0.975   7.472
35460SOL     OW 8276  12.007  13.028   6.754
35460SOL    HW1 8277  11.957  13.035   6.672
35460SOL    HW2 8278  11.962  12.960   6.804
35461SOL     OW 8279  10.642   3.472   6.051
35461SOL    HW1 8280  10.601   3.498   5.969
35461SOL    HW2 8281  10.619   3.541   6.113
35462SOL     OW 8282   2.861   1.509  11.637
35462SOL    HW1 8283   2.830   1.523  11.548
35462SOL    HW2 8284   2.953   1.486  11.628
35463SOL     OW 8285   0.739   2.220   4.097
35463SOL    HW1 8286   0.745   2.311   4.068
35463SOL    HW2 8287   0.661   2.186   4.053
35464SOL     OW 8288   0.069  12.780   1.473
35464SOL    HW1 8289   0.002  12.767   1.540
35464SOL    HW2 8290   0.035  12.851   1.418
35465SOL     OW 8291  13.086  10.238   6.565
35465SOL    HW1 8292  13.056  10.169   6.625
35465SOL    HW2 8293  13.006  10.286   6.543
35466SOL     OW 8294   9.788   7.963  13.513
35466SOL    HW1 8295   9.854   7.954  13.582
35466SOL    HW2 8296   9.815   8.042  13.465
35467SOL     OW 8297   4.715   3.081   6.508
35467SOL    HW1 8298   4.795   3.132   6.521
35467SOL    HW2 8299   4.742   2.990   6.524
35468SOL     OW 8300  11.790   6.685   8.822
35468SOL    HW1 8301  11.816   6.776   8.836
35468SOL    HW2 8302  11.771   6.652   8.910
35469SOL     OW 8303   9.913   7.333  10.875
35469SOL    HW1 8304   9.883   7.408  10.824
35469SOL    HW2 8305   9.943   7.270  10.809
35470SOL     OW 8306  12.486  10.995   1.079
35470SOL    HW1 8307  12.439  11.009   0.996
35470SOL    HW2 8308  12.561  11.054   1.074
35471SOL     OW 8309   6.577   2.731   5.970
35471SOL    HW1 8310   6.500   2.785   5.989
35471SOL    HW2 8311   6.639   2.791   5.928
35472SOL     OW 8312   9.748   5.103   0.225
35472SOL    HW1 8313   9.767   5.015   0.258
35472SOL    HW2 8314   9.816   5.158   0.265
35473SOL     OW 8315   3.375   1.163   2.539
35473SOL    HW1 8316   3.344   1.179   2.450
35473SOL    HW2 8317   3.442   1.230   2.553
35474SOL     OW 8318   3.652   7.192   7.526
35474SOL    HW1 8319   3.570   7.148   7.502
35474SOL    HW2 8320   3.648   7.201   7.621
35475SOL     OW 8321   0.913   0.299   3.089
35475SOL    HW1 8322   0.930   0.286   3.183
35475SOL    HW2 8323   0.822   0.271   3.078
35476SOL     OW 8324   8.906   4.799   3.967
35476SOL    HW1 8325   8.839   4.767   4.028
35476SOL    HW2 8326   8.973   4.838   4.024
35477SOL     OW 8327   6.367   8.749  14.054
35477SOL    HW1 8328   6.310   8.673  14.058
35477SOL    HW2 8329   6.309   8.824  14.066
35478SOL     OW 8330   4.712  12.213  13.490
35478SOL    HW1 8331   4.743  12.185  13.404
35478SOL    HW2 8332   4.726  12.308  13.491
35479SOL     OW 8333   2.436   1.904  10.931
35479SOL    HW1 8334   2.514   1.903  10.988
35479SOL    HW2 8335   2.457   1.842  10.861
35480SOL     OW 8336   3.568  11.123   8.836
35480SOL    HW1 8337   3.615  11.184   8.779
35480SOL    HW2 8338   3.532  11.057   8.776
35481SOL     OW 8339  11.173   9.842  12.867
35481SOL    HW1 8340  11.151   9.811  12.779
35481SOL    HW2 8341  11.262   9.877  12.857
35482SOL     OW 8342   0.806   2.526   1.952
35482SOL    HW1 8343   0.728   2.503   2.001
35482SOL    HW2 8344   0.795   2.619   1.931
35483SOL     OW 8345   9.468   0.194   7.480
35483SOL    HW1 8346   9.528   0.163   7.547
35483SOL    HW2 8347   9.416   0.117   7.458
35484SOL     OW 8348  10.308  13.201  13.759
35484SOL    HW1 8349  10.361  13.141  13.812
35484SOL    HW2 8350  10.357  13.211  13.677
35485SOL     OW 8351   1.850   7.695  10.478
35485SOL    HW1 8352   1.875   7.670  10.567
35485SOL    HW2 8353   1.756   7.675  10.473
35486SOL     OW 8354   5.223   1.723   6.579
35486SOL    HW1 8355   5.266   1.808   6.572
35486SOL    HW2 8356   5.155   1.736   6.645
35487SOL     OW 8357   0.221   6.258   5.407
35487SOL    HW1 8358   0.165   6.192   5.447
35487SOL    HW2 8359   0.195   6.340   5.448
35488SOL     OW 8360   3.657   3.925   5.721
35488SOL    HW1 8361   3.632   3.971   5.640
35488SOL    HW2 8362   3.623   3.980   5.791
35489SOL     OW 8363  10.657   3.529   4.074
35489SOL    HW1 8364  10.659   3.448   4.126
35489SOL    HW2 8365  10.740   3.572   4.092
35490SOL     OW 8366   5.665   9.483   7.342
35490SOL    HW1 8367   5.725   9.557   7.346
35490SOL    HW2 8368   5.597   9.511   7.281
35491SOL     OW 8369   4.480   5.217   8.859
35491SOL    HW1 8370   4.486   5.312   8.867
35491SOL    HW2 8371   4.563   5.185   8.895
35492SOL     OW 8372   7.532  11.198  13.364
35492SOL    HW1 8373   7.448  11.152  13.362
35492SOL    HW2 8374   7.595  11.130  13.388
35493SOL     OW 8375   1.517  11.574  10.778
35493SOL    HW1 8376   1.545  11.553  10.867
35493SOL    HW2 8377   1.544  11.665  10.765
35494SOL     OW 8378   1.518  11.023  12.915
35494SOL    HW1 8379   1.462  10.947  12.901
35494SOL    HW2 8380   1.469  11.096  12.875
35495SOL     OW 8381  13.631   2.110  12.200
35495SOL    HW1 8382  13.543   2.145  12.210
35495SOL    HW2 8383  13.628   2.025  12.244
35496SOL     OW 8384   4.604   8.277  10.855
35496SOL    HW1 8385   4.509   8.274  10.869
35496SOL    HW2 8386   4.639   8.203  10.904
35497SOL     OW 8387  13.961   8.804   0.473
35497SOL    HW1 8388  13.971   8.786   0.379
35497SOL    HW2 8389  13.991   8.725   0.516
35498SOL     OW 8390   3.864   4.883  10.894
35498SOL    HW1 8391   3.867   4.788  10.886
35498SOL    HW2 8392   3.919   4.904  10.969
35499SOL     OW 8393   5.397   0.659   7.961
35499SOL    HW1 8394   5.456   0.686   7.890
35499SOL    HW2 8395   5.340   0.735   7.976
35500SOL     OW 8396   2.880   9.794   4.834
35500SOL    HW1 8397   2.846   9.878   4.804
35500SOL    HW2 8398   2.810   9.732   4.817
35501SOL     OW 8399   1.878   3.559   1.615
35501SOL    HW1 8400   1.854   3.554   1.523
35501SOL    HW2 8401   1.813   3.506   1.660
35502SOL     OW 8402   1.744   9.866   6.945
35502SOL    HW1 8403   1.829   9.855   6.987
35502SOL    HW2 8404   1.721   9.779   6.913
35503SOL     OW 8405   0.972   6.691  12.101
35503SOL    HW1 8406   0.952   6.686  12.007
35503SOL    HW2 8407   0.912   6.628  12.142
35504SOL     OW 8408  10.521   1.571   5.789
35504SOL    HW1 8409  10.516   1.633   5.862
35504SOL    HW2 8410  10.495   1.487   5.828
35505SOL     OW 8411   5.214   7.314   6.731
35505SOL    HW1 8412   5.212   7.401   6.692
35505SOL    HW2 8413   5.139   7.312   6.790
35506SOL     OW 8414  13.940   6.299   2.356
35506SOL    HW1 8415  13.867   6.352   2.388
35506SOL    HW2 8416  13.956   6.333   2.268
35507SOL     OW 8417  14.746   7.375  11.518
35507SOL    HW1 8418  14.781   7.406  11.602
35507SOL    HW2 8419  14.749   7.452  11.461
35508SOL     OW 8420   2.225   4.910  12.669
35508SOL    HW1 8421   2.232   4.852  12.594
35508SOL    HW2 8422   2.264   4.861  12.741
35509SOL     OW 8423  10.920   0.845  13.756
35509SOL    HW1 8424  10.948   0.913  13.818
35509SOL    HW2 8425  10.976   0.770  13.776
35510SOL     OW 8426   3.531   4.072  14.502
35510SOL    HW1 8427   3.491   4.030  14.578
35510SOL    HW2 8428   3.475   4.149  14.486
35511SOL     OW 8429   9.531  10.129   8.192
35511SOL    HW1 8430   9.623  10.110   8.211
35511SOL    HW2 8431   9.488  10.044   8.197
35512SOL     OW 8432   7.021   9.487   6.679
35512SOL    HW1 8433   7.035   9.415   6.618
35512SOL    HW2 8434   6.975   9.447   6.753
35513SOL     OW 8435  12.052   2.304   8.093
35513SOL    HW1 8436  12.047   2.272   8.003
35513SOL    HW2 8437  11.981   2.258   8.138
35514SOL     OW 8438   3.177   3.055  11.666
35514SOL    HW1 8439   3.254   3.008  11.698
35514SOL    HW2 8440   3.123   2.987  11.626
35515SOL     OW 8441   6.469   6.802  12.446
35515SOL    HW1 8442   6.538   6.813  12.381
35515SOL    HW2 8443   6.395   6.765  12.397
35516SOL     OW 8444   4.337  12.740   3.302
35516SOL    HW1 8445   4.374  12.819   3.341
35516SOL    HW2 8446   4.412  12.691   3.270
35517SOL     OW 8447  12.987   7.377   9.722
35517SOL    HW1 8448  13.080   7.370   9.701
35517SOL    HW2 8449  12.968   7.298   9.773
35518SOL     OW 8450   5.217   1.739   0.368
35518SOL    HW1 8451   5.248   1.654   0.400
35518SOL    HW2 8452   5.126   1.722   0.342
35519SOL     OW 8453   7.967   2.593   7.241
35519SOL    HW1 8454   8.005   2.618   7.158
35519SOL    HW2 8455   7.965   2.497   7.239
35520SOL     OW 8456   8.897  11.016  10.921
35520SOL    HW1 8457   8.814  11.001  10.966
35520SOL    HW2 8458   8.902  11.111  10.910
35521SOL     OW 8459   6.510   9.640   3.864
35521SOL    HW1 8460   6.564   9.664   3.788
35521SOL    HW2 8461   6.521   9.545   3.871
35522SOL     OW 8462  13.371  14.518   5.723
35522SOL    HW1 8463  13.373  14.499   5.816
35522SOL    HW2 8464  13.408  14.606   5.715
35523SOL     OW 8465   5.140   1.972  11.067
35523SOL    HW1 8466   5.163   2.065  11.064
35523SOL    HW2 8467   5.155   1.946  11.158
35524SOL     OW 8468   4.694   6.546   8.409
35524SOL    HW1 8469   4.715   6.620   8.350
35524SOL    HW2 8470   4.602   6.528   8.392
35525SOL     OW 8471   7.436   3.358  12.409
35525SOL    HW1 8472   7.518   3.349  12.359
35525SOL    HW2 8473   7.443   3.444  12.450
35526SOL     OW 8474   5.853  12.540  11.479
35526SOL    HW1 8475   5.875  12.489  11.557
35526SOL    HW2 8476   5.937  12.556  11.436
35527SOL     OW 8477  11.957  14.837  10.456
35527SOL    HW1 8478  12.001  14.780  10.393
35527SOL    HW2 8479  12.024   0.028  10.482
35528SOL     OW 8480   0.623   9.240   5.431
35528SOL    HW1 8481   0.681   9.173   5.396
35528SOL    HW2 8482   0.536   9.201   5.428
35529SOL     OW 8483   0.459   5.420   1.806
35529SOL    HW1 8484   0.484   5.458   1.890
35529SOL    HW2 8485   0.365   5.408   1.812
35530SOL     OW 8486   1.643   7.196   8.420
35530SOL    HW1 8487   1.643   7.127   8.486
35530SOL    HW2 8488   1.724   7.181   8.370
35531SOL     OW 8489  12.816   5.889   9.581
35531SOL    HW1 8490  12.831   5.966   9.636
35531SOL    HW2 8491  12.722   5.874   9.586
35532SOL     OW 8492  14.087  10.002   7.967
35532SOL    HW1 8493  14.070   9.970   7.879
35532SOL    HW2 8494  14.000  10.022   8.003
35533SOL     OW 8495   6.498  13.748   1.000
35533SOL    HW1 8496   6.468  13.676   1.055
35533SOL    HW2 8497   6.574  13.713   0.953
35534SOL     OW 8498  10.467   8.869   8.966
35534SOL    HW1 8499  10.413   8.870   9.045
35534SOL    HW2 8500  10.493   8.960   8.954
35535SOL     OW 8501  10.048  11.940   6.390
35535SOL    HW1 8502  10.027  11.912   6.301
35535SOL    HW2 8503  10.000  12.022   6.401
35536SOL     OW 8504  11.680  11.180  14.759
35536SOL    HW1 8505  11.699  11.229  14.679
35536SOL    HW2 8506  11.709  11.091  14.740
35537SOL     OW 8507   5.375  10.656   1.164
35537SOL    HW1 8508   5.429  10.706   1.227
35537SOL    HW2 8509   5.288  10.695   1.171
35538SOL     OW 8510   7.188   4.861   9.527
35538SOL    HW1 8511   7.102   4.900   9.511
35538SOL    HW2 8512   7.174   4.767   9.515
35539SOL     OW 8513   2.657   0.590   6.973
35539SOL    HW1 8514   2.656   0.592   6.877
35539SOL    HW2 8515   2.576   0.633   6.999
35540SOL     OW 8516   2.074   4.812   6.170
35540SOL    HW1 8517   2.096   4.726   6.134
35540SOL    HW2 8518   2.021   4.793   6.247
35541SOL     OW 8519  13.404   5.612   0.538
35541SOL    HW1 8520  13.484   5.562   0.529
35541SOL    HW2 8521  13.334   5.548   0.530
35542SOL     OW 8522  10.502  11.621   6.556
35542SOL    HW1 8523  10.489  11.560   6.628
35542SOL    HW2 8524  10.443  11.694   6.576
35543SOL     OW 8525  12.469  14.274   2.324
35543SOL    HW1 8526  12.377  14.271   2.298
35543SOL    HW2 8527  12.478  14.360   2.366
35544SOL     OW 8528  11.542   7.550   5.545
35544SOL    HW1 8529  11.638   7.557   5.544
35544SOL    HW2 8530  11.516   7.591   5.627
35545SOL     OW 8531   9.535   7.851   1.418
35545SOL    HW1 8532   9.616   7.869   1.465
35545SOL    HW2 8533   9.477   7.924   1.440
35546SOL     OW 8534   3.212  13.276   3.474
35546SOL    HW1 8535   3.249  13.360   3.447
35546SOL    HW2 8536   3.283  13.213   3.457
35547SOL     OW 8537   2.968  14.762   2.818
35547SOL    HW1 8538   2.927  14.838   2.776
35547SOL    HW2 8539   2.937  14.767   2.909
35548SOL     OW 8540   6.435  14.680  14.486
35548SOL    HW1 8541   6.502  14.652  14.423
35548SOL    HW2 8542   6.446  14.621  14.560
35549SOL     OW 8543   0.558   7.472   7.703
35549SOL    HW1 8544   0.518   7.521   7.774
35549SOL    HW2 8545   0.496   7.482   7.630
35550SOL     OW 8546  10.501   1.866  13.301
35550SOL    HW1 8547  10.412   1.860  13.267
35550SOL    HW2 8548  10.515   1.960  13.314
35551SOL     OW 8549   0.904  12.814  13.254
35551SOL    HW1 8550   0.893  12.839  13.345
35551SOL    HW2 8551   0.820  12.834  13.213
35552SOL     OW 8552   9.675  11.323   8.786
35552SOL    HW1 8553   9.649  11.411   8.759
35552SOL    HW2 8554   9.750  11.337   8.845
35553SOL     OW 8555   6.655  11.218   1.282
35553SOL    HW1 8556   6.727  11.161   1.310
35553SOL    HW2 8557   6.591  11.213   1.354
35554SOL     OW 8558   4.345   1.838   1.027
35554SOL    HW1 8559   4.254   1.807   1.020
35554SOL    HW2 8560   4.342   1.906   1.094
35555SOL     OW 8561   9.084   5.745   1.086
35555SOL    HW1 8562   9.078   5.804   1.011
35555SOL    HW2 8563   9.172   5.759   1.121
35556SOL     OW 8564   4.421   7.510   8.801
35556SOL    HW1 8565   4.327   7.498   8.809
35556SOL    HW2 8566   4.431   7.592   8.752
35557SOL     OW 8567   3.942  10.745   6.636
35557SOL    HW1 8568   3.996  10.798   6.578
35557SOL    HW2 8569   3.859  10.791   6.640
35558SOL     OW 8570  11.983   9.686   7.039
35558SOL    HW1 8571  11.913   9.620   7.042
35558SOL    HW2 8572  11.983   9.717   6.949
35559SOL     OW 8573   0.701  12.825  13.459
35559SOL    HW1 8574   0.694  12.769  13.536
35559SOL    HW2 8575   0.611  12.833  13.427
35560SOL     OW 8576   7.915  13.514  12.820
35560SOL    HW1 8577   7.874  13.576  12.760
35560SOL    HW2 8578   7.861  13.519  12.899
35561SOL     OW 8579   7.520  12.382  14.030
35561SOL    HW1 8580   7.599  12.328  14.030
35561SOL    HW2 8581   7.552  12.472  14.019
35562SOL     OW 8582  10.442   9.284   4.849
35562SOL    HW1 8583  10.514   9.221   4.859
35562SOL    HW2 8584  10.373   9.250   4.904
35563SOL     OW 8585   1.317   8.733   8.513
35563SOL    HW1 8586   1.381   8.668   8.544
35563SOL    HW2 8587   1.358   8.818   8.531
35564SOL     OW 8588  13.923  14.540  11.068
35564SOL    HW1 8589  13.984  14.489  11.121
35564SOL    HW2 8590  13.911  14.488  10.989
35565SOL     OW 8591  11.458   1.511   4.744
35565SOL    HW1 8592  11.494   1.493   4.657
35565SOL    HW2 8593  11.489   1.600   4.764
35566SOL     OW 8594  13.495   0.214   4.400
35566SOL    HW1 8595  13.568   0.160   4.370
35566SOL    HW2 8596  13.524   0.250   4.484
35567SOL     OW 8597  12.723  12.980   5.601
35567SOL    HW1 8598  12.807  12.949   5.632
35567SOL    HW2 8599  12.717  12.949   5.511
35568SOL     OW 8600   4.697   3.207   4.549
35568SOL    HW1 8601   4.765   3.247   4.493
35568SOL    HW2 8602   4.624   3.269   4.545
35569SOL     OW 8603   2.093   8.567   6.473
35569SOL    HW1 8604   2.080   8.569   6.568
35569SOL    HW2 8605   2.167   8.508   6.461
35570SOL     OW 8606   2.804  13.151   3.946
35570SOL    HW1 8607   2.781  13.063   3.977
35570SOL    HW2 8608   2.802  13.205   4.025
35571SOL     OW 8609   0.375   0.291  14.152
35571SOL    HW1 8610   0.349   0.233  14.081
35571SOL    HW2 8611   0.293   0.319  14.192
35572SOL     OW 8612  14.398   1.389  11.599
35572SOL    HW1 8613  14.351   1.462  11.558
35572SOL    HW2 8614  14.347   1.370  11.678
35573SOL     OW 8615  13.454   7.803   1.839
35573SOL    HW1 8616  13.488   7.866   1.776
35573SOL    HW2 8617  13.457   7.719   1.794
35574SOL     OW 8618   6.021  13.966   6.755
35574SOL    HW1 8619   5.954  13.914   6.711
35574SOL    HW2 8620   6.049  13.913   6.829
35575SOL     OW 8621   6.542  13.245  13.886
35575SOL    HW1 8622   6.486  13.171  13.910
35575SOL    HW2 8623   6.495  13.288  13.815
35576SOL     OW 8624   4.592  10.745   8.450
35576SOL    HW1 8625   4.515  10.694   8.424
35576SOL    HW2 8626   4.575  10.769   8.541
35577SOL     OW 8627   5.556   2.834  11.645
35577SOL    HW1 8628   5.497   2.860  11.574
35577SOL    HW2 8629   5.522   2.877  11.723
35578SOL     OW 8630   8.841  11.677   9.387
35578SOL    HW1 8631   8.781  11.640   9.322
35578SOL    HW2 8632   8.787  11.691   9.464
35579SOL     OW 8633   4.460  10.053   2.214
35579SOL    HW1 8634   4.417   9.977   2.252
35579SOL    HW2 8635   4.547  10.054   2.254
35580SOL     OW 8636   0.175  12.256   8.449
35580SOL    HW1 8637   0.082  12.263   8.425
35580SOL    HW2 8638   0.174  12.221   8.538
35581SOL     OW 8639   3.112   8.659  11.309
35581SOL    HW1 8640   3.023   8.693  11.297
35581SOL    HW2 8641   3.126   8.601  11.234
35582SOL     OW 8642   6.390   0.736   8.614
35582SOL    HW1 8643   6.405   0.794   8.688
35582SOL    HW2 8644   6.296   0.718   8.615
35583SOL     OW 8645  13.751   1.777  14.838
35583SOL    HW1 8646  13.714   1.802  14.753
35583SOL    HW2 8647  13.845   1.769  14.822
35584SOL     OW 8648  11.799   8.346   4.914
35584SOL    HW1 8649  11.741   8.413   4.876
35584SOL    HW2 8650  11.793   8.272   4.852
35585SOL     OW 8651  14.180   8.452  13.425
35585SOL    HW1 8652  14.124   8.523  13.395
35585SOL    HW2 8653  14.179   8.388  13.354
35586SOL     OW 8654  13.104   8.842   1.627
35586SOL    HW1 8655  13.142   8.758   1.601
35586SOL    HW2 8656  13.010   8.830   1.618
35587SOL     OW 8657   9.060   3.770  13.900
35587SOL    HW1 8658   9.011   3.705  13.950
35587SOL    HW2 8659   9.116   3.719  13.842
35588SOL     OW 8660  13.969   3.871   4.911
35588SOL    HW1 8661  14.056   3.863   4.950
35588SOL    HW2 8662  13.909   3.867   4.984
35589SOL     OW 8663  11.022   9.818  12.597
35589SOL    HW1 8664  11.076   9.775  12.531
35589SOL    HW2 8665  10.974   9.746  12.639
35590SOL     OW 8666  10.190  13.063  11.157
35590SOL    HW1 8667  10.275  13.064  11.200
35590SOL    HW2 8668  10.159  13.153  11.161
35591SOL     OW 8669  12.006   3.339   6.869
35591SOL    HW1 8670  11.972   3.400   6.804
35591SOL    HW2 8671  11.934   3.279   6.887
35592SOL     OW 8672   9.860  10.095  10.926
35592SOL    HW1 8673   9.785  10.153  10.914
35592SOL    HW2 8674   9.823  10.008  10.934
35593SOL     OW 8675   9.006   8.832   5.733
35593SOL    HW1 8676   8.948   8.784   5.675
35593SOL    HW2 8677   9.094   8.815   5.700
35594SOL     OW 8678   4.808  10.689   1.475
35594SOL    HW1 8679   4.747  10.713   1.545
35594SOL    HW2 8680   4.857  10.615   1.511
35595SOL     OW 8681   9.595   8.958   2.366
35595SOL    HW1 8682   9.563   9.040   2.404
35595SOL    HW2 8683   9.515   8.910   2.345
35596SOL     OW 8684  13.469   5.181  14.249
35596SOL    HW1 8685  13.390   5.188  14.195
35596SOL    HW2 8686  13.541   5.178  14.186
35597SOL     OW 8687   9.260   2.071   0.218
35597SOL    HW1 8688   9.308   1.992   0.241
35597SOL    HW2 8689   9.328   2.136   0.197
35598SOL     OW 8690   6.200   3.482  14.253
35598SOL    HW1 8691   6.280   3.526  14.281
35598SOL    HW2 8692   6.220   3.389  14.260
35599SOL     OW 8693   5.429   5.853   2.979
35599SOL    HW1 8694   5.424   5.925   2.917
35599SOL    HW2 8695   5.369   5.787   2.943
35600SOL     OW 8696  10.235   8.713   7.840
35600SOL    HW1 8697  10.274   8.799   7.856
35600SOL    HW2 8698  10.258   8.661   7.917
35601SOL     OW 8699  11.996   2.126  10.871
35601SOL    HW1 8700  11.985   2.204  10.817
35601SOL    HW2 8701  12.090   2.107  10.868
35602SOL     OW 8702   5.235  13.352   3.047
35602SOL    HW1 8703   5.262  13.369   2.957
35602SOL    HW2 8704   5.188  13.431   3.074
35603SOL     OW 8705  13.452   0.506   1.927
35603SOL    HW1 8706  13.499   0.539   1.850
35603SOL    HW2 8707  13.515   0.449   1.971
35604SOL     OW 8708  11.693   9.459   5.757
35604SOL    HW1 8709  11.672   9.376   5.801
35604SOL    HW2 8710  11.666   9.527   5.819
35605SOL     OW 8711   0.680  11.384   4.939
35605SOL    HW1 8712   0.707  11.351   5.025
35605SOL    HW2 8713   0.758  11.426   4.903
35606SOL     OW 8714   3.373   3.971  10.864
35606SOL    HW1 8715   3.349   4.041  10.925
35606SOL    HW2 8716   3.468   3.969  10.866
35607SOL     OW 8717   4.987   3.330  12.400
35607SOL    HW1 8718   5.018   3.254  12.448
35607SOL    HW2 8719   5.019   3.405  12.450
35608SOL     OW 8720   4.151   0.198   3.654
35608SOL    HW1 8721   4.085   0.212   3.586
35608SOL    HW2 8722   4.119   0.247   3.729
35609SOL     OW 8723   8.551   8.404  11.671
35609SOL    HW1 8724   8.567   8.374  11.581
35609SOL    HW2 8725   8.596   8.340  11.726
35610SOL     OW 8726   0.645   0.589  14.232
35610SOL    HW1 8727   0.554   0.610  14.255
35610SOL    HW2 8728   0.687   0.570  14.316
35611SOL     OW 8729  11.213   4.018   7.566
35611SOL    HW1 8730  11.190   3.963   7.641
35611SOL    HW2 8731  11.132   4.023   7.515
35612SOL     OW 8732  14.621   5.081   7.466
35612SOL    HW1 8733  14.623   5.050   7.376
35612SOL    HW2 8734  14.648   5.006   7.518
35613SOL     OW 8735   4.198   3.678   8.192
35613SOL    HW1 8736   4.139   3.746   8.161
35613SOL    HW2 8737   4.283   3.721   8.199
35614SOL     OW 8738   0.996  13.901   6.261
35614SOL    HW1 8739   1.082  13.900   6.302
35614SOL    HW2 8740   1.000  13.974   6.199
35615SOL     OW 8741   1.659  14.691  12.809
35615SOL    HW1 8742   1.634  14.641  12.731
35615SOL    HW2 8743   1.720  14.633  12.855
35616SOL     OW 8744  11.024  12.941   2.211
35616SOL    HW1 8745  10.991  13.012   2.267
35616SOL    HW2 8746  11.094  12.901   2.263
35617SOL     OW 8747   4.117  11.720   0.186
35617SOL    HW1 8748   4.142  11.790   0.125
35617SOL    HW2 8749   4.112  11.641   0.132
35618SOL     OW 8750  13.419   1.444   3.569
35618SOL    HW1 8751  13.506   1.441   3.608
35618SOL    HW2 8752  13.360   1.424   3.642
35619SOL     OW 8753   5.070   4.062   8.684
35619SOL    HW1 8754   5.123   4.136   8.713
35619SOL    HW2 8755   4.980   4.093   8.692
35620SOL     OW 8756   7.947   2.214  10.904
35620SOL    HW1 8757   7.874   2.258  10.860
35620SOL    HW2 8758   7.936   2.121  10.881
35621SOL     OW 8759   2.375  12.124   8.659
35621SOL    HW1 8760   2.445  12.062   8.679
35621SOL    HW2 8761   2.416  12.191   8.604
35622SOL     OW 8762   6.535   6.281  12.383
35622SOL    HW1 8763   6.535   6.219  12.456
35622SOL    HW2 8764   6.619   6.268  12.340
35623SOL     OW 8765   3.402   8.871   8.407
35623SOL    HW1 8766   3.469   8.811   8.439
35623SOL    HW2 8767   3.451   8.940   8.362
35624SOL     OW 8768  13.423   8.262  14.435
35624SOL    HW1 8769  13.445   8.321  14.363
35624SOL    HW2 8770  13.333   8.284  14.458
35625SOL     OW 8771   5.835   1.811  13.929
35625SOL    HW1 8772   5.839   1.796  14.023
35625SOL    HW2 8773   5.810   1.902  13.920
35626SOL     OW 8774  12.416   9.409   9.877
35626SOL    HW1 8775  12.456   9.388   9.792
35626SOL    HW2 8776  12.486   9.449   9.928
35627SOL     OW 8777  14.285   1.888  11.428
35627SOL    HW1 8778  14.265   1.795  11.439
35627SOL    HW2 8779  14.208   1.923  11.384
35628SOL     OW 8780   5.312   2.401  13.393
35628SOL    HW1 8781   5.297   2.318  13.438
35628SOL    HW2 8782   5.297   2.380  13.300
35629SOL     OW 8783   9.518   0.294   6.584
35629SOL    HW1 8784   9.607   0.259   6.578
35629SOL    HW2 8785   9.530   0.389   6.594
35630SOL     OW 8786  13.326   2.176   5.368
35630SOL    HW1 8787  13.251   2.216   5.412
35630SOL    HW2 8788  13.314   2.082   5.381
35631SOL     OW 8789   5.502   9.317  11.172
35631SOL    HW1 8790   5.434   9.332  11.106
35631SOL    HW2 8791   5.533   9.228  11.154
35632SOL     OW 8792   1.678  10.774   9.627
35632SOL    HW1 8793   1.766  10.771   9.589
35632SOL    HW2 8794   1.688  10.829   9.705
35633SOL     OW 8795  12.701  13.631   8.659
35633SOL    HW1 8796  12.641  13.649   8.586
35633SOL    HW2 8797  12.695  13.537   8.673
35634SOL     OW 8798   2.818   6.812  11.477
35634SOL    HW1 8799   2.822   6.894  11.525
35634SOL    HW2 8800   2.871   6.826  11.398
35635SOL     OW 8801   3.351   9.245   3.415
35635SOL    HW1 8802   3.283   9.300   3.453
35635SOL    HW2 8803   3.407   9.305   3.366
35636SOL     OW 8804   8.491   1.887   4.804
35636SOL    HW1 8805   8.554   1.833   4.755
35636SOL    HW2 8806   8.538   1.969   4.821
35637SOL     OW 8807   8.914  10.373   0.416
35637SOL    HW1 8808   8.905  10.323   0.497
35637SOL    HW2 8809   8.824  10.389   0.388
35638SOL     OW 8810  10.962   4.304  14.418
35638SOL    HW1 8811  10.948   4.211  14.437
35638SOL    HW2 8812  11.026   4.332  14.483
35639SOL     OW 8813   7.911   0.916   1.191
35639SOL    HW1 8814   7.859   0.995   1.203
35639SOL    HW2 8815   8.000   0.947   1.180
35640SOL     OW 8816   1.263   0.254   1.089
35640SOL    HW1 8817   1.258   0.244   0.993
35640SOL    HW2 8818   1.269   0.165   1.122
35641SOL     OW 8819   6.814  11.553   5.659
35641SOL    HW1 8820   6.766  11.535   5.740
35641SOL    HW2 8821   6.776  11.493   5.595
35642SOL     OW 8822   7.016   8.478   1.701
35642SOL    HW1 8823   7.106   8.475   1.670
35642SOL    HW2 8824   6.971   8.535   1.638
35643SOL     OW 8825  10.168  11.791   8.955
35643SOL    HW1 8826  10.124  11.858   8.903
35643SOL    HW2 8827  10.215  11.738   8.890
35644SOL     OW 8828  13.613  11.802   7.487
35644SOL    HW1 8829  13.561  11.840   7.558
35644SOL    HW2 8830  13.704  11.822   7.510
35645SOL     OW 8831   0.361   5.282  10.870
35645SOL    HW1 8832   0.441   5.335  10.860
35645SOL    HW2 8833   0.290   5.344  10.859
35646SOL     OW 8834   5.032  12.480  14.257
35646SOL    HW1 8835   5.075  12.429  14.188
35646SOL    HW2 8836   5.078  12.454  14.338
35647SOL     OW 8837   3.781  13.315   0.522
35647SOL    HW1 8838   3.857  13.371   0.540
35647SOL    HW2 8839   3.736  13.307   0.606
35648SOL     OW 8840   9.662   3.494   1.497
35648SOL    HW1 8841   9.754   3.518   1.481
35648SOL    HW2 8842   9.635   3.447   1.418
35649SOL     OW 8843   5.877   2.683   3.360
35649SOL    HW1 8844   5.784   2.666   3.378
35649SOL    HW2 8845   5.919   2.598   3.374
35650SOL     OW 8846  12.421   6.625  11.650
35650SOL    HW1 8847  12.416   6.669  11.735
35650SOL    HW2 8848  12.433   6.533  11.671
35651SOL     OW 8849   7.085  14.454  13.891
35651SOL    HW1 8850   7.133  14.391  13.946
35651SOL    HW2 8851   7.119  14.440  13.803
35652SOL     OW 8852   1.300   3.563   0.440
35652SOL    HW1 8853   1.232   3.625   0.414
35652SOL    HW2 8854   1.380   3.597   0.402
35653SOL     OW 8855   9.464   2.870   5.316
35653SOL    HW1 8856   9.502   2.897   5.399
35653SOL    HW2 8857   9.378   2.911   5.314
35654SOL     OW 8858   7.496   8.664   4.052
35654SOL    HW1 8859   7.424   8.639   4.110
35654SOL    HW2 8860   7.454   8.678   3.966
35655SOL     OW 8861   7.107   6.833   3.454
35655SOL    HW1 8862   7.066   6.748   3.474
35655SOL    HW2 8863   7.153   6.856   3.535
35656SOL     OW 8864   0.345   6.832   2.036
35656SOL    HW1 8865   0.407   6.762   2.018
35656SOL    HW2 8866   0.259   6.788   2.038
35657SOL     OW 8867  11.299   5.291   4.724
35657SOL    HW1 8868  11.268   5.304   4.813
35657SOL    HW2 8869  11.360   5.363   4.708
35658SOL     OW 8870  11.548   1.883  14.382
35658SOL    HW1 8871  11.603   1.828  14.439
35658SOL    HW2 8872  11.574   1.858  14.293
35659SOL     OW 8873   2.782   7.449   8.746
35659SOL    HW1 8874   2.758   7.534   8.783
35659SOL    HW2 8875   2.741   7.447   8.659
35660SOL     OW 8876   2.293   6.448   2.715
35660SOL    HW1 8877   2.345   6.523   2.687
35660SOL    HW2 8878   2.357   6.379   2.730
35661SOL     OW 8879   0.678  13.105   7.043
35661SOL    HW1 8880   0.630  13.151   7.111
35661SOL    HW2 8881   0.707  13.173   6.983
35662SOL     OW 8882   2.696   4.060   6.322
35662SOL    HW1 8883   2.604   4.053   6.347
35662SOL    HW2 8884   2.728   3.969   6.324
35663SOL     OW 8885   3.341   6.242   9.291
35663SOL    HW1 8886   3.289   6.231   9.371
35663SOL    HW2 8887   3.360   6.153   9.262
35664SOL     OW 8888   0.186   1.698   5.148
35664SOL    HW1 8889   0.130   1.631   5.187
35664SOL    HW2 8890   0.193   1.672   5.056
35665SOL     OW 8891  13.253   5.736   8.858
35665SOL    HW1 8892  13.282   5.816   8.902
35665SOL    HW2 8893  13.173   5.711   8.904
35666SOL     OW 8894   9.751  10.984  14.262
35666SOL    HW1 8895   9.708  11.058  14.219
35666SOL    HW2 8896   9.783  11.020  14.345
35667SOL     OW 8897   1.528   9.988   2.800
35667SOL    HW1 8898   1.580  10.057   2.760
35667SOL    HW2 8899   1.559   9.983   2.890
35668SOL     OW 8900  12.267  14.767   5.567
35668SOL    HW1 8901  12.321  14.707   5.618
35668SOL    HW2 8902  12.181  14.764   5.609
35669SOL     OW 8903   3.284   4.442   8.005
35669SOL    HW1 8904   3.250   4.425   8.093
35669SOL    HW2 8905   3.294   4.355   7.966
35670SOL     OW 8906   4.794   8.518  11.994
35670SOL    HW1 8907   4.816   8.500  12.085
35670SOL    HW2 8908   4.806   8.613  11.985
35671SOL     OW 8909   7.739   5.185  14.284
35671SOL    HW1 8910   7.763   5.277  14.291
35671SOL    HW2 8911   7.764   5.147  14.368
35672SOL     OW 8912  12.702   8.617  10.504
35672SOL    HW1 8913  12.646   8.674  10.451
35672SOL    HW2 8914  12.665   8.621  10.592
35673SOL     OW 8915   8.634   0.517   9.487
35673SOL    HW1 8916   8.644   0.610   9.466
35673SOL    HW2 8917   8.664   0.471   9.409
35674SOL     OW 8918   0.353  13.831   3.150
35674SOL    HW1 8919   0.326  13.742   3.173
35674SOL    HW2 8920   0.293  13.888   3.199
35675SOL     OW 8921   4.253  12.711   6.613
35675SOL    HW1 8922   4.284  12.763   6.539
35675SOL    HW2 8923   4.325  12.651   6.632
35676SOL     OW 8924   2.108   1.427   4.060
35676SOL    HW1 8925   2.121   1.455   4.151
35676SOL    HW2 8926   2.068   1.502   4.017
35677SOL     OW 8927   8.751   9.488  14.106
35677SOL    HW1 8928   8.772   9.549  14.176
35677SOL    HW2 8929   8.825   9.495  14.044
35678SOL     OW 8930  13.173   4.943   4.462
35678SOL    HW1 8931  13.252   4.889   4.460
35678SOL    HW2 8932  13.175   4.993   4.381
35679SOL     OW 8933  11.813   5.445   3.787
35679SOL    HW1 8934  11.736   5.411   3.742
35679SOL    HW2 8935  11.838   5.375   3.848
35680SOL     OW 8936   8.390  14.218   6.163
35680SOL    HW1 8937   8.457  14.149   6.169
35680SOL    HW2 8938   8.427  14.290   6.214
35681SOL     OW 8939   7.087  10.478  13.781
35681SOL    HW1 8940   7.110  10.523  13.700
35681SOL    HW2 8941   7.055  10.392  13.753
35682SOL     OW 8942   3.786   1.745   5.555
35682SOL    HW1 8943   3.717   1.780   5.499
35682SOL    HW2 8944   3.776   1.793   5.638
35683SOL     OW 8945  12.189  13.081   8.350
35683SOL    HW1 8946  12.211  13.000   8.304
35683SOL    HW2 8947  12.256  13.089   8.418
35684SOL     OW 8948   9.264  11.302   8.065
35684SOL    HW1 8949   9.210  11.266   7.995
35684SOL    HW2 8950   9.203  11.353   8.119
35685SOL     OW 8951  10.267  12.109   1.067
35685SOL    HW1 8952  10.267  12.052   1.143
35685SOL    HW2 8953  10.187  12.086   1.020
35686SOL     OW 8954   2.497   2.453   4.528
35686SOL    HW1 8955   2.558   2.443   4.601
35686SOL    HW2 8956   2.493   2.548   4.513
35687SOL     OW 8957  14.117   2.843  14.570
35687SOL    HW1 8958  14.112   2.871  14.661
35687SOL    HW2 8959  14.183   2.900  14.531
35688SOL     OW 8960   4.349  10.219  11.144
35688SOL    HW1 8961   4.364  10.239  11.237
35688SOL    HW2 8962   4.435  10.230  11.103
35689SOL     OW 8963   8.459  10.312  11.577
35689SOL    HW1 8964   8.417  10.321  11.663
35689SOL    HW2 8965   8.460  10.218  11.560
35690SOL     OW 8966   7.139   6.497   1.284
35690SOL    HW1 8967   7.223   6.461   1.312
35690SOL    HW2 8968   7.146   6.591   1.300
35691SOL     OW 8969   2.506   9.986  12.588
35691SOL    HW1 8970   2.486   9.894  12.603
35691SOL    HW2 8971   2.588   9.985  12.538
35692SOL     OW 8972  13.651   2.769   2.249
35692SOL    HW1 8973  13.710   2.708   2.294
35692SOL    HW2 8974  13.693   2.855   2.259
35693SOL     OW 8975   7.450   6.186  14.309
35693SOL    HW1 8976   7.423   6.170  14.399
35693SOL    HW2 8977   7.442   6.101  14.266
35694SOL     OW 8978  11.719   5.333   5.329
35694SOL    HW1 8979  11.676   5.417   5.338
35694SOL    HW2 8980  11.801   5.342   5.379
35695SOL     OW 8981   3.792  11.829  14.773
35695SOL    HW1 8982   3.876  11.805  14.734
35695SOL    HW2 8983   3.755  11.746  14.802
35696SOL     OW 8984   5.142   2.737  11.584
35696SOL    HW1 8985   5.216   2.688  11.619
35696SOL    HW2 8986   5.088   2.757  11.660
35697SOL     OW 8987   9.286  10.198   9.697
35697SOL    HW1 8988   9.309  10.166   9.610
35697SOL    HW2 8989   9.199  10.162   9.713
35698SOL     OW 8990  10.331   8.186   0.738
35698SOL    HW1 8991  10.392   8.256   0.763
35698SOL    HW2 8992  10.267   8.229   0.681
35699SOL     OW 8993   7.234   4.940  11.155
35699SOL    HW1 8994   7.195   4.985  11.230
35699SOL    HW2 8995   7.255   4.852  11.188
35700SOL     OW 8996   9.620  14.352   7.447
35700SOL    HW1 8997   9.575  14.378   7.367
35700SOL    HW2 8998   9.557  14.298   7.494
35701SOL     OW 8999   9.679  14.606   2.059
35701SOL    HW1 9000   9.696  14.655   1.978
35701SOL    HW2 9001   9.626  14.666   2.112
35702SOL     OW 9002   6.973  11.710  10.619
35702SOL    HW1 9003   6.977  11.767  10.542
35702SOL    HW2 9004   7.057  11.666  10.622
35703SOL     OW 9005  10.753   4.462  14.409
35703SOL    HW1 9006  10.782   4.534  14.353
35703SOL    HW2 9007  10.830   4.406  14.418
35704SOL     OW 9008  12.658   6.520  11.204
35704SOL    HW1 9009  12.687   6.569  11.280
35704SOL    HW2 9010  12.641   6.588  11.137
35705SOL     OW 9011   2.489   0.564  12.935
35705SOL    HW1 9012   2.538   0.489  12.901
35705SOL    HW2 9013   2.549   0.607  12.995
35706SOL     OW 9014   0.108   0.633  14.223
35706SOL    HW1 9015   0.133   0.691  14.152
35706SOL    HW2 9016   0.019   0.604  14.201
35707SOL     OW 9017   5.413   1.095   1.795
35707SOL    HW1 9018   5.500   1.070   1.824
35707SOL    HW2 9019   5.428   1.163   1.729
35708SOL     OW 9020  12.919   8.512   3.344
35708SOL    HW1 9021  12.990   8.455   3.314
35708SOL    HW2 9022  12.961   8.569   3.409
35709SOL     OW 9023   1.224   5.987  11.544
35709SOL    HW1 9024   1.308   5.955  11.577
35709SOL    HW2 9025   1.204   6.063  11.600
35710SOL     OW 9026   7.301  14.711   1.463
35710SOL    HW1 9027   7.305  14.705   1.368
35710SOL    HW2 9028   7.374  14.658   1.494
35711SOL     OW 9029   3.880   0.227   5.360
35711SOL    HW1 9030   3.914   0.309   5.396
35711SOL    HW2 9031   3.913   0.224   5.270
35712SOL     OW 9032  10.321   0.980   7.436
35712SOL    HW1 9033  10.398   1.005   7.486
35712SOL    HW2 9034  10.260   0.945   7.501
35713SOL     OW 9035  11.967  10.629   2.096
35713SOL    HW1 9036  12.062  10.643   2.101
35713SOL    HW2 9037  11.934  10.706   2.049
35714SOL     OW 9038  12.755   7.970  13.150
35714SOL    HW1 9039  12.714   7.883  13.157
35714SOL    HW2 9040  12.830   7.956  13.093
35715SOL     OW 9041   4.609   0.589   5.047
35715SOL    HW1 9042   4.537   0.570   4.987
35715SOL    HW2 9043   4.636   0.678   5.025
35716SOL     OW 9044   3.544  13.142  11.171
35716SOL    HW1 9045   3.555  13.224  11.220
35716SOL    HW2 9046   3.458  13.110  11.198
35717SOL     OW 9047  12.871   2.413  10.229
35717SOL    HW1 9048  12.862   2.382  10.138
35717SOL    HW2 9049  12.961   2.447  10.233
35718SOL     OW 9050   3.231  14.425   0.127
35718SOL    HW1 9051   3.238  14.513   0.162
35718SOL    HW2 9052   3.243  14.435   0.032
35719SOL     OW 9053  10.115   8.791   3.350
35719SOL    HW1 9054  10.180   8.860   3.342
35719SOL    HW2 9055  10.147   8.721   3.293
35720SOL     OW 9056  10.779  11.485   1.745
35720SOL    HW1 9057  10.846  11.528   1.692
35720SOL    HW2 9058  10.800  11.510   1.835
35721SOL     OW 9059   4.362  10.449   1.126
35721SOL    HW1 9060   4.369  10.400   1.044
35721SOL    HW2 9061   4.426  10.520   1.118
35722SOL     OW 9062  13.637   3.024   8.942
35722SOL    HW1 9063  13.613   3.053   9.030
35722SOL    HW2 9064  13.686   2.943   8.957
35723SOL     OW 9065  10.771   5.538  12.522
35723SOL    HW1 9066  10.694   5.538  12.579
35723SOL    HW2 9067  10.768   5.453  12.478
35724SOL     OW 9068   3.919   2.938   7.365
35724SOL    HW1 9069   3.967   2.877   7.308
35724SOL    HW2 9070   3.868   2.992   7.304
35725SOL     OW 9071   9.732   1.951   6.175
35725SOL    HW1 9072   9.682   1.884   6.222
35725SOL    HW2 9073   9.670   2.021   6.160
35726SOL     OW 9074  11.518  14.298   3.552
35726SOL    HW1 9075  11.521  14.278   3.646
35726SOL    HW2 9076  11.461  14.374   3.545
35727SOL     OW 9077  10.888   1.123   9.452
35727SOL    HW1 9078  10.839   1.041   9.448
35727SOL    HW2 9079  10.825   1.190   9.422
35728SOL     OW 9080   6.199   8.134   2.010
35728SOL    HW1 9081   6.206   8.229   2.018
35728SOL    HW2 9082   6.110   8.119   1.978
35729SOL     OW 9083   9.491   8.037   8.621
35729SOL    HW1 9084   9.449   8.101   8.563
35729SOL    HW2 9085   9.585   8.047   8.603
35730SOL     OW 9086   1.768  13.180   5.554
35730SOL    HW1 9087   1.699  13.122   5.522
35730SOL    HW2 9088   1.732  13.268   5.544
35731SOL     OW 9089  10.543   8.908   2.207
35731SOL    HW1 9090  10.464   8.862   2.236
35731SOL    HW2 9091  10.591   8.843   2.155
35732SOL     OW 9092   4.573   2.914   6.208
35732SOL    HW1 9093   4.612   2.831   6.181
35732SOL    HW2 9094   4.534   2.895   6.293
35733SOL     OW 9095   8.891  10.774  13.306
35733SOL    HW1 9096   8.875  10.761  13.213
35733SOL    HW2 9097   8.824  10.721  13.350
35734SOL     OW 9098   9.641   6.275   7.085
35734SOL    HW1 9099   9.547   6.280   7.098
35734SOL    HW2 9100   9.665   6.187   7.116
35735SOL     OW 9101  11.062   8.996  11.622
35735SOL    HW1 9102  11.026   8.940  11.554
35735SOL    HW2 9103  10.985   9.032  11.666
35736SOL     OW 9104  10.949  10.078  13.475
35736SOL    HW1 9105  10.941  10.029  13.557
35736SOL    HW2 9106  11.034  10.051  13.440
35737SOL     OW 9107  14.673  13.345   7.559
35737SOL    HW1 9108  14.744  13.404   7.531
35737SOL    HW2 9109  14.606  13.403   7.595
35738SOL     OW 9110  10.628   6.324  13.509
35738SOL    HW1 9111  10.581   6.394  13.555
35738SOL    HW2 9112  10.562   6.256  13.496
35739SOL     OW 9113   5.089   0.126   7.294
35739SOL    HW1 9114   5.049   0.149   7.210
35739SOL    HW2 9115   5.097   0.210   7.339
35740SOL     OW 9116  10.321  11.401  13.877
35740SOL    HW1 9117  10.343  11.359  13.793
35740SOL    HW2 9118  10.367  11.485  13.874
35741SOL     OW 9119  14.062  11.840   1.151
35741SOL    HW1 9120  14.146  11.804   1.178
35741SOL    HW2 9121  14.077  11.871   1.062
35742SOL     OW 9122  13.108  13.684   8.160
35742SOL    HW1 9123  13.122  13.767   8.114
35742SOL    HW2 9124  13.192  13.639   8.154
35743SOL     OW 9125   6.838  12.823   5.739
35743SOL    HW1 9126   6.921  12.780   5.719
35743SOL    HW2 9127   6.779  12.752   5.764
35744SOL     OW 9128  11.150  12.797   2.907
35744SOL    HW1 9129  11.228  12.851   2.922
35744SOL    HW2 9130  11.139  12.797   2.812
35745SOL     OW 9131  13.389  13.768   4.777
35745SOL    HW1 9132  13.418  13.735   4.862
35745SOL    HW2 9133  13.329  13.839   4.798
35746SOL     OW 9134  14.772  11.215  14.500
35746SOL    HW1 9135  14.759  11.205  14.595
35746SOL    HW2 9136  14.775  11.125  14.467
35747SOL     OW 9137   3.252   6.233   3.313
35747SOL    HW1 9138   3.171   6.268   3.349
35747SOL    HW2 9139   3.247   6.252   3.219
35748SOL     OW 9140   4.953  12.383   8.906
35748SOL    HW1 9141   4.866  12.345   8.920
35748SOL    HW2 9142   5.001  12.360   8.985
35749SOL     OW 9143  14.107  10.175   7.482
35749SOL    HW1 9144  14.050  10.252   7.486
35749SOL    HW2 9145  14.091  10.138   7.395
35750SOL     OW 9146   2.131  13.746   8.028
35750SOL    HW1 9147   2.179  13.789   8.099
35750SOL    HW2 9148   2.190  13.679   7.996
35751SOL     OW 9149  14.671  12.204   4.003
35751SOL    HW1 9150  14.633  12.133   3.950
35751SOL    HW2 9151  14.759  12.174   4.024
35752SOL     OW 9152  13.474   0.217   5.937
35752SOL    HW1 9153  13.561   0.246   5.967
35752SOL    HW2 9154  13.439   0.292   5.889
35753SOL     OW 9155   7.315  10.640   1.316
35753SOL    HW1 9156   7.334  10.733   1.325
35753SOL    HW2 9157   7.347  10.601   1.398
35754SOL     OW 9158   5.893   8.893  10.692
35754SOL    HW1 9159   5.873   8.942  10.613
35754SOL    HW2 9160   5.893   8.959  10.762
35755SOL     OW 9161  14.758   0.197   9.685
35755SOL    HW1 9162  14.843   0.202   9.642
35755SOL    HW2 9163  14.720   0.284   9.673
35756SOL     OW 9164   6.536   1.064   5.591
35756SOL    HW1 9165   6.577   0.986   5.628
35756SOL    HW2 9166   6.512   1.117   5.667
35757SOL     OW 9167   0.996  14.106  13.737
35757SOL    HW1 9168   0.906  14.131  13.754
35757SOL    HW2 9169   1.048  14.172  13.782
35758SOL     OW 9170  14.294   4.712   7.591
35758SOL    HW1 9171  14.325   4.766   7.518
35758SOL    HW2 9172  14.353   4.734   7.663
35759SOL     OW 9173   0.568  14.185   3.830
35759SOL    HW1 9174   0.614  14.108   3.864
35759SOL    HW2 9175   0.483  14.182   3.873
35760SOL     OW 9176   9.533   6.257   3.551
35760SOL    HW1 9177   9.482   6.328   3.512
35760SOL    HW2 9178   9.468   6.202   3.594
35761SOL     OW 9179  10.596   7.553  11.811
35761SOL    HW1 9180  10.565   7.600  11.733
35761SOL    HW2 9181  10.649   7.616  11.859
35762SOL     OW 9182   7.654   4.210   1.706
35762SOL    HW1 9183   7.705   4.191   1.627
35762SOL    HW2 9184   7.702   4.168   1.777
35763SOL     OW 9185   4.353   7.920   6.386
35763SOL    HW1 9186   4.342   7.862   6.461
35763SOL    HW2 9187   4.290   7.991   6.400
35764SOL     OW 9188  12.136  10.131  12.338
35764SOL    HW1 9189  12.196  10.179  12.394
35764SOL    HW2 9190  12.110  10.193  12.270
35765SOL     OW 9191   5.620   8.350   6.228
35765SOL    HW1 9192   5.603   8.285   6.297
35765SOL    HW2 9193   5.653   8.299   6.154
35766SOL     OW 9194  11.649   5.134  11.816
35766SOL    HW1 9195  11.676   5.197  11.883
35766SOL    HW2 9196  11.656   5.183  11.734
35767SOL     OW 9197   0.947   0.255   5.327
35767SOL    HW1 9198   1.043   0.258   5.323
35767SOL    HW2 9199   0.928   0.258   5.421
35768SOL     OW 9200   5.551   2.851   0.987
35768SOL    HW1 9201   5.529   2.879   1.076
35768SOL    HW2 9202   5.466   2.840   0.944
35769SOL     OW 9203   1.552  14.789  13.370
35769SOL    HW1 9204   1.613  14.853  13.409
35769SOL    HW2 9205   1.609  14.717  13.341
35770SOL     OW 9206  14.619  10.885  12.308
35770SOL    HW1 9207  14.607  10.921  12.221
35770SOL    HW2 9208  14.563  10.939  12.364
35771SOL     OW 9209   3.870  10.232   4.167
35771SOL    HW1 9210   3.778  10.219   4.190
35771SOL    HW2 9211   3.918  10.167   4.218
35772SOL     OW 9212   5.855   1.969   0.717
35772SOL    HW1 9213   5.822   1.901   0.659
35772SOL    HW2 9214   5.874   2.043   0.659
35773SOL     OW 9215   4.013  12.936   9.871
35773SOL    HW1 9216   4.029  12.856   9.821
35773SOL    HW2 9217   4.095  12.951   9.918
35774SOL     OW 9218   2.099  12.203   7.404
35774SOL    HW1 9219   2.154  12.171   7.475
35774SOL    HW2 9220   2.060  12.284   7.438
35775SOL     OW 9221   3.719   3.831  12.838
35775SOL    HW1 9222   3.729   3.832  12.743
35775SOL    HW2 9223   3.639   3.780  12.853
35776SOL     OW 9224   0.629  13.077   3.515
35776SOL    HW1 9225   0.659  13.135   3.445
35776SOL    HW2 9226   0.675  13.107   3.593
35777SOL     OW 9227  10.908   3.797  10.048
35777SOL    HW1 9228  10.906   3.701  10.054
35777SOL    HW2 9229  10.950   3.815   9.964
35778SOL     OW 9230   5.163  10.306   7.095
35778SOL    HW1 9231   5.209  10.243   7.039
35778SOL    HW2 9232   5.220  10.315   7.172
35779SOL     OW 9233   4.470   7.142  11.848
35779SOL    HW1 9234   4.496   7.119  11.759
35779SOL    HW2 9235   4.400   7.205  11.836
35780SOL     OW 9236   6.328   8.736  10.522
35780SOL    HW1 9237   6.334   8.827  10.549
35780SOL    HW2 9238   6.400   8.724  10.460
35781SOL     OW 9239   6.302  11.047  13.951
35781SOL    HW1 9240   6.349  11.005  14.023
35781SOL    HW2 9241   6.219  11.075  13.990
35782SOL     OW 9242   5.958   6.436  13.564
35782SOL    HW1 9243   6.054   6.440  13.573
35782SOL    HW2 9244   5.931   6.367  13.624
35783SOL     OW 9245   3.059  11.016   2.314
35783SOL    HW1 9246   3.044  11.106   2.343
35783SOL    HW2 9247   2.972  10.975   2.319
35784SOL     OW 9248  11.183   1.126   9.747
35784SOL    HW1 9249  11.095   1.157   9.724
35784SOL    HW2 9250  11.174   1.031   9.755
35785SOL     OW 9251   4.193   0.238  13.975
35785SOL    HW1 9252   4.277   0.258  14.017
35785SOL    HW2 9253   4.128   0.287  14.026
35786SOL     OW 9254  11.272  10.045   2.698
35786SOL    HW1 9255  11.276  10.069   2.605
35786SOL    HW2 9256  11.360  10.064   2.731
35787SOL     OW 9257   9.236  10.871   7.758
35787SOL    HW1 9258   9.145  10.891   7.779
35787SOL    HW2 9259   9.248  10.780   7.784
35788SOL     OW 9260   0.136   5.723  14.160
35788SOL    HW1 9261   0.182   5.708  14.077
35788SOL    HW2 9262   0.085   5.802  14.145
35789SOL     OW 9263  10.656   0.610   7.755
35789SOL    HW1 9264  10.729   0.605   7.817
35789SOL    HW2 9265  10.697   0.608   7.669
35790SOL     OW 9266   2.226  12.009  12.618
35790SOL    HW1 9267   2.187  12.095  12.600
35790SOL    HW2 9268   2.216  11.960  12.537
35791SOL     OW 9269   7.636   8.844   2.621
35791SOL    HW1 9270   7.678   8.867   2.704
35791SOL    HW2 9271   7.708   8.836   2.558
35792SOL     OW 9272   2.342   0.117   0.012
35792SOL    HW1 9273   2.289   0.039   0.023
35792SOL    HW2 9274   2.428   0.084  14.856
35793SOL     OW 9275   0.215   1.297  13.644
35793SOL    HW1 9276   0.287   1.306  13.707
35793SOL    HW2 9277   0.196   1.387  13.616
35794SOL     OW 9278  14.449   0.477   8.598
35794SOL    HW1 9279  14.407   0.403   8.554
35794SOL    HW2 9280  14.536   0.444   8.621
35795SOL     OW 9281  11.331   8.954  12.380
35795SOL    HW1 9282  11.269   9.011  12.425
35795SOL    HW2 9283  11.370   8.902  12.450
35796SOL     OW 9284   8.177   5.964   1.507
35796SOL    HW1 9285   8.086   5.950   1.535
35796SOL    HW2 9286   8.197   6.053   1.534
35797SOL     OW 9287  14.254   5.633   8.005
35797SOL    HW1 9288  14.220   5.574   7.938
35797SOL    HW2 9289  14.220   5.719   7.980
35798SOL     OW 9290   8.716   4.012   0.112
35798SOL    HW1 9291   8.790   3.964   0.146
35798SOL    HW2 9292   8.750   4.100   0.094
35799SOL     OW 9293   4.881   4.784   9.843
35799SOL    HW1 9294   4.974   4.779   9.820
35799SOL    HW2 9295   4.877   4.846   9.916
35800SOL     OW 9296   3.614  13.201   7.674
35800SOL    HW1 9297   3.667  13.239   7.744
35800SOL    HW2 9298   3.673  13.140   7.630
35801SOL     OW 9299  13.463  13.718   1.643
35801SOL    HW1 9300  13.532  13.681   1.589
35801SOL    HW2 9301  13.401  13.757   1.581
35802SOL     OW 9302  10.082   3.957   2.549
35802SOL    HW1 9303  10.017   3.949   2.480
35802SOL    HW2 9304  10.161   3.914   2.514
35803SOL     OW 9305   2.421  14.619  14.707
35803SOL    HW1 9306   2.326  14.615  14.701
35803SOL    HW2 9307   2.441  14.596  14.798
35804SOL     OW 9308  10.516  14.472   1.449
35804SOL    HW1 9309  10.445  14.412   1.473
35804SOL    HW2 9310  10.503  14.548   1.505
35805SOL     OW 9311  13.756  10.103   0.923
35805SOL    HW1 9312  13.757  10.178   0.864
35805SOL    HW2 9313  13.664  10.094   0.948
35806SOL     OW 9314   9.548   9.683  12.723
35806SOL    HW1 9315   9.514   9.726  12.802
35806SOL    HW2 9316   9.550   9.590  12.746
35807SOL     OW 9317  14.357   9.174   1.019
35807SOL    HW1 9318  14.328   9.200   0.931
35807SOL    HW2 9319  14.281   9.187   1.075
35808SOL     OW 9320   7.577   0.789  12.506
35808SOL    HW1 9321   7.494   0.775  12.459
35808SOL    HW2 9322   7.632   0.836  12.444
35809SOL     OW 9323   3.101   2.961  14.295
35809SOL    HW1 9324   3.084   2.923  14.209
35809SOL    HW2 9325   3.073   2.893  14.357
35810SOL     OW 9326   7.317   6.917   8.779
35810SOL    HW1 9327   7.259   6.990   8.757
35810SOL    HW2 9328   7.290   6.846   8.721
35811SOL     OW 9329   4.941   0.466   6.889
35811SOL    HW1 9330   5.008   0.489   6.953
35811SOL    HW2 9331   4.967   0.513   6.810
35812SOL     OW 9332   1.263   9.520   6.864
35812SOL    HW1 9333   1.334   9.579   6.890
35812SOL    HW2 9334   1.189   9.547   6.918
35813SOL     OW 9335  11.351  13.391   8.303
35813SOL    HW1 9336  11.430  13.343   8.329
35813SOL    HW2 9337  11.384  13.475   8.269
35814SOL     OW 9338  12.591   0.881   5.144
35814SOL    HW1 9339  12.560   0.954   5.196
35814SOL    HW2 9340  12.640   0.826   5.206
35815SOL     OW 9341   8.198   3.769   8.310
35815SOL    HW1 9342   8.134   3.700   8.326
35815SOL    HW2 9343   8.159   3.847   8.349
35816SOL     OW 9344  10.525   0.729  13.582
35816SOL    HW1 9345  10.555   0.820  13.576
35816SOL    HW2 9346  10.546   0.691  13.497
35817SOL     OW 9347   6.870  11.839   3.230
35817SOL    HW1 9348   6.869  11.785   3.309
35817SOL    HW2 9349   6.810  11.795   3.170
35818SOL     OW 9350   3.795   0.239   8.125
35818SOL    HW1 9351   3.860   0.200   8.066
35818SOL    HW2 9352   3.838   0.239   8.211
35819SOL     OW 9353  12.497   9.627  11.985
35819SOL    HW1 9354  12.483   9.575  11.906
35819SOL    HW2 9355  12.592   9.635  11.993
35820SOL     OW 9356   9.527   7.885   6.319
35820SOL    HW1 9357   9.582   7.955   6.284
35820SOL    HW2 9358   9.472   7.928   6.384
35821SOL     OW 9359  12.496   8.489   6.480
35821SOL    HW1 9360  12.486   8.508   6.573
35821SOL    HW2 9361  12.468   8.569   6.435
35822SOL     OW 9362   8.032   7.609   9.178
35822SOL    HW1 9363   8.040   7.534   9.237
35822SOL    HW2 9364   7.978   7.576   9.106
35823SOL     OW 9365  13.038   8.358  10.810
35823SOL    HW1 9366  13.125   8.351  10.849
35823SOL    HW2 9367  13.004   8.269  10.811
35824SOL     OW 9368   9.654   5.178   9.601
35824SOL    HW1 9369   9.634   5.162   9.694
35824SOL    HW2 9370   9.717   5.110   9.578
35825SOL     OW 9371   5.601   9.139  10.536
35825SOL    HW1 9372   5.696   9.137  10.532
35825SOL    HW2 9373   5.578   9.232  10.537
35826SOL     OW 9374   9.730   1.780   1.966
35826SOL    HW1 9375   9.748   1.733   1.885
35826SOL    HW2 9376   9.671   1.723   2.015
35827SOL     OW 9377  12.690   5.675  13.020
35827SOL    HW1 9378  12.727   5.619  13.088
35827SOL    HW2 9379  12.756   5.678  12.952
35828SOL     OW 9380  12.933   5.602   3.699
35828SOL    HW1 9381  12.860   5.541   3.687
35828SOL    HW2 9382  12.922   5.635   3.788
35829SOL     OW 9383   1.890   4.234   4.508
35829SOL    HW1 9384   1.829   4.303   4.483
35829SOL    HW2 9385   1.949   4.275   4.571
35830SOL     OW 9386   5.352  14.731   8.905
35830SOL    HW1 9387   5.400  14.737   8.823
35830SOL    HW2 9388   5.279  14.673   8.886
35831SOL     OW 9389   8.127   0.250  10.648
35831SOL    HW1 9390   8.194   0.192  10.610
35831SOL    HW2 9391   8.169   0.336  10.652
35832SOL     OW 9392  14.202   9.228   0.799
35832SOL    HW1 9393  14.150   9.258   0.874
35832SOL    HW2 9394  14.166   9.274   0.724
35833SOL     OW 9395   7.816   6.236   7.040
35833SOL    HW1 9396   7.732   6.227   6.994
35833SOL    HW2 9397   7.874   6.277   6.976
35834SOL     OW 9398   6.251   7.292  13.503
35834SOL    HW1 9399   6.251   7.211  13.452
35834SOL    HW2 9400   6.227   7.264  13.591
35835SOL     OW 9401   5.009   5.087  14.490
35835SOL    HW1 9402   5.077   5.059  14.552
35835SOL    HW2 9403   5.056   5.103  14.409
35836SOL     OW 9404  10.058   9.710   3.961
35836SOL    HW1 9405  10.123   9.765   4.004
35836SOL    HW2 9406  10.102   9.676   3.883
35837SOL     OW 9407   5.826   3.393   3.236
35837SOL    HW1 9408   5.815   3.434   3.150
35837SOL    HW2 9409   5.910   3.348   3.231
35838SOL     OW 9410  13.396   4.680   1.445
35838SOL    HW1 9411  13.322   4.621   1.431
35838SOL    HW2 9412  13.413   4.675   1.539
35839SOL     OW 9413   4.910  11.709   8.842
35839SOL    HW1 9414   4.898  11.623   8.882
35839SOL    HW2 9415   5.005  11.719   8.835
35840SOL     OW 9416   7.361  11.240   4.236
35840SOL    HW1 9417   7.303  11.313   4.255
35840SOL    HW2 9418   7.449  11.279   4.236
35841SOL     OW 9419   1.110   2.839  13.281
35841SOL    HW1 9420   1.114   2.743  13.275
35841SOL    HW2 9421   1.199   2.867  13.259
35842SOL     OW 9422   2.503   6.875   3.246
35842SOL    HW1 9423   2.460   6.938   3.303
35842SOL    HW2 9424   2.433   6.842   3.189
35843SOL     OW 9425  10.429   8.514  12.694
35843SOL    HW1 9426  10.394   8.479  12.612
35843SOL    HW2 9427  10.523   8.500  12.688
35844SOL     OW 9428  12.382   0.584  11.334
35844SOL    HW1 9429  12.332   0.503  11.323
35844SOL    HW2 9430  12.389   0.620  11.245
35845SOL     OW 9431   7.173  11.436  13.334
35845SOL    HW1 9432   7.177  11.456  13.240
35845SOL    HW2 9433   7.171  11.522  13.376
35846SOL     OW 9434   2.789   7.871   4.715
35846SOL    HW1 9435   2.852   7.927   4.669
35846SOL    HW2 9436   2.835   7.846   4.795
35847SOL     OW 9437  14.102   7.127  12.762
35847SOL    HW1 9438  14.087   7.130  12.668
35847SOL    HW2 9439  14.044   7.058  12.794
35848SOL     OW 9440   9.960  10.145   7.546
35848SOL    HW1 9441   9.912  10.222   7.576
35848SOL    HW2 9442   9.902  10.104   7.482
35849SOL     OW 9443  14.729   4.839   4.323
35849SOL    HW1 9444  14.733   4.744   4.311
35849SOL    HW2 9445  14.819   4.869   4.314
35850SOL     OW 9446   0.107   2.296   1.498
35850SOL    HW1 9447   0.088   2.374   1.445
35850SOL    HW2 9448   0.179   2.253   1.452
35851SOL     OW 9449   3.311   5.719  11.288
35851SOL    HW1 9450   3.395   5.675  11.275
35851SOL    HW2 9451   3.334   5.808  11.314
35852SOL     OW 9452  11.434   9.702   3.636
35852SOL    HW1 9453  11.449   9.797   3.630
35852SOL    HW2 9454  11.352   9.688   3.589
35853SOL     OW 9455  14.649   5.716  14.528
35853SOL    HW1 9456  14.593   5.786  14.494
35853SOL    HW2 9457  14.589   5.657  14.574
35854SOL     OW 9458  12.279  11.757  10.259
35854SOL    HW1 9459  12.200  11.806  10.235
35854SOL    HW2 9460  12.351  11.813  10.229
35855SOL     OW 9461  11.460   4.753   1.654
35855SOL    HW1 9462  11.394   4.800   1.705
35855SOL    HW2 9463  11.525   4.726   1.719
35856SOL     OW 9464   3.739   5.832   7.296
35856SOL    HW1 9465   3.801   5.844   7.367
35856SOL    HW2 9466   3.794   5.818   7.218
35857SOL     OW 9467  12.340   3.736   6.401
35857SOL    HW1 9468  12.415   3.693   6.441
35857SOL    HW2 9469  12.302   3.788   6.471
35858SOL     OW 9470   9.101   6.189  11.973
35858SOL    HW1 9471   9.045   6.238  11.912
35858SOL    HW2 9472   9.050   6.185  12.054
35859SOL     OW 9473   4.064   1.815   9.602
35859SOL    HW1 9474   3.976   1.833   9.568
35859SOL    HW2 9475   4.104   1.757   9.537
35860SOL     OW 9476   7.053   0.172   9.136
35860SOL    HW1 9477   7.057   0.103   9.202
35860SOL    HW2 9478   6.991   0.236   9.171
35861SOL     OW 9479   7.517   8.426   3.441
35861SOL    HW1 9480   7.593   8.368   3.444
35861SOL    HW2 9481   7.452   8.378   3.390
35862SOL     OW 9482  12.388   6.833   7.237
35862SOL    HW1 9483  12.303   6.871   7.213
35862SOL    HW2 9484  12.365   6.748   7.276
35863SOL     OW 9485   9.666   7.071   4.684
35863SOL    HW1 9486   9.674   7.078   4.779
35863SOL    HW2 9487   9.737   7.012   4.658
35864SOL     OW 9488   3.646   8.051   9.298
35864SOL    HW1 9489   3.608   8.137   9.283
35864SOL    HW2 9490   3.684   8.027   9.213
35865SOL     OW 9491   3.632   3.065   8.176
35865SOL    HW1 9492   3.706   3.009   8.152
35865SOL    HW2 9493   3.664   3.115   8.251
35866SOL     OW 9494  14.728   6.429   2.695
35866SOL    HW1 9495  14.659   6.364   2.679
35866SOL    HW2 9496  14.763   6.449   2.609
35867SOL     OW 9497  10.887   8.135   3.858
35867SOL    HW1 9498  10.804   8.092   3.834
35867SOL    HW2 9499  10.889   8.131   3.953
35868SOL     OW 9500   5.617   0.313   0.308
35868SOL    HW1 9501   5.674   0.300   0.383
35868SOL    HW2 9502   5.563   0.235   0.305
35869SOL     OW 9503   9.107  12.355  11.606
35869SOL    HW1 9504   9.183  12.354  11.548
35869SOL    HW2 9505   9.078  12.446  11.606
35870SOL     OW 9506   9.493  14.671   1.370
35870SOL    HW1 9507   9.459  14.608   1.308
35870SOL    HW2 9508   9.499  14.624   1.453
35871SOL     OW 9509   6.806   2.594   6.754
35871SOL    HW1 9510   6.785   2.556   6.838
35871SOL    HW2 9511   6.895   2.628   6.764
35872SOL     OW 9512   2.173   8.500   0.613
35872SOL    HW1 9513   2.162   8.507   0.708
35872SOL    HW2 9514   2.181   8.590   0.583
35873SOL     OW 9515  11.197   4.174   0.177
35873SOL    HW1 9516  11.202   4.242   0.110
35873SOL    HW2 9517  11.154   4.101   0.133
35874SOL     OW 9518   2.655  13.522   0.784
35874SOL    HW1 9519   2.623  13.438   0.817
35874SOL    HW2 9520   2.729  13.500   0.728
35875SOL     OW 9521   5.947   2.741  11.991
35875SOL    HW1 9522   5.990   2.802  11.930
35875SOL    HW2 9523   5.869   2.787  12.021
35876SOL     OW 9524  12.929   4.335   9.681
35876SOL    HW1 9525  12.968   4.253   9.710
35876SOL    HW2 9526  12.836   4.325   9.699
35877SOL     OW 9527   6.491   3.680   7.466
35877SOL    HW1 9528   6.569   3.636   7.433
35877SOL    HW2 9529   6.457   3.621   7.533
35878SOL     OW 9530   0.111  11.767   5.113
35878SOL    HW1 9531   0.163  11.840   5.078
35878SOL    HW2 9532   0.087  11.715   5.036
35879SOL     OW 9533   8.813  11.192   6.638
35879SOL    HW1 9534   8.760  11.255   6.686
35879SOL    HW2 9535   8.872  11.155   6.704
35880SOL     OW 9536  13.450   2.241  13.405
35880SOL    HW1 9537  13.476   2.152  13.378
35880SOL    HW2 9538  13.532   2.290  13.407
35881SOL     OW 9539   0.992  12.772  12.183
35881SOL    HW1 9540   0.963  12.863  12.190
35881SOL    HW2 9541   1.063  12.773  12.119
35882SOL     OW 9542   1.544   3.498   3.939
35882SOL    HW1 9543   1.548   3.405   3.961
35882SOL    HW2 9544   1.462   3.507   3.891
35883SOL     OW 9545  10.589  14.585   6.081
35883SOL    HW1 9546  10.572  14.622   6.168
35883SOL    HW2 9547  10.579  14.490   6.093
35884SOL     OW 9548   1.014  12.643   6.208
35884SOL    HW1 9549   0.983  12.731   6.228
35884SOL    HW2 9550   1.035  12.605   6.293
35885SOL     OW 9551  10.643   7.065  12.336
35885SOL    HW1 9552  10.608   7.115  12.262
35885SOL    HW2 9553  10.689   7.130  12.389
35886SOL     OW 9554  10.703  13.274  10.047
35886SOL    HW1 9555  10.641  13.313   9.985
35886SOL    HW2 9556  10.647  13.240  10.117
35887SOL     OW 9557   2.903   4.412   1.842
35887SOL    HW1 9558   2.984   4.460   1.861
35887SOL    HW2 9559   2.888   4.360   1.921
35888SOL     OW 9560  13.550   0.039   1.343
35888SOL    HW1 9561  13.588  14.824   1.328
35888SOL    HW2 9562  13.625   0.098   1.351
35889SOL     OW 9563  11.471   6.651   7.511
35889SOL    HW1 9564  11.529   6.699   7.570
35889SOL    HW2 9565  11.529   6.622   7.440
35890SOL     OW 9566  14.300   4.875   2.857
35890SOL    HW1 9567  14.341   4.945   2.808
35890SOL    HW2 9568  14.318   4.895   2.949
35891SOL     OW 9569  12.366   0.169   8.624
35891SOL    HW1 9570  12.457   0.194   8.613
35891SOL    HW2 9571  12.360   0.082   8.584
35892SOL     OW 9572  11.957   1.506   5.486
35892SOL    HW1 9573  11.939   1.455   5.407
35892SOL    HW2 9574  11.954   1.443   5.557
35893SOL     OW 9575   2.985   2.613   3.895
35893SOL    HW1 9576   3.047   2.680   3.865
35893SOL    HW2 9577   2.987   2.546   3.827
35894SOL     OW 9578   8.708  11.961   1.493
35894SOL    HW1 9579   8.625  11.981   1.450
35894SOL    HW2 9580   8.738  11.880   1.452
35895SOL     OW 9581   1.849   8.182  12.308
35895SOL    HW1 9582   1.836   8.088  12.298
35895SOL    HW2 9583   1.868   8.214  12.220
35896SOL     OW 9584   4.684  14.869   1.435
35896SOL    HW1 9585   4.631   0.017   1.357
35896SOL    HW2 9586   4.643   0.048   1.505
35897SOL     OW 9587   5.077   1.809  13.332
35897SOL    HW1 9588   5.050   1.856  13.253
35897SOL    HW2 9589   5.006   1.747  13.349
35898SOL     OW 9590  13.922   2.119   1.515
35898SOL    HW1 9591  13.956   2.173   1.586
35898SOL    HW2 9592  13.999   2.096   1.463
35899SOL     OW 9593   2.467  13.708   1.089
35899SOL    HW1 9594   2.542  13.703   1.030
35899SOL    HW2 9595   2.502  13.683   1.175
35900SOL     OW 9596   8.947  14.306   0.558
35900SOL    HW1 9597   8.901  14.232   0.519
35900SOL    HW2 9598   8.949  14.287   0.652
35901SOL     OW 9599   2.492   5.220   3.375
35901SOL    HW1 9600   2.498   5.154   3.444
35901SOL    HW2 9601   2.580   5.226   3.339
35902SOL     OW 9602  14.562   6.574   3.267
35902SOL    HW1 9603  14.590   6.658   3.304
35902SOL    HW2 9604  14.566   6.512   3.340
35903SOL     OW 9605   1.991   1.242  13.009
35903SOL    HW1 9606   2.029   1.206  13.089
35903SOL    HW2 9607   2.053   1.219  12.940
35904SOL     OW 9608   4.075   6.639   4.876
35904SOL    HW1 9609   4.082   6.733   4.891
35904SOL    HW2 9610   4.164   6.610   4.856
35905SOL     OW 9611  14.365  13.731   7.866
35905SOL    HW1 9612  14.441  13.788   7.873
35905SOL    HW2 9613  14.399  13.643   7.878
35906SOL     OW 9614   6.031   0.542  11.806
35906SOL    HW1 9615   5.993   0.621  11.846
35906SOL    HW2 9616   6.046   0.568  11.715
35907SOL     OW 9617   3.259   5.611   6.291
35907SOL    HW1 9618   3.309   5.635   6.213
35907SOL    HW2 9619   3.217   5.692   6.318
35908SOL     OW 9620   6.729  12.337  13.880
35908SOL    HW1 9621   6.695  12.426  13.888
35908SOL    HW2 9622   6.706  12.296  13.964
35909SOL     OW 9623   6.649   9.588   6.004
35909SOL    HW1 9624   6.553   9.587   6.000
35909SOL    HW2 9625   6.675   9.510   5.956
35910SOL     OW 9626  10.519  13.216  11.814
35910SOL    HW1 9627  10.430  13.251  11.814
35910SOL    HW2 9628  10.564  13.267  11.882
35911SOL     OW 9629  12.841  13.841  12.863
35911SOL    HW1 9630  12.754  13.805  12.842
35911SOL    HW2 9631  12.852  13.824  12.957
35912SOL     OW 9632   5.343   2.803   6.055
35912SOL    HW1 9633   5.344   2.823   5.961
35912SOL    HW2 9634   5.251   2.793   6.077
35913SOL     OW 9635   4.952   4.627   8.689
35913SOL    HW1 9636   4.996   4.549   8.724
35913SOL    HW2 9637   4.949   4.688   8.763
35914SOL     OW 9638  13.463   7.622   9.539
35914SOL    HW1 9639  13.517   7.700   9.526
35914SOL    HW2 9640  13.503   7.555   9.483
35915SOL     OW 9641   1.671  12.602  12.790
35915SOL    HW1 9642   1.625  12.536  12.738
35915SOL    HW2 9643   1.693  12.671  12.727
35916SOL     OW 9644  10.596   2.823   9.340
35916SOL    HW1 9645  10.609   2.917   9.324
35916SOL    HW2 9646  10.642   2.807   9.422
35917SOL     OW 9647   7.159   6.938  10.635
35917SOL    HW1 9648   7.173   7.033  10.632
35917SOL    HW2 9649   7.225   6.905  10.696
35918SOL     OW 9650   2.800   4.043   7.384
35918SOL    HW1 9651   2.746   4.013   7.457
35918SOL    HW2 9652   2.842   3.964   7.351
35919SOL     OW 9653   6.056  14.406   3.609
35919SOL    HW1 9654   6.118  14.359   3.554
35919SOL    HW2 9655   6.067  14.498   3.584
35920SOL     OW 9656   6.648   9.780   1.670
35920SOL    HW1 9657   6.676   9.818   1.586
35920SOL    HW2 9658   6.728   9.775   1.722
35921SOL     OW 9659  12.825  12.238   5.803
35921SOL    HW1 9660  12.920  12.250   5.810
35921SOL    HW2 9661  12.809  12.152   5.842
35922SOL     OW 9662   8.212   5.550  14.370
35922SOL    HW1 9663   8.218   5.478  14.434
35922SOL    HW2 9664   8.302   5.570  14.347
35923SOL     OW 9665   1.247   3.295   6.715
35923SOL    HW1 9666   1.337   3.296   6.747
35923SOL    HW2 9667   1.202   3.362   6.766
35924SOL     OW 9668   7.003   9.723   8.082
35924SOL    HW1 9669   7.067   9.697   8.149
35924SOL    HW2 9670   7.055   9.768   8.015
35925SOL     OW 9671  13.275  13.949   3.482
35925SOL    HW1 9672  13.353  13.939   3.537
35925SOL    HW2 9673  13.205  13.973   3.543
35926SOL     OW 9674   1.239  14.426   9.451
35926SOL    HW1 9675   1.285  14.464   9.526
35926SOL    HW2 9676   1.239  14.496   9.386
35927SOL     OW 9677   0.412   2.612   5.574
35927SOL    HW1 9678   0.418   2.707   5.570
35927SOL    HW2 9679   0.501   2.583   5.592
35928SOL     OW 9680   3.771  13.757  10.094
35928SOL    HW1 9681   3.734  13.689  10.038
35928SOL    HW2 9682   3.699  13.781  10.153
35929SOL     OW 9683   1.819  11.641   6.799
35929SOL    HW1 9684   1.855  11.553   6.786
35929SOL    HW2 9685   1.734  11.626   6.841
35930SOL     OW 9686   5.739   4.084  11.768
35930SOL    HW1 9687   5.772   4.154  11.825
35930SOL    HW2 9688   5.786   4.006  11.796
35931SOL     OW 9689  11.556  10.362   8.836
35931SOL    HW1 9690  11.622  10.351   8.767
35931SOL    HW2 9691  11.600  10.332   8.916
35932SOL     OW 9692   4.308  13.854  14.019
35932SOL    HW1 9693   4.356  13.878  13.940
35932SOL    HW2 9694   4.247  13.786  13.990
35933SOL     OW 9695   0.034  11.671   4.530
35933SOL    HW1 9696   0.059  11.764   4.524
35933SOL    HW2 9697   0.114  11.628   4.562
35934SOL     OW 9698   7.698   5.395  11.657
35934SOL    HW1 9699   7.694   5.463  11.590
35934SOL    HW2 9700   7.608   5.366  11.668
35935SOL     OW 9701   8.442   1.223   0.064
35935SOL    HW1 9702   8.474   1.262  14.854
35935SOL    HW2 9703   8.360   1.180   0.040
35936SOL     OW 9704   5.071   8.705   3.395
35936SOL    HW1 9705   5.120   8.753   3.461
35936SOL    HW2 9706   5.075   8.760   3.317
35937SOL     OW 9707  14.404   9.198  11.840
35937SOL    HW1 9708  14.428   9.123  11.786
35937SOL    HW2 9709  14.446   9.182  11.925
35938SOL     OW 9710  10.569   1.380   7.555
35938SOL    HW1 9711  10.619   1.308   7.515
35938SOL    HW2 9712  10.616   1.399   7.636
35939SOL     OW 9713   7.400   0.680  13.933
35939SOL    HW1 9714   7.315   0.648  13.964
35939SOL    HW2 9715   7.427   0.617  13.867
35940SOL     OW 9716   3.635  13.349  10.488
35940SOL    HW1 9717   3.616  13.259  10.513
35940SOL    HW2 9718   3.592  13.360  10.403
35941SOL     OW 9719  13.143  11.461   6.524
35941SOL    HW1 9720  13.090  11.512   6.586
35941SOL    HW2 9721  13.213  11.521   6.497
35942SOL     OW 9722  12.750   4.283   6.709
35942SOL    HW1 9723  12.755   4.246   6.797
35942SOL    HW2 9724  12.672   4.340   6.711
35943SOL     OW 9725   2.180   8.559  10.152
35943SOL    HW1 9726   2.213   8.525  10.068
35943SOL    HW2 9727   2.175   8.481  10.208
35944SOL     OW 9728   9.329  12.559   6.213
35944SOL    HW1 9729   9.241  12.547   6.180
35944SOL    HW2 9730   9.327  12.644   6.256
35945SOL     OW 9731   5.964   8.278   5.323
35945SOL    HW1 9732   5.921   8.246   5.244
35945SOL    HW2 9733   6.012   8.203   5.356
35946SOL     OW 9734  10.703   3.188   8.250
35946SOL    HW1 9735  10.745   3.274   8.259
35946SOL    HW2 9736  10.625   3.194   8.305
35947SOL     OW 9737   7.344   4.570  10.952
35947SOL    HW1 9738   7.284   4.505  10.916
35947SOL    HW2 9739   7.322   4.651  10.905
35948SOL     OW 9740   7.956   6.451  12.441
35948SOL    HW1 9741   7.957   6.377  12.502
35948SOL    HW2 9742   8.039   6.444  12.394
35949SOL     OW 9743  13.195   7.458   8.426
35949SOL    HW1 9744  13.104   7.469   8.398
35949SOL    HW2 9745  13.247   7.474   8.347
35950SOL     OW 9746   0.596   0.323   7.671
35950SOL    HW1 9747   0.528   0.261   7.643
35950SOL    HW2 9748   0.597   0.316   7.766
35951SOL     OW 9749  13.815   4.326  13.077
35951SOL    HW1 9750  13.904   4.320  13.042
35951SOL    HW2 9751  13.760   4.288  13.009
35952SOL     OW 9752   2.512  13.380   3.803
35952SOL    HW1 9753   2.465  13.301   3.776
35952SOL    HW2 9754   2.444  13.446   3.814
35953SOL     OW 9755   7.442  11.798  11.287
35953SOL    HW1 9756   7.484  11.792  11.201
35953SOL    HW2 9757   7.510  11.833  11.345
35954SOL     OW 9758  10.825   9.041   4.418
35954SOL    HW1 9759  10.823   8.951   4.386
35954SOL    HW2 9760  10.766   9.042   4.493
35955SOL     OW 9761  11.744   5.925   2.263
35955SOL    HW1 9762  11.774   5.844   2.305
35955SOL    HW2 9763  11.765   5.913   2.170
35956SOL     OW 9764   1.262   1.848   8.129
35956SOL    HW1 9765   1.296   1.932   8.097
35956SOL    HW2 9766   1.330   1.784   8.107
35957SOL     OW 9767   2.840  13.832  13.301
35957SOL    HW1 9768   2.828  13.895  13.230
35957SOL    HW2 9769   2.856  13.749  13.258
35958SOL     OW 9770   9.564  14.574   9.167
35958SOL    HW1 9771   9.608  14.617   9.093
35958SOL    HW2 9772   9.549  14.645   9.230
35959SOL     OW 9773   7.685  12.493   7.634
35959SOL    HW1 9774   7.772  12.455   7.620
35959SOL    HW2 9775   7.625  12.418   7.629
35960SOL     OW 9776  12.125  13.699   4.343
35960SOL    HW1 9777  12.195  13.646   4.305
35960SOL    HW2 9778  12.159  13.789   4.341
35961SOL     OW 9779   5.144   5.626  12.757
35961SOL    HW1 9780   5.183   5.712  12.772
35961SOL    HW2 9781   5.149   5.582  12.841
35962SOL     OW 9782  12.495   2.972   2.209
35962SOL    HW1 9783  12.572   3.027   2.195
35962SOL    HW2 9784  12.480   2.930   2.125
35963SOL     OW 9785   7.555   7.988  12.667
35963SOL    HW1 9786   7.593   8.076  12.669
35963SOL    HW2 9787   7.479   7.997  12.609
35964SOL     OW 9788  12.656  12.842   6.156
35964SOL    HW1 9789  12.739  12.858   6.111
35964SOL    HW2 9790  12.624  12.759   6.120
35965SOL     OW 9791   4.642   8.578   0.801
35965SOL    HW1 9792   4.646   8.568   0.706
35965SOL    HW2 9793   4.585   8.507   0.830
35966SOL     OW 9794   4.744  11.847   1.629
35966SOL    HW1 9795   4.710  11.835   1.540
35966SOL    HW2 9796   4.678  11.806   1.686
35967SOL     OW 9797  14.561   2.471   7.946
35967SOL    HW1 9798  14.472   2.435   7.946
35967SOL    HW2 9799  14.550   2.562   7.916
35968SOL     OW 9800   5.953   9.829   7.553
35968SOL    HW1 9801   5.877   9.869   7.596
35968SOL    HW2 9802   5.991   9.771   7.619
35969SOL     OW 9803   9.856  10.876   5.390
35969SOL    HW1 9804   9.844  10.845   5.479
35969SOL    HW2 9805   9.767  10.880   5.354
35970SOL     OW 9806   6.639   5.188  10.278
35970SOL    HW1 9807   6.581   5.118  10.307
35970SOL    HW2 9808   6.712   5.185  10.339
35971SOL     OW 9809  12.306   4.765   5.875
35971SOL    HW1 9810  12.315   4.742   5.783
35971SOL    HW2 9811  12.385   4.731   5.916
35972SOL     OW 9812   3.842  14.120   7.498
35972SOL    HW1 9813   3.805  14.032   7.498
35972SOL    HW2 9814   3.895  14.124   7.578
35973SOL     OW 9815   5.694   8.640  14.301
35973SOL    HW1 9816   5.707   8.558  14.347
35973SOL    HW2 9817   5.607   8.631  14.260
35974SOL     OW 9818   9.105   6.597  14.513
35974SOL    HW1 9819   9.147   6.515  14.540
35974SOL    HW2 9820   9.111   6.596  14.417
35975SOL     OW 9821   1.072  12.576   4.051
35975SOL    HW1 9822   1.028  12.619   4.124
35975SOL    HW2 9823   1.098  12.491   4.086
35976SOL     OW 9824   9.417   5.188  13.628
35976SOL    HW1 9825   9.370   5.225  13.702
35976SOL    HW2 9826   9.399   5.094  13.633
35977SOL     OW 9827   9.103   6.296   8.272
35977SOL    HW1 9828   9.093   6.201   8.278
35977SOL    HW2 9829   9.159   6.319   8.346
35978SOL     OW 9830   7.215   9.796  12.793
35978SOL    HW1 9831   7.308   9.816  12.801
35978SOL    HW2 9832   7.190   9.831  12.708
35979SOL     OW 9833  13.151   9.835   1.500
35979SOL    HW1 9834  13.233   9.849   1.548
35979SOL    HW2 9835  13.124   9.746   1.525
35980SOL     OW 9836   6.354   4.683   2.936
35980SOL    HW1 9837   6.304   4.602   2.928
35980SOL    HW2 9838   6.292   4.745   2.974
35981SOL     OW 9839   6.371   7.606   0.728
35981SOL    HW1 9840   6.387   7.512   0.735
35981SOL    HW2 9841   6.456   7.643   0.705
35982SOL     OW 9842  13.836   9.052   0.184
35982SOL    HW1 9843  13.771   9.034   0.116
35982SOL    HW2 9844  13.845   9.147   0.183
35983SOL     OW 9845  11.139   5.612   1.853
35983SOL    HW1 9846  11.154   5.646   1.765
35983SOL    HW2 9847  11.142   5.517   1.843
35984SOL     OW 9848  12.020  14.355   8.698
35984SOL    HW1 9849  11.997  14.446   8.678
35984SOL    HW2 9850  12.115  14.356   8.706
35985SOL     OW 9851   8.011   3.117   8.736
35985SOL    HW1 9852   8.004   3.042   8.677
35985SOL    HW2 9853   7.949   3.097   8.807
35986SOL     OW 9854   8.616  11.238   5.624
35986SOL    HW1 9855   8.546  11.253   5.561
35986SOL    HW2 9856   8.608  11.145   5.646
35987SOL     OW 9857   4.528   5.990   1.709
35987SOL    HW1 9858   4.439   5.986   1.675
35987SOL    HW2 9859   4.538   6.080   1.741
35988SOL     OW 9860  13.217  11.099   9.574
35988SOL    HW1 9861  13.148  11.148   9.530
35988SOL    HW2 9862  13.185  11.085   9.662
35989SOL     OW 9863   9.953  14.174  14.246
35989SOL    HW1 9864  10.023  14.239  14.260
35989SOL    HW2 9865   9.872  14.224  14.250
35990SOL     OW 9866   7.399   0.803   6.063
35990SOL    HW1 9867   7.436   0.756   6.138
35990SOL    HW2 9868   7.327   0.748   6.033
35991SOL     OW 9869  10.586  14.043   3.571
35991SOL    HW1 9870  10.575  14.021   3.663
35991SOL    HW2 9871  10.643  14.120   3.571
35992SOL     OW 9872   9.431   0.052  14.070
35992SOL    HW1 9873   9.345   0.014  14.082
35992SOL    HW2 9874   9.449   0.042  13.976
35993SOL     OW 9875  11.384   1.077   5.161
35993SOL    HW1 9876  11.300   1.031   5.158
35993SOL    HW2 9877  11.434   1.031   5.228
35994SOL     OW 9878  10.247  11.317  11.801
35994SOL    HW1 9879  10.341  11.320  11.819
35994SOL    HW2 9880  10.238  11.344  11.710
35995SOL     OW 9881  12.032   9.504  11.709
35995SOL    HW1 9882  12.096   9.556  11.661
35995SOL    HW2 9883  12.023   9.424  11.657
35996SOL     OW 9884  13.860   2.181   8.460
35996SOL    HW1 9885  13.881   2.215   8.547
35996SOL    HW2 9886  13.783   2.126   8.473
35997SOL     OW 9887   1.402  13.904   6.211
35997SOL    HW1 9888   1.348  13.922   6.288
35997SOL    HW2 9889   1.482  13.955   6.225
35998SOL     OW 9890   4.723   9.115   4.434
35998SOL    HW1 9891   4.696   9.135   4.523
35998SOL    HW2 9892   4.659   9.051   4.403
35999SOL     OW 9893   5.926   5.313   5.504
35999SOL    HW1 9894   6.020   5.331   5.513
35999SOL    HW2 9895   5.902   5.353   5.420
36000SOL     OW 9896   5.360   5.148   7.277
36000SOL    HW1 9897   5.441   5.174   7.234
36000SOL    HW2 9898   5.331   5.228   7.323
36001SOL     OW 9899   6.895  10.591   4.901
36001SOL    HW1 9900   6.906  10.504   4.863
36001SOL    HW2 9901   6.835  10.578   4.974
36002SOL     OW 9902   3.942   3.512   6.261
36002SOL    HW1 9903   3.900   3.481   6.181
36002SOL    HW2 9904   4.034   3.524   6.237
36003SOL     OW 9905   1.041   9.921   6.252
36003SOL    HW1 9906   0.953   9.888   6.231
36003SOL    HW2 9907   1.037  10.014   6.231
36004SOL     OW 9908   6.118  14.315   4.194
36004SOL    HW1 9909   6.111  14.410   4.191
36004SOL    HW2 9910   6.184  14.293   4.128
36005SOL     OW 9911   9.780   0.721   3.064
36005SOL    HW1 9912   9.834   0.703   2.987
36005SOL    HW2 9913   9.835   0.777   3.119
36006SOL     OW 9914  12.988  13.438   8.695
36006SOL    HW1 9915  12.982  13.400   8.608
36006SOL    HW2 9916  12.959  13.529   8.684
36007SOL     OW 9917  13.795   1.718  12.171
36007SOL    HW1 9918  13.766   1.633  12.203
36007SOL    HW2 9919  13.857   1.698  12.101
36008SOL     OW 9920  12.696   3.118   5.177
36008SOL    HW1 9921  12.642   3.039   5.175
36008SOL    HW2 9922  12.679   3.162   5.094
36009SOL     OW 9923   3.872  12.277  11.765
36009SOL    HW1 9924   3.870  12.258  11.671
36009SOL    HW2 9925   3.870  12.192  11.807
36010SOL     OW 9926   1.855  12.476   8.677
36010SOL    HW1 9927   1.841  12.569   8.697
36010SOL    HW2 9928   1.840  12.469   8.583
36011SOL     OW 9929   9.140   4.336   3.376
36011SOL    HW1 9930   9.089   4.297   3.448
36011SOL    HW2 9931   9.179   4.414   3.414
36012SOL     OW 9932  13.592   3.648   9.772
36012SOL    HW1 9933  13.624   3.559   9.782
36012SOL    HW2 9934  13.671   3.702   9.768
36013SOL     OW 9935  13.985   4.408   8.443
36013SOL    HW1 9936  14.054   4.370   8.389
36013SOL    HW2 9937  13.904   4.372   8.409
36014SOL     OW 9938   8.613  12.495   1.866
36014SOL    HW1 9939   8.556  12.566   1.837
36014SOL    HW2 9940   8.611  12.432   1.794
36015SOL     OW 9941   9.044   2.194   5.722
36015SOL    HW1 9942   9.116   2.176   5.662
36015SOL    HW2 9943   9.044   2.290   5.730
36016SOL     OW 9944   2.170  14.509   6.685
36016SOL    HW1 9945   2.239  14.535   6.624
36016SOL    HW2 9946   2.204  14.530   6.772
36017SOL     OW 9947   5.683   0.436   0.879
36017SOL    HW1 9948   5.656   0.345   0.895
36017SOL    HW2 9949   5.606   0.488   0.899
36018SOL     OW 9950   6.026  14.510   3.213
36018SOL    HW1 9951   5.964  14.524   3.285
36018SOL    HW2 9952   6.086  14.585   3.218
36019SOL     OW 9953  13.079   7.451  11.323
36019SOL    HW1 9954  13.038   7.464  11.408
36019SOL    HW2 9955  13.007   7.462  11.260
36020SOL     OW 9956   2.765   5.692   4.620
36020SOL    HW1 9957   2.845   5.649   4.590
36020SOL    HW2 9958   2.724   5.725   4.540
36021SOL     OW 9959  12.102   4.313   9.911
36021SOL    HW1 9960  12.009   4.334   9.901
36021SOL    HW2 9961  12.119   4.246   9.845
36022SOL     OW 9962  10.244   0.218  10.004
36022SOL    HW1 9963  10.165   0.202   9.953
36022SOL    HW2 9964  10.309   0.157   9.970
36023SOL     OW 9965   1.193   0.391   6.049
36023SOL    HW1 9966   1.119   0.388   5.987
36023SOL    HW2 9967   1.246   0.465   6.020
36024SOL     OW 9968  10.390   6.718   9.083
36024SOL    HW1 9969  10.379   6.665   9.004
36024SOL    HW2 9970  10.449   6.666   9.139
36025SOL     OW 9971   0.329   3.609  12.188
36025SOL    HW1 9972   0.351   3.522  12.153
36025SOL    HW2 9973   0.401   3.629  12.247
36026SOL     OW 9974   3.862   4.397  10.103
36026SOL    HW1 9975   3.797   4.326  10.105
36026SOL    HW2 9976   3.906   4.387  10.018
36027SOL     OW 9977  12.068  11.038   6.840
36027SOL    HW1 9978  12.028  11.078   6.763
36027SOL    HW2 9979  12.121  10.966   6.805
36028SOL     OW 9980   1.525  12.934   5.721
36028SOL    HW1 9981   1.449  12.896   5.766
36028SOL    HW2 9982   1.509  12.916   5.629
36029SOL     OW 9983  13.143   9.834   8.932
36029SOL    HW1 9984  13.117   9.914   8.886
36029SOL    HW2 9985  13.201   9.789   8.871
36030SOL     OW 9986  14.591   6.588   6.407
36030SOL    HW1 9987  14.604   6.678   6.437
36030SOL    HW2 9988  14.556   6.542   6.483
36031SOL     OW 9989  12.440   3.422  13.297
36031SOL    HW1 9990  12.376   3.364  13.341
36031SOL    HW2 9991  12.391   3.502  13.280
36032SOL     OW 9992  13.421   8.049  11.934
36032SOL    HW1 9993  13.344   8.097  11.903
36032SOL    HW2 9994  13.476   8.116  11.976
36033SOL     OW 9995   0.432   1.776  10.963
36033SOL    HW1 9996   0.397   1.789  11.052
36033SOL    HW2 9997   0.526   1.795  10.972
36034SOL     OW 9998   3.527  14.057  12.871
36034SOL    HW1 9999   3.450  14.002  12.888
36034SOL    HW210000   3.551  14.037  12.781
36035SOL     OW10001   5.614  11.926  12.287
36035SOL    HW110002   5.610  11.865  12.361
36035SOL    HW210003   5.559  11.999  12.313
36036SOL     OW10004   7.529  11.689   6.119
36036SOL    HW110005   7.474  11.623   6.076
36036SOL    HW210006   7.466  11.745   6.166
36037SOL     OW10007   6.128   4.490   2.892
36037SOL    HW110008   6.056   4.459   2.947
36037SOL    HW210009   6.139   4.422   2.826
36038SOL     OW10010   0.735   7.476   3.080
36038SOL    HW110011   0.652   7.443   3.113
36038SOL    HW210012   0.783   7.397   3.054
36039SOL     OW10013   8.873  11.105  14.418
36039SOL    HW110014   8.941  11.066  14.363
36039SOL    HW210015   8.816  11.031  14.442
36040SOL     OW10016  13.370  13.583  11.380
36040SOL    HW110017  13.324  13.575  11.296
36040SOL    HW210018  13.428  13.506  11.383
36041SOL     OW10019   6.717  12.855   4.636
36041SOL    HW110020   6.755  12.771   4.660
36041SOL    HW210021   6.730  12.861   4.541
36042SOL     OW10022  10.986   5.986  14.432
36042SOL    HW110023  10.920   5.997  14.364
36042SOL    HW210024  11.066   5.965  14.384
36043SOL     OW10025   9.356  13.976  11.364
36043SOL    HW110026   9.382  13.980  11.272
36043SOL    HW210027   9.309  14.058  11.381
36044SOL     OW10028   9.530   1.884   3.787
36044SOL    HW110029   9.514   1.958   3.728
36044SOL    HW210030   9.625   1.874   3.788
36045SOL     OW10031   5.891   1.692   9.082
36045SOL    HW110032   5.985   1.678   9.085
36045SOL    HW210033   5.869   1.726   9.169
36046SOL     OW10034   2.441   8.855  12.808
36046SOL    HW110035   2.407   8.863  12.897
36046SOL    HW210036   2.405   8.932  12.762
36047SOL     OW10037  13.112  12.960   8.339
36047SOL    HW110038  13.028  12.916   8.349
36047SOL    HW210039  13.177  12.894   8.362
36048SOL     OW10040  12.168   7.531  14.848
36048SOL    HW110041  12.150   7.602  14.787
36048SOL    HW210042  12.083   7.489  14.862
36049SOL     OW10043   4.135   9.913  13.664
36049SOL    HW110044   4.185   9.892  13.742
36049SOL    HW210045   4.108  10.004  13.676
36050SOL     OW10046   9.084   4.295  11.004
36050SOL    HW110047   9.036   4.246  11.071
36050SOL    HW210048   9.143   4.230  10.964
36051SOL     OW10049  12.760  11.231  10.434
36051SOL    HW110050  12.834  11.228  10.373
36051SOL    HW210051  12.739  11.139  10.451
36052SOL     OW10052   8.132   1.698  11.617
36052SOL    HW110053   8.108   1.689  11.524
36052SOL    HW210054   8.193   1.772  11.619
36053SOL     OW10055   8.641   8.339   6.268
36053SOL    HW110056   8.595   8.390   6.334
36053SOL    HW210057   8.700   8.283   6.317
36054SOL     OW10058   2.927   2.445  10.907
36054SOL    HW110059   2.924   2.350  10.907
36054SOL    HW210060   2.836   2.473  10.922
36055SOL     OW10061   3.928  10.299   3.078
36055SOL    HW110062   3.900  10.218   3.034
36055SOL    HW210063   3.847  10.336   3.113
36056SOL     OW10064  14.192  10.608  11.502
36056SOL    HW110065  14.143  10.636  11.424
36056SOL    HW210066  14.186  10.512  11.500
36057SOL     OW10067   2.341   1.153   0.526
36057SOL    HW110068   2.355   1.058   0.528
36057SOL    HW210069   2.427   1.190   0.508
36058SOL     OW10070  11.801   3.569  14.410
36058SOL    HW110071  11.877   3.582  14.354
36058SOL    HW210072  11.819   3.488  14.457
36059SOL     OW10073   0.161  12.888   3.293
36059SOL    HW110074   0.229  12.885   3.360
36059SOL    HW210075   0.194  12.950   3.228
36060SOL     OW10076  13.185   9.563   5.474
36060SOL    HW110077  13.186   9.551   5.379
36060SOL    HW210078  13.180   9.658   5.486
36061SOL     OW10079   3.922   6.743  12.509
36061SOL    HW110080   3.896   6.784  12.591
36061SOL    HW210081   3.930   6.650  12.529
36062SOL     OW10082  12.208  13.897  11.640
36062SOL    HW110083  12.233  13.949  11.717
36062SOL    HW210084  12.113  13.898  11.640
36063SOL     OW10085  11.623   8.558   7.817
36063SOL    HW110086  11.599   8.490   7.880
36063SOL    HW210087  11.717   8.573   7.832
36064SOL     OW10088   4.606  13.153   9.436
36064SOL    HW110089   4.675  13.214   9.413
36064SOL    HW210090   4.605  13.088   9.366
36065SOL     OW10091   2.685   3.678   7.278
36065SOL    HW110092   2.622   3.614   7.246
36065SOL    HW210093   2.649   3.762   7.252
36066SOL     OW10094  12.592  13.125   1.622
36066SOL    HW110095  12.678  13.098   1.590
36066SOL    HW210096  12.533  13.057   1.590
36067SOL     OW10097  11.548  10.544   5.656
36067SOL    HW110098  11.578  10.635   5.659
36067SOL    HW210099  11.480  10.542   5.589
36068SOL     OW10100   8.234   2.861   7.179
36068SOL    HW110101   8.174   2.906   7.119
36068SOL    HW210102   8.309   2.920   7.187
36069SOL     OW10103   2.433   2.861   8.671
36069SOL    HW110104   2.450   2.774   8.637
36069SOL    HW210105   2.377   2.902   8.606
36070SOL     OW10106  11.921  14.196   7.066
36070SOL    HW110107  11.955  14.258   7.001
36070SOL    HW210108  11.826  14.205   7.059
36071SOL     OW10109   8.704  13.726  13.993
36071SOL    HW110110   8.611  13.713  14.007
36071SOL    HW210111   8.747  13.682  14.066
36072SOL     OW10112   2.386  14.565   0.257
36072SOL    HW110113   2.345  14.479   0.261
36072SOL    HW210114   2.313  14.627   0.259
36073SOL     OW10115   7.934   8.493  14.705
36073SOL    HW110116   8.018   8.531  14.731
36073SOL    HW210117   7.942   8.480  14.610
36074SOL     OW10118   7.959  10.116   8.010
36074SOL    HW110119   7.945  10.201   7.967
36074SOL    HW210120   7.875  10.098   8.053
36075SOL     OW10121   6.534   3.042   8.031
36075SOL    HW110122   6.496   3.129   8.025
36075SOL    HW210123   6.618   3.054   8.076
36076SOL     OW10124   5.929  11.833  13.218
36076SOL    HW110125   6.006  11.891  13.214
36076SOL    HW210126   5.960  11.750  13.180
36077SOL     OW10127  10.879   3.625  11.906
36077SOL    HW110128  10.944   3.556  11.924
36077SOL    HW210129  10.925   3.688  11.851
36078SOL     OW10130  11.841   6.793   7.008
36078SOL    HW110131  11.907   6.848   6.965
36078SOL    HW210132  11.890   6.716   7.038
36079SOL     OW10133   6.304   0.033   6.757
36079SOL    HW110134   6.392   0.054   6.788
36079SOL    HW210135   6.266  14.851   6.826
36080SOL     OW10136  14.698  12.266  12.258
36080SOL    HW110137  14.774  12.208  12.265
36080SOL    HW210138  14.624  12.208  12.240
36081SOL     OW10139   9.187   7.530   2.964
36081SOL    HW110140   9.227   7.616   2.965
36081SOL    HW210141   9.109   7.540   2.909
36082SOL     OW10142  10.234   2.248  12.216
36082SOL    HW110143  10.317   2.289  12.243
36082SOL    HW210144  10.169   2.285  12.276
36083SOL     OW10145   0.500   0.670   1.791
36083SOL    HW110146   0.496   0.576   1.805
36083SOL    HW210147   0.540   0.680   1.705
36084SOL     OW10148   3.996   1.795  14.101
36084SOL    HW110149   3.982   1.708  14.139
36084SOL    HW210150   4.091   1.805  14.098
36085SOL     OW10151   9.373   9.899   8.190
36085SOL    HW110152   9.459   9.866   8.163
36085SOL    HW210153   9.321   9.819   8.203
36086SOL     OW10154   0.638   2.225  14.036
36086SOL    HW110155   0.669   2.143  13.998
36086SOL    HW210156   0.654   2.214  14.130
36087SOL     OW10157   6.258   7.801   8.604
36087SOL    HW110158   6.313   7.879   8.608
36087SOL    HW210159   6.301   7.738   8.662
36088SOL     OW10160   3.409  13.047   3.435
36088SOL    HW110161   3.475  13.068   3.369
36088SOL    HW210162   3.447  13.078   3.517
36089SOL     OW10163   1.257   4.462   5.253
36089SOL    HW110164   1.243   4.552   5.224
36089SOL    HW210165   1.236   4.408   5.176
36090SOL     OW10166   1.061  13.751   4.822
36090SOL    HW110167   0.986  13.697   4.798
36090SOL    HW210168   1.126  13.732   4.754
36091SOL     OW10169   2.872   3.218   7.186
36091SOL    HW110170   2.790   3.229   7.139
36091SOL    HW210171   2.861   3.139   7.238
36092SOL     OW10172   7.876   9.579   5.883
36092SOL    HW110173   7.814   9.523   5.836
36092SOL    HW210174   7.919   9.520   5.945
36093SOL     OW10175  11.797   0.807  12.005
36093SOL    HW110176  11.818   0.842  11.918
36093SOL    HW210177  11.877   0.763  12.033
36094SOL     OW10178   4.686   3.593  11.962
36094SOL    HW110179   4.606   3.554  11.928
36094SOL    HW210180   4.658   3.638  12.042
36095SOL     OW10181   2.459   5.038   5.759
36095SOL    HW110182   2.381   4.983   5.748
36095SOL    HW210183   2.523   4.981   5.799
36096SOL     OW10184  11.757   5.961   9.881
36096SOL    HW110185  11.807   5.945   9.801
36096SOL    HW210186  11.677   6.003   9.851
36097SOL     OW10187  11.473   2.809   6.829
36097SOL    HW110188  11.397   2.824   6.885
36097SOL    HW210189  11.437   2.786   6.744
36098SOL     OW10190  14.259   7.782   3.963
36098SOL    HW110191  14.212   7.738   3.892
36098SOL    HW210192  14.310   7.850   3.919
36099SOL     OW10193   0.347   4.538  13.896
36099SOL    HW110194   0.360   4.630  13.917
36099SOL    HW210195   0.257   4.534  13.864
36100SOL     OW10196  12.206  11.956  10.948
36100SOL    HW110197  12.183  11.963  11.041
36100SOL    HW210198  12.254  11.874  10.941
36101SOL     OW10199   5.552  14.255   4.966
36101SOL    HW110200   5.471  14.212   4.992
36101SOL    HW210201   5.592  14.283   5.049
36102SOL     OW10202   0.085   1.053   7.172
36102SOL    HW110203   0.098   1.143   7.203
36102SOL    HW210204   0.043   1.008   7.245
36103SOL     OW10205   9.468  13.826  13.431
36103SOL    HW110206   9.533  13.895  13.422
36103SOL    HW210207   9.421  13.825  13.348
36104SOL     OW10208   4.119   7.001   6.574
36104SOL    HW110209   4.094   7.031   6.661
36104SOL    HW210210   4.200   7.048   6.555
36105SOL     OW10211   5.743  10.492   9.285
36105SOL    HW110212   5.706  10.406   9.264
36105SOL    HW210213   5.833  10.473   9.312
36106SOL     OW10214  11.152   8.655   5.721
36106SOL    HW110215  11.101   8.598   5.779
36106SOL    HW210216  11.159   8.606   5.639
36107SOL     OW10217  11.835   4.166   5.453
36107SOL    HW110218  11.817   4.225   5.526
36107SOL    HW210219  11.761   4.106   5.451
36108SOL     OW10220   3.211   8.568  14.665
36108SOL    HW110221   3.225   8.480  14.700
36108SOL    HW210222   3.218   8.557  14.570
36109SOL     OW10223   7.140  13.927  11.377
36109SOL    HW110224   7.100  13.857  11.325
36109SOL    HW210225   7.078  13.943  11.448
36110SOL     OW10226   9.535   2.244   4.825
36110SOL    HW110227   9.572   2.297   4.754
36110SOL    HW210228   9.468   2.300   4.865
36111SOL     OW10229   5.109  12.812  10.383
36111SOL    HW110230   5.148  12.892  10.348
36111SOL    HW210231   5.143  12.742  10.327
36112SOL     OW10232   5.158  13.675   9.660
36112SOL    HW110233   5.154  13.734   9.736
36112SOL    HW210234   5.133  13.730   9.586
36113SOL     OW10235   1.958  13.280  13.127
36113SOL    HW110236   1.974  13.248  13.038
36113SOL    HW210237   1.943  13.201  13.179
36114SOL     OW10238   6.801  10.383   1.720
36114SOL    HW110239   6.763  10.329   1.650
36114SOL    HW210240   6.888  10.406   1.687
36115SOL     OW10241   0.225  11.247   0.873
36115SOL    HW110242   0.245  11.317   0.936
36115SOL    HW210243   0.143  11.274   0.833
36116SOL     OW10244   2.227   5.952   6.358
36116SOL    HW110245   2.259   5.869   6.392
36116SOL    HW210246   2.297   5.984   6.301
36117SOL     OW10247  11.047   5.383  14.040
36117SOL    HW110248  11.057   5.288  14.041
36117SOL    HW210249  10.994   5.402  14.118
36118SOL     OW10250  10.766  13.124  11.746
36118SOL    HW110251  10.679  13.150  11.777
36118SOL    HW210252  10.785  13.044  11.795
36119SOL     OW10253   9.548   4.884  12.644
36119SOL    HW110254   9.531   4.923  12.730
36119SOL    HW210255   9.515   4.949  12.582
36120SOL     OW10256   9.162   7.788  13.707
36120SOL    HW110257   9.071   7.808  13.685
36120SOL    HW210258   9.214   7.837  13.643
36121SOL     OW10259   5.461   7.004  10.892
36121SOL    HW110260   5.514   6.925  10.895
36121SOL    HW210261   5.503   7.064  10.954
36122SOL     OW10262   9.673   8.647   3.802
36122SOL    HW110263   9.742   8.648   3.868
36122SOL    HW210264   9.665   8.738   3.775
36123SOL     OW10265   6.442   2.812   1.203
36123SOL    HW110266   6.376   2.848   1.143
36123SOL    HW210267   6.464   2.727   1.166
36124SOL     OW10268   9.574   7.753   2.633
36124SOL    HW110269   9.491   7.717   2.663
36124SOL    HW210270   9.622   7.677   2.599
36125SOL     OW10271   9.938   9.639  14.560
36125SOL    HW110272   9.960   9.674  14.475
36125SOL    HW210273  10.021   9.611  14.598
36126SOL     OW10274   5.951   0.955   7.398
36126SOL    HW110275   5.937   1.020   7.466
36126SOL    HW210276   5.869   0.906   7.394
36127SOL     OW10277   5.821  11.680  12.778
36127SOL    HW110278   5.898  11.734  12.796
36127SOL    HW210279   5.821  11.669  12.683
36128SOL     OW10280   5.728  14.531   9.805
36128SOL    HW110281   5.682  14.563   9.728
36128SOL    HW210282   5.813  14.574   9.802
36129SOL     OW10283   6.303   2.043   4.688
36129SOL    HW110284   6.230   2.098   4.716
36129SOL    HW210285   6.340   2.089   4.613
36130SOL     OW10286  14.168   1.643  10.869
36130SOL    HW110287  14.175   1.716  10.807
36130SOL    HW210288  14.252   1.598  10.862
36131SOL     OW10289  12.420   2.407   8.666
36131SOL    HW110290  12.330   2.393   8.637
36131SOL    HW210291  12.448   2.487   8.621
36132SOL     OW10292   3.361   2.951   4.188
36132SOL    HW110293   3.340   3.045   4.193
36132SOL    HW210294   3.380   2.926   4.279
36133SOL     OW10295  10.792  11.670   4.505
36133SOL    HW110296  10.719  11.656   4.446
36133SOL    HW210297  10.828  11.582   4.521
36134SOL     OW10298   5.701  10.502  13.265
36134SOL    HW110299   5.734  10.414  13.285
36134SOL    HW210300   5.698  10.505  13.169
36135SOL     OW10301   6.494   4.848  14.260
36135SOL    HW110302   6.583   4.812  14.263
36135SOL    HW210303   6.496   4.913  14.190
36136SOL     OW10304   2.183   4.124   8.429
36136SOL    HW110305   2.227   4.050   8.385
36136SOL    HW210306   2.253   4.170   8.474
36137SOL     OW10307  10.899   5.589  10.440
36137SOL    HW110308  10.820   5.625  10.399
36137SOL    HW210309  10.962   5.661  10.437
36138SOL     OW10310  10.763   9.048  13.216
36138SOL    HW110311  10.760   9.018  13.125
36138SOL    HW210312  10.790   9.140  13.211
36139SOL     OW10313  11.230   3.411   9.079
36139SOL    HW110314  11.161   3.447   9.134
36139SOL    HW210315  11.193   3.328   9.047
36140SOL     OW10316  10.328  11.182   7.479
36140SOL    HW110317  10.338  11.091   7.506
36140SOL    HW210318  10.418  11.215   7.472
36141SOL     OW10319   7.305   1.976  11.508
36141SOL    HW110320   7.233   2.016  11.558
36141SOL    HW210321   7.364   1.942  11.575
36142SOL     OW10322  11.077   9.273   2.387
36142SOL    HW110323  11.121   9.235   2.311
36142SOL    HW210324  11.056   9.198   2.443
36143SOL     OW10325   9.787   2.633   9.430
36143SOL    HW110326   9.745   2.694   9.491
36143SOL    HW210327   9.853   2.686   9.385
36144SOL     OW10328   2.571   4.505  12.794
36144SOL    HW110329   2.629   4.479  12.722
36144SOL    HW210330   2.602   4.454  12.869
36145SOL     OW10331   7.032  10.223   0.169
36145SOL    HW110332   6.948  10.248   0.133
36145SOL    HW210333   7.019  10.223   0.264
36146SOL     OW10334  13.241   1.978   7.818
36146SOL    HW110335  13.302   1.953   7.748
36146SOL    HW210336  13.282   1.946   7.898
36147SOL     OW10337   4.145   7.280   1.809
36147SOL    HW110338   4.206   7.208   1.796
36147SOL    HW210339   4.112   7.269   1.898
36148SOL     OW10340   4.701  11.667  14.256
36148SOL    HW110341   4.637  11.681  14.185
36148SOL    HW210342   4.654  11.612  14.319
36149SOL     OW10343  14.323   8.587   1.503
36149SOL    HW110344  14.415   8.568   1.486
36149SOL    HW210345  14.309   8.674   1.466
36150SOL     OW10346  14.410   7.825  14.414
36150SOL    HW110347  14.496   7.787  14.398
36150SOL    HW210348  14.349   7.758  14.382
36151SOL     OW10349   9.464  10.657   4.568
36151SOL    HW110350   9.468  10.753   4.566
36151SOL    HW210351   9.411  10.634   4.491
36152SOL     OW10352  14.378   9.026   4.356
36152SOL    HW110353  14.331   9.079   4.421
36152SOL    HW210354  14.348   8.937   4.371
36153SOL     OW10355   6.871   3.047   9.612
36153SOL    HW110356   6.960   3.012   9.614
36153SOL    HW210357   6.859   3.077   9.522
36154SOL     OW10358  13.015   5.414   3.977
36154SOL    HW110359  12.998   5.470   3.901
36154SOL    HW210360  13.069   5.343   3.942
36155SOL     OW10361   4.124   4.194   7.520
36155SOL    HW110362   4.216   4.219   7.510
36155SOL    HW210363   4.087   4.263   7.575
36156SOL     OW10364   9.529   9.494   8.583
36156SOL    HW110365   9.502   9.580   8.551
36156SOL    HW210366   9.559   9.509   8.672
36157SOL     OW10367   4.400  10.419   0.042
36157SOL    HW110368   4.459  10.434  14.839
36157SOL    HW210369   4.319  10.387   0.002
36158SOL     OW10370   2.768   2.730   0.140
36158SOL    HW110371   2.704   2.800   0.152
36158SOL    HW210372   2.853   2.773   0.145
36159SOL     OW10373   7.543   0.626  11.340
36159SOL    HW110374   7.628   0.638  11.383
36159SOL    HW210375   7.497   0.564  11.397
36160SOL     OW10376   3.775   9.593  12.735
36160SOL    HW110377   3.714   9.649  12.783
36160SOL    HW210378   3.855   9.645  12.729
36161SOL     OW10379   0.436   0.993   8.358
36161SOL    HW110380   0.408   1.004   8.449
36161SOL    HW210381   0.376   0.929   8.321
36162SOL     OW10382  10.317   4.815   2.561
36162SOL    HW110383  10.388   4.829   2.498
36162SOL    HW210384  10.265   4.745   2.522
36163SOL     OW10385   8.326   7.286  11.674
36163SOL    HW110386   8.231   7.285  11.663
36163SOL    HW210387   8.340   7.300  11.768
36164SOL     OW10388   2.398  11.765  12.998
36164SOL    HW110389   2.423  11.673  12.991
36164SOL    HW210390   2.397  11.796  12.908
36165SOL     OW10391   7.927  12.873   8.025
36165SOL    HW110392   7.888  12.925   7.955
36165SOL    HW210393   7.892  12.911   8.106
36166SOL     OW10394   8.698   0.974  10.019
36166SOL    HW110395   8.662   1.048   9.970
36166SOL    HW210396   8.781   1.008  10.055
36167SOL     OW10397  13.576  13.173  11.550
36167SOL    HW110398  13.635  13.135  11.615
36167SOL    HW210399  13.491  13.134  11.570
36168SOL     OW10400  10.665   1.405   9.111
36168SOL    HW110401  10.604   1.476   9.133
36168SOL    HW210402  10.629   1.365   9.033
36169SOL     OW10403   3.987   0.478   6.994
36169SOL    HW110404   4.041   0.406   7.026
36169SOL    HW210405   4.030   0.557   7.028
36170SOL     OW10406   0.757   7.392  11.204
36170SOL    HW110407   0.779   7.459  11.139
36170SOL    HW210408   0.824   7.325  11.193
36171SOL     OW10409  13.276   1.861  10.383
36171SOL    HW110410  13.357   1.887  10.340
36171SOL    HW210411  13.209   1.919  10.346
36172SOL     OW10412  11.105   8.487   6.723
36172SOL    HW110413  11.148   8.571   6.740
36172SOL    HW210414  11.177   8.426   6.704
36173SOL     OW10415   6.184   9.912   1.417
36173SOL    HW110416   6.175   9.967   1.495
36173SOL    HW210417   6.269   9.869   1.427
36174SOL     OW10418   8.949   5.126   8.869
36174SOL    HW110419   8.988   5.103   8.954
36174SOL    HW210420   9.024   5.137   8.811
36175SOL     OW10421   7.642   0.506   8.397
36175SOL    HW110422   7.699   0.553   8.336
36175SOL    HW210423   7.696   0.494   8.475
36176SOL     OW10424  13.880   9.104   9.077
36176SOL    HW110425  13.849   9.111   8.987
36176SOL    HW210426  13.801   9.114   9.130
36177SOL     OW10427   5.764   4.774  10.826
36177SOL    HW110428   5.708   4.819  10.763
36177SOL    HW210429   5.755   4.824  10.907
36178SOL     OW10430   5.548   9.294  13.021
36178SOL    HW110431   5.551   9.374  12.970
36178SOL    HW210432   5.526   9.225  12.958
36179SOL     OW10433  13.100  10.849   3.531
36179SOL    HW110434  13.190  10.882   3.519
36179SOL    HW210435  13.087  10.848   3.626
36180SOL     OW10436   7.314   3.712   5.185
36180SOL    HW110437   7.294   3.806   5.191
36180SOL    HW210438   7.335   3.698   5.093
36181SOL     OW10439  12.643   4.511  13.461
36181SOL    HW110440  12.627   4.514  13.556
36181SOL    HW210441  12.626   4.601  13.432
36182SOL     OW10442   8.253   0.981   0.308
36182SOL    HW110443   8.198   0.907   0.282
36182SOL    HW210444   8.231   1.051   0.246
36183SOL     OW10445   6.739   0.340   1.841
36183SOL    HW110446   6.781   0.340   1.755
36183SOL    HW210447   6.748   0.250   1.872
36184SOL     OW10448  11.188   1.046  11.724
36184SOL    HW110449  11.115   1.002  11.767
36184SOL    HW210450  11.244   1.075  11.796
36185SOL     OW10451   9.193  11.912   9.287
36185SOL    HW110452   9.276  11.904   9.240
36185SOL    HW210453   9.128  11.878   9.225
36186SOL     OW10454  13.465   2.238   6.821
36186SOL    HW110455  13.508   2.318   6.850
36186SOL    HW210456  13.373   2.262   6.812
36187SOL     OW10457   7.773  10.540   0.867
36187SOL    HW110458   7.799  10.513   0.779
36187SOL    HW210459   7.740  10.629   0.855
36188SOL     OW10460   8.146   8.111   2.389
36188SOL    HW110461   8.053   8.090   2.378
36188SOL    HW210462   8.167   8.084   2.478
36189SOL     OW10463  13.674   3.116   5.687
36189SOL    HW110464  13.717   3.034   5.661
36189SOL    HW210465  13.743   3.166   5.730
36190SOL     OW10466   7.878   3.909   3.213
36190SOL    HW110467   7.968   3.879   3.222
36190SOL    HW210468   7.825   3.831   3.227
36191SOL     OW10469   9.106   0.405   8.221
36191SOL    HW110470   9.014   0.380   8.211
36191SOL    HW210471   9.150   0.362   8.147
36192SOL     OW10472   2.973   4.635  13.703
36192SOL    HW110473   2.916   4.706  13.730
36192SOL    HW210474   2.922   4.585  13.639
36193SOL     OW10475   1.751   9.629   7.424
36193SOL    HW110476   1.775   9.716   7.392
36193SOL    HW210477   1.763   9.572   7.348
36194SOL     OW10478  14.659   3.344   1.610
36194SOL    HW110479  14.565   3.338   1.593
36194SOL    HW210480  14.699   3.296   1.538
36195SOL     OW10481  12.419   5.421   2.316
36195SOL    HW110482  12.466   5.488   2.365
36195SOL    HW210483  12.483   5.351   2.302
36196SOL     OW10484  10.009   8.611  11.196
36196SOL    HW110485   9.936   8.612  11.258
36196SOL    HW210486   9.994   8.686  11.139
36197SOL     OW10487   4.579   2.126   3.191
36197SOL    HW110488   4.496   2.081   3.180
36197SOL    HW210489   4.643   2.068   3.150
36198SOL     OW10490  13.105   1.442  12.626
36198SOL    HW110491  13.191   1.462  12.663
36198SOL    HW210492  13.099   1.347  12.627
36199SOL     OW10493   8.772  14.056   4.534
36199SOL    HW110494   8.725  13.977   4.561
36199SOL    HW210495   8.704  14.123   4.527
36200SOL     OW10496   4.647   3.715  12.215
36200SOL    HW110497   4.638   3.809  12.200
36200SOL    HW210498   4.575   3.693  12.275
36201SOL     OW10499   6.600  14.577  10.301
36201SOL    HW110500   6.657  14.648  10.274
36201SOL    HW210501   6.550  14.612  10.374
36202SOL     OW10502   5.517  12.015   1.936
36202SOL    HW110503   5.428  12.050   1.940
36202SOL    HW210504   5.561  12.072   1.873
36203SOL     OW10505   2.073  14.335   9.914
36203SOL    HW110506   2.084  14.242   9.932
36203SOL    HW210507   2.162  14.369   9.906
36204SOL     OW10508   7.001   5.804   9.442
36204SOL    HW110509   6.915   5.847   9.433
36204SOL    HW210510   7.036   5.838   9.524
36205SOL     OW10511   9.114  12.618   7.216
36205SOL    HW110512   9.165  12.672   7.277
36205SOL    HW210513   9.042  12.675   7.188
36206SOL     OW10514   8.353   6.103   1.911
36206SOL    HW110515   8.372   6.167   1.843
36206SOL    HW210516   8.416   6.032   1.896
36207SOL     OW10517   0.649  12.991   0.444
36207SOL    HW110518   0.680  12.903   0.425
36207SOL    HW210519   0.696  13.016   0.524
36208SOL     OW10520   0.977   3.626   5.131
36208SOL    HW110521   0.990   3.559   5.198
36208SOL    HW210522   0.942   3.701   5.179
36209SOL     OW10523   7.790   1.699   1.819
36209SOL    HW110524   7.840   1.770   1.860
36209SOL    HW210525   7.731   1.668   1.888
36210SOL     OW10526   6.958   1.627   7.555
36210SOL    HW110527   6.872   1.586   7.567
36210SOL    HW210528   6.987   1.597   7.469
36211SOL     OW10529   3.679  14.003   5.880
36211SOL    HW110530   3.650  14.003   5.971
36211SOL    HW210531   3.716  13.916   5.867
36212SOL     OW10532   8.837   7.128   1.569
36212SOL    HW110533   8.853   7.222   1.562
36212SOL    HW210534   8.772   7.120   1.640
36213SOL     OW10535  11.405  10.016  13.580
36213SOL    HW110536  11.490  10.002  13.622
36213SOL    HW210537  11.374  10.099  13.616
36214SOL     OW10538  14.207   8.779  14.361
36214SOL    HW110539  14.238   8.807  14.447
36214SOL    HW210540  14.162   8.856  14.325
36215SOL     OW10541  12.108  12.613   6.113
36215SOL    HW110542  12.144  12.701   6.123
36215SOL    HW210543  12.015  12.627   6.096
36216SOL     OW10544   3.539  10.866   4.763
36216SOL    HW110545   3.530  10.960   4.748
36216SOL    HW210546   3.633  10.852   4.775
36217SOL     OW10547   2.409   9.234   8.515
36217SOL    HW110548   2.407   9.227   8.610
36217SOL    HW210549   2.337   9.177   8.486
36218SOL     OW10550   9.112  13.476   2.194
36218SOL    HW110551   9.091  13.461   2.101
36218SOL    HW210552   9.093  13.392   2.236
36219SOL     OW10553   3.924   9.090   9.174
36219SOL    HW110554   3.975   9.110   9.252
36219SOL    HW210555   3.964   9.142   9.105
36220SOL     OW10556  11.396   6.677   4.323
36220SOL    HW110557  11.399   6.767   4.356
36220SOL    HW210558  11.323   6.636   4.370
36221SOL     OW10559  12.585   8.082   6.759
36221SOL    HW110560  12.645   8.007   6.752
36221SOL    HW210561  12.500   8.043   6.778
36222SOL     OW10562   3.003   7.470   2.648
36222SOL    HW110563   3.061   7.455   2.573
36222SOL    HW210564   2.918   7.436   2.621
36223SOL     OW10565  10.100  11.071   5.661
36223SOL    HW110566  10.190  11.101   5.675
36223SOL    HW210567  10.085  11.084   5.567
36224SOL     OW10568   9.210  13.844   5.419
36224SOL    HW110569   9.240  13.753   5.413
36224SOL    HW210570   9.289  13.895   5.433
36225SOL     OW10571  11.481   5.685   1.495
36225SOL    HW110572  11.449   5.774   1.510
36225SOL    HW210573  11.501   5.652   1.583
36226SOL     OW10574  14.171   8.747   0.140
36226SOL    HW110575  14.076   8.747   0.152
36226SOL    HW210576  14.205   8.704   0.218
36227SOL     OW10577  14.238   8.661   7.264
36227SOL    HW110578  14.167   8.666   7.328
36227SOL    HW210579  14.204   8.706   7.187
36228SOL     OW10580  11.387   3.910   8.787
36228SOL    HW110581  11.346   3.970   8.850
36228SOL    HW210582  11.326   3.836   8.782
36229SOL     OW10583  12.598  11.969   1.713
36229SOL    HW110584  12.682  11.961   1.668
36229SOL    HW210585  12.593  11.891   1.769
36230SOL     OW10586  14.859  12.177  11.148
36230SOL    HW110587   0.005  12.114  11.219
36230SOL    HW210588   0.005  12.262  11.187
36231SOL     OW10589  12.059  11.069  12.566
36231SOL    HW110590  12.030  11.094  12.479
36231SOL    HW210591  12.040  11.146  12.621
36232SOL     OW10592   1.052   1.104   6.617
36232SOL    HW110593   1.046   1.184   6.564
36232SOL    HW210594   1.108   1.046   6.566
36233SOL     OW10595  10.407  10.834   3.509
36233SOL    HW110596  10.316  10.862   3.525
36233SOL    HW210597  10.405  10.739   3.522
36234SOL     OW10598  11.345   0.867   9.491
36234SOL    HW110599  11.329   0.889   9.582
36234SOL    HW210600  11.261   0.883   9.447
36235SOL     OW10601   8.007  14.491   7.598
36235SOL    HW110602   7.991  14.436   7.521
36235SOL    HW210603   7.957  14.571   7.581
36236SOL     OW10604   8.593   1.787   3.754
36236SOL    HW110605   8.649   1.712   3.734
36236SOL    HW210606   8.567   1.820   3.668
36237SOL     OW10607   7.147   6.173   0.482
36237SOL    HW110608   7.239   6.187   0.502
36237SOL    HW210609   7.107   6.260   0.489
36238SOL     OW10610   9.982  13.834  10.205
36238SOL    HW110611  10.050  13.810  10.268
36238SOL    HW210612   9.918  13.883  10.257
36239SOL     OW10613   7.456  11.079   1.327
36239SOL    HW110614   7.369  11.105   1.355
36239SOL    HW210615   7.505  11.068   1.408
36240SOL     OW10616  12.192   8.106   4.279
36240SOL    HW110617  12.117   8.119   4.223
36240SOL    HW210618  12.180   8.019   4.316
36241SOL     OW10619   6.549   9.590  13.618
36241SOL    HW110620   6.567   9.677  13.582
36241SOL    HW210621   6.476   9.558  13.565
36242SOL     OW10622  10.643  13.567  13.106
36242SOL    HW110623  10.667  13.489  13.156
36242SOL    HW210624  10.567  13.602  13.153
36243SOL     OW10625  12.262   6.506   4.308
36243SOL    HW110626  12.331   6.451   4.345
36243SOL    HW210627  12.303   6.592   4.297
36244SOL     OW10628   7.742   5.690   7.376
36244SOL    HW110629   7.672   5.753   7.396
36244SOL    HW210630   7.715   5.651   7.293
36245SOL     OW10631  11.414   5.246   8.307
36245SOL    HW110632  11.458   5.162   8.320
36245SOL    HW210633  11.332   5.223   8.263
36246SOL     OW10634   8.370  12.593   6.219
36246SOL    HW110635   8.347  12.503   6.243
36246SOL    HW210636   8.302  12.647   6.260
36247SOL     OW10637   2.307   1.771   0.128
36247SOL    HW110638   2.279   1.861   0.112
36247SOL    HW210639   2.384   1.759   0.073
36248SOL     OW10640  12.486  11.701   0.503
36248SOL    HW110641  12.533  11.635   0.553
36248SOL    HW210642  12.399  11.705   0.544
36249SOL     OW10643   2.060   2.324   1.818
36249SOL    HW110644   1.991   2.258   1.822
36249SOL    HW210645   2.014   2.406   1.799
36250SOL     OW10646   1.041   7.663   9.147
36250SOL    HW110647   1.006   7.601   9.083
36250SOL    HW210648   1.070   7.608   9.220
36251SOL     OW10649   3.168  12.741  12.598
36251SOL    HW110650   3.210  12.656  12.613
36251SOL    HW210651   3.106  12.725  12.528
36252SOL     OW10652   2.149  13.097   1.682
36252SOL    HW110653   2.086  13.040   1.726
36252SOL    HW210654   2.233  13.052   1.690
36253SOL     OW10655  10.146   2.483   8.138
36253SOL    HW110656  10.237   2.456   8.141
36253SOL    HW210657  10.129   2.500   8.045
36254SOL     OW10658   6.709   4.709   4.517
36254SOL    HW110659   6.640   4.731   4.580
36254SOL    HW210660   6.769   4.783   4.520
36255SOL     OW10661   9.170   7.124   0.503
36255SOL    HW110662   9.159   7.127   0.408
36255SOL    HW210663   9.106   7.059   0.532
36256SOL     OW10664  11.951   2.053   6.269
36256SOL    HW110665  11.970   2.083   6.357
36256SOL    HW210666  11.968   2.128   6.213
36257SOL     OW10667  12.533   2.895   5.176
36257SOL    HW110668  12.440   2.878   5.189
36257SOL    HW210669  12.577   2.828   5.229
36258SOL     OW10670  13.238   9.753  13.412
36258SOL    HW110671  13.326   9.776  13.383
36258SOL    HW210672  13.222   9.810  13.488
36259SOL     OW10673   5.817  13.781  10.948
36259SOL    HW110674   5.864  13.797  11.030
36259SOL    HW210675   5.740  13.837  10.953
36260SOL     OW10676  11.768   6.856   1.855
36260SOL    HW110677  11.857   6.826   1.876
36260SOL    HW210678  11.712   6.805   1.913
36261SOL     OW10679   9.949  14.607   9.095
36261SOL    HW110680   9.906  14.528   9.126
36261SOL    HW210681   9.989  14.644   9.174
36262SOL     OW10682   4.173   2.272  13.992
36262SOL    HW110683   4.263   2.298  13.976
36262SOL    HW210684   4.173   2.177  13.977
36263SOL     OW10685  13.474   0.846   3.013
36263SOL    HW110686  13.480   0.940   3.029
36263SOL    HW210687  13.515   0.806   3.090
36264SOL     OW10688   1.867   5.319   4.927
36264SOL    HW110689   1.814   5.399   4.922
36264SOL    HW210690   1.919   5.319   4.846
36265SOL     OW10691   6.649   2.758  13.270
36265SOL    HW110692   6.615   2.682  13.224
36265SOL    HW210693   6.673   2.819  13.200
36266SOL     OW10694  14.300   8.456   9.463
36266SOL    HW110695  14.262   8.398   9.530
36266SOL    HW210696  14.252   8.538   9.473
36267SOL     OW10697   4.469   4.038   0.476
36267SOL    HW110698   4.548   4.091   0.467
36267SOL    HW210699   4.454   4.032   0.570
36268SOL     OW10700   2.558  11.414   0.889
36268SOL    HW110701   2.581  11.493   0.840
36268SOL    HW210702   2.465  11.426   0.912
36269SOL     OW10703  10.977   2.963   0.503
36269SOL    HW110704  10.895   2.926   0.536
36269SOL    HW210705  11.018   3.001   0.580
36270SOL     OW10706  12.571   7.358   7.291
36270SOL    HW110707  12.568   7.385   7.199
36270SOL    HW210708  12.525   7.274   7.292
36271SOL     OW10709   1.085   9.551   2.400
36271SOL    HW110710   1.128   9.632   2.428
36271SOL    HW210711   1.009   9.580   2.350
36272SOL     OW10712   3.942   5.948  12.839
36272SOL    HW110713   3.974   6.006  12.771
36272SOL    HW210714   4.011   5.949  12.906
36273SOL     OW10715   2.122   5.440  14.056
36273SOL    HW110716   2.116   5.460  13.962
36273SOL    HW210717   2.182   5.365  14.061
36274SOL     OW10718   2.255   4.885   1.175
36274SOL    HW110719   2.349   4.870   1.181
36274SOL    HW210720   2.246   4.969   1.130
36275SOL     OW10721  14.615   0.354   4.296
36275SOL    HW110722  14.553   0.409   4.343
36275SOL    HW210723  14.615   0.389   4.207
36276SOL     OW10724   4.747   5.087   0.662
36276SOL    HW110725   4.765   5.063   0.752
36276SOL    HW210726   4.823   5.058   0.613
36277SOL     OW10727  11.238  13.761   7.794
36277SOL    HW110728  11.321  13.805   7.814
36277SOL    HW210729  11.260  13.668   7.790
36278SOL     OW10730   0.703   6.061   6.861
36278SOL    HW110731   0.798   6.066   6.876
36278SOL    HW210732   0.674   5.988   6.916
36279SOL     OW10733   9.743   7.368   6.519
36279SOL    HW110734   9.754   7.300   6.586
36279SOL    HW210735   9.655   7.353   6.484
36280SOL     OW10736   1.071   1.775   5.108
36280SOL    HW110737   1.005   1.830   5.067
36280SOL    HW210738   1.026   1.734   5.182
36281SOL     OW10739   0.249   2.473   7.116
36281SOL    HW110740   0.157   2.495   7.099
36281SOL    HW210741   0.298   2.524   7.052
36282SOL     OW10742   8.356   4.037   2.834
36282SOL    HW110743   8.434   4.092   2.824
36282SOL    HW210744   8.324   4.025   2.744
36283SOL     OW10745   9.997   3.092  14.484
36283SOL    HW110746  10.050   3.044  14.549
36283SOL    HW210747   9.910   3.054  14.492
36284SOL     OW10748  14.813   3.930   4.257
36284SOL    HW110749  14.796   4.024   4.264
36284SOL    HW210750  14.727   3.889   4.268
36285SOL     OW10751  14.092   1.021   8.382
36285SOL    HW110752  14.099   1.096   8.441
36285SOL    HW210753  14.001   0.992   8.390
36286SOL     OW10754  12.336  14.400   0.164
36286SOL    HW110755  12.260  14.362   0.118
36286SOL    HW210756  12.298  14.441   0.241
36287SOL     OW10757   3.522   1.933  12.297
36287SOL    HW110758   3.572   1.895  12.224
36287SOL    HW210759   3.539   2.027  12.290
36288SOL     OW10760  13.471   5.491   7.393
36288SOL    HW110761  13.421   5.472   7.314
36288SOL    HW210762  13.549   5.435   7.386
36289SOL     OW10763  10.332   7.907   9.714
36289SOL    HW110764  10.369   7.982   9.760
36289SOL    HW210765  10.248   7.891   9.758
36290SOL     OW10766  13.088  10.577  12.662
36290SOL    HW110767  13.093  10.485  12.687
36290SOL    HW210768  12.996  10.590  12.639
36291SOL     OW10769   1.032  12.900   8.958
36291SOL    HW110770   1.050  12.994   8.953
36291SOL    HW210771   0.962  12.885   8.895
36292SOL     OW10772  12.427   2.453   5.765
36292SOL    HW110773  12.366   2.383   5.744
36292SOL    HW210774  12.398   2.528   5.712
36293SOL     OW10775   9.959   5.487   0.090
36293SOL    HW110776   9.941   5.426   0.019
36293SOL    HW210777   9.990   5.566   0.046
36294SOL     OW10778   2.191  11.283   9.498
36294SOL    HW110779   2.106  11.242   9.512
36294SOL    HW210780   2.193  11.302   9.404
36295SOL     OW10781  11.959  10.522  11.209
36295SOL    HW110782  11.962  10.436  11.168
36295SOL    HW210783  11.964  10.504  11.303
36296SOL     OW10784  11.916   1.598   3.383
36296SOL    HW110785  11.907   1.542   3.306
36296SOL    HW210786  11.836   1.650   3.384
36297SOL     OW10787   4.562   2.972  10.926
36297SOL    HW110788   4.477   3.015  10.937
36297SOL    HW210789   4.543   2.878  10.933
36298SOL     OW10790   9.163   1.451   6.077
36298SOL    HW110791   9.138   1.503   6.153
36298SOL    HW210792   9.250   1.481   6.054
36299SOL     OW10793   9.991   9.977  10.647
36299SOL    HW110794  10.001  10.072  10.649
36299SOL    HW210795  10.058   9.944  10.707
36300SOL     OW10796   5.129   0.062  11.684
36300SOL    HW110797   5.078   0.019  11.615
36300SOL    HW210798   5.064   0.113  11.733
36301SOL     OW10799   9.106   9.987   9.986
36301SOL    HW110800   9.075  10.034   9.909
36301SOL    HW210801   9.118   9.897   9.956
36302SOL     OW10802   5.524   5.227   7.686
36302SOL    HW110803   5.545   5.186   7.769
36302SOL    HW210804   5.512   5.320   7.707
36303SOL     OW10805  12.625   1.235  12.020
36303SOL    HW110806  12.702   1.243  11.964
36303SOL    HW210807  12.642   1.296  12.092
36304SOL     OW10808   8.269  10.032  11.057
36304SOL    HW110809   8.226  10.099  11.111
36304SOL    HW210810   8.282   9.959  11.117
36305SOL     OW10811  14.583  13.298  14.693
36305SOL    HW110812  14.624  13.382  14.712
36305SOL    HW210813  14.586  13.250  14.775
36306SOL     OW10814   2.425  10.302   1.520
36306SOL    HW110815   2.430  10.397   1.511
36306SOL    HW210816   2.475  10.269   1.445
36307SOL     OW10817   4.567   6.107  12.443
36307SOL    HW110818   4.487   6.156  12.426
36307SOL    HW210819   4.629   6.138  12.376
36308SOL     OW10820   7.950   8.686   8.886
36308SOL    HW110821   8.037   8.715   8.911
36308SOL    HW210822   7.962   8.597   8.854
36309SOL     OW10823   4.994  10.436   9.010
36309SOL    HW110824   4.974  10.409   8.921
36309SOL    HW210825   5.090  10.446   9.012
36310SOL     OW10826  10.554  14.870   6.053
36310SOL    HW110827  10.490   0.049   6.002
36310SOL    HW210828  10.579  14.799   5.994
36311SOL     OW10829  10.824  12.755  12.235
36311SOL    HW110830  10.751  12.766  12.296
36311SOL    HW210831  10.841  12.661  12.234
36312SOL     OW10832   5.046   8.128   1.122
36312SOL    HW110833   5.094   8.049   1.100
36312SOL    HW210834   5.078   8.194   1.060
36313SOL     OW10835   8.946   0.397  12.891
36313SOL    HW110836   8.987   0.455  12.954
36313SOL    HW210837   9.012   0.384  12.823
36314SOL     OW10838   7.055  13.427   3.509
36314SOL    HW110839   6.967  13.409   3.474
36314SOL    HW210840   7.046  13.411   3.603
36315SOL     OW10841   8.505   3.524   5.720
36315SOL    HW110842   8.456   3.498   5.799
36315SOL    HW210843   8.557   3.447   5.698
36316SOL     OW10844  12.009   6.653  10.753
36316SOL    HW110845  11.974   6.597  10.683
36316SOL    HW210846  12.066   6.715  10.707
36317SOL     OW10847   4.678   1.409   3.133
36317SOL    HW110848   4.707   1.439   3.219
36317SOL    HW210849   4.753   1.362   3.097
36318SOL     OW10850   6.153   2.779  14.708
36318SOL    HW110851   6.182   2.818  14.790
36318SOL    HW210852   6.103   2.701  14.734
36319SOL     OW10853   8.636   6.071   4.957
36319SOL    HW110854   8.564   6.132   4.974
36319SOL    HW210855   8.595   5.999   4.908
36320SOL     OW10856   5.669   6.450   8.078
36320SOL    HW110857   5.755   6.427   8.044
36320SOL    HW210858   5.626   6.366   8.093
36321SOL     OW10859   0.111   7.072   5.970
36321SOL    HW110860   0.141   7.096   6.058
36321SOL    HW210861   0.168   7.122   5.911
36322SOL     OW10862   0.809  14.719  12.818
36322SOL    HW110863   0.894  14.742  12.854
36322SOL    HW210864   0.803  14.768  12.736
36323SOL     OW10865   0.516   6.888   0.910
36323SOL    HW110866   0.457   6.831   0.861
36323SOL    HW210867   0.598   6.884   0.861
36324SOL     OW10868  14.483   6.275   8.833
36324SOL    HW110869  14.492   6.350   8.892
36324SOL    HW210870  14.429   6.213   8.883
36325SOL     OW10871   6.749   0.015   5.456
36325SOL    HW110872   6.841   0.043   5.447
36325SOL    HW210873   6.746  14.844   5.541
36326SOL     OW10874   5.773  11.469  10.427
36326SOL    HW110875   5.722  11.480  10.507
36326SOL    HW210876   5.863  11.488  10.453
36327SOL     OW10877   0.041   0.778   1.030
36327SOL    HW110878   0.119   0.803   1.081
36327SOL    HW210879  14.840   0.785   1.091
36328SOL     OW10880   3.305  11.357   6.227
36328SOL    HW110881   3.397  11.376   6.249
36328SOL    HW210882   3.256  11.381   6.306
36329SOL     OW10883   9.489  10.299   8.865
36329SOL    HW110884   9.526  10.294   8.777
36329SOL    HW210885   9.554  10.347   8.916
36330SOL     OW10886   0.403   6.742  13.296
36330SOL    HW110887   0.344   6.815  13.276
36330SOL    HW210888   0.361   6.666  13.254
36331SOL     OW10889   1.778   3.574   7.502
36331SOL    HW110890   1.869   3.545   7.500
36331SOL    HW210891   1.748   3.557   7.591
36332SOL     OW10892   6.336   9.924  12.590
36332SOL    HW110893   6.344  10.018  12.605
36332SOL    HW210894   6.243   9.911  12.568
36333SOL     OW10895   3.417   3.594   7.790
36333SOL    HW110896   3.461   3.666   7.834
36333SOL    HW210897   3.351   3.563   7.852
36334SOL     OW10898   9.972   0.774  13.667
36334SOL    HW110899   9.895   0.733  13.629
36334SOL    HW210900   9.941   0.859  13.700
36335SOL     OW10901  10.123  11.169   9.207
36335SOL    HW110902  10.184  11.145   9.277
36335SOL    HW210903  10.159  11.127   9.129
36336SOL     OW10904   0.346  10.443   8.763
36336SOL    HW110905   0.283  10.445   8.834
36336SOL    HW210906   0.348  10.533   8.730
36337SOL     OW10907   4.132   3.922   5.345
36337SOL    HW110908   4.143   4.017   5.347
36337SOL    HW210909   4.094   3.904   5.259
36338SOL     OW10910  10.088   2.637  10.781
36338SOL    HW110911  10.105   2.717  10.732
36338SOL    HW210912  10.011   2.598  10.741
36339SOL     OW10913   8.109   8.841  13.649
36339SOL    HW110914   8.165   8.918  13.664
36339SOL    HW210915   8.170   8.767  13.652
36340SOL     OW10916   0.534  11.632  14.744
36340SOL    HW110917   0.606  11.695  14.750
36340SOL    HW210918   0.517  11.607  14.835
36341SOL     OW10919   9.302   4.439  14.451
36341SOL    HW110920   9.358   4.371  14.487
36341SOL    HW210921   9.361   4.494  14.400
36342SOL     OW10922   4.791   6.351   5.465
36342SOL    HW110923   4.875   6.305   5.460
36342SOL    HW210924   4.793   6.396   5.550
36343SOL     OW10925  10.426  10.384  10.905
36343SOL    HW110926  10.368  10.338  10.967
36343SOL    HW210927  10.448  10.466  10.949
36344SOL     OW10928   2.763   8.138   3.752
36344SOL    HW110929   2.757   8.113   3.660
36344SOL    HW210930   2.695   8.204   3.763
36345SOL     OW10931   8.691   0.005   3.697
36345SOL    HW110932   8.667  14.845   3.784
36345SOL    HW210933   8.621  14.845   3.640
36346SOL     OW10934  11.026   1.448  13.283
36346SOL    HW110935  11.052   1.509  13.352
36346SOL    HW210936  11.009   1.504  13.207
36347SOL     OW10937  10.965   8.718   4.710
36347SOL    HW110938  10.905   8.688   4.779
36347SOL    HW210939  10.940   8.667   4.633
36348SOL     OW10940   8.084   1.507   1.425
36348SOL    HW110941   8.162   1.468   1.464
36348SOL    HW210942   8.023   1.517   1.498
36349SOL     OW10943   4.341  14.868   8.212
36349SOL    HW110944   4.267  14.816   8.243
36349SOL    HW210945   4.308   0.086   8.209
36350SOL     OW10946   6.898   7.008   3.791
36350SOL    HW110947   6.856   7.034   3.709
36350SOL    HW210948   6.849   6.929   3.818
36351SOL     OW10949   7.371  14.119  11.919
36351SOL    HW110950   7.349  14.202  11.962
36351SOL    HW210951   7.458  14.133  11.883
36352SOL     OW10952  11.277   8.272  14.731
36352SOL    HW110953  11.210   8.203  14.732
36352SOL    HW210954  11.275   8.306  14.642
36353SOL     OW10955   6.380   4.901  13.841
36353SOL    HW110956   6.451   4.871  13.897
36353SOL    HW210957   6.378   4.838  13.769
36354SOL     OW10958   9.307   0.409   6.917
36354SOL    HW110959   9.294   0.372   6.829
36354SOL    HW210960   9.400   0.428   6.922
36355SOL     OW10961   1.343  13.521  10.212
36355SOL    HW110962   1.413  13.576  10.176
36355SOL    HW210963   1.378  13.432  10.209
36356SOL     OW10964  10.611  14.124   8.642
36356SOL    HW110965  10.674  14.155   8.707
36356SOL    HW210966  10.588  14.202   8.591
36357SOL     OW10967   4.715   3.115  10.140
36357SOL    HW110968   4.776   3.182  10.170
36357SOL    HW210969   4.628   3.149  10.161
36358SOL     OW10970   3.666  10.500   4.452
36358SOL    HW110971   3.605  10.518   4.381
36358SOL    HW210972   3.615  10.450   4.516
36359SOL     OW10973   7.800   1.810   8.394
36359SOL    HW110974   7.810   1.853   8.309
36359SOL    HW210975   7.777   1.719   8.372
36360SOL     OW10976   3.098  13.608  11.128
36360SOL    HW110977   3.174  13.657  11.096
36360SOL    HW210978   3.056  13.667  11.190
36361SOL     OW10979   1.658  14.678   9.901
36361SOL    HW110980   1.604  14.743   9.856
36361SOL    HW210981   1.619  14.594   9.879
36362SOL     OW10982   8.085  11.080   6.134
36362SOL    HW110983   7.997  11.045   6.123
36362SOL    HW210984   8.085  11.162   6.084
36363SOL     OW10985   7.774   7.506   1.337
36363SOL    HW110986   7.801   7.533   1.249
36363SOL    HW210987   7.679   7.520   1.338
36364SOL     OW10988   8.497   8.995   5.820
36364SOL    HW110989   8.461   8.982   5.733
36364SOL    HW210990   8.437   8.948   5.878
36365SOL     OW10991   6.701   3.393   7.632
36365SOL    HW110992   6.614   3.391   7.671
36365SOL    HW210993   6.761   3.393   7.707
36366SOL     OW10994   9.549  12.170  14.023
36366SOL    HW110995   9.630  12.219  14.010
36366SOL    HW210996   9.569  12.106  14.092
36367SOL     OW10997   4.180   1.618   0.402
36367SOL    HW110998   4.220   1.555   0.462
36367SOL    HW210999   4.253   1.668   0.367
36368SOL     OW11000   2.286   6.665   2.428
36368SOL    HW111001   2.224   6.734   2.450
36368SOL    HW211002   2.267   6.643   2.337
36369SOL     OW11003   1.905   2.795  10.742
36369SOL    HW111004   1.920   2.729  10.811
36369SOL    HW211005   1.831   2.847  10.775
36370SOL     OW11006  11.873  12.901  11.605
36370SOL    HW111007  11.951  12.884  11.658
36370SOL    HW211008  11.803  12.915  11.669
36371SOL     OW11009   1.061   9.897   1.097
36371SOL    HW111010   1.046   9.981   1.052
36371SOL    HW211011   0.974   9.869   1.125
36372SOL     OW11012   4.580   2.130   6.394
36372SOL    HW111013   4.662   2.179   6.395
36372SOL    HW211014   4.547   2.138   6.305
36373SOL     OW11015   0.666   3.755   4.300
36373SOL    HW111016   0.575   3.770   4.274
36373SOL    HW211017   0.695   3.682   4.244
36374SOL     OW11018  14.594   6.504   8.961
36374SOL    HW111019  14.675   6.547   8.933
36374SOL    HW211020  14.526   6.570   8.948
36375SOL     OW11021   3.659   7.846   2.444
36375SOL    HW111022   3.703   7.776   2.397
36375SOL    HW211023   3.592   7.802   2.497
36376SOL     OW11024   9.009   4.676   7.286
36376SOL    HW111025   9.008   4.769   7.266
36376SOL    HW211026   8.935   4.663   7.345
36377SOL     OW11027  10.955   5.611   7.658
36377SOL    HW111028  10.988   5.673   7.593
36377SOL    HW211029  10.897   5.662   7.714
36378SOL     OW11030   1.424  10.085   3.945
36378SOL    HW111031   1.463  10.112   3.863
36378SOL    HW211032   1.485  10.021   3.981
36379SOL     OW11033   5.522   2.305   2.947
36379SOL    HW111034   5.498   2.382   2.896
36379SOL    HW211035   5.459   2.303   3.019
36380SOL     OW11036   9.292  11.458   3.438
36380SOL    HW111037   9.321  11.449   3.347
36380SOL    HW211038   9.347  11.397   3.487
36381SOL     OW11039  10.232  14.796  14.426
36381SOL    HW111040  10.245  14.763  14.337
36381SOL    HW211041  10.205  14.720  14.477
36382SOL     OW11042  14.668  10.677   2.435
36382SOL    HW111043  14.661  10.755   2.380
36382SOL    HW211044  14.746  10.632   2.403
36383SOL     OW11045   3.012  11.315   2.316
36383SOL    HW111046   2.919  11.331   2.333
36383SOL    HW211047   3.024  11.338   2.224
36384SOL     OW11048  12.309   0.803   1.260
36384SOL    HW111049  12.226   0.796   1.308
36384SOL    HW211050  12.283   0.829   1.171
36385SOL     OW11051   5.697   0.230  13.037
36385SOL    HW111052   5.782   0.270  13.021
36385SOL    HW211053   5.705   0.141  13.003
36386SOL     OW11054   4.081   0.855   0.743
36386SOL    HW111055   4.059   0.849   0.836
36386SOL    HW211056   4.028   0.787   0.701
36387SOL     OW11057   4.260  11.862  14.853
36387SOL    HW111058   4.351  11.888  14.867
36387SOL    HW211059   4.236  11.905  14.770
36388SOL     OW11060   3.472   1.836   5.991
36388SOL    HW111061   3.390   1.829   6.041
36388SOL    HW211062   3.541   1.818   6.056
36389SOL     OW11063   1.308  10.661   7.499
36389SOL    HW111064   1.254  10.695   7.571
36389SOL    HW211065   1.357  10.738   7.468
36390SOL     OW11066  10.518   2.600   9.636
36390SOL    HW111067  10.511   2.585   9.730
36390SOL    HW211068  10.586   2.667   9.627
36391SOL     OW11069  12.864   0.782   2.878
36391SOL    HW111070  12.939   0.770   2.819
36391SOL    HW211071  12.831   0.869   2.857
36392SOL     OW11072   4.419   7.440   5.909
36392SOL    HW111073   4.356   7.420   5.840
36392SOL    HW211074   4.392   7.527   5.941
36393SOL     OW11075  10.314   7.120   2.313
36393SOL    HW111076  10.262   7.147   2.237
36393SOL    HW211077  10.394   7.084   2.275
36394SOL     OW11078   6.610   8.822   4.223
36394SOL    HW111079   6.567   8.811   4.138
36394SOL    HW211080   6.548   8.786   4.285
36395SOL     OW11081   6.727   3.663   9.086
36395SOL    HW111082   6.693   3.752   9.088
36395SOL    HW211083   6.727   3.636   9.178
36396SOL     OW11084  14.857  13.279   2.604
36396SOL    HW111085  14.798  13.205   2.619
36396SOL    HW211086  14.831  13.344   2.669
36397SOL     OW11087  13.712   9.279  13.666
36397SOL    HW111088  13.671   9.214  13.722
36397SOL    HW211089  13.668   9.361  13.689
36398SOL     OW11090   5.836   5.428   2.397
36398SOL    HW111091   5.837   5.435   2.493
36398SOL    HW211092   5.915   5.476   2.369
36399SOL     OW11093  13.500   3.436   4.797
36399SOL    HW111094  13.483   3.399   4.711
36399SOL    HW211095  13.595   3.444   4.801
36400SOL     OW11096  13.903  11.030   3.560
36400SOL    HW111097  13.924  10.964   3.626
36400SOL    HW211098  13.985  11.078   3.548
36401SOL     OW11099   9.523   3.482   2.707
36401SOL    HW111100   9.474   3.563   2.719
36401SOL    HW211101   9.614   3.505   2.726
36402SOL     OW11102   0.240   0.153   9.071
36402SOL    HW111103   0.313   0.128   9.014
36402SOL    HW211104   0.188   0.214   9.019
36403SOL     OW11105  13.860  13.947   0.340
36403SOL    HW111106  13.839  13.867   0.389
36403SOL    HW211107  13.897  14.006   0.405
36404SOL     OW11108   6.700   8.415   2.653
36404SOL    HW111109   6.793   8.437   2.650
36404SOL    HW211110   6.698   8.321   2.671
36405SOL     OW11111  12.491  12.373   2.470
36405SOL    HW111112  12.448  12.458   2.480
36405SOL    HW211113  12.499  12.361   2.375
36406SOL     OW11114  12.304   7.191  13.494
36406SOL    HW111115  12.392   7.165  13.521
36406SOL    HW211116  12.293   7.150  13.408
36407SOL     OW11117  14.843  11.636   7.481
36407SOL    HW111118  14.789  11.702   7.523
36407SOL    HW211119   0.057  11.677   7.472
36408SOL     OW11120  10.312  10.708  13.616
36408SOL    HW111121  10.400  10.682  13.590
36408SOL    HW211122  10.302  10.676  13.705
36409SOL     OW11123   1.378   4.236   5.343
36409SOL    HW111124   1.355   4.325   5.316
36409SOL    HW211125   1.358   4.234   5.437
36410SOL     OW11126  12.457   9.447   0.436
36410SOL    HW111127  12.429   9.429   0.526
36410SOL    HW211128  12.468   9.542   0.432
36411SOL     OW11129   8.064   2.477  12.977
36411SOL    HW111130   8.012   2.487  13.056
36411SOL    HW211131   8.130   2.546  12.982
36412SOL     OW11132  13.630   5.442  14.269
36412SOL    HW111133  13.654   5.412  14.181
36412SOL    HW211134  13.539   5.415  14.280
36413SOL     OW11135  13.228   1.499   6.706
36413SOL    HW111136  13.299   1.498   6.770
36413SOL    HW211137  13.177   1.421   6.725
36414SOL     OW11138   2.905   5.595   3.333
36414SOL    HW111139   2.829   5.593   3.391
36414SOL    HW211140   2.942   5.507   3.340
36415SOL     OW11141   6.729   0.263  14.592
36415SOL    HW111142   6.744   0.352  14.560
36415SOL    HW211143   6.634   0.251  14.586
36416SOL     OW11144   4.611  12.073   2.813
36416SOL    HW111145   4.551  12.002   2.837
36416SOL    HW211146   4.566  12.120   2.743
36417SOL     OW11147   8.199  14.123  14.218
36417SOL    HW111148   8.147  14.045  14.240
36417SOL    HW211149   8.246  14.144  14.300
36418SOL     OW11150   2.890   1.620  10.713
36418SOL    HW111151   2.966   1.623  10.770
36418SOL    HW211152   2.927   1.610  10.625
36419SOL     OW11153   2.529   5.084   0.467
36419SOL    HW111154   2.460   5.017   0.466
36419SOL    HW211155   2.514   5.135   0.388
36420SOL     OW11156   6.646  14.692   3.093
36420SOL    HW111157   6.608  14.777   3.112
36420SOL    HW211158   6.711  14.709   3.025
36421SOL     OW11159   1.404   7.610  11.621
36421SOL    HW111160   1.320   7.582  11.656
36421SOL    HW211161   1.446   7.530  11.590
36422SOL     OW11162  10.961  12.399  11.795
36422SOL    HW111163  10.893  12.395  11.863
36422SOL    HW211164  10.913  12.418  11.714
36423SOL     OW11165   7.835   0.350  11.413
36423SOL    HW111166   7.795   0.277  11.367
36423SOL    HW211167   7.817   0.426  11.357
36424SOL     OW11168   7.837   4.572  11.323
36424SOL    HW111169   7.757   4.521  11.337
36424SOL    HW211170   7.807   4.654  11.283
36425SOL     OW11171   5.952   4.537   2.600
36425SOL    HW111172   5.881   4.522   2.662
36425SOL    HW211173   6.010   4.461   2.610
36426SOL     OW11174  12.949  12.384  10.757
36426SOL    HW111175  12.968  12.291  10.748
36426SOL    HW211176  12.948  12.400  10.851
36427SOL     OW11177   4.058  13.031   6.068
36427SOL    HW111178   4.019  13.041   5.981
36427SOL    HW211179   4.144  13.074   6.061
36428SOL     OW11180   1.350  11.184  14.588
36428SOL    HW111181   1.270  11.223  14.552
36428SOL    HW211182   1.417  11.252  14.575
36429SOL     OW11183  13.778  11.287   0.728
36429SOL    HW111184  13.766  11.360   0.667
36429SOL    HW211185  13.691  11.249   0.738
36430SOL     OW11186  12.469   0.995   1.989
36430SOL    HW111187  12.544   1.022   1.936
36430SOL    HW211188  12.410   0.953   1.926
36431SOL     OW11189  14.053   6.348   7.584
36431SOL    HW111190  14.070   6.419   7.522
36431SOL    HW211191  14.137   6.303   7.594
36432SOL     OW11192  12.135  11.193   1.002
36432SOL    HW111193  12.074  11.209   0.930
36432SOL    HW211194  12.105  11.250   1.072
36433SOL     OW11195   6.338   0.541   7.589
36433SOL    HW111196   6.264   0.598   7.610
36433SOL    HW211197   6.299   0.455   7.576
36434SOL     OW11198   0.656  10.750  14.545
36434SOL    HW111199   0.577  10.726  14.594
36434SOL    HW211200   0.628  10.753  14.454
36435SOL     OW11201   4.244  14.591  11.947
36435SOL    HW111202   4.186  14.634  12.010
36435SOL    HW211203   4.198  14.511  11.922
36436SOL     OW11204   3.052  10.974   5.608
36436SOL    HW111205   3.095  10.993   5.691
36436SOL    HW211206   3.123  10.948   5.549
36437SOL     OW11207   9.684  13.389   9.735
36437SOL    HW111208   9.754  13.346   9.686
36437SOL    HW211209   9.714  13.479   9.748
36438SOL     OW11210  12.416   4.593  12.819
36438SOL    HW111211  12.439   4.631  12.904
36438SOL    HW211212  12.492   4.540  12.795
36439SOL     OW11213   8.927   5.744   8.445
36439SOL    HW111214   8.917   5.802   8.521
36439SOL    HW211215   9.016   5.761   8.414
36440SOL     OW11216   7.800   0.474   0.651
36440SOL    HW111217   7.831   0.384   0.637
36440SOL    HW211218   7.704   0.465   0.659
36441SOL     OW11219   0.518   4.142   2.964
36441SOL    HW111220   0.603   4.111   2.933
36441SOL    HW211221   0.531   4.235   2.981
36442SOL     OW11222  11.557  10.002  12.440
36442SOL    HW111223  11.551  10.008  12.345
36442SOL    HW211224  11.483   9.946  12.465
36443SOL     OW11225   2.378  13.454   8.199
36443SOL    HW111226   2.465  13.492   8.205
36443SOL    HW211227   2.325  13.504   8.261
36444SOL     OW11228  11.831   2.723   6.253
36444SOL    HW111229  11.876   2.781   6.191
36444SOL    HW211230  11.891   2.714   6.326
36445SOL     OW11231  14.705  14.667  10.975
36445SOL    HW111232  14.674  14.612  11.047
36445SOL    HW211233  14.718  14.753  11.014
36446SOL     OW11234  14.095  14.516   4.619
36446SOL    HW111235  14.088  14.431   4.664
36446SOL    HW211236  14.009  14.530   4.581
36447SOL     OW11237   7.784   9.718  14.714
36447SOL    HW111238   7.697   9.677  14.717
36447SOL    HW211239   7.811   9.723  14.805
36448SOL     OW11240   9.735  14.418   2.231
36448SOL    HW111241   9.648  14.404   2.268
36448SOL    HW211242   9.724  14.491   2.170
36449SOL     OW11243   0.764   5.585   9.594
36449SOL    HW111244   0.827   5.530   9.548
36449SOL    HW211245   0.781   5.674   9.562
36450SOL     OW11246  12.004  12.913   3.329
36450SOL    HW111247  11.979  12.931   3.419
36450SOL    HW211248  11.932  12.947   3.276
36451SOL     OW11249   3.511   4.985   4.644
36451SOL    HW111250   3.475   4.897   4.656
36451SOL    HW211251   3.586   4.972   4.586
36452SOL     OW11252  11.976   3.219  12.801
36452SOL    HW111253  11.970   3.202  12.895
36452SOL    HW211254  12.068   3.202  12.780
36453SOL     OW11255   7.425  10.606   8.268
36453SOL    HW111256   7.396  10.553   8.343
36453SOL    HW211257   7.442  10.542   8.199
36454SOL     OW11258   4.421   9.472   3.013
36454SOL    HW111259   4.495   9.530   3.027
36454SOL    HW211260   4.413   9.423   3.095
36455SOL     OW11261  13.413  12.578   7.866
36455SOL    HW111262  13.452  12.666   7.859
36455SOL    HW211263  13.433  12.550   7.956
36456SOL     OW11264   6.124   2.314   4.425
36456SOL    HW111265   6.050   2.266   4.463
36456SOL    HW211266   6.123   2.398   4.471
36457SOL     OW11267   6.721   1.952   4.523
36457SOL    HW111268   6.788   1.928   4.459
36457SOL    HW211269   6.671   1.872   4.537
36458SOL     OW11270  10.491  11.187   1.574
36458SOL    HW111271  10.422  11.254   1.570
36458SOL    HW211272  10.488  11.155   1.665
36459SOL     OW11273  12.735   2.390   6.105
36459SOL    HW111274  12.731   2.460   6.171
36459SOL    HW211275  12.644   2.368   6.088
36460SOL     OW11276   7.616   1.437   3.103
36460SOL    HW111277   7.657   1.368   3.154
36460SOL    HW211278   7.532   1.400   3.075
36461SOL     OW11279   0.247  13.648   2.641
36461SOL    HW111280   0.179  13.711   2.617
36461SOL    HW211281   0.231  13.629   2.733
36462SOL     OW11282  12.789   1.149   7.590
36462SOL    HW111283  12.850   1.164   7.518
36462SOL    HW211284  12.818   1.067   7.630
36463SOL     OW11285   8.459   2.690   6.375
36463SOL    HW111286   8.504   2.646   6.447
36463SOL    HW211287   8.521   2.689   6.302
36464SOL     OW11288   6.541  10.714   9.681
36464SOL    HW111289   6.528  10.777   9.753
36464SOL    HW211290   6.636  10.706   9.673
36465SOL     OW11291   5.943  10.707  11.663
36465SOL    HW111292   6.015  10.694  11.601
36465SOL    HW211293   5.889  10.629  11.654
36466SOL     OW11294  12.684   3.541   4.010
36466SOL    HW111295  12.737   3.508   4.083
36466SOL    HW211296  12.597   3.503   4.024
36467SOL     OW11297   1.875  13.732   2.154
36467SOL    HW111298   1.913  13.804   2.203
36467SOL    HW211299   1.944  13.706   2.093
36468SOL     OW11300   6.870   1.821  11.291
36468SOL    HW111301   6.861   1.835  11.386
36468SOL    HW211302   6.884   1.908  11.255
36469SOL     OW11303   3.000   0.865   2.397
36469SOL    HW111304   2.946   0.931   2.439
36469SOL    HW211305   2.950   0.784   2.404
36470SOL     OW11306  10.632   7.870   4.511
36470SOL    HW111307  10.697   7.931   4.476
36470SOL    HW211308  10.676   7.826   4.583
36471SOL     OW11309   9.899   2.168   8.487
36471SOL    HW111310   9.962   2.223   8.439
36471SOL    HW211311   9.929   2.172   8.578
36472SOL     OW11312   1.182  12.793   0.692
36472SOL    HW111313   1.274  12.776   0.713
36472SOL    HW211314   1.185  12.855   0.619
36473SOL     OW11315   0.206   4.177   8.995
36473SOL    HW111316   0.298   4.192   9.016
36473SOL    HW211317   0.169   4.143   9.077
36474SOL     OW11318   8.410   0.101  10.001
36474SOL    HW111319   8.338   0.128  10.059
36474SOL    HW211320   8.410   0.166   9.931
36475SOL     OW11321   1.350  14.349   0.640
36475SOL    HW111322   1.257  14.349   0.660
36475SOL    HW211323   1.358  14.403   0.562
36476SOL     OW11324   5.135   4.972   2.602
36476SOL    HW111325   5.213   4.918   2.618
36476SOL    HW211326   5.150   5.010   2.515
36477SOL     OW11327  12.784   9.459  10.357
36477SOL    HW111328  12.806   9.424  10.270
36477SOL    HW211329  12.866   9.497  10.388
36478SOL     OW11330   9.884   7.762   1.355
36478SOL    HW111331   9.890   7.812   1.436
36478SOL    HW211332   9.894   7.827   1.285
36479SOL     OW11333   3.124   6.901   1.997
36479SOL    HW111334   3.214   6.892   2.028
36479SOL    HW211335   3.131   6.898   1.901
36480SOL     OW11336  10.235   2.132  11.957
36480SOL    HW111337  10.244   2.161  12.048
36480SOL    HW211338  10.247   2.037  11.961
36481SOL     OW11339  13.504   5.559   6.994
36481SOL    HW111340  13.424   5.552   7.046
36481SOL    HW211341  13.532   5.468   6.982
36482SOL     OW11342  11.717   0.560   2.449
36482SOL    HW111343  11.753   0.595   2.531
36482SOL    HW211344  11.709   0.466   2.466
36483SOL     OW11345   0.230  12.727   6.365
36483SOL    HW111346   0.278  12.784   6.306
36483SOL    HW211347   0.141  12.764   6.367
36484SOL     OW11348   4.512  14.511   5.115
36484SOL    HW111349   4.430  14.531   5.070
36484SOL    HW211350   4.506  14.560   5.197
36485SOL     OW11351   1.143   4.108  12.943
36485SOL    HW111352   1.116   4.109  13.034
36485SOL    HW211353   1.064   4.084  12.894
36486SOL     OW11354  12.869   2.007  11.820
36486SOL    HW111355  12.941   1.954  11.852
36486SOL    HW211356  12.896   2.097  11.839
36487SOL     OW11357   0.050  12.895   2.435
36487SOL    HW111358   0.065  12.910   2.528
36487SOL    HW211359   0.029  12.981   2.400
36488SOL     OW11360   3.152   1.142   3.855
36488SOL    HW111361   3.163   1.146   3.760
36488SOL    HW211362   3.214   1.206   3.889
36489SOL     OW11363   3.047   1.840  12.384
36489SOL    HW111364   3.126   1.890  12.363
36489SOL    HW211365   3.058   1.757  12.338
36490SOL     OW11366   5.751   6.793   2.698
36490SOL    HW111367   5.705   6.838   2.627
36490SOL    HW211368   5.699   6.812   2.776
36491SOL     OW11369   9.449  11.120  10.584
36491SOL    HW111370   9.436  11.027  10.566
36491SOL    HW211371   9.499  11.122  10.666
36492SOL     OW11372   6.941   8.238   1.556
36492SOL    HW111373   6.966   8.330   1.569
36492SOL    HW211374   6.906   8.211   1.641
36493SOL     OW11375   4.623  14.675   7.579
36493SOL    HW111376   4.655  14.623   7.653
36493SOL    HW211377   4.671  14.641   7.503
36494SOL     OW11378  13.668  13.475   3.541
36494SOL    HW111379  13.755  13.463   3.581
36494SOL    HW211380  13.675  13.559   3.496
36495SOL     OW11381   2.588   1.651   3.155
36495SOL    HW111382   2.603   1.706   3.232
36495SOL    HW211383   2.612   1.706   3.081
36496SOL     OW11384   5.836   8.406   3.459
36496SOL    HW111385   5.926   8.375   3.455
36496SOL    HW211386   5.843   8.501   3.459
36497SOL     OW11387   5.885  14.679   6.410
36497SOL    HW111388   5.848  14.689   6.322
36497SOL    HW211389   5.858  14.759   6.456
36498SOL     OW11390   9.747   1.490   3.112
36498SOL    HW111391   9.764   1.477   3.206
36498SOL    HW211392   9.708   1.407   3.084
36499SOL     OW11393   1.259   8.164   0.350
36499SOL    HW111394   1.306   8.143   0.430
36499SOL    HW211395   1.284   8.255   0.330
36500SOL     OW11396   7.518  12.066  11.202
36500SOL    HW111397   7.607  12.063  11.166
36500SOL    HW211398   7.527  12.032  11.291
36501SOL     OW11399   2.506  10.888   7.130
36501SOL    HW111400   2.540  10.864   7.044
36501SOL    HW211401   2.561  10.841   7.192
36502SOL     OW11402  11.760   1.111   3.171
36502SOL    HW111403  11.819   1.079   3.238
36502SOL    HW211404  11.816   1.159   3.110
36503SOL     OW11405  10.912   1.764  13.820
36503SOL    HW111406  10.886   1.691  13.765
36503SOL    HW211407  11.008   1.761  13.822
36504SOL     OW11408  13.360  10.854   4.031
36504SOL    HW111409  13.339  10.940   4.068
36504SOL    HW211410  13.323  10.792   4.094
36505SOL     OW11411   5.189   5.349   3.922
36505SOL    HW111412   5.276   5.312   3.906
36505SOL    HW211413   5.180   5.419   3.857
36506SOL     OW11414  12.747   7.862  13.749
36506SOL    HW111415  12.726   7.943  13.795
36506SOL    HW211416  12.808   7.889  13.680
36507SOL     OW11417  12.434   0.341   0.258
36507SOL    HW111418  12.354   0.307   0.218
36507SOL    HW211419  12.478   0.264   0.294
36508SOL     OW11420   8.192   9.031   8.883
36508SOL    HW111421   8.170   8.959   8.825
36508SOL    HW211422   8.234   9.096   8.827
36509SOL     OW11423   2.074   8.742   7.499
36509SOL    HW111424   2.032   8.769   7.417
36509SOL    HW211425   2.014   8.678   7.537
36510SOL     OW11426   3.618   3.600   3.299
36510SOL    HW111427   3.662   3.663   3.242
36510SOL    HW211428   3.591   3.529   3.240
36511SOL     OW11429   4.799   1.710   3.796
36511SOL    HW111430   4.840   1.796   3.785
36511SOL    HW211431   4.764   1.712   3.885
36512SOL     OW11432  11.527   3.616   5.334
36512SOL    HW111433  11.437   3.639   5.312
36512SOL    HW211434  11.535   3.636   5.428
36513SOL     OW11435   0.069   0.487  13.259
36513SOL    HW111436   0.162   0.494  13.238
36513SOL    HW211437   0.037   0.418  13.201
36514SOL     OW11438   7.268  14.573  12.326
36514SOL    HW111439   7.302  14.563  12.415
36514SOL    HW211440   7.344  14.557  12.270
36515SOL     OW11441  11.371  10.748  11.592
36515SOL    HW111442  11.293  10.793  11.559
36515SOL    HW211443  11.348  10.720  11.680
36516SOL     OW11444   1.591   5.949   6.096
36516SOL    HW111445   1.582   5.875   6.157
36516SOL    HW211446   1.685   5.954   6.079
36517SOL     OW11447   8.609  12.202  14.134
36517SOL    HW111448   8.652  12.117  14.145
36517SOL    HW211449   8.624  12.225  14.042
36518SOL     OW11450   4.372   3.418  13.960
36518SOL    HW111451   4.362   3.487  14.026
36518SOL    HW211452   4.452   3.373  13.984
36519SOL     OW11453   8.109   8.643   2.766
36519SOL    HW111454   8.099   8.560   2.719
36519SOL    HW211455   8.082   8.623   2.855
36520SOL     OW11456   1.729  14.820   0.049
36520SOL    HW111457   1.698  14.865  14.842
36520SOL    HW211458   1.649  14.802   0.099
36521SOL     OW11459   7.543   8.647   4.829
36521SOL    HW111460   7.463   8.669   4.781
36521SOL    HW211461   7.546   8.709   4.901
36522SOL     OW11462   0.603  13.996   0.976
36522SOL    HW111463   0.662  14.006   0.902
36522SOL    HW211464   0.645  13.930   1.031
36523SOL     OW11465   5.523   7.896   6.570
36523SOL    HW111466   5.562   7.928   6.651
36523SOL    HW211467   5.585   7.831   6.537
36524SOL     OW11468  11.686  12.876   2.982
36524SOL    HW111469  11.776  12.855   2.957
36524SOL    HW211470  11.695  12.935   3.057
36525SOL     OW11471  13.740   5.759  10.353
36525SOL    HW111472  13.770   5.775  10.442
36525SOL    HW211473  13.713   5.845  10.321
36526SOL     OW11474  14.661   1.364  14.444
36526SOL    HW111475  14.685   1.437  14.500
36526SOL    HW211476  14.696   1.287  14.489
36527SOL     OW11477   9.555   0.657  10.932
36527SOL    HW111478   9.613   0.665  10.857
36527SOL    HW211479   9.470   0.632  10.895
36528SOL     OW11480   0.720   7.872   0.401
36528SOL    HW111481   0.761   7.840   0.481
36528SOL    HW211482   0.647   7.926   0.431
36529SOL     OW11483   6.905   0.278  12.752
36529SOL    HW111484   6.847   0.253  12.680
36529SOL    HW211485   6.857   0.255  12.831
36530SOL     OW11486   2.778   1.129   4.112
36530SOL    HW111487   2.759   1.133   4.019
36530SOL    HW211488   2.873   1.119   4.117
36531SOL     OW11489  13.650  11.007   3.530
36531SOL    HW111490  13.618  11.069   3.595
36531SOL    HW211491  13.744  10.999   3.548
36532SOL     OW11492   6.805  13.770   2.828
36532SOL    HW111493   6.749  13.698   2.800
36532SOL    HW211494   6.744  13.839   2.855
36533SOL     OW11495   0.181   5.465  10.768
36533SOL    HW111496   0.087   5.480  10.760
36533SOL    HW211497   0.212   5.459  10.678
36534SOL     OW11498   7.578  13.833   8.481
36534SOL    HW111499   7.513  13.902   8.466
36534SOL    HW211500   7.656  13.880   8.512
36535SOL     OW11501   0.284   0.538   4.685
36535SOL    HW111502   0.228   0.560   4.611
36535SOL    HW211503   0.236   0.470   4.732
36536SOL     OW11504   8.557  11.241   7.187
36536SOL    HW111505   8.536  11.327   7.223
36536SOL    HW211506   8.594  11.258   7.101
36537SOL     OW11507   0.873   7.591   7.908
36537SOL    HW111508   0.793   7.636   7.882
36537SOL    HW211509   0.902   7.637   7.987
36538SOL     OW11510  11.341  12.165   6.376
36538SOL    HW111511  11.416  12.225   6.370
36538SOL    HW211512  11.268  12.221   6.404
36539SOL     OW11513   3.205  14.071   4.943
36539SOL    HW111514   3.221  14.131   5.016
36539SOL    HW211515   3.192  14.127   4.867
36540SOL     OW11516  11.385  10.685  12.179
36540SOL    HW111517  11.292  10.669  12.192
36540SOL    HW211518  11.405  10.644  12.094
36541SOL     OW11519   9.136  13.012   6.218
36541SOL    HW111520   9.156  13.062   6.140
36541SOL    HW211521   9.067  13.062   6.262
36542SOL     OW11522  10.850   2.020   5.123
36542SOL    HW111523  10.910   2.040   5.051
36542SOL    HW211524  10.906   1.985   5.191
36543SOL     OW11525  13.306   1.471   5.720
36543SOL    HW111526  13.359   1.404   5.676
36543SOL    HW211527  13.364   1.547   5.727
36544SOL     OW11528   7.308  11.426   6.772
36544SOL    HW111529   7.386  11.399   6.724
36544SOL    HW211530   7.243  11.445   6.704
36545SOL     OW11531   0.127   0.395   8.557
36545SOL    HW111532   0.135   0.460   8.487
36545SOL    HW211533   0.156   0.313   8.517
36546SOL     OW11534  14.507   3.677  12.614
36546SOL    HW111535  14.567   3.628  12.670
36546SOL    HW211536  14.474   3.748  12.669
36547SOL     OW11537   9.349   3.500   5.435
36547SOL    HW111538   9.393   3.576   5.396
36547SOL    HW211539   9.415   3.461   5.493
36548SOL     OW11540   2.779   2.633  14.007
36548SOL    HW111541   2.768   2.538  13.996
36548SOL    HW211542   2.755   2.649  14.099
36549SOL     OW11543   4.438   9.465   5.553
36549SOL    HW111544   4.372   9.408   5.591
36549SOL    HW211545   4.486   9.500   5.628
36550SOL     OW11546   8.545  11.589  13.267
36550SOL    HW111547   8.521  11.682  13.261
36550SOL    HW211548   8.507  11.550  13.189
36551SOL     OW11549   6.365   2.697   4.954
36551SOL    HW111550   6.319   2.778   4.931
36551SOL    HW211551   6.300   2.628   4.941
36552SOL     OW11552   6.258  13.226   3.364
36552SOL    HW111553   6.259  13.254   3.456
36552SOL    HW211554   6.297  13.299   3.316
36553SOL     OW11555  11.114   3.456   8.086
36553SOL    HW111556  11.174   3.473   8.013
36553SOL    HW211557  11.159   3.494   8.162
36554SOL     OW11558   9.288   6.648   4.147
36554SOL    HW111559   9.344   6.715   4.187
36554SOL    HW211560   9.223   6.629   4.214
36555SOL     OW11561  11.654  10.800   6.393
36555SOL    HW111562  11.747  10.790   6.416
36555SOL    HW211563  11.653  10.798   6.298
36556SOL     OW11564   7.389   1.657   6.095
36556SOL    HW111565   7.354   1.717   6.161
36556SOL    HW211566   7.412   1.713   6.021
36557SOL     OW11567  11.004   4.187   3.937
36557SOL    HW111568  11.013   4.229   3.851
36557SOL    HW211569  10.927   4.229   3.975
36558SOL     OW11570   7.002   2.028   5.395
36558SOL    HW111571   6.932   2.081   5.357
36558SOL    HW211572   7.078   2.047   5.340
36559SOL     OW11573   7.005   7.506  11.738
36559SOL    HW111574   6.939   7.472  11.678
36559SOL    HW211575   7.046   7.429  11.777
36560SOL     OW11576   4.310   0.194   6.190
36560SOL    HW111577   4.217   0.195   6.210
36560SOL    HW211578   4.344   0.117   6.235
36561SOL     OW11579   1.731   1.471   2.572
36561SOL    HW111580   1.812   1.503   2.533
36561SOL    HW211581   1.758   1.432   2.656
36562SOL     OW11582  12.065   4.036  13.400
36562SOL    HW111583  12.140   4.047  13.459
36562SOL    HW211584  12.017   3.961  13.436
36563SOL     OW11585  14.494   1.805  12.434
36563SOL    HW111586  14.532   1.893  12.433
36563SOL    HW211587  14.561   1.750  12.475
36564SOL     OW11588   7.965   3.405  12.690
36564SOL    HW111589   7.975   3.452  12.607
36564SOL    HW211590   7.916   3.326  12.668
36565SOL     OW11591  13.653  11.600  13.988
36565SOL    HW111592  13.706  11.637  13.917
36565SOL    HW211593  13.712  11.598  14.064
36566SOL     OW11594   6.791   3.316  11.215
36566SOL    HW111595   6.806   3.271  11.298
36566SOL    HW211596   6.870   3.299  11.163
36567SOL     OW11597   4.439   9.930   6.998
36567SOL    HW111598   4.413  10.000   7.059
36567SOL    HW211599   4.520   9.962   6.959
36568SOL     OW11600   8.168   6.486   8.388
36568SOL    HW111601   8.095   6.531   8.432
36568SOL    HW211602   8.234   6.477   8.456
36569SOL     OW11603   1.397   8.373   0.674
36569SOL    HW111604   1.348   8.309   0.726
36569SOL    HW211605   1.472   8.397   0.728
36570SOL     OW11606   3.642   6.225   7.886
36570SOL    HW111607   3.720   6.213   7.940
36570SOL    HW211608   3.651   6.159   7.817
36571SOL     OW11609   8.153   2.262   4.652
36571SOL    HW111610   8.245   2.238   4.636
36571SOL    HW211611   8.104   2.185   4.622
36572SOL     OW11612   7.788   7.932   1.690
36572SOL    HW111613   7.829   7.932   1.603
36572SOL    HW211614   7.833   7.862   1.738
36573SOL     OW11615  11.270  11.998  10.760
36573SOL    HW111616  11.240  11.942  10.831
36573SOL    HW211617  11.223  11.968  10.683
36574SOL     OW11618   4.741   6.927  10.467
36574SOL    HW111619   4.720   7.014  10.500
36574SOL    HW211620   4.813   6.942  10.406
36575SOL     OW11621   6.368   0.635   4.819
36575SOL    HW111622   6.356   0.626   4.725
36575SOL    HW211623   6.374   0.545   4.851
36576SOL     OW11624   7.115   6.069   6.168
36576SOL    HW111625   7.117   6.089   6.075
36576SOL    HW211626   7.139   5.977   6.174
36577SOL     OW11627   4.835   0.134   3.250
36577SOL    HW111628   4.862   0.090   3.170
36577SOL    HW211629   4.750   0.095   3.271
36578SOL     OW11630  13.269  10.214   1.697
36578SOL    HW111631  13.180  10.193   1.670
36578SOL    HW211632  13.313  10.129   1.702
36579SOL     OW11633   1.246  12.742   9.065
36579SOL    HW111634   1.283  12.796   9.135
36579SOL    HW211635   1.184  12.800   9.020
36580SOL     OW11636   9.095   7.018   9.159
36580SOL    HW111637   9.143   7.069   9.224
36580SOL    HW211638   9.129   7.047   9.075
36581SOL     OW11639  11.738  13.899   6.231
36581SOL    HW111640  11.709  13.988   6.213
36581SOL    HW211641  11.708  13.848   6.155
36582SOL     OW11642  12.147  12.571   3.687
36582SOL    HW111643  12.160  12.495   3.630
36582SOL    HW211644  12.205  12.638   3.651
36583SOL     OW11645   9.635   5.621   6.812
36583SOL    HW111646   9.646   5.631   6.717
36583SOL    HW211647   9.722   5.598   6.844
36584SOL     OW11648   9.636   9.611   8.811
36584SOL    HW111649   9.658   9.555   8.886
36584SOL    HW211650   9.719   9.651   8.786
36585SOL     OW11651  10.448   2.187  12.574
36585SOL    HW111652  10.415   2.226  12.492
36585SOL    HW211653  10.370   2.159  12.620
36586SOL     OW11654  11.716   6.764  14.228
36586SOL    HW111655  11.786   6.807  14.179
36586SOL    HW211656  11.642   6.825  14.224
36587SOL     OW11657  14.857   9.639  12.978
36587SOL    HW111658   0.042   9.680  13.043
36587SOL    HW211659  14.770   9.673  12.998
36588SOL     OW11660   2.064  14.367   3.492
36588SOL    HW111661   1.978  14.375   3.534
36588SOL    HW211662   2.064  14.279   3.455
36589SOL     OW11663   1.233  11.436  14.711
36589SOL    HW111664   1.292  11.485  14.654
36589SOL    HW211665   1.289  11.401  14.780
36590SOL     OW11666  12.433   2.825   3.671
36590SOL    HW111667  12.489   2.770   3.618
36590SOL    HW211668  12.453   2.801   3.762
36591SOL     OW11669   0.207   7.012  14.236
36591SOL    HW111670   0.204   6.932  14.185
36591SOL    HW211671   0.178   6.986  14.324
36592SOL     OW11672   1.770   5.680   4.484
36592SOL    HW111673   1.762   5.614   4.415
36592SOL    HW211674   1.835   5.741   4.451
36593SOL     OW11675  10.616   1.823  10.028
36593SOL    HW111676  10.550   1.825  10.096
36593SOL    HW211677  10.658   1.737  10.037
36594SOL     OW11678   1.494   9.739  11.974
36594SOL    HW111679   1.496   9.828  12.010
36594SOL    HW211680   1.553   9.742  11.899
36595SOL     OW11681  13.093  10.054   8.770
36595SOL    HW111682  13.179  10.087   8.745
36595SOL    HW211683  13.055  10.125   8.823
36596SOL     OW11684  14.803   8.083  11.320
36596SOL    HW111685  14.795   8.169  11.361
36596SOL    HW211686  14.730   8.033  11.355
36597SOL     OW11687   2.657  10.712   1.170
36597SOL    HW111688   2.709  10.744   1.097
36597SOL    HW211689   2.665  10.780   1.237
36598SOL     OW11690   0.001  11.264   3.752
36598SOL    HW111691   0.034  11.273   3.663
36598SOL    HW211692  14.778  11.267   3.744
36599SOL     OW11693   7.921  12.561  11.726
36599SOL    HW111694   7.983  12.632  11.710
36599SOL    HW211695   7.972  12.494  11.770
36600SOL     OW11696  12.958   3.835   4.800
36600SOL    HW111697  12.906   3.761   4.833
36600SOL    HW211698  12.933   3.843   4.708
36601SOL     OW11699   9.832   7.382   7.696
36601SOL    HW111700   9.913   7.397   7.745
36601SOL    HW211701   9.851   7.416   7.608
36602SOL     OW11702   8.615   4.194  11.603
36602SOL    HW111703   8.539   4.250  11.584
36602SOL    HW211704   8.605   4.172  11.696
36603SOL     OW11705   6.330   4.294   7.123
36603SOL    HW111706   6.378   4.376   7.134
36603SOL    HW211707   6.243   4.312   7.158
36604SOL     OW11708  11.588   7.409   7.413
36604SOL    HW111709  11.573   7.338   7.351
36604SOL    HW211710  11.514   7.468   7.401
36605SOL     OW11711   9.711  10.223   6.859
36605SOL    HW111712   9.785  10.263   6.814
36605SOL    HW211713   9.744  10.138   6.889
36606SOL     OW11714  10.942   6.329  14.719
36606SOL    HW111715  10.857   6.288  14.736
36606SOL    HW211716  10.921   6.418  14.690
36607SOL     OW11717   1.052   7.258   2.205
36607SOL    HW111718   1.092   7.196   2.143
36607SOL    HW211719   1.037   7.206   2.284
36608SOL     OW11720   9.307   3.351  14.200
36608SOL    HW111721   9.303   3.258  14.220
36608SOL    HW211722   9.323   3.394  14.284
36609SOL     OW11723  13.341  12.861   1.833
36609SOL    HW111724  13.414  12.908   1.873
36609SOL    HW211725  13.299  12.815   1.905
36610SOL     OW11726   3.273   1.305   0.307
36610SOL    HW111727   3.291   1.375   0.371
36610SOL    HW211728   3.307   1.226   0.348
36611SOL     OW11729   6.019   6.446  13.134
36611SOL    HW111730   6.089   6.507  13.112
36611SOL    HW211731   5.993   6.409  13.049
36612SOL     OW11732  11.357   1.564   5.627
36612SOL    HW111733  11.308   1.626   5.680
36612SOL    HW211734  11.414   1.518   5.689
36613SOL     OW11735  13.202  11.830   9.477
36613SOL    HW111736  13.246  11.885   9.412
36613SOL    HW211737  13.208  11.880   9.558
36614SOL     OW11738  12.742   2.282  12.412
36614SOL    HW111739  12.744   2.243  12.499
36614SOL    HW211740  12.660   2.332  12.410
36615SOL     OW11741   2.799   1.294  14.842
36615SOL    HW111742   2.714   1.264   0.003
36615SOL    HW211743   2.859   1.282   0.043
36616SOL     OW11744   1.029  12.988  11.691
36616SOL    HW111745   1.101  13.031  11.738
36616SOL    HW211746   0.954  13.047  11.702
36617SOL     OW11747  13.604  11.742  12.267
36617SOL    HW111748  13.630  11.786  12.186
36617SOL    HW211749  13.669  11.769  12.331
36618SOL     OW11750   2.541   2.702   4.208
36618SOL    HW111751   2.575   2.791   4.211
36618SOL    HW211752   2.519   2.687   4.116
36619SOL     OW11753   2.483   1.844   4.156
36619SOL    HW111754   2.483   1.931   4.117
36619SOL    HW211755   2.568   1.837   4.200
36620SOL     OW11756   5.475   9.937   1.206
36620SOL    HW111757   5.424   9.861   1.235
36620SOL    HW211758   5.410  10.006   1.191
36621SOL     OW11759   7.004   0.607  14.448
36621SOL    HW111760   6.913   0.596  14.477
36621SOL    HW211761   7.012   0.548  14.373
36622SOL     OW11762   7.049   8.688  10.668
36622SOL    HW111763   7.006   8.669  10.751
36622SOL    HW211764   7.013   8.773  10.642
36623SOL     OW11765   5.619  11.674   7.737
36623SOL    HW111766   5.671  11.612   7.685
36623SOL    HW211767   5.636  11.649   7.828
36624SOL     OW11768   5.811  12.352   5.395
36624SOL    HW111769   5.857  12.436   5.384
36624SOL    HW211770   5.731  12.374   5.442
36625SOL     OW11771   6.358   7.129   9.672
36625SOL    HW111772   6.282   7.178   9.703
36625SOL    HW211773   6.327   7.081   9.595
36626SOL     OW11774   3.412  13.758   7.613
36626SOL    HW111775   3.506  13.767   7.598
36626SOL    HW211776   3.380  13.707   7.539
36627SOL     OW11777   4.522  13.217   4.141
36627SOL    HW111778   4.607  13.260   4.147
36627SOL    HW211779   4.464  13.271   4.196
36628SOL     OW11780   9.764   0.238  14.773
36628SOL    HW111781   9.855   0.243  14.743
36628SOL    HW211782   9.767   0.269  14.863
36629SOL     OW11783  11.774   1.706  13.915
36629SOL    HW111784  11.687   1.687  13.880
36629SOL    HW211785  11.816   1.620  13.923
36630SOL     OW11786   1.252   0.007   2.196
36630SOL    HW111787   1.326   0.034   2.251
36630SOL    HW211788   1.260   0.061   2.118
36631SOL     OW11789   0.206   5.835   9.030
36631SOL    HW111790   0.214   5.904   9.095
36631SOL    HW211791   0.257   5.868   8.955
36632SOL     OW11792  14.313   0.771  13.232
36632SOL    HW111793  14.241   0.707  13.225
36632SOL    HW211794  14.325   0.803  13.143
36633SOL     OW11795  11.607   8.465  10.160
36633SOL    HW111796  11.551   8.388  10.145
36633SOL    HW211797  11.611   8.474  10.255
36634SOL     OW11798   4.341   8.524   6.990
36634SOL    HW111799   4.357   8.521   6.895
36634SOL    HW211800   4.428   8.536   7.028
36635SOL     OW11801  10.103   7.061  11.675
36635SOL    HW111802  10.127   7.137  11.621
36635SOL    HW211803  10.180   7.045  11.729
36636SOL     OW11804   6.768   7.494  13.059
36636SOL    HW111805   6.757   7.577  13.105
36636SOL    HW211806   6.810   7.517  12.977
36637SOL     OW11807   1.054   9.868   8.680
36637SOL    HW111808   1.014   9.888   8.595
36637SOL    HW211809   1.044   9.949   8.731
36638SOL     OW11810   6.151   7.091   3.776
36638SOL    HW111811   6.167   7.088   3.682
36638SOL    HW211812   6.173   7.003   3.807
36639SOL     OW11813  13.906   4.996   4.611
36639SOL    HW111814  13.951   4.945   4.679
36639SOL    HW211815  13.837   4.937   4.580
36640SOL     OW11816   3.733   8.028  14.860
36640SOL    HW111817   3.666   8.088   0.022
36640SOL    HW211818   3.684   7.950  14.835
36641SOL     OW11819   4.361   5.693  10.908
36641SOL    HW111820   4.280   5.728  10.872
36641SOL    HW211821   4.409   5.661  10.832
36642SOL     OW11822   2.579  10.937   2.801
36642SOL    HW111823   2.638  10.965   2.731
36642SOL    HW211824   2.526  10.868   2.760
36643SOL     OW11825   4.283   6.273  12.981
36643SOL    HW111826   4.350   6.325  12.936
36643SOL    HW211827   4.298   6.184  12.949
36644SOL     OW11828   7.454   3.840  11.813
36644SOL    HW111829   7.431   3.919  11.764
36644SOL    HW211830   7.371   3.808  11.847
36645SOL     OW11831   8.810   9.548  11.215
36645SOL    HW111832   8.752   9.496  11.159
36645SOL    HW211833   8.756   9.621  11.246
36646SOL     OW11834   6.734   7.745  12.372
36646SOL    HW111835   6.722   7.839  12.363
36646SOL    HW211836   6.650   7.712  12.404
36647SOL     OW11837   9.765   4.766   1.626
36647SOL    HW111838   9.704   4.827   1.668
36647SOL    HW211839   9.849   4.812   1.628
36648SOL     OW11840   5.438   2.272  12.078
36648SOL    HW111841   5.437   2.349  12.134
36648SOL    HW211842   5.348   2.237  12.084
36649SOL     OW11843  14.818   3.097  11.416
36649SOL    HW111844  14.804   3.040  11.341
36649SOL    HW211845  14.869   3.170  11.381
36650SOL     OW11846   1.870  14.439   3.251
36650SOL    HW111847   1.883  14.346   3.232
36650SOL    HW211848   1.876  14.446   3.346
36651SOL     OW11849   2.363  13.364   9.647
36651SOL    HW111850   2.385  13.444   9.599
36651SOL    HW211851   2.444  13.340   9.693
36652SOL     OW11852   9.267   0.292   3.243
36652SOL    HW111853   9.267   0.201   3.274
36652SOL    HW211854   9.303   0.342   3.317
36653SOL     OW11855   3.837   8.013   8.097
36653SOL    HW111856   3.932   8.002   8.102
36653SOL    HW211857   3.801   7.942   8.150
36654SOL     OW11858   5.823   2.211  11.246
36654SOL    HW111859   5.779   2.127  11.254
36654SOL    HW211860   5.911   2.189  11.215
36655SOL     OW11861   0.461  10.057   6.263
36655SOL    HW111862   0.507  10.074   6.181
36655SOL    HW211863   0.389   9.998   6.239
36656SOL     OW11864   7.782  12.200  11.690
36656SOL    HW111865   7.797  12.105  11.694
36656SOL    HW211866   7.799  12.230  11.779
36657SOL     OW11867   2.590   6.235  14.490
36657SOL    HW111868   2.653   6.237  14.562
36657SOL    HW211869   2.590   6.324  14.455
36658SOL     OW11870   2.014   5.839   4.516
36658SOL    HW111871   2.086   5.780   4.495
36658SOL    HW211872   2.054   5.926   4.515
36659SOL     OW11873   9.280   5.110   6.728
36659SOL    HW111874   9.282   5.015   6.742
36659SOL    HW211875   9.197   5.138   6.765
36660SOL     OW11876   5.857   0.739   3.483
36660SOL    HW111877   5.836   0.740   3.576
36660SOL    HW211878   5.828   0.824   3.451
36661SOL     OW11879   7.459   3.804   6.897
36661SOL    HW111880   7.523   3.755   6.845
36661SOL    HW211881   7.501   3.816   6.982
36662SOL     OW11882   9.986   7.715   2.649
36662SOL    HW111883   9.920   7.749   2.589
36662SOL    HW211884   9.937   7.686   2.726
36663SOL     OW11885   0.852   2.957  14.756
36663SOL    HW111886   0.926   3.015  14.740
36663SOL    HW211887   0.861   2.888  14.691
36664SOL     OW11888   4.847   9.916   4.063
36664SOL    HW111889   4.823   9.987   4.122
36664SOL    HW211890   4.901   9.858   4.117
36665SOL     OW11891  12.063  13.267   8.969
36665SOL    HW111892  12.043  13.246   9.060
36665SOL    HW211893  12.049  13.362   8.963
36666SOL     OW11894   2.747  14.228   4.303
36666SOL    HW111895   2.728  14.141   4.338
36666SOL    HW211896   2.674  14.247   4.243
36667SOL     OW11897  14.059   5.752  12.239
36667SOL    HW111898  13.969   5.765  12.210
36667SOL    HW211899  14.080   5.831  12.289
36668SOL     OW11900   3.045  10.634  12.316
36668SOL    HW111901   3.136  10.646  12.343
36668SOL    HW211902   3.002  10.716  12.341
36669SOL     OW11903   5.924   8.113  12.852
36669SOL    HW111904   5.966   8.197  12.870
36669SOL    HW211905   5.944   8.094  12.761
36670SOL     OW11906   4.256   7.299  11.822
36670SOL    HW111907   4.176   7.305  11.768
36670SOL    HW211908   4.292   7.388  11.820
36671SOL     OW11909  12.327   3.079   1.910
36671SOL    HW111910  12.320   3.137   1.986
36671SOL    HW211911  12.413   3.038   1.918
36672SOL     OW11912   0.924  14.566  13.399
36672SOL    HW111913   0.887  14.522  13.322
36672SOL    HW211914   0.994  14.507  13.429
36673SOL     OW11915   6.724   7.887   3.723
36673SOL    HW111916   6.717   7.951   3.794
36673SOL    HW211917   6.635   7.881   3.688
36674SOL     OW11918   0.492   8.299   9.247
36674SOL    HW111919   0.442   8.242   9.305
36674SOL    HW211920   0.510   8.245   9.170
36675SOL     OW11921   5.579   9.563  14.758
36675SOL    HW111922   5.627   9.626  14.704
36675SOL    HW211923   5.585   9.481  14.710
36676SOL     OW11924  14.264   1.799   9.108
36676SOL    HW111925  14.321   1.871   9.080
36676SOL    HW211926  14.322   1.739   9.155
36677SOL     OW11927   0.305   2.862   1.012
36677SOL    HW111928   0.345   2.946   0.991
36677SOL    HW211929   0.255   2.839   0.934
36678SOL     OW11930   2.555   4.523   6.588
36678SOL    HW111931   2.554   4.599   6.646
36678SOL    HW211932   2.476   4.533   6.535
36679SOL     OW11933   6.424   3.442   9.232
36679SOL    HW111934   6.447   3.529   9.198
36679SOL    HW211935   6.329   3.444   9.240
36680SOL     OW11936   0.173   4.374   9.448
36680SOL    HW111937   0.141   4.396   9.361
36680SOL    HW211938   0.105   4.317   9.485
36681SOL     OW11939   5.079   7.306  13.643
36681SOL    HW111940   4.997   7.355  13.643
36681SOL    HW211941   5.073   7.249  13.566
36682SOL     OW11942   3.179   7.426  14.799
36682SOL    HW111943   3.218   7.461  14.719
36682SOL    HW211944   3.147   7.504  14.846
36683SOL     OW11945   7.490   1.447  11.622
36683SOL    HW111946   7.531   1.363  11.601
36683SOL    HW211947   7.411   1.450  11.569
36684SOL     OW11948   4.864   3.261  11.147
36684SOL    HW111949   4.837   3.323  11.215
36684SOL    HW211950   4.800   3.190  11.153
36685SOL     OW11951   0.606   6.709   1.685
36685SOL    HW111952   0.654   6.728   1.605
36685SOL    HW211953   0.523   6.671   1.655
36686SOL     OW11954   4.437   1.113   8.521
36686SOL    HW111955   4.455   1.199   8.484
36686SOL    HW211956   4.380   1.130   8.596
36687SOL     OW11957  12.310  13.601  12.168
36687SOL    HW111958  12.250  13.544  12.216
36687SOL    HW211959  12.272  13.609  12.081
36688SOL     OW11960   2.043   8.356   1.287
36688SOL    HW111961   2.090   8.309   1.356
36688SOL    HW211962   1.951   8.341   1.306
36689SOL     OW11963   7.227   3.599   0.457
36689SOL    HW111964   7.167   3.665   0.493
36689SOL    HW211965   7.309   3.647   0.442
36690SOL     OW11966   7.164   4.277  13.216
36690SOL    HW111967   7.078   4.265  13.175
36690SOL    HW211968   7.202   4.189  13.219
36691SOL     OW11969  12.953  10.150   1.143
36691SOL    HW111970  12.972  10.076   1.201
36691SOL    HW211971  12.907  10.212   1.199
36692SOL     OW11972  11.983  11.542   2.504
36692SOL    HW111973  11.947  11.496   2.428
36692SOL    HW211974  12.072  11.567   2.477
36693SOL     OW11975   1.781  14.704  14.565
36693SOL    HW111976   1.729  14.761  14.622
36693SOL    HW211977   1.746  14.719  14.477
36694SOL     OW11978   3.020   8.239  11.663
36694SOL    HW111979   2.926   8.225  11.658
36694SOL    HW211980   3.033   8.329  11.632
36695SOL     OW11981   5.755   4.604   7.131
36695SOL    HW111982   5.788   4.554   7.205
36695SOL    HW211983   5.704   4.541   7.079
36696SOL     OW11984   7.416  12.832  10.308
36696SOL    HW111985   7.352  12.840  10.238
36696SOL    HW211986   7.381  12.886  10.379
36697SOL     OW11987  11.678   1.563   9.676
36697SOL    HW111988  11.677   1.658   9.668
36697SOL    HW211989  11.771   1.540   9.675
36698SOL     OW11990   2.682   8.278   5.538
36698SOL    HW111991   2.706   8.262   5.629
36698SOL    HW211992   2.756   8.328   5.503
36699SOL     OW11993   9.663   6.442  13.233
36699SOL    HW111994   9.619   6.424  13.150
36699SOL    HW211995   9.756   6.446  13.210
36700SOL     OW11996   3.805   4.185   9.509
36700SOL    HW111997   3.845   4.256   9.459
36700SOL    HW211998   3.724   4.166   9.462
36701SOL     OW11999  11.535   7.267   5.847
36701SOL    HW112000  11.496   7.183   5.826
36701SOL    HW212001  11.463   7.329   5.845
36702SOL     OW12002   8.293   9.442   0.818
36702SOL    HW112003   8.331   9.526   0.842
36702SOL    HW212004   8.203   9.463   0.792
36703SOL     OW12005  13.851  14.386  14.427
36703SOL    HW112006  13.875  14.302  14.387
36703SOL    HW212007  13.756  14.389  14.420
36704SOL     OW12008  11.875   5.590  11.496
36704SOL    HW112009  11.887   5.656  11.564
36704SOL    HW212010  11.803   5.623  11.442
36705SOL     OW12011   2.456   3.364   6.968
36705SOL    HW112012   2.531   3.307   6.955
36705SOL    HW212013   2.381   3.305   6.971
36706SOL     OW12014   8.311   4.882  11.491
36706SOL    HW112015   8.224   4.848  11.514
36706SOL    HW212016   8.306   4.975  11.515
36707SOL     OW12017   0.057  10.245  12.711
36707SOL    HW112018   0.093  10.165  12.749
36707SOL    HW212019  14.837  10.224  12.693
36708SOL     OW12020   8.172   1.223   7.678
36708SOL    HW112021   8.208   1.196   7.593
36708SOL    HW212022   8.127   1.305   7.660
36709SOL     OW12023   9.271   3.082   4.273
36709SOL    HW112024   9.263   3.177   4.276
36709SOL    HW212025   9.349   3.063   4.326
36710SOL     OW12026   5.136   9.301   7.455
36710SOL    HW112027   5.144   9.216   7.412
36710SOL    HW212028   5.187   9.361   7.400
36711SOL     OW12029   1.719  14.860   5.844
36711SOL    HW112030   1.774   0.035   5.907
36711SOL    HW212031   1.633  14.854   5.885
36712SOL     OW12032   1.775  13.567  11.187
36712SOL    HW112033   1.712  13.520  11.242
36712SOL    HW212034   1.759  13.659  11.206
36713SOL     OW12035   4.398   0.547   6.669
36713SOL    HW112036   4.351   0.484   6.614
36713SOL    HW212037   4.329   0.597   6.713
36714SOL     OW12038  14.459   6.060  10.978
36714SOL    HW112039  14.465   6.128  11.045
36714SOL    HW212040  14.365   6.056  10.957
36715SOL     OW12041   9.478   4.758  10.577
36715SOL    HW112042   9.387   4.786  10.589
36715SOL    HW212043   9.477   4.664  10.597
36716SOL     OW12044   3.853   6.408   3.784
36716SOL    HW112045   3.921   6.342   3.768
36716SOL    HW212046   3.779   6.358   3.819
36717SOL     OW12047   1.715   2.032   1.117
36717SOL    HW112048   1.634   2.068   1.151
36717SOL    HW212049   1.742   2.094   1.049
36718SOL     OW12050   0.522  10.274  12.785
36718SOL    HW112051   0.606  10.229  12.781
36718SOL    HW212052   0.466  10.217  12.838
36719SOL     OW12053   0.433   5.715  12.572
36719SOL    HW112054   0.416   5.647  12.506
36719SOL    HW212055   0.350   5.724  12.619
36720SOL     OW12056   2.939   0.650   7.674
36720SOL    HW112057   2.967   0.595   7.746
36720SOL    HW212058   3.020   0.686   7.638
36721SOL     OW12059   4.091  10.577   6.789
36721SOL    HW112060   4.070  10.602   6.879
36721SOL    HW212061   4.022  10.616   6.736
36722SOL     OW12062  10.806   2.563   3.495
36722SOL    HW112063  10.900   2.546   3.502
36722SOL    HW212064  10.770   2.481   3.459
36723SOL     OW12065   8.376  13.814   7.489
36723SOL    HW112066   8.463  13.812   7.450
36723SOL    HW212067   8.387  13.774   7.575
36724SOL     OW12068  12.132   5.676   2.437
36724SOL    HW112069  12.174   5.715   2.513
36724SOL    HW212070  12.113   5.750   2.379
36725SOL     OW12071   6.576  11.729   5.834
36725SOL    HW112072   6.542  11.653   5.786
36725SOL    HW212073   6.586  11.699   5.924
36726SOL     OW12074  10.490   6.101   7.589
36726SOL    HW112075  10.448   6.015   7.586
36726SOL    HW212076  10.419   6.162   7.607
36727SOL     OW12077   2.909  14.501   6.446
36727SOL    HW112078   2.829  14.498   6.395
36727SOL    HW212079   2.908  14.420   6.498
36728SOL     OW12080   2.929   4.433   3.111
36728SOL    HW112081   2.984   4.384   3.050
36728SOL    HW212082   2.839   4.411   3.087
36729SOL     OW12083   6.774  14.046   7.417
36729SOL    HW112084   6.805  14.131   7.448
36729SOL    HW212085   6.818  13.982   7.472
36730SOL     OW12086  10.513   6.518  14.571
36730SOL    HW112087  10.483   6.557  14.653
36730SOL    HW212088  10.432   6.493  14.525
36731SOL     OW12089  14.143   7.513  14.535
36731SOL    HW112090  14.049   7.533  14.528
36731SOL    HW212091  14.183   7.562  14.463
36732SOL     OW12092  12.151   6.129  14.048
36732SOL    HW112093  12.117   6.182  13.976
36732SOL    HW212094  12.138   6.182  14.126
36733SOL     OW12095   8.303   8.611   8.298
36733SOL    HW112096   8.331   8.544   8.361
36733SOL    HW212097   8.277   8.561   8.221
36734SOL     OW12098   3.537   0.207  12.605
36734SOL    HW112099   3.486   0.222  12.684
36734SOL    HW212100   3.490   0.256  12.537
36735SOL     OW12101   5.509   5.420  13.363
36735SOL    HW112102   5.451   5.493  13.342
36735SOL    HW212103   5.588   5.438  13.312
36736SOL     OW12104  10.252   2.674   6.607
36736SOL    HW112105  10.340   2.674   6.568
36736SOL    HW212106  10.209   2.750   6.567
36737SOL     OW12107   2.773  10.171  11.451
36737SOL    HW112108   2.751  10.083  11.420
36737SOL    HW212109   2.824  10.156  11.530
36738SOL     OW12110   1.160   3.864   1.544
36738SOL    HW112111   1.205   3.940   1.581
36738SOL    HW212112   1.216   3.836   1.471
36739SOL     OW12113   4.311   9.411  10.469
36739SOL    HW112114   4.245   9.379  10.531
36739SOL    HW212115   4.393   9.370  10.498
36740SOL     OW12116  12.706   0.617   0.925
36740SOL    HW112117  12.732   0.530   0.955
36740SOL    HW212118  12.623   0.634   0.969
36741SOL     OW12119   8.916   3.137  10.313
36741SOL    HW112120   8.989   3.086  10.349
36741SOL    HW212121   8.931   3.226  10.346
36742SOL     OW12122  13.210   5.984   0.670
36742SOL    HW112123  13.237   6.066   0.630
36742SOL    HW212124  13.230   5.917   0.604
36743SOL     OW12125  14.227   5.847   6.515
36743SOL    HW112126  14.234   5.751   6.511
36743SOL    HW212127  14.164   5.864   6.585
36744SOL     OW12128  12.628   7.851   2.315
36744SOL    HW112129  12.637   7.759   2.339
36744SOL    HW212130  12.656   7.854   2.224
36745SOL     OW12131   3.996   5.420  10.822
36745SOL    HW112132   4.001   5.349  10.885
36745SOL    HW212133   3.926   5.393  10.762
36746SOL     OW12134   1.053   5.448  11.584
36746SOL    HW112135   1.016   5.361  11.597
36746SOL    HW212136   1.144   5.431  11.559
36747SOL     OW12137   0.885   7.466  14.269
36747SOL    HW112138   0.910   7.551  14.233
36747SOL    HW212139   0.968   7.419  14.277
36748SOL     OW12140   0.048  10.923   6.248
36748SOL    HW112141   0.029  10.962   6.333
36748SOL    HW212142  14.846  10.863   6.233
36749SOL     OW12143  10.803   3.570   4.611
36749SOL    HW112144  10.756   3.651   4.632
36749SOL    HW212145  10.739   3.517   4.563
36750SOL     OW12146  13.983  14.276   5.096
36750SOL    HW112147  13.944  14.236   5.018
36750SOL    HW212148  13.913  14.328   5.135
36751SOL     OW12149   8.571   4.765  13.436
36751SOL    HW112150   8.492   4.710  13.438
36751SOL    HW212151   8.572   4.802  13.348
36752SOL     OW12152   5.222  14.799   7.368
36752SOL    HW112153   5.191   0.009   7.328
36752SOL    HW212154   5.316  14.810   7.374
36753SOL     OW12155   7.512   9.888  10.643
36753SOL    HW112156   7.491   9.936  10.562
36753SOL    HW212157   7.435   9.899  10.698
36754SOL     OW12158   2.799   1.208   8.850
36754SOL    HW112159   2.735   1.138   8.865
36754SOL    HW212160   2.867   1.192   8.916
36755SOL     OW12161  13.646   6.288   7.096
36755SOL    HW112162  13.571   6.231   7.116
36755SOL    HW212163  13.698   6.238   7.033
36756SOL     OW12164  13.541   0.635   6.494
36756SOL    HW112165  13.544   0.730   6.484
36756SOL    HW212166  13.627   0.612   6.531
36757SOL     OW12167   8.464   1.796  14.717
36757SOL    HW112168   8.448   1.752  14.800
36757SOL    HW212169   8.458   1.726  14.652
36758SOL     OW12170  10.958   1.710   8.131
36758SOL    HW112171  10.953   1.618   8.105
36758SOL    HW212172  10.871   1.745   8.113
36759SOL     OW12173   8.998   2.777   9.385
36759SOL    HW112174   9.011   2.683   9.397
36759SOL    HW212175   9.072   2.817   9.430
36760SOL     OW12176   3.049  10.946   4.135
36760SOL    HW112177   3.004  10.915   4.057
36760SOL    HW212178   3.066  11.038   4.118
36761SOL     OW12179   9.271  13.398  14.815
36761SOL    HW112180   9.205  13.433  14.756
36761SOL    HW212181   9.221  13.348   0.008
36762SOL     OW12182   1.151  10.897  14.129
36762SOL    HW112183   1.107  10.824  14.173
36762SOL    HW212184   1.080  10.956  14.105
36763SOL     OW12185   4.897   9.481  10.372
36763SOL    HW112186   4.976   9.535  10.374
36763SOL    HW212187   4.876   9.474  10.279
36764SOL     OW12188  11.533  11.485   2.145
36764SOL    HW112189  11.553  11.538   2.222
36764SOL    HW212190  11.550  11.395   2.172
36765SOL     OW12191  13.805  12.559   7.763
36765SOL    HW112192  13.751  12.558   7.843
36765SOL    HW212193  13.895  12.554   7.795
36766SOL     OW12194  10.873   4.958  11.040
36766SOL    HW112195  10.840   4.894  10.976
36766SOL    HW212196  10.959   4.923  11.066
36767SOL     OW12197   6.782   0.037   9.578
36767SOL    HW112198   6.737   0.029   9.494
36767SOL    HW212199   6.749  14.836   9.630
36768SOL     OW12200   0.581   9.607  13.926
36768SOL    HW112201   0.581   9.615  14.021
36768SOL    HW212202   0.599   9.695  13.894
36769SOL     OW12203  14.101   6.203   4.378
36769SOL    HW112204  14.131   6.294   4.385
36769SOL    HW212205  14.031   6.206   4.312
36770SOL     OW12206   9.292  10.801   0.789
36770SOL    HW112207   9.307  10.886   0.748
36770SOL    HW212208   9.311  10.738   0.720
36771SOL     OW12209  13.866  12.256   3.575
36771SOL    HW112210  13.788  12.205   3.593
36771SOL    HW212211  13.835  12.346   3.570
36772SOL     OW12212  11.285   8.651  14.506
36772SOL    HW112213  11.263   8.712  14.576
36772SOL    HW212214  11.244   8.688  14.428
36773SOL     OW12215   2.782  12.915  10.167
36773SOL    HW112216   2.833  12.885  10.092
36773SOL    HW212217   2.692  12.888  10.148
36774SOL     OW12218   5.362   2.904  10.828
36774SOL    HW112219   5.409   2.925  10.908
36774SOL    HW212220   5.351   2.809  10.830
36775SOL     OW12221   2.329   0.161  11.113
36775SOL    HW112222   2.329   0.130  11.204
36775SOL    HW212223   2.250   0.215  11.107
36776SOL     OW12224   8.934  12.350  10.825
36776SOL    HW112225   8.866  12.409  10.792
36776SOL    HW212226   8.999  12.347  10.754
36777SOL     OW12227   8.933   4.745   7.648
36777SOL    HW112228   8.945   4.836   7.619
36777SOL    HW212229   9.021   4.711   7.658
36778SOL     OW12230   1.654   7.091   1.216
36778SOL    HW112231   1.727   7.059   1.164
36778SOL    HW212232   1.624   7.170   1.170
36779SOL     OW12233  10.547  10.305  14.039
36779SOL    HW112234  10.543  10.277  13.948
36779SOL    HW212235  10.638  10.290  14.065
36780SOL     OW12236   0.302   3.922   9.459
36780SOL    HW112237   0.321   4.005   9.414
36780SOL    HW212238   0.379   3.868   9.442
36781SOL     OW12239  14.723  10.544   6.695
36781SOL    HW112240  14.711  10.605   6.622
36781SOL    HW212241  14.713  10.457   6.656
36782SOL     OW12242  12.134   4.781   3.451
36782SOL    HW112243  12.221   4.787   3.412
36782SOL    HW212244  12.111   4.688   3.444
36783SOL     OW12245  11.054   5.203   0.788
36783SOL    HW112246  11.017   5.120   0.759
36783SOL    HW212247  11.129   5.218   0.730
36784SOL     OW12248   0.178   0.206   0.453
36784SOL    HW112249   0.178   0.268   0.380
36784SOL    HW212250   0.197   0.259   0.530
36785SOL     OW12251   5.628  12.596  14.765
36785SOL    HW112252   5.569  12.560  14.832
36785SOL    HW212253   5.579  12.588  14.683
36786SOL     OW12254  10.259   2.055  11.042
36786SOL    HW112255  10.236   2.131  10.989
36786SOL    HW212256  10.290   2.093  11.125
36787SOL     OW12257   7.446   1.733  12.389
36787SOL    HW112258   7.490   1.760  12.308
36787SOL    HW212259   7.442   1.638  12.383
36788SOL     OW12260   8.146   3.949   5.587
36788SOL    HW112261   8.240   3.962   5.577
36788SOL    HW212262   8.108   4.035   5.566
36789SOL     OW12263   1.905  12.008  10.914
36789SOL    HW112264   1.851  12.029  10.990
36789SOL    HW212265   1.969  12.078  10.909
36790SOL     OW12266  14.264   6.189   2.312
36790SOL    HW112267  14.249   6.275   2.274
36790SOL    HW212268  14.333   6.203   2.377
36791SOL     OW12269  10.749  11.694  12.783
36791SOL    HW112270  10.732  11.603  12.809
36791SOL    HW212271  10.775  11.689  12.691
36792SOL     OW12272  10.385  11.589   6.195
36792SOL    HW112273  10.402  11.523   6.262
36792SOL    HW212274  10.329  11.545   6.131
36793SOL     OW12275  13.899  10.063   1.814
36793SOL    HW112276  13.904  10.158   1.809
36793SOL    HW212277  13.931  10.033   1.729
36794SOL     OW12278   7.927   8.996  14.746
36794SOL    HW112279   7.953   8.938  14.675
36794SOL    HW212280   7.930   9.084  14.708
36795SOL     OW12281   1.852   4.476   2.217
36795SOL    HW112282   1.787   4.546   2.206
36795SOL    HW212283   1.804   4.406   2.260
36796SOL     OW12284  14.832   6.750  12.115
36796SOL    HW112285  14.781   6.710  12.044
36796SOL    HW212286  14.775   6.740  12.192
36797SOL     OW12287  14.226   1.036   5.348
36797SOL    HW112288  14.267   0.981   5.415
36797SOL    HW212289  14.230   1.124   5.384
36798SOL     OW12290  12.569   5.983   7.663
36798SOL    HW112291  12.644   6.030   7.626
36798SOL    HW212292  12.559   5.906   7.608
36799SOL     OW12293  14.389   3.448  12.508
36799SOL    HW112294  14.431   3.522  12.551
36799SOL    HW212295  14.312   3.485  12.464
36800SOL     OW12296   2.154  10.368  13.346
36800SOL    HW112297   2.149  10.385  13.440
36800SOL    HW212298   2.163  10.455  13.306
36801SOL     OW12299   5.032  10.130   9.691
36801SOL    HW112300   4.989  10.050   9.661
36801SOL    HW212301   5.123  10.121   9.663
36802SOL     OW12302   3.454   8.833  12.401
36802SOL    HW112303   3.534   8.866  12.362
36802SOL    HW212304   3.465   8.849  12.495
36803SOL     OW12305   8.105  14.454   9.202
36803SOL    HW112306   8.172  14.518   9.181
36803SOL    HW212307   8.148  14.369   9.190
36804SOL     OW12308   2.708   3.548  10.610
36804SOL    HW112309   2.733   3.459  10.587
36804SOL    HW212310   2.720   3.553  10.705
36805SOL     OW12311   3.641   6.706   7.008
36805SOL    HW112312   3.639   6.747   7.094
36805SOL    HW212313   3.731   6.719   6.977
36806SOL     OW12314   9.122  13.048   0.731
36806SOL    HW112315   9.093  13.041   0.822
36806SOL    HW212316   9.133  13.142   0.717
36807SOL     OW12317  12.212   4.890   6.943
36807SOL    HW112318  12.269   4.910   6.869
36807SOL    HW212319  12.265   4.911   7.021
36808SOL     OW12320   2.434  11.184   2.757
36808SOL    HW112321   2.448  11.195   2.663
36808SOL    HW212322   2.492  11.111   2.782
36809SOL     OW12323   1.621  12.710  13.835
36809SOL    HW112324   1.703  12.703  13.885
36809SOL    HW212325   1.646  12.753  13.754
36810SOL     OW12326   2.386   9.767   9.122
36810SOL    HW112327   2.398   9.742   9.031
36810SOL    HW212328   2.291   9.772   9.134
36811SOL     OW12329   4.508   9.169  10.011
36811SOL    HW112330   4.603   9.165  10.010
36811SOL    HW212331   4.487   9.225  10.086
36812SOL     OW12332   8.942   3.157  11.989
36812SOL    HW112333   8.975   3.094  12.054
36812SOL    HW212334   8.920   3.103  11.913
36813SOL     OW12335   8.464  12.068   6.747
36813SOL    HW112336   8.555  12.068   6.777
36813SOL    HW212337   8.412  12.065   6.828
36814SOL     OW12338  11.106  11.196   5.234
36814SOL    HW112339  11.012  11.179   5.232
36814SOL    HW212340  11.120  11.264   5.169
36815SOL     OW12341  11.586   8.406   8.825
36815SOL    HW112342  11.602   8.464   8.750
36815SOL    HW212343  11.620   8.321   8.797
36816SOL     OW12344   9.500  14.304  12.255
36816SOL    HW112345   9.572  14.356  12.221
36816SOL    HW212346   9.456  14.361  12.318
36817SOL     OW12347   1.913   8.934  13.277
36817SOL    HW112348   1.867   9.018  13.267
36817SOL    HW212349   1.888   8.884  13.200
36818SOL     OW12350  13.440   7.665  10.976
36818SOL    HW112351  13.386   7.652  11.054
36818SOL    HW212352  13.410   7.748  10.940
36819SOL     OW12353   2.189   1.609  10.283
36819SOL    HW112354   2.170   1.652  10.200
36819SOL    HW212355   2.108   1.563  10.305
36820SOL     OW12356  11.271   6.237   3.287
36820SOL    HW112357  11.191   6.287   3.305
36820SOL    HW212358  11.342   6.296   3.308
36821SOL     OW12359  11.665   5.321  14.680
36821SOL    HW112360  11.684   5.411  14.706
36821SOL    HW212361  11.730   5.268  14.725
36822SOL     OW12362   4.396   6.969   4.308
36822SOL    HW112363   4.347   6.891   4.282
36822SOL    HW212364   4.482   6.936   4.334
36823SOL     OW12365   9.062  14.512  13.030
36823SOL    HW112366   9.054  14.487  12.938
36823SOL    HW212367   9.091  14.603  13.028
36824SOL     OW12368   1.228   4.766  12.003
36824SOL    HW112369   1.164   4.794  11.937
36824SOL    HW212370   1.193   4.798  12.086
36825SOL     OW12371   3.348   0.987   4.816
36825SOL    HW112372   3.340   0.905   4.768
36825SOL    HW212373   3.436   0.985   4.853
36826SOL     OW12374   5.765   3.253  12.929
36826SOL    HW112375   5.804   3.329  12.972
36826SOL    HW212376   5.717   3.289  12.855
36827SOL     OW12377   6.355   4.802  12.963
36827SOL    HW112378   6.450   4.813  12.963
36827SOL    HW212379   6.323   4.870  13.023
36828SOL     OW12380   8.741   5.053   4.901
36828SOL    HW112381   8.779   5.104   4.973
36828SOL    HW212382   8.784   4.968   4.907
36829SOL     OW12383   5.055  11.720   7.536
36829SOL    HW112384   4.984  11.690   7.478
36829SOL    HW212385   5.054  11.815   7.527
36830SOL     OW12386   2.816   0.016  13.673
36830SOL    HW112387   2.763   0.028  13.752
36830SOL    HW212388   2.753  14.857  13.607
36831SOL     OW12389   0.667   2.366   8.409
36831SOL    HW112390   0.715   2.339   8.487
36831SOL    HW212391   0.719   2.333   8.336
36832SOL     OW12392  12.698   0.187   8.967
36832SOL    HW112393  12.707   0.196   9.062
36832SOL    HW212394  12.752   0.257   8.931
36833SOL     OW12395  13.163   4.664   2.171
36833SOL    HW112396  13.182   4.711   2.090
36833SOL    HW212397  13.190   4.574   2.154
36834SOL     OW12398   0.015   0.743   4.231
36834SOL    HW112399  14.819   0.797   4.273
36834SOL    HW212400  14.843   0.661   4.209
36835SOL     OW12401  14.605   5.050  14.555
36835SOL    HW112402  14.585   4.956  14.563
36835SOL    HW212403  14.567   5.075  14.471
36836SOL     OW12404   6.867   3.162   5.094
36836SOL    HW112405   6.920   3.107   5.036
36836SOL    HW212406   6.928   3.226   5.129
36837SOL     OW12407  14.600   8.041  14.675
36837SOL    HW112408  14.544   7.964  14.662
36837SOL    HW212409  14.688   8.006  14.683
36838SOL     OW12410   4.816   1.309  14.378
36838SOL    HW112411   4.862   1.390  14.398
36838SOL    HW212412   4.729   1.320  14.417
36839SOL     OW12413   5.599  13.738   4.484
36839SOL    HW112414   5.561  13.798   4.420
36839SOL    HW212415   5.526  13.715   4.542
36840SOL     OW12416  14.366   7.419   4.964
36840SOL    HW112417  14.307   7.387   5.032
36840SOL    HW212418  14.352   7.359   4.890
36841SOL     OW12419   3.072   1.293   5.905
36841SOL    HW112420   3.153   1.268   5.862
36841SOL    HW212421   3.012   1.220   5.887
36842SOL     OW12422  10.268  10.045   7.861
36842SOL    HW112423  10.178  10.019   7.844
36842SOL    HW212424  10.321   9.983   7.811
36843SOL     OW12425   0.549  14.456   7.471
36843SOL    HW112426   0.580  14.464   7.561
36843SOL    HW212427   0.549  14.362   7.454
36844SOL     OW12428   4.067  13.199   8.544
36844SOL    HW112429   4.135  13.261   8.516
36844SOL    HW212430   4.114  13.115   8.552
36845SOL     OW12431  12.191  14.710  10.324
36845SOL    HW112432  12.251  14.635  10.322
36845SOL    HW212433  12.238  14.776  10.375
36846SOL     OW12434  11.917   2.188  13.284
36846SOL    HW112435  11.945   2.273  13.251
36846SOL    HW212436  11.859   2.208  13.357
36847SOL     OW12437   0.594   1.403   7.606
36847SOL    HW112438   0.602   1.498   7.593
36847SOL    HW212439   0.580   1.393   7.700
36848SOL     OW12440   5.302   7.650  12.843
36848SOL    HW112441   5.290   7.558  12.821
36848SOL    HW212442   5.397   7.663  12.837
36849SOL     OW12443   0.460   4.598   5.116
36849SOL    HW112444   0.554   4.612   5.128
36849SOL    HW212445   0.432   4.670   5.058
36850SOL     OW12446  14.165   1.277   1.740
36850SOL    HW112447  14.180   1.288   1.646
36850SOL    HW212448  14.164   1.367   1.774
36851SOL     OW12449   0.297  11.212   9.856
36851SOL    HW112450   0.231  11.278   9.876
36851SOL    HW212451   0.251  11.146   9.804
36852SOL     OW12452   7.168   5.972   4.036
36852SOL    HW112453   7.231   5.981   4.107
36852SOL    HW212454   7.089   5.936   4.077
36853SOL     OW12455   2.367   5.530   7.977
36853SOL    HW112456   2.387   5.588   8.051
36853SOL    HW212457   2.334   5.589   7.909
36854SOL     OW12458   7.494  13.853   6.953
36854SOL    HW112459   7.475  13.763   6.977
36854SOL    HW212460   7.412  13.887   6.917
36855SOL     OW12461   6.869   0.854   4.914
36855SOL    HW112462   6.951   0.854   4.865
36855SOL    HW212463   6.801   0.861   4.848
36856SOL     OW12464   2.016   0.641  10.521
36856SOL    HW112465   1.961   0.598  10.455
36856SOL    HW212466   1.954   0.674  10.586
36857SOL     OW12467  11.710   2.595   9.029
36857SOL    HW112468  11.759   2.574   8.949
36857SOL    HW212469  11.771   2.648   9.080
36858SOL     OW12470   4.850   7.888   6.490
36858SOL    HW112471   4.768   7.884   6.440
36858SOL    HW212472   4.822   7.903   6.581
36859SOL     OW12473   2.743   8.673   0.429
36859SOL    HW112474   2.708   8.584   0.435
36859SOL    HW212475   2.754   8.700   0.520
36860SOL     OW12476   1.618   7.844   9.068
36860SOL    HW112477   1.601   7.938   9.065
36860SOL    HW212478   1.531   7.804   9.066
36861SOL     OW12479   0.723  10.467   7.693
36861SOL    HW112480   0.772  10.537   7.738
36861SOL    HW212481   0.645  10.455   7.746
36862SOL     OW12482  11.439   7.446   0.541
36862SOL    HW112483  11.356   7.416   0.578
36862SOL    HW212484  11.442   7.539   0.561
36863SOL     OW12485   2.830   6.561   4.097
36863SOL    HW112486   2.884   6.490   4.131
36863SOL    HW212487   2.742   6.541   4.130
36864SOL     OW12488  11.794   0.095   5.661
36864SOL    HW112489  11.755   0.008   5.659
36864SOL    HW212490  11.798   0.122   5.569
36865SOL     OW12491  11.705   3.779   0.922
36865SOL    HW112492  11.688   3.757   1.013
36865SOL    HW212493  11.787   3.828   0.923
36866SOL     OW12494   0.496  12.673  10.563
36866SOL    HW112495   0.553  12.608  10.522
36866SOL    HW212496   0.421  12.680  10.504
36867SOL     OW12497  11.228   1.015   1.888
36867SOL    HW112498  11.149   0.961   1.894
36867SOL    HW212499  11.296   0.963   1.930
36868SOL     OW12500  14.139   8.084  12.602
36868SOL    HW112501  14.194   8.052  12.531
36868SOL    HW212502  14.076   8.014  12.617
36869SOL     OW12503   2.107  12.398  13.853
36869SOL    HW112504   2.130  12.442  13.935
36869SOL    HW212505   2.168  12.325  13.848
36870SOL     OW12506   6.252  10.919  14.249
36870SOL    HW112507   6.251  10.939  14.343
36870SOL    HW212508   6.344  10.913  14.226
36871SOL     OW12509  11.923   6.222   7.711
36871SOL    HW112510  11.948   6.135   7.681
36871SOL    HW212511  11.921   6.214   7.807
36872SOL     OW12512  13.357  10.256   2.699
36872SOL    HW112513  13.299  10.201   2.646
36872SOL    HW212514  13.381  10.200   2.773
36873SOL     OW12515  10.810   9.621  13.660
36873SOL    HW112516  10.735   9.613  13.719
36873SOL    HW212517  10.875   9.562  13.697
36874SOL     OW12518   3.236  12.233  11.918
36874SOL    HW112519   3.304  12.295  11.946
36874SOL    HW212520   3.283  12.167  11.867
36875SOL     OW12521   6.121  10.347   2.151
36875SOL    HW112522   6.177  10.269   2.152
36875SOL    HW212523   6.080  10.346   2.064
36876SOL     OW12524  12.870   9.065   1.462
36876SOL    HW112525  12.879   8.981   1.507
36876SOL    HW212526  12.902   9.048   1.374
36877SOL     OW12527  13.861  13.041  12.072
36877SOL    HW112528  13.909  13.092  12.137
36877SOL    HW212529  13.825  13.106  12.012
36878SOL     OW12530   2.357   7.319   6.656
36878SOL    HW112531   2.319   7.376   6.589
36878SOL    HW212532   2.427   7.272   6.611
36879SOL     OW12533  13.491   7.702  11.515
36879SOL    HW112534  13.518   7.613  11.493
36879SOL    HW212535  13.400   7.708  11.486
36880SOL     OW12536   8.661   3.841  13.793
36880SOL    HW112537   8.625   3.807  13.711
36880SOL    HW212538   8.676   3.763  13.847
36881SOL     OW12539  11.306   9.680  12.094
36881SOL    HW112540  11.370   9.649  12.030
36881SOL    HW212541  11.253   9.603  12.114
36882SOL     OW12542   7.750  12.852  11.800
36882SOL    HW112543   7.764  12.764  11.764
36882SOL    HW212544   7.776  12.911  11.730
36883SOL     OW12545   2.354  14.108  13.172
36883SOL    HW112546   2.312  14.069  13.095
36883SOL    HW212547   2.353  14.038  13.237
36884SOL     OW12548   6.887  13.223   3.896
36884SOL    HW112549   6.898  13.293   3.831
36884SOL    HW212550   6.975  13.192   3.914
36885SOL     OW12551   8.531  11.021   0.176
36885SOL    HW112552   8.587  11.090   0.142
36885SOL    HW212553   8.559  10.942   0.130
36886SOL     OW12554   4.094  11.322   8.063
36886SOL    HW112555   4.110  11.415   8.052
36886SOL    HW212556   4.071  11.311   8.155
36887SOL     OW12557   0.687  13.677   5.606
36887SOL    HW112558   0.652  13.739   5.669
36887SOL    HW212559   0.781  13.695   5.605
36888SOL     OW12560   2.441   2.575   1.273
36888SOL    HW112561   2.376   2.639   1.300
36888SOL    HW212562   2.460   2.525   1.352
36889SOL     OW12563  10.984   7.498  13.850
36889SOL    HW112564  11.016   7.420  13.895
36889SOL    HW212565  10.948   7.553  13.920
36890SOL     OW12566   4.284   6.822  13.795
36890SOL    HW112567   4.261   6.802  13.705
36890SOL    HW212568   4.206   6.798  13.846
36891SOL     OW12569   6.000  11.792   4.924
36891SOL    HW112570   5.915  11.755   4.901
36891SOL    HW212571   5.980  11.881   4.953
36892SOL     OW12572   5.893   6.004   9.448
36892SOL    HW112573   5.964   5.946   9.419
36892SOL    HW212574   5.882   5.985   9.541
36893SOL     OW12575  11.667  10.560   4.274
36893SOL    HW112576  11.753  10.548   4.235
36893SOL    HW212577  11.658  10.488   4.336
36894SOL     OW12578   4.074   5.199   6.384
36894SOL    HW112579   4.071   5.128   6.320
36894SOL    HW212580   3.994   5.189   6.435
36895SOL     OW12581   0.491   6.478   4.926
36895SOL    HW112582   0.546   6.457   4.850
36895SOL    HW212583   0.546   6.536   4.979
36896SOL     OW12584   3.354   8.035  13.521
36896SOL    HW112585   3.298   8.004  13.592
36896SOL    HW212586   3.322   8.124  13.502
36897SOL     OW12587   3.024   4.733   4.735
36897SOL    HW112588   3.030   4.684   4.817
36897SOL    HW212589   2.931   4.729   4.711
36898SOL     OW12590  10.649   0.533   5.541
36898SOL    HW112591  10.671   0.541   5.634
36898SOL    HW212592  10.555   0.549   5.537
36899SOL     OW12593   1.447   0.660   6.168
36899SOL    HW112594   1.511   0.683   6.236
36899SOL    HW212595   1.404   0.742   6.146
36900SOL     OW12596   8.741   4.115   6.025
36900SOL    HW112597   8.750   4.111   5.930
36900SOL    HW212598   8.816   4.065   6.058
36901SOL     OW12599  10.979   1.231   3.937
36901SOL    HW112600  10.959   1.195   3.850
36901SOL    HW212601  11.070   1.209   3.952
36902SOL     OW12602   6.616   4.037   2.243
36902SOL    HW112603   6.635   4.083   2.325
36902SOL    HW212604   6.687   3.974   2.234
36903SOL     OW12605  14.033   9.222  12.519
36903SOL    HW112606  13.983   9.199  12.597
36903SOL    HW212607  14.088   9.295  12.547
36904SOL     OW12608  14.193   9.138  10.028
36904SOL    HW112609  14.235   9.158  10.112
36904SOL    HW212610  14.245   9.185   9.963
36905SOL     OW12611   1.015   3.902   9.636
36905SOL    HW112612   1.079   3.950   9.688
36905SOL    HW212613   0.955   3.864   9.700
36906SOL     OW12614  12.886   7.879   6.861
36906SOL    HW112615  12.835   7.839   6.931
36906SOL    HW212616  12.904   7.968   6.892
36907SOL     OW12617  10.531   7.890  13.532
36907SOL    HW112618  10.545   7.939  13.451
36907SOL    HW212619  10.616   7.894  13.577
36908SOL     OW12620   8.797   2.373   2.462
36908SOL    HW112621   8.867   2.436   2.442
36908SOL    HW212622   8.737   2.379   2.388
36909SOL     OW12623   7.603   7.539  12.911
36909SOL    HW112624   7.563   7.474  12.853
36909SOL    HW212625   7.621   7.614  12.854
36910SOL     OW12626  10.869  13.846   7.783
36910SOL    HW112627  10.779  13.818   7.797
36910SOL    HW212628  10.915  13.823   7.864
36911SOL     OW12629   7.456  14.184   6.046
36911SOL    HW112630   7.539  14.142   6.068
36911SOL    HW212631   7.470  14.277   6.063
36912SOL     OW12632   8.142   9.286  14.303
36912SOL    HW112633   8.096   9.211  14.342
36912SOL    HW212634   8.078   9.358  14.307
36913SOL     OW12635  10.598   7.234  11.213
36913SOL    HW112636  10.580   7.311  11.160
36913SOL    HW212637  10.568   7.160  11.159
36914SOL     OW12638   5.969  11.950   0.441
36914SOL    HW112639   5.936  11.929   0.353
36914SOL    HW212640   5.893  11.936   0.498
36915SOL     OW12641   4.479  11.809  11.887
36915SOL    HW112642   4.424  11.829  11.962
36915SOL    HW212643   4.417  11.795  11.815
36916SOL     OW12644   2.151   0.685   9.369
36916SOL    HW112645   2.221   0.719   9.424
36916SOL    HW212646   2.075   0.740   9.389
36917SOL     OW12647   1.660   9.406   4.457
36917SOL    HW112648   1.631   9.437   4.543
36917SOL    HW212649   1.602   9.333   4.437
36918SOL     OW12650  13.625   7.353   4.880
36918SOL    HW112651  13.588   7.278   4.834
36918SOL    HW212652  13.616   7.330   4.973
36919SOL     OW12653   6.485   4.164  12.480
36919SOL    HW112654   6.514   4.246  12.440
36919SOL    HW212655   6.389   4.169  12.477
36920SOL     OW12656   4.174   8.292   9.934
36920SOL    HW112657   4.206   8.202   9.923
36920SOL    HW212658   4.138   8.316   9.849
36921SOL     OW12659   9.990   6.535  14.219
36921SOL    HW112660  10.075   6.564  14.251
36921SOL    HW212661   9.934   6.534  14.296
36922SOL     OW12662   5.979  13.462  13.456
36922SOL    HW112663   5.951  13.493  13.370
36922SOL    HW212664   5.994  13.541  13.507
36923SOL     OW12665   7.838  14.705   1.051
36923SOL    HW112666   7.918  14.662   1.021
36923SOL    HW212667   7.774  14.635   1.056
36924SOL     OW12668   4.011  13.287   3.248
36924SOL    HW112669   4.089  13.262   3.199
36924SOL    HW212670   4.045  13.325   3.329
36925SOL     OW12671   7.625  12.231   6.356
36925SOL    HW112672   7.557  12.194   6.301
36925SOL    HW212673   7.668  12.297   6.302
36926SOL     OW12674   0.589   2.341   2.442
36926SOL    HW112675   0.535   2.284   2.388
36926SOL    HW212676   0.668   2.355   2.390
36927SOL     OW12677   8.087  13.636  13.958
36927SOL    HW112678   8.072  13.630  14.052
36927SOL    HW212679   8.135  13.718  13.947
36928SOL     OW12680   3.392  13.290   9.435
36928SOL    HW112681   3.298  13.279   9.422
36928SOL    HW212682   3.400  13.334   9.519
36929SOL     OW12683  14.795   1.992   2.742
36929SOL    HW112684  14.733   1.919   2.740
36929SOL    HW212685  14.867   1.960   2.796
36930SOL     OW12686   2.273  12.382   0.875
36930SOL    HW112687   2.216  12.370   0.799
36930SOL    HW212688   2.258  12.472   0.903
36931SOL     OW12689  12.650  11.963   1.058
36931SOL    HW112690  12.598  11.998   1.129
36931SOL    HW212691  12.724  12.023   1.050
36932SOL     OW12692   0.687  13.610  14.851
36932SOL    HW112693   0.604  13.571   0.008
36932SOL    HW212694   0.724  13.647   0.060
36933SOL     OW12695   7.626   8.587   2.981
36933SOL    HW112696   7.567   8.527   3.027
36933SOL    HW212697   7.596   8.585   2.890
36934SOL     OW12698  13.045  13.444  12.208
36934SOL    HW112699  12.953  13.471  12.213
36934SOL    HW212700  13.074  13.444  12.299
36935SOL     OW12701  12.258   5.898  10.071
36935SOL    HW112702  12.170   5.862  10.081
36935SOL    HW212703  12.317   5.825  10.087
36936SOL     OW12704   0.727  10.547   7.015
36936SOL    HW112705   0.725  10.466   7.068
36936SOL    HW212706   0.794  10.601   7.057
36937SOL     OW12707   5.035   8.182   3.020
36937SOL    HW112708   4.941   8.166   3.010
36937SOL    HW212709   5.072   8.156   2.935
36938SOL     OW12710  13.645  10.986   0.837
36938SOL    HW112711  13.721  10.930   0.826
36938SOL    HW212712  13.658  11.027   0.923
36939SOL     OW12713   5.514  13.172  11.037
36939SOL    HW112714   5.422  13.168  11.063
36939SOL    HW212715   5.560  13.198  11.116
36940SOL     OW12716   1.594   9.631   6.227
36940SOL    HW112717   1.548   9.570   6.169
36940SOL    HW212718   1.637   9.693   6.167
36941SOL     OW12719   3.442   4.192   8.244
36941SOL    HW112720   3.396   4.110   8.224
36941SOL    HW212721   3.534   4.174   8.221
36942SOL     OW12722   2.964  10.443   9.392
36942SOL    HW112723   2.931  10.431   9.482
36942SOL    HW212724   2.885  10.444   9.338
36943SOL     OW12725   3.052   1.646   1.082
36943SOL    HW112726   3.104   1.635   1.003
36943SOL    HW212727   3.027   1.556   1.106
36944SOL     OW12728  12.509   1.729  10.592
36944SOL    HW112729  12.541   1.708  10.504
36944SOL    HW212730  12.565   1.801  10.621
36945SOL     OW12731   6.865  14.699   1.342
36945SOL    HW112732   6.903  14.686   1.256
36945SOL    HW212733   6.800  14.768   1.329
36946SOL     OW12734   7.434   7.617  12.120
36946SOL    HW112735   7.509   7.585  12.169
36946SOL    HW212736   7.369   7.638  12.187
36947SOL     OW12737  12.292   9.090   1.873
36947SOL    HW112738  12.306   9.133   1.958
36947SOL    HW212739  12.371   9.112   1.823
36948SOL     OW12740   6.844   1.639   9.048
36948SOL    HW112741   6.920   1.677   9.092
36948SOL    HW212742   6.880   1.597   8.970
36949SOL     OW12743   7.812   5.773  12.109
36949SOL    HW112744   7.890   5.814  12.072
36949SOL    HW212745   7.822   5.680  12.090
36950SOL     OW12746   8.551  13.731   0.731
36950SOL    HW112747   8.647  13.734   0.725
36950SOL    HW212748   8.524  13.822   0.724
36951SOL     OW12749   0.213   7.120  10.391
36951SOL    HW112750   0.291   7.075  10.360
36951SOL    HW212751   0.230   7.212  10.376
36952SOL     OW12752  12.758  11.188   0.414
36952SOL    HW112753  12.726  11.272   0.447
36952SOL    HW212754  12.718  11.123   0.471
36953SOL     OW12755   0.471   7.713   1.102
36953SOL    HW112756   0.509   7.670   1.026
36953SOL    HW212757   0.472   7.646   1.171
36954SOL     OW12758   4.088   5.079   4.442
36954SOL    HW112759   4.063   5.018   4.373
36954SOL    HW212760   4.025   5.063   4.512
36955SOL     OW12761  14.210   3.618   2.597
36955SOL    HW112762  14.203   3.583   2.508
36955SOL    HW212763  14.159   3.698   2.595
36956SOL     OW12764  12.586  11.646   4.915
36956SOL    HW112765  12.575  11.555   4.888
36956SOL    HW212766  12.507  11.666   4.965
36957SOL     OW12767   9.857   4.274   1.185
36957SOL    HW112768   9.908   4.342   1.227
36957SOL    HW212769   9.787   4.254   1.247
36958SOL     OW12770   3.447   9.704   8.902
36958SOL    HW112771   3.467   9.797   8.910
36958SOL    HW212772   3.391   9.698   8.824
36959SOL     OW12773   5.845   8.731  10.113
36959SOL    HW112774   5.792   8.744  10.035
36959SOL    HW212775   5.926   8.781  10.095
36960SOL     OW12776   2.601   3.502   9.263
36960SOL    HW112777   2.508   3.509   9.242
36960SOL    HW212778   2.645   3.529   9.182
36961SOL     OW12779   0.772   4.330   8.682
36961SOL    HW112780   0.777   4.361   8.591
36961SOL    HW212781   0.729   4.401   8.729
36962SOL     OW12782   6.729  10.394   8.740
36962SOL    HW112783   6.814  10.437   8.752
36962SOL    HW212784   6.729  10.323   8.805
36963SOL     OW12785   5.153   3.656   8.151
36963SOL    HW112786   5.157   3.582   8.211
36963SOL    HW212787   5.139   3.732   8.207
36964SOL     OW12788   3.325   1.234  10.233
36964SOL    HW112789   3.233   1.227  10.207
36964SOL    HW212790   3.371   1.261  10.154
36965SOL     OW12791   3.960  11.386  10.565
36965SOL    HW112792   3.973  11.296  10.594
36965SOL    HW212793   4.026  11.399  10.497
36966SOL     OW12794  13.775  12.710   7.538
36966SOL    HW112795  13.839  12.707   7.466
36966SOL    HW212796  13.794  12.631   7.589
36967SOL     OW12797  11.699   8.958  14.391
36967SOL    HW112798  11.768   8.892  14.382
36967SOL    HW212799  11.723   9.026  14.328
36968SOL     OW12800   3.759   5.104  13.394
36968SOL    HW112801   3.718   5.136  13.474
36968SOL    HW212802   3.796   5.019  13.418
36969SOL     OW12803  14.445   7.816   3.730
36969SOL    HW112804  14.476   7.889   3.676
36969SOL    HW212805  14.454   7.739   3.674
36970SOL     OW12806   4.630   3.361  13.242
36970SOL    HW112807   4.541   3.396  13.240
36970SOL    HW212808   4.672   3.397  13.165
36971SOL     OW12809  10.846   5.021   7.902
36971SOL    HW112810  10.756   4.999   7.878
36971SOL    HW212811  10.840   5.110   7.936
36972SOL     OW12812   7.400   4.061  11.668
36972SOL    HW112813   7.414   4.140  11.720
36972SOL    HW212814   7.461   4.069  11.595
36973SOL     OW12815   2.150   4.668   7.006
36973SOL    HW112816   2.079   4.732   7.014
36973SOL    HW212817   2.129   4.601   7.072
36974SOL     OW12818  13.384  11.115   3.328
36974SOL    HW112819  13.399  11.049   3.261
36974SOL    HW212820  13.447  11.185   3.307
36975SOL     OW12821   1.903   0.481   2.298
36975SOL    HW112822   1.849   0.537   2.354
36975SOL    HW212823   1.841   0.421   2.257
36976SOL     OW12824   0.487  14.642   5.364
36976SOL    HW112825   0.451  14.587   5.295
36976SOL    HW212826   0.458  14.601   5.446
36977SOL     OW12827   8.536   1.115   7.175
36977SOL    HW112828   8.585   1.120   7.092
36977SOL    HW212829   8.604   1.112   7.242
36978SOL     OW12830   6.698   5.729   8.800
36978SOL    HW112831   6.726   5.717   8.710
36978SOL    HW212832   6.706   5.642   8.840
36979SOL     OW12833   8.361  12.741   1.336
36979SOL    HW112834   8.430  12.793   1.377
36979SOL    HW212835   8.312  12.703   1.409
36980SOL     OW12836   2.974  12.845   5.764
36980SOL    HW112837   2.940  12.932   5.745
36980SOL    HW212838   2.897  12.791   5.777
36981SOL     OW12839  14.363   1.565   4.911
36981SOL    HW112840  14.379   1.529   4.998
36981SOL    HW212841  14.411   1.648   4.909
36982SOL     OW12842   6.983   0.979   3.020
36982SOL    HW112843   6.968   1.073   3.024
36982SOL    HW212844   7.062   0.965   3.074
36983SOL     OW12845  10.586   0.291  10.068
36983SOL    HW112846  10.578   0.207  10.023
36983SOL    HW212847  10.509   0.341  10.040
36984SOL     OW12848  13.535  11.314  14.053
36984SOL    HW112849  13.561  11.405  14.038
36984SOL    HW212850  13.455  11.320  14.104
36985SOL     OW12851   4.549   2.145  14.291
36985SOL    HW112852   4.507   2.090  14.226
36985SOL    HW212853   4.632   2.172  14.250
36986SOL     OW12854  11.945  11.576   0.183
36986SOL    HW112855  11.938  11.592   0.089
36986SOL    HW212856  11.944  11.663   0.223
36987SOL     OW12857   2.836  14.007  14.814
36987SOL    HW112858   2.780  14.075  14.778
36987SOL    HW212859   2.777  13.933  14.831
36988SOL     OW12860   8.732  12.784  11.833
36988SOL    HW112861   8.827  12.781  11.843
36988SOL    HW212862   8.715  12.734  11.753
36989SOL     OW12863   1.298   5.776  12.334
36989SOL    HW112864   1.361   5.735  12.275
36989SOL    HW212865   1.305   5.870  12.316
36990SOL     OW12866  13.998   7.555   8.323
36990SOL    HW112867  14.051   7.627   8.357
36990SOL    HW212868  13.985   7.497   8.398
36991SOL     OW12869  14.442  14.260  14.410
36991SOL    HW112870  14.382  14.196  14.373
36991SOL    HW212871  14.398  14.344  14.397
36992SOL     OW12872   5.182  13.487   8.269
36992SOL    HW112873   5.131  13.407   8.282
36992SOL    HW212874   5.230  13.498   8.351
36993SOL     OW12875  10.864  13.636  14.745
36993SOL    HW112876  10.776  13.606  14.769
36993SOL    HW212877  10.857  13.656  14.651
36994SOL     OW12878   1.854   8.692   7.743
36994SOL    HW112879   1.799   8.770   7.752
36994SOL    HW212880   1.944   8.724   7.751
36995SOL     OW12881  13.313   3.615   0.994
36995SOL    HW112882  13.322   3.648   0.905
36995SOL    HW212883  13.249   3.544   0.988
36996SOL     OW12884   8.022   1.480   2.035
36996SOL    HW112885   7.960   1.472   1.962
36996SOL    HW212886   8.005   1.403   2.090
36997SOL     OW12887   3.266   9.187   9.188
36997SOL    HW112888   3.255   9.141   9.105
36997SOL    HW212889   3.217   9.269   9.176
36998SOL     OW12890  12.608   8.818  13.347
36998SOL    HW112891  12.630   8.792  13.437
36998SOL    HW212892  12.680   8.786  13.294
36999SOL     OW12893  12.173   0.083   0.694
36999SOL    HW112894  12.150  14.869   0.731
36999SOL    HW212895  12.129   0.146   0.750
37000SOL     OW12896  13.818  11.629  12.852
37000SOL    HW112897  13.772  11.572  12.915
37000SOL    HW212898  13.750  11.656  12.790
37001SOL     OW12899   8.572  11.229   6.892
37001SOL    HW112900   8.563  11.300   6.828
37001SOL    HW212901   8.665  11.229   6.915
37002SOL     OW12902  10.467   4.528   5.793
37002SOL    HW112903  10.372   4.521   5.801
37002SOL    HW212904  10.483   4.618   5.765
37003SOL     OW12905   4.799   6.014   6.953
37003SOL    HW112906   4.719   5.976   6.917
37003SOL    HW212907   4.862   6.009   6.881
37004SOL     OW12908  13.454   6.891   0.438
37004SOL    HW112909  13.493   6.978   0.447
37004SOL    HW212910  13.523   6.831   0.467
37005SOL     OW12911   3.576   0.560   0.236
37005SOL    HW112912   3.638   0.518   0.175
37005SOL    HW212913   3.590   0.654   0.223
37006SOL     OW12914  13.278   9.277   7.300
37006SOL    HW112915  13.210   9.210   7.293
37006SOL    HW212916  13.245   9.336   7.368
37007SOL     OW12917   4.387   5.921  11.939
37007SOL    HW112918   4.368   5.899  12.030
37007SOL    HW212919   4.438   6.002  11.945
37008SOL     OW12920   1.891   9.951  12.159
37008SOL    HW112921   1.822  10.016  12.172
37008SOL    HW212922   1.947   9.959  12.236
37009SOL     OW12923   7.898   0.830   9.580
37009SOL    HW112924   7.882   0.888   9.505
37009SOL    HW212925   7.993   0.837   9.595
37010SOL     OW12926   7.019   8.679   4.033
37010SOL    HW112927   7.104   8.701   4.073
37010SOL    HW212928   7.019   8.728   3.950
37011SOL     OW12929   3.217   2.530   8.878
37011SOL    HW112930   3.204   2.493   8.790
37011SOL    HW212931   3.312   2.521   8.893
37012SOL     OW12932  13.579  10.892   7.020
37012SOL    HW112933  13.643  10.909   6.951
37012SOL    HW212934  13.613  10.939   7.096
37013SOL     OW12935  12.967  10.838   5.500
37013SOL    HW112936  12.900  10.894   5.462
37013SOL    HW212937  13.012  10.893   5.564
37014SOL     OW12938  10.662   2.918  13.832
37014SOL    HW112939  10.583   2.865  13.819
37014SOL    HW212940  10.656   2.949  13.922
37015SOL     OW12941   6.273   8.520  11.963
37015SOL    HW112942   6.268   8.589  11.898
37015SOL    HW212943   6.354   8.473  11.943
37016SOL     OW12944   3.582  10.496   5.893
37016SOL    HW112945   3.628  10.413   5.882
37016SOL    HW212946   3.500  10.485   5.846
37017SOL     OW12947   5.035   6.948   2.829
37017SOL    HW112948   4.966   7.004   2.793
37017SOL    HW212949   4.988   6.882   2.881
37018SOL     OW12950   4.169  12.188   9.339
37018SOL    HW112951   4.116  12.234   9.405
37018SOL    HW212952   4.223  12.127   9.389
37019SOL     OW12953   1.239   8.397  11.876
37019SOL    HW112954   1.225   8.334  11.947
37019SOL    HW212955   1.294   8.350  11.813
37020SOL     OW12956  14.010   6.759   4.558
37020SOL    HW112957  13.997   6.804   4.642
37020SOL    HW212958  13.956   6.808   4.496
37021SOL     OW12959  14.442   0.293   1.656
37021SOL    HW112960  14.398   0.286   1.741
37021SOL    HW212961  14.500   0.217   1.653
37022SOL     OW12962  11.711   9.256  10.668
37022SOL    HW112963  11.671   9.248  10.581
37022SOL    HW212964  11.655   9.318  10.714
37023SOL     OW12965   4.914   1.426   7.512
37023SOL    HW112966   4.960   1.450   7.593
37023SOL    HW212967   4.907   1.330   7.517
37024SOL     OW12968   3.830  12.064   4.129
37024SOL    HW112969   3.825  12.159   4.116
37024SOL    HW212970   3.912  12.051   4.178
37025SOL     OW12971   1.387  12.066   4.259
37025SOL    HW112972   1.439  11.988   4.240
37025SOL    HW212973   1.319  12.034   4.319
37026SOL     OW12974  10.121   0.718   4.210
37026SOL    HW112975  10.053   0.654   4.188
37026SOL    HW212976  10.094   0.798   4.166
37027SOL     OW12977   1.570   7.341  14.370
37027SOL    HW112978   1.588   7.374  14.458
37027SOL    HW212979   1.500   7.276  14.383
37028SOL     OW12980   5.431   3.361   9.069
37028SOL    HW112981   5.415   3.302   9.143
37028SOL    HW212982   5.523   3.386   9.078
37029SOL     OW12983   1.526   5.879   9.498
37029SOL    HW112984   1.615   5.845   9.513
37029SOL    HW212985   1.529   5.913   9.408
37030SOL     OW12986  12.592   6.512   0.242
37030SOL    HW112987  12.596   6.416   0.235
37030SOL    HW212988  12.554   6.529   0.327
37031SOL     OW12989  12.244  11.326   2.257
37031SOL    HW112990  12.282  11.269   2.323
37031SOL    HW212991  12.183  11.271   2.209
37032SOL     OW12992  14.264   2.630   8.668
37032SOL    HW112993  14.281   2.541   8.698
37032SOL    HW212994  14.177   2.627   8.629
37033SOL     OW12995   7.180   6.481   5.032
37033SOL    HW112996   7.271   6.480   5.061
37033SOL    HW212997   7.163   6.392   5.003
37034SOL     OW12998   5.045  12.362   1.417
37034SOL    HW112999   5.134  12.387   1.441
37034SOL    HW213000   5.029  12.404   1.333
37035SOL     OW13001   2.645   4.152  12.175
37035SOL    HW113002   2.596   4.223  12.217
37035SOL    HW213003   2.712   4.196  12.123
37036SOL     OW13004   5.449  14.252   3.194
37036SOL    HW113005   5.464  14.232   3.102
37036SOL    HW213006   5.537  14.265   3.230
37037SOL     OW13007   4.044   9.643   6.407
37037SOL    HW113008   4.086   9.571   6.361
37037SOL    HW213009   4.053   9.622   6.500
37038SOL     OW13010   0.254   4.914   2.477
37038SOL    HW113011   0.269   4.899   2.570
37038SOL    HW213012   0.287   5.003   2.462
37039SOL     OW13013   0.928   6.260   4.169
37039SOL    HW113014   0.965   6.245   4.082
37039SOL    HW213015   0.934   6.175   4.212
37040SOL     OW13016  10.203   9.688  11.200
37040SOL    HW113017  10.130   9.724  11.149
37040SOL    HW213018  10.198   9.735  11.284
37041SOL     OW13019   0.941  11.654  11.670
37041SOL    HW113020   0.948  11.746  11.695
37041SOL    HW213021   0.985  11.607  11.740
37042SOL     OW13022   1.366  12.942   5.071
37042SOL    HW113023   1.420  13.003   5.021
37042SOL    HW213024   1.427  12.900   5.131
37043SOL     OW13025  13.581  12.458   2.743
37043SOL    HW113026  13.516  12.393   2.713
37043SOL    HW213027  13.562  12.536   2.691
37044SOL     OW13028   6.472   6.648   0.514
37044SOL    HW113029   6.546   6.684   0.466
37044SOL    HW213030   6.492   6.665   0.606
37045SOL     OW13031   0.123   3.307   6.112
37045SOL    HW113032   0.122   3.263   6.197
37045SOL    HW213033   0.064   3.255   6.058
37046SOL     OW13034   3.398   3.617  12.408
37046SOL    HW113035   3.334   3.623  12.337
37046SOL    HW213036   3.481   3.599  12.365
37047SOL     OW13037   4.863  10.190   5.105
37047SOL    HW113038   4.840  10.127   5.037
37047SOL    HW213039   4.806  10.168   5.178
37048SOL     OW13040  12.453  12.452   8.868
37048SOL    HW113041  12.497  12.428   8.949
37048SOL    HW213042  12.429  12.369   8.828
37049SOL     OW13043   0.236   7.641  10.898
37049SOL    HW113044   0.281   7.677  10.974
37049SOL    HW213045   0.245   7.546  10.908
37050SOL     OW13046  10.061   4.494   7.547
37050SOL    HW113047  10.015   4.462   7.469
37050SOL    HW213048   9.992   4.507   7.612
37051SOL     OW13049  11.980  10.142   4.138
37051SOL    HW113050  12.042  10.186   4.197
37051SOL    HW213051  11.946  10.069   4.190
37052SOL     OW13052  11.261   3.609  11.022
37052SOL    HW113053  11.250   3.688  10.969
37052SOL    HW213054  11.186   3.555  10.999
37053SOL     OW13055   3.234  10.725   1.972
37053SOL    HW113056   3.202  10.636   1.956
37053SOL    HW213057   3.300  10.739   1.904
37054SOL     OW13058   7.004  13.763   0.664
37054SOL    HW113059   7.063  13.742   0.737
37054SOL    HW213060   7.040  13.844   0.627
37055SOL     OW13061  14.116   0.570   2.264
37055SOL    HW113062  14.053   0.642   2.264
37055SOL    HW213063  14.182   0.595   2.199
37056SOL     OW13064  11.837   4.778  13.126
37056SOL    HW113065  11.830   4.841  13.054
37056SOL    HW213066  11.840   4.693  13.082
37057SOL     OW13067   4.467  13.123   2.035
37057SOL    HW113068   4.490  13.191   1.971
37057SOL    HW213069   4.376  13.141   2.058
37058SOL     OW13070   1.855   2.604   5.964
37058SOL    HW113071   1.774   2.594   5.915
37058SOL    HW213072   1.838   2.675   6.025
37059SOL     OW13073  11.601  14.032  13.746
37059SOL    HW113074  11.517  14.076  13.759
37059SOL    HW213075  11.584  13.967  13.678
37060SOL     OW13076  14.666   9.717   8.172
37060SOL    HW113077  14.706   9.687   8.254
37060SOL    HW213078  14.724   9.685   8.104
37061SOL     OW13079   6.855  13.857  14.269
37061SOL    HW113080   6.909  13.924  14.227
37061SOL    HW213081   6.768  13.897  14.276
37062SOL     OW13082   2.281  11.920   2.807
37062SOL    HW113083   2.361  11.900   2.855
37062SOL    HW213084   2.303  11.997   2.755
37063SOL     OW13085   1.857   2.311   2.558
37063SOL    HW113086   1.886   2.221   2.573
37063SOL    HW213087   1.937   2.364   2.568
37064SOL     OW13088   3.375   6.849   4.810
37064SOL    HW113089   3.320   6.889   4.743
37064SOL    HW213090   3.463   6.850   4.773
37065SOL     OW13091   1.417  13.695   0.317
37065SOL    HW113092   1.386  13.726   0.402
37065SOL    HW213093   1.506  13.664   0.333
37066SOL     OW13094   8.313   7.891   4.945
37066SOL    HW113095   8.300   7.978   4.908
37066SOL    HW213096   8.374   7.848   4.884
37067SOL     OW13097   2.226   9.101   9.101
37067SOL    HW113098   2.241   9.034   9.035
37067SOL    HW213099   2.312   9.117   9.139
37068SOL     OW13100  10.966  10.965   2.610
37068SOL    HW113101  10.874  10.989   2.622
37068SOL    HW213102  10.969  10.871   2.626
37069SOL     OW13103   3.473   0.592   7.437
37069SOL    HW113104   3.439   0.525   7.496
37069SOL    HW213105   3.445   0.564   7.350
37070SOL     OW13106  11.261   8.210   0.834
37070SOL    HW113107  11.189   8.271   0.818
37070SOL    HW213108  11.328   8.262   0.879
37071SOL     OW13109  14.638   4.804  13.691
37071SOL    HW113110  14.686   4.738  13.640
37071SOL    HW213111  14.640   4.883  13.636
37072SOL     OW13112   5.845   0.248  12.385
37072SOL    HW113113   5.759   0.223  12.417
37072SOL    HW213114   5.850   0.209  12.297
37073SOL     OW13115   7.799   2.555  10.543
37073SOL    HW113116   7.769   2.639  10.578
37073SOL    HW213117   7.888   2.574  10.512
37074SOL     OW13118   7.409  10.025  13.635
37074SOL    HW113119   7.418   9.930  13.624
37074SOL    HW213120   7.387  10.037  13.727
37075SOL     OW13121  12.580  12.134   1.263
37075SOL    HW113122  12.632  12.205   1.225
37075SOL    HW213123  12.492  12.171   1.269
37076SOL     OW13124  14.275   2.343   1.765
37076SOL    HW113125  14.304   2.431   1.789
37076SOL    HW213126  14.351   2.287   1.781
37077SOL     OW13127   0.475  13.377   5.137
37077SOL    HW113128   0.504  13.376   5.229
37077SOL    HW213129   0.406  13.442   5.135
37078SOL     OW13130   2.936   6.597  12.720
37078SOL    HW113131   3.017   6.645  12.735
37078SOL    HW213132   2.908   6.624  12.633
37079SOL     OW13133   6.231  11.148   8.629
37079SOL    HW113134   6.224  11.086   8.557
37079SOL    HW213135   6.193  11.103   8.704
37080SOL     OW13136  14.724   8.888  13.242
37080SOL    HW113137  14.667   8.965  13.237
37080SOL    HW213138  14.732   8.870  13.336
37081SOL     OW13139   0.397   2.271   7.228
37081SOL    HW113140   0.431   2.221   7.154
37081SOL    HW213141   0.351   2.345   7.188
37082SOL     OW13142   5.212   5.926   0.703
37082SOL    HW113143   5.248   5.951   0.788
37082SOL    HW213144   5.120   5.952   0.707
37083SOL     OW13145   6.616  12.838   1.333
37083SOL    HW113146   6.601  12.823   1.240
37083SOL    HW213147   6.655  12.926   1.337
37084SOL     OW13148  10.367   9.258   5.472
37084SOL    HW113149  10.432   9.220   5.413
37084SOL    HW213150  10.348   9.344   5.435
37085SOL     OW13151  13.452   8.952   3.775
37085SOL    HW113152  13.381   8.999   3.732
37085SOL    HW213153  13.410   8.902   3.845
37086SOL     OW13154  13.931   7.613  11.653
37086SOL    HW113155  14.008   7.556  11.644
37086SOL    HW213156  13.968   7.700  11.665
37087SOL     OW13157   7.856  13.823  11.314
37087SOL    HW113158   7.893  13.906  11.286
37087SOL    HW213159   7.761  13.833  11.303
37088SOL     OW13160   2.503   6.925   8.315
37088SOL    HW113161   2.454   7.003   8.342
37088SOL    HW213162   2.566   6.911   8.385
37089SOL     OW13163   0.584   0.494   0.432
37089SOL    HW113164   0.614   0.576   0.393
37089SOL    HW213165   0.524   0.458   0.367
37090SOL     OW13166   7.777   4.974   8.107
37090SOL    HW113167   7.770   4.879   8.101
37090SOL    HW213168   7.772   4.992   8.201
37091SOL     OW13169  12.981   3.410   7.127
37091SOL    HW113170  13.007   3.331   7.174
37091SOL    HW213171  13.045   3.476   7.154
37092SOL     OW13172   4.144   0.822   2.325
37092SOL    HW113173   4.092   0.743   2.311
37092SOL    HW213174   4.132   0.843   2.418
37093SOL     OW13175  10.613   1.693  14.408
37093SOL    HW113176  10.652   1.675  14.493
37093SOL    HW213177  10.588   1.607  14.374
37094SOL     OW13178   6.104   4.940   8.055
37094SOL    HW113179   6.197   4.958   8.059
37094SOL    HW213180   6.066   5.017   8.014
37095SOL     OW13181  11.678  10.401   1.317
37095SOL    HW113182  11.751  10.416   1.258
37095SOL    HW213183  11.671  10.482   1.368
37096SOL     OW13184   6.121   1.410  14.773
37096SOL    HW113185   6.119   1.445  14.684
37096SOL    HW213186   6.190   1.343  14.771
37097SOL     OW13187   4.173   1.400   4.347
37097SOL    HW113188   4.115   1.361   4.282
37097SOL    HW213189   4.123   1.399   4.429
37098SOL     OW13190   0.019   0.598   3.765
37098SOL    HW113191   0.112   0.610   3.785
37098SOL    HW213192   0.019   0.547   3.684
37099SOL     OW13193   0.293  13.337   6.481
37099SOL    HW113194   0.235  13.374   6.548
37099SOL    HW213195   0.288  13.242   6.495
37100SOL     OW13196  13.574   8.572  12.465
37100SOL    HW113197  13.655   8.623  12.465
37100SOL    HW213198  13.506   8.636  12.442
37101SOL     OW13199   4.534   6.884   3.193
37101SOL    HW113200   4.613   6.905   3.241
37101SOL    HW213201   4.554   6.801   3.149
37102SOL     OW13202   1.316   7.469   1.391
37102SOL    HW113203   1.406   7.454   1.360
37102SOL    HW213204   1.284   7.381   1.412
37103SOL     OW13205   8.283   4.704   6.559
37103SOL    HW113206   8.378   4.701   6.570
37103SOL    HW213207   8.271   4.721   6.465
37104SOL     OW13208   2.687   2.475  11.873
37104SOL    HW113209   2.610   2.528  11.892
37104SOL    HW213210   2.679   2.400  11.932
37105SOL     OW13211  10.821   5.384  10.997
37105SOL    HW113212  10.794   5.427  10.916
37105SOL    HW213213  10.740   5.377  11.049
37106SOL     OW13214   4.281  12.529   2.502
37106SOL    HW113215   4.260  12.469   2.573
37106SOL    HW213216   4.322  12.604   2.545
37107SOL     OW13217  12.263   2.328  14.272
37107SOL    HW113218  12.332   2.383  14.235
37107SOL    HW213219  12.192   2.388  14.292
37108SOL     OW13220   8.297   5.340   6.355
37108SOL    HW113221   8.231   5.406   6.333
37108SOL    HW213222   8.248   5.269   6.395
37109SOL     OW13223  12.352  11.058  12.553
37109SOL    HW113224  12.258  11.040  12.549
37109SOL    HW213225  12.377  11.034  12.642
37110SOL     OW13226   0.114   1.687   7.529
37110SOL    HW113227   0.066   1.668   7.610
37110SOL    HW213228   0.114   1.783   7.524
37111SOL     OW13229  12.111   6.719   7.825
37111SOL    HW113230  12.049   6.653   7.855
37111SOL    HW213231  12.134   6.769   7.903
37112SOL     OW13232  12.712   0.044  13.947
37112SOL    HW113233  12.698   0.096  14.026
37112SOL    HW213234  12.736  14.829  13.980
37113SOL     OW13235   7.134   9.261  10.345
37113SOL    HW113236   7.076   9.204  10.295
37113SOL    HW213237   7.222   9.237  10.317
37114SOL     OW13238   5.935  14.178   3.369
37114SOL    HW113239   5.929  14.085   3.388
37114SOL    HW213240   5.875  14.220   3.430
37115SOL     OW13241  11.074   2.076   9.534
37115SOL    HW113242  11.004   2.137   9.509
37115SOL    HW213243  11.047   2.041   9.619
37116SOL     OW13244  12.346  14.547   4.831
37116SOL    HW113245  12.259  14.554   4.791
37116SOL    HW213246  12.337  14.475   4.893
37117SOL     OW13247   0.658   9.203  10.099
37117SOL    HW113248   0.680   9.262  10.026
37117SOL    HW213249   0.564   9.187  10.090
37118SOL     OW13250   7.025  14.752  14.393
37118SOL    HW113251   7.036  14.843  14.364
37118SOL    HW213252   6.931  14.736  14.387
37119SOL     OW13253   5.864   4.417  12.908
37119SOL    HW113254   5.865   4.495  12.853
37119SOL    HW213255   5.814   4.353  12.858
37120SOL     OW13256   0.879  10.080   4.499
37120SOL    HW113257   0.933  10.001   4.500
37120SOL    HW213258   0.940  10.152   4.515
37121SOL     OW13259   9.625   6.926   1.603
37121SOL    HW113260   9.600   6.997   1.543
37121SOL    HW213261   9.624   6.847   1.549
37122SOL     OW13262   6.137  10.500  14.429
37122SOL    HW113263   6.150  10.441  14.354
37122SOL    HW213264   6.089  10.574  14.393
37123SOL     OW13265   5.422   5.769   7.588
37123SOL    HW113266   5.404   5.676   7.576
37123SOL    HW213267   5.510   5.781   7.550
37124SOL     OW13268   7.242   2.098   6.971
37124SOL    HW113269   7.191   2.128   6.896
37124SOL    HW213270   7.186   2.032   7.012
37125SOL     OW13271  14.420   0.910   4.444
37125SOL    HW113272  14.424   0.946   4.533
37125SOL    HW213273  14.396   0.985   4.389
37126SOL     OW13274   0.138   8.430   9.674
37126SOL    HW113275   0.062   8.401   9.624
37126SOL    HW213276   0.204   8.361   9.658
37127SOL     OW13277   4.537   0.029   7.183
37127SOL    HW113278   4.632   0.020   7.189
37127SOL    HW213279   4.503  14.858   7.262
37128SOL     OW13280   8.928   9.963   5.038
37128SOL    HW113281   8.991   9.986   5.107
37128SOL    HW213282   8.854   9.924   5.084
37129SOL     OW13283   8.456  12.662  12.617
37129SOL    HW113284   8.505  12.729  12.568
37129SOL    HW213285   8.378  12.708  12.648
37130SOL     OW13286   2.835  12.765   7.993
37130SOL    HW113287   2.884  12.846   8.005
37130SOL    HW213288   2.766  12.788   7.930
37131SOL     OW13289   9.309   0.537  10.561
37131SOL    HW113290   9.339   0.448  10.576
37131SOL    HW213291   9.290   0.572  10.648
37132SOL     OW13292  13.824   5.884   3.823
37132SOL    HW113293  13.875   5.952   3.867
37132SOL    HW213294  13.751   5.931   3.783
37133SOL     OW13295  12.785   1.702   8.966
37133SOL    HW113296  12.810   1.736   9.051
37133SOL    HW213297  12.828   1.759   8.903
37134SOL     OW13298   2.802   6.386   0.812
37134SOL    HW113299   2.813   6.295   0.839
37134SOL    HW213300   2.718   6.388   0.766
37135SOL     OW13301  14.515   4.937   2.061
37135SOL    HW113302  14.424   4.913   2.078
37135SOL    HW213303  14.529   4.914   1.969
37136SOL     OW13304   4.792   4.265   2.756
37136SOL    HW113305   4.878   4.267   2.799
37136SOL    HW213306   4.808   4.224   2.671
37137SOL     OW13307   4.589  14.850   3.228
37137SOL    HW113308   4.529  14.796   3.176
37137SOL    HW213309   4.566   0.069   3.205
37138SOL     OW13310   2.048   7.666   8.458
37138SOL    HW113311   2.082   7.730   8.395
37138SOL    HW213312   2.091   7.584   8.434
37139SOL     OW13313  10.096   1.482  14.785
37139SOL    HW113314  10.190   1.465  14.781
37139SOL    HW213315  10.056   1.396  14.797
37140SOL     OW13316   9.880   2.154   1.815
37140SOL    HW113317   9.864   2.235   1.864
37140SOL    HW213318   9.975   2.141   1.822
37141SOL     OW13319  11.836   9.793   7.281
37141SOL    HW113320  11.901   9.760   7.219
37141SOL    HW213321  11.870   9.769   7.367
37142SOL     OW13322  14.015   6.628   3.277
37142SOL    HW113323  14.070   6.705   3.262
37142SOL    HW213324  13.927   6.657   3.255
37143SOL     OW13325   1.434   2.675   3.757
37143SOL    HW113326   1.433   2.681   3.661
37143SOL    HW213327   1.416   2.765   3.786
37144SOL     OW13328   3.747   9.335   7.739
37144SOL    HW113329   3.685   9.274   7.779
37144SOL    HW213330   3.741   9.414   7.793
37145SOL     OW13331   3.520  12.185   5.657
37145SOL    HW113332   3.517  12.207   5.750
37145SOL    HW213333   3.432  12.155   5.636
37146SOL     OW13334   6.735  11.512   7.593
37146SOL    HW113335   6.708  11.429   7.633
37146SOL    HW213336   6.820  11.492   7.553
37147SOL     OW13337  11.741   3.464   2.405
37147SOL    HW113338  11.831   3.451   2.374
37147SOL    HW213339  11.719   3.383   2.451
37148SOL     OW13340  13.770   2.482   9.330
37148SOL    HW113341  13.766   2.407   9.389
37148SOL    HW213342  13.733   2.555   9.381
37149SOL     OW13343   4.171  12.488  10.191
37149SOL    HW113344   4.233  12.561  10.185
37149SOL    HW213345   4.103  12.509  10.127
37150SOL     OW13346   9.827   8.094   9.029
37150SOL    HW113347   9.847   8.146   9.107
37150SOL    HW213348   9.804   8.159   8.962
37151SOL     OW13349   1.851   8.915   5.656
37151SOL    HW113350   1.812   8.979   5.715
37151SOL    HW213351   1.935   8.894   5.696
37152SOL     OW13352   4.733   7.383  13.124
37152SOL    HW113353   4.698   7.334  13.050
37152SOL    HW213354   4.747   7.471  13.089
37153SOL     OW13355   0.903   4.280   2.922
37153SOL    HW113356   0.851   4.212   2.880
37153SOL    HW213357   0.992   4.244   2.923
37154SOL     OW13358  14.544   7.055  13.620
37154SOL    HW113359  14.474   6.992  13.602
37154SOL    HW213360  14.507   7.139  13.593
37155SOL     OW13361   8.024   5.102   0.075
37155SOL    HW113362   8.093   5.057   0.025
37155SOL    HW213363   8.072   5.159   0.136
37156SOL     OW13364  14.150   8.379   3.335
37156SOL    HW113365  14.092   8.377   3.411
37156SOL    HW213366  14.198   8.297   3.340
37157SOL     OW13367   2.343   5.939   9.506
37157SOL    HW113368   2.268   5.880   9.513
37157SOL    HW213369   2.384   5.935   9.592
37158SOL     OW13370   0.766   0.738   7.230
37158SOL    HW113371   0.762   0.645   7.208
37158SOL    HW213372   0.847   0.769   7.189
37159SOL     OW13373  14.725   4.458   1.482
37159SOL    HW113374  14.771   4.447   1.566
37159SOL    HW213375  14.700   4.369   1.457
37160SOL     OW13376   6.441  14.289  11.922
37160SOL    HW113377   6.487  14.270  12.004
37160SOL    HW213378   6.393  14.208  11.903
37161SOL     OW13379   6.878   3.922   1.691
37161SOL    HW113380   6.948   3.974   1.651
37161SOL    HW213381   6.797   3.958   1.654
37162SOL     OW13382  12.954   5.487   3.004
37162SOL    HW113383  13.023   5.551   2.985
37162SOL    HW213384  12.977   5.453   3.091
37163SOL     OW13385   7.296   6.859   1.621
37163SOL    HW113386   7.388   6.839   1.636
37163SOL    HW213387   7.280   6.939   1.672
37164SOL     OW13388   6.368  14.413   0.574
37164SOL    HW113389   6.332  14.329   0.546
37164SOL    HW213390   6.439  14.390   0.634
37165SOL     OW13391   8.929   2.173   2.250
37165SOL    HW113392   9.003   2.123   2.284
37165SOL    HW213393   8.879   2.198   2.328
37166SOL     OW13394   5.492   6.873   9.807
37166SOL    HW113395   5.477   6.941   9.741
37166SOL    HW213396   5.520   6.796   9.756
37167SOL     OW13397   8.683  10.441   1.482
37167SOL    HW113398   8.718  10.525   1.455
37167SOL    HW213399   8.588  10.455   1.488
37168SOL     OW13400   4.462  11.565   4.096
37168SOL    HW113401   4.430  11.644   4.139
37168SOL    HW213402   4.436  11.493   4.155
37169SOL     OW13403   2.137   8.361  13.729
37169SOL    HW113404   2.217   8.404  13.758
37169SOL    HW213405   2.082   8.433  13.698
37170SOL     OW13406   3.534   5.697   0.003
37170SOL    HW113407   3.445   5.726  14.852
37170SOL    HW213408   3.547   5.619  14.821
37171SOL     OW13409   9.999   6.669  12.653
37171SOL    HW113410  10.034   6.757  12.668
37171SOL    HW213411  10.032   6.645  12.566
37172SOL     OW13412  11.614   4.367   3.337
37172SOL    HW113413  11.559   4.299   3.298
37172SOL    HW213414  11.566   4.394   3.415
37173SOL     OW13415   3.805  11.876   6.133
37173SOL    HW113416   3.781  11.951   6.078
37173SOL    HW213417   3.877  11.834   6.087
37174SOL     OW13418   9.013   6.198  12.420
37174SOL    HW113419   8.972   6.134  12.361
37174SOL    HW213420   9.044   6.268  12.362
37175SOL     OW13421   6.298   2.979   7.051
37175SOL    HW113422   6.355   2.906   7.075
37175SOL    HW213423   6.216   2.961   7.097
37176SOL     OW13424   6.798   3.685   2.497
37176SOL    HW113425   6.888   3.683   2.527
37176SOL    HW213426   6.796   3.625   2.423
37177SOL     OW13427   6.011  11.628   4.023
37177SOL    HW113428   5.942  11.583   3.974
37177SOL    HW213429   6.039  11.699   3.967
37178SOL     OW13430   8.121   1.335  11.562
37178SOL    HW113431   8.169   1.338  11.645
37178SOL    HW213432   8.058   1.264  11.573
37179SOL     OW13433   6.009  13.490   1.525
37179SOL    HW113434   5.927  13.537   1.514
37179SOL    HW213435   5.985  13.411   1.573
37180SOL     OW13436  10.129  13.853   1.498
37180SOL    HW113437  10.117  13.890   1.410
37180SOL    HW213438  10.222  13.833   1.503
37181SOL     OW13439   1.998  11.770  10.967
37181SOL    HW113440   1.980  11.863  10.950
37181SOL    HW213441   1.921  11.740  11.016
37182SOL     OW13442   1.890  13.841   1.515
37182SOL    HW113443   1.850  13.818   1.598
37182SOL    HW213444   1.970  13.888   1.539
37183SOL     OW13445   9.786   3.583   2.680
37183SOL    HW113446   9.807   3.672   2.707
37183SOL    HW213447   9.758   3.591   2.589
37184SOL     OW13448   3.856   3.630  11.740
37184SOL    HW113449   3.920   3.650  11.672
37184SOL    HW213450   3.789   3.579  11.696
37185SOL     OW13451   7.909   1.012   4.088
37185SOL    HW113452   7.957   1.095   4.089
37185SOL    HW213453   7.817   1.038   4.082
37186SOL     OW13454   8.427  12.856  12.059
37186SOL    HW113455   8.377  12.829  11.983
37186SOL    HW213456   8.364  12.855  12.131
37187SOL     OW13457   1.529   6.599  12.992
37187SOL    HW113458   1.527   6.693  13.009
37187SOL    HW213459   1.593   6.564  13.054
37188SOL     OW13460  13.202   9.308   9.606
37188SOL    HW113461  13.141   9.268   9.543
37188SOL    HW213462  13.289   9.291   9.569
37189SOL     OW13463   1.148  13.130   2.593
37189SOL    HW113464   1.082  13.120   2.662
37189SOL    HW213465   1.192  13.045   2.589
37190SOL     OW13466  12.113   8.557  14.857
37190SOL    HW113467  12.064   8.590   0.061
37190SOL    HW213468  12.090   8.616  14.786
37191SOL     OW13469   1.309   2.314   4.562
37191SOL    HW113470   1.221   2.341   4.536
37191SOL    HW213471   1.352   2.395   4.587
37192SOL     OW13472   8.490   5.431  12.318
37192SOL    HW113473   8.432   5.434  12.242
37192SOL    HW213474   8.578   5.423  12.281
37193SOL     OW13475   9.942   6.223   6.296
37193SOL    HW113476  10.020   6.219   6.352
37193SOL    HW213477   9.940   6.314   6.265
37194SOL     OW13478   5.661   8.656   5.017
37194SOL    HW113479   5.637   8.571   5.053
37194SOL    HW213480   5.647   8.718   5.089
37195SOL     OW13481   3.819   2.864   0.599
37195SOL    HW113482   3.755   2.877   0.670
37195SOL    HW213483   3.774   2.893   0.520
37196SOL     OW13484   6.404   4.962  10.778
37196SOL    HW113485   6.465   4.911  10.725
37196SOL    HW213486   6.352   4.896  10.824
37197SOL     OW13487   4.631   1.578  10.401
37197SOL    HW113488   4.623   1.531  10.318
37197SOL    HW213489   4.562   1.644  10.397
37198SOL     OW13490   8.806   1.106   0.782
37198SOL    HW113491   8.736   1.134   0.840
37198SOL    HW213492   8.830   1.018   0.813
37199SOL     OW13493   3.515  11.202   0.233
37199SOL    HW113494   3.546  11.114   0.257
37199SOL    HW213495   3.420  11.194   0.232
37200SOL     OW13496   4.917  11.071  13.924
37200SOL    HW113497   4.980  11.003  13.900
37200SOL    HW213498   4.963  11.153  13.908
37201SOL     OW13499   9.126   9.176  10.191
37201SOL    HW113500   9.138   9.102  10.132
37201SOL    HW213501   9.114   9.137  10.277
37202SOL     OW13502  10.320   7.007  11.307
37202SOL    HW113503  10.307   6.920  11.269
37202SOL    HW213504  10.369   7.055  11.240
37203SOL     OW13505   9.441  12.144   8.563
37203SOL    HW113506   9.532  12.118   8.550
37203SOL    HW213507   9.390  12.076   8.519
37204SOL     OW13508  11.708   0.272  11.820
37204SOL    HW113509  11.669   0.298  11.736
37204SOL    HW213510  11.783   0.331  11.831
37205SOL     OW13511  13.651  10.499   7.651
37205SOL    HW113512  13.632  10.419   7.603
37205SOL    HW213513  13.704  10.552   7.591
37206SOL     OW13514   1.583  12.815   3.046
37206SOL    HW113515   1.653  12.755   3.020
37206SOL    HW213516   1.622  12.902   3.038
37207SOL     OW13517   7.058  14.684  12.086
37207SOL    HW113518   7.115  14.632  12.029
37207SOL    HW213519   7.100  14.680  12.172
37208SOL     OW13520  13.189   6.758   7.717
37208SOL    HW113521  13.184   6.813   7.796
37208SOL    HW213522  13.281   6.765   7.689
37209SOL     OW13523   8.244   1.305   1.965
37209SOL    HW113524   8.332   1.337   1.984
37209SOL    HW213525   8.186   1.376   1.992
37210SOL     OW13526   0.738  11.918  11.721
37210SOL    HW113527   0.674  11.977  11.760
37210SOL    HW213528   0.810  11.917  11.784
37211SOL     OW13529   1.470  12.398   2.404
37211SOL    HW113530   1.527  12.321   2.409
37211SOL    HW213531   1.498  12.444   2.325
37212SOL     OW13532   4.833  12.884  11.984
37212SOL    HW113533   4.835  12.802  12.034
37212SOL    HW213534   4.841  12.856  11.893
37213SOL     OW13535  10.565   5.759  11.593
37213SOL    HW113536  10.471   5.748  11.580
37213SOL    HW213537  10.584   5.848  11.563
37214SOL     OW13538   6.684   5.122   1.713
37214SOL    HW113539   6.604   5.078   1.683
37214SOL    HW213540   6.654   5.209   1.740
37215SOL     OW13541   2.466   4.450  14.710
37215SOL    HW113542   2.478   4.490  14.623
37215SOL    HW213543   2.539   4.485  14.761
37216SOL     OW13544  13.947  10.540   3.461
37216SOL    HW113545  13.884  10.552   3.533
37216SOL    HW213546  14.032  10.531   3.504
37217SOL     OW13547   3.207  14.324  11.638
37217SOL    HW113548   3.245  14.408  11.612
37217SOL    HW213549   3.267  14.259  11.602
37218SOL     OW13550   8.313   9.692  12.378
37218SOL    HW113551   8.306   9.607  12.335
37218SOL    HW213552   8.299   9.755  12.308
37219SOL     OW13553  10.824   9.971   0.354
37219SOL    HW113554  10.828  10.019   0.437
37219SOL    HW213555  10.732   9.973   0.330
37220SOL     OW13556   8.057   9.023   2.731
37220SOL    HW113557   7.990   9.011   2.799
37220SOL    HW213558   8.036   9.107   2.691
37221SOL     OW13559  10.152   5.898  11.996
37221SOL    HW113560  10.240   5.934  12.010
37221SOL    HW213561  10.163   5.803  12.006
37222SOL     OW13562   9.591   9.022   2.770
37222SOL    HW113563   9.631   9.006   2.685
37222SOL    HW213564   9.559   9.112   2.766
37223SOL     OW13565   5.090   2.258  13.579
37223SOL    HW113566   5.038   2.217  13.510
37223SOL    HW213567   5.058   2.348  13.583
37224SOL     OW13568   3.010  10.083   5.100
37224SOL    HW113569   2.962  10.154   5.058
37224SOL    HW213570   2.950  10.009   5.099
37225SOL     OW13571   2.174   8.872   0.613
37225SOL    HW113572   2.193   8.791   0.565
37225SOL    HW213573   2.221   8.862   0.696
37226SOL     OW13574  13.969   5.352   1.104
37226SOL    HW113575  13.886   5.304   1.097
37226SOL    HW213576  14.031   5.298   1.055
37227SOL     OW13577   8.319   0.106  14.502
37227SOL    HW113578   8.333   0.021  14.544
37227SOL    HW213579   8.392   0.160  14.531
37228SOL     OW13580   9.173   5.923  11.964
37228SOL    HW113581   9.135   5.873  12.036
37228SOL    HW213582   9.159   6.015  11.987
37229SOL     OW13583   8.024   6.888   0.369
37229SOL    HW113584   8.019   6.982   0.355
37229SOL    HW213585   8.115   6.866   0.350
37230SOL     OW13586   4.719   3.980   2.843
37230SOL    HW113587   4.689   4.063   2.806
37230SOL    HW213588   4.760   4.004   2.926
37231SOL     OW13589   4.064   2.217   8.702
37231SOL    HW113590   4.072   2.175   8.617
37231SOL    HW213591   4.136   2.181   8.754
37232SOL     OW13592  13.080  13.521   6.415
37232SOL    HW113593  13.098  13.529   6.508
37232SOL    HW213594  13.166  13.510   6.375
37233SOL     OW13595   7.189  13.651   6.465
37233SOL    HW113596   7.132  13.723   6.437
37233SOL    HW213597   7.231  13.683   6.544
37234SOL     OW13598   8.265   2.588   8.197
37234SOL    HW113599   8.321   2.514   8.174
37234SOL    HW213600   8.291   2.657   8.135
37235SOL     OW13601   7.315  12.142   0.605
37235SOL    HW113602   7.405  12.114   0.588
37235SOL    HW213603   7.313  12.163   0.698
37236SOL     OW13604  12.253   1.019  10.424
37236SOL    HW113605  12.285   1.107  10.406
37236SOL    HW213606  12.224   0.986  10.339
37237SOL     OW13607   8.345  13.938  11.243
37237SOL    HW113608   8.318  13.851  11.275
37237SOL    HW213609   8.336  13.933  11.148
37238SOL     OW13610   6.829   1.077  13.539
37238SOL    HW113611   6.767   1.129  13.488
37238SOL    HW213612   6.889   1.141  13.576
37239SOL     OW13613  10.986   4.585  11.945
37239SOL    HW113614  10.971   4.532  11.866
37239SOL    HW213615  10.900   4.591  11.986
37240SOL     OW13616   2.192  10.364  11.390
37240SOL    HW113617   2.099  10.356  11.373
37240SOL    HW213618   2.228  10.277  11.373
37241SOL     OW13619  13.858  10.985   9.245
37241SOL    HW113620  13.766  11.009   9.251
37241SOL    HW213621  13.870  10.919   9.314
37242SOL     OW13622   0.917  13.122   4.555
37242SOL    HW113623   0.865  13.114   4.635
37242SOL    HW213624   1.008  13.112   4.585
37243SOL     OW13625   9.097  12.681  14.423
37243SOL    HW113626   9.014  12.643  14.394
37243SOL    HW213627   9.163  12.634  14.372
37244SOL     OW13628   3.056  12.321   8.904
37244SOL    HW113629   3.038  12.253   8.839
37244SOL    HW213630   3.147  12.345   8.890
37245SOL     OW13631   8.182   3.202   4.906
37245SOL    HW113632   8.221   3.286   4.928
37245SOL    HW213633   8.228   3.174   4.827
37246SOL     OW13634   9.006  14.355  13.586
37246SOL    HW113635   9.047  14.432  13.545
37246SOL    HW213636   9.018  14.285  13.521
37247SOL     OW13637  10.055   4.566  13.585
37247SOL    HW113638  10.082   4.475  13.574
37247SOL    HW213639   9.965   4.569  13.554
37248SOL     OW13640   2.011   7.494  10.141
37248SOL    HW113641   1.994   7.572  10.194
37248SOL    HW213642   2.039   7.427  10.205
37249SOL     OW13643   4.050   3.387   0.537
37249SOL    HW113644   4.011   3.397   0.450
37249SOL    HW213645   3.976   3.392   0.597
37250SOL     OW13646   3.844  12.432   1.362
37250SOL    HW113647   3.794  12.422   1.281
37250SOL    HW213648   3.923  12.479   1.335
37251SOL     OW13649  11.317   3.358  13.254
37251SOL    HW113650  11.302   3.297  13.182
37251SOL    HW213651  11.388   3.318  13.305
37252SOL     OW13652  10.022   1.718  10.964
37252SOL    HW113653   9.955   1.712  11.032
37252SOL    HW213654  10.102   1.739  11.011
37253SOL     OW13655   7.729  12.191   9.032
37253SOL    HW113656   7.639  12.180   9.062
37253SOL    HW213657   7.750  12.109   8.989
37254SOL     OW13658   3.603  13.266   5.256
37254SOL    HW113659   3.615  13.205   5.329
37254SOL    HW213660   3.522  13.238   5.214
37255SOL     OW13661  11.465   7.584  10.713
37255SOL    HW113662  11.470   7.616  10.803
37255SOL    HW213663  11.457   7.664  10.660
37256SOL     OW13664  13.823   5.735   3.072
37256SOL    HW113665  13.804   5.643   3.090
37256SOL    HW213666  13.882   5.732   2.996
37257SOL     OW13667   0.003   5.455   2.167
37257SOL    HW113668  14.839   5.427   2.083
37257SOL    HW213669   0.042   5.375   2.205
37258SOL     OW13670   5.065  13.149   7.461
37258SOL    HW113671   5.099  13.164   7.550
37258SOL    HW213672   5.049  13.237   7.427
37259SOL     OW13673  10.321   6.164   9.871
37259SOL    HW113674  10.238   6.213   9.871
37259SOL    HW213675  10.300   6.082   9.915
37260SOL     OW13676  13.311   9.000  13.341
37260SOL    HW113677  13.380   9.066  13.334
37260SOL    HW213678  13.266   9.004  13.257
37261SOL     OW13679   1.231   2.179   8.346
37261SOL    HW113680   1.267   2.251   8.398
37261SOL    HW213681   1.247   2.205   8.255
37262SOL     OW13682   6.116   4.339   8.716
37262SOL    HW113683   6.030   4.314   8.750
37262SOL    HW213684   6.130   4.428   8.747
37263SOL     OW13685   8.808   6.677  11.516
37263SOL    HW113686   8.715   6.660  11.501
37263SOL    HW213687   8.837   6.721  11.437
37264SOL     OW13688   8.238   2.225   7.452
37264SOL    HW113689   8.244   2.194   7.542
37264SOL    HW213690   8.272   2.153   7.400
37265SOL     OW13691   8.458   9.842   9.718
37265SOL    HW113692   8.378   9.891   9.740
37265SOL    HW213693   8.425   9.762   9.677
37266SOL     OW13694  10.533   9.413   6.174
37266SOL    HW113695  10.615   9.429   6.221
37266SOL    HW213696  10.555   9.345   6.110
37267SOL     OW13697  12.195   5.059   8.780
37267SOL    HW113698  12.231   5.005   8.851
37267SOL    HW213699  12.246   5.140   8.784
37268SOL     OW13700   7.722  14.570   7.729
37268SOL    HW113701   7.740  14.597   7.639
37268SOL    HW213702   7.770  14.633   7.783
37269SOL     OW13703   1.300   0.328   0.552
37269SOL    HW113704   1.221   0.381   0.556
37269SOL    HW213705   1.309   0.305   0.459
37270SOL     OW13706  13.619  14.031   8.131
37270SOL    HW113707  13.682  13.975   8.175
37270SOL    HW213708  13.653  14.120   8.145
37271SOL     OW13709   3.248   4.905  13.361
37271SOL    HW113710   3.162   4.877  13.392
37271SOL    HW213711   3.242   4.898  13.265
37272SOL     OW13712   9.069   1.900   1.371
37272SOL    HW113713   9.097   1.810   1.354
37272SOL    HW213714   9.143   1.954   1.342
37273SOL     OW13715   9.692  11.432  10.552
37273SOL    HW113716   9.785  11.455  10.550
37273SOL    HW213717   9.650  11.507  10.594
37274SOL     OW13718  14.072   9.351   0.580
37274SOL    HW113719  14.127   9.379   0.507
37274SOL    HW213720  13.986   9.334   0.541
37275SOL     OW13721  10.499   3.628   1.839
37275SOL    HW113722  10.500   3.618   1.934
37275SOL    HW213723  10.451   3.710   1.824
37276SOL     OW13724   1.251   5.148   5.208
37276SOL    HW113725   1.241   5.174   5.300
37276SOL    HW213726   1.298   5.221   5.168
37277SOL     OW13727  12.723  12.417   0.085
37277SOL    HW113728  12.678  12.361   0.022
37277SOL    HW213729  12.670  12.413   0.164
37278SOL     OW13730   2.247   2.339   2.419
37278SOL    HW113731   2.176   2.322   2.357
37278SOL    HW213732   2.205   2.341   2.504
37279SOL     OW13733  13.553   9.941  11.381
37279SOL    HW113734  13.535   9.939  11.475
37279SOL    HW213735  13.556  10.034  11.359
37280SOL     OW13736  11.515   5.816   3.202
37280SOL    HW113737  11.459   5.821   3.124
37280SOL    HW213738  11.582   5.752   3.178
37281SOL     OW13739  10.045   0.864   4.810
37281SOL    HW113740  10.046   0.946   4.860
37281SOL    HW213741  10.065   0.890   4.720
37282SOL     OW13742   0.681  11.503   7.751
37282SOL    HW113743   0.777  11.495   7.747
37282SOL    HW213744   0.658  11.550   7.671
37283SOL     OW13745  12.032   0.050   2.181
37283SOL    HW113746  12.084   0.110   2.129
37283SOL    HW213747  11.996  14.860   2.117
37284SOL     OW13748  10.307   9.367   6.984
37284SOL    HW113749  10.219   9.399   6.963
37284SOL    HW213750  10.293   9.277   7.014
37285SOL     OW13751   0.996  12.248  10.862
37285SOL    HW113752   0.933  12.320  10.862
37285SOL    HW213753   1.014  12.232  10.955
37286SOL     OW13754  11.102   2.739   8.798
37286SOL    HW113755  11.097   2.715   8.891
37286SOL    HW213756  11.018   2.712   8.761
37287SOL     OW13757   3.851   2.901  14.051
37287SOL    HW113758   3.831   2.989  14.081
37287SOL    HW213759   3.917   2.868  14.112
37288SOL     OW13760  12.584   0.257  10.852
37288SOL    HW113761  12.617   0.189  10.793
37288SOL    HW213762  12.517   0.303  10.801
37289SOL     OW13763   7.683   8.493   9.105
37289SOL    HW113764   7.719   8.426   9.046
37289SOL    HW213765   7.721   8.471   9.191
37290SOL     OW13766  13.997   1.128   2.344
37290SOL    HW113767  14.089   1.142   2.323
37290SOL    HW213768  13.988   1.034   2.355
37291SOL     OW13769  11.511   2.034  14.655
37291SOL    HW113770  11.421   2.021  14.686
37291SOL    HW213771  11.501   2.082  14.573
37292SOL     OW13772   4.029  11.367   9.495
37292SOL    HW113773   4.004  11.451   9.533
37292SOL    HW213774   4.043  11.386   9.402
37293SOL     OW13775   8.974   1.424   4.079
37293SOL    HW113776   9.008   1.415   3.990
37293SOL    HW213777   8.896   1.369   4.081
37294SOL     OW13778   4.284   7.201   9.267
37294SOL    HW113779   4.196   7.178   9.238
37294SOL    HW213780   4.308   7.132   9.329
37295SOL     OW13781   1.808  12.966   2.093
37295SOL    HW113782   1.729  12.962   2.038
37295SOL    HW213783   1.774  12.980   2.181
37296SOL     OW13784   1.183   5.375   3.310
37296SOL    HW113785   1.204   5.415   3.226
37296SOL    HW213786   1.269   5.362   3.351
37297SOL     OW13787   0.808  13.696   0.206
37297SOL    HW113788   0.772  13.744   0.280
37297SOL    HW213789   0.902  13.690   0.225
37298SOL     OW13790  10.365  13.189   9.505
37298SOL    HW113791  10.270  13.181   9.497
37298SOL    HW213792  10.393  13.103   9.537
37299SOL     OW13793   8.162   5.556   6.920
37299SOL    HW113794   8.133   5.472   6.885
37299SOL    HW213795   8.148   5.619   6.849
37300SOL     OW13796   1.572   1.877   9.727
37300SOL    HW113797   1.518   1.845   9.799
37300SOL    HW213798   1.610   1.799   9.688
37301SOL     OW13799   5.639  11.470   4.599
37301SOL    HW113800   5.554  11.468   4.556
37301SOL    HW213801   5.665  11.378   4.605
37302SOL     OW13802   2.855  11.849   7.837
37302SOL    HW113803   2.852  11.799   7.919
37302SOL    HW213804   2.812  11.792   7.773
37303SOL     OW13805   1.401   2.647   7.328
37303SOL    HW113806   1.317   2.601   7.326
37303SOL    HW213807   1.429   2.649   7.236
37304SOL     OW13808   1.859  13.033  11.041
37304SOL    HW113809   1.939  13.029  11.093
37304SOL    HW213810   1.849  13.126  11.019
37305SOL     OW13811   8.051   4.994  10.559
37305SOL    HW113812   8.125   4.951  10.602
37305SOL    HW213813   8.024   5.062  10.620
37306SOL     OW13814   8.019   3.542   2.258
37306SOL    HW113815   8.097   3.489   2.245
37306SOL    HW213816   7.950   3.478   2.278
37307SOL     OW13817   6.668   7.640  11.746
37307SOL    HW113818   6.687   7.690  11.666
37307SOL    HW213819   6.587   7.678  11.780
37308SOL     OW13820   6.645  10.352   2.805
37308SOL    HW113821   6.684  10.316   2.726
37308SOL    HW213822   6.576  10.290   2.829
37309SOL     OW13823  10.126   6.997  10.126
37309SOL    HW113824  10.201   7.008  10.184
37309SOL    HW213825  10.164   6.978  10.040
37310SOL     OW13826  12.391   2.946   1.522
37310SOL    HW113827  12.371   2.903   1.438
37310SOL    HW213828  12.398   3.039   1.500
37311SOL     OW13829   3.264  10.428  12.873
37311SOL    HW113830   3.173  10.438  12.901
37311SOL    HW213831   3.283  10.335  12.883
37312SOL     OW13832   7.491   6.912  10.600
37312SOL    HW113833   7.492   6.842  10.534
37312SOL    HW213834   7.493   6.993  10.549
37313SOL     OW13835   1.164  13.909  13.991
37313SOL    HW113836   1.077  13.944  13.970
37313SOL    HW213837   1.174  13.833  13.934
37314SOL     OW13838   0.953   6.658   9.526
37314SOL    HW113839   0.931   6.678   9.617
37314SOL    HW213840   0.868   6.660   9.480
37315SOL     OW13841   3.739  10.731  11.025
37315SOL    HW113842   3.686  10.792  10.973
37315SOL    HW213843   3.828  10.766  11.020
37316SOL     OW13844   0.693   2.125   7.051
37316SOL    HW113845   0.643   2.203   7.026
37316SOL    HW213846   0.764   2.120   6.986
37317SOL     OW13847  11.725   9.932  14.457
37317SOL    HW113848  11.809   9.921  14.502
37317SOL    HW213849  11.688   9.844  14.453
37318SOL     OW13850   7.676   9.869   3.968
37318SOL    HW113851   7.661   9.963   3.960
37318SOL    HW213852   7.661   9.834   3.881
37319SOL     OW13853   4.301   2.277   8.347
37319SOL    HW113854   4.210   2.268   8.319
37319SOL    HW213855   4.300   2.347   8.412
37320SOL     OW13856  13.578   2.643   9.440
37320SOL    HW113857  13.502   2.696   9.418
37320SOL    HW213858  13.559   2.610   9.528
37321SOL     OW13859  12.150   9.828   1.037
37321SOL    HW113860  12.159   9.738   1.069
37321SOL    HW213861  12.150   9.882   1.116
37322SOL     OW13862  13.236  10.871  10.691
37322SOL    HW113863  13.236  10.957  10.733
37322SOL    HW213864  13.157  10.828  10.724
37323SOL     OW13865   6.360   3.850   6.053
37323SOL    HW113866   6.378   3.756   6.050
37323SOL    HW213867   6.411   3.886   5.980
37324SOL     OW13868   9.704   5.856  10.360
37324SOL    HW113869   9.718   5.789  10.428
37324SOL    HW213870   9.740   5.936  10.397
37325SOL     OW13871  12.011   6.662   1.495
37325SOL    HW113872  12.084   6.663   1.557
37325SOL    HW213873  11.961   6.741   1.515
37326SOL     OW13874   2.806   9.349  12.306
37326SOL    HW113875   2.789   9.281  12.371
37326SOL    HW213876   2.800   9.304  12.221
37327SOL     OW13877   5.629  12.723   8.427
37327SOL    HW113878   5.618  12.683   8.513
37327SOL    HW213879   5.600  12.656   8.366
37328SOL     OW13880  14.138   6.555  12.923
37328SOL    HW113881  14.089   6.593  12.996
37328SOL    HW213882  14.122   6.461  12.929
37329SOL     OW13883   3.659   4.277  10.560
37329SOL    HW113884   3.648   4.368  10.534
37329SOL    HW213885   3.588   4.231  10.515
37330SOL     OW13886   0.131   3.566  10.546
37330SOL    HW113887   0.054   3.514  10.523
37330SOL    HW213888   0.096   3.652  10.571
37331SOL     OW13889  12.244  14.453   9.937
37331SOL    HW113890  12.286  14.392   9.876
37331SOL    HW213891  12.316  14.493   9.985
37332SOL     OW13892   6.162  13.068  14.362
37332SOL    HW113893   6.185  13.014  14.437
37332SOL    HW213894   6.202  13.153  14.380
37333SOL     OW13895   3.839  12.165   5.586
37333SOL    HW113896   3.833  12.098   5.654
37333SOL    HW213897   3.787  12.239   5.620
37334SOL     OW13898   4.460   5.118   3.718
37334SOL    HW113899   4.432   5.106   3.628
37334SOL    HW213900   4.432   5.038   3.763
37335SOL     OW13901   1.915   7.863   5.286
37335SOL    HW113902   2.001   7.897   5.262
37335SOL    HW213903   1.864   7.941   5.309
37336SOL     OW13904   7.527   7.744   7.063
37336SOL    HW113905   7.599   7.754   7.125
37336SOL    HW213906   7.541   7.658   7.023
37337SOL     OW13907  14.070  10.810   3.095
37337SOL    HW113908  14.162  10.784   3.104
37337SOL    HW213909  14.038  10.817   3.184
37338SOL     OW13910  13.546  10.797  13.672
37338SOL    HW113911  13.535  10.751  13.756
37338SOL    HW213912  13.458  10.795  13.633
37339SOL     OW13913  11.963   5.454   7.934
37339SOL    HW113914  11.896   5.425   7.872
37339SOL    HW213915  12.038   5.476   7.879
37340SOL     OW13916   8.468   3.763   4.707
37340SOL    HW113917   8.514   3.785   4.626
37340SOL    HW213918   8.532   3.777   4.776
37341SOL     OW13919  13.716   2.315   9.562
37341SOL    HW113920  13.681   2.226   9.562
37341SOL    HW213921  13.638   2.371   9.566
37342SOL     OW13922  14.416   9.741  13.107
37342SOL    HW113923  14.353   9.778  13.045
37342SOL    HW213924  14.392   9.778  13.191
37343SOL     OW13925  10.920  12.374   2.044
37343SOL    HW113926  10.999  12.322   2.056
37343SOL    HW213927  10.880  12.337   1.965
37344SOL     OW13928   9.900   6.689   0.878
37344SOL    HW113929   9.881   6.638   0.799
37344SOL    HW213930   9.827   6.751   0.884
37345SOL     OW13931   3.874  14.247   8.453
37345SOL    HW113932   3.933  14.310   8.412
37345SOL    HW213933   3.794  14.297   8.469
37346SOL     OW13934  11.413  14.070   3.468
37346SOL    HW113935  11.378  14.122   3.395
37346SOL    HW213936  11.441  14.134   3.533
37347SOL     OW13937  10.480   8.379   9.854
37347SOL    HW113938  10.505   8.377   9.761
37347SOL    HW213939  10.418   8.452   9.860
37348SOL     OW13940   3.051  12.288   5.467
37348SOL    HW113941   2.962  12.297   5.502
37348SOL    HW213942   3.039  12.243   5.383
37349SOL     OW13943   7.132   0.493   8.119
37349SOL    HW113944   7.054   0.548   8.114
37349SOL    HW213945   7.106   0.420   8.175
37350SOL     OW13946   5.280   0.077  10.517
37350SOL    HW113947   5.227   0.156  10.529
37350SOL    HW213948   5.281   0.064  10.422
37351SOL     OW13949   5.695  11.884   7.989
37351SOL    HW113950   5.603  11.909   7.987
37351SOL    HW213951   5.715  11.859   7.899
37352SOL     OW13952   4.801   8.239   1.178
37352SOL    HW113953   4.818   8.311   1.117
37352SOL    HW213954   4.869   8.174   1.158
37353SOL     OW13955   7.592  14.761   3.057
37353SOL    HW113956   7.578  14.796   2.969
37353SOL    HW213957   7.509  14.776   3.103
37354SOL     OW13958   9.263   4.643  13.304
37354SOL    HW113959   9.235   4.734  13.320
37354SOL    HW213960   9.206   4.613  13.233
37355SOL     OW13961  14.820   7.540   4.678
37355SOL    HW113962  14.800   7.477   4.747
37355SOL    HW213963  14.826   7.624   4.722
37356SOL     OW13964  14.506  12.053   0.022
37356SOL    HW113965  14.569  12.125   0.028
37356SOL    HW213966  14.448  12.067   0.097
37357SOL     OW13967  12.962  12.031   6.132
37357SOL    HW113968  12.915  12.070   6.058
37357SOL    HW213969  13.017  12.103   6.165
37358SOL     OW13970   4.256  12.571  12.015
37358SOL    HW113971   4.265  12.494  12.070
37358SOL    HW213972   4.183  12.550  11.956
37359SOL     OW13973  10.313   3.953   6.520
37359SOL    HW113974  10.358   3.922   6.598
37359SOL    HW213975  10.310   3.878   6.461
37360SOL     OW13976   9.330  10.365   0.618
37360SOL    HW113977   9.358  10.353   0.709
37360SOL    HW213978   9.248  10.315   0.612
37361SOL     OW13979   7.311   1.220   1.142
37361SOL    HW113980   7.342   1.130   1.150
37361SOL    HW213981   7.386   1.274   1.166
37362SOL     OW13982   4.018   7.046   9.542
37362SOL    HW113983   4.077   7.105   9.588
37362SOL    HW213984   4.026   7.072   9.450
37363SOL     OW13985  11.510   8.843  11.371
37363SOL    HW113986  11.537   8.785  11.300
37363SOL    HW213987  11.459   8.786  11.430
37364SOL     OW13988  14.497   8.946   4.111
37364SOL    HW113989  14.497   8.940   4.207
37364SOL    HW213990  14.436   9.017   4.091
37365SOL     OW13991   8.786  13.377   6.528
37365SOL    HW113992   8.827  13.295   6.556
37365SOL    HW213993   8.711  13.387   6.587
37366SOL     OW13994   7.336   3.586  12.155
37366SOL    HW113995   7.375   3.674  12.157
37366SOL    HW213996   7.278   3.585  12.231
37367SOL     OW13997   2.659  13.573   0.162
37367SOL    HW113998   2.623  13.557   0.249
37367SOL    HW213999   2.739  13.622   0.177
37368SOL     OW14000  11.125   8.688  11.496
37368SOL    HW114001  11.210   8.685  11.539
37368SOL    HW214002  11.141   8.657  11.407
37369SOL     OW14003   8.112  14.211  10.191
37369SOL    HW114004   8.043  14.254  10.241
37369SOL    HW214005   8.073  14.196  10.105
37370SOL     OW14006  11.067   5.014   2.591
37370SOL    HW114007  11.014   5.092   2.606
37370SOL    HW214008  11.019   4.944   2.635
37371SOL     OW14009  12.790  11.339  13.150
37371SOL    HW114010  12.864  11.299  13.195
37371SOL    HW214011  12.754  11.401  13.213
37372SOL     OW14012   4.412   6.436   2.361
37372SOL    HW114013   4.368   6.437   2.275
37372SOL    HW214014   4.482   6.500   2.352
37373SOL     OW14015   2.276   6.661   9.411
37373SOL    HW114016   2.300   6.705   9.329
37373SOL    HW214017   2.275   6.731   9.476
37374SOL     OW14018   9.853   3.768   9.880
37374SOL    HW114019   9.790   3.828   9.841
37374SOL    HW214020   9.800   3.697   9.915
37375SOL     OW14021   3.487  12.361   7.107
37375SOL    HW114022   3.486  12.270   7.076
37375SOL    HW214023   3.546  12.359   7.183
37376SOL     OW14024   4.579  11.069   4.605
37376SOL    HW114025   4.554  10.993   4.659
37376SOL    HW214026   4.520  11.066   4.530
37377SOL     OW14027  10.713   1.247   1.688
37377SOL    HW114028  10.659   1.294   1.751
37377SOL    HW214029  10.657   1.176   1.657
37378SOL     OW14030   6.421   2.417  10.828
37378SOL    HW114031   6.501   2.468  10.818
37378SOL    HW214032   6.424   2.352  10.758
37379SOL     OW14033   4.754   1.005  13.923
37379SOL    HW114034   4.752   1.077  13.986
37379SOL    HW214035   4.788   1.044  13.843
37380SOL     OW14036   4.450  13.022  13.237
37380SOL    HW114037   4.445  12.939  13.190
37380SOL    HW214038   4.540  13.051  13.225
37381SOL     OW14039   4.181  10.542   4.396
37381SOL    HW114040   4.098  10.500   4.373
37381SOL    HW214041   4.246  10.501   4.339
37382SOL     OW14042  13.879   1.124  14.297
37382SOL    HW114043  13.824   1.046  14.293
37382SOL    HW214044  13.888   1.143  14.390
37383SOL     OW14045   5.862   5.156   2.328
37383SOL    HW114046   5.930   5.160   2.260
37383SOL    HW214047   5.840   5.248   2.343
37384SOL     OW14048   8.962   5.204   0.314
37384SOL    HW114049   8.936   5.260   0.387
37384SOL    HW214050   8.980   5.119   0.354
37385SOL     OW14051   3.834  14.594  14.059
37385SOL    HW114052   3.871  14.643  13.986
37385SOL    HW214053   3.746  14.631  14.071
37386SOL     OW14054   3.806   0.963   5.770
37386SOL    HW114055   3.742   0.967   5.699
37386SOL    HW214056   3.815   0.870   5.789
37387SOL     OW14057   1.706  12.815   0.310
37387SOL    HW114058   1.692  12.755   0.383
37387SOL    HW214059   1.748  12.761   0.242
37388SOL     OW14060   2.679   0.780  11.359
37388SOL    HW114061   2.677   0.714  11.289
37388SOL    HW214062   2.603   0.760  11.413
37389SOL     OW14063   3.678   5.514   9.164
37389SOL    HW114064   3.760   5.524   9.213
37389SOL    HW214065   3.701   5.537   9.074
37390SOL     OW14066   1.934   2.938  14.828
37390SOL    HW114067   1.944   2.949   0.051
37390SOL    HW214068   1.935   2.843  14.815
37391SOL     OW14069   5.093   4.582   0.156
37391SOL    HW114070   5.156   4.542   0.216
37391SOL    HW214071   5.133   4.666   0.132
37392SOL     OW14072  11.127   3.671  13.972
37392SOL    HW114073  11.169   3.635  14.050
37392SOL    HW214074  11.107   3.595  13.918
37393SOL     OW14075   5.280  11.214   0.869
37393SOL    HW114076   5.259  11.268   0.946
37393SOL    HW214077   5.260  11.125   0.896
37394SOL     OW14078  13.259   2.095   1.737
37394SOL    HW114079  13.219   2.155   1.675
37394SOL    HW214080  13.260   2.142   1.820
37395SOL     OW14081   7.813   6.948   7.008
37395SOL    HW114082   7.770   6.880   6.955
37395SOL    HW214083   7.796   7.029   6.961
37396SOL     OW14084   2.728   2.792   0.798
37396SOL    HW114085   2.758   2.851   0.867
37396SOL    HW214086   2.670   2.845   0.744
37397SOL     OW14087  14.182   5.172  13.548
37397SOL    HW114088  14.189   5.192  13.641
37397SOL    HW214089  14.144   5.251  13.509
37398SOL     OW14090   4.442   3.185  10.104
37398SOL    HW114091   4.451   3.092  10.126
37398SOL    HW214092   4.418   3.185  10.011
37399SOL     OW14093   3.233   0.953   3.359
37399SOL    HW114094   3.256   0.881   3.301
37399SOL    HW214095   3.137   0.951   3.365
37400SOL     OW14096  10.958   8.897   1.000
37400SOL    HW114097  10.971   8.970   1.061
37400SOL    HW214098  10.991   8.930   0.917
37401SOL     OW14099   7.682   6.048  14.604
37401SOL    HW114100   7.726   6.013  14.527
37401SOL    HW214101   7.606   5.991  14.617
37402SOL     OW14102   6.387   2.213   9.103
37402SOL    HW114103   6.335   2.191   9.179
37402SOL    HW214104   6.465   2.255   9.138
37403SOL     OW14105   0.015  14.411   2.990
37403SOL    HW114106  14.798  14.399   2.958
37403SOL    HW214107   0.069  14.356   2.933
37404SOL     OW14108   2.309   1.981   5.236
37404SOL    HW114109   2.329   1.889   5.221
37404SOL    HW214110   2.394   2.025   5.230
37405SOL     OW14111   3.006   3.925   9.798
37405SOL    HW114112   2.931   3.895   9.747
37405SOL    HW214113   3.064   3.967   9.734
37406SOL     OW14114   2.020   3.196  14.758
37406SOL    HW114115   2.005   3.106  14.784
37406SOL    HW214116   2.040   3.242  14.839
37407SOL     OW14117   7.682   8.139  10.009
37407SOL    HW114118   7.600   8.113  10.051
37407SOL    HW214119   7.740   8.064  10.021
37408SOL     OW14120   8.444   6.508   1.178
37408SOL    HW114121   8.434   6.470   1.091
37408SOL    HW214122   8.539   6.520   1.188
37409SOL     OW14123  10.349   6.276   5.759
37409SOL    HW114124  10.294   6.272   5.837
37409SOL    HW214125  10.347   6.369   5.734
37410SOL     OW14126  12.307   9.140  10.167
37410SOL    HW114127  12.308   9.140  10.071
37410SOL    HW214128  12.268   9.224  10.191
37411SOL     OW14129   6.068   2.067  14.352
37411SOL    HW114130   6.150   2.100  14.317
37411SOL    HW214131   6.088   1.978  14.380
37412SOL     OW14132  12.822   7.032   8.488
37412SOL    HW114133  12.754   7.033   8.421
37412SOL    HW214134  12.874   7.111   8.470
37413SOL     OW14135   0.145   9.613  10.893
37413SOL    HW114136   0.210   9.552  10.858
37413SOL    HW214137   0.180   9.641  10.977
37414SOL     OW14138  11.599   9.307   6.754
37414SOL    HW114139  11.511   9.312   6.791
37414SOL    HW214140  11.587   9.266   6.668
37415SOL     OW14141  12.299  12.150   6.569
37415SOL    HW114142  12.297  12.055   6.556
37415SOL    HW214143  12.243  12.166   6.645
37416SOL     OW14144  10.005  13.219   7.899
37416SOL    HW114145   9.921  13.257   7.925
37416SOL    HW214146  10.059  13.226   7.978
37417SOL     OW14147   7.589   0.538  14.775
37417SOL    HW114148   7.506   0.504  14.742
37417SOL    HW214149   7.607   0.614  14.721
37418SOL     OW14150  12.227   3.340  11.918
37418SOL    HW114151  12.164   3.272  11.896
37418SOL    HW214152  12.297   3.329  11.853
37419SOL     OW14153   5.198   6.655   1.932
37419SOL    HW114154   5.205   6.662   2.027
37419SOL    HW214155   5.248   6.576   1.910
37420SOL     OW14156  12.937   8.986   8.499
37420SOL    HW114157  12.865   8.925   8.513
37420SOL    HW214158  13.012   8.945   8.544
37421SOL     OW14159   9.024   0.460   1.384
37421SOL    HW114160   8.943   0.511   1.398
37421SOL    HW214161   9.086   0.499   1.446
37422SOL     OW14162   7.168   3.362   4.346
37422SOL    HW114163   7.207   3.293   4.292
37422SOL    HW214164   7.241   3.395   4.398
37423SOL     OW14165  11.743  13.847  10.392
37423SOL    HW114166  11.832  13.866  10.360
37423SOL    HW214167  11.738  13.892  10.476
37424SOL     OW14168   5.437  12.568   9.046
37424SOL    HW114169   5.423  12.475   9.029
37424SOL    HW214170   5.352  12.608   9.029
37425SOL     OW14171   6.623   8.572   6.543
37425SOL    HW114172   6.659   8.568   6.632
37425SOL    HW214173   6.530   8.551   6.554
37426SOL     OW14174   5.955  14.020  10.793
37426SOL    HW114175   5.930  14.041  10.703
37426SOL    HW214176   5.901  14.078  10.847
37427SOL     OW14177  14.055  14.744   6.146
37427SOL    HW114178  14.105  14.803   6.202
37427SOL    HW214179  14.029  14.672   6.203
37428SOL     OW14180   9.759  14.811   4.524
37428SOL    HW114181   9.803  14.747   4.469
37428SOL    HW214182   9.683  14.838   4.474
37429SOL     OW14183   0.943  11.397  11.302
37429SOL    HW114184   0.977  11.485  11.316
37429SOL    HW214185   0.857  11.398  11.344
37430SOL     OW14186  12.523   3.491   3.213
37430SOL    HW114187  12.597   3.544   3.245
37430SOL    HW214188  12.549   3.465   3.124
37431SOL     OW14189  12.660   3.590  12.210
37431SOL    HW114190  12.749   3.555  12.199
37431SOL    HW214191  12.671   3.664  12.270
37432SOL     OW14192   5.413   4.023   8.291
37432SOL    HW114193   5.439   4.099   8.239
37432SOL    HW214194   5.436   4.046   8.381
37433SOL     OW14195  12.552  10.262   8.927
37433SOL    HW114196  12.598  10.200   8.870
37433SOL    HW214197  12.480  10.295   8.873
37434SOL     OW14198  14.100   5.665   0.777
37434SOL    HW114199  14.184   5.689   0.738
37434SOL    HW214200  14.093   5.571   0.760
37435SOL     OW14201  13.915   1.665  12.830
37435SOL    HW114202  13.907   1.570  12.839
37435SOL    HW214203  13.973   1.691  12.902
37436SOL     OW14204  11.248   6.433  10.105
37436SOL    HW114205  11.173   6.471  10.059
37436SOL    HW214206  11.261   6.348  10.064
37437SOL     OW14207  14.205  14.088   5.518
37437SOL    HW114208  14.151  14.105   5.596
37437SOL    HW214209  14.248  14.171   5.500
37438SOL     OW14210   6.060   0.072   9.768
37438SOL    HW114211   5.998   0.142   9.746
37438SOL    HW214212   6.116   0.110   9.835
37439SOL     OW14213  10.544   9.671   5.954
37439SOL    HW114214  10.526   9.590   6.002
37439SOL    HW214215  10.484   9.735   5.993
37440SOL     OW14216   1.811  11.667   1.585
37440SOL    HW114217   1.853  11.611   1.651
37440SOL    HW214218   1.722  11.681   1.618
37441SOL     OW14219  11.338   8.191   7.614
37441SOL    HW114220  11.266   8.128   7.611
37441SOL    HW214221  11.322   8.250   7.540
37442SOL     OW14222   3.110   4.978   1.182
37442SOL    HW114223   3.136   4.886   1.191
37442SOL    HW214224   3.081   4.987   1.091
37443SOL     OW14225   0.772   9.198   6.376
37443SOL    HW114226   0.715   9.202   6.299
37443SOL    HW214227   0.861   9.204   6.339
37444SOL     OW14228   8.979  12.495   9.888
37444SOL    HW114229   8.974  12.504   9.793
37444SOL    HW214230   8.986  12.585   9.920
37445SOL     OW14231   7.394   8.701  12.044
37445SOL    HW114232   7.368   8.771  12.104
37445SOL    HW214233   7.456   8.648  12.094
37446SOL     OW14234   6.991   0.313   2.576
37446SOL    HW114235   6.985   0.300   2.482
37446SOL    HW214236   6.958   0.231   2.614
37447SOL     OW14237   4.431   6.593   2.020
37447SOL    HW114238   4.384   6.512   2.038
37447SOL    HW214239   4.522   6.573   2.042
37448SOL     OW14240  12.088  12.785   8.526
37448SOL    HW114241  12.128  12.796   8.439
37448SOL    HW214242  12.156  12.810   8.587
37449SOL     OW14243   6.570  12.526  11.300
37449SOL    HW114244   6.577  12.536  11.205
37449SOL    HW214245   6.563  12.616  11.333
37450SOL     OW14246  10.210  12.136  10.823
37450SOL    HW114247  10.156  12.075  10.774
37450SOL    HW214248  10.285  12.152  10.766
37451SOL     OW14249  10.669  13.102   6.372
37451SOL    HW114250  10.626  13.042   6.434
37451SOL    HW214251  10.599  13.159   6.341
37452SOL     OW14252   2.492  14.707   5.545
37452SOL    HW114253   2.509  14.628   5.494
37452SOL    HW214254   2.398  14.705   5.564
37453SOL     OW14255   5.209  11.307   5.877
37453SOL    HW114256   5.260  11.286   5.799
37453SOL    HW214257   5.183  11.222   5.912
37454SOL     OW14258   6.213  12.587   2.525
37454SOL    HW114259   6.129  12.593   2.572
37454SOL    HW214260   6.260  12.666   2.550
37455SOL     OW14261   9.485   2.915   9.041
37455SOL    HW114262   9.530   2.833   9.019
37455SOL    HW214263   9.552   2.983   9.033
37456SOL     OW14264   4.878   9.892   3.112
37456SOL    HW114265   4.798   9.915   3.064
37456SOL    HW214266   4.949   9.925   3.056
37457SOL     OW14267  11.469   6.508   4.128
37457SOL    HW114268  11.398   6.466   4.079
37457SOL    HW214269  11.425   6.559   4.195
37458SOL     OW14270  11.022   7.704  11.152
37458SOL    HW114271  11.088   7.635  11.154
37458SOL    HW214272  10.944   7.664  11.190
37459SOL     OW14273   3.447   8.632   3.354
37459SOL    HW114274   3.477   8.694   3.287
37459SOL    HW214275   3.359   8.607   3.326
37460SOL     OW14276   2.716   3.439   9.505
37460SOL    HW114277   2.673   3.448   9.419
37460SOL    HW214278   2.645   3.444   9.568
37461SOL     OW14279  13.924   2.675   0.984
37461SOL    HW114280  13.987   2.657   1.053
37461SOL    HW214281  13.845   2.703   1.031
37462SOL     OW14282   5.767   1.811   5.839
37462SOL    HW114283   5.729   1.726   5.861
37462SOL    HW214284   5.694   1.861   5.803
37463SOL     OW14285  13.161  10.194   4.697
37463SOL    HW114286  13.244  10.145   4.696
37463SOL    HW214287  13.093  10.127   4.698
37464SOL     OW14288   6.259   6.347  10.123
37464SOL    HW114289   6.201   6.366  10.050
37464SOL    HW214290   6.299   6.431  10.145
37465SOL     OW14291   7.134  12.738   7.551
37465SOL    HW114292   7.148  12.685   7.472
37465SOL    HW214293   7.217  12.785   7.564
37466SOL     OW14294  12.165   1.785   2.425
37466SOL    HW114295  12.211   1.710   2.463
37466SOL    HW214296  12.105   1.814   2.495
37467SOL     OW14297   5.670   4.625   8.512
37467SOL    HW114298   5.749   4.646   8.562
37467SOL    HW214299   5.618   4.705   8.515
37468SOL     OW14300  13.645   6.451  10.944
37468SOL    HW114301  13.639   6.535  10.990
37468SOL    HW214302  13.590   6.391  10.995
37469SOL     OW14303   3.508   9.561  10.916
37469SOL    HW114304   3.600   9.574  10.939
37469SOL    HW214305   3.479   9.647  10.886
37470SOL     OW14306   7.608   4.474  14.844
37470SOL    HW114307   7.622   4.501   0.063
37470SOL    HW214308   7.519   4.502  14.824
37471SOL     OW14309  12.721   9.703   8.000
37471SOL    HW114310  12.731   9.621   7.953
37471SOL    HW214311  12.678   9.680   8.082
37472SOL     OW14312  12.737  13.807   9.236
37472SOL    HW114313  12.707  13.793   9.146
37472SOL    HW214314  12.699  13.734   9.285
37473SOL     OW14315  13.255   9.135   5.856
37473SOL    HW114316  13.167   9.098   5.864
37473SOL    HW214317  13.242   9.230   5.861
37474SOL     OW14318  10.432  14.539  14.621
37474SOL    HW114319  10.424  14.495  14.536
37474SOL    HW214320  10.515  14.587  14.615
37475SOL     OW14321   1.088  10.429   5.773
37475SOL    HW114322   1.134  10.399   5.852
37475SOL    HW214323   1.090  10.525   5.780
37476SOL     OW14324   6.929   7.025   3.192
37476SOL    HW114325   6.901   6.964   3.123
37476SOL    HW214326   7.024   7.014   3.196
37477SOL     OW14327   3.746   5.588   9.671
37477SOL    HW114328   3.807   5.547   9.732
37477SOL    HW214329   3.661   5.581   9.715
37478SOL     OW14330  12.381   0.512   4.300
37478SOL    HW114331  12.459   0.547   4.344
37478SOL    HW214332  12.330   0.589   4.277
37479SOL     OW14333   6.675  13.561   8.890
37479SOL    HW114334   6.693  13.553   8.984
37479SOL    HW214335   6.757  13.594   8.853
37480SOL     OW14336  10.789   3.320   7.093
37480SOL    HW114337  10.749   3.387   7.147
37480SOL    HW214338  10.883   3.335   7.101
37481SOL     OW14339   6.198   4.858  14.701
37481SOL    HW114340   6.118   4.808  14.720
37481SOL    HW214341   6.249   4.851  14.782
37482SOL     OW14342   8.153   7.721  12.611
37482SOL    HW114343   8.235   7.700  12.655
37482SOL    HW214344   8.168   7.808  12.573
37483SOL     OW14345   2.214   7.763   6.331
37483SOL    HW114346   2.239   7.727   6.416
37483SOL    HW214347   2.229   7.857   6.339
37484SOL     OW14348  11.195  12.056   2.274
37484SOL    HW114349  11.112  12.042   2.229
37484SOL    HW214350  11.175  12.043   2.367
37485SOL     OW14351   4.871   5.813  12.498
37485SOL    HW114352   4.837   5.729  12.529
37485SOL    HW214353   4.801   5.876  12.516
37486SOL     OW14354   8.762   7.302   5.647
37486SOL    HW114355   8.743   7.301   5.741
37486SOL    HW214356   8.693   7.355   5.609
37487SOL     OW14357   9.161   6.227   7.480
37487SOL    HW114358   9.162   6.234   7.384
37487SOL    HW214359   9.253   6.215   7.504
37488SOL     OW14360   6.237  14.747  14.266
37488SOL    HW114361   6.273  14.677  14.212
37488SOL    HW214362   6.295  14.751  14.343
37489SOL     OW14363   2.303   5.430  13.093
37489SOL    HW114364   2.320   5.450  13.001
37489SOL    HW214365   2.290   5.335  13.095
37490SOL     OW14366   8.924   1.396   9.780
37490SOL    HW114367   8.886   1.475   9.819
37490SOL    HW214368   8.992   1.369   9.841
37491SOL     OW14369   5.807   1.920   2.290
37491SOL    HW114370   5.840   1.846   2.239
37491SOL    HW214371   5.713   1.921   2.271
37492SOL     OW14372  10.886  14.528   2.651
37492SOL    HW114373  10.802  14.490   2.627
37492SOL    HW214374  10.881  14.541   2.745
37493SOL     OW14375   1.047   3.494   1.019
37493SOL    HW114376   1.122   3.444   0.988
37493SOL    HW214377   0.978   3.429   1.033
37494SOL     OW14378   8.550  12.926   0.587
37494SOL    HW114379   8.527  13.018   0.591
37494SOL    HW214380   8.636  12.921   0.631
37495SOL     OW14381   1.050   3.469   7.399
37495SOL    HW114382   0.983   3.447   7.335
37495SOL    HW214383   1.086   3.384   7.426
37496SOL     OW14384   9.582   3.390   5.700
37496SOL    HW114385   9.614   3.442   5.627
37496SOL    HW214386   9.537   3.316   5.659
37497SOL     OW14387  10.820   0.814   7.041
37497SOL    HW114388  10.893   0.865   7.005
37497SOL    HW214389  10.751   0.879   7.056
37498SOL     OW14390   9.981  10.547   0.865
37498SOL    HW114391  10.030  10.548   0.783
37498SOL    HW214392   9.926  10.469   0.860
37499SOL     OW14393  13.135   9.716   4.912
37499SOL    HW114394  13.072   9.783   4.940
37499SOL    HW214395  13.219   9.745   4.949
37500SOL     OW14396   1.348   5.501   5.750
37500SOL    HW114397   1.327   5.496   5.843
37500SOL    HW214398   1.387   5.588   5.740
37501SOL     OW14399   8.952   0.929  11.763
37501SOL    HW114400   8.932   0.901  11.674
37501SOL    HW214401   8.884   0.889  11.817
37502SOL     OW14402  10.761  10.246  12.961
37502SOL    HW114403  10.700  10.220  12.893
37502SOL    HW214404  10.713  10.308  13.015
37503SOL     OW14405   4.358   0.354   1.579
37503SOL    HW114406   4.283   0.322   1.529
37503SOL    HW214407   4.360   0.300   1.658
37504SOL     OW14408  10.123   7.183   5.039
37504SOL    HW114409  10.177   7.193   5.117
37504SOL    HW214410  10.033   7.189   5.071
37505SOL     OW14411   1.758  10.572   2.885
37505SOL    HW114412   1.669  10.555   2.855
37505SOL    HW214413   1.747  10.605   2.975
37506SOL     OW14414   6.912   8.130   4.501
37506SOL    HW114415   6.837   8.188   4.507
37506SOL    HW214416   6.875   8.043   4.486
37507SOL     OW14417   6.747   4.993   3.215
37507SOL    HW114418   6.810   4.974   3.145
37507SOL    HW214419   6.674   5.037   3.170
37508SOL     OW14420  12.402   9.973  10.257
37508SOL    HW114421  12.322   9.952  10.209
37508SOL    HW214422  12.382  10.055  10.302
37509SOL     OW14423   7.333  13.613   4.152
37509SOL    HW114424   7.413  13.637   4.201
37509SOL    HW214425   7.295  13.697   4.126
37510SOL     OW14426   1.902  10.251   2.125
37510SOL    HW114427   1.928  10.283   2.211
37510SOL    HW214428   1.808  10.238   2.132
37511SOL     OW14429   7.431   8.760   6.457
37511SOL    HW114430   7.491   8.688   6.442
37511SOL    HW214431   7.365   8.724   6.516
37512SOL     OW14432  11.304  14.858   6.249
37512SOL    HW114433  11.263  14.864   6.162
37512SOL    HW214434  11.374  14.795   6.238
37513SOL     OW14435  11.443   1.644   9.978
37513SOL    HW114436  11.378   1.592  10.026
37513SOL    HW214437  11.452   1.600   9.894
37514SOL     OW14438   3.315   5.871   1.933
37514SOL    HW114439   3.275   5.862   1.847
37514SOL    HW214440   3.376   5.944   1.924
37515SOL     OW14441   7.672  13.067   7.140
37515SOL    HW114442   7.704  13.008   7.072
37515SOL    HW214443   7.750  13.094   7.188
37516SOL     OW14444  12.321   5.161   2.898
37516SOL    HW114445  12.371   5.163   2.816
37516SOL    HW214446  12.384   5.188   2.965
37517SOL     OW14447   9.764   2.251   3.282
37517SOL    HW114448   9.856   2.274   3.297
37517SOL    HW214449   9.759   2.236   3.188
37518SOL     OW14450  11.740  10.519   8.060
37518SOL    HW114451  11.819  10.496   8.108
37518SOL    HW214452  11.764  10.510   7.968
37519SOL     OW14453   8.205  14.348   5.580
37519SOL    HW114454   8.210  14.435   5.540
37519SOL    HW214455   8.157  14.295   5.516
37520SOL     OW14456  14.836   0.714   0.622
37520SOL    HW114457  14.796   0.800   0.632
37520SOL    HW214458   0.038   0.728   0.563
37521SOL     OW14459   2.146   4.990   0.239
37521SOL    HW114460   2.056   4.958   0.252
37521SOL    HW214461   2.191   4.969   0.320
37522SOL     OW14462  14.103  10.197  11.565
37522SOL    HW114463  14.057  10.280  11.576
37522SOL    HW214464  14.036  10.136  11.536
37523SOL     OW14465   5.722   8.334   3.173
37523SOL    HW114466   5.814   8.346   3.197
37523SOL    HW214467   5.699   8.250   3.211
37524SOL     OW14468   0.138  13.932   5.599
37524SOL    HW114469   0.051  13.909   5.569
37524SOL    HW214470   0.139  13.908   5.692
37525SOL     OW14471   1.911   0.879   8.156
37525SOL    HW114472   1.915   0.959   8.104
37525SOL    HW214473   1.847   0.898   8.225
37526SOL     OW14474   2.495   6.137  13.332
37526SOL    HW114475   2.469   6.218  13.376
37526SOL    HW214476   2.511   6.075  13.403
37527SOL     OW14477   5.763   9.506   2.984
37527SOL    HW114478   5.707   9.528   3.058
37527SOL    HW214479   5.822   9.580   2.975
37528SOL     OW14480   4.043   8.995  12.301
37528SOL    HW114481   4.072   9.058  12.235
37528SOL    HW214482   4.114   8.931  12.306
37529SOL     OW14483   9.248  14.153   9.797
37529SOL    HW114484   9.302  14.189   9.726
37529SOL    HW214485   9.251  14.219   9.866
37530SOL     OW14486   1.262   2.416   1.588
37530SOL    HW114487   1.171   2.395   1.568
37530SOL    HW214488   1.260   2.507   1.617
37531SOL     OW14489  14.159   4.422   7.623
37531SOL    HW114490  14.148   4.514   7.601
37531SOL    HW214491  14.253   4.406   7.617
37532SOL     OW14492   5.176   5.109   0.350
37532SOL    HW114493   5.128   5.030   0.323
37532SOL    HW214494   5.107   5.170   0.377
37533SOL     OW14495   2.613  14.359   5.081
37533SOL    HW114496   2.629  14.401   4.997
37533SOL    HW214497   2.691  14.305   5.096
37534SOL     OW14498   7.738   3.557  11.268
37534SOL    HW114499   7.647   3.585  11.270
37534SOL    HW214500   7.788   3.638  11.262
37535SOL     OW14501   1.480   3.960   3.197
37535SOL    HW114502   1.468   3.880   3.145
37535SOL    HW214503   1.471   4.031   3.133
37536SOL     OW14504  11.820  12.716   1.241
37536SOL    HW114505  11.815  12.707   1.336
37536SOL    HW214506  11.894  12.661   1.215
37537SOL     OW14507  13.459  12.505  12.932
37537SOL    HW114508  13.437  12.441  13.000
37537SOL    HW214509  13.476  12.452  12.854
37538SOL     OW14510   3.900   7.412   4.812
37538SOL    HW114511   3.953   7.476   4.764
37538SOL    HW214512   3.951   7.393   4.891
37539SOL     OW14513   6.876   1.493   9.817
37539SOL    HW114514   6.912   1.522   9.901
37539SOL    HW214515   6.840   1.572   9.778
37540SOL     OW14516   3.155  10.129   1.583
37540SOL    HW114517   3.137  10.089   1.498
37540SOL    HW214518   3.101  10.207   1.585
37541SOL     OW14519   1.646  14.194   6.166
37541SOL    HW114520   1.653  14.108   6.206
37541SOL    HW214521   1.563  14.191   6.118
37542SOL     OW14522  14.782   4.185  10.592
37542SOL    HW114523  14.808   4.131  10.666
37542SOL    HW214524  14.809   4.136  10.514
37543SOL     OW14525   5.200   0.053  14.410
37543SOL    HW114526   5.243   0.127  14.366
37543SOL    HW214527   5.107   0.069  14.400
37544SOL     OW14528  12.987   7.640   2.742
37544SOL    HW114529  13.070   7.669   2.706
37544SOL    HW214530  12.997   7.545   2.752
37545SOL     OW14531   5.111   8.652  13.484
37545SOL    HW114532   5.149   8.684  13.402
37545SOL    HW214533   5.048   8.585  13.456
37546SOL     OW14534   6.134   8.701   1.622
37546SOL    HW114535   6.078   8.777   1.614
37546SOL    HW214536   6.129   8.658   1.536
37547SOL     OW14537   1.113   2.199   3.265
37547SOL    HW114538   1.048   2.259   3.227
37547SOL    HW214539   1.090   2.113   3.229
37548SOL     OW14540   5.167  11.731  11.466
37548SOL    HW114541   5.103  11.706  11.533
37548SOL    HW214542   5.250  11.738  11.513
37549SOL     OW14543   8.045   0.390  11.035
37549SOL    HW114544   8.015   0.434  10.955
37549SOL    HW214545   8.048   0.297  11.012
37550SOL     OW14546   2.560   9.412  11.687
37550SOL    HW114547   2.505   9.434  11.611
37550SOL    HW214548   2.529   9.469  11.757
37551SOL     OW14549   0.245  10.274   6.318
37551SOL    HW114550   0.191  10.196   6.303
37551SOL    HW214551   0.271  10.302   6.230
37552SOL     OW14552  12.716  10.071  10.448
37552SOL    HW114553  12.722  10.153  10.497
37552SOL    HW214554  12.780  10.014  10.490
37553SOL     OW14555  14.457  12.475  11.503
37553SOL    HW114556  14.548  12.483  11.531
37553SOL    HW214557  14.432  12.563  11.474
37554SOL     OW14558   5.390   4.402   1.830
37554SOL    HW114559   5.482   4.391   1.805
37554SOL    HW214560   5.365   4.485   1.791
37555SOL     OW14561   9.550   5.847  10.762
37555SOL    HW114562   9.483   5.865  10.828
37555SOL    HW214563   9.554   5.927  10.709
37556SOL     OW14564   4.437  12.365   7.441
37556SOL    HW114565   4.500  12.436   7.428
37556SOL    HW214566   4.352  12.403   7.420
37557SOL     OW14567   2.822   9.693   5.479
37557SOL    HW114568   2.842   9.787   5.474
37557SOL    HW214569   2.792   9.679   5.569
37558SOL     OW14570  13.415   8.419  12.637
37558SOL    HW114571  13.474   8.456  12.572
37558SOL    HW214572  13.467   8.353  12.683
37559SOL     OW14573  11.213  14.477  13.397
37559SOL    HW114574  11.203  14.430  13.480
37559SOL    HW214575  11.129  14.522  13.385
37560SOL     OW14576   6.422  14.179   8.982
37560SOL    HW114577   6.385  14.191   8.894
37560SOL    HW214578   6.360  14.220   9.041
37561SOL     OW14579   5.111   1.890   7.558
37561SOL    HW114580   5.162   1.816   7.527
37561SOL    HW214581   5.169   1.965   7.549
37562SOL     OW14582   4.422   6.814  14.120
37562SOL    HW114583   4.457   6.874  14.054
37562SOL    HW214584   4.332   6.843  14.132
37563SOL     OW14585   1.892   3.091   1.913
37563SOL    HW114586   1.891   3.135   1.828
37563SOL    HW214587   1.829   3.020   1.905
37564SOL     OW14588  11.480   0.974   5.426
37564SOL    HW114589  11.406   1.010   5.475
37564SOL    HW214590  11.460   0.881   5.415
37565SOL     OW14591  13.720  14.692  10.141
37565SOL    HW114592  13.671  14.714  10.061
37565SOL    HW214593  13.672  14.618  10.178
37566SOL     OW14594   9.365   8.987   1.625
37566SOL    HW114595   9.385   9.056   1.563
37566SOL    HW214596   9.435   8.992   1.690
37567SOL     OW14597  14.813   0.672   8.768
37567SOL    HW114598   0.036   0.684   8.773
37567SOL    HW214599  14.778   0.761   8.771
37568SOL     OW14600   8.964  12.462   4.687
37568SOL    HW114601   8.947  12.372   4.715
37568SOL    HW214602   8.890  12.485   4.631
37569SOL     OW14603  10.046   2.580   9.606
37569SOL    HW114604   9.967   2.621   9.570
37569SOL    HW214605  10.102   2.566   9.530
37570SOL     OW14606  11.080   0.220  13.195
37570SOL    HW114607  11.094   0.225  13.100
37570SOL    HW214608  11.158   0.258  13.233
37571SOL     OW14609  12.497   7.526  10.095
37571SOL    HW114610  12.558   7.471  10.145
37571SOL    HW214611  12.509   7.498  10.004
37572SOL     OW14612   8.438   3.514   6.745
37572SOL    HW114613   8.487   3.595   6.758
37572SOL    HW214614   8.374   3.535   6.677
37573SOL     OW14615   1.175   5.924   9.563
37573SOL    HW114616   1.199   5.944   9.473
37573SOL    HW214617   1.103   5.983   9.583
37574SOL     OW14618   1.677   9.462  12.467
37574SOL    HW114619   1.727   9.466  12.385
37574SOL    HW214620   1.718   9.528  12.523
37575SOL     OW14621  14.512   4.259   8.924
37575SOL    HW114622  14.421   4.290   8.931
37575SOL    HW214623  14.508   4.166   8.946
37576SOL     OW14624   3.915  10.616  10.348
37576SOL    HW114625   3.859  10.609  10.425
37576SOL    HW214626   3.855  10.630  10.275
37577SOL     OW14627   9.229   6.258  11.042
37577SOL    HW114628   9.139   6.264  11.010
37577SOL    HW214629   9.222   6.216  11.128
37578SOL     OW14630   9.455   5.026   6.314
37578SOL    HW114631   9.402   4.946   6.317
37578SOL    HW214632   9.392   5.096   6.299
37579SOL     OW14633   2.791   8.111  13.033
37579SOL    HW114634   2.698   8.131  13.035
37579SOL    HW214635   2.813   8.106  12.940
37580SOL     OW14636  13.390   3.121   0.008
37580SOL    HW114637  13.426   3.049   0.059
37580SOL    HW214638  13.431   3.113  14.793
37581SOL     OW14639   3.924   3.137  12.715
37581SOL    HW114640   3.937   3.228  12.690
37581SOL    HW214641   3.829   3.129  12.727
37582SOL     OW14642  14.057   6.270  13.489
37582SOL    HW114643  14.136   6.278  13.435
37582SOL    HW214644  14.075   6.325  13.565
37583SOL     OW14645   3.185   0.259   2.663
37583SOL    HW114646   3.154   0.169   2.650
37583SOL    HW214647   3.109   0.314   2.646
37584SOL     OW14648   4.266   4.518  10.771
37584SOL    HW114649   4.233   4.566  10.696
37584SOL    HW214650   4.196   4.456  10.793
37585SOL     OW14651   2.184   7.697  12.688
37585SOL    HW114652   2.173   7.735  12.775
37585SOL    HW214653   2.275   7.668  12.685
37586SOL     OW14654  13.725   3.988   0.950
37586SOL    HW114655  13.661   3.917   0.957
37586SOL    HW214656  13.761   3.997   1.038
37587SOL     OW14657   7.762   7.455   5.343
37587SOL    HW114658   7.825   7.518   5.378
37587SOL    HW214659   7.704   7.435   5.416
37588SOL     OW14660   0.942  12.162  11.618
37588SOL    HW114661   0.939  12.130  11.528
37588SOL    HW214662   0.857  12.206  11.630
37589SOL     OW14663   5.599   4.203   0.622
37589SOL    HW114664   5.654   4.241   0.690
37589SOL    HW214665   5.568   4.121   0.659
37590SOL     OW14666   7.264   4.145   2.814
37590SOL    HW114667   7.294   4.236   2.816
37590SOL    HW214668   7.216   4.138   2.732
37591SOL     OW14669   2.581   6.757   6.638
37591SOL    HW114670   2.599   6.803   6.556
37591SOL    HW214671   2.622   6.671   6.627
37592SOL     OW14672   8.899   9.197   0.635
37592SOL    HW114673   8.905   9.111   0.593
37592SOL    HW214674   8.837   9.183   0.707
37593SOL     OW14675  14.476   0.700   6.927
37593SOL    HW114676  14.481   0.792   6.951
37593SOL    HW214677  14.435   0.658   7.003
37594SOL     OW14678  10.496   1.339   5.544
37594SOL    HW114679  10.515   1.357   5.636
37594SOL    HW214680  10.565   1.279   5.516
37595SOL     OW14681   1.691   5.595   0.367
37595SOL    HW114682   1.650   5.668   0.414
37595SOL    HW214683   1.785   5.607   0.383
37596SOL     OW14684  12.600   6.018   5.238
37596SOL    HW114685  12.691   6.009   5.209
37596SOL    HW214686  12.607   6.068   5.320
37597SOL     OW14687   9.322   7.783   7.497
37597SOL    HW114688   9.262   7.801   7.569
37597SOL    HW214689   9.377   7.712   7.529
37598SOL     OW14690   0.863  13.850   9.127
37598SOL    HW114691   0.855  13.894   9.042
37598SOL    HW214692   0.957  13.849   9.144
37599SOL     OW14693   9.754   5.611  12.632
37599SOL    HW114694   9.812   5.622  12.556
37599SOL    HW214695   9.754   5.696  12.675
37600SOL     OW14696   7.328   9.206   0.224
37600SOL    HW114697   7.285   9.232   0.305
37600SOL    HW214698   7.361   9.118   0.241
37601SOL     OW14699   4.174   5.977   6.888
37601SOL    HW114700   4.189   5.927   6.968
37601SOL    HW214701   4.106   5.927   6.842
37602SOL     OW14702  11.144   8.936   2.155
37602SOL    HW114703  11.055   8.935   2.191
37602SOL    HW214704  11.198   8.974   2.225
37603SOL     OW14705  12.795   9.096   9.584
37603SOL    HW114706  12.752   9.067   9.503
37603SOL    HW214707  12.774   9.027   9.647
37604SOL     OW14708   1.778   5.364  13.584
37604SOL    HW114709   1.843   5.313  13.536
37604SOL    HW214710   1.766   5.317  13.666
37605SOL     OW14711   5.960  14.842  10.610
37605SOL    HW114712   5.906  14.765  10.592
37605SOL    HW214713   6.030  14.809  10.667
37606SOL     OW14714   4.316   5.159   1.783
37606SOL    HW114715   4.400   5.203   1.799
37606SOL    HW214716   4.330   5.069   1.814
37607SOL     OW14717  10.505   8.442   2.042
37607SOL    HW114718  10.426   8.490   2.018
37607SOL    HW214719  10.480   8.350   2.038
37608SOL     OW14720  10.727   2.589  10.865
37608SOL    HW114721  10.775   2.539  10.799
37608SOL    HW214722  10.762   2.558  10.949
37609SOL     OW14723   9.012  10.276  10.390
37609SOL    HW114724   9.063  10.277  10.309
37609SOL    HW214725   9.027  10.188  10.426
37610SOL     OW14726  10.968  14.193   8.919
37610SOL    HW114727  10.979  14.098   8.911
37610SOL    HW214728  11.015  14.229   8.844
37611SOL     OW14729  10.769   1.775   7.235
37611SOL    HW114730  10.712   1.713   7.280
37611SOL    HW214731  10.857   1.755   7.269
37612SOL     OW14732  12.583   4.624   9.392
37612SOL    HW114733  12.575   4.660   9.304
37612SOL    HW214734  12.646   4.681   9.436
37613SOL     OW14735   4.691   7.657  11.136
37613SOL    HW114736   4.747   7.703  11.199
37613SOL    HW214737   4.656   7.583  11.185
37614SOL     OW14738   2.217   4.068   4.770
37614SOL    HW114739   2.194   4.141   4.712
37614SOL    HW214740   2.139   4.013   4.771
37615SOL     OW14741   2.446  11.341   8.014
37615SOL    HW114742   2.460  11.247   8.021
37615SOL    HW214743   2.508  11.379   8.076
37616SOL     OW14744  13.065   6.011   8.003
37616SOL    HW114745  13.050   6.058   7.921
37616SOL    HW214746  13.063   5.919   7.978
37617SOL     OW14747  13.030   8.861  10.872
37617SOL    HW114748  12.995   8.853  10.783
37617SOL    HW214749  12.958   8.897  10.923
37618SOL     OW14750  14.260   4.853  12.726
37618SOL    HW114751  14.316   4.931  12.732
37618SOL    HW214752  14.263   4.828  12.634
37619SOL     OW14753  12.939  13.023   8.833
37619SOL    HW114754  12.996  13.099   8.844
37619SOL    HW214755  12.989  12.951   8.871
37620SOL     OW14756  10.112   8.631   5.524
37620SOL    HW114757  10.081   8.714   5.489
37620SOL    HW214758  10.135   8.580   5.446
37621SOL     OW14759   8.118  12.808   2.462
37621SOL    HW114760   8.125  12.717   2.490
37621SOL    HW214761   8.025  12.821   2.445
37622SOL     OW14762   3.488   0.026   2.151
37622SOL    HW114763   3.513   0.091   2.086
37622SOL    HW214764   3.519   0.061   2.234
37623SOL     OW14765   2.193   0.729  13.959
37623SOL    HW114766   2.233   0.791  14.020
37623SOL    HW214767   2.221   0.643  13.990
37624SOL     OW14768   2.686  13.140  11.696
37624SOL    HW114769   2.721  13.148  11.608
37624SOL    HW214770   2.609  13.085  11.687
37625SOL     OW14771   2.587  13.078   9.356
37625SOL    HW114772   2.645  13.004   9.374
37625SOL    HW214773   2.504  13.056   9.399
37626SOL     OW14774  12.224   3.940   4.530
37626SOL    HW114775  12.142   3.974   4.494
37626SOL    HW214776  12.247   4.001   4.600
37627SOL     OW14777   1.409  10.240  11.695
37627SOL    HW114778   1.324  10.197  11.685
37627SOL    HW214779   1.391  10.318  11.747
37628SOL     OW14780  13.628   7.545   8.015
37628SOL    HW114781  13.708   7.596   8.006
37628SOL    HW214782  13.619   7.500   7.931
37629SOL     OW14783  12.329  13.674   4.739
37629SOL    HW114784  12.381  13.747   4.708
37629SOL    HW214785  12.393  13.606   4.762
37630SOL     OW14786  11.479  10.982   4.708
37630SOL    HW114787  11.561  11.025   4.734
37630SOL    HW214788  11.430  11.049   4.660
37631SOL     OW14789   3.311   1.155  10.520
37631SOL    HW114790   3.400   1.121  10.532
37631SOL    HW214791   3.311   1.193  10.432
37632SOL     OW14792  12.422   3.556   7.055
37632SOL    HW114793  12.359   3.492   7.090
37632SOL    HW214794  12.506   3.529   7.091
37633SOL     OW14795   3.412   5.555   9.212
37633SOL    HW114796   3.412   5.587   9.302
37633SOL    HW214797   3.504   5.547   9.189
37634SOL     OW14798  12.628   8.304  12.940
37634SOL    HW114799  12.607   8.397  12.951
37634SOL    HW214800  12.595   8.263  13.020
37635SOL     OW14801   7.827  13.351   5.614
37635SOL    HW114802   7.861  13.298   5.686
37635SOL    HW214803   7.810  13.288   5.544
37636SOL     OW14804  12.594  12.707   0.049
37636SOL    HW114805  12.639  12.767  14.861
37636SOL    HW214806  12.663  12.651   0.084
37637SOL     OW14807   9.550   8.481  13.522
37637SOL    HW114808   9.518   8.469  13.612
37637SOL    HW214809   9.477   8.524  13.477
37638SOL     OW14810   1.092   3.232   7.194
37638SOL    HW114811   1.182   3.261   7.177
37638SOL    HW214812   1.084   3.150   7.147
37639SOL     OW14813   9.279   2.119   6.581
37639SOL    HW114814   9.260   2.158   6.666
37639SOL    HW214815   9.363   2.156   6.555
37640SOL     OW14816   9.022  11.781   0.762
37640SOL    HW114817   8.947  11.815   0.714
37640SOL    HW214818   9.022  11.830   0.844
37641SOL     OW14819  14.458   5.442   2.767
37641SOL    HW114820  14.460   5.346   2.764
37641SOL    HW214821  14.482   5.470   2.679
37642SOL     OW14822   8.363   9.707   1.152
37642SOL    HW114823   8.384   9.768   1.223
37642SOL    HW214824   8.383   9.757   1.072
37643SOL     OW14825   9.545   5.353   4.188
37643SOL    HW114826   9.571   5.391   4.272
37643SOL    HW214827   9.504   5.269   4.212
37644SOL     OW14828  13.873   1.104   6.073
37644SOL    HW114829  13.825   1.125   5.994
37644SOL    HW214830  13.808   1.065   6.131
37645SOL     OW14831   5.428   6.647  13.000
37645SOL    HW114832   5.445   6.680  13.089
37645SOL    HW214833   5.511   6.658  12.955
37646SOL     OW14834  14.367   6.474   7.964
37646SOL    HW114835  14.327   6.557   7.940
37646SOL    HW214836  14.352   6.467   8.059
37647SOL     OW14837  14.095   7.372   6.500
37647SOL    HW114838  14.088   7.279   6.523
37647SOL    HW214839  14.009   7.393   6.464
37648SOL     OW14840   2.845   3.106   0.957
37648SOL    HW114841   2.894   3.035   0.998
37648SOL    HW214842   2.837   3.172   1.027
37649SOL     OW14843   3.755   0.380   4.400
37649SOL    HW114844   3.768   0.382   4.495
37649SOL    HW214845   3.717   0.465   4.379
37650SOL     OW14846   4.415   1.425  11.660
37650SOL    HW114847   4.414   1.484  11.585
37650SOL    HW214848   4.326   1.428  11.695
37651SOL     OW14849  13.295   5.806   2.275
37651SOL    HW114850  13.348   5.858   2.335
37651SOL    HW214851  13.219   5.862   2.256
37652SOL     OW14852   5.021   7.680   0.064
37652SOL    HW114853   4.947   7.733   0.034
37652SOL    HW214854   4.988   7.590   0.062
37653SOL     OW14855   3.641   5.036  11.358
37653SOL    HW114856   3.676   5.090  11.428
37653SOL    HW214857   3.561   4.997  11.395
37654SOL     OW14858   4.035   7.777  12.394
37654SOL    HW114859   4.001   7.834  12.463
37654SOL    HW214860   4.070   7.701  12.441
37655SOL     OW14861   8.655  12.417   4.270
37655SOL    HW114862   8.653  12.502   4.314
37655SOL    HW214863   8.667  12.353   4.341
37656SOL     OW14864   6.100   7.948   2.893
37656SOL    HW114865   6.112   7.893   2.815
37656SOL    HW214866   6.121   7.891   2.966
37657SOL     OW14867  12.289   5.147   6.294
37657SOL    HW114868  12.204   5.173   6.329
37657SOL    HW214869  12.352   5.181   6.358
37658SOL     OW14870   1.634   8.186   9.094
37658SOL    HW114871   1.556   8.241   9.100
37658SOL    HW214872   1.674   8.210   9.011
37659SOL     OW14873   7.569   9.096   3.225
37659SOL    HW114874   7.556   9.001   3.226
37659SOL    HW214875   7.635   9.112   3.291
37660SOL     OW14876   6.110  10.637   3.711
37660SOL    HW114877   6.015  10.628   3.707
37660SOL    HW214878   6.130  10.710   3.652
37661SOL     OW14879   6.656   7.496  13.891
37661SOL    HW114880   6.621   7.409  13.873
37661SOL    HW214881   6.735   7.502  13.838
37662SOL     OW14882   1.336  11.943  12.888
37662SOL    HW114883   1.288  12.010  12.936
37662SOL    HW214884   1.390  11.900  12.955
37663SOL     OW14885   1.314   8.133   1.647
37663SOL    HW114886   1.285   8.047   1.615
37663SOL    HW214887   1.234   8.175   1.679
37664SOL     OW14888   6.779   2.899   8.974
37664SOL    HW114889   6.774   2.993   8.953
37664SOL    HW214890   6.812   2.897   9.064
37665SOL     OW14891   2.196  13.269   7.190
37665SOL    HW114892   2.104  13.294   7.199
37665SOL    HW214893   2.206  13.195   7.250
37666SOL     OW14894  12.315  10.684  10.762
37666SOL    HW114895  12.300  10.606  10.816
37666SOL    HW214896  12.403  10.671  10.726
37667SOL     OW14897   9.981  11.115   8.539
37667SOL    HW114898  10.076  11.110   8.551
37667SOL    HW214899   9.968  11.187   8.477
37668SOL     OW14900   2.613   0.551   3.694
37668SOL    HW114901   2.519   0.563   3.679
37668SOL    HW214902   2.652   0.635   3.668
37669SOL     OW14903  11.068   9.647   7.210
37669SOL    HW114904  11.138   9.620   7.269
37669SOL    HW214905  10.995   9.588   7.230
37670SOL     OW14906  11.234  14.102   2.940
37670SOL    HW114907  11.196  14.027   2.988
37670SOL    HW214908  11.182  14.107   2.860
37671SOL     OW14909   3.324   1.914   3.231
37671SOL    HW114910   3.321   2.009   3.222
37671SOL    HW214911   3.250   1.882   3.181
37672SOL     OW14912   0.381   9.634  13.058
37672SOL    HW114913   0.325   9.556  13.057
37672SOL    HW214914   0.382   9.663  12.967
37673SOL     OW14915  13.396  14.072   4.518
37673SOL    HW114916  13.463  14.004   4.507
37673SOL    HW214917  13.409  14.103   4.607
37674SOL     OW14918  11.869  14.339   0.574
37674SOL    HW114919  11.901  14.263   0.622
37674SOL    HW214920  11.897  14.323   0.483
37675SOL     OW14921   0.980  10.683   3.918
37675SOL    HW114922   0.913  10.622   3.948
37675SOL    HW214923   1.055  10.628   3.897
37676SOL     OW14924  12.266   9.092  12.649
37676SOL    HW114925  12.252   9.157  12.580
37676SOL    HW214926  12.319   9.024  12.607
37677SOL     OW14927  10.189   3.321   3.662
37677SOL    HW114928  10.137   3.265   3.605
37677SOL    HW214929  10.151   3.408   3.651
37678SOL     OW14930   9.937  11.787  11.727
37678SOL    HW114931   9.986  11.704  11.734
37678SOL    HW214932   9.873  11.771  11.658
37679SOL     OW14933   1.893   5.561   4.816
37679SOL    HW114934   1.952   5.556   4.741
37679SOL    HW214935   1.874   5.655   4.825
37680SOL     OW14936  13.992   4.763  12.122
37680SOL    HW114937  13.926   4.827  12.097
37680SOL    HW214938  14.034   4.738  12.040
37681SOL     OW14939   9.082  12.647   9.016
37681SOL    HW114940   9.071  12.553   9.003
37681SOL    HW214941   9.135  12.654   9.096
37682SOL     OW14942  11.732  14.248  12.056
37682SOL    HW114943  11.680  14.268  11.978
37682SOL    HW214944  11.816  14.218  12.022
37683SOL     OW14945   1.504  10.222   3.435
37683SOL    HW114946   1.515  10.194   3.345
37683SOL    HW214947   1.414  10.253   3.440
37684SOL     OW14948   0.036   2.731  11.718
37684SOL    HW114949  14.825   2.692  11.746
37684SOL    HW214950   0.039   2.816  11.761
37685SOL     OW14951   5.467   6.577   9.509
37685SOL    HW114952   5.519   6.578   9.589
37685SOL    HW214953   5.529   6.555   9.440
37686SOL     OW14954   7.289   5.184   5.900
37686SOL    HW114955   7.342   5.263   5.912
37686SOL    HW214956   7.213   5.213   5.850
37687SOL     OW14957  12.553   8.631   1.276
37687SOL    HW114958  12.552   8.609   1.369
37687SOL    HW214959  12.502   8.561   1.235
37688SOL     OW14960  13.643   0.452  14.632
37688SOL    HW114961  13.707   0.402  14.581
37688SOL    HW214962  13.558   0.416  14.605
37689SOL     OW14963   3.726  10.080   2.951
37689SOL    HW114964   3.740   9.999   2.902
37689SOL    HW214965   3.734  10.149   2.885
37690SOL     OW14966   6.268   9.292   7.207
37690SOL    HW114967   6.283   9.215   7.151
37690SOL    HW214968   6.352   9.339   7.205
37691SOL     OW14969   9.871  13.478   8.298
37691SOL    HW114970   9.872  13.383   8.287
37691SOL    HW214971   9.803  13.508   8.237
37692SOL     OW14972  13.750  13.281   1.095
37692SOL    HW114973  13.659  13.271   1.065
37692SOL    HW214974  13.803  13.249   1.021
37693SOL     OW14975   7.727  14.175   9.503
37693SOL    HW114976   7.783  14.228   9.560
37693SOL    HW214977   7.768  14.180   9.417
37694SOL     OW14978  11.566   9.827   5.423
37694SOL    HW114979  11.560   9.916   5.390
37694SOL    HW214980  11.629   9.784   5.364
37695SOL     OW14981   6.908   8.743  10.930
37695SOL    HW114982   6.888   8.834  10.950
37695SOL    HW214983   6.825   8.706  10.900
37696SOL     OW14984  10.840   5.800   7.210
37696SOL    HW114985  10.845   5.710   7.178
37696SOL    HW214986  10.811   5.852   7.134
37697SOL     OW14987   1.985   9.538   9.180
37697SOL    HW114988   1.972   9.553   9.087
37697SOL    HW214989   1.945   9.614   9.222
37698SOL     OW14990   8.676   2.933   6.488
37698SOL    HW114991   8.619   2.970   6.421
37698SOL    HW214992   8.663   2.838   6.480
37699SOL     OW14993   3.620  14.232  13.318
37699SOL    HW114994   3.693  14.170  13.321
37699SOL    HW214995   3.629  14.276  13.233
37700SOL     OW14996   0.923   5.694   8.233
37700SOL    HW114997   0.959   5.736   8.154
37700SOL    HW214998   0.956   5.604   8.229
37701SOL     OW14999   5.773   2.394   5.667
37701SOL    HW115000   5.744   2.321   5.722
37701SOL    HW215001   5.834   2.443   5.721
37702SOL     OW15002   0.221   6.223   6.419
37702SOL    HW115003   0.176   6.229   6.334
37702SOL    HW215004   0.190   6.141   6.457
37703SOL     OW15005  12.876  12.023   8.775
37703SOL    HW115006  12.852  11.988   8.689
37703SOL    HW215007  12.916  11.949   8.820
37704SOL     OW15008   1.129   2.722  13.581
37704SOL    HW115009   1.036   2.737  13.599
37704SOL    HW215010   1.160   2.671  13.657
37705SOL     OW15011   2.639  11.228   9.397
37705SOL    HW115012   2.641  11.294   9.466
37705SOL    HW215013   2.630  11.145   9.444
37706SOL     OW15014   3.686   0.834   3.502
37706SOL    HW115015   3.629   0.875   3.567
37706SOL    HW215016   3.772   0.832   3.543
37707SOL     OW15017   0.267  11.631   0.592
37707SOL    HW115018   0.343  11.688   0.591
37707SOL    HW215019   0.231  11.638   0.503
37708SOL     OW15020   7.305  10.269   0.252
37708SOL    HW115021   7.222  10.248   0.208
37708SOL    HW215022   7.368  10.209   0.212
37709SOL     OW15023  13.780  14.131  13.714
37709SOL    HW115024  13.848  14.083  13.761
37709SOL    HW215025  13.717  14.155  13.781
37710SOL     OW15026   3.701   9.236   9.548
37710SOL    HW115027   3.724   9.148   9.576
37710SOL    HW215028   3.782   9.273   9.514
37711SOL     OW15029   8.709   5.006  14.665
37711SOL    HW115030   8.632   5.013  14.608
37711SOL    HW215031   8.762   4.937  14.626
37712SOL     OW15032  10.611  10.832   0.695
37712SOL    HW115033  10.570  10.755   0.653
37712SOL    HW215034  10.560  10.845   0.775
37713SOL     OW15035  10.738   4.762   3.616
37713SOL    HW115036  10.810   4.803   3.567
37713SOL    HW215037  10.699   4.700   3.555
37714SOL     OW15038   9.884  14.465  14.622
37714SOL    HW115039   9.799  14.461  14.577
37714SOL    HW215040   9.935  14.393  14.585
37715SOL     OW15041  11.626  11.790  12.109
37715SOL    HW115042  11.570  11.798  12.187
37715SOL    HW215043  11.567  11.760  12.040
37716SOL     OW15044  12.635   6.554  10.243
37716SOL    HW115045  12.577   6.583  10.172
37716SOL    HW215046  12.602   6.600  10.321
37717SOL     OW15047   2.874   6.524   1.712
37717SOL    HW115048   2.959   6.546   1.750
37717SOL    HW215049   2.820   6.601   1.728
37718SOL     OW15050   0.930   8.274   0.751
37718SOL    HW115051   0.907   8.238   0.837
37718SOL    HW215052   0.997   8.339   0.769
37719SOL     OW15053   1.011   4.506   4.960
37719SOL    HW115054   1.034   4.426   5.007
37719SOL    HW215055   1.069   4.573   4.996
37720SOL     OW15056   4.927  10.180  11.908
37720SOL    HW115057   4.922  10.085  11.902
37720SOL    HW215058   4.868  10.203  11.980
37721SOL     OW15059  12.487   4.645   2.729
37721SOL    HW115060  12.571   4.610   2.759
37721SOL    HW215061  12.490   4.738   2.753
37722SOL     OW15062  12.765   7.668   6.994
37722SOL    HW115063  12.805   7.596   6.944
37722SOL    HW215064  12.683   7.631   7.028
37723SOL     OW15065   8.487   5.507  12.006
37723SOL    HW115066   8.455   5.518  11.917
37723SOL    HW215067   8.418   5.460  12.052
37724SOL     OW15068   1.101   8.255   1.785
37724SOL    HW115069   1.019   8.280   1.743
37724SOL    HW215070   1.076   8.225   1.872
37725SOL     OW15071  10.903   1.928  14.468
37725SOL    HW115072  10.996   1.948  14.475
37725SOL    HW215073  10.899   1.832  14.461
37726SOL     OW15074   2.354   0.256  13.930
37726SOL    HW115075   2.283   0.203  13.967
37726SOL    HW215076   2.408   0.279  14.006
37727SOL     OW15077  11.198  14.152  13.140
37727SOL    HW115078  11.281  14.155  13.187
37727SOL    HW215079  11.170  14.060  13.146
37728SOL     OW15080   6.625  13.898   0.545
37728SOL    HW115081   6.666  13.905   0.631
37728SOL    HW215082   6.694  13.925   0.484
37729SOL     OW15083   5.609  11.986   5.037
37729SOL    HW115084   5.530  12.034   5.010
37729SOL    HW215085   5.594  11.897   5.007
37730SOL     OW15086   5.703  14.174   8.598
37730SOL    HW115087   5.644  14.145   8.528
37730SOL    HW215088   5.790  14.165   8.560
37731SOL     OW15089   7.295   2.601  11.461
37731SOL    HW115090   7.227   2.595  11.394
37731SOL    HW215091   7.315   2.510  11.483
37732SOL     OW15092  14.367  13.231  10.848
37732SOL    HW115093  14.272  13.228  10.830
37732SOL    HW215094  14.396  13.311  10.805
37733SOL     OW15095   9.666  11.522   1.103
37733SOL    HW115096   9.719  11.473   1.167
37733SOL    HW215097   9.656  11.461   1.030
37734SOL     OW15098   2.823  12.437   7.483
37734SOL    HW115099   2.852  12.475   7.566
37734SOL    HW215100   2.902  12.400   7.445
37735SOL     OW15101   2.461   4.676  10.520
37735SOL    HW115102   2.487   4.718  10.602
37735SOL    HW215103   2.405   4.740  10.476
37736SOL     OW15104  12.080   4.043   0.362
37736SOL    HW115105  11.988   4.017   0.367
37736SOL    HW215106  12.102   4.039   0.269
37737SOL     OW15107   7.739  10.193  13.661
37737SOL    HW115108   7.764  10.100  13.666
37737SOL    HW215109   7.823  10.239  13.654
37738SOL     OW15110   0.845  11.911   3.606
37738SOL    HW115111   0.930  11.886   3.569
37738SOL    HW215112   0.836  12.004   3.586
37739SOL     OW15113   3.071   9.500  13.228
37739SOL    HW115114   3.075   9.525  13.136
37739SOL    HW215115   3.059   9.405  13.227
37740SOL     OW15116   5.803  13.519   8.738
37740SOL    HW115117   5.729  13.505   8.680
37740SOL    HW215118   5.866  13.451   8.713
37741SOL     OW15119   0.571   0.842   5.047
37741SOL    HW115120   0.533   0.876   4.966
37741SOL    HW215121   0.536   0.898   5.115
37742SOL     OW15122  12.816   0.694   9.018
37742SOL    HW115123  12.873   0.645   8.959
37742SOL    HW215124  12.821   0.645   9.101
37743SOL     OW15125   3.852  12.864  11.531
37743SOL    HW115126   3.765  12.825  11.525
37743SOL    HW215127   3.862  12.913  11.450
37744SOL     OW15128   7.965   4.046   4.203
37744SOL    HW115129   7.922   4.102   4.268
37744SOL    HW215130   7.906   3.971   4.194
37745SOL     OW15131   9.070   5.935  10.932
37745SOL    HW115132   9.070   5.861  10.993
37745SOL    HW215133   9.123   5.905  10.858
37746SOL     OW15134  13.180   9.554   9.189
37746SOL    HW115135  13.187   9.644   9.220
37746SOL    HW215136  13.131   9.508   9.257
37747SOL     OW15137  13.953   1.216   4.747
37747SOL    HW115138  13.925   1.160   4.819
37747SOL    HW215139  14.042   1.186   4.727
37748SOL     OW15140   4.407   1.848   6.404
37748SOL    HW115141   4.358   1.870   6.483
37748SOL    HW215142   4.408   1.929   6.353
37749SOL     OW15143   0.205   4.852   7.537
37749SOL    HW115144   0.254   4.921   7.492
37749SOL    HW215145   0.219   4.871   7.630
37750SOL     OW15146  11.821   4.546  10.167
37750SOL    HW115147  11.757   4.477  10.149
37750SOL    HW215148  11.859   4.566  10.082
37751SOL     OW15149   9.472   5.707   4.326
37751SOL    HW115150   9.497   5.788   4.281
37751SOL    HW215151   9.384   5.723   4.358
37752SOL     OW15152   4.289   4.944   1.398
37752SOL    HW115153   4.197   4.957   1.420
37752SOL    HW215154   4.296   4.972   1.307
37753SOL     OW15155  10.587   3.326   3.410
37753SOL    HW115156  10.505   3.355   3.371
37753SOL    HW215157  10.639   3.406   3.420
37754SOL     OW15158   5.029   5.857   9.162
37754SOL    HW115159   5.068   5.825   9.081
37754SOL    HW215160   5.052   5.950   9.164
37755SOL     OW15161   1.679   8.959   4.683
37755SOL    HW115162   1.743   8.995   4.621
37755SOL    HW215163   1.721   8.880   4.717
37756SOL     OW15164  14.075  13.475   3.062
37756SOL    HW115165  14.157  13.524   3.063
37756SOL    HW215166  14.026  13.510   3.136
37757SOL     OW15167   1.269   3.364   5.184
37757SOL    HW115168   1.309   3.319   5.110
37757SOL    HW215169   1.327   3.438   5.202
37758SOL     OW15170   8.797   9.650  12.392
37758SOL    HW115171   8.882   9.695  12.401
37758SOL    HW215172   8.802   9.605  12.308
37759SOL     OW15173   6.622   9.866   0.107
37759SOL    HW115174   6.605   9.774   0.127
37759SOL    HW215175   6.551   9.891   0.048
37760SOL     OW15176   5.435   9.917   6.116
37760SOL    HW115177   5.442   9.837   6.063
37760SOL    HW215178   5.524   9.952   6.117
37761SOL     OW15179  11.136   4.985  11.223
37761SOL    HW115180  11.176   4.937  11.296
37761SOL    HW215181  11.047   5.004  11.254
37762SOL     OW15182   3.578   5.887   8.721
37762SOL    HW115183   3.667   5.859   8.699
37762SOL    HW215184   3.576   5.980   8.698
37763SOL     OW15185   5.518   5.068  10.956
37763SOL    HW115186   5.581   5.115  11.011
37763SOL    HW215187   5.475   5.007  11.015
37764SOL     OW15188   6.639   4.451  10.435
37764SOL    HW115189   6.680   4.422  10.354
37764SOL    HW215190   6.660   4.383  10.499
37765SOL     OW15191  10.702   2.312   3.347
37765SOL    HW115192  10.626   2.339   3.399
37765SOL    HW215193  10.710   2.218   3.363
37766SOL     OW15194   4.109  12.118  12.560
37766SOL    HW115195   4.063  12.191  12.518
37766SOL    HW215196   4.184  12.158  12.604
37767SOL     OW15197   1.043   8.777  12.627
37767SOL    HW115198   1.119   8.722  12.641
37767SOL    HW215199   1.055   8.851  12.688
37768SOL     OW15200  13.566  14.548   0.615
37768SOL    HW115201  13.623  14.617   0.648
37768SOL    HW215202  13.571  14.557   0.519
37769SOL     OW15203  13.711  12.838   6.405
37769SOL    HW115204  13.647  12.896   6.445
37769SOL    HW215205  13.666  12.800   6.330
37770SOL     OW15206   4.026   7.335  11.677
37770SOL    HW115207   3.941   7.373  11.699
37770SOL    HW215208   4.042   7.363  11.587
37771SOL     OW15209  11.626   9.243   4.313
37771SOL    HW115210  11.612   9.336   4.298
37771SOL    HW215211  11.676   9.213   4.237
37772SOL     OW15212  10.953   1.477  12.690
37772SOL    HW115213  11.007   1.555  12.682
37772SOL    HW215214  10.865   1.509  12.707
37773SOL     OW15215  13.209  13.450   7.782
37773SOL    HW115216  13.281  13.511   7.798
37773SOL    HW215217  13.130  13.498   7.810
37774SOL     OW15218   1.412   4.055  13.451
37774SOL    HW115219   1.342   4.046  13.386
37774SOL    HW215220   1.457   3.970  13.449
37775SOL     OW15221  13.254   3.599  13.114
37775SOL    HW115222  13.193   3.636  13.177
37775SOL    HW215223  13.214   3.618  13.029
37776SOL     OW15224   6.509   2.915   8.499
37776SOL    HW115225   6.445   2.987   8.500
37776SOL    HW215226   6.567   2.937   8.426
37777SOL     OW15227   9.957   8.331   0.818
37777SOL    HW115228   9.945   8.408   0.763
37777SOL    HW215229   9.919   8.259   0.767
37778SOL     OW15230   2.205  13.215  10.817
37778SOL    HW115231   2.166  13.265  10.889
37778SOL    HW215232   2.158  13.244  10.739
37779SOL     OW15233   5.936   8.118   6.926
37779SOL    HW115234   6.003   8.076   6.980
37779SOL    HW215235   5.976   8.197   6.893
37780SOL     OW15236   1.425   3.200  13.312
37780SOL    HW115237   1.329   3.202  13.306
37780SOL    HW215238   1.444   3.216  13.405
37781SOL     OW15239   6.686   7.901   6.385
37781SOL    HW115240   6.714   7.968   6.322
37781SOL    HW215241   6.591   7.907   6.385
37782SOL     OW15242  10.258   9.005   2.989
37782SOL    HW115243  10.339   9.040   2.952
37782SOL    HW215244  10.260   8.912   2.968
37783SOL     OW15245   3.290   0.959  11.910
37783SOL    HW115246   3.361   0.972  11.974
37783SOL    HW215247   3.218   0.922  11.961
37784SOL     OW15248  12.798   0.327  13.274
37784SOL    HW115249  12.816   0.342  13.366
37784SOL    HW215250  12.713   0.369  13.259
37785SOL     OW15251  10.885   1.692   2.965
37785SOL    HW115252  10.970   1.700   3.008
37785SOL    HW215253  10.894   1.745   2.885
37786SOL     OW15254   7.582   7.697   1.849
37786SOL    HW115255   7.563   7.668   1.760
37786SOL    HW215256   7.677   7.709   1.850
37787SOL     OW15257  10.296   9.016  11.734
37787SOL    HW115258  10.321   8.969  11.654
37787SOL    HW215259  10.201   9.008  11.738
37788SOL     OW15260  12.666  10.256   3.953
37788SOL    HW115261  12.760  10.265   3.935
37788SOL    HW215262  12.623  10.311   3.888
37789SOL     OW15263   4.143   0.819   8.628
37789SOL    HW115264   4.137   0.762   8.705
37789SOL    HW215265   4.106   0.903   8.658
37790SOL     OW15266  13.729   2.431  10.556
37790SOL    HW115267  13.809   2.384  10.579
37790SOL    HW215268  13.686   2.449  10.640
37791SOL     OW15269   9.236  11.015   1.994
37791SOL    HW115270   9.305  10.955   1.965
37791SOL    HW215271   9.260  11.099   1.956
37792SOL     OW15272   0.544   2.293  12.909
37792SOL    HW115273   0.451   2.314  12.924
37792SOL    HW215274   0.575   2.363  12.851
37793SOL     OW15275   7.865   1.430   2.412
37793SOL    HW115276   7.814   1.402   2.488
37793SOL    HW215277   7.957   1.417   2.438
37794SOL     OW15278   8.069  14.067   2.249
37794SOL    HW115279   8.029  13.980   2.242
37794SOL    HW215280   8.056  14.091   2.341
37795SOL     OW15281   7.560  10.123   6.082
37795SOL    HW115282   7.595  10.088   6.164
37795SOL    HW215283   7.567  10.051   6.020
37796SOL     OW15284   2.584   6.429   3.529
37796SOL    HW115285   2.562   6.388   3.612
37796SOL    HW215286   2.516   6.494   3.515
37797SOL     OW15287   6.997   3.849   9.843
37797SOL    HW115288   6.926   3.875   9.902
37797SOL    HW215289   7.060   3.921   9.849
37798SOL     OW15290   0.479  10.017   6.947
37798SOL    HW115291   0.462   9.947   6.884
37798SOL    HW215292   0.573  10.031   6.942
37799SOL     OW15293   8.663   6.165  12.264
37799SOL    HW115294   8.591   6.150  12.203
37799SOL    HW215295   8.638   6.118  12.343
37800SOL     OW15296  10.294   9.965   4.558
37800SOL    HW115297  10.322   9.961   4.466
37800SOL    HW215298  10.375   9.963   4.608
37801SOL     OW15299  11.365  11.192   9.733
37801SOL    HW115300  11.300  11.135   9.692
37801SOL    HW215301  11.338  11.281   9.709
37802SOL     OW15302   3.433  11.782   8.627
37802SOL    HW115303   3.357  11.729   8.604
37802SOL    HW215304   3.399  11.846   8.690
37803SOL     OW15305  13.378   4.940   5.659
37803SOL    HW115306  13.307   4.877   5.671
37803SOL    HW215307  13.357   5.012   5.720
37804SOL     OW15308   2.689   3.884   8.698
37804SOL    HW115309   2.691   3.965   8.748
37804SOL    HW215310   2.639   3.823   8.752
37805SOL     OW15311  13.356   6.822   8.225
37805SOL    HW115312  13.297   6.859   8.159
37805SOL    HW215313  13.395   6.746   8.183
37806SOL     OW15314   6.591  11.436   0.612
37806SOL    HW115315   6.602  11.352   0.566
37806SOL    HW215316   6.597  11.413   0.705
37807SOL     OW15317   7.877  13.330  13.823
37807SOL    HW115318   7.854  13.306  13.912
37807SOL    HW215319   7.930  13.257  13.791
37808SOL     OW15320   9.280  11.602  10.645
37808SOL    HW115321   9.210  11.583  10.583
37808SOL    HW215322   9.235  11.624  10.727
37809SOL     OW15323   6.791   2.359   3.072
37809SOL    HW115324   6.790   2.308   3.153
37809SOL    HW215325   6.719   2.324   3.020
37810SOL     OW15326  10.655   4.424  12.636
37810SOL    HW115327  10.664   4.330  12.644
37810SOL    HW215328  10.675   4.458  12.724
37811SOL     OW15329   5.956   5.101  11.212
37811SOL    HW115330   5.871   5.141  11.196
37811SOL    HW215331   6.012   5.174  11.239
37812SOL     OW15332  12.790   3.804   8.144
37812SOL    HW115333  12.755   3.758   8.068
37812SOL    HW215334  12.725   3.871   8.164
37813SOL     OW15335  12.163   8.559  12.979
37813SOL    HW115336  12.095   8.626  12.985
37813SOL    HW215337  12.159   8.529  12.888
37814SOL     OW15338  13.158  12.804   9.956
37814SOL    HW115339  13.213  12.729   9.935
37814SOL    HW215340  13.181  12.826  10.047
37815SOL     OW15341   2.522  11.467   6.354
37815SOL    HW115342   2.538  11.551   6.310
37815SOL    HW215343   2.496  11.492   6.443
37816SOL     OW15344   4.974   4.042  13.744
37816SOL    HW115345   5.041   4.075  13.803
37816SOL    HW215346   4.959   4.114  13.682
37817SOL     OW15347  11.556   9.731   6.808
37817SOL    HW115348  11.606   9.811   6.825
37817SOL    HW215349  11.601   9.663   6.858
37818SOL     OW15350   2.394  13.719  10.919
37818SOL    HW115351   2.461  13.782  10.943
37818SOL    HW215352   2.392  13.657  10.992
37819SOL     OW15353  12.531   4.927   7.284
37819SOL    HW115354  12.616   4.947   7.324
37819SOL    HW215355  12.551   4.859   7.220
37820SOL     OW15356   7.368  10.187   2.556
37820SOL    HW115357   7.445  10.163   2.505
37820SOL    HW215358   7.349  10.110   2.610
37821SOL     OW15359   9.450  14.164  12.953
37821SOL    HW115360   9.449  14.166  12.857
37821SOL    HW215361   9.504  14.239  12.978
37822SOL     OW15362   1.649   7.784   4.601
37822SOL    HW115363   1.556   7.772   4.622
37822SOL    HW215364   1.656   7.876   4.575
37823SOL     OW15365  13.082  12.941  12.801
37823SOL    HW115366  13.075  12.908  12.712
37823SOL    HW215367  13.174  12.963  12.811
37824SOL     OW15368   8.761   4.449   9.012
37824SOL    HW115369   8.773   4.455   9.107
37824SOL    HW215370   8.836   4.497   8.976
37825SOL     OW15371  10.970   1.948   6.381
37825SOL    HW115372  10.981   1.896   6.461
37825SOL    HW215373  10.881   1.983   6.387
37826SOL     OW15374  14.284  11.363   2.104
37826SOL    HW115375  14.234  11.441   2.126
37826SOL    HW215376  14.264  11.301   2.175
37827SOL     OW15377  13.754   9.593   8.324
37827SOL    HW115378  13.694   9.626   8.258
37827SOL    HW215379  13.715   9.510   8.353
37828SOL     OW15380   1.487   9.100   3.401
37828SOL    HW115381   1.519   9.188   3.422
37828SOL    HW215382   1.412   9.088   3.460
37829SOL     OW15383   4.094   1.020   1.481
37829SOL    HW115384   4.149   0.967   1.538
37829SOL    HW215385   4.012   1.031   1.530
37830SOL     OW15386  12.425   8.963   0.486
37830SOL    HW115387  12.336   8.989   0.513
37830SOL    HW215388  12.415   8.873   0.454
37831SOL     OW15389  11.130   0.323   3.409
37831SOL    HW115390  11.217   0.283   3.412
37831SOL    HW215391  11.109   0.342   3.500
37832SOL     OW15392   9.394   5.961   7.627
37832SOL    HW115393   9.354   5.994   7.708
37832SOL    HW215394   9.489   5.967   7.643
37833SOL     OW15395   2.395  11.603   5.972
37833SOL    HW115396   2.451  11.534   5.936
37833SOL    HW215397   2.378  11.661   5.898
37834SOL     OW15398   5.922  14.605  10.848
37834SOL    HW115399   5.834  14.640  10.865
37834SOL    HW215400   5.907  14.521  10.806
37835SOL     OW15401   4.377   2.301   1.907
37835SOL    HW115402   4.330   2.326   1.986
37835SOL    HW215403   4.466   2.283   1.938
37836SOL     OW15404   9.170   8.277   3.077
37836SOL    HW115405   9.168   8.182   3.070
37836SOL    HW215406   9.263   8.299   3.076
37837SOL     OW15407   5.439  13.999  12.348
37837SOL    HW115408   5.505  14.033  12.408
37837SOL    HW215409   5.407  14.076  12.302
37838SOL     OW15410   1.907  13.941  11.593
37838SOL    HW115411   1.838  13.976  11.536
37838SOL    HW215412   1.862  13.923  11.675
37839SOL     OW15413  10.177  12.951   4.503
37839SOL    HW115414  10.095  12.954   4.455
37839SOL    HW215415  10.238  13.000   4.448
37840SOL     OW15416   1.179   4.794   2.037
37840SOL    HW115417   1.182   4.890   2.038
37840SOL    HW215418   1.180   4.771   1.944
37841SOL     OW15419   2.327  10.275  14.472
37841SOL    HW115420   2.372  10.192  14.458
37841SOL    HW215421   2.245  10.266  14.424
37842SOL     OW15422  12.963  13.897   7.219
37842SOL    HW115423  13.035  13.848   7.259
37842SOL    HW215424  12.959  13.979   7.267
37843SOL     OW15425   2.988   7.771   6.167
37843SOL    HW115426   3.011   7.862   6.145
37843SOL    HW215427   3.067   7.736   6.208
37844SOL     OW15428  10.535   2.890  11.212
37844SOL    HW115429  10.444   2.913  11.227
37844SOL    HW215430  10.537   2.794  11.217
37845SOL     OW15431   7.236   1.231  13.185
37845SOL    HW115432   7.285   1.199  13.261
37845SOL    HW215433   7.192   1.310  13.216
37846SOL     OW15434  13.992  14.184   3.510
37846SOL    HW115435  14.008  14.108   3.566
37846SOL    HW215436  13.985  14.257   3.571
37847SOL     OW15437  13.409   0.501  14.302
37847SOL    HW115438  13.434   0.476  14.212
37847SOL    HW215439  13.468   0.572  14.325
37848SOL     OW15440  10.172   0.909   6.946
37848SOL    HW115441  10.221   0.930   7.026
37848SOL    HW215442  10.239   0.901   6.878
37849SOL     OW15443   2.321   7.463   4.467
37849SOL    HW115444   2.328   7.372   4.439
37849SOL    HW215445   2.250   7.463   4.532
37850SOL     OW15446   2.121  14.731   7.788
37850SOL    HW115447   2.039  14.685   7.770
37850SOL    HW215448   2.101  14.787   7.863
37851SOL     OW15449   1.279  12.050  11.932
37851SOL    HW115450   1.223  12.125  11.910
37851SOL    HW215451   1.286  12.001  11.850
37852SOL     OW15452   0.157  10.118  11.578
37852SOL    HW115453   0.157  10.086  11.668
37852SOL    HW215454   0.230  10.072  11.537
37853SOL     OW15455   5.624   6.095   1.079
37853SOL    HW115456   5.605   6.152   1.153
37853SOL    HW215457   5.650   6.012   1.119
37854SOL     OW15458  13.663  12.941   2.250
37854SOL    HW115459  13.661  12.894   2.167
37854SOL    HW215460  13.737  12.903   2.297
37855SOL     OW15461   1.490  13.412   7.697
37855SOL    HW115462   1.429  13.473   7.738
37855SOL    HW215463   1.575  13.455   7.705
37856SOL     OW15464  10.627  14.842  13.314
37856SOL    HW115465  10.544  14.810  13.276
37856SOL    HW215466  10.600   0.040  13.373
37857SOL     OW15467   4.863   0.138   8.122
37857SOL    HW115468   4.888   0.166   8.034
37857SOL    HW215469   4.795   0.073   8.109
37858SOL     OW15470  13.375   5.703   2.684
37858SOL    HW115471  13.302   5.683   2.626
37858SOL    HW215472  13.442   5.638   2.662
37859SOL     OW15473   4.428   7.961  10.805
37859SOL    HW115474   4.351   7.957  10.861
37859SOL    HW215475   4.400   8.015  10.731
37860SOL     OW15476   3.177  13.873   5.662
37860SOL    HW115477   3.189  13.795   5.608
37860SOL    HW215478   3.175  13.945   5.599
37861SOL     OW15479   8.277   6.883   1.320
37861SOL    HW115480   8.341   6.912   1.254
37861SOL    HW215481   8.249   6.964   1.363
37862SOL     OW15482   6.299   0.165  12.483
37862SOL    HW115483   6.294   0.119  12.399
37862SOL    HW215484   6.208   0.166  12.514
37863SOL     OW15485   6.074  14.729   8.463
37863SOL    HW115486   6.088  14.635   8.477
37863SOL    HW215487   6.118  14.748   8.380
37864SOL     OW15488   8.025  13.995   6.602
37864SOL    HW115489   8.075  13.968   6.679
37864SOL    HW215490   7.973  13.917   6.580
37865SOL     OW15491   0.190   0.993  11.330
37865SOL    HW115492   0.141   0.911  11.318
37865SOL    HW215493   0.189   1.008  11.424
37866SOL     OW15494  14.211   6.997   4.127
37866SOL    HW115495  14.254   6.918   4.159
37866SOL    HW215496  14.192   7.047   4.207
37867SOL     OW15497  12.392   5.944   5.566
37867SOL    HW115498  12.305   5.902   5.565
37867SOL    HW215499  12.374   6.035   5.589
37868SOL     OW15500   0.170  13.740  10.656
37868SOL    HW115501   0.188  13.748  10.562
37868SOL    HW215502   0.236  13.794  10.698
37869SOL     OW15503   7.159  11.191   0.927
37869SOL    HW115504   7.098  11.242   0.980
37869SOL    HW215505   7.110  11.168   0.849
37870SOL     OW15506   0.908   0.844   7.889
37870SOL    HW115507   1.001   0.842   7.866
37870SOL    HW215508   0.878   0.754   7.879
37871SOL     OW15509   9.900  14.804  14.221
37871SOL    HW115510   9.809  14.781  14.202
37871SOL    HW215511   9.923  14.869  14.154
37872SOL     OW15512   7.536   8.796   5.723
37872SOL    HW115513   7.630   8.793   5.708
37872SOL    HW215514   7.520   8.732   5.792
37873SOL     OW15515   3.555   9.144   1.739
37873SOL    HW115516   3.526   9.158   1.829
37873SOL    HW215517   3.625   9.079   1.746
37874SOL     OW15518   3.554  12.639   5.379
37874SOL    HW115519   3.467  12.654   5.341
37874SOL    HW215520   3.544  12.664   5.471
37875SOL     OW15521   9.002   0.344   3.114
37875SOL    HW115522   9.081   0.380   3.154
37875SOL    HW215523   8.957   0.421   3.077
37876SOL     OW15524   5.274   0.227   4.649
37876SOL    HW115525   5.190   0.184   4.664
37876SOL    HW215526   5.268   0.262   4.561
37877SOL     OW15527   0.770   3.765   3.004
37877SOL    HW115528   0.757   3.790   3.096
37877SOL    HW215529   0.690   3.716   2.982
37878SOL     OW15530   7.827   7.826  12.168
37878SOL    HW115531   7.897   7.883  12.199
37878SOL    HW215532   7.774   7.808  12.246
37879SOL     OW15533   4.750   4.907  12.365
37879SOL    HW115534   4.698   4.865  12.296
37879SOL    HW215535   4.799   4.975  12.320
37880SOL     OW15536   6.589   0.930   9.841
37880SOL    HW115537   6.511   0.943   9.787
37880SOL    HW215538   6.559   0.878   9.916
37881SOL     OW15539   2.543   5.347   0.972
37881SOL    HW115540   2.479   5.320   0.907
37881SOL    HW215541   2.627   5.315   0.939
37882SOL     OW15542   3.119   8.335   0.305
37882SOL    HW115543   3.053   8.339   0.236
37882SOL    HW215544   3.069   8.320   0.386
37883SOL     OW15545   3.571  13.472   7.029
37883SOL    HW115546   3.597  13.544   6.972
37883SOL    HW215547   3.643  13.409   7.023
37884SOL     OW15548   7.824   6.966   8.380
37884SOL    HW115549   7.733   6.990   8.399
37884SOL    HW215550   7.876   7.012   8.446
37885SOL     OW15551   7.170   0.276  13.686
37885SOL    HW115552   7.152   0.186  13.716
37885SOL    HW215553   7.118   0.331  13.744
37886SOL     OW15554   5.100  11.154   9.191
37886SOL    HW115555   5.158  11.152   9.115
37886SOL    HW215556   5.073  11.246   9.197
37887SOL     OW15557  10.174  14.348   2.257
37887SOL    HW115558  10.125  14.306   2.186
37887SOL    HW215559  10.265  14.325   2.241
37888SOL     OW15560  14.211  13.457   8.340
37888SOL    HW115561  14.246  13.545   8.354
37888SOL    HW215562  14.215  13.415   8.426
37889SOL     OW15563   9.474   9.535   2.018
37889SOL    HW115564   9.566   9.509   2.023
37889SOL    HW215565   9.428   9.470   2.071
37890SOL     OW15566   7.482  12.461   1.730
37890SOL    HW115567   7.388  12.453   1.714
37890SOL    HW215568   7.521  12.461   1.642
37891SOL     OW15569  11.951   7.374   6.391
37891SOL    HW115570  11.945   7.456   6.342
37891SOL    HW215571  11.867   7.330   6.375
37892SOL     OW15572   6.359  13.988   6.932
37892SOL    HW115573   6.301  13.913   6.942
37892SOL    HW215574   6.340  14.044   7.007
37893SOL     OW15575   4.560  14.214   4.160
37893SOL    HW115576   4.626  14.177   4.218
37893SOL    HW215577   4.529  14.140   4.108
37894SOL     OW15578   8.805   1.247  11.075
37894SOL    HW115579   8.808   1.221  11.167
37894SOL    HW215580   8.884   1.301  11.063
37895SOL     OW15581  11.597   0.821   9.275
37895SOL    HW115582  11.530   0.882   9.305
37895SOL    HW215583  11.580   0.810   9.181
37896SOL     OW15584  12.343   7.846   7.766
37896SOL    HW115585  12.431   7.882   7.774
37896SOL    HW215586  12.317   7.865   7.675
37897SOL     OW15587  12.154   7.238   0.754
37897SOL    HW115588  12.149   7.304   0.685
37897SOL    HW215589  12.068   7.242   0.797
37898SOL     OW15590  12.616   4.511   3.944
37898SOL    HW115591  12.586   4.460   4.020
37898SOL    HW215592  12.557   4.485   3.873
37899SOL     OW15593   0.420  11.022  14.341
37899SOL    HW115594   0.484  11.071  14.393
37899SOL    HW215595   0.471  10.989  14.266
37900SOL     OW15596  14.054   8.635   9.494
37900SOL    HW115597  14.088   8.668   9.411
37900SOL    HW215598  13.966   8.605   9.473
37901SOL     OW15599   5.684   3.194  13.528
37901SOL    HW115600   5.697   3.222  13.437
37901SOL    HW215601   5.599   3.150  13.526
37902SOL     OW15602   4.138   0.957   7.191
37902SOL    HW115603   4.117   0.968   7.283
37902SOL    HW215604   4.231   0.931   7.191
37903SOL     OW15605  13.203   9.459  13.178
37903SOL    HW115606  13.294   9.473  13.204
37903SOL    HW215607  13.184   9.533  13.121
37904SOL     OW15608   4.810   9.504   7.348
37904SOL    HW115609   4.807   9.461   7.434
37904SOL    HW215610   4.787   9.595   7.366
37905SOL     OW15611   8.235   3.867   7.474
37905SOL    HW115612   8.217   3.868   7.380
37905SOL    HW215613   8.232   3.958   7.501
37906SOL     OW15614   2.759   4.832  13.688
37906SOL    HW115615   2.718   4.884  13.618
37906SOL    HW215616   2.843   4.876  13.704
37907SOL     OW15617  14.004   2.813  13.268
37907SOL    HW115618  14.015   2.884  13.331
37907SOL    HW215619  14.020   2.854  13.183
37908SOL     OW15620  14.249   0.254   2.267
37908SOL    HW115621  14.198   0.335   2.260
37908SOL    HW215622  14.256   0.238   2.361
37909SOL     OW15623  11.622   0.287   3.149
37909SOL    HW115624  11.553   0.346   3.178
37909SOL    HW215625  11.617   0.289   3.053
37910SOL     OW15626   2.508   6.492   0.652
37910SOL    HW115627   2.415   6.509   0.667
37910SOL    HW215628   2.549   6.579   0.651
37911SOL     OW15629  13.348   4.228   1.495
37911SOL    HW115630  13.408   4.277   1.439
37911SOL    HW215631  13.403   4.197   1.567
37912SOL     OW15632   1.082   7.542  12.188
37912SOL    HW115633   1.016   7.535  12.119
37912SOL    HW215634   1.137   7.616  12.161
37913SOL     OW15635  14.331   8.981   1.711
37913SOL    HW115636  14.422   9.005   1.698
37913SOL    HW215637  14.293   8.981   1.623
37914SOL     OW15638   9.356   8.009  12.406
37914SOL    HW115639   9.263   7.986  12.409
37914SOL    HW215640   9.379   8.002  12.314
37915SOL     OW15641   2.361   5.542   2.232
37915SOL    HW115642   2.296   5.484   2.273
37915SOL    HW215643   2.414   5.574   2.305
37916SOL     OW15644   0.850  10.252   9.487
37916SOL    HW115645   0.916  10.311   9.452
37916SOL    HW215646   0.856  10.263   9.582
37917SOL     OW15647  11.366  10.524  11.962
37917SOL    HW115648  11.429  10.465  11.919
37917SOL    HW215649  11.335  10.474  12.038
37918SOL     OW15650   0.038  13.192   8.546
37918SOL    HW115651   0.032  13.192   8.450
37918SOL    HW215652   0.123  13.153   8.565
37919SOL     OW15653   3.406  11.512  14.762
37919SOL    HW115654   3.335  11.504  14.698
37919SOL    HW215655   3.420  11.423  14.794
37920SOL     OW15656   5.545  12.107  10.178
37920SOL    HW115657   5.580  12.102  10.267
37920SOL    HW215658   5.622  12.111  10.122
37921SOL     OW15659  11.712   7.695  10.372
37921SOL    HW115660  11.703   7.788  10.351
37921SOL    HW215661  11.716   7.651  10.287
37922SOL     OW15662   4.353   9.472  11.460
37922SOL    HW115663   4.415   9.428  11.518
37922SOL    HW215664   4.319   9.545  11.512
37923SOL     OW15665   8.727   5.640  13.233
37923SOL    HW115666   8.649   5.646  13.178
37923SOL    HW215667   8.794   5.605  13.175
37924SOL     OW15668   6.949   9.724  12.597
37924SOL    HW115669   6.888   9.666  12.552
37924SOL    HW215670   7.026   9.669  12.613
37925SOL     OW15671   4.708   8.282   0.219
37925SOL    HW115672   4.662   8.350   0.268
37925SOL    HW215673   4.760   8.330   0.154
37926SOL     OW15674   0.061  14.827   3.893
37926SOL    HW115675   0.106   0.017   3.950
37926SOL    HW215676   0.063  14.868   3.806
37927SOL     OW15677   0.250   7.231  13.080
37927SOL    HW115678   0.159   7.261  13.083
37927SOL    HW215679   0.301   7.306  13.108
37928SOL     OW15680   3.410  11.657  11.564
37928SOL    HW115681   3.461  11.602  11.504
37928SOL    HW215682   3.323  11.661  11.523
37929SOL     OW15683   8.165  13.697  14.440
37929SOL    HW115684   8.253  13.724  14.465
37929SOL    HW215685   8.148  13.618  14.491
37930SOL     OW15686   2.073   0.739   1.734
37930SOL    HW115687   2.003   0.677   1.753
37930SOL    HW215688   2.033   0.804   1.676
37931SOL     OW15689  10.162   2.492  14.187
37931SOL    HW115690  10.099   2.542  14.239
37931SOL    HW215691  10.222   2.455  14.252
37932SOL     OW15692   0.551   4.113   5.797
37932SOL    HW115693   0.477   4.162   5.830
37932SOL    HW215694   0.542   4.026   5.837
37933SOL     OW15695  13.857   2.899  14.839
37933SOL    HW115696  13.821   2.909  14.750
37933SOL    HW215697  13.829   2.811  14.866
37934SOL     OW15698  13.197   6.076  11.362
37934SOL    HW115699  13.185   6.150  11.421
37934SOL    HW215700  13.224   6.004  11.420
37935SOL     OW15701   7.760   6.209   5.373
37935SOL    HW115702   7.806   6.257   5.442
37935SOL    HW215703   7.719   6.135   5.418
37936SOL     OW15704   6.500  13.265   2.486
37936SOL    HW115705   6.428  13.308   2.442
37936SOL    HW215706   6.485  13.281   2.579
37937SOL     OW15707   5.830  12.329  12.991
37937SOL    HW115708   5.838  12.383  12.913
37937SOL    HW215709   5.744  12.288  12.984
37938SOL     OW15710   5.614  14.585  12.023
37938SOL    HW115711   5.637  14.494  12.003
37938SOL    HW215712   5.617  14.591  12.118
37939SOL     OW15713  13.474   4.854   9.112
37939SOL    HW115714  13.483   4.898   9.027
37939SOL    HW215715  13.451   4.764   9.091
37940SOL     OW15716  10.039   3.077  13.372
37940SOL    HW115717  10.087   2.998  13.395
37940SOL    HW215718  10.087   3.148  13.413
37941SOL     OW15719   0.911  13.909   2.514
37941SOL    HW115720   0.897  13.846   2.584
37941SOL    HW215721   0.861  13.874   2.440
37942SOL     OW15722   2.666   6.245   4.234
37942SOL    HW115723   2.597   6.191   4.274
37942SOL    HW215724   2.644   6.334   4.261
37943SOL     OW15725  10.027  14.133  11.535
37943SOL    HW115726  10.032  14.068  11.464
37943SOL    HW215727   9.975  14.091  11.603
37944SOL     OW15728   5.954   0.277   2.059
37944SOL    HW115729   5.928   0.244   2.145
37944SOL    HW215730   6.049   0.279   2.062
37945SOL     OW15731   0.134   5.189   1.410
37945SOL    HW115732   0.090   5.262   1.455
37945SOL    HW215733   0.151   5.222   1.322
37946SOL     OW15734   6.212   1.147  13.484
37946SOL    HW115735   6.125   1.185  13.474
37946SOL    HW215736   6.258   1.208  13.542
37947SOL     OW15737  11.046   5.705   9.969
37947SOL    HW115738  11.018   5.772   9.906
37947SOL    HW215739  11.142   5.713   9.971
37948SOL     OW15740   3.058   2.614   3.472
37948SOL    HW115741   2.992   2.678   3.448
37948SOL    HW215742   3.120   2.615   3.398
37949SOL     OW15743   3.844   4.671   0.716
37949SOL    HW115744   3.761   4.637   0.682
37949SOL    HW215745   3.882   4.720   0.643
37950SOL     OW15746   4.708  12.341  12.294
37950SOL    HW115747   4.734  12.258  12.254
37950SOL    HW215748   4.773  12.356  12.362
37951SOL     OW15749   5.697  14.752   9.565
37951SOL    HW115750   5.683  14.704   9.483
37951SOL    HW215751   5.609  14.770   9.598
37952SOL     OW15752  12.800  11.943  14.808
37952SOL    HW115753  12.750  12.008  14.856
37952SOL    HW215754  12.843  11.992  14.738
37953SOL     OW15755  13.024   7.888   0.623
37953SOL    HW115756  13.120   7.893   0.628
37953SOL    HW215757  13.007   7.842   0.541
37954SOL     OW15758   0.778  12.825   7.196
37954SOL    HW115759   0.792  12.900   7.138
37954SOL    HW215760   0.857  12.772   7.185
37955SOL     OW15761   2.470   9.655   1.589
37955SOL    HW115762   2.513   9.734   1.621
37955SOL    HW215763   2.387   9.651   1.636
37956SOL     OW15764  11.851  13.417   0.730
37956SOL    HW115765  11.922  13.402   0.667
37956SOL    HW215766  11.772  13.386   0.685
37957SOL     OW15767  10.301   9.066   0.098
37957SOL    HW115768  10.304   9.034   0.007
37957SOL    HW215769  10.215   9.037   0.130
37958SOL     OW15770   9.407   6.916  13.925
37958SOL    HW115771   9.377   7.000  13.959
37958SOL    HW215772   9.479   6.938  13.867
37959SOL     OW15773   4.108  14.371   6.400
37959SOL    HW115774   4.117  14.284   6.362
37959SOL    HW215775   4.054  14.419   6.337
37960SOL     OW15776  10.185  14.861   0.958
37960SOL    HW115777  10.270   0.032   0.966
37960SOL    HW215778  10.135   0.047   0.901
37961SOL     OW15779   0.882  13.969   7.190
37961SOL    HW115780   0.790  13.944   7.181
37961SOL    HW215781   0.909  13.934   7.274
37962SOL     OW15782   7.885   7.084   6.626
37962SOL    HW115783   7.803   7.038   6.610
37962SOL    HW215784   7.951   7.015   6.631
37963SOL     OW15785   4.818  12.401   3.024
37963SOL    HW115786   4.853  12.486   3.051
37963SOL    HW215787   4.763  12.373   3.098
37964SOL     OW15788   8.132   7.848   9.908
37964SOL    HW115789   8.047   7.881   9.878
37964SOL    HW215790   8.115   7.811   9.994
37965SOL     OW15791  10.265  12.515   4.180
37965SOL    HW115792  10.269  12.604   4.146
37965SOL    HW215793  10.285  12.459   4.105
37966SOL     OW15794  13.283   0.322   1.678
37966SOL    HW115795  13.327   0.237   1.666
37966SOL    HW215796  13.298   0.368   1.596
37967SOL     OW15797  12.584   0.492   8.670
37967SOL    HW115798  12.549   0.547   8.599
37967SOL    HW215799  12.586   0.550   8.746
37968SOL     OW15800  12.279  10.463   9.562
37968SOL    HW115801  12.290  10.380   9.607
37968SOL    HW215802  12.313  10.529   9.623
37969SOL     OW15803   5.247   1.801   7.815
37969SOL    HW115804   5.219   1.883   7.774
37969SOL    HW215805   5.165   1.759   7.843
37970SOL     OW15806  11.031   1.702   6.866
37970SOL    HW115807  11.048   1.657   6.949
37970SOL    HW215808  11.027   1.794   6.890
37971SOL     OW15809   9.246   5.854   8.672
37971SOL    HW115810   9.286   5.941   8.676
37971SOL    HW215811   9.180   5.854   8.741
37972SOL     OW15812   5.374   9.050   7.927
37972SOL    HW115813   5.357   9.090   7.842
37972SOL    HW215814   5.469   9.033   7.927
37973SOL     OW15815   6.608  11.506   4.394
37973SOL    HW115816   6.577  11.558   4.321
37973SOL    HW215817   6.612  11.417   4.361
37974SOL     OW15818   4.567   8.941   2.237
37974SOL    HW115819   4.643   8.979   2.193
37974SOL    HW215820   4.511   8.912   2.165
37975SOL     OW15821   4.614   5.483   9.982
37975SOL    HW115822   4.543   5.547   9.978
37975SOL    HW215823   4.570   5.400   9.999
37976SOL     OW15824   3.361   7.693   2.999
37976SOL    HW115825   3.297   7.763   2.984
37976SOL    HW215826   3.319   7.615   2.964
37977SOL     OW15827  11.651   1.196   0.859
37977SOL    HW115828  11.663   1.186   0.953
37977SOL    HW215829  11.563   1.231   0.850
37978SOL     OW15830   6.290   8.016   4.813
37978SOL    HW115831   6.290   8.111   4.807
37978SOL    HW215832   6.211   7.996   4.864
37979SOL     OW15833  14.209  14.272   9.187
37979SOL    HW115834  14.192  14.250   9.278
37979SOL    HW215835  14.224  14.188   9.144
37980SOL     OW15836   5.618   7.639   1.498
37980SOL    HW115837   5.603   7.557   1.546
37980SOL    HW215838   5.712   7.653   1.502
37981SOL     OW15839   0.761   3.921  12.070
37981SOL    HW115840   0.835   3.863  12.057
37981SOL    HW215841   0.784   3.974  12.147
37982SOL     OW15842   7.700   5.548   6.251
37982SOL    HW115843   7.630   5.611   6.268
37982SOL    HW215844   7.654   5.467   6.227
37983SOL     OW15845  11.881  13.235   4.304
37983SOL    HW115846  11.836  13.157   4.272
37983SOL    HW215847  11.929  13.268   4.228
37984SOL     OW15848  14.517  12.645   2.050
37984SOL    HW115849  14.505  12.739   2.038
37984SOL    HW215850  14.461  12.606   1.982
37985SOL     OW15851  13.609   0.546   7.446
37985SOL    HW115852  13.554   0.579   7.516
37985SOL    HW215853  13.608   0.615   7.380
37986SOL     OW15854   0.095   9.414  14.456
37986SOL    HW115855   0.086   9.486  14.393
37986SOL    HW215856   0.190   9.397  14.459
37987SOL     OW15857   6.954   3.018   2.467
37987SOL    HW115858   6.939   2.931   2.432
37987SOL    HW215859   6.902   3.022   2.547
37988SOL     OW15860  11.535  13.572  10.727
37988SOL    HW115861  11.494  13.617  10.653
37988SOL    HW215862  11.608  13.523  10.688
37989SOL     OW15863   6.464   7.627   2.201
37989SOL    HW115864   6.425   7.549   2.241
37989SOL    HW215865   6.536   7.650   2.259
37990SOL     OW15866  12.309   7.738  12.752
37990SOL    HW115867  12.359   7.687  12.688
37990SOL    HW215868  12.344   7.827  12.745
37991SOL     OW15869   2.313  12.298   8.855
37991SOL    HW115870   2.231  12.348   8.855
37991SOL    HW215871   2.306  12.241   8.779
37992SOL     OW15872  10.025  11.087   4.399
37992SOL    HW115873  10.035  11.181   4.411
37992SOL    HW215874   9.931  11.073   4.393
37993SOL     OW15875   9.774   9.397   8.979
37993SOL    HW115876   9.765   9.316   8.929
37993SOL    HW215877   9.832   9.375   9.051
37994SOL     OW15878  14.301   4.259   1.339
37994SOL    HW115879  14.387   4.234   1.305
37994SOL    HW215880  14.239   4.204   1.290
37995SOL     OW15881   2.437  10.883  14.071
37995SOL    HW115882   2.486  10.806  14.101
37995SOL    HW215883   2.374  10.847  14.008
37996SOL     OW15884  10.936   0.852  12.372
37996SOL    HW115885  10.873   0.780  12.378
37996SOL    HW215886  10.963   0.853  12.280
37997SOL     OW15887   6.095   0.843  13.178
37997SOL    HW115888   6.023   0.785  13.152
37997SOL    HW215889   6.140   0.795  13.247
37998SOL     OW15890   2.048  10.164   3.511
37998SOL    HW115891   2.111  10.094   3.527
37998SOL    HW215892   2.058  10.223   3.585
37999SOL     OW15893   0.604   6.144   4.001
37999SOL    HW115894   0.686   6.173   3.960
37999SOL    HW215895   0.559   6.225   4.023
38000SOL     OW15896   7.776   6.060   7.314
38000SOL    HW115897   7.813   6.079   7.228
38000SOL    HW215898   7.802   6.134   7.369
38001SOL     OW15899   7.960   8.625   9.650
38001SOL    HW115900   8.008   8.544   9.668
38001SOL    HW215901   7.881   8.597   9.605
38002SOL     OW15902  14.129   5.680   4.995
38002SOL    HW115903  14.153   5.617   4.927
38002SOL    HW215904  14.161   5.639   5.076
38003SOL     OW15905   6.464   9.674  12.245
38003SOL    HW115906   6.524   9.711  12.180
38003SOL    HW215907   6.479   9.727  12.324
38004SOL     OW15908  11.130  12.914   7.260
38004SOL    HW115909  11.142  12.999   7.301
38004SOL    HW215910  11.041  12.915   7.226
38005SOL     OW15911   6.244   2.536   3.338
38005SOL    HW115912   6.280   2.563   3.253
38005SOL    HW215913   6.150   2.555   3.331
38006SOL     OW15914   5.912   7.794  12.032
38006SOL    HW115915   5.855   7.859  11.991
38006SOL    HW215916   5.914   7.820  12.124
38007SOL     OW15917   1.134   8.385   7.942
38007SOL    HW115918   1.174   8.306   7.979
38007SOL    HW215919   1.040   8.372   7.952
38008SOL     OW15920  14.576   6.514   0.153
38008SOL    HW115921  14.614   6.465   0.225
38008SOL    HW215922  14.544   6.448   0.092
38009SOL     OW15923   5.904   1.530   0.528
38009SOL    HW115924   5.853   1.602   0.491
38009SOL    HW215925   5.942   1.565   0.608
38010SOL     OW15926   4.159   1.223  10.415
38010SOL    HW115927   4.218   1.257  10.349
38010SOL    HW215928   4.164   1.127  10.406
38011SOL     OW15929   9.533   5.565   9.466
38011SOL    HW115930   9.443   5.564   9.435
38011SOL    HW215931   9.544   5.651   9.506
38012SOL     OW15932   1.394   0.388  12.539
38012SOL    HW115933   1.340   0.328  12.488
38012SOL    HW215934   1.484   0.369  12.511
38013SOL     OW15935  11.008   0.266   2.854
38013SOL    HW115936  11.063   0.258   2.933
38013SOL    HW215937  10.952   0.188   2.857
38014SOL     OW15938  10.306   9.210   7.553
38014SOL    HW115939  10.249   9.177   7.622
38014SOL    HW215940  10.255   9.203   7.473
38015SOL     OW15941   1.082   5.680  13.921
38015SOL    HW115942   1.101   5.758  13.973
38015SOL    HW215943   1.168   5.646  13.895
38016SOL     OW15944  11.401   6.606   8.068
38016SOL    HW115945  11.406   6.515   8.094
38016SOL    HW215946  11.331   6.608   8.002
38017SOL     OW15947   0.855   4.959   6.250
38017SOL    HW115948   0.871   4.967   6.344
38017SOL    HW215949   0.847   4.865   6.235
38018SOL     OW15950   7.652   3.913  11.144
38018SOL    HW115951   7.716   3.867  11.198
38018SOL    HW215952   7.682   4.004  11.144
38019SOL     OW15953   7.261   8.395   7.467
38019SOL    HW115954   7.315   8.470   7.441
38019SOL    HW215955   7.225   8.361   7.385
38020SOL     OW15956   1.997  14.430   0.873
38020SOL    HW115957   2.023  14.372   0.801
38020SOL    HW215958   2.079  14.468   0.903
38021SOL     OW15959  12.828  13.333   3.426
38021SOL    HW115960  12.754  13.273   3.437
38021SOL    HW215961  12.797  13.416   3.461
38022SOL     OW15962   6.151   4.179  14.021
38022SOL    HW115963   6.219   4.227  14.067
38022SOL    HW215964   6.141   4.226  13.938
38023SOL     OW15965  13.865   7.228   2.329
38023SOL    HW115966  13.834   7.293   2.391
38023SOL    HW215967  13.800   7.158   2.332
38024SOL     OW15968  14.734  11.773   4.715
38024SOL    HW115969  14.789  11.779   4.637
38024SOL    HW215970  14.664  11.713   4.690
38025SOL     OW15971   4.863   5.824   1.737
38025SOL    HW115972   4.790   5.790   1.788
38025SOL    HW215973   4.855   5.780   1.652
38026SOL     OW15974  12.511   0.481   1.796
38026SOL    HW115975  12.561   0.400   1.792
38026SOL    HW215976  12.438   0.461   1.856
38027SOL     OW15977   5.886   6.278   6.986
38027SOL    HW115978   5.933   6.235   6.915
38027SOL    HW215979   5.820   6.332   6.943
38028SOL     OW15980   6.132  13.855   0.448
38028SOL    HW115981   6.094  13.922   0.505
38028SOL    HW215982   6.210  13.825   0.494
38029SOL     OW15983   7.188  13.540  12.284
38029SOL    HW115984   7.179  13.529  12.379
38029SOL    HW215985   7.191  13.635  12.271
38030SOL     OW15986   0.792  12.955   8.774
38030SOL    HW115987   0.763  13.042   8.802
38030SOL    HW215988   0.737  12.895   8.825
38031SOL     OW15989   8.452   1.120   5.157
38031SOL    HW115990   8.362   1.116   5.189
38031SOL    HW215991   8.468   1.213   5.142
38032SOL     OW15992   8.972   6.500   6.547
38032SOL    HW115993   8.974   6.480   6.641
38032SOL    HW215994   8.897   6.452   6.514
38033SOL     OW15995   2.270  10.423   5.450
38033SOL    HW115996   2.229  10.504   5.479
38033SOL    HW215997   2.305  10.383   5.530
38034SOL     OW15998   9.992  14.218   0.914
38034SOL    HW115999  10.070  14.265   0.943
38034SOL    HW216000   9.939  14.210   0.993
38035SOL     OW16001   2.313   7.652  11.268
38035SOL    HW116002   2.337   7.702  11.191
38035SOL    HW216003   2.326   7.560  11.243
38036SOL     OW16004  13.851  12.832   2.416
38036SOL    HW116005  13.840  12.738   2.423
38036SOL    HW216006  13.908  12.855   2.489
38037SOL     OW16007  12.422   4.027   9.629
38037SOL    HW116008  12.385   3.938   9.630
38037SOL    HW216009  12.492   4.024   9.695
38038SOL     OW16010   7.139  12.867   3.883
38038SOL    HW116011   7.046  12.852   3.896
38038SOL    HW216012   7.171  12.899   3.967
38039SOL     OW16013  12.295   2.634   9.339
38039SOL    HW116014  12.211   2.620   9.382
38039SOL    HW216015  12.272   2.651   9.247
38040SOL     OW16016  10.992   1.351   1.416
38040SOL    HW116017  10.987   1.303   1.333
38040SOL    HW216018  10.982   1.283   1.483
38041SOL     OW16019  12.421   4.372  13.369
38041SOL    HW116020  12.511   4.404  13.368
38041SOL    HW216021  12.423   4.290  13.320
38042SOL     OW16022   3.717  11.932   7.803
38042SOL    HW116023   3.670  11.901   7.726
38042SOL    HW216024   3.653  11.988   7.848
38043SOL     OW16025  10.650   6.295   5.450
38043SOL    HW116026  10.606   6.321   5.369
38043SOL    HW216027  10.588   6.238   5.494
38044SOL     OW16028   8.529   9.950  14.156
38044SOL    HW116029   8.579   9.924  14.078
38044SOL    HW216030   8.586  10.012  14.201
38045SOL     OW16031   6.236   3.831   2.968
38045SOL    HW116032   6.163   3.865   2.916
38045SOL    HW216033   6.232   3.881   3.050
38046SOL     OW16034  11.082   4.163   9.344
38046SOL    HW116035  11.017   4.157   9.413
38046SOL    HW216036  11.068   4.086   9.289
38047SOL     OW16037  10.961   7.104   3.646
38047SOL    HW116038  10.958   7.086   3.552
38047SOL    HW216039  10.877   7.146   3.665
38048SOL     OW16040  14.346   8.987  12.682
38048SOL    HW116041  14.377   8.924  12.747
38048SOL    HW216042  14.325   8.934  12.605
38049SOL     OW16043  14.600   2.011  13.989
38049SOL    HW116044  14.530   2.020  14.053
38049SOL    HW216045  14.669   1.964  14.035
38050SOL     OW16046  10.949   6.722   6.401
38050SOL    HW116047  11.015   6.789   6.415
38050SOL    HW216048  10.920   6.698   6.489
38051SOL     OW16049   7.970  13.743   7.619
38051SOL    HW116050   7.893  13.791   7.587
38051SOL    HW216051   7.989  13.680   7.549
38052SOL     OW16052   8.958   9.177   8.765
38052SOL    HW116053   8.891   9.134   8.712
38052SOL    HW216054   8.977   9.259   8.719
38053SOL     OW16055   2.037   0.084   2.481
38053SOL    HW116056   2.125   0.048   2.495
38053SOL    HW216057   2.027   0.089   2.386
38054SOL     OW16058  13.732   9.827   4.235
38054SOL    HW116059  13.643   9.831   4.202
38054SOL    HW216060  13.737   9.898   4.299
38055SOL     OW16061   8.390   8.665  12.373
38055SOL    HW116062   8.322   8.680  12.308
38055SOL    HW216063   8.347   8.611  12.440
38056SOL     OW16064   6.746   1.440   7.549
38056SOL    HW116065   6.725   1.373   7.485
38056SOL    HW216066   6.773   1.392   7.627
38057SOL     OW16067   9.272   1.431   0.989
38057SOL    HW116068   9.203   1.372   0.958
38057SOL    HW216069   9.348   1.375   1.000
38058SOL     OW16070   5.851   1.800   9.349
38058SOL    HW116071   5.841   1.894   9.364
38058SOL    HW216072   5.777   1.761   9.396
38059SOL     OW16073  11.869  10.378  14.840
38059SOL    HW116074  11.815  10.312   0.011
38059SOL    HW216075  11.899  10.337  14.759
38060SOL     OW16076   5.195   0.576   0.889
38060SOL    HW116077   5.188   0.535   0.975
38060SOL    HW216078   5.159   0.512   0.828
38061SOL     OW16079  13.754   7.578  14.780
38061SOL    HW116080  13.713   7.542  14.859
38061SOL    HW216081  13.804   7.504  14.745
38062SOL     OW16082   6.613   9.383   3.889
38062SOL    HW116083   6.566   9.311   3.931
38062SOL    HW216084   6.700   9.347   3.869
38063SOL     OW16085   1.731  12.137  13.437
38063SOL    HW116086   1.755  12.161  13.527
38063SOL    HW216087   1.723  12.042  13.439
38064SOL     OW16088  13.536   1.122  10.099
38064SOL    HW116089  13.571   1.183  10.034
38064SOL    HW216090  13.510   1.045  10.048
38065SOL     OW16091  12.804  13.625   5.225
38065SOL    HW116092  12.821  13.566   5.298
38065SOL    HW216093  12.891  13.658   5.200
38066SOL     OW16094  14.330   9.423  12.281
38066SOL    HW116095  14.298   9.446  12.369
38066SOL    HW216096  14.307   9.331  12.270
38067SOL     OW16097   0.530   7.484   1.960
38067SOL    HW116098   0.571   7.526   2.035
38067SOL    HW216099   0.465   7.424   1.998
38068SOL     OW16100   2.024  11.332   4.252
38068SOL    HW116101   1.981  11.292   4.327
38068SOL    HW216102   2.067  11.410   4.287
38069SOL     OW16103   1.647   7.622   6.624
38069SOL    HW116104   1.553   7.604   6.621
38069SOL    HW216105   1.673   7.602   6.714
38070SOL     OW16106  10.144   5.187  12.976
38070SOL    HW116107  10.103   5.101  12.965
38070SOL    HW216108  10.145   5.224  12.888
38071SOL     OW16109   4.818  11.754   3.771
38071SOL    HW116110   4.835  11.667   3.808
38071SOL    HW216111   4.802  11.737   3.678
38072SOL     OW16112   3.582  13.130   5.653
38072SOL    HW116113   3.516  13.070   5.618
38072SOL    HW216114   3.549  13.217   5.632
38073SOL     OW16115   7.089  12.500  13.509
38073SOL    HW116116   7.168  12.500  13.456
38073SOL    HW216117   7.066  12.408  13.520
38074SOL     OW16118   9.582   6.504   0.932
38074SOL    HW116119   9.672   6.493   0.901
38074SOL    HW216120   9.539   6.421   0.911
38075SOL     OW16121  10.256   6.621  14.227
38075SOL    HW116122  10.291   6.590  14.310
38075SOL    HW216123  10.333   6.630  14.171
38076SOL     OW16124   8.267   5.379   9.863
38076SOL    HW116125   8.268   5.473   9.848
38076SOL    HW216126   8.298   5.369   9.953
38077SOL     OW16127  13.111   8.439   9.449
38077SOL    HW116128  13.198   8.402   9.466
38077SOL    HW216129  13.055   8.364   9.433
38078SOL     OW16130  11.805  12.137   2.959
38078SOL    HW116131  11.864  12.147   2.885
38078SOL    HW216132  11.724  12.101   2.922
38079SOL     OW16133  11.017  10.047   4.470
38079SOL    HW116134  11.006  10.001   4.553
38079SOL    HW216135  10.964  10.126   4.480
38080SOL     OW16136   4.179  14.736  10.363
38080SOL    HW116137   4.204  14.643  10.362
38080SOL    HW216138   4.260  14.783  10.378
38081SOL     OW16139  13.892  10.205   8.506
38081SOL    HW116140  13.979  10.242   8.522
38081SOL    HW216141  13.832  10.273   8.537
38082SOL     OW16142   4.838   1.216   1.197
38082SOL    HW116143   4.749   1.182   1.206
38082SOL    HW216144   4.885   1.182   1.273
38083SOL     OW16145   0.065   8.956   6.159
38083SOL    HW116146   0.041   9.030   6.103
38083SOL    HW216147   0.130   8.907   6.107
38084SOL     OW16148   6.087  11.731  14.807
38084SOL    HW116149   6.046  11.783   0.005
38084SOL    HW216150   6.106  11.647  14.847
38085SOL     OW16151   1.716   4.112   9.427
38085SOL    HW116152   1.624   4.122   9.452
38085SOL    HW216153   1.727   4.017   9.416
38086SOL     OW16154   6.094   0.623  11.559
38086SOL    HW116155   6.131   0.555  11.503
38086SOL    HW216156   6.052   0.684  11.498
38087SOL     OW16157   4.537   3.687   8.429
38087SOL    HW116158   4.522   3.609   8.483
38087SOL    HW216159   4.585   3.655   8.353
38088SOL     OW16160   1.796   2.424  10.614
38088SOL    HW116161   1.845   2.405  10.694
38088SOL    HW216162   1.724   2.361  10.615
38089SOL     OW16163   7.865  11.866   7.174
38089SOL    HW116164   7.870  11.936   7.109
38089SOL    HW216165   7.893  11.907   7.255
38090SOL     OW16166   7.374   5.839   0.103
38090SOL    HW116167   7.453   5.816   0.151
38090SOL    HW216168   7.302   5.817   0.163
38091SOL     OW16169   4.886  11.057   4.063
38091SOL    HW116170   4.927  11.093   4.141
38091SOL    HW216171   4.954  11.002   4.024
38092SOL     OW16172   5.184  12.998   1.464
38092SOL    HW116173   5.192  12.939   1.539
38092SOL    HW216174   5.250  13.065   1.479
38093SOL     OW16175   6.963   7.031   9.365
38093SOL    HW116176   7.050   7.066   9.383
38093SOL    HW216177   6.966   6.941   9.397
38094SOL     OW16178   4.806   9.790   5.241
38094SOL    HW116179   4.729   9.845   5.252
38094SOL    HW216180   4.858   9.806   5.320
38095SOL     OW16181   7.791   7.795   9.248
38095SOL    HW116182   7.814   7.828   9.161
38095SOL    HW216183   7.843   7.716   9.259
38096SOL     OW16184   7.838   7.268  14.685
38096SOL    HW116185   7.802   7.348  14.645
38096SOL    HW216186   7.927   7.293  14.708
38097SOL     OW16187   3.581   5.285   9.649
38097SOL    HW116188   3.591   5.299   9.555
38097SOL    HW216189   3.631   5.205   9.667
38098SOL     OW16190   0.675   5.179  13.475
38098SOL    HW116191   0.687   5.087  13.451
38098SOL    HW216192   0.648   5.177  13.566
38099SOL     OW16193  14.455   2.182   6.407
38099SOL    HW116194  14.402   2.123   6.462
38099SOL    HW216195  14.444   2.148   6.318
38100SOL     OW16196   8.232   1.346  14.335
38100SOL    HW116197   8.244   1.293  14.414
38100SOL    HW216198   8.169   1.413  14.361
38101SOL     OW16199  11.657   9.938   6.636
38101SOL    HW116200  11.753   9.933   6.638
38101SOL    HW216201  11.634   9.918   6.545
38102SOL     OW16202   8.302   8.290   3.726
38102SOL    HW116203   8.393   8.282   3.756
38102SOL    HW216204   8.263   8.206   3.745
38103SOL     OW16205   6.241  13.965  10.190
38103SOL    HW116206   6.276  13.989  10.276
38103SOL    HW216207   6.146  13.963  10.203
38104SOL     OW16208   0.316   1.579   9.106
38104SOL    HW116209   0.305   1.655   9.164
38104SOL    HW216210   0.396   1.597   9.058
38105SOL     OW16211  11.537   4.649   6.657
38105SOL    HW116212  11.591   4.603   6.592
38105SOL    HW216213  11.460   4.593   6.668
38106SOL     OW16214  11.754   2.908  11.071
38106SOL    HW116215  11.707   2.989  11.085
38106SOL    HW216216  11.724   2.850  11.141
38107SOL     OW16217   4.624  11.263   2.221
38107SOL    HW116218   4.716  11.241   2.205
38107SOL    HW216219   4.576  11.208   2.159
38108SOL     OW16220  12.356   1.347   3.889
38108SOL    HW116221  12.299   1.330   3.964
38108SOL    HW216222  12.438   1.379   3.928
38109SOL     OW16223   8.050   2.295  12.303
38109SOL    HW116224   8.095   2.215  12.276
38109SOL    HW216225   8.120   2.353  12.335
38110SOL     OW16226  10.738   7.985   7.674
38110SOL    HW116227  10.795   8.060   7.689
38110SOL    HW216228  10.780   7.936   7.604
38111SOL     OW16229   5.850  11.913   2.411
38111SOL    HW116230   5.839  11.879   2.322
38111SOL    HW216231   5.943  11.936   2.417
38112SOL     OW16232  14.256   0.161   2.914
38112SOL    HW116233  14.177   0.147   2.863
38112SOL    HW216234  14.232   0.136   3.004
38113SOL     OW16235   4.158   7.241   7.674
38113SOL    HW116236   4.184   7.317   7.727
38113SOL    HW216237   4.071   7.218   7.707
38114SOL     OW16238  12.108  10.940   3.012
38114SOL    HW116239  12.071  10.862   2.972
38114SOL    HW216240  12.151  10.908   3.092
38115SOL     OW16241   9.515   2.976  13.190
38115SOL    HW116242   9.430   2.944  13.160
38115SOL    HW216243   9.544   3.035  13.120
38116SOL     OW16244  12.641   5.673  11.382
38116SOL    HW116245  12.631   5.757  11.425
38116SOL    HW216246  12.627   5.691  11.289
38117SOL     OW16247  10.570   7.741   2.823
38117SOL    HW116248  10.498   7.785   2.867
38117SOL    HW216249  10.636   7.809   2.811
38118SOL     OW16250   7.366   2.430   6.031
38118SOL    HW116251   7.303   2.374   6.074
38118SOL    HW216252   7.446   2.378   6.027
38119SOL     OW16253   3.979   0.090   8.526
38119SOL    HW116254   4.058   0.038   8.513
38119SOL    HW216255   3.988   0.125   8.614
38120SOL     OW16256   8.554   6.617   3.358
38120SOL    HW116257   8.503   6.575   3.289
38120SOL    HW216258   8.531   6.710   3.352
38121SOL     OW16259  11.260   7.177   0.618
38121SOL    HW116260  11.194   7.181   0.548
38121SOL    HW216261  11.250   7.260   0.665
38122SOL     OW16262  12.992  10.771   0.216
38122SOL    HW116263  13.080  10.770   0.179
38122SOL    HW216264  12.936  10.801   0.145
38123SOL     OW16265   0.216   0.076   0.863
38123SOL    HW116266   0.169  14.867   0.844
38123SOL    HW216267   0.151   0.145   0.851
38124SOL     OW16268   1.775   7.036   7.821
38124SOL    HW116269   1.762   7.083   7.739
38124SOL    HW216270   1.715   6.961   7.815
38125SOL     OW16271   0.701   6.973   4.770
38125SOL    HW116272   0.699   7.027   4.690
38125SOL    HW216273   0.621   6.921   4.764
38126SOL     OW16274  14.717   1.237   2.520
38126SOL    HW116275  14.778   1.260   2.450
38126SOL    HW216276  14.668   1.318   2.536
38127SOL     OW16277   8.724  14.476   8.161
38127SOL    HW116278   8.652  14.418   8.186
38127SOL    HW216279   8.776  14.424   8.100
38128SOL     OW16280   2.720   8.383   8.035
38128SOL    HW116281   2.802   8.403   7.988
38128SOL    HW216282   2.734   8.419   8.122
38129SOL     OW16283  14.052  13.966   5.777
38129SOL    HW116284  14.013  14.026   5.714
38129SOL    HW216285  13.980  13.909   5.805
38130SOL     OW16286   4.152   0.855  14.361
38130SOL    HW116287   4.146   0.850  14.265
38130SOL    HW216288   4.079   0.913  14.386
38131SOL     OW16289   6.340   8.749  13.368
38131SOL    HW116290   6.330   8.759  13.463
38131SOL    HW216291   6.258   8.782  13.332
38132SOL     OW16292  11.252   9.774  14.177
38132SOL    HW116293  11.341   9.805  14.193
38132SOL    HW216294  11.205   9.794  14.258
38133SOL     OW16295   3.464   1.897   7.748
38133SOL    HW116296   3.520   1.949   7.690
38133SOL    HW216297   3.525   1.838   7.793
38134SOL     OW16298   3.025   0.255   6.853
38134SOL    HW116299   2.946   0.236   6.904
38134SOL    HW216300   3.025   0.350   6.844
38135SOL     OW16301  14.361   2.271  10.306
38135SOL    HW116302  14.379   2.365  10.299
38135SOL    HW216303  14.307   2.251  10.230
38136SOL     OW16304   3.896   2.302   2.135
38136SOL    HW116305   3.954   2.374   2.108
38136SOL    HW216306   3.808   2.339   2.129
38137SOL     OW16307   8.779   5.693  10.842
38137SOL    HW116308   8.723   5.697  10.920
38137SOL    HW216309   8.803   5.785  10.826
38138SOL     OW16310   6.792   2.070   1.996
38138SOL    HW116311   6.766   2.119   1.918
38138SOL    HW216312   6.739   2.107   2.066
38139SOL     OW16313   6.777   1.713   4.165
38139SOL    HW116314   6.741   1.695   4.252
38139SOL    HW216315   6.808   1.804   4.171
38140SOL     OW16316   9.932  10.494   1.748
38140SOL    HW116317   9.871  10.458   1.683
38140SOL    HW216318   9.991  10.421   1.769
38141SOL     OW16319   2.385   7.509   2.165
38141SOL    HW116320   2.311   7.554   2.124
38141SOL    HW216321   2.458   7.571   2.158
38142SOL     OW16322   6.775  13.501   9.134
38142SOL    HW116323   6.743  13.411   9.129
38142SOL    HW216324   6.729  13.538   9.210
38143SOL     OW16325  10.128   5.734   1.514
38143SOL    HW116326  10.182   5.683   1.574
38143SOL    HW216327  10.133   5.688   1.431
38144SOL     OW16328   3.468   6.384  11.688
38144SOL    HW116329   3.481   6.289  11.684
38144SOL    HW216330   3.375   6.397  11.671
38145SOL     OW16331   3.242   9.955   9.073
38145SOL    HW116332   3.259  10.020   9.141
38145SOL    HW216333   3.164   9.989   9.028
38146SOL     OW16334   0.037  14.610  14.729
38146SOL    HW116335   0.013  14.674  14.662
38146SOL    HW216336  14.850  14.536  14.713
38147SOL     OW16337  13.877   2.792  11.046
38147SOL    HW116338  13.828   2.751  10.974
38147SOL    HW216339  13.923   2.865  11.004
38148SOL     OW16340   6.772  12.142   7.064
38148SOL    HW116341   6.792  12.049   7.054
38148SOL    HW216342   6.808  12.165   7.150
38149SOL     OW16343   2.501  13.771   8.979
38149SOL    HW116344   2.573  13.802   8.924
38149SOL    HW216345   2.543  13.738   9.058
38150SOL     OW16346   1.467  13.731   2.235
38150SOL    HW116347   1.508  13.803   2.188
38150SOL    HW216348   1.459  13.661   2.169
38151SOL     OW16349  10.957   8.830   3.050
38151SOL    HW116350  10.997   8.775   3.117
38151SOL    HW216351  10.869   8.849   3.083
38152SOL     OW16352   1.971   2.313   6.960
38152SOL    HW116353   1.882   2.348   6.948
38152SOL    HW216354   2.010   2.370   7.026
38153SOL     OW16355  12.207   4.642   8.041
38153SOL    HW116356  12.185   4.732   8.015
38153SOL    HW216357  12.256   4.653   8.123
38154SOL     OW16358   5.209   4.898   7.696
38154SOL    HW116359   5.158   4.959   7.749
38154SOL    HW216360   5.272   4.953   7.649
38155SOL     OW16361  11.790   5.403  10.680
38155SOL    HW116362  11.768   5.319  10.641
38155SOL    HW216363  11.729   5.412  10.754
38156SOL     OW16364   8.481   6.012   9.776
38156SOL    HW116365   8.403   5.961   9.795
38156SOL    HW216366   8.461   6.100   9.809
38157SOL     OW16367  14.574   0.993   3.308
38157SOL    HW116368  14.559   0.938   3.231
38157SOL    HW216369  14.549   0.938   3.382
38158SOL     OW16370   6.598  11.376  11.921
38158SOL    HW116371   6.662  11.354  11.989
38158SOL    HW216372   6.602  11.471  11.915
38159SOL     OW16373   4.922  11.699   9.236
38159SOL    HW116374   4.917  11.748   9.318
38159SOL    HW216375   4.992  11.742   9.187
38160SOL     OW16376   4.858  11.189   5.259
38160SOL    HW116377   4.914  11.264   5.240
38160SOL    HW216378   4.894  11.118   5.206
38161SOL     OW16379  10.462  10.513   2.977
38161SOL    HW116380  10.512  10.499   3.057
38161SOL    HW216381  10.455  10.608   2.969
38162SOL     OW16382   1.949   2.115   2.754
38162SOL    HW116383   1.853   2.117   2.758
38162SOL    HW216384   1.976   2.100   2.845
38163SOL     OW16385  10.300   3.155   8.092
38163SOL    HW116386  10.284   3.243   8.127
38163SOL    HW216387  10.302   3.098   8.170
38164SOL     OW16388   0.115   3.744  11.116
38164SOL    HW116389   0.062   3.670  11.147
38164SOL    HW216390   0.151   3.714  11.032
38165SOL     OW16391   9.819   1.893   7.848
38165SOL    HW116392   9.869   1.834   7.791
38165SOL    HW216393   9.872   1.973   7.852
38166SOL     OW16394   5.286  14.444   1.726
38166SOL    HW116395   5.276  14.352   1.702
38166SOL    HW216396   5.252  14.449   1.816
38167SOL     OW16397   1.605  11.768  14.585
38167SOL    HW116398   1.656  11.713  14.525
38167SOL    HW216399   1.600  11.853  14.540
38168SOL     OW16400   7.508   0.813  10.454
38168SOL    HW116401   7.413   0.800  10.456
38168SOL    HW216402   7.539   0.779  10.537
38169SOL     OW16403   7.962  11.064  12.794
38169SOL    HW116404   7.979  11.004  12.867
38169SOL    HW216405   7.992  11.016  12.717
38170SOL     OW16406  10.498  10.986   1.768
38170SOL    HW116407  10.445  10.913   1.737
38170SOL    HW216408  10.455  11.015   1.848
38171SOL     OW16409   1.437  12.215   2.055
38171SOL    HW116410   1.395  12.151   1.998
38171SOL    HW216411   1.461  12.165   2.133
38172SOL     OW16412   6.386  10.138   5.465
38172SOL    HW116413   6.350  10.089   5.391
38172SOL    HW216414   6.322  10.125   5.535
38173SOL     OW16415  11.619  13.351   6.004
38173SOL    HW116416  11.706  13.391   5.996
38173SOL    HW216417  11.630  13.284   6.071
38174SOL     OW16418   9.934   9.823  11.843
38174SOL    HW116419   9.879   9.902  11.841
38174SOL    HW216420   9.924   9.790  11.932
38175SOL     OW16421   2.836   1.638  11.386
38175SOL    HW116422   2.893   1.692  11.440
38175SOL    HW216423   2.880   1.633  11.302
38176SOL     OW16424   8.764   2.320  11.800
38176SOL    HW116425   8.737   2.377  11.871
38176SOL    HW216426   8.688   2.315  11.742
38177SOL     OW16427   8.876   7.444   5.114
38177SOL    HW116428   8.857   7.519   5.057
38177SOL    HW216429   8.965   7.459   5.144
38178SOL     OW16430  13.016   5.164   3.266
38178SOL    HW116431  13.058   5.151   3.181
38178SOL    HW216432  13.034   5.256   3.288
38179SOL     OW16433   4.499   3.437   8.113
38179SOL    HW116434   4.405   3.428   8.132
38179SOL    HW216435   4.530   3.347   8.105
38180SOL     OW16436  12.728  11.395  11.972
38180SOL    HW116437  12.767  11.482  11.980
38180SOL    HW216438  12.794  11.344  11.925
38181SOL     OW16439   6.827   4.830   9.725
38181SOL    HW116440   6.916   4.851   9.752
38181SOL    HW216441   6.798   4.908   9.676
38182SOL     OW16442   8.883   8.593  10.327
38182SOL    HW116443   8.788   8.589  10.336
38182SOL    HW216444   8.901   8.685  10.310
38183SOL     OW16445   3.776   5.559   8.524
38183SOL    HW116446   3.861   5.513   8.525
38183SOL    HW216447   3.796   5.647   8.557
38184SOL     OW16448   2.558   0.482   4.424
38184SOL    HW116449   2.625   0.464   4.490
38184SOL    HW216450   2.597   0.549   4.367
38185SOL     OW16451   5.986   3.390   5.297
38185SOL    HW116452   6.000   3.414   5.389
38185SOL    HW216453   6.071   3.356   5.268
38186SOL     OW16454   1.074   7.957   5.796
38186SOL    HW116455   0.982   7.968   5.821
38186SOL    HW216456   1.124   7.989   5.871
38187SOL     OW16457  14.423   2.173   0.338
38187SOL    HW116458  14.396   2.081   0.330
38187SOL    HW216459  14.346   2.223   0.311
38188SOL     OW16460  12.600   9.267   3.282
38188SOL    HW116461  12.627   9.358   3.291
38188SOL    HW216462  12.641   9.238   3.201
38189SOL     OW16463   7.879  13.353   6.939
38189SOL    HW116464   7.945  13.301   6.985
38189SOL    HW216465   7.871  13.311   6.853
38190SOL     OW16466   4.593   8.789  12.014
38190SOL    HW116467   4.513   8.834  12.041
38190SOL    HW216468   4.584   8.701  12.048
38191SOL     OW16469  12.106  12.510   8.980
38191SOL    HW116470  12.083  12.590   9.027
38191SOL    HW216471  12.133  12.449   9.048
38192SOL     OW16472  13.024  13.041  11.096
38192SOL    HW116473  13.049  13.130  11.069
38192SOL    HW216474  12.946  13.055  11.151
38193SOL     OW16475   5.473   0.158   5.258
38193SOL    HW116476   5.400   0.217   5.235
38193SOL    HW216477   5.453   0.130   5.347
38194SOL     OW16478  11.976  11.266  13.639
38194SOL    HW116479  12.024  11.194  13.681
38194SOL    HW216480  11.892  11.268  13.686
38195SOL     OW16481   1.387   3.223   3.282
38195SOL    HW116482   1.381   3.301   3.226
38195SOL    HW216483   1.479   3.198   3.278
38196SOL     OW16484  11.367   3.352  12.032
38196SOL    HW116485  11.381   3.260  12.058
38196SOL    HW216486  11.456   3.386  12.020
38197SOL     OW16487   9.370   1.904  14.012
38197SOL    HW116488   9.282   1.899  13.974
38197SOL    HW216489   9.400   1.992  13.989
38198SOL     OW16490   7.987   2.471   8.276
38198SOL    HW116491   7.991   2.386   8.233
38198SOL    HW216492   8.078   2.494   8.293
38199SOL     OW16493   1.676   5.944  13.261
38199SOL    HW116494   1.690   6.000  13.337
38199SOL    HW216495   1.724   5.987  13.190
38200SOL     OW16496   8.014   6.356  13.786
38200SOL    HW116497   7.949   6.287  13.793
38200SOL    HW216498   7.993   6.416  13.858
38201SOL     OW16499  12.093   4.318   6.548
38201SOL    HW116500  12.162   4.334   6.611
38201SOL    HW216501  12.131   4.257   6.485
38202SOL     OW16502   6.706   6.157   3.282
38202SOL    HW116503   6.618   6.118   3.278
38202SOL    HW216504   6.710   6.214   3.205
38203SOL     OW16505  12.015  12.060   9.530
38203SOL    HW116506  12.086  12.120   9.551
38203SOL    HW216507  11.958  12.063   9.607
38204SOL     OW16508   1.451  12.121   6.546
38204SOL    HW116509   1.395  12.081   6.479
38204SOL    HW216510   1.501  12.047   6.581
38205SOL     OW16511   9.634   6.345   4.806
38205SOL    HW116512   9.543   6.314   4.815
38205SOL    HW216513   9.653   6.334   4.713
38206SOL     OW16514   6.406  13.462   9.151
38206SOL    HW116515   6.343  13.463   9.223
38206SOL    HW216516   6.443  13.551   9.150
38207SOL     OW16517   4.721   7.298   9.953
38207SOL    HW116518   4.667   7.346  10.016
38207SOL    HW216519   4.664   7.229   9.921
38208SOL     OW16520  10.314  13.321   5.928
38208SOL    HW116521  10.298  13.227   5.914
38208SOL    HW216522  10.374  13.345   5.857
38209SOL     OW16523   5.820   5.429   9.142
38209SOL    HW116524   5.870   5.371   9.086
38209SOL    HW216525   5.729   5.414   9.117
38210SOL     OW16526   8.903   1.050   1.874
38210SOL    HW116527   8.944   0.985   1.932
38210SOL    HW216528   8.947   1.038   1.790
38211SOL     OW16529  13.791   8.934   0.641
38211SOL    HW116530  13.857   8.895   0.585
38211SOL    HW216531  13.726   8.865   0.653
38212SOL     OW16532   4.296  11.526   6.184
38212SOL    HW116533   4.288  11.564   6.096
38212SOL    HW216534   4.389  11.531   6.203
38213SOL     OW16535   7.429  14.412  10.862
38213SOL    HW116536   7.370  14.353  10.814
38213SOL    HW216537   7.405  14.500  10.832
38214SOL     OW16538  10.226  10.844   3.212
38214SOL    HW116539  10.175  10.768   3.184
38214SOL    HW216540  10.189  10.867   3.297
38215SOL     OW16541   5.443   5.347   4.819
38215SOL    HW116542   5.416   5.439   4.825
38215SOL    HW216543   5.437   5.326   4.726
38216SOL     OW16544  14.138   2.785  13.501
38216SOL    HW116545  14.104   2.710  13.550
38216SOL    HW216546  14.120   2.765  13.409
38217SOL     OW16547   5.319   6.807   5.242
38217SOL    HW116548   5.320   6.802   5.147
38217SOL    HW216549   5.340   6.899   5.261
38218SOL     OW16550  14.532   2.639   4.265
38218SOL    HW116551  14.455   2.693   4.286
38218SOL    HW216552  14.545   2.653   4.171
38219SOL     OW16553  11.846   7.490   9.401
38219SOL    HW116554  11.934   7.507   9.367
38219SOL    HW216555  11.848   7.398   9.427
38220SOL     OW16556  12.391   3.111  10.087
38220SOL    HW116557  12.443   3.125  10.166
38220SOL    HW216558  12.343   3.192  10.075
38221SOL     OW16559   9.805   5.600   2.557
38221SOL    HW116560   9.713   5.582   2.534
38221SOL    HW216561   9.855   5.543   2.499
38222SOL     OW16562   1.747   0.930   1.331
38222SOL    HW116563   1.716   0.874   1.260
38222SOL    HW216564   1.667   0.960   1.374
38223SOL     OW16565   2.391   6.707  14.340
38223SOL    HW116566   2.415   6.615  14.337
38223SOL    HW216567   2.390   6.729  14.433
38224SOL     OW16568  10.416   9.481   2.723
38224SOL    HW116569  10.376   9.488   2.810
38224SOL    HW216570  10.503   9.445   2.740
38225SOL     OW16571  11.597  10.912   2.774
38225SOL    HW116572  11.596  10.896   2.868
38225SOL    HW216573  11.600  10.825   2.734
38226SOL     OW16574   2.428   9.782  14.524
38226SOL    HW116575   2.509   9.832  14.529
38226SOL    HW216576   2.448   9.709  14.465
38227SOL     OW16577   4.806   4.659   3.190
38227SOL    HW116578   4.858   4.580   3.181
38227SOL    HW216579   4.754   4.645   3.269
38228SOL     OW16580   3.222   9.554   6.061
38228SOL    HW116581   3.171   9.606   5.999
38228SOL    HW216582   3.169   9.555   6.141
38229SOL     OW16583   8.611   6.931   6.583
38229SOL    HW116584   8.608   6.850   6.533
38229SOL    HW216585   8.616   6.902   6.674
38230SOL     OW16586  11.273   3.631  10.015
38230SOL    HW116587  11.200   3.590  10.062
38230SOL    HW216588  11.295   3.709  10.068
38231SOL     OW16589   2.298  12.135  12.865
38231SOL    HW116590   2.339  12.098  12.944
38231SOL    HW216591   2.304  12.064  12.801
38232SOL     OW16592   9.784   2.408  12.186
38232SOL    HW116593   9.688   2.407  12.182
38232SOL    HW216594   9.811   2.454  12.107
38233SOL     OW16595  13.885  11.066  10.460
38233SOL    HW116596  13.890  10.998  10.393
38233SOL    HW216597  13.794  11.065  10.489
38234SOL     OW16598  10.526  14.546  13.095
38234SOL    HW116599  10.524  14.593  13.012
38234SOL    HW216600  10.549  14.456  13.072
38235SOL     OW16601   8.587   0.282   7.985
38235SOL    HW116602   8.539   0.199   7.990
38235SOL    HW216603   8.586   0.306   7.893
38236SOL     OW16604   6.970   1.640   8.527
38236SOL    HW116605   6.912   1.713   8.549
38236SOL    HW216606   6.919   1.562   8.546
38237SOL     OW16607  12.091  14.493   0.371
38237SOL    HW116608  12.032  14.566   0.355
38237SOL    HW216609  12.037  14.415   0.360
38238SOL     OW16610  14.519   5.036   4.922
38238SOL    HW116611  14.590   5.099   4.907
38238SOL    HW216612  14.557   4.951   4.901
38239SOL     OW16613  14.355   7.952   9.689
38239SOL    HW116614  14.355   7.859   9.667
38239SOL    HW216615  14.385   7.955   9.780
38240SOL     OW16616   2.431   5.080  11.639
38240SOL    HW116617   2.485   5.051  11.713
38240SOL    HW216618   2.372   5.145  11.677
38241SOL     OW16619   8.814  13.879   3.258
38241SOL    HW116620   8.727  13.881   3.297
38241SOL    HW216621   8.869  13.837   3.324
38242SOL     OW16622  13.138   3.187   8.462
38242SOL    HW116623  13.048   3.186   8.428
38242SOL    HW216624  13.175   3.103   8.433
38243SOL     OW16625   0.978   5.245   9.201
38243SOL    HW116626   0.949   5.179   9.138
38243SOL    HW216627   1.026   5.195   9.267
38244SOL     OW16628   0.404  14.174  10.565
38244SOL    HW116629   0.436  14.246  10.510
38244SOL    HW216630   0.323  14.208  10.603
38245SOL     OW16631  14.499   0.377   5.293
38245SOL    HW116632  14.563   0.313   5.261
38245SOL    HW216633  14.501   0.447   5.228
38246SOL     OW16634   4.502   5.441   4.941
38246SOL    HW116635   4.544   5.490   4.870
38246SOL    HW216636   4.448   5.376   4.896
38247SOL     OW16637  11.810   7.818   5.200
38247SOL    HW116638  11.734   7.762   5.183
38247SOL    HW216639  11.836   7.850   5.114
38248SOL     OW16640   4.273   4.772  12.750
38248SOL    HW116641   4.275   4.856  12.794
38248SOL    HW216642   4.192   4.731  12.779
38249SOL     OW16643   0.570   8.517   4.764
38249SOL    HW116644   0.600   8.606   4.786
38249SOL    HW216645   0.553   8.520   4.670
38250SOL     OW16646  12.257  11.706  14.774
38250SOL    HW116647  12.199  11.749  14.838
38250SOL    HW216648  12.210  11.626  14.749
38251SOL     OW16649  13.500   0.457  11.278
38251SOL    HW116650  13.584   0.421  11.304
38251SOL    HW216651  13.515   0.551  11.269
38252SOL     OW16652  11.326   2.962  12.728
38252SOL    HW116653  11.393   2.899  12.754
38252SOL    HW216654  11.251   2.907  12.701
38253SOL     OW16655   3.575   4.925  14.620
38253SOL    HW116656   3.488   4.888  14.633
38253SOL    HW216657   3.627   4.891  14.693
38254SOL     OW16658  13.100   3.813   7.050
38254SOL    HW116659  13.176   3.862   7.019
38254SOL    HW216660  13.030   3.836   6.989
38255SOL     OW16661  11.591   0.357   1.875
38255SOL    HW116662  11.654   0.319   1.814
38255SOL    HW216663  11.609   0.313   1.958
38256SOL     OW16664   6.834  14.517   9.353
38256SOL    HW116665   6.886  14.588   9.391
38256SOL    HW216666   6.805  14.466   9.429
38257SOL     OW16667  13.682  12.543   3.105
38257SOL    HW116668  13.697  12.466   3.050
38257SOL    HW216669  13.680  12.616   3.043
38258SOL     OW16670  14.332   5.020  11.541
38258SOL    HW116671  14.250   5.030  11.493
38258SOL    HW216672  14.332   4.928  11.568
38259SOL     OW16673   1.151   1.116  10.292
38259SOL    HW116674   1.227   1.140  10.240
38259SOL    HW216675   1.076   1.127  10.233
38260SOL     OW16676   9.457   7.740   4.405
38260SOL    HW116677   9.493   7.666   4.357
38260SOL    HW216678   9.489   7.817   4.359
38261SOL     OW16679  12.796  12.660   8.571
38261SOL    HW116680  12.773  12.687   8.483
38261SOL    HW216681  12.883  12.621   8.562
38262SOL     OW16682   4.754   4.445   2.340
38262SOL    HW116683   4.789   4.531   2.363
38262SOL    HW216684   4.830   4.387   2.343
38263SOL     OW16685   0.647   1.151  14.729
38263SOL    HW116686   0.625   1.208  14.803
38263SOL    HW216687   0.563   1.133  14.687
38264SOL     OW16688   3.642  14.684   0.044
38264SOL    HW116689   3.616  14.612  14.860
38264SOL    HW216690   3.729  14.710   0.012
38265SOL     OW16691  10.313   0.258   5.012
38265SOL    HW116692  10.361   0.339   5.031
38265SOL    HW216693  10.270   0.274   4.929
38266SOL     OW16694   9.043   7.250   1.157
38266SOL    HW116695   9.086   7.253   1.242
38266SOL    HW216696   9.104   7.293   1.097
38267SOL     OW16697   7.855  11.348   4.452
38267SOL    HW116698   7.805  11.353   4.533
38267SOL    HW216699   7.889  11.437   4.439
38268SOL     OW16700   4.340  12.023  11.438
38268SOL    HW116701   4.312  11.942  11.480
38268SOL    HW216702   4.306  12.093  11.494
38269SOL     OW16703  11.033   1.877   5.342
38269SOL    HW116704  11.062   1.947   5.401
38269SOL    HW216705  11.079   1.799   5.373
38270SOL     OW16706  14.082   0.619   6.902
38270SOL    HW116707  14.109   0.672   6.827
38270SOL    HW216708  14.163   0.604   6.952
38271SOL     OW16709   9.138   1.462   7.628
38271SOL    HW116710   9.089   1.423   7.701
38271SOL    HW216711   9.071   1.509   7.578
38272SOL     OW16712   1.085   5.109   6.814
38272SOL    HW116713   1.009   5.109   6.871
38272SOL    HW216714   1.050   5.088   6.727
38273SOL     OW16715   2.463  14.753  13.082
38273SOL    HW116716   2.445  14.712  12.997
38273SOL    HW216717   2.558  14.756  13.087
38274SOL     OW16718   3.726   9.670   3.987
38274SOL    HW116719   3.670   9.596   3.966
38274SOL    HW216720   3.813   9.633   3.996
38275SOL     OW16721  12.111   2.650   1.070
38275SOL    HW116722  12.121   2.578   1.132
38275SOL    HW216723  12.048   2.709   1.111
38276SOL     OW16724   8.197  10.140   8.141
38276SOL    HW116725   8.113  10.128   8.098
38276SOL    HW216726   8.193  10.082   8.217
38277SOL     OW16727  11.631   3.890   9.814
38277SOL    HW116728  11.580   3.924   9.741
38277SOL    HW216729  11.721   3.888   9.782
38278SOL     OW16730   5.047   8.998   4.683
38278SOL    HW116731   5.142   8.995   4.680
38278SOL    HW216732   5.025   9.089   4.664
38279SOL     OW16733   8.952  13.823  14.479
38279SOL    HW116734   8.988  13.768  14.409
38279SOL    HW216735   8.879  13.773  14.515
38280SOL     OW16736   4.685  14.364   4.340
38280SOL    HW116737   4.617  14.350   4.275
38280SOL    HW216738   4.690  14.280   4.387
38281SOL     OW16739   5.425   2.252   7.153
38281SOL    HW116740   5.475   2.195   7.094
38281SOL    HW216741   5.336   2.217   7.149
38282SOL     OW16742  10.851   6.508  12.165
38282SOL    HW116743  10.767   6.548  12.141
38282SOL    HW216744  10.876   6.456  12.089
38283SOL     OW16745  11.376   6.254   7.435
38283SOL    HW116746  11.346   6.195   7.504
38283SOL    HW216747  11.297   6.294   7.401
38284SOL     OW16748   3.853   8.401   5.570
38284SOL    HW116749   3.924   8.449   5.612
38284SOL    HW216750   3.894   8.359   5.495
38285SOL     OW16751   6.305   2.490   2.644
38285SOL    HW116752   6.257   2.572   2.637
38285SOL    HW216753   6.311   2.472   2.738
38286SOL     OW16754   7.068   2.124   9.012
38286SOL    HW116755   7.113   2.099   8.932
38286SOL    HW216756   6.975   2.121   8.990
38287SOL     OW16757  12.025   0.223  14.810
38287SOL    HW116758  11.993   0.300  14.763
38287SOL    HW216759  11.958   0.206   0.005
38288SOL     OW16760  14.289   0.589   7.115
38288SOL    HW116761  14.203   0.614   7.147
38288SOL    HW216762  14.342   0.578   7.194
38289SOL     OW16763   5.004  11.699  13.035
38289SOL    HW116764   4.921  11.738  13.007
38289SOL    HW216765   5.050  11.679  12.954
38290SOL     OW16766   1.836   1.501  10.886
38290SOL    HW116767   1.915   1.449  10.904
38290SOL    HW216768   1.796   1.515  10.972
38291SOL     OW16769  13.493   5.704   8.692
38291SOL    HW116770  13.554   5.744   8.755
38291SOL    HW216771  13.409   5.703   8.739
38292SOL     OW16772   4.998   5.472   7.621
38292SOL    HW116773   4.950   5.462   7.539
38292SOL    HW216774   5.086   5.442   7.601
38293SOL     OW16775   1.093   0.423   1.520
38293SOL    HW116776   1.065   0.357   1.583
38293SOL    HW216777   1.063   0.390   1.435
38294SOL     OW16778  12.887   6.514   3.074
38294SOL    HW116779  12.831   6.591   3.079
38294SOL    HW216780  12.841   6.454   3.015
38295SOL     OW16781  11.404  12.952   2.988
38295SOL    HW116782  11.416  13.041   2.956
38295SOL    HW216783  11.492  12.921   3.008
38296SOL     OW16784   6.263   1.217   8.760
38296SOL    HW116785   6.358   1.219   8.752
38296SOL    HW216786   6.244   1.134   8.803
38297SOL     OW16787  13.964   8.785   7.197
38297SOL    HW116788  13.963   8.698   7.156
38297SOL    HW216789  13.969   8.846   7.123
38298SOL     OW16790  11.783   4.520   1.437
38298SOL    HW116791  11.823   4.438   1.409
38298SOL    HW216792  11.775   4.571   1.357
38299SOL     OW16793   3.107  12.027   0.838
38299SOL    HW116794   3.089  11.980   0.919
38299SOL    HW216795   3.026  12.023   0.789
38300SOL     OW16796  13.730   0.041   4.320
38300SOL    HW116797  13.703  14.820   4.323
38300SOL    HW216798  13.758   0.061   4.409
38301SOL     OW16799  12.970  12.700  10.840
38301SOL    HW116800  12.876  12.717  10.839
38301SOL    HW216801  13.000  12.731  10.925
38302SOL     OW16802   9.042   1.374   1.679
38302SOL    HW116803   8.973   1.310   1.660
38302SOL    HW216804   8.995   1.453   1.706
38303SOL     OW16805   0.698   3.521   4.744
38303SOL    HW116806   0.688   3.440   4.794
38303SOL    HW216807   0.707   3.492   4.654
38304SOL     OW16808   4.739  10.256  12.083
38304SOL    HW116809   4.697  10.229  12.165
38304SOL    HW216810   4.688  10.331  12.054
38305SOL     OW16811  10.168   8.626  10.191
38305SOL    HW116812  10.146   8.623  10.284
38305SOL    HW216813  10.255   8.664  10.188
38306SOL     OW16814   1.253   0.420   5.639
38306SOL    HW116815   1.277   0.469   5.718
38306SOL    HW216816   1.333   0.422   5.586
38307SOL     OW16817   6.053   6.395   0.323
38307SOL    HW116818   6.061   6.300   0.311
38307SOL    HW216819   6.074   6.432   0.238
38308SOL     OW16820   8.928   6.023   6.390
38308SOL    HW116821   8.834   6.010   6.405
38308SOL    HW216822   8.961   5.936   6.372
38309SOL     OW16823   6.534  10.741  13.233
38309SOL    HW116824   6.482  10.802  13.181
38309SOL    HW216825   6.593  10.796  13.284
38310SOL     OW16826  14.041  12.891   4.813
38310SOL    HW116827  14.108  12.959   4.814
38310SOL    HW216828  14.079  12.822   4.759
38311SOL     OW16829   7.264  13.663   4.953
38311SOL    HW116830   7.297  13.753   4.957
38311SOL    HW216831   7.301  13.627   4.873
38312SOL     OW16832   1.315   9.598  14.857
38312SOL    HW116833   1.243   9.622  14.799
38312SOL    HW216834   1.318   9.669   0.050
38313SOL     OW16835   0.815   8.425   4.862
38313SOL    HW116836   0.882   8.448   4.798
38313SOL    HW216837   0.734   8.460   4.824
38314SOL     OW16838  13.419   0.420  12.711
38314SOL    HW116839  13.485   0.448  12.774
38314SOL    HW216840  13.338   0.463  12.740
38315SOL     OW16841   8.695   3.078   0.201
38315SOL    HW116842   8.722   3.038   0.119
38315SOL    HW216843   8.601   3.092   0.192
38316SOL     OW16844   3.257  12.477   5.472
38316SOL    HW116845   3.319  12.447   5.405
38316SOL    HW216846   3.183  12.418   5.465
38317SOL     OW16847   4.709   1.838  10.765
38317SOL    HW116848   4.722   1.753  10.722
38317SOL    HW216849   4.794   1.860  10.802
38318SOL     OW16850  12.490   8.409   9.565
38318SOL    HW116851  12.526   8.430   9.651
38318SOL    HW216852  12.559   8.358   9.522
38319SOL     OW16853  13.336   3.648   7.554
38319SOL    HW116854  13.415   3.632   7.502
38319SOL    HW216855  13.367   3.652   7.644
38320SOL     OW16856   2.063   3.360  11.487
38320SOL    HW116857   1.985   3.304  11.492
38320SOL    HW216858   2.028   3.449  11.486
38321SOL     OW16859  11.375   1.738  12.164
38321SOL    HW116860  11.320   1.728  12.086
38321SOL    HW216861  11.462   1.708  12.136
38322SOL     OW16862   8.175   9.664   2.676
38322SOL    HW116863   8.192   9.589   2.733
38322SOL    HW216864   8.262   9.695   2.651
38323SOL     OW16865  13.977   2.419   2.127
38323SOL    HW116866  13.980   2.462   2.041
38323SOL    HW216867  14.052   2.360   2.127
38324SOL     OW16868   0.631  12.144  10.948
38324SOL    HW116869   0.695  12.077  10.970
38324SOL    HW216870   0.573  12.103  10.885
38325SOL     OW16871   5.055  13.164   9.592
38325SOL    HW116872   5.018  13.157   9.505
38325SOL    HW216873   5.048  13.075   9.628
38326SOL     OW16874   3.719   3.164   6.097
38326SOL    HW116875   3.680   3.125   6.019
38326SOL    HW216876   3.760   3.244   6.067
38327SOL     OW16877   0.295   7.401   1.127
38327SOL    HW116878   0.357   7.424   1.196
38327SOL    HW216879   0.339   7.428   1.046
38328SOL     OW16880   9.264   5.253   1.225
38328SOL    HW116881   9.198   5.208   1.171
38328SOL    HW216882   9.286   5.331   1.174
38329SOL     OW16883   8.624   0.856  14.699
38329SOL    HW116884   8.685   0.798  14.654
38329SOL    HW216885   8.586   0.802  14.768
38330SOL     OW16886   9.998   3.762   1.871
38330SOL    HW116887  10.010   3.828   1.802
38330SOL    HW216888   9.988   3.813   1.951
38331SOL     OW16889  12.476  10.018   1.368
38331SOL    HW116890  12.445  10.082   1.432
38331SOL    HW216891  12.460   9.933   1.410
38332SOL     OW16892   0.291   5.646   2.455
38332SOL    HW116893   0.279   5.553   2.436
38332SOL    HW216894   0.233   5.691   2.393
38333SOL     OW16895  14.773   5.382  11.811
38333SOL    HW116896  14.848   5.406  11.756
38333SOL    HW216897  14.812   5.341  11.888
38334SOL     OW16898   5.307  11.305  13.336
38334SOL    HW116899   5.356  11.384  13.361
38334SOL    HW216900   5.224  11.313  13.382
38335SOL     OW16901   5.999  12.984  12.897
38335SOL    HW116902   6.016  12.942  12.980
38335SOL    HW216903   6.019  12.918  12.831
38336SOL     OW16904  12.556  14.673   5.386
38336SOL    HW116905  12.608  14.635   5.316
38336SOL    HW216906  12.504  14.600   5.419
38337SOL     OW16907  11.590   9.666   2.959
38337SOL    HW116908  11.596   9.619   2.875
38337SOL    HW216909  11.531   9.612   3.012
38338SOL     OW16910   3.099   1.214  11.431
38338SOL    HW116911   3.119   1.254  11.515
38338SOL    HW216912   3.122   1.281  11.366
38339SOL     OW16913  11.662   7.674   4.237
38339SOL    HW116914  11.706   7.667   4.322
38339SOL    HW216915  11.731   7.698   4.176
38340SOL     OW16916   5.941  11.633   6.654
38340SOL    HW116917   5.950  11.693   6.728
38340SOL    HW216918   6.001  11.561   6.674
38341SOL     OW16919  13.706   9.496  11.333
38341SOL    HW116920  13.799   9.514  11.350
38341SOL    HW216921  13.672   9.579  11.300
38342SOL     OW16922   4.616  13.224   0.235
38342SOL    HW116923   4.700  13.178   0.239
38342SOL    HW216924   4.550  13.154   0.227
38343SOL     OW16925  13.613   6.346  12.585
38343SOL    HW116926  13.655   6.304  12.510
38343SOL    HW216927  13.584   6.273  12.639
38344SOL     OW16928   9.679  10.736  10.679
38344SOL    HW116929   9.658  10.752  10.771
38344SOL    HW216930   9.680  10.640  10.672
38345SOL     OW16931  11.741   7.230   3.358
38345SOL    HW116932  11.672   7.195   3.303
38345SOL    HW216933  11.744   7.172   3.434
38346SOL     OW16934  14.222   1.393   1.143
38346SOL    HW116935  14.152   1.431   1.196
38346SOL    HW216936  14.187   1.309   1.113
38347SOL     OW16937   5.242  10.599   1.506
38347SOL    HW116938   5.318  10.646   1.473
38347SOL    HW216939   5.171  10.663   1.505
38348SOL     OW16940   6.081   4.372   8.448
38348SOL    HW116941   6.063   4.298   8.390
38348SOL    HW216942   6.088   4.332   8.535
38349SOL     OW16943   6.558   8.810   2.105
38349SOL    HW116944   6.594   8.722   2.112
38349SOL    HW216945   6.618   8.856   2.045
38350SOL     OW16946   7.673   9.654   3.752
38350SOL    HW116947   7.733   9.702   3.695
38350SOL    HW216948   7.586   9.673   3.716
38351SOL     OW16949   9.829  10.377   0.087
38351SOL    HW116950   9.877  10.323   0.151
38351SOL    HW216951   9.753  10.410   0.136
38352SOL     OW16952   1.257   7.121   4.677
38352SOL    HW116953   1.312   7.094   4.750
38352SOL    HW216954   1.173   7.141   4.717
38353SOL     OW16955   6.514   8.890   0.186
38353SOL    HW116956   6.442   8.885   0.249
38353SOL    HW216957   6.562   8.808   0.199
38354SOL     OW16958  10.610   3.902  13.183
38354SOL    HW116959  10.618   3.848  13.105
38354SOL    HW216960  10.634   3.844  13.256
38355SOL     OW16961  13.723   5.805  13.450
38355SOL    HW116962  13.702   5.853  13.369
38355SOL    HW216963  13.647   5.817  13.505
38356SOL     OW16964  14.575   4.758  13.160
38356SOL    HW116965  14.518   4.825  13.197
38356SOL    HW216966  14.647   4.807  13.120
38357SOL     OW16967   9.519   0.597   1.941
38357SOL    HW116968   9.462   0.527   1.972
38357SOL    HW216969   9.530   0.579   1.847
38358SOL     OW16970   6.411  13.930  12.651
38358SOL    HW116971   6.336  13.893  12.698
38358SOL    HW216972   6.486  13.879  12.681
38359SOL     OW16973  11.878  12.362   1.364
38359SOL    HW116974  11.902  12.401   1.280
38359SOL    HW216975  11.937  12.287   1.373
38360SOL     OW16976  10.464   2.315   4.207
38360SOL    HW116977  10.375   2.289   4.180
38360SOL    HW216978  10.521   2.272   4.144
38361SOL     OW16979   2.654  11.848  12.574
38361SOL    HW116980   2.684  11.939  12.567
38361SOL    HW216981   2.580  11.843  12.513
38362SOL     OW16982   1.574  10.184   3.692
38362SOL    HW116983   1.523  10.215   3.617
38362SOL    HW216984   1.645  10.249   3.700
38363SOL     OW16985   0.538   7.926  10.868
38363SOL    HW116986   0.564   8.015  10.893
38363SOL    HW216987   0.567   7.871  10.941
38364SOL     OW16988   6.884   6.007   7.576
38364SOL    HW116989   6.904   5.951   7.651
38364SOL    HW216990   6.801   5.972   7.542
38365SOL     OW16991  11.984  12.526   5.649
38365SOL    HW116992  12.076  12.538   5.673
38365SOL    HW216993  11.984  12.526   5.553
38366SOL     OW16994   4.981   5.452   5.220
38366SOL    HW116995   4.899   5.421   5.182
38366SOL    HW216996   5.048   5.422   5.159
38367SOL     OW16997  10.662  10.271  12.364
38367SOL    HW116998  10.724  10.239  12.430
38367SOL    HW216999  10.663  10.205  12.295
38368SOL     OW17000   9.638  11.996  12.129
38368SOL    HW117001   9.647  12.077  12.180
38368SOL    HW217002   9.712  11.942  12.156
38369SOL     OW17003   5.928   0.203   7.463
38369SOL    HW117004   5.965   0.124   7.422
38369SOL    HW217005   5.849   0.174   7.507
38370SOL     OW17006  10.445  12.831   3.823
38370SOL    HW117007  10.522  12.818   3.767
38370SOL    HW217008  10.388  12.889   3.772
38371SOL     OW17009  12.386  11.171   8.697
38371SOL    HW117010  12.308  11.154   8.750
38371SOL    HW217011  12.380  11.264   8.676
38372SOL     OW17012   8.415   6.835  10.661
38372SOL    HW117013   8.412   6.883  10.578
38372SOL    HW217014   8.504   6.849  10.694
38373SOL     OW17015   5.578  13.820   2.614
38373SOL    HW117016   5.573  13.895   2.555
38373SOL    HW217017   5.601  13.746   2.557
38374SOL     OW17018  10.094  12.013  11.705
38374SOL    HW117019  10.049  11.929  11.714
38374SOL    HW217020  10.054  12.069  11.771
38375SOL     OW17021   4.638   5.361   7.214
38375SOL    HW117022   4.589   5.443   7.215
38375SOL    HW217023   4.646   5.337   7.307
38376SOL     OW17024   3.871   6.247   4.338
38376SOL    HW117025   3.926   6.171   4.355
38376SOL    HW217026   3.865   6.251   4.243
38377SOL     OW17027   7.219   2.487   9.867
38377SOL    HW117028   7.204   2.471   9.960
38377SOL    HW217029   7.133   2.477   9.826
38378SOL     OW17030   8.972   6.972   7.253
38378SOL    HW117031   9.050   6.966   7.197
38378SOL    HW217032   8.925   7.049   7.220
38379SOL     OW17033   2.458   0.968   6.364
38379SOL    HW117034   2.517   1.023   6.313
38379SOL    HW217035   2.472   0.880   6.331
38380SOL     OW17036  12.894   9.994  11.124
38380SOL    HW117037  12.957   9.940  11.077
38380SOL    HW217038  12.909  10.083  11.091
38381SOL     OW17039  10.121   0.858   9.814
38381SOL    HW117040  10.065   0.854   9.891
38381SOL    HW217041  10.210   0.865   9.849
38382SOL     OW17042   7.568   4.744   3.707
38382SOL    HW117043   7.635   4.795   3.661
38382SOL    HW217044   7.514   4.810   3.751
38383SOL     OW17045   2.876   9.920   1.503
38383SOL    HW117046   2.813   9.879   1.563
38383SOL    HW217047   2.914   9.847   1.454
38384SOL     OW17048   5.331  14.211  11.683
38384SOL    HW117049   5.266  14.271  11.645
38384SOL    HW217050   5.279  14.141  11.722
38385SOL     OW17051  10.869   0.227  14.763
38385SOL    HW117052  10.952   0.194  14.796
38385SOL    HW217053  10.872   0.210  14.669
38386SOL     OW17054  13.126   9.337  13.849
38386SOL    HW117055  13.137   9.301  13.760
38386SOL    HW217056  13.198   9.299  13.899
38387SOL     OW17057   9.441  13.799  10.669
38387SOL    HW117058   9.455  13.893  10.678
38387SOL    HW217059   9.437  13.785  10.574
38388SOL     OW17060   1.277   9.625   9.750
38388SOL    HW117061   1.270   9.718   9.773
38388SOL    HW217062   1.189   9.591   9.763
38389SOL     OW17063   2.196   7.994   5.967
38389SOL    HW117064   2.277   7.962   6.007
38389SOL    HW217065   2.127   7.943   6.008
38390SOL     OW17066   1.816  10.194   3.376
38390SOL    HW117067   1.889  10.168   3.432
38390SOL    HW217068   1.785  10.276   3.415
38391SOL     OW17069   6.514  12.082  13.757
38391SOL    HW117070   6.516  12.141  13.833
38391SOL    HW217071   6.594  12.030  13.766
38392SOL     OW17072   2.262   8.873  12.075
38392SOL    HW117073   2.311   8.893  12.154
38392SOL    HW217074   2.249   8.778  12.077
38393SOL     OW17075   2.925   9.947   3.310
38393SOL    HW117076   3.020   9.941   3.300
38393SOL    HW217077   2.901   9.871   3.363
38394SOL     OW17078   9.513  13.346   1.838
38394SOL    HW117079   9.579  13.390   1.892
38394SOL    HW217080   9.564  13.289   1.781
38395SOL     OW17081  10.621   4.004   3.158
38395SOL    HW117082  10.707   3.970   3.133
38395SOL    HW217083  10.578   3.929   3.200
38396SOL     OW17084   2.319  13.866  11.408
38396SOL    HW117085   2.228  13.883  11.383
38396SOL    HW217086   2.365  13.948  11.391
38397SOL     OW17087  10.366  14.802   5.137
38397SOL    HW117088  10.273  14.826   5.146
38397SOL    HW217089  10.376  14.724   5.192
38398SOL     OW17090   0.866   1.386   8.932
38398SOL    HW117091   0.929   1.393   8.860
38398SOL    HW217092   0.846   1.292   8.937
38399SOL     OW17093  13.080   9.096   7.215
38399SOL    HW117094  13.090   9.041   7.137
38399SOL    HW217095  12.990   9.127   7.211
38400SOL     OW17096   4.216   6.555  12.944
38400SOL    HW117097   4.216   6.459  12.951
38400SOL    HW217098   4.300   6.576  12.905
38401SOL     OW17099   3.163  10.818   0.681
38401SOL    HW117100   3.226  10.753   0.712
38401SOL    HW217101   3.111  10.839   0.758
38402SOL     OW17102  14.760   5.417   9.675
38402SOL    HW117103  14.766   5.360   9.598
38402SOL    HW217104  14.823   5.487   9.658
38403SOL     OW17105   3.973  11.853   8.332
38403SOL    HW117106   4.050  11.845   8.387
38403SOL    HW217107   3.916  11.780   8.359
38404SOL     OW17108   4.791   1.962   3.080
38404SOL    HW117109   4.813   1.920   2.997
38404SOL    HW217110   4.870   2.010   3.105
38405SOL     OW17111   0.904   1.403   2.133
38405SOL    HW117112   0.816   1.379   2.162
38405SOL    HW217113   0.963   1.362   2.195
38406SOL     OW17114   8.807  12.821   0.693
38406SOL    HW117115   8.852  12.874   0.759
38406SOL    HW217116   8.848  12.846   0.610
38407SOL     OW17117   9.021   9.483  11.889
38407SOL    HW117118   9.001   9.559  11.943
38407SOL    HW217119   9.117   9.477  11.890
38408SOL     OW17120  12.203  13.871   3.867
38408SOL    HW117121  12.124  13.903   3.910
38408SOL    HW217122  12.214  13.782   3.898
38409SOL     OW17123   6.593  14.178  14.197
38409SOL    HW117124   6.547  14.104  14.157
38409SOL    HW217125   6.523  14.234  14.231
38410SOL     OW17126  11.183   3.704   8.837
38410SOL    HW117127  11.242   3.635   8.806
38410SOL    HW217128  11.221   3.732   8.921
38411SOL     OW17129   1.238   2.819   9.979
38411SOL    HW117130   1.262   2.878   9.908
38411SOL    HW217131   1.295   2.743   9.968
38412SOL     OW17132   2.349  11.184  12.811
38412SOL    HW117133   2.425  11.168  12.866
38412SOL    HW217134   2.382  11.239  12.740
38413SOL     OW17135   2.362   6.858   8.589
38413SOL    HW117136   2.389   6.904   8.669
38413SOL    HW217137   2.430   6.792   8.575
38414SOL     OW17138   5.072  12.530   5.084
38414SOL    HW117139   5.006  12.527   5.015
38414SOL    HW217140   5.050  12.608   5.135
38415SOL     OW17141   1.337  10.318  14.635
38415SOL    HW117142   1.420  10.328  14.588
38415SOL    HW217143   1.349  10.239  14.688
38416SOL     OW17144  12.030   9.104   3.267
38416SOL    HW117145  11.972   9.172   3.302
38416SOL    HW217146  12.047   9.132   3.177
38417SOL     OW17147   7.009   8.515  14.265
38417SOL    HW117148   7.019   8.422  14.245
38417SOL    HW217149   6.957   8.550  14.193
38418SOL     OW17150   6.145   0.531   5.680
38418SOL    HW117151   6.235   0.554   5.702
38418SOL    HW217152   6.096   0.545   5.761
38419SOL     OW17153  10.342  11.341   5.448
38419SOL    HW117154  10.419  11.391   5.473
38419SOL    HW217155  10.347  11.334   5.353
38420SOL     OW17156  13.608   9.297   2.269
38420SOL    HW117157  13.528   9.262   2.309
38420SOL    HW217158  13.579   9.338   2.188
38421SOL     OW17159  11.601   3.376   3.939
38421SOL    HW117160  11.616   3.361   4.032
38421SOL    HW217161  11.515   3.418   3.934
38422SOL     OW17162   9.362  13.301   6.341
38422SOL    HW117163   9.293  13.306   6.407
38422SOL    HW217164   9.398  13.213   6.349
38423SOL     OW17165   1.727   0.989   8.340
38423SOL    HW117166   1.656   1.017   8.283
38423SOL    HW217167   1.689   0.989   8.428
38424SOL     OW17168  10.883   6.222  10.367
38424SOL    HW117169  10.952   6.201  10.431
38424SOL    HW217170  10.848   6.306  10.396
38425SOL     OW17171   3.773   0.516   1.710
38425SOL    HW117172   3.734   0.428   1.705
38425SOL    HW217173   3.747   0.558   1.628
38426SOL     OW17174   9.630  13.054   6.678
38426SOL    HW117175   9.668  13.121   6.622
38426SOL    HW217176   9.704  12.996   6.699
38427SOL     OW17177   6.920   2.231   1.361
38427SOL    HW117178   6.949   2.197   1.276
38427SOL    HW217179   6.984   2.196   1.423
38428SOL     OW17180   1.635   0.589   4.512
38428SOL    HW117181   1.570   0.653   4.484
38428SOL    HW217182   1.586   0.507   4.522
38429SOL     OW17183   1.069   8.338  13.469
38429SOL    HW117184   0.996   8.344  13.530
38429SOL    HW217185   1.104   8.427  13.465
38430SOL     OW17186  13.187   4.976   5.328
38430SOL    HW117187  13.212   4.890   5.363
38430SOL    HW217188  13.106   4.998   5.375
38431SOL     OW17189  12.205   3.965   7.417
38431SOL    HW117190  12.130   3.972   7.358
38431SOL    HW217191  12.215   4.053   7.453
38432SOL     OW17192   7.770   4.985  12.185
38432SOL    HW117193   7.800   4.895  12.200
38432SOL    HW217194   7.739   5.014  12.270
38433SOL     OW17195   6.261  11.254   7.597
38433SOL    HW117196   6.236  11.227   7.508
38433SOL    HW217197   6.186  11.231   7.651
38434SOL     OW17198  10.016   6.640   3.049
38434SOL    HW117199   9.960   6.582   2.998
38434SOL    HW217200   9.979   6.638   3.137
38435SOL     OW17201  13.672  12.917  10.835
38435SOL    HW117202  13.609  12.984  10.808
38435SOL    HW217203  13.618  12.848  10.874
38436SOL     OW17204   4.826   3.782  11.783
38436SOL    HW117205   4.795   3.696  11.811
38436SOL    HW217206   4.918   3.783  11.807
38437SOL     OW17207  14.579  13.773   8.956
38437SOL    HW117208  14.507  13.713   8.973
38437SOL    HW217209  14.568  13.797   8.863
38438SOL     OW17210   4.623  10.469  11.962
38438SOL    HW117211   4.539  10.447  11.922
38438SOL    HW217212   4.612  10.560  11.992
38439SOL     OW17213  10.474  12.429  10.516
38439SOL    HW117214  10.516  12.443  10.431
38439SOL    HW217215  10.403  12.492  10.518
38440SOL     OW17216  10.719   0.331   8.371
38440SOL    HW117217  10.777   0.408   8.373
38440SOL    HW217218  10.725   0.300   8.280
38441SOL     OW17219  11.772  11.231   6.512
38441SOL    HW117220  11.703  11.168   6.535
38441SOL    HW217221  11.728  11.316   6.510
38442SOL     OW17222   7.227  13.991   7.643
38442SOL    HW117223   7.141  13.960   7.615
38442SOL    HW217224   7.271  14.017   7.562
38443SOL     OW17225   3.596   4.877  14.159
38443SOL    HW117226   3.524   4.844  14.212
38443SOL    HW217227   3.634   4.799  14.119
38444SOL     OW17228   8.746   5.648   6.693
38444SOL    HW117229   8.832   5.653   6.734
38444SOL    HW217230   8.695   5.717   6.737
38445SOL     OW17231   6.506   3.386   8.688
38445SOL    HW117232   6.448   3.381   8.764
38445SOL    HW217233   6.497   3.301   8.646
38446SOL     OW17234   8.847   1.778   6.403
38446SOL    HW117235   8.857   1.826   6.485
38446SOL    HW217236   8.936   1.756   6.377
38447SOL     OW17237  14.320  11.674   1.418
38447SOL    HW117238  14.339  11.629   1.501
38447SOL    HW217239  14.227  11.697   1.425
38448SOL     OW17240   2.484   0.957   1.166
38448SOL    HW117241   2.442   0.872   1.178
38448SOL    HW217242   2.532   0.971   1.247
38449SOL     OW17243   0.235   1.531   4.606
38449SOL    HW117244   0.225   1.438   4.586
38449SOL    HW217245   0.161   1.572   4.563
38450SOL     OW17246   8.133  14.342   0.877
38450SOL    HW117247   8.059  14.394   0.847
38450SOL    HW217248   8.200  14.354   0.811
38451SOL     OW17249   4.730   9.053   6.266
38451SOL    HW117250   4.753   9.098   6.184
38451SOL    HW217251   4.635   9.063   6.273
38452SOL     OW17252  10.827   2.303   8.602
38452SOL    HW117253  10.790   2.238   8.661
38452SOL    HW217254  10.751   2.350   8.567
38453SOL     OW17255   0.857   8.464  13.218
38453SOL    HW117256   0.914   8.525  13.171
38453SOL    HW217257   0.870   8.380  13.174
38454SOL     OW17258  14.696   6.989   6.247
38454SOL    HW117259  14.690   7.004   6.152
38454SOL    HW217260  14.784   7.018   6.270
38455SOL     OW17261  14.096   3.445  10.224
38455SOL    HW117262  14.041   3.502  10.171
38455SOL    HW217263  14.054   3.359  10.219
38456SOL     OW17264   9.731   6.173  11.709
38456SOL    HW117265   9.721   6.080  11.729
38456SOL    HW217266   9.675   6.217  11.773
38457SOL     OW17267   4.467  12.477  10.194
38457SOL    HW117268   4.442  12.535  10.122
38457SOL    HW217269   4.413  12.399  10.181
38458SOL     OW17270   0.991   2.560   6.203
38458SOL    HW117271   0.966   2.627   6.267
38458SOL    HW217272   0.953   2.591   6.121
38459SOL     OW17273   5.082  14.217   2.206
38459SOL    HW117274   5.148  14.180   2.265
38459SOL    HW217275   5.013  14.248   2.264
38460SOL     OW17276  11.560  14.832   9.705
38460SOL    HW117277  11.594  14.747   9.676
38460SOL    HW217278  11.602  14.848   9.789
38461SOL     OW17279   0.158   3.104   7.832
38461SOL    HW117280   0.164   3.027   7.889
38461SOL    HW217281   0.123   3.173   7.888
38462SOL     OW17282  11.797   3.856   8.570
38462SOL    HW117283  11.868   3.808   8.613
38462SOL    HW217284  11.736   3.788   8.541
38463SOL     OW17285  13.147   1.765  11.089
38463SOL    HW117286  13.147   1.719  11.005
38463SOL    HW217287  13.136   1.857  11.067
38464SOL     OW17288   8.236   6.224   9.431
38464SOL    HW117289   8.215   6.280   9.356
38464SOL    HW217290   8.286   6.280   9.490
38465SOL     OW17291   5.927   0.317   3.116
38465SOL    HW117292   5.885   0.385   3.169
38465SOL    HW217293   5.979   0.366   3.052
38466SOL     OW17294   5.146   6.637  13.576
38466SOL    HW117295   5.213   6.689  13.622
38466SOL    HW217296   5.100   6.701  13.521
38467SOL     OW17297   2.477   1.901   7.820
38467SOL    HW117298   2.511   1.812   7.817
38467SOL    HW217299   2.459   1.917   7.912
38468SOL     OW17300   4.290   1.523   8.420
38468SOL    HW117301   4.207   1.503   8.463
38468SOL    HW217302   4.268   1.531   8.328
38469SOL     OW17303  11.541   9.405   0.677
38469SOL    HW117304  11.448   9.411   0.698
38469SOL    HW217305  11.584   9.400   0.762
38470SOL     OW17306   7.374   0.207  12.871
38470SOL    HW117307   7.299   0.255  12.905
38470SOL    HW217308   7.381   0.130  12.927
38471SOL     OW17309  12.870  11.797  14.101
38471SOL    HW117310  12.900  11.706  14.101
38471SOL    HW217311  12.946  11.848  14.129
38472SOL     OW17312   0.781  12.588   9.636
38472SOL    HW117313   0.790  12.510   9.690
38472SOL    HW217314   0.741  12.652   9.694
38473SOL     OW17315   2.998  12.297   4.605
38473SOL    HW117316   3.053  12.314   4.528
38473SOL    HW217317   2.965  12.208   4.592
38474SOL     OW17318   0.058   9.272   2.959
38474SOL    HW117319  14.845   9.278   3.003
38474SOL    HW217320   0.085   9.182   2.970
38475SOL     OW17321   3.478   9.101  10.430
38475SOL    HW117322   3.569   9.082  10.409
38475SOL    HW217323   3.430   9.079  10.351
38476SOL     OW17324  12.844  11.220  10.925
38476SOL    HW117325  12.765  11.275  10.925
38476SOL    HW217326  12.902  11.261  10.989
38477SOL     OW17327  11.285   8.185   2.413
38477SOL    HW117328  11.323   8.225   2.491
38477SOL    HW217329  11.199   8.226   2.404
38478SOL     OW17330   9.258   2.817   7.889
38478SOL    HW117331   9.264   2.840   7.982
38478SOL    HW217332   9.346   2.833   7.855
38479SOL     OW17333   5.235   6.599  11.010
38479SOL    HW117334   5.212   6.617  11.101
38479SOL    HW217335   5.324   6.564  11.014
38480SOL     OW17336   6.209   0.525   1.521
38480SOL    HW117337   6.204   0.514   1.426
38480SOL    HW217338   6.266   0.600   1.534
38481SOL     OW17339   8.687  12.806   5.728
38481SOL    HW117340   8.737  12.865   5.672
38481SOL    HW217341   8.739  12.801   5.809
38482SOL     OW17342   3.028  13.131   0.328
38482SOL    HW117343   3.117  13.156   0.352
38482SOL    HW217344   2.994  13.207   0.281
38483SOL     OW17345   6.495   7.675   5.340
38483SOL    HW117346   6.485   7.703   5.431
38483SOL    HW217347   6.590   7.675   5.325
38484SOL     OW17348   4.549   8.602   5.349
38484SOL    HW117349   4.505   8.647   5.277
38484SOL    HW217350   4.642   8.619   5.335
38485SOL     OW17351   1.548   3.063  14.478
38485SOL    HW117352   1.555   3.146  14.432
38485SOL    HW217353   1.621   3.063  14.540
38486SOL     OW17354   6.952   0.484   8.872
38486SOL    HW117355   6.935   0.571   8.835
38486SOL    HW217356   6.892   0.478   8.947
38487SOL     OW17357   7.239  13.151   0.987
38487SOL    HW117358   7.183  13.189   0.920
38487SOL    HW217359   7.322  13.134   0.943
38488SOL     OW17360   4.479   9.043   1.220
38488SOL    HW117361   4.431   9.111   1.266
38488SOL    HW217362   4.418   8.969   1.217
38489SOL     OW17363   8.886   4.252   3.186
38489SOL    HW117364   8.945   4.296   3.125
38489SOL    HW217365   8.811   4.310   3.193
38490SOL     OW17366  14.240   1.086   2.628
38490SOL    HW117367  14.270   0.999   2.601
38490SOL    HW217368  14.304   1.115   2.693
38491SOL     OW17369   5.979   7.126   4.932
38491SOL    HW117370   5.983   7.040   4.890
38491SOL    HW217371   6.065   7.136   4.973
38492SOL     OW17372   4.286   2.694   1.244
38492SOL    HW117373   4.335   2.731   1.171
38492SOL    HW217374   4.217   2.758   1.262
38493SOL     OW17375   5.712   7.105   7.156
38493SOL    HW117376   5.643   7.110   7.222
38493SOL    HW217377   5.720   7.195   7.123
38494SOL     OW17378   3.103   1.797   5.738
38494SOL    HW117379   3.139   1.713   5.764
38494SOL    HW217380   3.135   1.810   5.648
38495SOL     OW17381   2.136  14.623   4.040
38495SOL    HW117382   2.196  14.551   4.021
38495SOL    HW217383   2.059  14.604   3.987
38496SOL     OW17384   4.155   2.934   2.855
38496SOL    HW117385   4.126   2.965   2.769
38496SOL    HW217386   4.075   2.921   2.904
38497SOL     OW17387  14.006   9.320  10.936
38497SOL    HW117388  14.045   9.403  10.910
38497SOL    HW217389  14.067   9.285  11.001
38498SOL     OW17390   2.143  11.831  11.346
38498SOL    HW117391   2.151  11.736  11.353
38498SOL    HW217392   2.051  11.845  11.324
38499SOL     OW17393   9.877   3.937  14.484
38499SOL    HW117394   9.790   3.934  14.444
38499SOL    HW217395   9.874   4.013  14.543
38500SOL     OW17396   2.601   2.097  14.087
38500SOL    HW117397   2.679   2.084  14.142
38500SOL    HW217398   2.636   2.125  14.003
38501SOL     OW17399   8.618  11.381   9.631
38501SOL    HW117400   8.606  11.296   9.589
38501SOL    HW217401   8.703  11.375   9.674
38502SOL     OW17402  12.522   1.522   1.973
38502SOL    HW117403  12.608   1.546   1.938
38502SOL    HW217404  12.498   1.595   2.030
38503SOL     OW17405   7.297   6.954  13.322
38503SOL    HW117406   7.374   6.901  13.343
38503SOL    HW217407   7.245   6.954  13.402
38504SOL     OW17408   2.669  14.068   0.454
38504SOL    HW117409   2.614  14.039   0.381
38504SOL    HW217410   2.736  14.122   0.413
38505SOL     OW17411   9.580   7.632   5.763
38505SOL    HW117412   9.631   7.601   5.689
38505SOL    HW217413   9.624   7.594   5.840
38506SOL     OW17414   4.965   3.809   6.355
38506SOL    HW117415   4.927   3.887   6.396
38506SOL    HW217416   5.037   3.843   6.301
38507SOL     OW17417  13.869   6.452   9.784
38507SOL    HW117418  13.881   6.442   9.878
38507SOL    HW217419  13.777   6.476   9.774
38508SOL     OW17420  14.336   1.939   1.029
38508SOL    HW117421  14.400   1.954   1.099
38508SOL    HW217422  14.311   1.847   1.040
38509SOL     OW17423   2.122  13.761   3.714
38509SOL    HW117424   2.052  13.795   3.659
38509SOL    HW217425   2.168  13.839   3.745
38510SOL     OW17426   0.577  12.123   4.093
38510SOL    HW117427   0.634  12.071   4.149
38510SOL    HW217428   0.568  12.207   4.138
38511SOL     OW17429  14.744  10.019   9.778
38511SOL    HW117430  14.731  10.099   9.830
38511SOL    HW217431  14.839  10.013   9.766
38512SOL     OW17432  12.477   9.463  12.208
38512SOL    HW117433  12.470   9.528  12.138
38512SOL    HW217434  12.389   9.457  12.245
38513SOL     OW17435   2.442   7.636  12.758
38513SOL    HW117436   2.473   7.692  12.829
38513SOL    HW217437   2.514   7.574  12.744
38514SOL     OW17438  10.840   2.820   5.933
38514SOL    HW117439  10.763   2.764   5.923
38514SOL    HW217440  10.914   2.762   5.913
38515SOL     OW17441   8.352   4.114  12.438
38515SOL    HW117442   8.275   4.058  12.438
38515SOL    HW217443   8.319   4.201  12.456
38516SOL     OW17444  12.698   6.640   3.575
38516SOL    HW117445  12.613   6.642   3.617
38516SOL    HW217446  12.747   6.572   3.621
38517SOL     OW17447   6.520   3.563   1.894
38517SOL    HW117448   6.534   3.543   1.986
38517SOL    HW217449   6.465   3.642   1.895
38518SOL     OW17450   6.159   7.491  10.986
38518SOL    HW117451   6.144   7.572  11.034
38518SOL    HW217452   6.072   7.452  10.977
38519SOL     OW17453   7.479   7.860  12.945
38519SOL    HW117454   7.478   7.844  12.850
38519SOL    HW217455   7.548   7.926  12.957
38520SOL     OW17456   3.094   7.405   9.817
38520SOL    HW117457   3.184   7.393   9.787
38520SOL    HW217458   3.041   7.405   9.737
38521SOL     OW17459  11.567   5.043   1.077
38521SOL    HW117460  11.586   5.060   0.985
38521SOL    HW217461  11.505   5.111   1.102
38522SOL     OW17462   3.648  13.937   4.510
38522SOL    HW117463   3.555  13.917   4.497
38522SOL    HW217464   3.691  13.852   4.507
38523SOL     OW17465   3.712  14.098  11.444
38523SOL    HW117466   3.785  14.076  11.386
38523SOL    HW217467   3.733  14.054  11.527
38524SOL     OW17468   6.675  12.705  12.200
38524SOL    HW117469   6.717  12.788  12.224
38524SOL    HW217470   6.737  12.638  12.228
38525SOL     OW17471   5.601   9.351   9.348
38525SOL    HW117472   5.555   9.425   9.388
38525SOL    HW217473   5.654   9.315   9.418
38526SOL     OW17474   0.247   9.236   9.424
38526SOL    HW117475   0.287   9.227   9.510
38526SOL    HW217476   0.318   9.268   9.368
38527SOL     OW17477  12.508   4.102   3.021
38527SOL    HW117478  12.448   4.083   2.949
38527SOL    HW217479  12.506   4.024   3.076
38528SOL     OW17480  11.116   8.503  13.475
38528SOL    HW117481  11.096   8.414  13.447
38528SOL    HW217482  11.031   8.546  13.484
38529SOL     OW17483  12.259  11.633   1.965
38529SOL    HW117484  12.180  11.579   1.959
38529SOL    HW217485  12.231  11.718   1.930
38530SOL     OW17486   1.524   7.756   1.232
38530SOL    HW117487   1.463   7.757   1.158
38530SOL    HW217488   1.585   7.686   1.211
38531SOL     OW17489   2.233   2.854   9.847
38531SOL    HW117490   2.252   2.858   9.940
38531SOL    HW217491   2.303   2.904   9.805
38532SOL     OW17492  14.440  12.369  11.950
38532SOL    HW117493  14.530  12.352  11.922
38532SOL    HW217494  14.394  12.392  11.868
38533SOL     OW17495   9.721  14.166   8.312
38533SOL    HW117496   9.639  14.175   8.264
38533SOL    HW217497   9.698  14.110   8.387
38534SOL     OW17498   5.305  12.721   2.913
38534SOL    HW117499   5.243  12.794   2.914
38534SOL    HW217500   5.364  12.739   2.987
38535SOL     OW17501  10.593   7.555   5.492
38535SOL    HW117502  10.576   7.573   5.400
38535SOL    HW217503  10.525   7.604   5.539
38536SOL     OW17504   3.601   1.962   4.351
38536SOL    HW117505   3.691   1.933   4.336
38536SOL    HW217506   3.553   1.882   4.373
38537SOL     OW17507   3.743   8.122   9.045
38537SOL    HW117508   3.718   8.174   8.969
38537SOL    HW217509   3.819   8.167   9.081
38538SOL     OW17510  11.723   9.697   1.076
38538SOL    HW117511  11.801   9.733   1.034
38538SOL    HW217512  11.702   9.760   1.145
38539SOL     OW17513   1.604   8.443   6.704
38539SOL    HW117514   1.527   8.491   6.735
38539SOL    HW217515   1.572   8.388   6.633
38540SOL     OW17516   5.378   1.757   8.048
38540SOL    HW117517   5.337   1.670   8.050
38540SOL    HW217518   5.343   1.799   7.970
38541SOL     OW17519  10.746  13.822  10.799
38541SOL    HW117520  10.713  13.736  10.771
38541SOL    HW217521  10.763  13.812  10.893
38542SOL     OW17522   6.290  12.514   4.201
38542SOL    HW117523   6.205  12.558   4.210
38542SOL    HW217524   6.339  12.543   4.278
38543SOL     OW17525   3.444   1.121  14.479
38543SOL    HW117526   3.522   1.127  14.425
38543SOL    HW217527   3.376   1.087  14.420
38544SOL     OW17528   7.070   7.225   2.095
38544SOL    HW117529   7.007   7.157   2.119
38544SOL    HW217530   7.021   7.307   2.104
38545SOL     OW17531   3.491   9.504   8.577
38545SOL    HW117532   3.508   9.507   8.483
38545SOL    HW217533   3.575   9.526   8.617
38546SOL     OW17534   5.992   4.904   6.084
38546SOL    HW117535   6.014   4.998   6.081
38546SOL    HW217536   5.908   4.898   6.040
38547SOL     OW17537   4.089  13.127   3.721
38547SOL    HW117538   4.124  13.042   3.747
38547SOL    HW217539   4.143  13.154   3.647
38548SOL     OW17540   0.812  14.420  13.680
38548SOL    HW117541   0.803  14.412  13.585
38548SOL    HW217542   0.864  14.499  13.693
38549SOL     OW17543  12.742  14.354  11.246
38549SOL    HW117544  12.718  14.397  11.328
38549SOL    HW217545  12.831  14.384  11.228
38550SOL     OW17546   9.468   8.574   2.760
38550SOL    HW117547   9.493   8.611   2.845
38550SOL    HW217548   9.403   8.506   2.782
38551SOL     OW17549  12.054   2.550   0.547
38551SOL    HW117550  12.034   2.585   0.634
38551SOL    HW217551  12.111   2.617   0.508
38552SOL     OW17552   9.877  10.983   6.597
38552SOL    HW117553   9.830  10.998   6.515
38552SOL    HW217554   9.830  10.912   6.639
38553SOL     OW17555   7.535   1.719  10.786
38553SOL    HW117556   7.530   1.811  10.762
38553SOL    HW217557   7.453   1.681  10.753
38554SOL     OW17558  10.172   9.774   2.739
38554SOL    HW117559  10.163   9.681   2.761
38554SOL    HW217560  10.191   9.817   2.822
38555SOL     OW17561  12.120  10.354  12.183
38555SOL    HW117562  12.154  10.329  12.097
38555SOL    HW217563  12.189  10.408  12.221
38556SOL     OW17564   6.327  12.227  10.337
38556SOL    HW117565   6.274  12.190  10.267
38556SOL    HW217566   6.339  12.319  10.312
38557SOL     OW17567   1.304   9.072   4.075
38557SOL    HW117568   1.308   8.976   4.072
38557SOL    HW217569   1.225   9.094   4.026
38558SOL     OW17570   8.191  11.302   3.691
38558SOL    HW117571   8.119  11.340   3.641
38558SOL    HW217572   8.174  11.208   3.689
38559SOL     OW17573   0.914   0.483   0.082
38559SOL    HW117574   0.995   0.533   0.092
38559SOL    HW217575   0.884   0.468   0.172
38560SOL     OW17576  11.506  10.700   3.168
38560SOL    HW117577  11.553  10.635   3.115
38560SOL    HW217578  11.415  10.670   3.166
38561SOL     OW17579   0.430   8.839   9.699
38561SOL    HW117580   0.445   8.913   9.640
38561SOL    HW217581   0.397   8.770   9.642
38562SOL     OW17582   7.105   9.387  11.627
38562SOL    HW117583   7.049   9.312  11.645
38562SOL    HW217584   7.090   9.406  11.534
38563SOL     OW17585  13.813  12.338   9.646
38563SOL    HW117586  13.888  12.373   9.695
38563SOL    HW217587  13.741  12.396   9.669
38564SOL     OW17588   0.432   8.932   5.570
38564SOL    HW117589   0.473   8.899   5.490
38564SOL    HW217590   0.412   9.023   5.552
38565SOL     OW17591   0.395  13.862   1.273
38565SOL    HW117592   0.394  13.949   1.314
38565SOL    HW217593   0.304  13.845   1.250
38566SOL     OW17594  11.210   1.040   1.506
38566SOL    HW117595  11.146   1.086   1.560
38566SOL    HW217596  11.175   1.045   1.417
38567SOL     OW17597  13.137   2.666   1.171
38567SOL    HW117598  13.046   2.648   1.195
38567SOL    HW217599  13.169   2.724   1.239
38568SOL     OW17600   5.480   5.838  11.651
38568SOL    HW117601   5.422   5.804  11.719
38568SOL    HW217602   5.557   5.782  11.654
38569SOL     OW17603   6.586   3.468  11.537
38569SOL    HW117604   6.539   3.395  11.496
38569SOL    HW217605   6.651   3.494  11.472
38570SOL     OW17606  12.286   2.511  10.938
38570SOL    HW117607  12.218   2.561  10.894
38570SOL    HW217608  12.280   2.537  11.030
38571SOL     OW17609  13.449  14.639   4.747
38571SOL    HW117610  13.534  14.639   4.792
38571SOL    HW217611  13.439  14.549   4.716
38572SOL     OW17612  11.825   9.631   9.370
38572SOL    HW117613  11.839   9.569   9.299
38572SOL    HW217614  11.913   9.652   9.401
38573SOL     OW17615  11.580   6.567   8.674
38573SOL    HW117616  11.658   6.586   8.727
38573SOL    HW217617  11.507   6.596   8.729
38574SOL     OW17618  13.820  13.461  10.874
38574SOL    HW117619  13.803  13.511  10.794
38574SOL    HW217620  13.734  13.457  10.917
38575SOL     OW17621   1.443   2.788   7.896
38575SOL    HW117622   1.442   2.822   7.985
38575SOL    HW217623   1.355   2.805   7.862
38576SOL     OW17624   1.510   0.632   8.458
38576SOL    HW117625   1.472   0.697   8.399
38576SOL    HW217626   1.547   0.566   8.400
38577SOL     OW17627   5.940   7.183  12.783
38577SOL    HW117628   5.921   7.276  12.797
38577SOL    HW217629   6.022   7.183  12.733
38578SOL     OW17630  14.483   0.542   3.276
38578SOL    HW117631  14.404   0.550   3.330
38578SOL    HW217632  14.551   0.585   3.327
38579SOL     OW17633   4.953   9.092   9.268
38579SOL    HW117634   5.044   9.086   9.239
38579SOL    HW217635   4.935   9.187   9.270
38580SOL     OW17636   7.928   3.166   1.344
38580SOL    HW117637   7.899   3.250   1.308
38580SOL    HW217638   7.956   3.188   1.433
38581SOL     OW17639  10.964   8.478   0.393
38581SOL    HW117640  10.926   8.420   0.326
38581SOL    HW217641  10.889   8.524   0.430
38582SOL     OW17642   8.757   7.722   1.795
38582SOL    HW117643   8.801   7.662   1.735
38582SOL    HW217644   8.762   7.807   1.753
38583SOL     OW17645   6.077   9.885   4.594
38583SOL    HW117646   6.123   9.934   4.525
38583SOL    HW217647   6.148   9.846   4.646
38584SOL     OW17648   7.562   6.355   7.317
38584SOL    HW117649   7.515   6.272   7.307
38584SOL    HW217650   7.556   6.395   7.230
38585SOL     OW17651   7.624   1.854   5.971
38585SOL    HW117652   7.681   1.930   5.968
38585SOL    HW217653   7.674   1.787   6.018
38586SOL     OW17654   0.718  13.723   5.118
38586SOL    HW117655   0.717  13.747   5.025
38586SOL    HW217656   0.803  13.681   5.131
38587SOL     OW17657   6.430   6.965   5.236
38587SOL    HW117658   6.418   7.036   5.299
38587SOL    HW217659   6.518   6.978   5.202
38588SOL     OW17660   9.457   1.137   0.789
38588SOL    HW117661   9.496   1.055   0.819
38588SOL    HW217662   9.480   1.142   0.696
38589SOL     OW17663   6.730   9.938  13.796
38589SOL    HW117664   6.734   9.874  13.725
38589SOL    HW217665   6.736   9.885  13.876
38590SOL     OW17666   0.069   4.983  11.859
38590SOL    HW117667   0.105   4.902  11.897
38590SOL    HW217668   0.090   4.978  11.766
38591SOL     OW17669  14.679   6.625   2.883
38591SOL    HW117670  14.683   6.573   2.802
38591SOL    HW217671  14.634   6.568   2.945
38592SOL     OW17672   4.745  10.332  10.291
38592SOL    HW117673   4.672  10.297  10.239
38592SOL    HW217674   4.797  10.382  10.228
38593SOL     OW17675   0.734   2.246   1.875
38593SOL    HW117676   0.699   2.317   1.820
38593SOL    HW217677   0.674   2.244   1.950
38594SOL     OW17678  13.085   8.286   2.303
38594SOL    HW117679  13.122   8.373   2.295
38594SOL    HW217680  13.158   8.226   2.285
38595SOL     OW17681   3.409  12.199   4.836
38595SOL    HW117682   3.326  12.245   4.825
38595SOL    HW217683   3.436  12.175   4.748
38596SOL     OW17684   6.893   8.005   5.899
38596SOL    HW117685   6.809   7.994   5.854
38596SOL    HW217686   6.940   7.923   5.881
38597SOL     OW17687   6.219  11.129  12.400
38597SOL    HW117688   6.223  11.217  12.436
38597SOL    HW217689   6.202  11.142  12.306
38598SOL     OW17690   4.480  10.524  10.101
38598SOL    HW117691   4.559  10.555  10.055
38598SOL    HW217692   4.468  10.587  10.172
38599SOL     OW17693  10.592   1.007  13.597
38599SOL    HW117694  10.596   0.993  13.692
38599SOL    HW217695  10.674   1.051  13.576
38600SOL     OW17696  11.239  12.145   6.976
38600SOL    HW117697  11.255  12.110   6.888
38600SOL    HW217698  11.274  12.234   6.974
38601SOL     OW17699   6.472   9.619   1.339
38601SOL    HW117700   6.420   9.542   1.365
38601SOL    HW217701   6.486   9.667   1.421
38602SOL     OW17702   8.723   2.838  10.784
38602SOL    HW117703   8.803   2.810  10.739
38602SOL    HW217704   8.667   2.760  10.784
38603SOL     OW17705   4.213  13.974  12.514
38603SOL    HW117706   4.176  14.060  12.535
38603SOL    HW217707   4.307  13.987  12.518
38604SOL     OW17708  10.294  12.673   2.772
38604SOL    HW117709  10.252  12.693   2.688
38604SOL    HW217710  10.386  12.695   2.758
38605SOL     OW17711   0.409   3.718   0.773
38605SOL    HW117712   0.330   3.680   0.812
38605SOL    HW217713   0.395   3.710   0.679
38606SOL     OW17714   8.683   2.377  10.307
38606SOL    HW117715   8.753   2.410  10.251
38606SOL    HW217716   8.717   2.294  10.340
38607SOL     OW17717  13.244  11.189   1.162
38607SOL    HW117718  13.209  11.253   1.101
38607SOL    HW217719  13.316  11.234   1.206
38608SOL     OW17720  13.459  11.474   3.347
38608SOL    HW117721  13.408  11.448   3.424
38608SOL    HW217722  13.523  11.403   3.336
38609SOL     OW17723  12.135   7.280   6.137
38609SOL    HW117724  12.060   7.246   6.087
38609SOL    HW217725  12.161   7.358   6.089
38610SOL     OW17726  10.442  12.659  11.534
38610SOL    HW117727  10.489  12.665  11.451
38610SOL    HW217728  10.497  12.604  11.589
38611SOL     OW17729  14.222   7.004   6.331
38611SOL    HW117730  14.149   6.943   6.339
38611SOL    HW217731  14.221   7.053   6.413
38612SOL     OW17732   9.770  11.553   2.472
38612SOL    HW117733   9.779  11.647   2.453
38612SOL    HW217734   9.686  11.546   2.518
38613SOL     OW17735   6.103   6.098  10.242
38613SOL    HW117736   6.127   6.086  10.150
38613SOL    HW217737   6.012   6.128  10.240
38614SOL     OW17738   6.121  14.109  11.215
38614SOL    HW117739   6.082  14.179  11.268
38614SOL    HW217740   6.113  14.140  11.125
38615SOL     OW17741  13.857   0.746  10.267
38615SOL    HW117742  13.784   0.738  10.329
38615SOL    HW217743  13.887   0.836  10.276
38616SOL     OW17744  12.356   3.900  10.325
38616SOL    HW117745  12.264   3.875  10.313
38616SOL    HW217746  12.387   3.921  10.237
38617SOL     OW17747   5.488   2.398  11.466
38617SOL    HW117748   5.402   2.430  11.439
38617SOL    HW217749   5.547   2.428  11.397
38618SOL     OW17750   5.690  14.393   3.205
38618SOL    HW117751   5.637  14.424   3.132
38618SOL    HW217752   5.752  14.331   3.166
38619SOL     OW17753   7.188  11.787   4.810
38619SOL    HW117754   7.193  11.882   4.804
38619SOL    HW217755   7.200  11.767   4.903
38620SOL     OW17756  11.809   2.763   0.485
38620SOL    HW117757  11.855   2.728   0.409
38620SOL    HW217758  11.745   2.696   0.508
38621SOL     OW17759   5.704   5.642  10.057
38621SOL    HW117760   5.740   5.580  10.120
38621SOL    HW217761   5.732   5.728  10.090
38622SOL     OW17762  10.835   3.756   0.522
38622SOL    HW117763  10.850   3.673   0.477
38622SOL    HW217764  10.914   3.769   0.575
38623SOL     OW17765  13.668   5.477   9.004
38623SOL    HW117766  13.618   5.395   9.006
38623SOL    HW217767  13.748   5.456   8.956
38624SOL     OW17768   7.681  10.563   0.146
38624SOL    HW117769   7.664  10.656   0.130
38624SOL    HW217770   7.608  10.519   0.103
38625SOL     OW17771   0.557   9.546   0.759
38625SOL    HW117772   0.624   9.504   0.704
38625SOL    HW217773   0.537   9.627   0.713
38626SOL     OW17774  13.002   7.907  12.465
38626SOL    HW117775  13.058   7.983  12.449
38626SOL    HW217776  13.036   7.840  12.406
38627SOL     OW17777   1.059   2.924   9.446
38627SOL    HW117778   1.043   2.852   9.385
38627SOL    HW217779   1.148   2.909   9.478
38628SOL     OW17780   4.680   0.577   1.016
38628SOL    HW117781   4.666   0.667   0.985
38628SOL    HW217782   4.740   0.586   1.090
38629SOL     OW17783   8.492  13.243  13.544
38629SOL    HW117784   8.486  13.152  13.573
38629SOL    HW217785   8.461  13.295  13.618
38630SOL     OW17786  14.650  13.221   8.818
38630SOL    HW117787  14.625  13.263   8.901
38630SOL    HW217788  14.693  13.291   8.768
38631SOL     OW17789   9.552  14.447   7.186
38631SOL    HW117790   9.612  14.519   7.167
38631SOL    HW217791   9.468  14.477   7.152
38632SOL     OW17792   3.880  12.452   6.310
38632SOL    HW117793   3.826  12.527   6.333
38632SOL    HW217794   3.842  12.379   6.359
38633SOL     OW17795   7.992   2.695   8.091
38633SOL    HW117796   7.961   2.635   8.159
38633SOL    HW217797   8.070   2.736   8.129
38634SOL     OW17798   2.995   7.939   1.291
38634SOL    HW117799   2.910   7.941   1.337
38634SOL    HW217800   3.035   7.856   1.319
38635SOL     OW17801   8.878   1.562   4.629
38635SOL    HW117802   8.950   1.601   4.678
38635SOL    HW217803   8.874   1.611   4.547
38636SOL     OW17804   8.375   6.235  11.250
38636SOL    HW117805   8.401   6.145  11.231
38636SOL    HW217806   8.449   6.288  11.218
38637SOL     OW17807   7.359   8.411   1.002
38637SOL    HW117808   7.408   8.334   1.032
38637SOL    HW217809   7.309   8.380   0.926
38638SOL     OW17810  12.800   8.638   5.563
38638SOL    HW117811  12.866   8.606   5.502
38638SOL    HW217812  12.736   8.684   5.508
38639SOL     OW17813  12.898   3.695   1.385
38639SOL    HW117814  12.807   3.700   1.356
38639SOL    HW217815  12.918   3.783   1.416
38640SOL     OW17816  11.803   3.831   5.436
38640SOL    HW117817  11.723   3.856   5.389
38640SOL    HW217818  11.799   3.881   5.518
38641SOL     OW17819   1.996   9.425  10.013
38641SOL    HW117820   2.078   9.430  10.062
38641SOL    HW217821   2.021   9.446   9.923
38642SOL     OW17822   4.663   8.728   3.746
38642SOL    HW117823   4.624   8.801   3.794
38642SOL    HW217824   4.592   8.665   3.734
38643SOL     OW17825   2.388   0.926  12.469
38643SOL    HW117826   2.311   0.929  12.525
38643SOL    HW217827   2.353   0.931  12.380
38644SOL     OW17828   5.037   2.737   1.109
38644SOL    HW117829   5.083   2.655   1.090
38644SOL    HW217830   4.946   2.712   1.120
38645SOL     OW17831   9.780  14.758   0.614
38645SOL    HW117832   9.735  14.841   0.602
38645SOL    HW217833   9.712  14.698   0.644
38646SOL     OW17834  10.719   2.043   5.676
38646SOL    HW117835  10.773   2.117   5.705
38646SOL    HW217836  10.673   2.015   5.755
38647SOL     OW17837  13.195  11.806   6.803
38647SOL    HW117838  13.156  11.880   6.850
38647SOL    HW217839  13.138  11.793   6.727
38648SOL     OW17840  12.007   0.684   3.512
38648SOL    HW117841  12.062   0.659   3.438
38648SOL    HW217842  12.056   0.754   3.556
38649SOL     OW17843  13.524   2.395  12.479
38649SOL    HW117844  13.476   2.316  12.504
38649SOL    HW217845  13.560   2.429  12.561
38650SOL     OW17846   9.867   7.075   0.041
38650SOL    HW117847   9.944   7.047  14.863
38650SOL    HW217848   9.850   7.164   0.011
38651SOL     OW17849   0.677   2.463   9.554
38651SOL    HW117850   0.756   2.506   9.523
38651SOL    HW217851   0.661   2.503   9.640
38652SOL     OW17852   8.117   1.814  12.105
38652SOL    HW117853   8.208   1.794  12.083
38652SOL    HW217854   8.072   1.819  12.021
38653SOL     OW17855   6.368   1.636   5.428
38653SOL    HW117856   6.459   1.648   5.457
38653SOL    HW217857   6.361   1.688   5.348
38654SOL     OW17858   5.185   9.248   6.145
38654SOL    HW117859   5.173   9.174   6.086
38654SOL    HW217860   5.159   9.214   6.231
38655SOL     OW17861   2.185   8.941   9.733
38655SOL    HW117862   2.186   8.936   9.829
38655SOL    HW217863   2.255   9.002   9.712
38656SOL     OW17864   5.239  12.464   2.818
38656SOL    HW117865   5.304  12.445   2.750
38656SOL    HW217866   5.273  12.541   2.863
38657SOL     OW17867   5.235  11.940   6.961
38657SOL    HW117868   5.155  11.983   6.992
38657SOL    HW217869   5.217  11.918   6.870
38658SOL     OW17870   9.213   2.198   1.699
38658SOL    HW117871   9.245   2.116   1.662
38658SOL    HW217872   9.259   2.267   1.649
38659SOL     OW17873   1.240   0.529   9.516
38659SOL    HW117874   1.266   0.498   9.603
38659SOL    HW217875   1.286   0.471   9.455
38660SOL     OW17876   9.183  10.442   8.860
38660SOL    HW117877   9.101  10.467   8.817
38660SOL    HW217878   9.205  10.357   8.823
38661SOL     OW17879   4.793   4.872  10.301
38661SOL    HW117880   4.882   4.842  10.322
38661SOL    HW217881   4.737   4.797  10.323
38662SOL     OW17882  12.964   1.877   2.180
38662SOL    HW117883  12.976   1.790   2.217
38662SOL    HW217884  12.874   1.876   2.146
38663SOL     OW17885   0.473   5.178   6.984
38663SOL    HW117886   0.532   5.167   7.059
38663SOL    HW217887   0.471   5.092   6.942
38664SOL     OW17888  13.343  10.643   1.363
38664SOL    HW117889  13.399  10.578   1.405
38664SOL    HW217890  13.375  10.649   1.274
38665SOL     OW17891   9.235   0.413  13.254
38665SOL    HW117892   9.145   0.386  13.270
38665SOL    HW217893   9.230   0.471  13.178
38666SOL     OW17894   3.742   6.402   0.556
38666SOL    HW117895   3.834   6.375   0.553
38666SOL    HW217896   3.743   6.495   0.533
38667SOL     OW17897   8.762  13.116  10.582
38667SOL    HW117898   8.691  13.053  10.567
38667SOL    HW217899   8.759  13.174  10.506
38668SOL     OW17900  14.551   6.237  10.365
38668SOL    HW117901  14.499   6.284  10.299
38668SOL    HW217902  14.617   6.301  10.392
38669SOL     OW17903   3.595   9.437   6.568
38669SOL    HW117904   3.600   9.498   6.641
38669SOL    HW217905   3.527   9.374   6.593
38670SOL     OW17906   8.807  12.093  11.176
38670SOL    HW117907   8.783  12.092  11.268
38670SOL    HW217908   8.839  12.181  11.160
38671SOL     OW17909   9.992   6.135  11.799
38671SOL    HW117910   9.901   6.159  11.786
38671SOL    HW217911   9.988   6.054  11.850
38672SOL     OW17912   8.191  14.230  12.172
38672SOL    HW117913   8.241  14.246  12.093
38672SOL    HW217914   8.239  14.275  12.241
38673SOL     OW17915  12.365  14.220   3.191
38673SOL    HW117916  12.274  14.213   3.219
38673SOL    HW217917  12.400  14.131   3.200
38674SOL     OW17918   2.068   8.386   2.727
38674SOL    HW117919   2.164   8.382   2.732
38674SOL    HW217920   2.040   8.295   2.733
38675SOL     OW17921   1.196   6.416  10.983
38675SOL    HW117922   1.222   6.329  11.013
38675SOL    HW217923   1.163   6.460  11.061
38676SOL     OW17924   1.624   0.683   8.987
38676SOL    HW117925   1.704   0.731   9.009
38676SOL    HW217926   1.620   0.686   8.891
38677SOL     OW17927  12.881  10.951   7.251
38677SOL    HW117928  12.917  10.888   7.314
38677SOL    HW217929  12.870  11.032   7.302
38678SOL     OW17930   1.237   5.328  13.156
38678SOL    HW117931   1.154   5.308  13.112
38678SOL    HW217932   1.227   5.293  13.244
38679SOL     OW17933  14.014  13.602   3.326
38679SOL    HW117934  14.019  13.518   3.372
38679SOL    HW217935  14.077  13.658   3.372
38680SOL     OW17936   9.046   6.205   1.581
38680SOL    HW117937   8.983   6.186   1.650
38680SOL    HW217938   9.058   6.122   1.535
38681SOL     OW17939   3.040  13.504  10.511
38681SOL    HW117940   3.103  13.465  10.572
38681SOL    HW217941   2.956  13.501  10.558
38682SOL     OW17942   0.379   6.982   1.319
38682SOL    HW117943   0.328   6.919   1.370
38682SOL    HW217944   0.351   6.969   1.229
38683SOL     OW17945   1.441   3.590   6.843
38683SOL    HW117946   1.407   3.606   6.755
38683SOL    HW217947   1.451   3.677   6.882
38684SOL     OW17948  13.129   5.738   2.920
38684SOL    HW117949  13.192   5.809   2.919
38684SOL    HW217950  13.049   5.775   2.883
38685SOL     OW17951  10.348  14.254  10.280
38685SOL    HW117952  10.315  14.344  10.285
38685SOL    HW217953  10.340  14.230  10.188
38686SOL     OW17954  12.744  13.996   8.587
38686SOL    HW117955  12.682  14.067   8.602
38686SOL    HW217956  12.746  13.985   8.492
38687SOL     OW17957  10.839   8.950   8.328
38687SOL    HW117958  10.751   8.927   8.359
38687SOL    HW217959  10.885   8.980   8.406
38688SOL     OW17960  13.997  12.950   1.560
38688SOL    HW117961  14.052  12.886   1.605
38688SOL    HW217962  13.922  12.961   1.618
38689SOL     OW17963  13.476   9.984  12.610
38689SOL    HW117964  13.564   9.955  12.587
38689SOL    HW217965  13.462   9.952  12.699
38690SOL     OW17966  10.128   6.932   5.232
38690SOL    HW117967  10.157   6.860   5.288
38690SOL    HW217968  10.209   6.965   5.191
38691SOL     OW17969   1.573  14.413   3.405
38691SOL    HW117970   1.621  14.465   3.341
38691SOL    HW217971   1.605  14.324   3.393
38692SOL     OW17972   1.883   5.347   1.336
38692SOL    HW117973   1.907   5.326   1.426
38692SOL    HW217974   1.818   5.417   1.345
38693SOL     OW17975  11.338   4.501   7.264
38693SOL    HW117976  11.398   4.459   7.325
38693SOL    HW217977  11.374   4.588   7.249
38694SOL     OW17978   7.564   5.285   9.406
38694SOL    HW117979   7.501   5.269   9.336
38694SOL    HW217980   7.625   5.349   9.370
38695SOL     OW17981   9.778   2.813  10.444
38695SOL    HW117982   9.819   2.858  10.370
38695SOL    HW217983   9.684   2.823  10.429
38696SOL     OW17984  14.702   8.943  12.414
38696SOL    HW117985  14.698   9.020  12.470
38696SOL    HW217986  14.622   8.947  12.362
38697SOL     OW17987  13.404  10.737   7.385
38697SOL    HW117988  13.383  10.768   7.473
38697SOL    HW217989  13.383  10.644   7.386
38698SOL     OW17990   1.533  11.742   5.919
38698SOL    HW117991   1.443  11.725   5.889
38698SOL    HW217992   1.522  11.791   6.001
38699SOL     OW17993  12.476   2.746   4.350
38699SOL    HW117994  12.449   2.759   4.441
38699SOL    HW217995  12.568   2.774   4.349
38700SOL     OW17996   8.002  13.701   1.855
38700SOL    HW117997   7.987  13.651   1.775
38700SOL    HW217998   8.096  13.696   1.869
38701SOL     OW17999  13.881   7.446   0.329
38701SOL    HW118000  13.854   7.531   0.363
38701SOL    HW218001  13.925   7.466   0.247
38702SOL     OW18002  11.625   2.594   9.863
38702SOL    HW118003  11.707   2.584   9.816
38702SOL    HW218004  11.646   2.651   9.937
38703SOL     OW18005   1.885   8.475   8.690
38703SOL    HW118006   1.972   8.458   8.727
38703SOL    HW218007   1.893   8.455   8.597
38704SOL     OW18008   5.878   1.876   9.960
38704SOL    HW118009   5.859   1.966   9.932
38704SOL    HW218010   5.966   1.859   9.926
38705SOL     OW18011   9.266   1.170   7.893
38705SOL    HW118012   9.361   1.178   7.892
38705SOL    HW218013   9.234   1.259   7.909
38706SOL     OW18014   4.191  12.526   3.977
38706SOL    HW118015   4.141  12.585   4.034
38706SOL    HW218016   4.187  12.441   4.022
38707SOL     OW18017  10.754  11.036   7.006
38707SOL    HW118018  10.781  10.951   7.042
38707SOL    HW218019  10.802  11.100   7.059
38708SOL     OW18020  10.434   9.814   6.997
38708SOL    HW118021  10.394   9.820   7.084
38708SOL    HW218022  10.426   9.722   6.974
38709SOL     OW18023   3.980   2.712   0.214
38709SOL    HW118024   3.925   2.685   0.288
38709SOL    HW218025   4.069   2.692   0.242
38710SOL     OW18026   0.525   5.032  11.511
38710SOL    HW118027   0.542   4.938  11.505
38710SOL    HW218028   0.602   5.068  11.554
38711SOL     OW18029   0.205  14.527  10.686
38711SOL    HW118030   0.215  14.613  10.645
38711SOL    HW218031   0.114  14.502  10.668
38712SOL     OW18032   8.996   8.033   5.844
38712SOL    HW118033   8.909   8.051   5.878
38712SOL    HW218034   8.980   7.987   5.761
38713SOL     OW18035   6.597   8.113   3.069
38713SOL    HW118036   6.529   8.161   3.022
38713SOL    HW218037   6.614   8.036   3.015
38714SOL     OW18038   9.143   1.471   2.138
38714SOL    HW118039   9.187   1.485   2.054
38714SOL    HW218040   9.109   1.557   2.162
38715SOL     OW18041   6.705   1.608   5.238
38715SOL    HW118042   6.696   1.536   5.176
38715SOL    HW218043   6.789   1.593   5.280
38716SOL     OW18044   5.219  13.342   1.261
38716SOL    HW118045   5.139  13.316   1.306
38716SOL    HW218046   5.289  13.304   1.314
38717SOL     OW18047   9.093   6.543   8.536
38717SOL    HW118048   9.104   6.501   8.622
38717SOL    HW218049   9.169   6.513   8.485
38718SOL     OW18050   9.935   2.516  14.836
38718SOL    HW118051   9.999   2.508  14.765
38718SOL    HW218052   9.869   2.449  14.816
38719SOL     OW18053  11.286  14.569   6.564
38719SOL    HW118054  11.192  14.584   6.576
38719SOL    HW218055  11.292  14.514   6.486
38720SOL     OW18056   5.790  13.544   0.145
38720SOL    HW118057   5.835  13.555   0.228
38720SOL    HW218058   5.697  13.554   0.167
38721SOL     OW18059   0.881   2.789   7.290
38721SOL    HW118060   0.906   2.768   7.200
38721SOL    HW218061   0.819   2.720   7.314
38722SOL     OW18062  12.909  13.595  11.289
38722SOL    HW118063  12.954  13.551  11.361
38722SOL    HW218064  12.863  13.667  11.330
38723SOL     OW18065  14.078  11.964   0.581
38723SOL    HW118066  14.031  12.039   0.617
38723SOL    HW218067  14.046  11.956   0.491
38724SOL     OW18068  13.885  11.586   2.641
38724SOL    HW118069  13.829  11.581   2.564
38724SOL    HW218070  13.848  11.656   2.694
38725SOL     OW18071  10.317  14.607   8.487
38725SOL    HW118072  10.291  14.517   8.504
38725SOL    HW218073  10.254  14.639   8.422
38726SOL     OW18074   5.363   1.749   3.459
38726SOL    HW118075   5.327   1.798   3.385
38726SOL    HW218076   5.321   1.663   3.454
38727SOL     OW18077   9.838   3.549  10.164
38727SOL    HW118078   9.840   3.454  10.175
38727SOL    HW218079   9.780   3.564  10.089
38728SOL     OW18080  14.213   3.956  13.982
38728SOL    HW118081  14.165   3.878  14.010
38728SOL    HW218082  14.146   4.023  13.972
38729SOL     OW18083   1.000   2.593   5.548
38729SOL    HW118084   1.079   2.636   5.581
38729SOL    HW218085   1.031   2.530   5.484
38730SOL     OW18086   0.965   6.036   6.886
38730SOL    HW118087   0.966   6.004   6.976
38730SOL    HW218088   1.051   6.012   6.850
38731SOL     OW18089  12.236   0.681  13.849
38731SOL    HW118090  12.192   0.766  13.840
38731SOL    HW218091  12.166   0.617  13.836
38732SOL     OW18092   1.433   7.428   9.186
38732SOL    HW118093   1.468   7.345   9.153
38732SOL    HW218094   1.439   7.488   9.111
38733SOL     OW18095   5.343   2.507   6.530
38733SOL    HW118096   5.406   2.439   6.555
38733SOL    HW218097   5.397   2.581   6.502
38734SOL     OW18098  14.190  10.769  12.995
38734SOL    HW118099  14.206  10.815  12.912
38734SOL    HW218100  14.140  10.692  12.969
38735SOL     OW18101   7.295   5.080  10.243
38735SOL    HW118102   7.319   5.080  10.336
38735SOL    HW218103   7.206   5.117  10.242
38736SOL     OW18104  13.120   9.307   3.674
38736SOL    HW118105  13.045   9.354   3.637
38736SOL    HW218106  13.193   9.369   3.668
38737SOL     OW18107   8.921  13.559   6.374
38737SOL    HW118108   8.883  13.510   6.448
38737SOL    HW218109   8.858  13.547   6.303
38738SOL     OW18110  10.147   2.502   5.531
38738SOL    HW118111  10.198   2.422   5.521
38738SOL    HW218112  10.059   2.479   5.501
38739SOL     OW18113   3.427   4.036   1.693
38739SOL    HW118114   3.416   4.129   1.671
38739SOL    HW218115   3.497   4.035   1.758
38740SOL     OW18116  12.417   1.997  12.768
38740SOL    HW118117  12.499   1.970  12.726
38740SOL    HW218118  12.360   2.022  12.696
38741SOL     OW18119   2.897   6.255   7.731
38741SOL    HW118120   2.833   6.267   7.660
38741SOL    HW218121   2.970   6.210   7.690
38742SOL     OW18122   8.303   5.363   6.658
38742SOL    HW118123   8.324   5.428   6.591
38742SOL    HW218124   8.388   5.326   6.682
38743SOL     OW18125   8.673   1.623   6.195
38743SOL    HW118126   8.684   1.635   6.289
38743SOL    HW218127   8.753   1.659   6.157
38744SOL     OW18128   2.927  13.944  12.120
38744SOL    HW118129   3.003  13.891  12.095
38744SOL    HW218130   2.851  13.890  12.098
38745SOL     OW18131  10.246   1.490   3.563
38745SOL    HW118132  10.329   1.515   3.523
38745SOL    HW218133  10.229   1.402   3.529
38746SOL     OW18134   2.456   9.812   4.969
38746SOL    HW118135   2.497   9.895   4.947
38746SOL    HW218136   2.460   9.761   4.888
38747SOL     OW18137   7.554  14.243   6.458
38747SOL    HW118138   7.634  14.272   6.415
38747SOL    HW218139   7.484  14.291   6.413
38748SOL     OW18140   9.653   2.436  13.045
38748SOL    HW118141   9.626   2.524  13.018
38748SOL    HW218142   9.592   2.377  13.000
38749SOL     OW18143   3.147   2.682  10.050
38749SOL    HW118144   3.080   2.705   9.985
38749SOL    HW218145   3.114   2.602  10.091
38750SOL     OW18146  14.528   3.401  11.539
38750SOL    HW118147  14.464   3.472  11.544
38750SOL    HW218148  14.507   3.355  11.458
38751SOL     OW18149  12.312   2.924  13.745
38751SOL    HW118150  12.294   3.010  13.784
38751SOL    HW218151  12.363   2.945  13.666
38752SOL     OW18152  11.166   7.553   9.544
38752SOL    HW118153  11.239   7.611   9.567
38752SOL    HW218154  11.150   7.569   9.452
38753SOL     OW18155  10.155   3.311  12.112
38753SOL    HW118156  10.112   3.283  12.193
38753SOL    HW218157  10.240   3.267  12.112
38754SOL     OW18158   1.886   0.553   8.253
38754SOL    HW118159   1.796   0.535   8.281
38754SOL    HW218160   1.910   0.634   8.298
38755SOL     OW18161  11.182   3.837   7.926
38755SOL    HW118162  11.272   3.808   7.943
38755SOL    HW218163  11.171   3.914   7.982
38756SOL     OW18164   0.041   3.939  11.505
38756SOL    HW118165   0.000   3.887  11.574
38756SOL    HW218166   0.133   3.912  11.506
38757SOL     OW18167   2.767   9.709  10.112
38757SOL    HW118168   2.805   9.621  10.106
38757SOL    HW218169   2.675   9.697  10.088
38758SOL     OW18170   1.641   0.435  13.606
38758SOL    HW118171   1.552   0.461  13.581
38758SOL    HW218172   1.676   0.512  13.652
38759SOL     OW18173   6.763   0.857  14.520
38759SOL    HW118174   6.848   0.888  14.553
38759SOL    HW218175   6.716   0.829  14.598
38760SOL     OW18176   8.652   0.558  14.297
38760SOL    HW118177   8.563   0.524  14.299
38760SOL    HW218178   8.654   0.617  14.222
38761SOL     OW18179  12.853  13.583   2.789
38761SOL    HW118180  12.849  13.675   2.765
38761SOL    HW218181  12.916  13.579   2.862
38762SOL     OW18182  12.565   6.060   8.498
38762SOL    HW118183  12.585   6.154   8.493
38762SOL    HW218184  12.485   6.050   8.446
38763SOL     OW18185   8.634   4.511   2.971
38763SOL    HW118186   8.693   4.549   3.036
38763SOL    HW218187   8.616   4.582   2.910
38764SOL     OW18188   6.162   3.464   0.730
38764SOL    HW118189   6.113   3.437   0.808
38764SOL    HW218190   6.125   3.412   0.659
38765SOL     OW18191  13.153  14.732   8.926
38765SOL    HW118192  13.168  14.819   8.888
38765SOL    HW218193  13.067  14.739   8.968
38766SOL     OW18194   1.228  11.951   7.329
38766SOL    HW118195   1.298  11.908   7.378
38766SOL    HW218196   1.273  12.005   7.264
38767SOL     OW18197   9.099   8.880   7.319
38767SOL    HW118198   9.169   8.918   7.265
38767SOL    HW218199   9.138   8.802   7.357
38768SOL     OW18200   8.585  14.610   1.042
38768SOL    HW118201   8.553  14.696   1.015
38768SOL    HW218202   8.544  14.593   1.126
38769SOL     OW18203   1.611   4.519   8.202
38769SOL    HW118204   1.646   4.502   8.289
38769SOL    HW218205   1.535   4.461   8.195
38770SOL     OW18206  10.486   3.482   6.870
38770SOL    HW118207  10.481   3.425   6.793
38770SOL    HW218208  10.397   3.518   6.879
38771SOL     OW18209   4.544  12.092   9.731
38771SOL    HW118210   4.572  12.145   9.806
38771SOL    HW218211   4.614  12.028   9.719
38772SOL     OW18212   4.865   5.095   7.817
38772SOL    HW118213   4.818   5.012   7.811
38772SOL    HW218214   4.917   5.099   7.737
38773SOL     OW18215  14.033   7.115   1.606
38773SOL    HW118216  14.100   7.047   1.610
38773SOL    HW218217  13.994   7.105   1.519
38774SOL     OW18218  13.558  13.759  13.409
38774SOL    HW118219  13.607  13.741  13.329
38774SOL    HW218220  13.602  13.835  13.448
38775SOL     OW18221  12.290  14.156  12.912
38775SOL    HW118222  12.287  14.251  12.922
38775SOL    HW218223  12.330  14.124  12.993
38776SOL     OW18224   9.443  12.298   8.293
38776SOL    HW118225   9.495  12.352   8.352
38776SOL    HW218226   9.465  12.208   8.317
38777SOL     OW18227   9.397   4.285  11.343
38777SOL    HW118228   9.408   4.321  11.432
38777SOL    HW218229   9.486   4.262  11.316
38778SOL     OW18230   0.710   3.062  14.403
38778SOL    HW118231   0.711   2.967  14.403
38778SOL    HW218232   0.628   3.086  14.359
38779SOL     OW18233  11.362   3.337   2.039
38779SOL    HW118234  11.446   3.292   2.041
38779SOL    HW218235  11.299   3.272   2.070
38780SOL     OW18236  10.952  12.591   6.827
38780SOL    HW118237  10.878  12.623   6.880
38780SOL    HW218238  10.954  12.497   6.844
38781SOL     OW18239  12.392   4.581   7.477
38781SOL    HW118240  12.446   4.576   7.399
38781SOL    HW218241  12.335   4.657   7.463
38782SOL     OW18242  13.410  11.398  12.284
38782SOL    HW118243  13.327  11.353  12.267
38782SOL    HW218244  13.456  11.340  12.344
38783SOL     OW18245   7.511  12.329   2.427
38783SOL    HW118246   7.486  12.240   2.451
38783SOL    HW218247   7.603  12.337   2.453
38784SOL     OW18248   9.881  14.192  14.532
38784SOL    HW118249   9.841  14.178  14.446
38784SOL    HW218250   9.899  14.104  14.565
38785SOL     OW18251   8.786   4.258   3.509
38785SOL    HW118252   8.867   4.229   3.551
38785SOL    HW218253   8.723   4.188   3.527
38786SOL     OW18254   6.029   2.572   5.202
38786SOL    HW118255   5.990   2.641   5.255
38786SOL    HW218256   5.973   2.496   5.216
38787SOL     OW18257   2.609   1.163   4.435
38787SOL    HW118258   2.553   1.220   4.488
38787SOL    HW218259   2.659   1.223   4.380
38788SOL     OW18260  13.907  10.008  13.072
38788SOL    HW118261  13.923  10.095  13.035
38788SOL    HW218262  13.931  10.017  13.165
38789SOL     OW18263  10.078   3.935   1.669
38789SOL    HW118264  10.047   3.907   1.583
38789SOL    HW218265  10.080   4.030   1.665
38790SOL     OW18266  10.939   5.496   3.869
38790SOL    HW118267  10.919   5.542   3.787
38790SOL    HW218268  11.002   5.552   3.913
38791SOL     OW18269   1.440   6.691  11.158
38791SOL    HW118270   1.465   6.689  11.250
38791SOL    HW218271   1.345   6.702  11.160
38792SOL     OW18272   4.440   2.558  14.737
38792SOL    HW118273   4.417   2.600  14.820
38792SOL    HW218274   4.516   2.607  14.705
38793SOL     OW18275  13.463   5.133   8.658
38793SOL    HW118276  13.396   5.200   8.644
38793SOL    HW218277  13.436   5.059   8.604
38794SOL     OW18278   2.544   0.011   1.263
38794SOL    HW118279   2.589  14.861   1.345
38794SOL    HW218280   2.504   0.096   1.279
38795SOL     OW18281   0.257  14.418   6.983
38795SOL    HW118282   0.308  14.470   7.045
38795SOL    HW218283   0.322  14.376   6.927
38796SOL     OW18284  12.756   0.834   2.438
38796SOL    HW118285  12.691   0.826   2.508
38796SOL    HW218286  12.746   0.753   2.387
38797SOL     OW18287   3.531   4.674   5.703
38797SOL    HW118288   3.575   4.688   5.619
38797SOL    HW218289   3.601   4.649   5.763
38798SOL     OW18290  14.649   1.206  12.532
38798SOL    HW118291  14.637   1.260  12.610
38798SOL    HW218292  14.695   1.264  12.470
38799SOL     OW18293   0.827   8.578   0.343
38799SOL    HW118294   0.769   8.502   0.346
38799SOL    HW218295   0.889   8.562   0.414
38800SOL     OW18296  12.183   5.409  12.762
38800SOL    HW118297  12.153   5.321  12.738
38800SOL    HW218298  12.205   5.450  12.678
38801SOL     OW18299  14.267  11.366  11.688
38801SOL    HW118300  14.269  11.413  11.604
38801SOL    HW218301  14.294  11.277  11.665
38802SOL     OW18302  14.574   2.590   8.214
38802SOL    HW118303  14.534   2.673   8.188
38802SOL    HW218304  14.573   2.537   8.134
38803SOL     OW18305  14.394   2.426   4.334
38803SOL    HW118306  14.457   2.498   4.335
38803SOL    HW218307  14.442   2.351   4.370
38804SOL     OW18308   3.801   6.656   2.893
38804SOL    HW118309   3.843   6.677   2.810
38804SOL    HW218310   3.805   6.737   2.943
38805SOL     OW18311  13.742  11.268   8.923
38805SOL    HW118312  13.775  11.330   8.989
38805SOL    HW218313  13.814  11.259   8.861
38806SOL     OW18314   1.384   1.165   0.041
38806SOL    HW118315   1.462   1.121   0.006
38806SOL    HW218316   1.311   1.119  14.871
38807SOL     OW18317   4.275   9.926   1.577
38807SOL    HW118318   4.239  10.012   1.599
38807SOL    HW218319   4.200   9.875   1.548
38808SOL     OW18320  13.455   1.657  14.484
38808SOL    HW118321  13.379   1.677  14.430
38808SOL    HW218322  13.526   1.710  14.446
38809SOL     OW18323   0.524   6.257   7.756
38809SOL    HW118324   0.588   6.202   7.800
38809SOL    HW218325   0.573   6.302   7.688
38810SOL     OW18326   7.711  14.155   7.963
38810SOL    HW118327   7.732  14.203   7.883
38810SOL    HW218328   7.634  14.102   7.940
38811SOL     OW18329   3.698   2.281  14.747
38811SOL    HW118330   3.745   2.362  14.725
38811SOL    HW218331   3.734   2.216  14.688
38812SOL     OW18332   7.975  13.704   0.282
38812SOL    HW118333   7.890  13.670   0.308
38812SOL    HW218334   8.002  13.760   0.355
38813SOL     OW18335   6.376  10.794   8.387
38813SOL    HW118336   6.351  10.749   8.468
38813SOL    HW218337   6.331  10.878   8.392
38814SOL     OW18338   5.236  12.587  10.259
38814SOL    HW118339   5.231  12.501  10.301
38814SOL    HW218340   5.326  12.593  10.227
38815SOL     OW18341   9.100   9.808   4.455
38815SOL    HW118342   9.175   9.828   4.512
38815SOL    HW218343   9.034   9.874   4.478
38816SOL     OW18344   7.478   2.964  11.722
38816SOL    HW118345   7.410   3.001  11.778
38816SOL    HW218346   7.430   2.927  11.648
38817SOL     OW18347  13.774   5.149   4.242
38817SOL    HW118348  13.858   5.182   4.211
38817SOL    HW218349  13.717   5.226   4.244
38818SOL     OW18350   7.694   7.880  13.668
38818SOL    HW118351   7.762   7.870  13.602
38818SOL    HW218352   7.636   7.947  13.633
38819SOL     OW18353  12.000   1.869   2.685
38819SOL    HW118354  12.026   1.889   2.775
38819SOL    HW218355  11.909   1.842   2.692
38820SOL     OW18356   9.382  11.701   7.815
38820SOL    HW118357   9.421  11.624   7.774
38820SOL    HW218358   9.443  11.772   7.795
38821SOL     OW18359   2.093   7.750  13.178
38821SOL    HW118360   2.089   7.832  13.227
38821SOL    HW218361   2.160   7.699  13.223
38822SOL     OW18362   1.332   4.902   2.957
38822SOL    HW118363   1.342   4.996   2.968
38822SOL    HW218364   1.269   4.892   2.886
38823SOL     OW18365  11.780   8.291   0.471
38823SOL    HW118366  11.731   8.303   0.389
38823SOL    HW218367  11.733   8.346   0.534
38824SOL     OW18368   3.679   2.704  14.023
38824SOL    HW118369   3.744   2.773  14.039
38824SOL    HW218370   3.597   2.740  14.057
38825SOL     OW18371  13.832  10.520   8.040
38825SOL    HW118372  13.835  10.602   7.990
38825SOL    HW218373  13.835  10.451   7.973
38826SOL     OW18374   5.589   1.299  14.726
38826SOL    HW118375   5.590   1.383  14.682
38826SOL    HW218376   5.678   1.288  14.760
38827SOL     OW18377   3.651   1.790   1.905
38827SOL    HW118378   3.622   1.734   1.833
38827SOL    HW218379   3.745   1.799   1.893
38828SOL     OW18380   3.494   4.410   5.648
38828SOL    HW118381   3.570   4.379   5.697
38828SOL    HW218382   3.494   4.505   5.661
38829SOL     OW18383   7.527   0.418   0.684
38829SOL    HW118384   7.472   0.342   0.666
38829SOL    HW218385   7.560   0.403   0.772
38830SOL     OW18386  12.593   2.567   7.899
38830SOL    HW118387  12.625   2.648   7.861
38830SOL    HW218388  12.554   2.520   7.825
38831SOL     OW18389   7.315   1.057  14.670
38831SOL    HW118390   7.327   1.141  14.716
38831SOL    HW218391   7.237   1.019  14.710
38832SOL     OW18392  12.564  14.045   9.774
38832SOL    HW118393  12.515  14.011   9.699
38832SOL    HW218394  12.518  14.010   9.851
38833SOL     OW18395   1.755  10.983   0.679
38833SOL    HW118396   1.665  10.957   0.660
38833SOL    HW218397   1.809  10.914   0.641
38834SOL     OW18398   9.751   5.393  11.258
38834SOL    HW118399   9.802   5.314  11.275
38834SOL    HW218400   9.803   5.442  11.194
38835SOL     OW18401  11.755  14.156  11.146
38835SOL    HW118402  11.750  14.248  11.173
38835SOL    HW218403  11.849  14.138  11.140
38836SOL     OW18404   2.097   1.671   0.664
38836SOL    HW118405   2.134   1.747   0.708
38836SOL    HW218406   2.006   1.695   0.646
38837SOL     OW18407  12.900  10.308  10.365
38837SOL    HW118408  12.918  10.373  10.297
38837SOL    HW218409  12.957  10.332  10.437
38838SOL     OW18410  13.454   7.853   6.514
38838SOL    HW118411  13.430   7.876   6.604
38838SOL    HW218412  13.450   7.936   6.466
38839SOL     OW18413  14.798  14.229   5.792
38839SOL    HW118414  14.705  14.240   5.811
38839SOL    HW218415  14.834  14.193   5.873
38840SOL     OW18416   8.953  11.033   6.833
38840SOL    HW118417   9.027  11.049   6.891
38840SOL    HW218418   8.949  10.938   6.824
38841SOL     OW18419   0.724   4.071   7.574
38841SOL    HW118420   0.630   4.055   7.564
38841SOL    HW218421   0.765   4.010   7.512
38842SOL     OW18422  14.360   2.348   8.698
38842SOL    HW118423  14.285   2.372   8.753
38842SOL    HW218424  14.347   2.255   8.678
38843SOL     OW18425   5.681   7.049   4.500
38843SOL    HW118426   5.767   7.018   4.528
38843SOL    HW218427   5.668   7.009   4.414
38844SOL     OW18428   0.095   9.782  11.456
38844SOL    HW118429   0.050   9.734  11.386
38844SOL    HW218430   0.029   9.790  11.525
38845SOL     OW18431  14.300   2.709   7.278
38845SOL    HW118432  14.343   2.625   7.295
38845SOL    HW218433  14.340   2.770   7.340
38846SOL     OW18434  13.812  12.228   1.884
38846SOL    HW118435  13.795  12.155   1.825
38846SOL    HW218436  13.907  12.231   1.892
38847SOL     OW18437   6.977  13.190   6.808
38847SOL    HW118438   7.052  13.231   6.765
38847SOL    HW218439   6.900  13.232   6.768
38848SOL     OW18440  12.523  10.633  10.605
38848SOL    HW118441  12.612  10.613  10.632
38848SOL    HW218442  12.530  10.653  10.511
38849SOL     OW18443   1.851  12.381  14.813
38849SOL    HW118444   1.800  12.316  14.763
38849SOL    HW218445   1.939  12.376  14.775
38850SOL     OW18446   8.642  11.690   0.502
38850SOL    HW118447   8.702  11.624   0.537
38850SOL    HW218448   8.598  11.725   0.579
38851SOL     OW18449   1.812  10.916   8.538
38851SOL    HW118450   1.881  10.880   8.483
38851SOL    HW218451   1.852  10.927   8.624
38852SOL     OW18452   1.652   1.660   9.595
38852SOL    HW118453   1.739   1.641   9.561
38852SOL    HW218454   1.595   1.593   9.557
38853SOL     OW18455   4.058   3.300   5.395
38853SOL    HW118456   4.147   3.312   5.361
38853SOL    HW218457   4.050   3.364   5.466
38854SOL     OW18458   3.546   1.305  10.883
38854SOL    HW118459   3.465   1.258  10.863
38854SOL    HW218460   3.600   1.293  10.805
38855SOL     OW18461   7.385  12.686   0.560
38855SOL    HW118462   7.377  12.599   0.522
38855SOL    HW218463   7.295  12.715   0.573
38856SOL     OW18464  13.548  13.324  12.866
38856SOL    HW118465  13.506  13.288  12.788
38856SOL    HW218466  13.611  13.387  12.833
38857SOL     OW18467   9.182  12.274  14.685
38857SOL    HW118468   9.244  12.294  14.615
38857SOL    HW218469   9.118  12.346  14.682
38858SOL     OW18470   8.696   3.038  10.416
38858SOL    HW118471   8.774   3.090  10.397
38858SOL    HW218472   8.623   3.091  10.384
38859SOL     OW18473  13.581  13.312   0.105
38859SOL    HW118474  13.489  13.306   0.078
38859SOL    HW218475  13.618  13.227   0.080
38860SOL     OW18476   3.024   8.503  13.478
38860SOL    HW118477   3.027   8.525  13.385
38860SOL    HW218478   3.094   8.438  13.490
38861SOL     OW18479   3.649  14.685  11.868
38861SOL    HW118480   3.614  14.770  11.841
38861SOL    HW218481   3.580  14.622  11.845
38862SOL     OW18482  13.565   6.148   1.864
38862SOL    HW118483  13.514   6.067   1.870
38862SOL    HW218484  13.554   6.176   1.773
38863SOL     OW18485  11.320   4.408   2.151
38863SOL    HW118486  11.309   4.471   2.223
38863SOL    HW218487  11.391   4.351   2.180
38864SOL     OW18488  12.556   5.899   9.596
38864SOL    HW118489  12.499   5.822   9.598
38864SOL    HW218490  12.533   5.948   9.675
38865SOL     OW18491   3.780  14.368   5.205
38865SOL    HW118492   3.688  14.383   5.184
38865SOL    HW218493   3.779  14.292   5.262
38866SOL     OW18494   0.198   1.125   9.057
38866SOL    HW118495   0.237   1.167   9.133
38866SOL    HW218496   0.227   1.178   8.982
38867SOL     OW18497   5.439   9.993   3.387
38867SOL    HW118498   5.501  10.031   3.449
38867SOL    HW218499   5.452  10.043   3.306
38868SOL     OW18500  13.498   4.981   1.009
38868SOL    HW118501  13.419   5.027   0.979
38868SOL    HW218502  13.468   4.928   1.083
38869SOL     OW18503   4.419   1.974  14.793
38869SOL    HW118504   4.364   1.902  14.761
38869SOL    HW218505   4.356   2.042  14.817
38870SOL     OW18506  13.013  14.148   7.333
38870SOL    HW118507  12.960  14.223   7.361
38870SOL    HW218508  13.081  14.141   7.400
38871SOL     OW18509   6.631   4.751   9.037
38871SOL    HW118510   6.717   4.722   9.006
38871SOL    HW218511   6.646   4.839   9.073
38872SOL     OW18512   6.003   8.637   1.879
38872SOL    HW118513   6.024   8.618   1.787
38872SOL    HW218514   5.954   8.560   1.908
38873SOL     OW18515   0.733   6.357   6.764
38873SOL    HW118516   0.782   6.277   6.743
38873SOL    HW218517   0.799   6.426   6.763
38874SOL     OW18518   4.609  14.116  14.163
38874SOL    HW118519   4.675  14.046  14.159
38874SOL    HW218520   4.608  14.153  14.074
38875SOL     OW18521   2.137  13.585   2.255
38875SOL    HW118522   2.228  13.574   2.282
38875SOL    HW218523   2.109  13.667   2.295
38876SOL     OW18524  13.027   2.149   6.081
38876SOL    HW118525  13.045   2.077   6.142
38876SOL    HW218526  13.058   2.117   5.996
38877SOL     OW18527   4.472  10.549  13.267
38877SOL    HW118528   4.399  10.511  13.218
38877SOL    HW218529   4.485  10.635  13.227
38878SOL     OW18530   2.273  11.025  14.265
38878SOL    HW118531   2.308  11.114  14.254
38878SOL    HW218532   2.313  10.975  14.194
38879SOL     OW18533   3.828   6.869  10.835
38879SOL    HW118534   3.736   6.857  10.809
38879SOL    HW218535   3.824   6.922  10.914
38880SOL     OW18536   5.350  12.341  13.258
38880SOL    HW118537   5.414  12.271  13.272
38880SOL    HW218538   5.375  12.409  13.321
38881SOL     OW18539   3.227   8.730   7.754
38881SOL    HW118540   3.271   8.713   7.671
38881SOL    HW218541   3.137   8.751   7.730
38882SOL     OW18542  13.035  11.822   2.172
38882SOL    HW118543  13.054  11.751   2.232
38882SOL    HW218544  12.960  11.867   2.210
38883SOL     OW18545  14.502  10.654   8.462
38883SOL    HW118546  14.513  10.610   8.378
38883SOL    HW218547  14.551  10.599   8.524
38884SOL     OW18548  11.553  11.153   1.520
38884SOL    HW118549  11.553  11.199   1.604
38884SOL    HW218550  11.645  11.154   1.492
38885SOL     OW18551  10.883  12.229   3.349
38885SOL    HW118552  10.878  12.306   3.292
38885SOL    HW218553  10.959  12.180   3.317
38886SOL     OW18554   3.919  12.073  14.133
38886SOL    HW118555   3.844  12.108  14.181
38886SOL    HW218556   3.891  12.073  14.042
38887SOL     OW18557   1.183   9.580   1.899
38887SOL    HW118558   1.271   9.590   1.862
38887SOL    HW218559   1.173   9.486   1.915
38888SOL     OW18560   7.172   0.324  13.042
38888SOL    HW118561   7.226   0.373  13.105
38888SOL    HW218562   7.097   0.381  13.026
38889SOL     OW18563   0.902   9.707   4.491
38889SOL    HW118564   0.867   9.690   4.403
38889SOL    HW218565   0.972   9.770   4.476
38890SOL     OW18566  11.403   7.690   9.647
38890SOL    HW118567  11.490   7.666   9.677
38890SOL    HW218568  11.418   7.765   9.589
38891SOL     OW18569   0.814   3.229   8.526
38891SOL    HW118570   0.851   3.317   8.528
38891SOL    HW218571   0.845   3.188   8.607
38892SOL     OW18572   8.486   9.034  10.240
38892SOL    HW118573   8.423   8.968  10.210
38892SOL    HW218574   8.476   9.107  10.179
38893SOL     OW18575   9.029   0.720   4.854
38893SOL    HW118576   9.071   0.684   4.777
38893SOL    HW218577   9.030   0.815   4.840
38894SOL     OW18578  10.886  13.818   5.791
38894SOL    HW118579  10.974  13.781   5.787
38894SOL    HW218580  10.899  13.906   5.824
38895SOL     OW18581   7.160  10.555  14.313
38895SOL    HW118582   7.108  10.514  14.244
38895SOL    HW218583   7.134  10.508  14.393
38896SOL     OW18584   4.363   4.867   8.607
38896SOL    HW118585   4.362   4.914   8.690
38896SOL    HW218586   4.394   4.780   8.629
38897SOL     OW18587  12.244   6.406  14.078
38897SOL    HW118588  12.298   6.400  13.999
38897SOL    HW218589  12.305   6.394  14.150
38898SOL     OW18590   6.333   4.402   4.374
38898SOL    HW118591   6.370   4.315   4.355
38898SOL    HW218592   6.364   4.422   4.462
38899SOL     OW18593   8.927   4.599   8.859
38899SOL    HW118594   9.007   4.649   8.845
38899SOL    HW218595   8.861   4.664   8.883
38900SOL     OW18596  11.445  12.206   2.244
38900SOL    HW118597  11.478  12.248   2.323
38900SOL    HW218598  11.353  12.187   2.264
38901SOL     OW18599   9.789   1.970  12.834
38901SOL    HW118600   9.755   2.000  12.918
38901SOL    HW218601   9.847   1.897  12.856
38902SOL     OW18602   1.269  13.097   7.820
38902SOL    HW118603   1.304  13.018   7.862
38902SOL    HW218604   1.332  13.116   7.751
38903SOL     OW18605   0.772  12.844  14.528
38903SOL    HW118606   0.754  12.823  14.436
38903SOL    HW218607   0.742  12.934  14.538
38904SOL     OW18608   1.066   7.740   3.927
38904SOL    HW118609   0.975   7.724   3.902
38904SOL    HW218610   1.098   7.801   3.861
38905SOL     OW18611   3.478   8.554  10.071
38905SOL    HW118612   3.472   8.569   9.976
38905SOL    HW218613   3.465   8.460  10.082
38906SOL     OW18614  14.713   8.467  11.859
38906SOL    HW118615  14.694   8.402  11.792
38906SOL    HW218616  14.798   8.503  11.834
38907SOL     OW18617  13.879   6.430   5.890
38907SOL    HW118618  13.850   6.408   5.802
38907SOL    HW218619  13.799   6.454   5.936
38908SOL     OW18620   6.685   3.496  11.064
38908SOL    HW118621   6.768   3.535  11.037
38908SOL    HW218622   6.709   3.424  11.122
38909SOL     OW18623   5.761   0.751   4.036
38909SOL    HW118624   5.787   0.661   4.021
38909SOL    HW218625   5.667   0.752   4.019
38910SOL     OW18626   4.675   0.787   2.759
38910SOL    HW118627   4.714   0.829   2.683
38910SOL    HW218628   4.683   0.694   2.742
38911SOL     OW18629  12.663  14.498  14.551
38911SOL    HW118630  12.753  14.469  14.568
38911SOL    HW218631  12.653  14.577  14.604
38912SOL     OW18632   0.569   9.668  12.487
38912SOL    HW118633   0.481   9.703  12.501
38912SOL    HW218634   0.624   9.713  12.552
38913SOL     OW18635   0.426   9.970  10.662
38913SOL    HW118636   0.369   9.996  10.734
38913SOL    HW218637   0.383   9.894  10.624
38914SOL     OW18638  12.999   3.593  14.430
38914SOL    HW118639  12.935   3.558  14.491
38914SOL    HW218640  13.076   3.614  14.484
38915SOL     OW18641  10.704   9.605   3.514
38915SOL    HW118642  10.645   9.542   3.472
38915SOL    HW218643  10.783   9.604   3.459
38916SOL     OW18644  13.107  11.058  10.512
38916SOL    HW118645  13.177  11.018  10.565
38916SOL    HW218646  13.041  11.083  10.576
38917SOL     OW18647  10.314   6.190   0.427
38917SOL    HW118648  10.259   6.241   0.367
38917SOL    HW218649  10.396   6.177   0.378
38918SOL     OW18650   8.179  10.999   3.542
38918SOL    HW118651   8.272  10.997   3.566
38918SOL    HW218652   8.135  10.954   3.614
38919SOL     OW18653   0.161   2.975  12.064
38919SOL    HW118654   0.248   3.007  12.043
38919SOL    HW218655   0.118   2.962  11.980
38920SOL     OW18656   4.094   7.883   8.136
38920SOL    HW118657   4.133   7.914   8.055
38920SOL    HW218658   4.084   7.788   8.123
38921SOL     OW18659   6.116   1.861  10.946
38921SOL    HW118660   6.127   1.829  11.036
38921SOL    HW218661   6.040   1.812  10.913
38922SOL     OW18662   2.033  14.711   7.243
38922SOL    HW118663   2.127  14.698   7.231
38922SOL    HW218664   2.007  14.646   7.308
38923SOL     OW18665   0.801   9.653   7.405
38923SOL    HW118666   0.829   9.579   7.457
38923SOL    HW218667   0.779   9.721   7.468
38924SOL     OW18668  13.072   3.972  10.945
38924SOL    HW118669  13.007   3.922  10.894
38924SOL    HW218670  13.156   3.948  10.907
38925SOL     OW18671   2.910   3.411   6.856
38925SOL    HW118672   2.979   3.376   6.912
38925SOL    HW218673   2.940   3.394   6.767
38926SOL     OW18674   9.612   3.837   6.862
38926SOL    HW118675   9.661   3.755   6.852
38926SOL    HW218676   9.527   3.810   6.896
38927SOL     OW18677   3.407  11.816  11.833
38927SOL    HW118678   3.416  11.721  11.824
38927SOL    HW218679   3.344  11.841  11.766
38928SOL     OW18680   7.865   9.568   1.639
38928SOL    HW118681   7.788   9.524   1.604
38928SOL    HW218682   7.868   9.652   1.594
38929SOL     OW18683   7.039  12.817   8.955
38929SOL    HW118684   7.011  12.801   8.865
38929SOL    HW218685   6.958  12.825   9.005
38930SOL     OW18686   5.234   2.345  10.243
38930SOL    HW118687   5.143   2.357  10.218
38930SOL    HW218688   5.280   2.420  10.206
38931SOL     OW18689   3.679   3.810  10.207
38931SOL    HW118690   3.594   3.785  10.244
38931SOL    HW218691   3.670   3.793  10.113
38932SOL     OW18692   2.993  10.387   4.309
38932SOL    HW118693   3.005  10.295   4.330
38932SOL    HW218694   2.899  10.397   4.294
38933SOL     OW18695   9.671   6.610  13.587
38933SOL    HW118696   9.602   6.567  13.638
38933SOL    HW218697   9.630   6.630  13.503
38934SOL     OW18698   0.771  10.829  10.967
38934SOL    HW118699   0.771  10.753  11.026
38934SOL    HW218700   0.682  10.831  10.931
38935SOL     OW18701   4.551   2.104  12.654
38935SOL    HW118702   4.484   2.153  12.607
38935SOL    HW218703   4.504   2.029  12.691
38936SOL     OW18704  12.703  14.178   1.478
38936SOL    HW118705  12.762  14.218   1.541
38936SOL    HW218706  12.670  14.100   1.523
38937SOL     OW18707  12.682   3.739  14.787
38937SOL    HW118708  12.641   3.760  14.703
38937SOL    HW218709  12.739   3.814  14.806
38938SOL     OW18710   7.861   5.987   3.489
38938SOL    HW118711   7.808   5.980   3.568
38938SOL    HW218712   7.854   6.079   3.463
38939SOL     OW18713  13.212   0.604   9.354
38939SOL    HW118714  13.159   0.681   9.375
38939SOL    HW218715  13.163   0.531   9.391
38940SOL     OW18716  12.848   3.028  13.067
38940SOL    HW118717  12.928   3.080  13.074
38940SOL    HW218718  12.786   3.072  13.125
38941SOL     OW18719   7.113   9.051   2.526
38941SOL    HW118720   7.093   8.965   2.562
38941SOL    HW218721   7.156   9.097   2.598
38942SOL     OW18722   2.004  12.596   0.535
38942SOL    HW118723   1.953  12.588   0.454
38942SOL    HW218724   1.940  12.590   0.605
38943SOL     OW18725  12.338   6.787  10.152
38943SOL    HW118726  12.388   6.788  10.233
38943SOL    HW218727  12.259   6.838  10.172
38944SOL     OW18728   4.809   3.327  13.650
38944SOL    HW118729   4.828   3.238  13.678
38944SOL    HW218730   4.806   3.378  13.731
38945SOL     OW18731   3.018   3.476  13.808
38945SOL    HW118732   2.935   3.436  13.781
38945SOL    HW218733   2.991   3.552  13.861
38946SOL     OW18734   0.293   0.939   7.063
38946SOL    HW118735   0.278   0.862   7.117
38946SOL    HW218736   0.215   0.994   7.077
38947SOL     OW18737  12.248  10.536   1.511
38947SOL    HW118738  12.310  10.602   1.480
38947SOL    HW218739  12.223  10.488   1.432
38948SOL     OW18740  14.094   7.740  13.506
38948SOL    HW118741  14.101   7.645  13.516
38948SOL    HW218742  14.015   7.753  13.454
38949SOL     OW18743   8.778  12.190   1.699
38949SOL    HW118744   8.697  12.236   1.723
38949SOL    HW218745   8.756  12.142   1.620
38950SOL     OW18746   8.578   4.617   1.916
38950SOL    HW118747   8.573   4.531   1.958
38950SOL    HW218748   8.493   4.627   1.872
38951SOL     OW18749  13.380  11.815   9.120
38951SOL    HW118750  13.444  11.877   9.086
38951SOL    HW218751  13.374  11.747   9.053
38952SOL     OW18752  11.250   9.850   6.084
38952SOL    HW118753  11.334   9.891   6.065
38952SOL    HW218754  11.236   9.866   6.177
38953SOL     OW18755   5.405   3.158   8.238
38953SOL    HW118756   5.390   3.069   8.269
38953SOL    HW218757   5.324   3.182   8.193
38954SOL     OW18758  11.415   4.275   0.768
38954SOL    HW118759  11.398   4.238   0.855
38954SOL    HW218760  11.399   4.368   0.778
38955SOL     OW18761   9.062   6.808   5.801
38955SOL    HW118762   9.029   6.898   5.799
38955SOL    HW218763   9.014   6.767   5.873
38956SOL     OW18764  12.451   0.487   9.205
38956SOL    HW118765  12.406   0.547   9.145
38956SOL    HW218766  12.427   0.400   9.173
38957SOL     OW18767   4.353   8.268  10.916
38957SOL    HW118768   4.351   8.200  10.983
38957SOL    HW218769   4.268   8.310  10.921
38958SOL     OW18770   0.449   6.611   8.862
38958SOL    HW118771   0.528   6.620   8.809
38958SOL    HW218772   0.396   6.687   8.841
38959SOL     OW18773   9.686  13.469   1.124
38959SOL    HW118774   9.759  13.413   1.098
38959SOL    HW218775   9.611  13.435   1.075
38960SOL     OW18776  12.615   3.995  11.355
38960SOL    HW118777  12.667   3.919  11.329
38960SOL    HW218778  12.661   4.070  11.317
38961SOL     OW18779   0.312  10.628  11.136
38961SOL    HW118780   0.341  10.661  11.051
38961SOL    HW218781   0.367  10.674  11.200
38962SOL     OW18782   3.481   0.311   6.913
38962SOL    HW118783   3.539   0.384   6.938
38962SOL    HW218784   3.400   0.353   6.884
38963SOL     OW18785  11.052   8.463   9.666
38963SOL    HW118786  11.023   8.382   9.708
38963SOL    HW218787  11.126   8.492   9.720
38964SOL     OW18788   8.085   5.958   2.501
38964SOL    HW118789   8.122   6.044   2.480
38964SOL    HW218790   8.022   5.976   2.571
38965SOL     OW18791   6.577   2.529   4.576
38965SOL    HW118792   6.501   2.521   4.519
38965SOL    HW218793   6.573   2.618   4.610
38966SOL     OW18794  10.952   0.577   6.334
38966SOL    HW118795  10.873   0.584   6.387
38966SOL    HW218796  10.922   0.586   6.244
38967SOL     OW18797   4.748   0.583   1.901
38967SOL    HW118798   4.800   0.634   1.839
38967SOL    HW218799   4.807   0.568   1.975
38968SOL     OW18800   1.614   4.320   2.311
38968SOL    HW118801   1.575   4.382   2.372
38968SOL    HW218802   1.687   4.282   2.359
38969SOL     OW18803  14.646   1.537   5.108
38969SOL    HW118804  14.632   1.577   5.022
38969SOL    HW218805  14.668   1.446   5.089
38970SOL     OW18806   1.616   5.206   9.790
38970SOL    HW118807   1.565   5.265   9.735
38970SOL    HW218808   1.560   5.130   9.803
38971SOL     OW18809   6.280  12.246   2.447
38971SOL    HW118810   6.194  12.207   2.436
38971SOL    HW218811   6.327  12.185   2.503
38972SOL     OW18812  10.845  13.582   4.009
38972SOL    HW118813  10.806  13.496   4.023
38972SOL    HW218814  10.933  13.575   4.046
38973SOL     OW18815   9.052   1.993  12.962
38973SOL    HW118816   9.110   1.919  12.943
38973SOL    HW218817   8.966   1.952  12.976
38974SOL     OW18818   8.686   8.291   3.641
38974SOL    HW118819   8.698   8.373   3.593
38974SOL    HW218820   8.658   8.318   3.728
38975SOL     OW18821   0.937   8.414   9.259
38975SOL    HW118822   0.848   8.446   9.271
38975SOL    HW218823   0.928   8.319   9.252
38976SOL     OW18824   4.722   5.803   5.374
38976SOL    HW118825   4.773   5.840   5.445
38976SOL    HW218826   4.707   5.712   5.400
38977SOL     OW18827   6.328   8.514   8.839
38977SOL    HW118828   6.353   8.435   8.887
38977SOL    HW218829   6.232   8.512   8.840
38978SOL     OW18830  11.142   6.434   4.796
38978SOL    HW118831  11.190   6.456   4.876
38978SOL    HW218832  11.052   6.419   4.825
38979SOL     OW18833   4.015   9.963   3.572
38979SOL    HW118834   3.998  10.054   3.595
38979SOL    HW218835   3.930   9.920   3.576
38980SOL     OW18836  13.021   2.931   6.171
38980SOL    HW118837  13.076   2.940   6.248
38980SOL    HW218838  13.013   2.837   6.157
38981SOL     OW18839   0.982   0.659   4.000
38981SOL    HW118840   1.062   0.682   3.953
38981SOL    HW218841   1.005   0.663   4.092
38982SOL     OW18842   9.088   3.290   3.226
38982SOL    HW118843   9.116   3.286   3.135
38982SOL    HW218844   9.149   3.351   3.268
38983SOL     OW18845  10.548   9.895  11.489
38983SOL    HW118846  10.605   9.857  11.422
38983SOL    HW218847  10.511   9.820  11.535
38984SOL     OW18848  14.238   1.222  12.577
38984SOL    HW118849  14.254   1.219  12.671
38984SOL    HW218850  14.308   1.169  12.539
38985SOL     OW18851   2.420   8.552  12.599
38985SOL    HW118852   2.480   8.611  12.642
38985SOL    HW218853   2.380   8.604  12.529
38986SOL     OW18854   8.228   5.610   7.498
38986SOL    HW118855   8.180   5.544   7.548
38986SOL    HW218856   8.176   5.623   7.419
38987SOL     OW18857   7.879  14.683   2.036
38987SOL    HW118858   7.899  14.767   2.078
38987SOL    HW218859   7.847  14.707   1.949
38988SOL     OW18860  11.457  13.516   6.222
38988SOL    HW118861  11.521  13.501   6.153
38988SOL    HW218862  11.379  13.547   6.176
38989SOL     OW18863  11.575   1.082   6.857
38989SOL    HW118864  11.648   1.132   6.893
38989SOL    HW218865  11.614   1.000   6.826
38990SOL     OW18866   0.061   9.420  10.629
38990SOL    HW118867   0.056   9.368  10.709
38990SOL    HW218868   0.002   9.494  10.644
38991SOL     OW18869   8.305  11.206   4.520
38991SOL    HW118870   8.329  11.123   4.562
38991SOL    HW218871   8.212  11.216   4.538
38992SOL     OW18872  14.125   8.266  14.628
38992SOL    HW118873  14.085   8.179  14.625
38992SOL    HW218874  14.053   8.325  14.652
38993SOL     OW18875   4.221   0.095   7.396
38993SOL    HW118876   4.134   0.132   7.412
38993SOL    HW218877   4.218   0.064   7.305
38994SOL     OW18878   9.229  10.598   0.979
38994SOL    HW118879   9.237  10.677   0.925
38994SOL    HW218880   9.307  10.547   0.957
38995SOL     OW18881   9.130   9.568   1.106
38995SOL    HW118882   9.168   9.553   1.020
38995SOL    HW218883   9.184   9.637   1.145
38996SOL     OW18884   6.398   8.871   6.194
38996SOL    HW118885   6.441   8.944   6.149
38996SOL    HW218886   6.309   8.903   6.210
38997SOL     OW18887   9.538   8.728   2.125
38997SOL    HW118888   9.512   8.697   2.038
38997SOL    HW218889   9.482   8.804   2.141
38998SOL     OW18890  10.980  12.295  14.307
38998SOL    HW118891  11.060  12.283  14.256
38998SOL    HW218892  10.917  12.235  14.266
38999SOL     OW18893   0.745  11.793  14.748
38999SOL    HW118894   0.765  11.855  14.819
38999SOL    HW218895   0.796  11.824  14.674
39000SOL     OW18896  11.689  11.331   6.046
39000SOL    HW118897  11.647  11.250   6.077
39000SOL    HW218898  11.737  11.363   6.122
39001SOL     OW18899  14.654   6.276   1.171
39001SOL    HW118900  14.594   6.203   1.161
39001SOL    HW218901  14.615   6.331   1.239
39002SOL     OW18902   9.067  13.487   6.760
39002SOL    HW118903   8.995  13.530   6.806
39002SOL    HW218904   9.059  13.395   6.784
39003SOL     OW18905   9.501  10.316   3.939
39003SOL    HW118906   9.475  10.332   3.848
39003SOL    HW218907   9.455  10.383   3.989
39004SOL     OW18908   8.213   7.436   6.060
39004SOL    HW118909   8.167   7.422   6.143
39004SOL    HW218910   8.249   7.524   6.066
39005SOL     OW18911   0.861  12.380   7.485
39005SOL    HW118912   0.852  12.368   7.579
39005SOL    HW218913   0.942  12.334   7.463
39006SOL     OW18914  13.195   6.739  13.175
39006SOL    HW118915  13.210   6.646  13.193
39006SOL    HW218916  13.280   6.780  13.189
39007SOL     OW18917   4.141   5.645   6.252
39007SOL    HW118918   4.140   5.553   6.279
39007SOL    HW218919   4.184   5.644   6.166
39008SOL     OW18920  14.314  11.397   5.492
39008SOL    HW118921  14.350  11.311   5.512
39008SOL    HW218922  14.362  11.427   5.415
39009SOL     OW18923   3.417  10.743   4.154
39009SOL    HW118924   3.389  10.655   4.128
39009SOL    HW218925   3.358  10.768   4.225
39010SOL     OW18926  14.818   0.143   5.730
39010SOL    HW118927   0.031   0.107   5.703
39010SOL    HW218928  14.833   0.177   5.818
39011SOL     OW18929  11.030   1.815   7.588
39011SOL    HW118930  11.051   1.770   7.670
39011SOL    HW218931  10.934   1.822   7.589
39012SOL     OW18932   4.548   3.154  13.578
39012SOL    HW118933   4.488   3.166  13.505
39012SOL    HW218934   4.547   3.237  13.625
39013SOL     OW18935   6.993  10.702   0.402
39013SOL    HW118936   7.057  10.706   0.473
39013SOL    HW218937   7.031  10.758   0.333
39014SOL     OW18938   4.186  11.016  14.232
39014SOL    HW118939   4.172  11.049  14.321
39014SOL    HW218940   4.189  10.921  14.242
39015SOL     OW18941   0.143   2.223   9.119
39015SOL    HW118942   0.121   2.312   9.145
39015SOL    HW218943   0.130   2.171   9.199
39016SOL     OW18944   7.744   4.951   1.590
39016SOL    HW118945   7.683   4.918   1.657
39016SOL    HW218946   7.831   4.927   1.623
39017SOL     OW18947  14.607   2.885   5.325
39017SOL    HW118948  14.685   2.890   5.270
39017SOL    HW218949  14.563   2.969   5.313
39018SOL     OW18950   5.454   2.267   0.578
39018SOL    HW118951   5.425   2.211   0.506
39018SOL    HW218952   5.418   2.225   0.656
39019SOL     OW18953  13.191   3.596   7.191
39019SOL    HW118954  13.282   3.587   7.164
39019SOL    HW218955  13.158   3.670   7.140
39020SOL     OW18956   4.149   7.071   4.414
39020SOL    HW118957   4.111   6.995   4.370
39020SOL    HW218958   4.234   7.084   4.371
39021SOL     OW18959   1.753   7.861  11.807
39021SOL    HW118960   1.712   7.794  11.862
39021SOL    HW218961   1.783   7.928  11.869
39022SOL     OW18962   3.714   9.249   3.549
39022SOL    HW118963   3.687   9.327   3.501
39022SOL    HW218964   3.724   9.181   3.482
39023SOL     OW18965   7.014   7.100  14.122
39023SOL    HW118966   7.055   7.181  14.151
39023SOL    HW218967   7.069   7.070  14.049
39024SOL     OW18968  11.263  13.957   7.576
39024SOL    HW118969  11.194  13.946   7.641
39024SOL    HW218970  11.344  13.956   7.627
39025SOL     OW18971   9.973   6.694   6.057
39025SOL    HW118972   9.893   6.701   6.005
39025SOL    HW218973  10.044   6.692   5.993
39026SOL     OW18974   0.045   4.417  11.220
39026SOL    HW118975   0.088   4.483  11.276
39026SOL    HW218976   0.048   4.337  11.272
39027SOL     OW18977   1.498   8.298  10.848
39027SOL    HW118978   1.576   8.251  10.820
39027SOL    HW218979   1.426   8.237  10.833
39028SOL     OW18980   3.318  12.508  14.188
39028SOL    HW118981   3.359  12.531  14.272
39028SOL    HW218982   3.284  12.591  14.155
39029SOL     OW18983  11.462  11.845   8.442
39029SOL    HW118984  11.457  11.887   8.356
39029SOL    HW218985  11.422  11.759   8.429
39030SOL     OW18986   0.430   4.649   8.440
39030SOL    HW118987   0.359   4.604   8.485
39030SOL    HW218988   0.400   4.739   8.432
39031SOL     OW18989  12.409   9.321   8.467
39031SOL    HW118990  12.451   9.408   8.462
39031SOL    HW218991  12.364   9.321   8.551
39032SOL     OW18992   1.874   6.758   5.321
39032SOL    HW118993   1.907   6.848   5.324
39032SOL    HW218994   1.931   6.715   5.257
39033SOL     OW18995   4.042  14.256   3.761
39033SOL    HW118996   4.065  14.344   3.732
39033SOL    HW218997   3.988  14.220   3.690
39034SOL     OW18998   7.922   5.155   7.275
39034SOL    HW118999   7.843   5.128   7.227
39034SOL    HW219000   7.913   5.113   7.360
39035SOL     OW19001  10.229   9.378   8.953
39035SOL    HW119002  10.176   9.357   8.876
39035SOL    HW219003  10.166   9.385   9.025
39036SOL     OW19004   9.053   9.928  12.812
39036SOL    HW119005   9.130   9.973  12.777
39036SOL    HW219006   9.078   9.835  12.812
39037SOL     OW19007   1.847   9.353   1.462
39037SOL    HW119008   1.904   9.359   1.539
39037SOL    HW219009   1.767   9.399   1.487
39038SOL     OW19010   8.302   2.955   8.619
39038SOL    HW119011   8.329   2.999   8.700
39038SOL    HW219012   8.312   2.862   8.638
39039SOL     OW19013   4.960   2.041  14.828
39039SOL    HW119014   4.995   2.129  14.845
39039SOL    HW219015   4.877   2.039   0.004
39040SOL     OW19016   6.264   3.575  13.221
39040SOL    HW119017   6.347   3.621  13.207
39040SOL    HW219018   6.206   3.608  13.152
39041SOL     OW19019  13.828   4.210   3.296
39041SOL    HW119020  13.869   4.281   3.345
39041SOL    HW219021  13.764   4.254   3.239
39042SOL     OW19022  13.578   0.258   0.935
39042SOL    HW119023  13.583   0.311   1.015
39042SOL    HW219024  13.484   0.250   0.918
39043SOL     OW19025   5.859  12.387   8.117
39043SOL    HW119026   5.876  12.303   8.076
39043SOL    HW219027   5.782  12.421   8.071
39044SOL     OW19028  12.368   4.166   0.510
39044SOL    HW119029  12.381   4.197   0.600
39044SOL    HW219030  12.296   4.104   0.517
39045SOL     OW19031   4.140  10.887   7.021
39045SOL    HW119032   4.087  10.956   6.982
39045SOL    HW219033   4.229  10.908   6.995
39046SOL     OW19034   0.011   0.426   1.152
39046SOL    HW119035   0.058   0.343   1.165
39046SOL    HW219036   0.043   0.458   1.068
39047SOL     OW19037   6.972   0.529  12.014
39047SOL    HW119038   6.904   0.556  12.076
39047SOL    HW219039   7.044   0.590  12.030
39048SOL     OW19040  12.666  11.674   6.096
39048SOL    HW119041  12.632  11.698   6.182
39048SOL    HW219042  12.595  11.694   6.035
39049SOL     OW19043   5.930   0.875   0.796
39049SOL    HW119044   5.911   0.784   0.773
39049SOL    HW219045   5.871   0.926   0.741
39050SOL     OW19046   9.950  12.897   0.917
39050SOL    HW119047   9.957  12.835   0.845
39050SOL    HW219048   9.976  12.846   0.994
39051SOL     OW19049   4.390   4.535   6.514
39051SOL    HW119050   4.373   4.628   6.499
39051SOL    HW219051   4.306   4.499   6.544
39052SOL     OW19052   2.140   5.029   7.131
39052SOL    HW119053   2.195   4.972   7.184
39052SOL    HW219054   2.051   5.015   7.164
39053SOL     OW19055  13.063   9.312  13.338
39053SOL    HW119056  13.116   9.344  13.264
39053SOL    HW219057  13.104   9.351  13.415
39054SOL     OW19058   7.825   7.629   8.421
39054SOL    HW119059   7.886   7.683   8.472
39054SOL    HW219060   7.853   7.641   8.330
39055SOL     OW19061  12.135   9.354   6.996
39055SOL    HW119062  12.142   9.443   7.030
39055SOL    HW219063  12.196   9.352   6.923
39056SOL     OW19064   4.741   2.964   8.045
39056SOL    HW119065   4.687   2.966   7.966
39056SOL    HW219066   4.696   2.905   8.104
39057SOL     OW19067   0.519   0.490   5.232
39057SOL    HW119068   0.578   0.449   5.295
39057SOL    HW219069   0.575   0.513   5.158
39058SOL     OW19070   0.104  13.257   7.921
39058SOL    HW119071   0.147  13.215   7.846
39058SOL    HW219072   0.151  13.225   7.998
39059SOL     OW19073  12.609   0.915  11.613
39059SOL    HW119074  12.681   0.923  11.550
39059SOL    HW219075  12.632   0.839  11.666
39060SOL     OW19076  13.804  11.657  10.255
39060SOL    HW119077  13.826  11.649  10.348
39060SOL    HW219078  13.735  11.592  10.241
39061SOL     OW19079   7.399   9.107  12.909
39061SOL    HW119080   7.407   9.202  12.898
39061SOL    HW219081   7.453   9.087  12.986
39062SOL     OW19082  14.345   6.093   9.867
39062SOL    HW119083  14.295   6.126   9.791
39062SOL    HW219084  14.399   6.023   9.831
39063SOL     OW19085  13.792  14.163  11.669
39063SOL    HW119086  13.826  14.253  11.663
39063SOL    HW219087  13.796  14.130  11.579
39064SOL     OW19088  13.177   8.191  11.955
39064SOL    HW119089  13.134   8.269  11.922
39064SOL    HW219090  13.109   8.146  12.007
39065SOL     OW19091   4.020  13.352  11.874
39065SOL    HW119092   3.993  13.372  11.964
39065SOL    HW219093   4.049  13.261  11.878
39066SOL     OW19094   6.945  11.638   3.850
39066SOL    HW119095   6.930  11.609   3.759
39066SOL    HW219096   6.860  11.631   3.892
39067SOL     OW19097   1.468   6.095   4.292
39067SOL    HW119098   1.553   6.052   4.297
39067SOL    HW219099   1.404   6.024   4.293
39068SOL     OW19100   0.329   8.593   2.307
39068SOL    HW119101   0.365   8.515   2.349
39068SOL    HW219102   0.280   8.559   2.232
39069SOL     OW19103  11.908   4.100   4.014
39069SOL    HW119104  11.916   4.006   4.027
39069SOL    HW219105  11.946   4.116   3.927
39070SOL     OW19106   8.569   0.306   6.615
39070SOL    HW119107   8.590   0.221   6.576
39070SOL    HW219108   8.654   0.346   6.632
39071SOL     OW19109   4.731   4.575  11.607
39071SOL    HW119110   4.750   4.566  11.700
39071SOL    HW219111   4.803   4.528  11.563
39072SOL     OW19112   9.911   6.988   5.962
39072SOL    HW119113   9.902   7.070   5.913
39072SOL    HW219114   9.997   6.996   6.004
39073SOL     OW19115  11.815   8.108  14.821
39073SOL    HW119116  11.813   8.171  14.749
39073SOL    HW219117  11.772   8.152   0.023
39074SOL     OW19118   8.943  13.701   2.191
39074SOL    HW119119   8.978  13.617   2.222
39074SOL    HW219120   8.855  13.705   2.228
39075SOL     OW19121   3.003  14.276   5.447
39075SOL    HW119122   3.043  14.188   5.447
39075SOL    HW219123   3.065  14.330   5.398
39076SOL     OW19124   2.138   2.687   3.854
39076SOL    HW119125   2.122   2.597   3.884
39076SOL    HW219126   2.085   2.697   3.776
39077SOL     OW19127   5.273  14.294  10.495
39077SOL    HW119128   5.186  14.255  10.483
39077SOL    HW219129   5.309  14.300  10.406
39078SOL     OW19130  10.390  11.469   4.822
39078SOL    HW119131  10.330  11.442   4.892
39078SOL    HW219132  10.415  11.559   4.845
39079SOL     OW19133   0.382  13.941   0.826
39079SOL    HW119134   0.445  13.952   0.897
39079SOL    HW219135   0.299  13.919   0.870
39080SOL     OW19136   9.895   3.055   6.020
39080SOL    HW119137   9.983   3.092   6.007
39080SOL    HW219138   9.835   3.122   5.986
39081SOL     OW19139  13.527  11.146  14.343
39081SOL    HW119140  13.442  11.101  14.336
39081SOL    HW219141  13.591  11.076  14.333
39082SOL     OW19142   2.208   0.942   3.421
39082SOL    HW119143   2.197   0.963   3.329
39082SOL    HW219144   2.227   1.026   3.463
39083SOL     OW19145   2.575  14.591   0.067
39083SOL    HW119146   2.501  14.571   0.125
39083SOL    HW219147   2.614  14.505   0.049
39084SOL     OW19148   6.111   3.668   1.130
39084SOL    HW119149   6.147   3.718   1.203
39084SOL    HW219150   6.178   3.603   1.109
39085SOL     OW19151   8.115   3.505  11.699
39085SOL    HW119152   8.173   3.554  11.757
39085SOL    HW219153   8.035   3.557  11.695
39086SOL     OW19154  10.533   0.764   6.680
39086SOL    HW119155  10.623   0.742   6.706
39086SOL    HW219156  10.511   0.841   6.731
39087SOL     OW19157  13.292   0.559   4.574
39087SOL    HW119158  13.310   0.588   4.663
39087SOL    HW219159  13.243   0.631   4.534
39088SOL     OW19160  10.023   0.220   8.168
39088SOL    HW119161   9.987   0.172   8.093
39088SOL    HW219162  10.033   0.155   8.237
39089SOL     OW19163  11.352   9.159   6.006
39089SOL    HW119164  11.328   9.071   5.977
39089SOL    HW219165  11.285   9.216   5.970
39090SOL     OW19166  11.059   8.014   0.184
39090SOL    HW119167  10.993   8.000   0.116
39090SOL    HW219168  11.129   7.952   0.164
39091SOL     OW19169  10.127  13.390   4.735
39091SOL    HW119170  10.139  13.369   4.827
39091SOL    HW219171  10.215  13.389   4.698
39092SOL     OW19172  14.294   2.186   9.180
39092SOL    HW119173  14.239   2.253   9.138
39092SOL    HW219174  14.307   2.121   9.111
39093SOL     OW19175   1.594   3.194   6.872
39093SOL    HW119176   1.554   3.122   6.823
39093SOL    HW219177   1.536   3.205   6.948
39094SOL     OW19178   7.558   4.098   7.075
39094SOL    HW119179   7.621   4.162   7.041
39094SOL    HW219180   7.489   4.095   7.008
39095SOL     OW19181   8.583   1.671  11.175
39095SOL    HW119182   8.634   1.629  11.106
39095SOL    HW219183   8.496   1.683  11.137
39096SOL     OW19184   8.040   4.149   8.752
39096SOL    HW119185   7.953   4.140   8.792
39096SOL    HW219186   8.100   4.114   8.817
39097SOL     OW19187   0.903   9.858   0.780
39097SOL    HW119188   0.991   9.894   0.784
39097SOL    HW219189   0.905   9.800   0.704
39098SOL     OW19190  12.721   1.279   4.582
39098SOL    HW119191  12.798   1.336   4.588
39098SOL    HW219192  12.681   1.302   4.498
39099SOL     OW19193  12.238   2.137   6.983
39099SOL    HW119194  12.172   2.202   7.006
39099SOL    HW219195  12.189   2.055   6.978
39100SOL     OW19196  11.990   2.954   9.610
39100SOL    HW119197  11.988   2.880   9.671
39100SOL    HW219198  12.032   3.024   9.660
39101SOL     OW19199   8.543   3.601  10.788
39101SOL    HW119200   8.520   3.513  10.757
39101SOL    HW219201   8.486   3.616  10.863
39102SOL     OW19202   5.688  11.288   1.554
39102SOL    HW119203   5.731  11.245   1.480
39102SOL    HW219204   5.609  11.236   1.568
39103SOL     OW19205  14.054   8.669  13.288
39103SOL    HW119206  14.087   8.758  13.297
39103SOL    HW219207  13.963   8.674  13.317
39104SOL     OW19208   8.325   2.632   0.854
39104SOL    HW119209   8.420   2.624   0.844
39104SOL    HW219210   8.305   2.722   0.828
39105SOL     OW19211  11.119   2.340   0.751
39105SOL    HW119212  11.161   2.314   0.669
39105SOL    HW219213  11.056   2.270   0.769
39106SOL     OW19214  12.655  14.194  11.762
39106SOL    HW119215  12.715  14.259  11.799
39106SOL    HW219216  12.693  14.110  11.786
39107SOL     OW19217   2.225  11.217   6.334
39107SOL    HW119218   2.284  11.223   6.258
39107SOL    HW219219   2.179  11.134   6.322
39108SOL     OW19220  13.449   8.702   2.354
39108SOL    HW119221  13.540   8.731   2.342
39108SOL    HW219222  13.434   8.707   2.448
39109SOL     OW19223  13.849   1.835   3.506
39109SOL    HW119224  13.889   1.757   3.543
39109SOL    HW219225  13.911   1.865   3.440
39110SOL     OW19226   8.304   3.143   5.709
39110SOL    HW119227   8.273   3.231   5.731
39110SOL    HW219228   8.263   3.123   5.625
39111SOL     OW19229   8.432   2.442   6.695
39111SOL    HW119230   8.499   2.380   6.668
39111SOL    HW219231   8.369   2.390   6.744
39112SOL     OW19232   7.959   8.289   1.144
39112SOL    HW119233   8.004   8.305   1.227
39112SOL    HW219234   7.867   8.282   1.168
39113SOL     OW19235  14.621   0.425  12.192
39113SOL    HW119236  14.622   0.452  12.284
39113SOL    HW219237  14.623   0.329  12.195
39114SOL     OW19238   1.027   8.120   5.336
39114SOL    HW119239   0.936   8.123   5.307
39114SOL    HW219240   1.059   8.209   5.325
39115SOL     OW19241  11.248   0.628  10.561
39115SOL    HW119242  11.215   0.647  10.649
39115SOL    HW219243  11.180   0.661  10.503
39116SOL     OW19244   8.722   2.803   2.679
39116SOL    HW119245   8.724   2.746   2.602
39116SOL    HW219246   8.798   2.778   2.731
39117SOL     OW19247   0.071  13.865   2.561
39117SOL    HW119248   0.000  13.861   2.497
39117SOL    HW219249   0.143  13.907   2.514
39118SOL     OW19250  10.084  12.667   7.506
39118SOL    HW119251  10.009  12.608   7.514
39118SOL    HW219252  10.065  12.738   7.568
39119SOL     OW19253   8.467   9.216   7.227
39119SOL    HW119254   8.448   9.242   7.137
39119SOL    HW219255   8.534   9.149   7.220
39120SOL     OW19256   8.936   2.770   2.329
39120SOL    HW119257   8.843   2.767   2.351
39120SOL    HW219258   8.940   2.818   2.247
39121SOL     OW19259  12.677  14.035   4.061
39121SOL    HW119260  12.688  14.128   4.081
39121SOL    HW219261  12.603  14.032   4.000
39122SOL     OW19262   8.234   1.372   5.053
39122SOL    HW119263   8.244   1.429   4.977
39122SOL    HW219264   8.285   1.414   5.122
39123SOL     OW19265   9.489   9.179  12.228
39123SOL    HW119266   9.506   9.099  12.278
39123SOL    HW219267   9.418   9.156  12.169
39124SOL     OW19268   9.939   5.558   2.068
39124SOL    HW119269  10.030   5.532   2.055
39124SOL    HW219270   9.908   5.579   1.979
39125SOL     OW19271   3.475   5.529  13.868
39125SOL    HW119272   3.418   5.487  13.804
39125SOL    HW219273   3.557   5.544  13.820
39126SOL     OW19274   2.109   1.093   8.584
39126SOL    HW119275   2.052   1.021   8.612
39126SOL    HW219276   2.146   1.064   8.501
39127SOL     OW19277   3.391  11.817   6.670
39127SOL    HW119278   3.358  11.772   6.592
39127SOL    HW219279   3.465  11.764   6.699
39128SOL     OW19280  10.071   2.948  14.180
39128SOL    HW119281  10.020   3.027  14.199
39128SOL    HW219282  10.007   2.878  14.172
39129SOL     OW19283   2.670   4.690   2.381
39129SOL    HW119284   2.734   4.620   2.367
39129SOL    HW219285   2.653   4.724   2.293
39130SOL     OW19286   2.730  10.770  11.357
39130SOL    HW119287   2.770  10.788  11.442
39130SOL    HW219288   2.772  10.832  11.297
39131SOL     OW19289   6.456   4.963  11.140
39131SOL    HW119290   6.474   4.914  11.060
39131SOL    HW219291   6.360   4.974  11.140
39132SOL     OW19292   8.383   7.130   6.511
39132SOL    HW119293   8.470   7.100   6.535
39132SOL    HW219294   8.351   7.176   6.588
39133SOL     OW19295  12.115   4.455   1.174
39133SOL    HW119296  12.156   4.527   1.222
39133SOL    HW219297  12.087   4.494   1.092
39134SOL     OW19298   8.290  12.572   3.626
39134SOL    HW119299   8.221  12.544   3.686
39134SOL    HW219300   8.304  12.665   3.646
39135SOL     OW19301  13.112   3.247  13.836
39135SOL    HW119302  13.166   3.231  13.759
39135SOL    HW219303  13.024   3.260  13.802
39136SOL     OW19304   0.988   4.092   0.489
39136SOL    HW119305   0.909   4.038   0.488
39136SOL    HW219306   0.986   4.139   0.406
39137SOL     OW19307  12.092   1.421   9.116
39137SOL    HW119308  12.129   1.347   9.067
39137SOL    HW219309  11.999   1.399   9.126
39138SOL     OW19310   8.006   5.878  11.940
39138SOL    HW119311   8.048   5.960  11.966
39138SOL    HW219312   8.069   5.836  11.882
39139SOL     OW19313  13.535  11.116   4.783
39139SOL    HW119314  13.504  11.054   4.848
39139SOL    HW219315  13.536  11.200   4.828
39140SOL     OW19316   3.419   7.263   3.560
39140SOL    HW119317   3.356   7.192   3.551
39140SOL    HW219318   3.496   7.233   3.511
39141SOL     OW19319   1.804   1.815   4.445
39141SOL    HW119320   1.885   1.765   4.437
39141SOL    HW219321   1.817   1.871   4.522
39142SOL     OW19322  10.055  11.596   6.410
39142SOL    HW119323  10.035  11.649   6.333
39142SOL    HW219324  10.039  11.506   6.382
39143SOL     OW19325  11.736   0.308   5.789
39143SOL    HW119326  11.770   0.276   5.873
39143SOL    HW219327  11.733   0.230   5.734
39144SOL     OW19328  13.678   0.740  13.956
39144SOL    HW119329  13.687   0.825  14.000
39144SOL    HW219330  13.588   0.739  13.924
39145SOL     OW19331   3.192  13.574   5.233
39145SOL    HW119332   3.247  13.585   5.155
39145SOL    HW219333   3.107  13.546   5.198
39146SOL     OW19334   6.165   3.110   2.448
39146SOL    HW119335   6.129   3.094   2.361
39146SOL    HW219336   6.088   3.128   2.503
39147SOL     OW19337   4.041  13.661  14.504
39147SOL    HW119338   4.030  13.569  14.529
39147SOL    HW219339   4.085  13.658  14.420
39148SOL     OW19340   1.191   1.829  10.628
39148SOL    HW119341   1.275   1.836  10.583
39148SOL    HW219342   1.132   1.789  10.563
39149SOL     OW19343  10.539   6.581  14.119
39149SOL    HW119344  10.543   6.661  14.067
39149SOL    HW219345  10.590   6.601  14.198
39150SOL     OW19346  13.537  10.318   4.888
39150SOL    HW119347  13.490  10.235   4.884
39150SOL    HW219348  13.481  10.379   4.840
39151SOL     OW19349   1.808   5.056  11.750
39151SOL    HW119350   1.819   5.115  11.825
39151SOL    HW219351   1.715   5.063  11.727
39152SOL     OW19352  10.167   9.679   7.370
39152SOL    HW119353  10.231   9.734   7.325
39152SOL    HW219354  10.094   9.738   7.389
39153SOL     OW19355   0.330   8.699  10.825
39153SOL    HW119356   0.254   8.672  10.876
39153SOL    HW219357   0.318   8.792  10.810
39154SOL     OW19358   9.685   1.432   7.999
39154SOL    HW119359   9.740   1.506   8.024
39154SOL    HW219360   9.622   1.424   8.071
39155SOL     OW19361  13.079  11.127  14.231
39155SOL    HW119362  13.132  11.090  14.161
39155SOL    HW219363  12.998  11.077  14.229
39156SOL     OW19364   7.833   0.770   4.517
39156SOL    HW119365   7.917   0.749   4.474
39156SOL    HW219366   7.785   0.821   4.451
39157SOL     OW19367   2.456  13.088  14.327
39157SOL    HW119368   2.407  13.013  14.295
39157SOL    HW219369   2.537  13.052  14.363
39158SOL     OW19370   7.584  13.917   8.807
39158SOL    HW119371   7.641  13.841   8.792
39158SOL    HW219372   7.603  13.976   8.734
39159SOL     OW19373   0.917   8.154   9.158
39159SOL    HW119374   0.959   8.082   9.204
39159SOL    HW219375   0.858   8.113   9.096
39160SOL     OW19376   5.677  12.939  13.445
39160SOL    HW119377   5.733  12.921  13.521
39160SOL    HW219378   5.730  12.998  13.391
39161SOL     OW19379  10.092   1.185   9.763
39161SOL    HW119380  10.126   1.256   9.709
39161SOL    HW219381  10.009   1.161   9.722
39162SOL     OW19382   6.424   0.579   9.810
39162SOL    HW119383   6.383   0.495   9.831
39162SOL    HW219384   6.455   0.612   9.894
39163SOL     OW19385  10.043  11.247   7.766
39163SOL    HW119386  10.041  11.231   7.861
39163SOL    HW219387  10.097  11.325   7.756
39164SOL     OW19388   3.016  11.941   8.951
39164SOL    HW119389   2.995  11.850   8.929
39164SOL    HW219390   2.955  11.963   9.021
39165SOL     OW19391   0.846  11.825  10.124
39165SOL    HW119392   0.883  11.782  10.047
39165SOL    HW219393   0.888  11.911  10.126
39166SOL     OW19394  10.911   4.088   3.604
39166SOL    HW119395  10.955   4.160   3.650
39166SOL    HW219396  10.819   4.112   3.603
39167SOL     OW19397  10.783  13.394   4.353
39167SOL    HW119398  10.782  13.486   4.380
39167SOL    HW219399  10.798  13.397   4.258
39168SOL     OW19400   7.274   0.836   1.619
39168SOL    HW119401   7.197   0.812   1.568
39168SOL    HW219402   7.306   0.754   1.656
39169SOL     OW19403  14.195  14.706   5.064
39169SOL    HW119404  14.226  14.724   5.153
39169SOL    HW219405  14.257  14.753   5.008
39170SOL     OW19406   6.501   0.016  12.703
39170SOL    HW119407   6.565  14.839  12.652
39170SOL    HW219408   6.435   0.044  12.639
39171SOL     OW19409   6.140  14.505   7.885
39171SOL    HW119410   6.200  14.437   7.854
39171SOL    HW219411   6.185  14.587   7.867
39172SOL     OW19412   9.629   6.879  10.691
39172SOL    HW119413   9.633   6.785  10.676
39172SOL    HW219414   9.615   6.917  10.604
39173SOL     OW19415  14.141   1.355   7.345
39173SOL    HW119416  14.066   1.405   7.314
39173SOL    HW219417  14.209   1.421   7.362
39174SOL     OW19418   2.603   8.415  10.772
39174SOL    HW119419   2.580   8.368  10.692
39174SOL    HW219420   2.643   8.349  10.829
39175SOL     OW19421   7.366   8.908   6.205
39175SOL    HW119422   7.376   8.944   6.293
39175SOL    HW219423   7.325   8.823   6.218
39176SOL     OW19424   5.004   4.585   0.549
39176SOL    HW119425   4.935   4.648   0.568
39176SOL    HW219426   5.086   4.632   0.566
39177SOL     OW19427  11.628   5.141   6.292
39177SOL    HW119428  11.545   5.175   6.258
39177SOL    HW219429  11.603   5.082   6.363
39178SOL     OW19430   3.870   1.163   4.957
39178SOL    HW119431   3.881   1.086   5.013
39178SOL    HW219432   3.845   1.128   4.872
39179SOL     OW19433   3.388  10.420  14.778
39179SOL    HW119434   3.405  10.348  14.838
39179SOL    HW219435   3.454  10.486  14.798
39180SOL     OW19436   8.861   6.292   6.366
39180SOL    HW119437   8.894   6.202   6.369
39180SOL    HW219438   8.794   6.296   6.434
39181SOL     OW19439   4.225  11.020   0.721
39181SOL    HW119440   4.274  11.044   0.799
39181SOL    HW219441   4.252  10.930   0.703
39182SOL     OW19442  11.350  11.481  13.981
39182SOL    HW119443  11.445  11.493  13.976
39182SOL    HW219444  11.337  11.406  14.039
39183SOL     OW19445  12.176  12.997   3.730
39183SOL    HW119446  12.224  13.072   3.696
39183SOL    HW219447  12.086  13.009   3.700
39184SOL     OW19448   4.465   7.510   6.940
39184SOL    HW119449   4.492   7.541   6.853
39184SOL    HW219450   4.531   7.445   6.964
39185SOL     OW19451   8.082  14.814   0.469
39185SOL    HW119452   8.088  14.869   0.548
39185SOL    HW219453   8.170  14.776   0.460
39186SOL     OW19454   3.718   4.391  10.936
39186SOL    HW119455   3.732   4.297  10.923
39186SOL    HW219456   3.738   4.405  11.029
39187SOL     OW19457   1.304   4.291   9.648
39187SOL    HW119458   1.372   4.357   9.664
39187SOL    HW219459   1.223   4.342   9.642
39188SOL     OW19460   9.427   2.596   9.752
39188SOL    HW119461   9.347   2.645   9.770
39188SOL    HW219462   9.496   2.662   9.756
39189SOL     OW19463  10.632   1.937   7.000
39189SOL    HW119464  10.611   2.022   7.039
39189SOL    HW219465  10.693   1.897   7.062
39190SOL     OW19466   2.816   2.195   2.271
39190SOL    HW119467   2.747   2.171   2.333
39190SOL    HW219468   2.862   2.268   2.312
39191SOL     OW19469   2.606  14.294   6.052
39191SOL    HW119470   2.563  14.363   6.000
39191SOL    HW219471   2.691  14.284   6.011
39192SOL     OW19472   5.417   6.908   7.725
39192SOL    HW119473   5.482   6.957   7.774
39192SOL    HW219474   5.359   6.871   7.792
39193SOL     OW19475  13.475  13.412   6.821
39193SOL    HW119476  13.400  13.465   6.848
39193SOL    HW219477  13.492  13.440   6.731
39194SOL     OW19478   4.102  10.411  11.137
39194SOL    HW119479   4.122  10.319  11.152
39194SOL    HW219480   4.006  10.415  11.136
39195SOL     OW19481  13.848  12.768   0.376
39195SOL    HW119482  13.811  12.683   0.398
39195SOL    HW219483  13.913  12.748   0.308
39196SOL     OW19484   3.145   8.203   5.380
39196SOL    HW119485   3.119   8.239   5.295
39196SOL    HW219486   3.191   8.122   5.358
39197SOL     OW19487   8.251   3.718   6.627
39197SOL    HW119488   8.177   3.704   6.685
39197SOL    HW219489   8.239   3.655   6.556
39198SOL     OW19490  14.851   3.398   5.084
39198SOL    HW119491  14.813   3.451   5.154
39198SOL    HW219492   0.036   3.460   5.036
39199SOL     OW19493   3.032  14.641   2.040
39199SOL    HW119494   3.073  14.642   1.953
39199SOL    HW219495   3.090  14.696   2.094
39200SOL     OW19496   7.701   6.162   2.870
39200SOL    HW119497   7.720   6.071   2.894
39200SOL    HW219498   7.659   6.156   2.784
39201SOL     OW19499  10.580   8.639  14.211
39201SOL    HW119500  10.584   8.545  14.229
39201SOL    HW219501  10.630   8.651  14.130
39202SOL     OW19502   9.905   4.521   2.913
39202SOL    HW119503   9.976   4.558   2.965
39202SOL    HW219504   9.896   4.431   2.945
39203SOL     OW19505   0.584   2.640  10.276
39203SOL    HW119506   0.498   2.661  10.312
39203SOL    HW219507   0.599   2.708  10.210
39204SOL     OW19508   3.436  10.117  14.570
39204SOL    HW119509   3.429  10.201  14.526
39204SOL    HW219510   3.499  10.132  14.641
39205SOL     OW19511   5.290   1.081  12.326
39205SOL    HW119512   5.205   1.065  12.286
39205SOL    HW219513   5.289   1.030  12.407
39206SOL     OW19514  14.294   1.180   6.859
39206SOL    HW119515  14.216   1.234   6.851
39206SOL    HW219516  14.359   1.223   6.805
39207SOL     OW19517   4.898   8.336   8.775
39207SOL    HW119518   4.826   8.357   8.835
39207SOL    HW219519   4.977   8.353   8.826
39208SOL     OW19520   9.566   8.994  11.864
39208SOL    HW119521   9.556   9.088  11.876
39208SOL    HW219522   9.633   8.985  11.796
39209SOL     OW19523  10.564   2.273   2.644
39209SOL    HW119524  10.554   2.341   2.710
39209SOL    HW219525  10.475   2.238   2.632
39210SOL     OW19526  11.455   6.023   1.924
39210SOL    HW119527  11.456   5.985   2.012
39210SOL    HW219528  11.419   5.954   1.868
39211SOL     OW19529   7.162   2.883  14.688
39211SOL    HW119530   7.117   2.960  14.722
39211SOL    HW219531   7.236   2.870  14.747
39212SOL     OW19532  10.171   6.342  10.101
39212SOL    HW119533  10.125   6.286  10.037
39212SOL    HW219534  10.193   6.283  10.173
39213SOL     OW19535  14.344   0.297  10.354
39213SOL    HW119536  14.291   0.347  10.292
39213SOL    HW219537  14.428   0.342  10.356
39214SOL     OW19538   9.000  14.219  13.096
39214SOL    HW119539   9.002  14.314  13.083
39214SOL    HW219540   8.998  14.184  13.007
39215SOL     OW19541   2.189   1.608  13.405
39215SOL    HW119542   2.214   1.614  13.312
39215SOL    HW219543   2.114   1.668  13.413
39216SOL     OW19544   4.709  10.811   2.247
39216SOL    HW119545   4.735  10.896   2.283
39216SOL    HW219546   4.618  10.823   2.222
39217SOL     OW19547   2.010  13.517  10.404
39217SOL    HW119548   1.920  13.547  10.417
39217SOL    HW219549   2.000  13.429  10.367
39218SOL     OW19550   8.072  12.079  14.821
39218SOL    HW119551   8.001  12.024  14.854
39218SOL    HW219552   8.090  12.044  14.734
39219SOL     OW19553  11.048   1.350   1.842
39219SOL    HW119554  11.046   1.442   1.815
39219SOL    HW219555  11.139   1.323   1.827
39220SOL     OW19556   4.285   5.040   8.924
39220SOL    HW119557   4.282   5.040   9.020
39220SOL    HW219558   4.355   5.102   8.903
39221SOL     OW19559   7.754   3.781   4.830
39221SOL    HW119560   7.849   3.790   4.843
39221SOL    HW219561   7.724   3.734   4.908
39222SOL     OW19562   2.593   5.235   6.364
39222SOL    HW119563   2.623   5.209   6.277
39222SOL    HW219564   2.673   5.243   6.416
39223SOL     OW19565   8.903   2.600   8.003
39223SOL    HW119566   8.989   2.560   8.017
39223SOL    HW219567   8.897   2.668   8.070
39224SOL     OW19568   3.467  11.031   9.842
39224SOL    HW119569   3.475  10.938   9.821
39224SOL    HW219570   3.433  11.071   9.763
39225SOL     OW19571   3.364  10.335  13.836
39225SOL    HW119572   3.409  10.284  13.769
39225SOL    HW219573   3.338  10.270  13.902
39226SOL     OW19574   8.546  13.295   0.884
39226SOL    HW119575   8.627  13.345   0.883
39226SOL    HW219576   8.536  13.263   0.794
39227SOL     OW19577   1.050   0.955  13.672
39227SOL    HW119578   1.093   0.939  13.588
39227SOL    HW219579   0.977   1.013  13.652
39228SOL     OW19580   6.422   3.334  10.296
39228SOL    HW119581   6.421   3.409  10.237
39228SOL    HW219582   6.507   3.293  10.282
39229SOL     OW19583   3.111  11.952   7.749
39229SOL    HW119584   3.074  12.038   7.730
39229SOL    HW219585   3.038  11.901   7.783
39230SOL     OW19586   5.393  14.030  12.019
39230SOL    HW119587   5.341  13.959  12.056
39230SOL    HW219588   5.371  14.107  12.072
39231SOL     OW19589   7.315   1.600   6.879
39231SOL    HW119590   7.345   1.570   6.965
39231SOL    HW219591   7.371   1.554   6.817
39232SOL     OW19592   2.240   9.102   4.151
39232SOL    HW119593   2.172   9.102   4.218
39232SOL    HW219594   2.193   9.118   4.069
39233SOL     OW19595   5.805  14.610  11.838
39233SOL    HW119596   5.763  14.650  11.762
39233SOL    HW219597   5.737  14.608  11.905
39234SOL     OW19598   2.450  14.606   8.181
39234SOL    HW119599   2.370  14.601   8.232
39234SOL    HW219600   2.451  14.695   8.146
39235SOL     OW19601  12.043   7.519  10.003
39235SOL    HW119602  11.956   7.479   9.992
39235SOL    HW219603  12.104   7.450   9.976
39236SOL     OW19604   4.456   0.296   7.457
39236SOL    HW119605   4.538   0.290   7.408
39236SOL    HW219606   4.393   0.247   7.404
39237SOL     OW19607   1.640   8.568   2.680
39237SOL    HW119608   1.615   8.522   2.760
39237SOL    HW219609   1.613   8.659   2.696
39238SOL     OW19610   5.798  14.396  10.674
39238SOL    HW119611   5.727  14.421  10.734
39238SOL    HW219612   5.785  14.302  10.662
39239SOL     OW19613   4.395   8.759   5.182
39239SOL    HW119614   4.418   8.725   5.096
39239SOL    HW219615   4.312   8.805   5.169
39240SOL     OW19616  10.525  11.333  10.617
39240SOL    HW119617  10.614  11.332  10.582
39240SOL    HW219618  10.490  11.418  10.592
39241SOL     OW19619   3.703   4.582   8.978
39241SOL    HW119620   3.635   4.520   8.952
39241SOL    HW219621   3.656   4.654   9.020
39242SOL     OW19622  12.222   1.004  12.400
39242SOL    HW119623  12.149   1.046  12.447
39242SOL    HW219624  12.186   0.921  12.370
39243SOL     OW19625   1.757  12.699   5.061
39243SOL    HW119626   1.787  12.608   5.063
39243SOL    HW219627   1.746  12.719   4.968
39244SOL     OW19628  13.710   6.691   8.103
39244SOL    HW119629  13.798   6.653   8.101
39244SOL    HW219630  13.652   6.619   8.079
39245SOL     OW19631   4.212  10.001   0.624
39245SOL    HW119632   4.254   9.928   0.669
39245SOL    HW219633   4.143   9.960   0.571
39246SOL     OW19634   9.794  13.062   4.815
39246SOL    HW119635   9.868  13.013   4.778
39246SOL    HW219636   9.720  13.002   4.808
39247SOL     OW19637  14.354  13.866   3.479
39247SOL    HW119638  14.323  13.878   3.569
39247SOL    HW219639  14.449  13.867   3.487
39248SOL     OW19640   5.643   3.493   7.724
39248SOL    HW119641   5.622   3.399   7.725
39248SOL    HW219642   5.623   3.523   7.813
39249SOL     OW19643   6.845   5.074  12.369
39249SOL    HW119644   6.910   5.105  12.306
39249SOL    HW219645   6.847   5.139  12.439
39250SOL     OW19646   2.657   7.925   1.203
39250SOL    HW119647   2.641   8.014   1.236
39250SOL    HW219648   2.586   7.873   1.240
39251SOL     OW19649  12.054   6.695  10.458
39251SOL    HW119650  12.074   6.732  10.372
39251SOL    HW219651  12.129   6.718  10.512
39252SOL     OW19652  12.589   5.511  11.629
39252SOL    HW119653  12.542   5.436  11.593
39252SOL    HW219654  12.633   5.550  11.554
39253SOL     OW19655  11.668   5.946   4.112
39253SOL    HW119656  11.744   5.919   4.060
39253SOL    HW219657  11.677   6.041   4.119
39254SOL     OW19658  10.193  13.935  14.541
39254SOL    HW119659  10.201  13.918  14.635
39254SOL    HW219660  10.251  13.870  14.501
39255SOL     OW19661   6.043  11.622  11.008
39255SOL    HW119662   5.950  11.607  11.025
39255SOL    HW219663   6.084  11.536  11.017
39256SOL     OW19664  13.975  12.685   3.807
39256SOL    HW119665  13.904  12.723   3.754
39256SOL    HW219666  14.055  12.712   3.762
39257SOL     OW19667   7.940   5.562   7.806
39257SOL    HW119668   7.881   5.550   7.732
39257SOL    HW219669   7.901   5.510   7.876
39258SOL     OW19670  14.057  10.216   3.257
39258SOL    HW119671  14.049  10.310   3.240
39258SOL    HW219672  13.967  10.187   3.273
39259SOL     OW19673   1.508   5.711   5.493
39259SOL    HW119674   1.574   5.649   5.524
39259SOL    HW219675   1.552   5.796   5.494
39260SOL     OW19676   2.609   8.180   9.995
39260SOL    HW119677   2.626   8.266  10.033
39260SOL    HW219678   2.690   8.131  10.009
39261SOL     OW19679   5.032   0.242  13.882
39261SOL    HW119680   4.953   0.224  13.832
39261SOL    HW219681   5.001   0.286  13.961
39262SOL     OW19682   6.698   0.065   6.108
39262SOL    HW119683   6.723   0.146   6.153
39262SOL    HW219684   6.654   0.013   6.176
39263SOL     OW19685  10.970  13.789   7.492
39263SOL    HW119686  10.966  13.819   7.583
39263SOL    HW219687  10.919  13.855   7.444
39264SOL     OW19688  13.599   0.026  13.661
39264SOL    HW119689  13.552   0.081  13.599
39264SOL    HW219690  13.681   0.073  13.678
39265SOL     OW19691   3.421   7.358   8.742
39265SOL    HW119692   3.392   7.325   8.657
39265SOL    HW219693   3.505   7.314   8.756
39266SOL     OW19694  11.488   8.721   0.696
39266SOL    HW119695  11.468   8.628   0.679
39266SOL    HW219696  11.416   8.750   0.753
39267SOL     OW19697  10.701   6.646   2.504
39267SOL    HW119698  10.718   6.732   2.466
39267SOL    HW219699  10.618   6.618   2.466
39268SOL     OW19700  12.324   5.607   1.360
39268SOL    HW119701  12.229   5.596   1.352
39268SOL    HW219702  12.347   5.671   1.292
39269SOL     OW19703   3.408   8.788   2.231
39269SOL    HW119704   3.424   8.880   2.250
39269SOL    HW219705   3.454   8.740   2.299
39270SOL     OW19706   5.584   3.295  14.073
39270SOL    HW119707   5.580   3.199  14.080
39270SOL    HW219708   5.541   3.327  14.151
39271SOL     OW19709  13.586  10.458   2.499
39271SOL    HW119710  13.556  10.494   2.583
39271SOL    HW219711  13.541  10.511   2.433
39272SOL     OW19712   0.392  11.205   7.840
39272SOL    HW119713   0.475  11.224   7.796
39272SOL    HW219714   0.402  11.244   7.926
39273SOL     OW19715   5.455  10.470  10.635
39273SOL    HW119716   5.480  10.454  10.544
39273SOL    HW219717   5.380  10.413  10.650
39274SOL     OW19718  11.276   2.091   4.389
39274SOL    HW119719  11.305   2.028   4.323
39274SOL    HW219720  11.283   2.044   4.472
39275SOL     OW19721   1.588   5.717  13.159
39275SOL    HW119722   1.643   5.755  13.228
39275SOL    HW219723   1.563   5.792  13.105
39276SOL     OW19724  13.998   9.193   2.593
39276SOL    HW119725  14.017   9.275   2.549
39276SOL    HW219726  14.083   9.150   2.604
39277SOL     OW19727   4.231  10.643   9.748
39277SOL    HW119728   4.234  10.655   9.843
39277SOL    HW219729   4.158  10.698   9.719
39278SOL     OW19730  11.946   9.223   5.475
39278SOL    HW119731  12.006   9.292   5.448
39278SOL    HW219732  11.941   9.232   5.571
39279SOL     OW19733   8.987  12.960   0.152
39279SOL    HW119734   9.009  13.048   0.180
39279SOL    HW219735   9.071  12.917   0.138
39280SOL     OW19736   7.535   7.553   9.081
39280SOL    HW119737   7.507   7.639   9.112
39280SOL    HW219738   7.468   7.527   9.018
39281SOL     OW19739   7.663   6.322   9.674
39281SOL    HW119740   7.633   6.233   9.655
39281SOL    HW219741   7.731   6.340   9.609
39282SOL     OW19742  12.793  11.334   9.318
39282SOL    HW119743  12.770  11.417   9.276
39282SOL    HW219744  12.712  11.304   9.359
39283SOL     OW19745  13.028   8.031   5.553
39283SOL    HW119746  13.036   8.119   5.590
39283SOL    HW219747  12.963   7.988   5.609
39284SOL     OW19748  12.328   9.633  11.171
39284SOL    HW119749  12.365   9.546  11.189
39284SOL    HW219750  12.293   9.626  11.082
39285SOL     OW19751  14.270   8.815   3.830
39285SOL    HW119752  14.179   8.791   3.845
39285SOL    HW219753  14.280   8.900   3.874
39286SOL     OW19754   6.938   2.525   2.304
39286SOL    HW119755   6.929   2.512   2.399
39286SOL    HW219756   6.939   2.437   2.268
39287SOL     OW19757   6.741  12.650   4.877
39287SOL    HW119758   6.802  12.649   4.803
39287SOL    HW219759   6.771  12.579   4.933
39288SOL     OW19760   3.248  11.835   9.782
39288SOL    HW119761   3.173  11.846   9.840
39288SOL    HW219762   3.223  11.879   9.701
39289SOL     OW19763   7.402  11.529   2.793
39289SOL    HW119764   7.316  11.553   2.827
39289SOL    HW219765   7.388  11.444   2.752
39290SOL     OW19766  14.574   6.860   3.385
39290SOL    HW119767  14.609   6.932   3.333
39290SOL    HW219768  14.515   6.902   3.447
39291SOL     OW19769   0.326  13.443   7.613
39291SOL    HW119770   0.375  13.478   7.688
39291SOL    HW219771   0.293  13.359   7.644
39292SOL     OW19772   7.470  12.976  13.984
39292SOL    HW119773   7.512  12.907  14.035
39292SOL    HW219774   7.386  12.939  13.958
39293SOL     OW19775   0.488  13.440   9.946
39293SOL    HW119776   0.483  13.487  10.029
39293SOL    HW219777   0.429  13.487   9.888
39294SOL     OW19778  11.471  14.580  13.349
39294SOL    HW119779  11.403  14.513  13.351
39294SOL    HW219780  11.423  14.662  13.335
39295SOL     OW19781  12.896   3.551   0.062
39295SOL    HW119782  12.823   3.581   0.008
39295SOL    HW219783  12.965   3.616   0.048
39296SOL     OW19784   2.312   3.630  10.817
39296SOL    HW119785   2.349   3.600  10.734
39296SOL    HW219786   2.251   3.700  10.793
39297SOL     OW19787  13.351   0.944   9.587
39297SOL    HW119788  13.410   0.936   9.661
39297SOL    HW219789  13.278   0.887   9.608
39298SOL     OW19790   1.420   8.542   5.475
39298SOL    HW119791   1.444   8.625   5.432
39298SOL    HW219792   1.375   8.569   5.555
39299SOL     OW19793  14.273  10.016   3.363
39299SOL    HW119794  14.212  10.089   3.366
39299SOL    HW219795  14.346  10.046   3.309
39300SOL     OW19796   7.442   5.239   4.194
39300SOL    HW119797   7.431   5.221   4.288
39300SOL    HW219798   7.426   5.333   4.186
39301SOL     OW19799   1.879   9.263   3.117
39301SOL    HW119800   1.817   9.190   3.113
39301SOL    HW219801   1.962   9.226   3.087
39302SOL     OW19802   8.852  13.609  12.078
39302SOL    HW119803   8.782  13.660  12.119
39302SOL    HW219804   8.842  13.624  11.985
39303SOL     OW19805  13.772   9.373   6.911
39303SOL    HW119806  13.776   9.396   6.818
39303SOL    HW219807  13.761   9.457   6.956
39304SOL     OW19808   6.819   5.746  12.698
39304SOL    HW119809   6.740   5.705  12.663
39304SOL    HW219810   6.820   5.720  12.790
39305SOL     OW19811  11.023   9.003   8.572
39305SOL    HW119812  11.117   9.003   8.587
39305SOL    HW219813  10.984   8.998   8.659
39306SOL     OW19814   7.166   0.751   0.083
39306SOL    HW119815   7.172   0.772  14.862
39306SOL    HW219816   7.176   0.836   0.127
39307SOL     OW19817   4.483  11.129   4.081
39307SOL    HW119818   4.531  11.163   4.005
39307SOL    HW219819   4.429  11.059   4.045
39308SOL     OW19820   6.139  10.258   5.557
39308SOL    HW119821   6.053  10.240   5.519
39308SOL    HW219822   6.134  10.226   5.647
39309SOL     OW19823   8.912   8.403  12.852
39309SOL    HW119824   8.886   8.338  12.917
39309SOL    HW219825   8.847   8.473  12.861
39310SOL     OW19826  11.530  13.411  12.444
39310SOL    HW119827  11.577  13.472  12.501
39310SOL    HW219828  11.449  13.392  12.491
39311SOL     OW19829   7.495   9.157   2.470
39311SOL    HW119830   7.470   9.117   2.553
39311SOL    HW219831   7.585   9.128   2.455
39312SOL     OW19832  11.316  13.132   1.474
39312SOL    HW119833  11.379  13.094   1.413
39312SOL    HW219834  11.285  13.211   1.430
39313SOL     OW19835   4.190   1.376  14.521
39313SOL    HW119836   4.115   1.421  14.559
39313SOL    HW219837   4.227   1.438  14.458
39314SOL     OW19838   6.939   4.993   7.080
39314SOL    HW119839   6.992   5.013   7.003
39314SOL    HW219840   6.882   5.070   7.089
39315SOL     OW19841   8.576   8.292   8.880
39315SOL    HW119842   8.599   8.211   8.834
39315SOL    HW219843   8.656   8.318   8.925
39316SOL     OW19844   4.405  12.101   4.807
39316SOL    HW119845   4.441  12.145   4.884
39316SOL    HW219846   4.470  12.115   4.738
39317SOL     OW19847   6.652  10.852   7.286
39317SOL    HW119848   6.667  10.797   7.209
39317SOL    HW219849   6.557  10.861   7.291
39318SOL     OW19850   2.841   4.598   5.626
39318SOL    HW119851   2.868   4.679   5.669
39318SOL    HW219852   2.877   4.605   5.538
39319SOL     OW19853   5.766   4.619  13.527
39319SOL    HW119854   5.694   4.651  13.582
39319SOL    HW219855   5.750   4.525  13.520
39320SOL     OW19856   8.362  10.971   8.718
39320SOL    HW119857   8.306  10.938   8.648
39320SOL    HW219858   8.339  11.063   8.726
39321SOL     OW19859   9.228   0.201   4.487
39321SOL    HW119860   9.140   0.237   4.481
39321SOL    HW219861   9.238   0.149   4.407
39322SOL     OW19862  14.500  12.719  10.870
39322SOL    HW119863  14.559  12.702  10.944
39322SOL    HW219864  14.438  12.784  10.903
39323SOL     OW19865   6.286   8.971   6.582
39323SOL    HW119866   6.197   9.006   6.576
39323SOL    HW219867   6.274   8.876   6.582
39324SOL     OW19868   2.136  10.817   2.315
39324SOL    HW119869   2.205  10.794   2.377
39324SOL    HW219870   2.065  10.850   2.370
39325SOL     OW19871   8.892   8.953  13.014
39325SOL    HW119872   8.823   8.891  12.989
39325SOL    HW219873   8.877   9.029  12.957
39326SOL     OW19874  12.679  13.112   9.595
39326SOL    HW119875  12.654  13.020   9.588
39326SOL    HW219876  12.675  13.145   9.506
39327SOL     OW19877   2.018   8.883   6.843
39327SOL    HW119878   1.981   8.962   6.803
39327SOL    HW219879   1.950   8.854   6.904
39328SOL     OW19880   6.674  13.631   7.250
39328SOL    HW119881   6.751  13.665   7.205
39328SOL    HW219882   6.699  13.630   7.342
39329SOL     OW19883  10.431   7.479   6.587
39329SOL    HW119884  10.358   7.419   6.606
39329SOL    HW219885  10.391   7.565   6.580
39330SOL     OW19886   7.638   0.664  13.128
39330SOL    HW119887   7.669   0.727  13.064
39330SOL    HW219888   7.664   0.579  13.093
39331SOL     OW19889   3.527   5.129   2.738
39331SOL    HW119890   3.575   5.119   2.656
39331SOL    HW219891   3.582   5.086   2.803
39332SOL     OW19892   5.396   6.629   0.458
39332SOL    HW119893   5.355   6.546   0.483
39332SOL    HW219894   5.470   6.638   0.517
39333SOL     OW19895   4.455   7.643  13.226
39333SOL    HW119896   4.491   7.589  13.296
39333SOL    HW219897   4.529   7.696  13.195
39334SOL     OW19898   6.394   9.788   1.565
39334SOL    HW119899   6.327   9.807   1.630
39334SOL    HW219900   6.477   9.796   1.613
39335SOL     OW19901   4.464  12.462   5.147
39335SOL    HW119902   4.454  12.370   5.170
39335SOL    HW219903   4.511  12.501   5.221
39336SOL     OW19904   3.491   1.111   7.356
39336SOL    HW119905   3.452   1.051   7.291
39336SOL    HW219906   3.468   1.073   7.440
39337SOL     OW19907  12.836   8.793   9.592
39337SOL    HW119908  12.878   8.708   9.577
39337SOL    HW219909  12.841   8.837   9.507
39338SOL     OW19910  12.965  12.706   7.640
39338SOL    HW119911  12.927  12.664   7.717
39338SOL    HW219912  13.058  12.718   7.662
39339SOL     OW19913   6.277   1.971   5.623
39339SOL    HW119914   6.256   2.012   5.539
39339SOL    HW219915   6.226   2.020   5.687
39340SOL     OW19916   8.977   1.603  12.461
39340SOL    HW119917   8.956   1.622  12.370
39340SOL    HW219918   8.917   1.659  12.511
39341SOL     OW19919  14.412   0.356  14.548
39341SOL    HW119920  14.482   0.421  14.538
39341SOL    HW219921  14.348   0.379  14.482
39342SOL     OW19922   7.574  11.571   2.995
39342SOL    HW119923   7.541  11.552   2.907
39342SOL    HW219924   7.532  11.653   3.019
39343SOL     OW19925  13.368   7.415   1.583
39343SOL    HW119926  13.429   7.389   1.514
39343SOL    HW219927  13.422   7.466   1.644
39344SOL     OW19928  12.462  13.122   9.259
39344SOL    HW119929  12.549  13.142   9.291
39344SOL    HW219930  12.442  13.035   9.295
39345SOL     OW19931   7.657  12.537   6.313
39345SOL    HW119932   7.569  12.514   6.283
39345SOL    HW219933   7.643  12.582   6.397
39346SOL     OW19934  12.226   2.655  14.183
39346SOL    HW119935  12.273   2.728  14.222
39346SOL    HW219936  12.137   2.662  14.218
39347SOL     OW19937   1.379   1.997   0.156
39347SOL    HW119938   1.329   2.012   0.236
39347SOL    HW219939   1.314   1.975   0.090
39348SOL     OW19940  11.430   2.683  11.391
39348SOL    HW119941  11.471   2.640  11.466
39348SOL    HW219942  11.485   2.760  11.376
39349SOL     OW19943   4.183  12.277  10.359
39349SOL    HW119944   4.269  12.263  10.398
39349SOL    HW219945   4.196  12.351  10.299
39350SOL     OW19946  11.278   6.741   6.270
39350SOL    HW119947  11.231   6.696   6.199
39350SOL    HW219948  11.341   6.677   6.301
39351SOL     OW19949   3.205   3.264   0.118
39351SOL    HW119950   3.238   3.237   0.203
39351SOL    HW219951   3.223   3.358   0.115
39352SOL     OW19952   6.190   5.310   1.891
39352SOL    HW119953   6.260   5.284   1.952
39352SOL    HW219954   6.187   5.405   1.897
39353SOL     OW19955   7.546   4.383   4.463
39353SOL    HW119956   7.623   4.403   4.411
39353SOL    HW219957   7.475   4.433   4.423
39354SOL     OW19958   1.804  13.189   3.144
39354SOL    HW119959   1.877  13.238   3.182
39354SOL    HW219960   1.744  13.176   3.218
39355SOL     OW19961  14.445   4.830   3.420
39355SOL    HW119962  14.384   4.806   3.351
39355SOL    HW219963  14.532   4.818   3.381
39356SOL     OW19964  14.531   8.575  12.051
39356SOL    HW119965  14.552   8.526  12.130
39356SOL    HW219966  14.584   8.535  11.982
39357SOL     OW19967  12.604   1.196   6.662
39357SOL    HW119968  12.618   1.230   6.573
39357SOL    HW219969  12.601   1.274   6.717
39358SOL     OW19970  11.030   9.861   9.635
39358SOL    HW119971  10.955   9.877   9.577
39358SOL    HW219972  11.097   9.824   9.577
39359SOL     OW19973  12.470  12.430  14.524
39359SOL    HW119974  12.537  12.497  14.537
39359SOL    HW219975  12.435  12.413  14.611
39360SOL     OW19976  11.782   8.975   0.075
39360SOL    HW119977  11.687   8.963   0.079
39360SOL    HW219978  11.809   8.984   0.166
39361SOL     OW19979  11.584   0.209   1.443
39361SOL    HW119980  11.552   0.297   1.461
39361SOL    HW219981  11.575   0.199   1.348
39362SOL     OW19982   8.257   3.522   1.929
39362SOL    HW119983   8.253   3.616   1.946
39362SOL    HW219984   8.166   3.492   1.935
39363SOL     OW19985   7.602  13.447  13.267
39363SOL    HW119986   7.550  13.380  13.311
39363SOL    HW219987   7.595  13.524  13.324
39364SOL     OW19988   6.670   0.018  13.767
39364SOL    HW119989   6.593   0.006  13.823
39364SOL    HW219990   6.676  14.809  13.717
39365SOL     OW19991  14.758   3.317   9.614
39365SOL    HW119992  14.851   3.295   9.621
39365SOL    HW219993  14.748   3.392   9.673
39366SOL     OW19994   5.598  10.443   7.793
39366SOL    HW119995   5.509  10.442   7.756
39366SOL    HW219996   5.604  10.529   7.836
39367SOL     OW19997   6.300   9.504   1.516
39367SOL    HW119998   6.260   9.421   1.491
39367SOL    HW219999   6.227   9.567   1.516
39368SOL     OW20000  12.444   2.765   1.315
39368SOL    HW120001  12.410   2.713   1.242
39368SOL    HW220002  12.497   2.832   1.273
39369SOL     OW20003   2.223   1.950  13.433
39369SOL    HW120004   2.283   1.908  13.371
39369SOL    HW220005   2.140   1.904  13.421
39370SOL     OW20006   0.647   7.509   9.703
39370SOL    HW120007   0.708   7.558   9.758
39370SOL    HW220008   0.566   7.561   9.705
39371SOL     OW20009   2.388  13.926   3.467
39371SOL    HW120010   2.479  13.905   3.486
39371SOL    HW220011   2.338  13.885   3.538
39372SOL     OW20012   9.339  10.359   6.433
39372SOL    HW120013   9.427  10.393   6.414
39372SOL    HW220014   9.297  10.428   6.484
39373SOL     OW20015   2.737  13.244   1.659
39373SOL    HW120016   2.683  13.172   1.691
39373SOL    HW220017   2.678  13.297   1.606
39374SOL     OW20018   6.202   9.215   8.990
39374SOL    HW120019   6.135   9.280   8.971
39374SOL    HW220020   6.238   9.241   9.075
39375SOL     OW20021   4.121   5.387  14.497
39375SOL    HW120022   4.028   5.408  14.507
39375SOL    HW220023   4.123   5.292  14.483
39376SOL     OW20024   7.725   6.562   6.121
39376SOL    HW120025   7.687   6.576   6.035
39376SOL    HW220026   7.676   6.620   6.179
39377SOL     OW20027   9.014  11.031  10.358
39377SOL    HW120028   9.039  10.938  10.360
39377SOL    HW220029   8.957  11.039  10.282
39378SOL     OW20030   3.214   8.286   2.901
39378SOL    HW120031   3.183   8.369   2.938
39378SOL    HW220032   3.204   8.222   2.972
39379SOL     OW20033   6.675   2.014   8.114
39379SOL    HW120034   6.624   1.939   8.084
39379SOL    HW220035   6.668   2.077   8.043
39380SOL     OW20036   5.515  12.343   1.352
39380SOL    HW120037   5.547  12.375   1.268
39380SOL    HW220038   5.428  12.382   1.362
39381SOL     OW20039  12.127  13.340   8.368
39381SOL    HW120040  12.125  13.245   8.361
39381SOL    HW220041  12.122  13.357   8.462
39382SOL     OW20042   1.715  13.233   3.736
39382SOL    HW120043   1.725  13.259   3.828
39382SOL    HW220044   1.641  13.285   3.704
39383SOL     OW20045  13.207   5.984  14.706
39383SOL    HW120046  13.176   6.074  14.702
39383SOL    HW220047  13.186   5.954  14.794
39384SOL     OW20048  13.225   0.591   8.309
39384SOL    HW120049  13.234   0.570   8.216
39384SOL    HW220050  13.146   0.644   8.313
39385SOL     OW20051   8.786   5.770   5.672
39385SOL    HW120052   8.850   5.784   5.743
39385SOL    HW220053   8.775   5.675   5.669
39386SOL     OW20054   8.484  11.688   4.486
39386SOL    HW120055   8.416  11.740   4.528
39386SOL    HW220056   8.462  11.597   4.509
39387SOL     OW20057   7.089  14.697   7.246
39387SOL    HW120058   7.183  14.702   7.228
39387SOL    HW220059   7.076  14.608   7.279
39388SOL     OW20060  13.452   9.078  12.376
39388SOL    HW120061  13.451   8.991  12.414
39388SOL    HW220062  13.540   9.112  12.396
39389SOL     OW20063   9.044   4.237   6.188
39389SOL    HW120064   9.029   4.171   6.121
39389SOL    HW220065   9.002   4.316   6.154
39390SOL     OW20066  12.410  10.853  13.992
39390SOL    HW120067  12.417  10.892  13.905
39390SOL    HW220068  12.436  10.923  14.052
39391SOL     OW20069   0.184   6.652   2.397
39391SOL    HW120070   0.221   6.735   2.366
39391SOL    HW220071   0.260   6.599   2.421
39392SOL     OW20072   8.762   0.529   1.515
39392SOL    HW120073   8.835   0.527   1.577
39392SOL    HW220074   8.700   0.464   1.547
39393SOL     OW20075   1.671   6.866  10.243
39393SOL    HW120076   1.692   6.869  10.336
39393SOL    HW220077   1.662   6.773  10.223
39394SOL     OW20078   9.362   7.313   4.731
39394SOL    HW120079   9.338   7.403   4.754
39394SOL    HW220080   9.304   7.259   4.785
39395SOL     OW20081   3.125  13.337   9.079
39395SOL    HW120082   3.191  13.273   9.051
39395SOL    HW220083   3.044  13.308   9.038
39396SOL     OW20084   4.031   3.415  13.301
39396SOL    HW120085   3.976   3.417  13.223
39396SOL    HW220086   4.054   3.507  13.317
39397SOL     OW20087  12.200   4.457   7.818
39397SOL    HW120088  12.162   4.516   7.883
39397SOL    HW220089  12.259   4.512   7.767
39398SOL     OW20090   8.853   9.908  10.047
39398SOL    HW120091   8.947   9.926  10.035
39398SOL    HW220092   8.822   9.884   9.961
39399SOL     OW20093   7.066   8.249   5.850
39399SOL    HW120094   7.094   8.263   5.940
39399SOL    HW220095   7.024   8.163   5.851
39400SOL     OW20096  14.731   3.991   7.128
39400SOL    HW120097  14.649   4.009   7.174
39400SOL    HW220098  14.715   4.022   7.039
39401SOL     OW20099  12.616   5.282   6.411
39401SOL    HW120100  12.642   5.374   6.417
39401SOL    HW220101  12.692   5.234   6.445
39402SOL     OW20102  13.820   8.599   9.712
39402SOL    HW120103  13.816   8.619   9.806
39402SOL    HW220104  13.913   8.588   9.694
39403SOL     OW20105   4.745  12.553   9.415
39403SOL    HW120106   4.720  12.471   9.457
39403SOL    HW220107   4.827  12.577   9.456
39404SOL     OW20108  10.982   0.090  10.074
39404SOL    HW120109  10.916   0.038  10.029
39404SOL    HW220110  10.990   0.049  10.160
39405SOL     OW20111  10.560  10.800  13.420
39405SOL    HW120112  10.487  10.862  13.419
39405SOL    HW220113  10.638  10.856  13.431
39406SOL     OW20114   3.750   7.322   0.077
39406SOL    HW120115   3.665   7.340   0.117
39406SOL    HW220116   3.778   7.405   0.040
39407SOL     OW20117   9.917   1.767   6.578
39407SOL    HW120118   9.930   1.858   6.550
39407SOL    HW220119   9.915   1.718   6.496
39408SOL     OW20120   4.036   4.481  12.861
39408SOL    HW120121   3.947   4.495  12.828
39408SOL    HW220122   4.070   4.569  12.876
39409SOL     OW20123   0.110   4.140  11.087
39409SOL    HW120124   0.144   4.067  11.138
39409SOL    HW220125   0.154   4.217  11.124
39410SOL     OW20126   5.004  13.948  12.638
39410SOL    HW120127   5.048  14.016  12.587
39410SOL    HW220128   4.985  13.879  12.575
39411SOL     OW20129  11.134   9.204  12.438
39411SOL    HW120130  11.224   9.236  12.437
39411SOL    HW220131  11.105   9.211  12.347
39412SOL     OW20132  13.871   7.181   4.077
39412SOL    HW120133  13.941   7.242   4.053
39412SOL    HW220134  13.808   7.187   4.005
39413SOL     OW20135   2.104   0.595  12.010
39413SOL    HW120136   2.093   0.679  12.053
39413SOL    HW220137   2.190   0.564  12.039
39414SOL     OW20138   4.024   4.899   0.147
39414SOL    HW120139   4.048   4.965   0.212
39414SOL    HW220140   4.069   4.820   0.176
39415SOL     OW20141   7.156  13.985  13.234
39415SOL    HW120142   7.181  14.071  13.268
39415SOL    HW220143   7.157  13.927  13.310
39416SOL     OW20144   9.388   9.603   3.703
39416SOL    HW120145   9.452   9.668   3.732
39416SOL    HW220146   9.303   9.641   3.726
39417SOL     OW20147   0.212  12.100   2.847
39417SOL    HW120148   0.190  12.090   2.755
39417SOL    HW220149   0.295  12.149   2.847
39418SOL     OW20150   7.270   7.325   1.054
39418SOL    HW120151   7.316   7.408   1.070
39418SOL    HW220152   7.204   7.347   0.989
39419SOL     OW20153   3.942   4.571  10.333
39419SOL    HW120154   3.910   4.511  10.265
39419SOL    HW220155   3.864   4.594  10.383
39420SOL     OW20156   1.065  14.307   4.972
39420SOL    HW120157   1.092  14.270   4.888
39420SOL    HW220158   1.124  14.266   5.036
39421SOL     OW20159  14.595   3.129   0.826
39421SOL    HW120160  14.513   3.098   0.863
39421SOL    HW220161  14.581   3.127   0.731
39422SOL     OW20162  11.223   9.268  11.909
39422SOL    HW120163  11.311   9.287  11.942
39422SOL    HW220164  11.236   9.236  11.820
39423SOL     OW20165  12.303  14.468   1.693
39423SOL    HW120166  12.270  14.530   1.628
39423SOL    HW220167  12.230  14.408   1.708
39424SOL     OW20168   5.543   0.933   2.459
39424SOL    HW120169   5.604   0.991   2.504
39424SOL    HW220170   5.544   0.962   2.368
39425SOL     OW20171   6.271   9.595   2.153
39425SOL    HW120172   6.201   9.531   2.137
39425SOL    HW220173   6.335   9.578   2.084
39426SOL     OW20174  10.143  12.626   8.794
39426SOL    HW120175  10.076  12.632   8.862
39426SOL    HW220176  10.214  12.682   8.824
39427SOL     OW20177   4.694   5.916  14.205
39427SOL    HW120178   4.724   5.864  14.279
39427SOL    HW220179   4.635   5.859  14.157
39428SOL     OW20180  10.635  11.036   4.317
39428SOL    HW120181  10.558  11.082   4.284
39428SOL    HW220182  10.704  11.101   4.316
39429SOL     OW20183   2.761  10.703   2.889
39429SOL    HW120184   2.670  10.697   2.860
39429SOL    HW220185   2.756  10.721   2.983
39430SOL     OW20186   2.811   9.187   4.546
39430SOL    HW120187   2.800   9.179   4.640
39430SOL    HW220188   2.784   9.102   4.511
39431SOL     OW20189  10.007   3.408   4.113
39431SOL    HW120190  10.079   3.471   4.101
39431SOL    HW220191   9.945   3.429   4.044
39432SOL     OW20192   6.057   0.464   4.775
39432SOL    HW120193   6.133   0.444   4.721
39432SOL    HW220194   5.983   0.460   4.714
39433SOL     OW20195   1.448   3.014   1.718
39433SOL    HW120196   1.381   3.067   1.676
39433SOL    HW220197   1.531   3.053   1.689
39434SOL     OW20198   1.832  10.249   4.278
39434SOL    HW120199   1.916  10.292   4.261
39434SOL    HW220200   1.856  10.162   4.309
39435SOL     OW20201   9.287  14.746   8.714
39435SOL    HW120202   9.300  14.839   8.698
39435SOL    HW220203   9.203  14.725   8.672
39436SOL     OW20204   6.678   3.250  10.238
39436SOL    HW120205   6.685   3.288  10.150
39436SOL    HW220206   6.767   3.221  10.259
39437SOL     OW20207   9.005   6.418   7.653
39437SOL    HW120208   9.059   6.357   7.601
39437SOL    HW220209   9.017   6.388   7.743
39438SOL     OW20210   6.699   6.835  13.268
39438SOL    HW120211   6.710   6.910  13.326
39438SOL    HW220212   6.753   6.766  13.307
39439SOL     OW20213   0.492   3.983   3.192
39439SOL    HW120214   0.425   3.926   3.155
39439SOL    HW220215   0.505   4.051   3.125
39440SOL     OW20216   5.376  10.911  11.493
39440SOL    HW120217   5.412  10.866  11.569
39440SOL    HW220218   5.346  10.842  11.435
39441SOL     OW20219   5.725   9.796   1.979
39441SOL    HW120220   5.750   9.887   1.962
39441SOL    HW220221   5.630   9.798   1.984
39442SOL     OW20222   7.211   5.008  14.524
39442SOL    HW120223   7.246   4.973  14.442
39442SOL    HW220224   7.287   5.011  14.582
39443SOL     OW20225  12.554   9.990   3.235
39443SOL    HW120226  12.478   9.953   3.190
39443SOL    HW220227  12.537   9.972   3.328
39444SOL     OW20228   7.314   5.964   5.956
39444SOL    HW120229   7.264   5.882   5.951
39444SOL    HW220230   7.278   6.018   5.886
39445SOL     OW20231   8.413  10.896  10.461
39445SOL    HW120232   8.490  10.863  10.507
39445SOL    HW220233   8.412  10.848  10.378
39446SOL     OW20234   0.860  10.513   2.892
39446SOL    HW120235   0.877  10.470   2.808
39446SOL    HW220236   0.766  10.502   2.906
39447SOL     OW20237   9.314   5.495   1.977
39447SOL    HW120238   9.224   5.498   1.944
39447SOL    HW220239   9.354   5.422   1.930
39448SOL     OW20240   3.974  13.231   6.825
39448SOL    HW120241   3.905  13.202   6.765
39448SOL    HW220242   4.045  13.168   6.812
39449SOL     OW20243   1.198  10.999  13.708
39449SOL    HW120244   1.187  10.923  13.764
39449SOL    HW220245   1.271  11.048  13.746
39450SOL     OW20246  10.780   4.467   7.472
39450SOL    HW120247  10.785   4.550   7.521
39450SOL    HW220248  10.746   4.404   7.535
39451SOL     OW20249   7.729   0.985   8.511
39451SOL    HW120250   7.717   0.951   8.422
39451SOL    HW220251   7.646   1.028   8.532
39452SOL     OW20252  13.762  12.908   3.166
39452SOL    HW120253  13.791  12.846   3.099
39452SOL    HW220254  13.723  12.980   3.116
39453SOL     OW20255   9.783  10.026   8.290
39453SOL    HW120256   9.836  10.020   8.210
39453SOL    HW220257   9.813  10.106   8.333
39454SOL     OW20258   3.995   0.221  13.651
39454SOL    HW120259   3.960   0.296  13.700
39454SOL    HW220260   3.940   0.217  13.573
39455SOL     OW20261   7.623  12.693   3.284
39455SOL    HW120262   7.670  12.744   3.349
39455SOL    HW220263   7.536  12.679   3.323
39456SOL     OW20264   8.809  10.191  13.152
39456SOL    HW120265   8.840  10.276  13.120
39456SOL    HW220266   8.724  10.210  13.190
39457SOL     OW20267   2.239   4.272   1.698
39457SOL    HW120268   2.281   4.347   1.657
39457SOL    HW220269   2.312   4.219   1.732
39458SOL     OW20270  14.062   2.384   0.924
39458SOL    HW120271  14.112   2.457   0.888
39458SOL    HW220272  13.979   2.387   0.877
39459SOL     OW20273  14.219   5.643  13.809
39459SOL    HW120274  14.288   5.648  13.743
39459SOL    HW220275  14.261   5.603  13.885
39460SOL     OW20276   2.573   1.746   2.017
39460SOL    HW120277   2.655   1.713   2.053
39460SOL    HW220278   2.519   1.667   2.008
39461SOL     OW20279   6.930   5.154   8.172
39461SOL    HW120280   6.885   5.204   8.240
39461SOL    HW220281   7.021   5.150   8.201
39462SOL     OW20282   9.888   5.691  10.198
39462SOL    HW120283   9.830   5.760  10.166
39462SOL    HW220284   9.934   5.660  10.120
39463SOL     OW20285   6.509   3.374   3.449
39463SOL    HW120286   6.531   3.406   3.536
39463SOL    HW220287   6.420   3.407   3.433
39464SOL     OW20288  11.263  11.095   0.671
39464SOL    HW120289  11.202  11.079   0.599
39464SOL    HW220290  11.337  11.037   0.653
39465SOL     OW20291  12.670   2.871  13.775
39465SOL    HW120292  12.761   2.846  13.787
39465SOL    HW220293  12.633   2.872  13.864
39466SOL     OW20294   0.846   0.700   4.842
39466SOL    HW120295   0.930   0.702   4.889
39466SOL    HW220296   0.784   0.663   4.905
39467SOL     OW20297   6.282   8.992   1.570
39467SOL    HW120298   6.190   8.967   1.560
39467SOL    HW220299   6.288   9.077   1.526
39468SOL     OW20300   5.317   6.937  11.644
39468SOL    HW120301   5.302   7.030  11.625
39468SOL    HW220302   5.338   6.934  11.737
39469SOL     OW20303   3.182   3.958   7.279
39469SOL    HW120304   3.095   3.933   7.248
39469SOL    HW220305   3.183   3.932   7.371
39470SOL     OW20306   3.262  14.196   6.407
39470SOL    HW120307   3.199  14.209   6.477
39470SOL    HW220308   3.215  14.220   6.327
39471SOL     OW20309  11.596   8.133   3.585
39471SOL    HW120310  11.530   8.094   3.527
39471SOL    HW220311  11.545   8.171   3.657
39472SOL     OW20312  11.738   4.585   1.062
39472SOL    HW120313  11.682   4.659   1.038
39472SOL    HW220314  11.716   4.517   0.999
39473SOL     OW20315   8.848   3.853   0.760
39473SOL    HW120316   8.932   3.810   0.768
39473SOL    HW220317   8.807   3.813   0.683
39474SOL     OW20318  11.660  13.674  12.182
39474SOL    HW120319  11.714  13.605  12.221
39474SOL    HW220320  11.600  13.628  12.124
39475SOL     OW20321   4.661   6.833   6.196
39475SOL    HW120322   4.630   6.744   6.179
39475SOL    HW220323   4.659   6.876   6.110
39476SOL     OW20324   5.372   0.350  12.683
39476SOL    HW120325   5.385   0.371  12.776
39476SOL    HW220326   5.426   0.414  12.636
39477SOL     OW20327   7.818  14.493   0.391
39477SOL    HW120328   7.757  14.424   0.363
39477SOL    HW220329   7.824  14.552   0.316
39478SOL     OW20330   9.415  14.179   7.492
39478SOL    HW120331   9.419  14.121   7.416
39478SOL    HW220332   9.339  14.235   7.476
39479SOL     OW20333   8.861   2.318  11.174
39479SOL    HW120334   8.887   2.409  11.160
39479SOL    HW220335   8.825   2.290  11.090
39480SOL     OW20336   4.002   8.187   3.903
39480SOL    HW120337   3.969   8.198   3.992
39480SOL    HW220338   3.930   8.218   3.847
39481SOL     OW20339  12.626  11.064   8.837
39481SOL    HW120340  12.641  11.095   8.926
39481SOL    HW220341  12.540  11.099   8.814
39482SOL     OW20342  10.882  10.940   2.300
39482SOL    HW120343  10.972  10.908   2.312
39482SOL    HW220344  10.829  10.882   2.355
39483SOL     OW20345  13.620   4.418   8.602
39483SOL    HW120346  13.583   4.489   8.655
39483SOL    HW220347  13.690   4.460   8.552
39484SOL     OW20348   3.676   3.445   1.729
39484SOL    HW120349   3.589   3.462   1.764
39484SOL    HW220350   3.724   3.526   1.743
39485SOL     OW20351   2.034   3.574   3.650
39485SOL    HW120352   2.060   3.482   3.653
39485SOL    HW220353   1.995   3.591   3.736
39486SOL     OW20354   5.500   9.968   1.644
39486SOL    HW120355   5.571   9.976   1.580
39486SOL    HW220356   5.535  10.008   1.724
39487SOL     OW20357   1.818   2.518   8.792
39487SOL    HW120358   1.731   2.558   8.794
39487SOL    HW220359   1.843   2.512   8.884
39488SOL     OW20360  14.008   1.074  10.951
39488SOL    HW120361  13.979   0.989  10.919
39488SOL    HW220362  14.103   1.072  10.941
39489SOL     OW20363   9.325  13.628   2.758
39489SOL    HW120364   9.352  13.710   2.716
39489SOL    HW220365   9.342  13.561   2.692
39490SOL     OW20366   8.910   1.479  10.899
39490SOL    HW120367   8.988   1.448  10.853
39490SOL    HW220368   8.937   1.561  10.941
39491SOL     OW20369  14.409   5.447   1.500
39491SOL    HW120370  14.375   5.398   1.575
39491SOL    HW220371  14.333   5.461   1.444
39492SOL     OW20372   5.082  14.655  10.416
39492SOL    HW120373   5.019  14.697  10.474
39492SOL    HW220374   5.045  14.568  10.398
39493SOL     OW20375   8.844   1.336   8.046
39493SOL    HW120376   8.758   1.321   8.006
39493SOL    HW220377   8.837   1.422   8.088
39494SOL     OW20378   0.946   9.594  12.381
39494SOL    HW120379   0.980   9.675  12.343
39494SOL    HW220380   0.988   9.588  12.466
39495SOL     OW20381   4.270   0.175   4.557
39495SOL    HW120382   4.343   0.127   4.595
39495SOL    HW220383   4.291   0.267   4.571
39496SOL     OW20384   4.396   7.079   0.420
39496SOL    HW120385   4.435   7.043   0.339
39496SOL    HW220386   4.454   7.151   0.443
39497SOL     OW20387   5.874   7.013   6.471
39497SOL    HW120388   5.851   7.031   6.380
39497SOL    HW220389   5.895   7.099   6.508
39498SOL     OW20390   9.330   6.806  11.233
39498SOL    HW120391   9.285   6.725  11.255
39498SOL    HW220392   9.386   6.783  11.159
39499SOL     OW20393   9.817   3.782   7.544
39499SOL    HW120394   9.806   3.760   7.637
39499SOL    HW220395   9.830   3.876   7.543
39500SOL     OW20396   9.344   8.221   8.459
39500SOL    HW120397   9.297   8.236   8.377
39500SOL    HW220398   9.277   8.191   8.520
39501SOL     OW20399   8.295  13.654  10.396
39501SOL    HW120400   8.305  13.657  10.300
39501SOL    HW220401   8.203  13.674  10.411
39502SOL     OW20402   7.376   1.447   8.237
39502SOL    HW120403   7.447   1.413   8.183
39502SOL    HW220404   7.383   1.542   8.229
39503SOL     OW20405  12.660   8.867   6.828
39503SOL    HW120406  12.707   8.813   6.765
39503SOL    HW220407  12.728   8.921   6.869
39504SOL     OW20408  12.082  11.336   9.507
39504SOL    HW120409  12.005  11.307   9.555
39504SOL    HW220410  12.149  11.349   9.575
39505SOL     OW20411   9.850   8.792   3.426
39505SOL    HW120412   9.941   8.804   3.399
39505SOL    HW220413   9.833   8.864   3.487
39506SOL     OW20414  14.723   3.014   4.291
39506SOL    HW120415  14.782   3.063   4.234
39506SOL    HW220416  14.776   2.995   4.369
39507SOL     OW20417   3.647  11.868  13.846
39507SOL    HW120418   3.606  11.822  13.920
39507SOL    HW220419   3.581  11.868  13.778
39508SOL     OW20420   4.153  12.264   1.549
39508SOL    HW120421   4.134  12.354   1.523
39508SOL    HW220422   4.210  12.273   1.626
39509SOL     OW20423  13.670  11.878  11.085
39509SOL    HW120424  13.677  11.798  11.033
39509SOL    HW220425  13.705  11.947  11.029
39510SOL     OW20426   2.565   9.083  14.750
39510SOL    HW120427   2.481   9.078  14.797
39510SOL    HW220428   2.619   9.139  14.805
39511SOL     OW20429   2.713  12.279   1.076
39511SOL    HW120430   2.804  12.290   1.102
39511SOL    HW220431   2.715  12.210   1.010
39512SOL     OW20432   0.213   0.091   6.011
39512SOL    HW120433   0.227   0.075   6.104
39512SOL    HW220434   0.176   0.009   5.978
39513SOL     OW20435   1.348   9.752  12.667
39513SOL    HW120436   1.407   9.726  12.596
39513SOL    HW220437   1.372   9.843  12.686
39514SOL     OW20438  11.045  12.954   4.356
39514SOL    HW120439  11.000  12.887   4.304
39514SOL    HW220440  11.089  12.905   4.425
39515SOL     OW20441   1.526   7.668  10.862
39515SOL    HW120442   1.477   7.747  10.840
39515SOL    HW220443   1.550   7.680  10.954
39516SOL     OW20444   9.794   6.167   3.532
39516SOL    HW120445   9.705   6.199   3.550
39516SOL    HW220446   9.851   6.229   3.576
39517SOL     OW20447  13.046   9.529   2.910
39517SOL    HW120448  13.026   9.453   2.855
39517SOL    HW220449  12.977   9.529   2.977
39518SOL     OW20450   1.937  12.218   7.098
39518SOL    HW120451   2.009  12.281   7.102
39518SOL    HW220452   1.967  12.144   7.151
39519SOL     OW20453   3.441   9.582  14.409
39519SOL    HW120454   3.526   9.584  14.453
39519SOL    HW220455   3.458   9.620  14.323
39520SOL     OW20456  11.483   5.054   5.106
39520SOL    HW120457  11.547   5.124   5.092
39520SOL    HW220458  11.414   5.071   5.043
39521SOL     OW20459   0.727   8.195   5.323
39521SOL    HW120460   0.713   8.204   5.229
39521SOL    HW220461   0.737   8.285   5.355
39522SOL     OW20462   9.233   1.139  12.560
39522SOL    HW120463   9.173   1.211  12.580
39522SOL    HW220464   9.192   1.093  12.487
39523SOL     OW20465  14.696   2.931   2.388
39523SOL    HW120466  14.626   2.996   2.393
39523SOL    HW220467  14.741   2.937   2.472
39524SOL     OW20468   7.864   1.787  13.806
39524SOL    HW120469   7.947   1.805  13.761
39524SOL    HW220470   7.811   1.741  13.741
39525SOL     OW20471  10.804  10.667   2.095
39525SOL    HW120472  10.798  10.615   2.015
39525SOL    HW220473  10.716  10.663   2.133
39526SOL     OW20474   6.976   6.240  12.498
39526SOL    HW120475   6.951   6.184  12.571
39526SOL    HW220476   6.994   6.180  12.426
39527SOL     OW20477  10.003   8.917   8.677
39527SOL    HW120478   9.974   8.862   8.750
39527SOL    HW220479   9.968   9.004   8.697
39528SOL     OW20480  10.511   9.744   5.571
39528SOL    HW120481  10.513   9.656   5.608
39528SOL    HW220482  10.546   9.800   5.640
39529SOL     OW20483  14.576  12.909   9.086
39529SOL    HW120484  14.497  12.949   9.050
39529SOL    HW220485  14.546  12.860   9.162
39530SOL     OW20486   4.324   6.308  13.257
39530SOL    HW120487   4.241   6.273  13.290
39530SOL    HW220488   4.319   6.296  13.163
39531SOL     OW20489   6.743   4.644   8.004
39531SOL    HW120490   6.820   4.687   7.968
39531SOL    HW220491   6.680   4.715   8.017
39532SOL     OW20492   1.505   6.158   7.527
39532SOL    HW120493   1.411   6.153   7.507
39532SOL    HW220494   1.530   6.068   7.549
39533SOL     OW20495   9.202  13.439   5.813
39533SOL    HW120496   9.273  13.504   5.814
39533SOL    HW220497   9.199  13.406   5.903
39534SOL     OW20498   8.177  14.297   3.465
39534SOL    HW120499   8.111  14.231   3.486
39534SOL    HW220500   8.185  14.350   3.544
39535SOL     OW20501   4.416   3.151   5.579
39535SOL    HW120502   4.336   3.187   5.617
39535SOL    HW220503   4.394   3.061   5.557
39536SOL     OW20504  12.712   3.652   7.327
39536SOL    HW120505  12.652   3.581   7.350
39536SOL    HW220506  12.765   3.617   7.256
39537SOL     OW20507  13.867  12.080  10.286
39537SOL    HW120508  13.860  12.062  10.380
39537SOL    HW220509  13.849  12.174  10.278
39538SOL     OW20510   5.211   3.873   3.211
39538SOL    HW120511   5.250   3.789   3.235
39538SOL    HW220512   5.215   3.924   3.292
39539SOL     OW20513   8.299   7.126  14.262
39539SOL    HW120514   8.310   7.212  14.302
39539SOL    HW220515   8.225   7.136  14.202
39540SOL     OW20516  12.971  13.143  13.218
39540SOL    HW120517  12.921  13.078  13.169
39540SOL    HW220518  13.050  13.156  13.166
39541SOL     OW20519   4.678  11.469  13.295
39541SOL    HW120520   4.654  11.381  13.264
39541SOL    HW220521   4.773  11.466  13.304
39542SOL     OW20522   9.376  12.732   7.934
39542SOL    HW120523   9.464  12.766   7.928
39542SOL    HW220524   9.380  12.667   8.004
39543SOL     OW20525   9.457  11.621   3.660
39543SOL    HW120526   9.473  11.529   3.677
39543SOL    HW220527   9.404  11.622   3.580
39544SOL     OW20528   4.604  14.117   0.487
39544SOL    HW120529   4.528  14.124   0.544
39544SOL    HW220530   4.645  14.035   0.511
39545SOL     OW20531  10.051   3.493   1.188
39545SOL    HW120532  10.135   3.454   1.165
39545SOL    HW220533  10.054   3.581   1.150
39546SOL     OW20534   3.813   7.397   2.643
39546SOL    HW120535   3.845   7.387   2.554
39546SOL    HW220536   3.890   7.423   2.694
39547SOL     OW20537  10.737   7.100   1.163
39547SOL    HW120538  10.679   7.030   1.133
39547SOL    HW220539  10.685   7.146   1.229
39548SOL     OW20540  14.669   4.180   4.051
39548SOL    HW120541  14.631   4.250   4.104
39548SOL    HW220542  14.600   4.114   4.045
39549SOL     OW20543   8.427   2.178  11.111
39549SOL    HW120544   8.414   2.273  11.113
39549SOL    HW220545   8.384   2.146  11.190
39550SOL     OW20546   0.871   0.735  14.121
39550SOL    HW120547   0.853   0.806  14.059
39550SOL    HW220548   0.785   0.710  14.153
39551SOL     OW20549   2.948   4.654   1.002
39551SOL    HW120550   3.043   4.667   0.996
39551SOL    HW220551   2.918   4.653   0.911
39552SOL     OW20552   3.936   3.652  12.494
39552SOL    HW120553   3.994   3.643  12.418
39552SOL    HW220554   3.991   3.690  12.562
39553SOL     OW20555   2.981  11.877   7.091
39553SOL    HW120556   2.901  11.880   7.144
39553SOL    HW220557   3.046  11.838   7.149
39554SOL     OW20558   1.997   8.157   9.995
39554SOL    HW120559   2.063   8.089  10.010
39554SOL    HW220560   1.989   8.202  10.079
39555SOL     OW20561   5.450   6.932  11.880
39555SOL    HW120562   5.516   6.997  11.902
39555SOL    HW220563   5.479   6.852  11.925
39556SOL     OW20564   9.189  12.562   2.680
39556SOL    HW120565   9.149  12.475   2.673
39556SOL    HW220566   9.266  12.548   2.736
39557SOL     OW20567   2.487   8.767  10.662
39557SOL    HW120568   2.423   8.703  10.631
39557SOL    HW220569   2.492   8.832  10.592
39558SOL     OW20570   9.497  10.450  13.265
39558SOL    HW120571   9.481  10.369  13.312
39558SOL    HW220572   9.506  10.423  13.173
39559SOL     OW20573   8.291   3.552   4.753
39559SOL    HW120574   8.343   3.631   4.737
39559SOL    HW220575   8.212   3.565   4.701
39560SOL     OW20576   9.049   1.742   9.877
39560SOL    HW120577   9.091   1.780   9.954
39560SOL    HW220578   9.100   1.663   9.858
39561SOL     OW20579   0.364   0.947   8.632
39561SOL    HW120580   0.295   1.007   8.604
39561SOL    HW220581   0.317   0.876   8.677
39562SOL     OW20582  11.981   8.125   7.506
39562SOL    HW120583  11.996   8.044   7.554
39562SOL    HW220584  12.024   8.112   7.422
39563SOL     OW20585   0.397   9.183   5.017
39563SOL    HW120586   0.424   9.129   5.091
39563SOL    HW220587   0.302   9.189   5.025
39564SOL     OW20588   4.895   6.066  11.876
39564SOL    HW120589   4.848   6.095  11.797
39564SOL    HW220590   4.947   6.142  11.902
39565SOL     OW20591  10.802   9.151  12.163
39565SOL    HW120592  10.831   9.069  12.204
39565SOL    HW220593  10.713   9.132  12.133
39566SOL     OW20594   1.299  11.436   7.743
39566SOL    HW120595   1.351  11.515   7.735
39566SOL    HW220596   1.226  11.461   7.801
39567SOL     OW20597   8.323  12.615   4.347
39567SOL    HW120598   8.314  12.521   4.366
39567SOL    HW220599   8.309  12.657   4.432
39568SOL     OW20600   0.731   4.442  10.071
39568SOL    HW120601   0.825   4.454  10.077
39568SOL    HW220602   0.709   4.383  10.143
39569SOL     OW20603   9.493   8.610   1.445
39569SOL    HW120604   9.423   8.546   1.436
39569SOL    HW220605   9.522   8.626   1.355
39570SOL     OW20606   8.741  12.996   6.805
39570SOL    HW120607   8.689  13.058   6.857
39570SOL    HW220608   8.680  12.925   6.784
39571SOL     OW20609   4.495  12.480   2.301
39571SOL    HW120610   4.406  12.499   2.332
39571SOL    HW220611   4.548  12.477   2.380
39572SOL     OW20612   8.192   5.954  10.767
39572SOL    HW120613   8.271   5.961  10.821
39572SOL    HW220614   8.182   6.041  10.728
39573SOL     OW20615   5.448   4.639   1.146
39573SOL    HW120616   5.368   4.592   1.170
39573SOL    HW220617   5.417   4.724   1.112
39574SOL     OW20618  13.288  10.108  11.280
39574SOL    HW120619  13.363  10.157  11.247
39574SOL    HW220620  13.308  10.017  11.259
39575SOL     OW20621  12.436   3.433  12.307
39575SOL    HW120622  12.514   3.436  12.251
39575SOL    HW220623  12.466   3.388  12.386
39576SOL     OW20624  14.682  12.775  14.297
39576SOL    HW120625  14.720  12.740  14.217
39576SOL    HW220626  14.736  12.852  14.318
39577SOL     OW20627   0.055  11.421  11.368
39577SOL    HW120628  14.871  11.362  11.420
39577SOL    HW220629   0.139  11.376  11.362
39578SOL     OW20630  10.476   7.357   4.524
39578SOL    HW120631  10.494   7.281   4.468
39578SOL    HW220632  10.461   7.429   4.463
39579SOL     OW20633   1.889   2.833   7.384
39579SOL    HW120634   1.895   2.911   7.327
39579SOL    HW220635   1.832   2.861   7.456
39580SOL     OW20636   8.212   8.211   4.950
39580SOL    HW120637   8.263   8.212   4.869
39580SOL    HW220638   8.265   8.261   5.012
39581SOL     OW20639  11.279   9.718  10.987
39581SOL    HW120640  11.197   9.674  11.008
39581SOL    HW220641  11.257   9.773  10.911
39582SOL     OW20642   9.446  10.449  10.649
39582SOL    HW120643   9.496  10.486  10.722
39582SOL    HW220644   9.360  10.429  10.687
39583SOL     OW20645  10.074   7.744   2.937
39583SOL    HW120646  10.101   7.657   2.906
39583SOL    HW220647  10.126   7.758   3.016
39584SOL     OW20648  14.171  13.909   0.172
39584SOL    HW120649  14.183  14.004   0.173
39584SOL    HW220650  14.113  13.891   0.246
39585SOL     OW20651   4.221  11.175  11.081
39585SOL    HW120652   4.186  11.170  10.991
39585SOL    HW220653   4.213  11.086  11.114
39586SOL     OW20654   7.060   7.432  13.208
39586SOL    HW120655   7.097   7.348  13.178
39586SOL    HW220656   6.971   7.432  13.174
39587SOL     OW20657  14.613   5.162   1.463
39587SOL    HW120658  14.594   5.152   1.556
39587SOL    HW220659  14.658   5.081   1.439
39588SOL     OW20660   1.677   5.355  11.305
39588SOL    HW120661   1.634   5.424  11.255
39588SOL    HW220662   1.771   5.371  11.291
39589SOL     OW20663   9.168   7.561   6.265
39589SOL    HW120664   9.100   7.535   6.204
39589SOL    HW220665   9.129   7.631   6.317
39590SOL     OW20666  11.227  10.729  10.010
39590SOL    HW120667  11.299  10.784   9.979
39590SOL    HW220668  11.173  10.715   9.932
39591SOL     OW20669   4.602  10.251  11.019
39591SOL    HW120670   4.688  10.287  11.036
39591SOL    HW220671   4.607  10.219  10.929
39592SOL     OW20672   1.593  10.758   3.758
39592SOL    HW120673   1.622  10.745   3.668
39592SOL    HW220674   1.655  10.822   3.794
39593SOL     OW20675  12.674  14.734  11.544
39593SOL    HW120676  12.693  14.710  11.635
39593SOL    HW220677  12.618  14.811  11.550
39594SOL     OW20678  14.651  12.368   3.364
39594SOL    HW120679  14.731  12.318   3.349
39594SOL    HW220680  14.669  12.418   3.444
39595SOL     OW20681   4.773   2.438   8.222
39595SOL    HW120682   4.807   2.479   8.301
39595SOL    HW220683   4.754   2.348   8.248
39596SOL     OW20684  11.628   6.995  10.371
39596SOL    HW120685  11.649   6.904  10.352
39596SOL    HW220686  11.673   7.013  10.454
39597SOL     OW20687   8.796   5.742   7.358
39597SOL    HW120688   8.793   5.835   7.338
39597SOL    HW220689   8.758   5.700   7.281
39598SOL     OW20690  11.512   1.860   3.859
39598SOL    HW120691  11.604   1.832   3.859
39598SOL    HW220692  11.490   1.866   3.766
39599SOL     OW20693   5.542   8.944   0.219
39599SOL    HW120694   5.510   8.854   0.229
39599SOL    HW220695   5.465   8.998   0.238
39600SOL     OW20696   8.804  13.401  12.736
39600SOL    HW120697   8.752  13.386  12.815
39600SOL    HW220698   8.888  13.359  12.754
39601SOL     OW20699   8.194   1.951   2.777
39601SOL    HW120700   8.286   1.963   2.798
39601SOL    HW220701   8.180   1.857   2.779
39602SOL     OW20702  13.042   2.198  12.656
39602SOL    HW120703  12.977   2.133  12.680
39602SOL    HW220704  13.043   2.260  12.729
39603SOL     OW20705  12.645   3.186   6.263
39603SOL    HW120706  12.696   3.127   6.207
39603SOL    HW220707  12.638   3.267   6.212
39604SOL     OW20708  14.781   2.260   3.279
39604SOL    HW120709  14.707   2.319   3.271
39604SOL    HW220710  14.858   2.317   3.281
39605SOL     OW20711   2.688  10.039   2.848
39605SOL    HW120712   2.769   9.993   2.824
39605SOL    HW220713   2.662  10.000   2.932
39606SOL     OW20714  14.514   1.571   6.216
39606SOL    HW120715  14.506   1.637   6.285
39606SOL    HW220716  14.516   1.487   6.262
39607SOL     OW20717   4.564   6.252  13.890
39607SOL    HW120718   4.492   6.307  13.922
39607SOL    HW220719   4.536   6.226  13.802
39608SOL     OW20720  10.520   0.623  14.668
39608SOL    HW120721  10.597   0.593  14.716
39608SOL    HW220722  10.477   0.543  14.639
39609SOL     OW20723   2.598   2.780   6.013
39609SOL    HW120724   2.654   2.834   6.069
39609SOL    HW220725   2.585   2.833   5.934
39610SOL     OW20726  11.958   5.035  12.177
39610SOL    HW120727  12.038   5.085  12.189
39610SOL    HW220728  11.924   5.063  12.092
39611SOL     OW20729   9.612   5.024   0.675
39611SOL    HW120730   9.606   4.977   0.758
39611SOL    HW220731   9.698   5.065   0.678
39612SOL     OW20732   8.604  13.396  13.335
39612SOL    HW120733   8.562  13.481  13.350
39612SOL    HW220734   8.573  13.341  13.407
39613SOL     OW20735   9.768  14.156   8.788
39613SOL    HW120736   9.761  14.119   8.876
39613SOL    HW220737   9.707  14.230   8.789
39614SOL     OW20738   1.960   6.215  11.303
39614SOL    HW120739   1.908   6.135  11.295
39614SOL    HW220740   1.941   6.264  11.223
39615SOL     OW20741   8.543  10.751   3.457
39615SOL    HW120742   8.548  10.684   3.524
39615SOL    HW220743   8.506  10.827   3.502
39616SOL     OW20744   6.681   5.669   9.751
39616SOL    HW120745   6.717   5.650   9.664
39616SOL    HW220746   6.598   5.620   9.753
39617SOL     OW20747   1.020   6.258   9.832
39617SOL    HW120748   1.075   6.188   9.867
39617SOL    HW220749   0.974   6.219   9.759
39618SOL     OW20750   7.187   5.455  10.627
39618SOL    HW120751   7.194   5.415  10.713
39618SOL    HW220752   7.255   5.522  10.625
39619SOL     OW20753   1.349   4.127   1.393
39619SOL    HW120754   1.292   4.167   1.328
39619SOL    HW220755   1.304   4.140   1.477
39620SOL     OW20756   2.518   5.636   1.024
39620SOL    HW120757   2.545   5.663   1.112
39620SOL    HW220758   2.521   5.540   1.026
39621SOL     OW20759   3.106   0.833   6.642
39621SOL    HW120760   3.036   0.866   6.699
39621SOL    HW220761   3.177   0.811   6.702
39622SOL     OW20762   8.026   2.445   1.052
39622SOL    HW120763   8.091   2.419   0.986
39622SOL    HW220764   8.040   2.385   1.125
39623SOL     OW20765   4.098   4.594   7.173
39623SOL    HW120766   4.086   4.688   7.175
39623SOL    HW220767   4.175   4.581   7.118
39624SOL     OW20768  13.019   9.978  13.207
39624SOL    HW120769  13.100   9.974  13.156
39624SOL    HW220770  12.993  10.070  13.203
39625SOL     OW20771  11.194   6.833  11.812
39625SOL    HW120772  11.176   6.916  11.857
39625SOL    HW220773  11.150   6.842  11.728
39626SOL     OW20774   1.684  13.765   7.820
39626SOL    HW120775   1.628  13.786   7.895
39626SOL    HW220776   1.762  13.725   7.858
39627SOL     OW20777   2.592   9.399   2.849
39627SOL    HW120778   2.609   9.485   2.812
39627SOL    HW220779   2.528   9.359   2.790
39628SOL     OW20780   7.974   8.018  11.733
39628SOL    HW120781   8.036   7.974  11.792
39628SOL    HW220782   8.014   8.011  11.646
39629SOL     OW20783  10.400   8.171   1.948
39629SOL    HW120784  10.327   8.111   1.938
39629SOL    HW220785  10.420   8.201   1.860
39630SOL     OW20786   5.282   0.526   7.685
39630SOL    HW120787   5.189   0.531   7.703
39630SOL    HW220788   5.310   0.443   7.722
39631SOL     OW20789   7.416   9.571  13.018
39631SOL    HW120790   7.322   9.558  13.023
39631SOL    HW220791   7.443   9.587  13.109
39632SOL     OW20792   2.772   4.749   1.641
39632SOL    HW120793   2.781   4.793   1.725
39632SOL    HW220794   2.707   4.801   1.594
39633SOL     OW20795  14.517   7.674  11.559
39633SOL    HW120796  14.430   7.682  11.518
39633SOL    HW220797  14.499   7.648  11.649
39634SOL     OW20798   1.057   7.237  14.545
39634SOL    HW120799   1.097   7.152  14.528
39634SOL    HW220800   1.037   7.272  14.458
39635SOL     OW20801   3.492  11.070   0.849
39635SOL    HW120802   3.558  11.139   0.838
39635SOL    HW220803   3.423  11.111   0.900
39636SOL     OW20804   3.548   3.806  12.104
39636SOL    HW120805   3.566   3.743  12.034
39636SOL    HW220806   3.453   3.816  12.104
39637SOL     OW20807  11.883   7.095   4.932
39637SOL    HW120808  11.853   7.155   5.000
39637SOL    HW220809  11.909   7.016   4.979
39638SOL     OW20810  11.375   4.209  13.751
39638SOL    HW120811  11.450   4.264  13.731
39638SOL    HW220812  11.410   4.138  13.806
39639SOL     OW20813  11.890  14.670  11.256
39639SOL    HW120814  11.816  14.720  11.290
39639SOL    HW220815  11.857  14.632  11.175
39640SOL     OW20816   6.626   2.752   9.628
39640SOL    HW120817   6.679   2.688   9.580
39640SOL    HW220818   6.599   2.815   9.562
39641SOL     OW20819  11.351   7.747   5.460
39641SOL    HW120820  11.440   7.713   5.462
39641SOL    HW220821  11.306   7.693   5.395
39642SOL     OW20822  13.776   3.335  14.331
39642SOL    HW120823  13.781   3.302  14.242
39642SOL    HW220824  13.827   3.416  14.330
39643SOL     OW20825  13.962   6.139   9.398
39643SOL    HW120826  14.053   6.115   9.380
39643SOL    HW220827  13.918   6.131   9.314
39644SOL     OW20828   7.623  11.871   8.091
39644SOL    HW120829   7.714  11.900   8.094
39644SOL    HW220830   7.580  11.931   8.031
39645SOL     OW20831   5.790   3.495   1.709
39645SOL    HW120832   5.775   3.422   1.649
39645SOL    HW220833   5.709   3.546   1.706
39646SOL     OW20834   5.616   4.689   2.034
39646SOL    HW120835   5.696   4.740   2.048
39646SOL    HW220836   5.643   4.598   2.051
39647SOL     OW20837  13.383   8.901   8.943
39647SOL    HW120838  13.317   8.865   9.004
39647SOL    HW220839  13.346   8.984   8.915
39648SOL     OW20840   5.728   2.056  10.842
39648SOL    HW120841   5.676   2.136  10.851
39648SOL    HW220842   5.767   2.062  10.754
39649SOL     OW20843   0.439   5.129   9.142
39649SOL    HW120844   0.405   5.083   9.066
39649SOL    HW220845   0.499   5.194   9.106
39650SOL     OW20846   4.578  11.183  10.199
39650SOL    HW120847   4.630  11.245  10.147
39650SOL    HW220848   4.548  11.118  10.135
39651SOL     OW20849   4.860   6.977   2.320
39651SOL    HW120850   4.849   7.041   2.249
39651SOL    HW220851   4.777   6.979   2.367
39652SOL     OW20852  13.602   1.252  12.561
39652SOL    HW120853  13.547   1.182  12.594
39652SOL    HW220854  13.690   1.215  12.560
39653SOL     OW20855   2.323   0.106  11.379
39653SOL    HW120856   2.284   0.074  11.460
39653SOL    HW220857   2.332   0.200  11.391
39654SOL     OW20858   8.054   6.265   4.576
39654SOL    HW120859   7.985   6.263   4.642
39654SOL    HW220860   8.019   6.213   4.503
39655SOL     OW20861   0.830  10.131  10.711
39655SOL    HW120862   0.921  10.151  10.734
39655SOL    HW220863   0.834  10.046  10.668
39656SOL     OW20864   4.764  13.708   2.226
39656SOL    HW120865   4.677  13.743   2.204
39656SOL    HW220866   4.809  13.783   2.266
39657SOL     OW20867   9.185   3.489  11.436
39657SOL    HW120868   9.278   3.511  11.425
39657SOL    HW220869   9.141   3.535  11.365
39658SOL     OW20870  13.534   0.656   2.577
39658SOL    HW120871  13.518   0.591   2.645
39658SOL    HW220872  13.502   0.738   2.615
39659SOL     OW20873   1.477   3.768   8.939
39659SOL    HW120874   1.519   3.684   8.960
39659SOL    HW220875   1.389   3.744   8.910
39660SOL     OW20876   4.559   7.720   2.493
39660SOL    HW120877   4.553   7.630   2.524
39660SOL    HW220878   4.532   7.773   2.568
39661SOL     OW20879  12.710   5.098  10.648
39661SOL    HW120880  12.735   5.110  10.739
39661SOL    HW220881  12.788   5.124  10.598
39662SOL     OW20882  13.179   8.286  13.492
39662SOL    HW120883  13.244   8.356  13.501
39662SOL    HW220884  13.229   8.205  13.502
39663SOL     OW20885  12.423   8.309   6.293
39663SOL    HW120886  12.414   8.238   6.356
39663SOL    HW220887  12.454   8.383   6.345
39664SOL     OW20888  10.875  14.300  11.011
39664SOL    HW120889  10.945  14.301  10.945
39664SOL    HW220890  10.896  14.373  11.069
39665SOL     OW20891  13.623   5.763   3.500
39665SOL    HW120892  13.568   5.703   3.449
39665SOL    HW220893  13.582   5.764   3.587
39666SOL     OW20894  11.913   7.827   9.201
39666SOL    HW120895  11.882   7.907   9.160
39666SOL    HW220896  11.985   7.854   9.257
39667SOL     OW20897   1.486   1.632  14.154
39667SOL    HW120898   1.571   1.668  14.181
39667SOL    HW220899   1.485   1.543  14.188
39668SOL     OW20900   5.589   9.990   2.568
39668SOL    HW120901   5.536   9.915   2.598
39668SOL    HW220902   5.550  10.014   2.484
39669SOL     OW20903   2.313   1.945   0.851
39669SOL    HW120904   2.294   2.007   0.781
39669SOL    HW220905   2.228   1.912   0.879
39670SOL     OW20906   2.900   1.058   9.959
39670SOL    HW120907   2.849   0.978   9.976
39670SOL    HW220908   2.978   1.049  10.015
39671SOL     OW20909   0.783   0.331   2.377
39671SOL    HW120910   0.816   0.277   2.448
39671SOL    HW220911   0.689   0.310   2.372
39672SOL     OW20912  13.516   9.641   1.006
39672SOL    HW120913  13.584   9.648   1.073
39672SOL    HW220914  13.457   9.714   1.024
39673SOL     OW20915   4.658   1.193  14.120
39673SOL    HW120916   4.651   1.288  14.132
39673SOL    HW220917   4.705   1.162  14.197
39674SOL     OW20918   6.093   4.805   9.302
39674SOL    HW120919   6.124   4.894   9.321
39674SOL    HW220920   6.004   4.818   9.269
39675SOL     OW20921   7.077   1.701   3.139
39675SOL    HW120922   7.026   1.777   3.169
39675SOL    HW220923   7.037   1.677   3.056
39676SOL     OW20924  13.538  12.384  10.203
39676SOL    HW120925  13.503  12.301  10.235
39676SOL    HW220926  13.471  12.449  10.226
39677SOL     OW20927   0.289   6.876   1.729
39677SOL    HW120928   0.378   6.908   1.748
39677SOL    HW220929   0.232   6.940   1.772
39678SOL     OW20930   6.693   0.431  11.272
39678SOL    HW120931   6.667   0.346  11.236
39678SOL    HW220932   6.771   0.411  11.325
39679SOL     OW20933   6.881   4.015   9.005
39679SOL    HW120934   6.924   4.096   9.032
39679SOL    HW220935   6.812   4.042   8.946
39680SOL     OW20936   7.660  13.239  13.631
39680SOL    HW120937   7.743  13.195  13.610
39680SOL    HW220938   7.655  13.237  13.726
39681SOL     OW20939   3.766   1.719  13.500
39681SOL    HW120940   3.774   1.686  13.411
39681SOL    HW220941   3.672   1.728  13.514
39682SOL     OW20942  12.984  11.890   1.323
39682SOL    HW120943  12.940  11.968   1.290
39682SOL    HW220944  13.074  11.918   1.340
39683SOL     OW20945  14.464  12.323  10.492
39683SOL    HW120946  14.472  12.404  10.542
39683SOL    HW220947  14.452  12.352  10.401
39684SOL     OW20948   9.603  13.802   5.684
39684SOL    HW120949   9.559  13.731   5.732
39684SOL    HW220950   9.679  13.823   5.738
39685SOL     OW20951   4.024  12.216   9.647
39685SOL    HW120952   4.080  12.178   9.715
39685SOL    HW220953   3.974  12.142   9.613
39686SOL     OW20954  13.760   8.045   1.518
39686SOL    HW120955  13.679   8.009   1.554
39686SOL    HW220956  13.819   8.051   1.592
39687SOL     OW20957  12.095  10.055   7.965
39687SOL    HW120958  12.125  10.128   7.911
39687SOL    HW220959  12.007  10.080   7.992
39688SOL     OW20960   0.132  13.438   1.460
39688SOL    HW120961   0.043  13.460   1.488
39688SOL    HW220962   0.123  13.408   1.370
39689SOL     OW20963   3.900   5.413   3.773
39689SOL    HW120964   3.891   5.486   3.710
39689SOL    HW220965   3.810   5.386   3.791
39690SOL     OW20966  10.709   3.242  13.215
39690SOL    HW120967  10.749   3.258  13.301
39690SOL    HW220968  10.782   3.214  13.160
39691SOL     OW20969  11.915   1.544   5.931
39691SOL    HW120970  11.991   1.503   5.974
39691SOL    HW220971  11.868   1.471   5.892
39692SOL     OW20972  12.899   9.722  12.859
39692SOL    HW120973  12.865   9.793  12.804
39692SOL    HW220974  12.903   9.646  12.801
39693SOL     OW20975   9.069   5.426   7.803
39693SOL    HW120976   9.008   5.463   7.866
39693SOL    HW220977   9.017   5.363   7.753
39694SOL     OW20978   5.212  14.568   7.238
39694SOL    HW120979   5.181  14.652   7.272
39694SOL    HW220980   5.307  14.574   7.244
39695SOL     OW20981   9.460  10.427  12.018
39695SOL    HW120982   9.406  10.492  12.062
39695SOL    HW220983   9.527  10.478  11.973
39696SOL     OW20984   8.271  10.965   9.254
39696SOL    HW120985   8.205  11.033   9.267
39696SOL    HW220986   8.240  10.917   9.177
39697SOL     OW20987   7.738   0.141   6.568
39697SOL    HW120988   7.657   0.109   6.528
39697SOL    HW220989   7.712   0.165   6.657
39698SOL     OW20990   8.082  10.813   2.180
39698SOL    HW120991   8.026  10.889   2.191
39698SOL    HW220992   8.164  10.838   2.223
39699SOL     OW20993   5.425   1.216  13.770
39699SOL    HW120994   5.458   1.140  13.722
39699SOL    HW220995   5.332   1.219  13.748
39700SOL     OW20996   4.784   9.954   0.404
39700SOL    HW120997   4.778  10.000   0.320
39700SOL    HW220998   4.770   9.862   0.381
39701SOL     OW20999   5.807   2.290   3.557
39701SOL    HW121000   5.729   2.235   3.545
39701SOL    HW221001   5.808   2.307   3.651
39702SOL     OW21002   1.655   3.481   3.503
39702SOL    HW121003   1.714   3.497   3.577
39702SOL    HW221004   1.604   3.562   3.495
39703SOL     OW21005   7.583   9.762  13.754
39703SOL    HW121006   7.662   9.770  13.700
39703SOL    HW221007   7.595   9.680  13.802
39704SOL     OW21008   2.603   7.426  12.250
39704SOL    HW121009   2.509   7.436  12.240
39704SOL    HW221010   2.614   7.342  12.294
39705SOL     OW21011   5.553   7.102   3.170
39705SOL    HW121012   5.628   7.090   3.229
39705SOL    HW221013   5.477   7.073   3.221
39706SOL     OW21014  10.779   8.962  12.947
39706SOL    HW121015  10.736   8.951  12.863
39706SOL    HW221016  10.817   8.876  12.967
39707SOL     OW21017   7.139   1.238  13.661
39707SOL    HW121018   7.070   1.248  13.728
39707SOL    HW221019   7.186   1.322  13.663
39708SOL     OW21020   8.751  13.644   0.478
39708SOL    HW121021   8.798  13.689   0.548
39708SOL    HW221022   8.820  13.606   0.423
39709SOL     OW21023   8.812  11.060   5.928
39709SOL    HW121024   8.801  10.987   5.988
39709SOL    HW221025   8.808  11.138   5.984
39710SOL     OW21026  10.744   3.534  12.787
39710SOL    HW121027  10.653   3.561  12.786
39710SOL    HW221028  10.755   3.481  12.708
39711SOL     OW21029   6.579   6.996  10.704
39711SOL    HW121030   6.649   7.005  10.769
39711SOL    HW221031   6.504   7.040  10.745
39712SOL     OW21032  11.065   1.626  10.688
39712SOL    HW121033  11.017   1.570  10.750
39712SOL    HW221034  11.156   1.595  10.693
39713SOL     OW21035   5.519   1.604   1.558
39713SOL    HW121036   5.481   1.690   1.575
39713SOL    HW221037   5.613   1.615   1.575
39714SOL     OW21038   5.910   7.911  14.514
39714SOL    HW121039   5.990   7.882  14.470
39714SOL    HW221040   5.841   7.899  14.449
39715SOL     OW21041   8.270   7.720   3.736
39715SOL    HW121042   8.246   7.667   3.660
39715SOL    HW221043   8.362   7.699   3.753
39716SOL     OW21044  11.166  12.887   0.673
39716SOL    HW121045  11.236  12.823   0.658
39716SOL    HW221046  11.112  12.882   0.593
39717SOL     OW21047   5.055   3.546   3.279
39717SOL    HW121048   5.146   3.524   3.300
39717SOL    HW221049   5.032   3.486   3.208
39718SOL     OW21050   6.225  12.222   0.348
39718SOL    HW121051   6.202  12.258   0.433
39718SOL    HW221052   6.222  12.127   0.361
39719SOL     OW21053   0.167  10.001   2.355
39719SOL    HW121054   0.081  10.041   2.359
39719SOL    HW221055   0.155   9.926   2.297
39720SOL     OW21056  12.799   6.864   4.099
39720SOL    HW121057  12.714   6.829   4.073
39720SOL    HW221058  12.790   6.884   4.192
39721SOL     OW21059   0.248   0.729   4.039
39721SOL    HW121060   0.276   0.818   4.021
39721SOL    HW221061   0.212   0.732   4.128
39722SOL     OW21062   9.464  12.450   9.430
39722SOL    HW121063   9.548  12.442   9.385
39722SOL    HW221064   9.459  12.372   9.486
39723SOL     OW21065   7.197  12.747   3.132
39723SOL    HW121066   7.202  12.651   3.135
39723SOL    HW221067   7.203  12.774   3.223
39724SOL     OW21068  11.247   5.078   4.957
39724SOL    HW121069  11.185   5.081   4.885
39724SOL    HW221070  11.258   5.169   4.984
39725SOL     OW21071  14.688   0.433   4.581
39725SOL    HW121072  14.683   0.515   4.531
39725SOL    HW221073  14.597   0.410   4.598
39726SOL     OW21074   4.381  11.531  11.705
39726SOL    HW121075   4.335  11.537  11.621
39726SOL    HW221076   4.312  11.530  11.770
39727SOL     OW21077   0.902   1.519   0.317
39727SOL    HW121078   0.902   1.569   0.235
39727SOL    HW221079   0.849   1.442   0.298
39728SOL     OW21080   7.323   5.785   8.542
39728SOL    HW121081   7.260   5.738   8.487
39728SOL    HW221082   7.280   5.793   8.627
39729SOL     OW21083   9.600   5.261   3.084
39729SOL    HW121084   9.604   5.233   3.176
39729SOL    HW221085   9.578   5.181   3.037
39730SOL     OW21086   4.035  12.668  14.576
39730SOL    HW121087   3.981  12.716  14.638
39730SOL    HW221088   3.981  12.660  14.498
39731SOL     OW21089   4.511   4.561   3.852
39731SOL    HW121090   4.562   4.511   3.788
39731SOL    HW221091   4.572   4.578   3.923
39732SOL     OW21092   0.621   1.457   8.772
39732SOL    HW121093   0.627   1.550   8.753
39732SOL    HW221094   0.691   1.441   8.835
39733SOL     OW21095   3.210  14.504   1.574
39733SOL    HW121096   3.302  14.483   1.586
39733SOL    HW221097   3.164  14.427   1.607
39734SOL     OW21098  12.534   6.144   4.878
39734SOL    HW121099  12.558   6.052   4.874
39734SOL    HW221100  12.468   6.155   4.811
39735SOL     OW21101  11.944  11.144  10.149
39735SOL    HW121102  12.007  11.213  10.129
39735SOL    HW221103  11.885  11.184  10.213
39736SOL     OW21104   2.669   9.622  14.715
39736SOL    HW121105   2.640   9.710  14.693
39736SOL    HW221106   2.705   9.587  14.633
39737SOL     OW21107   8.532   8.417   9.638
39737SOL    HW121108   8.604   8.467   9.677
39737SOL    HW221109   8.513   8.463   9.556
39738SOL     OW21110  13.666   4.923  14.063
39738SOL    HW121111  13.721   4.890  13.992
39738SOL    HW221112  13.725   4.975  14.118
39739SOL     OW21113  11.514  11.019  13.504
39739SOL    HW121114  11.475  10.935  13.480
39739SOL    HW221115  11.581  10.997  13.568
39740SOL     OW21116  11.178   0.849   9.778
39740SOL    HW121117  11.112   0.795   9.734
39740SOL    HW221118  11.222   0.788   9.838
39741SOL     OW21119  13.397   2.740  14.747
39741SOL    HW121120  13.311   2.755  14.708
39741SOL    HW221121  13.381   2.743  14.842
39742SOL     OW21122   2.006   1.529  12.380
39742SOL    HW121123   1.979   1.523  12.472
39742SOL    HW221124   2.087   1.479  12.375
39743SOL     OW21125   4.007   8.283   3.479
39743SOL    HW121126   4.050   8.198   3.490
39743SOL    HW221127   3.918   8.261   3.452
39744SOL     OW21128   3.334  13.108   2.061
39744SOL    HW121129   3.401  13.161   2.019
39744SOL    HW221130   3.261  13.169   2.076
39745SOL     OW21131  10.875  10.690  10.710
39745SOL    HW121132  10.910  10.725  10.628
39745SOL    HW221133  10.943  10.709  10.775
39746SOL     OW21134   7.786  12.465   5.339
39746SOL    HW121135   7.790  12.473   5.435
39746SOL    HW221136   7.861  12.515   5.307
39747SOL     OW21137   4.961   8.552   4.499
39747SOL    HW121138   4.871   8.551   4.531
39747SOL    HW221139   4.962   8.619   4.431
39748SOL     OW21140   3.632  14.021   9.961
39748SOL    HW121141   3.604  13.929   9.963
39748SOL    HW221142   3.578  14.060   9.892
39749SOL     OW21143  10.364   5.963   3.385
39749SOL    HW121144  10.318   6.045   3.402
39749SOL    HW221145  10.318   5.924   3.311
39750SOL     OW21146   8.938  14.372  11.033
39750SOL    HW121147   9.027  14.376  11.067
39750SOL    HW221148   8.892  14.443  11.078
39751SOL     OW21149   0.462   3.902   2.352
39751SOL    HW121150   0.553   3.926   2.370
39751SOL    HW221151   0.463   3.867   2.262
39752SOL     OW21152   7.954   4.916  12.729
39752SOL    HW121153   7.911   4.998  12.756
39752SOL    HW221154   7.912   4.849  12.783
39753SOL     OW21155  12.593   2.563  11.469
39753SOL    HW121156  12.519   2.557  11.530
39753SOL    HW221157  12.638   2.479  11.476
39754SOL     OW21158  10.637   0.973   2.688
39754SOL    HW121159  10.656   0.882   2.664
39754SOL    HW221160  10.703   1.024   2.642
39755SOL     OW21161  13.513   1.231   7.103
39755SOL    HW121162  13.553   1.145   7.117
39755SOL    HW221163  13.572   1.292   7.148
39756SOL     OW21164   7.381   8.522   6.223
39756SOL    HW121165   7.379   8.519   6.318
39756SOL    HW221166   7.304   8.573   6.198
39757SOL     OW21167   2.758  13.158   6.231
39757SOL    HW121168   2.774  13.119   6.145
39757SOL    HW221169   2.828  13.223   6.241
39758SOL     OW21170   9.616  10.046   3.546
39758SOL    HW121171   9.578   9.971   3.500
39758SOL    HW221172   9.681  10.008   3.605
39759SOL     OW21173   7.703   9.084   1.654
39759SOL    HW121174   7.621   9.133   1.659
39759SOL    HW221175   7.735   9.080   1.744
39760SOL     OW21176   8.510   3.580   7.261
39760SOL    HW121177   8.472   3.496   7.287
39760SOL    HW221178   8.578   3.557   7.197
39761SOL     OW21179   6.823   6.217  14.005
39761SOL    HW121180   6.882   6.221  14.080
39761SOL    HW221181   6.816   6.124  13.984
39762SOL     OW21182   6.232   2.758   4.433
39762SOL    HW121183   6.249   2.745   4.526
39762SOL    HW221184   6.219   2.853   4.424
39763SOL     OW21185  10.546  13.870   0.322
39763SOL    HW121186  10.479  13.923   0.279
39763SOL    HW221187  10.522  13.779   0.301
39764SOL     OW21188   3.338   6.014  13.152
39764SOL    HW121189   3.398   5.949  13.115
39764SOL    HW221190   3.253   5.971  13.152
39765SOL     OW21191   0.046  10.717   3.744
39765SOL    HW121192  14.869  10.763   3.676
39765SOL    HW221193   0.128  10.691   3.702
39766SOL     OW21194   9.050   6.045   9.144
39766SOL    HW121195   9.010   6.054   9.230
39766SOL    HW221196   9.014   6.118   9.093
39767SOL     OW21197  12.068   9.901   6.293
39767SOL    HW121198  11.984   9.856   6.301
39767SOL    HW221199  12.049   9.991   6.319
39768SOL     OW21200   2.556  12.459   9.728
39768SOL    HW121201   2.532  12.422   9.643
39768SOL    HW221202   2.487  12.430   9.787
39769SOL     OW21203  14.715  12.919  11.215
39769SOL    HW121204  14.692  12.826  11.215
39769SOL    HW221205  14.704  12.947  11.306
39770SOL     OW21206   5.791  13.154  13.015
39770SOL    HW121207   5.825  13.132  13.102
39770SOL    HW221208   5.858  13.122  12.954
39771SOL     OW21209   8.688   1.098   4.440
39771SOL    HW121210   8.684   1.055   4.525
39771SOL    HW221211   8.782   1.114   4.426
39772SOL     OW21212   0.195  11.646   3.361
39772SOL    HW121213   0.190  11.618   3.270
39772SOL    HW221214   0.108  11.681   3.381
39773SOL     OW21215   3.077  13.721   9.469
39773SOL    HW121216   3.100  13.634   9.436
39773SOL    HW221217   3.144  13.779   9.433
39774SOL     OW21218  14.390   0.232  12.500
39774SOL    HW121219  14.418   0.145  12.531
39774SOL    HW221220  14.472   0.279  12.483
39775SOL     OW21221   9.032   3.584   0.075
39775SOL    HW121222   8.938   3.578   0.054
39775SOL    HW221223   9.034   3.610   0.167
39776SOL     OW21224   7.540   0.471   1.947
39776SOL    HW121225   7.539   0.412   2.023
39776SOL    HW221226   7.455   0.457   1.905
39777SOL     OW21227   0.798   5.589   0.178
39777SOL    HW121228   0.757   5.671   0.207
39777SOL    HW221229   0.862   5.569   0.245
39778SOL     OW21230   7.561   1.198  11.668
39778SOL    HW121231   7.579   1.177  11.577
39778SOL    HW221232   7.609   1.132  11.718
39779SOL     OW21233  10.357   9.523   5.003
39779SOL    HW121234  10.276   9.479   4.979
39779SOL    HW221235  10.424   9.482   4.947
39780SOL     OW21236   2.498  12.175   0.528
39780SOL    HW121237   2.425  12.114   0.532
39780SOL    HW221238   2.504  12.210   0.617
39781SOL     OW21239  13.824   9.844   0.162
39781SOL    HW121240  13.839   9.774   0.226
39781SOL    HW221241  13.813   9.923   0.214
39782SOL     OW21242   8.934   2.403   8.987
39782SOL    HW121243   8.897   2.339   9.048
39782SOL    HW221244   9.017   2.428   9.027
39783SOL     OW21245   5.495   4.634   6.305
39783SOL    HW121246   5.491   4.706   6.242
39783SOL    HW221247   5.546   4.668   6.378
39784SOL     OW21248  13.036   8.278   0.493
39784SOL    HW121249  13.094   8.202   0.489
39784SOL    HW221250  12.958   8.251   0.444
39785SOL     OW21251   6.612  10.881   6.260
39785SOL    HW121252   6.628  10.795   6.221
39785SOL    HW221253   6.645  10.874   6.349
39786SOL     OW21254  11.842   0.415  11.482
39786SOL    HW121255  11.791   0.344  11.520
39786SOL    HW221256  11.829   0.406  11.388
39787SOL     OW21257   6.761   9.253   8.442
39787SOL    HW121258   6.771   9.159   8.459
39787SOL    HW221259   6.713   9.286   8.517
39788SOL     OW21260  13.552  10.983  13.112
39788SOL    HW121261  13.464  11.020  13.099
39788SOL    HW221262  13.608  11.059  13.127
39789SOL     OW21263  14.677  11.459  14.442
39789SOL    HW121264  14.703  11.368  14.459
39789SOL    HW221265  14.582  11.456  14.430
39790SOL     OW21266   4.879  12.502   4.899
39790SOL    HW121267   4.785  12.502   4.881
39790SOL    HW221268   4.914  12.573   4.845
39791SOL     OW21269  13.590  10.389  13.135
39791SOL    HW121270  13.658  10.358  13.196
39791SOL    HW221271  13.551  10.464  13.180
39792SOL     OW21272   2.452   6.315  12.798
39792SOL    HW121273   2.382   6.381  12.792
39792SOL    HW221274   2.489   6.329  12.885
39793SOL     OW21275   3.256  12.428   6.946
39793SOL    HW121276   3.313  12.436   7.022
39793SOL    HW221277   3.280  12.501   6.890
39794SOL     OW21278   1.826   3.383  13.525
39794SOL    HW121279   1.837   3.422  13.438
39794SOL    HW221280   1.770   3.307  13.510
39795SOL     OW21281   7.577   4.108  14.127
39795SOL    HW121282   7.509   4.147  14.073
39795SOL    HW221283   7.545   4.117  14.217
39796SOL     OW21284   6.938   6.042   0.230
39796SOL    HW121285   7.001   6.060   0.160
39796SOL    HW221286   6.958   5.953   0.259
39797SOL     OW21287   7.563   1.778   9.563
39797SOL    HW121288   7.550   1.742   9.475
39797SOL    HW221289   7.476   1.806   9.591
39798SOL     OW21290  14.039   6.634   5.821
39798SOL    HW121291  14.039   6.646   5.726
39798SOL    HW221292  13.994   6.550   5.835
39799SOL     OW21293   5.352  13.799  14.536
39799SOL    HW121294   5.367  13.778  14.628
39799SOL    HW221295   5.268  13.758  14.516
39800SOL     OW21296  12.276   1.391  10.639
39800SOL    HW121297  12.371   1.385  10.649
39800SOL    HW221298  12.264   1.450  10.564
39801SOL     OW21299   8.500  11.411  13.510
39801SOL    HW121300   8.518  11.457  13.428
39801SOL    HW221301   8.504  11.479  13.577
39802SOL     OW21302  12.474   7.778   0.699
39802SOL    HW121303  12.399   7.817   0.744
39802SOL    HW221304  12.527   7.740   0.770
39803SOL     OW21305  11.590   3.347   4.210
39803SOL    HW121306  11.553   3.305   4.287
39803SOL    HW221307  11.634   3.425   4.243
39804SOL     OW21308   8.128   7.866  13.640
39804SOL    HW121309   8.091   7.841  13.725
39804SOL    HW221310   8.221   7.845  13.646
39805SOL     OW21311   7.407  12.107   8.584
39805SOL    HW121312   7.414  12.034   8.523
39805SOL    HW221313   7.325  12.152   8.560
39806SOL     OW21314   1.535   8.035   9.453
39806SOL    HW121315   1.443   8.023   9.476
39806SOL    HW221316   1.543   8.129   9.434
39807SOL     OW21317   2.923   5.315  12.230
39807SOL    HW121318   3.003   5.365  12.213
39807SOL    HW221319   2.953   5.225  12.241
39808SOL     OW21320   8.800   2.885  11.368
39808SOL    HW121321   8.861   2.888  11.442
39808SOL    HW221322   8.740   2.813  11.389
39809SOL     OW21323  10.484   3.724   6.065
39809SOL    HW121324  10.506   3.792   6.129
39809SOL    HW221325  10.404   3.684   6.100
39810SOL     OW21326   0.385   8.532  11.953
39810SOL    HW121327   0.461   8.528  11.896
39810SOL    HW221328   0.394   8.614  12.001
39811SOL     OW21329   6.836   8.877  14.835
39811SOL    HW121330   6.915   8.928  14.817
39811SOL    HW221331   6.862   8.815   0.031
39812SOL     OW21332  12.146   0.796  11.381
39812SOL    HW121333  12.235   0.763  11.377
39812SOL    HW221334  12.142   0.847  11.463
39813SOL     OW21335  13.954   2.441   3.249
39813SOL    HW121336  13.878   2.457   3.195
39813SOL    HW221337  13.920   2.439   3.339
39814SOL     OW21338  10.609   4.122   3.998
39814SOL    HW121339  10.679   4.187   4.002
39814SOL    HW221340  10.650   4.042   4.030
39815SOL     OW21341  10.164   5.180  12.216
39815SOL    HW121342  10.073   5.159  12.194
39815SOL    HW221343  10.205   5.095  12.232
39816SOL     OW21344   9.161   7.341   5.420
39816SOL    HW121345   9.120   7.396   5.487
39816SOL    HW221346   9.160   7.395   5.341
39817SOL     OW21347   5.726  12.777   3.885
39817SOL    HW121348   5.671  12.699   3.886
39817SOL    HW221349   5.742  12.793   3.792
39818SOL     OW21350  12.573   5.726   7.549
39818SOL    HW121351  12.484   5.733   7.514
39818SOL    HW221352  12.595   5.634   7.540
39819SOL     OW21353  11.876   2.156   5.826
39819SOL    HW121354  11.927   2.189   5.752
39819SOL    HW221355  11.926   2.182   5.903
39820SOL     OW21356   7.729   0.848  12.027
39820SOL    HW121357   7.669   0.822  11.958
39820SOL    HW221358   7.808   0.878  11.981
39821SOL     OW21359   4.086   7.958  13.383
39821SOL    HW121360   4.059   7.928  13.470
39821SOL    HW221361   4.012   8.011  13.352
39822SOL     OW21362   7.934  12.060   4.524
39822SOL    HW121363   7.912  12.153   4.525
39822SOL    HW221364   7.865  12.019   4.472
39823SOL     OW21365  11.222  12.966  14.106
39823SOL    HW121366  11.305  13.014  14.104
39823SOL    HW221367  11.197  12.966  14.199
39824SOL     OW21368   3.601  11.479   3.979
39824SOL    HW121369   3.638  11.414   3.919
39824SOL    HW221370   3.584  11.556   3.924
39825SOL     OW21371   5.142   2.021   9.403
39825SOL    HW121372   5.102   1.961   9.340
39825SOL    HW221373   5.186   2.087   9.348
39826SOL     OW21374   5.375   3.099   0.332
39826SOL    HW121375   5.353   3.024   0.387
39826SOL    HW221376   5.316   3.091   0.257
39827SOL     OW21377   6.834   5.807   0.055
39827SOL    HW121378   6.893   5.743   0.016
39827SOL    HW221379   6.838   5.882  14.868
39828SOL     OW21380   6.847   9.422  14.657
39828SOL    HW121381   6.932   9.394  14.690
39828SOL    HW221382   6.789   9.421  14.733
39829SOL     OW21383   5.990  13.678   9.253
39829SOL    HW121384   5.901  13.644   9.261
39829SOL    HW221385   5.979  13.774   9.252
39830SOL     OW21386   8.303   7.836   2.881
39830SOL    HW121387   8.366   7.900   2.914
39830SOL    HW221388   8.349   7.789   2.812
39831SOL     OW21389   5.783  12.055   7.581
39831SOL    HW121390   5.801  11.966   7.612
39831SOL    HW221391   5.719  12.089   7.643
39832SOL     OW21392   9.138  13.349   0.612
39832SOL    HW121393   9.151  13.349   0.707
39832SOL    HW221394   9.044  13.338   0.601
39833SOL     OW21395   7.432   8.705   3.433
39833SOL    HW121396   7.424   8.727   3.340
39833SOL    HW221397   7.486   8.626   3.434
39834SOL     OW21398   7.250   7.306   8.289
39834SOL    HW121399   7.245   7.286   8.195
39834SOL    HW221400   7.169   7.270   8.325
39835SOL     OW21401  14.361   4.577   1.738
39835SOL    HW121402  14.409   4.659   1.730
39835SOL    HW221403  14.317   4.566   1.653
39836SOL     OW21404   1.844   8.480   3.700
39836SOL    HW121405   1.786   8.532   3.756
39836SOL    HW221406   1.788   8.410   3.665
39837SOL     OW21407   3.203   3.434   5.509
39837SOL    HW121408   3.264   3.460   5.440
39837SOL    HW221409   3.260   3.416   5.585
39838SOL     OW21410   2.732   7.278  10.387
39838SOL    HW121411   2.710   7.225  10.310
39838SOL    HW221412   2.656   7.268  10.444
39839SOL     OW21413  11.689   0.206   7.360
39839SOL    HW121414  11.657   0.151   7.289
39839SOL    HW221415  11.754   0.152   7.406
39840SOL     OW21416   5.204   8.193   7.839
39840SOL    HW121417   5.241   8.205   7.751
39840SOL    HW221418   5.254   8.120   7.876
39841SOL     OW21419  10.028   5.388   5.577
39841SOL    HW121420   9.950   5.404   5.629
39841SOL    HW221421  10.061   5.475   5.554
39842SOL     OW21422   3.570  11.854  12.785
39842SOL    HW121423   3.642  11.802  12.748
39842SOL    HW221424   3.508  11.789  12.817
39843SOL     OW21425  13.096   1.824   9.192
39843SOL    HW121426  13.036   1.750   9.198
39843SOL    HW221427  13.140   1.814   9.107
39844SOL     OW21428  10.882   9.700   0.419
39844SOL    HW121429  10.880   9.795   0.413
39844SOL    HW221430  10.838   9.670   0.339
39845SOL     OW21431   9.208   0.051   3.336
39845SOL    HW121432   9.162   0.051   3.420
39845SOL    HW221433   9.176  14.845   3.291
39846SOL     OW21434   6.965   6.936   0.377
39846SOL    HW121435   7.029   6.905   0.441
39846SOL    HW221436   6.961   7.030   0.389
39847SOL     OW21437   3.186  12.782  10.043
39847SOL    HW121438   3.190  12.718  10.115
39847SOL    HW221439   3.277  12.807  10.029
39848SOL     OW21440   7.416   2.810  11.296
39848SOL    HW121441   7.469   2.807  11.376
39848SOL    HW221442   7.396   2.903  11.284
39849SOL     OW21443   3.443   1.590  13.987
39849SOL    HW121444   3.362   1.610  13.940
39849SOL    HW221445   3.425   1.506  14.030
39850SOL     OW21446  12.615   3.917   2.525
39850SOL    HW121447  12.615   3.903   2.430
39850SOL    HW221448  12.706   3.936   2.546
39851SOL     OW21449   1.506  10.544   9.716
39851SOL    HW121450   1.578  10.529   9.777
39851SOL    HW221451   1.517  10.634   9.687
39852SOL     OW21452   6.327  14.509  11.031
39852SOL    HW121453   6.411  14.464  11.022
39852SOL    HW221454   6.262  14.439  11.032
39853SOL     OW21455   2.467   3.629   6.217
39853SOL    HW121456   2.371   3.638   6.215
39853SOL    HW221457   2.491   3.614   6.125
39854SOL     OW21458   1.540   5.564   7.104
39854SOL    HW121459   1.496   5.645   7.131
39854SOL    HW221460   1.519   5.555   7.011
39855SOL     OW21461  10.964   4.288   1.567
39855SOL    HW121462  10.917   4.247   1.640
39855SOL    HW221463  10.989   4.374   1.599
39856SOL     OW21464   5.509   5.665   6.228
39856SOL    HW121465   5.525   5.573   6.248
39856SOL    HW221466   5.511   5.670   6.133
39857SOL     OW21467   6.345   2.006   7.106
39857SOL    HW121468   6.349   1.926   7.054
39857SOL    HW221469   6.315   1.977   7.192
39858SOL     OW21470   2.101  12.684   9.192
39858SOL    HW121471   2.044  12.741   9.140
39858SOL    HW221472   2.152  12.636   9.126
39859SOL     OW21473   6.655  13.748   1.795
39859SOL    HW121474   6.560  13.752   1.798
39859SOL    HW221475   6.681  13.824   1.743
39860SOL     OW21476   3.374   1.510   0.479
39860SOL    HW121477   3.463   1.476   0.477
39860SOL    HW221478   3.375   1.576   0.548
39861SOL     OW21479   0.938   9.502   1.777
39861SOL    HW121480   0.902   9.589   1.763
39861SOL    HW221481   1.032   9.511   1.758
39862SOL     OW21482   7.992   9.548   3.717
39862SOL    HW121483   8.061   9.606   3.748
39862SOL    HW221484   7.913   9.580   3.759
39863SOL     OW21485   8.761  11.604   0.178
39863SOL    HW121486   8.808  11.671   0.228
39863SOL    HW221487   8.759  11.637   0.088
39864SOL     OW21488   8.316   1.959  13.321
39864SOL    HW121489   8.338   2.053  13.323
39864SOL    HW221490   8.368   1.921  13.391
39865SOL     OW21491   7.734  10.202  13.145
39865SOL    HW121492   7.797  10.263  13.105
39865SOL    HW221493   7.655  10.212  13.092
39866SOL     OW21494   6.174   3.270  10.998
39866SOL    HW121495   6.129   3.336  11.051
39866SOL    HW221496   6.221   3.320  10.932
39867SOL     OW21497  11.036   9.893  14.063
39867SOL    HW121498  11.019   9.843  13.983
39867SOL    HW221499  11.120   9.859  14.095
39868SOL     OW21500   2.747   4.769   4.662
39868SOL    HW121501   2.724   4.754   4.754
39868SOL    HW221502   2.690   4.841   4.635
39869SOL     OW21503  12.397  14.480   2.088
39869SOL    HW121504  12.365  14.393   2.063
39869SOL    HW221505  12.488  14.482   2.059
39870SOL     OW21506  14.114  12.174   5.393
39870SOL    HW121507  14.192  12.121   5.411
39870SOL    HW221508  14.047  12.139   5.451
39871SOL     OW21509  11.922   1.299   1.856
39871SOL    HW121510  11.882   1.359   1.793
39871SOL    HW221511  11.956   1.356   1.925
39872SOL     OW21512   0.181  11.929   0.846
39872SOL    HW121513   0.212  12.016   0.872
39872SOL    HW221514   0.141  11.942   0.760
39873SOL     OW21515   0.512   4.566   5.516
39873SOL    HW121516   0.508   4.474   5.493
39873SOL    HW221517   0.571   4.605   5.452
39874SOL     OW21518  12.492  12.280   6.081
39874SOL    HW121519  12.406  12.309   6.110
39874SOL    HW221520  12.475  12.231   6.001
39875SOL     OW21521   6.955   0.129  13.070
39875SOL    HW121522   6.888   0.184  13.029
39875SOL    HW221523   7.033   0.184  13.071
39876SOL     OW21524   5.205   0.814  10.571
39876SOL    HW121525   5.188   0.723  10.546
39876SOL    HW221526   5.162   0.866  10.503
39877SOL     OW21527   7.400  12.418  10.491
39877SOL    HW121528   7.343  12.388  10.420
39877SOL    HW221529   7.423  12.338  10.538
39878SOL     OW21530  13.795   8.383  14.799
39878SOL    HW121531  13.732   8.417  14.736
39878SOL    HW221532  13.744   8.326  14.857
39879SOL     OW21533   5.823  10.600   8.511
39879SOL    HW121534   5.728  10.590   8.513
39879SOL    HW221535   5.857  10.511   8.506
39880SOL     OW21536  10.386   8.187   2.956
39880SOL    HW121537  10.365   8.262   2.900
39880SOL    HW221538  10.348   8.210   3.041
39881SOL     OW21539  13.549   1.916  12.851
39881SOL    HW121540  13.489   1.971  12.901
39881SOL    HW221541  13.506   1.904  12.766
39882SOL     OW21542   2.847   0.897  10.701
39882SOL    HW121543   2.892   0.826  10.653
39882SOL    HW221544   2.913   0.929  10.763
39883SOL     OW21545   8.730   5.601  14.778
39883SOL    HW121546   8.653   5.650  14.804
39883SOL    HW221547   8.710   5.569  14.689
39884SOL     OW21548  11.512   4.241   2.231
39884SOL    HW121549  11.606   4.226   2.223
39884SOL    HW221550  11.480   4.165   2.280
39885SOL     OW21551   9.652  13.362   2.600
39885SOL    HW121552   9.685  13.287   2.649
39885SOL    HW221553   9.727  13.421   2.592
39886SOL     OW21554   7.024  13.833   0.267
39886SOL    HW121555   6.956  13.896   0.291
39886SOL    HW221556   6.993  13.750   0.304
39887SOL     OW21557  14.536   9.580   4.889
39887SOL    HW121558  14.517   9.665   4.929
39887SOL    HW221559  14.556   9.600   4.798
39888SOL     OW21560   8.511   6.149  14.122
39888SOL    HW121561   8.546   6.139  14.210
39888SOL    HW221562   8.418   6.166  14.134
39889SOL     OW21563   8.934   8.346   2.669
39889SOL    HW121564   8.929   8.273   2.730
39889SOL    HW221565   8.847   8.386   2.671
39890SOL     OW21566   4.614   8.508   7.042
39890SOL    HW121567   4.650   8.580   6.990
39890SOL    HW221568   4.649   8.522   7.130
39891SOL     OW21569   0.028  12.461  12.374
39891SOL    HW121570  14.866  12.372  12.362
39891SOL    HW221571  14.822  12.517  12.365
39892SOL     OW21572  13.840   7.790   3.478
39892SOL    HW121573  13.790   7.750   3.407
39892SOL    HW221574  13.875   7.716   3.528
39893SOL     OW21575  12.944   1.366  14.664
39893SOL    HW121576  13.026   1.347  14.709
39893SOL    HW221577  12.895   1.419  14.726
39894SOL     OW21578  13.679  10.270   1.681
39894SOL    HW121579  13.739  10.328   1.634
39894SOL    HW221580  13.593  10.291   1.645
39895SOL     OW21581   3.734   6.855   3.203
39895SOL    HW121582   3.659   6.873   3.259
39895SOL    HW221583   3.696   6.842   3.116
39896SOL     OW21584  12.195   9.199  14.847
39896SOL    HW121585  12.200   9.118   0.027
39896SOL    HW221586  12.249   9.181  14.771
39897SOL     OW21587  14.229  10.861  14.769
39897SOL    HW121588  14.271  10.776  14.782
39897SOL    HW221589  14.141  10.850  14.806
39898SOL     OW21590  14.286  12.465   3.979
39898SOL    HW121591  14.296  12.462   3.884
39898SOL    HW221592  14.353  12.405   4.012
39899SOL     OW21593  12.465  14.398   3.366
39899SOL    HW121594  12.430  14.332   3.305
39899SOL    HW221595  12.557  14.406   3.342
39900SOL     OW21596  10.610   0.424   9.160
39900SOL    HW121597  10.577   0.378   9.237
39900SOL    HW221598  10.531   0.458   9.117
39901SOL     OW21599   5.289  10.814  14.183
39901SOL    HW121600   5.293  10.746  14.116
39901SOL    HW221601   5.353  10.880  14.154
39902SOL     OW21602   4.385   4.266   7.550
39902SOL    HW121603   4.477   4.242   7.537
39902SOL    HW221604   4.387   4.339   7.611
39903SOL     OW21605  10.113   0.853  14.477
39903SOL    HW121606  10.196   0.824  14.439
39903SOL    HW221607  10.124   0.948  14.487
39904SOL     OW21608   6.442   3.223  11.374
39904SOL    HW121609   6.428   3.183  11.289
39904SOL    HW221610   6.433   3.152  11.437
39905SOL     OW21611   7.200  14.467   7.419
39905SOL    HW121612   7.117  14.425   7.442
39905SOL    HW221613   7.235  14.415   7.347
39906SOL     OW21614  11.622   7.986   0.952
39906SOL    HW121615  11.548   8.025   0.905
39906SOL    HW221616  11.687   7.968   0.884
39907SOL     OW21617  10.513  14.448  11.964
39907SOL    HW121618  10.579  14.444  11.894
39907SOL    HW221619  10.538  14.378  12.024
39908SOL     OW21620   6.355   1.873   3.527
39908SOL    HW121621   6.423   1.900   3.465
39908SOL    HW221622   6.403   1.850   3.607
39909SOL     OW21623   4.743  11.046   0.698
39909SOL    HW121624   4.820  11.039   0.642
39909SOL    HW221625   4.764  11.117   0.759
39910SOL     OW21626   9.522   7.009  10.915
39910SOL    HW121627   9.498   6.929  10.961
39910SOL    HW221628   9.546   6.980  10.827
39911SOL     OW21629   3.114  11.851  13.754
39911SOL    HW121630   3.050  11.795  13.709
39911SOL    HW221631   3.067  11.882  13.832
39912SOL     OW21632   8.297   0.026  12.477
39912SOL    HW121633   8.349   0.041  12.556
39912SOL    HW221634   8.215   0.072  12.493
39913SOL     OW21635   4.840  11.014   3.140
39913SOL    HW121636   4.900  11.084   3.112
39913SOL    HW221637   4.891  10.964   3.203
39914SOL     OW21638   0.992   4.225   6.402
39914SOL    HW121639   1.034   4.263   6.325
39914SOL    HW221640   1.064   4.192   6.456
39915SOL     OW21641  10.478   3.701   2.104
39915SOL    HW121642  10.450   3.722   2.193
39915SOL    HW221643  10.535   3.774   2.079
39916SOL     OW21644   3.728   7.603   4.419
39916SOL    HW121645   3.690   7.639   4.339
39916SOL    HW221646   3.711   7.509   4.414
39917SOL     OW21647   6.598   3.481  10.635
39917SOL    HW121648   6.670   3.426  10.604
39917SOL    HW221649   6.572   3.442  10.719
39918SOL     OW21650   4.777  14.271   3.052
39918SOL    HW121651   4.810  14.358   3.073
39918SOL    HW221652   4.855  14.215   3.049
39919SOL     OW21653  10.368   3.693  12.533
39919SOL    HW121654  10.280   3.724  12.554
39919SOL    HW221655  10.416   3.773  12.513
39920SOL     OW21656   5.437   2.165   5.044
39920SOL    HW121657   5.517   2.115   5.027
39920SOL    HW221658   5.411   2.199   4.958
39921SOL     OW21659   4.174  10.443   2.821
39921SOL    HW121660   4.244  10.377   2.825
39921SOL    HW221661   4.156  10.465   2.912
39922SOL     OW21662  10.436   1.244  10.963
39922SOL    HW121663  10.341   1.240  10.978
39922SOL    HW221664  10.474   1.223  11.049
39923SOL     OW21665   4.209   4.365   1.429
39923SOL    HW121666   4.286   4.309   1.429
39923SOL    HW221667   4.157   4.335   1.503
39924SOL     OW21668  14.126   5.657   4.183
39924SOL    HW121669  14.081   5.742   4.190
39924SOL    HW221670  14.143   5.646   4.090
39925SOL     OW21671  11.501   9.520   9.029
39925SOL    HW121672  11.488   9.611   9.002
39925SOL    HW221673  11.591   9.500   9.004
39926SOL     OW21674   3.147  10.194   5.305
39926SOL    HW121675   3.103  10.142   5.238
39926SOL    HW221676   3.106  10.168   5.387
39927SOL     OW21677   6.500  10.334  12.380
39927SOL    HW121678   6.452  10.273  12.324
39927SOL    HW221679   6.448  10.415  12.376
39928SOL     OW21680   8.878  10.111   5.367
39928SOL    HW121681   8.939  10.075   5.303
39928SOL    HW221682   8.872  10.044   5.435
39929SOL     OW21683   3.636   2.685  13.433
39929SOL    HW121684   3.666   2.735  13.508
39929SOL    HW221685   3.685   2.602  13.438
39930SOL     OW21686   5.941   7.896  12.303
39930SOL    HW121687   5.879   7.841  12.350
39930SOL    HW221688   6.017   7.900  12.360
39931SOL     OW21689   3.316   6.004  13.970
39931SOL    HW121690   3.333   6.042  14.057
39931SOL    HW221691   3.302   6.080  13.914
39932SOL     OW21692  11.549   4.326   7.366
39932SOL    HW121693  11.558   4.238   7.329
39932SOL    HW221694  11.585   4.318   7.455
39933SOL     OW21695   6.852  10.909  11.763
39933SOL    HW121696   6.814  10.851  11.829
39933SOL    HW221697   6.858  10.994  11.806
39934SOL     OW21698   9.130   9.595  14.792
39934SOL    HW121699   9.195   9.562  14.730
39934SOL    HW221700   9.144   9.544   0.000
39935SOL     OW21701  12.119   7.583   7.667
39935SOL    HW121702  12.034   7.578   7.710
39935SOL    HW221703  12.102   7.555   7.577
39936SOL     OW21704  14.770   3.892   5.977
39936SOL    HW121705  14.769   3.933   6.064
39936SOL    HW221706  14.754   3.800   5.994
39937SOL     OW21707   1.039   7.972   2.938
39937SOL    HW121708   1.009   7.907   2.875
39937SOL    HW221709   1.109   7.929   2.986
39938SOL     OW21710  14.610   1.918  11.067
39938SOL    HW121711  14.683   1.879  11.115
39938SOL    HW221712  14.532   1.888  11.114
39939SOL     OW21713  10.869   0.382  12.643
39939SOL    HW121714  10.813   0.359  12.568
39939SOL    HW221715  10.807   0.414  12.709
39940SOL     OW21716   7.056   7.743   5.459
39940SOL    HW121717   7.121   7.802   5.420
39940SOL    HW221718   7.097   7.657   5.455
39941SOL     OW21719   6.885  12.785   3.803
39941SOL    HW121720   6.795  12.757   3.817
39941SOL    HW221721   6.937  12.706   3.816
39942SOL     OW21722  12.097   9.100  10.849
39942SOL    HW121723  12.159   9.174  10.850
39942SOL    HW221724  12.153   9.023  10.836
39943SOL     OW21725   7.184   3.866  13.794
39943SOL    HW121726   7.214   3.776  13.779
39943SOL    HW221727   7.170   3.901  13.707
39944SOL     OW21728   6.402  14.096   0.468
39944SOL    HW121729   6.462  14.033   0.507
39944SOL    HW221730   6.449  14.131   0.392
39945SOL     OW21731   7.736  13.229   0.172
39945SOL    HW121732   7.806  13.219   0.107
39945SOL    HW221733   7.681  13.152   0.158
39946SOL     OW21734   6.649   4.428   8.539
39946SOL    HW121735   6.630   4.334   8.535
39946SOL    HW221736   6.721   4.440   8.476
39947SOL     OW21737   1.350   5.579  13.428
39947SOL    HW121738   1.386   5.505  13.380
39947SOL    HW221739   1.263   5.550  13.455
39948SOL     OW21740   0.631  10.095   3.384
39948SOL    HW121741   0.677  10.109   3.301
39948SOL    HW221742   0.644  10.002   3.403
39949SOL     OW21743  12.484  13.820   8.287
39949SOL    HW121744  12.409  13.866   8.249
39949SOL    HW221745  12.497  13.744   8.230
39950SOL     OW21746  12.610   8.559  14.732
39950SOL    HW121747  12.674   8.538  14.663
39950SOL    HW221748  12.618   8.654  14.742
39951SOL     OW21749   1.996   5.448   6.493
39951SOL    HW121750   2.036   5.410   6.572
39951SOL    HW221751   2.013   5.383   6.425
39952SOL     OW21752   8.210  12.969  11.293
39952SOL    HW121753   8.250  13.051  11.265
39952SOL    HW221754   8.189  12.924  11.211
39953SOL     OW21755  10.155   4.481   9.933
39953SOL    HW121756  10.177   4.394   9.899
39953SOL    HW221757  10.059   4.485   9.928
39954SOL     OW21758   1.939   6.987   9.315
39954SOL    HW121759   1.942   7.083   9.320
39954SOL    HW221760   2.023   6.963   9.277
39955SOL     OW21761   2.669   7.467   1.044
39955SOL    HW121762   2.721   7.547   1.043
39955SOL    HW221763   2.721   7.405   1.095
39956SOL     OW21764   7.146   4.204   1.383
39956SOL    HW121765   7.136   4.286   1.336
39956SOL    HW221766   7.082   4.145   1.343
39957SOL     OW21767   0.189  11.051   1.423
39957SOL    HW121768   0.165  10.959   1.434
39957SOL    HW221769   0.154  11.094   1.502
39958SOL     OW21770  10.090  13.870   7.676
39958SOL    HW121771  10.115  13.925   7.750
39958SOL    HW221772  10.004  13.835   7.700
39959SOL     OW21773  12.371   7.543  12.543
39959SOL    HW121774  12.445   7.580  12.495
39959SOL    HW221775  12.300   7.538  12.479
39960SOL     OW21776   2.019   7.537  12.173
39960SOL    HW121777   2.035   7.631  12.178
39960SOL    HW221778   1.951   7.521  12.238
39961SOL     OW21779   0.332   2.707   3.995
39961SOL    HW121780   0.298   2.622   3.969
39961SOL    HW221781   0.424   2.691   4.015
39962SOL     OW21782  13.381   8.271  10.494
39962SOL    HW121783  13.422   8.213  10.559
39962SOL    HW221784  13.353   8.347  10.544
39963SOL     OW21785   8.268  13.488   6.294
39963SOL    HW121786   8.345  13.540   6.273
39963SOL    HW221787   8.251  13.508   6.387
39964SOL     OW21788   2.139   9.526  13.044
39964SOL    HW121789   2.090   9.444  13.048
39964SOL    HW221790   2.229   9.502  13.066
39965SOL     OW21791   3.417  10.000   5.169
39965SOL    HW121792   3.351  10.025   5.105
39965SOL    HW221793   3.403   9.906   5.183
39966SOL     OW21794   2.198  10.450   6.028
39966SOL    HW121795   2.119  10.417   5.984
39966SOL    HW221796   2.205  10.397   6.107
39967SOL     OW21797  13.719   4.115   4.439
39967SOL    HW121798  13.785   4.048   4.455
39967SOL    HW221799  13.754   4.167   4.366
39968SOL     OW21800   0.559  11.856   5.273
39968SOL    HW121801   0.548  11.836   5.180
39968SOL    HW221802   0.651  11.837   5.291
39969SOL     OW21803   9.887  11.412   1.613
39969SOL    HW121804   9.941  11.401   1.691
39969SOL    HW221805   9.861  11.504   1.615
39970SOL     OW21806  11.938  10.319   5.725
39970SOL    HW121807  11.989  10.272   5.658
39970SOL    HW221808  11.999  10.328   5.798
39971SOL     OW21809   5.957   0.997   7.872
39971SOL    HW121810   5.918   1.021   7.956
39971SOL    HW221811   5.916   0.913   7.850
39972SOL     OW21812   0.964   8.814   7.389
39972SOL    HW121813   1.032   8.749   7.408
39972SOL    HW221814   0.888   8.784   7.439
39973SOL     OW21815  10.939   2.227   2.045
39973SOL    HW121816  11.019   2.186   2.012
39973SOL    HW221817  10.953   2.236   2.139
39974SOL     OW21818   7.902   5.973   1.521
39974SOL    HW121819   7.885   6.047   1.578
39974SOL    HW221820   7.816   5.937   1.501
39975SOL     OW21821  12.540  11.602   5.333
39975SOL    HW121822  12.448  11.622   5.347
39975SOL    HW221823  12.544  11.564   5.245
39976SOL     OW21824   3.299   5.741  12.668
39976SOL    HW121825   3.236   5.766  12.600
39976SOL    HW221826   3.341   5.823  12.693
39977SOL     OW21827  13.657   9.772  14.183
39977SOL    HW121828  13.690   9.712  14.250
39977SOL    HW221829  13.620   9.845  14.233
39978SOL     OW21830  13.872   4.812   2.020
39978SOL    HW121831  13.780   4.832   2.002
39978SOL    HW221832  13.895   4.747   1.954
39979SOL     OW21833  10.215   1.523   2.559
39979SOL    HW121834  10.261   1.471   2.625
39979SOL    HW221835  10.198   1.607   2.603
39980SOL     OW21836  10.926   1.085   7.265
39980SOL    HW121837  10.973   1.168   7.258
39980SOL    HW221838  10.950   1.036   7.187
39981SOL     OW21839   1.009   2.317   4.519
39981SOL    HW121840   0.919   2.310   4.549
39981SOL    HW221841   1.002   2.345   4.428
39982SOL     OW21842   1.665  13.594   7.555
39982SOL    HW121843   1.600  13.594   7.484
39982SOL    HW221844   1.636  13.664   7.613
39983SOL     OW21845   9.777   8.999   1.278
39983SOL    HW121846   9.815   8.971   1.195
39983SOL    HW221847   9.742   8.919   1.317
39984SOL     OW21848   0.350   1.635   7.349
39984SOL    HW121849   0.324   1.543   7.349
39984SOL    HW221850   0.294   1.675   7.416
39985SOL     OW21851   9.052   8.737   4.086
39985SOL    HW121852   8.960   8.760   4.098
39985SOL    HW221853   9.093   8.762   4.169
39986SOL     OW21854   1.239  12.798  12.878
39986SOL    HW121855   1.169  12.753  12.925
39986SOL    HW221856   1.319  12.774  12.925
39987SOL     OW21857  12.756   1.486  14.830
39987SOL    HW121858  12.750   1.568   0.007
39987SOL    HW221859  12.719   1.421   0.018
39988SOL     OW21860  11.652   1.828  10.944
39988SOL    HW121861  11.593   1.753  10.948
39988SOL    HW221862  11.716   1.805  10.876
39989SOL     OW21863   2.573   9.682   3.606
39989SOL    HW121864   2.630   9.660   3.679
39989SOL    HW221865   2.502   9.618   3.611
39990SOL     OW21866   1.313  14.707   0.642
39990SOL    HW121867   1.409  14.709   0.643
39990SOL    HW221868   1.289  14.676   0.729
39991SOL     OW21869   0.960   4.691   0.155
39991SOL    HW121870   1.027   4.643   0.204
39991SOL    HW221871   1.005   4.721   0.076
39992SOL     OW21872   6.025   6.187   2.456
39992SOL    HW121873   5.937   6.225   2.452
39992SOL    HW221874   6.012   6.103   2.501
39993SOL     OW21875  11.573  13.358   4.861
39993SOL    HW121876  11.491  13.375   4.908
39993SOL    HW221877  11.636  13.417   4.900
39994SOL     OW21878  10.190   0.462   5.918
39994SOL    HW121879  10.164   0.405   5.845
39994SOL    HW221880  10.227   0.402   5.982
39995SOL     OW21881   8.263   6.748   0.361
39995SOL    HW121882   8.237   6.699   0.439
39995SOL    HW221883   8.256   6.686   0.289
39996SOL     OW21884   8.070  13.179   6.089
39996SOL    HW121885   7.979  13.150   6.079
39996SOL    HW221886   8.097  13.206   6.001
39997SOL     OW21887  12.908   5.318   7.430
39997SOL    HW121888  12.963   5.379   7.382
39997SOL    HW221889  12.967   5.273   7.491
39998SOL     OW21890  11.656   8.016   2.027
39998SOL    HW121891  11.693   8.076   2.091
39998SOL    HW221892  11.569   8.053   2.007
39999SOL     OW21893   1.626   0.129   4.078
39999SOL    HW121894   1.608   0.202   4.138
39999SOL    HW221895   1.557   0.065   4.098
40000SOL     OW21896   5.655   9.078   2.022
40000SOL    HW121897   5.565   9.083   2.055
40000SOL    HW221898   5.702   9.145   2.070
40001SOL     OW21899   3.382   0.263  13.968
40001SOL    HW121900   3.440   0.295  14.038
40001SOL    HW221901   3.296   0.297  13.991
40002SOL     OW21902   6.319   7.293   0.312
40002SOL    HW121903   6.263   7.284   0.389
40002SOL    HW221904   6.401   7.327   0.347
40003SOL     OW21905   7.510  12.792   9.340
40003SOL    HW121906   7.529  12.882   9.310
40003SOL    HW221907   7.593  12.760   9.373
40004SOL     OW21908   1.169   3.866  11.094
40004SOL    HW121909   1.201   3.784  11.057
40004SOL    HW221910   1.164   3.925  11.019
40005SOL     OW21911   9.636   9.014   1.728
40005SOL    HW121912   9.695   8.954   1.775
40005SOL    HW221913   9.600   9.070   1.797
40006SOL     OW21914   0.476  14.033   6.378
40006SOL    HW121915   0.472  14.127   6.393
40006SOL    HW221916   0.562  14.018   6.339
40007SOL     OW21917  10.379   2.221   7.968
40007SOL    HW121918  10.421   2.152   7.915
40007SOL    HW221919  10.310   2.255   7.911
40008SOL     OW21920   7.821   5.860  12.725
40008SOL    HW121921   7.889   5.923  12.749
40008SOL    HW221922   7.756   5.867  12.795
40009SOL     OW21923   2.683  12.889   2.732
40009SOL    HW121924   2.728  12.865   2.651
40009SOL    HW221925   2.751  12.885   2.800
40010SOL     OW21926  11.362   5.251   9.557
40010SOL    HW121927  11.447   5.294   9.559
40010SOL    HW221928  11.299   5.322   9.558
40011SOL     OW21929   1.060  11.197  11.541
40011SOL    HW121930   1.154  11.182  11.534
40011SOL    HW221931   1.041  11.263  11.474
40012SOL     OW21932   8.439   3.012   0.156
40012SOL    HW121933   8.408   2.945   0.094
40012SOL    HW221934   8.442   2.967   0.240
40013SOL     OW21935  12.209   2.861  12.872
40013SOL    HW121936  12.270   2.829  12.806
40013SOL    HW221937  12.199   2.955  12.854
40014SOL     OW21938  12.231   3.427   1.791
40014SOL    HW121939  12.288   3.500   1.816
40014SOL    HW221940  12.233   3.428   1.695
40015SOL     OW21941  13.316   9.960  14.099
40015SOL    HW121942  13.290  10.052  14.110
40015SOL    HW221943  13.381   9.945  14.167
40016SOL     OW21944   7.489   0.880  14.232
40016SOL    HW121945   7.448   0.963  14.253
40016SOL    HW221946   7.521   0.891  14.142
40017SOL     OW21947   4.066   5.878   5.470
40017SOL    HW121948   4.119   5.887   5.549
40017SOL    HW221949   3.977   5.895   5.498
40018SOL     OW21950   1.043   8.820   9.534
40018SOL    HW121951   1.040   8.725   9.548
40018SOL    HW221952   0.953   8.850   9.546
40019SOL     OW21953  13.446   1.294   7.958
40019SOL    HW121954  13.457   1.201   7.978
40019SOL    HW221955  13.386   1.295   7.883
40020SOL     OW21956   2.148  14.198   3.963
40020SOL    HW121957   2.209  14.166   4.029
40020SOL    HW221958   2.094  14.262   4.009
40021SOL     OW21959  11.707  12.384   8.914
40021SOL    HW121960  11.653  12.437   8.973
40021SOL    HW221961  11.737  12.445   8.847
40022SOL     OW21962  13.332   6.143   3.163
40022SOL    HW121963  13.304   6.231   3.187
40022SOL    HW221964  13.419   6.156   3.125
40023SOL     OW21965   7.183   2.852   5.951
40023SOL    HW121966   7.091   2.851   5.977
40023SOL    HW221967   7.200   2.763   5.918
40024SOL     OW21968   7.987  12.910   2.955
40024SOL    HW121969   7.919  12.851   2.923
40024SOL    HW221970   7.971  12.992   2.909
40025SOL     OW21971   1.392  12.786   3.245
40025SOL    HW121972   1.442  12.808   3.166
40025SOL    HW221973   1.339  12.710   3.219
40026SOL     OW21974  12.711  11.438   2.018
40026SOL    HW121975  12.733  11.390   2.098
40026SOL    HW221976  12.621  11.468   2.031
40027SOL     OW21977  13.993   6.803   2.807
40027SOL    HW121978  14.070   6.824   2.860
40027SOL    HW221979  13.998   6.709   2.794
40028SOL     OW21980  12.613   9.058   6.362
40028SOL    HW121981  12.537   9.071   6.418
40028SOL    HW221982  12.581   9.004   6.290
40029SOL     OW21983   1.303   2.493   2.735
40029SOL    HW121984   1.276   2.473   2.825
40029SOL    HW221985   1.229   2.541   2.698
40030SOL     OW21986   4.585   6.888   4.948
40030SOL    HW121987   4.631   6.972   4.953
40030SOL    HW221988   4.527   6.897   4.873
40031SOL     OW21989  14.328   7.265   3.562
40031SOL    HW121990  14.246   7.264   3.513
40031SOL    HW221991  14.339   7.357   3.589
40032SOL     OW21992   6.020   4.028  13.273
40032SOL    HW121993   6.094   3.969  13.261
40032SOL    HW221994   6.022   4.085  13.196
40033SOL     OW21995   3.410   6.739  13.893
40033SOL    HW121996   3.387   6.696  13.810
40033SOL    HW221997   3.449   6.669  13.945
40034SOL     OW21998  11.812   3.904  10.150
40034SOL    HW121999  11.726   3.927  10.117
40034SOL    HW222000  11.873   3.950  10.093
40035SOL     OW22001   2.112   4.478   2.245
40035SOL    HW122002   2.112   4.547   2.179
40035SOL    HW222003   2.020   4.469   2.271
40036SOL     OW22004   9.285   5.668   5.075
40036SOL    HW122005   9.221   5.644   5.141
40036SOL    HW222006   9.284   5.764   5.074
40037SOL     OW22007   6.796  10.126   0.832
40037SOL    HW122008   6.808  10.097   0.741
40037SOL    HW222009   6.795  10.045   0.883
40038SOL     OW22010  13.470   8.849  10.219
40038SOL    HW122011  13.537   8.836  10.286
40038SOL    HW222012  13.401   8.787  10.241
40039SOL     OW22013   9.483   5.455   4.442
40039SOL    HW122014   9.469   5.544   4.409
40039SOL    HW222015   9.406   5.438   4.497
40040SOL     OW22016   6.701  13.805   9.921
40040SOL    HW122017   6.631  13.796   9.856
40040SOL    HW222018   6.668  13.763   9.999
40041SOL     OW22019  13.288   0.757   4.955
40041SOL    HW122020  13.329   0.787   5.036
40041SOL    HW222021  13.252   0.671   4.977
40042SOL     OW22022   9.317   6.100   7.838
40042SOL    HW122023   9.242   6.108   7.897
40042SOL    HW222024   9.327   6.186   7.799
40043SOL     OW22025   2.628  14.831   3.380
40043SOL    HW122026   2.597   0.030   3.436
40043SOL    HW222027   2.655  14.762   3.440
40044SOL     OW22028   3.840   1.999  13.440
40044SOL    HW122029   3.793   1.915  13.441
40044SOL    HW222030   3.787   2.057  13.494
40045SOL     OW22031   4.990  10.828  10.663
40045SOL    HW122032   4.928  10.815  10.734
40045SOL    HW222033   5.043  10.903  10.690
40046SOL     OW22034   1.302   2.538  12.719
40046SOL    HW122035   1.264   2.470  12.664
40046SOL    HW222036   1.314   2.612  12.659
40047SOL     OW22037  11.420  11.964   8.186
40047SOL    HW122038  11.391  11.969   8.095
40047SOL    HW222039  11.484  12.035   8.194
40048SOL     OW22040   4.567   3.641   9.075
40048SOL    HW122041   4.506   3.608   9.141
40048SOL    HW222042   4.527   3.721   9.042
40049SOL     OW22043   3.373   8.202   1.094
40049SOL    HW122044   3.441   8.137   1.077
40049SOL    HW222045   3.295   8.166   1.051
40050SOL     OW22046  13.144  13.186   8.543
40050SOL    HW122047  13.115  13.124   8.477
40050SOL    HW222048  13.079  13.256   8.542
40051SOL     OW22049   7.401  14.733  10.348
40051SOL    HW122050   7.365  14.762  10.264
40051SOL    HW222051   7.349  14.656  10.371
40052SOL     OW22052   0.219   8.891   4.024
40052SOL    HW122053   0.180   8.975   4.000
40052SOL    HW222054   0.246   8.901   4.115
40053SOL     OW22055   5.087  12.843  13.764
40053SOL    HW122056   5.154  12.798  13.816
40053SOL    HW222057   5.132  12.866  13.682
40054SOL     OW22058   5.034   3.651   6.583
40054SOL    HW122059   4.993   3.699   6.655
40054SOL    HW222060   5.045   3.717   6.515
40055SOL     OW22061   3.425   8.376   1.798
40055SOL    HW122062   3.348   8.390   1.744
40055SOL    HW222063   3.420   8.285   1.825
40056SOL     OW22064   7.005  12.259   0.950
40056SOL    HW122065   6.934  12.231   1.008
40056SOL    HW222066   6.971  12.337   0.906
40057SOL     OW22067  13.943   1.128   1.351
40057SOL    HW122068  13.925   1.034   1.349
40057SOL    HW222069  13.992   1.145   1.270
40058SOL     OW22070  11.655   5.684   3.657
40058SOL    HW122071  11.716   5.720   3.593
40058SOL    HW222072  11.708   5.673   3.737
40059SOL     OW22073   7.011   4.500   0.842
40059SOL    HW122074   7.009   4.551   0.923
40059SOL    HW222075   6.932   4.446   0.845
40060SOL     OW22076  14.559  12.482   0.968
40060SOL    HW122077  14.624  12.440   1.024
40060SOL    HW222078  14.477  12.474   1.017
40061SOL     OW22079   3.362   2.600   6.497
40061SOL    HW122080   3.338   2.663   6.429
40061SOL    HW222081   3.386   2.654   6.573
40062SOL     OW22082   1.624  10.366   7.750
40062SOL    HW122083   1.537  10.397   7.726
40062SOL    HW222084   1.684  10.431   7.714
40063SOL     OW22085  14.517  12.486  12.208
40063SOL    HW122086  14.570  12.409  12.227
40063SOL    HW222087  14.481  12.468  12.121
40064SOL     OW22088   0.596   9.517   5.298
40064SOL    HW122089   0.507   9.521   5.264
40064SOL    HW222090   0.600   9.434   5.345
40065SOL     OW22091   7.199   9.929   2.286
40065SOL    HW122092   7.258  10.004   2.285
40065SOL    HW222093   7.235   9.870   2.352
40066SOL     OW22094  11.582  10.243   1.893
40066SOL    HW122095  11.498  10.272   1.857
40066SOL    HW222096  11.605  10.310   1.957
40067SOL     OW22097   2.402   2.912   1.517
40067SOL    HW122098   2.474   2.975   1.525
40067SOL    HW222099   2.374   2.897   1.607
40068SOL     OW22100   6.175  12.044   7.281
40068SOL    HW122101   6.231  12.107   7.325
40068SOL    HW222102   6.175  11.967   7.338
40069SOL     OW22103  11.783   2.104   0.906
40069SOL    HW122104  11.818   2.193   0.899
40069SOL    HW222105  11.834   2.053   0.843
40070SOL     OW22106  14.092   1.640  12.424
40070SOL    HW122107  14.082   1.697  12.347
40070SOL    HW222108  14.153   1.686  12.481
40071SOL     OW22109   7.829   4.855  10.583
40071SOL    HW122110   7.899   4.920  10.575
40071SOL    HW222111   7.748   4.905  10.572
40072SOL     OW22112   6.382  10.319   6.012
40072SOL    HW122113   6.437  10.241   6.015
40072SOL    HW222114   6.406  10.363   5.930
40073SOL     OW22115  10.686   2.590   6.685
40073SOL    HW122116  10.648   2.524   6.743
40073SOL    HW222117  10.697   2.545   6.601
40074SOL     OW22118   5.636  11.887  13.145
40074SOL    HW122119   5.690  11.896  13.067
40074SOL    HW222120   5.699  11.878  13.217
40075SOL     OW22121  13.701   5.887   2.577
40075SOL    HW122122  13.661   5.955   2.632
40075SOL    HW222123  13.718   5.814   2.637
40076SOL     OW22124  10.487   3.722  11.430
40076SOL    HW122125  10.400   3.745  11.398
40076SOL    HW222126  10.545   3.789  11.392
40077SOL     OW22127   5.923  12.806   6.706
40077SOL    HW122128   5.941  12.775   6.795
40077SOL    HW222129   5.987  12.760   6.651
40078SOL     OW22130   2.268  10.801   7.066
40078SOL    HW122131   2.247  10.736   7.134
40078SOL    HW222132   2.361  10.818   7.077
40079SOL     OW22133   2.500   8.053   5.552
40079SOL    HW122134   2.540   8.137   5.575
40079SOL    HW222135   2.465   8.020   5.634
40080SOL     OW22136   2.197   3.520  12.408
40080SOL    HW122137   2.187   3.515  12.313
40080SOL    HW222138   2.238   3.605  12.423
40081SOL     OW22139   4.928  12.738   0.704
40081SOL    HW122140   4.864  12.783   0.648
40081SOL    HW222141   4.876  12.679   0.758
40082SOL     OW22142   3.552   5.812   1.316
40082SOL    HW122143   3.523   5.804   1.225
40082SOL    HW222144   3.647   5.805   1.312
40083SOL     OW22145   1.231  12.988   4.397
40083SOL    HW122146   1.240  12.943   4.313
40083SOL    HW222147   1.230  12.919   4.462
40084SOL     OW22148   3.008  11.374   2.049
40084SOL    HW122149   2.944  11.444   2.036
40084SOL    HW222150   3.093  11.415   2.035
40085SOL     OW22151  11.123   5.660   5.148
40085SOL    HW122152  11.057   5.649   5.080
40085SOL    HW222153  11.085   5.619   5.226
40086SOL     OW22154   4.503   0.790  12.514
40086SOL    HW122155   4.462   0.738  12.445
40086SOL    HW222156   4.554   0.727  12.564
40087SOL     OW22157   6.598   8.531   4.777
40087SOL    HW122158   6.624   8.536   4.869
40087SOL    HW222159   6.631   8.446   4.748
40088SOL     OW22160   8.780   2.616   4.561
40088SOL    HW122161   8.846   2.639   4.627
40088SOL    HW222162   8.787   2.686   4.496
40089SOL     OW22163   1.983   8.429   0.055
40089SOL    HW122164   2.048   8.459  14.863
40089SOL    HW222165   2.034   8.376   0.117
40090SOL     OW22166   0.934  12.561  10.146
40090SOL    HW122167   0.977  12.624  10.089
40090SOL    HW222168   0.980  12.567  10.230
40091SOL     OW22169   4.637   8.205   0.556
40091SOL    HW122170   4.650   8.201   0.651
40091SOL    HW222171   4.543   8.218   0.545
40092SOL     OW22172   4.883   1.986   3.804
40092SOL    HW122173   4.812   1.999   3.866
40092SOL    HW222174   4.880   2.064   3.748
40093SOL     OW22175   9.385   9.151   3.917
40093SOL    HW122176   9.441   9.219   3.955
40093SOL    HW222177   9.396   9.075   3.974
40094SOL     OW22178   2.356  10.742  14.375
40094SOL    HW122179   2.375  10.708  14.288
40094SOL    HW222180   2.404  10.825  14.380
40095SOL     OW22181   5.236  13.715  13.632
40095SOL    HW122182   5.249  13.674  13.546
40095SOL    HW222183   5.320  13.705  13.677
40096SOL     OW22184  13.724   1.675   4.284
40096SOL    HW122185  13.702   1.767   4.271
40096SOL    HW222186  13.718   1.662   4.378
40097SOL     OW22187   0.920   5.530   8.599
40097SOL    HW122188   0.877   5.569   8.675
40097SOL    HW222189   0.967   5.603   8.558
40098SOL     OW22190  13.488   4.065   8.206
40098SOL    HW122191  13.425   4.071   8.134
40098SOL    HW222192  13.490   4.153   8.244
40099SOL     OW22193   8.484   6.825   4.397
40099SOL    HW122194   8.465   6.768   4.322
40099SOL    HW222195   8.566   6.792   4.432
40100SOL     OW22196   3.852  12.093   8.212
40100SOL    HW122197   3.899  12.013   8.233
40100SOL    HW222198   3.909  12.139   8.151
40101SOL     OW22199   9.259   4.105  12.155
40101SOL    HW122200   9.291   4.113  12.066
40101SOL    HW222201   9.313   4.037  12.195
40102SOL     OW22202   3.800   0.268   2.276
40102SOL    HW122203   3.714   0.233   2.300
40102SOL    HW222204   3.821   0.328   2.347
40103SOL     OW22205   5.418  10.616   3.156
40103SOL    HW122206   5.335  10.589   3.196
40103SOL    HW222207   5.480  10.548   3.181
40104SOL     OW22208  11.396   7.664   0.308
40104SOL    HW122209  11.417   7.673   0.401
40104SOL    HW222210  11.481   7.653   0.265
40105SOL     OW22211   8.530   5.848  10.706
40105SOL    HW122212   8.510   5.794  10.782
40105SOL    HW222213   8.445   5.865  10.666
40106SOL     OW22214  13.520  11.695   7.234
40106SOL    HW122215  13.537  11.746   7.313
40106SOL    HW222216  13.470  11.753   7.177
40107SOL     OW22217   6.445   3.250   0.608
40107SOL    HW122218   6.414   3.184   0.546
40107SOL    HW222219   6.385   3.244   0.682
40108SOL     OW22220   1.516   0.225   4.519
40108SOL    HW122221   1.432   0.181   4.510
40108SOL    HW222222   1.576   0.172   4.466
40109SOL     OW22223  14.149   1.760  12.154
40109SOL    HW122224  14.144   1.799  12.067
40109SOL    HW222225  14.169   1.834  12.212
40110SOL     OW22226   2.381   4.318   6.885
40110SOL    HW122227   2.330   4.301   6.806
40110SOL    HW222228   2.437   4.241   6.894
40111SOL     OW22229  10.944   5.217  10.828
40111SOL    HW122230  10.899   5.256  10.903
40111SOL    HW222231  11.033   5.201  10.858
40112SOL     OW22232   9.777   7.156  12.928
40112SOL    HW122233   9.824   7.208  12.864
40112SOL    HW222234   9.714   7.218  12.967
40113SOL     OW22235   1.975   5.187  13.898
40113SOL    HW122236   2.018   5.120  13.951
40113SOL    HW222237   2.047   5.232  13.853
40114SOL     OW22238  13.027   7.192  14.695
40114SOL    HW122239  12.955   7.146  14.652
40114SOL    HW222240  13.054   7.258  14.631
40115SOL     OW22241  13.693   4.208   7.819
40115SOL    HW122242  13.659   4.119   7.814
40115SOL    HW222243  13.774   4.206   7.769
40116SOL     OW22244  12.755  12.175  13.699
40116SOL    HW122245  12.672  12.203  13.738
40116SOL    HW222246  12.781  12.248  13.642
40117SOL     OW22247   0.315   4.751   6.649
40117SOL    HW122248   0.376   4.824   6.649
40117SOL    HW222249   0.349   4.691   6.582
40118SOL     OW22250  13.410  12.923   1.479
40118SOL    HW122251  13.391  12.990   1.544
40118SOL    HW222252  13.331  12.920   1.424
40119SOL     OW22253   4.385   7.786   5.396
40119SOL    HW122254   4.343   7.722   5.338
40119SOL    HW222255   4.334   7.782   5.477
40120SOL     OW22256  11.374   4.832   2.651
40120SOL    HW122257  11.326   4.781   2.716
40120SOL    HW222258  11.466   4.807   2.664
40121SOL     OW22259   6.619   8.453   1.496
40121SOL    HW122260   6.670   8.408   1.428
40121SOL    HW222261   6.681   8.467   1.567
40122SOL     OW22262  12.699   0.254   6.576
40122SOL    HW122263  12.658   0.232   6.660
40122SOL    HW222264  12.789   0.221   6.584
40123SOL     OW22265  10.024   6.995  14.707
40123SOL    HW122266   9.942   6.962  14.670
40123SOL    HW222267  10.081   7.008  14.632
40124SOL     OW22268   0.298   5.142  12.238
40124SOL    HW122269   0.246   5.199  12.182
40124SOL    HW222270   0.298   5.057  12.194
40125SOL     OW22271  11.702  12.498   1.037
40125SOL    HW122272  11.791  12.528   1.019
40125SOL    HW222273  11.700  12.407   1.007
40126SOL     OW22274   1.408  13.780  14.105
40126SOL    HW122275   1.321  13.763  14.140
40126SOL    HW222276   1.465  13.720  14.153
40127SOL     OW22277   5.189   2.022  10.134
40127SOL    HW122278   5.116   2.012  10.195
40127SOL    HW222279   5.267   2.004  10.187
40128SOL     OW22280   3.200   0.304  13.016
40128SOL    HW122281   3.151   0.382  12.992
40128SOL    HW222282   3.198   0.303  13.112
40129SOL     OW22283   1.650  11.967   3.956
40129SOL    HW122284   1.672  11.912   3.880
40129SOL    HW222285   1.623  12.051   3.918
40130SOL     OW22286   1.754   5.566  10.586
40130SOL    HW122287   1.776   5.638  10.527
40130SOL    HW222288   1.689   5.515  10.537
40131SOL     OW22289   6.478   6.209  14.531
40131SOL    HW122290   6.393   6.167  14.540
40131SOL    HW222291   6.525   6.186  14.612
40132SOL     OW22292  10.446   4.839  12.820
40132SOL    HW122293  10.533   4.821  12.855
40132SOL    HW222294  10.386   4.811  12.888
40133SOL     OW22295  13.246   6.349   1.325
40133SOL    HW122296  13.286   6.330   1.239
40133SOL    HW222297  13.220   6.441   1.319
40134SOL     OW22298  12.315   1.227   1.212
40134SOL    HW122299  12.229   1.269   1.221
40134SOL    HW222300  12.329   1.220   1.118
40135SOL     OW22301  11.990   7.460   0.630
40135SOL    HW122302  11.918   7.521   0.643
40135SOL    HW222303  12.065   7.516   0.609
40136SOL     OW22304  10.847  12.048  14.254
40136SOL    HW122305  10.759  12.036  14.290
40136SOL    HW222306  10.855  11.980  14.187
40137SOL     OW22307   2.577   1.260   9.701
40137SOL    HW122308   2.566   1.181   9.648
40137SOL    HW222309   2.495   1.307   9.691
40138SOL     OW22310   8.907   4.794   2.618
40138SOL    HW122311   9.000   4.793   2.640
40138SOL    HW222312   8.894   4.876   2.570
40139SOL     OW22313   4.481   8.980  12.255
40139SOL    HW122314   4.475   9.039  12.180
40139SOL    HW222315   4.567   8.998  12.293
40140SOL     OW22316  11.703  14.641   3.344
40140SOL    HW122317  11.649  14.628   3.266
40140SOL    HW222318  11.776  14.695   3.314
40141SOL     OW22319   8.418   5.235   7.001
40141SOL    HW122320   8.472   5.278   7.067
40141SOL    HW222321   8.462   5.256   6.918
40142SOL     OW22322   2.614   5.820  12.818
40142SOL    HW122323   2.682   5.840  12.882
40142SOL    HW222324   2.641   5.866  12.739
40143SOL     OW22325   2.613   3.719   8.498
40143SOL    HW122326   2.633   3.626   8.509
40143SOL    HW222327   2.638   3.759   8.581
40144SOL     OW22328   9.799  14.648   4.283
40144SOL    HW122329   9.780  14.554   4.279
40144SOL    HW222330   9.781  14.679   4.194
40145SOL     OW22331  12.121   9.644   3.527
40145SOL    HW122332  12.034   9.619   3.495
40145SOL    HW222333  12.154   9.706   3.461
40146SOL     OW22334   7.654   1.037   3.566
40146SOL    HW122335   7.643   1.130   3.588
40146SOL    HW222336   7.570   0.997   3.588
40147SOL     OW22337   6.227   8.050  13.970
40147SOL    HW122338   6.216   8.085  14.058
40147SOL    HW222339   6.193   8.119  13.912
40148SOL     OW22340   7.894   6.074   8.117
40148SOL    HW122341   7.890   6.160   8.159
40148SOL    HW222342   7.970   6.080   8.058
40149SOL     OW22343   8.060   7.180   7.112
40149SOL    HW122344   8.145   7.161   7.073
40149SOL    HW222345   8.039   7.100   7.162
40150SOL     OW22346   3.947   0.324   4.217
40150SOL    HW122347   3.883   0.336   4.287
40150SOL    HW222348   3.904   0.358   4.139
40151SOL     OW22349   8.071   7.772   6.285
40151SOL    HW122350   8.057   7.848   6.342
40151SOL    HW222351   8.019   7.702   6.325
40152SOL     OW22352   2.818   8.878  10.923
40152SOL    HW122353   2.808   8.790  10.887
40152SOL    HW222354   2.728   8.909  10.933
40153SOL     OW22355  10.238  11.384   8.786
40153SOL    HW122356  10.253  11.404   8.879
40153SOL    HW222357  10.326  11.386   8.747
40154SOL     OW22358  10.651   9.697   1.703
40154SOL    HW122359  10.716   9.631   1.727
40154SOL    HW222360  10.644   9.754   1.780
40155SOL     OW22361   8.023   0.511   9.253
40155SOL    HW122362   7.982   0.507   9.167
40155SOL    HW222363   8.105   0.462   9.242
40156SOL     OW22364   9.913   7.101   5.313
40156SOL    HW122365   9.995   7.052   5.302
40156SOL    HW222366   9.910   7.121   5.406
40157SOL     OW22367   4.931   5.433   1.656
40157SOL    HW122368   4.874   5.461   1.727
40157SOL    HW222369   5.010   5.402   1.700
40158SOL     OW22370   8.630   5.975   6.267
40158SOL    HW122371   8.674   5.965   6.182
40158SOL    HW222372   8.668   5.906   6.322
40159SOL     OW22373   8.112   8.720  11.528
40159SOL    HW122374   8.182   8.692  11.469
40159SOL    HW222375   8.032   8.688  11.488
40160SOL     OW22376  11.580   5.529   7.102
40160SOL    HW122377  11.663   5.499   7.065
40160SOL    HW222378  11.594   5.526   7.197
40161SOL     OW22379  10.510  13.382   4.226
40161SOL    HW122380  10.428  13.432   4.226
40161SOL    HW222381  10.569  13.432   4.282
40162SOL     OW22382   5.521   0.574  12.563
40162SOL    HW122383   5.541   0.536  12.477
40162SOL    HW222384   5.587   0.642  12.575
40163SOL     OW22385   5.082  10.875  13.829
40163SOL    HW122386   5.083  10.808  13.761
40163SOL    HW222387   5.169  10.872  13.867
40164SOL     OW22388  13.767   4.928   6.594
40164SOL    HW122389  13.753   4.893   6.505
40164SOL    HW222390  13.778   5.022   6.581
40165SOL     OW22391  12.796   0.150   0.090
40165SOL    HW122392  12.872   0.100   0.120
40165SOL    HW222393  12.728   0.130   0.154
40166SOL     OW22394  14.134   4.200   8.582
40166SOL    HW122395  14.046   4.230   8.603
40166SOL    HW222396  14.123   4.146   8.504
40167SOL     OW22397   5.790   9.558   6.488
40167SOL    HW122398   5.742   9.624   6.538
40167SOL    HW222399   5.766   9.475   6.529
40168SOL     OW22400   4.040  11.952   5.931
40168SOL    HW122401   4.052  12.046   5.921
40168SOL    HW222402   4.128  11.917   5.943
40169SOL     OW22403  10.750  13.553   5.699
40169SOL    HW122404  10.818  13.621   5.701
40169SOL    HW222405  10.679  13.589   5.751
40170SOL     OW22406  12.938  13.964   7.567
40170SOL    HW122407  12.934  13.869   7.553
40170SOL    HW222408  12.898  14.001   7.488
40171SOL     OW22409   0.349   3.725   8.079
40171SOL    HW122410   0.261   3.746   8.049
40171SOL    HW222411   0.361   3.632   8.056
40172SOL     OW22412  12.490   2.202  12.951
40172SOL    HW122413  12.466   2.147  12.877
40172SOL    HW222414  12.583   2.182  12.966
40173SOL     OW22415   7.645  12.182   8.256
40173SOL    HW122416   7.594  12.118   8.206
40173SOL    HW222417   7.630  12.265   8.210
40174SOL     OW22418   7.570  11.430   4.946
40174SOL    HW122419   7.550  11.374   4.871
40174SOL    HW222420   7.596  11.369   5.015
40175SOL     OW22421  12.218  12.489   2.918
40175SOL    HW122422  12.268  12.556   2.870
40175SOL    HW222423  12.260  12.485   3.004
40176SOL     OW22424  10.645   6.231  14.063
40176SOL    HW122425  10.673   6.320  14.081
40176SOL    HW222426  10.575   6.214  14.126
40177SOL     OW22427   6.090   6.636  10.219
40177SOL    HW122428   6.108   6.578  10.145
40177SOL    HW222429   5.994   6.644  10.220
40178SOL     OW22430   1.930   9.627   4.036
40178SOL    HW122431   1.960   9.680   3.962
40178SOL    HW222432   2.003   9.567   4.053
40179SOL     OW22433   0.780   9.841   5.744
40179SOL    HW122434   0.865   9.806   5.771
40179SOL    HW222435   0.738   9.769   5.698
40180SOL     OW22436  12.616  11.001  12.294
40180SOL    HW122437  12.611  10.908  12.272
40180SOL    HW222438  12.618  11.003  12.390
40181SOL     OW22439   1.359   6.475   1.268
40181SOL    HW122440   1.327   6.426   1.192
40181SOL    HW222441   1.443   6.511   1.238
40182SOL     OW22442  13.210   5.988   6.329
40182SOL    HW122443  13.290   5.935   6.327
40182SOL    HW222444  13.241   6.076   6.348
40183SOL     OW22445   2.943   8.179   9.456
40183SOL    HW122446   2.899   8.264   9.455
40183SOL    HW222447   2.888   8.125   9.512
40184SOL     OW22448  14.519  13.139   9.872
40184SOL    HW122449  14.500  13.222   9.916
40184SOL    HW222450  14.541  13.079   9.943
40185SOL     OW22451   1.603   6.597   9.386
40185SOL    HW122452   1.686   6.642   9.372
40185SOL    HW222453   1.564   6.590   9.298
40186SOL     OW22454  14.557   5.035   3.988
40186SOL    HW122455  14.604   4.952   3.998
40186SOL    HW222456  14.587   5.088   4.062
40187SOL     OW22457   0.313   1.392   6.771
40187SOL    HW122458   0.357   1.451   6.711
40187SOL    HW222459   0.269   1.450   6.834
40188SOL     OW22460  14.244   7.557   7.810
40188SOL    HW122461  14.316   7.590   7.755
40188SOL    HW222462  14.282   7.481   7.855
40189SOL     OW22463  10.250  12.491   3.682
40189SOL    HW122464  10.278  12.449   3.601
40189SOL    HW222465  10.179  12.436   3.714
40190SOL     OW22466   3.186   4.040   0.453
40190SOL    HW122467   3.110   4.068   0.403
40190SOL    HW222468   3.152   3.974   0.513
40191SOL     OW22469  12.094   0.339   7.883
40191SOL    HW122470  12.068   0.291   7.804
40191SOL    HW222471  12.028   0.314   7.948
40192SOL     OW22472  13.868   7.993  13.830
40192SOL    HW122473  13.811   7.946  13.891
40192SOL    HW222474  13.945   7.938  13.821
40193SOL     OW22475   0.863   2.456   3.520
40193SOL    HW122476   0.837   2.442   3.611
40193SOL    HW222477   0.956   2.478   3.525
40194SOL     OW22478   3.447   7.173   4.542
40194SOL    HW122479   3.463   7.154   4.449
40194SOL    HW222480   3.531   7.201   4.576
40195SOL     OW22481   2.139   8.464   9.107
40195SOL    HW122482   2.146   8.434   9.197
40195SOL    HW222483   2.081   8.540   9.111
40196SOL     OW22484   1.248   1.617  10.850
40196SOL    HW122485   1.343   1.611  10.846
40196SOL    HW222486   1.225   1.685  10.787
40197SOL     OW22487  10.554   1.174   3.841
40197SOL    HW122488  10.519   1.088   3.821
40197SOL    HW222489  10.484   1.235   3.818
40198SOL     OW22490  10.061   7.673   7.112
40198SOL    HW122491  10.152   7.673   7.082
40198SOL    HW222492  10.058   7.604   7.178
40199SOL     OW22493   8.493   8.444   5.458
40199SOL    HW122494   8.558   8.404   5.515
40199SOL    HW222495   8.428   8.375   5.444
40200SOL     OW22496   6.404  10.804   1.792
40200SOL    HW122497   6.423  10.897   1.778
40200SOL    HW222498   6.459  10.779   1.867
40201SOL     OW22499   5.616   0.510   9.148
40201SOL    HW122500   5.624   0.602   9.174
40201SOL    HW222501   5.528   0.502   9.112
40202SOL     OW22502  10.158   0.582   2.513
40202SOL    HW122503  10.168   0.617   2.424
40202SOL    HW222504  10.159   0.487   2.501
40203SOL     OW22505   4.077   8.383  12.721
40203SOL    HW122506   3.986   8.370  12.747
40203SOL    HW222507   4.100   8.302  12.675
40204SOL     OW22508   8.229   7.697  13.242
40204SOL    HW122509   8.294   7.646  13.291
40204SOL    HW222510   8.267   7.785  13.236
40205SOL     OW22511  13.462   2.177   7.792
40205SOL    HW122512  13.464   2.090   7.752
40205SOL    HW222513  13.372   2.187   7.822
40206SOL     OW22514   4.032   5.827  11.971
40206SOL    HW122515   4.095   5.878  12.022
40206SOL    HW222516   4.083   5.795  11.896
40207SOL     OW22517   3.810  12.601   3.730
40207SOL    HW122518   3.864  12.564   3.660
40207SOL    HW222519   3.754  12.529   3.758
40208SOL     OW22520  13.162  14.533  10.152
40208SOL    HW122521  13.067  14.526  10.144
40208SOL    HW222522  13.192  14.442  10.159
40209SOL     OW22523  13.490   7.387  11.187
40209SOL    HW122524  13.449   7.302  11.169
40209SOL    HW222525  13.561   7.393  11.123
40210SOL     OW22526   3.768   3.444   3.776
40210SOL    HW122527   3.835   3.472   3.713
40210SOL    HW222528   3.811   3.379   3.831
40211SOL     OW22529   6.195  11.440   0.094
40211SOL    HW122530   6.109  11.427   0.054
40211SOL    HW222531   6.187  11.524   0.139
40212SOL     OW22532   6.030  11.119   6.088
40212SOL    HW122533   6.067  11.163   6.165
40212SOL    HW222534   6.025  11.188   6.021
40213SOL     OW22535   2.284  13.146   2.847
40213SOL    HW122536   2.325  13.227   2.814
40213SOL    HW222537   2.355  13.101   2.893
40214SOL     OW22538   0.481   2.951   3.919
40214SOL    HW122539   0.419   2.917   3.983
40214SOL    HW222540   0.559   2.973   3.971
40215SOL     OW22541   3.416   4.377   2.815
40215SOL    HW122542   3.477   4.444   2.785
40215SOL    HW222543   3.342   4.426   2.852
40216SOL     OW22544   3.010   2.264   6.445
40216SOL    HW122545   3.016   2.174   6.413
40216SOL    HW222546   2.918   2.274   6.469
40217SOL     OW22547   2.758  14.085   4.987
40217SOL    HW122548   2.761  14.123   4.899
40217SOL    HW222549   2.850  14.074   5.012
40218SOL     OW22550   1.395   0.428  11.358
40218SOL    HW122551   1.395   0.523  11.367
40218SOL    HW222552   1.348   0.396  11.435
40219SOL     OW22553  13.542  14.520  10.906
40219SOL    HW122554  13.452  14.546  10.885
40219SOL    HW222555  13.590  14.603  10.908
40220SOL     OW22556  11.736  11.640   8.316
40220SOL    HW122557  11.728  11.582   8.392
40220SOL    HW222558  11.805  11.702   8.340
40221SOL     OW22559  13.510  12.995   6.510
40221SOL    HW122560  13.503  12.929   6.579
40221SOL    HW222561  13.529  13.076   6.557
40222SOL     OW22562   4.382  10.376   4.713
40222SOL    HW122563   4.411  10.446   4.654
40222SOL    HW222564   4.419  10.296   4.675
40223SOL     OW22565   7.325   4.001   7.601
40223SOL    HW122566   7.269   3.973   7.528
40223SOL    HW222567   7.392   3.934   7.607
40224SOL     OW22568  11.039   6.751   2.325
40224SOL    HW122569  11.009   6.841   2.336
40224SOL    HW222570  10.982   6.700   2.382
40225SOL     OW22571   6.160   0.077   1.586
40225SOL    HW122572   6.098   0.074   1.513
40225SOL    HW222573   6.169   0.170   1.606
40226SOL     OW22574   8.390   5.368  13.668
40226SOL    HW122575   8.456   5.343  13.603
40226SOL    HW222576   8.308   5.334  13.633
40227SOL     OW22577   4.462   9.000  12.811
40227SOL    HW122578   4.425   8.945  12.742
40227SOL    HW222579   4.535   9.046  12.769
40228SOL     OW22580   9.961   6.485   9.109
40228SOL    HW122581  10.022   6.426   9.152
40228SOL    HW222582   9.886   6.430   9.086
40229SOL     OW22583  13.459   3.667   9.001
40229SOL    HW122584  13.471   3.741   9.062
40229SOL    HW222585  13.506   3.595   9.042
40230SOL     OW22586  14.233   7.091   3.854
40230SOL    HW122587  14.304   7.153   3.844
40230SOL    HW222588  14.249   7.050   3.939
40231SOL     OW22589   8.944   6.812   6.559
40231SOL    HW122590   8.879   6.742   6.546
40231SOL    HW222591   8.896   6.893   6.537
40232SOL     OW22592  14.683   4.467  13.250
40232SOL    HW122593  14.706   4.507  13.167
40232SOL    HW222594  14.671   4.374  13.229
40233SOL     OW22595   2.469   0.587  10.813
40233SOL    HW122596   2.374   0.596  10.819
40233SOL    HW222597   2.495   0.650  10.746
40234SOL     OW22598  13.022   1.524   3.442
40234SOL    HW122599  13.018   1.491   3.532
40234SOL    HW222600  12.932   1.545   3.420
40235SOL     OW22601   9.430  12.946   9.614
40235SOL    HW122602   9.366  12.882   9.647
40235SOL    HW222603   9.449  13.002   9.689
40236SOL     OW22604   0.812   6.836  10.135
40236SOL    HW122605   0.841   6.880  10.055
40236SOL    HW222606   0.742   6.777  10.107
40237SOL     OW22607  11.433   8.427   5.180
40237SOL    HW122608  11.500   8.431   5.113
40237SOL    HW222609  11.456   8.497   5.241
40238SOL     OW22610   6.950   3.735  12.014
40238SOL    HW122611   6.957   3.736  12.109
40238SOL    HW222612   6.856   3.730  11.996
40239SOL     OW22613   6.529   6.346  10.919
40239SOL    HW122614   6.448   6.391  10.942
40239SOL    HW222615   6.570   6.402  10.853
40240SOL     OW22616  13.497  12.227   3.811
40240SOL    HW122617  13.450  12.252   3.732
40240SOL    HW222618  13.494  12.305   3.867
40241SOL     OW22619   3.864   2.631   1.791
40241SOL    HW122620   3.916   2.585   1.858
40241SOL    HW222621   3.909   2.610   1.709
40242SOL     OW22622   5.829   8.123  10.421
40242SOL    HW122623   5.739   8.111  10.452
40242SOL    HW222624   5.827   8.094  10.330
40243SOL     OW22625   9.974  11.343   6.284
40243SOL    HW122626  10.018  11.333   6.200
40243SOL    HW222627   9.881  11.327   6.264
40244SOL     OW22628  12.300  10.792  10.481
40244SOL    HW122629  12.205  10.780  10.482
40244SOL    HW222630  12.329  10.761  10.567
40245SOL     OW22631  12.244   4.856   9.270
40245SOL    HW122632  12.172   4.854   9.206
40245SOL    HW222633  12.219   4.924   9.332
40246SOL     OW22634   7.410   8.502   3.178
40246SOL    HW122635   7.360   8.582   3.164
40246SOL    HW222636   7.351   8.445   3.227
40247SOL     OW22637  11.556  13.783   0.893
40247SOL    HW122638  11.503  13.734   0.956
40247SOL    HW222639  11.545  13.737   0.810
40248SOL     OW22640   1.604   1.415   1.293
40248SOL    HW122641   1.555   1.496   1.276
40248SOL    HW222642   1.613   1.411   1.388
40249SOL     OW22643   2.370  11.554  11.691
40249SOL    HW122644   2.414  11.616  11.749
40249SOL    HW222645   2.303  11.513  11.745
40250SOL     OW22646  11.586  11.713   4.564
40250SOL    HW122647  11.665  11.701   4.616
40250SOL    HW222648  11.601  11.794   4.515
40251SOL     OW22649  13.268   7.600   1.055
40251SOL    HW122650  13.321   7.528   1.021
40251SOL    HW222651  13.325   7.644   1.118
40252SOL     OW22652  14.444   9.782  10.628
40252SOL    HW122653  14.354   9.769  10.599
40252SOL    HW222654  14.447   9.742  10.715
40253SOL     OW22655   0.245   8.534   6.486
40253SOL    HW122656   0.180   8.578   6.430
40253SOL    HW222657   0.198   8.518   6.568
40254SOL     OW22658  12.812  10.431  11.681
40254SOL    HW122659  12.804  10.462  11.591
40254SOL    HW222660  12.892  10.378  11.682
40255SOL     OW22661   8.107   8.284   6.606
40255SOL    HW122662   8.063   8.240   6.679
40255SOL    HW222663   8.197   8.251   6.609
40256SOL     OW22664  14.755   3.453   6.256
40256SOL    HW122665  14.741   3.428   6.348
40256SOL    HW222666  14.780   3.371   6.213
40257SOL     OW22667   8.785   8.251  10.092
40257SOL    HW122668   8.710   8.198  10.066
40257SOL    HW222669   8.762   8.340  10.066
40258SOL     OW22670   3.969  10.933  13.904
40258SOL    HW122671   3.899  10.990  13.936
40258SOL    HW222672   4.041  10.993  13.882
40259SOL     OW22673  10.180   4.496   9.624
40259SOL    HW122674  10.155   4.509   9.716
40259SOL    HW222675  10.243   4.424   9.626
40260SOL     OW22676   2.924   0.892   6.939
40260SOL    HW122677   3.010   0.851   6.946
40260SOL    HW222678   2.939   0.983   6.965
40261SOL     OW22679   2.347   1.618  13.612
40261SOL    HW122680   2.413   1.687  13.602
40261SOL    HW222681   2.285   1.633  13.541
40262SOL     OW22682  12.476   9.056  13.333
40262SOL    HW122683  12.477   9.066  13.237
40262SOL    HW222684  12.528   8.977  13.349
40263SOL     OW22685  13.976   6.029  12.132
40263SOL    HW122686  13.957   5.984  12.214
40263SOL    HW222687  13.890   6.049  12.094
40264SOL     OW22688  14.871   7.421  13.530
40264SOL    HW122689  14.817   7.353  13.489
40264SOL    HW222690   0.017   7.482  13.459
40265SOL     OW22691  13.737  13.168   0.676
40265SOL    HW122692  13.689  13.154   0.594
40265SOL    HW222693  13.730  13.262   0.692
40266SOL     OW22694   6.362   7.180  11.407
40266SOL    HW122695   6.414   7.225  11.474
40266SOL    HW222696   6.411   7.192  11.326
40267SOL     OW22697   8.520  13.726   0.332
40267SOL    HW122698   8.579  13.693   0.399
40267SOL    HW222699   8.500  13.816   0.360
40268SOL     OW22700  13.020  10.786   3.277
40268SOL    HW122701  13.015  10.881   3.262
40268SOL    HW222702  13.032  10.778   3.372
40269SOL     OW22703   5.702  13.495   0.842
40269SOL    HW122704   5.759  13.572   0.842
40269SOL    HW222705   5.625  13.522   0.892
40270SOL     OW22706   1.057   4.789   8.494
40270SOL    HW122707   1.131   4.820   8.443
40270SOL    HW222708   1.046   4.856   8.562
40271SOL     OW22709  13.511   9.654   3.193
40271SOL    HW122710  13.468   9.704   3.262
40271SOL    HW222711  13.604   9.657   3.216
40272SOL     OW22712   5.559  13.456  13.178
40272SOL    HW122713   5.467  13.432  13.164
40272SOL    HW222714   5.574  13.438  13.271
40273SOL     OW22715  13.583  10.839   2.006
40273SOL    HW122716  13.647  10.769   2.020
40273SOL    HW222717  13.630  10.919   2.025
40274SOL     OW22718   7.769   2.503   7.752
40274SOL    HW122719   7.676   2.476   7.754
40274SOL    HW222720   7.814   2.428   7.712
40275SOL     OW22721  13.339   3.685   5.142
40275SOL    HW122722  13.428   3.658   5.165
40275SOL    HW222723  13.317   3.751   5.207
40276SOL     OW22724   4.720   8.012   2.998
40276SOL    HW122725   4.631   8.040   2.976
40276SOL    HW222726   4.733   8.043   3.088
40277SOL     OW22727  13.856   6.821   1.596
40277SOL    HW122728  13.905   6.839   1.515
40277SOL    HW222729  13.777   6.776   1.566
40278SOL     OW22730   1.491  13.885   7.983
40278SOL    HW122731   1.518  13.870   8.073
40278SOL    HW222732   1.500  13.979   7.970
40279SOL     OW22733   0.880   5.054   1.725
40279SOL    HW122734   0.807   5.018   1.776
40279SOL    HW222735   0.915   4.979   1.677
40280SOL     OW22736   4.823   2.988   1.874
40280SOL    HW122737   4.867   2.914   1.917
40280SOL    HW222738   4.789   2.952   1.792
40281SOL     OW22739   0.200   4.792   1.469
40281SOL    HW122740   0.170   4.702   1.472
40281SOL    HW222741   0.293   4.788   1.492
40282SOL     OW22742   8.701   7.681  12.379
40282SOL    HW122743   8.736   7.692  12.291
40282SOL    HW222744   8.709   7.768  12.419
40283SOL     OW22745   3.041   3.406  14.772
40283SOL    HW122746   2.981   3.402  14.847
40283SOL    HW222747   2.986   3.436  14.700
40284SOL     OW22748   7.516   5.908  12.028
40284SOL    HW122749   7.498   5.894  11.935
40284SOL    HW222750   7.568   5.832  12.054
40285SOL     OW22751   3.027  12.057  10.137
40285SOL    HW122752   3.101  12.025  10.086
40285SOL    HW222753   3.047  12.150  10.153
40286SOL     OW22754   9.023   8.504  12.498
40286SOL    HW122755   8.975   8.583  12.470
40286SOL    HW222756   9.106   8.537  12.532
40287SOL     OW22757  10.258  13.898   5.542
40287SOL    HW122758  10.288  13.976   5.588
40287SOL    HW222759  10.199  13.855   5.604
40288SOL     OW22760   2.657   4.122   8.045
40288SOL    HW122761   2.590   4.143   7.980
40288SOL    HW222762   2.680   4.031   8.027
40289SOL     OW22763   7.042   2.612   3.896
40289SOL    HW122764   7.080   2.628   3.982
40289SOL    HW222765   6.950   2.592   3.914
40290SOL     OW22766   1.404  13.263   6.418
40290SOL    HW122767   1.427  13.218   6.500
40290SOL    HW222768   1.477  13.322   6.401
40291SOL     OW22769   4.826   6.079  13.223
40291SOL    HW122770   4.745   6.129  13.233
40291SOL    HW222771   4.820   6.010  13.289
40292SOL     OW22772   5.405   4.795  12.766
40292SOL    HW122773   5.487   4.780  12.720
40292SOL    HW222774   5.340   4.745  12.717
40293SOL     OW22775   1.099   1.222  13.450
40293SOL    HW122776   1.194   1.232  13.445
40293SOL    HW222777   1.073   1.188  13.365
40294SOL     OW22778   9.605   8.703   6.552
40294SOL    HW122779   9.680   8.747   6.594
40294SOL    HW222780   9.591   8.752   6.471
40295SOL     OW22781  10.312   5.585  10.833
40295SOL    HW122782  10.239   5.630  10.791
40295SOL    HW222783  10.280   5.496  10.847
40296SOL     OW22784  12.498   1.810   8.209
40296SOL    HW122785  12.434   1.790   8.277
40296SOL    HW222786  12.555   1.733   8.205
40297SOL     OW22787   3.466   2.223   9.496
40297SOL    HW122788   3.510   2.213   9.411
40297SOL    HW222789   3.483   2.314   9.520
40298SOL     OW22790   8.741  14.815   7.429
40298SOL    HW122791   8.662  14.800   7.377
40298SOL    HW222792   8.743   0.038   7.442
40299SOL     OW22793   1.275   4.901  10.339
40299SOL    HW122794   1.340   4.943  10.283
40299SOL    HW222795   1.292   4.936  10.426
40300SOL     OW22796   1.720  11.435   4.419
40300SOL    HW122797   1.638  11.402   4.385
40300SOL    HW222798   1.775  11.358   4.430
40301SOL     OW22799   4.047   0.394   1.650
40301SOL    HW122800   4.078   0.370   1.563
40301SOL    HW222801   3.981   0.461   1.635
40302SOL     OW22802   5.595   6.477   8.801
40302SOL    HW122803   5.633   6.492   8.888
40302SOL    HW222804   5.584   6.564   8.764
40303SOL     OW22805  14.472   4.128   9.542
40303SOL    HW122806  14.517   4.139   9.458
40303SOL    HW222807  14.508   4.047   9.578
40304SOL     OW22808  11.979  13.137   8.134
40304SOL    HW122809  12.027  13.125   8.216
40304SOL    HW222810  11.954  13.049   8.107
40305SOL     OW22811   7.298  12.366   2.613
40305SOL    HW122812   7.262  12.281   2.639
40305SOL    HW222813   7.383  12.345   2.575
40306SOL     OW22814  10.452  13.002   2.477
40306SOL    HW122815  10.543  13.025   2.458
40306SOL    HW222816  10.410  13.086   2.496
40307SOL     OW22817   8.226  13.364   5.670
40307SOL    HW122818   8.275  13.286   5.695
40307SOL    HW222819   8.203  13.350   5.578
40308SOL     OW22820   5.447   5.832  10.738
40308SOL    HW122821   5.359   5.863  10.718
40308SOL    HW222822   5.501   5.911  10.740
40309SOL     OW22823  14.472   1.970   9.618
40309SOL    HW122824  14.404   1.982   9.552
40309SOL    HW222825  14.525   2.049   9.611
40310SOL     OW22826  12.970   7.063   5.736
40310SOL    HW122827  13.056   7.057   5.695
40310SOL    HW222828  12.973   7.144   5.787
40311SOL     OW22829  13.190   2.781  10.599
40311SOL    HW122830  13.190   2.784  10.694
40311SOL    HW222831  13.177   2.872  10.572
40312SOL     OW22832   4.731  11.286   1.419
40312SOL    HW122833   4.774  11.259   1.499
40312SOL    HW222834   4.691  11.206   1.384
40313SOL     OW22835   7.331   1.804   6.712
40313SOL    HW122836   7.359   1.747   6.639
40313SOL    HW222837   7.309   1.743   6.782
40314SOL     OW22838  11.091   4.470   9.227
40314SOL    HW122839  11.070   4.383   9.259
40314SOL    HW222840  11.115   4.520   9.305
40315SOL     OW22841  12.658   2.371  11.791
40315SOL    HW122842  12.613   2.286  11.794
40315SOL    HW222843  12.672   2.386  11.697
40316SOL     OW22844   1.558  10.356   8.081
40316SOL    HW122845   1.651  10.374   8.097
40316SOL    HW222846   1.520  10.348   8.168
40317SOL     OW22847   6.714  12.413   4.592
40317SOL    HW122848   6.703  12.338   4.534
40317SOL    HW222849   6.683  12.382   4.677
40318SOL     OW22850  14.522   4.732   0.451
40318SOL    HW122851  14.456   4.764   0.389
40318SOL    HW222852  14.596   4.791   0.438
40319SOL     OW22853   1.583   9.359   6.774
40319SOL    HW122854   1.507   9.347   6.717
40319SOL    HW222855   1.581   9.283   6.833
40320SOL     OW22856  13.915   4.725  12.833
40320SOL    HW122857  13.979   4.665  12.794
40320SOL    HW222858  13.833   4.677  12.830
40321SOL     OW22859   4.772   9.029   9.570
40321SOL    HW122860   4.704   9.091   9.544
40321SOL    HW222861   4.734   8.980   9.642
40322SOL     OW22862   8.963   5.528  10.997
40322SOL    HW122863   8.929   5.444  11.026
40322SOL    HW222864   8.903   5.555  10.927
40323SOL     OW22865   9.494  10.184   0.839
40323SOL    HW122866   9.405  10.162   0.868
40323SOL    HW222867   9.551  10.136   0.899
40324SOL     OW22868  11.377   0.961   4.212
40324SOL    HW122869  11.435   0.899   4.255
40324SOL    HW222870  11.302   0.970   4.272
40325SOL     OW22871   6.717   4.113  11.107
40325SOL    HW122872   6.736   4.201  11.139
40325SOL    HW222873   6.727   4.056  11.183
40326SOL     OW22874  14.847   3.288   0.243
40326SOL    HW122875  14.863   3.337   0.162
40326SOL    HW222876   0.003   3.347   0.313
40327SOL     OW22877   1.687   3.900   3.374
40327SOL    HW122878   1.623   3.957   3.331
40327SOL    HW222879   1.692   3.823   3.317
40328SOL     OW22880   8.084   0.529   3.694
40328SOL    HW122881   8.056   0.507   3.605
40328SOL    HW222882   8.057   0.620   3.707
40329SOL     OW22883  10.820   3.095   2.627
40329SOL    HW122884  10.799   3.150   2.703
40329SOL    HW222885  10.740   3.044   2.612
40330SOL     OW22886   9.324   3.252   7.531
40330SOL    HW122887   9.311   3.342   7.562
40330SOL    HW222888   9.307   3.198   7.608
40331SOL     OW22889  14.837   0.098   6.584
40331SOL    HW122890  14.775   0.058   6.645
40331SOL    HW222891  14.836   0.039   6.508
40332SOL     OW22892   1.363  10.586   4.581
40332SOL    HW122893   1.424  10.571   4.508
40332SOL    HW222894   1.337  10.498   4.608
40333SOL     OW22895   3.358   9.817   2.501
40333SOL    HW122896   3.433   9.758   2.491
40333SOL    HW222897   3.305   9.802   2.423
40334SOL     OW22898  13.545   2.029   6.977
40334SOL    HW122899  13.515   2.080   6.902
40334SOL    HW222900  13.491   1.950   6.977
40335SOL     OW22901  12.738   6.526  12.495
40335SOL    HW122902  12.702   6.606  12.536
40335SOL    HW222903  12.811   6.558  12.442
40336SOL     OW22904   4.099  11.255   4.175
40336SOL    HW122905   4.036  11.186   4.196
40336SOL    HW222906   4.079  11.280   4.085
40337SOL     OW22907   6.154   6.259   7.818
40337SOL    HW122908   6.147   6.329   7.883
40337SOL    HW222909   6.140   6.303   7.734
40338SOL     OW22910  11.111   3.660  12.718
40338SOL    HW122911  11.141   3.598  12.785
40338SOL    HW222912  11.166   3.737  12.732
40339SOL     OW22913   4.023   1.749   6.232
40339SOL    HW122914   3.978   1.786   6.308
40339SOL    HW222915   3.997   1.657   6.231
40340SOL     OW22916   8.700   6.366  11.304
40340SOL    HW122917   8.653   6.381  11.386
40340SOL    HW222918   8.786   6.334  11.331
40341SOL     OW22919   8.995   9.113  11.999
40341SOL    HW122920   9.047   9.033  11.985
40341SOL    HW222921   9.052   9.170  12.051
40342SOL     OW22922  12.642   2.571   3.237
40342SOL    HW122923  12.671   2.483   3.262
40342SOL    HW222924  12.566   2.588   3.293
40343SOL     OW22925   7.259   1.563  12.032
40343SOL    HW122926   7.226   1.476  12.053
40343SOL    HW222927   7.323   1.548  11.962
40344SOL     OW22928   3.267   8.928   9.662
40344SOL    HW122929   3.238   9.016   9.688
40344SOL    HW222930   3.187   8.883   9.635
40345SOL     OW22931   7.299  14.830  13.601
40345SOL    HW122932   7.296   0.051  13.576
40345SOL    HW222933   7.268  14.829  13.691
40346SOL     OW22934   3.864   2.911   3.729
40346SOL    HW122935   3.813   2.854   3.786
40346SOL    HW222936   3.906   2.852   3.667
40347SOL     OW22937  13.321   4.350   9.241
40347SOL    HW122938  13.308   4.407   9.165
40347SOL    HW222939  13.287   4.401   9.314
40348SOL     OW22940   7.616   5.381   8.117
40348SOL    HW122941   7.572   5.464   8.134
40348SOL    HW222942   7.563   5.315   8.160
40349SOL     OW22943   1.685   9.973  14.404
40349SOL    HW122944   1.742  10.039  14.443
40349SOL    HW222945   1.723   9.958  14.317
40350SOL     OW22946   5.100   6.210   5.121
40350SOL    HW122947   5.005   6.219   5.127
40350SOL    HW222948   5.117   6.117   5.133
40351SOL     OW22949  10.075   7.163  11.375
40351SOL    HW122950  10.151   7.106  11.362
40351SOL    HW222951  10.052   7.192  11.287
40352SOL     OW22952   0.150   9.845   9.128
40352SOL    HW122953   0.058   9.864   9.108
40352SOL    HW222954   0.168   9.763   9.081
40353SOL     OW22955  12.331  12.478  11.490
40353SOL    HW122956  12.257  12.538  11.487
40353SOL    HW222957  12.308  12.416  11.560
40354SOL     OW22958  13.171  14.109   6.698
40354SOL    HW122959  13.186  14.163   6.620
40354SOL    HW222960  13.217  14.155   6.768
40355SOL     OW22961   2.770   8.123   1.948
40355SOL    HW122962   2.836   8.069   1.903
40355SOL    HW222963   2.751   8.075   2.029
40356SOL     OW22964   3.911   1.477   0.775
40356SOL    HW122965   3.960   1.413   0.826
40356SOL    HW222966   3.841   1.427   0.733
40357SOL     OW22967   5.015  11.274  10.586
40357SOL    HW122968   5.033  11.194  10.636
40357SOL    HW222969   4.970  11.331  10.647
40358SOL     OW22970   9.652   0.587   4.704
40358SOL    HW122971   9.735   0.562   4.744
40358SOL    HW222972   9.586   0.555   4.765
40359SOL     OW22973   3.175  11.611   8.619
40359SOL    HW122974   3.155  11.541   8.556
40359SOL    HW222975   3.105  11.675   8.608
40360SOL     OW22976   7.672   7.926   2.472
40360SOL    HW122977   7.594   7.878   2.445
40360SOL    HW222978   7.710   7.872   2.541
40361SOL     OW22979   5.216   0.831  14.596
40361SOL    HW122980   5.300   0.875  14.589
40361SOL    HW222981   5.154   0.901  14.619
40362SOL     OW22982   6.605   6.250   8.974
40362SOL    HW122983   6.537   6.183   8.986
40362SOL    HW222984   6.671   6.229   9.041
40363SOL     OW22985  11.511   1.197   4.968
40363SOL    HW122986  11.452   1.271   4.954
40363SOL    HW222987  11.472   1.150   5.042
40364SOL     OW22988  12.521   8.218   7.468
40364SOL    HW122989  12.556   8.129   7.469
40364SOL    HW222990  12.449   8.214   7.405
40365SOL     OW22991   1.410  11.545  14.531
40365SOL    HW122992   1.475  11.608  14.563
40365SOL    HW222993   1.394  11.571  14.441
40366SOL     OW22994   6.399   6.083   6.567
40366SOL    HW122995   6.344   6.137   6.622
40366SOL    HW222996   6.338   6.036   6.510
40367SOL     OW22997   4.636   5.371  14.349
40367SOL    HW122998   4.595   5.398  14.431
40367SOL    HW222999   4.563   5.362  14.288
40368SOL     OW23000   8.856  14.662  11.587
40368SOL    HW123001   8.869  14.749  11.551
40368SOL    HW223002   8.829  14.677  11.677
40369SOL     OW23003   5.177   6.233   3.041
40369SOL    HW123004   5.174   6.314   3.092
40369SOL    HW223005   5.255   6.187   3.073
40370SOL     OW23006   9.460   6.654   9.281
40370SOL    HW123007   9.515   6.688   9.211
40370SOL    HW223008   9.461   6.723   9.348
40371SOL     OW23009   6.138   5.337   9.918
40371SOL    HW123010   6.044   5.317   9.918
40371SOL    HW223011   6.172   5.287   9.992
40372SOL     OW23012   5.442  11.768   1.976
40372SOL    HW123013   5.473  11.856   1.954
40372SOL    HW223014   5.358  11.782   2.020
40373SOL     OW23015   5.043   8.479   4.875
40373SOL    HW123016   5.048   8.406   4.813
40373SOL    HW223017   4.963   8.526   4.851
40374SOL     OW23018   7.308  10.571   1.998
40374SOL    HW123019   7.253  10.602   2.071
40374SOL    HW223020   7.340  10.486   2.026
40375SOL     OW23021   5.095  14.584   2.200
40375SOL    HW123022   5.149  14.660   2.223
40375SOL    HW223023   5.130  14.513   2.254
40376SOL     OW23024  11.374  10.644   1.758
40376SOL    HW123025  11.460  10.610   1.782
40376SOL    HW223026  11.346  10.588   1.685
40377SOL     OW23027   1.052   6.668  13.417
40377SOL    HW123028   0.962   6.657  13.449
40377SOL    HW223029   1.091   6.581  13.423
40378SOL     OW23030  14.339   2.581  12.370
40378SOL    HW123031  14.292   2.499  12.386
40378SOL    HW223032  14.415   2.556  12.319
40379SOL     OW23033  12.779   3.632   6.499
40379SOL    HW123034  12.772   3.620   6.404
40379SOL    HW223035  12.689   3.645   6.529
40380SOL     OW23036   8.430   4.818   5.583
40380SOL    HW123037   8.359   4.824   5.647
40380SOL    HW223038   8.397   4.760   5.515
40381SOL     OW23039   5.985  13.389  10.267
40381SOL    HW123040   6.076  13.364  10.248
40381SOL    HW223041   5.958  13.329  10.337
40382SOL     OW23042   5.445   0.526   5.139
40382SOL    HW123043   5.418   0.481   5.059
40382SOL    HW223044   5.373   0.587   5.157
40383SOL     OW23045   7.800  10.548  10.660
40383SOL    HW123046   7.790  10.562  10.566
40383SOL    HW223047   7.809  10.453  10.669
40384SOL     OW23048  13.756   2.034   0.605
40384SOL    HW123049  13.745   2.074   0.519
40384SOL    HW223050  13.818   2.091   0.650
40385SOL     OW23051  13.793   5.374  10.150
40385SOL    HW123052  13.780   5.369  10.055
40385SOL    HW223053  13.742   5.450  10.177
40386SOL     OW23054  13.288   2.943   3.200
40386SOL    HW123055  13.257   3.033   3.196
40386SOL    HW223056  13.298   2.926   3.294
40387SOL     OW23057   8.839   5.702   9.942
40387SOL    HW123058   8.805   5.615   9.966
40387SOL    HW223059   8.779   5.733   9.874
40388SOL     OW23060   5.752  14.457   8.417
40388SOL    HW123061   5.823  14.430   8.359
40388SOL    HW223062   5.791  14.456   8.504
40389SOL     OW23063   5.839  11.547  13.361
40389SOL    HW123064   5.831  11.454  13.340
40389SOL    HW223065   5.895  11.583  13.292
40390SOL     OW23066   3.060  10.603   5.253
40390SOL    HW123067   3.132  10.554   5.214
40390SOL    HW223068   3.059  10.686   5.205
40391SOL     OW23069  13.526   0.291   7.497
40391SOL    HW123070  13.590   0.227   7.526
40391SOL    HW223071  13.574   0.346   7.434
40392SOL     OW23072   2.465   3.899   6.355
40392SOL    HW123073   2.458   3.837   6.283
40392SOL    HW223074   2.513   3.851   6.423
40393SOL     OW23075   0.050  10.233   2.703
40393SOL    HW123076  14.867  10.306   2.734
40393SOL    HW223077   0.080  10.190   2.783
40394SOL     OW23078  10.751   5.684   8.112
40394SOL    HW123079  10.708   5.685   8.197
40394SOL    HW223080  10.827   5.742   8.122
40395SOL     OW23081   3.968   0.603   2.329
40395SOL    HW123082   3.922   0.563   2.403
40395SOL    HW223083   3.926   0.566   2.251
40396SOL     OW23084   9.715   1.040  13.602
40396SOL    HW123085   9.665   1.121  13.603
40396SOL    HW223086   9.776   1.050  13.529
40397SOL     OW23087   8.185  10.597   3.408
40397SOL    HW123088   8.236  10.528   3.364
40397SOL    HW223089   8.250  10.648   3.455
40398SOL     OW23090   4.778   6.915  11.549
40398SOL    HW123091   4.722   6.906  11.472
40398SOL    HW223092   4.809   6.826  11.567
40399SOL     OW23093   2.043  12.537   6.705
40399SOL    HW123094   2.027  12.594   6.629
40399SOL    HW223095   2.114  12.580   6.752
40400SOL     OW23096   6.093   4.974   4.548
40400SOL    HW123097   6.005   4.943   4.569
40400SOL    HW223098   6.104   5.052   4.602
40401SOL     OW23099   7.226  12.797  10.069
40401SOL    HW123100   7.160  12.864  10.046
40401SOL    HW223101   7.179  12.736  10.125
40402SOL     OW23102   5.426   7.063   7.288
40402SOL    HW123103   5.404   7.049   7.195
40402SOL    HW223104   5.380   6.993   7.334
40403SOL     OW23105  13.956   2.110  10.877
40403SOL    HW123106  14.050   2.094  10.882
40403SOL    HW223107  13.923   2.039  10.822
40404SOL     OW23108   7.519   3.419  12.102
40404SOL    HW123109   7.588   3.441  12.164
40404SOL    HW223110   7.445   3.475  12.127
40405SOL     OW23111   1.295   5.653   3.141
40405SOL    HW123112   1.255   5.577   3.098
40405SOL    HW223113   1.291   5.723   3.075
40406SOL     OW23114  12.989   1.799   4.929
40406SOL    HW123115  13.045   1.773   4.856
40406SOL    HW223116  12.997   1.894   4.933
40407SOL     OW23117  10.327  13.764   2.117
40407SOL    HW123118  10.277  13.806   2.187
40407SOL    HW223119  10.414  13.804   2.121
40408SOL     OW23120   1.312  10.600   0.326
40408SOL    HW123121   1.217  10.601   0.331
40408SOL    HW223122   1.340  10.584   0.416
40409SOL     OW23123   0.505  13.622  11.075
40409SOL    HW123124   0.464  13.540  11.102
40409SOL    HW223125   0.592  13.620  11.115
40410SOL     OW23126  13.586   3.054   9.219
40410SOL    HW123127  13.572   3.127   9.280
40410SOL    HW223128  13.512   2.995   9.236
40411SOL     OW23129   2.130   7.070   0.909
40411SOL    HW123130   2.226   7.072   0.915
40411SOL    HW223131   2.109   6.977   0.901
40412SOL     OW23132   4.355   6.779   6.085
40412SOL    HW123133   4.432   6.728   6.059
40412SOL    HW223134   4.390   6.847   6.143
40413SOL     OW23135  13.227  14.717   1.824
40413SOL    HW123136  13.184  14.656   1.883
40413SOL    HW223137  13.237  14.797   1.875
40414SOL     OW23138   0.323   9.630  11.479
40414SOL    HW123139   0.350   9.631  11.387
40414SOL    HW223140   0.236   9.669  11.479
40415SOL     OW23141   6.640  11.688   1.338
40415SOL    HW123142   6.593  11.746   1.279
40415SOL    HW223143   6.665  11.744   1.412
40416SOL     OW23144   8.906   2.070   3.999
40416SOL    HW123145   8.976   2.111   3.948
40416SOL    HW223146   8.825   2.099   3.957
40417SOL     OW23147   4.594   5.783  11.802
40417SOL    HW123148   4.513   5.826  11.776
40417SOL    HW223149   4.579   5.755  11.892
40418SOL     OW23150  11.706  12.504   4.012
40418SOL    HW123151  11.760  12.555   3.952
40418SOL    HW223152  11.749  12.418   4.015
40419SOL     OW23153   7.012   8.904  12.354
40419SOL    HW123154   6.952   8.974  12.328
40419SOL    HW223155   6.988   8.830  12.298
40420SOL     OW23156  11.635  11.255   4.647
40420SOL    HW123157  11.575  11.263   4.721
40420SOL    HW223158  11.611  11.327   4.589
40421SOL     OW23159   8.608  10.906  10.802
40421SOL    HW123160   8.513  10.923  10.805
40421SOL    HW223161   8.618  10.819  10.841
40422SOL     OW23162   7.043  11.059   1.871
40422SOL    HW123163   6.967  11.113   1.894
40422SOL    HW223164   7.016  11.011   1.793
40423SOL     OW23165  12.472   1.673   9.420
40423SOL    HW123166  12.498   1.588   9.385
40423SOL    HW223167  12.496   1.669   9.513
40424SOL     OW23168  14.614   0.539   3.785
40424SOL    HW123169  14.602   0.632   3.804
40424SOL    HW223170  14.708   0.526   3.788
40425SOL     OW23171   2.626   9.121   9.952
40425SOL    HW123172   2.606   9.200  10.002
40425SOL    HW223173   2.587   9.136   9.866
40426SOL     OW23174   2.974   5.789  12.644
40426SOL    HW123175   2.992   5.745  12.561
40426SOL    HW223176   3.013   5.733  12.711
40427SOL     OW23177   6.152  13.853  12.719
40427SOL    HW123178   6.128  13.827  12.808
40427SOL    HW223179   6.130  13.778  12.665
40428SOL     OW23180   2.822   4.026   8.454
40428SOL    HW123181   2.868   3.998   8.533
40428SOL    HW223182   2.754   4.086   8.485
40429SOL     OW23183   7.696   3.448  11.824
40429SOL    HW123184   7.748   3.452  11.904
40429SOL    HW223185   7.759   3.422  11.756
40430SOL     OW23186   5.783   2.151  12.625
40430SOL    HW123187   5.827   2.111  12.700
40430SOL    HW223188   5.706   2.096  12.610
40431SOL     OW23189   9.670   1.202   4.570
40431SOL    HW123190   9.634   1.148   4.641
40431SOL    HW223191   9.762   1.177   4.565
40432SOL     OW23192   7.577   6.359   0.746
40432SOL    HW123193   7.671   6.344   0.734
40432SOL    HW223194   7.562   6.344   0.840
40433SOL     OW23195  10.044  12.631  13.385
40433SOL    HW123196   9.996  12.695  13.332
40433SOL    HW223197  10.128  12.620  13.340
40434SOL     OW23198   8.801   7.773   9.322
40434SOL    HW123199   8.795   7.867   9.343
40434SOL    HW223200   8.710   7.744   9.318
40435SOL     OW23201   2.698   6.111   2.051
40435SOL    HW123202   2.681   6.183   2.112
40435SOL    HW223203   2.668   6.033   2.096
40436SOL     OW23204  13.045   1.701   7.142
40436SOL    HW123205  13.081   1.688   7.054
40436SOL    HW223206  12.969   1.757   7.128
40437SOL     OW23207   3.447  12.422   6.143
40437SOL    HW123208   3.505  12.482   6.189
40437SOL    HW223209   3.367  12.472   6.127
40438SOL     OW23210  12.407  10.967  10.289
40438SOL    HW123211  12.374  10.909  10.359
40438SOL    HW223212  12.340  11.035  10.282
40439SOL     OW23213   1.992  14.439  12.088
40439SOL    HW123214   2.019  14.524  12.052
40439SOL    HW223215   2.054  14.376  12.050
40440SOL     OW23216   1.783   0.411   7.024
40440SOL    HW123217   1.769   0.404   7.118
40440SOL    HW223218   1.825   0.329   6.999
40441SOL     OW23219   0.486   1.602  14.243
40441SOL    HW123220   0.558   1.545  14.218
40441SOL    HW223221   0.502   1.684  14.195
40442SOL     OW23222   5.898   3.419   9.556
40442SOL    HW123223   5.868   3.328   9.552
40442SOL    HW223224   5.960   3.421   9.629
40443SOL     OW23225  12.169   6.622   5.342
40443SOL    HW123226  12.181   6.542   5.292
40443SOL    HW223227  12.255   6.665   5.340
40444SOL     OW23228   9.872  14.451   7.308
40444SOL    HW123229   9.783  14.426   7.331
40444SOL    HW223230   9.919  14.368   7.298
40445SOL     OW23231   9.844   8.888   0.128
40445SOL    HW123232   9.784   8.831   0.177
40445SOL    HW223233   9.865   8.838   0.049
40446SOL     OW23234   9.071  13.651   0.030
40446SOL    HW123235   9.161  13.677   0.051
40446SOL    HW223236   9.078  13.607  14.817
40447SOL     OW23237   0.303   1.317  12.715
40447SOL    HW123238   0.275   1.230  12.685
40447SOL    HW223239   0.222   1.365  12.731
40448SOL     OW23240  10.193  14.844   0.455
40448SOL    HW123241  10.266   0.034   0.443
40448SOL    HW223242  10.197  14.787   0.378
40449SOL     OW23243   3.832   0.699   9.407
40449SOL    HW123244   3.780   0.700   9.327
40449SOL    HW223245   3.916   0.738   9.382
40450SOL     OW23246  10.146   0.298  12.215
40450SOL    HW123247  10.236   0.267  12.225
40450SOL    HW223248  10.139   0.373  12.274
40451SOL     OW23249   1.059   2.962  14.277
40451SOL    HW123250   1.074   3.056  14.293
40451SOL    HW223251   1.142   2.929  14.245
40452SOL     OW23252   2.885   5.061  11.147
40452SOL    HW123253   2.867   5.032  11.236
40452SOL    HW223254   2.966   5.112  11.154
40453SOL     OW23255   4.309  13.703  11.171
40453SOL    HW123256   4.346  13.739  11.252
40453SOL    HW223257   4.385  13.672  11.123
40454SOL     OW23258   7.862  14.395  11.657
40454SOL    HW123259   7.936  14.425  11.605
40454SOL    HW223260   7.882  14.424  11.746
40455SOL     OW23261   3.384   0.842   7.285
40455SOL    HW123262   3.308   0.891   7.318
40455SOL    HW223263   3.391   0.766   7.342
40456SOL     OW23264  14.119   4.954   9.898
40456SOL    HW123265  14.026   4.954   9.875
40456SOL    HW223266  14.122   4.922   9.988
40457SOL     OW23267  11.899  11.428   9.970
40457SOL    HW123268  11.843  11.354   9.948
40457SOL    HW223269  11.838  11.500   9.985
40458SOL     OW23270   7.907   5.200  11.030
40458SOL    HW123271   7.917   5.173  11.121
40458SOL    HW223272   7.897   5.295  11.034
40459SOL     OW23273  13.509   7.264   0.724
40459SOL    HW123274  13.523   7.170   0.737
40459SOL    HW223275  13.436   7.285   0.782
40460SOL     OW23276   9.507  11.290   0.408
40460SOL    HW123277   9.509  11.278   0.502
40460SOL    HW223278   9.576  11.234   0.374
40461SOL     OW23279   4.360   9.631  10.845
40461SOL    HW123280   4.373   9.539  10.821
40461SOL    HW223281   4.415   9.680  10.784
40462SOL     OW23282   7.536   1.444   8.637
40462SOL    HW123283   7.515   1.537   8.635
40462SOL    HW223284   7.462   1.402   8.593
40463SOL     OW23285  10.833   3.569   7.701
40463SOL    HW123286  10.793   3.655   7.711
40463SOL    HW223287  10.871   3.550   7.787
40464SOL     OW23288   4.999   2.644  11.374
40464SOL    HW123289   5.028   2.678  11.290
40464SOL    HW223290   5.063   2.677  11.437
40465SOL     OW23291   3.470   1.219  12.918
40465SOL    HW123292   3.553   1.267  12.922
40465SOL    HW223293   3.489   1.135  12.961
40466SOL     OW23294  13.953  11.008   0.012
40466SOL    HW123295  13.938  11.066  14.809
40466SOL    HW223296  13.964  11.066   0.087
40467SOL     OW23297   6.501  13.433  14.656
40467SOL    HW123298   6.543  13.479  14.729
40467SOL    HW223299   6.410  13.462  14.659
40468SOL     OW23300  11.919  10.313   2.838
40468SOL    HW123301  11.978  10.302   2.764
40468SOL    HW223302  11.868  10.391   2.816
40469SOL     OW23303   2.185  13.844  11.798
40469SOL    HW123304   2.111  13.787  11.776
40469SOL    HW223305   2.206  13.889  11.717
40470SOL     OW23306  13.963   3.442   4.563
40470SOL    HW123307  14.042   3.475   4.606
40470SOL    HW223308  13.991   3.360   4.522
40471SOL     OW23309   1.240  14.515   6.552
40471SOL    HW123310   1.211  14.474   6.471
40471SOL    HW223311   1.330  14.544   6.534
40472SOL     OW23312   3.554   5.626   7.392
40472SOL    HW123313   3.595   5.713   7.388
40472SOL    HW223314   3.595   5.577   7.321
40473SOL     OW23315  10.424   5.337   4.666
40473SOL    HW123316  10.489   5.353   4.598
40473SOL    HW223317  10.348   5.300   4.620
40474SOL     OW23318   4.237   9.947   6.016
40474SOL    HW123319   4.200   9.861   6.036
40474SOL    HW223320   4.277   9.935   5.930
40475SOL     OW23321   3.085   1.525   3.063
40475SOL    HW123322   3.071   1.447   3.118
40475SOL    HW223323   3.136   1.493   2.989
40476SOL     OW23324  14.370  12.462  11.093
40476SOL    HW123325  14.307  12.493  11.158
40476SOL    HW223326  14.455  12.495  11.124
40477SOL     OW23327   9.079   6.466   1.847
40477SOL    HW123328   9.025   6.539   1.879
40477SOL    HW223329   9.099   6.414   1.925
40478SOL     OW23330   5.788   4.698   1.555
40478SOL    HW123331   5.872   4.687   1.600
40478SOL    HW223332   5.758   4.785   1.581
40479SOL     OW23333  12.719   7.972   7.490
40479SOL    HW123334  12.775   8.036   7.447
40479SOL    HW223335  12.724   7.895   7.434
40480SOL     OW23336   5.222  13.777   4.965
40480SOL    HW123337   5.244  13.814   5.051
40480SOL    HW223338   5.130  13.749   4.974
40481SOL     OW23339   0.059   4.453   9.208
40481SOL    HW123340   0.123   4.483   9.143
40481SOL    HW223341  14.851   4.436   9.158
40482SOL     OW23342   9.807   6.166   6.758
40482SOL    HW123343   9.863   6.105   6.710
40482SOL    HW223344   9.864   6.205   6.824
40483SOL     OW23345   5.260   0.418   6.894
40483SOL    HW123346   5.310   0.362   6.953
40483SOL    HW223347   5.312   0.498   6.886
40484SOL     OW23348   9.752   7.437   8.733
40484SOL    HW123349   9.698   7.433   8.812
40484SOL    HW223350   9.735   7.525   8.698
40485SOL     OW23351   0.143   9.393   7.255
40485SOL    HW123352   0.211   9.410   7.320
40485SOL    HW223353   0.103   9.310   7.282
40486SOL     OW23354   9.953  10.583   8.168
40486SOL    HW123355   9.969  10.670   8.131
40486SOL    HW223356   9.892  10.598   8.240
40487SOL     OW23357   4.220   9.180  12.146
40487SOL    HW123358   4.179   9.183  12.060
40487SOL    HW223359   4.307   9.143  12.130
40488SOL     OW23360  11.146  11.781   6.011
40488SOL    HW123361  11.104  11.864   5.991
40488SOL    HW223362  11.238  11.804   6.025
40489SOL     OW23363   8.247   3.138   0.892
40489SOL    HW123364   8.223   3.130   0.984
40489SOL    HW223365   8.236   3.231   0.872
40490SOL     OW23366   8.164   6.753   1.951
40490SOL    HW123367   8.232   6.820   1.943
40490SOL    HW223368   8.178   6.715   2.038
40491SOL     OW23369  13.245  14.765   5.517
40491SOL    HW123370  13.175  14.724   5.567
40491SOL    HW223371  13.321  14.710   5.532
40492SOL     OW23372  11.639   0.481   0.370
40492SOL    HW123373  11.642   0.576   0.356
40492SOL    HW223374  11.701   0.466   0.442
40493SOL     OW23375   7.414   8.305   6.013
40493SOL    HW123376   7.331   8.264   6.037
40493SOL    HW223377   7.425   8.376   6.077
40494SOL     OW23378   5.031   5.825   7.053
40494SOL    HW123379   5.120   5.824   7.017
40494SOL    HW223380   4.974   5.816   6.977
40495SOL     OW23381   1.803   2.468   4.991
40495SOL    HW123382   1.832   2.481   5.082
40495SOL    HW223383   1.717   2.510   4.987
40496SOL     OW23384   8.536  13.718  12.401
40496SOL    HW123385   8.527  13.626  12.423
40496SOL    HW223386   8.470  13.762  12.455
40497SOL     OW23387  13.500   0.542   5.237
40497SOL    HW123388  13.499   0.499   5.152
40497SOL    HW223389  13.434   0.496   5.289
40498SOL     OW23390   4.178   8.386   9.333
40498SOL    HW123391   4.208   8.425   9.415
40498SOL    HW223392   4.259   8.365   9.286
40499SOL     OW23393  10.003   9.139   9.536
40499SOL    HW123394   9.913   9.116   9.559
40499SOL    HW223395  10.022   9.217   9.588
40500SOL     OW23396  13.063   4.636  14.542
40500SOL    HW123397  13.000   4.682  14.486
40500SOL    HW223398  13.148   4.668  14.514
40501SOL     OW23399  11.481   7.886   7.767
40501SOL    HW123400  11.558   7.886   7.824
40501SOL    HW223401  11.463   7.979   7.752
40502SOL     OW23402   9.222   8.598  14.384
40502SOL    HW123403   9.212   8.527  14.321
40502SOL    HW223404   9.266   8.667  14.334
40503SOL     OW23405   1.465   1.045   0.629
40503SOL    HW123406   1.390   0.991   0.604
40503SOL    HW223407   1.481   1.100   0.552
40504SOL     OW23408  12.849   9.088  12.744
40504SOL    HW123409  12.773   9.147  12.745
40504SOL    HW223410  12.917   9.135  12.792
40505SOL     OW23411  11.529   3.953  13.075
40505SOL    HW123412  11.589   3.881  13.054
40505SOL    HW223413  11.513   3.996  12.991
40506SOL     OW23414  11.265   9.260   4.361
40506SOL    HW123415  11.192   9.216   4.404
40506SOL    HW223416  11.233   9.348   4.342
40507SOL     OW23417   7.138   0.454  10.050
40507SOL    HW123418   7.056   0.504  10.056
40507SOL    HW223419   7.110   0.368  10.019
40508SOL     OW23420   4.453   8.515   6.735
40508SOL    HW123421   4.544   8.516   6.765
40508SOL    HW223422   4.459   8.523   6.640
40509SOL     OW23423   9.681   5.940   9.164
40509SOL    HW123424   9.664   5.978   9.078
40509SOL    HW223425   9.731   5.861   9.147
40510SOL     OW23426   6.485   2.408   3.343
40510SOL    HW123427   6.405   2.451   3.373
40510SOL    HW223428   6.524   2.372   3.422
40511SOL     OW23429  14.347   6.625  11.122
40511SOL    HW123430  14.304   6.540  11.133
40511SOL    HW223431  14.336   6.646  11.030
40512SOL     OW23432  14.517   9.899   8.996
40512SOL    HW123433  14.425   9.887   9.019
40512SOL    HW223434  14.518   9.901   8.900
40513SOL     OW23435  14.593   5.853  11.626
40513SOL    HW123436  14.676   5.866  11.671
40513SOL    HW223437  14.536   5.813  11.692
40514SOL     OW23438  13.535  13.103   1.680
40514SOL    HW123439  13.493  13.149   1.752
40514SOL    HW223440  13.528  13.164   1.606
40515SOL     OW23441  10.109   2.649   1.440
40515SOL    HW123442  10.191   2.697   1.435
40515SOL    HW223443  10.109   2.608   1.526
40516SOL     OW23444   3.636   3.096  10.441
40516SOL    HW123445   3.555   3.063  10.479
40516SOL    HW223446   3.672   3.154  10.508
40517SOL     OW23447  14.704   0.143   9.299
40517SOL    HW123448  14.748   0.193   9.368
40517SOL    HW223449  14.643   0.086   9.347
40518SOL     OW23450   4.604   3.857  12.734
40518SOL    HW123451   4.689   3.857  12.691
40518SOL    HW223452   4.595   3.768  12.770
40519SOL     OW23453   6.451   0.802   2.347
40519SOL    HW123454   6.376   0.851   2.313
40519SOL    HW223455   6.415   0.747   2.416
40520SOL     OW23456   0.538  12.564  11.452
40520SOL    HW123457   0.596  12.488  11.445
40520SOL    HW223458   0.531  12.580  11.546
40521SOL     OW23459  12.231   3.128   4.263
40521SOL    HW123460  12.180   3.046   4.268
40521SOL    HW223461  12.246   3.152   4.354
40522SOL     OW23462   1.922  12.758   4.105
40522SOL    HW123463   1.988  12.818   4.140
40522SOL    HW223464   1.922  12.774   4.011
40523SOL     OW23465  12.538   9.295  14.717
40523SOL    HW123466  12.488   9.358  14.769
40523SOL    HW223467  12.583   9.241  14.782
40524SOL     OW23468   1.308   7.341   4.084
40524SOL    HW123469   1.371   7.272   4.059
40524SOL    HW223470   1.295   7.328   4.178
40525SOL     OW23471   6.773  10.915  14.401
40525SOL    HW123472   6.733  10.871  14.326
40525SOL    HW223473   6.715  10.895  14.474
40526SOL     OW23474   0.945   1.837   2.772
40526SOL    HW123475   1.033   1.854   2.737
40526SOL    HW223476   0.897   1.919   2.757
40527SOL     OW23477   0.186   5.950   7.943
40527SOL    HW123478   0.280   5.935   7.937
40527SOL    HW223479   0.175   6.043   7.922
40528SOL     OW23480   6.927  14.342   1.607
40528SOL    HW123481   6.901  14.319   1.696
40528SOL    HW223482   6.906  14.435   1.599
40529SOL     OW23483  11.013   0.371   3.653
40529SOL    HW123484  11.080   0.350   3.718
40529SOL    HW223485  10.978   0.456   3.680
40530SOL     OW23486   6.293  13.565  14.512
40530SOL    HW123487   6.348  13.643  14.501
40530SOL    HW223488   6.206  13.599  14.530
40531SOL     OW23489   0.823  12.767  11.797
40531SOL    HW123490   0.834  12.839  11.735
40531SOL    HW223491   0.911  12.730  11.807
40532SOL     OW23492   9.924   1.593   7.393
40532SOL    HW123493   9.915   1.686   7.373
40532SOL    HW223494   9.884   1.583   7.479
40533SOL     OW23495   5.266   4.612   2.868
40533SOL    HW123496   5.284   4.680   2.934
40533SOL    HW223497   5.181   4.577   2.892
40534SOL     OW23498  14.390  12.189   3.055
40534SOL    HW123499  14.351  12.109   3.090
40534SOL    HW223500  14.483  12.182   3.077
40535SOL     OW23501   2.805   9.862   6.380
40535SOL    HW123502   2.752   9.890   6.306
40535SOL    HW223503   2.759   9.897   6.457
40536SOL     OW23504   4.954  12.067   7.972
40536SOL    HW123505   5.007  12.147   7.973
40536SOL    HW223506   4.915  12.064   7.885
40537SOL     OW23507  10.878   0.803  14.086
40537SOL    HW123508  10.940   0.812  14.159
40537SOL    HW223509  10.887   0.885  14.037
40538SOL     OW23510   5.292  11.151   8.992
40538SOL    HW123511   5.302  11.244   8.971
40538SOL    HW223512   5.380  11.122   9.013
40539SOL     OW23513   1.396  13.436   9.522
40539SOL    HW123514   1.362  13.357   9.480
40539SOL    HW223515   1.338  13.506   9.492
40540SOL     OW23516   0.686   1.275   5.567
40540SOL    HW123517   0.733   1.335   5.509
40540SOL    HW223518   0.729   1.285   5.652
40541SOL     OW23519  12.774  12.341   2.194
40541SOL    HW123520  12.687  12.317   2.164
40541SOL    HW223521  12.766  12.432   2.222
40542SOL     OW23522  10.619   1.269  11.912
40542SOL    HW123523  10.648   1.358  11.897
40542SOL    HW223524  10.688   1.230  11.966
40543SOL     OW23525  10.303   8.129   5.878
40543SOL    HW123526  10.315   8.134   5.783
40543SOL    HW223527  10.225   8.075   5.890
40544SOL     OW23528   9.108   7.142  12.676
40544SOL    HW123529   9.057   7.132  12.756
40544SOL    HW223530   9.099   7.235  12.653
40545SOL     OW23531   2.935   9.120   8.824
40545SOL    HW123532   2.976   9.038   8.794
40545SOL    HW223533   2.886   9.151   8.748
40546SOL     OW23534  13.713  10.512   5.550
40546SOL    HW123535  13.646  10.575   5.575
40546SOL    HW223536  13.775  10.513   5.623
40547SOL     OW23537   9.793   8.442   1.679
40547SOL    HW123538   9.703   8.466   1.702
40547SOL    HW223539   9.814   8.368   1.736
40548SOL     OW23540   9.375   5.194   5.871
40548SOL    HW123541   9.329   5.131   5.928
40548SOL    HW223542   9.305   5.244   5.829
40549SOL     OW23543   0.570   3.967   4.925
40549SOL    HW123544   0.488   4.010   4.898
40549SOL    HW223545   0.552   3.873   4.914
40550SOL     OW23546   2.818   0.740  11.738
40550SOL    HW123547   2.886   0.675  11.756
40550SOL    HW223548   2.738   0.702  11.773
40551SOL     OW23549   5.792  13.977   9.623
40551SOL    HW123550   5.862  14.037   9.595
40551SOL    HW223551   5.832  13.925   9.693
40552SOL     OW23552   9.006   4.796   9.498
40552SOL    HW123553   8.957   4.868   9.460
40552SOL    HW223554   9.091   4.834   9.522
40553SOL     OW23555  11.978  11.230   6.675
40553SOL    HW123556  12.039  11.251   6.605
40553SOL    HW223557  11.893  11.220   6.632
40554SOL     OW23558   8.086   0.479  12.403
40554SOL    HW123559   8.061   0.571  12.407
40554SOL    HW223560   8.012   0.432  12.441
40555SOL     OW23561   3.118   5.971   7.428
40555SOL    HW123562   3.115   6.010   7.515
40555SOL    HW223563   3.048   5.906   7.428
40556SOL     OW23564   0.558   4.886   2.333
40556SOL    HW123565   0.547   4.871   2.427
40556SOL    HW223566   0.642   4.932   2.327
40557SOL     OW23567   8.608   4.682   5.740
40557SOL    HW123568   8.556   4.610   5.776
40557SOL    HW223569   8.542   4.746   5.710
40558SOL     OW23570   8.719   8.729   0.021
40558SOL    HW123571   8.705   8.817   0.054
40558SOL    HW223572   8.682   8.730  14.804
40559SOL     OW23573  14.394   2.089  13.158
40559SOL    HW123574  14.367   2.036  13.233
40559SOL    HW223575  14.342   2.169  13.164
40560SOL     OW23576   3.323   4.665   5.949
40560SOL    HW123577   3.292   4.703   5.867
40560SOL    HW223578   3.415   4.642   5.931
40561SOL     OW23579   2.665   2.888   6.705
40561SOL    HW123580   2.738   2.947   6.723
40561SOL    HW223581   2.664   2.828   6.779
40562SOL     OW23582   7.343   8.274   0.762
40562SOL    HW123583   7.345   8.178   0.763
40562SOL    HW223584   7.342   8.297   0.669
40563SOL     OW23585   1.952  12.145   2.369
40563SOL    HW123586   1.957  12.052   2.352
40563SOL    HW223587   2.037  12.179   2.343
40564SOL     OW23588   2.277   8.300  12.844
40564SOL    HW123589   2.272   8.227  12.782
40564SOL    HW223590   2.356   8.349  12.817
40565SOL     OW23591   0.479   8.144  10.281
40565SOL    HW123592   0.423   8.126  10.356
40565SOL    HW223593   0.568   8.125  10.313
40566SOL     OW23594   7.878   5.000   3.324
40566SOL    HW123595   7.888   5.052   3.244
40566SOL    HW223596   7.963   4.958   3.335
40567SOL     OW23597  11.566   8.734   3.339
40567SOL    HW123598  11.582   8.722   3.245
40567SOL    HW223599  11.622   8.807   3.364
40568SOL     OW23600   7.595  13.228   1.652
40568SOL    HW123601   7.534  13.181   1.709
40568SOL    HW223602   7.681  13.210   1.690
40569SOL     OW23603  10.538   1.501   8.374
40569SOL    HW123604  10.626   1.485   8.408
40569SOL    HW223605  10.543   1.475   8.282
40570SOL     OW23606  10.831  14.508   3.550
40570SOL    HW123607  10.758  14.563   3.577
40570SOL    HW223608  10.893  14.513   3.623
40571SOL     OW23609  12.508   5.396   3.043
40571SOL    HW123610  12.570   5.468   3.030
40571SOL    HW223611  12.431   5.420   2.992
40572SOL     OW23612  11.234   2.328  12.358
40572SOL    HW123613  11.294   2.312  12.431
40572SOL    HW223614  11.262   2.267  12.290
40573SOL     OW23615   8.357   4.809   9.481
40573SOL    HW123616   8.326   4.787   9.392
40573SOL    HW223617   8.278   4.807   9.535
40574SOL     OW23618  14.306  12.824  11.118
40574SOL    HW123619  14.224  12.859  11.083
40574SOL    HW223620  14.374  12.879  11.081
40575SOL     OW23621  14.647  11.882  12.377
40575SOL    HW123622  14.587  11.835  12.435
40575SOL    HW223623  14.701  11.812  12.338
40576SOL     OW23624  11.819   6.189   7.210
40576SOL    HW123625  11.866   6.265   7.176
40576SOL    HW223626  11.819   6.200   7.305
40577SOL     OW23627   3.327   9.518   2.706
40577SOL    HW123628   3.344   9.610   2.728
40577SOL    HW223629   3.374   9.469   2.773
40578SOL     OW23630   4.112   0.898  12.253
40578SOL    HW123631   4.123   0.975  12.309
40578SOL    HW223632   4.198   0.883  12.214
40579SOL     OW23633   6.455  12.933  13.607
40579SOL    HW123634   6.441  12.859  13.665
40579SOL    HW223635   6.402  12.913  13.530
40580SOL     OW23636   0.830  10.606   3.166
40580SOL    HW123637   0.842  10.698   3.143
40580SOL    HW223638   0.847  10.558   3.084
40581SOL     OW23639   2.806   8.433   9.563
40581SOL    HW123640   2.764   8.375   9.626
40581SOL    HW223641   2.799   8.520   9.602
40582SOL     OW23642   5.271   3.338   4.945
40582SOL    HW123643   5.339   3.293   4.994
40582SOL    HW223644   5.276   3.301   4.857
40583SOL     OW23645  11.938   3.252   1.940
40583SOL    HW123646  11.936   3.158   1.954
40583SOL    HW223647  11.848   3.281   1.958
40584SOL     OW23648   1.091   8.995  13.476
40584SOL    HW123649   1.026   9.058  13.508
40584SOL    HW223650   1.070   8.914  13.522
40585SOL     OW23651   1.286   7.812  14.677
40585SOL    HW123652   1.312   7.882  14.618
40585SOL    HW223653   1.294   7.732  14.624
40586SOL     OW23654   1.270  12.722  12.315
40586SOL    HW123655   1.251  12.760  12.401
40586SOL    HW223656   1.211  12.769  12.255
40587SOL     OW23657   4.819  11.859   0.056
40587SOL    HW123658   4.913  11.841   0.053
40587SOL    HW223659   4.780  11.774   0.078
40588SOL     OW23660   4.028   9.852   1.483
40588SOL    HW123661   3.981   9.878   1.562
40588SOL    HW223662   3.964   9.804   1.431
40589SOL     OW23663   7.829   7.025   7.810
40589SOL    HW123664   7.825   6.957   7.743
40589SOL    HW223665   7.779   7.098   7.773
40590SOL     OW23666   3.038  12.703   4.503
40590SOL    HW123667   3.069  12.719   4.414
40590SOL    HW223668   2.948  12.735   4.504
40591SOL     OW23669  10.659   9.576   4.118
40591SOL    HW123670  10.697   9.661   4.138
40591SOL    HW223671  10.620   9.547   4.201
40592SOL     OW23672   6.581   6.868   4.808
40592SOL    HW123673   6.568   6.963   4.807
40592SOL    HW223674   6.507   6.833   4.759
40593SOL     OW23675   2.327  14.300   1.615
40593SOL    HW123676   2.326  14.394   1.595
40593SOL    HW223677   2.382  14.293   1.693
40594SOL     OW23678  14.084   3.244  13.842
40594SOL    HW123679  14.083   3.153  13.871
40594SOL    HW223680  14.003   3.255  13.793
40595SOL     OW23681   9.993  10.758   5.187
40595SOL    HW123682   9.942  10.773   5.267
40595SOL    HW223683   9.935  10.787   5.116
40596SOL     OW23684  12.821  11.668  14.784
40596SOL    HW123685  12.794  11.759  14.777
40596SOL    HW223686  12.825  11.652   0.007
40597SOL     OW23687   9.258  13.238   4.133
40597SOL    HW123688   9.272  13.154   4.177
40597SOL    HW223689   9.338  13.254   4.084
40598SOL     OW23690   1.080   0.681   4.959
40598SOL    HW123691   1.111   0.688   5.049
40598SOL    HW223692   1.160   0.664   4.908
40599SOL     OW23693   2.617  11.971   0.412
40599SOL    HW123694   2.588  12.057   0.443
40599SOL    HW223695   2.588  11.967   0.321
40600SOL     OW23696   0.725  13.134   2.523
40600SOL    HW123697   0.717  13.227   2.543
40600SOL    HW223698   0.799  13.128   2.462
40601SOL     OW23699   5.597  11.781   8.274
40601SOL    HW123700   5.514  11.789   8.321
40601SOL    HW223701   5.577  11.809   8.184
40602SOL     OW23702  13.333   2.533   0.145
40602SOL    HW123703  13.418   2.502   0.177
40602SOL    HW223704  13.285   2.556   0.225
40603SOL     OW23705   8.539   7.016  14.207
40603SOL    HW123706   8.588   6.980  14.281
40603SOL    HW223707   8.462   7.056  14.247
40604SOL     OW23708   5.491   8.432  11.954
40604SOL    HW123709   5.497   8.522  11.923
40604SOL    HW223710   5.577   8.394  11.935
40605SOL     OW23711   0.802   0.668   8.728
40605SOL    HW123712   0.811   0.581   8.687
40605SOL    HW223713   0.712   0.671   8.758
40606SOL     OW23714  10.756   4.945  13.217
40606SOL    HW123715  10.711   4.875  13.265
40606SOL    HW223716  10.752   5.020  13.277
40607SOL     OW23717   0.015  12.260   1.847
40607SOL    HW123718   0.110  12.266   1.859
40607SOL    HW223719  14.854  12.347   1.872
40608SOL     OW23720  11.184  13.082   3.782
40608SOL    HW123721  11.201  13.030   3.860
40608SOL    HW223722  11.089  13.087   3.777
40609SOL     OW23723  13.217   2.693   8.620
40609SOL    HW123724  13.300   2.690   8.669
40609SOL    HW223725  13.224   2.620   8.559
40610SOL     OW23726   3.906  12.924   2.925
40610SOL    HW123727   3.866  12.902   2.841
40610SOL    HW223728   3.980  12.864   2.933
40611SOL     OW23729   0.466   9.967  10.324
40611SOL    HW123730   0.431   9.900  10.383
40611SOL    HW223731   0.522  10.021  10.379
40612SOL     OW23732  11.580   4.007  13.877
40612SOL    HW123733  11.632   3.995  13.957
40612SOL    HW223734  11.608   4.091  13.842
40613SOL     OW23735   6.078   7.538   8.465
40613SOL    HW123736   6.169   7.544   8.493
40613SOL    HW223737   6.030   7.592   8.527
40614SOL     OW23738   8.675   5.791   1.169
40614SOL    HW123739   8.756   5.746   1.192
40614SOL    HW223740   8.687   5.880   1.202
40615SOL     OW23741   2.788  10.120  12.324
40615SOL    HW123742   2.882  10.139  12.314
40615SOL    HW223743   2.744  10.194  12.283
40616SOL     OW23744   6.803   6.612  12.680
40616SOL    HW123745   6.876   6.557  12.651
40616SOL    HW223746   6.730   6.551  12.690
40617SOL     OW23747   4.629  12.052   4.640
40617SOL    HW123748   4.620  11.959   4.621
40617SOL    HW223749   4.706  12.058   4.696
40618SOL     OW23750   1.199   8.514  12.977
40618SOL    HW123751   1.277   8.516  13.033
40618SOL    HW223752   1.206   8.431  12.930
40619SOL     OW23753   4.227  13.046  10.550
40619SOL    HW123754   4.224  13.061  10.455
40619SOL    HW223755   4.147  13.086  10.583
40620SOL     OW23756   7.007   9.876   7.619
40620SOL    HW123757   6.927   9.850   7.665
40620SOL    HW223758   7.041   9.794   7.584
40621SOL     OW23759   9.739  11.814   7.356
40621SOL    HW123760   9.689  11.844   7.432
40621SOL    HW223761   9.686  11.742   7.320
40622SOL     OW23762   7.088  10.359   6.690
40622SOL    HW123763   7.099  10.337   6.782
40622SOL    HW223764   7.028  10.293   6.656
40623SOL     OW23765   0.068  11.348   5.123
40623SOL    HW123766   0.094  11.401   5.048
40623SOL    HW223767   0.143  11.291   5.140
40624SOL     OW23768  13.609   5.764   9.554
40624SOL    HW123769  13.566   5.827   9.496
40624SOL    HW223770  13.695   5.803   9.572
40625SOL     OW23771  13.590  12.743   9.572
40625SOL    HW123772  13.549  12.663   9.539
40625SOL    HW223773  13.559  12.750   9.663
40626SOL     OW23774  10.111  14.641   3.449
40626SOL    HW123775  10.022  14.606   3.457
40626SOL    HW223776  10.106  14.701   3.375
40627SOL     OW23777   7.423  13.696   8.241
40627SOL    HW123778   7.384  13.705   8.155
40627SOL    HW223779   7.410  13.782   8.283
40628SOL     OW23780  12.089   8.796   4.189
40628SOL    HW123781  12.069   8.768   4.279
40628SOL    HW223782  12.177   8.763   4.173
40629SOL     OW23783  12.408  10.745   4.545
40629SOL    HW123784  12.323  10.702   4.553
40629SOL    HW223785  12.435  10.765   4.634
40630SOL     OW23786   3.029  14.143  13.202
40630SOL    HW123787   2.996  14.192  13.277
40630SOL    HW223788   3.001  14.193  13.126
40631SOL     OW23789   3.981   4.710   0.943
40631SOL    HW123790   3.934   4.702   0.860
40631SOL    HW223791   4.073   4.706   0.918
40632SOL     OW23792  13.656  14.770  14.053
40632SOL    HW123793  13.590  14.834  14.078
40632SOL    HW223794  13.708  14.756  14.132
40633SOL     OW23795   2.982   5.387  13.626
40633SOL    HW123796   2.922   5.324  13.666
40633SOL    HW223797   2.929   5.466  13.612
40634SOL     OW23798   8.318   2.768   9.696
40634SOL    HW123799   8.230   2.752   9.732
40634SOL    HW223800   8.308   2.849   9.646
40635SOL     OW23801   6.288   8.828  13.627
40635SOL    HW123802   6.280   8.912  13.671
40635SOL    HW223803   6.199   8.793  13.625
40636SOL     OW23804  12.057   1.149  12.899
40636SOL    HW123805  12.125   1.113  12.842
40636SOL    HW223806  11.985   1.170  12.840
40637SOL     OW23807   6.359   0.479   6.640
40637SOL    HW123808   6.434   0.481   6.580
40637SOL    HW223809   6.322   0.391   6.629
40638SOL     OW23810  10.986   2.298  12.097
40638SOL    HW123811  10.944   2.244  12.164
40638SOL    HW223812  11.046   2.239  12.052
40639SOL     OW23813   9.017   2.242   7.769
40639SOL    HW123814   8.943   2.297   7.796
40639SOL    HW223815   8.999   2.156   7.807
40640SOL     OW23816   4.277  12.900  11.903
40640SOL    HW123817   4.324  12.888  11.820
40640SOL    HW223818   4.244  12.813  11.925
40641SOL     OW23819   6.323   6.378  12.271
40641SOL    HW123820   6.399   6.326  12.297
40641SOL    HW223821   6.282   6.403  12.353
40642SOL     OW23822  11.292   8.377   7.398
40642SOL    HW123823  11.256   8.463   7.375
40642SOL    HW223824  11.340   8.350   7.320
40643SOL     OW23825   8.671   5.455  10.366
40643SOL    HW123826   8.621   5.484  10.442
40643SOL    HW223827   8.672   5.531  10.308
40644SOL     OW23828   1.435   2.972   2.752
40644SOL    HW123829   1.528   2.975   2.776
40644SOL    HW223830   1.422   2.884   2.718
40645SOL     OW23831  12.956   4.605  11.649
40645SOL    HW123832  12.870   4.603  11.691
40645SOL    HW223833  12.959   4.690  11.606
40646SOL     OW23834  10.073  14.754   4.589
40646SOL    HW123835  10.087  14.829   4.531
40646SOL    HW223836  10.016  14.788   4.658
40647SOL     OW23837  13.136   4.509   5.472
40647SOL    HW123838  13.095   4.422   5.476
40647SOL    HW223839  13.229   4.492   5.488
40648SOL     OW23840   7.856   5.427   8.016
40648SOL    HW123841   7.890   5.338   8.025
40648SOL    HW223842   7.770   5.423   8.058
40649SOL     OW23843   8.281  14.118   1.351
40649SOL    HW123844   8.203  14.065   1.335
40649SOL    HW223845   8.301  14.158   1.266
40650SOL     OW23846  13.798  14.379  10.423
40650SOL    HW123847  13.820  14.472  10.419
40650SOL    HW223848  13.864  14.336  10.368
40651SOL     OW23849   0.765  13.652   1.340
40651SOL    HW123850   0.731  13.741   1.333
40651SOL    HW223851   0.820  13.653   1.418
40652SOL     OW23852   5.839   3.573  10.371
40652SOL    HW123853   5.807   3.638  10.308
40652SOL    HW223854   5.881   3.506  10.317
40653SOL     OW23855   0.137   0.241   1.556
40653SOL    HW123856   0.210   0.284   1.599
40653SOL    HW223857   0.088   0.311   1.514
40654SOL     OW23858  12.747  12.438   0.602
40654SOL    HW123859  12.834  12.428   0.641
40654SOL    HW223860  12.716  12.522   0.633
40655SOL     OW23861  10.680   6.337   7.440
40655SOL    HW123862  10.693   6.246   7.467
40655SOL    HW223863  10.733   6.347   7.361
40656SOL     OW23864   1.944   1.015  12.066
40656SOL    HW123865   2.017   1.055  12.019
40656SOL    HW223866   1.920   1.079  12.132
40657SOL     OW23867   9.825   5.157   3.831
40657SOL    HW123868   9.781   5.186   3.751
40657SOL    HW223869   9.915   5.139   3.804
40658SOL     OW23870   0.976   1.758   3.471
40658SOL    HW123871   0.933   1.673   3.466
40658SOL    HW223872   1.044   1.755   3.404
40659SOL     OW23873   4.723  12.929   5.650
40659SOL    HW123874   4.743  12.982   5.573
40659SOL    HW223875   4.632  12.903   5.639
40660SOL     OW23876  14.293   9.569   8.418
40660SOL    HW123877  14.356   9.520   8.471
40660SOL    HW223878  14.329   9.657   8.413
40661SOL     OW23879   7.051  10.030  12.939
40661SOL    HW123880   7.044  10.037  12.843
40661SOL    HW223881   7.080   9.940  12.954
40662SOL     OW23882   6.039  14.499   4.555
40662SOL    HW123883   6.093  14.427   4.521
40662SOL    HW223884   5.957  14.492   4.505
40663SOL     OW23885  12.973   6.086   6.344
40663SOL    HW123886  13.061   6.050   6.329
40663SOL    HW223887  12.979   6.176   6.312
40664SOL     OW23888   8.154   2.700   4.233
40664SOL    HW123889   8.174   2.794   4.241
40664SOL    HW223890   8.170   2.665   4.320
40665SOL     OW23891   3.919   4.964   8.498
40665SOL    HW123892   3.967   4.991   8.577
40665SOL    HW223893   3.987   4.957   8.431
40666SOL     OW23894  13.024  12.659   4.752
40666SOL    HW123895  12.931  12.649   4.774
40666SOL    HW223896  13.062  12.573   4.769
40667SOL     OW23897   2.478   7.327   3.240
40667SOL    HW123898   2.403   7.376   3.205
40667SOL    HW223899   2.499   7.371   3.322
40668SOL     OW23900   5.894   2.387   2.322
40668SOL    HW123901   5.984   2.420   2.320
40668SOL    HW223902   5.840   2.463   2.305
40669SOL     OW23903   8.634   5.044  10.296
40669SOL    HW123904   8.581   4.978  10.341
40669SOL    HW223905   8.570   5.100  10.253
40670SOL     OW23906   2.592   0.228   5.553
40670SOL    HW123907   2.579   0.144   5.596
40670SOL    HW223908   2.531   0.287   5.597
40671SOL     OW23909   4.597   2.562   4.373
40671SOL    HW123910   4.624   2.654   4.363
40671SOL    HW223911   4.679   2.515   4.390
40672SOL     OW23912  11.928  14.009   7.379
40672SOL    HW123913  11.972  14.092   7.363
40672SOL    HW223914  11.970  13.974   7.458
40673SOL     OW23915  12.921   8.292  13.276
40673SOL    HW123916  12.922   8.369  13.332
40673SOL    HW223917  12.949   8.325  13.190
40674SOL     OW23918  14.145  14.620  10.155
40674SOL    HW123919  14.186  14.682  10.216
40674SOL    HW223920  14.108  14.676  10.086
40675SOL     OW23921   2.299   5.347   4.753
40675SOL    HW123922   2.300   5.387   4.840
40675SOL    HW223923   2.378   5.293   4.751
40676SOL     OW23924  10.943   3.673   7.066
40676SOL    HW123925  10.939   3.727   7.144
40676SOL    HW223926  10.852   3.656   7.043
40677SOL     OW23927  10.702  11.381  11.970
40677SOL    HW123928  10.710  11.296  11.927
40677SOL    HW223929  10.656  11.436  11.906
40678SOL     OW23930  12.778   2.391   5.126
40678SOL    HW123931  12.703   2.375   5.182
40678SOL    HW223932  12.837   2.318   5.143
40679SOL     OW23933   0.454   7.319  13.990
40679SOL    HW123934   0.426   7.331  14.080
40679SOL    HW223935   0.485   7.405  13.962
40680SOL     OW23936   2.791   1.146  13.058
40680SOL    HW123937   2.802   1.238  13.030
40680SOL    HW223938   2.838   1.096  12.991
40681SOL     OW23939   4.462   6.462  11.400
40681SOL    HW123940   4.438   6.452  11.493
40681SOL    HW223941   4.406   6.534  11.369
40682SOL     OW23942   9.442   2.483   8.839
40682SOL    HW123943   9.472   2.570   8.865
40682SOL    HW223944   9.384   2.454   8.909
40683SOL     OW23945  11.807  12.337   7.892
40683SOL    HW123946  11.833  12.408   7.834
40683SOL    HW223947  11.717  12.317   7.866
40684SOL     OW23948   0.319   7.468   2.209
40684SOL    HW123949   0.286   7.557   2.221
40684SOL    HW223950   0.254   7.425   2.154
40685SOL     OW23951  12.095   4.350  14.532
40685SOL    HW123952  12.113   4.428  14.480
40685SOL    HW223953  12.012   4.317  14.499
40686SOL     OW23954   2.278   5.319   5.538
40686SOL    HW123955   2.200   5.292   5.585
40686SOL    HW223956   2.310   5.395   5.586
40687SOL     OW23957   7.448   1.276   1.613
40687SOL    HW123958   7.515   1.341   1.590
40687SOL    HW223959   7.370   1.306   1.565
40688SOL     OW23960   5.876   1.697   2.167
40688SOL    HW123961   5.956   1.663   2.127
40688SOL    HW223962   5.811   1.629   2.153
40689SOL     OW23963   7.991  11.975  10.428
40689SOL    HW123964   7.946  12.040  10.373
40689SOL    HW223965   8.014  11.904  10.368
40690SOL     OW23966   5.644   9.895  10.711
40690SOL    HW123967   5.739   9.886  10.705
40690SOL    HW223968   5.622   9.959  10.643
40691SOL     OW23969  13.315   9.820  11.057
40691SOL    HW123970  13.311   9.810  11.152
40691SOL    HW223971  13.392   9.875  11.042
40692SOL     OW23972   5.487   5.739   5.971
40692SOL    HW123973   5.576   5.743   5.936
40692SOL    HW223974   5.443   5.814   5.932
40693SOL     OW23975   9.135  11.631  13.408
40693SOL    HW123976   9.101  11.670  13.489
40693SOL    HW223977   9.060  11.627  13.349
40694SOL     OW23978   6.431  10.680   5.367
40694SOL    HW123979   6.369  10.612   5.395
40694SOL    HW223980   6.422  10.682   5.272
40695SOL     OW23981   2.944   0.585   9.115
40695SOL    HW123982   2.975   0.638   9.188
40695SOL    HW223983   2.992   0.619   9.039
40696SOL     OW23984   5.171   7.453   3.931
40696SOL    HW123985   5.130   7.440   3.846
40696SOL    HW223986   5.264   7.465   3.912
40697SOL     OW23987   0.535   2.462  10.027
40697SOL    HW123988   0.524   2.369  10.044
40697SOL    HW223989   0.589   2.494  10.099
40698SOL     OW23990  13.786  14.637   4.178
40698SOL    HW123991  13.845  14.680   4.116
40698SOL    HW223992  13.797  14.543   4.161
40699SOL     OW23993  11.168   3.459   6.960
40699SOL    HW123994  11.085   3.493   6.926
40699SOL    HW223995  11.230   3.530   6.948
40700SOL     OW23996   4.674   5.753  10.840
40700SOL    HW123997   4.768   5.767  10.829
40700SOL    HW223998   4.660   5.664  10.807
40701SOL     OW23999   1.237   9.846  13.970
40701SOL    HW124000   1.253   9.883  13.884
40701SOL    HW224001   1.266   9.755  13.963
40702SOL     OW24002   3.785   5.090   6.956
40702SOL    HW124003   3.873   5.126   6.966
40702SOL    HW224004   3.787   5.045   6.871
40703SOL     OW24005   6.655   1.910   0.361
40703SOL    HW124006   6.708   1.857   0.302
40703SOL    HW224007   6.566   1.902   0.328
40704SOL     OW24008   1.060   4.589  10.935
40704SOL    HW124009   0.983   4.588  10.878
40704SOL    HW224010   1.110   4.511  10.909
40705SOL     OW24011   4.137  13.125   0.181
40705SOL    HW124012   4.100  13.109   0.268
40705SOL    HW224013   4.084  13.071   0.122
40706SOL     OW24014   4.334  14.096  12.251
40706SOL    HW124015   4.301  14.105  12.340
40706SOL    HW224016   4.409  14.156  12.247
40707SOL     OW24017   2.945   6.969  13.244
40707SOL    HW124018   2.863   6.967  13.194
40707SOL    HW224019   2.918   6.951  13.334
40708SOL     OW24020  11.589   3.791  14.316
40708SOL    HW124021  11.665   3.751  14.357
40708SOL    HW224022  11.515   3.735  14.343
40709SOL     OW24023   0.025   8.685   7.221
40709SOL    HW124024  14.855   8.612   7.175
40709SOL    HW224025  14.827   8.724   7.273
40710SOL     OW24026   9.964   1.470   9.955
40710SOL    HW124027   9.927   1.548   9.996
40710SOL    HW224028   9.968   1.493   9.862
40711SOL     OW24029   9.528   3.553  13.688
40711SOL    HW124030   9.551   3.630  13.739
40711SOL    HW224031   9.558   3.479  13.740
40712SOL     OW24032   1.284   6.604   3.971
40712SOL    HW124033   1.364   6.656   3.960
40712SOL    HW224034   1.237   6.648   4.042
40713SOL     OW24035   3.594   7.623  13.260
40713SOL    HW124036   3.531   7.608  13.190
40713SOL    HW224037   3.559   7.700  13.307
40714SOL     OW24038   2.259  10.342   5.723
40714SOL    HW124039   2.227  10.270   5.668
40714SOL    HW224040   2.199  10.343   5.798
40715SOL     OW24041   5.456   3.999   9.242
40715SOL    HW124042   5.368   3.978   9.274
40715SOL    HW224043   5.513   3.935   9.283
40716SOL     OW24044   2.547   5.174   5.096
40716SOL    HW124045   2.527   5.080   5.104
40716SOL    HW224046   2.635   5.182   5.132
40717SOL     OW24047   1.497   5.731   4.308
40717SOL    HW124048   1.434   5.799   4.286
40717SOL    HW224049   1.571   5.779   4.347
40718SOL     OW24050  14.278   4.774   6.350
40718SOL    HW124051  14.251   4.859   6.384
40718SOL    HW224052  14.199   4.720   6.353
40719SOL     OW24053  10.770   5.566   9.731
40719SOL    HW124054  10.781   5.651   9.687
40719SOL    HW224055  10.690   5.530   9.694
40720SOL     OW24056  14.284   9.423   5.689
40720SOL    HW124057  14.341   9.388   5.621
40720SOL    HW224058  14.195   9.410   5.656
40721SOL     OW24059   5.730  14.096   0.113
40721SOL    HW124060   5.664  14.120   0.048
40721SOL    HW224061   5.683  14.039   0.174
40722SOL     OW24062   1.809   0.225  14.026
40722SOL    HW124063   1.769   0.145  13.993
40722SOL    HW224064   1.851   0.199  14.108
40723SOL     OW24065   0.755   0.864  13.006
40723SOL    HW124066   0.768   0.958  12.997
40723SOL    HW224067   0.666   0.849  12.973
40724SOL     OW24068   5.034   8.088   9.721
40724SOL    HW124069   5.028   8.179   9.691
40724SOL    HW224070   4.950   8.071   9.764
40725SOL     OW24071   6.102   1.408   9.605
40725SOL    HW124072   6.089   1.421   9.511
40725SOL    HW224073   6.035   1.344   9.630
40726SOL     OW24074   2.210  13.551  10.621
40726SOL    HW124075   2.272  13.479  10.605
40726SOL    HW224076   2.144  13.541  10.552
40727SOL     OW24077   6.000  11.671   8.871
40727SOL    HW124078   5.952  11.598   8.832
40727SOL    HW224079   6.005  11.737   8.802
40728SOL     OW24080   9.176   9.088   3.224
40728SOL    HW124081   9.151   9.176   3.255
40728SOL    HW224082   9.128   9.028   3.282
40729SOL     OW24083  12.924  14.712  12.471
40729SOL    HW124084  13.006  14.755  12.447
40729SOL    HW224085  12.880  14.696  12.388
40730SOL     OW24086   5.121   6.476   5.481
40730SOL    HW124087   5.208   6.437   5.491
40730SOL    HW224088   5.060   6.403   5.494
40731SOL     OW24089   0.848  13.711   8.337
40731SOL    HW124090   0.784  13.642   8.356
40731SOL    HW224091   0.859  13.708   8.242
40732SOL     OW24092   0.275   1.259   1.639
40732SOL    HW124093   0.292   1.203   1.563
40732SOL    HW224094   0.283   1.200   1.714
40733SOL     OW24095  14.099   9.852  10.144
40733SOL    HW124096  14.104   9.761  10.114
40733SOL    HW224097  14.012   9.859  10.184
40734SOL     OW24098   5.911   1.709  11.312
40734SOL    HW124099   5.838   1.655  11.343
40734SOL    HW224100   5.989   1.657  11.330
40735SOL     OW24101   8.943   7.935  10.925
40735SOL    HW124102   8.971   7.883  11.001
40735SOL    HW224103   8.907   7.871  10.864
40736SOL     OW24104   3.039   2.952  10.709
40736SOL    HW124105   3.049   2.933  10.802
40736SOL    HW224106   3.112   2.907  10.667
40737SOL     OW24107  11.391   1.847   1.991
40737SOL    HW124108  11.362   1.836   2.081
40737SOL    HW224109  11.318   1.814   1.938
40738SOL     OW24110   3.341   9.134   8.045
40738SOL    HW124111   3.294   9.115   8.126
40738SOL    HW224112   3.393   9.056   8.028
40739SOL     OW24113  10.038   6.827   2.359
40739SOL    HW124114   9.993   6.840   2.275
40739SOL    HW224115  10.125   6.793   2.335
40740SOL     OW24116   2.825  14.259   6.581
40740SOL    HW124117   2.741  14.213   6.585
40740SOL    HW224118   2.865  14.244   6.666
40741SOL     OW24119   4.865   7.697   5.409
40741SOL    HW124120   4.951   7.731   5.386
40741SOL    HW224121   4.827   7.669   5.326
40742SOL     OW24122   0.678   1.814  11.358
40742SOL    HW124123   0.721   1.872  11.295
40742SOL    HW224124   0.692   1.726  11.323
40743SOL     OW24125   6.972   7.048   5.345
40743SOL    HW124126   6.891   7.099   5.340
40743SOL    HW224127   7.041   7.114   5.352
40744SOL     OW24128  13.395   2.288   6.495
40744SOL    HW124129  13.473   2.261   6.543
40744SOL    HW224130  13.322   2.263   6.552
40745SOL     OW24131   9.128   6.184   5.327
40745SOL    HW124132   9.062   6.250   5.307
40745SOL    HW224133   9.078   6.110   5.361
40746SOL     OW24134  12.726  11.725   2.552
40746SOL    HW124135  12.781  11.785   2.602
40746SOL    HW224136  12.639  11.736   2.590
40747SOL     OW24137   5.344   5.780   3.874
40747SOL    HW124138   5.426   5.826   3.860
40747SOL    HW224139   5.332   5.780   3.969
40748SOL     OW24140   7.076  12.574   8.258
40748SOL    HW124141   7.009  12.632   8.223
40748SOL    HW224142   7.142  12.569   8.189
40749SOL     OW24143  13.353   7.640   7.917
40749SOL    HW124144  13.415   7.713   7.908
40749SOL    HW224145  13.398   7.577   7.974
40750SOL     OW24146  12.533   1.877  10.250
40750SOL    HW124147  12.567   1.947  10.195
40750SOL    HW224148  12.482   1.923  10.318
40751SOL     OW24149  13.654   4.729  10.845
40751SOL    HW124150  13.714   4.747  10.773
40751SOL    HW224151  13.567   4.744  10.808
40752SOL     OW24152   6.700   2.620   8.208
40752SOL    HW124153   6.610   2.589   8.209
40752SOL    HW224154   6.717   2.643   8.116
40753SOL     OW24155  14.658   1.582   6.487
40753SOL    HW124156  14.678   1.519   6.417
40753SOL    HW224157  14.564   1.572   6.501
40754SOL     OW24158   4.006  11.881   9.566
40754SOL    HW124159   3.964  11.858   9.483
40754SOL    HW224160   4.094  11.910   9.540
40755SOL     OW24161  11.897   7.241   9.525
40755SOL    HW124162  11.932   7.315   9.574
40755SOL    HW224163  11.876   7.175   9.591
40756SOL     OW24164   4.626   1.971  14.080
40756SOL    HW124165   4.664   1.883  14.076
40756SOL    HW224166   4.694   2.025  14.120
40757SOL     OW24167  12.596  12.636   2.942
40757SOL    HW124168  12.551  12.661   3.023
40757SOL    HW224169  12.688  12.628   2.968
40758SOL     OW24170   5.335   9.653   8.737
40758SOL    HW124171   5.320   9.564   8.705
40758SOL    HW224172   5.270   9.706   8.692
40759SOL     OW24173   3.882   5.390   9.355
40759SOL    HW124174   3.925   5.341   9.425
40759SOL    HW224175   3.813   5.440   9.398
40760SOL     OW24176  12.221   3.946   9.086
40760SOL    HW124177  12.137   3.993   9.089
40760SOL    HW224178  12.258   3.970   9.001
40761SOL     OW24179  13.461   0.187   6.885
40761SOL    HW124180  13.467   0.206   6.978
40761SOL    HW224181  13.545   0.215   6.849
40762SOL     OW24182   9.040   7.490  14.233
40762SOL    HW124183   9.045   7.473  14.327
40762SOL    HW224184   9.022   7.404  14.194
40763SOL     OW24185   9.216  13.311   0.861
40763SOL    HW124186   9.174  13.273   0.938
40763SOL    HW224187   9.309  13.314   0.883
40764SOL     OW24188   6.583   2.694   8.923
40764SOL    HW124189   6.619   2.611   8.954
40764SOL    HW224190   6.650   2.759   8.946
40765SOL     OW24191  11.490   9.503  10.631
40765SOL    HW124192  11.411   9.523  10.581
40765SOL    HW224193  11.465   9.514  10.723
40766SOL     OW24194   4.896  14.482   0.475
40766SOL    HW124195   4.811  14.505   0.438
40766SOL    HW224196   4.893  14.515   0.565
40767SOL     OW24197  10.125   8.919  13.726
40767SOL    HW124198  10.136   8.856  13.655
40767SOL    HW224199  10.030   8.930  13.734
40768SOL     OW24200   9.628  10.960  12.010
40768SOL    HW124201   9.722  10.965  12.027
40768SOL    HW224202   9.619  10.977  11.916
40769SOL     OW24203  13.431  10.832   5.260
40769SOL    HW124204  13.380  10.912   5.245
40769SOL    HW224205  13.475  10.847   5.344
40770SOL     OW24206   5.068   1.470   9.508
40770SOL    HW124207   4.972   1.463   9.514
40770SOL    HW224208   5.093   1.401   9.448
40771SOL     OW24209  11.952   7.643   3.592
40771SOL    HW124210  11.897   7.591   3.534
40771SOL    HW224211  11.892   7.678   3.658
40772SOL     OW24212   4.779   9.328   1.409
40772SOL    HW124213   4.736   9.396   1.358
40772SOL    HW224214   4.839   9.286   1.346
40773SOL     OW24215   9.405  11.049  10.023
40773SOL    HW124216   9.382  11.126  10.074
40773SOL    HW224217   9.322  11.018   9.987
40774SOL     OW24218   0.433   0.413   1.496
40774SOL    HW124219   0.466   0.502   1.480
40774SOL    HW224220   0.458   0.395   1.587
40775SOL     OW24221   2.699   0.783   7.680
40775SOL    HW124222   2.721   0.867   7.720
40775SOL    HW224223   2.779   0.731   7.686
40776SOL     OW24224   9.512   5.460   7.198
40776SOL    HW124225   9.487   5.506   7.118
40776SOL    HW224226   9.607   5.471   7.203
40777SOL     OW24227  13.058   5.006   6.010
40777SOL    HW124228  13.024   4.931   5.962
40777SOL    HW224229  13.103   5.059   5.943
40778SOL     OW24230   4.096   1.637   0.111
40778SOL    HW124231   4.069   1.724   0.085
40778SOL    HW224232   4.101   1.641   0.207
40779SOL     OW24233   7.378   0.919   3.654
40779SOL    HW124234   7.337   0.978   3.719
40779SOL    HW224235   7.377   0.970   3.573
40780SOL     OW24236   8.268   1.770   7.804
40780SOL    HW124237   8.332   1.700   7.787
40780SOL    HW224238   8.266   1.778   7.899
40781SOL     OW24239  13.200   8.568   3.704
40781SOL    HW124240  13.279   8.515   3.702
40781SOL    HW224241  13.129   8.506   3.690
40782SOL     OW24242   8.975   5.983   4.444
40782SOL    HW124243   9.003   6.000   4.534
40782SOL    HW224244   8.983   6.068   4.400
40783SOL     OW24245  12.177   5.927   6.550
40783SOL    HW124246  12.107   5.903   6.611
40783SOL    HW224247  12.172   6.023   6.544
40784SOL     OW24248   1.011  14.284   3.171
40784SOL    HW124249   0.956  14.206   3.177
40784SOL    HW224250   1.053  14.290   3.257
40785SOL     OW24251   8.045  10.897   4.781
40785SOL    HW124252   8.085  10.957   4.845
40785SOL    HW224253   8.092  10.815   4.793
40786SOL     OW24254   3.371   4.525   6.465
40786SOL    HW124255   3.388   4.467   6.539
40786SOL    HW224256   3.276   4.523   6.454
40787SOL     OW24257   1.392  11.460  10.279
40787SOL    HW124258   1.486  11.442  10.286
40787SOL    HW224259   1.387  11.544  10.236
40788SOL     OW24260   4.020  11.262   4.473
40788SOL    HW124261   3.987  11.336   4.525
40788SOL    HW224262   4.023  11.295   4.384
40789SOL     OW24263   9.343   8.340   6.496
40789SOL    HW124264   9.436   8.362   6.505
40789SOL    HW224265   9.323   8.360   6.404
40790SOL     OW24266   1.217   6.702   7.122
40790SOL    HW124267   1.265   6.712   7.040
40790SOL    HW224268   1.208   6.791   7.156
40791SOL     OW24269  13.583   0.752   5.435
40791SOL    HW124270  13.571   0.682   5.371
40791SOL    HW224271  13.513   0.736   5.500
40792SOL     OW24272   0.824   7.869  10.231
40792SOL    HW124273   0.751   7.917  10.191
40792SOL    HW224274   0.844   7.800  10.168
40793SOL     OW24275  13.645  14.248   5.991
40793SOL    HW124276  13.641  14.343   5.983
40793SOL    HW224277  13.657  14.232   6.085
40794SOL     OW24278  10.753  12.368  10.706
40794SOL    HW124279  10.793  12.343  10.623
40794SOL    HW224280  10.824  12.361  10.770
40795SOL     OW24281   2.912   7.771   4.431
40795SOL    HW124282   2.891   7.859   4.400
40795SOL    HW224283   3.002   7.778   4.463
40796SOL     OW24284  14.790   5.537   5.130
40796SOL    HW124285  14.713   5.551   5.187
40796SOL    HW224286  14.843   5.474   5.178
40797SOL     OW24287   6.687   8.435  12.196
40797SOL    HW124288   6.755   8.449  12.262
40797SOL    HW224289   6.606   8.427  12.247
40798SOL     OW24290  12.452  14.866   0.033
40798SOL    HW124291  12.508   0.025   0.104
40798SOL    HW224292  12.488  14.780   0.010
40799SOL     OW24293   7.591  14.168  10.501
40799SOL    HW124294   7.674  14.123  10.520
40799SOL    HW224295   7.564  14.133  10.416
40800SOL     OW24296   1.834   8.755   4.785
40800SOL    HW124297   1.906   8.804   4.825
40800SOL    HW224298   1.785   8.719   4.859
40801SOL     OW24299  10.686   0.974   6.326
40801SOL    HW124300  10.636   0.897   6.351
40801SOL    HW224301  10.770   0.964   6.372
40802SOL     OW24302   3.251   9.766  13.010
40802SOL    HW124303   3.224   9.788  13.099
40802SOL    HW224304   3.299   9.683  13.020
40803SOL     OW24305  13.473  11.425   2.132
40803SOL    HW124306  13.445  11.335   2.113
40803SOL    HW224307  13.429  11.478   2.065
40804SOL     OW24308   6.041   0.057  14.015
40804SOL    HW124309   6.034   0.002  14.093
40804SOL    HW224310   6.057   0.145  14.049
40805SOL     OW24311   5.360   2.526   0.612
40805SOL    HW124312   5.443   2.569   0.635
40805SOL    HW224313   5.385   2.435   0.595
40806SOL     OW24314   0.017  11.970   2.641
40806SOL    HW124315   0.009  11.907   2.569
40806SOL    HW224316   0.011  12.056   2.598
40807SOL     OW24317  14.849   7.830  11.558
40807SOL    HW124318  14.783   7.893  11.529
40807SOL    HW224319  14.868   7.777  11.481
40808SOL     OW24320   5.753   7.243  12.247
40808SOL    HW124321   5.778   7.330  12.215
40808SOL    HW224322   5.667   7.257  12.288
40809SOL     OW24323  13.485   6.836  12.989
40809SOL    HW124324  13.572   6.796  12.981
40809SOL    HW224325  13.452   6.839  12.899
40810SOL     OW24326   7.392  13.521   2.877
40810SOL    HW124327   7.409  13.565   2.960
40810SOL    HW224328   7.446  13.567   2.813
40811SOL     OW24329  11.058   1.578   1.713
40811SOL    HW124330  10.974   1.564   1.669
40811SOL    HW224331  11.117   1.605   1.642
40812SOL     OW24332   4.272   5.804   4.159
40812SOL    HW124333   4.289   5.828   4.250
40812SOL    HW224334   4.180   5.824   4.145
40813SOL     OW24335  11.030   2.739  14.803
40813SOL    HW124336  10.973   2.663  14.814
40813SOL    HW224337  10.971   2.811  14.782
40814SOL     OW24338  10.873   7.855   7.422
40814SOL    HW124339  10.888   7.922   7.355
40814SOL    HW224340  10.824   7.786   7.377
40815SOL     OW24341   1.628   2.101   6.942
40815SOL    HW124342   1.715   2.073   6.971
40815SOL    HW224343   1.576   2.104   7.022
40816SOL     OW24344   0.894  13.793  14.683
40816SOL    HW124345   0.891  13.710  14.731
40816SOL    HW224346   0.987  13.810  14.670
40817SOL     OW24347   8.950  10.942   1.538
40817SOL    HW124348   8.894  11.000   1.486
40817SOL    HW224349   8.944  10.978   1.627
40818SOL     OW24350   2.849  11.719   8.071
40818SOL    HW124351   2.834  11.764   8.155
40818SOL    HW224352   2.917  11.655   8.090
40819SOL     OW24353   2.869   7.094  10.807
40819SOL    HW124354   2.934   7.164  10.817
40819SOL    HW224355   2.817   7.097  10.888
40820SOL     OW24356  14.563   3.610   1.053
40820SOL    HW124357  14.617   3.599   1.132
40820SOL    HW224358  14.626   3.635   0.985
40821SOL     OW24359   5.978  10.842   1.887
40821SOL    HW124360   5.886  10.833   1.913
40821SOL    HW224361   5.976  10.887   1.803
40822SOL     OW24362  11.763   4.247  12.188
40822SOL    HW124363  11.738   4.312  12.253
40822SOL    HW224364  11.833   4.196  12.230
40823SOL     OW24365   3.691  11.008   2.331
40823SOL    HW124366   3.771  10.961   2.309
40823SOL    HW224367   3.622  10.963   2.283
40824SOL     OW24368   6.818  11.901  14.739
40824SOL    HW124369   6.781  11.831  14.793
40824SOL    HW224370   6.777  11.981  14.772
40825SOL     OW24371   7.075   6.053   8.420
40825SOL    HW124372   7.106   5.992   8.353
40825SOL    HW224373   7.060   6.135   8.372
40826SOL     OW24374   9.796  12.352   0.712
40826SOL    HW124375   9.882  12.312   0.724
40826SOL    HW224376   9.749  12.290   0.657
40827SOL     OW24377   2.680   1.201  10.413
40827SOL    HW124378   2.765   1.224  10.375
40827SOL    HW224379   2.617   1.223  10.345
40828SOL     OW24380  11.175  12.552   9.830
40828SOL    HW124381  11.180  12.587   9.920
40828SOL    HW224382  11.098  12.495   9.831
40829SOL     OW24383   7.214   7.528   3.924
40829SOL    HW124384   7.146   7.584   3.888
40829SOL    HW224385   7.249   7.481   3.849
40830SOL     OW24386  10.605   6.677  10.414
40830SOL    HW124387  10.575   6.741  10.349
40830SOL    HW224388  10.562   6.703  10.495
40831SOL     OW24389  10.299   8.121   2.266
40831SOL    HW124390  10.315   8.206   2.308
40831SOL    HW224391  10.255   8.143   2.184
40832SOL     OW24392   4.794   7.234   3.801
40832SOL    HW124393   4.763   7.183   3.876
40832SOL    HW224394   4.806   7.168   3.732
40833SOL     OW24395   6.158   4.485   9.803
40833SOL    HW124396   6.079   4.506   9.753
40833SOL    HW224397   6.154   4.390   9.816
40834SOL     OW24398  10.113  10.665   6.362
40834SOL    HW124399  10.100  10.642   6.270
40834SOL    HW224400  10.120  10.580   6.407
40835SOL     OW24401   5.690   5.529   2.933
40835SOL    HW124402   5.739   5.536   3.015
40835SOL    HW224403   5.602   5.503   2.960
40836SOL     OW24404  11.762   0.950   2.359
40836SOL    HW124405  11.822   1.016   2.394
40836SOL    HW224406  11.755   0.971   2.266
40837SOL     OW24407   5.370   8.107   0.383
40837SOL    HW124408   5.289   8.065   0.353
40837SOL    HW224409   5.419   8.124   0.303
40838SOL     OW24410   2.692   0.289   2.393
40838SOL    HW124411   2.612   0.277   2.341
40838SOL    HW224412   2.743   0.353   2.343
40839SOL     OW24413   7.785   5.169   6.633
40839SOL    HW124414   7.813   5.189   6.722
40839SOL    HW224415   7.695   5.137   6.642
40840SOL     OW24416   5.360  12.058   5.600
40840SOL    HW124417   5.370  11.970   5.636
40840SOL    HW224418   5.435  12.106   5.634
40841SOL     OW24419   6.276  11.767   8.913
40841SOL    HW124420   6.248  11.676   8.924
40841SOL    HW224421   6.296  11.774   8.820
40842SOL     OW24422  13.767   1.169  13.991
40842SOL    HW124423  13.830   1.148  14.061
40842SOL    HW224424  13.752   1.263  14.001
40843SOL     OW24425  11.299   5.382   2.057
40843SOL    HW124426  11.277   5.373   2.150
40843SOL    HW224427  11.394   5.374   2.054
40844SOL     OW24428   1.274  12.249  11.308
40844SOL    HW124429   1.348  12.281  11.257
40844SOL    HW224430   1.263  12.313  11.378
40845SOL     OW24431  11.974   3.996   8.200
40845SOL    HW124432  11.955   4.054   8.127
40845SOL    HW224433  11.920   4.029   8.272
40846SOL     OW24434  12.016  10.279  11.425
40846SOL    HW124435  11.944  10.297  11.485
40846SOL    HW224436  12.058  10.200  11.460
40847SOL     OW24437   8.679  12.887  13.177
40847SOL    HW124438   8.721  12.973  13.175
40847SOL    HW224439   8.751  12.826  13.192
40848SOL     OW24440  14.483  12.212  14.094
40848SOL    HW124441  14.544  12.266  14.045
40848SOL    HW224442  14.398  12.230  14.055
40849SOL     OW24443   5.722  14.082   6.124
40849SOL    HW124444   5.648  14.140   6.140
40849SOL    HW224445   5.684  13.994   6.128
40850SOL     OW24446  14.112  13.825   4.708
40850SOL    HW124447  14.138  13.752   4.653
40850SOL    HW224448  14.194  13.859   4.745
40851SOL     OW24449   2.296  14.766   0.836
40851SOL    HW124450   2.304  14.674   0.811
40851SOL    HW224451   2.295  14.765   0.932
40852SOL     OW24452   8.458  12.606   5.661
40852SOL    HW124453   8.509  12.685   5.674
40852SOL    HW224454   8.397  12.604   5.735
40853SOL     OW24455   4.221  11.030   5.365
40853SOL    HW124456   4.312  11.012   5.341
40853SOL    HW224457   4.226  11.110   5.417
40854SOL     OW24458   4.450  14.515  10.134
40854SOL    HW124459   4.503  14.595  10.128
40854SOL    HW224460   4.371  14.534  10.084
40855SOL     OW24461   5.087   5.173   6.633
40855SOL    HW124462   5.176   5.157   6.601
40855SOL    HW224463   5.041   5.091   6.617
40856SOL     OW24464   0.545   8.082   3.026
40856SOL    HW124465   0.509   8.007   3.073
40856SOL    HW224466   0.640   8.069   3.027
40857SOL     OW24467  10.397   0.236   8.884
40857SOL    HW124468  10.374   0.303   8.949
40857SOL    HW224469  10.360   0.268   8.802
40858SOL     OW24470  14.809  14.678  10.237
40858SOL    HW124471  14.790  14.663  10.330
40858SOL    HW224472   0.033  14.679  10.232
40859SOL     OW24473  12.662   4.946  10.101
40859SOL    HW124474  12.650   5.018  10.040
40859SOL    HW224475  12.620   4.974  10.182
40860SOL     OW24476   5.255   0.599   1.560
40860SOL    HW124477   5.343   0.567   1.580
40860SOL    HW224478   5.243   0.674   1.618
40861SOL     OW24479   5.566   9.315   7.791
40861SOL    HW124480   5.516   9.307   7.872
40861SOL    HW224481   5.499   9.321   7.722
40862SOL     OW24482   4.104  10.769   1.247
40862SOL    HW124483   4.028  10.721   1.212
40862SOL    HW224484   4.132  10.718   1.323
40863SOL     OW24485  10.048   7.801  13.363
40863SOL    HW124486  10.096   7.883  13.373
40863SOL    HW224487  10.032   7.772  13.453
40864SOL     OW24488  10.732   7.600  10.162
40864SOL    HW124489  10.737   7.682  10.212
40864SOL    HW224490  10.823   7.573  10.152
40865SOL     OW24491   2.430   9.258  10.288
40865SOL    HW124492   2.523   9.264  10.265
40865SOL    HW224493   2.398   9.182  10.239
40866SOL     OW24494   9.112   3.196   8.515
40866SOL    HW124495   9.179   3.177   8.580
40866SOL    HW224496   9.149   3.266   8.461
40867SOL     OW24497  14.523   2.014   1.495
40867SOL    HW124498  14.487   1.925   1.492
40867SOL    HW224499  14.615   2.003   1.519
40868SOL     OW24500  14.376  14.721   6.994
40868SOL    HW124501  14.339  14.807   6.971
40868SOL    HW224502  14.355  14.709   7.086
40869SOL     OW24503   1.170   2.411   1.908
40869SOL    HW124504   1.237   2.345   1.894
40869SOL    HW224505   1.098   2.364   1.950
40870SOL     OW24506   1.370  11.180  11.601
40870SOL    HW124507   1.464  11.189  11.615
40870SOL    HW224508   1.338  11.137  11.680
40871SOL     OW24509  12.831  10.709  13.417
40871SOL    HW124510  12.864  10.658  13.343
40871SOL    HW224511  12.875  10.673  13.493
40872SOL     OW24512  13.294   2.697   9.438
40872SOL    HW124513  13.203   2.724   9.448
40872SOL    HW224514  13.290   2.616   9.387
40873SOL     OW24515   8.841   7.250   9.191
40873SOL    HW124516   8.879   7.240   9.104
40873SOL    HW224517   8.842   7.162   9.228
40874SOL     OW24518   8.712  12.676   7.584
40874SOL    HW124519   8.805  12.675   7.605
40874SOL    HW224520   8.668  12.697   7.666
40875SOL     OW24521   8.729   8.820   1.244
40875SOL    HW124522   8.808   8.765   1.248
40875SOL    HW224523   8.718   8.852   1.334
40876SOL     OW24524   2.238   3.707   0.981
40876SOL    HW124525   2.254   3.660   0.899
40876SOL    HW224526   2.235   3.799   0.955
40877SOL     OW24527   5.587   8.024   9.789
40877SOL    HW124528   5.527   8.094   9.765
40877SOL    HW224529   5.664   8.070   9.823
40878SOL     OW24530  11.272  11.428   9.645
40878SOL    HW124531  11.351  11.461   9.601
40878SOL    HW224532  11.243  11.502   9.699
40879SOL     OW24533   2.957   2.201   8.780
40879SOL    HW124534   2.950   2.240   8.693
40879SOL    HW224535   3.012   2.123   8.767
40880SOL     OW24536  12.756  11.400   6.975
40880SOL    HW124537  12.787  11.318   6.936
40880SOL    HW224538  12.683  11.428   6.919
40881SOL     OW24539   7.556   5.948   8.628
40881SOL    HW124540   7.474   5.905   8.603
40881SOL    HW224541   7.623   5.880   8.619
40882SOL     OW24542  11.167  13.660  12.903
40882SOL    HW124543  11.183  13.734  12.844
40882SOL    HW224544  11.254  13.623  12.919
40883SOL     OW24545   9.546   1.533   2.436
40883SOL    HW124546   9.523   1.623   2.413
40883SOL    HW224547   9.540   1.486   2.353
40884SOL     OW24548   3.039   3.623   6.175
40884SOL    HW124549   3.107   3.603   6.111
40884SOL    HW224550   2.991   3.696   6.136
40885SOL     OW24551  11.613   4.293   3.766
40885SOL    HW124552  11.694   4.337   3.793
40885SOL    HW224553  11.573   4.354   3.704
40886SOL     OW24554   7.821   5.289   1.114
40886SOL    HW124555   7.835   5.338   1.195
40886SOL    HW224556   7.846   5.199   1.136
40887SOL     OW24557   2.814  12.360   5.598
40887SOL    HW124558   2.801  12.270   5.628
40887SOL    HW224559   2.731  12.404   5.619
40888SOL     OW24560   6.633   2.875  14.062
40888SOL    HW124561   6.578   2.922  14.125
40888SOL    HW224562   6.643   2.787  14.098
40889SOL     OW24563  11.559   0.282   2.895
40889SOL    HW124564  11.594   0.226   2.826
40889SOL    HW224565  11.501   0.342   2.848
40890SOL     OW24566   2.885   7.774   9.093
40890SOL    HW124567   2.901   7.773   8.999
40890SOL    HW224568   2.960   7.729   9.131
40891SOL     OW24569  13.701   8.817   2.232
40891SOL    HW124570  13.780   8.843   2.185
40891SOL    HW224571  13.675   8.895   2.281
40892SOL     OW24572   8.870   7.261   0.305
40892SOL    HW124573   8.798   7.214   0.347
40892SOL    HW224574   8.827   7.316   0.239
40893SOL     OW24575   1.227   3.558   4.977
40893SOL    HW124576   1.181   3.477   4.955
40893SOL    HW224577   1.157   3.620   4.996
40894SOL     OW24578   7.039   3.612   2.949
40894SOL    HW124579   6.983   3.617   3.027
40894SOL    HW224580   6.980   3.632   2.876
40895SOL     OW24581  12.438  11.565   3.885
40895SOL    HW124582  12.447  11.485   3.833
40895SOL    HW224583  12.345  11.589   3.877
40896SOL     OW24584  10.414  11.882   6.618
40896SOL    HW124585  10.344  11.927   6.664
40896SOL    HW224586  10.397  11.899   6.525
40897SOL     OW24587   6.050   8.350  13.260
40897SOL    HW124588   6.078   8.258  13.264
40897SOL    HW224589   6.041   8.376  13.352
40898SOL     OW24590  14.166   8.540   5.457
40898SOL    HW124591  14.130   8.464   5.412
40898SOL    HW224592  14.220   8.585   5.391
40899SOL     OW24593   7.890   4.614  13.432
40899SOL    HW124594   7.908   4.643  13.522
40899SOL    HW224595   7.802   4.648  13.414
40900SOL     OW24596  11.326  10.806   6.967
40900SOL    HW124597  11.407  10.799   6.918
40900SOL    HW224598  11.335  10.743   7.038
40901SOL     OW24599   3.388   6.630   8.558
40901SOL    HW124600   3.431   6.547   8.577
40901SOL    HW224601   3.445   6.696   8.597
40902SOL     OW24602   7.260   3.426   4.784
40902SOL    HW124603   7.304   3.422   4.699
40902SOL    HW224604   7.168   3.416   4.763
40903SOL     OW24605   2.986   0.210   4.622
40903SOL    HW124606   3.037   0.210   4.541
40903SOL    HW224607   2.897   0.189   4.595
40904SOL     OW24608   3.046   4.141   7.588
40904SOL    HW124609   2.976   4.192   7.548
40904SOL    HW224610   3.021   4.132   7.680
40905SOL     OW24611   8.299   8.348   2.416
40905SOL    HW124612   8.237   8.276   2.420
40905SOL    HW224613   8.377   8.316   2.462
40906SOL     OW24614   9.025  12.587  11.971
40906SOL    HW124615   8.966  12.533  11.919
40906SOL    HW224616   9.014  12.675  11.936
40907SOL     OW24617   5.161  12.026   0.038
40907SOL    HW124618   5.156  11.930   0.032
40907SOL    HW224619   5.118  12.057  14.830
40908SOL     OW24620  11.383  13.127   4.901
40908SOL    HW124621  11.398  13.055   4.962
40908SOL    HW224622  11.457  13.186   4.914
40909SOL     OW24623   7.214   9.016   8.272
40909SOL    HW124624   7.169   9.048   8.351
40909SOL    HW224625   7.196   9.083   8.206
40910SOL     OW24626   2.613   1.673   6.578
40910SOL    HW124627   2.663   1.659   6.658
40910SOL    HW224628   2.559   1.750   6.596
40911SOL     OW24629   9.927   6.181   0.348
40911SOL    HW124630   9.947   6.269   0.379
40911SOL    HW224631   9.930   6.127   0.427
40912SOL     OW24632  12.946  13.868   4.692
40912SOL    HW124633  12.973  13.817   4.768
40912SOL    HW224634  12.935  13.804   4.622
40913SOL     OW24635   9.300  11.639   8.285
40913SOL    HW124636   9.351  11.558   8.285
40913SOL    HW224637   9.263  11.644   8.197
40914SOL     OW24638   6.903  10.138   1.569
40914SOL    HW124639   6.982  10.188   1.547
40914SOL    HW224640   6.931  10.079   1.639
40915SOL     OW24641  10.068   0.182   9.826
40915SOL    HW124642   9.983   0.177   9.781
40915SOL    HW224643  10.106   0.095   9.812
40916SOL     OW24644  14.405   7.383  14.470
40916SOL    HW124645  14.321   7.377  14.423
40916SOL    HW224646  14.471   7.382  14.401
40917SOL     OW24647  13.035   2.341   2.561
40917SOL    HW124648  12.940   2.352   2.563
40917SOL    HW224649  13.053   2.276   2.628
40918SOL     OW24650   3.790  11.159   8.143
40918SOL    HW124651   3.862  11.184   8.200
40918SOL    HW224652   3.808  11.205   8.061
40919SOL     OW24653   3.120   1.323   9.788
40919SOL    HW124654   3.047   1.298   9.731
40919SOL    HW224655   3.198   1.307   9.736
40920SOL     OW24656   6.456  13.878   6.291
40920SOL    HW124657   6.430  13.787   6.299
40920SOL    HW224658   6.530  13.877   6.230
40921SOL     OW24659  12.887  10.492   6.356
40921SOL    HW124660  12.964  10.484   6.299
40921SOL    HW224661  12.813  10.495   6.296
40922SOL     OW24662   0.263   2.062   6.045
40922SOL    HW124663   0.209   1.997   6.090
40922SOL    HW224664   0.350   2.053   6.085
40923SOL     OW24665   2.230   7.048  14.719
40923SOL    HW124666   2.147   7.096  14.729
40923SOL    HW224667   2.209   6.975  14.661
40924SOL     OW24668  13.235   8.221  13.212
40924SOL    HW124669  13.256   8.132  13.240
40924SOL    HW224670  13.197   8.263  13.290
40925SOL     OW24671   8.366   3.820   6.984
40925SOL    HW124672   8.452   3.793   6.952
40925SOL    HW224673   8.310   3.821   6.906
40926SOL     OW24674  14.304  14.827   9.875
40926SOL    HW124675  14.328  14.845   9.965
40926SOL    HW224676  14.301   0.041   9.833
40927SOL     OW24677   6.640   1.692   9.288
40927SOL    HW124678   6.687   1.642   9.354
40927SOL    HW224679   6.581   1.629   9.247
40928SOL     OW24680   0.624   3.275  14.118
40928SOL    HW124681   0.538   3.242  14.145
40928SOL    HW224682   0.658   3.207  14.059
40929SOL     OW24683   8.746   7.538   8.183
40929SOL    HW124684   8.786   7.625   8.186
40929SOL    HW224685   8.742   7.511   8.275
40930SOL     OW24686  12.021  10.936   5.467
40930SOL    HW124687  12.108  10.973   5.479
40930SOL    HW224688  12.011  10.873   5.539
40931SOL     OW24689   8.822  10.496   9.096
40931SOL    HW124690   8.893  10.561   9.094
40931SOL    HW224691   8.799  10.483   9.004
40932SOL     OW24692   6.898   9.547   7.607
40932SOL    HW124693   6.882   9.565   7.699
40932SOL    HW224694   6.942   9.462   7.606
40933SOL     OW24695  12.819   4.526   5.753
40933SOL    HW124696  12.799   4.598   5.694
40933SOL    HW224697  12.820   4.448   5.698
40934SOL     OW24698   6.536   9.401  14.846
40934SOL    HW124699   6.509   9.320   0.016
40934SOL    HW224700   6.534   9.382  14.752
40935SOL     OW24701   0.686   6.828  14.466
40935SOL    HW124702   0.594   6.847  14.446
40935SOL    HW224703   0.687   6.735  14.486
40936SOL     OW24704   7.221   7.504   5.235
40936SOL    HW124705   7.209   7.537   5.146
40936SOL    HW224706   7.314   7.481   5.240
40937SOL     OW24707   5.505  13.580   3.025
40937SOL    HW124708   5.496  13.651   2.962
40937SOL    HW224709   5.594  13.547   3.011
40938SOL     OW24710   9.140   2.585   3.021
40938SOL    HW124711   9.111   2.669   3.056
40938SOL    HW224712   9.218   2.563   3.072
40939SOL     OW24713   3.186   2.385  14.109
40939SOL    HW124714   3.202   2.431  14.027
40939SOL    HW224715   3.189   2.453  14.177
40940SOL     OW24716  10.732   6.670  13.870
40940SOL    HW124717  10.730   6.724  13.949
40940SOL    HW224718  10.801   6.606  13.887
40941SOL     OW24719   3.744  12.359  14.054
40941SOL    HW124720   3.662  12.320  14.024
40941SOL    HW224721   3.809  12.327  13.992
40942SOL     OW24722  11.546  12.460   6.555
40942SOL    HW124723  11.543  12.550   6.521
40942SOL    HW224724  11.606  12.414   6.496
40943SOL     OW24725   7.568   3.766   0.689
40943SOL    HW124726   7.658   3.746   0.663
40943SOL    HW224727   7.524   3.787   0.606
40944SOL     OW24728   0.693   7.289   6.000
40944SOL    HW124729   0.769   7.346   6.005
40944SOL    HW224730   0.646   7.319   5.922
40945SOL     OW24731  11.159   1.706   3.559
40945SOL    HW124732  11.248   1.699   3.594
40945SOL    HW224733  11.104   1.668   3.628
40946SOL     OW24734   4.915  11.928   6.667
40946SOL    HW124735   4.864  11.943   6.588
40946SOL    HW224736   4.927  12.016   6.705
40947SOL     OW24737  14.701  14.316   1.624
40947SOL    HW124738  14.737  14.405   1.624
40947SOL    HW224739  14.777  14.260   1.640
40948SOL     OW24740  10.704   8.972  12.676
40948SOL    HW124741  10.762   8.988  12.601
40948SOL    HW224742  10.630   8.924  12.639
40949SOL     OW24743   5.942   1.741   5.139
40949SOL    HW124744   5.928   1.649   5.160
40949SOL    HW224745   5.856   1.773   5.113
40950SOL     OW24746   6.630   1.649   5.518
40950SOL    HW124747   6.663   1.634   5.430
40950SOL    HW224748   6.641   1.743   5.533
40951SOL     OW24749  10.401  11.178   6.547
40951SOL    HW124750  10.333  11.135   6.496
40951SOL    HW224751  10.376  11.271   6.547
40952SOL     OW24752   3.388  12.709  13.783
40952SOL    HW124753   3.452  12.639  13.771
40952SOL    HW224754   3.438  12.789  13.772
40953SOL     OW24755  11.769   5.632   8.496
40953SOL    HW124756  11.807   5.710   8.538
40953SOL    HW224757  11.680   5.659   8.472
40954SOL     OW24758   3.193   8.885  14.430
40954SOL    HW124759   3.140   8.805  14.434
40954SOL    HW224760   3.225   8.897  14.520
40955SOL     OW24761  13.590   7.303   7.047
40955SOL    HW124762  13.609   7.340   6.961
40955SOL    HW224763  13.570   7.379   7.102
40956SOL     OW24764   0.434   8.686   5.051
40956SOL    HW124765   0.371   8.686   5.124
40956SOL    HW224766   0.487   8.608   5.067
40957SOL     OW24767   1.315   8.984  12.590
40957SOL    HW124768   1.256   9.055  12.618
40957SOL    HW224769   1.402   9.022  12.597
40958SOL     OW24770  10.098   0.291   3.931
40958SOL    HW124771  10.172   0.238   3.961
40958SOL    HW224772  10.134   0.345   3.861
40959SOL     OW24773  11.441   0.897  13.424
40959SOL    HW124774  11.449   0.958  13.351
40959SOL    HW224775  11.365   0.843  13.401
40960SOL     OW24776   6.127  13.114   8.632
40960SOL    HW124777   6.156  13.103   8.722
40960SOL    HW224778   6.207  13.133   8.583
40961SOL     OW24779   1.472  10.426   1.665
40961SOL    HW124780   1.531  10.458   1.733
40961SOL    HW224781   1.530  10.383   1.602
40962SOL     OW24782   7.656  14.129   3.592
40962SOL    HW124783   7.667  14.051   3.538
40962SOL    HW224784   7.618  14.194   3.533
40963SOL     OW24785  10.110  12.469   4.617
40963SOL    HW124786  10.137  12.397   4.674
40963SOL    HW224787  10.018  12.453   4.599
40964SOL     OW24788  13.594  11.443  13.520
40964SOL    HW124789  13.517  11.386  13.518
40964SOL    HW224790  13.626  11.437  13.610
40965SOL     OW24791   5.395  14.004  13.271
40965SOL    HW124792   5.377  13.996  13.365
40965SOL    HW224793   5.489  14.018  13.266
40966SOL     OW24794  11.166  10.963   2.376
40966SOL    HW124795  11.094  11.002   2.426
40966SOL    HW224796  11.241  10.966   2.435
40967SOL     OW24797   5.390   5.829  11.402
40967SOL    HW124798   5.347   5.912  11.382
40967SOL    HW224799   5.420   5.838  11.493
40968SOL     OW24800   0.185   1.859   0.525
40968SOL    HW124801   0.148   1.832   0.609
40968SOL    HW224802   0.156   1.792   0.464
40969SOL     OW24803  13.065   7.671   7.902
40969SOL    HW124804  13.074   7.716   7.986
40969SOL    HW224805  13.154   7.648   7.877
40970SOL     OW24806  13.429   6.248   9.588
40970SOL    HW124807  13.505   6.294   9.550
40970SOL    HW224808  13.404   6.184   9.521
40971SOL     OW24809  13.053  11.671   3.835
40971SOL    HW124810  13.069  11.689   3.742
40971SOL    HW224811  13.035  11.577   3.838
40972SOL     OW24812   0.283   6.368  10.701
40972SOL    HW124813   0.307   6.460  10.715
40972SOL    HW224814   0.282   6.329  10.788
40973SOL     OW24815  14.159   5.096  12.035
40973SOL    HW124816  14.215   5.024  12.064
40973SOL    HW224817  14.122   5.065  11.952
40974SOL     OW24818  10.212   9.447   5.648
40974SOL    HW124819  10.247   9.431   5.736
40974SOL    HW224820  10.235   9.538   5.629
40975SOL     OW24821   2.624   7.625   5.188
40975SOL    HW124822   2.699   7.658   5.237
40975SOL    HW224823   2.548   7.665   5.231
40976SOL     OW24824   3.684   2.092  14.197
40976SOL    HW124825   3.761   2.145  14.178
40976SOL    HW224826   3.615   2.156  14.214
40977SOL     OW24827   6.767  14.426   9.101
40977SOL    HW124828   6.770  14.332   9.118
40977SOL    HW224829   6.779  14.466   9.187
40978SOL     OW24830  11.950   2.496   2.350
40978SOL    HW124831  11.938   2.515   2.257
40978SOL    HW224832  11.949   2.582   2.392
40979SOL     OW24833   2.722   0.626   1.548
40979SOL    HW124834   2.733   0.621   1.643
40979SOL    HW224835   2.638   0.671   1.536
40980SOL     OW24836   8.833   8.916   1.523
40980SOL    HW124837   8.881   8.853   1.575
40980SOL    HW224838   8.876   9.000   1.540
40981SOL     OW24839  13.826   5.233   1.654
40981SOL    HW124840  13.795   5.227   1.744
40981SOL    HW224841  13.777   5.306   1.616
40982SOL     OW24842   7.613   6.056   3.106
40982SOL    HW124843   7.534   6.011   3.133
40982SOL    HW224844   7.586   6.147   3.092
40983SOL     OW24845  14.544   2.902   9.438
40983SOL    HW124846  14.463   2.881   9.484
40983SOL    HW224847  14.568   2.990   9.469
40984SOL     OW24848   0.266   6.304   6.790
40984SOL    HW124849   0.288   6.257   6.870
40984SOL    HW224850   0.343   6.293   6.734
40985SOL     OW24851   0.631   7.805   8.577
40985SOL    HW124852   0.605   7.868   8.510
40985SOL    HW224853   0.554   7.750   8.591
40986SOL     OW24854  13.063   5.473   3.508
40986SOL    HW124855  13.026   5.532   3.573
40986SOL    HW224856  13.153   5.457   3.538
40987SOL     OW24857   1.871  11.301   7.624
40987SOL    HW124858   1.818  11.313   7.546
40987SOL    HW224859   1.935  11.234   7.600
40988SOL     OW24860   9.162  14.489  12.382
40988SOL    HW124861   9.177  14.555  12.314
40988SOL    HW224862   9.132  14.540  12.458
40989SOL     OW24863  13.377   8.781   4.540
40989SOL    HW124864  13.288   8.775   4.572
40989SOL    HW224865  13.425   8.829   4.607
40990SOL     OW24866   5.399   1.643   2.162
40990SOL    HW124867   5.313   1.630   2.122
40990SOL    HW224868   5.413   1.566   2.217
40991SOL     OW24869   6.819  13.122  12.704
40991SOL    HW124870   6.755  13.191  12.722
40991SOL    HW224871   6.841  13.133  12.611
40992SOL     OW24872  11.843  11.631   5.591
40992SOL    HW124873  11.840  11.610   5.497
40992SOL    HW224874  11.936  11.637   5.611
40993SOL     OW24875  14.668   1.615   2.443
40993SOL    HW124876  14.754   1.573   2.442
40993SOL    HW224877  14.621   1.570   2.514
40994SOL     OW24878   5.345   7.248   2.795
40994SOL    HW124879   5.335   7.295   2.878
40994SOL    HW224880   5.347   7.156   2.820
40995SOL     OW24881  11.581  11.506   1.488
40995SOL    HW124882  11.507  11.491   1.429
40995SOL    HW224883  11.554  11.581   1.542
40996SOL     OW24884   3.731   1.646   0.481
40996SOL    HW124885   3.702   1.558   0.505
40996SOL    HW224886   3.653   1.687   0.444
40997SOL     OW24887   8.537   4.948  13.895
40997SOL    HW124888   8.509   4.857  13.883
40997SOL    HW224889   8.460   5.000  13.872
40998SOL     OW24890   7.451   1.279  13.881
40998SOL    HW124891   7.417   1.197  13.846
40998SOL    HW224892   7.464   1.262  13.975
40999SOL     OW24893  14.862   6.393   6.521
40999SOL    HW124894   0.029   6.306   6.535
40999SOL    HW224895  14.768   6.378   6.527
41000SOL     OW24896   2.682  12.741   9.887
41000SOL    HW124897   2.630  12.822   9.881
41000SOL    HW224898   2.742  12.757   9.960
41001SOL     OW24899  12.556   2.023   0.953
41001SOL    HW124900  12.583   1.940   0.913
41001SOL    HW224901  12.628   2.046   1.011
41002SOL     OW24902   3.609   3.203   3.297
41002SOL    HW124903   3.560   3.211   3.379
41002SOL    HW224904   3.695   3.241   3.316
41003SOL     OW24905  11.394   9.556   9.333
41003SOL    HW124906  11.478   9.599   9.314
41003SOL    HW224907  11.342   9.570   9.254
41004SOL     OW24908   8.266   9.433   2.811
41004SOL    HW124909   8.185   9.438   2.861
41004SOL    HW224910   8.271   9.341   2.783
41005SOL     OW24911  12.283  12.307   8.049
41005SOL    HW124912  12.278  12.213   8.063
41005SOL    HW224913  12.287  12.344   8.137
41006SOL     OW24914  13.193   4.753   7.255
41006SOL    HW124915  13.265   4.778   7.196
41006SOL    HW224916  13.135   4.829   7.255
41007SOL     OW24917  14.026  11.533   7.242
41007SOL    HW124918  14.094  11.588   7.279
41007SOL    HW224919  13.986  11.490   7.317
41008SOL     OW24920   7.864   3.062   3.087
41008SOL    HW124921   7.864   2.967   3.073
41008SOL    HW224922   7.773   3.088   3.075
41009SOL     OW24923   7.713  10.446  14.247
41009SOL    HW124924   7.706  10.540  14.258
41009SOL    HW224925   7.628  10.412  14.274
41010SOL     OW24926  13.058  12.287  11.094
41010SOL    HW124927  13.139  12.264  11.047
41010SOL    HW224928  13.067  12.246  11.179
41011SOL     OW24929   7.942   0.521   6.327
41011SOL    HW124930   7.856   0.491   6.355
41011SOL    HW224931   8.004   0.465   6.374
41012SOL     OW24932   5.040   9.824   5.040
41012SOL    HW124933   5.065   9.913   5.014
41012SOL    HW224934   5.056   9.821   5.135
41013SOL     OW24935   1.051   7.249   6.945
41013SOL    HW124936   1.098   7.244   7.029
41013SOL    HW224937   0.991   7.175   6.948
41014SOL     OW24938   7.048   5.628   1.204
41014SOL    HW124939   6.959   5.602   1.180
41014SOL    HW224940   7.093   5.639   1.121
41015SOL     OW24941  13.524   2.500   7.857
41015SOL    HW124942  13.496   2.503   7.765
41015SOL    HW224943  13.542   2.591   7.879
41016SOL     OW24944  11.609  11.149  10.572
41016SOL    HW124945  11.560  11.208  10.515
41016SOL    HW224946  11.589  11.179  10.661
41017SOL     OW24947   8.587   2.153   3.472
41017SOL    HW124948   8.504   2.154   3.425
41017SOL    HW224949   8.588   2.234   3.522
41018SOL     OW24950  13.540   4.070   1.624
41018SOL    HW124951  13.605   4.023   1.571
41018SOL    HW224952  13.592   4.125   1.682
41019SOL     OW24953   8.793   1.144  11.370
41019SOL    HW124954   8.817   1.052  11.379
41019SOL    HW224955   8.875   1.189  11.349
41020SOL     OW24956   0.815   4.138  12.243
41020SOL    HW124957   0.872   4.178  12.178
41020SOL    HW224958   0.736   4.192  12.242
41021SOL     OW24959   5.681  10.462   3.699
41021SOL    HW124960   5.688  10.381   3.750
41021SOL    HW224961   5.681  10.531   3.764
41022SOL     OW24962  10.945  10.441  12.286
41022SOL    HW124963  10.908  10.352  12.279
41022SOL    HW224964  10.871  10.498  12.265
41023SOL     OW24965  14.227   8.962   1.459
41023SOL    HW124966  14.216   9.041   1.408
41023SOL    HW224967  14.288   8.908   1.408
41024SOL     OW24968   5.643  12.849   6.033
41024SOL    HW124969   5.689  12.855   6.117
41024SOL    HW224970   5.552  12.835   6.057
41025SOL     OW24971   5.975   9.345   8.963
41025SOL    HW124972   5.963   9.436   8.990
41025SOL    HW224973   5.922   9.337   8.884
41026SOL     OW24974   2.229   3.951   4.166
41026SOL    HW124975   2.259   3.998   4.089
41026SOL    HW224976   2.185   4.018   4.219
41027SOL     OW24977   5.618   9.233  14.002
41027SOL    HW124978   5.649   9.278  14.080
41027SOL    HW224979   5.698   9.213  13.953
41028SOL     OW24980   9.402  13.765   0.165
41028SOL    HW124981   9.449  13.694   0.121
41028SOL    HW224982   9.377  13.824   0.095
41029SOL     OW24983  13.622   6.058   3.784
41029SOL    HW124984  13.681   6.117   3.736
41029SOL    HW224985  13.556   6.033   3.720
41030SOL     OW24986   6.886   3.518  13.849
41030SOL    HW124987   6.825   3.554  13.785
41030SOL    HW224988   6.848   3.434  13.874
41031SOL     OW24989   1.115   8.993   0.092
41031SOL    HW124990   1.145   8.912   0.051
41031SOL    HW224991   1.161   8.997   0.175
41032SOL     OW24992   9.830  11.575   0.646
41032SOL    HW124993   9.887  11.525   0.589
41032SOL    HW224994   9.750  11.590   0.595
41033SOL     OW24995  10.184  10.553   0.172
41033SOL    HW124996  10.197  10.476   0.117
41033SOL    HW224997  10.256  10.612   0.148
41034SOL     OW24998  14.230   9.983   2.282
41034SOL    HW124999  14.233   9.912   2.218
41034SOL    HW225000  14.150   9.966   2.332
41035SOL     OW25001   1.838   9.483   1.228
41035SOL    HW125002   1.895   9.559   1.237
41035SOL    HW225003   1.848   9.435   1.310
41036SOL     OW25004   9.894   4.416   9.484
41036SOL    HW125005   9.956   4.460   9.541
41036SOL    HW225006   9.936   4.333   9.462
41037SOL     OW25007   8.890  11.300   5.660
41037SOL    HW125008   8.802  11.293   5.623
41037SOL    HW225009   8.941  11.234   5.613
41038SOL     OW25010  11.470   6.002   3.406
41038SOL    HW125011  11.377   6.023   3.413
41038SOL    HW225012  11.481   5.970   3.317
41039SOL     OW25013   0.117   6.430   5.616
41039SOL    HW125014   0.047   6.491   5.635
41039SOL    HW225015   0.197   6.476   5.640
41040SOL     OW25016   2.521  10.950  12.030
41040SOL    HW125017   2.523  10.891  11.955
41040SOL    HW225018   2.500  11.036  11.993
41041SOL     OW25019   8.797   5.379   4.041
41041SOL    HW125020   8.859   5.309   4.060
41041SOL    HW225021   8.746   5.346   3.967
41042SOL     OW25022   6.660   6.255  14.299
41042SOL    HW125023   6.570   6.238  14.269
41042SOL    HW225024   6.661   6.225  14.390
41043SOL     OW25025   9.987  10.607  10.530
41043SOL    HW125026  10.031  10.531  10.567
41043SOL    HW225027   9.989  10.672  10.601
41044SOL     OW25028   9.469   8.813   3.563
41044SOL    HW125029   9.551   8.834   3.607
41044SOL    HW225030   9.411   8.885   3.584
41045SOL     OW25031  14.792   1.077   5.661
41045SOL    HW125032  14.764   0.989   5.683
41045SOL    HW225033  14.784   1.126   5.743
41046SOL     OW25034   8.603   5.892   1.852
41046SOL    HW125035   8.677   5.942   1.885
41046SOL    HW225036   8.598   5.816   1.910
41047SOL     OW25037  10.556   7.259   8.856
41047SOL    HW125038  10.572   7.294   8.768
41047SOL    HW225039  10.470   7.217   8.850
41048SOL     OW25040   1.609  14.154   1.206
41048SOL    HW125041   1.701  14.128   1.202
41048SOL    HW225042   1.611  14.249   1.215
41049SOL     OW25043   9.646  12.516  12.332
41049SOL    HW125044   9.655  12.605  12.300
41049SOL    HW225045   9.736  12.484  12.339
41050SOL     OW25046   2.340   2.495   6.128
41050SOL    HW125047   2.401   2.524   6.060
41050SOL    HW225048   2.371   2.407   6.150
41051SOL     OW25049   9.177   9.079  12.838
41051SOL    HW125050   9.092   9.041  12.861
41051SOL    HW225051   9.229   9.072  12.918
41052SOL     OW25052  13.046   3.571  10.573
41052SOL    HW125053  13.085   3.612  10.651
41052SOL    HW225054  12.996   3.642  10.532
41053SOL     OW25055   4.811  14.465   6.130
41053SOL    HW125056   4.903  14.492   6.130
41053SOL    HW225057   4.809  14.386   6.184
41054SOL     OW25058  13.118   7.716   6.891
41054SOL    HW125059  13.121   7.656   6.816
41054SOL    HW225060  13.041   7.771   6.873
41055SOL     OW25061   3.637  14.296   7.473
41055SOL    HW125062   3.580  14.284   7.396
41055SOL    HW225063   3.715  14.244   7.454
41056SOL     OW25064   7.765   7.136   0.439
41056SOL    HW125065   7.757   7.230   0.419
41056SOL    HW225066   7.681   7.113   0.479
41057SOL     OW25067  11.887  11.723   4.392
41057SOL    HW125068  11.849  11.640   4.362
41057SOL    HW225069  11.811  11.779   4.410
41058SOL     OW25070   9.955   4.226   7.024
41058SOL    HW125071   9.907   4.144   7.026
41058SOL    HW225072  10.042   4.202   6.994
41059SOL     OW25073   6.401   2.160   3.577
41059SOL    HW125074   6.308   2.180   3.566
41059SOL    HW225075   6.402   2.077   3.625
41060SOL     OW25076  13.216   9.845  11.922
41060SOL    HW125077  13.142   9.904  11.937
41060SOL    HW225078  13.191   9.763  11.965
41061SOL     OW25079   1.726  13.612  12.952
41061SOL    HW125080   1.744  13.579  13.040
41061SOL    HW225081   1.633  13.591  12.937
41062SOL     OW25082   0.897   1.941   2.170
41062SOL    HW125083   0.987   1.910   2.157
41062SOL    HW225084   0.845   1.861   2.171
41063SOL     OW25085  10.802   4.198   1.755
41063SOL    HW125086  10.876   4.142   1.780
41063SOL    HW225087  10.730   4.136   1.739
41064SOL     OW25088   8.630   1.582  13.520
41064SOL    HW125089   8.684   1.517  13.565
41064SOL    HW225090   8.657   1.666  13.558
41065SOL     OW25091   6.140   8.332   7.195
41065SOL    HW125092   6.185   8.249   7.214
41065SOL    HW225093   6.052   8.321   7.232
41066SOL     OW25094  12.217   0.892   0.550
41066SOL    HW125095  12.254   0.980   0.539
41066SOL    HW225096  12.258   0.840   0.481
41067SOL     OW25097  10.754  14.826   9.389
41067SOL    HW125098  10.749  14.730   9.382
41067SOL    HW225099  10.700  14.858   9.318
41068SOL     OW25100   6.072   9.659   8.567
41068SOL    HW125101   6.006   9.718   8.533
41068SOL    HW225102   6.022   9.589   8.609
41069SOL     OW25103   1.760   2.471   1.483
41069SOL    HW125104   1.755   2.443   1.392
41069SOL    HW225105   1.710   2.405   1.532
41070SOL     OW25106   0.474  14.426   5.661
41070SOL    HW125107   0.408  14.389   5.720
41070SOL    HW225108   0.553  14.432   5.714
41071SOL     OW25109   7.591   3.193   8.310
41071SOL    HW125110   7.669   3.234   8.273
41071SOL    HW225111   7.620   3.156   8.393
41072SOL     OW25112  11.954  10.317  10.404
41072SOL    HW125113  11.960  10.223  10.421
41072SOL    HW225114  11.860  10.336  10.404
41073SOL     OW25115   0.785  10.982   2.324
41073SOL    HW125116   0.825  11.027   2.249
41073SOL    HW225117   0.778  10.891   2.297
41074SOL     OW25118   7.367   1.353   3.026
41074SOL    HW125119   7.325   1.394   2.950
41074SOL    HW225120   7.294   1.329   3.084
41075SOL     OW25121   9.809   8.177  10.688
41075SOL    HW125122   9.752   8.248  10.719
41075SOL    HW225123   9.768   8.147  10.607
41076SOL     OW25124   9.480   1.378   9.436
41076SOL    HW125125   9.568   1.389   9.471
41076SOL    HW225126   9.471   1.284   9.421
41077SOL     OW25127   1.701  12.166  12.501
41077SOL    HW125128   1.675  12.145  12.591
41077SOL    HW225129   1.621  12.199  12.461
41078SOL     OW25130   4.159   8.283   3.072
41078SOL    HW125131   4.129   8.358   3.021
41078SOL    HW225132   4.221   8.320   3.135
41079SOL     OW25133   5.485   5.982   9.940
41079SOL    HW125134   5.421   5.943   9.880
41079SOL    HW225135   5.500   5.914  10.006
41080SOL     OW25136   3.658  10.703   7.284
41080SOL    HW125137   3.667  10.607   7.287
41080SOL    HW225138   3.710  10.729   7.208
41081SOL     OW25139  10.062   7.530   3.921
41081SOL    HW125140  10.129   7.594   3.948
41081SOL    HW225141   9.984   7.556   3.969
41082SOL     OW25142   1.998   4.984   3.753
41082SOL    HW125143   2.088   4.961   3.775
41082SOL    HW225144   1.999   5.079   3.743
41083SOL     OW25145  10.131   6.608   0.169
41083SOL    HW125146  10.219   6.572   0.181
41083SOL    HW225147  10.108   6.586   0.079
41084SOL     OW25148   5.600   4.533  14.858
41084SOL    HW125149   5.561   4.450  14.833
41084SOL    HW225150   5.530   4.579   0.033
41085SOL     OW25151  10.543  14.594   7.112
41085SOL    HW125152  10.479  14.665   7.116
41085SOL    HW225153  10.551  14.563   7.202
41086SOL     OW25154   5.410  14.542  11.280
41086SOL    HW125155   5.384  14.452  11.265
41086SOL    HW225156   5.336  14.595  11.250
41087SOL     OW25157  10.964  10.969   6.067
41087SOL    HW125158  10.969  10.961   5.972
41087SOL    HW225159  10.870  10.974   6.085
41088SOL     OW25160  12.711  10.232   9.387
41088SOL    HW125161  12.784  10.236   9.449
41088SOL    HW225162  12.634  10.213   9.442
41089SOL     OW25163  10.187   7.983   1.949
41089SOL    HW125164  10.207   7.890   1.946
41089SOL    HW225165  10.102   7.989   1.992
41090SOL     OW25166   8.287  10.393   8.198
41090SOL    HW125167   8.339  10.379   8.277
41090SOL    HW225168   8.258  10.305   8.172
41091SOL     OW25169   2.721   1.578  14.266
41091SOL    HW125170   2.788   1.646  14.257
41091SOL    HW225171   2.698   1.554  14.176
41092SOL     OW25172   2.027   1.113   9.580
41092SOL    HW125173   1.946   1.062   9.581
41092SOL    HW225174   2.001   1.199   9.545
41093SOL     OW25175   4.023   1.096  13.294
41093SOL    HW125176   3.927   1.097  13.291
41093SOL    HW225177   4.049   1.036  13.225
41094SOL     OW25178   8.814   8.246   5.286
41094SOL    HW125179   8.905   8.217   5.291
41094SOL    HW225180   8.765   8.178   5.333
41095SOL     OW25181  12.905   4.067   1.979
41095SOL    HW125182  12.957   3.986   1.980
41095SOL    HW225183  12.957   4.128   1.926
41096SOL     OW25184   7.894  13.202   7.264
41096SOL    HW125185   7.885  13.222   7.357
41096SOL    HW225186   7.983  13.230   7.242
41097SOL     OW25187   8.483   1.490   3.907
41097SOL    HW125188   8.452   1.399   3.898
41097SOL    HW225189   8.479   1.525   3.818
41098SOL     OW25190   3.577   9.369   4.050
41098SOL    HW125191   3.672   9.365   4.038
41098SOL    HW225192   3.544   9.406   3.968
41099SOL     OW25193   1.067   7.587   8.607
41099SOL    HW125194   1.158   7.559   8.599
41099SOL    HW225195   1.064   7.640   8.687
41100SOL     OW25196   7.779   9.478   6.898
41100SOL    HW125197   7.855   9.490   6.841
41100SOL    HW225198   7.704   9.506   6.845
41101SOL     OW25199  10.708   9.705  10.704
41101SOL    HW125200  10.771   9.666  10.764
41101SOL    HW225201  10.622   9.678  10.738
41102SOL     OW25202   3.776   7.513   6.930
41102SOL    HW125203   3.824   7.508   6.847
41102SOL    HW225204   3.687   7.486   6.907
41103SOL     OW25205   0.200   7.919   7.344
41103SOL    HW125206   0.289   7.954   7.344
41103SOL    HW225207   0.148   7.986   7.299
41104SOL     OW25208  10.630   1.021   8.606
41104SOL    HW125209  10.591   0.958   8.666
41104SOL    HW225210  10.656   0.969   8.530
41105SOL     OW25211   5.961   0.717  10.202
41105SOL    HW125212   5.931   0.795  10.249
41105SOL    HW225213   5.943   0.644  10.261
41106SOL     OW25214   7.473   1.402   5.533
41106SOL    HW125215   7.423   1.440   5.605
41106SOL    HW225216   7.456   1.308   5.539
41107SOL     OW25217   2.789   7.124  13.684
41107SOL    HW125218   2.729   7.192  13.712
41107SOL    HW225219   2.848   7.112  13.758
41108SOL     OW25220   6.503   0.672   3.645
41108SOL    HW125221   6.574   0.689   3.708
41108SOL    HW225222   6.548   0.645   3.565
41109SOL     OW25223   0.093   5.833   8.530
41109SOL    HW125224   0.152   5.794   8.466
41109SOL    HW225225   0.096   5.927   8.510
41110SOL     OW25226   1.910   2.018  12.826
41110SOL    HW125227   1.827   2.049  12.791
41110SOL    HW225228   1.955   2.097  12.855
41111SOL     OW25229  14.734   4.948   6.570
41111SOL    HW125230  14.814   4.983   6.611
41111SOL    HW225231  14.744   4.969   6.477
41112SOL     OW25232   3.969   0.466  11.196
41112SOL    HW125233   4.010   0.384  11.171
41112SOL    HW225234   4.042   0.523  11.221
41113SOL     OW25235  10.840   3.935  11.157
41113SOL    HW125236  10.749   3.909  11.147
41113SOL    HW225237  10.871   3.888  11.234
41114SOL     OW25238   7.720   6.909   2.781
41114SOL    HW125239   7.771   6.984   2.750
41114SOL    HW225240   7.674   6.943   2.858
41115SOL     OW25241  11.089   8.550   6.011
41115SOL    HW125242  11.072   8.638   6.046
41115SOL    HW225243  11.061   8.491   6.081
41116SOL     OW25244   4.734   4.973   8.720
41116SOL    HW125245   4.659   4.948   8.774
41116SOL    HW225246   4.705   4.955   8.630
41117SOL     OW25247   1.522  10.053   6.637
41117SOL    HW125248   1.588  10.119   6.618
41117SOL    HW225249   1.525   9.993   6.563
41118SOL     OW25250   2.857   0.589   1.104
41118SOL    HW125251   2.794   0.571   1.173
41118SOL    HW225252   2.805   0.622   1.031
41119SOL     OW25253  10.596   1.769   6.416
41119SOL    HW125254  10.595   1.683   6.459
41119SOL    HW225255  10.514   1.810   6.442
41120SOL     OW25256   1.850   6.264   3.306
41120SOL    HW125257   1.924   6.206   3.288
41120SOL    HW225258   1.823   6.295   3.219
41121SOL     OW25259  11.829   5.662   0.293
41121SOL    HW125260  11.903   5.679   0.350
41121SOL    HW225261  11.804   5.748   0.259
41122SOL     OW25262  10.376   7.522  14.371
41122SOL    HW125263  10.458   7.494  14.412
41122SOL    HW225264  10.368   7.615  14.394
41123SOL     OW25265   1.568   4.752   1.976
41123SOL    HW125266   1.640   4.790   1.926
41123SOL    HW225267   1.542   4.674   1.926
41124SOL     OW25268  11.297   1.634   4.502
41124SOL    HW125269  11.253   1.650   4.418
41124SOL    HW225270  11.299   1.719   4.546
41125SOL     OW25271   3.310   7.221  13.339
41125SOL    HW125272   3.241   7.204  13.275
41125SOL    HW225273   3.290   7.161  13.411
41126SOL     OW25274   3.705   8.932   8.948
41126SOL    HW125275   3.762   8.994   8.902
41126SOL    HW225276   3.722   8.948   9.041
41127SOL     OW25277   7.518   0.694   5.483
41127SOL    HW125278   7.472   0.695   5.566
41127SOL    HW225279   7.574   0.617   5.487
41128SOL     OW25280   5.733   7.007  14.133
41128SOL    HW125281   5.783   7.011  14.052
41128SOL    HW225282   5.649   6.969  14.107
41129SOL     OW25283   4.054   1.466   3.258
41129SOL    HW125284   4.089   1.514   3.183
41129SOL    HW225285   4.014   1.388   3.220
41130SOL     OW25286  13.357   7.007   7.199
41130SOL    HW125287  13.383   7.075   7.261
41130SOL    HW225288  13.286   6.960   7.244
41131SOL     OW25289  10.365   4.035   4.416
41131SOL    HW125290  10.355   4.108   4.356
41131SOL    HW225291  10.299   3.971   4.388
41132SOL     OW25292   8.395   2.698   6.893
41132SOL    HW125293   8.482   2.737   6.888
41132SOL    HW225294   8.398   2.644   6.972
41133SOL     OW25295   3.545   5.692   7.653
41133SOL    HW125296   3.564   5.638   7.730
41133SOL    HW225297   3.593   5.649   7.581
41134SOL     OW25298  11.336   3.172   5.341
41134SOL    HW125299  11.345   3.147   5.249
41134SOL    HW225300  11.399   3.243   5.353
41135SOL     OW25301  10.221  13.044  10.192
41135SOL    HW125302  10.162  13.077  10.259
41135SOL    HW225303  10.237  13.118  10.134
41136SOL     OW25304   1.282   6.084  14.694
41136SOL    HW125305   1.198   6.071  14.650
41136SOL    HW225306   1.269   6.049  14.782
41137SOL     OW25307  14.271   0.892   9.744
41137SOL    HW125308  14.344   0.888   9.805
41137SOL    HW225309  14.236   0.981   9.754
41138SOL     OW25310   4.037   4.961   1.677
41138SOL    HW125311   4.029   5.010   1.758
41138SOL    HW225312   4.081   4.880   1.702
41139SOL     OW25313   0.612  12.491   8.134
41139SOL    HW125314   0.584  12.523   8.048
41139SOL    HW225315   0.538  12.509   8.192
41140SOL     OW25316   6.694   4.552  13.608
41140SOL    HW125317   6.707   4.600  13.526
41140SOL    HW225318   6.706   4.460  13.584
41141SOL     OW25319   2.418  10.091   2.652
41141SOL    HW125320   2.463  10.101   2.736
41141SOL    HW225321   2.484  10.118   2.587
41142SOL     OW25322   5.622   3.573  13.516
41142SOL    HW125323   5.581   3.506  13.461
41142SOL    HW225324   5.562   3.584  13.590
41143SOL     OW25325   0.320   0.272   8.025
41143SOL    HW125326   0.415   0.266   8.020
41143SOL    HW225327   0.295   0.206   8.090
41144SOL     OW25328  12.492  13.880   4.709
41144SOL    HW125329  12.493  13.860   4.803
41144SOL    HW225330  12.562  13.945   4.698
41145SOL     OW25331   4.999  11.562   3.893
41145SOL    HW125332   4.970  11.543   3.982
41145SOL    HW225333   5.027  11.477   3.858
41146SOL     OW25334   6.485  12.425   8.135
41146SOL    HW125335   6.427  12.392   8.204
41146SOL    HW225336   6.566  12.374   8.145
41147SOL     OW25337   9.931   6.097   8.387
41147SOL    HW125338   9.882   6.162   8.335
41147SOL    HW225339   9.923   6.128   8.477
41148SOL     OW25340  11.698  12.501   0.719
41148SOL    HW125341  11.704  12.450   0.638
41148SOL    HW225342  11.705  12.592   0.691
41149SOL     OW25343   6.272   6.600   2.546
41149SOL    HW125344   6.286   6.526   2.605
41149SOL    HW225345   6.275   6.561   2.458
41150SOL     OW25346  12.501  13.127   6.681
41150SOL    HW125347  12.457  13.048   6.649
41150SOL    HW225348  12.452  13.200   6.642
41151SOL     OW25349  12.812   7.188   4.579
41151SOL    HW125350  12.791   7.096   4.595
41151SOL    HW225351  12.807   7.198   4.484
41152SOL     OW25352   9.903   3.101   9.578
41152SOL    HW125353   9.834   3.147   9.531
41152SOL    HW225354   9.930   3.162   9.647
41153SOL     OW25355   1.348   9.977   2.569
41153SOL    HW125356   1.407   9.965   2.644
41153SOL    HW225357   1.295  10.053   2.593
41154SOL     OW25358   1.898   9.257   1.947
41154SOL    HW125359   1.963   9.301   2.002
41154SOL    HW225360   1.839   9.214   2.009
41155SOL     OW25361   1.381   1.081   9.644
41155SOL    HW125362   1.406   1.022   9.573
41155SOL    HW225363   1.342   1.157   9.600
41156SOL     OW25364   5.849  12.862   8.817
41156SOL    HW125365   5.757  12.841   8.802
41156SOL    HW225366   5.892  12.849   8.733
41157SOL     OW25367   1.546   4.589   2.417
41157SOL    HW125368   1.476   4.640   2.458
41157SOL    HW225369   1.620   4.595   2.477
41158SOL     OW25370  12.573  10.392   7.652
41158SOL    HW125371  12.519  10.379   7.575
41158SOL    HW225372  12.663  10.389   7.619
41159SOL     OW25373   9.183  11.345   7.622
41159SOL    HW125374   9.191  11.412   7.554
41159SOL    HW225375   9.224  11.268   7.584
41160SOL     OW25376   3.097   2.951   4.975
41160SOL    HW125377   3.033   2.915   4.914
41160SOL    HW225378   3.050   3.021   5.020
41161SOL     OW25379   3.977   9.965   8.078
41161SOL    HW125380   3.937   9.942   7.994
41161SOL    HW225381   3.938   9.905   8.141
41162SOL     OW25382   1.713   2.557  11.631
41162SOL    HW125383   1.669   2.543  11.547
41162SOL    HW225384   1.801   2.587  11.607
41163SOL     OW25385  10.935   6.396   1.142
41163SOL    HW125386  10.873   6.469   1.142
41163SOL    HW225387  11.016   6.433   1.107
41164SOL     OW25388   5.899   2.865   8.822
41164SOL    HW125389   5.858   2.936   8.871
41164SOL    HW225390   5.857   2.867   8.736
41165SOL     OW25391   2.786  12.840   4.425
41165SOL    HW125392   2.696  12.838   4.458
41165SOL    HW225393   2.778  12.823   4.331
41166SOL     OW25394   7.241  13.116   6.641
41166SOL    HW125395   7.188  13.039   6.662
41166SOL    HW225396   7.222  13.133   6.548
41167SOL     OW25397   4.066  11.165   9.144
41167SOL    HW125398   4.077  11.170   9.049
41167SOL    HW225399   4.113  11.085   9.169
41168SOL     OW25400  11.501   8.637  13.832
41168SOL    HW125401  11.491   8.676  13.919
41168SOL    HW225402  11.524   8.710  13.776
41169SOL     OW25403  14.435   4.157   4.333
41169SOL    HW125404  14.487   4.172   4.254
41169SOL    HW225405  14.377   4.233   4.338
41170SOL     OW25406   1.606   8.948  14.091
41170SOL    HW125407   1.673   9.008  14.125
41170SOL    HW225408   1.584   8.892  14.165
41171SOL     OW25409  11.080   1.210   8.985
41171SOL    HW125410  11.073   1.285   8.927
41171SOL    HW225411  10.990   1.195   9.015
41172SOL     OW25412  11.724  12.817   4.822
41172SOL    HW125413  11.642  12.793   4.867
41172SOL    HW225414  11.756  12.893   4.870
41173SOL     OW25415   2.496   0.677  13.968
41173SOL    HW125416   2.451   0.607  13.920
41173SOL    HW225417   2.479   0.756  13.917
41174SOL     OW25418  13.680   3.962  12.481
41174SOL    HW125419  13.753   3.935  12.426
41174SOL    HW225420  13.700   4.053  12.506
41175SOL     OW25421   0.980   2.853  10.044
41175SOL    HW125422   0.939   2.923   9.994
41175SOL    HW225423   1.071   2.851  10.014
41176SOL     OW25424  11.814  14.556   5.888
41176SOL    HW125425  11.790  14.586   5.800
41176SOL    HW225426  11.884  14.615   5.916
41177SOL     OW25427   4.811   9.268   1.090
41177SOL    HW125428   4.730   9.299   1.049
41177SOL    HW225429   4.808   9.173   1.081
41178SOL     OW25430  12.894  11.071   2.657
41178SOL    HW125431  12.835  11.045   2.586
41178SOL    HW225432  12.976  11.093   2.614
41179SOL     OW25433   1.831   9.101   1.308
41179SOL    HW125434   1.763   9.048   1.348
41179SOL    HW225435   1.832   9.182   1.360
41180SOL     OW25436   0.083   4.414   3.548
41180SOL    HW125437   0.110   4.440   3.460
41180SOL    HW225438   0.005   4.466   3.565
41181SOL     OW25439   2.926   9.531   2.574
41181SOL    HW125440   2.990   9.595   2.603
41181SOL    HW225441   2.845   9.580   2.562
41182SOL     OW25442   7.802   7.124   0.055
41182SOL    HW125443   7.798   7.168  14.842
41182SOL    HW225444   7.892   7.139   0.085
41183SOL     OW25445  11.570   0.406   4.366
41183SOL    HW125446  11.653   0.378   4.328
41183SOL    HW225447  11.595   0.461   4.440
41184SOL     OW25448   3.535   0.919  10.366
41184SOL    HW125449   3.563   0.855  10.300
41184SOL    HW225450   3.444   0.895  10.384
41185SOL     OW25451  12.586   3.153  10.275
41185SOL    HW125452  12.585   3.060  10.298
41185SOL    HW225453  12.679   3.176  10.268
41186SOL     OW25454   7.513   1.969   2.661
41186SOL    HW125455   7.464   1.970   2.743
41186SOL    HW225456   7.460   1.915   2.602
41187SOL     OW25457   6.165  12.760   5.404
41187SOL    HW125458   6.248  12.790   5.367
41187SOL    HW225459   6.126  12.838   5.444
41188SOL     OW25460   1.291   5.031  12.087
41188SOL    HW125461   1.237   4.990  12.154
41188SOL    HW225462   1.329   5.107  12.130
41189SOL     OW25463   0.419  11.803   6.918
41189SOL    HW125464   0.505  11.838   6.896
41189SOL    HW225465   0.435  11.746   6.993
41190SOL     OW25466   9.422   7.249   8.573
41190SOL    HW125467   9.478   7.295   8.509
41190SOL    HW225468   9.414   7.310   8.646
41191SOL     OW25469   6.814   3.894   2.938
41191SOL    HW125470   6.900   3.885   2.978
41191SOL    HW225471   6.831   3.905   2.845
41192SOL     OW25472  11.751  12.337   9.426
41192SOL    HW125473  11.773  12.370   9.513
41192SOL    HW225474  11.836  12.327   9.383
41193SOL     OW25475   2.415   1.863   5.571
41193SOL    HW125476   2.384   1.862   5.481
41193SOL    HW225477   2.354   1.807   5.619
41194SOL     OW25478  13.342   1.509   9.398
41194SOL    HW125479  13.318   1.501   9.305
41194SOL    HW225480  13.264   1.548   9.438
41195SOL     OW25481   1.447  12.608  14.760
41195SOL    HW125482   1.534  12.620  14.798
41195SOL    HW225483   1.413  12.697  14.749
41196SOL     OW25484   1.363   1.685   2.285
41196SOL    HW125485   1.455   1.667   2.306
41196SOL    HW225486   1.360   1.780   2.273
41197SOL     OW25487  12.055  12.699  10.365
41197SOL    HW125488  12.037  12.726  10.455
41197SOL    HW225489  12.143  12.661  10.368
41198SOL     OW25490   0.429   4.454  11.028
41198SOL    HW125491   0.338   4.479  11.013
41198SOL    HW225492   0.426   4.403  11.110
41199SOL     OW25493   8.564   2.524   5.228
41199SOL    HW125494   8.469   2.516   5.220
41199SOL    HW225495   8.587   2.593   5.166
41200SOL     OW25496   2.578   6.523   7.775
41200SOL    HW125497   2.623   6.600   7.810
41200SOL    HW225498   2.487   6.534   7.801
41201SOL     OW25499   1.004   4.634   4.522
41201SOL    HW125500   1.080   4.583   4.549
41201SOL    HW225501   1.029   4.671   4.437
41202SOL     OW25502  14.383   2.023   8.978
41202SOL    HW125503  14.437   2.012   8.900
41202SOL    HW225504  14.294   2.030   8.944
41203SOL     OW25505   0.299   4.036  13.603
41203SOL    HW125506   0.286   4.002  13.692
41203SOL    HW225507   0.244   4.114  13.600
41204SOL     OW25508   4.259   5.860  11.486
41204SOL    HW125509   4.349   5.858  11.453
41204SOL    HW225510   4.218   5.934  11.441
41205SOL     OW25511   2.174  12.848   9.680
41205SOL    HW125512   2.247  12.790   9.654
41205SOL    HW225513   2.105  12.788   9.708
41206SOL     OW25514  13.960  11.327   8.103
41206SOL    HW125515  13.944  11.293   8.191
41206SOL    HW225516  14.055  11.332   8.096
41207SOL     OW25517  11.744  10.907   9.244
41207SOL    HW125518  11.738  10.813   9.260
41207SOL    HW225519  11.834  10.930   9.264
41208SOL     OW25520  10.658   6.797  12.494
41208SOL    HW125521  10.653   6.875  12.439
41208SOL    HW225522  10.647   6.830  12.584
41209SOL     OW25523   4.370   5.102   9.667
41209SOL    HW125524   4.462   5.101   9.692
41209SOL    HW225525   4.333   5.176   9.715
41210SOL     OW25526  13.930   7.990  11.097
41210SOL    HW125527  13.845   8.014  11.060
41210SOL    HW225528  13.932   7.895  11.092
41211SOL     OW25529   5.421  12.512   2.636
41211SOL    HW125530   5.357  12.502   2.565
41211SOL    HW225531   5.468  12.593   2.614
41212SOL     OW25532   2.732   2.307   1.766
41212SOL    HW125533   2.802   2.241   1.771
41212SOL    HW225534   2.660   2.262   1.723
41213SOL     OW25535  12.788   0.408   8.459
41213SOL    HW125536  12.756   0.449   8.539
41213SOL    HW225537  12.809   0.481   8.401
41214SOL     OW25538   8.004   1.805  13.559
41214SOL    HW125539   7.988   1.723  13.512
41214SOL    HW225540   7.934   1.863  13.530
41215SOL     OW25541  14.026   3.358   3.204
41215SOL    HW125542  14.020   3.412   3.126
41215SOL    HW225543  13.942   3.371   3.249
41216SOL     OW25544   4.969   9.639   3.168
41216SOL    HW125545   4.994   9.589   3.091
41216SOL    HW225546   4.942   9.724   3.134
41217SOL     OW25547   9.749  10.003   7.416
41217SOL    HW125548   9.707  10.037   7.337
41217SOL    HW225549   9.682   9.949   7.458
41218SOL     OW25550  12.082   3.592   2.010
41218SOL    HW125551  12.120   3.504   2.007
41218SOL    HW225552  12.158   3.651   2.016
41219SOL     OW25553  12.161   1.949   4.656
41219SOL    HW125554  12.123   2.032   4.628
41219SOL    HW225555  12.090   1.902   4.698
41220SOL     OW25556  11.963   0.033   1.767
41220SOL    HW125557  12.028   0.079   1.821
41220SOL    HW225558  11.931  14.835   1.824
41221SOL     OW25559   3.801   1.799   6.387
41221SOL    HW125560   3.740   1.869   6.409
41221SOL    HW225561   3.818   1.754   6.470
41222SOL     OW25562  11.569   1.739   8.369
41222SOL    HW125563  11.648   1.689   8.392
41222SOL    HW225564  11.531   1.689   8.296
41223SOL     OW25565   5.215   3.824  12.266
41223SOL    HW125566   5.280   3.878  12.311
41223SOL    HW225567   5.149   3.804  12.332
41224SOL     OW25568  11.131   9.202   9.657
41224SOL    HW125569  11.175   9.262   9.596
41224SOL    HW225570  11.187   9.124   9.658
41225SOL     OW25571   8.294  12.348   0.793
41225SOL    HW125572   8.351  12.424   0.800
41225SOL    HW225573   8.212  12.375   0.835
41226SOL     OW25574   6.045   1.724   2.404
41226SOL    HW125575   5.983   1.723   2.331
41226SOL    HW225576   6.065   1.632   2.420
41227SOL     OW25577   0.455  14.769   5.008
41227SOL    HW125578   0.469  14.858   5.039
41227SOL    HW225579   0.532  14.750   4.953
41228SOL     OW25580  10.774  10.617   0.099
41228SOL    HW125581  10.770  10.707   0.067
41228SOL    HW225582  10.860  10.586   0.071
41229SOL     OW25583  13.735   9.249   8.075
41229SOL    HW125584  13.749   9.325   8.018
41229SOL    HW225585  13.679   9.190   8.024
41230SOL     OW25586   6.092   6.037   9.079
41230SOL    HW125587   6.058   6.086   9.154
41230SOL    HW225588   6.057   6.082   9.002
41231SOL     OW25589   1.532   8.828  14.319
41231SOL    HW125590   1.523   8.907  14.373
41231SOL    HW225591   1.442   8.794  14.312
41232SOL     OW25592   1.259  10.232   7.219
41232SOL    HW125593   1.328  10.217   7.155
41232SOL    HW225594   1.267  10.324   7.242
41233SOL     OW25595   0.429  12.174   5.568
41233SOL    HW125596   0.400  12.264   5.578
41233SOL    HW225597   0.512  12.169   5.615
41234SOL     OW25598   5.357   6.085   9.482
41234SOL    HW125599   5.452   6.089   9.489
41234SOL    HW225600   5.328   6.172   9.507
41235SOL     OW25601   1.745  14.311   6.580
41235SOL    HW125602   1.823  14.323   6.634
41235SOL    HW225603   1.672  14.330   6.639
41236SOL     OW25604   6.742   2.524  13.849
41236SOL    HW125605   6.739   2.555  13.940
41236SOL    HW225606   6.714   2.600  13.798
41237SOL     OW25607  14.694  11.601   9.207
41237SOL    HW125608  14.684  11.520   9.159
41237SOL    HW225609  14.637  11.591   9.283
41238SOL     OW25610   5.267   8.141   3.193
41238SOL    HW125611   5.314   8.191   3.126
41238SOL    HW225612   5.175   8.161   3.178
41239SOL     OW25613  12.171  11.085   8.367
41239SOL    HW125614  12.157  11.067   8.460
41239SOL    HW225615  12.174  11.181   8.362
41240SOL     OW25616   2.181   1.201   6.121
41240SOL    HW125617   2.221   1.115   6.133
41240SOL    HW225618   2.142   1.197   6.034
41241SOL     OW25619  10.212   7.539   4.178
41241SOL    HW125620  10.126   7.496   4.180
41241SOL    HW225621  10.270   7.474   4.138
41242SOL     OW25622   8.960  10.650   0.902
41242SOL    HW125623   8.969  10.622   0.810
41242SOL    HW225624   9.047  10.638   0.939
41243SOL     OW25625   9.357   0.304   5.421
41243SOL    HW125626   9.346   0.346   5.335
41243SOL    HW225627   9.425   0.239   5.408
41244SOL     OW25628   1.676  12.755  13.563
41244SOL    HW125629   1.728  12.830  13.533
41244SOL    HW225630   1.680  12.692  13.491
41245SOL     OW25631   9.444   5.488   1.237
41245SOL    HW125632   9.382   5.501   1.165
41245SOL    HW225633   9.518   5.443   1.197
41246SOL     OW25634   8.533   1.166   0.800
41246SOL    HW125635   8.456   1.109   0.809
41246SOL    HW225636   8.502   1.252   0.829
41247SOL     OW25637  10.318   5.530   5.124
41247SOL    HW125638  10.308   5.436   5.112
41247SOL    HW225639  10.302   5.567   5.038
41248SOL     OW25640  13.154   0.418  12.954
41248SOL    HW125641  13.058   0.413  12.950
41248SOL    HW225642  13.175   0.507  12.928
41249SOL     OW25643   0.352   9.150   5.418
41249SOL    HW125644   0.297   9.227   5.436
41249SOL    HW225645   0.292   9.086   5.380
41250SOL     OW25646  12.440  11.767  10.592
41250SOL    HW125647  12.499  11.799  10.524
41250SOL    HW225648  12.367  11.830  10.592
41251SOL     OW25649   3.244   0.817  10.355
41251SOL    HW125650   3.308   0.763  10.308
41251SOL    HW225651   3.204   0.758  10.418
41252SOL     OW25652   9.674  14.757   6.820
41252SOL    HW125653   9.718  14.712   6.748
41252SOL    HW225654   9.595  14.705   6.835
41253SOL     OW25655  13.259  11.565   3.149
41253SOL    HW125656  13.296  11.531   3.068
41253SOL    HW225657  13.310  11.523   3.218
41254SOL     OW25658   8.585   8.034   3.251
41254SOL    HW125659   8.659   8.082   3.289
41254SOL    HW225660   8.541   7.995   3.326
41255SOL     OW25661   7.730  11.506  11.897
41255SOL    HW125662   7.729  11.459  11.814
41255SOL    HW225663   7.638  11.515  11.922
41256SOL     OW25664  10.444   7.583   2.641
41256SOL    HW125665  10.486   7.653   2.690
41256SOL    HW225666  10.389   7.539   2.705
41257SOL     OW25667  14.590   5.238   2.237
41257SOL    HW125668  14.599   5.284   2.154
41257SOL    HW225669  14.499   5.254   2.264
41258SOL     OW25670   2.915   2.916  10.037
41258SOL    HW125671   2.986   2.922  10.101
41258SOL    HW225672   2.937   2.984   9.972
41259SOL     OW25673   5.841   8.103   2.476
41259SOL    HW125674   5.899   8.062   2.412
41259SOL    HW225675   5.885   8.090   2.560
41260SOL     OW25676   8.178  10.102   3.802
41260SOL    HW125677   8.250  10.140   3.753
41260SOL    HW225678   8.217  10.028   3.849
41261SOL     OW25679   3.286   3.264  12.545
41261SOL    HW125680   3.247   3.244  12.459
41261SOL    HW225681   3.380   3.266  12.528
41262SOL     OW25682   1.488   7.268   2.875
41262SOL    HW125683   1.544   7.255   2.951
41262SOL    HW225684   1.499   7.360   2.851
41263SOL     OW25685   4.125  13.651   2.401
41263SOL    HW125686   4.107  13.558   2.409
41263SOL    HW225687   4.145  13.680   2.490
41264SOL     OW25688  13.363  13.157  13.504
41264SOL    HW125689  13.353  13.212  13.582
41264SOL    HW225690  13.281  13.107  13.500
41265SOL     OW25691   8.943  14.379   2.338
41265SOL    HW125692   8.944  14.408   2.429
41265SOL    HW225693   8.983  14.292   2.340
41266SOL     OW25694   0.011  11.980   3.490
41266SOL    HW125695   0.104  12.002   3.484
41266SOL    HW225696   0.002  11.902   3.436
41267SOL     OW25697  10.031   0.501  13.024
41267SOL    HW125698  10.011   0.537  13.111
41267SOL    HW225699  10.122   0.524  13.008
41268SOL     OW25700   0.354   7.938  10.120
41268SOL    HW125701   0.263   7.944  10.146
41268SOL    HW225702   0.395   8.016  10.157
41269SOL     OW25703  14.369   9.209  13.827
41269SOL    HW125704  14.297   9.150  13.847
41269SOL    HW225705  14.383   9.259  13.908
41270SOL     OW25706   0.704  13.540   7.160
41270SOL    HW125707   0.656  13.561   7.080
41270SOL    HW225708   0.645  13.565   7.231
41271SOL     OW25709   8.901   8.714   6.025
41271SOL    HW125710   8.831   8.715   5.960
41271SOL    HW225711   8.957   8.787   6.001
41272SOL     OW25712  14.119   0.801   8.589
41272SOL    HW125713  14.124   0.858   8.511
41272SOL    HW225714  14.176   0.727   8.568
41273SOL     OW25715   5.881  12.378   7.016
41273SOL    HW125716   5.805  12.320   7.012
41273SOL    HW225717   5.844  12.464   7.035
41274SOL     OW25718  14.155   7.453  10.416
41274SOL    HW125719  14.062   7.430  10.416
41274SOL    HW225720  14.199   7.374  10.448
41275SOL     OW25721   1.960   2.894   3.533
41275SOL    HW125722   2.040   2.947   3.535
41275SOL    HW225723   1.991   2.804   3.546
41276SOL     OW25724  14.807   8.581   6.053
41276SOL    HW125725   0.018   8.538   6.077
41276SOL    HW225726  14.812   8.593   5.958
41277SOL     OW25727   5.516   0.876  11.243
41277SOL    HW125728   5.539   0.954  11.193
41277SOL    HW225729   5.429   0.852  11.210
41278SOL     OW25730   7.999   0.826   1.820
41278SOL    HW125731   7.910   0.794   1.832
41278SOL    HW225732   7.989   0.921   1.809
41279SOL     OW25733   5.955   8.306  11.550
41279SOL    HW125734   5.984   8.231  11.499
41279SOL    HW225735   6.008   8.379  11.518
41280SOL     OW25736   2.179  14.131   8.180
41280SOL    HW125737   2.272  14.128   8.157
41280SOL    HW225738   2.147  14.211   8.139
41281SOL     OW25739   1.013   0.736   3.197
41281SOL    HW125740   1.044   0.665   3.140
41281SOL    HW225741   0.932   0.766   3.155
41282SOL     OW25742  12.476   6.193  12.232
41282SOL    HW125743  12.495   6.118  12.176
41282SOL    HW225744  12.541   6.188  12.302
41283SOL     OW25745   7.198   1.529   4.102
41283SOL    HW125746   7.222   1.620   4.118
41283SOL    HW225747   7.104   1.531   4.085
41284SOL     OW25748   7.717   9.213  10.084
41284SOL    HW125749   7.708   9.197   9.990
41284SOL    HW225750   7.665   9.143  10.125
41285SOL     OW25751   7.807   0.575  13.927
41285SOL    HW125752   7.838   0.663  13.946
41285SOL    HW225753   7.832   0.560  13.835
41286SOL     OW25754   9.986  13.780  12.447
41286SOL    HW125755   9.904  13.735  12.465
41286SOL    HW225756   9.960  13.870  12.424
41287SOL     OW25757   4.672  12.596   7.009
41287SOL    HW125758   4.654  12.502   7.018
41287SOL    HW225759   4.721  12.619   7.088
41288SOL     OW25760   0.861   0.134   7.777
41288SOL    HW125761   0.873   0.202   7.843
41288SOL    HW225762   0.853   0.053   7.827
41289SOL     OW25763   6.703   3.699  14.020
41289SOL    HW125764   6.711   3.760  13.947
41289SOL    HW225765   6.788   3.701  14.063
41290SOL     OW25766  11.928   7.196  13.827
41290SOL    HW125767  11.952   7.287  13.845
41290SOL    HW225768  11.833   7.193  13.835
41291SOL     OW25769   7.571   4.578  10.635
41291SOL    HW125770   7.554   4.661  10.592
41291SOL    HW225771   7.632   4.600  10.706
41292SOL     OW25772   0.926   5.471   3.349
41292SOL    HW125773   1.010   5.433   3.372
41292SOL    HW225774   0.918   5.456   3.255
41293SOL     OW25775  11.804  10.069   8.792
41293SOL    HW125776  11.801  10.152   8.744
41293SOL    HW225777  11.814  10.095   8.884
41294SOL     OW25778  11.540   4.988   7.506
41294SOL    HW125779  11.479   5.028   7.444
41294SOL    HW225780  11.490   4.916   7.545
41295SOL     OW25781  14.372   1.444   3.073
41295SOL    HW125782  14.292   1.434   3.126
41295SOL    HW225783  14.362   1.379   3.003
41296SOL     OW25784   2.875  13.077   5.660
41296SOL    HW125785   2.930  13.129   5.602
41296SOL    HW225786   2.788  13.081   5.620
41297SOL     OW25787  11.328  14.397  12.499
41297SOL    HW125788  11.368  14.484  12.508
41297SOL    HW225789  11.402  14.336  12.509
41298SOL     OW25790   5.689   4.939   6.105
41298SOL    HW125791   5.741   4.926   6.184
41298SOL    HW225792   5.691   5.033   6.090
41299SOL     OW25793  13.373   6.637   0.271
41299SOL    HW125794  13.403   6.697   0.339
41299SOL    HW225795  13.394   6.683   0.189
41300SOL     OW25796   7.206   5.736   3.956
41300SOL    HW125797   7.123   5.691   3.939
41300SOL    HW225798   7.180   5.827   3.971
41301SOL     OW25799   3.653   1.030  11.542
41301SOL    HW125800   3.707   1.089  11.595
41301SOL    HW225801   3.572   1.079  11.528
41302SOL     OW25802   9.617   5.226   2.426
41302SOL    HW125803   9.693   5.189   2.470
41302SOL    HW225804   9.653   5.298   2.373
41303SOL     OW25805   6.747   6.608   7.602
41303SOL    HW125806   6.819   6.584   7.544
41303SOL    HW225807   6.729   6.699   7.582
41304SOL     OW25808   8.925   7.092  12.870
41304SOL    HW125809   8.901   7.160  12.933
41304SOL    HW225810   8.887   7.012  12.906
41305SOL     OW25811  14.753  11.335   2.632
41305SOL    HW125812  14.716  11.357   2.717
41305SOL    HW225813  14.820  11.269   2.651
41306SOL     OW25814  14.848  12.174   5.515
41306SOL    HW125815  14.823  12.143   5.428
41306SOL    HW225816   0.027  12.253   5.499
41307SOL     OW25817  10.827   8.770  10.435
41307SOL    HW125818  10.832   8.858  10.400
41307SOL    HW225819  10.748   8.733  10.398
41308SOL     OW25820   8.427   7.573  14.118
41308SOL    HW125821   8.494   7.531  14.064
41308SOL    HW225822   8.455   7.664  14.124
41309SOL     OW25823  13.706   8.239  14.095
41309SOL    HW125824  13.746   8.325  14.109
41309SOL    HW225825  13.628   8.256  14.043
41310SOL     OW25826   5.355   2.193   0.841
41310SOL    HW125827   5.366   2.258   0.910
41310SOL    HW225828   5.276   2.144   0.867
41311SOL     OW25829   6.328  10.771   0.713
41311SOL    HW125830   6.404  10.828   0.723
41311SOL    HW225831   6.353  10.690   0.758
41312SOL     OW25832   6.549   8.766   3.389
41312SOL    HW125833   6.537   8.844   3.335
41312SOL    HW225834   6.464   8.721   3.386
41313SOL     OW25835   3.293   6.621   3.055
41313SOL    HW125836   3.211   6.660   3.024
41313SOL    HW225837   3.292   6.634   3.149
41314SOL     OW25838   8.410  11.191  13.891
41314SOL    HW125839   8.342  11.184  13.824
41314SOL    HW225840   8.447  11.103  13.897
41315SOL     OW25841  10.338  13.008  14.180
41315SOL    HW125842  10.359  12.915  14.185
41315SOL    HW225843  10.376  13.037  14.097
41316SOL     OW25844   0.014   8.687   8.753
41316SOL    HW125845   0.100   8.691   8.794
41316SOL    HW225846  14.851   8.776   8.760
41317SOL     OW25847   2.540  12.185  13.448
41317SOL    HW125848   2.538  12.129  13.525
41317SOL    HW225849   2.472  12.149  13.390
41318SOL     OW25850   4.619  14.492   1.050
41318SOL    HW125851   4.694  14.478   1.108
41318SOL    HW225852   4.586  14.403   1.032
41319SOL     OW25853   7.094   8.355   3.186
41319SOL    HW125854   7.042   8.315   3.255
41319SOL    HW225855   7.037   8.356   3.109
41320SOL     OW25856   0.941   3.739   3.312
41320SOL    HW125857   1.003   3.796   3.266
41320SOL    HW225858   0.856   3.782   3.300
41321SOL     OW25859   4.420  13.123  14.159
41321SOL    HW125860   4.390  13.190  14.220
41321SOL    HW225861   4.436  13.046  14.214
41322SOL     OW25862   6.832  12.066   3.101
41322SOL    HW125863   6.832  11.982   3.148
41322SOL    HW225864   6.845  12.042   3.009
41323SOL     OW25865   3.356   0.614   1.435
41323SOL    HW125866   3.343   0.533   1.386
41323SOL    HW225867   3.443   0.644   1.408
41324SOL     OW25868   5.108  10.140  13.203
41324SOL    HW125869   5.158  10.175  13.277
41324SOL    HW225870   5.145  10.183  13.126
41325SOL     OW25871   2.876   1.771   1.586
41325SOL    HW125872   2.951   1.759   1.644
41325SOL    HW225873   2.906   1.738   1.501
41326SOL     OW25874  14.757   5.148  11.984
41326SOL    HW125875  14.828   5.095  11.949
41326SOL    HW225876  14.692   5.152  11.914
41327SOL     OW25877   4.218   8.249  13.527
41327SOL    HW125878   4.237   8.227  13.618
41327SOL    HW225879   4.260   8.179  13.477
41328SOL     OW25880   3.970   8.170   2.357
41328SOL    HW125881   3.931   8.119   2.286
41328SOL    HW225882   3.949   8.120   2.437
41329SOL     OW25883   2.813   8.659   8.083
41329SOL    HW125884   2.885   8.617   8.037
41329SOL    HW225885   2.747   8.676   8.015
41330SOL     OW25886  11.988   2.893   7.283
41330SOL    HW125887  11.970   2.799   7.286
41330SOL    HW225888  11.988   2.915   7.190
41331SOL     OW25889  11.978   8.615   9.333
41331SOL    HW125890  12.002   8.643   9.244
41331SOL    HW225891  12.022   8.531   9.344
41332SOL     OW25892   8.764  11.393   0.356
41332SOL    HW125893   8.763  11.477   0.311
41332SOL    HW225894   8.726  11.331   0.293
41333SOL     OW25895   2.461   8.165   9.017
41333SOL    HW125896   2.455   8.260   9.032
41333SOL    HW225897   2.481   8.129   9.103
41334SOL     OW25898   6.847   2.432   9.118
41334SOL    HW125899   6.818   2.394   9.036
41334SOL    HW225900   6.934   2.469   9.098
41335SOL     OW25901   9.910   1.581  10.528
41335SOL    HW125902   9.889   1.489  10.548
41335SOL    HW225903   9.980   1.603  10.590
41336SOL     OW25904   4.896   9.012   2.926
41336SOL    HW125905   4.901   9.102   2.961
41336SOL    HW225906   4.988   8.985   2.920
41337SOL     OW25907  12.079   3.281   2.928
41337SOL    HW125908  11.988   3.311   2.931
41337SOL    HW225909  12.108   3.282   3.019
41338SOL     OW25910  13.997  11.331   7.038
41338SOL    HW125911  14.014  11.419   7.071
41338SOL    HW225912  13.926  11.342   6.975
41339SOL     OW25913   4.722  12.763   4.906
41339SOL    HW125914   4.660  12.825   4.869
41339SOL    HW225915   4.669  12.687   4.931
41340SOL     OW25916   4.404   6.193   4.012
41340SOL    HW125917   4.376   6.175   4.102
41340SOL    HW225918   4.414   6.106   3.973
41341SOL     OW25919  14.586   0.673   6.662
41341SOL    HW125920  14.561   0.681   6.754
41341SOL    HW225921  14.681   0.668   6.664
41342SOL     OW25922   5.584   7.654  12.907
41342SOL    HW125923   5.660   7.706  12.883
41342SOL    HW225924   5.591   7.643  13.002
41343SOL     OW25925  13.558  11.420   4.394
41343SOL    HW125926  13.521  11.356   4.456
41343SOL    HW225927  13.653  11.409   4.402
41344SOL     OW25928  12.828  13.820   9.811
41344SOL    HW125929  12.758  13.754   9.805
41344SOL    HW225930  12.894  13.791   9.747
41345SOL     OW25931  13.540   5.259   5.712
41345SOL    HW125932  13.590   5.182   5.683
41345SOL    HW225933  13.545   5.256   5.807
41346SOL     OW25934   6.453  10.316   4.520
41346SOL    HW125935   6.412  10.230   4.524
41346SOL    HW225936   6.540  10.300   4.485
41347SOL     OW25937   1.178   6.685   2.448
41347SOL    HW125938   1.167   6.602   2.494
41347SOL    HW225939   1.217   6.743   2.512
41348SOL     OW25940   9.086   9.796   9.139
41348SOL    HW125941   9.055   9.790   9.049
41348SOL    HW225942   9.006   9.805   9.191
41349SOL     OW25943   9.911   1.521  11.322
41349SOL    HW125944   9.997   1.524  11.366
41349SOL    HW225945   9.899   1.609  11.288
41350SOL     OW25946  11.826   6.124   9.107
41350SOL    HW125947  11.802   6.044   9.154
41350SOL    HW225948  11.919   6.136   9.127
41351SOL     OW25949   8.768  10.266   8.234
41351SOL    HW125950   8.720  10.184   8.230
41351SOL    HW225951   8.834  10.259   8.164
41352SOL     OW25952   9.529   9.733  10.795
41352SOL    HW125953   9.522   9.702  10.885
41352SOL    HW225954   9.439   9.751  10.768
41353SOL     OW25955   9.799  12.657   3.317
41353SOL    HW125956   9.725  12.615   3.361
41353SOL    HW225957   9.802  12.745   3.354
41354SOL     OW25958  12.837  10.463   4.974
41354SOL    HW125959  12.820  10.478   4.881
41354SOL    HW225960  12.912  10.403   4.975
41355SOL     OW25961   2.273   5.819   1.587
41355SOL    HW125962   2.299   5.910   1.574
41355SOL    HW225963   2.347   5.768   1.552
41356SOL     OW25964  13.247   0.546  11.329
41356SOL    HW125965  13.316   0.491  11.291
41356SOL    HW225966  13.167   0.495  11.318
41357SOL     OW25967   4.741   2.027  11.993
41357SOL    HW125968   4.683   1.952  12.007
41357SOL    HW225969   4.763   2.022  11.900
41358SOL     OW25970  13.931   2.055   6.157
41358SOL    HW125971  13.987   2.069   6.081
41358SOL    HW225972  13.853   2.012   6.123
41359SOL     OW25973   1.242  14.512   8.557
41359SOL    HW125974   1.279  14.427   8.580
41359SOL    HW225975   1.236  14.559   8.640
41360SOL     OW25976   7.933   0.576   8.347
41360SOL    HW125977   7.991   0.573   8.423
41360SOL    HW225978   7.947   0.663   8.309
41361SOL     OW25979   1.997  13.782   3.270
41361SOL    HW125980   2.043  13.702   3.247
41361SOL    HW225981   2.058  13.852   3.246
41362SOL     OW25982   5.895   3.380  10.736
41362SOL    HW125983   5.812   3.400  10.691
41362SOL    HW225984   5.903   3.285  10.730
41363SOL     OW25985   9.538   7.685   0.473
41363SOL    HW125986   9.631   7.671   0.490
41363SOL    HW225987   9.530   7.780   0.458
41364SOL     OW25988  12.434   3.594   4.297
41364SOL    HW125989  12.385   3.523   4.256
41364SOL    HW225990  12.430   3.666   4.234
41365SOL     OW25991  12.470   5.665  14.232
41365SOL    HW125992  12.415   5.614  14.172
41365SOL    HW225993  12.415   5.737  14.260
41366SOL     OW25994   3.907  12.299   0.940
41366SOL    HW125995   3.951  12.219   0.967
41366SOL    HW225996   3.894  12.288   0.846
41367SOL     OW25997  11.778  10.185   9.311
41367SOL    HW125998  11.811  10.274   9.325
41367SOL    HW225999  11.855  10.134   9.286
41368SOL     OW26000   6.215  11.955   1.002
41368SOL    HW126001   6.302  11.916   1.012
41368SOL    HW226002   6.208  12.017   1.075
41369SOL     OW26003  10.469   8.144  12.691
41369SOL    HW126004  10.496   8.232  12.666
41369SOL    HW226005  10.441   8.151  12.782
41370SOL     OW26006   7.560  13.101  10.216
41370SOL    HW126007   7.595  13.029  10.270
41370SOL    HW226008   7.577  13.180  10.267
41371SOL     OW26009   0.730   5.485   2.527
41371SOL    HW126010   0.675   5.562   2.534
41371SOL    HW226011   0.769   5.491   2.439
41372SOL     OW26012   4.696   2.417   3.713
41372SOL    HW126013   4.735   2.437   3.629
41372SOL    HW226014   4.759   2.449   3.778
41373SOL     OW26015  12.483  14.212   8.250
41373SOL    HW126016  12.480  14.173   8.162
41373SOL    HW226017  12.511  14.141   8.307
41374SOL     OW26018   0.319   5.164  10.195
41374SOL    HW126019   0.396   5.192  10.244
41374SOL    HW226020   0.355   5.112  10.122
41375SOL     OW26021   8.763   7.780   7.420
41375SOL    HW126022   8.837   7.729   7.453
41375SOL    HW226023   8.723   7.725   7.353
41376SOL     OW26024  11.240   7.705  13.777
41376SOL    HW126025  11.284   7.763  13.839
41376SOL    HW226026  11.148   7.708  13.802
41377SOL     OW26027  10.926   9.090   3.044
41377SOL    HW126028  10.948   8.997   3.041
41377SOL    HW226029  10.885   9.107   2.959
41378SOL     OW26030   0.970   5.192   5.182
41378SOL    HW126031   1.063   5.212   5.167
41378SOL    HW226032   0.927   5.278   5.179
41379SOL     OW26033   8.971   9.398   3.793
41379SOL    HW126034   8.991   9.452   3.869
41379SOL    HW226035   9.033   9.325   3.799
41380SOL     OW26036  11.650  11.167  14.130
41380SOL    HW126037  11.672  11.126  14.046
41380SOL    HW226038  11.727  11.219  14.152
41381SOL     OW26039  10.388   6.921   6.644
41381SOL    HW126040  10.394   6.832   6.610
41381SOL    HW226041  10.461   6.967   6.602
41382SOL     OW26042   5.020   1.484  12.292
41382SOL    HW126043   5.043   1.519  12.205
41382SOL    HW226044   5.045   1.554  12.352
41383SOL     OW26045   4.888   1.746   2.910
41383SOL    HW126046   4.978   1.776   2.898
41383SOL    HW226047   4.845   1.768   2.827
41384SOL     OW26048   2.180   5.756   2.802
41384SOL    HW126049   2.177   5.851   2.801
41384SOL    HW226050   2.218   5.734   2.887
41385SOL     OW26051   3.516   3.415   5.617
41385SOL    HW126052   3.519   3.392   5.524
41385SOL    HW226053   3.596   3.465   5.632
41386SOL     OW26054   2.314   0.053   9.559
41386SOL    HW126055   2.321   0.081   9.650
41386SOL    HW226056   2.389   0.092   9.515
41387SOL     OW26057   7.107   7.305  13.740
41387SOL    HW126058   7.025   7.266  13.770
41387SOL    HW226059   7.082   7.360  13.666
41388SOL     OW26060   6.097   2.700   1.031
41388SOL    HW126061   6.089   2.682   1.125
41388SOL    HW226062   6.171   2.761   1.025
41389SOL     OW26063  14.703   6.541   9.297
41389SOL    HW126064  14.652   6.611   9.255
41389SOL    HW226065  14.793   6.572   9.295
41390SOL     OW26066  12.102  11.869   3.801
41390SOL    HW126067  12.146  11.811   3.739
41390SOL    HW226068  12.043  11.812   3.851
41391SOL     OW26069   5.598   9.712   3.942
41391SOL    HW126070   5.551   9.796   3.939
41391SOL    HW226071   5.683   9.733   3.981
41392SOL     OW26072   7.001  13.076   1.870
41392SOL    HW126073   6.971  12.986   1.860
41392SOL    HW226074   6.930  13.129   1.833
41393SOL     OW26075  12.553   5.638  13.465
41393SOL    HW126076  12.589   5.707  13.520
41393SOL    HW226077  12.478   5.678  13.420
41394SOL     OW26078  10.782   5.597  10.001
41394SOL    HW126079  10.781   5.593   9.906
41394SOL    HW226080  10.874   5.611  10.024
41395SOL     OW26081   1.276   0.901   1.212
41395SOL    HW126082   1.272   0.995   1.229
41395SOL    HW226083   1.205   0.864   1.263
41396SOL     OW26084  14.515   7.289  12.591
41396SOL    HW126085  14.435   7.315  12.637
41396SOL    HW226086  14.585   7.310  12.653
41397SOL     OW26087   6.503   4.511   1.004
41397SOL    HW126088   6.526   4.522   0.912
41397SOL    HW226089   6.454   4.590   1.026
41398SOL     OW26090   0.620  13.286  11.092
41398SOL    HW126091   0.640  13.193  11.104
41398SOL    HW226092   0.571  13.289  11.010
41399SOL     OW26093   2.524   0.403  11.014
41399SOL    HW126094   2.525   0.444  10.928
41399SOL    HW226095   2.442   0.354  11.017
41400SOL     OW26096   1.443  13.360   1.692
41400SOL    HW126097   1.380  13.405   1.635
41400SOL    HW226098   1.498  13.311   1.631
41401SOL     OW26099  11.837   8.017   0.492
41401SOL    HW126100  11.925   7.981   0.476
41401SOL    HW226101  11.839   8.104   0.452
41402SOL     OW26102   4.808   7.811  10.461
41402SOL    HW126103   4.776   7.838  10.547
41402SOL    HW226104   4.855   7.887  10.427
41403SOL     OW26105   3.468   6.374   0.075
41403SOL    HW126106   3.522   6.366   0.153
41403SOL    HW226107   3.457   6.468   0.062
41404SOL     OW26108   0.942   1.736  14.376
41404SOL    HW126109   1.007   1.794  14.415
41404SOL    HW226110   0.994   1.665  14.338
41405SOL     OW26111   9.714  11.125   5.843
41405SOL    HW126112   9.685  11.167   5.925
41405SOL    HW226113   9.710  11.031   5.862
41406SOL     OW26114   4.021  11.429   4.980
41406SOL    HW126115   4.058  11.469   5.059
41406SOL    HW226116   3.932  11.464   4.975
41407SOL     OW26117  14.668   8.065  14.315
41407SOL    HW126118  14.653   8.137  14.375
41407SOL    HW226119  14.581   8.039  14.285
41408SOL     OW26120  11.287   6.251  11.569
41408SOL    HW126121  11.339   6.170  11.564
41408SOL    HW226122  11.207   6.226  11.615
41409SOL     OW26123  10.002   1.101  12.088
41409SOL    HW126124   9.963   1.127  12.171
41409SOL    HW226125   9.931   1.059  12.040
41410SOL     OW26126  13.585  12.197  11.902
41410SOL    HW126127  13.593  12.154  11.987
41410SOL    HW226128  13.626  12.283  11.914
41411SOL     OW26129   8.243  14.761   1.939
41411SOL    HW126130   8.319  14.718   1.900
41411SOL    HW226131   8.280  14.816   2.008
41412SOL     OW26132   2.263  12.339  13.514
41412SOL    HW126133   2.206  12.276  13.469
41412SOL    HW226134   2.304  12.288  13.584
41413SOL     OW26135   9.089  12.862  10.401
41413SOL    HW126136   9.060  12.814  10.478
41413SOL    HW226137   9.166  12.814  10.370
41414SOL     OW26138   5.798  11.676   4.647
41414SOL    HW126139   5.733  11.609   4.625
41414SOL    HW226140   5.784  11.694   4.740
41415SOL     OW26141  10.983  14.190   8.521
41415SOL    HW126142  10.940  14.187   8.435
41415SOL    HW226143  11.005  14.282   8.533
41416SOL     OW26144   8.438   7.435   4.062
41416SOL    HW126145   8.370   7.473   4.118
41416SOL    HW226146   8.516   7.433   4.118
41417SOL     OW26147  13.234   1.744  14.350
41417SOL    HW126148  13.163   1.754  14.287
41417SOL    HW226149  13.198   1.686  14.417
41418SOL     OW26150   7.011   1.146   7.867
41418SOL    HW126151   7.001   1.159   7.961
41418SOL    HW226152   7.021   1.234   7.832
41419SOL     OW26153  14.725   3.269   7.106
41419SOL    HW126154  14.727   3.295   7.014
41419SOL    HW226155  14.634   3.243   7.121
41420SOL     OW26156   2.490  14.800   3.930
41420SOL    HW126157   2.422  14.855   3.892
41420SOL    HW226158   2.571  14.832   3.890
41421SOL     OW26159   2.894   4.657  13.231
41421SOL    HW126160   2.951   4.719  13.277
41421SOL    HW226161   2.809   4.666  13.274
41422SOL     OW26162  12.220  12.197   8.756
41422SOL    HW126163  12.240  12.272   8.700
41422SOL    HW226164  12.303  12.176   8.799
41423SOL     OW26165   9.780  13.193   1.266
41423SOL    HW126166   9.832  13.121   1.230
41423SOL    HW226167   9.751  13.161   1.352
41424SOL     OW26168   9.051  10.775  10.492
41424SOL    HW126169   9.127  10.780  10.550
41424SOL    HW226170   9.034  10.682  10.483
41425SOL     OW26171  10.577   5.670  13.320
41425SOL    HW126172  10.513   5.737  13.343
41425SOL    HW226173  10.525   5.601  13.279
41426SOL     OW26174   6.264  11.907  11.408
41426SOL    HW126175   6.303  11.872  11.488
41426SOL    HW226176   6.319  11.982  11.385
41427SOL     OW26177   6.218   9.587   8.338
41427SOL    HW126178   6.170   9.606   8.418
41427SOL    HW226179   6.298   9.543   8.368
41428SOL     OW26180  11.028   0.111   3.950
41428SOL    HW126181  10.952   0.168   3.941
41428SOL    HW226182  11.103   0.169   3.937
41429SOL     OW26183   2.265   7.646  14.823
41429SOL    HW126184   2.324   7.717  14.797
41429SOL    HW226185   2.260   7.653   0.047
41430SOL     OW26186   8.299  13.941  14.870
41430SOL    HW126187   8.259  13.970  14.788
41430SOL    HW226188   8.256  13.857   0.017
41431SOL     OW26189   9.521   3.387   3.822
41431SOL    HW126190   9.448   3.327   3.809
41431SOL    HW226191   9.486   3.473   3.796
41432SOL     OW26192   0.586  12.995  11.566
41432SOL    HW126193   0.538  13.067  11.524
41432SOL    HW226194   0.640  12.958  11.495
41433SOL     OW26195  13.769   6.973   2.907
41433SOL    HW126196  13.747   7.045   2.848
41433SOL    HW226197  13.830   6.919   2.857
41434SOL     OW26198   1.506   2.471  12.250
41434SOL    HW126199   1.453   2.512  12.181
41434SOL    HW226200   1.467   2.384  12.261
41435SOL     OW26201   6.593   1.106   9.289
41435SOL    HW126202   6.583   1.033   9.351
41435SOL    HW226203   6.686   1.129   9.295
41436SOL     OW26204   6.224   2.423  12.952
41436SOL    HW126205   6.167   2.397  12.879
41436SOL    HW226206   6.311   2.427  12.913
41437SOL     OW26207   0.849  11.348   1.895
41437SOL    HW126208   0.889  11.293   1.828
41437SOL    HW226209   0.826  11.429   1.850
41438SOL     OW26210   8.066  13.966   1.247
41438SOL    HW126211   8.048  13.904   1.177
41438SOL    HW226212   8.060  13.914   1.327
41439SOL     OW26213   0.785  11.341  12.197
41439SOL    HW126214   0.781  11.255  12.239
41439SOL    HW226215   0.701  11.381  12.218
41440SOL     OW26216   4.547   8.343   5.481
41440SOL    HW126217   4.476   8.350   5.418
41440SOL    HW226218   4.583   8.431   5.487
41441SOL     OW26219   3.990   3.306   8.722
41441SOL    HW126220   4.051   3.266   8.659
41441SOL    HW226221   3.977   3.238   8.788
41442SOL     OW26222   4.958   2.239   9.147
41442SOL    HW126223   5.023   2.269   9.083
41442SOL    HW226224   4.967   2.143   9.147
41443SOL     OW26225  10.981  14.590   1.037
41443SOL    HW126226  11.008  14.501   1.014
41443SOL    HW226227  11.016  14.644   0.966
41444SOL     OW26228   1.412   8.586  12.397
41444SOL    HW126229   1.367   8.612  12.316
41444SOL    HW226230   1.453   8.667  12.429
41445SOL     OW26231   9.836   1.819  12.024
41445SOL    HW126232   9.843   1.913  12.009
41445SOL    HW226233   9.820   1.811  12.118
41446SOL     OW26234   0.078   3.620   6.731
41446SOL    HW126235   0.002   3.578   6.771
41446SOL    HW226236   0.138   3.637   6.804
41447SOL     OW26237   3.648  11.736   4.855
41447SOL    HW126238   3.683  11.657   4.897
41447SOL    HW226239   3.584  11.703   4.792
41448SOL     OW26240  10.496   9.044  13.238
41448SOL    HW126241  10.589   9.041  13.217
41448SOL    HW226242  10.456   9.088  13.162
41449SOL     OW26243   6.831  14.383   7.194
41449SOL    HW126244   6.894  14.418   7.131
41449SOL    HW226245   6.761  14.346   7.140
41450SOL     OW26246   9.661   2.806   2.476
41450SOL    HW126247   9.594   2.841   2.535
41450SOL    HW226248   9.702   2.884   2.438
41451SOL     OW26249   6.260   2.903   7.779
41451SOL    HW126250   6.248   2.997   7.791
41451SOL    HW226251   6.304   2.895   7.694
41452SOL     OW26252   4.418   0.282   2.625
41452SOL    HW126253   4.369   0.315   2.550
41452SOL    HW226254   4.487   0.227   2.587
41453SOL     OW26255   1.071   1.117   5.679
41453SOL    HW126256   1.008   1.116   5.751
41453SOL    HW226257   1.044   1.045   5.622
41454SOL     OW26258  11.686   9.837   9.092
41454SOL    HW126259  11.609   9.813   9.040
41454SOL    HW226260  11.650   9.882   9.169
41455SOL     OW26261  12.048   0.307   3.908
41455SOL    HW126262  11.982   0.376   3.914
41455SOL    HW226263  12.053   0.272   3.997
41456SOL     OW26264   4.066   1.162  11.492
41456SOL    HW126265   4.034   1.073  11.474
41456SOL    HW226266   4.161   1.155  11.482
41457SOL     OW26267   7.414   3.223   4.889
41457SOL    HW126268   7.375   3.148   4.844
41457SOL    HW226269   7.349   3.293   4.879
41458SOL     OW26270   7.562   0.579   3.381
41458SOL    HW126271   7.510   0.628   3.317
41458SOL    HW226272   7.519   0.494   3.387
41459SOL     OW26273   9.180   3.314   2.978
41459SOL    HW126274   9.096   3.316   2.933
41459SOL    HW226275   9.223   3.235   2.945
41460SOL     OW26276  14.175   3.271  11.136
41460SOL    HW126277  14.089   3.311  11.146
41460SOL    HW226278  14.222   3.330  11.077
41461SOL     OW26279   9.665   5.675  10.604
41461SOL    HW126280   9.598   5.607  10.611
41461SOL    HW226281   9.637   5.743  10.665
41462SOL     OW26282   7.053   7.946  12.694
41462SOL    HW126283   7.027   7.856  12.678
41462SOL    HW226284   6.972   7.989  12.723
41463SOL     OW26285   4.722   5.282  10.209
41463SOL    HW126286   4.775   5.362  10.202
41463SOL    HW226287   4.705   5.272  10.302
41464SOL     OW26288  14.740  12.047   1.750
41464SOL    HW126289  14.650  12.071   1.730
41464SOL    HW226290  14.781  12.129   1.779
41465SOL     OW26291   2.727  14.526   6.189
41465SOL    HW126292   2.675  14.459   6.145
41465SOL    HW226293   2.677  14.606   6.178
41466SOL     OW26294  10.029  14.702   3.152
41466SOL    HW126295  10.118  14.687   3.120
41466SOL    HW226296  10.018  14.797   3.150
41467SOL     OW26297  12.590  10.167   4.391
41467SOL    HW126298  12.677  10.173   4.431
41467SOL    HW226299  12.606  10.130   4.304
41468SOL     OW26300   9.347   5.033   7.170
41468SOL    HW126301   9.268   4.984   7.192
41468SOL    HW226302   9.317   5.123   7.159
41469SOL     OW26303   0.061   7.149   1.005
41469SOL    HW126304   0.050   7.074   0.947
41469SOL    HW226305  14.867   7.212   0.976
41470SOL     OW26306   8.622   9.827  12.135
41470SOL    HW126307   8.534   9.809  12.167
41470SOL    HW226308   8.676   9.833  12.214
41471SOL     OW26309   7.217  12.940   1.760
41471SOL    HW126310   7.168  13.017   1.790
41471SOL    HW226311   7.308  12.962   1.776
41472SOL     OW26312   7.974   0.304   1.553
41472SOL    HW126313   7.962   0.236   1.487
41472SOL    HW226314   8.023   0.373   1.508
41473SOL     OW26315  13.283  13.612  10.864
41473SOL    HW126316  13.236  13.566  10.794
41473SOL    HW226317  13.336  13.678  10.818
41474SOL     OW26318   1.088   1.613   9.330
41474SOL    HW126319   1.008   1.664   9.317
41474SOL    HW226320   1.057   1.529   9.365
41475SOL     OW26321   3.261   7.617  13.275
41475SOL    HW126322   3.194   7.590  13.212
41475SOL    HW226323   3.327   7.662  13.222
41476SOL     OW26324   4.223   5.071  12.869
41476SOL    HW126325   4.192   5.090  12.957
41476SOL    HW226326   4.143   5.060  12.817
41477SOL     OW26327   7.637   4.876  11.664
41477SOL    HW126328   7.677   4.789  11.667
41477SOL    HW226329   7.620   4.898  11.756
41478SOL     OW26330   9.010   3.165   7.609
41478SOL    HW126331   9.058   3.145   7.689
41478SOL    HW226332   8.927   3.202   7.640
41479SOL     OW26333   1.176   7.409   8.889
41479SOL    HW126334   1.193   7.501   8.909
41479SOL    HW226335   1.228   7.392   8.810
41480SOL     OW26336   7.214   5.501   0.256
41480SOL    HW126337   7.277   5.521   0.187
41480SOL    HW226338   7.264   5.454   0.323
41481SOL     OW26339   9.532   9.842   7.454
41481SOL    HW126340   9.466   9.844   7.385
41481SOL    HW226341   9.514   9.762   7.503
41482SOL     OW26342   2.033   2.377   2.282
41482SOL    HW126343   2.046   2.314   2.211
41482SOL    HW226344   1.984   2.449   2.242
41483SOL     OW26345   0.554   1.125   4.325
41483SOL    HW126346   0.621   1.193   4.328
41483SOL    HW226347   0.561   1.081   4.410
41484SOL     OW26348  14.544   1.414  10.339
41484SOL    HW126349  14.554   1.390  10.247
41484SOL    HW226350  14.460   1.460  10.343
41485SOL     OW26351  11.687   8.589   0.829
41485SOL    HW126352  11.618   8.618   0.770
41485SOL    HW226353  11.709   8.667   0.880
41486SOL     OW26354   2.940   2.999   5.533
41486SOL    HW126355   2.979   3.085   5.549
41486SOL    HW226356   3.015   2.940   5.528
41487SOL     OW26357  11.597   4.888   2.056
41487SOL    HW126358  11.539   4.913   2.128
41487SOL    HW226359  11.615   4.795   2.071
41488SOL     OW26360   1.831   4.272   2.505
41488SOL    HW126361   1.890   4.335   2.546
41488SOL    HW226362   1.775   4.242   2.576
41489SOL     OW26363  13.961   6.476   7.133
41489SOL    HW126364  14.055   6.494   7.129
41489SOL    HW226365  13.955   6.381   7.144
41490SOL     OW26366   1.365   1.811   6.962
41490SOL    HW126367   1.403   1.828   6.876
41490SOL    HW226368   1.435   1.769   7.012
41491SOL     OW26369   5.398   5.657   9.654
41491SOL    HW126370   5.401   5.752   9.665
41491SOL    HW226371   5.450   5.623   9.727
41492SOL     OW26372   4.066   1.791  12.998
41492SOL    HW126373   3.996   1.782  12.933
41492SOL    HW226374   4.087   1.885  12.997
41493SOL     OW26375  10.275  13.265   8.709
41493SOL    HW126376  10.323  13.288   8.630
41493SOL    HW226377  10.235  13.180   8.690
41494SOL     OW26378   6.422   4.490  13.998
41494SOL    HW126379   6.359   4.529  14.058
41494SOL    HW226380   6.481   4.440  14.054
41495SOL     OW26381   1.714  14.797   4.955
41495SOL    HW126382   1.756  14.821   4.872
41495SOL    HW226383   1.652  14.869   4.972
41496SOL     OW26384   1.921  12.965  12.526
41496SOL    HW126385   1.976  13.036  12.493
41496SOL    HW226386   1.914  12.981  12.620
41497SOL     OW26387  12.005   9.935   9.536
41497SOL    HW126388  11.921   9.971   9.564
41497SOL    HW226389  12.060   9.941   9.614
41498SOL     OW26390   4.499   7.722   3.078
41498SOL    HW126391   4.408   7.741   3.055
41498SOL    HW226392   4.494   7.680   3.164
41499SOL     OW26393   6.631   9.476   4.165
41499SOL    HW126394   6.648   9.385   4.190
41499SOL    HW226395   6.610   9.471   4.071
41500SOL     OW26396   6.176   1.124  14.256
41500SOL    HW126397   6.087   1.097  14.232
41500SOL    HW226398   6.221   1.043  14.279
41501SOL     OW26399   5.504   2.680  12.987
41501SOL    HW126400   5.485   2.736  12.912
41501SOL    HW226401   5.539   2.600  12.949
41502SOL     OW26402   8.791   7.190   4.936
41502SOL    HW126403   8.751   7.263   4.984
41502SOL    HW226404   8.844   7.144   5.001
41503SOL     OW26405   8.364  11.465   9.692
41503SOL    HW126406   8.455  11.441   9.677
41503SOL    HW226407   8.335  11.407   9.763
41504SOL     OW26408   0.228   2.072  13.945
41504SOL    HW126409   0.192   1.992  13.984
41504SOL    HW226410   0.165   2.140  13.967
41505SOL     OW26411  11.667   2.913  12.722
41505SOL    HW126412  11.664   2.820  12.746
41505SOL    HW226413  11.751   2.923  12.677
41506SOL     OW26414   9.950   3.993  11.892
41506SOL    HW126415   9.881   4.056  11.914
41506SOL    HW226416  10.012   4.043  11.838
41507SOL     OW26417  10.001  10.923   0.651
41507SOL    HW126418  10.038  10.898   0.736
41507SOL    HW226419  10.004  11.019   0.652
41508SOL     OW26420   9.729   7.828   3.609
41508SOL    HW126421   9.667   7.818   3.681
41508SOL    HW226422   9.815   7.835   3.651
41509SOL     OW26423  14.569   8.139  12.015
41509SOL    HW126424  14.655   8.134  11.972
41509SOL    HW226425  14.572   8.221  12.065
41510SOL     OW26426   2.100   3.645   2.732
41510SOL    HW126427   2.153   3.722   2.750
41510SOL    HW226428   2.157   3.589   2.679
41511SOL     OW26429   1.603   9.181  12.465
41511SOL    HW126430   1.520   9.193  12.420
41511SOL    HW226431   1.645   9.267  12.464
41512SOL     OW26432   2.537   7.697   9.009
41512SOL    HW126433   2.509   7.767   8.950
41512SOL    HW226434   2.632   7.695   9.000
41513SOL     OW26435  13.369   9.381   2.541
41513SOL    HW126436  13.299   9.445   2.550
41513SOL    HW226437  13.377   9.341   2.627
41514SOL     OW26438   5.599   0.545   1.844
41514SOL    HW126439   5.600   0.461   1.798
41514SOL    HW226440   5.535   0.534   1.914
41515SOL     OW26441  12.130   3.555  13.280
41515SOL    HW126442  12.190   3.620  13.243
41515SOL    HW226443  12.066   3.607  13.329
41516SOL     OW26444   0.354  12.497   4.699
41516SOL    HW126445   0.267  12.535   4.708
41516SOL    HW226446   0.362  12.438   4.774
41517SOL     OW26447   7.453   4.596   2.197
41517SOL    HW126448   7.510   4.663   2.234
41517SOL    HW226449   7.389   4.645   2.145
41518SOL     OW26450   5.912   0.439   4.524
41518SOL    HW126451   5.876   0.404   4.442
41518SOL    HW226452   6.007   0.436   4.511
41519SOL     OW26453   5.498  13.403  10.872
41519SOL    HW126454   5.491  13.314  10.906
41519SOL    HW226455   5.566  13.444  10.927
41520SOL     OW26456   6.370  11.948   8.242
41520SOL    HW126457   6.420  11.944   8.323
41520SOL    HW226458   6.405  11.877   8.188
41521SOL     OW26459  14.002  11.770   2.951
41521SOL    HW126460  14.003  11.859   2.984
41521SOL    HW226461  13.914  11.759   2.914
41522SOL     OW26462   4.177  13.787   2.654
41522SOL    HW126463   4.212  13.844   2.723
41522SOL    HW226464   4.082  13.793   2.662
41523SOL     OW26465   4.307   8.806  11.670
41523SOL    HW126466   4.400   8.799  11.693
41523SOL    HW226467   4.272   8.719  11.689
41524SOL     OW26468   9.837   0.545   4.915
41524SOL    HW126469   9.869   0.624   4.960
41524SOL    HW226470   9.751   0.529   4.954
41525SOL     OW26471  10.160   6.764   5.506
41525SOL    HW126472  10.089   6.825   5.526
41525SOL    HW226473  10.236   6.821   5.489
41526SOL     OW26474  11.729  14.559  13.453
41526SOL    HW126475  11.637  14.548  13.431
41526SOL    HW226476  11.776  14.543  13.371
41527SOL     OW26477   4.210   7.319  12.397
41527SOL    HW126478   4.143   7.385  12.409
41527SOL    HW226479   4.189   7.252  12.462
41528SOL     OW26480   1.774  13.057   9.511
41528SOL    HW126481   1.800  12.975   9.469
41528SOL    HW226482   1.837  13.068   9.583
41529SOL     OW26483   4.797   2.803   7.376
41529SOL    HW126484   4.802   2.898   7.385
41529SOL    HW226485   4.876   2.781   7.326
41530SOL     OW26486   7.603  13.270   2.249
41530SOL    HW126487   7.607  13.189   2.300
41530SOL    HW226488   7.510  13.293   2.247
41531SOL     OW26489   8.160   8.350   0.956
41531SOL    HW126490   8.204   8.401   1.024
41531SOL    HW226491   8.068   8.347   0.983
41532SOL     OW26492   4.787  14.241   7.888
41532SOL    HW126493   4.820  14.312   7.944
41532SOL    HW226494   4.817  14.161   7.930
41533SOL     OW26495  12.975   7.743  10.311
41533SOL    HW126496  13.051   7.737  10.369
41533SOL    HW226497  12.944   7.833  10.321
41534SOL     OW26498   8.239   0.218  10.177
41534SOL    HW126499   8.246   0.311  10.200
41534SOL    HW226500   8.150   0.208  10.142
41535SOL     OW26501  12.206   7.000   7.094
41535SOL    HW126502  12.282   7.022   7.039
41535SOL    HW226503  12.136   6.980   7.032
41536SOL     OW26504   8.097   9.989   8.342
41536SOL    HW126505   8.062  10.073   8.368
41536SOL    HW226506   8.110   9.941   8.424
41537SOL     OW26507   5.727   6.799   7.973
41537SOL    HW126508   5.702   6.710   7.999
41537SOL    HW226509   5.820   6.804   7.993
41538SOL     OW26510   8.070   0.849   2.588
41538SOL    HW126511   8.107   0.854   2.500
41538SOL    HW226512   8.144   0.865   2.646
41539SOL     OW26513   2.745   8.761   4.945
41539SOL    HW126514   2.731   8.715   5.028
41539SOL    HW226515   2.813   8.826   4.965
41540SOL     OW26516  12.057  11.279  12.733
41540SOL    HW126517  11.994  11.252  12.800
41540SOL    HW226518  12.060  11.374  12.740
41541SOL     OW26519   3.999   4.260  10.322
41541SOL    HW126520   3.998   4.271  10.227
41541SOL    HW226521   4.073   4.202  10.338
41542SOL     OW26522   3.257   8.698  13.103
41542SOL    HW126523   3.282   8.728  13.190
41542SOL    HW226524   3.334   8.651  13.071
41543SOL     OW26525   2.632   1.700   5.386
41543SOL    HW126526   2.599   1.693   5.297
41543SOL    HW226527   2.721   1.733   5.376
41544SOL     OW26528   7.445   4.655   0.129
41544SOL    HW126529   7.411   4.595   0.195
41544SOL    HW226530   7.515   4.702   0.173
41545SOL     OW26531   9.443   2.219   3.636
41545SOL    HW126532   9.485   2.178   3.561
41545SOL    HW226533   9.388   2.288   3.599
41546SOL     OW26534   9.643   3.496   4.685
41546SOL    HW126535   9.658   3.518   4.593
41546SOL    HW226536   9.658   3.579   4.731
41547SOL     OW26537  12.703   0.883   6.776
41547SOL    HW126538  12.752   0.962   6.753
41547SOL    HW226539  12.721   0.822   6.704
41548SOL     OW26540   5.278  11.982   1.664
41548SOL    HW126541   5.362  12.025   1.680
41548SOL    HW226542   5.300  11.907   1.609
41549SOL     OW26543   4.906   4.793  14.677
41549SOL    HW126544   4.932   4.732  14.608
41549SOL    HW226545   4.825   4.832  14.645
41550SOL     OW26546  13.341  10.932  14.652
41550SOL    HW126547  13.246  10.924  14.643
41550SOL    HW226548  13.356  11.026  14.667
41551SOL     OW26549  10.066   5.694  14.566
41551SOL    HW126550   9.971   5.701  14.558
41551SOL    HW226551  10.096   5.785  14.563
41552SOL     OW26552   9.181   8.514  13.005
41552SOL    HW126553   9.122   8.463  12.949
41552SOL    HW226554   9.209   8.452  13.072
41553SOL     OW26555   9.664  14.071   1.271
41553SOL    HW126556   9.600  14.044   1.205
41553SOL    HW226557   9.699  13.989   1.306
41554SOL     OW26558  11.824   5.639   4.563
41554SOL    HW126559  11.840   5.547   4.583
41554SOL    HW226560  11.783   5.639   4.477
41555SOL     OW26561  10.384   2.544   1.298
41555SOL    HW126562  10.397   2.450   1.308
41555SOL    HW226563  10.465   2.576   1.258
41556SOL     OW26564   1.019   5.078   9.624
41556SOL    HW126565   0.968   5.154   9.653
41556SOL    HW226566   1.105   5.090   9.666
41557SOL     OW26567   9.427   2.332  12.885
41557SOL    HW126568   9.346   2.360  12.928
41557SOL    HW226569   9.397   2.282  12.809
41558SOL     OW26570   1.879   6.842   9.814
41558SOL    HW126571   1.844   6.798   9.737
41558SOL    HW226572   1.885   6.773   9.880
41559SOL     OW26573   5.919   2.709  12.749
41559SOL    HW126574   5.958   2.701  12.662
41559SOL    HW226575   5.967   2.780  12.791
41560SOL     OW26576  11.835   4.941   5.827
41560SOL    HW126577  11.872   4.920   5.913
41560SOL    HW226578  11.853   4.864   5.773
41561SOL     OW26579  14.295  11.660  12.746
41561SOL    HW126580  14.238  11.734  12.725
41561SOL    HW226581  14.359  11.658  12.675
41562SOL     OW26582  14.419   9.545  10.217
41562SOL    HW126583  14.460   9.499  10.144
41562SOL    HW226584  14.490   9.593  10.259
41563SOL     OW26585   2.785  14.549   2.045
41563SOL    HW126586   2.735  14.630   2.038
41563SOL    HW226587   2.876  14.578   2.057
41564SOL     OW26588  11.543   1.927   7.658
41564SOL    HW126589  11.501   1.981   7.591
41564SOL    HW226590  11.485   1.852   7.668
41565SOL     OW26591   8.702   6.838  12.923
41565SOL    HW126592   8.692   6.908  12.988
41565SOL    HW226593   8.790   6.804  12.938
41566SOL     OW26594  10.149  10.564   7.269
41566SOL    HW126595  10.168  10.579   7.361
41566SOL    HW226596  10.055  10.582   7.260
41567SOL     OW26597  10.328  11.311   4.024
41567SOL    HW126598  10.391  11.382   4.009
41567SOL    HW226599  10.327  11.262   3.942
41568SOL     OW26600   1.033   0.373   1.224
41568SOL    HW126601   1.064   0.460   1.199
41568SOL    HW226602   1.081   0.313   1.167
41569SOL     OW26603   2.379   6.824   4.742
41569SOL    HW126604   2.309   6.797   4.800
41569SOL    HW226605   2.354   6.912   4.713
41570SOL     OW26606  10.842  14.559   8.210
41570SOL    HW126607  10.893  14.479   8.197
41570SOL    HW226608  10.752  14.529   8.223
41571SOL     OW26609  10.411  13.992  11.116
41571SOL    HW126610  10.369  13.965  11.034
41571SOL    HW226611  10.470  14.063  11.091
41572SOL     OW26612   1.409   9.503   4.976
41572SOL    HW126613   1.353   9.463   4.909
41572SOL    HW226614   1.497   9.478   4.951
41573SOL     OW26615   1.143  12.007   3.001
41573SOL    HW126616   1.168  12.038   3.088
41573SOL    HW226617   1.208  12.044   2.943
41574SOL     OW26618   6.420   0.939   2.745
41574SOL    HW126619   6.444   1.020   2.699
41574SOL    HW226620   6.485   0.930   2.814
41575SOL     OW26621   0.241   0.042   9.384
41575SOL    HW126622   0.178   0.081   9.444
41575SOL    HW226623   0.193  14.843   9.341
41576SOL     OW26624   0.732   5.558  13.887
41576SOL    HW126625   0.652   5.594  13.850
41576SOL    HW226626   0.802   5.605  13.842
41577SOL     OW26627   1.767  13.555   1.179
41577SOL    HW126628   1.740  13.495   1.248
41577SOL    HW226629   1.837  13.607   1.218
41578SOL     OW26630   0.940   3.698  10.238
41578SOL    HW126631   0.896   3.740  10.312
41578SOL    HW226632   0.874   3.697  10.168
41579SOL     OW26633  11.600   3.746   6.802
41579SOL    HW126634  11.653   3.680   6.846
41579SOL    HW226635  11.638   3.830   6.830
41580SOL     OW26636  14.164  11.885   8.440
41580SOL    HW126637  14.249  11.856   8.474
41580SOL    HW226638  14.184  11.967   8.395
41581SOL     OW26639  14.798   8.825   4.643
41581SOL    HW126640  14.737   8.844   4.573
41581SOL    HW226641   0.013   8.843   4.605
41582SOL     OW26642   0.562   2.094   7.829
41582SOL    HW126643   0.629   2.090   7.761
41582SOL    HW226644   0.479   2.100   7.781
41583SOL     OW26645   4.514   5.236  10.051
41583SOL    HW126646   4.585   5.258  10.111
41583SOL    HW226647   4.494   5.144  10.070
41584SOL     OW26648   7.827  14.261  10.770
41584SOL    HW126649   7.843  14.214  10.689
41584SOL    HW226650   7.796  14.194  10.831
41585SOL     OW26651   0.090   7.467   5.831
41585SOL    HW126652   0.170   7.442   5.878
41585SOL    HW226653   0.043   7.523   5.893
41586SOL     OW26654  12.902   6.703   1.012
41586SOL    HW126655  12.962   6.769   1.046
41586SOL    HW226656  12.863   6.664   1.090
41587SOL     OW26657  11.665   4.770  13.721
41587SOL    HW126658  11.731   4.824  13.763
41587SOL    HW226659  11.669   4.794  13.628
41588SOL     OW26660   9.639   3.882  11.877
41588SOL    HW126661   9.652   3.970  11.913
41588SOL    HW226662   9.600   3.833  11.949
41589SOL     OW26663  13.952   6.687  10.027
41589SOL    HW126664  13.945   6.749  10.099
41589SOL    HW226665  14.034   6.640  10.044
41590SOL     OW26666   9.806  11.814   7.845
41590SOL    HW126667   9.790  11.907   7.860
41590SOL    HW226668   9.872  11.812   7.775
41591SOL     OW26669   7.352   4.084   1.713
41591SOL    HW126670   7.419   4.103   1.647
41591SOL    HW226671   7.400   4.073   1.794
41592SOL     OW26672   7.119  12.253  14.416
41592SOL    HW126673   7.154  12.164  14.413
41592SOL    HW226674   7.167  12.300  14.348
41593SOL     OW26675   8.017  10.236   8.437
41593SOL    HW126676   7.952  10.304   8.453
41593SOL    HW226677   8.091  10.260   8.493
41594SOL     OW26678  14.817   6.420  10.854
41594SOL    HW126679   0.010   6.437  10.922
41594SOL    HW226680  14.796   6.328  10.863
41595SOL     OW26681   7.461   2.543   9.805
41595SOL    HW126682   7.369   2.526   9.826
41595SOL    HW226683   7.502   2.567   9.888
41596SOL     OW26684   1.414   2.116  14.266
41596SOL    HW126685   1.417   2.065  14.185
41596SOL    HW226686   1.493   2.170  14.264
41597SOL     OW26687   8.221   1.965   6.281
41597SOL    HW126688   8.304   2.004   6.253
41597SOL    HW226689   8.158   1.989   6.213
41598SOL     OW26690  11.858   4.587   7.209
41598SOL    HW126691  11.860   4.498   7.172
41598SOL    HW226692  11.933   4.631   7.169
41599SOL     OW26693  12.004  13.615   9.784
41599SOL    HW126694  12.007  13.575   9.697
41599SOL    HW226695  12.007  13.541   9.844
41600SOL     OW26696   1.226   6.730   0.328
41600SOL    HW126697   1.169   6.787   0.381
41600SOL    HW226698   1.302   6.785   0.308
41601SOL     OW26699   5.693  14.766   2.891
41601SOL    HW126700   5.731  14.802   2.971
41601SOL    HW226701   5.645  14.689   2.921
41602SOL     OW26702   8.584  10.448  11.390
41602SOL    HW126703   8.537  10.399  11.323
41602SOL    HW226704   8.552  10.412  11.473
41603SOL     OW26705  11.068   0.535  14.073
41603SOL    HW126706  11.109   0.449  14.085
41603SOL    HW226707  10.975   0.515  14.061
41604SOL     OW26708   4.169   2.739   1.979
41604SOL    HW126709   4.258   2.735   1.945
41604SOL    HW226710   4.149   2.832   1.983
41605SOL     OW26711  10.491  12.874   5.064
41605SOL    HW126712  10.478  12.828   4.982
41605SOL    HW226713  10.471  12.808   5.132
41606SOL     OW26714   4.709   7.204   2.892
41606SOL    HW126715   4.725   7.296   2.871
41606SOL    HW226716   4.768   7.186   2.965
41607SOL     OW26717   8.437   7.040   1.519
41607SOL    HW126718   8.404   6.965   1.567
41607SOL    HW226719   8.403   7.116   1.566
41608SOL     OW26720   7.293   9.441   1.707
41608SOL    HW126721   7.203   9.459   1.733
41608SOL    HW226722   7.316   9.361   1.754
41609SOL     OW26723  13.127   0.370   3.487
41609SOL    HW126724  13.111   0.366   3.581
41609SOL    HW226725  13.042   0.353   3.447
41610SOL     OW26726   8.386   8.100   0.549
41610SOL    HW126727   8.370   8.123   0.640
41610SOL    HW226728   8.342   8.168   0.499
41611SOL     OW26729   8.740   1.272   3.648
41611SOL    HW126730   8.749   1.216   3.725
41611SOL    HW226731   8.655   1.251   3.612
41612SOL     OW26732   8.508   1.265   0.525
41612SOL    HW126733   8.579   1.318   0.488
41612SOL    HW226734   8.541   1.236   0.610
41613SOL     OW26735  12.713  14.242   5.302
41613SOL    HW126736  12.661  14.249   5.381
41613SOL    HW226737  12.780  14.310   5.310
41614SOL     OW26738   4.961   6.665  13.030
41614SOL    HW126739   5.039   6.707  13.065
41614SOL    HW226740   4.901   6.659  13.104
41615SOL     OW26741   2.395  10.373   4.491
41615SOL    HW126742   2.417  10.444   4.431
41615SOL    HW226743   2.479  10.347   4.529
41616SOL     OW26744   8.112  10.498   7.503
41616SOL    HW126745   8.095  10.463   7.590
41616SOL    HW226746   8.141  10.422   7.452
41617SOL     OW26747   5.845  13.312  14.156
41617SOL    HW126748   5.904  13.238  14.140
41617SOL    HW226749   5.780  13.277  14.217
41618SOL     OW26750   7.686   2.613   6.020
41618SOL    HW126751   7.713   2.536   5.970
41618SOL    HW226752   7.631   2.663   5.960
41619SOL     OW26753  11.094  12.811   6.923
41619SOL    HW126754  11.091  12.724   6.882
41619SOL    HW226755  11.096  12.872   6.849
41620SOL     OW26756   5.032  14.157  14.459
41620SOL    HW126757   5.121  14.193  14.453
41620SOL    HW226758   4.976  14.234  14.465
41621SOL     OW26759   0.681   2.048  11.995
41621SOL    HW126760   0.700   2.068  11.903
41621SOL    HW226761   0.684   2.134  12.038
41622SOL     OW26762   1.331  12.371   3.903
41622SOL    HW126763   1.334  12.396   3.811
41622SOL    HW226764   1.260  12.308   3.909
41623SOL     OW26765   5.669   3.567  11.628
41623SOL    HW126766   5.654   3.655  11.664
41623SOL    HW226767   5.684   3.512  11.704
41624SOL     OW26768   3.651  14.740  13.746
41624SOL    HW126769   3.729  14.722  13.798
41624SOL    HW226770   3.680  14.802  13.679
41625SOL     OW26771   8.938   0.809  13.603
41625SOL    HW126772   8.996   0.866  13.552
41625SOL    HW226773   8.930   0.730  13.551
41626SOL     OW26774   2.583   5.422   2.558
41626SOL    HW126775   2.609   5.332   2.579
41626SOL    HW226776   2.591   5.469   2.640
41627SOL     OW26777  12.598   1.181   9.391
41627SOL    HW126778  12.516   1.150   9.352
41627SOL    HW226779  12.647   1.101   9.410
41628SOL     OW26780  12.879   3.895   7.838
41628SOL    HW126781  12.954   3.857   7.885
41628SOL    HW226782  12.903   3.886   7.746
41629SOL     OW26783  11.891  11.758   3.891
41629SOL    HW126784  11.923  11.779   3.979
41629SOL    HW226785  11.861  11.667   3.898
41630SOL     OW26786   6.817  11.221  13.588
41630SOL    HW126787   6.796  11.248  13.498
41630SOL    HW226788   6.885  11.154  13.577
41631SOL     OW26789  14.670  10.436   4.104
41631SOL    HW126790  14.662  10.341   4.093
41631SOL    HW226791  14.704  10.467   4.021
41632SOL     OW26792   4.640  12.706  13.085
41632SOL    HW126793   4.672  12.692  12.996
41632SOL    HW226794   4.570  12.769  13.075
41633SOL     OW26795  12.197   3.339   0.480
41633SOL    HW126796  12.113   3.298   0.501
41633SOL    HW226797  12.261   3.270   0.494
41634SOL     OW26798  10.789   0.796   4.738
41634SOL    HW126799  10.706   0.836   4.710
41634SOL    HW226800  10.842   0.869   4.770
41635SOL     OW26801  14.364   2.744   6.249
41635SOL    HW126802  14.372   2.836   6.272
41635SOL    HW226803  14.381   2.741   6.154
41636SOL     OW26804   8.011   2.722  10.737
41636SOL    HW126805   8.042   2.772  10.661
41636SOL    HW226806   7.993   2.788  10.804
41637SOL     OW26807   6.275   6.844   4.826
41637SOL    HW126808   6.240   6.806   4.906
41637SOL    HW226809   6.197   6.865   4.774
41638SOL     OW26810   6.758   2.515   8.468
41638SOL    HW126811   6.706   2.575   8.522
41638SOL    HW226812   6.734   2.539   8.378
41639SOL     OW26813   6.218  10.123   7.197
41639SOL    HW126814   6.162  10.179   7.251
41639SOL    HW226815   6.307  10.153   7.214
41640SOL     OW26816   3.968   8.318   5.353
41640SOL    HW126817   4.061   8.299   5.341
41640SOL    HW226818   3.923   8.244   5.313
41641SOL     OW26819  13.102   6.772   3.292
41641SOL    HW126820  13.175   6.833   3.290
41641SOL    HW226821  13.081   6.762   3.385
41642SOL     OW26822   5.060   7.909   5.195
41642SOL    HW126823   5.033   7.817   5.194
41642SOL    HW226824   4.982   7.957   5.166
41643SOL     OW26825   9.435   0.993  10.385
41643SOL    HW126826   9.442   0.946  10.468
41643SOL    HW226827   9.343   0.987  10.362
41644SOL     OW26828   2.703   3.087   6.315
41644SOL    HW126829   2.608   3.075   6.317
41644SOL    HW226830   2.732   3.040   6.237
41645SOL     OW26831  12.008   8.902  13.542
41645SOL    HW126832  12.001   8.885  13.448
41645SOL    HW226833  12.100   8.925  13.555
41646SOL     OW26834   7.695   2.800  12.231
41646SOL    HW126835   7.731   2.746  12.302
41646SOL    HW226836   7.726   2.758  12.151
41647SOL     OW26837   1.854  10.871   1.717
41647SOL    HW126838   1.916  10.822   1.772
41647SOL    HW226839   1.901  10.951   1.694
41648SOL     OW26840   8.078   5.808  13.808
41648SOL    HW126841   8.109   5.727  13.849
41648SOL    HW226842   8.140   5.875  13.836
41649SOL     OW26843   6.021   6.642   0.155
41649SOL    HW126844   5.993   6.726   0.117
41649SOL    HW226845   6.114   6.654   0.174
41650SOL     OW26846   2.461  11.139   9.941
41650SOL    HW126847   2.399  11.115  10.009
41650SOL    HW226848   2.514  11.061   9.927
41651SOL     OW26849  12.102   5.874   5.545
41651SOL    HW126850  12.050   5.930   5.602
41651SOL    HW226851  12.101   5.788   5.587
41652SOL     OW26852   3.106   0.972   1.300
41652SOL    HW126853   3.084   0.917   1.376
41652SOL    HW226854   3.200   0.957   1.287
41653SOL     OW26855   5.734  10.225   3.106
41653SOL    HW126856   5.652  10.261   3.139
41653SOL    HW226857   5.714  10.195   3.017
41654SOL     OW26858   8.745   7.786  14.814
41654SOL    HW126859   8.670   7.821  14.766
41654SOL    HW226860   8.745   7.833   0.026
41655SOL     OW26861   1.443  14.603   1.196
41655SOL    HW126862   1.431  14.698   1.188
41655SOL    HW226863   1.498  14.580   1.122
41656SOL     OW26864   0.238   4.184  12.889
41656SOL    HW126865   0.201   4.095  12.894
41656SOL    HW226866   0.323   4.172  12.848
41657SOL     OW26867   4.981   3.384   4.624
41657SOL    HW126868   4.973   3.471   4.586
41657SOL    HW226869   4.981   3.325   4.549
41658SOL     OW26870  13.685   8.339   3.816
41658SOL    HW126871  13.715   8.304   3.732
41658SOL    HW226872  13.762   8.380   3.854
41659SOL     OW26873   0.842  11.169   7.899
41659SOL    HW126874   0.931  11.201   7.885
41659SOL    HW226875   0.820  11.198   7.987
41660SOL     OW26876  13.753   3.564   5.612
41660SOL    HW126877  13.664   3.533   5.590
41660SOL    HW226878  13.739   3.632   5.677
41661SOL     OW26879   4.207  14.765   9.343
41661SOL    HW126880   4.138  14.709   9.377
41661SOL    HW226881   4.191  14.850   9.385
41662SOL     OW26882   1.939   6.506   4.330
41662SOL    HW126883   2.019   6.537   4.287
41662SOL    HW226884   1.934   6.556   4.411
41663SOL     OW26885  13.164   7.927  13.128
41663SOL    HW126886  13.188   7.835  13.140
41663SOL    HW226887  13.098   7.944  13.194
41664SOL     OW26888   3.329  13.690  11.379
41664SOL    HW126889   3.361  13.700  11.290
41664SOL    HW226890   3.390  13.630  11.421
41665SOL     OW26891   1.178   0.840   6.526
41665SOL    HW126892   1.201   0.827   6.434
41665SOL    HW226893   1.259   0.823   6.574
41666SOL     OW26894   1.280   8.029   5.270
41666SOL    HW126895   1.210   8.008   5.332
41666SOL    HW226896   1.298   8.122   5.286
41667SOL     OW26897   9.215  11.988  13.078
41667SOL    HW126898   9.221  11.907  13.128
41667SOL    HW226899   9.132  12.027  13.105
41668SOL     OW26900  14.755   4.513  13.004
41668SOL    HW126901  14.721   4.453  12.937
41668SOL    HW226902  14.744   4.600  12.967
41669SOL     OW26903  11.146   6.988   6.770
41669SOL    HW126904  11.058   6.997   6.733
41669SOL    HW226905  11.181   6.909   6.730
41670SOL     OW26906  13.954  12.933   8.852
41670SOL    HW126907  13.961  12.915   8.946
41670SOL    HW226908  13.872  12.982   8.842
41671SOL     OW26909   7.802   7.402  12.038
41671SOL    HW126910   7.854   7.468  11.990
41671SOL    HW226911   7.759   7.352  11.969
41672SOL     OW26912  11.014  11.306  13.430
41672SOL    HW126913  10.944  11.358  13.390
41672SOL    HW226914  10.976  11.272  13.511
41673SOL     OW26915   0.186   1.107   3.923
41673SOL    HW126916   0.197   1.187   3.975
41673SOL    HW226917   0.274   1.071   3.915
41674SOL     OW26918   7.014   0.177   2.335
41674SOL    HW126919   6.944   0.201   2.274
41674SOL    HW226920   6.992   0.088   2.363
41675SOL     OW26921   8.275   4.753   9.222
41675SOL    HW126922   8.359   4.796   9.203
41675SOL    HW226923   8.266   4.688   9.153
41676SOL     OW26924  13.355   4.594   4.962
41676SOL    HW126925  13.282   4.621   4.906
41676SOL    HW226926  13.320   4.521   5.014
41677SOL     OW26927  10.360   8.430  11.844
41677SOL    HW126928  10.346   8.431  11.939
41677SOL    HW226929  10.375   8.521  11.821
41678SOL     OW26930  13.744   2.645  10.862
41678SOL    HW126931  13.650   2.661  10.850
41678SOL    HW226932  13.748   2.569  10.920
41679SOL     OW26933   7.200  12.062   4.190
41679SOL    HW126934   7.185  11.975   4.227
41679SOL    HW226935   7.124  12.113   4.217
41680SOL     OW26936  11.759  11.525  12.136
41680SOL    HW126937  11.714  11.609  12.137
41680SOL    HW226938  11.833  11.536  12.195
41681SOL     OW26939   6.474   9.559   0.606
41681SOL    HW126940   6.500   9.632   0.550
41681SOL    HW226941   6.524   9.571   0.686
41682SOL     OW26942  11.995   3.304   4.991
41682SOL    HW126943  11.942   3.315   4.912
41682SOL    HW226944  11.957   3.366   5.053
41683SOL     OW26945   3.597   0.592   7.095
41683SOL    HW126946   3.552   0.523   7.144
41683SOL    HW226947   3.654   0.545   7.034
41684SOL     OW26948   0.049   5.648   0.098
41684SOL    HW126949  14.829   5.638   0.122
41684SOL    HW226950   0.089   5.564   0.119
41685SOL     OW26951  14.559  10.801  14.595
41685SOL    HW126952  14.508  10.756  14.662
41685SOL    HW226953  14.623  10.853  14.644
41686SOL     OW26954   0.311   3.370  12.826
41686SOL    HW126955   0.270   3.435  12.883
41686SOL    HW226956   0.359   3.421  12.761
41687SOL     OW26957  11.019   5.605   2.392
41687SOL    HW126958  11.095   5.595   2.334
41687SOL    HW226959  11.015   5.699   2.409
41688SOL     OW26960  11.481  14.274  13.174
41688SOL    HW126961  11.475  14.179  13.170
41688SOL    HW226962  11.575  14.292  13.179
41689SOL     OW26963  13.330  12.135  13.650
41689SOL    HW126964  13.244  12.176  13.659
41689SOL    HW226965  13.377  12.161  13.729
41690SOL     OW26966   0.369   3.347   0.760
41690SOL    HW126967   0.283   3.381   0.736
41690SOL    HW226968   0.430   3.397   0.705
41691SOL     OW26969   4.869   7.684  11.668
41691SOL    HW126970   4.827   7.611  11.622
41691SOL    HW226971   4.921   7.728  11.600
41692SOL     OW26972   1.572   6.033  14.759
41692SOL    HW126973   1.500   6.059  14.701
41692SOL    HW226974   1.579   5.938  14.748
41693SOL     OW26975  10.805   1.558   5.903
41693SOL    HW126976  10.763   1.480   5.867
41693SOL    HW226977  10.760   1.631   5.861
41694SOL     OW26978   8.955   9.817   5.781
41694SOL    HW126979   9.003   9.819   5.864
41694SOL    HW226980   9.004   9.756   5.726
41695SOL     OW26981   0.007   4.796   9.221
41695SOL    HW126982   0.040   4.709   9.241
41695SOL    HW226983  14.838   4.826   9.302
41696SOL     OW26984  12.018   7.063   2.779
41696SOL    HW126985  12.071   6.988   2.805
41696SOL    HW226986  12.057   7.091   2.696
41697SOL     OW26987   7.039   5.766  11.419
41697SOL    HW126988   7.128   5.792  11.395
41697SOL    HW226989   7.050   5.681  11.460
41698SOL     OW26990   4.849  14.128  13.521
41698SOL    HW126991   4.900  14.120  13.602
41698SOL    HW226992   4.838  14.038  13.492
41699SOL     OW26993  10.988  14.052  11.990
41699SOL    HW126994  11.077  14.042  12.025
41699SOL    HW226995  10.994  14.129  11.934
41700SOL     OW26996  10.680  14.023   3.296
41700SOL    HW126997  10.768  13.991   3.315
41700SOL    HW226998  10.629  13.997   3.373
41701SOL     OW26999  14.104   7.860   2.840
41701SOL    HW127000  14.178   7.798   2.837
41701SOL    HW227001  14.046   7.830   2.770
41702SOL     OW27002   0.064   6.430  10.523
41702SOL    HW127003   0.130   6.395  10.583
41702SOL    HW227004   0.099   6.413  10.436
41703SOL     OW27005   8.998   3.562   3.296
41703SOL    HW127006   8.979   3.654   3.278
41703SOL    HW227007   8.946   3.514   3.232
41704SOL     OW27008   8.543   0.454  13.283
41704SOL    HW127009   8.557   0.445  13.378
41704SOL    HW227010   8.629   0.441  13.245
41705SOL     OW27011  13.679  13.524   2.675
41705SOL    HW127012  13.677  13.466   2.599
41705SOL    HW227013  13.699  13.466   2.749
41706SOL     OW27014  11.046   3.446  13.886
41706SOL    HW127015  11.112   3.405  13.830
41706SOL    HW227016  11.067   3.415  13.974
41707SOL     OW27017   6.447   3.289   0.169
41707SOL    HW127018   6.489   3.340   0.238
41707SOL    HW227019   6.411   3.354   0.109
41708SOL     OW27020   1.101   0.843  14.327
41708SOL    HW127021   1.126   0.883  14.244
41708SOL    HW227022   1.022   0.793  14.307
41709SOL     OW27023  13.465  10.507   9.622
41709SOL    HW127024  13.559  10.501   9.605
41709SOL    HW227025  13.449  10.441   9.688
41710SOL     OW27026  14.326   9.973   4.912
41710SOL    HW127027  14.328   9.881   4.938
41710SOL    HW227028  14.359   9.973   4.822
41711SOL     OW27029   9.726   3.774   2.060
41711SOL    HW127030   9.804   3.720   2.070
41711SOL    HW227031   9.656   3.712   2.038
41712SOL     OW27032   8.986   6.714  12.248
41712SOL    HW127033   8.973   6.796  12.201
41712SOL    HW227034   8.906   6.703  12.299
41713SOL     OW27035   4.648   7.735   9.041
41713SOL    HW127036   4.554   7.743   9.055
41713SOL    HW227037   4.677   7.824   9.020
41714SOL     OW27038   4.853  14.595  11.599
41714SOL    HW127039   4.831  14.526  11.662
41714SOL    HW227040   4.834  14.556  11.513
41715SOL     OW27041   5.858   0.857   1.066
41715SOL    HW127042   5.845   0.948   1.091
41715SOL    HW227043   5.896   0.861   0.979
41716SOL     OW27044   5.847  11.829  11.894
41716SOL    HW127045   5.914  11.762  11.880
41716SOL    HW227046   5.896  11.905  11.927
41717SOL     OW27047   7.860  14.664   0.572
41717SOL    HW127048   7.837  14.599   0.505
41717SOL    HW227049   7.946  14.696   0.547
41718SOL     OW27050  13.855   5.978   0.557
41718SOL    HW127051  13.826   5.890   0.536
41718SOL    HW227052  13.858   6.024   0.473
41719SOL     OW27053   0.591   9.878   1.494
41719SOL    HW127054   0.510   9.850   1.537
41719SOL    HW227055   0.583   9.973   1.488
41720SOL     OW27056   7.573  14.599   8.187
41720SOL    HW127057   7.647  14.642   8.144
41720SOL    HW227058   7.512  14.670   8.206
41721SOL     OW27059   2.960   6.456  10.638
41721SOL    HW127060   2.941   6.470  10.731
41721SOL    HW227061   2.889   6.400  10.608
41722SOL     OW27062   6.015   4.384   5.439
41722SOL    HW127063   5.976   4.414   5.522
41722SOL    HW227064   5.988   4.450   5.375
41723SOL     OW27065   7.468   1.445   4.103
41723SOL    HW127066   7.499   1.366   4.148
41723SOL    HW227067   7.373   1.441   4.113
41724SOL     OW27068  14.027   1.852  11.030
41724SOL    HW127069  14.060   1.801  10.956
41724SOL    HW227070  13.934   1.828  11.037
41725SOL     OW27071  14.464   4.569   2.006
41725SOL    HW127072  14.420   4.600   1.927
41725SOL    HW227073  14.411   4.496   2.037
41726SOL     OW27074  10.588   6.507   6.168
41726SOL    HW127075  10.658   6.447   6.192
41726SOL    HW227076  10.588   6.508   6.072
41727SOL     OW27077  10.384  14.497   7.947
41727SOL    HW127078  10.340  14.578   7.973
41727SOL    HW227079  10.450  14.484   8.016
41728SOL     OW27080   7.827  14.856  12.581
41728SOL    HW127081   7.791  14.774  12.613
41728SOL    HW227082   7.767   0.052  12.615
41729SOL     OW27083   5.696  11.168   7.315
41729SOL    HW127084   5.706  11.212   7.399
41729SOL    HW227085   5.609  11.130   7.317
41730SOL     OW27086   8.279   2.226   3.591
41730SOL    HW127087   8.274   2.285   3.667
41730SOL    HW227088   8.276   2.139   3.629
41731SOL     OW27089   3.736   7.072   3.962
41731SOL    HW127090   3.746   7.131   4.037
41731SOL    HW227091   3.697   7.126   3.894
41732SOL     OW27092   8.233   1.712   6.420
41732SOL    HW127093   8.224   1.782   6.356
41732SOL    HW227094   8.184   1.743   6.496
41733SOL     OW27095  12.710   1.983   4.082
41733SOL    HW127096  12.789   2.005   4.032
41733SOL    HW227097  12.743   1.952   4.166
41734SOL     OW27098   0.870   2.422  12.051
41734SOL    HW127099   0.797   2.377  12.093
41734SOL    HW227100   0.946   2.367  12.068
41735SOL     OW27101   9.199   6.305   6.655
41735SOL    HW127102   9.187   6.310   6.560
41735SOL    HW227103   9.110   6.306   6.691
41736SOL     OW27104   0.692   2.512   5.590
41736SOL    HW127105   0.768   2.570   5.590
41736SOL    HW227106   0.692   2.474   5.502
41737SOL     OW27107   4.257   2.713   9.961
41737SOL    HW127108   4.251   2.647   9.892
41737SOL    HW227109   4.181   2.697  10.017
41738SOL     OW27110   8.584  10.843  13.085
41738SOL    HW127111   8.591  10.804  13.172
41738SOL    HW227112   8.656  10.906  13.080
41739SOL     OW27113  12.958  11.673   4.679
41739SOL    HW127114  13.007  11.753   4.699
41739SOL    HW227115  13.002  11.605   4.730
41740SOL     OW27116  12.717  10.608   8.696
41740SOL    HW127117  12.732  10.573   8.784
41740SOL    HW227118  12.784  10.675   8.685
41741SOL     OW27119   0.122   7.409   0.640
41741SOL    HW127120   0.174   7.358   0.578
41741SOL    HW227121   0.154   7.499   0.630
41742SOL     OW27122   4.989   7.427   1.112
41742SOL    HW127123   5.056   7.377   1.160
41742SOL    HW227124   4.907   7.384   1.135
41743SOL     OW27125  14.508  12.967   1.720
41743SOL    HW127126  14.449  12.894   1.737
41743SOL    HW227127  14.465  13.016   1.650
41744SOL     OW27128   1.483   5.832   7.296
41744SOL    HW127129   1.415   5.834   7.363
41744SOL    HW227130   1.529   5.916   7.306
41745SOL     OW27131   5.485  12.616   2.014
41745SOL    HW127132   5.428  12.541   1.998
41745SOL    HW227133   5.570  12.577   2.036
41746SOL     OW27134   4.610   2.547   3.032
41746SOL    HW127135   4.542   2.485   3.007
41746SOL    HW227136   4.634   2.522   3.121
41747SOL     OW27137   3.853   9.635   0.728
41747SOL    HW127138   3.856   9.695   0.653
41747SOL    HW227139   3.828   9.690   0.802
41748SOL     OW27140   5.368  12.394   3.701
41748SOL    HW127141   5.447  12.393   3.647
41748SOL    HW227142   5.296  12.382   3.640
41749SOL     OW27143   9.693   0.507   8.250
41749SOL    HW127144   9.599   0.513   8.272
41749SOL    HW227145   9.722   0.598   8.250
41750SOL     OW27146  11.635   2.939  13.961
41750SOL    HW127147  11.689   2.862  13.978
41750SOL    HW227148  11.559   2.928  14.018
41751SOL     OW27149   6.672  10.953  11.362
41751SOL    HW127150   6.657  10.914  11.448
41751SOL    HW227151   6.756  10.997  11.370
41752SOL     OW27152   7.523   5.693  10.164
41752SOL    HW127153   7.431   5.684  10.139
41752SOL    HW227154   7.567   5.714  10.082
41753SOL     OW27155   9.289   8.974  13.072
41753SOL    HW127156   9.377   8.947  13.043
41753SOL    HW227157   9.241   8.892  13.083
41754SOL     OW27158   4.246  13.361   9.559
41754SOL    HW127159   4.204  13.334   9.641
41754SOL    HW227160   4.183  13.337   9.491
41755SOL     OW27161  12.676  12.912  13.411
41755SOL    HW127162  12.718  12.915  13.325
41755SOL    HW227163  12.598  12.966  13.401
41756SOL     OW27164  14.835   6.670   5.679
41756SOL    HW127165  14.872   6.719   5.753
41756SOL    HW227166  14.740   6.678   5.689
41757SOL     OW27167   8.663  12.011  13.703
41757SOL    HW127168   8.750  12.043  13.678
41757SOL    HW227169   8.603  12.078  13.670
41758SOL     OW27170   0.768   0.559  11.642
41758SOL    HW127171   0.847   0.599  11.608
41758SOL    HW227172   0.697   0.595  11.588
41759SOL     OW27173   8.240  12.136  11.556
41759SOL    HW127174   8.153  12.096  11.549
41759SOL    HW227175   8.228  12.227  11.529
41760SOL     OW27176   5.371   8.785   8.405
41760SOL    HW127177   5.447   8.736   8.375
41760SOL    HW227178   5.296   8.733   8.376
41761SOL     OW27179   7.971  13.245   4.822
41761SOL    HW127180   8.045  13.217   4.876
41761SOL    HW227181   8.003  13.325   4.779
41762SOL     OW27182   4.535   9.735  11.437
41762SOL    HW127183   4.507   9.826  11.437
41762SOL    HW227184   4.500   9.698  11.356
41763SOL     OW27185  13.369   6.972  10.587
41763SOL    HW127186  13.345   6.879  10.591
41763SOL    HW227187  13.299   7.013  10.536
41764SOL     OW27188   3.044   2.949  11.225
41764SOL    HW127189   3.000   3.020  11.273
41764SOL    HW227190   3.092   2.901  11.293
41765SOL     OW27191   7.999   6.980   2.538
41765SOL    HW127192   8.046   6.897   2.550
41765SOL    HW227193   8.031   7.014   2.455
41766SOL     OW27194   1.283   3.506   3.855
41766SOL    HW127195   1.245   3.487   3.769
41766SOL    HW227196   1.215   3.480   3.917
41767SOL     OW27197  10.463   2.488   6.039
41767SOL    HW127198  10.371   2.511   6.022
41767SOL    HW227199  10.465   2.393   6.034
41768SOL     OW27200   8.191  11.942   9.125
41768SOL    HW127201   8.213  11.917   9.215
41768SOL    HW227202   8.182  11.858   9.079
41769SOL     OW27203   5.424   5.549  11.334
41769SOL    HW127204   5.415   5.640  11.364
41769SOL    HW227205   5.468   5.556  11.250
41770SOL     OW27206  13.562   4.327  12.222
41770SOL    HW127207  13.627   4.300  12.157
41770SOL    HW227208  13.497   4.258  12.221
41771SOL     OW27209   1.253  11.961   4.469
41771SOL    HW127210   1.218  11.881   4.510
41771SOL    HW227211   1.258  12.024   4.540
41772SOL     OW27212   3.196   3.142   5.248
41772SOL    HW127213   3.268   3.164   5.188
41772SOL    HW227214   3.123   3.196   5.219
41773SOL     OW27215   6.398   0.702   2.597
41773SOL    HW127216   6.344   0.667   2.668
41773SOL    HW227217   6.426   0.788   2.628
41774SOL     OW27218   1.739   4.819   3.753
41774SOL    HW127219   1.722   4.737   3.799
41774SOL    HW227220   1.811   4.859   3.802
41775SOL     OW27221   0.157   8.785  10.042
41775SOL    HW127222   0.077   8.804  10.091
41775SOL    HW227223   0.126   8.739   9.964
41776SOL     OW27224   8.030  14.650   9.785
41776SOL    HW127225   7.968  14.716   9.753
41776SOL    HW227226   7.977  14.592   9.839
41777SOL     OW27227   9.256   5.784   7.256
41777SOL    HW127228   9.184   5.735   7.215
41777SOL    HW227229   9.216   5.867   7.283
41778SOL     OW27230  10.625  11.894   7.723
41778SOL    HW127231  10.687  11.962   7.698
41778SOL    HW227232  10.591  11.861   7.639
41779SOL     OW27233   1.503   8.442   9.989
41779SOL    HW127234   1.584   8.491   9.983
41779SOL    HW227235   1.473   8.433   9.898
41780SOL     OW27236   9.635   6.930   8.395
41780SOL    HW127237   9.657   6.936   8.487
41780SOL    HW227238   9.567   6.996   8.381
41781SOL     OW27239  13.089   3.424   4.110
41781SOL    HW127240  13.178   3.414   4.143
41781SOL    HW227241  13.080   3.356   4.044
41782SOL     OW27242   9.162  11.234   4.651
41782SOL    HW127243   9.218  11.234   4.728
41782SOL    HW227244   9.129  11.145   4.645
41783SOL     OW27245  12.622  14.058  13.367
41783SOL    HW127246  12.550  14.023  13.419
41783SOL    HW227247  12.674  14.109  13.430
41784SOL     OW27248  10.097  12.042  12.328
41784SOL    HW127249  10.132  11.957  12.354
41784SOL    HW227250  10.069  12.029  12.237
41785SOL     OW27251  14.020   6.887   4.795
41785SOL    HW127252  14.090   6.952   4.794
41785SOL    HW227253  13.942   6.937   4.817
41786SOL     OW27254  11.862   4.175  13.215
41786SOL    HW127255  11.911   4.114  13.270
41786SOL    HW227256  11.866   4.138  13.127
41787SOL     OW27257   8.475  11.382   3.642
41787SOL    HW127258   8.478  11.411   3.551
41787SOL    HW227259   8.382  11.368   3.660
41788SOL     OW27260  12.735  14.795   4.756
41788SOL    HW127261  12.653  14.757   4.722
41788SOL    HW227262  12.716  14.813   4.848
41789SOL     OW27263   3.426  10.705   1.759
41789SOL    HW127264   3.492  10.738   1.820
41789SOL    HW227265   3.469  10.631   1.716
41790SOL     OW27266   6.611  14.431  13.723
41790SOL    HW127267   6.524  14.428  13.764
41790SOL    HW227268   6.670  14.396  13.790
41791SOL     OW27269  10.446   4.032  14.162
41791SOL    HW127270  10.443   4.116  14.115
41791SOL    HW227271  10.536   4.027  14.196
41792SOL     OW27272  11.858   4.818   1.735
41792SOL    HW127273  11.774   4.778   1.760
41792SOL    HW227274  11.835   4.889   1.677
41793SOL     OW27275  12.021   1.098   0.554
41793SOL    HW127276  12.036   1.076   0.646
41793SOL    HW227277  12.045   1.019   0.507
41794SOL     OW27278   4.473  11.624  13.727
41794SOL    HW127279   4.477  11.587  13.639
41794SOL    HW227280   4.380  11.625  13.749
41795SOL     OW27281   7.597   4.153   3.577
41795SOL    HW127282   7.615   4.208   3.501
41795SOL    HW227283   7.672   4.167   3.635
41796SOL     OW27284  12.811  10.583   4.335
41796SOL    HW127285  12.745  10.522   4.303
41796SOL    HW227286  12.801  10.583   4.430
41797SOL     OW27287   1.374   9.637  14.284
41797SOL    HW127288   1.330   9.594  14.358
41797SOL    HW227289   1.401   9.722  14.319
41798SOL     OW27290  14.052  12.380   7.861
41798SOL    HW127291  14.103  12.384   7.942
41798SOL    HW227292  14.097  12.314   7.807
41799SOL     OW27293   1.134   2.380   0.002
41799SOL    HW127294   1.128   2.476   0.005
41799SOL    HW227295   1.180   2.362  14.791
41800SOL     OW27296   4.110  13.856  10.914
41800SOL    HW127297   4.087  13.931  10.858
41800SOL    HW227298   4.120  13.783  10.853
41801SOL     OW27299  12.497   9.671   9.090
41801SOL    HW127300  12.403   9.666   9.072
41801SOL    HW227301  12.537   9.607   9.031
41802SOL     OW27302   4.310   1.953  12.645
41802SOL    HW127303   4.234   1.980  12.697
41802SOL    HW227304   4.303   2.005  12.565
41803SOL     OW27305   6.604  10.950   6.763
41803SOL    HW127306   6.560  11.029   6.730
41803SOL    HW227307   6.538  10.905   6.815
41804SOL     OW27308   1.169  12.099   2.198
41804SOL    HW127309   1.214  12.076   2.116
41804SOL    HW227310   1.171  12.018   2.249
41805SOL     OW27311  11.324   8.004  14.201
41805SOL    HW127312  11.324   7.929  14.141
41805SOL    HW227313  11.412   8.039  14.195
41806SOL     OW27314  12.188  12.478   1.533
41806SOL    HW127315  12.099  12.458   1.564
41806SOL    HW227316  12.245  12.432   1.595
41807SOL     OW27317   0.801   2.553   2.572
41807SOL    HW127318   0.851   2.527   2.495
41807SOL    HW227319   0.720   2.503   2.566
41808SOL     OW27320  13.085   0.873   1.022
41808SOL    HW127321  13.159   0.858   0.963
41808SOL    HW227322  13.016   0.909   0.966
41809SOL     OW27323  11.621   8.084   9.402
41809SOL    HW127324  11.588   8.168   9.434
41809SOL    HW227325  11.553   8.021   9.425
41810SOL     OW27326   6.950   8.974  13.118
41810SOL    HW127327   6.911   9.025  13.190
41810SOL    HW227328   7.042   8.999  13.118
41811SOL     OW27329  11.014   1.962   3.205
41811SOL    HW127330  11.072   2.029   3.244
41811SOL    HW227331  10.979   2.003   3.126
41812SOL     OW27332   6.414  13.640   3.828
41812SOL    HW127333   6.498  13.684   3.841
41812SOL    HW227334   6.430  13.577   3.758
41813SOL     OW27335   6.548   0.304   8.302
41813SOL    HW127336   6.461   0.265   8.310
41813SOL    HW227337   6.547   0.349   8.218
41814SOL     OW27338   3.800  11.182   1.068
41814SOL    HW127339   3.723  11.238   1.057
41814SOL    HW227340   3.854  11.199   0.991
41815SOL     OW27341  13.230  14.682  12.706
41815SOL    HW127342  13.207  14.740  12.633
41815SOL    HW227343  13.299  14.626  12.672
41816SOL     OW27344  13.965  12.861   7.685
41816SOL    HW127345  14.027  12.799   7.723
41816SOL    HW227346  13.903  12.806   7.638
41817SOL     OW27347   8.185   0.953  12.431
41817SOL    HW127348   8.110   0.895  12.425
41817SOL    HW227349   8.252   0.902  12.475
41818SOL     OW27350   1.126   4.819   9.433
41818SOL    HW127351   1.058   4.796   9.497
41818SOL    HW227352   1.207   4.788   9.473
41819SOL     OW27353  10.347  11.831   2.476
41819SOL    HW127354  10.258  11.834   2.440
41819SOL    HW227355  10.382  11.748   2.444
41820SOL     OW27356   2.567   7.741   2.113
41820SOL    HW127357   2.486   7.773   2.152
41820SOL    HW227358   2.624   7.818   2.110
41821SOL     OW27359   4.020   5.815   1.718
41821SOL    HW127360   4.059   5.866   1.789
41821SOL    HW227361   4.005   5.729   1.756
41822SOL     OW27362   9.506  14.180   3.066
41822SOL    HW127363   9.600  14.164   3.068
41822SOL    HW227364   9.488  14.233   3.143
41823SOL     OW27365  12.119   8.575  12.611
41823SOL    HW127366  12.208   8.602  12.637
41823SOL    HW227367  12.129   8.485  12.582
41824SOL     OW27368  11.324   6.565  12.219
41824SOL    HW127369  11.365   6.500  12.276
41824SOL    HW227370  11.323   6.645  12.270
41825SOL     OW27371   4.709   6.774  10.704
41825SOL    HW127372   4.730   6.849  10.648
41825SOL    HW227373   4.713   6.699  10.645
41826SOL     OW27374   1.887   7.142   8.301
41826SOL    HW127375   1.878   7.137   8.206
41826SOL    HW227376   1.933   7.062   8.326
41827SOL     OW27377   7.090   0.761  14.699
41827SOL    HW127378   7.049   0.843  14.673
41827SOL    HW227379   7.107   0.715  14.617
41828SOL     OW27380   5.208   4.713   3.397
41828SOL    HW127381   5.114   4.726   3.384
41828SOL    HW227382   5.215   4.675   3.485
41829SOL     OW27383   0.144   2.168   0.863
41829SOL    HW127384   0.077   2.234   0.847
41829SOL    HW227385   0.123   2.098   0.801
41830SOL     OW27386   2.731   3.906  14.614
41830SOL    HW127387   2.691   3.863  14.690
41830SOL    HW227388   2.675   3.881  14.541
41831SOL     OW27389  10.285   9.461  11.576
41831SOL    HW127390  10.221   9.495  11.512
41831SOL    HW227391  10.298   9.370  11.550
41832SOL     OW27392   5.159   0.442   9.917
41832SOL    HW127393   5.106   0.475   9.845
41832SOL    HW227394   5.224   0.385   9.876
41833SOL     OW27395   1.566   7.409  12.078
41833SOL    HW127396   1.500   7.356  12.033
41833SOL    HW227397   1.515   7.468  12.135
41834SOL     OW27398   1.259  13.894  11.239
41834SOL    HW127399   1.212  13.835  11.180
41834SOL    HW227400   1.320  13.941  11.183
41835SOL     OW27401  10.005  13.856   7.958
41835SOL    HW127402  10.037  13.817   8.039
41835SOL    HW227403   9.955  13.786   7.916
41836SOL     OW27404   9.338  11.086   6.182
41836SOL    HW127405   9.262  11.034   6.209
41836SOL    HW227406   9.406  11.021   6.165
41837SOL     OW27407  11.570  12.192   8.188
41837SOL    HW127408  11.583  12.286   8.201
41837SOL    HW227409  11.656  12.160   8.160
41838SOL     OW27410   1.972  10.734   7.565
41838SOL    HW127411   2.066  10.718   7.579
41838SOL    HW227412   1.966  10.759   7.472
41839SOL     OW27413   5.491   4.816   8.532
41839SOL    HW127414   5.490   4.833   8.626
41839SOL    HW227415   5.459   4.897   8.493
41840SOL     OW27416   7.158  10.018   6.136
41840SOL    HW127417   7.153  10.113   6.142
41840SOL    HW227418   7.067   9.989   6.143
41841SOL     OW27419   8.395   9.973  12.945
41841SOL    HW127420   8.473   9.926  12.915
41841SOL    HW227421   8.322   9.917  12.919
41842SOL     OW27422   6.918   8.906  14.274
41842SOL    HW127423   7.003   8.876  14.306
41842SOL    HW227424   6.891   8.839  14.211
41843SOL     OW27425   3.361   0.061  10.523
41843SOL    HW127426   3.317   0.066  10.438
41843SOL    HW227427   3.366  14.839  10.542
41844SOL     OW27428   2.331   5.724   3.908
41844SOL    HW127429   2.342   5.686   3.821
41844SOL    HW227430   2.253   5.779   3.901
41845SOL     OW27431   1.540   1.553   3.406
41845SOL    HW127432   1.511   1.463   3.390
41845SOL    HW227433   1.579   1.551   3.493
41846SOL     OW27434  13.139   2.193   2.771
41846SOL    HW127435  13.098   2.166   2.853
41846SOL    HW227436  13.233   2.185   2.787
41847SOL     OW27437  13.257   0.137   4.438
41847SOL    HW127438  13.350   0.153   4.424
41847SOL    HW227439  13.251   0.043   4.456
41848SOL     OW27440   8.368  14.573  10.211
41848SOL    HW127441   8.280  14.565  10.174
41848SOL    HW227442   8.420  14.614  10.142
41849SOL     OW27443   4.397   2.909   7.245
41849SOL    HW127444   4.334   2.980   7.258
41849SOL    HW227445   4.478   2.954   7.218
41850SOL     OW27446  12.779   6.307   6.105
41850SOL    HW127447  12.700   6.361   6.107
41850SOL    HW227448  12.755   6.228   6.152
41851SOL     OW27449  11.155   7.262  11.754
41851SOL    HW127450  11.185   7.313  11.829
41851SOL    HW227451  11.069   7.228  11.781
41852SOL     OW27452  14.457   0.935   6.542
41852SOL    HW127453  14.490   0.846   6.530
41852SOL    HW227454  14.509   0.971   6.614
41853SOL     OW27455  11.161   6.793   3.335
41853SOL    HW127456  11.208   6.874   3.316
41853SOL    HW227457  11.161   6.787   3.431
41854SOL     OW27458  11.631   8.969   7.053
41854SOL    HW127459  11.725   8.972   7.033
41854SOL    HW227460  11.606   8.878   7.038
41855SOL     OW27461   8.218  11.172  12.757
41855SOL    HW127462   8.298  11.139  12.716
41855SOL    HW227463   8.153  11.172  12.687
41856SOL     OW27464  13.942   5.920   2.387
41856SOL    HW127465  13.863   5.971   2.371
41856SOL    HW227466  13.936   5.846   2.327
41857SOL     OW27467  11.005  14.460  12.255
41857SOL    HW127468  10.937  14.506  12.206
41857SOL    HW227469  11.086  14.479  12.207
41858SOL     OW27470   9.362   4.913  13.659
41858SOL    HW127471   9.283   4.887  13.706
41858SOL    HW227472   9.419   4.836  13.664
41859SOL     OW27473   3.677  11.412   3.397
41859SOL    HW127474   3.643  11.498   3.423
41859SOL    HW227475   3.747  11.432   3.335
41860SOL     OW27476   9.052   4.342   8.869
41860SOL    HW127477   9.116   4.376   8.932
41860SOL    HW227478   8.997   4.417   8.847
41861SOL     OW27479   6.952   2.581  14.292
41861SOL    HW127480   6.957   2.645  14.362
41861SOL    HW227481   6.996   2.623  14.218
41862SOL     OW27482   7.290   2.697   6.512
41862SOL    HW127483   7.307   2.691   6.606
41862SOL    HW227484   7.198   2.671   6.503
41863SOL     OW27485   4.616   7.818   7.600
41863SOL    HW127486   4.704   7.841   7.632
41863SOL    HW227487   4.568   7.792   7.678
41864SOL     OW27488  12.174  14.527  11.259
41864SOL    HW127489  12.182  14.486  11.345
41864SOL    HW227490  12.085  14.563  11.258
41865SOL     OW27491   4.761  13.272   9.230
41865SOL    HW127492   4.817  13.349   9.234
41865SOL    HW227493   4.687  13.299   9.175
41866SOL     OW27494   1.766   5.023  13.073
41866SOL    HW127495   1.812   4.982  13.146
41866SOL    HW227496   1.686   4.972  13.064
41867SOL     OW27497  13.175  14.249   0.690
41867SOL    HW127498  13.182  14.153   0.693
41867SOL    HW227499  13.081  14.266   0.697
41868SOL     OW27500  12.715  14.469  12.703
41868SOL    HW127501  12.795  14.468  12.756
41868SOL    HW227502  12.697  14.562  12.691
41869SOL     OW27503   4.126   3.120   8.590
41869SOL    HW127504   4.217   3.102   8.614
41869SOL    HW227505   4.119   3.088   8.500
41870SOL     OW27506  11.373  11.960   3.837
41870SOL    HW127507  11.386  11.965   3.932
41870SOL    HW227508  11.462  11.959   3.801
41871SOL     OW27509  11.749   0.788  10.588
41871SOL    HW127510  11.663   0.755  10.562
41871SOL    HW227511  11.764   0.864  10.531
41872SOL     OW27512   2.407  11.375   8.731
41872SOL    HW127513   2.490  11.333   8.756
41872SOL    HW227514   2.342  11.336   8.789
41873SOL     OW27515  12.528   0.987   5.891
41873SOL    HW127516  12.590   0.999   5.963
41873SOL    HW227517  12.442   0.999   5.932
41874SOL     OW27518  10.040   5.645   7.239
41874SOL    HW127519   9.950   5.662   7.213
41874SOL    HW227520  10.084   5.619   7.157
41875SOL     OW27521   7.478   9.605  11.693
41875SOL    HW127522   7.557   9.645  11.657
41875SOL    HW227523   7.438   9.673  11.746
41876SOL     OW27524  12.102   6.159  13.190
41876SOL    HW127525  12.094   6.067  13.168
41876SOL    HW227526  12.017   6.182  13.229
41877SOL     OW27527  11.833   1.466   0.951
41877SOL    HW127528  11.869   1.418   0.876
41877SOL    HW227529  11.761   1.411   0.982
41878SOL     OW27530   5.121   5.955  12.509
41878SOL    HW127531   5.116   5.975  12.602
41878SOL    HW227532   5.044   5.901  12.492
41879SOL     OW27533   4.801   3.390   6.763
41879SOL    HW127534   4.753   3.383   6.681
41879SOL    HW227535   4.863   3.317   6.760
41880SOL     OW27536   0.355   1.601   9.815
41880SOL    HW127537   0.328   1.589   9.906
41880SOL    HW227538   0.418   1.530   9.799
41881SOL     OW27539  10.606   5.611   0.206
41881SOL    HW127540  10.701   5.597   0.201
41881SOL    HW227541  10.568   5.528   0.175
41882SOL     OW27542   0.708   6.233   3.259
41882SOL    HW127543   0.765   6.168   3.218
41882SOL    HW227544   0.769   6.301   3.290
41883SOL     OW27545   8.140   6.770   8.329
41883SOL    HW127546   8.151   6.678   8.305
41883SOL    HW227547   8.110   6.813   8.248
41884SOL     OW27548   8.352   8.363   4.092
41884SOL    HW127549   8.331   8.270   4.092
41884SOL    HW227550   8.268   8.407   4.104
41885SOL     OW27551   8.558   2.164  13.658
41885SOL    HW127552   8.571   2.255  13.686
41885SOL    HW227553   8.507   2.124  13.728
41886SOL     OW27554   8.829   2.845  14.219
41886SOL    HW127555   8.765   2.891  14.273
41886SOL    HW227556   8.911   2.849  14.269
41887SOL     OW27557   8.149   3.825  13.200
41887SOL    HW127558   8.063   3.863  13.181
41887SOL    HW227559   8.155   3.823  13.295
41888SOL     OW27560   2.179   6.569   3.297
41888SOL    HW127561   2.230   6.494   3.327
41888SOL    HW227562   2.135   6.538   3.218
41889SOL     OW27563   3.744   5.594   4.011
41889SOL    HW127564   3.706   5.676   4.041
41889SOL    HW227565   3.807   5.570   4.079
41890SOL     OW27566  11.748   7.000   5.317
41890SOL    HW127567  11.656   7.020   5.303
41890SOL    HW227568  11.749   6.922   5.372
41891SOL     OW27569   8.726   9.448  10.786
41891SOL    HW127570   8.689   9.536  10.781
41891SOL    HW227571   8.821   9.461  10.781
41892SOL     OW27572   6.040   3.421  12.664
41892SOL    HW127573   6.132   3.422  12.639
41892SOL    HW227574   6.010   3.333  12.641
41893SOL     OW27575  12.554   3.087   9.779
41893SOL    HW127576  12.542   3.151   9.849
41893SOL    HW227577  12.598   3.013   9.821
41894SOL     OW27578   4.385  13.507  13.788
41894SOL    HW127579   4.362  13.455  13.711
41894SOL    HW227580   4.430  13.445  13.846
41895SOL     OW27581  11.453   9.889   1.849
41895SOL    HW127582  11.453   9.968   1.794
41895SOL    HW227583  11.398   9.911   1.924
41896SOL     OW27584   7.673   6.257   8.342
41896SOL    HW127585   7.709   6.345   8.340
41896SOL    HW227586   7.706   6.219   8.423
41897SOL     OW27587   3.800   5.972  13.075
41897SOL    HW127588   3.838   6.001  13.158
41897SOL    HW227589   3.870   5.985  13.011
41898SOL     OW27590  11.498   4.983  13.916
41898SOL    HW127591  11.450   5.035  13.981
41898SOL    HW227592  11.430   4.945  13.861
41899SOL     OW27593   9.585   9.162  12.641
41899SOL    HW127594   9.649   9.095  12.616
41899SOL    HW227595   9.518   9.114  12.689
41900SOL     OW27596  10.725  11.401  14.755
41900SOL    HW127597  10.677  11.398  14.672
41900SOL    HW227598  10.740  11.309  14.777
41901SOL     OW27599  10.119   7.705  10.435
41901SOL    HW127600  10.089   7.781  10.486
41901SOL    HW227601  10.171   7.654  10.496
41902SOL     OW27602   6.460   6.005  11.273
41902SOL    HW127603   6.450   6.077  11.336
41902SOL    HW227604   6.370   5.981  11.249
41903SOL     OW27605   5.675   4.301   1.292
41903SOL    HW127606   5.712   4.214   1.284
41903SOL    HW227607   5.713   4.337   1.372
41904SOL     OW27608   7.945   7.855   1.497
41904SOL    HW127609   7.995   7.917   1.444
41904SOL    HW227610   7.960   7.771   1.454
41905SOL     OW27611   5.347  13.928   7.919
41905SOL    HW127612   5.353  14.012   7.964
41905SOL    HW227613   5.438  13.899   7.909
41906SOL     OW27614  10.504  14.406   3.555
41906SOL    HW127615  10.525  14.465   3.483
41906SOL    HW227616  10.549  14.324   3.533
41907SOL     OW27617   9.762   3.779  10.307
41907SOL    HW127618   9.801   3.694  10.290
41907SOL    HW227619   9.798   3.836  10.239
41908SOL     OW27620   7.900   9.807   4.685
41908SOL    HW127621   7.836   9.736   4.691
41908SOL    HW227622   7.857   9.875   4.633
41909SOL     OW27623  12.881   1.735   5.657
41909SOL    HW127624  12.850   1.787   5.732
41909SOL    HW227625  12.805   1.729   5.599
41910SOL     OW27626   8.980  13.299   3.074
41910SOL    HW127627   8.954  13.365   3.139
41910SOL    HW227628   9.002  13.349   2.996
41911SOL     OW27629   1.277   5.845   7.108
41911SOL    HW127630   1.353   5.833   7.166
41911SOL    HW227631   1.274   5.939   7.093
41912SOL     OW27632   5.557   2.100   2.023
41912SOL    HW127633   5.638   2.141   2.052
41912SOL    HW227634   5.550   2.020   2.076
41913SOL     OW27635  13.836   4.697   3.032
41913SOL    HW127636  13.849   4.610   3.070
41913SOL    HW227637  13.842   4.683   2.938
41914SOL     OW27638   1.673   2.199   4.782
41914SOL    HW127639   1.593   2.177   4.735
41914SOL    HW227640   1.643   2.251   4.856
41915SOL     OW27641   1.927   6.649  12.136
41915SOL    HW127642   1.957   6.613  12.053
41915SOL    HW227643   1.921   6.744  12.121
41916SOL     OW27644   8.249  11.213  11.994
41916SOL    HW127645   8.293  11.267  11.929
41916SOL    HW227646   8.316  11.149  12.021
41917SOL     OW27647   3.279  12.816   3.684
41917SOL    HW127648   3.233  12.834   3.601
41917SOL    HW227649   3.310  12.902   3.713
41918SOL     OW27650  12.856  11.437   0.921
41918SOL    HW127651  12.805  11.466   0.997
41918SOL    HW227652  12.935  11.399   0.958
41919SOL     OW27653   7.688   6.920  11.521
41919SOL    HW127654   7.625   6.982  11.558
41919SOL    HW227655   7.742   6.973  11.463
41920SOL     OW27656   5.738   1.686  10.089
41920SOL    HW127657   5.783   1.766  10.061
41920SOL    HW227658   5.773   1.618  10.031
41921SOL     OW27659  13.525   7.292   3.130
41921SOL    HW127660  13.594   7.283   3.196
41921SOL    HW227661  13.495   7.382   3.138
41922SOL     OW27662   2.354   8.660   7.483
41922SOL    HW127663   2.379   8.581   7.531
41922SOL    HW227664   2.287   8.700   7.537
41923SOL     OW27665  13.233  11.097   4.332
41923SOL    HW127666  13.176  11.021   4.318
41923SOL    HW227667  13.176  11.164   4.368
41924SOL     OW27668   8.868  11.024   5.084
41924SOL    HW127669   8.849  10.969   5.160
41924SOL    HW227670   8.954  11.062   5.103
41925SOL     OW27671  13.082   3.686   2.428
41925SOL    HW127672  13.123   3.666   2.344
41925SOL    HW227673  13.005   3.629   2.431
41926SOL     OW27674   8.569   0.614  11.204
41926SOL    HW127675   8.487   0.569  11.184
41926SOL    HW227676   8.628   0.589  11.132
41927SOL     OW27677  13.061   7.945  14.133
41927SOL    HW127678  13.136   7.964  14.188
41927SOL    HW227679  13.086   7.977  14.046
41928SOL     OW27680   9.833   6.651   1.842
41928SOL    HW127681   9.888   6.597   1.899
41928SOL    HW227682   9.891   6.722   1.814
41929SOL     OW27683   4.016   5.401   8.563
41929SOL    HW127684   4.050   5.394   8.652
41929SOL    HW227685   4.086   5.368   8.507
41930SOL     OW27686   5.799  12.384   9.323
41930SOL    HW127687   5.788  12.314   9.258
41930SOL    HW227688   5.841  12.341   9.397
41931SOL     OW27689   5.763   8.663  13.282
41931SOL    HW127690   5.694   8.606  13.316
41931SOL    HW227691   5.721   8.714  13.213
41932SOL     OW27692   1.567  12.809   5.229
41932SOL    HW127693   1.588  12.742   5.295
41932SOL    HW227694   1.634  12.798   5.162
41933SOL     OW27695   6.317   8.639   3.368
41933SOL    HW127696   6.340   8.546   3.357
41933SOL    HW227697   6.238   8.650   3.315
41934SOL     OW27698   5.925   4.053   4.474
41934SOL    HW127699   5.968   3.997   4.539
41934SOL    HW227700   5.995   4.073   4.411
41935SOL     OW27701  14.758   4.914   9.442
41935SOL    HW127702  14.725   5.003   9.432
41935SOL    HW227703  14.821   4.919   9.514
41936SOL     OW27704  11.700   8.364   7.373
41936SOL    HW127705  11.691   8.292   7.435
41936SOL    HW227706  11.736   8.436   7.424
41937SOL     OW27707  10.197   2.976   9.993
41937SOL    HW127708  10.173   2.887   9.967
41937SOL    HW227709  10.260   3.004   9.927
41938SOL     OW27710   0.827   1.989   8.677
41938SOL    HW127711   0.828   1.893   8.671
41938SOL    HW227712   0.914   2.012   8.709
41939SOL     OW27713   4.204  10.905   4.185
41939SOL    HW127714   4.199  10.982   4.243
41939SOL    HW227715   4.132  10.849   4.215
41940SOL     OW27716   3.787   3.948   0.802
41940SOL    HW127717   3.710   3.978   0.850
41940SOL    HW227718   3.859   4.003   0.835
41941SOL     OW27719   7.240   4.015   2.084
41941SOL    HW127720   7.193   4.025   2.002
41941SOL    HW227721   7.200   4.078   2.143
41942SOL     OW27722  11.808   4.378   3.996
41942SOL    HW127723  11.850   4.296   3.969
41942SOL    HW227724  11.756   4.355   4.073
41943SOL     OW27725  10.814  10.777  13.759
41943SOL    HW127726  10.896  10.730  13.768
41943SOL    HW227727  10.796  10.812  13.846
41944SOL     OW27728  14.331   6.707   3.768
41944SOL    HW127729  14.316   6.617   3.739
41944SOL    HW227730  14.286   6.761   3.702
41945SOL     OW27731   6.307   2.224  12.034
41945SOL    HW127732   6.223   2.270  12.034
41945SOL    HW227733   6.349   2.251  11.953
41946SOL     OW27734   9.627  12.809   7.902
41946SOL    HW127735   9.658  12.858   7.978
41946SOL    HW227736   9.687  12.835   7.831
41947SOL     OW27737  12.275   0.220   0.052
41947SOL    HW127738  12.344   0.228  14.858
41947SOL    HW227739  12.196   0.250   0.008
41948SOL     OW27740   4.939  11.844  11.004
41948SOL    HW127741   4.937  11.903  11.080
41948SOL    HW227742   4.880  11.885  10.941
41949SOL     OW27743  13.823   7.135   5.948
41949SOL    HW127744  13.868   7.134   6.032
41949SOL    HW227745  13.788   7.224   5.941
41950SOL     OW27746  10.277  14.746  10.687
41950SOL    HW127747  10.270  14.774  10.596
41950SOL    HW227748  10.216  14.803  10.734
41951SOL     OW27749  11.596  12.758   2.742
41951SOL    HW127750  11.513  12.731   2.782
41951SOL    HW227751  11.636  12.817   2.806
41952SOL     OW27752   4.175   9.849   8.411
41952SOL    HW127753   4.234   9.884   8.478
41952SOL    HW227754   4.204   9.758   8.400
41953SOL     OW27755   8.524  14.084   9.043
41953SOL    HW127756   8.488  14.048   9.124
41953SOL    HW227757   8.456  14.142   9.009
41954SOL     OW27758   7.960   8.510  10.593
41954SOL    HW127759   8.033   8.514  10.531
41954SOL    HW227760   7.972   8.427  10.639
41955SOL     OW27761   8.193   2.979  12.773
41955SOL    HW127762   8.198   2.907  12.836
41955SOL    HW227763   8.278   3.023  12.781
41956SOL     OW27764  14.814   3.846  12.688
41956SOL    HW127765  14.789   3.756  12.710
41956SOL    HW227766  14.863   3.837  12.606
41957SOL     OW27767  10.766  14.484   5.358
41957SOL    HW127768  10.861  14.481   5.353
41957SOL    HW227769  10.747  14.495   5.451
41958SOL     OW27770  12.381   8.906  13.760
41958SOL    HW127771  12.422   8.987  13.793
41958SOL    HW227772  12.376   8.850  13.837
41959SOL     OW27773   6.819   9.371  13.274
41959SOL    HW127774   6.807   9.454  13.228
41959SOL    HW227775   6.894   9.386  13.331
41960SOL     OW27776   3.457   1.150   5.339
41960SOL    HW127777   3.488   1.151   5.249
41960SOL    HW227778   3.536   1.165   5.391
41961SOL     OW27779   6.891   6.256   7.874
41961SOL    HW127780   6.815   6.309   7.851
41961SOL    HW227781   6.858   6.166   7.876
41962SOL     OW27782   1.786   9.514   9.486
41962SOL    HW127783   1.754   9.482   9.570
41962SOL    HW227784   1.785   9.438   9.429
41963SOL     OW27785   4.658   4.222   0.752
41963SOL    HW127786   4.578   4.230   0.803
41963SOL    HW227787   4.725   4.265   0.804
41964SOL     OW27788   7.165  10.964   4.552
41964SOL    HW127789   7.209  10.897   4.604
41964SOL    HW227790   7.235  11.004   4.500
41965SOL     OW27791  12.034   4.091   4.403
41965SOL    HW127792  12.058   4.183   4.393
41965SOL    HW227793  11.952   4.082   4.354
41966SOL     OW27794   3.515  14.642   6.376
41966SOL    HW127795   3.503  14.735   6.359
41966SOL    HW227796   3.429  14.603   6.357
41967SOL     OW27797   7.754  14.835  10.236
41967SOL    HW127798   7.661  14.857  10.236
41967SOL    HW227799   7.762  14.765  10.172
41968SOL     OW27800   4.131   5.657   8.890
41968SOL    HW127801   4.145   5.712   8.813
41968SOL    HW227802   4.056   5.696   8.934
41969SOL     OW27803   8.473   9.600   3.387
41969SOL    HW127804   8.470   9.519   3.336
41969SOL    HW227805   8.549   9.589   3.444
41970SOL     OW27806   3.509  10.429   2.864
41970SOL    HW127807   3.469  10.431   2.951
41970SOL    HW227808   3.438  10.451   2.804
41971SOL     OW27809   4.035   7.673   9.516
41971SOL    HW127810   3.982   7.687   9.438
41971SOL    HW227811   4.108   7.618   9.486
41972SOL     OW27812   3.383   0.174   2.839
41972SOL    HW127813   3.359   0.230   2.913
41972SOL    HW227814   3.323   0.201   2.769
41973SOL     OW27815   3.788   0.398  11.389
41973SOL    HW127816   3.829   0.337  11.451
41973SOL    HW227817   3.850   0.403  11.316
41974SOL     OW27818   4.175  13.675   9.729
41974SOL    HW127819   4.160  13.767   9.750
41974SOL    HW227820   4.093  13.646   9.689
41975SOL     OW27821   8.658   7.576   9.049
41975SOL    HW127822   8.650   7.664   9.084
41975SOL    HW227823   8.605   7.577   8.969
41976SOL     OW27824   1.391   0.057  12.572
41976SOL    HW127825   1.370  14.839  12.596
41976SOL    HW227826   1.403   0.055  12.477
41977SOL     OW27827  10.222   3.696  10.633
41977SOL    HW127828  10.225   3.792  10.624
41977SOL    HW227829  10.313   3.672  10.652
41978SOL     OW27830  12.532  11.871   4.722
41978SOL    HW127831  12.618  11.906   4.699
41978SOL    HW227832  12.551  11.798   4.782
41979SOL     OW27833   0.705  11.785   2.163
41979SOL    HW127834   0.782  11.836   2.190
41979SOL    HW227835   0.702  11.712   2.224
41980SOL     OW27836   5.771   2.723  10.648
41980SOL    HW127837   5.796   2.646  10.699
41980SOL    HW227838   5.852   2.771  10.634
41981SOL     OW27839   5.855   0.241   5.948
41981SOL    HW127840   5.950   0.236   5.957
41981SOL    HW227841   5.836   0.335   5.940
41982SOL     OW27842   7.669   7.796   8.121
41982SOL    HW127843   7.612   7.863   8.084
41982SOL    HW227844   7.730   7.844   8.177
41983SOL     OW27845  14.133  12.146   9.561
41983SOL    HW127846  14.061  12.175   9.505
41983SOL    HW227847  14.158  12.224   9.609
41984SOL     OW27848   4.014   3.889  11.372
41984SOL    HW127849   4.064   3.971  11.370
41984SOL    HW227850   3.976   3.882  11.285
41985SOL     OW27851   1.677   8.138  10.665
41985SOL    HW127852   1.751   8.108  10.612
41985SOL    HW227853   1.614   8.066  10.661
41986SOL     OW27854  11.188  12.258   2.688
41986SOL    HW127855  11.141  12.296   2.762
41986SOL    HW227856  11.135  12.184   2.660
41987SOL     OW27857  14.782   4.657   6.361
41987SOL    HW127858  14.865   4.697   6.385
41987SOL    HW227859  14.716   4.718   6.395
41988SOL     OW27860  10.957   0.021   7.520
41988SOL    HW127861  10.957   0.108   7.482
41988SOL    HW227862  10.900   0.028   7.597
41989SOL     OW27863   5.903   1.248   8.464
41989SOL    HW127864   5.828   1.196   8.433
41989SOL    HW227865   5.965   1.183   8.496
41990SOL     OW27866   5.932   6.984  13.607
41990SOL    HW127867   5.891   7.046  13.547
41990SOL    HW227868   5.867   6.916  13.620
41991SOL     OW27869   5.300  13.280  10.563
41991SOL    HW127870   5.311  13.187  10.545
41991SOL    HW227871   5.381  13.320  10.532
41992SOL     OW27872   8.579   8.795   1.583
41992SOL    HW127873   8.647   8.856   1.612
41992SOL    HW227874   8.556   8.745   1.661
41993SOL     OW27875   7.760  14.097   3.228
41993SOL    HW127876   7.840  14.125   3.182
41993SOL    HW227877   7.710  14.178   3.240
41994SOL     OW27878   6.920   4.572  10.004
41994SOL    HW127879   6.954   4.514   9.936
41994SOL    HW227880   6.967   4.654   9.991
41995SOL     OW27881   5.232   6.701  10.752
41995SOL    HW127882   5.166   6.659  10.697
41995SOL    HW227883   5.214   6.669  10.840
41996SOL     OW27884   1.644   7.748  11.123
41996SOL    HW127885   1.675   7.677  11.179
41996SOL    HW227886   1.620   7.818  11.184
41997SOL     OW27887   4.321  12.603  14.175
41997SOL    HW127888   4.309  12.510  14.157
41997SOL    HW227889   4.378  12.634  14.104
41998SOL     OW27890  14.817   9.655   8.931
41998SOL    HW127891   0.016   9.716   8.906
41998SOL    HW227892  14.785   9.621   8.848
41999SOL     OW27893   1.538   5.139   6.359
41999SOL    HW127894   1.465   5.181   6.314
41999SOL    HW227895   1.516   5.046   6.359
42000SOL     OW27896   7.168   6.737   5.136
42000SOL    HW127897   7.168   6.650   5.097
42000SOL    HW227898   7.247   6.739   5.191
42001SOL     OW27899  11.234  14.050  13.430
42001SOL    HW127900  11.286  13.970  13.429
42001SOL    HW227901  11.200  14.058  13.342
42002SOL     OW27902   2.577   6.842  13.918
42002SOL    HW127903   2.662   6.880  13.940
42002SOL    HW227904   2.528   6.914  13.879
42003SOL     OW27905  12.405  11.437   5.876
42003SOL    HW127906  12.313  11.413   5.865
42003SOL    HW227907  12.409  11.471   5.965
42004SOL     OW27908   1.266  13.459   8.533
42004SOL    HW127909   1.361  13.475   8.535
42004SOL    HW227910   1.233  13.519   8.466
42005SOL     OW27911   8.309   8.699   1.475
42005SOL    HW127912   8.332   8.742   1.558
42005SOL    HW227913   8.393   8.679   1.434
42006SOL     OW27914   7.988  13.539   6.687
42006SOL    HW127915   7.939  13.529   6.606
42006SOL    HW227916   7.921  13.557   6.753
42007SOL     OW27917  13.901   9.160  13.087
42007SOL    HW127918  13.942   9.095  13.030
42007SOL    HW227919  13.969   9.183  13.150
42008SOL     OW27920  10.328   1.648   7.282
42008SOL    HW127921  10.265   1.583   7.314
42008SOL    HW227922  10.346   1.621   7.191
42009SOL     OW27923  13.250   0.629   6.556
42009SOL    HW127924  13.339   0.608   6.527
42009SOL    HW227925  13.234   0.571   6.630
42010SOL     OW27926   3.781   2.788  12.028
42010SOL    HW127927   3.748   2.791  11.938
42010SOL    HW227928   3.802   2.696  12.043
42011SOL     OW27929   2.381   2.337   0.851
42011SOL    HW127930   2.388   2.312   0.943
42011SOL    HW227931   2.375   2.433   0.853
42012SOL     OW27932   9.804   7.128   8.260
42012SOL    HW127933   9.758   7.045   8.245
42012SOL    HW227934   9.785   7.150   8.351
42013SOL     OW27935   4.881   9.208  13.776
42013SOL    HW127936   4.881   9.160  13.693
42013SOL    HW227937   4.974   9.219  13.796
42014SOL     OW27938  10.688   8.416  14.669
42014SOL    HW127939  10.712   8.455  14.752
42014SOL    HW227940  10.726   8.473  14.603
42015SOL     OW27941   3.599  10.523   8.222
42015SOL    HW127942   3.618  10.469   8.145
42015SOL    HW227943   3.504  10.527   8.226
42016SOL     OW27944   1.518   5.028   2.024
42016SOL    HW127945   1.491   4.950   1.976
42016SOL    HW227946   1.477   5.101   1.978
42017SOL     OW27947   1.471   4.439  12.734
42017SOL    HW127948   1.535   4.427  12.664
42017SOL    HW227949   1.437   4.351  12.751
42018SOL     OW27950   8.076   7.975   8.587
42018SOL    HW127951   8.062   7.913   8.515
42018SOL    HW227952   8.000   8.034   8.583
42019SOL     OW27953   8.318   0.063   8.625
42019SOL    HW127954   8.358   0.079   8.710
42019SOL    HW227955   8.372   0.112   8.563
42020SOL     OW27956   5.283   6.324   7.393
42020SOL    HW127957   5.286   6.270   7.314
42020SOL    HW227958   5.191   6.323   7.420
42021SOL     OW27959  13.880   2.634  11.390
42021SOL    HW127960  13.836   2.641  11.305
42021SOL    HW227961  13.816   2.665  11.453
42022SOL     OW27962  12.658   0.508  12.942
42022SOL    HW127963  12.703   0.569  12.884
42022SOL    HW227964  12.602   0.457  12.883
42023SOL     OW27965   7.923   0.447  14.583
42023SOL    HW127966   7.871   0.409  14.511
42023SOL    HW227967   7.931   0.539  14.560
42024SOL     OW27968   2.736  12.886   3.687
42024SOL    HW127969   2.814  12.939   3.670
42024SOL    HW227970   2.667  12.928   3.635
42025SOL     OW27971  11.792  11.748  14.800
42025SOL    HW127972  11.856  11.677  14.802
42025SOL    HW227973  11.784  11.770  14.707
42026SOL     OW27974   7.534   6.810  13.330
42026SOL    HW127975   7.604   6.876  13.339
42026SOL    HW227976   7.580   6.727  13.320
42027SOL     OW27977   1.628  13.344   9.623
42027SOL    HW127978   1.555  13.367   9.566
42027SOL    HW227979   1.612  13.393   9.704
42028SOL     OW27980  14.747   0.953  12.610
42028SOL    HW127981  14.752   0.985  12.700
42028SOL    HW227982  14.700   1.022  12.562
42029SOL     OW27983   6.946   2.129  10.380
42029SOL    HW127984   7.021   2.129  10.321
42029SOL    HW227985   6.871   2.103  10.326
42030SOL     OW27986   9.498   5.833   0.624
42030SOL    HW127987   9.472   5.741   0.633
42030SOL    HW227988   9.576   5.831   0.570
42031SOL     OW27989   0.167   5.999  12.916
42031SOL    HW127990   0.071   5.991  12.923
42031SOL    HW227991   0.193   6.038  12.999
42032SOL     OW27992   2.768   8.556   3.061
42032SOL    HW127993   2.825   8.593   3.129
42032SOL    HW227994   2.704   8.625   3.043
42033SOL     OW27995   4.542   2.193   9.135
42033SOL    HW127996   4.543   2.260   9.204
42033SOL    HW227997   4.610   2.221   9.074
42034SOL     OW27998   7.313  13.591   7.229
42034SOL    HW127999   7.355  13.572   7.145
42034SOL    HW228000   7.363  13.664   7.264
42035SOL     OW28001   5.388   4.430   4.277
42035SOL    HW128002   5.321   4.497   4.261
42035SOL    HW228003   5.396   4.385   4.193
42036SOL     OW28004  13.552   7.734  14.700
42036SOL    HW128005  13.547   7.744  14.605
42036SOL    HW228006  13.603   7.654  14.712
42037SOL     OW28007  12.020  14.719   0.641
42037SOL    HW128008  11.998  14.750   0.553
42037SOL    HW228009  12.080  14.646   0.625
42038SOL     OW28010   0.889   0.877   6.830
42038SOL    HW128011   0.910   0.816   6.759
42038SOL    HW228012   0.847   0.951   6.786
42039SOL     OW28013  12.561   3.892   7.359
42039SOL    HW128014  12.625   3.946   7.406
42039SOL    HW228015  12.607   3.810   7.343
42040SOL     OW28016   6.024   1.471  12.229
42040SOL    HW128017   6.002   1.417  12.305
42040SOL    HW228018   6.002   1.560  12.257
42041SOL     OW28019  14.806  11.785  11.826
42041SOL    HW128020   0.006  11.796  11.763
42041SOL    HW228021  14.796  11.871  11.866
42042SOL     OW28022  11.153  13.939  14.139
42042SOL    HW128023  11.153  13.875  14.068
42042SOL    HW228024  11.081  13.913  14.196
42043SOL     OW28025   9.206  11.057  12.713
42043SOL    HW128026   9.288  11.104  12.730
42043SOL    HW228027   9.169  11.101  12.637
42044SOL     OW28028   8.077  12.387  11.154
42044SOL    HW128029   8.169  12.410  11.142
42044SOL    HW228030   8.042  12.457  11.208
42045SOL     OW28031  14.539  14.678   1.596
42045SOL    HW128032  14.500  14.755   1.555
42045SOL    HW228033  14.464  14.626   1.625
42046SOL     OW28034  11.781  11.610   6.298
42046SOL    HW128035  11.700  11.641   6.256
42046SOL    HW228036  11.770  11.631   6.391
42047SOL     OW28037   3.502  10.929   1.339
42047SOL    HW128038   3.472  10.847   1.378
42047SOL    HW228039   3.532  10.981   1.414
42048SOL     OW28040   9.828  12.916   6.977
42048SOL    HW128041   9.807  12.891   6.887
42048SOL    HW228042   9.838  13.011   6.974
42049SOL     OW28043  11.580  12.202   4.394
42049SOL    HW128044  11.519  12.262   4.352
42049SOL    HW228045  11.664  12.219   4.352
42050SOL     OW28046   0.981   4.304  12.092
42050SOL    HW128047   1.014   4.358  12.020
42050SOL    HW228048   1.054   4.245  12.113
42051SOL     OW28049   4.266   2.445  10.276
42051SOL    HW128050   4.298   2.453  10.366
42051SOL    HW228051   4.293   2.358  10.248
42052SOL     OW28052   2.180   2.010  14.324
42052SOL    HW128053   2.221   2.076  14.268
42052SOL    HW228054   2.151   2.058  14.401
42053SOL     OW28055   6.241   0.142   0.602
42053SOL    HW128056   6.328   0.104   0.596
42053SOL    HW228057   6.232   0.168   0.693
42054SOL     OW28058  12.547   4.996  12.928
42054SOL    HW128059  12.590   4.924  12.881
42054SOL    HW228060  12.455   4.989  12.903
42055SOL     OW28061   3.533   1.460   2.662
42055SOL    HW128062   3.609   1.516   2.648
42055SOL    HW228063   3.551   1.416   2.745
42056SOL     OW28064   0.117   8.144  10.143
42056SOL    HW128065   0.047   8.100  10.094
42056SOL    HW228066   0.155   8.206  10.081
42057SOL     OW28067   2.051  10.854  11.775
42057SOL    HW128068   1.959  10.846  11.749
42057SOL    HW228069   2.059  10.943  11.809
42058SOL     OW28070  11.759   2.092   4.198
42058SOL    HW128071  11.723   2.014   4.156
42058SOL    HW228072  11.848   2.068   4.221
42059SOL     OW28073   7.867  14.756  10.508
42059SOL    HW128074   7.773  14.771  10.517
42059SOL    HW228075   7.886  14.782  10.418
42060SOL     OW28076   4.882   5.563   2.610
42060SOL    HW128077   4.963   5.512   2.608
42060SOL    HW228078   4.813   5.498   2.595
42061SOL     OW28079   8.875  13.552   9.315
42061SOL    HW128080   8.951  13.579   9.263
42061SOL    HW228081   8.886  13.457   9.326
42062SOL     OW28082   3.685  10.598   3.494
42062SOL    HW128083   3.702  10.652   3.571
42062SOL    HW228084   3.752  10.624   3.431
42063SOL     OW28085   3.055  14.052   1.850
42063SOL    HW128086   3.072  14.147   1.853
42063SOL    HW228087   2.960  14.045   1.857
42064SOL     OW28088   1.092  10.178  10.743
42064SOL    HW128089   1.163  10.220  10.694
42064SOL    HW228090   1.129  10.095  10.772
42065SOL     OW28091   5.282  10.117   1.125
42065SOL    HW128092   5.300  10.207   1.153
42065SOL    HW228093   5.205  10.091   1.177
42066SOL     OW28094   7.820   4.723  12.280
42066SOL    HW128095   7.831   4.653  12.216
42066SOL    HW228096   7.835   4.681  12.365
42067SOL     OW28097   1.010   1.102   7.065
42067SOL    HW128098   1.014   1.016   7.107
42067SOL    HW228099   1.077   1.154   7.109
42068SOL     OW28100   9.853   6.199   0.797
42068SOL    HW128101   9.766   6.162   0.807
42068SOL    HW228102   9.908   6.125   0.770
42069SOL     OW28103   2.279   1.497  14.621
42069SOL    HW128104   2.222   1.429  14.587
42069SOL    HW228105   2.365   1.455  14.630
42070SOL     OW28106  11.563   0.931   0.856
42070SOL    HW128107  11.613   1.012   0.848
42070SOL    HW228108  11.623   0.870   0.898
42071SOL     OW28109  14.598  12.897  13.158
42071SOL    HW128110  14.585  12.804  13.178
42071SOL    HW228111  14.563  12.943  13.234
42072SOL     OW28112   1.909  11.376   6.832
42072SOL    HW128113   1.913  11.335   6.919
42072SOL    HW228114   1.999  11.405   6.816
42073SOL     OW28115  12.300   2.576  12.419
42073SOL    HW128116  12.261   2.663  12.414
42073SOL    HW228117  12.252   2.525  12.354
42074SOL     OW28118   6.295   4.295  14.244
42074SOL    HW128119   6.269   4.328  14.330
42074SOL    HW228120   6.389   4.313  14.238
42075SOL     OW28121   4.643  11.930   7.680
42075SOL    HW128122   4.601  11.976   7.608
42075SOL    HW228123   4.677  11.999   7.736
42076SOL     OW28124   8.605  14.199   2.906
42076SOL    HW128125   8.540  14.142   2.865
42076SOL    HW228126   8.658  14.231   2.833
42077SOL     OW28127   9.249   2.297   6.805
42077SOL    HW128128   9.276   2.383   6.773
42077SOL    HW228129   9.177   2.317   6.866
42078SOL     OW28130  14.316   2.304  12.460
42078SOL    HW128131  14.307   2.211  12.480
42078SOL    HW228132  14.404   2.327  12.490
42079SOL     OW28133  10.543   1.922   2.804
42079SOL    HW128134  10.534   1.917   2.709
42079SOL    HW228135  10.565   1.833   2.831
42080SOL     OW28136   5.519   6.332  13.244
42080SOL    HW128137   5.614   6.323  13.243
42080SOL    HW228138   5.503   6.410  13.298
42081SOL     OW28139   2.712   7.596   4.471
42081SOL    HW128140   2.700   7.601   4.566
42081SOL    HW228141   2.787   7.653   4.454
42082SOL     OW28142   2.748   3.753   7.787
42082SOL    HW128143   2.705   3.837   7.807
42082SOL    HW228144   2.706   3.724   7.705
42083SOL     OW28145   9.443  12.452   4.595
42083SOL    HW128146   9.425  12.406   4.676
42083SOL    HW228147   9.421  12.389   4.526
42084SOL     OW28148   3.335   5.061  11.075
42084SOL    HW128149   3.415   5.010  11.061
42084SOL    HW228150   3.328   5.068  11.170
42085SOL     OW28151   0.959  12.516   3.221
42085SOL    HW128152   0.959  12.421   3.208
42085SOL    HW228153   0.883  12.547   3.172
42086SOL     OW28154  10.481   5.551   7.055
42086SOL    HW128155  10.421   5.541   6.982
42086SOL    HW228156  10.500   5.645   7.058
42087SOL     OW28157  12.266  12.504   5.813
42087SOL    HW128158  12.268  12.584   5.867
42087SOL    HW228159  12.221  12.440   5.868
42088SOL     OW28160   7.915  13.610   5.062
42088SOL    HW128161   7.979  13.564   5.117
42088SOL    HW228162   7.913  13.699   5.097
42089SOL     OW28163  11.860  11.750   8.083
42089SOL    HW128164  11.820  11.707   8.158
42089SOL    HW228165  11.949  11.716   8.080
42090SOL     OW28166  13.962   5.642   0.418
42090SOL    HW128167  14.031   5.708   0.421
42090SOL    HW228168  13.947   5.618   0.509
42091SOL     OW28169   0.055   7.821   5.839
42091SOL    HW128170   0.095   7.852   5.758
42091SOL    HW228171  14.844   7.781   5.811
42092SOL     OW28172   7.402   4.467  14.430
42092SOL    HW128173   7.488   4.424  14.432
42092SOL    HW228174   7.393   4.506  14.517
42093SOL     OW28175   6.699  11.988   0.520
42093SOL    HW128176   6.739  12.007   0.605
42093SOL    HW228177   6.715  11.895   0.506
42094SOL     OW28178  10.345  13.648  11.287
42094SOL    HW128179  10.284  13.697  11.231
42094SOL    HW228180  10.290  13.610  11.355
42095SOL     OW28181   9.202   5.504   0.134
42095SOL    HW128182   9.129   5.463   0.089
42095SOL    HW228183   9.212   5.455   0.216
42096SOL     OW28184   8.687   8.346   5.067
42096SOL    HW128185   8.723   8.290   5.136
42096SOL    HW228186   8.647   8.419   5.115
42097SOL     OW28187  12.595  13.600   2.258
42097SOL    HW128188  12.578  13.644   2.175
42097SOL    HW228189  12.675  13.641   2.291
42098SOL     OW28190   0.375   6.375   9.031
42098SOL    HW128191   0.383   6.463   8.996
42098SOL    HW228192   0.454   6.330   9.002
42099SOL     OW28193   6.638   0.562   2.604
42099SOL    HW128194   6.612   0.539   2.693
42099SOL    HW228195   6.564   0.611   2.569
42100SOL     OW28196  14.158   5.856  10.361
42100SOL    HW128197  14.250   5.839  10.382
42100SOL    HW228198  14.140   5.799  10.286
42101SOL     OW28199   9.392  13.431  10.369
42101SOL    HW128200   9.416  13.425  10.462
42101SOL    HW228201   9.462  13.385  10.323
42102SOL     OW28202   9.816   0.978   8.811
42102SOL    HW128203   9.797   0.934   8.894
42102SOL    HW228204   9.893   0.933   8.777
42103SOL     OW28205   9.827  13.139   7.647
42103SOL    HW128206   9.805  13.160   7.556
42103SOL    HW228207   9.863  13.220   7.682
42104SOL     OW28208  10.914  11.981   0.854
42104SOL    HW128209  10.842  11.927   0.824
42104SOL    HW228210  10.987  11.919   0.867
42105SOL     OW28211   5.567   5.066   2.241
42105SOL    HW128212   5.636   5.016   2.284
42105SOL    HW228213   5.555   5.142   2.297
42106SOL     OW28214   0.083  12.708   1.163
42106SOL    HW128215   0.040  12.690   1.080
42106SOL    HW228216   0.013  12.697   1.228
42107SOL     OW28217  14.489  11.726   5.808
42107SOL    HW128218  14.583  11.709   5.809
42107SOL    HW228219  14.462  11.716   5.899
42108SOL     OW28220   0.708   6.107   2.922
42108SOL    HW128221   0.652   6.109   3.000
42108SOL    HW228222   0.696   6.018   2.887
42109SOL     OW28223   5.754   7.407   6.047
42109SOL    HW128224   5.752   7.457   6.128
42109SOL    HW228225   5.721   7.467   5.980
42110SOL     OW28226   3.537   7.162   5.359
42110SOL    HW128227   3.466   7.098   5.362
42110SOL    HW228228   3.525   7.214   5.439
42111SOL     OW28229  11.005   4.349   3.683
42111SOL    HW128230  11.098   4.330   3.670
42111SOL    HW228231  11.003   4.425   3.741
42112SOL     OW28232  10.897  14.558   2.914
42112SOL    HW128233  10.880  14.509   2.994
42112SOL    HW228234  10.961  14.625   2.940
42113SOL     OW28235   2.109   0.223   7.264
42113SOL    HW128236   2.182   0.178   7.305
42113SOL    HW228237   2.051   0.247   7.336
42114SOL     OW28238   5.853  13.902   1.917
42114SOL    HW128239   5.916  13.888   1.846
42114SOL    HW228240   5.830  13.994   1.911
42115SOL     OW28241  14.009   5.457   9.089
42115SOL    HW128242  13.955   5.422   9.018
42115SOL    HW228243  14.012   5.386   9.154
42116SOL     OW28244   2.583  10.873   2.082
42116SOL    HW128245   2.495  10.894   2.050
42116SOL    HW228246   2.642  10.912   2.017
42117SOL     OW28247   3.390  12.865   8.353
42117SOL    HW128248   3.341  12.782   8.351
42117SOL    HW228249   3.347  12.920   8.287
42118SOL     OW28250   5.196  13.854  12.116
42118SOL    HW128251   5.120  13.863  12.174
42118SOL    HW228252   5.184  13.769  12.075
42119SOL     OW28253   0.155   4.188  14.247
42119SOL    HW128254   0.219   4.190  14.175
42119SOL    HW228255   0.169   4.102  14.288
42120SOL     OW28256  13.943   8.644   3.559
42120SOL    HW128257  13.873   8.702   3.589
42120SOL    HW228258  13.897   8.570   3.519
42121SOL     OW28259  13.258  11.787  12.739
42121SOL    HW128260  13.231  11.721  12.675
42121SOL    HW228261  13.176  11.829  12.765
42122SOL     OW28262   4.630  13.292  11.325
42122SOL    HW128263   4.536  13.276  11.322
42122SOL    HW228264   4.670  13.206  11.313
42123SOL     OW28265   9.085   4.940   7.102
42123SOL    HW128266   9.074   5.028   7.064
42123SOL    HW228267   8.998   4.901   7.096
42124SOL     OW28268  13.733  11.272   9.325
42124SOL    HW128269  13.680  11.352   9.325
42124SOL    HW228270  13.700  11.222   9.251
42125SOL     OW28271  11.519  13.694   2.370
42125SOL    HW128272  11.608  13.664   2.351
42125SOL    HW228273  11.520  13.712   2.464
42126SOL     OW28274   7.406  13.916   6.377
42126SOL    HW128275   7.320  13.908   6.418
42126SOL    HW228276   7.422  14.011   6.372
42127SOL     OW28277  14.086  10.759  13.276
42127SOL    HW128278  14.134  10.768  13.193
42127SOL    HW228279  14.020  10.828  13.272
42128SOL     OW28280   9.982   2.568  13.212
42128SOL    HW128281   9.908   2.552  13.270
42128SOL    HW228282   9.946   2.563  13.124
42129SOL     OW28283   7.544   0.838   0.132
42129SOL    HW128284   7.515   0.755   0.095
42129SOL    HW228285   7.631   0.852   0.096
42130SOL     OW28286   1.874   3.361  12.419
42130SOL    HW128287   1.926   3.376  12.341
42130SOL    HW228288   1.874   3.267  12.432
42131SOL     OW28289   2.365   7.862   5.733
42131SOL    HW128290   2.323   7.907   5.806
42131SOL    HW228291   2.293   7.833   5.678
42132SOL     OW28292  11.134   0.502   2.780
42132SOL    HW128293  11.090   0.428   2.821
42132SOL    HW228294  11.104   0.578   2.830
42133SOL     OW28295   0.564   3.984   3.563
42133SOL    HW128296   0.625   3.913   3.585
42133SOL    HW228297   0.499   3.943   3.507
42134SOL     OW28298   1.001   2.730   9.261
42134SOL    HW128299   0.968   2.698   9.177
42134SOL    HW228300   1.088   2.692   9.268
42135SOL     OW28301   0.525   6.954  10.438
42135SOL    HW128302   0.501   7.026  10.380
42135SOL    HW228303   0.455   6.890  10.426
42136SOL     OW28304   2.751  12.071   4.099
42136SOL    HW128305   2.707  12.153   4.121
42136SOL    HW228306   2.692  12.029   4.036
42137SOL     OW28307   0.857   9.389  10.736
42137SOL    HW128308   0.868   9.298  10.764
42137SOL    HW228309   0.913   9.397  10.659
42138SOL     OW28310  14.481   8.280   4.194
42138SOL    HW128311  14.449   8.190   4.191
42138SOL    HW228312  14.576   8.272   4.181
42139SOL     OW28313   4.519  13.047   2.442
42139SOL    HW128314   4.529  12.984   2.371
42139SOL    HW228315   4.550  13.130   2.405
42140SOL     OW28316  11.875   0.189   3.447
42140SOL    HW128317  11.835   0.262   3.494
42140SOL    HW228318  11.963   0.221   3.423
42141SOL     OW28319   6.396  13.452  12.320
42141SOL    HW128320   6.466  13.475  12.382
42141SOL    HW228321   6.336  13.526  12.325
42142SOL     OW28322   5.028   0.926   9.131
42142SOL    HW128323   5.067   0.855   9.080
42142SOL    HW228324   5.015   0.997   9.068
42143SOL     OW28325  11.311   0.277  13.442
42143SOL    HW128326  11.369   0.247  13.372
42143SOL    HW228327  11.324   0.372  13.443
42144SOL     OW28328  12.001   8.732   2.850
42144SOL    HW128329  12.046   8.802   2.897
42144SOL    HW228330  11.989   8.766   2.761
42145SOL     OW28331   1.468   7.038  12.932
42145SOL    HW128332   1.539   7.101  12.947
42145SOL    HW228333   1.494   6.993  12.851
42146SOL     OW28334   2.643   8.697  12.711
42146SOL    HW128335   2.578   8.767  12.705
42146SOL    HW228336   2.709   8.730  12.772
42147SOL     OW28337  11.611  12.760   2.350
42147SOL    HW128338  11.545  12.735   2.415
42147SOL    HW228339  11.627  12.680   2.300
42148SOL     OW28340  11.099   9.281   0.440
42148SOL    HW128341  11.192   9.301   0.445
42148SOL    HW228342  11.095   9.191   0.406
42149SOL     OW28343   6.423   9.728   5.289
42149SOL    HW128344   6.437   9.633   5.284
42149SOL    HW228345   6.343   9.738   5.341
42150SOL     OW28346   4.194   1.242   0.897
42150SOL    HW128347   4.149   1.236   0.982
42150SOL    HW228348   4.238   1.327   0.900
42151SOL     OW28349   0.521  11.805   5.010
42151SOL    HW128350   0.429  11.786   4.994
42151SOL    HW228351   0.533  11.896   4.982
42152SOL     OW28352   9.262   1.157   2.710
42152SOL    HW128353   9.229   1.180   2.623
42152SOL    HW228354   9.301   1.238   2.743
42153SOL     OW28355  13.343   0.313   0.637
42153SOL    HW128356  13.319   0.317   0.544
42153SOL    HW228357  13.265   0.279   0.681
42154SOL     OW28358   4.794  11.006   3.797
42154SOL    HW128359   4.848  11.037   3.725
42154SOL    HW228360   4.835  11.042   3.875
42155SOL     OW28361   0.328   7.814  13.389
42155SOL    HW128362   0.344   7.724  13.419
42155SOL    HW228363   0.383   7.868  13.445
42156SOL     OW28364   5.147  14.711   0.574
42156SOL    HW128365   5.056  14.731   0.594
42156SOL    HW228366   5.187  14.795   0.554
42157SOL     OW28367   9.222  10.915  11.209
42157SOL    HW128368   9.162  10.840  11.205
42157SOL    HW228369   9.188  10.969  11.280
42158SOL     OW28370  13.195   6.004   2.621
42158SOL    HW128371  13.116   5.953   2.603
42158SOL    HW228372  13.177   6.049   2.703
42159SOL     OW28373   6.034   5.666  14.603
42159SOL    HW128374   6.128   5.683  14.612
42159SOL    HW228375   6.020   5.586  14.653
42160SOL     OW28376   5.353   6.631  12.406
42160SOL    HW128377   5.347   6.623  12.310
42160SOL    HW228378   5.447   6.640  12.423
42161SOL     OW28379  14.490   7.217   3.975
42161SOL    HW128380  14.409   7.216   4.026
42161SOL    HW228381  14.559   7.200   4.039
42162SOL     OW28382  14.217  11.164   2.397
42162SOL    HW128383  14.151  11.218   2.439
42162SOL    HW228384  14.293  11.167   2.456
42163SOL     OW28385   5.035  13.100  10.301
42163SOL    HW128386   4.981  13.037  10.253
42163SOL    HW228387   5.079  13.150  10.232
42164SOL     OW28388   9.221  12.099   1.642
42164SOL    HW128389   9.290  12.082   1.707
42164SOL    HW228390   9.185  12.012   1.622
42165SOL     OW28391  14.572   9.703  12.343
42165SOL    HW128392  14.658   9.672  12.373
42165SOL    HW228393  14.582   9.711  12.249
42166SOL     OW28394  11.498   1.840   8.077
42166SOL    HW128395  11.430   1.818   8.141
42166SOL    HW228396  11.466   1.919   8.034
42167SOL     OW28397  14.493   7.323   8.586
42167SOL    HW128398  14.484   7.388   8.516
42167SOL    HW228399  14.411   7.329   8.634
42168SOL     OW28400   5.754   2.127  11.804
42168SOL    HW128401   5.714   2.210  11.828
42168SOL    HW228402   5.680   2.069  11.787
42169SOL     OW28403   2.716   2.272  13.379
42169SOL    HW128404   2.758   2.350  13.416
42169SOL    HW228405   2.666   2.235  13.452
42170SOL     OW28406   5.129   1.738   9.957
42170SOL    HW128407   5.211   1.691   9.973
42170SOL    HW228408   5.155   1.819   9.913
42171SOL     OW28409   4.629   9.926   0.877
42171SOL    HW128410   4.724   9.934   0.869
42171SOL    HW228411   4.595   9.953   0.791
42172SOL     OW28412   2.741   0.428   3.129
42172SOL    HW128413   2.773   0.500   3.182
42172SOL    HW228414   2.807   0.359   3.141
42173SOL     OW28415  10.880  11.890   7.098
42173SOL    HW128416  10.967  11.918   7.127
42173SOL    HW228417  10.852  11.959   7.037
42174SOL     OW28418   7.333  12.993   2.268
42174SOL    HW128419   7.269  13.034   2.210
42174SOL    HW228420   7.288  12.986   2.352
42175SOL     OW28421   2.416  11.917   2.143
42175SOL    HW128422   2.341  11.898   2.199
42175SOL    HW228423   2.458  11.992   2.186
42176SOL     OW28424   2.791   9.030   2.500
42176SOL    HW128425   2.839   8.974   2.440
42176SOL    HW228426   2.785   8.979   2.581
42177SOL     OW28427  13.127  12.748   4.182
42177SOL    HW128428  13.186  12.816   4.150
42177SOL    HW228429  13.060  12.740   4.113
42178SOL     OW28430   7.259  14.132   1.545
42178SOL    HW128431   7.271  14.220   1.509
42178SOL    HW228432   7.266  14.073   1.470
42179SOL     OW28433   3.130   4.736  11.595
42179SOL    HW128434   3.113   4.809  11.535
42179SOL    HW228435   3.166   4.777  11.673
42180SOL     OW28436   0.571  10.539  10.329
42180SOL    HW128437   0.534  10.563  10.244
42180SOL    HW228438   0.600  10.622  10.367
42181SOL     OW28439   3.916   5.858   0.208
42181SOL    HW128440   3.996   5.832   0.253
42181SOL    HW228441   3.944   5.927   0.147
42182SOL     OW28442  10.335   3.061   8.660
42182SOL    HW128443  10.430   3.071   8.656
42182SOL    HW228444  10.304   3.146   8.691
42183SOL     OW28445   9.644   4.381   9.549
42183SOL    HW128446   9.734   4.386   9.517
42183SOL    HW228447   9.651   4.382   9.644
42184SOL     OW28448   8.123   0.811   5.650
42184SOL    HW128449   8.164   0.835   5.567
42184SOL    HW228450   8.195   0.808   5.713
42185SOL     OW28451   1.495   0.827   4.425
42185SOL    HW128452   1.554   0.882   4.476
42185SOL    HW228453   1.527   0.834   4.336
42186SOL     OW28454  10.487   6.184   4.920
42186SOL    HW128455  10.548   6.255   4.939
42186SOL    HW228456  10.543   6.106   4.914
42187SOL     OW28457  11.697   8.810   9.797
42187SOL    HW128458  11.702   8.755   9.718
42187SOL    HW228459  11.786   8.807   9.833
42188SOL     OW28460  10.852  13.845  11.880
42188SOL    HW128461  10.814  13.883  11.801
42188SOL    HW228462  10.868  13.920  11.938
42189SOL     OW28463   1.636   9.526   3.694
42189SOL    HW128464   1.617   9.463   3.764
42189SOL    HW228465   1.598   9.608   3.724
42190SOL     OW28466   1.973   6.629   9.994
42190SOL    HW128467   1.900   6.617  10.055
42190SOL    HW228468   2.041   6.570  10.027
42191SOL     OW28469  12.193  12.361   2.649
42191SOL    HW128470  12.195  12.400   2.737
42191SOL    HW228471  12.145  12.425   2.597
42192SOL     OW28472  13.589  12.995   7.124
42192SOL    HW128473  13.577  12.906   7.157
42192SOL    HW228474  13.570  12.988   7.030
42193SOL     OW28475  12.603  11.308   6.520
42193SOL    HW128476  12.557  11.300   6.437
42193SOL    HW228477  12.609  11.402   6.536
42194SOL     OW28478   3.128   9.800   5.561
42194SOL    HW128479   3.219   9.771   5.568
42194SOL    HW228480   3.106   9.787   5.469
42195SOL     OW28481   7.562   3.995   6.242
42195SOL    HW128482   7.566   4.030   6.153
42195SOL    HW228483   7.625   3.923   6.241
42196SOL     OW28484  11.676  11.551  11.615
42196SOL    HW128485  11.619  11.476  11.629
42196SOL    HW228486  11.676  11.597  11.699
42197SOL     OW28487   0.243  12.219  14.389
42197SOL    HW128488   0.214  12.136  14.427
42197SOL    HW228489   0.337  12.208  14.374
42198SOL     OW28490   2.969   0.889  14.362
42198SOL    HW128491   2.879   0.857  14.370
42198SOL    HW228492   3.023   0.815  14.390
42199SOL     OW28493  10.372  13.274   7.252
42199SOL    HW128494  10.444  13.334   7.275
42199SOL    HW228495  10.376  13.267   7.157
42200SOL     OW28496  11.577   4.996  12.926
42200SOL    HW128497  11.613   4.907  12.926
42200SOL    HW228498  11.511   4.995  12.856
42201SOL     OW28499   1.561   9.258   1.516
42201SOL    HW128500   1.621   9.229   1.584
42201SOL    HW228501   1.495   9.189   1.511
42202SOL     OW28502   0.149   3.119  14.628
42202SOL    HW128503   0.076   3.179  14.613
42202SOL    HW228504   0.147   3.059  14.553
42203SOL     OW28505   8.596   2.078   8.249
42203SOL    HW128506   8.651   2.151   8.220
42203SOL    HW228507   8.521   2.120   8.291
42204SOL     OW28508   0.000   7.470   2.703
42204SOL    HW128509   0.035   7.558   2.717
42204SOL    HW228510   0.048   7.438   2.627
42205SOL     OW28511   6.474  12.943   0.800
42205SOL    HW128512   6.502  12.951   0.709
42205SOL    HW228513   6.459  13.034   0.828
42206SOL     OW28514   3.807  13.782  12.942
42206SOL    HW128515   3.902  13.783  12.930
42206SOL    HW228516   3.785  13.870  12.973
42207SOL     OW28517   7.634   0.161  14.334
42207SOL    HW128518   7.677   0.120  14.409
42207SOL    HW228519   7.640   0.255  14.350
42208SOL     OW28520   0.713   0.940   9.815
42208SOL    HW128521   0.654   0.958   9.888
42208SOL    HW228522   0.752   0.855   9.837
42209SOL     OW28523   1.525   1.868  13.084
42209SOL    HW128524   1.433   1.840  13.082
42209SOL    HW228525   1.572   1.797  13.039
42210SOL     OW28526   9.936   2.034   6.513
42210SOL    HW128527   9.960   2.071   6.428
42210SOL    HW228528   9.923   2.109   6.570
42211SOL     OW28529   1.748  12.670   3.374
42211SOL    HW128530   1.803  12.699   3.301
42211SOL    HW228531   1.686  12.742   3.388
42212SOL     OW28532   6.937   9.506   8.327
42212SOL    HW128533   7.028   9.488   8.352
42212SOL    HW228534   6.895   9.421   8.325
42213SOL     OW28535  10.470   4.758   9.429
42213SOL    HW128536  10.485   4.852   9.419
42213SOL    HW228537  10.403   4.751   9.497
42214SOL     OW28538  13.702   1.309   1.331
42214SOL    HW128539  13.783   1.268   1.361
42214SOL    HW228540  13.649   1.237   1.297
42215SOL     OW28541   4.082   1.700   4.661
42215SOL    HW128542   4.173   1.701   4.630
42215SOL    HW228543   4.048   1.615   4.634
42216SOL     OW28544  11.246   6.603  13.606
42216SOL    HW128545  11.200   6.684  13.627
42216SOL    HW228546  11.246   6.554  13.688
42217SOL     OW28547   3.255   7.145  12.101
42217SOL    HW128548   3.330   7.094  12.132
42217SOL    HW228549   3.291   7.197  12.029
42218SOL     OW28550   1.307   5.621  12.561
42218SOL    HW128551   1.294   5.690  12.495
42218SOL    HW228552   1.347   5.666  12.635
42219SOL     OW28553  11.904   1.189   6.945
42219SOL    HW128554  11.880   1.185   7.038
42219SOL    HW228555  11.995   1.221   6.945
42220SOL     OW28556   7.971   3.638   1.740
42220SOL    HW128557   7.956   3.653   1.833
42220SOL    HW228558   7.889   3.662   1.697
42221SOL     OW28559   8.271  10.492   2.189
42221SOL    HW128560   8.283  10.522   2.279
42221SOL    HW228561   8.340  10.427   2.176
42222SOL     OW28562   8.821  10.257   1.326
42222SOL    HW128563   8.761  10.321   1.364
42222SOL    HW228564   8.902  10.306   1.310
42223SOL     OW28565   0.774   3.119  11.904
42223SOL    HW128566   0.807   3.109  11.993
42223SOL    HW228567   0.731   3.205  11.903
42224SOL     OW28568   3.950   3.958   0.480
42224SOL    HW128569   3.889   4.028   0.502
42224SOL    HW228570   4.013   3.957   0.552
42225SOL     OW28571  11.650   9.115   6.345
42225SOL    HW128572  11.696   9.189   6.306
42225SOL    HW228573  11.571   9.154   6.383
42226SOL     OW28574  14.857   7.327   3.398
42226SOL    HW128575  14.762   7.319   3.390
42226SOL    HW228576   0.021   7.271   3.329
42227SOL     OW28577  12.389   0.144   0.503
42227SOL    HW128578  12.300   0.180   0.501
42227SOL    HW228579  12.378   0.057   0.540
42228SOL     OW28580   8.219  11.039   3.219
42228SOL    HW128581   8.176  11.038   3.305
42228SOL    HW228582   8.305  11.077   3.235
42229SOL     OW28583   2.620   2.821  11.513
42229SOL    HW128584   2.605   2.910  11.546
42229SOL    HW228585   2.604   2.827  11.419
42230SOL     OW28586   2.840   2.833   1.549
42230SOL    HW128587   2.880   2.874   1.625
42230SOL    HW228588   2.903   2.767   1.520
42231SOL     OW28589   7.687   8.808   9.975
42231SOL    HW128590   7.703   8.719   9.944
42231SOL    HW228591   7.759   8.859   9.937
42232SOL     OW28592   9.825   3.671   4.244
42232SOL    HW128593   9.748   3.643   4.194
42232SOL    HW228594   9.794   3.679   4.334
42233SOL     OW28595  13.687  13.070   8.789
42233SOL    HW128596  13.657  13.025   8.868
42233SOL    HW228597  13.650  13.019   8.717
42234SOL     OW28598   3.526  11.316   4.516
42234SOL    HW128599   3.490  11.256   4.582
42234SOL    HW228600   3.578  11.260   4.458
42235SOL     OW28601   2.041  10.691   0.130
42235SOL    HW128602   2.119  10.682   0.076
42235SOL    HW228603   1.969  10.664   0.073
42236SOL     OW28604   5.931   5.736   6.523
42236SOL    HW128605   5.947   5.826   6.494
42236SOL    HW228606   5.940   5.739   6.618
42237SOL     OW28607  11.265   6.592   2.330
42237SOL    HW128608  11.196   6.657   2.318
42237SOL    HW228609  11.219   6.511   2.350
42238SOL     OW28610  13.290  14.058   7.370
42238SOL    HW128611  13.330  14.119   7.431
42238SOL    HW228612  13.247  14.113   7.305
42239SOL     OW28613   9.296   2.357   4.967
42239SOL    HW128614   9.317   2.411   5.043
42239SOL    HW228615   9.228   2.406   4.921
42240SOL     OW28616  13.633   8.656  12.862
42240SOL    HW128617  13.625   8.594  12.935
42240SOL    HW228618  13.718   8.637  12.823
42241SOL     OW28619  12.072   7.220   8.288
42241SOL    HW128620  12.049   7.293   8.231
42241SOL    HW228621  12.028   7.144   8.251
42242SOL     OW28622  14.100   0.181   9.934
42242SOL    HW128623  14.007   0.181   9.912
42242SOL    HW228624  14.141   0.235   9.866
42243SOL     OW28625  10.444   9.977   3.154
42243SOL    HW128626  10.381  10.045   3.130
42243SOL    HW228627  10.452   9.924   3.075
42244SOL     OW28628   8.835   4.706   5.525
42244SOL    HW128629   8.752   4.666   5.500
42244SOL    HW228630   8.813   4.759   5.602
42245SOL     OW28631   1.203  13.358   7.055
42245SOL    HW128632   1.238  13.436   7.011
42245SOL    HW228633   1.138  13.323   6.994
42246SOL     OW28634  11.252   9.903   6.426
42246SOL    HW128635  11.289   9.918   6.513
42246SOL    HW228636  11.187   9.973   6.416
42247SOL     OW28637  13.248   2.676   0.387
42247SOL    HW128638  13.169   2.730   0.393
42247SOL    HW228639  13.253   2.632   0.472
42248SOL     OW28640  13.303  14.218   3.996
42248SOL    HW128641  13.305  14.233   4.090
42248SOL    HW228642  13.212  14.229   3.971
42249SOL     OW28643   3.239   5.228   3.449
42249SOL    HW128644   3.255   5.210   3.542
42249SOL    HW228645   3.279   5.314   3.434
42250SOL     OW28646  13.639   9.945   3.862
42250SOL    HW128647  13.557   9.982   3.895
42250SOL    HW228648  13.629   9.850   3.875
42251SOL     OW28649   4.736   7.432   7.002
42251SOL    HW128650   4.767   7.422   6.912
42251SOL    HW228651   4.680   7.356   7.016
42252SOL     OW28652  12.324   8.735   2.226
42252SOL    HW128653  12.230   8.745   2.216
42252SOL    HW228654  12.342   8.763   2.315
42253SOL     OW28655  14.256   4.267   2.438
42253SOL    HW128656  14.179   4.320   2.415
42253SOL    HW228657  14.226   4.211   2.509
42254SOL     OW28658   6.665   2.319   2.111
42254SOL    HW128659   6.582   2.348   2.148
42254SOL    HW228660   6.719   2.397   2.110
42255SOL     OW28661  11.638   4.499  11.646
42255SOL    HW128662  11.663   4.520  11.556
42255SOL    HW228663  11.558   4.550  11.661
42256SOL     OW28664   0.371  11.295   8.244
42256SOL    HW128665   0.400  11.225   8.303
42256SOL    HW228666   0.452  11.325   8.201
42257SOL     OW28667   3.056   0.925  12.796
42257SOL    HW128668   3.000   0.859  12.756
42257SOL    HW228669   3.004   1.006  12.791
42258SOL     OW28670   0.900  14.127   0.386
42258SOL    HW128671   0.946  14.060   0.436
42258SOL    HW228672   0.848  14.174   0.451
42259SOL     OW28673   9.178   3.410  13.037
42259SOL    HW128674   9.176   3.366  13.122
42259SOL    HW228675   9.109   3.476  13.043
42260SOL     OW28676   9.875   5.456  12.886
42260SOL    HW128677   9.940   5.399  12.844
42260SOL    HW228678   9.816   5.479  12.815
42261SOL     OW28679   3.076   5.591   1.867
42261SOL    HW128680   3.157   5.559   1.827
42261SOL    HW228681   3.011   5.586   1.797
42262SOL     OW28682   2.422  13.762   5.738
42262SOL    HW128683   2.422  13.725   5.826
42262SOL    HW228684   2.457  13.692   5.683
42263SOL     OW28685   9.130   2.195   3.893
42263SOL    HW128686   9.171   2.123   3.844
42263SOL    HW228687   9.154   2.274   3.844
42264SOL     OW28688   0.953   1.856  11.106
42264SOL    HW128689   1.014   1.874  11.035
42264SOL    HW228690   0.927   1.942  11.139
42265SOL     OW28691   3.350   9.838  11.687
42265SOL    HW128692   3.331   9.893  11.611
42265SOL    HW228693   3.408   9.892  11.742
42266SOL     OW28694  10.812   4.818   0.428
42266SOL    HW128695  10.758   4.760   0.374
42266SOL    HW228696  10.900   4.781   0.421
42267SOL     OW28697   4.064  14.657  12.740
42267SOL    HW128698   4.096  14.620  12.822
42267SOL    HW228699   4.108  14.742  12.734
42268SOL     OW28700  14.709   9.043   5.679
42268SOL    HW128701  14.661   9.121   5.707
42268SOL    HW228702  14.769   9.075   5.612
42269SOL     OW28703   8.710   6.799   2.368
42269SOL    HW128704   8.805   6.808   2.383
42269SOL    HW228705   8.702   6.720   2.313
42270SOL     OW28706   6.015  13.145   3.159
42270SOL    HW128707   5.960  13.203   3.211
42270SOL    HW228708   5.989  13.057   3.186
42271SOL     OW28709   5.106  10.139   8.659
42271SOL    HW128710   5.024  10.120   8.706
42271SOL    HW228711   5.099  10.087   8.579
42272SOL     OW28712   5.534  12.803   0.137
42272SOL    HW128713   5.523  12.859   0.214
42272SOL    HW228714   5.588  12.730   0.168
42273SOL     OW28715   3.475   8.966   2.813
42273SOL    HW128716   3.483   8.872   2.826
42273SOL    HW228717   3.404   8.993   2.871
42274SOL     OW28718   8.435   6.332  13.686
42274SOL    HW128719   8.378   6.367  13.618
42274SOL    HW228720   8.424   6.237  13.681
42275SOL     OW28721  11.273  13.804   2.457
42275SOL    HW128722  11.260  13.730   2.516
42275SOL    HW228723  11.350  13.780   2.406
42276SOL     OW28724   6.370   8.292   5.343
42276SOL    HW128725   6.389   8.202   5.317
42276SOL    HW228726   6.388   8.294   5.437
42277SOL     OW28727   5.717   9.079   8.753
42277SOL    HW128728   5.698   8.986   8.741
42277SOL    HW228729   5.813   9.083   8.758
42278SOL     OW28730   6.327   5.702  11.427
42278SOL    HW128731   6.403   5.702  11.369
42278SOL    HW228732   6.287   5.788  11.413
42279SOL     OW28733  11.992  10.292   1.426
42279SOL    HW128734  11.932  10.357   1.389
42279SOL    HW228735  12.072  10.301   1.374
42280SOL     OW28736   6.897   6.532  13.914
42280SOL    HW128737   6.973   6.484  13.948
42280SOL    HW228738   6.922   6.624  13.923
42281SOL     OW28739   7.034   0.319   5.961
42281SOL    HW128740   7.080   0.238   5.940
42281SOL    HW228741   7.097   0.370   6.012
42282SOL     OW28742   9.434  11.093   7.093
42282SOL    HW128743   9.441  11.045   7.010
42282SOL    HW228744   9.522  11.088   7.131
42283SOL     OW28745  13.410   0.035   2.313
42283SOL    HW128746  13.447   0.006   2.397
42283SOL    HW228747  13.334  14.850   2.300
42284SOL     OW28748   0.142   8.701   2.458
42284SOL    HW128749   0.219   8.718   2.405
42284SOL    HW228750   0.069   8.699   2.395
42285SOL     OW28751   3.294  11.309   4.320
42285SOL    HW128752   3.307  11.383   4.261
42285SOL    HW228753   3.379  11.296   4.362
42286SOL     OW28754  12.908   3.652   0.975
42286SOL    HW128755  12.973   3.720   0.995
42286SOL    HW228756  12.871   3.628   1.059
42287SOL     OW28757   9.000   2.360   3.046
42287SOL    HW128758   9.052   2.440   3.034
42287SOL    HW228759   8.940   2.359   2.971
42288SOL     OW28760   1.918   4.273   1.571
42288SOL    HW128761   1.824   4.283   1.558
42288SOL    HW228762   1.951   4.247   1.485
42289SOL     OW28763  13.164   6.407  13.719
42289SOL    HW128764  13.134   6.350  13.790
42289SOL    HW228765  13.257   6.385  13.709
42290SOL     OW28766  12.017   4.409   1.903
42290SOL    HW128767  12.020   4.345   1.832
42290SOL    HW228768  12.058   4.488   1.867
42291SOL     OW28769   8.643   1.354   6.949
42291SOL    HW128770   8.726   1.381   6.989
42291SOL    HW228771   8.576   1.381   7.013
42292SOL     OW28772  13.492  12.405   8.998
42292SOL    HW128773  13.567  12.354   8.968
42292SOL    HW228774  13.492  12.395   9.093
42293SOL     OW28775   4.257   8.015   9.961
42293SOL    HW128776   4.244   7.974   9.876
42293SOL    HW228777   4.238   7.945  10.024
42294SOL     OW28778  13.108  10.368   4.910
42294SOL    HW128779  13.113  10.273   4.925
42294SOL    HW228780  13.113  10.378   4.815
42295SOL     OW28781   9.673   0.671   3.564
42295SOL    HW128782   9.651   0.674   3.471
42295SOL    HW228783   9.592   0.696   3.609
42296SOL     OW28784  10.582  14.404   9.909
42296SOL    HW128785  10.545  14.450   9.834
42296SOL    HW228786  10.510  14.352   9.943
42297SOL     OW28787  14.607   5.814   5.524
42297SOL    HW128788  14.629   5.725   5.553
42297SOL    HW228789  14.512   5.813   5.513
42298SOL     OW28790  13.783   9.412   2.476
42298SOL    HW128791  13.746   9.346   2.417
42298SOL    HW228792  13.714   9.477   2.486
42299SOL     OW28793  12.968   9.563  10.896
42299SOL    HW128794  12.924   9.528  10.973
42299SOL    HW228795  13.058   9.532  10.903
42300SOL     OW28796   6.983   1.294  12.271
42300SOL    HW128797   7.027   1.301  12.186
42300SOL    HW228798   7.019   1.214  12.310
42301SOL     OW28799  12.605   4.128  14.719
42301SOL    HW128800  12.653   4.155  14.641
42301SOL    HW228801  12.663   4.152  14.792
42302SOL     OW28802   5.972   3.508   1.929
42302SOL    HW128803   5.905   3.479   1.867
42302SOL    HW228804   5.975   3.603   1.917
42303SOL     OW28805   6.608  12.813   2.843
42303SOL    HW128806   6.574  12.751   2.779
42303SOL    HW228807   6.695  12.779   2.865
42304SOL     OW28808   9.970   5.979   0.752
42304SOL    HW128809   9.967   5.903   0.810
42304SOL    HW228810  10.061   5.982   0.722
42305SOL     OW28811   6.318  14.449  12.108
42305SOL    HW128812   6.334  14.531  12.062
42305SOL    HW228813   6.323  14.382  12.040
42306SOL     OW28814   1.833   2.210   7.670
42306SOL    HW128815   1.795   2.274   7.730
42306SOL    HW228816   1.926   2.230   7.670
42307SOL     OW28817   3.109  14.307   6.224
42307SOL    HW128818   3.017  14.293   6.246
42307SOL    HW228819   3.109  14.385   6.168
42308SOL     OW28820   5.499   0.955   7.624
42308SOL    HW128821   5.525   0.904   7.547
42308SOL    HW228822   5.465   0.890   7.685
42309SOL     OW28823   2.923  13.002   4.615
42309SOL    HW128824   2.884  12.952   4.543
42309SOL    HW228825   2.860  13.071   4.634
42310SOL     OW28826   3.696   7.122   6.338
42310SOL    HW128827   3.639   7.077   6.276
42310SOL    HW228828   3.782   7.082   6.325
42311SOL     OW28829   6.699  11.870   4.032
42311SOL    HW128830   6.641  11.945   4.014
42311SOL    HW228831   6.742  11.893   4.115
42312SOL     OW28832   3.319  13.152  12.770
42312SOL    HW128833   3.397  13.196  12.803
42312SOL    HW228834   3.319  13.067  12.814
42313SOL     OW28835   9.271   0.580  10.831
42313SOL    HW128836   9.295   0.525  10.905
42313SOL    HW228837   9.180   0.557  10.812
42314SOL     OW28838  13.677  13.391  14.600
42314SOL    HW128839  13.713  13.435  14.677
42314SOL    HW228840  13.585  13.379  14.621
42315SOL     OW28841  12.076   6.905   6.863
42315SOL    HW128842  12.017   6.900   6.788
42315SOL    HW228843  12.163   6.916   6.824
42316SOL     OW28844   9.138   8.338   5.405
42316SOL    HW128845   9.130   8.259   5.352
42316SOL    HW228846   9.094   8.317   5.487
42317SOL     OW28847   9.648  11.626  14.116
42317SOL    HW128848   9.570  11.586  14.077
42317SOL    HW228849   9.718  11.562  14.102
42318SOL     OW28850  14.327  12.194  14.532
42318SOL    HW128851  14.258  12.256  14.558
42318SOL    HW228852  14.403  12.250  14.515
42319SOL     OW28853   3.522   5.199  11.778
42319SOL    HW128854   3.564   5.201  11.865
42319SOL    HW228855   3.592   5.172  11.719
42320SOL     OW28856   4.884   5.449   8.232
42320SOL    HW128857   4.879   5.367   8.184
42320SOL    HW228858   4.844   5.514   8.174
42321SOL     OW28859   4.077   3.756   7.058
42321SOL    HW128860   4.164   3.776   7.094
42321SOL    HW228861   4.022   3.741   7.135
42322SOL     OW28862   9.638  12.696   6.171
42322SOL    HW128863   9.572  12.629   6.155
42322SOL    HW228864   9.640  12.704   6.267
42323SOL     OW28865  10.301   1.302   0.882
42323SOL    HW128866  10.338   1.356   0.812
42323SOL    HW228867  10.297   1.360   0.958
42324SOL     OW28868   2.741  10.076   3.725
42324SOL    HW128869   2.817  10.018   3.732
42324SOL    HW228870   2.675  10.024   3.679
42325SOL     OW28871   4.299  14.537   7.361
42325SOL    HW128872   4.320  14.630   7.364
42325SOL    HW228873   4.213  14.531   7.403
42326SOL     OW28874  13.972   9.614  12.448
42326SOL    HW128875  13.950   9.581  12.535
42326SOL    HW228876  14.057   9.655  12.458
42327SOL     OW28877   2.271   4.390   3.855
42327SOL    HW128878   2.199   4.393   3.792
42327SOL    HW228879   2.231   4.415   3.938
42328SOL     OW28880   8.439  11.642   5.491
42328SOL    HW128881   8.435  11.640   5.587
42328SOL    HW228882   8.348  11.627   5.463
42329SOL     OW28883  12.017   7.826   3.150
42329SOL    HW128884  12.008   7.800   3.058
42329SOL    HW228885  12.095   7.882   3.152
42330SOL     OW28886   8.980   4.178   9.077
42330SOL    HW128887   8.990   4.219   8.991
42330SOL    HW228888   9.011   4.244   9.138
42331SOL     OW28889   2.530   6.062  10.524
42331SOL    HW128890   2.499   6.043  10.436
42331SOL    HW228891   2.564   6.151  10.519
42332SOL     OW28892   7.838  10.881   5.276
42332SOL    HW128893   7.805  10.957   5.229
42332SOL    HW228894   7.893  10.836   5.212
42333SOL     OW28895   7.175   5.827   8.780
42333SOL    HW128896   7.228   5.853   8.855
42333SOL    HW228897   7.128   5.749   8.809
42334SOL     OW28898   1.058   5.015   4.636
42334SOL    HW128899   1.134   5.012   4.694
42334SOL    HW228900   0.998   4.948   4.669
42335SOL     OW28901   6.570   5.139  14.153
42335SOL    HW128902   6.621   5.219  14.166
42335SOL    HW228903   6.634   5.073  14.128
42336SOL     OW28904  14.327  11.361   0.897
42336SOL    HW128905  14.345  11.280   0.944
42336SOL    HW228906  14.287  11.418   0.963
42337SOL     OW28907   6.926   5.615   3.967
42337SOL    HW128908   6.856   5.570   4.014
42337SOL    HW228909   6.947   5.556   3.894
42338SOL     OW28910   3.556  14.024   8.646
42338SOL    HW128911   3.602  13.949   8.608
42338SOL    HW228912   3.623  14.092   8.655
42339SOL     OW28913   3.149   6.404   3.564
42339SOL    HW128914   3.066   6.433   3.526
42339SOL    HW228915   3.126   6.377   3.653
42340SOL     OW28916   0.530  11.127   7.145
42340SOL    HW128917   0.465  11.186   7.106
42340SOL    HW228918   0.480  11.070   7.202
42341SOL     OW28919   9.592   9.745   1.627
42341SOL    HW128920   9.551   9.824   1.593
42341SOL    HW228921   9.639   9.774   1.705
42342SOL     OW28922   7.151  12.638  14.093
42342SOL    HW128923   7.175  12.730  14.098
42342SOL    HW228924   7.192  12.598  14.169
42343SOL     OW28925   7.936  12.051   5.990
42343SOL    HW128926   7.893  11.968   6.013
42343SOL    HW228927   7.864  12.111   5.974
42344SOL     OW28928   4.313   8.280   6.296
42344SOL    HW128929   4.306   8.321   6.210
42344SOL    HW228930   4.404   8.253   6.302
42345SOL     OW28931   7.339   7.665  14.464
42345SOL    HW128932   7.294   7.657  14.380
42345SOL    HW228933   7.303   7.744  14.504
42346SOL     OW28934   4.224  14.564   9.925
42346SOL    HW128935   4.159  14.632   9.945
42346SOL    HW228936   4.268  14.595   9.846
42347SOL     OW28937   9.601   1.720   5.685
42347SOL    HW128938   9.594   1.782   5.758
42347SOL    HW228939   9.667   1.658   5.713
42348SOL     OW28940   5.415   5.554  11.606
42348SOL    HW128941   5.419   5.504  11.525
42348SOL    HW228942   5.366   5.633  11.584
42349SOL     OW28943   7.673   6.059   1.122
42349SOL    HW128944   7.755   6.029   1.161
42349SOL    HW228945   7.665   6.150   1.151
42350SOL     OW28946  11.166   7.534   0.265
42350SOL    HW128947  11.227   7.601   0.296
42350SOL    HW228948  11.206   7.501   0.184
42351SOL     OW28949   2.183   6.282   9.052
42351SOL    HW128950   2.179   6.196   9.094
42351SOL    HW228951   2.191   6.263   8.959
42352SOL     OW28952   7.526  10.522   4.383
42352SOL    HW128953   7.443  10.513   4.429
42352SOL    HW228954   7.590  10.541   4.452
42353SOL     OW28955   8.515   4.854   6.680
42353SOL    HW128956   8.592   4.894   6.720
42353SOL    HW228957   8.468   4.813   6.754
42354SOL     OW28958   8.504   3.861  13.247
42354SOL    HW128959   8.508   3.770  13.219
42354SOL    HW228960   8.561   3.907  13.186
42355SOL     OW28961   3.905   7.020  12.241
42355SOL    HW128962   3.881   6.930  12.219
42355SOL    HW228963   3.966   7.046  12.173
42356SOL     OW28964   2.236   2.363   4.804
42356SOL    HW128965   2.140   2.355   4.808
42356SOL    HW228966   2.268   2.289   4.856
42357SOL     OW28967   3.457   1.644   9.172
42357SOL    HW128968   3.411   1.675   9.249
42357SOL    HW228969   3.518   1.714   9.150
42358SOL     OW28970   3.875   7.977   7.016
42358SOL    HW128971   3.930   8.051   7.043
42358SOL    HW228972   3.895   7.908   7.079
42359SOL     OW28973   3.856  14.029  14.825
42359SOL    HW128974   3.804  13.955  14.856
42359SOL    HW228975   3.892  14.000  14.741
42360SOL     OW28976   9.696   9.519   1.575
42360SOL    HW128977   9.638   9.596   1.574
42360SOL    HW228978   9.734   9.519   1.662
42361SOL     OW28979  10.569   8.090  10.341
42361SOL    HW128980  10.509   8.085  10.267
42361SOL    HW228981  10.540   8.167  10.391
42362SOL     OW28982   5.264   7.814   6.157
42362SOL    HW128983   5.209   7.792   6.232
42362SOL    HW228984   5.353   7.792   6.184
42363SOL     OW28985   1.205  10.397   6.034
42363SOL    HW128986   1.207  10.481   6.081
42363SOL    HW228987   1.288  10.355   6.058
42364SOL     OW28988   6.362   8.351   0.801
42364SOL    HW128989   6.316   8.269   0.780
42364SOL    HW228990   6.311   8.419   0.757
42365SOL     OW28991   7.436   5.028   7.873
42365SOL    HW128992   7.414   5.105   7.821
42365SOL    HW228993   7.520   5.048   7.913
42366SOL     OW28994   1.472   8.530  11.724
42366SOL    HW128995   1.407   8.584  11.769
42366SOL    HW228996   1.445   8.529  11.633
42367SOL     OW28997   4.801   9.989   7.777
42367SOL    HW128998   4.874   9.985   7.839
42367SOL    HW228999   4.838   9.957   7.694
42368SOL     OW29000  10.336   4.829   6.724
42368SOL    HW129001  10.396   4.886   6.772
42368SOL    HW229002  10.350   4.742   6.761
42369SOL     OW29003   0.140   2.872   1.601
42369SOL    HW129004   0.125   2.779   1.615
42369SOL    HW229005   0.226   2.889   1.639
42370SOL     OW29006   4.163   1.834  11.434
42370SOL    HW129007   4.125   1.794  11.512
42370SOL    HW229008   4.119   1.791  11.361
42371SOL     OW29009   8.995   0.369  13.411
42371SOL    HW129010   8.944   0.314  13.351
42371SOL    HW229011   8.946   0.451  13.415
42372SOL     OW29012   4.310   5.744   1.824
42372SOL    HW129013   4.312   5.651   1.804
42372SOL    HW229014   4.297   5.787   1.739
42373SOL     OW29015  12.395   0.382  11.691
42373SOL    HW129016  12.468   0.400  11.750
42373SOL    HW229017  12.323   0.436  11.725
42374SOL     OW29018   8.762  13.190   7.945
42374SOL    HW129019   8.779  13.149   8.029
42374SOL    HW229020   8.806  13.274   7.950
42375SOL     OW29021   0.497   6.787   4.781
42375SOL    HW129022   0.534   6.716   4.833
42375SOL    HW229023   0.467   6.744   4.701
42376SOL     OW29024   1.900  12.846   9.365
42376SOL    HW129025   1.876  12.761   9.403
42376SOL    HW229026   1.993  12.837   9.343
42377SOL     OW29027   7.919  11.379  13.460
42377SOL    HW129028   7.933  11.443  13.529
42377SOL    HW229029   7.847  11.415  13.407
42378SOL     OW29030  14.155   6.507   6.551
42378SOL    HW129031  14.199   6.423   6.537
42378SOL    HW229032  14.064   6.484   6.571
42379SOL     OW29033   9.159   5.979   6.049
42379SOL    HW129034   9.121   6.067   6.045
42379SOL    HW229035   9.179   5.957   5.958
42380SOL     OW29036   5.203   0.786   0.735
42380SOL    HW129037   5.258   0.858   0.767
42380SOL    HW229038   5.197   0.726   0.809
42381SOL     OW29039   6.593   0.464   5.263
42381SOL    HW129040   6.562   0.374   5.256
42381SOL    HW229041   6.514   0.517   5.261
42382SOL     OW29042  10.926   3.466  10.357
42382SOL    HW129043  10.966   3.379  10.349
42382SOL    HW229044  10.832   3.448  10.359
42383SOL     OW29045  10.664  12.930   8.466
42383SOL    HW129046  10.642  12.979   8.544
42383SOL    HW229047  10.743  12.971   8.432
42384SOL     OW29048   6.332   5.467  10.170
42384SOL    HW129049   6.426   5.475  10.189
42384SOL    HW229050   6.319   5.373  10.159
42385SOL     OW29051  14.281   6.468   8.217
42385SOL    HW129052  14.332   6.433   8.291
42385SOL    HW229053  14.190   6.449   8.240
42386SOL     OW29054  10.373   7.846   3.239
42386SOL    HW129055  10.356   7.754   3.260
42386SOL    HW229056  10.287   7.888   3.239
42387SOL     OW29057   7.650  10.293   4.249
42387SOL    HW129058   7.720  10.276   4.312
42387SOL    HW229059   7.611  10.375   4.278
42388SOL     OW29060   1.271  14.255   7.767
42388SOL    HW129061   1.229  14.181   7.725
42388SOL    HW229062   1.337  14.285   7.703
42389SOL     OW29063   1.379   5.466   0.079
42389SOL    HW129064   1.321   5.474   0.003
42389SOL    HW229065   1.462   5.504   0.050
42390SOL     OW29066   0.215  13.015  13.934
42390SOL    HW129067   0.144  12.953  13.921
42390SOL    HW229068   0.195  13.060  14.016
42391SOL     OW29069  10.458   4.241   6.175
42391SOL    HW129070  10.518   4.197   6.115
42391SOL    HW229071  10.479   4.334   6.167
42392SOL     OW29072  12.292   2.487  13.227
42392SOL    HW129073  12.302   2.519  13.137
42392SOL    HW229074  12.200   2.463  13.234
42393SOL     OW29075   1.756  13.033   0.940
42393SOL    HW129076   1.732  12.992   1.023
42393SOL    HW229077   1.842  13.072   0.957
42394SOL     OW29078   0.095   8.966   2.664
42394SOL    HW129079   0.040   9.044   2.655
42394SOL    HW229080   0.183   9.001   2.680
42395SOL     OW29081   1.785   0.237   0.936
42395SOL    HW129082   1.767   0.221   0.843
42395SOL    HW229083   1.744   0.322   0.954
42396SOL     OW29084  11.009  14.074   7.709
42396SOL    HW129085  10.944  14.014   7.746
42396SOL    HW229086  10.964  14.115   7.635
42397SOL     OW29087   4.405  13.146   1.107
42397SOL    HW129088   4.357  13.065   1.092
42397SOL    HW229089   4.495  13.117   1.121
42398SOL     OW29090  12.658   3.923  13.017
42398SOL    HW129091  12.726   3.990  13.021
42398SOL    HW229092  12.697   3.847  13.060
42399SOL     OW29093  10.312  13.668   1.164
42399SOL    HW129094  10.275  13.606   1.227
42399SOL    HW229095  10.393  13.626   1.135
42400SOL     OW29096  12.111  14.018   0.101
42400SOL    HW129097  12.203  14.006   0.127
42400SOL    HW229098  12.100  14.112   0.093
42401SOL     OW29099   0.611  10.147  10.103
42401SOL    HW129100   0.575  10.058  10.099
42401SOL    HW229101   0.694  10.138  10.150
42402SOL     OW29102  10.589  14.391   8.116
42402SOL    HW129103  10.589  14.343   8.200
42402SOL    HW229104  10.649  14.341   8.061
42403SOL     OW29105   3.885   9.546   3.162
42403SOL    HW129106   3.967   9.584   3.195
42403SOL    HW229107   3.864   9.476   3.225
42404SOL     OW29108   5.998   4.665   0.380
42404SOL    HW129109   6.007   4.752   0.418
42404SOL    HW229110   5.903   4.651   0.372
42405SOL     OW29111  14.740  14.532   8.434
42405SOL    HW129112  14.681  14.602   8.405
42405SOL    HW229113  14.681  14.460   8.459
42406SOL     OW29114  13.209   4.177   2.766
42406SOL    HW129115  13.256   4.108   2.719
42406SOL    HW229116  13.127   4.188   2.718
42407SOL     OW29117   4.364   4.556  13.269
42407SOL    HW129118   4.389   4.589  13.355
42407SOL    HW229119   4.269   4.542  13.275
42408SOL     OW29120   8.819   4.931   5.174
42408SOL    HW129121   8.753   4.862   5.184
42408SOL    HW229122   8.775   5.011   5.202
42409SOL     OW29123   6.010  10.557   8.977
42409SOL    HW129124   5.932  10.544   8.923
42409SOL    HW229125   6.019  10.474   9.024
42410SOL     OW29126   3.494  12.880   2.018
42410SOL    HW129127   3.445  12.961   2.000
42410SOL    HW229128   3.528  12.853   1.933
42411SOL     OW29129   9.083   1.154   9.592
42411SOL    HW129130   9.082   1.183   9.501
42411SOL    HW229131   9.144   1.212   9.636
42412SOL     OW29132   8.930   0.319   6.425
42412SOL    HW129133   8.962   0.293   6.339
42412SOL    HW229134   8.986   0.394   6.450
42413SOL     OW29135   3.300  12.234   0.836
42413SOL    HW129136   3.239  12.170   0.872
42413SOL    HW229137   3.375  12.231   0.895
42414SOL     OW29138  13.205   8.244   5.285
42414SOL    HW129139  13.162   8.160   5.270
42414SOL    HW229140  13.231   8.242   5.377
42415SOL     OW29141   3.968   7.923   5.036
42415SOL    HW129142   3.917   7.938   4.956
42415SOL    HW229143   4.031   7.854   5.013
42416SOL     OW29144   4.601  10.206   0.995
42416SOL    HW129145   4.665  10.266   1.036
42416SOL    HW229146   4.654  10.148   0.941
42417SOL     OW29147  11.490   4.715  10.029
42417SOL    HW129148  11.433   4.792  10.028
42417SOL    HW229149  11.512   4.700   9.937
42418SOL     OW29150   0.072   1.620   0.389
42418SOL    HW129151   0.035   1.574   0.464
42418SOL    HW229152   0.138   1.560   0.355
42419SOL     OW29153   7.844  14.816   8.265
42419SOL    HW129154   7.834  14.732   8.310
42419SOL    HW229155   7.931  14.812   8.226
42420SOL     OW29156   6.512  12.526   5.416
42420SOL    HW129157   6.482  12.602   5.466
42420SOL    HW229158   6.431  12.481   5.390
42421SOL     OW29159   9.226   2.363   1.457
42421SOL    HW129160   9.236   2.441   1.403
42421SOL    HW229161   9.132   2.344   1.456
42422SOL     OW29162   3.015   0.768   9.318
42422SOL    HW129163   3.085   0.831   9.299
42422SOL    HW229164   2.936   0.821   9.322
42423SOL     OW29165  10.536  14.521   1.832
42423SOL    HW129166  10.460  14.509   1.775
42423SOL    HW229167  10.574  14.433   1.839
42424SOL     OW29168   0.026   8.815   1.992
42424SOL    HW129169   0.030   8.908   2.012
42424SOL    HW229170   0.001   8.773   2.075
42425SOL     OW29171   0.283   3.819  13.255
42425SOL    HW129172   0.212   3.758  13.276
42425SOL    HW229173   0.327   3.834  13.339
42426SOL     OW29174  13.380   7.877   4.922
42426SOL    HW129175  13.346   7.790   4.941
42426SOL    HW229176  13.473   7.862   4.902
42427SOL     OW29177  12.923  12.953   1.809
42427SOL    HW129178  12.847  12.915   1.766
42427SOL    HW229179  12.891  13.033   1.851
42428SOL     OW29180   1.851   3.884   0.183
42428SOL    HW129181   1.931   3.936   0.194
42428SOL    HW229182   1.813   3.880   0.271
42429SOL     OW29183   9.861   5.519  11.061
42429SOL    HW129184   9.860   5.606  11.021
42429SOL    HW229185   9.775   5.482  11.039
42430SOL     OW29186   8.122   5.328  14.495
42430SOL    HW129187   8.036   5.369  14.503
42430SOL    HW229188   8.105   5.234  14.506
42431SOL     OW29189  11.264   5.709   6.560
42431SOL    HW129190  11.329   5.687   6.627
42431SOL    HW229191  11.295   5.664   6.481
42432SOL     OW29192   8.915  13.043  10.816
42432SOL    HW129193   8.861  13.108  10.772
42432SOL    HW229194   8.994  13.037  10.762
42433SOL     OW29195  11.839   9.467   7.561
42433SOL    HW129196  11.902   9.395   7.556
42433SOL    HW229197  11.789   9.450   7.640
42434SOL     OW29198   8.801   6.617   7.018
42434SOL    HW129199   8.711   6.585   7.029
42434SOL    HW229200   8.855   6.551   7.062
42435SOL     OW29201   2.912  13.693  13.569
42435SOL    HW129202   2.863  13.624  13.613
42435SOL    HW229203   2.865  13.707  13.486
42436SOL     OW29204   0.103  13.206   5.933
42436SOL    HW129205   0.177  13.262   5.909
42436SOL    HW229206   0.107  13.202   6.029
42437SOL     OW29207  11.730   5.651  12.956
42437SOL    HW129208  11.763   5.735  12.924
42437SOL    HW229209  11.635   5.661  12.956
42438SOL     OW29210  12.070  12.824  12.260
42438SOL    HW129211  12.046  12.897  12.317
42438SOL    HW229212  11.989  12.774  12.250
42439SOL     OW29213   6.575  11.872   4.310
42439SOL    HW129214   6.642  11.936   4.286
42439SOL    HW229215   6.566  11.881   4.405
42440SOL     OW29216   2.544   1.605   6.097
42440SOL    HW129217   2.583   1.606   6.184
42440SOL    HW229218   2.580   1.683   6.054
42441SOL     OW29219   0.475   6.303  10.144
42441SOL    HW129220   0.408   6.336  10.085
42441SOL    HW229221   0.489   6.212  10.117
42442SOL     OW29222  10.472   0.408   5.239
42442SOL    HW129223  10.489   0.357   5.319
42442SOL    HW229224  10.533   0.373   5.174
42443SOL     OW29225  13.581  14.457  13.699
42443SOL    HW129226  13.669  14.470  13.735
42443SOL    HW229227  13.530  14.530  13.735
42444SOL     OW29228  10.831  14.378  10.371
42444SOL    HW129229  10.809  14.381  10.464
42444SOL    HW229230  10.783  14.303  10.336
42445SOL     OW29231   4.993  13.322  13.451
42445SOL    HW129232   5.081  13.287  13.466
42445SOL    HW229233   4.952  13.259  13.392
42446SOL     OW29234   2.901   0.832  10.310
42446SOL    HW129235   2.911   0.801  10.400
42446SOL    HW229236   2.809   0.855  10.303
42447SOL     OW29237   1.443   4.474   3.426
42447SOL    HW129238   1.463   4.433   3.510
42447SOL    HW229239   1.362   4.430   3.397
42448SOL     OW29240  14.634   0.107   0.548
42448SOL    HW129241  14.602   0.134   0.634
42448SOL    HW229242  14.642   0.188   0.498
42449SOL     OW29243  11.571   6.345  14.560
42449SOL    HW129244  11.494   6.310  14.513
42449SOL    HW229245  11.542   6.429  14.595
42450SOL     OW29246  10.296  14.094   8.629
42450SOL    HW129247  10.387  14.122   8.640
42450SOL    HW229248  10.246  14.175   8.627
42451SOL     OW29249  12.759  10.857   9.137
42451SOL    HW129250  12.782  10.875   9.228
42451SOL    HW229251  12.664  10.871   9.133
42452SOL     OW29252   6.278  12.187  10.595
42452SOL    HW129253   6.312  12.266  10.637
42452SOL    HW229254   6.310  12.193  10.505
42453SOL     OW29255  14.113  10.904   1.316
42453SOL    HW129256  14.152  10.890   1.402
42453SOL    HW229257  14.091  10.817   1.285
42454SOL     OW29258   2.804   4.004  11.222
42454SOL    HW129259   2.750   3.930  11.193
42454SOL    HW229260   2.797   4.002  11.318
42455SOL     OW29261  10.828   9.304   2.027
42455SOL    HW129262  10.755   9.365   2.013
42455SOL    HW229263  10.812   9.232   1.966
42456SOL     OW29264   4.804   1.030   9.697
42456SOL    HW129265   4.874   1.096   9.698
42456SOL    HW229266   4.724   1.082   9.693
42457SOL     OW29267  12.587   3.385   6.084
42457SOL    HW129268  12.629   3.428   6.009
42457SOL    HW229269  12.502   3.428   6.091
42458SOL     OW29270   5.480  13.076   7.209
42458SOL    HW129271   5.398  13.124   7.219
42458SOL    HW229272   5.548  13.142   7.218
42459SOL     OW29273   8.680   2.776  11.154
42459SOL    HW129274   8.626   2.767  11.232
42459SOL    HW229275   8.662   2.697  11.103
42460SOL     OW29276  13.407  11.077   5.919
42460SOL    HW129277  13.368  11.087   6.005
42460SOL    HW229278  13.500  11.096   5.931
42461SOL     OW29279  10.273  14.217   8.007
42461SOL    HW129280  10.230  14.216   8.092
42461SOL    HW229281  10.334  14.291   8.011
42462SOL     OW29282   8.302   2.622   8.927
42462SOL    HW129283   8.207   2.625   8.932
42462SOL    HW229284   8.323   2.657   8.841
42463SOL     OW29285   3.710  12.321   4.080
42463SOL    HW129286   3.729  12.364   4.163
42463SOL    HW229287   3.751  12.376   4.014
42464SOL     OW29288   0.114   0.986   5.221
42464SOL    HW129289   0.182   0.966   5.157
42464SOL    HW229290   0.129   0.925   5.293
42465SOL     OW29291  11.562   0.640  11.965
42465SOL    HW129292  11.540   0.592  11.885
42465SOL    HW229293  11.654   0.663  11.955
42466SOL     OW29294   7.757  14.161   2.820
42466SOL    HW129295   7.780  14.243   2.864
42466SOL    HW229296   7.797  14.092   2.874
42467SOL     OW29297   4.333   1.926  14.319
42467SOL    HW129298   4.321   1.883  14.234
42467SOL    HW229299   4.364   1.856  14.376
42468SOL     OW29300   4.025  14.202  12.390
42468SOL    HW129301   4.070  14.197  12.306
42468SOL    HW229302   4.094  14.219  12.454
42469SOL     OW29303  12.848   8.870   1.868
42469SOL    HW129304  12.904   8.810   1.918
42469SOL    HW229305  12.897   8.952   1.867
42470SOL     OW29306   6.870   2.761   1.912
42470SOL    HW129307   6.835   2.844   1.944
42470SOL    HW229308   6.812   2.737   1.839
42471SOL     OW29309   8.044   4.734   5.336
42471SOL    HW129310   8.013   4.758   5.424
42471SOL    HW229311   8.041   4.815   5.287
42472SOL     OW29312   4.009   1.049   7.966
42472SOL    HW129313   3.953   1.074   7.893
42472SOL    HW229314   4.061   0.976   7.931
42473SOL     OW29315   2.394  10.166   3.652
42473SOL    HW129316   2.338  10.089   3.643
42473SOL    HW229317   2.384  10.193   3.743
42474SOL     OW29318   1.310   8.045  12.662
42474SOL    HW129319   1.232   7.993  12.641
42474SOL    HW229320   1.275   8.128  12.695
42475SOL     OW29321   8.673   0.892   3.616
42475SOL    HW129322   8.732   0.936   3.677
42475SOL    HW229323   8.637   0.963   3.562
42476SOL     OW29324   2.528   1.663   7.905
42476SOL    HW129325   2.563   1.609   7.976
42476SOL    HW229326   2.556   1.620   7.825
42477SOL     OW29327  14.466   7.138   6.606
42477SOL    HW129328  14.391   7.195   6.620
42477SOL    HW229329  14.474   7.089   6.688
42478SOL     OW29330  12.868   1.852   9.947
42478SOL    HW129331  12.927   1.926   9.962
42478SOL    HW229332  12.832   1.868   9.860
42479SOL     OW29333   9.869   3.146   7.708
42479SOL    HW129334   9.882   3.079   7.775
42479SOL    HW229335   9.943   3.136   7.649
42480SOL     OW29336  13.995  14.652   9.605
42480SOL    HW129337  14.007  14.641   9.699
42480SOL    HW229338  14.037  14.576   9.565
42481SOL     OW29339   0.711  14.593  10.064
42481SOL    HW129340   0.728  14.507  10.103
42481SOL    HW229341   0.674  14.645  10.135
42482SOL     OW29342   8.750  14.219   9.070
42482SOL    HW129343   8.663  14.181   9.065
42482SOL    HW229344   8.768  14.252   8.982
42483SOL     OW29345   1.935   9.119  11.277
42483SOL    HW129346   1.913   9.151  11.189
42483SOL    HW229347   1.970   9.196  11.322
42484SOL     OW29348   4.276   7.323  10.159
42484SOL    HW129349   4.217   7.255  10.125
42484SOL    HW229350   4.217   7.392  10.189
42485SOL     OW29351   2.247   6.358   7.787
42485SOL    HW129352   2.317   6.307   7.827
42485SOL    HW229353   2.266   6.449   7.812
42486SOL     OW29354  13.480   8.713   3.272
42486SOL    HW129355  13.546   8.773   3.238
42486SOL    HW229356  13.434   8.763   3.339
42487SOL     OW29357  12.186   7.763   1.239
42487SOL    HW129358  12.256   7.827   1.232
42487SOL    HW229359  12.153   7.772   1.328
42488SOL     OW29360   1.321   5.803  10.025
42488SOL    HW129361   1.327   5.708  10.012
42488SOL    HW229362   1.402   5.837   9.987
42489SOL     OW29363  14.211   6.538  12.254
42489SOL    HW129364  14.294   6.521  12.208
42489SOL    HW229365  14.191   6.629  12.234
42490SOL     OW29366   8.360   2.006   7.281
42490SOL    HW129367   8.449   1.973   7.297
42490SOL    HW229368   8.308   1.971   7.354
42491SOL     OW29369   0.401   5.792   1.153
42491SOL    HW129370   0.389   5.757   1.241
42491SOL    HW229371   0.384   5.886   1.162
42492SOL     OW29372   2.635   7.728   3.827
42492SOL    HW129373   2.659   7.743   3.918
42492SOL    HW229374   2.541   7.707   3.830
42493SOL     OW29375  10.655  12.426   5.912
42493SOL    HW129376  10.585  12.454   5.971
42493SOL    HW229377  10.615  12.358   5.859
42494SOL     OW29378   7.298   4.594   5.802
42494SOL    HW129379   7.348   4.529   5.752
42494SOL    HW229380   7.210   4.590   5.763
42495SOL     OW29381  11.044  11.775  13.870
42495SOL    HW129382  11.058  11.685  13.842
42495SOL    HW229383  11.107  11.826  13.819
42496SOL     OW29384   7.294   1.829   8.784
42496SOL    HW129385   7.335   1.904   8.827
42496SOL    HW229386   7.208   1.862   8.756
42497SOL     OW29387   1.011  10.027   9.109
42497SOL    HW129388   1.013  10.012   9.203
42497SOL    HW229389   0.986   9.943   9.072
42498SOL     OW29390   5.532   2.642   5.040
42498SOL    HW129391   5.588   2.568   5.020
42498SOL    HW229392   5.592   2.710   5.071
42499SOL     OW29393   9.732  14.187   9.514
42499SOL    HW129394   9.815  14.231   9.535
42499SOL    HW229395   9.733  14.108   9.568
42500SOL     OW29396   2.917  12.556  13.282
42500SOL    HW129397   2.833  12.510  13.274
42500SOL    HW229398   2.970  12.521  13.211
42501SOL     OW29399   8.692  11.956   2.601
42501SOL    HW129400   8.622  11.942   2.665
42501SOL    HW229401   8.766  11.906   2.636
42502SOL     OW29402   0.590   0.057  10.040
42502SOL    HW129403   0.648   0.010   9.980
42502SOL    HW229404   0.561  14.862  10.103
42503SOL     OW29405  11.741   3.324  14.562
42503SOL    HW129406  11.770   3.293  14.648
42503SOL    HW229407  11.652   3.290  14.552
42504SOL     OW29408  12.823   7.093  13.079
42504SOL    HW129409  12.892   7.059  13.023
42504SOL    HW229410  12.817   7.030  13.151
42505SOL     OW29411   6.408   4.073  12.755
42505SOL    HW129412   6.446   4.127  12.685
42505SOL    HW229413   6.329   4.036  12.716
42506SOL     OW29414  13.649   7.329  12.031
42506SOL    HW129415  13.589   7.286  12.091
42506SOL    HW229416  13.714   7.371  12.087
42507SOL     OW29417   4.435  12.287  10.497
42507SOL    HW129418   4.447  12.247  10.583
42507SOL    HW229419   4.490  12.365  10.499
42508SOL     OW29420   3.527   0.400  11.669
42508SOL    HW129421   3.513   0.474  11.610
42508SOL    HW229422   3.622   0.394  11.678
42509SOL     OW29423   0.005   5.362  11.281
42509SOL    HW129424  14.821   5.285  11.268
42509SOL    HW229425  14.820   5.436  11.261
42510SOL     OW29426   5.801   9.713   4.618
42510SOL    HW129427   5.881   9.766   4.615
42510SOL    HW229428   5.821   9.644   4.680
42511SOL     OW29429   1.670   1.954   6.513
42511SOL    HW129430   1.745   2.014   6.516
42511SOL    HW229431   1.619   1.983   6.438
42512SOL     OW29432   2.794   4.224   5.626
42512SOL    HW129433   2.779   4.132   5.603
42512SOL    HW229434   2.889   4.229   5.640
42513SOL     OW29435   5.793   9.398  11.451
42513SOL    HW129436   5.733   9.325  11.459
42513SOL    HW229437   5.796   9.417  11.357
42514SOL     OW29438   0.013   6.653   3.162
42514SOL    HW129439   0.079   6.602   3.116
42514SOL    HW229440  14.801   6.628   3.120
42515SOL     OW29441  12.249   4.453   8.523
42515SOL    HW129442  12.163   4.462   8.483
42515SOL    HW229443  12.306   4.428   8.451
42516SOL     OW29444  11.073   4.783   8.423
42516SOL    HW129445  10.981   4.788   8.398
42516SOL    HW229446  11.114   4.857   8.377
42517SOL     OW29447   4.871  11.567  13.770
42517SOL    HW129448   4.953  11.555  13.723
42517SOL    HW229449   4.874  11.502  13.840
42518SOL     OW29450   7.519  12.510   7.024
42518SOL    HW129451   7.483  12.588   7.067
42518SOL    HW229452   7.568  12.464   7.093
42519SOL     OW29453   0.767  12.543  12.737
42519SOL    HW129454   0.695  12.550  12.674
42519SOL    HW229455   0.829  12.611  12.710
42520SOL     OW29456  11.833  13.664   3.555
42520SOL    HW129457  11.922  13.667   3.520
42520SOL    HW229458  11.815  13.755   3.579
42521SOL     OW29459  13.490   1.011   3.389
42521SOL    HW129460  13.449   1.070   3.453
42521SOL    HW229461  13.420   0.951   3.365
42522SOL     OW29462   4.557   9.508   0.307
42522SOL    HW129463   4.519   9.480   0.224
42522SOL    HW229464   4.482   9.535   0.360
42523SOL     OW29465  11.363   2.326   2.423
42523SOL    HW129466  11.372   2.249   2.368
42523SOL    HW229467  11.304   2.299   2.494
42524SOL     OW29468   2.084  10.092   0.494
42524SOL    HW129469   2.060  10.153   0.424
42524SOL    HW229470   2.001  10.052   0.520
42525SOL     OW29471  12.898  13.932  12.140
42525SOL    HW129472  12.992  13.927  12.153
42525SOL    HW229473  12.875  13.854  12.090
42526SOL     OW29474   7.761   8.816  11.067
42526SOL    HW129475   7.834   8.873  11.094
42526SOL    HW229476   7.802   8.752  11.009
42527SOL     OW29477   4.812   8.638   5.473
42527SOL    HW129478   4.886   8.662   5.419
42527SOL    HW229479   4.822   8.544   5.488
42528SOL     OW29480   4.914   1.612   1.511
42528SOL    HW129481   4.993   1.656   1.544
42528SOL    HW229482   4.885   1.557   1.583
42529SOL     OW29483   7.288   8.765   3.155
42529SOL    HW129484   7.204   8.720   3.162
42529SOL    HW229485   7.287   8.804   3.067
42530SOL     OW29486   7.518   2.212   7.688
42530SOL    HW129487   7.497   2.305   7.691
42530SOL    HW229488   7.490   2.183   7.601
42531SOL     OW29489  12.149   0.856  10.634
42531SOL    HW129490  12.090   0.810  10.574
42531SOL    HW229491  12.160   0.942  10.595
42532SOL     OW29492  10.834   2.796   2.800
42532SOL    HW129493  10.845   2.703   2.779
42532SOL    HW229494  10.797   2.834   2.720
42533SOL     OW29495   8.992  11.627  12.617
42533SOL    HW129496   8.968  11.550  12.668
42533SOL    HW229497   8.926  11.632  12.548
42534SOL     OW29498  12.189   8.150   0.181
42534SOL    HW129499  12.137   8.206   0.239
42534SOL    HW229500  12.237   8.211   0.125
42535SOL     OW29501   9.627   8.457   4.697
42535SOL    HW129502   9.693   8.459   4.628
42535SOL    HW229503   9.545   8.477   4.652
42536SOL     OW29504   4.905   4.768   7.619
42536SOL    HW129505   4.830   4.709   7.607
42536SOL    HW229506   4.960   4.722   7.683
42537SOL     OW29507   0.609   1.536   7.062
42537SOL    HW129508   0.635   1.626   7.084
42537SOL    HW229509   0.675   1.481   7.106
42538SOL     OW29510   2.369   6.446   4.449
42538SOL    HW129511   2.446   6.422   4.500
42538SOL    HW229512   2.342   6.531   4.485
42539SOL     OW29513  14.176   1.295   0.793
42539SOL    HW129514  14.181   1.200   0.807
42539SOL    HW229515  14.221   1.310   0.710
42540SOL     OW29516   6.451   0.450   4.572
42540SOL    HW129517   6.412   0.384   4.515
42540SOL    HW229518   6.456   0.529   4.518
42541SOL     OW29519   1.370   5.971   9.095
42541SOL    HW129520   1.321   5.901   9.053
42541SOL    HW229521   1.422   6.010   9.025
42542SOL     OW29522   9.241   4.092   9.871
42542SOL    HW129523   9.244   4.114   9.964
42542SOL    HW229524   9.193   4.010   9.867
42543SOL     OW29525   3.570   7.995   3.939
42543SOL    HW129526   3.521   7.992   3.857
42543SOL    HW229527   3.537   7.920   3.989
42544SOL     OW29528   7.298   9.011  13.814
42544SOL    HW129529   7.216   8.965  13.832
42544SOL    HW229530   7.290   9.038  13.722
42545SOL     OW29531  11.473   1.975   8.485
42545SOL    HW129532  11.508   1.892   8.453
42545SOL    HW229533  11.486   2.036   8.413
42546SOL     OW29534   5.482   3.537  10.079
42546SOL    HW129535   5.459   3.480  10.152
42546SOL    HW229536   5.421   3.512  10.009
42547SOL     OW29537   3.787   0.353   5.974
42547SOL    HW129538   3.784   0.327   6.066
42547SOL    HW229539   3.703   0.396   5.958
42548SOL     OW29540   2.532   2.892  11.249
42548SOL    HW129541   2.498   2.980  11.262
42548SOL    HW229542   2.566   2.892  11.159
42549SOL     OW29543   4.530   2.684   7.342
42549SOL    HW129544   4.620   2.710   7.359
42549SOL    HW229545   4.481   2.766   7.345
42550SOL     OW29546  12.245   0.029   2.894
42550SOL    HW129547  12.269   0.065   2.980
42550SOL    HW229548  12.248   0.104   2.835
42551SOL     OW29549  14.224   3.086   3.272
42551SOL    HW129550  14.307   3.039   3.267
42551SOL    HW229551  14.197   3.096   3.181
42552SOL     OW29552  12.563  14.804  12.714
42552SOL    HW129553  12.642  14.840  12.673
42552SOL    HW229554  12.582  14.807  12.808
42553SOL     OW29555   2.443  12.797   7.328
42553SOL    HW129556   2.519  12.767   7.377
42553SOL    HW229557   2.368  12.762   7.376
42554SOL     OW29558   9.118   1.306  14.070
42554SOL    HW129559   9.190   1.245  14.087
42554SOL    HW229560   9.154   1.392  14.091
42555SOL     OW29561  11.205  12.948   5.749
42555SOL    HW129562  11.202  13.023   5.808
42555SOL    HW229563  11.116  12.912   5.750
42556SOL     OW29564   2.165   8.498   0.877
42556SOL    HW129565   2.255   8.496   0.910
42556SOL    HW229566   2.116   8.545   0.944
42557SOL     OW29567   8.732   8.946  13.995
42557SOL    HW129568   8.822   8.977  13.984
42557SOL    HW229569   8.682   9.025  14.013
42558SOL     OW29570   0.473  12.364   5.151
42558SOL    HW129571   0.466  12.438   5.211
42558SOL    HW229572   0.452  12.288   5.205
42559SOL     OW29573   1.117   0.538   7.465
42559SOL    HW129574   1.022   0.542   7.476
42559SOL    HW229575   1.139   0.619   7.418
42560SOL     OW29576  12.813   0.818   8.711
42560SOL    HW129577  12.786   0.887   8.650
42560SOL    HW229578  12.889   0.854   8.756
42561SOL     OW29579  11.260  14.438   6.306
42561SOL    HW129580  11.305  14.355   6.294
42561SOL    HW229581  11.271  14.484   6.222
42562SOL     OW29582  13.887   7.681  11.026
42562SOL    HW129583  13.882   7.595  10.984
42562SOL    HW229584  13.974   7.682  11.067
42563SOL     OW29585  14.829   6.397   8.280
42563SOL    HW129586   0.002   6.386   8.196
42563SOL    HW229587   0.028   6.407   8.344
42564SOL     OW29588   9.133   3.895   8.237
42564SOL    HW129589   9.044   3.893   8.202
42564SOL    HW229590   9.122   3.882   8.331
42565SOL     OW29591   5.678  10.885   3.599
42565SOL    HW129592   5.720  10.810   3.641
42565SOL    HW229593   5.722  10.961   3.637
42566SOL     OW29594   0.958   4.505  12.277
42566SOL    HW129595   0.963   4.436  12.211
42566SOL    HW229596   1.049   4.528  12.295
42567SOL     OW29597   3.310   2.659   4.500
42567SOL    HW129598   3.372   2.598   4.540
42567SOL    HW229599   3.348   2.746   4.516
42568SOL     OW29600   5.554  14.605   7.970
42568SOL    HW129601   5.506  14.528   8.001
42568SOL    HW229602   5.606  14.573   7.896
42569SOL     OW29603  10.775  14.171   6.236
42569SOL    HW129604  10.767  14.226   6.313
42569SOL    HW229605  10.840  14.214   6.181
42570SOL     OW29606  13.412   3.416   8.236
42570SOL    HW129607  13.359   3.479   8.188
42570SOL    HW229608  13.461   3.368   8.169
42571SOL     OW29609   2.018   3.070   6.905
42571SOL    HW129610   2.090   3.099   6.961
42571SOL    HW229611   2.055   2.998   6.854
42572SOL     OW29612  13.673  10.300  10.895
42572SOL    HW129613  13.715  10.294  10.810
42572SOL    HW229614  13.581  10.316  10.876
42573SOL     OW29615   9.131   3.683   0.787
42573SOL    HW129616   9.060   3.623   0.765
42573SOL    HW229617   9.163   3.652   0.871
42574SOL     OW29618  10.599   7.273   6.408
42574SOL    HW129619  10.566   7.238   6.326
42574SOL    HW229620  10.528   7.329   6.441
42575SOL     OW29621  11.237   3.796  10.388
42575SOL    HW129622  11.321   3.817  10.347
42575SOL    HW229623  11.261   3.747  10.467
42576SOL     OW29624   3.106  10.665   3.896
42576SOL    HW129625   3.088  10.640   3.986
42576SOL    HW229626   3.059  10.748   3.884
42577SOL     OW29627   5.474  11.530   2.121
42577SOL    HW129628   5.505  11.619   2.107
42577SOL    HW229629   5.466  11.521   2.216
42578SOL     OW29630   5.427   6.181   7.561
42578SOL    HW129631   5.373   6.109   7.593
42578SOL    HW229632   5.366   6.235   7.510
42579SOL     OW29633   2.149   0.814  10.251
42579SOL    HW129634   2.062   0.848  10.272
42579SOL    HW229635   2.132   0.726  10.217
42580SOL     OW29636   1.251   2.070   4.814
42580SOL    HW129637   1.243   2.165   4.817
42580SOL    HW229638   1.269   2.044   4.904
42581SOL     OW29639   4.655  12.445   2.534
42581SOL    HW129640   4.645  12.435   2.629
42581SOL    HW229641   4.750  12.437   2.520
42582SOL     OW29642  13.266  10.624  13.252
42582SOL    HW129643  13.268  10.571  13.332
42582SOL    HW229644  13.206  10.577  13.194
42583SOL     OW29645  12.935   1.025   8.119
42583SOL    HW129646  12.865   0.962   8.101
42583SOL    HW229647  13.002   0.975   8.165
42584SOL     OW29648  11.717   8.236   1.716
42584SOL    HW129649  11.686   8.146   1.714
42584SOL    HW229650  11.654   8.282   1.772
42585SOL     OW29651   0.877   1.864  10.653
42585SOL    HW129652   0.941   1.836  10.719
42585SOL    HW229653   0.793   1.865  10.700
42586SOL     OW29654  11.191   9.803   9.410
42586SOL    HW129655  11.165   9.769   9.325
42586SOL    HW229656  11.223   9.725   9.457
42587SOL     OW29657   8.367  13.829   6.918
42587SOL    HW129658   8.439  13.796   6.971
42587SOL    HW229659   8.385  13.923   6.909
42588SOL     OW29660  13.751  10.120   2.632
42588SOL    HW129661  13.729  10.030   2.653
42588SOL    HW229662  13.710  10.172   2.701
42589SOL     OW29663   7.608  14.108   8.600
42589SOL    HW129664   7.696  14.145   8.590
42589SOL    HW229665   7.551  14.185   8.610
42590SOL     OW29666  12.184  12.609   0.013
42590SOL    HW129667  12.231  12.647  14.810
42590SOL    HW229668  12.251  12.562   0.063
42591SOL     OW29669  14.824   4.805  13.968
42591SOL    HW129670  14.816   4.900  13.974
42591SOL    HW229671  14.743   4.777  13.925
42592SOL     OW29672   0.699   4.699   5.380
42592SOL    HW129673   0.729   4.682   5.290
42592SOL    HW229674   0.770   4.667   5.435
42593SOL     OW29675  14.303   3.172   1.138
42593SOL    HW129676  14.218   3.186   1.179
42593SOL    HW229677  14.356   3.246   1.167
42594SOL     OW29678   4.579  13.384   3.408
42594SOL    HW129679   4.507  13.371   3.470
42594SOL    HW229680   4.560  13.469   3.368
42595SOL     OW29681  11.211  11.947   0.628
42595SOL    HW129682  11.290  11.908   0.592
42595SOL    HW229683  11.168  11.876   0.675
42596SOL     OW29684  11.529   7.694   3.457
42596SOL    HW129685  11.483   7.777   3.472
42596SOL    HW229686  11.583   7.711   3.380
42597SOL     OW29687   4.658   8.864   1.951
42597SOL    HW129688   4.740   8.913   1.955
42597SOL    HW229689   4.684   8.775   1.929
42598SOL     OW29690   5.559  10.689   9.309
42598SOL    HW129691   5.624  10.619   9.321
42598SOL    HW229692   5.487  10.666   9.368
42599SOL     OW29693  11.772  14.383   4.602
42599SOL    HW129694  11.688  14.429   4.606
42599SOL    HW229695  11.768  14.322   4.675
42600SOL     OW29696  11.830   9.905  11.535
42600SOL    HW129697  11.898   9.848  11.498
42600SOL    HW229698  11.773   9.925  11.461
42601SOL     OW29699   7.628   7.097   1.388
42601SOL    HW129700   7.562   7.165   1.395
42601SOL    HW229701   7.578   7.015   1.388
42602SOL     OW29702   7.053   8.027   3.360
42602SOL    HW129703   7.140   8.001   3.388
42602SOL    HW229704   6.994   7.967   3.405
42603SOL     OW29705  14.475   3.897   5.147
42603SOL    HW129706  14.388   3.931   5.128
42603SOL    HW229707  14.514   3.962   5.205
42604SOL     OW29708   6.952   1.929   8.188
42604SOL    HW129709   6.981   2.003   8.135
42604SOL    HW229710   6.864   1.953   8.218
42605SOL     OW29711  13.874   6.192  14.412
42605SOL    HW129712  13.785   6.194  14.377
42605SOL    HW229713  13.884   6.104  14.448
42606SOL     OW29714  13.026   2.969  11.771
42606SOL    HW129715  13.057   2.934  11.854
42606SOL    HW229716  12.931   2.968  11.778
42607SOL     OW29717   5.870   9.270  11.961
42607SOL    HW129718   5.946   9.269  12.019
42607SOL    HW229719   5.892   9.334  11.894
42608SOL     OW29720  10.520  13.991  10.840
42608SOL    HW129721  10.556  14.076  10.815
42608SOL    HW229722  10.597  13.933  10.843
42609SOL     OW29723  12.956   2.713   4.837
42609SOL    HW129724  12.876   2.739   4.881
42609SOL    HW229725  12.994   2.794   4.804
42610SOL     OW29726   4.985   3.348   3.099
42610SOL    HW129727   5.015   3.259   3.118
42610SOL    HW229728   4.890   3.340   3.091
42611SOL     OW29729   1.433   6.230  11.998
42611SOL    HW129730   1.483   6.173  12.057
42611SOL    HW229731   1.416   6.309  12.050
42612SOL     OW29732   9.170  12.685   7.753
42612SOL    HW129733   9.119  12.606   7.769
42612SOL    HW229734   9.231  12.689   7.827
42613SOL     OW29735  13.914   7.827   0.575
42613SOL    HW129736  13.886   7.910   0.613
42613SOL    HW229737  14.010   7.827   0.586
42614SOL     OW29738   2.242   8.035   6.426
42614SOL    HW129739   2.247   8.072   6.514
42614SOL    HW229740   2.166   8.076   6.387
42615SOL     OW29741   4.793   4.809   5.460
42615SOL    HW129742   4.781   4.866   5.536
42615SOL    HW229743   4.745   4.853   5.390
42616SOL     OW29744   7.318  11.398   9.321
42616SOL    HW129745   7.257  11.425   9.253
42616SOL    HW229746   7.315  11.468   9.386
42617SOL     OW29747   0.066  14.432  10.379
42617SOL    HW129748   0.013  14.378  10.320
42617SOL    HW229749   0.110  14.369  10.436
42618SOL     OW29750   8.546  10.583   2.999
42618SOL    HW129751   8.499  10.501   3.013
42618SOL    HW229752   8.556  10.589   2.904
42619SOL     OW29753   3.698  14.699   8.763
42619SOL    HW129754   3.635  14.628   8.775
42619SOL    HW229755   3.778  14.669   8.804
42620SOL     OW29756   6.045   8.560  12.538
42620SOL    HW129757   6.089   8.621  12.596
42620SOL    HW229758   5.972   8.526  12.590
42621SOL     OW29759  14.051  12.856   3.998
42621SOL    HW129760  14.116  12.815   4.056
42621SOL    HW229761  13.998  12.783   3.968
42622SOL     OW29762   8.806   3.924   6.389
42622SOL    HW129763   8.882   3.901   6.443
42622SOL    HW229764   8.814   4.019   6.376
42623SOL     OW29765  14.809  11.230   9.739
42623SOL    HW129766  14.844  11.261   9.822
42623SOL    HW229767  14.868  11.159   9.713
42624SOL     OW29768   3.153   9.923   8.607
42624SOL    HW129769   3.171  10.013   8.633
42624SOL    HW229770   3.059   9.912   8.625
42625SOL     OW29771  14.419  12.253   7.215
42625SOL    HW129772  14.471  12.211   7.147
42625SOL    HW229773  14.470  12.331   7.239
42626SOL     OW29774   2.484   4.424  13.204
42626SOL    HW129775   2.477   4.343  13.255
42626SOL    HW229776   2.401   4.469  13.218
42627SOL     OW29777  13.677   7.824   3.007
42627SOL    HW129778  13.709   7.883   3.076
42627SOL    HW229779  13.684   7.736   3.046
42628SOL     OW29780  13.446  11.222   4.534
42628SOL    HW129781  13.508  11.149   4.538
42628SOL    HW229782  13.435  11.248   4.625
42629SOL     OW29783  11.807   0.725   6.473
42629SOL    HW129784  11.874   0.682   6.526
42629SOL    HW229785  11.824   0.696   6.383
42630SOL     OW29786  14.840   6.022  12.250
42630SOL    HW129787  14.762   5.991  12.203
42630SOL    HW229788  14.865   6.103  12.205
42631SOL     OW29789   0.260   7.022  11.926
42631SOL    HW129790   0.219   7.027  11.840
42631SOL    HW229791   0.251   6.931  11.952
42632SOL     OW29792   6.066   2.783   9.320
42632SOL    HW129793   6.112   2.703   9.295
42632SOL    HW229794   6.105   2.808   9.404
42633SOL     OW29795   1.707   4.354  12.532
42633SOL    HW129796   1.670   4.269  12.557
42633SOL    HW229797   1.789   4.333  12.488
42634SOL     OW29798  11.354   6.111   2.801
42634SOL    HW129799  11.414   6.184   2.789
42634SOL    HW229800  11.267   6.151   2.797
42635SOL     OW29801  14.200   6.198  12.136
42635SOL    HW129802  14.146   6.127  12.101
42635SOL    HW229803  14.201   6.183  12.230
42636SOL     OW29804  14.385   1.571   6.523
42636SOL    HW129805  14.336   1.652   6.507
42636SOL    HW229806  14.342   1.532   6.599
42637SOL     OW29807   3.719   6.578   1.550
42637SOL    HW129808   3.753   6.508   1.605
42637SOL    HW229809   3.797   6.630   1.526
42638SOL     OW29810   6.890   1.645  14.819
42638SOL    HW129811   6.854   1.706  14.755
42638SOL    HW229812   6.982   1.672  14.828
42639SOL     OW29813   8.854  12.368  14.233
42639SOL    HW129814   8.773  12.323  14.260
42639SOL    HW229815   8.841  12.459  14.261
42640SOL     OW29816   3.607   3.247  10.681
42640SOL    HW129817   3.586   3.336  10.708
42640SOL    HW229818   3.522   3.204  10.670
42641SOL     OW29819   3.882  11.169  11.706
42641SOL    HW129820   3.910  11.140  11.620
42641SOL    HW229821   3.840  11.254  11.691
42642SOL     OW29822  13.162   0.218   2.386
42642SOL    HW129823  13.204   0.221   2.472
42642SOL    HW229824  13.228   0.251   2.325
42643SOL     OW29825   4.368   1.109   9.586
42643SOL    HW129826   4.278   1.138   9.597
42643SOL    HW229827   4.384   1.053   9.662
42644SOL     OW29828   1.731   6.591  11.374
42644SOL    HW129829   1.823   6.581  11.398
42644SOL    HW229830   1.731   6.663  11.310
42645SOL     OW29831   4.356   3.946  10.645
42645SOL    HW129832   4.273   3.993  10.642
42645SOL    HW229833   4.388   3.958  10.735
42646SOL     OW29834   1.089   4.777  14.157
42646SOL    HW129835   1.175   4.818  14.155
42646SOL    HW229836   1.102   4.695  14.204
42647SOL     OW29837   2.131   3.572   7.857
42647SOL    HW129838   2.199   3.619   7.809
42647SOL    HW229839   2.140   3.603   7.947
42648SOL     OW29840  10.078  12.500   6.383
42648SOL    HW129841   9.995  12.455   6.368
42648SOL    HW229842  10.143  12.446   6.338
42649SOL     OW29843   6.515  14.570   6.135
42649SOL    HW129844   6.421  14.586   6.143
42649SOL    HW229845   6.523  14.513   6.059
42650SOL     OW29846   5.490   3.174   7.912
42650SOL    HW129847   5.405   3.145   7.879
42650SOL    HW229848   5.483   3.167   8.007
42651SOL     OW29849   9.803   9.837  10.993
42651SOL    HW129850   9.708   9.844  10.978
42651SOL    HW229851   9.826   9.750  10.960
42652SOL     OW29852  11.568   7.294  10.439
42652SOL    HW129853  11.547   7.338  10.357
42652SOL    HW229854  11.576   7.202  10.416
42653SOL     OW29855   4.748   9.148   2.187
42653SOL    HW129856   4.825   9.172   2.136
42653SOL    HW229857   4.683   9.216   2.166
42654SOL     OW29858   7.576   0.906  13.974
42654SOL    HW129859   7.584   0.927  13.881
42654SOL    HW229860   7.531   0.822  13.977
42655SOL     OW29861   7.961   4.106   1.571
42655SOL    HW129862   7.986   4.137   1.658
42655SOL    HW229863   8.034   4.129   1.514
42656SOL     OW29864   9.616   8.705   3.355
42656SOL    HW129865   9.707   8.719   3.379
42656SOL    HW229866   9.566   8.740   3.428
42657SOL     OW29867   6.347  10.215  13.449
42657SOL    HW129868   6.437  10.209  13.482
42657SOL    HW229869   6.352  10.275  13.375
42658SOL     OW29870  14.240  13.237  10.276
42658SOL    HW129871  14.315  13.279  10.235
42658SOL    HW229872  14.215  13.295  10.348
42659SOL     OW29873   5.087   9.547   8.900
42659SOL    HW129874   5.164   9.598   8.928
42659SOL    HW229875   5.099   9.537   8.805
42660SOL     OW29876  10.550   6.737   1.978
42660SOL    HW129877  10.613   6.699   2.040
42660SOL    HW229878  10.577   6.704   1.893
42661SOL     OW29879   0.316   9.528   0.900
42661SOL    HW129880   0.295   9.620   0.887
42661SOL    HW229881   0.407   9.519   0.872
42662SOL     OW29882  10.045  11.095   5.401
42662SOL    HW129883  10.002  11.013   5.374
42662SOL    HW229884  10.109  11.111   5.331
42663SOL     OW29885  10.556   5.828   2.124
42663SOL    HW129886  10.649   5.804   2.125
42663SOL    HW229887  10.535   5.845   2.216
42664SOL     OW29888   5.185   0.982   4.343
42664SOL    HW129889   5.141   1.048   4.397
42664SOL    HW229890   5.129   0.973   4.266
42665SOL     OW29891   4.560  10.504   5.572
42665SOL    HW129892   4.570  10.504   5.667
42665SOL    HW229893   4.468  10.523   5.557
42666SOL     OW29894   4.960   8.666   8.816
42666SOL    HW129895   4.984   8.574   8.817
42666SOL    HW229896   4.966   8.694   8.908
42667SOL     OW29897   6.850  14.725  11.711
42667SOL    HW129898   6.902  14.651  11.742
42667SOL    HW229899   6.911  14.799  11.712
42668SOL     OW29900  11.461  13.854   0.077
42668SOL    HW129901  11.458  13.800  14.870
42668SOL    HW229902  11.369  13.865   0.101
42669SOL     OW29903   0.432   1.401   0.854
42669SOL    HW129904   0.405   1.455   0.928
42669SOL    HW229905   0.452   1.315   0.893
42670SOL     OW29906  14.757   9.372   6.702
42670SOL    HW129907  14.785   9.335   6.786
42670SOL    HW229908  14.823   9.342   6.639
42671SOL     OW29909  11.223   0.571   5.057
42671SOL    HW129910  11.306   0.618   5.064
42671SOL    HW229911  11.234   0.495   5.114
42672SOL     OW29912   5.626   4.903   3.198
42672SOL    HW129913   5.582   4.821   3.220
42672SOL    HW229914   5.560   4.954   3.150
42673SOL     OW29915   1.281   8.729   9.696
42673SOL    HW129916   1.345   8.794   9.726
42673SOL    HW229917   1.197   8.762   9.728
42674SOL     OW29918   4.025   2.004   6.151
42674SOL    HW129919   4.042   1.911   6.165
42674SOL    HW229920   4.032   2.043   6.238
42675SOL     OW29921  11.518   3.726  12.274
42675SOL    HW129922  11.568   3.802  12.302
42675SOL    HW229923  11.584   3.663  12.245
42676SOL     OW29924   0.200   7.567  14.691
42676SOL    HW129925   0.171   7.641  14.746
42676SOL    HW229926   0.251   7.607  14.622
42677SOL     OW29927   7.594   3.377  13.130
42677SOL    HW129928   7.568   3.338  13.213
42677SOL    HW229929   7.514   3.415  13.094
42678SOL     OW29930  14.146  12.313   7.044
42678SOL    HW129931  14.067  12.319   7.098
42678SOL    HW229932  14.155  12.220   7.025
42679SOL     OW29933   2.693  14.502   8.319
42679SOL    HW129934   2.612  14.453   8.332
42679SOL    HW229935   2.665  14.594   8.321
42680SOL     OW29936   9.502  14.846   9.256
42680SOL    HW129937   9.473   0.062   9.232
42680SOL    HW229938   9.478  14.838   9.349
42681SOL     OW29939   8.954   1.041   2.609
42681SOL    HW129940   8.994   1.037   2.696
42681SOL    HW229941   8.982   1.125   2.573
42682SOL     OW29942   1.403   1.106   0.878
42682SOL    HW129943   1.381   1.021   0.917
42682SOL    HW229944   1.447   1.084   0.796
42683SOL     OW29945   2.408   6.280   1.404
42683SOL    HW129946   2.398   6.231   1.323
42683SOL    HW229947   2.402   6.215   1.473
42684SOL     OW29948  11.937  12.776   5.796
42684SOL    HW129949  11.865  12.825   5.758
42684SOL    HW229950  11.942  12.696   5.743
42685SOL     OW29951   2.375   4.967   8.148
42685SOL    HW129952   2.403   4.882   8.114
42685SOL    HW229953   2.457   5.017   8.156
42686SOL     OW29954   5.710   3.149   3.131
42686SOL    HW129955   5.639   3.128   3.191
42686SOL    HW229956   5.748   3.230   3.165
42687SOL     OW29957  13.414  10.535   4.744
42687SOL    HW129958  13.413  10.593   4.667
42687SOL    HW229959  13.366  10.583   4.811
42688SOL     OW29960   5.850   7.183   1.298
42688SOL    HW129961   5.935   7.160   1.337
42688SOL    HW229962   5.870   7.255   1.239
42689SOL     OW29963   2.193   3.149  13.559
42689SOL    HW129964   2.221   3.075  13.614
42689SOL    HW229965   2.111   3.120  13.519
42690SOL     OW29966  13.679   8.301   9.649
42690SOL    HW129967  13.676   8.284   9.555
42690SOL    HW229968  13.719   8.387   9.656
42691SOL     OW29969   9.380   1.160   8.868
42691SOL    HW129970   9.404   1.242   8.825
42691SOL    HW229971   9.341   1.107   8.799
42692SOL     OW29972   9.997   2.165  11.326
42692SOL    HW129973   9.917   2.174  11.378
42692SOL    HW229974   9.966   2.154  11.236
42693SOL     OW29975  13.749   8.523  14.146
42693SOL    HW129976  13.740   8.558  14.057
42693SOL    HW229977  13.827   8.566  14.180
42694SOL     OW29978   1.262   8.984  12.279
42694SOL    HW129979   1.187   9.038  12.300
42694SOL    HW229980   1.264   8.917  12.347
42695SOL     OW29981   8.326   5.128   6.133
42695SOL    HW129982   8.333   5.220   6.156
42695SOL    HW229983   8.405   5.088   6.170
42696SOL     OW29984   3.243   2.853   8.060
42696SOL    HW129985   3.257   2.925   7.999
42696SOL    HW229986   3.306   2.868   8.130
42697SOL     OW29987  10.922   6.259   2.425
42697SOL    HW129988  10.886   6.222   2.505
42697SOL    HW229989  10.891   6.200   2.356
42698SOL     OW29990  12.132  10.324  13.204
42698SOL    HW129991  12.041  10.296  13.210
42698SOL    HW229992  12.182  10.243  13.193
42699SOL     OW29993   2.687  13.149  13.438
42699SOL    HW129994   2.688  13.054  13.427
42699SOL    HW229995   2.596  13.170  13.460
42700SOL     OW29996   5.647   8.580   3.121
42700SOL    HW129997   5.667   8.490   3.147
42700SOL    HW229998   5.553   8.589   3.133
42701SOL     OW29999   3.749   8.115   7.723
42701SOL    HW130000   3.740   8.153   7.810
42701SOL    HW230001   3.755   8.020   7.739
42702SOL     OW30002   0.558   0.493   8.118
42702SOL    HW130003   0.637   0.542   8.140
42702SOL    HW230004   0.500   0.507   8.193
42703SOL     OW30005   6.119   3.482  10.605
42703SOL    HW130006   6.137   3.404  10.553
42703SOL    HW230007   6.040   3.460  10.655
42704SOL     OW30008  10.230  13.778   0.943
42704SOL    HW130009  10.259  13.728   1.020
42704SOL    HW230010  10.306  13.832   0.920
42705SOL     OW30011  10.195   7.123   4.344
42705SOL    HW130012  10.187   7.061   4.417
42705SOL    HW230013  10.285   7.155   4.349
42706SOL     OW30014   1.108  13.682   7.417
42706SOL    HW130015   1.023  13.726   7.425
42706SOL    HW230016   1.172  13.754   7.418
42707SOL     OW30017   2.868  11.662   1.555
42707SOL    HW130018   2.813  11.635   1.481
42707SOL    HW230019   2.943  11.705   1.514
42708SOL     OW30020   6.207   9.546   7.596
42708SOL    HW130021   6.151   9.541   7.518
42708SOL    HW230022   6.149   9.577   7.666
42709SOL     OW30023   9.081  12.323   1.309
42709SOL    HW130024   9.029  12.253   1.347
42709SOL    HW230025   9.054  12.401   1.358
42710SOL     OW30026  13.680  11.207   6.757
42710SOL    HW130027  13.635  11.245   6.832
42710SOL    HW230028  13.715  11.124   6.790
42711SOL     OW30029   7.700   4.875  10.314
42711SOL    HW130030   7.695   4.940  10.383
42711SOL    HW230031   7.789   4.839  10.321
42712SOL     OW30032   2.202   7.352  10.367
42712SOL    HW130033   2.239   7.433  10.330
42712SOL    HW230034   2.110   7.374  10.383
42713SOL     OW30035   8.301  13.566   2.424
42713SOL    HW130036   8.357  13.627   2.376
42713SOL    HW230037   8.325  13.480   2.390
42714SOL     OW30038  12.586  13.779   5.229
42714SOL    HW130039  12.555  13.743   5.312
42714SOL    HW230040  12.677  13.752   5.224
42715SOL     OW30041   4.530   0.215  10.575
42715SOL    HW130042   4.561   0.301  10.548
42715SOL    HW230043   4.438   0.212  10.548
42716SOL     OW30044   2.735   5.757   9.713
42716SOL    HW130045   2.694   5.689   9.659
42716SOL    HW230046   2.806   5.713   9.758
42717SOL     OW30047  12.645   1.901  11.909
42717SOL    HW130048  12.651   1.939  11.997
42717SOL    HW230049  12.728   1.924  11.867
42718SOL     OW30050   4.194  11.906   0.675
42718SOL    HW130051   4.260  11.886   0.741
42718SOL    HW230052   4.126  11.841   0.688
42719SOL     OW30053   7.998   1.188   9.250
42719SOL    HW130054   8.067   1.223   9.194
42719SOL    HW230055   7.950   1.265   9.280
42720SOL     OW30056  13.728  13.296   2.810
42720SOL    HW130057  13.680  13.248   2.743
42720SOL    HW230058  13.802  13.240   2.832
42721SOL     OW30059   9.119   6.547   8.996
42721SOL    HW130060   9.118   6.640   9.017
42721SOL    HW230061   9.175   6.508   9.063
42722SOL     OW30062   3.873   2.427   3.126
42722SOL    HW130063   3.959   2.412   3.087
42722SOL    HW230064   3.841   2.507   3.084
42723SOL     OW30065  10.760   7.285   3.710
42723SOL    HW130066  10.760   7.370   3.666
42723SOL    HW230067  10.761   7.306   3.803
42724SOL     OW30068   8.235  14.574  14.460
42724SOL    HW130069   8.198  14.590  14.546
42724SOL    HW230070   8.314  14.628  14.457
42725SOL     OW30071  11.919  10.247   2.313
42725SOL    HW130072  11.866  10.209   2.382
42725SOL    HW230073  12.006  10.209   2.326
42726SOL     OW30074  11.877  13.732  12.870
42726SOL    HW130075  11.897  13.816  12.911
42726SOL    HW230076  11.886  13.667  12.939
42727SOL     OW30077   5.284   8.490  14.311
42727SOL    HW130078   5.356   8.427  14.303
42727SOL    HW230079   5.321   8.573  14.282
42728SOL     OW30080   4.045  11.757   6.385
42728SOL    HW130081   4.130  11.780   6.347
42728SOL    HW230082   3.985  11.754   6.311
42729SOL     OW30083   6.834   7.443  11.163
42729SOL    HW130084   6.803   7.382  11.097
42729SOL    HW230085   6.841   7.391  11.243
42730SOL     OW30086  13.138   0.616  11.780
42730SOL    HW130087  13.181   0.693  11.819
42730SOL    HW230088  13.047   0.643  11.769
42731SOL     OW30089  14.598   5.750   2.654
42731SOL    HW130090  14.573   5.675   2.599
42731SOL    HW230091  14.692   5.758   2.643
42732SOL     OW30092  13.009   8.063   4.086
42732SOL    HW130093  12.989   8.028   4.173
42732SOL    HW230094  12.945   8.020   4.029
42733SOL     OW30095  10.525  10.655   5.396
42733SOL    HW130096  10.586  10.693   5.459
42733SOL    HW230097  10.508  10.567   5.429
42734SOL     OW30098   9.571   3.064   7.029
42734SOL    HW130099   9.602   3.153   7.011
42734SOL    HW230100   9.612   3.041   7.112
42735SOL     OW30101  10.543   8.925   3.768
42735SOL    HW130102  10.513   8.854   3.825
42735SOL    HW230103  10.605   8.974   3.822
42736SOL     OW30104   8.833   9.875   5.497
42736SOL    HW130105   8.820   9.826   5.578
42736SOL    HW230106   8.847   9.808   5.430
42737SOL     OW30107  12.722  13.722   4.874
42737SOL    HW130108  12.635  13.731   4.913
42737SOL    HW230109  12.708  13.739   4.781
42738SOL     OW30110   8.842   9.218  12.913
42738SOL    HW130111   8.754   9.233  12.947
42738SOL    HW230112   8.831   9.216  12.818
42739SOL     OW30113  12.597   0.924  14.748
42739SOL    HW130114  12.658   0.997  14.735
42739SOL    HW230115  12.601   0.875  14.667
42740SOL     OW30116   0.811   5.673  13.360
42740SOL    HW130117   0.859   5.682  13.278
42740SOL    HW230118   0.720   5.693  13.336
42741SOL     OW30119   2.326   3.338  14.110
42741SOL    HW130120   2.365   3.315  14.025
42741SOL    HW230121   2.235   3.308  14.103
42742SOL     OW30122   3.437   2.106  11.449
42742SOL    HW130123   3.369   2.054  11.406
42742SOL    HW230124   3.517   2.085  11.401
42743SOL     OW30125   6.059   2.255  11.525
42743SOL    HW130126   5.994   2.297  11.468
42743SOL    HW230127   6.111   2.201  11.466
42744SOL     OW30128   7.885  14.561   5.721
42744SOL    HW130129   7.872  14.540   5.628
42744SOL    HW230130   7.921  14.649   5.721
42745SOL     OW30131  11.191   6.339   2.367
42745SOL    HW130132  11.126   6.291   2.418
42745SOL    HW230133  11.205   6.286   2.289
42746SOL     OW30134  14.187   3.074  12.796
42746SOL    HW130135  14.234   3.126  12.731
42746SOL    HW230136  14.254   3.018  12.834
42747SOL     OW30137   7.951   3.287   5.001
42747SOL    HW130138   8.023   3.251   4.949
42747SOL    HW230139   7.941   3.377   4.969
42748SOL     OW30140   4.347   9.285   6.710
42748SOL    HW130141   4.380   9.220   6.772
42748SOL    HW230142   4.308   9.232   6.640
42749SOL     OW30143  11.859   3.330   8.914
42749SOL    HW130144  11.844   3.261   8.977
42749SOL    HW230145  11.955   3.334   8.905
42750SOL     OW30146  14.387   3.180   2.675
42750SOL    HW130147  14.361   3.243   2.742
42750SOL    HW230148  14.440   3.115   2.723
42751SOL     OW30149   2.290   0.616   4.400
42751SOL    HW130150   2.339   0.534   4.401
42751SOL    HW230151   2.356   0.684   4.401
42752SOL     OW30152   1.373   3.453   9.153
42752SOL    HW130153   1.404   3.404   9.228
42752SOL    HW230154   1.291   3.493   9.183
42753SOL     OW30155  12.253   0.311   5.347
42753SOL    HW130156  12.261   0.217   5.364
42753SOL    HW230157  12.170   0.336   5.388
42754SOL     OW30158  13.793   2.415   1.805
42754SOL    HW130159  13.828   2.464   1.880
42754SOL    HW230160  13.715   2.371   1.840
42755SOL     OW30161  13.757   2.717  12.640
42755SOL    HW130162  13.745   2.749  12.729
42755SOL    HW230163  13.711   2.781  12.585
42756SOL     OW30164  10.764  13.785   0.904
42756SOL    HW130165  10.743  13.860   0.848
42756SOL    HW230166  10.716  13.801   0.985
42757SOL     OW30167   8.547  14.743   8.986
42757SOL    HW130168   8.512  14.808   8.925
42757SOL    HW230169   8.519  14.774   9.072
42758SOL     OW30170   2.526   6.322   6.864
42758SOL    HW130171   2.480   6.364   6.791
42758SOL    HW230172   2.468   6.250   6.890
42759SOL     OW30173   5.919  11.886   8.721
42759SOL    HW130174   5.951  11.972   8.747
42759SOL    HW230175   5.841  11.904   8.668
42760SOL     OW30176  12.192   0.544   2.677
42760SOL    HW130177  12.224   0.455   2.663
42760SOL    HW230178  12.156   0.543   2.766
42761SOL     OW30179   6.705  11.856   6.151
42761SOL    HW130180   6.787  11.895   6.181
42761SOL    HW230181   6.637  11.919   6.176
42762SOL     OW30182  12.946  12.005   4.175
42762SOL    HW130183  12.939  12.002   4.270
42762SOL    HW230184  13.038  11.984   4.157
42763SOL     OW30185   5.080  10.124  13.590
42763SOL    HW130186   5.006  10.176  13.621
42763SOL    HW230187   5.087  10.051  13.652
42764SOL     OW30188   1.369   3.562  10.026
42764SOL    HW130189   1.402   3.479   9.993
42764SOL    HW230190   1.278   3.544  10.051
42765SOL     OW30191   9.733  14.653   5.809
42765SOL    HW130192   9.761  14.586   5.747
42765SOL    HW230193   9.717  14.605   5.891
42766SOL     OW30194   1.409  10.195  11.301
42766SOL    HW130195   1.467  10.254  11.349
42766SOL    HW230196   1.453  10.180  11.217
42767SOL     OW30197   9.814   9.046  12.910
42767SOL    HW130198   9.836   9.022  13.000
42767SOL    HW230199   9.722   9.019  12.900
42768SOL     OW30200  10.752   7.168   3.172
42768SOL    HW130201  10.830   7.199   3.219
42768SOL    HW230202  10.680   7.216   3.213
42769SOL     OW30203   1.799  10.388   0.359
42769SOL    HW130204   1.886  10.384   0.401
42769SOL    HW230205   1.809  10.453   0.290
42770SOL     OW30206  13.234   2.918   5.525
42770SOL    HW130207  13.168   2.957   5.468
42770SOL    HW230208  13.199   2.927   5.614
42771SOL     OW30209  10.683  10.889   3.012
42771SOL    HW130210  10.732  10.971   3.015
42771SOL    HW230211  10.738  10.827   3.060
42772SOL     OW30212   2.568   9.633   3.960
42772SOL    HW130213   2.482   9.676   3.953
42772SOL    HW230214   2.631   9.704   3.954
42773SOL     OW30215   5.825  10.666   7.076
42773SOL    HW130216   5.833  10.595   7.140
42773SOL    HW230217   5.908  10.714   7.083
42774SOL     OW30218   5.691   3.214   2.212
42774SOL    HW130219   5.648   3.275   2.152
42774SOL    HW230220   5.722   3.270   2.283
42775SOL     OW30221   6.158   2.455   2.293
42775SOL    HW130222   6.166   2.472   2.199
42775SOL    HW230223   6.142   2.541   2.332
42776SOL     OW30224   0.818   4.925  13.450
42776SOL    HW130225   0.884   4.937  13.381
42776SOL    HW230226   0.768   4.849  13.421
42777SOL     OW30227   9.334  10.417   9.886
42777SOL    HW130228   9.264  10.474   9.854
42777SOL    HW230229   9.320  10.333   9.841
42778SOL     OW30230   1.005   4.635   2.224
42778SOL    HW130231   1.087   4.586   2.215
42778SOL    HW230232   1.010   4.703   2.156
42779SOL     OW30233   5.969  10.141   9.896
42779SOL    HW130234   5.909  10.187   9.955
42779SOL    HW230235   6.053  10.185   9.907
42780SOL     OW30236   3.906  10.803  14.871
42780SOL    HW130237   3.904  10.831   0.090
42780SOL    HW230238   3.993  10.765  14.859
42781SOL     OW30239   3.170   5.965   1.082
42781SOL    HW130240   3.248   5.924   1.118
42781SOL    HW230241   3.120   5.993   1.159
42782SOL     OW30242   5.958   6.216   9.277
42782SOL    HW130243   5.876   6.251   9.242
42782SOL    HW230244   5.931   6.145   9.335
42783SOL     OW30245   1.947   1.524  10.274
42783SOL    HW130246   1.854   1.512  10.294
42783SOL    HW230247   1.966   1.456  10.209
42784SOL     OW30248   8.325   0.084   4.674
42784SOL    HW130249   8.290   0.074   4.763
42784SOL    HW230250   8.257   0.048   4.617
42785SOL     OW30251   2.664  13.527   4.824
42785SOL    HW130252   2.594  13.498   4.765
42785SOL    HW230253   2.628  13.515   4.912
42786SOL     OW30254   2.113   9.725   3.847
42786SOL    HW130255   2.097   9.809   3.889
42786SOL    HW230256   2.084   9.738   3.756
42787SOL     OW30257   2.735  12.781  13.656
42787SOL    HW130258   2.807  12.737  13.609
42787SOL    HW230259   2.704  12.717  13.719
42788SOL     OW30260   1.262  12.558  13.480
42788SOL    HW130261   1.220  12.475  13.503
42788SOL    HW230262   1.304  12.586  13.561
42789SOL     OW30263  14.555   9.970  12.431
42789SOL    HW130264  14.472   9.958  12.478
42789SOL    HW230265  14.568   9.887  12.385
42790SOL     OW30266  14.368  10.226   3.660
42790SOL    HW130267  14.275  10.234   3.639
42790SOL    HW230268  14.412  10.280   3.595
42791SOL     OW30269   5.764   3.328   9.220
42791SOL    HW130270   5.738   3.257   9.162
42791SOL    HW230271   5.859   3.320   9.228
42792SOL     OW30272   0.714   4.943   8.332
42792SOL    HW130273   0.786   5.006   8.340
42792SOL    HW230274   0.752   4.870   8.283
42793SOL     OW30275  10.728   3.278   5.746
42793SOL    HW130276  10.772   3.203   5.788
42793SOL    HW230277  10.769   3.285   5.660
42794SOL     OW30278   3.915  12.250   1.872
42794SOL    HW130279   3.981  12.277   1.808
42794SOL    HW230280   3.854  12.196   1.823
42795SOL     OW30281   4.317   1.649   6.938
42795SOL    HW130282   4.408   1.625   6.955
42795SOL    HW230283   4.322   1.714   6.868
42796SOL     OW30284  10.088   2.122  10.434
42796SOL    HW130285  10.154   2.151  10.497
42796SOL    HW230286  10.075   2.029  10.454
42797SOL     OW30287   5.063  13.822  12.872
42797SOL    HW130288   5.048  13.872  12.792
42797SOL    HW230289   5.027  13.877  12.942
42798SOL     OW30290   4.170   6.746  12.043
42798SOL    HW130291   4.136   6.792  11.966
42798SOL    HW230292   4.096   6.743  12.104
42799SOL     OW30293   6.412   7.837   6.509
42799SOL    HW130294   6.371   7.812   6.592
42799SOL    HW230295   6.449   7.756   6.475
42800SOL     OW30296   3.673  10.508   9.486
42800SOL    HW130297   3.683  10.441   9.418
42800SOL    HW230298   3.596  10.557   9.460
42801SOL     OW30299   0.511  12.120  14.391
42801SOL    HW130300   0.528  12.045  14.447
42801SOL    HW230301   0.519  12.086  14.302
42802SOL     OW30302  11.333   1.617   8.448
42802SOL    HW130303  11.415   1.663   8.464
42802SOL    HW230304  11.309   1.581   8.534
42803SOL     OW30305   2.856   9.349  10.236
42803SOL    HW130306   2.948   9.373  10.231
42803SOL    HW230307   2.856   9.253  10.235
42804SOL     OW30308   7.603   4.543  11.042
42804SOL    HW130309   7.514   4.553  11.010
42804SOL    HW230310   7.658   4.546  10.964
42805SOL     OW30311  10.280   4.420   2.069
42805SOL    HW130312  10.279   4.500   2.121
42805SOL    HW230313  10.363   4.423   2.022
42806SOL     OW30314   5.184   8.603  12.128
42806SOL    HW130315   5.240   8.622  12.204
42806SOL    HW230316   5.239   8.550  12.070
42807SOL     OW30317   2.009  13.945   6.958
42807SOL    HW130318   2.098  13.910   6.947
42807SOL    HW230319   1.984  13.918   7.046
42808SOL     OW30320   4.292   2.662   0.622
42808SOL    HW130321   4.259   2.591   0.566
42808SOL    HW230322   4.214   2.704   0.657
42809SOL     OW30323   5.217  14.496   6.708
42809SOL    HW130324   5.184  14.585   6.694
42809SOL    HW230325   5.288  14.506   6.772
42810SOL     OW30326   7.593   4.365   7.800
42810SOL    HW130327   7.516   4.380   7.744
42810SOL    HW230328   7.556   4.340   7.885
42811SOL     OW30329   9.012  11.253   0.893
42811SOL    HW130330   9.051  11.338   0.913
42811SOL    HW230331   9.083  11.205   0.849
42812SOL     OW30332  11.615   3.140   8.913
42812SOL    HW130333  11.657   3.119   8.829
42812SOL    HW230334  11.525   3.109   8.903
42813SOL     OW30335  14.430   3.490   5.038
42813SOL    HW130336  14.500   3.554   5.053
42813SOL    HW230337  14.367   3.506   5.108
42814SOL     OW30338   5.195  13.390   5.981
42814SOL    HW130339   5.146  13.314   5.950
42814SOL    HW230340   5.236  13.425   5.902
42815SOL     OW30341   8.825   7.210  10.548
42815SOL    HW130342   8.848   7.272  10.616
42815SOL    HW230343   8.833   7.124  10.590
42816SOL     OW30344  10.002  14.673  13.566
42816SOL    HW130345  10.013  14.580  13.547
42816SOL    HW230346  10.009  14.679  13.661
42817SOL     OW30347   0.496   7.416   9.451
42817SOL    HW130348   0.548   7.444   9.526
42817SOL    HW230349   0.554   7.426   9.376
42818SOL     OW30350  11.326  14.465   9.562
42818SOL    HW130351  11.402  14.474   9.505
42818SOL    HW230352  11.263  14.414   9.511
42819SOL     OW30353   1.370  13.223   8.932
42819SOL    HW130354   1.440  13.161   8.956
42819SOL    HW230355   1.388  13.300   8.986
42820SOL     OW30356   9.805   2.779   4.329
42820SOL    HW130357   9.863   2.710   4.298
42820SOL    HW230358   9.809   2.846   4.262
42821SOL     OW30359  13.402  12.672  14.721
42821SOL    HW130360  13.311  12.691  14.742
42821SOL    HW230361  13.406  12.674  14.626
42822SOL     OW30362  10.141   3.045   1.296
42822SOL    HW130363  10.067   3.106   1.301
42822SOL    HW230364  10.147   3.007   1.384
42823SOL     OW30365   0.893   6.149   8.942
42823SOL    HW130366   0.866   6.062   8.973
42823SOL    HW230367   0.942   6.187   9.014
42824SOL     OW30368   5.519   1.623   7.711
42824SOL    HW130369   5.448   1.680   7.741
42824SOL    HW230370   5.549   1.579   7.791
42825SOL     OW30371   4.827   7.274   6.113
42825SOL    HW130372   4.761   7.246   6.176
42825SOL    HW230373   4.885   7.198   6.105
42826SOL     OW30374   2.462   7.811  11.825
42826SOL    HW130375   2.436   7.760  11.901
42826SOL    HW230376   2.450   7.752  11.751
42827SOL     OW30377  11.022  12.044   6.446
42827SOL    HW130378  10.946  12.066   6.392
42827SOL    HW230379  11.053  11.961   6.411
42828SOL     OW30380   2.829  10.323   9.588
42828SOL    HW130381   2.742  10.357   9.610
42828SOL    HW230382   2.837  10.242   9.638
42829SOL     OW30383   9.303   9.754  13.617
42829SOL    HW130384   9.284   9.848  13.616
42829SOL    HW230385   9.391   9.747  13.582
42830SOL     OW30386  11.103  12.650  11.494
42830SOL    HW130387  11.042  12.715  11.527
42830SOL    HW230388  11.108  12.668  11.400
42831SOL     OW30389   7.334   6.319  13.182
42831SOL    HW130390   7.351   6.287  13.093
42831SOL    HW230391   7.274   6.254  13.220
42832SOL     OW30392  13.473  12.277   7.994
42832SOL    HW130393  13.386  12.263   8.032
42832SOL    HW230394  13.503  12.359   8.034
42833SOL     OW30395  12.449   9.898   2.313
42833SOL    HW130396  12.422   9.955   2.241
42833SOL    HW230397  12.544   9.889   2.301
42834SOL     OW30398  14.189   1.121   7.482
42834SOL    HW130399  14.156   1.202   7.443
42834SOL    HW230400  14.186   1.057   7.412
42835SOL     OW30401   8.648   1.482   0.348
42835SOL    HW130402   8.718   1.455   0.289
42835SOL    HW230403   8.570   1.484   0.294
42836SOL     OW30404  11.924   3.421  13.936
42836SOL    HW130405  11.845   3.473  13.950
42836SOL    HW230406  11.914   3.386  13.848
42837SOL     OW30407  13.396   7.455  12.474
42837SOL    HW130408  13.485   7.449  12.508
42837SOL    HW230409  13.402   7.423  12.383
42838SOL     OW30410   1.223   4.725  11.159
42838SOL    HW130411   1.300   4.745  11.106
42838SOL    HW230412   1.153   4.709  11.095
42839SOL     OW30413   7.927  10.752  14.204
42839SOL    HW130414   7.837  10.734  14.232
42839SOL    HW230415   7.952  10.831  14.252
42840SOL     OW30416   4.555   9.684   1.945
42840SOL    HW130417   4.518   9.597   1.935
42840SOL    HW230418   4.494   9.742   1.900
42841SOL     OW30419   0.591   8.839   6.663
42841SOL    HW130420   0.545   8.847   6.746
42841SOL    HW230421   0.624   8.927   6.646
42842SOL     OW30422   3.624  13.928  12.334
42842SOL    HW130423   3.639  14.003  12.276
42842SOL    HW230424   3.608  13.854  12.275
42843SOL     OW30425   1.569   0.098   9.245
42843SOL    HW130426   1.658   0.080   9.215
42843SOL    HW230427   1.526   0.138   9.169
42844SOL     OW30428   8.827   0.558   2.200
42844SOL    HW130429   8.810   0.581   2.109
42844SOL    HW230430   8.800   0.635   2.250
42845SOL     OW30431   5.370   3.160   3.539
42845SOL    HW130432   5.456   3.193   3.563
42845SOL    HW230433   5.321   3.159   3.622
42846SOL     OW30434   7.360   4.161   4.873
42846SOL    HW130435   7.416   4.212   4.815
42846SOL    HW230436   7.285   4.218   4.890
42847SOL     OW30437  11.519   3.384   6.984
42847SOL    HW130438  11.472   3.349   7.060
42847SOL    HW230439  11.454   3.386   6.914
42848SOL     OW30440   1.520  13.658   4.721
42848SOL    HW130441   1.499  13.707   4.800
42848SOL    HW230442   1.609  13.686   4.698
42849SOL     OW30443   7.462   3.303  13.953
42849SOL    HW130444   7.545   3.348  13.937
42849SOL    HW230445   7.435   3.332  14.041
42850SOL     OW30446  11.132   6.186  14.564
42850SOL    HW130447  11.075   6.110  14.550
42850SOL    HW230448  11.083   6.241  14.625
42851SOL     OW30449   1.859  11.174   5.795
42851SOL    HW130450   1.922  11.163   5.723
42851SOL    HW230451   1.913  11.171   5.874
42852SOL     OW30452   6.037   7.786   1.202
42852SOL    HW130453   6.060   7.750   1.117
42852SOL    HW230454   6.095   7.862   1.213
42853SOL     OW30455  13.934   8.909   7.652
42853SOL    HW130456  13.925   8.852   7.728
42853SOL    HW230457  13.922   8.998   7.687
42854SOL     OW30458   7.008  11.560   9.458
42854SOL    HW130459   7.041  11.614   9.530
42854SOL    HW230460   6.969  11.484   9.501
42855SOL     OW30461   9.721  14.717   1.752
42855SOL    HW130462   9.804  14.726   1.705
42855SOL    HW230463   9.701  14.806   1.782
42856SOL     OW30464  12.089  11.665   7.003
42856SOL    HW130465  12.099  11.717   7.083
42856SOL    HW230466  12.046  11.585   7.032
42857SOL     OW30467  14.689   4.130   5.080
42857SOL    HW130468  14.735   4.133   5.163
42857SOL    HW230469  14.604   4.170   5.099
42858SOL     OW30470   4.971   7.561   7.009
42858SOL    HW130471   4.960   7.619   6.934
42858SOL    HW230472   4.891   7.508   7.010
42859SOL     OW30473   7.912  11.308  12.907
42859SOL    HW130474   7.998  11.349  12.898
42859SOL    HW230475   7.924  11.220  12.872
42860SOL     OW30476  11.799   6.129  10.317
42860SOL    HW130477  11.781   6.044  10.277
42860SOL    HW230478  11.894   6.129  10.331
42861SOL     OW30479  14.062   8.040   1.145
42861SOL    HW130480  14.098   7.971   1.088
42861SOL    HW230481  14.138   8.092   1.171
42862SOL     OW30482  12.870   6.457   3.690
42862SOL    HW130483  12.892   6.469   3.782
42862SOL    HW230484  12.954   6.443   3.647
42863SOL     OW30485   6.721   8.632   5.994
42863SOL    HW130486   6.740   8.617   6.087
42863SOL    HW230487   6.627   8.614   5.986
42864SOL     OW30488   1.178   9.915   9.755
42864SOL    HW130489   1.113   9.887   9.691
42864SOL    HW230490   1.230   9.981   9.709
42865SOL     OW30491   7.847   9.780  12.433
42865SOL    HW130492   7.805   9.838  12.371
42865SOL    HW230493   7.883   9.709  12.379
42866SOL     OW30494   0.999   4.962  10.135
42866SOL    HW130495   1.022   4.891  10.075
42866SOL    HW230496   1.068   4.959  10.202
42867SOL     OW30497  13.635   6.970   3.152
42867SOL    HW130498  13.699   6.971   3.080
42867SOL    HW230499  13.551   6.955   3.109
42868SOL     OW30500   6.405   9.828   4.052
42868SOL    HW130501   6.460   9.809   4.128
42868SOL    HW230502   6.435   9.766   3.985
42869SOL     OW30503   7.588  10.863   9.714
42869SOL    HW130504   7.503  10.877   9.755
42869SOL    HW230505   7.641  10.819   9.781
42870SOL     OW30506  14.338   5.546   4.571
42870SOL    HW130507  14.286   5.626   4.571
42870SOL    HW230508  14.362   5.532   4.479
42871SOL     OW30509   4.811  14.817   3.673
42871SOL    HW130510   4.756  14.868   3.614
42871SOL    HW230511   4.764  14.734   3.683
42872SOL     OW30512  13.817  12.430   9.192
42872SOL    HW130513  13.731  12.424   9.233
42872SOL    HW230514  13.816  12.515   9.147
42873SOL     OW30515   2.880   9.866   9.925
42873SOL    HW130516   2.968   9.879   9.960
42873SOL    HW230517   2.844   9.794   9.977
42874SOL     OW30518   5.380   6.841   9.407
42874SOL    HW130519   5.444   6.856   9.338
42874SOL    HW230520   5.421   6.777   9.465
42875SOL     OW30521   2.499   0.127   8.344
42875SOL    HW130522   2.510   0.065   8.272
42875SOL    HW230523   2.534   0.081   8.421
42876SOL     OW30524   8.416   8.334  11.083
42876SOL    HW130525   8.354   8.262  11.088
42876SOL    HW230526   8.457   8.323  10.997
42877SOL     OW30527   6.679  13.172  12.287
42877SOL    HW130528   6.629  13.171  12.205
42877SOL    HW230529   6.619  13.135  12.352
42878SOL     OW30530   9.656   2.969   3.758
42878SOL    HW130531   9.578   2.916   3.741
42878SOL    HW230532   9.723   2.906   3.785
42879SOL     OW30533   1.359   4.501   4.867
42879SOL    HW130534   1.304   4.544   4.933
42879SOL    HW230535   1.347   4.408   4.883
42880SOL     OW30536   9.085   2.791   8.627
42880SOL    HW130537   9.079   2.697   8.640
42880SOL    HW230538   9.013   2.827   8.679
42881SOL     OW30539   0.618   1.233  13.521
42881SOL    HW130540   0.576   1.163  13.570
42881SOL    HW230541   0.591   1.218  13.430
42882SOL     OW30542  11.223   6.209   0.899
42882SOL    HW130543  11.152   6.150   0.927
42882SOL    HW230544  11.277   6.156   0.841
42883SOL     OW30545  14.606   9.418  12.483
42883SOL    HW130546  14.623   9.415  12.388
42883SOL    HW230547  14.669   9.481  12.516
42884SOL     OW30548  13.827   3.422  11.443
42884SOL    HW130549  13.800   3.332  11.463
42884SOL    HW230550  13.904   3.437  11.498
42885SOL     OW30551   7.863   7.581   1.080
42885SOL    HW130552   7.924   7.646   1.115
42885SOL    HW230553   7.916   7.502   1.069
42886SOL     OW30554   6.140  13.515  12.976
42886SOL    HW130555   6.072  13.473  12.923
42886SOL    HW230556   6.213  13.453  12.976
42887SOL     OW30557   2.386  11.601  14.054
42887SOL    HW130558   2.380  11.694  14.035
42887SOL    HW230559   2.341  11.590  14.139
42888SOL     OW30560  13.311  10.972   9.868
42888SOL    HW130561  13.264  10.888   9.869
42888SOL    HW230562  13.399  10.950   9.839
42889SOL     OW30563   6.363  12.260   1.011
42889SOL    HW130564   6.435  12.285   1.069
42889SOL    HW230565   6.321  12.186   1.056
42890SOL     OW30566   5.593  14.462   4.790
42890SOL    HW130567   5.682  14.441   4.762
42890SOL    HW230568   5.573  14.397   4.858
42891SOL     OW30569  12.255  12.338   2.105
42891SOL    HW130570  12.182  12.306   2.052
42891SOL    HW230571  12.216  12.407   2.160
42892SOL     OW30572   6.628   4.037   8.043
42892SOL    HW130573   6.688   4.109   8.027
42892SOL    HW230574   6.686   3.963   8.064
42893SOL     OW30575  13.268   1.639  14.028
42893SOL    HW130576  13.246   1.598  13.945
42893SOL    HW230577  13.183   1.655  14.070
42894SOL     OW30578   8.752  10.387   6.931
42894SOL    HW130579   8.683  10.337   6.888
42894SOL    HW230580   8.778  10.453   6.867
42895SOL     OW30581   3.950   9.125   7.659
42895SOL    HW130582   3.931   9.033   7.642
42895SOL    HW230583   3.866   9.169   7.649
42896SOL     OW30584   6.695   3.726   0.822
42896SOL    HW130585   6.714   3.663   0.752
42896SOL    HW230586   6.724   3.810   0.786
42897SOL     OW30587   2.919  11.144   5.170
42897SOL    HW130588   2.905  11.138   5.265
42897SOL    HW230589   2.970  11.223   5.158
42898SOL     OW30590   8.187   0.174  11.255
42898SOL    HW130591   8.128   0.105  11.226
42898SOL    HW230592   8.256   0.127  11.302
42899SOL     OW30593   9.706  12.795   1.662
42899SOL    HW130594   9.620  12.755   1.643
42899SOL    HW230595   9.693  12.841   1.745
42900SOL     OW30596  11.009   7.146  13.253
42900SOL    HW130597  11.019   7.238  13.230
42900SOL    HW230598  10.978   7.146  13.344
42901SOL     OW30599   2.254   2.446  10.095
42901SOL    HW130600   2.311   2.452  10.172
42901SOL    HW230601   2.173   2.490  10.122
42902SOL     OW30602   2.828   6.507  13.088
42902SOL    HW130603   2.865   6.535  13.171
42902SOL    HW230604   2.894   6.446  13.052
42903SOL     OW30605   0.577   1.590   3.838
42903SOL    HW130606   0.562   1.551   3.925
42903SOL    HW230607   0.612   1.677   3.857
42904SOL     OW30608  14.652   1.707   0.770
42904SOL    HW130609  14.632   1.717   0.863
42904SOL    HW230610  14.595   1.771   0.726
42905SOL     OW30611   5.186  11.625  11.870
42905SOL    HW130612   5.112  11.582  11.827
42905SOL    HW230613   5.146  11.697  11.920
42906SOL     OW30614  11.204  13.306   9.745
42906SOL    HW130615  11.121  13.259   9.740
42906SOL    HW230616  11.180  13.395   9.772
42907SOL     OW30617  14.786   4.744   1.723
42907SOL    HW130618   0.008   4.761   1.726
42907SOL    HW230619  14.773   4.669   1.780
42908SOL     OW30620  10.900   6.280   8.126
42908SOL    HW130621  10.879   6.343   8.195
42908SOL    HW230622  10.996   6.278   8.123
42909SOL     OW30623  12.143   2.290  12.775
42909SOL    HW130624  12.060   2.338  12.779
42909SOL    HW230625  12.158   2.260  12.865
42910SOL     OW30626   5.245   3.929  14.532
42910SOL    HW130627   5.214   3.969  14.451
42910SOL    HW230628   5.177   3.867  14.557
42911SOL     OW30629   0.828   4.629  13.245
42911SOL    HW130630   0.754   4.606  13.188
42911SOL    HW230631   0.788   4.678  13.317
42912SOL     OW30632   8.890   8.145   0.768
42912SOL    HW130633   8.904   8.072   0.708
42912SOL    HW230634   8.796   8.162   0.766
42913SOL     OW30635   7.293   2.484   9.591
42913SOL    HW130636   7.350   2.546   9.546
42913SOL    HW230637   7.343   2.457   9.668
42914SOL     OW30638   7.871  12.812   7.664
42914SOL    HW130639   7.809  12.845   7.598
42914SOL    HW230640   7.918  12.891   7.693
42915SOL     OW30641   8.878  11.352   7.533
42915SOL    HW130642   8.843  11.381   7.618
42915SOL    HW230643   8.964  11.316   7.554
42916SOL     OW30644   2.028   2.066  10.679
42916SOL    HW130645   2.089   2.026  10.741
42916SOL    HW230646   1.965   2.113  10.734
42917SOL     OW30647   9.331   7.272   3.740
42917SOL    HW130648   9.271   7.282   3.813
42917SOL    HW230649   9.319   7.352   3.688
42918SOL     OW30650   8.128  10.036   9.262
42918SOL    HW130651   8.151  10.127   9.241
42918SOL    HW230652   8.209   9.997   9.293
42919SOL     OW30653  12.738   1.054   2.905
42919SOL    HW130654  12.769   1.073   2.816
42919SOL    HW230655  12.704   1.138   2.937
42920SOL     OW30656   2.314   2.950  12.768
42920SOL    HW130657   2.396   2.996  12.785
42920SOL    HW230658   2.259   3.015  12.723
42921SOL     OW30659   3.877   0.092  10.799
42921SOL    HW130660   3.785   0.078  10.777
42921SOL    HW230661   3.919   0.008  10.782
42922SOL     OW30662   1.528  14.347   0.849
42922SOL    HW130663   1.458  14.355   0.784
42922SOL    HW230664   1.485  14.310   0.926
42923SOL     OW30665  14.761   4.209   3.504
42923SOL    HW130666  14.832   4.273   3.497
42923SOL    HW230667  14.748   4.199   3.599
42924SOL     OW30668  10.162   7.014   6.059
42924SOL    HW130669  10.243   6.991   6.105
42924SOL    HW230670  10.188   7.016   5.966
42925SOL     OW30671   7.314   6.412   3.859
42925SOL    HW130672   7.378   6.342   3.844
42925SOL    HW230673   7.360   6.474   3.916
42926SOL     OW30674  12.547  10.890   5.960
42926SOL    HW130675  12.638  10.892   5.929
42926SOL    HW230676  12.524  10.983   5.969
42927SOL     OW30677   8.347   1.087   9.730
42927SOL    HW130678   8.423   1.135   9.764
42927SOL    HW230679   8.284   1.087   9.802
42928SOL     OW30680  10.905   0.951   5.478
42928SOL    HW130681  10.901   0.856   5.489
42928SOL    HW230682  10.979   0.979   5.531
42929SOL     OW30683   7.538   3.236   3.892
42929SOL    HW130684   7.478   3.167   3.862
42929SOL    HW230685   7.502   3.317   3.854
42930SOL     OW30686   3.032   0.848  13.254
42930SOL    HW130687   3.011   0.824  13.164
42930SOL    HW230688   3.126   0.837  13.261
42931SOL     OW30689   5.016   2.952   4.792
42931SOL    HW130690   4.921   2.950   4.775
42931SOL    HW230691   5.045   2.863   4.775
42932SOL     OW30692  10.984   5.393   8.187
42932SOL    HW130693  10.913   5.374   8.126
42932SOL    HW230694  11.058   5.416   8.131
42933SOL     OW30695  10.884   3.823   1.710
42933SOL    HW130696  10.918   3.847   1.624
42933SOL    HW230697  10.945   3.864   1.772
42934SOL     OW30698  13.939   3.947   0.807
42934SOL    HW130699  13.861   3.971   0.858
42934SOL    HW230700  13.982   3.880   0.859
42935SOL     OW30701  12.331   5.721   7.425
42935SOL    HW130702  12.357   5.636   7.389
42935SOL    HW230703  12.256   5.748   7.372
42936SOL     OW30704   6.421   1.963  14.555
42936SOL    HW130705   6.467   1.961  14.640
42936SOL    HW230706   6.407   2.057  14.539
42937SOL     OW30707   7.885  12.100   0.810
42937SOL    HW130708   7.961  12.146   0.774
42937SOL    HW230709   7.904  12.007   0.792
42938SOL     OW30710   1.337   2.227  11.229
42938SOL    HW130711   1.376   2.155  11.178
42938SOL    HW230712   1.359   2.306  11.180
42939SOL     OW30713   1.286  13.166   1.421
42939SOL    HW130714   1.268  13.208   1.337
42939SOL    HW230715   1.202  13.165   1.467
42940SOL     OW30716  10.787   7.718   2.305
42940SOL    HW130717  10.838   7.677   2.236
42940SOL    HW230718  10.706   7.666   2.309
42941SOL     OW30719  13.107   3.959   1.731
42941SOL    HW130720  13.069   3.872   1.737
42941SOL    HW230721  13.122   3.972   1.638
42942SOL     OW30722   4.680  11.804   2.005
42942SOL    HW130723   4.758  11.860   2.009
42942SOL    HW230724   4.607  11.864   1.994
42943SOL     OW30725   0.023  10.385   6.423
42943SOL    HW130726   0.119  10.383   6.419
42943SOL    HW230727   0.002  10.479   6.428
42944SOL     OW30728  14.211   9.587   1.468
42944SOL    HW130729  14.224   9.578   1.562
42944SOL    HW230730  14.248   9.507   1.430
42945SOL     OW30731   9.248   0.806  12.448
42945SOL    HW130732   9.319   0.744  12.430
42945SOL    HW230733   9.195   0.763  12.516
42946SOL     OW30734   8.327   3.273   1.699
42946SOL    HW130735   8.282   3.190   1.713
42946SOL    HW230736   8.257   3.339   1.702
42947SOL     OW30737   0.394  10.488   2.242
42947SOL    HW130738   0.301  10.489   2.216
42947SOL    HW230739   0.434  10.556   2.188
42948SOL     OW30740  13.398   4.670   0.996
42948SOL    HW130741  13.307   4.640   0.996
42948SOL    HW230742  13.412   4.704   1.084
42949SOL     OW30743   7.071   7.687   9.093
42949SOL    HW130744   7.062   7.782   9.085
42949SOL    HW230745   6.988   7.652   9.060
42950SOL     OW30746   6.123   7.813   8.357
42950SOL    HW130747   6.168   7.806   8.442
42950SOL    HW230748   6.162   7.890   8.316
42951SOL     OW30749   2.472   6.077   5.344
42951SOL    HW130750   2.433   5.991   5.359
42951SOL    HW230751   2.401   6.128   5.304
42952SOL     OW30752   7.746   9.949   2.559
42952SOL    HW130753   7.835   9.943   2.593
42952SOL    HW230754   7.755  10.001   2.479
42953SOL     OW30755   0.789  10.728   3.418
42953SOL    HW130756   0.834  10.759   3.340
42953SOL    HW230757   0.710  10.684   3.386
42954SOL     OW30758   1.712   4.956   8.674
42954SOL    HW130759   1.719   4.874   8.627
42954SOL    HW230760   1.799   4.968   8.714
42955SOL     OW30761   0.311  10.460  13.966
42955SOL    HW130762   0.296  10.510  13.886
42955SOL    HW230763   0.384  10.505  14.009
42956SOL     OW30764   2.403   1.084   6.879
42956SOL    HW130765   2.314   1.113   6.855
42956SOL    HW230766   2.461   1.136   6.823
42957SOL     OW30767  13.990   7.178  10.921
42957SOL    HW130768  14.057   7.110  10.912
42957SOL    HW230769  13.909   7.129  10.939
42958SOL     OW30770  12.920  11.045  12.638
42958SOL    HW130771  13.014  11.027  12.645
42958SOL    HW230772  12.914  11.117  12.575
42959SOL     OW30773   2.842  10.915   4.802
42959SOL    HW130774   2.934  10.923   4.824
42959SOL    HW230775   2.803  10.868   4.875
42960SOL     OW30776  11.662   0.652   9.033
42960SOL    HW130777  11.589   0.700   8.993
42960SOL    HW230778  11.737   0.673   8.978
42961SOL     OW30779   6.640   1.083   2.566
42961SOL    HW130780   6.658   1.017   2.499
42961SOL    HW230781   6.724   1.094   2.611
42962SOL     OW30782   9.800   1.276  13.006
42962SOL    HW130783   9.748   1.199  13.029
42962SOL    HW230784   9.884   1.241  12.977
42963SOL     OW30785   0.808   9.985   4.829
42963SOL    HW130786   0.829   9.891   4.831
42963SOL    HW230787   0.888  10.027   4.800
42964SOL     OW30788   1.427   3.760   5.671
42964SOL    HW130789   1.446   3.765   5.764
42964SOL    HW230790   1.496   3.705   5.635
42965SOL     OW30791   4.465   6.451   8.105
42965SOL    HW130792   4.459   6.475   8.012
42965SOL    HW230793   4.497   6.361   8.104
42966SOL     OW30794   7.207   8.655  14.119
42966SOL    HW130795   7.222   8.612  14.035
42966SOL    HW230796   7.137   8.605  14.159
42967SOL     OW30797  14.717   4.500  10.011
42967SOL    HW130798  14.645   4.562   9.995
42967SOL    HW230799  14.691   4.421   9.965
42968SOL     OW30800   5.291   4.607   9.161
42968SOL    HW130801   5.285   4.668   9.235
42968SOL    HW230802   5.354   4.648   9.102
42969SOL     OW30803   6.198   1.846  14.464
42969SOL    HW130804   6.259   1.900  14.514
42969SOL    HW230805   6.253   1.781  14.420
42970SOL     OW30806  10.190  14.228   1.881
42970SOL    HW130807  10.173  14.158   1.820
42970SOL    HW230808  10.227  14.299   1.828
42971SOL     OW30809   1.831   0.320   4.505
42971SOL    HW130810   1.779   0.272   4.440
42971SOL    HW230811   1.811   0.278   4.588
42972SOL     OW30812   0.389  14.549   1.491
42972SOL    HW130813   0.368  14.642   1.484
42972SOL    HW230814   0.332  14.506   1.428
42973SOL     OW30815   6.582   3.050   7.658
42973SOL    HW130816   6.566   3.067   7.751
42973SOL    HW230817   6.500   3.012   7.626
42974SOL     OW30818  10.030   3.790   9.353
42974SOL    HW130819  10.076   3.765   9.433
42974SOL    HW230820   9.938   3.774   9.372
42975SOL     OW30821  13.884   5.680   5.862
42975SOL    HW130822  13.916   5.768   5.846
42975SOL    HW230823  13.864   5.678   5.955
42976SOL     OW30824   2.420  13.256   8.924
42976SOL    HW130825   2.337  13.226   8.886
42976SOL    HW230826   2.408  13.350   8.936
42977SOL     OW30827   1.187   7.231   7.202
42977SOL    HW130828   1.280   7.249   7.217
42977SOL    HW230829   1.143   7.270   7.277
42978SOL     OW30830   0.521   6.628   7.707
42978SOL    HW130831   0.507   6.722   7.692
42978SOL    HW230832   0.454   6.605   7.773
42979SOL     OW30833   1.618   3.914   9.700
42979SOL    HW130834   1.694   3.964   9.731
42979SOL    HW230835   1.548   3.979   9.694
42980SOL     OW30836   5.927   5.993   1.982
42980SOL    HW130837   5.845   5.944   1.976
42980SOL    HW230838   5.964   5.988   1.894
42981SOL     OW30839   4.608   9.008  14.711
42981SOL    HW130840   4.627   9.083  14.767
42981SOL    HW230841   4.694   8.969  14.694
42982SOL     OW30842   3.773   1.227   1.312
42982SOL    HW130843   3.825   1.301   1.281
42982SOL    HW230844   3.762   1.171   1.234
42983SOL     OW30845   6.815   0.949  13.055
42983SOL    HW130846   6.901   0.984  13.078
42983SOL    HW230847   6.754   1.020  13.074
42984SOL     OW30848   8.695  12.655   7.071
42984SOL    HW130849   8.758  12.704   7.125
42984SOL    HW230850   8.737  12.646   6.986
42985SOL     OW30851   0.869  13.375   6.403
42985SOL    HW130852   0.777  13.362   6.379
42985SOL    HW230853   0.914  13.379   6.319
42986SOL     OW30854  11.614   7.195   1.604
42986SOL    HW130855  11.698   7.226   1.568
42986SOL    HW230856  11.566   7.162   1.529
42987SOL     OW30857   2.821   8.959  11.418
42987SOL    HW130858   2.778   8.978  11.501
42987SOL    HW230859   2.913   8.945  11.441
42988SOL     OW30860   7.295  10.512  14.606
42988SOL    HW130861   7.238  10.435  14.602
42988SOL    HW230862   7.236  10.585  14.621
42989SOL     OW30863  14.302   6.245  13.331
42989SOL    HW130864  14.394   6.234  13.354
42989SOL    HW230865  14.300   6.236  13.236
42990SOL     OW30866  10.485   8.126   5.250
42990SOL    HW130867  10.396   8.139   5.284
42990SOL    HW230868  10.506   8.207   5.204
42991SOL     OW30869   7.920   8.367   5.301
42991SOL    HW130870   7.906   8.386   5.209
42991SOL    HW230871   7.948   8.276   5.304
42992SOL     OW30872   8.146   0.746  13.032
42992SOL    HW130873   8.215   0.707  13.085
42992SOL    HW230874   8.191   0.813  12.980
42993SOL     OW30875   0.298   4.846   0.238
42993SOL    HW130876   0.269   4.768   0.285
42993SOL    HW230877   0.325   4.814   0.152
42994SOL     OW30878   7.436  13.397   5.112
42994SOL    HW130879   7.365  13.339   5.087
42994SOL    HW230880   7.393  13.479   5.138
42995SOL     OW30881   4.136   2.118  13.603
42995SOL    HW130882   4.049   2.157  13.606
42995SOL    HW230883   4.130   2.051  13.535
42996SOL     OW30884   9.622   6.606  11.489
42996SOL    HW130885   9.594   6.697  11.484
42996SOL    HW230886   9.580   6.573  11.568
42997SOL     OW30887  10.567  13.404   3.422
42997SOL    HW130888  10.658  13.375   3.414
42997SOL    HW230889  10.564  13.488   3.377
42998SOL     OW30890   0.665   5.920   4.451
42998SOL    HW130891   0.583   5.964   4.472
42998SOL    HW230892   0.646   5.827   4.463
42999SOL     OW30893  11.779   5.633  14.152
42999SOL    HW130894  11.803   5.589  14.070
42999SOL    HW230895  11.684   5.642  14.148
43000SOL     OW30896   9.595   0.449  10.709
43000SOL    HW130897   9.607   0.538  10.678
43000SOL    HW230898   9.661   0.438  10.778
43001SOL     OW30899   1.100   2.007  10.175
43001SOL    HW130900   1.137   2.027  10.262
43001SOL    HW230901   1.006   2.020  10.185
43002SOL     OW30902  10.882   5.155   7.666
43002SOL    HW130903  10.851   5.089   7.728
43002SOL    HW230904  10.803   5.204   7.642
43003SOL     OW30905   5.731   2.167  13.362
43003SOL    HW130906   5.658   2.215  13.400
43003SOL    HW230907   5.708   2.075  13.375
43004SOL     OW30908  12.025   7.653  12.685
43004SOL    HW130909  12.008   7.616  12.772
43004SOL    HW230910  12.100   7.711  12.699
43005SOL     OW30911   6.449   0.400   1.251
43005SOL    HW130912   6.387   0.472   1.239
43005SOL    HW230913   6.508   0.430   1.320
43006SOL     OW30914   8.486  13.010   6.177
43006SOL    HW130915   8.433  13.089   6.188
43006SOL    HW230916   8.472  12.960   6.257
43007SOL     OW30917   7.007  10.223  12.384
43007SOL    HW130918   7.010  10.128  12.392
43007SOL    HW230919   6.924  10.241  12.341
43008SOL     OW30920   4.314   1.470   8.110
43008SOL    HW130921   4.266   1.453   8.029
43008SOL    HW230922   4.390   1.412   8.106
43009SOL     OW30923   9.835   0.144   8.584
43009SOL    HW130924   9.819   0.228   8.542
43009SOL    HW230925   9.775   0.142   8.659
43010SOL     OW30926  12.668   5.813  13.632
43010SOL    HW130927  12.720   5.778  13.705
43010SOL    HW230928  12.649   5.904  13.658
43011SOL     OW30929   0.092  14.205   2.191
43011SOL    HW130930   0.179  14.245   2.194
43011SOL    HW230931   0.072  14.197   2.098
43012SOL     OW30932   7.796   4.249  14.245
43012SOL    HW130933   7.737   4.324  14.234
43012SOL    HW230934   7.750   4.176  14.204
43013SOL     OW30935  12.212  13.127   2.555
43013SOL    HW130936  12.178  13.077   2.629
43013SOL    HW230937  12.291  13.080   2.529
43014SOL     OW30938   7.115   2.825  12.236
43014SOL    HW130939   7.156   2.781  12.161
43014SOL    HW230940   7.030   2.784  12.245
43015SOL     OW30941  14.408   8.500   5.315
43015SOL    HW130942  14.465   8.533   5.384
43015SOL    HW230943  14.404   8.405   5.332
43016SOL     OW30944   4.632  12.293   8.660
43016SOL    HW130945   4.717  12.337   8.652
43016SOL    HW230946   4.569  12.364   8.666
43017SOL     OW30947   1.173  14.848  11.097
43017SOL    HW130948   1.177  14.779  11.031
43017SOL    HW230949   1.099  14.825  11.152
43018SOL     OW30950   9.230   1.287  10.000
43018SOL    HW130951   9.243   1.253   9.911
43018SOL    HW230952   9.309   1.263  10.047
43019SOL     OW30953  13.164   8.517   7.328
43019SOL    HW130954  13.215   8.488   7.404
43019SOL    HW230955  13.189   8.609   7.315
43020SOL     OW30956   3.619  10.849  11.457
43020SOL    HW130957   3.602  10.843  11.551
43020SOL    HW230958   3.705  10.890  11.450
43021SOL     OW30959  11.712   6.919   2.575
43021SOL    HW130960  11.651   6.889   2.507
43021SOL    HW230961  11.686   6.870   2.653
43022SOL     OW30962   0.188   4.258   8.754
43022SOL    HW130963   0.095   4.279   8.740
43022SOL    HW230964   0.188   4.207   8.836
43023SOL     OW30965   8.153  13.237   1.153
43023SOL    HW130966   8.182  13.171   1.090
43023SOL    HW230967   8.171  13.321   1.110
43024SOL     OW30968  14.552   8.262   6.105
43024SOL    HW130969  14.503   8.256   6.187
43024SOL    HW230970  14.489   8.294   6.041
43025SOL     OW30971   9.597   9.664   2.601
43025SOL    HW130972   9.604   9.691   2.693
43025SOL    HW230973   9.571   9.743   2.555
43026SOL     OW30974   6.648  11.499  11.045
43026SOL    HW130975   6.697  11.417  11.031
43026SOL    HW230976   6.692  11.540  11.120
43027SOL     OW30977   5.343   2.080  13.526
43027SOL    HW130978   5.392   2.074  13.608
43027SOL    HW230979   5.259   2.038  13.545
43028SOL     OW30980   7.080  11.087   2.472
43028SOL    HW130981   7.166  11.056   2.444
43028SOL    HW230982   7.090  11.105   2.566
43029SOL     OW30983  13.985   5.716  13.688
43029SOL    HW130984  14.075   5.695  13.712
43029SOL    HW230985  13.965   5.654  13.617
43030SOL     OW30986  10.838   2.983   6.437
43030SOL    HW130987  10.929   3.011   6.425
43030SOL    HW230988  10.843   2.888   6.439
43031SOL     OW30989   4.761  13.200   3.844
43031SOL    HW130990   4.853  13.215   3.867
43031SOL    HW230991   4.738  13.117   3.888
43032SOL     OW30992   4.183   2.082   6.686
43032SOL    HW130993   4.228   2.159   6.721
43032SOL    HW230994   4.091   2.107   6.684
43033SOL     OW30995   3.301   8.394  13.747
43033SOL    HW130996   3.256   8.363  13.825
43033SOL    HW230997   3.394   8.394  13.770
43034SOL     OW30998   4.866   9.686   6.494
43034SOL    HW130999   4.855   9.684   6.589
43034SOL    HW231000   4.804   9.753   6.464
43035SOL     OW31001  11.015   2.332   9.826
43035SOL    HW131002  11.057   2.246   9.830
43035SOL    HW231003  11.073   2.390   9.876
43036SOL     OW31004   0.309  14.715   7.652
43036SOL    HW131005   0.291  14.631   7.693
43036SOL    HW231006   0.352  14.767   7.720
43037SOL     OW31007   4.735   3.330   2.917
43037SOL    HW131008   4.809   3.304   2.862
43037SOL    HW231009   4.660   3.333   2.857
43038SOL     OW31010  10.862   2.595  14.129
43038SOL    HW131011  10.835   2.677  14.088
43038SOL    HW231012  10.957   2.593  14.119
43039SOL     OW31013   7.819   9.827   8.840
43039SOL    HW131014   7.848   9.749   8.793
43039SOL    HW231015   7.738   9.800   8.882
43040SOL     OW31016  12.051   1.992   1.616
43040SOL    HW131017  12.130   2.030   1.577
43040SOL    HW231018  11.979   2.027   1.563
43041SOL     OW31019   4.460   6.869  10.778
43041SOL    HW131020   4.542   6.837  10.741
43041SOL    HW231021   4.486   6.937  10.841
43042SOL     OW31022   6.941   6.726  13.555
43042SOL    HW131023   7.006   6.788  13.590
43042SOL    HW231024   6.857   6.766  13.576
43043SOL     OW31025   9.299   5.666   2.418
43043SOL    HW131026   9.280   5.577   2.449
43043SOL    HW231027   9.219   5.695   2.376
43044SOL     OW31028  12.367   8.951   9.321
43044SOL    HW131029  12.344   8.882   9.383
43044SOL    HW231030  12.402   9.022   9.375
43045SOL     OW31031  10.737   8.107  12.250
43045SOL    HW131032  10.746   8.123  12.156
43045SOL    HW231033  10.816   8.060  12.275
43046SOL     OW31034   3.638   6.758   6.286
43046SOL    HW131035   3.587   6.835   6.313
43046SOL    HW231036   3.721   6.794   6.255
43047SOL     OW31037   9.939  11.767   6.851
43047SOL    HW131038   9.980  11.745   6.767
43047SOL    HW231039   9.918  11.682   6.890
43048SOL     OW31040   0.628   5.728   8.109
43048SOL    HW131041   0.714   5.768   8.096
43048SOL    HW231042   0.628   5.701   8.201
43049SOL     OW31043   0.489   8.213   8.757
43049SOL    HW131044   0.431   8.289   8.752
43049SOL    HW231045   0.536   8.224   8.839
43050SOL     OW31046   5.502   0.904   6.781
43050SOL    HW131047   5.589   0.932   6.752
43050SOL    HW231048   5.472   0.843   6.714
43051SOL     OW31049   9.406  14.636   6.113
43051SOL    HW131050   9.363  14.620   6.029
43051SOL    HW231051   9.489  14.588   6.107
43052SOL     OW31052  12.083   1.548   7.660
43052SOL    HW131053  12.108   1.594   7.740
43052SOL    HW231054  12.142   1.582   7.593
43053SOL     OW31055   6.212   5.356   5.571
43053SOL    HW131056   6.238   5.447   5.590
43053SOL    HW231057   6.293   5.306   5.577
43054SOL     OW31058   7.674   9.762   6.827
43054SOL    HW131059   7.736   9.770   6.899
43054SOL    HW231060   7.613   9.834   6.840
43055SOL     OW31061  11.927  10.423  12.372
43055SOL    HW131062  11.851  10.380  12.334
43055SOL    HW231063  12.000  10.395  12.317
43056SOL     OW31064  14.870   2.698   8.961
43056SOL    HW131065  14.852   2.790   8.942
43056SOL    HW231066   0.094   2.695   8.975
43057SOL     OW31067  11.264   4.436   5.222
43057SOL    HW131068  11.251   4.417   5.315
43057SOL    HW231069  11.325   4.510   5.222
43058SOL     OW31070   9.188  14.718   8.026
43058SOL    HW131071   9.129  14.672   7.967
43058SOL    HW231072   9.130  14.762   8.088
43059SOL     OW31073  10.995  11.679   8.278
43059SOL    HW131074  11.085  11.710   8.266
43059SOL    HW231075  10.987  11.665   8.372
43060SOL     OW31076  13.125   3.536   9.555
43060SOL    HW131077  13.200   3.538   9.496
43060SOL    HW231078  13.092   3.626   9.556
43061SOL     OW31079   0.416   8.875   4.858
43061SOL    HW131080   0.367   8.946   4.900
43061SOL    HW231081   0.398   8.798   4.911
43062SOL     OW31082   8.583  10.983   9.300
43062SOL    HW131083   8.498  11.027   9.297
43062SOL    HW231084   8.616  10.988   9.210
43063SOL     OW31085   6.990   5.358   7.517
43063SOL    HW131086   7.036   5.311   7.586
43063SOL    HW231087   6.956   5.437   7.560
43064SOL     OW31088   2.991   9.138  13.014
43064SOL    HW131089   3.074   9.095  12.991
43064SOL    HW231090   2.926   9.096  12.959
43065SOL     OW31091   9.616   1.398   8.283
43065SOL    HW131092   9.597   1.375   8.374
43065SOL    HW231093   9.619   1.494   8.282
43066SOL     OW31094  14.595   6.334   2.347
43066SOL    HW131095  14.615   6.320   2.254
43066SOL    HW231096  14.604   6.248   2.387
43067SOL     OW31097   3.969   0.210   7.405
43067SOL    HW131098   3.894   0.211   7.345
43067SOL    HW231099   3.975   0.301   7.436
43068SOL     OW31100   5.979   3.581   1.421
43068SOL    HW131101   6.007   3.526   1.494
43068SOL    HW231102   6.007   3.669   1.446
43069SOL     OW31103   4.788   2.118   6.668
43069SOL    HW131104   4.810   2.097   6.577
43069SOL    HW231105   4.873   2.124   6.712
43070SOL     OW31106   6.051  12.718  12.927
43070SOL    HW131107   6.144  12.720  12.905
43070SOL    HW231108   6.049  12.680  13.015
43071SOL     OW31109   7.071   0.772  11.711
43071SOL    HW131110   7.128   0.711  11.759
43071SOL    HW231111   6.999   0.718  11.680
43072SOL     OW31112   4.534   6.945   9.055
43072SOL    HW131113   4.551   6.857   9.023
43072SOL    HW231114   4.604   6.999   9.017
43073SOL     OW31115  10.675  10.940  11.610
43073SOL    HW131116  10.713  10.864  11.654
43073SOL    HW231117  10.707  11.015  11.659
43074SOL     OW31118   6.463   2.516   8.260
43074SOL    HW131119   6.469   2.425   8.287
43074SOL    HW231120   6.411   2.558   8.329
43075SOL     OW31121   2.054   8.249  10.593
43075SOL    HW131122   2.071   8.161  10.558
43075SOL    HW231123   2.032   8.234  10.685
43076SOL     OW31124   5.460   1.078   6.395
43076SOL    HW131125   5.544   1.052   6.432
43076SOL    HW231126   5.453   1.171   6.416
43077SOL     OW31127  12.993   6.451   6.177
43077SOL    HW131128  13.014   6.420   6.265
43077SOL    HW231129  12.911   6.407   6.155
43078SOL     OW31130   3.643   0.490   5.000
43078SOL    HW131131   3.568   0.449   5.043
43078SOL    HW231132   3.682   0.420   4.947
43079SOL     OW31133   7.831   9.950  13.263
43079SOL    HW131134   7.828  10.044  13.245
43079SOL    HW231135   7.895   9.916  13.200
43080SOL     OW31136   9.180   6.767   0.365
43080SOL    HW131137   9.100   6.801   0.405
43080SOL    HW231138   9.240   6.842   0.367
43081SOL     OW31139   4.770   4.074  11.352
43081SOL    HW131140   4.801   4.162  11.330
43081SOL    HW231141   4.812   4.054  11.435
43082SOL     OW31142   4.454   5.833  14.392
43082SOL    HW131143   4.446   5.919  14.435
43082SOL    HW231144   4.543   5.804  14.414
43083SOL     OW31145   4.760   9.539   2.820
43083SOL    HW131146   4.709   9.561   2.897
43083SOL    HW231147   4.753   9.616   2.763
43084SOL     OW31148   3.456  12.320  10.004
43084SOL    HW131149   3.441  12.227  10.019
43084SOL    HW231150   3.525  12.344  10.066
43085SOL     OW31151  11.667  12.567   1.679
43085SOL    HW131152  11.674  12.527   1.765
43085SOL    HW231153  11.581  12.540   1.646
43086SOL     OW31154  10.988   9.830   6.059
43086SOL    HW131155  10.980   9.862   5.970
43086SOL    HW231156  11.083   9.828   6.075
43087SOL     OW31157   4.193   0.968  10.339
43087SOL    HW131158   4.215   0.894  10.396
43087SOL    HW231159   4.270   0.978  10.283
43088SOL     OW31160  13.274   1.034  10.528
43088SOL    HW131161  13.222   0.953  10.532
43088SOL    HW231162  13.340   1.017  10.461
43089SOL     OW31163   1.186   3.367   8.498
43089SOL    HW131164   1.257   3.394   8.440
43089SOL    HW231165   1.110   3.417   8.468
43090SOL     OW31166  14.160   0.327  12.053
43090SOL    HW131167  14.067   0.303  12.052
43090SOL    HW231168  14.202   0.260  11.999
43091SOL     OW31169   1.695   4.540  13.869
43091SOL    HW131170   1.765   4.482  13.898
43091SOL    HW231171   1.677   4.513  13.779
43092SOL     OW31172   0.016   4.271   7.853
43092SOL    HW131173  14.824   4.290   7.922
43092SOL    HW231174   0.022   4.352   7.803
43093SOL     OW31175  14.238   1.037   3.320
43093SOL    HW131176  14.323   1.062   3.355
43093SOL    HW231177  14.200   0.980   3.388
43094SOL     OW31178  12.642   2.535   7.264
43094SOL    HW131179  12.646   2.607   7.202
43094SOL    HW231180  12.724   2.488   7.251
43095SOL     OW31181   2.121   3.880   3.146
43095SOL    HW131182   2.059   3.811   3.121
43095SOL    HW231183   2.207   3.842   3.133
43096SOL     OW31184   9.004   8.597  11.129
43096SOL    HW131185   8.978   8.661  11.064
43096SOL    HW231186   8.970   8.514  11.096
43097SOL     OW31187   2.958   7.397  13.285
43097SOL    HW131188   2.915   7.457  13.224
43097SOL    HW231189   3.019   7.346  13.230
43098SOL     OW31190   6.635   8.584   9.533
43098SOL    HW131191   6.678   8.653   9.584
43098SOL    HW231192   6.708   8.539   9.489
43099SOL     OW31193  11.781   6.495   3.839
43099SOL    HW131194  11.709   6.439   3.810
43099SOL    HW231195  11.740   6.577   3.864
43100SOL     OW31196   6.551   5.521   5.754
43100SOL    HW131197   6.586   5.610   5.753
43100SOL    HW231198   6.495   5.516   5.677
43101SOL     OW31199  11.274   4.522   6.708
43101SOL    HW131200  11.242   4.439   6.674
43101SOL    HW231201  11.272   4.511   6.803
43102SOL     OW31202   5.643  14.700   1.739
43102SOL    HW131203   5.690  14.667   1.815
43102SOL    HW231204   5.610  14.621   1.694
43103SOL     OW31205   6.746   2.474  13.366
43103SOL    HW131206   6.812   2.509  13.425
43103SOL    HW231207   6.718   2.392  13.407
43104SOL     OW31208   3.445   8.945   5.869
43104SOL    HW131209   3.487   9.019   5.913
43104SOL    HW231210   3.490   8.938   5.786
43105SOL     OW31211  12.748   9.766   4.281
43105SOL    HW131212  12.694   9.727   4.212
43105SOL    HW231213  12.829   9.792   4.236
43106SOL     OW31214   2.923  11.897   4.268
43106SOL    HW131215   2.947  11.833   4.201
43106SOL    HW231216   2.866  11.959   4.222
43107SOL     OW31217   6.468  14.693   0.047
43107SOL    HW131218   6.399  14.629   0.032
43107SOL    HW231219   6.453  14.725   0.136
43108SOL     OW31220  10.430   9.931  10.631
43108SOL    HW131221  10.404   9.853  10.582
43108SOL    HW231222  10.444   9.998  10.564
43109SOL     OW31223   1.336  10.105  10.409
43109SOL    HW131224   1.411  10.149  10.448
43109SOL    HW231225   1.356  10.103  10.315
43110SOL     OW31226   0.583  13.581   1.649
43110SOL    HW131227   0.532  13.592   1.568
43110SOL    HW231228   0.536  13.515   1.699
43111SOL     OW31229  11.753  12.759   0.317
43111SOL    HW131230  11.824  12.745   0.254
43111SOL    HW231231  11.674  12.768   0.263
43112SOL     OW31232   2.754   1.436   4.153
43112SOL    HW131233   2.828   1.449   4.094
43112SOL    HW231234   2.686   1.397   4.098
43113SOL     OW31235   8.179  10.572   9.369
43113SOL    HW131236   8.260  10.621   9.356
43113SOL    HW231237   8.151  10.594   9.458
43114SOL     OW31238   6.643   5.599  12.572
43114SOL    HW131239   6.664   5.532  12.507
43114SOL    HW231240   6.555   5.628  12.549
43115SOL     OW31241   7.687   6.399  10.026
43115SOL    HW131242   7.607   6.377   9.977
43115SOL    HW231243   7.752   6.336   9.995
43116SOL     OW31244   9.485  12.684   8.592
43116SOL    HW131245   9.395  12.698   8.560
43116SOL    HW231246   9.504  12.594   8.568
43117SOL     OW31247   4.819  11.961   2.611
43117SOL    HW131248   4.812  11.900   2.537
43117SOL    HW231249   4.777  11.916   2.684
43118SOL     OW31250  10.402  13.800   1.552
43118SOL    HW131251  10.423  13.798   1.646
43118SOL    HW231252  10.480  13.767   1.509
43119SOL     OW31253  11.030  14.056  12.491
43119SOL    HW131254  11.094  14.014  12.432
43119SOL    HW231255  11.081  14.123  12.537
43120SOL     OW31256   3.868   7.597   5.408
43120SOL    HW131257   3.827   7.569   5.326
43120SOL    HW231258   3.886   7.515   5.455
43121SOL     OW31259   9.665   2.305   4.570
43121SOL    HW131260   9.707   2.281   4.487
43121SOL    HW231261   9.679   2.399   4.578
43122SOL     OW31262   4.532  13.329  14.854
43122SOL    HW131263   4.510  13.242  14.819
43122SOL    HW231264   4.576  13.311   0.065
43123SOL     OW31265   0.598   3.311  13.128
43123SOL    HW131266   0.540   3.343  13.197
43123SOL    HW231267   0.544   3.250  13.077
43124SOL     OW31268   2.147   9.571   6.816
43124SOL    HW131269   2.088   9.497   6.830
43124SOL    HW231270   2.102   9.625   6.751
43125SOL     OW31271   6.368   5.427   3.601
43125SOL    HW131272   6.337   5.361   3.539
43125SOL    HW231273   6.436   5.383   3.652
43126SOL     OW31274   4.106  12.951   9.521
43126SOL    HW131275   4.195  12.953   9.558
43126SOL    HW231276   4.093  13.039   9.487
43127SOL     OW31277   9.065   7.403   2.527
43127SOL    HW131278   9.070   7.475   2.590
43127SOL    HW231279   9.135   7.421   2.465
43128SOL     OW31280   4.095   1.504   2.207
43128SOL    HW131281   4.186   1.527   2.186
43128SOL    HW231282   4.090   1.409   2.194
43129SOL     OW31283   8.301   9.038   4.699
43129SOL    HW131284   8.345   9.101   4.756
43129SOL    HW231285   8.235   9.090   4.653
43130SOL     OW31286  10.427   2.165   6.738
43130SOL    HW131287  10.486   2.090   6.746
43130SOL    HW231288  10.339   2.127   6.739
43131SOL     OW31289   0.380   9.294  14.430
43131SOL    HW131290   0.420   9.331  14.508
43131SOL    HW231291   0.337   9.214  14.461
43132SOL     OW31292   6.144  12.392   1.344
43132SOL    HW131293   6.121  12.322   1.406
43132SOL    HW231294   6.152  12.471   1.398
43133SOL     OW31295  13.495   0.901   9.344
43133SOL    HW131296  13.580   0.905   9.387
43133SOL    HW231297  13.433   0.932   9.411
43134SOL     OW31298  11.242   2.074  14.699
43134SOL    HW131299  11.171   2.024  14.740
43134SOL    HW231300  11.228   2.061  14.605
43135SOL     OW31301   8.430   4.205   6.446
43135SOL    HW131302   8.345   4.249   6.452
43135SOL    HW231303   8.452   4.208   6.353
43136SOL     OW31304   0.856   5.920   3.850
43136SOL    HW131305   0.825   5.923   3.759
43136SOL    HW231306   0.818   5.998   3.891
43137SOL     OW31307   0.165   4.660   1.838
43137SOL    HW131308   0.190   4.568   1.840
43137SOL    HW231309   0.229   4.704   1.893
43138SOL     OW31310   8.290   4.616  12.426
43138SOL    HW131311   8.211   4.581  12.386
43138SOL    HW231312   8.277   4.604  12.520
43139SOL     OW31313   8.823   2.040   5.652
43139SOL    HW131314   8.752   2.101   5.629
43139SOL    HW231315   8.897   2.097   5.673
43140SOL     OW31316   9.077   4.579   9.754
43140SOL    HW131317   9.005   4.640   9.768
43140SOL    HW231318   9.123   4.576   9.838
43141SOL     OW31319   9.366   9.106   9.474
43141SOL    HW131320   9.354   9.197   9.445
43141SOL    HW231321   9.283   9.064   9.454
43142SOL     OW31322  11.525  11.457  13.629
43142SOL    HW131323  11.431  11.455  13.610
43142SOL    HW231324  11.547  11.550  13.633
43143SOL     OW31325   2.192   0.155  14.139
43143SOL    HW131326   2.145   0.239  14.146
43143SOL    HW231327   2.159   0.103  14.212
43144SOL     OW31328  11.090   0.688   2.950
43144SOL    HW131329  11.027   0.755   2.976
43144SOL    HW231330  11.173   0.735   2.942
43145SOL     OW31331  12.458   8.908  12.533
43145SOL    HW131332  12.436   8.823  12.571
43145SOL    HW231333  12.553   8.916  12.547
43146SOL     OW31334   8.762   8.143   3.413
43146SOL    HW131335   8.828   8.210   3.397
43146SOL    HW231336   8.726   8.166   3.499
43147SOL     OW31337   5.900  12.595   2.262
43147SOL    HW131338   5.955  12.618   2.187
43147SOL    HW231339   5.886  12.679   2.307
43148SOL     OW31340   1.432  11.679  10.494
43148SOL    HW131341   1.450  11.598  10.543
43148SOL    HW231342   1.491  11.675  10.419
43149SOL     OW31343   8.539   6.035  12.461
43149SOL    HW131344   8.547   6.026  12.556
43149SOL    HW231345   8.449   6.063  12.447
43150SOL     OW31346   9.413   6.386   7.165
43150SOL    HW131347   9.387   6.471   7.130
43150SOL    HW231348   9.332   6.346   7.195
43151SOL     OW31349   4.374   7.425   9.882
43151SOL    HW131350   4.374   7.338   9.843
43151SOL    HW231351   4.325   7.415   9.964
43152SOL     OW31352   1.021  13.074   0.758
43152SOL    HW131353   1.090  13.050   0.696
43152SOL    HW231354   1.043  13.028   0.839
43153SOL     OW31355   4.252   2.474   1.714
43153SOL    HW131356   4.304   2.437   1.786
43153SOL    HW231357   4.291   2.560   1.699
43154SOL     OW31358  13.625   8.402   2.660
43154SOL    HW131359  13.629   8.461   2.736
43154SOL    HW231360  13.533   8.403   2.634
43155SOL     OW31361  14.026   4.428   6.592
43155SOL    HW131362  14.090   4.435   6.520
43155SOL    HW231363  13.947   4.469   6.557
43156SOL     OW31364   8.261  14.868   1.569
43156SOL    HW131365   8.305   0.079   1.590
43156SOL    HW231366   8.168   0.014   1.581
43157SOL     OW31367   0.597   6.476   0.866
43157SOL    HW131368   0.644   6.393   0.881
43157SOL    HW231369   0.505   6.453   0.881
43158SOL     OW31370   6.124   2.050  14.763
43158SOL    HW131371   6.128   2.011  14.850
43158SOL    HW231372   6.103   1.978  14.704
43159SOL     OW31373   3.602   0.110  10.812
43159SOL    HW131374   3.530   0.112  10.750
43159SOL    HW231375   3.583   0.182  10.873
43160SOL     OW31376   4.120  11.403  10.331
43160SOL    HW131377   4.174  11.345  10.276
43160SOL    HW231378   4.133  11.490  10.293
43161SOL     OW31379   4.303   1.644  12.220
43161SOL    HW131380   4.365   1.711  12.189
43161SOL    HW231381   4.308   1.575  12.154
43162SOL     OW31382   4.243   9.932   2.563
43162SOL    HW131383   4.255   9.920   2.469
43162SOL    HW231384   4.151   9.910   2.578
43163SOL     OW31385   5.071   7.537   4.402
43163SOL    HW131386   5.048   7.496   4.319
43163SOL    HW231387   5.127   7.473   4.446
43164SOL     OW31388   1.649   3.443  11.115
43164SOL    HW131389   1.678   3.445  11.206
43164SOL    HW231390   1.580   3.510  11.110
43165SOL     OW31391  10.796   9.681   9.560
43165SOL    HW131392  10.737   9.739   9.608
43165SOL    HW231393  10.785   9.595   9.601
43166SOL     OW31394   0.469  14.553   6.694
43166SOL    HW131395   0.405  14.582   6.629
43166SOL    HW231396   0.450  14.606   6.771
43167SOL     OW31397  11.395   0.284   4.189
43167SOL    HW131398  11.441   0.293   4.273
43167SOL    HW231399  11.430   0.355   4.136
43168SOL     OW31400  13.461   8.694   6.651
43168SOL    HW131401  13.525   8.759   6.623
43168SOL    HW231402  13.446   8.712   6.743
43169SOL     OW31403  10.176  11.019   7.853
43169SOL    HW131404  10.173  10.948   7.789
43169SOL    HW231405  10.143  11.095   7.806
43170SOL     OW31406  13.151   4.648  12.036
43170SOL    HW131407  13.128   4.697  12.115
43170SOL    HW231408  13.211   4.705  11.989
43171SOL     OW31409   3.753   5.112   0.508
43171SOL    HW131410   3.811   5.170   0.458
43171SOL    HW231411   3.755   5.148   0.597
43172SOL     OW31412  11.764   9.930   1.845
43172SOL    HW131413  11.672   9.957   1.837
43172SOL    HW231414  11.769   9.848   1.796
43173SOL     OW31415   6.006  14.013  13.254
43173SOL    HW131416   6.093  14.014  13.215
43173SOL    HW231417   6.022  14.006  13.348
43174SOL     OW31418   3.874   4.836   5.721
43174SOL    HW131419   3.884   4.788   5.804
43174SOL    HW231420   3.799   4.893   5.736
43175SOL     OW31421   5.774   3.548   8.588
43175SOL    HW131422   5.736   3.565   8.673
43175SOL    HW231423   5.790   3.454   8.586
43176SOL     OW31424   1.102   8.546   4.774
43176SOL    HW131425   1.148   8.586   4.847
43176SOL    HW231426   1.065   8.620   4.725
43177SOL     OW31427  12.778  10.818   9.630
43177SOL    HW131428  12.684  10.834   9.624
43177SOL    HW231429  12.789  10.725   9.610
43178SOL     OW31430   3.147  10.012   0.756
43178SOL    HW131431   3.121  10.088   0.704
43178SOL    HW231432   3.065   9.966   0.775
43179SOL     OW31433  11.774   0.411   3.930
43179SOL    HW131434  11.743   0.333   3.884
43179SOL    HW231435  11.734   0.484   3.884
43180SOL     OW31436  11.286   3.095   5.068
43180SOL    HW131437  11.221   3.146   5.019
43180SOL    HW231438  11.358   3.082   5.007
43181SOL     OW31439   7.324   1.732  13.680
43181SOL    HW131440   7.305   1.780  13.599
43181SOL    HW231441   7.285   1.786  13.750
43182SOL     OW31442   3.884   4.702   2.715
43182SOL    HW131443   3.880   4.770   2.648
43182SOL    HW231444   3.793   4.679   2.732
43183SOL     OW31445   0.639   1.073  10.140
43183SOL    HW131446   0.633   0.978  10.148
43183SOL    HW231447   0.622   1.106  10.228
43184SOL     OW31448   7.537   2.945   2.884
43184SOL    HW131449   7.446   2.919   2.872
43184SOL    HW231450   7.560   2.990   2.802
43185SOL     OW31451   1.765   2.701  13.705
43185SOL    HW131452   1.704   2.773  13.689
43185SOL    HW231453   1.844   2.725  13.657
43186SOL     OW31454  14.003   9.955   0.923
43186SOL    HW131455  13.932  10.018   0.913
43186SOL    HW231456  14.055   9.989   0.996
43187SOL     OW31457   0.641   0.218  14.227
43187SOL    HW131458   0.695   0.292  14.200
43187SOL    HW231459   0.551   0.246  14.210
43188SOL     OW31460   0.713  14.811   0.330
43188SOL    HW131461   0.657   0.012   0.355
43188SOL    HW231462   0.657  14.734   0.337
43189SOL     OW31463   8.487  14.740   7.616
43189SOL    HW131464   8.432  14.807   7.657
43189SOL    HW231465   8.531  14.786   7.544
43190SOL     OW31466  13.567  13.728  11.559
43190SOL    HW131467  13.600  13.798  11.503
43190SOL    HW231468  13.500  13.684  11.505
43191SOL     OW31469  11.123   2.269   6.614
43191SOL    HW131470  11.196   2.249   6.555
43191SOL    HW231471  11.045   2.255   6.560
43192SOL     OW31472   8.190  12.957  14.338
43192SOL    HW131473   8.207  12.896  14.410
43192SOL    HW231474   8.256  12.935  14.272
43193SOL     OW31475   9.020   3.495   1.524
43193SOL    HW131476   9.070   3.570   1.492
43193SOL    HW231477   8.932   3.509   1.488
43194SOL     OW31478  13.289   5.631   6.370
43194SOL    HW131479  13.213   5.612   6.315
43194SOL    HW231480  13.319   5.717   6.342
43195SOL     OW31481  12.886   7.411   5.008
43195SOL    HW131482  12.911   7.369   5.090
43195SOL    HW231483  12.947   7.485   5.000
43196SOL     OW31484   8.234  14.106   4.921
43196SOL    HW131485   8.259  14.026   4.874
43196SOL    HW231486   8.308  14.124   4.979
43197SOL     OW31487   0.381  14.535   3.183
43197SOL    HW131488   0.430  14.511   3.262
43197SOL    HW231489   0.295  14.495   3.196
43198SOL     OW31490   3.612   8.949   4.252
43198SOL    HW131491   3.696   8.985   4.281
43198SOL    HW231492   3.569   9.023   4.208
43199SOL     OW31493  11.128   3.897  12.267
43199SOL    HW131494  11.062   3.961  12.293
43199SOL    HW231495  11.208   3.924  12.314
43200SOL     OW31496   9.285   1.725   8.389
43200SOL    HW131497   9.236   1.733   8.471
43200SOL    HW231498   9.374   1.754   8.411
43201SOL     OW31499   6.809   8.940   6.272
43201SOL    HW131500   6.801   9.014   6.331
43201SOL    HW231501   6.882   8.962   6.214
43202SOL     OW31502  10.795   4.401   3.456
43202SOL    HW131503  10.852   4.362   3.522
43202SOL    HW231504  10.767   4.328   3.401
43203SOL     OW31505   4.067   1.954  14.415
43203SOL    HW131506   4.140   1.942  14.355
43203SOL    HW231507   4.058   1.871  14.461
43204SOL     OW31508   2.837   7.824  11.254
43204SOL    HW131509   2.761   7.785  11.211
43204SOL    HW231510   2.860   7.763  11.324
43205SOL     OW31511   5.198   5.737   8.793
43205SOL    HW131512   5.235   5.806   8.848
43205SOL    HW231513   5.127   5.780   8.745
43206SOL     OW31514   0.760   6.228   6.319
43206SOL    HW131515   0.668   6.256   6.319
43206SOL    HW231516   0.756   6.133   6.314
43207SOL     OW31517   1.692   3.163   4.636
43207SOL    HW131518   1.774   3.139   4.592
43207SOL    HW231519   1.646   3.080   4.648
43208SOL     OW31520  11.767  14.145  13.414
43208SOL    HW131521  11.677  14.176  13.427
43208SOL    HW231522  11.795  14.118  13.502
43209SOL     OW31523   4.058   9.688   1.815
43209SOL    HW131524   4.004   9.625   1.863
43209SOL    HW231525   4.138   9.694   1.867
43210SOL     OW31526   5.079   2.936  13.140
43210SOL    HW131527   5.128   2.937  13.059
43210SOL    HW231528   5.082   2.845  13.170
43211SOL     OW31529   2.192  12.138   5.446
43211SOL    HW131530   2.246  12.177   5.377
43211SOL    HW231531   2.103  12.138   5.410
43212SOL     OW31532   3.019  11.406   9.076
43212SOL    HW131533   3.000  11.410   8.982
43212SOL    HW231534   2.957  11.341   9.110
43213SOL     OW31535  13.449   5.159  11.855
43213SOL    HW131536  13.542   5.158  11.878
43213SOL    HW231537  13.446   5.203  11.770
43214SOL     OW31538   0.068  10.724   3.333
43214SOL    HW131539   0.121  10.710   3.254
43214SOL    HW231540  14.853  10.747   3.300
43215SOL     OW31541   1.285   2.130   7.399
43215SOL    HW131542   1.249   2.218   7.406
43215SOL    HW231543   1.294   2.100   7.489
43216SOL     OW31544   9.417   0.776   0.487
43216SOL    HW131545   9.509   0.801   0.481
43216SOL    HW231546   9.369   0.849   0.449
43217SOL     OW31547   8.560   3.997   2.497
43217SOL    HW131548   8.475   3.952   2.502
43217SOL    HW231549   8.542   4.085   2.530
43218SOL     OW31550   9.638   0.490   3.187
43218SOL    HW131551   9.676   0.567   3.145
43218SOL    HW231552   9.550   0.518   3.212
43219SOL     OW31553  11.463  13.794   9.382
43219SOL    HW131554  11.390  13.811   9.321
43219SOL    HW231555  11.421  13.786   9.468
43220SOL     OW31556  10.149  13.571   5.490
43220SOL    HW131557  10.116  13.495   5.538
43220SOL    HW231558  10.097  13.572   5.409
43221SOL     OW31559  11.553  11.969   5.880
43221SOL    HW131560  11.594  11.883   5.886
43221SOL    HW231561  11.593  12.009   5.803
43222SOL     OW31562  12.537   0.130  11.549
43222SOL    HW131563  12.489   0.205  11.586
43222SOL    HW231564  12.499   0.119  11.462
43223SOL     OW31565   3.735   8.274  11.982
43223SOL    HW131566   3.670   8.287  12.051
43223SOL    HW231567   3.815   8.250  12.028
43224SOL     OW31568  14.626   7.255   1.218
43224SOL    HW131569  14.600   7.224   1.131
43224SOL    HW231570  14.713   7.216   1.232
43225SOL     OW31571   1.371   1.910   3.360
43225SOL    HW131572   1.298   1.870   3.313
43225SOL    HW231573   1.368   1.870   3.447
43226SOL     OW31574   6.439  10.891   7.591
43226SOL    HW131575   6.496  10.837   7.645
43226SOL    HW231576   6.398  10.952   7.653
43227SOL     OW31577   1.150  13.077  10.090
43227SOL    HW131578   1.083  13.145  10.090
43227SOL    HW231579   1.224  13.115  10.042
43228SOL     OW31580  10.632  13.887   5.717
43228SOL    HW131581  10.713  13.855   5.756
43228SOL    HW231582  10.652  13.898   5.624
43229SOL     OW31583   2.018  13.838   5.829
43229SOL    HW131584   2.039  13.859   5.738
43229SOL    HW231585   2.049  13.748   5.841
43230SOL     OW31586  11.959  10.325   3.237
43230SOL    HW131587  11.914  10.316   3.320
43230SOL    HW231588  11.965  10.420   3.223
43231SOL     OW31589  14.097   3.685   2.035
43231SOL    HW131590  14.038   3.676   2.109
43231SOL    HW231591  14.053   3.746   1.976
43232SOL     OW31592   0.600   7.924   9.144
43232SOL    HW131593   0.629   7.851   9.200
43232SOL    HW231594   0.512   7.898   9.115
43233SOL     OW31595   6.912   9.320   6.884
43233SOL    HW131596   6.942   9.381   6.951
43233SOL    HW231597   6.824   9.293   6.913
43234SOL     OW31598   1.863   3.562   2.817
43234SOL    HW131599   1.949   3.603   2.811
43234SOL    HW231600   1.846   3.556   2.911
43235SOL     OW31601   0.273   9.616  14.607
43235SOL    HW131602   0.346   9.672  14.581
43235SOL    HW231603   0.294   9.589  14.696
43236SOL     OW31604   8.718   3.433  10.025
43236SOL    HW131605   8.638   3.441   9.974
43236SOL    HW231606   8.731   3.338  10.035
43237SOL     OW31607  11.774   4.730   0.096
43237SOL    HW131608  11.751   4.643   0.064
43237SOL    HW231609  11.737   4.734   0.184
43238SOL     OW31610   8.031   9.813  13.097
43238SOL    HW131611   8.101   9.869  13.132
43238SOL    HW231612   8.039   9.731  13.146
43239SOL     OW31613   4.059  13.221  14.381
43239SOL    HW131614   4.018  13.256  14.302
43239SOL    HW231615   4.143  13.266  14.386
43240SOL     OW31616   4.181   4.585   7.577
43240SOL    HW131617   4.269   4.603   7.546
43240SOL    HW231618   4.135   4.668   7.569
43241SOL     OW31619   6.580  13.653  10.134
43241SOL    HW131620   6.485  13.659  10.123
43241SOL    HW231621   6.594  13.667  10.227
43242SOL     OW31622   9.234   7.899  14.702
43242SOL    HW131623   9.221   7.924  14.793
43242SOL    HW231624   9.193   7.970  14.652
43243SOL     OW31625   9.229   5.272  14.025
43243SOL    HW131626   9.195   5.320  13.949
43243SOL    HW231627   9.290   5.208  13.988
43244SOL     OW31628  10.476  14.567   2.384
43244SOL    HW131629  10.449  14.586   2.294
43244SOL    HW231630  10.414  14.615   2.439
43245SOL     OW31631   4.704   0.364   0.352
43245SOL    HW131632   4.632   0.405   0.304
43245SOL    HW231633   4.783   0.396   0.308
43246SOL     OW31634   0.646  11.593   1.912
43246SOL    HW131635   0.632  11.639   1.995
43246SOL    HW231636   0.564  11.603   1.864
43247SOL     OW31637   7.768   9.783  10.889
43247SOL    HW131638   7.736   9.738  10.968
43247SOL    HW231639   7.820   9.716  10.844
43248SOL     OW31640   8.039   5.608  11.318
43248SOL    HW131641   8.001   5.679  11.370
43248SOL    HW231642   8.018   5.528  11.367
43249SOL     OW31643   6.828   6.864   4.655
43249SOL    HW131644   6.831   6.929   4.585
43249SOL    HW231645   6.738   6.870   4.689
43250SOL     OW31646   5.910   7.170   0.917
43250SOL    HW131647   5.931   7.164   0.824
43250SOL    HW231648   5.845   7.101   0.931
43251SOL     OW31649  12.369  11.997   0.118
43251SOL    HW131650  12.306  11.982   0.047
43251SOL    HW231651  12.362  11.919   0.173
43252SOL     OW31652   0.719   6.738   6.630
43252SOL    HW131653   0.750   6.653   6.598
43252SOL    HW231654   0.691   6.784   6.551
43253SOL     OW31655   0.564  11.738  10.154
43253SOL    HW131656   0.557  11.664  10.214
43253SOL    HW231657   0.656  11.765  10.161
43254SOL     OW31658  14.368   9.839  10.020
43254SOL    HW131659  14.444   9.868  10.071
43254SOL    HW231660  14.295   9.843  10.082
43255SOL     OW31661   4.902  13.072   0.537
43255SOL    HW131662   4.984  13.059   0.585
43255SOL    HW231663   4.919  13.146   0.480
43256SOL     OW31664  10.365   4.709   2.797
43256SOL    HW131665  10.421   4.638   2.764
43256SOL    HW231666  10.337   4.756   2.719
43257SOL     OW31667  11.989   4.674  14.563
43257SOL    HW131668  12.018   4.677  14.654
43257SOL    HW231669  12.065   4.643  14.514
43258SOL     OW31670  10.940  12.675   2.300
43258SOL    HW131671  10.860  12.706   2.342
43258SOL    HW231672  10.962  12.744   2.237
43259SOL     OW31673   9.254   5.049  11.955
43259SOL    HW131674   9.231   5.030  11.864
43259SOL    HW231675   9.349   5.064  11.953
43260SOL     OW31676   3.848   8.235   0.930
43260SOL    HW131677   3.814   8.220   0.841
43260SOL    HW231678   3.940   8.257   0.917
43261SOL     OW31679   4.581   6.242   0.360
43261SOL    HW131680   4.486   6.237   0.349
43261SOL    HW231681   4.611   6.293   0.285
43262SOL     OW31682  11.182  10.601   3.545
43262SOL    HW131683  11.140  10.522   3.580
43262SOL    HW231684  11.274  10.591   3.569
43263SOL     OW31685  12.284   3.781   2.742
43263SOL    HW131686  12.280   3.823   2.656
43263SOL    HW231687  12.238   3.840   2.801
43264SOL     OW31688  10.329   7.315  12.039
43264SOL    HW131689  10.320   7.343  11.948
43264SOL    HW231690  10.245   7.272  12.059
43265SOL     OW31691   5.164   7.371   7.829
43265SOL    HW131692   5.124   7.391   7.744
43265SOL    HW231693   5.256   7.355   7.808
43266SOL     OW31694  11.728   4.917   5.136
43266SOL    HW131695  11.780   4.996   5.150
43266SOL    HW231696  11.637   4.945   5.144
43267SOL     OW31697   6.249  10.851   1.230
43267SOL    HW131698   6.270  10.922   1.169
43267SOL    HW231699   6.308  10.864   1.303
43268SOL     OW31700   8.140  11.493   8.492
43268SOL    HW131701   8.111  11.565   8.436
43268SOL    HW231702   8.062  11.440   8.505
43269SOL     OW31703   0.978  13.664  11.387
43269SOL    HW131704   0.931  13.652  11.470
43269SOL    HW231705   1.062  13.620  11.401
43270SOL     OW31706   1.784  13.901   9.721
43270SOL    HW131707   1.783  13.918   9.627
43270SOL    HW231708   1.825  13.978   9.759
43271SOL     OW31709   4.283  10.891   2.336
43271SOL    HW131710   4.369  10.931   2.351
43271SOL    HW231711   4.220  10.960   2.359
43272SOL     OW31712   8.680   5.538   8.982
43272SOL    HW131713   8.750   5.480   9.012
43272SOL    HW231714   8.604   5.480   8.972
43273SOL     OW31715   8.346   0.636  11.550
43273SOL    HW131716   8.439   0.655  11.541
43273SOL    HW231717   8.342   0.540  11.556
43274SOL     OW31718   5.401   1.339   1.268
43274SOL    HW131719   5.329   1.353   1.207
43274SOL    HW231720   5.446   1.423   1.273
43275SOL     OW31721  10.249   2.717   8.374
43275SOL    HW131722  10.203   2.672   8.304
43275SOL    HW231723  10.286   2.647   8.428
43276SOL     OW31724   7.347  11.962  13.197
43276SOL    HW131725   7.436  11.998  13.194
43276SOL    HW231726   7.350  11.895  13.265
43277SOL     OW31727   9.271   9.266   6.449
43277SOL    HW131728   9.196   9.239   6.502
43277SOL    HW231729   9.233   9.323   6.382
43278SOL     OW31730  11.994  13.259  10.650
43278SOL    HW131731  11.918  13.213  10.613
43278SOL    HW231732  11.962  13.298  10.731
43279SOL     OW31733   1.184   6.166  10.196
43279SOL    HW131734   1.264   6.142  10.242
43279SOL    HW231735   1.173   6.099  10.128
43280SOL     OW31736  13.110   7.529   8.825
43280SOL    HW131737  13.022   7.516   8.790
43280SOL    HW231738  13.098   7.580   8.904
43281SOL     OW31739   8.234  13.041   1.380
43281SOL    HW131740   8.188  13.079   1.305
43281SOL    HW231741   8.324  13.031   1.350
43282SOL     OW31742   0.988  11.110   8.691
43282SOL    HW131743   1.034  11.083   8.771
43282SOL    HW231744   1.000  11.036   8.631
43283SOL     OW31745   4.392   0.487  11.743
43283SOL    HW131746   4.313   0.434  11.733
43283SOL    HW231747   4.382   0.529  11.828
43284SOL     OW31748   9.873   0.399  12.807
43284SOL    HW131749   9.903   0.431  12.893
43284SOL    HW231750   9.794   0.450  12.789
43285SOL     OW31751   8.561   7.842  11.672
43285SOL    HW131752   8.512   7.781  11.617
43285SOL    HW231753   8.498   7.870  11.738
43286SOL     OW31754  14.030  10.618   8.485
43286SOL    HW131755  14.034  10.530   8.447
43286SOL    HW231756  14.070  10.674   8.418
43287SOL     OW31757   3.546  10.335  12.724
43287SOL    HW131758   3.622  10.392  12.713
43287SOL    HW231759   3.480  10.372  12.665
43288SOL     OW31760  11.528   3.150   9.318
43288SOL    HW131761  11.521   3.236   9.359
43288SOL    HW231762  11.562   3.168   9.230
43289SOL     OW31763   6.912   8.465   1.145
43289SOL    HW131764   7.001   8.484   1.115
43289SOL    HW231765   6.881   8.547   1.184
43290SOL     OW31766   8.764   7.799   7.044
43290SOL    HW131767   8.752   7.705   7.060
43290SOL    HW231768   8.758   7.808   6.949
43291SOL     OW31769   3.084   2.299   9.642
43291SOL    HW131770   3.109   2.332   9.556
43291SOL    HW231771   3.153   2.331   9.701
43292SOL     OW31772   1.859   8.942   3.452
43292SOL    HW131773   1.893   8.852   3.453
43292SOL    HW231774   1.909   8.985   3.382
43293SOL     OW31775  12.742  12.863  14.690
43293SOL    HW131776  12.819  12.891  14.739
43293SOL    HW231777  12.740  12.920  14.613
43294SOL     OW31778  12.040   7.983  10.771
43294SOL    HW131779  12.115   8.015  10.822
43294SOL    HW231780  12.076   7.912  10.718
43295SOL     OW31781   9.604   8.918   5.861
43295SOL    HW131782   9.553   8.924   5.781
43295SOL    HW231783   9.571   8.840   5.905
43296SOL     OW31784   5.615   3.784   3.402
43296SOL    HW131785   5.553   3.722   3.363
43296SOL    HW231786   5.701   3.751   3.377
43297SOL     OW31787   0.164   7.451   9.682
43297SOL    HW131788   0.080   7.411   9.661
43297SOL    HW231789   0.218   7.378   9.713
43298SOL     OW31790   1.920  12.742   3.636
43298SOL    HW131791   1.870  12.755   3.555
43298SOL    HW231792   1.855  12.717   3.701
43299SOL     OW31793  13.723   4.234   9.705
43299SOL    HW131794  13.749   4.323   9.729
43299SOL    HW231795  13.653   4.246   9.641
43300SOL     OW31796   9.302   7.745   0.288
43300SOL    HW131797   9.227   7.754   0.347
43300SOL    HW231798   9.354   7.674   0.326
43301SOL     OW31799   1.661   1.538   8.650
43301SOL    HW131800   1.612   1.621   8.644
43301SOL    HW231801   1.753   1.565   8.652
43302SOL     OW31802   7.488  11.745  14.858
43302SOL    HW131803   7.569  11.695  14.849
43302SOL    HW231804   7.439  11.700   0.055
43303SOL     OW31805   5.784  12.201   2.975
43303SOL    HW131806   5.866  12.161   3.003
43303SOL    HW231807   5.778  12.282   3.027
43304SOL     OW31808   4.515  12.948   4.810
43304SOL    HW131809   4.446  12.963   4.874
43304SOL    HW231810   4.474  12.965   4.725
43305SOL     OW31811   9.853   4.370   5.497
43305SOL    HW131812   9.761   4.371   5.524
43305SOL    HW231813   9.850   4.355   5.403
43306SOL     OW31814  13.483  11.434   2.428
43306SOL    HW131815  13.456  11.473   2.345
43306SOL    HW231816  13.540  11.499   2.468
43307SOL     OW31817  10.763   8.471   1.675
43307SOL    HW131818  10.808   8.449   1.756
43307SOL    HW231819  10.761   8.567   1.673
43308SOL     OW31820   1.627   1.499   0.633
43308SOL    HW131821   1.542   1.470   0.598
43308SOL    HW231822   1.630   1.462   0.721
43309SOL     OW31823   2.059  10.775  10.065
43309SOL    HW131824   1.968  10.763  10.039
43309SOL    HW231825   2.095  10.835  10.000
43310SOL     OW31826   9.780   2.647   6.259
43310SOL    HW131827   9.849   2.586   6.232
43310SOL    HW231828   9.712   2.637   6.193
43311SOL     OW31829  14.764   6.762   8.861
43311SOL    HW131830  14.744   6.856   8.866
43311SOL    HW231831  14.819   6.746   8.938
43312SOL     OW31832  13.761  10.591   6.513
43312SOL    HW131833  13.828  10.552   6.458
43312SOL    HW231834  13.679  10.578   6.465
43313SOL     OW31835  12.459   2.900  11.505
43313SOL    HW131836  12.366   2.922  11.502
43313SOL    HW231837  12.472   2.862  11.592
43314SOL     OW31838  10.413   6.907   3.583
43314SOL    HW131839  10.389   6.957   3.505
43314SOL    HW231840  10.497   6.943   3.610
43315SOL     OW31841   8.353  14.784   1.315
43315SOL    HW131842   8.303  14.702   1.313
43315SOL    HW231843   8.330  14.824   1.399
43316SOL     OW31844  11.656   6.170   0.071
43316SOL    HW131845  11.712   6.151  14.868
43316SOL    HW231846  11.568   6.176   0.034
43317SOL     OW31847  10.413   4.150   0.691
43317SOL    HW131848  10.452   4.160   0.604
43317SOL    HW231849  10.424   4.236   0.732
43318SOL     OW31850   6.744   5.090   9.612
43318SOL    HW131851   6.701   5.175   9.602
43318SOL    HW231852   6.674   5.026   9.599
43319SOL     OW31853  12.002   6.909   2.278
43319SOL    HW131854  11.992   6.830   2.331
43319SOL    HW231855  12.091   6.938   2.296
43320SOL     OW31856   1.646  10.931   8.236
43320SOL    HW131857   1.715  10.965   8.179
43320SOL    HW231858   1.608  11.009   8.277
43321SOL     OW31859   9.357  11.805   5.366
43321SOL    HW131860   9.423  11.787   5.298
43321SOL    HW231861   9.326  11.718   5.393
43322SOL     OW31862   4.280   7.614   5.202
43322SOL    HW131863   4.216   7.684   5.191
43322SOL    HW231864   4.302   7.587   5.112
43323SOL     OW31865   9.166   5.907   0.536
43323SOL    HW131866   9.261   5.904   0.552
43323SOL    HW231867   9.150   5.835   0.475
43324SOL     OW31868  10.008  12.768   9.734
43324SOL    HW131869   9.916  12.775   9.758
43324SOL    HW231870  10.037  12.686   9.775
43325SOL     OW31871   1.036   8.277   6.366
43325SOL    HW131872   1.010   8.314   6.451
43325SOL    HW231873   0.956   8.237   6.332
43326SOL     OW31874  14.550   6.252   8.310
43326SOL    HW131875  14.613   6.315   8.275
43326SOL    HW231876  14.508   6.298   8.382
43327SOL     OW31877  14.449   7.791   8.483
43327SOL    HW131878  14.478   7.820   8.396
43327SOL    HW231879  14.521   7.736   8.515
43328SOL     OW31880   2.989   5.361   8.825
43328SOL    HW131881   2.973   5.363   8.919
43328SOL    HW231882   2.917   5.411   8.787
43329SOL     OW31883   5.829  11.066   5.036
43329SOL    HW131884   5.793  11.125   4.970
43329SOL    HW231885   5.887  11.121   5.088
43330SOL     OW31886  11.989  13.562  14.445
43330SOL    HW131887  12.055  13.579  14.377
43330SOL    HW231888  12.027  13.599  14.525
43331SOL     OW31889   5.253   0.671   2.684
43331SOL    HW131890   5.327   0.728   2.707
43331SOL    HW231891   5.286   0.615   2.614
43332SOL     OW31892  14.770   1.439   4.148
43332SOL    HW131893  14.854   1.394   4.154
43332SOL    HW231894  14.791   1.531   4.161
43333SOL     OW31895   3.131  11.208   4.095
43333SOL    HW131896   3.182  11.233   4.018
43333SOL    HW231897   3.187  11.232   4.169
43334SOL     OW31898  12.246   9.384   7.470
43334SOL    HW131899  12.337   9.358   7.482
43334SOL    HW231900  12.243   9.420   7.381
43335SOL     OW31901   3.923  14.586   8.836
43335SOL    HW131902   3.970  14.550   8.761
43335SOL    HW231903   3.885  14.511   8.880
43336SOL     OW31904   6.610   6.832   4.473
43336SOL    HW131905   6.627   6.847   4.380
43336SOL    HW231906   6.553   6.905   4.498
43337SOL     OW31907  13.896   2.825   8.620
43337SOL    HW131908  13.846   2.858   8.545
43337SOL    HW231909  13.886   2.893   8.687
43338SOL     OW31910   2.049  13.100  11.238
43338SOL    HW131911   2.037  13.191  11.263
43338SOL    HW231912   2.143  13.092  11.220
43339SOL     OW31913   2.901   7.654   7.974
43339SOL    HW131914   2.812   7.621   7.987
43339SOL    HW231915   2.897   7.703   7.892
43340SOL     OW31916   3.831   3.266   3.065
43340SOL    HW131917   3.839   3.181   3.108
43340SOL    HW231918   3.750   3.261   3.015
43341SOL     OW31919   2.364   0.589  14.179
43341SOL    HW131920   2.414   0.508  14.183
43341SOL    HW231921   2.416   0.648  14.125
43342SOL     OW31922   3.537   5.246   3.024
43342SOL    HW131923   3.513   5.172   2.968
43342SOL    HW231924   3.617   5.218   3.069
43343SOL     OW31925  14.434   6.368  10.878
43343SOL    HW131926  14.470   6.326  10.956
43343SOL    HW231927  14.341   6.381  10.898
43344SOL     OW31928   5.607  12.110   9.257
43344SOL    HW131929   5.683  12.062   9.226
43344SOL    HW231930   5.619  12.115   9.352
43345SOL     OW31931   5.165  10.200  11.779
43345SOL    HW131932   5.229  10.243  11.836
43345SOL    HW231933   5.102  10.160  11.839
43346SOL     OW31934   1.507   5.502   4.492
43346SOL    HW131935   1.567   5.558   4.543
43346SOL    HW231936   1.489   5.552   4.413
43347SOL     OW31937   9.482   9.518   9.824
43347SOL    HW131938   9.389   9.534   9.809
43347SOL    HW231939   9.517   9.497   9.737
43348SOL     OW31940  11.003   3.578   1.517
43348SOL    HW131941  11.029   3.670   1.518
43348SOL    HW231942  10.941   3.570   1.589
43349SOL     OW31943   1.201   5.140   8.285
43349SOL    HW131944   1.269   5.077   8.309
43349SOL    HW231945   1.239   5.225   8.304
43350SOL     OW31946  14.004   4.118   6.143
43350SOL    HW131947  13.999   4.130   6.238
43350SOL    HW231948  14.024   4.206   6.110
43351SOL     OW31949   9.020   2.359  10.877
43351SOL    HW131950   9.090   2.305  10.912
43351SOL    HW231951   9.056   2.396  10.796
43352SOL     OW31952  14.160   9.304   2.371
43352SOL    HW131953  14.129   9.270   2.287
43352SOL    HW231954  14.170   9.398   2.357
43353SOL     OW31955   8.914  10.013   2.763
43353SOL    HW131956   8.893  10.056   2.845
43353SOL    HW231957   8.984  10.067   2.725
43354SOL     OW31958  11.750   0.228   1.674
43354SOL    HW131959  11.795   0.144   1.671
43354SOL    HW231960  11.675   0.217   1.616
43355SOL     OW31961  12.981   6.687  11.879
43355SOL    HW131962  13.050   6.644  11.829
43355SOL    HW231963  12.900   6.656  11.839
43356SOL     OW31964  13.266   2.988   7.879
43356SOL    HW131965  13.240   3.068   7.925
43356SOL    HW231966  13.204   2.980   7.807
43357SOL     OW31967   5.635   8.430   4.806
43357SOL    HW131968   5.616   8.452   4.897
43357SOL    HW231969   5.624   8.513   4.759
43358SOL     OW31970   0.955   1.533   5.675
43358SOL    HW131971   0.873   1.514   5.629
43358SOL    HW231972   1.005   1.452   5.669
43359SOL     OW31973   0.940   4.613  11.367
43359SOL    HW131974   0.922   4.558  11.291
43359SOL    HW231975   1.034   4.603  11.382
43360SOL     OW31976  10.119   8.865  10.828
43360SOL    HW131977  10.158   8.858  10.740
43360SOL    HW231978  10.043   8.806  10.825
43361SOL     OW31979  13.717  12.234   0.896
43361SOL    HW131980  13.666  12.306   0.933
43361SOL    HW231981  13.747  12.184   0.972
43362SOL     OW31982  10.281  14.149   6.619
43362SOL    HW131983  10.328  14.072   6.586
43362SOL    HW231984  10.191  14.136   6.590
43363SOL     OW31985   4.507   1.561   3.003
43363SOL    HW131986   4.419   1.528   3.023
43363SOL    HW231987   4.566   1.493   3.037
43364SOL     OW31988  12.954  13.572   6.717
43364SOL    HW131989  13.034  13.522   6.734
43364SOL    HW231990  12.983  13.662   6.707
43365SOL     OW31991   2.715   1.853   4.256
43365SOL    HW131992   2.734   1.932   4.308
43365SOL    HW231993   2.793   1.840   4.202
43366SOL     OW31994   0.863   7.388   4.999
43366SOL    HW131995   0.867   7.375   4.904
43366SOL    HW231996   0.897   7.476   5.012
43367SOL     OW31997   4.324  14.419  14.816
43367SOL    HW131998   4.338  14.511  14.792
43367SOL    HW231999   4.237  14.399  14.781
43368SOL     OW32000   4.374   7.463   1.092
43368SOL    HW132001   4.397   7.395   1.155
43368SOL    HW232002   4.307   7.423   1.036
43369SOL     OW32003   8.818   1.728   8.878
43369SOL    HW132004   8.911   1.749   8.864
43369SOL    HW232005   8.794   1.776   8.957
43370SOL     OW32006  13.512  13.483  11.056
43370SOL    HW132007  13.553  13.512  11.137
43370SOL    HW232008  13.436  13.540  11.046
43371SOL     OW32009   7.604   6.754  14.711
43371SOL    HW132010   7.687   6.738  14.668
43371SOL    HW232011   7.572   6.835  14.672
43372SOL     OW32012   7.786   6.133   8.555
43372SOL    HW132013   7.856   6.131   8.620
43372SOL    HW232014   7.720   6.072   8.588
43373SOL     OW32015   7.230   2.985   2.896
43373SOL    HW132016   7.222   2.941   2.981
43373SOL    HW232017   7.155   3.045   2.894
43374SOL     OW32018   4.217  14.128  10.511
43374SOL    HW132019   4.269  14.162  10.584
43374SOL    HW232020   4.128  14.120  10.547
43375SOL     OW32021   3.188   0.574  10.561
43375SOL    HW132022   3.227   0.489  10.544
43375SOL    HW232023   3.252   0.619  10.618
43376SOL     OW32024  12.934   3.287   0.704
43376SOL    HW132025  12.875   3.356   0.735
43376SOL    HW232026  12.949   3.232   0.781
43377SOL     OW32027  14.738   1.589  11.183
43377SOL    HW132028  14.644   1.577  11.170
43377SOL    HW232029  14.745   1.666  11.239
43378SOL     OW32030   0.022   7.790  12.038
43378SOL    HW132031   0.010   7.801  12.132
43378SOL    HW232032  14.811   7.751  12.008
43379SOL     OW32033  11.549   1.055   2.095
43379SOL    HW132034  11.627   1.043   2.040
43379SOL    HW232035  11.496   0.977   2.079
43380SOL     OW32036  12.312   3.766   9.620
43380SOL    HW132037  12.273   3.761   9.533
43380SOL    HW232038  12.344   3.678   9.638
43381SOL     OW32039   3.266  14.419  12.226
43381SOL    HW132040   3.347  14.440  12.179
43381SOL    HW232041   3.262  14.323  12.223
43382SOL     OW32042   9.439   0.417   5.884
43382SOL    HW132043   9.389   0.399   5.804
43382SOL    HW232044   9.483   0.335   5.904
43383SOL     OW32045   2.180   5.118   8.029
43383SOL    HW132046   2.190   5.091   7.937
43383SOL    HW232047   2.254   5.078   8.074
43384SOL     OW32048   2.221  10.320  12.056
43384SOL    HW132049   2.180  10.235  12.047
43384SOL    HW232050   2.152  10.383  12.034
43385SOL     OW32051  10.976   7.998   1.758
43385SOL    HW132052  10.905   8.051   1.792
43385SOL    HW232053  11.054   8.053   1.767
43386SOL     OW32054   0.024   9.456   6.166
43386SOL    HW132055  14.850   9.539   6.153
43386SOL    HW232056   0.068   9.465   6.250
43387SOL     OW32057   1.973  11.549  10.088
43387SOL    HW132058   1.940  11.527  10.174
43387SOL    HW232059   2.062  11.514  10.087
43388SOL     OW32060   0.064   5.684   0.447
43388SOL    HW132061   0.065   5.767   0.494
43388SOL    HW232062   0.094   5.705   0.358
43389SOL     OW32063   3.187   2.875   6.836
43389SOL    HW132064   3.175   2.928   6.758
43389SOL    HW232065   3.105   2.826   6.844
43390SOL     OW32066   6.121  10.826   0.056
43390SOL    HW132067   6.061  10.758   0.024
43390SOL    HW232068   6.151  10.794   0.141
43391SOL     OW32069   4.203   2.939   8.084
43391SOL    HW132070   4.214   3.014   8.025
43391SOL    HW232071   4.265   2.874   8.051
43392SOL     OW32072  10.246   7.772   3.907
43392SOL    HW132073  10.220   7.863   3.921
43392SOL    HW232074  10.279   7.743   3.992
43393SOL     OW32075  11.720  14.034   0.942
43393SOL    HW132076  11.784  14.043   0.872
43393SOL    HW232077  11.670  13.955   0.919
43394SOL     OW32078   9.580   9.462   9.549
43394SOL    HW132079   9.607   9.382   9.504
43394SOL    HW232080   9.619   9.533   9.499
43395SOL     OW32081   7.699   8.327  11.238
43395SOL    HW132082   7.712   8.343  11.332
43395SOL    HW232083   7.615   8.368  11.218
43396SOL     OW32084   5.911   6.269   8.033
43396SOL    HW132085   6.002   6.296   8.023
43396SOL    HW232086   5.873   6.282   7.946
43397SOL     OW32087   5.745   2.320   1.366
43397SOL    HW132088   5.815   2.384   1.357
43397SOL    HW232089   5.702   2.319   1.280
43398SOL     OW32090   5.393   8.978  12.363
43398SOL    HW132091   5.328   9.042  12.335
43398SOL    HW232092   5.448   8.963  12.286
43399SOL     OW32093  12.612   3.726   9.520
43399SOL    HW132094  12.523   3.750   9.493
43399SOL    HW232095  12.668   3.788   9.473
43400SOL     OW32096   5.366   9.401  14.381
43400SOL    HW132097   5.454   9.411  14.419
43400SOL    HW232098   5.367   9.314  14.342
43401SOL     OW32099  10.119   1.125  14.507
43401SOL    HW132100  10.060   1.179  14.560
43401SOL    HW232101  10.181   1.187  14.470
43402SOL     OW32102   9.046   4.349   0.609
43402SOL    HW132103   9.097   4.430   0.601
43402SOL    HW232104   9.014   4.333   0.520
43403SOL     OW32105   5.356  10.869  13.138
43403SOL    HW132106   5.355  10.775  13.156
43403SOL    HW232107   5.447  10.895  13.155
43404SOL     OW32108   9.706   8.180   7.182
43404SOL    HW132109   9.741   8.223   7.104
43404SOL    HW232110   9.618   8.216   7.192
43405SOL     OW32111   7.259  10.469   4.474
43405SOL    HW132112   7.231  10.560   4.469
43405SOL    HW232113   7.261  10.449   4.568
43406SOL     OW32114   4.266   3.591  12.992
43406SOL    HW132115   4.217   3.671  13.009
43406SOL    HW232116   4.200   3.529  12.960
43407SOL     OW32117   9.532   6.031   6.191
43407SOL    HW132118   9.522   6.091   6.116
43407SOL    HW232119   9.475   6.068   6.258
43408SOL     OW32120  10.684   5.962   5.364
43408SOL    HW132121  10.667   5.906   5.440
43408SOL    HW232122  10.744   5.911   5.310
43409SOL     OW32123   7.999   1.224   2.133
43409SOL    HW132124   7.971   1.158   2.196
43409SOL    HW232125   7.998   1.179   2.049
43410SOL     OW32126   4.093  10.413   5.607
43410SOL    HW132127   4.112  10.323   5.632
43410SOL    HW232128   4.004  10.410   5.573
43411SOL     OW32129   3.016  11.647   0.386
43411SOL    HW132130   3.014  11.700   0.465
43411SOL    HW232131   3.083  11.689   0.331
43412SOL     OW32132   7.362  13.327   4.418
43412SOL    HW132133   7.432  13.378   4.459
43412SOL    HW232134   7.308  13.298   4.492
43413SOL     OW32135  13.973   6.952   1.370
43413SOL    HW132136  14.046   6.958   1.308
43413SOL    HW232137  13.898   6.925   1.316
43414SOL     OW32138  13.901   5.981   9.994
43414SOL    HW132139  13.962   5.908  10.005
43414SOL    HW232140  13.900   5.998   9.900
43415SOL     OW32141   3.377   9.275   6.651
43415SOL    HW132142   3.414   9.191   6.678
43415SOL    HW232143   3.355   9.319   6.733
43416SOL     OW32144  11.051  14.115  10.547
43416SOL    HW132145  11.066  14.158  10.463
43416SOL    HW232146  10.974  14.060  10.533
43417SOL     OW32147   3.997   6.031   9.951
43417SOL    HW132148   3.925   6.087   9.923
43417SOL    HW232149   3.967   5.993  10.033
43418SOL     OW32150   9.213   7.108   7.426
43418SOL    HW132151   9.150   7.177   7.406
43418SOL    HW232152   9.247   7.081   7.341
43419SOL     OW32153  12.345   5.559   6.253
43419SOL    HW132154  12.336   5.499   6.179
43419SOL    HW232155  12.401   5.629   6.220
43420SOL     OW32156   3.901  14.218   4.225
43420SOL    HW132157   3.825  14.271   4.250
43420SOL    HW232158   3.974  14.279   4.223
43421SOL     OW32159  11.047  14.387   7.800
43421SOL    HW132160  11.024  14.478   7.784
43421SOL    HW232161  10.979  14.337   7.755
43422SOL     OW32162   8.311   3.135   0.561
43422SOL    HW132163   8.254   3.059   0.574
43422SOL    HW232164   8.382   3.103   0.507
43423SOL     OW32165  11.963   5.510   0.029
43423SOL    HW132166  12.057   5.528   0.038
43423SOL    HW232167  11.924   5.548   0.107
43424SOL     OW32168   2.099   1.186   4.475
43424SOL    HW132169   2.111   1.102   4.520
43424SOL    HW232170   2.125   1.252   4.540
43425SOL     OW32171  13.408   2.903   0.728
43425SOL    HW132172  13.348   2.930   0.798
43425SOL    HW232173  13.495   2.919   0.765
43426SOL     OW32174   2.772   5.580  13.711
43426SOL    HW132175   2.715   5.506  13.733
43426SOL    HW232176   2.713   5.646  13.676
43427SOL     OW32177   2.766  11.747   5.473
43427SOL    HW132178   2.721  11.790   5.545
43427SOL    HW232179   2.768  11.813   5.403
43428SOL     OW32180   3.433  14.061  10.551
43428SOL    HW132181   3.340  14.064  10.573
43428SOL    HW232182   3.473  14.010  10.621
43429SOL     OW32183   2.253   2.486   9.482
43429SOL    HW132184   2.298   2.496   9.398
43429SOL    HW232185   2.194   2.562   9.486
43430SOL     OW32186  12.124   0.138  10.193
43430SOL    HW132187  12.174   0.143  10.274
43430SOL    HW232188  12.118   0.045  10.173
43431SOL     OW32189   2.561  14.837   8.562
43431SOL    HW132190   2.483  14.841   8.618
43431SOL    HW232191   2.620  14.777   8.608
43432SOL     OW32192   7.894  13.494  14.773
43432SOL    HW132193   7.952  13.489  14.849
43432SOL    HW232194   7.837  13.418  14.781
43433SOL     OW32195   7.280   4.457   6.902
43433SOL    HW132196   7.301   4.516   6.829
43433SOL    HW232197   7.365   4.427   6.934
43434SOL     OW32198  12.234   4.130  14.582
43434SOL    HW132199  12.303   4.153  14.644
43434SOL    HW232200  12.198   4.214  14.554
43435SOL     OW32201   9.464  11.297   4.005
43435SOL    HW132202   9.544  11.347   4.026
43435SOL    HW232203   9.418  11.291   4.088
43436SOL     OW32204   4.313   4.069  11.020
43436SOL    HW132205   4.341   3.991  10.973
43436SOL    HW232206   4.368   4.072  11.098
43437SOL     OW32207   9.834   2.718  12.797
43437SOL    HW132208   9.801   2.740  12.883
43437SOL    HW232209   9.828   2.800  12.747
43438SOL     OW32210   0.695  14.825  12.034
43438SOL    HW132211   0.640   0.016  12.081
43438SOL    HW232212   0.636  14.786  11.970
43439SOL     OW32213   9.452   9.952   0.280
43439SOL    HW132214   9.491  10.013   0.343
43439SOL    HW232215   9.510   9.876   0.281
43440SOL     OW32216   9.299   4.808   3.328
43440SOL    HW132217   9.260   4.879   3.277
43440SOL    HW232218   9.348   4.853   3.397
43441SOL     OW32219   3.115   4.740   8.476
43441SOL    HW132220   3.093   4.755   8.384
43441SOL    HW232221   3.211   4.749   8.479
43442SOL     OW32222   8.892  10.216   2.381
43442SOL    HW132223   8.929  10.142   2.429
43442SOL    HW232224   8.947  10.290   2.405
43443SOL     OW32225   5.762  12.752   1.012
43443SOL    HW132226   5.789  12.671   1.055
43443SOL    HW232227   5.776  12.736   0.919
43444SOL     OW32228   4.397   0.696   1.185
43444SOL    HW132229   4.393   0.673   1.092
43444SOL    HW232230   4.360   0.620   1.230
43445SOL     OW32231   8.378   9.236   2.359
43445SOL    HW132232   8.337   9.320   2.339
43445SOL    HW232233   8.368   9.185   2.279
43446SOL     OW32234   4.382  12.722  11.133
43446SOL    HW132235   4.424  12.654  11.187
43446SOL    HW232236   4.298  12.737  11.176
43447SOL     OW32237   6.440   6.194   3.459
43447SOL    HW132238   6.514   6.250   3.432
43447SOL    HW232239   6.425   6.137   3.383
43448SOL     OW32240   7.859   3.124  12.677
43448SOL    HW132241   7.837   3.102  12.768
43448SOL    HW232242   7.822   3.052  12.626
43449SOL     OW32243   8.332   9.064  10.861
43449SOL    HW132244   8.295   9.119  10.792
43449SOL    HW232245   8.376   9.125  10.920
43450SOL     OW32246   9.469  11.485  12.859
43450SOL    HW132247   9.427  11.514  12.778
43450SOL    HW232248   9.431  11.398  12.876
43451SOL     OW32249  13.840   5.679   9.912
43451SOL    HW132250  13.921   5.723   9.887
43451SOL    HW232251  13.832   5.606   9.850
43452SOL     OW32252   1.726  12.189   8.214
43452SOL    HW132253   1.639  12.167   8.181
43452SOL    HW232254   1.739  12.128   8.287
43453SOL     OW32255   7.141  14.607  14.798
43453SOL    HW132256   7.148  14.699  14.771
43453SOL    HW232257   7.158  14.609   0.021
43454SOL     OW32258   4.548   7.367  10.138
43454SOL    HW132259   4.595   7.327  10.211
43454SOL    HW232260   4.456   7.354  10.158
43455SOL     OW32261   0.562   3.530  13.539
43455SOL    HW132262   0.615   3.587  13.484
43455SOL    HW232263   0.625   3.488  13.599
43456SOL     OW32264   3.569   3.517   2.255
43456SOL    HW132265   3.586   3.487   2.345
43456SOL    HW232266   3.535   3.605   2.265
43457SOL     OW32267  14.242   9.200  14.130
43457SOL    HW132268  14.170   9.232  14.184
43457SOL    HW232269  14.278   9.279  14.089
43458SOL     OW32270   6.524  11.283  10.286
43458SOL    HW132271   6.451  11.343  10.298
43458SOL    HW232272   6.483  11.198  10.269
43459SOL     OW32273   5.571  12.225   8.221
43459SOL    HW132274   5.575  12.144   8.170
43459SOL    HW232275   5.483  12.225   8.259
43460SOL     OW32276   5.791   4.554   9.901
43460SOL    HW132277   5.822   4.644   9.904
43460SOL    HW232278   5.697   4.561   9.888
43461SOL     OW32279   5.239  11.869   7.808
43461SOL    HW132280   5.166  11.920   7.843
43461SOL    HW232281   5.221  11.779   7.838
43462SOL     OW32282  10.433  13.856   4.999
43462SOL    HW132283  10.373  13.801   5.049
43462SOL    HW232284  10.407  13.844   4.908
43463SOL     OW32285   5.273   2.206   2.081
43463SOL    HW132286   5.329   2.284   2.082
43463SOL    HW232287   5.329   2.136   2.048
43464SOL     OW32288   9.436   7.269  12.698
43464SOL    HW132289   9.371   7.229  12.641
43464SOL    HW232290   9.424   7.363  12.686
43465SOL     OW32291  12.616  14.402  12.983
43465SOL    HW132292  12.702  14.444  12.976
43465SOL    HW232293  12.630  14.313  12.950
43466SOL     OW32294   4.589  14.731  10.084
43466SOL    HW132295   4.562  14.822  10.086
43466SOL    HW232296   4.642  14.723  10.004
43467SOL     OW32297   5.503  12.166  14.058
43467SOL    HW132298   5.500  12.237  14.122
43467SOL    HW232299   5.448  12.097  14.096
43468SOL     OW32300  14.786   3.231   8.894
43468SOL    HW132301  14.779   3.136   8.903
43468SOL    HW232302  14.766   3.247   8.801
43469SOL     OW32303   5.050  12.692   7.060
43469SOL    HW132304   5.136  12.734   7.058
43469SOL    HW232305   5.039  12.656   6.972
43470SOL     OW32306   3.839   1.833  14.681
43470SOL    HW132307   3.754   1.821  14.724
43470SOL    HW232308   3.901   1.844  14.753
43471SOL     OW32309   8.661   2.813  13.772
43471SOL    HW132310   8.595   2.867  13.815
43471SOL    HW232311   8.734   2.811  13.834
43472SOL     OW32312   6.833   9.549  13.977
43472SOL    HW132313   6.843   9.641  14.001
43472SOL    HW232314   6.743   9.542  13.945
43473SOL     OW32315  13.057   9.685   7.526
43473SOL    HW132316  13.032   9.736   7.603
43473SOL    HW232317  13.080   9.750   7.460
43474SOL     OW32318  12.489  13.426  13.506
43474SOL    HW132319  12.540  13.487  13.453
43474SOL    HW232320  12.506  13.453  13.596
43475SOL     OW32321   2.670   2.625   2.074
43475SOL    HW132322   2.703   2.629   2.164
43475SOL    HW232323   2.581   2.590   2.084
43476SOL     OW32324   8.496   9.035   9.132
43476SOL    HW132325   8.415   9.086   9.138
43476SOL    HW232326   8.551   9.086   9.072
43477SOL     OW32327  14.324   0.873  13.984
43477SOL    HW132328  14.329   0.945  14.047
43477SOL    HW232329  14.252   0.897  13.926
43478SOL     OW32330   3.017  14.516   8.441
43478SOL    HW132331   3.046  14.586   8.383
43478SOL    HW232332   2.924  14.532   8.453
43479SOL     OW32333   5.972  14.266  13.309
43479SOL    HW132334   5.958  14.175  13.286
43479SOL    HW232335   6.021  14.303  13.235
43480SOL     OW32336   2.926   5.967   2.683
43480SOL    HW132337   3.001   5.924   2.724
43480SOL    HW232338   2.961   6.051   2.653
43481SOL     OW32339   9.790   7.623   7.297
43481SOL    HW132340   9.831   7.558   7.354
43481SOL    HW232341   9.805   7.707   7.342
43482SOL     OW32342  10.374   4.824  10.992
43482SOL    HW132343  10.378   4.854  10.901
43482SOL    HW232344  10.358   4.903  11.043
43483SOL     OW32345   4.520  13.036   3.744
43483SOL    HW132346   4.564  12.962   3.701
43483SOL    HW232347   4.586  13.105   3.746
43484SOL     OW32348  10.361   9.354   6.571
43484SOL    HW132349  10.426   9.287   6.594
43484SOL    HW232350  10.279   9.319   6.604
43485SOL     OW32351   2.017   0.802   0.171
43485SOL    HW132352   2.033   0.843   0.086
43485SOL    HW232353   1.935   0.755   0.160
43486SOL     OW32354   8.240   0.298   1.624
43486SOL    HW132355   8.145   0.310   1.626
43486SOL    HW232356   8.269   0.321   1.712
43487SOL     OW32357   9.319  12.002   4.424
43487SOL    HW132358   9.239  12.052   4.443
43487SOL    HW232359   9.290  11.932   4.365
43488SOL     OW32360   5.450  10.116   5.316
43488SOL    HW132361   5.357  10.130   5.333
43488SOL    HW232362   5.466  10.026   5.345
43489SOL     OW32363   3.243   4.675  13.709
43489SOL    HW132364   3.298   4.603  13.740
43489SOL    HW232365   3.155   4.652  13.741
43490SOL     OW32366   7.357   8.710  14.391
43490SOL    HW132367   7.346   8.733  14.299
43490SOL    HW232368   7.371   8.615  14.390
43491SOL     OW32369   3.383   1.575   4.874
43491SOL    HW132370   3.391   1.486   4.908
43491SOL    HW232371   3.345   1.625   4.946
43492SOL     OW32372  10.638  13.544  12.287
43492SOL    HW132373  10.715  13.544  12.231
43492SOL    HW232374  10.663  13.597  12.363
43493SOL     OW32375   7.895   1.347  14.270
43493SOL    HW132376   7.873   1.281  14.204
43493SOL    HW232377   7.942   1.415  14.223
43494SOL     OW32378   7.744   2.106   7.816
43494SOL    HW132379   7.694   2.063   7.886
43494SOL    HW232380   7.677   2.138   7.755
43495SOL     OW32381   3.353   8.689  11.436
43495SOL    HW132382   3.380   8.613  11.488
43495SOL    HW232383   3.278   8.659  11.386
43496SOL     OW32384   0.590   0.048   9.449
43496SOL    HW132385   0.549   0.092   9.374
43496SOL    HW232386   0.520  14.868   9.488
43497SOL     OW32387   7.087  10.059   7.435
43497SOL    HW132388   7.061  10.010   7.513
43497SOL    HW232389   7.004  10.082   7.392
43498SOL     OW32390  13.861   7.242   4.788
43498SOL    HW132391  13.926   7.272   4.725
43498SOL    HW232392  13.803   7.317   4.800
43499SOL     OW32393   9.189   4.103   4.020
43499SOL    HW132394   9.158   4.098   4.110
43499SOL    HW232395   9.120   4.060   3.969
43500SOL     OW32396   9.973  12.247  12.740
43500SOL    HW132397   9.995  12.207  12.656
43500SOL    HW232398  10.057  12.263  12.782
43501SOL     OW32399   9.528   9.258   1.857
43501SOL    HW132400   9.475   9.246   1.935
43501SOL    HW232401   9.465   9.271   1.786
43502SOL     OW32402   6.464   5.334   1.575
43502SOL    HW132403   6.533   5.371   1.631
43502SOL    HW232404   6.506   5.326   1.489
43503SOL     OW32405   0.044   6.906  10.866
43503SOL    HW132406   0.121   6.939  10.819
43503SOL    HW232407   0.021   6.825  10.821
43504SOL     OW32408   2.267   0.393   2.838
43504SOL    HW132409   2.306   0.455   2.900
43504SOL    HW232410   2.336   0.377   2.773
43505SOL     OW32411  11.969   3.272   7.215
43505SOL    HW132412  11.941   3.284   7.306
43505SOL    HW232413  11.902   3.214   7.177
43506SOL     OW32414  13.881   1.532  11.983
43506SOL    HW132415  13.923   1.486  11.910
43506SOL    HW232416  13.789   1.540  11.958
43507SOL     OW32417  10.505   9.454  12.288
43507SOL    HW132418  10.495   9.477  12.380
43507SOL    HW232419  10.591   9.412  12.283
43508SOL     OW32420   2.488   4.211   5.954
43508SOL    HW132421   2.403   4.167   5.949
43508SOL    HW232422   2.473   4.296   5.913
43509SOL     OW32423   0.426   8.364   3.432
43509SOL    HW132424   0.514   8.328   3.442
43509SOL    HW232425   0.389   8.317   3.357
43510SOL     OW32426  11.228  12.466  14.454
43510SOL    HW132427  11.136  12.475  14.431
43510SOL    HW232428  11.229  12.406  14.529
43511SOL     OW32429  14.830  13.575   1.066
43511SOL    HW132430   0.014  13.626   1.007
43511SOL    HW232431  14.828  13.487   1.028
43512SOL     OW32432   3.287   6.614   9.600
43512SOL    HW132433   3.285   6.537   9.657
43512SOL    HW232434   3.375   6.615   9.563
43513SOL     OW32435  12.545  13.782  11.640
43513SOL    HW132436  12.458  13.748  11.661
43513SOL    HW232437  12.532  13.835  11.561
43514SOL     OW32438   2.933   5.646  14.215
43514SOL    HW132439   3.007   5.704  14.229
43514SOL    HW232440   2.920   5.646  14.120
43515SOL     OW32441   1.188  13.842   0.224
43515SOL    HW132442   1.282  13.832   0.234
43515SOL    HW232443   1.151  13.763   0.262
43516SOL     OW32444   4.560   5.211  14.046
43516SOL    HW132445   4.580   5.206  13.952
43516SOL    HW232446   4.475   5.256  14.049
43517SOL     OW32447   6.538   5.807   9.012
43517SOL    HW132448   6.462   5.750   8.997
43517SOL    HW232449   6.591   5.796   8.934
43518SOL     OW32450  12.841   2.554  13.415
43518SOL    HW132451  12.922   2.534  13.462
43518SOL    HW232452  12.795   2.616  13.471
43519SOL     OW32453   1.821  13.968   8.804
43519SOL    HW132454   1.806  14.032   8.735
43519SOL    HW232455   1.736  13.957   8.846
43520SOL     OW32456   5.524  10.633   6.947
43520SOL    HW132457   5.483  10.568   6.890
43520SOL    HW232458   5.614  10.639   6.915
43521SOL     OW32459   2.936   2.847   0.501
43521SOL    HW132460   2.905   2.917   0.559
43521SOL    HW232461   2.967   2.779   0.559
43522SOL     OW32462   4.692   7.112  10.668
43522SOL    HW132463   4.687   7.157  10.752
43522SOL    HW232464   4.781   7.077  10.664
43523SOL     OW32465   6.695  14.510  12.727
43523SOL    HW132466   6.751  14.487  12.653
43523SOL    HW232467   6.748  14.567  12.782
43524SOL     OW32468  10.828   7.558   3.669
43524SOL    HW132469  10.883   7.636   3.668
43524SOL    HW232470  10.774   7.567   3.748
43525SOL     OW32471  10.131   5.782   5.748
43525SOL    HW132472  10.222   5.798   5.724
43525SOL    HW232473  10.086   5.865   5.730
43526SOL     OW32474   8.443  12.934  10.743
43526SOL    HW132475   8.358  12.937  10.787
43526SOL    HW232476   8.457  13.023  10.710
43527SOL     OW32477  11.566  10.705  11.374
43527SOL    HW132478  11.479  10.742  11.394
43527SOL    HW232479  11.551  10.611  11.368
43528SOL     OW32480   4.379   4.512   2.152
43528SOL    HW132481   4.416   4.491   2.238
43528SOL    HW232482   4.357   4.426   2.114
43529SOL     OW32483  13.331  12.899  13.647
43529SOL    HW132484  13.423  12.912  13.623
43529SOL    HW232485  13.284  12.906  13.564
43530SOL     OW32486   6.235  11.128  13.696
43530SOL    HW132487   6.148  11.098  13.669
43530SOL    HW232488   6.251  11.085  13.780
43531SOL     OW32489  12.474  10.710   5.513
43531SOL    HW132490  12.554  10.690   5.562
43531SOL    HW232491  12.414  10.745   5.579
43532SOL     OW32492  10.435   3.181   4.183
43532SOL    HW132493  10.428   3.164   4.090
43532SOL    HW232494  10.437   3.277   4.190
43533SOL     OW32495  14.630  11.294   8.057
43533SOL    HW132496  14.572  11.295   8.134
43533SOL    HW232497  14.589  11.233   7.996
43534SOL     OW32498  12.713   6.640   7.188
43534SOL    HW132499  12.628   6.612   7.156
43534SOL    HW232500  12.742   6.707   7.125
43535SOL     OW32501   0.809   9.419  13.917
43535SOL    HW132502   0.722   9.458  13.910
43535SOL    HW232503   0.794   9.332  13.954
43536SOL     OW32504   2.506  11.530   6.881
43536SOL    HW132505   2.474  11.619   6.894
43536SOL    HW232506   2.552  11.508   6.962
43537SOL     OW32507  10.519   1.073   7.605
43537SOL    HW132508  10.601   1.070   7.557
43537SOL    HW232509  10.534   1.137   7.675
43538SOL     OW32510  11.306  14.562   2.802
43538SOL    HW132511  11.343  14.485   2.846
43538SOL    HW232512  11.256  14.525   2.729
43539SOL     OW32513  13.030  10.580  13.543
43539SOL    HW132514  13.000  10.578  13.634
43539SOL    HW232515  13.059  10.491  13.525
43540SOL     OW32516   8.390   9.856  13.447
43540SOL    HW132517   8.427   9.837  13.533
43540SOL    HW232518   8.467   9.872  13.391
43541SOL     OW32519  11.457  14.805   9.439
43541SOL    HW132520  11.428   0.003   9.498
43541SOL    HW232521  11.540  14.776   9.475
43542SOL     OW32522  13.788  14.200   4.898
43542SOL    HW132523  13.728  14.274   4.904
43542SOL    HW232524  13.850  14.225   4.830
43543SOL     OW32525  11.515  13.346  12.930
43543SOL    HW132526  11.587  13.315  12.984
43543SOL    HW232527  11.551  13.346  12.841
43544SOL     OW32528   0.135   1.984   1.396
43544SOL    HW132529   0.217   1.947   1.428
43544SOL    HW232530   0.145   2.079   1.410
43545SOL     OW32531   0.240   2.902  13.764
43545SOL    HW132532   0.184   2.964  13.812
43545SOL    HW232533   0.179   2.838  13.729
43546SOL     OW32534  13.855   4.094   8.274
43546SOL    HW132535  13.802   4.060   8.202
43546SOL    HW232536  13.819   4.051   8.352
43547SOL     OW32537   3.278   3.296   7.350
43547SOL    HW132538   3.261   3.291   7.444
43547SOL    HW232539   3.271   3.389   7.330
43548SOL     OW32540   7.722  14.072   6.136
43548SOL    HW132541   7.737  14.160   6.173
43548SOL    HW232542   7.809  14.039   6.115
43549SOL     OW32543   6.139  10.526   1.568
43549SOL    HW132544   6.055  10.481   1.559
43549SOL    HW232545   6.129  10.581   1.646
43550SOL     OW32546   2.527   5.450  12.311
43550SOL    HW132547   2.620   5.468  12.329
43550SOL    HW232548   2.481   5.483  12.388
43551SOL     OW32549  10.102   2.393   4.655
43551SOL    HW132550  10.078   2.335   4.582
43551SOL    HW232551  10.197   2.398   4.652
43552SOL     OW32552  14.079   5.913   3.671
43552SOL    HW132553  14.049   5.980   3.610
43552SOL    HW232554  14.001   5.885   3.717
43553SOL     OW32555   3.255   0.012   8.309
43553SOL    HW132556   3.286  14.823   8.376
43553SOL    HW232557   3.171  14.848   8.281
43554SOL     OW32558  14.749  12.692   1.002
43554SOL    HW132559  14.803  12.659   0.930
43554SOL    HW232560  14.662  12.656   0.984
43555SOL     OW32561   2.833  13.586  13.168
43555SOL    HW132562   2.787  13.503  13.184
43555SOL    HW232563   2.864  13.579  13.078
43556SOL     OW32564   1.420  12.052   6.086
43556SOL    HW132565   1.500  12.091   6.051
43556SOL    HW232566   1.365  12.036   6.009
43557SOL     OW32567  14.352   1.912   5.561
43557SOL    HW132568  14.391   1.827   5.580
43557SOL    HW232569  14.395   1.973   5.621
43558SOL     OW32570   6.031   3.260  12.394
43558SOL    HW132571   5.959   3.314  12.360
43558SOL    HW232572   6.007   3.171  12.370
43559SOL     OW32573  12.276   4.130  12.161
43559SOL    HW132574  12.257   4.188  12.088
43559SOL    HW232575  12.280   4.188  12.237
43560SOL     OW32576   9.866   7.365  14.845
43560SOL    HW132577   9.932   7.347  14.777
43560SOL    HW232578   9.895   7.448   0.012
43561SOL     OW32579  12.869   4.955  12.832
43561SOL    HW132580  12.854   4.952  12.926
43561SOL    HW232581  12.804   4.895  12.795
43562SOL     OW32582   0.638  11.103   0.938
43562SOL    HW132583   0.729  11.094   0.910
43562SOL    HW232584   0.620  11.197   0.932
43563SOL     OW32585  13.183   4.701   4.125
43563SOL    HW132586  13.257   4.753   4.159
43563SOL    HW232587  13.113   4.765   4.112
43564SOL     OW32588   9.164   0.665   0.209
43564SOL    HW132589   9.128   0.617   0.284
43564SOL    HW232590   9.245   0.620   0.187
43565SOL     OW32591  10.046  11.344  11.476
43565SOL    HW132592  10.024  11.251  11.478
43565SOL    HW232593  10.141  11.346  11.479
43566SOL     OW32594  11.768   6.284  12.075
43566SOL    HW132595  11.838   6.258  12.134
43566SOL    HW232596  11.725   6.201  12.052
43567SOL     OW32597   3.224   9.047   8.293
43567SOL    HW132598   3.169   8.975   8.263
43567SOL    HW232599   3.273   9.011   8.367
43568SOL     OW32600   5.540   5.025   2.575
43568SOL    HW132601   5.559   4.990   2.662
43568SOL    HW232602   5.620   5.008   2.524
43569SOL     OW32603   0.320  10.250  10.503
43569SOL    HW132604   0.302  10.231  10.411
43569SOL    HW232605   0.279  10.336  10.518
43570SOL     OW32606   5.375   2.733  13.239
43570SOL    HW132607   5.436   2.800  13.271
43570SOL    HW232608   5.399   2.721  13.147
43571SOL     OW32609   0.591   8.142  13.709
43571SOL    HW132610   0.566   8.112  13.622
43571SOL    HW232611   0.509   8.168  13.750
43572SOL     OW32612  11.232   5.856   5.321
43572SOL    HW132613  11.196   5.803   5.250
43572SOL    HW232614  11.297   5.912   5.279
43573SOL     OW32615  10.276   2.745   7.615
43573SOL    HW132616  10.336   2.734   7.542
43573SOL    HW232617  10.195   2.701   7.587
43574SOL     OW32618   0.769   4.187   0.237
43574SOL    HW132619   0.775   4.121   0.168
43574SOL    HW232620   0.822   4.260   0.204
43575SOL     OW32621   1.943   2.055  13.170
43575SOL    HW132622   1.911   1.980  13.120
43575SOL    HW232623   1.865   2.106  13.190
43576SOL     OW32624   7.711   2.980   1.685
43576SOL    HW132625   7.729   2.887   1.698
43576SOL    HW232626   7.682   2.986   1.594
43577SOL     OW32627   5.049  12.081  14.653
43577SOL    HW132628   5.035  12.169  14.617
43577SOL    HW232629   4.961  12.048  14.673
43578SOL     OW32630   4.689   5.001   6.650
43578SOL    HW132631   4.616   4.941   6.638
43578SOL    HW232632   4.767   4.945   6.644
43579SOL     OW32633   0.817   3.345  12.278
43579SOL    HW132634   0.842   3.259  12.312
43579SOL    HW232635   0.806   3.399  12.357
43580SOL     OW32636   1.403  14.475  14.422
43580SOL    HW132637   1.359  14.406  14.373
43580SOL    HW232638   1.456  14.428  14.486
43581SOL     OW32639   3.900   5.438  12.887
43581SOL    HW132640   3.882   5.523  12.846
43581SOL    HW232641   3.966   5.457  12.954
43582SOL     OW32642   3.130   5.357   5.451
43582SOL    HW132643   3.136   5.300   5.375
43582SOL    HW232644   3.036   5.373   5.462
43583SOL     OW32645   3.082  11.148   2.930
43583SOL    HW132646   3.066  11.077   2.867
43583SOL    HW232647   3.103  11.224   2.875
43584SOL     OW32648  10.019   1.214   7.047
43584SOL    HW132649  10.090   1.185   6.990
43584SOL    HW232650  10.007   1.141   7.108
43585SOL     OW32651   0.246  10.386   0.455
43585SOL    HW132652   0.268  10.476   0.476
43585SOL    HW232653   0.158  10.391   0.418
43586SOL     OW32654   6.757  14.346   0.321
43586SOL    HW132655   6.829  14.336   0.259
43586SOL    HW232656   6.681  14.366   0.267
43587SOL     OW32657  14.694   1.278   8.561
43587SOL    HW132658  14.633   1.233   8.618
43587SOL    HW232659  14.775   1.284   8.612
43588SOL     OW32660   2.746   8.670  10.191
43588SOL    HW132661   2.694   8.748  10.173
43588SOL    HW232662   2.837   8.701  10.192
43589SOL     OW32663   7.438  10.176   5.527
43589SOL    HW132664   7.371  10.184   5.596
43589SOL    HW232665   7.414  10.097   5.479
43590SOL     OW32666   0.557   3.379   1.785
43590SOL    HW132667   0.558   3.473   1.804
43590SOL    HW232668   0.609   3.340   1.855
43591SOL     OW32669   1.197   4.113  14.660
43591SOL    HW132670   1.120   4.145  14.707
43591SOL    HW232671   1.161   4.069  14.583
43592SOL     OW32672  11.936   0.870   7.344
43592SOL    HW132673  11.899   0.866   7.433
43592SOL    HW232674  11.861   0.852   7.287
43593SOL     OW32675   0.941   3.612  13.476
43593SOL    HW132676   1.005   3.566  13.529
43593SOL    HW232677   0.882   3.544  13.445
43594SOL     OW32678   0.610   9.290   2.054
43594SOL    HW132679   0.698   9.319   2.028
43594SOL    HW232680   0.611   9.195   2.039
43595SOL     OW32681   6.284   9.098  13.400
43595SOL    HW132682   6.229   9.154  13.454
43595SOL    HW232683   6.229   9.073  13.326
43596SOL     OW32684   7.583   7.658   6.350
43596SOL    HW132685   7.569   7.753   6.353
43596SOL    HW232686   7.504   7.621   6.389
43597SOL     OW32687  13.213   1.860  14.679
43597SOL    HW132688  13.237   1.951  14.662
43597SOL    HW232689  13.129   1.848  14.633
43598SOL     OW32690   3.435   8.706   6.076
43598SOL    HW132691   3.379   8.730   6.149
43598SOL    HW232692   3.398   8.752   6.001
43599SOL     OW32693   1.891   5.675   6.355
43599SOL    HW132694   1.958   5.695   6.290
43599SOL    HW232695   1.934   5.616   6.417
43600SOL     OW32696  14.647   6.586   8.393
43600SOL    HW132697  14.612   6.562   8.479
43600SOL    HW232698  14.694   6.507   8.364
43601SOL     OW32699  13.903   1.728   7.101
43601SOL    HW132700  13.971   1.796   7.097
43601SOL    HW232701  13.892   1.700   7.010
43602SOL     OW32702  11.564  14.732   8.446
43602SOL    HW132703  11.502  14.740   8.519
43602SOL    HW232704  11.605  14.818   8.440
43603SOL     OW32705  14.757   3.990   9.157
43603SOL    HW132706  14.841   3.951   9.180
43603SOL    HW232707  14.771   4.028   9.070
43604SOL     OW32708   4.213  14.160   8.640
43604SOL    HW132709   4.296  14.207   8.639
43604SOL    HW232710   4.164  14.196   8.566
43605SOL     OW32711  11.962  13.804   2.039
43605SOL    HW132712  11.991  13.717   2.067
43605SOL    HW232713  12.023  13.829   1.970
43606SOL     OW32714   4.996  10.922   0.218
43606SOL    HW132715   5.043  10.843   0.245
43606SOL    HW232716   5.038  10.949   0.137
43607SOL     OW32717  12.738  11.459  12.560
43607SOL    HW132718  12.649  11.447  12.527
43607SOL    HW232719  12.761  11.548  12.533
43608SOL     OW32720  12.485  11.349   4.067
43608SOL    HW132721  12.477  11.404   3.989
43608SOL    HW232722  12.559  11.291   4.048
43609SOL     OW32723   8.133  12.161   6.363
43609SOL    HW132724   8.049  12.198   6.338
43609SOL    HW232725   8.197  12.205   6.308
43610SOL     OW32726   6.963  13.575   2.957
43610SOL    HW132727   6.922  13.651   2.915
43610SOL    HW232728   7.040  13.612   3.001
43611SOL     OW32729   9.283  10.621  12.359
43611SOL    HW132730   9.271  10.707  12.400
43611SOL    HW232731   9.368  10.591  12.389
43612SOL     OW32732   2.896   0.750   7.221
43612SOL    HW132733   2.842   0.811   7.270
43612SOL    HW232734   2.880   0.771   7.129
43613SOL     OW32735  12.223  14.085   2.692
43613SOL    HW132736  12.146  14.041   2.657
43613SOL    HW232737  12.200  14.103   2.784
43614SOL     OW32738   6.444   2.788   5.595
43614SOL    HW132739   6.522   2.839   5.613
43614SOL    HW232740   6.475   2.698   5.586
43615SOL     OW32741   1.237   8.518  12.605
43615SOL    HW132742   1.266   8.599  12.646
43615SOL    HW232743   1.303   8.500  12.538
43616SOL     OW32744   0.651   1.551   2.500
43616SOL    HW132745   0.732   1.557   2.550
43616SOL    HW232746   0.581   1.564   2.564
43617SOL     OW32747  10.898   1.041   4.822
43617SOL    HW132748  10.924   1.132   4.815
43617SOL    HW232749  10.830   1.039   4.889
43618SOL     OW32750   0.206   6.844   1.474
43618SOL    HW132751   0.111   6.843   1.481
43618SOL    HW232752   0.236   6.877   1.559
43619SOL     OW32753  13.278  13.054   8.735
43619SOL    HW132754  13.212  13.093   8.678
43619SOL    HW232755  13.301  13.124   8.797
43620SOL     OW32756  12.615   4.855  12.672
43620SOL    HW132757  12.654   4.923  12.617
43620SOL    HW232758  12.620   4.776  12.620
43621SOL     OW32759   6.350   4.203  11.262
43621SOL    HW132760   6.429   4.197  11.317
43621SOL    HW232761   6.382   4.192  11.173
43622SOL     OW32762   0.221   1.269   2.111
43622SOL    HW132763   0.166   1.281   2.033
43622SOL    HW232764   0.311   1.272   2.077
43623SOL     OW32765   1.026  14.173   6.622
43623SOL    HW132766   1.018  14.239   6.691
43623SOL    HW232767   0.941  14.174   6.578
43624SOL     OW32768   3.713   0.315  14.576
43624SOL    HW132769   3.619   0.323  14.559
43624SOL    HW232770   3.734   0.390  14.632
43625SOL     OW32771   3.435   2.834  12.864
43625SOL    HW132772   3.379   2.757  12.862
43625SOL    HW232773   3.373   2.908  12.872
43626SOL     OW32774   5.413  11.574  10.829
43626SOL    HW132775   5.327  11.582  10.870
43626SOL    HW232776   5.466  11.528  10.894
43627SOL     OW32777   3.761   7.490   3.419
43627SOL    HW132778   3.824   7.461   3.485
43627SOL    HW232779   3.680   7.503   3.469
43628SOL     OW32780   0.624   8.455   4.497
43628SOL    HW132781   0.666   8.386   4.549
43628SOL    HW232782   0.693   8.519   4.483
43629SOL     OW32783  11.552   5.843   8.739
43629SOL    HW132784  11.518   5.770   8.688
43629SOL    HW232785  11.646   5.827   8.744
43630SOL     OW32786   5.259  10.823   7.434
43630SOL    HW132787   5.282  10.813   7.342
43630SOL    HW232788   5.165  10.805   7.438
43631SOL     OW32789   8.954   5.275  11.764
43631SOL    HW132790   8.982   5.239  11.848
43631SOL    HW232791   8.903   5.204  11.724
43632SOL     OW32792   1.127   6.791   8.099
43632SOL    HW132793   1.088   6.779   8.012
43632SOL    HW232794   1.060   6.836   8.149
43633SOL     OW32795   5.795   6.273   3.468
43633SOL    HW132796   5.833   6.340   3.526
43633SOL    HW232797   5.846   6.194   3.486
43634SOL     OW32798   9.872  10.233   1.316
43634SOL    HW132799   9.780  10.261   1.318
43634SOL    HW232800   9.884  10.189   1.400
43635SOL     OW32801   2.125   6.392   0.081
43635SOL    HW132802   2.139   6.457   0.150
43635SOL    HW232803   2.098   6.443   0.005
43636SOL     OW32804   8.947   8.797  13.852
43636SOL    HW132805   8.884   8.797  13.924
43636SOL    HW232806   9.010   8.865  13.875
43637SOL     OW32807  12.578  11.935   5.732
43637SOL    HW132808  12.644  11.973   5.674
43637SOL    HW232809  12.615  11.852   5.760
43638SOL     OW32810  11.790  13.104  13.602
43638SOL    HW132811  11.819  13.013  13.615
43638SOL    HW232812  11.713  13.113  13.658
43639SOL     OW32813   0.212   6.621   5.347
43639SOL    HW132814   0.161   6.699   5.370
43639SOL    HW232815   0.157   6.575   5.283
43640SOL     OW32816   4.241   3.082   8.933
43640SOL    HW132817   4.198   3.168   8.937
43640SOL    HW232818   4.198   3.031   9.002
43641SOL     OW32819   1.274  14.204   8.091
43641SOL    HW132820   1.341  14.220   8.024
43641SOL    HW232821   1.192  14.229   8.049
43642SOL     OW32822   5.335  12.355  10.373
43642SOL    HW132823   5.414  12.320  10.414
43642SOL    HW232824   5.328  12.308  10.290
43643SOL     OW32825   7.262   9.562   7.075
43643SOL    HW132826   7.304   9.494   7.126
43643SOL    HW232827   7.192   9.596   7.131
43644SOL     OW32828   0.432   0.722  11.838
43644SOL    HW132829   0.504   0.751  11.893
43644SOL    HW232830   0.473   0.672  11.768
43645SOL     OW32831  10.666   0.042  11.914
43645SOL    HW132832  10.714   0.016  11.835
43645SOL    HW232833  10.610  14.839  11.933
43646SOL     OW32834   8.313   4.672   4.193
43646SOL    HW132835   8.220   4.686   4.214
43646SOL    HW232836   8.318   4.581   4.166
43647SOL     OW32837   5.212  13.673   1.546
43647SOL    HW132838   5.176  13.757   1.575
43647SOL    HW232839   5.137  13.615   1.539
43648SOL     OW32840   7.932   4.303  12.427
43648SOL    HW132841   7.951   4.355  12.505
43648SOL    HW232842   7.871   4.357  12.377
43649SOL     OW32843  13.132   6.483   3.198
43649SOL    HW132844  13.123   6.576   3.218
43649SOL    HW232845  13.047   6.457   3.164
43650SOL     OW32846   4.464   2.671  11.254
43650SOL    HW132847   4.558   2.672  11.272
43650SOL    HW232848   4.458   2.682  11.159
43651SOL     OW32849   8.489  12.873   6.743
43651SOL    HW132850   8.475  12.890   6.836
43651SOL    HW232851   8.453  12.786   6.729
43652SOL     OW32852   0.204   5.913   0.716
43652SOL    HW132853   0.128   5.888   0.769
43652SOL    HW232854   0.222   6.003   0.740
43653SOL     OW32855   9.937  14.525  10.549
43653SOL    HW132856   9.897  14.610  10.567
43653SOL    HW232857  10.007  14.545  10.486
43654SOL     OW32858   2.559   2.850   2.591
43654SOL    HW132859   2.506   2.863   2.513
43654SOL    HW232860   2.591   2.760   2.583
43655SOL     OW32861  11.309   8.537   2.492
43655SOL    HW132862  11.389   8.587   2.505
43655SOL    HW232863  11.259   8.587   2.428
43656SOL     OW32864  11.255   7.845   2.085
43656SOL    HW132865  11.160   7.834   2.087
43656SOL    HW232866  11.283   7.823   2.174
43657SOL     OW32867   0.201  14.511  11.861
43657SOL    HW132868   0.170  14.519  11.951
43657SOL    HW232869   0.245  14.426  11.857
43658SOL     OW32870  10.465   1.805  14.753
43658SOL    HW132871  10.490   1.833  14.840
43658SOL    HW232872  10.503   1.717  14.744
43659SOL     OW32873   1.366   4.241   5.626
43659SOL    HW132874   1.334   4.328   5.601
43659SOL    HW232875   1.337   4.229   5.717
43660SOL     OW32876   0.561   7.320  13.108
43660SOL    HW132877   0.506   7.351  13.179
43660SOL    HW232878   0.648   7.357  13.126
43661SOL     OW32879   3.952  12.177   8.655
43661SOL    HW132880   3.965  12.259   8.608
43661SOL    HW232881   3.905  12.121   8.594
43662SOL     OW32882   9.213  14.854  13.236
43662SOL    HW132883   9.222   0.046  13.307
43662SOL    HW232884   9.303  14.837  13.207
43663SOL     OW32885   7.759   0.484   4.833
43663SOL    HW132886   7.731   0.524   4.916
43663SOL    HW232887   7.681   0.487   4.778
43664SOL     OW32888   5.004  10.401   1.845
43664SOL    HW132889   4.958  10.480   1.871
43664SOL    HW232890   5.095  10.429   1.833
43665SOL     OW32891  11.215  10.698   4.511
43665SOL    HW132892  11.294  10.747   4.536
43665SOL    HW232893  11.156  10.765   4.476
43666SOL     OW32894   3.991   5.388   6.803
43666SOL    HW132895   4.010   5.480   6.784
43666SOL    HW232896   3.914   5.367   6.749
43667SOL     OW32897   2.679  12.302   8.006
43667SOL    HW132898   2.659  12.355   7.929
43667SOL    HW232899   2.735  12.232   7.972
43668SOL     OW32900   4.434   1.370   2.069
43668SOL    HW132901   4.376   1.443   2.091
43668SOL    HW232902   4.413   1.349   1.978
43669SOL     OW32903  10.026   8.286  10.926
43669SOL    HW132904  10.033   8.331  10.842
43669SOL    HW232905   9.950   8.326  10.969
43670SOL     OW32906   1.370   3.431  10.861
43670SOL    HW132907   1.397   3.509  10.813
43670SOL    HW232908   1.318   3.465  10.934
43671SOL     OW32909   7.265   6.936  11.676
43671SOL    HW132910   7.303   6.867  11.730
43671SOL    HW232911   7.212   6.987  11.738
43672SOL     OW32912   1.422   3.816  10.184
43672SOL    HW132913   1.413   3.739  10.128
43672SOL    HW232914   1.342   3.817  10.237
43673SOL     OW32915   4.610   6.273   5.980
43673SOL    HW132916   4.670   6.294   6.052
43673SOL    HW232917   4.648   6.195   5.939
43674SOL     OW32918  11.612   9.147  12.865
43674SOL    HW132919  11.561   9.139  12.945
43674SOL    HW232920  11.550   9.131  12.794
43675SOL     OW32921   4.274  12.832  14.479
43675SOL    HW132922   4.354  12.819  14.428
43675SOL    HW232923   4.263  12.750  14.527
43676SOL     OW32924  12.353   6.256  11.439
43676SOL    HW132925  12.358   6.316  11.364
43676SOL    HW232926  12.441   6.219  11.447
43677SOL     OW32927   3.568  12.682   5.667
43677SOL    HW132928   3.616  12.728   5.736
43677SOL    HW232929   3.476  12.700   5.685
43678SOL     OW32930   7.669   5.270   1.741
43678SOL    HW132931   7.702   5.355   1.771
43678SOL    HW232932   7.673   5.275   1.645
43679SOL     OW32933   5.938   2.381  14.194
43679SOL    HW132934   5.851   2.370  14.235
43679SOL    HW232935   5.966   2.292  14.174
43680SOL     OW32936  10.792  11.502   7.307
43680SOL    HW132937  10.881  11.507   7.272
43680SOL    HW232938  10.742  11.564   7.253
43681SOL     OW32939  12.842   4.476   7.083
43681SOL    HW132940  12.761   4.499   7.130
43681SOL    HW232941  12.830   4.384   7.060
43682SOL     OW32942   9.197   5.359   2.921
43682SOL    HW132943   9.277   5.404   2.948
43682SOL    HW232944   9.175   5.301   2.994
43683SOL     OW32945   0.663   4.165   1.773
43683SOL    HW132946   0.664   4.234   1.707
43683SOL    HW232947   0.731   4.104   1.744
43684SOL     OW32948   8.124   9.704   0.889
43684SOL    HW132949   8.121   9.720   0.984
43684SOL    HW232950   8.198   9.756   0.859
43685SOL     OW32951   2.604   5.342   4.634
43685SOL    HW132952   2.671   5.289   4.678
43685SOL    HW232953   2.585   5.413   4.696
43686SOL     OW32954   1.531   3.053   0.233
43686SOL    HW132955   1.478   3.128   0.205
43686SOL    HW232956   1.480   3.013   0.304
43687SOL     OW32957  12.997   0.464   9.027
43687SOL    HW132958  13.062   0.460   8.957
43687SOL    HW232959  12.952   0.380   9.022
43688SOL     OW32960  14.866  12.566   1.767
43688SOL    HW132961  14.808  12.632   1.731
43688SOL    HW232962  14.865  12.582   1.861
43689SOL     OW32963   6.538   7.983  10.102
43689SOL    HW132964   6.618   7.950  10.142
43689SOL    HW232965   6.518   7.920  10.033
43690SOL     OW32966   4.852   5.302  11.376
43690SOL    HW132967   4.863   5.350  11.294
43690SOL    HW232968   4.916   5.231  11.370
43691SOL     OW32969   0.945  13.099   0.304
43691SOL    HW132970   0.887  13.175   0.306
43691SOL    HW232971   0.892  13.029   0.268
43692SOL     OW32972  12.524   5.565   6.899
43692SOL    HW132973  12.523   5.525   6.986
43692SOL    HW232974  12.617   5.578   6.881
43693SOL     OW32975  10.847  13.966   9.191
43693SOL    HW132976  10.755  13.948   9.170
43693SOL    HW232977  10.894  13.946   9.110
43694SOL     OW32978   4.402  12.183   7.113
43694SOL    HW132979   4.327  12.210   7.061
43694SOL    HW232980   4.393  12.088   7.120
43695SOL     OW32981  10.995   0.353  10.066
43695SOL    HW132982  11.004   0.259  10.050
43695SOL    HW232983  10.942   0.358  10.145
43696SOL     OW32984  14.284   6.766   0.196
43696SOL    HW132985  14.364   6.803   0.233
43696SOL    HW232986  14.234   6.736   0.271
43697SOL     OW32987  13.748  12.836   2.000
43697SOL    HW132988  13.808  12.891   1.949
43697SOL    HW232989  13.792  12.751   2.005
43698SOL     OW32990  14.266  12.048   3.817
43698SOL    HW132991  14.231  12.007   3.896
43698SOL    HW232992  14.193  12.049   3.755
43699SOL     OW32993   3.695   0.046   1.497
43699SOL    HW132994   3.736   0.101   1.430
43699SOL    HW232995   3.736  14.832   1.486
43700SOL     OW32996   8.383  10.266   4.274
43700SOL    HW132997   8.384  10.287   4.180
43700SOL    HW232998   8.305  10.211   4.285
43701SOL     OW32999   3.146   5.818  14.273
43701SOL    HW133000   3.241   5.823  14.279
43701SOL    HW233001   3.118   5.909  14.259
43702SOL     OW33002   8.583   6.177   3.344
43702SOL    HW133003   8.672   6.144   3.359
43702SOL    HW233004   8.541   6.172   3.430
43703SOL     OW33005   0.579   9.648   2.949
43703SOL    HW133006   0.607   9.558   2.964
43703SOL    HW233007   0.656   9.701   2.970
43704SOL     OW33008  11.764   0.583   6.894
43704SOL    HW133009  11.722   0.555   6.812
43704SOL    HW233010  11.697   0.636   6.938
43705SOL     OW33011   4.113   0.937   9.904
43705SOL    HW133012   4.180   0.905   9.965
43705SOL    HW233013   4.096   0.862   9.847
43706SOL     OW33014   8.005  10.765   9.864
43706SOL    HW133015   7.910  10.771   9.875
43706SOL    HW233016   8.032  10.854   9.840
43707SOL     OW33017   0.386   7.413   0.503
43707SOL    HW133018   0.442   7.488   0.490
43707SOL    HW233019   0.427   7.363   0.574
43708SOL     OW33020   1.813   8.091   8.665
43708SOL    HW133021   1.901   8.082   8.627
43708SOL    HW233022   1.829   8.122   8.755
43709SOL     OW33023   8.528   3.039   2.899
43709SOL    HW133024   8.598   3.065   2.839
43709SOL    HW233025   8.448   3.060   2.853
43710SOL     OW33026   2.187   6.733  11.246
43710SOL    HW133027   2.197   6.669  11.175
43710SOL    HW233028   2.137   6.687  11.313
43711SOL     OW33029  13.204   0.674   1.699
43711SOL    HW133030  13.216   0.579   1.695
43711SOL    HW233031  13.173   0.691   1.788
43712SOL     OW33032   6.178  12.146   6.044
43712SOL    HW133033   6.266  12.115   6.065
43712SOL    HW233034   6.148  12.089   5.973
43713SOL     OW33035   4.577  14.151  10.886
43713SOL    HW133036   4.531  14.192  10.813
43713SOL    HW233037   4.508  14.118  10.942
43714SOL     OW33038   1.734   0.125   8.272
43714SOL    HW133039   1.718   0.154   8.361
43714SOL    HW233040   1.656   0.075   8.249
43715SOL     OW33041   5.602   4.945   5.795
43715SOL    HW133042   5.561   4.962   5.710
43715SOL    HW233043   5.554   4.870   5.831
43716SOL     OW33044  12.022  11.281   7.947
43716SOL    HW133045  11.990  11.370   7.961
43716SOL    HW233046  11.972  11.228   8.009
43717SOL     OW33047   1.053   3.823   3.548
43717SOL    HW133048   1.142   3.846   3.521
43717SOL    HW233049   1.020   3.770   3.476
43718SOL     OW33050   2.263  11.805   3.469
43718SOL    HW133051   2.278  11.806   3.375
43718SOL    HW233052   2.289  11.717   3.496
43719SOL     OW33053   9.160   7.539   3.272
43719SOL    HW133054   9.068   7.560   3.291
43719SOL    HW233055   9.171   7.561   3.180
43720SOL     OW33056   5.847   3.593  12.813
43720SOL    HW133057   5.844   3.645  12.893
43720SOL    HW233058   5.930   3.546  12.818
43721SOL     OW33059  12.778   1.098  11.002
43721SOL    HW133060  12.730   1.179  10.985
43721SOL    HW233061  12.818   1.076  10.917
43722SOL     OW33062   3.861   8.026   1.097
43722SOL    HW133063   3.862   8.096   1.032
43722SOL    HW233064   3.949   7.989   1.095
43723SOL     OW33065  12.531  14.275  11.044
43723SOL    HW133066  12.583  14.278  11.125
43723SOL    HW233067  12.509  14.367  11.026
43724SOL     OW33068   9.866  13.903  13.466
43724SOL    HW133069   9.937  13.863  13.416
43724SOL    HW233070   9.897  13.903  13.556
43725SOL     OW33071   5.683  14.149   4.705
43725SOL    HW133072   5.663  14.099   4.784
43725SOL    HW233073   5.731  14.226   4.737
43726SOL     OW33074  12.354   4.658   1.740
43726SOL    HW133075  12.294   4.643   1.814
43726SOL    HW233076  12.379   4.750   1.748
43727SOL     OW33077   2.497   8.867   1.270
43727SOL    HW133078   2.514   8.933   1.337
43727SOL    HW233079   2.409   8.836   1.289
43728SOL     OW33080   5.754  13.195   9.381
43728SOL    HW133081   5.709  13.118   9.414
43728SOL    HW233082   5.705  13.269   9.418
43729SOL     OW33083  11.301  12.998  14.489
43729SOL    HW133084  11.367  12.974  14.423
43729SOL    HW233085  11.279  12.915  14.532
43730SOL     OW33086   1.671   0.057   4.381
43730SOL    HW133087   1.692   0.096   4.297
43730SOL    HW233088   1.698  14.837   4.374
43731SOL     OW33089  11.236   6.770  10.644
43731SOL    HW133090  11.280   6.696  10.687
43731SOL    HW233091  11.240   6.748  10.551
43732SOL     OW33092  10.106   3.663   9.858
43732SOL    HW133093  10.156   3.655   9.939
43732SOL    HW233094  10.040   3.730   9.877
43733SOL     OW33095   8.750   0.211   3.124
43733SOL    HW133096   8.721   0.201   3.033
43733SOL    HW233097   8.836   0.251   3.118
43734SOL     OW33098   0.690   9.438   3.128
43734SOL    HW133099   0.614   9.397   3.169
43734SOL    HW233100   0.690   9.528   3.161
43735SOL     OW33101  13.815   0.140   7.228
43735SOL    HW133102  13.804   0.234   7.208
43735SOL    HW233103  13.811   0.097   7.142
43736SOL     OW33104   7.812   8.653   5.103
43736SOL    HW133105   7.729   8.663   5.150
43736SOL    HW233106   7.825   8.559   5.097
43737SOL     OW33107  14.597  13.117  11.859
43737SOL    HW133108  14.595  13.041  11.801
43737SOL    HW233109  14.562  13.086  11.942
43738SOL     OW33110  13.463   6.212   6.859
43738SOL    HW133111  13.439   6.124   6.887
43738SOL    HW233112  13.559   6.213   6.860
43739SOL     OW33113   2.896   8.985  14.437
43739SOL    HW133114   2.939   9.042  14.500
43739SOL    HW233115   2.949   8.905  14.436
43740SOL     OW33116  11.232  11.781   0.291
43740SOL    HW133117  11.233  11.692   0.326
43740SOL    HW233118  11.174  11.776   0.215
43741SOL     OW33119   6.405  12.759   4.350
43741SOL    HW133120   6.341  12.829   4.357
43741SOL    HW233121   6.488  12.804   4.332
43742SOL     OW33122   0.436   3.485  12.599
43742SOL    HW133123   0.470   3.402  12.564
43742SOL    HW233124   0.489   3.552  12.557
43743SOL     OW33125   2.496  14.330  12.978
43743SOL    HW133126   2.451  14.261  12.929
43743SOL    HW233127   2.456  14.412  12.946
43744SOL     OW33128   4.829  10.519   5.969
43744SOL    HW133129   4.788  10.527   6.056
43744SOL    HW233130   4.922  10.536   5.985
43745SOL     OW33131   9.180   0.177  13.433
43745SOL    HW133132   9.255   0.218  13.478
43745SOL    HW233133   9.121   0.250  13.414
43746SOL     OW33134   3.039  13.222  12.210
43746SOL    HW133135   3.095  13.253  12.281
43746SOL    HW233136   2.971  13.170  12.254
43747SOL     OW33137   1.010  10.734   2.781
43747SOL    HW133138   0.951  10.681   2.834
43747SOL    HW233139   1.007  10.693   2.694
43748SOL     OW33140   4.504  11.681  12.950
43748SOL    HW133141   4.493  11.608  13.011
43748SOL    HW233142   4.448  11.750  12.986
43749SOL     OW33143   2.471   6.241   2.695
43749SOL    HW133144   2.547   6.233   2.754
43749SOL    HW233145   2.486   6.176   2.627
43750SOL     OW33146  12.007   9.508  14.173
43750SOL    HW133147  12.086   9.481  14.126
43750SOL    HW233148  12.021   9.479  14.263
43751SOL     OW33149   7.079   0.095   8.872
43751SOL    HW133150   7.022   0.127   8.802
43751SOL    HW233151   7.055   0.148   8.948
43752SOL     OW33152  12.010   4.547   1.609
43752SOL    HW133153  11.940   4.600   1.571
43752SOL    HW233154  12.080   4.609   1.628
43753SOL     OW33155  14.158   3.416   8.649
43753SOL    HW133156  14.067   3.444   8.640
43753SOL    HW233157  14.155   3.321   8.636
43754SOL     OW33158   8.611   6.402  11.561
43754SOL    HW133159   8.695   6.357  11.566
43754SOL    HW233160   8.547   6.335  11.586
43755SOL     OW33161  12.076   6.732  12.137
43755SOL    HW133162  12.035   6.816  12.120
43755SOL    HW233163  12.130   6.715  12.060
43756SOL     OW33164   9.929   9.775   5.624
43756SOL    HW133165   9.995   9.791   5.692
43756SOL    HW233166   9.960   9.823   5.548
43757SOL     OW33167   6.515   4.726   6.994
43757SOL    HW133168   6.484   4.670   6.922
43757SOL    HW233169   6.476   4.688   7.072
43758SOL     OW33170  11.231   2.498   0.508
43758SOL    HW133171  11.139   2.522   0.497
43758SOL    HW233172  11.276   2.581   0.524
43759SOL     OW33173  12.992   4.529   3.111
43759SOL    HW133174  12.936   4.452   3.101
43759SOL    HW233175  13.080   4.496   3.091
43760SOL     OW33176   7.720   1.250  11.022
43760SOL    HW133177   7.637   1.295  11.006
43760SOL    HW233178   7.755   1.291  11.101
43761SOL     OW33179   4.115  14.367   5.459
43761SOL    HW133180   4.071  14.290   5.495
43761SOL    HW233181   4.187  14.331   5.408
43762SOL     OW33182   8.313   9.869   8.980
43762SOL    HW133183   8.219   9.871   8.993
43762SOL    HW233184   8.334   9.955   8.942
43763SOL     OW33185   7.019   2.632  10.073
43763SOL    HW133186   7.083   2.619  10.144
43763SOL    HW233187   6.994   2.543  10.048
43764SOL     OW33188  10.157  14.486   4.602
43764SOL    HW133189  10.132  14.578   4.602
43764SOL    HW233190  10.074  14.438   4.599
43765SOL     OW33191  13.135  10.318  12.735
43765SOL    HW133192  13.087  10.258  12.793
43765SOL    HW233193  13.182  10.261  12.675
43766SOL     OW33194  12.692   0.567   0.573
43766SOL    HW133195  12.782   0.564   0.607
43766SOL    HW233196  12.663   0.476   0.577
43767SOL     OW33197   5.445   4.805   2.371
43767SOL    HW133198   5.539   4.823   2.377
43767SOL    HW233199   5.418   4.791   2.461
43768SOL     OW33200  12.536  12.442   6.368
43768SOL    HW133201  12.615  12.484   6.335
43768SOL    HW233202  12.474  12.447   6.295
43769SOL     OW33203  11.498   3.116   1.892
43769SOL    HW133204  11.558   3.044   1.914
43769SOL    HW233205  11.549   3.173   1.835
43770SOL     OW33206  10.689   7.724   7.241
43770SOL    HW133207  10.618   7.722   7.177
43770SOL    HW233208  10.768   7.711   7.189
43771SOL     OW33209  13.306   7.332   7.598
43771SOL    HW133210  13.232   7.361   7.652
43771SOL    HW233211  13.383   7.356   7.649
43772SOL     OW33212  14.008   3.322   0.978
43772SOL    HW133213  14.066   3.338   0.904
43772SOL    HW233214  13.929   3.285   0.939
43773SOL     OW33215  10.551   2.123  13.005
43773SOL    HW133216  10.470   2.088  12.970
43773SOL    HW233217  10.586   2.178  12.934
43774SOL     OW33218  13.414  11.434   6.641
43774SOL    HW133219  13.353  11.362   6.623
43774SOL    HW233220  13.405  11.450   6.735
43775SOL     OW33221   1.020  10.286   3.252
43775SOL    HW133222   1.071  10.274   3.172
43775SOL    HW233223   0.945  10.227   3.242
43776SOL     OW33224  10.953   9.137   6.477
43776SOL    HW133225  11.014   9.131   6.551
43776SOL    HW233226  10.925   9.228   6.476
43777SOL     OW33227  10.299  12.398   1.687
43777SOL    HW133228  10.235  12.334   1.656
43777SOL    HW233229  10.247  12.465   1.730
43778SOL     OW33230   6.095   2.352  12.462
43778SOL    HW133231   6.013   2.339  12.414
43778SOL    HW233232   6.095   2.283  12.529
43779SOL     OW33233   8.118   0.008  12.777
43779SOL    HW133234   8.134   0.065  12.701
43779SOL    HW233235   8.121  14.791  12.741
43780SOL     OW33236  11.853   3.323   0.281
43780SOL    HW133237  11.813   3.401   0.319
43780SOL    HW233238  11.799   3.304   0.204
43781SOL     OW33239   3.759   8.003   4.203
43781SOL    HW133240   3.685   7.958   4.162
43781SOL    HW233241   3.719   8.068   4.261
43782SOL     OW33242   0.522   1.544   3.068
43782SOL    HW133243   0.466   1.471   3.043
43782SOL    HW233244   0.530   1.597   2.988
43783SOL     OW33245   5.569  13.826   5.393
43783SOL    HW133246   5.539  13.915   5.408
43783SOL    HW233247   5.655  13.822   5.436
43784SOL     OW33248   8.018  11.292   7.101
43784SOL    HW133249   7.989  11.213   7.055
43784SOL    HW233250   8.113  11.293   7.090
43785SOL     OW33251  10.930   8.327   3.282
43785SOL    HW133252  10.904   8.374   3.361
43785SOL    HW233253  10.871   8.252   3.279
43786SOL     OW33254   5.725   7.572  12.679
43786SOL    HW133255   5.672   7.588  12.757
43786SOL    HW233256   5.794   7.513  12.709
43787SOL     OW33257   3.334   1.770   5.292
43787SOL    HW133258   3.411   1.813   5.254
43787SOL    HW233259   3.279   1.749   5.216
43788SOL     OW33260  13.422   7.939   3.075
43788SOL    HW133261  13.453   7.993   3.147
43788SOL    HW233262  13.498   7.886   3.050
43789SOL     OW33263   2.273   0.915  11.064
43789SOL    HW133264   2.363   0.939  11.042
43789SOL    HW233265   2.269   0.920  11.160
43790SOL     OW33266  11.699  12.919   9.979
43790SOL    HW133267  11.768  12.873  10.026
43790SOL    HW233268  11.639  12.850   9.950
43791SOL     OW33269  12.254   8.389   4.535
43791SOL    HW133270  12.184   8.370   4.598
43791SOL    HW233271  12.316   8.318   4.546
43792SOL     OW33272  13.887  11.062  13.961
43792SOL    HW133273  13.875  11.064  13.866
43792SOL    HW233274  13.799  11.073  13.996
43793SOL     OW33275   5.649   3.417   1.972
43793SOL    HW133276   5.562   3.392   1.942
43793SOL    HW233277   5.707   3.346   1.944
43794SOL     OW33278  13.923  11.615  10.502
43794SOL    HW133279  13.869  11.638  10.577
43794SOL    HW233280  13.947  11.524  10.516
43795SOL     OW33281   5.628   9.587   4.872
43795SOL    HW133282   5.598   9.646   4.941
43795SOL    HW233283   5.714   9.557   4.901
43796SOL     OW33284   8.668   0.926   1.829
43796SOL    HW133285   8.744   0.967   1.869
43796SOL    HW233286   8.699   0.891   1.746
43797SOL     OW33287  10.133   5.071   9.507
43797SOL    HW133288  10.082   5.133   9.559
43797SOL    HW233289  10.083   4.989   9.512
43798SOL     OW33290   3.077   5.820   1.551
43798SOL    HW133291   2.994   5.841   1.508
43798SOL    HW233292   3.054   5.806   1.643
43799SOL     OW33293  14.860   0.308   3.322
43799SOL    HW133294  14.839   0.221   3.288
43799SOL    HW233295   0.073   0.297   3.366
43800SOL     OW33296   9.354   2.086   7.834
43800SOL    HW133297   9.426   2.033   7.801
43800SOL    HW233298   9.282   2.068   7.773
43801SOL     OW33299  13.551   2.585   3.089
43801SOL    HW133300  13.523   2.669   3.053
43801SOL    HW233301  13.550   2.597   3.184
43802SOL     OW33302  12.115  10.572   7.184
43802SOL    HW133303  12.034  10.618   7.204
43802SOL    HW233304  12.179  10.642   7.169
43803SOL     OW33305   3.597  14.179  13.595
43803SOL    HW133306   3.579  14.172  13.501
43803SOL    HW233307   3.610  14.089  13.624
43804SOL     OW33308   8.698   2.983   5.328
43804SOL    HW133309   8.604   2.971   5.339
43804SOL    HW233310   8.707   3.030   5.245
43805SOL     OW33311  10.294   4.548   8.007
43805SOL    HW133312  10.200   4.536   8.022
43805SOL    HW233313  10.308   4.643   8.015
43806SOL     OW33314  11.760   4.201   0.839
43806SOL    HW133315  11.720   4.284   0.814
43806SOL    HW233316  11.730   4.186   0.929
43807SOL     OW33317   8.174   6.006   6.906
43807SOL    HW133318   8.178   5.911   6.904
43807SOL    HW233319   8.081   6.026   6.895
43808SOL     OW33320   9.701   2.710   0.613
43808SOL    HW133321   9.729   2.698   0.704
43808SOL    HW233322   9.673   2.623   0.585
43809SOL     OW33323   0.335   0.895   8.938
43809SOL    HW133324   0.387   0.889   9.018
43809SOL    HW233325   0.264   0.954   8.959
43810SOL     OW33326  13.938   7.888  13.041
43810SOL    HW133327  13.875   7.910  13.110
43810SOL    HW233328  13.953   7.970  12.994
43811SOL     OW33329   4.421   8.807  14.363
43811SOL    HW133330   4.349   8.857  14.402
43811SOL    HW233331   4.453   8.751  14.434
43812SOL     OW33332   6.006   1.254   6.705
43812SOL    HW133333   5.948   1.322   6.670
43812SOL    HW233334   6.006   1.186   6.637
43813SOL     OW33335  12.721   0.366  11.058
43813SOL    HW133336  12.728   0.283  11.105
43813SOL    HW233337  12.679   0.343  10.975
43814SOL     OW33338   6.605   4.066  10.645
43814SOL    HW133339   6.583   4.004  10.576
43814SOL    HW233340   6.615   4.011  10.723
43815SOL     OW33341  12.062   5.487  10.625
43815SOL    HW133342  12.061   5.413  10.565
43815SOL    HW233343  11.998   5.464  10.692
43816SOL     OW33344   5.352   9.576   2.165
43816SOL    HW133345   5.425   9.522   2.135
43816SOL    HW233346   5.298   9.516   2.217
43817SOL     OW33347   8.103  14.782  10.276
43817SOL    HW133348   8.054  14.852  10.234
43817SOL    HW233349   8.102  14.710  10.212
43818SOL     OW33350  10.564   5.909   8.525
43818SOL    HW133351  10.597   5.892   8.613
43818SOL    HW233352  10.605   5.992   8.499
43819SOL     OW33353  12.290   6.686   6.909
43819SOL    HW133354  12.264   6.688   6.817
43819SOL    HW233355  12.245   6.760   6.949
43820SOL     OW33356   5.186   7.962  14.306
43820SOL    HW133357   5.251   8.002  14.364
43820SOL    HW233358   5.191   8.014  14.226
43821SOL     OW33359   7.719   8.288   8.942
43821SOL    HW133360   7.692   8.208   8.988
43821SOL    HW233361   7.694   8.273   8.851
43822SOL     OW33362   1.851  12.083   9.873
43822SOL    HW133363   1.868  12.000   9.919
43822SOL    HW233364   1.865  12.062   9.781
43823SOL     OW33365  11.636  13.729   7.626
43823SOL    HW133366  11.579  13.657   7.599
43823SOL    HW233367  11.619  13.798   7.562
43824SOL     OW33368  12.407   4.954  12.152
43824SOL    HW133369  12.419   4.859  12.163
43824SOL    HW233370  12.464   4.993  12.219
43825SOL     OW33371   8.276   1.361   3.276
43825SOL    HW133372   8.342   1.429   3.292
43825SOL    HW233373   8.248   1.376   3.185
43826SOL     OW33374   5.849   0.071  10.830
43826SOL    HW133375   5.930   0.063  10.880
43826SOL    HW233376   5.877   0.069  10.739
43827SOL     OW33377   2.177   6.669   3.813
43827SOL    HW133378   2.224   6.586   3.827
43827SOL    HW233379   2.088   6.642   3.788
43828SOL     OW33380   1.585   7.449   5.115
43828SOL    HW133381   1.653   7.468   5.050
43828SOL    HW233382   1.576   7.530   5.165
43829SOL     OW33383   0.288   5.191   2.574
43829SOL    HW133384   0.283   5.263   2.511
43829SOL    HW233385   0.199   5.183   2.608
43830SOL     OW33386  10.105   9.521   9.219
43830SOL    HW133387  10.028   9.465   9.214
43830SOL    HW233388  10.095   9.583   9.147
43831SOL     OW33389   9.039  10.030   4.778
43831SOL    HW133390   8.997  10.016   4.863
43831SOL    HW233391   8.982   9.984   4.716
43832SOL     OW33392   3.660   8.724   8.465
43832SOL    HW133393   3.703   8.642   8.491
43832SOL    HW233394   3.698   8.745   8.380
43833SOL     OW33395   9.411  14.192   8.533
43833SOL    HW133396   9.495  14.145   8.533
43833SOL    HW233397   9.393  14.207   8.626
43834SOL     OW33398   6.544   8.324   5.927
43834SOL    HW133399   6.525   8.232   5.943
43834SOL    HW233400   6.470   8.371   5.966
43835SOL     OW33401  12.201   9.967  11.333
43835SOL    HW133402  12.232  10.025  11.403
43835SOL    HW233403  12.141   9.907  11.377
43836SOL     OW33404   1.609   3.321  13.981
43836SOL    HW133405   1.535   3.380  13.966
43836SOL    HW233406   1.570   3.242  14.019
43837SOL     OW33407   7.968   7.188   6.059
43837SOL    HW133408   8.010   7.197   5.973
43837SOL    HW233409   7.935   7.099   6.060
43838SOL     OW33410   5.545  11.895  13.471
43838SOL    HW133411   5.631  11.928  13.496
43838SOL    HW233412   5.562  11.808  13.436
43839SOL     OW33413   2.531   8.983   1.005
43839SOL    HW133414   2.554   9.067   1.047
43839SOL    HW233415   2.547   8.918   1.073
43840SOL     OW33416   7.124   6.703   9.491
43840SOL    HW133417   7.034   6.708   9.458
43840SOL    HW233418   7.141   6.790   9.528
43841SOL     OW33419   3.911   9.438   3.718
43841SOL    HW133420   3.861   9.409   3.642
43841SOL    HW233421   3.936   9.357   3.763
43842SOL     OW33422   9.106  14.008   1.229
43842SOL    HW133423   9.028  14.065   1.235
43842SOL    HW233424   9.132  14.014   1.137
43843SOL     OW33425   3.120   9.593  11.702
43843SOL    HW133426   3.091   9.506  11.730
43843SOL    HW233427   3.212   9.581  11.678
43844SOL     OW33428  13.469  12.981  11.344
43844SOL    HW133429  13.558  12.948  11.355
43844SOL    HW233430  13.479  13.077  11.349
43845SOL     OW33431   7.569   9.097   7.611
43845SOL    HW133432   7.534   9.012   7.638
43845SOL    HW233433   7.567   9.095   7.516
43846SOL     OW33434   2.890   0.411   4.379
43846SOL    HW133435   2.804   0.417   4.339
43846SOL    HW233436   2.951   0.435   4.309
43847SOL     OW33437   0.134   2.140  10.278
43847SOL    HW133438   0.107   2.172  10.192
43847SOL    HW233439   0.142   2.218  10.332
43848SOL     OW33440   1.794   9.769   6.633
43848SOL    HW133441   1.700   9.773   6.614
43848SOL    HW233442   1.799   9.719   6.715
43849SOL     OW33443   5.023  14.512  13.761
43849SOL    HW133444   4.939  14.535  13.721
43849SOL    HW233445   5.080  14.491  13.687
43850SOL     OW33446  14.270  12.841   8.960
43850SOL    HW133447  14.183  12.805   8.975
43850SOL    HW233448  14.327  12.764   8.953
43851SOL     OW33449  11.011  10.085  11.359
43851SOL    HW133450  10.940  10.110  11.417
43851SOL    HW233451  11.062  10.021  11.410
43852SOL     OW33452   0.803  12.406   4.035
43852SOL    HW133453   0.790  12.318   3.999
43852SOL    HW233454   0.884  12.399   4.085
43853SOL     OW33455   0.312   1.539   7.689
43853SOL    HW133456   0.222   1.572   7.681
43853SOL    HW233457   0.367   1.614   7.664
43854SOL     OW33458   8.681  13.253   1.444
43854SOL    HW133459   8.697  13.180   1.504
43854SOL    HW233460   8.768  13.289   1.427
43855SOL     OW33461   3.738   6.505   2.175
43855SOL    HW133462   3.664   6.551   2.215
43855SOL    HW233463   3.810   6.568   2.181
43856SOL     OW33464   7.487  12.652  14.662
43856SOL    HW133465   7.566  12.630  14.710
43856SOL    HW233466   7.453  12.567  14.632
43857SOL     OW33467   3.133   8.172   6.669
43857SOL    HW133468   3.055   8.222   6.644
43857SOL    HW233469   3.189   8.236   6.713
43858SOL     OW33470  11.064  13.638  11.781
43858SOL    HW133471  11.037  13.703  11.845
43858SOL    HW233472  11.000  13.567  11.790
43859SOL     OW33473   6.483   4.091   6.973
43859SOL    HW133474   6.543   4.098   7.048
43859SOL    HW233475   6.402   4.133   7.003
43860SOL     OW33476  10.987   8.383  11.439
43860SOL    HW133477  10.957   8.353  11.353
43860SOL    HW233478  10.997   8.478  11.431
43861SOL     OW33479  10.691   2.271  11.721
43861SOL    HW133480  10.744   2.313  11.788
43861SOL    HW233481  10.612   2.243  11.767
43862SOL     OW33482   9.826   8.475   9.706
43862SOL    HW133483   9.754   8.413   9.720
43862SOL    HW233484   9.804   8.550   9.762
43863SOL     OW33485   9.866   7.156   0.992
43863SOL    HW133486   9.874   7.201   1.076
43863SOL    HW233487   9.930   7.199   0.936
43864SOL     OW33488  13.967  11.048   5.684
43864SOL    HW133489  14.022  11.058   5.762
43864SOL    HW233490  14.022  10.998   5.623
43865SOL     OW33491   1.752   8.182   7.545
43865SOL    HW133492   1.762   8.275   7.567
43865SOL    HW233493   1.802   8.171   7.464
43866SOL     OW33494   0.373   4.907   0.967
43866SOL    HW133495   0.414   4.821   0.959
43866SOL    HW233496   0.311   4.898   1.039
43867SOL     OW33497   6.421   6.251  12.004
43867SOL    HW133498   6.382   6.206  11.929
43867SOL    HW233499   6.349   6.262  12.066
43868SOL     OW33500   9.411  10.442   7.665
43868SOL    HW133501   9.488  10.488   7.630
43868SOL    HW233502   9.373  10.399   7.589
43869SOL     OW33503   6.840   8.644   4.974
43869SOL    HW133504   6.804   8.556   4.988
43869SOL    HW233505   6.845   8.682   5.062
43870SOL     OW33506   3.922   7.598  12.171
43870SOL    HW133507   3.963   7.643  12.245
43870SOL    HW233508   3.863   7.663  12.133
43871SOL     OW33509  14.239   6.604   4.560
43871SOL    HW133510  14.172   6.672   4.551
43871SOL    HW233511  14.270   6.612   4.650
43872SOL     OW33512   8.671   8.331   2.417
43872SOL    HW133513   8.675   8.260   2.352
43872SOL    HW233514   8.658   8.286   2.500
43873SOL     OW33515  10.288   3.025  11.605
43873SOL    HW133516  10.334   2.954  11.560
43873SOL    HW233517  10.295   3.001  11.698
43874SOL     OW33518  14.119   9.556   2.297
43874SOL    HW133519  14.204   9.588   2.327
43874SOL    HW233520  14.061   9.632   2.305
43875SOL     OW33521   5.132  11.995  11.363
43875SOL    HW133522   5.130  11.899  11.372
43875SOL    HW233523   5.040  12.021  11.366
43876SOL     OW33524  11.434   1.187   1.466
43876SOL    HW133525  11.366   1.122   1.482
43876SOL    HW233526  11.386   1.270   1.460
43877SOL     OW33527  10.548   0.255   3.794
43877SOL    HW133528  10.604   0.257   3.716
43877SOL    HW233529  10.532   0.162   3.810
43878SOL     OW33530   6.006  10.025   5.721
43878SOL    HW133531   5.986   9.960   5.653
43878SOL    HW233532   5.956  10.102   5.695
43879SOL     OW33533   7.515   2.493  11.680
43879SOL    HW133534   7.606   2.467  11.699
43879SOL    HW233535   7.497   2.454  11.594
43880SOL     OW33536   2.911   1.411   8.709
43880SOL    HW133537   2.926   1.499   8.743
43880SOL    HW233538   2.868   1.365   8.780
43881SOL     OW33539   8.601   2.718   8.229
43881SOL    HW133540   8.597   2.774   8.152
43881SOL    HW233541   8.529   2.747   8.284
43882SOL     OW33542   6.660   3.016  13.834
43882SOL    HW133543   6.678   3.097  13.883
43882SOL    HW233544   6.649   2.950  13.902
43883SOL     OW33545   3.949   1.419   7.229
43883SOL    HW133546   3.904   1.447   7.309
43883SOL    HW233547   4.010   1.351   7.258
43884SOL     OW33548   3.942   8.235   6.624
43884SOL    HW133549   4.015   8.229   6.686
43884SOL    HW233550   3.871   8.187   6.667
43885SOL     OW33551   8.540   1.372   5.086
43885SOL    HW133552   8.632   1.357   5.103
43885SOL    HW233553   8.538   1.415   5.000
43886SOL     OW33554  11.039  12.301   7.478
43886SOL    HW133555  11.048  12.390   7.444
43886SOL    HW233556  11.089  12.247   7.418
43887SOL     OW33557   6.528   6.700  14.729
43887SOL    HW133558   6.549   6.781  14.776
43887SOL    HW233559   6.581   6.703  14.649
43888SOL     OW33560  14.842   0.227   5.966
43888SOL    HW133561   0.064   0.241   5.975
43888SOL    HW233562  14.803   0.276   6.038
43889SOL     OW33563   3.568   4.716   3.923
43889SOL    HW133564   3.607   4.733   3.837
43889SOL    HW233565   3.474   4.716   3.907
43890SOL     OW33566   0.541   3.543  14.046
43890SOL    HW133567   0.585   3.464  14.078
43890SOL    HW233568   0.451   3.536  14.078
43891SOL     OW33569   1.724   8.741   6.182
43891SOL    HW133570   1.793   8.700   6.235
43891SOL    HW233571   1.770   8.806   6.129
43892SOL     OW33572   4.280   1.566  13.393
43892SOL    HW133573   4.188   1.579  13.371
43892SOL    HW233574   4.301   1.637  13.453
43893SOL     OW33575   3.224   7.558   4.402
43893SOL    HW133576   3.207   7.646   4.436
43893SOL    HW233577   3.278   7.571   4.325
43894SOL     OW33578   0.703   2.426   5.312
43894SOL    HW133579   0.712   2.471   5.228
43894SOL    HW233580   0.609   2.426   5.329
43895SOL     OW33581   1.805   3.534  13.276
43895SOL    HW133582   1.792   3.446  13.239
43895SOL    HW233583   1.723   3.553  13.321
43896SOL     OW33584  11.268   7.265   2.827
43896SOL    HW133585  11.236   7.224   2.747
43896SOL    HW233586  11.235   7.210   2.897
43897SOL     OW33587   5.047   2.501   4.683
43897SOL    HW133588   5.064   2.440   4.754
43897SOL    HW233589   4.962   2.475   4.648
43898SOL     OW33590   8.665   9.852   1.368
43898SOL    HW133591   8.687   9.864   1.461
43898SOL    HW233592   8.637   9.760   1.362
43899SOL     OW33593  11.409   2.950   9.463
43899SOL    HW133594  11.321   2.981   9.443
43899SOL    HW233595  11.467   3.011   9.416
43900SOL     OW33596   5.081  13.868  10.765
43900SOL    HW133597   5.173  13.860  10.792
43900SOL    HW233598   5.061  13.785  10.722
43901SOL     OW33599  12.819   9.817   0.507
43901SOL    HW133600  12.827   9.743   0.566
43901SOL    HW233601  12.798   9.892   0.563
43902SOL     OW33602   4.601   8.409  10.357
43902SOL    HW133603   4.541   8.396  10.430
43902SOL    HW233604   4.659   8.480  10.386
43903SOL     OW33605  13.435  12.710  13.173
43903SOL    HW133606  13.417  12.653  13.098
43903SOL    HW233607  13.511  12.761  13.146
43904SOL     OW33608   1.303   8.334   1.420
43904SOL    HW133609   1.222   8.317   1.373
43904SOL    HW233610   1.303   8.271   1.492
43905SOL     OW33611   7.719  11.581  14.026
43905SOL    HW133612   7.659  11.655  14.039
43905SOL    HW233613   7.791  11.618  13.974
43906SOL     OW33614   4.458   4.768   7.033
43906SOL    HW133615   4.487   4.789   7.121
43906SOL    HW233616   4.528   4.800   6.976
43907SOL     OW33617   7.568  10.928   8.912
43907SOL    HW133618   7.513  10.861   8.871
43907SOL    HW233619   7.556  11.006   8.859
43908SOL     OW33620  10.454   6.733   5.188
43908SOL    HW133621  10.522   6.693   5.241
43908SOL    HW233622  10.460   6.827   5.207
43909SOL     OW33623  11.636   5.519  11.867
43909SOL    HW133624  11.629   5.610  11.838
43909SOL    HW233625  11.673   5.473  11.792
43910SOL     OW33626   3.433   1.607   8.564
43910SOL    HW133627   3.452   1.621   8.471
43910SOL    HW233628   3.493   1.537   8.590
43911SOL     OW33629  13.664  10.961   8.050
43911SOL    HW133630  13.736  10.964   8.114
43911SOL    HW233631  13.691  11.022   7.981
43912SOL     OW33632  14.695   9.340   8.449
43912SOL    HW133633  14.774   9.308   8.404
43912SOL    HW233634  14.623   9.298   8.401
43913SOL     OW33635   7.334  13.977   1.325
43913SOL    HW133636   7.425  13.968   1.297
43913SOL    HW233637   7.283  13.946   1.250
43914SOL     OW33638   9.875   9.110  11.439
43914SOL    HW133639   9.816   9.055  11.388
43914SOL    HW233640   9.958   9.063  11.439
43915SOL     OW33641   6.477  11.865   4.931
43915SOL    HW133642   6.499  11.902   5.016
43915SOL    HW233643   6.485  11.939   4.870
43916SOL     OW33644   9.643   3.197   5.310
43916SOL    HW133645   9.703   3.242   5.251
43916SOL    HW233646   9.696   3.175   5.386
43917SOL     OW33647   2.345   6.958   9.597
43917SOL    HW133648   2.295   7.025   9.550
43917SOL    HW233649   2.433   6.964   9.560
43918SOL     OW33650   9.863   9.522  11.261
43918SOL    HW133651   9.873   9.488  11.172
43918SOL    HW233652   9.774   9.497  11.286
43919SOL     OW33653   0.277   5.016  11.045
43919SOL    HW133654   0.367   5.022  11.011
43919SOL    HW233655   0.243   5.105  11.039
43920SOL     OW33656  10.386  12.759   1.044
43920SOL    HW133657  10.481  12.760   1.055
43920SOL    HW233658  10.369  12.828   0.979
43921SOL     OW33659   0.603  11.436   2.596
43921SOL    HW133660   0.601  11.343   2.618
43921SOL    HW233661   0.664  11.474   2.659
43922SOL     OW33662   8.741   9.804   9.133
43922SOL    HW133663   8.749   9.860   9.056
43922SOL    HW233664   8.700   9.724   9.099
43923SOL     OW33665   9.472   7.074   5.329
43923SOL    HW133666   9.537   7.030   5.274
43923SOL    HW233667   9.496   7.050   5.419
43924SOL     OW33668  11.334   0.346   4.698
43924SOL    HW133669  11.418   0.301   4.711
43924SOL    HW233670  11.269   0.283   4.728
43925SOL     OW33671  12.688   0.772  13.101
43925SOL    HW133672  12.642   0.825  13.167
43925SOL    HW233673  12.628   0.768  13.027
43926SOL     OW33674  11.330   8.147   4.312
43926SOL    HW133675  11.364   8.207   4.378
43926SOL    HW233676  11.392   8.074   4.311
43927SOL     OW33677   5.872   1.059   0.529
43927SOL    HW133678   5.892   1.060   0.436
43927SOL    HW233679   5.777   1.050   0.533
43928SOL     OW33680   5.464   7.459  10.069
43928SOL    HW133681   5.552   7.494  10.060
43928SOL    HW233682   5.407   7.534  10.052
43929SOL     OW33683   4.609   5.425   9.141
43929SOL    HW133684   4.525   5.442   9.098
43929SOL    HW233685   4.588   5.365   9.213
43930SOL     OW33686  14.093  11.560   1.158
43930SOL    HW133687  14.174  11.578   1.110
43930SOL    HW233688  14.024  11.598   1.104
43931SOL     OW33689   1.179   1.508   9.084
43931SOL    HW133690   1.206   1.577   9.022
43931SOL    HW233691   1.138   1.555   9.156
43932SOL     OW33692   5.358   1.946   4.853
43932SOL    HW133693   5.388   1.890   4.782
43932SOL    HW233694   5.356   2.034   4.815
43933SOL     OW33695   8.158   7.073   5.844
43933SOL    HW133696   8.100   7.034   5.779
43933SOL    HW233697   8.219   7.125   5.792
43934SOL     OW33698   1.970  13.947   7.908
43934SOL    HW133699   2.020  13.943   7.826
43934SOL    HW233700   1.996  13.869   7.956
43935SOL     OW33701  13.399  11.358  12.826
43935SOL    HW133702  13.376  11.313  12.908
43935SOL    HW233703  13.400  11.451  12.850
43936SOL     OW33704   0.595   4.477   4.526
43936SOL    HW133705   0.602   4.419   4.602
43936SOL    HW233706   0.681   4.519   4.520
43937SOL     OW33707  11.467   4.620   4.974
43937SOL    HW133708  11.430   4.645   4.889
43937SOL    HW233709  11.487   4.527   4.965
43938SOL     OW33710   4.661  13.933   8.176
43938SOL    HW133711   4.638  13.862   8.236
43938SOL    HW233712   4.620  14.011   8.213
43939SOL     OW33713   7.655  11.996   1.597
43939SOL    HW133714   7.627  12.061   1.661
43939SOL    HW233715   7.734  11.958   1.635
43940SOL     OW33716   8.846   9.447   5.827
43940SOL    HW133717   8.792   9.502   5.770
43940SOL    HW233718   8.794   9.367   5.839
43941SOL     OW33719   7.010   3.124  14.107
43941SOL    HW133720   7.063   3.140  14.184
43941SOL    HW233721   6.920   3.120  14.140
43942SOL     OW33722   7.396   6.759   0.405
43942SOL    HW133723   7.375   6.836   0.353
43942SOL    HW233724   7.411   6.793   0.493
43943SOL     OW33725   7.285   8.100  14.725
43943SOL    HW133726   7.306   8.096  14.818
43943SOL    HW233727   7.260   8.010  14.702
43944SOL     OW33728  14.050   0.235  13.996
43944SOL    HW133729  13.987   0.172  13.960
43944SOL    HW233730  14.110   0.253  13.923
43945SOL     OW33731  10.954   6.185   3.738
43945SOL    HW133732  11.037   6.233   3.731
43945SOL    HW233733  10.979   6.101   3.777
43946SOL     OW33734   0.627  11.239   7.694
43946SOL    HW133735   0.626  11.335   7.700
43946SOL    HW233736   0.708  11.213   7.737
43947SOL     OW33737  12.564   5.624   2.519
43947SOL    HW133738  12.610   5.683   2.460
43947SOL    HW233739  12.628   5.603   2.587
43948SOL     OW33740   5.150   0.184   8.625
43948SOL    HW133741   5.158   0.155   8.534
43948SOL    HW233742   5.060   0.164   8.649
43949SOL     OW33743   0.982  13.627   3.509
43949SOL    HW133744   1.008  13.667   3.592
43949SOL    HW233745   1.050  13.654   3.447
43950SOL     OW33746   7.095   2.271   8.408
43950SOL    HW133747   7.092   2.175   8.416
43950SOL    HW233748   7.004   2.297   8.392
43951SOL     OW33749  12.860   2.995   5.614
43951SOL    HW133750  12.919   2.924   5.638
43951SOL    HW233751  12.871   3.060   5.682
43952SOL     OW33752  13.651  10.393   0.201
43952SOL    HW133753  13.659  10.298   0.199
43952SOL    HW233754  13.724  10.422   0.256
43953SOL     OW33755   2.405   3.501   3.632
43953SOL    HW133756   2.329   3.556   3.614
43953SOL    HW233757   2.371   3.411   3.630
43954SOL     OW33758   5.533  10.261   6.941
43954SOL    HW133759   5.587  10.218   6.875
43954SOL    HW233760   5.533  10.200   7.015
43955SOL     OW33761  13.700  12.731   2.900
43955SOL    HW133762  13.646  12.705   2.826
43955SOL    HW233763  13.779  12.769   2.860
43956SOL     OW33764   1.882   4.283   3.553
43956SOL    HW133765   1.895   4.276   3.458
43956SOL    HW233766   1.847   4.371   3.566
43957SOL     OW33767  14.407   8.225  11.746
43957SOL    HW133768  14.429   8.196  11.835
43957SOL    HW233769  14.446   8.158  11.689
43958SOL     OW33770   5.976  14.818  14.278
43958SOL    HW133771   6.070  14.801  14.276
43958SOL    HW233772   5.936  14.731  14.281
43959SOL     OW33773   7.126   4.254   4.450
43959SOL    HW133774   7.174   4.171   4.455
43959SOL    HW233775   7.060   4.239   4.382
43960SOL     OW33776  13.450  14.276   5.052
43960SOL    HW133777  13.395  14.284   5.129
43960SOL    HW233778  13.462  14.182   5.039
43961SOL     OW33779   2.525   6.193   4.496
43961SOL    HW133780   2.453   6.200   4.559
43961SOL    HW233781   2.591   6.140   4.542
43962SOL     OW33782  10.351  13.709   3.431
43962SOL    HW133783  10.328  13.795   3.466
43962SOL    HW233784  10.432  13.723   3.382
43963SOL     OW33785   9.713  10.899  12.369
43963SOL    HW133786   9.782  10.962  12.394
43963SOL    HW233787   9.642  10.954  12.337
43964SOL     OW33788   0.969   3.370  12.049
43964SOL    HW133789   0.922   3.358  12.132
43964SOL    HW233790   1.042   3.428  12.071
43965SOL     OW33791   5.102   3.505  10.495
43965SOL    HW133792   5.019   3.549  10.513
43965SOL    HW233793   5.119   3.454  10.574
43966SOL     OW33794   2.588   6.883  11.793
43966SOL    HW133795   2.589   6.918  11.882
43966SOL    HW233796   2.680   6.881  11.767
43967SOL     OW33797  12.993  14.710   5.926
43967SOL    HW133798  13.029  14.731   5.840
43967SOL    HW233799  12.923  14.647   5.908
43968SOL     OW33800   8.290  13.169   7.341
43968SOL    HW133801   8.216  13.131   7.293
43968SOL    HW233802   8.257  13.183   7.430
43969SOL     OW33803   9.155   3.820   9.950
43969SOL    HW133804   9.157   3.820  10.046
43969SOL    HW233805   9.076   3.772   9.927
43970SOL     OW33806   5.305  11.550   5.900
43970SOL    HW133807   5.236  11.616   5.900
43970SOL    HW233808   5.261  11.470   5.871
43971SOL     OW33809   5.492   8.645  11.113
43971SOL    HW133810   5.544   8.696  11.175
43971SOL    HW233811   5.549   8.572  11.088
43972SOL     OW33812  12.878  13.252   7.395
43972SOL    HW133813  12.938  13.315   7.356
43972SOL    HW233814  12.858  13.289   7.481
43973SOL     OW33815  10.555  10.090   1.814
43973SOL    HW133816  10.614  10.014   1.819
43973SOL    HW233817  10.567  10.135   1.897
43974SOL     OW33818   0.026  12.079  12.254
43974SOL    HW133819   0.006  12.026  12.331
43974SOL    HW233820   0.120  12.095  12.260
43975SOL     OW33821   9.739   6.662  12.956
43975SOL    HW133822   9.794   6.738  12.939
43975SOL    HW233823   9.780   6.619  13.032
43976SOL     OW33824   5.949  14.794   2.193
43976SOL    HW133825   6.003  14.816   2.117
43976SOL    HW233826   5.866  14.765   2.157
43977SOL     OW33827   2.328  14.134   9.333
43977SOL    HW133828   2.244  14.161   9.294
43977SOL    HW233829   2.362  14.215   9.372
43978SOL     OW33830  13.829   9.123  11.382
43978SOL    HW133831  13.847   9.052  11.321
43978SOL    HW233832  13.772   9.083  11.448
43979SOL     OW33833  12.543   9.208  10.433
43979SOL    HW133834  12.454   9.193  10.464
43979SOL    HW233835  12.567   9.293  10.468
43980SOL     OW33836   0.074  13.317  10.721
43980SOL    HW133837   0.143  13.371  10.760
43980SOL    HW233838   0.089  13.323  10.626
43981SOL     OW33839  13.950   3.649  12.798
43981SOL    HW133840  13.920   3.700  12.874
43981SOL    HW233841  13.979   3.566  12.836
43982SOL     OW33842  13.158   4.657   5.179
43982SOL    HW133843  13.108   4.707   5.243
43982SOL    HW233844  13.172   4.717   5.106
43983SOL     OW33845   6.425   3.831   1.556
43983SOL    HW133846   6.423   3.926   1.566
43983SOL    HW233847   6.384   3.797   1.636
43984SOL     OW33848   0.060   9.554   5.772
43984SOL    HW133849   0.058   9.594   5.685
43984SOL    HW233850   0.118   9.611   5.823
43985SOL     OW33851  12.370   4.904   1.400
43985SOL    HW133852  12.407   4.964   1.336
43985SOL    HW233853  12.346   4.959   1.474
43986SOL     OW33854   9.153  11.531   1.887
43986SOL    HW133855   9.096  11.572   1.822
43986SOL    HW233856   9.236  11.517   1.841
43987SOL     OW33857   2.150   2.136   9.602
43987SOL    HW133858   2.115   2.172   9.520
43987SOL    HW233859   2.212   2.203   9.633
43988SOL     OW33860  10.209   8.022  13.389
43988SOL    HW133861  10.245   8.083  13.454
43988SOL    HW233862  10.206   8.072  13.308
43989SOL     OW33863  12.002   0.024   8.268
43989SOL    HW133864  11.997  14.802   8.249
43989SOL    HW233865  11.948   0.065   8.201
43990SOL     OW33866   1.677   0.817  11.266
43990SOL    HW133867   1.620   0.886  11.233
43990SOL    HW233868   1.629   0.736  11.247
43991SOL     OW33869   0.047   0.059   2.338
43991SOL    HW133870   0.084   0.055   2.426
43991SOL    HW233871   0.049  14.841   2.307
43992SOL     OW33872  11.883   0.197   7.714
43992SOL    HW133873  11.855   0.114   7.752
43992SOL    HW233874  11.914   0.175   7.626
43993SOL     OW33875  12.813   8.734   9.268
43993SOL    HW133876  12.873   8.672   9.310
43993SOL    HW233877  12.784   8.689   9.189
43994SOL     OW33878   6.885  13.681   8.710
43994SOL    HW133879   6.942  13.733   8.653
43994SOL    HW233880   6.822  13.641   8.650
43995SOL     OW33881   9.568  14.570  10.573
43995SOL    HW133882   9.599  14.658  10.550
43995SOL    HW233883   9.610  14.513  10.508
43996SOL     OW33884  14.365   1.095  10.339
43996SOL    HW133885  14.353   1.119  10.247
43996SOL    HW233886  14.453   1.057  10.343
43997SOL     OW33887   3.567   0.342  12.141
43997SOL    HW133888   3.625   0.307  12.074
43997SOL    HW233889   3.526   0.264  12.180
43998SOL     OW33890  13.448   5.947   4.804
43998SOL    HW133891  13.443   6.042   4.791
43998SOL    HW233892  13.382   5.911   4.745
43999SOL     OW33893   1.872   0.292  14.474
43999SOL    HW133894   1.956   0.268  14.513
43999SOL    HW233895   1.846   0.215  14.424
44000SOL     OW33896   6.604   7.780   1.357
44000SOL    HW133897   6.689   7.809   1.325
44000SOL    HW233898   6.623   7.701   1.409
44001SOL     OW33899  14.205   8.036  14.837
44001SOL    HW133900  14.274   8.103  14.831
44001SOL    HW233901  14.249   7.954  14.813
44002SOL     OW33902  10.224   1.687   3.746
44002SOL    HW133903  10.310   1.728   3.743
44002SOL    HW233904  10.231   1.613   3.685
44003SOL     OW33905  10.638   2.896   0.324
44003SOL    HW133906  10.562   2.893   0.382
44003SOL    HW233907  10.651   2.989   0.306
44004SOL     OW33908  13.390   1.274   6.843
44004SOL    HW133909  13.408   1.247   6.933
44004SOL    HW233910  13.303   1.236   6.825
44005SOL     OW33911   9.364   5.087   2.537
44005SOL    HW133912   9.453   5.119   2.553
44005SOL    HW233913   9.370   5.040   2.453
44006SOL     OW33914   2.721  13.733   2.709
44006SOL    HW133915   2.722  13.665   2.777
44006SOL    HW233916   2.762  13.809   2.750
44007SOL     OW33917   6.098   1.144   6.257
44007SOL    HW133918   6.128   1.235   6.254
44007SOL    HW233919   6.179   1.092   6.255
44008SOL     OW33920   7.117   3.301   7.965
44008SOL    HW133921   7.120   3.225   7.906
44008SOL    HW233922   7.036   3.346   7.941
44009SOL     OW33923   4.471   9.811   5.838
44009SOL    HW133924   4.487   9.823   5.932
44009SOL    HW233925   4.385   9.769   5.834
44010SOL     OW33926   3.477   6.837   6.790
44010SOL    HW133927   3.526   6.781   6.850
44010SOL    HW233928   3.439   6.905   6.845
44011SOL     OW33929   2.264  10.764   0.001
44011SOL    HW133930   2.270  10.774  14.778
44011SOL    HW233931   2.342  10.808   0.035
44012SOL     OW33932  14.284   9.878   2.017
44012SOL    HW133933  14.370   9.916   2.029
44012SOL    HW233934  14.301   9.789   1.985
44013SOL     OW33935   5.005   2.191   1.984
44013SOL    HW133936   5.092   2.192   2.023
44013SOL    HW233937   5.013   2.249   1.907
44014SOL     OW33938   3.152   9.379   4.225
44014SOL    HW133939   3.096   9.362   4.301
44014SOL    HW233940   3.234   9.333   4.245
44015SOL     OW33941   6.908   3.087  10.281
44015SOL    HW133942   6.910   2.992  10.271
44015SOL    HW233943   6.940   3.102  10.370
44016SOL     OW33944  11.405  10.083   7.051
44016SOL    HW133945  11.404  10.093   6.956
44016SOL    HW233946  11.327  10.029   7.070
44017SOL     OW33947   9.345   5.859   0.901
44017SOL    HW133948   9.394   5.844   0.820
44017SOL    HW233949   9.357   5.779   0.952
44018SOL     OW33950  12.033   2.393   4.856
44018SOL    HW133951  11.941   2.418   4.841
44018SOL    HW233952  12.037   2.376   4.950
44019SOL     OW33953  12.280   2.446   8.013
44019SOL    HW133954  12.197   2.404   8.036
44019SOL    HW233955  12.345   2.376   8.020
44020SOL     OW33956  12.364  11.139   4.416
44020SOL    HW133957  12.402  11.224   4.390
44020SOL    HW233958  12.436  11.077   4.407
44021SOL     OW33959   4.880   5.660   6.553
44021SOL    HW133960   4.796   5.704   6.560
44021SOL    HW233961   4.922   5.700   6.477
44022SOL     OW33962   8.110   5.298   6.083
44022SOL    HW133963   8.108   5.228   6.148
44022SOL    HW233964   8.050   5.364   6.117
44023SOL     OW33965  14.237  12.107   1.162
44023SOL    HW133966  14.281  12.102   1.077
44023SOL    HW233967  14.278  12.037   1.214
44024SOL     OW33968   6.700   0.849   7.853
44024SOL    HW133969   6.644   0.896   7.914
44024SOL    HW233970   6.642   0.829   7.779
44025SOL     OW33971   4.153   9.266   7.556
44025SOL    HW133972   4.121   9.206   7.623
44025SOL    HW233973   4.208   9.211   7.499
44026SOL     OW33974   5.933  13.223  10.491
44026SOL    HW133975   5.961  13.133  10.472
44026SOL    HW233976   5.863  13.213  10.555
44027SOL     OW33977   7.730  13.755   0.686
44027SOL    HW133978   7.739  13.673   0.638
44027SOL    HW233979   7.645  13.748   0.731
44028SOL     OW33980   9.260   3.067   9.010
44028SOL    HW133981   9.251   3.075   8.915
44028SOL    HW233982   9.334   3.007   9.022
44029SOL     OW33983   1.362  13.376  13.300
44029SOL    HW133984   1.302  13.405  13.231
44029SOL    HW233985   1.321  13.404  13.381
44030SOL     OW33986   6.278   8.278   1.281
44030SOL    HW133987   6.232   8.311   1.358
44030SOL    HW233988   6.361   8.326   1.280
44031SOL     OW33989   0.974   6.124  10.725
44031SOL    HW133990   1.000   6.194  10.786
44031SOL    HW233991   1.011   6.152  10.641
44032SOL     OW33992   1.918   2.553   3.194
44032SOL    HW133993   1.969   2.516   3.267
44032SOL    HW233994   1.902   2.644   3.220
44033SOL     OW33995  13.130   3.683  14.858
44033SOL    HW133996  13.109   3.720  14.773
44033SOL    HW233997  13.202   3.737   0.019
44034SOL     OW33998   1.790   7.888   4.053
44034SOL    HW133999   1.829   7.975   4.046
44034SOL    HW234000   1.763   7.866   3.964
44035SOL     OW34001   5.558  11.344  10.918
44035SOL    HW134002   5.487  11.282  10.906
44035SOL    HW234003   5.637  11.290  10.913
44036SOL     OW34004   8.271   2.149  10.892
44036SOL    HW134005   8.329   2.138  10.968
44036SOL    HW234006   8.228   2.233  10.907
44037SOL     OW34007   1.149   5.058   8.017
44037SOL    HW134008   1.171   5.148   7.991
44037SOL    HW234009   1.170   5.054   8.110
44038SOL     OW34010   9.044   5.326  13.464
44038SOL    HW134011   9.135   5.300  13.451
44038SOL    HW234012   8.998   5.245  13.484
44039SOL     OW34013   4.210   7.203   5.200
44039SOL    HW134014   4.218   7.244   5.287
44039SOL    HW234015   4.269   7.128   5.204
44040SOL     OW34016  12.064   6.827   6.486
44040SOL    HW134017  12.045   6.921   6.486
44040SOL    HW234018  12.120   6.814   6.409
44041SOL     OW34019  10.620   5.165  13.823
44041SOL    HW134020  10.542   5.217  13.801
44041SOL    HW234021  10.650   5.200  13.906
44042SOL     OW34022  11.106   1.576   0.032
44042SOL    HW134023  11.018   1.569   0.068
44042SOL    HW234024  11.113   1.500  14.845
44043SOL     OW34025   8.590  14.256  11.821
44043SOL    HW134026   8.589  14.350  11.803
44043SOL    HW234027   8.623  14.249  11.911
44044SOL     OW34028   9.777   8.220   3.831
44044SOL    HW134029   9.801   8.303   3.791
44044SOL    HW234030   9.723   8.175   3.765
44045SOL     OW34031   0.223   9.657   8.902
44045SOL    HW134032   0.245   9.619   8.817
44045SOL    HW234033   0.231   9.583   8.963
44046SOL     OW34034   1.430   1.067   8.935
44046SOL    HW134035   1.361   1.066   8.869
44046SOL    HW234036   1.388   1.101   9.014
44047SOL     OW34037  14.126   7.271   2.338
44047SOL    HW134038  14.033   7.250   2.348
44047SOL    HW234039  14.162   7.266   2.426
44048SOL     OW34040  14.290   5.923  14.683
44048SOL    HW134041  14.263   5.967  14.763
44048SOL    HW234042  14.377   5.957  14.664
44049SOL     OW34043   4.048   4.138   4.045
44049SOL    HW134044   4.117   4.072   4.047
44049SOL    HW234045   4.053   4.181   4.130
44050SOL     OW34046  12.897  13.387   9.283
44050SOL    HW134047  12.959  13.446   9.242
44050SOL    HW234048  12.867  13.434   9.361
44051SOL     OW34049   4.200   7.278   6.177
44051SOL    HW134050   4.118   7.289   6.225
44051SOL    HW234051   4.230   7.190   6.201
44052SOL     OW34052   2.852   7.753  11.900
44052SOL    HW134053   2.923   7.762  11.964
44052SOL    HW234054   2.805   7.675  11.928
44053SOL     OW34055   7.702   4.526   3.917
44053SOL    HW134056   7.737   4.547   3.831
44053SOL    HW234057   7.759   4.572   3.979
44054SOL     OW34058   7.057   8.327  11.266
44054SOL    HW134059   7.048   8.275  11.346
44054SOL    HW234060   6.988   8.294  11.208
44055SOL     OW34061   0.735  11.924  12.153
44055SOL    HW134062   0.709  11.834  12.172
44055SOL    HW234063   0.775  11.921  12.067
44056SOL     OW34064  12.498  14.135   8.662
44056SOL    HW134065  12.457  14.209   8.617
44056SOL    HW234066  12.485  14.154   8.755
44057SOL     OW34067   6.768  12.037   2.526
44057SOL    HW134068   6.679  12.072   2.528
44057SOL    HW234069   6.824  12.112   2.547
44058SOL     OW34070   4.370   0.291   0.775
44058SOL    HW134071   4.441   0.227   0.765
44058SOL    HW234072   4.414   0.376   0.777
44059SOL     OW34073  11.856   9.902  12.212
44059SOL    HW134074  11.782   9.869  12.264
44059SOL    HW234075  11.932   9.894  12.271
44060SOL     OW34076   9.866  13.929  11.623
44060SOL    HW134077   9.786  13.948  11.575
44060SOL    HW234078   9.837  13.908  11.711
44061SOL     OW34079  13.614   6.179  14.297
44061SOL    HW134080  13.644   6.125  14.224
44061SOL    HW234081  13.520   6.160  14.304
44062SOL     OW34082   4.156   2.975   6.155
44062SOL    HW134083   4.205   2.897   6.128
44062SOL    HW234084   4.079   2.976   6.097
44063SOL     OW34085  12.196  11.120  14.560
44063SOL    HW134086  12.255  11.098  14.632
44063SOL    HW234087  12.113  11.140  14.603
44064SOL     OW34088   8.557  10.249   2.979
44064SOL    HW134089   8.597  10.262   3.065
44064SOL    HW234090   8.469  10.286   2.987
44065SOL     OW34091   4.255   9.540   6.772
44065SOL    HW134092   4.278   9.451   6.747
44065SOL    HW234093   4.162   9.548   6.749
44066SOL     OW34094   8.404  14.508   4.763
44066SOL    HW134095   8.450  14.453   4.827
44066SOL    HW234096   8.351  14.567   4.816
44067SOL     OW34097   1.931   1.639   8.016
44067SOL    HW134098   2.008   1.696   8.006
44067SOL    HW234099   1.961   1.569   8.074
44068SOL     OW34100   6.999   0.527   3.197
44068SOL    HW134101   6.959   0.534   3.111
44068SOL    HW234102   6.965   0.445   3.233
44069SOL     OW34103   6.991   6.667   0.878
44069SOL    HW134104   7.062   6.728   0.860
44069SOL    HW234105   7.020   6.618   0.955
44070SOL     OW34106  11.134   0.782   6.360
44070SOL    HW134107  11.104   0.691   6.360
44070SOL    HW234108  11.062   0.830   6.319
44071SOL     OW34109  14.584   7.362   6.755
44071SOL    HW134110  14.564   7.299   6.686
44071SOL    HW234111  14.502   7.410   6.768
44072SOL     OW34112   5.881   2.522  10.798
44072SOL    HW134113   5.961   2.473  10.813
44072SOL    HW234114   5.852   2.548  10.885
44073SOL     OW34115   5.993   2.559   2.669
44073SOL    HW134116   6.046   2.637   2.652
44073SOL    HW234117   5.947   2.578   2.751
44074SOL     OW34118  13.918   7.791  14.857
44074SOL    HW134119  13.986   7.724  14.856
44074SOL    HW234120  13.851   7.758  14.798
44075SOL     OW34121   5.054   6.659   4.855
44075SOL    HW134122   5.073   6.586   4.914
44075SOL    HW234123   5.112   6.644   4.780
44076SOL     OW34124   0.676  14.316  12.804
44076SOL    HW134125   0.707  14.235  12.844
44076SOL    HW234126   0.689  14.303  12.710
44077SOL     OW34127  12.688  10.565   3.865
44077SOL    HW134128  12.647  10.516   3.794
44077SOL    HW234129  12.763  10.609   3.823
44078SOL     OW34130   4.453   4.845   7.950
44078SOL    HW134131   4.534   4.811   7.911
44078SOL    HW234132   4.409   4.769   7.986
44079SOL     OW34133  14.602  11.423   8.312
44079SOL    HW134134  14.629  11.510   8.284
44079SOL    HW234135  14.589  11.432   8.407
44080SOL     OW34136   2.043  10.549  12.004
44080SOL    HW134137   2.114  10.608  11.976
44080SOL    HW234138   1.963  10.600  11.991
44081SOL     OW34139   9.955  12.458   5.812
44081SOL    HW134140  10.007  12.463   5.732
44081SOL    HW234141   9.890  12.528   5.802
44082SOL     OW34142   0.836  11.483  10.195
44082SOL    HW134143   0.864  11.415  10.257
44082SOL    HW234144   0.814  11.558  10.251
44083SOL     OW34145   9.667  11.281   4.999
44083SOL    HW134146   9.706  11.369   5.002
44083SOL    HW234147   9.717  11.230   5.062
44084SOL     OW34148   2.764   9.003   5.246
44084SOL    HW134149   2.678   8.981   5.210
44084SOL    HW234150   2.761   8.971   5.336
44085SOL     OW34151   8.612   2.805   4.138
44085SOL    HW134152   8.674   2.839   4.203
44085SOL    HW234153   8.550   2.877   4.124
44086SOL     OW34154  12.565   7.524   7.848
44086SOL    HW134155  12.554   7.429   7.839
44086SOL    HW234156  12.557   7.558   7.759
44087SOL     OW34157   1.823   5.556   7.074
44087SOL    HW134158   1.729   5.552   7.060
44087SOL    HW234159   1.836   5.523   7.163
44088SOL     OW34160  12.230  13.356  13.450
44088SOL    HW134161  12.323  13.371  13.466
44088SOL    HW234162  12.200  13.435  13.405
44089SOL     OW34163   0.422   1.135   2.990
44089SOL    HW134164   0.494   1.113   2.931
44089SOL    HW234165   0.362   1.188   2.936
44090SOL     OW34166   9.521   5.171   2.131
44090SOL    HW134167   9.532   5.099   2.194
44090SOL    HW234168   9.469   5.236   2.179
44091SOL     OW34169   0.669  11.168   1.621
44091SOL    HW134170   0.751  11.161   1.670
44091SOL    HW234171   0.691  11.222   1.545
44092SOL     OW34172   4.159   8.107   6.430
44092SOL    HW134173   4.112   8.147   6.503
44092SOL    HW234174   4.206   8.179   6.389
44093SOL     OW34175  14.826  14.596   7.641
44093SOL    HW134176  14.848  14.661   7.575
44093SOL    HW234177  14.747  14.631   7.683
44094SOL     OW34178   7.448  12.529  12.500
44094SOL    HW134179   7.377  12.591  12.487
44094SOL    HW234180   7.406  12.443  12.491
44095SOL     OW34181   8.015  11.516  10.908
44095SOL    HW134182   7.982  11.480  10.990
44095SOL    HW234183   7.960  11.476  10.840
44096SOL     OW34184   5.257   7.428  12.577
44096SOL    HW134185   5.165   7.441  12.602
44096SOL    HW234186   5.304   7.422  12.660
44097SOL     OW34187   8.964  11.077   0.173
44097SOL    HW134188   9.038  11.136   0.159
44097SOL    HW234189   9.003  10.997   0.209
44098SOL     OW34190  13.382   7.009  13.160
44098SOL    HW134191  13.359   7.059  13.082
44098SOL    HW234192  13.429   6.933  13.128
44099SOL     OW34193   7.677   9.633   7.712
44099SOL    HW134194   7.671   9.540   7.733
44099SOL    HW234195   7.769   9.646   7.690
44100SOL     OW34196   6.196   2.274   8.928
44100SOL    HW134197   6.275   2.260   8.980
44100SOL    HW234198   6.161   2.358   8.960
44101SOL     OW34199   4.642   9.541   1.265
44101SOL    HW134200   4.615   9.570   1.178
44101SOL    HW234201   4.653   9.622   1.315
44102SOL     OW34202   2.715   6.700   5.641
44102SOL    HW134203   2.726   6.777   5.697
44102SOL    HW234204   2.700   6.628   5.703
44103SOL     OW34205  14.517  14.202   7.863
44103SOL    HW134206  14.500  14.113   7.831
44103SOL    HW234207  14.484  14.258   7.793
44104SOL     OW34208   1.638  11.676   5.403
44104SOL    HW134209   1.700  11.684   5.331
44104SOL    HW234210   1.552  11.682   5.360
44105SOL     OW34211   5.057   2.406  10.813
44105SOL    HW134212   5.104   2.388  10.895
44105SOL    HW234213   5.101   2.351  10.748
44106SOL     OW34214   9.230   1.440   1.867
44106SOL    HW134215   9.165   1.427   1.798
44106SOL    HW234216   9.292   1.368   1.855
44107SOL     OW34217   0.800  10.378   0.651
44107SOL    HW134218   0.832  10.363   0.562
44107SOL    HW234219   0.784  10.472   0.655
44108SOL     OW34220  14.664   3.620  10.375
44108SOL    HW134221  14.734   3.683  10.387
44108SOL    HW234222  14.696   3.540  10.419
44109SOL     OW34223   8.750  12.359  12.021
44109SOL    HW134224   8.800  12.282  11.995
44109SOL    HW234225   8.766  12.367  12.115
44110SOL     OW34226   4.839   3.327  10.750
44110SOL    HW134227   4.934   3.338  10.750
44110SOL    HW234228   4.821   3.276  10.671
44111SOL     OW34229   4.557   7.110   8.256
44111SOL    HW134230   4.596   7.170   8.320
44111SOL    HW234231   4.587   7.143   8.171
44112SOL     OW34232   4.380   8.149   6.927
44112SOL    HW134233   4.333   8.198   6.995
44112SOL    HW234234   4.440   8.213   6.888
44113SOL     OW34235  13.781   8.471  11.154
44113SOL    HW134236  13.794   8.520  11.235
44113SOL    HW234237  13.847   8.505  11.094
44114SOL     OW34238   8.004  12.676   4.278
44114SOL    HW134239   7.970  12.594   4.314
44114SOL    HW234240   7.951  12.744   4.319
44115SOL     OW34241  13.855   4.663   8.638
44115SOL    HW134242  13.937   4.710   8.622
44115SOL    HW234243  13.854   4.649   8.732
44116SOL     OW34244   7.993  14.729   2.493
44116SOL    HW134245   7.954  14.647   2.466
44116SOL    HW234246   7.958  14.745   2.581
44117SOL     OW34247  10.204   3.296   1.978
44117SOL    HW134248  10.279   3.300   2.037
44117SOL    HW234249  10.200   3.382   1.937
44118SOL     OW34250   4.830   9.719  12.768
44118SOL    HW134251   4.875   9.800  12.793
44118SOL    HW234252   4.863   9.701  12.680
44119SOL     OW34253   6.119  12.170   1.523
44119SOL    HW134254   6.086  12.092   1.479
44119SOL    HW234255   6.171  12.136   1.597
44120SOL     OW34256   8.480  11.815  10.998
44120SOL    HW134257   8.445  11.824  11.087
44120SOL    HW234258   8.563  11.862  11.000
44121SOL     OW34259  12.347   3.645  10.132
44121SOL    HW134260  12.311   3.573  10.081
44121SOL    HW234261  12.352   3.612  10.221
44122SOL     OW34262  10.985  13.800   1.908
44122SOL    HW134263  10.916  13.819   1.844
44122SOL    HW234264  11.066  13.824   1.863
44123SOL     OW34265  13.943   8.367   3.913
44123SOL    HW134266  14.009   8.432   3.935
44123SOL    HW234267  13.928   8.319   3.995
44124SOL     OW34268   7.812  14.087   1.428
44124SOL    HW134269   7.764  14.066   1.508
44124SOL    HW234270   7.881  14.021   1.423
44125SOL     OW34271   3.394   6.997   7.580
44125SOL    HW134272   3.318   6.942   7.602
44125SOL    HW234273   3.372   7.035   7.495
44126SOL     OW34274   2.618   9.247   6.898
44126SOL    HW134275   2.523   9.240   6.906
44126SOL    HW234276   2.632   9.292   6.815
44127SOL     OW34277  13.535  10.252   6.265
44127SOL    HW134278  13.544  10.212   6.179
44127SOL    HW234279  13.441  10.255   6.281
44128SOL     OW34280  11.804   9.837  13.876
44128SOL    HW134281  11.762   9.893  13.811
44128SOL    HW234282  11.784   9.878  13.960
44129SOL     OW34283  11.848   1.122   8.302
44129SOL    HW134284  11.856   1.194   8.240
44129SOL    HW234285  11.824   1.164   8.385
44130SOL     OW34286  13.288   8.939  14.589
44130SOL    HW134287  13.245   9.020  14.561
44130SOL    HW234288  13.250   8.871  14.532
44131SOL     OW34289   3.622   5.417   1.003
44131SOL    HW134290   3.574   5.466   1.069
44131SOL    HW234291   3.555   5.371   0.953
44132SOL     OW34292   5.032   1.431   4.724
44132SOL    HW134293   5.127   1.441   4.733
44132SOL    HW234294   5.016   1.444   4.630
44133SOL     OW34295   9.294   4.351   4.180
44133SOL    HW134296   9.277   4.438   4.217
44133SOL    HW234297   9.212   4.327   4.137
44134SOL     OW34298   2.419   8.444   9.066
44134SOL    HW134299   2.445   8.508   9.132
44134SOL    HW234300   2.324   8.451   9.062
44135SOL     OW34301   6.001   7.893   5.735
44135SOL    HW134302   5.965   7.902   5.823
44135SOL    HW234303   5.995   7.799   5.716
44136SOL     OW34304  14.485   7.611   7.634
44136SOL    HW134305  14.564   7.656   7.605
44136SOL    HW234306  14.426   7.617   7.559
44137SOL     OW34307   1.883   4.402   9.804
44137SOL    HW134308   1.879   4.438   9.715
44137SOL    HW234309   1.867   4.477   9.861
44138SOL     OW34310   2.847   2.064   1.762
44138SOL    HW134311   2.863   2.022   1.846
44138SOL    HW234312   2.887   2.006   1.698
44139SOL     OW34313  12.799  11.996  12.992
44139SOL    HW134314  12.795  12.020  13.085
44139SOL    HW234315  12.815  11.902  12.993
44140SOL     OW34316   0.304  11.483   2.743
44140SOL    HW134317   0.390  11.487   2.786
44140SOL    HW234318   0.299  11.564   2.691
44141SOL     OW34319   8.328  14.517   2.673
44141SOL    HW134320   8.257  14.457   2.698
44141SOL    HW234321   8.313  14.534   2.581
44142SOL     OW34322   6.505   3.688   7.942
44142SOL    HW134323   6.459   3.703   7.860
44142SOL    HW234324   6.461   3.744   8.006
44143SOL     OW34325   9.902   5.529  12.266
44143SOL    HW134326   9.947   5.614  12.260
44143SOL    HW234327   9.932   5.492  12.349
44144SOL     OW34328   7.386  11.700   4.278
44144SOL    HW134329   7.477  11.718   4.302
44144SOL    HW234330   7.334  11.733   4.351
44145SOL     OW34331  14.090   5.676   7.715
44145SOL    HW134332  14.049   5.606   7.766
44145SOL    HW234333  14.155   5.631   7.661
44146SOL     OW34334  10.059   4.476   8.341
44146SOL    HW134335  10.013   4.403   8.299
44146SOL    HW234336  10.013   4.554   8.310
44147SOL     OW34337   7.674   3.986   3.973
44147SOL    HW134338   7.587   3.957   3.945
44147SOL    HW234339   7.671   4.081   3.968
44148SOL     OW34340   1.473   2.604   0.376
44148SOL    HW134341   1.544   2.666   0.360
44148SOL    HW234342   1.431   2.593   0.290
44149SOL     OW34343  13.961   2.605   8.897
44149SOL    HW134344  13.988   2.692   8.867
44149SOL    HW234345  13.900   2.622   8.969
44150SOL     OW34346   8.021  14.297  14.735
44150SOL    HW134347   8.082  14.319  14.665
44150SOL    HW234348   8.062  14.332  14.814
44151SOL     OW34349   2.494   7.041   3.509
44151SOL    HW134350   2.568   6.981   3.517
44151SOL    HW234351   2.442   7.025   3.588
44152SOL     OW34352   6.192  11.624   6.156
44152SOL    HW134353   6.212  11.690   6.089
44152SOL    HW234354   6.268  11.623   6.213
44153SOL     OW34355  14.057  11.491   2.285
44153SOL    HW134356  14.050  11.447   2.370
44153SOL    HW234357  13.991  11.448   2.230
44154SOL     OW34358  12.567  13.158   7.142
44154SOL    HW134359  12.607  13.072   7.152
44154SOL    HW234360  12.530  13.156   7.054
44155SOL     OW34361  11.018   5.783   7.449
44155SOL    HW134362  11.080   5.856   7.443
44155SOL    HW234363  10.957   5.797   7.377
44156SOL     OW34364  13.398   1.311  13.351
44156SOL    HW134365  13.476   1.341  13.397
44156SOL    HW234366  13.413   1.218  13.337
44157SOL     OW34367   1.817   1.726  10.034
44157SOL    HW134368   1.873   1.700  10.107
44157SOL    HW234369   1.868   1.791   9.985
44158SOL     OW34370   3.501   4.454  10.769
44158SOL    HW134371   3.574   4.442  10.830
44158SOL    HW234372   3.541   4.497  10.693
44159SOL     OW34373  10.511  11.170   4.862
44159SOL    HW134374  10.517  11.244   4.802
44159SOL    HW234375  10.585  11.114   4.837
44160SOL     OW34376  12.799  12.331  11.541
44160SOL    HW134377  12.761  12.383  11.612
44160SOL    HW234378  12.740  12.343  11.467
44161SOL     OW34379  10.584   8.821   7.274
44161SOL    HW134380  10.664   8.845   7.226
44161SOL    HW234381  10.592   8.867   7.357
44162SOL     OW34382   0.067  13.753   9.793
44162SOL    HW134383   0.148  13.709   9.819
44162SOL    HW234384   0.011  13.682   9.762
44163SOL     OW34385   8.245  12.313   6.573
44163SOL    HW134386   8.223  12.252   6.503
44163SOL    HW234387   8.338  12.296   6.591
44164SOL     OW34388  11.030  10.039  13.162
44164SOL    HW134389  11.069  10.059  13.247
44164SOL    HW234390  10.937  10.025  13.181
44165SOL     OW34391   0.107  12.551   2.767
44165SOL    HW134392   0.169  12.599   2.821
44165SOL    HW234393   0.030  12.608   2.762
44166SOL     OW34394   0.013  14.661  12.853
44166SOL    HW134395   0.068  14.583  12.852
44166SOL    HW234396   0.059  14.722  12.911
44167SOL     OW34397  13.004   6.541  11.314
44167SOL    HW134398  12.967   6.467  11.265
44167SOL    HW234399  12.999   6.514  11.406
44168SOL     OW34400   0.577  13.607  10.422
44168SOL    HW134401   0.643  13.542  10.447
44168SOL    HW234402   0.494  13.570  10.453
44169SOL     OW34403  11.797   1.962   2.891
44169SOL    HW134404  11.766   1.958   2.800
44169SOL    HW234405  11.813   2.054   2.907
44170SOL     OW34406   0.703  13.237   0.269
44170SOL    HW134407   0.677  13.154   0.310
44170SOL    HW234408   0.680  13.304   0.334
44171SOL     OW34409   7.507   1.605   2.689
44171SOL    HW134410   7.557   1.670   2.641
44171SOL    HW234411   7.524   1.625   2.781
44172SOL     OW34412   1.942  12.954   4.446
44172SOL    HW134413   1.964  12.986   4.533
44172SOL    HW234414   2.020  12.907   4.417
44173SOL     OW34415   4.726   5.402   3.236
44173SOL    HW134416   4.635   5.403   3.267
44173SOL    HW234417   4.777   5.418   3.315
44174SOL     OW34418   9.935   1.502   9.466
44174SOL    HW134419   9.913   1.412   9.441
44174SOL    HW234420   9.859   1.554   9.439
44175SOL     OW34421   0.470  11.397   6.030
44175SOL    HW134422   0.481  11.460   5.958
44175SOL    HW234423   0.380  11.409   6.059
44176SOL     OW34424   9.872   0.168   3.759
44176SOL    HW134425   9.963   0.177   3.785
44176SOL    HW234426   9.871   0.195   3.667
44177SOL     OW34427   5.798   4.087   8.998
44177SOL    HW134428   5.743   4.130   9.063
44177SOL    HW234429   5.886   4.088   9.036
44178SOL     OW34430   4.382   4.274  11.954
44178SOL    HW134431   4.457   4.326  11.981
44178SOL    HW234432   4.324   4.336  11.910
44179SOL     OW34433   2.834   4.633   6.889
44179SOL    HW134434   2.833   4.596   6.977
44179SOL    HW234435   2.801   4.563   6.832
44180SOL     OW34436   9.863  12.675   3.052
44180SOL    HW134437   9.918  12.599   3.036
44180SOL    HW234438   9.844  12.672   3.145
44181SOL     OW34439   3.082   2.969   2.640
44181SOL    HW134440   3.046   2.985   2.728
44181SOL    HW234441   3.024   3.018   2.581
44182SOL     OW34442   8.565   3.785  13.511
44182SOL    HW134443   8.545   3.825  13.426
44182SOL    HW234444   8.480   3.771  13.552
44183SOL     OW34445  10.869  12.515  12.329
44183SOL    HW134446  10.920  12.556  12.398
44183SOL    HW234447  10.859  12.424  12.357
44184SOL     OW34448   1.334   1.896   0.805
44184SOL    HW134449   1.338   1.813   0.757
44184SOL    HW234450   1.264   1.945   0.763
44185SOL     OW34451   2.877   4.723   7.929
44185SOL    HW134452   2.795   4.681   7.905
44185SOL    HW234453   2.944   4.656   7.913
44186SOL     OW34454   6.229  10.432   4.563
44186SOL    HW134455   6.302  10.409   4.505
44186SOL    HW234456   6.257  10.403   4.650
44187SOL     OW34457   3.256   7.049   3.363
44187SOL    HW134458   3.187   7.000   3.317
44187SOL    HW234459   3.240   7.140   3.338
44188SOL     OW34460   6.236  13.516  10.574
44188SOL    HW134461   6.291  13.442  10.547
44188SOL    HW234462   6.199  13.489  10.658
44189SOL     OW34463   1.652   4.598   7.876
44189SOL    HW134464   1.655   4.574   7.783
44189SOL    HW234465   1.582   4.663   7.881
44190SOL     OW34466   2.662  12.428  10.414
44190SOL    HW134467   2.697  12.382  10.338
44190SOL    HW234468   2.644  12.516  10.384
44191SOL     OW34469  14.703  11.165  11.033
44191SOL    HW134470  14.772  11.181  10.969
44191SOL    HW234471  14.653  11.247  11.036
44192SOL     OW34472   8.979   8.313   5.644
44192SOL    HW134473   8.900   8.261   5.627
44192SOL    HW234474   8.960   8.360   5.725
44193SOL     OW34475  11.813  12.040   0.399
44193SOL    HW134476  11.795  12.092   0.477
44193SOL    HW234477  11.742  12.061   0.339
44194SOL     OW34478   1.756   6.193  12.685
44194SOL    HW134479   1.815   6.130  12.726
44194SOL    HW234480   1.781   6.193  12.592
44195SOL     OW34481   4.177   8.592   9.534
44195SOL    HW134482   4.251   8.653   9.526
44195SOL    HW234483   4.099   8.648   9.526
44196SOL     OW34484   7.559   4.803  13.626
44196SOL    HW134485   7.606   4.813  13.709
44196SOL    HW234486   7.499   4.878  13.624
44197SOL     OW34487   2.011  10.291   7.651
44197SOL    HW134488   2.032  10.293   7.557
44197SOL    HW234489   1.934  10.235   7.657
44198SOL     OW34490   2.631   9.404   1.608
44198SOL    HW134491   2.555   9.348   1.623
44198SOL    HW234492   2.595   9.491   1.594
44199SOL     OW34493   1.252   9.943  13.002
44199SOL    HW134494   1.191   9.873  13.025
44199SOL    HW234495   1.333   9.898  12.980
44200SOL     OW34496   1.904   0.635   5.639
44200SOL    HW134497   1.901   0.555   5.692
44200SOL    HW234498   1.813   0.658   5.624
44201SOL     OW34499  14.869   8.859   0.283
44201SOL    HW134500   0.038   8.809   0.212
44201SOL    HW234501  14.777   8.831   0.281
44202SOL     OW34502   7.526  12.349   2.069
44202SOL    HW134503   7.509  12.440   2.046
44202SOL    HW234504   7.616  12.348   2.102
44203SOL     OW34505   5.603   7.604   2.736
44203SOL    HW134506   5.562   7.537   2.681
44203SOL    HW234507   5.621   7.676   2.675
44204SOL     OW34508   6.616   6.209  14.794
44204SOL    HW134509   6.642   6.286  14.844
44204SOL    HW234510   6.546   6.169  14.845
44205SOL     OW34511  12.364  13.092  13.190
44205SOL    HW134512  12.402  13.004  13.183
44205SOL    HW234513  12.380  13.118  13.281
44206SOL     OW34514   9.719   1.782   6.756
44206SOL    HW134515   9.753   1.799   6.843
44206SOL    HW234516   9.795   1.755   6.704
44207SOL     OW34517  10.589   6.278   7.803
44207SOL    HW134518  10.519   6.308   7.745
44207SOL    HW234519  10.544   6.241   7.878
44208SOL     OW34520   1.793   2.172   8.905
44208SOL    HW134521   1.709   2.148   8.867
44208SOL    HW234522   1.856   2.113   8.863
44209SOL     OW34523   7.489  14.692  10.728
44209SOL    HW134524   7.529  14.618  10.683
44209SOL    HW234525   7.535  14.697  10.812
44210SOL     OW34526   9.380   0.227  10.463
44210SOL    HW134527   9.396   0.138  10.430
44210SOL    HW234528   9.426   0.283  10.400
44211SOL     OW34529   8.405   0.766   9.392
44211SOL    HW134530   8.332   0.824   9.369
44211SOL    HW234531   8.417   0.780   9.486
44212SOL     OW34532   9.655  13.888   0.892
44212SOL    HW134533   9.606  13.828   0.835
44212SOL    HW234534   9.720  13.927   0.834
44213SOL     OW34535  14.334   9.458  10.614
44213SOL    HW134536  14.298   9.490  10.531
44213SOL    HW234537  14.428   9.465  10.604
44214SOL     OW34538   0.911   6.948   1.802
44214SOL    HW134539   0.921   6.861   1.765
44214SOL    HW234540   0.877   6.934   1.890
44215SOL     OW34541  13.507  14.863   0.236
44215SOL    HW134542  13.542  14.793   0.291
44215SOL    HW234543  13.577   0.056   0.232
44216SOL     OW34544   2.512   6.207   0.631
44216SOL    HW134545   2.517   6.303   0.624
44216SOL    HW234546   2.422   6.185   0.606
44217SOL     OW34547   0.726   4.735  10.790
44217SOL    HW134548   0.695   4.703  10.874
44217SOL    HW234549   0.672   4.813  10.773
44218SOL     OW34550  12.117  13.222  12.661
44218SOL    HW134551  12.050  13.288  12.679
44218SOL    HW234552  12.136  13.183  12.747
44219SOL     OW34553  10.363  14.134   5.197
44219SOL    HW134554  10.323  14.185   5.127
44219SOL    HW234555  10.453  14.120   5.169
44220SOL     OW34556   9.409   9.383  14.284
44220SOL    HW134557   9.451   9.463  14.317
44220SOL    HW234558   9.418   9.389  14.189
44221SOL     OW34559   9.448  10.704  13.577
44221SOL    HW134560   9.483  10.750  13.653
44221SOL    HW234561   9.518  10.643  13.552
44222SOL     OW34562   0.934   1.364  10.889
44222SOL    HW134563   0.874   1.431  10.855
44222SOL    HW234564   0.882   1.284  10.891
44223SOL     OW34565   0.934  11.408   7.104
44223SOL    HW134566   0.893  11.341   7.159
44223SOL    HW234567   0.864  11.468   7.082
44224SOL     OW34568  14.610   0.801   9.957
44224SOL    HW134569  14.664   0.863   9.908
44224SOL    HW234570  14.544   0.855   9.999
44225SOL     OW34571   0.349   0.877   1.511
44225SOL    HW134572   0.368   0.963   1.473
44225SOL    HW234573   0.272   0.891   1.565
44226SOL     OW34574  11.296   0.864   2.634
44226SOL    HW134575  11.287   0.851   2.728
44226SOL    HW234576  11.385   0.897   2.623
44227SOL     OW34577   2.342   8.018  13.254
44227SOL    HW134578   2.249   7.999  13.264
44227SOL    HW234579   2.348   8.114  13.261
44228SOL     OW34580  12.852   6.789  14.687
44228SOL    HW134581  12.940   6.783  14.650
44228SOL    HW234582  12.799   6.731  14.633
44229SOL     OW34583   3.409   4.071   8.756
44229SOL    HW134584   3.364   4.152   8.733
44229SOL    HW234585   3.478   4.099   8.817
44230SOL     OW34586   6.370   9.167   6.148
44230SOL    HW134587   6.291   9.117   6.168
44230SOL    HW234588   6.346   9.224   6.076
44231SOL     OW34589   6.289   5.972   2.695
44231SOL    HW134590   6.366   5.990   2.640
44231SOL    HW234591   6.291   6.040   2.762
44232SOL     OW34592   1.992  11.689  13.650
44232SOL    HW134593   2.062  11.751  13.630
44232SOL    HW234594   1.950  11.672  13.565
44233SOL     OW34595  10.299   6.796  11.761
44233SOL    HW134596  10.341   6.841  11.688
44233SOL    HW234597  10.227   6.747  11.720
44234SOL     OW34598   6.834   5.179  13.928
44234SOL    HW134599   6.798   5.251  13.876
44234SOL    HW234600   6.868   5.222  14.007
44235SOL     OW34601   0.032   0.828  10.101
44235SOL    HW134602   0.126   0.813  10.106
44235SOL    HW234603   0.021   0.892  10.030
44236SOL     OW34604   4.061   2.836   6.363
44236SOL    HW134605   3.965   2.837   6.358
44236SOL    HW234606   4.090   2.900   6.298
44237SOL     OW34607  12.817   2.703  11.399
44237SOL    HW134608  12.736   2.660  11.426
44237SOL    HW234609  12.825   2.683  11.306
44238SOL     OW34610   2.028   1.628   2.531
44238SOL    HW134611   2.107   1.612   2.583
44238SOL    HW234612   1.975   1.686   2.586
44239SOL     OW34613   9.340   8.799   4.707
44239SOL    HW134614   9.332   8.837   4.794
44239SOL    HW234615   9.385   8.865   4.656
44240SOL     OW34616   0.696  12.605   6.007
44240SOL    HW134617   0.668  12.683   6.055
44240SOL    HW234618   0.618  12.576   5.961
44241SOL     OW34619   3.428   9.264   0.862
44241SOL    HW134620   3.482   9.186   0.847
44241SOL    HW234621   3.340   9.230   0.877
44242SOL     OW34622  14.592   0.775   4.030
44242SOL    HW134623  14.685   0.765   4.050
44242SOL    HW234624  14.577   0.869   4.031
44243SOL     OW34625   0.344  10.324  11.830
44243SOL    HW134626   0.387  10.259  11.775
44243SOL    HW234627   0.408  10.394  11.839
44244SOL     OW34628  14.553   4.788   9.638
44244SOL    HW134629  14.611   4.814   9.565
44244SOL    HW234630  14.510   4.870   9.664
44245SOL     OW34631   4.461   1.502   3.817
44245SOL    HW134632   4.453   1.531   3.908
44245SOL    HW234633   4.555   1.490   3.805
44246SOL     OW34634   8.301   0.335  12.307
44246SOL    HW134635   8.252   0.299  12.233
44246SOL    HW234636   8.234   0.376  12.362
44247SOL     OW34637   1.645   4.118   8.344
44247SOL    HW134638   1.691   4.057   8.285
44247SOL    HW234639   1.553   4.091   8.340
44248SOL     OW34640   5.115  10.597  10.642
44248SOL    HW134641   5.134  10.618  10.733
44248SOL    HW234642   5.069  10.674  10.608
44249SOL     OW34643   2.604   0.818   5.376
44249SOL    HW134644   2.520   0.834   5.332
44249SOL    HW234645   2.600   0.726   5.402
44250SOL     OW34646  14.782   1.614   6.173
44250SOL    HW134647  14.774   1.548   6.242
44250SOL    HW234648  14.700   1.661   6.175
44251SOL     OW34649   1.820  11.615   4.578
44251SOL    HW134650   1.824  11.696   4.528
44251SOL    HW234651   1.789  11.550   4.516
44252SOL     OW34652   8.064   7.156  14.105
44252SOL    HW134653   7.992   7.093  14.111
44252SOL    HW234654   8.044   7.221  14.172
44253SOL     OW34655   3.551   0.985  13.060
44253SOL    HW134656   3.614   0.931  13.012
44253SOL    HW234657   3.531   0.935  13.139
44254SOL     OW34658   0.778   9.284  11.254
44254SOL    HW134659   0.827   9.201  11.251
44254SOL    HW234660   0.814   9.335  11.181
44255SOL     OW34661   2.708  14.832  13.444
44255SOL    HW134662   2.719   0.045  13.402
44255SOL    HW234663   2.613  14.819  13.450
44256SOL     OW34664   2.750   8.192  11.702
44256SOL    HW134665   2.693   8.247  11.649
44256SOL    HW234666   2.717   8.103  11.688
44257SOL     OW34667  14.690   0.870  13.698
44257SOL    HW134668  14.772   0.892  13.652
44257SOL    HW234669  14.629   0.939  13.672
44258SOL     OW34670   3.024   1.086   1.596
44258SOL    HW134671   3.051   1.076   1.687
44258SOL    HW234672   3.107   1.093   1.547
44259SOL     OW34673   1.769   7.988   1.276
44259SOL    HW134674   1.719   7.906   1.278
44259SOL    HW234675   1.718   8.048   1.330
44260SOL     OW34676   6.960   5.059  10.695
44260SOL    HW134677   7.034   5.060  10.756
44260SOL    HW234678   6.913   4.978  10.716
44261SOL     OW34679  10.276   6.273   6.767
44261SOL    HW134680  10.367   6.298   6.784
44261SOL    HW234681  10.233   6.355   6.743
44262SOL     OW34682   7.169  14.220   2.256
44262SOL    HW134683   7.157  14.242   2.163
44262SOL    HW234684   7.116  14.283   2.303
44263SOL     OW34685   6.244   8.752   3.632
44263SOL    HW134686   6.302   8.692   3.585
44263SOL    HW234687   6.247   8.833   3.582
44264SOL     OW34688   8.883   7.400  12.374
44264SOL    HW134689   8.844   7.324  12.331
44264SOL    HW234690   8.890   7.466  12.305
44265SOL     OW34691   2.067   5.373   8.043
44265SOL    HW134692   2.141   5.396   7.987
44265SOL    HW234693   2.067   5.277   8.045
44266SOL     OW34694  12.312  12.766  14.375
44266SOL    HW134695  12.279  12.843  14.329
44266SOL    HW234696  12.383  12.733  14.319
44267SOL     OW34697   3.488   7.193   7.115
44267SOL    HW134698   3.453   7.158   7.033
44267SOL    HW234699   3.557   7.132   7.140
44268SOL     OW34700   5.558   5.542  11.101
44268SOL    HW134701   5.498   5.570  11.031
44268SOL    HW234702   5.644   5.573  11.072
44269SOL     OW34703   9.312   6.448   8.073
44269SOL    HW134704   9.332   6.449   7.979
44269SOL    HW234705   9.316   6.356   8.097
44270SOL     OW34706  12.972  14.236   8.068
44270SOL    HW134707  12.907  14.268   8.130
44270SOL    HW234708  12.997  14.150   8.102
44271SOL     OW34709  10.940   5.792  13.814
44271SOL    HW134710  10.937   5.707  13.769
44271SOL    HW234711  11.032   5.817  13.812
44272SOL     OW34712   5.894  14.243   5.005
44272SOL    HW134713   5.902  14.152   5.033
44272SOL    HW234714   5.834  14.283   5.068
44273SOL     OW34715  14.688   6.405  12.955
44273SOL    HW134716  14.694   6.497  12.982
44273SOL    HW234717  14.779   6.378  12.944
44274SOL     OW34718   7.493  10.167  12.992
44274SOL    HW134719   7.534  10.082  13.000
44274SOL    HW234720   7.399  10.148  12.985
44275SOL     OW34721   2.756   0.555  14.750
44275SOL    HW134722   2.820   0.525  14.815
44275SOL    HW234723   2.706   0.623  14.795
44276SOL     OW34724  13.027  10.464   1.210
44276SOL    HW134725  13.076  10.479   1.129
44276SOL    HW234726  13.094  10.449   1.276
44277SOL     OW34727  11.416   6.963   1.886
44277SOL    HW134728  11.423   7.041   1.941
44277SOL    HW234729  11.328   6.970   1.847
44278SOL     OW34730   0.848   5.316  10.659
44278SOL    HW134731   0.882   5.390  10.709
44278SOL    HW234732   0.897   5.318  10.577
44279SOL     OW34733   6.348   2.236  14.680
44279SOL    HW134734   6.268   2.183  14.686
44279SOL    HW234735   6.402   2.205  14.754
44280SOL     OW34736   6.029   8.438   1.176
44280SOL    HW134737   6.012   8.406   1.264
44280SOL    HW234738   5.980   8.379   1.119
44281SOL     OW34739   2.213   0.006  10.300
44281SOL    HW134740   2.159   0.065  10.353
44281SOL    HW234741   2.303   0.033  10.319
44282SOL     OW34742   7.497   4.790  12.176
44282SOL    HW134743   7.518   4.696  12.183
44282SOL    HW234744   7.408   4.797  12.208
44283SOL     OW34745  13.101   5.848  12.354
44283SOL    HW134746  13.193   5.853  12.329
44283SOL    HW234747  13.097   5.887  12.442
44284SOL     OW34748  10.815   2.814   3.880
44284SOL    HW134749  10.744   2.876   3.868
44284SOL    HW234750  10.794   2.742   3.820
44285SOL     OW34751  13.947  11.765  14.375
44285SOL    HW134752  13.971  11.837  14.432
44285SOL    HW234753  13.912  11.807  14.297
44286SOL     OW34754   1.040   4.254   8.708
44286SOL    HW134755   1.068   4.342   8.736
44286SOL    HW234756   0.945   4.256   8.716
44287SOL     OW34757  14.792   2.348   0.116
44287SOL    HW134758  14.751   2.275   0.163
44287SOL    HW234759  14.865   2.309   0.069
44288SOL     OW34760   0.593  10.073  14.058
44288SOL    HW134761   0.644  10.001  14.095
44288SOL    HW234762   0.645  10.151  14.075
44289SOL     OW34763  12.888  12.614   6.036
44289SOL    HW134764  12.951  12.544   6.018
44289SOL    HW234765  12.937  12.694   6.021
44290SOL     OW34766  10.962  10.736  12.023
44290SOL    HW134767  10.986  10.678  11.951
44290SOL    HW234768  10.999  10.694  12.101
44291SOL     OW34769   1.674  12.424   0.568
44291SOL    HW134770   1.631  12.469   0.495
44291SOL    HW234771   1.709  12.495   0.622
44292SOL     OW34772   7.686   9.235  14.298
44292SOL    HW134773   7.604   9.260  14.341
44292SOL    HW234774   7.734   9.317  14.289
44293SOL     OW34775  12.350  11.752   0.253
44293SOL    HW134776  12.377  11.736   0.343
44293SOL    HW234777  12.327  11.665   0.219
44294SOL     OW34778   2.660   8.067   8.396
44294SOL    HW134779   2.735   8.062   8.336
44294SOL    HW234780   2.698   8.049   8.483
44295SOL     OW34781  10.154   9.163  13.351
44295SOL    HW134782  10.203   9.173  13.432
44295SOL    HW234783  10.128   9.071  13.350
44296SOL     OW34784  14.251   6.165   3.912
44296SOL    HW134785  14.240   6.181   3.818
44296SOL    HW234786  14.322   6.100   3.916
44297SOL     OW34787   8.557   2.452   2.645
44297SOL    HW134788   8.465   2.425   2.645
44297SOL    HW234789   8.554   2.548   2.639
44298SOL     OW34790   3.911   7.513   7.641
44298SOL    HW134791   3.966   7.514   7.720
44298SOL    HW234792   3.838   7.571   7.663
44299SOL     OW34793   9.031  12.191   3.304
44299SOL    HW134794   8.948  12.150   3.329
44299SOL    HW234795   9.088  12.181   3.380
44300SOL     OW34796  10.095   9.493  11.823
44300SOL    HW134797  10.151   9.497  11.746
44300SOL    HW234798  10.029   9.427  11.801
44301SOL     OW34799   0.888   8.210  14.655
44301SOL    HW134800   0.953   8.140  14.660
44301SOL    HW234801   0.810   8.169  14.619
44302SOL     OW34802   0.679   2.067  14.509
44302SOL    HW134803   0.713   1.978  14.499
44302SOL    HW234804   0.730   2.105  14.581
44303SOL     OW34805   7.870   4.663  12.606
44303SOL    HW134806   7.903   4.753  12.606
44303SOL    HW234807   7.778   4.671  12.631
44304SOL     OW34808   8.147  13.743  13.285
44304SOL    HW134809   8.177  13.834  13.277
44304SOL    HW234810   8.069  13.739  13.229
44305SOL     OW34811   5.026   0.211   5.476
44305SOL    HW134812   5.000   0.129   5.519
44305SOL    HW234813   5.086   0.252   5.537
44306SOL     OW34814   7.679   9.257  12.961
44306SOL    HW134815   7.672   9.165  12.935
44306SOL    HW234816   7.603   9.299  12.922
44307SOL     OW34817   0.294   6.645  10.756
44307SOL    HW134818   0.374   6.696  10.746
44307SOL    HW234819   0.223   6.709  10.745
44308SOL     OW34820   9.832   8.489  13.373
44308SOL    HW134821   9.794   8.545  13.305
44308SOL    HW234822   9.771   8.415  13.379
44309SOL     OW34823   7.600   0.765   4.703
44309SOL    HW134824   7.556   0.682   4.721
44309SOL    HW234825   7.682   0.740   4.660
44310SOL     OW34826   6.327   9.726  11.372
44310SOL    HW134827   6.291   9.754  11.457
44310SOL    HW234828   6.408   9.681  11.395
44311SOL     OW34829   4.497   2.034   4.915
44311SOL    HW134830   4.470   1.962   4.971
44311SOL    HW234831   4.519   2.105   4.975
44312SOL     OW34832  12.955   1.744   0.643
44312SOL    HW134833  12.879   1.712   0.692
44312SOL    HW234834  13.016   1.670   0.643
44313SOL     OW34835   2.881   5.532   0.815
44313SOL    HW134836   2.858   5.441   0.800
44313SOL    HW234837   2.797   5.579   0.813
44314SOL     OW34838   6.757   9.150   6.433
44314SOL    HW134839   6.780   9.240   6.409
44314SOL    HW234840   6.661   9.149   6.432
44315SOL     OW34841   0.679  14.779   6.229
44315SOL    HW134842   0.703  14.714   6.164
44315SOL    HW234843   0.584  14.774   6.235
44316SOL     OW34844  11.035  12.549   7.368
44316SOL    HW134845  11.081  12.599   7.301
44316SOL    HW234846  10.988  12.615   7.419
44317SOL     OW34847   8.083  12.189   1.130
44317SOL    HW134848   8.027  12.263   1.106
44317SOL    HW234849   8.142  12.224   1.196
44318SOL     OW34850  13.121   2.432  12.190
44318SOL    HW134851  13.210   2.457  12.216
44318SOL    HW234852  13.089   2.378  12.263
44319SOL     OW34853   9.405   3.896   0.486
44319SOL    HW134854   9.458   3.829   0.443
44319SOL    HW234855   9.376   3.855   0.568
44320SOL     OW34856   5.573   5.856  12.196
44320SOL    HW134857   5.623   5.866  12.277
44320SOL    HW234858   5.483   5.879  12.220
44321SOL     OW34859  13.398   4.456   2.440
44321SOL    HW134860  13.376   4.545   2.415
44321SOL    HW234861  13.360   4.445   2.527
44322SOL     OW34862   6.787   1.087  14.236
44322SOL    HW134863   6.825   1.050  14.316
44322SOL    HW234864   6.858   1.138  14.197
44323SOL     OW34865  14.451  11.942   8.123
44323SOL    HW134866  14.454  11.854   8.161
44323SOL    HW234867  14.512  11.939   8.050
44324SOL     OW34868   4.841   5.695   1.497
44324SOL    HW134869   4.875   5.685   1.408
44324SOL    HW234870   4.771   5.630   1.503
44325SOL     OW34871   3.112  13.780  12.011
44325SOL    HW134872   3.133  13.706  12.069
44325SOL    HW234873   3.071  13.739  11.935
44326SOL     OW34874  10.970   4.458   6.588
44326SOL    HW134875  10.884   4.418   6.604
44326SOL    HW234876  11.029   4.412   6.647
44327SOL     OW34877   2.478   5.480   0.021
44327SOL    HW134878   2.573   5.486   0.023
44327SOL    HW234879   2.448   5.571   0.019
44328SOL     OW34880   0.321   7.315  14.641
44328SOL    HW134881   0.293   7.398  14.603
44328SOL    HW234882   0.401   7.292  14.593
44329SOL     OW34883   6.781   9.076   2.575
44329SOL    HW134884   6.726   9.041   2.505
44329SOL    HW234885   6.856   9.114   2.529
44330SOL     OW34886  12.621  11.630   3.036
44330SOL    HW134887  12.626  11.669   3.123
44330SOL    HW234888  12.538  11.661   2.999
44331SOL     OW34889  10.648   6.790   5.007
44331SOL    HW134890  10.703   6.832   5.072
44331SOL    HW234891  10.572   6.758   5.057
44332SOL     OW34892   9.374   9.796   9.178
44332SOL    HW134893   9.412   9.848   9.107
44332SOL    HW234894   9.294   9.759   9.140
44333SOL     OW34895  12.469   8.440   6.037
44333SOL    HW134896  12.476   8.362   6.093
44333SOL    HW234897  12.557   8.450   5.999
44334SOL     OW34898   7.348   6.057   4.678
44334SOL    HW134899   7.379   6.140   4.714
44334SOL    HW234900   7.372   5.991   4.744
44335SOL     OW34901  10.900   2.800  13.199
44335SOL    HW134902  10.884   2.834  13.287
44335SOL    HW234903  10.853   2.861  13.141
44336SOL     OW34904   8.041  11.717   3.393
44336SOL    HW134905   7.998  11.660   3.329
44336SOL    HW234906   8.134  11.708   3.374
44337SOL     OW34907   4.122  10.446   0.960
44337SOL    HW134908   4.109  10.353   0.980
44337SOL    HW234909   4.160  10.483   1.039
44338SOL     OW34910   3.163   7.935   3.926
44338SOL    HW134911   3.082   7.887   3.909
44338SOL    HW234912   3.135   8.020   3.960
44339SOL     OW34913   9.549   5.886  12.302
44339SOL    HW134914   9.578   5.795  12.309
44339SOL    HW234915   9.611   5.934  12.357
44340SOL     OW34916  11.816   6.908   9.132
44340SOL    HW134917  11.747   6.861   9.178
44340SOL    HW234918  11.770   6.968   9.073
44341SOL     OW34919  11.583  12.585  11.286
44341SOL    HW134920  11.677  12.601  11.283
44341SOL    HW234921  11.568  12.544  11.371
44342SOL     OW34922   2.283   9.181   6.955
44342SOL    HW134923   2.305   9.088   6.951
44342SOL    HW234924   2.284   9.202   7.048
44343SOL     OW34925  14.117   9.971  11.273
44343SOL    HW134926  14.181   9.993  11.204
44343SOL    HW234927  14.164   9.911  11.331
44344SOL     OW34928   3.177  13.207   9.700
44344SOL    HW134929   3.174  13.297   9.730
44344SOL    HW234930   3.129  13.207   9.617
44345SOL     OW34931   3.823  10.646   4.607
44345SOL    HW134932   3.750  10.676   4.662
44345SOL    HW234933   3.781  10.605   4.532
44346SOL     OW34934  11.144   0.288   8.371
44346SOL    HW134935  11.211   0.236   8.415
44346SOL    HW234936  11.066   0.277   8.425
44347SOL     OW34937   6.928   0.832   8.173
44347SOL    HW134938   6.985   0.785   8.234
44347SOL    HW234939   6.862   0.768   8.147
44348SOL     OW34940   8.413  14.002   4.358
44348SOL    HW134941   8.422  14.030   4.267
44348SOL    HW234942   8.482  14.049   4.405
44349SOL     OW34943   2.731   3.837  13.197
44349SOL    HW134944   2.753   3.778  13.125
44349SOL    HW234945   2.810   3.888  13.212
44350SOL     OW34946  12.969   8.441  13.799
44350SOL    HW134947  12.975   8.393  13.715
44350SOL    HW234948  12.957   8.372  13.864
44351SOL     OW34949   0.816   9.037   5.962
44351SOL    HW134950   0.782   9.114   5.917
44351SOL    HW234951   0.898   9.017   5.918
44352SOL     OW34952  12.359  10.332   9.839
44352SOL    HW134953  12.351  10.415   9.887
44352SOL    HW234954  12.271  10.319   9.801
44353SOL     OW34955   5.634  11.245  13.548
44353SOL    HW134956   5.674  11.269  13.465
44353SOL    HW234957   5.707  11.220  13.604
44354SOL     OW34958   5.727   8.782   9.204
44354SOL    HW134959   5.815   8.758   9.235
44354SOL    HW234960   5.741   8.814   9.115
44355SOL     OW34961   8.644   9.251   4.714
44355SOL    HW134962   8.693   9.183   4.668
44355SOL    HW234963   8.654   9.329   4.660
44356SOL     OW34964   0.359  14.220   3.051
44356SOL    HW134965   0.450  14.197   3.031
44356SOL    HW234966   0.314  14.212   2.967
44357SOL     OW34967   7.733   4.638  11.765
44357SOL    HW134968   7.802   4.605  11.823
44357SOL    HW234969   7.653   4.626  11.815
44358SOL     OW34970  14.204   1.087  11.803
44358SOL    HW134971  14.192   1.175  11.769
44358SOL    HW234972  14.291   1.061  11.773
44359SOL     OW34973   4.063   0.271   3.237
44359SOL    HW134974   4.014   0.351   3.254
44359SOL    HW234975   4.057   0.258   3.143
44360SOL     OW34976   5.761   3.442   2.380
44360SOL    HW134977   5.843   3.469   2.420
44360SOL    HW234978   5.707   3.521   2.380
44361SOL     OW34979  10.889   5.348  12.896
44361SOL    HW134980  10.957   5.290  12.930
44361SOL    HW234981  10.807   5.305  12.920
44362SOL     OW34982   3.941  12.478   5.458
44362SOL    HW134983   3.863  12.428   5.437
44362SOL    HW234984   3.920  12.568   5.431
44363SOL     OW34985   1.777  14.300  12.496
44363SOL    HW134986   1.755  14.235  12.430
44363SOL    HW234987   1.756  14.258  12.579
44364SOL     OW34988   1.463  10.725  12.898
44364SOL    HW134989   1.390  10.665  12.908
44364SOL    HW234990   1.487  10.718  12.805
44365SOL     OW34991   4.570   9.569   3.517
44365SOL    HW134992   4.510   9.617   3.459
44365SOL    HW234993   4.568   9.618   3.599
44366SOL     OW34994   4.750   9.008  13.618
44366SOL    HW134995   4.655   9.018  13.623
44366SOL    HW234996   4.764   8.915  13.603
44367SOL     OW34997   8.228   0.150  11.720
44367SOL    HW134998   8.140   0.169  11.753
44367SOL    HW234999   8.286   0.171  11.794
44368SOL     OW35000  11.098  10.714   3.300
44368SOL    HW135001  11.159  10.664   3.247
44368SOL    HW235002  11.134  10.711   3.389
44369SOL     OW35003   6.949  11.082   7.610
44369SOL    HW135004   6.934  11.041   7.695
44369SOL    HW235005   6.928  11.013   7.546
44370SOL     OW35006   0.787   9.382   1.571
44370SOL    HW135007   0.841   9.398   1.648
44370SOL    HW235008   0.774   9.468   1.533
44371SOL     OW35009   5.587   7.483   6.545
44371SOL    HW135010   5.655   7.548   6.564
44371SOL    HW235011   5.558   7.453   6.630
44372SOL     OW35012   2.797  14.644   8.960
44372SOL    HW135013   2.867  14.663   8.897
44372SOL    HW235014   2.842  14.601   9.033
44373SOL     OW35015   0.143   2.095   3.829
44373SOL    HW135016   0.139   2.174   3.883
44373SOL    HW235017   0.054   2.083   3.796
44374SOL     OW35018   6.049   5.166   6.057
44374SOL    HW135019   6.047   5.200   5.968
44374SOL    HW235020   6.127   5.205   6.096
44375SOL     OW35021  14.514  14.001   6.726
44375SOL    HW135022  14.438  14.058   6.720
44375SOL    HW235023  14.479  13.912   6.720
44376SOL     OW35024   0.938   2.623  11.242
44376SOL    HW135025   0.851   2.651  11.212
44376SOL    HW235026   0.976   2.579  11.166
44377SOL     OW35027   1.145   6.583   3.360
44377SOL    HW135028   1.185   6.651   3.414
44377SOL    HW235029   1.123   6.513   3.421
44378SOL     OW35030  13.768  13.437   2.260
44378SOL    HW135031  13.680  13.464   2.233
44378SOL    HW235032  13.781  13.351   2.220
44379SOL     OW35033   0.300   4.509  11.564
44379SOL    HW135034   0.295   4.589  11.616
44379SOL    HW235035   0.310   4.540  11.474
44380SOL     OW35036   8.291  10.251   7.732
44380SOL    HW135037   8.350  10.287   7.798
44380SOL    HW235038   8.293  10.157   7.746
44381SOL     OW35039   0.695  10.304   9.249
44381SOL    HW135040   0.741  10.261   9.177
44381SOL    HW235041   0.749  10.287   9.326
44382SOL     OW35042   4.464   9.709   6.707
44382SOL    HW135043   4.397   9.648   6.738
44382SOL    HW235044   4.547   9.667   6.730
44383SOL     OW35045  11.622   0.155   8.176
44383SOL    HW135046  11.541   0.166   8.126
44383SOL    HW235047  11.676   0.229   8.151
44384SOL     OW35048   8.585   5.407  13.435
44384SOL    HW135049   8.518   5.474  13.418
44384SOL    HW235050   8.658   5.456  13.472
44385SOL     OW35051  13.041   8.296   5.647
44385SOL    HW135052  13.080   8.383   5.651
44385SOL    HW235053  13.046   8.263   5.737
44386SOL     OW35054   1.681   6.015  14.439
44386SOL    HW135055   1.627   5.937  14.453
44386SOL    HW235056   1.696   6.017  14.345
44387SOL     OW35057  10.103  14.084  11.996
44387SOL    HW135058  10.167  14.020  11.965
44387SOL    HW235059  10.069  14.046  12.077
44388SOL     OW35060   1.097   2.444   9.407
44388SOL    HW135061   1.007   2.470   9.390
44388SOL    HW235062   1.097   2.415   9.498
44389SOL     OW35063   5.317  12.528  13.057
44389SOL    HW135064   5.378  12.550  12.987
44389SOL    HW235065   5.346  12.442  13.088
44390SOL     OW35066   2.088   2.634   2.837
44390SOL    HW135067   2.096   2.675   2.751
44390SOL    HW235068   2.039   2.554   2.821
44391SOL     OW35069   9.623   0.414  13.574
44391SOL    HW135070   9.703   0.417  13.523
44391SOL    HW235071   9.583   0.501  13.561
44392SOL     OW35072  11.237  13.911  12.338
44392SOL    HW135073  11.331  13.912  12.359
44392SOL    HW235074  11.230  13.959  12.256
44393SOL     OW35075   8.218   2.820   3.838
44393SOL    HW135076   8.143   2.875   3.860
44393SOL    HW235077   8.193   2.777   3.756
44394SOL     OW35078   8.416   2.961  11.221
44394SOL    HW135079   8.488   2.931  11.276
44394SOL    HW235080   8.402   3.052  11.248
44395SOL     OW35081  11.195   2.255  11.905
44395SOL    HW135082  11.125   2.202  11.866
44395SOL    HW235083  11.185   2.341  11.866
44396SOL     OW35084  12.993  11.190   5.202
44396SOL    HW135085  12.923  11.163   5.263
44396SOL    HW235086  13.031  11.267   5.244
44397SOL     OW35087   6.068  13.397   9.483
44397SOL    HW135088   6.036  13.409   9.572
44397SOL    HW235089   6.116  13.314   9.486
44398SOL     OW35090  11.019  11.293   7.953
44398SOL    HW135091  10.957  11.353   7.994
44398SOL    HW235092  11.069  11.347   7.893
44399SOL     OW35093   1.678   3.355  11.913
44399SOL    HW135094   1.735   3.303  11.970
44399SOL    HW235095   1.655   3.295  11.841
44400SOL     OW35096   5.072  11.505   6.898
44400SOL    HW135097   5.051  11.458   6.979
44400SOL    HW235098   5.106  11.438   6.840
44401SOL     OW35099   9.025   6.418  12.251
44401SOL    HW135100   9.006   6.501  12.296
44401SOL    HW235101   8.951   6.406  12.191
44402SOL     OW35102   7.425   1.562  11.202
44402SOL    HW135103   7.395   1.506  11.273
44402SOL    HW235104   7.401   1.651  11.229
44403SOL     OW35105  14.843  10.068   9.322
44403SOL    HW135106  14.804  10.153   9.302
44403SOL    HW235107  14.813  10.011   9.251
44404SOL     OW35108   6.784  12.064   9.820
44404SOL    HW135109   6.766  12.076   9.913
44404SOL    HW235110   6.867  12.109   9.806
44405SOL     OW35111  11.826   6.876   9.945
44405SOL    HW135112  11.852   6.788   9.973
44405SOL    HW235113  11.803   6.922  10.025
44406SOL     OW35114   1.171   4.979  12.919
44406SOL    HW135115   1.191   5.068  12.891
44406SOL    HW235116   1.147   4.933  12.839
44407SOL     OW35117   9.750  10.685   8.343
44407SOL    HW135118   9.734  10.779   8.346
44407SOL    HW235119   9.668  10.646   8.371
44408SOL     OW35120   8.763  13.487   1.145
44408SOL    HW135121   8.764  13.430   1.068
44408SOL    HW235122   8.855  13.495   1.170
44409SOL     OW35123   2.568  12.099   2.306
44409SOL    HW135124   2.645  12.123   2.253
44409SOL    HW235125   2.599  12.104   2.396
44410SOL     OW35126  11.764   8.781   5.450
44410SOL    HW135127  11.770   8.807   5.542
44410SOL    HW235128  11.770   8.686   5.452
44411SOL     OW35129  11.412   0.569   1.850
44411SOL    HW135130  11.481   0.504   1.862
44411SOL    HW235131  11.348   0.548   1.918
44412SOL     OW35132  13.890   6.278  12.800
44412SOL    HW135133  13.856   6.355  12.847
44412SOL    HW235134  13.949   6.315  12.734
44413SOL     OW35135   1.245   1.813   9.905
44413SOL    HW135136   1.304   1.839   9.976
44413SOL    HW235137   1.287   1.737   9.865
44414SOL     OW35138   8.181  10.395  13.022
44414SOL    HW135139   8.201  10.451  12.947
44414SOL    HW235140   8.118  10.446  13.074
44415SOL     OW35141  11.134   0.199   0.001
44415SOL    HW135142  11.165   0.171   0.087
44415SOL    HW235143  11.183   0.145  14.811
44416SOL     OW35144  13.950  11.213   6.312
44416SOL    HW135145  13.887  11.214   6.384
44416SOL    HW235146  14.023  11.162   6.345
44417SOL     OW35147  12.279  11.924  11.681
44417SOL    HW135148  12.344  11.935  11.611
44417SOL    HW235149  12.304  11.989  11.746
44418SOL     OW35150   9.958   3.487   3.313
44418SOL    HW135151   9.898   3.425   3.354
44418SOL    HW235152   9.977   3.550   3.382
44419SOL     OW35153  11.663  12.514   5.160
44419SOL    HW135154  11.754  12.542   5.171
44419SOL    HW235155  11.665  12.452   5.087
44420SOL     OW35156  13.102   1.694   9.497
44420SOL    HW135157  13.043   1.696   9.421
44420SOL    HW235158  13.146   1.779   9.495
44421SOL     OW35159  13.077   5.251   6.213
44421SOL    HW135160  13.025   5.321   6.173
44421SOL    HW235161  13.087   5.186   6.143
44422SOL     OW35162  11.023   6.104   7.301
44422SOL    HW135163  10.944   6.125   7.251
44422SOL    HW235164  11.065   6.189   7.317
44423SOL     OW35165   0.801   5.152   3.146
44423SOL    HW135166   0.827   5.105   3.226
44423SOL    HW235167   0.706   5.159   3.152
44424SOL     OW35168   8.068  13.859  12.514
44424SOL    HW135169   8.112  13.925  12.567
44424SOL    HW235170   7.998  13.908  12.470
44425SOL     OW35171   4.181   5.500  10.361
44425SOL    HW135172   4.104   5.523  10.414
44425SOL    HW235173   4.254   5.539  10.409
44426SOL     OW35174   3.830  13.689   9.078
44426SOL    HW135175   3.756  13.647   9.033
44426SOL    HW235176   3.878  13.616   9.117
44427SOL     OW35177  12.811   4.500   6.410
44427SOL    HW135178  12.816   4.548   6.327
44427SOL    HW235179  12.747   4.431   6.394
44428SOL     OW35180  10.222   2.261  10.009
44428SOL    HW135181  10.186   2.322   9.944
44428SOL    HW235182  10.313   2.287  10.019
44429SOL     OW35183   4.227   0.145   5.060
44429SOL    HW135184   4.281   0.190   5.124
44429SOL    HW235185   4.145   0.193   5.059
44430SOL     OW35186   7.504  10.575   2.468
44430SOL    HW135187   7.523  10.667   2.484
44430SOL    HW235188   7.578  10.545   2.414
44431SOL     OW35189   1.935  11.880   2.273
44431SOL    HW135190   1.847  11.891   2.310
44431SOL    HW235191   1.924  11.811   2.207
44432SOL     OW35192   1.423   2.129   1.351
44432SOL    HW135193   1.335   2.127   1.313
44432SOL    HW235194   1.424   2.058   1.415
44433SOL     OW35195   2.163   8.564  12.741
44433SOL    HW135196   2.110   8.513  12.679
44433SOL    HW235197   2.253   8.541  12.719
44434SOL     OW35198   2.094   5.698   0.922
44434SOL    HW135199   2.111   5.625   0.862
44434SOL    HW235200   2.008   5.679   0.959
44435SOL     OW35201   4.489   4.504  13.747
44435SOL    HW135202   4.444   4.463  13.673
44435SOL    HW235203   4.557   4.440  13.771
44436SOL     OW35204  10.950   8.526  12.292
44436SOL    HW135205  11.040   8.494  12.304
44436SOL    HW235206  10.945   8.544  12.198
44437SOL     OW35207   7.841  13.981  13.136
44437SOL    HW135208   7.812  13.934  13.215
44437SOL    HW235209   7.834  13.917  13.066
44438SOL     OW35210   0.005  13.158   3.623
44438SOL    HW135211  14.863  13.239   3.671
44438SOL    HW235212  14.811  13.160   3.553
44439SOL     OW35213  14.276   1.423   7.661
44439SOL    HW135214  14.331   1.439   7.738
44439SOL    HW235215  14.338   1.415   7.589
44440SOL     OW35216   4.959   9.274   6.601
44440SOL    HW135217   5.026   9.209   6.623
44440SOL    HW235218   4.879   9.223   6.591
44441SOL     OW35219   1.522   4.509  12.426
44441SOL    HW135220   1.545   4.600  12.446
44441SOL    HW235221   1.590   4.457  12.468
44442SOL     OW35222   3.530   9.161  10.832
44442SOL    HW135223   3.592   9.209  10.777
44442SOL    HW235224   3.515   9.079  10.784
44443SOL     OW35225   9.425   0.167   9.790
44443SOL    HW135226   9.422   0.260   9.810
44443SOL    HW235227   9.498   0.134   9.842
44444SOL     OW35228   4.857   9.969  12.569
44444SOL    HW135229   4.764   9.977  12.585
44444SOL    HW235230   4.898  10.029  12.632
44445SOL     OW35231   2.352   1.965  11.202
44445SOL    HW135232   2.348   1.877  11.238
44445SOL    HW235233   2.266   2.003  11.221
44446SOL     OW35234   7.444   5.477  11.233
44446SOL    HW135235   7.538   5.458  11.223
44446SOL    HW235236   7.438   5.572  11.220
44447SOL     OW35237  12.363   4.534   3.528
44447SOL    HW135238  12.288   4.490   3.488
44447SOL    HW235239  12.437   4.476   3.511
44448SOL     OW35240   1.557  10.556  11.521
44448SOL    HW135241   1.464  10.578  11.525
44448SOL    HW235242   1.590  10.573  11.609
44449SOL     OW35243  14.703   6.777   1.785
44449SOL    HW135244  14.647   6.801   1.711
44449SOL    HW235245  14.697   6.852   1.845
44450SOL     OW35246  10.610   8.910   7.535
44450SOL    HW135247  10.587   8.846   7.603
44450SOL    HW235248  10.705   8.915   7.537
44451SOL     OW35249   2.436   2.976   9.727
44451SOL    HW135250   2.470   2.916   9.660
44451SOL    HW235251   2.510   3.031   9.750
44452SOL     OW35252   5.882   9.056   3.639
44452SOL    HW135253   5.789   9.056   3.658
44452SOL    HW235254   5.900   8.971   3.600
44453SOL     OW35255  12.201   5.846  12.265
44453SOL    HW135256  12.238   5.904  12.198
44453SOL    HW235257  12.169   5.905  12.333
44454SOL     OW35258   4.337   0.490   6.353
44454SOL    HW135259   4.362   0.406   6.392
44454SOL    HW235260   4.247   0.504   6.384
44455SOL     OW35261   2.280   6.613   1.914
44455SOL    HW135262   2.253   6.526   1.945
44455SOL    HW235263   2.359   6.597   1.862
44456SOL     OW35264  10.109   0.375   6.571
44456SOL    HW135265  10.171   0.315   6.529
44456SOL    HW235266  10.163   0.450   6.597
44457SOL     OW35267   1.159   0.220  12.095
44457SOL    HW135268   1.179   0.264  12.178
44457SOL    HW235269   1.158   0.290  12.030
44458SOL     OW35270  11.891   6.958   8.806
44458SOL    HW135271  11.845   6.998   8.879
44458SOL    HW235272  11.869   7.012   8.730
44459SOL     OW35273   4.640   1.756   5.390
44459SOL    HW135274   4.725   1.723   5.362
44459SOL    HW235275   4.616   1.821   5.323
44460SOL     OW35276  11.937   8.043  11.367
44460SOL    HW135277  11.862   8.056  11.309
44460SOL    HW235278  11.954   8.129  11.404
44461SOL     OW35279   0.987   9.773   7.236
44461SOL    HW135280   0.913   9.735   7.283
44461SOL    HW235281   0.956   9.861   7.211
44462SOL     OW35282   6.447   1.945  12.685
44462SOL    HW135283   6.386   1.873  12.669
44462SOL    HW235284   6.391   2.019  12.709
44463SOL     OW35285   3.265   0.723   4.688
44463SOL    HW135286   3.295   0.653   4.747
44463SOL    HW235287   3.196   0.682   4.636
44464SOL     OW35288   0.709   0.314   9.253
44464SOL    HW135289   0.624   0.282   9.282
44464SOL    HW235290   0.692   0.358   9.170
44465SOL     OW35291   3.460   6.782   4.012
44465SOL    HW135292   3.540   6.733   3.993
44465SOL    HW235293   3.487   6.874   4.012
44466SOL     OW35294   3.787   0.432  14.316
44466SOL    HW135295   3.856   0.374  14.282
44466SOL    HW235296   3.776   0.406  14.407
44467SOL     OW35297  10.727  11.297   6.719
44467SOL    HW135298  10.665  11.306   6.791
44467SOL    HW235299  10.813  11.292   6.761
44468SOL     OW35300  13.878   6.404   0.524
44468SOL    HW135301  13.969   6.378   0.510
44468SOL    HW235302  13.826   6.336   0.481
44469SOL     OW35303   3.630   6.094   0.633
44469SOL    HW135304   3.689   6.020   0.647
44469SOL    HW235305   3.689   6.168   0.615
44470SOL     OW35306  11.311   6.827   9.841
44470SOL    HW135307  11.322   6.762   9.911
44470SOL    HW235308  11.400   6.857   9.823
44471SOL     OW35309  11.387   1.959   5.782
44471SOL    HW135310  11.372   2.053   5.775
44471SOL    HW235311  11.474   1.951   5.821
44472SOL     OW35312  11.209   8.118   1.439
44472SOL    HW135313  11.135   8.124   1.378
44472SOL    HW235314  11.177   8.159   1.519
44473SOL     OW35315  12.004   3.193   5.313
44473SOL    HW135316  11.990   3.152   5.227
44473SOL    HW235317  12.083   3.246   5.301
44474SOL     OW35318   2.842   4.214  10.457
44474SOL    HW135319   2.865   4.301  10.423
44474SOL    HW235320   2.753   4.199  10.425
44475SOL     OW35321   2.718  13.058  11.009
44475SOL    HW135322   2.758  13.143  11.028
44475SOL    HW235323   2.742  13.040  10.918
44476SOL     OW35324  11.819  12.327   7.295
44476SOL    HW135325  11.748  12.384   7.264
44476SOL    HW235326  11.890  12.340   7.232
44477SOL     OW35327   4.250   0.122   1.024
44477SOL    HW135328   4.338   0.099   0.993
44477SOL    HW235329   4.192   0.096   0.952
44478SOL     OW35330   7.086  13.527   7.539
44478SOL    HW135331   7.136  13.608   7.537
44478SOL    HW235332   7.071  13.505   7.447
44479SOL     OW35333   4.858  12.761   3.803
44479SOL    HW135334   4.789  12.771   3.869
44479SOL    HW235335   4.939  12.782   3.848
44480SOL     OW35336  11.163  11.951   4.969
44480SOL    HW135337  11.136  11.931   4.879
44480SOL    HW235338  11.157  12.046   4.975
44481SOL     OW35339   2.006   4.507   5.502
44481SOL    HW135340   2.074   4.574   5.496
44481SOL    HW235341   2.040   4.442   5.563
44482SOL     OW35342   0.095   9.904  14.819
44482SOL    HW135343   0.034   9.952  14.763
44482SOL    HW235344   0.182   9.933  14.791
44483SOL     OW35345   1.042   4.204   9.995
44483SOL    HW135346   0.988   4.212   9.916
44483SOL    HW235347   1.105   4.136   9.973
44484SOL     OW35348   6.550  14.428   3.101
44484SOL    HW135349   6.576  14.514   3.068
44484SOL    HW235350   6.605  14.367   3.053
44485SOL     OW35351   6.056   6.067  13.216
44485SOL    HW135352   6.122   5.999  13.213
44485SOL    HW235353   6.088   6.130  13.281
44486SOL     OW35354  11.508   4.975   8.228
44486SOL    HW135355  11.517   4.910   8.297
44486SOL    HW235356  11.414   4.982   8.213
44487SOL     OW35357  13.134   1.307   1.761
44487SOL    HW135358  13.148   1.337   1.851
44487SOL    HW235359  13.170   1.218   1.760
44488SOL     OW35360  12.188   8.937  13.027
44488SOL    HW135361  12.231   9.011  13.070
44488SOL    HW235362  12.115   8.977  12.979
44489SOL     OW35363   1.855   2.650   2.540
44489SOL    HW135364   1.788   2.614   2.482
44489SOL    HW235365   1.932   2.660   2.484
44490SOL     OW35366  12.349  13.300   9.435
44490SOL    HW135367  12.394  13.378   9.402
44490SOL    HW235368  12.383  13.229   9.382
44491SOL     OW35369   3.382  12.544  12.484
44491SOL    HW135370   3.441  12.531  12.558
44491SOL    HW235371   3.390  12.637  12.463
44492SOL     OW35372  10.747  11.606  12.108
44492SOL    HW135373  10.743  11.519  12.067
44492SOL    HW235374  10.823  11.600  12.167
44493SOL     OW35375   1.966   6.360   7.864
44493SOL    HW135376   2.058   6.356   7.838
44493SOL    HW235377   1.935   6.444   7.830
44494SOL     OW35378  12.192   5.150  12.253
44494SOL    HW135379  12.239   5.219  12.205
44494SOL    HW235380  12.254   5.077  12.256
44495SOL     OW35381   9.569   3.739  14.156
44495SOL    HW135382   9.583   3.787  14.074
44495SOL    HW235383   9.476   3.721  14.158
44496SOL     OW35384  10.399   2.210  11.262
44496SOL    HW135385  10.492   2.230  11.251
44496SOL    HW235386  10.354   2.288  11.229
44497SOL     OW35387   3.272   7.886  14.372
44497SOL    HW135388   3.225   7.806  14.396
44497SOL    HW235389   3.220   7.924  14.302
44498SOL     OW35390   3.734   7.836  13.743
44498SOL    HW135391   3.644   7.802  13.740
44498SOL    HW235392   3.752   7.844  13.837
44499SOL     OW35393   2.215   7.438   4.131
44499SOL    HW135394   2.302   7.447   4.171
44499SOL    HW235395   2.155   7.474   4.196
44500SOL     OW35396  12.746   7.578   1.916
44500SOL    HW135397  12.690   7.545   1.846
44500SOL    HW235398  12.722   7.526   1.993
44501SOL     OW35399   4.691  10.902   7.484
44501SOL    HW135400   4.629  10.832   7.504
44501SOL    HW235401   4.640  10.967   7.437
44502SOL     OW35402  12.589   4.570  14.830
44502SOL    HW135403  12.579   4.475  14.842
44502SOL    HW235404  12.513   4.596  14.778
44503SOL     OW35405  13.454   6.340  12.190
44503SOL    HW135406  13.483   6.268  12.245
44503SOL    HW235407  13.534   6.374  12.150
44504SOL     OW35408  12.035  12.088  13.149
44504SOL    HW135409  12.119  12.054  13.118
44504SOL    HW235410  12.051  12.112  13.240
44505SOL     OW35411   9.153   2.158   9.604
44505SOL    HW135412   9.234   2.120   9.638
44505SOL    HW235413   9.163   2.253   9.618
44506SOL     OW35414  12.634   2.351  14.382
44506SOL    HW135415  12.723   2.373  14.407
44506SOL    HW235416  12.640   2.262  14.347
44507SOL     OW35417  12.894   5.409   8.055
44507SOL    HW135418  12.873   5.402   7.962
44507SOL    HW235419  12.853   5.333   8.095
44508SOL     OW35420  10.974  14.492  11.169
44508SOL    HW135421  10.952  14.537  11.250
44508SOL    HW235422  11.067  14.471  11.178
44509SOL     OW35423   9.651   3.992  12.315
44509SOL    HW135424   9.705   3.915  12.296
44509SOL    HW235425   9.703   4.043  12.376
44510SOL     OW35426   2.473  11.002   6.233
44510SOL    HW135427   2.422  10.977   6.155
44510SOL    HW235428   2.526  11.076   6.203
44511SOL     OW35429   4.357   8.021   4.632
44511SOL    HW135430   4.370   7.994   4.722
44511SOL    HW235431   4.343   8.116   4.637
44512SOL     OW35432  10.375   6.755  13.795
44512SOL    HW135433  10.416   6.683  13.748
44512SOL    HW235434  10.314   6.713  13.855
44513SOL     OW35435  13.396  12.086   4.967
44513SOL    HW135436  13.465  12.136   4.925
44513SOL    HW235437  13.392  12.121   5.056
44514SOL     OW35438   2.983   4.327   0.737
44514SOL    HW135439   2.935   4.269   0.678
44514SOL    HW235440   3.071   4.332   0.699
44515SOL     OW35441  13.092   2.476  13.544
44515SOL    HW135442  13.127   2.464  13.632
44515SOL    HW235443  13.100   2.390  13.503
44516SOL     OW35444   1.744  11.946   2.857
44516SOL    HW135445   1.734  11.904   2.771
44516SOL    HW235446   1.838  11.957   2.867
44517SOL     OW35447   8.089  11.790   7.843
44517SOL    HW135448   8.073  11.703   7.806
44517SOL    HW235449   8.141  11.773   7.921
44518SOL     OW35450   6.383   2.058  10.841
44518SOL    HW135451   6.417   2.109  10.768
44518SOL    HW235452   6.291   2.044  10.821
44519SOL     OW35453  14.591   7.825   5.331
44519SOL    HW135454  14.613   7.771   5.255
44519SOL    HW235455  14.575   7.762   5.401
44520SOL     OW35456   7.451  10.408   6.768
44520SOL    HW135457   7.481  10.486   6.816
44520SOL    HW235458   7.399  10.359   6.832
44521SOL     OW35459   3.884  12.235   2.129
44521SOL    HW135460   3.952  12.208   2.190
44521SOL    HW235461   3.919  12.216   2.042
44522SOL     OW35462  10.919   7.044   2.985
44522SOL    HW135463  10.892   7.060   2.895
44522SOL    HW235464  10.855   7.092   3.038
44523SOL     OW35465   9.930   5.040   1.443
44523SOL    HW135466  10.022   5.022   1.461
44523SOL    HW235467   9.898   5.084   1.522
44524SOL     OW35468  10.442   0.156   7.559
44524SOL    HW135469  10.364   0.131   7.608
44524SOL    HW235470  10.477   0.232   7.606
44525SOL     OW35471   9.318   6.231   2.375
44525SOL    HW135472   9.242   6.267   2.328
44525SOL    HW235473   9.341   6.298   2.439
44526SOL     OW35474   1.236   0.683   7.849
44526SOL    HW135475   1.227   0.744   7.922
44526SOL    HW235476   1.326   0.652   7.855
44527SOL     OW35477  13.337  11.165   4.087
44527SOL    HW135478  13.314  11.139   4.176
44527SOL    HW235479  13.410  11.226   4.097
44528SOL     OW35480   0.736   7.546   6.212
44528SOL    HW135481   0.743   7.521   6.304
44528SOL    HW235482   0.819   7.587   6.191
44529SOL     OW35483   2.440   0.069   0.685
44529SOL    HW135484   2.397   0.078   0.600
44529SOL    HW235485   2.379   0.017   0.737
44530SOL     OW35486   4.722   4.853   3.844
44530SOL    HW135487   4.740   4.803   3.924
44530SOL    HW235488   4.779   4.930   3.851
44531SOL     OW35489  12.998   9.934   0.036
44531SOL    HW135490  13.088   9.926   0.005
44531SOL    HW235491  13.006   9.970   0.124
44532SOL     OW35492  14.030   9.466   4.595
44532SOL    HW135493  14.074   9.476   4.679
44532SOL    HW235494  14.087   9.409   4.544
44533SOL     OW35495   3.166  14.359  14.573
44533SOL    HW135496   3.227  14.371  14.645
44533SOL    HW235497   3.192  14.425  14.508
44534SOL     OW35498   4.710   6.681   3.697
44534SOL    HW135499   4.678   6.643   3.779
44534SOL    HW235500   4.633   6.679   3.639
44535SOL     OW35501  10.946  14.224  13.252
44535SOL    HW135502  10.969  14.314  13.278
44535SOL    HW235503  11.019  14.195  13.198
44536SOL     OW35504   0.170  11.010   4.651
44536SOL    HW135505   0.075  11.011   4.635
44536SOL    HW235506   0.206  10.959   4.578
44537SOL     OW35507  10.236   8.572   2.074
44537SOL    HW135508  10.191   8.542   1.995
44537SOL    HW235509  10.170   8.624   2.121
44538SOL     OW35510   6.381  11.736  14.384
44538SOL    HW135511   6.364  11.772  14.471
44538SOL    HW235512   6.465  11.691  14.392
44539SOL     OW35513  11.555   7.206   1.172
44539SOL    HW135514  11.623   7.156   1.127
44539SOL    HW235515  11.499   7.240   1.102
44540SOL     OW35516   1.922   6.942   8.985
44540SOL    HW135517   1.992   6.969   9.044
44540SOL    HW235518   1.890   7.024   8.947
44541SOL     OW35519   3.503   8.468   1.098
44541SOL    HW135520   3.570   8.404   1.123
44541SOL    HW235521   3.486   8.518   1.177
44542SOL     OW35522   6.356   2.995  12.604
44542SOL    HW135523   6.415   2.945  12.660
44542SOL    HW235524   6.409   3.017  12.527
44543SOL     OW35525   4.164   8.703   0.090
44543SOL    HW135526   4.157   8.769   0.022
44543SOL    HW235527   4.222   8.742   0.156
44544SOL     OW35528   4.063   7.622   8.108
44544SOL    HW135529   4.144   7.624   8.058
44544SOL    HW235530   4.033   7.531   8.101
44545SOL     OW35531   6.783  10.252   7.347
44545SOL    HW135532   6.806  10.170   7.303
44545SOL    HW235533   6.770  10.227   7.438
44546SOL     OW35534   9.758  13.660   2.709
44546SOL    HW135535   9.711  13.597   2.765
44546SOL    HW235536   9.846  13.665   2.748
44547SOL     OW35537   7.252   1.030   5.765
44547SOL    HW135538   7.159   1.047   5.751
44547SOL    HW235539   7.280   1.099   5.824
44548SOL     OW35540   4.141  12.407   7.489
44548SOL    HW135541   4.067  12.380   7.434
44548SOL    HW235542   4.136  12.502   7.492
44549SOL     OW35543   9.390  10.135  13.871
44549SOL    HW135544   9.315  10.190  13.896
44549SOL    HW235545   9.435  10.186  13.804
44550SOL     OW35546   6.733   9.912  12.289
44550SOL    HW135547   6.766   9.830  12.252
44550SOL    HW235548   6.686   9.953  12.217
44551SOL     OW35549  10.668   7.936  12.470
44551SOL    HW135550  10.672   7.974  12.382
44551SOL    HW235551  10.588   7.972  12.509
44552SOL     OW35552   3.282   2.417   8.213
44552SOL    HW135553   3.308   2.506   8.189
44552SOL    HW235554   3.349   2.387   8.274
44553SOL     OW35555   7.433  11.885   8.389
44553SOL    HW135556   7.390  11.904   8.306
44553SOL    HW235557   7.431  11.790   8.396
44554SOL     OW35558   9.790   7.250   1.972
44554SOL    HW135559   9.816   7.169   1.928
44554SOL    HW235560   9.871   7.299   1.981
44555SOL     OW35561  12.669   0.437   5.055
44555SOL    HW135562  12.610   0.495   5.103
44555SOL    HW235563  12.667   0.355   5.105
44556SOL     OW35564   5.982  10.034   3.012
44556SOL    HW135565   6.022   9.961   3.060
44556SOL    HW235566   5.899  10.049   3.058
44557SOL     OW35567  13.544   4.866   7.269
44557SOL    HW135568  13.564   4.821   7.351
44557SOL    HW235569  13.473   4.926   7.291
44558SOL     OW35570   1.132  11.509  12.371
44558SOL    HW135571   1.135  11.538  12.462
44558SOL    HW235572   1.120  11.589  12.320
44559SOL     OW35573   2.701  10.637   0.402
44559SOL    HW135574   2.712  10.680   0.487
44559SOL    HW235575   2.714  10.544   0.420
44560SOL     OW35576  12.882   6.631   8.746
44560SOL    HW135577  12.920   6.601   8.829
44560SOL    HW235578  12.943   6.697   8.714
44561SOL     OW35579   5.761  11.077   4.210
44561SOL    HW135580   5.671  11.058   4.238
44561SOL    HW235581   5.755  11.086   4.115
44562SOL     OW35582   6.270   4.427   9.262
44562SOL    HW135583   6.183   4.459   9.287
44562SOL    HW235584   6.317   4.505   9.233
44563SOL     OW35585   5.731  10.510  13.014
44563SOL    HW135586   5.783  10.544  12.942
44563SOL    HW235587   5.642  10.508  12.980
44564SOL     OW35588   5.349   4.299   4.677
44564SOL    HW135589   5.315   4.387   4.690
44564SOL    HW235590   5.279   4.253   4.630
44565SOL     OW35591   1.500   8.054   9.796
44565SOL    HW135592   1.530   8.024   9.711
44565SOL    HW235593   1.568   8.115   9.826
44566SOL     OW35594  14.534   3.066   3.060
44566SOL    HW135595  14.571   3.056   2.972
44566SOL    HW235596  14.499   3.155   3.061
44567SOL     OW35597   0.033  13.732   7.687
44567SOL    HW135598   0.103  13.710   7.627
44567SOL    HW235599   0.078  13.756   7.769
44568SOL     OW35600   6.909  14.123   3.756
44568SOL    HW135601   6.850  14.078   3.695
44568SOL    HW235602   6.852  14.183   3.804
44569SOL     OW35603  10.135   7.738   2.199
44569SOL    HW135604  10.187   7.684   2.258
44569SOL    HW235605  10.146   7.827   2.230
44570SOL     OW35606   0.896   0.475   8.993
44570SOL    HW135607   0.849   0.401   8.956
44570SOL    HW235608   0.940   0.515   8.918
44571SOL     OW35609  14.360   2.338   6.097
44571SOL    HW135610  14.295   2.385   6.044
44571SOL    HW235611  14.308   2.281   6.153
44572SOL     OW35612   5.573   8.691   6.571
44572SOL    HW135613   5.510   8.678   6.642
44572SOL    HW235614   5.658   8.691   6.613
44573SOL     OW35615   1.820   1.750  12.438
44573SOL    HW135616   1.905   1.707  12.447
44573SOL    HW235617   1.835   1.840  12.465
44574SOL     OW35618   5.942   5.948  11.563
44574SOL    HW135619   5.954   5.905  11.647
44574SOL    HW235620   5.857   5.992  11.570
44575SOL     OW35621   3.836  10.988   7.841
44575SOL    HW135622   3.881  10.922   7.894
44575SOL    HW235623   3.886  11.068   7.855
44576SOL     OW35624  12.690  12.915   8.795
44576SOL    HW135625  12.684  12.822   8.815
44576SOL    HW235626  12.784  12.935   8.801
44577SOL     OW35627   8.811   5.719  11.275
44577SOL    HW135628   8.798   5.753  11.363
44577SOL    HW235629   8.903   5.738  11.255
44578SOL     OW35630   6.132   7.006   2.212
44578SOL    HW135631   6.144   6.977   2.303
44578SOL    HW235632   6.040   7.031   2.207
44579SOL     OW35633  11.614   7.572   2.965
44579SOL    HW135634  11.549   7.536   2.905
44579SOL    HW235635  11.694   7.580   2.912
44580SOL     OW35636  13.100   9.177   8.341
44580SOL    HW135637  13.169   9.137   8.289
44580SOL    HW235638  13.093   9.121   8.419
44581SOL     OW35639   0.946   3.230  12.978
44581SOL    HW135640   0.912   3.143  12.997
44581SOL    HW235641   0.924   3.282  13.056
44582SOL     OW35642   6.460  10.454   9.698
44582SOL    HW135643   6.499  10.542   9.694
44582SOL    HW235644   6.506  10.404   9.630
44583SOL     OW35645   2.999   5.383   6.324
44583SOL    HW135646   2.996   5.424   6.238
44583SOL    HW235647   2.929   5.426   6.373
44584SOL     OW35648   7.368  13.515  13.490
44584SOL    HW135649   7.283  13.556  13.502
44584SOL    HW235650   7.360  13.466  13.408
44585SOL     OW35651   1.568  12.964  11.274
44585SOL    HW135652   1.568  13.044  11.221
44585SOL    HW235653   1.657  12.957  11.306
44586SOL     OW35654   7.622   9.695   4.695
44586SOL    HW135655   7.599   9.632   4.627
44586SOL    HW235656   7.541   9.709   4.744
44587SOL     OW35657  12.134  14.546   7.089
44587SOL    HW135658  12.084  14.549   7.170
44587SOL    HW235659  12.160  14.454   7.080
44588SOL     OW35660   4.258   3.176  10.974
44588SOL    HW135661   4.265   3.185  10.879
44588SOL    HW235662   4.210   3.254  11.002
44589SOL     OW35663   6.492  14.388   0.989
44589SOL    HW135664   6.544  14.398   1.068
44589SOL    HW235665   6.420  14.450   0.999
44590SOL     OW35666  12.865  13.536   6.989
44590SOL    HW135667  12.916  13.463   7.026
44590SOL    HW235668  12.871  13.524   6.895
44591SOL     OW35669  11.335  11.324   5.553
44591SOL    HW135670  11.300  11.412   5.566
44591SOL    HW235671  11.428  11.332   5.575
44592SOL     OW35672   7.808   6.684  12.450
44592SOL    HW135673   7.861   6.605  12.442
44592SOL    HW235674   7.845   6.745  12.385
44593SOL     OW35675   7.499   6.561   4.558
44593SOL    HW135676   7.540   6.477   4.579
44593SOL    HW235677   7.502   6.610   4.640
44594SOL     OW35678   9.742   4.135   7.791
44594SOL    HW135679   9.675   4.195   7.758
44594SOL    HW235680   9.721   4.124   7.884
44595SOL     OW35681   9.290   6.674   8.245
44595SOL    HW135682   9.372   6.662   8.293
44595SOL    HW235683   9.283   6.597   8.190
44596SOL     OW35684   8.973   6.397   6.795
44596SOL    HW135685   8.883   6.373   6.816
44596SOL    HW235686   9.016   6.409   6.880
44597SOL     OW35687  13.836   8.895   5.574
44597SOL    HW135688  13.884   8.840   5.512
44597SOL    HW235689  13.902   8.921   5.638
44598SOL     OW35690   5.032   6.191   5.465
44598SOL    HW135691   5.070   6.146   5.540
44598SOL    HW235692   5.021   6.122   5.399
44599SOL     OW35693   4.296   8.606   9.944
44599SOL    HW135694   4.337   8.534   9.992
44599SOL    HW235695   4.212   8.570   9.914
44600SOL     OW35696  10.049  14.848   5.729
44600SOL    HW135697  10.080  14.763   5.701
44600SOL    HW235698  10.064   0.034   5.655
44601SOL     OW35699   0.878   3.261   3.938
44601SOL    HW135700   0.879   3.260   3.842
44601SOL    HW235701   0.902   3.172   3.964
44602SOL     OW35702  10.419   9.637   4.493
44602SOL    HW135703  10.486   9.704   4.504
44602SOL    HW235704  10.430   9.579   4.569
44603SOL     OW35705   1.701   5.747   7.685
44603SOL    HW135706   1.772   5.754   7.621
44603SOL    HW235707   1.745   5.746   7.770
44604SOL     OW35708   0.213   6.880   6.801
44604SOL    HW135709   0.263   6.814   6.753
44604SOL    HW235710   0.130   6.837   6.823
44605SOL     OW35711  14.643  14.476   5.930
44605SOL    HW135712  14.648  14.569   5.951
44605SOL    HW235713  14.636  14.433   6.016
44606SOL     OW35714   4.945  10.766   8.046
44606SOL    HW135715   4.857  10.771   8.084
44606SOL    HW235716   4.945  10.832   7.977
44607SOL     OW35717   3.339   0.167   4.503
44607SOL    HW135718   3.364   0.255   4.531
44607SOL    HW235719   3.292   0.180   4.421
44608SOL     OW35720   6.653   2.797   2.544
44608SOL    HW135721   6.574   2.846   2.566
44608SOL    HW235722   6.688   2.770   2.629
44609SOL     OW35723   1.742  12.258   4.943
44609SOL    HW135724   1.699  12.310   5.012
44609SOL    HW235725   1.720  12.168   4.964
44610SOL     OW35726   7.657  12.189   1.797
44610SOL    HW135727   7.693  12.274   1.770
44610SOL    HW235728   7.565  12.207   1.814
44611SOL     OW35729  14.757  10.228  13.985
44611SOL    HW135730  14.765  10.133  13.990
44611SOL    HW235731  14.845  10.262  14.003
44612SOL     OW35732   7.718   6.275  10.408
44612SOL    HW135733   7.776   6.302  10.336
44612SOL    HW235734   7.630   6.286  10.372
44613SOL     OW35735   6.359   9.393   0.264
44613SOL    HW135736   6.405   9.319   0.224
44613SOL    HW235737   6.293   9.418   0.200
44614SOL     OW35738   4.584   2.265   0.670
44614SOL    HW135739   4.505   2.290   0.718
44614SOL    HW235740   4.652   2.324   0.702
44615SOL     OW35741   1.344   7.498   2.685
44615SOL    HW135742   1.299   7.572   2.643
44615SOL    HW235743   1.275   7.437   2.708
44616SOL     OW35744   0.244   8.103   1.378
44616SOL    HW135745   0.266   8.024   1.328
44616SOL    HW235746   0.232   8.171   1.312
44617SOL     OW35747   5.006   7.128   1.172
44617SOL    HW135748   5.013   7.106   1.079
44617SOL    HW235749   5.096   7.142   1.200
44618SOL     OW35750   4.868   2.746   4.049
44618SOL    HW135751   4.936   2.721   3.987
44618SOL    HW235752   4.786   2.736   4.002
44619SOL     OW35753   8.072  10.072   1.116
44619SOL    HW135754   8.034  10.135   1.054
44619SOL    HW235755   8.004  10.006   1.129
44620SOL     OW35756   2.105  12.881   3.034
44620SOL    HW135757   2.145  12.932   3.104
44620SOL    HW235758   2.099  12.942   2.960
44621SOL     OW35759   5.848   7.155   5.360
44621SOL    HW135760   5.810   7.195   5.281
44621SOL    HW235761   5.891   7.075   5.328
44622SOL     OW35762   9.444  10.453   0.927
44622SOL    HW135763   9.532  10.489   0.914
44622SOL    HW235764   9.443  10.374   0.874
44623SOL     OW35765  12.812  12.304   1.937
44623SOL    HW135766  12.817  12.323   2.030
44623SOL    HW235767  12.723  12.269   1.924
44624SOL     OW35768   9.369   3.282   0.554
44624SOL    HW135769   9.413   3.357   0.593
44624SOL    HW235770   9.351   3.309   0.463
44625SOL     OW35771  14.686  12.644   4.987
44625SOL    HW135772  14.648  12.729   5.010
44625SOL    HW235773  14.648  12.583   5.050
44626SOL     OW35774  10.948  11.348  13.735
44626SOL    HW135775  10.886  11.420  13.733
44626SOL    HW235776  11.024  11.382  13.783
44627SOL     OW35777   0.882   7.264   5.229
44627SOL    HW135778   0.880   7.296   5.139
44627SOL    HW235779   0.960   7.210   5.235
44628SOL     OW35780   0.634   3.467   9.513
44628SOL    HW135781   0.631   3.390   9.455
44628SOL    HW235782   0.633   3.542   9.453
44629SOL     OW35783  11.982  11.111   2.336
44629SOL    HW135784  11.887  11.095   2.332
44629SOL    HW235785  12.011  11.099   2.245
44630SOL     OW35786   5.457  11.163   1.647
44630SOL    HW135787   5.375  11.183   1.603
44630SOL    HW235788   5.465  11.067   1.641
44631SOL     OW35789   7.819   1.623   5.181
44631SOL    HW135790   7.848   1.581   5.099
44631SOL    HW235791   7.833   1.556   5.248
44632SOL     OW35792   9.248   9.676   0.403
44632SOL    HW135793   9.324   9.618   0.406
44632SOL    HW235794   9.202   9.651   0.323
44633SOL     OW35795   0.009   3.718  13.143
44633SOL    HW135796  14.814   3.650  13.151
44633SOL    HW235797  14.839   3.798  13.176
44634SOL     OW35798  14.522   5.619   7.238
44634SOL    HW135799  14.547   5.665   7.158
44634SOL    HW235800  14.579   5.654   7.306
44635SOL     OW35801  11.450  14.601   2.275
44635SOL    HW135802  11.399  14.654   2.214
44635SOL    HW235803  11.540  14.607   2.242
44636SOL     OW35804  10.262   0.473   1.987
44636SOL    HW135805  10.196   0.455   1.921
44636SOL    HW235806  10.211   0.495   2.066
44637SOL     OW35807   3.363   7.097  10.951
44637SOL    HW135808   3.271   7.115  10.973
44637SOL    HW235809   3.404   7.183  10.947
44638SOL     OW35810   1.470   4.963   8.861
44638SOL    HW135811   1.545   4.976   8.803
44638SOL    HW235812   1.507   4.965   8.950
44639SOL     OW35813  10.357   2.412   4.456
44639SOL    HW135814  10.404   2.397   4.538
44639SOL    HW235815  10.414   2.375   4.388
44640SOL     OW35816   1.524  14.843   1.771
44640SOL    HW135817   1.535  14.826   1.864
44640SOL    HW235818   1.432  14.821   1.754
44641SOL     OW35819   7.891   3.188  10.050
44641SOL    HW135820   7.982   3.197  10.078
44641SOL    HW235821   7.848   3.268  10.082
44642SOL     OW35822   8.095   3.589   8.622
44642SOL    HW135823   8.093   3.677   8.586
44642SOL    HW235824   8.181   3.582   8.664
44643SOL     OW35825   8.331   5.877  13.279
44643SOL    HW135826   8.281   5.951  13.312
44643SOL    HW235827   8.365   5.906  13.194
44644SOL     OW35828  13.745   7.996  11.329
44644SOL    HW135829  13.689   7.918  11.327
44644SOL    HW235830  13.834   7.962  11.332
44645SOL     OW35831   8.364   2.687   8.664
44645SOL    HW135832   8.314   2.641   8.597
44645SOL    HW235833   8.456   2.670   8.641
44646SOL     OW35834  13.865  11.662  13.207
44646SOL    HW135835  13.835  11.690  13.294
44646SOL    HW235836  13.900  11.743  13.168
44647SOL     OW35837   7.652   3.292   3.357
44647SOL    HW135838   7.743   3.265   3.369
44647SOL    HW235839   7.623   3.245   3.279
44648SOL     OW35840   3.310  12.981   8.575
44648SOL    HW135841   3.236  13.036   8.551
44648SOL    HW235842   3.344  12.949   8.491
44649SOL     OW35843   9.086   9.259   2.119
44649SOL    HW135844   9.008   9.211   2.145
44649SOL    HW235845   9.052   9.344   2.088
44650SOL     OW35846   6.419  12.772  14.546
44650SOL    HW135847   6.346  12.716  14.519
44650SOL    HW235848   6.483  12.765  14.475
44651SOL     OW35849   1.914   9.485   3.621
44651SOL    HW135850   1.833   9.500   3.669
44651SOL    HW235851   1.899   9.404   3.573
44652SOL     OW35852   9.033   5.950   1.359
44652SOL    HW135853   9.096   5.936   1.288
44652SOL    HW235854   8.956   5.900   1.333
44653SOL     OW35855   7.029   1.871   9.198
44653SOL    HW135856   7.040   1.931   9.125
44653SOL    HW235857   7.118   1.845   9.222
44654SOL     OW35858   1.077   6.616   2.732
44654SOL    HW135859   0.984   6.627   2.750
44654SOL    HW235860   1.119   6.692   2.770
44655SOL     OW35861   4.389   7.220   3.714
44655SOL    HW135862   4.435   7.267   3.644
44655SOL    HW235863   4.418   7.263   3.794
44656SOL     OW35864  13.304   2.458   3.027
44656SOL    HW135865  13.235   2.472   3.092
44656SOL    HW235866  13.381   2.502   3.064
44657SOL     OW35867   1.432  14.230   6.031
44657SOL    HW135868   1.441  14.233   5.935
44657SOL    HW235869   1.387  14.310   6.054
44658SOL     OW35870   7.479   7.179   8.970
44658SOL    HW135871   7.449   7.114   8.907
44658SOL    HW235872   7.400   7.227   8.994
44659SOL     OW35873   1.303   5.781   6.037
44659SOL    HW135874   1.216   5.809   6.007
44659SOL    HW235875   1.318   5.832   6.117
44660SOL     OW35876   5.047   0.805  11.663
44660SOL    HW135877   4.995   0.866  11.714
44660SOL    HW235878   5.138   0.827  11.682
44661SOL     OW35879   0.242   3.802   5.699
44661SOL    HW135880   0.234   3.842   5.612
44661SOL    HW235881   0.152   3.786   5.727
44662SOL     OW35882   4.045  12.124   0.519
44662SOL    HW135883   4.077  12.048   0.567
44662SOL    HW235884   3.968  12.092   0.472
44663SOL     OW35885  12.090   3.737  14.058
44663SOL    HW135886  12.139   3.819  14.048
44663SOL    HW235887  12.145   3.671  14.016
44664SOL     OW35888   1.297   8.118   4.670
44664SOL    HW135889   1.352   8.132   4.593
44664SOL    HW235890   1.359   8.092   4.739
44665SOL     OW35891   8.428  13.774   4.539
44665SOL    HW135892   8.401  13.855   4.495
44665SOL    HW235893   8.408  13.705   4.476
44666SOL     OW35894  13.633  14.128  12.917
44666SOL    HW135895  13.549  14.117  12.872
44666SOL    HW235896  13.648  14.223  12.918
44667SOL     OW35897   3.372   0.985   2.996
44667SOL    HW135898   3.282   1.014   3.007
44667SOL    HW235899   3.408   0.984   3.085
44668SOL     OW35900  11.339   9.971   2.059
44668SOL    HW135901  11.269   9.910   2.082
44668SOL    HW235902  11.295  10.054   2.044
44669SOL     OW35903   2.259  13.996   3.742
44669SOL    HW135904   2.350  14.021   3.731
44669SOL    HW235905   2.223  14.062   3.801
44670SOL     OW35906  10.609  12.084   4.568
44670SOL    HW135907  10.662  12.042   4.500
44670SOL    HW235908  10.547  12.017   4.595
44671SOL     OW35909   9.437   4.054   7.173
44671SOL    HW135910   9.369   3.987   7.184
44671SOL    HW235911   9.513   4.017   7.218
44672SOL     OW35912   4.214  12.045  11.883
44672SOL    HW135913   4.204  11.998  11.800
44672SOL    HW235914   4.195  12.137  11.860
44673SOL     OW35915   4.699   3.029  11.157
44673SOL    HW135916   4.658   2.998  11.076
44673SOL    HW235917   4.637   3.093  11.192
44674SOL     OW35918   3.153   3.796  13.305
44674SOL    HW135919   3.247   3.780  13.315
44674SOL    HW235920   3.119   3.713  13.270
44675SOL     OW35921   9.259  12.377   4.379
44675SOL    HW135922   9.184  12.399   4.324
44675SOL    HW235923   9.230  12.300   4.429
44676SOL     OW35924   3.884  11.932  14.528
44676SOL    HW135925   3.861  11.931  14.435
44676SOL    HW235926   3.861  11.844  14.559
44677SOL     OW35927   1.514  11.431   1.741
44677SOL    HW135928   1.574  11.385   1.683
44677SOL    HW235929   1.447  11.367   1.763
44678SOL     OW35930  14.396   4.918  11.051
44678SOL    HW135931  14.357   4.885  11.132
44678SOL    HW235932  14.403   5.013  11.064
44679SOL     OW35933   5.253   9.429   8.604
44679SOL    HW135934   5.289   9.438   8.516
44679SOL    HW235935   5.282   9.342   8.633
44680SOL     OW35936   9.659   2.021   1.867
44680SOL    HW135937   9.743   2.049   1.831
44680SOL    HW235938   9.675   1.932   1.898
44681SOL     OW35939   3.006   1.354  12.158
44681SOL    HW135940   2.975   1.384  12.244
44681SOL    HW235941   2.979   1.262  12.153
44682SOL     OW35942  12.495   2.516   7.006
44682SOL    HW135943  12.407   2.499   7.037
44682SOL    HW235944  12.543   2.434   7.022
44683SOL     OW35945  14.704  11.844   7.575
44683SOL    HW135946  14.683  11.935   7.593
44683SOL    HW235947  14.630  11.813   7.522
44684SOL     OW35948   2.205  13.605   3.260
44684SOL    HW135949   2.294  13.632   3.240
44684SOL    HW235950   2.198  13.613   3.355
44685SOL     OW35951   3.748  12.758  14.715
44685SOL    HW135952   3.705  12.837  14.682
44685SOL    HW235953   3.756  12.702  14.638
44686SOL     OW35954   5.976  14.047   1.129
44686SOL    HW135955   6.067  14.069   1.147
44686SOL    HW235956   5.925  14.106   1.185
44687SOL     OW35957   0.268  13.323   0.358
44687SOL    HW135958   0.221  13.293   0.436
44687SOL    HW235959   0.303  13.409   0.382
44688SOL     OW35960   6.495   7.332  11.627
44688SOL    HW135961   6.496   7.425  11.603
44688SOL    HW235962   6.426   7.324  11.692
44689SOL     OW35963   4.206   1.380   6.971
44689SOL    HW135964   4.223   1.474   6.973
44689SOL    HW235965   4.114   1.372   6.948
44690SOL     OW35966   3.753  11.354   0.263
44690SOL    HW135967   3.665  11.318   0.246
44690SOL    HW235968   3.785  11.306   0.339
44691SOL     OW35969   2.568   6.351   7.559
44691SOL    HW135970   2.578   6.417   7.628
44691SOL    HW235971   2.530   6.399   7.485
44692SOL     OW35972   2.510   7.300  14.429
44692SOL    HW135973   2.547   7.217  14.401
44692SOL    HW235974   2.420   7.279  14.453
44693SOL     OW35975   6.742  13.819   9.469
44693SOL    HW135976   6.799  13.780   9.403
44693SOL    HW235977   6.801  13.864   9.529
44694SOL     OW35978  14.719   3.949   8.267
44694SOL    HW135979  14.638   3.908   8.237
44694SOL    HW235980  14.772   3.960   8.188
44695SOL     OW35981   5.789   2.178   9.962
44695SOL    HW135982   5.824   2.267   9.970
44695SOL    HW235983   5.711   2.188   9.907
44696SOL     OW35984   6.619   9.403   1.266
44696SOL    HW135985   6.576   9.486   1.285
44696SOL    HW235986   6.651   9.411   1.177
44697SOL     OW35987   5.389   1.239   6.989
44697SOL    HW135988   5.418   1.184   7.062
44697SOL    HW235989   5.333   1.182   6.937
44698SOL     OW35990  13.176   7.198   8.637
44698SOL    HW135991  13.202   7.259   8.568
44698SOL    HW235992  13.085   7.219   8.656
44699SOL     OW35993  12.039   8.514   0.413
44699SOL    HW135994  11.984   8.573   0.362
44699SOL    HW235995  12.061   8.563   0.492
44700SOL     OW35996   8.164   2.668   1.361
44700SOL    HW135997   8.161   2.705   1.450
44700SOL    HW235998   8.080   2.693   1.323
44701SOL     OW35999   8.848  10.776  12.502
44701SOL    HW136000   8.933  10.742  12.476
44701SOL    HW236001   8.863  10.868  12.521
44702SOL     OW36002  12.395  14.852   4.013
44702SOL    HW136003  12.411  14.780   3.951
44702SOL    HW236004  12.378   0.056   3.957
44703SOL     OW36005  12.594   8.667  14.396
44703SOL    HW136006  12.594   8.739  14.459
44703SOL    HW236007  12.617   8.708  14.312
44704SOL     OW36008  13.895   7.348   1.653
44704SOL    HW136009  13.966   7.287   1.672
44704SOL    HW236010  13.823   7.292   1.623
44705SOL     OW36011   9.555   4.781  11.422
44705SOL    HW136012   9.642   4.802  11.454
44705SOL    HW236013   9.543   4.838  11.345
44706SOL     OW36014  13.608   1.690   0.395
44706SOL    HW136015  13.569   1.739   0.323
44706SOL    HW236016  13.535   1.646   0.437
44707SOL     OW36017   5.861   3.871  11.896
44707SOL    HW136018   5.903   3.925  11.963
44707SOL    HW236019   5.933   3.823  11.855
44708SOL     OW36020   0.135   6.088   8.528
44708SOL    HW136021   0.048   6.124   8.508
44708SOL    HW236022   0.195   6.139   8.472
44709SOL     OW36023   0.138   0.143   8.418
44709SOL    HW136024   0.155   0.055   8.451
44709SOL    HW236025   0.162   0.138   8.325
44710SOL     OW36026  10.047   1.395  13.965
44710SOL    HW136027  10.056   1.417  14.058
44710SOL    HW236028  10.100   1.460  13.920
44711SOL     OW36029   9.767  12.732   9.217
44711SOL    HW136030   9.848  12.692   9.248
44711SOL    HW236031   9.728  12.665   9.161
44712SOL     OW36032   0.304   3.543   0.280
44712SOL    HW136033   0.318   3.453   0.250
44712SOL    HW236034   0.352   3.597   0.218
44713SOL     OW36035   8.191   4.648   9.924
44713SOL    HW136036   8.276   4.669   9.884
44713SOL    HW236037   8.212   4.579   9.988
44714SOL     OW36038   4.398  11.390   2.014
44714SOL    HW136039   4.314  11.396   2.059
44714SOL    HW236040   4.418  11.296   2.014
44715SOL     OW36041   9.454   6.788   4.319
44715SOL    HW136042   9.443   6.803   4.413
44715SOL    HW236043   9.549   6.783   4.307
44716SOL     OW36044   1.456   3.459  14.737
44716SOL    HW136045   1.367   3.480  14.766
44716SOL    HW236046   1.503   3.434  14.816
44717SOL     OW36047   8.424  12.612   7.582
44717SOL    HW136048   8.511  12.650   7.573
44717SOL    HW236049   8.364  12.684   7.561
44718SOL     OW36050   4.091   1.705   7.935
44718SOL    HW136051   4.073   1.690   7.842
44718SOL    HW236052   4.184   1.725   7.939
44719SOL     OW36053   0.533   9.045   9.045
44719SOL    HW136054   0.563   9.136   9.037
44719SOL    HW236055   0.607   8.998   9.084
44720SOL     OW36056   1.141  11.391  14.457
44720SOL    HW136057   1.049  11.362  14.456
44720SOL    HW236058   1.158  11.412  14.549
44721SOL     OW36059   9.952   9.442   3.615
44721SOL    HW136060   9.903   9.467   3.538
44721SOL    HW236061   9.892   9.387   3.666
44722SOL     OW36062  10.971   3.171  13.171
44722SOL    HW136063  10.986   3.199  13.261
44722SOL    HW236064  11.031   3.225  13.119
44723SOL     OW36065  10.878  12.789   4.231
44723SOL    HW136066  10.785  12.791   4.252
44723SOL    HW236067  10.881  12.772   4.136
44724SOL     OW36068   4.608  11.954  12.692
44724SOL    HW136069   4.634  11.862  12.688
44724SOL    HW236070   4.664  11.997  12.627
44725SOL     OW36071   0.585  11.374   0.911
44725SOL    HW136072   0.557  11.367   0.820
44725SOL    HW236073   0.518  11.428   0.953
44726SOL     OW36074   8.650   1.128  14.035
44726SOL    HW136075   8.607   1.206  14.070
44726SOL    HW236076   8.707   1.099  14.106
44727SOL     OW36077   9.743   3.704   9.382
44727SOL    HW136078   9.718   3.668   9.468
44727SOL    HW236079   9.749   3.628   9.325
44728SOL     OW36080   5.690   5.918   9.121
44728SOL    HW136081   5.617   5.858   9.134
44728SOL    HW236082   5.766   5.871   9.157
44729SOL     OW36083   3.568  14.021  12.601
44729SOL    HW136084   3.553  14.115  12.592
44729SOL    HW236085   3.596  13.993  12.513
44730SOL     OW36086  11.617  13.274  10.360
44730SOL    HW136087  11.617  13.370  10.358
44730SOL    HW236088  11.602  13.248  10.269
44731SOL     OW36089   7.905  11.046   2.254
44731SOL    HW136090   7.945  11.068   2.338
44731SOL    HW236091   7.837  10.982   2.274
44732SOL     OW36092   6.413  14.203   2.266
44732SOL    HW136093   6.446  14.174   2.181
44732SOL    HW236094   6.464  14.153   2.330
44733SOL     OW36095   9.237  14.596   0.545
44733SOL    HW136096   9.194  14.673   0.509
44733SOL    HW236097   9.245  14.536   0.470
44734SOL     OW36098   5.153   6.029   1.116
44734SOL    HW136099   5.063   6.059   1.106
44734SOL    HW236100   5.148   5.961   1.183
44735SOL     OW36101   3.313   1.197  11.087
44735SOL    HW136102   3.263   1.118  11.067
44735SOL    HW236103   3.372   1.172  11.157
44736SOL     OW36104   7.756   0.954   4.336
44736SOL    HW136105   7.688   1.008   4.297
44736SOL    HW236106   7.838   0.996   4.311
44737SOL     OW36107  13.961  14.137   4.067
44737SOL    HW136108  14.033  14.188   4.030
44737SOL    HW236109  14.001  14.087   4.138
44738SOL     OW36110   5.591   0.015   5.058
44738SOL    HW136111   5.546   0.065   5.127
44738SOL    HW236112   5.682   0.014   5.086
44739SOL     OW36113   4.804   4.304   8.284
44739SOL    HW136114   4.743   4.282   8.354
44739SOL    HW236115   4.887   4.320   8.328
44740SOL     OW36116  11.647   2.038  13.802
44740SOL    HW136117  11.665   2.131  13.794
44740SOL    HW236118  11.733   1.999  13.822
44741SOL     OW36119   8.713   8.360   1.396
44741SOL    HW136120   8.791   8.310   1.419
44741SOL    HW236121   8.649   8.338   1.465
44742SOL     OW36122   3.514  10.222   8.966
44742SOL    HW136123   3.557  10.260   8.889
44742SOL    HW236124   3.581  10.164   9.004
44743SOL     OW36125   6.090  12.402   6.039
44743SOL    HW136126   6.153  12.436   5.975
44743SOL    HW236127   6.126  12.318   6.066
44744SOL     OW36128  12.717   2.193  13.269
44744SOL    HW136129  12.640   2.247  13.285
44744SOL    HW236130  12.758   2.183  13.355
44745SOL     OW36131  13.495   5.158   1.868
44745SOL    HW136132  13.552   5.150   1.944
44745SOL    HW236133  13.441   5.235   1.886
44746SOL     OW36134  11.999  13.536   6.687
44746SOL    HW136135  12.066  13.569   6.748
44746SOL    HW236136  12.035  13.454   6.654
44747SOL     OW36137  10.089   8.439   1.871
44747SOL    HW136138  10.017   8.375   1.870
44747SOL    HW236139  10.084   8.482   1.786
44748SOL     OW36140   8.842  10.042   3.964
44748SOL    HW136141   8.910  10.065   4.028
44748SOL    HW236142   8.771  10.104   3.982
44749SOL     OW36143  12.096  11.924   3.342
44749SOL    HW136144  12.065  11.931   3.252
44749SOL    HW236145  12.095  11.830   3.361
44750SOL     OW36146   6.624  14.067  14.690
44750SOL    HW136147   6.657  14.150  14.656
44750SOL    HW236148   6.531  14.083  14.705
44751SOL     OW36149  11.306  11.243   3.355
44751SOL    HW136150  11.270  11.274   3.271
44751SOL    HW236151  11.340  11.322   3.397
44752SOL     OW36152   0.153   3.831  10.637
44752SOL    HW136153   0.140   3.912  10.686
44752SOL    HW236154   0.210   3.778  10.692
44753SOL     OW36155   3.754   4.481   8.049
44753SOL    HW136156   3.784   4.561   8.090
44753SOL    HW236157   3.712   4.431   8.119
44754SOL     OW36158   2.138   6.446   0.903
44754SOL    HW136159   2.085   6.379   0.946
44754SOL    HW236160   2.199   6.475   0.971
44755SOL     OW36161   2.317   6.722   9.133
44755SOL    HW136162   2.377   6.656   9.167
44755SOL    HW236163   2.313   6.705   9.039
44756SOL     OW36164   1.221   5.753  13.229
44756SOL    HW136165   1.138   5.706  13.218
44756SOL    HW236166   1.276   5.694  13.280
44757SOL     OW36167   6.274   8.200  11.350
44757SOL    HW136168   6.333   8.269  11.320
44757SOL    HW236169   6.225   8.174  11.272
44758SOL     OW36170   4.584   9.902   5.590
44758SOL    HW136171   4.549   9.871   5.673
44758SOL    HW236172   4.535   9.853   5.524
44759SOL     OW36173  11.707  11.011   0.795
44759SOL    HW136174  11.655  11.015   0.714
44759SOL    HW236175  11.688  10.925   0.832
44760SOL     OW36176  12.820  12.479  14.349
44760SOL    HW136177  12.867  12.507  14.270
44760SOL    HW236178  12.737  12.444  14.317
44761SOL     OW36179   4.658   9.163   4.701
44761SOL    HW136180   4.593   9.218   4.744
44761SOL    HW236181   4.736   9.170   4.757
44762SOL     OW36182   7.014   1.129   3.544
44762SOL    HW136183   7.090   1.185   3.560
44762SOL    HW236184   6.956   1.146   3.619
44763SOL     OW36185  12.563   5.939   6.758
44763SOL    HW136186  12.490   5.902   6.807
44763SOL    HW236187  12.614   5.863   6.729
44764SOL     OW36188   8.949   8.563  10.602
44764SOL    HW136189   8.885   8.496  10.628
44764SOL    HW236190   8.919   8.594  10.517
44765SOL     OW36191  13.328  11.669   4.214
44765SOL    HW136192  13.237  11.651   4.191
44765SOL    HW236193  13.329  11.669   4.310
44766SOL     OW36194  12.668   9.663   9.328
44766SOL    HW136195  12.597   9.626   9.381
44766SOL    HW236196  12.633   9.668   9.240
44767SOL     OW36197  12.315   5.353   0.080
44767SOL    HW136198  12.269   5.275   0.051
44767SOL    HW236199  12.364   5.382   0.004
44768SOL     OW36200   5.063   1.627   2.314
44768SOL    HW136201   5.086   1.656   2.226
44768SOL    HW236202   5.068   1.532   2.310
44769SOL     OW36203  12.832   6.806  12.531
44769SOL    HW136204  12.843   6.873  12.598
44769SOL    HW236205  12.887   6.834  12.458
44770SOL     OW36206   7.966   5.220  11.894
44770SOL    HW136207   7.999   5.140  11.934
44770SOL    HW236208   8.021   5.289  11.931
44771SOL     OW36209   4.384   5.143   0.142
44771SOL    HW136210   4.381   5.049   0.123
44771SOL    HW236211   4.475   5.168   0.127
44772SOL     OW36212   0.545   0.768  10.752
44772SOL    HW136213   0.474   0.827  10.727
44772SOL    HW236214   0.618   0.826  10.773
44773SOL     OW36215   2.311  14.597   1.590
44773SOL    HW136216   2.326  14.612   1.683
44773SOL    HW236217   2.223  14.631   1.573
44774SOL     OW36218   1.013  14.378   1.492
44774SOL    HW136219   0.921  14.383   1.515
44774SOL    HW236220   1.041  14.469   1.487
44775SOL     OW36221   5.084   7.622  11.305
44775SOL    HW136222   5.128   7.576  11.376
44775SOL    HW236223   5.154   7.648  11.246
44776SOL     OW36224   7.899  13.085  13.567
44776SOL    HW136225   7.925  13.001  13.529
44776SOL    HW236226   7.934  13.151  13.508
44777SOL     OW36227  12.745  13.386   5.712
44777SOL    HW136228  12.669  13.369   5.768
44777SOL    HW236229  12.722  13.350   5.627
44778SOL     OW36230  10.612  13.412  14.278
44778SOL    HW136231  10.619  13.400  14.184
44778SOL    HW236232  10.693  13.372  14.313
44779SOL     OW36233   9.466   4.999   3.464
44779SOL    HW136234   9.496   5.074   3.516
44779SOL    HW236235   9.460   5.033   3.375
44780SOL     OW36236  12.979  10.852  10.770
44780SOL    HW136237  12.948  10.935  10.734
44780SOL    HW236238  12.914  10.828  10.836
44781SOL     OW36239   8.896   3.618  13.215
44781SOL    HW136240   8.830   3.686  13.201
44781SOL    HW236241   8.874   3.580  13.300
44782SOL     OW36242   8.848   9.071  11.266
44782SOL    HW136243   8.922   9.039  11.318
44782SOL    HW236244   8.792   8.994  11.256
44783SOL     OW36245   4.469   3.070  13.881
44783SOL    HW136246   4.503   3.146  13.929
44783SOL    HW236247   4.544   3.037  13.832
44784SOL     OW36248  11.246  12.125   3.645
44784SOL    HW136249  11.176  12.178   3.683
44784SOL    HW236250  11.278  12.072   3.718
44785SOL     OW36251   0.711   4.000  10.806
44785SOL    HW136252   0.654   4.058  10.756
44785SOL    HW236253   0.696   4.025  10.897
44786SOL     OW36254   3.023   9.300  12.786
44786SOL    HW136255   3.036   9.253  12.869
44786SOL    HW236256   2.929   9.296  12.771
44787SOL     OW36257   4.265  11.374   5.867
44787SOL    HW136258   4.205  11.320   5.918
44787SOL    HW236259   4.332  11.313   5.835
44788SOL     OW36260  10.418   9.299   0.478
44788SOL    HW136261  10.375   9.347   0.407
44788SOL    HW236262  10.436   9.365   0.545
44789SOL     OW36263   1.588  10.480   8.655
44789SOL    HW136264   1.522  10.443   8.596
44789SOL    HW236265   1.566  10.444   8.741
44790SOL     OW36266   3.233  13.091   1.515
44790SOL    HW136267   3.322  13.095   1.553
44790SOL    HW236268   3.241  13.136   1.431
44791SOL     OW36269  14.375   5.584   5.520
44791SOL    HW136270  14.362   5.669   5.478
44791SOL    HW236271  14.314   5.525   5.476
44792SOL     OW36272  10.605   5.386   3.519
44792SOL    HW136273  10.611   5.332   3.440
44792SOL    HW236274  10.685   5.438   3.518
44793SOL     OW36275   6.807   9.193  12.865
44793SOL    HW136276   6.897   9.171  12.838
44793SOL    HW236277   6.792   9.280  12.829
44794SOL     OW36278   3.861   3.297  11.480
44794SOL    HW136279   3.824   3.239  11.413
44794SOL    HW236280   3.877   3.240  11.555
44795SOL     OW36281   1.897  13.002   8.382
44795SOL    HW136282   1.952  13.062   8.433
44795SOL    HW236283   1.906  13.033   8.292
44796SOL     OW36284   2.685   0.708  13.111
44796SOL    HW136285   2.673   0.695  13.205
44796SOL    HW236286   2.780   0.710  13.099
44797SOL     OW36287   2.454  11.921  10.322
44797SOL    HW136288   2.398  11.858  10.276
44797SOL    HW236289   2.517  11.949  10.256
44798SOL     OW36290   0.307  12.578  11.055
44798SOL    HW136291   0.220  12.596  11.091
44798SOL    HW236292   0.291  12.546  10.967
44799SOL     OW36293   3.781   7.226   1.310
44799SOL    HW136294   3.837   7.150   1.329
44799SOL    HW236295   3.774   7.272   1.394
44800SOL     OW36296   3.140   8.299  10.055
44800SOL    HW136297   3.208   8.242  10.090
44800SOL    HW236298   3.106   8.345  10.132
44801SOL     OW36299  11.634   8.297   7.123
44801SOL    HW136300  11.669   8.213   7.151
44801SOL    HW236301  11.666   8.359   7.189
44802SOL     OW36302   0.093   6.597  14.280
44802SOL    HW136303   0.075   6.626  14.369
44802SOL    HW236304   0.179   6.554  14.286
44803SOL     OW36305  14.761  11.816   1.460
44803SOL    HW136306  14.713  11.743   1.420
44803SOL    HW236307  14.722  11.894   1.422
44804SOL     OW36308   7.389   3.911  11.074
44804SOL    HW136309   7.357   3.821  11.082
44804SOL    HW236310   7.483   3.905  11.090
44805SOL     OW36311   8.536   3.850   1.142
44805SOL    HW136312   8.443   3.835   1.162
44805SOL    HW236313   8.535   3.909   1.068
44806SOL     OW36314  13.248   7.166   4.397
44806SOL    HW136315  13.306   7.177   4.321
44806SOL    HW236316  13.308   7.163   4.471
44807SOL     OW36317  14.014  11.046  11.157
44807SOL    HW136318  13.938  11.100  11.135
44807SOL    HW236319  13.996  11.015  11.246
44808SOL     OW36320   9.420   1.418  12.721
44808SOL    HW136321   9.367   1.448  12.794
44808SOL    HW236322   9.503   1.465  12.730
44809SOL     OW36323   9.927   6.914  12.141
44809SOL    HW136324  10.012   6.870  12.134
44809SOL    HW236325   9.863   6.843  12.143
44810SOL     OW36326  10.114  10.597   6.687
44810SOL    HW136327  10.123  10.567   6.778
44810SOL    HW236328  10.110  10.692   6.694
44811SOL     OW36329   1.023  14.225   3.597
44811SOL    HW136330   0.953  14.170   3.633
44811SOL    HW236331   1.101  14.200   3.646
44812SOL     OW36332   7.214  12.483   9.039
44812SOL    HW136333   7.162  12.516   8.966
44812SOL    HW236334   7.270  12.557   9.063
44813SOL     OW36335   3.317  10.356   7.953
44813SOL    HW136336   3.408  10.335   7.976
44813SOL    HW236337   3.315  10.452   7.950
44814SOL     OW36338  12.478   5.049   3.141
44814SOL    HW136339  12.498   5.140   3.121
44814SOL    HW236340  12.557   5.016   3.184
44815SOL     OW36341  14.565   2.336   5.141
44815SOL    HW136342  14.587   2.394   5.214
44815SOL    HW236343  14.472   2.351   5.125
44816SOL     OW36344   4.301  12.430  11.664
44816SOL    HW136345   4.385  12.397  11.694
44816SOL    HW236346   4.322  12.485  11.588
44817SOL     OW36347   0.465   5.984   9.362
44817SOL    HW136348   0.435   5.900   9.398
44817SOL    HW236349   0.465   6.044   9.437
44818SOL     OW36350   7.002   3.699   1.490
44818SOL    HW136351   6.943   3.628   1.466
44818SOL    HW236352   6.986   3.713   1.584
44819SOL     OW36353   1.175  11.158  10.679
44819SOL    HW136354   1.223  11.081  10.708
44819SOL    HW236355   1.177  11.218  10.754
44820SOL     OW36356   9.330  13.392   6.672
44820SOL    HW136357   9.402  13.452   6.655
44820SOL    HW236358   9.269  13.443   6.725
44821SOL     OW36359  11.884   7.135   1.486
44821SOL    HW136360  11.840   7.199   1.430
44821SOL    HW236361  11.977   7.155   1.477
44822SOL     OW36362   3.394  12.455   3.176
44822SOL    HW136363   3.472  12.399   3.176
44822SOL    HW236364   3.418  12.528   3.118
44823SOL     OW36365   2.749  12.879   9.388
44823SOL    HW136366   2.745  12.814   9.459
44823SOL    HW236367   2.772  12.828   9.310
44824SOL     OW36368   5.452   5.970   7.011
44824SOL    HW136369   5.494   6.049   6.976
44824SOL    HW236370   5.456   5.907   6.940
44825SOL     OW36371  10.745   8.521   2.078
44825SOL    HW136372  10.782   8.440   2.114
44825SOL    HW236373  10.655   8.498   2.055
44826SOL     OW36374   7.667   0.787   8.723
44826SOL    HW136375   7.686   0.878   8.700
44826SOL    HW236376   7.572   0.781   8.723
44827SOL     OW36377   4.181  13.499  11.367
44827SOL    HW136378   4.212  13.540  11.448
44827SOL    HW236379   4.110  13.441  11.396
44828SOL     OW36380   4.466  11.077   6.773
44828SOL    HW136381   4.401  11.129   6.726
44828SOL    HW236382   4.423  10.993   6.787
44829SOL     OW36383   8.944   5.997   9.439
44829SOL    HW136384   8.903   6.080   9.459
44829SOL    HW236385   8.946   5.949   9.522
44830SOL     OW36386  10.287   5.148   2.017
44830SOL    HW136387  10.244   5.114   1.939
44830SOL    HW236388  10.216   5.163   2.079
44831SOL     OW36389   3.452   7.547   0.889
44831SOL    HW136390   3.420   7.625   0.935
44831SOL    HW236391   3.520   7.511   0.947
44832SOL     OW36392  14.815   0.746  12.097
44832SOL    HW136393   0.036   0.725  12.085
44832SOL    HW236394  14.770   0.663  12.082
44833SOL     OW36395   0.635  10.803   1.820
44833SOL    HW136396   0.652  10.826   1.911
44833SOL    HW236397   0.569  10.733   1.824
44834SOL     OW36398  10.223   6.313  11.320
44834SOL    HW136399  10.239   6.246  11.387
44834SOL    HW236400  10.302   6.312  11.266
44835SOL     OW36401   5.004  12.569   2.277
44835SOL    HW136402   4.960  12.593   2.196
44835SOL    HW236403   4.996  12.646   2.333
44836SOL     OW36404  12.115   5.774   7.275
44836SOL    HW136405  12.129   5.780   7.180
44836SOL    HW236406  12.033   5.725   7.285
44837SOL     OW36407   2.435   9.087   9.664
44837SOL    HW136408   2.382   9.163   9.639
44837SOL    HW236409   2.525   9.120   9.664
44838SOL     OW36410   9.804   8.967   2.581
44838SOL    HW136411   9.749   8.982   2.504
44838SOL    HW236412   9.823   9.055   2.613
44839SOL     OW36413   6.328  13.354   4.714
44839SOL    HW136414   6.294  13.366   4.802
44839SOL    HW236415   6.423  13.365   4.722
44840SOL     OW36416   2.896   6.685  14.038
44840SOL    HW136417   2.900   6.611  13.978
44840SOL    HW236418   2.950   6.752  13.996
44841SOL     OW36419   4.408  10.081  12.990
44841SOL    HW136420   4.358  10.162  12.998
44841SOL    HW236421   4.417  10.048  13.079
44842SOL     OW36422   2.809   3.149  14.498
44842SOL    HW136423   2.713   3.151  14.501
44842SOL    HW236424   2.830   3.086  14.430
44843SOL     OW36425   2.219  12.774   3.954
44843SOL    HW136426   2.238  12.778   3.860
44843SOL    HW236427   2.263  12.695   3.984
44844SOL     OW36428   9.681   1.136   8.209
44844SOL    HW136429   9.722   1.095   8.286
44844SOL    HW236430   9.653   1.222   8.240
44845SOL     OW36431  11.845   2.167  14.236
44845SOL    HW136432  11.752   2.171  14.214
44845SOL    HW236433  11.890   2.181  14.153
44846SOL     OW36434  14.275   0.544   1.823
44846SOL    HW136435  14.339   0.495   1.874
44846SOL    HW236436  14.194   0.493   1.829
44847SOL     OW36437   3.902   6.952   1.092
44847SOL    HW136438   3.914   7.028   1.037
44847SOL    HW236439   3.975   6.894   1.068
44848SOL     OW36440   1.740   5.838   7.965
44848SOL    HW136441   1.782   5.800   8.043
44848SOL    HW236442   1.683   5.907   8.000
44849SOL     OW36443   6.418  14.656   1.641
44849SOL    HW136444   6.461  14.604   1.709
44849SOL    HW236445   6.430  14.747   1.669
44850SOL     OW36446  13.866   4.340  12.743
44850SOL    HW136447  13.799   4.396  12.781
44850SOL    HW236448  13.936   4.337  12.808
44851SOL     OW36449   7.551   9.235   1.087
44851SOL    HW136450   7.575   9.241   1.180
44851SOL    HW236451   7.634   9.215   1.042
44852SOL     OW36452  10.352   8.489   3.946
44852SOL    HW136453  10.443   8.511   3.968
44852SOL    HW236454  10.319   8.445   4.025
44853SOL     OW36455   1.715   3.744   2.513
44853SOL    HW136456   1.625   3.765   2.538
44853SOL    HW236457   1.768   3.774   2.586
44854SOL     OW36458  11.985   6.132  13.763
44854SOL    HW136459  12.076   6.117  13.738
44854SOL    HW236460  11.935   6.113  13.684
44855SOL     OW36461  12.032   6.435  14.784
44855SOL    HW136462  11.996   6.438   0.001
44855SOL    HW236463  11.958   6.411  14.729
44856SOL     OW36464  14.039   0.917   0.749
44856SOL    HW136465  14.127   0.953   0.750
44856SOL    HW236466  13.982   0.993   0.731
44857SOL     OW36467  11.407  12.471   3.188
44857SOL    HW136468  11.411  12.428   3.273
44857SOL    HW236469  11.418  12.400   3.125
44858SOL     OW36470   9.862   8.221   1.130
44858SOL    HW136471   9.861   8.268   1.047
44858SOL    HW236472   9.847   8.288   1.197
44859SOL     OW36473   0.499   5.991   2.326
44859SOL    HW136474   0.553   6.041   2.264
44859SOL    HW236475   0.480   6.053   2.396
44860SOL     OW36476   2.551  13.323   0.090
44860SOL    HW136477   2.610  13.386   0.130
44860SOL    HW236478   2.472  13.373   0.068
44861SOL     OW36479   9.938   7.391   1.486
44861SOL    HW136480   9.859   7.445   1.492
44861SOL    HW236481  10.009   7.453   1.469
44862SOL     OW36482  11.173   9.035   9.335
44862SOL    HW136483  11.151   9.059   9.425
44862SOL    HW236484  11.160   9.114   9.285
44863SOL     OW36485   5.106  13.919   1.606
44863SOL    HW136486   5.096  13.949   1.516
44863SOL    HW236487   5.020  13.933   1.645
44864SOL     OW36488   8.370   4.559   5.849
44864SOL    HW136489   8.395   4.468   5.832
44864SOL    HW236490   8.294   4.574   5.794
44865SOL     OW36491   6.348   9.916  10.880
44865SOL    HW136492   6.373  10.003  10.850
44865SOL    HW236493   6.430   9.878  10.913
44866SOL     OW36494   4.366  13.388  12.049
44866SOL    HW136495   4.446  13.341  12.026
44866SOL    HW236496   4.308  13.322  12.086
44867SOL     OW36497   0.967   2.843   1.189
44867SOL    HW136498   0.970   2.812   1.280
44867SOL    HW236499   0.909   2.918   1.191
44868SOL     OW36500  11.827  14.519   1.157
44868SOL    HW136501  11.764  14.450   1.135
44868SOL    HW236502  11.887  14.521   1.082
44869SOL     OW36503   1.171   3.337   4.605
44869SOL    HW136504   1.194   3.322   4.514
44869SOL    HW236505   1.163   3.432   4.612
44870SOL     OW36506  10.927  12.477   7.128
44870SOL    HW136507  10.932  12.381   7.122
44870SOL    HW236508  10.932  12.495   7.222
44871SOL     OW36509   4.931   2.981   4.173
44871SOL    HW136510   4.897   2.896   4.145
44871SOL    HW236511   4.947   3.028   4.091
44872SOL     OW36512   9.115  12.517   0.863
44872SOL    HW136513   9.162  12.583   0.813
44872SOL    HW236514   9.152  12.523   0.951
44873SOL     OW36515   4.525   8.308   1.224
44873SOL    HW136516   4.621   8.306   1.222
44873SOL    HW236517   4.503   8.400   1.215
44874SOL     OW36518   3.091  11.742   1.994
44874SOL    HW136519   3.100  11.805   1.922
44874SOL    HW236520   3.118  11.658   1.955
44875SOL     OW36521   7.586   2.377   0.658
44875SOL    HW136522   7.604   2.291   0.619
44875SOL    HW236523   7.492   2.391   0.642
44876SOL     OW36524  13.620   2.419  13.239
44876SOL    HW136525  13.654   2.508  13.247
44876SOL    HW236526  13.531   2.430  13.207
44877SOL     OW36527   7.226   2.932   8.035
44877SOL    HW136528   7.204   2.853   7.984
44877SOL    HW236529   7.283   2.983   7.978
44878SOL     OW36530   4.672   1.202   5.073
44878SOL    HW136531   4.616   1.134   5.036
44878SOL    HW236532   4.612   1.261   5.118
44879SOL     OW36533   4.693  13.274   7.328
44879SOL    HW136534   4.779  13.308   7.305
44879SOL    HW236535   4.703  13.244   7.419
44880SOL     OW36536   7.562  12.886   7.734
44880SOL    HW136537   7.629  12.825   7.703
44880SOL    HW236538   7.557  12.870   7.828
44881SOL     OW36539   5.269  14.289  14.399
44881SOL    HW136540   5.339  14.320  14.456
44881SOL    HW236541   5.248  14.363  14.343
44882SOL     OW36542  14.573   9.128   2.121
44882SOL    HW136543  14.658   9.111   2.161
44882SOL    HW236544  14.545   9.043   2.088
44883SOL     OW36545   3.035  14.294   4.059
44883SOL    HW136546   3.091  14.340   4.121
44883SOL    HW236547   2.969  14.359   4.032
44884SOL     OW36548   5.948   9.437   9.438
44884SOL    HW136549   5.984   9.384   9.367
44884SOL    HW236550   6.024   9.477   9.480
44885SOL     OW36551   9.569   5.226   1.340
44885SOL    HW136552   9.580   5.133   1.360
44885SOL    HW236553   9.490   5.229   1.285
44886SOL     OW36554  13.834   4.230   4.802
44886SOL    HW136555  13.878   4.221   4.886
44886SOL    HW236556  13.861   4.153   4.752
44887SOL     OW36557   0.876  13.345  14.521
44887SOL    HW136558   0.890  13.437  14.543
44887SOL    HW236559   0.948  13.298  14.564
44888SOL     OW36560   4.737   1.751   4.052
44888SOL    HW136561   4.725   1.730   4.145
44888SOL    HW236562   4.747   1.846   4.050
44889SOL     OW36563   6.318  14.140  13.390
44889SOL    HW136564   6.334  14.126  13.297
44889SOL    HW236565   6.236  14.094  13.408
44890SOL     OW36566   4.809  10.304  14.431
44890SOL    HW136567   4.743  10.338  14.371
44890SOL    HW236568   4.883  10.281  14.374
44891SOL     OW36569   6.118  13.773  10.825
44891SOL    HW136570   6.176  13.791  10.751
44891SOL    HW236571   6.036  13.818  10.803
44892SOL     OW36572  10.188   5.327   6.296
44892SOL    HW136573  10.160   5.345   6.385
44892SOL    HW236574  10.228   5.240   6.300
44893SOL     OW36575  10.806   5.683   0.716
44893SOL    HW136576  10.889   5.635   0.726
44893SOL    HW236577  10.799   5.698   0.621
44894SOL     OW36578  13.010   2.017   0.013
44894SOL    HW136579  13.100   2.048   0.002
44894SOL    HW236580  13.002   1.998   0.106
44895SOL     OW36581   9.231  14.863   9.752
44895SOL    HW136582   9.193   0.035   9.676
44895SOL    HW236583   9.294   0.055   9.786
44896SOL     OW36584   3.884   0.956  10.552
44896SOL    HW136585   3.898   1.024  10.618
44896SOL    HW236586   3.937   0.882  10.581
44897SOL     OW36587   5.302  11.675   3.134
44897SOL    HW136588   5.307  11.668   3.039
44897SOL    HW236589   5.209  11.687   3.152
44898SOL     OW36590   2.097  10.724  12.645
44898SOL    HW136591   2.138  10.688  12.567
44898SOL    HW236592   2.015  10.762  12.614
44899SOL     OW36593   3.097   9.575  12.416
44899SOL    HW136594   3.152   9.501  12.441
44899SOL    HW236595   3.013   9.558  12.459
44900SOL     OW36596   1.816  11.923   6.119
44900SOL    HW136597   1.833  11.997   6.178
44900SOL    HW236598   1.890  11.864   6.132
44901SOL     OW36599   2.422  11.630   8.775
44901SOL    HW136600   2.420  11.535   8.773
44901SOL    HW236601   2.361  11.654   8.846
44902SOL     OW36602   7.926   3.882   3.796
44902SOL    HW136603   7.910   3.958   3.852
44902SOL    HW236604   7.842   3.836   3.794
44903SOL     OW36605   0.671   7.399   3.561
44903SOL    HW136606   0.657   7.313   3.522
44903SOL    HW236607   0.585   7.442   3.557
44904SOL     OW36608   7.997   9.016   8.284
44904SOL    HW136609   7.987   8.921   8.288
44904SOL    HW236610   8.064   9.030   8.216
44905SOL     OW36611  14.699   7.191  11.966
44905SOL    HW136612  14.669   7.250  11.897
44905SOL    HW236613  14.727   7.250  12.036
44906SOL     OW36614   1.241  10.659   3.204
44906SOL    HW136615   1.204  10.732   3.154
44906SOL    HW236616   1.170  10.631   3.262
44907SOL     OW36617   8.673   7.015   1.383
44907SOL    HW136618   8.726   7.045   1.457
44907SOL    HW236619   8.584   7.012   1.418
44908SOL     OW36620   4.644   0.870   0.953
44908SOL    HW136621   4.601   0.952   0.977
44908SOL    HW236622   4.643   0.870   0.857
44909SOL     OW36623  10.842   2.484  11.759
44909SOL    HW136624  10.859   2.578  11.753
44909SOL    HW236625  10.879   2.447  11.679
44910SOL     OW36626   7.800  11.682   0.184
44910SOL    HW136627   7.804  11.655   0.092
44910SOL    HW236628   7.781  11.602   0.232
44911SOL     OW36629   4.264  13.601  14.224
44911SOL    HW136630   4.326  13.668  14.254
44911SOL    HW236631   4.233  13.632  14.140
44912SOL     OW36632   8.963  13.043  13.783
44912SOL    HW136633   9.052  13.078  13.792
44912SOL    HW236634   8.952  13.033  13.688
44913SOL     OW36635   3.924   9.883   6.600
44913SOL    HW136636   3.923   9.934   6.681
44913SOL    HW236637   3.950   9.946   6.533
44914SOL     OW36638  10.141   8.161   1.705
44914SOL    HW136639  10.228   8.121   1.704
44914SOL    HW236640  10.082   8.093   1.738
44915SOL     OW36641   4.945  11.447  13.331
44915SOL    HW136642   5.008  11.507  13.291
44915SOL    HW236643   4.990  11.412  13.407
44916SOL     OW36644   8.817   6.013  10.855
44916SOL    HW136645   8.910   6.009  10.877
44916SOL    HW236646   8.772   6.025  10.938
44917SOL     OW36647   9.822   0.835  11.359
44917SOL    HW136648   9.731   0.806  11.364
44917SOL    HW236649   9.816   0.930  11.365
44918SOL     OW36650  11.523   4.092   2.666
44918SOL    HW136651  11.579   4.145   2.723
44918SOL    HW236652  11.581   4.063   2.596
44919SOL     OW36653   0.043  12.284   4.211
44919SOL    HW136654   0.068  12.192   4.223
44919SOL    HW236655   0.081  12.308   4.126
44920SOL     OW36656   7.587   1.370   1.166
44920SOL    HW136657   7.615   1.461   1.171
44920SOL    HW236658   7.647   1.323   1.224
44921SOL     OW36659  13.376   7.790  12.443
44921SOL    HW136660  13.451   7.747  12.403
44921SOL    HW236661  13.300   7.759  12.394
44922SOL     OW36662   3.267  14.371  11.338
44922SOL    HW136663   3.302  14.390  11.250
44922SOL    HW236664   3.301  14.284  11.359
44923SOL     OW36665   9.812   5.352   8.119
44923SOL    HW136666   9.783   5.437   8.087
44923SOL    HW236667   9.741   5.292   8.094
44924SOL     OW36668  11.500  13.008   2.519
44924SOL    HW136669  11.525  12.916   2.525
44924SOL    HW236670  11.479  13.021   2.426
44925SOL     OW36671   7.867   6.409  11.470
44925SOL    HW136672   7.914   6.426  11.552
44925SOL    HW236673   7.897   6.322  11.443
44926SOL     OW36674  13.981   5.558   4.405
44926SOL    HW136675  14.029   5.580   4.325
44926SOL    HW236676  13.889   5.573   4.384
44927SOL     OW36677   4.829  10.353   2.407
44927SOL    HW136678   4.921  10.374   2.426
44927SOL    HW236679   4.780  10.393   2.478
44928SOL     OW36680   3.882  13.719   5.180
44928SOL    HW136681   3.792  13.727   5.212
44928SOL    HW236682   3.890  13.787   5.113
44929SOL     OW36683  13.771   1.771  11.049
44929SOL    HW136684  13.718   1.710  10.998
44929SOL    HW236685  13.709   1.814  11.108
44930SOL     OW36686   0.826  14.679   4.341
44930SOL    HW136687   0.822  14.652   4.249
44930SOL    HW236688   0.895  14.624   4.378
44931SOL     OW36689   2.187   9.187   0.813
44931SOL    HW136690   2.220   9.213   0.728
44931SOL    HW236691   2.246   9.117   0.841
44932SOL     OW36692  12.416   8.763   6.903
44932SOL    HW136693  12.335   8.813   6.891
44932SOL    HW236694  12.485   8.822   6.871
44933SOL     OW36695  13.193   4.401   1.675
44933SOL    HW136696  13.211   4.373   1.585
44933SOL    HW236697  13.155   4.488   1.666
44934SOL     OW36698   4.334  13.622   4.070
44934SOL    HW136699   4.319  13.663   4.155
44934SOL    HW236700   4.258  13.567   4.056
44935SOL     OW36701   6.398  13.903   2.634
44935SOL    HW136702   6.320  13.884   2.582
44935SOL    HW236703   6.418  13.820   2.677
44936SOL     OW36704   7.550  13.018  14.821
44936SOL    HW136705   7.543  13.011   0.044
44936SOL    HW236706   7.604  12.944  14.794
44937SOL     OW36707   3.313  12.596  13.279
44937SOL    HW136708   3.318  12.517  13.225
44937SOL    HW236709   3.338  12.566  13.367
44938SOL     OW36710  12.399   1.825   4.637
44938SOL    HW136711  12.316   1.871   4.650
44938SOL    HW236712  12.375   1.747   4.587
44939SOL     OW36713  10.501  14.737   0.411
44939SOL    HW136714  10.498  14.687   0.329
44939SOL    HW236715  10.575  14.701   0.459
44940SOL     OW36716  10.339   6.551   7.915
44940SOL    HW136717  10.289   6.574   7.837
44940SOL    HW236718  10.300   6.470   7.946
44941SOL     OW36719  10.445   3.931  10.497
44941SOL    HW136720  10.534   3.902  10.519
44941SOL    HW236721  10.412   3.969  10.578
44942SOL     OW36722  10.512  11.385   8.725
44942SOL    HW136723  10.560  11.303   8.718
44942SOL    HW236724  10.514  11.408   8.818
44943SOL     OW36725   4.040   8.949   1.100
44943SOL    HW136726   4.123   8.913   1.131
44943SOL    HW236727   3.997   8.875   1.055
44944SOL     OW36728  10.434  13.900   6.707
44944SOL    HW136729  10.464  13.847   6.781
44944SOL    HW236730  10.341  13.878   6.697
44945SOL     OW36731   0.009   0.928   8.295
44945SOL    HW136732   0.053   0.922   8.380
44945SOL    HW236733  14.788   0.934   8.316
44946SOL     OW36734  11.454   6.811   6.701
44946SOL    HW136735  11.494   6.884   6.749
44946SOL    HW236736  11.503   6.734   6.729
44947SOL     OW36737   8.210  10.053   9.914
44947SOL    HW136738   8.212  10.072   9.820
44947SOL    HW236739   8.136   9.993   9.924
44948SOL     OW36740   1.097  13.973   4.286
44948SOL    HW136741   1.067  13.888   4.254
44948SOL    HW236742   1.112  13.960   4.380
44949SOL     OW36743   1.974   3.530   5.677
44949SOL    HW136744   1.959   3.493   5.590
44949SOL    HW236745   1.902   3.498   5.730
44950SOL     OW36746   2.111   2.716  11.082
44950SOL    HW136747   2.171   2.767  11.027
44950SOL    HW236748   2.154   2.632  11.095
44951SOL     OW36749   4.529  13.447   8.292
44951SOL    HW136750   4.452  13.414   8.246
44951SOL    HW236751   4.603  13.411   8.243
44952SOL     OW36752   5.299  12.912   0.348
44952SOL    HW136753   5.268  12.846   0.410
44952SOL    HW236754   5.340  12.978   0.403
44953SOL     OW36755  10.004  10.256   5.192
44953SOL    HW136756  10.072  10.272   5.126
44953SOL    HW236757   9.982  10.343   5.225
44954SOL     OW36758   8.355   8.628  10.352
44954SOL    HW136759   8.327   8.681  10.427
44954SOL    HW236760   8.290   8.559  10.345
44955SOL     OW36761  12.261  10.793   7.096
44955SOL    HW136762  12.196  10.860   7.114
44955SOL    HW236763  12.232  10.753   7.014
44956SOL     OW36764   5.553   2.687   7.215
44956SOL    HW136765   5.465   2.663   7.186
44956SOL    HW236766   5.608   2.614   7.188
44957SOL     OW36767   7.108   4.958  13.285
44957SOL    HW136768   7.039   4.940  13.349
44957SOL    HW236769   7.126   4.873  13.244
44958SOL     OW36770   3.544   3.713   7.389
44958SOL    HW136771   3.502   3.740   7.307
44958SOL    HW236772   3.533   3.788   7.447
44959SOL     OW36773  12.014   1.995   9.061
44959SOL    HW136774  12.009   1.971   9.153
44959SOL    HW236775  12.098   1.958   9.031
44960SOL     OW36776  13.765   8.707  13.845
44960SOL    HW136777  13.712   8.737  13.919
44960SOL    HW236778  13.854   8.704  13.880
44961SOL     OW36779   3.440   3.260   8.252
44961SOL    HW136780   3.485   3.225   8.175
44961SOL    HW236781   3.433   3.353   8.234
44962SOL     OW36782   0.651   8.268   8.968
44962SOL    HW136783   0.695   8.184   8.953
44962SOL    HW236784   0.722   8.330   8.984
44963SOL     OW36785  13.685   2.352   7.064
44963SOL    HW136786  13.709   2.284   7.127
44963SOL    HW236787  13.590   2.361   7.072
44964SOL     OW36788  13.211  11.024   0.954
44964SOL    HW136789  13.224  11.087   1.024
44964SOL    HW236790  13.169  10.949   0.997
44965SOL     OW36791   3.137   9.484   8.805
44965SOL    HW136792   3.165   9.569   8.773
44965SOL    HW236793   3.213   9.427   8.789
44966SOL     OW36794   9.302   0.744   0.942
44966SOL    HW136795   9.210   0.745   0.914
44966SOL    HW236796   9.348   0.704   0.869
44967SOL     OW36797  14.787  14.483   0.132
44967SOL    HW136798  14.821  14.569   0.108
44967SOL    HW236799  14.790  14.482   0.227
44968SOL     OW36800   1.524   4.522   0.023
44968SOL    HW136801   1.537   4.564   0.108
44968SOL    HW236802   1.599   4.550  14.843
44969SOL     OW36803  11.620   1.906  12.503
44969SOL    HW136804  11.559   1.977  12.486
44969SOL    HW236805  11.693   1.921  12.442
44970SOL     OW36806   1.453  12.935  13.369
44970SOL    HW136807   1.533  12.988  13.376
44970SOL    HW236808   1.389  12.994  13.330
44971SOL     OW36809  12.838  14.675   0.962
44971SOL    HW136810  12.863  14.585   0.985
44971SOL    HW236811  12.791  14.666   0.879
44972SOL     OW36812  11.749   3.342  12.438
44972SOL    HW136813  11.777   3.256  12.408
44972SOL    HW236814  11.688   3.323  12.510
44973SOL     OW36815   6.691   0.242  13.573
44973SOL    HW136816   6.618   0.303  13.583
44973SOL    HW236817   6.675   0.175  13.639
44974SOL     OW36818  13.325  14.078   8.715
44974SOL    HW136819  13.268  14.039   8.649
44974SOL    HW236820  13.320  14.019   8.790
44975SOL     OW36821   2.240   0.820   7.953
44975SOL    HW136822   2.258   0.903   7.909
44975SOL    HW236823   2.291   0.756   7.904
44976SOL     OW36824   5.740  14.668  10.550
44976SOL    HW136825   5.763  14.584  10.591
44976SOL    HW236826   5.646  14.662  10.533
44977SOL     OW36827   9.930   4.589  12.775
44977SOL    HW136828   9.867   4.606  12.704
44977SOL    HW236829   9.879   4.540  12.840
44978SOL     OW36830  10.430   8.017   0.036
44978SOL    HW136831  10.498   8.055  14.852
44978SOL    HW236832  10.376   7.965  14.848
44979SOL     OW36833   4.301  13.555   2.763
44979SOL    HW136834   4.238  13.482   2.766
44979SOL    HW236835   4.258  13.621   2.709
44980SOL     OW36836  14.530   4.461   7.057
44980SOL    HW136837  14.588   4.529   7.022
44980SOL    HW236838  14.473   4.507   7.119
44981SOL     OW36839   8.238   3.015   3.393
44981SOL    HW136840   8.197   2.930   3.409
44981SOL    HW236841   8.217   3.035   3.302
44982SOL     OW36842   2.754  11.437   5.134
44982SOL    HW136843   2.848  11.432   5.115
44982SOL    HW236844   2.741  11.377   5.207
44983SOL     OW36845  14.769  10.956   4.616
44983SOL    HW136846  14.717  10.972   4.694
44983SOL    HW236847  14.712  10.978   4.543
44984SOL     OW36848   8.262   2.447   3.785
44984SOL    HW136849   8.352   2.474   3.801
44984SOL    HW236850   8.209   2.503   3.842
44985SOL     OW36851  14.712   1.072   2.170
44985SOL    HW136852  14.787   1.117   2.210
44985SOL    HW236853  14.700   0.994   2.223
44986SOL     OW36854  12.433   9.371   2.452
44986SOL    HW136855  12.448   9.288   2.497
44986SOL    HW236856  12.432   9.437   2.521
44987SOL     OW36857  12.992  11.839  11.962
44987SOL    HW136858  13.056  11.796  12.018
44987SOL    HW236859  12.959  11.912  12.014
44988SOL     OW36860   2.735   2.363  13.993
44988SOL    HW136861   2.641   2.378  13.978
44988SOL    HW236862   2.738   2.307  14.070
44989SOL     OW36863   2.929   4.621   9.106
44989SOL    HW136864   3.000   4.594   9.047
44989SOL    HW236865   2.866   4.664   9.049
44990SOL     OW36866  10.601   6.645   1.714
44990SOL    HW136867  10.625   6.602   1.632
44990SOL    HW236868  10.570   6.732   1.687
44991SOL     OW36869   6.113   8.328  10.976
44991SOL    HW136870   6.034   8.344  10.925
44991SOL    HW236871   6.123   8.407  11.029
44992SOL     OW36872   2.083   2.927  14.046
44992SOL    HW136873   2.062   3.019  14.026
44992SOL    HW236874   2.173   2.929  14.078
44993SOL     OW36875   1.153  10.969   7.067
44993SOL    HW136876   1.140  10.969   7.162
44993SOL    HW236877   1.209  11.045   7.051
44994SOL     OW36878   7.122   8.597   4.890
44994SOL    HW136879   7.076   8.669   4.932
44994SOL    HW236880   7.082   8.588   4.804
44995SOL     OW36881  13.824   6.254  13.271
44995SOL    HW136882  13.878   6.245  13.349
44995SOL    HW236883  13.789   6.167  13.255
44996SOL     OW36884   5.247  11.888   0.774
44996SOL    HW136885   5.269  11.812   0.829
44996SOL    HW236886   5.293  11.872   0.692
44997SOL     OW36887  14.168   0.514   5.480
44997SOL    HW136888  14.166   0.577   5.409
44997SOL    HW236889  14.261   0.493   5.491
44998SOL     OW36890   4.837   9.584   1.856
44998SOL    HW136891   4.920   9.618   1.823
44998SOL    HW236892   4.794   9.661   1.894
44999SOL     OW36893   9.576   8.543   0.815
44999SOL    HW136894   9.497   8.592   0.792
44999SOL    HW236895   9.551   8.490   0.890
45000SOL     OW36896  14.367  11.993   3.558
45000SOL    HW136897  14.344  12.086   3.548
45000SOL    HW236898  14.356  11.975   3.651
45001SOL     OW36899  14.479   3.727   6.622
45001SOL    HW136900  14.568   3.741   6.591
45001SOL    HW236901  14.460   3.805   6.674
45002SOL     OW36902   7.937   0.554   8.044
45002SOL    HW136903   7.973   0.600   8.119
45002SOL    HW236904   7.847   0.534   8.069
45003SOL     OW36905   1.273   4.700   5.770
45003SOL    HW136906   1.219   4.705   5.849
45003SOL    HW236907   1.234   4.763   5.709
45004SOL     OW36908   1.727  13.484   2.666
45004SOL    HW136909   1.814  13.498   2.629
45004SOL    HW236910   1.668  13.492   2.592
45005SOL     OW36911  10.115  11.642   9.271
45005SOL    HW136912  10.176  11.586   9.319
45005SOL    HW236913  10.045  11.582   9.243
45006SOL     OW36914  10.117   1.248   8.965
45006SOL    HW136915  10.197   1.285   8.927
45006SOL    HW236916  10.094   1.177   8.905
45007SOL     OW36917  13.994   4.273   9.642
45007SOL    HW136918  13.952   4.231   9.717
45007SOL    HW236919  14.054   4.206   9.608
45008SOL     OW36920   9.771  10.922   0.045
45008SOL    HW136921   9.736  10.852  14.861
45008SOL    HW236922   9.825  10.975  14.857
45009SOL     OW36923   6.984  10.748  14.848
45009SOL    HW136924   7.002  10.802  14.771
45009SOL    HW236925   6.889  10.740  14.849
45010SOL     OW36926   9.902   7.049   4.126
45010SOL    HW136927   9.951   7.107   4.067
45010SOL    HW236928   9.873   6.977   4.070
45011SOL     OW36929   4.178  12.855   1.229
45011SOL    HW136930   4.126  12.887   1.155
45011SOL    HW236931   4.265  12.840   1.192
45012SOL     OW36932   8.887   2.072   6.038
45012SOL    HW136933   8.838   2.153   6.023
45012SOL    HW236934   8.842   2.007   5.984
45013SOL     OW36935   2.828  13.741   0.313
45013SOL    HW136936   2.790  13.809   0.369
45013SOL    HW236937   2.920  13.767   0.303
45014SOL     OW36938  11.407   4.816   6.860
45014SOL    HW136939  11.452   4.742   6.820
45014SOL    HW236940  11.397   4.791   6.952
45015SOL     OW36941   8.617   9.816   7.171
45015SOL    HW136942   8.675   9.786   7.240
45015SOL    HW236943   8.605   9.741   7.113
45016SOL     OW36944   8.483  13.181   0.605
45016SOL    HW136945   8.522  13.224   0.528
45016SOL    HW236946   8.392  13.165   0.580
45017SOL     OW36947   2.069   8.916   2.270
45017SOL    HW136948   1.978   8.895   2.246
45017SOL    HW236949   2.083   9.005   2.236
45018SOL     OW36950   4.735   6.033  10.381
45018SOL    HW136951   4.763   6.123  10.366
45018SOL    HW236952   4.761   6.015  10.472
45019SOL     OW36953  10.166  14.201   3.712
45019SOL    HW136954  10.203  14.287   3.727
45019SOL    HW236955  10.146  14.199   3.618
45020SOL     OW36956   5.286   6.928  11.133
45020SOL    HW136957   5.250   7.005  11.089
45020SOL    HW236958   5.272   6.856  11.071
45021SOL     OW36959  11.857   4.548  12.994
45021SOL    HW136960  11.943   4.513  12.969
45021SOL    HW236961  11.821   4.481  13.053
45022SOL     OW36962   7.593  12.805   0.673
45022SOL    HW136963   7.534  12.863   0.722
45022SOL    HW236964   7.535  12.751   0.620
45023SOL     OW36965   4.312  10.330  10.185
45023SOL    HW136966   4.344  10.258  10.131
45023SOL    HW236967   4.374  10.402  10.167
45024SOL     OW36968  12.281   3.131  12.439
45024SOL    HW136969  12.343   3.128  12.365
45024SOL    HW236970  12.334   3.161  12.513
45025SOL     OW36971   6.671  12.650   7.739
45025SOL    HW136972   6.601  12.644   7.804
45025SOL    HW236973   6.648  12.585   7.672
45026SOL     OW36974   1.880   4.538  12.107
45026SOL    HW136975   1.861   4.614  12.052
45026SOL    HW236976   1.974   4.540  12.120
45027SOL     OW36977  10.308  13.684  12.537
45027SOL    HW136978  10.282  13.605  12.490
45027SOL    HW236979  10.358  13.735  12.472
45028SOL     OW36980   8.871   3.048   1.783
45028SOL    HW136981   8.874   3.140   1.757
45028SOL    HW236982   8.929   3.003   1.721
45029SOL     OW36983  11.924  10.019   7.463
45029SOL    HW136984  11.857  10.030   7.395
45029SOL    HW236985  12.005  10.006   7.414
45030SOL     OW36986   5.353  10.603   5.994
45030SOL    HW136987   5.394  10.517   5.995
45030SOL    HW236988   5.410  10.658   6.047
45031SOL     OW36989  13.056   0.643   6.874
45031SOL    HW136990  12.974   0.598   6.854
45031SOL    HW236991  13.123   0.592   6.827
45032SOL     OW36992  12.465  10.081   9.126
45032SOL    HW136993  12.553  10.044   9.114
45032SOL    HW236994  12.463  10.158   9.069
45033SOL     OW36995   0.249  13.939   5.103
45033SOL    HW136996   0.277  13.973   5.018
45033SOL    HW236997   0.181  14.000   5.133
45034SOL     OW36998   6.326  12.545   9.064
45034SOL    HW136999   6.387  12.494   9.012
45034SOL    HW237000   6.240  12.511   9.039
45035SOL     OW37001  14.620   3.963   0.206
45035SOL    HW137002  14.561   4.005   0.270
45035SOL    HW237003  14.611   3.869   0.223
45036SOL     OW37004   9.518  13.352   5.034
45036SOL    HW137005   9.443  13.389   5.082
45036SOL    HW237006   9.578  13.425   5.022
45037SOL     OW37007   5.693   6.849  10.010
45037SOL    HW137008   5.617   6.848   9.951
45037SOL    HW237009   5.730   6.937   9.998
45038SOL     OW37010   8.354   0.166  13.628
45038SOL    HW137011   8.343   0.244  13.574
45038SOL    HW237012   8.378   0.097  13.566
45039SOL     OW37013   0.688   3.201   9.351
45039SOL    HW137014   0.700   3.107   9.337
45039SOL    HW237015   0.603   3.221   9.311
45040SOL     OW37016   9.606   1.956   9.619
45040SOL    HW137017   9.542   2.007   9.669
45040SOL    HW237018   9.667   2.022   9.584
45041SOL     OW37019  11.872   9.205  11.869
45041SOL    HW137020  11.961   9.213  11.834
45041SOL    HW237021  11.878   9.136  11.934
45042SOL     OW37022   4.675   4.480   9.308
45042SOL    HW137023   4.695   4.453   9.219
45042SOL    HW237024   4.688   4.575   9.308
45043SOL     OW37025  12.561   5.667   8.886
45043SOL    HW137026  12.472   5.700   8.891
45043SOL    HW237027  12.613   5.742   8.857
45044SOL     OW37028  14.564  10.241   0.797
45044SOL    HW137029  14.639  10.207   0.748
45044SOL    HW237030  14.571  10.336   0.788
45045SOL     OW37031  10.622   4.111  14.836
45045SOL    HW137032  10.624   4.043  14.768
45045SOL    HW237033  10.663   4.187  14.794
45046SOL     OW37034  10.842  13.419   6.494
45046SOL    HW137035  10.919  13.408   6.439
45046SOL    HW237036  10.843  13.343   6.553
45047SOL     OW37037  11.664   5.935  12.726
45047SOL    HW137038  11.585   5.988  12.738
45047SOL    HW237039  11.680   5.938  12.631
45048SOL     OW37040  10.276   0.738   5.918
45048SOL    HW137041  10.226   0.759   5.997
45048SOL    HW237042  10.243   0.652   5.892
45049SOL     OW37043   9.527  14.089   9.897
45049SOL    HW137044   9.524  14.178   9.931
45049SOL    HW237045   9.464  14.089   9.825
45050SOL     OW37046  14.024  11.778  12.717
45050SOL    HW137047  13.983  11.739  12.794
45050SOL    HW237048  13.975  11.741  12.643
45051SOL     OW37049   2.659   7.475  13.521
45051SOL    HW137050   2.668   7.555  13.469
45051SOL    HW237051   2.748   7.450  13.543
45052SOL     OW37052   3.010   0.291  12.450
45052SOL    HW137053   3.024   0.203  12.413
45052SOL    HW237054   2.964   0.339  12.382
45053SOL     OW37055   0.768  12.456  14.635
45053SOL    HW137056   0.855  12.479  14.669
45053SOL    HW237057   0.785  12.427  14.545
45054SOL     OW37058   9.934   0.339   1.957
45054SOL    HW137059   9.842   0.354   1.982
45054SOL    HW237060   9.946   0.244   1.967
45055SOL     OW37061   1.232   1.382   0.063
45055SOL    HW137062   1.146   1.340   0.056
45055SOL    HW237063   1.291   1.319   0.022
45056SOL     OW37064  14.188  13.031   9.379
45056SOL    HW137065  14.180  13.040   9.474
45056SOL    HW237066  14.201  12.937   9.365
45057SOL     OW37067   4.808   0.718  10.073
45057SOL    HW137068   4.771   0.631  10.090
45057SOL    HW237069   4.886   0.701  10.020
45058SOL     OW37070   4.478   7.905   2.677
45058SOL    HW137071   4.411   7.941   2.619
45058SOL    HW237072   4.526   7.981   2.709
45059SOL     OW37073   4.756   1.174  11.341
45059SOL    HW137074   4.754   1.239  11.411
45059SOL    HW237075   4.848   1.150  11.333
45060SOL     OW37076   8.330   5.279   5.851
45060SOL    HW137077   8.275   5.235   5.915
45060SOL    HW237078   8.287   5.264   5.767
45061SOL     OW37079  13.895  11.667  11.358
45061SOL    HW137080  13.947  11.708  11.428
45061SOL    HW237081  13.877  11.738  11.297
45062SOL     OW37082   5.365   1.762   0.090
45062SOL    HW137083   5.449   1.723   0.115
45062SOL    HW237084   5.328   1.793   0.172
45063SOL     OW37085   5.474   5.804   8.440
45063SOL    HW137086   5.547   5.745   8.456
45063SOL    HW237087   5.509   5.891   8.454
45064SOL     OW37088  13.014   7.553   3.022
45064SOL    HW137089  13.096   7.597   3.045
45064SOL    HW237090  13.040   7.463   3.001
45065SOL     OW37091   3.082   4.659   0.625
45065SOL    HW137092   3.063   4.752   0.640
45065SOL    HW237093   2.998   4.623   0.594
45066SOL     OW37094   4.570   0.731   9.901
45066SOL    HW137095   4.584   0.636   9.904
45066SOL    HW237096   4.655   0.768   9.924
45067SOL     OW37097   9.761  14.377   4.217
45067SOL    HW137098   9.700  14.309   4.191
45067SOL    HW237099   9.842  14.357   4.170
45068SOL     OW37100   0.266  10.630   5.889
45068SOL    HW137101   0.347  10.673   5.860
45068SOL    HW237102   0.231  10.590   5.809
45069SOL     OW37103  11.277   0.996   7.041
45069SOL    HW137104  11.341   0.981   6.971
45069SOL    HW237105  11.299   0.931   7.107
45070SOL     OW37106  13.674   0.366  10.504
45070SOL    HW137107  13.684   0.382  10.598
45070SOL    HW237108  13.596   0.414  10.479
45071SOL     OW37109   2.126  10.009  11.711
45071SOL    HW137110   2.152  10.036  11.623
45071SOL    HW237111   2.196   9.949  11.738
45072SOL     OW37112   7.887  14.549  13.350
45072SOL    HW137113   7.794  14.536  13.332
45072SOL    HW237114   7.916  14.613  13.285
45073SOL     OW37115  10.442   1.139  12.493
45073SOL    HW137116  10.480   1.126  12.407
45073SOL    HW237117  10.469   1.227  12.519
45074SOL     OW37118  12.432  11.452   7.745
45074SOL    HW137119  12.446  11.358   7.733
45074SOL    HW237120  12.520  11.487   7.763
45075SOL     OW37121   7.807   6.528   7.675
45075SOL    HW137122   7.784   6.473   7.600
45075SOL    HW237123   7.800   6.618   7.643
45076SOL     OW37124   5.131   4.074   9.045
45076SOL    HW137125   5.075   4.011   8.999
45076SOL    HW237126   5.087   4.089   9.129
45077SOL     OW37127   7.999   7.997   3.047
45077SOL    HW137128   8.061   7.925   3.062
45077SOL    HW237129   8.043   8.054   2.984
45078SOL     OW37130   8.101   4.527  12.233
45078SOL    HW137131   8.013   4.492  12.245
45078SOL    HW237132   8.154   4.451  12.209
45079SOL     OW37133   0.594   8.157   4.598
45079SOL    HW137134   0.689   8.163   4.593
45079SOL    HW237135   0.577   8.065   4.619
45080SOL     OW37136   6.081  12.299   3.026
45080SOL    HW137137   6.173  12.270   3.032
45080SOL    HW237138   6.072  12.332   2.937
45081SOL     OW37139   7.821   4.827   9.583
45081SOL    HW137140   7.904   4.862   9.617
45081SOL    HW237141   7.765   4.903   9.573
45082SOL     OW37142   9.921   8.847  11.928
45082SOL    HW137143   9.884   8.874  11.844
45082SOL    HW237144   9.892   8.914  11.990
45083SOL     OW37145   0.489   2.790  13.780
45083SOL    HW137146   0.415   2.851  13.780
45083SOL    HW237147   0.498   2.765  13.688
45084SOL     OW37148   0.952   0.699   6.628
45084SOL    HW137149   0.898   0.669   6.555
45084SOL    HW237150   1.014   0.760   6.588
45085SOL     OW37151   8.154  12.097   0.730
45085SOL    HW137152   8.194  12.028   0.782
45085SOL    HW237153   8.200  12.177   0.758
45086SOL     OW37154  11.357   1.244   6.752
45086SOL    HW137155  11.398   1.174   6.801
45086SOL    HW237156  11.423   1.272   6.688
45087SOL     OW37157   2.645   6.589  11.449
45087SOL    HW137158   2.683   6.527  11.388
45087SOL    HW237159   2.700   6.667  11.441
45088SOL     OW37160  10.633  13.602   2.501
45088SOL    HW137161  10.717  13.641   2.524
45088SOL    HW237162  10.640  13.584   2.407
45089SOL     OW37163   9.656  13.887   4.784
45089SOL    HW137164   9.747  13.860   4.775
45089SOL    HW237165   9.631  13.913   4.695
45090SOL     OW37166  13.978  10.175   5.625
45090SOL    HW137167  14.069  10.160   5.651
45090SOL    HW237168  13.932  10.189   5.708
45091SOL     OW37169   2.962   3.703  12.202
45091SOL    HW137170   3.008   3.722  12.284
45091SOL    HW237171   2.870   3.722  12.222
45092SOL     OW37172  13.109  12.263   2.619
45092SOL    HW137173  13.044  12.246   2.551
45092SOL    HW237174  13.088  12.350   2.652
45093SOL     OW37175   0.715  13.984   6.297
45093SOL    HW137176   0.799  13.950   6.327
45093SOL    HW237177   0.730  14.006   6.205
45094SOL     OW37178   0.208   2.860  13.068
45094SOL    HW137179   0.187   2.914  13.144
45094SOL    HW237180   0.131   2.866  13.012
45095SOL     OW37181   4.195  14.357  14.473
45095SOL    HW137182   4.131  14.426  14.492
45095SOL    HW237183   4.280  14.398  14.489
45096SOL     OW37184   3.472   3.643   1.551
45096SOL    HW137185   3.391   3.624   1.599
45096SOL    HW237186   3.458   3.731   1.516
45097SOL     OW37187   5.637  10.042  12.827
45097SOL    HW137188   5.639  10.134  12.799
45097SOL    HW237189   5.666  10.044  12.918
45098SOL     OW37190   2.928   6.856   8.632
45098SOL    HW137191   2.970   6.772   8.650
45098SOL    HW237192   2.963   6.915   8.699
45099SOL     OW37193  10.249   6.903   4.540
45099SOL    HW137194  10.278   6.921   4.629
45099SOL    HW237195  10.199   6.822   4.547
45100SOL     OW37196   4.657   3.197   0.169
45100SOL    HW137197   4.737   3.182   0.118
45100SOL    HW237198   4.675   3.157   0.254
45101SOL     OW37199  10.254   1.322  14.396
45101SOL    HW137200  10.204   1.308  14.316
45101SOL    HW237201  10.226   1.409  14.427
45102SOL     OW37202   6.592   8.205  12.618
45102SOL    HW137203   6.597   8.290  12.662
45102SOL    HW237204   6.504   8.173  12.637
45103SOL     OW37205   5.559  10.405   9.954
45103SOL    HW137206   5.491  10.372  10.012
45103SOL    HW237207   5.585  10.489   9.993
45104SOL     OW37208  11.647   5.344  14.063
45104SOL    HW137209  11.687   5.261  14.088
45104SOL    HW237210  11.572   5.354  14.122
45105SOL     OW37211   2.594   7.006   5.276
45105SOL    HW137212   2.520   7.001   5.216
45105SOL    HW237213   2.555   7.019   5.362
45106SOL     OW37214   5.817   7.044  11.757
45106SOL    HW137215   5.779   7.085  11.835
45106SOL    HW237216   5.828   6.952  11.781
45107SOL     OW37217   6.208   3.361   1.884
45107SOL    HW137218   6.123   3.395   1.913
45107SOL    HW237219   6.272   3.410   1.936
45108SOL     OW37220   1.192  14.434  10.298
45108SOL    HW137221   1.280  14.407  10.272
45108SOL    HW237222   1.154  14.357  10.340
45109SOL     OW37223  12.545   8.342  12.015
45109SOL    HW137224  12.628   8.333  11.968
45109SOL    HW237225  12.478   8.336  11.947
45110SOL     OW37226   5.677  12.805   4.481
45110SOL    HW137227   5.758  12.770   4.519
45110SOL    HW237228   5.624  12.829   4.557
45111SOL     OW37229   7.932   5.330   5.301
45111SOL    HW137230   8.021   5.325   5.336
45111SOL    HW237231   7.887   5.394   5.357
45112SOL     OW37232   8.019   0.739  13.710
45112SOL    HW137233   8.112   0.743  13.690
45112SOL    HW237234   7.983   0.679  13.645
45113SOL     OW37235   7.553   1.050  12.083
45113SOL    HW137236   7.518   1.043  12.171
45113SOL    HW237237   7.552   0.961  12.048
45114SOL     OW37238  11.248  11.277   2.326
45114SOL    HW137239  11.307  11.216   2.282
45114SOL    HW237240  11.160  11.249   2.298
45115SOL     OW37241   6.288   3.864   7.417
45115SOL    HW137242   6.308   3.901   7.331
45115SOL    HW237243   6.354   3.797   7.430
45116SOL     OW37244   5.973   3.661  12.486
45116SOL    HW137245   6.066   3.678  12.473
45116SOL    HW237246   5.969   3.575  12.526
45117SOL     OW37247  10.936  14.078   2.099
45117SOL    HW137248  10.887  14.086   2.181
45117SOL    HW237249  11.028  14.080   2.126
45118SOL     OW37250   6.566   1.550   3.405
45118SOL    HW137251   6.641   1.576   3.459
45118SOL    HW237252   6.592   1.575   3.316
45119SOL     OW37253   4.498  11.205   4.836
45119SOL    HW137254   4.428  11.142   4.855
45119SOL    HW237255   4.533  11.177   4.751
45120SOL     OW37256   7.662   0.022  12.952
45120SOL    HW137257   7.753   0.047  12.964
45120SOL    HW237258   7.654   0.003  12.859
45121SOL     OW37259  12.749   7.444  12.266
45121SOL    HW137260  12.663   7.448  12.307
45121SOL    HW237261  12.805   7.404  12.333
45122SOL     OW37262   6.976   0.121  12.352
45122SOL    HW137263   7.039   0.192  12.335
45122SOL    HW237264   6.924   0.153  12.425
45123SOL     OW37265   4.261   6.533   0.312
45123SOL    HW137266   4.311   6.503   0.236
45123SOL    HW237267   4.314   6.603   0.350
45124SOL     OW37268   8.901   3.310   1.727
45124SOL    HW137269   8.808   3.333   1.731
45124SOL    HW237270   8.937   3.370   1.662
45125SOL     OW37271  13.766   1.576   5.804
45125SOL    HW137272  13.737   1.589   5.714
45125SOL    HW237273  13.687   1.584   5.857
45126SOL     OW37274   5.190  13.602   7.681
45126SOL    HW137275   5.151  13.686   7.706
45126SOL    HW237276   5.283  13.621   7.672
45127SOL     OW37277  11.744  13.164  10.579
45127SOL    HW137278  11.717  13.205  10.497
45127SOL    HW237279  11.763  13.073  10.555
45128SOL     OW37280   1.863   6.006   9.402
45128SOL    HW137281   1.822   6.077   9.452
45128SOL    HW237282   1.832   5.926   9.443
45129SOL     OW37283  11.939   4.198  10.172
45129SOL    HW137284  11.971   4.269  10.117
45129SOL    HW237285  11.963   4.118  10.124
45130SOL     OW37286   6.333   7.315   2.578
45130SOL    HW137287   6.332   7.263   2.658
45130SOL    HW237288   6.248   7.300   2.538
45131SOL     OW37289  13.716  14.055   2.440
45131SOL    HW137290  13.676  14.042   2.525
45131SOL    HW237291  13.645  14.045   2.377
45132SOL     OW37292   7.480  12.854   1.131
45132SOL    HW137293   7.495  12.773   1.081
45132SOL    HW237294   7.391  12.844   1.164
45133SOL     OW37295   6.908   0.000   4.193
45133SOL    HW137296   6.992  14.826   4.204
45133SOL    HW237297   6.912   0.073   4.254
45134SOL     OW37298  12.894   8.978   7.841
45134SOL    HW137299  12.910   8.892   7.881
45134SOL    HW237300  12.950   9.038   7.890
45135SOL     OW37301  12.933  12.090   2.066
45135SOL    HW137302  12.916  12.172   2.020
45135SOL    HW237303  13.026  12.092   2.086
45136SOL     OW37304   3.702  11.337  10.263
45136SOL    HW137305   3.760  11.354  10.188
45136SOL    HW237306   3.697  11.241  10.268
45137SOL     OW37307   8.496   3.465   9.859
45137SOL    HW137308   8.498   3.420   9.774
45137SOL    HW237309   8.426   3.530   9.850
45138SOL     OW37310  11.642   8.651  10.812
45138SOL    HW137311  11.595   8.569  10.795
45138SOL    HW237312  11.644   8.658  10.907
45139SOL     OW37313   4.957  12.965   8.727
45139SOL    HW137314   4.867  12.941   8.749
45139SOL    HW237315   5.008  12.885   8.745
45140SOL     OW37316   0.933  12.767   6.634
45140SOL    HW137317   0.889  12.711   6.698
45140SOL    HW237318   0.992  12.708   6.587
45141SOL     OW37319   5.379   4.939   3.392
45141SOL    HW137320   5.327   4.862   3.414
45141SOL    HW237321   5.375   4.944   3.297
45142SOL     OW37322  10.491  11.068   5.347
45142SOL    HW137323  10.449  11.123   5.281
45142SOL    HW237324  10.425  11.003   5.371
45143SOL     OW37325  12.075  10.977  14.835
45143SOL    HW137326  12.067  10.892   0.008
45143SOL    HW237327  12.168  10.999  14.843
45144SOL     OW37328   3.899   8.361   0.420
45144SOL    HW137329   3.944   8.299   0.478
45144SOL    HW237330   3.810   8.326   0.413
45145SOL     OW37331   1.923   7.190  10.649
45145SOL    HW137332   1.987   7.164  10.583
45145SOL    HW237333   1.838   7.184  10.605
45146SOL     OW37334   8.476   3.728   2.115
45146SOL    HW137335   8.510   3.638   2.112
45146SOL    HW237336   8.483   3.752   2.208
45147SOL     OW37337  10.759   8.148   1.511
45147SOL    HW137338  10.846   8.169   1.543
45147SOL    HW237339  10.754   8.191   1.425
45148SOL     OW37340  12.443   2.038  10.447
45148SOL    HW137341  12.354   2.003  10.456
45148SOL    HW237342  12.438   2.125  10.487
45149SOL     OW37343  10.954   6.020  11.844
45149SOL    HW137344  10.990   5.940  11.805
45149SOL    HW237345  11.009   6.035  11.921
45150SOL     OW37346   4.333  12.333   0.038
45150SOL    HW137347   4.363  12.403  14.851
45150SOL    HW237348   4.295  12.268  14.851
45151SOL     OW37349   1.883  11.743   3.129
45151SOL    HW137350   1.925  11.797   3.062
45151SOL    HW237351   1.811  11.798   3.162
45152SOL     OW37352  12.658   6.088  14.790
45152SOL    HW137353  12.587   6.058  14.734
45152SOL    HW237354  12.737   6.076  14.738
45153SOL     OW37355  10.797   1.940   2.167
45153SOL    HW137356  10.777   1.990   2.246
45153SOL    HW237357  10.735   1.972   2.101
45154SOL     OW37358  13.997   2.955   5.543
45154SOL    HW137359  14.028   3.046   5.543
45154SOL    HW237360  13.961   2.943   5.455
45155SOL     OW37361  11.142  14.678   7.648
45155SOL    HW137362  11.117  14.745   7.713
45155SOL    HW237363  11.100  14.707   7.567
45156SOL     OW37364   3.884   1.806   6.861
45156SOL    HW137365   3.950   1.741   6.838
45156SOL    HW237366   3.853   1.778   6.948
45157SOL     OW37367   1.755   6.196   9.569
45157SOL    HW137368   1.679   6.238   9.608
45157SOL    HW237369   1.830   6.246   9.602
45158SOL     OW37370   4.461   2.078   7.824
45158SOL    HW137371   4.538   2.044   7.778
45158SOL    HW237372   4.464   2.173   7.808
45159SOL     OW37373   1.373   0.119   9.549
45159SOL    HW137374   1.418   0.189   9.501
45159SOL    HW237375   1.300   0.162   9.593
45160SOL     OW37376  10.176   4.451   2.838
45160SOL    HW137377  10.139   4.363   2.848
45160SOL    HW237378  10.151   4.478   2.749
45161SOL     OW37379  10.443   9.221  11.816
45161SOL    HW137380  10.387   9.288  11.854
45161SOL    HW237381  10.382   9.156  11.780
45162SOL     OW37382   9.253  10.478   3.150
45162SOL    HW137383   9.217  10.439   3.230
45162SOL    HW237384   9.268  10.570   3.173
45163SOL     OW37385   7.796   2.621   3.272
45163SOL    HW137386   7.724   2.580   3.320
45163SOL    HW237387   7.831   2.550   3.218
45164SOL     OW37388   8.191   9.545   6.059
45164SOL    HW137389   8.190   9.543   5.963
45164SOL    HW237390   8.119   9.487   6.084
45165SOL     OW37391   9.458  14.475   7.841
45165SOL    HW137392   9.527  14.467   7.775
45165SOL    HW237393   9.377  14.479   7.790
45166SOL     OW37394   9.701   5.482   5.135
45166SOL    HW137395   9.671   5.506   5.048
45166SOL    HW237396   9.765   5.549   5.159
45167SOL     OW37397   2.397   4.783   1.744
45167SOL    HW137398   2.397   4.688   1.731
45167SOL    HW237399   2.413   4.819   1.657
45168SOL     OW37400   3.003  10.683  13.088
45168SOL    HW137401   3.008  10.589  13.071
45168SOL    HW237402   2.923  10.711  13.043
45169SOL     OW37403   1.542   0.179  10.083
45169SOL    HW137404   1.513   0.171   9.992
45169SOL    HW237405   1.501   0.259  10.114
45170SOL     OW37406   1.854  14.532   0.597
45170SOL    HW137407   1.946  14.518   0.576
45170SOL    HW237408   1.812  14.447   0.582
45171SOL     OW37409   2.537   8.001  10.622
45171SOL    HW137410   2.618   7.993  10.573
45171SOL    HW237411   2.469   7.972  10.561
45172SOL     OW37412   7.771  13.819  14.312
45172SOL    HW137413   7.799  13.729  14.298
45172SOL    HW237414   7.692  13.812  14.365
45173SOL     OW37415  12.637   8.619   9.100
45173SOL    HW137416  12.596   8.550   9.153
45173SOL    HW237417  12.634   8.585   9.011
45174SOL     OW37418  10.282  12.380   3.420
45174SOL    HW137419  10.307  12.460   3.374
45174SOL    HW237420  10.359  12.323   3.415
45175SOL     OW37421   8.655   5.594   7.094
45175SOL    HW137422   8.738   5.595   7.048
45175SOL    HW237423   8.589   5.579   7.026
45176SOL     OW37424   1.953   9.770   5.517
45176SOL    HW137425   1.975   9.678   5.505
45176SOL    HW237426   2.012   9.817   5.457
45177SOL     OW37427   2.455   8.402   1.817
45177SOL    HW137428   2.428   8.387   1.727
45177SOL    HW237429   2.547   8.378   1.819
45178SOL     OW37430   2.576  13.851  14.032
45178SOL    HW137431   2.527  13.786  14.081
45178SOL    HW237432   2.651  13.871  14.087
45179SOL     OW37433  12.488   3.956   0.361
45179SOL    HW137434  12.449   4.037   0.393
45179SOL    HW237435  12.508   3.906   0.440
45180SOL     OW37436   2.818   9.322   7.366
45180SOL    HW137437   2.895   9.333   7.421
45180SOL    HW237438   2.804   9.408   7.326
45181SOL     OW37439  12.783  10.837   5.863
45181SOL    HW137440  12.761  10.826   5.771
45181SOL    HW237441  12.786  10.747   5.898
45182SOL     OW37442  13.664   6.594   7.089
45182SOL    HW137443  13.570   6.582   7.098
45182SOL    HW237444  13.703   6.517   7.131
45183SOL     OW37445   5.837   7.815   5.413
45183SOL    HW137446   5.812   7.732   5.455
45183SOL    HW237447   5.828   7.880   5.482
45184SOL     OW37448  14.751   9.314   9.625
45184SOL    HW137449  14.671   9.363   9.606
45184SOL    HW237450  14.822   9.371   9.597
45185SOL     OW37451  14.212  13.871  14.181
45185SOL    HW137452  14.220  13.945  14.242
45185SOL    HW237453  14.262  13.899  14.104
45186SOL     OW37454  13.266   2.548  10.458
45186SOL    HW137455  13.225   2.622  10.502
45186SOL    HW237456  13.304   2.496  10.529
45187SOL     OW37457  11.581   4.357   6.943
45187SOL    HW137458  11.554   4.298   6.872
45187SOL    HW237459  11.644   4.306   6.994
45188SOL     OW37460  14.265   1.520   1.875
45188SOL    HW137461  14.191   1.536   1.933
45188SOL    HW237462  14.342   1.539   1.928
45189SOL     OW37463  13.148   9.456  11.627
45189SOL    HW137464  13.205   9.419  11.695
45189SOL    HW237465  13.095   9.521  11.673
45190SOL     OW37466   0.162   9.200  11.699
45190SOL    HW137467   0.179   9.293  11.714
45190SOL    HW237468   0.211   9.155  11.769
45191SOL     OW37469  10.970  11.457   4.026
45191SOL    HW137470  10.916  11.526   3.988
45191SOL    HW237471  10.959  11.383   3.968
45192SOL     OW37472  13.839   4.223   1.949
45192SOL    HW137473  13.780   4.217   1.874
45192SOL    HW237474  13.915   4.272   1.916
45193SOL     OW37475  10.252   4.916  14.758
45193SOL    HW137476  10.171   4.928  14.807
45193SOL    HW237477  10.304   4.855  14.811
45194SOL     OW37478   8.561   8.082   5.387
45194SOL    HW137479   8.543   8.056   5.297
45194SOL    HW237480   8.487   8.138   5.411
45195SOL     OW37481  13.653  10.121   0.012
45195SOL    HW137482  13.584  10.130  14.818
45195SOL    HW237483  13.682  10.030   0.004
45196SOL     OW37484  10.605   7.839   3.089
45196SOL    HW137485  10.525   7.864   3.136
45196SOL    HW237486  10.606   7.744   3.092
45197SOL     OW37487   5.556  13.201   5.841
45197SOL    HW137488   5.583  13.285   5.880
45197SOL    HW237489   5.515  13.154   5.914
45198SOL     OW37490   6.913   3.397   7.161
45198SOL    HW137491   6.940   3.481   7.125
45198SOL    HW237492   6.841   3.368   7.105
45199SOL     OW37493   8.737  13.929   3.010
45199SOL    HW137494   8.709  14.021   3.013
45199SOL    HW237495   8.787  13.917   3.091
45200SOL     OW37496   2.299   8.683  11.126
45200SOL    HW137497   2.330   8.661  11.038
45200SOL    HW237498   2.281   8.777  11.122
45201SOL     OW37499   6.508   7.602  12.474
45201SOL    HW137500   6.421   7.630  12.446
45201SOL    HW237501   6.503   7.507  12.476
45202SOL     OW37502  13.145   7.165   0.234
45202SOL    HW137503  13.223   7.113   0.217
45202SOL    HW237504  13.075   7.101   0.247
45203SOL     OW37505  10.065   6.229   7.137
45203SOL    HW137506  10.076   6.290   7.210
45203SOL    HW237507  10.123   6.156   7.159
45204SOL     OW37508   6.920   4.241   4.671
45204SOL    HW137509   7.003   4.218   4.628
45204SOL    HW237510   6.870   4.286   4.603
45205SOL     OW37511   9.018  10.456  12.642
45205SOL    HW137512   9.035  10.504  12.561
45205SOL    HW237513   8.931  10.418  12.629
45206SOL     OW37514   9.161   9.006   8.689
45206SOL    HW137515   9.112   8.925   8.705
45206SOL    HW237516   9.114   9.073   8.739
45207SOL     OW37517  10.796  10.401  10.099
45207SOL    HW137518  10.760  10.347  10.029
45207SOL    HW237519  10.891  10.394  10.088
45208SOL     OW37520  10.040  10.690  14.648
45208SOL    HW137521  10.003  10.634  14.716
45208SOL    HW237522  10.130  10.660  14.639
45209SOL     OW37523  11.357   1.876   4.933
45209SOL    HW137524  11.296   1.923   4.875
45209SOL    HW237525  11.320   1.889   5.021
45210SOL     OW37526   7.628   8.196  11.944
45210SOL    HW137527   7.612   8.105  11.968
45210SOL    HW237528   7.689   8.228  12.010
45211SOL     OW37529   9.315  13.670   9.765
45211SOL    HW137530   9.278  13.749   9.726
45211SOL    HW237531   9.250  13.642   9.829
45212SOL     OW37532  13.295   8.591   7.552
45212SOL    HW137533  13.339   8.652   7.611
45212SOL    HW237534  13.220   8.559   7.602
45213SOL     OW37535   0.143   7.018   3.796
45213SOL    HW137536   0.192   7.049   3.721
45213SOL    HW237537   0.206   7.018   3.868
45214SOL     OW37538   3.908   3.545   9.100
45214SOL    HW137539   3.876   3.634   9.114
45214SOL    HW237540   3.832   3.496   9.070
45215SOL     OW37541   1.238  11.861  11.298
45215SOL    HW137542   1.305  11.925  11.320
45215SOL    HW237543   1.172  11.911  11.249
45216SOL     OW37544   1.637  14.411   4.070
45216SOL    HW137545   1.651  14.506   4.074
45216SOL    HW237546   1.571  14.395   4.138
45217SOL     OW37547   5.962  12.045  12.006
45217SOL    HW137548   6.056  12.050  11.992
45217SOL    HW237549   5.928  12.129  11.974
45218SOL     OW37550   5.129   6.028  13.090
45218SOL    HW137551   5.189   6.051  13.161
45218SOL    HW237552   5.050   5.999  13.134
45219SOL     OW37553  12.670   5.110   3.860
45219SOL    HW137554  12.643   5.020   3.879
45219SOL    HW237555  12.753   5.100   3.812
45220SOL     OW37556   9.343  11.709   5.009
45220SOL    HW137557   9.268  11.756   5.044
45220SOL    HW237558   9.419  11.751   5.049
45221SOL     OW37559   9.512   7.238   6.445
45221SOL    HW137560   9.468   7.284   6.517
45221SOL    HW237561   9.440   7.207   6.390
45222SOL     OW37562  11.247   7.700   1.519
45222SOL    HW137563  11.168   7.705   1.466
45222SOL    HW237564  11.219   7.655   1.599
45223SOL     OW37565   8.684   2.468  13.931
45223SOL    HW137566   8.651   2.517  14.006
45223SOL    HW237567   8.607   2.457  13.875
45224SOL     OW37568   4.595  11.482   0.287
45224SOL    HW137569   4.665  11.508   0.227
45224SOL    HW237570   4.633  11.412   0.340
45225SOL     OW37571   6.115   0.273   7.090
45225SOL    HW137572   6.115   0.320   7.173
45225SOL    HW237573   6.208   0.269   7.065
45226SOL     OW37574  11.857   7.839   8.445
45226SOL    HW137575  11.911   7.910   8.478
45226SOL    HW237576  11.910   7.797   8.378
45227SOL     OW37577  13.507   8.009  13.252
45227SOL    HW137578  13.485   8.022  13.160
45227SOL    HW237579  13.548   7.922  13.256
45228SOL     OW37580   7.141  10.209   1.465
45228SOL    HW137581   7.146  10.116   1.443
45228SOL    HW237582   7.148  10.254   1.381
45229SOL     OW37583   1.582   3.315  14.349
45229SOL    HW137584   1.529   3.390  14.322
45229SOL    HW237585   1.666   3.354  14.374
45230SOL     OW37586   9.763   4.414   8.998
45230SOL    HW137587   9.699   4.377   8.937
45230SOL    HW237588   9.739   4.377   9.083
45231SOL     OW37589   6.084   2.216  10.148
45231SOL    HW137590   6.045   2.204  10.061
45231SOL    HW237591   6.094   2.310  10.157
45232SOL     OW37592   3.406   1.504   2.161
45232SOL    HW137593   3.413   1.431   2.100
45232SOL    HW237594   3.464   1.481   2.234
45233SOL     OW37595  13.135   5.226  14.409
45233SOL    HW137596  13.050   5.268  14.398
45233SOL    HW237597  13.167   5.211  14.320
45234SOL     OW37598   1.264   0.479  13.300
45234SOL    HW137599   1.279   0.431  13.219
45234SOL    HW237600   1.256   0.571  13.272
45235SOL     OW37601  12.293   4.966   2.586
45235SOL    HW137602  12.293   4.874   2.563
45235SOL    HW237603  12.386   4.992   2.582
45236SOL     OW37604   7.412  11.076   4.467
45236SOL    HW137605   7.381  11.143   4.406
45236SOL    HW237606   7.507  11.071   4.451
45237SOL     OW37607  12.087   1.499   9.857
45237SOL    HW137608  12.038   1.456   9.787
45237SOL    HW237609  12.076   1.442   9.933
45238SOL     OW37610  14.823  12.735   5.862
45238SOL    HW137611   0.015  12.730   5.790
45238SOL    HW237612  14.795  12.827   5.861
45239SOL     OW37613   4.052   2.543   1.566
45239SOL    HW137614   4.122   2.526   1.629
45239SOL    HW237615   4.068   2.633   1.536
45240SOL     OW37616  11.733   4.081   8.769
45240SOL    HW137617  11.783   4.000   8.757
45240SOL    HW237618  11.645   4.060   8.737
45241SOL     OW37619   3.323  13.884   3.601
45241SOL    HW137620   3.409  13.886   3.560
45241SOL    HW237621   3.341  13.896   3.694
45242SOL     OW37622   6.199  14.702   2.309
45242SOL    HW137623   6.114  14.736   2.281
45242SOL    HW237624   6.187  14.679   2.400
45243SOL     OW37625   7.437   3.932   2.837
45243SOL    HW137626   7.399   4.020   2.841
45243SOL    HW237627   7.468   3.915   2.926
45244SOL     OW37628   4.147   5.557   4.928
45244SOL    HW137629   4.080   5.488   4.919
45244SOL    HW237630   4.102   5.637   4.900
45245SOL     OW37631  13.973   1.603   3.561
45245SOL    HW137632  13.921   1.548   3.620
45245SOL    HW237633  14.050   1.550   3.541
45246SOL     OW37634  10.270   0.607   6.990
45246SOL    HW137635  10.272   0.515   6.962
45246SOL    HW237636  10.200   0.646   6.938
45247SOL     OW37637  11.046   3.863   9.835
45247SOL    HW137638  11.126   3.914   9.830
45247SOL    HW237639  11.005   3.873   9.749
45248SOL     OW37640  13.938   6.821  10.287
45248SOL    HW137641  13.974   6.906  10.313
45248SOL    HW237642  14.011   6.760  10.301
45249SOL     OW37643   9.073  14.632   6.237
45249SOL    HW137644   9.102  14.714   6.197
45249SOL    HW237645   9.004  14.600   6.179
45250SOL     OW37646   7.591  14.790  13.490
45250SOL    HW137647   7.658  14.845  13.531
45250SOL    HW237648   7.515  14.798  13.548
45251SOL     OW37649   3.915   7.932  14.043
45251SOL    HW137650   3.982   7.866  14.027
45251SOL    HW237651   3.963   8.005  14.082
45252SOL     OW37652   1.111   5.032   0.172
45252SOL    HW137653   1.139   5.051   0.261
45252SOL    HW237654   1.113   4.937   0.165
45253SOL     OW37655   2.106   8.813  14.294
45253SOL    HW137656   2.069   8.859  14.369
45253SOL    HW237657   2.087   8.720  14.311
45254SOL     OW37658   2.061  12.133  11.611
45254SOL    HW137659   2.073  12.181  11.529
45254SOL    HW237660   1.992  12.180  11.657
45255SOL     OW37661   6.070  13.697  11.929
45255SOL    HW137662   6.041  13.783  11.900
45255SOL    HW237663   6.001  13.637  11.900
45256SOL     OW37664  11.882   1.537   4.666
45256SOL    HW137665  11.860   1.475   4.736
45256SOL    HW237666  11.973   1.562   4.685
45257SOL     OW37667   6.529   1.351   6.499
45257SOL    HW137668   6.607   1.304   6.528
45257SOL    HW237669   6.530   1.433   6.550
45258SOL     OW37670   9.738   6.796   7.396
45258SOL    HW137671   9.755   6.702   7.405
45258SOL    HW237672   9.704   6.822   7.481
45259SOL     OW37673   0.556   4.578  13.153
45259SOL    HW137674   0.534   4.576  13.060
45259SOL    HW237675   0.565   4.487  13.178
45260SOL     OW37676  12.066   7.967  12.559
45260SOL    HW137677  12.049   7.926  12.474
45260SOL    HW237678  12.109   8.050  12.537
45261SOL     OW37679   0.606   5.670   3.567
45261SOL    HW137680   0.618   5.600   3.503
45261SOL    HW237681   0.521   5.652   3.607
45262SOL     OW37682   0.361   4.605   3.942
45262SOL    HW137683   0.433   4.549   3.913
45262SOL    HW237684   0.285   4.572   3.894
45263SOL     OW37685   5.507  12.128   1.528
45263SOL    HW137686   5.514  12.189   1.454
45263SOL    HW237687   5.563  12.166   1.596
45264SOL     OW37688   1.420  14.422   9.038
45264SOL    HW137689   1.350  14.370   9.000
45264SOL    HW237690   1.491  14.419   8.973
45265SOL     OW37691   0.672   9.529   3.987
45265SOL    HW137692   0.646   9.458   4.047
45265SOL    HW237693   0.711   9.595   4.044
45266SOL     OW37694   3.622   4.786   9.152
45266SOL    HW137695   3.553   4.786   9.219
45266SOL    HW237696   3.704   4.795   9.202
45267SOL     OW37697  11.120  13.907   3.799
45267SOL    HW137698  11.080  13.840   3.854
45267SOL    HW237699  11.048  13.937   3.742
45268SOL     OW37700   9.720   4.651   4.626
45268SOL    HW137701   9.752   4.606   4.704
45268SOL    HW237702   9.625   4.651   4.635
45269SOL     OW37703   5.756   8.686   0.088
45269SOL    HW137704   5.777   8.778   0.104
45269SOL    HW237705   5.714   8.685   0.002
45270SOL     OW37706   1.478  11.346  13.936
45270SOL    HW137707   1.462  11.266  13.886
45270SOL    HW237708   1.523  11.317  14.015
45271SOL     OW37709   7.424   2.833   1.274
45271SOL    HW137710   7.363   2.759   1.281
45271SOL    HW237711   7.508   2.792   1.256
45272SOL     OW37712  11.372   3.236   0.784
45272SOL    HW137713  11.347   3.235   0.876
45272SOL    HW237714  11.375   3.329   0.762
45273SOL     OW37715   2.659   6.792   0.602
45273SOL    HW137716   2.724   6.767   0.668
45273SOL    HW237717   2.670   6.728   0.532
45274SOL     OW37718   0.195   2.532   5.454
45274SOL    HW137719   0.270   2.574   5.496
45274SOL    HW237720   0.194   2.443   5.489
45275SOL     OW37721  14.695   1.233   5.864
45275SOL    HW137722  14.720   1.292   5.935
45275SOL    HW237723  14.628   1.282   5.815
45276SOL     OW37724  12.548   2.536   1.835
45276SOL    HW137725  12.572   2.619   1.793
45276SOL    HW237726  12.470   2.507   1.788
45277SOL     OW37727   2.248  13.256  12.186
45277SOL    HW137728   2.218  13.346  12.170
45277SOL    HW237729   2.312  13.239  12.117
45278SOL     OW37730   4.865  13.197  14.785
45278SOL    HW137731   4.832  13.259  14.720
45278SOL    HW237732   4.906  13.128  14.733
45279SOL     OW37733   4.641   1.624   4.310
45279SOL    HW137734   4.546   1.629   4.317
45279SOL    HW237735   4.660   1.530   4.307
45280SOL     OW37736   8.095  10.558  13.857
45280SOL    HW137737   7.999  10.563  13.861
45280SOL    HW237738   8.114  10.465  13.870
45281SOL     OW37739   9.434  11.867  10.039
45281SOL    HW137740   9.350  11.911  10.028
45281SOL    HW237741   9.446  11.860  10.134
45282SOL     OW37742   1.320  12.511  11.744
45282SOL    HW137743   1.400  12.515  11.795
45282SOL    HW237744   1.260  12.573  11.787
45283SOL     OW37745   4.491  10.174   9.453
45283SOL    HW137746   4.582  10.157   9.428
45283SOL    HW237747   4.441  10.162   9.373
45284SOL     OW37748  10.307  14.048  11.353
45284SOL    HW137749  10.355  14.005  11.282
45284SOL    HW237750  10.220  14.065  11.318
45285SOL     OW37751   9.271   6.051   3.007
45285SOL    HW137752   9.291   6.064   2.914
45285SOL    HW237753   9.221   5.969   3.009
45286SOL     OW37754  11.141  14.054   6.915
45286SOL    HW137755  11.112  13.963   6.915
45286SOL    HW237756  11.236  14.050   6.903
45287SOL     OW37757   0.425   3.322   8.961
45287SOL    HW137758   0.480   3.310   8.884
45287SOL    HW237759   0.338   3.291   8.933
45288SOL     OW37760   3.210   2.186   2.492
45288SOL    HW137761   3.298   2.162   2.463
45288SOL    HW237762   3.167   2.102   2.507
45289SOL     OW37763   5.339  11.940  13.838
45289SOL    HW137764   5.338  11.917  13.745
45289SOL    HW237765   5.426  11.912  13.868
45290SOL     OW37766   4.804  13.605   7.250
45290SOL    HW137767   4.752  13.683   7.268
45290SOL    HW237768   4.770  13.539   7.311
45291SOL     OW37769  14.122   3.634   3.066
45291SOL    HW137770  14.085   3.680   3.142
45291SOL    HW237771  14.139   3.704   3.002
45292SOL     OW37772   1.851   9.081   6.747
45292SOL    HW137773   1.817   9.148   6.688
45292SOL    HW237774   1.791   9.081   6.821
45293SOL     OW37775   9.822  13.847   7.271
45293SOL    HW137776   9.913  13.838   7.297
45293SOL    HW237777   9.787  13.914   7.329
45294SOL     OW37778  10.635  12.586   5.013
45294SOL    HW137779  10.597  12.535   5.084
45294SOL    HW237780  10.565  12.592   4.948
45295SOL     OW37781  11.815   1.836   9.440
45295SOL    HW137782  11.759   1.875   9.507
45295SOL    HW237783  11.758   1.776   9.392
45296SOL     OW37784  13.796  12.469  12.021
45296SOL    HW137785  13.793  12.487  12.115
45296SOL    HW237786  13.823  12.377  12.015
45297SOL     OW37787   4.992  10.994  11.754
45297SOL    HW137788   5.044  11.049  11.696
45297SOL    HW237789   5.055  10.936  11.796
45298SOL     OW37790  13.685  10.427   5.961
45298SOL    HW137791  13.683  10.503   5.904
45298SOL    HW237792  13.672  10.352   5.902
45299SOL     OW37793   6.714   8.952   2.344
45299SOL    HW137794   6.643   8.895   2.315
45299SOL    HW237795   6.790   8.894   2.351
45300SOL     OW37796   1.543   2.539   6.505
45300SOL    HW137797   1.448   2.535   6.515
45300SOL    HW237798   1.561   2.629   6.482
45301SOL     OW37799   9.139   7.143   4.462
45301SOL    HW137800   9.073   7.171   4.526
45301SOL    HW237801   9.211   7.109   4.515
45302SOL     OW37802   9.634   7.312   2.689
45302SOL    HW137803   9.704   7.249   2.674
45302SOL    HW237804   9.563   7.283   2.632
45303SOL     OW37805   0.632   3.732  13.319
45303SOL    HW137806   0.558   3.779  13.358
45303SOL    HW237807   0.709   3.783  13.345
45304SOL     OW37808  12.479   6.907  13.262
45304SOL    HW137809  12.571   6.891  13.238
45304SOL    HW237810  12.469   6.861  13.346
45305SOL     OW37811  12.458   2.355   2.003
45305SOL    HW137812  12.414   2.377   2.085
45305SOL    HW237813  12.476   2.439   1.962
45306SOL     OW37814   3.449   2.436  12.495
45306SOL    HW137815   3.392   2.396  12.429
45306SOL    HW237816   3.457   2.527  12.467
45307SOL     OW37817   0.422  12.223   0.782
45307SOL    HW137818   0.472  12.248   0.704
45307SOL    HW237819   0.361  12.295   0.795
45308SOL     OW37820  10.360   5.846  13.379
45308SOL    HW137821  10.422   5.862  13.450
45308SOL    HW237822  10.274   5.854  13.420
45309SOL     OW37823   3.170  12.046   6.970
45309SOL    HW137824   3.232  11.976   6.991
45309SOL    HW237825   3.085  12.013   6.998
45310SOL     OW37826   0.702  11.418   9.721
45310SOL    HW137827   0.782  11.366   9.731
45310SOL    HW237828   0.651  11.399   9.800
45311SOL     OW37829   2.548   7.660  14.270
45311SOL    HW137830   2.559   7.639  14.363
45311SOL    HW237831   2.457   7.636  14.251
45312SOL     OW37832   6.418  13.639   4.921
45312SOL    HW137833   6.361  13.567   4.949
45312SOL    HW237834   6.495  13.596   4.884
45313SOL     OW37835   7.397   3.513   0.859
45313SOL    HW137836   7.359   3.449   0.799
45313SOL    HW237837   7.387   3.474   0.946
45314SOL     OW37838   4.757  13.287  14.529
45314SOL    HW137839   4.712  13.305  14.447
45314SOL    HW237840   4.762  13.372  14.573
45315SOL     OW37841  13.586  10.900   1.297
45315SOL    HW137842  13.528  10.917   1.223
45315SOL    HW237843  13.623  10.986   1.319
45316SOL     OW37844  10.417   0.971   3.469
45316SOL    HW137845  10.475   0.972   3.393
45316SOL    HW237846  10.443   0.894   3.519
45317SOL     OW37847   2.851  13.230  14.764
45317SOL    HW137848   2.807  13.258  14.844
45317SOL    HW237849   2.857  13.310  14.711
45318SOL     OW37850   7.153  12.499   3.951
45318SOL    HW137851   7.220  12.440   3.917
45318SOL    HW237852   7.074  12.477   3.902
45319SOL     OW37853  12.534   8.906   4.685
45319SOL    HW137854  12.581   8.988   4.706
45319SOL    HW237855  12.602   8.839   4.688
45320SOL     OW37856   6.363   9.745   2.543
45320SOL    HW137857   6.315   9.787   2.471
45320SOL    HW237858   6.412   9.817   2.583
45321SOL     OW37859   0.802  14.605   8.143
45321SOL    HW137860   0.786  14.516   8.174
45321SOL    HW237861   0.886  14.600   8.097
45322SOL     OW37862   9.246   7.445   2.316
45322SOL    HW137863   9.254   7.364   2.265
45322SOL    HW237864   9.333   7.485   2.312
45323SOL     OW37865   1.813   9.081   4.170
45323SOL    HW137866   1.801   9.167   4.129
45323SOL    HW237867   1.737   9.071   4.227
45324SOL     OW37868   8.319  11.114  11.565
45324SOL    HW137869   8.384  11.122  11.635
45324SOL    HW237870   8.304  11.020  11.557
45325SOL     OW37871   3.954   5.515  11.095
45325SOL    HW137872   3.912   5.494  11.011
45325SOL    HW237873   4.024   5.450  11.104
45326SOL     OW37874   5.937   0.765  14.707
45326SOL    HW137875   5.846   0.778  14.735
45326SOL    HW237876   5.931   0.696  14.640
45327SOL     OW37877   7.143   4.183   0.933
45327SOL    HW137878   7.085   4.185   0.857
45327SOL    HW237879   7.086   4.158   1.006
45328SOL     OW37880   5.074   2.491  14.642
45328SOL    HW137881   5.023   2.461  14.718
45328SOL    HW237882   5.165   2.489  14.672
45329SOL     OW37883   9.691   4.130   5.678
45329SOL    HW137884   9.659   4.210   5.636
45329SOL    HW237885   9.671   4.143   5.771
45330SOL     OW37886   5.896  12.107  10.294
45330SOL    HW137887   5.950  12.128  10.371
45330SOL    HW237888   5.878  12.013  10.303
45331SOL     OW37889   9.812   9.467  10.351
45331SOL    HW137890   9.730   9.442  10.392
45331SOL    HW237891   9.804   9.437  10.261
45332SOL     OW37892   9.237   0.255   2.950
45332SOL    HW137893   9.152   0.291   2.977
45332SOL    HW237894   9.299   0.326   2.967
45333SOL     OW37895  11.006   0.417  10.740
45333SOL    HW137896  10.933   0.408  10.679
45333SOL    HW237897  10.974   0.377  10.821
45334SOL     OW37898   4.184   6.570   1.634
45334SOL    HW137899   4.215   6.515   1.562
45334SOL    HW237900   4.211   6.522   1.713
45335SOL     OW37901  12.477   8.608  11.456
45335SOL    HW137902  12.470   8.694  11.415
45335SOL    HW237903  12.487   8.626  11.549
45336SOL     OW37904   0.225   4.348   9.783
45336SOL    HW137905   0.186   4.263   9.761
45336SOL    HW237906   0.312   4.345   9.745
45337SOL     OW37907   2.317   9.764   1.357
45337SOL    HW137908   2.260   9.829   1.398
45337SOL    HW237909   2.353   9.714   1.431
45338SOL     OW37910  11.712   6.748  12.212
45338SOL    HW137911  11.635   6.761  12.156
45338SOL    HW237912  11.758   6.674  12.172
45339SOL     OW37913  10.394   1.967  14.232
45339SOL    HW137914  10.361   1.957  14.321
45339SOL    HW237915  10.476   2.015  14.241
45340SOL     OW37916  10.792   8.686   2.301
45340SOL    HW137917  10.798   8.619   2.233
45340SOL    HW237918  10.825   8.644   2.380
45341SOL     OW37919  12.273   3.216   2.752
45341SOL    HW137920  12.346   3.275   2.773
45341SOL    HW237921  12.212   3.227   2.825
45342SOL     OW37922  10.083   0.491   6.304
45342SOL    HW137923   9.992   0.510   6.280
45342SOL    HW237924  10.081   0.478   6.398
45343SOL     OW37925  11.239   2.060   4.700
45343SOL    HW137926  11.255   2.154   4.695
45343SOL    HW237927  11.157   2.052   4.750
45344SOL     OW37928   9.972   8.011   1.456
45344SOL    HW137929  10.036   8.022   1.526
45344SOL    HW237930  10.006   8.064   1.384
45345SOL     OW37931   4.946   7.612   2.073
45345SOL    HW137932   4.981   7.532   2.112
45345SOL    HW237933   5.003   7.631   1.999
45346SOL     OW37934  12.385  14.401   2.947
45346SOL    HW137935  12.417  14.371   3.033
45346SOL    HW237936  12.326  14.331   2.918
45347SOL     OW37937   9.921   5.211   0.982
45347SOL    HW137938   9.964   5.296   0.971
45347SOL    HW237939   9.967   5.170   1.055
45348SOL     OW37940   5.098   5.883  14.724
45348SOL    HW137941   5.183   5.849  14.697
45348SOL    HW237942   5.053   5.808  14.763
45349SOL     OW37943   2.554   8.594   9.601
45349SOL    HW137944   2.522   8.679   9.632
45349SOL    HW237945   2.598   8.555   9.677
45350SOL     OW37946   2.173   9.634  13.886
45350SOL    HW137947   2.255   9.640  13.837
45350SOL    HW237948   2.196   9.592  13.968
45351SOL     OW37949   0.811   5.919   8.010
45351SOL    HW137950   0.900   5.893   7.987
45351SOL    HW237951   0.818   6.011   8.033
45352SOL     OW37952  10.489   7.228  14.694
45352SOL    HW137953  10.541   7.240  14.774
45352SOL    HW237954  10.549   7.251  14.623
45353SOL     OW37955   0.852   2.833  13.931
45353SOL    HW137956   0.794   2.766  13.898
45353SOL    HW237957   0.823   2.848  14.021
45354SOL     OW37958   8.830  10.161  13.680
45354SOL    HW137959   8.825  10.073  13.644
45354SOL    HW237960   8.919  10.190  13.661
45355SOL     OW37961   6.671  12.187  11.668
45355SOL    HW137962   6.755  12.143  11.653
45355SOL    HW237963   6.647  12.224  11.583
45356SOL     OW37964   7.765  12.119   2.427
45356SOL    HW137965   7.681  12.075   2.417
45356SOL    HW237966   7.830  12.048   2.418
45357SOL     OW37967   4.690   8.102   5.210
45357SOL    HW137968   4.637   8.176   5.182
45357SOL    HW237969   4.778   8.137   5.218
45358SOL     OW37970   1.446   6.793  12.582
45358SOL    HW137971   1.446   6.733  12.656
45358SOL    HW237972   1.380   6.858  12.604
45359SOL     OW37973   4.538   2.357   9.659
45359SOL    HW137974   4.625   2.343   9.623
45359SOL    HW237975   4.541   2.445   9.697
45360SOL     OW37976   0.431  12.160   9.219
45360SOL    HW137977   0.373  12.157   9.295
45360SOL    HW237978   0.506  12.105   9.245
45361SOL     OW37979  10.122   4.041   6.087
45361SOL    HW137980  10.096   4.121   6.133
45361SOL    HW237981  10.148   3.981   6.156
45362SOL     OW37982   8.900   3.316   5.268
45362SOL    HW137983   8.868   3.401   5.299
45362SOL    HW237984   8.864   3.308   5.180
45363SOL     OW37985  12.854   5.702  12.057
45363SOL    HW137986  12.858   5.790  12.095
45363SOL    HW237987  12.786   5.709  11.989
45364SOL     OW37988   7.832  14.766  14.268
45364SOL    HW137989   7.886  14.818  14.328
45364SOL    HW237990   7.847  14.805  14.182
45365SOL     OW37991   4.564   1.421   7.876
45365SOL    HW137992   4.616   1.496   7.904
45365SOL    HW237993   4.504   1.457   7.810
45366SOL     OW37994  10.653  14.336  13.890
45366SOL    HW137995  10.733  14.287  13.908
45366SOL    HW237996  10.582  14.279  13.919
45367SOL     OW37997   4.189   1.368  10.928
45367SOL    HW137998   4.185   1.358  11.024
45367SOL    HW237999   4.254   1.304  10.900
45368SOL     OW38000   2.329   1.993   3.871
45368SOL    HW138001   2.403   2.053   3.863
45368SOL    HW238002   2.289   2.017   3.955
45369SOL     OW38003   4.130  14.299   3.358
45369SOL    HW138004   4.134  14.313   3.264
45369SOL    HW238005   4.071  14.367   3.390
45370SOL     OW38006   7.598   2.041  14.469
45370SOL    HW138007   7.566   1.953  14.453
45370SOL    HW238008   7.597   2.050  14.565
45371SOL     OW38009   1.037   5.307   8.875
45371SOL    HW138010   1.090   5.229   8.890
45371SOL    HW238011   0.951   5.274   8.851
45372SOL     OW38012  14.442   5.765  11.383
45372SOL    HW138013  14.369   5.816  11.348
45372SOL    HW238014  14.405   5.720  11.460
45373SOL     OW38015   6.533   8.126   4.243
45373SOL    HW138016   6.557   8.210   4.204
45373SOL    HW238017   6.483   8.149   4.321
45374SOL     OW38018   8.902   6.535   3.241
45374SOL    HW138019   8.823   6.484   3.220
45374SOL    HW238020   8.896   6.553   3.334
45375SOL     OW38021   7.294  10.838   2.630
45375SOL    HW138022   7.261  10.748   2.622
45375SOL    HW238023   7.361  10.832   2.698
45376SOL     OW38024   3.531  14.143   6.670
45376SOL    HW138025   3.625  14.138   6.690
45376SOL    HW238026   3.522  14.225   6.622
45377SOL     OW38027  10.131   4.990   6.981
45377SOL    HW138028  10.122   4.937   7.060
45377SOL    HW238029  10.225   4.997   6.968
45378SOL     OW38030  13.576   9.363  10.306
45378SOL    HW138031  13.559   9.413  10.386
45378SOL    HW238032  13.576   9.271  10.334
45379SOL     OW38033   1.686   7.913   7.308
45379SOL    HW138034   1.596   7.894   7.281
45379SOL    HW238035   1.718   7.830   7.343
45380SOL     OW38036   3.986   6.934   4.049
45380SOL    HW138037   4.032   6.964   3.971
45380SOL    HW238038   3.896   6.961   4.036
45381SOL     OW38039  10.299  14.141   7.096
45381SOL    HW138040  10.248  14.110   7.021
45381SOL    HW238041  10.375  14.184   7.058
45382SOL     OW38042   1.374   7.370   3.142
45382SOL    HW138043   1.395   7.455   3.103
45382SOL    HW238044   1.451   7.347   3.194
45383SOL     OW38045  13.263   9.207  11.792
45383SOL    HW138046  13.195   9.157  11.837
45383SOL    HW238047  13.280   9.282  11.848
45384SOL     OW38048   4.638   1.214   4.034
45384SOL    HW138049   4.687   1.295   4.047
45384SOL    HW238050   4.675   1.176   3.954
45385SOL     OW38051   9.231  13.117  10.865
45385SOL    HW138052   9.185  13.181  10.811
45385SOL    HW238053   9.239  13.159  10.950
45386SOL     OW38054   2.944   7.951  14.290
45386SOL    HW138055   2.960   8.045  14.298
45386SOL    HW238056   2.903   7.926  14.373
45387SOL     OW38057   1.072  14.409  14.607
45387SOL    HW138058   0.990  14.395  14.655
45387SOL    HW238059   1.060  14.361  14.525
45388SOL     OW38060  13.262   8.460   5.141
45388SOL    HW138061  13.229   8.386   5.192
45388SOL    HW238062  13.298   8.421   5.062
45389SOL     OW38063   4.610   0.867  11.576
45389SOL    HW138064   4.564   0.785  11.592
45389SOL    HW238065   4.628   0.866  11.482
45390SOL     OW38066  13.708  13.752   0.634
45390SOL    HW138067  13.629  13.707   0.605
45390SOL    HW238068  13.676  13.833   0.675
45391SOL     OW38069   8.044  11.705  12.889
45391SOL    HW138070   8.064  11.725  12.798
45391SOL    HW238071   8.115  11.647  12.917
45392SOL     OW38072   0.697  10.928   7.857
45392SOL    HW138073   0.736  11.013   7.878
45392SOL    HW238074   0.635  10.912   7.928
45393SOL     OW38075  11.749  10.280   8.634
45393SOL    HW138076  11.683  10.246   8.573
45393SOL    HW238077  11.793  10.349   8.585
45394SOL     OW38078  10.992   8.456   1.364
45394SOL    HW138079  10.915   8.512   1.377
45394SOL    HW238080  11.065   8.517   1.359
45395SOL     OW38081   5.054   3.359   7.217
45395SOL    HW138082   5.063   3.454   7.206
45395SOL    HW238083   5.140   3.331   7.248
45396SOL     OW38084   4.671   4.291  13.745
45396SOL    HW138085   4.722   4.284  13.664
45396SOL    HW238086   4.737   4.284  13.815
45397SOL     OW38087   0.421  12.531   2.352
45397SOL    HW138088   0.376  12.536   2.436
45397SOL    HW238089   0.510  12.504   2.374
45398SOL     OW38090  14.826   2.620   5.715
45398SOL    HW138091   0.039   2.665   5.720
45398SOL    HW238092  14.814   2.583   5.802
45399SOL     OW38093  10.042   4.730  12.337
45399SOL    HW138094   9.965   4.776  12.303
45399SOL    HW238095  10.116   4.784  12.310
45400SOL     OW38096  14.674   2.550  10.085
45400SOL    HW138097  14.634   2.472  10.123
45400SOL    HW238098  14.611   2.620  10.103
45401SOL     OW38099   9.343   9.217   9.924
45401SOL    HW138100   9.371   9.233  10.014
45401SOL    HW238101   9.310   9.301   9.894
45402SOL     OW38102  14.316   0.428  11.744
45402SOL    HW138103  14.391   0.461  11.793
45402SOL    HW238104  14.280   0.358  11.799
45403SOL     OW38105  11.140  13.557  10.141
45403SOL    HW138106  11.210  13.620  10.124
45403SOL    HW238107  11.180  13.491  10.197
45404SOL     OW38108   2.195   5.069   0.721
45404SOL    HW138109   2.162   5.049   0.808
45404SOL    HW238110   2.138   5.140   0.690
45405SOL     OW38111   5.503   4.774   9.085
45405SOL    HW138112   5.542   4.849   9.130
45405SOL    HW238113   5.575   4.736   9.035
45406SOL     OW38114  14.413   8.019   8.622
45406SOL    HW138115  14.436   7.932   8.589
45406SOL    HW238116  14.404   8.007   8.717
45407SOL     OW38117   5.206   6.583  12.845
45407SOL    HW138118   5.274   6.570  12.911
45407SOL    HW238119   5.124   6.564  12.892
45408SOL     OW38120   8.553   5.721  11.607
45408SOL    HW138121   8.488   5.691  11.544
45408SOL    HW238122   8.602   5.642  11.631
45409SOL     OW38123   3.722   4.281   0.709
45409SOL    HW138124   3.631   4.294   0.735
45409SOL    HW238125   3.770   4.273   0.791
45410SOL     OW38126   8.955   8.313  14.604
45410SOL    HW138127   9.011   8.255  14.655
45410SOL    HW238128   8.875   8.263  14.589
45411SOL     OW38129   3.032   3.684   4.031
45411SOL    HW138130   3.060   3.633   4.107
45411SOL    HW238131   3.113   3.724   3.999
45412SOL     OW38132  12.452   3.504   2.212
45412SOL    HW138133  12.403   3.474   2.288
45412SOL    HW238134  12.539   3.464   2.221
45413SOL     OW38135   5.001  11.970   9.872
45413SOL    HW138136   5.008  12.050   9.820
45413SOL    HW238137   5.019  11.997   9.962
45414SOL     OW38138   2.684   6.215   5.978
45414SOL    HW138139   2.595   6.211   6.014
45414SOL    HW238140   2.740   6.236   6.053
45415SOL     OW38141   2.958  13.792  11.285
45415SOL    HW138142   2.868  13.799  11.253
45415SOL    HW238143   2.995  13.879  11.271
45416SOL     OW38144  11.185   5.960  10.924
45416SOL    HW138145  11.139   6.042  10.944
45416SOL    HW238146  11.196   5.917  11.009
45417SOL     OW38147   7.058   4.645   6.509
45417SOL    HW138148   7.122   4.655   6.580
45417SOL    HW238149   7.110   4.651   6.429
45418SOL     OW38150  14.869  11.974  14.334
45418SOL    HW138151  14.807  12.035  14.296
45418SOL    HW238152  14.816  11.917  14.390
45419SOL     OW38153  10.786   9.545   8.238
45419SOL    HW138154  10.724   9.492   8.188
45419SOL    HW238155  10.741   9.562   8.321
45420SOL     OW38156   4.710   9.639  12.181
45420SOL    HW138157   4.751   9.657  12.265
45420SOL    HW238158   4.768   9.575  12.139
45421SOL     OW38159  10.277   0.168  13.027
45421SOL    HW138160  10.309   0.249  13.066
45421SOL    HW238161  10.213   0.196  12.961
45422SOL     OW38162  11.639   6.202   4.500
45422SOL    HW138163  11.629   6.119   4.547
45422SOL    HW238164  11.655   6.267   4.570
45423SOL     OW38165   1.146  14.476   3.952
45423SOL    HW138166   1.189  14.400   3.914
45423SOL    HW238167   1.185  14.551   3.906
45424SOL     OW38168   5.915   4.995   8.398
45424SOL    HW138169   5.851   4.959   8.337
45424SOL    HW238170   5.995   4.944   8.382
45425SOL     OW38171   1.187  10.291   8.009
45425SOL    HW138172   1.212  10.368   7.957
45425SOL    HW238173   1.100  10.312   8.043
45426SOL     OW38174   2.639   6.672  11.964
45426SOL    HW138175   2.687   6.620  11.900
45426SOL    HW238176   2.585   6.731  11.911
45427SOL     OW38177  12.848   9.627   8.988
45427SOL    HW138178  12.888   9.677   9.059
45427SOL    HW238179  12.920   9.573   8.954
45428SOL     OW38180   2.949   0.339   9.865
45428SOL    HW138181   3.014   0.405   9.844
45428SOL    HW238182   2.989   0.287   9.934
45429SOL     OW38183  10.988   0.892  11.851
45429SOL    HW138184  11.028   0.817  11.896
45429SOL    HW238185  10.901   0.861  11.827
45430SOL     OW38186  12.743  13.464   8.321
45430SOL    HW138187  12.687  13.499   8.390
45430SOL    HW238188  12.693  13.390   8.285
45431SOL     OW38189   9.907   4.373   1.607
45431SOL    HW138190   9.849   4.298   1.623
45431SOL    HW238191   9.910   4.381   1.512
45432SOL     OW38192  10.311  10.988   6.077
45432SOL    HW138193  10.267  10.929   6.016
45432SOL    HW238194  10.307  10.942   6.161
45433SOL     OW38195   0.562   6.235  12.100
45433SOL    HW138196   0.495   6.279  12.152
45433SOL    HW238197   0.566   6.146  12.136
45434SOL     OW38198  11.619   2.426   4.886
45434SOL    HW138199  11.643   2.467   4.969
45434SOL    HW238200  11.552   2.361   4.909
45435SOL     OW38201   7.200   9.568   4.510
45435SOL    HW138202   7.252   9.551   4.431
45435SOL    HW238203   7.156   9.485   4.527
45436SOL     OW38204   3.615   0.536   8.657
45436SOL    HW138205   3.550   0.534   8.726
45436SOL    HW238206   3.696   0.507   8.699
45437SOL     OW38207  11.775   2.985   9.224
45437SOL    HW138208  11.748   3.042   9.297
45437SOL    HW238209  11.696   2.972   9.173
45438SOL     OW38210   2.013  13.754  14.188
45438SOL    HW138211   1.939  13.769  14.246
45438SOL    HW238212   1.984  13.685  14.128
45439SOL     OW38213   8.807   7.786   0.407
45439SOL    HW138214   8.749   7.856   0.437
45439SOL    HW238215   8.750   7.710   0.399
45440SOL     OW38216  11.363  12.983  13.150
45440SOL    HW138217  11.384  12.913  13.212
45440SOL    HW238218  11.367  13.063  13.202
45441SOL     OW38219   4.871   8.949   6.796
45441SOL    HW138220   4.848   9.011   6.727
45441SOL    HW238221   4.896   9.004   6.870
45442SOL     OW38222   0.031   3.653   8.947
45442SOL    HW138223   0.034   3.627   9.039
45442SOL    HW238224  14.810   3.673   8.931
45443SOL     OW38225   6.559  12.506   0.238
45443SOL    HW138226   6.604  12.590   0.228
45443SOL    HW238227   6.484  12.512   0.178
45444SOL     OW38228   9.222   5.992   9.967
45444SOL    HW138229   9.245   5.934  10.039
45444SOL    HW238230   9.146   5.951   9.926
45445SOL     OW38231   2.530   1.356  14.691
45445SOL    HW138232   2.533   1.260  14.683
45445SOL    HW238233   2.607   1.387  14.644
45446SOL     OW38234   8.781   5.559   1.772
45446SOL    HW138235   8.794   5.595   1.684
45446SOL    HW238236   8.808   5.629   1.831
45447SOL     OW38237   9.966   7.639   8.532
45447SOL    HW138238  10.024   7.640   8.607
45447SOL    HW238239   9.900   7.706   8.550
45448SOL     OW38240  13.651  12.554  11.325
45448SOL    HW138241  13.739  12.590  11.339
45448SOL    HW238242  13.651  12.528  11.233
45449SOL     OW38243  14.138   7.745   3.722
45449SOL    HW138244  14.198   7.778   3.656
45449SOL    HW238245  14.086   7.821   3.747
45450SOL     OW38246   7.974   6.822   0.946
45450SOL    HW138247   8.009   6.903   0.982
45450SOL    HW238248   7.914   6.850   0.877
45451SOL     OW38249  14.225   6.343   5.126
45451SOL    HW138250  14.240   6.424   5.175
45451SOL    HW238251  14.134   6.321   5.143
45452SOL     OW38252   4.244   1.784   1.887
45452SOL    HW138253   4.244   1.879   1.881
45452SOL    HW238254   4.241   1.754   1.796
45453SOL     OW38255  13.539   8.474   7.478
45453SOL    HW138256  13.599   8.536   7.519
45453SOL    HW238257  13.453   8.517   7.486
45454SOL     OW38258   3.997   4.836   6.445
45454SOL    HW138259   4.089   4.849   6.468
45454SOL    HW238260   3.983   4.742   6.456
45455SOL     OW38261   5.706   1.001  12.707
45455SOL    HW138262   5.615   0.990  12.734
45455SOL    HW238263   5.757   0.977  12.785
45456SOL     OW38264   4.128  12.446   7.865
45456SOL    HW138265   4.166  12.526   7.829
45456SOL    HW238266   4.172  12.375   7.819
45457SOL     OW38267  11.342  11.543   5.894
45457SOL    HW138268  11.290  11.619   5.868
45457SOL    HW238269  11.278  11.472   5.903
45458SOL     OW38270   2.198   4.768   5.168
45458SOL    HW138271   2.181   4.681   5.202
45458SOL    HW238272   2.111   4.804   5.149
45459SOL     OW38273   9.952   1.056  14.279
45459SOL    HW138274  10.007   1.022  14.349
45459SOL    HW238275  10.006   1.123  14.236
45460SOL     OW38276   7.155   6.584   3.688
45460SOL    HW138277   7.237   6.603   3.641
45460SOL    HW238278   7.172   6.502   3.734
45461SOL     OW38279   2.547   7.985  11.299
45461SOL    HW138280   2.493   8.055  11.262
45461SOL    HW238281   2.631   7.993  11.254
45462SOL     OW38282  10.817   0.818   9.670
45462SOL    HW138283  10.788   0.757   9.738
45462SOL    HW238284  10.896   0.778   9.634
45463SOL     OW38285   7.968  11.822   0.823
45463SOL    HW138286   7.942  11.737   0.789
45463SOL    HW238287   8.053  11.808   0.863
45464SOL     OW38288   4.567   0.986   4.160
45464SOL    HW138289   4.580   1.077   4.133
45464SOL    HW238290   4.486   0.959   4.115
45465SOL     OW38291   1.834   1.388   5.119
45465SOL    HW138292   1.836   1.484   5.127
45465SOL    HW238293   1.879   1.357   5.198
45466SOL     OW38294   1.381   0.685   1.082
45466SOL    HW138295   1.454   0.730   1.126
45466SOL    HW238296   1.318   0.754   1.064
45467SOL     OW38297   7.485   3.578  11.305
45467SOL    HW138298   7.449   3.585  11.394
45467SOL    HW238299   7.411   3.596  11.247
45468SOL     OW38300  12.781   3.924  12.743
45468SOL    HW138301  12.714   3.876  12.792
45468SOL    HW238302  12.831   3.971  12.810
45469SOL     OW38303   7.000  13.356   2.147
45469SOL    HW138304   7.049  13.432   2.179
45469SOL    HW238305   6.924  13.351   2.205
45470SOL     OW38306   0.247   0.816   9.341
45470SOL    HW138307   0.302   0.779   9.410
45470SOL    HW238308   0.308   0.846   9.274
45471SOL     OW38309   8.295   8.876  10.522
45471SOL    HW138310   8.378   8.923  10.529
45471SOL    HW238311   8.293   8.821  10.601
45472SOL     OW38312   3.854   8.455   6.192
45472SOL    HW138313   3.893   8.391   6.132
45472SOL    HW238314   3.900   8.440   6.275
45473SOL     OW38315  13.041  13.929  13.692
45473SOL    HW138316  13.048  13.889  13.779
45473SOL    HW238317  13.083  14.014  13.701
45474SOL     OW38318   4.509   3.493  12.547
45474SOL    HW138319   4.603   3.479  12.540
45474SOL    HW238320   4.496   3.522  12.637
45475SOL     OW38321   8.782   3.960   7.660
45475SOL    HW138322   8.793   3.881   7.606
45475SOL    HW238323   8.778   4.032   7.597
45476SOL     OW38324  11.600   6.899   1.151
45476SOL    HW138325  11.579   6.871   1.062
45476SOL    HW238326  11.523   6.874   1.203
45477SOL     OW38327  12.581  11.536   0.739
45477SOL    HW138328  12.676  11.528   0.741
45477SOL    HW238329  12.561  11.591   0.815
45478SOL     OW38330  14.630  10.360   1.915
45478SOL    HW138331  14.634  10.453   1.894
45478SOL    HW238332  14.562  10.353   1.982
45479SOL     OW38333   6.513   4.375   7.704
45479SOL    HW138334   6.537   4.411   7.790
45479SOL    HW238335   6.434   4.325   7.720
45480SOL     OW38336   5.332   0.559  10.708
45480SOL    HW138337   5.379   0.623  10.656
45480SOL    HW238338   5.377   0.476  10.691
45481SOL     OW38339  11.505   8.431  10.768
45481SOL    HW138340  11.422   8.390  10.742
45481SOL    HW238341  11.570   8.363  10.756
45482SOL     OW38342  11.420   3.931   9.172
45482SOL    HW138343  11.412   3.868   9.100
45482SOL    HW238344  11.449   4.012   9.131
45483SOL     OW38345  11.679   9.253   2.823
45483SOL    HW138346  11.739   9.224   2.755
45483SOL    HW238347  11.707   9.205   2.902
45484SOL     OW38348   1.092   4.125   6.995
45484SOL    HW138349   1.118   4.033   6.987
45484SOL    HW238350   1.121   4.149   7.084
45485SOL     OW38351  10.737   8.668  13.965
45485SOL    HW138352  10.784   8.614  14.028
45485SOL    HW238353  10.713   8.608  13.894
45486SOL     OW38354  12.557  11.906   8.903
45486SOL    HW138355  12.641  11.859   8.904
45486SOL    HW238356  12.494  11.840   8.874
45487SOL     OW38357  14.472   4.909   9.268
45487SOL    HW138358  14.467   4.979   9.333
45487SOL    HW238359  14.566   4.898   9.251
45488SOL     OW38360  10.455  12.440   7.100
45488SOL    HW138361  10.395  12.372   7.132
45488SOL    HW238362  10.398  12.512   7.074
45489SOL     OW38363  14.348  12.498   7.826
45489SOL    HW138364  14.422  12.481   7.884
45489SOL    HW238365  14.339  12.418   7.775
45490SOL     OW38366   4.698  12.277   9.911
45490SOL    HW138367   4.769  12.269   9.975
45490SOL    HW238368   4.675  12.370   9.913
45491SOL     OW38369   0.515   8.802  12.132
45491SOL    HW138370   0.586   8.754  12.175
45491SOL    HW238371   0.559   8.850  12.062
45492SOL     OW38372   2.887   8.450   5.514
45492SOL    HW138373   2.983   8.449   5.509
45492SOL    HW238374   2.868   8.497   5.596
45493SOL     OW38375   8.204  13.157  12.284
45493SOL    HW138376   8.124  13.185  12.328
45493SOL    HW238377   8.181  13.154  12.191
45494SOL     OW38378  11.320  11.291   8.750
45494SOL    HW138379  11.373  11.358   8.707
45494SOL    HW238380  11.251  11.340   8.795
45495SOL     OW38381   3.373   6.155  10.291
45495SOL    HW138382   3.284   6.119  10.284
45495SOL    HW238383   3.363   6.233  10.345
45496SOL     OW38384   1.479   3.359   7.901
45496SOL    HW138385   1.452   3.378   7.991
45496SOL    HW238386   1.430   3.422   7.848
45497SOL     OW38387  10.442   6.076  13.691
45497SOL    HW138388  10.508   6.057  13.758
45497SOL    HW238389  10.465   6.019  13.618
45498SOL     OW38390  11.521   2.379   0.329
45498SOL    HW138391  11.449   2.409   0.384
45498SOL    HW238392  11.563   2.309   0.379
45499SOL     OW38393  12.585  10.316   5.897
45499SOL    HW138394  12.545  10.306   5.983
45499SOL    HW238395  12.521  10.368   5.847
45500SOL     OW38396   5.445   4.535   5.267
45500SOL    HW138397   5.407   4.506   5.184
45500SOL    HW238398   5.514   4.596   5.242
45501SOL     OW38399   3.238   2.793  10.626
45501SOL    HW138400   3.243   2.732  10.700
45501SOL    HW238401   3.248   2.737  10.548
45502SOL     OW38402  14.247   7.790   8.046
45502SOL    HW138403  14.247   7.865   8.106
45502SOL    HW238404  14.334   7.790   8.007
45503SOL     OW38405  10.229   4.378   5.557
45503SOL    HW138406  10.241   4.423   5.640
45503SOL    HW238407  10.135   4.364   5.550
45504SOL     OW38408   8.287   0.313  13.118
45504SOL    HW138409   8.336   0.233  13.139
45504SOL    HW238410   8.209   0.309  13.174
45505SOL     OW38411  10.223   4.867   9.233
45505SOL    HW138412  10.225   4.851   9.327
45505SOL    HW238413  10.249   4.784   9.194
45506SOL     OW38414  10.077   3.529   0.315
45506SOL    HW138415  10.163   3.488   0.316
45506SOL    HW238416  10.017   3.459   0.341
45507SOL     OW38417   5.585  10.920  12.106
45507SOL    HW138418   5.668  10.887  12.073
45507SOL    HW238419   5.599  11.014  12.118
45508SOL     OW38420   8.522  10.808  14.648
45508SOL    HW138421   8.469  10.738  14.687
45508SOL    HW238422   8.585  10.831  14.716
45509SOL     OW38423   1.279   8.049  12.346
45509SOL    HW138424   1.234   8.109  12.406
45509SOL    HW238425   1.366   8.086  12.335
45510SOL     OW38426   4.432  12.221  10.775
45510SOL    HW138427   4.437  12.311  10.805
45510SOL    HW238428   4.499  12.174  10.825
45511SOL     OW38429   3.783   6.419   8.231
45511SOL    HW138430   3.703   6.416   8.179
45511SOL    HW238431   3.854   6.406   8.167
45512SOL     OW38432   2.171   1.798   7.479
45512SOL    HW138433   2.101   1.824   7.419
45512SOL    HW238434   2.250   1.836   7.441
45513SOL     OW38435   3.130  13.125   0.624
45513SOL    HW138436   3.052  13.082   0.658
45513SOL    HW238437   3.167  13.171   0.700
45514SOL     OW38438   4.101   2.209  14.350
45514SOL    HW138439   4.072   2.141  14.410
45514SOL    HW238440   4.034   2.212  14.281
45515SOL     OW38441  10.823   2.509  10.604
45515SOL    HW138442  10.876   2.573  10.556
45515SOL    HW238443  10.886   2.452  10.648
45516SOL     OW38444  13.072   5.303   8.880
45516SOL    HW138445  13.120   5.221   8.893
45516SOL    HW238446  13.133   5.371   8.910
45517SOL     OW38447   9.421   5.308  13.015
45517SOL    HW138448   9.514   5.290  13.029
45517SOL    HW238449   9.416   5.338  12.924
45518SOL     OW38450   0.364   7.104   7.684
45518SOL    HW138451   0.324   7.113   7.597
45518SOL    HW238452   0.305   7.152   7.742
45519SOL     OW38453  12.592   2.930   0.491
45519SOL    HW138454  12.527   2.888   0.435
45519SOL    HW238455  12.541   2.984   0.551
45520SOL     OW38456   3.818   1.118   4.708
45520SOL    HW138457   3.779   1.185   4.653
45520SOL    HW238458   3.856   1.055   4.647
45521SOL     OW38459   9.034   7.528  12.852
45521SOL    HW138460   9.079   7.613  12.853
45521SOL    HW238461   9.013   7.513  12.760
45522SOL     OW38462   0.293   0.526  12.546
45522SOL    HW138463   0.258   0.520  12.458
45522SOL    HW238464   0.285   0.437  12.581
45523SOL     OW38465  10.261   1.334   6.888
45523SOL    HW138466  10.247   1.341   6.793
45523SOL    HW238467  10.354   1.314   6.897
45524SOL     OW38468  14.560   1.658   5.550
45524SOL    HW138469  14.551   1.609   5.468
45524SOL    HW238470  14.613   1.734   5.527
45525SOL     OW38471   0.525   1.552  11.640
45525SOL    HW138472   0.500   1.632  11.595
45525SOL    HW238473   0.621   1.552  11.637
45526SOL     OW38474   0.836   1.750  13.967
45526SOL    HW138475   0.832   1.655  13.954
45526SOL    HW238476   0.894   1.781  13.898
45527SOL     OW38477   0.333   7.811  11.072
45527SOL    HW138478   0.417   7.836  11.112
45527SOL    HW238479   0.269   7.870  11.111
45528SOL     OW38480  14.432   4.106   6.253
45528SOL    HW138481  14.371   4.135   6.320
45528SOL    HW238482  14.377   4.073   6.182
45529SOL     OW38483   2.591   7.472   6.022
45529SOL    HW138484   2.630   7.550   6.061
45529SOL    HW238485   2.599   7.486   5.928
45530SOL     OW38486   8.873   5.854   7.103
45530SOL    HW138487   8.779   5.868   7.114
45530SOL    HW238488   8.881   5.763   7.075
45531SOL     OW38489  13.355   0.784   6.215
45531SOL    HW138490  13.292   0.795   6.144
45531SOL    HW238491  13.325   0.845   6.283
45532SOL     OW38492   1.671   7.281   3.659
45532SOL    HW138493   1.763   7.306   3.668
45532SOL    HW238494   1.654   7.289   3.565
45533SOL     OW38495   3.502   7.455   7.784
45533SOL    HW138496   3.493   7.532   7.728
45533SOL    HW238497   3.534   7.490   7.868
45534SOL     OW38498  13.632   7.442   1.400
45534SOL    HW138499  13.651   7.519   1.346
45534SOL    HW238500  13.669   7.369   1.351
45535SOL     OW38501   9.368  11.397   4.262
45535SOL    HW138502   9.390  11.483   4.226
45535SOL    HW238503   9.273  11.397   4.269
45536SOL     OW38504   4.589   9.933  12.648
45536SOL    HW138505   4.504   9.929  12.692
45536SOL    HW238506   4.594   9.852  12.597
45537SOL     OW38507   1.395   4.210   0.977
45537SOL    HW138508   1.379   4.205   1.072
45537SOL    HW238509   1.459   4.141   0.960
45538SOL     OW38510   6.742  14.179  11.973
45538SOL    HW138511   6.686  14.206  12.045
45538SOL    HW238512   6.706  14.095  11.944
45539SOL     OW38513   4.144  10.532  13.099
45539SOL    HW138514   4.120  10.604  13.158
45539SOL    HW238515   4.140  10.570  13.012
45540SOL     OW38516   0.422   3.662   8.419
45540SOL    HW138517   0.412   3.638   8.326
45540SOL    HW238518   0.450   3.753   8.417
45541SOL     OW38519   2.519   5.836   1.792
45541SOL    HW138520   2.528   5.908   1.853
45541SOL    HW238521   2.455   5.778   1.832
45542SOL     OW38522  14.081   5.382  10.513
45542SOL    HW138523  14.014   5.431  10.560
45542SOL    HW238524  14.099   5.306  10.568
45543SOL     OW38525  11.386  13.925  11.539
45543SOL    HW138526  11.405  13.844  11.492
45543SOL    HW238527  11.408  13.906  11.630
45544SOL     OW38528   9.875  12.053   4.371
45544SOL    HW138529   9.882  12.148   4.380
45544SOL    HW238530   9.786  12.039   4.338
45545SOL     OW38531  11.129   9.220  13.404
45545SOL    HW138532  11.070   9.287  13.369
45545SOL    HW238533  11.167   9.179  13.327
45546SOL     OW38534   5.775  14.584   1.223
45546SOL    HW138535   5.737  14.659   1.268
45546SOL    HW238536   5.862  14.614   1.196
45547SOL     OW38537   6.199   0.433  11.400
45547SOL    HW138538   6.169   0.347  11.369
45547SOL    HW238539   6.191   0.489  11.323
45548SOL     OW38540   3.712   7.027   8.571
45548SOL    HW138541   3.663   6.998   8.494
45548SOL    HW238542   3.781   6.962   8.582
45549SOL     OW38543  10.885  14.173  10.134
45549SOL    HW138544  10.945  14.122  10.079
45549SOL    HW238545  10.916  14.263  10.126
45550SOL     OW38546   9.462   0.293  11.886
45550SOL    HW138547   9.501   0.374  11.916
45550SOL    HW238548   9.461   0.300  11.791
45551SOL     OW38549   4.823  13.764  12.048
45551SOL    HW138550   4.919  13.773  12.048
45551SOL    HW238551   4.793  13.835  11.990
45552SOL     OW38552  13.791   3.107   8.194
45552SOL    HW138553  13.810   3.134   8.104
45552SOL    HW238554  13.697   3.088   8.193
45553SOL     OW38555  13.481   6.257  11.051
45553SOL    HW138556  13.388   6.236  11.050
45553SOL    HW238557  13.525   6.173  11.065
45554SOL     OW38558   4.692   0.665  11.231
45554SOL    HW138559   4.771   0.678  11.283
45554SOL    HW238560   4.627   0.723  11.271
45555SOL     OW38561   4.804  12.030   4.858
45555SOL    HW138562   4.880  12.084   4.880
45555SOL    HW238563   4.818  11.949   4.906
45556SOL     OW38564  13.709   5.995  10.174
45556SOL    HW138565  13.777   5.986  10.107
45556SOL    HW238566  13.627   6.000  10.124
45557SOL     OW38567   1.519   5.428   8.618
45557SOL    HW138568   1.573   5.350   8.606
45557SOL    HW238569   1.515   5.440   8.713
45558SOL     OW38570   2.977  10.266   3.559
45558SOL    HW138571   2.904  10.215   3.524
45558SOL    HW238572   3.049  10.204   3.567
45559SOL     OW38573   3.666  10.006   4.103
45559SOL    HW138574   3.588   9.953   4.087
45559SOL    HW238575   3.633  10.089   4.138
45560SOL     OW38576   8.921   0.897   8.389
45560SOL    HW138577   9.010   0.930   8.402
45560SOL    HW238578   8.907   0.902   8.294
45561SOL     OW38579   4.068  11.999   4.242
45561SOL    HW138580   4.114  11.941   4.181
45561SOL    HW238581   4.091  11.965   4.328
45562SOL     OW38582   0.741  12.591   1.508
45562SOL    HW138583   0.693  12.517   1.544
45562SOL    HW238584   0.675  12.643   1.463
45563SOL     OW38585   6.233   6.889   0.944
45563SOL    HW138586   6.227   6.806   0.897
45563SOL    HW238587   6.158   6.889   1.004
45564SOL     OW38588   5.357   8.957   5.211
45564SOL    HW138589   5.316   8.930   5.129
45564SOL    HW238590   5.350   9.052   5.211
45565SOL     OW38591   2.104   0.615   4.194
45565SOL    HW138592   2.026   0.602   4.247
45565SOL    HW238593   2.173   0.635   4.258
45566SOL     OW38594   2.355   4.199   2.973
45566SOL    HW138595   2.440   4.154   2.973
45566SOL    HW238596   2.370   4.276   3.028
45567SOL     OW38597  10.048  13.063   1.782
45567SOL    HW138598   9.991  13.063   1.705
45567SOL    HW238599  10.083  13.152   1.786
45568SOL     OW38600   8.148   8.531   0.513
45568SOL    HW138601   8.061   8.493   0.525
45568SOL    HW238602   8.134   8.625   0.520
45569SOL     OW38603   2.658  12.690   9.564
45569SOL    HW138604   2.673  12.618   9.624
45569SOL    HW238605   2.569  12.718   9.581
45570SOL     OW38606   0.841  11.629   9.617
45570SOL    HW138607   0.797  11.550   9.648
45570SOL    HW238608   0.817  11.697   9.681
45571SOL     OW38609  10.688   0.830  10.768
45571SOL    HW138610  10.651   0.769  10.831
45571SOL    HW238611  10.758   0.781  10.726
45572SOL     OW38612   1.568   9.534  10.110
45572SOL    HW138613   1.620   9.566  10.036
45572SOL    HW238614   1.564   9.608  10.171
45573SOL     OW38615   0.830  11.340  11.067
45573SOL    HW138616   0.897  11.366  11.130
45573SOL    HW238617   0.785  11.266  11.109
45574SOL     OW38618  13.602  14.738  12.154
45574SOL    HW138619  13.543  14.810  12.177
45574SOL    HW238620  13.595  14.731  12.059
45575SOL     OW38621   2.614   2.757  10.102
45575SOL    HW138622   2.555   2.687  10.074
45575SOL    HW238623   2.667   2.776  10.025
45576SOL     OW38624   6.599  10.079   8.581
45576SOL    HW138625   6.564  10.105   8.666
45576SOL    HW238626   6.628   9.989   8.593
45577SOL     OW38627   9.246   6.832   5.495
45577SOL    HW138628   9.280   6.819   5.583
45577SOL    HW238629   9.219   6.924   5.493
45578SOL     OW38630  14.316   3.688   4.328
45578SOL    HW138631  14.266   3.768   4.344
45578SOL    HW238632  14.255   3.618   4.352
45579SOL     OW38633  12.013  14.510   5.493
45579SOL    HW138634  12.081  14.453   5.458
45579SOL    HW238635  11.946  14.449   5.526
45580SOL     OW38636   8.712   0.440  12.305
45580SOL    HW138637   8.742   0.528  12.325
45580SOL    HW238638   8.736   0.388  12.382
45581SOL     OW38639   1.605  10.405  14.607
45581SOL    HW138640   1.569  10.491  14.629
45581SOL    HW238641   1.695  10.423  14.581
45582SOL     OW38642   6.226   4.000   5.482
45582SOL    HW138643   6.201   4.090   5.459
45582SOL    HW238644   6.145   3.950   5.475
45583SOL     OW38645  14.602  11.756   6.720
45583SOL    HW138646  14.679  11.699   6.728
45583SOL    HW238647  14.585  11.786   6.810
45584SOL     OW38648  11.415   3.273  14.131
45584SOL    HW138649  11.368   3.264  14.214
45584SOL    HW238650  11.498   3.229  14.146
45585SOL     OW38651   0.336  13.578   0.410
45585SOL    HW138652   0.367  13.613   0.493
45585SOL    HW238653   0.249  13.617   0.398
45586SOL     OW38654  14.448  14.532   6.196
45586SOL    HW138655  14.454  14.627   6.211
45586SOL    HW238656  14.534  14.499   6.220
45587SOL     OW38657   5.507  13.581  12.369
45587SOL    HW138658   5.550  13.663  12.345
45587SOL    HW238659   5.569  13.513  12.343
45588SOL     OW38660  10.817   4.367  12.400
45588SOL    HW138661  10.798   4.274  12.411
45588SOL    HW238662  10.784   4.407  12.481
45589SOL     OW38663   3.204   9.992  13.800
45589SOL    HW138664   3.138   9.995  13.870
45589SOL    HW238665   3.270   9.931  13.833
45590SOL     OW38666  12.135   8.915   2.015
45590SOL    HW138667  12.161   8.937   2.105
45590SOL    HW238668  12.191   8.969   1.959
45591SOL     OW38669  12.988  12.677   1.837
45591SOL    HW138670  12.978  12.772   1.834
45591SOL    HW238671  13.026  12.659   1.923
45592SOL     OW38672   9.602   9.530   8.063
45592SOL    HW138673   9.645   9.485   8.136
45592SOL    HW238674   9.539   9.466   8.029
45593SOL     OW38675   6.078  11.271   1.935
45593SOL    HW138676   6.089  11.212   1.861
45593SOL    HW238677   6.002  11.325   1.911
45594SOL     OW38678  12.118   8.382  14.336
45594SOL    HW138679  12.129   8.471  14.368
45594SOL    HW238680  12.203   8.358  14.300
45595SOL     OW38681   1.129   5.229  12.775
45595SOL    HW138682   1.081   5.199  12.697
45595SOL    HW238683   1.195   5.290  12.740
45596SOL     OW38684   9.561   0.719   2.872
45596SOL    HW138685   9.651   0.716   2.904
45596SOL    HW238686   9.523   0.797   2.914
45597SOL     OW38687   1.500   6.603   0.715
45597SOL    HW138688   1.478   6.523   0.667
45597SOL    HW238689   1.553   6.574   0.789
45598SOL     OW38690  10.737   4.981   8.846
45598SOL    HW138691  10.728   4.957   8.938
45598SOL    HW238692  10.678   5.056   8.835
45599SOL     OW38693  13.504   1.910   3.071
45599SOL    HW138694  13.476   1.861   3.148
45599SOL    HW238695  13.424   1.946   3.034
45600SOL     OW38696   4.161   8.124  14.664
45600SOL    HW138697   4.253   8.123  14.636
45600SOL    HW238698   4.114   8.081  14.594
45601SOL     OW38699  11.226   8.811   9.126
45601SOL    HW138700  11.207   8.718   9.138
45601SOL    HW238701  11.185   8.854   9.200
45602SOL     OW38702   3.608   3.175   1.610
45602SOL    HW138703   3.609   3.137   1.698
45602SOL    HW238704   3.593   3.269   1.626
45603SOL     OW38705  14.196   3.073   7.916
45603SOL    HW138706  14.108   3.035   7.922
45603SOL    HW238707  14.183   3.167   7.930
45604SOL     OW38708  14.767  11.544   3.873
45604SOL    HW138709  14.723  11.459   3.869
45604SOL    HW238710  14.755  11.581   3.786
45605SOL     OW38711  14.054  11.980  12.195
45605SOL    HW138712  14.041  12.063  12.240
45605SOL    HW238713  14.061  12.003  12.102
45606SOL     OW38714   8.196   0.462   4.278
45606SOL    HW138715   8.213   0.372   4.306
45606SOL    HW238716   8.259   0.478   4.208
45607SOL     OW38717  10.607  13.743  12.009
45607SOL    HW138718  10.690  13.733  11.964
45607SOL    HW238719  10.631  13.776  12.096
45608SOL     OW38720  14.816  11.478  11.698
45608SOL    HW138721  14.782  11.554  11.650
45608SOL    HW238722   0.031  11.464  11.660
45609SOL     OW38723  12.185   3.989   5.735
45609SOL    HW138724  12.097   3.973   5.701
45609SOL    HW238725  12.244   3.951   5.670
45610SOL     OW38726   5.328   0.926   5.194
45610SOL    HW138727   5.307   0.934   5.287
45610SOL    HW238728   5.262   0.866   5.159
45611SOL     OW38729  14.005   0.052   0.272
45611SOL    HW138730  14.035  14.834   0.260
45611SOL    HW238731  14.008   0.066   0.367
45612SOL     OW38732  12.839   1.271  10.006
45612SOL    HW138733  12.780   1.301  10.076
45612SOL    HW238734  12.918   1.243  10.052
45613SOL     OW38735  13.594   7.124   3.937
45613SOL    HW138736  13.584   7.159   4.025
45613SOL    HW238737  13.635   7.195   3.888
45614SOL     OW38738   4.111   0.377   6.718
45614SOL    HW138739   4.068   0.449   6.765
45614SOL    HW238740   4.076   0.298   6.758
45615SOL     OW38741  10.754   1.533   0.392
45615SOL    HW138742  10.691   1.461   0.382
45615SOL    HW238743  10.703   1.605   0.429
45616SOL     OW38744   6.093   4.346   6.338
45616SOL    HW138745   6.095   4.438   6.362
45616SOL    HW238746   6.057   4.345   6.249
45617SOL     OW38747   6.063  10.466   4.219
45617SOL    HW138748   6.005  10.392   4.238
45617SOL    HW238749   6.151  10.434   4.241
45618SOL     OW38750  11.151   1.575   2.818
45618SOL    HW138751  11.206   1.576   2.896
45618SOL    HW238752  11.212   1.561   2.745
45619SOL     OW38753  12.732   9.991   4.889
45619SOL    HW138754  12.686  10.017   4.969
45619SOL    HW238755  12.678   9.922   4.852
45620SOL     OW38756   7.020   5.962  12.937
45620SOL    HW138757   6.956   5.900  12.972
45620SOL    HW238758   7.085   5.907  12.894
45621SOL     OW38759   4.902   1.518   8.841
45621SOL    HW138760   4.834   1.586   8.845
45621SOL    HW238761   4.858   1.443   8.799
45622SOL     OW38762   5.350   5.806   6.809
45622SOL    HW138763   5.275   5.829   6.754
45622SOL    HW238764   5.409   5.758   6.751
45623SOL     OW38765   3.029  14.732   8.280
45623SOL    HW138766   2.992  14.820   8.285
45623SOL    HW238767   2.982  14.690   8.209
45624SOL     OW38768  14.629   9.061   5.306
45624SOL    HW138769  14.624   9.150   5.340
45624SOL    HW238770  14.713   9.055   5.262
45625SOL     OW38771   8.189   4.202  12.031
45625SOL    HW138772   8.241   4.282  12.042
45625SOL    HW238773   8.162   4.178  12.120
45626SOL     OW38774  10.233   7.781   9.079
45626SOL    HW138775  10.221   7.694   9.042
45626SOL    HW238776  10.307   7.818   9.030
45627SOL     OW38777   5.833  12.443   3.463
45627SOL    HW138778   5.876  12.426   3.379
45627SOL    HW238779   5.882  12.515   3.502
45628SOL     OW38780   3.747   5.011   4.502
45628SOL    HW138781   3.778   5.096   4.471
45628SOL    HW238782   3.769   4.950   4.432
45629SOL     OW38783   0.060  13.764  11.260
45629SOL    HW138784   0.113  13.823  11.314
45629SOL    HW238785   0.064  13.680  11.305
45630SOL     OW38786  11.065   9.274  12.196
45630SOL    HW138787  10.981   9.240  12.164
45630SOL    HW238788  11.128   9.253  12.127
45631SOL     OW38789   3.787  14.515   7.214
45631SOL    HW138790   3.827  14.599   7.236
45631SOL    HW238791   3.819  14.455   7.282
45632SOL     OW38792  12.979   1.702   0.202
45632SOL    HW138793  12.946   1.634   0.261
45632SOL    HW238794  13.069   1.676   0.183
45633SOL     OW38795   0.846  12.204   3.564
45633SOL    HW138796   0.905  12.245   3.502
45633SOL    HW238797   0.805  12.277   3.611
45634SOL     OW38798   3.251  14.639  10.193
45634SOL    HW138799   3.189  14.580  10.151
45634SOL    HW238800   3.331  14.588  10.202
45635SOL     OW38801   6.759  13.020   5.565
45635SOL    HW138802   6.835  13.056   5.520
45635SOL    HW238803   6.794  12.950   5.620
45636SOL     OW38804   6.282   8.729   0.259
45636SOL    HW138805   6.228   8.659   0.222
45636SOL    HW238806   6.232   8.809   0.243
45637SOL     OW38807  10.062  13.978   5.045
45637SOL    HW138808  10.108  13.977   4.962
45637SOL    HW238809  10.127  13.953   5.110
45638SOL     OW38810   7.835   7.863   9.001
45638SOL    HW138811   7.832   7.785   8.945
45638SOL    HW238812   7.866   7.933   8.943
45639SOL     OW38813  14.652   7.370   0.546
45639SOL    HW138814  14.694   7.453   0.568
45639SOL    HW238815  14.643   7.373   0.451
45640SOL     OW38816   7.071   9.648   5.944
45640SOL    HW138817   6.989   9.696   5.943
45640SOL    HW238818   7.119   9.683   6.019
45641SOL     OW38819   3.831   8.422   4.887
45641SOL    HW138820   3.811   8.430   4.980
45641SOL    HW238821   3.836   8.328   4.872
45642SOL     OW38822   2.516   4.684   3.099
45642SOL    HW138823   2.444   4.744   3.118
45642SOL    HW238824   2.573   4.733   3.040
45643SOL     OW38825   1.436   5.471  11.936
45643SOL    HW138826   1.477   5.386  11.919
45643SOL    HW238827   1.342   5.454  11.926
45644SOL     OW38828  10.104   3.195   4.271
45644SOL    HW138829  10.197   3.211   4.255
45644SOL    HW238830  10.059   3.245   4.202
45645SOL     OW38831  12.451  10.491  11.075
45645SOL    HW138832  12.541  10.473  11.048
45645SOL    HW238833  12.402  10.412  11.051
45646SOL     OW38834   6.442  11.326   7.933
45646SOL    HW138835   6.443  11.348   7.840
45646SOL    HW238836   6.534  11.331   7.961
45647SOL     OW38837   8.642  10.668  10.634
45647SOL    HW138838   8.671  10.758  10.617
45647SOL    HW238839   8.721  10.622  10.661
45648SOL     OW38840  12.441  11.397   0.221
45648SOL    HW138841  12.357  11.434   0.249
45648SOL    HW238842  12.430  11.302   0.230
45649SOL     OW38843   4.318   2.867   6.419
45649SOL    HW138844   4.225   2.845   6.421
45649SOL    HW238845   4.325   2.935   6.352
45650SOL     OW38846   3.702   9.437   8.394
45650SOL    HW138847   3.791   9.463   8.417
45650SOL    HW238848   3.680   9.491   8.318
45651SOL     OW38849  14.665   4.074   3.274
45651SOL    HW138850  14.583   4.033   3.302
45651SOL    HW238851  14.686   4.137   3.343
45652SOL     OW38852  12.461  11.955   2.873
45652SOL    HW138853  12.461  12.025   2.808
45652SOL    HW238854  12.532  11.979   2.934
45653SOL     OW38855  13.604   8.630   2.059
45653SOL    HW138856  13.616   8.703   2.120
45653SOL    HW238857  13.552   8.566   2.107
45654SOL     OW38858   3.093   6.077  10.332
45654SOL    HW138859   3.090   6.137  10.258
45654SOL    HW238860   3.008   6.088  10.375
45655SOL     OW38861   1.897  11.311  12.033
45655SOL    HW138862   1.829  11.375  12.014
45655SOL    HW238863   1.922  11.328  12.123
45656SOL     OW38864  10.193   6.218  13.994
45656SOL    HW138865  10.180   6.221  13.899
45656SOL    HW238866  10.286   6.238  14.006
45657SOL     OW38867  14.221   3.020   7.631
45657SOL    HW138868  14.218   3.049   7.722
45657SOL    HW238869  14.255   2.931   7.635
45658SOL     OW38870   3.673   1.344  11.883
45658SOL    HW138871   3.703   1.254  11.878
45658SOL    HW238872   3.587   1.344  11.841
45659SOL     OW38873   2.730   7.077   2.004
45659SOL    HW138874   2.638   7.050   2.002
45659SOL    HW238875   2.780   6.996   2.007
45660SOL     OW38876   4.172  10.517   4.882
45660SOL    HW138877   4.241  10.457   4.909
45660SOL    HW238878   4.154  10.494   4.791
45661SOL     OW38879   8.843   8.338   6.078
45661SOL    HW138880   8.750   8.356   6.094
45661SOL    HW238881   8.889   8.399   6.135
45662SOL     OW38882  14.587   6.407   3.769
45662SOL    HW138883  14.504   6.409   3.720
45662SOL    HW238884  14.568   6.355   3.847
45663SOL     OW38885   1.656   7.252   2.410
45663SOL    HW138886   1.605   7.318   2.456
45663SOL    HW238887   1.692   7.197   2.480
45664SOL     OW38888   9.212   2.930  10.691
45664SOL    HW138889   9.260   2.847  10.689
45664SOL    HW238890   9.269   2.991  10.738
45665SOL     OW38891   1.627  10.058  10.018
45665SOL    HW138892   1.692  10.035  10.084
45665SOL    HW238893   1.588   9.975   9.991
45666SOL     OW38894  13.009   9.423  14.785
45666SOL    HW138895  12.990   9.500  14.838
45666SOL    HW238896  13.047   9.458  14.704
45667SOL     OW38897  12.936  14.590   6.748
45667SOL    HW138898  12.939  14.686   6.748
45667SOL    HW238899  13.013  14.564   6.696
45668SOL     OW38900  10.140   2.363  10.605
45668SOL    HW138901  10.222   2.404  10.632
45668SOL    HW238902  10.097   2.428  10.551
45669SOL     OW38903   7.425   4.220  11.254
45669SOL    HW138904   7.465   4.138  11.225
45669SOL    HW238905   7.377   4.252  11.178
45670SOL     OW38906   1.827  14.155  11.943
45670SOL    HW138907   1.892  14.123  12.006
45670SOL    HW238908   1.870  14.230  11.901
45671SOL     OW38909   8.728  13.561   6.176
45671SOL    HW138910   8.716  13.576   6.082
45671SOL    HW238911   8.643  13.581   6.214
45672SOL     OW38912   1.078   7.995   0.658
45672SOL    HW138913   1.151   8.049   0.630
45672SOL    HW238914   1.060   7.938   0.583
45673SOL     OW38915  14.548   2.716   3.869
45673SOL    HW138916  14.588   2.642   3.824
45673SOL    HW238917  14.471   2.680   3.913
45674SOL     OW38918  12.257   3.642  12.383
45674SOL    HW138919  12.300   3.559  12.363
45674SOL    HW238920  12.192   3.652  12.314
45675SOL     OW38921  11.076   7.095   9.272
45675SOL    HW138922  11.029   7.058   9.347
45675SOL    HW238923  11.051   7.188   9.273
45676SOL     OW38924  12.140   3.645   1.400
45676SOL    HW138925  12.054   3.669   1.433
45676SOL    HW238926  12.164   3.567   1.450
45677SOL     OW38927   3.128   0.806  12.557
45677SOL    HW138928   3.122   0.847  12.471
45677SOL    HW238929   3.160   0.876  12.615
45678SOL     OW38930   1.490  12.430  14.559
45678SOL    HW138931   1.490  12.507  14.616
45678SOL    HW238932   1.568  12.381  14.584
45679SOL     OW38933   7.210   8.115   3.078
45679SOL    HW138934   7.252   8.053   3.138
45679SOL    HW238935   7.191   8.191   3.132
45680SOL     OW38936   1.139   8.886  10.986
45680SOL    HW138937   1.175   8.914  10.901
45680SOL    HW238938   1.215   8.883  11.044
45681SOL     OW38939   1.802   3.429   2.338
45681SOL    HW138940   1.816   3.519   2.307
45681SOL    HW238941   1.865   3.419   2.410
45682SOL     OW38942   7.881   8.144  14.840
45682SOL    HW138943   7.901   8.092   0.046
45682SOL    HW238944   7.879   8.234   0.001
45683SOL     OW38945   5.466   1.320  13.443
45683SOL    HW138946   5.412   1.367  13.505
45683SOL    HW238947   5.423   1.235  13.433
45684SOL     OW38948  13.310   4.561  14.064
45684SOL    HW138949  13.398   4.534  14.039
45684SOL    HW238950  13.311   4.656  14.053
45685SOL     OW38951   8.449   3.126   8.407
45685SOL    HW138952   8.511   3.119   8.480
45685SOL    HW238953   8.382   3.188   8.438
45686SOL     OW38954  14.609  12.425   0.193
45686SOL    HW138955  14.672  12.374   0.243
45686SOL    HW238956  14.624  12.515   0.220
45687SOL     OW38957  14.250   3.635  10.364
45687SOL    HW138958  14.220   3.701  10.302
45687SOL    HW238959  14.233   3.552  10.321
45688SOL     OW38960   9.652  11.622   6.302
45688SOL    HW138961   9.678  11.698   6.354
45688SOL    HW238962   9.582  11.581   6.354
45689SOL     OW38963   9.842   7.593   8.009
45689SOL    HW138964   9.896   7.655   7.961
45689SOL    HW238965   9.872   7.507   7.980
45690SOL     OW38966   0.067  14.834   7.604
45690SOL    HW138967   0.156  14.801   7.591
45690SOL    HW238968   0.077   0.056   7.616
45691SOL     OW38969  11.478   6.158   7.819
45691SOL    HW138970  11.502   6.174   7.910
45691SOL    HW238971  11.511   6.069   7.802
45692SOL     OW38972   8.011   6.495   4.421
45692SOL    HW138973   7.975   6.451   4.344
45692SOL    HW238974   8.043   6.424   4.477
45693SOL     OW38975   1.458   3.818   2.648
45693SOL    HW138976   1.471   3.734   2.693
45693SOL    HW238977   1.414   3.794   2.566
45694SOL     OW38978   1.232  12.899   3.698
45694SOL    HW138979   1.298  12.863   3.757
45694SOL    HW238980   1.194  12.973   3.746
45695SOL     OW38981   1.567   1.663  10.981
45695SOL    HW138982   1.540   1.572  10.998
45695SOL    HW238983   1.662   1.663  10.996
45696SOL     OW38984  10.473   1.959   3.514
45696SOL    HW138985  10.431   2.040   3.488
45696SOL    HW238986  10.509   1.923   3.433
45697SOL     OW38987  13.449   0.405  11.849
45697SOL    HW138988  13.479   0.473  11.788
45697SOL    HW238989  13.357   0.427  11.866
45698SOL     OW38990   1.388   0.353   1.506
45698SOL    HW138991   1.381   0.391   1.418
45698SOL    HW238992   1.302   0.312   1.521
45699SOL     OW38993   2.044  14.182  10.187
45699SOL    HW138994   2.054  14.277  10.177
45699SOL    HW238995   1.967  14.173  10.244
45700SOL     OW38996   0.456   3.016   6.525
45700SOL    HW138997   0.360   3.018   6.532
45700SOL    HW238998   0.472   2.979   6.438
45701SOL     OW38999   3.657   6.851   1.890
45701SOL    HW139000   3.737   6.849   1.838
45701SOL    HW239001   3.594   6.899   1.835
45702SOL     OW39002   5.220   0.665   5.245
45702SOL    HW139003   5.175   0.612   5.179
45702SOL    HW239004   5.199   0.624   5.328
45703SOL     OW39005   0.941   0.854  11.308
45703SOL    HW139006   0.879   0.870  11.237
45703SOL    HW239007   0.889   0.864  11.387
45704SOL     OW39008   8.262  11.634   0.779
45704SOL    HW139009   8.250  11.562   0.841
45704SOL    HW239010   8.264  11.591   0.693
45705SOL     OW39011  10.237  11.971  14.702
45705SOL    HW139012  10.217  11.966  14.795
45705SOL    HW239013  10.165  11.922  14.660
45706SOL     OW39014   4.029   7.513   2.727
45706SOL    HW139015   4.081   7.581   2.686
45706SOL    HW239016   4.036   7.531   2.821
45707SOL     OW39017  14.863  12.012  14.706
45707SOL    HW139018   0.048  12.084  14.680
45707SOL    HW239019  14.775  12.041  14.684
45708SOL     OW39020   0.872   5.907  11.618
45708SOL    HW139021   0.889   5.955  11.538
45708SOL    HW239022   0.793   5.856  11.599
45709SOL     OW39023   6.263   3.756   4.509
45709SOL    HW139024   6.280   3.846   4.537
45709SOL    HW239025   6.349   3.723   4.484
45710SOL     OW39026   9.372   5.053   3.015
45710SOL    HW139027   9.314   5.069   2.941
45710SOL    HW239028   9.415   4.969   2.994
45711SOL     OW39029   4.283   5.219   7.070
45711SOL    HW139030   4.188   5.216   7.065
45711SOL    HW239031   4.304   5.309   7.095
45712SOL     OW39032  10.578   5.888   5.911
45712SOL    HW139033  10.563   5.979   5.937
45712SOL    HW239034  10.671   5.873   5.930
45713SOL     OW39035  11.507   0.433   6.138
45713SOL    HW139036  11.447   0.425   6.212
45713SOL    HW239037  11.514   0.528   6.123
45714SOL     OW39038  14.853  13.505   7.430
45714SOL    HW139039  14.773  13.516   7.379
45714SOL    HW239040   0.005  13.594   7.457
45715SOL     OW39041   8.286   3.537  10.079
45715SOL    HW139042   8.239   3.481  10.017
45715SOL    HW239043   8.285   3.624  10.039
45716SOL     OW39044  12.790   5.077   6.720
45716SOL    HW139045  12.707   5.061   6.766
45716SOL    HW239046  12.788   5.171   6.701
45717SOL     OW39047   9.377   1.993   1.588
45717SOL    HW139048   9.402   1.905   1.561
45717SOL    HW239049   9.426   2.052   1.530
45718SOL     OW39050   9.366  13.465   8.168
45718SOL    HW139051   9.300  13.425   8.111
45718SOL    HW239052   9.340  13.438   8.256
45719SOL     OW39053   6.889  11.272   1.972
45719SOL    HW139054   6.814  11.296   2.027
45719SOL    HW239055   6.897  11.344   1.909
45720SOL     OW39056   5.042   9.202   7.947
45720SOL    HW139057   5.035   9.153   7.865
45720SOL    HW239058   5.103   9.273   7.928
45721SOL     OW39059  13.239   7.845   9.618
45721SOL    HW139060  13.157   7.797   9.607
45721SOL    HW239061  13.307   7.782   9.596
45722SOL     OW39062  13.728   2.396   6.647
45722SOL    HW139063  13.793   2.463   6.670
45722SOL    HW239064  13.749   2.323   6.705
45723SOL     OW39065   9.798   4.792   6.860
45723SOL    HW139066   9.734   4.738   6.814
45723SOL    HW239067   9.877   4.788   6.805
45724SOL     OW39068   8.505   0.619  10.302
45724SOL    HW139069   8.511   0.714  10.295
45724SOL    HW239070   8.470   0.591  10.217
45725SOL     OW39071   7.247  14.339   0.608
45725SOL    HW139072   7.291  14.255   0.596
45725SOL    HW239073   7.222  14.340   0.701
45726SOL     OW39074   4.497  11.024   0.270
45726SOL    HW139075   4.588  10.997   0.257
45726SOL    HW239076   4.458  11.019   0.182
45727SOL     OW39077   3.647  12.338   8.893
45727SOL    HW139078   3.649  12.417   8.947
45727SOL    HW239079   3.587  12.280   8.939
45728SOL     OW39080   3.564  12.810   4.931
45728SOL    HW139081   3.482  12.851   4.959
45728SOL    HW239082   3.555  12.718   4.955
45729SOL     OW39083   4.612  12.382  11.720
45729SOL    HW139084   4.645  12.302  11.761
45729SOL    HW239085   4.629  12.451  11.784
45730SOL     OW39086   6.233   7.194   8.824
45730SOL    HW139087   6.286   7.142   8.763
45730SOL    HW239088   6.155   7.141   8.839
45731SOL     OW39089   0.865   2.313   3.274
45731SOL    HW139090   0.863   2.378   3.343
45731SOL    HW239091   0.886   2.231   3.319
45732SOL     OW39092   3.670  12.337   7.324
45732SOL    HW139093   3.674  12.271   7.394
45732SOL    HW239094   3.762  12.357   7.305
45733SOL     OW39095   5.399  13.291   8.178
45733SOL    HW139096   5.396  13.351   8.104
45733SOL    HW239097   5.362  13.340   8.251
45734SOL     OW39098  13.126   5.607   5.637
45734SOL    HW139099  13.055   5.663   5.668
45734SOL    HW239100  13.192   5.668   5.605
45735SOL     OW39101   6.262  10.091   6.101
45735SOL    HW139102   6.271  10.054   6.014
45735SOL    HW239103   6.295  10.180   6.094
45736SOL     OW39104  10.195  12.928   0.738
45736SOL    HW139105  10.113  12.889   0.766
45736SOL    HW239106  10.208  13.002   0.797
45737SOL     OW39107   9.024  11.585   5.571
45737SOL    HW139108   8.930  11.602   5.580
45737SOL    HW239109   9.062  11.671   5.556
45738SOL     OW39110   9.130   1.384  10.772
45738SOL    HW139111   9.155   1.384  10.679
45738SOL    HW239112   9.204   1.425  10.816
45739SOL     OW39113   1.130   8.493   3.727
45739SOL    HW139114   1.187   8.569   3.736
45739SOL    HW239115   1.153   8.456   3.642
45740SOL     OW39116   6.665  10.944  10.754
45740SOL    HW139117   6.702  11.032  10.750
45740SOL    HW239118   6.724  10.895  10.810
45741SOL     OW39119  10.977  11.634   0.361
45741SOL    HW139120  10.910  11.699   0.342
45741SOL    HW239121  10.977  11.576   0.285
45742SOL     OW39122   8.568   4.677   7.149
45742SOL    HW139123   8.497   4.614   7.140
45742SOL    HW239124   8.627   4.638   7.215
45743SOL     OW39125  13.104   2.454   3.218
45743SOL    HW139126  13.118   2.548   3.229
45743SOL    HW239127  13.030   2.448   3.158
45744SOL     OW39128   3.605  12.062   0.654
45744SOL    HW139129   3.690  12.104   0.636
45744SOL    HW239130   3.581  12.022   0.571
45745SOL     OW39131  12.260   3.219   7.920
45745SOL    HW139132  12.241   3.217   7.826
45745SOL    HW239133  12.256   3.127   7.946
45746SOL     OW39134  12.137   7.028   1.863
45746SOL    HW139135  12.119   7.094   1.796
45746SOL    HW239136  12.099   7.064   1.943
45747SOL     OW39137   6.462   7.332   2.314
45747SOL    HW139138   6.448   7.305   2.405
45747SOL    HW239139   6.538   7.281   2.286
45748SOL     OW39140   0.114   2.680  10.862
45748SOL    HW139141   0.105   2.585  10.856
45748SOL    HW239142   0.208   2.696  10.850
45749SOL     OW39143   7.360  13.095  11.270
45749SOL    HW139144   7.426  13.069  11.205
45749SOL    HW239145   7.376  13.038  11.345
45750SOL     OW39146   8.932   2.053   7.328
45750SOL    HW139147   8.862   2.115   7.345
45750SOL    HW239148   8.905   1.973   7.374
45751SOL     OW39149   7.830  12.989  11.586
45751SOL    HW139150   7.805  13.052  11.517
45751SOL    HW239151   7.917  13.017  11.613
45752SOL     OW39152   7.876  14.491   4.507
45752SOL    HW139153   7.894  14.425   4.440
45752SOL    HW239154   7.781  14.505   4.503
45753SOL     OW39155   4.351  13.319  11.269
45753SOL    HW139156   4.275  13.269  11.238
45753SOL    HW239157   4.313  13.388  11.324
45754SOL     OW39158   8.064  14.505   9.461
45754SOL    HW139159   8.074  14.486   9.368
45754SOL    HW239160   8.101  14.592   9.472
45755SOL     OW39161   3.702   1.976   0.368
45755SOL    HW139162   3.790   1.938   0.364
45755SOL    HW239163   3.684   2.004   0.278
45756SOL     OW39164   2.584  11.967   8.719
45756SOL    HW139165   2.592  11.875   8.746
45756SOL    HW239166   2.630  12.015   8.788
45757SOL     OW39167   2.103   2.848   5.679
45757SOL    HW139168   2.064   2.850   5.766
45757SOL    HW239169   2.184   2.899   5.689
45758SOL     OW39170   7.564  10.968   8.143
45758SOL    HW139171   7.534  10.970   8.234
45758SOL    HW239172   7.492  10.926   8.096
45759SOL     OW39173   6.995   0.200   4.899
45759SOL    HW139174   6.969   0.292   4.900
45759SOL    HW239175   7.081   0.199   4.941
45760SOL     OW39176   6.109   2.622   6.410
45760SOL    HW139177   6.027   2.667   6.391
45760SOL    HW239178   6.111   2.548   6.349
45761SOL     OW39179   6.031   8.426  11.289
45761SOL    HW139180   5.946   8.448  11.327
45761SOL    HW239181   6.063   8.508  11.252
45762SOL     OW39182   8.951   2.692   4.746
45762SOL    HW139183   8.956   2.685   4.842
45762SOL    HW239184   9.009   2.622   4.715
45763SOL     OW39185   8.513   1.677   6.521
45763SOL    HW139186   8.437   1.653   6.469
45763SOL    HW239187   8.542   1.595   6.560
45764SOL     OW39188  13.650   9.903  13.108
45764SOL    HW139189  13.708   9.836  13.072
45764SOL    HW239190  13.708   9.977  13.126
45765SOL     OW39191  11.546  11.686   8.118
45765SOL    HW139192  11.584  11.635   8.190
45765SOL    HW239193  11.514  11.766   8.161
45766SOL     OW39194   6.381   4.650   3.626
45766SOL    HW139195   6.383   4.734   3.579
45766SOL    HW239196   6.462   4.648   3.676
45767SOL     OW39197  14.502  10.754   4.578
45767SOL    HW139198  14.432  10.694   4.552
45767SOL    HW239199  14.466  10.841   4.561
45768SOL     OW39200   4.447   6.809   1.236
45768SOL    HW139201   4.492   6.725   1.242
45768SOL    HW239202   4.516   6.874   1.252
45769SOL     OW39203  12.545  10.801  13.444
45769SOL    HW139204  12.631  10.795  13.402
45769SOL    HW239205  12.484  10.816  13.372
45770SOL     OW39206   4.070   0.086   0.829
45770SOL    HW139207   4.113   0.086   0.743
45770SOL    HW239208   3.990   0.035   0.816
45771SOL     OW39209   0.308   8.293   7.542
45771SOL    HW139210   0.227   8.285   7.593
45771SOL    HW239211   0.372   8.326   7.604
45772SOL     OW39212   6.644   3.420   5.221
45772SOL    HW139213   6.737   3.424   5.241
45772SOL    HW239214   6.604   3.376   5.296
45773SOL     OW39215  13.274   2.579   2.139
45773SOL    HW139216  13.354   2.528   2.125
45773SOL    HW239217  13.206   2.529   2.092
45774SOL     OW39218   8.215   8.468   9.705
45774SOL    HW139219   8.311   8.468   9.707
45774SOL    HW239220   8.192   8.376   9.693
45775SOL     OW39221   1.706   0.979   4.615
45775SOL    HW139222   1.711   1.064   4.659
45775SOL    HW239223   1.784   0.932   4.644
45776SOL     OW39224   6.166  14.174   4.530
45776SOL    HW139225   6.136  14.210   4.614
45776SOL    HW239226   6.102  14.104   4.511
45777SOL     OW39227   9.181  13.169  11.555
45777SOL    HW139228   9.242  13.130  11.493
45777SOL    HW239229   9.159  13.097  11.614
45778SOL     OW39230   5.131   2.027   2.737
45778SOL    HW139231   5.216   2.046   2.698
45778SOL    HW239232   5.068   2.040   2.666
45779SOL     OW39233   7.319   4.489   7.245
45779SOL    HW139234   7.364   4.542   7.179
45779SOL    HW239235   7.354   4.519   7.329
45780SOL     OW39236   3.110  14.642   9.385
45780SOL    HW139237   3.112  14.654   9.480
45780SOL    HW239238   3.108  14.730   9.349
45781SOL     OW39239   5.437   7.952  13.367
45781SOL    HW139240   5.376   7.967  13.296
45781SOL    HW239241   5.391   7.981  13.446
45782SOL     OW39242   3.637  13.618  11.323
45782SOL    HW139243   3.689  13.623  11.403
45782SOL    HW239244   3.697  13.650  11.254
45783SOL     OW39245   5.876  13.177   5.771
45783SOL    HW139246   5.820  13.193   5.847
45783SOL    HW239247   5.966  13.185   5.805
45784SOL     OW39248   7.214   6.090   1.319
45784SOL    HW139249   7.231   6.016   1.262
45784SOL    HW239250   7.252   6.065   1.403
45785SOL     OW39251  11.662  12.878   6.967
45785SOL    HW139252  11.745  12.851   6.928
45785SOL    HW239253  11.676  12.969   6.993
45786SOL     OW39254   0.170   4.239   5.500
45786SOL    HW139255   0.168   4.335   5.506
45786SOL    HW239256   0.135   4.209   5.584
45787SOL     OW39257  13.063   5.069   7.854
45787SOL    HW139258  13.039   5.015   7.930
45787SOL    HW239259  13.139   5.119   7.883
45788SOL     OW39260  11.394  12.345   3.419
45788SOL    HW139261  11.371  12.252   3.425
45788SOL    HW239262  11.462  12.357   3.486
45789SOL     OW39263   9.757  11.714   0.011
45789SOL    HW139264   9.740  11.628   0.048
45789SOL    HW239265   9.754  11.700  14.787
45790SOL     OW39266   6.054   3.007  10.991
45790SOL    HW139267   6.098   3.092  10.989
45790SOL    HW239268   5.965   3.025  10.962
45791SOL     OW39269   6.655  13.162   6.059
45791SOL    HW139270   6.685  13.072   6.046
45791SOL    HW239271   6.688  13.210   5.984
45792SOL     OW39272   0.906   5.819   5.850
45792SOL    HW139273   0.951   5.855   5.774
45792SOL    HW239274   0.961   5.843   5.924
45793SOL     OW39275  13.352   2.754   9.061
45793SOL    HW139276  13.348   2.797   9.147
45793SOL    HW239277  13.292   2.805   9.006
45794SOL     OW39278   0.627   8.514   8.567
45794SOL    HW139279   0.619   8.582   8.633
45794SOL    HW239280   0.639   8.433   8.617
45795SOL     OW39281   2.934   9.520   1.085
45795SOL    HW139282   2.912   9.453   1.150
45795SOL    HW239283   2.934   9.472   1.001
45796SOL     OW39284   2.337  14.798   3.489
45796SOL    HW139285   2.291  14.718   3.464
45796SOL    HW239286   2.428  14.771   3.503
45797SOL     OW39287   3.895   0.744  10.863
45797SOL    HW139288   3.892   0.761  10.957
45797SOL    HW239289   3.811   0.777  10.830
45798SOL     OW39290  11.258   2.968   9.046
45798SOL    HW139291  11.320   2.911   8.999
45798SOL    HW239292  11.294   2.975   9.134
45799SOL     OW39293   8.835   1.582   9.955
45799SOL    HW139294   8.804   1.577  10.045
45799SOL    HW239295   8.910   1.643   9.958
45800SOL     OW39296   0.936   5.651   9.220
45800SOL    HW139297   0.920   5.598   9.142
45800SOL    HW239298   1.021   5.622   9.252
45801SOL     OW39299  11.782  10.104   2.942
45801SOL    HW139300  11.749  10.149   3.020
45801SOL    HW239301  11.838  10.169   2.899
45802SOL     OW39302   1.150  11.116   6.005
45802SOL    HW139303   1.149  11.063   5.926
45802SOL    HW239304   1.135  11.053   6.076
45803SOL     OW39305   6.477  11.598   7.343
45803SOL    HW139306   6.556  11.649   7.325
45803SOL    HW239307   6.501  11.508   7.321
45804SOL     OW39308   7.977   8.414  13.641
45804SOL    HW139309   8.041   8.436  13.708
45804SOL    HW239310   7.976   8.318  13.639
45805SOL     OW39311   1.493   4.379   1.382
45805SOL    HW139312   1.421   4.441   1.394
45805SOL    HW239313   1.451   4.293   1.392
45806SOL     OW39314  10.295   8.554   2.753
45806SOL    HW139315  10.220   8.496   2.768
45806SOL    HW239316  10.286   8.584   2.663
45807SOL     OW39317   6.345  13.576   8.581
45807SOL    HW139318   6.311  13.655   8.623
45807SOL    HW239319   6.393  13.530   8.649
45808SOL     OW39320  12.446   0.106   1.749
45808SOL    HW139321  12.465   0.091   1.657
45808SOL    HW239322  12.421   0.020   1.784
45809SOL     OW39323   2.001   6.923   1.946
45809SOL    HW139324   1.909   6.929   1.920
45809SOL    HW239325   2.042   6.871   1.876
45810SOL     OW39326   7.100  11.195   9.468
45810SOL    HW139327   7.134  11.129   9.529
45810SOL    HW239328   7.145  11.177   9.386
45811SOL     OW39329  14.086  10.222   0.137
45811SOL    HW139330  14.160  10.169   0.108
45811SOL    HW239331  14.123  10.282   0.201
45812SOL     OW39332   2.232  14.332  10.423
45812SOL    HW139333   2.149  14.345  10.376
45812SOL    HW239334   2.284  14.410  10.401
45813SOL     OW39335  13.128   3.196   3.148
45813SOL    HW139336  13.206   3.221   3.196
45813SOL    HW239337  13.064   3.263   3.170
45814SOL     OW39338   2.700  14.280   7.682
45814SOL    HW139339   2.649  14.265   7.761
45814SOL    HW239340   2.767  14.343   7.707
45815SOL     OW39341   8.041   3.299   7.072
45815SOL    HW139342   8.061   3.289   6.979
45815SOL    HW239343   8.121   3.334   7.110
45816SOL     OW39344   9.135   2.042  13.482
45816SOL    HW139345   9.159   2.048  13.574
45816SOL    HW239346   9.161   1.954  13.456
45817SOL     OW39347  14.515   8.236  10.050
45817SOL    HW139348  14.467   8.243  10.132
45817SOL    HW239349  14.479   8.158  10.007
45818SOL     OW39350  12.691   8.321   2.945
45818SOL    HW139351  12.762   8.369   2.987
45818SOL    HW239352  12.731   8.238   2.917
45819SOL     OW39353  13.116   1.152  12.533
45819SOL    HW139354  13.103   1.068  12.488
45819SOL    HW239355  13.163   1.129  12.613
45820SOL     OW39356   1.029  12.356   8.029
45820SOL    HW139357   1.012  12.410   7.952
45820SOL    HW239358   0.950  12.302   8.039
45821SOL     OW39359  12.969   5.311   1.124
45821SOL    HW139360  12.878   5.301   1.095
45821SOL    HW239361  13.018   5.328   1.044
45822SOL     OW39362   7.118   3.352   6.219
45822SOL    HW139363   7.072   3.433   6.240
45822SOL    HW239364   7.161   3.327   6.301
45823SOL     OW39365  13.037   9.281   1.171
45823SOL    HW139366  13.049   9.293   1.077
45823SOL    HW239367  13.038   9.186   1.183
45824SOL     OW39368   0.778  10.667   1.591
45824SOL    HW139369   0.762  10.704   1.678
45824SOL    HW239370   0.696  10.623   1.569
45825SOL     OW39371   5.307   9.354  10.832
45825SOL    HW139372   5.396   9.380  10.808
45825SOL    HW239373   5.269   9.432  10.873
45826SOL     OW39374   6.707   8.547   4.440
45826SOL    HW139375   6.665   8.624   4.480
45826SOL    HW239376   6.739   8.496   4.514
45827SOL     OW39377  14.814  13.128   2.000
45827SOL    HW139378  14.731  13.158   1.962
45827SOL    HW239379  14.809  13.033   1.995
45828SOL     OW39380   2.954  11.326   7.236
45828SOL    HW139381   3.004  11.268   7.180
45828SOL    HW239382   2.981  11.414   7.209
45829SOL     OW39383  10.219   1.997   4.125
45829SOL    HW139384  10.212   2.089   4.150
45829SOL    HW239385  10.145   1.955   4.169
45830SOL     OW39386   2.456  10.634  10.090
45830SOL    HW139387   2.531  10.681  10.127
45830SOL    HW239388   2.434  10.683  10.010
45831SOL     OW39389  14.101   5.124   9.601
45831SOL    HW139390  14.112   5.208   9.645
45831SOL    HW239391  14.028   5.082   9.647
45832SOL     OW39392   4.449   5.257   0.807
45832SOL    HW139393   4.525   5.242   0.864
45832SOL    HW239394   4.486   5.255   0.718
45833SOL     OW39395   2.135   9.233   3.043
45833SOL    HW139396   2.194   9.306   3.061
45833SOL    HW239397   2.178   9.185   2.972
45834SOL     OW39398   5.257  12.706  14.432
45834SOL    HW139399   5.309  12.772  14.388
45834SOL    HW239400   5.320  12.641  14.462
45835SOL     OW39401  12.509   7.913   8.919
45835SOL    HW139402  12.522   7.823   8.949
45835SOL    HW239403  12.598   7.946   8.905
45836SOL     OW39404   5.827  12.673   6.329
45836SOL    HW139405   5.852  12.611   6.261
45836SOL    HW239406   5.749  12.633   6.369
45837SOL     OW39407   8.694   1.126  14.763
45837SOL    HW139408   8.697   1.061  14.693
45837SOL    HW239409   8.667   1.076  14.840
45838SOL     OW39410  14.050   4.344   1.805
45838SOL    HW139411  14.118   4.367   1.868
45838SOL    HW239412  14.074   4.256   1.775
45839SOL     OW39413   4.527   3.604   6.231
45839SOL    HW139414   4.501   3.605   6.323
45839SOL    HW239415   4.620   3.582   6.232
45840SOL     OW39416   1.556  10.978   7.848
45840SOL    HW139417   1.585  11.068   7.834
45840SOL    HW239418   1.609  10.926   7.788
45841SOL     OW39419   7.775  11.940   5.035
45841SOL    HW139420   7.868  11.944   5.015
45841SOL    HW239421   7.761  12.008   5.101
45842SOL     OW39422   7.642  12.911   8.649
45842SOL    HW139423   7.600  12.825   8.657
45842SOL    HW239424   7.700  12.916   8.725
45843SOL     OW39425   5.793   9.993   0.149
45843SOL    HW139426   5.803  10.060   0.082
45843SOL    HW239427   5.699   9.974   0.149
45844SOL     OW39428   0.275  11.240   4.540
45844SOL    HW139429   0.214  11.166   4.542
45844SOL    HW239430   0.348  11.210   4.486
45845SOL     OW39431   3.131   2.513   1.157
45845SOL    HW139432   3.197   2.450   1.185
45845SOL    HW239433   3.168   2.598   1.181
45846SOL     OW39434   2.498  10.238   8.209
45846SOL    HW139435   2.415  10.257   8.254
45846SOL    HW239436   2.543  10.177   8.268
45847SOL     OW39437   5.116  11.819   1.317
45847SOL    HW139438   5.178  11.750   1.297
45847SOL    HW239439   5.170  11.891   1.349
45848SOL     OW39440  14.316   7.227   1.660
45848SOL    HW139441  14.337   7.168   1.588
45848SOL    HW239442  14.220   7.229   1.662
45849SOL     OW39443   4.516   4.873   1.528
45849SOL    HW139444   4.453   4.907   1.465
45849SOL    HW239445   4.466   4.861   1.609
45850SOL     OW39446   1.703   5.331   3.198
45850SOL    HW139447   1.705   5.384   3.278
45850SOL    HW239448   1.684   5.242   3.229
45851SOL     OW39449   3.375   4.457  12.452
45851SOL    HW139450   3.335   4.376  12.482
45851SOL    HW239451   3.461   4.431  12.420
45852SOL     OW39452   7.732  10.469   1.166
45852SOL    HW139453   7.740  10.448   1.073
45852SOL    HW239454   7.787  10.405   1.210
45853SOL     OW39455  11.138   2.744   1.422
45853SOL    HW139456  11.204   2.753   1.353
45853SOL    HW239457  11.100   2.831   1.431
45854SOL     OW39458  10.761   3.338  12.567
45854SOL    HW139459  10.772   3.256  12.518
45854SOL    HW239460  10.764   3.407  12.500
45855SOL     OW39461  14.719   9.550   7.097
45855SOL    HW139462  14.752   9.514   7.180
45855SOL    HW239463  14.795   9.594   7.059
45856SOL     OW39464   0.133   5.369  10.179
45856SOL    HW139465   0.104   5.364  10.088
45856SOL    HW239466   0.193   5.295  10.190
45857SOL     OW39467   1.652   2.749   1.595
45857SOL    HW139468   1.672   2.657   1.573
45857SOL    HW239469   1.665   2.796   1.513
45858SOL     OW39470   1.680   1.773   2.876
45858SOL    HW139471   1.750   1.740   2.932
45858SOL    HW239472   1.605   1.783   2.934
45859SOL     OW39473   9.103  11.266   9.676
45859SOL    HW139474   9.135  11.327   9.743
45859SOL    HW239475   9.181  11.239   9.628
45860SOL     OW39476   9.780   9.713   9.731
45860SOL    HW139477   9.752   9.780   9.794
45860SOL    HW239478   9.745   9.631   9.766
45861SOL     OW39479   3.786  12.728   6.399
45861SOL    HW139480   3.854  12.698   6.460
45861SOL    HW239481   3.774  12.821   6.420
45862SOL     OW39482  12.535   1.804   7.925
45862SOL    HW139483  12.524   1.825   8.018
45862SOL    HW239484  12.537   1.709   7.923
45863SOL     OW39485   6.500   8.444   0.278
45863SOL    HW139486   6.423   8.475   0.325
45863SOL    HW239487   6.523   8.363   0.323
45864SOL     OW39488  10.549   2.078   4.011
45864SOL    HW139489  10.628   2.027   4.029
45864SOL    HW239490  10.479   2.014   4.008
45865SOL     OW39491   5.449   3.491   2.875
45865SOL    HW139492   5.482   3.431   2.808
45865SOL    HW239493   5.373   3.447   2.912
45866SOL     OW39494   2.231   7.273   0.082
45866SOL    HW139495   2.288   7.298   0.009
45866SOL    HW239496   2.161   7.223   0.041
45867SOL     OW39497  10.733   8.582  13.680
45867SOL    HW139498  10.654   8.636  13.674
45867SOL    HW239499  10.782   8.603  13.601
45868SOL     OW39500   4.468   5.214  13.415
45868SOL    HW139501   4.410   5.276  13.370
45868SOL    HW239502   4.554   5.229  13.375
45869SOL     OW39503   3.036  14.105   2.634
45869SOL    HW139504   3.060  14.070   2.548
45869SOL    HW239505   2.951  14.146   2.621
45870SOL     OW39506   5.605   5.203   0.816
45870SOL    HW139507   5.639   5.114   0.822
45870SOL    HW239508   5.608   5.224   0.723
45871SOL     OW39509   3.162   8.795  12.568
45871SOL    HW139510   3.098   8.863  12.590
45871SOL    HW239511   3.199   8.770  12.653
45872SOL     OW39512   3.901   7.908   4.734
45872SOL    HW139513   3.953   7.882   4.657
45872SOL    HW239514   3.846   7.832   4.751
45873SOL     OW39515   5.767  14.297   3.576
45873SOL    HW139516   5.698  14.363   3.583
45873SOL    HW239517   5.848  14.346   3.588
45874SOL     OW39518   2.096   5.768  10.845
45874SOL    HW139519   2.175   5.806  10.884
45874SOL    HW239520   2.124   5.683  10.811
45875SOL     OW39521  10.047  11.421   4.718
45875SOL    HW139522  10.108  11.374   4.662
45875SOL    HW239523  10.031  11.503   4.673
45876SOL     OW39524   4.721   5.610   9.307
45876SOL    HW139525   4.681   5.545   9.249
45876SOL    HW239526   4.673   5.602   9.389
45877SOL     OW39527  13.532  12.145   9.431
45877SOL    HW139528  13.612  12.112   9.391
45877SOL    HW239529  13.560  12.181   9.515
45878SOL     OW39530   3.836  12.148   3.286
45878SOL    HW139531   3.857  12.152   3.379
45878SOL    HW239532   3.817  12.055   3.269
45879SOL     OW39533   4.366   0.381   6.891
45879SOL    HW139534   4.460   0.388   6.876
45879SOL    HW239535   4.328   0.448   6.833
45880SOL     OW39536   2.028   4.808   9.491
45880SOL    HW139537   2.104   4.827   9.436
45880SOL    HW239538   2.065   4.771   9.571
45881SOL     OW39539   1.253   1.610   2.561
45881SOL    HW139540   1.342   1.646   2.570
45881SOL    HW239541   1.218   1.652   2.483
45882SOL     OW39542   6.418  12.130   5.657
45882SOL    HW139543   6.326  12.108   5.673
45882SOL    HW239544   6.466  12.049   5.675
45883SOL     OW39545  11.213  10.332   2.200
45883SOL    HW139546  11.231  10.271   2.128
45883SOL    HW239547  11.219  10.419   2.161
45884SOL     OW39548   7.005  12.171   3.858
45884SOL    HW139549   7.098  12.160   3.876
45884SOL    HW239550   7.003  12.206   3.769
45885SOL     OW39551   7.089   8.971   2.170
45885SOL    HW139552   7.167   8.977   2.115
45885SOL    HW239553   7.111   8.905   2.235
45886SOL     OW39554  10.126   7.434   7.258
45886SOL    HW139555  10.197   7.371   7.272
45886SOL    HW239556  10.050   7.380   7.239
45887SOL     OW39557  14.564   5.235   8.317
45887SOL    HW139558  14.583   5.158   8.264
45887SOL    HW239559  14.552   5.200   8.406
45888SOL     OW39560  14.214   0.604  12.943
45888SOL    HW139561  14.177   0.667  12.881
45888SOL    HW239562  14.244   0.531  12.889
45889SOL     OW39563   8.291   6.056  10.253
45889SOL    HW139564   8.263   5.979  10.304
45889SOL    HW239565   8.386   6.053  10.254
45890SOL     OW39566   9.079  12.059   6.685
45890SOL    HW139567   9.063  12.054   6.779
45890SOL    HW239568   9.007  12.008   6.646
45891SOL     OW39569   2.351  13.914   1.753
45891SOL    HW139570   2.437  13.956   1.747
45891SOL    HW239571   2.290  13.987   1.762
45892SOL     OW39572  14.564  11.543   7.667
45892SOL    HW139573  14.639  11.583   7.622
45892SOL    HW239574  14.586  11.548   7.760
45893SOL     OW39575   1.691   9.449  10.841
45893SOL    HW139576   1.697   9.389  10.767
45893SOL    HW239577   1.730   9.530  10.809
45894SOL     OW39578   8.532  12.528   5.079
45894SOL    HW139579   8.464  12.594   5.069
45894SOL    HW239580   8.572  12.547   5.164
45895SOL     OW39581  13.922  13.155  14.813
45895SOL    HW139582  13.965  13.136   0.024
45895SOL    HW239583  13.830  13.170  14.837
45896SOL     OW39584   8.183   2.780   1.631
45896SOL    HW139585   8.104   2.832   1.650
45896SOL    HW239586   8.224   2.768   1.717
45897SOL     OW39587   1.797  14.836   7.286
45897SOL    HW139588   1.734  14.766   7.307
45897SOL    HW239589   1.877  14.789   7.261
45898SOL     OW39590   0.086   3.730   9.555
45898SOL    HW139591   0.154   3.780   9.509
45898SOL    HW239592   0.100   3.750   9.648
45899SOL     OW39593   4.144  12.220   7.226
45899SOL    HW139594   4.142  12.144   7.283
45899SOL    HW239595   4.232  12.255   7.234
45900SOL     OW39596   0.755   8.547  10.847
45900SOL    HW139597   0.789   8.552  10.758
45900SOL    HW239598   0.667   8.511  10.837
45901SOL     OW39599  10.785   6.942   8.373
45901SOL    HW139600  10.713   6.921   8.432
45901SOL    HW239601  10.749   6.931   8.285
45902SOL     OW39602   5.304   1.597  11.094
45902SOL    HW139603   5.219   1.637  11.074
45902SOL    HW239604   5.367   1.648  11.043
45903SOL     OW39605  11.528   4.670  11.996
45903SOL    HW139606  11.515   4.764  11.982
45903SOL    HW239607  11.619   4.662  12.023
45904SOL     OW39608   5.724   4.582  11.776
45904SOL    HW139609   5.762   4.522  11.711
45904SOL    HW239610   5.658   4.631  11.728
45905SOL     OW39611   3.273   5.862   7.991
45905SOL    HW139612   3.226   5.827   7.915
45905SOL    HW239613   3.352   5.809   7.998
45906SOL     OW39614   1.285   5.055   0.774
45906SOL    HW139615   1.273   4.961   0.765
45906SOL    HW239616   1.226   5.093   0.708
45907SOL     OW39617   2.202   8.722   6.248
45907SOL    HW139618   2.164   8.675   6.323
45907SOL    HW239619   2.266   8.661   6.212
45908SOL     OW39620   8.753   3.047  12.359
45908SOL    HW139621   8.774   3.036  12.452
45908SOL    HW239622   8.658   3.060  12.359
45909SOL     OW39623   6.301   3.923  10.281
45909SOL    HW139624   6.294   4.015  10.307
45909SOL    HW239625   6.225   3.908  10.225
45910SOL     OW39626  13.041   2.896   1.012
45910SOL    HW139627  13.011   2.837   0.942
45910SOL    HW239628  13.069   2.838   1.082
45911SOL     OW39629   2.744   9.721   2.959
45911SOL    HW139630   2.733   9.692   2.868
45911SOL    HW239631   2.655   9.720   2.995
45912SOL     OW39632   0.773   3.986   8.246
45912SOL    HW139633   0.716   3.932   8.301
45912SOL    HW239634   0.853   3.935   8.238
45913SOL     OW39635  10.378  13.636   0.559
45913SOL    HW139636  10.444  13.609   0.495
45913SOL    HW239637  10.406  13.723   0.586
45914SOL     OW39638   5.976   5.674   2.561
45914SOL    HW139639   6.063   5.695   2.526
45914SOL    HW239640   5.915   5.717   2.501
45915SOL     OW39641   6.393   0.999   8.221
45915SOL    HW139642   6.366   1.081   8.261
45915SOL    HW239643   6.442   1.025   8.143
45916SOL     OW39644   5.469   2.080   3.871
45916SOL    HW139645   5.434   2.158   3.828
45916SOL    HW239646   5.422   2.008   3.830
45917SOL     OW39647   1.801  10.513   6.199
45917SOL    HW139648   1.850  10.583   6.243
45917SOL    HW239649   1.731  10.490   6.260
45918SOL     OW39650   4.615  10.414   6.457
45918SOL    HW139651   4.525  10.396   6.427
45918SOL    HW239652   4.620  10.370   6.542
45919SOL     OW39653   7.876   7.072  10.416
45919SOL    HW139654   7.857   7.016  10.491
45919SOL    HW239655   7.791   7.103  10.386
45920SOL     OW39656  14.658  10.226  10.229
45920SOL    HW139657  14.620  10.257  10.311
45920SOL    HW239658  14.732  10.171  10.256
45921SOL     OW39659   9.459  11.069   3.815
45921SOL    HW139660   9.469  11.158   3.850
45921SOL    HW239661   9.548  11.036   3.808
45922SOL     OW39662  12.576   5.078  12.329
45922SOL    HW139663  12.643   5.014  12.351
45922SOL    HW239664  12.546   5.111  12.414
45923SOL     OW39665  10.784   6.930   2.631
45923SOL    HW139666  10.793   7.025   2.621
45923SOL    HW239667  10.873   6.900   2.652
45924SOL     OW39668   0.236  11.812   7.457
45924SOL    HW139669   0.278  11.741   7.507
45924SOL    HW239670   0.289  11.820   7.378
45925SOL     OW39671   1.641   4.699   1.435
45925SOL    HW139672   1.722   4.708   1.386
45925SOL    HW239673   1.668   4.690   1.526
45926SOL     OW39674   9.088   2.358  13.981
45926SOL    HW139675   9.020   2.293  13.962
45926SOL    HW239676   9.042   2.441  13.986
45927SOL     OW39677   3.465   0.549   0.808
45927SOL    HW139678   3.403   0.538   0.879
45927SOL    HW239679   3.502   0.637   0.821
45928SOL     OW39680   2.359   7.280   0.771
45928SOL    HW139681   2.351   7.216   0.842
45928SOL    HW239682   2.378   7.227   0.693
45929SOL     OW39683   1.131   1.103   4.455
45929SOL    HW139684   1.185   1.168   4.410
45929SOL    HW239685   1.068   1.154   4.504
45930SOL     OW39686  13.542   0.537   8.816
45930SOL    HW139687  13.555   0.461   8.759
45930SOL    HW239688  13.571   0.612   8.764
45931SOL     OW39689  12.367  12.866  10.262
45931SOL    HW139690  12.427  12.855  10.189
45931SOL    HW239691  12.340  12.778  10.286
45932SOL     OW39692  10.144   3.785   9.604
45932SOL    HW139693  10.136   3.749   9.692
45932SOL    HW239694  10.170   3.876   9.616
45933SOL     OW39695   8.868  14.071   5.192
45933SOL    HW139696   8.891  14.053   5.100
45933SOL    HW239697   8.899  14.160   5.207
45934SOL     OW39698  12.309   2.916   8.626
45934SOL    HW139699  12.324   2.916   8.721
45934SOL    HW239700  12.382   2.966   8.590
45935SOL     OW39701  10.812   6.885   4.216
45935SOL    HW139702  10.760   6.805   4.211
45935SOL    HW239703  10.871   6.871   4.290
45936SOL     OW39704  12.625   1.630  11.922
45936SOL    HW139705  12.650   1.621  12.014
45936SOL    HW239706  12.608   1.724  11.911
45937SOL     OW39707   1.425  14.745  10.781
45937SOL    HW139708   1.438  14.730  10.874
45937SOL    HW239709   1.376  14.668  10.751
45938SOL     OW39710  12.258  12.495  13.568
45938SOL    HW139711  12.252  12.571  13.626
45938SOL    HW239712  12.220  12.423  13.618
45939SOL     OW39713   0.709  13.297   3.349
45939SOL    HW139714   0.736  13.386   3.367
45939SOL    HW239715   0.781  13.259   3.298
45940SOL     OW39716   5.958   2.407   7.711
45940SOL    HW139717   6.021   2.338   7.732
45940SOL    HW239718   5.895   2.365   7.653
45941SOL     OW39719   3.377   3.218   4.191
45941SOL    HW139720   3.356   3.280   4.261
45941SOL    HW239721   3.314   3.237   4.122
45942SOL     OW39722  10.365   4.243   4.185
45942SOL    HW139723  10.414   4.206   4.111
45942SOL    HW239724  10.309   4.309   4.145
45943SOL     OW39725   6.826   0.191  11.384
45943SOL    HW139726   6.863   0.175  11.297
45943SOL    HW239727   6.873   0.268  11.416
45944SOL     OW39728  11.416  13.079   8.355
45944SOL    HW139729  11.488  13.076   8.293
45944SOL    HW239730  11.457  13.099   8.439
45945SOL     OW39731  14.401   0.624   2.187
45945SOL    HW139732  14.429   0.575   2.265
45945SOL    HW239733  14.433   0.713   2.202
45946SOL     OW39734   4.383   6.524   8.857
45946SOL    HW139735   4.389   6.447   8.800
45946SOL    HW239736   4.294   6.556   8.845
45947SOL     OW39737  11.959  10.897   0.336
45947SOL    HW139738  11.954  10.911   0.430
45947SOL    HW239739  11.935  10.806   0.323
45948SOL     OW39740   8.968   7.050   5.804
45948SOL    HW139741   8.904   7.121   5.807
45948SOL    HW239742   9.048   7.089   5.839
45949SOL     OW39743   6.245   8.523   7.053
45949SOL    HW139744   6.294   8.589   7.101
45949SOL    HW239745   6.222   8.456   7.118
45950SOL     OW39746   2.432   0.689   7.109
45950SOL    HW139747   2.390   0.765   7.069
45950SOL    HW239748   2.369   0.618   7.099
45951SOL     OW39749   4.369   8.738   6.396
45951SOL    HW139750   4.363   8.776   6.484
45951SOL    HW239751   4.392   8.646   6.411
45952SOL     OW39752   4.984  14.799  12.252
45952SOL    HW139753   4.942  14.759  12.176
45952SOL    HW239754   4.914  14.847  12.296
45953SOL     OW39755   9.713   5.880  10.095
45953SOL    HW139756   9.693   5.880  10.188
45953SOL    HW239757   9.771   5.956  10.083
45954SOL     OW39758  13.463   0.218  13.500
45954SOL    HW139759  13.393   0.283  13.489
45954SOL    HW239760  13.473   0.179  13.414
45955SOL     OW39761  12.336   1.502  13.856
45955SOL    HW139762  12.340   1.413  13.890
45955SOL    HW239763  12.261   1.502  13.797
45956SOL     OW39764  13.137   0.589  14.318
45956SOL    HW139765  13.226   0.555  14.313
45956SOL    HW239766  13.085   0.515  14.351
45957SOL     OW39767   3.569  12.761  12.644
45957SOL    HW139768   3.642  12.823  12.633
45957SOL    HW239769   3.611  12.674  12.640
45958SOL     OW39770   0.720  13.232   7.389
45958SOL    HW139771   0.661  13.221   7.315
45958SOL    HW239772   0.674  13.292   7.448
45959SOL     OW39773   0.516   3.554   6.525
45959SOL    HW139774   0.519   3.460   6.542
45959SOL    HW239775   0.561   3.565   6.442
45960SOL     OW39776   0.568   9.456   6.995
45960SOL    HW139777   0.591   9.403   7.072
45960SOL    HW239778   0.628   9.426   6.927
45961SOL     OW39779  10.507  11.669   3.376
45961SOL    HW139780  10.509  11.748   3.429
45961SOL    HW239781  10.598  11.638   3.373
45962SOL     OW39782   7.856   7.761   2.318
45962SOL    HW139783   7.826   7.815   2.390
45962SOL    HW239784   7.848   7.671   2.350
45963SOL     OW39785   7.659   3.083  10.167
45963SOL    HW139786   7.740   3.092  10.116
45963SOL    HW239787   7.645   2.988  10.173
45964SOL     OW39788  14.553   0.726  13.970
45964SOL    HW139789  14.477   0.785  13.971
45964SOL    HW239790  14.553   0.688  13.882
45965SOL     OW39791  12.139   1.676  10.200
45965SOL    HW139792  12.062   1.725  10.172
45965SOL    HW239793  12.197   1.677  10.125
45966SOL     OW39794   7.219  14.169   8.075
45966SOL    HW139795   7.142  14.134   8.030
45966SOL    HW239796   7.224  14.260   8.046
45967SOL     OW39797   1.003   1.736  10.462
45967SOL    HW139798   0.938   1.788  10.510
45967SOL    HW239799   0.973   1.738  10.371
45968SOL     OW39800   2.024   7.725   4.050
45968SOL    HW139801   2.100   7.720   4.109
45968SOL    HW239802   1.956   7.769   4.101
45969SOL     OW39803  12.514   5.912  14.641
45969SOL    HW139804  12.547   5.832  14.600
45969SOL    HW239805  12.439   5.938  14.587
45970SOL     OW39806  11.176  14.807   7.366
45970SOL    HW139807  11.254  14.862   7.375
45970SOL    HW239808  11.105  14.860   7.402
45971SOL     OW39809   8.489   7.150   0.194
45971SOL    HW139810   8.419   7.085   0.191
45971SOL    HW239811   8.554   7.118   0.130
45972SOL     OW39812   2.700   4.498   1.699
45972SOL    HW139813   2.773   4.475   1.756
45972SOL    HW239814   2.721   4.585   1.666
45973SOL     OW39815   3.942  12.680  10.177
45973SOL    HW139816   4.011  12.638  10.228
45973SOL    HW239817   3.966  12.773  10.179
45974SOL     OW39818  10.422   9.560   1.325
45974SOL    HW139819  10.417   9.469   1.295
45974SOL    HW239820  10.505   9.592   1.290
45975SOL     OW39821  12.029  10.022   2.770
45975SOL    HW139822  11.985  10.027   2.855
45975SOL    HW239823  12.097  10.088   2.774
45976SOL     OW39824   8.123   8.641  14.347
45976SOL    HW139825   8.038   8.599  14.361
45976SOL    HW239826   8.188   8.574  14.370
45977SOL     OW39827   7.702  11.405  13.044
45977SOL    HW139828   7.785  11.390  13.000
45977SOL    HW239829   7.636  11.368  12.985
45978SOL     OW39830   2.626   7.510  14.539
45978SOL    HW139831   2.598   7.438  14.483
45978SOL    HW239832   2.570   7.504  14.616
45979SOL     OW39833   7.252   1.211   5.989
45979SOL    HW139834   7.274   1.161   6.067
45979SOL    HW239835   7.251   1.302   6.018
45980SOL     OW39836   8.391  10.628   0.022
45980SOL    HW139837   8.373  10.543  14.855
45980SOL    HW239838   8.363  10.620   0.113
45981SOL     OW39839   0.756   0.668   8.148
45981SOL    HW139840   0.784   0.631   8.064
45981SOL    HW239841   0.833   0.713   8.182
45982SOL     OW39842   0.774   5.741   7.718
45982SOL    HW139843   0.736   5.680   7.654
45982SOL    HW239844   0.813   5.684   7.784
45983SOL     OW39845  14.482   7.026   3.579
45983SOL    HW139846  14.567   7.063   3.556
45983SOL    HW239847  14.422   7.101   3.576
45984SOL     OW39848   2.510   3.218  14.286
45984SOL    HW139849   2.445   3.231  14.217
45984SOL    HW239850   2.487   3.134  14.326
45985SOL     OW39851   6.432   7.610  12.101
45985SOL    HW139852   6.487   7.674  12.056
45985SOL    HW239853   6.389   7.661  12.170
45986SOL     OW39854  11.562   7.910   6.193
45986SOL    HW139855  11.516   7.994   6.188
45986SOL    HW239856  11.613   7.915   6.274
45987SOL     OW39857   9.667  14.259   4.724
45987SOL    HW139858   9.696  14.267   4.633
45987SOL    HW239859   9.746  14.236   4.773
45988SOL     OW39860   2.876  13.525  12.076
45988SOL    HW139861   2.905  13.529  12.167
45988SOL    HW239862   2.844  13.613  12.058
45989SOL     OW39863   6.801  13.645   5.750
45989SOL    HW139864   6.763  13.733   5.749
45989SOL    HW239865   6.884  13.656   5.796
45990SOL     OW39866   5.570   2.901  11.983
45990SOL    HW139867   5.598   2.924  12.072
45990SOL    HW239868   5.492   2.954  11.969
45991SOL     OW39869  13.012   1.950   8.086
45991SOL    HW139870  13.099   1.985   8.066
45991SOL    HW239871  13.029   1.868   8.132
45992SOL     OW39872  13.829   5.333  11.243
45992SOL    HW139873  13.888   5.360  11.173
45992SOL    HW239874  13.770   5.269  11.203
45993SOL     OW39875   1.366  13.753   0.608
45993SOL    HW139876   1.410  13.752   0.693
45993SOL    HW239877   1.367  13.845   0.582
45994SOL     OW39878   4.826  12.208  11.799
45994SOL    HW139879   4.905  12.254  11.769
45994SOL    HW239880   4.839  12.198  11.893
45995SOL     OW39881   7.937   2.196  12.625
45995SOL    HW139882   7.941   2.208  12.530
45995SOL    HW239883   7.982   2.273  12.660
45996SOL     OW39884  11.446   9.955  12.913
45996SOL    HW139885  11.463  10.021  12.846
45996SOL    HW239886  11.480   9.993  12.994
45997SOL     OW39887   0.618   9.358   9.875
45997SOL    HW139888   0.604   9.433   9.818
45997SOL    HW239889   0.649   9.289   9.816
45998SOL     OW39890   8.806  14.112   0.431
45998SOL    HW139891   8.808  14.139   0.339
45998SOL    HW239892   8.731  14.054   0.438
45999SOL     OW39893   1.545   3.290  12.932
45999SOL    HW139894   1.458   3.285  12.892
45999SOL    HW239895   1.573   3.380  12.918
46000SOL     OW39896   7.802  14.470  12.338
46000SOL    HW139897   7.832  14.509  12.256
46000SOL    HW239898   7.855  14.391  12.347
46001SOL     OW39899  14.160  10.707   7.581
46001SOL    HW139900  14.189  10.641   7.644
46001SOL    HW239901  14.068  10.722   7.603
46002SOL     OW39902  10.932   9.362  12.542
46002SOL    HW139903  11.006   9.304  12.524
46002SOL    HW239904  10.860   9.302  12.564
46003SOL     OW39905   7.054   7.010  14.847
46003SOL    HW139906   6.974   6.981   0.019
46003SOL    HW239907   7.039   6.990  14.755
46004SOL     OW39908  12.077   3.620   5.003
46004SOL    HW139909  12.023   3.592   4.929
46004SOL    HW239910  12.029   3.590   5.080
46005SOL     OW39911   8.517   7.226  12.029
46005SOL    HW139912   8.506   7.152  12.089
46005SOL    HW239913   8.454   7.210  11.959
46006SOL     OW39914   9.185   9.372  14.121
46006SOL    HW139915   9.145   9.450  14.081
46006SOL    HW239916   9.149   9.370  14.210
46007SOL     OW39917   0.940   4.718  10.617
46007SOL    HW139918   0.994   4.771  10.676
46007SOL    HW239919   0.858   4.706  10.664
46008SOL     OW39920   9.482   4.348   7.117
46008SOL    HW139921   9.573   4.356   7.089
46008SOL    HW239922   9.478   4.264   7.162
46009SOL     OW39923   1.125   8.962   8.565
46009SOL    HW139924   1.188   9.028   8.536
46009SOL    HW239925   1.168   8.878   8.547
46010SOL     OW39926   0.053   6.572   1.462
46010SOL    HW139927  14.831   6.590   1.469
46010SOL    HW239928   0.089   6.597   1.547
46011SOL     OW39929   8.461   6.240   0.194
46011SOL    HW139930   8.366   6.227   0.189
46011SOL    HW239931   8.489   6.254   0.104
46012SOL     OW39932   3.958  11.763  13.654
46012SOL    HW139933   3.959  11.827  13.583
46012SOL    HW239934   3.919  11.685  13.616
46013SOL     OW39935   4.408   5.894   5.137
46013SOL    HW139936   4.399   5.799   5.152
46013SOL    HW239937   4.318   5.926   5.138
46014SOL     OW39938   6.606   9.026   1.687
46014SOL    HW139939   6.535   9.030   1.750
46014SOL    HW239940   6.606   9.111   1.644
46015SOL     OW39941   0.862   8.775   6.590
46015SOL    HW139942   0.890   8.685   6.575
46015SOL    HW239943   0.779   8.767   6.638
46016SOL     OW39944   7.506   2.257  12.208
46016SOL    HW139945   7.594   2.248  12.245
46016SOL    HW239946   7.499   2.349  12.184
46017SOL     OW39947   1.693   2.455   8.393
46017SOL    HW139948   1.723   2.488   8.309
46017SOL    HW239949   1.634   2.523   8.426
46018SOL     OW39950   5.274  13.697   7.009
46018SOL    HW139951   5.289  13.735   6.923
46018SOL    HW239952   5.247  13.771   7.064
46019SOL     OW39953   1.408   3.344   9.423
46019SOL    HW139954   1.348   3.370   9.493
46019SOL    HW239955   1.418   3.250   9.433
46020SOL     OW39956  14.761  14.513   8.930
46020SOL    HW139957  14.729  14.425   8.910
46020SOL    HW239958  14.814  14.501   9.009
46021SOL     OW39959   5.399   0.650  12.205
46021SOL    HW139960   5.480   0.696  12.228
46021SOL    HW239961   5.400   0.572  12.261
46022SOL     OW39962   9.380  12.382  12.397
46022SOL    HW139963   9.460  12.431  12.417
46022SOL    HW239964   9.350  12.417  12.313
46023SOL     OW39965   5.692   6.959   4.239
46023SOL    HW139966   5.669   7.016   4.166
46023SOL    HW239967   5.720   6.877   4.198
46024SOL     OW39968  11.192  14.052   2.194
46024SOL    HW139969  11.262  13.987   2.200
46024SOL    HW239970  11.173  14.076   2.285
46025SOL     OW39971   7.215   0.651   6.581
46025SOL    HW139972   7.203   0.686   6.492
46025SOL    HW239973   7.171   0.714   6.638
46026SOL     OW39974   1.032   6.756  12.624
46026SOL    HW139975   1.068   6.703  12.695
46026SOL    HW239976   0.943   6.721  12.610
46027SOL     OW39977  13.315   1.997   1.089
46027SOL    HW139978  13.394   2.044   1.115
46027SOL    HW239979  13.246   2.063   1.091
46028SOL     OW39980   4.814  10.188   7.975
46028SOL    HW139981   4.768  10.136   7.909
46028SOL    HW239982   4.749  10.252   8.005
46029SOL     OW39983  13.261   1.393   5.996
46029SOL    HW139984  13.239   1.396   5.903
46029SOL    HW239985  13.184   1.431   6.039
46030SOL     OW39986  11.415   6.532   5.345
46030SOL    HW139987  11.360   6.521   5.423
46030SOL    HW239988  11.447   6.622   5.352
46031SOL     OW39989  10.071   1.377   4.411
46031SOL    HW139990  10.123   1.346   4.338
46031SOL    HW239991   9.981   1.382   4.377
46032SOL     OW39992  12.005   1.071   9.871
46032SOL    HW139993  12.099   1.088   9.877
46032SOL    HW239994  11.998   0.976   9.862
46033SOL     OW39995   7.720   0.874  11.423
46033SOL    HW139996   7.721   0.928  11.344
46033SOL    HW239997   7.790   0.811  11.410
46034SOL     OW39998   2.405   1.529   2.091
46034SOL    HW139999   2.400   1.487   2.005
46034SOL    HW240000   2.316   1.561   2.107
46035SOL     OW40001   1.729   7.835   9.522
46035SOL    HW140002   1.681   7.905   9.477
46035SOL    HW240003   1.754   7.774   9.453
46036SOL     OW40004  12.726  11.779   3.247
46036SOL    HW140005  12.670  11.800   3.321
46036SOL    HW240006  12.815  11.781   3.283
46037SOL     OW40007  13.442   1.161   8.671
46037SOL    HW140008  13.478   1.139   8.756
46037SOL    HW240009  13.368   1.101   8.660
46038SOL     OW40010  13.178  14.560  10.553
46038SOL    HW140011  13.142  14.537  10.467
46038SOL    HW240012  13.102  14.589  10.603
46039SOL     OW40013   9.457  13.703  11.344
46039SOL    HW140014   9.552  13.716  11.334
46039SOL    HW240015   9.424  13.790  11.369
46040SOL     OW40016   5.142   9.286  13.685
46040SOL    HW140017   5.190   9.297  13.767
46040SOL    HW240018   5.131   9.375  13.651
46041SOL     OW40019  10.142   8.348   1.485
46041SOL    HW140020  10.144   8.304   1.570
46041SOL    HW240021  10.130   8.277   1.421
46042SOL     OW40022   3.479   3.730   0.646
46042SOL    HW140023   3.574   3.727   0.638
46042SOL    HW240024   3.455   3.818   0.616
46043SOL     OW40025   3.469  11.362   9.003
46043SOL    HW140026   3.473  11.266   8.997
46043SOL    HW240027   3.484  11.392   8.913
46044SOL     OW40028   9.305   2.712  14.705
46044SOL    HW140029   9.346   2.630  14.680
46044SOL    HW240030   9.366   2.752  14.768
46045SOL     OW40031  14.041  11.451  13.124
46045SOL    HW140032  13.960  11.482  13.164
46045SOL    HW240033  14.086  11.531  13.096
46046SOL     OW40034   3.994   2.100   2.867
46046SOL    HW140035   3.908   2.095   2.908
46046SOL    HW240036   4.056   2.102   2.940
46047SOL     OW40037   2.974  12.293  12.028
46047SOL    HW140038   3.050  12.263  11.978
46047SOL    HW240039   2.902  12.238  11.996
46048SOL     OW40040   4.338  11.636  11.272
46048SOL    HW140041   4.423  11.678  11.262
46048SOL    HW240042   4.324  11.588  11.191
46049SOL     OW40043   1.275  12.205  12.740
46049SOL    HW140044   1.261  12.130  12.682
46049SOL    HW240045   1.241  12.176  12.825
46050SOL     OW40046   6.518   1.884   5.714
46050SOL    HW140047   6.587   1.930   5.667
46050SOL    HW240048   6.438   1.930   5.690
46051SOL     OW40049   5.836   6.009   3.649
46051SOL    HW140050   5.925   5.985   3.677
46051SOL    HW240051   5.780   5.982   3.722
46052SOL     OW40052  13.855   5.206  11.680
46052SOL    HW140053  13.942   5.167  11.690
46052SOL    HW240054  13.799   5.132  11.656
46053SOL     OW40055  13.893   0.755   2.898
46053SOL    HW140056  13.951   0.829   2.878
46053SOL    HW240057  13.855   0.732   2.813
46054SOL     OW40058  14.768   4.550   3.249
46054SOL    HW140059  14.853   4.506   3.247
46054SOL    HW240060  14.706   4.483   3.221
46055SOL     OW40061   5.781  14.689   7.100
46055SOL    HW140062   5.821  14.684   7.014
46055SOL    HW240063   5.823  14.765   7.142
46056SOL     OW40064   6.238   4.608   5.972
46056SOL    HW140065   6.322   4.578   6.008
46056SOL    HW240066   6.174   4.546   6.008
46057SOL     OW40067  14.758  12.286   9.464
46057SOL    HW140068  14.820  12.253   9.530
46057SOL    HW240069  14.694  12.336   9.515
46058SOL     OW40070   1.120   8.970   1.679
46058SOL    HW140071   1.069   8.964   1.598
46058SOL    HW240072   1.112   8.883   1.718
46059SOL     OW40073  10.845   7.289   9.521
46059SOL    HW140074  10.892   7.308   9.439
46059SOL    HW240075  10.753   7.303   9.499
46060SOL     OW40076   5.194   2.767   2.672
46060SOL    HW140077   5.202   2.784   2.765
46060SOL    HW240078   5.114   2.714   2.664
46061SOL     OW40079   7.104   1.927  13.206
46061SOL    HW140080   7.058   1.861  13.258
46061SOL    HW240081   7.087   2.009  13.251
46062SOL     OW40082   0.799   4.750  12.584
46062SOL    HW140083   0.816   4.843  12.568
46062SOL    HW240084   0.827   4.736  12.674
46063SOL     OW40085   7.555  13.962   9.349
46063SOL    HW140086   7.526  14.017   9.276
46063SOL    HW240087   7.502  13.991   9.423
46064SOL     OW40088   1.772  13.006   8.788
46064SOL    HW140089   1.772  13.046   8.875
46064SOL    HW240090   1.729  13.070   8.732
46065SOL     OW40091   1.473   1.355   3.021
46065SOL    HW140092   1.430   1.398   2.947
46065SOL    HW240093   1.402   1.311   3.068
46066SOL     OW40094  14.454   1.627  11.193
46066SOL    HW140095  14.423   1.546  11.232
46066SOL    HW240096  14.376   1.683  11.191
46067SOL     OW40097   5.638  12.540   9.750
46067SOL    HW140098   5.720  12.532   9.701
46067SOL    HW240099   5.621  12.451   9.781
46068SOL     OW40100   5.775   5.262   9.435
46068SOL    HW140101   5.795   5.304   9.351
46068SOL    HW240102   5.726   5.329   9.483
46069SOL     OW40103   4.368   4.865  14.350
46069SOL    HW140104   4.388   4.771  14.349
46069SOL    HW240105   4.295   4.873  14.412
46070SOL     OW40106   3.348   6.249   3.943
46070SOL    HW140107   3.363   6.247   4.037
46070SOL    HW240108   3.299   6.168   3.925
46071SOL     OW40109   3.991  11.078   3.776
46071SOL    HW140110   4.084  11.059   3.764
46071SOL    HW240111   3.947  10.993   3.764
46072SOL     OW40112   0.504   6.065   0.199
46072SOL    HW140113   0.491   6.038   0.290
46072SOL    HW240114   0.421   6.105   0.173
46073SOL     OW40115   4.696   9.197  14.869
46073SOL    HW140116   4.670   9.243   0.077
46073SOL    HW240117   4.765   9.137   0.026
46074SOL     OW40118   5.262   7.306   8.227
46074SOL    HW140119   5.331   7.371   8.241
46074SOL    HW240120   5.290   7.258   8.148
46075SOL     OW40121   5.124   3.658  14.846
46075SOL    HW140122   5.067   3.693  14.778
46075SOL    HW240123   5.213   3.680  14.817
46076SOL     OW40124   0.796   9.973  11.920
46076SOL    HW140125   0.729   9.928  11.972
46076SOL    HW240126   0.746  10.032  11.863
46077SOL     OW40127   9.788   0.367  10.879
46077SOL    HW140128   9.830   0.316  10.948
46077SOL    HW240129   9.831   0.453  10.882
46078SOL     OW40130  12.803   3.679   8.386
46078SOL    HW140131  12.790   3.742   8.315
46078SOL    HW240132  12.719   3.633   8.393
46079SOL     OW40133   3.491  11.535   3.171
46079SOL    HW140134   3.524  11.606   3.116
46079SOL    HW240135   3.515  11.561   3.260
46080SOL     OW40136  11.780   7.477   1.793
46080SOL    HW140137  11.750   7.551   1.845
46080SOL    HW240138  11.705   7.418   1.789
46081SOL     OW40139  11.242   2.304   1.425
46081SOL    HW140140  11.285   2.358   1.491
46081SOL    HW240141  11.238   2.360   1.347
46082SOL     OW40142   3.339  12.937   2.437
46082SOL    HW140143   3.385  12.902   2.361
46082SOL    HW240144   3.248  12.945   2.408
46083SOL     OW40145   0.144  11.369   0.364
46083SOL    HW140146   0.144  11.465   0.362
46083SOL    HW240147   0.125  11.343   0.274
46084SOL     OW40148   7.478  13.574   7.006
46084SOL    HW140149   7.536  13.527   7.067
46084SOL    HW240150   7.473  13.516   6.929
46085SOL     OW40151   5.308   1.688  14.618
46085SOL    HW140152   5.225   1.698  14.664
46085SOL    HW240153   5.314   1.766  14.563
46086SOL     OW40154   8.080  14.421   4.720
46086SOL    HW140155   8.001  14.454   4.677
46086SOL    HW240156   8.128  14.500   4.746
46087SOL     OW40157  10.697   1.384  13.436
46087SOL    HW140158  10.700   1.477  13.459
46087SOL    HW240159  10.703   1.382  13.340
46088SOL     OW40160   8.428  14.173  14.430
46088SOL    HW140161   8.488  14.129  14.489
46088SOL    HW240162   8.469  14.258  14.412
46089SOL     OW40163  13.590   8.876   4.075
46089SOL    HW140164  13.545   8.793   4.061
46089SOL    HW240165  13.674   8.866   4.030
46090SOL     OW40166   5.410   1.185   3.783
46090SOL    HW140167   5.479   1.128   3.749
46090SOL    HW240168   5.362   1.131   3.845
46091SOL     OW40169   5.841  10.504   5.740
46091SOL    HW140170   5.920  10.470   5.781
46091SOL    HW240171   5.792  10.545   5.811
46092SOL     OW40172   7.644  13.502   5.335
46092SOL    HW140173   7.553  13.486   5.307
46092SOL    HW240174   7.658  13.595   5.317
46093SOL     OW40175   5.890  13.925   1.646
46093SOL    HW140176   5.801  13.953   1.669
46093SOL    HW240177   5.933  14.006   1.618
46094SOL     OW40178   6.815  14.493   2.085
46094SOL    HW140179   6.779  14.575   2.119
46094SOL    HW240180   6.769  14.479   2.002
46095SOL     OW40181   2.027  10.062  10.018
46095SOL    HW140182   1.961  10.003  10.055
46095SOL    HW240183   2.008  10.064   9.925
46096SOL     OW40184  12.200   4.600  12.171
46096SOL    HW140185  12.140   4.661  12.213
46096SOL    HW240186  12.147   4.523  12.151
46097SOL     OW40187   0.644  12.830  14.274
46097SOL    HW140188   0.705  12.760  14.249
46097SOL    HW240189   0.634  12.882  14.194
46098SOL     OW40190   9.032   9.617   1.828
46098SOL    HW140191   8.950   9.607   1.778
46098SOL    HW240192   9.094   9.651   1.764
46099SOL     OW40193   2.452   5.712   7.665
46099SOL    HW140194   2.490   5.717   7.577
46099SOL    HW240195   2.432   5.619   7.677
46100SOL     OW40196   4.587  13.771  14.784
46100SOL    HW140197   4.554  13.854  14.750
46100SOL    HW240198   4.644  13.795  14.857
46101SOL     OW40199   4.852   2.371   1.128
46101SOL    HW140200   4.812   2.457   1.116
46101SOL    HW240201   4.793   2.324   1.187
46102SOL     OW40202  13.137   8.557   1.738
46102SOL    HW140203  13.218   8.555   1.790
46102SOL    HW240204  13.070   8.586   1.800
46103SOL     OW40205   5.542   6.946   9.232
46103SOL    HW140206   5.502   7.005   9.169
46103SOL    HW240207   5.624   6.989   9.256
46104SOL     OW40208   1.578   5.262  11.048
46104SOL    HW140209   1.639   5.324  11.006
46104SOL    HW240210   1.524   5.316  11.104
46105SOL     OW40211   3.717   2.802   1.991
46105SOL    HW140212   3.751   2.749   1.918
46105SOL    HW240213   3.756   2.762   2.069
46106SOL     OW40214  12.824  10.258  13.688
46106SOL    HW140215  12.742  10.234  13.732
46106SOL    HW240216  12.800  10.264  13.595
46107SOL     OW40217   0.905  11.768   4.852
46107SOL    HW140218   0.839  11.822   4.809
46107SOL    HW240219   0.860  11.729   4.927
46108SOL     OW40220  14.321   4.112   0.021
46108SOL    HW140221  14.380   4.038   0.036
46108SOL    HW240222  14.288   4.135   0.108
46109SOL     OW40223  13.910   4.224  14.656
46109SOL    HW140224  13.844   4.283  14.619
46109SOL    HW240225  13.978   4.219  14.589
46110SOL     OW40226  14.623  11.212   6.338
46110SOL    HW140227  14.579  11.247   6.416
46110SOL    HW240228  14.628  11.286   6.278
46111SOL     OW40229   3.889  12.844  12.024
46111SOL    HW140230   3.905  12.930  12.061
46111SOL    HW240231   3.809  12.813  12.068
46112SOL     OW40232  13.036  13.057  11.729
46112SOL    HW140233  12.973  13.007  11.677
46112SOL    HW240234  13.104  13.081  11.667
46113SOL     OW40235  12.260   9.942   6.687
46113SOL    HW140236  12.233   9.987   6.607
46113SOL    HW240237  12.337   9.990   6.717
46114SOL     OW40238  10.967  11.722   3.652
46114SOL    HW140239  10.955  11.627   3.660
46114SOL    HW240240  11.024  11.744   3.726
46115SOL     OW40241   0.538  12.367   8.747
46115SOL    HW140242   0.549  12.300   8.815
46115SOL    HW240243   0.623  12.370   8.702
46116SOL     OW40244   9.484   9.224  10.141
46116SOL    HW140245   9.546   9.211  10.213
46116SOL    HW240246   9.520   9.297  10.091
46117SOL     OW40247   6.478   0.675   1.086
46117SOL    HW140248   6.455   0.712   1.171
46117SOL    HW240249   6.404   0.696   1.029
46118SOL     OW40250  11.374  14.302  10.694
46118SOL    HW140251  11.423  14.295  10.776
46118SOL    HW240252  11.389  14.218  10.650
46119SOL     OW40253   0.690   1.908   3.082
46119SOL    HW140254   0.717   1.849   3.012
46119SOL    HW240255   0.687   1.854   3.160
46120SOL     OW40256   4.471  12.598   0.243
46120SOL    HW140257   4.478  12.659   0.169
46120SOL    HW240258   4.555  12.606   0.288
46121SOL     OW40259   1.813  11.258   0.281
46121SOL    HW140260   1.891  11.305   0.250
46121SOL    HW240261   1.848  11.187   0.335
46122SOL     OW40262   8.412   5.106   9.482
46122SOL    HW140263   8.414   5.014   9.456
46122SOL    HW240264   8.383   5.104   9.573
46123SOL     OW40265  13.416  10.295   9.800
46123SOL    HW140266  13.493  10.274   9.747
46123SOL    HW240267  13.403  10.218   9.854
46124SOL     OW40268   6.297   9.169   1.371
46124SOL    HW140269   6.223   9.207   1.417
46124SOL    HW240270   6.286   9.197   1.280
46125SOL     OW40271   2.071   6.687   1.445
46125SOL    HW140272   2.115   6.604   1.464
46125SOL    HW240273   2.063   6.689   1.350
46126SOL     OW40274   6.493   9.139  11.490
46126SOL    HW140275   6.438   9.195  11.435
46126SOL    HW240276   6.567   9.195  11.513
46127SOL     OW40277   1.724  11.040  13.933
46127SOL    HW140278   1.793  11.044  13.999
46127SOL    HW240279   1.746  10.963  13.880
46128SOL     OW40280   6.618   7.937   4.589
46128SOL    HW140281   6.538   7.885   4.584
46128SOL    HW240282   6.680   7.892   4.532
46129SOL     OW40283  12.312   5.292   9.509
46129SOL    HW140284  12.217   5.291   9.522
46129SOL    HW240285  12.324   5.331   9.422
46130SOL     OW40286   0.685   3.642   1.814
46130SOL    HW140287   0.711   3.610   1.901
46130SOL    HW240288   0.765   3.679   1.777
46131SOL     OW40289  13.598   8.085   0.337
46131SOL    HW140290  13.551   8.094   0.420
46131SOL    HW240291  13.560   8.007   0.297
46132SOL     OW40292   6.126   2.395  10.842
46132SOL    HW140293   6.108   2.301  10.844
46132SOL    HW240294   6.222   2.401  10.839
46133SOL     OW40295   1.873   3.719  12.155
46133SOL    HW140296   1.932   3.793  12.140
46133SOL    HW240297   1.927   3.641  12.141
46134SOL     OW40298   8.019  14.797  14.011
46134SOL    HW140299   8.071  14.852  13.952
46134SOL    HW240300   7.939  14.779  13.963
46135SOL     OW40301   6.460   7.493   1.206
46135SOL    HW140302   6.484   7.476   1.115
46135SOL    HW240303   6.425   7.410   1.238
46136SOL     OW40304  14.653  13.678   4.352
46136SOL    HW140305  14.695  13.684   4.438
46136SOL    HW240306  14.617  13.589   4.349
46137SOL     OW40307  14.156  11.060  12.102
46137SOL    HW140308  14.158  11.003  12.179
46137SOL    HW240309  14.179  11.002  12.029
46138SOL     OW40310   5.349   9.598   5.149
46138SOL    HW140311   5.341   9.511   5.189
46138SOL    HW240312   5.322   9.585   5.058
46139SOL     OW40313   7.155   3.960  14.517
46139SOL    HW140314   7.213   3.934  14.446
46139SOL    HW240315   7.114   3.879  14.546
46140SOL     OW40316  10.323  10.143   5.145
46140SOL    HW140317  10.333  10.210   5.078
46140SOL    HW240318  10.313  10.061   5.095
46141SOL     OW40319   2.000   5.673  14.153
46141SOL    HW140320   2.047   5.754  14.132
46141SOL    HW240321   2.067   5.604  14.143
46142SOL     OW40322   9.334   7.895   2.309
46142SOL    HW140323   9.286   7.965   2.264
46142SOL    HW240324   9.395   7.862   2.243
46143SOL     OW40325  12.696  13.814  10.807
46143SOL    HW140326  12.662  13.736  10.851
46143SOL    HW240327  12.791  13.808  10.817
46144SOL     OW40328   8.836   3.806  14.152
46144SOL    HW140329   8.767   3.865  14.180
46144SOL    HW240330   8.915   3.861  14.149
46145SOL     OW40331  10.997   5.068   0.201
46145SOL    HW140332  10.963   5.079   0.112
46145SOL    HW240333  11.067   5.003   0.191
46146SOL     OW40334   3.363   6.764   2.739
46146SOL    HW140335   3.429   6.763   2.808
46146SOL    HW240336   3.286   6.724   2.779
46147SOL     OW40337   7.427   3.919  12.735
46147SOL    HW140338   7.461   3.833  12.759
46147SOL    HW240339   7.506   3.972  12.718
46148SOL     OW40340  10.579   7.800   9.411
46148SOL    HW140341  10.609   7.715   9.381
46148SOL    HW240342  10.529   7.782   9.491
46149SOL     OW40343   1.654   1.919  10.648
46149SOL    HW140344   1.702   1.837  10.645
46149SOL    HW240345   1.644   1.945  10.557
46150SOL     OW40346  14.752   2.302  13.151
46150SOL    HW140347  14.676   2.316  13.096
46150SOL    HW240348  14.808   2.242  13.101
46151SOL     OW40349   1.111   2.914   1.929
46151SOL    HW140350   1.058   2.931   2.007
46151SOL    HW240351   1.202   2.915   1.960
46152SOL     OW40352  12.380   5.309   9.802
46152SOL    HW140353  12.362   5.338   9.713
46152SOL    HW240354  12.412   5.219   9.793
46153SOL     OW40355   5.291   7.427   2.340
46153SOL    HW140356   5.200   7.427   2.366
46153SOL    HW240357   5.289   7.440   2.245
46154SOL     OW40358   5.850  14.150   7.368
46154SOL    HW140359   5.801  14.158   7.286
46154SOL    HW240360   5.865  14.056   7.377
46155SOL     OW40361   9.546   7.432   6.968
46155SOL    HW140362   9.586   7.507   7.012
46155SOL    HW240363   9.480   7.472   6.911
46156SOL     OW40364   0.568   8.336   0.679
46156SOL    HW140365   0.616   8.306   0.756
46156SOL    HW240366   0.486   8.371   0.713
46157SOL     OW40367  10.428   5.350   0.726
46157SOL    HW140368  10.501   5.385   0.777
46157SOL    HW240369  10.405   5.268   0.771
46158SOL     OW40370   3.919   9.218   1.613
46158SOL    HW140371   3.998   9.218   1.559
46158SOL    HW240372   3.902   9.311   1.631
46159SOL     OW40373  10.990   3.557  11.606
46159SOL    HW140374  10.915   3.615  11.620
46159SOL    HW240375  11.052   3.609  11.555
46160SOL     OW40376   4.051  10.410  12.687
46160SOL    HW140377   4.085  10.369  12.608
46160SOL    HW240378   4.120  10.471  12.715
46161SOL     OW40379   4.143   2.187  11.921
46161SOL    HW140380   4.224   2.196  11.871
46161SOL    HW240381   4.164   2.124  11.990
46162SOL     OW40382   0.460   7.356  10.065
46162SOL    HW140383   0.522   7.345   9.993
46162SOL    HW240384   0.499   7.423  10.121
46163SOL     OW40385   3.140  10.364   2.139
46163SOL    HW140386   3.173  10.414   2.065
46163SOL    HW240387   3.217  10.349   2.194
46164SOL     OW40388   0.714  11.892   1.414
46164SOL    HW140389   0.767  11.852   1.344
46164SOL    HW240390   0.677  11.818   1.461
46165SOL     OW40391   0.295   0.814  14.672
46165SOL    HW140392   0.323   0.831  14.582
46165SOL    HW240393   0.242   0.734  14.665
46166SOL     OW40394   8.086  11.230   0.074
46166SOL    HW140395   8.144  11.157   0.052
46166SOL    HW240396   8.017  11.191   0.127
46167SOL     OW40397   8.097  10.614  10.076
46167SOL    HW140398   8.067  10.533  10.034
46167SOL    HW240399   8.078  10.683  10.013
46168SOL     OW40400  11.820   0.288   6.045
46168SOL    HW140401  11.789   0.291   6.135
46168SOL    HW240402  11.909   0.325   6.050
46169SOL     OW40403   1.848   3.953  10.118
46169SOL    HW140404   1.847   3.859  10.096
46169SOL    HW240405   1.756   3.976  10.128
46170SOL     OW40406   1.272  11.158   5.471
46170SOL    HW140407   1.341  11.104   5.510
46170SOL    HW240408   1.301  11.248   5.486
46171SOL     OW40409  14.584   1.370   1.928
46171SOL    HW140410  14.524   1.442   1.948
46171SOL    HW240411  14.527   1.297   1.903
46172SOL     OW40412   4.448  12.690  11.822
46172SOL    HW140413   4.365  12.666  11.865
46172SOL    HW240414   4.513  12.636  11.867
46173SOL     OW40415  12.378   5.758  13.315
46173SOL    HW140416  12.354   5.816  13.243
46173SOL    HW240417  12.295   5.728  13.351
46174SOL     OW40418  12.847   1.349   4.278
46174SOL    HW140419  12.856   1.254   4.269
46174SOL    HW240420  12.856   1.365   4.372
46175SOL     OW40421   6.008   3.122   1.653
46175SOL    HW140422   6.103   3.134   1.646
46175SOL    HW240423   5.971   3.182   1.588
46176SOL     OW40424  12.975   3.228   0.306
46176SOL    HW140425  13.046   3.188   0.256
46176SOL    HW240426  12.895   3.199   0.263
46177SOL     OW40427   4.363   4.157   2.828
46177SOL    HW140428   4.402   4.240   2.856
46177SOL    HW240429   4.419   4.127   2.757
46178SOL     OW40430   3.454   3.301  12.976
46178SOL    HW140431   3.419   3.213  12.969
46178SOL    HW240432   3.384   3.352  13.017
46179SOL     OW40433  10.292  13.633   5.985
46179SOL    HW140434  10.213  13.670   5.944
46179SOL    HW240435  10.281  13.539   5.976
46180SOL     OW40436  10.445   9.002   0.884
46180SOL    HW140437  10.432   8.973   0.975
46180SOL    HW240438  10.521   8.953   0.854
46181SOL     OW40439   1.759  10.137   8.874
46181SOL    HW140440   1.759  10.042   8.862
46181SOL    HW240441   1.787  10.172   8.789
46182SOL     OW40442   7.841  14.658   0.194
46182SOL    HW140443   7.781  14.727   0.224
46182SOL    HW240444   7.927  14.702   0.189
46183SOL     OW40445  14.160   6.839   7.138
46183SOL    HW140446  14.185   6.752   7.168
46183SOL    HW240447  14.069   6.830   7.111
46184SOL     OW40448  12.860   4.888   1.834
46184SOL    HW140449  12.829   4.807   1.876
46184SOL    HW240450  12.873   4.864   1.742
46185SOL     OW40451   2.168   6.976   9.179
46185SOL    HW140452   2.214   6.919   9.117
46185SOL    HW240453   2.236   7.036   9.212
46186SOL     OW40454   9.235  13.169  13.569
46186SOL    HW140455   9.275  13.243  13.615
46186SOL    HW240456   9.258  13.092  13.621
46187SOL     OW40457   7.672   4.296  13.585
46187SOL    HW140458   7.624   4.253  13.655
46187SOL    HW240459   7.667   4.389  13.605
46188SOL     OW40460   2.841  11.834   3.230
46188SOL    HW140461   2.828  11.797   3.143
46188SOL    HW240462   2.913  11.896   3.219
46189SOL     OW40463  14.274  11.840  12.145
46189SOL    HW140464  14.200  11.893  12.176
46189SOL    HW240465  14.235  11.755  12.123
46190SOL     OW40466   7.654   4.151   2.857
46190SOL    HW140467   7.604   4.078   2.894
46190SOL    HW240468   7.717   4.174   2.926
46191SOL     OW40469  13.892   1.264   9.050
46191SOL    HW140470  13.877   1.204   9.123
46191SOL    HW240471  13.841   1.227   8.978
46192SOL     OW40472   3.884   5.372   2.006
46192SOL    HW140473   3.833   5.298   1.974
46192SOL    HW240474   3.973   5.338   2.016
46193SOL     OW40475   6.650   6.149   9.414
46193SOL    HW140476   6.560   6.123   9.430
46193SOL    HW240477   6.655   6.240   9.446
46194SOL     OW40478  10.422   0.374  13.139
46194SOL    HW140479  10.516   0.368  13.154
46194SOL    HW240480  10.388   0.420  13.216
46195SOL     OW40481  10.966   0.430   8.097
46195SOL    HW140482  10.927   0.351   8.059
46195SOL    HW240483  10.970   0.411   8.191
46196SOL     OW40484   4.450   4.881   0.583
46196SOL    HW140485   4.477   4.909   0.670
46196SOL    HW240486   4.414   4.961   0.543
46197SOL     OW40487   9.989   1.726   4.851
46197SOL    HW140488   9.932   1.676   4.910
46197SOL    HW240489  10.015   1.803   4.903
46198SOL     OW40490   5.582   5.270   7.033
46198SOL    HW140491   5.575   5.364   7.014
46198SOL    HW240492   5.536   5.228   6.961
46199SOL     OW40493  13.389   0.836  10.134
46199SOL    HW140494  13.441   0.813  10.057
46199SOL    HW240495  13.354   0.753  10.166
46200SOL     OW40496   5.886  10.671   4.164
46200SOL    HW140497   5.946  10.598   4.178
46200SOL    HW240498   5.917  10.740   4.222
46201SOL     OW40499   7.245   6.833  14.218
46201SOL    HW140500   7.257   6.851  14.125
46201SOL    HW240501   7.329   6.797  14.247
46202SOL     OW40502   3.095   9.059  12.582
46202SOL    HW140503   3.001   9.060  12.604
46202SOL    HW240504   3.139   9.059  12.668
46203SOL     OW40505   4.788  11.232  11.057
46203SOL    HW140506   4.844  11.180  11.000
46203SOL    HW240507   4.807  11.200  11.145
46204SOL     OW40508   4.272  11.872  12.099
46204SOL    HW140509   4.196  11.893  12.153
46204SOL    HW240510   4.259  11.923  12.018
46205SOL     OW40511   9.208  10.557  13.656
46205SOL    HW140512   9.281  10.619  13.650
46205SOL    HW240513   9.130  10.612  13.650
46206SOL     OW40514   5.614   4.217   2.785
46206SOL    HW140515   5.570   4.138   2.753
46206SOL    HW240516   5.551   4.257   2.845
46207SOL     OW40517  10.312   3.718  12.976
46207SOL    HW140518  10.313   3.760  12.890
46207SOL    HW240519  10.317   3.790  13.039
46208SOL     OW40520   6.552   6.705   6.875
46208SOL    HW140521   6.616   6.696   6.946
46208SOL    HW240522   6.561   6.797   6.848
46209SOL     OW40523   7.113   9.174   4.271
46209SOL    HW140524   7.032   9.190   4.223
46209SOL    HW240525   7.144   9.089   4.239
46210SOL     OW40526   1.294   8.446   1.763
46210SOL    HW140527   1.291   8.512   1.831
46210SOL    HW240528   1.220   8.388   1.782
46211SOL     OW40529   2.178  10.502   4.670
46211SOL    HW140530   2.251  10.467   4.619
46211SOL    HW240531   2.104  10.499   4.610
46212SOL     OW40532   3.921   4.885  13.461
46212SOL    HW140533   3.887   4.801  13.428
46212SOL    HW240534   4.002   4.862  13.505
46213SOL     OW40535   7.787   3.887   1.590
46213SOL    HW140536   7.756   3.876   1.679
46213SOL    HW240537   7.856   3.952   1.596
46214SOL     OW40538   2.366  11.473   0.128
46214SOL    HW140539   2.332  11.487   0.039
46214SOL    HW240540   2.421  11.550   0.144
46215SOL     OW40541   2.178   3.216   5.296
46215SOL    HW140542   2.207   3.135   5.253
46215SOL    HW240543   2.237   3.283   5.262
46216SOL     OW40544  12.291   8.499   0.187
46216SOL    HW140545  12.224   8.480   0.253
46216SOL    HW240546  12.242   8.535   0.113
46217SOL     OW40547   0.752   7.825   8.223
46217SOL    HW140548   0.664   7.823   8.186
46217SOL    HW240549   0.766   7.736   8.256
46218SOL     OW40550  13.967  13.153   2.657
46218SOL    HW140551  13.920  13.223   2.611
46218SOL    HW240552  14.049  13.194   2.683
46219SOL     OW40553   0.007   5.842  14.641
46219SOL    HW140554   0.057   5.789  14.578
46219SOL    HW240555  14.791   5.847  14.605
46220SOL     OW40556  12.705  14.176   9.560
46220SOL    HW140557  12.741  14.096   9.598
46220SOL    HW240558  12.739  14.177   9.470
46221SOL     OW40559   2.155   3.708   1.383
46221SOL    HW140560   2.139   3.672   1.470
46221SOL    HW240561   2.184   3.633   1.331
46222SOL     OW40562  11.196  10.146   5.784
46222SOL    HW140563  11.162  10.232   5.761
46222SOL    HW240564  11.249  10.161   5.862
46223SOL     OW40565  10.779  14.222   3.524
46223SOL    HW140566  10.816  14.196   3.440
46223SOL    HW240567  10.798  14.316   3.530
46224SOL     OW40568   3.555  10.795  10.569
46224SOL    HW140569   3.602  10.863  10.617
46224SOL    HW240570   3.544  10.831  10.481
46225SOL     OW40571   9.679   1.705  10.279
46225SOL    HW140572   9.662   1.619  10.318
46225SOL    HW240573   9.604   1.721  10.222
46226SOL     OW40574  13.527  10.565   8.302
46226SOL    HW140575  13.541  10.612   8.384
46226SOL    HW240576  13.486  10.629   8.245
46227SOL     OW40577   8.450   7.759   0.589
46227SOL    HW140578   8.463   7.829   0.525
46227SOL    HW240579   8.361   7.770   0.620
46228SOL     OW40580   5.606  10.213  11.220
46228SOL    HW140581   5.688  10.170  11.195
46228SOL    HW240582   5.576  10.257  11.140
46229SOL     OW40583  10.115   9.873   1.634
46229SOL    HW140584  10.167   9.817   1.576
46229SOL    HW240585  10.043   9.816   1.663
46230SOL     OW40586  11.567   8.206  13.367
46230SOL    HW140587  11.512   8.130  13.346
46230SOL    HW240588  11.590   8.242  13.281
46231SOL     OW40589   0.162   0.878   4.938
46231SOL    HW140590   0.240   0.910   4.892
46231SOL    HW240591   0.180   0.786   4.955
46232SOL     OW40592   4.320   1.613   2.094
46232SOL    HW140593   4.290   1.656   2.014
46232SOL    HW240594   4.316   1.682   2.161
46233SOL     OW40595  14.236   2.048   9.459
46233SOL    HW140596  14.239   2.086   9.372
46233SOL    HW240597  14.213   2.121   9.517
46234SOL     OW40598  14.074   0.700   3.945
46234SOL    HW140599  14.163   0.711   3.977
46234SOL    HW240600  14.025   0.772   3.986
46235SOL     OW40601  13.833  10.174  13.815
46235SOL    HW140602  13.811  10.162  13.907
46235SOL    HW240603  13.839  10.269  13.803
46236SOL     OW40604  10.311   2.388   2.987
46236SOL    HW140605  10.317   2.321   3.055
46236SOL    HW240606  10.394   2.435   2.992
46237SOL     OW40607   1.818   8.863   7.034
46237SOL    HW140608   1.782   8.949   7.056
46237SOL    HW240609   1.748   8.818   6.987
46238SOL     OW40610   1.501  11.927  13.651
46238SOL    HW140611   1.463  11.880  13.725
46238SOL    HW240612   1.471  12.017  13.663
46239SOL     OW40613   8.886   5.386   0.527
46239SOL    HW140614   8.808   5.434   0.553
46239SOL    HW240615   8.956   5.451   0.528
46240SOL     OW40616   6.876   9.724   5.260
46240SOL    HW140617   6.911   9.708   5.172
46240SOL    HW240618   6.939   9.783   5.300
46241SOL     OW40619   4.489  13.390   9.378
46241SOL    HW140620   4.498  13.296   9.387
46241SOL    HW240621   4.422  13.414   9.442
46242SOL     OW40622   7.316   2.078   8.245
46242SOL    HW140623   7.381   2.137   8.207
46242SOL    HW240624   7.360   2.038   8.320
46243SOL     OW40625  11.382   1.294  13.073
46243SOL    HW140626  11.421   1.381  13.078
46243SOL    HW240627  11.433   1.241  13.134
46244SOL     OW40628   8.575   7.894  14.634
46244SOL    HW140629   8.564   7.977  14.587
46244SOL    HW240630   8.578   7.827  14.566
46245SOL     OW40631  11.958   0.284   0.306
46245SOL    HW140632  11.986   0.358   0.252
46245SOL    HW240633  11.930   0.324   0.388
46246SOL     OW40634   7.420   7.806   5.012
46246SOL    HW140635   7.397   7.866   4.941
46246SOL    HW240636   7.388   7.720   4.982
46247SOL     OW40637   7.196   4.694   6.226
46247SOL    HW140638   7.146   4.630   6.177
46247SOL    HW240639   7.167   4.779   6.192
46248SOL     OW40640   1.245   1.306   9.791
46248SOL    HW140641   1.191   1.273   9.719
46248SOL    HW240642   1.265   1.229   9.844
46249SOL     OW40643  12.523  14.099  14.376
46249SOL    HW140644  12.450  14.135  14.327
46249SOL    HW240645  12.580  14.174  14.393
46250SOL     OW40646  14.599   0.608   0.942
46250SOL    HW140647  14.567   0.552   0.872
46250SOL    HW240648  14.695   0.598   0.939
46251SOL     OW40649  10.463   4.865   3.250
46251SOL    HW140650  10.445   4.880   3.158
46251SOL    HW240651  10.545   4.816   3.251
46252SOL     OW40652   6.549  13.572  11.728
46252SOL    HW140653   6.604  13.623  11.787
46252SOL    HW240654   6.599  13.492  11.712
46253SOL     OW40655  11.181  12.648   9.154
46253SOL    HW140656  11.135  12.565   9.153
46253SOL    HW240657  11.271  12.626   9.177
46254SOL     OW40658  12.539   7.206   8.526
46254SOL    HW140659  12.465   7.210   8.465
46254SOL    HW240660  12.605   7.263   8.486
46255SOL     OW40661  11.559   5.468   7.995
46255SOL    HW140662  11.644   5.461   8.038
46255SOL    HW240663  11.534   5.378   7.974
46256SOL     OW40664   9.669  13.689   9.510
46256SOL    HW140665   9.724  13.611   9.502
46256SOL    HW240666   9.713  13.756   9.458
46257SOL     OW40667  10.027   6.975   8.809
46257SOL    HW140668  10.029   7.017   8.895
46257SOL    HW240669   9.966   6.901   8.820
46258SOL     OW40670   2.677  11.738   4.131
46258SOL    HW140671   2.673  11.737   4.227
46258SOL    HW240672   2.723  11.657   4.108
46259SOL     OW40673   1.136   8.733   0.029
46259SOL    HW140674   1.183   8.649   0.034
46259SOL    HW240675   1.044   8.709   0.029
46260SOL     OW40676   7.958   6.604   9.187
46260SOL    HW140677   7.897   6.606   9.261
46260SOL    HW240678   7.905   6.631   9.112
46261SOL     OW40679  13.013   7.457  10.420
46261SOL    HW140680  13.095   7.468  10.371
46261SOL    HW240681  12.948   7.434  10.354
46262SOL     OW40682   4.110  10.357   5.261
46262SOL    HW140683   4.205  10.348   5.271
46262SOL    HW240684   4.073  10.293   5.320
46263SOL     OW40685  13.997   1.837   2.511
46263SOL    HW140686  14.053   1.793   2.575
46263SOL    HW240687  13.962   1.765   2.458
46264SOL     OW40688   5.057   6.966   1.981
46264SOL    HW140689   5.015   6.900   2.036
46264SOL    HW240690   5.147   6.934   1.969
46265SOL     OW40691  12.973   3.846  13.439
46265SOL    HW140692  13.023   3.813  13.514
46265SOL    HW240693  12.884   3.856  13.473
46266SOL     OW40694   5.562  12.179  13.277
46266SOL    HW140695   5.542  12.102  13.330
46266SOL    HW240696   5.594  12.243  13.340
46267SOL     OW40697   2.022   9.476   7.876
46267SOL    HW140698   2.009   9.520   7.959
46267SOL    HW240699   1.934   9.452   7.847
46268SOL     OW40700   1.975   9.953   7.547
46268SOL    HW140701   1.940   9.927   7.462
46268SOL    HW240702   1.899   9.959   7.604
46269SOL     OW40703  10.122  13.131   0.946
46269SOL    HW140704  10.042  13.080   0.932
46269SOL    HW240705  10.125  13.144   1.041
46270SOL     OW40706   1.758   7.249  10.400
46270SOL    HW140707   1.733   7.308  10.329
46270SOL    HW240708   1.683   7.247  10.459
46271SOL     OW40709   0.604   4.876   7.993
46271SOL    HW140710   0.613   4.791   8.036
46271SOL    HW240711   0.694   4.910   7.990
46272SOL     OW40712  11.293   3.536  11.759
46272SOL    HW140713  11.200   3.528  11.782
46272SOL    HW240714  11.303   3.482  11.680
46273SOL     OW40715  11.610   4.753  12.625
46273SOL    HW140716  11.634   4.727  12.713
46273SOL    HW240717  11.694   4.765  12.580
46274SOL     OW40718   4.234  13.842   4.971
46274SOL    HW140719   4.267  13.785   4.902
46274SOL    HW240720   4.283  13.924   4.960
46275SOL     OW40721   6.330   7.523   8.662
46275SOL    HW140722   6.414   7.565   8.677
46275SOL    HW240723   6.293   7.510   8.749
46276SOL     OW40724   0.682   9.266   5.880
46276SOL    HW140725   0.625   9.327   5.834
46276SOL    HW240726   0.697   9.307   5.965
46277SOL     OW40727   4.137   5.747  14.746
46277SOL    HW140728   4.151   5.733  14.652
46277SOL    HW240729   4.187   5.676  14.788
46278SOL     OW40730  14.583   4.085  13.968
46278SOL    HW140731  14.586   4.166  13.917
46278SOL    HW240732  14.547   4.020  13.908
46279SOL     OW40733  10.937  13.385   4.590
46279SOL    HW140734  11.030  13.390   4.569
46279SOL    HW240735  10.893  13.384   4.505
46280SOL     OW40736  12.912   4.542  10.103
46280SOL    HW140737  13.004   4.532  10.126
46280SOL    HW240738  12.905   4.632  10.071
46281SOL     OW40739  12.786  13.189  10.762
46281SOL    HW140740  12.784  13.094  10.756
46281SOL    HW240741  12.696  13.214  10.785
46282SOL     OW40742   1.888   8.572  13.178
46282SOL    HW140743   1.807   8.616  13.151
46282SOL    HW240744   1.908   8.512  13.107
46283SOL     OW40745   1.893   4.326   9.424
46283SOL    HW140746   1.832   4.253   9.413
46283SOL    HW240747   1.944   4.303   9.502
46284SOL     OW40748   3.104   7.102  10.153
46284SOL    HW140749   3.089   7.037  10.084
46284SOL    HW240750   3.048   7.176  10.129
46285SOL     OW40751  11.554  13.046   9.179
46285SOL    HW140752  11.580  12.985   9.248
46285SOL    HW240753  11.460  13.033   9.169
46286SOL     OW40754   2.902   7.349   9.630
46286SOL    HW140755   2.888   7.342   9.536
46286SOL    HW240756   2.860   7.270   9.666
46287SOL     OW40757   5.131   5.769  11.683
46287SOL    HW140758   5.043   5.803  11.701
46287SOL    HW240759   5.176   5.775  11.767
46288SOL     OW40760  10.871   2.163  10.641
46288SOL    HW140761  10.915   2.217  10.576
46288SOL    HW240762  10.880   2.074  10.609
46289SOL     OW40763   1.525   3.858   8.130
46289SOL    HW140764   1.441   3.824   8.101
46289SOL    HW240765   1.530   3.834   8.223
46290SOL     OW40766   8.605  12.177  10.724
46290SOL    HW140767   8.672  12.183  10.655
46290SOL    HW240768   8.566  12.091  10.711
46291SOL     OW40769  12.247   9.184   9.195
46291SOL    HW140770  12.233   9.089   9.202
46291SOL    HW240771  12.159   9.221   9.188
46292SOL     OW40772  11.856   8.807  10.713
46292SOL    HW140773  11.801   8.876  10.751
46292SOL    HW240774  11.815   8.725  10.741
46293SOL     OW40775   7.710   6.381   1.505
46293SOL    HW140776   7.737   6.437   1.432
46293SOL    HW240777   7.772   6.402   1.575
46294SOL     OW40778   7.345   0.242   0.948
46294SOL    HW140779   7.297   0.312   0.993
46294SOL    HW240780   7.277   0.182   0.919
46295SOL     OW40781   4.707   4.416  13.365
46295SOL    HW140782   4.646   4.347  13.338
46295SOL    HW240783   4.692   4.487  13.303
46296SOL     OW40784   3.654  11.124  10.029
46296SOL    HW140785   3.593  11.104   9.958
46296SOL    HW240786   3.686  11.212  10.009
46297SOL     OW40787   5.297   7.181  12.443
46297SOL    HW140788   5.214   7.134  12.436
46297SOL    HW240789   5.275   7.260  12.493
46298SOL     OW40790   8.561  13.027   1.903
46298SOL    HW140791   8.514  13.038   1.986
46298SOL    HW240792   8.513  13.083   1.841
46299SOL     OW40793   8.329   7.359   0.344
46299SOL    HW140794   8.421   7.355   0.318
46299SOL    HW240795   8.325   7.430   0.409
46300SOL     OW40796   4.799  10.853  11.890
46300SOL    HW140797   4.768  10.908  11.962
46300SOL    HW240798   4.872  10.902  11.852
46301SOL     OW40799   3.646   7.446   2.247
46301SOL    HW140800   3.694   7.525   2.223
46301SOL    HW240801   3.696   7.409   2.320
46302SOL     OW40802   4.266   0.317   7.677
46302SOL    HW140803   4.329   0.313   7.605
46302SOL    HW240804   4.278   0.235   7.724
46303SOL     OW40805  11.522   0.467   7.044
46303SOL    HW140806  11.430   0.490   7.027
46303SOL    HW240807  11.567   0.552   7.049
46304SOL     OW40808   8.435   8.627  11.492
46304SOL    HW140809   8.445   8.554  11.432
46304SOL    HW240810   8.472   8.596  11.575
46305SOL     OW40811   9.355  11.754   7.140
46305SOL    HW140812   9.300  11.793   7.072
46305SOL    HW240813   9.443  11.787   7.120
46306SOL     OW40814  14.035   2.736   7.333
46306SOL    HW140815  14.126   2.708   7.331
46306SOL    HW240816  13.985   2.655   7.337
46307SOL     OW40817   6.306  10.396   2.892
46307SOL    HW140818   6.298  10.477   2.942
46307SOL    HW240819   6.268  10.329   2.950
46308SOL     OW40820  14.046   1.900  10.302
46308SOL    HW140821  14.077   1.814  10.331
46308SOL    HW240822  14.011   1.885  10.214
46309SOL     OW40823  13.438  13.978   3.958
46309SOL    HW140824  13.398  14.065   3.965
46309SOL    HW240825  13.524  13.988   3.999
46310SOL     OW40826   9.303   9.920  10.455
46310SOL    HW140827   9.313   9.851  10.390
46310SOL    HW240828   9.271   9.995  10.406
46311SOL     OW40829   2.682  14.011  13.455
46311SOL    HW140830   2.744  13.963  13.400
46311SOL    HW240831   2.624  13.944  13.490
46312SOL     OW40832   4.617   9.667   3.034
46312SOL    HW140833   4.623   9.750   2.986
46312SOL    HW240834   4.615   9.693   3.126
46313SOL     OW40835   5.665   5.109   8.798
46313SOL    HW140836   5.730   5.065   8.853
46313SOL    HW240837   5.713   5.132   8.718
46314SOL     OW40838   4.660  10.910   5.589
46314SOL    HW140839   4.695  11.000   5.591
46314SOL    HW240840   4.711  10.863   5.655
46315SOL     OW40841   3.502   6.574   9.994
46315SOL    HW140842   3.542   6.521  10.063
46315SOL    HW240843   3.564   6.645   9.979
46316SOL     OW40844   4.506  14.365   2.578
46316SOL    HW140845   4.512  14.297   2.645
46316SOL    HW240846   4.418  14.356   2.542
46317SOL     OW40847  14.395   9.201   7.404
46317SOL    HW140848  14.334   9.262   7.445
46317SOL    HW240849  14.394   9.124   7.461
46318SOL     OW40850  14.033  13.506   9.082
46318SOL    HW140851  14.094  13.526   9.153
46318SOL    HW240852  14.019  13.411   9.088
46319SOL     OW40853  14.476  14.806   4.616
46319SOL    HW140854  14.403  14.745   4.610
46319SOL    HW240855  14.460  14.870   4.546
46320SOL     OW40856   8.274   6.893   1.694
46320SOL    HW140857   8.200   6.952   1.705
46320SOL    HW240858   8.235   6.810   1.667
46321SOL     OW40859  13.094   5.101  13.970
46321SOL    HW140860  13.053   5.177  13.928
46321SOL    HW240861  13.089   5.032  13.905
46322SOL     OW40862  10.406  12.791  12.620
46322SOL    HW140863  10.466  12.755  12.684
46322SOL    HW240864  10.327  12.812  12.669
46323SOL     OW40865   1.855   5.315  14.752
46323SOL    HW140866   1.771   5.276  14.731
46323SOL    HW240867   1.902   5.247  14.801
46324SOL     OW40868  14.822   9.662   2.797
46324SOL    HW140869  14.820   9.750   2.834
46324SOL    HW240870   0.043   9.640   2.793
46325SOL     OW40871  13.927   2.381  11.000
46325SOL    HW140872  13.836   2.365  11.024
46325SOL    HW240873  13.957   2.297  10.963
46326SOL     OW40874   5.772   1.526   4.583
46326SOL    HW140875   5.856   1.480   4.584
46326SOL    HW240876   5.787   1.603   4.528
46327SOL     OW40877   8.114   7.578   8.845
46327SOL    HW140878   8.042   7.553   8.904
46327SOL    HW240879   8.099   7.670   8.826
46328SOL     OW40880   9.932   3.238   6.539
46328SOL    HW140881   9.839   3.214   6.535
46328SOL    HW240882   9.966   3.218   6.452
46329SOL     OW40883   3.161  10.181   3.875
46329SOL    HW140884   3.188  10.273   3.876
46329SOL    HW240885   3.243  10.132   3.874
46330SOL     OW40886   0.132  10.889  12.104
46330SOL    HW140887   0.196  10.875  12.174
46330SOL    HW240888   0.050  10.907  12.150
46331SOL     OW40889   4.544  10.544   5.126
46331SOL    HW140890   4.603  10.618   5.114
46331SOL    HW240891   4.463  10.584   5.159
46332SOL     OW40892   5.219  13.190   0.959
46332SOL    HW140893   5.208  13.108   1.009
46332SOL    HW240894   5.314  13.202   0.954
46333SOL     OW40895   5.080   5.248   1.467
46333SOL    HW140896   5.135   5.188   1.416
46333SOL    HW240897   4.993   5.208   1.463
46334SOL     OW40898  13.409   2.407  10.643
46334SOL    HW140899  13.432   2.342  10.577
46334SOL    HW240900  13.473   2.395  10.713
46335SOL     OW40901  14.598   9.039   1.630
46335SOL    HW140902  14.653   8.965   1.603
46335SOL    HW240903  14.621   9.109   1.569
46336SOL     OW40904   1.619   5.799   4.986
46336SOL    HW140905   1.646   5.781   4.895
46336SOL    HW240906   1.529   5.768   4.991
46337SOL     OW40907   4.216   7.411   0.776
46337SOL    HW140908   4.152   7.406   0.847
46337SOL    HW240909   4.298   7.383   0.815
46338SOL     OW40910   8.427  14.259   2.353
46338SOL    HW140911   8.510  14.303   2.370
46338SOL    HW240912   8.411  14.208   2.433
46339SOL     OW40913  14.853   3.928   2.521
46339SOL    HW140914  14.823   3.894   2.605
46339SOL    HW240915  14.840   4.023   2.527
46340SOL     OW40916   4.570   8.522   4.128
46340SOL    HW140917   4.517   8.492   4.202
46340SOL    HW240918   4.654   8.479   4.141
46341SOL     OW40919   5.313   6.111   1.458
46341SOL    HW140920   5.262   6.073   1.529
46341SOL    HW240921   5.256   6.178   1.420
46342SOL     OW40922   6.583  14.608  11.997
46342SOL    HW140923   6.573  14.662  11.919
46342SOL    HW240924   6.654  14.547  11.975
46343SOL     OW40925   0.827   8.256   0.509
46343SOL    HW140926   0.871   8.249   0.593
46343SOL    HW240927   0.734   8.261   0.531
46344SOL     OW40928  10.576   8.873   2.823
46344SOL    HW140929  10.594   8.950   2.769
46344SOL    HW240930  10.627   8.803   2.783
46345SOL     OW40931   1.476   3.154   1.124
46345SOL    HW140932   1.497   3.068   1.087
46345SOL    HW240933   1.524   3.157   1.207
46346SOL     OW40934   2.539   3.119  14.544
46346SOL    HW140935   2.510   3.205  14.513
46346SOL    HW240936   2.477   3.057  14.505
46347SOL     OW40937   0.439   4.123   0.311
46347SOL    HW140938   0.509   4.178   0.346
46347SOL    HW240939   0.362   4.147   0.361
46348SOL     OW40940  10.618   3.949  11.849
46348SOL    HW140941  10.619   4.030  11.900
46348SOL    HW240942  10.646   3.976  11.761
46349SOL     OW40943  12.215  11.561  10.080
46349SOL    HW140944  12.129  11.582  10.045
46349SOL    HW240945  12.238  11.635  10.135
46350SOL     OW40946   0.361   5.098  14.591
46350SOL    HW140947   0.430   5.076  14.528
46350SOL    HW240948   0.396   5.070  14.675
46351SOL     OW40949  12.431  14.430   5.454
46351SOL    HW140950  12.429  14.426   5.550
46351SOL    HW240951  12.387  14.350   5.426
46352SOL     OW40952   5.091   6.212   3.346
46352SOL    HW140953   5.111   6.122   3.320
46352SOL    HW240954   4.996   6.214   3.359
46353SOL     OW40955  12.569  12.158  12.933
46353SOL    HW140956  12.512  12.134  12.859
46353SOL    HW240957  12.621  12.079  12.949
46354SOL     OW40958   4.042   2.316   9.633
46354SOL    HW140959   4.098   2.309   9.711
46354SOL    HW240960   4.102   2.304   9.559
46355SOL     OW40961   8.490   5.333  12.927
46355SOL    HW140962   8.461   5.258  12.978
46355SOL    HW240963   8.559   5.298  12.870
46356SOL     OW40964   3.630  13.721  12.150
46356SOL    HW140965   3.683  13.666  12.209
46356SOL    HW240966   3.573  13.659  12.105
46357SOL     OW40967   0.147  12.751   8.982
46357SOL    HW140968   0.150  12.663   8.945
46357SOL    HW240969   0.236  12.767   9.014
46358SOL     OW40970  11.535   2.013   0.885
46358SOL    HW140971  11.630   2.029   0.885
46358SOL    HW240972  11.511   2.018   0.978
46359SOL     OW40973   0.067   0.039   3.632
46359SOL    HW140974   0.111   0.029   3.548
46359SOL    HW240975  14.852   0.075   3.610
46360SOL     OW40976   2.593   6.176   3.859
46360SOL    HW140977   2.674   6.171   3.909
46360SOL    HW240978   2.536   6.232   3.911
46361SOL     OW40979   3.306   3.285  13.901
46361SOL    HW140980   3.323   3.223  13.972
46361SOL    HW240981   3.256   3.356  13.942
46362SOL     OW40982  14.768  12.970   3.303
46362SOL    HW140983  14.851  12.925   3.319
46362SOL    HW240984  14.759  12.971   3.208
46363SOL     OW40985   2.490   4.241  14.446
46363SOL    HW140986   2.528   4.226  14.533
46363SOL    HW240987   2.455   4.330  14.451
46364SOL     OW40988   5.978   6.751   5.012
46364SOL    HW140989   6.057   6.711   5.049
46364SOL    HW240990   6.009   6.831   4.970
46365SOL     OW40991   8.150   1.653   8.385
46365SOL    HW140992   8.245   1.656   8.367
46365SOL    HW240993   8.125   1.563   8.364
46366SOL     OW40994   3.110   2.784   0.775
46366SOL    HW140995   3.045   2.713   0.782
46366SOL    HW240996   3.167   2.771   0.850
46367SOL     OW40997   5.032   8.680   0.539
46367SOL    HW140998   5.083   8.606   0.506
46367SOL    HW240999   5.069   8.699   0.625
46368SOL     OW41000  10.284  13.328  11.923
46368SOL    HW141001  10.311  13.413  11.959
46368SOL    HW241002  10.233  13.287  11.993
46369SOL     OW41003   3.542  10.809   6.370
46369SOL    HW141004   3.541  10.741   6.302
46369SOL    HW241005   3.493  10.771   6.443
46370SOL     OW41006  10.346  10.950   5.044
46370SOL    HW141007  10.362  11.041   5.020
46370SOL    HW241008  10.312  10.910   4.963
46371SOL     OW41009   6.102  12.959   2.583
46371SOL    HW141010   6.058  13.035   2.620
46371SOL    HW241011   6.042  12.886   2.602
46372SOL     OW41012   0.466   3.498   2.535
46372SOL    HW141013   0.403   3.566   2.511
46372SOL    HW241014   0.542   3.546   2.569
46373SOL     OW41015   0.537   8.999  13.906
46373SOL    HW141016   0.503   8.985  13.994
46373SOL    HW241017   0.548   9.093  13.899
46374SOL     OW41018   4.903  14.506   8.043
46374SOL    HW141019   4.946  14.548   8.117
46374SOL    HW241020   4.811  14.531   8.052
46375SOL     OW41021   8.879  12.702  12.564
46375SOL    HW141022   8.873  12.607  12.557
46375SOL    HW241023   8.827  12.734  12.489
46376SOL     OW41024  12.259  10.163  13.522
46376SOL    HW141025  12.292  10.252  13.531
46376SOL    HW241026  12.262  10.126  13.610
46377SOL     OW41027   4.778   6.211  12.270
46377SOL    HW141028   4.837   6.208  12.345
46377SOL    HW241029   4.784   6.301  12.238
46378SOL     OW41030   0.129  10.092   3.604
46378SOL    HW141031   0.106  10.155   3.672
46378SOL    HW241032   0.154  10.013   3.652
46379SOL     OW41033   2.910   4.129   7.836
46379SOL    HW141034   2.822   4.133   7.800
46379SOL    HW241035   2.919   4.210   7.887
46380SOL     OW41036   0.570   3.276  12.463
46380SOL    HW141037   0.569   3.321  12.379
46380SOL    HW241038   0.541   3.187  12.443
46381SOL     OW41039  13.556   6.206   5.925
46381SOL    HW141040  13.555   6.177   6.016
46381SOL    HW241041  13.561   6.302   5.930
46382SOL     OW41042   0.408   8.160  11.495
46382SOL    HW141043   0.377   8.229  11.554
46382SOL    HW241044   0.500   8.181  11.480
46383SOL     OW41045  10.512  13.403   9.877
46383SOL    HW141046  10.569  13.383   9.802
46383SOL    HW241047  10.431  13.435   9.837
46384SOL     OW41048   8.263  12.668   9.164
46384SOL    HW141049   8.354  12.669   9.136
46384SOL    HW241050   8.243  12.576   9.180
46385SOL     OW41051   4.945  11.846  11.751
46385SOL    HW141052   4.996  11.924  11.772
46385SOL    HW241053   4.936  11.800  11.834
46386SOL     OW41054   5.098   5.320  10.183
46386SOL    HW141055   5.058   5.361  10.107
46386SOL    HW241056   5.175   5.274  10.148
46387SOL     OW41057   3.979   4.619   4.028
46387SOL    HW141058   3.959   4.526   4.025
46387SOL    HW241059   4.033   4.635   3.950
46388SOL     OW41060   4.287   2.400   4.975
46388SOL    HW141061   4.255   2.316   4.940
46388SOL    HW241062   4.254   2.465   4.913
46389SOL     OW41063   5.296   7.212   9.710
46389SOL    HW141064   5.316   7.204   9.803
46389SOL    HW241065   5.353   7.148   9.668
46390SOL     OW41066  11.554   8.861   0.256
46390SOL    HW141067  11.513   8.940   0.219
46390SOL    HW241068  11.494   8.790   0.233
46391SOL     OW41069   8.289  12.752   4.590
46391SOL    HW141070   8.223  12.812   4.556
46391SOL    HW241071   8.346  12.807   4.644
46392SOL     OW41072   2.412   8.987  11.868
46392SOL    HW141073   2.387   8.937  11.790
46392SOL    HW241074   2.365   8.944  11.939
46393SOL     OW41075   9.647   4.796   8.811
46393SOL    HW141076   9.586   4.727   8.835
46393SOL    HW241077   9.731   4.768   8.848
46394SOL     OW41078   9.300   4.809   4.111
46394SOL    HW141079   9.360   4.788   4.183
46394SOL    HW241080   9.212   4.795   4.148
46395SOL     OW41081  11.822   9.093  10.885
46395SOL    HW141082  11.916   9.082  10.869
46395SOL    HW241083  11.797   9.168  10.831
46396SOL     OW41084   7.582   6.846   9.226
46396SOL    HW141085   7.509   6.905   9.246
46396SOL    HW241086   7.607   6.869   9.137
46397SOL     OW41087   6.497   5.885   0.828
46397SOL    HW141088   6.476   5.909   0.918
46397SOL    HW241089   6.416   5.899   0.780
46398SOL     OW41090  13.416  12.733   8.317
46398SOL    HW141091  13.443  12.787   8.390
46398SOL    HW241092  13.413  12.793   8.242
46399SOL     OW41093   0.559   3.358   5.132
46399SOL    HW141094   0.504   3.436   5.130
46399SOL    HW241095   0.631   3.377   5.072
46400SOL     OW41096   3.296  11.853  10.128
46400SOL    HW141097   3.246  11.783  10.086
46400SOL    HW241098   3.274  11.844  10.221
46401SOL     OW41099   2.933  11.125  10.038
46401SOL    HW141100   2.992  11.053  10.061
46401SOL    HW241101   2.950  11.141   9.946
46402SOL     OW41102  10.196  13.483   9.754
46402SOL    HW141103  10.245  13.489   9.671
46402SOL    HW241104  10.147  13.402   9.747
46403SOL     OW41105  10.055   7.184  12.142
46403SOL    HW141106  10.098   7.142  12.068
46403SOL    HW241107   9.962   7.169  12.127
46404SOL     OW41108   7.213  13.021  10.366
46404SOL    HW141109   7.122  12.999  10.386
46404SOL    HW241110   7.211  13.049  10.274
46405SOL     OW41111   0.398   3.376   8.468
46405SOL    HW141112   0.441   3.405   8.388
46405SOL    HW241113   0.331   3.442   8.486
46406SOL     OW41114  11.120   2.620   3.912
46406SOL    HW141115  11.174   2.692   3.943
46406SOL    HW241116  11.068   2.657   3.840
46407SOL     OW41117   2.560   5.464  10.966
46407SOL    HW141118   2.591   5.419  10.887
46407SOL    HW241119   2.630   5.450  11.030
46408SOL     OW41120   5.989   8.356   9.685
46408SOL    HW141121   5.988   8.345   9.780
46408SOL    HW241122   5.897   8.373   9.662
46409SOL     OW41123  13.059   6.684   6.566
46409SOL    HW141124  12.987   6.621   6.562
46409SOL    HW241125  13.040   6.737   6.643
46410SOL     OW41126   7.037  14.324   7.722
46410SOL    HW141127   7.023  14.243   7.771
46410SOL    HW241128   7.028  14.299   7.630
46411SOL     OW41129  10.652   9.836   4.514
46411SOL    HW141130  10.662   9.858   4.421
46411SOL    HW241131  10.730   9.785   4.536
46412SOL     OW41132   6.357   1.237   2.922
46412SOL    HW141133   6.276   1.280   2.895
46412SOL    HW241134   6.331   1.180   2.995
46413SOL     OW41135   6.712  10.335   5.977
46413SOL    HW141136   6.760  10.353   6.058
46413SOL    HW241137   6.676  10.420   5.951
46414SOL     OW41138   6.912  13.846   4.680
46414SOL    HW141139   6.948  13.934   4.695
46414SOL    HW241140   6.832  13.861   4.630
46415SOL     OW41141   1.980  10.610   3.191
46415SOL    HW141142   2.005  10.573   3.276
46415SOL    HW241143   1.885  10.608   3.190
46416SOL     OW41144   1.500   5.103  12.847
46416SOL    HW141145   1.433   5.153  12.801
46416SOL    HW241146   1.560   5.073  12.779
46417SOL     OW41147  11.484  13.240   6.720
46417SOL    HW141148  11.444  13.325   6.739
46417SOL    HW241149  11.577  13.253   6.739
46418SOL     OW41150   0.963   2.918   4.713
46418SOL    HW141151   0.878   2.877   4.729
46418SOL    HW241152   0.982   2.897   4.621
46419SOL     OW41153  14.159   5.184   0.846
46419SOL    HW141154  14.104   5.124   0.896
46419SOL    HW241155  14.173   5.138   0.763
46420SOL     OW41156   2.925  11.019   3.368
46420SOL    HW141157   2.913  10.960   3.294
46420SOL    HW241158   2.986  11.086   3.336
46421SOL     OW41159   0.588  10.326   7.400
46421SOL    HW141160   0.585  10.324   7.304
46421SOL    HW241161   0.678  10.300   7.421
46422SOL     OW41162   7.430   9.090  11.612
46422SOL    HW141163   7.396   9.025  11.672
46422SOL    HW241164   7.415   9.174  11.655
46423SOL     OW41165   0.456   8.626   7.519
46423SOL    HW141166   0.409   8.656   7.597
46423SOL    HW241167   0.388   8.590   7.462
46424SOL     OW41168   1.731   9.609   5.754
46424SOL    HW141169   1.793   9.559   5.806
46424SOL    HW241170   1.780   9.638   5.677
46425SOL     OW41171   9.848  12.862   7.368
46425SOL    HW141172   9.777  12.907   7.322
46425SOL    HW241173   9.914  12.929   7.383
46426SOL     OW41174   0.997   1.632   5.330
46426SOL    HW141175   0.924   1.604   5.387
46426SOL    HW241176   1.055   1.680   5.388
46427SOL     OW41177  11.683  11.122  12.626
46427SOL    HW141178  11.650  11.037  12.596
46427SOL    HW241179  11.733  11.103  12.705
46428SOL     OW41180  11.453   0.547  12.196
46428SOL    HW141181  11.480   0.584  12.112
46428SOL    HW241182  11.422   0.623  12.247
46429SOL     OW41183   5.110   6.330   2.787
46429SOL    HW141184   5.121   6.295   2.875
46429SOL    HW241185   5.198   6.357   2.760
46430SOL     OW41186   3.107  11.668  10.064
46430SOL    HW141187   3.177  11.603  10.055
46430SOL    HW241188   3.027  11.619  10.047
46431SOL     OW41189  10.472  10.779   8.638
46431SOL    HW141190  10.478  10.809   8.728
46431SOL    HW241191  10.521  10.696   8.637
46432SOL     OW41192   8.722   1.238  12.603
46432SOL    HW141193   8.699   1.243  12.511
46432SOL    HW241194   8.744   1.328  12.628
46433SOL     OW41195   9.139   2.361   2.125
46433SOL    HW141196   9.107   2.310   2.198
46433SOL    HW241197   9.222   2.320   2.101
46434SOL     OW41198   8.941   6.389   1.382
46434SOL    HW141199   8.958   6.366   1.290
46434SOL    HW241200   9.009   6.342   1.431
46435SOL     OW41201   6.625   1.240   6.854
46435SOL    HW141202   6.579   1.209   6.932
46435SOL    HW241203   6.657   1.327   6.877
46436SOL     OW41204  13.646   7.805   4.430
46436SOL    HW141205  13.735   7.810   4.397
46436SOL    HW241206  13.593   7.852   4.365
46437SOL     OW41207   5.607   0.946   0.678
46437SOL    HW141208   5.593   0.895   0.599
46437SOL    HW241209   5.528   0.933   0.730
46438SOL     OW41210   9.378   2.953   4.014
46438SOL    HW141211   9.349   2.996   4.095
46438SOL    HW241212   9.393   2.862   4.040
46439SOL     OW41213  10.032   2.322   3.289
46439SOL    HW141214  10.058   2.289   3.203
46439SOL    HW241215  10.110   2.367   3.322
46440SOL     OW41216   2.574  13.376   9.860
46440SOL    HW141217   2.536  13.463   9.877
46440SOL    HW241218   2.516  13.316   9.907
46441SOL     OW41219   3.645  13.789   9.754
46441SOL    HW141220   3.562  13.834   9.770
46441SOL    HW241221   3.627  13.731   9.680
46442SOL     OW41222   0.147   2.260   4.060
46442SOL    HW141223   0.083   2.314   4.105
46442SOL    HW241224   0.230   2.308   4.069
46443SOL     OW41225   9.565  12.889   0.588
46443SOL    HW141226   9.646  12.838   0.586
46443SOL    HW241227   9.591  12.977   0.561
46444SOL     OW41228  10.731   9.024   9.850
46444SOL    HW141229  10.804   9.081   9.875
46444SOL    HW241230  10.725   9.032   9.755
46445SOL     OW41231   4.167   0.789   4.838
46445SOL    HW141232   4.141   0.848   4.909
46445SOL    HW241233   4.100   0.720   4.839
46446SOL     OW41234   0.155   7.460   4.122
46446SOL    HW141235   0.205   7.399   4.069
46446SOL    HW241236   0.193   7.453   4.210
46447SOL     OW41237  14.670   5.755   9.716
46447SOL    HW141238  14.741   5.734   9.776
46447SOL    HW241239  14.593   5.762   9.772
46448SOL     OW41240   7.541  12.649  13.195
46448SOL    HW141241   7.568  12.622  13.107
46448SOL    HW241242   7.446  12.643  13.193
46449SOL     OW41243   6.145   4.705   6.858
46449SOL    HW141244   6.164   4.758   6.935
46449SOL    HW241245   6.229   4.670   6.831
46450SOL     OW41246   7.659  12.566  12.318
46450SOL    HW141247   7.662  12.654  12.281
46450SOL    HW241248   7.616  12.578  12.403
46451SOL     OW41249  10.727   2.443  14.328
46451SOL    HW141250  10.783   2.468  14.255
46451SOL    HW241251  10.772   2.477  14.406
46452SOL     OW41252  10.037   3.749  13.444
46452SOL    HW141253   9.947   3.754  13.476
46452SOL    HW241254  10.040   3.809  13.370
46453SOL     OW41255   3.110   3.684   9.059
46453SOL    HW141256   3.131   3.709   8.969
46453SOL    HW241257   3.060   3.603   9.051
46454SOL     OW41258   9.604   5.630   3.237
46454SOL    HW141259   9.562   5.662   3.316
46454SOL    HW241260   9.535   5.582   3.191
46455SOL     OW41261   8.177   1.573   2.295
46455SOL    HW141262   8.229   1.504   2.253
46455SOL    HW241263   8.127   1.612   2.224
46456SOL     OW41264   7.537   3.375   1.331
46456SOL    HW141265   7.574   3.415   1.410
46456SOL    HW241266   7.613   3.348   1.280
46457SOL     OW41267   1.415   2.838  13.249
46457SOL    HW141268   1.373   2.853  13.164
46457SOL    HW241269   1.509   2.840  13.230
46458SOL     OW41270   4.627   8.097   8.612
46458SOL    HW141271   4.597   8.009   8.636
46458SOL    HW241272   4.668   8.131   8.691
46459SOL     OW41273  11.588   4.136   9.348
46459SOL    HW141274  11.500   4.170   9.328
46459SOL    HW241275  11.609   4.080   9.273
46460SOL     OW41276  12.302   6.611  11.977
46460SOL    HW141277  12.219   6.563  11.973
46460SOL    HW241278  12.349   6.572  12.050
46461SOL     OW41279  10.048   8.991   7.404
46461SOL    HW141280  10.097   9.072   7.394
46461SOL    HW241281  10.114   8.924   7.417
46462SOL     OW41282  14.824  11.070   3.138
46462SOL    HW141283   0.031  11.082   3.084
46462SOL    HW241284  14.797  11.159   3.162
46463SOL     OW41285   4.239  14.861   7.150
46463SOL    HW141286   4.326   0.025   7.133
46463SOL    HW241287   4.238  14.777   7.106
46464SOL     OW41288  12.923   6.546   5.365
46464SOL    HW141289  12.875   6.484   5.311
46464SOL    HW241290  13.015   6.533   5.340
46465SOL     OW41291  14.674   6.077   7.976
46465SOL    HW141292  14.743   6.096   8.040
46465SOL    HW241293  14.719   6.076   7.892
46466SOL     OW41294  12.177   2.929   2.179
46466SOL    HW141295  12.185   2.837   2.155
46466SOL    HW241296  12.243   2.942   2.247
46467SOL     OW41297  12.091   8.221  14.733
46467SOL    HW141298  12.062   8.161  14.801
46467SOL    HW241299  12.010   8.247  14.687
46468SOL     OW41300   3.077   2.057   5.196
46468SOL    HW141301   2.993   2.101   5.204
46468SOL    HW241302   3.120   2.071   5.281
46469SOL     OW41303   0.106  13.695  13.484
46469SOL    HW141304   0.030  13.698  13.542
46469SOL    HW241305   0.173  13.648  13.534
46470SOL     OW41306   0.511   6.812   9.140
46470SOL    HW141307   0.444   6.763   9.093
46470SOL    HW241308   0.464   6.854   9.212
46471SOL     OW41309   4.122   3.299   9.016
46471SOL    HW141310   4.037   3.330   9.047
46471SOL    HW241311   4.176   3.378   9.013
46472SOL     OW41312   3.406   7.781   6.732
46472SOL    HW141313   3.370   7.870   6.740
46472SOL    HW241314   3.361   7.730   6.799
46473SOL     OW41315   5.696  10.224   0.857
46473SOL    HW141316   5.654  10.218   0.942
46473SOL    HW241317   5.773  10.167   0.863
46474SOL     OW41318   9.807  14.802   1.348
46474SOL    HW141319   9.718  14.836   1.336
46474SOL    HW241320   9.796  14.718   1.391
46475SOL     OW41321  10.688   6.734   7.695
46475SOL    HW141322  10.610   6.742   7.751
46475SOL    HW241323  10.718   6.824   7.683
46476SOL     OW41324   3.329  13.233   4.237
46476SOL    HW141325   3.411  13.184   4.228
46476SOL    HW241326   3.353  13.310   4.288
46477SOL     OW41327  14.573  12.658   2.302
46477SOL    HW141328  14.531  12.578   2.334
46477SOL    HW241329  14.577  12.646   2.207
46478SOL     OW41330   5.419   7.164  13.958
46478SOL    HW141331   5.328   7.179  13.935
46478SOL    HW241332   5.422   7.172  14.054
46479SOL     OW41333   8.128  14.850  11.518
46479SOL    HW141334   8.170   0.051  11.565
46479SOL    HW241335   8.183  14.835  11.441
46480SOL     OW41336  12.478  14.469   6.514
46480SOL    HW141337  12.514  14.491   6.601
46480SOL    HW241338  12.442  14.381   6.525
46481SOL     OW41339  13.595   9.836  10.681
46481SOL    HW141340  13.517   9.823  10.627
46481SOL    HW241341  13.658   9.771  10.649
46482SOL     OW41342  13.404  13.267  12.611
46482SOL    HW141343  13.418  13.173  12.620
46482SOL    HW241344  13.327  13.285  12.666
46483SOL     OW41345   1.532   3.743   0.905
46483SOL    HW141346   1.492   3.708   0.825
46483SOL    HW241347   1.608   3.686   0.920
46484SOL     OW41348   2.837  12.523   5.360
46484SOL    HW141349   2.855  12.615   5.380
46484SOL    HW241350   2.817  12.483   5.445
46485SOL     OW41351   6.114   8.716   9.554
46485SOL    HW141352   6.190   8.658   9.546
46485SOL    HW241353   6.152   8.804   9.559
46486SOL     OW41354   4.697  14.418   9.180
46486SOL    HW141355   4.633  14.355   9.147
46486SOL    HW241356   4.689  14.493   9.121
46487SOL     OW41357  11.840   6.211  12.853
46487SOL    HW141358  11.871   6.267  12.781
46487SOL    HW241359  11.745   6.207  12.841
46488SOL     OW41360   5.677   1.023   1.862
46488SOL    HW141361   5.742   0.996   1.797
46488SOL    HW241362   5.676   0.951   1.926
46489SOL     OW41363   5.237  13.192   7.232
46489SOL    HW141364   5.187  13.254   7.180
46489SOL    HW241365   5.180  13.116   7.241
46490SOL     OW41366  14.369  12.409  13.436
46490SOL    HW141367  14.275  12.417  13.419
46490SOL    HW241368  14.401  12.350  13.368
46491SOL     OW41369   4.372   7.124   6.517
46491SOL    HW141370   4.399   7.078   6.597
46491SOL    HW241371   4.363   7.215   6.544
46492SOL     OW41372   2.832   7.310   4.717
46492SOL    HW141373   2.836   7.385   4.776
46492SOL    HW241374   2.886   7.243   4.760
46493SOL     OW41375  10.959   5.353   7.122
46493SOL    HW141376  10.881   5.370   7.175
46493SOL    HW241377  11.032   5.385   7.176
46494SOL     OW41378   2.935  12.032   3.784
46494SOL    HW141379   2.861  12.085   3.813
46494SOL    HW241380   2.985  12.015   3.864
46495SOL     OW41381   5.856   3.821  10.595
46495SOL    HW141382   5.892   3.765  10.663
46495SOL    HW241383   5.851   3.765  10.517
46496SOL     OW41384   0.858  13.983   0.733
46496SOL    HW141385   0.864  14.078   0.741
46496SOL    HW241386   0.777  13.968   0.683
46497SOL     OW41387   1.687   6.179   2.071
46497SOL    HW141388   1.639   6.154   1.992
46497SOL    HW241389   1.773   6.138   2.061
46498SOL     OW41390   3.600   3.383  11.791
46498SOL    HW141391   3.628   3.292  11.799
46498SOL    HW241392   3.629   3.409  11.703
46499SOL     OW41393  14.866   5.610   9.901
46499SOL    HW141394   0.032   5.653   9.978
46499SOL    HW241395   0.046   5.644   9.828
46500SOL     OW41396   5.379  11.611  14.832
46500SOL    HW141397   5.346  11.587  14.745
46500SOL    HW241398   5.355  11.703  14.841
46501SOL     OW41399   7.131  13.804  12.247
46501SOL    HW141400   7.150  13.862  12.173
46501SOL    HW241401   7.149  13.858  12.324
46502SOL     OW41402  13.727   4.429   8.339
46502SOL    HW141403  13.687   4.509   8.307
46502SOL    HW241404  13.777   4.395   8.265
46503SOL     OW41405   9.152  13.488   7.712
46503SOL    HW141406   9.207  13.432   7.658
46503SOL    HW241407   9.127  13.560   7.655
46504SOL     OW41408   7.348   3.002   4.736
46504SOL    HW141409   7.296   3.030   4.661
46504SOL    HW241410   7.296   2.934   4.778
46505SOL     OW41411   0.515  14.152   8.996
46505SOL    HW141412   0.481  14.233   8.959
46505SOL    HW241413   0.504  14.088   8.926
46506SOL     OW41414   8.161   5.222   2.318
46506SOL    HW141415   8.233   5.188   2.264
46506SOL    HW241416   8.205   5.273   2.386
46507SOL     OW41417   4.039   9.268   2.778
46507SOL    HW141418   4.128   9.244   2.804
46507SOL    HW241419   4.029   9.233   2.690
46508SOL     OW41420   8.075   5.926   1.016
46508SOL    HW141421   8.020   5.893   1.087
46508SOL    HW241422   8.155   5.874   1.022
46509SOL     OW41423   9.746  11.303   4.360
46509SOL    HW141424   9.691  11.259   4.296
46509SOL    HW241425   9.750  11.242   4.434
46510SOL     OW41426   8.868  10.120  11.497
46510SOL    HW141427   8.849  10.172  11.419
46510SOL    HW241428   8.846  10.177  11.571
46511SOL     OW41429   8.414   0.786   6.816
46511SOL    HW141430   8.445   0.757   6.730
46511SOL    HW241431   8.322   0.761   6.817
46512SOL     OW41432   1.433   3.657   5.963
46512SOL    HW141433   1.422   3.695   6.051
46512SOL    HW241434   1.344   3.645   5.931
46513SOL     OW41435   4.631   9.403   7.845
46513SOL    HW141436   4.652   9.492   7.816
46513SOL    HW241437   4.672   9.397   7.932
46514SOL     OW41438   1.767   5.218   7.544
46514SOL    HW141439   1.703   5.147   7.549
46514SOL    HW241440   1.823   5.205   7.620
46515SOL     OW41441  14.083   4.388  14.804
46515SOL    HW141442  14.092   4.459  14.740
46515SOL    HW241443  14.024   4.325  14.761
46516SOL     OW41444  13.255  12.331   1.344
46516SOL    HW141445  13.186  12.326   1.410
46516SOL    HW241446  13.247  12.418   1.307
46517SOL     OW41447  10.828   1.146   8.747
46517SOL    HW141448  10.840   1.238   8.723
46517SOL    HW241449  10.753   1.118   8.695
46518SOL     OW41450   3.965   7.797   9.919
46518SOL    HW141451   4.044   7.748   9.942
46518SOL    HW241452   3.914   7.799  10.000
46519SOL     OW41453   7.151  13.463   9.693
46519SOL    HW141454   7.204  13.453   9.772
46519SOL    HW241455   7.186  13.398   9.632
46520SOL     OW41456  10.722  11.510   5.331
46520SOL    HW141457  10.686  11.434   5.285
46520SOL    HW241458  10.815  11.507   5.313
46521SOL     OW41459  11.309   3.499  14.859
46521SOL    HW141460  11.273   3.551  14.787
46521SOL    HW241461  11.251   3.518   0.062
46522SOL     OW41462  12.672   6.039   0.741
46522SOL    HW141463  12.739   5.972   0.751
46522SOL    HW241464  12.664   6.051   0.646
46523SOL     OW41465   7.936   4.971   4.804
46523SOL    HW141466   7.875   5.019   4.861
46523SOL    HW241467   7.898   4.980   4.717
46524SOL     OW41468   1.318   8.897   5.272
46524SOL    HW141469   1.384   8.847   5.320
46524SOL    HW241470   1.351   8.987   5.273
46525SOL     OW41471  12.060   5.175   7.834
46525SOL    HW141472  12.035   5.199   7.923
46525SOL    HW241473  12.151   5.205   7.826
46526SOL     OW41474  13.135   1.820   8.916
46526SOL    HW141475  13.205   1.880   8.889
46526SOL    HW241476  13.119   1.766   8.838
46527SOL     OW41477  12.878   2.283  14.089
46527SOL    HW141478  12.899   2.376  14.091
46527SOL    HW241479  12.799   2.276  14.144
46528SOL     OW41480   0.434   5.486  14.743
46528SOL    HW141481   0.390   5.406  14.714
46528SOL    HW241482   0.369   5.555  14.729
46529SOL     OW41483   5.112   8.008   8.378
46529SOL    HW141484   5.049   7.958   8.327
46529SOL    HW241485   5.188   8.017   8.321
46530SOL     OW41486  11.901   2.487  13.837
46530SOL    HW141487  11.863   2.435  13.907
46530SOL    HW241488  11.853   2.462  13.758
46531SOL     OW41489   0.871  13.066   1.205
46531SOL    HW141490   0.816  13.003   1.253
46531SOL    HW241491   0.808  13.126   1.163
46532SOL     OW41492  14.596   7.316   3.366
46532SOL    HW141493  14.536   7.272   3.426
46532SOL    HW241494  14.576   7.409   3.376
46533SOL     OW41495  11.537   8.973   6.746
46533SOL    HW141496  11.576   8.972   6.659
46533SOL    HW241497  11.443   8.978   6.730
46534SOL     OW41498  13.758   1.268   9.564
46534SOL    HW141499  13.813   1.281   9.486
46534SOL    HW241500  13.671   1.299   9.537
46535SOL     OW41501   5.121   8.342   6.507
46535SOL    HW141502   5.175   8.365   6.432
46535SOL    HW241503   5.179   8.292   6.564
46536SOL     OW41504  10.006   5.367  11.842
46536SOL    HW141505   9.999   5.462  11.852
46536SOL    HW241506  10.029   5.353  11.750
46537SOL     OW41507  13.732  14.068  12.594
46537SOL    HW141508  13.804  14.046  12.535
46537SOL    HW241509  13.772  14.126  12.659
46538SOL     OW41510   1.197   8.663  12.221
46538SOL    HW141511   1.161   8.623  12.142
46538SOL    HW241512   1.122   8.702  12.265
46539SOL     OW41513  12.515   4.799   4.548
46539SOL    HW141514  12.597   4.775   4.591
46539SOL    HW241515  12.469   4.716   4.537
46540SOL     OW41516  11.631  12.048   0.197
46540SOL    HW141517  11.538  12.069   0.191
46540SOL    HW241518  11.636  11.955   0.176
46541SOL     OW41519   2.388   3.917  12.841
46541SOL    HW141520   2.450   3.964  12.897
46541SOL    HW241521   2.308   3.971  12.843
46542SOL     OW41522   9.861   7.603   6.168
46542SOL    HW141523   9.944   7.600   6.216
46542SOL    HW241524   9.869   7.678   6.110
46543SOL     OW41525  11.562  11.000   0.564
46543SOL    HW141526  11.606  11.028   0.484
46543SOL    HW241527  11.522  10.916   0.540
46544SOL     OW41528  11.120   1.931   8.041
46544SOL    HW141529  11.133   1.991   8.114
46544SOL    HW241530  11.061   1.863   8.076
46545SOL     OW41531  14.536   4.151   1.286
46545SOL    HW141532  14.540   4.056   1.281
46545SOL    HW241533  14.593   4.173   1.361
46546SOL     OW41534   8.812  11.713  12.913
46546SOL    HW141535   8.788  11.750  12.828
46546SOL    HW241536   8.776  11.624  12.911
46547SOL     OW41537  10.250   0.526  13.297
46547SOL    HW141538  10.229   0.598  13.356
46547SOL    HW241539  10.173   0.468  13.301
46548SOL     OW41540   8.414   4.922   4.240
46548SOL    HW141541   8.345   4.858   4.222
46548SOL    HW241542   8.391   4.960   4.324
46549SOL     OW41543  11.370  10.594   7.884
46549SOL    HW141544  11.358  10.640   7.967
46549SOL    HW241545  11.341  10.657   7.817
46550SOL     OW41546   9.057  13.694   6.050
46550SOL    HW141547   8.976  13.744   6.041
46550SOL    HW241548   9.066  13.648   5.967
46551SOL     OW41549  12.690   9.065  11.194
46551SOL    HW141550  12.713   9.120  11.269
46551SOL    HW241551  12.683   9.126  11.121
46552SOL     OW41552   0.583   4.255   4.701
46552SOL    HW141553   0.518   4.212   4.645
46552SOL    HW241554   0.656   4.193   4.705
46553SOL     OW41555   9.918   9.616  12.061
46553SOL    HW141556   9.942   9.645  12.149
46553SOL    HW241557   9.995   9.571  12.029
46554SOL     OW41558   7.956  11.553   6.003
46554SOL    HW141559   8.001  11.618   5.949
46554SOL    HW241560   7.973  11.581   6.093
46555SOL     OW41561   1.267   3.335  12.761
46555SOL    HW141562   1.248   3.411  12.816
46555SOL    HW241563   1.182   3.310  12.724
46556SOL     OW41564   1.514   2.432   1.990
46556SOL    HW141565   1.585   2.464   2.046
46556SOL    HW241566   1.465   2.510   1.965
46557SOL     OW41567   9.770   5.424   4.070
46557SOL    HW141568   9.792   5.479   4.145
46557SOL    HW241569   9.686   5.383   4.094
46558SOL     OW41570  11.643  10.693  12.393
46558SOL    HW141571  11.586  10.628  12.352
46558SOL    HW241572  11.686  10.646  12.464
46559SOL     OW41573   6.134   1.779   9.195
46559SOL    HW141574   6.223   1.778   9.158
46559SOL    HW241575   6.120   1.870   9.220
46560SOL     OW41576   2.212   9.155   8.085
46560SOL    HW141577   2.177   9.147   7.997
46560SOL    HW241578   2.289   9.098   8.086
46561SOL     OW41579  12.897  12.583   8.176
46561SOL    HW141580  12.979  12.564   8.131
46561SOL    HW241581  12.829  12.549   8.118
46562SOL     OW41582   9.782   4.211   3.189
46562SOL    HW141583   9.736   4.127   3.180
46562SOL    HW241584   9.845   4.196   3.260
46563SOL     OW41585   7.288  13.653   5.473
46563SOL    HW141586   7.306  13.743   5.444
46563SOL    HW241587   7.224  13.620   5.409
46564SOL     OW41588   7.272  10.356   7.933
46564SOL    HW141589   7.285  10.418   7.860
46564SOL    HW241590   7.237  10.277   7.892
46565SOL     OW41591   6.669  10.051   4.323
46565SOL    HW141592   6.644  10.142   4.338
46565SOL    HW241593   6.698  10.020   4.409
46566SOL     OW41594   9.754  14.502  12.391
46566SOL    HW141595   9.845  14.473  12.379
46566SOL    HW241596   9.717  14.440  12.453
46567SOL     OW41597   6.201   8.367   1.598
46567SOL    HW141598   6.115   8.406   1.615
46567SOL    HW241599   6.184   8.274   1.588
46568SOL     OW41600   7.013   7.478  12.552
46568SOL    HW141601   7.086   7.425  12.518
46568SOL    HW241602   6.941   7.416  12.559
46569SOL     OW41603   9.191  10.180  12.477
46569SOL    HW141604   9.265  10.120  12.485
46569SOL    HW241605   9.114  10.127  12.500
46570SOL     OW41606   3.592  12.670   1.103
46570SOL    HW141607   3.539  12.662   1.182
46570SOL    HW241608   3.641  12.588   1.099
46571SOL     OW41609   7.626  12.129   4.420
46571SOL    HW141610   7.592  12.124   4.509
46571SOL    HW241611   7.550  12.144   4.365
46572SOL     OW41612   3.570   9.537   1.346
46572SOL    HW141613   3.600   9.474   1.411
46572SOL    HW241614   3.605   9.503   1.263
46573SOL     OW41615   5.155   3.572   8.832
46573SOL    HW141616   5.063   3.582   8.856
46573SOL    HW241617   5.178   3.656   8.791
46574SOL     OW41618   8.730   3.305  14.250
46574SOL    HW141619   8.649   3.260  14.272
46574SOL    HW241620   8.800   3.244  14.275
46575SOL     OW41621  13.092  10.993   1.509
46575SOL    HW141622  13.178  10.962   1.536
46575SOL    HW241623  13.090  10.982   1.414
46576SOL     OW41624  10.670   4.011   1.158
46576SOL    HW141625  10.611   4.043   1.226
46576SOL    HW241626  10.626   4.034   1.076
46577SOL     OW41627   4.523  12.416   9.008
46577SOL    HW141628   4.589  12.486   9.011
46577SOL    HW241629   4.533  12.370   9.091
46578SOL     OW41630   7.220   8.875   5.650
46578SOL    HW141631   7.217   8.969   5.633
46578SOL    HW241632   7.162   8.837   5.584
46579SOL     OW41633   4.027   8.800   2.446
46579SOL    HW141634   4.042   8.839   2.532
46579SOL    HW241635   4.099   8.832   2.392
46580SOL     OW41636  12.487  11.889  10.067
46580SOL    HW141637  12.556  11.923  10.010
46580SOL    HW241638  12.414  11.950  10.055
46581SOL     OW41639  13.164   9.556  14.555
46581SOL    HW141640  13.094   9.506  14.514
46581SOL    HW241641  13.160   9.642  14.514
46582SOL     OW41642   9.779  11.121   4.547
46582SOL    HW141643   9.799  11.154   4.635
46582SOL    HW241644   9.720  11.047   4.561
46583SOL     OW41645   5.198   0.228   0.085
46583SOL    HW141646   5.244   0.289   0.028
46583SOL    HW241647   5.267   0.172   0.121
46584SOL     OW41648  13.059   6.879   8.529
46584SOL    HW141649  12.980   6.933   8.536
46584SOL    HW241650  13.113   6.905   8.603
46585SOL     OW41651   1.082   5.831  10.173
46585SOL    HW141652   1.152   5.812  10.112
46585SOL    HW241653   1.074   5.752  10.226
46586SOL     OW41654   7.020   9.054   6.511
46586SOL    HW141655   7.005   9.041   6.604
46586SOL    HW241656   6.936   9.033   6.470
46587SOL     OW41657   4.511   0.171   9.869
46587SOL    HW141658   4.584   0.144   9.924
46587SOL    HW241659   4.435   0.126   9.904
46588SOL     OW41660   4.442  10.256  12.602
46588SOL    HW141661   4.378  10.312  12.557
46588SOL    HW241662   4.518  10.256  12.544
46589SOL     OW41663   3.381  11.061   2.356
46589SOL    HW141664   3.437  11.041   2.431
46589SOL    HW241665   3.340  10.977   2.335
46590SOL     OW41666  10.020   3.819  11.671
46590SOL    HW141667   9.933   3.858  11.669
46590SOL    HW241668  10.005   3.729  11.700
46591SOL     OW41669   5.586   2.843   3.099
46591SOL    HW141670   5.678   2.821   3.085
46591SOL    HW241671   5.588   2.915   3.163
46592SOL     OW41672   1.289   9.141   3.686
46592SOL    HW141673   1.323   9.218   3.640
46592SOL    HW241674   1.213   9.114   3.635
46593SOL     OW41675   3.527  11.941   0.423
46593SOL    HW141676   3.517  11.847   0.409
46593SOL    HW241677   3.514  11.980   0.336
46594SOL     OW41678   6.813  12.709   6.863
46594SOL    HW141679   6.837  12.801   6.877
46594SOL    HW241680   6.731  12.698   6.911
46595SOL     OW41681  14.417   6.315   9.616
46595SOL    HW141682  14.374   6.383   9.564
46595SOL    HW241683  14.446   6.360   9.695
46596SOL     OW41684  14.146   9.162   7.226
46596SOL    HW141685  14.235   9.197   7.223
46596SOL    HW241686  14.149   9.095   7.294
46597SOL     OW41687   1.972  10.996  14.083
46597SOL    HW141688   2.006  10.959  14.165
46597SOL    HW241689   1.981  10.924  14.020
46598SOL     OW41690  11.201   3.224  10.408
46598SOL    HW141691  11.126   3.204  10.352
46598SOL    HW241692  11.250   3.290  10.359
46599SOL     OW41693   1.885   1.653   9.448
46599SOL    HW141694   1.956   1.709   9.479
46599SOL    HW241695   1.887   1.663   9.353
46600SOL     OW41696  11.929   7.823   4.097
46600SOL    HW141697  12.011   7.869   4.116
46600SOL    HW241698  11.944   7.733   4.126
46601SOL     OW41699  13.056   0.237  12.094
46601SOL    HW141700  13.091   0.152  12.068
46601SOL    HW241701  13.076   0.243  12.187
46602SOL     OW41702   0.644   6.459   7.546
46602SOL    HW141703   0.716   6.499   7.498
46602SOL    HW241704   0.614   6.527   7.606
46603SOL     OW41705   4.931   2.224   2.950
46603SOL    HW141706   4.996   2.154   2.958
46603SOL    HW241707   4.867   2.190   2.888
46604SOL     OW41708   0.983   0.084   2.286
46604SOL    HW141709   1.075   0.064   2.269
46604SOL    HW241710   0.981   0.117   2.376
46605SOL     OW41711   7.590   2.687  14.276
46605SOL    HW141712   7.525   2.702  14.345
46605SOL    HW241713   7.546   2.711  14.195
46606SOL     OW41714   8.963  10.447  13.729
46606SOL    HW141715   9.007  10.370  13.694
46606SOL    HW241716   8.986  10.518  13.668
46607SOL     OW41717  12.306   6.363  10.983
46607SOL    HW141718  12.323   6.379  11.076
46607SOL    HW241719  12.393   6.353  10.944
46608SOL     OW41720  10.146  14.373   4.353
46608SOL    HW141721  10.226  14.335   4.316
46608SOL    HW241722  10.177  14.427   4.426
46609SOL     OW41723   2.892   1.028   3.255
46609SOL    HW141724   2.846   1.004   3.175
46609SOL    HW241725   2.824   1.062   3.313
46610SOL     OW41726   9.526   5.751   9.940
46610SOL    HW141727   9.601   5.789   9.984
46610SOL    HW241728   9.518   5.800   9.858
46611SOL     OW41729  14.819   3.864   1.227
46611SOL    HW141730   0.030   3.836   1.266
46611SOL    HW241731  14.841   3.884   1.136
46612SOL     OW41732  12.503  13.457   7.610
46612SOL    HW141733  12.503  13.371   7.654
46612SOL    HW241734  12.499  13.435   7.516
46613SOL     OW41735   2.293   1.481   7.855
46613SOL    HW141736   2.230   1.517   7.794
46613SOL    HW241737   2.336   1.558   7.893
46614SOL     OW41738   1.609  11.246   5.831
46614SOL    HW141739   1.566  11.194   5.899
46614SOL    HW241740   1.702  11.227   5.842
46615SOL     OW41741   3.557   2.355   3.722
46615SOL    HW141742   3.569   2.420   3.652
46615SOL    HW241743   3.471   2.375   3.758
46616SOL     OW41744  13.092   9.391  12.040
46616SOL    HW141745  13.157   9.460  12.029
46616SOL    HW241746  13.011   9.427  12.006
46617SOL     OW41747   2.557   5.277  12.091
46617SOL    HW141748   2.511   5.332  12.154
46617SOL    HW241749   2.621   5.336  12.050
46618SOL     OW41750  12.794   7.679  12.093
46618SOL    HW141751  12.810   7.624  12.170
46618SOL    HW241752  12.746   7.755  12.128
46619SOL     OW41753   4.020   0.433   3.798
46619SOL    HW141754   3.964   0.389   3.863
46619SOL    HW241755   3.959   0.465   3.732
46620SOL     OW41756   5.453  10.678   2.573
46620SOL    HW141757   5.421  10.592   2.601
46620SOL    HW241758   5.383  10.739   2.597
46621SOL     OW41759   7.881   2.957   4.320
46621SOL    HW141760   7.834   2.891   4.270
46621SOL    HW241761   7.866   2.934   4.412
46622SOL     OW41762   3.177   3.364   2.421
46622SOL    HW141763   3.126   3.303   2.368
46622SOL    HW241764   3.136   3.359   2.507
46623SOL     OW41765   8.857   6.479   4.822
46623SOL    HW141766   8.886   6.560   4.779
46623SOL    HW241767   8.815   6.510   4.903
46624SOL     OW41768   7.414   1.758   7.340
46624SOL    HW141769   7.404   1.690   7.272
46624SOL    HW241770   7.326   1.794   7.350
46625SOL     OW41771   3.772  12.906   3.684
46625SOL    HW141772   3.771  12.814   3.659
46625SOL    HW241773   3.699  12.914   3.746
46626SOL     OW41774   4.187   2.067   9.216
46626SOL    HW141775   4.106   2.029   9.249
46626SOL    HW241776   4.254   2.043   9.280
46627SOL     OW41777   9.298   2.136   3.107
46627SOL    HW141778   9.236   2.148   3.035
46627SOL    HW241779   9.323   2.224   3.133
46628SOL     OW41780   7.996   7.487   2.922
46628SOL    HW141781   7.914   7.438   2.913
46628SOL    HW241782   8.015   7.518   2.833
46629SOL     OW41783  13.378  11.644   5.506
46629SOL    HW141784  13.378  11.737   5.484
46629SOL    HW241785  13.467  11.627   5.537
46630SOL     OW41786  14.221  12.056   4.622
46630SOL    HW141787  14.272  12.021   4.695
46630SOL    HW241788  14.252  12.007   4.546
46631SOL     OW41789  10.022   2.792   3.183
46631SOL    HW141790  10.114   2.816   3.195
46631SOL    HW241791  10.024   2.718   3.123
46632SOL     OW41792  13.704   7.249  10.085
46632SOL    HW141793  13.787   7.220  10.048
46632SOL    HW241794  13.687   7.190  10.158
46633SOL     OW41795   8.435  12.854  11.411
46633SOL    HW141796   8.518  12.857  11.364
46633SOL    HW241797   8.374  12.901  11.355
46634SOL     OW41798   5.592   6.410   2.040
46634SOL    HW141799   5.608   6.396   1.947
46634SOL    HW241800   5.501   6.382   2.052
46635SOL     OW41801  11.195  12.145  14.120
46635SOL    HW141802  11.211  12.069  14.176
46635SOL    HW241803  11.274  12.152  14.066
46636SOL     OW41804  13.880  13.123   5.239
46636SOL    HW141805  13.810  13.103   5.301
46636SOL    HW241806  13.933  13.189   5.283
46637SOL     OW41807  12.062  14.279   0.039
46637SOL    HW141808  12.062  14.282  14.815
46637SOL    HW241809  11.998  14.345   0.066
46638SOL     OW41810   9.349  14.078   6.053
46638SOL    HW141811   9.379  14.150   6.109
46638SOL    HW241812   9.418  14.012   6.060
46639SOL     OW41813   4.713   7.822   3.378
46639SOL    HW141814   4.638   7.854   3.428
46639SOL    HW241815   4.771   7.784   3.444
46640SOL     OW41816   3.272  10.516   4.206
46640SOL    HW141817   3.195  10.459   4.199
46640SOL    HW241818   3.272  10.546   4.297
46641SOL     OW41819  10.069   9.011   4.357
46641SOL    HW141820  10.069   9.099   4.320
46641SOL    HW241821   9.981   8.977   4.340
46642SOL     OW41822   9.835   3.385   1.988
46642SOL    HW141823   9.865   3.313   1.933
46642SOL    HW241824   9.818   3.457   1.927
46643SOL     OW41825   0.773   3.910   1.988
46643SOL    HW141826   0.793   3.906   1.895
46643SOL    HW241827   0.850   3.873   2.031
46644SOL     OW41828   2.864  12.481  11.690
46644SOL    HW141829   2.871  12.491  11.785
46644SOL    HW241830   2.892  12.566  11.655
46645SOL     OW41831   7.381   9.901   3.083
46645SOL    HW141832   7.447   9.921   3.149
46645SOL    HW241833   7.415   9.824   3.037
46646SOL     OW41834  11.674   2.174   6.665
46646SOL    HW141835  11.592   2.168   6.615
46646SOL    HW241836  11.687   2.086   6.701
46647SOL     OW41837   3.254   2.279   3.363
46647SOL    HW141838   3.316   2.302   3.294
46647SOL    HW241839   3.244   2.359   3.415
46648SOL     OW41840   5.169   5.090  11.381
46648SOL    HW141841   5.128   5.005  11.401
46648SOL    HW241842   5.246   5.092  11.439
46649SOL     OW41843   5.084   7.468   3.648
46649SOL    HW141844   5.038   7.401   3.598
46649SOL    HW241845   5.162   7.488   3.596
46650SOL     OW41846   2.481   6.279  11.284
46650SOL    HW141847   2.507   6.187  11.280
46650SOL    HW241848   2.386   6.278  11.270
46651SOL     OW41849  14.737   7.594  11.336
46651SOL    HW141850  14.725   7.638  11.252
46651SOL    HW241851  14.662   7.623  11.389
46652SOL     OW41852  13.128  14.621   9.538
46652SOL    HW141853  13.129  14.578   9.623
46652SOL    HW241854  13.170  14.557   9.479
46653SOL     OW41855   3.501   9.845  10.267
46653SOL    HW141856   3.410   9.873  10.271
46653SOL    HW241857   3.503   9.779  10.197
46654SOL     OW41858   5.393   1.158   9.677
46654SOL    HW141859   5.315   1.133   9.628
46654SOL    HW241860   5.466   1.142   9.616
46655SOL     OW41861   7.074   9.282  14.780
46655SOL    HW141862   7.139   9.211  14.776
46655SOL    HW241863   7.114   9.348  14.836
46656SOL     OW41864  10.708   1.516  11.853
46656SOL    HW141865  10.718   1.570  11.775
46656SOL    HW241866  10.622   1.540  11.888
46657SOL     OW41867   8.423   6.459   8.241
46657SOL    HW141868   8.407   6.391   8.176
46657SOL    HW241869   8.336   6.494   8.261
46658SOL     OW41870   3.852  12.485   0.493
46658SOL    HW141871   3.808  12.561   0.531
46658SOL    HW241872   3.893  12.519   0.413
46659SOL     OW41873   6.394   6.427  10.636
46659SOL    HW141874   6.364   6.518  10.639
46659SOL    HW241875   6.315   6.377  10.616
46660SOL     OW41876   3.792   4.885   9.337
46660SOL    HW141877   3.803   4.979   9.324
46660SOL    HW241878   3.747   4.877   9.421
46661SOL     OW41879   8.742   2.012   7.089
46661SOL    HW141880   8.735   1.980   6.999
46661SOL    HW241881   8.802   2.087   7.083
46662SOL     OW41882  10.884   9.082   9.431
46662SOL    HW141883  10.873   9.090   9.336
46662SOL    HW241884  10.871   9.170   9.465
46663SOL     OW41885   1.723  13.703  12.707
46663SOL    HW141886   1.631  13.700  12.681
46663SOL    HW241887   1.723  13.675  12.798
46664SOL     OW41888   3.301  11.430   5.943
46664SOL    HW141889   3.316  11.422   6.037
46664SOL    HW241890   3.216  11.474   5.936
46665SOL     OW41891   3.514   7.600   3.524
46665SOL    HW141892   3.461   7.521   3.531
46665SOL    HW241893   3.476   7.648   3.451
46666SOL     OW41894   4.688   0.543   7.721
46666SOL    HW141895   4.641   0.460   7.726
46666SOL    HW241896   4.630   0.606   7.764
46667SOL     OW41897   2.696   1.160   3.383
46667SOL    HW141898   2.624   1.223   3.389
46667SOL    HW241899   2.668   1.087   3.438
46668SOL     OW41900   1.639   6.717   0.516
46668SOL    HW141901   1.625   6.801   0.559
46668SOL    HW241902   1.627   6.652   0.586
46669SOL     OW41903   7.011  10.901   8.143
46669SOL    HW141904   6.950  10.831   8.170
46669SOL    HW241905   7.037  10.877   8.054
46670SOL     OW41906   2.040   0.168  14.696
46670SOL    HW141907   2.112   0.227  14.717
46670SOL    HW241908   1.989   0.162  14.777
46671SOL     OW41909   8.335   5.055   4.460
46671SOL    HW141910   8.392   5.116   4.413
46671SOL    HW241911   8.388   5.026   4.534
46672SOL     OW41912  14.248   8.218   1.259
46672SOL    HW141913  14.189   8.207   1.334
46672SOL    HW241914  14.238   8.310   1.234
46673SOL     OW41915   0.369  12.497  13.281
46673SOL    HW141916   0.342  12.521  13.193
46673SOL    HW241917   0.448  12.444  13.269
46674SOL     OW41918  12.284   4.789  13.957
46674SOL    HW141919  12.233   4.864  13.925
46674SOL    HW241920  12.266   4.719  13.894
46675SOL     OW41921   7.335   0.222   8.895
46675SOL    HW141922   7.358   0.263   8.978
46675SOL    HW241923   7.263   0.162   8.918
46676SOL     OW41924  13.383   6.842   8.680
46676SOL    HW141925  13.394   6.895   8.601
46676SOL    HW241926  13.420   6.757   8.658
46677SOL     OW41927  12.037   4.314  14.803
46677SOL    HW141928  12.061   4.323  14.711
46677SOL    HW241929  11.951   4.273  14.801
46678SOL     OW41930   9.114   6.634   6.309
46678SOL    HW141931   9.102   6.662   6.399
46678SOL    HW241932   9.115   6.715   6.258
46679SOL     OW41933   3.370   4.675  14.457
46679SOL    HW141934   3.282   4.672  14.422
46679SOL    HW241935   3.369   4.748  14.519
46680SOL     OW41936   9.382  14.024  14.056
46680SOL    HW141937   9.406  13.998  14.145
46680SOL    HW241938   9.354  13.942  14.014
46681SOL     OW41939   9.403  14.096   5.801
46681SOL    HW141940   9.367  14.083   5.889
46681SOL    HW241941   9.415  14.008   5.766
46682SOL     OW41942   3.506  14.857   9.342
46682SOL    HW141943   3.518  14.794   9.271
46682SOL    HW241944   3.415   0.014   9.334
46683SOL     OW41945   7.236   2.368   7.088
46683SOL    HW141946   7.312   2.336   7.040
46683SOL    HW241947   7.257   2.353   7.180
46684SOL     OW41948   5.206   6.502  14.532
46684SOL    HW141949   5.131   6.497  14.472
46684SOL    HW241950   5.206   6.417  14.577
46685SOL     OW41951   7.376  12.521   6.329
46685SOL    HW141952   7.346  12.455   6.392
46685SOL    HW241953   7.312  12.517   6.258
46686SOL     OW41954   7.528   1.412   7.774
46686SOL    HW141955   7.604   1.378   7.820
46686SOL    HW241956   7.467   1.338   7.769
46687SOL     OW41957   2.808  10.642  14.070
46687SOL    HW141958   2.723  10.679  14.092
46687SOL    HW241959   2.871  10.706  14.100
46688SOL     OW41960  10.284  10.922   4.348
46688SOL    HW141961  10.330  10.912   4.432
46688SOL    HW241962  10.193  10.936   4.373
46689SOL     OW41963   8.041   1.020   8.015
46689SOL    HW141964   8.047   0.977   7.930
46689SOL    HW241965   8.120   1.072   8.022
46690SOL     OW41966  10.814  11.805   8.626
46690SOL    HW141967  10.901  11.766   8.617
46690SOL    HW241968  10.768  11.746   8.686
46691SOL     OW41969   2.389   0.363   1.543
46691SOL    HW141970   2.392   0.458   1.551
46691SOL    HW241971   2.300   0.340   1.569
46692SOL     OW41972   8.655  10.686   2.010
46692SOL    HW141973   8.617  10.656   1.928
46692SOL    HW241974   8.733  10.632   2.022
46693SOL     OW41975   0.649  10.576   1.031
46693SOL    HW141976   0.585  10.555   1.099
46693SOL    HW241977   0.675  10.667   1.050
46694SOL     OW41978  10.445   0.794  12.443
46694SOL    HW141979  10.454   0.779  12.537
46694SOL    HW241980  10.351   0.797  12.428
46695SOL     OW41981   1.405   8.675   0.285
46695SOL    HW141982   1.361   8.759   0.271
46695SOL    HW241983   1.356   8.634   0.355
46696SOL     OW41984   3.778   0.679   5.806
46696SOL    HW141985   3.722   0.611   5.767
46696SOL    HW241986   3.800   0.645   5.892
46697SOL     OW41987  12.903   4.076  12.946
46697SOL    HW141988  12.963   4.054  13.018
46697SOL    HW241989  12.909   4.171  12.938
46698SOL     OW41990  13.844   7.473   1.997
46698SOL    HW141991  13.792   7.516   2.064
46698SOL    HW241992  13.863   7.542   1.933
46699SOL     OW41993  14.735   9.594  13.306
46699SOL    HW141994  14.670   9.575  13.238
46699SOL    HW241995  14.741   9.513  13.356
46700SOL     OW41996   1.505   7.383   8.179
46700SOL    HW141997   1.580   7.341   8.138
46700SOL    HW241998   1.538   7.415   8.263
46701SOL     OW41999  10.714   4.167  14.299
46701SOL    HW142000  10.653   4.241  14.305
46701SOL    HW242001  10.706   4.123  14.384
46702SOL     OW42002  14.082   0.279   2.571
46702SOL    HW142003  14.095   0.215   2.641
46702SOL    HW242004  14.142   0.350   2.593
46703SOL     OW42005  13.941   6.472   2.144
46703SOL    HW142006  13.867   6.478   2.084
46703SOL    HW242007  14.018   6.486   2.090
46704SOL     OW42008   1.558  13.525   2.470
46704SOL    HW142009   1.479  13.576   2.455
46704SOL    HW242010   1.576  13.484   2.385
46705SOL     OW42011   6.513  13.394   8.765
46705SOL    HW142012   6.475  13.330   8.825
46705SOL    HW242013   6.577  13.441   8.817
46706SOL     OW42014   2.076   5.260   3.180
46706SOL    HW142015   2.037   5.340   3.214
46706SOL    HW242016   2.031   5.245   3.097
46707SOL     OW42017   8.433   3.723   2.416
46707SOL    HW142018   8.393   3.792   2.468
46707SOL    HW242019   8.370   3.651   2.419
46708SOL     OW42020  14.744  12.568   8.639
46708SOL    HW142021  14.817  12.630   8.640
46708SOL    HW242022  14.729  12.547   8.731
46709SOL     OW42023  10.388   4.626  10.527
46709SOL    HW142024  10.300   4.622  10.490
46709SOL    HW242025  10.434   4.553  10.485
46710SOL     OW42026   2.248   9.908   8.192
46710SOL    HW142027   2.273   9.911   8.100
46710SOL    HW242028   2.156   9.934   8.193
46711SOL     OW42029   3.375   9.323  10.974
46711SOL    HW142030   3.441   9.391  10.978
46711SOL    HW242031   3.415   9.253  10.923
46712SOL     OW42032   5.505  13.107   6.827
46712SOL    HW142033   5.568  13.123   6.757
46712SOL    HW242034   5.550  13.132   6.907
46713SOL     OW42035  14.067   1.818   1.806
46713SOL    HW142036  13.988   1.777   1.841
46713SOL    HW242037  14.048   1.912   1.807
46714SOL     OW42038   8.504   9.961  14.861
46714SOL    HW142039   8.587   9.999   0.016
46714SOL    HW242040   8.524   9.868  14.847
46715SOL     OW42041   1.739   3.531   9.761
46715SOL    HW142042   1.767   3.444   9.788
46715SOL    HW242043   1.799   3.554   9.689
46716SOL     OW42044   2.163   9.931   6.350
46716SOL    HW142045   2.239   9.874   6.362
46716SOL    HW242046   2.195  10.018   6.373
46717SOL     OW42047   0.489   4.697   0.719
46717SOL    HW142048   0.428   4.631   0.686
46717SOL    HW242049   0.509   4.669   0.808
46718SOL     OW42050   1.657   5.295  11.605
46718SOL    HW142051   1.660   5.389  11.625
46718SOL    HW242052   1.685   5.290  11.513
46719SOL     OW42053  10.324  12.360  10.066
46719SOL    HW142054  10.287  12.279  10.101
46719SOL    HW242055  10.265  12.429  10.096
46720SOL     OW42056   7.651  10.382   0.398
46720SOL    HW142057   7.626  10.463   0.353
46720SOL    HW242058   7.568  10.348   0.432
46721SOL     OW42059  13.487   0.634   4.354
46721SOL    HW142060  13.468   0.728   4.357
46721SOL    HW242061  13.428   0.596   4.420
46722SOL     OW42062   0.404  12.357   7.515
46722SOL    HW142063   0.434  12.277   7.556
46722SOL    HW242064   0.467  12.373   7.444
46723SOL     OW42065  12.841   7.035  11.505
46723SOL    HW142066  12.766   7.094  11.515
46723SOL    HW242067  12.821   6.961  11.562
46724SOL     OW42068   2.911  10.276  14.619
46724SOL    HW142069   2.964  10.204  14.653
46724SOL    HW242070   2.961  10.311  14.546
46725SOL     OW42071   3.495   8.548   0.378
46725SOL    HW142072   3.512   8.602   0.455
46725SOL    HW242073   3.488   8.459   0.413
46726SOL     OW42074   0.469  14.077  12.550
46726SOL    HW142075   0.552  14.126  12.552
46726SOL    HW242076   0.487  14.003  12.493
46727SOL     OW42077   6.575   6.112  12.610
46727SOL    HW142078   6.666   6.096  12.635
46727SOL    HW242079   6.524   6.090  12.688
46728SOL     OW42080   8.835   9.126   4.526
46728SOL    HW142081   8.796   9.137   4.440
46728SOL    HW242082   8.845   9.032   4.538
46729SOL     OW42083   6.072   3.497   5.821
46729SOL    HW142084   6.164   3.525   5.819
46729SOL    HW242085   6.067   3.439   5.897
46730SOL     OW42086  11.687  12.849   8.409
46730SOL    HW142087  11.727  12.845   8.496
46730SOL    HW242088  11.594  12.830   8.425
46731SOL     OW42089  12.915  13.165   9.120
46731SOL    HW142090  12.906  13.249   9.164
46731SOL    HW242091  12.964  13.184   9.040
46732SOL     OW42092  11.595   0.988   9.517
46732SOL    HW142093  11.675   0.957   9.559
46732SOL    HW242094  11.537   0.911   9.516
46733SOL     OW42095   7.315  10.827  14.704
46733SOL    HW142096   7.344  10.907  14.661
46733SOL    HW242097   7.234  10.851  14.749
46734SOL     OW42098   1.330   9.551  10.953
46734SOL    HW142099   1.378   9.478  10.913
46734SOL    HW242100   1.395   9.594  11.009
46735SOL     OW42101   1.693  10.955   6.202
46735SOL    HW142102   1.715  11.047   6.215
46735SOL    HW242103   1.730  10.933   6.117
46736SOL     OW42104  13.349   8.911   0.799
46736SOL    HW142105  13.362   8.868   0.883
46736SOL    HW242106  13.308   8.845   0.744
46737SOL     OW42107  12.892   1.783   6.078
46737SOL    HW142108  12.862   1.839   6.006
46737SOL    HW242109  12.837   1.807   6.152
46738SOL     OW42110   3.737   0.015  12.229
46738SOL    HW142111   3.643   0.013  12.246
46738SOL    HW242112   3.750  14.816  12.165
46739SOL     OW42113   9.305   9.351   9.370
46739SOL    HW142114   9.329   9.442   9.353
46739SOL    HW242115   9.226   9.337   9.318
46740SOL     OW42116  12.206   8.770   9.457
46740SOL    HW142117  12.173   8.723   9.380
46740SOL    HW242118  12.274   8.713   9.492
46741SOL     OW42119   4.415   3.676  13.303
46741SOL    HW142120   4.370   3.739  13.247
46741SOL    HW242121   4.499   3.716  13.323
46742SOL     OW42122   5.887   6.846   9.431
46742SOL    HW142123   5.919   6.907   9.498
46742SOL    HW242124   5.933   6.764   9.450
46743SOL     OW42125  12.040   7.026   1.214
46743SOL    HW142126  12.080   6.984   1.138
46743SOL    HW242127  11.964   6.972   1.234
46744SOL     OW42128   9.355   0.903  13.653
46744SOL    HW142129   9.390   0.814  13.651
46744SOL    HW242130   9.405   0.947  13.722
46745SOL     OW42131   0.711   2.648  12.180
46745SOL    HW142132   0.788   2.612  12.136
46745SOL    HW242133   0.746   2.688  12.259
46746SOL     OW42134   9.228   3.369  13.957
46746SOL    HW142135   9.223   3.359  14.052
46746SOL    HW242136   9.290   3.302  13.929
46747SOL     OW42137   4.728   0.991   1.834
46747SOL    HW142138   4.734   0.963   1.925
46747SOL    HW242139   4.636   0.983   1.812
46748SOL     OW42140   7.294   6.624   2.332
46748SOL    HW142141   7.225   6.664   2.384
46748SOL    HW242142   7.252   6.547   2.292
46749SOL     OW42143   1.186  13.754  14.349
46749SOL    HW142144   1.135  13.729  14.272
46749SOL    HW242145   1.185  13.677  14.405
46750SOL     OW42146   7.207  11.178   5.104
46750SOL    HW142147   7.145  11.185   5.176
46750SOL    HW242148   7.205  11.264   5.062
46751SOL     OW42149   9.880   3.518   0.084
46751SOL    HW142150   9.969   3.526   0.118
46751SOL    HW242151   9.844   3.607   0.092
46752SOL     OW42152  11.495  14.179   7.319
46752SOL    HW142153  11.403  14.152   7.323
46752SOL    HW242154  11.544  14.104   7.355
46753SOL     OW42155   0.668   5.724  14.820
46753SOL    HW142156   0.590   5.681  14.856
46753SOL    HW242157   0.731   5.724   0.021
46754SOL     OW42158  13.410  10.962  11.174
46754SOL    HW142159  13.379  10.890  11.230
46754SOL    HW242160  13.505  10.958  11.180
46755SOL     OW42161   9.188   5.888  11.685
46755SOL    HW142162   9.182   5.866  11.778
46755SOL    HW242163   9.126   5.829  11.643
46756SOL     OW42164  10.767  11.612   5.707
46756SOL    HW142165  10.857  11.645   5.715
46756SOL    HW242166  10.772  11.548   5.636
46757SOL     OW42167   9.814   4.384  13.960
46757SOL    HW142168   9.718   4.384  13.950
46757SOL    HW242169   9.844   4.310  13.907
46758SOL     OW42170   8.470   9.718   4.217
46758SOL    HW142171   8.432   9.638   4.254
46758SOL    HW242172   8.502   9.692   4.130
46759SOL     OW42173   9.826   3.318   3.896
46759SOL    HW142174   9.821   3.267   3.815
46759SOL    HW242175   9.766   3.392   3.881
46760SOL     OW42176   5.679  11.441  12.786
46760SOL    HW142177   5.627  11.465  12.710
46760SOL    HW242178   5.724  11.522  12.811
46761SOL     OW42179   0.071  13.354   9.910
46761SOL    HW142180   0.146  13.332   9.854
46761SOL    HW242181   0.018  13.274   9.911
46762SOL     OW42182  11.837   1.544   4.131
46762SOL    HW142183  11.907   1.566   4.070
46762SOL    HW242184  11.782   1.482   4.084
46763SOL     OW42185   0.791   2.078   2.744
46763SOL    HW142186   0.772   2.151   2.685
46763SOL    HW242187   0.791   2.117   2.831
46764SOL     OW42188   4.799   5.263  14.577
46764SOL    HW142189   4.864   5.194  14.561
46764SOL    HW242190   4.759   5.278  14.491
46765SOL     OW42191  10.115   8.961   2.551
46765SOL    HW142192  10.181   8.893   2.533
46765SOL    HW242193  10.086   8.989   2.464
46766SOL     OW42194   2.948   3.870  14.370
46766SOL    HW142195   2.949   3.966  14.378
46766SOL    HW242196   2.856   3.846  14.386
46767SOL     OW42197  13.565   3.553   5.256
46767SOL    HW142198  13.551   3.469   5.298
46767SOL    HW242199  13.643   3.589   5.297
46768SOL     OW42200   8.456   4.219   8.367
46768SOL    HW142201   8.424   4.308   8.380
46768SOL    HW242202   8.508   4.224   8.286
46769SOL     OW42203   9.047   7.297   7.376
46769SOL    HW142204   9.089   7.382   7.359
46769SOL    HW242205   8.974   7.318   7.434
46770SOL     OW42206   4.689  14.844  13.610
46770SOL    HW142207   4.666  14.773  13.669
46770SOL    HW242208   4.610  14.859  13.558
46771SOL     OW42209   3.020   3.418  11.961
46771SOL    HW142210   3.027   3.514  11.957
46771SOL    HW242211   3.044   3.389  11.873
46772SOL     OW42212   0.852   9.760   8.053
46772SOL    HW142213   0.824   9.755   8.145
46772SOL    HW242214   0.889   9.674   8.035
46773SOL     OW42215   0.786  13.363   1.656
46773SOL    HW142216   0.821  13.390   1.740
46773SOL    HW242217   0.723  13.432   1.633
46774SOL     OW42218   8.459   4.902  11.244
46774SOL    HW142219   8.403   4.909  11.322
46774SOL    HW242220   8.518   4.977  11.251
46775SOL     OW42221  11.602   5.475   7.380
46775SOL    HW142222  11.527   5.531   7.399
46775SOL    HW242223  11.589   5.398   7.436
46776SOL     OW42224   7.902   7.558  14.170
46776SOL    HW142225   7.966   7.629  14.164
46776SOL    HW242226   7.818   7.601  14.161
46777SOL     OW42227  14.706   3.712  14.759
46777SOL    HW142228  14.723   3.764  14.681
46777SOL    HW242229  14.778   3.649  14.763
46778SOL     OW42230   0.075   4.527   5.254
46778SOL    HW142231   0.146   4.572   5.300
46778SOL    HW242232   0.115   4.493   5.174
46779SOL     OW42233   4.934   6.773  10.898
46779SOL    HW142234   4.990   6.817  10.834
46779SOL    HW242235   4.848   6.771  10.857
46780SOL     OW42236  13.116   8.196   1.099
46780SOL    HW142237  13.099   8.186   1.005
46780SOL    HW242238  13.172   8.274   1.105
46781SOL     OW42239   9.474   2.931  11.921
46781SOL    HW142240   9.486   2.959  12.012
46781SOL    HW242241   9.392   2.971  11.894
46782SOL     OW42242  14.438  13.362  14.376
46782SOL    HW142243  14.510  13.411  14.416
46782SOL    HW242244  14.417  13.293  14.439
46783SOL     OW42245   6.362   3.375  13.532
46783SOL    HW142246   6.408   3.313  13.589
46783SOL    HW242247   6.292   3.409  13.588
46784SOL     OW42248  12.261  10.510   4.589
46784SOL    HW142249  12.310  10.433   4.560
46784SOL    HW242250  12.275  10.515   4.683
46785SOL     OW42251  14.159  13.364   7.573
46785SOL    HW142252  14.200  13.287   7.611
46785SOL    HW242253  14.141  13.339   7.482
46786SOL     OW42254   2.128   5.374   7.717
46786SOL    HW142255   2.104   5.406   7.630
46786SOL    HW242256   2.224   5.379   7.719
46787SOL     OW42257   2.822   3.668  12.969
46787SOL    HW142258   2.916   3.655  12.965
46787SOL    HW242259   2.787   3.619  12.895
46788SOL     OW42260   8.370   1.068  13.467
46788SOL    HW142261   8.309   1.066  13.540
46788SOL    HW242262   8.353   1.151  13.423
46789SOL     OW42263   2.595  13.141   6.508
46789SOL    HW142264   2.689  13.150   6.522
46789SOL    HW242265   2.558  13.224   6.541
46790SOL     OW42266   1.992   7.126   5.677
46790SOL    HW142267   2.015   7.130   5.770
46790SOL    HW242268   2.076   7.136   5.631
46791SOL     OW42269   4.274  12.633   3.733
46791SOL    HW142270   4.251  12.601   3.820
46791SOL    HW242271   4.368  12.613   3.723
46792SOL     OW42272   7.583   9.880   0.829
46792SOL    HW142273   7.541   9.930   0.759
46792SOL    HW242274   7.548   9.918   0.910
46793SOL     OW42275  12.241   7.484   5.958
46793SOL    HW142276  12.263   7.558   5.902
46793SOL    HW242277  12.270   7.407   5.908
46794SOL     OW42278   9.609   0.007  13.005
46794SOL    HW142279   9.598  14.846  13.095
46794SOL    HW242280   9.689  14.835  12.974
46795SOL     OW42281   5.065   2.821  14.715
46795SOL    HW142282   5.019   2.754  14.765
46795SOL    HW242283   5.002   2.850  14.649
46796SOL     OW42284   1.428   4.375  10.829
46796SOL    HW142285   1.349   4.382  10.776
46796SOL    HW242286   1.396   4.355  10.917
46797SOL     OW42287   8.724   1.184   1.478
46797SOL    HW142288   8.714   1.094   1.447
46797SOL    HW242289   8.637   1.223   1.470
46798SOL     OW42290  10.464  14.617  10.383
46798SOL    HW142291  10.504  14.631  10.297
46798SOL    HW242292  10.538  14.616  10.443
46799SOL     OW42293   4.312   1.530   9.935
46799SOL    HW142294   4.403   1.521   9.906
46799SOL    HW242295   4.275   1.598   9.878
46800SOL     OW42296   7.282  12.140   2.834
46800SOL    HW142297   7.250  12.153   2.923
46800SOL    HW242298   7.365  12.095   2.844
46801SOL     OW42299  12.305   7.419   7.173
46801SOL    HW142300  12.210   7.415   7.182
46801SOL    HW242301  12.337   7.343   7.221
46802SOL     OW42302  10.536   0.142   1.665
46802SOL    HW142303  10.595   0.190   1.606
46802SOL    HW242304  10.502   0.209   1.724
46803SOL     OW42305   9.523   9.862   8.939
46803SOL    HW142306   9.504   9.785   8.885
46803SOL    HW242307   9.449   9.921   8.924
46804SOL     OW42308   9.502   9.404  12.711
46804SOL    HW142309   9.429   9.379  12.767
46804SOL    HW242310   9.543   9.321  12.686
46805SOL     OW42311  12.469  10.486  13.071
46805SOL    HW142312  12.422  10.455  13.149
46805SOL    HW242313  12.517  10.563  13.102
46806SOL     OW42314   9.200  10.370  10.711
46806SOL    HW142315   9.104  10.374  10.706
46806SOL    HW242316   9.218  10.282  10.744
46807SOL     OW42317  11.288  13.221  11.975
46807SOL    HW142318  11.303  13.306  11.934
46807SOL    HW242319  11.293  13.239  12.069
46808SOL     OW42320   9.484  14.464   2.565
46808SOL    HW142321   9.531  14.396   2.613
46808SOL    HW242322   9.425  14.417   2.507
46809SOL     OW42323   9.717  10.462  14.718
46809SOL    HW142324   9.634  10.416  14.731
46809SOL    HW242325   9.774  10.429  14.787
46810SOL     OW42326   4.223   4.129  12.889
46810SOL    HW142327   4.223   4.035  12.872
46810SOL    HW242328   4.274   4.166  12.817
46811SOL     OW42329   2.486  12.118   2.912
46811SOL    HW142330   2.465  12.096   3.002
46811SOL    HW242331   2.530  12.203   2.917
46812SOL     OW42332   7.448   0.109  11.424
46812SOL    HW142333   7.483   0.022  11.444
46812SOL    HW242334   7.361   0.093  11.387
46813SOL     OW42335   7.036  13.026  12.274
46813SOL    HW142336   7.095  12.956  12.305
46813SOL    HW242337   7.063  13.041  12.184
46814SOL     OW42338   5.085  13.894   2.570
46814SOL    HW142339   5.037  13.821   2.609
46814SOL    HW242340   5.075  13.966   2.633
46815SOL     OW42341   9.659   9.412   2.628
46815SOL    HW142342   9.754   9.407   2.625
46815SOL    HW242343   9.638   9.500   2.596
46816SOL     OW42344   3.135  14.753  14.204
46816SOL    HW142345   3.191  14.781  14.131
46816SOL    HW242346   3.099  14.670  14.175
46817SOL     OW42347   5.093   8.555   0.089
46817SOL    HW142348   5.177   8.513   0.068
46817SOL    HW242349   5.031   8.482   0.091
46818SOL     OW42350   3.677   6.378   9.717
46818SOL    HW142351   3.624   6.421   9.649
46818SOL    HW242352   3.736   6.446   9.749
46819SOL     OW42353   5.924   4.084   5.378
46819SOL    HW142354   5.868   4.135   5.319
46819SOL    HW242355   5.892   4.106   5.466
46820SOL     OW42356   1.733   3.490   0.311
46820SOL    HW142357   1.828   3.494   0.302
46820SOL    HW242358   1.714   3.398   0.329
46821SOL     OW42359   5.218   6.654   2.643
46821SOL    HW142360   5.123   6.648   2.654
46821SOL    HW242361   5.231   6.653   2.548
46822SOL     OW42362   1.960   8.574   2.243
46822SOL    HW142363   1.912   8.492   2.228
46822SOL    HW242364   2.004   8.591   2.160
46823SOL     OW42365   5.089   3.009   0.413
46823SOL    HW142366   5.058   3.037   0.499
46823SOL    HW242367   5.049   3.071   0.352
46824SOL     OW42368   9.870   7.246  10.235
46824SOL    HW142369   9.899   7.337  10.239
46824SOL    HW242370   9.875   7.223  10.142
46825SOL     OW42371   5.117  14.473   0.270
46825SOL    HW142372   5.136  14.561   0.236
46825SOL    HW242373   5.030  14.481   0.309
46826SOL     OW42374  11.705   6.870   0.166
46826SOL    HW142375  11.692   6.852   0.073
46826SOL    HW242376  11.622   6.909   0.195
46827SOL     OW42377  10.493   1.201  10.634
46827SOL    HW142378  10.584   1.227  10.648
46827SOL    HW242379  10.443   1.258  10.692
46828SOL     OW42380   7.786  10.349  12.580
46828SOL    HW142381   7.823  10.302  12.505
46828SOL    HW242382   7.776  10.281  12.647
46829SOL     OW42383  10.046   9.607   8.976
46829SOL    HW142384  10.066   9.689   8.930
46829SOL    HW242385  10.019   9.546   8.907
46830SOL     OW42386   1.042   4.052   9.247
46830SOL    HW142387   1.045   3.978   9.308
46830SOL    HW242388   0.951   4.082   9.250
46831SOL     OW42389   3.767  13.749  13.994
46831SOL    HW142390   3.713  13.740  13.915
46831SOL    HW242391   3.822  13.825  13.976
46832SOL     OW42392   5.037  12.674   3.057
46832SOL    HW142393   4.975  12.744   3.076
46832SOL    HW242394   5.094  12.671   3.133
46833SOL     OW42395   2.090  12.796   7.578
46833SOL    HW142396   1.999  12.786   7.551
46833SOL    HW242397   2.091  12.877   7.629
46834SOL     OW42398  11.437   8.129   8.072
46834SOL    HW142399  11.345   8.130   8.049
46834SOL    HW242400  11.438   8.117   8.167
46835SOL     OW42401  14.496  11.675  12.560
46835SOL    HW142402  14.578  11.631  12.581
46835SOL    HW242403  14.451  11.616  12.499
46836SOL     OW42404   5.209   4.619   3.654
46836SOL    HW142405   5.252   4.656   3.731
46836SOL    HW242406   5.226   4.525   3.660
46837SOL     OW42407   3.859   8.433   6.456
46837SOL    HW142408   3.764   8.434   6.470
46837SOL    HW242409   3.892   8.368   6.518
46838SOL     OW42410   0.635   0.760   6.025
46838SOL    HW142411   0.632   0.666   6.011
46838SOL    HW242412   0.726   0.779   6.047
46839SOL     OW42413   2.558  11.752   9.886
46839SOL    HW142414   2.638  11.701   9.900
46839SOL    HW242415   2.508  11.700   9.823
46840SOL     OW42416   3.260   1.154   6.921
46840SOL    HW142417   3.264   1.063   6.894
46840SOL    HW242418   3.335   1.195   6.877
46841SOL     OW42419   3.074  11.515  12.563
46841SOL    HW142420   3.119  11.564  12.495
46841SOL    HW242421   2.981  11.529  12.547
46842SOL     OW42422   9.745  14.408   9.306
46842SOL    HW142423   9.679  14.469   9.274
46842SOL    HW242424   9.698  14.325   9.316
46843SOL     OW42425  12.669  12.144   3.752
46843SOL    HW142426  12.729  12.194   3.807
46843SOL    HW242427  12.715  12.062   3.734
46844SOL     OW42428   8.995   1.324  13.828
46844SOL    HW142429   8.918   1.269  13.813
46844SOL    HW242430   9.035   1.288  13.907
46845SOL     OW42431   4.326   2.193  10.213
46845SOL    HW142432   4.253   2.136  10.188
46845SOL    HW242433   4.404   2.150  10.178
46846SOL     OW42434   3.542   0.961   1.627
46846SOL    HW142435   3.620   0.940   1.678
46846SOL    HW242436   3.565   1.041   1.579
46847SOL     OW42437  12.992   9.926   1.872
46847SOL    HW142438  12.954   9.964   1.792
46847SOL    HW242439  12.936   9.850   1.891
46848SOL     OW42440   2.243   2.775  12.032
46848SOL    HW142441   2.227   2.864  12.000
46848SOL    HW242442   2.168   2.756  12.088
46849SOL     OW42443   6.975  14.746  12.466
46849SOL    HW142444   6.901  14.695  12.431
46849SOL    HW242445   6.979  14.824  12.410
46850SOL     OW42446   1.479   2.552  13.320
46850SOL    HW142447   1.455   2.577  13.409
46850SOL    HW242448   1.493   2.635  13.275
46851SOL     OW42449   6.020  10.731  12.279
46851SOL    HW142450   6.091  10.714  12.218
46851SOL    HW242451   6.017  10.654  12.336
46852SOL     OW42452   4.011   8.016  14.447
46852SOL    HW142453   3.980   8.101  14.418
46852SOL    HW242454   3.965   7.953  14.391
46853SOL     OW42455   9.041   0.636   7.830
46853SOL    HW142456   9.054   0.666   7.920
46853SOL    HW242457   9.015   0.544   7.838
46854SOL     OW42458   4.172   9.367   4.868
46854SOL    HW142459   4.126   9.382   4.785
46854SOL    HW242460   4.157   9.446   4.918
46855SOL     OW42461   3.263  14.562   6.301
46855SOL    HW142462   3.206  14.487   6.315
46855SOL    HW242463   3.205  14.638   6.311
46856SOL     OW42464   5.636  11.758   7.408
46856SOL    HW142465   5.544  11.759   7.437
46856SOL    HW242466   5.671  11.677   7.445
46857SOL     OW42467   3.973   8.232   7.116
46857SOL    HW142468   3.931   8.318   7.114
46857SOL    HW242469   4.066   8.251   7.104
46858SOL     OW42470  14.445   0.359   6.108
46858SOL    HW142471  14.374   0.422   6.113
46858SOL    HW242472  14.507   0.397   6.046
46859SOL     OW42473   0.802   3.891  10.462
46859SOL    HW142474   0.724   3.920  10.509
46859SOL    HW242475   0.817   3.802  10.493
46860SOL     OW42476  13.053   3.684   1.626
46860SOL    HW142477  12.997   3.673   1.550
46860SOL    HW242478  13.073   3.595   1.654
46861SOL     OW42479  12.208   1.859  12.856
46861SOL    HW142480  12.141   1.928  12.866
46861SOL    HW242481  12.286   1.906  12.825
46862SOL     OW42482   6.715   2.842  14.455
46862SOL    HW142483   6.645   2.778  14.441
46862SOL    HW242484   6.772   2.802  14.520
46863SOL     OW42485   4.642  10.904   4.174
46863SOL    HW142486   4.732  10.910   4.143
46863SOL    HW242487   4.611  10.995   4.174
46864SOL     OW42488   7.358   0.702  11.154
46864SOL    HW142489   7.411   0.655  11.218
46864SOL    HW242490   7.407   0.783  11.138
46865SOL     OW42491   8.814   7.275  13.029
46865SOL    HW142492   8.792   7.279  13.122
46865SOL    HW242493   8.730   7.273  12.984
46866SOL     OW42494  11.006   4.030  14.434
46866SOL    HW142495  10.921   3.989  14.417
46866SOL    HW242496  11.053   4.022  14.351
46867SOL     OW42497   5.253   8.442  13.094
46867SOL    HW142498   5.347   8.422  13.099
46867SOL    HW242499   5.219   8.378  13.032
46868SOL     OW42500   1.500   2.650   2.306
46868SOL    HW142501   1.568   2.591   2.337
46868SOL    HW242502   1.420   2.597   2.308
46869SOL     OW42503   1.472  10.636   0.578
46869SOL    HW142504   1.515  10.551   0.581
46869SOL    HW242505   1.544  10.699   0.583
46870SOL     OW42506   5.358   1.230   5.505
46870SOL    HW142507   5.444   1.226   5.547
46870SOL    HW242508   5.375   1.204   5.414
46871SOL     OW42509   9.810   3.368   9.613
46871SOL    HW142510   9.901   3.359   9.643
46871SOL    HW242511   9.780   3.449   9.653
46872SOL     OW42512  14.619   6.961   9.156
46872SOL    HW142513  14.608   6.873   9.194
46872SOL    HW242514  14.533   7.001   9.164
46873SOL     OW42515   0.559  10.293   7.140
46873SOL    HW142516   0.473  10.315   7.104
46873SOL    HW242517   0.611  10.268   7.064
46874SOL     OW42518   5.495  14.411  12.607
46874SOL    HW142519   5.452  14.485  12.564
46874SOL    HW242520   5.585  14.414  12.575
46875SOL     OW42521   4.050   9.360  14.689
46875SOL    HW142522   4.046   9.449  14.723
46875SOL    HW242523   3.979   9.314  14.733
46876SOL     OW42524   1.338  10.203   0.058
46876SOL    HW142525   1.243  10.201   0.049
46876SOL    HW242526   1.363  10.289   0.025
46877SOL     OW42527  12.926   8.955  12.079
46877SOL    HW142528  12.892   9.015  12.012
46877SOL    HW242529  12.851   8.901  12.103
46878SOL     OW42530   7.905  11.876  14.813
46878SOL    HW142531   7.961  11.820  14.759
46878SOL    HW242532   7.828  11.894  14.759
46879SOL     OW42533   9.890  12.088  14.835
46879SOL    HW142534   9.796  12.078  14.849
46879SOL    HW242535   9.901  12.182  14.821
46880SOL     OW42536   7.621   2.496  13.285
46880SOL    HW142537   7.662   2.577  13.253
46880SOL    HW242538   7.556   2.474  13.218
46881SOL     OW42539   6.527  14.142  12.152
46881SOL    HW142540   6.595  14.152  12.219
46881SOL    HW242541   6.482  14.061  12.175
46882SOL     OW42542  11.761   6.779  14.507
46882SOL    HW142543  11.823   6.852  14.509
46882SOL    HW242544  11.753   6.757  14.414
46883SOL     OW42545   1.102   0.569  14.085
46883SOL    HW142546   1.036   0.638  14.096
46883SOL    HW242547   1.076   0.502  14.149
46884SOL     OW42548   4.296   8.847   1.203
46884SOL    HW142549   4.259   8.786   1.267
46884SOL    HW242550   4.283   8.804   1.119
46885SOL     OW42551  11.953  14.167   5.160
46885SOL    HW142552  11.997  14.119   5.230
46885SOL    HW242553  11.943  14.102   5.090
46886SOL     OW42554   5.554   8.667  14.768
46886SOL    HW142555   5.516   8.582  14.745
46886SOL    HW242556   5.486   8.710  14.819
46887SOL     OW42557   4.996   3.960   2.974
46887SOL    HW142558   4.948   3.945   2.893
46887SOL    HW242559   5.067   3.895   2.972
46888SOL     OW42560  12.783  12.540  13.927
46888SOL    HW142561  12.809  12.586  14.007
46888SOL    HW242562  12.836  12.580  13.858
46889SOL     OW42563   2.365   8.504   7.742
46889SOL    HW142564   2.329   8.428   7.698
46889SOL    HW242565   2.418   8.468   7.813
46890SOL     OW42566  11.968  12.033  11.421
46890SOL    HW142567  11.996  12.123  11.409
46890SOL    HW242568  11.873  12.036  11.412
46891SOL     OW42569   4.214   6.512  10.277
46891SOL    HW142570   4.202   6.461  10.197
46891SOL    HW242571   4.127   6.512  10.318
46892SOL     OW42572   6.187  11.512   4.191
46892SOL    HW142573   6.116  11.563   4.152
46892SOL    HW242574   6.256  11.577   4.207
46893SOL     OW42575   0.139  11.251  14.334
46893SOL    HW142576   0.133  11.160  14.307
46893SOL    HW242577   0.078  11.259  14.407
46894SOL     OW42578   1.874   6.006   7.679
46894SOL    HW142579   1.968   6.025   7.673
46894SOL    HW242580   1.842   6.017   7.590
46895SOL     OW42581  14.137   0.282   4.208
46895SOL    HW142582  14.090   0.352   4.253
46895SOL    HW242583  14.081   0.259   4.134
46896SOL     OW42584   2.699   6.625   0.009
46896SOL    HW142585   2.790   6.654   0.014
46896SOL    HW242586   2.648   6.706   0.007
46897SOL     OW42587   9.939   1.871  10.430
46897SOL    HW142588   9.913   1.784  10.401
46897SOL    HW242589   9.925   1.927  10.353
46898SOL     OW42590   4.347   5.455   7.283
46898SOL    HW142591   4.295   5.496   7.214
46898SOL    HW242592   4.422   5.513   7.295
46899SOL     OW42593  12.676   7.832   4.474
46899SOL    HW142594  12.728   7.767   4.522
46899SOL    HW242595  12.733   7.863   4.405
46900SOL     OW42596   9.377  14.063   2.328
46900SOL    HW142597   9.394  14.093   2.238
46900SOL    HW242598   9.320  13.986   2.317
46901SOL     OW42599   3.776   1.242   0.705
46901SOL    HW142600   3.767   1.181   0.631
46901SOL    HW242601   3.703   1.219   0.763
46902SOL     OW42602   2.244  13.900   5.161
46902SOL    HW142603   2.180  13.964   5.192
46902SOL    HW242604   2.302  13.886   5.236
46903SOL     OW42605  10.829   4.132   4.848
46903SOL    HW142606  10.902   4.179   4.809
46903SOL    HW242607  10.755   4.193   4.842
46904SOL     OW42608   0.298  11.743   9.727
46904SOL    HW142609   0.367  11.757   9.661
46904SOL    HW242610   0.323  11.662   9.771
46905SOL     OW42611   1.436   5.112  13.125
46905SOL    HW142612   1.384   5.191  13.116
46905SOL    HW242613   1.487   5.107  13.044
46906SOL     OW42614   5.875   2.790   9.703
46906SOL    HW142615   5.941   2.812   9.638
46906SOL    HW242616   5.847   2.701   9.680
46907SOL     OW42617   2.959   7.234   1.978
46907SOL    HW142618   3.006   7.206   1.900
46907SOL    HW242619   2.874   7.191   1.972
46908SOL     OW42620   9.645   1.825   7.433
46908SOL    HW142621   9.715   1.875   7.390
46908SOL    HW242622   9.618   1.760   7.368
46909SOL     OW42623  13.758  10.283   6.586
46909SOL    HW142624  13.721  10.339   6.518
46909SOL    HW242625  13.742  10.194   6.555
46910SOL     OW42626   3.718   4.806  10.686
46910SOL    HW142627   3.759   4.848  10.611
46910SOL    HW242628   3.750   4.854  10.762
46911SOL     OW42629  12.520   0.122  10.043
46911SOL    HW142630  12.574   0.186   9.996
46911SOL    HW242631  12.448   0.174  10.078
46912SOL     OW42632   3.869  13.090   5.492
46912SOL    HW142633   3.779  13.060   5.481
46912SOL    HW242634   3.916  13.051   5.419
46913SOL     OW42635  13.454   9.922   8.235
46913SOL    HW142636  13.443  10.017   8.233
46913SOL    HW242637  13.539   9.909   8.275
46914SOL     OW42638   9.711  12.552   9.019
46914SOL    HW142639   9.618  12.574   9.011
46914SOL    HW242640   9.735  12.518   8.933
46915SOL     OW42641  10.893   9.903   1.863
46915SOL    HW142642  10.918   9.812   1.845
46915SOL    HW242643  10.866   9.902   1.955
46916SOL     OW42644   3.351   8.359   6.787
46916SOL    HW142645   3.386   8.447   6.804
46916SOL    HW242646   3.309   8.334   6.869
46917SOL     OW42647   0.783  11.713   8.131
46917SOL    HW142648   0.758  11.803   8.153
46917SOL    HW242649   0.720  11.659   8.177
46918SOL     OW42650   9.803   1.271   9.355
46918SOL    HW142651   9.882   1.221   9.335
46918SOL    HW242652   9.761   1.285   9.270
46919SOL     OW42653   3.145  10.310   7.025
46919SOL    HW142654   3.052  10.289   7.036
46919SOL    HW242655   3.162  10.380   7.088
46920SOL     OW42656   7.890   0.210   4.475
46920SOL    HW142657   7.910   0.303   4.490
46920SOL    HW242658   7.806   0.196   4.518
46921SOL     OW42659  14.511   8.463   4.502
46921SOL    HW142660  14.543   8.516   4.429
46921SOL    HW242661  14.470   8.387   4.461
46922SOL     OW42662  13.988   4.934   4.874
46922SOL    HW142663  13.928   4.995   4.916
46922SOL    HW242664  13.944   4.849   4.879
46923SOL     OW42665  14.135   1.317   0.048
46923SOL    HW142666  14.206   1.369   0.084
46923SOL    HW242667  14.059   1.340   0.102
46924SOL     OW42668   7.364   9.125   6.033
46924SOL    HW142669   7.386   9.080   5.951
46924SOL    HW242670   7.356   9.055   6.098
46925SOL     OW42671  11.509  11.109   3.246
46925SOL    HW142672  11.555  11.099   3.330
46925SOL    HW242673  11.428  11.154   3.269
46926SOL     OW42674  14.289  10.228   7.691
46926SOL    HW142675  14.225  10.196   7.627
46926SOL    HW242676  14.364  10.170   7.681
46927SOL     OW42677  10.489   1.782   5.313
46927SOL    HW142678  10.537   1.852   5.269
46927SOL    HW242679  10.406   1.777   5.266
46928SOL     OW42680   1.586   6.779   8.022
46928SOL    HW142681   1.674   6.750   7.995
46928SOL    HW242682   1.552   6.706   8.074
46929SOL     OW42683   6.157   2.964  10.167
46929SOL    HW142684   6.081   3.005  10.208
46929SOL    HW242685   6.171   2.884  10.219
46930SOL     OW42686   3.138   9.101   4.762
46930SOL    HW142687   3.073   9.067   4.700
46930SOL    HW242688   3.117   9.056   4.844
46931SOL     OW42689   6.270  12.958  12.316
46931SOL    HW142690   6.289  13.051  12.332
46931SOL    HW242691   6.290  12.945  12.224
46932SOL     OW42692  13.683   0.022   8.087
46932SOL    HW142693  13.676   0.060   8.174
46932SOL    HW242694  13.679   0.097   8.028
46933SOL     OW42695   4.880  14.155   8.749
46933SOL    HW142696   4.939  14.198   8.810
46933SOL    HW242697   4.801  14.209   8.750
46934SOL     OW42698   1.153   7.334   7.843
46934SOL    HW142699   1.227   7.327   7.903
46934SOL    HW242700   1.089   7.270   7.877
46935SOL     OW42701   4.325  12.995   8.699
46935SOL    HW142702   4.274  12.997   8.780
46935SOL    HW242703   4.338  12.901   8.681
46936SOL     OW42704   1.269  12.188   8.537
46936SOL    HW142705   1.182  12.171   8.573
46936SOL    HW242706   1.253  12.202   8.443
46937SOL     OW42707   5.733  10.063   1.507
46937SOL    HW142708   5.755  10.065   1.414
46937SOL    HW242709   5.695  10.149   1.525
46938SOL     OW42710   4.401   3.034   3.061
46938SOL    HW142711   4.464   2.996   2.999
46938SOL    HW242712   4.315   3.014   3.022
46939SOL     OW42713   6.223   0.719   0.913
46939SOL    HW142714   6.131   0.721   0.942
46939SOL    HW242715   6.218   0.712   0.818
46940SOL     OW42716   4.592  10.178   2.736
46940SOL    HW142717   4.612  10.254   2.681
46940SOL    HW242718   4.571  10.109   2.674
46941SOL     OW42719  10.572  14.209   4.064
46941SOL    HW142720  10.631  14.271   4.020
46941SOL    HW242721  10.517  14.175   3.995
46942SOL     OW42722   6.758   7.637   2.091
46942SOL    HW142723   6.789   7.654   2.003
46942SOL    HW242724   6.699   7.710   2.110
46943SOL     OW42725   8.043  12.152   1.531
46943SOL    HW142726   7.962  12.188   1.496
46943SOL    HW242727   8.040  12.059   1.508
46944SOL     OW42728   4.272   3.349   5.233
46944SOL    HW142729   4.353   3.357   5.284
46944SOL    HW242730   4.293   3.284   5.166
46945SOL     OW42731   8.330  14.554   2.394
46945SOL    HW142732   8.374  14.470   2.381
46945SOL    HW242733   8.285  14.571   2.311
46946SOL     OW42734   7.515  11.951   9.944
46946SOL    HW142735   7.536  11.964  10.037
46946SOL    HW242736   7.542  12.032   9.901
46947SOL     OW42737   6.300   7.178   5.609
46947SOL    HW142738   6.300   7.248   5.674
46947SOL    HW242739   6.294   7.097   5.661
46948SOL     OW42740  11.104   0.480   8.620
46948SOL    HW142741  11.163   0.545   8.582
46948SOL    HW242742  11.055   0.446   8.545
46949SOL     OW42743   4.944   7.933   2.185
46949SOL    HW142744   4.941   7.853   2.133
46949SOL    HW242745   4.981   7.905   2.269
46950SOL     OW42746   7.722   2.016  11.907
46950SOL    HW142747   7.690   1.933  11.941
46950SOL    HW242748   7.739   2.068  11.986
46951SOL     OW42749  14.002   2.854  11.643
46951SOL    HW142750  13.927   2.837  11.700
46951SOL    HW242751  14.044   2.769  11.632
46952SOL     OW42752   9.686   6.265  12.527
46952SOL    HW142753   9.662   6.356  12.546
46952SOL    HW242754   9.737   6.269  12.447
46953SOL     OW42755   9.575   3.399   7.566
46953SOL    HW142756   9.544   3.311   7.584
46953SOL    HW242757   9.500   3.455   7.583
46954SOL     OW42758  10.440   7.615  13.429
46954SOL    HW142759  10.382   7.650  13.362
46954SOL    HW242760  10.451   7.688  13.491
46955SOL     OW42761   7.849   8.388  13.288
46955SOL    HW142762   7.768   8.413  13.245
46955SOL    HW242763   7.888   8.471  13.317
46956SOL     OW42764   2.710   0.487  14.294
46956SOL    HW142765   2.798   0.450  14.299
46956SOL    HW242766   2.723   0.573  14.254
46957SOL     OW42767  11.909   5.906   2.041
46957SOL    HW142768  11.885   5.984   1.992
46957SOL    HW242769  11.933   5.842   1.974
46958SOL     OW42770  13.374  10.061   4.651
46958SOL    HW142771  13.403   9.980   4.608
46958SOL    HW242772  13.410  10.131   4.598
46959SOL     OW42773   4.168   6.715   5.474
46959SOL    HW142774   4.174   6.809   5.491
46959SOL    HW242775   4.256   6.681   5.492
46960SOL     OW42776   5.349  12.485   5.051
46960SOL    HW142777   5.255  12.500   5.064
46960SOL    HW242778   5.354  12.416   4.986
46961SOL     OW42779   3.318  10.362   1.702
46961SOL    HW142780   3.376  10.365   1.777
46961SOL    HW242781   3.366  10.312   1.636
46962SOL     OW42782   8.179   8.467   8.673
46962SOL    HW142783   8.129   8.434   8.747
46962SOL    HW242784   8.265   8.489   8.710
46963SOL     OW42785  11.267   3.529  14.152
46963SOL    HW142786  11.301   3.440  14.141
46963SOL    HW242787  11.321   3.568  14.221
46964SOL     OW42788  12.665   8.791   2.978
46964SOL    HW142789  12.686   8.730   3.048
46964SOL    HW242790  12.671   8.739   2.898
46965SOL     OW42791  12.991  11.845   3.285
46965SOL    HW142792  13.021  11.921   3.336
46965SOL    HW242793  13.006  11.870   3.194
46966SOL     OW42794  13.411   2.151   2.810
46966SOL    HW142795  13.429   2.091   2.737
46966SOL    HW242796  13.443   2.236   2.779
46967SOL     OW42797   1.020  10.914  12.366
46967SOL    HW142798   1.014  10.829  12.409
46967SOL    HW242799   1.114  10.934  12.365
46968SOL     OW42800  13.569  13.481   9.840
46968SOL    HW142801  13.536  13.526   9.918
46968SOL    HW242802  13.638  13.424   9.873
46969SOL     OW42803  13.436  11.934   7.657
46969SOL    HW142804  13.473  12.016   7.690
46969SOL    HW242805  13.411  11.885   7.736
46970SOL     OW42806   0.062   5.844  10.782
46970SOL    HW142807   0.119   5.912  10.748
46970SOL    HW242808   0.025   5.881  10.862
46971SOL     OW42809   0.140   3.458   3.751
46971SOL    HW142810   0.097   3.465   3.666
46971SOL    HW242811   0.234   3.453   3.730
46972SOL     OW42812   8.064   8.318   2.694
46972SOL    HW142813   8.030   8.323   2.605
46972SOL    HW242814   7.991   8.346   2.750
46973SOL     OW42815   1.544   7.224   9.049
46973SOL    HW142816   1.619   7.171   9.074
46973SOL    HW242817   1.573   7.273   8.972
46974SOL     OW42818   7.420   3.011   9.586
46974SOL    HW142819   7.470   2.943   9.542
46974SOL    HW242820   7.471   3.090   9.574
46975SOL     OW42821   8.421  10.763  10.207
46975SOL    HW142822   8.393  10.678  10.172
46975SOL    HW242823   8.395  10.826  10.140
46976SOL     OW42824   8.926  14.606  13.809
46976SOL    HW142825   8.900  14.604  13.901
46976SOL    HW242826   9.012  14.563  13.807
46977SOL     OW42827  14.090  13.469  11.832
46977SOL    HW142828  14.068  13.534  11.766
46977SOL    HW242829  14.169  13.427  11.798
46978SOL     OW42830   8.518  12.679   3.539
46978SOL    HW142831   8.470  12.727   3.472
46978SOL    HW242832   8.472  12.595   3.547
46979SOL     OW42833  10.383   8.563   1.726
46979SOL    HW142834  10.399   8.474   1.758
46979SOL    HW242835  10.394   8.556   1.631
46980SOL     OW42836   3.118   4.402  12.594
46980SOL    HW142837   3.198   4.430  12.639
46980SOL    HW242838   3.065   4.360  12.662
46981SOL     OW42839   7.989   4.896   8.680
46981SOL    HW142840   7.899   4.903   8.650
46981SOL    HW242841   8.010   4.983   8.714
46982SOL     OW42842  13.300   1.230   9.612
46982SOL    HW142843  13.380   1.272   9.582
46982SOL    HW242844  13.301   1.144   9.572
46983SOL     OW42845  10.473   8.197  12.074
46983SOL    HW142846  10.553   8.148  12.092
46983SOL    HW242847  10.500   8.270  12.018
46984SOL     OW42848  12.576  11.039  11.373
46984SOL    HW142849  12.657  11.079  11.340
46984SOL    HW242850  12.521  11.030  11.295
46985SOL     OW42851   8.442   5.114   3.771
46985SOL    HW142852   8.379   5.114   3.843
46985SOL    HW242853   8.395   5.155   3.698
46986SOL     OW42854   2.779   0.453  13.969
46986SOL    HW142855   2.788   0.476  13.877
46986SOL    HW242856   2.712   0.512  14.003
46987SOL     OW42857   7.573   5.867   0.635
46987SOL    HW142858   7.572   5.936   0.702
46987SOL    HW242859   7.559   5.786   0.684
46988SOL     OW42860  14.552   9.718   6.015
46988SOL    HW142861  14.533   9.781   6.084
46988SOL    HW242862  14.488   9.649   6.026
46989SOL     OW42863  14.162  10.823  14.480
46989SOL    HW142864  14.229  10.846  14.416
46989SOL    HW242865  14.192  10.865  14.561
46990SOL     OW42866   8.351  14.212   7.836
46990SOL    HW142867   8.337  14.306   7.847
46990SOL    HW242868   8.323  14.195   7.746
46991SOL     OW42869  11.216   7.540   1.739
46991SOL    HW142870  11.243   7.457   1.701
46991SOL    HW242871  11.274   7.552   1.814
46992SOL     OW42872   8.544   6.034  12.741
46992SOL    HW142873   8.543   5.958  12.799
46992SOL    HW242874   8.631   6.071  12.752
46993SOL     OW42875   4.671   8.840   0.821
46993SOL    HW142876   4.654   8.750   0.847
46993SOL    HW242877   4.647   8.844   0.729
46994SOL     OW42878   2.542   5.739   1.300
46994SOL    HW142879   2.474   5.803   1.283
46994SOL    HW242880   2.524   5.707   1.389
46995SOL     OW42881   7.289   6.437   7.220
46995SOL    HW142882   7.257   6.383   7.147
46995SOL    HW242883   7.304   6.523   7.182
46996SOL     OW42884   9.659   7.487  11.943
46996SOL    HW142885   9.723   7.419  11.927
46996SOL    HW242886   9.708   7.558  11.985
46997SOL     OW42887   6.101   3.133   4.930
46997SOL    HW142888   6.026   3.186   4.958
46997SOL    HW242889   6.177   3.190   4.942
46998SOL     OW42890  11.717  11.490   1.897
46998SOL    HW142891  11.675  11.482   1.982
46998SOL    HW242892  11.733  11.583   1.886
46999SOL     OW42893  12.325   6.424   2.422
46999SOL    HW142894  12.327   6.450   2.330
46999SOL    HW242895  12.378   6.491   2.466
47000SOL     OW42896   5.167   2.717   3.254
47000SOL    HW142897   5.218   2.795   3.278
47000SOL    HW242898   5.217   2.677   3.183
47001SOL     OW42899  14.810   0.595   5.609
47001SOL    HW142900  14.855   0.520   5.569
47001SOL    HW242901   0.009   0.648   5.647
47002SOL     OW42902   3.499  10.447   3.915
47002SOL    HW142903   3.537  10.522   3.868
47002SOL    HW242904   3.524  10.461   4.006
47003SOL     OW42905   5.641   2.970  12.279
47003SOL    HW142906   5.553   2.972  12.316
47003SOL    HW242907   5.673   2.882  12.296
47004SOL     OW42908   3.649   2.636   9.277
47004SOL    HW142909   3.657   2.703   9.209
47004SOL    HW242910   3.630   2.685   9.357
47005SOL     OW42911   0.505  11.586   9.180
47005SOL    HW142912   0.562  11.627   9.246
47005SOL    HW242913   0.539  11.617   9.096
47006SOL     OW42914  10.643   8.682   8.892
47006SOL    HW142915  10.616   8.591   8.901
47006SOL    HW242916  10.570   8.733   8.927
47007SOL     OW42917   8.291   1.171  14.509
47007SOL    HW142918   8.341   1.091  14.495
47007SOL    HW242919   8.199   1.143  14.505
47008SOL     OW42920  11.331   3.747   1.670
47008SOL    HW142921  11.361   3.731   1.759
47008SOL    HW242922  11.290   3.665   1.643
47009SOL     OW42923   5.545   3.095  10.382
47009SOL    HW142924   5.548   3.036  10.457
47009SOL    HW242925   5.519   3.039  10.309
47010SOL     OW42926  13.951   7.125  10.032
47010SOL    HW142927  13.968   7.052   9.972
47010SOL    HW242928  14.021   7.187  10.014
47011SOL     OW42929   2.979   5.711   0.476
47011SOL    HW142930   2.887   5.687   0.473
47011SOL    HW242931   2.986   5.786   0.418
47012SOL     OW42932   2.192   9.544   1.789
47012SOL    HW142933   2.155   9.524   1.875
47012SOL    HW242934   2.276   9.585   1.808
47013SOL     OW42935  14.651  10.988  10.550
47013SOL    HW142936  14.588  11.039  10.499
47013SOL    HW242937  14.602  10.959  10.627
47014SOL     OW42938   6.591   6.677   1.251
47014SOL    HW142939   6.530   6.620   1.298
47014SOL    HW242940   6.657   6.618   1.215
47015SOL     OW42941   2.161   3.292  14.342
47015SOL    HW142942   2.112   3.374  14.335
47015SOL    HW242943   2.237   3.304  14.285
47016SOL     OW42944   4.688   3.463   3.561
47016SOL    HW142945   4.654   3.385   3.604
47016SOL    HW242946   4.613   3.500   3.514
47017SOL     OW42947  12.736   8.923   8.846
47017SOL    HW142948  12.692   8.847   8.809
47017SOL    HW242949  12.711   8.923   8.938
47018SOL     OW42950   2.140   7.974  14.149
47018SOL    HW142951   2.128   7.953  14.242
47018SOL    HW242952   2.223   8.022  14.146
47019SOL     OW42953  14.743   1.283   1.136
47019SOL    HW142954  14.672   1.231   1.099
47019SOL    HW242955  14.706   1.321   1.216
47020SOL     OW42956  10.292  14.860   2.169
47020SOL    HW142957  10.267  14.775   2.131
47020SOL    HW242958  10.360   0.021   2.111
47021SOL     OW42959   6.522   5.854   3.833
47021SOL    HW142960   6.567   5.785   3.784
47021SOL    HW242961   6.534   5.933   3.779
47022SOL     OW42962   4.854  10.031  14.214
47022SOL    HW142963   4.896   9.953  14.177
47022SOL    HW242964   4.761  10.021  14.192
47023SOL     OW42965  10.945   8.248   8.358
47023SOL    HW142966  10.897   8.316   8.311
47023SOL    HW242967  10.876   8.198   8.403
47024SOL     OW42968   4.028   2.488   5.064
47024SOL    HW142969   3.997   2.398   5.062
47024SOL    HW242970   4.120   2.482   5.090
47025SOL     OW42971   8.736   1.555   3.691
47025SOL    HW142972   8.822   1.594   3.706
47025SOL    HW242973   8.755   1.461   3.678
47026SOL     OW42974   4.963   3.398   6.352
47026SOL    HW142975   5.032   3.464   6.353
47026SOL    HW242976   4.885   3.444   6.321
47027SOL     OW42977  10.766   6.952   2.121
47027SOL    HW142978  10.743   6.982   2.033
47027SOL    HW242979  10.832   6.884   2.107
47028SOL     OW42980   7.392   5.833   2.087
47028SOL    HW142981   7.467   5.888   2.108
47028SOL    HW242982   7.386   5.836   1.991
47029SOL     OW42983   5.227  11.892   2.655
47029SOL    HW142984   5.180  11.886   2.572
47029SOL    HW242985   5.280  11.971   2.647
47030SOL     OW42986   5.611   2.593   5.795
47030SOL    HW142987   5.644   2.510   5.760
47030SOL    HW242988   5.541   2.567   5.854
47031SOL     OW42989   9.835   8.251   4.546
47031SOL    HW142990   9.801   8.163   4.529
47031SOL    HW242991   9.926   8.248   4.519
47032SOL     OW42992   1.909   2.034   5.971
47032SOL    HW142993   1.938   2.124   5.956
47032SOL    HW242994   1.892   2.030   6.065
47033SOL     OW42995   4.113   4.555   2.681
47033SOL    HW142996   4.051   4.627   2.686
47033SOL    HW242997   4.099   4.516   2.595
47034SOL     OW42998  11.444   0.676  13.687
47034SOL    HW142999  11.413   0.714  13.769
47034SOL    HW243000  11.504   0.742  13.652
47035SOL     OW43001   1.663   6.737  13.486
47035SOL    HW143002   1.577   6.770  13.459
47035SOL    HW243003   1.695   6.689  13.410
47036SOL     OW43004   9.489  12.422   6.908
47036SOL    HW143005   9.436  12.456   6.979
47036SOL    HW243006   9.531  12.499   6.869
47037SOL     OW43007   3.884  14.733  14.798
47037SOL    HW143008   3.884  14.812  14.743
47037SOL    HW243009   3.962  14.743  14.853
47038SOL     OW43010   6.957  10.692   6.592
47038SOL    HW143011   7.004  10.702   6.509
47038SOL    HW243012   7.026  10.678   6.657
47039SOL     OW43013   0.357   4.647  13.572
47039SOL    HW143014   0.320   4.597  13.500
47039SOL    HW243015   0.435   4.598  13.598
47040SOL     OW43016   0.862   2.403   0.612
47040SOL    HW143017   0.914   2.480   0.635
47040SOL    HW243018   0.780   2.414   0.660
47041SOL     OW43019   1.282  14.854  12.149
47041SOL    HW143020   1.317  14.816  12.068
47041SOL    HW243021   1.254   0.070  12.124
47042SOL     OW43022  11.341   2.395   8.996
47042SOL    HW143023  11.378   2.308   8.980
47042SOL    HW243024  11.379   2.422   9.079
47043SOL     OW43025  10.608   6.885  10.841
47043SOL    HW143026  10.611   6.791  10.860
47043SOL    HW243027  10.529   6.896  10.788
47044SOL     OW43028   5.580   3.430  12.297
47044SOL    HW143029   5.543   3.476  12.222
47044SOL    HW243030   5.641   3.366  12.259
47045SOL     OW43031  12.126  10.880  10.814
47045SOL    HW143032  12.079  10.847  10.891
47045SOL    HW243033  12.207  10.828  10.812
47046SOL     OW43034   7.121  12.826   0.858
47046SOL    HW143035   7.136  12.754   0.918
47046SOL    HW243036   7.092  12.784   0.777
47047SOL     OW43037   5.416  12.261   0.065
47047SOL    HW143038   5.414  12.225   0.154
47047SOL    HW243039   5.325  12.287   0.048
47048SOL     OW43040  10.491   2.254   9.004
47048SOL    HW143041  10.458   2.313   8.937
47048SOL    HW243042  10.586   2.251   8.989
47049SOL     OW43043   8.071  10.187  14.097
47049SOL    HW143044   8.025  10.111  14.061
47049SOL    HW243045   8.008  10.228  14.156
47050SOL     OW43046   7.588   1.848   9.998
47050SOL    HW143047   7.673   1.805   9.982
47050SOL    HW243048   7.524   1.786   9.965
47051SOL     OW43049   2.392   7.766  11.034
47051SOL    HW143050   2.439   7.839  10.993
47051SOL    HW243051   2.332   7.736  10.966
47052SOL     OW43052   6.829   2.147   5.215
47052SOL    HW143053   6.803   2.088   5.144
47052SOL    HW243054   6.746   2.174   5.255
47053SOL     OW43055   0.411   7.650   4.066
47053SOL    HW143056   0.476   7.587   4.038
47053SOL    HW243057   0.327   7.611   4.043
47054SOL     OW43058   0.226   1.591  14.800
47054SOL    HW143059   0.305   1.644  14.792
47054SOL    HW243060   0.238   1.521  14.735
47055SOL     OW43061  10.784   6.000  14.252
47055SOL    HW143062  10.791   6.058  14.176
47055SOL    HW243063  10.744   5.920  14.218
47056SOL     OW43064   9.483   2.156   5.188
47056SOL    HW143065   9.443   2.071   5.172
47056SOL    HW243066   9.469   2.205   5.106
47057SOL     OW43067   0.601   8.252   0.960
47057SOL    HW143068   0.542   8.179   0.976
47057SOL    HW243069   0.582   8.314   1.031
47058SOL     OW43070   7.881  11.749  10.584
47058SOL    HW143071   7.800  11.754  10.535
47058SOL    HW243072   7.939  11.812  10.541
47059SOL     OW43073   4.063  12.699   9.304
47059SOL    HW143074   4.119  12.680   9.379
47059SOL    HW243075   4.091  12.637   9.237
47060SOL     OW43076  10.843   9.994   9.458
47060SOL    HW143077  10.790  10.072   9.472
47060SOL    HW243078  10.931  10.027   9.442
47061SOL     OW43079   8.352   0.072   6.269
47061SOL    HW143080   8.396  14.870   6.311
47061SOL    HW243081   8.270   0.035   6.236
47062SOL     OW43082  12.582   0.004  14.384
47062SOL    HW143083  12.488   0.018  14.371
47062SOL    HW243084  12.604  14.804  14.324
47063SOL     OW43085   9.217  12.751   6.585
47063SOL    HW143086   9.149  12.685   6.594
47063SOL    HW243087   9.299  12.702   6.588
47064SOL     OW43088  10.790  14.442  11.777
47064SOL    HW143089  10.834  14.445  11.862
47064SOL    HW243090  10.837  14.505  11.723
47065SOL     OW43091   6.832   0.288   8.717
47065SOL    HW143092   6.762   0.325   8.662
47065SOL    HW243093   6.865   0.363   8.767
47066SOL     OW43094   2.647  13.425  14.309
47066SOL    HW143095   2.631  13.388  14.396
47066SOL    HW243096   2.713  13.368  14.270
47067SOL     OW43097   5.114  10.088   2.144
47067SOL    HW143098   5.025  10.080   2.177
47067SOL    HW243099   5.163  10.019   2.190
47068SOL     OW43100   5.124   3.526   9.258
47068SOL    HW143101   5.104   3.456   9.196
47068SOL    HW243102   5.206   3.497   9.300
47069SOL     OW43103  10.434  12.803   4.101
47069SOL    HW143104  10.475  12.784   4.016
47069SOL    HW243105  10.349  12.841   4.078
47070SOL     OW43106   0.226   7.240   4.605
47070SOL    HW143107   0.249   7.152   4.576
47070SOL    HW243108   0.146   7.229   4.656
47071SOL     OW43109   6.825   2.911   0.958
47071SOL    HW143110   6.753   2.953   1.005
47071SOL    HW243111   6.792   2.901   0.868
47072SOL     OW43112   2.522   8.676   8.736
47072SOL    HW143113   2.498   8.594   8.778
47072SOL    HW243114   2.609   8.696   8.769
47073SOL     OW43115   8.499   3.824   3.942
47073SOL    HW143116   8.433   3.862   3.884
47073SOL    HW243117   8.456   3.746   3.978
47074SOL     OW43118   1.898  10.137  11.636
47074SOL    HW143119   1.969  10.080  11.666
47074SOL    HW243120   1.917  10.222  11.674
47075SOL     OW43121   5.439  12.741   0.525
47075SOL    HW143122   5.495  12.794   0.469
47075SOL    HW243123   5.428  12.658   0.478
47076SOL     OW43124   3.375   7.367  10.371
47076SOL    HW143125   3.433   7.443  10.367
47076SOL    HW243126   3.394   7.319  10.291
47077SOL     OW43127   7.414   0.727   3.182
47077SOL    HW143128   7.362   0.648   3.174
47077SOL    HW243129   7.450   0.741   3.094
47078SOL     OW43130   3.500   5.675   2.741
47078SOL    HW143131   3.407   5.674   2.764
47078SOL    HW243132   3.529   5.584   2.755
47079SOL     OW43133   8.893  11.877  10.790
47079SOL    HW143134   8.848  11.815  10.732
47079SOL    HW243135   8.823  11.920  10.838
47080SOL     OW43136  10.869   9.080   0.535
47080SOL    HW143137  10.935   9.049   0.472
47080SOL    HW243138  10.829   9.001   0.570
47081SOL     OW43139  11.155   0.801   0.686
47081SOL    HW143140  11.121   0.890   0.682
47081SOL    HW243141  11.079   0.745   0.670
47082SOL     OW43142  11.042  11.504   0.588
47082SOL    HW143143  11.031  11.410   0.572
47082SOL    HW243144  11.015  11.546   0.507
47083SOL     OW43145  11.661  11.261   2.758
47083SOL    HW143146  11.752  11.274   2.729
47083SOL    HW243147  11.635  11.346   2.792
47084SOL     OW43148   6.580  11.202  11.295
47084SOL    HW143149   6.664  11.243  11.275
47084SOL    HW243150   6.597  11.108  11.290
47085SOL     OW43151   6.317   5.159   8.349
47085SOL    HW143152   6.286   5.247   8.372
47085SOL    HW243153   6.247   5.101   8.381
47086SOL     OW43154   7.752  11.295   3.037
47086SOL    HW143155   7.832  11.281   2.986
47086SOL    HW243156   7.721  11.381   3.008
47087SOL     OW43157   6.160  13.337  12.609
47087SOL    HW143158   6.105  13.362  12.535
47087SOL    HW243159   6.229  13.404  12.611
47088SOL     OW43160   5.254   4.144   2.180
47088SOL    HW143161   5.226   4.232   2.155
47088SOL    HW243162   5.315   4.117   2.110
47089SOL     OW43163  13.677   4.495   7.757
47089SOL    HW143164  13.592   4.512   7.716
47089SOL    HW243165  13.704   4.410   7.722
47090SOL     OW43166   9.622   4.732   8.015
47090SOL    HW143167   9.660   4.790   8.080
47090SOL    HW243168   9.675   4.746   7.936
47091SOL     OW43169  11.585   2.616   6.962
47091SOL    HW143170  11.544   2.682   6.906
47091SOL    HW243171  11.584   2.536   6.909
47092SOL     OW43172  10.227  11.496   7.157
47092SOL    HW143173  10.222  11.575   7.103
47092SOL    HW243174  10.312  11.502   7.201
47093SOL     OW43175   8.141   0.481  14.082
47093SOL    HW143176   8.134   0.532  14.163
47093SOL    HW243177   8.085   0.405  14.097
47094SOL     OW43178   0.142   2.995   3.689
47094SOL    HW143179   0.141   2.966   3.781
47094SOL    HW243180   0.224   3.044   3.681
47095SOL     OW43181   6.941  13.907   4.186
47095SOL    HW143182   6.880  13.979   4.198
47095SOL    HW243183   6.996  13.934   4.112
47096SOL     OW43184   0.129   4.713   8.770
47096SOL    HW143185   0.102   4.799   8.804
47096SOL    HW243186   0.113   4.719   8.676
47097SOL     OW43187   3.023  10.790  11.764
47097SOL    HW143188   3.017  10.885  11.761
47097SOL    HW243189   3.029  10.769  11.858
47098SOL     OW43190   2.155  12.809   4.419
47098SOL    HW143191   2.202  12.873   4.473
47098SOL    HW243192   2.212  12.732   4.417
47099SOL     OW43193  10.211   9.980   2.109
47099SOL    HW143194  10.203  10.011   2.019
47099SOL    HW243195  10.158   9.900   2.111
47100SOL     OW43196   3.372  12.960  12.536
47100SOL    HW143197   3.379  12.911  12.618
47100SOL    HW243198   3.404  13.048  12.558
47101SOL     OW43199  10.138  14.239   8.941
47101SOL    HW143200  10.083  14.269   9.014
47101SOL    HW243201  10.102  14.285   8.865
47102SOL     OW43202   3.285  14.418   5.744
47102SOL    HW143203   3.220  14.353   5.718
47102SOL    HW243204   3.278  14.422   5.840
47103SOL     OW43205   7.891   4.163  11.460
47103SOL    HW143206   7.915   4.214  11.382
47103SOL    HW243207   7.795   4.161  11.458
47104SOL     OW43208  12.752   5.615   2.734
47104SOL    HW143209  12.774   5.524   2.714
47104SOL    HW243210  12.739   5.616   2.829
47105SOL     OW43211   4.243   0.260   8.174
47105SOL    HW143212   4.241   0.330   8.109
47105SOL    HW243213   4.171   0.279   8.233
47106SOL     OW43214  14.350   2.859  12.077
47106SOL    HW143215  14.396   2.839  12.158
47106SOL    HW243216  14.418   2.884  12.016
47107SOL     OW43217   7.903   7.686  11.300
47107SOL    HW143218   7.816   7.682  11.260
47107SOL    HW243219   7.914   7.777  11.326
47108SOL     OW43220  11.245   0.461   7.014
47108SOL    HW143221  11.278   0.375   6.986
47108SOL    HW243222  11.160   0.442   7.053
47109SOL     OW43223   9.227   6.779   6.601
47109SOL    HW143224   9.253   6.697   6.644
47109SOL    HW243225   9.132   6.773   6.593
47110SOL     OW43226  14.410   1.557  10.766
47110SOL    HW143227  14.427   1.639  10.720
47110SOL    HW243228  14.496   1.531  10.801
47111SOL     OW43229   9.855   4.710   4.358
47111SOL    HW143230   9.791   4.639   4.365
47111SOL    HW243231   9.889   4.720   4.447
47112SOL     OW43232   3.653  11.030  14.593
47112SOL    HW143233   3.717  10.959  14.598
47112SOL    HW243234   3.579  11.000  14.647
47113SOL     OW43235  12.561   9.573   1.218
47113SOL    HW143236  12.655   9.588   1.208
47113SOL    HW243237  12.553   9.523   1.299
47114SOL     OW43238   7.276   5.455   3.789
47114SOL    HW143239   7.356   5.411   3.760
47114SOL    HW243240   7.307   5.526   3.846
47115SOL     OW43241  10.329  14.380  11.096
47115SOL    HW143242  10.282  14.318  11.152
47115SOL    HW243243  10.314  14.465  11.138
47116SOL     OW43244   8.428  14.825   2.419
47116SOL    HW143245   8.340  14.861   2.408
47116SOL    HW243246   8.416  14.730   2.410
47117SOL     OW43247   1.437  12.166  11.567
47117SOL    HW143248   1.502  12.197  11.630
47117SOL    HW243249   1.389  12.244  11.541
47118SOL     OW43250   3.264   5.879   5.951
47118SOL    HW143251   3.299   5.792   5.970
47118SOL    HW243252   3.270   5.887   5.856
47119SOL     OW43253   0.648   4.099   0.665
47119SOL    HW143254   0.576   4.161   0.652
47119SOL    HW243255   0.624   4.024   0.611
47120SOL     OW43256  13.482   8.854  11.158
47120SOL    HW143257  13.551   8.879  11.096
47120SOL    HW243258  13.445   8.937  11.187
47121SOL     OW43259   8.926  11.408  13.580
47121SOL    HW143260   8.884  11.394  13.495
47121SOL    HW243261   9.003  11.462  13.561
47122SOL     OW43262   5.711   6.711   4.132
47122SOL    HW143263   5.684   6.624   4.161
47122SOL    HW243264   5.744   6.698   4.043
47123SOL     OW43265   7.540   6.706  11.564
47123SOL    HW143266   7.537   6.721  11.658
47123SOL    HW243267   7.576   6.787  11.527
47124SOL     OW43268  11.142   2.093   9.815
47124SOL    HW143269  11.237   2.087   9.816
47124SOL    HW243270  11.113   2.035   9.886
47125SOL     OW43271   8.755  14.469   4.817
47125SOL    HW143272   8.741  14.383   4.856
47125SOL    HW243273   8.690  14.525   4.857
47126SOL     OW43274   9.411   1.739   1.549
47126SOL    HW143275   9.421   1.709   1.639
47126SOL    HW243276   9.467   1.681   1.498
47127SOL     OW43277   9.374   0.719   1.340
47127SOL    HW143278   9.310   0.786   1.365
47127SOL    HW243279   9.374   0.658   1.414
47128SOL     OW43280   9.453  13.062   4.495
47128SOL    HW143281   9.526  13.094   4.548
47128SOL    HW243282   9.413  12.993   4.548
47129SOL     OW43283  10.714   4.842  12.983
47129SOL    HW143284  10.748   4.887  12.906
47129SOL    HW243285  10.716   4.908  13.052
47130SOL     OW43286   7.031   0.566   6.283
47130SOL    HW143287   6.947   0.543   6.242
47130SOL    HW243288   7.046   0.657   6.257
47131SOL     OW43289   9.114   6.096  13.560
47131SOL    HW143290   9.084   6.185  13.542
47131SOL    HW243291   9.116   6.091  13.656
47132SOL     OW43292  10.134  11.580  13.339
47132SOL    HW143293  10.149  11.619  13.425
47132SOL    HW243294  10.190  11.503  13.337
47133SOL     OW43295  11.917   0.340  10.201
47133SOL    HW143296  11.986   0.278  10.178
47133SOL    HW243297  11.941   0.371  10.289
47134SOL     OW43298   9.185  11.687  11.278
47134SOL    HW143299   9.096  11.651  11.279
47134SOL    HW243300   9.229  11.638  11.208
47135SOL     OW43301   7.327   1.643   6.484
47135SOL    HW143302   7.277   1.693   6.420
47135SOL    HW243303   7.389   1.592   6.431
47136SOL     OW43304   5.844  10.961  10.694
47136SOL    HW143305   5.915  10.925  10.641
47136SOL    HW243306   5.862  10.930  10.783
47137SOL     OW43307   6.218   4.861  10.214
47137SOL    HW143308   6.291   4.907  10.174
47137SOL    HW243309   6.200   4.788  10.155
47138SOL     OW43310   5.998   4.454   5.736
47138SOL    HW143311   5.990   4.358   5.729
47138SOL    HW243312   5.914   4.482   5.772
47139SOL     OW43313  13.884   4.334  13.778
47139SOL    HW143314  13.903   4.340  13.685
47139SOL    HW243315  13.790   4.318  13.782
47140SOL     OW43316   4.671   4.653  10.404
47140SOL    HW143317   4.724   4.585  10.444
47140SOL    HW243318   4.600   4.669  10.466
47141SOL     OW43319  14.768   2.868   2.666
47141SOL    HW143320  14.708   2.849   2.738
47141SOL    HW243321  14.843   2.811   2.680
47142SOL     OW43322  12.965   2.630   9.867
47142SOL    HW143323  12.934   2.683   9.940
47142SOL    HW243324  12.934   2.676   9.789
47143SOL     OW43325   6.718  11.190   1.583
47143SOL    HW143326   6.807  11.159   1.566
47143SOL    HW243327   6.666  11.110   1.593
47144SOL     OW43328  11.032  12.676  10.792
47144SOL    HW143329  11.004  12.767  10.805
47144SOL    HW243330  11.101  12.663  10.857
47145SOL     OW43331   4.551   9.703  12.891
47145SOL    HW143332   4.515   9.643  12.825
47145SOL    HW243333   4.626   9.743  12.848
47146SOL     OW43334   0.941  11.145  13.075
47146SOL    HW143335   0.999  11.217  13.052
47146SOL    HW243336   0.999  11.081  13.117
47147SOL     OW43337   7.046   6.034   9.255
47147SOL    HW143338   6.981   6.092   9.214
47147SOL    HW243339   7.005   5.948   9.254
47148SOL     OW43340   3.939   8.979  11.861
47148SOL    HW143341   4.035   8.985  11.860
47148SOL    HW243342   3.911   9.041  11.794
47149SOL     OW43343   8.666   5.485  11.682
47149SOL    HW143344   8.700   5.460  11.768
47149SOL    HW243345   8.667   5.403  11.632
47150SOL     OW43346   8.067   8.901   3.561
47150SOL    HW143347   8.051   8.906   3.655
47150SOL    HW243348   8.021   8.822   3.533
47151SOL     OW43349   8.835  13.489   8.031
47151SOL    HW143350   8.860  13.581   8.043
47151SOL    HW243351   8.808  13.483   7.939
47152SOL     OW43352   1.352   0.545   4.065
47152SOL    HW143353   1.282   0.536   4.001
47152SOL    HW243354   1.354   0.638   4.087
47153SOL     OW43355   1.286   0.091   8.049
47153SOL    HW143356   1.297   0.017   7.990
47153SOL    HW243357   1.191   0.099   8.061
47154SOL     OW43358   2.842  13.685  12.607
47154SOL    HW143359   2.774  13.684  12.674
47154SOL    HW243360   2.909  13.742  12.643
47155SOL     OW43361   7.181  11.626  11.236
47155SOL    HW143362   7.268  11.664  11.232
47155SOL    HW243363   7.160  11.621  11.329
47156SOL     OW43364  12.393  14.204   6.536
47156SOL    HW143365  12.390  14.109   6.552
47156SOL    HW243366  12.329  14.219   6.467
47157SOL     OW43367   1.007   5.823   8.920
47157SOL    HW143368   0.981   5.895   8.976
47157SOL    HW243369   1.049   5.865   8.845
47158SOL     OW43370   6.689   0.274   2.958
47158SOL    HW143371   6.605   0.285   2.915
47158SOL    HW243372   6.736   0.356   2.941
47159SOL     OW43373   6.280   5.734  12.095
47159SOL    HW143374   6.370   5.757  12.070
47159SOL    HW243375   6.229   5.812  12.075
47160SOL     OW43376  14.124   8.550  10.282
47160SOL    HW143377  14.176   8.623  10.248
47160SOL    HW243378  14.175   8.518  10.357
47161SOL     OW43379   9.862   0.066   8.861
47161SOL    HW143380   9.769   0.058   8.882
47161SOL    HW243381   9.886  14.851   8.828
47162SOL     OW43382  14.390   8.979  11.654
47162SOL    HW143383  14.390   8.895  11.609
47162SOL    HW243384  14.461   9.029  11.612
47163SOL     OW43385  10.044  11.055  14.152
47163SOL    HW143386  10.015  11.116  14.084
47163SOL    HW243387   9.968  11.045  14.209
47164SOL     OW43388  10.389  13.395   2.777
47164SOL    HW143389  10.377  13.365   2.687
47164SOL    HW243390  10.358  13.322   2.831
47165SOL     OW43391   8.064   2.524  10.919
47165SOL    HW143392   8.101   2.595  10.972
47165SOL    HW243393   8.043   2.565  10.835
47166SOL     OW43394   6.314   6.404   9.556
47166SOL    HW143395   6.364   6.476   9.516
47166SOL    HW243396   6.341   6.405   9.648
47167SOL     OW43397  14.766   8.558   5.763
47167SOL    HW143398  14.706   8.559   5.688
47167SOL    HW243399  14.838   8.615   5.736
47168SOL     OW43400  14.589  12.878  12.424
47168SOL    HW143401  14.620  12.788  12.422
47168SOL    HW243402  14.586  12.900  12.517
47169SOL     OW43403  12.483   7.150   1.715
47169SOL    HW143404  12.472   7.067   1.761
47169SOL    HW243405  12.523   7.126   1.631
47170SOL     OW43406  10.214   1.512   9.278
47170SOL    HW143407  10.147   1.502   9.210
47170SOL    HW243408  10.203   1.435   9.334
47171SOL     OW43409   7.922  10.708   8.510
47171SOL    HW143410   7.978  10.753   8.574
47171SOL    HW243411   7.848  10.767   8.497
47172SOL     OW43412   6.599  11.688   2.618
47172SOL    HW143413   6.570  11.619   2.679
47172SOL    HW243414   6.672  11.649   2.571
47173SOL     OW43415  10.906   7.498  11.917
47173SOL    HW143416  10.815   7.491  11.948
47173SOL    HW243417  10.959   7.464  11.989
47174SOL     OW43418  13.922  13.916  14.835
47174SOL    HW143419  13.960  13.878   0.042
47174SOL    HW243420  13.889  13.841  14.785
47175SOL     OW43421   5.871   6.741  12.538
47175SOL    HW143422   5.921   6.792  12.474
47175SOL    HW243423   5.835   6.806  12.598
47176SOL     OW43424   7.308   3.873   3.282
47176SOL    HW143425   7.335   3.904   3.368
47176SOL    HW243426   7.227   3.920   3.264
47177SOL     OW43427   5.621  10.480   3.274
47177SOL    HW143428   5.671  10.430   3.339
47177SOL    HW243429   5.688  10.520   3.218
47178SOL     OW43430  10.939  12.924   1.321
47178SOL    HW143431  10.892  12.891   1.245
47178SOL    HW243432  10.998  12.853   1.345
47179SOL     OW43433   2.655  14.589   6.881
47179SOL    HW143434   2.560  14.594   6.869
47179SOL    HW243435   2.676  14.497   6.866
47180SOL     OW43436  14.446   7.037  14.584
47180SOL    HW143437  14.494   7.005  14.508
47180SOL    HW243438  14.446   7.132  14.574
47181SOL     OW43439   1.914  12.455  10.913
47181SOL    HW143440   1.850  12.384  10.902
47181SOL    HW243441   1.981  12.436  10.847
47182SOL     OW43442  13.255   5.942  12.892
47182SOL    HW143443  13.338   5.955  12.936
47182SOL    HW243444  13.278   5.923  12.801
47183SOL     OW43445   9.964   8.849  12.375
47183SOL    HW143446  10.056   8.872  12.365
47183SOL    HW243447   9.950   8.780  12.309
47184SOL     OW43448   5.212   6.892  13.855
47184SOL    HW143449   5.265   6.876  13.776
47184SOL    HW243450   5.186   6.984  13.848
47185SOL     OW43451  14.574   8.573   6.295
47185SOL    HW143452  14.520   8.622   6.233
47185SOL    HW243453  14.625   8.514   6.239
47186SOL     OW43454  14.451  13.026   9.492
47186SOL    HW143455  14.474  13.082   9.418
47186SOL    HW243456  14.403  12.953   9.453
47187SOL     OW43457   0.567   7.174   1.353
47187SOL    HW143458   0.619   7.132   1.422
47187SOL    HW243459   0.484   7.126   1.352
47188SOL     OW43460  11.075   1.055   2.664
47188SOL    HW143461  10.999   1.048   2.606
47188SOL    HW243462  11.133   0.985   2.633
47189SOL     OW43463  10.004   4.918   3.306
47189SOL    HW143464   9.982   4.887   3.394
47189SOL    HW243465  10.040   4.841   3.262
47190SOL     OW43466   4.267   2.049   3.663
47190SOL    HW143467   4.315   1.975   3.699
47190SOL    HW243468   4.335   2.110   3.633
47191SOL     OW43469   6.814   1.549  10.310
47191SOL    HW143470   6.792   1.496  10.387
47191SOL    HW243471   6.884   1.501  10.267
47192SOL     OW43472   2.505   6.982   6.226
47192SOL    HW143473   2.545   7.035   6.156
47192SOL    HW243474   2.578   6.933   6.263
47193SOL     OW43475  13.115   9.238   1.467
47193SOL    HW143476  13.061   9.308   1.431
47193SOL    HW243477  13.054   9.165   1.479
47194SOL     OW43478   0.712   0.182   5.603
47194SOL    HW143479   0.671   0.119   5.543
47194SOL    HW243480   0.659   0.178   5.682
47195SOL     OW43481   5.424   0.928   4.488
47195SOL    HW143482   5.415   0.950   4.581
47195SOL    HW243483   5.339   0.949   4.449
47196SOL     OW43484   0.578  13.086   8.249
47196SOL    HW143485   0.645  13.094   8.181
47196SOL    HW243486   0.559  12.992   8.253
47197SOL     OW43487  11.394  13.668   5.378
47197SOL    HW143488  11.430  13.584   5.348
47197SOL    HW243489  11.312  13.644   5.422
47198SOL     OW43490  13.886  12.464   2.657
47198SOL    HW143491  13.965  12.507   2.622
47198SOL    HW243492  13.883  12.491   2.749
47199SOL     OW43493   1.414   4.811   1.349
47199SOL    HW143494   1.356   4.747   1.391
47199SOL    HW243495   1.497   4.804   1.396
47200SOL     OW43496   2.477  11.797   2.481
47200SOL    HW143497   2.383  11.816   2.484
47200SOL    HW243498   2.483  11.714   2.433
47201SOL     OW43499  11.836  11.866  13.756
47201SOL    HW143500  11.924  11.828  13.753
47201SOL    HW243501  11.837  11.923  13.833
47202SOL     OW43502   1.682  10.143  11.806
47202SOL    HW143503   1.636  10.191  11.737
47202SOL    HW243504   1.761  10.110  11.763
47203SOL     OW43505   5.810  12.353   5.731
47203SOL    HW143506   5.854  12.432   5.697
47203SOL    HW243507   5.818  12.360   5.826
47204SOL     OW43508  11.880  14.442  11.487
47204SOL    HW143509  11.968  14.471  11.513
47204SOL    HW243510  11.894  14.401  11.401
47205SOL     OW43511   4.721   6.200   7.112
47205SOL    HW143512   4.801   6.199   7.163
47205SOL    HW243513   4.733   6.131   7.046
47206SOL     OW43514   0.868  13.246   9.739
47206SOL    HW143515   0.816  13.240   9.819
47206SOL    HW243516   0.879  13.340   9.724
47207SOL     OW43517  13.592   1.977  11.523
47207SOL    HW143518  13.497   1.982  11.518
47207SOL    HW243519  13.620   2.063  11.553
47208SOL     OW43520   7.532   9.446  10.208
47208SOL    HW143521   7.614   9.463  10.162
47208SOL    HW243522   7.464   9.456  10.141
47209SOL     OW43523  12.196   1.617  12.252
47209SOL    HW143524  12.165   1.689  12.197
47209SOL    HW243525  12.247   1.562  12.193
47210SOL     OW43526   1.634   7.378   4.232
47210SOL    HW143527   1.636   7.432   4.311
47210SOL    HW243528   1.666   7.435   4.162
47211SOL     OW43529   0.168   1.609  12.197
47211SOL    HW143530   0.093   1.602  12.138
47211SOL    HW243531   0.226   1.538  12.171
47212SOL     OW43532   6.602  13.546   2.334
47212SOL    HW143533   6.620  13.604   2.260
47212SOL    HW243534   6.507  13.532   2.332
47213SOL     OW43535   7.394   8.613  12.373
47213SOL    HW143536   7.364   8.693  12.330
47213SOL    HW243537   7.444   8.566  12.306
47214SOL     OW43538  13.264   5.159   7.135
47214SOL    HW143539  13.288   5.133   7.046
47214SOL    HW243540  13.337   5.130   7.189
47215SOL     OW43541  12.100   4.384   9.598
47215SOL    HW143542  12.139   4.301   9.626
47215SOL    HW243543  12.162   4.419   9.534
47216SOL     OW43544  10.253   1.536  10.010
47216SOL    HW143545  10.166   1.497  10.011
47216SOL    HW243546  10.240   1.626  10.038
47217SOL     OW43547   2.764  10.004  13.970
47217SOL    HW143548   2.684   9.951  13.976
47217SOL    HW243549   2.740  10.088  14.009
47218SOL     OW43550   2.749   2.063  14.515
47218SOL    HW143551   2.767   2.074  14.609
47218SOL    HW243552   2.727   1.970  14.506
47219SOL     OW43553   0.162  14.143  10.386
47219SOL    HW143554   0.252  14.165  10.408
47219SOL    HW243555   0.117  14.135  10.470
47220SOL     OW43556  10.748  10.942   6.605
47220SOL    HW143557  10.729  10.967   6.515
47220SOL    HW243558  10.702  10.859   6.617
47221SOL     OW43559  10.823   2.489   4.171
47221SOL    HW143560  10.842   2.501   4.265
47221SOL    HW243561  10.799   2.397   4.163
47222SOL     OW43562  14.079  13.146   2.327
47222SOL    HW143563  14.140  13.192   2.384
47222SOL    HW243564  14.072  13.059   2.365
47223SOL     OW43565  14.243   4.808  11.289
47223SOL    HW143566  14.166   4.757  11.263
47223SOL    HW243567  14.304   4.742  11.322
47224SOL     OW43568   3.803   9.981   7.580
47224SOL    HW143569   3.719   9.935   7.577
47224SOL    HW243570   3.833   9.979   7.489
47225SOL     OW43571   1.598   9.941   0.102
47225SOL    HW143572   1.649  10.008   0.146
47225SOL    HW243573   1.663   9.883   0.063
47226SOL     OW43574  12.847   5.431  13.610
47226SOL    HW143575  12.788   5.379  13.555
47226SOL    HW243576  12.833   5.521  13.582
47227SOL     OW43577   4.315  12.773   6.004
47227SOL    HW143578   4.326  12.804   6.095
47227SOL    HW243579   4.231  12.727   6.004
47228SOL     OW43580  13.116   6.123  13.070
47228SOL    HW143581  13.171   6.200  13.082
47228SOL    HW243582  13.135   6.093  12.981
47229SOL     OW43583  14.659   9.685   1.128
47229SOL    HW143584  14.678   9.673   1.035
47229SOL    HW243585  14.665   9.779   1.142
47230SOL     OW43586   7.092   3.406   9.688
47230SOL    HW143587   7.116   3.348   9.760
47230SOL    HW243588   6.998   3.395   9.679
47231SOL     OW43589   6.412   9.373  12.555
47231SOL    HW143590   6.391   9.339  12.642
47231SOL    HW243591   6.508   9.383  12.556
47232SOL     OW43592   7.325   3.748   9.793
47232SOL    HW143593   7.257   3.724   9.730
47232SOL    HW243594   7.298   3.835   9.825
47233SOL     OW43595  14.399   9.870   2.577
47233SOL    HW143596  14.448   9.811   2.520
47233SOL    HW243597  14.311   9.833   2.581
47234SOL     OW43598   7.320   2.422   0.636
47234SOL    HW143599   7.290   2.481   0.567
47234SOL    HW243600   7.283   2.458   0.716
47235SOL     OW43601  10.617   2.957   8.684
47235SOL    HW143602  10.572   2.889   8.634
47235SOL    HW243603  10.650   2.912   8.762
47236SOL     OW43604   4.235  11.291   9.636
47236SOL    HW143605   4.168  11.321   9.574
47236SOL    HW243606   4.317  11.299   9.587
47237SOL     OW43607   9.676   3.579   9.954
47237SOL    HW143608   9.594   3.590  10.003
47237SOL    HW243609   9.651   3.527   9.878
47238SOL     OW43610   0.490   8.973   1.767
47238SOL    HW143611   0.503   9.024   1.688
47238SOL    HW243612   0.400   8.940   1.760
47239SOL     OW43613  10.583   5.268  10.290
47239SOL    HW143614  10.659   5.287  10.235
47239SOL    HW243615  10.550   5.185  10.256
47240SOL     OW43616   9.123  10.951  13.266
47240SOL    HW143617   9.197  10.891  13.278
47240SOL    HW243618   9.046  10.896  13.282
47241SOL     OW43619   2.834   5.841   2.430
47241SOL    HW143620   2.906   5.878   2.378
47241SOL    HW243621   2.878   5.793   2.500
47242SOL     OW43622  13.860   7.892  10.384
47242SOL    HW143623  13.847   7.863  10.474
47242SOL    HW243624  13.772   7.902  10.348
47243SOL     OW43625   3.201   3.230   9.297
47243SOL    HW143626   3.188   3.260   9.207
47243SOL    HW243627   3.120   3.253   9.342
47244SOL     OW43628   9.928   8.486   7.736
47244SOL    HW143629   9.843   8.523   7.761
47244SOL    HW243630   9.979   8.561   7.707
47245SOL     OW43631   3.255   9.207   9.679
47245SOL    HW143632   3.306   9.231   9.602
47245SOL    HW243633   3.286   9.266   9.747
47246SOL     OW43634   5.960  11.469  14.810
47246SOL    HW143635   5.909  11.403  14.856
47246SOL    HW243636   5.899  11.507  14.747
47247SOL     OW43637   5.113   8.917   7.814
47247SOL    HW143638   5.102   8.825   7.840
47247SOL    HW243639   5.201   8.940   7.845
47248SOL     OW43640   0.465   9.346   6.230
47248SOL    HW143641   0.558   9.336   6.207
47248SOL    HW243642   0.429   9.399   6.159
47249SOL     OW43643  11.053   4.170   3.383
47249SOL    HW143644  11.002   4.132   3.454
47249SOL    HW243645  10.987   4.199   3.319
47250SOL     OW43646  12.306   8.769   3.034
47250SOL    HW143647  12.335   8.778   3.125
47250SOL    HW243648  12.364   8.703   2.997
47251SOL     OW43649   5.061   8.637  10.369
47251SOL    HW143650   5.065   8.568  10.303
47251SOL    HW243651   5.108   8.711  10.331
47252SOL     OW43652   4.656  14.215   7.361
47252SOL    HW143653   4.613  14.228   7.276
47252SOL    HW243654   4.595  14.253   7.424
47253SOL     OW43655   6.159   7.280   9.807
47253SOL    HW143656   6.166   7.376   9.812
47253SOL    HW243657   6.119   7.254   9.889
47254SOL     OW43658  14.144  11.946   6.018
47254SOL    HW143659  14.191  11.903   6.089
47254SOL    HW243660  14.192  12.028   6.003
47255SOL     OW43661   8.656  14.496   6.925
47255SOL    HW143662   8.572  14.535   6.947
47255SOL    HW243663   8.720  14.550   6.970
47256SOL     OW43664   8.788  12.290   9.869
47256SOL    HW143665   8.776  12.299   9.774
47256SOL    HW243666   8.855  12.355   9.891
47257SOL     OW43667   4.992   0.058  13.407
47257SOL    HW143668   5.026  14.862  13.349
47257SOL    HW243669   5.065   0.080  13.464
47258SOL     OW43670  13.966   7.511   6.774
47258SOL    HW143671  13.902   7.440   6.785
47258SOL    HW243672  13.967   7.556   6.858
47259SOL     OW43673   9.335   2.262   7.486
47259SOL    HW143674   9.255   2.223   7.522
47259SOL    HW243675   9.320   2.261   7.391
47260SOL     OW43676  12.380   5.700   4.779
47260SOL    HW143677  12.387   5.666   4.690
47260SOL    HW243678  12.309   5.649   4.819
47261SOL     OW43679   6.016   2.392   8.384
47261SOL    HW143680   6.001   2.415   8.292
47261SOL    HW243681   5.966   2.457   8.433
47262SOL     OW43682   9.531  14.086  11.738
47262SOL    HW143683   9.465  14.053  11.799
47262SOL    HW243684   9.562  14.167  11.778
47263SOL     OW43685   0.813  11.025   4.316
47263SOL    HW143686   0.767  11.001   4.236
47263SOL    HW243687   0.894  10.973   4.314
47264SOL     OW43688   3.197   2.150   7.644
47264SOL    HW143689   3.157   2.230   7.610
47264SOL    HW243690   3.290   2.171   7.650
47265SOL     OW43691   1.378  14.841  14.855
47265SOL    HW143692   1.330  14.791  14.788
47265SOL    HW243693   1.309   0.014   0.034
47266SOL     OW43694   8.498  13.150   9.287
47266SOL    HW143695   8.564  13.104   9.339
47266SOL    HW243696   8.424  13.163   9.347
47267SOL     OW43697  11.064   4.106   0.423
47267SOL    HW143698  11.136   4.053   0.457
47267SOL    HW243699  11.095   4.136   0.338
47268SOL     OW43700   2.829   5.263   0.808
47268SOL    HW143701   2.838   5.278   0.714
47268SOL    HW243702   2.836   5.168   0.817
47269SOL     OW43703   8.024  12.237  14.066
47269SOL    HW143704   8.020  12.142  14.069
47269SOL    HW243705   8.116  12.257  14.053
47270SOL     OW43706  13.127   9.298   4.127
47270SOL    HW143707  13.084   9.257   4.203
47270SOL    HW243708  13.217   9.266   4.131
47271SOL     OW43709   2.501   9.019   1.548
47271SOL    HW143710   2.461   9.094   1.593
47271SOL    HW243711   2.431   8.983   1.494
47272SOL     OW43712  10.629   1.367   1.911
47272SOL    HW143713  10.541   1.331   1.920
47272SOL    HW243714  10.616   1.461   1.902
47273SOL     OW43715   4.645   3.404   9.414
47273SOL    HW143716   4.622   3.315   9.386
47273SOL    HW243717   4.699   3.438   9.343
47274SOL     OW43718  12.903   8.027   0.853
47274SOL    HW143719  12.946   7.985   0.927
47274SOL    HW243720  12.951   7.996   0.776
47275SOL     OW43721   5.860  12.475   7.715
47275SOL    HW143722   5.865  12.429   7.631
47275SOL    HW243723   5.871  12.567   7.692
47276SOL     OW43724   3.304   3.647   3.660
47276SOL    HW143725   3.358   3.636   3.581
47276SOL    HW243726   3.262   3.732   3.648
47277SOL     OW43727   7.223   5.870   1.066
47277SOL    HW143728   7.302   5.834   1.107
47277SOL    HW243729   7.190   5.799   1.011
47278SOL     OW43730  10.568   7.317   8.480
47278SOL    HW143731  10.621   7.275   8.413
47278SOL    HW243732  10.534   7.396   8.437
47279SOL     OW43733   5.761   8.744  11.936
47279SOL    HW143734   5.692   8.724  11.874
47279SOL    HW243735   5.842   8.725  11.889
47280SOL     OW43736   4.361   3.476   1.097
47280SOL    HW143737   4.401   3.561   1.079
47280SOL    HW243738   4.355   3.473   1.193
47281SOL     OW43739   8.797   5.614   1.487
47281SOL    HW143740   8.826   5.606   1.396
47281SOL    HW243741   8.712   5.658   1.480
47282SOL     OW43742  13.862  14.644   8.349
47282SOL    HW143743  13.827  14.648   8.260
47282SOL    HW243744  13.793  14.681   8.404
47283SOL     OW43745   8.249   6.137   7.149
47283SOL    HW143746   8.198   6.084   7.087
47283SOL    HW243747   8.332   6.152   7.105
47284SOL     OW43748   4.729   8.007  13.094
47284SOL    HW143749   4.658   8.032  13.036
47284SOL    HW243750   4.783   8.086  13.101
47285SOL     OW43751   1.515  11.028   9.739
47285SOL    HW143752   1.573  11.000   9.811
47285SOL    HW243753   1.438  11.063   9.783
47286SOL     OW43754   8.196   0.887  10.240
47286SOL    HW143755   8.278   0.935  10.234
47286SOL    HW243756   8.180   0.855  10.151
47287SOL     OW43757   6.753  12.348  13.080
47287SOL    HW143758   6.695  12.329  13.154
47287SOL    HW243759   6.702  12.406  13.023
47288SOL     OW43760   8.900  13.079   8.425
47288SOL    HW143761   8.909  13.156   8.369
47288SOL    HW243762   8.952  13.011   8.382
47289SOL     OW43763   3.258   2.342  12.319
47289SOL    HW143764   3.170   2.380  12.310
47289SOL    HW243765   3.299   2.357  12.234
47290SOL     OW43766   3.750   4.446   9.735
47290SOL    HW143767   3.693   4.387   9.686
47290SOL    HW243768   3.828   4.394   9.754
47291SOL     OW43769   8.053   4.965   7.839
47291SOL    HW143770   8.004   4.914   7.774
47291SOL    HW243771   8.144   4.956   7.812
47292SOL     OW43772  12.995  11.475   7.101
47292SOL    HW143773  13.056  11.432   7.041
47292SOL    HW243774  12.908  11.452   7.068
47293SOL     OW43775   9.263  14.203   5.276
47293SOL    HW143776   9.211  14.196   5.356
47293SOL    HW243777   9.293  14.294   5.276
47294SOL     OW43778   5.389   3.808   6.066
47294SOL    HW143779   5.358   3.841   5.981
47294SOL    HW243780   5.481   3.786   6.051
47295SOL     OW43781   5.842  13.558   6.213
47295SOL    HW143782   5.872  13.634   6.261
47295SOL    HW243783   5.885  13.564   6.128
47296SOL     OW43784   9.936   5.149  11.290
47296SOL    HW143785   9.996   5.083  11.326
47296SOL    HW243786   9.901   5.108  11.211
47297SOL     OW43787  13.523  13.259   3.805
47297SOL    HW143788  13.476  13.318   3.864
47297SOL    HW243789  13.544  13.182   3.858
47298SOL     OW43790   7.773   6.688  11.900
47298SOL    HW143791   7.756   6.649  11.814
47298SOL    HW243792   7.693   6.673  11.950
47299SOL     OW43793   9.574   5.244   7.726
47299SOL    HW143794   9.491   5.199   7.743
47299SOL    HW243795   9.581   5.248   7.631
47300SOL     OW43796   4.267  10.759   1.649
47300SOL    HW143797   4.296  10.826   1.587
47300SOL    HW243798   4.228  10.691   1.594
47301SOL     OW43799  10.171   7.915   2.396
47301SOL    HW143800  10.219   7.985   2.352
47301SOL    HW243801  10.192   7.925   2.489
47302SOL     OW43802   4.721  14.213   6.568
47302SOL    HW143803   4.626  14.217   6.576
47302SOL    HW243804   4.744  14.125   6.597
47303SOL     OW43805   3.419  12.823  11.825
47303SOL    HW143806   3.501  12.847  11.869
47303SOL    HW243807   3.363  12.900  11.835
47304SOL     OW43808   2.807  14.379   9.883
47304SOL    HW143809   2.790  14.451   9.821
47304SOL    HW243810   2.720  14.344   9.903
47305SOL     OW43811  11.889   4.241   0.231
47305SOL    HW143812  11.883   4.328   0.192
47305SOL    HW243813  11.895   4.181   0.157
47306SOL     OW43814   8.474   7.771   4.793
47306SOL    HW143815   8.519   7.687   4.801
47306SOL    HW243816   8.517   7.814   4.718
47307SOL     OW43817   4.773  10.705  11.327
47307SOL    HW143818   4.723  10.787  11.323
47307SOL    HW243819   4.848  10.724  11.383
47308SOL     OW43820  12.514   9.385   5.717
47308SOL    HW143821  12.584   9.334   5.677
47308SOL    HW243822  12.531   9.381   5.811
47309SOL     OW43823  13.609  14.636  12.773
47309SOL    HW143824  13.604  14.600  12.684
47309SOL    HW243825  13.597  14.730  12.761
47310SOL     OW43826   9.242  10.643   9.312
47310SOL    HW143827   9.293  10.601   9.381
47310SOL    HW243828   9.199  10.717   9.355
47311SOL     OW43829   6.787  11.243   5.206
47311SOL    HW143830   6.849  11.280   5.144
47311SOL    HW243831   6.711  11.220   5.153
47312SOL     OW43832  11.588  11.059  13.217
47312SOL    HW143833  11.566  11.029  13.305
47312SOL    HW243834  11.506  11.051  13.167
47313SOL     OW43835   8.026   8.435   8.438
47313SOL    HW143836   7.975   8.516   8.440
47313SOL    HW243837   8.076   8.437   8.520
47314SOL     OW43838   2.976   7.319  10.046
47314SOL    HW143839   2.885   7.348  10.033
47314SOL    HW243840   3.020   7.342   9.964
47315SOL     OW43841   2.737   7.644   3.400
47315SOL    HW143842   2.715   7.737   3.410
47315SOL    HW243843   2.832   7.643   3.391
47316SOL     OW43844   2.414   1.357  10.903
47316SOL    HW143845   2.342   1.321  10.851
47316SOL    HW243846   2.488   1.360  10.842
47317SOL     OW43847  10.693   4.702   9.858
47317SOL    HW143848  10.601   4.689   9.882
47317SOL    HW243849  10.704   4.797   9.853
47318SOL     OW43850   9.068   5.928  13.355
47318SOL    HW143851   9.064   5.995  13.423
47318SOL    HW243852   9.061   5.976  13.272
47319SOL     OW43853   2.822   3.315   1.161
47319SOL    HW143854   2.734   3.349   1.150
47319SOL    HW243855   2.837   3.315   1.256
47320SOL     OW43856   7.937  12.142   6.606
47320SOL    HW143857   7.867  12.086   6.571
47320SOL    HW243858   7.989  12.084   6.661
47321SOL     OW43859   6.543   0.956   9.500
47321SOL    HW143860   6.575   0.871   9.530
47321SOL    HW243861   6.460   0.967   9.546
47322SOL     OW43862   9.356   5.402  14.810
47322SOL    HW143863   9.281   5.380  14.754
47322SOL    HW243864   9.320   5.463   0.003
47323SOL     OW43865   0.706   7.756   3.091
47323SOL    HW143866   0.694   7.765   2.996
47323SOL    HW243867   0.744   7.669   3.102
47324SOL     OW43868  12.746  10.253  10.685
47324SOL    HW143869  12.839  10.237  10.700
47324SOL    HW243870  12.739  10.348  10.674
47325SOL     OW43871  13.019   3.300  12.586
47325SOL    HW143872  13.069   3.227  12.622
47325SOL    HW243873  13.003   3.274  12.495
47326SOL     OW43874   0.757  12.648   4.353
47326SOL    HW143875   0.718  12.661   4.267
47326SOL    HW243876   0.682  12.654   4.413
47327SOL     OW43877   7.864   1.143   4.860
47327SOL    HW143878   7.918   1.147   4.939
47327SOL    HW243879   7.899   1.068   4.812
47328SOL     OW43880   7.733  10.569   6.649
47328SOL    HW143881   7.826  10.590   6.642
47328SOL    HW243882   7.724  10.486   6.604
47329SOL     OW43883   5.190   7.414   8.646
47329SOL    HW143884   5.273   7.459   8.630
47329SOL    HW243885   5.190   7.342   8.582
47330SOL     OW43886   0.537   2.524   4.925
47330SOL    HW143887   0.598   2.540   4.997
47330SOL    HW243888   0.488   2.605   4.916
47331SOL     OW43889   1.622   1.008  12.358
47331SOL    HW143890   1.691   0.942  12.356
47331SOL    HW243891   1.667   1.089  12.383
47332SOL     OW43892   4.384   9.564   5.141
47332SOL    HW143893   4.427   9.487   5.177
47332SOL    HW243894   4.311   9.529   5.090
47333SOL     OW43895   7.690   2.226   2.267
47333SOL    HW143896   7.766   2.226   2.326
47333SOL    HW243897   7.636   2.154   2.300
47334SOL     OW43898   4.578   9.649  10.402
47334SOL    HW143899   4.538   9.599  10.331
47334SOL    HW243900   4.628   9.717  10.358
47335SOL     OW43901   3.680   1.266   8.329
47335SOL    HW143902   3.688   1.171   8.323
47335SOL    HW243903   3.585   1.282   8.325
47336SOL     OW43904   9.871  12.384  14.778
47336SOL    HW143905   9.905  12.399  14.866
47336SOL    HW243906   9.833  12.468  14.752
47337SOL     OW43907   1.802   4.763  11.995
47337SOL    HW143908   1.784   4.738  11.904
47337SOL    HW243909   1.730   4.822  12.018
47338SOL     OW43910   9.795  14.786  10.627
47338SOL    HW143911   9.808   0.007  10.648
47338SOL    HW243912   9.734  14.786  10.553
47339SOL     OW43913   4.805  13.652  12.627
47339SOL    HW143914   4.890  13.694  12.618
47339SOL    HW243915   4.815  13.568  12.583
47340SOL     OW43916  11.516   8.679   9.541
47340SOL    HW143917  11.608   8.659   9.528
47340SOL    HW243918  11.493   8.735   9.467
47341SOL     OW43919   4.982  11.091   4.324
47341SOL    HW143920   5.075  11.101   4.345
47341SOL    HW243921   4.936  11.110   4.406
47342SOL     OW43922  11.778   7.463   6.095
47342SOL    HW143923  11.702   7.504   6.137
47342SOL    HW243924  11.794   7.384   6.147
47343SOL     OW43925   5.824  12.660   9.318
47343SOL    HW143926   5.829  12.565   9.320
47343SOL    HW243927   5.738  12.678   9.280
47344SOL     OW43928   4.824  11.510   5.022
47344SOL    HW143929   4.824  11.456   5.101
47344SOL    HW243930   4.809  11.448   4.951
47345SOL     OW43931   7.090  12.280   1.970
47345SOL    HW143932   7.083  12.279   2.066
47345SOL    HW243933   7.026  12.347   1.943
47346SOL     OW43934   0.093  11.278   3.353
47346SOL    HW143935   0.157  11.219   3.313
47346SOL    HW243936   0.136  11.312   3.431
47347SOL     OW43937   0.534  12.629   1.345
47347SOL    HW143938   0.449  12.592   1.370
47347SOL    HW243939   0.541  12.612   1.251
47348SOL     OW43940   3.961  14.187   0.159
47348SOL    HW143941   4.056  14.174   0.153
47348SOL    HW243942   3.924  14.128   0.094
47349SOL     OW43943   1.138  12.059   2.535
47349SOL    HW143944   1.068  12.014   2.486
47349SOL    HW243945   1.102  12.145   2.554
47350SOL     OW43946   3.136   6.116   7.673
47350SOL    HW143947   3.210   6.136   7.617
47350SOL    HW243948   3.172   6.113   7.762
47351SOL     OW43949  11.710  14.677   5.663
47351SOL    HW143950  11.644  14.718   5.719
47351SOL    HW243951  11.661  14.651   5.585
47352SOL     OW43952   9.207   6.570  14.859
47352SOL    HW143953   9.223   6.517  14.781
47352SOL    HW243954   9.116   6.552   0.010
47353SOL     OW43955   7.734  10.867   3.827
47353SOL    HW143956   7.739  10.780   3.867
47353SOL    HW243957   7.683  10.919   3.890
47354SOL     OW43958   6.070  11.086  14.664
47354SOL    HW143959   6.070  10.994  14.637
47354SOL    HW243960   6.126  11.088  14.741
47355SOL     OW43961   7.797   2.237  12.201
47355SOL    HW143962   7.887   2.253  12.231
47355SOL    HW243963   7.760   2.179  12.268
47356SOL     OW43964   9.885   1.351   8.217
47356SOL    HW143965   9.794   1.374   8.200
47356SOL    HW243966   9.891   1.344   8.312
47357SOL     OW43967  14.451   8.444   0.915
47357SOL    HW143968  14.457   8.434   1.010
47357SOL    HW243969  14.357   8.441   0.896
47358SOL     OW43970   3.350  12.768   9.092
47358SOL    HW143971   3.372  12.784   9.001
47358SOL    HW243972   3.412  12.820   9.142
47359SOL     OW43973   6.451   3.650   7.049
47359SOL    HW143974   6.413   3.681   6.966
47359SOL    HW243975   6.511   3.580   7.023
47360SOL     OW43976   7.652   1.542   2.009
47360SOL    HW143977   7.581   1.483   2.032
47360SOL    HW243978   7.691   1.567   2.093
47361SOL     OW43979   3.963  10.782  12.653
47361SOL    HW143980   3.887  10.755  12.603
47361SOL    HW243981   3.950  10.876  12.667
47362SOL     OW43982  14.625   9.697  12.068
47362SOL    HW143983  14.699   9.757  12.077
47362SOL    HW243984  14.660   9.623  12.019
47363SOL     OW43985  13.747   7.454   4.024
47363SOL    HW143986  13.826   7.501   4.048
47363SOL    HW243987  13.766   7.418   3.937
47364SOL     OW43988   6.156   0.899  11.301
47364SOL    HW143989   6.238   0.932  11.263
47364SOL    HW243990   6.089   0.960  11.270
47365SOL     OW43991   3.169   4.964   2.583
47365SOL    HW143992   3.084   4.984   2.544
47365SOL    HW243993   3.153   4.890   2.641
47366SOL     OW43994   3.492   9.413   7.644
47366SOL    HW143995   3.470   9.411   7.551
47366SOL    HW243996   3.584   9.386   7.647
47367SOL     OW43997  11.180  11.024  12.044
47367SOL    HW143998  11.267  11.062  12.046
47367SOL    HW243999  11.163  10.996  12.133
47368SOL     OW44000   3.962  13.912   7.221
47368SOL    HW144001   3.919  13.993   7.194
47368SOL    HW244002   3.919  13.844   7.169
47369SOL     OW44003   2.477   8.031   0.334
47369SOL    HW144004   2.447   8.106   0.384
47369SOL    HW244005   2.550   7.995   0.384
47370SOL     OW44006  14.828   0.346   9.432
47370SOL    HW144007   0.034   0.397   9.408
47370SOL    HW244008  14.770   0.409   9.474
47371SOL     OW44009   6.694   9.314  11.547
47371SOL    HW144010   6.765   9.293  11.486
47371SOL    HW244011   6.736   9.314  11.633
47372SOL     OW44012   8.056   2.919   2.231
47372SOL    HW144013   7.975   2.914   2.181
47372SOL    HW244014   8.042   2.860   2.306
47373SOL     OW44015   1.996  12.196   8.552
47373SOL    HW144016   2.080  12.180   8.595
47373SOL    HW244017   1.993  12.291   8.540
47374SOL     OW44018   2.582   2.567   2.551
47374SOL    HW144019   2.635   2.508   2.604
47374SOL    HW244020   2.496   2.569   2.595
47375SOL     OW44021   8.351   5.225   3.533
47375SOL    HW144022   8.339   5.169   3.456
47375SOL    HW244023   8.407   5.296   3.502
47376SOL     OW44024  12.586   3.077   6.976
47376SOL    HW144025  12.515   3.036   6.926
47376SOL    HW244026  12.646   3.005   6.994
47377SOL     OW44027   3.996  12.961  10.248
47377SOL    HW144028   4.053  13.036  10.265
47377SOL    HW244029   3.907  12.995  10.263
47378SOL     OW44030   0.433   4.020  14.837
47378SOL    HW144031   0.385   4.063  14.766
47378SOL    HW244032   0.368   4.003   0.033
47379SOL     OW44033  10.835   1.598   1.200
47379SOL    HW144034  10.838   1.685   1.159
47379SOL    HW244035  10.914   1.554   1.170
47380SOL     OW44036   3.846  12.706  14.058
47380SOL    HW144037   3.847  12.675  14.148
47380SOL    HW244038   3.937  12.702  14.030
47381SOL     OW44039   9.197  11.605   6.467
47381SOL    HW144040   9.258  11.559   6.525
47381SOL    HW244041   9.114  11.604   6.515
47382SOL     OW44042   3.414   6.397   3.547
47382SOL    HW144043   3.323   6.420   3.529
47382SOL    HW244044   3.464   6.442   3.479
47383SOL     OW44045  14.024   0.484  14.550
47383SOL    HW144046  13.946   0.430  14.568
47383SOL    HW244047  14.068   0.438  14.479
47384SOL     OW44048   5.298  12.689   7.262
47384SOL    HW144049   5.204  12.672   7.255
47384SOL    HW244050   5.308  12.740   7.342
47385SOL     OW44051   7.937  13.365   3.912
47385SOL    HW144052   7.863  13.424   3.902
47385SOL    HW244053   7.907  13.282   3.875
47386SOL     OW44054   8.977   0.717   0.002
47386SOL    HW144055   8.922   0.793   0.021
47386SOL    HW244056   9.031   0.706   0.080
47387SOL     OW44057  12.843   6.366  10.527
47387SOL    HW144058  12.827   6.274  10.504
47387SOL    HW244059  12.927   6.386  10.487
47388SOL     OW44060  11.294   5.255  13.221
47388SOL    HW144061  11.363   5.189  13.213
47388SOL    HW244062  11.282   5.267  13.315
47389SOL     OW44063  11.828  12.063   7.115
47389SOL    HW144064  11.853  12.125   7.183
47389SOL    HW244065  11.801  12.117   7.041
47390SOL     OW44066  13.713   7.756  13.869
47390SOL    HW144067  13.659   7.736  13.792
47390SOL    HW244068  13.650   7.790  13.933
47391SOL     OW44069   0.320   7.115   3.311
47391SOL    HW144070   0.265   7.036   3.304
47391SOL    HW244071   0.393   7.098   3.252
47392SOL     OW44072  13.371  13.177   6.901
47392SOL    HW144073  13.421  13.253   6.872
47392SOL    HW244074  13.436  13.106   6.906
47393SOL     OW44075  10.660   4.149   4.534
47393SOL    HW144076  10.672   4.076   4.473
47393SOL    HW244077  10.642   4.106   4.618
47394SOL     OW44078   7.223   0.786  10.542
47394SOL    HW144079   7.236   0.692  10.556
47394SOL    HW244080   7.223   0.797  10.447
47395SOL     OW44081  10.757   1.749   8.371
47395SOL    HW144082  10.835   1.707   8.334
47395SOL    HW244083  10.698   1.759   8.296
47396SOL     OW44084   8.871   6.321   8.748
47396SOL    HW144085   8.887   6.318   8.654
47396SOL    HW244086   8.807   6.251   8.764
47397SOL     OW44087   1.180  11.851   7.949
47397SOL    HW144088   1.126  11.880   7.876
47397SOL    HW244089   1.138  11.771   7.980
47398SOL     OW44090  11.291  13.283  10.401
47398SOL    HW144091  11.382  13.252  10.402
47398SOL    HW244092  11.292  13.362  10.455
47399SOL     OW44093   0.428   2.237   3.779
47399SOL    HW144094   0.362   2.189   3.730
47399SOL    HW244095   0.453   2.309   3.722
47400SOL     OW44096   6.628   2.210   7.913
47400SOL    HW144097   6.645   2.216   7.819
47400SOL    HW244098   6.632   2.300   7.944
47401SOL     OW44099   3.883   6.791  14.806
47401SOL    HW144100   3.855   6.706  14.772
47401SOL    HW244101   3.889   6.779   0.029
47402SOL     OW44102   2.404  12.260  13.730
47402SOL    HW144103   2.422  12.284  13.821
47402SOL    HW244104   2.430  12.168  13.724
47403SOL     OW44105   9.137   0.320   0.308
47403SOL    HW144106   9.227   0.292   0.320
47403SOL    HW244107   9.129   0.336   0.214
47404SOL     OW44108   5.915   0.403  14.259
47404SOL    HW144109   5.951   0.408  14.171
47404SOL    HW244110   5.822   0.425  14.248
47405SOL     OW44111  11.953   0.170   4.571
47405SOL    HW144112  11.944   0.092   4.515
47405SOL    HW244113  12.042   0.164   4.606
47406SOL     OW44114   2.965  12.797  11.733
47406SOL    HW144115   2.891  12.825  11.787
47406SOL    HW244116   3.021  12.748  11.793
47407SOL     OW44117   9.624   7.393   4.898
47407SOL    HW144118   9.555   7.341   4.857
47407SOL    HW244119   9.601   7.483   4.878
47408SOL     OW44120   6.320   7.246   1.275
47408SOL    HW144121   6.291   7.246   1.184
47408SOL    HW244122   6.242   7.218   1.324
47409SOL     OW44123   6.677   1.903   6.626
47409SOL    HW144124   6.622   1.964   6.578
47409SOL    HW244125   6.742   1.874   6.562
47410SOL     OW44126  10.003  10.087   2.562
47410SOL    HW144127  10.036  10.008   2.520
47410SOL    HW244128  10.019  10.156   2.497
47411SOL     OW44129   1.933  12.084   7.765
47411SOL    HW144130   1.965  12.022   7.700
47411SOL    HW244131   1.917  12.165   7.716
47412SOL     OW44132   1.910   9.018   9.903
47412SOL    HW144133   1.956   8.965   9.967
47412SOL    HW244134   1.828   9.042   9.946
47413SOL     OW44135  11.110   0.123   8.877
47413SOL    HW144136  11.172   0.050   8.869
47413SOL    HW244137  11.033   0.085   8.918
47414SOL     OW44138  12.138   3.357   6.111
47414SOL    HW144139  12.119   3.298   6.037
47414SOL    HW244140  12.153   3.298   6.185
47415SOL     OW44141   6.053  11.365   5.903
47415SOL    HW144142   5.999  11.396   5.975
47415SOL    HW244143   6.078  11.444   5.856
47416SOL     OW44144   9.061   6.339   2.216
47416SOL    HW144145   8.982   6.389   2.236
47416SOL    HW244146   9.036   6.247   2.228
47417SOL     OW44147   4.091   8.951  14.863
47417SOL    HW144148   4.028   8.916  14.800
47417SOL    HW244149   4.043   8.959   0.073
47418SOL     OW44150   3.318   0.252  10.237
47418SOL    HW144151   3.234   0.296  10.248
47418SOL    HW244152   3.294   0.161  10.216
47419SOL     OW44153   9.493  14.532   6.847
47419SOL    HW144154   9.405  14.500   6.866
47419SOL    HW244155   9.539  14.526   6.931
47420SOL     OW44156   1.420   2.088   7.159
47420SOL    HW144157   1.363   2.093   7.236
47420SOL    HW244158   1.483   2.020   7.181
47421SOL     OW44159  11.247   3.433   1.540
47421SOL    HW144160  11.241   3.378   1.618
47421SOL    HW244161  11.157   3.448   1.513
47422SOL     OW44162   1.506   9.856   0.649
47422SOL    HW144163   1.508   9.952   0.646
47422SOL    HW244164   1.576   9.829   0.589
47423SOL     OW44165  12.712  14.674   1.659
47423SOL    HW144166  12.641  14.703   1.601
47423SOL    HW244167  12.789  14.668   1.602
47424SOL     OW44168   5.223   6.798   2.196
47424SOL    HW144169   5.258   6.856   2.129
47424SOL    HW244170   5.217   6.852   2.275
47425SOL     OW44171  12.809   9.122   4.954
47425SOL    HW144172  12.724   9.110   4.912
47425SOL    HW244173  12.871   9.127   4.881
47426SOL     OW44174   6.551   9.333   2.152
47426SOL    HW144175   6.501   9.385   2.091
47426SOL    HW244176   6.625   9.299   2.101
47427SOL     OW44177  12.468   9.617   8.442
47427SOL    HW144178  12.383   9.652   8.413
47427SOL    HW244179  12.509   9.690   8.488
47428SOL     OW44180   6.548   7.804  11.940
47428SOL    HW144181   6.509   7.865  11.877
47428SOL    HW244182   6.591   7.861  12.004
47429SOL     OW44183   0.699   3.019   5.424
47429SOL    HW144184   0.726   3.054   5.509
47429SOL    HW244185   0.736   2.931   5.421
47430SOL     OW44186   9.382   8.993   3.088
47430SOL    HW144187   9.310   9.028   3.141
47430SOL    HW244188   9.401   9.062   3.025
47431SOL     OW44189   5.778   2.998  13.094
47431SOL    HW144190   5.797   2.908  13.069
47431SOL    HW244191   5.759   3.043  13.012
47432SOL     OW44192  12.115   6.649  11.773
47432SOL    HW144193  12.151   6.737  11.770
47432SOL    HW244194  12.189   6.594  11.801
47433SOL     OW44195  12.129   3.344  13.091
47433SOL    HW144196  12.137   3.415  13.154
47433SOL    HW244197  12.039   3.313  13.101
47434SOL     OW44198  14.176   1.239  13.798
47434SOL    HW144199  14.258   1.268  13.839
47434SOL    HW244200  14.154   1.158  13.843
47435SOL     OW44201   5.775   9.808   9.698
47435SOL    HW144202   5.830   9.731   9.709
47435SOL    HW244203   5.686   9.776   9.711
47436SOL     OW44204   9.336   2.308   7.203
47436SOL    HW144205   9.339   2.401   7.226
47436SOL    HW244206   9.425   2.289   7.172
47437SOL     OW44207  14.476  14.142  11.411
47437SOL    HW144208  14.397  14.196  11.420
47437SOL    HW244209  14.468  14.102  11.324
47438SOL     OW44210  11.112   8.569   9.229
47438SOL    HW144211  11.143   8.606   9.312
47438SOL    HW244212  11.127   8.475   9.237
47439SOL     OW44213   1.622   0.437   8.315
47439SOL    HW144214   1.559   0.404   8.252
47439SOL    HW244215   1.650   0.360   8.364
47440SOL     OW44216   7.055   4.547   4.289
47440SOL    HW144217   7.027   4.456   4.282
47440SOL    HW244218   6.974   4.597   4.297
47441SOL     OW44219   1.663   9.041   9.398
47441SOL    HW144220   1.716   9.112   9.434
47441SOL    HW244221   1.703   9.023   9.313
47442SOL     OW44222  10.706  10.662   7.720
47442SOL    HW144223  10.633  10.715   7.753
47442SOL    HW244224  10.782  10.719   7.726
47443SOL     OW44225   8.342   7.398  14.311
47443SOL    HW144226   8.367   7.440  14.228
47443SOL    HW244227   8.422   7.397  14.362
47444SOL     OW44228  10.672   0.356  14.179
47444SOL    HW144229  10.689   0.441  14.139
47444SOL    HW244230  10.596   0.370  14.235
47445SOL     OW44231  14.385   4.788  10.445
47445SOL    HW144232  14.475   4.803  10.417
47445SOL    HW244233  14.358   4.709  10.398
47446SOL     OW44234  10.459   8.019   8.046
47446SOL    HW144235  10.494   7.960   7.980
47446SOL    HW244236  10.521   8.015   8.118
47447SOL     OW44237   7.910   9.907  10.016
47447SOL    HW144238   7.908   9.945   9.928
47447SOL    HW244239   7.821   9.875  10.030
47448SOL     OW44240   3.389  12.450   1.715
47448SOL    HW144241   3.460  12.419   1.772
47448SOL    HW244242   3.317  12.390   1.731
47449SOL     OW44243   4.705   3.496   1.064
47449SOL    HW144244   4.655   3.414   1.059
47449SOL    HW244245   4.726   3.517   0.973
47450SOL     OW44246   0.217   3.801   1.315
47450SOL    HW144247   0.307   3.772   1.301
47450SOL    HW244248   0.225   3.884   1.362
47451SOL     OW44249  11.666   3.352   9.752
47451SOL    HW144250  11.621   3.397   9.823
47451SOL    HW244251  11.693   3.268   9.790
47452SOL     OW44252  11.450   6.308  12.233
47452SOL    HW144253  11.432   6.304  12.139
47452SOL    HW244254  11.546   6.306  12.239
47453SOL     OW44255   0.926   9.033   9.924
47453SOL    HW144256   0.832   9.028   9.912
47453SOL    HW244257   0.939   9.048  10.017
47454SOL     OW44258  11.201   5.912   8.032
47454SOL    HW144259  11.121   5.877   8.071
47454SOL    HW244260  11.198   6.006   8.052
47455SOL     OW44261   4.800  11.791   2.958
47455SOL    HW144262   4.755  11.852   3.016
47455SOL    HW244263   4.874  11.841   2.924
47456SOL     OW44264  12.176   2.816  12.384
47456SOL    HW144265  12.201   2.901  12.420
47456SOL    HW244266  12.179   2.828  12.289
47457SOL     OW44267   4.028  13.215  10.622
47457SOL    HW144268   4.055  13.269  10.696
47457SOL    HW244269   3.968  13.270  10.572
47458SOL     OW44270   6.473   0.183   5.190
47458SOL    HW144271   6.410   0.173   5.120
47458SOL    HW244272   6.421   0.206   5.267
47459SOL     OW44273   4.654   4.877   6.895
47459SOL    HW144274   4.649   4.963   6.853
47459SOL    HW244275   4.651   4.814   6.823
47460SOL     OW44276   1.516   8.061  14.665
47460SOL    HW144277   1.597   8.010  14.657
47460SOL    HW244278   1.490   8.049  14.757
47461SOL     OW44279   0.608   2.557  12.812
47461SOL    HW144280   0.543   2.574  12.880
47461SOL    HW244281   0.557   2.528  12.736
47462SOL     OW44282  14.346  11.614  13.889
47462SOL    HW144283  14.402  11.691  13.899
47462SOL    HW244284  14.354  11.590  13.796
47463SOL     OW44285  12.826  14.531   4.874
47463SOL    HW144286  12.888  14.463   4.848
47463SOL    HW244287  12.797  14.570   4.792
47464SOL     OW44288   2.124   9.253   1.531
47464SOL    HW144289   2.180   9.322   1.565
47464SOL    HW244290   2.092   9.287   1.447
47465SOL     OW44291  12.099  11.820   7.229
47465SOL    HW144292  12.050  11.886   7.278
47465SOL    HW244293  12.148  11.771   7.296
47466SOL     OW44294   7.380   0.570  13.489
47466SOL    HW144295   7.409   0.505  13.425
47466SOL    HW244296   7.290   0.590  13.464
47467SOL     OW44297  11.356   6.977   0.346
47467SOL    HW144298  11.269   7.009   0.368
47467SOL    HW244299  11.356   6.971   0.250
47468SOL     OW44300   1.241   5.922   1.706
47468SOL    HW144301   1.232   6.014   1.682
47468SOL    HW244302   1.240   5.875   1.622
47469SOL     OW44303   4.918   3.966  12.281
47469SOL    HW144304   4.909   3.884  12.330
47469SOL    HW244305   4.865   4.029  12.329
47470SOL     OW44306   8.462   5.335   7.257
47470SOL    HW144307   8.375   5.370   7.237
47470SOL    HW244308   8.446   5.277   7.333
47471SOL     OW44309   0.954  11.244   0.344
47471SOL    HW144310   0.928  11.312   0.407
47471SOL    HW244311   1.005  11.291   0.278
47472SOL     OW44312  13.105   0.386   7.441
47472SOL    HW144313  13.154   0.468   7.450
47472SOL    HW244314  13.132   0.333   7.516
47473SOL     OW44315   5.921  12.109   8.064
47473SOL    HW144316   6.015  12.129   8.057
47473SOL    HW244317   5.915  12.051   8.139
47474SOL     OW44318   5.359   4.159  12.496
47474SOL    HW144319   5.301   4.176  12.421
47474SOL    HW244320   5.316   4.202  12.569
47475SOL     OW44321  13.540   2.046   8.096
47475SOL    HW144322  13.536   2.056   8.191
47475SOL    HW244323  13.627   2.009   8.079
47476SOL     OW44324  11.064   6.053   8.599
47476SOL    HW144325  10.997   6.119   8.617
47476SOL    HW244326  11.132   6.069   8.663
47477SOL     OW44327  12.127  14.806  12.813
47477SOL    HW144328  12.189  14.741  12.781
47477SOL    HW244329  12.092  14.846  12.734
47478SOL     OW44330   2.775   2.927   4.158
47478SOL    HW144331   2.814   2.840   4.151
47478SOL    HW244332   2.848   2.984   4.185
47479SOL     OW44333   1.242   4.846  11.627
47479SOL    HW144334   1.298   4.772  11.648
47479SOL    HW244335   1.267   4.871  11.538
47480SOL     OW44336   3.438   4.701   1.127
47480SOL    HW144337   3.471   4.789   1.110
47480SOL    HW244338   3.368   4.714   1.191
47481SOL     OW44339   9.235   7.743  10.596
47481SOL    HW144340   9.316   7.693  10.582
47481SOL    HW244341   9.185   7.691  10.658
47482SOL     OW44342   2.238   4.946   4.921
47482SOL    HW144343   2.150   4.922   4.892
47482SOL    HW244344   2.238   4.924   5.015
47483SOL     OW44345   1.167  13.647   8.369
47483SOL    HW144346   1.079  13.620   8.342
47483SOL    HW244347   1.190  13.718   8.309
47484SOL     OW44348  11.707   4.860  11.605
47484SOL    HW144349  11.780   4.922  11.604
47484SOL    HW244350  11.728   4.797  11.536
47485SOL     OW44351  11.859  13.376  12.476
47485SOL    HW144352  11.884  13.397  12.566
47485SOL    HW244353  11.906  13.441  12.422
47486SOL     OW44354   7.339   7.835   2.496
47486SOL    HW144355   7.286   7.914   2.508
47486SOL    HW244356   7.369   7.812   2.584
47487SOL     OW44357  13.415   8.307   6.858
47487SOL    HW144358  13.470   8.360   6.801
47487SOL    HW244359  13.385   8.368   6.925
47488SOL     OW44360  13.036  11.964  13.654
47488SOL    HW144361  13.054  12.013  13.734
47488SOL    HW244362  13.036  12.029  13.584
47489SOL     OW44363   3.029  13.496  13.967
47489SOL    HW144364   2.955  13.550  13.941
47489SOL    HW244365   3.009  13.409  13.933
47490SOL     OW44366   1.535  11.978   0.463
47490SOL    HW144367   1.514  12.042   0.532
47490SOL    HW244368   1.480  11.903   0.483
47491SOL     OW44369   8.615   1.887   9.094
47491SOL    HW144370   8.630   1.927   9.180
47491SOL    HW244371   8.540   1.828   9.108
47492SOL     OW44372  11.139  11.295  10.064
47492SOL    HW144373  11.205  11.364  10.055
47492SOL    HW244374  11.073  11.334  10.122
47493SOL     OW44375   9.373  11.855  11.650
47493SOL    HW144376   9.352  11.764  11.628
47493SOL    HW244377   9.300  11.883  11.706
47494SOL     OW44378  13.503   5.300   1.252
47494SOL    HW144379  13.568   5.254   1.200
47494SOL    HW244380  13.461   5.231   1.304
47495SOL     OW44381  10.073  12.601  12.695
47495SOL    HW144382  10.159  12.563  12.674
47495SOL    HW244383  10.050  12.652  12.617
47496SOL     OW44384  12.799  13.552   4.130
47496SOL    HW144385  12.830  13.508   4.051
47496SOL    HW244386  12.825  13.644   4.118
47497SOL     OW44387  13.526  11.626  14.558
47497SOL    HW144388  13.559  11.598  14.643
47497SOL    HW244389  13.516  11.721  14.567
47498SOL     OW44390  13.073   6.405  13.331
47498SOL    HW144391  13.047   6.461  13.404
47498SOL    HW244392  13.007   6.335  13.330
47499SOL     OW44393   0.554   2.941   5.839
47499SOL    HW144394   0.522   3.010   5.897
47499SOL    HW244395   0.643   2.969   5.816
47500SOL     OW44396   0.667  14.831  12.466
47500SOL    HW144397   0.609  14.761  12.494
47500SOL    HW244398   0.619   0.005  12.397
47501SOL     OW44399   1.251  14.728  13.752
47501SOL    HW144400   1.158  14.708  13.762
47501SOL    HW244401   1.265  14.731  13.657
47502SOL     OW44402  10.829  12.769   9.107
47502SOL    HW144403  10.799  12.679   9.116
47502SOL    HW244404  10.821  12.806   9.195
47503SOL     OW44405   2.859   4.169  10.132
47503SOL    HW144406   2.937   4.127  10.096
47503SOL    HW244407   2.794   4.099  10.135
47504SOL     OW44408   3.645  14.584   8.305
47504SOL    HW144409   3.594  14.625   8.375
47504SOL    HW244410   3.664  14.655   8.244
47505SOL     OW44411   2.585   3.810  12.658
47505SOL    HW144412   2.516   3.834  12.720
47505SOL    HW244413   2.555   3.727  12.620
47506SOL     OW44414   1.625   4.552   9.498
47506SOL    HW144415   1.702   4.599   9.466
47506SOL    HW244416   1.658   4.499   9.571
47507SOL     OW44417   4.000   2.863  13.798
47507SOL    HW144418   3.916   2.868  13.844
47507SOL    HW244419   4.046   2.792  13.843
47508SOL     OW44420   7.518   0.645   6.248
47508SOL    HW144421   7.494   0.562   6.289
47508SOL    HW244422   7.521   0.708   6.320
47509SOL     OW44423  10.699  14.260   1.251
47509SOL    HW144424  10.716  14.299   1.337
47509SOL    HW244425  10.622  14.205   1.265
47510SOL     OW44426  12.359   9.187   0.887
47510SOL    HW144427  12.387   9.098   0.907
47510SOL    HW244428  12.326   9.222   0.970
47511SOL     OW44429   3.550  11.886   9.384
47511SOL    HW144430   3.529  11.808   9.434
47511SOL    HW244431   3.466  11.932   9.374
47512SOL     OW44432   0.739   7.046   0.060
47512SOL    HW144433   0.690   7.128   0.061
47512SOL    HW244434   0.810   7.061  14.869
47513SOL     OW44435   9.617  10.432   2.247
47513SOL    HW144436   9.657  10.475   2.323
47513SOL    HW244437   9.671  10.458   2.173
47514SOL     OW44438   8.435   1.329  12.628
47514SOL    HW144439   8.387   1.352  12.548
47514SOL    HW244440   8.527   1.340  12.605
47515SOL     OW44441   7.576  13.521   5.880
47515SOL    HW144442   7.555  13.427   5.879
47515SOL    HW244443   7.560  13.549   5.789
47516SOL     OW44444   3.038  10.717   5.807
47516SOL    HW144445   3.017  10.731   5.715
47516SOL    HW244446   2.955  10.733   5.853
47517SOL     OW44447   2.733   4.201   2.532
47517SOL    HW144448   2.714   4.278   2.585
47517SOL    HW244449   2.652   4.149   2.535
47518SOL     OW44450   8.944  14.136  12.111
47518SOL    HW144451   8.987  14.064  12.066
47518SOL    HW244452   9.013  14.203  12.120
47519SOL     OW44453   3.037   1.088   4.093
47519SOL    HW144454   3.070   1.111   4.006
47519SOL    HW244455   3.070   1.158   4.150
47520SOL     OW44456   2.036   3.524  14.319
47520SOL    HW144457   2.038   3.559  14.230
47520SOL    HW244458   2.051   3.600  14.375
47521SOL     OW44459   8.675  12.518  13.724
47521SOL    HW144460   8.753  12.542  13.774
47521SOL    HW244461   8.702  12.526  13.633
47522SOL     OW44462   0.196   2.937   5.434
47522SOL    HW144463   0.271   2.925   5.491
47522SOL    HW244464   0.168   3.027   5.450
47523SOL     OW44465  10.723  10.138   0.585
47523SOL    HW144466  10.672  10.216   0.564
47523SOL    HW244467  10.803  10.172   0.626
47524SOL     OW44468  13.744   5.832   4.116
47524SOL    HW144469  13.838   5.842   4.103
47524SOL    HW244470  13.704   5.904   4.067
47525SOL     OW44471   7.469   7.258   0.784
47525SOL    HW144472   7.491   7.223   0.698
47525SOL    HW244473   7.398   7.202   0.815
47526SOL     OW44474   9.556   8.458   9.485
47526SOL    HW144475   9.474   8.485   9.527
47526SOL    HW244476   9.615   8.532   9.498
47527SOL     OW44477  12.809   1.450  10.603
47527SOL    HW144478  12.804   1.520  10.669
47527SOL    HW244479  12.901   1.422  10.605
47528SOL     OW44480   1.024   0.964  14.573
47528SOL    HW144481   0.935   0.997  14.575
47528SOL    HW244482   1.036   0.935  14.482
47529SOL     OW44483   8.798  13.113   0.813
47529SOL    HW144484   8.861  13.127   0.884
47529SOL    HW244485   8.713  13.132   0.852
47530SOL     OW44486  12.240   9.068   7.835
47530SOL    HW144487  12.251   9.160   7.860
47530SOL    HW244488  12.153   9.065   7.794
47531SOL     OW44489  14.192   1.765   2.219
47531SOL    HW144490  14.101   1.768   2.190
47531SOL    HW244491  14.239   1.819   2.155
47532SOL     OW44492   2.774   8.002   5.161
47532SOL    HW144493   2.689   7.987   5.119
47532SOL    HW244494   2.783   7.931   5.224
47533SOL     OW44495  14.411   4.049   3.375
47533SOL    HW144496  14.351   4.086   3.311
47533SOL    HW244497  14.363   3.976   3.414
47534SOL     OW44498  14.338   6.714  12.832
47534SOL    HW144499  14.273   6.644  12.842
47534SOL    HW244500  14.286   6.793  12.822
47535SOL     OW44501   0.514  10.749   2.405
47535SOL    HW144502   0.430  10.713   2.433
47535SOL    HW244503   0.531  10.706   2.321
47536SOL     OW44504   0.679   1.960  14.013
47536SOL    HW144505   0.642   1.949  13.926
47536SOL    HW244506   0.731   1.881  14.027
47537SOL     OW44507   9.029  13.615  11.450
47537SOL    HW144508   9.102  13.578  11.400
47537SOL    HW244509   9.033  13.709  11.433
47538SOL     OW44510   8.506   0.301   4.679
47538SOL    HW144511   8.507   0.291   4.774
47538SOL    HW244512   8.436   0.244   4.649
47539SOL     OW44513   5.352   2.633  11.165
47539SOL    HW144514   5.331   2.640  11.072
47539SOL    HW244515   5.370   2.723  11.192
47540SOL     OW44516   5.395  14.187   4.664
47540SOL    HW144517   5.490  14.185   4.677
47540SOL    HW244518   5.366  14.098   4.685
47541SOL     OW44519   0.677   9.888   0.491
47541SOL    HW144520   0.646   9.839   0.414
47541SOL    HW244521   0.752   9.837   0.523
47542SOL     OW44522   3.142   3.294   9.048
47542SOL    HW144523   3.122   3.209   9.009
47542SOL    HW244524   3.235   3.308   9.030
47543SOL     OW44525   4.311  12.762   8.302
47543SOL    HW144526   4.278  12.705   8.231
47543SOL    HW244527   4.400  12.730   8.318
47544SOL     OW44528   2.326  11.295  13.842
47544SOL    HW144529   2.256  11.353  13.812
47544SOL    HW244530   2.394  11.355  13.872
47545SOL     OW44531  14.440   1.763  12.779
47545SOL    HW144532  14.376   1.784  12.848
47545SOL    HW244533  14.525   1.773  12.823
47546SOL     OW44534   8.425  13.572   5.631
47546SOL    HW144535   8.343  13.524   5.645
47546SOL    HW244536   8.490  13.504   5.615
47547SOL     OW44537   5.057  10.347   7.672
47547SOL    HW144538   5.091  10.297   7.598
47547SOL    HW244539   4.977  10.387   7.640
47548SOL     OW44540   9.735  10.885   9.984
47548SOL    HW144541   9.768  10.898  10.073
47548SOL    HW244542   9.660  10.945   9.978
47549SOL     OW44543   5.057  11.285   9.633
47549SOL    HW144544   5.095  11.212   9.586
47549SOL    HW244545   5.005  11.245   9.703
47550SOL     OW44546  10.292   5.346   5.835
47550SOL    HW144547  10.271   5.406   5.906
47550SOL    HW244548  10.352   5.282   5.875
47551SOL     OW44549   0.353  12.463   4.279
47551SOL    HW144550   0.446  12.463   4.253
47551SOL    HW244551   0.306  12.479   4.197
47552SOL     OW44552  11.238   0.698  10.844
47552SOL    HW144553  11.193   0.704  10.928
47552SOL    HW244554  11.317   0.751  10.855
47553SOL     OW44555   2.700   6.846   6.392
47553SOL    HW144556   2.691   6.798   6.310
47553SOL    HW244557   2.788   6.825   6.422
47554SOL     OW44558   3.429   0.411   2.215
47554SOL    HW144559   3.476   0.494   2.223
47554SOL    HW244560   3.470   0.367   2.140
47555SOL     OW44561   1.680   9.748  11.094
47555SOL    HW144562   1.599   9.799  11.084
47555SOL    HW244563   1.711   9.769  11.182
47556SOL     OW44564   8.133   0.748   6.029
47556SOL    HW144565   8.175   0.662   6.026
47556SOL    HW244566   8.205   0.809   6.045
47557SOL     OW44567   2.603  12.821   7.833
47557SOL    HW144568   2.515  12.824   7.871
47557SOL    HW244569   2.588  12.824   7.738
47558SOL     OW44570   2.315  12.276   5.210
47558SOL    HW144571   2.305  12.357   5.261
47558SOL    HW244572   2.278  12.298   5.124
47559SOL     OW44573   1.843  12.185   3.308
47559SOL    HW144574   1.859  12.279   3.310
47559SOL    HW244575   1.818  12.166   3.218
47560SOL     OW44576   6.479   8.884   9.529
47560SOL    HW144577   6.527   8.832   9.593
47560SOL    HW244578   6.516   8.858   9.444
47561SOL     OW44579   6.746   7.440  12.337
47561SOL    HW144580   6.747   7.443  12.433
47561SOL    HW244581   6.721   7.528  12.310
47562SOL     OW44582   3.129   8.501   8.187
47562SOL    HW144583   3.186   8.545   8.123
47562SOL    HW244584   3.152   8.408   8.179
47563SOL     OW44585   0.290  10.705  13.341
47563SOL    HW144586   0.375  10.748  13.347
47563SOL    HW244587   0.240  10.760  13.279
47564SOL     OW44588   9.015  11.676   9.879
47564SOL    HW144589   9.059  11.751   9.918
47564SOL    HW244590   9.023  11.690   9.785
47565SOL     OW44591  14.534  14.293   3.158
47565SOL    HW144592  14.488  14.377   3.149
47565SOL    HW244593  14.614  14.305   3.107
47566SOL     OW44594   2.385   9.872   7.935
47566SOL    HW144595   2.473   9.836   7.925
47566SOL    HW244596   2.346   9.868   7.848
47567SOL     OW44597   7.225  13.565  13.851
47567SOL    HW144598   7.246  13.524  13.767
47567SOL    HW244599   7.173  13.500  13.898
47568SOL     OW44600   3.639  10.838  11.719
47568SOL    HW144601   3.692  10.889  11.782
47568SOL    HW244602   3.659  10.747  11.741
47569SOL     OW44603  14.402   9.415   2.112
47569SOL    HW144604  14.397   9.320   2.099
47569SOL    HW244605  14.494   9.431   2.132
47570SOL     OW44606   8.550  12.203   4.103
47570SOL    HW144607   8.586  12.279   4.148
47570SOL    HW244608   8.585  12.128   4.152
47571SOL     OW44609   1.696   1.500  12.454
47571SOL    HW144610   1.763   1.435  12.473
47571SOL    HW244611   1.745   1.580  12.436
47572SOL     OW44612   3.484   6.611  14.127
47572SOL    HW144613   3.543   6.684  14.145
47572SOL    HW244614   3.516   6.539  14.181
47573SOL     OW44615   5.987   6.780   2.448
47573SOL    HW144616   5.939   6.852   2.489
47573SOL    HW244617   6.078   6.796   2.472
47574SOL     OW44618   3.472  14.370   9.915
47574SOL    HW144619   3.470  14.455   9.872
47574SOL    HW244620   3.553  14.329   9.884
47575SOL     OW44621   0.377   6.484   5.695
47575SOL    HW144622   0.414   6.409   5.741
47575SOL    HW244623   0.435   6.557   5.718
47576SOL     OW44624  14.360   2.746   7.636
47576SOL    HW144625  14.424   2.720   7.703
47576SOL    HW244626  14.414   2.772   7.561
47577SOL     OW44627  14.414   9.148   9.620
47577SOL    HW144628  14.430   9.124   9.712
47577SOL    HW244629  14.372   9.234   9.624
47578SOL     OW44630   5.363  11.053   2.965
47578SOL    HW144631   5.412  10.972   2.980
47578SOL    HW244632   5.412  11.097   2.895
47579SOL     OW44633  10.572   4.259  12.236
47579SOL    HW144634  10.524   4.326  12.285
47579SOL    HW244635  10.650   4.241  12.289
47580SOL     OW44636   6.082  13.209   5.948
47580SOL    HW144637   6.093  13.302   5.929
47580SOL    HW244638   6.047  13.207   6.037
47581SOL     OW44639   6.925   5.070   1.621
47581SOL    HW144640   6.838   5.075   1.660
47581SOL    HW244641   6.910   5.085   1.528
47582SOL     OW44642   6.030   8.687   7.399
47582SOL    HW144643   6.114   8.721   7.428
47582SOL    HW244644   5.980   8.674   7.480
47583SOL     OW44645   0.783   6.635  13.190
47583SOL    HW144646   0.800   6.597  13.276
47583SOL    HW244647   0.786   6.730  13.204
47584SOL     OW44648  12.197  12.550   2.285
47584SOL    HW144649  12.241  12.550   2.370
47584SOL    HW244650  12.264  12.579   2.223
47585SOL     OW44651   6.769   3.476   8.916
47585SOL    HW144652   6.757   3.544   8.982
47585SOL    HW244653   6.798   3.524   8.838
47586SOL     OW44654   2.103   2.316  11.023
47586SOL    HW144655   2.175   2.366  11.062
47586SOL    HW244656   2.063   2.271  11.097
47587SOL     OW44657   7.341   4.011  12.000
47587SOL    HW144658   7.298   3.929  12.024
47587SOL    HW244659   7.287   4.046  11.930
47588SOL     OW44660   0.340  12.380  10.657
47588SOL    HW144661   0.330  12.456  10.600
47588SOL    HW244662   0.260  12.380  10.710
47589SOL     OW44663  12.219   9.084   5.980
47589SOL    HW144664  12.201   9.117   6.068
47589SOL    HW244665  12.147   9.116   5.926
47590SOL     OW44666   9.633  12.555   4.946
47590SOL    HW144667   9.605  12.554   4.854
47590SOL    HW244668   9.665  12.644   4.960
47591SOL     OW44669   1.660   6.632   7.706
47591SOL    HW144670   1.754   6.649   7.701
47591SOL    HW244671   1.646   6.559   7.646
47592SOL     OW44672  12.783  13.360  13.818
47592SOL    HW144673  12.843  13.303  13.771
47592SOL    HW244674  12.700  13.351  13.771
47593SOL     OW44675   2.663  11.781  10.897
47593SOL    HW144676   2.627  11.808  10.812
47593SOL    HW244677   2.606  11.709  10.925
47594SOL     OW44678   2.708  10.956  13.817
47594SOL    HW144679   2.664  10.932  13.899
47594SOL    HW244680   2.689  11.049  13.805
47595SOL     OW44681  12.972   4.164   3.695
47595SOL    HW144682  12.917   4.180   3.618
47595SOL    HW244683  13.006   4.250   3.718
47596SOL     OW44684   0.969  13.655   7.112
47596SOL    HW144685   1.011  13.648   7.198
47596SOL    HW244686   0.891  13.600   7.120
47597SOL     OW44687   1.769   3.229   8.915
47597SOL    HW144688   1.829   3.268   8.851
47597SOL    HW244689   1.769   3.291   8.988
47598SOL     OW44690   7.521   4.334   4.742
47598SOL    HW144691   7.583   4.273   4.780
47598SOL    HW244692   7.541   4.335   4.649
47599SOL     OW44693  12.809   1.323  11.532
47599SOL    HW144694  12.719   1.293  11.543
47599SOL    HW244695  12.862   1.250  11.565
47600SOL     OW44696   5.938  10.855   0.439
47600SOL    HW144697   6.027  10.819   0.445
47600SOL    HW244698   5.883  10.780   0.416
47601SOL     OW44699   6.784  13.121   0.807
47601SOL    HW144700   6.706  13.133   0.861
47601SOL    HW244701   6.752  13.080   0.727
47602SOL     OW44702   7.432   3.467   7.956
47602SOL    HW144703   7.439   3.381   7.997
47602SOL    HW244704   7.458   3.452   7.865
47603SOL     OW44705   1.935   4.663  12.763
47603SOL    HW144706   1.942   4.737  12.702
47603SOL    HW244707   1.870   4.692  12.827
47604SOL     OW44708   3.561   1.898   3.407
47604SOL    HW144709   3.543   1.971   3.466
47604SOL    HW244710   3.489   1.899   3.345
47605SOL     OW44711   6.415   9.127   5.402
47605SOL    HW144712   6.344   9.104   5.342
47605SOL    HW244713   6.493   9.129   5.347
47606SOL     OW44714  10.767   0.196   8.138
47606SOL    HW144715  10.798   0.124   8.192
47606SOL    HW244716  10.679   0.169   8.111
47607SOL     OW44717  12.802  12.513   0.950
47607SOL    HW144718  12.836  12.601   0.935
47607SOL    HW244719  12.828  12.492   1.039
47608SOL     OW44720   0.883   7.546   4.123
47608SOL    HW144721   0.970   7.577   4.147
47608SOL    HW244722   0.854   7.608   4.056
47609SOL     OW44723  11.539  14.625  12.879
47609SOL    HW144724  11.527  14.711  12.837
47609SOL    HW244725  11.564  14.645  12.969
47610SOL     OW44726   5.029  10.760   1.792
47610SOL    HW144727   4.985  10.716   1.865
47610SOL    HW244728   4.961  10.770   1.725
47611SOL     OW44729   4.817   9.861   7.134
47611SOL    HW144730   4.758   9.787   7.149
47611SOL    HW244731   4.783   9.930   7.191
47612SOL     OW44732   3.051   7.747   7.509
47612SOL    HW144733   3.087   7.698   7.582
47612SOL    HW244734   3.101   7.717   7.433
47613SOL     OW44735   3.410  11.454   0.557
47613SOL    HW144736   3.418  11.463   0.652
47613SOL    HW244737   3.377  11.365   0.544
47614SOL     OW44738   4.108   1.259  11.848
47614SOL    HW144739   4.033   1.309  11.880
47614SOL    HW244740   4.176   1.272  11.915
47615SOL     OW44741   7.395  14.284   5.114
47615SOL    HW144742   7.433  14.371   5.118
47615SOL    HW244743   7.387  14.266   5.020
47616SOL     OW44744  11.584  14.687   4.746
47616SOL    HW144745  11.567  14.611   4.690
47616SOL    HW244746  11.679  14.686   4.760
47617SOL     OW44747  11.921  12.999   3.575
47617SOL    HW144748  11.955  13.089   3.582
47617SOL    HW244749  11.832  13.004   3.611
47618SOL     OW44750   7.476  13.010   5.476
47618SOL    HW144751   7.522  12.935   5.437
47618SOL    HW244752   7.485  13.080   5.411
47619SOL     OW44753   9.738   9.718   2.153
47619SOL    HW144754   9.724   9.635   2.107
47619SOL    HW244755   9.782   9.693   2.234
47620SOL     OW44756   8.779   6.193   9.516
47620SOL    HW144757   8.689   6.166   9.535
47620SOL    HW244758   8.798   6.259   9.583
47621SOL     OW44759  14.152   7.987  11.282
47621SOL    HW144760  14.093   7.986  11.207
47621SOL    HW244761  14.116   8.055  11.339
47622SOL     OW44762   0.284  11.366   7.331
47622SOL    HW144763   0.356  11.328   7.381
47622SOL    HW244764   0.327  11.427   7.270
47623SOL     OW44765  14.660  14.368   6.184
47623SOL    HW144766  14.748  14.373   6.146
47623SOL    HW244767  14.655  14.279   6.219
47624SOL     OW44768  11.523   8.782  14.059
47624SOL    HW144769  11.602   8.754  14.104
47624SOL    HW244770  11.536   8.875  14.042
47625SOL     OW44771  12.780  14.644   7.531
47625SOL    HW144772  12.692  14.650   7.495
47625SOL    HW244773  12.768  14.638   7.626
47626SOL     OW44774  14.650  13.757   7.749
47626SOL    HW144775  14.741  13.748   7.720
47626SOL    HW244776  14.604  13.685   7.707
47627SOL     OW44777   6.686   0.853   0.438
47627SOL    HW144778   6.722   0.932   0.479
47627SOL    HW244779   6.603   0.838   0.483
47628SOL     OW44780  10.925  14.632   1.315
47628SOL    HW144781  10.928  14.611   1.221
47628SOL    HW244782  10.983  14.568   1.356
47629SOL     OW44783   7.244  14.440   7.905
47629SOL    HW144784   7.190  14.390   7.843
47629SOL    HW244785   7.182  14.494   7.953
47630SOL     OW44786   8.897   3.797   3.261
47630SOL    HW144787   8.923   3.884   3.230
47630SOL    HW244788   8.802   3.803   3.272
47631SOL     OW44789   3.401  14.110   9.420
47631SOL    HW144790   3.485  14.143   9.453
47631SOL    HW244791   3.354  14.189   9.393
47632SOL     OW44792  12.324  10.939   1.294
47632SOL    HW144793  12.344  10.964   1.204
47632SOL    HW244794  12.239  10.978   1.311
47633SOL     OW44795  11.505   3.501   9.937
47633SOL    HW144796  11.583   3.552   9.962
47633SOL    HW244797  11.431   3.554   9.967
47634SOL     OW44798   2.443   7.038   9.081
47634SOL    HW144799   2.470   6.952   9.113
47634SOL    HW244800   2.425   7.089   9.161
47635SOL     OW44801  10.080   7.912  12.375
47635SOL    HW144802  10.039   7.948  12.297
47635SOL    HW244803  10.083   7.818  12.360
47636SOL     OW44804   4.737   1.525  14.177
47636SOL    HW144805   4.652   1.568  14.186
47636SOL    HW244806   4.774   1.525  14.266
47637SOL     OW44807  13.923  13.776  10.937
47637SOL    HW144808  13.855  13.833  10.901
47637SOL    HW244809  13.942  13.714  10.867
47638SOL     OW44810   8.782  13.365   8.654
47638SOL    HW144811   8.739  13.443   8.620
47638SOL    HW244812   8.875  13.377   8.633
47639SOL     OW44813   7.578   0.525  11.763
47639SOL    HW144814   7.643   0.595  11.761
47639SOL    HW244815   7.628   0.446  11.784
47640SOL     OW44816   3.660   3.090   1.897
47640SOL    HW144817   3.690   3.001   1.914
47640SOL    HW244818   3.640   3.126   1.983
47641SOL     OW44819  14.048  11.070  11.698
47641SOL    HW144820  14.049  11.139  11.631
47641SOL    HW244821  14.089  10.995  11.655
47642SOL     OW44822   2.268   8.187   2.081
47642SOL    HW144823   2.265   8.197   2.177
47642SOL    HW244824   2.181   8.156   2.058
47643SOL     OW44825   3.567  13.534   1.978
47643SOL    HW144826   3.567  13.598   1.906
47643SOL    HW244827   3.481  13.544   2.018
47644SOL     OW44828  11.100   0.984   8.800
47644SOL    HW144829  11.067   1.036   8.726
47644SOL    HW244830  11.123   1.049   8.866
47645SOL     OW44831  13.822   0.508  12.763
47645SOL    HW144832  13.745   0.471  12.721
47645SOL    HW244833  13.830   0.460  12.846
47646SOL     OW44834  13.594  14.669   4.366
47646SOL    HW144835  13.658  14.644   4.299
47646SOL    HW244836  13.541  14.591   4.379
47647SOL     OW44837  13.009   7.389   2.043
47647SOL    HW144838  13.105   7.389   2.045
47647SOL    HW244839  12.985   7.308   2.088
47648SOL     OW44840   9.809   4.398   2.671
47648SOL    HW144841   9.806   4.477   2.724
47648SOL    HW244842   9.882   4.347   2.707
47649SOL     OW44843  12.194   5.094   0.008
47649SOL    HW144844  12.197   5.039  14.801
47649SOL    HW244845  12.154   5.039   0.075
47650SOL     OW44846   6.627   9.033   0.490
47650SOL    HW144847   6.547   9.029   0.439
47650SOL    HW244848   6.600   9.060   0.577
47651SOL     OW44849   7.911  11.352   8.489
47651SOL    HW144850   7.917  11.256   8.485
47651SOL    HW244851   7.845  11.374   8.424
47652SOL     OW44852   8.660   7.680  12.912
47652SOL    HW144853   8.646   7.640  12.997
47652SOL    HW244854   8.613   7.763  12.917
47653SOL     OW44855   4.288   2.627   3.178
47653SOL    HW144856   4.259   2.709   3.219
47653SOL    HW244857   4.308   2.569   3.252
47654SOL     OW44858   6.129   6.528  12.192
47654SOL    HW144859   6.170   6.600  12.240
47654SOL    HW244860   6.198   6.463  12.183
47655SOL     OW44861  12.534  13.670   4.169
47655SOL    HW144862  12.568  13.748   4.215
47655SOL    HW244863  12.606  13.607   4.174
47656SOL     OW44864   0.883   0.155   9.917
47656SOL    HW144865   0.838   0.236   9.939
47656SOL    HW244866   0.879   0.149   9.822
47657SOL     OW44867   5.768  14.309  14.761
47657SOL    HW144868   5.695  14.251  14.742
47657SOL    HW244869   5.844  14.265  14.723
47658SOL     OW44870   0.323   6.768   1.111
47658SOL    HW144871   0.228   6.778   1.106
47658SOL    HW244872   0.356   6.825   1.041
47659SOL     OW44873   8.000   1.216   5.096
47659SOL    HW144874   7.933   1.242   5.159
47659SOL    HW244875   8.045   1.298   5.073
47660SOL     OW44876   8.719  11.211   0.124
47660SOL    HW144877   8.733  11.258   0.042
47660SOL    HW244878   8.790  11.147   0.127
47661SOL     OW44879   1.693   5.944   4.357
47661SOL    HW144880   1.780   5.948   4.319
47661SOL    HW244881   1.706   5.972   4.448
47662SOL     OW44882   8.770  10.985   7.993
47662SOL    HW144883   8.792  10.935   8.071
47662SOL    HW244884   8.703  10.933   7.949
47663SOL     OW44885  12.501   2.375   3.464
47663SOL    HW144886  12.449   2.303   3.501
47663SOL    HW244887  12.495   2.445   3.529
47664SOL     OW44888   9.954   3.251   1.223
47664SOL    HW144889   9.899   3.235   1.146
47664SOL    HW244890   9.978   3.344   1.215
47665SOL     OW44891  13.703  14.040  11.446
47665SOL    HW144892  13.626  14.090  11.476
47665SOL    HW244893  13.699  14.046  11.351
47666SOL     OW44894   8.059   9.500   9.305
47666SOL    HW144895   7.987   9.532   9.252
47666SOL    HW244896   8.123   9.571   9.303
47667SOL     OW44897   4.659   6.117   5.445
47667SOL    HW144898   4.722   6.061   5.489
47667SOL    HW244899   4.704   6.201   5.435
47668SOL     OW44900  14.031   9.995  12.254
47668SOL    HW144901  13.998  10.006  12.165
47668SOL    HW244902  14.126   9.985  12.243
47669SOL     OW44903   2.045   3.343   2.470
47669SOL    HW144904   2.087   3.376   2.549
47669SOL    HW244905   2.066   3.250   2.468
47670SOL     OW44906   0.604   1.003   7.149
47670SOL    HW144907   0.570   0.972   7.233
47670SOL    HW244908   0.673   0.940   7.127
47671SOL     OW44909   6.670   0.799   5.621
47671SOL    HW144910   6.677   0.709   5.589
47671SOL    HW244911   6.592   0.799   5.677
47672SOL     OW44912   3.110   1.013   3.068
47672SOL    HW144913   3.080   0.944   3.009
47672SOL    HW244914   3.040   1.021   3.133
47673SOL     OW44915   3.395   7.782   4.937
47673SOL    HW144916   3.411   7.729   5.016
47673SOL    HW244917   3.388   7.718   4.866
47674SOL     OW44918   7.364  14.596   2.784
47674SOL    HW144919   7.341  14.529   2.719
47674SOL    HW244920   7.457  14.583   2.801
47675SOL     OW44921   3.745   5.053   4.813
47675SOL    HW144922   3.681   5.079   4.747
47675SOL    HW244923   3.829   5.053   4.766
47676SOL     OW44924  12.121   6.372   4.801
47676SOL    HW144925  12.165   6.356   4.717
47676SOL    HW244926  12.103   6.285   4.835
47677SOL     OW44927   4.041  11.675  13.305
47677SOL    HW144928   3.997  11.598  13.269
47677SOL    HW244929   4.093  11.710  13.232
47678SOL     OW44930   3.946  11.445  12.529
47678SOL    HW144931   3.894  11.374  12.492
47678SOL    HW244932   3.938  11.433  12.624
47679SOL     OW44933  11.750  10.555   5.384
47679SOL    HW144934  11.745  10.645   5.415
47679SOL    HW244935  11.671  10.543   5.331
47680SOL     OW44936   2.448   8.662  14.606
47680SOL    HW144937   2.417   8.749  14.581
47680SOL    HW244938   2.487   8.627  14.527
47681SOL     OW44939   7.769  11.824   2.504
47681SOL    HW144940   7.733  11.735   2.499
47681SOL    HW244941   7.768  11.855   2.414
47682SOL     OW44942  13.554  13.677   7.200
47682SOL    HW144943  13.604  13.675   7.282
47682SOL    HW244944  13.510  13.762   7.201
47683SOL     OW44945   1.022   8.159   4.922
47683SOL    HW144946   1.078   8.193   4.992
47683SOL    HW244947   1.037   8.219   4.848
47684SOL     OW44948   8.214   6.262   2.856
47684SOL    HW144949   8.248   6.352   2.856
47684SOL    HW244950   8.285   6.209   2.892
47685SOL     OW44951   5.754  10.220   4.086
47685SOL    HW144952   5.786  10.269   4.162
47685SOL    HW244953   5.675  10.267   4.058
47686SOL     OW44954  12.399   2.011   0.212
47686SOL    HW144955  12.354   2.081   0.165
47686SOL    HW244956  12.489   2.014   0.179
47687SOL     OW44957  13.180  12.225   6.169
47687SOL    HW144958  13.224  12.201   6.087
47687SOL    HW244959  13.236  12.189   6.237
47688SOL     OW44960   2.343  12.911   1.736
47688SOL    HW144961   2.437  12.897   1.752
47688SOL    HW244962   2.309  12.825   1.712
47689SOL     OW44963   1.725   9.225   2.814
47689SOL    HW144964   1.788   9.274   2.761
47689SOL    HW244965   1.777   9.156   2.855
47690SOL     OW44966   5.303  12.222  14.440
47690SOL    HW144967   5.373  12.214  14.504
47690SOL    HW244968   5.242  12.286  14.478
47691SOL     OW44969   6.812   2.880   9.242
47691SOL    HW144970   6.891   2.918   9.281
47691SOL    HW244971   6.740   2.930   9.281
47692SOL     OW44972  12.111   3.608  11.940
47692SOL    HW144973  12.129   3.518  11.915
47692SOL    HW244974  12.183   3.659  11.903
47693SOL     OW44975   3.190  11.045   2.065
47693SOL    HW144976   3.134  11.048   2.142
47693SOL    HW244977   3.160  10.968   2.016
47694SOL     OW44978   5.998  13.143   0.647
47694SOL    HW144979   6.031  13.202   0.579
47694SOL    HW244980   5.963  13.068   0.599
47695SOL     OW44981   5.128   6.707  12.202
47695SOL    HW144982   5.068   6.744  12.266
47695SOL    HW244983   5.145   6.778  12.140
47696SOL     OW44984   9.230  10.917   5.883
47696SOL    HW144985   9.278  10.991   5.919
47696SOL    HW244986   9.190  10.875   5.959
47697SOL     OW44987   5.871   5.207  10.167
47697SOL    HW144988   5.953   5.195  10.216
47697SOL    HW244989   5.834   5.120  10.159
47698SOL     OW44990   6.750   0.745  14.270
47698SOL    HW144991   6.655   0.754  14.275
47698SOL    HW244992   6.783   0.775  14.355
47699SOL     OW44993  10.196   9.762   5.219
47699SOL    HW144994  10.125   9.776   5.155
47699SOL    HW244995  10.276   9.769   5.168
47700SOL     OW44996  13.424  13.601   2.377
47700SOL    HW144997  13.467  13.555   2.305
47700SOL    HW244998  13.488  13.665   2.407
47701SOL     OW44999   6.524  14.265  11.279
47701SOL    HW145000   6.594  14.258  11.344
47701SOL    HW245001   6.483  14.350  11.297
47702SOL     OW45002   6.491  10.966  13.726
47702SOL    HW145003   6.542  10.893  13.762
47702SOL    HW245004   6.434  10.992  13.798
47703SOL     OW45005   8.368   2.143  14.563
47703SOL    HW145006   8.316   2.220  14.585
47703SOL    HW245007   8.397   2.109  14.648
47704SOL     OW45008  11.729   8.067   7.230
47704SOL    HW145009  11.804   8.009   7.241
47704SOL    HW245010  11.700   8.085   7.320
47705SOL     OW45011   0.268   9.501  11.747
47705SOL    HW145012   0.283   9.520  11.654
47705SOL    HW245013   0.296   9.580  11.793
47706SOL     OW45014  12.527   7.744   1.651
47706SOL    HW145015  12.454   7.735   1.590
47706SOL    HW245016  12.486   7.746   1.737
47707SOL     OW45017   0.279   3.088   4.064
47707SOL    HW145018   0.247   3.013   4.015
47707SOL    HW245019   0.294   3.054   4.152
47708SOL     OW45020  14.724   0.556  14.207
47708SOL    HW145021  14.662   0.500  14.160
47708SOL    HW245022  14.669   0.611  14.263
47709SOL     OW45023  13.295  13.276   2.132
47709SOL    HW145024  13.252  13.253   2.215
47709SOL    HW245025  13.340  13.196   2.106
47710SOL     OW45026   1.854   2.682   4.431
47710SOL    HW145027   1.892   2.649   4.512
47710SOL    HW245028   1.770   2.636   4.424
47711SOL     OW45029   2.291  12.633  11.308
47711SOL    HW145030   2.249  12.549  11.289
47711SOL    HW245031   2.295  12.677  11.223
47712SOL     OW45032  10.056  11.907  13.838
47712SOL    HW145033   9.990  11.902  13.769
47712SOL    HW245034  10.083  11.999  13.838
47713SOL     OW45035  11.798   1.762  12.979
47713SOL    HW145036  11.724   1.760  12.919
47713SOL    HW245037  11.759   1.776  13.065
47714SOL     OW45038   5.326   2.473  10.632
47714SOL    HW145039   5.258   2.520  10.583
47714SOL    HW245040   5.408   2.504  10.594
47715SOL     OW45041   2.798   5.405   4.961
47715SOL    HW145042   2.747   5.429   4.884
47715SOL    HW245043   2.889   5.411   4.934
47716SOL     OW45044  11.617  11.978   8.996
47716SOL    HW145045  11.672  11.900   9.007
47716SOL    HW245046  11.674  12.051   9.019
47717SOL     OW45047   3.538   6.857  10.806
47717SOL    HW145048   3.548   6.906  10.888
47717SOL    HW245049   3.466   6.901  10.761
47718SOL     OW45050   8.059   7.776   6.980
47718SOL    HW145051   7.970   7.764   6.946
47718SOL    HW245052   8.084   7.864   6.951
47719SOL     OW45053   9.183  11.663   2.133
47719SOL    HW145054   9.147  11.749   2.155
47719SOL    HW245055   9.156  11.648   2.042
47720SOL     OW45056  11.208   5.946   2.321
47720SOL    HW145057  11.178   6.003   2.250
47720SOL    HW245058  11.269   5.886   2.279
47721SOL     OW45059   5.236   8.273  10.358
47721SOL    HW145060   5.142   8.263  10.373
47721SOL    HW245061   5.243   8.296  10.265
47722SOL     OW45062   1.902  13.918  10.629
47722SOL    HW145063   1.965  13.854  10.663
47722SOL    HW245064   1.817  13.887  10.661
47723SOL     OW45065  14.411   5.198  10.391
47723SOL    HW145066  14.376   5.282  10.358
47723SOL    HW245067  14.418   5.211  10.486
47724SOL     OW45068   5.342   9.910  13.039
47724SOL    HW145069   5.406   9.975  13.010
47724SOL    HW245070   5.352   9.907  13.134
47725SOL     OW45071  10.434   0.539  13.893
47725SOL    HW145072  10.349   0.572  13.863
47725SOL    HW245073  10.494   0.613  13.880
47726SOL     OW45074  11.614  12.940  11.403
47726SOL    HW145075  11.543  12.920  11.342
47726SOL    HW245076  11.620  12.864  11.460
47727SOL     OW45077   0.455   8.576  10.367
47727SOL    HW145078   0.359   8.575  10.369
47727SOL    HW245079   0.477   8.551  10.277
47728SOL     OW45080   0.265  11.824   2.307
47728SOL    HW145081   0.251  11.741   2.263
47728SOL    HW245082   0.345  11.811   2.359
47729SOL     OW45083  10.806   0.014  11.345
47729SOL    HW145084  10.832   0.105  11.334
47729SOL    HW245085  10.750  14.867  11.269
47730SOL     OW45086   1.507   3.100   8.018
47730SOL    HW145087   1.501   3.133   7.928
47730SOL    HW245088   1.492   3.178   8.072
47731SOL     OW45089  11.356  13.646   1.056
47731SOL    HW145090  11.314  13.619   0.975
47731SOL    HW245091  11.302  13.719   1.087
47732SOL     OW45092  11.976  10.422   1.806
47732SOL    HW145093  11.900  10.400   1.752
47732SOL    HW245094  11.943  10.419   1.896
47733SOL     OW45095   0.302  12.921   5.477
47733SOL    HW145096   0.386  12.943   5.516
47733SOL    HW245097   0.243  12.992   5.502
47734SOL     OW45098   5.127   5.141   5.437
47734SOL    HW145099   5.115   5.220   5.490
47734SOL    HW245100   5.205   5.159   5.385
47735SOL     OW45101   6.191   1.177   7.372
47735SOL    HW145102   6.143   1.247   7.416
47735SOL    HW245103   6.135   1.152   7.299
47736SOL     OW45104   0.449   4.611   8.177
47736SOL    HW145105   0.355   4.605   8.159
47736SOL    HW245106   0.455   4.611   8.273
47737SOL     OW45107   6.984   9.063   6.783
47737SOL    HW145108   6.973   9.149   6.824
47737SOL    HW245109   6.984   9.001   6.857
47738SOL     OW45110   7.656  13.261  12.315
47738SOL    HW145111   7.696  13.188  12.268
47738SOL    HW245112   7.689  13.339  12.271
47739SOL     OW45113   1.882   9.006   2.876
47739SOL    HW145114   1.866   8.970   2.789
47739SOL    HW245115   1.959   8.958   2.908
47740SOL     OW45116  13.950   9.970  11.006
47740SOL    HW145117  13.924   9.887  11.045
47740SOL    HW245118  13.896   9.979  10.928
47741SOL     OW45119   2.310   6.524  13.807
47741SOL    HW145120   2.316   6.610  13.849
47741SOL    HW245121   2.383   6.475  13.843
47742SOL     OW45122   9.258   3.065   4.943
47742SOL    HW145123   9.293   2.985   4.903
47742SOL    HW245124   9.316   3.082   5.017
47743SOL     OW45125  14.072  13.847   3.452
47743SOL    HW145126  14.039  13.921   3.401
47743SOL    HW245127  14.167  13.858   3.450
47744SOL     OW45128   2.023  11.774   6.236
47744SOL    HW145129   2.114  11.744   6.233
47744SOL    HW245130   1.994  11.749   6.324
47745SOL     OW45131   7.168   3.422  14.089
47745SOL    HW145132   7.128   3.344  14.049
47745SOL    HW245133   7.212   3.466  14.017
47746SOL     OW45134   2.473   7.934   8.241
47746SOL    HW145135   2.486   7.840   8.257
47746SOL    HW245136   2.543   7.976   8.291
47747SOL     OW45137   4.613  12.662   3.281
47747SOL    HW145138   4.663  12.732   3.238
47747SOL    HW245139   4.669  12.633   3.352
47748SOL     OW45140  12.494   4.068   0.765
47748SOL    HW145141  12.560   4.134   0.745
47748SOL    HW245142  12.542   3.985   0.762
47749SOL     OW45143   7.460   3.015  14.733
47749SOL    HW145144   7.466   2.920  14.746
47749SOL    HW245145   7.535   3.051  14.780
47750SOL     OW45146   4.505   6.161  11.872
47750SOL    HW145147   4.483   6.169  11.779
47750SOL    HW245148   4.449   6.226  11.915
47751SOL     OW45149   6.468   3.249   1.762
47751SOL    HW145150   6.405   3.284   1.825
47751SOL    HW245151   6.545   3.304   1.773
47752SOL     OW45152   8.171   6.666   0.844
47752SOL    HW145153   8.102   6.716   0.888
47752SOL    HW245154   8.252   6.700   0.881
47753SOL     OW45155   0.604   0.628   9.303
47753SOL    HW145156   0.544   0.602   9.234
47753SOL    HW245157   0.691   0.616   9.265
47754SOL     OW45158   7.824  10.511   8.752
47754SOL    HW145159   7.893  10.556   8.801
47754SOL    HW245160   7.829  10.420   8.780
47755SOL     OW45161  14.627   6.785   7.112
47755SOL    HW145162  14.597   6.768   7.201
47755SOL    HW245163  14.569   6.733   7.056
47756SOL     OW45164   2.025   7.702   0.244
47756SOL    HW145165   1.990   7.773   0.192
47756SOL    HW245166   2.114   7.730   0.267
47757SOL     OW45167   9.639  10.171   2.300
47757SOL    HW145168   9.652  10.260   2.268
47757SOL    HW245169   9.583  10.180   2.377
47758SOL     OW45170  11.916   6.428  10.456
47758SOL    HW145171  11.947   6.516  10.433
47758SOL    HW245172  11.956   6.371  10.390
47759SOL     OW45173   8.123   8.532   3.034
47759SOL    HW145174   8.152   8.451   3.075
47759SOL    HW245175   8.132   8.599   3.102
47760SOL     OW45176  14.373   9.800   7.061
47760SOL    HW145177  14.399   9.889   7.086
47760SOL    HW245178  14.409   9.744   7.130
47761SOL     OW45179  13.981   6.702   8.550
47761SOL    HW145180  13.891   6.734   8.545
47761SOL    HW245181  13.985   6.631   8.486
47762SOL     OW45182   3.957   6.601  11.622
47762SOL    HW145183   3.928   6.510  11.618
47762SOL    HW245184   3.992   6.619  11.535
47763SOL     OW45185  10.894   4.993   7.282
47763SOL    HW145186  10.893   5.025   7.192
47763SOL    HW245187  10.803   4.977   7.303
47764SOL     OW45188  12.914  11.391   3.423
47764SOL    HW145189  12.940  11.463   3.365
47764SOL    HW245190  12.962  11.408   3.504
47765SOL     OW45191   3.758   9.715  13.928
47765SOL    HW145192   3.725   9.771  13.858
47765SOL    HW245193   3.846   9.690  13.899
47766SOL     OW45194   8.526   4.721   7.465
47766SOL    HW145195   8.450   4.744   7.412
47766SOL    HW245196   8.496   4.648   7.520
47767SOL     OW45197   8.673   1.896   2.437
47767SOL    HW145198   8.601   1.930   2.385
47767SOL    HW245199   8.742   1.877   2.373
47768SOL     OW45200   0.179   9.737   5.973
47768SOL    HW145201   0.119   9.747   6.047
47768SOL    HW245202   0.219   9.823   5.962
47769SOL     OW45203   6.446   6.409  14.032
47769SOL    HW145204   6.435   6.365  13.948
47769SOL    HW245205   6.443   6.339  14.097
47770SOL     OW45206   8.824  13.530   1.799
47770SOL    HW145207   8.762  13.464   1.767
47770SOL    HW245208   8.848  13.579   1.720
47771SOL     OW45209   0.720   2.129   4.617
47771SOL    HW145210   0.708   2.218   4.649
47771SOL    HW245211   0.662   2.075   4.671
47772SOL     OW45212   8.854  14.575  14.103
47772SOL    HW145213   8.786  14.624  14.149
47772SOL    HW245214   8.932  14.587  14.156
47773SOL     OW45215  12.894   5.826   7.074
47773SOL    HW145216  12.920   5.911   7.038
47773SOL    HW245217  12.810   5.842   7.116
47774SOL     OW45218   1.339   7.222   8.009
47774SOL    HW145219   1.402   7.269   8.064
47774SOL    HW245220   1.393   7.178   7.943
47775SOL     OW45221  10.785  11.780   5.370
47775SOL    HW145222  10.877  11.780   5.345
47775SOL    HW245223  10.766  11.689   5.392
47776SOL     OW45224   3.337   3.107   9.751
47776SOL    HW145225   3.394   3.164   9.803
47776SOL    HW245226   3.343   3.022   9.794
47777SOL     OW45227   1.421   8.954   9.029
47777SOL    HW145228   1.386   8.931   9.115
47777SOL    HW245229   1.509   8.986   9.047
47778SOL     OW45230   2.919   8.439   5.090
47778SOL    HW145231   2.856   8.372   5.116
47778SOL    HW245232   2.925   8.498   5.165
47779SOL     OW45233   2.753   6.071   5.172
47779SOL    HW145234   2.713   6.062   5.259
47779SOL    HW245235   2.679   6.071   5.111
47780SOL     OW45236   1.860  11.931   8.045
47780SOL    HW145237   1.914  11.942   8.124
47780SOL    HW245238   1.917  11.884   7.984
47781SOL     OW45239   1.868  12.718   7.233
47781SOL    HW145240   1.861  12.763   7.318
47781SOL    HW245241   1.818  12.773   7.173
47782SOL     OW45242  10.864   7.762   3.045
47782SOL    HW145243  10.789   7.817   3.069
47782SOL    HW245244  10.893   7.723   3.128
47783SOL     OW45245   7.103  10.269   2.256
47783SOL    HW145246   7.182  10.240   2.210
47783SOL    HW245247   7.081  10.196   2.314
47784SOL     OW45248   8.028   4.791  13.150
47784SOL    HW145249   8.117   4.756  13.156
47784SOL    HW245250   8.035   4.864  13.089
47785SOL     OW45251   8.531   9.865  13.682
47785SOL    HW145252   8.506   9.957  13.694
47785SOL    HW245253   8.514   9.825  13.768
47786SOL     OW45254   9.077  14.528   5.187
47786SOL    HW145255   9.073  14.539   5.092
47786SOL    HW245256   9.167  14.501   5.205
47787SOL     OW45257   9.390  12.313   7.660
47787SOL    HW145258   9.324  12.350   7.718
47787SOL    HW245259   9.351  12.319   7.573
47788SOL     OW45260  10.463   9.522   9.411
47788SOL    HW145261  10.492   9.567   9.331
47788SOL    HW245262  10.526   9.451   9.422
47789SOL     OW45263   9.719  14.475   3.382
47789SOL    HW145264   9.773  14.396   3.379
47789SOL    HW245265   9.753  14.529   3.310
47790SOL     OW45266  10.851  10.064   3.247
47790SOL    HW145267  10.799   9.993   3.211
47790SOL    HW245268  10.821  10.142   3.200
47791SOL     OW45269   0.519   3.830   8.859
47791SOL    HW145270   0.548   3.913   8.819
47791SOL    HW245271   0.448   3.855   8.918
47792SOL     OW45272  13.612  11.796  14.278
47792SOL    HW145273  13.588  11.758  14.362
47792SOL    HW245274  13.656  11.725  14.231
47793SOL     OW45275   7.022   3.010   4.907
47793SOL    HW145276   6.953   2.965   4.858
47793SOL    HW245277   7.084   2.941   4.932
47794SOL     OW45278  10.849   1.273   2.021
47794SOL    HW145279  10.919   1.291   1.958
47794SOL    HW245280  10.772   1.316   1.985
47795SOL     OW45281   4.367   4.262   8.647
47795SOL    HW145282   4.459   4.288   8.656
47795SOL    HW245283   4.322   4.342   8.620
47796SOL     OW45284   9.864   3.651   8.341
47796SOL    HW145285   9.903   3.680   8.259
47796SOL    HW245286   9.803   3.582   8.316
47797SOL     OW45287   0.937   3.939  11.248
47797SOL    HW145288   1.028   3.946  11.221
47797SOL    HW245289   0.926   3.847  11.273
47798SOL     OW45290   5.347  13.705   8.145
47798SOL    HW145291   5.315  13.618   8.120
47798SOL    HW245292   5.388  13.740   8.066
47799SOL     OW45293   3.424   2.759   6.755
47799SOL    HW145294   3.341   2.775   6.800
47799SOL    HW245295   3.491   2.785   6.818
47800SOL     OW45296   8.568   4.718   4.955
47800SOL    HW145297   8.507   4.791   4.948
47800SOL    HW245298   8.580   4.706   5.049
47801SOL     OW45299   1.765   4.384   8.811
47801SOL    HW145300   1.787   4.476   8.824
47801SOL    HW245301   1.689   4.384   8.753
47802SOL     OW45302   2.622   6.428   1.101
47802SOL    HW145303   2.682   6.502   1.092
47802SOL    HW245304   2.679   6.353   1.117
47803SOL     OW45305   8.898   7.742   8.112
47803SOL    HW145306   8.883   7.803   8.040
47803SOL    HW245307   8.971   7.688   8.082
47804SOL     OW45308   4.943   4.355  10.393
47804SOL    HW145309   5.026   4.375  10.436
47804SOL    HW245310   4.876   4.393  10.451
47805SOL     OW45311   0.041   0.988  13.595
47805SOL    HW145312   0.100   0.941  13.536
47805SOL    HW245313  14.865   1.047  13.539
47806SOL     OW45314   7.297   1.064  13.815
47806SOL    HW145315   7.233   1.108  13.760
47806SOL    HW245316   7.329   0.991  13.762
47807SOL     OW45317   7.954   3.490   2.637
47807SOL    HW145318   7.984   3.544   2.564
47807SOL    HW245319   7.980   3.538   2.716
47808SOL     OW45320   2.752   4.629   7.214
47808SOL    HW145321   2.703   4.628   7.297
47808SOL    HW245322   2.843   4.618   7.240
47809SOL     OW45323   0.978  14.217  11.884
47809SOL    HW145324   0.969  14.188  11.975
47809SOL    HW245325   0.893  14.200  11.845
47810SOL     OW45326   3.116   7.209   6.033
47810SOL    HW145327   3.141   7.211   5.941
47810SOL    HW245328   3.084   7.298   6.051
47811SOL     OW45329  14.341   2.764   8.206
47811SOL    HW145330  14.291   2.696   8.252
47811SOL    HW245331  14.312   2.758   8.115
47812SOL     OW45332   5.086  14.425   7.489
47812SOL    HW145333   5.091  14.457   7.399
47812SOL    HW245334   5.038  14.343   7.482
47813SOL     OW45335  13.772   0.245   0.754
47813SOL    HW145336  13.697   0.258   0.812
47813SOL    HW245337  13.734   0.229   0.668
47814SOL     OW45338   3.517  14.010   1.467
47814SOL    HW145339   3.478  14.061   1.396
47814SOL    HW245340   3.469  14.039   1.545
47815SOL     OW45341   0.773   2.405   3.761
47815SOL    HW145342   0.771   2.315   3.730
47815SOL    HW245343   0.738   2.401   3.850
47816SOL     OW45344   7.007  14.294   9.869
47816SOL    HW145345   6.944  14.237   9.826
47816SOL    HW245346   7.010  14.262   9.960
47817SOL     OW45347   9.491   5.669   8.884
47817SOL    HW145348   9.571   5.634   8.845
47817SOL    HW245349   9.486   5.759   8.853
47818SOL     OW45350  13.381  14.134   7.652
47818SOL    HW145351  13.287  14.139   7.637
47818SOL    HW245352  13.389  14.103   7.743
47819SOL     OW45353  12.616   4.806  10.726
47819SOL    HW145354  12.687   4.833  10.783
47819SOL    HW245355  12.619   4.866  10.652
47820SOL     OW45356   3.281   7.932  11.912
47820SOL    HW145357   3.263   7.912  11.820
47820SOL    HW245358   3.205   7.899  11.959
47821SOL     OW45359  12.971   4.476  12.467
47821SOL    HW145360  12.971   4.384  12.442
47821SOL    HW245361  13.063   4.500  12.470
47822SOL     OW45362   3.538   0.045   9.812
47822SOL    HW145363   3.617   0.044   9.866
47822SOL    HW245364   3.478   0.105   9.857
47823SOL     OW45365   1.619   3.112  12.242
47823SOL    HW145366   1.615   3.195  12.289
47823SOL    HW245367   1.532   3.072  12.257
47824SOL     OW45368   2.459   8.241   8.347
47824SOL    HW145369   2.534   8.184   8.359
47824SOL    HW245370   2.412   8.205   8.272
47825SOL     OW45371  10.442   7.329   5.058
47825SOL    HW145372  10.486   7.262   5.006
47825SOL    HW245373  10.481   7.321   5.145
47826SOL     OW45374   1.332  10.732   6.294
47826SOL    HW145375   1.319  10.637   6.287
47826SOL    HW245376   1.334  10.763   6.203
47827SOL     OW45377   3.150  14.169   0.326
47827SOL    HW145378   3.214  14.239   0.337
47827SOL    HW245379   3.156  14.145   0.233
47828SOL     OW45380   2.475   3.321   4.253
47828SOL    HW145381   2.569   3.302   4.251
47828SOL    HW245382   2.461   3.360   4.340
47829SOL     OW45383   0.472   9.438   8.847
47829SOL    HW145384   0.505   9.350   8.832
47829SOL    HW245385   0.431   9.434   8.934
47830SOL     OW45386   0.276   9.334   8.114
47830SOL    HW145387   0.342   9.383   8.064
47830SOL    HW245388   0.237   9.274   8.051
47831SOL     OW45389   7.010   9.009  13.480
47831SOL    HW145390   6.984   9.089  13.435
47831SOL    HW245391   7.106   9.007  13.473
47832SOL     OW45392  10.894   1.490   3.295
47832SOL    HW145393  10.988   1.507   3.287
47832SOL    HW245394  10.886   1.439   3.375
47833SOL     OW45395   3.105   4.535   6.062
47833SOL    HW145396   3.151   4.464   6.106
47833SOL    HW245397   3.173   4.580   6.011
47834SOL     OW45398  12.650   0.395   2.326
47834SOL    HW145399  12.696   0.330   2.378
47834SOL    HW245400  12.557   0.372   2.335
47835SOL     OW45401   8.490   4.117   4.472
47835SOL    HW145402   8.425   4.131   4.540
47835SOL    HW245403   8.574   4.141   4.512
47836SOL     OW45404   4.303   3.809   8.761
47836SOL    HW145405   4.266   3.721   8.764
47836SOL    HW245406   4.356   3.815   8.841
47837SOL     OW45407   8.413   6.428  11.927
47837SOL    HW145408   8.365   6.493  11.978
47837SOL    HW245409   8.347   6.387  11.871
47838SOL     OW45410   3.279   6.977   7.962
47838SOL    HW145411   3.221   7.035   8.012
47838SOL    HW245412   3.317   7.032   7.894
47839SOL     OW45413   9.251   4.413   9.920
47839SOL    HW145414   9.288   4.400   9.832
47839SOL    HW245415   9.165   4.371   9.916
47840SOL     OW45416   5.190   6.437   3.215
47840SOL    HW145417   5.149   6.392   3.288
47840SOL    HW245418   5.184   6.530   3.237
47841SOL     OW45419   8.996   8.415  13.255
47841SOL    HW145420   8.940   8.492  13.256
47841SOL    HW245421   9.061   8.432  13.323
47842SOL     OW45422   7.744   2.567  10.200
47842SOL    HW145423   7.663   2.560  10.249
47842SOL    HW245424   7.719   2.611  10.118
47843SOL     OW45425   2.764  10.397   6.351
47843SOL    HW145426   2.832  10.381   6.286
47843SOL    HW245427   2.811  10.402   6.434
47844SOL     OW45428   7.825   7.608   7.085
47844SOL    HW145429   7.905   7.554   7.085
47844SOL    HW245430   7.757   7.548   7.056
47845SOL     OW45431  14.057   1.047  13.279
47845SOL    HW145432  14.100   1.069  13.361
47845SOL    HW245433  13.988   1.113  13.270
47846SOL     OW45434  14.074   7.811  14.193
47846SOL    HW145435  14.057   7.905  14.186
47846SOL    HW245436  14.032   7.774  14.116
47847SOL     OW45437   9.225  10.082   3.544
47847SOL    HW145438   9.242   9.995   3.508
47847SOL    HW245439   9.200  10.066   3.635
47848SOL     OW45440   9.263   9.918   4.677
47848SOL    HW145441   9.274   9.872   4.760
47848SOL    HW245442   9.185   9.972   4.688
47849SOL     OW45443   0.410   2.882   5.618
47849SOL    HW145444   0.431   2.953   5.558
47849SOL    HW245445   0.467   2.897   5.694
47850SOL     OW45446   8.383   6.032   6.386
47850SOL    HW145447   8.460   6.000   6.339
47850SOL    HW245448   8.324   5.957   6.389
47851SOL     OW45449  12.639   8.015   3.362
47851SOL    HW145450  12.571   8.066   3.406
47851SOL    HW245451  12.620   8.024   3.268
47852SOL     OW45452  11.756  10.945  11.062
47852SOL    HW145453  11.835  10.998  11.052
47852SOL    HW245454  11.778  10.884  11.133
47853SOL     OW45455   0.568   9.564   2.252
47853SOL    HW145456   0.595   9.653   2.275
47853SOL    HW245457   0.618   9.508   2.312
47854SOL     OW45458   2.947   9.185   6.176
47854SOL    HW145459   2.969   9.242   6.249
47854SOL    HW245460   2.893   9.240   6.118
47855SOL     OW45461   8.648   1.322   9.012
47855SOL    HW145462   8.730   1.338   8.965
47855SOL    HW245463   8.659   1.235   9.050
47856SOL     OW45464   8.022   8.936  13.092
47856SOL    HW145465   8.075   9.002  13.138
47856SOL    HW245466   7.951   8.916  13.153
47857SOL     OW45467   6.330   0.614   8.033
47857SOL    HW145468   6.314   0.694   7.983
47857SOL    HW245469   6.421   0.591   8.014
47858SOL     OW45470   4.935   2.616   0.014
47858SOL    HW145471   4.953   2.614   0.108
47858SOL    HW245472   4.843   2.645   0.009
47859SOL     OW45473  14.027  12.697  11.860
47859SOL    HW145474  14.115  12.724  11.834
47859SOL    HW245475  14.040  12.654  11.945
47860SOL     OW45476   8.218  12.272   4.750
47860SOL    HW145477   8.180  12.359   4.765
47860SOL    HW245478   8.279  12.260   4.823
47861SOL     OW45479  14.639  12.458   6.207
47861SOL    HW145480  14.716  12.499   6.167
47861SOL    HW245481  14.567  12.518   6.189
47862SOL     OW45482   5.433   8.806   8.093
47862SOL    HW145483   5.394   8.893   8.085
47862SOL    HW245484   5.358   8.747   8.097
47863SOL     OW45485   0.056  13.961   1.915
47863SOL    HW145486   0.020  14.043   1.948
47863SOL    HW245487  14.864  13.894   1.942
47864SOL     OW45488   2.067  13.762   6.551
47864SOL    HW145489   2.151  13.794   6.583
47864SOL    HW245490   2.037  13.700   6.617
47865SOL     OW45491   9.406   3.819   7.737
47865SOL    HW145492   9.335   3.812   7.800
47865SOL    HW245493   9.483   3.842   7.789
47866SOL     OW45494   9.409   5.486   3.112
47866SOL    HW145495   9.463   5.409   3.096
47866SOL    HW245496   9.340   5.454   3.170
47867SOL     OW45497   5.812  13.148  10.046
47867SOL    HW145498   5.793  13.104   9.963
47867SOL    HW245499   5.908  13.145  10.053
47868SOL     OW45500   9.349  10.385   2.254
47868SOL    HW145501   9.442  10.401   2.238
47868SOL    HW245502   9.348  10.315   2.319
47869SOL     OW45503   2.004   8.338   3.954
47869SOL    HW145504   2.071   8.373   4.014
47869SOL    HW245505   1.998   8.404   3.885
47870SOL     OW45506  14.467  10.144   2.497
47870SOL    HW145507  14.407  10.077   2.530
47870SOL    HW245508  14.410  10.209   2.456
47871SOL     OW45509  10.901   8.023   7.977
47871SOL    HW145510  10.996   8.010   7.975
47871SOL    HW245511  10.865   7.936   7.991
47872SOL     OW45512  10.972  13.154   2.970
47872SOL    HW145513  11.027  13.089   3.012
47872SOL    HW245514  10.885  13.141   3.007
47873SOL     OW45515  10.001   8.934   0.537
47873SOL    HW145516   9.906   8.925   0.530
47873SOL    HW245517  10.013   9.019   0.580
47874SOL     OW45518  11.231   3.031   7.893
47874SOL    HW145519  11.206   2.975   7.967
47874SOL    HW245520  11.327   3.022   7.888
47875SOL     OW45521   7.985  14.473  11.328
47875SOL    HW145522   8.005  14.399  11.271
47875SOL    HW245523   8.070  14.512  11.348
47876SOL     OW45524   5.827   9.513  13.489
47876SOL    HW145525   5.854   9.422  13.480
47876SOL    HW245526   5.890   9.562  13.437
47877SOL     OW45527  10.005  10.926  10.414
47877SOL    HW145528  10.078  10.988  10.416
47877SOL    HW245529  10.032  10.855  10.471
47878SOL     OW45530   1.278  12.184  10.365
47878SOL    HW145531   1.211  12.141  10.417
47878SOL    HW245532   1.235  12.262  10.331
47879SOL     OW45533   8.526  14.775  12.903
47879SOL    HW145534   8.619  14.790  12.923
47879SOL    HW245535   8.500  14.705  12.963
47880SOL     OW45536  10.688   9.288  10.298
47880SOL    HW145537  10.722   9.376  10.281
47880SOL    HW245538  10.766   9.237  10.321
47881SOL     OW45539   8.955   3.005   4.662
47881SOL    HW145540   8.883   3.016   4.600
47881SOL    HW245541   8.983   2.914   4.649
47882SOL     OW45542   6.263  10.747   2.222
47882SOL    HW145543   6.204  10.746   2.297
47882SOL    HW245544   6.248  10.832   2.181
47883SOL     OW45545   8.954  10.474   9.984
47883SOL    HW145546   8.903  10.395  10.001
47883SOL    HW245547   9.015  10.480  10.057
47884SOL     OW45548  12.404   7.389   3.284
47884SOL    HW145549  12.374   7.480   3.276
47884SOL    HW245550  12.351   7.352   3.354
47885SOL     OW45551   9.600   4.640  10.008
47885SOL    HW145552   9.652   4.711  10.046
47885SOL    HW245553   9.606   4.654   9.914
47886SOL     OW45554  14.505   9.149   8.891
47886SOL    HW145555  14.543   9.076   8.941
47886SOL    HW245556  14.578   9.187   8.844
47887SOL     OW45557   8.438  14.040   9.296
47887SOL    HW145558   8.492  14.111   9.332
47887SOL    HW245559   8.481  13.960   9.323
47888SOL     OW45560   8.163   8.511   5.377
47888SOL    HW145561   8.204   8.478   5.297
47888SOL    HW245562   8.070   8.496   5.364
47889SOL     OW45563  10.122   8.492   8.620
47889SOL    HW145564  10.085   8.405   8.605
47889SOL    HW245565  10.104   8.540   8.540
47890SOL     OW45566   6.112   9.071   1.010
47890SOL    HW145567   6.017   9.076   1.016
47890SOL    HW245568   6.139   9.021   1.087
47891SOL     OW45569  12.561   0.607   7.182
47891SOL    HW145570  12.623   0.547   7.224
47891SOL    HW245571  12.616   0.677   7.146
47892SOL     OW45572   7.158  13.311   4.874
47892SOL    HW145573   7.105  13.386   4.902
47892SOL    HW245574   7.117  13.282   4.792
47893SOL     OW45575   2.427   1.953   1.309
47893SOL    HW145576   2.351   1.941   1.251
47893SOL    HW245577   2.410   1.893   1.382
47894SOL     OW45578  11.312   4.043   3.208
47894SOL    HW145579  11.265   4.073   3.286
47894SOL    HW245580  11.343   3.956   3.231
47895SOL     OW45581   5.248   3.707   5.029
47895SOL    HW145582   5.185   3.649   4.987
47895SOL    HW245583   5.260   3.670   5.117
47896SOL     OW45584   9.997   5.201   9.748
47896SOL    HW145585   9.936   5.272   9.765
47896SOL    HW245586   9.943   5.128   9.719
47897SOL     OW45587  10.208   3.674   5.569
47897SOL    HW145588  10.237   3.755   5.610
47897SOL    HW245589  10.144   3.701   5.504
47898SOL     OW45590   2.198   9.470  10.182
47898SOL    HW145591   2.238   9.387  10.210
47898SOL    HW245592   2.257   9.537  10.216
47899SOL     OW45593   2.468   2.777   0.123
47899SOL    HW145594   2.441   2.747   0.036
47899SOL    HW245595   2.540   2.838   0.106
47900SOL     OW45596   3.851   6.824   8.704
47900SOL    HW145597   3.850   6.837   8.798
47900SOL    HW245598   3.819   6.734   8.691
47901SOL     OW45599   4.310   8.414   0.626
47901SOL    HW145600   4.348   8.448   0.545
47901SOL    HW245601   4.290   8.323   0.607
47902SOL     OW45602  13.870  14.463   2.013
47902SOL    HW145603  13.949  14.500   2.052
47902SOL    HW245604  13.836  14.532   1.956
47903SOL     OW45605   9.357  11.439   1.734
47903SOL    HW145606   9.396  11.363   1.691
47903SOL    HW245607   9.411  11.513   1.705
47904SOL     OW45608  13.387   9.796   5.017
47904SOL    HW145609  13.412   9.883   4.985
47904SOL    HW245610  13.465   9.742   5.004
47905SOL     OW45611  10.729   7.840   9.044
47905SOL    HW145612  10.690   7.773   9.101
47905SOL    HW245613  10.823   7.826   9.053
47906SOL     OW45614  13.240   0.838  13.506
47906SOL    HW145615  13.243   0.751  13.546
47906SOL    HW245616  13.159   0.837  13.455
47907SOL     OW45617   6.822   1.400   8.585
47907SOL    HW145618   6.727   1.412   8.595
47907SOL    HW245619   6.833   1.306   8.570
47908SOL     OW45620  12.596  12.793   2.014
47908SOL    HW145621  12.645  12.803   1.932
47908SOL    HW245622  12.539  12.870   2.018
47909SOL     OW45623   9.104  10.402   8.198
47909SOL    HW145624   9.116  10.447   8.281
47909SOL    HW245625   9.192  10.371   8.175
47910SOL     OW45626  14.497   8.205  11.379
47910SOL    HW145627  14.522   8.125  11.424
47910SOL    HW245628  14.442   8.175  11.306
47911SOL     OW45629   3.975   6.304   2.461
47911SOL    HW145630   3.910   6.366   2.494
47911SOL    HW245631   4.059   6.340   2.491
47912SOL     OW45632  11.494   4.388  12.640
47912SOL    HW145633  11.425   4.423  12.584
47912SOL    HW245634  11.558   4.352  12.579
47913SOL     OW45635   3.876  11.913   9.837
47913SOL    HW145636   3.913  11.926   9.750
47913SOL    HW245637   3.808  11.980   9.844
47914SOL     OW45638   2.721   0.546   7.227
47914SOL    HW145639   2.695   0.554   7.135
47914SOL    HW245640   2.792   0.609   7.237
47915SOL     OW45641   5.897   4.112   9.315
47915SOL    HW145642   5.915   4.018   9.322
47915SOL    HW245643   5.984   4.152   9.311
47916SOL     OW45644   5.247  10.905   6.370
47916SOL    HW145645   5.310  10.924   6.300
47916SOL    HW245646   5.228  10.811   6.359
47917SOL     OW45647   3.367   7.541   3.814
47917SOL    HW145648   3.328   7.456   3.795
47917SOL    HW245649   3.443   7.546   3.756
47918SOL     OW45650   7.442   1.462   4.544
47918SOL    HW145651   7.383   1.401   4.587
47918SOL    HW245652   7.385   1.531   4.510
47919SOL     OW45653   2.119   2.838  10.290
47919SOL    HW145654   2.100   2.836  10.383
47919SOL    HW245655   2.197   2.783  10.280
47920SOL     OW45656   8.500   7.406   2.193
47920SOL    HW145657   8.465   7.424   2.106
47920SOL    HW245658   8.456   7.325   2.221
47921SOL     OW45659   3.258   3.883  12.136
47921SOL    HW145660   3.292   3.959  12.089
47921SOL    HW245661   3.212   3.920  12.212
47922SOL     OW45662  14.735   5.973  12.879
47922SOL    HW145663  14.699   5.926  12.804
47922SOL    HW245664  14.683   5.944  12.953
47923SOL     OW45665   3.666   3.988  10.581
47923SOL    HW145666   3.748   3.959  10.541
47923SOL    HW245667   3.678   4.082  10.596
47924SOL     OW45668   2.279   3.450   2.608
47924SOL    HW145669   2.365   3.490   2.619
47924SOL    HW245670   2.293   3.357   2.627
47925SOL     OW45671   9.715   7.501   5.292
47925SOL    HW145672   9.695   7.579   5.241
47925SOL    HW245673   9.632   7.480   5.336
47926SOL     OW45674   5.793  12.992   5.106
47926SOL    HW145675   5.860  13.051   5.144
47926SOL    HW245676   5.843  12.933   5.050
47927SOL     OW45677   7.007   8.694  12.174
47927SOL    HW145678   7.015   8.599  12.163
47927SOL    HW245679   7.015   8.729  12.086
47928SOL     OW45680  13.172  14.490   1.313
47928SOL    HW145681  13.209  14.408   1.345
47928SOL    HW245682  13.139  14.534   1.391
47929SOL     OW45683   1.510   2.187   2.062
47929SOL    HW145684   1.493   2.277   2.034
47929SOL    HW245685   1.425   2.154   2.090
47930SOL     OW45686  13.065  14.043   3.671
47930SOL    HW145687  13.043  14.069   3.760
47930SOL    HW245688  13.105  14.121   3.632
47931SOL     OW45689   5.941   2.016  12.831
47931SOL    HW145690   5.923   1.926  12.801
47931SOL    HW245691   6.012   2.006  12.894
47932SOL     OW45692   5.005   1.865  12.559
47932SOL    HW145693   5.045   1.831  12.479
47932SOL    HW245694   4.991   1.789  12.614
47933SOL     OW45695   1.860   0.472   8.603
47933SOL    HW145696   1.827   0.410   8.538
47933SOL    HW245697   1.863   0.556   8.557
47934SOL     OW45698   0.673  12.085   9.540
47934SOL    HW145699   0.624  12.135   9.604
47934SOL    HW245700   0.730  12.028   9.592
47935SOL     OW45701   9.874   6.069  12.983
47935SOL    HW145702   9.780   6.054  12.974
47935SOL    HW245703   9.898   6.026  13.066
47936SOL     OW45704  10.215  12.670   5.097
47936SOL    HW145705  10.247  12.603   5.157
47936SOL    HW245706  10.126  12.642   5.075
47937SOL     OW45707  13.192  12.073   5.532
47937SOL    HW145708  13.219  12.162   5.556
47937SOL    HW245709  13.139  12.085   5.453
47938SOL     OW45710  12.936  10.392   9.458
47938SOL    HW145711  13.007  10.447   9.492
47938SOL    HW245712  12.979  10.336   9.393
47939SOL     OW45713   2.790   9.246   9.175
47939SOL    HW145714   2.784   9.337   9.204
47939SOL    HW245715   2.874   9.242   9.128
47940SOL     OW45716   2.365   6.347   7.301
47940SOL    HW145717   2.304   6.311   7.236
47940SOL    HW245718   2.452   6.333   7.264
47941SOL     OW45719  11.301  13.829   3.446
47941SOL    HW145720  11.342  13.915   3.459
47941SOL    HW245721  11.268  13.831   3.356
47942SOL     OW45722  10.683   6.371   7.000
47942SOL    HW145723  10.597   6.329   7.006
47942SOL    HW245724  10.664   6.464   6.999
47943SOL     OW45725   1.681  12.692   2.242
47943SOL    HW145726   1.755  12.644   2.279
47943SOL    HW245727   1.613  12.626   2.230
47944SOL     OW45728  13.226   7.729   1.330
47944SOL    HW145729  13.156   7.748   1.393
47944SOL    HW245730  13.183   7.686   1.257
47945SOL     OW45731  14.244   0.004   9.571
47945SOL    HW145732  14.302  14.816   9.618
47945SOL    HW245733  14.226  14.832   9.488
47946SOL     OW45734   6.305   9.024  14.387
47946SOL    HW145735   6.379   9.006  14.445
47946SOL    HW245736   6.230   8.982  14.430
47947SOL     OW45737   3.031  12.913   6.364
47947SOL    HW145738   2.941  12.887   6.343
47947SOL    HW245739   3.062  12.957   6.284
47948SOL     OW45740   3.310  13.861   9.426
47948SOL    HW145741   3.395  13.817   9.431
47948SOL    HW245742   3.328  13.950   9.455
47949SOL     OW45743   8.863   0.261  12.173
47949SOL    HW145744   8.794   0.309  12.220
47949SOL    HW245745   8.874   0.309  12.091
47950SOL     OW45746   3.617   7.681   9.793
47950SOL    HW145747   3.632   7.770   9.762
47950SOL    HW245748   3.702   7.638   9.786
47951SOL     OW45749   1.018   0.858  12.823
47951SOL    HW145750   0.985   0.797  12.888
47951SOL    HW245751   1.113   0.858  12.837
47952SOL     OW45752   7.465   2.912   4.205
47952SOL    HW145753   7.494   2.866   4.284
47952SOL    HW245754   7.533   2.977   4.188
47953SOL     OW45755   7.702   6.188   8.952
47953SOL    HW145756   7.628   6.172   8.893
47953SOL    HW245757   7.663   6.233   9.027
47954SOL     OW45758  11.193  12.485  10.657
47954SOL    HW145759  11.141  12.559  10.687
47954SOL    HW245760  11.213  12.436  10.736
47955SOL     OW45761   5.916   6.444   0.667
47955SOL    HW145762   5.996   6.460   0.618
47955SOL    HW245763   5.867   6.526   0.660
47956SOL     OW45764   3.599   2.680   4.495
47956SOL    HW145765   3.680   2.716   4.458
47956SOL    HW245766   3.611   2.585   4.490
47957SOL     OW45767   2.741  12.148   7.544
47957SOL    HW145768   2.731  12.236   7.507
47957SOL    HW245769   2.795  12.102   7.481
47958SOL     OW45770  10.055   7.196  10.684
47958SOL    HW145771  10.044   7.177  10.591
47958SOL    HW245772  10.081   7.113  10.723
47959SOL     OW45773  11.455  12.201   7.253
47959SOL    HW145774  11.490  12.124   7.208
47959SOL    HW245775  11.517  12.271   7.234
47960SOL     OW45776  10.683   1.382  11.422
47960SOL    HW145777  10.670   1.301  11.472
47960SOL    HW245778  10.772   1.374  11.387
47961SOL     OW45779   5.022   6.068   3.954
47961SOL    HW145780   4.992   6.138   3.897
47961SOL    HW245781   5.091   6.108   4.007
47962SOL     OW45782   5.607   0.600   0.635
47962SOL    HW145783   5.589   0.561   0.720
47962SOL    HW245784   5.522   0.602   0.591
47963SOL     OW45785   1.004   5.611   0.663
47963SOL    HW145786   1.002   5.681   0.729
47963SOL    HW245787   1.035   5.655   0.583
47964SOL     OW45788  14.621   0.173  12.267
47964SOL    HW145789  14.598   0.134  12.182
47964SOL    HW245790  14.631   0.097  12.326
47965SOL     OW45791   1.188  10.786  13.882
47965SOL    HW145792   1.188  10.822  13.970
47965SOL    HW245793   1.095  10.777  13.860
47966SOL     OW45794  11.964   4.463  14.178
47966SOL    HW145795  11.965   4.425  14.090
47966SOL    HW245796  11.887   4.424  14.220
47967SOL     OW45797   7.554   4.447   9.950
47967SOL    HW145798   7.531   4.505   9.877
47967SOL    HW245799   7.575   4.364   9.908
47968SOL     OW45800   0.033   0.990   8.552
47968SOL    HW145801  14.832   0.962   8.608
47968SOL    HW245802   0.039   1.084   8.566
47969SOL     OW45803   9.115  11.685   7.753
47969SOL    HW145804   9.210  11.692   7.752
47969SOL    HW245805   9.093  11.644   7.670
47970SOL     OW45806  12.597   0.943  12.843
47970SOL    HW145807  12.520   0.887  12.845
47970SOL    HW245808  12.568   1.024  12.885
47971SOL     OW45809   5.489   5.819   0.054
47971SOL    HW145810   5.563   5.789   0.001
47971SOL    HW245811   5.412   5.780   0.011
47972SOL     OW45812   4.663   9.576   4.099
47972SOL    HW145813   4.753   9.610   4.102
47972SOL    HW245814   4.608   9.654   4.105
47973SOL     OW45815   5.774  13.619   7.409
47973SOL    HW145816   5.849  13.571   7.444
47973SOL    HW245817   5.700  13.559   7.419
47974SOL     OW45818   8.704  10.029   7.500
47974SOL    HW145819   8.749  10.050   7.418
47974SOL    HW245820   8.752  10.077   7.567
47975SOL     OW45821  13.451   9.173   4.263
47975SOL    HW145822  13.436   9.080   4.248
47975SOL    HW245823  13.502   9.202   4.188
47976SOL     OW45824   9.018   9.631  10.272
47976SOL    HW145825   9.090   9.587  10.317
47976SOL    HW245826   8.953   9.647  10.340
47977SOL     OW45827   8.517   0.756   7.982
47977SOL    HW145828   8.530   0.680   8.039
47977SOL    HW245829   8.472   0.721   7.906
47978SOL     OW45830   8.977  14.833   8.717
47978SOL    HW145831   9.005   0.053   8.724
47978SOL    HW245832   8.965  14.818   8.623
47979SOL     OW45833  10.618   2.675   4.135
47979SOL    HW145834  10.655   2.720   4.211
47979SOL    HW245835  10.654   2.586   4.140
47980SOL     OW45836  13.837   9.696  13.027
47980SOL    HW145837  13.918   9.668  13.070
47980SOL    HW245838  13.798   9.614  12.995
47981SOL     OW45839  14.242  11.719   0.417
47981SOL    HW145840  14.187  11.773   0.361
47981SOL    HW245841  14.182  11.654   0.454
47982SOL     OW45842  10.331   1.446   4.168
47982SOL    HW145843  10.355   1.356   4.144
47982SOL    HW245844  10.259   1.467   4.109
47983SOL     OW45845   0.877   3.290  13.941
47983SOL    HW145846   0.887   3.258  13.852
47983SOL    HW245847   0.945   3.245  13.991
47984SOL     OW45848  10.607   0.715   6.414
47984SOL    HW145849  10.647   0.629   6.412
47984SOL    HW245850  10.596   0.734   6.508
47985SOL     OW45851   7.769  11.818  10.862
47985SOL    HW145852   7.733  11.898  10.823
47985SOL    HW245853   7.789  11.762  10.786
47986SOL     OW45854  11.597   2.048   4.490
47986SOL    HW145855  11.608   2.037   4.395
47986SOL    HW245856  11.557   1.967   4.519
47987SOL     OW45857   4.908   3.608   2.244
47987SOL    HW145858   4.943   3.697   2.238
47987SOL    HW245859   4.885   3.597   2.336
47988SOL     OW45860   2.194  11.979   1.139
47988SOL    HW145861   2.198  11.893   1.181
47988SOL    HW245862   2.101  11.999   1.134
47989SOL     OW45863   5.977   5.596   3.132
47989SOL    HW145864   6.042   5.561   3.192
47989SOL    HW245865   6.011   5.682   3.107
47990SOL     OW45866  14.510  13.180   8.495
47990SOL    HW145867  14.566  13.221   8.561
47990SOL    HW245868  14.553  13.200   8.411
47991SOL     OW45869   4.018  11.542   9.686
47991SOL    HW145870   4.040  11.474   9.749
47991SOL    HW245871   4.056  11.622   9.722
47992SOL     OW45872   8.035   5.778   5.171
47992SOL    HW145873   7.980   5.744   5.100
47992SOL    HW245874   8.004   5.868   5.184
47993SOL     OW45875   2.499   8.514  14.830
47993SOL    HW145876   2.471   8.562  14.752
47993SOL    HW245877   2.427   8.454  14.848
47994SOL     OW45878   3.014   6.666   8.972
47994SOL    HW145879   2.952   6.600   9.004
47994SOL    HW245880   2.982   6.748   9.009
47995SOL     OW45881   7.532   2.561   5.184
47995SOL    HW145882   7.467   2.507   5.229
47995SOL    HW245883   7.590   2.497   5.142
47996SOL     OW45884  13.609   7.822   7.398
47996SOL    HW145885  13.628   7.839   7.306
47996SOL    HW245886  13.572   7.904   7.431
47997SOL     OW45887  14.637   2.588   8.891
47997SOL    HW145888  14.629   2.546   8.976
47997SOL    HW245889  14.722   2.632   8.894
47998SOL     OW45890   7.801   8.745   2.871
47998SOL    HW145891   7.736   8.687   2.910
47998SOL    HW245892   7.836   8.696   2.796
47999SOL     OW45893  13.245  14.606   1.575
47999SOL    HW145894  13.253  14.655   1.657
47999SOL    HW245895  13.297  14.527   1.589
48000SOL     OW45896  10.688   4.347   5.634
48000SOL    HW145897  10.607   4.383   5.671
48000SOL    HW245898  10.724   4.419   5.582
48001SOL     OW45899   0.152   3.474   8.746
48001SOL    HW145900   0.221   3.538   8.729
48001SOL    HW245901   0.081   3.524   8.786
48002SOL     OW45902  12.518   5.432  13.072
48002SOL    HW145903  12.579   5.465  13.138
48002SOL    HW245904  12.534   5.486  12.995
48003SOL     OW45905   7.788   0.439  10.669
48003SOL    HW145906   7.750   0.375  10.609
48003SOL    HW245907   7.882   0.426  10.661
48004SOL     OW45908  10.526   9.864   5.333
48004SOL    HW145909  10.516   9.801   5.261
48004SOL    HW245910  10.532   9.810   5.412
48005SOL     OW45911   7.065  12.749  11.681
48005SOL    HW145912   7.063  12.735  11.586
48005SOL    HW245913   7.021  12.671  11.717
48006SOL     OW45914  11.892   9.728   0.753
48006SOL    HW145915  11.984   9.750   0.738
48006SOL    HW245916  11.865   9.787   0.824
48007SOL     OW45917  11.111   9.856   2.387
48007SOL    HW145918  11.047   9.859   2.316
48007SOL    HW245919  11.101   9.768   2.425
48008SOL     OW45920   4.426   7.218   2.888
48008SOL    HW145921   4.519   7.239   2.879
48008SOL    HW245922   4.417   7.190   2.979
48009SOL     OW45923   5.008   2.795  10.894
48009SOL    HW145924   4.975   2.880  10.863
48009SOL    HW245925   4.944   2.732  10.862
48010SOL     OW45926   2.201  12.598  12.673
48010SOL    HW145927   2.264  12.668  12.656
48010SOL    HW245928   2.150  12.630  12.747
48011SOL     OW45929   6.018   4.161   5.671
48011SOL    HW145930   6.005   4.067   5.668
48011SOL    HW245931   6.027   4.181   5.764
48012SOL     OW45932   2.886   3.047   6.713
48012SOL    HW145933   2.847   3.116   6.658
48012SOL    HW245934   2.963   3.019   6.664
48013SOL     OW45935  10.552   2.813   4.778
48013SOL    HW145936  10.577   2.900   4.747
48013SOL    HW245937  10.553   2.820   4.874
48014SOL     OW45938   0.766  12.817   2.878
48014SOL    HW145939   0.676  12.847   2.867
48014SOL    HW245940   0.796  12.798   2.788
48015SOL     OW45941   8.096  12.250   3.004
48015SOL    HW145942   8.041  12.326   2.983
48015SOL    HW245943   8.035  12.182   3.031
48016SOL     OW45944   1.496   0.534   0.241
48016SOL    HW145945   1.409   0.518   0.203
48016SOL    HW245946   1.544   0.453   0.226
48017SOL     OW45947   1.736   6.503   3.414
48017SOL    HW145948   1.782   6.427   3.380
48017SOL    HW245949   1.779   6.578   3.374
48018SOL     OW45950  11.291   0.116   0.207
48018SOL    HW145951  11.280   0.205   0.240
48018SOL    HW245952  11.291   0.061   0.285
48019SOL     OW45953   9.639   8.459   5.869
48019SOL    HW145954   9.548   8.434   5.883
48019SOL    HW245955   9.635   8.530   5.805
48020SOL     OW45956   8.031  13.835  13.665
48020SOL    HW145957   7.955  13.814  13.719
48020SOL    HW245958   8.045  13.758  13.611
48021SOL     OW45959   9.687   8.024   7.584
48021SOL    HW145960   9.703   8.110   7.623
48021SOL    HW245961   9.687   7.964   7.659
48022SOL     OW45962  13.995   9.720   9.054
48022SOL    HW145963  13.961   9.658   9.118
48022SOL    HW245964  14.090   9.704   9.054
48023SOL     OW45965   9.956   5.243   6.064
48023SOL    HW145966  10.022   5.303   6.030
48023SOL    HW245967   9.950   5.174   5.997
48024SOL     OW45968   3.684   3.038  11.838
48024SOL    HW145969   3.674   2.946  11.817
48024SOL    HW245970   3.604   3.062  11.883
48025SOL     OW45971   9.454  12.837   0.852
48025SOL    HW145972   9.517  12.784   0.901
48025SOL    HW245973   9.483  12.830   0.760
48026SOL     OW45974   5.185   5.336   5.057
48026SOL    HW145975   5.278   5.334   5.079
48026SOL    HW245976   5.158   5.244   5.056
48027SOL     OW45977  10.631  13.633  11.522
48027SOL    HW145978  10.713  13.682  11.530
48027SOL    HW245979  10.581  13.657  11.600
48028SOL     OW45980  14.670   7.571   0.944
48028SOL    HW145981  14.699   7.660   0.964
48028SOL    HW245982  14.652   7.532   1.029
48029SOL     OW45983  11.770   6.958   0.651
48029SOL    HW145984  11.815   7.016   0.590
48029SOL    HW245985  11.679   6.987   0.651
48030SOL     OW45986   1.167   7.033   2.535
48030SOL    HW145987   1.230   7.105   2.525
48030SOL    HW245988   1.221   6.954   2.535
48031SOL     OW45989  14.078   9.623   1.247
48031SOL    HW145990  14.009   9.576   1.294
48031SOL    HW245991  14.143   9.644   1.315
48032SOL     OW45992   3.756   1.353  11.366
48032SOL    HW145993   3.830   1.413  11.359
48032SOL    HW245994   3.760   1.322  11.457
48033SOL     OW45995  13.165  12.544   3.897
48033SOL    HW145996  13.259  12.532   3.885
48033SOL    HW245997  13.149  12.634   3.868
48034SOL     OW45998   9.886  11.208  11.032
48034SOL    HW145999   9.808  11.261  11.014
48034SOL    HW246000   9.927  11.252  11.107
48035SOL     OW46001  11.256  10.496  10.287
48035SOL    HW146002  11.335  10.486  10.235
48035SOL    HW246003  11.282  10.468  10.375
48036SOL     OW46004  14.797   5.984  14.857
48036SOL    HW146005  14.742   6.042  14.804
48036SOL    HW246006  14.810   5.906  14.802
48037SOL     OW46007  11.252  10.589   9.024
48037SOL    HW146008  11.293  10.562   8.942
48037SOL    HW246009  11.176  10.532   9.033
48038SOL     OW46010   1.514  10.974  10.103
48038SOL    HW146011   1.544  10.932  10.184
48038SOL    HW246012   1.452  10.912  10.065
48039SOL     OW46013  10.297   2.683  10.978
48039SOL    HW146014  10.255   2.743  11.039
48039SOL    HW246015  10.231   2.663  10.912
48040SOL     OW46016   4.680  12.661   4.607
48040SOL    HW146017   4.655  12.642   4.697
48040SOL    HW246018   4.743  12.593   4.584
48041SOL     OW46019   1.095   2.939   2.454
48041SOL    HW146020   1.045   2.884   2.394
48041SOL    HW246021   1.178   2.893   2.465
48042SOL     OW46022   0.605   7.055   5.899
48042SOL    HW146023   0.631   7.116   5.968
48042SOL    HW246024   0.671   7.065   5.831
48043SOL     OW46025  12.542   6.346   7.872
48043SOL    HW146026  12.613   6.282   7.867
48043SOL    HW246027  12.524   6.368   7.780
48044SOL     OW46028   8.083   9.831   4.455
48044SOL    HW146029   8.161   9.811   4.507
48044SOL    HW246030   8.015   9.849   4.520
48045SOL     OW46031   0.282   4.246   3.060
48045SOL    HW146032   0.335   4.202   2.994
48045SOL    HW246033   0.242   4.320   3.014
48046SOL     OW46034   0.902   0.437   0.850
48046SOL    HW146035   0.937   0.357   0.811
48046SOL    HW246036   0.813   0.444   0.815
48047SOL     OW46037   0.065   5.265   0.725
48047SOL    HW146038   0.135   5.311   0.679
48047SOL    HW246039   0.110   5.211   0.790
48048SOL     OW46040   8.405   9.150  11.554
48048SOL    HW146041   8.376   9.060  11.572
48048SOL    HW246042   8.500   9.143  11.547
48049SOL     OW46043   4.647   3.032   7.772
48049SOL    HW146044   4.625   2.972   7.702
48049SOL    HW246045   4.646   3.119   7.731
48050SOL     OW46046   8.394  13.900   2.062
48050SOL    HW146047   8.376  13.932   1.974
48050SOL    HW246048   8.487  13.877   2.061
48051SOL     OW46049   7.562   7.153  13.161
48051SOL    HW146050   7.519   7.083  13.112
48051SOL    HW246051   7.624   7.191  13.099
48052SOL     OW46052   5.977   0.173   7.748
48052SOL    HW146053   5.900   0.165   7.693
48052SOL    HW246054   6.012   0.083   7.753
48053SOL     OW46055   6.448   1.500   9.950
48053SOL    HW146056   6.357   1.496   9.920
48053SOL    HW246057   6.495   1.440   9.893
48054SOL     OW46058   3.619   4.337   5.887
48054SOL    HW146059   3.714   4.326   5.894
48054SOL    HW246060   3.604   4.428   5.912
48055SOL     OW46061  14.385   2.674  14.479
48055SOL    HW146062  14.454   2.640  14.422
48055SOL    HW246063  14.359   2.599  14.533
48056SOL     OW46064  10.946   0.285   2.534
48056SOL    HW146065  10.909   0.197   2.526
48056SOL    HW246066  10.925   0.312   2.623
48057SOL     OW46067  14.082   1.987  10.024
48057SOL    HW146068  14.158   1.983   9.966
48057SOL    HW246069  14.052   2.077  10.019
48058SOL     OW46070   3.130   9.524   9.805
48058SOL    HW146071   3.123   9.439   9.849
48058SOL    HW246072   3.061   9.523   9.739
48059SOL     OW46073   3.650   5.595   4.330
48059SOL    HW146074   3.735   5.576   4.289
48059SOL    HW246075   3.594   5.522   4.306
48060SOL     OW46076   6.558   7.698   8.645
48060SOL    HW146077   6.619   7.745   8.702
48060SOL    HW246078   6.574   7.736   8.558
48061SOL     OW46079   8.369  10.946   7.608
48061SOL    HW146080   8.439  10.897   7.651
48061SOL    HW246081   8.299  10.882   7.595
48062SOL     OW46082   7.634   1.789  11.332
48062SOL    HW146083   7.544   1.757  11.342
48062SOL    HW246084   7.647   1.795  11.238
48063SOL     OW46085   4.007   6.784  13.260
48063SOL    HW146086   3.948   6.841  13.308
48063SOL    HW246087   4.072   6.844  13.221
48064SOL     OW46088  10.084   9.449   2.145
48064SOL    HW146089  10.151   9.393   2.107
48064SOL    HW246090  10.009   9.390   2.159
48065SOL     OW46091   7.663  11.694   7.258
48065SOL    HW146092   7.727  11.742   7.206
48065SOL    HW246093   7.584  11.747   7.254
48066SOL     OW46094   1.927  10.391  14.401
48066SOL    HW146095   1.963  10.311  14.363
48066SOL    HW246096   1.856  10.417  14.343
48067SOL     OW46097   2.090  14.811  12.886
48067SOL    HW146098   2.031  14.845  12.953
48067SOL    HW246099   2.067  14.718  12.879
48068SOL     OW46100   7.816  13.056   6.082
48068SOL    HW146101   7.747  13.047   6.016
48068SOL    HW246102   7.817  12.971   6.127
48069SOL     OW46103   9.622   5.743   4.673
48069SOL    HW146104   9.616   5.825   4.624
48069SOL    HW246105   9.676   5.686   4.617
48070SOL     OW46106   2.159   4.488   7.955
48070SOL    HW146107   2.111   4.418   7.999
48070SOL    HW246108   2.098   4.522   7.891
48071SOL     OW46109   9.249   2.579   3.555
48071SOL    HW146110   9.233   2.656   3.501
48071SOL    HW246111   9.250   2.506   3.493
48072SOL     OW46112   2.492  10.198  13.891
48072SOL    HW146113   2.459  10.151  13.967
48072SOL    HW246114   2.523  10.130  13.832
48073SOL     OW46115   1.051   0.752   9.530
48073SOL    HW146116   1.105   0.675   9.512
48073SOL    HW246117   0.963   0.717   9.543
48074SOL     OW46118  12.907  11.247  12.458
48074SOL    HW146119  12.856  11.314  12.503
48074SOL    HW246120  12.877  11.251  12.367
48075SOL     OW46121   3.491   8.644   8.208
48075SOL    HW146122   3.497   8.590   8.130
48075SOL    HW246123   3.579   8.644   8.245
48076SOL     OW46124   4.283   6.040  10.760
48076SOL    HW146125   4.354   5.980  10.738
48076SOL    HW246126   4.285   6.107  10.691
48077SOL     OW46127   6.122  11.497  13.504
48077SOL    HW146128   6.171  11.441  13.443
48077SOL    HW246129   6.150  11.467  13.590
48078SOL     OW46130   8.785   8.466   3.972
48078SOL    HW146131   8.816   8.436   4.058
48078SOL    HW246132   8.862   8.504   3.931
48079SOL     OW46133   0.571   8.336  12.200
48079SOL    HW146134   0.598   8.244  12.204
48079SOL    HW246135   0.643   8.384  12.239
48080SOL     OW46136   3.618   3.109  12.711
48080SOL    HW146137   3.586   3.161  12.637
48080SOL    HW246138   3.539   3.084  12.758
48081SOL     OW46139   3.067   4.973  12.506
48081SOL    HW146140   3.118   5.006  12.580
48081SOL    HW246141   3.104   4.887  12.487
48082SOL     OW46142  10.552   5.241   9.038
48082SOL    HW146143  10.644   5.256   9.017
48082SOL    HW246144  10.534   5.153   9.004
48083SOL     OW46145  12.642   5.195   9.965
48083SOL    HW146146  12.644   5.274  10.018
48083SOL    HW246147  12.559   5.153   9.988
48084SOL     OW46148   6.833   3.155   7.829
48084SOL    HW146149   6.791   3.241   7.834
48084SOL    HW246150   6.860   3.136   7.919
48085SOL     OW46151   1.721  10.140  12.205
48085SOL    HW146152   1.753  10.208  12.146
48085SOL    HW246153   1.647  10.179  12.250
48086SOL     OW46154   4.277   7.445   7.108
48086SOL    HW146155   4.329   7.460   7.029
48086SOL    HW246156   4.342   7.426   7.176
48087SOL     OW46157  10.221   5.881  10.282
48087SOL    HW146158  10.287   5.940  10.317
48087SOL    HW246159  10.263   5.840  10.206
48088SOL     OW46160   1.785  12.076   2.594
48088SOL    HW146161   1.731  12.134   2.648
48088SOL    HW246162   1.873  12.113   2.601
48089SOL     OW46163   8.063  12.566  13.844
48089SOL    HW146164   8.118  12.629  13.798
48089SOL    HW246165   8.125  12.502  13.879
48090SOL     OW46166   7.147   8.888  11.895
48090SOL    HW146167   7.235   8.920  11.876
48090SOL    HW246168   7.152   8.793  11.881
48091SOL     OW46169   0.498  10.124   7.848
48091SOL    HW146170   0.514  10.217   7.830
48091SOL    HW246171   0.561  10.101   7.916
48092SOL     OW46172   3.675   4.239   5.178
48092SOL    HW146173   3.743   4.291   5.135
48092SOL    HW246174   3.593   4.283   5.155
48093SOL     OW46175  11.918   5.756   0.902
48093SOL    HW146176  11.936   5.850   0.901
48093SOL    HW246177  11.894   5.736   0.993
48094SOL     OW46178   1.551   9.666  13.345
48094SOL    HW146179   1.524   9.594  13.288
48094SOL    HW246180   1.601   9.625  13.415
48095SOL     OW46181  14.080  13.397   5.127
48095SOL    HW146182  14.076  13.378   5.033
48095SOL    HW246183  14.110  13.315   5.167
48096SOL     OW46184   2.016   5.109   1.321
48096SOL    HW146185   1.965   5.068   1.252
48096SOL    HW246186   1.994   5.202   1.316
48097SOL     OW46187   5.401   8.730  13.276
48097SOL    HW146188   5.311   8.757  13.259
48097SOL    HW246189   5.396   8.634  13.282
48098SOL     OW46190  12.555  12.228   6.528
48098SOL    HW146191  12.460  12.223   6.527
48098SOL    HW246192  12.575  12.312   6.486
48099SOL     OW46193   2.404   7.136   1.658
48099SOL    HW146194   2.313   7.160   1.638
48099SOL    HW246195   2.442   7.216   1.695
48100SOL     OW46196  13.207  12.533   9.527
48100SOL    HW146197  13.134  12.575   9.572
48100SOL    HW246198  13.186  12.439   9.530
48101SOL     OW46199   9.142   2.596   8.333
48101SOL    HW146200   9.154   2.516   8.282
48101SOL    HW246201   9.192   2.582   8.413
48102SOL     OW46202   7.344  13.883   4.565
48102SOL    HW146203   7.274  13.880   4.500
48102SOL    HW246204   7.321  13.815   4.628
48103SOL     OW46205  12.777   6.618   8.462
48103SOL    HW146206  12.716   6.692   8.454
48103SOL    HW246207  12.800   6.617   8.555
48104SOL     OW46208   2.528   1.890   2.250
48104SOL    HW146209   2.503   1.983   2.256
48104SOL    HW246210   2.504   1.866   2.160
48105SOL     OW46211   3.931   5.614   1.886
48105SOL    HW146212   3.977   5.653   1.960
48105SOL    HW246213   3.906   5.527   1.916
48106SOL     OW46214   3.610   4.593   5.985
48106SOL    HW146215   3.573   4.604   6.073
48106SOL    HW246216   3.703   4.612   5.996
48107SOL     OW46217  14.868   7.698   1.990
48107SOL    HW146218  14.772   7.691   1.984
48107SOL    HW246219   0.016   7.785   1.956
48108SOL     OW46220  12.541   0.602  11.012
48108SOL    HW146221  12.595   0.525  11.026
48108SOL    HW246222  12.590   0.673  11.053
48109SOL     OW46223   0.031  12.810   2.855
48109SOL    HW146224   0.084  12.849   2.786
48109SOL    HW246225  14.833  12.874   2.871
48110SOL     OW46226  11.081   0.394  14.373
48110SOL    HW146227  11.048   0.349  14.295
48110SOL    HW246228  11.085   0.326  14.440
48111SOL     OW46229   9.599   7.288   9.150
48111SOL    HW146230   9.623   7.307   9.241
48111SOL    HW246231   9.677   7.309   9.100
48112SOL     OW46232   4.473   4.455  12.176
48112SOL    HW146233   4.423   4.536  12.167
48112SOL    HW246234   4.410   4.392  12.211
48113SOL     OW46235  13.933  11.390  10.077
48113SOL    HW146236  13.982  11.346  10.146
48113SOL    HW246237  13.976  11.474  10.066
48114SOL     OW46238   5.605   8.857   5.209
48114SOL    HW146239   5.536   8.922   5.216
48114SOL    HW246240   5.620   8.828   5.299
48115SOL     OW46241   3.891  13.991   2.010
48115SOL    HW146242   3.921  13.981   1.920
48115SOL    HW246243   3.911  13.907   2.052
48116SOL     OW46244  13.731   3.581   6.183
48116SOL    HW146245  13.742   3.529   6.103
48116SOL    HW246246  13.697   3.519   6.247
48117SOL     OW46247   5.431   6.720   5.911
48117SOL    HW146248   5.387   6.786   5.858
48117SOL    HW246249   5.516   6.708   5.869
48118SOL     OW46250  13.532   7.471  13.363
48118SOL    HW146251  13.602   7.453  13.299
48118SOL    HW246252  13.471   7.398  13.352
48119SOL     OW46253   4.409  14.607   3.134
48119SOL    HW146254   4.474  14.552   3.178
48119SOL    HW246255   4.361  14.650   3.205
48120SOL     OW46256   2.117  10.193   0.050
48120SOL    HW146257   2.109  10.101   0.075
48120SOL    HW246258   2.210  10.204   0.029
48121SOL     OW46259  10.735  12.184   8.955
48121SOL    HW146260  10.694  12.264   8.989
48121SOL    HW246261  10.677  12.113   8.985
48122SOL     OW46262   6.111  13.383   8.902
48122SOL    HW146263   6.117  13.468   8.946
48122SOL    HW246264   6.183  13.332   8.940
48123SOL     OW46265   5.946   4.773  12.591
48123SOL    HW146266   5.887   4.844  12.566
48123SOL    HW246267   5.931   4.761  12.684
48124SOL     OW46268  11.959   6.185   1.302
48124SOL    HW146269  11.948   6.256   1.365
48124SOL    HW246270  11.964   6.229   1.217
48125SOL     OW46271   9.094   4.335  12.207
48125SOL    HW146272   9.111   4.378  12.123
48125SOL    HW246273   9.144   4.253  12.201
48126SOL     OW46274  14.817  10.045   5.514
48126SOL    HW146275   0.019  10.063   5.456
48126SOL    HW246276  14.760  10.121   5.504
48127SOL     OW46277  12.223   7.535  10.219
48127SOL    HW146278  12.152   7.550  10.157
48127SOL    HW246279  12.290   7.490  10.167
48128SOL     OW46280   9.764   6.508   7.458
48128SOL    HW146281   9.728   6.514   7.369
48128SOL    HW246282   9.857   6.491   7.445
48129SOL     OW46283   7.682   1.230   3.282
48129SOL    HW146284   7.649   1.141   3.286
48129SOL    HW246285   7.752   1.232   3.348
48130SOL     OW46286   5.063   4.762   7.025
48130SOL    HW146287   4.991   4.703   7.045
48130SOL    HW246288   5.141   4.707   7.029
48131SOL     OW46289  10.458  13.007  11.288
48131SOL    HW146290  10.429  13.027  11.377
48131SOL    HW246291  10.505  13.085  11.259
48132SOL     OW46292   7.356  10.634   7.798
48132SOL    HW146293   7.430  10.690   7.778
48132SOL    HW246294   7.304  10.684   7.861
48133SOL     OW46295   7.516   9.312  11.223
48133SOL    HW146296   7.493   9.351  11.138
48133SOL    HW246297   7.533   9.387  11.280
48134SOL     OW46298   0.629   1.737   5.086
48134SOL    HW146299   0.675   1.768   5.008
48134SOL    HW246300   0.666   1.650   5.102
48135SOL     OW46301   1.540   4.674   0.235
48135SOL    HW146302   1.563   4.605   0.298
48135SOL    HW246303   1.548   4.755   0.285
48136SOL     OW46304  10.953   4.387   7.298
48136SOL    HW146305  10.887   4.417   7.361
48136SOL    HW246306  10.911   4.401   7.213
48137SOL     OW46307   5.901   2.742   1.496
48137SOL    HW146308   5.881   2.802   1.569
48137SOL    HW246309   5.993   2.759   1.476
48138SOL     OW46310   1.936  11.059  10.025
48138SOL    HW146311   1.850  11.097  10.004
48138SOL    HW246312   1.948  11.078  10.118
48139SOL     OW46313   6.128   6.996  11.088
48139SOL    HW146314   6.052   6.938  11.087
48139SOL    HW246315   6.117   7.053  11.013
48140SOL     OW46316  11.159   9.872   4.089
48140SOL    HW146317  11.209   9.887   4.009
48140SOL    HW246318  11.113   9.789   4.073
48141SOL     OW46319   9.391   3.391  14.464
48141SOL    HW146320   9.429   3.476  14.444
48141SOL    HW246321   9.362   3.398  14.555
48142SOL     OW46322  14.448   8.921   1.988
48142SOL    HW146323  14.379   8.947   1.927
48142SOL    HW246324  14.471   8.831   1.961
48143SOL     OW46325   7.237   2.859   1.553
48143SOL    HW146326   7.286   2.913   1.491
48143SOL    HW246327   7.243   2.907   1.636
48144SOL     OW46328   3.017  10.186   8.731
48144SOL    HW146329   2.928  10.205   8.700
48144SOL    HW246330   3.005  10.155   8.821
48145SOL     OW46331   3.918   0.751   0.345
48145SOL    HW146332   3.977   0.679   0.322
48145SOL    HW246333   3.873   0.772   0.263
48146SOL     OW46334  13.243   7.551   7.389
48146SOL    HW146335  13.195   7.582   7.312
48146SOL    HW246336  13.187   7.484   7.428
48147SOL     OW46337   1.448   7.832   7.233
48147SOL    HW146338   1.418   7.745   7.206
48147SOL    HW246339   1.370   7.873   7.272
48148SOL     OW46340   2.961   5.941   3.404
48148SOL    HW146341   2.936   5.995   3.479
48148SOL    HW246342   2.975   5.854   3.441
48149SOL     OW46343   8.707   7.502  10.897
48149SOL    HW146344   8.613   7.497  10.915
48149SOL    HW246345   8.713   7.546  10.813
48150SOL     OW46346   9.441  10.176   6.787
48150SOL    HW146347   9.433  10.083   6.809
48150SOL    HW246348   9.534  10.195   6.799
48151SOL     OW46349   3.503  14.543   1.745
48151SOL    HW146350   3.561  14.479   1.788
48151SOL    HW246351   3.502  14.617   1.806
48152SOL     OW46352  10.906   9.776  14.785
48152SOL    HW146353  10.860   9.722  14.849
48152SOL    HW246354  10.988   9.799  14.829
48153SOL     OW46355  12.157   9.809   0.759
48153SOL    HW146356  12.197   9.813   0.846
48153SOL    HW246357  12.224   9.844   0.700
48154SOL     OW46358  11.251   2.912  12.362
48154SOL    HW146359  11.216   2.911  12.273
48154SOL    HW246360  11.245   3.003  12.389
48155SOL     OW46361  14.027   7.168   7.126
48155SOL    HW146362  13.937   7.140   7.110
48155SOL    HW246363  14.029   7.189   7.219
48156SOL     OW46364  10.060   8.454   7.422
48156SOL    HW146365  10.102   8.384   7.472
48156SOL    HW246366  10.077   8.432   7.331
48157SOL     OW46367   8.366   0.543   4.068
48157SOL    HW146368   8.438   0.513   4.123
48157SOL    HW246369   8.401   0.539   3.978
48158SOL     OW46370   8.608  13.333   8.951
48158SOL    HW146371   8.617  13.287   9.034
48158SOL    HW246372   8.666  13.409   8.959
48159SOL     OW46373   8.635   3.101   4.787
48159SOL    HW146374   8.560   3.162   4.788
48159SOL    HW246375   8.696   3.139   4.724
48160SOL     OW46376  12.652   6.088   1.610
48160SOL    HW146377  12.659   6.182   1.623
48160SOL    HW246378  12.735   6.063   1.571
48161SOL     OW46379  13.082  13.045   5.412
48161SOL    HW146380  13.177  13.030   5.412
48161SOL    HW246381  13.073  13.141   5.405
48162SOL     OW46382  13.076   6.213  14.731
48162SOL    HW146383  13.073   6.245  14.821
48162SOL    HW246384  13.073   6.292  14.677
48163SOL     OW46385   9.218  12.633  12.618
48163SOL    HW146386   9.212  12.573  12.693
48163SOL    HW246387   9.311  12.636  12.597
48164SOL     OW46388   8.944  14.599   8.863
48164SOL    HW146389   8.938  14.668   8.797
48164SOL    HW246390   8.966  14.645   8.944
48165SOL     OW46391   0.764   0.402  14.034
48165SOL    HW146392   0.722   0.467  14.091
48165SOL    HW246393   0.733   0.423  13.946
48166SOL     OW46394   3.332   2.645  11.711
48166SOL    HW146395   3.321   2.702  11.635
48166SOL    HW246396   3.316   2.702  11.786
48167SOL     OW46397  13.315  11.119   0.361
48167SOL    HW146398  13.241  11.165   0.323
48167SOL    HW246399  13.276  11.048   0.412
48168SOL     OW46400   1.606   1.310   0.141
48168SOL    HW146401   1.623   1.399   0.111
48168SOL    HW246402   1.525   1.284   0.097
48169SOL     OW46403   1.626   6.435   5.334
48169SOL    HW146404   1.685   6.505   5.361
48169SOL    HW246405   1.548   6.481   5.303
48170SOL     OW46406   1.278   1.522   4.517
48170SOL    HW146407   1.346   1.588   4.504
48170SOL    HW246408   1.201   1.557   4.470
48171SOL     OW46409  10.285   7.245   1.492
48171SOL    HW146410  10.339   7.237   1.571
48171SOL    HW246411  10.309   7.330   1.455
48172SOL     OW46412  13.117  11.263   4.636
48172SOL    HW146413  13.042  11.219   4.596
48172SOL    HW246414  13.147  11.325   4.570
48173SOL     OW46415  13.802   8.049   4.916
48173SOL    HW146416  13.878   7.991   4.906
48173SOL    HW246417  13.823   8.124   4.859
48174SOL     OW46418   9.433  14.545  11.695
48174SOL    HW146419   9.482  14.595  11.629
48174SOL    HW246420   9.377  14.609  11.738
48175SOL     OW46421   0.637  11.606   7.502
48175SOL    HW146422   0.645  11.694   7.539
48175SOL    HW246423   0.564  11.613   7.440
48176SOL     OW46424   1.729   8.643   8.460
48176SOL    HW146425   1.815   8.628   8.422
48176SOL    HW246426   1.730   8.735   8.486
48177SOL     OW46427   0.485   6.147   0.950
48177SOL    HW146428   0.451   6.231   0.921
48177SOL    HW246429   0.417   6.112   1.008
48178SOL     OW46430   8.832   0.144   0.871
48178SOL    HW146431   8.913   0.144   0.922
48178SOL    HW246432   8.857   0.107   0.786
48179SOL     OW46433   2.012   8.717   5.829
48179SOL    HW146434   2.090   8.720   5.773
48179SOL    HW246435   1.992   8.624   5.838
48180SOL     OW46436   2.630   8.338   4.955
48180SOL    HW146437   2.703   8.276   4.962
48180SOL    HW246438   2.598   8.346   5.045
48181SOL     OW46439   3.613   6.256  13.331
48181SOL    HW146440   3.591   6.236  13.240
48181SOL    HW246441   3.663   6.181  13.361
48182SOL     OW46442   3.847   2.524  14.616
48182SOL    HW146443   3.916   2.565  14.565
48182SOL    HW246444   3.861   2.556  14.705
48183SOL     OW46445   0.573   2.185   0.964
48183SOL    HW146446   0.563   2.092   0.945
48183SOL    HW246447   0.625   2.187   1.045
48184SOL     OW46448   3.208   4.018   9.060
48184SOL    HW146449   3.150   4.041   8.987
48184SOL    HW246450   3.280   3.971   9.019
48185SOL     OW46451  11.245   8.653   3.140
48185SOL    HW146452  11.220   8.588   3.206
48185SOL    HW246453  11.243   8.736   3.186
48186SOL     OW46454   9.498   1.129   4.383
48186SOL    HW146455   9.574   1.167   4.426
48186SOL    HW246456   9.459   1.072   4.450
48187SOL     OW46457  11.617  13.977   4.461
48187SOL    HW146458  11.666  13.909   4.507
48187SOL    HW246459  11.533  13.981   4.505
48188SOL     OW46460   2.193   8.304   3.092
48188SOL    HW146461   2.233   8.365   3.154
48188SOL    HW246462   2.189   8.221   3.140
48189SOL     OW46463   4.302   4.730   4.079
48189SOL    HW146464   4.296   4.648   4.127
48189SOL    HW246465   4.230   4.727   4.016
48190SOL     OW46466  13.867   9.210   1.847
48190SOL    HW146467  13.825   9.203   1.932
48190SOL    HW246468  13.890   9.120   1.823
48191SOL     OW46469   5.502  12.976  11.625
48191SOL    HW146470   5.470  12.896  11.668
48191SOL    HW246471   5.434  12.997  11.561
48192SOL     OW46472   1.502  13.011  12.213
48192SOL    HW146473   1.571  12.948  12.194
48192SOL    HW246474   1.548  13.090  12.243
48193SOL     OW46475  10.620   5.914   0.162
48193SOL    HW146476  10.588   5.827   0.188
48193SOL    HW246477  10.676   5.896   0.086
48194SOL     OW46478   3.322   1.090  13.298
48194SOL    HW146479   3.276   1.075  13.380
48194SOL    HW246480   3.394   1.026  13.299
48195SOL     OW46481   3.162   9.784   1.606
48195SOL    HW146482   3.114   9.848   1.658
48195SOL    HW246483   3.140   9.699   1.646
48196SOL     OW46484   0.021   6.129   6.238
48196SOL    HW146485  14.807   6.167   6.256
48196SOL    HW246486   0.003   6.037   6.219
48197SOL     OW46487  14.857  12.154  13.237
48197SOL    HW146488  14.840  12.140  13.143
48197SOL    HW246489   0.076  12.126  13.249
48198SOL     OW46490   7.225  10.709   1.655
48198SOL    HW146491   7.266  10.649   1.594
48198SOL    HW246492   7.295  10.734   1.716
48199SOL     OW46493   2.511   5.476   5.160
48199SOL    HW146494   2.543   5.457   5.248
48199SOL    HW246495   2.588   5.513   5.115
48200SOL     OW46496  14.638   9.906   1.449
48200SOL    HW146497  14.654   9.935   1.359
48200SOL    HW246498  14.597   9.820   1.439
48201SOL     OW46499  10.560  11.897  13.532
48201SOL    HW146500  10.519  11.813  13.511
48201SOL    HW246501  10.552  11.949  13.452
48202SOL     OW46502   5.766   0.018   1.268
48202SOL    HW146503   5.778   0.113   1.270
48202SOL    HW246504   5.785  14.861   1.357
48203SOL     OW46505  11.935   9.020   4.255
48203SOL    HW146506  11.987   8.953   4.210
48203SOL    HW246507  11.955   9.008   4.348
48204SOL     OW46508  11.110   2.932  14.531
48204SOL    HW146509  11.064   2.886  14.461
48204SOL    HW246510  11.179   2.871  14.558
48205SOL     OW46511   7.950  11.778   2.873
48205SOL    HW146512   7.922  11.698   2.919
48205SOL    HW246513   7.872  11.805   2.825
48206SOL     OW46514   0.579   2.807   1.064
48206SOL    HW146515   0.497   2.796   1.015
48206SOL    HW246516   0.611   2.893   1.037
48207SOL     OW46517   2.894  11.641  10.816
48207SOL    HW146518   2.815  11.689  10.837
48207SOL    HW246519   2.962  11.707  10.809
48208SOL     OW46520   4.899  10.680  12.991
48208SOL    HW146521   4.882  10.774  12.979
48208SOL    HW246522   4.888  10.665  13.084
48209SOL     OW46523   7.164   5.450  13.882
48209SOL    HW146524   7.106   5.462  13.958
48209SOL    HW246525   7.222   5.526  13.884
48210SOL     OW46526   1.288   5.477  10.568
48210SOL    HW146527   1.377   5.501  10.542
48210SOL    HW246528   1.300   5.422  10.645
48211SOL     OW46529   2.289   7.904   6.951
48211SOL    HW146530   2.274   7.828   6.895
48211SOL    HW246531   2.232   7.972   6.915
48212SOL     OW46532  13.989   0.769  14.010
48212SOL    HW146533  13.893   0.763  14.009
48212SOL    HW246534  14.007   0.862  13.993
48213SOL     OW46535  11.839  12.752   6.631
48213SOL    HW146536  11.921  12.782   6.669
48213SOL    HW246537  11.865  12.691   6.562
48214SOL     OW46538  14.358  13.558   8.736
48214SOL    HW146539  14.299  13.494   8.696
48214SOL    HW246540  14.431  13.565   8.674
48215SOL     OW46541   4.726   8.852  10.721
48215SOL    HW146542   4.775   8.785  10.674
48215SOL    HW246543   4.741   8.833  10.813
48216SOL     OW46544  11.015  11.600   9.916
48216SOL    HW146545  11.021  11.525   9.856
48216SOL    HW246546  11.030  11.562  10.003
48217SOL     OW46547  12.003   8.098   1.147
48217SOL    HW146548  12.092   8.066   1.132
48217SOL    HW246549  11.946   8.026   1.121
48218SOL     OW46550  14.736   6.679  12.958
48218SOL    HW146551  14.679   6.744  12.999
48218SOL    HW246552  14.783   6.727  12.891
48219SOL     OW46553   7.949  11.948   4.109
48219SOL    HW146554   7.931  11.935   4.016
48219SOL    HW246555   8.029  11.898   4.125
48220SOL     OW46556   8.492   3.615   3.495
48220SOL    HW146557   8.580   3.635   3.464
48220SOL    HW246558   8.446   3.582   3.417
48221SOL     OW46559   5.152  14.690   4.659
48221SOL    HW146560   5.130  14.776   4.694
48221SOL    HW246561   5.243  14.676   4.685
48222SOL     OW46562  10.294   4.514  13.761
48222SOL    HW146563  10.277   4.538  13.852
48222SOL    HW246564  10.236   4.571  13.710
48223SOL     OW46565  14.088   9.155   2.862
48223SOL    HW146566  14.002   9.182   2.830
48223SOL    HW246567  14.143   9.233   2.855
48224SOL     OW46568  10.169  13.171   2.140
48224SOL    HW146569  10.257  13.137   2.157
48224SOL    HW246570  10.112  13.094   2.149
48225SOL     OW46571  11.750  10.031   0.525
48225SOL    HW146572  11.737  10.123   0.546
48225SOL    HW246573  11.781  10.031   0.435
48226SOL     OW46574   3.383   8.672   6.884
48226SOL    HW146575   3.418   8.715   6.806
48226SOL    HW246576   3.460   8.651   6.937
48227SOL     OW46577  13.880   1.968   7.807
48227SOL    HW146578  13.814   2.018   7.855
48227SOL    HW246579  13.830   1.901   7.761
48228SOL     OW46580  10.235  11.930  13.323
48228SOL    HW146581  10.183  11.977  13.258
48228SOL    HW246582  10.179  11.927  13.401
48229SOL     OW46583   5.178   7.400   6.097
48229SOL    HW146584   5.182   7.427   6.188
48229SOL    HW246585   5.218   7.471   6.048
48230SOL     OW46586   0.093  13.635  14.077
48230SOL    HW146587   0.003  13.655  14.102
48230SOL    HW246588   0.096  13.654  13.983
48231SOL     OW46589   7.792   1.524   6.503
48231SOL    HW146590   7.744   1.447   6.472
48231SOL    HW246591   7.740   1.598   6.471
48232SOL     OW46592   1.029  13.106   1.475
48232SOL    HW146593   0.979  13.162   1.416
48232SOL    HW246594   0.962  13.064   1.530
48233SOL     OW46595   8.975   3.484   9.979
48233SOL    HW146596   8.945   3.558   9.926
48233SOL    HW246597   8.895   3.445  10.013
48234SOL     OW46598   7.039   3.722  14.403
48234SOL    HW146599   6.945   3.704  14.413
48234SOL    HW246600   7.042   3.809  14.362
48235SOL     OW46601   7.680   6.417  13.877
48235SOL    HW146602   7.600   6.365  13.867
48235SOL    HW246603   7.699   6.414  13.970
48236SOL     OW46604  14.372   2.591   1.882
48236SOL    HW146605  14.360   2.663   1.944
48236SOL    HW246606  14.376   2.633   1.797
48237SOL     OW46607  10.285  10.802  12.615
48237SOL    HW146608  10.242  10.833  12.695
48237SOL    HW246609  10.233  10.839  12.544
48238SOL     OW46610  13.659   9.212   4.924
48238SOL    HW146611  13.623   9.141   4.977
48238SOL    HW246612  13.730   9.172   4.874
48239SOL     OW46613  12.452   6.430   9.316
48239SOL    HW146614  12.398   6.420   9.394
48239SOL    HW246615  12.390   6.439   9.244
48240SOL     OW46616  12.162  10.608   5.010
48240SOL    HW146617  12.179  10.551   5.085
48240SOL    HW246618  12.209  10.567   4.937
48241SOL     OW46619  13.815   0.843   1.242
48241SOL    HW146620  13.824   0.847   1.147
48241SOL    HW246621  13.904   0.857   1.275
48242SOL     OW46622  13.419   3.982  10.865
48242SOL    HW146623  13.488   4.045  10.842
48242SOL    HW246624  13.458   3.896  10.850
48243SOL     OW46625  14.776   0.394  13.573
48243SOL    HW146626  14.845   0.329  13.563
48243SOL    HW246627  14.729   0.392  13.490
48244SOL     OW46628  12.501   5.445   5.433
48244SOL    HW146629  12.549   5.468   5.354
48244SOL    HW246630  12.425   5.397   5.402
48245SOL     OW46631   5.545   8.813   0.998
48245SOL    HW146632   5.640   8.806   0.994
48245SOL    HW246633   5.521   8.776   1.084
48246SOL     OW46634   1.903  14.656  14.067
48246SOL    HW146635   1.819  14.669  14.022
48246SOL    HW246636   1.921  14.739  14.110
48247SOL     OW46637  11.826   5.426  13.114
48247SOL    HW146638  11.793   5.366  13.047
48247SOL    HW246639  11.827   5.512  13.071
48248SOL     OW46640   6.752   5.740   8.035
48248SOL    HW146641   6.791   5.670   8.088
48248SOL    HW246642   6.663   5.749   8.070
48249SOL     OW46643  10.011  14.380   7.936
48249SOL    HW146644  10.044  14.427   7.860
48249SOL    HW246645  10.088  14.340   7.977
48250SOL     OW46646   4.106   6.269  12.099
48250SOL    HW146647   4.136   6.349  12.143
48250SOL    HW246648   4.121   6.287  12.006
48251SOL     OW46649   2.356  14.390   4.796
48251SOL    HW146650   2.366  14.353   4.884
48251SOL    HW246651   2.386  14.480   4.805
48252SOL     OW46652  11.772   9.072   2.430
48252SOL    HW146653  11.749   9.162   2.454
48252SOL    HW246654  11.767   9.023   2.512
48253SOL     OW46655   2.695   4.951   7.080
48253SOL    HW146656   2.614   4.999   7.095
48253SOL    HW246657   2.682   4.867   7.125
48254SOL     OW46658  13.435   5.247  12.241
48254SOL    HW146659  13.515   5.295  12.258
48254SOL    HW246660  13.463   5.156  12.228
48255SOL     OW46661   8.365  10.993  10.031
48255SOL    HW146662   8.271  10.985  10.048
48255SOL    HW246663   8.382  10.929   9.962
48256SOL     OW46664  11.106   9.514  11.839
48256SOL    HW146665  11.102   9.495  11.745
48256SOL    HW246666  11.124   9.430  11.880
48257SOL     OW46667   7.219   9.573  13.361
48257SOL    HW146668   7.267   9.656  13.361
48257SOL    HW246669   7.127   9.599  13.351
48258SOL     OW46670   4.569  11.744  11.216
48258SOL    HW146671   4.532  11.830  11.193
48258SOL    HW246672   4.635  11.764  11.283
48259SOL     OW46673   6.478  14.464  13.231
48259SOL    HW146674   6.420  14.524  13.277
48259SOL    HW246675   6.436  14.450  13.146
48260SOL     OW46676   7.502  14.827   0.062
48260SOL    HW146677   7.569  14.831  14.865
48260SOL    HW246678   7.431   0.010   0.030
48261SOL     OW46679  10.733   8.426   7.810
48261SOL    HW146680  10.648   8.460   7.782
48261SOL    HW246681  10.712   8.345   7.857
48262SOL     OW46682   9.885   0.726   7.347
48262SOL    HW146683   9.875   0.738   7.441
48262SOL    HW246684   9.797   0.734   7.311
48263SOL     OW46685  13.450  12.900   8.540
48263SOL    HW146686  13.435  12.817   8.586
48263SOL    HW246687  13.400  12.964   8.590
48264SOL     OW46688   0.961  11.461   7.720
48264SOL    HW146689   1.004  11.512   7.652
48264SOL    HW246690   0.991  11.371   7.706
48265SOL     OW46691   7.748   3.157  13.822
48265SOL    HW146692   7.780   3.089  13.881
48265SOL    HW246693   7.695   3.214  13.878
48266SOL     OW46694  10.842   0.892   8.847
48266SOL    HW146695  10.936   0.895   8.861
48266SOL    HW246696  10.824   0.963   8.786
48267SOL     OW46697  10.991   7.465  10.564
48267SOL    HW146698  10.958   7.399  10.625
48267SOL    HW246699  11.075   7.493  10.602
48268SOL     OW46700   4.148   7.508   7.784
48268SOL    HW146701   4.195   7.551   7.855
48268SOL    HW246702   4.197   7.530   7.705
48269SOL     OW46703   9.978   5.058   5.373
48269SOL    HW146704   9.894   5.079   5.331
48269SOL    HW246705   9.953   5.011   5.453
48270SOL     OW46706   0.450  13.773   4.133
48270SOL    HW146707   0.436  13.840   4.065
48270SOL    HW246708   0.425  13.691   4.092
48271SOL     OW46709   5.501   9.842   6.949
48271SOL    HW146710   5.414   9.842   6.909
48271SOL    HW246711   5.556   9.795   6.887
48272SOL     OW46712   5.222  13.586  14.045
48272SOL    HW146713   5.156  13.546  13.989
48272SOL    HW246714   5.235  13.524  14.116
48273SOL     OW46715  13.467  12.899  14.140
48273SOL    HW146716  13.507  12.911  14.055
48273SOL    HW246717  13.540  12.886  14.200
48274SOL     OW46718   2.033   9.985   6.093
48274SOL    HW146719   1.944  10.020   6.104
48274SOL    HW246720   2.083  10.025   6.164
48275SOL     OW46721   5.990  14.853   6.659
48275SOL    HW146722   6.009  14.761   6.680
48275SOL    HW246723   6.014   0.029   6.739
48276SOL     OW46724  12.787   1.614   1.949
48276SOL    HW146725  12.824   1.671   1.881
48276SOL    HW246726  12.863   1.583   1.999
48277SOL     OW46727   0.151  10.401   3.701
48277SOL    HW146728   0.236  10.385   3.742
48277SOL    HW246729   0.167  10.473   3.641
48278SOL     OW46730   3.670   1.074  14.007
48278SOL    HW146731   3.734   1.144  14.019
48278SOL    HW246732   3.651   1.044  14.095
48279SOL     OW46733   4.541  10.839   6.586
48279SOL    HW146734   4.576  10.779   6.652
48279SOL    HW246735   4.607  10.907   6.578
48280SOL     OW46736  14.245   7.878   6.980
48280SOL    HW146737  14.156   7.848   6.992
48280SOL    HW246738  14.282   7.820   6.913
48281SOL     OW46739  13.188  12.428   7.811
48281SOL    HW146740  13.271  12.470   7.832
48281SOL    HW246741  13.132  12.499   7.780
48282SOL     OW46742  12.446   9.550   4.356
48282SOL    HW146743  12.362   9.510   4.335
48282SOL    HW246744  12.508   9.510   4.294
48283SOL     OW46745   0.780   0.369   1.305
48283SOL    HW146746   0.870   0.380   1.277
48283SOL    HW246747   0.778   0.284   1.349
48284SOL     OW46748  14.650  11.231   0.813
48284SOL    HW146749  14.621  11.176   0.886
48284SOL    HW246750  14.611  11.189   0.735
48285SOL     OW46751   4.658   4.358  10.832
48285SOL    HW146752   4.575   4.361  10.880
48285SOL    HW246753   4.710   4.430  10.869
48286SOL     OW46754   4.763   3.501  10.277
48286SOL    HW146755   4.700   3.559  10.233
48286SOL    HW246756   4.804   3.555  10.344
48287SOL     OW46757  14.821  12.341   8.397
48287SOL    HW146758  14.757  12.307   8.459
48287SOL    HW246759  14.837  12.431   8.426
48288SOL     OW46760  12.366   7.734  10.494
48288SOL    HW146761  12.456   7.757  10.469
48288SOL    HW246762  12.336   7.677  10.423
48289SOL     OW46763  13.570   4.114   4.051
48289SOL    HW146764  13.660   4.101   4.082
48289SOL    HW246765  13.515   4.101   4.128
48290SOL     OW46766  12.757  12.596   2.307
48290SOL    HW146767  12.818  12.669   2.305
48290SOL    HW246768  12.697  12.617   2.378
48291SOL     OW46769   8.486  12.020   6.333
48291SOL    HW146770   8.479  11.959   6.407
48291SOL    HW246771   8.444  11.974   6.260
48292SOL     OW46772   3.192   1.594  14.268
48292SOL    HW146773   3.116   1.539  14.285
48292SOL    HW246774   3.213   1.634  14.352
48293SOL     OW46775   8.494  14.757   5.550
48293SOL    HW146776   8.495  14.679   5.494
48293SOL    HW246777   8.442  14.731   5.626
48294SOL     OW46778   4.087   2.131  11.046
48294SOL    HW146779   4.014   2.148  10.986
48294SOL    HW246780   4.159   2.107  10.989
48295SOL     OW46781   8.053   2.734   2.746
48295SOL    HW146782   8.024   2.819   2.779
48295SOL    HW246783   8.144   2.726   2.775
48296SOL     OW46784   0.935  12.664   9.394
48296SOL    HW146785   1.017  12.650   9.442
48296SOL    HW246786   0.869  12.619   9.447
48297SOL     OW46787   7.392   4.937   1.992
48297SOL    HW146788   7.336   4.882   1.937
48297SOL    HW246789   7.333   5.003   2.028
48298SOL     OW46790  14.382   4.072   2.303
48298SOL    HW146791  14.346   4.137   2.363
48298SOL    HW246792  14.306   4.021   2.274
48299SOL     OW46793   8.254  13.630   2.025
48299SOL    HW146794   8.285  13.551   1.981
48299SOL    HW246795   8.332  13.683   2.038
48300SOL     OW46796   6.338   1.218  12.665
48300SOL    HW146797   6.384   1.135  12.675
48300SOL    HW246798   6.284   1.207  12.587
48301SOL     OW46799  10.699   0.625   7.484
48301SOL    HW146800  10.624   0.619   7.424
48301SOL    HW246801  10.776   0.621   7.428
48302SOL     OW46802   5.263  13.503   2.372
48302SOL    HW146803   5.271  13.412   2.401
48302SOL    HW246804   5.248  13.553   2.452
48303SOL     OW46805   2.484   0.562  12.395
48303SOL    HW146806   2.404   0.604  12.365
48303SOL    HW246807   2.494   0.485  12.339
48304SOL     OW46808  11.836  11.122  13.343
48304SOL    HW146809  11.749  11.121  13.304
48304SOL    HW246810  11.837  11.201  13.398
48305SOL     OW46811   6.194  11.374   2.572
48305SOL    HW146812   6.216  11.396   2.662
48305SOL    HW246813   6.118  11.316   2.579
48306SOL     OW46814   8.698  11.237   2.587
48306SOL    HW146815   8.632  11.260   2.521
48306SOL    HW246816   8.782  11.247   2.543
48307SOL     OW46817   5.661   1.903  11.069
48307SOL    HW146818   5.750   1.886  11.100
48307SOL    HW246819   5.673   1.956  10.990
48308SOL     OW46820   5.820   5.473  10.257
48308SOL    HW146821   5.823   5.381  10.231
48308SOL    HW246822   5.911   5.494  10.278
48309SOL     OW46823   0.310   1.038  14.830
48309SOL    HW146824   0.303   1.099  14.756
48309SOL    HW246825   0.279   0.954  14.796
48310SOL     OW46826   6.443  12.532   4.513
48310SOL    HW146827   6.523  12.489   4.485
48310SOL    HW246828   6.433  12.607   4.454
48311SOL     OW46829  11.081  12.837   8.978
48311SOL    HW146830  11.112  12.766   9.034
48311SOL    HW246831  10.985  12.830   8.980
48312SOL     OW46832   7.214   3.019   6.492
48312SOL    HW146833   7.271   2.944   6.508
48312SOL    HW246834   7.218   3.070   6.572
48313SOL     OW46835   5.541   1.239   2.480
48313SOL    HW146836   5.487   1.258   2.557
48313SOL    HW246837   5.627   1.217   2.516
48314SOL     OW46838  14.803   3.353  14.521
48314SOL    HW146839  14.727   3.324  14.571
48314SOL    HW246840  14.828   3.436  14.562
48315SOL     OW46841   3.024  13.346   6.434
48315SOL    HW146842   3.045  13.301   6.353
48315SOL    HW246843   3.086  13.419   6.437
48316SOL     OW46844  10.166   2.333   8.520
48316SOL    HW146845  10.134   2.420   8.545
48316SOL    HW246846  10.154   2.280   8.598
48317SOL     OW46847   2.896  10.516   3.656
48317SOL    HW146848   2.962  10.449   3.637
48317SOL    HW246849   2.945  10.599   3.654
48318SOL     OW46850   9.415   5.799  10.348
48318SOL    HW146851   9.392   5.754  10.429
48318SOL    HW246852   9.511   5.806  10.352
48319SOL     OW46853  11.623   9.191  14.727
48319SOL    HW146854  11.715   9.190  14.752
48319SOL    HW246855  11.579   9.141  14.796
48320SOL     OW46856  10.504   8.077   9.878
48320SOL    HW146857  10.505   8.163   9.919
48320SOL    HW246858  10.553   8.088   9.797
48321SOL     OW46859   1.794   0.018  12.646
48321SOL    HW146860   1.845   0.082  12.695
48321SOL    HW246861   1.756  14.833  12.714
48322SOL     OW46862  10.695   8.937   9.581
48322SOL    HW146863  10.782   8.964   9.551
48322SOL    HW246864  10.703   8.842   9.594
48323SOL     OW46865   1.587   6.266  14.151
48323SOL    HW146866   1.588   6.277  14.056
48323SOL    HW246867   1.495   6.274  14.176
48324SOL     OW46868  14.492   1.911  14.843
48324SOL    HW146869  14.399   1.922  14.824
48324SOL    HW246870  14.504   1.817  14.853
48325SOL     OW46871   7.494   2.358  10.730
48325SOL    HW146872   7.401   2.358  10.753
48325SOL    HW246873   7.539   2.369  10.814
48326SOL     OW46874   0.236   0.613   3.617
48326SOL    HW146875   0.279   0.618   3.532
48326SOL    HW246876   0.258   0.527   3.651
48327SOL     OW46877  11.468  12.643   8.271
48327SOL    HW146878  11.436  12.691   8.194
48327SOL    HW246879  11.431  12.691   8.345
48328SOL     OW46880  14.289   1.066  10.827
48328SOL    HW146881  14.382   1.044  10.833
48328SOL    HW246882  14.287   1.159  10.807
48329SOL     OW46883   4.930   1.999   9.575
48329SOL    HW146884   5.004   2.051   9.543
48329SOL    HW246885   4.924   1.924   9.516
48330SOL     OW46886   7.438   1.952   1.598
48330SOL    HW146887   7.432   2.045   1.622
48330SOL    HW246888   7.530   1.931   1.608
48331SOL     OW46889   5.114   9.202   1.376
48331SOL    HW146890   5.145   9.207   1.286
48331SOL    HW246891   5.086   9.111   1.386
48332SOL     OW46892   2.625   4.643   8.220
48332SOL    HW146893   2.637   4.729   8.258
48332SOL    HW246894   2.689   4.587   8.265
48333SOL     OW46895  12.889  14.777   0.556
48333SOL    HW146896  12.942  14.846   0.515
48333SOL    HW246897  12.922  14.696   0.518
48334SOL     OW46898   2.193  10.402   9.762
48334SOL    HW146899   2.268  10.351   9.731
48334SOL    HW246900   2.183  10.376   9.854
48335SOL     OW46901   6.072   7.977   3.282
48335SOL    HW146902   6.115   8.035   3.220
48335SOL    HW246903   6.024   8.035   3.341
48336SOL     OW46904   0.475   7.032   2.413
48336SOL    HW146905   0.464   7.123   2.383
48336SOL    HW246906   0.486   7.039   2.508
48337SOL     OW46907   9.574   0.482  13.867
48337SOL    HW146908   9.486   0.510  13.841
48337SOL    HW246909   9.621   0.470  13.784
48338SOL     OW46910  12.838   9.405   4.316
48338SOL    HW146911  12.911   9.345   4.333
48338SOL    HW246912  12.793   9.367   4.240
48339SOL     OW46913  14.795   0.674   8.444
48339SOL    HW146914   0.007   0.653   8.402
48339SOL    HW246915  14.814   0.669   8.538
48340SOL     OW46916   2.713   0.865   7.361
48340SOL    HW146917   2.652   0.797   7.389
48340SOL    HW246918   2.664   0.947   7.370
48341SOL     OW46919   1.042   9.938   1.641
48341SOL    HW146920   1.078   9.948   1.552
48341SOL    HW246921   1.075  10.013   1.689
48342SOL     OW46922  10.806   9.667   2.504
48342SOL    HW146923  10.755   9.664   2.424
48342SOL    HW246924  10.892   9.633   2.479
48343SOL     OW46925   0.740   5.341  12.446
48343SOL    HW146926   0.757   5.409  12.511
48343SOL    HW246927   0.694   5.385  12.375
48344SOL     OW46928   3.184  12.423  13.561
48344SOL    HW146929   3.255  12.374  13.602
48344SOL    HW246930   3.123  12.356  13.530
48345SOL     OW46931   7.428   9.868   6.935
48345SOL    HW146932   7.382   9.952   6.928
48345SOL    HW246933   7.447   9.859   7.029
48346SOL     OW46934   9.884   0.386   9.583
48346SOL    HW146935   9.973   0.365   9.556
48346SOL    HW246936   9.886   0.479   9.602
48347SOL     OW46937  10.499   7.439  12.407
48347SOL    HW146938  10.506   7.531  12.434
48347SOL    HW246939  10.461   7.443  12.320
48348SOL     OW46940  12.478   9.729   3.180
48348SOL    HW146941  12.430   9.702   3.102
48348SOL    HW246942  12.410   9.758   3.241
48349SOL     OW46943   0.230  13.862   1.744
48349SOL    HW146944   0.163  13.886   1.808
48349SOL    HW246945   0.201  13.778   1.710
48350SOL     OW46946   5.529   4.814  14.139
48350SOL    HW146947   5.444   4.826  14.181
48350SOL    HW246948   5.589   4.869  14.189
48351SOL     OW46949   3.728  13.834   4.803
48351SOL    HW146950   3.696  13.922   4.783
48351SOL    HW246951   3.806  13.848   4.857
48352SOL     OW46952   6.606   1.693  13.943
48352SOL    HW146953   6.589   1.776  13.986
48352SOL    HW246954   6.582   1.707  13.851
48353SOL     OW46955  10.815   9.729   3.222
48353SOL    HW146956  10.790   9.639   3.201
48353SOL    HW246957  10.809   9.775   3.138
48354SOL     OW46958   6.710  11.213   6.408
48354SOL    HW146959   6.733  11.168   6.490
48354SOL    HW246960   6.733  11.150   6.340
48355SOL     OW46961   5.683   9.434   4.210
48355SOL    HW146962   5.653   9.369   4.274
48355SOL    HW246963   5.728   9.500   4.263
48356SOL     OW46964   0.583   4.162   9.960
48356SOL    HW146965   0.586   4.238  10.019
48356SOL    HW246966   0.674   4.134   9.953
48357SOL     OW46967   7.855   4.831   2.447
48357SOL    HW146968   7.896   4.763   2.393
48357SOL    HW246969   7.767   4.841   2.410
48358SOL     OW46970   9.127   6.167   5.712
48358SOL    HW146971   9.057   6.192   5.651
48358SOL    HW246972   9.199   6.226   5.690
48359SOL     OW46973   9.175   6.293   0.746
48359SOL    HW146974   9.210   6.221   0.693
48359SOL    HW246975   9.208   6.372   0.705
48360SOL     OW46976   2.858   6.850   2.027
48360SOL    HW146977   2.829   6.824   2.114
48360SOL    HW246978   2.954   6.851   2.032
48361SOL     OW46979  10.091   8.208   8.620
48361SOL    HW146980  10.049   8.122   8.612
48361SOL    HW246981  10.126   8.210   8.709
48362SOL     OW46982  13.915  12.307   4.562
48362SOL    HW146983  13.915  12.401   4.542
48362SOL    HW246984  13.961  12.300   4.645
48363SOL     OW46985  13.463   1.443   3.151
48363SOL    HW146986  13.388   1.478   3.200
48363SOL    HW246987  13.490   1.515   3.094
48364SOL     OW46988   6.726  14.788  11.167
48364SOL    HW146989   6.689   0.005  11.164
48364SOL    HW246990   6.738  14.770  11.261
48365SOL     OW46991  13.384  11.425  11.827
48365SOL    HW146992  13.379  11.503  11.771
48365SOL    HW246993  13.327  11.361  11.784
48366SOL     OW46994   5.867   4.100   2.151
48366SOL    HW146995   5.920   4.104   2.231
48366SOL    HW246996   5.784   4.060   2.179
48367SOL     OW46997   3.453   8.877   3.186
48367SOL    HW146998   3.403   8.936   3.129
48367SOL    HW246999   3.451   8.919   3.272
48368SOL     OW47000   0.874   1.893   8.348
48368SOL    HW147001   0.915   1.960   8.401
48368SOL    HW247002   0.852   1.937   8.266
48369SOL     OW47003   1.217  10.492   7.298
48369SOL    HW147004   1.135  10.469   7.342
48369SOL    HW247005   1.264  10.545   7.362
48370SOL     OW47006   3.731  12.058   7.179
48370SOL    HW147007   3.807  12.092   7.132
48370SOL    HW247008   3.686  12.136   7.210
48371SOL     OW47009   2.979   5.879   5.712
48371SOL    HW147010   3.074   5.866   5.720
48371SOL    HW247011   2.961   5.954   5.770
48372SOL     OW47012   7.865   9.291  10.302
48372SOL    HW147013   7.837   9.275  10.212
48372SOL    HW247014   7.786   9.319  10.348
48373SOL     OW47015  11.955  12.805   4.190
48373SOL    HW147016  12.019  12.734   4.193
48373SOL    HW247017  11.966  12.844   4.103
48374SOL     OW47018   9.608   5.778   3.508
48374SOL    HW147019   9.702   5.787   3.520
48374SOL    HW247020   9.581   5.713   3.572
48375SOL     OW47021   5.603   1.729   3.031
48375SOL    HW147022   5.681   1.726   3.088
48375SOL    HW247023   5.639   1.740   2.943
48376SOL     OW47024   0.217   1.321  13.019
48376SOL    HW147025   0.142   1.282  13.062
48376SOL    HW247026   0.277   1.248  13.004
48377SOL     OW47027   6.854  13.005   0.187
48377SOL    HW147028   6.919  12.961   0.133
48377SOL    HW247029   6.823  12.938   0.247
48378SOL     OW47030   8.504   9.545   5.303
48378SOL    HW147031   8.503   9.641   5.302
48378SOL    HW247032   8.579   9.521   5.249
48379SOL     OW47033   5.167   7.851  12.335
48379SOL    HW147034   5.226   7.778  12.357
48379SOL    HW247035   5.216   7.901  12.269
48380SOL     OW47036   7.886  11.128   4.035
48380SOL    HW147037   7.914  11.208   4.081
48380SOL    HW247038   7.943  11.059   4.069
48381SOL     OW47039   5.320   1.993  14.283
48381SOL    HW147040   5.398   1.997  14.338
48381SOL    HW247041   5.260   2.058  14.321
48382SOL     OW47042   4.519   6.181   8.148
48382SOL    HW147043   4.581   6.112   8.123
48382SOL    HW247044   4.530   6.190   8.242
48383SOL     OW47045   5.962  11.659   7.373
48383SOL    HW147046   5.970  11.675   7.279
48383SOL    HW247047   5.898  11.724   7.402
48384SOL     OW47048   9.876   5.173  13.226
48384SOL    HW147049   9.944   5.111  13.251
48384SOL    HW247050   9.916   5.259  13.241
48385SOL     OW47051   5.729   2.800  14.222
48385SOL    HW147052   5.705   2.784  14.313
48385SOL    HW247053   5.686   2.729  14.174
48386SOL     OW47054  14.598  13.231   4.703
48386SOL    HW147055  14.581  13.210   4.795
48386SOL    HW247056  14.536  13.177   4.655
48387SOL     OW47057   1.398   9.439  12.570
48387SOL    HW147058   1.423   9.531  12.575
48387SOL    HW247059   1.481   9.392  12.565
48388SOL     OW47060   8.655   2.427  11.357
48388SOL    HW147061   8.575   2.422  11.306
48388SOL    HW247062   8.723   2.393  11.298
48389SOL     OW47063   1.439   1.692   8.016
48389SOL    HW147064   1.436   1.599   8.037
48389SOL    HW247065   1.532   1.711   8.001
48390SOL     OW47066   9.789  14.736   2.371
48390SOL    HW147067   9.703  14.696   2.373
48390SOL    HW247068   9.846  14.672   2.414
48391SOL     OW47069   9.801  11.919  14.007
48391SOL    HW147070   9.893  11.945  14.001
48391SOL    HW247071   9.779  11.934  14.099
48392SOL     OW47072   0.952   2.742   6.402
48392SOL    HW147073   0.934   2.728   6.495
48392SOL    HW247074   0.881   2.800   6.372
48393SOL     OW47075   1.328   8.746   0.740
48393SOL    HW147076   1.272   8.793   0.803
48393SOL    HW247077   1.417   8.764   0.769
48394SOL     OW47078  13.921   0.836   9.611
48394SOL    HW147079  13.981   0.763   9.619
48394SOL    HW247080  13.964   0.897   9.551
48395SOL     OW47081   8.639   2.905   9.105
48395SOL    HW147082   8.627   2.974   9.170
48395SOL    HW247083   8.659   2.952   9.024
48396SOL     OW47084   8.411   3.729   9.683
48396SOL    HW147085   8.502   3.757   9.672
48396SOL    HW247086   8.374   3.732   9.595
48397SOL     OW47087   6.349  13.173   8.489
48397SOL    HW147088   6.437  13.157   8.455
48397SOL    HW247089   6.323  13.258   8.453
48398SOL     OW47090   1.487   8.259  14.498
48398SOL    HW147091   1.393   8.276  14.508
48398SOL    HW247092   1.504   8.183  14.553
48399SOL     OW47093   0.799   9.989  12.983
48399SOL    HW147094   0.868  10.054  12.999
48399SOL    HW247095   0.807   9.927  13.055
48400SOL     OW47096   7.849  13.743   7.247
48400SOL    HW147097   7.839  13.813   7.312
48400SOL    HW247098   7.860  13.664   7.299
48401SOL     OW47099   3.337  12.108  12.195
48401SOL    HW147100   3.328  12.164  12.272
48401SOL    HW247101   3.261  12.131  12.141
48402SOL     OW47102  13.693   0.791   3.507
48402SOL    HW147103  13.719   0.867   3.456
48402SOL    HW247104  13.598   0.791   3.504
48403SOL     OW47105   1.776  10.740   5.314
48403SOL    HW147106   1.823  10.666   5.275
48403SOL    HW247107   1.844  10.794   5.353
48404SOL     OW47108   5.978   8.149   4.750
48404SOL    HW147109   6.000   8.194   4.831
48404SOL    HW247110   5.907   8.200   4.712
48405SOL     OW47111   4.108   6.621   7.760
48405SOL    HW147112   4.102   6.634   7.854
48405SOL    HW247113   4.028   6.573   7.737
48406SOL     OW47114   3.742   8.361   4.428
48406SOL    HW147115   3.724   8.376   4.335
48406SOL    HW247116   3.791   8.279   4.431
48407SOL     OW47117   4.546   3.232   3.243
48407SOL    HW147118   4.568   3.309   3.191
48407SOL    HW247119   4.495   3.177   3.184
48408SOL     OW47120   1.761  10.209   1.105
48408SOL    HW147121   1.826  10.244   1.166
48408SOL    HW247122   1.766  10.114   1.116
48409SOL     OW47123  13.334  10.509   6.017
48409SOL    HW147124  13.314  10.415   6.019
48409SOL    HW247125  13.334  10.531   5.924
48410SOL     OW47126  14.363   5.957   0.296
48410SOL    HW147127  14.303   5.884   0.314
48410SOL    HW247128  14.329   5.997   0.216
48411SOL     OW47129   1.488   9.297  10.987
48411SOL    HW147130   1.499   9.348  11.067
48411SOL    HW247131   1.563   9.321  10.932
48412SOL     OW47132   8.892   2.556   8.465
48412SOL    HW147133   8.928   2.546   8.553
48412SOL    HW247134   8.967   2.582   8.411
48413SOL     OW47135   7.938   5.959   2.188
48413SOL    HW147136   7.998   5.939   2.116
48413SOL    HW247137   7.944   5.882   2.245
48414SOL     OW47138   0.898  11.533   9.263
48414SOL    HW147139   0.985  11.551   9.226
48414SOL    HW247140   0.910  11.451   9.311
48415SOL     OW47141   3.048  12.655  12.363
48415SOL    HW147142   2.990  12.694  12.298
48415SOL    HW247143   3.096  12.587  12.314
48416SOL     OW47144  11.324   7.797   6.055
48416SOL    HW147145  11.404   7.841   6.081
48416SOL    HW247146  11.256   7.864   6.060
48417SOL     OW47147   4.709   1.592   6.277
48417SOL    HW147148   4.742   1.517   6.326
48417SOL    HW247149   4.743   1.669   6.324
48418SOL     OW47150  14.598   2.083  12.930
48418SOL    HW147151  14.514   2.103  12.971
48418SOL    HW247152  14.642   2.025  12.992
48419SOL     OW47153  10.166   4.692   1.470
48419SOL    HW147154  10.212   4.767   1.432
48419SOL    HW247155  10.229   4.620   1.463
48420SOL     OW47156   4.297  14.446   0.492
48420SOL    HW147157   4.355  14.390   0.440
48420SOL    HW247158   4.211  14.437   0.450
48421SOL     OW47159   7.901  10.177  14.483
48421SOL    HW147160   7.888  10.227  14.403
48421SOL    HW247161   7.904  10.085  14.454
48422SOL     OW47162  12.041   0.947   2.704
48422SOL    HW147163  11.971   0.889   2.673
48422SOL    HW247164  12.115   0.927   2.647
48423SOL     OW47165   8.185   6.842   7.883
48423SOL    HW147166   8.177   6.892   7.801
48423SOL    HW247167   8.191   6.908   7.951
48424SOL     OW47168  13.450  14.743   7.253
48424SOL    HW147169  13.510  14.778   7.318
48424SOL    HW247170  13.365  14.782   7.275
48425SOL     OW47171   2.957   3.732  10.394
48425SOL    HW147172   2.921   3.746  10.482
48425SOL    HW247173   2.954   3.819  10.353
48426SOL     OW47174   8.517  13.562   8.510
48426SOL    HW147175   8.466  13.498   8.560
48426SOL    HW247176   8.477  13.562   8.423
48427SOL     OW47177   5.149   4.336  11.871
48427SOL    HW147178   5.139   4.271  11.940
48427SOL    HW247179   5.243   4.346  11.859
48428SOL     OW47180  13.370  13.081  10.337
48428SOL    HW147181  13.408  13.148  10.280
48428SOL    HW247182  13.313  13.130  10.396
48429SOL     OW47183   9.418  14.068  14.389
48429SOL    HW147184   9.442  13.984  14.428
48429SOL    HW247185   9.335  14.051  14.344
48430SOL     OW47186   7.444   3.050   7.919
48430SOL    HW147187   7.512   3.099   7.964
48430SOL    HW247188   7.490   2.996   7.856
48431SOL     OW47189  12.866   4.123  14.211
48431SOL    HW147190  12.835   4.126  14.121
48431SOL    HW247191  12.946   4.072  14.207
48432SOL     OW47192   7.869   1.353   9.612
48432SOL    HW147193   7.881   1.440   9.650
48432SOL    HW247194   7.873   1.368   9.517
48433SOL     OW47195   5.104   0.800   4.567
48433SOL    HW147196   5.166   0.850   4.513
48433SOL    HW247197   5.122   0.829   4.656
48434SOL     OW47198  11.181   8.094  12.346
48434SOL    HW147199  11.173   8.034  12.271
48434SOL    HW247200  11.274   8.117  12.348
48435SOL     OW47201   7.727  10.293   8.218
48435SOL    HW147202   7.779  10.347   8.278
48435SOL    HW247203   7.722  10.208   8.262
48436SOL     OW47204   0.988   7.067  10.281
48436SOL    HW147205   0.933   7.024  10.346
48436SOL    HW247206   1.071   7.019  10.283
48437SOL     OW47207   7.283   9.342  13.488
48437SOL    HW147208   7.285   9.359  13.582
48437SOL    HW247209   7.252   9.424  13.449
48438SOL     OW47210   7.935   7.245  12.204
48438SOL    HW147211   7.995   7.223  12.132
48438SOL    HW247212   7.879   7.314  12.169
48439SOL     OW47213  12.394   4.279   5.000
48439SOL    HW147214  12.448   4.215   5.045
48439SOL    HW247215  12.320   4.295   5.059
48440SOL     OW47216   2.331   1.138   4.960
48440SOL    HW147217   2.336   1.216   5.016
48440SOL    HW247218   2.420   1.124   4.929
48441SOL     OW47219  13.978  12.291   6.783
48441SOL    HW147220  14.013  12.293   6.872
48441SOL    HW247221  13.893  12.248   6.792
48442SOL     OW47222   9.901   8.826  11.048
48442SOL    HW147223   9.821   8.795  11.090
48442SOL    HW247224   9.871   8.873  10.970
48443SOL     OW47225   9.829   3.578  14.110
48443SOL    HW147226   9.762   3.641  14.084
48443SOL    HW247227   9.868   3.616  14.189
48444SOL     OW47228   3.926  13.993   3.849
48444SOL    HW147229   3.999  14.053   3.832
48444SOL    HW247230   3.936  13.925   3.782
48445SOL     OW47231   4.944   7.928   2.838
48445SOL    HW147232   5.019   7.981   2.811
48445SOL    HW247233   4.886   7.989   2.883
48446SOL     OW47234   7.756   5.009   1.328
48446SOL    HW147235   7.666   5.028   1.300
48446SOL    HW247236   7.747   4.976   1.417
48447SOL     OW47237   9.107  14.719   8.478
48447SOL    HW147238   9.134  14.628   8.466
48447SOL    HW247239   9.013  14.718   8.465
48448SOL     OW47240   7.208   4.785  10.162
48448SOL    HW147241   7.265   4.855  10.131
48448SOL    HW247242   7.133   4.786  10.102
48449SOL     OW47243  11.281  10.547  13.645
48449SOL    HW147244  11.236  10.465  13.665
48449SOL    HW247245  11.214  10.601  13.601
48450SOL     OW47246   1.584   4.849  14.846
48450SOL    HW147247   1.574   4.800   0.056
48450SOL    HW247248   1.634   4.790  14.789
48451SOL     OW47249   1.593  11.281   0.140
48451SOL    HW147250   1.574  11.188   0.127
48451SOL    HW247251   1.668  11.282   0.200
48452SOL     OW47252   8.494   3.256  12.546
48452SOL    HW147253   8.512   3.217  12.631
48452SOL    HW247254   8.544   3.338  12.545
48453SOL     OW47255  11.765   8.448  12.315
48453SOL    HW147256  11.767   8.377  12.379
48453SOL    HW247257  11.715   8.517  12.357
48454SOL     OW47258  13.048   5.777  10.047
48454SOL    HW147259  13.068   5.746  10.136
48454SOL    HW247260  12.954   5.790  10.046
48455SOL     OW47261   2.557   9.392  13.539
48455SOL    HW147262   2.597   9.308  13.516
48455SOL    HW247263   2.619   9.431  13.601
48456SOL     OW47264   3.228   1.326   1.417
48456SOL    HW147265   3.280   1.350   1.340
48456SOL    HW247266   3.263   1.241   1.444
48457SOL     OW47267  11.975   2.765  10.433
48457SOL    HW147268  12.062   2.802  10.422
48457SOL    HW247269  11.943   2.804  10.515
48458SOL     OW47270  13.552   4.503   7.114
48458SOL    HW147271  13.631   4.519   7.165
48458SOL    HW247272  13.552   4.572   7.047
48459SOL     OW47273   9.046   6.080   7.681
48459SOL    HW147274   9.004   6.153   7.725
48459SOL    HW247275   9.092   6.119   7.607
48460SOL     OW47276   0.457   6.929   4.463
48460SOL    HW147277   0.368   6.951   4.435
48460SOL    HW247278   0.513   6.988   4.413
48461SOL     OW47279   9.329   0.779  14.792
48461SOL    HW147280   9.397   0.729  14.746
48461SOL    HW247281   9.311   0.728  14.870
48462SOL     OW47282   0.717  10.201   5.192
48462SOL    HW147283   0.779  10.271   5.213
48462SOL    HW247284   0.742  10.129   5.250
48463SOL     OW47285  12.698   2.325  14.720
48463SOL    HW147286  12.764   2.269  14.677
48463SOL    HW247287  12.749   2.386  14.772
48464SOL     OW47288   6.747  13.535  13.093
48464SOL    HW147289   6.832  13.493  13.104
48464SOL    HW247290   6.726  13.570  13.180
48465SOL     OW47291   1.712   3.792   9.475
48465SOL    HW147292   1.662   3.716   9.446
48465SOL    HW247293   1.670   3.819   9.556
48466SOL     OW47294   8.897   6.719  11.089
48466SOL    HW147295   8.804   6.706  11.110
48466SOL    HW247296   8.924   6.637  11.048
48467SOL     OW47297   2.791   5.832  10.357
48467SOL    HW147298   2.817   5.919  10.388
48467SOL    HW247299   2.702   5.821  10.392
48468SOL     OW47300   0.152   5.054   1.820
48468SOL    HW147301   0.134   5.005   1.740
48468SOL    HW247302   0.066   5.073   1.857
48469SOL     OW47303  12.794  14.416  13.844
48469SOL    HW147304  12.734  14.352  13.805
48469SOL    HW247305  12.869  14.419  13.785
48470SOL     OW47306   2.643  13.237   2.619
48470SOL    HW147307   2.561  13.243   2.668
48470SOL    HW247308   2.640  13.310   2.557
48471SOL     OW47309   4.157   4.444   9.078
48471SOL    HW147310   4.067   4.475   9.066
48471SOL    HW247311   4.147   4.351   9.100
48472SOL     OW47312  11.648   7.354   5.357
48472SOL    HW147313  11.622   7.271   5.399
48472SOL    HW247314  11.582   7.417   5.385
48473SOL     OW47315   9.103   1.886   8.574
48473SOL    HW147316   9.058   1.817   8.525
48473SOL    HW247317   9.075   1.873   8.665
48474SOL     OW47318  13.810   1.581   4.069
48474SOL    HW147319  13.771   1.495   4.085
48474SOL    HW247320  13.801   1.627   4.152
48475SOL     OW47321   2.892  12.285   1.605
48475SOL    HW147322   2.845  12.275   1.688
48475SOL    HW247323   2.826  12.320   1.545
48476SOL     OW47324   6.686   6.496  10.718
48476SOL    HW147325   6.615   6.558  10.705
48476SOL    HW247326   6.719   6.478  10.630
48477SOL     OW47327  12.912   7.210   9.003
48477SOL    HW147328  12.914   7.204   8.907
48477SOL    HW247329  12.882   7.299   9.021
48478SOL     OW47330   4.309   8.194   9.037
48478SOL    HW147331   4.281   8.257   8.970
48478SOL    HW247332   4.365   8.245   9.095
48479SOL     OW47333  14.770  13.390   8.674
48479SOL    HW147334  14.815  13.325   8.621
48479SOL    HW247335  14.791  13.474   8.631
48480SOL     OW47336   1.873   8.025  11.988
48480SOL    HW147337   1.803   8.080  12.022
48480SOL    HW247338   1.946   8.085  11.972
48481SOL     OW47339   5.480  12.206   3.372
48481SOL    HW147340   5.529  12.172   3.297
48481SOL    HW247341   5.401  12.152   3.375
48482SOL     OW47342   0.324   4.085   4.770
48482SOL    HW147343   0.316   4.148   4.698
48482SOL    HW247344   0.295   4.002   4.732
48483SOL     OW47345   2.589   2.861  14.664
48483SOL    HW147346   2.508   2.812  14.651
48483SOL    HW247347   2.579   2.939  14.609
48484SOL     OW47348   4.701  10.221   5.336
48484SOL    HW147349   4.728  10.243   5.425
48484SOL    HW247350   4.692  10.305   5.292
48485SOL     OW47351   6.145   4.760   7.507
48485SOL    HW147352   6.079   4.691   7.498
48485SOL    HW247353   6.196   4.755   7.427
48486SOL     OW47354   7.486   0.357   6.018
48486SOL    HW147355   7.481   0.274   5.972
48486SOL    HW247356   7.522   0.335   6.104
48487SOL     OW47357   6.814  13.268   5.875
48487SOL    HW147358   6.823  13.346   5.930
48487SOL    HW247359   6.822  13.300   5.785
48488SOL     OW47360   6.443   4.690   2.627
48488SOL    HW147361   6.449   4.698   2.722
48488SOL    HW247362   6.532   4.703   2.596
48489SOL     OW47363  11.335   6.660   1.884
48489SOL    HW147364  11.355   6.702   1.968
48489SOL    HW247365  11.420   6.654   1.840
48490SOL     OW47366   7.541   9.180  13.817
48490SOL    HW147367   7.527   9.142  13.904
48490SOL    HW247368   7.459   9.226  13.798
48491SOL     OW47369  10.091   4.796   4.531
48491SOL    HW147370  10.171   4.782   4.583
48491SOL    HW247371  10.096   4.887   4.504
48492SOL     OW47372   0.447  10.875  12.714
48492SOL    HW147373   0.513  10.810  12.737
48492SOL    HW247374   0.365  10.837  12.745
48493SOL     OW47375  14.806  12.820   6.456
48493SOL    HW147376  14.785  12.740   6.505
48493SOL    HW247377  14.722  12.864   6.444
48494SOL     OW47378   4.185  13.429   6.332
48494SOL    HW147379   4.112  13.464   6.281
48494SOL    HW247380   4.188  13.336   6.308
48495SOL     OW47381   8.219   2.887   7.462
48495SOL    HW147382   8.170   2.966   7.484
48495SOL    HW247383   8.227   2.889   7.367
48496SOL     OW47384   9.309   8.585   7.049
48496SOL    HW147385   9.341   8.585   7.140
48496SOL    HW247386   9.227   8.536   7.054
48497SOL     OW47387  12.544   9.407  13.027
48497SOL    HW147388  12.534   9.458  13.107
48497SOL    HW247389  12.500   9.458  12.959
48498SOL     OW47390  12.572   8.041   7.124
48498SOL    HW147391  12.509   7.972   7.101
48498SOL    HW247392  12.521   8.122   7.118
48499SOL     OW47393   7.198   5.327  11.607
48499SOL    HW147394   7.122   5.269  11.603
48499SOL    HW247395   7.201   5.357  11.698
48500SOL     OW47396   2.429   3.101   8.278
48500SOL    HW147397   2.396   3.186   8.247
48500SOL    HW247398   2.524   3.109   8.273
48501SOL     OW47399   9.529   9.919   6.832
48501SOL    HW147400   9.538   9.954   6.920
48501SOL    HW247401   9.609   9.869   6.817
48502SOL     OW47402   9.477   9.941  12.237
48502SOL    HW147403   9.562   9.985  12.226
48502SOL    HW247404   9.444   9.973  12.321
48503SOL     OW47405   7.697  12.016   6.498
48503SOL    HW147406   7.735  11.949   6.440
48503SOL    HW247407   7.674  12.088   6.439
48504SOL     OW47408  14.776   6.719   0.659
48504SOL    HW147409  14.723   6.792   0.691
48504SOL    HW247410  14.715   6.646   0.652
48505SOL     OW47411  11.955   5.188   0.998
48505SOL    HW147412  11.889   5.231   0.943
48505SOL    HW247413  12.004   5.132   0.936
48506SOL     OW47414  12.175   6.911  11.788
48506SOL    HW147415  12.096   6.918  11.734
48506SOL    HW247416  12.177   6.992  11.838
48507SOL     OW47417   7.825   7.897   8.308
48507SOL    HW147418   7.911   7.857   8.312
48507SOL    HW247419   7.833   7.978   8.358
48508SOL     OW47420   8.784   4.521   3.688
48508SOL    HW147421   8.856   4.562   3.735
48508SOL    HW247422   8.822   4.443   3.649
48509SOL     OW47423   7.251   5.428  10.345
48509SOL    HW147424   7.221   5.432  10.436
48509SOL    HW247425   7.346   5.429  10.351
48510SOL     OW47426  10.896   3.057   9.631
48510SOL    HW147427  10.903   3.142   9.588
48510SOL    HW247428  10.806   3.053   9.663
48511SOL     OW47429   6.847   1.981   4.171
48511SOL    HW147430   6.914   1.978   4.239
48511SOL    HW247431   6.885   2.033   4.101
48512SOL     OW47432   6.474  12.983  12.789
48512SOL    HW147433   6.392  13.017  12.753
48512SOL    HW247434   6.520  12.947  12.713
48513SOL     OW47435   8.772   1.628  13.845
48513SOL    HW147436   8.697   1.677  13.813
48513SOL    HW247437   8.734   1.556  13.896
48514SOL     OW47438   3.929   7.155   7.770
48514SOL    HW147439   3.877   7.076   7.780
48514SOL    HW247440   3.878   7.223   7.815
48515SOL     OW47441   3.903   4.136   8.397
48515SOL    HW147442   3.903   4.232   8.390
48515SOL    HW247443   3.848   4.118   8.473
48516SOL     OW47444   7.760   9.709   9.835
48516SOL    HW147445   7.740   9.718   9.741
48516SOL    HW247446   7.676   9.722   9.879
48517SOL     OW47447   9.151  10.815  10.122
48517SOL    HW147448   9.060  10.813  10.094
48517SOL    HW247449   9.179  10.724  10.119
48518SOL     OW47450  13.275  12.773   2.073
48518SOL    HW147451  13.251  12.692   2.119
48518SOL    HW247452  13.363  12.793   2.105
48519SOL     OW47453  14.568   5.427  10.454
48519SOL    HW147454  14.574   5.348  10.399
48519SOL    HW247455  14.560   5.393  10.543
48520SOL     OW47456   3.277   6.181   1.680
48520SOL    HW147457   3.326   6.106   1.647
48520SOL    HW247458   3.187   6.166   1.651
48521SOL     OW47459   5.150  14.478   5.044
48521SOL    HW147460   5.148  14.459   4.951
48521SOL    HW247461   5.239  14.453   5.071
48522SOL     OW47462  11.783   0.440   7.717
48522SOL    HW147463  11.802   0.346   7.722
48522SOL    HW247464  11.709   0.446   7.657
48523SOL     OW47465   6.056   5.512  13.778
48523SOL    HW147466   6.024   5.476  13.695
48523SOL    HW247467   6.081   5.602  13.757
48524SOL     OW47468   8.562   6.079   0.430
48524SOL    HW147469   8.636   6.130   0.461
48524SOL    HW247470   8.536   6.120   0.347
48525SOL     OW47471  12.390   0.777  12.946
48525SOL    HW147472  12.332   0.811  13.013
48525SOL    HW247473  12.332   0.738  12.881
48526SOL     OW47474   2.751   3.266  10.916
48526SOL    HW147475   2.661   3.240  10.936
48526SOL    HW247476   2.790   3.188  10.877
48527SOL     OW47477   3.005   1.151  14.030
48527SOL    HW147478   2.982   1.059  14.016
48527SOL    HW247479   3.098   1.155  14.010
48528SOL     OW47480   3.682   5.193   3.333
48528SOL    HW147481   3.618   5.257   3.365
48528SOL    HW247482   3.656   5.111   3.375
48529SOL     OW47483  13.638   1.014  13.761
48529SOL    HW147484  13.625   1.094  13.709
48529SOL    HW247485  13.623   1.041  13.851
48530SOL     OW47486   6.943  11.021  11.347
48530SOL    HW147487   6.932  11.007  11.253
48530SOL    HW247488   7.025  10.978  11.369
48531SOL     OW47489   0.600   8.383   1.256
48531SOL    HW147490   0.557   8.445   1.315
48531SOL    HW247491   0.570   8.297   1.285
48532SOL     OW47492   7.102   9.989   8.615
48532SOL    HW147493   7.128  10.015   8.703
48532SOL    HW247494   7.142   9.903   8.602
48533SOL     OW47495   3.387   3.407   9.025
48533SOL    HW147496   3.428   3.467   9.087
48533SOL    HW247497   3.386   3.455   8.942
48534SOL     OW47498   1.913   9.064  12.403
48534SOL    HW147499   1.819   9.060  12.421
48534SOL    HW247500   1.941   9.147  12.443
48535SOL     OW47501   0.357   7.081   2.924
48535SOL    HW147502   0.291   7.013   2.942
48535SOL    HW247503   0.323   7.159   2.969
48536SOL     OW47504  14.270   1.890  14.101
48536SOL    HW147505  14.335   1.957  14.120
48536SOL    HW247506  14.229   1.871  14.185
48537SOL     OW47507   0.161   2.505   9.201
48537SOL    HW147508   0.214   2.551   9.137
48537SOL    HW247509   0.121   2.575   9.253
48538SOL     OW47510   4.183  14.488   3.962
48538SOL    HW147511   4.270  14.448   3.955
48538SOL    HW247512   4.144  14.448   4.039
48539SOL     OW47513   1.212  14.286  13.866
48539SOL    HW147514   1.254  14.300  13.781
48539SOL    HW247515   1.261  14.213  13.905
48540SOL     OW47516  13.708   1.858  14.572
48540SOL    HW147517  13.624   1.887  14.535
48540SOL    HW247518  13.748   1.807  14.502
48541SOL     OW47519   6.497   0.014   3.925
48541SOL    HW147520   6.472  14.839   3.845
48541SOL    HW247521   6.450   0.097   3.920
48542SOL     OW47522   7.483   0.052  13.281
48542SOL    HW147523   7.556   0.111  13.265
48542SOL    HW247524   7.516  14.861  13.346
48543SOL     OW47525   9.599   7.008  12.417
48543SOL    HW147526   9.627   6.936  12.474
48543SOL    HW247527   9.562   6.965  12.340
48544SOL     OW47528  10.253   3.540   5.802
48544SOL    HW147529  10.334   3.494   5.779
48544SOL    HW247530  10.246   3.610   5.738
48545SOL     OW47531   8.251   9.416   4.128
48545SOL    HW147532   8.171   9.369   4.151
48545SOL    HW247533   8.263   9.479   4.198
48546SOL     OW47534  10.312   8.192  13.581
48546SOL    HW147535  10.351   8.268  13.538
48546SOL    HW247536  10.366   8.178  13.659
48547SOL     OW47537  11.779   2.829   3.214
48547SOL    HW147538  11.817   2.904   3.260
48547SOL    HW247539  11.702   2.807   3.266
48548SOL     OW47540   6.030  13.061  11.252
48548SOL    HW147541   6.052  13.137  11.306
48548SOL    HW247542   6.007  12.993  11.315
48549SOL     OW47543   3.810   5.064  14.631
48549SOL    HW147544   3.767   5.129  14.686
48549SOL    HW247545   3.740   5.004  14.606
48550SOL     OW47546   0.054   0.681   2.395
48550SOL    HW147547  14.848   0.629   2.376
48550SOL    HW247548   0.081   0.715   2.309
48551SOL     OW47549   1.355   7.022   8.361
48551SOL    HW147550   1.437   7.035   8.314
48551SOL    HW247551   1.341   6.928   8.360
48552SOL     OW47552   9.443   1.641  10.038
48552SOL    HW147553   9.382   1.627   9.965
48552SOL    HW247554   9.434   1.563  10.092
48553SOL     OW47555   4.363  14.478  12.225
48553SOL    HW147556   4.378  14.563  12.185
48553SOL    HW247557   4.339  14.498  12.316
48554SOL     OW47558   2.085  13.433   4.771
48554SOL    HW147559   2.152  13.368   4.790
48554SOL    HW247560   2.060  13.467   4.857
48555SOL     OW47561  13.798  13.790   2.081
48555SOL    HW147562  13.705  13.780   2.102
48555SOL    HW247563  13.823  13.707   2.041
48556SOL     OW47564   5.169   3.832  10.007
48556SOL    HW147565   5.089   3.802   9.964
48556SOL    HW247566   5.157   3.809  10.099
48557SOL     OW47567  10.732   6.860   9.056
48557SOL    HW147568  10.765   6.802   9.124
48557SOL    HW247569  10.681   6.803   8.998
48558SOL     OW47570   9.124   1.815   4.347
48558SOL    HW147571   9.034   1.810   4.379
48558SOL    HW247572   9.118   1.788   4.255
48559SOL     OW47573   7.069   4.906   3.302
48559SOL    HW147574   7.103   4.934   3.217
48559SOL    HW247575   7.008   4.836   3.281
48560SOL     OW47576   9.014   3.978   6.050
48560SOL    HW147577   9.001   3.886   6.071
48560SOL    HW247578   9.067   3.978   5.971
48561SOL     OW47579   3.275   5.998   4.992
48561SOL    HW147580   3.227   5.945   5.055
48561SOL    HW247581   3.328   6.057   5.046
48562SOL     OW47582   2.126  13.631  13.511
48562SOL    HW147583   2.032  13.617  13.523
48562SOL    HW247584   2.164  13.621  13.599
48563SOL     OW47585   1.499  10.724   8.797
48563SOL    HW147586   1.536  10.718   8.709
48563SOL    HW247587   1.573  10.707   8.855
48564SOL     OW47588   4.175   3.410   3.237
48564SOL    HW147589   4.139   3.324   3.256
48564SOL    HW247590   4.215   3.439   3.319
48565SOL     OW47591   7.467   3.163   3.575
48565SOL    HW147592   7.421   3.244   3.598
48565SOL    HW247593   7.555   3.192   3.552
48566SOL     OW47594   1.082   5.788  11.763
48566SOL    HW147595   1.147   5.763  11.698
48566SOL    HW247596   1.010   5.827  11.712
48567SOL     OW47597   4.475  11.391   4.467
48567SOL    HW147598   4.413  11.344   4.523
48567SOL    HW247599   4.446  11.372   4.378
48568SOL     OW47600  11.524   9.214   8.709
48568SOL    HW147601  11.453   9.154   8.686
48568SOL    HW247602  11.550   9.187   8.797
48569SOL     OW47603  12.534  12.093   9.092
48569SOL    HW147604  12.570  12.025   9.035
48569SOL    HW247605  12.560  12.066   9.180
48570SOL     OW47606   0.709   8.494   7.538
48570SOL    HW147607   0.629   8.546   7.529
48570SOL    HW247608   0.678   8.410   7.573
48571SOL     OW47609  10.443  13.929  11.546
48571SOL    HW147610  10.381  13.960  11.480
48571SOL    HW247611  10.473  13.845  11.513
48572SOL     OW47612  13.920  14.642   0.581
48572SOL    HW147613  14.008  14.675   0.566
48572SOL    HW247614  13.863  14.700   0.531
48573SOL     OW47615   8.249   1.810  10.409
48573SOL    HW147616   8.323   1.870  10.420
48573SOL    HW247617   8.270   1.759  10.331
48574SOL     OW47618  12.760   3.423   3.514
48574SOL    HW147619  12.840   3.456   3.554
48574SOL    HW247620  12.787   3.342   3.471
48575SOL     OW47621  13.383   3.698   3.923
48575SOL    HW147622  13.428   3.619   3.893
48575SOL    HW247623  13.347   3.737   3.843
48576SOL     OW47624   7.643   2.096   0.597
48576SOL    HW147625   7.579   2.062   0.661
48576SOL    HW247626   7.719   2.038   0.607
48577SOL     OW47627   3.474   5.676  12.080
48577SOL    HW147628   3.497   5.653  11.990
48577SOL    HW247629   3.393   5.727  12.071
48578SOL     OW47630   7.861  13.225   7.956
48578SOL    HW147631   7.893  13.297   8.010
48578SOL    HW247632   7.767  13.223   7.973
48579SOL     OW47633   4.498   6.994   2.127
48579SOL    HW147634   4.558   6.955   2.064
48579SOL    HW247635   4.437   6.924   2.148
48580SOL     OW47636  12.574  13.826  10.553
48580SOL    HW147637  12.644  13.843  10.617
48580SOL    HW247638  12.527  13.751  10.588
48581SOL     OW47639   0.922   6.209   6.555
48581SOL    HW147640   0.856   6.214   6.486
48581SOL    HW247641   0.953   6.118   6.551
48582SOL     OW47642   3.842  10.247  11.225
48582SOL    HW147643   3.874  10.184  11.161
48582SOL    HW247644   3.759  10.278  11.190
48583SOL     OW47645   8.508  11.557   2.647
48583SOL    HW147646   8.493  11.633   2.703
48583SOL    HW247647   8.549  11.492   2.704
48584SOL     OW47648  14.864   5.650  12.784
48584SOL    HW147649   0.011   5.602  12.865
48584SOL    HW247650  14.773   5.679  12.795
48585SOL     OW47651   8.556   1.963   6.499
48585SOL    HW147652   8.595   1.983   6.414
48585SOL    HW247653   8.535   1.869   6.494
48586SOL     OW47654   3.255   2.510   5.425
48586SOL    HW147655   3.348   2.489   5.426
48586SOL    HW247656   3.227   2.494   5.335
48587SOL     OW47657   7.384   7.040   5.143
48587SOL    HW147658   7.351   6.969   5.197
48587SOL    HW247659   7.339   7.118   5.174
48588SOL     OW47660   5.424   5.654  13.259
48588SOL    HW147661   5.449   5.732  13.209
48588SOL    HW247662   5.331   5.666  13.278
48589SOL     OW47663  12.265   4.648   8.735
48589SOL    HW147664  12.283   4.570   8.683
48589SOL    HW247665  12.248   4.716   8.670
48590SOL     OW47666  13.029   0.067   2.096
48590SOL    HW147667  12.966   0.138   2.090
48590SOL    HW247668  13.072   0.065   2.011
48591SOL     OW47669   7.093   2.577   0.836
48591SOL    HW147670   7.087   2.653   0.779
48591SOL    HW247671   7.036   2.511   0.795
48592SOL     OW47672  12.024  13.945   4.093
48592SOL    HW147673  12.069  13.955   4.176
48592SOL    HW247674  12.004  14.034   4.066
48593SOL     OW47675   5.309   3.261   7.263
48593SOL    HW147676   5.289   3.270   7.356
48593SOL    HW247677   5.403   3.276   7.256
48594SOL     OW47678   3.013  11.388   5.304
48594SOL    HW147679   3.019  11.481   5.328
48594SOL    HW247680   3.079  11.345   5.358
48595SOL     OW47681   0.752  10.242   9.001
48595SOL    HW147682   0.844  10.266   8.995
48595SOL    HW247683   0.705  10.316   8.962
48596SOL     OW47684  12.458  10.411   7.910
48596SOL    HW147685  12.488  10.366   7.831
48596SOL    HW247686  12.417  10.491   7.878
48597SOL     OW47687   2.446   0.442   8.254
48597SOL    HW147688   2.457   0.502   8.180
48597SOL    HW247689   2.408   0.363   8.215
48598SOL     OW47690  12.315   5.898  13.965
48598SOL    HW147691  12.267   5.881  13.884
48598SOL    HW247692  12.256   5.954  14.016
48599SOL     OW47693   3.068   8.201   7.002
48599SOL    HW147694   3.032   8.248   6.927
48599SOL    HW247695   3.138   8.258   7.035
48600SOL     OW47696   2.650   3.658   3.048
48600SOL    HW147697   2.573   3.654   2.993
48600SOL    HW247698   2.617   3.685   3.134
48601SOL     OW47699   2.802   9.938   5.193
48601SOL    HW147700   2.795   9.970   5.283
48601SOL    HW247701   2.778   9.845   5.199
48602SOL     OW47702  11.394   8.585   2.071
48602SOL    HW147703  11.330   8.619   2.008
48602SOL    HW247704  11.474   8.635   2.052
48603SOL     OW47705   4.267   9.733   0.827
48603SOL    HW147706   4.232   9.647   0.853
48603SOL    HW247707   4.211   9.796   0.872
48604SOL     OW47708   7.737   7.879   8.631
48604SOL    HW147709   7.722   7.962   8.677
48604SOL    HW247710   7.679   7.883   8.555
48605SOL     OW47711   5.249   5.553   3.766
48605SOL    HW147712   5.337   5.516   3.762
48605SOL    HW247713   5.259   5.633   3.817
48606SOL     OW47714  11.449  10.580   6.170
48606SOL    HW147715  11.396  10.658   6.180
48606SOL    HW247716  11.419  10.520   6.238
48607SOL     OW47717  10.081  13.725   9.768
48607SOL    HW147718  10.135  13.646   9.771
48607SOL    HW247719   9.992  13.693   9.783
48608SOL     OW47720   6.539  11.950   8.478
48608SOL    HW147721   6.596  12.011   8.525
48608SOL    HW247722   6.558  11.865   8.517
48609SOL     OW47723   2.751  12.890  13.381
48609SOL    HW147724   2.756  12.813  13.438
48609SOL    HW247725   2.842  12.915  13.366
48610SOL     OW47726  13.624   7.687  12.385
48610SOL    HW147727  13.685   7.757  12.406
48610SOL    HW247728  13.613   7.691  12.290
48611SOL     OW47729  12.314  12.615   8.182
48611SOL    HW147730  12.335  12.532   8.225
48611SOL    HW247731  12.343  12.602   8.091
48612SOL     OW47732   8.901   5.097   3.858
48612SOL    HW147733   8.822   5.138   3.822
48612SOL    HW247734   8.868   5.029   3.916
48613SOL     OW47735   5.260   2.894   0.596
48613SOL    HW147736   5.231   2.933   0.514
48613SOL    HW247737   5.352   2.921   0.604
48614SOL     OW47738   0.043   6.979   6.551
48614SOL    HW147739  14.857   6.903   6.554
48614SOL    HW247740   0.031   7.022   6.635
48615SOL     OW47741  13.007   8.350   1.951
48615SOL    HW147742  13.055   8.405   2.013
48615SOL    HW247743  12.926   8.398   1.934
48616SOL     OW47744  12.893   5.789   9.349
48616SOL    HW147745  12.849   5.844   9.284
48616SOL    HW247746  12.881   5.836   9.432
48617SOL     OW47747   9.362   7.072  13.237
48617SOL    HW147748   9.310   7.104  13.163
48617SOL    HW247749   9.302   7.016  13.286
48618SOL     OW47750   6.643   5.272   2.795
48618SOL    HW147751   6.564   5.272   2.741
48618SOL    HW247752   6.711   5.232   2.739
48619SOL     OW47753  11.635   8.454   3.982
48619SOL    HW147754  11.658   8.510   4.056
48619SOL    HW247755  11.600   8.513   3.917
48620SOL     OW47756   6.395   7.184   1.772
48620SOL    HW147757   6.321   7.136   1.734
48620SOL    HW247758   6.472   7.145   1.733
48621SOL     OW47759   5.353   3.451   9.372
48621SOL    HW147760   5.444   3.474   9.352
48621SOL    HW247761   5.359   3.362   9.408
48622SOL     OW47762   4.120   3.001   1.966
48622SOL    HW147763   4.115   3.013   1.871
48622SOL    HW247764   4.036   3.031   1.999
48623SOL     OW47765   1.013  10.761  11.795
48623SOL    HW147766   0.920  10.761  11.820
48623SOL    HW247767   1.041  10.852  11.810
48624SOL     OW47768   5.360   7.863   1.193
48624SOL    HW147769   5.297   7.885   1.262
48624SOL    HW247770   5.346   7.929   1.126
48625SOL     OW47771   4.794   2.730  12.203
48625SOL    HW147772   4.885   2.751  12.183
48625SOL    HW247773   4.793   2.636  12.219
48626SOL     OW47774  13.842   0.395  13.904
48626SOL    HW147775  13.836   0.308  13.944
48626SOL    HW247776  13.754   0.413  13.872
48627SOL     OW47777   0.042   2.257   5.769
48627SOL    HW147778   0.007   2.346   5.763
48627SOL    HW247779  14.843   2.201   5.736
48628SOL     OW47780   2.731  11.492   1.997
48628SOL    HW147781   2.649  11.528   2.028
48628SOL    HW247782   2.754  11.545   1.921
48629SOL     OW47783   7.015   0.668   5.069
48629SOL    HW147784   6.959   0.644   5.144
48629SOL    HW247785   6.955   0.709   5.007
48630SOL     OW47786   0.635  11.918  10.489
48630SOL    HW147787   0.584  11.972  10.429
48630SOL    HW247788   0.577  11.845  10.511
48631SOL     OW47789   0.197  12.167  13.515
48631SOL    HW147790   0.179  12.079  13.547
48631SOL    HW247791   0.205  12.158  13.420
48632SOL     OW47792  14.683   5.091   6.837
48632SOL    HW147793  14.766   5.082   6.884
48632SOL    HW247794  14.695   5.039   6.757
48633SOL     OW47795   2.257   5.383  13.511
48633SOL    HW147796   2.249   5.294  13.476
48633SOL    HW247797   2.235   5.439  13.436
48634SOL     OW47798   2.512   6.923   7.075
48634SOL    HW147799   2.446   6.892   7.137
48634SOL    HW247800   2.512   6.857   7.006
48635SOL     OW47801   4.904   2.712   3.342
48635SOL    HW147802   4.887   2.806   3.337
48635SOL    HW247803   4.990   2.702   3.300
48636SOL     OW47804   1.194  11.018   0.661
48636SOL    HW147805   1.233  11.067   0.588
48636SOL    HW247806   1.269  10.992   0.715
48637SOL     OW47807  14.149   9.164   7.621
48637SOL    HW147808  14.088   9.193   7.688
48637SOL    HW247809  14.203   9.241   7.603
48638SOL     OW47810   1.009   5.820  10.666
48638SOL    HW147811   1.077   5.798  10.730
48638SOL    HW247812   1.012   5.916  10.662
48639SOL     OW47813  11.903   2.794   2.440
48639SOL    HW147814  11.893   2.888   2.425
48639SOL    HW247815  11.974   2.788   2.504
48640SOL     OW47816   6.742   6.294   3.051
48640SOL    HW147817   6.755   6.375   3.101
48640SOL    HW247818   6.778   6.313   2.964
48641SOL     OW47819  10.210   3.714   0.172
48641SOL    HW147820  10.165   3.694   0.254
48641SOL    HW247821  10.277   3.646   0.165
48642SOL     OW47822   0.494  10.749  10.104
48642SOL    HW147823   0.431  10.811  10.141
48642SOL    HW247824   0.442  10.695  10.045
48643SOL     OW47825   7.572   6.208   2.630
48643SOL    HW147826   7.489   6.209   2.679
48643SOL    HW247827   7.586   6.299   2.605
48644SOL     OW47828   6.001  13.199   2.284
48644SOL    HW147829   6.033  13.113   2.258
48644SOL    HW247830   5.947  13.227   2.210
48645SOL     OW47831   0.627   2.533  11.371
48645SOL    HW147832   0.673   2.586  11.436
48645SOL    HW247833   0.644   2.577  11.288
48646SOL     OW47834  10.380  12.698  14.365
48646SOL    HW147835  10.336  12.631  14.314
48646SOL    HW247836  10.375  12.667  14.456
48647SOL     OW47837  11.523   9.662   5.688
48647SOL    HW147838  11.444   9.645   5.637
48647SOL    HW247839  11.583   9.591   5.664
48648SOL     OW47840   4.789  14.184   3.489
48648SOL    HW147841   4.745  14.130   3.424
48648SOL    HW247842   4.776  14.137   3.572
48649SOL     OW47843  13.285   2.983   7.080
48649SOL    HW147844  13.251   2.998   7.168
48649SOL    HW247845  13.234   2.909   7.047
48650SOL     OW47846  13.118  10.005   7.658
48650SOL    HW147847  13.076   9.982   7.575
48650SOL    HW247848  13.212  10.006   7.637
48651SOL     OW47849   9.227   7.479   1.507
48651SOL    HW147850   9.196   7.531   1.581
48651SOL    HW247851   9.302   7.528   1.473
48652SOL     OW47852   2.142  12.717   5.002
48652SOL    HW147853   2.065  12.767   5.030
48652SOL    HW247854   2.114  12.672   4.922
48653SOL     OW47855  10.434   6.816   7.111
48653SOL    HW147856  10.426   6.861   7.027
48653SOL    HW247857  10.345   6.819   7.147
48654SOL     OW47858   7.006  14.432  12.880
48654SOL    HW147859   7.005  14.344  12.917
48654SOL    HW247860   7.094  14.465  12.897
48655SOL     OW47861  11.043   8.233  13.158
48655SOL    HW147862  10.979   8.303  13.171
48655SOL    HW247863  11.106   8.245  13.229
48656SOL     OW47864   3.602   1.192   1.522
48656SOL    HW147865   3.532   1.254   1.504
48656SOL    HW247866   3.661   1.199   1.446
48657SOL     OW47867  11.539   2.962   0.874
48657SOL    HW147868  11.496   2.877   0.884
48657SOL    HW247869  11.483   3.010   0.813
48658SOL     OW47870   4.506  12.024  11.141
48658SOL    HW147871   4.414  12.039  11.120
48658SOL    HW247872   4.531  12.098  11.197
48659SOL     OW47873  10.141  13.810  12.250
48659SOL    HW147874  10.213  13.853  12.297
48659SOL    HW247875  10.081  13.781  12.319
48660SOL     OW47876   1.989  10.429   1.515
48660SOL    HW147877   2.029  10.463   1.595
48660SOL    HW247878   1.923  10.495   1.491
48661SOL     OW47879  13.825   0.681  14.548
48661SOL    HW147880  13.757   0.662  14.612
48661SOL    HW247881  13.890   0.612  14.561
48662SOL     OW47882   7.239  12.606   0.014
48662SOL    HW147883   7.288  12.685   0.035
48662SOL    HW247884   7.305  12.536   0.013
48663SOL     OW47885   5.493   7.278   1.212
48663SOL    HW147886   5.562   7.317   1.265
48663SOL    HW247887   5.486   7.336   1.136
48664SOL     OW47888  13.176   0.441  14.730
48664SOL    HW147889  13.148   0.510  14.670
48664SOL    HW247890  13.109   0.438  14.798
48665SOL     OW47891  10.247  13.582  10.079
48665SOL    HW147892  10.195  13.575  10.159
48665SOL    HW247893  10.278  13.673  10.078
48666SOL     OW47894  11.843  11.418   7.320
48666SOL    HW147895  11.789  11.497   7.320
48666SOL    HW247896  11.780  11.346   7.326
48667SOL     OW47897   3.398   0.205  12.848
48667SOL    HW147898   3.324   0.262  12.870
48667SOL    HW247899   3.373   0.119  12.882
48668SOL     OW47900   2.609   1.686  10.316
48668SOL    HW147901   2.686   1.706  10.368
48668SOL    HW247902   2.626   1.600  10.278
48669SOL     OW47903   8.720  12.232   8.070
48669SOL    HW147904   8.676  12.147   8.073
48669SOL    HW247905   8.757  12.243   8.158
48670SOL     OW47906  12.716   2.788   9.348
48670SOL    HW147907  12.641   2.763   9.402
48670SOL    HW247908  12.730   2.881   9.366
48671SOL     OW47909   6.743  10.959  14.681
48671SOL    HW147910   6.699  10.874  14.689
48671SOL    HW247911   6.829  10.945  14.720
48672SOL     OW47912   8.927   0.637   8.246
48672SOL    HW147913   8.997   0.575   8.268
48672SOL    HW247914   8.968   0.697   8.184
48673SOL     OW47915   0.732  10.639   0.611
48673SOL    HW147916   0.800  10.705   0.595
48673SOL    HW247917   0.658  10.689   0.646
48674SOL     OW47918  12.581   6.996  14.596
48674SOL    HW147919  12.518   6.962  14.659
48674SOL    HW247920  12.666   6.976  14.633
48675SOL     OW47921   3.756   8.800   8.229
48675SOL    HW147922   3.747   8.764   8.140
48675SOL    HW247923   3.840   8.845   8.228
48676SOL     OW47924   1.596   2.331  13.404
48676SOL    HW147925   1.564   2.412  13.364
48676SOL    HW247926   1.645   2.360  13.481
48677SOL     OW47927  10.548   2.774   8.980
48677SOL    HW147928  10.564   2.707   9.047
48677SOL    HW247929  10.463   2.752   8.944
48678SOL     OW47930   7.647  13.946   9.707
48678SOL    HW147931   7.713  13.882   9.680
48678SOL    HW247932   7.637  14.004   9.632
48679SOL     OW47933  13.228   4.069   7.004
48679SOL    HW147934  13.313   4.106   6.979
48679SOL    HW247935  13.217   4.095   7.096
48680SOL     OW47936   8.054   5.682   5.853
48680SOL    HW147937   8.044   5.597   5.809
48680SOL    HW247938   7.995   5.677   5.928
48681SOL     OW47939  13.629   5.563  10.210
48681SOL    HW147940  13.536   5.582  10.202
48681SOL    HW247941  13.667   5.641  10.251
48682SOL     OW47942  12.071   6.187   6.485
48682SOL    HW147943  12.119   6.244   6.424
48682SOL    HW247944  11.983   6.180   6.446
48683SOL     OW47945   0.869   8.169  14.129
48683SOL    HW147946   0.877   8.077  14.156
48683SOL    HW247947   0.777   8.180  14.108
48684SOL     OW47948   9.409   3.279   7.283
48684SOL    HW147949   9.355   3.224   7.226
48684SOL    HW247950   9.374   3.265   7.371
48685SOL     OW47951  11.164   1.035   7.482
48685SOL    HW147952  11.186   1.092   7.409
48685SOL    HW247953  11.169   0.947   7.446
48686SOL     OW47954  10.360  13.689   2.453
48686SOL    HW147955  10.346  13.618   2.391
48686SOL    HW247956  10.449  13.675   2.486
48687SOL     OW47957   4.855  12.762   7.469
48687SOL    HW147958   4.889  12.755   7.558
48687SOL    HW247959   4.930  12.791   7.417
48688SOL     OW47960   7.290   8.601  10.391
48688SOL    HW147961   7.243   8.555  10.461
48688SOL    HW247962   7.345   8.665  10.437
48689SOL     OW47963   6.877   3.912   8.192
48689SOL    HW147964   6.912   3.918   8.102
48689SOL    HW247965   6.894   3.821   8.217
48690SOL     OW47966   5.377  12.845  13.905
48690SOL    HW147967   5.377  12.757  13.941
48690SOL    HW247968   5.324  12.896  13.966
48691SOL     OW47969   1.224   2.782   5.996
48691SOL    HW147970   1.170   2.824   6.063
48691SOL    HW247971   1.312   2.817   6.009
48692SOL     OW47972   6.667  12.086  12.446
48692SOL    HW147973   6.589  12.135  12.470
48692SOL    HW247974   6.644  12.040  12.366
48693SOL     OW47975  12.017   0.607  12.036
48693SOL    HW147976  12.098   0.637  12.077
48693SOL    HW247977  11.973   0.554  12.103
48694SOL     OW47978  10.465  10.509   9.223
48694SOL    HW147979  10.405  10.464   9.164
48694SOL    HW247980  10.435  10.484   9.311
48695SOL     OW47981  13.104  10.847   3.808
48695SOL    HW147982  13.051  10.878   3.881
48695SOL    HW247983  13.191  10.886   3.823
48696SOL     OW47984   3.559  11.022   3.752
48696SOL    HW147985   3.468  10.995   3.766
48696SOL    HW247986   3.573  11.010   3.658
48697SOL     OW47987   0.721  10.781   0.130
48697SOL    HW147988   0.640  10.760   0.082
48697SOL    HW247989   0.706  10.748   0.218
48698SOL     OW47990   7.251  12.760  12.483
48698SOL    HW147991   7.202  12.710  12.548
48698SOL    HW247992   7.232  12.852  12.505
48699SOL     OW47993  11.958   7.874  12.960
48699SOL    HW147994  12.047   7.844  12.946
48699SOL    HW247995  11.936   7.922  12.880
48700SOL     OW47996   6.408   9.016  10.069
48700SOL    HW147997   6.410   8.976  10.156
48700SOL    HW247998   6.320   9.000  10.037
48701SOL     OW47999   7.257  12.697   3.711
48701SOL    HW148000   7.184  12.634   3.709
48701SOL    HW248001   7.220  12.775   3.752
48702SOL     OW48002   5.716   1.454   5.063
48702SOL    HW148003   5.787   1.397   5.092
48702SOL    HW248004   5.653   1.453   5.135
48703SOL     OW48005  13.007  14.196   0.391
48703SOL    HW148006  13.007  14.257   0.317
48703SOL    HW248007  13.100  14.183   0.411
48704SOL     OW48008  10.031   4.200   5.602
48704SOL    HW148009  10.074   4.141   5.539
48704SOL    HW248010   9.962   4.243   5.551
48705SOL     OW48011  11.886   0.479  11.816
48705SOL    HW148012  11.913   0.547  11.877
48705SOL    HW248013  11.836   0.525  11.749
48706SOL     OW48014   3.885   1.280   9.183
48706SOL    HW148015   3.857   1.371   9.172
48706SOL    HW248016   3.882   1.243   9.094
48707SOL     OW48017  10.676   2.073  13.585
48707SOL    HW148018  10.729   2.079  13.506
48707SOL    HW248019  10.624   2.154  13.586
48708SOL     OW48020   2.886   4.370  11.320
48708SOL    HW148021   2.923   4.375  11.232
48708SOL    HW248022   2.793   4.390  11.308
48709SOL     OW48023  13.779  11.681   5.442
48709SOL    HW148024  13.859  11.648   5.401
48709SOL    HW248025  13.742  11.604   5.487
48710SOL     OW48026  14.265   8.126   6.643
48710SOL    HW148027  14.299   8.084   6.722
48710SOL    HW248028  14.197   8.067   6.611
48711SOL     OW48029   1.383   3.035  12.295
48711SOL    HW148030   1.300   3.080  12.306
48711SOL    HW248031   1.370   2.949  12.336
48712SOL     OW48032  12.886   4.636   9.099
48712SOL    HW148033  12.798   4.672   9.103
48712SOL    HW248034  12.940   4.698   9.148
48713SOL     OW48035  11.164   8.072   9.497
48713SOL    HW148036  11.168   8.026   9.414
48713SOL    HW248037  11.072   8.093   9.509
48714SOL     OW48038   8.892   8.073  12.929
48714SOL    HW148039   8.983   8.091  12.953
48714SOL    HW248040   8.899   8.026  12.845
48715SOL     OW48041   8.600   3.012   6.235
48715SOL    HW148042   8.692   2.984   6.235
48715SOL    HW248043   8.555   2.944   6.183
48716SOL     OW48044  14.017   9.235   5.295
48716SOL    HW148045  14.078   9.231   5.369
48716SOL    HW248046  14.063   9.288   5.230
48717SOL     OW48047  10.847   9.931   2.678
48717SOL    HW148048  10.892   9.848   2.695
48717SOL    HW248049  10.756   9.906   2.664
48718SOL     OW48050   4.154   7.361   3.418
48718SOL    HW148051   4.176   7.431   3.357
48718SOL    HW248052   4.146   7.404   3.503
48719SOL     OW48053  10.627  10.529   8.590
48719SOL    HW148054  10.677  10.501   8.513
48719SOL    HW248055  10.619  10.449   8.643
48720SOL     OW48056  12.666   8.362   3.243
48720SOL    HW148057  12.696   8.446   3.209
48720SOL    HW248058  12.728   8.340   3.312
48721SOL     OW48059  10.045  10.124  11.225
48721SOL    HW148060  10.028  10.097  11.135
48721SOL    HW248061   9.967  10.096  11.273
48722SOL     OW48062   7.882   2.944  11.982
48722SOL    HW148063   7.950   2.891  11.940
48722SOL    HW248064   7.922   2.975  12.063
48723SOL     OW48065   2.285   0.800   9.565
48723SOL    HW148066   2.333   0.881   9.582
48723SOL    HW248067   2.218   0.797   9.634
48724SOL     OW48068  13.943  13.101   4.213
48724SOL    HW148069  13.939  13.114   4.118
48724SOL    HW248070  13.906  13.181   4.250
48725SOL     OW48071   7.057  14.008   3.941
48725SOL    HW148072   7.057  13.926   3.891
48725SOL    HW248073   7.010  14.070   3.885
48726SOL     OW48074   2.839   4.309  11.568
48726SOL    HW148075   2.848   4.324  11.474
48726SOL    HW248076   2.831   4.396  11.606
48727SOL     OW48077   7.643   8.468   2.244
48727SOL    HW148078   7.688   8.522   2.308
48727SOL    HW248079   7.654   8.378   2.275
48728SOL     OW48080   4.380  13.633   9.540
48728SOL    HW148081   4.454  13.658   9.597
48728SOL    HW248082   4.314  13.599   9.600
48729SOL     OW48083  11.011  11.655   2.156
48729SOL    HW148084  11.078  11.615   2.210
48729SOL    HW248085  10.983  11.732   2.205
48730SOL     OW48086   3.893   4.046  13.199
48730SOL    HW148087   3.917   4.137  13.179
48730SOL    HW248088   3.813   4.031  13.149
48731SOL     OW48089   5.690   1.245   3.340
48731SOL    HW148090   5.690   1.218   3.248
48731SOL    HW248091   5.600   1.272   3.358
48732SOL     OW48092   3.213   5.697   2.706
48732SOL    HW148093   3.193   5.779   2.751
48732SOL    HW248094   3.186   5.629   2.767
48733SOL     OW48095   7.545   5.144  10.907
48733SOL    HW148096   7.590   5.226  10.888
48733SOL    HW248097   7.615   5.078  10.906
48734SOL     OW48098   1.647  14.198   2.857
48734SOL    HW148099   1.582  14.238   2.800
48734SOL    HW248100   1.701  14.145   2.798
48735SOL     OW48101   6.189  10.382  14.181
48735SOL    HW148102   6.237  10.314  14.135
48735SOL    HW248103   6.188  10.457  14.121
48736SOL     OW48104   4.091  13.531  11.098
48736SOL    HW148105   4.170  13.581  11.077
48736SOL    HW248106   4.098  13.515  11.192
48737SOL     OW48107   0.533  14.169   0.061
48737SOL    HW148108   0.622  14.187   0.031
48737SOL    HW248109   0.479  14.184  14.855
48738SOL     OW48110   0.850  14.578   2.344
48738SOL    HW148111   0.901  14.540   2.272
48738SOL    HW248112   0.818  14.503   2.393
48739SOL     OW48113  11.005  11.248   3.825
48739SOL    HW148114  10.979  11.291   3.743
48739SOL    HW248115  11.067  11.180   3.799
48740SOL     OW48116   4.636  13.832   5.628
48740SOL    HW148117   4.652  13.924   5.608
48740SOL    HW248118   4.722  13.791   5.619
48741SOL     OW48119  13.507  14.097  10.760
48741SOL    HW148120  13.422  14.071  10.726
48741SOL    HW248121  13.487  14.153  10.835
48742SOL     OW48122  10.832   2.314   5.729
48742SOL    HW148123  10.747   2.358   5.723
48742SOL    HW248124  10.889   2.363   5.669
48743SOL     OW48125   5.836  12.002   4.642
48743SOL    HW148126   5.825  12.018   4.736
48743SOL    HW248127   5.821  11.907   4.632
48744SOL     OW48128   5.167   1.885  11.311
48744SOL    HW148129   5.262   1.891  11.304
48744SOL    HW248130   5.152   1.815  11.374
48745SOL     OW48131   7.637   0.578  14.171
48745SOL    HW148132   7.559   0.607  14.124
48745SOL    HW248133   7.699   0.554  14.102
48746SOL     OW48134  13.659   6.758   7.404
48746SOL    HW148135  13.705   6.675   7.390
48746SOL    HW248136  13.720   6.810   7.457
48747SOL     OW48137   0.737   0.669  13.589
48747SOL    HW148138   0.813   0.717  13.621
48747SOL    HW248139   0.746   0.670  13.494
48748SOL     OW48140   8.986  13.023  13.030
48748SOL    HW148141   8.991  13.004  12.937
48748SOL    HW248142   8.903  13.070  13.041
48749SOL     OW48143   3.992   3.889  10.140
48749SOL    HW148144   4.032   3.843  10.214
48749SOL    HW248145   4.065   3.937  10.100
48750SOL     OW48146   9.938   5.636  11.948
48750SOL    HW148147   9.926   5.728  11.926
48750SOL    HW248148  10.033   5.625  11.953
48751SOL     OW48149  14.401  11.758   3.448
48751SOL    HW148150  14.315  11.720   3.466
48751SOL    HW248151  14.396  11.846   3.484
48752SOL     OW48152   6.988   0.626  13.590
48752SOL    HW148153   7.037   0.567  13.533
48752SOL    HW248154   6.915   0.657  13.537
48753SOL     OW48155   8.187   7.236  12.641
48753SOL    HW148156   8.137   7.285  12.706
48753SOL    HW248157   8.182   7.145  12.671
48754SOL     OW48158   1.638   5.072   0.283
48754SOL    HW148159   1.606   5.018   0.355
48754SOL    HW248160   1.673   5.150   0.326
48755SOL     OW48161   6.730   7.837  14.546
48755SOL    HW148162   6.695   7.900  14.608
48755SOL    HW248163   6.677   7.848  14.467
48756SOL     OW48164   7.805  13.351   8.683
48756SOL    HW148165   7.818  13.287   8.612
48756SOL    HW248166   7.849  13.430   8.652
48757SOL     OW48167   0.146  10.075   5.318
48757SOL    HW148168   0.192  10.158   5.308
48757SOL    HW248169   0.216  10.009   5.317
48758SOL     OW48170   9.173   5.635  13.696
48758SOL    HW148171   9.093   5.683  13.719
48758SOL    HW248172   9.200   5.671  13.612
48759SOL     OW48173   9.241   3.983   9.093
48759SOL    HW148174   9.225   3.893   9.120
48759SOL    HW248175   9.160   4.029   9.115
48760SOL     OW48176   7.356   6.436  11.107
48760SOL    HW148177   7.423   6.499  11.134
48760SOL    HW248178   7.402   6.352  11.106
48761SOL     OW48179   7.669  14.079  14.153
48761SOL    HW148180   7.677  14.035  14.069
48761SOL    HW248181   7.679  14.010  14.218
48762SOL     OW48182  13.568   7.261   8.815
48762SOL    HW148183  13.501   7.196   8.834
48762SOL    HW248184  13.520   7.343   8.803
48763SOL     OW48185   6.381   5.482   3.079
48763SOL    HW148186   6.446   5.469   3.147
48763SOL    HW248187   6.297   5.486   3.126
48764SOL     OW48188   9.120  10.507   4.798
48764SOL    HW148189   9.056  10.543   4.859
48764SOL    HW248190   9.203  10.510   4.845
48765SOL     OW48191  14.477   1.217   9.602
48765SOL    HW148192  14.401   1.276   9.597
48765SOL    HW248193  14.487   1.198   9.695
48766SOL     OW48194  14.575   7.163  12.934
48766SOL    HW148195  14.560   7.255  12.916
48766SOL    HW248196  14.487   7.123  12.929
48767SOL     OW48197   5.202   4.666   5.771
48767SOL    HW148198   5.146   4.709   5.707
48767SOL    HW248199   5.290   4.671   5.734
48768SOL     OW48200  13.589  10.777   4.183
48768SOL    HW148201  13.495  10.782   4.196
48768SOL    HW248202  13.625  10.769   4.272
48769SOL     OW48203   9.158   1.608   6.700
48769SOL    HW148204   9.173   1.533   6.757
48769SOL    HW248205   9.166   1.684   6.758
48770SOL     OW48206   2.863   6.625   8.105
48770SOL    HW148207   2.936   6.625   8.167
48770SOL    HW248208   2.887   6.560   8.040
48771SOL     OW48209   1.757   3.948   5.610
48771SOL    HW148210   1.797   3.890   5.544
48771SOL    HW248211   1.677   3.979   5.568
48772SOL     OW48212   3.082   2.974  14.588
48772SOL    HW148213   2.997   2.932  14.577
48772SOL    HW248214   3.075   3.023  14.670
48773SOL     OW48215  11.737  11.897   2.033
48773SOL    HW148216  11.754  11.992   2.028
48773SOL    HW248217  11.679  11.887   2.107
48774SOL     OW48218   4.531  12.045   6.709
48774SOL    HW148219   4.558  12.029   6.619
48774SOL    HW248220   4.587  11.988   6.762
48775SOL     OW48221   5.063  11.999   7.507
48775SOL    HW148222   5.148  12.037   7.529
48775SOL    HW248223   5.022  11.983   7.592
48776SOL     OW48224  10.543   7.564   4.085
48776SOL    HW148225  10.523   7.606   4.168
48776SOL    HW248226  10.523   7.471   4.100
48777SOL     OW48227   3.194   1.441  13.990
48777SOL    HW148228   3.234   1.368  14.036
48777SOL    HW248229   3.150   1.492  14.059
48778SOL     OW48230  11.520   6.284  13.130
48778SOL    HW148231  11.442   6.260  13.080
48778SOL    HW248232  11.534   6.211  13.189
48779SOL     OW48233  12.666   3.034   5.943
48779SOL    HW148234  12.665   3.123   5.906
48779SOL    HW248235  12.758   3.008   5.941
48780SOL     OW48236   0.169   1.559   0.685
48780SOL    HW148237   0.229   1.633   0.682
48780SOL    HW248238   0.218   1.486   0.646
48781SOL     OW48239   3.905  13.579   4.021
48781SOL    HW148240   3.894  13.673   4.036
48781SOL    HW248241   3.875  13.539   4.102
48782SOL     OW48242  13.469   4.276  14.698
48782SOL    HW148243  13.438   4.343  14.637
48782SOL    HW248244  13.529   4.322  14.757
48783SOL     OW48245  10.197  10.581  14.054
48783SOL    HW148246  10.192  10.639  14.130
48783SOL    HW248247  10.221  10.639  13.982
48784SOL     OW48248  12.184   4.199   7.552
48784SOL    HW148249  12.135   4.281   7.558
48784SOL    HW248250  12.256   4.210   7.613
48785SOL     OW48251   3.254   7.697   6.229
48785SOL    HW148252   3.269   7.792   6.223
48785SOL    HW248253   3.272   7.676   6.320
48786SOL     OW48254   8.242   1.843  10.787
48786SOL    HW148255   8.243   1.816  10.695
48786SOL    HW248256   8.233   1.939  10.784
48787SOL     OW48257  13.269   8.878  10.629
48787SOL    HW148258  13.192   8.914  10.673
48787SOL    HW248259  13.236   8.842  10.547
48788SOL     OW48260   7.970   9.360   9.855
48788SOL    HW148261   8.006   9.374   9.767
48788SOL    HW248262   7.987   9.442   9.901
48789SOL     OW48263   6.670   2.962   1.189
48789SOL    HW148264   6.740   2.906   1.222
48789SOL    HW248265   6.589   2.915   1.209
48790SOL     OW48266  10.367  11.919  11.713
48790SOL    HW148267  10.280  11.955  11.699
48790SOL    HW248268  10.422  11.962  11.646
48791SOL     OW48269   8.717   3.991   1.860
48791SOL    HW148270   8.760   4.065   1.817
48791SOL    HW248271   8.765   3.979   1.942
48792SOL     OW48272   7.776   2.780   4.745
48792SOL    HW148273   7.688   2.813   4.759
48792SOL    HW248274   7.783   2.705   4.805
48793SOL     OW48275   0.937  10.808  13.784
48793SOL    HW148276   0.907  10.898  13.770
48793SOL    HW248277   0.918  10.763  13.702
48794SOL     OW48278  10.714   1.921  11.927
48794SOL    HW148279  10.623   1.910  11.952
48794SOL    HW248280  10.764   1.870  11.991
48795SOL     OW48281   6.574   1.327   2.516
48795SOL    HW148282   6.596   1.247   2.562
48795SOL    HW248283   6.602   1.312   2.426
48796SOL     OW48284  14.573   2.783   1.083
48796SOL    HW148285  14.657   2.821   1.107
48796SOL    HW248286  14.570   2.787   0.988
48797SOL     OW48287   4.314  11.241   8.429
48797SOL    HW148288   4.336  11.149   8.446
48797SOL    HW248289   4.337  11.286   8.510
48798SOL     OW48290   9.964   0.717  10.258
48798SOL    HW148291   9.885   0.686  10.304
48798SOL    HW248292  10.028   0.730  10.327
48799SOL     OW48293   3.954  13.481   8.888
48799SOL    HW148294   4.020  13.419   8.919
48799SOL    HW248295   3.988  13.567   8.912
48800SOL     OW48296  13.252  12.836  14.398
48800SOL    HW148297  13.195  12.765  14.427
48800SOL    HW248298  13.337  12.815  14.437
48801SOL     OW48299   6.503  14.093  12.966
48801SOL    HW148300   6.521  14.162  12.903
48801SOL    HW248301   6.526  14.131  13.051
48802SOL     OW48302   0.610   2.056   9.447
48802SOL    HW148303   0.697   2.095   9.449
48802SOL    HW248304   0.625   1.962   9.460
48803SOL     OW48305   9.892   2.342   0.333
48803SOL    HW148306   9.966   2.300   0.289
48803SOL    HW248307   9.933   2.395   0.401
48804SOL     OW48308   9.551   1.896  10.066
48804SOL    HW148309   9.641   1.870  10.049
48804SOL    HW248310   9.498   1.823  10.034
48805SOL     OW48311   2.439   2.962   9.333
48805SOL    HW148312   2.452   2.923   9.419
48805SOL    HW248313   2.427   3.056   9.350
48806SOL     OW48314  13.554   3.894   5.490
48806SOL    HW148315  13.531   3.985   5.511
48806SOL    HW248316  13.633   3.901   5.437
48807SOL     OW48317   0.628   7.920  10.058
48807SOL    HW148318   0.536   7.939  10.039
48807SOL    HW248319   0.677   7.961   9.986
48808SOL     OW48320   4.271   9.809   7.253
48808SOL    HW148321   4.192   9.860   7.235
48808SOL    HW248322   4.274   9.802   7.348
48809SOL     OW48323  11.722  10.939  12.256
48809SOL    HW148324  11.632  10.969  12.266
48809SOL    HW248325  11.724  10.855  12.301
48810SOL     OW48326   2.957  10.527   2.821
48810SOL    HW148327   2.976  10.490   2.907
48810SOL    HW248328   2.918  10.613   2.840
48811SOL     OW48329  13.540   9.559   1.974
48811SOL    HW148330  13.610   9.568   2.038
48811SOL    HW248331  13.581   9.577   1.890
48812SOL     OW48332  12.316   2.021   3.905
48812SOL    HW148333  12.389   2.080   3.927
48812SOL    HW248334  12.239   2.077   3.905
48813SOL     OW48335   0.053   8.937   3.191
48813SOL    HW148336   0.008   8.953   3.108
48813SOL    HW248337   0.118   9.007   3.197
48814SOL     OW48338  10.016   4.960  12.892
48814SOL    HW148339   9.924   4.960  12.921
48814SOL    HW248340  10.010   4.967  12.797
48815SOL     OW48341  10.473   4.324  10.107
48815SOL    HW148342  10.551   4.269  10.099
48815SOL    HW248343  10.455   4.327  10.201
48816SOL     OW48344   6.512  10.431   7.808
48816SOL    HW148345   6.421  10.410   7.785
48816SOL    HW248346   6.543  10.483   7.734
48817SOL     OW48347   1.472  14.462   0.156
48817SOL    HW148348   1.537  14.502   0.098
48817SOL    HW248349   1.389  14.499   0.129
48818SOL     OW48350   7.889   2.334  10.252
48818SOL    HW148351   7.815   2.394  10.242
48818SOL    HW248352   7.860   2.253  10.210
48819SOL     OW48353   5.445   1.473   3.038
48819SOL    HW148354   5.360   1.504   3.008
48819SOL    HW248355   5.502   1.549   3.031
48820SOL     OW48356   4.043  10.852  12.095
48820SOL    HW148357   4.082  10.776  12.138
48820SOL    HW248358   4.056  10.835  12.001
48821SOL     OW48359   4.263  11.031  12.766
48821SOL    HW148360   4.300  10.945  12.788
48821SOL    HW248361   4.339  11.087  12.749
48822SOL     OW48362   4.721  11.915   7.969
48822SOL    HW148363   4.674  11.927   8.051
48822SOL    HW248364   4.786  11.986   7.968
48823SOL     OW48365   4.224   7.833  11.931
48823SOL    HW148366   4.301   7.779  11.947
48823SOL    HW248367   4.195   7.860  12.018
48824SOL     OW48368   8.296  14.332  11.194
48824SOL    HW148369   8.379  14.303  11.232
48824SOL    HW248370   8.295  14.427  11.209
48825SOL     OW48371  11.024   9.120   8.829
48825SOL    HW148372  10.985   9.206   8.815
48825SOL    HW248373  10.949   9.062   8.845
48826SOL     OW48374  10.928   1.291   4.788
48826SOL    HW148375  10.940   1.304   4.694
48826SOL    HW248376  10.879   1.368   4.817
48827SOL     OW48377   6.406   5.292  12.560
48827SOL    HW148378   6.411   5.196  12.558
48827SOL    HW248379   6.365   5.315  12.476
48828SOL     OW48380   8.987  11.037   7.813
48828SOL    HW148381   9.044  11.111   7.837
48828SOL    HW248382   8.925  11.031   7.886
48829SOL     OW48383   3.616  13.350   4.215
48829SOL    HW148384   3.680  13.331   4.147
48829SOL    HW248385   3.666  13.398   4.282
48830SOL     OW48386   0.983  10.463  13.035
48830SOL    HW148387   1.038  10.476  13.112
48830SOL    HW248388   1.025  10.517  12.967
48831SOL     OW48389   0.386   4.570   0.362
48831SOL    HW148390   0.397   4.481   0.328
48831SOL    HW248391   0.466   4.616   0.337
48832SOL     OW48392  11.241   4.068   8.931
48832SOL    HW148393  11.313   4.121   8.966
48832SOL    HW248394  11.189   4.129   8.879
48833SOL     OW48395  13.492   6.105  11.540
48833SOL    HW148396  13.536   6.054  11.608
48833SOL    HW248397  13.527   6.070  11.458
48834SOL     OW48398   6.002   8.405   6.370
48834SOL    HW148399   6.055   8.484   6.358
48834SOL    HW248400   5.954   8.396   6.288
48835SOL     OW48401   3.299   8.735   5.601
48835SOL    HW148402   3.378   8.762   5.648
48835SOL    HW248403   3.227   8.763   5.658
48836SOL     OW48404   4.490   2.348   7.877
48836SOL    HW148405   4.449   2.345   7.963
48836SOL    HW248406   4.453   2.425   7.835
48837SOL     OW48407   6.708   4.605  14.851
48837SOL    HW148408   6.649   4.671  14.815
48837SOL    HW248409   6.762   4.578  14.776
48838SOL     OW48410  10.355   2.621   4.967
48838SOL    HW148411  10.431   2.668   5.002
48838SOL    HW248412  10.329   2.560   5.036
48839SOL     OW48413   5.990  13.552   6.915
48839SOL    HW148414   5.898  13.576   6.919
48839SOL    HW248415   6.004  13.499   6.993
48840SOL     OW48416   9.838   8.309  12.681
48840SOL    HW148417   9.914   8.337  12.629
48840SOL    HW248418   9.824   8.379  12.744
48841SOL     OW48419  11.861   6.668   5.302
48841SOL    HW148420  11.835   6.663   5.394
48841SOL    HW248421  11.957   6.676   5.305
48842SOL     OW48422   2.596  12.386   4.977
48842SOL    HW148423   2.677  12.361   5.022
48842SOL    HW248424   2.625  12.431   4.898
48843SOL     OW48425   1.401   9.826   0.325
48843SOL    HW148426   1.472   9.875   0.284
48843SOL    HW248427   1.444   9.752   0.367
48844SOL     OW48428   2.124  10.237  10.391
48844SOL    HW148429   2.184  10.311  10.401
48844SOL    HW248430   2.140  10.206  10.302
48845SOL     OW48431  11.713   8.205   8.723
48845SOL    HW148432  11.686   8.225   8.634
48845SOL    HW248433  11.791   8.150   8.713
48846SOL     OW48434   7.725   3.579  14.230
48846SOL    HW148435   7.803   3.634  14.237
48846SOL    HW248436   7.661   3.634  14.183
48847SOL     OW48437   3.262  11.315   5.411
48847SOL    HW148438   3.248  11.318   5.506
48847SOL    HW248439   3.355  11.337   5.400
48848SOL     OW48440   9.248   5.597   4.130
48848SOL    HW148441   9.241   5.614   4.224
48848SOL    HW248442   9.159   5.570   4.104
48849SOL     OW48443   6.989   5.086   8.636
48849SOL    HW148444   6.985   5.004   8.686
48849SOL    HW248445   6.897   5.110   8.624
48850SOL     OW48446   8.438   8.785  10.114
48850SOL    HW148447   8.401   8.727  10.180
48850SOL    HW248448   8.362   8.822  10.069
48851SOL     OW48449  13.128   9.721   8.479
48851SOL    HW148450  13.096   9.632   8.491
48851SOL    HW248451  13.082   9.772   8.545
48852SOL     OW48452  14.786  14.623   1.706
48852SOL    HW148453  14.713  14.628   1.644
48852SOL    HW248454  14.781  14.705   1.756
48853SOL     OW48455  13.764   5.620   5.360
48853SOL    HW148456  13.737   5.594   5.448
48853SOL    HW248457  13.851   5.656   5.371
48854SOL     OW48458   5.749   7.378  14.553
48854SOL    HW148459   5.844   7.379  14.564
48854SOL    HW248460   5.734   7.318  14.480
48855SOL     OW48461   5.614  11.271  13.025
48855SOL    HW148462   5.630  11.310  12.939
48855SOL    HW248463   5.542  11.210  13.011
48856SOL     OW48464   4.005   0.031   2.467
48856SOL    HW148465   3.943  14.866   2.403
48856SOL    HW248466   4.091   0.009   2.431
48857SOL     OW48467   1.084   2.645   0.330
48857SOL    HW148468   1.040   2.592   0.263
48857SOL    HW248469   1.063   2.735   0.308
48858SOL     OW48470  14.865   3.723   5.774
48858SOL    HW148471   0.006   3.645   5.828
48858SOL    HW248472  14.851   3.794   5.837
48859SOL     OW48473  11.406   0.423   7.858
48859SOL    HW148474  11.414   0.364   7.933
48859SOL    HW248475  11.448   0.375   7.786
48860SOL     OW48476   7.782   9.935   4.467
48860SOL    HW148477   7.767   9.868   4.400
48860SOL    HW248478   7.735  10.012   4.434
48861SOL     OW48479   0.648   5.260   0.580
48861SOL    HW148480   0.613   5.228   0.497
48861SOL    HW248481   0.742   5.269   0.565
48862SOL     OW48482   1.483  14.797   8.538
48862SOL    HW148483   1.477   0.019   8.557
48862SOL    HW248484   1.514  14.758   8.619
48863SOL     OW48485  12.580  13.860  12.165
48863SOL    HW148486  12.552  13.803  12.237
48863SOL    HW248487  12.669  13.885  12.187
48864SOL     OW48488   4.800  12.226  12.625
48864SOL    HW148489   4.713  12.245  12.590
48864SOL    HW248490   4.826  12.145  12.581
48865SOL     OW48491   8.466   4.128  13.458
48865SOL    HW148492   8.408   4.074  13.512
48865SOL    HW248493   8.480   4.076  13.379
48866SOL     OW48494   7.705   7.250   7.119
48866SOL    HW148495   7.749   7.221   7.039
48866SOL    HW248496   7.683   7.341   7.103
48867SOL     OW48497   8.563  13.616   4.110
48867SOL    HW148498   8.508  13.632   4.033
48867SOL    HW248499   8.640  13.572   4.074
48868SOL     OW48500   6.449  11.086   4.092
48868SOL    HW148501   6.506  11.111   4.165
48868SOL    HW248502   6.430  10.994   4.107
48869SOL     OW48503  11.650   6.728   5.704
48869SOL    HW148504  11.697   6.721   5.787
48869SOL    HW248505  11.569   6.679   5.718
48870SOL     OW48506   3.907  11.176   0.405
48870SOL    HW148507   3.985  11.227   0.384
48870SOL    HW248508   3.916  11.154   0.498
48871SOL     OW48509  14.804   4.928  12.999
48871SOL    HW148510  14.854   4.980  13.062
48871SOL    HW248511  14.870   4.885  12.945
48872SOL     OW48512   1.957  14.271   2.822
48872SOL    HW148513   1.867  14.248   2.798
48872SOL    HW248514   1.993  14.189   2.856
48873SOL     OW48515   7.557  14.235  11.064
48873SOL    HW148516   7.526  14.300  11.000
48873SOL    HW248517   7.557  14.152  11.015
48874SOL     OW48518  14.746   8.938   4.924
48874SOL    HW148519  14.770   8.917   4.834
48874SOL    HW248520  14.693   8.864   4.953
48875SOL     OW48521   3.746   9.693  13.120
48875SOL    HW148522   3.730   9.762  13.056
48875SOL    HW248523   3.737   9.612  13.071
48876SOL     OW48524   8.265  14.473   3.938
48876SOL    HW148525   8.293  14.553   3.894
48876SOL    HW248526   8.188  14.500   3.989
48877SOL     OW48527   4.094   7.524  11.079
48877SOL    HW148528   4.085   7.551  10.988
48877SOL    HW248529   4.169   7.575  11.111
48878SOL     OW48530  12.067   1.291   7.819
48878SOL    HW148531  12.091   1.350   7.748
48878SOL    HW248532  12.074   1.345   7.898
48879SOL     OW48533  12.102   4.014   8.518
48879SOL    HW148534  12.154   3.937   8.495
48879SOL    HW248535  12.053   3.988   8.596
48880SOL     OW48536   8.812   5.933   7.746
48880SOL    HW148537   8.855   5.848   7.758
48880SOL    HW248538   8.878   5.989   7.707
48881SOL     OW48539  10.008  14.546  10.971
48881SOL    HW148540  10.044  14.482  10.910
48881SOL    HW248541   9.913  14.544  10.955
48882SOL     OW48542   1.267   5.484  14.237
48882SOL    HW148543   1.187   5.472  14.187
48882SOL    HW248544   1.335   5.497  14.172
48883SOL     OW48545  12.242   2.124  12.592
48883SOL    HW148546  12.153   2.122  12.560
48883SOL    HW248547  12.239   2.179  12.671
48884SOL     OW48548  13.281  14.479  11.820
48884SOL    HW148549  13.310  14.492  11.910
48884SOL    HW248550  13.233  14.395  11.822
48885SOL     OW48551  10.636   4.055  13.856
48885SOL    HW148552  10.603   3.967  13.869
48885SOL    HW248553  10.728   4.050  13.880
48886SOL     OW48554  12.014   9.848  10.475
48886SOL    HW148555  12.014   9.884  10.387
48886SOL    HW248556  12.105   9.824  10.493
48887SOL     OW48557   8.207   3.612  12.147
48887SOL    HW148558   8.212   3.607  12.052
48887SOL    HW248559   8.290   3.652  12.174
48888SOL     OW48560   4.843   6.436   5.711
48888SOL    HW148561   4.777   6.504   5.727
48888SOL    HW248562   4.910   6.453   5.776
48889SOL     OW48563   7.082  14.842   5.730
48889SOL    HW148564   7.122   0.016   5.804
48889SOL    HW248565   7.156  14.817   5.675
48890SOL     OW48566   6.082   3.801   5.132
48890SOL    HW148567   6.116   3.725   5.179
48890SOL    HW248568   6.040   3.854   5.200
48891SOL     OW48569   3.595   6.731   2.278
48891SOL    HW148570   3.655   6.769   2.342
48891SOL    HW248571   3.510   6.729   2.323
48892SOL     OW48572   5.725  11.211   0.634
48892SOL    HW148573   5.668  11.203   0.711
48892SOL    HW248574   5.668  11.247   0.566
48893SOL     OW48575   7.403   8.742  12.842
48893SOL    HW148576   7.444   8.668  12.796
48893SOL    HW248577   7.468   8.812  12.837
48894SOL     OW48578   4.976   6.820   0.178
48894SOL    HW148579   4.891   6.776   0.188
48894SOL    HW248580   4.954   6.913   0.172
48895SOL     OW48581   8.729   0.678   0.661
48895SOL    HW148582   8.774   0.604   0.700
48895SOL    HW248583   8.700   0.731   0.736
48896SOL     OW48584   5.978  11.669   3.348
48896SOL    HW148585   6.044  11.733   3.375
48896SOL    HW248586   6.017  11.585   3.370
48897SOL     OW48587  11.408   8.616   1.751
48897SOL    HW148588  11.472   8.682   1.726
48897SOL    HW248589  11.323   8.653   1.726
48898SOL     OW48590   5.631   9.704  13.550
48898SOL    HW148591   5.667   9.617  13.534
48898SOL    HW248592   5.541   9.688  13.579
48899SOL     OW48593   3.881   5.356  13.702
48899SOL    HW148594   3.834   5.322  13.778
48899SOL    HW248595   3.844   5.443  13.687
48900SOL     OW48596  13.322  14.797   9.336
48900SOL    HW148597  13.415  14.795   9.313
48900SOL    HW248598  13.284  14.725   9.286
48901SOL     OW48599   7.497  11.107   7.833
48901SOL    HW148600   7.472  11.149   7.750
48901SOL    HW248601   7.585  11.073   7.817
48902SOL     OW48602   2.737   1.175  11.856
48902SOL    HW148603   2.713   1.267  11.861
48902SOL    HW248604   2.795   1.170  11.780
48903SOL     OW48605  13.502  14.708  13.841
48903SOL    HW148606  13.533  14.785  13.794
48903SOL    HW248607  13.556  14.707  13.921
48904SOL     OW48608  10.266  11.446   7.792
48904SOL    HW148609  10.312  11.367   7.820
48904SOL    HW248610  10.272  11.505   7.867
48905SOL     OW48611   8.250   5.381   0.494
48905SOL    HW148612   8.170   5.416   0.531
48905SOL    HW248613   8.317   5.447   0.512
48906SOL     OW48614  10.808   6.257   4.493
48906SOL    HW148615  10.770   6.228   4.410
48906SOL    HW248616  10.741   6.237   4.559
48907SOL     OW48617  10.224   0.964  13.999
48907SOL    HW148618  10.283   0.975  13.925
48907SOL    HW248619  10.187   0.877  13.987
48908SOL     OW48620  13.864   5.111   6.830
48908SOL    HW148621  13.848   5.159   6.748
48908SOL    HW248622  13.914   5.034   6.802
48909SOL     OW48623   4.263   1.238   8.762
48909SOL    HW148624   4.199   1.167   8.756
48909SOL    HW248625   4.227   1.306   8.705
48910SOL     OW48626   0.778   1.886   4.446
48910SOL    HW148627   0.786   1.932   4.362
48910SOL    HW248628   0.788   1.955   4.511
48911SOL     OW48629   8.060   7.065   2.832
48911SOL    HW148630   8.028   7.048   2.743
48911SOL    HW248631   8.155   7.073   2.822
48912SOL     OW48632   6.290  11.287  14.505
48912SOL    HW148633   6.277  11.231  14.581
48912SOL    HW248634   6.347  11.236  14.447
48913SOL     OW48635   9.752  13.684  11.339
48913SOL    HW148636   9.733  13.698  11.431
48913SOL    HW248637   9.832  13.631  11.338
48914SOL     OW48638  13.687   3.541   0.435
48914SOL    HW148639  13.592   3.528   0.430
48914SOL    HW248640  13.698   3.628   0.474
48915SOL     OW48641   6.263  12.467   2.002
48915SOL    HW148642   6.300  12.404   2.064
48915SOL    HW248643   6.314  12.547   2.016
48916SOL     OW48644   7.881   3.013  14.004
48916SOL    HW148645   7.960   2.995  13.953
48916SOL    HW248646   7.842   2.927  14.018
48917SOL     OW48647   0.105   4.739   0.445
48917SOL    HW148648   0.016   4.770   0.460
48917SOL    HW248649   0.155   4.774   0.519
48918SOL     OW48650   2.197   0.781   3.650
48918SOL    HW148651   2.209   0.842   3.577
48918SOL    HW248652   2.103   0.780   3.665
48919SOL     OW48653   2.316  12.929   2.606
48919SOL    HW148654   2.398  12.900   2.567
48919SOL    HW248655   2.342  12.993   2.672
48920SOL     OW48656   9.717   8.147  14.373
48920SOL    HW148657   9.705   8.220  14.313
48920SOL    HW248658   9.808   8.121  14.361
48921SOL     OW48659   0.874   8.777  11.010
48921SOL    HW148660   0.856   8.754  10.919
48921SOL    HW248661   0.967   8.799  11.011
48922SOL     OW48662  14.258   8.457   3.915
48922SOL    HW148663  14.231   8.549   3.906
48922SOL    HW248664  14.324   8.445   3.847
48923SOL     OW48665   1.475   6.107   6.850
48923SOL    HW148666   1.421   6.171   6.896
48923SOL    HW248667   1.541   6.159   6.805
48924SOL     OW48668   3.072   1.082  10.809
48924SOL    HW148669   3.088   1.020  10.737
48924SOL    HW248670   3.001   1.137  10.778
48925SOL     OW48671   6.776   5.341  11.152
48925SOL    HW148672   6.747   5.278  11.218
48925SOL    HW248673   6.701   5.349  11.092
48926SOL     OW48674  11.768   6.242  11.054
48926SOL    HW148675  11.804   6.175  11.112
48926SOL    HW248676  11.834   6.250  10.984
48927SOL     OW48677   7.847  10.955   6.035
48927SOL    HW148678   7.793  11.023   5.996
48927SOL    HW248679   7.813  10.946   6.125
48928SOL     OW48680  11.174   7.383   2.527
48928SOL    HW148681  11.144   7.473   2.544
48928SOL    HW248682  11.260   7.394   2.486
48929SOL     OW48683  10.521   1.105   1.531
48929SOL    HW148684  10.477   1.021   1.523
48929SOL    HW248685  10.451   1.170   1.533
48930SOL     OW48686  13.251  11.003   8.356
48930SOL    HW148687  13.295  10.931   8.401
48930SOL    HW248688  13.315  11.075   8.356
48931SOL     OW48689  14.340  13.535  12.919
48931SOL    HW148690  14.372  13.565  13.004
48931SOL    HW248691  14.301  13.450  12.937
48932SOL     OW48692  10.115   9.432   6.136
48932SOL    HW148693  10.198   9.449   6.181
48932SOL    HW248694  10.091   9.344   6.164
48933SOL     OW48695   3.655   9.791   2.883
48933SOL    HW148696   3.623   9.786   2.973
48933SOL    HW248697   3.576   9.808   2.831
48934SOL     OW48698   7.853  13.863   2.798
48934SOL    HW148699   7.867  13.775   2.764
48934SOL    HW248700   7.935  13.909   2.778
48935SOL     OW48701  11.683   2.943   2.511
48935SOL    HW148702  11.688   2.889   2.432
48935SOL    HW248703  11.714   2.886   2.581
48936SOL     OW48704   0.327   4.342  10.805
48936SOL    HW148705   0.389   4.367  10.874
48936SOL    HW248706   0.242   4.372  10.838
48937SOL     OW48707   5.321  10.161   4.031
48937SOL    HW148708   5.301  10.186   3.941
48937SOL    HW248709   5.337  10.244   4.075
48938SOL     OW48710   2.802   0.159   3.270
48938SOL    HW148711   2.752   0.081   3.295
48938SOL    HW248712   2.803   0.214   3.349
48939SOL     OW48713   9.379   6.214   0.558
48939SOL    HW148714   9.460   6.171   0.530
48939SOL    HW248715   9.364   6.282   0.493
48940SOL     OW48716   6.098   1.985   7.865
48940SOL    HW148717   6.070   1.945   7.782
48940SOL    HW248718   6.143   1.914   7.911
48941SOL     OW48719  12.161  11.301   5.759
48941SOL    HW148720  12.071  11.334   5.769
48941SOL    HW248721  12.180  11.311   5.666
48942SOL     OW48722  10.060   1.310   5.671
48942SOL    HW148723   9.976   1.268   5.688
48942SOL    HW248724  10.036   1.396   5.634
48943SOL     OW48725   3.935   2.128   4.392
48943SOL    HW148726   3.948   2.145   4.485
48943SOL    HW248727   3.911   2.036   4.387
48944SOL     OW48728   7.205   6.601   1.677
48944SOL    HW148729   7.241   6.686   1.704
48944SOL    HW248730   7.277   6.557   1.632
48945SOL     OW48731  14.096   2.772   6.325
48945SOL    HW148732  14.110   2.742   6.415
48945SOL    HW248733  14.184   2.785   6.290
48946SOL     OW48734  10.224  14.667   2.550
48946SOL    HW148735  10.141  14.698   2.587
48946SOL    HW248736  10.211  14.573   2.535
48947SOL     OW48737   3.796   9.758  11.656
48947SOL    HW148738   3.743   9.702  11.598
48947SOL    HW248739   3.775   9.728  11.744
48948SOL     OW48740   3.261   1.896  10.649
48948SOL    HW148741   3.239   1.843  10.572
48948SOL    HW248742   3.215   1.979  10.635
48949SOL     OW48743  10.466   4.254   5.114
48949SOL    HW148744  10.426   4.340   5.117
48949SOL    HW248745  10.546   4.262   5.167
48950SOL     OW48746  11.938  12.817  10.138
48950SOL    HW148747  11.937  12.897  10.191
48950SOL    HW248748  11.974  12.751  10.197
48951SOL     OW48749   0.276  10.694  12.820
48951SOL    HW148750   0.348  10.632  12.806
48951SOL    HW248751   0.198  10.640  12.828
48952SOL     OW48752  13.736   4.176   5.970
48952SOL    HW148753  13.815   4.129   5.947
48952SOL    HW248754  13.665   4.113   5.956
48953SOL     OW48755   8.698  10.839   3.850
48953SOL    HW148756   8.736  10.859   3.765
48953SOL    HW248757   8.630  10.905   3.862
48954SOL     OW48758   1.515  10.529   4.362
48954SOL    HW148759   1.597  10.496   4.398
48954SOL    HW248760   1.530  10.532   4.267
48955SOL     OW48761  11.141   0.363   7.472
48955SOL    HW148762  11.064   0.333   7.425
48955SOL    HW248763  11.206   0.380   7.404
48956SOL     OW48764   3.484  13.952   0.413
48956SOL    HW148765   3.439  13.921   0.334
48956SOL    HW248766   3.577  13.951   0.388
48957SOL     OW48767   0.048   7.615   3.445
48957SOL    HW148768   0.036   7.522   3.423
48957SOL    HW248769   0.142   7.629   3.436
48958SOL     OW48770   4.706   2.973  13.142
48958SOL    HW148771   4.677   2.886  13.171
48958SOL    HW248772   4.760   3.005  13.214
48959SOL     OW48773   7.983   0.261   1.276
48959SOL    HW148774   7.998   0.348   1.239
48959SOL    HW248775   7.919   0.220   1.218
48960SOL     OW48776   3.586   6.424   8.057
48960SOL    HW148777   3.619   6.377   7.981
48960SOL    HW248778   3.498   6.389   8.070
48961SOL     OW48779   7.744   2.847  11.160
48961SOL    HW148780   7.768   2.760  11.128
48961SOL    HW248781   7.670   2.872  11.105
48962SOL     OW48782   2.172   0.686   1.015
48962SOL    HW148783   2.081   0.654   1.017
48962SOL    HW248784   2.166   0.776   1.045
48963SOL     OW48785  12.413  11.695   8.728
48963SOL    HW148786  12.385  11.636   8.798
48963SOL    HW248787  12.340  11.755   8.716
48964SOL     OW48788  12.282   1.736   4.059
48964SOL    HW148789  12.274   1.765   4.149
48964SOL    HW248790  12.303   1.816   4.010
48965SOL     OW48791   3.058   6.254   2.951
48965SOL    HW148792   3.131   6.295   2.996
48965SOL    HW248793   3.017   6.326   2.902
48966SOL     OW48794  11.054   3.970  10.215
48966SOL    HW148795  11.037   3.926  10.298
48966SOL    HW248796  10.987   3.936  10.155
48967SOL     OW48797  13.513  13.620   0.225
48967SOL    HW148798  13.478  13.681   0.290
48967SOL    HW248799  13.579  13.670   0.178
48968SOL     OW48800   5.175   8.064   2.807
48968SOL    HW148801   5.239   8.004   2.844
48968SOL    HW248802   5.226   8.123   2.752
48969SOL     OW48803   9.262  11.000   3.983
48969SOL    HW148804   9.190  11.028   3.926
48969SOL    HW248805   9.341  11.011   3.930
48970SOL     OW48806  12.289   1.581  10.440
48970SOL    HW148807  12.384   1.586  10.431
48970SOL    HW248808  12.255   1.615  10.358
48971SOL     OW48809   8.982   3.342  12.347
48971SOL    HW148810   8.914   3.365  12.410
48971SOL    HW248811   8.981   3.246  12.344
48972SOL     OW48812  14.476   9.728  14.052
48972SOL    HW148813  14.451   9.725  13.959
48972SOL    HW248814  14.543   9.660  14.061
48973SOL     OW48815   8.636   8.526   6.804
48973SOL    HW148816   8.652   8.538   6.898
48973SOL    HW248817   8.685   8.448   6.781
48974SOL     OW48818  14.609   2.151   4.296
48974SOL    HW148819  14.681   2.136   4.357
48974SOL    HW248820  14.649   2.139   4.209
48975SOL     OW48821   4.192   7.768   4.942
48975SOL    HW148822   4.244   7.825   4.884
48975SOL    HW248823   4.171   7.692   4.888
48976SOL     OW48824   8.424   4.639  11.462
48976SOL    HW148825   8.369   4.622  11.386
48976SOL    HW248826   8.405   4.730  11.486
48977SOL     OW48827   7.896   9.509  14.040
48977SOL    HW148828   7.969   9.541  13.987
48977SOL    HW248829   7.857   9.438  13.988
48978SOL     OW48830  13.209   9.561  10.632
48978SOL    HW148831  13.163   9.485  10.597
48978SOL    HW248832  13.218   9.544  10.725
48979SOL     OW48833  10.475  11.777  14.719
48979SOL    HW148834  10.470  11.775  14.815
48979SOL    HW248835  10.409  11.841  14.693
48980SOL     OW48836   6.192   6.950  13.764
48980SOL    HW148837   6.175   6.896  13.841
48980SOL    HW248838   6.124   6.925  13.701
48981SOL     OW48839   4.251   1.664  10.212
48981SOL    HW148840   4.195   1.615  10.272
48981SOL    HW248841   4.274   1.601  10.144
48982SOL     OW48842   2.652   8.425   7.311
48982SOL    HW148843   2.715   8.444   7.380
48982SOL    HW248844   2.641   8.330   7.313
48983SOL     OW48845   5.960  12.920   9.619
48983SOL    HW148846   5.975  12.826   9.624
48983SOL    HW248847   5.932  12.935   9.528
48984SOL     OW48848  14.342   5.501  14.437
48984SOL    HW148849  14.287   5.571  14.472
48984SOL    HW248850  14.298   5.421  14.464
48985SOL     OW48851   7.583   2.692   7.540
48985SOL    HW148852   7.521   2.750   7.497
48985SOL    HW248853   7.639   2.660   7.469
48986SOL     OW48854   5.485  13.801   7.203
48986SOL    HW148855   5.417  13.850   7.158
48986SOL    HW248856   5.440  13.724   7.238
48987SOL     OW48857  14.594   8.777   9.803
48987SOL    HW148858  14.557   8.774   9.715
48987SOL    HW248859  14.556   8.855   9.843
48988SOL     OW48860   6.961   5.766  13.866
48988SOL    HW148861   7.044   5.761  13.819
48988SOL    HW248862   6.895   5.775  13.797
48989SOL     OW48863   7.567   0.927  13.414
48989SOL    HW148864   7.600   0.844  13.379
48989SOL    HW248865   7.471   0.918  13.410
48990SOL     OW48866   4.697  12.307   0.499
48990SOL    HW148867   4.656  12.311   0.413
48990SOL    HW248868   4.665  12.225   0.537
48991SOL     OW48869   6.433   8.432   2.123
48991SOL    HW148870   6.351   8.445   2.075
48991SOL    HW248871   6.418   8.475   2.208
48992SOL     OW48872   4.958   4.544   7.416
48992SOL    HW148873   5.024   4.613   7.406
48992SOL    HW248874   5.005   4.472   7.459
48993SOL     OW48875   6.923   5.883   5.916
48993SOL    HW148876   7.007   5.838   5.924
48993SOL    HW248877   6.901   5.910   6.005
48994SOL     OW48878   4.087  13.729  12.997
48994SOL    HW148879   4.173  13.757  13.026
48994SOL    HW248880   4.078  13.640  13.030
48995SOL     OW48881   8.838   0.272   7.111
48995SOL    HW148882   8.888   0.231   7.040
48995SOL    HW248883   8.887   0.351   7.133
48996SOL     OW48884   2.691  10.395   9.322
48996SOL    HW148885   2.647  10.395   9.407
48996SOL    HW248886   2.632  10.345   9.265
48997SOL     OW48887   8.376   4.469  13.284
48997SOL    HW148888   8.334   4.503  13.363
48997SOL    HW248889   8.463   4.442  13.313
48998SOL     OW48890   0.429   1.161   4.673
48998SOL    HW148891   0.479   1.219   4.730
48998SOL    HW248892   0.494   1.120   4.616
48999SOL     OW48893   6.916  11.467   8.589
48999SOL    HW148894   6.985  11.522   8.627
48999SOL    HW248895   6.951  11.378   8.591
49000SOL     OW48896  13.485   5.529  13.645
49000SOL    HW148897  13.567   5.505  13.688
49000SOL    HW248898  13.488   5.625  13.641
49001SOL     OW48899   6.370   8.482   6.614
49001SOL    HW148900   6.380   8.475   6.709
49001SOL    HW248901   6.386   8.394   6.581
49002SOL     OW48902   5.292   2.094   8.198
49002SOL    HW148903   5.218   2.152   8.186
49002SOL    HW248904   5.351   2.113   8.125
49003SOL     OW48905  11.061  14.850   8.583
49003SOL    HW148906  10.983  14.801   8.607
49003SOL    HW248907  11.036   0.070   8.595
49004SOL     OW48908   1.334   8.736   1.613
49004SOL    HW148909   1.262   8.703   1.667
49004SOL    HW248910   1.345   8.670   1.545
49005SOL     OW48911   1.936   6.491   6.096
49005SOL    HW148912   1.982   6.551   6.154
49005SOL    HW248913   1.978   6.407   6.110
49006SOL     OW48914  11.574   8.603   8.582
49006SOL    HW148915  11.485   8.634   8.563
49006SOL    HW248916  11.628   8.681   8.578
49007SOL     OW48917  13.880  12.478   3.946
49007SOL    HW148918  13.909  12.401   3.896
49007SOL    HW248919  13.947  12.544   3.929
49008SOL     OW48920   9.091   6.813   4.483
49008SOL    HW148921   9.079   6.795   4.576
49008SOL    HW248922   9.156   6.883   4.479
49009SOL     OW48923   5.575   7.059   7.879
49009SOL    HW148924   5.641   6.995   7.907
49009SOL    HW248925   5.626   7.134   7.849
49010SOL     OW48926  13.160   1.612   8.707
49010SOL    HW148927  13.245   1.577   8.679
49010SOL    HW248928  13.101   1.537   8.703
49011SOL     OW48929  14.562  12.919   2.807
49011SOL    HW148930  14.566  12.848   2.871
49011SOL    HW248931  14.469  12.928   2.786
49012SOL     OW48932   6.117   6.182  13.464
49012SOL    HW148933   6.163   6.115  13.514
49012SOL    HW248934   6.140   6.264  13.508
49013SOL     OW48935   2.239  12.415   5.881
49013SOL    HW148936   2.192  12.332   5.890
49013SOL    HW248937   2.188  12.477   5.932
49014SOL     OW48938  11.617  14.656   1.566
49014SOL    HW148939  11.653  14.677   1.480
49014SOL    HW248940  11.533  14.701   1.568
49015SOL     OW48941   2.047  13.036   7.866
49015SOL    HW148942   2.115  12.995   7.813
49015SOL    HW248943   1.994  13.085   7.803
49016SOL     OW48944   9.792   9.510   5.596
49016SOL    HW148945   9.713   9.494   5.646
49016SOL    HW248946   9.810   9.604   5.609
49017SOL     OW48947   6.997   6.331   8.415
49017SOL    HW148948   7.046   6.358   8.493
49017SOL    HW248949   6.937   6.403   8.399
49018SOL     OW48950   6.913  12.133  14.275
49018SOL    HW148951   6.831  12.139  14.323
49018SOL    HW248952   6.974  12.188  14.324
49019SOL     OW48953   9.586   4.336   5.512
49019SOL    HW148954   9.495   4.321   5.489
49019SOL    HW248955   9.590   4.427   5.538
49020SOL     OW48956   6.871   9.253   2.373
49020SOL    HW148957   6.951   9.302   2.393
49020SOL    HW248958   6.878   9.233   2.279
49021SOL     OW48959   9.828   2.586   2.710
49021SOL    HW148960   9.807   2.584   2.804
49021SOL    HW248961   9.784   2.509   2.674
49022SOL     OW48962   2.903  10.668   4.656
49022SOL    HW148963   2.818  10.633   4.682
49022SOL    HW248964   2.914  10.748   4.709
49023SOL     OW48965  13.833   0.260  14.513
49023SOL    HW148966  13.901   0.211  14.559
49023SOL    HW248967  13.803   0.201  14.444
49024SOL     OW48968  13.439   6.817   4.400
49024SOL    HW148969  13.363   6.759   4.389
49024SOL    HW248970  13.449   6.861   4.316
49025SOL     OW48971  10.062   1.628   6.759
49025SOL    HW148972  10.025   1.552   6.805
49025SOL    HW248973   9.987   1.669   6.716
49026SOL     OW48974  10.603   8.115  14.745
49026SOL    HW148975  10.620   8.162  14.827
49026SOL    HW248976  10.621   8.180  14.676
49027SOL     OW48977  12.438   8.015   0.237
49027SOL    HW148978  12.350   8.048   0.254
49027SOL    HW248979  12.487   8.037   0.316
49028SOL     OW48980  10.990   7.172   4.355
49028SOL    HW148981  10.903   7.209   4.346
49028SOL    HW248982  11.020   7.157   4.266
49029SOL     OW48983  13.369   6.412   4.308
49029SOL    HW148984  13.327   6.377   4.229
49029SOL    HW248985  13.394   6.501   4.284
49030SOL     OW48986  14.183  13.064  12.067
49030SOL    HW148987  14.154  12.978  12.097
49030SOL    HW248988  14.102  13.116  12.062
49031SOL     OW48989   0.008   6.094   7.721
49031SOL    HW148990   0.093   6.050   7.727
49031SOL    HW248991   0.022   6.166   7.660
49032SOL     OW48992   9.173   9.952  13.369
49032SOL    HW148993   9.243   9.992  13.420
49032SOL    HW248994   9.096  10.006  13.387
49033SOL     OW48995   1.402  14.568   8.349
49033SOL    HW148996   1.338  14.533   8.411
49033SOL    HW248997   1.438  14.646   8.392
49034SOL     OW48998  10.660  10.197  12.697
49034SOL    HW148999  10.617  10.115  12.722
49034SOL    HW249000  10.733  10.170  12.641
49035SOL     OW49001  14.318   7.357  11.911
49035SOL    HW149002  14.297   7.266  11.890
49035SOL    HW249003  14.344   7.355  12.003
49036SOL     OW49004   5.178   6.370  14.098
49036SOL    HW149005   5.105   6.425  14.128
49036SOL    HW249006   5.208   6.324  14.177
49037SOL     OW49007   5.525   1.584   5.625
49037SOL    HW149008   5.586   1.580   5.698
49037SOL    HW249009   5.577   1.562   5.548
49038SOL     OW49010   6.746  12.618   7.322
49038SOL    HW149011   6.664  12.627   7.372
49038SOL    HW249012   6.774  12.528   7.338
49039SOL     OW49013   6.125   8.721   5.802
49039SOL    HW149014   6.186   8.674   5.746
49039SOL    HW249015   6.180   8.775   5.858
49040SOL     OW49016   1.226  14.007   4.613
49040SOL    HW149017   1.272  14.085   4.581
49040SOL    HW249018   1.275  13.934   4.574
49041SOL     OW49019  10.294  10.478  12.487
49041SOL    HW149020  10.204  10.496  12.515
49041SOL    HW249021  10.335  10.436  12.562
49042SOL     OW49022   6.132  14.133   2.354
49042SOL    HW149023   6.217  14.139   2.310
49042SOL    HW249024   6.152  14.097   2.440
49043SOL     OW49025   9.314   0.032   4.044
49043SOL    HW149026   9.394  14.852   4.030
49043SOL    HW249027   9.264   0.020   3.963
49044SOL     OW49028   7.907  11.184   6.638
49044SOL    HW149029   7.950  11.133   6.570
49044SOL    HW249030   7.920  11.275   6.611
49045SOL     OW49031   1.089   9.390   5.028
49045SOL    HW149032   1.105   9.297   5.045
49045SOL    HW249033   1.128   9.435   5.103
49046SOL     OW49034   9.350   0.394  14.221
49046SOL    HW149035   9.355   0.367  14.129
49046SOL    HW249036   9.290   0.468  14.221
49047SOL     OW49037  14.271   0.506  10.626
49047SOL    HW149038  14.222   0.489  10.546
49047SOL    HW249039  14.210   0.483  10.697
49048SOL     OW49040   2.495  10.003   9.028
49048SOL    HW149041   2.455   9.916   9.031
49048SOL    HW249042   2.547  10.002   8.948
49049SOL     OW49043   1.236   3.193   9.814
49049SOL    HW149044   1.151   3.205   9.856
49049SOL    HW249045   1.241   3.264   9.749
49050SOL     OW49046   3.349   0.545   4.867
49050SOL    HW149047   3.419   0.608   4.853
49050SOL    HW249048   3.314   0.565   4.954
49051SOL     OW49049   3.128  10.182   1.024
49051SOL    HW149050   3.039  10.188   1.058
49051SOL    HW249051   3.119  10.139   0.939
49052SOL     OW49052   0.695   5.084   2.048
49052SOL    HW149053   0.708   5.176   2.073
49052SOL    HW249054   0.618   5.085   1.991
49053SOL     OW49055  11.642  14.357   6.372
49053SOL    HW149056  11.599  14.411   6.439
49053SOL    HW249057  11.664  14.276   6.418
49054SOL     OW49058  11.354   6.028   9.090
49054SOL    HW149059  11.403   6.036   9.008
49054SOL    HW249060  11.385   6.101   9.144
49055SOL     OW49061   8.347   3.068   9.842
49055SOL    HW149062   8.348   2.973   9.857
49055SOL    HW249063   8.294   3.078   9.763
49056SOL     OW49064  14.395   0.044   8.751
49056SOL    HW149065  14.317   0.099   8.750
49056SOL    HW249066  14.425   0.044   8.660
49057SOL     OW49067   0.999   5.128   3.805
49057SOL    HW149068   1.055   5.174   3.743
49057SOL    HW249069   0.910   5.140   3.772
49058SOL     OW49070   5.186   8.929  12.906
49058SOL    HW149071   5.197   8.902  12.998
49058SOL    HW249072   5.214   8.853  12.855
49059SOL     OW49073   4.425   9.722   5.425
49059SOL    HW149074   4.438   9.635   5.461
49059SOL    HW249075   4.420   9.708   5.330
49060SOL     OW49076  14.224  14.741  11.623
49060SOL    HW149077  14.169  14.669  11.652
49060SOL    HW249078  14.173  14.820  11.644
49061SOL     OW49079   6.092   1.539  14.541
49061SOL    HW149080   6.063   1.489  14.465
49061SOL    HW249081   6.097   1.629  14.510
49062SOL     OW49082   8.119   4.797  13.946
49062SOL    HW149083   8.068   4.746  14.009
49062SOL    HW249084   8.202   4.751  13.939
49063SOL     OW49085  12.129   4.770   0.652
49063SOL    HW149086  12.080   4.803   0.576
49063SOL    HW249087  12.216   4.752   0.617
49064SOL     OW49088  11.319   8.987   5.112
49064SOL    HW149089  11.254   9.038   5.065
49064SOL    HW249090  11.328   9.031   5.197
49065SOL     OW49091   0.483  11.477   4.786
49065SOL    HW149092   0.529  11.511   4.709
49065SOL    HW249093   0.549  11.478   4.855
49066SOL     OW49094   7.332   7.962  10.543
49066SOL    HW149095   7.394   7.891  10.559
49066SOL    HW249096   7.349   8.025  10.613
49067SOL     OW49097   2.938   9.065  11.061
49067SOL    HW149098   2.875   9.009  11.016
49067SOL    HW249099   3.015   9.064  11.004
49068SOL     OW49100  12.536   3.166  13.955
49068SOL    HW149101  12.441   3.152  13.960
49068SOL    HW249102  12.569   3.090  13.907
49069SOL     OW49103  13.360   9.461   7.925
49069SOL    HW149104  13.398   9.525   7.985
49069SOL    HW249105  13.272   9.495   7.906
49070SOL     OW49106   1.487  10.017  12.031
49070SOL    HW149107   1.508  10.089  12.091
49070SOL    HW249108   1.526  10.043  11.948
49071SOL     OW49109  14.848  13.089  11.050
49071SOL    HW149110  14.790  13.091  10.974
49071SOL    HW249111  14.806  13.027  11.110
49072SOL     OW49112  12.426  10.179  11.043
49072SOL    HW149113  12.423  10.095  10.999
49072SOL    HW249114  12.338  10.191  11.079
49073SOL     OW49115   8.353  13.835   2.320
49073SOL    HW149116   8.259  13.851   2.331
49073SOL    HW249117   8.374  13.870   2.233
49074SOL     OW49118  10.450   4.040  11.476
49074SOL    HW149119  10.381   4.021  11.538
49074SOL    HW249120  10.523   4.073  11.529
49075SOL     OW49121   2.456  10.399   6.041
49075SOL    HW149122   2.378  10.440   6.004
49075SOL    HW249123   2.518  10.471   6.053
49076SOL     OW49124   2.281   2.160   0.668
49076SOL    HW149125   2.347   2.144   0.601
49076SOL    HW249126   2.330   2.197   0.742
49077SOL     OW49127  12.301  11.093   9.297
49077SOL    HW149128  12.274  11.098   9.389
49077SOL    HW249129  12.227  11.129   9.248
49078SOL     OW49130   0.500   2.462   2.670
49078SOL    HW149131   0.517   2.405   2.595
49078SOL    HW249132   0.501   2.403   2.746
49079SOL     OW49133  11.348   8.186   5.260
49079SOL    HW149134  11.431   8.139   5.252
49079SOL    HW249135  11.366   8.274   5.226
49080SOL     OW49136  10.090   3.766  14.799
49080SOL    HW149137  10.073   3.675  14.775
49080SOL    HW249138  10.135   3.760   0.012
49081SOL     OW49139  11.492   7.852   4.721
49081SOL    HW149140  11.436   7.775   4.712
49081SOL    HW249141  11.559   7.841   4.653
49082SOL     OW49142   1.065  11.596   7.949
49082SOL    HW149143   1.034  11.549   8.026
49082SOL    HW249144   1.035  11.544   7.875
49083SOL     OW49145   8.696   6.859   4.973
49083SOL    HW149146   8.746   6.920   5.027
49083SOL    HW249147   8.649   6.916   4.911
49084SOL     OW49148   4.999  11.447  11.712
49084SOL    HW149149   4.974  11.434  11.620
49084SOL    HW249150   5.068  11.382  11.727
49085SOL     OW49151   2.775   2.489   6.742
49085SOL    HW149152   2.802   2.400   6.767
49085SOL    HW249153   2.791   2.542   6.820
49086SOL     OW49154  10.414   1.845  14.500
49086SOL    HW149155  10.423   1.826  14.593
49086SOL    HW249156  10.495   1.813  14.461
49087SOL     OW49157   5.285  11.692   7.055
49087SOL    HW149158   5.229  11.626   7.016
49087SOL    HW249159   5.248  11.775   7.026
49088SOL     OW49160   6.596   8.413   0.894
49088SOL    HW149161   6.569   8.478   0.960
49088SOL    HW249162   6.514   8.370   0.869
49089SOL     OW49163  13.096   9.680  13.868
49089SOL    HW149164  13.065   9.764  13.902
49089SOL    HW249165  13.021   9.644  13.820
49090SOL     OW49166  11.243   7.051   2.289
49090SOL    HW149167  11.230   6.968   2.245
49090SOL    HW249168  11.198   7.042   2.373
49091SOL     OW49169  13.101  14.117   7.055
49091SOL    HW149170  13.026  14.096   7.000
49091SOL    HW249171  13.063  14.150   7.137
49092SOL     OW49172  14.767   7.462   2.389
49092SOL    HW149173  14.796   7.463   2.298
49092SOL    HW249174  14.820   7.394   2.430
49093SOL     OW49175   6.350   3.749   6.780
49093SOL    HW149176   6.409   3.814   6.741
49093SOL    HW249177   6.263   3.771   6.747
49094SOL     OW49178   8.994  14.326   2.053
49094SOL    HW149179   8.979  14.337   2.147
49094SOL    HW249180   8.906  14.314   2.016
49095SOL     OW49181   5.473   6.579  13.687
49095SOL    HW149182   5.559   6.544  13.711
49095SOL    HW249183   5.414   6.547  13.755
49096SOL     OW49184   8.367   3.150   4.393
49096SOL    HW149185   8.289   3.170   4.342
49096SOL    HW249186   8.386   3.058   4.374
49097SOL     OW49187  11.063  14.618   9.143
49097SOL    HW149188  11.096  14.654   9.226
49097SOL    HW249189  10.972  14.595   9.162
49098SOL     OW49190   4.064   2.109   6.397
49098SOL    HW149191   4.152   2.129   6.430
49098SOL    HW249192   4.007   2.120   6.472
49099SOL     OW49193   6.411   0.955  10.252
49099SOL    HW149194   6.377   0.996  10.331
49099SOL    HW249195   6.457   0.877  10.283
49100SOL     OW49196   2.243   1.082  14.638
49100SOL    HW149197   2.325   1.048  14.599
49100SOL    HW249198   2.272   1.137  14.710
49101SOL     OW49199   6.350   4.192  10.455
49101SOL    HW149200   6.399   4.265  10.418
49101SOL    HW249201   6.375   4.191  10.548
49102SOL     OW49202   3.762   0.468  12.748
49102SOL    HW149203   3.800   0.388  12.712
49102SOL    HW249204   3.678   0.476  12.704
49103SOL     OW49205   2.933  12.980   0.764
49103SOL    HW149206   2.858  13.038   0.748
49103SOL    HW249207   2.937  12.972   0.860
49104SOL     OW49208  14.125   1.138  10.478
49104SOL    HW149209  14.207   1.124  10.431
49104SOL    HW249210  14.144   1.209  10.540
49105SOL     OW49211   8.811   5.265  14.030
49105SOL    HW149212   8.742   5.327  14.005
49105SOL    HW249213   8.851   5.239  13.947
49106SOL     OW49214   0.079  10.239   3.352
49106SOL    HW149215   0.162  10.243   3.398
49106SOL    HW249216   0.027  10.310   3.389
49107SOL     OW49217   3.968  10.739   6.216
49107SOL    HW149218   3.957  10.656   6.263
49107SOL    HW249219   3.906  10.733   6.143
49108SOL     OW49220   1.757   7.066   5.548
49108SOL    HW149221   1.831   7.056   5.607
49108SOL    HW249222   1.717   6.979   5.544
49109SOL     OW49223   5.600   7.987   2.063
49109SOL    HW149224   5.590   7.892   2.065
49109SOL    HW249225   5.602   8.012   2.155
49110SOL     OW49226   5.859   0.335   6.323
49110SOL    HW149227   5.930   0.362   6.265
49110SOL    HW249228   5.859   0.400   6.393
49111SOL     OW49229  12.618   1.602   1.076
49111SOL    HW149230  12.673   1.597   1.154
49111SOL    HW249231  12.529   1.614   1.110
49112SOL     OW49232   5.824   9.154   6.104
49112SOL    HW149233   5.786   9.233   6.142
49112SOL    HW249234   5.750   9.110   6.063
49113SOL     OW49235  14.074  10.090  14.747
49113SOL    HW149236  14.138  10.104  14.678
49113SOL    HW249237  14.021  10.170  14.748
49114SOL     OW49238  12.809   0.379   9.667
49114SOL    HW149239  12.783   0.468   9.691
49114SOL    HW249240  12.855   0.389   9.583
49115SOL     OW49241   7.165   7.611   1.901
49115SOL    HW149242   7.128   7.524   1.887
49115SOL    HW249243   7.102   7.655   1.958
49116SOL     OW49244   1.293  10.480  10.592
49116SOL    HW149245   1.292  10.441  10.505
49116SOL    HW249246   1.283  10.574  10.578
49117SOL     OW49247  14.280   7.523   9.541
49117SOL    HW149248  14.295   7.436   9.577
49117SOL    HW249249  14.339   7.580   9.591
49118SOL     OW49250   9.354   1.016   7.634
49118SOL    HW149251   9.321   0.931   7.664
49118SOL    HW249252   9.328   1.078   7.703
49119SOL     OW49253   3.763   3.291   0.666
49119SOL    HW149254   3.782   3.375   0.707
49119SOL    HW249255   3.791   3.226   0.729
49120SOL     OW49256   2.487  10.852   1.779
49120SOL    HW149257   2.436  10.911   1.834
49120SOL    HW249258   2.442  10.768   1.784
49121SOL     OW49259   6.177   2.819   1.431
49121SOL    HW149260   6.201   2.889   1.370
49121SOL    HW249261   6.229   2.743   1.403
49122SOL     OW49262   6.894  13.655   8.178
49122SOL    HW149263   6.891  13.618   8.090
49122SOL    HW249264   6.939  13.590   8.231
49123SOL     OW49265   1.610   6.614  10.922
49123SOL    HW149266   1.622   6.545  10.986
49123SOL    HW249267   1.552   6.677  10.964
49124SOL     OW49268   7.587  13.927   2.791
49124SOL    HW149269   7.682  13.927   2.780
49124SOL    HW249270   7.570  13.859   2.856
49125SOL     OW49271  10.520   4.743   1.389
49125SOL    HW149272  10.450   4.789   1.343
49125SOL    HW249273  10.493   4.651   1.390
49126SOL     OW49274   6.240  12.928  12.037
49126SOL    HW149275   6.151  12.931  12.003
49126SOL    HW249276   6.278  12.850  11.998
49127SOL     OW49277   5.115   0.114   2.659
49127SOL    HW149278   5.079   0.039   2.706
49127SOL    HW249279   5.093   0.189   2.714
49128SOL     OW49280  12.754  12.382   2.891
49128SOL    HW149281  12.690  12.315   2.916
49128SOL    HW249282  12.705  12.464   2.895
49129SOL     OW49283   0.284  14.017   9.760
49129SOL    HW149284   0.314  14.104   9.735
49129SOL    HW249285   0.196  14.030   9.795
49130SOL     OW49286   9.136   2.352   8.699
49130SOL    HW149287   9.190   2.399   8.635
49130SOL    HW249288   9.195   2.333   8.771
49131SOL     OW49289   6.193   8.703   4.106
49131SOL    HW149290   6.276   8.746   4.084
49131SOL    HW249291   6.177   8.727   4.197
49132SOL     OW49292   2.345   9.759  12.847
49132SOL    HW149293   2.321   9.849  12.829
49132SOL    HW249294   2.331   9.749  12.941
49133SOL     OW49295  11.921  13.868  11.851
49133SOL    HW149296  11.835  13.901  11.877
49133SOL    HW249297  11.919  13.867  11.756
49134SOL     OW49298   5.338   8.101   1.759
49134SOL    HW149299   5.301   8.032   1.704
49134SOL    HW249300   5.313   8.182   1.715
49135SOL     OW49301   3.875   5.548   1.031
49135SOL    HW149302   3.945   5.506   0.980
49135SOL    HW249303   3.804   5.484   1.029
49136SOL     OW49304   6.700  10.965   4.889
49136SOL    HW149305   6.692  10.999   4.799
49136SOL    HW249306   6.794  10.953   4.901
49137SOL     OW49307   0.903   3.247   4.729
49137SOL    HW149308   0.938   3.160   4.712
49137SOL    HW249309   0.966   3.307   4.687
49138SOL     OW49310   5.717   5.220   3.634
49138SOL    HW149311   5.635   5.183   3.601
49138SOL    HW249312   5.726   5.183   3.722
49139SOL     OW49313  14.255  13.761   1.091
49139SOL    HW149314  14.221  13.672   1.082
49139SOL    HW249315  14.306  13.776   1.012
49140SOL     OW49316   4.219  13.574   5.691
49140SOL    HW149317   4.304  13.531   5.705
49140SOL    HW249318   4.229  13.661   5.730
49141SOL     OW49319   0.111   6.358   8.051
49141SOL    HW149320   0.067   6.377   7.968
49141SOL    HW249321   0.203   6.346   8.028
49142SOL     OW49322  14.511   4.163  11.890
49142SOL    HW149323  14.542   4.075  11.866
49142SOL    HW249324  14.590   4.209  11.918
49143SOL     OW49325   8.602   7.588   7.268
49143SOL    HW149326   8.640   7.505   7.297
49143SOL    HW249327   8.564   7.568   7.183
49144SOL     OW49328  11.215   9.830  13.686
49144SOL    HW149329  11.271   9.870  13.620
49144SOL    HW249330  11.275   9.786  13.747
49145SOL     OW49331  13.187  12.921   6.619
49145SOL    HW149332  13.178  12.834   6.578
49145SOL    HW249333  13.149  12.981   6.555
49146SOL     OW49334   0.586  12.026   6.133
49146SOL    HW149335   0.513  12.036   6.193
49146SOL    HW249336   0.596  12.111   6.091
49147SOL     OW49337   0.113   8.702   5.649
49147SOL    HW149338   0.188   8.663   5.695
49147SOL    HW249339   0.141   8.708   5.558
49148SOL     OW49340   4.867   7.359   6.763
49148SOL    HW149341   4.835   7.350   6.673
49148SOL    HW249342   4.886   7.453   6.772
49149SOL     OW49343   2.908   0.614   3.592
49149SOL    HW149344   2.914   0.519   3.592
49149SOL    HW249345   2.999   0.644   3.584
49150SOL     OW49346  10.871   2.286   6.323
49150SOL    HW149347  10.873   2.299   6.228
49150SOL    HW249348  10.826   2.203   6.335
49151SOL     OW49349   1.557   1.667   7.533
49151SOL    HW149350   1.513   1.699   7.612
49151SOL    HW249351   1.492   1.675   7.464
49152SOL     OW49352   3.014   3.823   1.366
49152SOL    HW149353   3.048   3.734   1.355
49152SOL    HW249354   2.991   3.828   1.459
49153SOL     OW49355   4.915   2.467   3.541
49153SOL    HW149356   4.873   2.525   3.477
49153SOL    HW249357   5.006   2.463   3.512
49154SOL     OW49358   2.181   3.038   0.992
49154SOL    HW149359   2.138   3.122   1.006
49154SOL    HW249360   2.274   3.057   1.005
49155SOL     OW49361   0.935  10.919   3.823
49155SOL    HW149362   0.955  10.833   3.860
49155SOL    HW249363   0.913  10.973   3.898
49156SOL     OW49364  13.128   6.213  12.003
49156SOL    HW149365  13.144   6.276  12.073
49156SOL    HW249366  13.162   6.255  11.924
49157SOL     OW49367  13.840   4.229   2.616
49157SOL    HW149368  13.764   4.263   2.662
49157SOL    HW249369  13.812   4.142   2.585
49158SOL     OW49370   2.148  14.762  14.606
49158SOL    HW149371   2.227  14.814  14.616
49158SOL    HW249372   2.082  14.808  14.657
49159SOL     OW49373   9.104   5.648   3.792
49159SOL    HW149374   9.080   5.601   3.872
49159SOL    HW249375   9.140   5.731   3.823
49160SOL     OW49376  12.672   9.399  14.015
49160SOL    HW149377  12.750   9.393  14.070
49160SOL    HW249378  12.705   9.392  13.925
49161SOL     OW49379  13.069   2.793   4.284
49161SOL    HW149380  13.102   2.853   4.350
49161SOL    HW249381  12.981   2.769   4.315
49162SOL     OW49382   2.544  14.229   5.414
49162SOL    HW149383   2.489  14.232   5.336
49162SOL    HW249384   2.633  14.222   5.380
49163SOL     OW49385  13.672   8.445  13.398
49163SOL    HW149386  13.712   8.524  13.433
49163SOL    HW249387  13.594   8.475  13.351
49164SOL     OW49388   3.379   5.291   5.655
49164SOL    HW149389   3.379   5.212   5.709
49164SOL    HW249390   3.289   5.298   5.623
49165SOL     OW49391   4.527   3.850   5.868
49165SOL    HW149392   4.561   3.809   5.788
49165SOL    HW249393   4.595   3.836   5.933
49166SOL     OW49394  10.140   9.330   4.970
49166SOL    HW149395  10.127   9.380   5.051
49166SOL    HW249396  10.088   9.375   4.905
49167SOL     OW49397  10.252   6.142  11.513
49167SOL    HW149398  10.193   6.066  11.520
49167SOL    HW249399  10.234   6.193  11.592
49168SOL     OW49400   8.028   8.631  11.240
49168SOL    HW149401   8.033   8.540  11.211
49168SOL    HW249402   7.940   8.640  11.277
49169SOL     OW49403   2.259   2.328  11.547
49169SOL    HW149404   2.243   2.421  11.563
49169SOL    HW249405   2.181   2.284  11.582
49170SOL     OW49406   1.830   8.391  10.281
49170SOL    HW149407   1.886   8.433  10.215
49170SOL    HW249408   1.743   8.426  10.264
49171SOL     OW49409   7.616  13.743   6.460
49171SOL    HW149410   7.543  13.805   6.460
49171SOL    HW249411   7.649  13.745   6.550
49172SOL     OW49412  13.706   3.426   1.376
49172SOL    HW149413  13.677   3.471   1.297
49172SOL    HW249414  13.682   3.486   1.447
49173SOL     OW49415   3.836  13.646   8.472
49173SOL    HW149416   3.861  13.719   8.416
49173SOL    HW249417   3.915  13.628   8.524
49174SOL     OW49418   6.289  10.752   5.123
49174SOL    HW149419   6.218  10.809   5.152
49174SOL    HW249420   6.245  10.671   5.097
49175SOL     OW49421   1.997   0.630  13.374
49175SOL    HW149422   2.091   0.616  13.388
49175SOL    HW249423   1.959   0.543  13.382
49176SOL     OW49424   5.553  11.172   6.413
49176SOL    HW149425   5.583  11.259   6.386
49176SOL    HW249426   5.487  11.188   6.479
49177SOL     OW49427   7.083   0.786   9.808
49177SOL    HW149428   7.099   0.694   9.786
49177SOL    HW249429   7.163   0.831   9.782
49178SOL     OW49430  12.964   8.000  13.303
49178SOL    HW149431  12.963   8.094  13.323
49178SOL    HW249432  12.884   7.985  13.253
49179SOL     OW49433  14.534   8.711   4.970
49179SOL    HW149434  14.515   8.681   4.881
49179SOL    HW249435  14.459   8.767   4.992
49180SOL     OW49436   0.058   2.801   4.491
49180SOL    HW149437   0.075   2.895   4.487
49180SOL    HW249438   0.074   2.769   4.402
49181SOL     OW49439   2.135   1.513  14.225
49181SOL    HW149440   2.133   1.571  14.149
49181SOL    HW249441   2.178   1.564  14.293
49182SOL     OW49442   9.521   8.139  12.583
49182SOL    HW149443   9.609   8.102  12.579
49182SOL    HW249444   9.463   8.066  12.562
49183SOL     OW49445   7.714   9.477   8.937
49183SOL    HW149446   7.725   9.393   8.891
49183SOL    HW249447   7.620   9.491   8.938
49184SOL     OW49448   8.925   0.072  14.109
49184SOL    HW149449   8.921   0.107  14.020
49184SOL    HW249450   8.837   0.084  14.143
49185SOL     OW49451   7.615  13.520  13.670
49185SOL    HW149452   7.644  13.429  13.671
49185SOL    HW249453   7.539  13.520  13.611
49186SOL     OW49454   0.434   0.254   4.641
49186SOL    HW149455   0.425   0.349   4.655
49186SOL    HW249456   0.474   0.221   4.721
49187SOL     OW49457  10.050  13.186   6.896
49187SOL    HW149458  10.101  13.106   6.906
49187SOL    HW249459  10.009  13.178   6.810
49188SOL     OW49460  10.773   0.700   2.122
49188SOL    HW149461  10.852   0.658   2.157
49188SOL    HW249462  10.798   0.726   2.033
49189SOL     OW49463  10.945  12.957  13.362
49189SOL    HW149464  10.892  12.916  13.294
49189SOL    HW249465  11.003  13.017  13.315
49190SOL     OW49466   7.219   4.952  10.584
49190SOL    HW149467   7.163   4.903  10.523
49190SOL    HW249468   7.158   5.005  10.635
49191SOL     OW49469   8.497   6.658  14.368
49191SOL    HW149470   8.556   6.725  14.401
49191SOL    HW249471   8.503   6.587  14.433
49192SOL     OW49472   9.603   7.944   9.593
49192SOL    HW149473   9.652   7.875   9.549
49192SOL    HW249474   9.546   7.898   9.655
49193SOL     OW49475   9.016  11.091   9.950
49193SOL    HW149476   8.954  11.108  10.021
49193SOL    HW249477   9.050  11.177   9.927
49194SOL     OW49478   4.847   2.589   9.938
49194SOL    HW149479   4.906   2.522   9.904
49194SOL    HW249480   4.801   2.622   9.860
49195SOL     OW49481  14.481   3.659   7.239
49195SOL    HW149482  14.392   3.673   7.272
49195SOL    HW249483  14.534   3.649   7.319
49196SOL     OW49484  11.687   1.377   9.335
49196SOL    HW149485  11.670   1.357   9.427
49196SOL    HW249486  11.741   1.304   9.304
49197SOL     OW49487  13.141  10.554   7.683
49197SOL    HW149488  13.063  10.537   7.736
49197SOL    HW249489  13.182  10.629   7.725
49198SOL     OW49490  14.100  10.736   4.151
49198SOL    HW149491  14.064  10.802   4.210
49198SOL    HW249492  14.191  10.763   4.139
49199SOL     OW49493   4.623  11.561   1.655
49199SOL    HW149494   4.641  11.565   1.562
49199SOL    HW249495   4.647  11.472   1.681
49200SOL     OW49496   7.505   1.123   5.651
49200SOL    HW149497   7.547   1.050   5.607
49200SOL    HW249498   7.431   1.084   5.699
49201SOL     OW49499   2.821  13.520   0.514
49201SOL    HW149500   2.892  13.582   0.505
49201SOL    HW249501   2.756  13.547   0.449
49202SOL     OW49502   6.579   6.359   0.422
49202SOL    HW149503   6.633   6.340   0.500
49202SOL    HW249504   6.612   6.442   0.390
49203SOL     OW49505  13.710   8.655  11.597
49203SOL    HW149506  13.696   8.572  11.551
49203SOL    HW249507  13.628   8.703  11.584
49204SOL     OW49508   9.977   0.645   3.869
49204SOL    HW149509  10.042   0.641   3.799
49204SOL    HW249510  10.026   0.624   3.949
49205SOL     OW49511  12.122   1.302   6.128
49205SOL    HW149512  12.084   1.223   6.166
49205SOL    HW249513  12.134   1.282   6.035
49206SOL     OW49514  11.524   5.410   0.703
49206SOL    HW149515  11.539   5.404   0.608
49206SOL    HW249516  11.475   5.491   0.714
49207SOL     OW49517   8.595   5.433   4.596
49207SOL    HW149518   8.519   5.394   4.638
49207SOL    HW249519   8.667   5.374   4.617
49208SOL     OW49520   3.791   6.413   5.550
49208SOL    HW149521   3.751   6.497   5.529
49208SOL    HW249522   3.878   6.417   5.511
49209SOL     OW49523   6.476   2.758   6.983
49209SOL    HW149524   6.548   2.700   7.009
49209SOL    HW249525   6.515   2.817   6.919
49210SOL     OW49526  14.103   3.662   5.690
49210SOL    HW149527  14.049   3.733   5.655
49210SOL    HW249528  14.119   3.686   5.781
49211SOL     OW49529   2.041  13.470   0.487
49211SOL    HW149530   2.012  13.493   0.576
49211SOL    HW249531   1.978  13.404   0.458
49212SOL     OW49532  13.421  11.542   8.299
49212SOL    HW149533  13.354  11.500   8.354
49212SOL    HW249534  13.450  11.472   8.240
49213SOL     OW49535   1.564  13.608   1.821
49213SOL    HW149536   1.558  13.522   1.778
49213SOL    HW249537   1.483  13.652   1.796
49214SOL     OW49538   8.162   2.485  11.952
49214SOL    HW149539   8.233   2.464  11.892
49214SOL    HW249540   8.091   2.425  11.928
49215SOL     OW49541   6.659   3.243  13.252
49215SOL    HW149542   6.607   3.165  13.236
49215SOL    HW249543   6.597   3.316  13.242
49216SOL     OW49544   9.126   9.956   5.547
49216SOL    HW149545   9.049   9.923   5.592
49216SOL    HW249546   9.129   9.907   5.465
49217SOL     OW49547   0.781  13.481   8.173
49217SOL    HW149548   0.869  13.445   8.181
49217SOL    HW249549   0.724  13.406   8.193
49218SOL     OW49550   9.019  12.308   2.704
49218SOL    HW149551   8.974  12.266   2.631
49218SOL    HW249552   8.969  12.282   2.781
49219SOL     OW49553   0.903   9.942   8.446
49219SOL    HW149554   0.913  10.037   8.454
49219SOL    HW249555   0.818   9.931   8.404
49220SOL     OW49556  11.778   9.722   5.254
49220SOL    HW149557  11.755   9.631   5.271
49220SOL    HW249558  11.852   9.718   5.193
49221SOL     OW49559  12.311   8.175   2.571
49221SOL    HW149560  12.375   8.237   2.605
49221SOL    HW249561  12.317   8.184   2.476
49222SOL     OW49562   3.942  13.462   3.030
49222SOL    HW149563   3.947  13.432   3.121
49222SOL    HW249564   3.852  13.494   3.020
49223SOL     OW49565   0.867   5.596  10.719
49223SOL    HW149566   0.830   5.589  10.807
49223SOL    HW249567   0.905   5.683  10.715
49224SOL     OW49568  12.436   8.871   5.557
49224SOL    HW149569  12.454   8.873   5.651
49224SOL    HW249570  12.364   8.933   5.545
49225SOL     OW49571  12.474   9.490  11.742
49225SOL    HW149572  12.497   9.402  11.712
49225SOL    HW249573  12.521   9.548  11.683
49226SOL     OW49574   2.255   1.223   2.102
49226SOL    HW149575   2.207   1.212   2.184
49226SOL    HW249576   2.187   1.243   2.038
49227SOL     OW49577   7.093   5.372   9.053
49227SOL    HW149578   7.108   5.442   9.117
49227SOL    HW249579   7.117   5.292   9.100
49228SOL     OW49580   2.674   9.749  11.931
49228SOL    HW149581   2.632   9.763  11.846
49228SOL    HW249582   2.767   9.762  11.915
49229SOL     OW49583   0.380   6.277   4.368
49229SOL    HW149584   0.411   6.360   4.332
49229SOL    HW249585   0.359   6.223   4.292
49230SOL     OW49586   0.390   1.860   7.208
49230SOL    HW149587   0.419   1.836   7.120
49230SOL    HW249588   0.354   1.778   7.245
49231SOL     OW49589   9.659  10.246   0.481
49231SOL    HW149590   9.666  10.152   0.462
49231SOL    HW249591   9.594  10.278   0.419
49232SOL     OW49592  10.084   7.988   5.927
49232SOL    HW149593  10.042   7.901   5.934
49232SOL    HW249594  10.033   8.043   5.986
49233SOL     OW49595  13.213  12.768   8.922
49233SOL    HW149596  13.239  12.776   8.830
49233SOL    HW249597  13.123  12.735   8.919
49234SOL     OW49598   0.732   7.161  11.599
49234SOL    HW149599   0.777   7.233  11.644
49234SOL    HW249600   0.802   7.109  11.561
49235SOL     OW49601  11.338  10.935   2.620
49235SOL    HW149602  11.268  10.871   2.630
49235SOL    HW249603  11.377  10.942   2.707
49236SOL     OW49604   6.211   4.909   8.989
49236SOL    HW149605   6.188   4.821   9.019
49236SOL    HW249606   6.127   4.951   8.969
49237SOL     OW49607   9.682  10.441   7.835
49237SOL    HW149608   9.628  10.520   7.847
49237SOL    HW249609   9.682  10.399   7.921
49238SOL     OW49610   7.630  10.701  14.252
49238SOL    HW149611   7.628  10.779  14.196
49238SOL    HW249612   7.559  10.713  14.314
49239SOL     OW49613   9.042   9.174   6.542
49239SOL    HW149614   8.992   9.109   6.492
49239SOL    HW249615   8.980   9.208   6.606
49240SOL     OW49616   1.161   8.430  11.173
49240SOL    HW149617   1.159   8.474  11.087
49240SOL    HW249618   1.194   8.343  11.154
49241SOL     OW49619   0.290   9.452  12.673
49241SOL    HW149620   0.356   9.494  12.728
49241SOL    HW249621   0.335   9.378  12.633
49242SOL     OW49622   2.393   0.920  10.333
49242SOL    HW149623   2.384   1.002  10.284
49242SOL    HW249624   2.307   0.878  10.327
49243SOL     OW49625   0.293   0.616  13.804
49243SOL    HW149626   0.220   0.589  13.749
49243SOL    HW249627   0.259   0.687  13.858
49244SOL     OW49628   8.859   9.602   1.610
49244SOL    HW149629   8.797   9.675   1.608
49244SOL    HW249630   8.827   9.542   1.543
49245SOL     OW49631  12.839   7.824   6.105
49245SOL    HW149632  12.899   7.796   6.173
49245SOL    HW249633  12.769   7.758   6.106
49246SOL     OW49634   2.393   2.329   7.859
49246SOL    HW149635   2.302   2.303   7.876
49246SOL    HW249636   2.408   2.303   7.768
49247SOL     OW49637   7.650   5.541  11.876
49247SOL    HW149638   7.715   5.514  11.941
49247SOL    HW249639   7.668   5.485  11.800
49248SOL     OW49640  10.187   1.058   4.617
49248SOL    HW149641  10.240   1.095   4.547
49248SOL    HW249642  10.235   1.077   4.697
49249SOL     OW49643   3.496   3.243   3.840
49249SOL    HW149644   3.459   3.169   3.889
49249SOL    HW249645   3.590   3.227   3.841
49250SOL     OW49646   4.101   7.938  12.738
49250SOL    HW149647   4.082   7.987  12.818
49250SOL    HW249648   4.023   7.885  12.722
49251SOL     OW49649  11.326   0.157   9.160
49251SOL    HW149650  11.370   0.081   9.197
49251SOL    HW249651  11.395   0.206   9.117
49252SOL     OW49652   3.407   4.720  14.864
49252SOL    HW149653   3.334   4.744  14.807
49252SOL    HW249654   3.451   4.648  14.817
49253SOL     OW49655   9.511   4.687  13.758
49253SOL    HW149656   9.494   4.593  13.767
49253SOL    HW249657   9.455   4.728  13.823
49254SOL     OW49658   3.401   2.353  12.063
49254SOL    HW149659   3.363   2.340  11.976
49254SOL    HW249660   3.495   2.355  12.048
49255SOL     OW49661   5.634  12.931   7.621
49255SOL    HW149662   5.693  12.858   7.600
49255SOL    HW249663   5.674  13.007   7.580
49256SOL     OW49664   5.182  11.512  13.746
49256SOL    HW149665   5.247  11.552  13.688
49256SOL    HW249666   5.157  11.582  13.806
49257SOL     OW49667  11.918  11.530  11.471
49257SOL    HW149668  11.930  11.624  11.486
49257SOL    HW249669  11.826  11.514  11.493
49258SOL     OW49670   9.550   4.652   1.106
49258SOL    HW149671   9.507   4.698   1.178
49258SOL    HW249672   9.641   4.642   1.134
49259SOL     OW49673   9.143  13.245   6.524
49259SOL    HW149674   9.194  13.301   6.582
49259SOL    HW249675   9.076  13.206   6.581
49260SOL     OW49676   5.572   6.058   0.188
49260SOL    HW149677   5.532   6.058   0.275
49260SOL    HW249678   5.535   5.981   0.145
49261SOL     OW49679   3.870   9.033   4.319
49261SOL    HW149680   3.910   8.952   4.288
49261SOL    HW249681   3.935   9.070   4.379
49262SOL     OW49682   4.066   0.672  10.677
49262SOL    HW149683   3.999   0.690  10.742
49262SOL    HW249684   4.145   0.653  10.728
49263SOL     OW49685  14.771  11.138  12.647
49263SOL    HW149686  14.737  11.217  12.606
49263SOL    HW249687  14.825  11.098  12.579
49264SOL     OW49688   7.008   3.459   3.625
49264SOL    HW149689   6.913   3.457   3.616
49264SOL    HW249690   7.035   3.539   3.580
49265SOL     OW49691   9.262  13.375   1.162
49265SOL    HW149692   9.267  13.442   1.230
49265SOL    HW249693   9.334  13.396   1.103
49266SOL     OW49694   3.940  10.094   0.113
49266SOL    HW149695   3.950  10.164   0.178
49266SOL    HW249696   3.918  10.139   0.032
49267SOL     OW49697   9.321   1.348   8.248
49267SOL    HW149698   9.413   1.372   8.254
49267SOL    HW249699   9.286   1.401   8.177
49268SOL     OW49700   5.387  14.770   1.505
49268SOL    HW149701   5.420  14.817   1.582
49268SOL    HW249702   5.402  14.678   1.526
49269SOL     OW49703  11.796   8.807   8.270
49269SOL    HW149704  11.872   8.838   8.318
49269SOL    HW249705  11.787   8.715   8.296
49270SOL     OW49706   3.952   4.332   7.134
49270SOL    HW149707   3.875   4.388   7.129
49270SOL    HW249708   4.024   4.388   7.105
49271SOL     OW49709  13.405  13.390   2.571
49271SOL    HW149710  13.413  13.468   2.516
49271SOL    HW249711  13.439  13.319   2.516
49272SOL     OW49712   0.901  13.712  10.095
49272SOL    HW149713   0.877  13.718  10.188
49272SOL    HW249714   0.942  13.626  10.087
49273SOL     OW49715   3.127   7.171   8.096
49273SOL    HW149716   3.113   7.265   8.097
49273SOL    HW249717   3.113   7.143   8.186
49274SOL     OW49718   5.345   7.947   4.112
49274SOL    HW149719   5.254   7.932   4.135
49274SOL    HW249720   5.371   7.871   4.061
49275SOL     OW49721  13.657  11.254  12.462
49275SOL    HW149722  13.630  11.226  12.549
49275SOL    HW249723  13.634  11.347  12.459
49276SOL     OW49724   6.853   6.796  14.716
49276SOL    HW149725   6.822   6.777  14.804
49276SOL    HW249726   6.813   6.880  14.693
49277SOL     OW49727   9.655   4.747   9.753
49277SOL    HW149728   9.716   4.809   9.713
49277SOL    HW249729   9.603   4.714   9.679
49278SOL     OW49730   2.833  10.490   0.188
49278SOL    HW149731   2.800  10.535   0.266
49278SOL    HW249732   2.883  10.557   0.141
49279SOL     OW49733   8.926   7.127  13.426
49279SOL    HW149734   8.960   7.204  13.471
49279SOL    HW249735   8.846   7.105  13.473
49280SOL     OW49736   2.362  11.941   5.016
49280SOL    HW149737   2.280  11.988   4.998
49280SOL    HW249738   2.405  11.933   4.931
49281SOL     OW49739  10.896  13.396   2.067
49281SOL    HW149740  10.872  13.386   2.160
49281SOL    HW249741  10.815  13.423   2.024
49282SOL     OW49742   8.890  11.547   2.874
49282SOL    HW149743   8.801  11.511   2.875
49282SOL    HW249744   8.897  11.595   2.956
49283SOL     OW49745  13.784   5.385   9.860
49283SOL    HW149746  13.879   5.375   9.852
49283SOL    HW249747  13.748   5.300   9.832
49284SOL     OW49748   0.892  11.944   2.935
49284SOL    HW149749   0.853  11.891   3.005
49284SOL    HW249750   0.983  11.955   2.962
49285SOL     OW49751  10.121   2.799  13.330
49285SOL    HW149752  10.067   2.737  13.281
49285SOL    HW249753  10.140   2.755  13.413
49286SOL     OW49754   3.487   5.858   3.875
49286SOL    HW149755   3.463   5.766   3.875
49286SOL    HW249756   3.528   5.873   3.790
49287SOL     OW49757   9.545   4.470  11.829
49287SOL    HW149758   9.540   4.434  11.918
49287SOL    HW249759   9.639   4.480  11.813
49288SOL     OW49760   1.328   5.548   4.205
49288SOL    HW149761   1.380   5.612   4.253
49288SOL    HW249762   1.265   5.600   4.156
49289SOL     OW49763   4.408   3.059   3.614
49289SOL    HW149764   4.407   3.004   3.535
49289SOL    HW249765   4.382   2.999   3.684
49290SOL     OW49766   6.565  10.911  14.107
49290SOL    HW149767   6.525  10.945  14.187
49290SOL    HW249768   6.636  10.973  14.088
49291SOL     OW49769  11.083   6.533   8.216
49291SOL    HW149770  11.041   6.613   8.183
49291SOL    HW249771  11.135   6.562   8.291
49292SOL     OW49772  11.035   7.359   0.441
49292SOL    HW149773  11.117   7.398   0.411
49292SOL    HW249774  10.976   7.367   0.366
49293SOL     OW49775  14.091  12.360  11.418
49293SOL    HW149776  14.069  12.335  11.328
49293SOL    HW249777  14.128  12.448  11.410
49294SOL     OW49778   5.924  12.147   0.653
49294SOL    HW149779   5.962  12.232   0.630
49294SOL    HW249780   5.995  12.085   0.635
49295SOL     OW49781  10.412  11.193   2.975
49295SOL    HW149782  10.388  11.285   2.960
49295SOL    HW249783  10.508  11.195   2.981
49296SOL     OW49784   7.818  10.273  10.691
49296SOL    HW149785   7.758  10.199  10.688
49296SOL    HW249786   7.880  10.252  10.761
49297SOL     OW49787   9.133   5.477   6.154
49297SOL    HW149788   9.183   5.499   6.233
49297SOL    HW249789   9.096   5.561   6.126
49298SOL     OW49790  12.732  10.848   2.056
49298SOL    HW149791  12.763  10.884   1.973
49298SOL    HW249792  12.806  10.859   2.116
49299SOL     OW49793  13.654   6.327  13.879
49299SOL    HW149794  13.689   6.252  13.928
49299SOL    HW249795  13.682   6.403  13.930
49300SOL     OW49796  10.292  12.387   2.554
49300SOL    HW149797  10.377  12.395   2.511
49300SOL    HW249798  10.262  12.477   2.566
49301SOL     OW49799   3.783   8.259   2.932
49301SOL    HW149800   3.700   8.285   2.971
49301SOL    HW249801   3.837   8.231   3.007
49302SOL     OW49802  13.789  11.576   3.814
49302SOL    HW149803  13.773  11.537   3.900
49302SOL    HW249804  13.701  11.590   3.778
49303SOL     OW49805   1.554   5.081  10.811
49303SOL    HW149806   1.615   5.141  10.768
49303SOL    HW249807   1.550   5.112  10.901
49304SOL     OW49808  13.798   4.593   6.487
49304SOL    HW149809  13.731   4.588   6.556
49304SOL    HW249810  13.770   4.666   6.432
49305SOL     OW49811   1.202   3.286   1.248
49305SOL    HW149812   1.116   3.266   1.212
49305SOL    HW249813   1.254   3.316   1.173
49306SOL     OW49814   0.320  12.470   8.632
49306SOL    HW149815   0.252  12.404   8.626
49306SOL    HW249816   0.393  12.426   8.675
49307SOL     OW49817   3.178  11.782  14.523
49307SOL    HW149818   3.235  11.812  14.452
49307SOL    HW249819   3.099  11.751  14.478
49308SOL     OW49820   2.364  11.573  11.212
49308SOL    HW149821   2.388  11.584  11.304
49308SOL    HW249822   2.323  11.487  11.208
49309SOL     OW49823   9.533   0.747   3.333
49309SOL    HW149824   9.485   0.779   3.409
49309SOL    HW249825   9.468   0.700   3.281
49310SOL     OW49826   2.138   7.680  11.459
49310SOL    HW149827   2.204   7.667  11.391
49310SOL    HW249828   2.167   7.625  11.532
49311SOL     OW49829   6.923   5.573   0.356
49311SOL    HW149830   7.010   5.534   0.345
49311SOL    HW249831   6.869   5.528   0.290
49312SOL     OW49832   9.066   3.706  11.649
49312SOL    HW149833   9.094   3.756  11.726
49312SOL    HW249834   9.100   3.755  11.574
49313SOL     OW49835   6.301  13.191   2.160
49313SOL    HW149836   6.319  13.117   2.103
49313SOL    HW249837   6.232  13.161   2.219
49314SOL     OW49838   3.056  14.688   7.757
49314SOL    HW149839   2.994  14.757   7.780
49314SOL    HW249840   3.114  14.728   7.692
49315SOL     OW49841  12.988   5.075  14.816
49315SOL    HW149842  12.962   5.012  14.749
49315SOL    HW249843  13.013   5.022   0.020
49316SOL     OW49844  12.753   6.509   6.432
49316SOL    HW149845  12.714   6.553   6.357
49316SOL    HW249846  12.680   6.496   6.493
49317SOL     OW49847   4.637   5.856   0.869
49317SOL    HW149848   4.584   5.852   0.948
49317SOL    HW249849   4.708   5.793   0.884
49318SOL     OW49850  14.536   1.904  13.554
49318SOL    HW149851  14.583   1.986  13.541
49318SOL    HW249852  14.456   1.913  13.503
49319SOL     OW49853   4.451  13.517  10.753
49319SOL    HW149854   4.360  13.529  10.724
49319SOL    HW249855   4.450  13.543  10.845
49320SOL     OW49856   9.757   1.839   4.426
49320SOL    HW149857   9.761   1.833   4.331
49320SOL    HW249858   9.699   1.913   4.443
49321SOL     OW49859   4.633   7.242   5.812
49321SOL    HW149860   4.678   7.276   5.735
49321SOL    HW249861   4.584   7.316   5.846
49322SOL     OW49862   9.317   8.558  12.558
49322SOL    HW149863   9.365   8.529  12.635
49322SOL    HW249864   9.335   8.492  12.492
49323SOL     OW49865   1.921   0.393  12.166
49323SOL    HW149866   1.957   0.325  12.223
49323SOL    HW249867   1.998   0.431  12.123
49324SOL     OW49868  14.575   4.633   5.761
49324SOL    HW149869  14.657   4.663   5.801
49324SOL    HW249870  14.592   4.541   5.739
49325SOL     OW49871   1.622  10.422  13.962
49325SOL    HW149872   1.610  10.436  13.869
49325SOL    HW249873   1.538  10.446  14.002
49326SOL     OW49874  12.359  11.924  13.896
49326SOL    HW149875  12.442  11.901  13.938
49326SOL    HW249876  12.375  12.010  13.856
49327SOL     OW49877   9.197   8.241   2.002
49327SOL    HW149878   9.114   8.194   1.994
49327SOL    HW249879   9.174   8.322   2.048
49328SOL     OW49880   2.238  10.540   2.151
49328SOL    HW149881   2.274  10.459   2.115
49328SOL    HW249882   2.307  10.575   2.207
49329SOL     OW49883   9.777  11.393   0.860
49329SOL    HW149884   9.797  11.448   0.785
49329SOL    HW249885   9.856  11.397   0.914
49330SOL     OW49886   0.283   6.015   2.920
49330SOL    HW149887   0.297   6.044   2.830
49330SOL    HW249888   0.357   6.053   2.969
49331SOL     OW49889   2.860   9.518  12.032
49331SOL    HW149890   2.929   9.539  11.970
49331SOL    HW249891   2.857   9.423  12.034
49332SOL     OW49892  11.431  14.310   2.914
49332SOL    HW149893  11.506  14.276   2.963
49332SOL    HW249894  11.368  14.238   2.911
49333SOL     OW49895   2.426   8.931   1.928
49333SOL    HW149896   2.488   8.858   1.926
49333SOL    HW249897   2.398   8.941   1.837
49334SOL     OW49898  12.951  11.137   2.205
49334SOL    HW149899  12.888  11.208   2.217
49334SOL    HW249900  12.990  11.153   2.119
49335SOL     OW49901   3.378  12.742   0.722
49335SOL    HW149902   3.318  12.773   0.654
49335SOL    HW249903   3.418  12.663   0.684
49336SOL     OW49904   7.665  13.508   2.490
49336SOL    HW149905   7.726  13.577   2.462
49336SOL    HW249906   7.589  13.519   2.433
49337SOL     OW49907   0.577  12.169   6.690
49337SOL    HW149908   0.588  12.150   6.597
49337SOL    HW249909   0.512  12.105   6.720
49338SOL     OW49910   7.483   0.907   2.190
49338SOL    HW149911   7.516   0.819   2.171
49338SOL    HW249912   7.388   0.896   2.196
49339SOL     OW49913   1.475   9.060   5.623
49339SOL    HW149914   1.386   9.093   5.633
49339SOL    HW249915   1.506   9.044   5.713
49340SOL     OW49916  11.959   2.872  10.162
49340SOL    HW149917  12.053   2.858  10.153
49340SOL    HW249918  11.939   2.843  10.251
49341SOL     OW49919   1.478  10.628   0.120
49341SOL    HW149920   1.439  10.688   0.057
49341SOL    HW249921   1.408  10.609   0.182
49342SOL     OW49922  10.122  13.006   9.896
49342SOL    HW149923  10.129  13.096   9.866
49342SOL    HW249924  10.063  12.964   9.832
49343SOL     OW49925   7.217  10.330   1.000
49343SOL    HW149926   7.156  10.264   1.033
49343SOL    HW249927   7.262  10.364   1.078
49344SOL     OW49928   1.213   9.278   7.196
49344SOL    HW149929   1.224   9.349   7.259
49344SOL    HW249930   1.242   9.200   7.243
49345SOL     OW49931   8.542   9.299   8.590
49345SOL    HW149932   8.561   9.330   8.502
49345SOL    HW249933   8.447   9.308   8.599
49346SOL     OW49934   9.751   1.070  14.680
49346SOL    HW149935   9.712   0.983  14.695
49346SOL    HW249936   9.691   1.131  14.723
49347SOL     OW49937   8.737   0.636   6.021
49347SOL    HW149938   8.711   0.569   5.958
49347SOL    HW249939   8.815   0.600   6.063
49348SOL     OW49940  10.019   5.191   0.280
49348SOL    HW149941  10.006   5.198   0.375
49348SOL    HW249942  10.097   5.245   0.263
49349SOL     OW49943   8.692   1.557   8.476
49349SOL    HW149944   8.680   1.558   8.571
49349SOL    HW249945   8.659   1.642   8.448
49350SOL     OW49946   5.271   1.620  12.169
49350SOL    HW149947   5.302   1.545  12.117
49350SOL    HW249948   5.316   1.610  12.253
49351SOL     OW49949  14.578   6.309  13.435
49351SOL    HW149950  14.642   6.377  13.454
49351SOL    HW249951  14.593   6.286  13.344
49352SOL     OW49952   7.475   7.116  11.066
49352SOL    HW149953   7.407   7.084  11.124
49352SOL    HW249954   7.436   7.110  10.978
49353SOL     OW49955   4.580  13.533  11.865
49353SOL    HW149956   4.572  13.441  11.841
49353SOL    HW249957   4.658  13.537  11.920
49354SOL     OW49958   2.539  13.990   0.227
49354SOL    HW149959   2.547  13.970   0.133
49354SOL    HW249960   2.462  13.941   0.255
49355SOL     OW49961   6.804  12.359  12.712
49355SOL    HW149962   6.756  12.368  12.630
49355SOL    HW249963   6.743  12.391  12.779
49356SOL     OW49964  10.603   9.226  14.567
49356SOL    HW149965  10.530   9.283  14.592
49356SOL    HW249966  10.623   9.251  14.477
49357SOL     OW49967   2.697   6.648   0.381
49357SOL    HW149968   2.663   6.576   0.328
49357SOL    HW249969   2.658   6.726   0.344
49358SOL     OW49970   5.381   5.631   4.845
49358SOL    HW149971   5.328   5.707   4.869
49358SOL    HW249972   5.449   5.627   4.912
49359SOL     OW49973   0.319   1.208   4.272
49359SOL    HW149974   0.410   1.188   4.294
49359SOL    HW249975   0.270   1.189   4.352
49360SOL     OW49976   9.201   2.818  11.378
49360SOL    HW149977   9.219   2.842  11.287
49360SOL    HW249978   9.155   2.894  11.414
49361SOL     OW49979   2.199  13.369   1.503
49361SOL    HW149980   2.224  13.278   1.519
49361SOL    HW249981   2.121  13.381   1.557
49362SOL     OW49982   4.631   9.733   2.419
49362SOL    HW149983   4.664   9.649   2.452
49362SOL    HW249984   4.577   9.709   2.344
49363SOL     OW49985  10.323   9.491  12.111
49363SOL    HW149986  10.391   9.496  12.178
49363SOL    HW249987  10.366   9.519  12.031
49364SOL     OW49988   9.253  11.098  13.801
49364SOL    HW149989   9.292  11.186  13.802
49364SOL    HW249990   9.195  11.099  13.725
49365SOL     OW49991   8.647   7.318   3.333
49365SOL    HW149992   8.737   7.296   3.354
49365SOL    HW249993   8.627   7.266   3.255
49366SOL     OW49994  13.286  13.165  11.955
49366SOL    HW149995  13.323  13.085  11.917
49366SOL    HW249996  13.337  13.180  12.035
49367SOL     OW49997   0.079   9.232  12.625
49367SOL    HW149998   0.132   9.297  12.670
49367SOL    HW249999   0.105   9.239  12.533
49368SOL     OW50000   2.115  11.886  11.806
49368SOL    HW150001   2.104  11.798  11.841
49368SOL    HW250002   2.168  11.875  11.727
49369SOL     OW50003   4.222   5.979   6.235
49369SOL    HW150004   4.292   6.043   6.242
49369SOL    HW250005   4.156   6.021   6.181
49370SOL     OW50006   3.664   1.039  13.522
49370SOL    HW150007   3.579   1.071  13.491
49370SOL    HW250008   3.642   0.965  13.579
49371SOL     OW50009   6.544   6.308   1.299
49371SOL    HW150010   6.495   6.246   1.353
49371SOL    HW250011   6.527   6.393   1.339
49372SOL     OW50012   6.713   6.620   4.819
49372SOL    HW150013   6.678   6.701   4.855
49372SOL    HW250014   6.654   6.552   4.851
49373SOL     OW50015   3.826   8.519   2.615
49373SOL    HW150016   3.785   8.433   2.607
49373SOL    HW250017   3.910   8.502   2.658
49374SOL     OW50018   1.336   1.032  13.069
49374SOL    HW150019   1.426   1.058  13.052
49374SOL    HW250020   1.310   0.982  12.991
49375SOL     OW50021   4.983   3.083   7.118
49375SOL    HW150022   4.999   3.175   7.139
49375SOL    HW250023   5.027   3.035   7.188
49376SOL     OW50024  14.150   6.121   7.351
49376SOL    HW150025  14.152   6.025   7.352
49376SOL    HW250026  14.224   6.147   7.407
49377SOL     OW50027   7.781  12.396   1.677
49377SOL    HW150028   7.777  12.367   1.586
49377SOL    HW250029   7.867  12.367   1.708
49378SOL     OW50030   8.375   0.874   3.540
49378SOL    HW150031   8.301   0.916   3.584
49378SOL    HW250032   8.401   0.803   3.599
49379SOL     OW50033   3.939   8.092   9.852
49379SOL    HW150034   3.996   8.016   9.845
49379SOL    HW250035   3.937   8.129   9.764
49380SOL     OW50036   8.432   6.749   1.015
49380SOL    HW150037   8.464   6.708   1.096
49380SOL    HW250038   8.494   6.819   0.998
49381SOL     OW50039   6.941  10.567  14.011
49381SOL    HW150040   7.009  10.525  13.959
49381SOL    HW250041   6.877  10.498  14.027
49382SOL     OW50042  12.244  14.252  12.041
49382SOL    HW150043  12.275  14.204  12.118
49382SOL    HW250044  12.316  14.308  12.016
49383SOL     OW50045  10.945  11.469  10.161
49383SOL    HW150046  10.861  11.425  10.164
49383SOL    HW250047  10.984  11.454  10.248
49384SOL     OW50048   3.355   9.268   8.674
49384SOL    HW150049   3.379   9.353   8.637
49384SOL    HW250050   3.434   9.239   8.720
49385SOL     OW50051  11.343   1.647  14.526
49385SOL    HW150052  11.435   1.645  14.550
49385SOL    HW250053  11.296   1.635  14.608
49386SOL     OW50054  11.695   8.325   0.765
49386SOL    HW150055  11.762   8.293   0.825
49386SOL    HW250056  11.689   8.419   0.784
49387SOL     OW50057   7.381   9.715  12.339
49387SOL    HW150058   7.287   9.729  12.350
49387SOL    HW250059   7.409   9.787  12.281
49388SOL     OW50060  12.120  12.474   9.526
49388SOL    HW150061  12.050  12.469   9.591
49388SOL    HW250062  12.081  12.521   9.453
49389SOL     OW50063   9.925   9.134  10.638
49389SOL    HW150064   9.934   9.229  10.637
49389SOL    HW250065  10.006   9.102  10.676
49390SOL     OW50066  11.542   1.488   8.171
49390SOL    HW150067  11.550   1.401   8.133
49390SOL    HW250068  11.466   1.482   8.229
49391SOL     OW50069   1.114   1.066  11.929
49391SOL    HW150070   1.144   1.010  11.858
49391SOL    HW250071   1.025   1.092  11.904
49392SOL     OW50072   8.312   0.382   8.758
49392SOL    HW150073   8.261   0.332   8.822
49392SOL    HW250074   8.306   0.472   8.788
49393SOL     OW50075   7.961  10.461   6.842
49393SOL    HW150076   7.941  10.553   6.861
49393SOL    HW250077   8.052  10.451   6.870
49394SOL     OW50078  13.425  12.873   3.672
49394SOL    HW150079  13.414  12.914   3.586
49394SOL    HW250080  13.337  12.867   3.708
49395SOL     OW50081   5.117  10.900   2.884
49395SOL    HW150082   5.029  10.936   2.874
49395SOL    HW250083   5.167  10.969   2.927
49396SOL     OW50084   9.951   7.394   1.756
49396SOL    HW150085   9.911   7.339   1.688
49396SOL    HW250086  10.045   7.382   1.743
49397SOL     OW50087   1.692  14.488   9.484
49397SOL    HW150088   1.637  14.457   9.413
49397SOL    HW250089   1.730  14.570   9.451
49398SOL     OW50090   4.135   1.971  10.635
49398SOL    HW150091   4.194   2.047  10.629
49398SOL    HW250092   4.191   1.896  10.617
49399SOL     OW50093   8.787   3.241  13.803
49399SOL    HW150094   8.872   3.196  13.798
49399SOL    HW250095   8.724   3.175  13.776
49400SOL     OW50096   7.794   0.420  12.370
49400SOL    HW150097   7.791   0.461  12.457
49400SOL    HW250098   7.813   0.492  12.310
49401SOL     OW50099   6.158   4.779  12.150
49401SOL    HW150100   6.116   4.754  12.233
49401SOL    HW250101   6.145   4.874  12.144
49402SOL     OW50102   0.867  12.731  14.047
49402SOL    HW150103   0.865  12.805  13.986
49402SOL    HW250104   0.776  12.700  14.050
49403SOL     OW50105  10.076  14.824   1.241
49403SOL    HW150106   9.987  14.809   1.272
49403SOL    HW250107  10.068  14.828   1.146
49404SOL     OW50108  12.404   7.180   8.094
49404SOL    HW150109  12.328   7.168   8.037
49404SOL    HW250110  12.478   7.190   8.034
49405SOL     OW50111  13.521   2.333   7.518
49405SOL    HW150112  13.456   2.276   7.478
49405SOL    HW250113  13.512   2.318   7.612
49406SOL     OW50114   9.182   6.854   4.802
49406SOL    HW150115   9.134   6.934   4.823
49406SOL    HW250116   9.262   6.885   4.758
49407SOL     OW50117  11.225  14.391   9.153
49407SOL    HW150118  11.221  14.360   9.243
49407SOL    HW250119  11.172  14.471   9.153
49408SOL     OW50120   8.468   4.071   2.242
49408SOL    HW150121   8.520   4.070   2.322
49408SOL    HW250122   8.470   3.981   2.210
49409SOL     OW50123  13.588   5.156  12.739
49409SOL    HW150124  13.525   5.091  12.771
49409SOL    HW250125  13.570   5.161  12.645
49410SOL     OW50126   0.689  13.257   1.113
49410SOL    HW150127   0.609  13.255   1.165
49410SOL    HW250128   0.668  13.311   1.038
49411SOL     OW50129   7.010   5.515   3.718
49411SOL    HW150130   7.014   5.601   3.676
49411SOL    HW250131   7.101   5.490   3.731
49412SOL     OW50132   0.765   2.032   7.302
49412SOL    HW150133   0.859   2.031   7.318
49412SOL    HW250134   0.756   2.061   7.211
49413SOL     OW50135   0.880  14.316  14.180
49413SOL    HW150136   0.945  14.345  14.116
49413SOL    HW250137   0.836  14.396  14.207
49414SOL     OW50138  11.065  10.893   7.787
49414SOL    HW150139  11.128  10.923   7.722
49414SOL    HW250140  11.045  10.803   7.761
49415SOL     OW50141  11.006   1.728   4.648
49415SOL    HW150142  11.049   1.678   4.717
49415SOL    HW250143  10.915   1.734   4.674
49416SOL     OW50144   3.706   0.692   6.414
49416SOL    HW150145   3.734   0.741   6.337
49416SOL    HW250146   3.780   0.700   6.475
49417SOL     OW50147  14.700   8.420  10.385
49417SOL    HW150148  14.787   8.393  10.417
49417SOL    HW250149  14.666   8.476  10.455
49418SOL     OW50150   2.498  13.792   5.372
49418SOL    HW150151   2.547  13.827   5.299
49418SOL    HW250152   2.553  13.810   5.449
49419SOL     OW50153   8.532  10.886   6.786
49419SOL    HW150154   8.567  10.799   6.766
49419SOL    HW250155   8.544  10.936   6.705
49420SOL     OW50156   4.112  13.444  12.509
49420SOL    HW150157   4.115  13.418  12.601
49420SOL    HW250158   4.180  13.511  12.500
49421SOL     OW50159   7.340   2.350   7.349
49421SOL    HW150160   7.423   2.310   7.372
49421SOL    HW250161   7.275   2.305   7.404
49422SOL     OW50162  11.427   9.240   4.815
49422SOL    HW150163  11.463   9.272   4.733
49422SOL    HW250164  11.468   9.155   4.828
49423SOL     OW50165  14.605   3.487  10.007
49423SOL    HW150166  14.683   3.521  10.051
49423SOL    HW250167  14.636   3.407   9.963
49424SOL     OW50168  10.221   7.422  11.205
49424SOL    HW150169  10.222   7.402  11.112
49424SOL    HW250170  10.138   7.469  11.219
49425SOL     OW50171   6.483   1.032   6.030
49425SOL    HW150172   6.553   1.037   6.095
49425SOL    HW250173   6.470   0.938   6.017
49426SOL     OW50174   1.234   4.006   6.125
49426SOL    HW150175   1.279   3.937   6.172
49426SOL    HW250176   1.171   4.041   6.188
49427SOL     OW50177   4.851   8.568  11.590
49427SOL    HW150178   4.905   8.620  11.650
49427SOL    HW250179   4.906   8.558  11.512
49428SOL     OW50180  10.700  13.170   8.614
49428SOL    HW150181  10.741  13.255   8.627
49428SOL    HW250182  10.678  13.140   8.702
49429SOL     OW50183  13.023   6.920  13.398
49429SOL    HW150184  12.996   6.829  13.410
49429SOL    HW250185  13.066   6.943  13.481
49430SOL     OW50186   5.851  11.225   7.537
49430SOL    HW150187   5.818  11.182   7.616
49430SOL    HW250188   5.891  11.306   7.569
49431SOL     OW50189   6.336  12.235   7.408
49431SOL    HW150190   6.425  12.263   7.385
49431SOL    HW250191   6.341  12.214   7.502
49432SOL     OW50192  13.944   6.728   3.538
49432SOL    HW150193  14.033   6.757   3.560
49432SOL    HW250194  13.956   6.672   3.461
49433SOL     OW50195  10.758  10.854  12.815
49433SOL    HW150196  10.679  10.860  12.760
49433SOL    HW250197  10.807  10.781  12.776
49434SOL     OW50198   1.557   3.450   8.677
49434SOL    HW150199   1.620   3.379   8.662
49434SOL    HW250200   1.502   3.418   8.749
49435SOL     OW50201   2.520  12.097   6.697
49435SOL    HW150202   2.607  12.114   6.661
49435SOL    HW250203   2.460  12.149   6.644
49436SOL     OW50204   6.267   2.448  14.212
49436SOL    HW150205   6.221   2.499  14.279
49436SOL    HW250206   6.287   2.365  14.253
49437SOL     OW50207   1.262   9.062   4.970
49437SOL    HW150208   1.358   9.059   4.969
49437SOL    HW250209   1.239   9.060   5.063
49438SOL     OW50210   9.634   5.941   4.473
49438SOL    HW150211   9.719   5.945   4.431
49438SOL    HW250212   9.579   5.892   4.412
49439SOL     OW50213   9.495   9.158   5.381
49439SOL    HW150214   9.539   9.236   5.348
49439SOL    HW250215   9.525   9.087   5.323
49440SOL     OW50216   5.419   1.986  13.266
49440SOL    HW150217   5.416   2.023  13.354
49440SOL    HW250218   5.344   2.024  13.221
49441SOL     OW50219   3.389   9.649   9.639
49441SOL    HW150220   3.349   9.736   9.640
49441SOL    HW250221   3.376   9.618   9.549
49442SOL     OW50222   3.829   1.505  13.755
49442SOL    HW150223   3.790   1.546  13.832
49442SOL    HW250224   3.856   1.578  13.699
49443SOL     OW50225  12.342   3.514   6.014
49443SOL    HW150226  12.325   3.525   5.920
49443SOL    HW250227  12.281   3.446   6.041
49444SOL     OW50228   5.736  11.137   8.802
49444SOL    HW150229   5.654  11.149   8.755
49444SOL    HW250230   5.715  11.077   8.873
49445SOL     OW50231  12.790  14.782  13.478
49445SOL    HW150232  12.701  14.816  13.470
49445SOL    HW250233  12.820  14.813  13.563
49446SOL     OW50234   8.506  10.825  12.745
49446SOL    HW150235   8.446  10.752  12.729
49446SOL    HW250236   8.591  10.784  12.760
49447SOL     OW50237   4.189   1.766   9.129
49447SOL    HW150238   4.284   1.755   9.120
49447SOL    HW250239   4.160   1.800   9.044
49448SOL     OW50240   7.509   9.583  13.971
49448SOL    HW150241   7.570   9.561  14.041
49448SOL    HW250242   7.429   9.535  13.992
49449SOL     OW50243   0.561   7.359   9.066
49449SOL    HW150244   0.470   7.340   9.043
49449SOL    HW250245   0.582   7.438   9.015
49450SOL     OW50246   4.428  14.800   7.421
49450SOL    HW150247   4.369  14.867   7.455
49450SOL    HW250248   4.488  14.781   7.493
49451SOL     OW50249   6.735   4.377   2.147
49451SOL    HW150250   6.646   4.393   2.180
49451SOL    HW250251   6.722   4.334   2.063
49452SOL     OW50252   4.474  12.969   1.583
49452SOL    HW150253   4.522  12.888   1.600
49452SOL    HW250254   4.427  12.986   1.665
49453SOL     OW50255  11.988  10.215  13.468
49453SOL    HW150256  11.942  10.133  13.482
49453SOL    HW250257  12.080  10.194  13.482
49454SOL     OW50258   0.893  12.142  12.701
49454SOL    HW150259   0.828  12.147  12.631
49454SOL    HW250260   0.852  12.188  12.775
49455SOL     OW50261   0.633   9.575  10.510
49455SOL    HW150262   0.559   9.574  10.449
49455SOL    HW250263   0.633   9.488  10.549
49456SOL     OW50264   6.416  11.772   3.345
49456SOL    HW150265   6.450  11.796   3.259
49456SOL    HW250266   6.333  11.820   3.352
49457SOL     OW50267   2.788  11.445  12.585
49457SOL    HW150268   2.776  11.357  12.622
49457SOL    HW250269   2.715  11.456  12.525
49458SOL     OW50270  12.438  13.935  14.135
49458SOL    HW150271  12.497  13.932  14.210
49458SOL    HW250272  12.483  13.989  14.070
49459SOL     OW50273  13.516   8.125  10.304
49459SOL    HW150274  13.469   8.138  10.222
49459SOL    HW250275  13.464   8.173  10.369
49460SOL     OW50276   1.241   2.007   3.807
49460SOL    HW150277   1.197   1.924   3.786
49460SOL    HW250278   1.296   1.986   3.883
49461SOL     OW50279  11.060   8.254   6.974
49461SOL    HW150280  11.058   8.313   7.049
49461SOL    HW250281  11.008   8.298   6.907
49462SOL     OW50282   4.704  13.528  10.689
49462SOL    HW150283   4.715  13.433  10.700
49462SOL    HW250284   4.611  13.543  10.707
49463SOL     OW50285   3.849   4.395  11.182
49463SOL    HW150286   3.930   4.435  11.149
49463SOL    HW250287   3.843   4.427  11.272
49464SOL     OW50288   8.553  10.523  13.599
49464SOL    HW150289   8.591  10.591  13.544
49464SOL    HW250290   8.459  10.542  13.600
49465SOL     OW50291   2.835   1.697   7.102
49465SOL    HW150292   2.905   1.657   7.050
49465SOL    HW250293   2.804   1.770   7.049
49466SOL     OW50294  12.696   0.952   7.947
49466SOL    HW150295  12.657   0.873   7.910
49466SOL    HW250296  12.636   1.023   7.922
49467SOL     OW50297   0.035  10.859   1.215
49467SOL    HW150298   0.002  10.899   1.134
49467SOL    HW250299   0.130  10.870   1.209
49468SOL     OW50300   0.456   8.903  10.079
49468SOL    HW150301   0.370   8.862  10.078
49468SOL    HW250302   0.438   8.996  10.068
49469SOL     OW50303   9.715   6.093   5.555
49469SOL    HW150304   9.624   6.094   5.585
49469SOL    HW250305   9.766   6.107   5.634
49470SOL     OW50306  14.646   5.635  13.815
49470SOL    HW150307  14.627   5.598  13.901
49470SOL    HW250308  14.720   5.695  13.830
49471SOL     OW50309   1.462   6.699   4.990
49471SOL    HW150310   1.368   6.717   4.986
49471SOL    HW250311   1.483   6.704   5.083
49472SOL     OW50312   7.047   4.871   5.864
49472SOL    HW150313   7.061   4.784   5.829
49472SOL    HW250314   6.969   4.903   5.819
49473SOL     OW50315   8.461   1.313   2.211
49473SOL    HW150316   8.543   1.276   2.243
49473SOL    HW250317   8.487   1.389   2.159
49474SOL     OW50318  14.367  13.928   7.428
49474SOL    HW150319  14.300  13.889   7.484
49474SOL    HW250320  14.326  14.008   7.394
49475SOL     OW50321   5.264   5.438   1.540
49475SOL    HW150322   5.187   5.380   1.541
49475SOL    HW250323   5.325   5.398   1.602
49476SOL     OW50324   1.027   0.658  14.687
49476SOL    HW150325   0.990   0.730  14.637
49476SOL    HW250326   1.003   0.677  14.778
49477SOL     OW50327   3.588  13.183   2.270
49477SOL    HW150328   3.578  13.168   2.176
49477SOL    HW250329   3.622  13.100   2.305
49478SOL     OW50330   0.324   7.034   6.186
49478SOL    HW150331   0.328   6.939   6.195
49478SOL    HW250332   0.408   7.065   6.218
49479SOL     OW50333  12.685   2.011  10.930
49479SOL    HW150334  12.680   2.065  11.009
49479SOL    HW250335  12.635   1.933  10.950
49480SOL     OW50336  10.749  13.181  13.003
49480SOL    HW150337  10.819  13.131  13.045
49480SOL    HW250338  10.672  13.165  13.058
49481SOL     OW50339   6.835   0.403   6.116
49481SOL    HW150340   6.757   0.406   6.061
49481SOL    HW250341   6.906   0.382   6.055
49482SOL     OW50342   4.859  14.178   0.765
49482SOL    HW150343   4.890  14.181   0.674
49482SOL    HW250344   4.903  14.252   0.808
49483SOL     OW50345  10.247   2.997  13.835
49483SOL    HW150346  10.153   2.983  13.848
49483SOL    HW250347  10.279   3.023  13.921
49484SOL     OW50348   5.222  13.994  11.819
49484SOL    HW150349   5.248  13.913  11.774
49484SOL    HW250350   5.276  13.997  11.897
49485SOL     OW50351   1.913  11.697   9.162
49485SOL    HW150352   1.944  11.658   9.244
49485SOL    HW250353   1.836  11.748   9.187
49486SOL     OW50354   5.683   2.575   4.451
49486SOL    HW150355   5.607   2.590   4.395
49486SOL    HW250356   5.758   2.587   4.392
49487SOL     OW50357   4.055   9.165  12.827
49487SOL    HW150358   3.986   9.232  12.823
49487SOL    HW250359   4.035   9.107  12.753
49488SOL     OW50360   2.026   4.883   9.038
49488SOL    HW150361   1.997   4.802   9.081
49488SOL    HW250362   2.098   4.914   9.093
49489SOL     OW50363   4.277  12.355  11.092
49489SOL    HW150364   4.285  12.260  11.088
49489SOL    HW250365   4.280  12.384  11.001
49490SOL     OW50366   0.548  11.055   9.279
49490SOL    HW150367   0.535  10.960   9.274
49490SOL    HW250368   0.589  11.077   9.195
49491SOL     OW50369   8.261   3.959  10.147
49491SOL    HW150370   8.323   4.030  10.165
49491SOL    HW250371   8.228   3.934  10.233
49492SOL     OW50372   0.809   6.208   3.845
49492SOL    HW150373   0.880   6.233   3.904
49492SOL    HW250374   0.853   6.185   3.763
49493SOL     OW50375  13.346  13.714   3.925
49493SOL    HW150376  13.391  13.797   3.939
49493SOL    HW250377  13.378  13.683   3.840
49494SOL     OW50378  14.618   0.838   5.509
49494SOL    HW150379  14.630   0.743   5.510
49494SOL    HW250380  14.624   0.862   5.416
49495SOL     OW50381   6.585   4.327  14.137
49495SOL    HW150382   6.617   4.237  14.142
49495SOL    HW250383   6.665   4.380  14.142
49496SOL     OW50384  13.048   7.115   9.800
49496SOL    HW150385  13.039   7.041   9.740
49496SOL    HW250386  13.020   7.081   9.885
49497SOL     OW50387   1.071  10.670   1.646
49497SOL    HW150388   1.123  10.595   1.677
49497SOL    HW250389   0.981  10.637   1.645
49498SOL     OW50390   3.752   1.177   7.403
49498SOL    HW150391   3.673   1.136   7.367
49498SOL    HW250392   3.727   1.268   7.420
49499SOL     OW50393   8.202  12.825  10.550
49499SOL    HW150394   8.296  12.814  10.537
49499SOL    HW250395   8.187  12.919  10.534
49500SOL     OW50396  11.394   2.179  13.737
49500SOL    HW150397  11.477   2.176  13.784
49500SOL    HW250398  11.340   2.112  13.780
49501SOL     OW50399   2.335  13.956  12.510
49501SOL    HW150400   2.398  13.884  12.499
49501SOL    HW250401   2.379  14.032  12.472
49502SOL     OW50402  10.887   0.255  13.875
49502SOL    HW150403  10.802   0.300  13.873
49502SOL    HW250404  10.903   0.232  13.783
49503SOL     OW50405   3.449   4.947   9.046
49503SOL    HW150406   3.504   4.880   9.086
49503SOL    HW250407   3.497   5.028   9.058
49504SOL     OW50408   3.884   7.575   1.509
49504SOL    HW150409   3.791   7.567   1.490
49504SOL    HW250410   3.913   7.485   1.527
49505SOL     OW50411   2.753  12.481   0.465
49505SOL    HW150412   2.828  12.457   0.519
49505SOL    HW250413   2.727  12.567   0.496
49506SOL     OW50414  13.470  10.827   8.176
49506SOL    HW150415  13.551  10.855   8.133
49506SOL    HW250416  13.401  10.856   8.117
49507SOL     OW50417  13.049   2.375   9.727
49507SOL    HW150418  13.011   2.393   9.641
49507SOL    HW250419  13.033   2.455   9.777
49508SOL     OW50420   6.627   0.663  11.378
49508SOL    HW150421   6.629   0.569  11.362
49508SOL    HW250422   6.719   0.690  11.376
49509SOL     OW50423   5.958   6.331   5.903
49509SOL    HW150424   6.045   6.335   5.862
49509SOL    HW250425   5.953   6.243   5.940
49510SOL     OW50426  11.341   3.045   1.309
49510SOL    HW150427  11.332   3.054   1.404
49510SOL    HW250428  11.427   3.082   1.289
49511SOL     OW50429   8.813  13.014   4.520
49511SOL    HW150430   8.812  13.042   4.612
49511SOL    HW250431   8.721  13.008   4.496
49512SOL     OW50432  11.875   3.944   0.672
49512SOL    HW150433  11.844   3.980   0.755
49512SOL    HW250434  11.960   3.905   0.693
49513SOL     OW50435   1.753  12.959   3.729
49513SOL    HW150436   1.818  12.925   3.790
49513SOL    HW250437   1.771  13.053   3.725
49514SOL     OW50438   1.864  11.859   4.460
49514SOL    HW150439   1.843  11.813   4.379
49514SOL    HW250440   1.920  11.932   4.434
49515SOL     OW50441   3.841   0.565   2.761
49515SOL    HW150442   3.794   0.513   2.826
49515SOL    HW250443   3.832   0.656   2.792
49516SOL     OW50444   0.209   0.155  11.226
49516SOL    HW150445   0.303   0.157  11.245
49516SOL    HW250446   0.168   0.124  11.306
49517SOL     OW50447   1.278   1.165   1.290
49517SOL    HW150448   1.280   1.249   1.245
49517SOL    HW250449   1.307   1.185   1.379
49518SOL     OW50450   1.557  12.394  13.321
49518SOL    HW150451   1.537  12.485  13.343
49518SOL    HW250452   1.649  12.397  13.293
49519SOL     OW50453  13.676  11.763  10.031
49519SOL    HW150454  13.744  11.757  10.098
49519SOL    HW250455  13.689  11.849   9.991
49520SOL     OW50456   1.603  14.388  14.609
49520SOL    HW150457   1.679  14.369  14.554
49520SOL    HW250458   1.577  14.302  14.643
49521SOL     OW50459  10.717   6.255   1.488
49521SOL    HW150460  10.675   6.246   1.402
49521SOL    HW250461  10.811   6.259   1.468
49522SOL     OW50462   6.439  11.745   8.023
49522SOL    HW150463   6.446  11.658   7.983
49522SOL    HW250464   6.473  11.804   7.956
49523SOL     OW50465  13.053   6.929   8.234
49523SOL    HW150466  12.961   6.952   8.216
49523SOL    HW250467  13.055   6.910   8.328
49524SOL     OW50468   4.885   4.525   8.089
49524SOL    HW150469   4.959   4.465   8.083
49524SOL    HW250470   4.813   4.479   8.045
49525SOL     OW50471   4.475   1.260   3.252
49525SOL    HW150472   4.513   1.217   3.328
49525SOL    HW250473   4.546   1.312   3.215
49526SOL     OW50474   7.488  13.772   3.333
49526SOL    HW150475   7.539  13.719   3.394
49526SOL    HW250476   7.402  13.730   3.329
49527SOL     OW50477  12.573   3.603   9.086
49527SOL    HW150478  12.507   3.663   9.119
49527SOL    HW250479  12.650   3.657   9.071
49528SOL     OW50480   8.735   1.890   5.858
49528SOL    HW150481   8.785   1.808   5.854
49528SOL    HW250482   8.774   1.945   5.789
49529SOL     OW50483   6.473  12.537   2.660
49529SOL    HW150484   6.397  12.529   2.602
49529SOL    HW250485   6.547  12.552   2.601
49530SOL     OW50486   5.128   8.874  11.027
49530SOL    HW150487   5.048   8.856  11.076
49530SOL    HW250488   5.139   8.969  11.032
49531SOL     OW50489  10.357  10.293   7.836
49531SOL    HW150490  10.327  10.205   7.861
49531SOL    HW250491  10.365  10.339   7.920
49532SOL     OW50492   8.378   6.511   3.176
49532SOL    HW150493   8.286   6.500   3.155
49532SOL    HW250494   8.424   6.457   3.112
49533SOL     OW50495   7.586   3.125   3.087
49533SOL    HW150496   7.583   3.061   3.017
49533SOL    HW250497   7.556   3.206   3.047
49534SOL     OW50498   2.495  10.671   4.933
49534SOL    HW150499   2.406  10.658   4.965
49534SOL    HW250500   2.487  10.740   4.867
49535SOL     OW50501   0.692  13.160   9.527
49535SOL    HW150502   0.631  13.215   9.575
49535SOL    HW250503   0.779  13.188   9.558
49536SOL     OW50504   4.643   5.061  10.997
49536SOL    HW150505   4.664   4.999  11.067
49536SOL    HW250506   4.563   5.026  10.958
49537SOL     OW50507  11.897   5.414   3.297
49537SOL    HW150508  11.945   5.463   3.231
49537SOL    HW250509  11.944   5.432   3.379
49538SOL     OW50510   6.222  14.651  11.583
49538SOL    HW150511   6.281  14.613  11.518
49538SOL    HW250512   6.277  14.708  11.636
49539SOL     OW50513   8.097   6.455   0.374
49539SOL    HW150514   8.105   6.494   0.461
49539SOL    HW250515   8.051   6.522   0.323
49540SOL     OW50516   4.561   9.744   5.024
49540SOL    HW150517   4.481   9.741   4.971
49540SOL    HW250518   4.537   9.701   5.106
49541SOL     OW50519   0.880   2.562   0.135
49541SOL    HW150520   0.937   2.582   0.061
49541SOL    HW250521   0.792   2.586   0.105
49542SOL     OW50522   1.199  10.465   6.378
49542SOL    HW150523   1.285  10.461   6.421
49542SOL    HW250524   1.137  10.443   6.447
49543SOL     OW50525  12.547  11.239   1.885
49543SOL    HW150526  12.511  11.321   1.852
49543SOL    HW250527  12.637  11.260   1.909
49544SOL     OW50528  14.508  10.720   6.403
49544SOL    HW150529  14.512  10.624   6.408
49544SOL    HW250530  14.443  10.745   6.469
49545SOL     OW50531   6.301   2.670   8.071
49545SOL    HW150532   6.287   2.586   8.026
49545SOL    HW250533   6.312   2.646   8.163
49546SOL     OW50534  13.083   7.215   3.301
49546SOL    HW150535  13.149   7.147   3.293
49546SOL    HW250536  13.012   7.174   3.352
49547SOL     OW50537   5.328  10.779   5.514
49547SOL    HW150538   5.351  10.742   5.429
49547SOL    HW250539   5.372  10.864   5.516
49548SOL     OW50540   6.864   2.308  14.098
49548SOL    HW150541   6.830   2.396  14.087
49548SOL    HW250542   6.839   2.283  14.187
49549SOL     OW50543   8.684   8.210  14.504
49549SOL    HW150544   8.730   8.254  14.431
49549SOL    HW250545   8.607   8.171  14.463
49550SOL     OW50546   4.246  14.399   4.469
49550SOL    HW150547   4.315  14.344   4.506
49550SOL    HW250548   4.193  14.424   4.544
49551SOL     OW50549  13.508   3.503   1.180
49551SOL    HW150550  13.415   3.503   1.157
49551SOL    HW250551  13.554   3.496   1.097
49552SOL     OW50552   4.589   2.156   2.352
49552SOL    HW150553   4.569   2.098   2.426
49552SOL    HW250554   4.541   2.119   2.278
49553SOL     OW50555  14.725   0.920  11.109
49553SOL    HW150556  14.709   0.950  11.198
49553SOL    HW250557  14.652   0.956  11.058
49554SOL     OW50558   5.066  11.442   1.411
49554SOL    HW150559   5.005  11.442   1.337
49554SOL    HW250560   5.120  11.519   1.397
49555SOL     OW50561  14.546   0.874   0.826
49555SOL    HW150562  14.526   0.885   0.919
49555SOL    HW250563  14.561   0.781   0.815
49556SOL     OW50564   7.194  13.971   2.403
49556SOL    HW150565   7.175  14.055   2.362
49556SOL    HW250566   7.142  13.971   2.483
49557SOL     OW50567  14.590   4.301  12.482
49557SOL    HW150568  14.625   4.327  12.397
49557SOL    HW250569  14.581   4.206  12.476
49558SOL     OW50570   2.986   3.280  14.132
49558SOL    HW150571   2.994   3.373  14.111
49558SOL    HW250572   3.013   3.274  14.223
49559SOL     OW50573   5.145  11.610  13.245
49559SOL    HW150574   5.225  11.661  13.231
49559SOL    HW250575   5.085  11.640  13.176
49560SOL     OW50576  14.159  13.513   2.694
49560SOL    HW150577  14.158  13.423   2.726
49560SOL    HW250578  14.067  13.537   2.686
49561SOL     OW50579   1.251   9.218   6.935
49561SOL    HW150580   1.249   9.245   7.026
49561SOL    HW250581   1.299   9.287   6.890
49562SOL     OW50582   8.107  11.881   7.367
49562SOL    HW150583   8.091  11.961   7.316
49562SOL    HW250584   8.202  11.879   7.378
49563SOL     OW50585   7.719   7.093  12.311
49563SOL    HW150586   7.647   7.098  12.248
49563SOL    HW250587   7.787   7.149  12.275
49564SOL     OW50588  10.882   6.587   8.913
49564SOL    HW150589  10.789   6.603   8.923
49564SOL    HW250590  10.912   6.655   8.853
49565SOL     OW50591   3.180   8.242  11.123
49565SOL    HW150592   3.258   8.247  11.179
49565SOL    HW250593   3.135   8.162  11.152
49566SOL     OW50594   6.946   8.015   3.104
49566SOL    HW150595   6.994   8.074   3.046
49566SOL    HW250596   6.993   8.020   3.188
49567SOL     OW50597   2.192   5.896   0.458
49567SOL    HW150598   2.265   5.880   0.398
49567SOL    HW250599   2.202   5.830   0.526
49568SOL     OW50600   3.162   0.940  11.045
49568SOL    HW150601   3.096   0.873  11.064
49568SOL    HW250602   3.133   0.979  10.963
49569SOL     OW50603   8.271  10.590  13.598
49569SOL    HW150604   8.250  10.601  13.691
49569SOL    HW250605   8.197  10.629  13.552
49570SOL     OW50606  11.979  13.792  13.530
49570SOL    HW150607  12.073  13.786  13.516
49570SOL    HW250608  11.951  13.864  13.474
49571SOL     OW50609   9.972  13.341   4.520
49571SOL    HW150610   9.969  13.246   4.526
49571SOL    HW250611  10.021  13.369   4.597
49572SOL     OW50612  11.317   6.668   0.979
49572SOL    HW150613  11.251   6.668   0.909
49572SOL    HW250614  11.378   6.737   0.954
49573SOL     OW50615   1.641   8.206   6.979
49573SOL    HW150616   1.589   8.219   6.900
49573SOL    HW250617   1.660   8.112   6.979
49574SOL     OW50618  12.123   7.687   5.365
49574SOL    HW150619  12.056   7.627   5.331
49574SOL    HW250620  12.085   7.721   5.446
49575SOL     OW50621  13.850   8.575  10.721
49575SOL    HW150622  13.757   8.588  10.742
49575SOL    HW250623  13.865   8.628  10.643
49576SOL     OW50624  13.959   0.457   6.732
49576SOL    HW150625  13.992   0.503   6.810
49576SOL    HW250626  13.923   0.527   6.677
49577SOL     OW50627   4.542   0.012   3.554
49577SOL    HW150628   4.475  14.866   3.620
49577SOL    HW250629   4.522  14.824   3.482
49578SOL     OW50630   0.937   4.455  11.140
49578SOL    HW150631   1.003   4.501  11.090
49578SOL    HW250632   0.958   4.362  11.128
49579SOL     OW50633   1.898   3.065  10.069
49579SOL    HW150634   1.926   3.129  10.134
49579SOL    HW250635   1.822   3.022  10.109
49580SOL     OW50636   5.836  13.629   3.650
49580SOL    HW150637   5.862  13.651   3.560
49580SOL    HW250638   5.897  13.560   3.676
49581SOL     OW50639   5.982   9.944   8.060
49581SOL    HW150640   6.012   9.998   7.987
49581SOL    HW250641   5.990  10.001   8.137
49582SOL     OW50642  14.774  14.274   9.736
49582SOL    HW150643  14.827  14.329   9.794
49582SOL    HW250644  14.799  14.184   9.759
49583SOL     OW50645  14.837  10.944   6.803
49583SOL    HW150646  14.834  10.884   6.877
49583SOL    HW250647   0.028  11.012   6.829
49584SOL     OW50648   9.937   9.082   1.805
49584SOL    HW150649   9.894   9.061   1.722
49584SOL    HW250650   9.912   9.011   1.864
49585SOL     OW50651   2.248   4.757  12.463
49585SOL    HW150652   2.231   4.793  12.376
49585SOL    HW250653   2.339   4.725  12.458
49586SOL     OW50654  12.716  10.966  10.974
49586SOL    HW150655  12.784  11.034  10.970
49586SOL    HW250656  12.763  10.884  10.964
49587SOL     OW50657   3.019   0.045   4.357
49587SOL    HW150658   3.006   0.011   4.268
49587SOL    HW250659   2.935   0.029   4.401
49588SOL     OW50660   2.281   5.126   1.446
49588SOL    HW150661   2.194   5.124   1.406
49588SOL    HW250662   2.326   5.198   1.402
49589SOL     OW50663  11.102   7.688   2.303
49589SOL    HW150664  11.182   7.635   2.304
49589SOL    HW250665  11.040   7.637   2.251
49590SOL     OW50666   1.869   3.335   3.041
49590SOL    HW150667   1.919   3.346   3.122
49590SOL    HW250668   1.934   3.317   2.974
49591SOL     OW50669  11.520  12.491   6.921
49591SOL    HW150670  11.432  12.485   6.957
49591SOL    HW250671  11.531  12.410   6.871
49592SOL     OW50672  13.682   7.123   7.777
49592SOL    HW150673  13.749   7.124   7.845
49592SOL    HW250674  13.652   7.032   7.774
49593SOL     OW50675   2.013   5.398   2.167
49593SOL    HW150676   1.979   5.309   2.169
49593SOL    HW250677   2.089   5.397   2.225
49594SOL     OW50678  11.904   3.367  10.201
49594SOL    HW150679  11.813   3.362  10.170
49594SOL    HW250680  11.900   3.337  10.292
49595SOL     OW50681   5.232  11.324   4.653
49595SOL    HW150682   5.160  11.262   4.645
49595SOL    HW250683   5.289  11.288   4.721
49596SOL     OW50684   5.210   7.203  14.173
49596SOL    HW150685   5.138   7.258  14.203
49596SOL    HW250686   5.182   7.114  14.195
49597SOL     OW50687   1.979  11.587   9.402
49597SOL    HW150688   1.941  11.630   9.478
49597SOL    HW250689   2.073  11.584   9.421
49598SOL     OW50690   6.086   2.915  12.883
49598SOL    HW150691   6.111   2.839  12.936
49598SOL    HW250692   6.106   2.990  12.939
49599SOL     OW50693   4.594   7.536  12.550
49599SOL    HW150694   4.577   7.507  12.640
49599SOL    HW250695   4.643   7.464  12.511
49600SOL     OW50696  10.991  10.619   7.783
49600SOL    HW150697  11.031  10.536   7.758
49600SOL    HW250698  10.979  10.612   7.878
49601SOL     OW50699   5.942  12.574   4.492
49601SOL    HW150700   5.942  12.569   4.587
49601SOL    HW250701   6.000  12.647   4.472
49602SOL     OW50702   8.064   4.370   2.480
49602SOL    HW150703   8.001   4.413   2.422
49602SOL    HW250704   8.066   4.279   2.450
49603SOL     OW50705   3.703   3.500   8.387
49603SOL    HW150706   3.694   3.529   8.296
49603SOL    HW250707   3.742   3.575   8.432
49604SOL     OW50708   6.175   6.884   6.003
49604SOL    HW150709   6.154   6.791   6.014
49604SOL    HW250710   6.208   6.891   5.913
49605SOL     OW50711   7.136   4.336  10.052
49605SOL    HW150712   7.221   4.380  10.051
49605SOL    HW250713   7.119   4.319  10.145
49606SOL     OW50714   8.808   5.771   8.958
49606SOL    HW150715   8.732   5.722   8.925
49606SOL    HW250716   8.835   5.723   9.036
49607SOL     OW50717  10.065   2.902   4.315
49607SOL    HW150718  10.110   2.949   4.386
49607SOL    HW250719  10.044   2.969   4.251
49608SOL     OW50720   7.405   7.806   9.347
49608SOL    HW150721   7.394   7.814   9.253
49608SOL    HW250722   7.490   7.761   9.357
49609SOL     OW50723  10.158   8.421   9.325
49609SOL    HW150724  10.092   8.465   9.378
49609SOL    HW250725  10.196   8.492   9.271
49610SOL     OW50726   7.591   0.841   1.490
49610SOL    HW150727   7.667   0.787   1.465
49610SOL    HW250728   7.616   0.879   1.575
49611SOL     OW50729   3.118   3.799   5.262
49611SOL    HW150730   3.045   3.744   5.289
49611SOL    HW250731   3.081   3.859   5.197
49612SOL     OW50732  12.864  14.024   5.795
49612SOL    HW150733  12.902  14.018   5.708
49612SOL    HW250734  12.939  14.040   5.853
49613SOL     OW50735   6.503   4.817   8.794
49613SOL    HW150736   6.467   4.904   8.812
49613SOL    HW250737   6.518   4.779   8.880
49614SOL     OW50738   6.495  11.997   6.990
49614SOL    HW150739   6.577  12.021   7.034
49614SOL    HW250740   6.457  11.930   7.046
49615SOL     OW50741   6.253  13.922  13.703
49615SOL    HW150742   6.311  13.998  13.718
49615SOL    HW250743   6.237  13.888  13.791
49616SOL     OW50744   4.680   9.476   2.510
49616SOL    HW150745   4.616   9.414   2.476
49616SOL    HW250746   4.672   9.469   2.605
49617SOL     OW50747   3.936   4.411   8.339
49617SOL    HW150748   3.855   4.449   8.305
49617SOL    HW250749   3.936   4.433   8.432
49618SOL     OW50750  13.202   9.415   5.873
49618SOL    HW150751  13.107   9.411   5.882
49618SOL    HW250752  13.217   9.489   5.814
49619SOL     OW50753  12.276   9.314   2.823
49619SOL    HW150754  12.298   9.316   2.916
49619SOL    HW250755  12.188   9.352   2.818
49620SOL     OW50756   5.019  11.701   3.151
49620SOL    HW150757   4.980  11.668   3.069
49620SOL    HW250758   5.000  11.795   3.151
49621SOL     OW50759   2.267  13.219   4.795
49621SOL    HW150760   2.229  13.174   4.870
49621SOL    HW250761   2.360  13.227   4.817
49622SOL     OW50762   3.500   9.721   4.173
49622SOL    HW150763   3.531   9.665   4.244
49622SOL    HW250764   3.443   9.665   4.120
49623SOL     OW50765   2.522   9.607  10.635
49623SOL    HW150766   2.596   9.575  10.583
49623SOL    HW250767   2.474   9.529  10.661
49624SOL     OW50768  14.285  10.277   4.663
49624SOL    HW150769  14.287  10.293   4.568
49624SOL    HW250770  14.336  10.197   4.675
49625SOL     OW50771   1.248   5.039  13.657
49625SOL    HW150772   1.269   4.977  13.588
49625SOL    HW250773   1.230   4.984  13.734
49626SOL     OW50774  14.085   1.356  14.110
49626SOL    HW150775  14.121   1.362  14.021
49626SOL    HW250776  14.156   1.319  14.162
49627SOL     OW50777   0.422   9.228  12.578
49627SOL    HW150778   0.357   9.226  12.507
49627SOL    HW250779   0.452   9.137  12.585
49628SOL     OW50780   7.869  10.272   3.586
49628SOL    HW150781   7.914  10.353   3.563
49628SOL    HW250782   7.796  10.300   3.642
49629SOL     OW50783   7.159   3.960  13.326
49629SOL    HW150784   7.077   4.004  13.346
49629SOL    HW250785   7.223   4.003  13.383
49630SOL     OW50786   7.116  10.516   8.088
49630SOL    HW150787   7.053  10.450   8.059
49630SOL    HW250788   7.201  10.476   8.074
49631SOL     OW50789  13.870   5.954  11.118
49631SOL    HW150790  13.880   5.973  11.211
49631SOL    HW250791  13.901   5.864  11.108
49632SOL     OW50792   8.059   2.767   1.092
49632SOL    HW150793   7.974   2.754   1.133
49632SOL    HW250794   8.088   2.679   1.069
49633SOL     OW50795   6.929   9.245   4.729
49633SOL    HW150796   6.892   9.182   4.667
49633SOL    HW250797   6.924   9.329   4.683
49634SOL     OW50798  14.735   0.049  11.058
49634SOL    HW150799  14.799   0.076  10.992
49634SOL    HW250800  14.740   0.117  11.126
49635SOL     OW50801   0.049  12.619  13.041
49635SOL    HW150802   0.104  12.641  13.117
49635SOL    HW250803   0.110  12.588  12.975
49636SOL     OW50804   7.862   2.982   2.618
49636SOL    HW150805   7.895   2.980   2.708
49636SOL    HW250806   7.822   2.896   2.605
49637SOL     OW50807   4.281  10.427   5.964
49637SOL    HW150808   4.358  10.376   5.989
49637SOL    HW250809   4.280  10.501   6.024
49638SOL     OW50810  13.395  13.589   9.132
49638SOL    HW150811  13.392  13.615   9.224
49638SOL    HW250812  13.445  13.507   9.131
49639SOL     OW50813  12.972  10.180   9.815
49639SOL    HW150814  12.911  10.246   9.781
49639SOL    HW250815  12.916  10.110   9.848
49640SOL     OW50816  11.702   2.602  10.774
49640SOL    HW150817  11.630   2.545  10.800
49640SOL    HW250818  11.672   2.690  10.792
49641SOL     OW50819   8.521   0.118   3.250
49641SOL    HW150820   8.614   0.131   3.231
49641SOL    HW250821   8.520   0.051   3.319
49642SOL     OW50822  14.552   4.789   6.420
49642SOL    HW150823  14.457   4.794   6.411
49642SOL    HW250824  14.568   4.803   6.513
49643SOL     OW50825   3.468   2.069   7.358
49643SOL    HW150826   3.448   2.143   7.414
49643SOL    HW250827   3.563   2.074   7.343
49644SOL     OW50828   5.572   2.095  13.696
49644SOL    HW150829   5.635   2.024  13.680
49644SOL    HW250830   5.587   2.156  13.624
49645SOL     OW50831   2.717   5.840  14.243
49645SOL    HW150832   2.718   5.870  14.333
49645SOL    HW250833   2.772   5.762  14.243
49646SOL     OW50834   4.835   5.590   9.863
49646SOL    HW150835   4.811   5.669   9.816
49646SOL    HW250836   4.753   5.556   9.898
49647SOL     OW50837  12.387   8.838   1.564
49647SOL    HW150838  12.443   8.836   1.641
49647SOL    HW250839  12.435   8.890   1.500
49648SOL     OW50840   5.001  11.351   1.657
49648SOL    HW150841   5.005  11.374   1.564
49648SOL    HW250842   4.910  11.367   1.681
49649SOL     OW50843  13.968   6.773  13.649
49649SOL    HW150844  13.928   6.749  13.733
49649SOL    HW250845  14.044   6.826  13.674
49650SOL     OW50846  12.288  11.805   4.077
49650SOL    HW150847  12.296  11.858   3.998
49650SOL    HW250848  12.223  11.738   4.055
49651SOL     OW50849   0.021  11.502  13.131
49651SOL    HW150850   0.103  11.530  13.170
49651SOL    HW250851   0.005  11.415  13.167
49652SOL     OW50852  11.654   7.239  13.987
49652SOL    HW150853  11.602   7.275  14.059
49652SOL    HW250854  11.589   7.222  13.918
49653SOL     OW50855   2.830  12.203   2.122
49653SOL    HW150856   2.922  12.228   2.118
49653SOL    HW250857   2.827  12.114   2.088
49654SOL     OW50858   1.223   6.871   6.045
49654SOL    HW150859   1.249   6.944   6.100
49654SOL    HW250860   1.176   6.911   5.972
49655SOL     OW50861   9.572   6.109  14.398
49655SOL    HW150862   9.572   6.161  14.318
49655SOL    HW250863   9.535   6.167  14.465
49656SOL     OW50864   6.215   7.568   3.763
49656SOL    HW150865   6.156   7.632   3.804
49656SOL    HW250866   6.165   7.487   3.761
49657SOL     OW50867  13.562  13.598   8.770
49657SOL    HW150868  13.585  13.506   8.769
49657SOL    HW250869  13.495  13.607   8.702
49658SOL     OW50870   7.844  12.958   8.455
49658SOL    HW150871   7.780  12.949   8.527
49658SOL    HW250872   7.925  12.982   8.499
49659SOL     OW50873   6.768   1.749   0.186
49659SOL    HW150874   6.786   1.704   0.104
49659SOL    HW250875   6.726   1.683   0.241
49660SOL     OW50876   4.119   3.135   3.225
49660SOL    HW150877   4.136   3.043   3.244
49660SOL    HW250878   4.041   3.134   3.169
49661SOL     OW50879   9.790   2.555   7.140
49661SOL    HW150880   9.804   2.647   7.159
49661SOL    HW250881   9.726   2.554   7.069
49662SOL     OW50882   0.799   0.877   0.425
49662SOL    HW150883   0.708   0.851   0.413
49662SOL    HW250884   0.827   0.907   0.338
49663SOL     OW50885   5.360  14.302   2.814
49663SOL    HW150886   5.271  14.325   2.843
49663SOL    HW250887   5.352  14.288   2.720
49664SOL     OW50888  11.281   4.014   9.636
49664SOL    HW150889  11.263   3.954   9.564
49664SOL    HW250890  11.350   4.072   9.603
49665SOL     OW50891  13.901   4.416  13.512
49665SOL    HW150892  13.828   4.451  13.460
49665SOL    HW250893  13.974   4.411  13.450
49666SOL     OW50894   9.139   0.203   7.391
49666SOL    HW150895   9.182   0.221   7.308
49666SOL    HW250896   9.167   0.274   7.449
49667SOL     OW50897  13.177   1.172   2.164
49667SOL    HW150898  13.127   1.099   2.200
49667SOL    HW250899  13.256   1.132   2.129
49668SOL     OW50900  11.377   2.724  11.717
49668SOL    HW150901  11.386   2.684  11.803
49668SOL    HW250902  11.456   2.698  11.670
49669SOL     OW50903  13.878  14.535   8.621
49669SOL    HW150904  13.792  14.493   8.628
49669SOL    HW250905  13.936  14.465   8.590
49670SOL     OW50906  12.193  14.552   9.432
49670SOL    HW150907  12.104  14.520   9.415
49670SOL    HW250908  12.181  14.625   9.493
49671SOL     OW50909  14.734   4.555   9.602
49671SOL    HW150910  14.785   4.593   9.674
49671SOL    HW250911  14.649   4.599   9.606
49672SOL     OW50912  13.294   0.197   2.649
49672SOL    HW150913  13.375   0.207   2.699
49672SOL    HW250914  13.245   0.129   2.696
49673SOL     OW50915   7.967   8.887   6.756
49673SOL    HW150916   7.954   8.940   6.677
49673SOL    HW250917   7.954   8.949   6.828
49674SOL     OW50918   1.616   7.740   2.758
49674SOL    HW150919   1.581   7.775   2.840
49674SOL    HW250920   1.694   7.793   2.741
49675SOL     OW50921   6.728   9.134  11.221
49675SOL    HW150922   6.786   9.209  11.234
49675SOL    HW250923   6.739   9.081  11.299
49676SOL     OW50924   2.445   4.449   7.939
49676SOL    HW150925   2.480   4.538   7.943
49676SOL    HW250926   2.350   4.460   7.929
49677SOL     OW50927   8.747   1.219   2.263
49677SOL    HW150928   8.840   1.204   2.277
49677SOL    HW250929   8.717   1.143   2.214
49678SOL     OW50930   4.819   5.621  11.560
49678SOL    HW150931   4.858   5.705  11.585
49678SOL    HW250932   4.892   5.570  11.525
49679SOL     OW50933   0.036  11.998  11.379
49679SOL    HW150934   0.119  11.959  11.351
49679SOL    HW250935  14.846  11.925  11.378
49680SOL     OW50936   1.380   0.105  13.214
49680SOL    HW150937   1.307   0.153  13.254
49680SOL    HW250938   1.423   0.062  13.288
49681SOL     OW50939  13.884   0.669   0.068
49681SOL    HW150940  13.969   0.686   0.027
49681SOL    HW250941  13.821   0.716   0.013
49682SOL     OW50942  13.229  11.319  10.337
49682SOL    HW150943  13.137  11.297  10.324
49682SOL    HW250944  13.269  11.238  10.367
49683SOL     OW50945  10.579   4.267   8.462
49683SOL    HW150946  10.639   4.340   8.451
49683SOL    HW250947  10.570   4.230   8.374
49684SOL     OW50948   4.429   9.134   7.848
49684SOL    HW150949   4.335   9.132   7.864
49684SOL    HW250950   4.446   9.223   7.817
49685SOL     OW50951  10.662  12.410   0.042
49685SOL    HW150952  10.756  12.430   0.050
49685SOL    HW250953  10.645  12.415  14.819
49686SOL     OW50954   4.415  14.273   3.455
49686SOL    HW150955   4.336  14.284   3.402
49686SOL    HW250956   4.403  14.188   3.498
49687SOL     OW50957   5.288   6.135  11.381
49687SOL    HW150958   5.228   6.199  11.341
49687SOL    HW250959   5.239   6.099  11.455
49688SOL     OW50960   4.036  11.357   3.873
49688SOL    HW150961   4.124  11.389   3.892
49688SOL    HW250962   4.051  11.276   3.824
49689SOL     OW50963  11.377   3.943   3.636
49689SOL    HW150964  11.440   3.900   3.693
49689SOL    HW250965  11.323   3.871   3.602
49690SOL     OW50966   6.536   8.098  13.759
49690SOL    HW150967   6.493   8.175  13.796
49690SOL    HW250968   6.521   8.106  13.664
49691SOL     OW50969   5.373   6.204   5.671
49691SOL    HW150970   5.411   6.205   5.583
49691SOL    HW250971   5.389   6.292   5.705
49692SOL     OW50972  11.493   1.384  11.149
49692SOL    HW150973  11.513   1.302  11.104
49692SOL    HW250974  11.523   1.452  11.088
49693SOL     OW50975   0.391   1.894   1.247
49693SOL    HW150976   0.435   1.813   1.221
49693SOL    HW250977   0.333   1.915   1.174
49694SOL     OW50978   0.616  11.993   1.066
49694SOL    HW150979   0.557  11.973   1.139
49694SOL    HW250980   0.603  12.087   1.050
49695SOL     OW50981  11.135  14.771  14.533
49695SOL    HW150982  11.117  14.685  14.573
49695SOL    HW250983  11.053  14.795  14.491
49696SOL     OW50984   1.715  11.339   3.396
49696SOL    HW150985   1.700  11.383   3.313
49696SOL    HW250986   1.684  11.400   3.462
49697SOL     OW50987  13.487   3.434   5.519
49697SOL    HW150988  13.456   3.360   5.571
49697SOL    HW250989  13.410   3.489   5.507
49698SOL     OW50990   0.125   9.373   8.811
49698SOL    HW150991   0.094   9.375   8.902
49698SOL    HW250992   0.191   9.304   8.809
49699SOL     OW50993  13.745   7.880  11.861
49699SOL    HW150994  13.711   7.791  11.865
49699SOL    HW250995  13.676   7.931  11.820
49700SOL     OW50996   5.743   3.830   0.482
49700SOL    HW150997   5.793   3.834   0.400
49700SOL    HW250998   5.799   3.781   0.542
49701SOL     OW50999   2.533  12.646   0.783
49701SOL    HW151000   2.525  12.606   0.697
49701SOL    HW251001   2.610  12.604   0.821
49702SOL     OW51002   6.550   7.604   4.112
49702SOL    HW151003   6.506   7.646   4.038
49702SOL    HW251004   6.518   7.514   4.111
49703SOL     OW51005   1.930   5.170  13.460
49703SOL    HW151006   2.007   5.180  13.404
49703SOL    HW251007   1.953   5.101  13.522
49704SOL     OW51008   4.692   6.043   1.479
49704SOL    HW151009   4.684   5.978   1.549
49704SOL    HW251010   4.681   5.992   1.399
49705SOL     OW51011   8.150   4.925   8.970
49705SOL    HW151012   8.184   4.854   8.916
49705SOL    HW251013   8.055   4.922   8.957
49706SOL     OW51014   7.203  11.066   3.717
49706SOL    HW151015   7.188  11.034   3.806
49706SOL    HW251016   7.194  11.161   3.724
49707SOL     OW51017  14.607  12.454   7.290
49707SOL    HW151018  14.699  12.462   7.266
49707SOL    HW251019  14.607  12.451   7.385
49708SOL     OW51020   9.256   8.159  11.957
49708SOL    HW151021   9.226   8.219  11.889
49708SOL    HW251022   9.318   8.210  12.009
49709SOL     OW51023   9.363  13.417   2.384
49709SOL    HW151024   9.285  13.473   2.378
49709SOL    HW251025   9.370  13.397   2.477
49710SOL     OW51026   7.849  10.494  14.578
49710SOL    HW151027   7.756  10.517  14.575
49710SOL    HW251028   7.871  10.471  14.487
49711SOL     OW51029  14.094   3.867   2.585
49711SOL    HW151030  14.095   3.960   2.608
49711SOL    HW251031  14.003   3.841   2.599
49712SOL     OW51032  12.727   8.072  12.824
49712SOL    HW151033  12.819   8.093  12.808
49712SOL    HW251034  12.688   8.155  12.852
49713SOL     OW51035   2.737   8.171  10.280
49713SOL    HW151036   2.674   8.126  10.223
49713SOL    HW251037   2.745   8.113  10.356
49714SOL     OW51038  11.455  13.549  13.935
49714SOL    HW151039  11.416  13.471  13.894
49714SOL    HW251040  11.387  13.583  13.992
49715SOL     OW51041   9.250  10.539  10.135
49715SOL    HW151042   9.266  10.456  10.090
49715SOL    HW251043   9.261  10.518  10.228
49716SOL     OW51044   7.650  12.552  10.495
49716SOL    HW151045   7.704  12.495  10.441
49716SOL    HW251046   7.565  12.508  10.499
49717SOL     OW51047   6.652   6.557   9.776
49717SOL    HW151048   6.621   6.612   9.848
49717SOL    HW251049   6.647   6.613   9.699
49718SOL     OW51050   3.285   1.019  11.358
49718SOL    HW151051   3.213   1.081  11.375
49718SOL    HW251052   3.287   0.963  11.436
49719SOL     OW51053   7.806   8.734   9.101
49719SOL    HW151054   7.854   8.710   9.023
49719SOL    HW251055   7.730   8.676   9.102
49720SOL     OW51056   9.819  11.896  10.947
49720SOL    HW151057   9.818  11.875  10.854
49720SOL    HW251058   9.727  11.912  10.968
49721SOL     OW51059   6.791  14.764  14.782
49721SOL    HW151060   6.757  14.853  14.788
49721SOL    HW251061   6.826  14.745  14.869
49722SOL     OW51062  13.131   7.302   3.029
49722SOL    HW151063  13.130   7.269   3.119
49722SOL    HW251064  13.081   7.237   2.980
49723SOL     OW51065   6.029   2.704   1.829
49723SOL    HW151066   5.986   2.773   1.779
49723SOL    HW251067   6.039   2.740   1.917
49724SOL     OW51068   9.120   8.906   1.146
49724SOL    HW151069   9.063   8.938   1.076
49724SOL    HW251070   9.199   8.959   1.140
49725SOL     OW51071   6.156  10.476  10.161
49725SOL    HW151072   6.227  10.534  10.188
49725SOL    HW251073   6.093  10.533  10.116
49726SOL     OW51074   2.698   3.063  10.206
49726SOL    HW151075   2.708   2.984  10.154
49726SOL    HW251076   2.715   3.035  10.296
49727SOL     OW51077  12.460   9.167   2.639
49727SOL    HW151078  12.430   9.081   2.670
49727SOL    HW251079  12.419   9.230   2.697
49728SOL     OW51080   5.248   1.282   6.667
49728SOL    HW151081   5.170   1.238   6.700
49728SOL    HW251082   5.316   1.214   6.666
49729SOL     OW51083   7.480   2.259   1.650
49729SOL    HW151084   7.487   2.352   1.628
49729SOL    HW251085   7.452   2.258   1.741
49730SOL     OW51086   9.059   6.754  11.341
49730SOL    HW151087   9.090   6.838  11.376
49730SOL    HW251088   9.037   6.773  11.249
49731SOL     OW51089   4.986  12.382   1.699
49731SOL    HW151090   5.008  12.341   1.615
49731SOL    HW251091   4.921  12.448   1.678
49732SOL     OW51092  13.564   2.658  14.035
49732SOL    HW151093  13.537   2.657  14.127
49732SOL    HW251094  13.615   2.738  14.026
49733SOL     OW51095   8.465   2.959   3.844
49733SOL    HW151096   8.521   2.912   3.782
49733SOL    HW251097   8.389   2.902   3.856
49734SOL     OW51098   3.690   5.210   7.867
49734SOL    HW151099   3.746   5.256   7.930
49734SOL    HW251100   3.623   5.168   7.921
49735SOL     OW51101   8.366  13.294   5.349
49735SOL    HW151102   8.374  13.205   5.383
49735SOL    HW251103   8.409  13.349   5.415
49736SOL     OW51104  14.617  13.717   5.855
49736SOL    HW151105  14.711  13.726   5.836
49736SOL    HW251106  14.576  13.792   5.811
49737SOL     OW51107   0.534  13.325   5.968
49737SOL    HW151108   0.497  13.300   6.053
49737SOL    HW251109   0.556  13.242   5.927
49738SOL     OW51110   0.322   7.118   8.573
49738SOL    HW151111   0.368   7.202   8.573
49738SOL    HW251112   0.268   7.120   8.494
49739SOL     OW51113  14.732   1.390   2.191
49739SOL    HW151114  14.655   1.440   2.216
49739SOL    HW251115  14.704   1.336   2.118
49740SOL     OW51116   9.480   6.752  11.025
49740SOL    HW151117   9.568   6.713  11.027
49740SOL    HW251118   9.430   6.694  10.968
49741SOL     OW51119  14.465   4.882  12.487
49741SOL    HW151120  14.416   4.801  12.479
49741SOL    HW251121  14.557   4.854  12.491
49742SOL     OW51122   1.244   5.148  14.788
49742SOL    HW151123   1.321   5.198  14.814
49742SOL    HW251124   1.215   5.105  14.868
49743SOL     OW51125   9.123   2.198   0.453
49743SOL    HW151126   9.087   2.236   0.533
49743SOL    HW251127   9.206   2.244   0.441
49744SOL     OW51128  14.189   5.153   4.614
49744SOL    HW151129  14.124   5.223   4.622
49744SOL    HW251130  14.155   5.097   4.544
49745SOL     OW51131   5.514   0.206  12.194
49745SOL    HW151132   5.422   0.180  12.197
49745SOL    HW251133   5.560   0.130  12.158
49746SOL     OW51134  10.377   9.496   5.286
49746SOL    HW151135  10.376   9.542   5.202
49746SOL    HW251136  10.470   9.481   5.303
49747SOL     OW51137   8.995  13.435   8.406
49747SOL    HW151138   9.041  13.424   8.489
49747SOL    HW251139   8.923  13.496   8.426
49748SOL     OW51140   7.188   5.811   6.247
49748SOL    HW151141   7.250   5.865   6.294
49748SOL    HW251142   7.128   5.779   6.314
49749SOL     OW51143   8.314   6.991  10.308
49749SOL    HW151144   8.387   6.971  10.367
49749SOL    HW251145   8.277   7.072  10.343
49750SOL     OW51146   5.094  10.385   5.602
49750SOL    HW151147   5.046  10.461   5.634
49750SOL    HW251148   5.184  10.398   5.634
49751SOL     OW51149  13.186   7.123  14.098
49751SOL    HW151150  13.203   7.165  14.013
49751SOL    HW251151  13.262   7.145  14.151
49752SOL     OW51152   2.927   3.618  13.542
49752SOL    HW151153   2.905   3.540  13.593
49752SOL    HW251154   2.848   3.672  13.545
49753SOL     OW51155   6.129   4.144   4.304
49753SOL    HW151156   6.207   4.100   4.336
49753SOL    HW251157   6.156   4.235   4.291
49754SOL     OW51158   2.537   9.720   3.123
49754SOL    HW151159   2.458   9.720   3.068
49754SOL    HW251160   2.516   9.780   3.194
49755SOL     OW51161   9.269   3.610  13.774
49755SOL    HW151162   9.258   3.527  13.819
49755SOL    HW251163   9.357   3.607  13.738
49756SOL     OW51164   6.820   4.390   0.486
49756SOL    HW151165   6.806   4.300   0.455
49756SOL    HW251166   6.757   4.442   0.436
49757SOL     OW51167   5.975   8.797   6.444
49757SOL    HW151168   6.052   8.743   6.461
49757SOL    HW251169   5.950   8.774   6.354
49758SOL     OW51170   7.958   0.266  14.106
49758SOL    HW151171   7.988   0.201  14.043
49758SOL    HW251172   7.867   0.283  14.081
49759SOL     OW51173  11.988   3.505   2.304
49759SOL    HW151174  12.050   3.566   2.344
49759SOL    HW251175  12.038   3.425   2.291
49760SOL     OW51176   8.428  10.950   3.626
49760SOL    HW151177   8.387  10.876   3.672
49760SOL    HW251178   8.475  10.998   3.695
49761SOL     OW51179   4.760   4.484   4.377
49761SOL    HW151180   4.670   4.509   4.356
49761SOL    HW251181   4.813   4.541   4.322
49762SOL     OW51182   7.314   1.044   3.883
49762SOL    HW151183   7.348   0.990   3.954
49762SOL    HW251184   7.247   1.098   3.925
49763SOL     OW51185   9.795   4.598   1.931
49763SOL    HW151186   9.793   4.692   1.950
49763SOL    HW251187   9.714   4.582   1.884
49764SOL     OW51188  14.149   2.504   8.012
49764SOL    HW151189  14.131   2.585   7.965
49764SOL    HW251190  14.065   2.478   8.049
49765SOL     OW51191   6.566   9.049  11.857
49765SOL    HW151192   6.557   9.098  11.939
49765SOL    HW251193   6.480   9.056  11.816
49766SOL     OW51194   2.717   6.996  13.071
49766SOL    HW151195   2.629   7.032  13.085
49766SOL    HW251196   2.711   6.952  12.986
49767SOL     OW51197   4.315   8.648   8.394
49767SOL    HW151198   4.231   8.639   8.439
49767SOL    HW251199   4.305   8.728   8.342
49768SOL     OW51200  10.618   5.081   8.479
49768SOL    HW151201  10.606   5.176   8.480
49768SOL    HW251202  10.533   5.047   8.509
49769SOL     OW51203   9.120   7.873  12.307
49769SOL    HW151204   9.088   7.957  12.274
49769SOL    HW251205   9.043   7.817  12.308
49770SOL     OW51206  10.057   0.241   8.892
49770SOL    HW151207  10.047   0.302   8.819
49770SOL    HW251208   9.979   0.186   8.888
49771SOL     OW51209  14.684  14.387   9.513
49771SOL    HW151210  14.641  14.304   9.490
49771SOL    HW251211  14.695  14.382   9.608
49772SOL     OW51212   5.590   2.390   3.395
49772SOL    HW151213   5.512   2.382   3.340
49772SOL    HW251214   5.655   2.335   3.351
49773SOL     OW51215   9.887  14.006   4.562
49773SOL    HW151216   9.807  14.020   4.512
49773SOL    HW251217   9.949  14.069   4.526
49774SOL     OW51218  11.527   9.253  14.266
49774SOL    HW151219  11.621   9.249  14.247
49774SOL    HW251220  11.523   9.282  14.357
49775SOL     OW51221  11.795  11.749   5.831
49775SOL    HW151222  11.820  11.718   5.744
49775SOL    HW251223  11.727  11.688   5.859
49776SOL     OW51224   6.223  11.891   1.947
49776SOL    HW151225   6.257  11.910   1.860
49776SOL    HW251226   6.139  11.936   1.951
49777SOL     OW51227   5.397   0.474   5.441
49777SOL    HW151228   5.407   0.568   5.454
49777SOL    HW251229   5.393   0.464   5.346
49778SOL     OW51230  11.864  14.122   8.570
49778SOL    HW151231  11.926  14.072   8.516
49778SOL    HW251232  11.908  14.206   8.584
49779SOL     OW51233   4.391   0.657  14.229
49779SOL    HW151234   4.446   0.718  14.179
49779SOL    HW251235   4.305   0.664  14.188
49780SOL     OW51236   0.792  10.333   0.357
49780SOL    HW151237   0.842  10.258   0.387
49780SOL    HW251238   0.707  10.296   0.332
49781SOL     OW51239  13.420   0.154  12.122
49781SOL    HW151240  13.435   0.141  12.028
49781SOL    HW251241  13.330   0.124  12.136
49782SOL     OW51242  10.364   7.000  12.667
49782SOL    HW151243  10.369   7.089  12.631
49782SOL    HW251244  10.311   6.951  12.604
49783SOL     OW51245   8.106   0.778   8.950
49783SOL    HW151246   8.012   0.763   8.954
49783SOL    HW251247   8.134   0.734   8.869
49784SOL     OW51248   4.879   5.303  11.674
49784SOL    HW151249   4.867   5.301  11.579
49784SOL    HW251250   4.813   5.366  11.705
49785SOL     OW51251  12.152   6.810  11.128
49785SOL    HW151252  12.094   6.735  11.142
49785SOL    HW251253  12.227   6.773  11.081
49786SOL     OW51254  12.422   4.922   6.109
49786SOL    HW151255  12.339   4.941   6.152
49786SOL    HW251256  12.442   4.832   6.134
49787SOL     OW51257   5.048   7.026   7.673
49787SOL    HW151258   5.126   7.079   7.687
49787SOL    HW251259   5.057   6.992   7.584
49788SOL     OW51260   9.741   6.322   9.067
49788SOL    HW151261   9.706   6.308   9.155
49788SOL    HW251262   9.673   6.371   9.021
49789SOL     OW51263   4.984   7.965  11.154
49789SOL    HW151264   4.932   7.908  11.210
49789SOL    HW251265   4.966   7.934  11.065
49790SOL     OW51266   5.589  11.004   1.185
49790SOL    HW151267   5.642  10.993   1.264
49790SOL    HW251268   5.601  10.923   1.136
49791SOL     OW51269   2.467  12.968  12.407
49791SOL    HW151270   2.525  13.042  12.389
49791SOL    HW251271   2.446  12.934  12.320
49792SOL     OW51272   7.005   3.011   2.193
49792SOL    HW151273   6.999   3.008   2.288
49792SOL    HW251274   6.915   2.999   2.162
49793SOL     OW51275  14.416   7.862   1.827
49793SOL    HW151276  14.479   7.848   1.898
49793SOL    HW251277  14.378   7.948   1.845
49794SOL     OW51278   0.250   7.927   8.219
49794SOL    HW151279   0.314   7.983   8.263
49794SOL    HW251280   0.246   7.848   8.273
49795SOL     OW51281  10.891  14.796   0.467
49795SOL    HW151282  10.936   0.005   0.442
49795SOL    HW251283  10.802  14.824   0.489
49796SOL     OW51284   6.404   8.489   3.068
49796SOL    HW151285   6.386   8.583   3.068
49796SOL    HW251286   6.470   8.476   3.136
49797SOL     OW51287   6.490   5.212  14.619
49797SOL    HW151288   6.452   5.228  14.705
49797SOL    HW251289   6.486   5.117  14.608
49798SOL     OW51290   9.470   5.660   1.029
49798SOL    HW151291   9.504   5.598   0.964
49798SOL    HW251292   9.547   5.683   1.082
49799SOL     OW51293   8.862   1.813   4.062
49799SOL    HW151294   8.877   1.906   4.050
49799SOL    HW251295   8.769   1.806   4.085
49800SOL     OW51296  12.531  12.867  13.119
49800SOL    HW151297  12.618  12.844  13.153
49800SOL    HW251298  12.543  12.874  13.025
49801SOL     OW51299   1.478   8.196   6.142
49801SOL    HW151300   1.386   8.217   6.155
49801SOL    HW251301   1.525   8.255   6.200
49802SOL     OW51302  13.405  14.679   6.755
49802SOL    HW151303  13.435  14.657   6.843
49802SOL    HW251304  13.478  14.655   6.698
49803SOL     OW51305   7.674   9.482   0.145
49803SOL    HW151306   7.697   9.508   0.234
49803SOL    HW251307   7.594   9.532   0.126
49804SOL     OW51308   5.743  11.620  14.450
49804SOL    HW151309   5.752  11.581  14.537
49804SOL    HW251310   5.787  11.558  14.391
49805SOL     OW51311   1.689   8.775   9.522
49805SOL    HW151312   1.662   8.860   9.488
49805SOL    HW251313   1.784   8.782   9.530
49806SOL     OW51314   3.680   2.467   2.873
49806SOL    HW151315   3.585   2.469   2.885
49806SOL    HW251316   3.704   2.375   2.880
49807SOL     OW51317   7.505  13.619   7.556
49807SOL    HW151318   7.562  13.629   7.632
49807SOL    HW251319   7.527  13.533   7.520
49808SOL     OW51320  14.500   3.607   3.604
49808SOL    HW151321  14.501   3.525   3.554
49808SOL    HW251322  14.416   3.604   3.651
49809SOL     OW51323   7.493  14.063  11.592
49809SOL    HW151324   7.439  14.142  11.580
49809SOL    HW251325   7.454  13.999  11.532
49810SOL     OW51326   9.567   4.428  12.092
49810SOL    HW151327   9.658   4.450  12.113
49810SOL    HW251328   9.548   4.351  12.145
49811SOL     OW51329   7.096   7.122  14.584
49811SOL    HW151330   7.160   7.096  14.518
49811SOL    HW251331   7.011   7.104  14.543
49812SOL     OW51332   0.905   4.173   9.742
49812SOL    HW151333   0.940   4.108   9.681
49812SOL    HW251334   0.824   4.203   9.701
49813SOL     OW51335   1.695  11.751   0.791
49813SOL    HW151336   1.689  11.716   0.702
49813SOL    HW251337   1.637  11.827   0.792
49814SOL     OW51338  12.159   3.908  12.214
49814SOL    HW151339  12.083   3.905  12.157
49814SOL    HW251340  12.216   3.975  12.176
49815SOL     OW51341   5.777   4.288   2.557
49815SOL    HW151342   5.768   4.355   2.490
49815SOL    HW251343   5.708   4.307   2.621
49816SOL     OW51344  12.575   3.093   8.318
49816SOL    HW151345  12.643   3.077   8.384
49816SOL    HW251346  12.546   3.005   8.292
49817SOL     OW51347   2.439   2.185   8.779
49817SOL    HW151348   2.355   2.195   8.735
49817SOL    HW251349   2.447   2.264   8.834
49818SOL     OW51350   7.142   8.123   4.880
49818SOL    HW151351   7.149   8.132   4.975
49818SOL    HW251352   7.215   8.067   4.855
49819SOL     OW51353   4.721   9.721   1.451
49819SOL    HW151354   4.729   9.666   1.529
49819SOL    HW251355   4.672   9.798   1.482
49820SOL     OW51356   3.816   5.416   6.229
49820SOL    HW151357   3.846   5.365   6.305
49820SOL    HW251358   3.895   5.460   6.197
49821SOL     OW51359  13.262  10.822  13.658
49821SOL    HW151360  13.189  10.822  13.719
49821SOL    HW251361  13.222  10.800  13.573
49822SOL     OW51362   7.697   2.485   8.082
49822SOL    HW151363   7.640   2.418   8.045
49822SOL    HW251364   7.703   2.552   8.013
49823SOL     OW51365   1.055   2.756   9.685
49823SOL    HW151366   1.009   2.819   9.741
49823SOL    HW251367   1.131   2.804   9.653
49824SOL     OW51368   7.114   8.475   2.857
49824SOL    HW151369   7.081   8.394   2.896
49824SOL    HW251370   7.208   8.460   2.846
49825SOL     OW51371   8.554   3.567   1.427
49825SOL    HW151372   8.509   3.565   1.512
49825SOL    HW251373   8.490   3.607   1.368
49826SOL     OW51374   2.424   1.939   9.440
49826SOL    HW151375   2.428   2.034   9.433
49826SOL    HW251376   2.391   1.923   9.528
49827SOL     OW51377  13.108   4.403   3.788
49827SOL    HW151378  13.110   4.484   3.736
49827SOL    HW251379  13.037   4.417   3.851
49828SOL     OW51380  10.814  11.130   5.267
49828SOL    HW151381  10.786  11.142   5.358
49828SOL    HW251382  10.751  11.180   5.215
49829SOL     OW51383   7.676   2.883   6.946
49829SOL    HW151384   7.668   2.891   6.851
49829SOL    HW251385   7.647   2.794   6.965
49830SOL     OW51386   2.569   0.833   7.938
49830SOL    HW151387   2.564   0.928   7.951
49830SOL    HW251388   2.572   0.822   7.843
49831SOL     OW51389   4.484   4.135  10.171
49831SOL    HW151390   4.523   4.219  10.145
49831SOL    HW251391   4.497   4.079  10.095
49832SOL     OW51392   0.517   1.009  11.027
49832SOL    HW151393   0.449   1.068  11.059
49832SOL    HW251394   0.470   0.932  10.996
49833SOL     OW51395  10.950   5.118   9.106
49833SOL    HW151396  10.861   5.088   9.088
49833SOL    HW251397  11.006   5.054   9.064
49834SOL     OW51398   5.519   3.168   8.793
49834SOL    HW151399   5.555   3.255   8.814
49834SOL    HW251400   5.451   3.185   8.728
49835SOL     OW51401   3.706   6.255  14.772
49835SOL    HW151402   3.636   6.320  14.770
49835SOL    HW251403   3.665   6.176  14.807
49836SOL     OW51404   5.920   3.744   6.343
49836SOL    HW151405   5.958   3.698   6.268
49836SOL    HW251406   5.921   3.836   6.318
49837SOL     OW51407   5.845   0.363  12.014
49837SOL    HW151408   5.822   0.426  12.082
49837SOL    HW251409   5.941   0.361  12.014
49838SOL     OW51410   6.500   5.898   1.652
49838SOL    HW151411   6.579   5.843   1.660
49838SOL    HW251412   6.500   5.951   1.731
49839SOL     OW51413   4.165   5.822   7.107
49839SOL    HW151414   4.136   5.808   7.198
49839SOL    HW251415   4.257   5.797   7.107
49840SOL     OW51416   8.451   6.191  11.533
49840SOL    HW151417   8.472   6.117  11.590
49840SOL    HW251418   8.457   6.154  11.444
49841SOL     OW51419   7.674   4.229   5.467
49841SOL    HW151420   7.580   4.219   5.452
49841SOL    HW251421   7.703   4.288   5.397
49842SOL     OW51422  11.677   4.476  13.407
49842SOL    HW151423  11.608   4.534  13.376
49842SOL    HW251424  11.694   4.505  13.497
49843SOL     OW51425  12.086   4.047   3.178
49843SOL    HW151426  12.018   4.008   3.232
49843SOL    HW251427  12.139   3.972   3.149
49844SOL     OW51428  13.297   2.507   3.991
49844SOL    HW151429  13.273   2.496   3.899
49844SOL    HW251430  13.303   2.418   4.025
49845SOL     OW51431   5.005   0.556   4.399
49845SOL    HW151432   5.028   0.632   4.452
49845SOL    HW251433   5.076   0.494   4.414
49846SOL     OW51434   7.623  14.216  11.812
49846SOL    HW151435   7.634  14.164  11.732
49846SOL    HW251436   7.604  14.304  11.780
49847SOL     OW51437   7.574   3.501   4.246
49847SOL    HW151438   7.636   3.499   4.173
49847SOL    HW251439   7.493   3.465   4.210
49848SOL     OW51440   0.388  14.263   9.758
49848SOL    HW151441   0.453  14.321   9.799
49848SOL    HW251442   0.387  14.290   9.666
49849SOL     OW51443   5.754  14.710   4.678
49849SOL    HW151444   5.662  14.686   4.678
49849SOL    HW251445   5.799  14.634   4.715
49850SOL     OW51446   5.406  13.384   8.765
49850SOL    HW151447   5.334  13.357   8.822
49850SOL    HW251448   5.395  13.479   8.756
49851SOL     OW51449   7.439   0.838   2.901
49851SOL    HW151450   7.501   0.829   2.829
49851SOL    HW251451   7.452   0.927   2.933
49852SOL     OW51452   4.696  10.767   7.060
49852SOL    HW151453   4.638  10.710   7.009
49852SOL    HW251454   4.636  10.817   7.117
49853SOL     OW51455   5.439  14.388  13.025
49853SOL    HW151456   5.390  14.445  13.084
49853SOL    HW251457   5.388  14.387  12.944
49854SOL     OW51458   4.879   9.328   2.458
49854SOL    HW151459   4.805   9.388   2.467
49854SOL    HW251460   4.901   9.331   2.365
49855SOL     OW51461   7.402   5.956   3.741
49855SOL    HW151462   7.375   5.932   3.653
49855SOL    HW251463   7.347   5.904   3.799
49856SOL     OW51464  14.311   3.512   7.539
49856SOL    HW151465  14.309   3.423   7.574
49856SOL    HW251466  14.396   3.547   7.567
49857SOL     OW51467   3.298   8.960  10.085
49857SOL    HW151468   3.243   9.038  10.094
49857SOL    HW251469   3.289   8.915  10.169
49858SOL     OW51470   1.118   3.525  12.220
49858SOL    HW151471   1.070   3.517  12.303
49858SOL    HW251472   1.178   3.450  12.220
49859SOL     OW51473  11.538   3.131   7.430
49859SOL    HW151474  11.563   3.222   7.442
49859SOL    HW251475  11.617   3.081   7.449
49860SOL     OW51476  10.512   5.220   7.348
49860SOL    HW151477  10.547   5.131   7.343
49860SOL    HW251478  10.466   5.232   7.265
49861SOL     OW51479   0.067   7.438   1.996
49861SOL    HW151480   0.030   7.526   1.992
49861SOL    HW251481   0.093   7.419   1.906
49862SOL     OW51482   4.391  11.919   3.584
49862SOL    HW151483   4.303  11.943   3.612
49862SOL    HW251484   4.446  11.993   3.610
49863SOL     OW51485   5.118  13.176   8.720
49863SOL    HW151486   5.056  13.103   8.712
49863SOL    HW251487   5.187  13.156   8.657
49864SOL     OW51488   0.148   5.884   5.603
49864SOL    HW151489   0.137   5.820   5.532
49864SOL    HW251490   0.083   5.951   5.585
49865SOL     OW51491   9.909   9.645  11.605
49865SOL    HW151492   9.935   9.670  11.694
49865SOL    HW251493   9.814   9.636  11.609
49866SOL     OW51494   1.700  10.591   2.085
49866SOL    HW151495   1.789  10.559   2.096
49866SOL    HW251496   1.697  10.672   2.136
49867SOL     OW51497   9.703  13.280  12.474
49867SOL    HW151498   9.625  13.329  12.501
49867SOL    HW251499   9.667  13.198  12.440
49868SOL     OW51500  11.541   8.915   2.377
49868SOL    HW151501  11.592   8.845   2.336
49868SOL    HW251502  11.604   8.986   2.388
49869SOL     OW51503   6.701  13.155   7.694
49869SOL    HW151504   6.764  13.218   7.658
49869SOL    HW251505   6.646  13.131   7.620
49870SOL     OW51506  10.556  14.402   4.676
49870SOL    HW151507  10.626  14.342   4.649
49870SOL    HW251508  10.570  14.480   4.623
49871SOL     OW51509  13.547  12.005   9.019
49871SOL    HW151510  13.623  12.062   9.035
49871SOL    HW251511  13.568  11.960   8.937
49872SOL     OW51512   8.700   6.748   0.196
49872SOL    HW151513   8.680   6.834   0.158
49872SOL    HW251514   8.670   6.685   0.130
49873SOL     OW51515   8.503   9.773   2.001
49873SOL    HW151516   8.408   9.777   2.007
49873SOL    HW251517   8.525   9.828   1.925
49874SOL     OW51518  12.557   0.498   4.786
49874SOL    HW151519  12.526   0.540   4.867
49874SOL    HW251520  12.641   0.458   4.811
49875SOL     OW51521   0.243   0.628   5.001
49875SOL    HW151522   0.315   0.572   5.028
49875SOL    HW251523   0.206   0.584   4.925
49876SOL     OW51524  11.337   1.161   5.584
49876SOL    HW151525  11.365   1.178   5.674
49876SOL    HW251526  11.390   1.220   5.530
49877SOL     OW51527  12.231   9.742   9.008
49877SOL    HW151528  12.150   9.769   9.050
49877SOL    HW251529  12.205   9.717   8.919
49878SOL     OW51530   5.308   2.386   6.844
49878SOL    HW151531   5.275   2.296   6.845
49878SOL    HW251532   5.275   2.423   6.762
49879SOL     OW51533  13.154  13.363   3.837
49879SOL    HW151534  13.127  13.349   3.746
49879SOL    HW251535  13.145  13.457   3.850
49880SOL     OW51536   0.994   2.372   8.187
49880SOL    HW151537   0.901   2.394   8.180
49880SOL    HW251538   1.020   2.350   8.098
49881SOL     OW51539   2.678   6.685   1.314
49881SOL    HW151540   2.629   6.765   1.294
49881SOL    HW251541   2.729   6.667   1.236
49882SOL     OW51542   0.494  13.982  11.635
49882SOL    HW151543   0.505  14.075  11.656
49882SOL    HW251544   0.446  13.983  11.551
49883SOL     OW51545  11.981   4.359   4.776
49883SOL    HW151546  11.991   4.269   4.806
49883SOL    HW251547  12.054   4.373   4.716
49884SOL     OW51548   7.421   9.907   4.974
49884SOL    HW151549   7.432   9.821   5.014
49884SOL    HW251550   7.329   9.912   4.950
49885SOL     OW51551   6.322  11.108   2.932
49885SOL    HW151552   6.245  11.067   2.893
49885SOL    HW251553   6.355  11.044   2.995
49886SOL     OW51554   8.266   3.384   2.221
49886SOL    HW151555   8.231   3.303   2.184
49886SOL    HW251556   8.322   3.420   2.152
49887SOL     OW51557  12.313   4.983   9.624
49887SOL    HW151558  12.269   4.901   9.599
49887SOL    HW251559  12.357   5.012   9.545
49888SOL     OW51560  10.915   7.537   2.139
49888SOL    HW151561  10.936   7.553   2.047
49888SOL    HW251562  10.875   7.450   2.140
49889SOL     OW51563   9.233   7.906  11.863
49889SOL    HW151564   9.280   7.897  11.780
49889SOL    HW251565   9.239   8.000  11.883
49890SOL     OW51566  13.274   3.084   5.248
49890SOL    HW151567  13.186   3.093   5.212
49890SOL    HW251568  13.279   2.993   5.278
49891SOL     OW51569  14.586   3.573   7.543
49891SOL    HW151570  14.681   3.564   7.550
49891SOL    HW251571  14.563   3.640   7.607
49892SOL     OW51572   6.683   6.958   0.578
49892SOL    HW151573   6.673   6.888   0.644
49892SOL    HW251574   6.757   6.929   0.524
49893SOL     OW51575   3.086  10.865   5.165
49893SOL    HW151576   3.036  10.869   5.083
49893SOL    HW251577   3.159  10.924   5.151
49894SOL     OW51578   8.260   1.153   7.424
49894SOL    HW151579   8.187   1.199   7.383
49894SOL    HW251580   8.266   1.070   7.376
49895SOL     OW51581   9.670   5.378   3.774
49895SOL    HW151582   9.737   5.426   3.725
49895SOL    HW251583   9.689   5.398   3.866
49896SOL     OW51584   6.687   7.159   8.741
49896SOL    HW151585   6.770   7.117   8.716
49896SOL    HW251586   6.713   7.247   8.768
49897SOL     OW51587   9.907  13.751   5.023
49897SOL    HW151588   9.936  13.726   4.935
49897SOL    HW251589   9.958  13.829   5.045
49898SOL     OW51590   3.925   6.232   7.633
49898SOL    HW151591   3.857   6.172   7.602
49898SOL    HW251592   3.953   6.196   7.717
49899SOL     OW51593   6.993   9.360  13.002
49899SOL    HW151594   7.015   9.306  12.926
49899SOL    HW251595   6.903   9.337  13.023
49900SOL     OW51596   0.337  10.456   6.518
49900SOL    HW151597   0.428  10.485   6.518
49900SOL    HW251598   0.334  10.387   6.452
49901SOL     OW51599   8.034   3.974   0.411
49901SOL    HW151600   7.969   3.908   0.386
49901SOL    HW251601   8.117   3.927   0.408
49902SOL     OW51602   1.126  10.192   6.190
49902SOL    HW151603   1.067  10.205   6.264
49902SOL    HW251604   1.138  10.280   6.153
49903SOL     OW51605   2.430   4.398   9.325
49903SOL    HW151606   2.424   4.359   9.412
49903SOL    HW251607   2.523   4.392   9.302
49904SOL     OW51608   4.458   5.688   1.442
49904SOL    HW151609   4.456   5.614   1.502
49904SOL    HW251610   4.388   5.671   1.380
49905SOL     OW51611  11.477  12.204   4.992
49905SOL    HW151612  11.463  12.216   5.086
49905SOL    HW251613  11.566  12.237   4.978
49906SOL     OW51614  14.034   7.903   4.941
49906SOL    HW151615  14.110   7.958   4.962
49906SOL    HW251616  14.015   7.857   5.023
49907SOL     OW51617   6.457   6.142  10.664
49907SOL    HW151618   6.465   6.235  10.683
49907SOL    HW251619   6.383   6.136  10.604
49908SOL     OW51620  14.450   1.833   4.365
49908SOL    HW151621  14.488   1.745   4.363
49908SOL    HW251622  14.455   1.859   4.457
49909SOL     OW51623   1.018   9.659   0.339
49909SOL    HW151624   1.065   9.576   0.348
49909SOL    HW251625   1.068   9.707   0.273
49910SOL     OW51626   8.051  11.165   5.781
49910SOL    HW151627   7.973  11.110   5.787
49910SOL    HW251628   8.124  11.104   5.789
49911SOL     OW51629  10.722  12.215   7.079
49911SOL    HW151630  10.639  12.183   7.114
49911SOL    HW251631  10.744  12.154   7.009
49912SOL     OW51632  12.146  13.500   1.355
49912SOL    HW151633  12.072  13.528   1.301
49912SOL    HW251634  12.180  13.423   1.311
49913SOL     OW51635   0.385   5.984   3.278
49913SOL    HW151636   0.317   6.025   3.331
49913SOL    HW251637   0.369   5.890   3.287
49914SOL     OW51638   9.890  11.514  13.194
49914SOL    HW151639   9.966  11.520  13.252
49914SOL    HW251640   9.907  11.580  13.126
49915SOL     OW51641   5.238   3.031  10.642
49915SOL    HW151642   5.251   2.991  10.728
49915SOL    HW251643   5.271   2.966  10.580
49916SOL     OW51644   8.842   2.370  10.584
49916SOL    HW151645   8.811   2.306  10.648
49916SOL    HW251646   8.928   2.338  10.558
49917SOL     OW51647   8.357  13.809   1.147
49917SOL    HW151648   8.398  13.868   1.210
49917SOL    HW251649   8.428  13.752   1.118
49918SOL     OW51650   5.725   8.545  13.676
49918SOL    HW151651   5.646   8.525  13.624
49918SOL    HW251652   5.754   8.630  13.644
49919SOL     OW51653  11.438   0.634   7.401
49919SOL    HW151654  11.488   0.707   7.437
49919SOL    HW251655  11.355   0.635   7.449
49920SOL     OW51656   3.190   6.204   8.437
49920SOL    HW151657   3.166   6.115   8.459
49920SOL    HW251658   3.256   6.195   8.368
49921SOL     OW51659  10.608   1.009  13.856
49921SOL    HW151660  10.564   0.948  13.915
49921SOL    HW251661  10.698   0.977  13.852
49922SOL     OW51662  12.150   1.342  11.963
49922SOL    HW151663  12.170   1.313  11.874
49922SOL    HW251664  12.223   1.399  11.987
49923SOL     OW51665   3.205  14.776   9.909
49923SOL    HW151666   3.171  14.700   9.956
49923SOL    HW251667   3.300  14.766   9.913
49924SOL     OW51668  13.562  12.429   9.262
49924SOL    HW151669  13.563  12.446   9.357
49924SOL    HW251670  13.477  12.386   9.247
49925SOL     OW51671  12.714   7.945   1.135
49925SOL    HW151672  12.804   7.975   1.146
49925SOL    HW251673  12.699   7.888   1.210
49926SOL     OW51674  13.532   4.873   5.441
49926SOL    HW151675  13.503   4.935   5.374
49926SOL    HW251676  13.460   4.871   5.504
49927SOL     OW51677   2.487  12.237   5.604
49927SOL    HW151678   2.501  12.146   5.576
49927SOL    HW251679   2.445  12.279   5.529
49928SOL     OW51680  12.031  10.771  10.430
49928SOL    HW151681  12.016  10.865  10.442
49928SOL    HW251682  11.990  10.751  10.345
49929SOL     OW51683  11.355  11.120   4.481
49929SOL    HW151684  11.340  11.214   4.485
49929SOL    HW251685  11.445  11.111   4.450
49930SOL     OW51686   1.377  11.034   2.413
49930SOL    HW151687   1.379  10.964   2.348
49930SOL    HW251688   1.421  10.996   2.490
49931SOL     OW51689   8.000   8.878  14.504
49931SOL    HW151690   8.021   8.820  14.430
49931SOL    HW251691   7.963   8.957  14.463
49932SOL     OW51692   1.862   4.170  13.076
49932SOL    HW151693   1.807   4.172  12.998
49932SOL    HW251694   1.844   4.252  13.121
49933SOL     OW51695   8.993   9.189   9.701
49933SOL    HW151696   8.949   9.272   9.684
49933SOL    HW251697   9.078   9.198   9.659
49934SOL     OW51698   7.106   9.234  14.228
49934SOL    HW151699   7.052   9.200  14.157
49934SOL    HW251700   7.078   9.185  14.305
49935SOL     OW51701  11.186   0.712   5.313
49935SOL    HW151702  11.187   0.666   5.229
49935SOL    HW251703  11.147   0.797   5.294
49936SOL     OW51704   5.160   2.444  12.504
49936SOL    HW151705   5.076   2.482  12.530
49936SOL    HW251706   5.220   2.466  12.575
49937SOL     OW51707  12.247  14.803   1.391
49937SOL    HW151708  12.219   0.012   1.346
49937SOL    HW251709  12.175  14.784   1.451
49938SOL     OW51710  12.525   3.923  11.654
49938SOL    HW151711  12.565   3.932  11.741
49938SOL    HW251712  12.598   3.934  11.593
49939SOL     OW51713   8.556  13.679  11.370
49939SOL    HW151714   8.464  13.669  11.393
49939SOL    HW251715   8.564  13.770  11.341
49940SOL     OW51716   3.621  10.039  13.916
49940SOL    HW151717   3.555   9.976  13.945
49940SOL    HW251718   3.634  10.019  13.823
49941SOL     OW51719  10.737  12.556   1.469
49941SOL    HW151720  10.766  12.550   1.560
49941SOL    HW251721  10.782  12.485   1.424
49942SOL     OW51722   3.330   4.454  13.825
49942SOL    HW151723   3.409   4.468  13.878
49942SOL    HW251724   3.312   4.360  13.833
49943SOL     OW51725  10.374  13.297   8.465
49943SOL    HW151726  10.292  13.265   8.428
49943SOL    HW251727  10.418  13.341   8.392
49944SOL     OW51728   2.484   8.573   4.842
49944SOL    HW151729   2.551   8.591   4.775
49944SOL    HW251730   2.513   8.492   4.884
49945SOL     OW51731   1.590   1.164   5.727
49945SOL    HW151732   1.619   1.082   5.765
49945SOL    HW251733   1.502   1.178   5.762
49946SOL     OW51734  10.733  10.495   7.267
49946SOL    HW151735  10.786  10.497   7.346
49946SOL    HW251736  10.797  10.503   7.196
49947SOL     OW51737   0.766   4.576   5.140
49947SOL    HW151738   0.769   4.484   5.168
49947SOL    HW251739   0.805   4.574   5.052
49948SOL     OW51740  10.681   8.203   7.980
49948SOL    HW151741  10.745   8.135   7.997
49948SOL    HW251742  10.638   8.217   8.065
49949SOL     OW51743  11.139   2.631   4.570
49949SOL    HW151744  11.230   2.602   4.561
49949SOL    HW251745  11.137   2.681   4.652
49950SOL     OW51746   4.225   5.638  13.253
49950SOL    HW151747   4.298   5.656  13.194
49950SOL    HW251748   4.183   5.560  13.216
49951SOL     OW51749  12.906  10.966   6.396
49951SOL    HW151750  12.848  10.980   6.471
49951SOL    HW251751  12.994  10.985   6.429
49952SOL     OW51752  14.219  11.063  10.722
49952SOL    HW151753  14.296  11.111  10.690
49952SOL    HW251754  14.194  11.109  10.802
49953SOL     OW51755   4.746   5.068   2.467
49953SOL    HW151756   4.809   5.038   2.402
49953SOL    HW251757   4.753   5.163   2.465
49954SOL     OW51758   5.967  14.569   8.915
49954SOL    HW151759   6.045  14.592   8.965
49954SOL    HW251760   5.968  14.473   8.912
49955SOL     OW51761   0.136   0.581   0.008
49955SOL    HW151762   0.151   0.548  14.791
49955SOL    HW251763   0.068   0.648  14.869
49956SOL     OW51764   4.897   8.575   2.783
49956SOL    HW151765   4.919   8.483   2.771
49956SOL    HW251766   4.920   8.593   2.875
49957SOL     OW51767  11.446   2.362   9.959
49957SOL    HW151768  11.525   2.405   9.925
49957SOL    HW251769  11.442   2.389  10.051
49958SOL     OW51770   2.542   3.256   7.338
49958SOL    HW151771   2.528   3.319   7.267
49958SOL    HW251772   2.575   3.310   7.411
49959SOL     OW51773  13.161   2.247  10.552
49959SOL    HW151774  13.136   2.337  10.573
49959SOL    HW251775  13.255   2.244  10.569
49960SOL     OW51776   9.383  13.060  11.975
49960SOL    HW151777   9.430  12.977  11.982
49960SOL    HW251778   9.313  13.054  12.040
49961SOL     OW51779   7.492   0.373   5.540
49961SOL    HW151780   7.509   0.361   5.633
49961SOL    HW251781   7.578   0.362   5.498
49962SOL     OW51782  14.142   2.308   6.820
49962SOL    HW151783  14.146   2.266   6.734
49962SOL    HW251784  14.223   2.357   6.827
49963SOL     OW51785   1.255   0.823   0.132
49963SOL    HW151786   1.338   0.857   0.165
49963SOL    HW251787   1.249   0.856   0.042
49964SOL     OW51788   3.140   8.230  14.593
49964SOL    HW151789   3.174   8.247  14.681
49964SOL    HW251790   3.217   8.229  14.537
49965SOL     OW51791  13.348   8.372   8.909
49965SOL    HW151792  13.405   8.381   8.985
49965SOL    HW251793  13.366   8.285   8.875
49966SOL     OW51794  10.226  13.255  11.673
49966SOL    HW151795  10.131  13.257  11.660
49966SOL    HW251796  10.239  13.290  11.761
49967SOL     OW51797   6.230  11.839   9.739
49967SOL    HW151798   6.213  11.810   9.649
49967SOL    HW251799   6.151  11.816   9.787
49968SOL     OW51800   1.210   1.573   7.078
49968SOL    HW151801   1.162   1.514   7.020
49968SOL    HW251802   1.257   1.632   7.020
49969SOL     OW51803  13.537   5.014  13.108
49969SOL    HW151804  13.577   4.972  13.185
49969SOL    HW251805  13.509   5.100  13.141
49970SOL     OW51806  12.769  10.018  14.408
49970SOL    HW151807  12.744   9.966  14.484
49970SOL    HW251808  12.733  10.105  14.425
49971SOL     OW51809  14.201  14.033   9.052
49971SOL    HW151810  14.232  14.005   8.966
49971SOL    HW251811  14.108  14.011   9.052
49972SOL     OW51812   8.005   0.765   4.240
49972SOL    HW151813   7.959   0.841   4.205
49972SOL    HW251814   8.098   0.783   4.224
49973SOL     OW51815   5.447  14.675   5.482
49973SOL    HW151816   5.496  14.660   5.563
49973SOL    HW251817   5.514  14.686   5.415
49974SOL     OW51818   3.698  11.878   2.421
49974SOL    HW151819   3.606  11.906   2.415
49974SOL    HW251820   3.741  11.922   2.348
49975SOL     OW51821   4.646  14.380   9.834
49975SOL    HW151822   4.632  14.469   9.801
49975SOL    HW251823   4.679  14.332   9.759
49976SOL     OW51824   6.588   3.087  14.451
49976SOL    HW151825   6.627   3.005  14.481
49976SOL    HW251826   6.549   3.125  14.530
49977SOL     OW51827  14.581   3.247   7.847
49977SOL    HW151828  14.631   3.180   7.802
49977SOL    HW251829  14.629   3.328   7.831
49978SOL     OW51830   5.661   8.879   6.041
49978SOL    HW151831   5.584   8.925   6.074
49978SOL    HW251832   5.637   8.787   6.043
49979SOL     OW51833   2.783   2.242  10.577
49979SOL    HW151834   2.698   2.283  10.593
49979SOL    HW251835   2.846   2.304  10.613
49980SOL     OW51836   9.810   7.967  11.950
49980SOL    HW151837   9.858   7.984  11.868
49980SOL    HW251838   9.756   7.891  11.930
49981SOL     OW51839   0.249   1.213   6.418
49981SOL    HW151840   0.327   1.161   6.396
49981SOL    HW251841   0.210   1.166   6.493
49982SOL     OW51842   0.727   6.211  11.420
49982SOL    HW151843   0.744   6.122  11.387
49982SOL    HW251844   0.697   6.259  11.343
49983SOL     OW51845   2.563   7.588  11.429
49983SOL    HW151846   2.571   7.627  11.342
49983SOL    HW251847   2.507   7.650  11.477
49984SOL     OW51848  10.363  11.870   1.380
49984SOL    HW151849  10.289  11.930   1.380
49984SOL    HW251850  10.343  11.808   1.451
49985SOL     OW51851   9.231  12.678   3.452
49985SOL    HW151852   9.285  12.600   3.442
49985SOL    HW251853   9.215  12.684   3.546
49986SOL     OW51854   2.086  12.123   1.798
49986SOL    HW151855   2.161  12.157   1.847
49986SOL    HW251856   2.111  12.034   1.774
49987SOL     OW51857  10.163   1.162   2.533
49987SOL    HW151858  10.176   1.193   2.623
49987SOL    HW251859  10.237   1.104   2.516
49988SOL     OW51860  10.743   1.927   8.090
49988SOL    HW151861  10.689   2.006   8.093
49988SOL    HW251862  10.680   1.855   8.085
49989SOL     OW51863   9.332  11.854  13.949
49989SOL    HW151864   9.423  11.835  13.925
49989SOL    HW251865   9.296  11.901  13.874
49990SOL     OW51866   9.838   1.620   8.900
49990SOL    HW151867   9.844   1.660   8.987
49990SOL    HW251868   9.881   1.535   8.910
49991SOL     OW51869   8.839  10.853   5.297
49991SOL    HW151870   8.756  10.810   5.318
49991SOL    HW251871   8.899  10.782   5.275
49992SOL     OW51872   2.175   7.202   5.294
49992SOL    HW151873   2.251   7.261   5.299
49992SOL    HW251874   2.101   7.259   5.276
49993SOL     OW51875   2.612   4.477   2.582
49993SOL    HW151876   2.605   4.571   2.561
49993SOL    HW251877   2.528   4.440   2.553
49994SOL     OW51878   1.083   5.800  12.798
49994SOL    HW151879   1.139   5.804  12.875
49994SOL    HW251880   1.081   5.707  12.774
49995SOL     OW51881  12.772  10.393  12.090
49995SOL    HW151882  12.772  10.349  12.174
49995SOL    HW251883  12.728  10.477  12.107
49996SOL     OW51884  11.546  14.702  10.380
49996SOL    HW151885  11.539  14.648  10.459
49996SOL    HW251886  11.577  14.641  10.312
49997SOL     OW51887  14.418   8.956   7.591
49997SOL    HW151888  14.389   8.864   7.593
49997SOL    HW251889  14.359   9.000   7.653
49998SOL     OW51890  12.416  12.114  11.866
49998SOL    HW151891  12.484  12.159  11.816
49998SOL    HW251892  12.357  12.184  11.893
49999SOL     OW51893   3.421   2.718   3.105
49999SOL    HW151894   3.464   2.798   3.135
49999SOL    HW251895   3.395   2.737   3.015
50000SOL     OW51896   3.591  11.736   3.783
50000SOL    HW151897   3.633  11.731   3.697
50000SOL    HW251898   3.651  11.787   3.837
50001SOL     OW51899  12.608  12.619   6.633
50001SOL    HW151900  12.630  12.708   6.661
50001SOL    HW251901  12.534  12.631   6.573
50002SOL     OW51902   8.903  12.153  11.950
50002SOL    HW151903   8.993  12.137  11.978
50002SOL    HW251904   8.906  12.143  11.854
50003SOL     OW51905  12.722  13.731  11.430
50003SOL    HW151906  12.698  13.704  11.518
50003SOL    HW251907  12.666  13.807  11.412
50004SOL     OW51908  12.331   1.177  13.750
50004SOL    HW151909  12.361   1.202  13.838
50004SOL    HW251910  12.261   1.113  13.766
50005SOL     OW51911  13.087   0.581  12.338
50005SOL    HW151912  13.108   0.670  12.364
50005SOL    HW251913  13.172   0.537  12.334
50006SOL     OW51914   7.712   5.232   9.025
50006SOL    HW151915   7.626   5.251   8.987
50006SOL    HW251916   7.713   5.281   9.107
50007SOL     OW51917  10.221  11.146  13.896
50007SOL    HW151918  10.126  11.142  13.908
50007SOL    HW251919  10.242  11.240  13.894
50008SOL     OW51920   1.512   5.220  11.937
50008SOL    HW151921   1.441   5.187  11.883
50008SOL    HW251922   1.514   5.161  12.013
50009SOL     OW51923   2.108   5.031  10.101
50009SOL    HW151924   2.104   5.037  10.196
50009SOL    HW251925   2.054   5.103  10.069
50010SOL     OW51926   8.389   0.916  14.538
50010SOL    HW151927   8.433   0.886  14.617
50010SOL    HW251928   8.311   0.861  14.530
50011SOL     OW51929   8.876   8.819  11.911
50011SOL    HW151930   8.840   8.835  11.823
50011SOL    HW251931   8.808   8.852  11.970
50012SOL     OW51932   4.095   9.204   6.510
50012SOL    HW151933   4.124   9.112   6.514
50012SOL    HW251934   4.053   9.219   6.595
50013SOL     OW51935   2.154  11.264   3.978
50013SOL    HW151936   2.168  11.286   4.071
50013SOL    HW251937   2.089  11.194   3.980
50014SOL     OW51938   0.720  10.614   9.526
50014SOL    HW151939   0.761  10.578   9.605
50014SOL    HW251940   0.744  10.707   9.527
50015SOL     OW51941  11.980   4.406  12.374
50015SOL    HW151942  11.941   4.327  12.339
50015SOL    HW251943  11.930   4.424  12.454
50016SOL     OW51944   6.564  11.434   6.986
50016SOL    HW151945   6.572  11.412   7.078
50016SOL    HW251946   6.501  11.371   6.951
50017SOL     OW51947   9.835  14.104  10.588
50017SOL    HW151948   9.919  14.138  10.619
50017SOL    HW251949   9.776  14.116  10.662
50018SOL     OW51950   9.431   4.638   8.732
50018SOL    HW151951   9.347   4.675   8.758
50018SOL    HW251952   9.447   4.674   8.645
50019SOL     OW51953  11.680   1.676  13.313
50019SOL    HW151954  11.619   1.714  13.376
50019SOL    HW251955  11.767   1.696  13.349
50020SOL     OW51956   6.131   1.399   7.185
50020SOL    HW151957   6.151   1.478   7.135
50020SOL    HW251958   6.196   1.397   7.255
50021SOL     OW51959  14.360   5.299  13.103
50021SOL    HW151960  14.386   5.242  13.175
50021SOL    HW251961  14.421   5.279  13.032
50022SOL     OW51962   8.607   3.396  13.987
50022SOL    HW151963   8.661   3.372  14.062
50022SOL    HW251964   8.656   3.363  13.911
50023SOL     OW51965   6.114   9.710   6.931
50023SOL    HW151966   6.170   9.650   6.882
50023SOL    HW251967   6.027   9.699   6.893
50024SOL     OW51968   3.110   1.560   4.113
50024SOL    HW151969   3.158   1.642   4.120
50024SOL    HW251970   3.041   1.578   4.049
50025SOL     OW51971  14.642  10.292  10.960
50025SOL    HW151972  14.571  10.299  10.895
50025SOL    HW251973  14.722  10.306  10.909
50026SOL     OW51974   2.459  10.858  12.736
50026SOL    HW151975   2.431  10.934  12.684
50026SOL    HW251976   2.546  10.838  12.703
50027SOL     OW51977  11.445   0.043   1.594
50027SOL    HW151978  11.506   0.090   1.537
50027SOL    HW251979  11.383   0.003   1.534
50028SOL     OW51980  11.313  13.054  10.150
50028SOL    HW151981  11.242  13.093  10.201
50028SOL    HW251982  11.369  13.012  10.215
50029SOL     OW51983   5.453  13.643   7.624
50029SOL    HW151984   5.517  13.576   7.600
50029SOL    HW251985   5.502  13.725   7.621
50030SOL     OW51986  11.506  12.294   0.815
50030SOL    HW151987  11.575  12.267   0.875
50030SOL    HW251988  11.544  12.366   0.765
50031SOL     OW51989   5.869  11.533  11.629
50031SOL    HW151990   5.873  11.552  11.535
50031SOL    HW251991   5.951  11.566  11.664
50032SOL     OW51992   1.759   9.586   7.705
50032SOL    HW151993   1.757   9.625   7.617
50032SOL    HW251994   1.767   9.492   7.690
50033SOL     OW51995  13.965   7.084  13.287
50033SOL    HW151996  14.035   7.135  13.247
50033SOL    HW251997  13.905   7.149  13.323
50034SOL     OW51998  12.933  12.737   8.861
50034SOL    HW151999  12.986  12.685   8.801
50034SOL    HW252000  12.843  12.712   8.842
50035SOL     OW52001   6.458  11.644   2.248
50035SOL    HW152002   6.465  11.649   2.153
50035SOL    HW252003   6.390  11.580   2.265
50036SOL     OW52004  10.849  12.173   3.604
50036SOL    HW152005  10.855  12.150   3.511
50036SOL    HW252006  10.783  12.243   3.606
50037SOL     OW52007   7.436   1.390   4.925
50037SOL    HW152008   7.440   1.371   5.019
50037SOL    HW252009   7.502   1.332   4.887
50038SOL     OW52010  13.654   7.969  14.066
50038SOL    HW152011  13.562   7.995  14.058
50038SOL    HW252012  13.699   8.049  14.093
50039SOL     OW52013   2.054   8.424   4.986
50039SOL    HW152014   2.054   8.412   4.891
50039SOL    HW252015   2.141   8.394   5.013
50040SOL     OW52016  13.308   3.808  11.849
50040SOL    HW152017  13.328   3.718  11.824
50040SOL    HW252018  13.231   3.801  11.905
50041SOL     OW52019  14.167   6.948  11.630
50041SOL    HW152020  14.112   7.017  11.593
50041SOL    HW252021  14.113   6.869  11.624
50042SOL     OW52022  10.297   8.894   7.412
50042SOL    HW152023  10.362   8.955   7.448
50042SOL    HW252024  10.314   8.812   7.457
50043SOL     OW52025   6.483   7.274  13.341
50043SOL    HW152026   6.446   7.332  13.274
50043SOL    HW252027   6.422   7.280  13.414
50044SOL     OW52028  14.657  12.948   4.062
50044SOL    HW152029  14.655  12.907   3.976
50044SOL    HW252030  14.722  13.018   4.054
50045SOL     OW52031   4.537  10.767   9.107
50045SOL    HW152032   4.539  10.847   9.055
50045SOL    HW252033   4.543  10.797   9.198
50046SOL     OW52034   2.680   3.866   1.954
50046SOL    HW152035   2.616   3.936   1.952
50046SOL    HW252036   2.686   3.836   1.863
50047SOL     OW52037  12.178   9.981  11.805
50047SOL    HW152038  12.270  10.004  11.791
50047SOL    HW252039  12.180   9.920  11.879
50048SOL     OW52040  11.854   0.409  12.858
50048SOL    HW152041  11.799   0.346  12.813
50048SOL    HW252042  11.928   0.358  12.891
50049SOL     OW52043  12.324   6.409   3.961
50049SOL    HW152044  12.237   6.449   3.967
50049SOL    HW252045  12.369   6.459   3.892
50050SOL     OW52046   1.104  14.433  12.072
50050SOL    HW152047   1.129  14.350  12.030
50050SOL    HW252048   1.160  14.438  12.150
50051SOL     OW52049   6.724   4.211  12.768
50051SOL    HW152050   6.681   4.134  12.806
50051SOL    HW252051   6.818   4.195  12.781
50052SOL     OW52052  11.791   4.261  10.820
50052SOL    HW152053  11.809   4.355  10.819
50052SOL    HW252054  11.878   4.220  10.823
50053SOL     OW52055   6.554   4.454   7.953
50053SOL    HW152056   6.498   4.468   8.029
50053SOL    HW252057   6.632   4.507   7.969
50054SOL     OW52058   3.506   6.224   6.953
50054SOL    HW152059   3.513   6.319   6.960
50054SOL    HW252060   3.579   6.198   6.897
50055SOL     OW52061   1.893  10.961  10.486
50055SOL    HW152062   1.882  10.986  10.577
50055SOL    HW252063   1.987  10.973  10.469
50056SOL     OW52064  10.072   9.005   0.265
50056SOL    HW152065  10.069   8.977   0.356
50056SOL    HW252066  10.000   8.960   0.223
50057SOL     OW52067  10.083   5.372  11.346
50057SOL    HW152068  10.027   5.303  11.310
50057SOL    HW252069  10.119   5.416  11.269
50058SOL     OW52070  13.800   7.200  12.580
50058SOL    HW152071  13.754   7.282  12.597
50058SOL    HW252072  13.892   7.225  12.574
50059SOL     OW52073   1.402  14.310   1.959
50059SOL    HW152074   1.341  14.271   2.022
50059SOL    HW252075   1.361  14.294   1.874
50060SOL     OW52076  10.464  10.339   4.564
50060SOL    HW152077  10.511  10.282   4.502
50060SOL    HW252078  10.512  10.422   4.561
50061SOL     OW52079  14.271   4.990   1.618
50061SOL    HW152080  14.335   5.017   1.684
50061SOL    HW252081  14.276   4.894   1.618
50062SOL     OW52082   5.172  11.090  10.738
50062SOL    HW152083   5.234  11.063  10.671
50062SOL    HW252084   5.226  11.132  10.805
50063SOL     OW52085  13.532   6.296   8.784
50063SOL    HW152086  13.540   6.281   8.690
50063SOL    HW252087  13.602   6.357   8.805
50064SOL     OW52088   5.119   1.433   8.618
50064SOL    HW152089   5.094   1.482   8.695
50064SOL    HW252090   5.075   1.348   8.627
50065SOL     OW52091   7.775   9.881   7.126
50065SOL    HW152092   7.801   9.919   7.042
50065SOL    HW252093   7.851   9.831   7.154
50066SOL     OW52094   8.897   4.751   0.440
50066SOL    HW152095   8.934   4.676   0.393
50066SOL    HW252096   8.840   4.711   0.506
50067SOL     OW52097  10.027  14.123  10.050
50067SOL    HW152098  10.121  14.125  10.033
50067SOL    HW252099  10.007  14.030  10.062
50068SOL     OW52100   1.154  13.682   4.210
50068SOL    HW152101   1.184  13.597   4.179
50068SOL    HW252102   1.142  13.671   4.304
50069SOL     OW52103   8.729   5.231   3.329
50069SOL    HW152104   8.684   5.236   3.245
50069SOL    HW252105   8.674   5.281   3.389
50070SOL     OW52106   1.522  12.509   2.647
50070SOL    HW152107   1.486  12.449   2.582
50070SOL    HW252108   1.528  12.593   2.602
50071SOL     OW52109  14.204   9.576  11.808
50071SOL    HW152110  14.246   9.560  11.892
50071SOL    HW252111  14.142   9.504  11.798
50072SOL     OW52112   9.051  11.018   9.564
50072SOL    HW152113   9.023  11.088   9.623
50072SOL    HW252114   8.999  11.031   9.485
50073SOL     OW52115   9.022  10.417   1.360
50073SOL    HW152116   9.074  10.496   1.354
50073SOL    HW252117   9.054  10.373   1.439
50074SOL     OW52118   6.934  10.833   9.197
50074SOL    HW152119   6.948  10.870   9.285
50074SOL    HW252120   6.968  10.744   9.203
50075SOL     OW52121   1.683  12.127  10.201
50075SOL    HW152122   1.613  12.071  10.169
50075SOL    HW252123   1.721  12.079  10.275
50076SOL     OW52124  14.496  12.527  12.926
50076SOL    HW152125  14.420  12.478  12.958
50076SOL    HW252126  14.551  12.540  13.004
50077SOL     OW52127  14.231   9.961  11.001
50077SOL    HW152128  14.262  10.019  10.932
50077SOL    HW252129  14.141   9.940  10.976
50078SOL     OW52130   9.701  11.296   2.149
50078SOL    HW152131   9.670  11.376   2.106
50078SOL    HW252132   9.659  11.299   2.236
50079SOL     OW52133  10.911   7.635  14.533
50079SOL    HW152134  10.888   7.700  14.467
50079SOL    HW252135  10.938   7.558  14.483
50080SOL     OW52136   6.463  11.912   7.523
50080SOL    HW152137   6.376  11.872   7.516
50080SOL    HW252138   6.486  11.933   7.433
50081SOL     OW52139   8.547   8.595   8.985
50081SOL    HW152140   8.541   8.683   9.022
50081SOL    HW252141   8.541   8.537   9.061
50082SOL     OW52142   2.691  13.454   2.423
50082SOL    HW152143   2.674  13.446   2.329
50082SOL    HW252144   2.780  13.489   2.428
50083SOL     OW52145  14.289   4.788   9.109
50083SOL    HW152146  14.212   4.758   9.157
50083SOL    HW252147  14.334   4.846   9.170
50084SOL     OW52148   8.756   7.952   4.939
50084SOL    HW152149   8.697   7.997   4.880
50084SOL    HW252150   8.837   7.941   4.889
50085SOL     OW52151  10.948   9.486   3.779
50085SOL    HW152152  10.904   9.401   3.781
50085SOL    HW252153  11.040   9.465   3.792
50086SOL     OW52154  10.200   4.201   8.750
50086SOL    HW152155  10.130   4.137   8.739
50086SOL    HW252156  10.192   4.259   8.675
50087SOL     OW52157  10.091   4.718   4.202
50087SOL    HW152158  10.097   4.772   4.123
50087SOL    HW252159  10.001   4.731   4.232
50088SOL     OW52160   9.636  13.362   9.269
50088SOL    HW152161   9.607  13.427   9.334
50088SOL    HW252162   9.570  13.293   9.273
50089SOL     OW52163  14.362  11.541   6.035
50089SOL    HW152164  14.368  11.531   5.940
50089SOL    HW252165  14.277  11.503   6.058
50090SOL     OW52166  10.545   9.488   8.075
50090SOL    HW152167  10.474   9.551   8.091
50090SOL    HW252168  10.539   9.469   7.982
50091SOL     OW52169   8.032  11.534   7.761
50091SOL    HW152170   7.983  11.467   7.810
50091SOL    HW252171   8.051  11.492   7.677
50092SOL     OW52172   2.877  13.290  11.024
50092SOL    HW152173   2.939  13.299  10.951
50092SOL    HW252174   2.929  13.309  11.102
50093SOL     OW52175   6.241  11.343   3.081
50093SOL    HW152176   6.284  11.268   3.041
50093SOL    HW252177   6.162  11.308   3.121
50094SOL     OW52178  10.602   5.726   8.333
50094SOL    HW152179  10.509   5.706   8.318
50094SOL    HW252180  10.601   5.794   8.400
50095SOL     OW52181   4.833  13.486   4.639
50095SOL    HW152182   4.870  13.434   4.711
50095SOL    HW252183   4.891  13.562   4.632
50096SOL     OW52184   5.576   2.017  12.576
50096SOL    HW152185   5.535   2.002  12.491
50096SOL    HW252186   5.568   1.933  12.622
50097SOL     OW52187   1.615   6.427  14.691
50097SOL    HW152188   1.656   6.421  14.605
50097SOL    HW252189   1.528   6.390  14.680
50098SOL     OW52190  12.092   2.698   2.600
50098SOL    HW152191  12.031   2.665   2.665
50098SOL    HW252192  12.177   2.699   2.645
50099SOL     OW52193  11.314  12.721   1.527
50099SOL    HW152194  11.306  12.794   1.589
50099SOL    HW252195  11.300  12.761   1.441
50100SOL     OW52196   7.745  10.188   1.238
50100SOL    HW152197   7.761  10.116   1.178
50100SOL    HW252198   7.761  10.152   1.325
50101SOL     OW52199  14.363  13.715  10.579
50101SOL    HW152200  14.298  13.709  10.649
50101SOL    HW252201  14.395  13.805  10.584
50102SOL     OW52202   2.964   6.382  11.980
50102SOL    HW152203   3.044   6.434  11.983
50102SOL    HW252204   2.936   6.386  11.888
50103SOL     OW52205  14.300  12.482  12.401
50103SOL    HW152206  14.377  12.512  12.354
50103SOL    HW252207  14.277  12.398  12.360
50104SOL     OW52208   7.015  11.602  10.228
50104SOL    HW152209   6.950  11.612  10.159
50104SOL    HW252210   6.963  11.587  10.307
50105SOL     OW52211   3.007   5.383  14.723
50105SOL    HW152212   2.926   5.423  14.692
50105SOL    HW252213   3.062   5.457  14.750
50106SOL     OW52214   1.768  13.150   9.823
50106SOL    HW152215   1.847  13.185   9.781
50106SOL    HW252216   1.696  13.188   9.774
50107SOL     OW52217   7.678   2.479  14.496
50107SOL    HW152218   7.692   2.499  14.404
50107SOL    HW252219   7.726   2.398  14.511
50108SOL     OW52220  11.517   5.156  10.372
50108SOL    HW152221  11.514   5.112  10.287
50108SOL    HW252222  11.606   5.189  10.380
50109SOL     OW52223   9.214   1.888   9.444
50109SOL    HW152224   9.129   1.858   9.476
50109SOL    HW252225   9.222   1.978   9.477
50110SOL     OW52226  14.772   0.537   6.907
50110SOL    HW152227  14.782   0.508   6.998
50110SOL    HW252228  14.763   0.632   6.913
50111SOL     OW52229   5.668  10.067  12.484
50111SOL    HW152230   5.734  10.130  12.456
50111SOL    HW252231   5.711   9.982  12.476
50112SOL     OW52232  13.048   9.576   4.170
50112SOL    HW152233  12.971   9.535   4.210
50112SOL    HW252234  13.117   9.511   4.181
50113SOL     OW52235  11.480   9.934   5.997
50113SOL    HW152236  11.561   9.910   6.042
50113SOL    HW252237  11.498   9.916   5.905
50114SOL     OW52238   6.367   3.184   1.073
50114SOL    HW152239   6.317   3.209   1.151
50114SOL    HW252240   6.459   3.192   1.100
50115SOL     OW52241   9.793   0.782   5.047
50115SOL    HW152242   9.718   0.783   5.107
50115SOL    HW252243   9.852   0.849   5.081
50116SOL     OW52244   6.316   3.169   6.548
50116SOL    HW152245   6.314   3.253   6.501
50116SOL    HW252246   6.326   3.194   6.640
50117SOL     OW52247   1.051   5.925   6.049
50117SOL    HW152248   1.091   6.010   6.061
50117SOL    HW252249   0.990   5.916   6.122
50118SOL     OW52250  12.167   3.791  12.928
50118SOL    HW152251  12.129   3.727  12.869
50118SOL    HW252252  12.112   3.787  13.006
50119SOL     OW52253   8.734  13.008   7.719
50119SOL    HW152254   8.741  13.080   7.782
50119SOL    HW252255   8.796  12.942   7.752
50120SOL     OW52256   1.518  12.218   0.657
50120SOL    HW152257   1.469  12.282   0.709
50120SOL    HW252258   1.600  12.263   0.636
50121SOL     OW52259   6.787   2.947  12.418
50121SOL    HW152260   6.744   2.877  12.369
50121SOL    HW252261   6.808   2.907  12.503
50122SOL     OW52262  11.550   1.002  13.659
50122SOL    HW152263  11.517   0.981  13.572
50122SOL    HW252264  11.632   0.954  13.667
50123SOL     OW52265   2.359   1.838  11.719
50123SOL    HW152266   2.395   1.808  11.802
50123SOL    HW252267   2.435   1.841  11.660
50124SOL     OW52268  11.278   6.076   5.649
50124SOL    HW152269  11.370   6.102   5.649
50124SOL    HW252270  11.273   6.003   5.710
50125SOL     OW52271   8.525  10.378  14.194
50125SOL    HW152272   8.456  10.323  14.231
50125SOL    HW252273   8.517  10.461  14.242
50126SOL     OW52274  13.242   8.856   1.256
50126SOL    HW152275  13.252   8.780   1.199
50126SOL    HW252276  13.267   8.825   1.343
50127SOL     OW52277  14.529   9.647   1.458
50127SOL    HW152278  14.574   9.620   1.378
50127SOL    HW252279  14.467   9.575   1.476
50128SOL     OW52280  11.958  12.730  10.977
50128SOL    HW152281  11.886  12.751  11.036
50128SOL    HW252282  11.979  12.813  10.934
50129SOL     OW52283   9.453   3.040   6.214
50129SOL    HW152284   9.392   3.066   6.146
50129SOL    HW252285   9.456   3.114   6.274
50130SOL     OW52286   0.181  11.522  12.896
50130SOL    HW152287   0.192  11.613  12.867
50130SOL    HW252288   0.107  11.525  12.958
50131SOL     OW52289  10.002  13.575  11.377
50131SOL    HW152290  10.076  13.516  11.392
50131SOL    HW252291  10.030  13.659  11.413
50132SOL     OW52292   8.974  13.822  13.634
50132SOL    HW152293   8.972  13.755  13.703
50132SOL    HW252294   9.013  13.777  13.559
50133SOL     OW52295  11.587   9.518   0.413
50133SOL    HW152296  11.680   9.517   0.392
50133SOL    HW252297  11.580   9.473   0.497
50134SOL     OW52298   4.069   0.651  11.765
50134SOL    HW152299   4.092   0.570  11.721
50134SOL    HW252300   4.108   0.643  11.852
50135SOL     OW52301   2.336  11.714  10.614
50135SOL    HW152302   2.266  11.765  10.574
50135SOL    HW252303   2.323  11.724  10.709
50136SOL     OW52304   5.623   6.674  14.686
50136SOL    HW152305   5.687   6.745  14.691
50136SOL    HW252306   5.539   6.718  14.675
50137SOL     OW52307   1.494  13.907   6.990
50137SOL    HW152308   1.511  13.859   6.909
50137SOL    HW252309   1.578  13.949   7.010
50138SOL     OW52310   9.967   7.193  11.141
50138SOL    HW152311   9.912   7.115  11.134
50138SOL    HW252312   9.945   7.245  11.063
50139SOL     OW52313   0.512  10.964   1.638
50139SOL    HW152314   0.550  10.905   1.703
50139SOL    HW252315   0.577  11.034   1.628
50140SOL     OW52316   7.971   9.061   7.685
50140SOL    HW152317   7.956   9.126   7.617
50140SOL    HW252318   7.913   9.087   7.757
50141SOL     OW52319   8.813  12.251   7.420
50141SOL    HW152320   8.889  12.301   7.452
50141SOL    HW252321   8.761  12.315   7.373
50142SOL     OW52322   3.395  13.399   4.944
50142SOL    HW152323   3.462  13.340   4.910
50142SOL    HW252324   3.437  13.485   4.944
50143SOL     OW52325   3.976   2.577   4.656
50143SOL    HW152326   3.930   2.494   4.668
50143SOL    HW252327   3.977   2.591   4.561
50144SOL     OW52328   8.350   0.457  13.601
50144SOL    HW152329   8.336   0.541  13.557
50144SOL    HW252330   8.314   0.470  13.689
50145SOL     OW52331   1.543  13.402   4.897
50145SOL    HW152332   1.462  13.417   4.945
50145SOL    HW252333   1.536  13.458   4.820
50146SOL     OW52334   4.064   1.202  10.685
50146SOL    HW152335   4.042   1.293  10.706
50146SOL    HW252336   4.090   1.204  10.593
50147SOL     OW52337   3.404   0.683  10.715
50147SOL    HW152338   3.484   0.668  10.665
50147SOL    HW252339   3.434   0.703  10.804
50148SOL     OW52340   8.633   7.591   1.246
50148SOL    HW152341   8.716   7.618   1.287
50148SOL    HW252342   8.642   7.620   1.155
50149SOL     OW52343   8.275  13.277  13.378
50149SOL    HW152344   8.365  13.247  13.392
50149SOL    HW252345   8.277  13.370  13.401
50150SOL     OW52346   7.697   2.961   0.005
50150SOL    HW152347   7.725   2.966  14.785
50150SOL    HW252348   7.762   3.013   0.053
50151SOL     OW52349   3.385   8.949   0.729
50151SOL    HW152350   3.418   8.862   0.708
50151SOL    HW252351   3.460   8.996   0.764
50152SOL     OW52352   4.796  12.033  14.730
50152SOL    HW152353   4.792  11.967  14.800
50152SOL    HW252354   4.748  12.108  14.765
50153SOL     OW52355   6.969   5.955  13.512
50153SOL    HW152356   6.880   5.934  13.484
50153SOL    HW252357   6.959   5.988  13.602
50154SOL     OW52358   7.860   7.324  11.091
50154SOL    HW152359   7.766   7.340  11.093
50154SOL    HW252360   7.869   7.229  11.093
50155SOL     OW52361   0.511  11.303  13.473
50155SOL    HW152362   0.478  11.253  13.399
50155SOL    HW252363   0.510  11.394  13.443
50156SOL     OW52364  10.246   3.197   9.692
50156SOL    HW152365  10.177   3.253   9.728
50156SOL    HW252366  10.278   3.245   9.615
50157SOL     OW52367  11.811  14.138  14.130
50157SOL    HW152368  11.802  14.049  14.096
50157SOL    HW252369  11.883  14.175  14.079
50158SOL     OW52370  14.141  13.168  13.060
50158SOL    HW152371  14.085  13.118  13.120
50158SOL    HW252372  14.170  13.103  12.996
50159SOL     OW52373  10.389   9.017  12.968
50159SOL    HW152374  10.314   8.967  13.001
50159SOL    HW252375  10.405   8.982  12.880
50160SOL     OW52376   3.747   1.488   7.421
50160SOL    HW152377   3.670   1.512   7.369
50160SOL    HW252378   3.729   1.524   7.508
50161SOL     OW52379  12.717  10.227  14.050
50161SOL    HW152380  12.744  10.135  14.059
50161SOL    HW252381  12.664  10.228  13.970
50162SOL     OW52382  11.616   3.997   3.155
50162SOL    HW152383  11.615   4.010   3.250
50162SOL    HW252384  11.524   3.996   3.130
50163SOL     OW52385  13.645   7.070  10.979
50163SOL    HW152386  13.568   7.086  10.923
50163SOL    HW252387  13.699   7.009  10.929
50164SOL     OW52388   2.174  14.645   8.468
50164SOL    HW152389   2.181  14.584   8.394
50164SOL    HW252390   2.086  14.682   8.459
50165SOL     OW52391  10.760   2.163   7.419
50165SOL    HW152392  10.738   2.089   7.475
50165SOL    HW252393  10.838   2.133   7.371
50166SOL     OW52394   4.064  13.912   9.824
50166SOL    HW152395   3.978  13.953   9.814
50166SOL    HW252396   4.115  13.978   9.872
50167SOL     OW52397   5.377   5.300   0.950
50167SOL    HW152398   5.415   5.378   0.991
50167SOL    HW252399   5.440   5.276   0.882
50168SOL     OW52400   8.212   9.602   5.776
50168SOL    HW152401   8.154   9.619   5.702
50168SOL    HW252402   8.300   9.623   5.743
50169SOL     OW52403   7.515   7.434   2.936
50169SOL    HW152404   7.428   7.428   2.976
50169SOL    HW252405   7.509   7.382   2.856
50170SOL     OW52406   7.314  12.015   5.613
50170SOL    HW152407   7.307  11.960   5.534
50170SOL    HW252408   7.340  11.954   5.682
50171SOL     OW52409  13.667   4.830   3.942
50171SOL    HW152410  13.714   4.747   3.948
50171SOL    HW252411  13.629   4.830   3.854
50172SOL     OW52412   7.480  13.704   4.371
50172SOL    HW152413   7.520  13.644   4.433
50172SOL    HW252414   7.459  13.782   4.423
50173SOL     OW52415   2.715   3.822   3.795
50173SOL    HW152416   2.640   3.841   3.738
50173SOL    HW252417   2.684   3.843   3.883
50174SOL     OW52418  14.663   5.005   7.751
50174SOL    HW152419  14.743   5.058   7.741
50174SOL    HW252420  14.610   5.055   7.813
50175SOL     OW52421   8.907   2.619   6.982
50175SOL    HW152422   8.841   2.569   7.030
50175SOL    HW252423   8.921   2.698   7.034
50176SOL     OW52424   0.493   6.392  13.301
50176SOL    HW152425   0.489   6.345  13.385
50176SOL    HW252426   0.586   6.410  13.289
50177SOL     OW52427   4.457  11.976  10.110
50177SOL    HW152428   4.542  12.017  10.124
50177SOL    HW252429   4.429  11.947  10.197
50178SOL     OW52430   7.623  10.751   0.831
50178SOL    HW152431   7.652  10.842   0.822
50178SOL    HW252432   7.535  10.757   0.868
50179SOL     OW52433   2.432   0.977   0.164
50179SOL    HW152434   2.478   1.060   0.179
50179SOL    HW252435   2.349   1.003   0.123
50180SOL     OW52436   3.972   1.340   6.803
50180SOL    HW152437   3.910   1.354   6.874
50180SOL    HW252438   3.928   1.376   6.725
50181SOL     OW52439  12.405   5.769  10.263
50181SOL    HW152440  12.367   5.703  10.321
50181SOL    HW252441  12.377   5.853  10.300
50182SOL     OW52442   1.597  11.547   4.175
50182SOL    HW152443   1.516  11.556   4.225
50182SOL    HW252444   1.604  11.453   4.159
50183SOL     OW52445   8.217   7.171  12.378
50183SOL    HW152446   8.128   7.189  12.346
50183SOL    HW252447   8.219   7.213  12.464
50184SOL     OW52448   4.384   4.363  11.229
50184SOL    HW152449   4.424   4.398  11.149
50184SOL    HW252450   4.433   4.282  11.247
50185SOL     OW52451   8.742   5.787  13.707
50185SOL    HW152452   8.729   5.760  13.616
50185SOL    HW252453   8.757   5.882  13.702
50186SOL     OW52454   6.457   1.010   4.095
50186SOL    HW152455   6.388   1.072   4.118
50186SOL    HW252456   6.438   0.933   4.150
50187SOL     OW52457  14.222  11.208   8.651
50187SOL    HW152458  14.272  11.217   8.732
50187SOL    HW252459  14.247  11.284   8.599
50188SOL     OW52460  11.110  13.342  11.199
50188SOL    HW152461  11.107  13.396  11.120
50188SOL    HW252462  11.098  13.403  11.271
50189SOL     OW52463   5.034   2.548   7.172
50189SOL    HW152464   5.121   2.508   7.175
50189SOL    HW252465   5.038   2.611   7.101
50190SOL     OW52466   3.039   5.315  12.830
50190SOL    HW152467   3.026   5.406  12.860
50190SOL    HW252468   3.077   5.324  12.743
50191SOL     OW52469  11.148  10.893   7.396
50191SOL    HW152470  11.070  10.838   7.396
50191SOL    HW252471  11.134  10.954   7.324
50192SOL     OW52472   0.702  10.921   1.394
50192SOL    HW152473   0.611  10.898   1.374
50192SOL    HW252474   0.724  10.866   1.470
50193SOL     OW52475   3.277   7.051  12.583
50193SOL    HW152476   3.296   7.034  12.675
50193SOL    HW252477   3.349   7.107  12.553
50194SOL     OW52478   0.463  11.663   0.835
50194SOL    HW152479   0.488  11.684   0.745
50194SOL    HW252480   0.368  11.675   0.837
50195SOL     OW52481   2.186  11.391  10.675
50195SOL    HW152482   2.105  11.425  10.714
50195SOL    HW252483   2.241  11.370  10.751
50196SOL     OW52484   5.483   7.582   8.684
50196SOL    HW152485   5.495   7.535   8.602
50196SOL    HW252486   5.437   7.663   8.660
50197SOL     OW52487  12.102   1.014   1.426
50197SOL    HW152488  12.087   0.990   1.334
50197SOL    HW252489  12.052   0.950   1.476
50198SOL     OW52490   3.859   3.846  11.149
50198SOL    HW152491   3.826   3.859  11.060
50198SOL    HW252492   3.785   3.812  11.198
50199SOL     OW52493   5.507   7.114  14.468
50199SOL    HW152494   5.591   7.072  14.486
50199SOL    HW252495   5.529   7.190  14.414
50200SOL     OW52496   6.665  12.792  13.124
50200SOL    HW152497   6.698  12.816  13.038
50200SOL    HW252498   6.577  12.830  13.128
50201SOL     OW52499  12.257   8.930  14.860
50201SOL    HW152500  12.303   8.977  14.791
50201SOL    HW252501  12.191   8.877  14.814
50202SOL     OW52502  10.676  13.025   5.605
50202SOL    HW152503  10.768  13.039   5.625
50202SOL    HW252504  10.676  12.960   5.534
50203SOL     OW52505  13.032   0.857  12.032
50203SOL    HW152506  12.989   0.939  12.053
50203SOL    HW252507  13.121   0.867  12.064
50204SOL     OW52508   2.726  10.718   8.112
50204SOL    HW152509   2.805  10.753   8.154
50204SOL    HW252510   2.708  10.636   8.158
50205SOL     OW52511   6.850   6.255  12.219
50205SOL    HW152512   6.885   6.340  12.243
50205SOL    HW252513   6.927   6.198  12.215
50206SOL     OW52514   2.185   9.885   4.904
50206SOL    HW152515   2.247   9.877   4.975
50206SOL    HW252516   2.205   9.970   4.864
50207SOL     OW52517  12.894   5.984  10.768
50207SOL    HW152518  12.853   6.060  10.810
50207SOL    HW252519  12.979   5.976  10.811
50208SOL     OW52520  13.831   1.679   9.655
50208SOL    HW152521  13.739   1.652   9.654
50208SOL    HW252522  13.833   1.759   9.706
50209SOL     OW52523  10.773   7.768   4.075
50209SOL    HW152524  10.829   7.835   4.036
50209SOL    HW252525  10.686   7.807   4.076
50210SOL     OW52526   3.416   7.082  10.441
50210SOL    HW152527   3.380   7.169  10.461
50210SOL    HW252528   3.490   7.099  10.383
50211SOL     OW52529   6.514   3.169   3.239
50211SOL    HW152530   6.436   3.153   3.292
50211SOL    HW252531   6.565   3.233   3.289
50212SOL     OW52532  10.598  12.684  10.926
50212SOL    HW152533  10.682  12.660  10.966
50212SOL    HW252534  10.615  12.682  10.832
50213SOL     OW52535  13.157  13.049   4.988
50213SOL    HW152536  13.104  12.991   4.934
50213SOL    HW252537  13.206  12.991   5.045
50214SOL     OW52538   9.823   5.095   7.600
50214SOL    HW152539   9.789   5.163   7.542
50214SOL    HW252540   9.893   5.137   7.648
50215SOL     OW52541   0.514   0.967  14.405
50215SOL    HW152542   0.552   0.893  14.452
50215SOL    HW252543   0.486   1.028  14.474
50216SOL     OW52544   2.369   5.851  12.676
50216SOL    HW152545   2.460   5.863  12.704
50216SOL    HW252546   2.373   5.854  12.580
50217SOL     OW52547   5.590  14.257   4.070
50217SOL    HW152548   5.596  14.171   4.112
50217SOL    HW252549   5.679  14.275   4.040
50218SOL     OW52550  12.817  10.166   9.135
50218SOL    HW152551  12.779  10.080   9.117
50218SOL    HW252552  12.751  10.211   9.186
50219SOL     OW52553   5.273  10.585   5.730
50219SOL    HW152554   5.317  10.651   5.677
50219SOL    HW252555   5.306  10.599   5.819
50220SOL     OW52556   0.962  13.527   5.487
50220SOL    HW152557   0.932  13.617   5.473
50220SOL    HW252558   0.979  13.521   5.581
50221SOL     OW52559   3.972   7.256  14.057
50221SOL    HW152560   3.895   7.225  14.009
50221SOL    HW252561   4.038   7.273  13.989
50222SOL     OW52562  11.824   8.471   3.597
50222SOL    HW152563  11.793   8.385   3.569
50222SOL    HW252564  11.904   8.486   3.548
50223SOL     OW52565   9.286   8.881  14.501
50223SOL    HW152566   9.230   8.904  14.576
50223SOL    HW252567   9.329   8.963  14.477
50224SOL     OW52568   7.493   5.774   7.904
50224SOL    HW152569   7.510   5.868   7.904
50224SOL    HW252570   7.397   5.767   7.906
50225SOL     OW52571   6.072   7.692   4.740
50225SOL    HW152572   6.146   7.656   4.692
50225SOL    HW252573   6.014   7.727   4.672
50226SOL     OW52574   1.359   8.748  12.720
50226SOL    HW152575   1.425   8.754  12.788
50226SOL    HW252576   1.347   8.839  12.690
50227SOL     OW52577   2.498   1.469   1.535
50227SOL    HW152578   2.425   1.442   1.479
50227SOL    HW252579   2.558   1.395   1.532
50228SOL     OW52580   5.028   1.426   0.297
50228SOL    HW152581   4.991   1.483   0.229
50228SOL    HW252582   5.108   1.391   0.258
50229SOL     OW52583   7.558   2.542   0.051
50229SOL    HW152584   7.585   2.503   0.134
50229SOL    HW252585   7.561   2.471  14.859
50230SOL     OW52586   1.824   9.929   5.712
50230SOL    HW152587   1.833  10.022   5.690
50230SOL    HW252588   1.867   9.883   5.640
50231SOL     OW52589  12.651   0.685  11.771
50231SOL    HW152590  12.620   0.621  11.707
50231SOL    HW252591  12.615   0.655  11.855
50232SOL     OW52592  11.790  10.641  12.595
50232SOL    HW152593  11.828  10.562  12.633
50232SOL    HW252594  11.848  10.712  12.623
50233SOL     OW52595  11.477   4.947   4.788
50233SOL    HW152596  11.548   4.899   4.831
50233SOL    HW252597  11.408   4.952   4.853
50234SOL     OW52598   6.475   0.003   6.291
50234SOL    HW152599   6.447  14.790   6.258
50234SOL    HW252600   6.398   0.039   6.335
50235SOL     OW52601  12.842   5.991   2.272
50235SOL    HW152602  12.800   6.077   2.276
50235SOL    HW252603  12.784   5.938   2.216
50236SOL     OW52604  11.473   3.271   3.683
50236SOL    HW152605  11.489   3.342   3.744
50236SOL    HW252606  11.434   3.314   3.606
50237SOL     OW52607  13.796  13.801   9.878
50237SOL    HW152608  13.724  13.793   9.941
50237SOL    HW252609  13.825  13.892   9.885
50238SOL     OW52610  11.300   5.704   7.909
50238SOL    HW152611  11.353   5.650   7.968
50238SOL    HW252612  11.271   5.778   7.963
50239SOL     OW52613   7.882   2.317   9.512
50239SOL    HW152614   7.914   2.366   9.587
50239SOL    HW252615   7.835   2.242   9.550
50240SOL     OW52616   8.086  13.397   0.077
50240SOL    HW152617   8.052  13.315   0.042
50240SOL    HW252618   8.066  13.393   0.171
50241SOL     OW52619   2.003   5.653   6.885
50241SOL    HW152620   2.066   5.582   6.874
50241SOL    HW252621   1.944   5.622   6.953
50242SOL     OW52622  14.162   6.229   6.013
50242SOL    HW152623  14.191   6.139   6.026
50242SOL    HW252624  14.165   6.242   5.918
50243SOL     OW52625   1.318   9.714  13.645
50243SOL    HW152626   1.395   9.679  13.689
50243SOL    HW252627   1.319   9.808  13.665
50244SOL     OW52628   1.407  13.384   1.184
50244SOL    HW152629   1.329  13.328   1.186
50244SOL    HW252630   1.478  13.325   1.159
50245SOL     OW52631   3.602   1.229  11.177
50245SOL    HW152632   3.644   1.243  11.092
50245SOL    HW252633   3.666   1.262  11.240
50246SOL     OW52634   6.570   4.341   5.733
50246SOL    HW152635   6.585   4.337   5.828
50246SOL    HW252636   6.475   4.331   5.724
50247SOL     OW52637   3.028   3.361   3.508
50247SOL    HW152638   3.110   3.372   3.556
50247SOL    HW252639   3.020   3.266   3.497
50248SOL     OW52640   3.401  12.104  11.516
50248SOL    HW152641   3.375  12.188  11.479
50248SOL    HW252642   3.493  12.094  11.490
50249SOL     OW52643  11.891   8.185  13.002
50249SOL    HW152644  11.942   8.240  12.943
50249SOL    HW252645  11.948   8.171  13.078
50250SOL     OW52646   8.941   6.267   5.522
50250SOL    HW152647   8.926   6.307   5.436
50250SOL    HW252648   8.879   6.312   5.580
50251SOL     OW52649  14.108   5.756  14.560
50251SOL    HW152650  14.067   5.817  14.499
50251SOL    HW252651  14.175   5.808  14.605
50252SOL     OW52652   0.391   7.638   1.496
50252SOL    HW152653   0.459   7.622   1.562
50252SOL    HW252654   0.314   7.663   1.547
50253SOL     OW52655  10.382   1.339  13.282
50253SOL    HW152656  10.289   1.361  13.282
50253SOL    HW252657  10.398   1.301  13.369
50254SOL     OW52658   8.503  12.543   0.148
50254SOL    HW152659   8.447  12.550   0.071
50254SOL    HW252660   8.444  12.519   0.219
50255SOL     OW52661  10.223   8.919  10.583
50255SOL    HW152662  10.270   8.909  10.500
50255SOL    HW252663  10.265   8.994  10.625
50256SOL     OW52664   5.165  12.361  14.062
50256SOL    HW152665   5.157  12.267  14.045
50256SOL    HW252666   5.159  12.401  13.975
50257SOL     OW52667   9.558   5.800  14.449
50257SOL    HW152668   9.559   5.753  14.365
50257SOL    HW252669   9.560   5.892  14.424
50258SOL     OW52670   6.540   0.259   8.864
50258SOL    HW152671   6.480   0.255   8.938
50258SOL    HW252672   6.500   0.202   8.798
50259SOL     OW52673   1.373   8.996  13.959
50259SOL    HW152674   1.451   8.989  14.015
50259SOL    HW252675   1.300   8.980  14.019
50260SOL     OW52676   9.843   8.213  12.343
50260SOL    HW152677   9.925   8.186  12.302
50260SOL    HW252678   9.776   8.157  12.304
50261SOL     OW52679  14.292   3.852   7.426
50261SOL    HW152680  14.252   3.846   7.513
50261SOL    HW252681  14.262   3.774   7.380
50262SOL     OW52682   3.950  10.587   9.900
50262SOL    HW152683   4.004  10.509   9.884
50262SOL    HW252684   4.009  10.648   9.944
50263SOL     OW52685   1.147  11.326   4.172
50263SOL    HW152686   1.091  11.401   4.191
50263SOL    HW252687   1.214  11.327   4.241
50264SOL     OW52688   4.295   2.155   0.104
50264SOL    HW152689   4.336   2.189   0.024
50264SOL    HW252690   4.225   2.217   0.123
50265SOL     OW52691  13.875  13.480   5.290
50265SOL    HW152692  13.910  13.490   5.379
50265SOL    HW252693  13.950  13.449   5.239
50266SOL     OW52694  10.858   6.393  11.541
50266SOL    HW152695  10.912   6.337  11.597
50266SOL    HW252696  10.870   6.481  11.577
50267SOL     OW52697  10.339   4.517   8.326
50267SOL    HW152698  10.247   4.501   8.304
50267SOL    HW252699  10.345   4.495   8.419
50268SOL     OW52700   6.627  12.287   1.806
50268SOL    HW152701   6.593  12.218   1.862
50268SOL    HW252702   6.612  12.368   1.856
50269SOL     OW52703  14.245   5.900   7.492
50269SOL    HW152704  14.318   5.841   7.512
50269SOL    HW252705  14.168   5.844   7.493
50270SOL     OW52706   4.375   2.936   5.153
50270SOL    HW152707   4.465   2.903   5.144
50270SOL    HW252708   4.321   2.868   5.115
50271SOL     OW52709   5.207   1.778   3.221
50271SOL    HW152710   5.118   1.763   3.254
50271SOL    HW252711   5.240   1.690   3.203
50272SOL     OW52712  13.329  11.537   7.742
50272SOL    HW152713  13.391  11.494   7.800
50272SOL    HW252714  13.312  11.622   7.783
50273SOL     OW52715   6.804   6.798  13.970
50273SOL    HW152716   6.731   6.741  13.997
50273SOL    HW252717   6.783   6.883  14.009
50274SOL     OW52718  11.322   1.443   1.091
50274SOL    HW152719  11.407   1.482   1.114
50274SOL    HW252720  11.312   1.463   0.998
50275SOL     OW52721  10.760   4.627  12.827
50275SOL    HW152722  10.776   4.585  12.912
50275SOL    HW252723  10.708   4.704  12.849
50276SOL     OW52724  14.278  14.137  10.203
50276SOL    HW152725  14.288  14.232  10.206
50276SOL    HW252726  14.366  14.103  10.221
50277SOL     OW52727   4.887   4.282   1.558
50277SOL    HW152728   4.793   4.293   1.548
50277SOL    HW252729   4.897   4.213   1.624
50278SOL     OW52730  10.067   4.464  12.400
50278SOL    HW152731  10.149   4.466  12.449
50278SOL    HW252732  10.045   4.556  12.385
50279SOL     OW52733  11.339   8.850   4.142
50279SOL    HW152734  11.346   8.942   4.167
50279SOL    HW252735  11.346   8.851   4.046
50280SOL     OW52736   4.020  12.428   4.333
50280SOL    HW152737   4.053  12.372   4.403
50280SOL    HW252738   4.085  12.498   4.326
50281SOL     OW52739  14.700  10.181   6.368
50281SOL    HW152740  14.743  10.257   6.407
50281SOL    HW252741  14.731  10.107   6.420
50282SOL     OW52742  11.208   0.238   0.646
50282SOL    HW152743  11.122   0.269   0.676
50282SOL    HW252744  11.187   0.167   0.585
50283SOL     OW52745   8.018  12.359  10.169
50283SOL    HW152746   8.050  12.329  10.254
50283SOL    HW252747   8.068  12.438  10.151
50284SOL     OW52748   4.517   8.975   7.649
50284SOL    HW152749   4.516   9.038   7.577
50284SOL    HW252750   4.498   9.028   7.727
50285SOL     OW52751  10.079   6.673  14.602
50285SOL    HW152752  10.006   6.649  14.545
50285SOL    HW252753  10.057   6.635  14.687
50286SOL     OW52754  10.143   9.870   3.011
50286SOL    HW152755  10.150   9.956   3.053
50286SOL    HW252756  10.101   9.814   3.077
50287SOL     OW52757  10.773   7.390   4.380
50287SOL    HW152758  10.838   7.439   4.429
50287SOL    HW252759  10.790   7.413   4.288
50288SOL     OW52760   0.857   7.359   1.353
50288SOL    HW152761   0.941   7.400   1.331
50288SOL    HW252762   0.866   7.269   1.323
50289SOL     OW52763   0.698  13.159   5.104
50289SOL    HW152764   0.770  13.165   5.041
50289SOL    HW252765   0.667  13.249   5.115
50290SOL     OW52766  13.560   4.618   2.192
50290SOL    HW152767  13.490   4.659   2.243
50290SOL    HW252768  13.601   4.556   2.253
50291SOL     OW52769  13.801   2.019   3.776
50291SOL    HW152770  13.784   2.080   3.704
50291SOL    HW252771  13.878   1.969   3.747
50292SOL     OW52772  12.006   2.372  13.108
50292SOL    HW152773  11.993   2.429  13.032
50292SOL    HW252774  12.093   2.335  13.095
50293SOL     OW52775   6.790  13.993   7.713
50293SOL    HW152776   6.706  13.959   7.683
50293SOL    HW252777   6.854  13.929   7.682
50294SOL     OW52778   2.367   7.715   5.367
50294SOL    HW152779   2.291   7.720   5.425
50294SOL    HW252780   2.431   7.663   5.416
50295SOL     OW52781   8.338  11.606   4.246
50295SOL    HW152782   8.365  11.657   4.322
50295SOL    HW252783   8.287  11.667   4.192
50296SOL     OW52784  12.453   4.910   1.802
50296SOL    HW152785  12.489   4.976   1.741
50296SOL    HW252786  12.432   4.960   1.881
50297SOL     OW52787  11.318   7.261   5.018
50297SOL    HW152788  11.251   7.326   5.038
50297SOL    HW252789  11.370   7.300   4.947
50298SOL     OW52790   1.673   2.274  10.970
50298SOL    HW152791   1.600   2.313  10.923
50298SOL    HW252792   1.638   2.191  11.003
50299SOL     OW52793   2.069   1.534   6.110
50299SOL    HW152794   2.002   1.586   6.065
50299SOL    HW252795   2.133   1.513   6.041
50300SOL     OW52796   8.995  11.313  11.240
50300SOL    HW152797   8.968  11.222  11.244
50300SOL    HW252798   8.961  11.344  11.156
50301SOL     OW52799   6.459   7.354   4.393
50301SOL    HW152800   6.546   7.313   4.392
50301SOL    HW252801   6.438   7.361   4.486
50302SOL     OW52802  10.597   7.963   1.270
50302SOL    HW152803  10.571   8.034   1.328
50302SOL    HW252804  10.654   7.907   1.323
50303SOL     OW52805  13.005   7.076   4.319
50303SOL    HW152806  13.039   7.028   4.244
50303SOL    HW252807  13.081   7.120   4.355
50304SOL     OW52808  10.600   8.340  12.316
50304SOL    HW152809  10.648   8.261  12.293
50304SOL    HW252810  10.531   8.346  12.251
50305SOL     OW52811  13.915  12.282   7.205
50305SOL    HW152812  13.863  12.356   7.236
50305SOL    HW252813  13.860  12.240   7.139
50306SOL     OW52814   6.961   4.704   0.136
50306SOL    HW152815   6.978   4.756   0.213
50306SOL    HW252816   6.885   4.650   0.160
50307SOL     OW52817  14.810  10.904   9.118
50307SOL    HW152818  14.865  10.837   9.158
50307SOL    HW252819  14.721  10.869   9.121
50308SOL     OW52820   4.178   9.987   4.647
50308SOL    HW152821   4.259  10.035   4.666
50308SOL    HW252822   4.141   9.969   4.733
50309SOL     OW52823  10.177   3.104   7.337
50309SOL    HW152824  10.271   3.121   7.347
50309SOL    HW252825  10.150   3.068   7.422
50310SOL     OW52826  11.212   8.566   5.458
50310SOL    HW152827  11.161   8.641   5.426
50310SOL    HW252828  11.301   8.582   5.424
50311SOL     OW52829  12.179  13.300   5.663
50311SOL    HW152830  12.099  13.317   5.712
50311SOL    HW252831  12.148  13.259   5.582
50312SOL     OW52832   6.523   2.532   7.612
50312SOL    HW152833   6.434   2.510   7.585
50312SOL    HW252834   6.553   2.596   7.547
50313SOL     OW52835   7.376   5.893  13.450
50313SOL    HW152836   7.357   5.806  13.417
50313SOL    HW252837   7.432   5.879  13.526
50314SOL     OW52838   8.394  13.179  11.218
50314SOL    HW152839   8.399  13.275  11.220
50314SOL    HW252840   8.474  13.150  11.261
50315SOL     OW52841   6.744  13.431  11.937
50315SOL    HW152842   6.723  13.387  11.855
50315SOL    HW252843   6.757  13.360  12.000
50316SOL     OW52844  10.572   1.612   6.653
50316SOL    HW152845  10.490   1.651   6.622
50316SOL    HW252846  10.586   1.652   6.739
50317SOL     OW52847   3.851   7.340   7.097
50317SOL    HW152848   3.823   7.402   7.031
50317SOL    HW252849   3.806   7.368   7.177
50318SOL     OW52850  12.184  13.404  12.314
50318SOL    HW152851  12.131  13.469  12.360
50318SOL    HW252852  12.125  13.329  12.302
50319SOL     OW52853   9.628   9.605   6.004
50319SOL    HW152854   9.669   9.521   6.024
50319SOL    HW252855   9.672   9.668   6.061
50320SOL     OW52856   0.916   9.069  11.121
50320SOL    HW152857   0.830   9.070  11.078
50320SOL    HW252858   0.955   8.986  11.093
50321SOL     OW52859  13.394   4.840  14.007
50321SOL    HW152860  13.360   4.854  13.919
50321SOL    HW252861  13.479   4.884  14.007
50322SOL     OW52862   2.274   7.031   3.077
50322SOL    HW152863   2.323   7.022   2.996
50322SOL    HW252864   2.236   6.944   3.091
50323SOL     OW52865   1.158   7.223   5.454
50323SOL    HW152866   1.101   7.286   5.499
50323SOL    HW252867   1.203   7.177   5.524
50324SOL     OW52868  10.096  14.507   4.997
50324SOL    HW152869  10.077  14.550   5.080
50324SOL    HW252870  10.172  14.554   4.963
50325SOL     OW52871  13.452   9.471   6.036
50325SOL    HW152872  13.385   9.426   5.985
50325SOL    HW252873  13.450   9.561   6.003
50326SOL     OW52874   1.535   3.443   6.208
50326SOL    HW152875   1.526   3.536   6.189
50326SOL    HW252876   1.629   3.429   6.219
50327SOL     OW52877   2.355   1.495   3.088
50327SOL    HW152878   2.331   1.497   2.996
50327SOL    HW252879   2.444   1.530   3.091
50328SOL     OW52880   5.919   6.400  13.999
50328SOL    HW152881   5.969   6.478  14.023
50328SOL    HW252882   5.835   6.412  14.044
50329SOL     OW52883   6.293   2.874  13.157
50329SOL    HW152884   6.215   2.922  13.184
50329SOL    HW252885   6.259   2.796  13.113
50330SOL     OW52886   8.790   1.843  14.691
50330SOL    HW152887   8.702   1.860  14.723
50330SOL    HW252888   8.814   1.922  14.642
50331SOL     OW52889   0.077  11.010   5.191
50331SOL    HW152890   0.061  10.948   5.120
50331SOL    HW252891   0.144  11.069   5.158
50332SOL     OW52892  11.077   1.410   8.820
50332SOL    HW152893  10.991   1.422   8.781
50332SOL    HW252894  11.095   1.491   8.867
50333SOL     OW52895   1.301   4.531   2.225
50333SOL    HW152896   1.268   4.512   2.313
50333SOL    HW252897   1.357   4.608   2.237
50334SOL     OW52898  10.659  10.838   3.613
50334SOL    HW152899  10.570  10.827   3.578
50334SOL    HW252900  10.713  10.778   3.561
50335SOL     OW52901   3.353   2.187   6.577
50335SOL    HW152902   3.421   2.237   6.531
50335SOL    HW252903   3.294   2.254   6.612
50336SOL     OW52904  12.853   8.212  12.162
50336SOL    HW152905  12.886   8.161  12.088
50336SOL    HW252906  12.910   8.288  12.166
50337SOL     OW52907   7.967   3.024   0.937
50337SOL    HW152908   8.047   2.985   0.972
50337SOL    HW252909   7.902   2.955   0.944
50338SOL     OW52910  10.746   8.289   9.455
50338SOL    HW152911  10.813   8.300   9.387
50338SOL    HW252912  10.744   8.374   9.500
50339SOL     OW52913   8.668   9.991  10.196
50339SOL    HW152914   8.601  10.014  10.131
50339SOL    HW252915   8.734   9.944  10.146
50340SOL     OW52916  13.217  11.413   8.825
50340SOL    HW152917  13.255  11.378   8.744
50340SOL    HW252918  13.158  11.344   8.856
50341SOL     OW52919   6.315  14.044   5.280
50341SOL    HW152920   6.342  14.059   5.189
50341SOL    HW252921   6.379  13.982   5.314
50342SOL     OW52922  11.863   7.775   7.482
50342SOL    HW152923  11.853   7.694   7.433
50342SOL    HW252924  11.790   7.775   7.544
50343SOL     OW52925  14.578   6.633   4.021
50343SOL    HW152926  14.504   6.574   4.007
50343SOL    HW252927  14.565   6.705   3.959
50344SOL     OW52928   5.939   5.459   1.648
50344SOL    HW152929   6.010   5.464   1.584
50344SOL    HW252930   5.904   5.548   1.653
50345SOL     OW52931   8.789   0.420  13.202
50345SOL    HW152932   8.811   0.476  13.127
50345SOL    HW252933   8.813   0.332  13.173
50346SOL     OW52934   6.131   1.427   7.481
50346SOL    HW152935   6.063   1.489   7.455
50346SOL    HW252936   6.160   1.458   7.567
50347SOL     OW52937   3.388   0.032   5.090
50347SOL    HW152938   3.455   0.058   5.154
50347SOL    HW252939   3.371   0.112   5.041
50348SOL     OW52940   8.450   8.082   7.968
50348SOL    HW152941   8.455   8.170   8.005
50348SOL    HW252942   8.451   8.095   7.874
50349SOL     OW52943  11.653   6.479   0.661
50349SOL    HW152944  11.610   6.426   0.728
50349SOL    HW252945  11.727   6.520   0.707
50350SOL     OW52946   4.230   5.449   4.672
50350SOL    HW152947   4.228   5.372   4.616
50350SOL    HW252948   4.245   5.415   4.760
50351SOL     OW52949   3.397  11.524   2.794
50351SOL    HW152950   3.426  11.470   2.721
50351SOL    HW252951   3.462  11.508   2.863
50352SOL     OW52952   7.034  10.733   7.935
50352SOL    HW152953   7.078  10.663   7.983
50352SOL    HW252954   6.943  10.704   7.927
50353SOL     OW52955   8.758  13.858   4.282
50353SOL    HW152956   8.827  13.924   4.288
50353SOL    HW252957   8.721  13.870   4.195
50354SOL     OW52958  11.882  10.028   0.296
50354SOL    HW152959  11.922   9.946   0.324
50354SOL    HW252960  11.955  10.080   0.260
50355SOL     OW52961   8.300   9.567  12.042
50355SOL    HW152962   8.257   9.652  12.029
50355SOL    HW252963   8.310   9.532  11.954
50356SOL     OW52964  13.837   7.522   3.559
50356SOL    HW152965  13.750   7.491   3.584
50356SOL    HW252966  13.862   7.466   3.486
50357SOL     OW52967  13.389  13.995   7.902
50357SOL    HW152968  13.451  13.927   7.930
50357SOL    HW252969  13.397  14.063   7.969
50358SOL     OW52970   5.953   3.857   9.385
50358SOL    HW152971   5.988   3.768   9.376
50358SOL    HW252972   5.919   3.860   9.474
50359SOL     OW52973  11.080  11.251  14.358
50359SOL    HW152974  11.143  11.275  14.289
50359SOL    HW252975  11.011  11.203  14.311
50360SOL     OW52976   2.898   5.924   9.528
50360SOL    HW152977   2.849   5.937   9.447
50360SOL    HW252978   2.836   5.881   9.587
50361SOL     OW52979   2.922   5.562   4.010
50361SOL    HW152980   2.840   5.593   3.971
50361SOL    HW252981   2.897   5.532   4.097
50362SOL     OW52982   9.329   8.514   4.742
50362SOL    HW152983   9.350   8.607   4.732
50362SOL    HW252984   9.257   8.513   4.805
50363SOL     OW52985   5.128   9.043   0.511
50363SOL    HW152986   5.036   9.019   0.518
50363SOL    HW252987   5.128   9.137   0.492
50364SOL     OW52988   0.384   8.576   9.572
50364SOL    HW152989   0.444   8.515   9.615
50364SOL    HW252990   0.297   8.544   9.595
50365SOL     OW52991   0.763   2.641   8.131
50365SOL    HW152992   0.688   2.667   8.184
50365SOL    HW252993   0.726   2.582   8.065
50366SOL     OW52994   5.571   2.413   6.832
50366SOL    HW152995   5.549   2.505   6.847
50366SOL    HW252996   5.489   2.366   6.849
50367SOL     OW52997  11.012   5.061  10.303
50367SOL    HW152998  10.979   5.150  10.317
50367SOL    HW252999  11.059   5.041  10.384
50368SOL     OW53000   4.468   4.352   6.226
50368SOL    HW153001   4.424   4.273   6.196
50368SOL    HW253002   4.438   4.364   6.316
50369SOL     OW53003   3.489   4.406   9.235
50369SOL    HW153004   3.520   4.459   9.309
50369SOL    HW253005   3.415   4.456   9.199
50370SOL     OW53006  10.542   7.639   7.023
50370SOL    HW153007  10.525   7.717   6.970
50370SOL    HW253008  10.468   7.581   7.003
50371SOL     OW53009   1.591   4.043  10.088
50371SOL    HW153010   1.575   4.033   9.994
50371SOL    HW253011   1.532   3.981  10.130
50372SOL     OW53012   5.810   0.978  12.087
50372SOL    HW153013   5.725   1.010  12.055
50372SOL    HW253014   5.866   1.056  12.086
50373SOL     OW53015   0.541   6.440   3.000
50373SOL    HW153016   0.543   6.463   3.093
50373SOL    HW253017   0.598   6.364   2.993
50374SOL     OW53018   4.465  11.193   9.323
50374SOL    HW153019   4.552  11.165   9.350
50374SOL    HW253020   4.462  11.286   9.346
50375SOL     OW53021   4.964   7.334   5.869
50375SOL    HW153022   4.916   7.321   5.951
50375SOL    HW253023   4.994   7.424   5.872
50376SOL     OW53024  14.485   8.977   0.734
50376SOL    HW153025  14.463   8.951   0.823
50376SOL    HW253026  14.403   9.008   0.697
50377SOL     OW53027   0.856   4.819   7.770
50377SOL    HW153028   0.859   4.846   7.862
50377SOL    HW253029   0.876   4.898   7.721
50378SOL     OW53030   3.037  10.770   2.165
50378SOL    HW153031   3.091  10.789   2.241
50378SOL    HW253032   3.099  10.749   2.096
50379SOL     OW53033  14.685   4.596   7.488
50379SOL    HW153034  14.684   4.564   7.578
50379SOL    HW253035  14.754   4.664   7.488
50380SOL     OW53036   2.350   5.223   3.142
50380SOL    HW153037   2.259   5.201   3.161
50380SOL    HW253038   2.394   5.218   3.226
50381SOL     OW53039   4.708  12.988  13.095
50381SOL    HW153040   4.799  12.982  13.064
50381SOL    HW253041   4.661  13.029  13.022
50382SOL     OW53042  10.108  14.870  12.279
50382SOL    HW153043  10.022  14.835  12.257
50382SOL    HW253044  10.090   0.072  12.337
50383SOL     OW53045  14.118  14.510  11.743
50383SOL    HW153046  14.116  14.525  11.837
50383SOL    HW253047  14.161  14.425  11.733
50384SOL     OW53048  10.985   9.513  10.186
50384SOL    HW153049  10.890   9.519  10.197
50384SOL    HW253050  11.019   9.507  10.275
50385SOL     OW53051  11.133   1.795  12.292
50385SOL    HW153052  11.127   1.865  12.358
50385SOL    HW253053  11.215   1.813  12.246
50386SOL     OW53054  10.520  10.016  11.193
50386SOL    HW153055  10.466   9.979  11.264
50386SOL    HW253056  10.527   9.945  11.129
50387SOL     OW53057   1.817   4.453   2.864
50387SOL    HW153058   1.888   4.467   2.802
50387SOL    HW253059   1.844   4.499   2.943
50388SOL     OW53060   3.003   5.679  13.513
50388SOL    HW153061   2.929   5.721  13.558
50388SOL    HW253062   3.079   5.701  13.566
50389SOL     OW53063   0.500  12.531   8.379
50389SOL    HW153064   0.410  12.512   8.352
50389SOL    HW253065   0.527  12.453   8.427
50390SOL     OW53066   3.023  11.560   7.127
50390SOL    HW153067   2.952  11.622   7.115
50390SOL    HW253068   3.096  11.614   7.158
50391SOL     OW53069  12.403  14.253   7.733
50391SOL    HW153070  12.401  14.348   7.749
50391SOL    HW253071  12.341  14.240   7.661
50392SOL     OW53072   9.839  13.123   5.429
50392SOL    HW153073   9.925  13.130   5.388
50392SOL    HW253074   9.821  13.212   5.461
50393SOL     OW53075   1.973  10.274   1.272
50393SOL    HW153076   1.933  10.323   1.344
50393SOL    HW253077   2.039  10.334   1.237
50394SOL     OW53078  10.548   8.024   5.654
50394SOL    HW153079  10.463   8.063   5.634
50394SOL    HW253080  10.611   8.094   5.637
50395SOL     OW53081   8.412   7.731   6.667
50395SOL    HW153082   8.317   7.730   6.684
50395SOL    HW253083   8.440   7.819   6.692
50396SOL     OW53084  10.878  12.871  10.887
50396SOL    HW153085  10.790  12.910  10.881
50396SOL    HW253086  10.878  12.827  10.972
50397SOL     OW53087   0.267  13.312   2.478
50397SOL    HW153088   0.315  13.233   2.503
50397SOL    HW253089   0.177  13.295   2.503
50398SOL     OW53090  12.142   8.809   5.924
50398SOL    HW153091  12.219   8.859   5.894
50398SOL    HW253092  12.092   8.871   5.976
50399SOL     OW53093   8.414   6.066  13.577
50399SOL    HW153094   8.358   6.076  13.501
50399SOL    HW253095   8.502   6.052  13.541
50400SOL     OW53096   7.834   7.600   4.240
50400SOL    HW153097   7.753   7.602   4.190
50400SOL    HW253098   7.818   7.539   4.311
50401SOL     OW53099  12.560   4.221  13.809
50401SOL    HW153100  12.628   4.265  13.758
50401SOL    HW253101  12.494   4.196  13.745
50402SOL     OW53102  12.340  11.546  10.402
50402SOL    HW153103  12.374  11.600  10.474
50402SOL    HW253104  12.331  11.607  10.329
50403SOL     OW53105   7.365   4.528  12.884
50403SOL    HW153106   7.413   4.448  12.861
50403SOL    HW253107   7.346   4.518  12.977
50404SOL     OW53108   3.295   9.851   6.285
50404SOL    HW153109   3.354   9.815   6.352
50404SOL    HW253110   3.230   9.900   6.335
50405SOL     OW53111   1.997   7.838   1.670
50405SOL    HW153112   2.015   7.888   1.590
50405SOL    HW253113   2.016   7.747   1.647
50406SOL     OW53114   5.922   8.250   7.291
50406SOL    HW153115   5.909   8.278   7.381
50406SOL    HW253116   5.905   8.155   7.293
50407SOL     OW53117  11.142   6.900   6.464
50407SOL    HW153118  11.193   6.981   6.468
50407SOL    HW253119  11.204   6.833   6.436
50408SOL     OW53120   3.021  10.504   9.873
50408SOL    HW153121   2.964  10.440   9.830
50408SOL    HW253122   3.030  10.575   9.810
50409SOL     OW53123   9.362   7.169  11.774
50409SOL    HW153124   9.444   7.164  11.823
50409SOL    HW253125   9.298   7.204  11.836
50410SOL     OW53126   3.888  14.820   3.907
50410SOL    HW153127   3.867  14.834   3.999
50410SOL    HW253128   3.875  14.726   3.894
50411SOL     OW53129  11.575   6.446   7.723
50411SOL    HW153130  11.496   6.497   7.740
50411SOL    HW253131  11.542   6.362   7.690
50412SOL     OW53132  13.798   3.176   0.325
50412SOL    HW153133  13.818   3.178   0.231
50412SOL    HW253134  13.858   3.241   0.363
50413SOL     OW53135  13.099  14.405   3.784
50413SOL    HW153136  13.013  14.368   3.802
50413SOL    HW253137  13.101  14.486   3.835
50414SOL     OW53138   9.619   8.226   5.738
50414SOL    HW153139   9.525   8.232   5.720
50414SOL    HW253140   9.639   8.304   5.790
50415SOL     OW53141  12.758   4.077   9.033
50415SOL    HW153142  12.666   4.102   9.023
50415SOL    HW253143  12.781   4.034   8.950
50416SOL     OW53144   0.310   5.371   8.913
50416SOL    HW153145   0.404   5.384   8.924
50416SOL    HW253146   0.270   5.449   8.951
50417SOL     OW53147   5.797   0.198   8.527
50417SOL    HW153148   5.808   0.109   8.494
50417SOL    HW253149   5.781   0.251   8.449
50418SOL     OW53150   7.974   9.819   2.673
50418SOL    HW153151   8.049   9.761   2.662
50418SOL    HW253152   7.965   9.829   2.767
50419SOL     OW53153   6.843   2.868   5.878
50419SOL    HW153154   6.868   2.960   5.870
50419SOL    HW253155   6.870   2.843   5.966
50420SOL     OW53156   2.249  12.979   7.697
50420SOL    HW153157   2.310  12.934   7.756
50420SOL    HW253158   2.304  13.042   7.649
50421SOL     OW53159   0.758   4.107  13.222
50421SOL    HW153160   0.741   4.162  13.299
50421SOL    HW253161   0.746   4.017  13.253
50422SOL     OW53162   1.254   6.130  11.300
50422SOL    HW153163   1.309   6.207  11.316
50422SOL    HW253164   1.244   6.089  11.386
50423SOL     OW53165  11.956   8.738   9.939
50423SOL    HW153166  11.948   8.653   9.982
50423SOL    HW253167  11.978   8.798  10.010
50424SOL     OW53168   2.573   5.246   7.300
50424SOL    HW153169   2.514   5.303   7.251
50424SOL    HW253170   2.543   5.158   7.281
50425SOL     OW53171  13.083   1.712   6.865
50425SOL    HW153172  13.147   1.644   6.842
50425SOL    HW253173  13.056   1.749   6.781
50426SOL     OW53174  10.302   4.555   6.292
50426SOL    HW153175  10.334   4.630   6.343
50426SOL    HW253176  10.372   4.537   6.229
50427SOL     OW53177  13.891   5.201  10.330
50427SOL    HW153178  13.977   5.238  10.350
50427SOL    HW253179  13.869   5.237  10.244
50428SOL     OW53180   9.987   0.327  11.992
50428SOL    HW153181  10.056   0.289  12.046
50428SOL    HW253182  10.001   0.289  11.905
50429SOL     OW53183   5.148  13.211   0.233
50429SOL    HW153184   5.127  13.291   0.184
50429SOL    HW253185   5.157  13.239   0.324
50430SOL     OW53186  12.633   9.510  12.462
50430SOL    HW153187  12.726   9.532  12.453
50430SOL    HW253188  12.595   9.530  12.376
50431SOL     OW53189   6.987   4.889   0.371
50431SOL    HW153190   7.066   4.925   0.412
50431SOL    HW253191   6.950   4.831   0.437
50432SOL     OW53192  10.048   3.516  13.313
50432SOL    HW153193  10.128   3.524  13.260
50432SOL    HW253194  10.044   3.598  13.362
50433SOL     OW53195   0.215   4.922  12.402
50433SOL    HW153196   0.206   4.991  12.468
50433SOL    HW253197   0.306   4.930  12.373
50434SOL     OW53198  13.773   9.263  11.034
50434SOL    HW153199  13.853   9.273  10.983
50434SOL    HW253200  13.781   9.328  11.104
50435SOL     OW53201  10.454   2.428  14.516
50435SOL    HW153202  10.371   2.474  14.526
50435SOL    HW253203  10.475   2.437  14.423
50436SOL     OW53204   9.064   9.059   4.066
50436SOL    HW153205   9.090   9.106   4.146
50436SOL    HW253206   9.146   9.038   4.023
50437SOL     OW53207  14.400   0.495   9.088
50437SOL    HW153208  14.305   0.505   9.084
50437SOL    HW253209  14.434   0.565   9.033
50438SOL     OW53210  10.818  12.844   2.642
50438SOL    HW153211  10.734  12.831   2.685
50438SOL    HW253212  10.848  12.755   2.622
50439SOL     OW53213   4.726   8.970  14.231
50439SOL    HW153214   4.747   9.024  14.155
50439SOL    HW253215   4.807   8.923  14.250
50440SOL     OW53216   8.601  11.583   3.986
50440SOL    HW153217   8.533  11.526   4.022
50440SOL    HW253218   8.626  11.541   3.903
50441SOL     OW53219   0.992   0.644  13.809
50441SOL    HW153220   1.008   0.661  13.901
50441SOL    HW253221   1.073   0.667  13.765
50442SOL     OW53222  13.515  10.651   8.564
50442SOL    HW153223  13.424  10.678   8.578
50442SOL    HW253224  13.544  10.621   8.650
50443SOL     OW53225  12.742   4.155   2.196
50443SOL    HW153226  12.683   4.087   2.226
50443SOL    HW253227  12.800   4.111   2.134
50444SOL     OW53228   8.230   9.661   8.790
50444SOL    HW153229   8.270   9.707   8.863
50444SOL    HW253230   8.162   9.606   8.829
50445SOL     OW53231  14.658   8.694  12.657
50445SOL    HW153232  14.752   8.712  12.650
50445SOL    HW253233  14.653   8.605  12.692
50446SOL     OW53234   9.071   0.170  11.643
50446SOL    HW153235   9.129   0.224  11.591
50446SOL    HW253236   8.998   0.228  11.665
50447SOL     OW53237   2.180  12.424   9.927
50447SOL    HW153238   2.236  12.501   9.924
50447SOL    HW253239   2.121  12.440  10.000
50448SOL     OW53240  13.379   8.339   2.618
50448SOL    HW153241  13.359   8.259   2.570
50448SOL    HW253242  13.304   8.351   2.677
50449SOL     OW53243   1.011  14.748   1.888
50449SOL    HW153244   0.984  14.797   1.965
50449SOL    HW253245   0.954  14.780   1.817
50450SOL     OW53246   6.543   8.159   5.047
50450SOL    HW153247   6.575   8.114   5.125
50450SOL    HW253248   6.579   8.108   4.974
50451SOL     OW53249   7.210   7.970  13.658
50451SOL    HW153250   7.259   8.015  13.726
50451SOL    HW253251   7.274   7.955  13.588
50452SOL     OW53252   3.290  12.108   9.594
50452SOL    HW153253   3.201  12.072   9.593
50452SOL    HW253254   3.277  12.203   9.604
50453SOL     OW53255  12.326   2.511   0.653
50453SOL    HW153256  12.251   2.474   0.605
50453SOL    HW253257  12.342   2.449   0.724
50454SOL     OW53258   2.572   7.402  12.634
50454SOL    HW153259   2.625   7.356  12.569
50454SOL    HW253260   2.504   7.340  12.658
50455SOL     OW53261   0.532   7.616  11.683
50455SOL    HW153262   0.526   7.676  11.609
50455SOL    HW253263   0.575   7.538  11.647
50456SOL     OW53264   9.008  12.234   5.500
50456SOL    HW153265   9.056  12.213   5.420
50456SOL    HW253266   8.916  12.222   5.477
50457SOL     OW53267   9.485   6.282   9.555
50457SOL    HW153268   9.543   6.218   9.597
50457SOL    HW253269   9.398   6.260   9.588
50458SOL     OW53270   0.486   3.255   4.125
50458SOL    HW153271   0.555   3.198   4.159
50458SOL    HW253272   0.419   3.195   4.093
50459SOL     OW53273  12.362   9.926   0.585
50459SOL    HW153274  12.369   9.995   0.520
50459SOL    HW253275  12.404   9.962   0.663
50460SOL     OW53276   4.953   7.712   3.773
50460SOL    HW153277   4.911   7.644   3.825
50460SOL    HW253278   5.026   7.668   3.730
50461SOL     OW53279  14.346   7.108   8.665
50461SOL    HW153280  14.333   7.104   8.570
50461SOL    HW253281  14.441   7.120   8.675
50462SOL     OW53282   4.547   1.998   8.095
50462SOL    HW153283   4.508   1.910   8.094
50462SOL    HW253284   4.515   2.039   8.014
50463SOL     OW53285  14.611   8.918  13.821
50463SOL    HW153286  14.537   8.898  13.764
50463SOL    HW253287  14.686   8.874  13.780
50464SOL     OW53288   9.544   1.447  10.986
50464SOL    HW153289   9.595   1.484  10.915
50464SOL    HW253290   9.608   1.421  11.052
50465SOL     OW53291  12.273   5.672   4.334
50465SOL    HW153292  12.272   5.634   4.246
50465SOL    HW253293  12.192   5.642   4.374
50466SOL     OW53294   2.262  11.817   1.403
50466SOL    HW153295   2.174  11.849   1.423
50466SOL    HW253296   2.319  11.893   1.417
50467SOL     OW53297   8.717   3.090   2.717
50467SOL    HW153298   8.700   3.148   2.643
50467SOL    HW253299   8.743   3.007   2.676
50468SOL     OW53300   3.198  13.825   3.308
50468SOL    HW153301   3.216  13.800   3.399
50468SOL    HW253302   3.252  13.765   3.256
50469SOL     OW53303  12.762  13.965  13.150
50469SOL    HW153304  12.726  14.017  13.222
50469SOL    HW253305  12.767  13.876  13.186
50470SOL     OW53306  14.644   2.806   6.762
50470SOL    HW153307  14.550   2.798   6.747
50470SOL    HW253308  14.679   2.719   6.745
50471SOL     OW53309  13.411  11.493  10.840
50471SOL    HW153310  13.333  11.438  10.849
50471SOL    HW253311  13.388  11.574  10.886
50472SOL     OW53312   4.201  11.406   5.234
50472SOL    HW153313   4.214  11.334   5.173
50472SOL    HW253314   4.241  11.481   5.192
50473SOL     OW53315   5.615   9.426   1.534
50473SOL    HW153316   5.542   9.488   1.529
50473SOL    HW253317   5.587   9.351   1.482
50474SOL     OW53318   1.839   8.214  13.506
50474SOL    HW153319   1.833   8.124  13.477
50474SOL    HW253320   1.930   8.239  13.488
50475SOL     OW53321  13.771   9.048  13.438
50475SOL    HW153322  13.748   9.097  13.517
50475SOL    HW253323  13.866   9.050  13.436
50476SOL     OW53324  13.782  13.859  14.282
50476SOL    HW153325  13.744  13.917  14.217
50476SOL    HW253326  13.707  13.818  14.325
50477SOL     OW53327   3.371  10.664   8.859
50477SOL    HW153328   3.308  10.640   8.926
50477SOL    HW253329   3.457  10.650   8.900
50478SOL     OW53330   9.797  14.375   8.471
50478SOL    HW153331   9.804  14.431   8.394
50478SOL    HW253332   9.793  14.286   8.436
50479SOL     OW53333   2.929  11.973   7.432
50479SOL    HW153334   2.956  11.904   7.492
50479SOL    HW253335   3.011  12.004   7.392
50480SOL     OW53336  10.065   8.092   6.964
50480SOL    HW153337  10.025   8.039   7.033
50480SOL    HW253338   9.993   8.111   6.904
50481SOL     OW53339  13.724  11.461   7.936
50481SOL    HW153340  13.743  11.550   7.907
50481SOL    HW253341  13.769  11.452   8.020
50482SOL     OW53342   1.872   7.072   6.160
50482SOL    HW153343   1.857   6.988   6.118
50482SOL    HW253344   1.794   7.124   6.139
50483SOL     OW53345  13.970   5.852   0.987
50483SOL    HW153346  14.040   5.831   0.925
50483SOL    HW253347  13.928   5.767   1.004
50484SOL     OW53348   3.140   2.994   1.028
50484SOL    HW153349   3.170   3.022   0.941
50484SOL    HW253350   3.180   3.057   1.088
50485SOL     OW53351   3.978   1.122   7.053
50485SOL    HW153352   3.955   1.182   7.125
50485SOL    HW253353   4.042   1.062   7.091
50486SOL     OW53354   3.125  13.483   9.738
50486SOL    HW153355   3.035  13.464   9.710
50486SOL    HW253356   3.120  13.572   9.773
50487SOL     OW53357   5.262  14.461   0.503
50487SOL    HW153358   5.218  14.474   0.419
50487SOL    HW253359   5.233  14.534   0.557
50488SOL     OW53360   0.185  10.362   4.049
50488SOL    HW153361   0.268  10.347   4.004
50488SOL    HW253362   0.208  10.363   4.142
50489SOL     OW53363   1.978  11.438   2.348
50489SOL    HW153364   2.046  11.428   2.415
50489SOL    HW253365   1.901  11.395   2.386
50490SOL     OW53366  13.365   8.617  10.317
50490SOL    HW153367  13.450   8.580  10.297
50490SOL    HW253368  13.302   8.560  10.273
50491SOL     OW53369   9.229   2.060   8.107
50491SOL    HW153370   9.264   2.043   8.020
50491SOL    HW253371   9.283   2.007   8.166
50492SOL     OW53372   3.697   8.142   8.519
50492SOL    HW153373   3.677   8.229   8.485
50492SOL    HW253374   3.791   8.145   8.537
50493SOL     OW53375   2.802  13.977   8.111
50493SOL    HW153376   2.871  13.961   8.047
50493SOL    HW253377   2.825  14.060   8.152
50494SOL     OW53378   5.897   8.273   5.636
50494SOL    HW153379   5.960   8.230   5.577
50494SOL    HW253380   5.928   8.251   5.724
50495SOL     OW53381   4.050   6.711   2.724
50495SOL    HW153382   4.078   6.793   2.684
50495SOL    HW253383   4.102   6.704   2.804
50496SOL     OW53384  12.666   2.869   0.870
50496SOL    HW153385  12.584   2.856   0.822
50496SOL    HW253386  12.734   2.849   0.807
50497SOL     OW53387  14.366   9.809   0.879
50497SOL    HW153388  14.288   9.790   0.932
50497SOL    HW253389  14.331   9.822   0.791
50498SOL     OW53390   5.664   3.444  11.877
50498SOL    HW153391   5.741   3.417  11.927
50498SOL    HW253392   5.601   3.471  11.944
50499SOL     OW53393   5.847  14.117   3.763
50499SOL    HW153394   5.857  14.168   3.843
50499SOL    HW253395   5.814  14.179   3.698
50500SOL     OW53396   7.488   1.103   8.539
50500SOL    HW153397   7.425   1.037   8.510
50500SOL    HW253398   7.440   1.186   8.535
50501SOL     OW53399   3.714  14.252   9.850
50501SOL    HW153400   3.709  14.222   9.759
50501SOL    HW253401   3.706  14.172   9.902
50502SOL     OW53402   8.057   4.812   0.585
50502SOL    HW153403   8.115   4.839   0.656
50502SOL    HW253404   8.104   4.741   0.541
50503SOL     OW53405   2.148   9.711   0.171
50503SOL    HW153406   2.107   9.721   0.085
50503SOL    HW253407   2.203   9.633   0.162
50504SOL     OW53408  11.640   0.906  13.936
50504SOL    HW153409  11.675   0.877  13.852
50504SOL    HW253410  11.695   0.981  13.961
50505SOL     OW53411  14.627   6.096   0.836
50505SOL    HW153412  14.533   6.105   0.820
50505SOL    HW253413  14.666   6.096   0.748
50506SOL     OW53414   7.661   7.231  10.355
50506SOL    HW153415   7.571   7.200  10.352
50506SOL    HW253416   7.656   7.318  10.395
50507SOL     OW53417  12.711   3.472   7.095
50507SOL    HW153418  12.803   3.448   7.100
50507SOL    HW253419  12.665   3.387   7.094
50508SOL     OW53420   4.599   2.542   2.172
50508SOL    HW153421   4.601   2.615   2.110
50508SOL    HW253422   4.646   2.472   2.128
50509SOL     OW53423   2.405   9.329  13.864
50509SOL    HW153424   2.409   9.236  13.843
50509SOL    HW253425   2.464   9.370  13.800
50510SOL     OW53426   7.587  13.059   4.535
50510SOL    HW153427   7.674  13.096   4.521
50510SOL    HW253428   7.565  13.016   4.452
50511SOL     OW53429  10.067  10.101   7.215
50511SOL    HW153430  10.047  10.062   7.130
50511SOL    HW253431  10.007  10.176   7.222
50512SOL     OW53432  11.635  10.793   0.932
50512SOL    HW153433  11.542  10.809   0.943
50512SOL    HW253434  11.663  10.756   1.016
50513SOL     OW53435   7.284  11.277   9.756
50513SOL    HW153436   7.234  11.359   9.761
50513SOL    HW253437   7.339  11.288   9.678
50514SOL     OW53438   0.248  12.856  14.266
50514SOL    HW153439   0.298  12.897  14.337
50514SOL    HW253440   0.311  12.796  14.224
50515SOL     OW53441  11.244  13.339   6.329
50515SOL    HW153442  11.299  13.283   6.384
50515SOL    HW253443  11.306  13.396   6.284
50516SOL     OW53444  12.705  14.721  11.285
50516SOL    HW153445  12.625  14.675  11.257
50516SOL    HW253446  12.693  14.732  11.380
50517SOL     OW53447   9.068   9.031  11.605
50517SOL    HW153448   9.121   9.030  11.685
50517SOL    HW253449   8.989   8.983  11.629
50518SOL     OW53450   3.699   8.531   1.543
50518SOL    HW153451   3.763   8.560   1.478
50518SOL    HW253452   3.718   8.437   1.554
50519SOL     OW53453   7.237  12.587  11.902
50519SOL    HW153454   7.221  12.527  11.976
50519SOL    HW253455   7.166  12.651  11.908
50520SOL     OW53456   2.775   0.996   4.684
50520SOL    HW153457   2.745   1.057   4.752
50520SOL    HW253458   2.870   1.005   4.684
50521SOL     OW53459   6.635   9.185   5.242
50521SOL    HW153460   6.671   9.249   5.181
50521SOL    HW253461   6.712   9.147   5.285
50522SOL     OW53462   6.809   2.551   2.079
50522SOL    HW153463   6.844   2.576   2.164
50522SOL    HW253464   6.828   2.625   2.022
50523SOL     OW53465  13.403   9.582   5.691
50523SOL    HW153466  13.320   9.555   5.651
50523SOL    HW253467  13.453   9.619   5.618
50524SOL     OW53468   9.090  13.022   1.774
50524SOL    HW153469   9.133  12.937   1.786
50524SOL    HW253470   9.158  13.086   1.797
50525SOL     OW53471   3.656   6.083   3.912
50525SOL    HW153472   3.639   6.124   3.827
50525SOL    HW253473   3.591   6.013   3.918
50526SOL     OW53474   0.893   9.676  10.797
50526SOL    HW153475   0.891   9.701  10.705
50526SOL    HW253476   0.923   9.585  10.797
50527SOL     OW53477   4.821   1.869   9.788
50527SOL    HW153478   4.830   1.916   9.704
50527SOL    HW253479   4.846   1.779   9.768
50528SOL     OW53480  10.603   4.878   5.751
50528SOL    HW153481  10.508   4.869   5.758
50528SOL    HW253482  10.617   4.972   5.735
50529SOL     OW53483   7.215   8.647   5.822
50529SOL    HW153484   7.216   8.709   5.748
50529SOL    HW253485   7.306   8.647   5.853
50530SOL     OW53486   4.808  10.461   7.621
50530SOL    HW153487   4.819  10.556   7.625
50530SOL    HW253488   4.761  10.439   7.702
50531SOL     OW53489   2.194   8.761   2.639
50531SOL    HW153490   2.154   8.727   2.559
50531SOL    HW253491   2.259   8.695   2.663
50532SOL     OW53492   9.935   0.683   8.576
50532SOL    HW153493   9.942   0.766   8.530
50532SOL    HW253494   9.966   0.618   8.514
50533SOL     OW53495   2.757   2.116   3.700
50533SOL    HW153496   2.680   2.126   3.645
50533SOL    HW253497   2.722   2.114   3.790
50534SOL     OW53498   2.369   1.349   8.200
50534SOL    HW153499   2.368   1.276   8.138
50534SOL    HW253500   2.305   1.324   8.267
50535SOL     OW53501  12.893   6.204  13.252
50535SOL    HW153502  12.801   6.199  13.228
50535SOL    HW253503  12.939   6.176  13.172
50536SOL     OW53504   5.727   8.886   0.414
50536SOL    HW153505   5.805   8.928   0.379
50536SOL    HW253506   5.662   8.893   0.343
50537SOL     OW53507  11.101   1.045  10.115
50537SOL    HW153508  11.110   0.960  10.158
50537SOL    HW253509  11.007   1.060  10.112
50538SOL     OW53510   9.279   0.418   7.531
50538SOL    HW153511   9.288   0.501   7.484
50538SOL    HW253512   9.367   0.381   7.532
50539SOL     OW53513  12.699   8.350   8.320
50539SOL    HW153514  12.628   8.313   8.372
50539SOL    HW253515  12.699   8.297   8.240
50540SOL     OW53516  14.607  10.924   8.547
50540SOL    HW153517  14.543  10.860   8.519
50540SOL    HW253518  14.660  10.941   8.470
50541SOL     OW53519  10.560   0.883   7.803
50541SOL    HW153520  10.602   0.801   7.777
50541SOL    HW253521  10.559   0.935   7.723
50542SOL     OW53522   1.084   5.315   2.051
50542SOL    HW153523   1.164   5.351   2.091
50542SOL    HW253524   1.067   5.374   1.977
50543SOL     OW53525   6.527   6.913   2.399
50543SOL    HW153526   6.563   6.841   2.450
50543SOL    HW253527   6.435   6.891   2.388
50544SOL     OW53528   9.128   7.162   6.571
50544SOL    HW153529   9.040   7.186   6.541
50544SOL    HW253530   9.153   7.234   6.629
50545SOL     OW53531  12.688   8.978   1.036
50545SOL    HW153532  12.766   8.924   1.034
50545SOL    HW253533  12.714   9.061   0.996
50546SOL     OW53534   8.581   2.426  11.626
50546SOL    HW153535   8.589   2.498  11.688
50546SOL    HW253536   8.613   2.461  11.544
50547SOL     OW53537   1.468   1.715   3.059
50547SOL    HW153538   1.451   1.638   3.112
50547SOL    HW253539   1.436   1.693   2.972
50548SOL     OW53540  11.724   2.725  13.167
50548SOL    HW153541  11.688   2.804  13.206
50548SOL    HW253542  11.761   2.753  13.084
50549SOL     OW53543   5.121   4.576   9.505
50549SOL    HW153544   5.108   4.571   9.410
50549SOL    HW253545   5.202   4.625   9.516
50550SOL     OW53546   1.770   2.238   8.086
50550SOL    HW153547   1.770   2.311   8.147
50550SOL    HW253548   1.799   2.275   8.003
50551SOL     OW53549  12.481   3.776   3.137
50551SOL    HW153550  12.467   3.682   3.149
50551SOL    HW253551  12.493   3.787   3.043
50552SOL     OW53552   8.736   7.013  13.124
50552SOL    HW153553   8.670   7.002  13.193
50552SOL    HW253554   8.815   7.040  13.171
50553SOL     OW53555   7.979   3.385   4.503
50553SOL    HW153556   7.964   3.472   4.540
50553SOL    HW253557   8.010   3.332   4.577
50554SOL     OW53558   5.031   3.752  10.938
50554SOL    HW153559   5.014   3.674  10.991
50554SOL    HW253560   4.963   3.751  10.871
50555SOL     OW53561   6.628  11.652  11.894
50555SOL    HW153562   6.590  11.724  11.944
50555SOL    HW253563   6.679  11.694  11.825
50556SOL     OW53564  14.167  13.148   4.081
50556SOL    HW153565  14.111  13.079   4.118
50556SOL    HW253566  14.214  13.104   4.009
50557SOL     OW53567  12.334  13.056  13.698
50557SOL    HW153568  12.271  13.120  13.731
50557SOL    HW253569  12.285  13.007  13.632
50558SOL     OW53570   8.169   1.485   4.060
50558SOL    HW153571   8.180   1.456   3.970
50558SOL    HW253572   8.133   1.573   4.053
50559SOL     OW53573  10.450  11.133   0.345
50559SOL    HW153574  10.536  11.175   0.342
50559SOL    HW253575  10.405  11.176   0.418
50560SOL     OW53576   2.742   8.954   1.634
50560SOL    HW153577   2.750   9.046   1.659
50560SOL    HW253578   2.658   8.949   1.589
50561SOL     OW53579  12.289   5.254   2.153
50561SOL    HW153580  12.333   5.299   2.225
50561SOL    HW253581  12.347   5.182   2.130
50562SOL     OW53582   6.011   2.657   7.609
50562SOL    HW153583   5.978   2.582   7.658
50562SOL    HW253584   6.053   2.712   7.675
50563SOL     OW53585   3.253   7.530   6.831
50563SOL    HW153586   3.168   7.564   6.805
50563SOL    HW253587   3.243   7.509   6.924
50564SOL     OW53588   1.493   3.838   3.793
50564SOL    HW153589   1.440   3.827   3.871
50564SOL    HW253590   1.461   3.919   3.753
50565SOL     OW53591   3.080   8.080   4.202
50565SOL    HW153592   2.989   8.051   4.201
50565SOL    HW253593   3.076   8.171   4.233
50566SOL     OW53594   2.964   6.563   3.237
50566SOL    HW153595   3.053   6.586   3.261
50566SOL    HW253596   2.941   6.489   3.294
50567SOL     OW53597  11.377   0.257  11.743
50567SOL    HW153598  11.415   0.281  11.659
50567SOL    HW253599  11.313   0.326  11.761
50568SOL     OW53600   3.585   0.808   0.507
50568SOL    HW153601   3.676   0.835   0.495
50568SOL    HW253602   3.548   0.808   0.419
50569SOL     OW53603  12.506   7.397   2.451
50569SOL    HW153604  12.486   7.483   2.413
50569SOL    HW253605  12.487   7.407   2.544
50570SOL     OW53606   9.923  10.656   5.908
50570SOL    HW153607   9.960  10.671   5.821
50570SOL    HW253608   9.870  10.577   5.899
50571SOL     OW53609  14.077   6.406  14.432
50571SOL    HW153610  14.135   6.408  14.356
50571SOL    HW253611  14.026   6.326  14.422
50572SOL     OW53612   3.524   0.483   5.857
50572SOL    HW153613   3.459   0.419   5.885
50572SOL    HW253614   3.474   0.548   5.808
50573SOL     OW53615   8.301   8.377  10.042
50573SOL    HW153616   8.272   8.308   9.982
50573SOL    HW253617   8.222   8.429  10.058
50574SOL     OW53618  13.181   9.560  11.376
50574SOL    HW153619  13.211   9.488  11.321
50574SOL    HW253620  13.176   9.522  11.464
50575SOL     OW53621   2.136   6.759  10.921
50575SOL    HW153622   2.187   6.738  10.842
50575SOL    HW253623   2.108   6.849  10.907
50576SOL     OW53624   7.284   7.145   9.804
50576SOL    HW153625   7.285   7.211   9.735
50576SOL    HW253626   7.363   7.161   9.855
50577SOL     OW53627   3.679  13.684   4.593
50577SOL    HW153628   3.681  13.746   4.665
50577SOL    HW253629   3.728  13.608   4.624
50578SOL     OW53630   8.213  12.422   9.495
50578SOL    HW153631   8.129  12.466   9.502
50578SOL    HW253632   8.218  12.393   9.404
50579SOL     OW53633   2.452  13.084   1.319
50579SOL    HW153634   2.378  13.137   1.288
50579SOL    HW253635   2.508  13.073   1.243
50580SOL     OW53636  11.084  13.377   4.248
50580SOL    HW153637  11.101  13.393   4.340
50580SOL    HW253638  11.042  13.457   4.217
50581SOL     OW53639   9.270   6.650   1.257
50581SOL    HW153640   9.323   6.714   1.210
50581SOL    HW253641   9.251   6.691   1.341
50582SOL     OW53642  10.003   7.240   2.462
50582SOL    HW153643   9.962   7.323   2.438
50582SOL    HW253644  10.095   7.260   2.474
50583SOL     OW53645  11.359   7.902   7.253
50583SOL    HW153646  11.299   7.954   7.307
50583SOL    HW253647  11.444   7.912   7.295
50584SOL     OW53648   1.871   1.965   9.410
50584SOL    HW153649   1.828   1.952   9.326
50584SOL    HW253650   1.800   1.976   9.473
50585SOL     OW53651  13.140  10.636   5.480
50585SOL    HW153652  13.073  10.693   5.518
50585SOL    HW253653  13.156  10.673   5.393
50586SOL     OW53654   5.789   7.834  12.885
50586SOL    HW153655   5.813   7.908  12.941
50586SOL    HW253656   5.852   7.837  12.813
50587SOL     OW53657   7.319   3.105   5.965
50587SOL    HW153658   7.289   3.087   6.054
50587SOL    HW253659   7.265   3.048   5.910
50588SOL     OW53660   3.343   3.110   1.616
50588SOL    HW153661   3.332   3.145   1.704
50588SOL    HW253662   3.435   3.127   1.594
50589SOL     OW53663   1.728   6.613   7.190
50589SOL    HW153664   1.767   6.528   7.211
50589SOL    HW253665   1.645   6.614   7.237
50590SOL     OW53666   9.158  12.130   3.682
50590SOL    HW153667   9.064  12.113   3.676
50590SOL    HW253668   9.165  12.217   3.720
50591SOL     OW53669  10.955   1.526  11.960
50591SOL    HW153670  10.866   1.519  11.926
50591SOL    HW253671  10.955   1.473  12.040
50592SOL     OW53672   1.267   4.551   1.424
50592SOL    HW153673   1.239   4.592   1.342
50592SOL    HW253674   1.185   4.532   1.470
50593SOL     OW53675   2.529   8.449   0.773
50593SOL    HW153676   2.492   8.528   0.735
50593SOL    HW253677   2.611   8.478   0.814
50594SOL     OW53678   1.443  13.896  12.709
50594SOL    HW153679   1.391  13.958  12.659
50594SOL    HW253680   1.444  13.817  12.654
50595SOL     OW53681   1.162   4.235   7.249
50595SOL    HW153682   1.076   4.264   7.279
50595SOL    HW253683   1.206   4.206   7.329
50596SOL     OW53684  10.988   1.282   3.506
50596SOL    HW153685  11.018   1.227   3.578
50596SOL    HW253686  10.900   1.309   3.531
50597SOL     OW53687   7.827   4.395   2.296
50597SOL    HW153688   7.900   4.387   2.235
50597SOL    HW253689   7.756   4.344   2.256
50598SOL     OW53690   3.828   1.544   3.378
50598SOL    HW153691   3.914   1.538   3.337
50598SOL    HW253692   3.817   1.460   3.423
50599SOL     OW53693   7.857   4.640   7.428
50599SOL    HW153694   7.796   4.714   7.422
50599SOL    HW253695   7.803   4.563   7.412
50600SOL     OW53696   2.175  14.000  13.009
50600SOL    HW153697   2.093  13.990  13.057
50600SOL    HW253698   2.174  13.930  12.943
50601SOL     OW53699   6.299   1.689  13.764
50601SOL    HW153700   6.275   1.616  13.821
50601SOL    HW253701   6.279   1.767  13.814
50602SOL     OW53702   0.394  12.269  14.041
50602SOL    HW153703   0.306  12.234  14.029
50602SOL    HW253704   0.452  12.201  14.008
50603SOL     OW53705   7.457   9.117   4.126
50603SOL    HW153706   7.444   9.134   4.219
50603SOL    HW253707   7.433   9.025   4.114
50604SOL     OW53708   9.148   0.324  12.068
50604SOL    HW153709   9.088   0.265  12.114
50604SOL    HW253710   9.183   0.270  11.997
50605SOL     OW53711  14.631   7.039   7.335
50605SOL    HW153712  14.618   7.133   7.351
50605SOL    HW253713  14.706   7.035   7.276
50606SOL     OW53714   8.358   5.501  11.771
50606SOL    HW153715   8.346   5.421  11.720
50606SOL    HW253716   8.338   5.572  11.710
50607SOL     OW53717   3.177  11.608  10.703
50607SOL    HW153718   3.206  11.520  10.678
50607SOL    HW253719   3.118  11.634  10.633
50608SOL     OW53720   7.119   2.860   3.494
50608SOL    HW153721   7.066   2.865   3.414
50608SOL    HW253722   7.175   2.783   3.481
50609SOL     OW53723   5.297  10.293  14.767
50609SOL    HW153724   5.273  10.268  14.856
50609SOL    HW253725   5.297  10.210  14.719
50610SOL     OW53726  13.994   6.224   0.086
50610SOL    HW153727  13.911   6.198   0.046
50610SOL    HW253728  14.002   6.317   0.066
50611SOL     OW53729   1.629  12.568   6.039
50611SOL    HW153730   1.648  12.637   5.975
50611SOL    HW253731   1.559  12.604   6.093
50612SOL     OW53732   0.542   8.299  14.287
50612SOL    HW153733   0.532   8.316  14.380
50612SOL    HW253734   0.636   8.297  14.272
50613SOL     OW53735  12.907   4.795  13.450
50613SOL    HW153736  12.957   4.865  13.408
50613SOL    HW253737  12.881   4.738  13.378
50614SOL     OW53738  11.565   0.842   7.515
50614SOL    HW153739  11.637   0.904   7.526
50614SOL    HW253740  11.488   0.889   7.547
50615SOL     OW53741   5.725  14.383  13.104
50615SOL    HW153742   5.634  14.395  13.075
50615SOL    HW253743   5.717  14.374  13.199
50616SOL     OW53744   6.778   8.951  13.898
50616SOL    HW153745   6.811   9.009  13.828
50616SOL    HW253746   6.815   8.866  13.877
50617SOL     OW53747   4.334   9.359  11.840
50617SOL    HW153748   4.384   9.351  11.759
50617SOL    HW253749   4.318   9.453  11.849
50618SOL     OW53750   8.667  12.697   4.790
50618SOL    HW153751   8.734  12.629   4.803
50618SOL    HW253752   8.687  12.734   4.704
50619SOL     OW53753   8.516   4.795   3.275
50619SOL    HW153754   8.581   4.854   3.313
50619SOL    HW253755   8.451   4.785   3.345
50620SOL     OW53756   9.301   8.917   4.948
50620SOL    HW153757   9.223   8.876   4.984
50620SOL    HW253758   9.299   9.007   4.982
50621SOL     OW53759  13.381   8.675  12.748
50621SOL    HW153760  13.362   8.581  12.745
50621SOL    HW253761  13.463   8.681  12.796
50622SOL     OW53762  10.766   2.088   2.406
50622SOL    HW153763  10.759   2.094   2.502
50622SOL    HW253764  10.830   2.155   2.383
50623SOL     OW53765   9.953   5.837   7.993
50623SOL    HW153766   9.915   5.915   7.952
50623SOL    HW253767   9.933   5.765   7.934
50624SOL     OW53768  12.730  14.015  13.727
50624SOL    HW153769  12.796  14.058  13.673
50624SOL    HW253770  12.706  13.936  13.679
50625SOL     OW53771   7.494  12.803   9.969
50625SOL    HW153772   7.501  12.725  10.022
50625SOL    HW253773   7.408  12.840   9.990
50626SOL     OW53774   6.832   4.698  12.031
50626SOL    HW153775   6.805   4.759  12.100
50626SOL    HW253776   6.822   4.747  11.950
50627SOL     OW53777  11.282   3.888   9.402
50627SOL    HW153778  11.311   3.801   9.428
50627SOL    HW253779  11.332   3.907   9.323
50628SOL     OW53780  13.622   3.383   6.354
50628SOL    HW153781  13.602   3.313   6.416
50628SOL    HW253782  13.626   3.340   6.269
50629SOL     OW53783   7.572   1.379   6.437
50629SOL    HW153784   7.593   1.286   6.431
50629SOL    HW253785   7.501   1.391   6.374
50630SOL     OW53786   1.054  12.759   2.751
50630SOL    HW153787   1.111  12.682   2.757
50630SOL    HW253788   0.974  12.725   2.709
50631SOL     OW53789  14.068   0.893  12.138
50631SOL    HW153790  13.980   0.860  12.155
50631SOL    HW253791  14.109   0.824  12.086
50632SOL     OW53792   6.115   9.637  14.587
50632SOL    HW153793   6.079   9.568  14.643
50632SOL    HW253794   6.209   9.639  14.609
50633SOL     OW53795   8.957  12.038  12.766
50633SOL    HW153796   8.884  12.090  12.732
50633SOL    HW253797   8.999  12.002  12.688
50634SOL     OW53798   7.352   1.221   7.786
50634SOL    HW153799   7.383   1.137   7.817
50634SOL    HW253800   7.272   1.201   7.737
50635SOL     OW53801   9.296  14.637  10.614
50635SOL    HW153802   9.261  14.567  10.558
50635SOL    HW253803   9.388  14.615  10.625
50636SOL     OW53804   3.891   8.222  11.294
50636SOL    HW153805   3.968   8.237  11.349
50636SOL    HW253806   3.880   8.304  11.246
50637SOL     OW53807   1.522   9.993   7.178
50637SOL    HW153808   1.435   9.953   7.180
50637SOL    HW253809   1.506  10.085   7.155
50638SOL     OW53810   7.005   4.206  12.186
50638SOL    HW153811   6.940   4.146  12.224
50638SOL    HW253812   7.015   4.275  12.252
50639SOL     OW53813   0.871   8.188   6.913
50639SOL    HW153814   0.780   8.162   6.900
50639SOL    HW253815   0.871   8.283   6.902
50640SOL     OW53816   9.191   6.511   2.913
50640SOL    HW153817   9.106   6.503   2.869
50640SOL    HW253818   9.222   6.421   2.923
50641SOL     OW53819   7.198   5.968   7.434
50641SOL    HW153820   7.161   5.891   7.391
50641SOL    HW253821   7.192   6.037   7.367
50642SOL     OW53822   2.013  11.345  11.567
50642SOL    HW153823   1.957  11.355  11.644
50642SOL    HW253824   1.998  11.424  11.516
50643SOL     OW53825  14.111  10.667  11.236
50643SOL    HW153826  14.067  10.719  11.168
50643SOL    HW253827  14.204  10.687  11.225
50644SOL     OW53828   9.188   8.891   2.742
50644SOL    HW153829   9.225   8.819   2.793
50644SOL    HW253830   9.171   8.959   2.807
50645SOL     OW53831   1.554  14.770   0.357
50645SOL    HW153832   1.493  14.696   0.351
50645SOL    HW253833   1.638  14.734   0.332
50646SOL     OW53834  11.517   8.372   1.869
50646SOL    HW153835  11.503   8.350   1.961
50646SOL    HW253836  11.470   8.455   1.857
50647SOL     OW53837   3.700   2.095  11.183
50647SOL    HW153838   3.661   2.100  11.096
50647SOL    HW253839   3.695   2.003  11.207
50648SOL     OW53840   1.239   2.014   7.660
50648SOL    HW153841   1.333   2.025   7.676
50648SOL    HW253842   1.231   1.923   7.630
50649SOL     OW53843   3.990   3.349   0.032
50649SOL    HW153844   4.033   3.386   0.109
50649SOL    HW253845   3.993   3.418  14.838
50650SOL     OW53846   4.859   1.800  13.815
50650SOL    HW153847   4.922   1.738  13.853
50650SOL    HW253848   4.910   1.880  13.801
50651SOL     OW53849   3.945  14.127   7.738
50651SOL    HW153850   3.889  14.055   7.768
50651SOL    HW253851   4.021  14.124   7.796
50652SOL     OW53852   4.618  13.696   0.750
50652SOL    HW153853   4.667  13.771   0.715
50652SOL    HW253854   4.684  13.629   0.766
50653SOL     OW53855   9.195   5.046  11.058
50653SOL    HW153856   9.179   5.064  10.966
50653SOL    HW253857   9.288   5.024  11.063
50654SOL     OW53858   7.692   1.359  13.804
50654SOL    HW153859   7.738   1.286  13.763
50654SOL    HW253860   7.600   1.333  13.803
50655SOL     OW53861   6.854   4.377   5.567
50655SOL    HW153862   6.814   4.450   5.615
50655SOL    HW253863   6.796   4.303   5.583
50656SOL     OW53864   6.626   4.652   3.744
50656SOL    HW153865   6.652   4.563   3.720
50656SOL    HW253866   6.672   4.670   3.826
50657SOL     OW53867   7.044   1.757   1.337
50657SOL    HW153868   7.126   1.806   1.347
50657SOL    HW253869   7.064   1.691   1.269
50658SOL     OW53870   4.636   6.702  13.188
50658SOL    HW153871   4.589   6.706  13.105
50658SOL    HW253872   4.579   6.650  13.245
50659SOL     OW53873   7.047   9.044   7.553
50659SOL    HW153874   6.953   9.023   7.554
50659SOL    HW253875   7.090   8.959   7.562
50660SOL     OW53876   1.902   0.953   1.938
50660SOL    HW153877   1.829   0.957   1.876
50660SOL    HW253878   1.880   0.880   1.996
50661SOL     OW53879   1.575  10.353   8.900
50661SOL    HW153880   1.623  10.273   8.879
50661SOL    HW253881   1.612  10.382   8.983
50662SOL     OW53882  12.000   0.927  14.004
50662SOL    HW153883  12.001   1.022  13.994
50662SOL    HW253884  12.035   0.910  14.091
50663SOL     OW53885   3.143  11.832   2.900
50663SOL    HW153886   3.134  11.745   2.939
50663SOL    HW253887   3.129  11.893   2.973
50664SOL     OW53888   6.904   3.691   9.635
50664SOL    HW153889   6.811   3.666   9.636
50664SOL    HW253890   6.919   3.730   9.720
50665SOL     OW53891   7.117  14.806   0.489
50665SOL    HW153892   7.186   0.000   0.478
50665SOL    HW253893   7.051  14.829   0.424
50666SOL     OW53894   0.369   5.227  12.484
50666SOL    HW153895   0.279   5.247  12.510
50666SOL    HW253896   0.361   5.202  12.392
50667SOL     OW53897  14.246   5.821   2.816
50667SOL    HW153898  14.342   5.823   2.824
50667SOL    HW253899  14.217   5.905   2.853
50668SOL     OW53900  11.073   4.844  13.914
50668SOL    HW153901  11.105   4.762  13.952
50668SOL    HW253902  11.006   4.818  13.852
50669SOL     OW53903   3.792  12.045   8.975
50669SOL    HW153904   3.700  12.072   8.976
50669SOL    HW253905   3.835  12.103   9.037
50670SOL     OW53906   9.487   9.077   9.708
50670SOL    HW153907   9.445   9.093   9.623
50670SOL    HW253908   9.433   9.125   9.771
50671SOL     OW53909  12.378   1.760   1.821
50671SOL    HW153910  12.458   1.739   1.772
50671SOL    HW253911  12.307   1.734   1.763
50672SOL     OW53912   1.982  11.581   3.354
50672SOL    HW153913   1.960  11.639   3.281
50672SOL    HW253914   1.934  11.500   3.335
50673SOL     OW53915   0.122  11.494   1.299
50673SOL    HW153916   0.214  11.488   1.322
50673SOL    HW253917   0.105  11.418   1.244
50674SOL     OW53918  11.868   7.159  11.799
50674SOL    HW153919  11.827   7.111  11.871
50674SOL    HW253920  11.821   7.131  11.721
50675SOL     OW53921   2.009   8.078  11.425
50675SOL    HW153922   2.076   8.029  11.378
50675SOL    HW253923   1.984   8.021  11.497
50676SOL     OW53924   4.997  13.738   6.368
50676SOL    HW153925   5.001  13.707   6.458
50676SOL    HW253926   4.925  13.801   6.367
50677SOL     OW53927  11.972   2.233  14.025
50677SOL    HW153928  12.021   2.315  14.029
50677SOL    HW253929  12.014   2.184  13.954
50678SOL     OW53930   1.433  11.031  13.216
50678SOL    HW153931   1.485  10.996  13.144
50678SOL    HW253932   1.440  10.964  13.284
50679SOL     OW53933  10.090   5.908  13.463
50679SOL    HW153934  10.056   5.894  13.375
50679SOL    HW253935  10.095   6.003  13.473
50680SOL     OW53936   2.940   7.295   4.266
50680SOL    HW153937   2.849   7.317   4.288
50680SOL    HW253938   2.987   7.306   4.349
50681SOL     OW53939   7.754   7.833  10.094
50681SOL    HW153940   7.726   7.789  10.014
50681SOL    HW253941   7.844   7.803  10.108
50682SOL     OW53942   7.683   5.870   9.019
50682SOL    HW153943   7.753   5.917   8.974
50682SOL    HW253944   7.705   5.876   9.112
50683SOL     OW53945  10.445   7.990  11.315
50683SOL    HW153946  10.416   8.028  11.231
50683SOL    HW253947  10.481   7.905  11.291
50684SOL     OW53948   1.284  10.619  14.253
50684SOL    HW153949   1.285  10.569  14.335
50684SOL    HW253950   1.330  10.700  14.273
50685SOL     OW53951   2.286   8.489   3.254
50685SOL    HW153952   2.364   8.543   3.265
50685SOL    HW253953   2.214   8.552   3.249
50686SOL     OW53954  10.304  11.531   3.252
50686SOL    HW153955  10.353  11.579   3.319
50686SOL    HW253956  10.342  11.443   3.254
50687SOL     OW53957  12.875  12.280   7.187
50687SOL    HW153958  12.924  12.208   7.226
50687SOL    HW253959  12.815  12.238   7.125
50688SOL     OW53960  10.757  11.537  11.630
50688SOL    HW153961  10.762  11.524  11.535
50688SOL    HW253962  10.707  11.618  11.641
50689SOL     OW53963   5.908   3.647  10.824
50689SOL    HW153964   5.903   3.554  10.802
50689SOL    HW253965   5.920   3.649  10.919
50690SOL     OW53966   0.435  13.061   9.811
50690SOL    HW153967   0.369  13.124   9.782
50690SOL    HW253968   0.394  12.976   9.800
50691SOL     OW53969   3.531   7.070   5.957
50691SOL    HW153970   3.551   6.990   5.908
50691SOL    HW253971   3.487   7.038   6.036
50692SOL     OW53972   3.169   0.236  11.501
50692SOL    HW153973   3.218   0.158  11.527
50692SOL    HW253974   3.233   0.290  11.453
50693SOL     OW53975   5.510   0.594   7.356
50693SOL    HW153976   5.559   0.513   7.365
50693SOL    HW253977   5.480   0.594   7.265
50694SOL     OW53978   7.880  11.591   4.874
50694SOL    HW153979   7.951  11.609   4.936
50694SOL    HW253980   7.890  11.499   4.851
50695SOL     OW53981   6.122  11.646   5.749
50695SOL    HW153982   6.215  11.625   5.759
50695SOL    HW253983   6.108  11.645   5.654
50696SOL     OW53984   4.789  12.364  14.530
50696SOL    HW153985   4.784  12.374  14.625
50696SOL    HW253986   4.706  12.322  14.506
50697SOL     OW53987  13.929   1.276   5.583
50697SOL    HW153988  13.897   1.366   5.575
50697SOL    HW253989  13.950   1.267   5.676
50698SOL     OW53990  12.849   9.306   5.154
50698SOL    HW153991  12.880   9.368   5.088
50698SOL    HW253992  12.838   9.224   5.106
50699SOL     OW53993   3.699   9.310   4.970
50699SOL    HW153994   3.641   9.301   4.893
50699SOL    HW253995   3.651   9.266   5.040
50700SOL     OW53996   2.003   7.587   7.928
50700SOL    HW153997   1.981   7.637   7.850
50700SOL    HW253998   2.016   7.653   7.996
50701SOL     OW53999   6.039  11.155   4.166
50701SOL    HW154000   5.945  11.140   4.179
50701SOL    HW254001   6.066  11.202   4.245
50702SOL     OW54002   7.511  13.384   9.030
50702SOL    HW154003   7.549  13.299   9.052
50702SOL    HW254004   7.586  13.444   9.028
50703SOL     OW54005   6.874  11.714  14.264
50703SOL    HW154006   6.867  11.769  14.342
50703SOL    HW254007   6.959  11.671  14.272
50704SOL     OW54008   6.775   4.998   4.512
50704SOL    HW154009   6.694   5.019   4.558
50704SOL    HW254010   6.748   4.982   4.422
50705SOL     OW54011  13.906   7.431  11.852
50705SOL    HW154012  13.817   7.395  11.847
50705SOL    HW254013  13.901   7.513  11.803
50706SOL     OW54014   1.203   7.277   6.495
50706SOL    HW154015   1.155   7.360   6.500
50706SOL    HW254016   1.267   7.290   6.426
50707SOL     OW54017   0.311  10.239  13.561
50707SOL    HW154018   0.223  10.263  13.533
50707SOL    HW254019   0.365  10.313  13.533
50708SOL     OW54020   3.745   7.729   3.966
50708SOL    HW154021   3.765   7.801   3.907
50708SOL    HW254022   3.831   7.694   3.990
50709SOL     OW54023  13.463  12.773   4.792
50709SOL    HW154024  13.440  12.860   4.823
50709SOL    HW254025  13.435  12.772   4.700
50710SOL     OW54026   2.167   6.407   3.996
50710SOL    HW154027   2.102   6.340   4.018
50710SOL    HW254028   2.176   6.458   4.077
50711SOL     OW54029  14.536   5.483   0.681
50711SOL    HW154030  14.624   5.492   0.644
50711SOL    HW254031  14.548   5.431   0.760
50712SOL     OW54032   2.162  11.865  14.211
50712SOL    HW154033   2.137  11.830  14.125
50712SOL    HW254034   2.171  11.959  14.196
50713SOL     OW54035  11.024   1.952   3.719
50713SOL    HW154036  11.041   1.968   3.626
50713SOL    HW254037  11.111   1.951   3.759
50714SOL     OW54038  14.624   7.824   0.500
50714SOL    HW154039  14.589   7.887   0.563
50714SOL    HW254040  14.547   7.789   0.455
50715SOL     OW54041   9.527   6.695   1.470
50715SOL    HW154042   9.532   6.681   1.375
50715SOL    HW254043   9.597   6.640   1.505
50716SOL     OW54044   0.830   8.562  10.589
50716SOL    HW154045   0.794   8.582  10.503
50716SOL    HW254046   0.923   8.581  10.581
50717SOL     OW54047   4.663   9.819   1.716
50717SOL    HW154048   4.651   9.728   1.690
50717SOL    HW254049   4.582   9.843   1.760
50718SOL     OW54050   1.529  13.241  14.188
50718SOL    HW154051   1.458  13.184  14.216
50718SOL    HW254052   1.599  13.224  14.250
50719SOL     OW54053  14.576   2.354   4.065
50719SOL    HW154054  14.493   2.309   4.080
50719SOL    HW254055  14.636   2.285   4.037
50720SOL     OW54056   7.517   9.016   9.035
50720SOL    HW154057   7.469   9.098   9.028
50720SOL    HW254058   7.450   8.951   9.057
50721SOL     OW54059   0.850   7.857   2.752
50721SOL    HW154060   0.899   7.780   2.782
50721SOL    HW254061   0.759   7.838   2.774
50722SOL     OW54062   0.241   7.611   5.307
50722SOL    HW154063   0.313   7.599   5.245
50722SOL    HW254064   0.255   7.699   5.344
50723SOL     OW54065  12.223   6.197   4.556
50723SOL    HW154066  12.211   6.109   4.592
50723SOL    HW254067  12.189   6.190   4.466
50724SOL     OW54068   7.851   6.515   1.332
50724SOL    HW154069   7.923   6.501   1.271
50724SOL    HW254070   7.851   6.609   1.348
50725SOL     OW54071  14.385  13.466   7.161
50725SOL    HW154072  14.359  13.522   7.089
50725SOL    HW254073  14.326  13.391   7.156
50726SOL     OW54074   0.957   7.794  14.860
50726SOL    HW154075   0.923   7.873   0.029
50726SOL    HW254076   1.052   7.801  14.868
50727SOL     OW54077   1.281  14.534  10.694
50727SOL    HW154078   1.197  14.577  10.711
50727SOL    HW254079   1.262  14.468  10.628
50728SOL     OW54080   2.037   7.257  11.443
50728SOL    HW154081   2.115   7.206  11.422
50728SOL    HW254082   1.985   7.256  11.363
50729SOL     OW54083   5.701   2.902   5.441
50729SOL    HW154084   5.646   2.962   5.390
50729SOL    HW254085   5.657   2.818   5.436
50730SOL     OW54086   9.528   4.003  14.652
50730SOL    HW154087   9.488   3.928  14.695
50730SOL    HW254088   9.537   3.976  14.560
50731SOL     OW54089   1.587   2.495   5.999
50731SOL    HW154090   1.610   2.420   6.054
50731SOL    HW254091   1.547   2.558   6.059
50732SOL     OW54092   5.610   2.922   4.161
50732SOL    HW154093   5.578   2.843   4.205
50732SOL    HW254094   5.532   2.978   4.154
50733SOL     OW54095   5.460   5.108   6.832
50733SOL    HW154096   5.386   5.076   6.883
50733SOL    HW254097   5.509   5.029   6.808
50734SOL     OW54098   2.320   9.974  13.969
50734SOL    HW154099   2.278   9.948  13.888
50734SOL    HW254100   2.258  10.033  14.012
50735SOL     OW54101   4.762   2.732  11.186
50735SOL    HW154102   4.847   2.751  11.226
50735SOL    HW254103   4.719   2.818  11.179
50736SOL     OW54104   9.213   3.438  10.862
50736SOL    HW154105   9.142   3.431  10.925
50736SOL    HW254106   9.194   3.371  10.797
50737SOL     OW54107   1.598   4.620   6.006
50737SOL    HW154108   1.593   4.579   5.920
50737SOL    HW254109   1.589   4.714   5.989
50738SOL     OW54110  13.287   2.703   8.154
50738SOL    HW154111  13.362   2.724   8.209
50738SOL    HW254112  13.323   2.697   8.066
50739SOL     OW54113   8.270   1.491  11.763
50739SOL    HW154114   8.209   1.557  11.730
50739SOL    HW254115   8.356   1.533  11.756
50740SOL     OW54116  12.506   3.032  14.258
50740SOL    HW154117  12.564   3.108  14.260
50740SOL    HW254118  12.430   3.059  14.310
50741SOL     OW54119  13.467   9.916  12.893
50741SOL    HW154120  13.518   9.928  12.973
50741SOL    HW254121  13.439   9.824  12.896
50742SOL     OW54122   2.050  13.178   4.266
50742SOL    HW154123   2.104  13.202   4.341
50742SOL    HW254124   2.026  13.087   4.282
50743SOL     OW54125  10.836  14.139   4.676
50743SOL    HW154126  10.886  14.082   4.618
50743SOL    HW254127  10.773  14.183   4.619
50744SOL     OW54128   5.195  13.954   7.451
50744SOL    HW154129   5.186  14.024   7.387
50744SOL    HW254130   5.173  13.874   7.403
50745SOL     OW54131   8.587   2.011  11.780
50745SOL    HW154132   8.643   1.941  11.747
50745SOL    HW254133   8.570   2.066  11.703
50746SOL     OW54134  11.180   4.823   3.905
50746SOL    HW154135  11.138   4.909   3.904
50746SOL    HW254136  11.107   4.761   3.905
50747SOL     OW54137   9.088   8.051   7.740
50747SOL    HW154138   9.014   8.104   7.711
50747SOL    HW254139   9.165   8.095   7.703
50748SOL     OW54140   3.431   6.412   4.390
50748SOL    HW154141   3.374   6.426   4.466
50748SOL    HW254142   3.466   6.324   4.401
50749SOL     OW54143  11.320   5.142   7.072
50749SOL    HW154144  11.351   5.232   7.077
50749SOL    HW254145  11.288   5.133   6.982
50750SOL     OW54146  13.161   3.674  12.874
50750SOL    HW154147  13.070   3.687  12.901
50750SOL    HW254148  13.155   3.613  12.800
50751SOL     OW54149   3.598  10.099   1.949
50751SOL    HW154150   3.601  10.017   1.999
50751SOL    HW254151   3.599  10.072   1.858
50752SOL     OW54152  10.107  11.787   5.575
50752SOL    HW154153  10.184  11.731   5.591
50752SOL    HW254154  10.121  11.863   5.632
50753SOL     OW54155   2.674   7.347   3.694
50753SOL    HW154156   2.743   7.411   3.710
50753SOL    HW254157   2.639   7.326   3.780
50754SOL     OW54158   2.038  12.922  13.254
50754SOL    HW154159   1.959  12.942  13.304
50754SOL    HW254160   2.058  12.831  13.276
50755SOL     OW54161   7.522   6.748  10.397
50755SOL    HW154162   7.431   6.718  10.401
50755SOL    HW254163   7.569   6.676  10.354
50756SOL     OW54164  14.099   6.779  14.131
50756SOL    HW154165  14.062   6.812  14.213
50756SOL    HW254166  14.027   6.731  14.091
50757SOL     OW54167   2.398   1.846  10.227
50757SOL    HW154168   2.479   1.801  10.253
50757SOL    HW254169   2.328   1.794  10.267
50758SOL     OW54170  11.194  13.760   1.705
50758SOL    HW154171  11.138  13.682   1.704
50758SOL    HW254172  11.277  13.730   1.740
50759SOL     OW54173  14.679   0.133   3.520
50759SOL    HW154174  14.621   0.056   3.514
50759SOL    HW254175  14.622   0.207   3.498
50760SOL     OW54176  12.873  10.201  11.508
50760SOL    HW154177  12.926  10.231  11.434
50760SOL    HW254178  12.936  10.165  11.570
50761SOL     OW54179   1.471   8.357  10.318
50761SOL    HW154180   1.413   8.341  10.393
50761SOL    HW254181   1.501   8.447  10.330
50762SOL     OW54182   3.052   7.095   2.199
50762SOL    HW154183   3.095   7.038   2.135
50762SOL    HW254184   3.027   7.173   2.149
50763SOL     OW54185   2.680   5.951   2.790
50763SOL    HW154186   2.713   6.018   2.849
50763SOL    HW254187   2.759   5.915   2.748
50764SOL     OW54188  10.878   7.452   8.293
50764SOL    HW154189  10.887   7.534   8.342
50764SOL    HW254190  10.939   7.461   8.220
50765SOL     OW54191   2.417   9.748   6.132
50765SOL    HW154192   2.367   9.772   6.210
50765SOL    HW254193   2.435   9.655   6.143
50766SOL     OW54194  13.533   4.694   5.661
50766SOL    HW154195  13.471   4.747   5.710
50766SOL    HW254196  13.604   4.755   5.637
50767SOL     OW54197   5.517   2.297   6.578
50767SOL    HW154198   5.541   2.338   6.661
50767SOL    HW254199   5.566   2.215   6.577
50768SOL     OW54200   2.476  14.514  12.422
50768SOL    HW154201   2.528  14.520  12.502
50768SOL    HW254202   2.512  14.438  12.376
50769SOL     OW54203  10.794   9.777  14.522
50769SOL    HW154204  10.844   9.794  14.601
50769SOL    HW254205  10.783   9.682  14.520
50770SOL     OW54206  12.437   8.513   2.980
50770SOL    HW154207  12.358   8.476   3.017
50770SOL    HW254208  12.502   8.443   2.985
50771SOL     OW54209   4.055   1.284  14.207
50771SOL    HW154210   4.146   1.285  14.236
50771SOL    HW254211   4.059   1.321  14.118
50772SOL     OW54212   1.230   6.522   3.117
50772SOL    HW154213   1.195   6.526   3.206
50772SOL    HW254214   1.216   6.610   3.082
50773SOL     OW54215   0.136  13.695   1.285
50773SOL    HW154216   0.087  13.646   1.219
50773SOL    HW254217   0.073  13.710   1.355
50774SOL     OW54218   7.197  12.832   1.221
50774SOL    HW154219   7.140  12.854   1.295
50774SOL    HW254220   7.156  12.755   1.182
50775SOL     OW54221  12.868   2.511   9.169
50775SOL    HW154222  12.823   2.594   9.188
50775SOL    HW254223  12.888   2.515   9.076
50776SOL     OW54224   5.627   2.347   9.518
50776SOL    HW154225   5.624   2.268   9.573
50776SOL    HW254226   5.639   2.314   9.429
50777SOL     OW54227   8.239   7.098  10.722
50777SOL    HW154228   8.216   7.186  10.753
50777SOL    HW254229   8.335   7.100  10.715
50778SOL     OW54230   8.738   0.182   5.340
50778SOL    HW154231   8.724   0.274   5.317
50778SOL    HW254232   8.756   0.138   5.257
50779SOL     OW54233   1.610   6.964   8.228
50779SOL    HW154234   1.688   6.935   8.274
50779SOL    HW254235   1.592   6.895   8.164
50780SOL     OW54236   5.144   3.931  11.424
50780SOL    HW154237   5.175   3.870  11.491
50780SOL    HW254238   5.202   3.917  11.350
50781SOL     OW54239   2.517  13.165   4.829
50781SOL    HW154240   2.498  13.073   4.809
50781SOL    HW254241   2.606  13.179   4.797
50782SOL     OW54242   0.107  11.693   6.134
50782SOL    HW154243   0.141  11.605   6.120
50782SOL    HW254244   0.130  11.741   6.055
50783SOL     OW54245  11.432   0.739   5.752
50783SOL    HW154246  11.490   0.667   5.777
50783SOL    HW254247  11.428   0.735   5.657
50784SOL     OW54248   0.642  14.530  11.554
50784SOL    HW154249   0.624  14.527  11.648
50784SOL    HW254250   0.569  14.579  11.517
50785SOL     OW54251   7.908   2.798   3.088
50785SOL    HW154252   7.999   2.780   3.064
50785SOL    HW254253   7.886   2.730   3.152
50786SOL     OW54254   7.474  11.163   6.505
50786SOL    HW154255   7.452  11.182   6.414
50786SOL    HW254256   7.539  11.229   6.528
50787SOL     OW54257   5.492  12.035   7.034
50787SOL    HW154258   5.535  11.960   7.073
50787SOL    HW254259   5.405  12.004   7.009
50788SOL     OW54260  13.512   0.963   7.475
50788SOL    HW154261  13.497   1.048   7.516
50788SOL    HW254262  13.605   0.946   7.487
50789SOL     OW54263  13.211   1.037   0.007
50789SOL    HW154264  13.178   0.961  14.830
50789SOL    HW254265  13.305   1.037  14.863
50790SOL     OW54266   6.693  13.073   2.124
50790SOL    HW154267   6.752  13.062   2.049
50790SOL    HW254268   6.661  13.163   2.116
50791SOL     OW54269   3.079   6.044   8.940
50791SOL    HW154270   3.028   6.109   8.891
50791SOL    HW254271   3.157   6.090   8.968
50792SOL     OW54272  14.366  14.529   6.518
50792SOL    HW154273  14.322  14.546   6.435
50792SOL    HW254274  14.304  14.557   6.585
50793SOL     OW54275  11.800   1.772   5.963
50793SOL    HW154276  11.744   1.731   6.029
50793SOL    HW254277  11.856   1.702   5.931
50794SOL     OW54278  10.797  11.027   3.330
50794SOL    HW154279  10.823  11.116   3.306
50794SOL    HW254280  10.717  11.039   3.382
50795SOL     OW54281   1.970   7.610   5.179
50795SOL    HW154282   1.899   7.610   5.114
50795SOL    HW254283   1.947   7.681   5.239
50796SOL     OW54284   1.063   0.530   7.143
50796SOL    HW154285   0.994   0.509   7.206
50796SOL    HW254286   1.076   0.625   7.152
50797SOL     OW54287   7.351   1.894   9.428
50797SOL    HW154288   7.387   1.979   9.404
50797SOL    HW254289   7.333   1.851   9.344
50798SOL     OW54290   4.774   6.684   0.655
50798SOL    HW154291   4.798   6.655   0.566
50798SOL    HW254292   4.841   6.748   0.678
50799SOL     OW54293   3.131   0.959  10.157
50799SOL    HW154294   3.051   0.973  10.208
50799SOL    HW254295   3.199   0.944  10.223
50800SOL     OW54296   5.751   5.841   6.843
50800SOL    HW154297   5.718   5.907   6.782
50800SOL    HW254298   5.702   5.762   6.820
50801SOL     OW54299   9.421   3.558   5.793
50801SOL    HW154300   9.456   3.491   5.735
50801SOL    HW254301   9.411   3.514   5.877
50802SOL     OW54302  13.385   8.155  10.072
50802SOL    HW154303  13.371   8.069  10.033
50802SOL    HW254304  13.466   8.187  10.032
50803SOL     OW54305  11.154   6.402   0.026
50803SOL    HW154306  11.082   6.380  14.839
50803SOL    HW254307  11.112   6.429   0.107
50804SOL     OW54308   1.498  10.765  14.016
50804SOL    HW154309   1.500  10.856  13.986
50804SOL    HW254310   1.505  10.713  13.936
50805SOL     OW54311   2.465   8.171   0.805
50805SOL    HW154312   2.372   8.162   0.784
50805SOL    HW254313   2.489   8.257   0.770
50806SOL     OW54314  10.692  13.671   6.513
50806SOL    HW154315  10.773  13.702   6.473
50806SOL    HW254316  10.700  13.576   6.515
50807SOL     OW54317   8.486   7.971  12.678
50807SOL    HW154318   8.493   7.970  12.773
50807SOL    HW254319   8.469   8.062  12.656
50808SOL     OW54320   4.290  10.134  14.176
50808SOL    HW154321   4.237  10.079  14.235
50808SOL    HW254322   4.282  10.222  14.212
50809SOL     OW54323  12.542  10.875   7.035
50809SOL    HW154324  12.453  10.858   7.066
50809SOL    HW254325  12.553  10.969   7.046
50810SOL     OW54326   2.673   5.190  13.758
50810SOL    HW154327   2.605   5.198  13.825
50810SOL    HW254328   2.628   5.154  13.682
50811SOL     OW54329  12.270   6.176  10.441
50811SOL    HW154330  12.282   6.083  10.463
50811SOL    HW254331  12.329   6.191  10.367
50812SOL     OW54332   9.244   9.703   1.426
50812SOL    HW154333   9.178   9.762   1.388
50812SOL    HW254334   9.256   9.736   1.516
50813SOL     OW54335   8.784  14.754  13.003
50813SOL    HW154336   8.758  14.674  13.049
50813SOL    HW254337   8.880  14.755  13.010
50814SOL     OW54338  11.259   8.707   6.824
50814SOL    HW154339  11.258   8.796   6.857
50814SOL    HW254340  11.285   8.653   6.899
50815SOL     OW54341   9.434  13.602   2.145
50815SOL    HW154342   9.397  13.515   2.161
50815SOL    HW254343   9.431  13.645   2.231
50816SOL     OW54344  10.796  12.158  11.633
50816SOL    HW154345  10.751  12.162  11.718
50816SOL    HW254346  10.886  12.137  11.655
50817SOL     OW54347   8.568  12.881  10.997
50817SOL    HW154348   8.550  12.954  10.939
50817SOL    HW254349   8.488  12.828  10.996
50818SOL     OW54350   7.205   6.214   4.989
50818SOL    HW154351   7.142   6.186   4.923
50818SOL    HW254352   7.237   6.133   5.028
50819SOL     OW54353   9.630   8.405  11.490
50819SOL    HW154354   9.586   8.403  11.405
50819SOL    HW254355   9.577   8.349  11.546
50820SOL     OW54356   7.603   8.206   0.601
50820SOL    HW154357   7.517   8.182   0.567
50820SOL    HW254358   7.603   8.301   0.603
50821SOL     OW54359   7.712  13.900   7.721
50821SOL    HW154360   7.616  13.906   7.725
50821SOL    HW254361   7.740  13.903   7.812
50822SOL     OW54362   1.715   9.505  13.539
50822SOL    HW154363   1.728   9.485  13.632
50822SOL    HW254364   1.767   9.439  13.493
50823SOL     OW54365  11.079   6.380   4.500
50823SOL    HW154366  11.119   6.345   4.579
50823SOL    HW254367  10.995   6.335   4.493
50824SOL     OW54368   9.222   9.113  11.130
50824SOL    HW154369   9.184   9.062  11.201
50824SOL    HW254370   9.273   9.049  11.080
50825SOL     OW54371   2.574   6.504   4.188
50825SOL    HW154372   2.530   6.589   4.197
50825SOL    HW254373   2.518   6.454   4.130
50826SOL     OW54374   9.124  12.777   8.785
50826SOL    HW154375   9.111  12.709   8.852
50826SOL    HW254376   9.184  12.839   8.826
50827SOL     OW54377   6.451   0.790   0.612
50827SOL    HW154378   6.400   0.719   0.651
50827SOL    HW254379   6.415   0.870   0.652
50828SOL     OW54380   0.156   0.873   1.916
50828SOL    HW154381   0.160   0.840   1.827
50828SOL    HW254382   0.063   0.886   1.934
50829SOL     OW54383   7.030  11.165   6.592
50829SOL    HW154384   7.104  11.104   6.596
50829SOL    HW254385   7.001  11.162   6.501
50830SOL     OW54386   4.000  10.717   8.240
50830SOL    HW154387   4.023  10.626   8.258
50830SOL    HW254388   3.906  10.722   8.257
50831SOL     OW54389  10.112   5.733   4.616
50831SOL    HW154390  10.090   5.640   4.612
50831SOL    HW254391  10.041   5.776   4.568
50832SOL     OW54392  10.821   2.755   8.820
50832SOL    HW154393  10.821   2.675   8.768
50832SOL    HW254394  10.737   2.754   8.865
50833SOL     OW54395   8.043   8.907   1.538
50833SOL    HW154396   8.108   8.922   1.607
50833SOL    HW254397   7.992   8.988   1.535
50834SOL     OW54398   2.758   2.488   0.001
50834SOL    HW154399   2.809   2.553   0.048
50834SOL    HW254400   2.679   2.476   0.054
50835SOL     OW54401   2.345   2.658   2.678
50835SOL    HW154402   2.414   2.678   2.741
50835SOL    HW254403   2.280   2.726   2.690
50836SOL     OW54404  13.911  12.741   0.659
50836SOL    HW154405  13.906  12.757   0.565
50836SOL    HW254406  13.830  12.780   0.694
50837SOL     OW54407  14.686   9.600  11.580
50837SOL    HW154408  14.596   9.590  11.547
50837SOL    HW254409  14.739   9.547  11.520
50838SOL     OW54410   3.840  11.769  12.758
50838SOL    HW154411   3.932  11.764  12.733
50838SOL    HW254412   3.818  11.861  12.749
50839SOL     OW54413  14.262   3.607   6.992
50839SOL    HW154414  14.351   3.633   7.018
50839SOL    HW254415  14.216   3.593   7.075
50840SOL     OW54416   0.723   6.802  11.547
50840SOL    HW154417   0.760   6.784  11.461
50840SOL    HW254418   0.628   6.807  11.532
50841SOL     OW54419   0.252   0.284   4.213
50841SOL    HW154420   0.194   0.267   4.287
50841SOL    HW254421   0.335   0.310   4.254
50842SOL     OW54422   8.759   6.816   7.201
50842SOL    HW154423   8.796   6.772   7.124
50842SOL    HW254424   8.831   6.868   7.236
50843SOL     OW54425   5.937   9.876   1.591
50843SOL    HW154426   5.875   9.917   1.530
50843SOL    HW254427   5.892   9.798   1.622
50844SOL     OW54428   5.769   4.529  12.290
50844SOL    HW154429   5.802   4.467  12.356
50844SOL    HW254430   5.674   4.527  12.302
50845SOL     OW54431   7.438   2.291   2.546
50845SOL    HW154432   7.501   2.340   2.492
50845SOL    HW254433   7.367   2.269   2.486
50846SOL     OW54434   5.625   2.420   7.379
50846SOL    HW154435   5.664   2.498   7.418
50846SOL    HW254436   5.648   2.424   7.286
50847SOL     OW54437   5.659  10.877   5.802
50847SOL    HW154438   5.709  10.893   5.722
50847SOL    HW254439   5.589  10.942   5.799
50848SOL     OW54440   3.635  13.797  13.689
50848SOL    HW154441   3.557  13.778  13.741
50848SOL    HW254442   3.602  13.834  13.608
50849SOL     OW54443   9.656   4.963   7.781
50849SOL    HW154444   9.586   4.925   7.728
50849SOL    HW254445   9.715   5.004   7.717
50850SOL     OW54446  13.119   0.756  11.147
50850SOL    HW154447  13.029   0.728  11.132
50850SOL    HW254448  13.156   0.690  11.206
50851SOL     OW54449   9.338  12.441   8.838
50851SOL    HW154450   9.363  12.446   8.745
50851SOL    HW254451   9.368  12.524   8.875
50852SOL     OW54452   9.024   5.646   6.730
50852SOL    HW154453   9.044   5.725   6.679
50852SOL    HW254454   9.110   5.609   6.751
50853SOL     OW54455   6.396   0.475   5.986
50853SOL    HW154456   6.392   0.430   6.071
50853SOL    HW254457   6.473   0.439   5.943
50854SOL     OW54458   1.393  10.445  14.069
50854SOL    HW154459   1.331  10.375  14.090
50854SOL    HW254460   1.364  10.519  14.123
50855SOL     OW54461   4.420  10.818  12.846
50855SOL    HW154462   4.503  10.773  12.829
50855SOL    HW254463   4.404  10.805  12.939
50856SOL     OW54464  10.745  11.128  13.201
50856SOL    HW154465  10.754  11.149  13.294
50856SOL    HW254466  10.651  11.116  13.188
50857SOL     OW54467   2.868   9.899  12.088
50857SOL    HW154468   2.801   9.940  12.143
50857SOL    HW254469   2.858   9.805  12.105
50858SOL     OW54470  10.876   1.891   9.758
50858SOL    HW154471  10.839   1.808   9.788
50858SOL    HW254472  10.829   1.910   9.677
50859SOL     OW54473   7.277   8.376   3.672
50859SOL    HW154474   7.203   8.395   3.730
50859SOL    HW254475   7.341   8.445   3.692
50860SOL     OW54476   3.432   8.916  10.700
50860SOL    HW154477   3.432   8.829  10.739
50860SOL    HW254478   3.459   8.902  10.609
50861SOL     OW54479   7.794  13.356   1.313
50861SOL    HW154480   7.811  13.276   1.262
50861SOL    HW254481   7.700  13.352   1.332
50862SOL     OW54482   4.149   0.989  13.071
50862SOL    HW154483   4.175   0.897  13.069
50862SOL    HW254484   4.079   0.996  13.007
50863SOL     OW54485   0.137   1.047  11.602
50863SOL    HW154486   0.205   1.023  11.664
50863SOL    HW254487   0.111   1.136  11.627
50864SOL     OW54488  11.530   2.019   2.424
50864SOL    HW154489  11.607   2.065   2.390
50864SOL    HW254490  11.526   2.044   2.516
50865SOL     OW54491   7.569   4.531   6.463
50865SOL    HW154492   7.566   4.443   6.427
50865SOL    HW254493   7.539   4.521   6.553
50866SOL     OW54494   6.559   5.818  12.786
50866SOL    HW154495   6.479   5.811  12.734
50866SOL    HW254496   6.616   5.876  12.736
50867SOL     OW54497   2.429  14.773  13.441
50867SOL    HW154498   2.392  14.729  13.517
50867SOL    HW254499   2.372  14.748  13.368
50868SOL     OW54500  13.834   4.037   4.155
50868SOL    HW154501  13.859   4.129   4.159
50868SOL    HW254502  13.884   3.995   4.225
50869SOL     OW54503  13.922   5.853   8.460
50869SOL    HW154504  13.994   5.880   8.403
50869SOL    HW254505  13.843   5.881   8.413
50870SOL     OW54506   1.692   8.931   3.930
50870SOL    HW154507   1.608   8.974   3.917
50870SOL    HW254508   1.712   8.945   4.023
50871SOL     OW54509   3.204   4.626  11.298
50871SOL    HW154510   3.149   4.694  11.338
50871SOL    HW254511   3.176   4.545  11.341
50872SOL     OW54512   0.530   3.455  11.587
50872SOL    HW154513   0.448   3.432  11.542
50872SOL    HW254514   0.502   3.480  11.675
50873SOL     OW54515   1.560   7.533   5.386
50873SOL    HW154516   1.529   7.605   5.331
50873SOL    HW254517   1.506   7.458   5.361
50874SOL     OW54518   5.955   5.830   7.376
50874SOL    HW154519   5.903   5.850   7.297
50874SOL    HW254520   6.042   5.866   7.357
50875SOL     OW54521  12.710   4.619   0.509
50875SOL    HW154522  12.760   4.566   0.571
50875SOL    HW254523  12.775   4.677   0.470
50876SOL     OW54524  14.837   6.923   1.546
50876SOL    HW154525  14.804   7.006   1.582
50876SOL    HW254526  14.820   6.859   1.615
50877SOL     OW54527   0.264   7.896   4.674
50877SOL    HW154528   0.210   7.858   4.743
50877SOL    HW254529   0.213   7.885   4.594
50878SOL     OW54530  12.011   5.930  11.472
50878SOL    HW154531  11.947   5.948  11.403
50878SOL    HW254532  11.959   5.896  11.545
50879SOL     OW54533  11.816   5.337   7.120
50879SOL    HW154534  11.873   5.350   7.196
50879SOL    HW254535  11.775   5.252   7.135
50880SOL     OW54536   6.909   0.889   0.664
50880SOL    HW154537   6.848   0.878   0.591
50880SOL    HW254538   6.975   0.821   0.651
50881SOL     OW54539   1.403  11.976   8.654
50881SOL    HW154540   1.369  12.060   8.623
50881SOL    HW254541   1.374  11.970   8.745
50882SOL     OW54542   3.431  10.187   5.375
50882SOL    HW154543   3.346  10.174   5.417
50882SOL    HW254544   3.444  10.110   5.320
50883SOL     OW54545   4.499  13.634  10.999
50883SOL    HW154546   4.561  13.698  10.963
50883SOL    HW254547   4.554  13.569  11.041
50884SOL     OW54548  10.630  14.250   1.788
50884SOL    HW154549  10.580  14.217   1.863
50884SOL    HW254550  10.722  14.237   1.812
50885SOL     OW54551   0.474  14.424   6.114
50885SOL    HW154552   0.403  14.361   6.121
50885SOL    HW254553   0.444  14.499   6.166
50886SOL     OW54554   2.654   4.920   8.666
50886SOL    HW154555   2.743   4.946   8.641
50886SOL    HW254556   2.617   4.997   8.708
50887SOL     OW54557   6.085   5.273   3.810
50887SOL    HW154558   6.106   5.341   3.874
50887SOL    HW254559   6.088   5.191   3.860
50888SOL     OW54560  14.244  14.009   4.325
50888SOL    HW154561  14.321  13.993   4.379
50888SOL    HW254562  14.267  14.086   4.272
50889SOL     OW54563   7.581   1.235  12.631
50889SOL    HW154564   7.623   1.319  12.648
50889SOL    HW254565   7.491   1.247  12.662
50890SOL     OW54566  11.736   0.982  10.365
50890SOL    HW154567  11.703   1.016  10.282
50890SOL    HW254568  11.708   1.046  10.430
50891SOL     OW54569   0.664   2.732   7.042
50891SOL    HW154570   0.614   2.809   7.066
50891SOL    HW254571   0.755   2.756   7.057
50892SOL     OW54572   0.786   8.938   6.229
50892SOL    HW154573   0.803   8.958   6.137
50892SOL    HW254574   0.871   8.912   6.264
50893SOL     OW54575   8.476  11.849  12.008
50893SOL    HW154576   8.452  11.865  11.917
50893SOL    HW254577   8.569  11.873  12.013
50894SOL     OW54578   3.591  10.383   8.772
50894SOL    HW154579   3.621  10.373   8.681
50894SOL    HW254580   3.645  10.455   8.806
50895SOL     OW54581   0.971   0.161   5.603
50895SOL    HW154582   0.881   0.187   5.584
50895SOL    HW254583   0.963   0.102   5.678
50896SOL     OW54584  12.225   2.579  12.984
50896SOL    HW154585  12.294   2.542  12.928
50896SOL    HW254586  12.186   2.648  12.931
50897SOL     OW54587   7.185  10.915   0.977
50897SOL    HW154588   7.145  10.926   1.063
50897SOL    HW254589   7.200  11.005   0.946
50898SOL     OW54590   5.389  14.140  10.683
50898SOL    HW154591   5.362  14.056  10.646
50898SOL    HW254592   5.348  14.205  10.626
50899SOL     OW54593   6.830   6.379   1.668
50899SOL    HW154594   6.871   6.357   1.584
50899SOL    HW254595   6.846   6.302   1.723
50900SOL     OW54596  11.079  13.027  11.080
50900SOL    HW154597  11.114  13.096  11.024
50900SOL    HW254598  11.025  12.973  11.021
50901SOL     OW54599   6.234  12.918  11.621
50901SOL    HW154600   6.237  12.822  11.614
50901SOL    HW254601   6.302  12.948  11.561
50902SOL     OW54602   5.223  12.825   1.249
50902SOL    HW154603   5.305  12.777   1.260
50902SOL    HW254604   5.215  12.877   1.330
50903SOL     OW54605  10.215   5.192   7.462
50903SOL    HW154606  10.137   5.201   7.408
50903SOL    HW254607  10.273   5.263   7.434
50904SOL     OW54608   5.994  13.725  13.558
50904SOL    HW154609   5.920  13.785  13.567
50904SOL    HW254610   6.002  13.685  13.645
50905SOL     OW54611   2.954  12.253   4.181
50905SOL    HW154612   3.008  12.287   4.110
50905SOL    HW254613   2.891  12.196   4.138
50906SOL     OW54614   8.462   2.023  10.458
50906SOL    HW154615   8.450   2.078  10.381
50906SOL    HW254616   8.414   2.068  10.528
50907SOL     OW54617   5.915   0.955   3.874
50907SOL    HW154618   5.855   0.947   3.799
50907SOL    HW254619   5.872   0.906   3.944
50908SOL     OW54620   1.665   7.420  11.661
50908SOL    HW154621   1.655   7.485  11.730
50908SOL    HW254622   1.759   7.411  11.650
50909SOL     OW54623  11.219   0.748   4.569
50909SOL    HW154624  11.157   0.678   4.547
50909SOL    HW254625  11.190   0.823   4.517
50910SOL     OW54626  13.808   8.225   3.552
50910SOL    HW154627  13.811   8.309   3.507
50910SOL    HW254628  13.898   8.208   3.579
50911SOL     OW54629   1.240  10.540  13.782
50911SOL    HW154630   1.261  10.626  13.819
50911SOL    HW254631   1.198  10.493  13.854
50912SOL     OW54632  13.476   0.790  14.807
50912SOL    HW154633  13.550   0.743  14.846
50912SOL    HW254634  13.408   0.787   0.003
50913SOL     OW54635   2.696   8.441   4.027
50913SOL    HW154636   2.694   8.533   4.052
50913SOL    HW254637   2.789   8.421   4.014
50914SOL     OW54638   4.764   7.093  11.738
50914SOL    HW154639   4.756   7.035  11.813
50914SOL    HW254640   4.760   7.035  11.662
50915SOL     OW54641   1.208  12.130   5.120
50915SOL    HW154642   1.243  12.056   5.070
50915SOL    HW254643   1.129  12.096   5.161
50916SOL     OW54644   8.810   1.081   5.029
50916SOL    HW154645   8.799   1.176   5.031
50916SOL    HW254646   8.827   1.057   5.120
50917SOL     OW54647  13.365   5.746   8.076
50917SOL    HW154648  13.457   5.762   8.097
50917SOL    HW254649  13.343   5.815   8.013
50918SOL     OW54650   7.453   3.463   3.419
50918SOL    HW154651   7.515   3.393   3.398
50918SOL    HW254652   7.458   3.522   3.344
50919SOL     OW54653   7.525  12.136   5.066
50919SOL    HW154654   7.573  12.176   5.138
50919SOL    HW254655   7.590  12.127   4.996
50920SOL     OW54656  11.718   5.316  12.263
50920SOL    HW154657  11.708   5.223  12.281
50920SOL    HW254658  11.666   5.360  12.331
50921SOL     OW54659   3.971   6.251  14.729
50921SOL    HW154660   3.877   6.234  14.742
50921SOL    HW254661   3.974   6.323  14.667
50922SOL     OW54662   4.962  13.569   9.003
50922SOL    HW154663   5.004  13.496   9.049
50922SOL    HW254664   4.975  13.549   8.910
50923SOL     OW54665   0.490  10.961  13.787
50923SOL    HW154666   0.406  11.004  13.768
50923SOL    HW254667   0.555  11.029  13.770
50924SOL     OW54668   7.783  11.681  13.408
50924SOL    HW154669   7.738  11.601  13.382
50924SOL    HW254670   7.831  11.709  13.330
50925SOL     OW54671   2.789   7.914   7.080
50925SOL    HW154672   2.879   7.922   7.113
50925SOL    HW254673   2.756   7.834   7.122
50926SOL     OW54674   4.211   0.428   0.169
50926SOL    HW154675   4.264   0.487   0.115
50926SOL    HW254676   4.232   0.341   0.137
50927SOL     OW54677   3.778   5.875   3.711
50927SOL    HW154678   3.856   5.923   3.740
50927SOL    HW254679   3.713   5.943   3.696
50928SOL     OW54680   1.963   8.520   5.455
50928SOL    HW154681   1.953   8.430   5.422
50928SOL    HW254682   2.027   8.512   5.526
50929SOL     OW54683   5.029   1.283  13.176
50929SOL    HW154684   5.024   1.317  13.086
50929SOL    HW254685   4.944   1.242  13.191
50930SOL     OW54686   2.761   1.877   8.485
50930SOL    HW154687   2.781   1.829   8.405
50930SOL    HW254688   2.727   1.811   8.545
50931SOL     OW54689   1.418  11.282  12.786
50931SOL    HW154690   1.480  11.347  12.818
50931SOL    HW254691   1.333  11.326  12.787
50932SOL     OW54692   8.515  12.004   2.818
50932SOL    HW154693   8.447  12.071   2.833
50932SOL    HW254694   8.559  11.997   2.903
50933SOL     OW54695  11.931  11.197   4.220
50933SOL    HW154696  12.021  11.229   4.221
50933SOL    HW254697  11.925  11.139   4.295
50934SOL     OW54698  11.919   1.982   5.584
50934SOL    HW154699  11.891   1.903   5.630
50934SOL    HW254700  11.838   2.022   5.552
50935SOL     OW54701   3.744   5.889   4.115
50935SOL    HW154702   3.716   5.943   4.040
50935SOL    HW254703   3.673   5.898   4.179
50936SOL     OW54704  10.233   3.075  12.574
50936SOL    HW154705  10.203   3.070  12.665
50936SOL    HW254706  10.305   3.139  12.576
50937SOL     OW54707  13.093  10.038   3.146
50937SOL    HW154708  12.998  10.035   3.154
50937SOL    HW254709  13.113   9.976   3.076
50938SOL     OW54710   3.794  11.220   6.656
50938SOL    HW154711   3.752  11.193   6.737
50938SOL    HW254712   3.880  11.177   6.658
50939SOL     OW54713   4.061   4.096   5.754
50939SOL    HW154714   4.154   4.078   5.765
50939SOL    HW254715   4.058   4.176   5.702
50940SOL     OW54716  13.692  10.412   9.081
50940SOL    HW154717  13.776  10.406   9.038
50940SOL    HW254718  13.647  10.331   9.060
50941SOL     OW54719   0.322   9.791   4.870
50941SOL    HW154720   0.235   9.777   4.832
50941SOL    HW254721   0.331   9.886   4.874
50942SOL     OW54722  12.557   4.465   4.857
50942SOL    HW154723  12.629   4.406   4.834
50942SOL    HW254724  12.502   4.414   4.916
50943SOL     OW54725   0.284   1.155   6.870
50943SOL    HW154726   0.284   1.247   6.842
50943SOL    HW254727   0.228   1.111   6.805
50944SOL     OW54728   2.426  13.186   8.284
50944SOL    HW154729   2.403  13.271   8.245
50944SOL    HW254730   2.343  13.145   8.305
50945SOL     OW54731   7.737  13.495   7.144
50945SOL    HW154732   7.805  13.460   7.086
50945SOL    HW254733   7.754  13.589   7.146
50946SOL     OW54734  10.408   5.615   8.850
50946SOL    HW154735  10.391   5.524   8.874
50946SOL    HW254736  10.373   5.623   8.761
50947SOL     OW54737   7.649   8.876   6.776
50947SOL    HW154738   7.703   8.797   6.781
50947SOL    HW254739   7.561   8.847   6.802
50948SOL     OW54740  13.125   4.073  10.192
50948SOL    HW154741  13.074   4.123  10.129
50948SOL    HW254742  13.070   3.998  10.214
50949SOL     OW54743   5.125   0.474   1.781
50949SOL    HW154744   5.170   0.504   1.702
50949SOL    HW254745   5.042   0.437   1.750
50950SOL     OW54746   0.876   8.248   5.974
50950SOL    HW154747   0.876   8.159   5.939
50950SOL    HW254748   0.798   8.289   5.937
50951SOL     OW54749   5.197   8.511  13.977
50951SOL    HW154750   5.277   8.461  13.991
50951SOL    HW254751   5.168   8.485  13.889
50952SOL     OW54752  14.543   7.074   7.662
50952SOL    HW154753  14.621   7.074   7.606
50952SOL    HW254754  14.576   7.051   7.749
50953SOL     OW54755   1.761   6.123   1.733
50953SOL    HW154756   1.850   6.112   1.701
50953SOL    HW254757   1.752   6.217   1.748
50954SOL     OW54758  13.394   5.958   8.907
50954SOL    HW154759  13.418   5.940   8.816
50954SOL    HW254760  13.331   6.030   8.901
50955SOL     OW54761   1.217   3.903   7.295
50955SOL    HW154762   1.179   3.846   7.362
50955SOL    HW254763   1.246   3.981   7.343
50956SOL     OW54764  11.571   3.046   9.951
50956SOL    HW154765  11.557   2.998   9.869
50956SOL    HW254766  11.503   3.114   9.951
50957SOL     OW54767  13.506   0.611  11.619
50957SOL    HW154768  13.450   0.683  11.592
50957SOL    HW254769  13.498   0.546  11.550
50958SOL     OW54770   7.133   1.932  12.148
50958SOL    HW154771   7.227   1.951  12.155
50958SOL    HW254772   7.125   1.840  12.173
50959SOL     OW54773   6.515   3.102   6.354
50959SOL    HW154774   6.457   3.092   6.429
50959SOL    HW254775   6.479   3.043   6.288
50960SOL     OW54776  10.828   5.184   1.001
50960SOL    HW154777  10.896   5.184   0.934
50960SOL    HW254778  10.817   5.092   1.024
50961SOL     OW54779   6.852   6.129   0.824
50961SOL    HW154780   6.936   6.110   0.867
50961SOL    HW254781   6.809   6.044   0.817
50962SOL     OW54782  10.277   8.221   2.671
50962SOL    HW154783  10.189   8.185   2.658
50962SOL    HW254784  10.332   8.146   2.691
50963SOL     OW54785   1.437   1.691   8.431
50963SOL    HW154786   1.385   1.622   8.389
50963SOL    HW254787   1.512   1.702   8.373
50964SOL     OW54788   7.870   5.977  14.812
50964SOL    HW154789   7.824   6.034   0.002
50964SOL    HW254790   7.835   6.003  14.726
50965SOL     OW54791   9.001  14.807  11.205
50965SOL    HW154792   8.980   0.022  11.170
50965SOL    HW254793   8.939  14.748  11.162
50966SOL     OW54794   3.398   5.527   9.987
50966SOL    HW154795   3.458   5.452   9.989
50966SOL    HW254796   3.320   5.497  10.034
50967SOL     OW54797   0.970   6.832  14.417
50967SOL    HW154798   1.000   6.744  14.437
50967SOL    HW254799   0.887   6.819  14.370
50968SOL     OW54800   6.185   7.100   1.489
50968SOL    HW154801   6.215   7.068   1.574
50968SOL    HW254802   6.155   7.189   1.506
50969SOL     OW54803   5.466   5.480  12.527
50969SOL    HW154804   5.460   5.497  12.433
50969SOL    HW254805   5.378   5.455  12.553
50970SOL     OW54806   8.292  11.281   4.971
50970SOL    HW154807   8.367  11.226   4.995
50970SOL    HW254808   8.319  11.370   4.993
50971SOL     OW54809   6.784   8.383  14.609
50971SOL    HW154810   6.845   8.450  14.577
50971SOL    HW254811   6.784   8.394  14.704
50972SOL     OW54812   0.738  11.736  14.371
50972SOL    HW154813   0.806  11.777  14.423
50972SOL    HW254814   0.656  11.771  14.405
50973SOL     OW54815   3.158   7.834   4.468
50973SOL    HW154816   3.193   7.886   4.395
50973SOL    HW254817   3.174   7.887   4.545
50974SOL     OW54818  12.115  10.076   5.530
50974SOL    HW154819  12.132  10.051   5.620
50974SOL    HW254820  12.157  10.008   5.477
50975SOL     OW54821   2.491   8.013  12.539
50975SOL    HW154822   2.512   8.025  12.447
50975SOL    HW254823   2.490   7.918  12.551
50976SOL     OW54824  10.504  12.669   1.522
50976SOL    HW154825  10.505  12.754   1.479
50976SOL    HW254826  10.591  12.634   1.507
50977SOL     OW54827   2.240   8.887  10.034
50977SOL    HW154828   2.206   8.976  10.039
50977SOL    HW254829   2.230   8.852  10.123
50978SOL     OW54830   1.011   3.513   3.985
50978SOL    HW154831   1.017   3.544   3.894
50978SOL    HW254832   0.967   3.428   3.979
50979SOL     OW54833   7.442   9.872  14.163
50979SOL    HW154834   7.454   9.802  14.227
50979SOL    HW254835   7.466   9.952  14.209
50980SOL     OW54836  11.642   8.495  14.705
50980SOL    HW154837  11.678   8.517  14.791
50980SOL    HW254838  11.549   8.518  14.712
50981SOL     OW54839   8.192   3.551   7.069
50981SOL    HW154840   8.195   3.638   7.108
50981SOL    HW254841   8.283   3.520   7.072
50982SOL     OW54842   4.498   0.167   3.052
50982SOL    HW154843   4.569   0.209   3.003
50982SOL    HW254844   4.431   0.147   2.986
50983SOL     OW54845   6.354   2.348  10.410
50983SOL    HW154846   6.436   2.396  10.397
50983SOL    HW254847   6.319   2.383  10.491
50984SOL     OW54848   2.945   6.490   5.655
50984SOL    HW154849   3.012   6.435   5.695
50984SOL    HW254850   2.865   6.469   5.704
50985SOL     OW54851  13.049   3.416  11.613
50985SOL    HW154852  13.012   3.392  11.698
50985SOL    HW254853  12.991   3.485  11.580
50986SOL     OW54854  12.831   7.018   7.227
50986SOL    HW154855  12.863   6.934   7.261
50986SOL    HW254856  12.739   7.003   7.208
50987SOL     OW54857  13.485  13.763   5.511
50987SOL    HW154858  13.525  13.690   5.464
50987SOL    HW254859  13.557  13.804   5.558
50988SOL     OW54860   7.634   6.791   8.573
50988SOL    HW154861   7.679   6.762   8.652
50988SOL    HW254862   7.650   6.721   8.509
50989SOL     OW54863   6.849  12.356   9.584
50989SOL    HW154864   6.867  12.308   9.503
50989SOL    HW254865   6.899  12.308   9.651
50990SOL     OW54866   5.719  13.630   6.881
50990SOL    HW154867   5.703  13.719   6.911
50990SOL    HW254868   5.649  13.578   6.922
50991SOL     OW54869  13.954   7.531   7.816
50991SOL    HW154870  13.928   7.564   7.730
50991SOL    HW254871  14.050   7.533   7.815
50992SOL     OW54872   0.889   7.600   5.598
50992SOL    HW154873   0.895   7.653   5.678
50992SOL    HW254874   0.899   7.663   5.527
50993SOL     OW54875  11.191   3.963   4.564
50993SOL    HW154876  11.260   3.898   4.572
50993SOL    HW254877  11.109   3.913   4.569
50994SOL     OW54878  11.523   5.851  13.723
50994SOL    HW154879  11.605   5.823  13.764
50994SOL    HW254880  11.469   5.772  13.720
50995SOL     OW54881   5.595   9.551  11.953
50995SOL    HW154882   5.680   9.574  11.916
50995SOL    HW254883   5.532   9.603  11.903
50996SOL     OW54884   8.107   7.041   8.773
50996SOL    HW154885   8.136   6.969   8.717
50996SOL    HW254886   8.051   7.095   8.716
50997SOL     OW54887   7.213  10.795   0.544
50997SOL    HW154888   7.292  10.846   0.564
50997SOL    HW254889   7.162  10.795   0.625
50998SOL     OW54890   6.560  10.583   8.652
50998SOL    HW154891   6.552  10.572   8.557
50998SOL    HW254892   6.627  10.520   8.678
50999SOL     OW54893  14.668   4.490   0.487
50999SOL    HW154894  14.603   4.554   0.459
50999SOL    HW254895  14.627   4.405   0.471
51000SOL     OW54896   0.291  11.236  14.702
51000SOL    HW154897   0.248  11.319  14.724
51000SOL    HW254898   0.374  11.261  14.662
51001SOL     OW54899   4.132  12.515   0.730
51001SOL    HW154900   4.171  12.452   0.670
51001SOL    HW254901   4.166  12.600   0.701
51002SOL     OW54902   8.261  10.339   8.566
51002SOL    HW154903   8.204  10.331   8.641
51002SOL    HW254904   8.283  10.249   8.541
51003SOL     OW54905   2.627   1.389   2.179
51003SOL    HW154906   2.615   1.301   2.144
51003SOL    HW254907   2.559   1.442   2.137
51004SOL     OW54908   6.743   6.988   2.911
51004SOL    HW154909   6.704   6.975   2.825
51004SOL    HW254910   6.709   6.917   2.964
51005SOL     OW54911  13.202   2.226   6.694
51005SOL    HW154912  13.129   2.288   6.691
51005SOL    HW254913  13.160   2.140   6.683
51006SOL     OW54914   7.064   1.241   1.253
51006SOL    HW154915   7.128   1.210   1.189
51006SOL    HW254916   7.039   1.163   1.302
51007SOL     OW54917  11.601   1.758   2.337
51007SOL    HW154918  11.514   1.721   2.326
51007SOL    HW254919  11.587   1.851   2.357
51008SOL     OW54920   1.597   5.438   8.098
51008SOL    HW154921   1.672   5.449   8.039
51008SOL    HW254922   1.540   5.376   8.053
51009SOL     OW54923  11.509   5.310   4.283
51009SOL    HW154924  11.488   5.226   4.326
51009SOL    HW254925  11.603   5.307   4.270
51010SOL     OW54926   7.687   5.436   2.961
51010SOL    HW154927   7.689   5.524   3.000
51010SOL    HW254928   7.636   5.446   2.881
51011SOL     OW54929   1.382   8.365   7.052
51011SOL    HW154930   1.460   8.417   7.072
51011SOL    HW254931   1.414   8.275   7.050
51012SOL     OW54932   6.240   4.977  13.526
51012SOL    HW154933   6.285   4.946  13.447
51012SOL    HW254934   6.167   4.917  13.538
51013SOL     OW54935  11.687   6.817   7.241
51013SOL    HW154936  11.739   6.804   7.162
51013SOL    HW254937  11.666   6.729   7.272
51014SOL     OW54938   5.291   6.144   7.157
51014SOL    HW154939   5.368   6.093   7.134
51014SOL    HW254940   5.237   6.084   7.209
51015SOL     OW54941   0.740   9.456   2.766
51015SOL    HW154942   0.767   9.449   2.674
51015SOL    HW254943   0.738   9.366   2.797
51016SOL     OW54944   0.250   4.881   7.812
51016SOL    HW154945   0.173   4.872   7.869
51016SOL    HW254946   0.307   4.809   7.838
51017SOL     OW54947   5.482   7.501   0.654
51017SOL    HW154948   5.460   7.593   0.666
51017SOL    HW254949   5.432   7.474   0.577
51018SOL     OW54950   2.748   3.247   6.542
51018SOL    HW154951   2.807   3.307   6.497
51018SOL    HW254952   2.710   3.194   6.472
51019SOL     OW54953   6.372   0.942   3.643
51019SOL    HW154954   6.390   0.850   3.663
51019SOL    HW254955   6.331   0.940   3.557
51020SOL     OW54956   4.712   7.449   3.417
51020SOL    HW154957   4.692   7.507   3.490
51020SOL    HW254958   4.779   7.496   3.367
51021SOL     OW54959  10.163  13.290  14.029
51021SOL    HW154960  10.212  13.285  13.947
51021SOL    HW254961  10.073  13.308  14.002
51022SOL     OW54962   1.688   1.194   4.995
51022SOL    HW154963   1.689   1.198   4.899
51022SOL    HW254964   1.717   1.281   5.023
51023SOL     OW54965  12.269  13.293   1.222
51023SOL    HW154966  12.349  13.274   1.271
51023SOL    HW254967  12.234  13.208   1.197
51024SOL     OW54968   1.602  11.460   2.294
51024SOL    HW154969   1.654  11.464   2.214
51024SOL    HW254970   1.582  11.552   2.314
51025SOL     OW54971   2.138   7.979  10.552
51025SOL    HW154972   2.199   7.907  10.565
51025SOL    HW254973   2.153   8.007  10.461
51026SOL     OW54974   0.382   2.175  13.775
51026SOL    HW154975   0.324   2.120  13.827
51026SOL    HW254976   0.403   2.249  13.832
51027SOL     OW54977  14.819   7.594   5.265
51027SOL    HW154978   0.036   7.621   5.290
51027SOL    HW254979  14.792   7.658   5.199
51028SOL     OW54980   6.328  13.146   9.860
51028SOL    HW154981   6.285  13.063   9.837
51028SOL    HW254982   6.416  13.120   9.888
51029SOL     OW54983   6.047  13.228   7.989
51029SOL    HW154984   6.087  13.153   7.945
51029SOL    HW254985   6.055  13.300   7.927
51030SOL     OW54986   3.736  13.433   2.343
51030SOL    HW154987   3.758  13.477   2.261
51030SOL    HW254988   3.698  13.350   2.316
51031SOL     OW54989  14.660  11.173   5.175
51031SOL    HW154990  14.702  11.257   5.160
51031SOL    HW254991  14.731  11.109   5.167
51032SOL     OW54992   1.261  12.348  12.073
51032SOL    HW154993   1.202  12.393  12.133
51032SOL    HW254994   1.209  12.332  11.995
51033SOL     OW54995   1.646   1.414   7.905
51033SOL    HW154996   1.592   1.381   7.833
51033SOL    HW254997   1.594   1.398   7.984
51034SOL     OW54998   4.436   3.883  11.452
51034SOL    HW154999   4.369   3.904  11.517
51034SOL    HW255000   4.514   3.863  11.502
51035SOL     OW55001   4.663   3.266  13.956
51035SOL    HW155002   4.743   3.220  13.983
51035SOL    HW255003   4.693   3.353  13.929
51036SOL     OW55004   5.950   5.823  10.916
51036SOL    HW155005   5.925   5.895  10.974
51036SOL    HW255006   6.018   5.859  10.860
51037SOL     OW55007  12.167   1.467  14.244
51037SOL    HW155008  12.258   1.467  14.275
51037SOL    HW255009  12.165   1.534  14.177
51038SOL     OW55010  13.183  13.940  11.612
51038SOL    HW155011  13.271  13.939  11.650
51038SOL    HW255012  13.183  13.866  11.551
51039SOL     OW55013   8.373  10.608   7.406
51039SOL    HW155014   8.339  10.649   7.486
51039SOL    HW255015   8.467  10.624   7.410
51040SOL     OW55016  10.465   7.459   9.052
51040SOL    HW155017  10.493   7.377   9.012
51040SOL    HW255018  10.371   7.446   9.068
51041SOL     OW55019   3.340  13.128   9.063
51041SOL    HW155020   3.385  13.067   9.121
51041SOL    HW255021   3.315  13.074   8.987
51042SOL     OW55022   6.933   6.513  12.301
51042SOL    HW155023   6.888   6.597  12.290
51042SOL    HW255024   6.987   6.526  12.379
51043SOL     OW55025   2.022   9.369   5.853
51043SOL    HW155026   1.963   9.397   5.922
51043SOL    HW255027   2.061   9.450   5.820
51044SOL     OW55028   9.149   3.014   6.740
51044SOL    HW155029   9.164   3.108   6.736
51044SOL    HW255030   9.070   3.000   6.687
51045SOL     OW55031   5.039   6.231  10.941
51045SOL    HW155032   5.004   6.320  10.935
51045SOL    HW255033   4.983   6.179  10.883
51046SOL     OW55034  10.034   4.265   4.474
51046SOL    HW155035   9.950   4.285   4.514
51046SOL    HW255036  10.074   4.351   4.459
51047SOL     OW55037   4.340  11.694   6.954
51047SOL    HW155038   4.309  11.621   7.009
51047SOL    HW255039   4.296  11.681   6.870
51048SOL     OW55040  13.822   8.459  12.995
51048SOL    HW155041  13.906   8.505  12.997
51048SOL    HW255042  13.776   8.491  13.072
51049SOL     OW55043   5.640   3.131   4.766
51049SOL    HW155044   5.696   3.120   4.843
51049SOL    HW255045   5.672   3.065   4.704
51050SOL     OW55046  12.054  14.582  13.034
51050SOL    HW155047  12.035  14.657  12.977
51050SOL    HW255048  12.150  14.581  13.041
51051SOL     OW55049   7.867   3.481   5.520
51051SOL    HW155050   7.831   3.570   5.520
51051SOL    HW255051   7.864   3.454   5.429
51052SOL     OW55052  13.978   8.263   1.338
51052SOL    HW155053  13.964   8.310   1.420
51052SOL    HW255054  13.891   8.243   1.306
51053SOL     OW55055   1.333  11.821   0.554
51053SOL    HW155056   1.407  11.777   0.596
51053SOL    HW255057   1.258  11.802   0.611
51054SOL     OW55058   0.183   4.364   7.262
51054SOL    HW155059   0.151   4.276   7.240
51054SOL    HW255060   0.169   4.416   7.184
51055SOL     OW55061   9.815  10.828   4.988
51055SOL    HW155062   9.803  10.844   4.894
51055SOL    HW255063   9.739  10.869   5.030
51056SOL     OW55064   3.474   2.310  12.886
51056SOL    HW155065   3.519   2.306  12.802
51056SOL    HW255066   3.385   2.340  12.865
51057SOL     OW55067   4.927  10.157   9.098
51057SOL    HW155068   4.957  10.080   9.146
51057SOL    HW255069   4.997  10.221   9.111
51058SOL     OW55070  11.291   4.582   2.375
51058SOL    HW155071  11.242   4.654   2.414
51058SOL    HW255072  11.375   4.583   2.421
51059SOL     OW55073   3.015  10.441  12.949
51059SOL    HW155074   2.956  10.412  12.879
51059SOL    HW255075   3.002  10.377  13.019
51060SOL     OW55076   5.656  13.057  14.338
51060SOL    HW155077   5.750  13.040  14.342
51060SOL    HW255078   5.642  13.127  14.401
51061SOL     OW55079  11.498  12.223   5.960
51061SOL    HW155080  11.424  12.235   5.901
51061SOL    HW255081  11.514  12.129   5.961
51062SOL     OW55082  14.128   8.746   9.270
51062SOL    HW155083  14.154   8.755   9.178
51062SOL    HW255084  14.168   8.821   9.314
51063SOL     OW55085  11.426   5.800   3.734
51063SOL    HW155086  11.462   5.888   3.742
51063SOL    HW255087  11.495   5.749   3.692
51064SOL     OW55088   2.957   5.907   5.102
51064SOL    HW155089   2.952   5.864   5.017
51064SOL    HW255090   2.896   5.981   5.096
51065SOL     OW55091   6.359   4.153   3.856
51065SOL    HW155092   6.298   4.220   3.888
51065SOL    HW255093   6.377   4.098   3.932
51066SOL     OW55094   9.752   9.820   0.228
51066SOL    HW155095   9.726   9.867   0.307
51066SOL    HW255096   9.788   9.887   0.170
51067SOL     OW55097   0.292  14.604   2.509
51067SOL    HW155098   0.267  14.576   2.597
51067SOL    HW255099   0.323  14.524   2.465
51068SOL     OW55100  13.840   3.243   3.748
51068SOL    HW155101  13.935   3.234   3.742
51068SOL    HW255102  13.819   3.223   3.839
51069SOL     OW55103   8.985   2.429   3.356
51069SOL    HW155104   8.975   2.451   3.263
51069SOL    HW255105   9.072   2.390   3.362
51070SOL     OW55106  10.847   8.976  10.981
51070SOL    HW155107  10.788   9.052  10.987
51070SOL    HW255108  10.923   9.008  10.932
51071SOL     OW55109   9.217  10.522   7.346
51071SOL    HW155110   9.188  10.518   7.255
51071SOL    HW255111   9.194  10.611   7.375
51072SOL     OW55112  14.798   8.600  13.684
51072SOL    HW155113  14.865   8.564  13.626
51072SOL    HW255114  14.836   8.595  13.771
51073SOL     OW55115   5.451   0.183   4.182
51073SOL    HW155116   5.368   0.184   4.229
51073SOL    HW255117   5.504   0.119   4.228
51074SOL     OW55118   3.690   9.712   5.168
51074SOL    HW155119   3.601   9.702   5.203
51074SOL    HW255120   3.709   9.805   5.177
51075SOL     OW55121   4.163   4.623  10.474
51075SOL    HW155122   4.191   4.713  10.458
51075SOL    HW255123   4.082   4.614  10.424
51076SOL     OW55124  10.238   3.701  10.094
51076SOL    HW155125  10.282   3.771  10.141
51076SOL    HW255126  10.189   3.654  10.161
51077SOL     OW55127  11.931   4.495  11.747
51077SOL    HW155128  11.942   4.530  11.836
51077SOL    HW255129  11.843   4.524  11.721
51078SOL     OW55130   5.064  13.361  10.407
51078SOL    HW155131   5.139  13.373  10.467
51078SOL    HW255132   5.071  13.270  10.379
51079SOL     OW55133   6.448  14.853  13.901
51079SOL    HW155134   6.400  14.789  13.954
51079SOL    HW255135   6.429   0.065  13.942
51080SOL     OW55136   6.250   8.632  11.496
51080SOL    HW155137   6.277   8.661  11.583
51080SOL    HW255138   6.156   8.652  11.492
51081SOL     OW55139  13.458   0.463   6.771
51081SOL    HW155140  13.526   0.522   6.801
51081SOL    HW255141  13.456   0.393   6.837
51082SOL     OW55142  14.215  13.624  12.051
51082SOL    HW155143  14.177  13.711  12.063
51082SOL    HW255144  14.149  13.577  11.999
51083SOL     OW55145  14.135   3.346   7.976
51083SOL    HW155146  14.226   3.361   7.999
51083SOL    HW255147  14.098   3.434   7.965
51084SOL     OW55148   5.014   7.645  10.155
51084SOL    HW155149   5.052   7.562  10.126
51084SOL    HW255150   5.051   7.659  10.242
51085SOL     OW55151   0.394  11.903  13.018
51085SOL    HW155152   0.456  11.924  12.947
51085SOL    HW255153   0.442  11.923  13.098
51086SOL     OW55154  10.333  12.028   3.484
51086SOL    HW155155  10.382  12.102   3.448
51086SOL    HW255156  10.401  11.970   3.518
51087SOL     OW55157   4.880   3.680   6.026
51087SOL    HW155158   4.880   3.712   5.936
51087SOL    HW255159   4.808   3.727   6.068
51088SOL     OW55160   2.111   9.579   7.268
51088SOL    HW155161   2.194   9.534   7.252
51088SOL    HW255162   2.089   9.558   7.359
51089SOL     OW55163  11.570   7.037   4.662
51089SOL    HW155164  11.551   7.076   4.576
51089SOL    HW255165  11.493   6.984   4.682
51090SOL     OW55166   1.848  14.362  14.164
51090SOL    HW155167   1.889  14.278  14.143
51090SOL    HW255168   1.875  14.421  14.094
51091SOL     OW55169   7.927   1.261   3.056
51091SOL    HW155170   7.926   1.181   3.108
51091SOL    HW255171   7.940   1.232   2.966
51092SOL     OW55172   0.908  13.943   4.669
51092SOL    HW155173   0.962  13.876   4.712
51092SOL    HW255174   0.843  13.967   4.734
51093SOL     OW55175   3.865   6.133   2.843
51093SOL    HW155176   3.798   6.100   2.783
51093SOL    HW255177   3.817   6.149   2.925
51094SOL     OW55178  14.225   9.520   1.741
51094SOL    HW155179  14.139   9.494   1.773
51094SOL    HW255180  14.270   9.553   1.819
51095SOL     OW55181  12.216   0.881   7.343
51095SOL    HW155182  12.253   0.798   7.312
51095SOL    HW255183  12.126   0.880   7.312
51096SOL     OW55184  14.261   3.333   9.822
51096SOL    HW155185  14.176   3.320   9.780
51096SOL    HW255186  14.325   3.320   9.752
51097SOL     OW55187  14.344  12.737   3.910
51097SOL    HW155188  14.277  12.751   3.843
51097SOL    HW255189  14.319  12.656   3.954
51098SOL     OW55190   0.712   3.780  10.065
51098SOL    HW155191   0.741   3.871  10.076
51098SOL    HW255192   0.631   3.787  10.014
51099SOL     OW55193   5.541   6.924   1.489
51099SOL    HW155194   5.547   6.978   1.568
51099SOL    HW255195   5.565   6.983   1.417
51100SOL     OW55196  12.097   8.672   7.482
51100SOL    HW155197  12.139   8.736   7.540
51100SOL    HW255198  12.049   8.725   7.419
51101SOL     OW55199   9.797  14.569  10.200
51101SOL    HW155200   9.815  14.663  10.201
51101SOL    HW255201   9.785  14.548  10.107
51102SOL     OW55202  13.469   7.836  10.349
51102SOL    HW155203  13.486   7.930  10.350
51102SOL    HW255204  13.484   7.810  10.258
51103SOL     OW55205  14.063  10.343   1.274
51103SOL    HW155206  14.026  10.258   1.252
51103SOL    HW255207  13.988  10.403   1.275
51104SOL     OW55208   3.731   6.578  13.848
51104SOL    HW155209   3.786   6.584  13.926
51104SOL    HW255210   3.678   6.499  13.862
51105SOL     OW55211   5.856  11.929   3.646
51105SOL    HW155212   5.795  11.855   3.656
51105SOL    HW255213   5.804  11.996   3.601
51106SOL     OW55214   4.487   9.504   1.724
51106SOL    HW155215   4.561   9.487   1.665
51106SOL    HW255216   4.507   9.452   1.802
51107SOL     OW55217   4.843  11.890   8.612
51107SOL    HW155218   4.792  11.960   8.654
51107SOL    HW255219   4.877  11.838   8.684
51108SOL     OW55220   7.952   6.878   8.159
51108SOL    HW155221   7.900   6.905   8.235
51108SOL    HW255222   7.913   6.924   8.085
51109SOL     OW55223   0.090   4.422  10.652
51109SOL    HW155224   0.041   4.367  10.590
51109SOL    HW255225   0.179   4.387  10.651
51110SOL     OW55226   5.900   4.204  11.436
51110SOL    HW155227   5.987   4.243  11.430
51110SOL    HW255228   5.893   4.147  11.360
51111SOL     OW55229  10.283   8.191  12.276
51111SOL    HW155230  10.328   8.217  12.196
51111SOL    HW255231  10.339   8.124  12.315
51112SOL     OW55232   6.847   3.412   0.524
51112SOL    HW155233   6.863   3.320   0.549
51112SOL    HW255234   6.894   3.463   0.591
51113SOL     OW55235  11.498   0.139   6.487
51113SOL    HW155236  11.559   0.177   6.550
51113SOL    HW255237  11.546   0.065   6.449
51114SOL     OW55238   6.693   0.747  13.201
51114SOL    HW155239   6.599   0.766  13.200
51114SOL    HW255240   6.732   0.813  13.144
51115SOL     OW55241   6.961   6.435   7.045
51115SOL    HW155242   6.978   6.529   7.037
51115SOL    HW255243   7.047   6.395   7.032
51116SOL     OW55244  12.895   4.831  10.066
51116SOL    HW155245  12.805   4.857  10.088
51116SOL    HW255246  12.949   4.877  10.131
51117SOL     OW55247   1.614  13.786   1.194
51117SOL    HW155248   1.640  13.848   1.262
51117SOL    HW255249   1.677  13.715   1.201
51118SOL     OW55250  11.033  11.189   1.106
51118SOL    HW155251  10.986  11.173   1.024
51118SOL    HW255252  10.964  11.211   1.169
51119SOL     OW55253   1.291  13.213  10.415
51119SOL    HW155254   1.338  13.147  10.364
51119SOL    HW255255   1.357  13.252  10.472
51120SOL     OW55256   9.239  12.345  11.929
51120SOL    HW155257   9.188  12.426  11.919
51120SOL    HW255258   9.279  12.330  11.844
51121SOL     OW55259   4.171   6.106  14.391
51121SOL    HW155260   4.167   6.024  14.441
51121SOL    HW255261   4.212   6.083  14.309
51122SOL     OW55262  14.022   4.984  11.744
51122SOL    HW155263  14.110   4.948  11.753
51122SOL    HW255264  13.969   4.909  11.717
51123SOL     OW55265   8.935   6.638   5.977
51123SOL    HW155266   8.865   6.583   6.013
51123SOL    HW255267   8.977   6.583   5.911
51124SOL     OW55268   8.788  10.634   3.107
51124SOL    HW155269   8.841  10.642   3.028
51124SOL    HW255270   8.700  10.616   3.075
51125SOL     OW55271   7.418   5.282   7.757
51125SOL    HW155272   7.483   5.352   7.753
51125SOL    HW255273   7.369   5.289   7.676
51126SOL     OW55274  12.807   4.034   6.014
51126SOL    HW155275  12.899   4.050   5.993
51126SOL    HW255276  12.764   4.119   6.002
51127SOL     OW55277   7.280  12.780  13.867
51127SOL    HW155278   7.210  12.747  13.923
51127SOL    HW255279   7.274  12.727  13.788
51128SOL     OW55280   2.489   3.666  11.880
51128SOL    HW155281   2.456   3.576  11.881
51128SOL    HW255282   2.580   3.658  11.850
51129SOL     OW55283   3.544   9.516  12.395
51129SOL    HW155284   3.627   9.563  12.392
51129SOL    HW255285   3.482   9.578  12.433
51130SOL     OW55286   2.514   0.953   3.547
51130SOL    HW155287   2.455   0.996   3.608
51130SOL    HW255288   2.585   0.919   3.601
51131SOL     OW55289   2.746   8.466   6.447
51131SOL    HW155290   2.706   8.467   6.534
51131SOL    HW255291   2.795   8.548   6.443
51132SOL     OW55292   8.850   9.987   1.869
51132SOL    HW155293   8.902  10.004   1.947
51132SOL    HW255294   8.778  10.050   1.874
51133SOL     OW55295  14.055   0.109  10.728
51133SOL    HW155296  14.088   0.026  10.760
51133SOL    HW255297  14.106   0.127  10.649
51134SOL     OW55298   3.358   9.903   8.420
51134SOL    HW155299   3.377   9.989   8.458
51134SOL    HW255300   3.305   9.859   8.486
51135SOL     OW55301   0.671   3.891   8.584
51135SOL    HW155302   0.587   3.926   8.554
51135SOL    HW255303   0.657   3.796   8.587
51136SOL     OW55304   4.769   9.173   9.984
51136SOL    HW155305   4.816   9.214  10.057
51136SOL    HW255306   4.830   9.106   9.951
51137SOL     OW55307  12.065  13.518   5.372
51137SOL    HW155308  12.007  13.529   5.297
51137SOL    HW255309  12.119  13.442   5.349
51138SOL     OW55310   4.112  14.714   8.416
51138SOL    HW155311   4.058  14.655   8.468
51138SOL    HW255312   4.051  14.755   8.355
51139SOL     OW55313   9.499   7.515  10.940
51139SOL    HW155314   9.576   7.491  10.991
51139SOL    HW255315   9.531   7.579  10.876
51140SOL     OW55316   5.330   6.404   6.868
51140SOL    HW155317   5.325   6.471   6.801
51140SOL    HW255318   5.261   6.342   6.846
51141SOL     OW55319   7.996   0.255  12.170
51141SOL    HW155320   7.977   0.299  12.253
51141SOL    HW255321   7.910   0.230  12.136
51142SOL     OW55322   1.898  11.493   4.035
51142SOL    HW155323   1.913  11.438   4.112
51142SOL    HW255324   1.899  11.432   3.961
51143SOL     OW55325   7.350  10.716   0.986
51143SOL    HW155326   7.294  10.794   0.986
51143SOL    HW255327   7.289  10.642   0.985
51144SOL     OW55328  14.480   1.040   4.088
51144SOL    HW155329  14.401   1.045   4.142
51144SOL    HW255330  14.490   1.129   4.053
51145SOL     OW55331  10.584   0.205  12.923
51145SOL    HW155332  10.638   0.157  12.986
51145SOL    HW255333  10.496   0.168  12.935
51146SOL     OW55334   7.566   7.991  13.919
51146SOL    HW155335   7.595   7.935  13.848
51146SOL    HW255336   7.550   7.931  13.992
51147SOL     OW55337   3.916  14.122  12.150
51147SOL    HW155338   3.821  14.136  12.149
51147SOL    HW255339   3.953  14.210  12.151
51148SOL     OW55340   9.051  13.665   4.167
51148SOL    HW155341   8.960  13.671   4.194
51148SOL    HW255342   9.100  13.710   4.235
51149SOL     OW55343   6.486   3.425   6.142
51149SOL    HW155344   6.490   3.516   6.114
51149SOL    HW255345   6.526   3.376   6.071
51150SOL     OW55346  10.878   3.679  12.970
51150SOL    HW155347  10.800   3.735  12.979
51150SOL    HW255348  10.861   3.626  12.893
51151SOL     OW55349   4.020   2.976  11.012
51151SOL    HW155350   4.100   2.998  11.060
51151SOL    HW255351   4.016   3.040  10.941
51152SOL     OW55352  11.247  12.215   0.581
51152SOL    HW155353  11.268  12.140   0.637
51152SOL    HW255354  11.153  12.207   0.565
51153SOL     OW55355  10.132   0.744   1.614
51153SOL    HW155356  10.135   0.670   1.553
51153SOL    HW255357  10.128   0.704   1.701
51154SOL     OW55358   5.968   1.905   7.023
51154SOL    HW155359   5.909   1.970   7.061
51154SOL    HW255360   5.992   1.848   7.097
51155SOL     OW55361  10.378   1.919   7.306
51155SOL    HW155362  10.385   1.929   7.401
51155SOL    HW255363  10.340   1.833   7.294
51156SOL     OW55364   5.151   1.226   8.929
51156SOL    HW155365   5.067   1.184   8.910
51156SOL    HW255366   5.216   1.160   8.906
51157SOL     OW55367  10.414   0.165   8.439
51157SOL    HW155368  10.488   0.131   8.489
51157SOL    HW255369  10.347   0.183   8.505
51158SOL     OW55370   9.616   8.785   2.926
51158SOL    HW155371   9.619   8.870   2.882
51158SOL    HW255372   9.694   8.784   2.982
51159SOL     OW55373  13.317   7.193   2.659
51159SOL    HW155374  13.287   7.283   2.646
51159SOL    HW255375  13.239   7.139   2.645
51160SOL     OW55376   6.917   5.564   2.178
51160SOL    HW155377   6.930   5.595   2.268
51160SOL    HW255378   6.997   5.587   2.132
51161SOL     OW55379   1.553   4.645   9.084
51161SOL    HW155380   1.638   4.659   9.042
51161SOL    HW255381   1.563   4.562   9.130
51162SOL     OW55382  14.321   9.695   5.278
51162SOL    HW155383  14.360   9.664   5.360
51162SOL    HW255384  14.275   9.776   5.302
51163SOL     OW55385   2.047  13.342   3.165
51163SOL    HW155386   2.117  13.403   3.186
51163SOL    HW255387   1.989  13.391   3.106
51164SOL     OW55388   9.231  13.421  11.616
51164SOL    HW155389   9.240  13.432  11.711
51164SOL    HW255390   9.191  13.334  11.607
51165SOL     OW55391   9.489   2.587  12.753
51165SOL    HW155392   9.438   2.515  12.788
51165SOL    HW255393   9.539   2.620  12.828
51166SOL     OW55394   4.726   4.536  12.113
51166SOL    HW155395   4.637   4.502  12.124
51166SOL    HW255396   4.719   4.629  12.133
51167SOL     OW55397   2.038  11.301   3.028
51167SOL    HW155398   2.026  11.212   2.995
51167SOL    HW255399   2.037  11.290   3.124
51168SOL     OW55400  14.384  10.621   3.577
51168SOL    HW155401  14.376  10.557   3.506
51168SOL    HW255402  14.478  10.639   3.582
51169SOL     OW55403  13.945  10.297   2.881
51169SOL    HW155404  14.019  10.260   2.929
51169SOL    HW255405  13.979  10.379   2.844
51170SOL     OW55406   9.230   3.264  13.617
51170SOL    HW155407   9.309   3.287  13.566
51170SOL    HW255408   9.164   3.326  13.587
51171SOL     OW55409  12.207   2.877  12.076
51171SOL    HW155410  12.111   2.874  12.072
51171SOL    HW255411  12.235   2.791  12.046
51172SOL     OW55412   8.113  14.549   8.488
51172SOL    HW155413   8.123  14.463   8.447
51172SOL    HW255414   8.071  14.530   8.572
51173SOL     OW55415   7.672   3.577   7.643
51173SOL    HW155416   7.759   3.606   7.614
51173SOL    HW255417   7.665   3.488   7.610
51174SOL     OW55418   5.160   0.695  12.094
51174SOL    HW155419   5.251   0.701  12.123
51174SOL    HW255420   5.125   0.619  12.140
51175SOL     OW55421   6.732  13.645   0.812
51175SOL    HW155422   6.735  13.731   0.769
51175SOL    HW255423   6.810  13.600   0.780
51176SOL     OW55424   0.520  12.064  11.844
51176SOL    HW155425   0.552  12.134  11.787
51176SOL    HW255426   0.455  12.106  11.899
51177SOL     OW55427   9.325  10.337   7.009
51177SOL    HW155428   9.269  10.401   6.966
51177SOL    HW255429   9.355  10.279   6.939
51178SOL     OW55430   6.156   4.207   5.285
51178SOL    HW155431   6.088   4.156   5.328
51178SOL    HW255432   6.135   4.298   5.306
51179SOL     OW55433  13.754  14.679   2.254
51179SOL    HW155434  13.820  14.610   2.256
51179SOL    HW255435  13.772  14.733   2.331
51180SOL     OW55436   3.401   6.918   9.360
51180SOL    HW155437   3.371   6.924   9.451
51180SOL    HW255438   3.485   6.965   9.359
51181SOL     OW55439   8.827  13.972   9.603
51181SOL    HW155440   8.872  13.894   9.634
51181SOL    HW255441   8.802  13.952   9.513
51182SOL     OW55442  11.539   3.054   4.930
51182SOL    HW155443  11.532   3.133   4.876
51182SOL    HW255444  11.588   3.083   5.008
51183SOL     OW55445   9.514   2.837  10.452
51183SOL    HW155446   9.446   2.788  10.497
51183SOL    HW255447   9.492   2.929  10.468
51184SOL     OW55448   5.543   9.437  12.201
51184SOL    HW155449   5.461   9.482  12.222
51184SOL    HW255450   5.568   9.473  12.116
51185SOL     OW55451   0.878  13.694  14.078
51185SOL    HW155452   0.874  13.774  14.027
51185SOL    HW255453   0.971  13.673  14.085
51186SOL     OW55454   3.539  10.777   9.644
51186SOL    HW155455   3.505  10.729   9.569
51186SOL    HW255456   3.496  10.863   9.639
51187SOL     OW55457   7.207   2.799   2.391
51187SOL    HW155458   7.260   2.720   2.379
51187SOL    HW255459   7.140   2.794   2.322
51188SOL     OW55460   6.340   1.291   9.544
51188SOL    HW155461   6.248   1.314   9.561
51188SOL    HW255462   6.372   1.255   9.626
51189SOL     OW55463  12.644   0.466  14.088
51189SOL    HW155464  12.726   0.436  14.048
51189SOL    HW255465  12.652   0.561  14.090
51190SOL     OW55466  13.614   4.378   6.473
51190SOL    HW155467  13.633   4.451   6.414
51190SOL    HW255468  13.641   4.300   6.424
51191SOL     OW55469  12.136  11.402  11.313
51191SOL    HW155470  12.083  11.410  11.392
51191SOL    HW255471  12.206  11.341  11.336
51192SOL     OW55472  14.170   2.604  11.405
51192SOL    HW155473  14.159   2.601  11.310
51192SOL    HW255474  14.088   2.642  11.438
51193SOL     OW55475   9.478   8.352  12.409
51193SOL    HW155476   9.512   8.282  12.465
51193SOL    HW255477   9.549   8.415  12.403
51194SOL     OW55478   7.879   8.651  10.885
51194SOL    HW155479   7.887   8.636  10.791
51194SOL    HW255480   7.963   8.622  10.921
51195SOL     OW55481   8.842  14.660   9.270
51195SOL    HW155482   8.765  14.654   9.214
51195SOL    HW255483   8.833  14.589   9.332
51196SOL     OW55484   0.536  10.817  13.361
51196SOL    HW155485   0.543  10.777  13.448
51196SOL    HW255486   0.616  10.789  13.315
51197SOL     OW55487   1.500   5.719  11.012
51197SOL    HW155488   1.536   5.799  11.052
51197SOL    HW255489   1.548   5.709  10.930
51198SOL     OW55490   4.953  10.017   2.861
51198SOL    HW155491   4.912  10.095   2.898
51198SOL    HW255492   4.962  10.036   2.768
51199SOL     OW55493   7.505   9.091   7.927
51199SOL    HW155494   7.572   9.143   7.972
51199SOL    HW255495   7.538   9.001   7.931
51200SOL     OW55496  10.697  11.022  11.188
51200SOL    HW155497  10.677  11.115  11.179
51200SOL    HW255498  10.634  10.990  11.253
51201SOL     OW55499  10.111  10.269  10.140
51201SOL    HW155500  10.140  10.292  10.229
51201SOL    HW255501  10.016  10.273  10.145
51202SOL     OW55502  10.468  12.105   7.103
51202SOL    HW155503  10.403  12.086   7.170
51202SOL    HW255504  10.496  12.019   7.072
51203SOL     OW55505   4.269  11.881   8.126
51203SOL    HW155506   4.220  11.919   8.053
51203SOL    HW255507   4.222  11.910   8.204
51204SOL     OW55508   2.809   0.438   2.614
51204SOL    HW155509   2.902   0.424   2.595
51204SOL    HW255510   2.765   0.367   2.567
51205SOL     OW55511   0.654   7.267   5.430
51205SOL    HW155512   0.605   7.186   5.444
51205SOL    HW255513   0.714   7.248   5.358
51206SOL     OW55514  14.570  13.913   0.387
51206SOL    HW155515  14.657  13.898   0.424
51206SOL    HW255516  14.567  13.856   0.309
51207SOL     OW55517   0.710   4.656   6.996
51207SOL    HW155518   0.707   4.565   7.026
51207SOL    HW255519   0.798   4.666   6.960
51208SOL     OW55520   0.616   4.046   6.096
51208SOL    HW155521   0.626   4.125   6.042
51208SOL    HW255522   0.549   4.069   6.161
51209SOL     OW55523   8.036  12.393   5.180
51209SOL    HW155524   8.045  12.447   5.102
51209SOL    HW255525   8.080  12.443   5.249
51210SOL     OW55526   4.989   6.944   1.377
51210SOL    HW155527   5.014   7.016   1.320
51210SOL    HW255528   5.069   6.891   1.385
51211SOL     OW55529  10.515   6.009  11.453
51211SOL    HW155530  10.461   6.080  11.488
51211SOL    HW255531  10.597   6.051  11.428
51212SOL     OW55532   7.741   7.927   3.720
51212SOL    HW155533   7.765   7.841   3.687
51212SOL    HW255534   7.711   7.976   3.643
51213SOL     OW55535   3.624   2.368   9.769
51213SOL    HW155536   3.542   2.323   9.788
51213SOL    HW255537   3.687   2.298   9.753
51214SOL     OW55538   3.448  11.486  10.893
51214SOL    HW155539   3.425  11.501  10.985
51214SOL    HW255540   3.416  11.563  10.847
51215SOL     OW55541   4.826   7.084  11.192
51215SOL    HW155542   4.869   7.137  11.125
51215SOL    HW255543   4.843   6.994  11.166
51216SOL     OW55544  12.592   9.452  10.538
51216SOL    HW155545  12.667   9.466  10.480
51216SOL    HW255546  12.528   9.518  10.511
51217SOL     OW55547   4.252   6.794   2.949
51217SOL    HW155548   4.195   6.867   2.973
51217SOL    HW255549   4.282   6.759   3.033
51218SOL     OW55550   0.073   1.349   7.211
51218SOL    HW155551  14.864   1.376   7.166
51218SOL    HW255552   0.058   1.371   7.303
51219SOL     OW55553  13.618   3.299   6.092
51219SOL    HW155554  13.674   3.236   6.046
51219SOL    HW255555  13.540   3.306   6.037
51220SOL     OW55556  14.518   7.519   5.296
51220SOL    HW155557  14.531   7.426   5.275
51220SOL    HW255558  14.506   7.561   5.211
51221SOL     OW55559  13.059   0.860   8.840
51221SOL    HW155560  13.040   0.838   8.931
51221SOL    HW255561  13.139   0.811   8.820
51222SOL     OW55562  10.853   1.845   1.072
51222SOL    HW155563  10.797   1.904   1.021
51222SOL    HW255564  10.893   1.788   1.006
51223SOL     OW55565   2.019   6.679   7.292
51223SOL    HW155566   2.012   6.584   7.298
51223SOL    HW255567   1.930   6.708   7.270
51224SOL     OW55568  14.003  13.582  13.401
51224SOL    HW155569  13.938  13.512  13.406
51224SOL    HW255570  13.964  13.655  13.450
51225SOL     OW55571   7.078   1.252   0.040
51225SOL    HW155572   7.100   1.177   0.096
51225SOL    HW255573   7.122   1.327   0.082
51226SOL     OW55574   9.752   0.104  13.760
51226SOL    HW155575   9.657   0.091  13.761
51226SOL    HW255576   9.768   0.171  13.827
51227SOL     OW55577   1.659   5.986  14.179
51227SOL    HW155578   1.611   5.927  14.121
51227SOL    HW255579   1.628   6.074  14.155
51228SOL     OW55580   8.689  10.784   8.636
51228SOL    HW155581   8.631  10.795   8.560
51228SOL    HW255582   8.638  10.816   8.710
51229SOL     OW55583  13.530  10.054   1.795
51229SOL    HW155584  13.491  10.097   1.871
51229SOL    HW255585  13.616  10.094   1.786
51230SOL     OW55586   5.201   5.950   1.681
51230SOL    HW155587   5.108   5.951   1.704
51230SOL    HW255588   5.230   5.860   1.696
51231SOL     OW55589   7.330   0.021   6.456
51231SOL    HW155590   7.290  14.807   6.472
51231SOL    HW255591   7.273   0.083   6.500
51232SOL     OW55592  12.190  13.827  13.221
51232SOL    HW155593  12.166  13.905  13.270
51232SOL    HW255594  12.242  13.775  13.282
51233SOL     OW55595   8.429  11.419  10.608
51233SOL    HW155596   8.353  11.383  10.653
51233SOL    HW255597   8.430  11.375  10.522
51234SOL     OW55598   0.629   9.491   0.271
51234SOL    HW155599   0.567   9.440   0.219
51234SOL    HW255600   0.703   9.433   0.283
51235SOL     OW55601  12.665  11.883  11.441
51235SOL    HW155602  12.752  11.893  11.403
51235SOL    HW255603  12.681  11.867  11.534
51236SOL     OW55604   4.210  12.453   2.754
51236SOL    HW155605   4.287  12.510   2.763
51236SOL    HW255606   4.224  12.384   2.819
51237SOL     OW55607   6.027  13.274  12.843
51237SOL    HW155608   6.068  13.294  12.759
51237SOL    HW255609   6.051  13.183  12.860
51238SOL     OW55610   2.509  11.591  11.457
51238SOL    HW155611   2.543  11.679  11.474
51238SOL    HW255612   2.481  11.559  11.542
51239SOL     OW55613   3.469  13.971   3.327
51239SOL    HW155614   3.436  14.017   3.250
51239SOL    HW255615   3.396  13.970   3.388
51240SOL     OW55616   4.374  13.138  12.940
51240SOL    HW155617   4.295  13.179  12.975
51240SOL    HW255618   4.346  13.050  12.914
51241SOL     OW55619  12.912   4.879   9.806
51241SOL    HW155620  12.894   4.841   9.892
51241SOL    HW255621  12.934   4.804   9.751
51242SOL     OW55622   7.183   6.681   8.995
51242SOL    HW155623   7.182   6.776   9.009
51242SOL    HW255624   7.105   6.664   8.942
51243SOL     OW55625  13.852  14.792   7.804
51243SOL    HW155626  13.847  14.706   7.762
51243SOL    HW255627  13.806  14.781   7.887
51244SOL     OW55628  13.670   5.738  13.991
51244SOL    HW155629  13.578   5.746  13.969
51244SOL    HW255630  13.716   5.773  13.914
51245SOL     OW55631   9.781   7.854  14.617
51245SOL    HW155632   9.693   7.824  14.593
51245SOL    HW255633   9.770   7.948  14.631
51246SOL     OW55634   8.380   6.446  12.880
51246SOL    HW155635   8.288   6.463  12.901
51246SOL    HW255636   8.422   6.532  12.890
51247SOL     OW55637   8.797  13.874   1.125
51247SOL    HW155638   8.804  13.872   1.221
51247SOL    HW255639   8.704  13.860   1.108
51248SOL     OW55640  11.595  14.182   1.631
51248SOL    HW155641  11.597  14.089   1.651
51248SOL    HW255642  11.630  14.188   1.542
51249SOL     OW55643   8.249  14.319   7.613
51249SOL    HW155644   8.259  14.414   7.608
51249SOL    HW255645   8.156  14.303   7.598
51250SOL     OW55646   4.241   0.978   6.798
51250SOL    HW155647   4.274   1.011   6.714
51250SOL    HW255648   4.146   0.986   6.791
51251SOL     OW55649   1.837  14.859   2.601
51251SOL    HW155650   1.912   0.035   2.566
51251SOL    HW255651   1.856  14.849   2.695
51252SOL     OW55652  13.954   7.032   8.824
51252SOL    HW155653  13.884   7.014   8.886
51252SOL    HW255654  13.984   6.945   8.796
51253SOL     OW55655   9.021  10.612   7.791
51253SOL    HW155656   9.115  10.597   7.802
51253SOL    HW255657   8.985  10.603   7.879
51254SOL     OW55658   2.075   9.375   0.592
51254SOL    HW155659   2.123   9.400   0.513
51254SOL    HW255660   2.093   9.282   0.604
51255SOL     OW55661  12.421   0.208   7.830
51255SOL    HW155662  12.346   0.240   7.780
51255SOL    HW255663  12.441   0.122   7.792
51256SOL     OW55664  13.758  10.029   8.354
51256SOL    HW155665  13.743   9.953   8.410
51256SOL    HW255666  13.802  10.093   8.411
51257SOL     OW55667  12.615   9.144  13.546
51257SOL    HW155668  12.692   9.124  13.492
51257SOL    HW255669  12.542   9.105  13.499
51258SOL     OW55670   0.890  10.518   0.193
51258SOL    HW155671   0.861  10.467   0.268
51258SOL    HW255672   0.811  10.535   0.142
51259SOL     OW55673  10.011   0.477   4.120
51259SOL    HW155674  10.046   0.414   4.057
51259SOL    HW255675   9.953   0.425   4.175
51260SOL     OW55676   5.034   4.863  12.840
51260SOL    HW155677   4.993   4.911  12.911
51260SOL    HW255678   4.979   4.881  12.764
51261SOL     OW55679  13.954   5.990  10.862
51261SOL    HW155680  13.944   5.957  10.951
51261SOL    HW255681  14.044   5.970  10.838
51262SOL     OW55682  10.897  11.218   3.543
51262SOL    HW155683  10.949  11.141   3.521
51262SOL    HW255684  10.819  11.183   3.586
51263SOL     OW55685  13.115   2.667  11.090
51263SOL    HW155686  13.181   2.618  11.140
51263SOL    HW255687  13.112   2.753  11.132
51264SOL     OW55688   8.351  11.458  13.884
51264SOL    HW155689   8.367  11.488  13.794
51264SOL    HW255690   8.391  11.371  13.888
51265SOL     OW55691   4.115   1.460  12.555
51265SOL    HW155692   4.194   1.512  12.549
51265SOL    HW255693   4.089   1.445  12.464
51266SOL     OW55694  12.914  11.564  14.515
51266SOL    HW155695  12.921  11.638  14.575
51266SOL    HW255696  12.823  11.535  14.523
51267SOL     OW55697   1.065   4.449   2.753
51267SOL    HW155698   1.153   4.419   2.777
51267SOL    HW255699   1.006   4.385   2.793
51268SOL     OW55700   0.097   5.842   2.833
51268SOL    HW155701   0.075   5.800   2.917
51268SOL    HW255702   0.172   5.897   2.853
51269SOL     OW55703   7.229   7.508  14.764
51269SOL    HW155704   7.227   7.501  14.669
51269SOL    HW255705   7.213   7.419  14.795
51270SOL     OW55706   6.573  14.239   8.498
51270SOL    HW155707   6.661  14.274   8.506
51270SOL    HW255708   6.585  14.144   8.497
51271SOL     OW55709   9.093   2.732  11.825
51271SOL    HW155710   9.179   2.717  11.787
51271SOL    HW255711   9.070   2.648  11.866
51272SOL     OW55712   1.917   7.332   5.502
51272SOL    HW155713   1.924   7.331   5.407
51272SOL    HW255714   1.898   7.241   5.526
51273SOL     OW55715   5.758   6.001  10.429
51273SOL    HW155716   5.710   5.931  10.473
51273SOL    HW255717   5.837   6.012  10.481
51274SOL     OW55718   5.221   7.824   9.470
51274SOL    HW155719   5.229   7.919   9.461
51274SOL    HW255720   5.245   7.789   9.384
51275SOL     OW55721  10.414   7.705   0.544
51275SOL    HW155722  10.417   7.705   0.640
51275SOL    HW255723  10.345   7.768   0.523
51276SOL     OW55724   4.498   4.134  11.259
51276SOL    HW155725   4.591   4.150  11.275
51276SOL    HW255726   4.481   4.048  11.298
51277SOL     OW55727   4.627  11.558  12.199
51277SOL    HW155728   4.536  11.586  12.189
51277SOL    HW255729   4.625  11.495  12.271
51278SOL     OW55730   3.786   0.098  11.502
51278SOL    HW155731   3.723   0.088  11.430
51278SOL    HW255732   3.848   0.026  11.489
51279SOL     OW55733   1.674   4.116   1.939
51279SOL    HW155734   1.591   4.127   1.986
51279SOL    HW255735   1.725   4.193   1.962
51280SOL     OW55736   8.694  12.278   8.597
51280SOL    HW155737   8.612  12.258   8.553
51280SOL    HW255738   8.681  12.366   8.632
51281SOL     OW55739   8.273   3.020  12.245
51281SOL    HW155740   8.293   2.997  12.154
51281SOL    HW255741   8.355   3.055  12.280
51282SOL     OW55742   9.753  12.795   3.881
51282SOL    HW155743   9.683  12.735   3.856
51282SOL    HW255744   9.711  12.860   3.937
51283SOL     OW55745   4.203   8.008   1.475
51283SOL    HW155746   4.230   7.956   1.399
51283SOL    HW255747   4.251   7.971   1.548
51284SOL     OW55748   1.250   1.686   8.852
51284SOL    HW155749   1.272   1.660   8.762
51284SOL    HW255750   1.289   1.772   8.862
51285SOL     OW55751   3.109   3.800  13.610
51285SOL    HW155752   3.121   3.846  13.527
51285SOL    HW255753   3.054   3.725  13.588
51286SOL     OW55754  11.894   9.460   0.687
51286SOL    HW155755  11.842   9.411   0.751
51286SOL    HW255756  11.910   9.545   0.729
51287SOL     OW55757   4.938   3.984   9.355
51287SOL    HW155758   4.918   3.899   9.318
51287SOL    HW255759   4.881   3.991   9.432
51288SOL     OW55760   8.610  13.328   0.405
51288SOL    HW155761   8.652  13.249   0.369
51288SOL    HW255762   8.593  13.383   0.329
51289SOL     OW55763   5.047  14.559   1.114
51289SOL    HW155764   5.005  14.489   1.164
51289SOL    HW255765   5.007  14.640   1.147
51290SOL     OW55766  13.400   9.533   0.560
51290SOL    HW155767  13.426   9.457   0.508
51290SOL    HW255768  13.321   9.566   0.517
51291SOL     OW55769  13.657   1.204   8.509
51291SOL    HW155770  13.583   1.174   8.562
51291SOL    HW255771  13.685   1.285   8.551
51292SOL     OW55772   2.843  10.328  13.383
51292SOL    HW155773   2.847  10.421  13.407
51292SOL    HW255774   2.878  10.282  13.459
51293SOL     OW55775   3.087  11.513  13.875
51293SOL    HW155776   3.102  11.427  13.912
51293SOL    HW255777   3.173  11.556  13.877
51294SOL     OW55778   9.245  12.845  12.824
51294SOL    HW155779   9.157  12.842  12.786
51294SOL    HW255780   9.249  12.768  12.880
51295SOL     OW55781   8.692  11.430  11.539
51295SOL    HW155782   8.703  11.384  11.623
51295SOL    HW255783   8.775  11.476  11.527
51296SOL     OW55784   5.958  13.005   4.804
51296SOL    HW155785   5.949  13.096   4.831
51296SOL    HW255786   5.922  13.003   4.715
51297SOL     OW55787  10.079  11.952  10.669
51297SOL    HW155788   9.985  11.949  10.689
51297SOL    HW255789  10.105  11.860  10.666
51298SOL     OW55790   1.767   3.195   3.795
51298SOL    HW155791   1.796   3.277   3.754
51298SOL    HW255792   1.807   3.196   3.882
51299SOL     OW55793  14.747  11.794   7.234
51299SOL    HW155794  14.752  11.887   7.213
51299SOL    HW255795  14.752  11.790   7.330
51300SOL     OW55796  13.481   8.058   6.729
51300SOL    HW155797  13.494   8.123   6.799
51300SOL    HW255798  13.565   8.055   6.683
51301SOL     OW55799   0.182  11.808  13.845
51301SOL    HW155800   0.150  11.722  13.872
51301SOL    HW255801   0.169  11.863  13.922
51302SOL     OW55802   3.722  13.864   0.315
51302SOL    HW155803   3.816  13.882   0.312
51302SOL    HW255804   3.692  13.877   0.226
51303SOL     OW55805   1.341   9.583  14.004
51303SOL    HW155806   1.358   9.596  14.098
51303SOL    HW255807   1.256   9.539  14.001
51304SOL     OW55808  14.191  14.156  12.610
51304SOL    HW155809  14.192  14.251  12.615
51304SOL    HW255810  14.257  14.127  12.673
51305SOL     OW55811  13.824  11.824   7.221
51305SOL    HW155812  13.846  11.804   7.312
51305SOL    HW255813  13.735  11.858   7.225
51306SOL     OW55814   4.328   9.920   3.139
51306SOL    HW155815   4.338   9.958   3.052
51306SOL    HW255816   4.336   9.995   3.198
51307SOL     OW55817  12.669   3.720   9.811
51307SOL    HW155818  12.727   3.645   9.794
51307SOL    HW255819  12.616   3.728   9.732
51308SOL     OW55820   2.697   1.048   2.274
51308SOL    HW155821   2.710   1.132   2.319
51308SOL    HW255822   2.625   1.006   2.322
51309SOL     OW55823   8.411  12.507  13.174
51309SOL    HW155824   8.494  12.467  13.149
51309SOL    HW255825   8.364  12.437  13.220
51310SOL     OW55826  12.213  12.851  11.038
51310SOL    HW155827  12.126  12.825  11.006
51310SOL    HW255828  12.267  12.773  11.024
51311SOL     OW55829   8.247   3.564   6.419
51311SOL    HW155830   8.193   3.488   6.439
51311SOL    HW255831   8.204   3.604   6.344
51312SOL     OW55832  11.239  13.825   1.433
51312SOL    HW155833  11.168  13.814   1.369
51312SOL    HW255834  11.202  13.794   1.515
51313SOL     OW55835   7.776  11.009   7.429
51313SOL    HW155836   7.834  10.952   7.379
51313SOL    HW255837   7.688  10.987   7.398
51314SOL     OW55838  13.470   6.490  10.729
51314SOL    HW155839  13.540   6.488  10.795
51314SOL    HW255840  13.500   6.430  10.661
51315SOL     OW55841  14.466   1.165   5.004
51315SOL    HW155842  14.505   1.082   5.033
51315SOL    HW255843  14.540   1.223   4.988
51316SOL     OW55844  10.645  11.515   3.771
51316SOL    HW155845  10.601  11.429   3.771
51316SOL    HW255846  10.632  11.548   3.860
51317SOL     OW55847   1.887   8.095  13.957
51317SOL    HW155848   1.935   8.125  14.034
51317SOL    HW255849   1.856   8.008  13.981
51318SOL     OW55850   6.469   1.074   7.114
51318SOL    HW155851   6.402   1.007   7.129
51318SOL    HW255852   6.429   1.155   7.147
51319SOL     OW55853   7.333   7.532   2.605
51319SOL    HW155854   7.367   7.524   2.516
51319SOL    HW255855   7.404   7.570   2.656
51320SOL     OW55856   2.531   1.442   2.451
51320SOL    HW155857   2.523   1.538   2.451
51320SOL    HW255858   2.546   1.420   2.359
51321SOL     OW55859   3.800   0.337   6.265
51321SOL    HW155860   3.749   0.417   6.256
51321SOL    HW255861   3.766   0.296   6.345
51322SOL     OW55862   8.854   1.224   1.214
51322SOL    HW155863   8.844   1.175   1.296
51322SOL    HW255864   8.764   1.234   1.182
51323SOL     OW55865  10.601   1.031   2.072
51323SOL    HW155866  10.633   0.971   2.139
51323SOL    HW255867  10.556   1.101   2.120
51324SOL     OW55868   0.573   4.770   4.874
51324SOL    HW155869   0.515   4.698   4.853
51324SOL    HW255870   0.591   4.812   4.789
51325SOL     OW55871  13.392   3.715   4.700
51325SOL    HW155872  13.332   3.759   4.760
51325SOL    HW255873  13.398   3.625   4.733
51326SOL     OW55874  11.271  13.336   3.829
51326SOL    HW155875  11.259  13.388   3.750
51326SOL    HW255876  11.267  13.245   3.798
51327SOL     OW55877  10.643  13.966   0.752
51327SOL    HW155878  10.642  14.059   0.729
51327SOL    HW255879  10.681  13.923   0.676
51328SOL     OW55880  11.393   8.002   3.450
51328SOL    HW155881  11.380   8.016   3.356
51328SOL    HW255882  11.305   7.993   3.485
51329SOL     OW55883   6.035  13.384  14.592
51329SOL    HW155884   6.070  13.433  14.667
51329SOL    HW255885   5.941  13.379  14.609
51330SOL     OW55886  11.696  14.033   8.297
51330SOL    HW155887  11.745  13.952   8.287
51330SOL    HW255888  11.680  14.040   8.392
51331SOL     OW55889   5.259   0.762  11.162
51331SOL    HW155890   5.286   0.692  11.103
51331SOL    HW255891   5.183   0.802  11.119
51332SOL     OW55892  14.482   2.427  11.557
51332SOL    HW155893  14.458   2.496  11.495
51332SOL    HW255894  14.540   2.370  11.508
51333SOL     OW55895   3.812   8.032   2.160
51333SOL    HW155896   3.753   8.039   2.235
51333SOL    HW255897   3.754   8.026   2.085
51334SOL     OW55898   0.879   4.972   3.535
51334SOL    HW155899   0.876   4.888   3.581
51334SOL    HW255900   0.966   4.974   3.495
51335SOL     OW55901   7.057   0.125   1.066
51335SOL    HW155902   7.052   0.088   0.978
51335SOL    HW255903   7.063   0.049   1.124
51336SOL     OW55904   2.484  12.426   6.205
51336SOL    HW155905   2.575  12.440   6.176
51336SOL    HW255906   2.484  12.453   6.297
51337SOL     OW55907   9.664  11.572   9.298
51337SOL    HW155908   9.724  11.521   9.354
51337SOL    HW255909   9.603  11.507   9.263
51338SOL     OW55910   8.045  10.323   1.561
51338SOL    HW155911   8.107  10.383   1.603
51338SOL    HW255912   7.992  10.379   1.504
51339SOL     OW55913   5.011   7.272   1.477
51339SOL    HW155914   4.953   7.336   1.434
51339SOL    HW255915   5.099   7.305   1.462
51340SOL     OW55916   1.902   5.864   1.444
51340SOL    HW155917   1.934   5.841   1.531
51340SOL    HW255918   1.821   5.911   1.460
51341SOL     OW55919   0.369   6.699   6.664
51341SOL    HW155920   0.290   6.684   6.612
51341SOL    HW255921   0.412   6.773   6.621
51342SOL     OW55922   9.251   9.123   8.134
51342SOL    HW155923   9.227   9.144   8.224
51342SOL    HW255924   9.299   9.040   8.141
51343SOL     OW55925  14.514  11.615   4.899
51343SOL    HW155926  14.444  11.555   4.923
51343SOL    HW255927  14.493  11.643   4.810
51344SOL     OW55928  11.483   4.510  14.545
51344SOL    HW155929  11.486   4.526  14.639
51344SOL    HW255930  11.574   4.503  14.518
51345SOL     OW55931   2.318  12.298   1.612
51345SOL    HW155932   2.336  12.240   1.686
51345SOL    HW255933   2.247  12.355   1.644
51346SOL     OW55934   9.978   5.511   8.773
51346SOL    HW155935  10.002   5.441   8.713
51346SOL    HW255936  10.017   5.590   8.734
51347SOL     OW55937  11.221   9.630  14.477
51347SOL    HW155938  11.136   9.586  14.482
51347SOL    HW255939  11.201   9.719  14.450
51348SOL     OW55940  10.411   4.188  10.364
51348SOL    HW155941  10.318   4.207  10.376
51348SOL    HW255942  10.425   4.105  10.408
51349SOL     OW55943  11.225   3.649  14.635
51349SOL    HW155944  11.174   3.646  14.554
51349SOL    HW255945  11.177   3.708  14.692
51350SOL     OW55946   8.580  10.482   5.355
51350SOL    HW155947   8.589  10.431   5.436
51350SOL    HW255948   8.486  10.498   5.347
51351SOL     OW55949   3.723   0.682   1.476
51351SOL    HW155950   3.728   0.778   1.470
51351SOL    HW255951   3.798   0.651   1.425
51352SOL     OW55952   4.891   3.776   3.263
51352SOL    HW155953   4.947   3.830   3.208
51352SOL    HW255954   4.944   3.699   3.284
51353SOL     OW55955  12.132   9.752   1.776
51353SOL    HW155956  12.103   9.664   1.752
51353SOL    HW255957  12.133   9.800   1.693
51354SOL     OW55958   9.544   0.801  11.202
51354SOL    HW155959   9.492   0.775  11.277
51354SOL    HW255960   9.487   0.786  11.126
51355SOL     OW55961  11.501   2.543  12.223
51355SOL    HW155962  11.484   2.618  12.280
51355SOL    HW255963  11.585   2.562  12.182
51356SOL     OW55964  14.106  13.818   4.173
51356SOL    HW155965  14.143  13.895   4.215
51356SOL    HW255966  14.181  13.775   4.130
51357SOL     OW55967   8.221  12.224   8.163
51357SOL    HW155968   8.202  12.237   8.256
51357SOL    HW255969   8.294  12.284   8.146
51358SOL     OW55970   7.978   9.133  13.697
51358SOL    HW155971   8.043   9.134  13.767
51358SOL    HW255972   7.901   9.094  13.737
51359SOL     OW55973   9.448   6.207   9.158
51359SOL    HW155974   9.500   6.233   9.234
51359SOL    HW255975   9.389   6.281   9.142
51360SOL     OW55976  10.896   1.395   3.019
51360SOL    HW155977  10.874   1.398   3.112
51360SOL    HW255978  10.893   1.486   2.991
51361SOL     OW55979   1.528   0.104   0.547
51361SOL    HW155980   1.530   0.044   0.472
51361SOL    HW255981   1.518   0.191   0.508
51362SOL     OW55982   2.675  11.210   7.761
51362SOL    HW155983   2.677  11.274   7.832
51362SOL    HW255984   2.716  11.254   7.687
51363SOL     OW55985  11.381   8.722   4.962
51363SOL    HW155986  11.382   8.770   4.879
51363SOL    HW255987  11.358   8.788   5.027
51364SOL     OW55988   8.785   1.631   7.874
51364SOL    HW155989   8.758   1.593   7.790
51364SOL    HW255990   8.798   1.724   7.856
51365SOL     OW55991   5.699   7.563   3.422
51365SOL    HW155992   5.689   7.492   3.359
51365SOL    HW255993   5.758   7.625   3.378
51366SOL     OW55994   8.643   1.503  13.240
51366SOL    HW155995   8.593   1.584  13.230
51366SOL    HW255996   8.658   1.495  13.335
51367SOL     OW55997  11.340   6.974   8.432
51367SOL    HW155998  11.376   7.060   8.455
51367SOL    HW255999  11.247   6.979   8.455
51368SOL     OW56000   0.421   9.337  12.901
51368SOL    HW156001   0.335   9.329  12.943
51368SOL    HW256002   0.482   9.348  12.973
51369SOL     OW56003   9.550   9.989   5.714
51369SOL    HW156004   9.502  10.053   5.767
51369SOL    HW256005   9.641  10.018   5.718
51370SOL     OW56006   5.451   8.147   3.968
51370SOL    HW156007   5.497   8.118   3.889
51370SOL    HW256008   5.423   8.066   4.011
51371SOL     OW56009  10.782   0.010  13.907
51371SOL    HW156010  10.800  14.842  13.993
51371SOL    HW256011  10.858   0.066  13.890
51372SOL     OW56012   0.351   5.666   7.464
51372SOL    HW156013   0.354   5.761   7.467
51372SOL    HW256014   0.305   5.641   7.545
51373SOL     OW56015   4.568   6.727   7.915
51373SOL    HW156016   4.583   6.648   7.863
51373SOL    HW256017   4.489   6.766   7.877
51374SOL     OW56018  14.177  12.645   8.408
51374SOL    HW156019  14.255  12.590   8.413
51374SOL    HW256020  14.170  12.666   8.315
51375SOL     OW56021   5.066   7.756   2.379
51375SOL    HW156022   5.094   7.731   2.291
51375SOL    HW256023   5.047   7.673   2.423
51376SOL     OW56024  11.410   3.610  14.407
51376SOL    HW156025  11.358   3.624  14.486
51376SOL    HW256026  11.419   3.515  14.400
51377SOL     OW56027   0.298   9.209   3.501
51377SOL    HW156028   0.379   9.177   3.542
51377SOL    HW256029   0.325   9.288   3.455
51378SOL     OW56030   8.464  12.911   2.249
51378SOL    HW156031   8.449  12.846   2.180
51378SOL    HW256032   8.559  12.914   2.259
51379SOL     OW56033   1.552   8.979   7.898
51379SOL    HW156034   1.481   8.935   7.944
51379SOL    HW256035   1.566   9.060   7.947
51380SOL     OW56036   8.984   9.176   1.563
51380SOL    HW156037   9.056   9.212   1.512
51380SOL    HW256038   9.016   9.175   1.653
51381SOL     OW56039   4.058   2.838   4.675
51381SOL    HW156040   4.080   2.840   4.768
51381SOL    HW256041   4.014   2.753   4.663
51382SOL     OW56042   8.009   9.919  10.688
51382SOL    HW156043   7.918   9.934  10.665
51382SOL    HW256044   8.009   9.914  10.783
51383SOL     OW56045   5.043   7.535  13.409
51383SOL    HW156046   5.024   7.503  13.320
51383SOL    HW256047   4.961   7.573  13.439
51384SOL     OW56048   1.379   6.615   2.859
51384SOL    HW156049   1.465   6.641   2.893
51384SOL    HW256050   1.375   6.521   2.876
51385SOL     OW56051  11.237   8.599   9.462
51385SOL    HW156052  11.307   8.637   9.515
51385SOL    HW256053  11.177   8.559   9.525
51386SOL     OW56054   6.872   1.683  14.023
51386SOL    HW156055   6.788   1.653  13.987
51386SOL    HW256056   6.933   1.674  13.950
51387SOL     OW56057   5.182  12.740   0.829
51387SOL    HW156058   5.099  12.737   0.780
51387SOL    HW256059   5.239  12.796   0.776
51388SOL     OW56060  11.855   9.207   6.769
51388SOL    HW156061  11.768   9.238   6.795
51388SOL    HW256062  11.909   9.286   6.769
51389SOL     OW56063   7.804  11.385   7.642
51389SOL    HW156064   7.841  11.298   7.634
51389SOL    HW256065   7.822  11.426   7.557
51390SOL     OW56066  10.758  13.362   0.291
51390SOL    HW156067  10.796  13.295   0.234
51390SOL    HW256068  10.792  13.341   0.378
51391SOL     OW56069   7.638  10.752   6.460
51391SOL    HW156070   7.596  10.733   6.544
51391SOL    HW256071   7.684  10.671   6.437
51392SOL     OW56072  14.504   2.956   5.030
51392SOL    HW156073  14.467   2.905   5.101
51392SOL    HW256074  14.475   3.045   5.046
51393SOL     OW56075   3.296  10.148   5.834
51393SOL    HW156076   3.383  10.131   5.796
51393SOL    HW256077   3.281  10.074   5.893
51394SOL     OW56078   0.785  11.640   5.576
51394SOL    HW156079   0.795  11.554   5.537
51394SOL    HW256080   0.789  11.624   5.671
51395SOL     OW56081  10.056   1.952   4.994
51395SOL    HW156082  10.058   2.023   4.930
51395SOL    HW256083  10.093   1.991   5.073
51396SOL     OW56084   7.807   4.524   5.786
51396SOL    HW156085   7.778   4.433   5.786
51396SOL    HW256086   7.731   4.573   5.752
51397SOL     OW56087  13.931   3.899   8.596
51397SOL    HW156088  13.998   3.914   8.662
51397SOL    HW256089  13.889   3.984   8.585
51398SOL     OW56090   9.809  13.310   6.679
51398SOL    HW156091   9.895  13.285   6.645
51398SOL    HW256092   9.787  13.390   6.632
51399SOL     OW56093  13.576  13.257  13.786
51399SOL    HW156094  13.641  13.267  13.716
51399SOL    HW256095  13.628  13.244  13.865
51400SOL     OW56096  12.758  14.281   5.758
51400SOL    HW156097  12.706  14.310   5.833
51400SOL    HW256098  12.800  14.200   5.788
51401SOL     OW56099   3.502  13.846   5.498
51401SOL    HW156100   3.501  13.907   5.571
51401SOL    HW256101   3.475  13.762   5.536
51402SOL     OW56102  11.888  14.196   1.981
51402SOL    HW156103  11.825  14.215   2.051
51402SOL    HW256104  11.973  14.197   2.025
51403SOL     OW56105  12.666   5.375   1.341
51403SOL    HW156106  12.728   5.335   1.281
51403SOL    HW256107  12.719   5.428   1.400
51404SOL     OW56108   6.067  12.664   2.077
51404SOL    HW156109   6.101  12.595   2.020
51404SOL    HW256110   6.033  12.730   2.017
51405SOL     OW56111  11.196   6.568   7.870
51405SOL    HW156112  11.167   6.613   7.790
51405SOL    HW256113  11.124   6.508   7.890
51406SOL     OW56114   0.645   1.007   2.738
51406SOL    HW156115   0.715   0.981   2.678
51406SOL    HW256116   0.610   0.925   2.772
51407SOL     OW56117   9.132   3.436   5.619
51407SOL    HW156118   9.185   3.508   5.586
51407SOL    HW256119   9.109   3.462   5.708
51408SOL     OW56120  11.062  10.520  11.847
51408SOL    HW156121  11.073  10.537  11.754
51408SOL    HW256122  11.145  10.481  11.875
51409SOL     OW56123  11.430   9.755  10.261
51409SOL    HW156124  11.334   9.762  10.262
51409SOL    HW256125  11.452   9.731  10.171
51410SOL     OW56126   6.617  14.387   5.566
51410SOL    HW156127   6.645  14.394   5.474
51410SOL    HW256128   6.698  14.367   5.614
51411SOL     OW56129  11.420   1.804  13.633
51411SOL    HW156130  11.397   1.870  13.567
51411SOL    HW256131  11.513   1.785  13.616
51412SOL     OW56132   3.835   9.719   6.247
51412SOL    HW156133   3.899   9.687   6.310
51412SOL    HW256134   3.793   9.640   6.213
51413SOL     OW56135   4.489   7.726   0.293
51413SOL    HW156136   4.493   7.667   0.217
51413SOL    HW256137   4.488   7.814   0.255
51414SOL     OW56138  12.930   2.271  11.775
51414SOL    HW156139  12.990   2.320  11.832
51414SOL    HW256140  12.852   2.326  11.769
51415SOL     OW56141   8.956   6.277   9.020
51415SOL    HW156142   8.978   6.367   8.995
51415SOL    HW256143   8.893   6.249   8.955
51416SOL     OW56144   4.967  14.267   9.456
51416SOL    HW156145   4.923  14.200   9.404
51416SOL    HW256146   4.900  14.333   9.471
51417SOL     OW56147  14.852   2.868   8.536
51417SOL    HW156148   0.061   2.877   8.587
51417SOL    HW256149  14.835   2.774   8.534
51418SOL     OW56150   8.189   5.126  10.032
51418SOL    HW156151   8.144   5.061   9.977
51418SOL    HW256152   8.118   5.180  10.068
51419SOL     OW56153   4.053   5.933   5.808
51419SOL    HW156154   4.033   5.954   5.900
51419SOL    HW256155   4.019   6.007   5.759
51420SOL     OW56156   1.081  12.217   1.586
51420SOL    HW156157   1.021  12.143   1.575
51420SOL    HW256158   1.054  12.279   1.518
51421SOL     OW56159   9.049   4.135   1.294
51421SOL    HW156160   9.144   4.133   1.290
51421SOL    HW256161   9.020   4.129   1.203
51422SOL     OW56162  11.065   6.758   6.990
51422SOL    HW156163  11.158   6.754   6.968
51422SOL    HW256164  11.064   6.781   7.083
51423SOL     OW56165   6.276  12.398  13.174
51423SOL    HW156166   6.359  12.366  13.139
51423SOL    HW256167   6.215  12.389  13.102
51424SOL     OW56168   0.638  12.709   3.298
51424SOL    HW156169   0.694  12.747   3.365
51424SOL    HW256170   0.597  12.633   3.340
51425SOL     OW56171   0.515  12.586  14.438
51425SOL    HW156172   0.496  12.669  14.396
51425SOL    HW256173   0.609  12.573  14.425
51426SOL     OW56174  11.683  14.214   4.810
51426SOL    HW156175  11.659  14.126   4.839
51426SOL    HW256176  11.684  14.267   4.889
51427SOL     OW56177   3.484  10.874  14.419
51427SOL    HW156178   3.511  10.807  14.356
51427SOL    HW256179   3.562  10.926  14.434
51428SOL     OW56180  12.437   1.201  12.417
51428SOL    HW156181  12.380   1.127  12.398
51428SOL    HW256182  12.399   1.242  12.495
51429SOL     OW56183  13.355  13.968   5.240
51429SOL    HW156184  13.284  13.923   5.286
51429SOL    HW256185  13.332  14.061   5.247
51430SOL     OW56186   7.002  13.324   6.128
51430SOL    HW156187   6.996  13.303   6.035
51430SOL    HW256188   7.096  13.326   6.146
51431SOL     OW56189  12.419   5.223  14.597
51431SOL    HW156190  12.425   5.317  14.611
51431SOL    HW256191  12.427   5.186  14.685
51432SOL     OW56192  11.105  13.563   6.424
51432SOL    HW156193  11.111  13.537   6.516
51432SOL    HW256194  11.143  13.489   6.376
51433SOL     OW56195   3.138   2.701   5.957
51433SOL    HW156196   3.101   2.614   5.973
51433SOL    HW256197   3.102   2.755   6.028
51434SOL     OW56198  12.093   5.629   6.310
51434SOL    HW156199  12.046   5.574   6.246
51434SOL    HW256200  12.182   5.595   6.309
51435SOL     OW56201   2.313   9.213   8.777
51435SOL    HW156202   2.269   9.128   8.784
51435SOL    HW256203   2.379   9.212   8.847
51436SOL     OW56204   6.652  11.793  12.781
51436SOL    HW156205   6.716  11.722  12.791
51436SOL    HW256206   6.680  11.838  12.701
51437SOL     OW56207   9.391  10.383   3.676
51437SOL    HW156208   9.463  10.419   3.625
51437SOL    HW256209   9.314  10.432   3.646
51438SOL     OW56210   1.471  11.102   5.039
51438SOL    HW156211   1.395  11.091   5.096
51438SOL    HW256212   1.537  11.042   5.074
51439SOL     OW56213   1.192  10.593  13.214
51439SOL    HW156214   1.196  10.597  13.309
51439SOL    HW256215   1.230  10.676  13.184
51440SOL     OW56216  14.759   3.166  10.812
51440SOL    HW156217  14.694   3.098  10.828
51440SOL    HW256218  14.843   3.120  10.813
51441SOL     OW56219   2.074   3.314   0.126
51441SOL    HW156220   2.148   3.267   0.163
51441SOL    HW256221   2.029   3.352   0.201
51442SOL     OW56222   4.700   7.530   4.344
51442SOL    HW156223   4.718   7.606   4.400
51442SOL    HW256224   4.660   7.466   4.403
51443SOL     OW56225   0.181  14.182   6.713
51443SOL    HW156226   0.221  14.202   6.798
51443SOL    HW256227   0.089  14.165   6.734
51444SOL     OW56228   6.522   3.623  10.420
51444SOL    HW156229   6.542   3.566  10.493
51444SOL    HW256230   6.426   3.625  10.416
51445SOL     OW56231   8.363   3.996   3.124
51445SOL    HW156232   8.422   4.061   3.162
51445SOL    HW256233   8.361   4.018   3.031
51446SOL     OW56234   7.311   7.245   2.581
51446SOL    HW156235   7.266   7.327   2.561
51446SOL    HW256236   7.256   7.177   2.542
51447SOL     OW56237  12.983   3.420   1.383
51447SOL    HW156238  12.928   3.399   1.459
51447SOL    HW256239  12.961   3.510   1.361
51448SOL     OW56240   7.126   9.476   5.040
51448SOL    HW156241   7.086   9.526   4.969
51448SOL    HW256242   7.120   9.385   5.012
51449SOL     OW56243   4.779   3.581   6.363
51449SOL    HW156244   4.839   3.655   6.376
51449SOL    HW256245   4.760   3.550   6.452
51450SOL     OW56246   1.591  11.497   6.388
51450SOL    HW156247   1.644  11.527   6.314
51450SOL    HW256248   1.555  11.414   6.359
51451SOL     OW56249   6.318   8.311  12.571
51451SOL    HW156250   6.249   8.278  12.513
51451SOL    HW256251   6.287   8.398  12.596
51452SOL     OW56252  12.527   2.140   0.519
51452SOL    HW156253  12.484   2.167   0.437
51452SOL    HW256254  12.612   2.106   0.491
51453SOL     OW56255  11.519  14.406   5.359
51453SOL    HW156256  11.526  14.482   5.301
51453SOL    HW256257  11.565  14.336   5.313
51454SOL     OW56258   3.251   5.429  13.672
51454SOL    HW156259   3.157   5.430  13.693
51454SOL    HW256260   3.255   5.422  13.577
51455SOL     OW56261   4.906   1.118   0.287
51455SOL    HW156262   4.876   1.207   0.269
51455SOL    HW256263   4.998   1.127   0.311
51456SOL     OW56264  10.537   7.913   5.936
51456SOL    HW156265  10.516   7.961   5.855
51456SOL    HW256266  10.477   7.839   5.936
51457SOL     OW56267   0.017   9.195  11.472
51457SOL    HW156268  14.858   9.283  11.449
51457SOL    HW256269   0.078   9.208  11.544
51458SOL     OW56270   4.104   3.165  11.243
51458SOL    HW156271   4.111   3.100  11.313
51458SOL    HW256272   4.187   3.213  11.247
51459SOL     OW56273  10.142   0.653  10.057
51459SOL    HW156274  10.075   0.672  10.123
51459SOL    HW256275  10.194   0.733  10.051
51460SOL     OW56276  11.013   5.210  14.749
51460SOL    HW156277  11.070   5.200  14.672
51460SOL    HW256278  10.966   5.127  14.755
51461SOL     OW56279   4.462  12.612  13.651
51461SOL    HW156280   4.551  12.648  13.650
51461SOL    HW256281   4.444  12.593  13.559
51462SOL     OW56282   2.889   4.296   5.916
51462SOL    HW156283   2.813   4.276   5.861
51462SOL    HW256284   2.854   4.350   5.987
51463SOL     OW56285   7.387   4.100   8.269
51463SOL    HW156286   7.475   4.073   8.242
51463SOL    HW256287   7.330   4.071   8.198
51464SOL     OW56288   6.783   8.606   3.215
51464SOL    HW156289   6.727   8.670   3.260
51464SOL    HW256290   6.775   8.628   3.123
51465SOL     OW56291  13.389  14.650  13.055
51465SOL    HW156292  13.458  14.696  13.007
51465SOL    HW256293  13.374  14.570  13.003
51466SOL     OW56294   2.110   3.335  10.946
51466SOL    HW156295   2.139   3.354  11.035
51466SOL    HW256296   2.020   3.370  10.943
51467SOL     OW56297  11.889   1.766   5.257
51467SOL    HW156298  11.912   1.715   5.335
51467SOL    HW256299  11.796   1.785   5.268
51468SOL     OW56300  12.350  14.385  13.039
51468SOL    HW156301  12.446  14.389  13.038
51468SOL    HW256302  12.323  14.474  13.018
51469SOL     OW56303   3.668   6.091   2.659
51469SOL    HW156304   3.668   6.046   2.574
51469SOL    HW256305   3.668   6.184   2.638
51470SOL     OW56306   2.993  12.004   6.570
51470SOL    HW156307   2.908  11.979   6.535
51470SOL    HW256308   2.973  12.051   6.651
51471SOL     OW56309   0.363   5.891   3.818
51471SOL    HW156310   0.442   5.929   3.782
51471SOL    HW256311   0.292   5.947   3.785
51472SOL     OW56312  11.415   0.777  13.944
51472SOL    HW156313  11.485   0.840  13.964
51472SOL    HW256314  11.442   0.697  13.988
51473SOL     OW56315  11.135   2.283   7.645
51473SOL    HW156316  11.041   2.273   7.628
51473SOL    HW256317  11.174   2.286   7.558
51474SOL     OW56318   4.652  13.470   5.873
51474SOL    HW156319   4.577  13.507   5.827
51474SOL    HW256320   4.712  13.444   5.803
51475SOL     OW56321  12.414   7.779   7.052
51475SOL    HW156322  12.478   7.718   7.090
51475SOL    HW256323  12.359   7.723   6.997
51476SOL     OW56324   2.703   1.618   6.317
51476SOL    HW156325   2.798   1.606   6.304
51476SOL    HW256326   2.693   1.625   6.412
51477SOL     OW56327   4.615  14.279   1.819
51477SOL    HW156328   4.663  14.242   1.745
51477SOL    HW256329   4.546  14.331   1.778
51478SOL     OW56330   2.241   4.945   3.872
51478SOL    HW156331   2.337   4.953   3.867
51478SOL    HW256332   2.216   5.004   3.942
51479SOL     OW56333   3.247   0.127   9.497
51479SOL    HW156334   3.319   0.086   9.546
51479SOL    HW256335   3.181   0.145   9.563
51480SOL     OW56336  11.362   6.651   8.828
51480SOL    HW156337  11.299   6.598   8.877
51480SOL    HW256338  11.357   6.737   8.869
51481SOL     OW56339   1.137  11.363   0.139
51481SOL    HW156340   1.141  11.284   0.084
51481SOL    HW256341   1.102  11.431   0.081
51482SOL     OW56342  11.955   8.172   3.857
51482SOL    HW156343  11.951   8.267   3.849
51482SOL    HW256344  12.027   8.145   3.799
51483SOL     OW56345  13.890   8.680   4.634
51483SOL    HW156346  13.823   8.697   4.701
51483SOL    HW256347  13.973   8.693   4.679
51484SOL     OW56348   7.137   7.776  13.010
51484SOL    HW156349   7.098   7.782  13.097
51484SOL    HW256350   7.162   7.866  12.989
51485SOL     OW56351   0.469   1.743  14.739
51485SOL    HW156352   0.545   1.788  14.776
51485SOL    HW256353   0.433   1.805  14.675
51486SOL     OW56354   7.052   4.443   0.104
51486SOL    HW156355   7.053   4.453   0.200
51486SOL    HW256356   7.039   4.532   0.071
51487SOL     OW56357   6.697   7.668  10.764
51487SOL    HW156358   6.610   7.695  10.736
51487SOL    HW256359   6.728   7.611  10.694
51488SOL     OW56360  11.891  14.260   4.376
51488SOL    HW156361  11.888  14.165   4.388
51488SOL    HW256362  11.858  14.296   4.458
51489SOL     OW56363  14.407  10.051   4.665
51489SOL    HW156364  14.367   9.986   4.607
51489SOL    HW256365  14.495  10.063   4.630
51490SOL     OW56366   7.263   5.332   9.428
51490SOL    HW156367   7.324   5.308   9.498
51490SOL    HW256368   7.178   5.335   9.471
51491SOL     OW56369  11.712   7.958   6.759
51491SOL    HW156370  11.681   7.903   6.832
51491SOL    HW256371  11.724   7.896   6.687
51492SOL     OW56372  12.929   9.746   6.765
51492SOL    HW156373  13.015   9.705   6.756
51492SOL    HW256374  12.867   9.673   6.763
51493SOL     OW56375   1.370   5.805  13.677
51493SOL    HW156376   1.389   5.836  13.589
51493SOL    HW256377   1.387   5.711  13.675
51494SOL     OW56378   3.231  11.157   0.218
51494SOL    HW156379   3.219  11.232   0.160
51494SOL    HW256380   3.162  11.165   0.283
51495SOL     OW56381   4.089  12.808   2.360
51495SOL    HW156382   4.158  12.791   2.295
51495SOL    HW256383   4.031  12.731   2.355
51496SOL     OW56384   1.069   1.039   4.842
51496SOL    HW156385   0.994   0.981   4.851
51496SOL    HW256386   1.049   1.092   4.765
51497SOL     OW56387   2.481   0.747   0.298
51497SOL    HW156388   2.466   0.831   0.254
51497SOL    HW256389   2.454   0.761   0.388
51498SOL     OW56390   7.664  10.501   7.417
51498SOL    HW156391   7.579  10.529   7.450
51498SOL    HW256392   7.657  10.505   7.322
51499SOL     OW56393   7.021   2.108  11.940
51499SOL    HW156394   7.051   2.021  11.965
51499SOL    HW256395   7.033   2.111  11.845
51500SOL     OW56396   3.341  13.185   0.393
51500SOL    HW156397   3.386  13.102   0.405
51500SOL    HW256398   3.376  13.220   0.311
51501SOL     OW56399  13.625  10.240   5.776
51501SOL    HW156400  13.567  10.172   5.742
51501SOL    HW256401  13.689  10.254   5.706
51502SOL     OW56402   3.648   5.220   4.000
51502SOL    HW156403   3.554   5.201   4.003
51502SOL    HW256404   3.655   5.300   3.948
51503SOL     OW56405   9.041   4.628  13.869
51503SOL    HW156406   8.956   4.671  13.864
51503SOL    HW256407   9.059   4.621  13.963
51504SOL     OW56408   5.033   0.296   1.998
51504SOL    HW156409   5.039   0.366   1.933
51504SOL    HW256410   5.064   0.218   1.952
51505SOL     OW56411   7.955  10.511   3.516
51505SOL    HW156412   7.905  10.528   3.436
51505SOL    HW256413   8.045  10.531   3.492
51506SOL     OW56414   2.150   8.225   1.069
51506SOL    HW156415   2.108   8.260   1.147
51506SOL    HW256416   2.241   8.256   1.074
51507SOL     OW56417   3.962   0.930   1.262
51507SOL    HW156418   4.034   0.961   1.318
51507SOL    HW256419   3.998   0.853   1.219
51508SOL     OW56420   8.993   5.602   4.062
51508SOL    HW156421   8.918   5.547   4.042
51508SOL    HW256422   8.956   5.677   4.109
51509SOL     OW56423  13.686  13.725   3.430
51509SOL    HW156424  13.668  13.818   3.447
51509SOL    HW256425  13.699  13.720   3.336
51510SOL     OW56426   7.537   8.206   6.518
51510SOL    HW156427   7.559   8.286   6.565
51510SOL    HW256428   7.457   8.174   6.560
51511SOL     OW56429  11.189   9.873   5.636
51511SOL    HW156430  11.196   9.915   5.722
51511SOL    HW256431  11.102   9.897   5.605
51512SOL     OW56432  10.265   6.840   9.828
51512SOL    HW156433  10.243   6.926   9.792
51512SOL    HW256434  10.195   6.783   9.796
51513SOL     OW56435   9.134   5.262  11.315
51513SOL    HW156436   9.122   5.233  11.225
51513SOL    HW256437   9.163   5.353  11.308
51514SOL     OW56438   3.911   9.707   5.584
51514SOL    HW156439   3.902   9.615   5.557
51514SOL    HW256440   4.000   9.713   5.618
51515SOL     OW56441  14.699   4.429   5.998
51515SOL    HW156442  14.685   4.514   6.039
51515SOL    HW256443  14.674   4.365   6.065
51516SOL     OW56444   4.607   5.458   7.499
51516SOL    HW156445   4.536   5.442   7.561
51516SOL    HW256446   4.681   5.410   7.536
51517SOL     OW56447   9.674   2.900   5.824
51517SOL    HW156448   9.649   2.916   5.915
51517SOL    HW256449   9.742   2.964   5.806
51518SOL     OW56450   3.458   2.616   8.701
51518SOL    HW156451   3.446   2.552   8.630
51518SOL    HW256452   3.451   2.700   8.657
51519SOL     OW56453  10.461   0.546   1.593
51519SOL    HW156454  10.513   0.570   1.516
51519SOL    HW256455  10.393   0.489   1.559
51520SOL     OW56456   2.125   0.891   2.341
51520SOL    HW156457   2.180   0.912   2.266
51520SOL    HW256458   2.111   0.797   2.336
51521SOL     OW56459   1.143   5.247   0.581
51521SOL    HW156460   1.077   5.316   0.584
51521SOL    HW256461   1.225   5.291   0.601
51522SOL     OW56462   7.034   3.646   2.169
51522SOL    HW156463   7.036   3.645   2.073
51522SOL    HW256464   7.120   3.679   2.194
51523SOL     OW56465  11.987   5.662   5.875
51523SOL    HW156466  12.024   5.637   5.790
51523SOL    HW256467  12.031   5.745   5.896
51524SOL     OW56468   6.449   3.696   5.366
51524SOL    HW156469   6.517   3.716   5.430
51524SOL    HW256470   6.483   3.733   5.284
51525SOL     OW56471   7.715   2.195  13.131
51525SOL    HW156472   7.791   2.240  13.168
51525SOL    HW256473   7.726   2.204  13.036
51526SOL     OW56474   7.220   9.294  11.959
51526SOL    HW156475   7.244   9.362  12.023
51526SOL    HW256476   7.284   9.303  11.889
51527SOL     OW56477  12.951   0.214   8.583
51527SOL    HW156478  12.912   0.288   8.536
51527SOL    HW256479  12.913   0.218   8.671
51528SOL     OW56480   4.828   5.414   4.355
51528SOL    HW156481   4.891   5.403   4.284
51528SOL    HW256482   4.876   5.464   4.422
51529SOL     OW56483   9.739   3.844   0.262
51529SOL    HW156484   9.700   3.756   0.257
51529SOL    HW256485   9.752   3.870   0.171
51530SOL     OW56486  12.649   9.148   4.398
51530SOL    HW156487  12.574   9.208   4.398
51530SOL    HW256488  12.668   9.133   4.305
51531SOL     OW56489  14.164  14.782   4.680
51531SOL    HW156490  14.147  14.789   4.586
51531SOL    HW256491  14.157  14.689   4.698
51532SOL     OW56492   7.298   1.457  11.425
51532SOL    HW156493   7.237   1.389  11.451
51532SOL    HW256494   7.247   1.538  11.428
51533SOL     OW56495   5.278  10.196   9.565
51533SOL    HW156496   5.300  10.198   9.658
51533SOL    HW256497   5.345  10.140   9.525
51534SOL     OW56498  10.534  10.052   1.518
51534SOL    HW156499  10.516  10.129   1.462
51534SOL    HW256500  10.522  10.084   1.607
51535SOL     OW56501   6.291   7.124   4.778
51535SOL    HW156502   6.277   7.031   4.795
51535SOL    HW256503   6.203   7.161   4.770
51536SOL     OW56504   3.721  13.895   3.210
51536SOL    HW156505   3.665  13.834   3.162
51536SOL    HW256506   3.661  13.944   3.266
51537SOL     OW56507   0.612   2.255  11.302
51537SOL    HW156508   0.597   2.349  11.317
51537SOL    HW256509   0.654   2.225  11.383
51538SOL     OW56510   6.939   4.998   9.169
51538SOL    HW156511   6.843   4.993   9.176
51538SOL    HW256512   6.971   4.948   9.243
51539SOL     OW56513   7.789  13.323  14.516
51539SOL    HW156514   7.853  13.254  14.502
51539SOL    HW256515   7.749  13.302  14.601
51540SOL     OW56516  14.189   0.666  12.020
51540SOL    HW156517  14.282   0.645  12.013
51540SOL    HW256518  14.145   0.581  12.030
51541SOL     OW56519  14.500   3.994   9.003
51541SOL    HW156520  14.433   3.926   9.011
51541SOL    HW256521  14.582   3.948   9.018
51542SOL     OW56522  12.758  12.017   5.946
51542SOL    HW156523  12.688  12.010   5.881
51542SOL    HW256524  12.800  11.931   5.944
51543SOL     OW56525   7.308   2.915  11.528
51543SOL    HW156526   7.275   2.886  11.443
51543SOL    HW256527   7.231   2.918  11.584
51544SOL     OW56528   9.350   1.457   5.209
51544SOL    HW156529   9.317   1.503   5.286
51544SOL    HW256530   9.446   1.462   5.218
51545SOL     OW56531   4.656   4.698   6.694
51545SOL    HW156532   4.634   4.725   6.605
51545SOL    HW256533   4.714   4.623   6.682
51546SOL     OW56534   2.342   4.344  11.156
51546SOL    HW156535   2.381   4.291  11.226
51546SOL    HW256536   2.260   4.300  11.135
51547SOL     OW56537  14.601   0.067   9.867
51547SOL    HW156538  14.647   0.048   9.949
51547SOL    HW256539  14.667   0.112   9.813
51548SOL     OW56540   5.149   1.720  12.894
51548SOL    HW156541   5.053   1.715  12.890
51548SOL    HW256542   5.168   1.740  12.985
51549SOL     OW56543   6.717  13.403   5.391
51549SOL    HW156544   6.671  13.339   5.445
51549SOL    HW256545   6.761  13.351   5.323
51550SOL     OW56546  12.752   5.843   2.059
51550SOL    HW156547  12.706   5.893   1.991
51550SOL    HW256548  12.814   5.789   2.011
51551SOL     OW56549  13.134  10.948   8.722
51551SOL    HW156550  13.129  10.952   8.818
51551SOL    HW256551  13.227  10.958   8.703
51552SOL     OW56552   5.221   0.132   9.197
51552SOL    HW156553   5.294   0.092   9.149
51552SOL    HW256554   5.237   0.109   9.288
51553SOL     OW56555  14.797  13.624   4.572
51553SOL    HW156556   0.017  13.648   4.557
51553SOL    HW256557  14.794  13.529   4.559
51554SOL     OW56558   0.418  14.634   0.709
51554SOL    HW156559   0.345  14.640   0.648
51554SOL    HW256560   0.496  14.648   0.655
51555SOL     OW56561   7.527   4.800   7.710
51555SOL    HW156562   7.455   4.783   7.648
51555SOL    HW256563   7.491   4.865   7.770
51556SOL     OW56564  13.757  11.700   4.275
51556SOL    HW156565  13.686  11.706   4.340
51556SOL    HW256566  13.712  11.705   4.191
51557SOL     OW56567   5.367   7.914   2.652
51557SOL    HW156568   5.326   7.844   2.704
51557SOL    HW256569   5.293   7.956   2.608
51558SOL     OW56570   6.696   4.619  12.330
51558SOL    HW156571   6.628   4.624  12.397
51558SOL    HW256572   6.702   4.708  12.296
51559SOL     OW56573   7.225   0.703  11.975
51559SOL    HW156574   7.276   0.710  12.056
51559SOL    HW256575   7.266   0.631  11.928
51560SOL     OW56576   0.723  11.922   4.713
51560SOL    HW156577   0.636  11.962   4.715
51560SOL    HW256578   0.783  11.994   4.695
51561SOL     OW56579  10.475   9.497   8.645
51561SOL    HW156580  10.465   9.420   8.700
51561SOL    HW256581  10.459   9.465   8.556
51562SOL     OW56582   7.440   8.013  12.286
51562SOL    HW156583   7.403   8.006  12.374
51562SOL    HW256584   7.442   7.923  12.254
51563SOL     OW56585  11.323   6.512   5.005
51563SOL    HW156586  11.390   6.563   4.961
51563SOL    HW256587  11.366   6.479   5.084
51564SOL     OW56588   9.352   7.097  10.565
51564SOL    HW156589   9.353   7.130  10.655
51564SOL    HW256590   9.294   7.021  10.567
51565SOL     OW56591  10.067   9.083   4.710
51565SOL    HW156592  10.115   9.155   4.670
51565SOL    HW256593  10.019   9.123   4.781
51566SOL     OW56594   2.725   0.876  12.797
51566SOL    HW156595   2.701   0.846  12.884
51566SOL    HW256596   2.695   0.807  12.738
51567SOL     OW56597  10.146   4.720   3.209
51567SOL    HW156598  10.235   4.746   3.233
51567SOL    HW256599  10.132   4.638   3.256
51568SOL     OW56600   3.577   3.896   3.992
51568SOL    HW156601   3.582   3.986   4.025
51568SOL    HW256602   3.668   3.866   3.990
51569SOL     OW56603   6.706   2.721   7.428
51569SOL    HW156604   6.733   2.771   7.506
51569SOL    HW256605   6.779   2.729   7.368
51570SOL     OW56606  13.805  14.278  13.242
51570SOL    HW156607  13.824  14.277  13.336
51570SOL    HW256608  13.712  14.257  13.235
51571SOL     OW56609  14.135  14.343   2.331
51571SOL    HW156610  14.081  14.347   2.409
51571SOL    HW256611  14.138  14.250   2.308
51572SOL     OW56612  10.331   4.281  14.450
51572SOL    HW156613  10.332   4.377  14.447
51572SOL    HW256614  10.314   4.255  14.359
51573SOL     OW56615  10.824  10.752  11.179
51573SOL    HW156616  10.916  10.761  11.204
51573SOL    HW256617  10.791  10.842  11.173
51574SOL     OW56618   6.791   1.451   5.627
51574SOL    HW156619   6.851   1.523   5.649
51574SOL    HW256620   6.732   1.489   5.561
51575SOL     OW56621   8.163   3.507   3.969
51575SOL    HW156622   8.168   3.489   3.875
51575SOL    HW256623   8.070   3.501   3.990
51576SOL     OW56624   8.885   4.618   0.696
51576SOL    HW156625   8.979   4.609   0.680
51576SOL    HW256626   8.857   4.531   0.724
51577SOL     OW56627  10.740  11.164  12.927
51577SOL    HW156628  10.649  11.160  12.899
51577SOL    HW256629  10.737  11.156  13.022
51578SOL     OW56630   0.176   8.256   3.038
51578SOL    HW156631   0.138   8.318   2.975
51578SOL    HW256632   0.210   8.185   2.983
51579SOL     OW56633   6.066   2.680  12.525
51579SOL    HW156634   6.081   2.587  12.510
51579SOL    HW256635   6.153   2.720  12.518
51580SOL     OW56636  11.356   3.245   7.613
51580SOL    HW156637  11.406   3.175   7.572
51580SOL    HW256638  11.410   3.273   7.687
51581SOL     OW56639   2.247   6.977   5.444
51581SOL    HW156640   2.332   6.993   5.487
51581SOL    HW256641   2.235   7.052   5.386
51582SOL     OW56642   5.821   2.307   9.278
51582SOL    HW156643   5.843   2.292   9.186
51582SOL    HW256644   5.851   2.395   9.297
51583SOL     OW56645  13.875   7.593  14.488
51583SOL    HW156646  13.785   7.618  14.468
51583SOL    HW256647  13.913   7.567  14.404
51584SOL     OW56648   2.169  11.292   8.086
51584SOL    HW156649   2.146  11.367   8.031
51584SOL    HW256650   2.257  11.268   8.059
51585SOL     OW56651  13.334   2.117   7.417
51585SOL    HW156652  13.260   2.125   7.478
51585SOL    HW256653  13.315   2.039   7.366
51586SOL     OW56654  13.755   6.523   1.635
51586SOL    HW156655  13.815   6.501   1.706
51586SOL    HW256656  13.700   6.593   1.672
51587SOL     OW56657  11.430  12.825   0.541
51587SOL    HW156658  11.525  12.823   0.539
51587SOL    HW256659  11.403  12.843   0.451
51588SOL     OW56660   9.363   0.824  14.317
51588SOL    HW156661   9.389   0.873  14.395
51588SOL    HW256662   9.443   0.820  14.264
51589SOL     OW56663  14.572   0.483   5.892
51589SOL    HW156664  14.508   0.531   5.840
51589SOL    HW256665  14.612   0.422   5.831
51590SOL     OW56666   8.196   6.746   9.670
51590SOL    HW156667   8.106   6.747   9.703
51590SOL    HW256668   8.237   6.821   9.712
51591SOL     OW56669   7.220   7.743   5.698
51591SOL    HW156670   7.191   7.691   5.623
51591SOL    HW256671   7.146   7.743   5.758
51592SOL     OW56672   6.290  14.411  10.741
51592SOL    HW156673   6.222  14.418  10.675
51592SOL    HW256674   6.262  14.339  10.797
51593SOL     OW56675   0.144  14.377   5.663
51593SOL    HW156676   0.122  14.457   5.616
51593SOL    HW256677   0.074  14.368   5.728
51594SOL     OW56678   1.816   8.176   7.280
51594SOL    HW156679   1.753   8.105   7.287
51594SOL    HW256680   1.883   8.144   7.220
51595SOL     OW56681  12.978   0.274   6.623
51595SOL    HW156682  13.003   0.264   6.532
51595SOL    HW256683  13.053   0.318   6.664
51596SOL     OW56684  14.185   5.032  14.475
51596SOL    HW156685  14.235   5.041  14.556
51596SOL    HW256686  14.099   5.068  14.496
51597SOL     OW56687  10.305   3.270  10.391
51597SOL    HW156688  10.215   3.288  10.360
51597SOL    HW256689  10.340   3.208  10.327
51598SOL     OW56690   0.934   3.305   9.208
51598SOL    HW156691   0.853   3.327   9.163
51598SOL    HW256692   0.916   3.223   9.253
51599SOL     OW56693   1.681  13.269  14.417
51599SOL    HW156694   1.707  13.340  14.359
51599SOL    HW256695   1.749  13.202  14.405
51600SOL     OW56696   2.752   1.718  12.280
51600SOL    HW156697   2.815   1.657  12.319
51600SOL    HW256698   2.667   1.685  12.307
51601SOL     OW56699  11.787   5.919   1.510
51601SOL    HW156700  11.805   5.853   1.577
51601SOL    HW256701  11.872   5.933   1.468
51602SOL     OW56702  11.479  13.004   8.799
51602SOL    HW156703  11.496  13.050   8.717
51602SOL    HW256704  11.386  12.982   8.796
51603SOL     OW56705   1.338  11.541   8.939
51603SOL    HW156706   1.315  11.477   8.872
51603SOL    HW256707   1.325  11.626   8.898
51604SOL     OW56708   2.393   7.447  13.548
51604SOL    HW156709   2.488   7.461  13.542
51604SOL    HW256710   2.381   7.403  13.632
51605SOL     OW56711   0.691  10.140   8.257
51605SOL    HW156712   0.670  10.154   8.350
51605SOL    HW256713   0.669  10.223   8.215
51606SOL     OW56714   9.926   6.110   7.975
51606SOL    HW156715   9.900   6.198   7.999
51606SOL    HW256716   9.940   6.064   8.058
51607SOL     OW56717   6.827   2.866   4.722
51607SOL    HW156718   6.745   2.819   4.737
51607SOL    HW256719   6.879   2.807   4.666
51608SOL     OW56720   1.942   9.315  12.802
51608SOL    HW156721   2.025   9.317  12.850
51608SOL    HW256722   1.903   9.231  12.823
51609SOL     OW56723   9.429   0.298   0.830
51609SOL    HW156724   9.443   0.249   0.911
51609SOL    HW256725   9.448   0.235   0.760
51610SOL     OW56726   8.173   0.888   9.608
51610SOL    HW156727   8.227   0.946   9.663
51610SOL    HW256728   8.196   0.913   9.519
51611SOL     OW56729   1.280   2.317   7.151
51611SOL    HW156730   1.315   2.339   7.065
51611SOL    HW256731   1.322   2.233   7.173
51612SOL     OW56732  11.621  10.446  10.013
51612SOL    HW156733  11.612  10.452  10.109
51612SOL    HW256734  11.550  10.389   9.986
51613SOL     OW56735   3.103   4.796   7.549
51613SOL    HW156736   3.142   4.709   7.559
51613SOL    HW256737   3.108   4.814   7.455
51614SOL     OW56738   8.770   6.982   1.866
51614SOL    HW156739   8.728   6.997   1.782
51614SOL    HW256740   8.755   7.064   1.915
51615SOL     OW56741   1.653   9.116   5.211
51615SOL    HW156742   1.682   9.135   5.300
51615SOL    HW256743   1.733   9.120   5.158
51616SOL     OW56744  12.398   5.325   1.284
51616SOL    HW156745  12.487   5.323   1.317
51616SOL    HW256746  12.356   5.397   1.331
51617SOL     OW56747  11.903  14.526  14.309
51617SOL    HW156748  11.827  14.494  14.259
51617SOL    HW256749  11.976  14.520  14.248
51618SOL     OW56750   1.451   4.476   4.118
51618SOL    HW156751   1.392   4.455   4.191
51618SOL    HW256752   1.413   4.430   4.043
51619SOL     OW56753  11.350   3.071   0.583
51619SOL    HW156754  11.437   3.030   0.589
51619SOL    HW256755  11.353   3.142   0.647
51620SOL     OW56756   3.093  13.612   0.092
51620SOL    HW156757   3.136  13.533   0.123
51620SOL    HW256758   3.121  13.680   0.153
51621SOL     OW56759  13.876   6.667   6.093
51621SOL    HW156760  13.949   6.613   6.125
51621SOL    HW256761  13.893   6.677   5.999
51622SOL     OW56762   8.847   5.495   8.449
51622SOL    HW156763   8.805   5.468   8.530
51622SOL    HW256764   8.880   5.583   8.467
51623SOL     OW56765  14.608   8.863   1.155
51623SOL    HW156766  14.646   8.780   1.126
51623SOL    HW256767  14.681   8.925   1.150
51624SOL     OW56768   1.599   8.911   0.112
51624SOL    HW156769   1.576   8.908   0.204
51624SOL    HW256770   1.628   9.001   0.097
51625SOL     OW56771   5.298   6.219   6.360
51625SOL    HW156772   5.293   6.149   6.295
51625SOL    HW256773   5.209   6.253   6.366
51626SOL     OW56774   8.451   3.375   8.254
51626SOL    HW156775   8.491   3.302   8.302
51626SOL    HW256776   8.469   3.355   8.162
51627SOL     OW56777  10.709  14.487   9.045
51627SOL    HW156778  10.728  14.531   9.128
51627SOL    HW256779  10.702  14.558   8.981
51628SOL     OW56780   9.533   4.313  13.082
51628SOL    HW156781   9.448   4.356  13.086
51628SOL    HW256782   9.523   4.235  13.137
51629SOL     OW56783   5.951  14.314   1.302
51629SOL    HW156784   5.928  14.403   1.275
51629SOL    HW256785   6.040  14.323   1.338
51630SOL     OW56786   5.067   1.727   5.805
51630SOL    HW156787   5.034   1.650   5.851
51630SOL    HW256788   5.012   1.799   5.835
51631SOL     OW56789   1.021  12.758   3.563
51631SOL    HW156790   1.099  12.813   3.572
51631SOL    HW256791   1.025  12.698   3.637
51632SOL     OW56792  13.773   7.616   4.873
51632SOL    HW156793  13.858   7.573   4.861
51632SOL    HW256794  13.710   7.555   4.835
51633SOL     OW56795  14.185   4.214   9.053
51633SOL    HW156796  14.189   4.220   8.958
51633SOL    HW256797  14.191   4.304   9.083
51634SOL     OW56798   9.975  12.208   9.172
51634SOL    HW156799  10.030  12.156   9.230
51634SOL    HW256800  10.028  12.284   9.151
51635SOL     OW56801   9.985  11.651  10.459
51635SOL    HW156802  10.071  11.620  10.489
51635SOL    HW256803   9.959  11.588  10.392
51636SOL     OW56804   7.635  13.363   9.579
51636SOL    HW156805   7.705  13.411   9.622
51636SOL    HW256806   7.583  13.326   9.650
51637SOL     OW56807   3.600  10.932   3.485
51637SOL    HW156808   3.554  10.881   3.419
51637SOL    HW256809   3.684  10.889   3.496
51638SOL     OW56810   8.501   9.216  13.993
51638SOL    HW156811   8.450   9.295  14.009
51638SOL    HW256812   8.590   9.247  13.978
51639SOL     OW56813   8.764   6.267   4.326
51639SOL    HW156814   8.809   6.272   4.410
51639SOL    HW256815   8.712   6.347   4.322
51640SOL     OW56816   4.134   7.884   4.540
51640SOL    HW156817   4.213   7.928   4.572
51640SOL    HW256818   4.159   7.793   4.529
51641SOL     OW56819  12.289   1.534   0.898
51641SOL    HW156820  12.342   1.599   0.851
51641SOL    HW256821  12.251   1.583   0.971
51642SOL     OW56822   5.509   7.373   6.782
51642SOL    HW156823   5.513   7.414   6.868
51642SOL    HW256824   5.421   7.335   6.778
51643SOL     OW56825   5.256   1.353   3.639
51643SOL    HW156826   5.180   1.343   3.697
51643SOL    HW256827   5.319   1.288   3.669
51644SOL     OW56828  13.871   4.395   2.967
51644SOL    HW156829  13.779   4.381   2.990
51644SOL    HW256830  13.905   4.307   2.951
51645SOL     OW56831   9.412   4.415   1.531
51645SOL    HW156832   9.411   4.418   1.627
51645SOL    HW256833   9.345   4.351   1.508
51646SOL     OW56834  10.822  11.178   6.254
51646SOL    HW156835  10.788  11.090   6.271
51646SOL    HW256836  10.776  11.234   6.317
51647SOL     OW56837   8.113  10.799   8.707
51647SOL    HW156838   8.074  10.887   8.706
51647SOL    HW256839   8.128  10.781   8.800
51648SOL     OW56840   1.342   3.226   2.722
51648SOL    HW156841   1.334   3.263   2.810
51648SOL    HW256842   1.377   3.138   2.736
51649SOL     OW56843  14.161   2.121   8.876
51649SOL    HW156844  14.134   2.207   8.844
51649SOL    HW256845  14.138   2.061   8.805
51650SOL     OW56846  11.818   3.719   9.614
51650SOL    HW156847  11.893   3.674   9.574
51650SOL    HW256848  11.750   3.652   9.620
51651SOL     OW56849   7.456  13.804   0.373
51651SOL    HW156850   7.424  13.783   0.461
51651SOL    HW256851   7.389  13.861   0.335
51652SOL     OW56852   0.440  12.099   1.478
51652SOL    HW156853   0.459  12.081   1.570
51652SOL    HW256854   0.525  12.095   1.434
51653SOL     OW56855   3.056   4.206   5.625
51653SOL    HW156856   3.121   4.215   5.695
51653SOL    HW256857   3.048   4.111   5.612
51654SOL     OW56858   7.973   5.091   0.507
51654SOL    HW156859   7.940   5.012   0.464
51654SOL    HW256860   8.057   5.063   0.544
51655SOL     OW56861   4.908   8.328   0.674
51655SOL    HW156862   4.998   8.357   0.661
51655SOL    HW256863   4.915   8.249   0.727
51656SOL     OW56864   6.435   1.389  12.877
51656SOL    HW156865   6.425   1.332  12.954
51656SOL    HW256866   6.389   1.343  12.807
51657SOL     OW56867   8.463   0.996   3.261
51657SOL    HW156868   8.478   0.979   3.354
51657SOL    HW256869   8.368   1.006   3.253
51658SOL     OW56870   6.079  11.299   9.737
51658SOL    HW156871   6.060  11.233   9.805
51658SOL    HW256872   5.993  11.332   9.711
51659SOL     OW56873   7.900  10.951   0.410
51659SOL    HW156874   7.852  10.923   0.332
51659SOL    HW256875   7.951  11.027   0.381
51660SOL     OW56876   0.625   3.775   6.086
51660SOL    HW156877   0.546   3.760   6.137
51660SOL    HW256878   0.625   3.870   6.070
51661SOL     OW56879   2.007  11.535  10.826
51661SOL    HW156880   2.024  11.594  10.899
51661SOL    HW256881   1.992  11.592  10.751
51662SOL     OW56882   1.297  14.153   3.247
51662SOL    HW156883   1.362  14.103   3.198
51662SOL    HW256884   1.305  14.242   3.215
51663SOL     OW56885   4.116   4.005   6.102
51663SOL    HW156886   4.079   3.984   6.016
51663SOL    HW256887   4.070   3.947   6.163
51664SOL     OW56888   3.732   4.974  10.048
51664SOL    HW156889   3.687   5.004  10.127
51664SOL    HW256890   3.739   4.879  10.059
51665SOL     OW56891   1.811   8.922   6.520
51665SOL    HW156892   1.800   8.827   6.524
51665SOL    HW256893   1.875   8.941   6.588
51666SOL     OW56894  10.883  14.780   2.209
51666SOL    HW156895  10.837  14.790   2.292
51666SOL    HW256896  10.897  14.686   2.200
51667SOL     OW56897   7.363   1.057  11.377
51667SOL    HW156898   7.364   1.041  11.282
51667SOL    HW256899   7.453   1.082  11.398
51668SOL     OW56900   1.517   9.779   7.365
51668SOL    HW156901   1.559   9.699   7.396
51668SOL    HW256902   1.565   9.803   7.286
51669SOL     OW56903  12.731   4.014  12.219
51669SOL    HW156904  12.734   4.110  12.224
51669SOL    HW256905  12.718   3.985  12.309
51670SOL     OW56906  11.449   1.625   7.581
51670SOL    HW156907  11.471   1.637   7.673
51670SOL    HW256908  11.487   1.540   7.559
51671SOL     OW56909  14.814  14.211   5.502
51671SOL    HW156910  14.721  14.189   5.510
51671SOL    HW256911  14.840  14.239   5.589
51672SOL     OW56912   6.817   6.887   7.865
51672SOL    HW156913   6.750   6.835   7.910
51672SOL    HW256914   6.768   6.945   7.808
51673SOL     OW56915   8.091  10.497  11.506
51673SOL    HW156916   8.178  10.537  11.516
51673SOL    HW256917   8.109  10.405  11.489
51674SOL     OW56918   4.215  13.117   6.803
51674SOL    HW156919   4.299  13.163   6.810
51674SOL    HW256920   4.233  13.028   6.832
51675SOL     OW56921  13.164   0.785   4.406
51675SOL    HW156922  13.088   0.797   4.463
51675SOL    HW256923  13.176   0.870   4.364
51676SOL     OW56924   0.525   8.355   3.011
51676SOL    HW156925   0.480   8.274   3.034
51676SOL    HW256926   0.617   8.330   3.006
51677SOL     OW56927   3.819   2.425   9.304
51677SOL    HW156928   3.765   2.500   9.281
51677SOL    HW256929   3.898   2.463   9.344
51678SOL     OW56930   6.486  14.472  11.694
51678SOL    HW156931   6.445  14.421  11.764
51678SOL    HW256932   6.490  14.561  11.729
51679SOL     OW56933   8.100   0.724   7.708
51679SOL    HW156934   8.120   0.818   7.705
51679SOL    HW256935   8.058   0.712   7.793
51680SOL     OW56936  13.848   5.212   6.022
51680SOL    HW156937  13.884   5.257   6.098
51680SOL    HW256938  13.785   5.150   6.058
51681SOL     OW56939   1.919   5.500  11.648
51681SOL    HW156940   1.829   5.510  11.679
51681SOL    HW256941   1.968   5.471  11.725
51682SOL     OW56942   3.346  11.212   9.315
51682SOL    HW156943   3.397  11.190   9.237
51682SOL    HW256944   3.317  11.302   9.300
51683SOL     OW56945   1.652   3.825  13.243
51683SOL    HW156946   1.599   3.881  13.186
51683SOL    HW256947   1.600   3.745  13.252
51684SOL     OW56948  11.527   6.103  13.374
51684SOL    HW156949  11.454   6.071  13.426
51684SOL    HW256950  11.536   6.039  13.303
51685SOL     OW56951   4.551   1.015   2.857
51685SOL    HW156952   4.600   0.941   2.819
51685SOL    HW256953   4.500   0.976   2.928
51686SOL     OW56954   5.755   2.520   8.869
51686SOL    HW156955   5.762   2.473   8.952
51686SOL    HW256956   5.826   2.485   8.815
51687SOL     OW56957   0.661  12.129  10.075
51687SOL    HW156958   0.741  12.077  10.067
51687SOL    HW256959   0.691  12.219  10.087
51688SOL     OW56960  10.046  11.226   6.669
51688SOL    HW156961  10.107  11.178   6.724
51688SOL    HW256962  10.015  11.161   6.606
51689SOL     OW56963  12.187  13.962  14.100
51689SOL    HW156964  12.279  13.962  14.129
51689SOL    HW256965  12.143  14.021  14.162
51690SOL     OW56966   9.130   3.141  14.669
51690SOL    HW156967   9.124   3.114  14.761
51690SOL    HW256968   9.042   3.128  14.634
51691SOL     OW56969   3.265   1.353   5.316
51691SOL    HW156970   3.319   1.275   5.331
51691SOL    HW256971   3.193   1.345   5.379
51692SOL     OW56972   0.704   5.318   0.127
51692SOL    HW156973   0.612   5.339   0.114
51692SOL    HW256974   0.748   5.403   0.132
51693SOL     OW56975   4.071  14.586   7.575
51693SOL    HW156976   4.055  14.671   7.614
51693SOL    HW256977   4.027  14.524   7.634
51694SOL     OW56978   6.577   8.687  14.238
51694SOL    HW156979   6.522   8.704  14.162
51694SOL    HW256980   6.582   8.771  14.284
51695SOL     OW56981   9.878   8.419   2.484
51695SOL    HW156982   9.788   8.427   2.518
51695SOL    HW256983   9.927   8.489   2.526
51696SOL     OW56984   5.731   1.255   9.927
51696SOL    HW156985   5.674   1.313   9.978
51696SOL    HW256986   5.690   1.248   9.841
51697SOL     OW56987   7.886   3.650  11.681
51697SOL    HW156988   7.827   3.579  11.656
51697SOL    HW256989   7.830   3.727  11.690
51698SOL     OW56990   3.464  13.494  13.992
51698SOL    HW156991   3.382  13.515  14.037
51698SOL    HW256992   3.529  13.551  14.032
51699SOL     OW56993   5.516   8.429   8.228
51699SOL    HW156994   5.560   8.382   8.299
51699SOL    HW256995   5.425   8.403   8.236
51700SOL     OW56996  10.553   2.737   8.051
51700SOL    HW156997  10.644   2.758   8.033
51700SOL    HW256998  10.523   2.808   8.109
51701SOL     OW56999   2.344  14.295   5.045
51701SOL    HW157000   2.300  14.361   5.098
51701SOL    HW257001   2.436  14.301   5.070
51702SOL     OW57002   8.382   6.085  10.547
51702SOL    HW157003   8.396   6.040  10.463
51702SOL    HW257004   8.295   6.124  10.539
51703SOL     OW57005  12.383   7.318   2.920
51703SOL    HW157006  12.344   7.251   2.863
51703SOL    HW257007  12.309   7.373   2.945
51704SOL     OW57008   0.346   1.047   1.870
51704SOL    HW157009   0.274   0.985   1.887
51704SOL    HW257010   0.415   1.020   1.931
51705SOL     OW57011  12.397   7.470   9.565
51705SOL    HW157012  12.355   7.545   9.523
51705SOL    HW257013  12.382   7.397   9.504
51706SOL     OW57014   3.484  11.264   1.224
51706SOL    HW157015   3.490  11.310   1.308
51706SOL    HW257016   3.497  11.172   1.246
51707SOL     OW57017   0.132   2.534   3.049
51707SOL    HW157018   0.200   2.602   3.040
51707SOL    HW257019   0.158   2.467   2.986
51708SOL     OW57020  10.057   2.968   1.006
51708SOL    HW157021  10.072   3.030   1.078
51708SOL    HW257022  10.032   2.887   1.050
51709SOL     OW57023   6.024  11.464  12.259
51709SOL    HW157024   6.113  11.458  12.294
51709SOL    HW257025   6.025  11.413  12.178
51710SOL     OW57026  11.563  14.640   7.923
51710SOL    HW157027  11.474  14.668   7.947
51710SOL    HW257028  11.577  14.559   7.971
51711SOL     OW57029  11.279   0.948  12.187
51711SOL    HW157030  11.322   0.941  12.102
51711SOL    HW257031  11.338   0.903  12.247
51712SOL     OW57032   6.321  11.175   8.133
51712SOL    HW157033   6.365  11.222   8.203
51712SOL    HW257034   6.357  11.213   8.053
51713SOL     OW57035   5.287   1.122   7.652
51713SOL    HW157036   5.371   1.091   7.618
51713SOL    HW257037   5.229   1.124   7.576
51714SOL     OW57038   8.338   4.892   0.133
51714SOL    HW157039   8.346   4.891   0.228
51714SOL    HW257040   8.425   4.868   0.101
51715SOL     OW57041   1.043  10.590  11.322
51715SOL    HW157042   0.981  10.519  11.340
51715SOL    HW257043   1.015  10.662  11.379
51716SOL     OW57044   3.591  13.791  11.758
51716SOL    HW157045   3.604  13.702  11.725
51716SOL    HW257046   3.500  13.794  11.786
51717SOL     OW57047  14.335   6.166   1.558
51717SOL    HW157048  14.375   6.079   1.562
51717SOL    HW257049  14.370   6.203   1.476
51718SOL     OW57050  14.674   2.628   9.365
51718SOL    HW157051  14.634   2.670   9.441
51718SOL    HW257052  14.768   2.639   9.378
51719SOL     OW57053  13.722   1.344   4.866
51719SOL    HW157054  13.810   1.328   4.833
51719SOL    HW257055  13.668   1.277   4.824
51720SOL     OW57056   0.057   0.516   5.996
51720SOL    HW157057   0.088   0.482   5.912
51720SOL    HW257058  14.833   0.516   5.988
51721SOL     OW57059  11.074  10.109   0.965
51721SOL    HW157060  11.077  10.167   1.041
51721SOL    HW257061  11.011  10.041   0.989
51722SOL     OW57062  14.611   2.914   6.300
51722SOL    HW157063  14.618   3.001   6.340
51722SOL    HW257064  14.552   2.927   6.226
51723SOL     OW57065   5.571   2.567   9.256
51723SOL    HW157066   5.518   2.590   9.180
51723SOL    HW257067   5.533   2.485   9.289
51724SOL     OW57068   0.066  10.377  13.541
51724SOL    HW157069  14.857  10.356  13.589
51724SOL    HW257070   0.035  10.412  13.457
51725SOL     OW57071  10.180  11.028   3.014
51725SOL    HW157072  10.262  11.077   3.005
51725SOL    HW257073  10.207  10.945   3.054
51726SOL     OW57074  11.110   1.405   5.634
51726SOL    HW157075  11.200   1.423   5.606
51726SOL    HW257076  11.061   1.483   5.607
51727SOL     OW57077  11.963   6.319   9.394
51727SOL    HW157078  11.976   6.408   9.362
51727SOL    HW257079  11.973   6.264   9.316
51728SOL     OW57080   8.186  14.417   1.585
51728SOL    HW157081   8.213  14.325   1.584
51728SOL    HW257082   8.194  14.443   1.677
51729SOL     OW57083   4.652   3.103  10.526
51729SOL    HW157084   4.716   3.034  10.509
51729SOL    HW257085   4.568   3.059  10.523
51730SOL     OW57086   0.214   8.349   8.384
51730SOL    HW157087   0.246   8.321   8.298
51730SOL    HW257088   0.252   8.436   8.395
51731SOL     OW57089   5.640  13.937  14.572
51731SOL    HW157090   5.648  13.851  14.613
51731SOL    HW257091   5.577  13.926  14.502
51732SOL     OW57092  10.704  14.689   6.885
51732SOL    HW157093  10.703  14.645   6.970
51732SOL    HW257094  10.731  14.779   6.905
51733SOL     OW57095   9.764   4.960   1.234
51733SOL    HW157096   9.840   4.938   1.180
51733SOL    HW257097   9.796   4.953   1.324
51734SOL     OW57098   1.252   1.443  13.179
51734SOL    HW157099   1.231   1.495  13.101
51734SOL    HW257100   1.213   1.357  13.162
51735SOL     OW57101   1.519  12.618   7.827
51735SOL    HW157102   1.565  12.582   7.903
51735SOL    HW257103   1.553  12.569   7.753
51736SOL     OW57104   1.159   9.908   0.819
51736SOL    HW157105   1.251   9.929   0.802
51736SOL    HW257106   1.160   9.869   0.907
51737SOL     OW57107  14.863   3.447   7.268
51737SOL    HW157108  14.836   3.404   7.187
51737SOL    HW257109   0.078   3.411   7.287
51738SOL     OW57110   4.710  11.975   1.121
51738SOL    HW157111   4.646  11.996   1.190
51738SOL    HW257112   4.704  12.047   1.059
51739SOL     OW57113   6.805   2.125   8.914
51739SOL    HW157114   6.824   2.060   8.846
51739SOL    HW257115   6.748   2.079   8.975
51740SOL     OW57116   6.507   4.686  10.424
51740SOL    HW157117   6.561   4.608  10.415
51740SOL    HW257118   6.438   4.661  10.486
51741SOL     OW57119   0.842  14.581   4.784
51741SOL    HW157120   0.780  14.513   4.760
51741SOL    HW257121   0.787  14.656   4.809
51742SOL     OW57122  12.901   6.282   2.328
51742SOL    HW157123  12.842   6.254   2.398
51742SOL    HW257124  12.904   6.378   2.335
51743SOL     OW57125   7.760   9.045   0.378
51743SOL    HW157126   7.782   9.084   0.293
51743SOL    HW257127   7.703   9.109   0.420
51744SOL     OW57128   0.207   9.130   8.501
51744SOL    HW157129   0.257   9.208   8.524
51744SOL    HW257130   0.148   9.158   8.431
51745SOL     OW57131  13.788  13.795  12.597
51745SOL    HW157132  13.880  13.791  12.626
51745SOL    HW257133  13.773  13.888  12.579
51746SOL     OW57134   8.069  13.428   4.148
51746SOL    HW157135   8.129  13.501   4.129
51746SOL    HW257136   8.035  13.402   4.063
51747SOL     OW57137   4.078   9.264   7.849
51747SOL    HW157138   4.024   9.208   7.793
51747SOL    HW257139   4.020   9.292   7.919
51748SOL     OW57140   9.685  12.918   8.174
51748SOL    HW157141   9.592  12.933   8.190
51748SOL    HW257142   9.725  12.919   8.262
51749SOL     OW57143  13.771   2.613   9.098
51749SOL    HW157144  13.776   2.578   9.187
51749SOL    HW257145  13.771   2.708   9.109
51750SOL     OW57146   4.221   9.620  14.456
51750SOL    HW157147   4.269   9.657  14.382
51750SOL    HW257148   4.166   9.551  14.418
51751SOL     OW57149   3.195   5.233   0.408
51751SOL    HW157150   3.247   5.224   0.329
51751SOL    HW257151   3.106   5.211   0.382
51752SOL     OW57152  13.207  10.688  10.940
51752SOL    HW157153  13.225  10.776  10.906
51752SOL    HW257154  13.147  10.703  11.014
51753SOL     OW57155   9.381   4.655   0.780
51753SOL    HW157156   9.426   4.572   0.795
51753SOL    HW257157   9.434   4.698   0.713
51754SOL     OW57158   4.685  13.160   4.574
51754SOL    HW157159   4.734  13.079   4.590
51754SOL    HW257160   4.737  13.208   4.510
51755SOL     OW57161   8.792   9.530   0.750
51755SOL    HW157162   8.881   9.503   0.726
51755SOL    HW257163   8.765   9.587   0.678
51756SOL     OW57164  11.234  11.701  12.180
51756SOL    HW157165  11.272  11.723  12.095
51756SOL    HW257166  11.309  11.694  12.239
51757SOL     OW57167  14.676  11.105  12.909
51757SOL    HW157168  14.688  11.199  12.927
51757SOL    HW257169  14.688  11.098  12.814
51758SOL     OW57170   5.249   2.028   3.032
51758SOL    HW157171   5.245   1.941   3.071
51758SOL    HW257172   5.330   2.028   2.981
51759SOL     OW57173   9.622   8.369  14.185
51759SOL    HW157174   9.527   8.382  14.188
51759SOL    HW257175   9.654   8.443  14.132
51760SOL     OW57176   6.735  11.197  11.617
51760SOL    HW157177   6.817  11.219  11.574
51760SOL    HW257178   6.760  11.179  11.708
51761SOL     OW57179   3.615  12.080  14.259
51761SOL    HW157180   3.553  12.012  14.285
51761SOL    HW257181   3.638  12.124  14.341
51762SOL     OW57182  11.366  14.832  11.769
51762SOL    HW157183  11.389   0.053  11.778
51762SOL    HW257184  11.288  14.821  11.824
51763SOL     OW57185   8.951   3.449  11.585
51763SOL    HW157186   9.031   3.487  11.549
51763SOL    HW257187   8.938   3.494  11.668
51764SOL     OW57188   5.101   8.623  11.431
51764SOL    HW157189   5.039   8.610  11.359
51764SOL    HW257190   5.142   8.708  11.413
51765SOL     OW57191   0.672  14.281   8.556
51765SOL    HW157192   0.603  14.234   8.604
51765SOL    HW257193   0.745  14.284   8.618
51766SOL     OW57194   2.159   6.832   8.422
51766SOL    HW157195   2.239   6.871   8.458
51766SOL    HW257196   2.095   6.838   8.494
51767SOL     OW57197  12.196  14.862   5.108
51767SOL    HW157198  12.138  14.812   5.051
51767SOL    HW257199  12.243  14.796   5.159
51768SOL     OW57200   5.299  14.484  11.839
51768SOL    HW157201   5.205  14.501  11.836
51768SOL    HW257202   5.323  14.492  11.931
51769SOL     OW57203   6.159  14.218   0.179
51769SOL    HW157204   6.099  14.246   0.248
51769SOL    HW257205   6.225  14.286   0.176
51770SOL     OW57206   7.988   5.987   9.642
51770SOL    HW157207   7.920   5.961   9.704
51770SOL    HW257208   7.947   5.977   9.556
51771SOL     OW57209   2.286   8.974  14.171
51771SOL    HW157210   2.218   8.920  14.211
51771SOL    HW257211   2.348   8.911  14.135
51772SOL     OW57212   6.109  13.870   2.857
51772SOL    HW157213   6.030  13.865   2.804
51772SOL    HW257214   6.139  13.960   2.848
51773SOL     OW57215  13.858   6.889  10.652
51773SOL    HW157216  13.768   6.892  10.684
51773SOL    HW257217  13.872   6.796  10.630
51774SOL     OW57218   4.284  10.635   6.162
51774SOL    HW157219   4.189  10.637   6.178
51774SOL    HW257220   4.323  10.652   6.248
51775SOL     OW57221  13.219  13.818  11.353
51775SOL    HW157222  13.185  13.739  11.311
51775SOL    HW257223  13.292  13.845  11.298
51776SOL     OW57224   9.512  11.787   3.441
51776SOL    HW157225   9.504  11.723   3.511
51776SOL    HW257226   9.442  11.851   3.459
51777SOL     OW57227   7.019   5.847   3.168
51777SOL    HW157228   7.010   5.916   3.101
51777SOL    HW257229   7.030   5.895   3.250
51778SOL     OW57230   8.812  13.974   0.864
51778SOL    HW157231   8.816  13.961   0.958
51778SOL    HW257232   8.806  14.069   0.853
51779SOL     OW57233  10.469   0.968  10.863
51779SOL    HW157234  10.490   1.061  10.870
51779SOL    HW257235  10.541   0.932  10.810
51780SOL     OW57236   1.849   2.705   6.429
51780SOL    HW157237   1.787   2.745   6.490
51780SOL    HW257238   1.934   2.741   6.454
51781SOL     OW57239   1.907   1.391   1.424
51781SOL    HW157240   1.976   1.324   1.419
51781SOL    HW257241   1.849   1.370   1.351
51782SOL     OW57242   6.686   4.560   4.979
51782SOL    HW157243   6.686   4.647   5.018
51782SOL    HW257244   6.595   4.544   4.954
51783SOL     OW57245  13.501   5.608   6.077
51783SOL    HW157246  13.588   5.636   6.048
51783SOL    HW257247  13.441   5.643   6.010
51784SOL     OW57248   6.625  12.421  10.360
51784SOL    HW157249   6.681  12.421  10.281
51784SOL    HW257250   6.616  12.328  10.382
51785SOL     OW57251  11.868   1.105   7.828
51785SOL    HW157252  11.817   1.110   7.909
51785SOL    HW257253  11.924   1.183   7.830
51786SOL     OW57254   9.403   4.381   3.062
51786SOL    HW157255   9.425   4.467   3.099
51786SOL    HW257256   9.415   4.391   2.968
51787SOL     OW57257   3.516   9.548   1.871
51787SOL    HW157258   3.473   9.550   1.785
51787SOL    HW257259   3.578   9.475   1.866
51788SOL     OW57260  10.317   0.818  11.327
51788SOL    HW157261  10.289   0.839  11.416
51788SOL    HW257262  10.399   0.866  11.316
51789SOL     OW57263   1.639   5.372   6.003
51789SOL    HW157264   1.655   5.361   5.909
51789SOL    HW257265   1.574   5.441   6.009
51790SOL     OW57266  14.433  12.259   4.096
51790SOL    HW157267  14.522  12.227   4.081
51790SOL    HW257268  14.380  12.179   4.098
51791SOL     OW57269   2.881   7.635  10.712
51791SOL    HW157270   2.886   7.730  10.725
51791SOL    HW257271   2.913   7.621  10.623
51792SOL     OW57272  11.089   3.425  11.993
51792SOL    HW157273  11.173   3.428  12.040
51792SOL    HW257274  11.075   3.333  11.973
51793SOL     OW57275   8.942   3.510   7.663
51793SOL    HW157276   8.874   3.442   7.667
51793SOL    HW257277   9.024   3.463   7.674
51794SOL     OW57278   4.761  12.501   3.751
51794SOL    HW157279   4.809  12.582   3.767
51794SOL    HW257280   4.695  12.498   3.820
51795SOL     OW57281  11.788   1.909   8.572
51795SOL    HW157282  11.760   1.906   8.663
51795SOL    HW257283  11.852   1.838   8.564
51796SOL     OW57284   1.651  13.582   9.344
51796SOL    HW157285   1.662  13.589   9.249
51796SOL    HW257286   1.559  13.556   9.355
51797SOL     OW57287   6.124  10.017   6.481
51797SOL    HW157288   6.071  10.080   6.529
51797SOL    HW257289   6.211  10.057   6.477
51798SOL     OW57290   5.271   6.699  11.786
51798SOL    HW157291   5.289   6.783  11.744
51798SOL    HW257292   5.189   6.713  11.833
51799SOL     OW57293   4.449   1.001  13.452
51799SOL    HW157294   4.450   1.094  13.475
51799SOL    HW257295   4.466   0.999  13.358
51800SOL     OW57296  14.074   5.416   1.338
51800SOL    HW157297  14.020   5.394   1.263
51800SOL    HW257298  14.080   5.335   1.388
51801SOL     OW57299  11.499   3.696  11.225
51801SOL    HW157300  11.406   3.675  11.222
51801SOL    HW257301  11.515   3.749  11.147
51802SOL     OW57302  10.542   5.910   4.837
51802SOL    HW157303  10.597   5.852   4.785
51802SOL    HW257304  10.453   5.879   4.822
51803SOL     OW57305   3.620   4.039  13.137
51803SOL    HW157306   3.566   4.053  13.215
51803SOL    HW257307   3.628   3.943  13.131
51804SOL     OW57308  12.129   7.782  10.630
51804SOL    HW157309  12.221   7.792  10.606
51804SOL    HW257310  12.084   7.771  10.546
51805SOL     OW57311  10.387  12.024   7.875
51805SOL    HW157312  10.367  12.109   7.915
51805SOL    HW257313  10.479  12.010   7.897
51806SOL     OW57314   8.069  11.538  14.083
51806SOL    HW157315   8.000  11.502  14.139
51806SOL    HW257316   8.027  11.610  14.035
51807SOL     OW57317   2.956  11.666   2.612
51807SOL    HW157318   3.023  11.611   2.653
51807SOL    HW257319   2.999  11.701   2.534
51808SOL     OW57320   8.756  10.223   1.054
51808SOL    HW157321   8.770  10.228   1.148
51808SOL    HW257322   8.827  10.167   1.022
51809SOL     OW57323  14.241   8.686   2.139
51809SOL    HW157324  14.214   8.778   2.139
51809SOL    HW257325  14.197   8.649   2.216
51810SOL     OW57326   6.750   8.098   2.478
51810SOL    HW157327   6.815   8.167   2.461
51810SOL    HW257328   6.676   8.121   2.422
51811SOL     OW57329   8.692   2.953   9.762
51811SOL    HW157330   8.710   2.936   9.854
51811SOL    HW257331   8.731   3.038   9.745
51812SOL     OW57332  14.616   4.042  12.697
51812SOL    HW157333  14.536   3.993  12.715
51812SOL    HW257334  14.684   3.974  12.690
51813SOL     OW57335   3.172   3.729  11.158
51813SOL    HW157336   3.091   3.702  11.115
51813SOL    HW257337   3.241   3.684  11.108
51814SOL     OW57338  14.441   4.980   0.997
51814SOL    HW157339  14.396   5.052   1.041
51814SOL    HW257340  14.523   5.019   0.965
51815SOL     OW57341   1.940   3.605  13.650
51815SOL    HW157342   1.989   3.532  13.687
51815SOL    HW257343   1.861   3.565  13.614
51816SOL     OW57344   0.904   1.999   8.100
51816SOL    HW157345   0.833   1.992   8.036
51816SOL    HW257346   0.984   1.992   8.048
51817SOL     OW57347   0.473  12.374   2.116
51817SOL    HW157348   0.527  12.446   2.083
51817SOL    HW257349   0.459  12.394   2.209
51818SOL     OW57350  10.376   6.686  10.758
51818SOL    HW157351  10.309   6.670  10.825
51818SOL    HW257352  10.451   6.634  10.786
51819SOL     OW57353   3.530   9.852   9.340
51819SOL    HW157354   3.451   9.896   9.371
51819SOL    HW257355   3.556   9.795   9.412
51820SOL     OW57356   5.945  10.031   6.027
51820SOL    HW157357   5.952  10.040   5.932
51820SOL    HW257358   6.034  10.018   6.057
51821SOL     OW57359   5.192   1.112   9.508
51821SOL    HW157360   5.099   1.098   9.494
51821SOL    HW257361   5.229   1.122   9.420
51822SOL     OW57362   2.293   2.491  11.131
51822SOL    HW157363   2.324   2.404  11.153
51822SOL    HW257364   2.364   2.550  11.158
51823SOL     OW57365  14.331   1.810   8.054
51823SOL    HW157366  14.287   1.734   8.016
51823SOL    HW257367  14.385   1.774   8.125
51824SOL     OW57368   9.937   1.235  14.826
51824SOL    HW157369   9.947   1.197   0.041
51824SOL    HW257370   9.873   1.178  14.782
51825SOL     OW57371  13.116  10.789   1.989
51825SOL    HW157372  13.078  10.833   1.913
51825SOL    HW257373  13.061  10.817   2.062
51826SOL     OW57374   5.101  14.745  13.252
51826SOL    HW157375   5.046  14.671  13.229
51826SOL    HW257376   5.110  14.794  13.170
51827SOL     OW57377   2.846   3.767   3.305
51827SOL    HW157378   2.750   3.768   3.304
51827SOL    HW257379   2.869   3.729   3.390
51828SOL     OW57380   0.113   2.047   2.124
51828SOL    HW157381   0.032   2.029   2.170
51828SOL    HW257382   0.088   2.059   2.032
51829SOL     OW57383   7.838  14.182   0.397
51829SOL    HW157384   7.852  14.094   0.434
51829SOL    HW257385   7.798  14.232   0.469
51830SOL     OW57386   9.086   7.954   9.013
51830SOL    HW157387   9.070   8.035   9.061
51830SOL    HW257388   9.002   7.934   8.970
51831SOL     OW57389   0.756  14.060  11.213
51831SOL    HW157390   0.748  14.059  11.117
51831SOL    HW257391   0.823  13.994  11.231
51832SOL     OW57392  14.746  14.624  12.620
51832SOL    HW157393  14.660  14.606  12.658
51832SOL    HW257394  14.802  14.643  12.695
51833SOL     OW57395  10.714   4.357   7.009
51833SOL    HW157396  10.778   4.421   6.977
51833SOL    HW257397  10.762   4.274   7.010
51834SOL     OW57398   9.297   2.803   2.376
51834SOL    HW157399   9.314   2.875   2.315
51834SOL    HW257400   9.223   2.833   2.429
51835SOL     OW57401   5.008   6.491  14.343
51835SOL    HW157402   5.018   6.571  14.292
51835SOL    HW257403   4.955   6.434  14.288
51836SOL     OW57404   5.780  12.969   7.947
51836SOL    HW157405   5.868  12.931   7.946
51836SOL    HW257406   5.792  13.059   7.917
51837SOL     OW57407   6.689   3.198   8.925
51837SOL    HW157408   6.742   3.274   8.901
51837SOL    HW257409   6.677   3.205   9.019
51838SOL     OW57410  12.943   4.796   7.526
51838SOL    HW157411  12.975   4.748   7.602
51838SOL    HW257412  13.021   4.826   7.481
51839SOL     OW57413   2.500   4.533   5.150
51839SOL    HW157414   2.456   4.525   5.235
51839SOL    HW257415   2.443   4.591   5.099
51840SOL     OW57416   4.550   9.849   6.128
51840SOL    HW157417   4.493   9.910   6.175
51840SOL    HW257418   4.530   9.763   6.166
51841SOL     OW57419  13.758  12.385  14.250
51841SOL    HW157420  13.841  12.429  14.233
51841SOL    HW257421  13.716  12.380  14.164
51842SOL     OW57422  12.792   3.640   6.228
51842SOL    HW157423  12.808   3.556   6.185
51842SOL    HW257424  12.769   3.699   6.157
51843SOL     OW57425   6.588   0.128   6.498
51843SOL    HW157426   6.546   0.062   6.444
51843SOL    HW257427   6.632   0.186   6.435
51844SOL     OW57428   1.375  13.535   7.930
51844SOL    HW157429   1.464  13.528   7.964
51844SOL    HW257430   1.329  13.458   7.964
51845SOL     OW57431   5.392   7.024   6.153
51845SOL    HW157432   5.355   6.987   6.233
51845SOL    HW257433   5.316   7.036   6.095
51846SOL     OW57434  13.784  10.233   3.640
51846SOL    HW157435  13.753  10.147   3.611
51846SOL    HW257436  13.708  10.272   3.684
51847SOL     OW57437  10.322   6.900   4.843
51847SOL    HW157438  10.284   6.988   4.842
51847SOL    HW257439  10.286   6.859   4.921
51848SOL     OW57440  11.993   0.794   9.824
51848SOL    HW157441  12.087   0.777   9.827
51848SOL    HW257442  11.954   0.725   9.878
51849SOL     OW57443   5.744   0.286   0.537
51849SOL    HW157444   5.770   0.210   0.588
51849SOL    HW257445   5.827   0.327   0.512
51850SOL     OW57446   2.393  11.652  13.575
51850SOL    HW157447   2.348  11.736  13.584
51850SOL    HW257448   2.485  11.673  13.590
51851SOL     OW57449   5.398   0.494  13.629
51851SOL    HW157450   5.307   0.465  13.629
51851SOL    HW257451   5.442   0.434  13.689
51852SOL     OW57452   4.637   7.524   4.803
51852SOL    HW157453   4.719   7.566   4.777
51852SOL    HW257454   4.572   7.595   4.801
51853SOL     OW57455  12.475   8.777   5.868
51853SOL    HW157456  12.550   8.722   5.847
51853SOL    HW257457  12.476   8.783   5.964
51854SOL     OW57458   8.762   0.789  11.920
51854SOL    HW157459   8.732   0.850  11.987
51854SOL    HW257460   8.689   0.728  11.908
51855SOL     OW57461   4.128   8.124   0.823
51855SOL    HW157462   4.089   8.058   0.880
51855SOL    HW257463   4.193   8.168   0.878
51856SOL     OW57464   1.864  14.866  13.280
51856SOL    HW157465   1.867   0.031  13.191
51856SOL    HW257466   1.816   0.059  13.331
51857SOL     OW57467   9.285  12.751   7.408
51857SOL    HW157468   9.376  12.755   7.439
51857SOL    HW257469   9.235  12.796   7.476
51858SOL     OW57470  13.580   1.726   3.498
51858SOL    HW157471  13.544   1.664   3.562
51858SOL    HW257472  13.673   1.731   3.520
51859SOL     OW57473  11.561   7.279   3.593
51859SOL    HW157474  11.642   7.316   3.628
51859SOL    HW257475  11.525   7.228   3.665
51860SOL     OW57476   2.931   7.555   5.021
51860SOL    HW157477   3.011   7.533   5.069
51860SOL    HW257478   2.960   7.567   4.930
51861SOL     OW57479  10.150  14.865   6.235
51861SOL    HW157480  10.132  14.776   6.265
51861SOL    HW257481  10.154  14.859   6.140
51862SOL     OW57482   0.204   3.944   3.166
51862SOL    HW157483   0.223   4.038   3.156
51862SOL    HW257484   0.110   3.937   3.152
51863SOL     OW57485  10.374   6.676  10.015
51863SOL    HW157486  10.412   6.734  10.081
51863SOL    HW257487  10.351   6.734   9.943
51864SOL     OW57488   0.542  11.097  13.258
51864SOL    HW157489   0.513  11.008  13.279
51864SOL    HW257490   0.626  11.085  13.214
51865SOL     OW57491   5.196   5.747   1.129
51865SOL    HW157492   5.167   5.728   1.040
51865SOL    HW257493   5.209   5.661   1.169
51866SOL     OW57494   9.065   3.297   8.121
51866SOL    HW157495   9.126   3.342   8.179
51866SOL    HW257496   9.026   3.367   8.068
51867SOL     OW57497  13.890  13.338  12.756
51867SOL    HW157498  13.959  13.374  12.813
51867SOL    HW257499  13.826  13.409  12.749
51868SOL     OW57500   6.102  10.352   7.308
51868SOL    HW157501   6.176  10.378   7.254
51868SOL    HW257502   6.100  10.415   7.379
51869SOL     OW57503  14.207  12.676  14.086
51869SOL    HW157504  14.269  12.748  14.093
51869SOL    HW257505  14.123  12.713  14.111
51870SOL     OW57506   0.449   1.723   8.076
51870SOL    HW157507   0.533   1.677   8.079
51870SOL    HW257508   0.467   1.802   8.025
51871SOL     OW57509   6.103   2.495   6.805
51871SOL    HW157510   6.034   2.552   6.769
51871SOL    HW257511   6.136   2.447   6.729
51872SOL     OW57512   5.422   5.007   7.552
51872SOL    HW157513   5.397   5.020   7.460
51872SOL    HW257514   5.435   5.095   7.586
51873SOL     OW57515   6.000   8.663  13.660
51873SOL    HW157516   5.998   8.735  13.723
51873SOL    HW257517   5.952   8.696  13.584
51874SOL     OW57518   8.302   8.335   8.941
51874SOL    HW157519   8.270   8.257   8.897
51874SOL    HW257520   8.397   8.325   8.942
51875SOL     OW57521   3.089  13.001   1.033
51875SOL    HW157522   3.161  13.026   1.091
51875SOL    HW257523   3.079  12.907   1.047
51876SOL     OW57524  10.382   7.737   0.822
51876SOL    HW157525  10.369   7.680   0.897
51876SOL    HW257526  10.338   7.819   0.846
51877SOL     OW57527   1.630   1.048  14.824
51877SOL    HW157528   1.702   1.104  14.852
51877SOL    HW257529   1.667   0.993  14.756
51878SOL     OW57530  13.976   9.989   7.029
51878SOL    HW157531  13.997   9.953   6.942
51878SOL    HW257532  13.966  10.083   7.014
51879SOL     OW57533  11.423   5.872  13.090
51879SOL    HW157534  11.433   5.792  13.039
51879SOL    HW257535  11.420   5.842  13.181
51880SOL     OW57536   3.323  10.139   6.281
51880SOL    HW157537   3.307  10.102   6.194
51880SOL    HW257538   3.243  10.120   6.330
51881SOL     OW57539   1.571   6.509  13.643
51881SOL    HW157540   1.627   6.439  13.611
51881SOL    HW257541   1.627   6.587  13.643
51882SOL     OW57542  14.757   2.136   3.739
51882SOL    HW157543  14.778   2.073   3.671
51882SOL    HW257544  14.738   2.217   3.692
51883SOL     OW57545   5.329   3.991   2.995
51883SOL    HW157546   5.306   3.925   3.060
51883SOL    HW257547   5.359   3.941   2.919
51884SOL     OW57548   8.009   4.428   8.748
51884SOL    HW157549   8.036   4.344   8.784
51884SOL    HW257550   7.914   4.422   8.741
51885SOL     OW57551   1.702   6.802   5.537
51885SOL    HW157552   1.766   6.788   5.467
51885SOL    HW257553   1.671   6.715   5.561
51886SOL     OW57554   0.956  11.656   2.552
51886SOL    HW157555   0.928  11.740   2.589
51886SOL    HW257556   1.013  11.618   2.618
51887SOL     OW57557   4.939   9.768  14.123
51887SOL    HW157558   4.850   9.750  14.092
51887SOL    HW257559   4.962   9.693  14.177
51888SOL     OW57560   9.045  12.332   4.139
51888SOL    HW157561   9.093  12.415   4.129
51888SOL    HW257562   8.955  12.354   4.118
51889SOL     OW57563   2.536  13.349   1.498
51889SOL    HW157564   2.540  13.412   1.426
51889SOL    HW257565   2.499  13.270   1.459
51890SOL     OW57566   6.784   8.016  13.832
51890SOL    HW157567   6.721   8.040  13.764
51890SOL    HW257568   6.732   7.971  13.898
51891SOL     OW57569   6.986   6.574   0.164
51891SOL    HW157570   6.951   6.488   0.142
51891SOL    HW257571   7.030   6.562   0.247
51892SOL     OW57572   8.336   1.077   2.105
51892SOL    HW157573   8.302   1.156   2.063
51892SOL    HW257574   8.421   1.104   2.140
51893SOL     OW57575   4.266   5.494   7.039
51893SOL    HW157576   4.170   5.498   7.043
51893SOL    HW257577   4.286   5.495   6.945
51894SOL     OW57578  13.567   3.433  13.866
51894SOL    HW157579  13.578   3.393  13.952
51894SOL    HW257580  13.520   3.367  13.815
51895SOL     OW57581  10.713  14.729   8.917
51895SOL    HW157582  10.770  14.790   8.964
51895SOL    HW257583  10.630  14.776   8.910
51896SOL     OW57584   3.884   5.410   4.847
51896SOL    HW157585   3.801   5.454   4.827
51896SOL    HW257586   3.938   5.425   4.770
51897SOL     OW57587   3.755   1.021  12.245
51897SOL    HW157588   3.816   0.987  12.179
51897SOL    HW257589   3.686   0.956  12.250
51898SOL     OW57590  11.809   2.465  14.806
51898SOL    HW157591  11.869   2.539  14.802
51898SOL    HW257592  11.739   2.494  14.865
51899SOL     OW57593   0.151   1.954   6.414
51899SOL    HW157594   0.077   1.894   6.428
51899SOL    HW257595   0.190   1.924   6.332
51900SOL     OW57596  10.184   8.268   3.339
51900SOL    HW157597  10.247   8.329   3.302
51900SOL    HW257598  10.105   8.320   3.353
51901SOL     OW57599  13.705  11.110   7.166
51901SOL    HW157600  13.782  11.152   7.203
51901SOL    HW257601  13.680  11.167   7.093
51902SOL     OW57602   7.690  11.309   0.070
51902SOL    HW157603   7.736  11.389   0.046
51902SOL    HW257604   7.597  11.332   0.064
51903SOL     OW57605  11.784   8.187   6.483
51903SOL    HW157606  11.863   8.231   6.453
51903SOL    HW257607  11.784   8.200   6.578
51904SOL     OW57608   0.871  12.284  12.415
51904SOL    HW157609   0.931  12.211  12.396
51904SOL    HW257610   0.927  12.362  12.414
51905SOL     OW57611   6.639   0.466  14.799
51905SOL    HW157612   6.624   0.428   0.013
51905SOL    HW257613   6.734   0.478  14.794
51906SOL     OW57614   0.529   9.727   9.062
51906SOL    HW157615   0.478   9.699   8.986
51906SOL    HW257616   0.535   9.823   9.052
51907SOL     OW57617  10.597  12.023   3.928
51907SOL    HW157618  10.653  11.991   3.857
51907SOL    HW257619  10.656  12.033   4.003
51908SOL     OW57620   7.465   1.336   2.144
51908SOL    HW157621   7.443   1.276   2.073
51908SOL    HW257622   7.517   1.284   2.205
51909SOL     OW57623  11.040   2.931   8.305
51909SOL    HW157624  10.964   2.873   8.311
51909SOL    HW257625  11.010   3.014   8.342
51910SOL     OW57626  11.438  14.048   1.113
51910SOL    HW157627  11.394  14.076   1.194
51910SOL    HW257628  11.515  14.000   1.143
51911SOL     OW57629   0.204   0.347   5.798
51911SOL    HW157630   0.226   0.269   5.747
51911SOL    HW257631   0.199   0.417   5.732
51912SOL     OW57632   9.118   6.376  14.015
51912SOL    HW157633   9.104   6.405  13.925
51912SOL    HW257634   9.030   6.377  14.054
51913SOL     OW57635   8.274   8.547   0.792
51913SOL    HW157636   8.242   8.463   0.824
51913SOL    HW257637   8.253   8.547   0.699
51914SOL     OW57638  10.784  12.260   2.493
51914SOL    HW157639  10.855  12.296   2.439
51914SOL    HW257640  10.828  12.198   2.551
51915SOL     OW57641   8.261   8.177   7.159
51915SOL    HW157642   8.243   8.196   7.251
51915SOL    HW257643   8.219   8.249   7.112
51916SOL     OW57644  12.743   1.799   9.418
51916SOL    HW157645  12.735   1.892   9.398
51916SOL    HW257646  12.653   1.766   9.413
51917SOL     OW57647   3.438   2.379  13.155
51917SOL    HW157648   3.489   2.367  13.075
51917SOL    HW257649   3.503   2.388  13.225
51918SOL     OW57650  14.453   8.869   7.904
51918SOL    HW157651  14.389   8.821   7.851
51918SOL    HW257652  14.429   8.961   7.891
51919SOL     OW57653   9.761   9.711   3.533
51919SOL    HW157654   9.789   9.641   3.475
51919SOL    HW257655   9.669   9.725   3.512
51920SOL     OW57656  14.342   0.894   5.560
51920SOL    HW157657  14.351   0.819   5.619
51920SOL    HW257658  14.431   0.910   5.528
51921SOL     OW57659   4.381  13.902  13.765
51921SOL    HW157660   4.446  13.964  13.732
51921SOL    HW257661   4.297  13.947  13.755
51922SOL     OW57662  10.913   2.408   7.489
51922SOL    HW157663  10.864   2.333   7.456
51922SOL    HW257664  10.964   2.438   7.413
51923SOL     OW57665  12.493  13.158  13.435
51923SOL    HW157666  12.505  13.251  13.453
51923SOL    HW257667  12.450  13.124  13.514
51924SOL     OW57668   4.016   6.614   6.367
51924SOL    HW157669   4.055   6.546   6.312
51924SOL    HW257670   3.985   6.567   6.445
51925SOL     OW57671  10.542   6.705   5.536
51925SOL    HW157672  10.610   6.740   5.593
51925SOL    HW257673  10.589   6.671   5.460
51926SOL     OW57674   6.134  13.798   6.961
51926SOL    HW157675   6.121  13.820   7.054
51926SOL    HW257676   6.089  13.714   6.950
51927SOL     OW57677  10.388   4.451   0.765
51927SOL    HW157678  10.383   4.544   0.744
51927SOL    HW257679  10.480   4.437   0.790
51928SOL     OW57680   2.665   5.436  14.485
51928SOL    HW157681   2.700   5.350  14.508
51928SOL    HW257682   2.580   5.417  14.444
51929SOL     OW57683   7.959   3.609   8.302
51929SOL    HW157684   8.017   3.552   8.252
51929SOL    HW257685   7.904   3.548   8.352
51930SOL     OW57686  11.818  12.361   8.396
51930SOL    HW157687  11.873  12.285   8.375
51930SOL    HW257688  11.763  12.373   8.318
51931SOL     OW57689  12.263   3.230   7.358
51931SOL    HW157690  12.226   3.318   7.368
51931SOL    HW257691  12.199   3.171   7.398
51932SOL     OW57692  14.804  10.986  14.023
51932SOL    HW157693  14.714  10.961  14.042
51932SOL    HW257694  14.811  10.980  13.928
51933SOL     OW57695  11.680  12.630   7.956
51933SOL    HW157696  11.681  12.725   7.966
51933SOL    HW257697  11.760  12.610   7.909
51934SOL     OW57698   4.953   0.041  14.869
51934SOL    HW157699   4.962   0.003  14.781
51934SOL    HW257700   5.043   0.066   0.021
51935SOL     OW57701  12.119  12.392   5.396
51935SOL    HW157702  12.149  12.350   5.316
51935SOL    HW257703  12.199  12.426   5.437
51936SOL     OW57704  11.686   2.096   5.474
51936SOL    HW157705  11.670   2.176   5.524
51936SOL    HW257706  11.599   2.058   5.462
51937SOL     OW57707   3.499   8.635   2.436
51937SOL    HW157708   3.577   8.687   2.454
51937SOL    HW257709   3.530   8.544   2.435
51938SOL     OW57710   1.566   1.216   1.114
51938SOL    HW157711   1.528   1.150   1.172
51938SOL    HW257712   1.591   1.288   1.173
51939SOL     OW57713   9.922  11.147   1.277
51939SOL    HW157714   9.907  11.102   1.194
51939SOL    HW257715   9.853  11.115   1.335
51940SOL     OW57716   2.695  13.275   1.223
51940SOL    HW157717   2.749  13.267   1.144
51940SOL    HW257718   2.741  13.223   1.288
51941SOL     OW57719   6.706  14.086   4.705
51941SOL    HW157720   6.733  14.167   4.748
51941SOL    HW257721   6.704  14.021   4.776
51942SOL     OW57722  14.676   4.415  10.717
51942SOL    HW157723  14.755   4.469  10.720
51942SOL    HW257724  14.706   4.329  10.689
51943SOL     OW57725  13.933   6.157   1.416
51943SOL    HW157726  13.885   6.074   1.410
51943SOL    HW257727  13.869   6.223   1.392
51944SOL     OW57728  13.359  13.011   5.792
51944SOL    HW157729  13.374  12.929   5.839
51944SOL    HW257730  13.437  13.022   5.737
51945SOL     OW57731   3.607   8.668   8.932
51945SOL    HW157732   3.520   8.705   8.920
51945SOL    HW257733   3.666   8.743   8.937
51946SOL     OW57734  12.983   4.449   2.485
51946SOL    HW157735  12.942   4.368   2.456
51946SOL    HW257736  13.000   4.498   2.404
51947SOL     OW57737  12.695   6.605   5.216
51947SOL    HW157738  12.754   6.583   5.143
51947SOL    HW257739  12.651   6.523   5.237
51948SOL     OW57740  10.758   5.679   2.294
51948SOL    HW157741  10.819   5.611   2.322
51948SOL    HW257742  10.671   5.642   2.311
51949SOL     OW57743  13.438   4.651   8.502
51949SOL    HW157744  13.509   4.660   8.438
51949SOL    HW257745  13.404   4.563   8.488
51950SOL     OW57746   4.180  10.685  10.021
51950SOL    HW157747   4.173  10.777  10.047
51950SOL    HW257748   4.222  10.642  10.095
51951SOL     OW57749  14.610   3.448   8.697
51951SOL    HW157750  14.524   3.490   8.686
51951SOL    HW257751  14.672   3.512   8.664
51952SOL     OW57752   5.542  11.738   7.095
51952SOL    HW157753   5.574  11.704   7.179
51952SOL    HW257754   5.449  11.714   7.094
51953SOL     OW57755  13.421   3.080   4.996
51953SOL    HW157756  13.416   2.985   4.982
51953SOL    HW257757  13.407   3.090   5.090
51954SOL     OW57758   8.701   2.226   3.895
51954SOL    HW157759   8.710   2.286   3.969
51954SOL    HW257760   8.652   2.275   3.830
51955SOL     OW57761   3.154   6.718   9.373
51955SOL    HW157762   3.215   6.654   9.410
51955SOL    HW257763   3.181   6.801   9.413
51956SOL     OW57764  11.979   0.076  14.013
51956SOL    HW157765  11.932   0.067  14.096
51956SOL    HW257766  11.983   0.170  13.997
51957SOL     OW57767  13.484   7.833   1.210
51957SOL    HW157768  13.406   7.855   1.261
51957SOL    HW257769  13.525   7.761   1.259
51958SOL     OW57770   4.264   2.531   9.275
51958SOL    HW157771   4.196   2.561   9.336
51958SOL    HW257772   4.216   2.484   9.207
51959SOL     OW57773   7.466   5.258  11.669
51959SOL    HW157774   7.415   5.230  11.593
51959SOL    HW257775   7.432   5.205  11.742
51960SOL     OW57776   8.404   1.088   3.785
51960SOL    HW157777   8.448   1.142   3.850
51960SOL    HW257778   8.312   1.112   3.793
51961SOL     OW57779   7.782   3.669  14.827
51961SOL    HW157780   7.863   3.621  14.842
51961SOL    HW257781   7.788   3.697  14.735
51962SOL     OW57782   9.547   3.597  14.423
51962SOL    HW157783   9.578   3.629  14.339
51962SOL    HW257784   9.616   3.621  14.485
51963SOL     OW57785   6.032  10.707   5.380
51963SOL    HW157786   6.088  10.739   5.452
51963SOL    HW257787   5.997  10.624   5.412
51964SOL     OW57788  10.808   5.639   1.783
51964SOL    HW157789  10.759   5.565   1.748
51964SOL    HW257790  10.895   5.603   1.800
51965SOL     OW57791   3.999  10.023   6.826
51965SOL    HW157792   4.082   9.990   6.791
51965SOL    HW257793   4.011  10.018   6.921
51966SOL     OW57794  10.096  11.318   9.516
51966SOL    HW157795  10.053  11.243   9.559
51966SOL    HW257796  10.121  11.375   9.589
51967SOL     OW57797  11.077   4.593   3.520
51967SOL    HW157798  11.044   4.560   3.603
51967SOL    HW257799  11.021   4.668   3.500
51968SOL     OW57800   9.308   2.270   6.184
51968SOL    HW157801   9.294   2.317   6.102
51968SOL    HW257802   9.257   2.190   6.175
51969SOL     OW57803   0.725  11.107  11.199
51969SOL    HW157804   0.697  11.154  11.277
51969SOL    HW257805   0.806  11.064  11.225
51970SOL     OW57806  12.616  11.589   8.577
51970SOL    HW157807  12.568  11.592   8.494
51970SOL    HW257808  12.552  11.615   8.642
51971SOL     OW57809  12.136  14.479   7.867
51971SOL    HW157810  12.229  14.492   7.846
51971SOL    HW257811  12.097  14.566   7.859
51972SOL     OW57812   4.949   7.397   5.128
51972SOL    HW157813   4.929   7.354   5.046
51972SOL    HW257814   5.005   7.336   5.175
51973SOL     OW57815   9.668   6.828   6.742
51973SOL    HW157816   9.632   6.740   6.736
51973SOL    HW257817   9.602   6.884   6.700
51974SOL     OW57818  13.715   1.708   1.711
51974SOL    HW157819  13.700   1.655   1.633
51974SOL    HW257820  13.675   1.792   1.692
51975SOL     OW57821   1.166   6.199  13.847
51975SOL    HW157822   1.225   6.124  13.837
51975SOL    HW257823   1.081   6.160  13.868
51976SOL     OW57824   1.829   7.516  11.205
51976SOL    HW157825   1.854   7.571  11.279
51976SOL    HW257826   1.864   7.561  11.129
51977SOL     OW57827   4.322   7.669  14.015
51977SOL    HW157828   4.385   7.641  13.948
51977SOL    HW257829   4.333   7.764  14.020
51978SOL     OW57830   6.169  12.534  10.511
51978SOL    HW157831   6.202  12.510  10.425
51978SOL    HW257832   6.082  12.494  10.515
51979SOL     OW57833  14.508  11.356   6.561
51979SOL    HW157834  14.598  11.390   6.565
51979SOL    HW257835  14.481  11.351   6.652
51980SOL     OW57836  13.842   1.838  14.077
51980SOL    HW157837  13.907   1.770  14.065
51980SOL    HW257838  13.761   1.791  14.099
51981SOL     OW57839   4.310   7.898   3.381
51981SOL    HW157840   4.366   7.959   3.334
51981SOL    HW257841   4.336   7.908   3.473
51982SOL     OW57842   3.330   6.345   8.150
51982SOL    HW157843   3.337   6.421   8.207
51982SOL    HW257844   3.285   6.378   8.072
51983SOL     OW57845   9.653   7.818   3.881
51983SOL    HW157846   9.567   7.782   3.903
51983SOL    HW257847   9.662   7.895   3.937
51984SOL     OW57848  10.068   6.252  12.988
51984SOL    HW157849  10.001   6.193  12.956
51984SOL    HW257850  10.048   6.336  12.946
51985SOL     OW57851   9.819  12.951  10.566
51985SOL    HW157852   9.813  12.990  10.478
51985SOL    HW257853   9.738  12.977  10.609
51986SOL     OW57854   7.370   1.869   4.831
51986SOL    HW157855   7.440   1.860   4.767
51986SOL    HW257856   7.413   1.902   4.910
51987SOL     OW57857   2.229   4.658   2.700
51987SOL    HW157858   2.259   4.597   2.633
51987SOL    HW257859   2.157   4.707   2.660
51988SOL     OW57860  11.159   7.873   8.505
51988SOL    HW157861  11.140   7.967   8.512
51988SOL    HW257862  11.246   7.869   8.466
51989SOL     OW57863   7.472   6.695  14.316
51989SOL    HW157864   7.477   6.604  14.287
51989SOL    HW257865   7.432   6.690  14.403
51990SOL     OW57866   2.042   3.927  12.114
51990SOL    HW157867   2.036   3.973  12.030
51990SOL    HW257868   2.047   3.997  12.179
51991SOL     OW57869   0.918   1.180   4.069
51991SOL    HW157870   0.829   1.216   4.069
51991SOL    HW257871   0.974   1.256   4.051
51992SOL     OW57872  14.546   8.809   9.313
51992SOL    HW157873  14.634   8.834   9.285
51992SOL    HW257874  14.558   8.726   9.359
51993SOL     OW57875  11.415  13.194   0.984
51993SOL    HW157876  11.395  13.176   0.892
51993SOL    HW257877  11.464  13.117   1.013
51994SOL     OW57878  12.244   9.199  10.547
51994SOL    HW157879  12.172   9.220  10.487
51994SOL    HW257880  12.211   9.127  10.599
51995SOL     OW57881  14.788   3.904  14.043
51995SOL    HW157882  14.859   3.936  13.987
51995SOL    HW257883  14.720   3.970  14.035
51996SOL     OW57884  10.040   7.345  13.833
51996SOL    HW157885  10.132   7.326  13.815
51996SOL    HW257886  10.040   7.433  13.872
51997SOL     OW57887   3.833   3.437   5.747
51997SOL    HW157888   3.920   3.464   5.718
51997SOL    HW257889   3.811   3.362   5.692
51998SOL     OW57890   7.450  14.089   9.135
51998SOL    HW157891   7.383  14.150   9.165
51998SOL    HW257892   7.503  14.139   9.074
51999SOL     OW57893   3.270   5.751  13.174
51999SOL    HW157894   3.306   5.730  13.260
51999SOL    HW257895   3.303   5.680  13.117
52000SOL     OW57896   6.518  12.309  11.459
52000SOL    HW157897   6.490  12.231  11.412
52000SOL    HW257898   6.536  12.373  11.391
52001SOL     OW57899   3.380   5.340  10.258
52001SOL    HW157900   3.317   5.314  10.191
52001SOL    HW257901   3.334   5.326  10.341
52002SOL     OW57902   5.003   6.575   2.832
52002SOL    HW157903   5.049   6.496   2.803
52002SOL    HW257904   4.910   6.550   2.828
52003SOL     OW57905  13.137   2.550  12.645
52003SOL    HW157906  13.132   2.501  12.563
52003SOL    HW257907  13.065   2.614  12.638
52004SOL     OW57908   0.401   9.731   2.113
52004SOL    HW157909   0.475   9.758   2.059
52004SOL    HW257910   0.441   9.681   2.184
52005SOL     OW57911   1.625  11.431  10.545
52005SOL    HW157912   1.605  11.507  10.600
52005SOL    HW257913   1.716  11.410  10.565
52006SOL     OW57914  14.039   0.038   1.512
52006SOL    HW157915  14.113  14.862   1.476
52006SOL    HW257916  13.962  14.862   1.479
52007SOL     OW57917  14.664   2.800   9.887
52007SOL    HW157918  14.684   2.737   9.817
52007SOL    HW257919  14.701   2.882   9.856
52008SOL     OW57920   4.309  12.339   3.751
52008SOL    HW157921   4.396  12.319   3.786
52008SOL    HW257922   4.293  12.430   3.777
52009SOL     OW57923   8.280  14.293   6.568
52009SOL    HW157924   8.303  14.215   6.518
52009SOL    HW257925   8.222  14.261   6.637
52010SOL     OW57926   3.229  11.074   1.418
52010SOL    HW157927   3.200  11.035   1.336
52010SOL    HW257928   3.256  10.999   1.472
52011SOL     OW57929   4.805   4.538   6.009
52011SOL    HW157930   4.806   4.555   5.915
52011SOL    HW257931   4.896   4.548   6.036
52012SOL     OW57932  11.163  12.988   1.102
52012SOL    HW157933  11.123  12.971   1.017
52012SOL    HW257934  11.101  13.045   1.147
52013SOL     OW57935   1.129  13.213   1.752
52013SOL    HW157936   1.165  13.296   1.721
52013SOL    HW257937   1.097  13.169   1.674
52014SOL     OW57938  12.878   7.876   2.532
52014SOL    HW157939  12.822   7.828   2.594
52014SOL    HW257940  12.816   7.923   2.476
52015SOL     OW57941  12.268   3.120  14.371
52015SOL    HW157942  12.193   3.175  14.390
52015SOL    HW257943  12.233   3.031  14.369
52016SOL     OW57944   7.456  11.310   9.538
52016SOL    HW157945   7.503  11.378   9.586
52016SOL    HW257946   7.417  11.356   9.464
52017SOL     OW57947   3.273   0.247  11.042
52017SOL    HW157948   3.190   0.240  11.089
52017SOL    HW257949   3.334   0.192  11.092
52018SOL     OW57950  13.401   4.411   3.296
52018SOL    HW157951  13.342   4.458   3.355
52018SOL    HW257952  13.486   4.455   3.306
52019SOL     OW57953  14.062   8.710   3.318
52019SOL    HW157954  14.065   8.802   3.342
52019SOL    HW257955  14.042   8.665   3.400
52020SOL     OW57956  11.126  11.101   7.195
52020SOL    HW157957  11.204  11.153   7.216
52020SOL    HW257958  11.139  11.074   7.105
52021SOL     OW57959   0.008   8.814   1.382
52021SOL    HW157960   0.052   8.810   1.297
52021SOL    HW257961   0.039   8.895   1.421
52022SOL     OW57962   9.017   7.713   9.138
52022SOL    HW157963   8.941   7.752   9.182
52022SOL    HW257964   9.079   7.786   9.130
52023SOL     OW57965   3.421  11.544  11.816
52023SOL    HW157966   3.382  11.558  11.730
52023SOL    HW257967   3.372  11.471  11.853
52024SOL     OW57968  13.396  14.637   3.201
52024SOL    HW157969  13.429  14.547   3.188
52024SOL    HW257970  13.305  14.626   3.228
52025SOL     OW57971   9.838   6.128   1.320
52025SOL    HW157972   9.878   6.062   1.375
52025SOL    HW257973   9.861   6.103   1.231
52026SOL     OW57974   8.359  11.938   8.640
52026SOL    HW157975   8.303  11.866   8.667
52026SOL    HW257976   8.437  11.931   8.695
52027SOL     OW57977  10.334  13.494   3.084
52027SOL    HW157978  10.400  13.554   3.119
52027SOL    HW257979  10.352  13.491   2.990
52028SOL     OW57980   4.463   7.698  11.990
52028SOL    HW157981   4.523   7.691  11.915
52028SOL    HW257982   4.513   7.747  12.056
52029SOL     OW57983   5.286   4.444  13.097
52029SOL    HW157984   5.222   4.490  13.042
52029SOL    HW257985   5.328   4.514  13.147
52030SOL     OW57986   6.635  14.533   2.454
52030SOL    HW157987   6.615  14.627   2.457
52030SOL    HW257988   6.610  14.507   2.365
52031SOL     OW57989   1.794  10.721  10.014
52031SOL    HW157990   1.799  10.684  10.102
52031SOL    HW257991   1.775  10.646   9.958
52032SOL     OW57992   4.632  11.364   8.061
52032SOL    HW157993   4.544  11.399   8.053
52032SOL    HW257994   4.689  11.436   8.035
52033SOL     OW57995   9.618  11.800   7.640
52033SOL    HW157996   9.672  11.815   7.718
52033SOL    HW257997   9.615  11.705   7.631
52034SOL     OW57998  14.045   9.459   5.509
52034SOL    HW157999  14.041   9.485   5.417
52034SOL    HW258000  13.968   9.499   5.549
52035SOL     OW58001   7.259  14.805   9.008
52035SOL    HW158002   7.218  14.799   9.094
52035SOL    HW258003   7.199  14.859   8.956
52036SOL     OW58004   5.494  10.291  12.854
52036SOL    HW158005   5.484  10.258  12.943
52036SOL    HW258006   5.495  10.386  12.864
52037SOL     OW58007   9.367   0.367   2.028
52037SOL    HW158008   9.355   0.302   1.959
52037SOL    HW258009   9.280   0.404   2.042
52038SOL     OW58010   6.940  11.937   8.569
52038SOL    HW158011   7.025  11.931   8.613
52038SOL    HW258012   6.876  11.931   8.640
52039SOL     OW58013   3.448  14.812  12.244
52039SOL    HW158014   3.360  14.832  12.214
52039SOL    HW258015   3.455  14.717  12.237
52040SOL     OW58016   5.701   6.798   6.552
52040SOL    HW158017   5.652   6.764   6.478
52040SOL    HW258018   5.759   6.865   6.515
52041SOL     OW58019  11.855   2.422  10.933
52041SOL    HW158020  11.800   2.489  10.893
52041SOL    HW258021  11.923   2.405  10.868
52042SOL     OW58022  12.160   9.413   8.307
52042SOL    HW158023  12.072   9.379   8.322
52042SOL    HW258024  12.219   9.344   8.338
52043SOL     OW58025   6.173   3.420   8.430
52043SOL    HW158026   6.162   3.394   8.521
52043SOL    HW258027   6.110   3.491   8.418
52044SOL     OW58028   3.707   2.799   3.961
52044SOL    HW158029   3.717   2.742   4.038
52044SOL    HW258030   3.700   2.887   3.998
52045SOL     OW58031   6.380   7.068   9.948
52045SOL    HW158032   6.403   7.059   9.856
52045SOL    HW258033   6.337   7.153   9.954
52046SOL     OW58034  12.150  11.277  13.036
52046SOL    HW158035  12.204  11.201  13.014
52046SOL    HW258036  12.131  11.267  13.129
52047SOL     OW58037   8.813   9.391   9.605
52047SOL    HW158038   8.794   9.419   9.695
52047SOL    HW258039   8.775   9.304   9.599
52048SOL     OW58040  11.817   0.784   3.156
52048SOL    HW158041  11.878   0.758   3.087
52048SOL    HW258042  11.861   0.856   3.201
52049SOL     OW58043   0.400  11.500   9.826
52049SOL    HW158044   0.370  11.464   9.910
52049SOL    HW258045   0.392  11.427   9.765
52050SOL     OW58046   7.266   0.304   2.644
52050SOL    HW158047   7.183   0.326   2.600
52050SOL    HW258048   7.262   0.210   2.657
52051SOL     OW58049   9.271   3.494   1.299
52051SOL    HW158050   9.284   3.571   1.354
52051SOL    HW258051   9.264   3.530   1.210
52052SOL     OW58052   6.255   4.568   7.840
52052SOL    HW158053   6.245   4.515   7.919
52052SOL    HW258054   6.341   4.543   7.805
52053SOL     OW58055   3.599  13.654  14.174
52053SOL    HW158056   3.668  13.615  14.228
52053SOL    HW258057   3.646  13.706  14.109
52054SOL     OW58058   2.991  11.744  14.330
52054SOL    HW158059   3.054  11.719  14.262
52054SOL    HW258060   2.926  11.673  14.329
52055SOL     OW58061   6.812   6.658   1.853
52055SOL    HW158062   6.873   6.601   1.899
52055SOL    HW258063   6.842   6.657   1.762
52056SOL     OW58064   6.744   4.877  12.206
52056SOL    HW158065   6.774   4.942  12.270
52056SOL    HW258066   6.658   4.909  12.178
52057SOL     OW58067   0.652  12.292   6.129
52057SOL    HW158068   0.638  12.383   6.104
52057SOL    HW258069   0.742  12.290   6.163
52058SOL     OW58070  14.742  13.877   5.643
52058SOL    HW158071  14.703  13.946   5.696
52058SOL    HW258072  14.668  13.826   5.612
52059SOL     OW58073  12.595   7.514   9.234
52059SOL    HW158074  12.619   7.447   9.298
52059SOL    HW258075  12.501   7.502   9.221
52060SOL     OW58076   2.091   5.084   2.613
52060SOL    HW158077   2.143   5.046   2.542
52060SOL    HW258078   2.154   5.135   2.664
52061SOL     OW58079   0.396  12.755  13.751
52061SOL    HW158080   0.341  12.800  13.686
52061SOL    HW258081   0.458  12.822  13.779
52062SOL     OW58082   5.881   4.506   0.045
52062SOL    HW158083   5.861   4.466   0.130
52062SOL    HW258084   5.800   4.496  14.866
52063SOL     OW58085  10.324  11.948   9.655
52063SOL    HW158086  10.308  11.988   9.740
52063SOL    HW258087  10.309  12.019   9.592
52064SOL     OW58088   5.342  13.058   4.926
52064SOL    HW158089   5.423  13.065   4.977
52064SOL    HW258090   5.347  13.131   4.864
52065SOL     OW58091   1.778   5.113   7.249
52065SOL    HW158092   1.802   5.195   7.293
52065SOL    HW258093   1.699   5.083   7.294
52066SOL     OW58094   4.866  13.463   0.116
52066SOL    HW158095   4.914  13.408   0.054
52066SOL    HW258096   4.823  13.529   0.062
52067SOL     OW58097  13.260   7.310   4.007
52067SOL    HW158098  13.317   7.380   4.039
52067SOL    HW258099  13.190   7.356   3.961
52068SOL     OW58100   2.863   2.992   2.459
52068SOL    HW158101   2.812   2.969   2.536
52068SOL    HW258102   2.858   2.915   2.403
52069SOL     OW58103  11.214  14.219   4.081
52069SOL    HW158104  11.233  14.162   4.006
52069SOL    HW258105  11.273  14.187   4.149
52070SOL     OW58106   0.422   4.049   7.859
52070SOL    HW158107   0.333   4.067   7.889
52070SOL    HW258108   0.477   4.064   7.935
52071SOL     OW58109  11.563   0.168   5.966
52071SOL    HW158110  11.599   0.104   6.028
52071SOL    HW258111  11.588   0.253   6.002
52072SOL     OW58112   0.420   2.182   9.280
52072SOL    HW158113   0.410   2.152   9.190
52072SOL    HW258114   0.483   2.121   9.319
52073SOL     OW58115   7.692  11.338   2.448
52073SOL    HW158116   7.705  11.278   2.374
52073SOL    HW258117   7.693  11.282   2.525
52074SOL     OW58118  12.818   1.110   3.490
52074SOL    HW158119  12.754   1.063   3.437
52074SOL    HW258120  12.770   1.184   3.525
52075SOL     OW58121  11.810  10.948  14.758
52075SOL    HW158122  11.754  10.876  14.731
52075SOL    HW258123  11.887  10.906  14.795
52076SOL     OW58124   0.032  10.043   8.774
52076SOL    HW158125   0.052  10.081   8.859
52076SOL    HW258126   0.057  10.110   8.711
52077SOL     OW58127  11.087   4.346  13.050
52077SOL    HW158128  11.098   4.263  13.098
52077SOL    HW258129  11.145   4.407  13.096
52078SOL     OW58130  13.357   9.190   8.035
52078SOL    HW158131  13.374   9.281   8.010
52078SOL    HW258132  13.372   9.187   8.129
52079SOL     OW58133   8.981   0.286   5.142
52079SOL    HW158134   8.940   0.210   5.101
52079SOL    HW258135   9.055   0.250   5.191
52080SOL     OW58136  13.291   5.791   4.177
52080SOL    HW158137  13.324   5.791   4.267
52080SOL    HW258138  13.290   5.884   4.152
52081SOL     OW58139  14.137  13.635  11.611
52081SOL    HW158140  14.103  13.724  11.606
52081SOL    HW258141  14.193  13.635  11.689
52082SOL     OW58142   5.777  14.115   7.932
52082SOL    HW158143   5.791  14.071   7.849
52082SOL    HW258144   5.685  14.144   7.928
52083SOL     OW58145   5.855  13.967  12.179
52083SOL    HW158146   5.860  13.954  12.085
52083SOL    HW258147   5.803  14.046  12.190
52084SOL     OW58148  14.181   1.858   4.551
52084SOL    HW158149  14.105   1.799   4.549
52084SOL    HW258150  14.216   1.849   4.639
52085SOL     OW58151   0.671   2.065  11.090
52085SOL    HW158152   0.736   2.114  11.040
52085SOL    HW258153   0.623   2.132  11.138
52086SOL     OW58154   0.851   9.017   2.155
52086SOL    HW158155   0.906   9.014   2.077
52086SOL    HW258156   0.771   8.970   2.129
52087SOL     OW58157  10.048   0.613  10.550
52087SOL    HW158158  10.055   0.618  10.645
52087SOL    HW258159   9.956   0.632  10.532
52088SOL     OW58160  13.548   7.800   6.238
52088SOL    HW158161  13.496   7.794   6.318
52088SOL    HW258162  13.484   7.823   6.170
52089SOL     OW58163  11.565   0.563  12.466
52089SOL    HW158164  11.534   0.511  12.391
52089SOL    HW258165  11.533   0.516  12.543
52090SOL     OW58166  11.292  10.316  11.547
52090SOL    HW158167  11.244  10.292  11.469
52090SOL    HW258168  11.253  10.399  11.575
52091SOL     OW58169   7.506  13.993   0.110
52091SOL    HW158170   7.429  14.048   0.125
52091SOL    HW258171   7.563  14.011   0.184
52092SOL     OW58172   7.456   0.266   9.719
52092SOL    HW158173   7.379   0.249   9.773
52092SOL    HW258174   7.469   0.185   9.670
52093SOL     OW58175   5.221  10.634   3.711
52093SOL    HW158176   5.294  10.691   3.686
52093SOL    HW258177   5.258  10.575   3.777
52094SOL     OW58178   0.375  11.501   5.566
52094SOL    HW158179   0.297  11.461   5.528
52094SOL    HW258180   0.447  11.441   5.543
52095SOL     OW58181   9.156  14.841   7.103
52095SOL    HW158182   9.083  14.848   7.165
52095SOL    HW258183   9.200   0.055   7.109
52096SOL     OW58184   8.566   7.807   7.886
52096SOL    HW158185   8.554   7.879   7.949
52096SOL    HW258186   8.615   7.846   7.814
52097SOL     OW58187   3.716   6.157   9.558
52097SOL    HW158188   3.670   6.207   9.625
52097SOL    HW258189   3.808   6.161   9.584
52098SOL     OW58190   9.430   8.739   1.704
52098SOL    HW158191   9.404   8.830   1.685
52098SOL    HW258192   9.446   8.700   1.618
52099SOL     OW58193   1.906   7.036  12.921
52099SOL    HW158194   1.834   7.096  12.941
52099SOL    HW258195   1.885   7.002  12.834
52100SOL     OW58196   8.943  13.720  11.180
52100SOL    HW158197   8.942  13.728  11.085
52100SOL    HW258198   8.959  13.627  11.197
52101SOL     OW58199  10.498  12.744   6.783
52101SOL    HW158200  10.445  12.753   6.862
52101SOL    HW258201  10.486  12.652   6.757
52102SOL     OW58202   3.777  12.493   5.908
52102SOL    HW158203   3.723  12.454   5.840
52102SOL    HW258204   3.747  12.583   5.914
52103SOL     OW58205   0.595  12.061   4.979
52103SOL    HW158206   0.669  12.116   4.956
52103SOL    HW258207   0.532  12.121   5.018
52104SOL     OW58208   0.650   9.545  10.123
52104SOL    HW158209   0.595   9.508  10.054
52104SOL    HW258210   0.674   9.469  10.177
52105SOL     OW58211   0.292  14.450   5.437
52105SOL    HW158212   0.319  14.380   5.377
52105SOL    HW258213   0.365  14.460   5.496
52106SOL     OW58214   4.621   2.181   5.331
52106SOL    HW158215   4.536   2.208   5.366
52106SOL    HW258216   4.684   2.206   5.399
52107SOL     OW58217   6.475   8.243  14.136
52107SOL    HW158218   6.512   8.165  14.093
52107SOL    HW258219   6.475   8.221  14.229
52108SOL     OW58220   4.103   1.796   3.098
52108SOL    HW158221   4.128   1.777   3.189
52108SOL    HW258222   4.109   1.892   3.091
52109SOL     OW58223  13.659  14.342   2.675
52109SOL    HW158224  13.647  14.369   2.584
52109SOL    HW258225  13.723  14.404   2.709
52110SOL     OW58226  12.644   6.324  13.403
52110SOL    HW158227  12.630   6.414  13.432
52110SOL    HW258228  12.635   6.328  13.308
52111SOL     OW58229  10.571   4.223   4.845
52111SOL    HW158230  10.507   4.171   4.797
52111SOL    HW258231  10.534   4.230   4.933
52112SOL     OW58232   5.058   5.124   9.537
52112SOL    HW158233   5.051   5.192   9.604
52112SOL    HW258234   5.000   5.054   9.568
52113SOL     OW58235   1.584   6.902   2.960
52113SOL    HW158236   1.658   6.936   2.910
52113SOL    HW258237   1.620   6.883   3.046
52114SOL     OW58238   1.307   5.440   2.201
52114SOL    HW158239   1.332   5.510   2.141
52114SOL    HW258240   1.389   5.393   2.219
52115SOL     OW58241  11.947   4.394   8.832
52115SOL    HW158242  11.978   4.402   8.922
52115SOL    HW258243  11.987   4.467   8.785
52116SOL     OW58244   2.300   6.927  12.158
52116SOL    HW158245   2.286   6.884  12.074
52116SOL    HW258246   2.264   6.866  12.222
52117SOL     OW58247  14.454  13.452   0.309
52117SOL    HW158248  14.437  13.359   0.326
52117SOL    HW258249  14.419  13.467   0.221
52118SOL     OW58250   9.056   7.458  14.524
52118SOL    HW158251   9.024   7.527  14.584
52118SOL    HW258252   9.150   7.455  14.539
52119SOL     OW58253  10.367  11.691   9.680
52119SOL    HW158254  10.363  11.786   9.680
52119SOL    HW258255  10.460  11.670   9.688
52120SOL     OW58256   7.368   2.124   4.654
52120SOL    HW158257   7.284   2.082   4.675
52120SOL    HW258258   7.428   2.051   4.636
52121SOL     OW58259   2.136   6.740   5.521
52121SOL    HW158260   2.203   6.692   5.471
52121SOL    HW258261   2.170   6.829   5.526
52122SOL     OW58262   7.451  13.004  13.123
52122SOL    HW158263   7.519  12.962  13.176
52122SOL    HW258264   7.468  12.975  13.034
52123SOL     OW58265   6.699  14.266   2.939
52123SOL    HW158266   6.726  14.193   2.993
52123SOL    HW258267   6.663  14.226   2.860
52124SOL     OW58268  11.750   1.966   7.181
52124SOL    HW158269  11.840   1.940   7.203
52124SOL    HW258270  11.710   1.886   7.147
52125SOL     OW58271   4.982  13.853   0.438
52125SOL    HW158272   4.970  13.768   0.396
52125SOL    HW258273   5.022  13.908   0.370
52126SOL     OW58274   8.335   6.009   0.557
52126SOL    HW158275   8.290   6.092   0.573
52126SOL    HW258276   8.409   6.033   0.501
52127SOL     OW58277   0.877   9.631  12.814
52127SOL    HW158278   0.799   9.633  12.869
52127SOL    HW258279   0.947   9.666  12.869
52128SOL     OW58280   0.704   1.035  12.669
52128SOL    HW158281   0.772   0.980  12.631
52128SOL    HW258282   0.658   1.073  12.594
52129SOL     OW58283  10.234   4.067   1.378
52129SOL    HW158284  10.197   4.106   1.298
52129SOL    HW258285  10.203   3.976   1.376
52130SOL     OW58286   5.054  12.366   7.289
52130SOL    HW158287   5.149  12.358   7.302
52130SOL    HW258288   5.016  12.334   7.371
52131SOL     OW58289   5.826   4.574  13.857
52131SOL    HW158290   5.839   4.502  13.797
52131SOL    HW258291   5.804   4.533  13.940
52132SOL     OW58292   6.945  10.426  12.575
52132SOL    HW158293   6.990  10.361  12.522
52132SOL    HW258294   6.940  10.387  12.662
52133SOL     OW58295  10.579   6.280   9.416
52133SOL    HW158296  10.647   6.277   9.482
52133SOL    HW258297  10.518   6.348   9.446
52134SOL     OW58298   3.602   7.676   1.852
52134SOL    HW158299   3.635   7.586   1.854
52134SOL    HW258300   3.557   7.686   1.936
52135SOL     OW58301   2.638   1.358   8.275
52135SOL    HW158302   2.542   1.359   8.271
52135SOL    HW258303   2.659   1.390   8.362
52136SOL     OW58304   2.575   0.823   8.823
52136SOL    HW158305   2.590   0.798   8.914
52136SOL    HW258306   2.484   0.799   8.807
52137SOL     OW58307  12.129   3.108   9.803
52137SOL    HW158308  12.211   3.154   9.817
52137SOL    HW258309  12.141   3.024   9.847
52138SOL     OW58310  11.380   6.579  12.802
52138SOL    HW158311  11.334   6.664  12.808
52138SOL    HW258312  11.320   6.517  12.844
52139SOL     OW58313   6.717  10.115   8.884
52139SOL    HW158314   6.645  10.155   8.834
52139SOL    HW258315   6.701  10.021   8.876
52140SOL     OW58316  11.451   5.644  12.914
52140SOL    HW158317  11.435   5.612  12.826
52140SOL    HW258318  11.387   5.598  12.969
52141SOL     OW58319   9.673   8.122  14.090
52141SOL    HW158320   9.648   8.215  14.092
52141SOL    HW258321   9.601   8.079  14.045
52142SOL     OW58322   0.147   6.569   8.419
52142SOL    HW158323   0.087   6.644   8.414
52142SOL    HW258324   0.233   6.608   8.431
52143SOL     OW58325  13.878   0.138   4.100
52143SOL    HW158326  13.835   0.115   4.182
52143SOL    HW258327  13.817   0.198   4.056
52144SOL     OW58328   1.200  13.996   7.669
52144SOL    HW158329   1.224  13.947   7.590
52144SOL    HW258330   1.239  13.946   7.741
52145SOL     OW58331   6.770   0.912   7.410
52145SOL    HW158332   6.782   0.966   7.488
52145SOL    HW258333   6.676   0.896   7.406
52146SOL     OW58334   0.442  11.028   2.839
52146SOL    HW158335   0.535  11.011   2.823
52146SOL    HW258336   0.419  11.095   2.776
52147SOL     OW58337  14.582  11.667   5.443
52147SOL    HW158338  14.629  11.714   5.374
52147SOL    HW258339  14.602  11.575   5.426
52148SOL     OW58340   8.084   8.863   8.612
52148SOL    HW158341   8.081   8.920   8.535
52148SOL    HW258342   7.995   8.829   8.621
52149SOL     OW58343   9.975   9.987   7.774
52149SOL    HW158344  10.006  10.038   7.699
52149SOL    HW258345   9.880   9.986   7.764
52150SOL     OW58346  12.343   1.275   0.195
52150SOL    HW158347  12.317   1.308   0.109
52150SOL    HW258348  12.323   1.182   0.192
52151SOL     OW58349  12.281  11.954   7.066
52151SOL    HW158350  12.206  11.925   7.117
52151SOL    HW258351  12.280  12.049   7.071
52152SOL     OW58352   9.385   8.179   5.484
52152SOL    HW158353   9.329   8.167   5.560
52152SOL    HW258354   9.364   8.105   5.427
52153SOL     OW58355  14.796   5.025   5.188
52153SOL    HW158356  14.754   4.947   5.151
52153SOL    HW258357   0.014   4.998   5.207
52154SOL     OW58358   1.744   9.632   9.917
52154SOL    HW158359   1.771   9.701   9.856
52154SOL    HW258360   1.747   9.552   9.865
52155SOL     OW58361  13.199   1.845  10.102
52155SOL    HW158362  13.277   1.790  10.095
52155SOL    HW258363  13.126   1.786  10.083
52156SOL     OW58364  14.146   2.596  10.259
52156SOL    HW158365  14.118   2.560  10.343
52156SOL    HW258366  14.078   2.659  10.236
52157SOL     OW58367   1.375   7.261   5.839
52157SOL    HW158368   1.463   7.273   5.875
52157SOL    HW258369   1.354   7.344   5.797
52158SOL     OW58370  10.494   4.779  12.166
52158SOL    HW158371  10.518   4.688  12.184
52158SOL    HW258372  10.480   4.782  12.071
52159SOL     OW58373   7.576   6.987   3.730
52159SOL    HW158374   7.542   7.066   3.773
52159SOL    HW258375   7.627   7.020   3.656
52160SOL     OW58376   9.423   4.477   6.860
52160SOL    HW158377   9.504   4.449   6.816
52160SOL    HW258378   9.409   4.412   6.929
52161SOL     OW58379  13.588   6.795   9.033
52161SOL    HW158380  13.616   6.885   9.018
52161SOL    HW258381  13.610   6.750   8.951
52162SOL     OW58382  14.073   6.848   9.627
52162SOL    HW158383  14.018   6.906   9.574
52162SOL    HW258384  14.069   6.764   9.582
52163SOL     OW58385  10.639  10.887   0.291
52163SOL    HW158386  10.605  10.811   0.243
52163SOL    HW258387  10.565  10.947   0.297
52164SOL     OW58388   2.295  14.730  11.184
52164SOL    HW158389   2.205  14.757  11.166
52164SOL    HW258390   2.324  14.788  11.255
52165SOL     OW58391   8.636  13.147   7.033
52165SOL    HW158392   8.683  13.178   7.111
52165SOL    HW258393   8.550  13.119   7.066
52166SOL     OW58394   5.276  10.613  10.254
52166SOL    HW158395   5.303  10.703  10.272
52166SOL    HW258396   5.183  10.620  10.230
52167SOL     OW58397   3.522  10.562  12.926
52167SOL    HW158398   3.463  10.582  12.999
52167SOL    HW258399   3.521  10.466  12.920
52168SOL     OW58400   8.135   0.698   3.994
52168SOL    HW158401   8.055   0.651   4.018
52168SOL    HW258402   8.206   0.642   4.025
52169SOL     OW58403  14.012   1.988  11.426
52169SOL    HW158404  13.978   1.993  11.337
52169SOL    HW258405  13.967   2.058  11.474
52170SOL     OW58406   4.979   1.352   8.283
52170SOL    HW158407   5.017   1.439   8.275
52170SOL    HW258408   4.976   1.335   8.377
52171SOL     OW58409   2.421  13.022  14.004
52171SOL    HW158410   2.458  13.037  13.917
52171SOL    HW258411   2.480  12.957  14.043
52172SOL     OW58412   5.015   7.229   9.823
52172SOL    HW158413   5.101   7.255   9.790
52172SOL    HW258414   4.953   7.288   9.778
52173SOL     OW58415   4.608  13.074  13.753
52173SOL    HW158416   4.548  13.009  13.791
52173SOL    HW258417   4.617  13.047  13.662
52174SOL     OW58418   2.689   1.360  14.455
52174SOL    HW158419   2.673   1.446  14.418
52174SOL    HW258420   2.618   1.305  14.422
52175SOL     OW58421  12.154   6.441   6.922
52175SOL    HW158422  12.068   6.433   6.881
52175SOL    HW258423  12.188   6.525   6.891
52176SOL     OW58424  12.023   1.456   0.240
52176SOL    HW158425  11.984   1.369   0.228
52176SOL    HW258426  12.021   1.470   0.335
52177SOL     OW58427  14.088   7.574   3.027
52177SOL    HW158428  14.172   7.607   3.058
52177SOL    HW258429  14.060   7.513   3.095
52178SOL     OW58430   1.289  10.584  14.535
52178SOL    HW158431   1.373  10.624  14.558
52178SOL    HW258432   1.285  10.504  14.589
52179SOL     OW58433   0.051   1.727   0.959
52179SOL    HW158434   0.012   1.678   1.031
52179SOL    HW258435  14.849   1.750   0.902
52180SOL     OW58436  10.592  13.187   1.208
52180SOL    HW158437  10.555  13.267   1.245
52180SOL    HW258438  10.671  13.171   1.259
52181SOL     OW58439   9.153   1.594   0.536
52181SOL    HW158440   9.218   1.583   0.605
52181SOL    HW258441   9.070   1.602   0.583
52182SOL     OW58442  13.423  12.265   2.649
52182SOL    HW158443  13.359  12.281   2.580
52182SOL    HW258444  13.397  12.181   2.687
52183SOL     OW58445   7.701  11.214   0.348
52183SOL    HW158446   7.773  11.160   0.316
52183SOL    HW258447   7.665  11.255   0.269
52184SOL     OW58448  11.553   0.489   3.574
52184SOL    HW158449  11.492   0.461   3.505
52184SOL    HW258450  11.499   0.539   3.635
52185SOL     OW58451   8.105  12.673   5.954
52185SOL    HW158452   8.132  12.758   5.989
52185SOL    HW258453   8.187  12.625   5.943
52186SOL     OW58454  10.467  14.738  11.926
52186SOL    HW158455  10.387  14.779  11.958
52186SOL    HW258456  10.451  14.644  11.934
52187SOL     OW58457   3.776   6.406  10.550
52187SOL    HW158458   3.788   6.434  10.641
52187SOL    HW258459   3.701   6.347  10.554
52188SOL     OW58460  12.467   8.672   9.480
52188SOL    HW158461  12.476   8.586   9.520
52188SOL    HW258462  12.440   8.654   9.390
52189SOL     OW58463  14.306   2.901   8.657
52189SOL    HW158464  14.259   2.832   8.704
52189SOL    HW258465  14.354   2.853   8.589
52190SOL     OW58466   1.424  12.768   2.833
52190SOL    HW158467   1.485  12.774   2.906
52190SOL    HW258468   1.477  12.782   2.755
52191SOL     OW58469   3.392  14.675  13.832
52191SOL    HW158470   3.327  14.674  13.761
52191SOL    HW258471   3.476  14.677  13.787
52192SOL     OW58472   0.588   5.830   6.949
52192SOL    HW158473   0.656   5.793   7.005
52192SOL    HW258474   0.529   5.757   6.931
52193SOL     OW58475  14.671   4.931   3.612
52193SOL    HW158476  14.581   4.960   3.601
52193SOL    HW258477  14.664   4.841   3.644
52194SOL     OW58478   0.265  13.888  11.467
52194SOL    HW158479   0.333  13.823  11.482
52194SOL    HW258480   0.292  13.934  11.388
52195SOL     OW58481   3.798  12.802   7.304
52195SOL    HW158482   3.804  12.892   7.273
52195SOL    HW258483   3.776  12.751   7.227
52196SOL     OW58484   4.476   9.324   2.399
52196SOL    HW158485   4.447   9.260   2.464
52196SOL    HW258486   4.411   9.317   2.328
52197SOL     OW58487   9.678  13.923   6.532
52197SOL    HW158488   9.644  13.977   6.603
52197SOL    HW258489   9.668  13.833   6.563
52198SOL     OW58490  10.016   7.836   8.263
52198SOL    HW158491  10.005   7.877   8.177
52198SOL    HW258492  10.080   7.766   8.248
52199SOL     OW58493  12.487   8.135   7.837
52199SOL    HW158494  12.425   8.147   7.766
52199SOL    HW258495  12.433   8.131   7.916
52200SOL     OW58496  10.737   0.981   0.637
52200SOL    HW158497  10.691   1.064   0.623
52200SOL    HW258498  10.755   0.980   0.731
52201SOL     OW58499   9.385  12.632   5.795
52201SOL    HW158500   9.434  12.556   5.828
52201SOL    HW258501   9.303  12.631   5.845
52202SOL     OW58502  10.926   0.936   7.975
52202SOL    HW158503  10.893   1.014   8.020
52202SOL    HW258504  10.965   0.883   8.045
52203SOL     OW58505   0.156   5.294   3.688
52203SOL    HW158506   0.088   5.228   3.701
52203SOL    HW258507   0.113   5.377   3.711
52204SOL     OW58508   5.263   8.659   4.225
52204SOL    HW158509   5.278   8.609   4.145
52204SOL    HW258510   5.175   8.694   4.216
52205SOL     OW58511  10.231   4.751  11.928
52205SOL    HW158512  10.316   4.794  11.915
52205SOL    HW258513  10.253   4.664  11.962
52206SOL     OW58514   4.862  10.938   4.751
52206SOL    HW158515   4.780  10.938   4.701
52206SOL    HW258516   4.899  10.851   4.737
52207SOL     OW58517   4.058  14.423  13.706
52207SOL    HW158518   3.964  14.409  13.721
52207SOL    HW258519   4.100  14.382  13.782
52208SOL     OW58520  12.814  10.917   9.392
52208SOL    HW158521  12.815  10.881   9.481
52208SOL    HW258522  12.846  11.007   9.403
52209SOL     OW58523  10.097   7.743   1.577
52209SOL    HW158524  10.086   7.696   1.494
52209SOL    HW258525  10.191   7.740   1.594
52210SOL     OW58526  10.407   7.326   4.111
52210SOL    HW158527  10.434   7.271   4.038
52210SOL    HW258528  10.411   7.269   4.188
52211SOL     OW58529   7.946  14.267  12.842
52211SOL    HW158530   7.899  14.329  12.898
52211SOL    HW258531   7.997  14.214  12.903
52212SOL     OW58532   6.530  10.828   8.782
52212SOL    HW158533   6.615  10.830   8.826
52212SOL    HW258534   6.530  10.745   8.735
52213SOL     OW58535   1.435   5.530  13.048
52213SOL    HW158536   1.393   5.478  13.117
52213SOL    HW258537   1.496   5.587  13.095
52214SOL     OW58538  10.471   9.456   0.733
52214SOL    HW158539  10.539   9.505   0.779
52214SOL    HW258540  10.397   9.516   0.727
52215SOL     OW58541  13.782   2.012   4.035
52215SOL    HW158542  13.847   2.064   4.081
52215SOL    HW258543  13.790   2.040   3.943
52216SOL     OW58544   8.113  13.972   8.263
52216SOL    HW158545   8.030  13.959   8.217
52216SOL    HW258546   8.170  14.016   8.200
52217SOL     OW58547   1.050  14.477   8.810
52217SOL    HW158548   1.120  14.436   8.861
52217SOL    HW258549   1.060  14.571   8.828
52218SOL     OW58550   4.773   3.487  13.430
52218SOL    HW158551   4.706   3.438  13.383
52218SOL    HW258552   4.790   3.437  13.509
52219SOL     OW58553  10.892   5.881   3.525
52219SOL    HW158554  10.879   5.971   3.496
52219SOL    HW258555  10.987   5.868   3.519
52220SOL     OW58556   4.581  14.727   8.662
52220SOL    HW158557   4.650  14.673   8.701
52220SOL    HW258558   4.615  14.816   8.666
52221SOL     OW58559   5.836  12.285  11.283
52221SOL    HW158560   5.800  12.237  11.209
52221SOL    HW258561   5.759  12.325  11.325
52222SOL     OW58562  11.998  13.363   9.945
52222SOL    HW158563  11.910  13.367   9.982
52222SOL    HW258564  12.044  13.298   9.998
52223SOL     OW58565   9.673   3.412  12.500
52223SOL    HW158566   9.676   3.443  12.409
52223SOL    HW258567   9.739   3.344  12.504
52224SOL     OW58568   6.718   8.330  11.743
52224SOL    HW158569   6.782   8.261  11.726
52224SOL    HW258570   6.706   8.372  11.658
52225SOL     OW58571  13.744   8.457   3.445
52225SOL    HW158572  13.670   8.480   3.500
52225SOL    HW258573  13.711   8.462   3.356
52226SOL     OW58574  14.052   0.962   2.892
52226SOL    HW158575  14.114   0.925   2.955
52226SOL    HW258576  14.049   1.055   2.915
52227SOL     OW58577   4.832   0.516   3.012
52227SOL    HW158578   4.926   0.528   3.003
52227SOL    HW258579   4.819   0.491   3.103
52228SOL     OW58580   5.935  11.233   3.823
52228SOL    HW158581   6.013  11.248   3.876
52228SOL    HW258582   5.879  11.309   3.839
52229SOL     OW58583  10.736  13.013  14.026
52229SOL    HW158584  10.798  13.054  14.087
52229SOL    HW258585  10.740  12.920  14.048
52230SOL     OW58586   7.102  10.774  12.839
52230SOL    HW158587   7.189  10.734  12.846
52230SOL    HW258588   7.044  10.700  12.823
52231SOL     OW58589   7.637   8.796  14.732
52231SOL    HW158590   7.703   8.865  14.735
52231SOL    HW258591   7.655   8.749  14.651
52232SOL     OW58592  13.867   0.836   0.968
52232SOL    HW158593  13.793   0.834   0.907
52232SOL    HW258594  13.943   0.852   0.912
52233SOL     OW58595   9.242   0.231   8.955
52233SOL    HW158596   9.329   0.270   8.943
52233SOL    HW258597   9.255   0.138   8.939
52234SOL     OW58598  12.555   6.220   8.140
52234SOL    HW158599  12.648   6.200   8.152
52234SOL    HW258600  12.553   6.292   8.077
52235SOL     OW58601   6.064   9.825   2.772
52235SOL    HW158602   6.072   9.841   2.677
52235SOL    HW258603   5.969   9.830   2.788
52236SOL     OW58604   3.413   1.997  13.765
52236SOL    HW158605   3.480   2.003  13.832
52236SOL    HW258606   3.332   1.979  13.812
52237SOL     OW58607   5.592   9.881   4.643
52237SOL    HW158608   5.654   9.808   4.653
52237SOL    HW258609   5.539   9.878   4.722
52238SOL     OW58610   9.960   4.010   6.747
52238SOL    HW158611   9.888   4.037   6.690
52238SOL    HW258612   9.919   3.988   6.830
52239SOL     OW58613   0.043   1.224   2.309
52239SOL    HW158614  14.865   1.285   2.256
52239SOL    HW258615   0.128   1.218   2.266
52240SOL     OW58616  10.172  13.813  10.421
52240SOL    HW158617  10.198  13.787  10.510
52240SOL    HW258618  10.168  13.908  10.424
52241SOL     OW58619   9.265   7.382  13.663
52241SOL    HW158620   9.224   7.391  13.577
52241SOL    HW258621   9.224   7.304  13.701
52242SOL     OW58622   1.889   0.527   1.211
52242SOL    HW158623   1.903   0.522   1.116
52242SOL    HW258624   1.794   0.533   1.221
52243SOL     OW58625   5.797   6.958  12.709
52243SOL    HW158626   5.807   7.049  12.738
52243SOL    HW258627   5.769   6.966  12.618
52244SOL     OW58628  10.486   4.328  11.124
52244SOL    HW158629  10.555   4.309  11.187
52244SOL    HW258630  10.451   4.242  11.100
52245SOL     OW58631   4.415   3.517   4.750
52245SOL    HW158632   4.439   3.528   4.842
52245SOL    HW258633   4.346   3.581   4.735
52246SOL     OW58634   4.306   2.275   6.377
52246SOL    HW158635   4.323   2.351   6.321
52246SOL    HW258636   4.327   2.199   6.322
52247SOL     OW58637   9.966  10.266   6.191
52247SOL    HW158638  10.015  10.199   6.239
52247SOL    HW258639  10.028  10.338   6.180
52248SOL     OW58640  13.439   7.725   8.330
52248SOL    HW158641  13.406   7.654   8.275
52248SOL    HW258642  13.534   7.721   8.320
52249SOL     OW58643   5.950   1.221  14.081
52249SOL    HW158644   5.934   1.139  14.035
52249SOL    HW258645   5.863   1.257  14.097
52250SOL     OW58646   8.375   1.144   8.281
52250SOL    HW158647   8.377   1.096   8.198
52250SOL    HW258648   8.453   1.113   8.327
52251SOL     OW58649   9.738   6.941   0.411
52251SOL    HW158650   9.742   7.025   0.457
52251SOL    HW258651   9.728   6.877   0.481
52252SOL     OW58652   7.554  11.836   6.973
52252SOL    HW158653   7.529  11.896   7.043
52252SOL    HW258654   7.506  11.867   6.896
52253SOL     OW58655   5.341  11.551   0.772
52253SOL    HW158656   5.316  11.503   0.693
52253SOL    HW258657   5.425  11.590   0.750
52254SOL     OW58658   1.241   8.154  11.380
52254SOL    HW158659   1.326   8.150  11.424
52254SOL    HW258660   1.263   8.170  11.288
52255SOL     OW58661   8.869  14.332  11.709
52255SOL    HW158662   8.848  14.294  11.794
52255SOL    HW258663   8.949  14.382  11.724
52256SOL     OW58664  12.625  13.596   6.238
52256SOL    HW158665  12.665  13.654   6.303
52256SOL    HW258666  12.535  13.629   6.229
52257SOL     OW58667   6.355  11.358   2.012
52257SOL    HW158668   6.339  11.368   2.106
52257SOL    HW258669   6.268  11.346   1.974
52258SOL     OW58670   4.307   7.821   1.307
52258SOL    HW158671   4.372   7.792   1.242
52258SOL    HW258672   4.267   7.740   1.339
52259SOL     OW58673   5.233  14.647   0.952
52259SOL    HW158674   5.171  14.619   1.020
52259SOL    HW258675   5.255  14.566   0.907
52260SOL     OW58676  10.392  11.275  13.643
52260SOL    HW158677  10.357  11.214  13.578
52260SOL    HW258678  10.483  11.289  13.616
52261SOL     OW58679   7.522   3.404   1.744
52261SOL    HW158680   7.577   3.437   1.673
52261SOL    HW258681   7.571   3.329   1.778
52262SOL     OW58682  11.577  13.722  13.121
52262SOL    HW158683  11.634  13.702  13.196
52262SOL    HW258684  11.622  13.793  13.076
52263SOL     OW58685   8.372   6.674   9.921
52263SOL    HW158686   8.339   6.757   9.886
52263SOL    HW258687   8.432   6.641   9.853
52264SOL     OW58688   4.231  13.677   5.178
52264SOL    HW158689   4.145  13.641   5.202
52264SOL    HW258690   4.214  13.732   5.102
52265SOL     OW58691   1.226   1.601   6.087
52265SOL    HW158692   1.279   1.596   6.007
52265SOL    HW258693   1.187   1.688   6.084
52266SOL     OW58694  12.525   3.342   3.616
52266SOL    HW158695  12.587   3.382   3.556
52266SOL    HW258696  12.502   3.411   3.677
52267SOL     OW58697   1.969  14.857   9.728
52267SOL    HW158698   1.985  14.782   9.785
52267SOL    HW258699   2.011  14.834   9.645
52268SOL     OW58700   5.512   6.213  11.280
52268SOL    HW158701   5.498   6.304  11.253
52268SOL    HW258702   5.429   6.185  11.318
52269SOL     OW58703   6.279  10.632   8.897
52269SOL    HW158704   6.334  10.613   8.973
52269SOL    HW258705   6.191  10.604   8.923
52270SOL     OW58706   1.557   0.605   9.428
52270SOL    HW158707   1.506   0.655   9.492
52270SOL    HW258708   1.523   0.633   9.343
52271SOL     OW58709  12.559  14.223   0.159
52271SOL    HW158710  12.598  14.215   0.072
52271SOL    HW258711  12.493  14.292   0.150
52272SOL     OW58712   4.610   7.122   1.417
52272SOL    HW158713   4.672   7.194   1.410
52272SOL    HW258714   4.665   7.044   1.431
52273SOL     OW58715   1.735   8.945   0.414
52273SOL    HW158716   1.759   9.038   0.405
52273SOL    HW258717   1.749   8.926   0.507
52274SOL     OW58718  11.571   4.677  10.944
52274SOL    HW158719  11.528   4.723  10.872
52274SOL    HW258720  11.661   4.708  10.942
52275SOL     OW58721  14.544   8.294  14.656
52275SOL    HW158722  14.470   8.293  14.595
52275SOL    HW258723  14.571   8.202  14.663
52276SOL     OW58724   3.317  10.302   1.329
52276SOL    HW158725   3.380  10.239   1.363
52276SOL    HW258726   3.250  10.250   1.285
52277SOL     OW58727   9.036  10.095   7.454
52277SOL    HW158728   9.080  10.012   7.473
52277SOL    HW258729   9.018  10.092   7.360
52278SOL     OW58730  10.384  14.423  14.190
52278SOL    HW158731  10.429  14.440  14.107
52278SOL    HW258732  10.433  14.351  14.230
52279SOL     OW58733   3.339   8.905   0.309
52279SOL    HW158734   3.258   8.910   0.259
52279SOL    HW258735   3.368   8.815   0.299
52280SOL     OW58736  12.936   9.729   5.986
52280SOL    HW158737  12.943   9.824   5.979
52280SOL    HW258738  13.001   9.704   6.051
52281SOL     OW58739   0.918   1.281   5.299
52281SOL    HW158740   0.960   1.333   5.230
52281SOL    HW258741   0.968   1.300   5.378
52282SOL     OW58742   5.776  14.573  12.897
52282SOL    HW158743   5.788  14.529  12.982
52282SOL    HW258744   5.838  14.530  12.839
52283SOL     OW58745   8.978  13.005   6.965
52283SOL    HW158746   9.004  12.914   6.975
52283SOL    HW258747   8.890  13.001   6.927
52284SOL     OW58748   6.363   5.278   2.102
52284SOL    HW158749   6.392   5.369   2.099
52284SOL    HW258750   6.439   5.230   2.135
52285SOL     OW58751   8.970  11.214   2.196
52285SOL    HW158752   8.902  11.255   2.143
52285SOL    HW258753   9.044  11.275   2.191
52286SOL     OW58754   8.737  14.228   1.957
52286SOL    HW158755   8.647  14.231   1.925
52286SOL    HW258756   8.773  14.148   1.919
52287SOL     OW58757  13.849  13.374   7.785
52287SOL    HW158758  13.870  13.281   7.779
52287SOL    HW258759  13.917  13.411   7.841
52288SOL     OW58760   3.425  11.761   6.075
52288SOL    HW158761   3.344  11.736   6.121
52288SOL    HW258762   3.486  11.785   6.145
52289SOL     OW58763   6.400   9.883  14.101
52289SOL    HW158764   6.427   9.913  14.014
52289SOL    HW258765   6.345   9.806  14.084
52290SOL     OW58766   2.693   9.901  14.632
52290SOL    HW158767   2.786   9.905  14.655
52290SOL    HW258768   2.653   9.971  14.685
52291SOL     OW58769  10.205  12.657   2.524
52291SOL    HW158770  10.118  12.633   2.557
52291SOL    HW258771  10.189  12.736   2.471
52292SOL     OW58772   5.877   8.102   3.456
52292SOL    HW158773   5.853   8.037   3.521
52292SOL    HW258774   5.923   8.170   3.505
52293SOL     OW58775   0.265   0.357  13.501
52293SOL    HW158776   0.266   0.277  13.448
52293SOL    HW258777   0.357   0.384  13.505
52294SOL     OW58778  12.783   4.608   6.123
52294SOL    HW158779  12.869   4.565   6.126
52294SOL    HW258780  12.803   4.700   6.103
52295SOL     OW58781   3.556  10.257   4.173
52295SOL    HW158782   3.554  10.351   4.191
52295SOL    HW258783   3.469  10.226   4.199
52296SOL     OW58784   5.716   5.881  11.944
52296SOL    HW158785   5.700   5.878  12.039
52296SOL    HW258786   5.717   5.974  11.923
52297SOL     OW58787   9.909   6.648  11.400
52297SOL    HW158788   9.962   6.722  11.430
52297SOL    HW258789   9.822   6.665  11.436
52298SOL     OW58790   6.429   2.021  13.461
52298SOL    HW158791   6.348   2.020  13.410
52298SOL    HW258792   6.400   2.044  13.550
52299SOL     OW58793   3.202   2.058  13.342
52299SOL    HW158794   3.245   2.109  13.274
52299SOL    HW258795   3.115   2.096  13.349
52300SOL     OW58796   3.325   4.183   4.841
52300SOL    HW158797   3.252   4.196   4.902
52300SOL    HW258798   3.401   4.170   4.897
52301SOL     OW58799  11.360   0.369  14.461
52301SOL    HW158800  11.273   0.408  14.459
52301SOL    HW258801  11.366   0.319  14.380
52302SOL     OW58802  10.319   1.638   7.966
52302SOL    HW158803  10.249   1.683   8.013
52302SOL    HW258804  10.291   1.640   7.874
52303SOL     OW58805   4.395   7.653   5.678
52303SOL    HW158806   4.301   7.663   5.659
52303SOL    HW258807   4.430   7.610   5.600
52304SOL     OW58808  14.578  10.858   4.257
52304SOL    HW158809  14.668  10.882   4.232
52304SOL    HW258810  14.588  10.813   4.341
52305SOL     OW58811  12.923   4.944   8.993
52305SOL    HW158812  12.841   4.953   8.944
52305SOL    HW258813  12.903   4.981   9.079
52306SOL     OW58814   1.782   0.486   7.346
52306SOL    HW158815   1.797   0.515   7.436
52306SOL    HW258816   1.808   0.393   7.346
52307SOL     OW58817   4.247  13.148   9.354
52307SOL    HW158818   4.285  13.128   9.439
52307SOL    HW258819   4.232  13.063   9.313
52308SOL     OW58820   7.135  11.734   9.969
52308SOL    HW158821   7.172  11.724  10.057
52308SOL    HW258822   7.179  11.811   9.934
52309SOL     OW58823   3.272  10.806  12.836
52309SOL    HW158824   3.224  10.820  12.918
52309SOL    HW258825   3.209  10.761  12.780
52310SOL     OW58826   0.956   2.283   1.125
52310SOL    HW158827   0.863   2.262   1.137
52310SOL    HW258828   0.971   2.360   1.179
52311SOL     OW58829   8.221   4.647   0.420
52311SOL    HW158830   8.213   4.696   0.338
52311SOL    HW258831   8.305   4.674   0.456
52312SOL     OW58832  13.260   4.068   0.813
52312SOL    HW158833  13.174   4.092   0.847
52312SOL    HW258834  13.281   4.136   0.749
52313SOL     OW58835  11.707   5.919   3.516
52313SOL    HW158836  11.623   5.929   3.471
52313SOL    HW258837  11.766   5.980   3.471
52314SOL     OW58838   5.633   9.421   1.831
52314SOL    HW158839   5.599   9.499   1.786
52314SOL    HW258840   5.672   9.368   1.761
52315SOL     OW58841   8.011   5.762   9.406
52315SOL    HW158842   8.042   5.688   9.458
52315SOL    HW258843   8.090   5.813   9.388
52316SOL     OW58844   7.234   1.236   0.377
52316SOL    HW158845   7.249   1.289   0.299
52316SOL    HW258846   7.293   1.273   0.442
52317SOL     OW58847  12.630  10.393  13.487
52317SOL    HW158848  12.548  10.369  13.445
52317SOL    HW258849  12.608  10.470  13.540
52318SOL     OW58850   0.109   4.207   8.229
52318SOL    HW158851   0.120   4.302   8.221
52318SOL    HW258852   0.093   4.193   8.323
52319SOL     OW58853   3.404   9.385  11.921
52319SOL    HW158854   3.340   9.435  11.972
52319SOL    HW258855   3.437   9.448  11.856
52320SOL     OW58856  12.930   2.796   9.609
52320SOL    HW158857  12.986   2.870   9.632
52320SOL    HW258858  12.973   2.755   9.534
52321SOL     OW58859   2.157   4.726  10.070
52321SOL    HW158860   2.245   4.762  10.059
52321SOL    HW258861   2.100   4.802  10.072
52322SOL     OW58862   5.646   3.603   9.041
52322SOL    HW158863   5.628   3.601   9.135
52322SOL    HW258864   5.703   3.679   9.030
52323SOL     OW58865   1.970   9.762   7.068
52323SOL    HW158866   2.044   9.784   7.012
52323SOL    HW258867   2.000   9.685   7.118
52324SOL     OW58868  11.425   2.742   7.652
52324SOL    HW158869  11.450   2.815   7.709
52324SOL    HW258870  11.344   2.709   7.690
52325SOL     OW58871  14.399   4.732   5.604
52325SOL    HW158872  14.414   4.824   5.626
52325SOL    HW258873  14.446   4.684   5.671
52326SOL     OW58874   1.509   1.901   6.766
52326SOL    HW158875   1.581   1.941   6.816
52326SOL    HW258876   1.540   1.899   6.676
52327SOL     OW58877   6.149   4.477  14.810
52327SOL    HW158878   6.076   4.493  14.870
52327SOL    HW258879   6.209   4.420  14.859
52328SOL     OW58880  14.216   2.273   8.231
52328SOL    HW158881  14.302   2.272   8.274
52328SOL    HW258882  14.210   2.188   8.188
52329SOL     OW58883   2.553  13.871   8.085
52329SOL    HW158884   2.633  13.923   8.080
52329SOL    HW258885   2.579  13.790   8.128
52330SOL     OW58886  10.716   9.684  14.184
52330SOL    HW158887  10.807   9.697  14.210
52330SOL    HW258888  10.670   9.661  14.265
52331SOL     OW58889   4.691   5.389   1.228
52331SOL    HW158890   4.597   5.369   1.219
52331SOL    HW258891   4.701   5.420   1.317
52332SOL     OW58892   2.639   3.340   4.941
52332SOL    HW158893   2.714   3.280   4.948
52332SOL    HW258894   2.618   3.341   4.848
52333SOL     OW58895   9.348  12.976  14.573
52333SOL    HW158896   9.366  12.999  14.482
52333SOL    HW258897   9.387  13.046  14.624
52334SOL     OW58898   6.885   7.225   1.216
52334SOL    HW158899   6.937   7.186   1.146
52334SOL    HW258900   6.796   7.197   1.199
52335SOL     OW58901   6.568   1.794  13.376
52335SOL    HW158902   6.656   1.818  13.346
52335SOL    HW258903   6.538   1.871  13.425
52336SOL     OW58904   3.745   0.722  10.033
52336SOL    HW158905   3.718   0.742   9.943
52336SOL    HW258906   3.816   0.784  10.050
52337SOL     OW58907  10.980  10.436   0.041
52337SOL    HW158908  11.045  10.454   0.108
52337SOL    HW258909  11.027  10.386  14.846
52338SOL     OW58910  11.083  12.642  10.170
52338SOL    HW158911  11.021  12.570  10.181
52338SOL    HW258912  11.099  12.674  10.259
52339SOL     OW58913   5.131  11.761   6.756
52339SOL    HW158914   5.059  11.823   6.745
52339SOL    HW258915   5.089  11.676   6.767
52340SOL     OW58916   7.346  10.981   5.442
52340SOL    HW158917   7.290  10.936   5.378
52340SOL    HW258918   7.430  10.991   5.399
52341SOL     OW58919   5.151  10.249  12.122
52341SOL    HW158920   5.184  10.292  12.201
52341SOL    HW258921   5.094  10.314  12.081
52342SOL     OW58922   7.197  10.955   3.072
52342SOL    HW158923   7.157  11.036   3.041
52342SOL    HW258924   7.273  10.983   3.123
52343SOL     OW58925  14.394   9.228  11.387
52343SOL    HW158926  14.369   9.137  11.371
52343SOL    HW258927  14.315   9.270  11.419
52344SOL     OW58928   8.957  14.747   9.845
52344SOL    HW158929   8.988  14.784   9.762
52344SOL    HW258930   9.003  14.797   9.912
52345SOL     OW58931   9.481   5.143  10.661
52345SOL    HW158932   9.565   5.188  10.672
52345SOL    HW258933   9.504   5.059  10.621
52346SOL     OW58934   6.388   7.696   5.642
52346SOL    HW158935   6.369   7.790   5.645
52346SOL    HW258936   6.333   7.659   5.710
52347SOL     OW58937  11.470  13.190   6.450
52347SOL    HW158938  11.528  13.118   6.424
52347SOL    HW258939  11.482  13.198   6.545
52348SOL     OW58940   2.524  14.182   3.459
52348SOL    HW158941   2.511  14.128   3.381
52348SOL    HW258942   2.508  14.122   3.533
52349SOL     OW58943   3.422   1.334  11.761
52349SOL    HW158944   3.366   1.291  11.826
52349SOL    HW258945   3.383   1.312  11.677
52350SOL     OW58946  12.846   9.135   9.949
52350SOL    HW158947  12.775   9.110   9.889
52350SOL    HW258948  12.904   9.190   9.896
52351SOL     OW58949   2.441  12.392  13.977
52351SOL    HW158950   2.368  12.418  14.033
52351SOL    HW258951   2.518  12.397  14.033
52352SOL     OW58952  13.412   7.158  10.773
52352SOL    HW158953  13.323   7.181  10.800
52352SOL    HW258954  13.404   7.071  10.734
52353SOL     OW58955   9.762  13.798  10.526
52353SOL    HW158956   9.669  13.797  10.547
52353SOL    HW258957   9.790  13.888  10.543
52354SOL     OW58958  11.801  10.318   3.984
52354SOL    HW158959  11.816  10.357   3.898
52354SOL    HW258960  11.845  10.377   4.045
52355SOL     OW58961   6.343  13.940   0.229
52355SOL    HW158962   6.302  13.927   0.314
52355SOL    HW258963   6.313  14.027   0.202
52356SOL     OW58964  12.115  11.554  12.257
52356SOL    HW158965  12.083  11.500  12.185
52356SOL    HW258966  12.042  11.558  12.319
52357SOL     OW58967   1.477   5.625   8.223
52357SOL    HW158968   1.517   5.568   8.157
52357SOL    HW258969   1.494   5.714   8.191
52358SOL     OW58970  12.558   4.638   4.225
52358SOL    HW158971  12.521   4.550   4.221
52358SOL    HW258972  12.648   4.628   4.196
52359SOL     OW58973  13.745  13.261   4.551
52359SOL    HW158974  13.754  13.289   4.460
52359SOL    HW258975  13.676  13.194   4.548
52360SOL     OW58976  14.259   9.116   9.013
52360SOL    HW158977  14.352   9.115   8.989
52360SOL    HW258978  14.213   9.091   8.933
52361SOL     OW58979   6.934  10.371  12.857
52361SOL    HW158980   6.875  10.345  12.927
52361SOL    HW258981   7.021  10.365  12.896
52362SOL     OW58982  12.633   8.895   7.809
52362SOL    HW158983  12.715   8.934   7.839
52362SOL    HW258984  12.660   8.817   7.761
52363SOL     OW58985   6.909   8.167   0.670
52363SOL    HW158986   6.911   8.202   0.581
52363SOL    HW258987   6.893   8.244   0.725
52364SOL     OW58988   6.208   6.290   7.290
52364SOL    HW158989   6.301   6.267   7.291
52364SOL    HW258990   6.198   6.343   7.210
52365SOL     OW58991  13.626  13.344   8.699
52365SOL    HW158992  13.648  13.253   8.722
52365SOL    HW258993  13.548  13.338   8.646
52366SOL     OW58994   6.188   5.966  11.215
52366SOL    HW158995   6.122   6.011  11.266
52366SOL    HW258996   6.225   6.033  11.157
52367SOL     OW58997   3.216   3.674  13.982
52367SOL    HW158998   3.296   3.655  14.032
52367SOL    HW258999   3.247   3.689  13.893
52368SOL     OW59000  13.428  13.351  14.666
52368SOL    HW159001  13.402  13.265  14.634
52368SOL    HW259002  13.381  13.361  14.749
52369SOL     OW59003  10.071  13.792   2.277
52369SOL    HW159004  10.101  13.870   2.323
52369SOL    HW259005  10.000  13.822   2.221
52370SOL     OW59006   8.097   6.049   0.312
52370SOL    HW159007   8.126   6.083   0.228
52370SOL    HW259008   8.178   6.028   0.359
52371SOL     OW59009  13.437   4.793  11.964
52371SOL    HW159010  13.493   4.716  11.972
52371SOL    HW259011  13.450   4.841  12.046
52372SOL     OW59012   4.261   2.801   6.847
52372SOL    HW159013   4.200   2.816   6.775
52372SOL    HW259014   4.336   2.757   6.806
52373SOL     OW59015  13.025   9.143   2.510
52373SOL    HW159016  13.105   9.114   2.466
52373SOL    HW259017  12.959   9.079   2.485
52374SOL     OW59018   0.897   1.381  11.997
52374SOL    HW159019   0.924   1.429  11.919
52374SOL    HW259020   0.900   1.289  11.971
52375SOL     OW59021   5.641   4.853   7.192
52375SOL    HW159022   5.676   4.771   7.158
52375SOL    HW259023   5.552   4.857   7.159
52376SOL     OW59024   9.089   4.084  13.100
52376SOL    HW159025   9.080   4.079  13.005
52376SOL    HW259026   9.056   4.000  13.132
52377SOL     OW59027   6.922   9.564   4.892
52377SOL    HW159028   6.837   9.582   4.931
52377SOL    HW259029   6.911   9.589   4.800
52378SOL     OW59030  11.938  10.839   8.728
52378SOL    HW159031  11.899  10.911   8.777
52378SOL    HW259032  11.870  10.772   8.725
52379SOL     OW59033   3.804   5.253  10.670
52379SOL    HW159034   3.747   5.242  10.746
52379SOL    HW259035   3.743   5.263  10.596
52380SOL     OW59036   8.458  14.508   5.425
52380SOL    HW159037   8.496  14.438   5.478
52380SOL    HW259038   8.369  14.517   5.457
52381SOL     OW59039   7.433   8.807   5.426
52381SOL    HW159040   7.465   8.831   5.513
52381SOL    HW259041   7.340   8.787   5.440
52382SOL     OW59042   7.547   3.428   2.492
52382SOL    HW159043   7.603   3.446   2.416
52382SOL    HW259044   7.476   3.375   2.458
52383SOL     OW59045  11.666   1.980   5.828
52383SOL    HW159046  11.713   2.043   5.773
52383SOL    HW259047  11.732   1.918   5.857
52384SOL     OW59048   9.038   9.280   4.568
52384SOL    HW159049   9.083   9.221   4.629
52384SOL    HW259050   8.950   9.244   4.560
52385SOL     OW59051   8.074   0.477  13.391
52385SOL    HW159052   8.145   0.498  13.331
52385SOL    HW259053   8.117   0.453  13.473
52386SOL     OW59054   8.684  12.703   8.192
52386SOL    HW159055   8.752  12.661   8.245
52386SOL    HW259056   8.605  12.652   8.209
52387SOL     OW59057  13.093  11.886   9.122
52387SOL    HW159058  13.188  11.881   9.119
52387SOL    HW259059  13.074  11.969   9.167
52388SOL     OW59060   2.704  11.262   8.919
52388SOL    HW159061   2.765  11.234   8.987
52388SOL    HW259062   2.643  11.189   8.909
52389SOL     OW59063  13.840   5.715   8.679
52389SOL    HW159064  13.850   5.777   8.607
52389SOL    HW259065  13.909   5.650   8.665
52390SOL     OW59066  14.395   6.459  14.614
52390SOL    HW159067  14.320   6.505  14.650
52390SOL    HW259068  14.449   6.528  14.574
52391SOL     OW59069  11.297  11.691   7.762
52391SOL    HW159070  11.388  11.665   7.748
52391SOL    HW259071  11.259  11.694   7.674
52392SOL     OW59072  10.640   4.150   3.628
52392SOL    HW159073  10.571   4.097   3.667
52392SOL    HW259074  10.618   4.240   3.652
52393SOL     OW59075   2.460   6.803   4.276
52393SOL    HW159076   2.413   6.815   4.194
52393SOL    HW259077   2.543   6.849   4.263
52394SOL     OW59078  10.443  11.519   4.352
52394SOL    HW159079  10.532  11.486   4.339
52394SOL    HW259080  10.389  11.440   4.356
52395SOL     OW59081   6.498  13.868  12.316
52395SOL    HW159082   6.516  13.878  12.409
52395SOL    HW259083   6.409  13.835  12.312
52396SOL     OW59084   7.056  10.008  14.599
52396SOL    HW159085   7.099  10.043  14.677
52396SOL    HW259086   7.128   9.982  14.542
52397SOL     OW59087  14.198   4.857   6.682
52397SOL    HW159088  14.293   4.850   6.690
52397SOL    HW259089  14.164   4.780   6.728
52398SOL     OW59090   6.412   6.325   7.510
52398SOL    HW159091   6.503   6.334   7.538
52398SOL    HW259092   6.387   6.236   7.537
52399SOL     OW59093   6.589   9.224  13.675
52399SOL    HW159094   6.578   9.276  13.754
52399SOL    HW259095   6.635   9.145  13.704
52400SOL     OW59096   9.270   2.465   6.005
52400SOL    HW159097   9.176   2.465   6.021
52400SOL    HW259098   9.279   2.494   5.914
52401SOL     OW59099   4.326   3.904  12.702
52401SOL    HW159100   4.369   3.930  12.621
52401SOL    HW259101   4.383   3.835  12.737
52402SOL     OW59102  12.480  12.284  10.815
52402SOL    HW159103  12.416  12.218  10.788
52402SOL    HW259104  12.427  12.356  10.849
52403SOL     OW59105   2.491   6.605   3.055
52403SOL    HW159106   2.490   6.510   3.068
52403SOL    HW259107   2.560   6.637   3.113
52404SOL     OW59108  11.814   0.113   8.707
52404SOL    HW159109  11.745   0.151   8.653
52404SOL    HW259110  11.807   0.159   8.791
52405SOL     OW59111   4.034   3.052   7.738
52405SOL    HW159112   3.941   3.065   7.758
52405SOL    HW259113   4.080   3.110   7.799
52406SOL     OW59114  13.764   8.330  14.455
52406SOL    HW159115  13.704   8.256  14.455
52406SOL    HW259116  13.822   8.314  14.529
52407SOL     OW59117   1.849  11.241   1.927
52407SOL    HW159118   1.922  11.270   1.982
52407SOL    HW259119   1.789  11.315   1.924
52408SOL     OW59120  13.082  13.281   1.005
52408SOL    HW159121  13.159  13.243   1.048
52408SOL    HW259122  13.103  13.276   0.911
52409SOL     OW59123   2.707  13.952   4.397
52409SOL    HW159124   2.685  13.928   4.307
52409SOL    HW259125   2.747  13.873   4.433
52410SOL     OW59126  10.740  12.096  11.227
52410SOL    HW159127  10.669  12.115  11.288
52410SOL    HW259128  10.774  12.011  11.256
52411SOL     OW59129  10.533   6.961  13.401
52411SOL    HW159130  10.499   6.995  13.318
52411SOL    HW259131  10.533   7.036  13.460
52412SOL     OW59132   8.506  10.463  12.401
52412SOL    HW159133   8.420  10.424  12.382
52412SOL    HW259134   8.546  10.475  12.316
52413SOL     OW59135  14.338   6.164  11.574
52413SOL    HW159136  14.397   6.238  11.557
52413SOL    HW259137  14.309   6.136  11.488
52414SOL     OW59138   2.779   9.994  11.809
52414SOL    HW159139   2.836   9.942  11.752
52414SOL    HW259140   2.773   9.942  11.890
52415SOL     OW59141  10.116   3.768   5.908
52415SOL    HW159142  10.208   3.738   5.910
52415SOL    HW259143  10.122   3.863   5.906
52416SOL     OW59144   8.256   6.622   1.323
52416SOL    HW159145   8.320   6.588   1.260
52416SOL    HW259146   8.268   6.717   1.320
52417SOL     OW59147   1.997   2.714   0.664
52417SOL    HW159148   2.026   2.632   0.624
52417SOL    HW259149   2.067   2.736   0.726
52418SOL     OW59150   5.188   1.483   8.899
52418SOL    HW159151   5.171   1.389   8.909
52418SOL    HW259152   5.101   1.523   8.896
52419SOL     OW59153  12.632   8.892   3.681
52419SOL    HW159154  12.693   8.954   3.640
52419SOL    HW259155  12.605   8.934   3.762
52420SOL     OW59156  13.635   9.286   8.365
52420SOL    HW159157  13.548   9.247   8.377
52420SOL    HW259158  13.652   9.278   8.272
52421SOL     OW59159   5.274   3.254   6.593
52421SOL    HW159160   5.290   3.307   6.515
52421SOL    HW259161   5.204   3.300   6.639
52422SOL     OW59162   4.037   8.579  14.622
52422SOL    HW159163   4.040   8.492  14.661
52422SOL    HW259164   4.004   8.636  14.692
52423SOL     OW59165  11.180   9.478  13.800
52423SOL    HW159166  11.225   9.471  13.716
52423SOL    HW259167  11.240   9.438  13.863
52424SOL     OW59168   7.377   0.962   4.602
52424SOL    HW159169   7.414   0.875   4.616
52424SOL    HW259170   7.452   1.021   4.609
52425SOL     OW59171   9.278  10.901   4.425
52425SOL    HW159172   9.295  10.948   4.506
52425SOL    HW259173   9.183  10.903   4.415
52426SOL     OW59174  13.579   8.182  14.635
52426SOL    HW159175  13.523   8.216  14.565
52426SOL    HW259176  13.518   8.157  14.705
52427SOL     OW59177   3.104   4.070  12.730
52427SOL    HW159178   3.125   4.141  12.791
52427SOL    HW259179   3.017   4.092  12.696
52428SOL     OW59180   2.263   4.624   9.211
52428SOL    HW159181   2.314   4.548   9.240
52428SOL    HW259182   2.280   4.691   9.277
52429SOL     OW59183  12.764   7.163  11.184
52429SOL    HW159184  12.749   7.216  11.263
52429SOL    HW259185  12.714   7.083  11.199
52430SOL     OW59186   0.559  10.510   2.678
52430SOL    HW159187   0.491  10.496   2.612
52430SOL    HW259188   0.619  10.437   2.666
52431SOL     OW59189   3.513   1.957   5.178
52431SOL    HW159190   3.451   1.963   5.106
52431SOL    HW259191   3.563   2.038   5.175
52432SOL     OW59192   4.344   6.426   4.389
52432SOL    HW159193   4.272   6.425   4.325
52432SOL    HW259194   4.307   6.469   4.466
52433SOL     OW59195   2.181   5.448   0.800
52433SOL    HW159196   2.132   5.368   0.782
52433SOL    HW259197   2.268   5.432   0.764
52434SOL     OW59198  10.456   5.657   7.339
52434SOL    HW159199  10.476   5.719   7.269
52434SOL    HW259200  10.530   5.596   7.339
52435SOL     OW59201   8.211   5.933  12.191
52435SOL    HW159202   8.122   5.965  12.202
52435SOL    HW259203   8.251   5.942  12.278
52436SOL     OW59204   0.355  10.712   1.108
52436SOL    HW159205   0.327  10.667   1.028
52436SOL    HW259206   0.405  10.788   1.077
52437SOL     OW59207   8.183   9.159   5.325
52437SOL    HW159208   8.167   9.251   5.305
52437SOL    HW259209   8.170   9.152   5.420
52438SOL     OW59210   8.582   8.500  10.336
52438SOL    HW159211   8.594   8.497  10.241
52438SOL    HW259212   8.510   8.562  10.349
52439SOL     OW59213   7.428   7.255   8.042
52439SOL    HW159214   7.466   7.185   7.988
52439SOL    HW259215   7.473   7.247   8.126
52440SOL     OW59216   1.812  14.409  11.788
52440SOL    HW159217   1.888  14.467  11.784
52440SOL    HW259218   1.805  14.373  11.699
52441SOL     OW59219  11.738   2.216  13.477
52441SOL    HW159220  11.660   2.269  13.460
52441SOL    HW259221  11.706   2.142  13.529
52442SOL     OW59222  13.488  11.172  10.041
52442SOL    HW159223  13.446  11.256  10.021
52442SOL    HW259224  13.577  11.181  10.006
52443SOL     OW59225   4.537  11.805   8.183
52443SOL    HW159226   4.583  11.821   8.266
52443SOL    HW259227   4.447  11.832   8.199
52444SOL     OW59228   4.686   0.826   5.014
52444SOL    HW159229   4.656   0.879   5.089
52444SOL    HW259230   4.776   0.855   4.998
52445SOL     OW59231   0.838   6.603   7.416
52445SOL    HW159232   0.837   6.698   7.427
52445SOL    HW259233   0.919   6.585   7.369
52446SOL     OW59234   7.754  12.632   7.873
52446SOL    HW159235   7.728  12.587   7.793
52446SOL    HW259236   7.834  12.679   7.850
52447SOL     OW59237  13.489   0.893   2.722
52447SOL    HW159238  13.485   0.856   2.811
52447SOL    HW259239  13.568   0.947   2.722
52448SOL     OW59240   9.545   0.728  13.214
52448SOL    HW159241   9.538   0.713  13.119
52448SOL    HW259242   9.469   0.783  13.234
52449SOL     OW59243  12.441   0.686  14.317
52449SOL    HW159244  12.409   0.741  14.389
52449SOL    HW259245  12.362   0.651  14.276
52450SOL     OW59246   6.280   3.753   3.386
52450SOL    HW159247   6.195   3.786   3.357
52450SOL    HW259248   6.274   3.753   3.481
52451SOL     OW59249  13.717  10.948   5.746
52451SOL    HW159250  13.801  10.986   5.723
52451SOL    HW259251  13.703  10.974   5.837
52452SOL     OW59252   4.223   3.449   8.054
52452SOL    HW159253   4.134   3.414   8.051
52452SOL    HW259254   4.215   3.528   8.108
52453SOL     OW59255   1.238   8.092   5.618
52453SOL    HW159256   1.311   8.117   5.674
52453SOL    HW259257   1.194   8.022   5.666
52454SOL     OW59258   9.531   5.403   2.690
52454SOL    HW159259   9.533   5.397   2.594
52454SOL    HW259260   9.614   5.363   2.718
52455SOL     OW59261   2.622  14.580   3.079
52455SOL    HW159262   2.683  14.653   3.092
52455SOL    HW259263   2.666  14.505   3.119
52456SOL     OW59264  13.240   6.233   8.438
52456SOL    HW159265  13.315   6.291   8.450
52456SOL    HW259266  13.166   6.280   8.477
52457SOL     OW59267  10.589  13.838   1.170
52457SOL    HW159268  10.565  13.754   1.131
52457SOL    HW259269  10.505  13.881   1.187
52458SOL     OW59270   3.085  10.156   6.615
52458SOL    HW159271   3.173  10.179   6.647
52458SOL    HW259272   3.050  10.098   6.683
52459SOL     OW59273  12.298  12.865   6.236
52459SOL    HW159274  12.238  12.933   6.267
52459SOL    HW259275  12.385  12.896   6.264
52460SOL     OW59276   5.186   3.083   3.213
52460SOL    HW159277   5.217   3.143   3.144
52460SOL    HW259278   5.168   3.001   3.167
52461SOL     OW59279   6.113  13.606   8.130
52461SOL    HW159280   6.101  13.567   8.216
52461SOL    HW259281   6.171  13.681   8.145
52462SOL     OW59282  13.488   1.432   8.853
52462SOL    HW159283  13.573   1.401   8.822
52462SOL    HW259284  13.508   1.489   8.927
52463SOL     OW59285  11.801   8.656   9.528
52463SOL    HW159286  11.796   8.700   9.443
52463SOL    HW259287  11.883   8.608   9.525
52464SOL     OW59288  10.899   5.441   8.461
52464SOL    HW159289  10.898   5.377   8.390
52464SOL    HW259290  10.973   5.498   8.441
52465SOL     OW59291   5.558   2.944   6.858
52465SOL    HW159292   5.500   2.985   6.922
52465SOL    HW259293   5.540   2.990   6.776
52466SOL     OW59294   0.182   9.054  13.015
52466SOL    HW159295   0.264   9.093  13.045
52466SOL    HW259296   0.114   9.094  13.068
52467SOL     OW59297   6.747   3.499   9.336
52467SOL    HW159298   6.823   3.466   9.384
52467SOL    HW259299   6.680   3.512   9.403
52468SOL     OW59300   4.188  11.006   4.471
52468SOL    HW159301   4.125  11.078   4.482
52468SOL    HW259302   4.147  10.932   4.516
52469SOL     OW59303   7.632   1.632   0.312
52469SOL    HW159304   7.667   1.717   0.284
52469SOL    HW259305   7.707   1.588   0.353
52470SOL     OW59306   4.839  12.857  10.128
52470SOL    HW159307   4.911  12.828  10.072
52470SOL    HW259308   4.844  12.800  10.205
52471SOL     OW59309  11.900   7.790  11.990
52471SOL    HW159310  11.818   7.837  11.973
52471SOL    HW259311  11.967   7.858  11.994
52472SOL     OW59312   6.697   0.539   5.531
52472SOL    HW159313   6.789   0.565   5.520
52472SOL    HW259314   6.683   0.473   5.464
52473SOL     OW59315   4.151   5.462  10.058
52473SOL    HW159316   4.099   5.540  10.079
52473SOL    HW259317   4.135   5.403  10.131
52474SOL     OW59318   9.361   5.825  13.816
52474SOL    HW159319   9.305   5.757  13.778
52474SOL    HW259320   9.438   5.827  13.760
52475SOL     OW59321   8.973   4.013   7.226
52475SOL    HW159322   9.042   4.069   7.191
52475SOL    HW259323   8.914   3.997   7.152
52476SOL     OW59324   5.607   9.652   0.159
52476SOL    HW159325   5.553   9.638   0.081
52476SOL    HW259326   5.652   9.569   0.172
52477SOL     OW59327   5.757  13.634  11.957
52477SOL    HW159328   5.780  13.542  11.962
52477SOL    HW259329   5.662  13.636  11.972
52478SOL     OW59330   5.433   5.824   1.962
52478SOL    HW159331   5.443   5.916   1.935
52478SOL    HW259332   5.421   5.776   1.880
52479SOL     OW59333   1.344   9.617   0.662
52479SOL    HW159334   1.369   9.707   0.684
52479SOL    HW259335   1.380   9.603   0.574
52480SOL     OW59336  14.253   1.450   7.084
52480SOL    HW159337  14.324   1.387   7.095
52480SOL    HW259338  14.174   1.404   7.112
52481SOL     OW59339   9.149   1.524   9.404
52481SOL    HW159340   9.090   1.585   9.447
52481SOL    HW259341   9.097   1.445   9.389
52482SOL     OW59342  14.220   8.483   0.001
52482SOL    HW159343  14.149   8.481  14.809
52482SOL    HW259344  14.220   8.573   0.034
52483SOL     OW59345   3.954  13.045  12.936
52483SOL    HW159346   4.021  13.048  12.867
52483SOL    HW259347   3.972  12.963  12.983
52484SOL     OW59348  12.222  14.228   2.191
52484SOL    HW159349  12.194  14.196   2.105
52484SOL    HW259350  12.143  14.266   2.229
52485SOL     OW59351   0.396   9.705   9.326
52485SOL    HW159352   0.423   9.698   9.234
52485SOL    HW259353   0.447   9.637   9.370
52486SOL     OW59354   2.923  10.348   6.568
52486SOL    HW159355   2.980  10.272   6.579
52486SOL    HW259356   2.963  10.416   6.623
52487SOL     OW59357  11.722   5.658   5.945
52487SOL    HW159358  11.692   5.598   5.876
52487SOL    HW259359  11.816   5.667   5.930
52488SOL     OW59360  14.504  11.677   1.675
52488SOL    HW159361  14.546  11.591   1.676
52488SOL    HW259362  14.517  11.711   1.763
52489SOL     OW59363   7.318  13.738  12.700
52489SOL    HW159364   7.282  13.790  12.772
52489SOL    HW259365   7.265  13.659  12.699
52490SOL     OW59366   5.359   6.463  11.518
52490SOL    HW159367   5.401   6.437  11.599
52490SOL    HW259368   5.335   6.555  11.531
52491SOL     OW59369  12.760   3.844   9.329
52491SOL    HW159370  12.756   3.836   9.234
52491SOL    HW259371  12.852   3.836   9.350
52492SOL     OW59372   1.186  12.165  12.997
52492SOL    HW159373   1.116  12.162  13.063
52492SOL    HW259374   1.267  12.170  13.048
52493SOL     OW59375  10.069   9.485   7.182
52493SOL    HW159376   9.986   9.486   7.229
52493SOL    HW259377  10.122   9.551   7.226
52494SOL     OW59378   6.819   8.584   5.344
52494SOL    HW159379   6.752   8.524   5.312
52494SOL    HW259380   6.899   8.532   5.348
52495SOL     OW59381  11.882  11.272   2.564
52495SOL    HW159382  11.807  11.236   2.515
52495SOL    HW259383  11.959  11.245   2.513
52496SOL     OW59384   6.484  10.787   4.879
52496SOL    HW159385   6.573  10.816   4.902
52496SOL    HW259386   6.446  10.761   4.963
52497SOL     OW59387   0.686   2.110   0.498
52497SOL    HW159388   0.738   2.188   0.516
52497SOL    HW259389   0.729   2.069   0.422
52498SOL     OW59390   9.885   4.969   9.660
52498SOL    HW159391   9.912   4.914   9.734
52498SOL    HW259392   9.903   4.915   9.583
52499SOL     OW59393   1.715  11.875  13.467
52499SOL    HW159394   1.770  11.796  13.474
52499SOL    HW259395   1.647  11.863  13.533
52500SOL     OW59396   0.374  12.004  11.593
52500SOL    HW159397   0.421  11.969  11.668
52500SOL    HW259398   0.336  12.086  11.625
52501SOL     OW59399   9.107   3.374   6.098
52501SOL    HW159400   9.106   3.469   6.088
52501SOL    HW259401   9.015   3.350   6.109
52502SOL     OW59402   9.714   3.576  11.662
52502SOL    HW159403   9.787   3.592  11.721
52502SOL    HW259404   9.683   3.488  11.686
52503SOL     OW59405   7.295   7.752   6.301
52503SOL    HW159406   7.272   7.659   6.296
52503SOL    HW259407   7.249   7.793   6.228
52504SOL     OW59408  13.486   9.177  11.129
52504SOL    HW159409  13.577   9.203  11.116
52504SOL    HW259410  13.453   9.162  11.040
52505SOL     OW59411   8.876   4.852  12.157
52505SOL    HW159412   8.806   4.832  12.219
52505SOL    HW259413   8.919   4.767  12.142
52506SOL     OW59414   9.760   9.361   8.200
52506SOL    HW159415   9.846   9.339   8.164
52506SOL    HW259416   9.775   9.373   8.293
52507SOL     OW59417   5.524  13.898  13.961
52507SOL    HW159418   5.438  13.889  14.002
52507SOL    HW259419   5.513  13.859  13.874
52508SOL     OW59420  13.328   9.554  12.575
52508SOL    HW159421  13.263   9.485  12.584
52508SOL    HW259422  13.307   9.596  12.491
52509SOL     OW59423  14.179  12.196   6.309
52509SOL    HW159424  14.111  12.155   6.363
52509SOL    HW259425  14.252  12.134   6.312
52510SOL     OW59426   1.319   5.438   5.341
52510SOL    HW159427   1.271   5.516   5.369
52510SOL    HW259428   1.402   5.441   5.389
52511SOL     OW59429   5.411  12.550   0.712
52511SOL    HW159430   5.316  12.536   0.716
52511SOL    HW259431   5.422  12.618   0.646
52512SOL     OW59432  12.687   4.552  10.236
52512SOL    HW159433  12.753   4.538  10.168
52512SOL    HW259434  12.696   4.476  10.293
52513SOL     OW59435   5.551   2.958   0.568
52513SOL    HW159436   5.606   2.976   0.492
52513SOL    HW259437   5.573   3.027   0.630
52514SOL     OW59438  14.612  13.331  14.084
52514SOL    HW159439  14.687  13.364  14.033
52514SOL    HW259440  14.592  13.402  14.145
52515SOL     OW59441  11.754   2.768   4.702
52515SOL    HW159442  11.664   2.779   4.733
52515SOL    HW259443  11.751   2.790   4.609
52516SOL     OW59444   9.057   9.546   2.690
52516SOL    HW159445   9.006   9.611   2.738
52516SOL    HW259446   8.993   9.501   2.635
52517SOL     OW59447   2.651   6.636  14.131
52517SOL    HW159448   2.590   6.710  14.129
52517SOL    HW259449   2.731   6.671  14.093
52518SOL     OW59450   8.501  11.677  11.464
52518SOL    HW159451   8.473  11.716  11.546
52518SOL    HW259452   8.591  11.707  11.452
52519SOL     OW59453   5.536  10.376   4.020
52519SOL    HW159454   5.559  10.440   4.088
52519SOL    HW259455   5.455  10.410   3.982
52520SOL     OW59456   5.324   0.183   2.501
52520SOL    HW159457   5.244   0.179   2.552
52520SOL    HW259458   5.394   0.163   2.564
52521SOL     OW59459  10.356  11.700   0.995
52521SOL    HW159460  10.375  11.700   0.902
52521SOL    HW259461  10.264  11.726   1.001
52522SOL     OW59462   3.374   3.832  14.608
52522SOL    HW159463   3.299   3.844  14.549
52522SOL    HW259464   3.429   3.767  14.564
52523SOL     OW59465   1.123   0.958   9.383
52523SOL    HW159466   1.113   0.919   9.297
52523SOL    HW259467   1.069   0.904   9.441
52524SOL     OW59468   1.137  10.793  11.153
52524SOL    HW159469   1.095  10.737  11.218
52524SOL    HW259470   1.220  10.818  11.192
52525SOL     OW59471  13.775  10.466   6.204
52525SOL    HW159472  13.741  10.441   6.118
52525SOL    HW259473  13.820  10.387   6.236
52526SOL     OW59474   2.998   4.082  11.568
52526SOL    HW159475   2.958   4.169  11.558
52526SOL    HW259476   3.092   4.098  11.563
52527SOL     OW59477  10.325  10.951  14.575
52527SOL    HW159478  10.280  10.905  14.504
52527SOL    HW259479  10.288  11.039  14.574
52528SOL     OW59480  14.829   8.184   1.036
52528SOL    HW159481  14.748   8.134   1.039
52528SOL    HW259482  14.806   8.265   0.991
52529SOL     OW59483   3.565   1.331   7.832
52529SOL    HW159484   3.621   1.327   7.909
52529SOL    HW259485   3.476   1.330   7.867
52530SOL     OW59486   4.351   1.642   6.184
52530SOL    HW159487   4.359   1.688   6.268
52530SOL    HW259488   4.387   1.555   6.200
52531SOL     OW59489   4.943   6.101  13.516
52531SOL    HW159490   4.873   6.061  13.567
52531SOL    HW259491   4.964   6.036  13.449
52532SOL     OW59492  11.438  10.082   1.619
52532SOL    HW159493  11.487  10.130   1.686
52532SOL    HW259494  11.356  10.130   1.610
52533SOL     OW59495  14.602   9.811   9.644
52533SOL    HW159496  14.651   9.881   9.687
52533SOL    HW259497  14.576   9.753   9.716
52534SOL     OW59498   2.362   0.240   6.713
52534SOL    HW159499   2.323   0.198   6.790
52534SOL    HW259500   2.357   0.173   6.645
52535SOL     OW59501   7.211   1.188   3.199
52535SOL    HW159502   7.225   1.101   3.162
52535SOL    HW259503   7.127   1.182   3.245
52536SOL     OW59504  12.563   2.847  12.333
52536SOL    HW159505  12.598   2.885  12.414
52536SOL    HW259506  12.490   2.905  12.309
52537SOL     OW59507  10.835  11.643   1.956
52537SOL    HW159508  10.821  11.715   1.894
52537SOL    HW259509  10.916  11.666   2.002
52538SOL     OW59510   8.893   9.717  10.772
52538SOL    HW159511   8.950   9.782  10.813
52538SOL    HW259512   8.805   9.744  10.798
52539SOL     OW59513   0.460   3.547   7.114
52539SOL    HW159514   0.365   3.562   7.120
52539SOL    HW259515   0.469   3.453   7.103
52540SOL     OW59516  12.885   1.831   8.726
52540SOL    HW159517  12.979   1.845   8.715
52540SOL    HW259518  12.845   1.916   8.707
52541SOL     OW59519   5.088  12.809  14.250
52541SOL    HW159520   5.084  12.716  14.227
52541SOL    HW259521   5.150  12.813  14.323
52542SOL     OW59522   6.348   3.790   1.820
52542SOL    HW159523   6.391   3.864   1.862
52542SOL    HW259524   6.259   3.790   1.856
52543SOL     OW59525  14.625   7.308  13.288
52543SOL    HW159526  14.697   7.319  13.227
52543SOL    HW259527  14.636   7.220  13.324
52544SOL     OW59528   8.020  14.485   6.762
52544SOL    HW159529   7.968  14.420   6.716
52544SOL    HW259530   7.972  14.502   6.843
52545SOL     OW59531  10.021   8.670   4.242
52545SOL    HW159532   9.950   8.656   4.305
52545SOL    HW259533  10.039   8.583   4.207
52546SOL     OW59534   1.211   9.255   2.140
52546SOL    HW159535   1.267   9.185   2.175
52546SOL    HW259536   1.122   9.223   2.152
52547SOL     OW59537   2.242   3.272   8.688
52547SOL    HW159538   2.247   3.185   8.649
52547SOL    HW259539   2.325   3.313   8.664
52548SOL     OW59540   2.626   5.313  10.747
52548SOL    HW159541   2.681   5.243  10.783
52548SOL    HW259542   2.683   5.359  10.685
52549SOL     OW59543   4.616  14.753   4.271
52549SOL    HW159544   4.603  14.737   4.178
52549SOL    HW259545   4.689  14.695   4.295
52550SOL     OW59546   0.809   9.439   9.481
52550SOL    HW159547   0.830   9.481   9.397
52550SOL    HW259548   0.865   9.482   9.545
52551SOL     OW59549   3.042   2.695   5.195
52551SOL    HW159550   2.974   2.758   5.218
52551SOL    HW259551   3.122   2.748   5.186
52552SOL     OW59552   0.795   5.516  11.355
52552SOL    HW159553   0.714   5.494  11.309
52552SOL    HW259554   0.770   5.587  11.415
52553SOL     OW59555   6.551   5.023   6.900
52553SOL    HW159556   6.499   4.954   6.940
52553SOL    HW259557   6.561   5.089   6.969
52554SOL     OW59558   1.542   3.163   4.028
52554SOL    HW159559   1.574   3.085   3.983
52554SOL    HW259560   1.468   3.132   4.080
52555SOL     OW59561  12.081   4.785  11.715
52555SOL    HW159562  12.116   4.799  11.803
52555SOL    HW259563  12.056   4.872  11.685
52556SOL     OW59564   9.811   2.025   7.187
52556SOL    HW159565   9.734   2.041   7.132
52556SOL    HW259566   9.865   2.103   7.175
52557SOL     OW59567   7.651   8.073  11.140
52557SOL    HW159568   7.591   8.103  11.072
52557SOL    HW259569   7.692   8.152  11.173
52558SOL     OW59570  10.735  11.529   5.964
52558SOL    HW159571  10.781  11.552   5.883
52558SOL    HW259572  10.785  11.571   6.033
52559SOL     OW59573  14.642   6.681  12.292
52559SOL    HW159574  14.562   6.675  12.240
52559SOL    HW259575  14.630   6.760  12.344
52560SOL     OW59576   2.206  11.845   2.324
52560SOL    HW159577   2.135  11.891   2.279
52560SOL    HW259578   2.179  11.842   2.416
52561SOL     OW59579  11.860  12.616   3.456
52561SOL    HW159580  11.903  12.700   3.436
52561SOL    HW259581  11.820  12.589   3.373
52562SOL     OW59582   4.514   2.240   4.243
52562SOL    HW159583   4.503   2.153   4.280
52562SOL    HW259584   4.566   2.287   4.307
52563SOL     OW59585  12.036  10.338  14.608
52563SOL    HW159586  11.982  10.309  14.534
52563SOL    HW259587  12.008  10.428  14.625
52564SOL     OW59588   4.613   2.969   1.138
52564SOL    HW159589   4.558   2.906   1.091
52564SOL    HW259590   4.703   2.945   1.114
52565SOL     OW59591   2.440   1.759  11.948
52565SOL    HW159592   2.394   1.698  12.006
52565SOL    HW259593   2.526   1.770  11.990
52566SOL     OW59594   3.646  10.071   7.953
52566SOL    HW159595   3.614   9.994   7.905
52566SOL    HW259596   3.626  10.052   8.044
52567SOL     OW59597   6.579  13.814  13.649
52567SOL    HW159598   6.605  13.845  13.735
52567SOL    HW259599   6.586  13.891  13.592
52568SOL     OW59600   6.794   2.857  10.739
52568SOL    HW159601   6.859   2.817  10.797
52568SOL    HW259602   6.808   2.814  10.654
52569SOL     OW59603  14.737   5.100  11.245
52569SOL    HW159604  14.779   5.067  11.324
52569SOL    HW259605  14.788   5.064  11.173
52570SOL     OW59606  13.827   0.235   3.127
52570SOL    HW159607  13.767   0.162   3.144
52570SOL    HW259608  13.806   0.263   3.038
52571SOL     OW59609   0.039   0.738  12.814
52571SOL    HW159610   0.048   0.769  12.724
52571SOL    HW259611  14.819   0.712  12.821
52572SOL     OW59612   1.077   9.695   7.524
52572SOL    HW159613   1.038   9.782   7.536
52572SOL    HW259614   1.163   9.701   7.566
52573SOL     OW59615   5.546   6.932   2.558
52573SOL    HW159616   5.484   6.961   2.491
52573SOL    HW259617   5.491   6.917   2.635
52574SOL     OW59618   7.947   0.419   4.164
52574SOL    HW159619   7.917   0.498   4.119
52574SOL    HW259620   8.034   0.441   4.197
52575SOL     OW59621   2.819   6.680   3.856
52575SOL    HW159622   2.834   6.643   3.943
52575SOL    HW259623   2.737   6.639   3.827
52576SOL     OW59624   8.119  12.159   8.839
52576SOL    HW159625   8.193  12.159   8.778
52576SOL    HW259626   8.042  12.165   8.782
52577SOL     OW59627   8.893   7.016  11.619
52577SOL    HW159628   8.844   6.967  11.686
52577SOL    HW259629   8.837   7.012  11.542
52578SOL     OW59630   6.766   8.543   3.750
52578SOL    HW159631   6.794   8.601   3.679
52578SOL    HW259632   6.737   8.463   3.705
52579SOL     OW59633  10.360   3.025   4.989
52579SOL    HW159634  10.325   2.958   4.930
52579SOL    HW259635  10.378   3.100   4.933
52580SOL     OW59636  13.747   3.469   8.108
52580SOL    HW159637  13.692   3.392   8.094
52580SOL    HW259638  13.772   3.464   8.200
52581SOL     OW59639  10.819  13.645   6.037
52581SOL    HW159640  10.825  13.734   6.072
52581SOL    HW259641  10.784  13.657   5.948
52582SOL     OW59642   6.545   7.249   5.546
52582SOL    HW159643   6.541   7.344   5.542
52582SOL    HW259644   6.456   7.221   5.568
52583SOL     OW59645  12.757   3.320  14.829
52583SOL    HW159646  12.735   3.232  14.860
52583SOL    HW259647  12.832   3.346   0.010
52584SOL     OW59648   4.738   1.779  12.264
52584SOL    HW159649   4.702   1.791  12.352
52584SOL    HW259650   4.786   1.859  12.246
52585SOL     OW59651   9.158   7.348   9.673
52585SOL    HW159652   9.197   7.261   9.678
52585SOL    HW259653   9.092   7.341   9.604
52586SOL     OW59654  14.195  13.456   6.368
52586SOL    HW159655  14.183  13.513   6.292
52586SOL    HW259656  14.268  13.399   6.343
52587SOL     OW59657  12.326  10.987   4.128
52587SOL    HW159658  12.244  11.037   4.122
52587SOL    HW259659  12.381  11.022   4.058
52588SOL     OW59660  12.019  13.012   2.178
52588SOL    HW159661  11.973  13.014   2.262
52588SOL    HW259662  12.080  13.086   2.183
52589SOL     OW59663   3.924   9.408  10.438
52589SOL    HW159664   3.970   9.470  10.494
52589SOL    HW259665   3.949   9.322  10.472
52590SOL     OW59666  11.905   6.696   2.442
52590SOL    HW159667  11.821   6.735   2.466
52590SOL    HW259668  11.891   6.601   2.448
52591SOL     OW59669   9.462   9.196   6.198
52591SOL    HW159670   9.412   9.115   6.211
52591SOL    HW259671   9.428   9.256   6.264
52592SOL     OW59672  10.317  13.471  14.652
52592SOL    HW159673  10.323  13.398  14.591
52592SOL    HW259674  10.224  13.491  14.657
52593SOL     OW59675   2.806   8.014   1.502
52593SOL    HW159676   2.843   7.927   1.514
52593SOL    HW259677   2.716   8.005   1.534
52594SOL     OW59678  13.131   5.452   8.185
52594SOL    HW159679  13.061   5.448   8.120
52594SOL    HW259680  13.128   5.367   8.229
52595SOL     OW59681  14.302  14.749   8.433
52595SOL    HW159682  14.254  14.686   8.486
52595SOL    HW259683  14.234  14.797   8.386
52596SOL     OW59684  13.522   0.191  11.098
52596SOL    HW159685  13.499   0.204  11.190
52596SOL    HW259686  13.442   0.211  11.050
52597SOL     OW59687  11.738   9.324   1.954
52597SOL    HW159688  11.695   9.278   2.026
52597SOL    HW259689  11.824   9.284   1.948
52598SOL     OW59690   8.688  12.241   4.474
52598SOL    HW159691   8.744  12.253   4.550
52598SOL    HW259692   8.623  12.177   4.501
52599SOL     OW59693   3.840   5.629   3.622
52599SOL    HW159694   3.818   5.720   3.642
52599SOL    HW259695   3.765   5.596   3.574
52600SOL     OW59696  13.326   6.209  12.432
52600SOL    HW159697  13.364   6.243  12.513
52600SOL    HW259698  13.394   6.152  12.396
52601SOL     OW59699   6.231   8.990  14.124
52601SOL    HW159700   6.136   8.999  14.136
52601SOL    HW259701   6.268   9.021  14.207
52602SOL     OW59702   2.399   5.431   7.681
52602SOL    HW159703   2.444   5.441   7.597
52602SOL    HW259704   2.470   5.417   7.744
52603SOL     OW59705   1.900   7.848   2.815
52603SOL    HW159706   1.932   7.759   2.809
52603SOL    HW259707   1.961   7.892   2.875
52604SOL     OW59708   9.895   9.929   4.192
52604SOL    HW159709   9.882  10.006   4.135
52604SOL    HW259710   9.949   9.962   4.264
52605SOL     OW59711   0.681   3.416  14.351
52605SOL    HW159712   0.598   3.462  14.340
52605SOL    HW259713   0.681   3.349  14.282
52606SOL     OW59714  12.760  11.997  10.627
52606SOL    HW159715  12.744  11.936  10.698
52606SOL    HW259716  12.689  11.981  10.565
52607SOL     OW59717  10.852   5.874   6.718
52607SOL    HW159718  10.930   5.850   6.668
52607SOL    HW259719  10.820   5.953   6.675
52608SOL     OW59720  14.828   3.120   2.547
52608SOL    HW159721   0.039   3.072   2.554
52608SOL    HW259722  14.835   3.170   2.466
52609SOL     OW59723  14.416   5.733  14.038
52609SOL    HW159724  14.339   5.766  14.084
52609SOL    HW259725  14.398   5.639  14.026
52610SOL     OW59726   0.181  10.966   2.238
52610SOL    HW159727   0.246  11.023   2.279
52610SOL    HW259728   0.223  10.936   2.157
52611SOL     OW59729  12.671   1.215  14.760
52611SOL    HW159730  12.662   1.248  14.850
52611SOL    HW259731  12.746   1.262  14.724
52612SOL     OW59732   1.238   8.185  10.883
52612SOL    HW159733   1.207   8.096  10.896
52612SOL    HW259734   1.170   8.226  10.829
52613SOL     OW59735   1.466  12.272   3.534
52613SOL    HW159736   1.499  12.362   3.531
52613SOL    HW259737   1.542  12.220   3.559
52614SOL     OW59738   1.277   8.075   6.502
52614SOL    HW159739   1.298   8.167   6.486
52614SOL    HW259740   1.349   8.026   6.461
52615SOL     OW59741   5.242  10.456   6.378
52615SOL    HW159742   5.193  10.448   6.460
52615SOL    HW259743   5.268  10.366   6.357
52616SOL     OW59744   9.640   4.257  10.326
52616SOL    HW159745   9.728   4.268  10.289
52616SOL    HW259746   9.581   4.288  10.257
52617SOL     OW59747  10.732  14.677  12.812
52617SOL    HW159748  10.762  14.753  12.762
52617SOL    HW259749  10.798  14.609  12.795
52618SOL     OW59750  12.397   2.548   2.484
52618SOL    HW159751  12.374   2.632   2.445
52618SOL    HW259752  12.395   2.563   2.578
52619SOL     OW59753   3.720   6.153   7.159
52619SOL    HW159754   3.756   6.132   7.073
52619SOL    HW259755   3.797   6.162   7.216
52620SOL     OW59756  12.398  11.825   0.849
52620SOL    HW159757  12.350  11.795   0.926
52620SOL    HW259758  12.489  11.805   0.868
52621SOL     OW59759   6.131   7.347  13.741
52621SOL    HW159760   6.056   7.365  13.798
52621SOL    HW259761   6.174   7.431  13.730
52622SOL     OW59762   1.755  14.405   6.296
52622SOL    HW159763   1.702  14.339   6.250
52622SOL    HW259764   1.756  14.376   6.387
52623SOL     OW59765   9.889   5.388  13.763
52623SOL    HW159766   9.883   5.329  13.838
52623SOL    HW259767   9.975   5.430  13.772
52624SOL     OW59768   0.146  12.466   2.498
52624SOL    HW159769   0.074  12.509   2.452
52624SOL    HW259770   0.143  12.502   2.587
52625SOL     OW59771   4.814   7.271   3.243
52625SOL    HW159772   4.779   7.319   3.318
52625SOL    HW259773   4.808   7.179   3.268
52626SOL     OW59774   6.879   4.247  10.904
52626SOL    HW159775   6.828   4.188  10.960
52626SOL    HW259776   6.940   4.189  10.858
52627SOL     OW59777   1.334   9.486   5.254
52627SOL    HW159778   1.280   9.565   5.260
52627SOL    HW259779   1.361   9.482   5.163
52628SOL     OW59780   8.308  12.185  12.937
52628SOL    HW159781   8.263  12.119  12.988
52628SOL    HW259782   8.318  12.146  12.850
52629SOL     OW59783  10.774   0.666  11.665
52629SOL    HW159784  10.694   0.713  11.641
52629SOL    HW259785  10.769   0.658  11.760
52630SOL     OW59786   8.515   2.730  12.251
52630SOL    HW159787   8.569   2.763  12.179
52630SOL    HW259788   8.427   2.727  12.215
52631SOL     OW59789   5.732   1.805   0.530
52631SOL    HW159790   5.652   1.759   0.555
52631SOL    HW259791   5.711   1.845   0.445
52632SOL     OW59792   1.403  14.282   8.592
52632SOL    HW159793   1.443  14.247   8.672
52632SOL    HW259794   1.469  14.343   8.558
52633SOL     OW59795   7.232  10.953  10.940
52633SOL    HW159796   7.179  10.879  10.910
52633SOL    HW259797   7.285  10.916  11.011
52634SOL     OW59798  10.333   6.140  12.930
52634SOL    HW159799  10.260   6.201  12.944
52634SOL    HW259800  10.303   6.058  12.968
52635SOL     OW59801  13.030   7.841   2.873
52635SOL    HW159802  12.997   7.761   2.832
52635SOL    HW259803  13.088   7.809   2.942
52636SOL     OW59804   5.946   9.216   3.258
52636SOL    HW159805   5.986   9.281   3.201
52636SOL    HW259806   5.937   9.139   3.202
52637SOL     OW59807   9.622   8.460   8.654
52637SOL    HW159808   9.540   8.463   8.703
52637SOL    HW259809   9.595   8.456   8.562
52638SOL     OW59810   5.953   8.423   2.729
52638SOL    HW159811   6.042   8.448   2.706
52638SOL    HW259812   5.935   8.469   2.811
52639SOL     OW59813   3.002  13.413  14.366
52639SOL    HW159814   3.019  13.324  14.395
52639SOL    HW259815   2.942  13.404  14.292
52640SOL     OW59816   9.685   8.724   0.307
52640SOL    HW159817   9.625   8.680   0.367
52640SOL    HW259818   9.662   8.688   0.221
52641SOL     OW59819   0.541  11.265   0.023
52641SOL    HW159820   0.498  11.254   0.108
52641SOL    HW259821   0.510  11.190  14.842
52642SOL     OW59822   2.322   9.484   6.487
52642SOL    HW159823   2.389   9.416   6.494
52642SOL    HW259824   2.250   9.452   6.542
52643SOL     OW59825  10.578  12.041  12.044
52643SOL    HW159826  10.636  12.002  12.110
52643SOL    HW259827  10.498  11.989  12.049
52644SOL     OW59828   4.345   0.185  13.083
52644SOL    HW159829   4.300   0.102  13.067
52644SOL    HW259830   4.299   0.248  13.028
52645SOL     OW59831   7.750   9.974   2.928
52645SOL    HW159832   7.694   9.964   2.851
52645SOL    HW259833   7.747  10.068   2.947
52646SOL     OW59834  11.047   1.614   2.149
52646SOL    HW159835  11.112   1.680   2.171
52646SOL    HW259836  11.030   1.625   2.056
52647SOL     OW59837  13.159   8.699   0.686
52647SOL    HW159838  13.172   8.706   0.591
52647SOL    HW259839  13.118   8.613   0.698
52648SOL     OW59840   8.839   6.573   6.272
52648SOL    HW159841   8.933   6.589   6.282
52648SOL    HW259842   8.832   6.478   6.265
52649SOL     OW59843   5.246   9.635   4.876
52649SOL    HW159844   5.308   9.614   4.807
52649SOL    HW259845   5.194   9.707   4.839
52650SOL     OW59846  11.063   6.027   5.488
52650SOL    HW159847  11.107   5.956   5.443
52650SOL    HW259848  11.128   6.061   5.550
52651SOL     OW59849   8.305   9.989   7.763
52651SOL    HW159850   8.294   9.930   7.837
52651SOL    HW259851   8.360   9.941   7.701
52652SOL     OW59852   5.381   0.401   9.050
52652SOL    HW159853   5.297   0.388   9.093
52652SOL    HW259854   5.383   0.335   8.981
52653SOL     OW59855   6.683  12.748   0.792
52653SOL    HW159856   6.740  12.796   0.852
52653SOL    HW259857   6.601  12.798   0.792
52654SOL     OW59858   1.681   3.445   6.905
52654SOL    HW159859   1.603   3.499   6.889
52654SOL    HW259860   1.665   3.365   6.854
52655SOL     OW59861   6.796  14.350  14.694
52655SOL    HW159862   6.762  14.347  14.604
52655SOL    HW259863   6.869  14.411  14.690
52656SOL     OW59864   9.410   5.842  14.710
52656SOL    HW159865   9.495   5.809  14.739
52656SOL    HW259866   9.384   5.782  14.640
52657SOL     OW59867   6.060   9.989  12.674
52657SOL    HW159868   6.037   9.906  12.632
52657SOL    HW259869   6.104   9.963  12.755
52658SOL     OW59870   9.839  13.285  12.066
52658SOL    HW159871   9.811  13.247  11.983
52658SOL    HW259872   9.926  13.246  12.082
52659SOL     OW59873  12.536  13.621   2.645
52659SOL    HW159874  12.565  13.693   2.588
52659SOL    HW259875  12.552  13.542   2.594
52660SOL     OW59876  10.860   6.704  10.686
52660SOL    HW159877  10.861   6.738  10.596
52660SOL    HW259878  10.904   6.772  10.737
52661SOL     OW59879   4.046   9.582   0.010
52661SOL    HW159880   4.041   9.610   0.102
52661SOL    HW259881   4.034   9.662  14.831
52662SOL     OW59882   9.336   3.402   6.730
52662SOL    HW159883   9.326   3.401   6.635
52662SOL    HW259884   9.249   3.424   6.763
52663SOL     OW59885  14.364   4.052   1.037
52663SOL    HW159886  14.418   4.105   0.978
52663SOL    HW259887  14.427   4.004   1.090
52664SOL     OW59888  14.437   9.821   8.720
52664SOL    HW159889  14.417   9.762   8.648
52664SOL    HW259890  14.380   9.897   8.706
52665SOL     OW59891   3.737   2.945   7.563
52665SOL    HW159892   3.792   2.955   7.485
52665SOL    HW259893   3.774   3.005   7.627
52666SOL     OW59894   3.150  12.879   4.723
52666SOL    HW159895   3.149  12.827   4.643
52666SOL    HW259896   3.099  12.957   4.702
52667SOL     OW59897  11.276   2.363   0.961
52667SOL    HW159898  11.200   2.359   0.903
52667SOL    HW259899  11.349   2.331   0.908
52668SOL     OW59900  10.090   1.161  13.224
52668SOL    HW159901  10.064   1.110  13.301
52668SOL    HW259902  10.185   1.152  13.220
52669SOL     OW59903   5.160   0.690   2.301
52669SOL    HW159904   5.173   0.595   2.305
52669SOL    HW259905   5.239   0.723   2.259
52670SOL     OW59906  12.006  12.149   5.519
52670SOL    HW159907  12.026  12.239   5.492
52670SOL    HW259908  11.913  12.138   5.500
52671SOL     OW59909   9.928  14.260  12.146
52671SOL    HW159910  10.003  14.274  12.088
52671SOL    HW259911   9.943  14.319  12.220
52672SOL     OW59912   3.470  13.471   1.546
52672SOL    HW159913   3.535  13.431   1.604
52672SOL    HW259914   3.441  13.549   1.593
52673SOL     OW59915   8.275   8.562   2.279
52673SOL    HW159916   8.277   8.483   2.332
52673SOL    HW259917   8.361   8.565   2.237
52674SOL     OW59918   7.291   7.401   7.883
52674SOL    HW159919   7.346   7.348   7.941
52674SOL    HW259920   7.202   7.378   7.907
52675SOL     OW59921   4.680  14.590   0.346
52675SOL    HW159922   4.635  14.540   0.278
52675SOL    HW259923   4.731  14.655   0.297
52676SOL     OW59924   2.057   2.170  13.484
52676SOL    HW159925   1.979   2.118  13.502
52676SOL    HW259926   2.120   2.107  13.449
52677SOL     OW59927   5.468  12.976   9.191
52677SOL    HW159928   5.504  13.059   9.160
52677SOL    HW259929   5.378  12.996   9.216
52678SOL     OW59930  14.033  10.951  10.885
52678SOL    HW159931  14.037  11.003  10.966
52678SOL    HW259932  13.959  10.987  10.838
52679SOL     OW59933   8.560   7.009   3.699
52679SOL    HW159934   8.639   7.010   3.753
52679SOL    HW259935   8.562   6.925   3.655
52680SOL     OW59936   9.237   2.291  13.477
52680SOL    HW159937   9.314   2.263  13.527
52680SOL    HW259938   9.203   2.210  13.438
52681SOL     OW59939   3.504   3.116   5.430
52681SOL    HW159940   3.541   3.087   5.346
52681SOL    HW259941   3.560   3.075   5.496
52682SOL     OW59942   8.427   6.481   9.299
52682SOL    HW159943   8.340   6.443   9.290
52682SOL    HW259944   8.445   6.475   9.393
52683SOL     OW59945   8.099  11.364   4.770
52683SOL    HW159946   8.076  11.286   4.719
52683SOL    HW259947   8.180  11.342   4.815
52684SOL     OW59948   6.655  10.132   2.568
52684SOL    HW159949   6.729  10.071   2.567
52684SOL    HW259950   6.682  10.204   2.512
52685SOL     OW59951  12.073   2.392   7.090
52685SOL    HW159952  12.031   2.332   7.152
52685SOL    HW259953  12.154   2.419   7.134
52686SOL     OW59954   1.523   3.671   0.372
52686SOL    HW159955   1.586   3.605   0.341
52686SOL    HW259956   1.577   3.748   0.389
52687SOL     OW59957  14.281   4.102  10.091
52687SOL    HW159958  14.255   4.011  10.079
52687SOL    HW259959  14.335   4.122  10.014
52688SOL     OW59960   8.510  11.130   2.130
52688SOL    HW159961   8.524  11.155   2.222
52688SOL    HW259962   8.593  11.091   2.103
52689SOL     OW59963   7.936   1.188   4.390
52689SOL    HW159964   7.894   1.268   4.424
52689SOL    HW259965   8.030   1.207   4.395
52690SOL     OW59966  11.392   6.966   2.842
52690SOL    HW159967  11.446   7.037   2.879
52690SOL    HW259968  11.315   6.962   2.899
52691SOL     OW59969  13.798   5.375  14.484
52691SOL    HW159970  13.740   5.379  14.408
52691SOL    HW259971  13.820   5.466  14.503
52692SOL     OW59972   0.429   1.967   2.555
52692SOL    HW159973   0.515   1.966   2.514
52692SOL    HW259974   0.369   1.934   2.488
52693SOL     OW59975   2.216   3.645   7.120
52693SOL    HW159976   2.150   3.576   7.119
52693SOL    HW259977   2.251   3.647   7.031
52694SOL     OW59978  14.366   0.423   8.192
52694SOL    HW159979  14.438   0.439   8.252
52694SOL    HW259980  14.324   0.343   8.223
52695SOL     OW59981   6.215   0.548   9.361
52695SOL    HW159982   6.253   0.510   9.282
52695SOL    HW259983   6.232   0.642   9.353
52696SOL     OW59984   4.601   6.839   4.402
52696SOL    HW159985   4.668   6.851   4.469
52696SOL    HW259986   4.535   6.784   4.444
52697SOL     OW59987  14.404   0.919   8.170
52697SOL    HW159988  14.479   0.948   8.222
52697SOL    HW259989  14.371   0.842   8.217
52698SOL     OW59990   5.722   0.987   6.460
52698SOL    HW159991   5.799   0.999   6.405
52698SOL    HW259992   5.700   1.075   6.491
52699SOL     OW59993   9.903   2.393   5.487
52699SOL    HW159994   9.824   2.421   5.534
52699SOL    HW259995   9.870   2.337   5.417
52700SOL     OW59996  14.514   0.821   3.608
52700SOL    HW159997  14.538   0.891   3.669
52700SOL    HW259998  14.435   0.782   3.646
52701SOL     OW59999   8.041   5.315   4.593
52701SOL    HW160000   8.067   5.229   4.559
52701SOL    HW260001   8.094   5.377   4.542
52702SOL     OW60002   2.505   0.258  12.533
52702SOL    HW160003   2.591   0.296  12.516
52702SOL    HW260004   2.475   0.226  12.448
52703SOL     OW60005  12.444   0.860   7.847
52703SOL    HW160006  12.458   0.770   7.876
52703SOL    HW260007  12.379   0.852   7.777
52704SOL     OW60008   5.610   5.871   3.886
52704SOL    HW160009   5.689   5.818   3.894
52704SOL    HW260010   5.623   5.944   3.947
52705SOL     OW60011  13.043  14.385  12.090
52705SOL    HW160012  13.099  14.343  12.026
52705SOL    HW260013  13.002  14.313  12.137
52706SOL     OW60014   5.334   5.219   7.949
52706SOL    HW160015   5.374   5.198   8.033
52706SOL    HW260016   5.287   5.140   7.923
52707SOL     OW60017  10.305   2.856  12.424
52707SOL    HW160018  10.296   2.937  12.475
52707SOL    HW260019  10.271   2.788  12.481
52708SOL     OW60020   4.923  14.799   7.463
52708SOL    HW160021   4.960  14.711   7.471
52708SOL    HW260022   4.986  14.847   7.409
52709SOL     OW60023   0.732   9.962   6.520
52709SOL    HW160024   0.666  10.016   6.564
52709SOL    HW260025   0.752   9.893   6.584
52710SOL     OW60026  11.823   2.657  12.679
52710SOL    HW160027  11.759   2.608  12.628
52710SOL    HW260028  11.868   2.712  12.615
52711SOL     OW60029  10.930   7.734   7.118
52711SOL    HW160030  10.928   7.819   7.073
52711SOL    HW260031  11.023   7.709   7.118
52712SOL     OW60032   7.632  14.781   0.301
52712SOL    HW160033   7.627  14.865   0.348
52712SOL    HW260034   7.579  14.794   0.223
52713SOL     OW60035   6.096   4.851   5.009
52713SOL    HW160036   6.042   4.775   4.990
52713SOL    HW260037   6.038   4.926   4.994
52714SOL     OW60038  13.138  14.511   8.754
52714SOL    HW160039  13.144  14.595   8.800
52714SOL    HW260040  13.045  14.489   8.754
52715SOL     OW60041   4.116   2.018  13.875
52715SOL    HW160042   4.087   2.027  13.784
52715SOL    HW260043   4.210   2.001  13.868
52716SOL     OW60044  14.333  14.420  10.136
52716SOL    HW160045  14.352  14.400  10.044
52716SOL    HW260046  14.276  14.496  10.132
52717SOL     OW60047   2.148  13.217  11.611
52717SOL    HW160048   2.215  13.273  11.573
52717SOL    HW260049   2.184  13.129  11.608
52718SOL     OW60050   1.753  14.380   6.893
52718SOL    HW160051   1.773  14.450   6.955
52718SOL    HW260052   1.831  14.324   6.894
52719SOL     OW60053   0.571   8.858  11.445
52719SOL    HW160054   0.569   8.928  11.379
52719SOL    HW260055   0.641   8.799  11.415
52720SOL     OW60056   3.395  11.283   3.973
52720SOL    HW160057   3.325  11.290   3.908
52720SOL    HW260058   3.431  11.372   3.978
52721SOL     OW60059   2.683  13.341  13.226
52721SOL    HW160060   2.670  13.276  13.296
52721SOL    HW260061   2.663  13.293  13.146
52722SOL     OW60062   8.327   0.597   5.576
52722SOL    HW160063   8.347   0.666   5.639
52722SOL    HW260064   8.256   0.632   5.523
52723SOL     OW60065   8.907   6.604  13.323
52723SOL    HW160066   8.971   6.539  13.293
52723SOL    HW260067   8.959   6.681  13.343
52724SOL     OW60068   0.566   4.762   9.635
52724SOL    HW160069   0.570   4.717   9.551
52724SOL    HW260070   0.632   4.719   9.690
52725SOL     OW60071   2.505   2.741  12.225
52725SOL    HW160072   2.451   2.820  12.226
52725SOL    HW260073   2.450   2.675  12.183
52726SOL     OW60074   2.661  13.780  10.928
52726SOL    HW160075   2.707  13.864  10.922
52726SOL    HW260076   2.697  13.728  10.855
52727SOL     OW60077   6.564   3.753   5.750
52727SOL    HW160078   6.534   3.844   5.745
52727SOL    HW260079   6.659   3.759   5.757
52728SOL     OW60080  11.063   9.942  11.760
52728SOL    HW160081  11.012   9.951  11.840
52728SOL    HW260082  11.152   9.965  11.786
52729SOL     OW60083  14.025   0.480   7.628
52729SOL    HW160084  13.997   0.561   7.670
52729SOL    HW260085  14.111   0.501   7.591
52730SOL     OW60086   1.740   8.981   9.138
52730SOL    HW160087   1.754   8.889   9.116
52730SOL    HW260088   1.796   9.030   9.078
52731SOL     OW60089   7.331   5.437   1.140
52731SOL    HW160090   7.422   5.436   1.109
52731SOL    HW260091   7.279   5.429   1.061
52732SOL     OW60092   2.307   2.953   6.371
52732SOL    HW160093   2.352   2.978   6.290
52732SOL    HW260094   2.267   3.035   6.403
52733SOL     OW60095  10.863  13.635  14.473
52733SOL    HW160096  10.776  13.635  14.433
52733SOL    HW260097  10.891  13.544  14.469
52734SOL     OW60098   2.718   0.216   6.877
52734SOL    HW160099   2.684   0.259   6.799
52734SOL    HW260100   2.655   0.235   6.946
52735SOL     OW60101   5.552   9.223   6.060
52735SOL    HW160102   5.508   9.268   5.988
52735SOL    HW260103   5.509   9.255   6.139
52736SOL     OW60104  13.231   3.444   7.410
52736SOL    HW160105  13.192   3.494   7.338
52736SOL    HW260106  13.251   3.509   7.477
52737SOL     OW60107   7.001   9.319   7.292
52737SOL    HW160108   7.066   9.257   7.327
52737SOL    HW260109   6.917   9.276   7.306
52738SOL     OW60110   2.556  11.871  10.650
52738SOL    HW160111   2.513  11.953  10.625
52738SOL    HW260112   2.492  11.803  10.630
52739SOL     OW60113   8.513   8.862   6.496
52739SOL    HW160114   8.444   8.797   6.481
52739SOL    HW260115   8.539   8.848   6.587
52740SOL     OW60116  13.444   2.562  11.033
52740SOL    HW160117  13.427   2.572  10.940
52740SOL    HW260118  13.431   2.649  11.070
52741SOL     OW60119  13.757   4.823   6.320
52741SOL    HW160120  13.691   4.790   6.259
52741SOL    HW260121  13.813   4.880   6.267
52742SOL     OW60122  14.449   9.551  11.492
52742SOL    HW160123  14.380   9.588  11.436
52742SOL    HW260124  14.406   9.481  11.540
52743SOL     OW60125   3.234   5.201   8.917
52743SOL    HW160126   3.244   5.296   8.924
52743SOL    HW260127   3.313   5.166   8.958
52744SOL     OW60128   8.987  14.676   7.571
52744SOL    HW160129   8.925  14.698   7.501
52744SOL    HW260130   9.041  14.754   7.581
52745SOL     OW60131   2.632  10.103   7.117
52745SOL    HW160132   2.563  10.110   7.052
52745SOL    HW260133   2.630  10.011   7.145
52746SOL     OW60134   5.045   9.111   3.410
52746SOL    HW160135   5.057   9.205   3.397
52746SOL    HW260136   4.981   9.086   3.343
52747SOL     OW60137   8.304  13.581   0.369
52747SOL    HW160138   8.239  13.615   0.308
52747SOL    HW260139   8.386  13.622   0.341
52748SOL     OW60140   9.983   1.972   9.369
52748SOL    HW160141  10.024   2.001   9.451
52748SOL    HW260142  10.027   1.890   9.348
52749SOL     OW60143  12.583   8.496  13.254
52749SOL    HW160144  12.568   8.403  13.266
52749SOL    HW260145  12.627   8.524  13.334
52750SOL     OW60146   9.491   4.965   1.420
52750SOL    HW160147   9.415   4.951   1.363
52750SOL    HW260148   9.539   4.882   1.418
52751SOL     OW60149   2.092   7.078  10.450
52751SOL    HW160150   2.179   7.117  10.448
52751SOL    HW260151   2.059   7.086  10.361
52752SOL     OW60152   7.115  10.290   6.088
52752SOL    HW160153   7.045  10.304   6.152
52752SOL    HW260154   7.079  10.323   6.006
52753SOL     OW60155   6.105  10.933   5.187
52753SOL    HW160156   6.034  10.882   5.148
52753SOL    HW260157   6.078  11.025   5.175
52754SOL     OW60158   2.709   2.875   3.150
52754SOL    HW160159   2.620   2.910   3.157
52754SOL    HW260160   2.723   2.864   3.057
52755SOL     OW60161   0.740   0.473   2.685
52755SOL    HW160162   0.769   0.392   2.643
52755SOL    HW260163   0.654   0.452   2.722
52756SOL     OW60164   1.295   5.950   6.234
52756SOL    HW160165   1.243   6.030   6.227
52756SOL    HW260166   1.377   5.978   6.275
52757SOL     OW60167   7.228   7.659   4.331
52757SOL    HW160168   7.211   7.568   4.306
52757SOL    HW260169   7.282   7.694   4.260
52758SOL     OW60170   2.175  13.742  12.838
52758SOL    HW160171   2.259  13.698  12.843
52758SOL    HW260172   2.113  13.681  12.878
52759SOL     OW60173   4.580   2.605  10.336
52759SOL    HW160174   4.593   2.592  10.430
52759SOL    HW260175   4.625   2.688  10.317
52760SOL     OW60176  11.462  11.908   0.543
52760SOL    HW160177  11.472  11.848   0.469
52760SOL    HW260178  11.551  11.921   0.576
52761SOL     OW60179  13.975   5.470   0.018
52761SOL    HW160180  13.998   5.414   0.092
52761SOL    HW260181  13.889   5.506   0.041
52762SOL     OW60182   4.478   3.073  14.668
52762SOL    HW160183   4.401   3.122  14.639
52762SOL    HW260184   4.476   2.994  14.614
52763SOL     OW60185   8.401   1.686   9.532
52763SOL    HW160186   8.340   1.646   9.594
52763SOL    HW260187   8.485   1.647   9.553
52764SOL     OW60188   9.185   4.722   1.496
52764SOL    HW160189   9.121   4.782   1.458
52764SOL    HW260190   9.172   4.639   1.449
52765SOL     OW60191   6.237   8.197  13.524
52765SOL    HW160192   6.166   8.259  13.506
52765SOL    HW260193   6.240   8.191  13.619
52766SOL     OW60194   2.247   0.282   6.266
52766SOL    HW160195   2.224   0.371   6.292
52766SOL    HW260196   2.167   0.248   6.227
52767SOL     OW60197   8.695   2.858   1.961
52767SOL    HW160198   8.700   2.931   1.900
52767SOL    HW260199   8.783   2.853   1.999
52768SOL     OW60200   9.668   2.308   8.713
52768SOL    HW160201   9.652   2.326   8.621
52768SOL    HW260202   9.591   2.342   8.759
52769SOL     OW60203   8.256   5.514   8.424
52769SOL    HW160204   8.228   5.584   8.483
52769SOL    HW260205   8.185   5.449   8.427
52770SOL     OW60206   8.825   3.905   2.553
52770SOL    HW160207   8.741   3.946   2.532
52770SOL    HW260208   8.803   3.817   2.584
52771SOL     OW60209   3.600   6.862   8.380
52771SOL    HW160210   3.666   6.795   8.397
52771SOL    HW260211   3.582   6.855   8.286
52772SOL     OW60212   0.031   4.217   5.287
52772SOL    HW160213   0.098   4.239   5.352
52772SOL    HW260214   0.079   4.173   5.217
52773SOL     OW60215   9.613  14.241  13.591
52773SOL    HW160216   9.602  14.166  13.532
52773SOL    HW260217   9.529  14.287  13.587
52774SOL     OW60218   5.445  12.519  14.469
52774SOL    HW160219   5.467  12.436  14.513
52774SOL    HW260220   5.530  12.560  14.453
52775SOL     OW60221  14.145   8.224   1.992
52775SOL    HW160222  14.237   8.215   1.967
52775SOL    HW260223  14.123   8.315   1.970
52776SOL     OW60224  10.159   7.049   3.834
52776SOL    HW160225  10.082   7.107   3.838
52776SOL    HW260226  10.139   6.987   3.764
52777SOL     OW60227  12.731  10.734  11.249
52777SOL    HW160228  12.648  10.725  11.296
52777SOL    HW260229  12.794  10.758  11.317
52778SOL     OW60230   6.320  11.350   6.575
52778SOL    HW160231   6.407  11.388   6.569
52778SOL    HW260232   6.276  11.401   6.644
52779SOL     OW60233   3.889  10.154   5.116
52779SOL    HW160234   3.958  10.123   5.057
52779SOL    HW260235   3.923  10.236   5.152
52780SOL     OW60236   9.593   5.616  14.233
52780SOL    HW160237   9.664   5.579  14.181
52780SOL    HW260238   9.525   5.548  14.234
52781SOL     OW60239  10.607  12.487   2.503
52781SOL    HW160240  10.602  12.460   2.594
52781SOL    HW260241  10.662  12.422   2.461
52782SOL     OW60242  14.806   2.351  11.678
52782SOL    HW160243  14.841   2.318  11.596
52782SOL    HW260244  14.802   2.446  11.665
52783SOL     OW60245   7.704   4.415   5.247
52783SOL    HW160246   7.652   4.399   5.169
52783SOL    HW260247   7.660   4.487   5.292
52784SOL     OW60248  10.677   5.359   0.820
52784SOL    HW160249  10.743   5.421   0.852
52784SOL    HW260250  10.694   5.279   0.869
52785SOL     OW60251   7.417   3.921   4.139
52785SOL    HW160252   7.412   4.014   4.159
52785SOL    HW260253   7.367   3.878   4.208
52786SOL     OW60254   4.747   1.776   9.474
52786SOL    HW160255   4.779   1.712   9.410
52786SOL    HW260256   4.653   1.761   9.477
52787SOL     OW60257   7.026   4.524   7.169
52787SOL    HW160258   7.090   4.473   7.219
52787SOL    HW260259   7.065   4.611   7.162
52788SOL     OW60260   2.712   5.253  13.048
52788SOL    HW160261   2.678   5.303  13.122
52788SOL    HW260262   2.676   5.297  12.971
52789SOL     OW60263   8.596   4.101   9.185
52789SOL    HW160264   8.609   4.058   9.101
52789SOL    HW260265   8.588   4.194   9.163
52790SOL     OW60266   5.335   2.796  13.951
52790SOL    HW160267   5.334   2.818  13.858
52790SOL    HW260268   5.301   2.874  13.994
52791SOL     OW60269  10.027   6.878   7.412
52791SOL    HW160270   9.943   6.887   7.367
52791SOL    HW260271  10.021   6.795   7.458
52792SOL     OW60272  13.160  11.895  14.203
52792SOL    HW160273  13.183  11.898  14.296
52792SOL    HW260274  13.096  11.966  14.193
52793SOL     OW60275   1.054   7.053   2.871
52793SOL    HW160276   1.145   7.064   2.843
52793SOL    HW260277   1.017   6.989   2.809
52794SOL     OW60278  12.739   6.924   5.664
52794SOL    HW160279  12.723   6.874   5.744
52794SOL    HW260280  12.809   6.985   5.687
52795SOL     OW60281   8.116   8.902   7.037
52795SOL    HW160282   8.195   8.950   7.011
52795SOL    HW260283   8.099   8.932   7.126
52796SOL     OW60284   5.828   6.811  12.241
52796SOL    HW160285   5.909   6.817  12.190
52796SOL    HW260286   5.793   6.724  12.220
52797SOL     OW60287   4.302   3.612   2.370
52797SOL    HW160288   4.270   3.570   2.290
52797SOL    HW260289   4.250   3.692   2.378
52798SOL     OW60290   0.849   2.558   5.965
52798SOL    HW160291   0.775   2.618   5.956
52798SOL    HW260292   0.808   2.471   5.963
52799SOL     OW60293   1.819  14.557   5.325
52799SOL    HW160294   1.787  14.644   5.300
52799SOL    HW260295   1.775  14.497   5.265
52800SOL     OW60296   0.298  13.899  14.670
52800SOL    HW160297   0.384  13.859  14.679
52800SOL    HW260298   0.312  13.970  14.608
52801SOL     OW60299   4.466   0.364   5.595
52801SOL    HW160300   4.392   0.356   5.656
52801SOL    HW260301   4.428   0.348   5.509
52802SOL     OW60302  12.579   3.615   8.740
52802SOL    HW160303  12.494   3.617   8.783
52802SOL    HW260304  12.567   3.557   8.665
52803SOL     OW60305   0.822  14.563   4.098
52803SOL    HW160306   0.912  14.591   4.080
52803SOL    HW260307   0.803  14.499   4.029
52804SOL     OW60308   5.989  10.247   1.466
52804SOL    HW160309   5.949  10.219   1.548
52804SOL    HW260310   6.083  10.245   1.483
52805SOL     OW60311  12.611   2.377  13.446
52805SOL    HW160312  12.655   2.386  13.530
52805SOL    HW260313  12.658   2.436  13.387
52806SOL     OW60314   0.266  13.041   9.088
52806SOL    HW160315   0.265  13.061   8.994
52806SOL    HW260316   0.328  12.967   9.096
52807SOL     OW60317  11.602   1.450   1.508
52807SOL    HW160318  11.515   1.464   1.471
52807SOL    HW260319  11.631   1.367   1.469
52808SOL     OW60320   1.811   7.878  10.078
52808SOL    HW160321   1.842   7.968  10.072
52808SOL    HW260322   1.881   7.832  10.125
52809SOL     OW60323  13.529  12.220   8.442
52809SOL    HW160324  13.612  12.175   8.424
52809SOL    HW260325  13.551  12.313   8.444
52810SOL     OW60326   3.608   4.827   3.591
52810SOL    HW160327   3.674   4.759   3.584
52810SOL    HW260328   3.593   4.856   3.501
52811SOL     OW60329   8.336   3.136   4.676
52811SOL    HW160330   8.310   3.111   4.587
52811SOL    HW260331   8.387   3.216   4.664
52812SOL     OW60332   9.099  14.180   7.169
52812SOL    HW160333   9.065  14.258   7.125
52812SOL    HW260334   9.140  14.129   7.099
52813SOL     OW60335  14.256   9.466  14.403
52813SOL    HW160336  14.188   9.431  14.346
52813SOL    HW260337  14.273   9.396  14.466
52814SOL     OW60338   9.007  11.400   8.146
52814SOL    HW160339   8.964  11.484   8.163
52814SOL    HW260340   8.937  11.344   8.113
52815SOL     OW60341   4.140   8.450   0.261
52815SOL    HW160342   4.136   8.512   0.189
52815SOL    HW260343   4.049   8.436   0.287
52816SOL     OW60344  14.508   6.349  13.953
52816SOL    HW160345  14.563   6.427  13.947
52816SOL    HW260346  14.533   6.297  13.877
52817SOL     OW60347   7.028  13.778   7.769
52817SOL    HW160348   7.109  13.728   7.762
52817SOL    HW260349   6.990  13.774   7.682
52818SOL     OW60350  11.092   2.350   8.846
52818SOL    HW160351  11.089   2.383   8.756
52818SOL    HW260352  11.179   2.375   8.878
52819SOL     OW60353   1.172   8.721   6.103
52819SOL    HW160354   1.156   8.707   6.009
52819SOL    HW260355   1.214   8.641   6.133
52820SOL     OW60356  13.841  12.899  11.758
52820SOL    HW160357  13.842  12.968  11.824
52820SOL    HW260358  13.914  12.841  11.783
52821SOL     OW60359  13.117   6.987  11.854
52821SOL    HW160360  13.049   7.054  11.861
52821SOL    HW260361  13.072   6.905  11.876
52822SOL     OW60362   9.132   4.385   3.098
52822SOL    HW160363   9.227   4.390   3.086
52822SOL    HW260364   9.121   4.372   3.192
52823SOL     OW60365   4.514  13.927   0.901
52823SOL    HW160366   4.541  13.873   0.827
52823SOL    HW260367   4.596  13.955   0.941
52824SOL     OW60368   4.165  13.081  10.952
52824SOL    HW160369   4.150  13.170  10.921
52824SOL    HW260370   4.261  13.072  10.953
52825SOL     OW60371   2.347   1.317   5.164
52825SOL    HW160372   2.402   1.372   5.219
52825SOL    HW260373   2.331   1.239   5.216
52826SOL     OW60374   7.162   5.551  14.427
52826SOL    HW160375   7.144   5.644  14.444
52826SOL    HW260376   7.089   5.522  14.372
52827SOL     OW60377   5.058   0.573  10.750
52827SOL    HW160378   5.152   0.589  10.741
52827SOL    HW260379   5.051   0.512  10.823
52828SOL     OW60380   0.241   5.738   4.199
52828SOL    HW160381   0.254   5.646   4.222
52828SOL    HW260382   0.329   5.774   4.194
52829SOL     OW60383   9.192   7.155   4.893
52829SOL    HW160384   9.108   7.114   4.871
52829SOL    HW260385   9.198   7.147   4.988
52830SOL     OW60386   9.076   9.904   1.283
52830SOL    HW160387   9.011   9.915   1.214
52830SOL    HW260388   9.080   9.989   1.327
52831SOL     OW60389   9.803   3.401  11.119
52831SOL    HW160390   9.801   3.456  11.197
52831SOL    HW260391   9.719   3.417  11.076
52832SOL     OW60392   8.163   3.818   5.981
52832SOL    HW160393   8.255   3.793   5.977
52832SOL    HW260394   8.125   3.758   6.045
52833SOL     OW60395   9.275   8.143  13.451
52833SOL    HW160396   9.301   8.196  13.375
52833SOL    HW260397   9.247   8.207  13.516
52834SOL     OW60398  12.567  10.934   4.433
52834SOL    HW160399  12.518  10.852   4.439
52834SOL    HW260400  12.577  10.962   4.524
52835SOL     OW60401   8.946   7.256  14.144
52835SOL    HW160402   8.861   7.293  14.164
52835SOL    HW260403   8.936   7.162  14.161
52836SOL     OW60404  10.416  10.871   5.734
52836SOL    HW160405  10.355  10.815   5.685
52836SOL    HW260406  10.372  10.956   5.738
52837SOL     OW60407   1.767  11.402   2.522
52837SOL    HW160408   1.716  11.363   2.593
52837SOL    HW260409   1.702  11.447   2.467
52838SOL     OW60410   6.097   6.122   0.962
52838SOL    HW160411   6.083   6.214   0.941
52838SOL    HW260412   6.072   6.115   1.055
52839SOL     OW60413   1.746   5.475  14.126
52839SOL    HW160414   1.797   5.547  14.163
52839SOL    HW260415   1.729   5.417  14.200
52840SOL     OW60416  10.421   5.995  10.403
52840SOL    HW160417  10.433   5.902  10.425
52840SOL    HW260418  10.505   6.021  10.365
52841SOL     OW60419  13.845   0.600   3.148
52841SOL    HW160420  13.875   0.680   3.106
52841SOL    HW260421  13.858   0.615   3.241
52842SOL     OW60422   7.242   9.853   7.985
52842SOL    HW160423   7.270   9.939   8.016
52842SOL    HW260424   7.324   9.803   7.978
52843SOL     OW60425   0.475   5.539   7.249
52843SOL    HW160426   0.425   5.591   7.311
52843SOL    HW260427   0.409   5.490   7.199
52844SOL     OW60428   2.097  11.137  11.901
52844SOL    HW160429   2.157  11.122  11.974
52844SOL    HW260430   2.045  11.213  11.929
52845SOL     OW60431  11.886   7.255   0.847
52845SOL    HW160432  11.866   7.243   0.754
52845SOL    HW260433  11.823   7.322   0.876
52846SOL     OW60434   8.296   7.078   7.054
52846SOL    HW160435   8.365   7.143   7.067
52846SOL    HW260436   8.343   6.994   7.056
52847SOL     OW60437   0.493  11.941  11.361
52847SOL    HW160438   0.577  11.900  11.382
52847SOL    HW260439   0.448  11.948  11.445
52848SOL     OW60440  12.737   9.429  13.746
52848SOL    HW160441  12.731   9.519  13.775
52848SOL    HW260442  12.717   9.432  13.652
52849SOL     OW60443   8.672   3.664  14.003
52849SOL    HW160444   8.681   3.570  14.020
52849SOL    HW260445   8.746   3.704  14.049
52850SOL     OW60446   6.847   7.850   0.897
52850SOL    HW160447   6.777   7.787   0.918
52850SOL    HW260448   6.927   7.808   0.927
52851SOL     OW60449   1.491  12.802   6.798
52851SOL    HW160450   1.466  12.826   6.709
52851SOL    HW260451   1.583  12.775   6.790
52852SOL     OW60452   8.616  12.115   0.192
52852SOL    HW160453   8.621  12.198   0.238
52852SOL    HW260454   8.628  12.049   0.260
52853SOL     OW60455  11.498   4.155   0.257
52853SOL    HW160456  11.526   4.063   0.253
52853SOL    HW260457  11.406   4.151   0.280
52854SOL     OW60458   5.535   3.797  11.739
52854SOL    HW160459   5.491   3.871  11.780
52854SOL    HW260460   5.541   3.822  11.646
52855SOL     OW60461   9.346   7.210   4.317
52855SOL    HW160462   9.270   7.215   4.374
52855SOL    HW260463   9.418   7.245   4.369
52856SOL     OW60464  10.165   6.522   2.196
52856SOL    HW160465  10.256   6.493   2.185
52856SOL    HW260466  10.128   6.461   2.260
52857SOL     OW60467   4.281   4.062  14.096
52857SOL    HW160468   4.262   4.145  14.053
52857SOL    HW260469   4.324   4.087  14.178
52858SOL     OW60470  10.394   4.717   0.748
52858SOL    HW160471  10.432   4.770   0.678
52858SOL    HW260472  10.311   4.760   0.767
52859SOL     OW60473   3.927  12.841   5.675
52859SOL    HW160474   3.925  12.745   5.674
52859SOL    HW260475   3.969  12.865   5.593
52860SOL     OW60476  13.613   7.566   9.012
52860SOL    HW160477  13.664   7.507   8.956
52860SOL    HW260478  13.522   7.542   8.996
52861SOL     OW60479   4.351  14.675   4.326
52861SOL    HW160480   4.330  14.585   4.352
52861SOL    HW260481   4.446  14.682   4.337
52862SOL     OW60482   1.481   3.754   0.025
52862SOL    HW160483   1.413   3.699   0.063
52862SOL    HW260484   1.442   3.842   0.024
52863SOL     OW60485   7.896  12.150   8.673
52863SOL    HW160486   7.809  12.110   8.671
52863SOL    HW260487   7.925  12.149   8.581
52864SOL     OW60488   7.397  13.534  14.734
52864SOL    HW160489   7.392  13.612  14.789
52864SOL    HW260490   7.490  13.528  14.710
52865SOL     OW60491   9.488   6.255   8.247
52865SOL    HW160492   9.515   6.199   8.174
52865SOL    HW260493   9.432   6.198   8.301
52866SOL     OW60494   0.139   5.677   2.208
52866SOL    HW160495   0.112   5.594   2.168
52866SOL    HW260496   0.099   5.744   2.153
52867SOL     OW60497   0.844   6.188   4.705
52867SOL    HW160498   0.848   6.105   4.658
52867SOL    HW260499   0.934   6.220   4.705
52868SOL     OW60500   3.186   4.420  14.264
52868SOL    HW160501   3.117   4.429  14.331
52868SOL    HW260502   3.170   4.335  14.225
52869SOL     OW60503   1.312   6.207   5.293
52869SOL    HW160504   1.329   6.256   5.374
52869SOL    HW260505   1.273   6.270   5.233
52870SOL     OW60506  11.434   9.691   1.670
52870SOL    HW160507  11.366   9.636   1.708
52870SOL    HW260508  11.446   9.762   1.732
52871SOL     OW60509   7.752   0.644   3.544
52871SOL    HW160510   7.684   0.611   3.484
52871SOL    HW260511   7.753   0.581   3.616
52872SOL     OW60512   4.468   7.175   7.747
52872SOL    HW160513   4.411   7.221   7.810
52872SOL    HW260514   4.418   7.097   7.723
52873SOL     OW60515  13.277   4.989   3.941
52873SOL    HW160516  13.304   4.903   3.910
52873SOL    HW260517  13.221   4.972   4.017
52874SOL     OW60518   3.797   6.759   2.445
52874SOL    HW160519   3.779   6.811   2.524
52874SOL    HW260520   3.824   6.824   2.380
52875SOL     OW60521  11.177   9.501  14.166
52875SOL    HW160522  11.209   9.591  14.157
52875SOL    HW260523  11.225   9.452  14.099
52876SOL     OW60524   9.356  14.666   2.842
52876SOL    HW160525   9.350  14.688   2.935
52876SOL    HW260526   9.435  14.613   2.835
52877SOL     OW60527  11.887   1.838  12.621
52877SOL    HW160528  11.905   1.746  12.640
52877SOL    HW260529  11.792   1.842  12.611
52878SOL     OW60530   7.070   3.115  13.476
52878SOL    HW160531   7.018   3.167  13.536
52878SOL    HW260532   7.099   3.040  13.528
52879SOL     OW60533   6.764   6.039   8.797
52879SOL    HW160534   6.851   6.060   8.764
52879SOL    HW260535   6.749   5.948   8.770
52880SOL     OW60536  14.218   3.052   5.341
52880SOL    HW160537  14.179   3.136   5.365
52880SOL    HW260538  14.150   3.007   5.291
52881SOL     OW60539   3.149  13.789   6.139
52881SOL    HW160540   3.167  13.781   6.045
52881SOL    HW260541   3.228  13.756   6.182
52882SOL     OW60542   8.682  12.825   0.358
52882SOL    HW160543   8.647  12.807   0.445
52882SOL    HW260544   8.721  12.743   0.330
52883SOL     OW60545   9.573   4.735   7.298
52883SOL    HW160546   9.507   4.676   7.261
52883SOL    HW260547   9.629   4.758   7.224
52884SOL     OW60548   3.760   7.768  10.928
52884SOL    HW160549   3.811   7.698  10.887
52884SOL    HW260550   3.723   7.728  11.006
52885SOL     OW60551  10.728   2.201   9.611
52885SOL    HW160552  10.717   2.234   9.700
52885SOL    HW260553  10.803   2.250   9.576
52886SOL     OW60554   7.766   7.085   1.629
52886SOL    HW160555   7.861   7.073   1.631
52886SOL    HW260556   7.739   7.047   1.546
52887SOL     OW60557   9.821   3.835   0.809
52887SOL    HW160558   9.839   3.815   0.718
52887SOL    HW260559   9.810   3.930   0.811
52888SOL     OW60560   2.939   1.621   4.722
52888SOL    HW160561   2.919   1.558   4.653
52888SOL    HW260562   3.007   1.579   4.775
52889SOL     OW60563  11.062   0.348   6.206
52889SOL    HW160564  11.105   0.294   6.272
52889SOL    HW260565  11.042   0.430   6.250
52890SOL     OW60566   5.110   4.402   3.027
52890SOL    HW160567   5.047   4.381   3.096
52890SOL    HW260568   5.193   4.412   3.073
52891SOL     OW60569   6.897   2.764  13.356
52891SOL    HW160570   6.810   2.741  13.324
52891SOL    HW260571   6.931   2.826  13.290
52892SOL     OW60572   0.768  13.107   3.077
52892SOL    HW160573   0.824  13.101   3.000
52892SOL    HW260574   0.828  13.127   3.149
52893SOL     OW60575   5.293  13.820   2.978
52893SOL    HW160576   5.216  13.831   2.921
52893SOL    HW260577   5.368  13.824   2.918
52894SOL     OW60578   4.748  12.198   7.772
52894SOL    HW160579   4.682  12.243   7.824
52894SOL    HW260580   4.809  12.266   7.746
52895SOL     OW60581  12.475   3.751   5.178
52895SOL    HW160582  12.514   3.668   5.150
52895SOL    HW260583  12.513   3.768   5.265
52896SOL     OW60584  12.878   3.260   9.030
52896SOL    HW160585  12.912   3.188   9.083
52896SOL    HW260586  12.944   3.272   8.962
52897SOL     OW60587  12.631   2.661  10.253
52897SOL    HW160588  12.588   2.707  10.326
52897SOL    HW260589  12.673   2.586  10.294
52898SOL     OW60590   1.863  13.977   2.309
52898SOL    HW160591   1.821  14.058   2.278
52898SOL    HW260592   1.791  13.921   2.337
52899SOL     OW60593   5.337   0.454   0.010
52899SOL    HW160594   5.365   0.464   0.101
52899SOL    HW260595   5.324   0.544  14.851
52900SOL     OW60596  12.508  13.830   7.920
52900SOL    HW160597  12.601  13.848   7.908
52900SOL    HW260598  12.492  13.748   7.872
52901SOL     OW60599   1.868   0.080  10.425
52901SOL    HW160600   1.842   0.101  10.336
52901SOL    HW260601   1.917   0.157  10.455
52902SOL     OW60602   9.179   5.574   5.312
52902SOL    HW160603   9.275   5.568   5.314
52902SOL    HW260604   9.155   5.598   5.401
52903SOL     OW60605  14.440   8.166  13.937
52903SOL    HW160606  14.345   8.171  13.924
52903SOL    HW260607  14.451   8.125  14.022
52904SOL     OW60608   3.241  13.452  11.835
52904SOL    HW160609   3.165  13.510  11.825
52904SOL    HW260610   3.206  13.375  11.880
52905SOL     OW60611   8.602   7.338   1.003
52905SOL    HW160612   8.542   7.267   0.982
52905SOL    HW260613   8.641   7.314   1.087
52906SOL     OW60614  10.115   4.576   8.771
52906SOL    HW160615  10.188   4.537   8.820
52906SOL    HW260616  10.100   4.516   8.698
52907SOL     OW60617   1.618  13.995   5.358
52907SOL    HW160618   1.643  13.906   5.334
52907SOL    HW260619   1.577  14.030   5.279
52908SOL     OW60620   7.641  10.614   3.959
52908SOL    HW160621   7.557  10.593   4.000
52908SOL    HW260622   7.691  10.533   3.965
52909SOL     OW60623   8.187   3.678  10.432
52909SOL    HW160624   8.279   3.662  10.408
52909SOL    HW260625   8.175   3.772  10.415
52910SOL     OW60626   8.148   4.012   0.973
52910SOL    HW160627   8.100   4.053   0.901
52910SOL    HW260628   8.175   3.927   0.939
52911SOL     OW60629   4.882   7.650  13.929
52911SOL    HW160630   4.886   7.695  13.844
52911SOL    HW260631   4.962   7.676  13.974
52912SOL     OW60632   2.093  10.482  10.241
52912SOL    HW160633   2.001  10.509  10.238
52912SOL    HW260634   2.140  10.559  10.274
52913SOL     OW60635   5.210  12.803  13.513
52913SOL    HW160636   5.262  12.736  13.556
52913SOL    HW260637   5.203  12.773  13.422
52914SOL     OW60638   9.810   6.402  10.391
52914SOL    HW160639   9.819   6.361  10.304
52914SOL    HW260640   9.826   6.495  10.375
52915SOL     OW60641   2.190   1.043   9.058
52915SOL    HW160642   2.135   1.111   9.099
52915SOL    HW260643   2.217   0.987   9.131
52916SOL     OW60644   2.703   5.662   0.469
52916SOL    HW160645   2.653   5.674   0.550
52916SOL    HW260646   2.706   5.567   0.457
52917SOL     OW60647   1.415  10.399   6.529
52917SOL    HW160648   1.394  10.403   6.622
52917SOL    HW260649   1.445  10.310   6.514
52918SOL     OW60650  10.792   1.184   3.714
52918SOL    HW160651  10.721   1.174   3.777
52918SOL    HW260652  10.780   1.273   3.679
52919SOL     OW60653   6.309   5.501   2.802
52919SOL    HW160654   6.325   5.595   2.807
52919SOL    HW260655   6.341   5.467   2.886
52920SOL     OW60656   3.919   9.591   2.385
52920SOL    HW160657   3.824   9.601   2.377
52920SOL    HW260658   3.936   9.591   2.479
52921SOL     OW60659  14.376   5.999   0.722
52921SOL    HW160660  14.394   5.906   0.707
52921SOL    HW260661  14.373   6.037   0.634
52922SOL     OW60662   9.591  14.729   6.454
52922SOL    HW160663   9.651  14.677   6.506
52922SOL    HW260664   9.646  14.772   6.389
52923SOL     OW60665  12.477   8.386   2.379
52923SOL    HW160666  12.513   8.300   2.357
52923SOL    HW260667  12.512   8.404   2.467
52924SOL     OW60668  13.739   6.518   4.647
52924SOL    HW160669  13.730   6.576   4.571
52924SOL    HW260670  13.708   6.571   4.720
52925SOL     OW60671   7.204  11.361   7.312
52925SOL    HW160672   7.267  11.396   7.375
52925SOL    HW260673   7.185  11.435   7.253
52926SOL     OW60674   7.798   7.144   1.144
52926SOL    HW160675   7.733   7.096   1.194
52926SOL    HW260676   7.763   7.147   1.055
52927SOL     OW60677   6.924   6.405   8.112
52927SOL    HW160678   6.973   6.350   8.173
52927SOL    HW260679   6.917   6.353   8.032
52928SOL     OW60680   9.426   8.997   2.005
52928SOL    HW160681   9.380   8.921   1.971
52928SOL    HW260682   9.363   9.039   2.064
52929SOL     OW60683   4.798   3.396   3.889
52929SOL    HW160684   4.858   3.469   3.871
52929SOL    HW260685   4.747   3.387   3.809
52930SOL     OW60686   4.511  14.593   7.162
52930SOL    HW160687   4.431  14.569   7.209
52930SOL    HW260688   4.511  14.689   7.161
52931SOL     OW60689   4.661   6.488   1.776
52931SOL    HW160690   4.651   6.543   1.699
52931SOL    HW260691   4.753   6.464   1.777
52932SOL     OW60692   7.561  13.121   1.057
52932SOL    HW160693   7.639  13.134   1.111
52932SOL    HW260694   7.518  13.045   1.095
52933SOL     OW60695   4.504   9.128   8.138
52933SOL    HW160696   4.584   9.077   8.149
52933SOL    HW260697   4.483   9.120   8.045
52934SOL     OW60698   3.356   2.110   0.629
52934SOL    HW160699   3.264   2.126   0.648
52934SOL    HW260700   3.369   2.145   0.541
52935SOL     OW60701  11.100  13.597   8.845
52935SOL    HW160702  11.158  13.528   8.816
52935SOL    HW260703  11.142  13.678   8.816
52936SOL     OW60704   8.574  13.006   9.066
52936SOL    HW160705   8.544  13.072   9.129
52936SOL    HW260706   8.525  13.025   8.986
52937SOL     OW60707   5.257   6.193  14.299
52937SOL    HW160708   5.197   6.189  14.374
52937SOL    HW260709   5.344   6.194  14.338
52938SOL     OW60710  10.065   2.367   1.401
52938SOL    HW160711  10.109   2.304   1.343
52938SOL    HW260712  10.100   2.452   1.375
52939SOL     OW60713   8.354  10.288  11.847
52939SOL    HW160714   8.369  10.270  11.940
52939SOL    HW260715   8.280  10.348  11.846
52940SOL     OW60716   9.373   8.909  11.031
52940SOL    HW160717   9.328   8.839  10.985
52940SOL    HW260718   9.413   8.866  11.107
52941SOL     OW60719  10.969   7.683   8.410
52941SOL    HW160720  11.016   7.627   8.472
52941SOL    HW260721  11.008   7.769   8.421
52942SOL     OW60722   4.348   6.902   5.555
52942SOL    HW160723   4.362   6.890   5.649
52942SOL    HW260724   4.289   6.977   5.549
52943SOL     OW60725   3.882   6.430  10.284
52943SOL    HW160726   3.928   6.346  10.297
52943SOL    HW260727   3.825   6.437  10.361
52944SOL     OW60728  12.682   8.443  11.373
52944SOL    HW160729  12.755   8.495  11.408
52944SOL    HW260730  12.604   8.482  11.412
52945SOL     OW60731   1.800   2.031  12.510
52945SOL    HW160732   1.880   2.080  12.527
52945SOL    HW260733   1.737   2.063  12.576
52946SOL     OW60734  11.875   2.771   4.962
52946SOL    HW160735  11.831   2.776   4.877
52946SOL    HW260736  11.808   2.739   5.022
52947SOL     OW60737   9.177   5.099   9.665
52947SOL    HW160738   9.213   5.069   9.582
52947SOL    HW260739   9.131   5.181   9.644
52948SOL     OW60740  10.154   5.482  13.715
52948SOL    HW160741  10.200   5.564  13.734
52948SOL    HW260742  10.140   5.484  13.621
52949SOL     OW60743  11.996   1.078   1.680
52949SOL    HW160744  11.993   1.168   1.713
52949SOL    HW260745  12.003   1.087   1.585
52950SOL     OW60746  14.114  11.602   3.722
52950SOL    HW160747  14.104  11.509   3.740
52950SOL    HW260748  14.118  11.608   3.627
52951SOL     OW60749  12.240   6.343   9.499
52951SOL    HW160750  12.146   6.334   9.486
52951SOL    HW260751  12.266   6.266   9.549
52952SOL     OW60752   3.774  11.716   3.562
52952SOL    HW160753   3.828  11.637   3.562
52952SOL    HW260754   3.830  11.783   3.523
52953SOL     OW60755  11.928   0.965   2.124
52953SOL    HW160756  11.884   1.014   2.055
52953SOL    HW260757  11.995   1.025   2.158
52954SOL     OW60758  13.445   6.381  13.683
52954SOL    HW160759  13.447   6.444  13.611
52954SOL    HW260760  13.534   6.383  13.719
52955SOL     OW60761  14.556   7.457   2.122
52955SOL    HW160762  14.482   7.472   2.181
52955SOL    HW260763  14.517   7.449   2.035
52956SOL     OW60764   6.746  14.052   6.593
52956SOL    HW160765   6.655  14.063   6.563
52956SOL    HW260766   6.745  13.969   6.641
52957SOL     OW60767  11.033   9.604   4.084
52957SOL    HW160768  10.973   9.553   4.029
52957SOL    HW260769  11.117   9.559   4.077
52958SOL     OW60770   2.665   6.497  13.376
52958SOL    HW160771   2.573   6.512  13.397
52958SOL    HW260772   2.684   6.561  13.307
52959SOL     OW60773   0.854   9.764   1.694
52959SOL    HW160774   0.795   9.823   1.647
52959SOL    HW260775   0.938   9.810   1.694
52960SOL     OW60776   7.801   5.132   2.211
52960SOL    HW160777   7.853   5.074   2.156
52960SOL    HW260778   7.714   5.130   2.172
52961SOL     OW60779   1.341   4.669   7.119
52961SOL    HW160780   1.397   4.623   7.182
52961SOL    HW260781   1.314   4.749   7.164
52962SOL     OW60782  14.419   1.373  14.607
52962SOL    HW160783  14.453   1.398  14.693
52962SOL    HW260784  14.497   1.354  14.555
52963SOL     OW60785   1.429   0.817   6.625
52963SOL    HW160786   1.413   0.756   6.697
52963SOL    HW260787   1.478   0.889   6.663
52964SOL     OW60788   7.150  11.495  13.720
52964SOL    HW160789   7.173  11.588  13.723
52964SOL    HW260790   7.060  11.493  13.688
52965SOL     OW60791  11.527  14.489   1.942
52965SOL    HW160792  11.466  14.560   1.962
52965SOL    HW260793  11.599  14.532   1.897
52966SOL     OW60794  10.143   0.557   3.352
52966SOL    HW160795  10.070   0.614   3.377
52966SOL    HW260796  10.189   0.605   3.283
52967SOL     OW60797   8.448   8.842   0.574
52967SOL    HW160798   8.400   8.866   0.653
52967SOL    HW260799   8.430   8.748   0.562
52968SOL     OW60800   3.161   7.313   3.771
52968SOL    HW160801   3.097   7.306   3.842
52968SOL    HW260802   3.224   7.243   3.788
52969SOL     OW60803   2.259   6.393   9.393
52969SOL    HW160804   2.265   6.485   9.369
52969SOL    HW260805   2.165   6.378   9.407
52970SOL     OW60806   3.053  13.707   4.474
52970SOL    HW160807   2.963  13.699   4.505
52970SOL    HW260808   3.074  13.620   4.440
52971SOL     OW60809  12.702   8.656   8.749
52971SOL    HW160810  12.714   8.708   8.670
52971SOL    HW260811  12.772   8.591   8.746
52972SOL     OW60812   8.796   0.035   8.930
52972SOL    HW160813   8.873   0.011   8.879
52972SOL    HW260814   8.748  14.825   8.940
52973SOL     OW60815   5.239   2.230  10.632
52973SOL    HW160816   5.287   2.313  10.636
52973SOL    HW260817   5.276   2.185  10.556
52974SOL     OW60818  11.155   5.089   1.288
52974SOL    HW160819  11.061   5.097   1.276
52974SOL    HW260820  11.194   5.129   1.210
52975SOL     OW60821   1.212   7.653   4.407
52975SOL    HW160822   1.135   7.699   4.440
52975SOL    HW260823   1.198   7.644   4.313
52976SOL     OW60824   6.423   1.043  12.972
52976SOL    HW160825   6.337   1.067  13.007
52976SOL    HW260826   6.485   1.092  13.026
52977SOL     OW60827  12.442   5.366   9.271
52977SOL    HW160828  12.536   5.358   9.289
52977SOL    HW260829  12.435   5.437   9.208
52978SOL     OW60830   5.592  13.390  10.576
52978SOL    HW160831   5.643  13.459  10.532
52978SOL    HW260832   5.560  13.431  10.656
52979SOL     OW60833   6.289   8.732   2.088
52979SOL    HW160834   6.384   8.743   2.090
52979SOL    HW260835   6.271   8.695   2.001
52980SOL     OW60836   0.125   4.163   1.759
52980SOL    HW160837   0.206   4.154   1.708
52980SOL    HW260838   0.146   4.125   1.844
52981SOL     OW60839   3.604   8.080  14.286
52981SOL    HW160840   3.689   8.125  14.282
52981SOL    HW260841   3.601   8.028  14.206
52982SOL     OW60842   8.721   5.437   0.168
52982SOL    HW160843   8.749   5.346   0.156
52982SOL    HW260844   8.803   5.487   0.171
52983SOL     OW60845   4.984  13.073   3.591
52983SOL    HW160846   4.930  12.999   3.620
52983SOL    HW260847   4.921  13.135   3.555
52984SOL     OW60848   7.490  14.713  11.491
52984SOL    HW160849   7.529  14.686  11.407
52984SOL    HW260850   7.550  14.679  11.557
52985SOL     OW60851  12.579   2.915   1.131
52985SOL    HW160852  12.553   3.003   1.104
52985SOL    HW260853  12.578   2.864   1.050
52986SOL     OW60854   2.659  11.569   8.489
52986SOL    HW160855   2.643  11.625   8.565
52986SOL    HW260856   2.628  11.482   8.517
52987SOL     OW60857   1.866   3.488   0.946
52987SOL    HW160858   1.905   3.466   0.861
52987SOL    HW260859   1.806   3.415   0.964
52988SOL     OW60860   9.368   3.476   6.047
52988SOL    HW160861   9.286   3.433   6.072
52988SOL    HW260862   9.419   3.477   6.128
52989SOL     OW60863   9.324   1.777  14.280
52989SOL    HW160864   9.353   1.833  14.208
52989SOL    HW260865   9.262   1.831  14.329
52990SOL     OW60866  11.048  10.301  10.144
52990SOL    HW160867  11.088  10.374  10.193
52990SOL    HW260868  11.075  10.316  10.053
52991SOL     OW60869   1.894   2.926   5.902
52991SOL    HW160870   1.852   2.872   5.835
52991SOL    HW260871   1.868   2.885   5.985
52992SOL     OW60872   1.828  10.538   5.944
52992SOL    HW160873   1.826  10.535   6.040
52992SOL    HW260874   1.801  10.627   5.922
52993SOL     OW60875  13.102  12.801  10.552
52993SOL    HW160876  13.071  12.827  10.639
52993SOL    HW260877  13.165  12.869  10.528
52994SOL     OW60878   8.708   8.618   8.438
52994SOL    HW160879   8.703   8.535   8.391
52994SOL    HW260880   8.696   8.594   8.530
52995SOL     OW60881  14.237  14.272   6.723
52995SOL    HW160882  14.241  14.181   6.694
52995SOL    HW260883  14.272  14.270   6.812
52996SOL     OW60884   8.909  12.773   2.013
52996SOL    HW160885   8.880  12.743   1.927
52996SOL    HW260886   8.937  12.694   2.059
52997SOL     OW60887   9.008  11.143  12.992
52997SOL    HW160888   9.069  11.071  12.979
52997SOL    HW260889   9.062  11.222  12.987
52998SOL     OW60890   4.180  13.849   3.895
52998SOL    HW160891   4.235  13.787   3.942
52998SOL    HW260892   4.099  13.854   3.947
52999SOL     OW60893   8.456   0.895   8.688
52999SOL    HW160894   8.477   0.887   8.781
52999SOL    HW260895   8.362   0.879   8.684
53000SOL     OW60896   6.766   4.181  10.420
53000SOL    HW160897   6.731   4.190  10.331
53000SOL    HW260898   6.689   4.166  10.475
53001SOL     OW60899   5.438   7.424   2.580
53001SOL    HW160900   5.378   7.421   2.506
53001SOL    HW260901   5.406   7.356   2.639
53002SOL     OW60902  12.473  14.736   8.216
53002SOL    HW160903  12.545  14.796   8.234
53002SOL    HW260904  12.416  14.783   8.155
53003SOL     OW60905   3.961  14.094  12.809
53003SOL    HW160906   3.988  14.090  12.901
53003SOL    HW260907   3.919  14.179  12.800
53004SOL     OW60908  11.594  11.719  13.596
53004SOL    HW160909  11.513  11.718  13.545
53004SOL    HW260910  11.664  11.727  13.531
53005SOL     OW60911  11.999   7.708   8.818
53005SOL    HW160912  12.013   7.651   8.743
53005SOL    HW260913  12.084   7.751   8.832
53006SOL     OW60914  11.718   3.917  11.660
53006SOL    HW160915  11.680   3.872  11.585
53006SOL    HW260916  11.695   4.009  11.648
53007SOL     OW60917   0.503   1.761  12.730
53007SOL    HW160918   0.436   1.777  12.663
53007SOL    HW260919   0.496   1.667  12.747
53008SOL     OW60920   8.611  12.968   9.529
53008SOL    HW160921   8.547  12.944   9.595
53008SOL    HW260922   8.677  12.899   9.534
53009SOL     OW60923   5.050  12.724   8.243
53009SOL    HW160924   5.029  12.631   8.254
53009SOL    HW260925   5.105  12.728   8.165
53010SOL     OW60926   6.636   5.720   4.300
53010SOL    HW160927   6.606   5.654   4.363
53010SOL    HW260928   6.715   5.757   4.341
53011SOL     OW60929   6.152  13.001  13.421
53011SOL    HW160930   6.119  13.086  13.451
53011SOL    HW260931   6.153  12.947  13.500
53012SOL     OW60932   6.311  13.714  10.138
53012SOL    HW160933   6.242  13.674  10.193
53012SOL    HW260934   6.305  13.808  10.157
53013SOL     OW60935   1.553   6.701   2.423
53013SOL    HW160936   1.476   6.689   2.368
53013SOL    HW260937   1.557   6.622   2.477
53014SOL     OW60938   4.004  10.573   8.980
53014SOL    HW160939   3.932  10.545   9.038
53014SOL    HW260940   4.031  10.493   8.936
53015SOL     OW60941   8.666   8.684   7.479
53015SOL    HW160942   8.614   8.612   7.443
53015SOL    HW260943   8.605   8.756   7.488
53016SOL     OW60944   6.300   1.703  13.500
53016SOL    HW160945   6.307   1.694  13.595
53016SOL    HW260946   6.367   1.767  13.476
53017SOL     OW60947   0.612   9.858   3.547
53017SOL    HW160948   0.543   9.824   3.604
53017SOL    HW260949   0.693   9.819   3.580
53018SOL     OW60950   0.815  11.952   6.596
53018SOL    HW160951   0.794  11.917   6.510
53018SOL    HW260952   0.903  11.920   6.615
53019SOL     OW60953   5.554  12.866   2.801
53019SOL    HW160954   5.486  12.803   2.778
53019SOL    HW260955   5.507  12.947   2.820
53020SOL     OW60956   7.977   6.086  11.633
53020SOL    HW160957   7.990   6.096  11.539
53020SOL    HW260958   8.055   6.039  11.663
53021SOL     OW60959   7.314   5.166   4.426
53021SOL    HW160960   7.236   5.152   4.372
53021SOL    HW260961   7.292   5.125   4.509
53022SOL     OW60962  13.510   4.488  13.870
53022SOL    HW160963  13.428   4.465  13.826
53022SOL    HW260964  13.561   4.534  13.803
53023SOL     OW60965  13.940   2.950  13.642
53023SOL    HW160966  13.984   2.871  13.609
53023SOL    HW260967  13.959   3.017  13.577
53024SOL     OW60968  13.636  11.139   2.733
53024SOL    HW160969  13.724  11.115   2.707
53024SOL    HW260970  13.593  11.167   2.652
53025SOL     OW60971  14.115   7.248  14.631
53025SOL    HW160972  14.159   7.330  14.609
53025SOL    HW260973  14.185   7.189  14.658
53026SOL     OW60974   1.975   3.823   7.703
53026SOL    HW160975   1.935   3.907   7.728
53026SOL    HW260976   1.908   3.758   7.721
53027SOL     OW60977  11.514   6.600  12.464
53027SOL    HW160978  11.574   6.622  12.536
53027SOL    HW260979  11.429   6.633  12.494
53028SOL     OW60980   5.956  10.209   0.251
53028SOL    HW160981   5.926  10.133   0.202
53028SOL    HW260982   6.038  10.181   0.291
53029SOL     OW60983   1.892   8.792   4.226
53029SOL    HW160984   1.842   8.861   4.182
53029SOL    HW260985   1.931   8.835   4.302
53030SOL     OW60986   6.556   5.533  14.413
53030SOL    HW160987   6.466   5.543  14.381
53030SOL    HW260988   6.548   5.537  14.508
53031SOL     OW60989   2.601   0.266   7.113
53031SOL    HW160990   2.641   0.193   7.159
53031SOL    HW260991   2.650   0.343   7.142
53032SOL     OW60992   2.168   5.722  10.542
53032SOL    HW160993   2.244   5.682  10.585
53032SOL    HW260994   2.159   5.807  10.584
53033SOL     OW60995   4.309   5.619  13.508
53033SOL    HW160996   4.264   5.539  13.533
53033SOL    HW260997   4.275   5.640  13.421
53034SOL     OW60998   3.145  10.730  12.028
53034SOL    HW160999   3.189  10.677  11.961
53034SOL    HW261000   3.203  10.724  12.104
53035SOL     OW61001   6.007  14.849  11.213
53035SOL    HW161002   5.921  14.809  11.198
53035SOL    HW261003   6.060  14.820  11.139
53036SOL     OW61004   9.907  14.652  13.216
53036SOL    HW161005   9.881  14.578  13.271
53036SOL    HW261006   9.928  14.722  13.277
53037SOL     OW61007   0.194  10.060  12.116
53037SOL    HW161008   0.132  10.116  12.162
53037SOL    HW261009   0.272  10.060  12.172
53038SOL     OW61010   3.721  13.118   1.960
53038SOL    HW161011   3.688  13.073   1.882
53038SOL    HW261012   3.782  13.183   1.926
53039SOL     OW61013  10.738  12.006   4.880
53039SOL    HW161014  10.809  11.945   4.857
53039SOL    HW261015  10.678  12.002   4.805
53040SOL     OW61016  10.954   4.500  12.684
53040SOL    HW161017  10.890   4.547  12.738
53040SOL    HW261018  10.952   4.410  12.717
53041SOL     OW61019   4.015  14.625  12.460
53041SOL    HW161020   4.012  14.639  12.555
53041SOL    HW261021   3.953  14.554  12.444
53042SOL     OW61022   5.143   9.753   4.600
53042SOL    HW161023   5.202   9.713   4.536
53042SOL    HW261024   5.058   9.713   4.581
53043SOL     OW61025   3.651   7.090   3.399
53043SOL    HW161026   3.746   7.094   3.408
53043SOL    HW261027   3.630   7.157   3.334
53044SOL     OW61028   2.779  13.548   7.176
53044SOL    HW161029   2.792  13.602   7.254
53044SOL    HW261030   2.726  13.475   7.206
53045SOL     OW61031   7.160   8.666   7.916
53045SOL    HW161032   7.144   8.586   7.967
53045SOL    HW261033   7.211   8.637   7.841
53046SOL     OW61034  13.504   8.931   6.186
53046SOL    HW161035  13.470   8.947   6.098
53046SOL    HW261036  13.545   8.844   6.181
53047SOL     OW61037  12.473  14.813   8.988
53047SOL    HW161038  12.430  14.830   9.072
53047SOL    HW261039  12.548   0.000   8.986
53048SOL     OW61040   7.680   2.769   8.647
53048SOL    HW161041   7.719   2.740   8.565
53048SOL    HW261042   7.663   2.689   8.695
53049SOL     OW61043  14.793  10.698   6.475
53049SOL    HW161044  14.729  10.767   6.490
53049SOL    HW261045   0.006  10.739   6.495
53050SOL     OW61046   1.039   4.622   6.778
53050SOL    HW161047   1.088   4.662   6.707
53050SOL    HW261048   0.978   4.562   6.734
53051SOL     OW61049   2.044   3.028   2.156
53051SOL    HW161050   2.076   3.117   2.169
53051SOL    HW261051   1.953   3.039   2.126
53052SOL     OW61052   8.281   2.382   0.966
53052SOL    HW161053   8.281   2.461   0.912
53052SOL    HW261054   8.372   2.356   0.971
53053SOL     OW61055   8.780  11.927   0.674
53053SOL    HW161056   8.741  11.898   0.592
53053SOL    HW261057   8.850  11.987   0.649
53054SOL     OW61058   6.767   4.838   2.115
53054SOL    HW161059   6.760   4.807   2.025
53054SOL    HW261060   6.693   4.797   2.160
53055SOL     OW61061  14.522  10.441  13.653
53055SOL    HW161062  14.591  10.378  13.676
53055SOL    HW261063  14.467  10.395  13.589
53056SOL     OW61064  14.134  10.031   9.679
53056SOL    HW161065  14.125  10.088   9.756
53056SOL    HW261066  14.227  10.035   9.656
53057SOL     OW61067   8.370   1.042   7.796
53057SOL    HW161068   8.396   1.019   7.707
53057SOL    HW261069   8.307   1.113   7.784
53058SOL     OW61070   6.723  13.227   9.159
53058SOL    HW161071   6.796  13.192   9.106
53058SOL    HW261072   6.703  13.157   9.221
53059SOL     OW61073   5.929   8.432   1.638
53059SOL    HW161074   5.913   8.491   1.565
53059SOL    HW261075   5.853   8.444   1.696
53060SOL     OW61076   8.286   9.652   1.467
53060SOL    HW161077   8.246   9.695   1.542
53060SOL    HW261078   8.340   9.720   1.426
53061SOL     OW61079   9.505   7.046   6.691
53061SOL    HW161080   9.470   7.066   6.605
53061SOL    HW261081   9.488   7.125   6.743
53062SOL     OW61082   3.324   1.970  12.493
53062SOL    HW161083   3.403   2.018  12.518
53062SOL    HW261084   3.345   1.931  12.409
53063SOL     OW61085   0.704  12.347  11.113
53063SOL    HW161086   0.639  12.398  11.161
53063SOL    HW261087   0.655  12.274  11.075
53064SOL     OW61088   4.119  12.346  13.147
53064SOL    HW161089   4.056  12.417  13.148
53064SOL    HW261090   4.204  12.389  13.139
53065SOL     OW61091  12.061   7.937   6.850
53065SOL    HW161092  12.050   7.920   6.944
53065SOL    HW261093  12.027   7.858   6.808
53066SOL     OW61094  10.701   9.240   3.131
53066SOL    HW161095  10.727   9.328   3.159
53066SOL    HW261096  10.784   9.195   3.114
53067SOL     OW61097   0.092   6.381   0.287
53067SOL    HW161098   0.183   6.353   0.285
53067SOL    HW261099   0.090   6.462   0.237
53068SOL     OW61100   3.403   1.765  11.044
53068SOL    HW161101   3.489   1.780  11.006
53068SOL    HW261102   3.390   1.671  11.039
53069SOL     OW61103   6.592   6.976   7.719
53069SOL    HW161104   6.550   6.987   7.804
53069SOL    HW261105   6.558   6.893   7.686
53070SOL     OW61106   9.061   3.814  10.909
53070SOL    HW161107   9.039   3.808  11.002
53070SOL    HW261108   9.142   3.764  10.900
53071SOL     OW61109  12.949   7.348  12.062
53071SOL    HW161110  13.020   7.389  12.012
53071SOL    HW261111  12.902   7.421  12.101
53072SOL     OW61112   3.642   1.419   8.892
53072SOL    HW161113   3.582   1.400   8.964
53072SOL    HW261114   3.651   1.515   8.893
53073SOL     OW61115   2.880   1.196  10.662
53073SOL    HW161116   2.914   1.273  10.617
53073SOL    HW261117   2.794   1.181  10.624
53074SOL     OW61118   8.047  12.615   5.395
53074SOL    HW161119   8.116  12.567   5.441
53074SOL    HW261120   8.003  12.665   5.463
53075SOL     OW61121   3.502  13.147  14.385
53075SOL    HW161122   3.441  13.219  14.368
53075SOL    HW261123   3.588  13.182  14.361
53076SOL     OW61124   1.626   4.814   1.134
53076SOL    HW161125   1.606   4.740   1.077
53076SOL    HW261126   1.609   4.781   1.223
53077SOL     OW61127   0.569   5.694   2.518
53077SOL    HW161128   0.478   5.700   2.488
53077SOL    HW261129   0.611   5.773   2.486
53078SOL     OW61130  13.711   1.113  13.307
53078SOL    HW161131  13.746   1.201  13.292
53078SOL    HW261132  13.626   1.113  13.263
53079SOL     OW61133   0.925   2.160   6.901
53079SOL    HW161134   1.017   2.133   6.900
53079SOL    HW261135   0.916   2.216   6.824
53080SOL     OW61136  10.042  13.388   5.661
53080SOL    HW161137   9.978  13.420   5.725
53080SOL    HW261138  10.039  13.293   5.670
53081SOL     OW61139  13.365   2.090  12.267
53081SOL    HW161140  13.311   2.063  12.192
53081SOL    HW261141  13.314   2.063  12.343
53082SOL     OW61142   7.109  14.472  13.202
53082SOL    HW161143   7.141  14.515  13.123
53082SOL    HW261144   7.016  14.495  13.207
53083SOL     OW61145   4.771  11.429   4.326
53083SOL    HW161146   4.691  11.377   4.322
53083SOL    HW261147   4.743  11.514   4.360
53084SOL     OW61148   2.639   2.141   2.465
53084SOL    HW161149   2.638   2.189   2.548
53084SOL    HW261150   2.547   2.125   2.446
53085SOL     OW61151   4.389  11.642   5.855
53085SOL    HW161152   4.455  11.614   5.791
53085SOL    HW261153   4.340  11.562   5.874
53086SOL     OW61154   9.400   5.827   6.071
53086SOL    HW161155   9.312   5.856   6.095
53086SOL    HW261156   9.459   5.887   6.118
53087SOL     OW61157  10.840  13.840   7.027
53087SOL    HW161158  10.891  13.920   7.035
53087SOL    HW261159  10.783  13.840   7.104
53088SOL     OW61160  11.171   8.922   2.780
53088SOL    HW161161  11.104   8.990   2.775
53088SOL    HW261162  11.124   8.840   2.771
53089SOL     OW61163   7.202   4.874   8.232
53089SOL    HW161164   7.116   4.837   8.210
53089SOL    HW261165   7.186   4.926   8.311
53090SOL     OW61166  10.092   0.956   4.089
53090SOL    HW161167  10.024   1.012   4.127
53090SOL    HW261168  10.105   0.991   4.001
53091SOL     OW61169   5.442   5.797  14.028
53091SOL    HW161170   5.479   5.870  13.979
53091SOL    HW261171   5.366   5.834  14.072
53092SOL     OW61172   9.035   2.505   2.351
53092SOL    HW161173   8.976   2.581   2.356
53092SOL    HW261174   9.080   2.516   2.267
53093SOL     OW61175  12.304  10.656   3.629
53093SOL    HW161176  12.368  10.599   3.587
53093SOL    HW261177  12.269  10.604   3.701
53094SOL     OW61178  10.128  13.755   5.703
53094SOL    HW161179  10.058  13.715   5.754
53094SOL    HW261180  10.146  13.692   5.633
53095SOL     OW61181   8.587   5.790   0.473
53095SOL    HW161182   8.589   5.885   0.482
53095SOL    HW261183   8.579   5.774   0.379
53096SOL     OW61184  12.012  14.156   6.633
53096SOL    HW161185  11.926  14.115   6.630
53096SOL    HW261186  12.049  14.140   6.546
53097SOL     OW61187  14.245   9.314   8.218
53097SOL    HW161188  14.248   9.399   8.262
53097SOL    HW261189  14.323   9.269   8.248
53098SOL     OW61190   1.939  13.851   7.204
53098SOL    HW161191   1.865  13.796   7.232
53098SOL    HW261192   2.011  13.822   7.260
53099SOL     OW61193  10.968  13.811   6.776
53099SOL    HW161194  10.907  13.851   6.838
53099SOL    HW261195  10.967  13.870   6.701
53100SOL     OW61196  10.806  10.530  14.317
53100SOL    HW161197  10.802  10.437  14.342
53100SOL    HW261198  10.758  10.575  14.387
53101SOL     OW61199   0.914   1.503   8.122
53101SOL    HW161200   0.985   1.559   8.154
53101SOL    HW261201   0.916   1.515   8.027
53102SOL     OW61202   8.444   3.754  12.238
53102SOL    HW161203   8.512   3.687  12.235
53102SOL    HW261204   8.441   3.780  12.330
53103SOL     OW61205   6.224   3.859  13.282
53103SOL    HW161206   6.287   3.911  13.331
53103SOL    HW261207   6.261   3.771  13.282
53104SOL     OW61208  13.534   9.073  14.482
53104SOL    HW161209  13.594   9.017  14.432
53104SOL    HW261210  13.476   9.012  14.527
53105SOL     OW61211   3.093   9.081  11.674
53105SOL    HW161212   3.185   9.062  11.692
53105SOL    HW261213   3.077   9.042  11.588
53106SOL     OW61214   7.286   3.544   6.499
53106SOL    HW161215   7.376   3.574   6.482
53106SOL    HW261216   7.288   3.451   6.478
53107SOL     OW61217  10.068  14.680  14.660
53107SOL    HW161218  10.086  14.675  14.753
53107SOL    HW261219  10.001  14.613  14.645
53108SOL     OW61220  11.905   3.482   5.182
53108SOL    HW161221  11.812   3.501   5.168
53108SOL    HW261222  11.916   3.481   5.277
53109SOL     OW61223  10.358   8.326   0.454
53109SOL    HW161224  10.412   8.385   0.402
53109SOL    HW261225  10.271   8.330   0.412
53110SOL     OW61226  11.033   2.851   0.935
53110SOL    HW161227  11.056   2.884   0.848
53110SOL    HW261228  11.099   2.784   0.953
53111SOL     OW61229  13.567   0.470  12.916
53111SOL    HW161230  13.639   0.410  12.932
53111SOL    HW261231  13.506   0.454  12.989
53112SOL     OW61232   6.247   1.480  10.737
53112SOL    HW161233   6.332   1.471  10.781
53112SOL    HW261234   6.187   1.508  10.806
53113SOL     OW61235   5.692   1.974   1.694
53113SOL    HW161236   5.718   1.920   1.768
53113SOL    HW261237   5.745   2.054   1.702
53114SOL     OW61238  11.053   4.674   0.097
53114SOL    HW161239  11.143   4.645   0.109
53114SOL    HW261240  11.009   4.650   0.179
53115SOL     OW61241   5.053   8.043  13.357
53115SOL    HW161242   4.976   8.030  13.412
53115SOL    HW261243   5.121   7.989  13.397
53116SOL     OW61244  12.747   6.154   9.274
53116SOL    HW161245  12.795   6.082   9.233
53116SOL    HW261246  12.776   6.232   9.227
53117SOL     OW61247   2.469   1.071   8.334
53117SOL    HW161248   2.556   1.036   8.317
53117SOL    HW261249   2.483   1.145   8.393
53118SOL     OW61250  13.401   6.621   7.063
53118SOL    HW161251  13.397   6.692   6.998
53118SOL    HW261252  13.340   6.648   7.131
53119SOL     OW61253   0.203  12.882   0.749
53119SOL    HW161254   0.164  12.802   0.785
53119SOL    HW261255   0.276  12.852   0.696
53120SOL     OW61256   1.778   3.145   0.268
53120SOL    HW161257   1.851   3.092   0.236
53120SOL    HW261258   1.703   3.085   0.268
53121SOL     OW61259   0.574   8.904   4.167
53121SOL    HW161260   0.523   8.897   4.248
53121SOL    HW261261   0.599   8.813   4.147
53122SOL     OW61262   7.146   2.023  12.728
53122SOL    HW161263   7.221   1.974  12.759
53122SOL    HW261264   7.171   2.115  12.737
53123SOL     OW61265   8.219   4.249  13.342
53123SOL    HW161266   8.245   4.245  13.434
53123SOL    HW261267   8.262   4.327  13.308
53124SOL     OW61268   0.097  10.047  14.262
53124SOL    HW161269   0.103  10.023  14.170
53124SOL    HW261270   0.016  10.005  14.293
53125SOL     OW61271  11.704  11.504   9.647
53125SOL    HW161272  11.642  11.465   9.586
53125SOL    HW261273  11.766  11.434   9.665
53126SOL     OW61274  14.580  11.577   3.589
53126SOL    HW161275  14.600  11.537   3.504
53126SOL    HW261276  14.510  11.640   3.570
53127SOL     OW61277   7.525   9.137  14.731
53127SOL    HW161278   7.527   9.045  14.758
53127SOL    HW261279   7.481   9.182  14.803
53128SOL     OW61280   4.570   3.248   1.084
53128SOL    HW161281   4.509   3.237   1.011
53128SOL    HW261282   4.587   3.159   1.115
53129SOL     OW61283   1.300   0.679   0.566
53129SOL    HW161284   1.388   0.678   0.529
53129SOL    HW261285   1.253   0.744   0.513
53130SOL     OW61286  11.605  13.805  11.757
53130SOL    HW161287  11.515  13.785  11.780
53130SOL    HW261288  11.639  13.855  11.831
53131SOL     OW61289  14.042   4.910   0.746
53131SOL    HW161290  14.060   4.820   0.772
53131SOL    HW261291  14.038   4.908   0.650
53132SOL     OW61292   0.085   5.448   6.605
53132SOL    HW161293   0.154   5.434   6.669
53132SOL    HW261294   0.089   5.371   6.548
53133SOL     OW61295  12.863   4.288  14.756
53133SOL    HW161296  12.948   4.324  14.730
53133SOL    HW261297  12.857   4.305  14.850
53134SOL     OW61298   2.532   2.391   0.151
53134SOL    HW161299   2.572   2.308   0.175
53134SOL    HW261300   2.536   2.444   0.230
53135SOL     OW61301  14.009  11.456   7.596
53135SOL    HW161302  14.027  11.476   7.687
53135SOL    HW261303  14.094  11.460   7.553
53136SOL     OW61304  12.526  13.096   8.929
53136SOL    HW161305  12.566  13.084   9.016
53136SOL    HW261306  12.563  13.025   8.876
53137SOL     OW61307   6.940  14.524  10.318
53137SOL    HW161308   6.981  14.556  10.238
53137SOL    HW261309   6.881  14.454  10.288
53138SOL     OW61310   2.054   7.401  13.373
53138SOL    HW161311   1.996   7.470  13.407
53138SOL    HW261312   2.040   7.404  13.278
53139SOL     OW61313  13.359   8.822   3.514
53139SOL    HW161314  13.289   8.844   3.452
53139SOL    HW261315  13.346   8.882   3.587
53140SOL     OW61316   8.065  12.169   0.229
53140SOL    HW161317   8.043  12.077   0.246
53140SOL    HW261318   8.076  12.174   0.134
53141SOL     OW61319   1.540   3.780  11.662
53141SOL    HW161320   1.585   3.735  11.733
53141SOL    HW261321   1.463   3.725  11.645
53142SOL     OW61322   1.402  13.433   6.734
53142SOL    HW161323   1.414  13.475   6.649
53142SOL    HW261324   1.392  13.340   6.713
53143SOL     OW61325  14.707   6.945  11.556
53143SOL    HW161326  14.640   7.003  11.592
53143SOL    HW261327  14.728   6.886  11.629
53144SOL     OW61328  13.995   4.664   1.034
53144SOL    HW161329  14.064   4.729   1.035
53144SOL    HW261330  13.977   4.645   1.126
53145SOL     OW61331  11.345   9.090  12.741
53145SOL    HW161332  11.295   9.009  12.738
53145SOL    HW261333  11.286   9.154  12.781
53146SOL     OW61334   8.110  13.413   3.201
53146SOL    HW161335   8.106  13.492   3.256
53146SOL    HW261336   8.036  13.421   3.142
53147SOL     OW61337  12.751  10.143  11.936
53147SOL    HW161338  12.777  10.180  12.021
53147SOL    HW261339  12.679  10.199  11.907
53148SOL     OW61340  13.627  11.434  10.245
53148SOL    HW161341  13.560  11.419  10.311
53148SOL    HW261342  13.681  11.355  10.247
53149SOL     OW61343  14.059  10.145  12.496
53149SOL    HW161344  14.070  10.088  12.420
53149SOL    HW261345  14.092  10.230  12.468
53150SOL     OW61346   1.370   5.078   1.347
53150SOL    HW161347   1.382   5.099   1.254
53150SOL    HW261348   1.373   4.982   1.351
53151SOL     OW61349   4.032   2.279  10.046
53151SOL    HW161350   3.990   2.208   9.998
53151SOL    HW261351   4.064   2.238  10.127
53152SOL     OW61352   8.696  11.022   1.764
53152SOL    HW161353   8.644  11.102   1.766
53152SOL    HW261354   8.679  10.985   1.677
53153SOL     OW61355   8.994   0.644  11.116
53153SOL    HW161356   8.963   0.717  11.063
53153SOL    HW261357   9.086   0.634  11.092
53154SOL     OW61358  11.299   4.014  10.086
53154SOL    HW161359  11.269   4.036   9.998
53154SOL    HW261360  11.218   3.993  10.134
53155SOL     OW61361   8.346  11.955   4.335
53155SOL    HW161362   8.295  12.016   4.388
53155SOL    HW261363   8.288  11.934   4.261
53156SOL     OW61364   6.966   6.686  12.967
53156SOL    HW161365   6.984   6.611  12.910
53156SOL    HW261366   6.890   6.729  12.926
53157SOL     OW61367   3.251  10.219   9.750
53157SOL    HW161368   3.189  10.202   9.678
53157SOL    HW261369   3.197  10.249   9.822
53158SOL     OW61370  12.914   6.715   6.261
53158SOL    HW161371  12.914   6.642   6.199
53158SOL    HW261372  12.856   6.780   6.221
53159SOL     OW61373   9.753  14.382  11.181
53159SOL    HW161374   9.662  14.368  11.156
53159SOL    HW261375   9.804  14.346  11.108
53160SOL     OW61376  10.790   0.917   3.744
53160SOL    HW161377  10.832   0.868   3.673
53160SOL    HW261378  10.791   1.008   3.713
53161SOL     OW61379   1.494   8.802   2.819
53161SOL    HW161380   1.440   8.822   2.742
53161SOL    HW261381   1.551   8.878   2.829
53162SOL     OW61382   4.317  12.660  12.684
53162SOL    HW161383   4.270  12.639  12.603
53162SOL    HW261384   4.404  12.622  12.672
53163SOL     OW61385   8.114   4.435   6.960
53163SOL    HW161386   8.133   4.343   6.940
53163SOL    HW261387   8.168   4.484   6.898
53164SOL     OW61388   7.840   0.845   2.966
53164SOL    HW161389   7.820   0.754   2.986
53164SOL    HW261390   7.783   0.866   2.892
53165SOL     OW61391   7.340  14.015   3.731
53165SOL    HW161392   7.362  13.961   3.807
53165SOL    HW261393   7.326  14.102   3.766
53166SOL     OW61394  10.147   9.746   9.655
53166SOL    HW161395  10.188   9.674   9.607
53166SOL    HW261396  10.127   9.708   9.741
53167SOL     OW61397   5.538  10.754   6.144
53167SOL    HW161398   5.533  10.696   6.220
53167SOL    HW261399   5.631  10.770   6.131
53168SOL     OW61400   0.061   4.244   1.288
53168SOL    HW161401   0.107   4.175   1.337
53168SOL    HW261402   0.051   4.209   1.200
53169SOL     OW61403   3.509   8.285   9.489
53169SOL    HW161404   3.595   8.247   9.506
53169SOL    HW261405   3.519   8.331   9.406
53170SOL     OW61406   2.298   2.102   4.118
53170SOL    HW161407   2.354   2.179   4.124
53170SOL    HW261408   2.249   2.101   4.200
53171SOL     OW61409   5.735   4.450   3.245
53171SOL    HW161410   5.656   4.489   3.283
53171SOL    HW261411   5.746   4.367   3.291
53172SOL     OW61412   2.546   2.777   5.149
53172SOL    HW161413   2.637   2.780   5.177
53172SOL    HW261414   2.528   2.684   5.136
53173SOL     OW61415   2.902   7.464   9.010
53173SOL    HW161416   2.863   7.390   9.057
53173SOL    HW261417   2.872   7.452   8.920
53174SOL     OW61418   8.929   0.974  14.549
53174SOL    HW161419   8.957   0.887  14.521
53174SOL    HW261420   8.930   0.970  14.645
53175SOL     OW61421  14.002  14.327   8.983
53175SOL    HW161422  13.994  14.422   8.996
53175SOL    HW261423  14.083  14.303   9.028
53176SOL     OW61424   7.929  13.719   7.913
53176SOL    HW161425   7.917  13.727   7.818
53176SOL    HW261426   7.844  13.688   7.945
53177SOL     OW61427   7.513   7.547   1.334
53177SOL    HW161428   7.433   7.514   1.376
53177SOL    HW261429   7.486   7.570   1.245
53178SOL     OW61430   0.633   3.469   7.322
53178SOL    HW161431   0.699   3.481   7.254
53178SOL    HW261432   0.553   3.505   7.283
53179SOL     OW61433   4.478  10.796  13.848
53179SOL    HW161434   4.570  10.825  13.845
53179SOL    HW261435   4.434  10.864  13.900
53180SOL     OW61436   3.113   5.821  11.081
53180SOL    HW161437   3.104   5.734  11.122
53180SOL    HW261438   3.178   5.807  11.012
53181SOL     OW61439   0.579  13.882   7.397
53181SOL    HW161440   0.496  13.930   7.390
53181SOL    HW261441   0.553  13.790   7.393
53182SOL     OW61442  14.046   0.364   0.718
53182SOL    HW161443  13.952   0.357   0.704
53182SOL    HW261444  14.066   0.298   0.784
53183SOL     OW61445   5.190   7.878   8.752
53183SOL    HW161446   5.160   7.788   8.765
53183SOL    HW261447   5.241   7.899   8.830
53184SOL     OW61448   2.514   4.643   3.702
53184SOL    HW161449   2.595   4.693   3.712
53184SOL    HW261450   2.532   4.560   3.746
53185SOL     OW61451   2.365  10.165   2.972
53185SOL    HW161452   2.328  10.106   3.038
53185SOL    HW261453   2.435  10.212   3.018
53186SOL     OW61454   6.562  10.140   1.816
53186SOL    HW161455   6.606  10.056   1.799
53186SOL    HW261456   6.590  10.165   1.904
53187SOL     OW61457  12.807   0.174   0.607
53187SOL    HW161458  12.761   0.240   0.660
53187SOL    HW261459  12.816   0.099   0.664
53188SOL     OW61460   7.024  14.501   2.983
53188SOL    HW161461   6.986  14.582   3.016
53188SOL    HW261462   7.118  14.512   2.996
53189SOL     OW61463   9.290  10.049   3.103
53189SOL    HW161464   9.385  10.060   3.099
53189SOL    HW261465   9.267  10.069   3.194
53190SOL     OW61466  14.097   0.995   5.658
53190SOL    HW161467  14.111   1.071   5.601
53190SOL    HW261468  14.172   0.938   5.640
53191SOL     OW61469   8.839   2.107  13.462
53191SOL    HW161470   8.931   2.111  13.439
53191SOL    HW261471   8.828   2.024  13.508
53192SOL     OW61472   4.755   9.938   0.073
53192SOL    HW161473   4.845   9.965   0.055
53192SOL    HW261474   4.749   9.850   0.037
53193SOL     OW61475  12.726   3.183  12.144
53193SOL    HW161476  12.776   3.142  12.214
53193SOL    HW261477  12.742   3.277  12.156
53194SOL     OW61478  14.049  10.055   6.423
53194SOL    HW161479  14.099   9.979   6.394
53194SOL    HW261480  13.991  10.019   6.491
53195SOL     OW61481  12.813   5.310   4.910
53195SOL    HW161482  12.895   5.329   4.957
53195SOL    HW261483  12.752   5.282   4.979
53196SOL     OW61484  11.012  12.472  13.110
53196SOL    HW161485  10.977  12.431  13.189
53196SOL    HW261486  11.042  12.558  13.138
53197SOL     OW61487   5.120   4.007   6.493
53197SOL    HW161488   5.157   4.022   6.406
53197SOL    HW261489   5.196   4.006   6.552
53198SOL     OW61490   8.586  13.336  12.276
53198SOL    HW161491   8.523  13.283  12.228
53198SOL    HW261492   8.543  13.353  12.360
53199SOL     OW61493   0.494  12.657   6.822
53199SOL    HW161494   0.456  12.603   6.892
53199SOL    HW261495   0.422  12.714   6.794
53200SOL     OW61496   2.460  12.328   9.341
53200SOL    HW161497   2.407  12.383   9.399
53200SOL    HW261498   2.410  12.324   9.260
53201SOL     OW61499  11.770   5.660   9.753
53201SOL    HW161500  11.724   5.627   9.676
53201SOL    HW261501  11.709   5.645   9.825
53202SOL     OW61502   5.049  11.154  13.005
53202SOL    HW161503   5.090  11.095  13.067
53202SOL    HW261504   5.080  11.125  12.919
53203SOL     OW61505   3.664  10.630   8.942
53203SOL    HW161506   3.715  10.698   8.898
53203SOL    HW261507   3.727  10.584   8.997
53204SOL     OW61508   4.972   5.321   6.412
53204SOL    HW161509   4.877   5.334   6.412
53204SOL    HW261510   4.992   5.293   6.502
53205SOL     OW61511   2.365  12.837   1.140
53205SOL    HW161512   2.448  12.883   1.139
53205SOL    HW261513   2.337  12.840   1.232
53206SOL     OW61514  12.138  11.258   7.683
53206SOL    HW161515  12.221  11.213   7.667
53206SOL    HW261516  12.123  11.248   7.777
53207SOL     OW61517   9.238  12.228   7.417
53207SOL    HW161518   9.205  12.139   7.422
53207SOL    HW261519   9.303  12.226   7.347
53208SOL     OW61520   0.441   3.327  10.708
53208SOL    HW161521   0.440   3.421  10.727
53208SOL    HW261522   0.479   3.287  10.786
53209SOL     OW61523  12.302   0.076   3.623
53209SOL    HW161524  12.359   0.087   3.699
53209SOL    HW261525  12.233   0.017   3.653
53210SOL     OW61526  10.005   3.126  11.703
53210SOL    HW161527  10.011   3.090  11.792
53210SOL    HW261528  10.095   3.122  11.670
53211SOL     OW61529   5.011   5.114   7.403
53211SOL    HW161530   5.023   5.113   7.308
53211SOL    HW261531   4.936   5.055   7.418
53212SOL     OW61532   0.133  11.681  14.494
53212SOL    HW161533   0.054  11.655  14.541
53212SOL    HW261534   0.142  11.617  14.424
53213SOL     OW61535  10.717   8.983   8.782
53213SOL    HW161536  10.692   8.972   8.873
53213SOL    HW261537  10.640   9.023   8.741
53214SOL     OW61538   6.536  11.950  13.411
53214SOL    HW161539   6.602  12.017  13.431
53214SOL    HW261540   6.584  11.881  13.366
53215SOL     OW61541   2.767   1.493   3.339
53215SOL    HW161542   2.677   1.465   3.323
53215SOL    HW261543   2.799   1.519   3.252
53216SOL     OW61544   7.186   7.729  14.261
53216SOL    HW161545   7.213   7.657  14.205
53216SOL    HW261546   7.135   7.787  14.203
53217SOL     OW61547   7.843   7.034   4.640
53217SOL    HW161548   7.911   6.976   4.606
53217SOL    HW261549   7.776   7.036   4.572
53218SOL     OW61550   3.292   3.474  12.727
53218SOL    HW161551   3.313   3.501  12.637
53218SOL    HW261552   3.280   3.379  12.721
53219SOL     OW61553   0.623  11.338   2.257
53219SOL    HW161554   0.595  11.418   2.302
53219SOL    HW261555   0.614  11.269   2.322
53220SOL     OW61556  11.637  14.319  14.773
53220SOL    HW161557  11.585  14.318  14.693
53220SOL    HW261558  11.637  14.228  14.803
53221SOL     OW61559  14.124  14.219   9.822
53221SOL    HW161560  14.190  14.150   9.832
53221SOL    HW261561  14.156  14.291   9.877
53222SOL     OW61562   0.969   1.212   3.745
53222SOL    HW161563   0.889   1.258   3.720
53222SOL    HW261564   0.949   1.175   3.831
53223SOL     OW61565   3.613  11.168   8.342
53223SOL    HW161566   3.670  11.156   8.266
53223SOL    HW261567   3.525  11.145   8.311
53224SOL     OW61568   2.498  11.547   2.365
53224SOL    HW161569   2.435  11.570   2.297
53224SOL    HW261570   2.542  11.469   2.331
53225SOL     OW61571   4.285  13.398   0.141
53225SOL    HW161572   4.371  13.375   0.106
53225SOL    HW261573   4.232  13.319   0.131
53226SOL     OW61574   9.517   1.185   0.544
53226SOL    HW161575   9.474   1.254   0.494
53226SOL    HW261576   9.553   1.126   0.477
53227SOL     OW61577   2.002   5.260   0.659
53227SOL    HW161578   1.912   5.237   0.684
53227SOL    HW261579   1.991   5.321   0.587
53228SOL     OW61580   4.925  14.427  14.849
53228SOL    HW161581   5.011  14.392   0.002
53228SOL    HW261582   4.871  14.349  14.833
53229SOL     OW61583   8.084   6.028   7.790
53229SOL    HW161584   8.137   6.037   7.711
53229SOL    HW261585   8.138   6.066   7.859
53230SOL     OW61586  11.545   5.647  10.706
53230SOL    HW161587  11.563   5.561  10.743
53230SOL    HW261588  11.515   5.700  10.780
53231SOL     OW61589  12.763  13.682   3.173
53231SOL    HW161590  12.824  13.672   3.245
53231SOL    HW261591  12.797  13.756   3.122
53232SOL     OW61592   4.224   2.403   4.382
53232SOL    HW161593   4.248   2.377   4.293
53232SOL    HW261594   4.237   2.324   4.434
53233SOL     OW61595  13.115   6.292  10.100
53233SOL    HW161596  13.046   6.288  10.034
53233SOL    HW261597  13.162   6.209  10.091
53234SOL     OW61598   2.724   3.835   0.268
53234SOL    HW161599   2.731   3.815   0.175
53234SOL    HW261600   2.690   3.925   0.271
53235SOL     OW61601   4.854  11.449   7.827
53235SOL    HW161602   4.789  11.510   7.863
53235SOL    HW261603   4.926  11.504   7.798
53236SOL     OW61604   2.544  10.773  14.625
53236SOL    HW161605   2.474  10.831  14.595
53236SOL    HW261606   2.521  10.687  14.590
53237SOL     OW61607   4.504  12.481  11.223
53237SOL    HW161608   4.470  12.452  11.138
53237SOL    HW261609   4.573  12.417  11.244
53238SOL     OW61610   7.870  13.569  11.942
53238SOL    HW161611   7.915  13.596  11.862
53238SOL    HW261612   7.889  13.639  12.005
53239SOL     OW61613  14.080  14.557   2.178
53239SOL    HW161614  14.152  14.619   2.170
53239SOL    HW261615  14.114  14.488   2.235
53240SOL     OW61616  11.600   4.479   8.055
53240SOL    HW161617  11.610   4.574   8.052
53240SOL    HW261618  11.506   4.464   8.045
53241SOL     OW61619  12.282   0.431   8.471
53241SOL    HW161620  12.298   0.341   8.499
53241SOL    HW261621  12.341   0.445   8.397
53242SOL     OW61622   1.574   2.873   8.669
53242SOL    HW161623   1.590   2.939   8.602
53242SOL    HW261624   1.598   2.916   8.752
53243SOL     OW61625   9.420   9.462   0.425
53243SOL    HW161626   9.473   9.481   0.502
53243SOL    HW261627   9.470   9.495   0.351
53244SOL     OW61628   3.060  12.884  12.065
53244SOL    HW161629   3.033  12.923  12.148
53244SOL    HW261630   3.000  12.811  12.051
53245SOL     OW61631   3.770   6.658   9.184
53245SOL    HW161632   3.739   6.675   9.273
53245SOL    HW261633   3.859   6.692   9.183
53246SOL     OW61634   1.189   3.087   8.515
53246SOL    HW161635   1.176   3.182   8.514
53246SOL    HW261636   1.254   3.073   8.584
53247SOL     OW61637   8.943   2.651  10.471
53247SOL    HW161638   8.876   2.582  10.470
53247SOL    HW261639   9.023   2.608  10.442
53248SOL     OW61640   0.674   8.248  11.417
53248SOL    HW161641   0.769   8.253  11.405
53248SOL    HW261642   0.641   8.332  11.387
53249SOL     OW61643   0.307   7.562  13.131
53249SOL    HW161644   0.244   7.603  13.189
53249SOL    HW261645   0.382   7.622  13.130
53250SOL     OW61646   5.776   7.953   1.290
53250SOL    HW161647   5.708   7.909   1.341
53250SOL    HW261648   5.855   7.945   1.342
53251SOL     OW61649   3.621   9.135   0.685
53251SOL    HW161650   3.597   9.094   0.601
53251SOL    HW261651   3.655   9.221   0.660
53252SOL     OW61652   3.801  13.265  13.433
53252SOL    HW161653   3.718  13.216  13.433
53252SOL    HW261654   3.837  13.249  13.520
53253SOL     OW61655   8.591   4.370  13.410
53253SOL    HW161656   8.550   4.284  13.413
53253SOL    HW261657   8.638   4.378  13.493
53254SOL     OW61658  12.951  13.707   3.457
53254SOL    HW161659  12.864  13.678   3.483
53254SOL    HW261660  13.011  13.653   3.508
53255SOL     OW61661  14.451   8.553  14.437
53255SOL    HW161662  14.461   8.606  14.359
53255SOL    HW261663  14.520   8.583  14.496
53256SOL     OW61664  14.044   0.967   4.584
53256SOL    HW161665  13.951   0.965   4.607
53256SOL    HW261666  14.088   0.931   4.660
53257SOL     OW61667   4.801   5.263   5.534
53257SOL    HW161668   4.892   5.261   5.566
53257SOL    HW261669   4.808   5.239   5.441
53258SOL     OW61670   6.056   9.011   9.409
53258SOL    HW161671   6.142   9.043   9.381
53258SOL    HW261672   5.994   9.047   9.346
53259SOL     OW61673   0.264  13.236   9.738
53259SOL    HW161674   0.187  13.186   9.709
53259SOL    HW261675   0.288  13.289   9.661
53260SOL     OW61676   9.864   2.058  14.130
53260SOL    HW161677   9.907   2.098  14.205
53260SOL    HW261678   9.877   2.121  14.059
53261SOL     OW61679  10.942   4.221   8.160
53261SOL    HW161680  10.889   4.142   8.170
53261SOL    HW261681  11.005   4.217   8.232
53262SOL     OW61682   2.472   5.776   6.516
53262SOL    HW161683   2.398   5.762   6.575
53262SOL    HW261684   2.534   5.829   6.567
53263SOL     OW61685  13.658   3.686  14.556
53263SOL    HW161686  13.579   3.701  14.606
53263SOL    HW261687  13.627   3.662  14.468
53264SOL     OW61688   9.547   2.744  14.487
53264SOL    HW161689   9.569   2.696  14.566
53264SOL    HW261690   9.618   2.808  14.477
53265SOL     OW61691   9.414   2.434   8.253
53265SOL    HW161692   9.334   2.383   8.238
53265SOL    HW261693   9.458   2.435   8.168
53266SOL     OW61694   2.213   9.117   9.458
53266SOL    HW161695   2.155   9.041   9.455
53266SOL    HW261696   2.170   9.183   9.403
53267SOL     OW61697   7.580  13.093   2.005
53267SOL    HW161698   7.490  13.109   2.032
53267SOL    HW261699   7.624  13.177   2.017
53268SOL     OW61700   5.604  11.683   8.571
53268SOL    HW161701   5.671  11.620   8.543
53268SOL    HW261702   5.591  11.739   8.494
53269SOL     OW61703  12.033   1.866  11.175
53269SOL    HW161704  12.042   1.771  11.172
53269SOL    HW261705  12.107   1.895  11.227
53270SOL     OW61706   8.130   4.037  11.348
53270SOL    HW161707   8.065   4.027  11.417
53270SOL    HW261708   8.118   4.126  11.315
53271SOL     OW61709   8.126   9.775   0.182
53271SOL    HW161710   8.147   9.760   0.090
53271SOL    HW261711   8.211   9.768   0.226
53272SOL     OW61712   9.713  12.814   8.453
53272SOL    HW161713   9.642  12.767   8.496
53272SOL    HW261714   9.691  12.907   8.464
53273SOL     OW61715  12.903  10.429   7.859
53273SOL    HW161716  12.958  10.355   7.884
53273SOL    HW261717  12.829  10.426   7.920
53274SOL     OW61718   5.793  11.211   4.590
53274SOL    HW161719   5.858  11.220   4.520
53274SOL    HW261720   5.845  11.195   4.668
53275SOL     OW61721   1.225  10.590  10.192
53275SOL    HW161722   1.137  10.598  10.228
53275SOL    HW261723   1.237  10.669  10.139
53276SOL     OW61724   8.250   0.698   8.242
53276SOL    HW161725   8.304   0.709   8.320
53276SOL    HW261726   8.257   0.782   8.196
53277SOL     OW61727  11.646   0.877   2.865
53277SOL    HW161728  11.571   0.934   2.879
53277SOL    HW261729  11.669   0.845   2.952
53278SOL     OW61730   1.197   7.047   6.755
53278SOL    HW161731   1.220   7.117   6.694
53278SOL    HW261732   1.269   7.045   6.818
53279SOL     OW61733  10.294   7.962   0.553
53279SOL    HW161734  10.355   7.971   0.479
53279SOL    HW261735  10.305   8.042   0.603
53280SOL     OW61736  12.731   5.385   3.712
53280SOL    HW161737  12.713   5.304   3.760
53280SOL    HW261738  12.681   5.376   3.631
53281SOL     OW61739   0.186  14.686  13.490
53281SOL    HW161740   0.213  14.689  13.582
53281SOL    HW261741   0.102  14.640  13.492
53282SOL     OW61742   9.500  13.309  14.218
53282SOL    HW161743   9.573  13.265  14.174
53282SOL    HW261744   9.523  13.402  14.217
53283SOL     OW61745  14.560  10.387   4.358
53283SOL    HW161746  14.464  10.382   4.364
53283SOL    HW261747  14.576  10.422   4.270
53284SOL     OW61748   0.329  11.032   9.470
53284SOL    HW161749   0.318  10.938   9.461
53284SOL    HW261750   0.409  11.052   9.421
53285SOL     OW61751   3.678   0.609   4.019
53285SOL    HW161752   3.611   0.573   4.078
53285SOL    HW261753   3.723   0.675   4.072
53286SOL     OW61754   1.460  14.037   1.033
53286SOL    HW161755   1.512  14.054   1.112
53286SOL    HW261756   1.370  14.059   1.058
53287SOL     OW61757  10.233   7.798  13.996
53287SOL    HW161758  10.294   7.857  13.952
53287SOL    HW261759  10.184   7.854  14.056
53288SOL     OW61760   0.212   2.382   3.557
53288SOL    HW161761   0.188   2.291   3.574
53288SOL    HW261762   0.174   2.401   3.471
53289SOL     OW61763   3.721  10.011  10.661
53289SOL    HW161764   3.808  10.014  10.621
53289SOL    HW261765   3.673   9.946  10.610
53290SOL     OW61766   7.205  14.605  12.955
53290SOL    HW161767   7.161  14.671  12.901
53290SOL    HW261768   7.296  14.608  12.927
53291SOL     OW61769   6.009   3.506   6.488
53291SOL    HW161770   5.992   3.593   6.451
53291SOL    HW261771   5.947   3.498   6.560
53292SOL     OW61772  13.972   9.338   8.948
53292SOL    HW161773  13.924   9.279   8.889
53292SOL    HW261774  13.982   9.288   9.029
53293SOL     OW61775  13.890   1.582   0.726
53293SOL    HW161776  13.939   1.659   0.695
53293SOL    HW261777  13.835   1.615   0.796
53294SOL     OW61778   6.630   0.304  10.099
53294SOL    HW161779   6.642   0.277  10.190
53294SOL    HW261780   6.560   0.370  10.103
53295SOL     OW61781   9.815   4.087   0.755
53295SOL    HW161782   9.871   4.165   0.751
53295SOL    HW261783   9.744   4.106   0.693
53296SOL     OW61784  11.424  12.648  14.812
53296SOL    HW161785  11.412  12.574  14.871
53296SOL    HW261786  11.428  12.608  14.725
53297SOL     OW61787   5.843   5.934  10.154
53297SOL    HW161788   5.857   6.020  10.115
53297SOL    HW261789   5.836   5.951  10.248
53298SOL     OW61790  10.290   0.737   1.282
53298SOL    HW161791  10.268   0.653   1.323
53298SOL    HW261792  10.276   0.722   1.188
53299SOL     OW61793   6.898  12.649   4.651
53299SOL    HW161794   6.883  12.556   4.633
53299SOL    HW261795   6.993  12.659   4.643
53300SOL     OW61796   1.290  11.022  12.469
53300SOL    HW161797   1.381  10.991  12.463
53300SOL    HW261798   1.294  11.113  12.439
53301SOL     OW61799   6.047  13.156   4.098
53301SOL    HW161800   6.005  13.089   4.044
53301SOL    HW261801   6.138  13.156   4.069
53302SOL     OW61802  13.431   4.279   7.175
53302SOL    HW161803  13.355   4.312   7.222
53302SOL    HW261804  13.473   4.357   7.140
53303SOL     OW61805   1.877   0.041  14.252
53303SOL    HW161806   1.959   0.002  14.283
53303SOL    HW261807   1.813  14.841  14.257
53304SOL     OW61808   2.501  14.502   3.921
53304SOL    HW161809   2.509  14.595   3.941
53304SOL    HW261810   2.453  14.499   3.839
53305SOL     OW61811  11.882   9.021   6.980
53305SOL    HW161812  11.977   9.017   6.973
53305SOL    HW261813  11.856   9.095   6.925
53306SOL     OW61814  12.325  11.170   3.523
53306SOL    HW161815  12.379  11.117   3.581
53306SOL    HW261816  12.316  11.118   3.443
53307SOL     OW61817   2.745  14.489  14.090
53307SOL    HW161818   2.681  14.423  14.063
53307SOL    HW261819   2.703  14.533  14.164
53308SOL     OW61820  12.629   0.426   4.004
53308SOL    HW161821  12.539   0.436   4.033
53308SOL    HW261822  12.656   0.514   3.977
53309SOL     OW61823  13.672  13.793  12.895
53309SOL    HW161824  13.678  13.888  12.902
53309SOL    HW261825  13.608  13.778  12.826
53310SOL     OW61826  11.678   5.188   9.537
53310SOL    HW161827  11.659   5.230   9.453
53310SOL    HW261828  11.702   5.098   9.514
53311SOL     OW61829  11.740   2.339   0.602
53311SOL    HW161830  11.774   2.324   0.690
53311SOL    HW261831  11.744   2.434   0.591
53312SOL     OW61832   6.735   1.064   6.175
53312SOL    HW161833   6.798   1.044   6.107
53312SOL    HW261834   6.751   1.157   6.196
53313SOL     OW61835   3.595   9.154  12.561
53313SOL    HW161836   3.505   9.155  12.526
53313SOL    HW261837   3.648   9.120  12.489
53314SOL     OW61838   1.008   7.711   7.244
53314SOL    HW161839   0.923   7.674   7.265
53314SOL    HW261840   1.025   7.774   7.315
53315SOL     OW61841   2.635   4.266   0.974
53315SOL    HW161842   2.574   4.258   1.048
53315SOL    HW261843   2.634   4.181   0.932
53316SOL     OW61844   6.379  12.278   7.947
53316SOL    HW161845   6.388  12.336   8.023
53316SOL    HW261846   6.316  12.323   7.891
53317SOL     OW61847   1.261   0.709   4.449
53317SOL    HW161848   1.344   0.744   4.418
53317SOL    HW261849   1.284   0.633   4.502
53318SOL     OW61850   2.544  11.118   0.667
53318SOL    HW161851   2.554  11.120   0.762
53318SOL    HW261852   2.620  11.166   0.634
53319SOL     OW61853  11.906   9.704   9.730
53319SOL    HW161854  11.999   9.721   9.719
53319SOL    HW261855  11.897   9.609   9.716
53320SOL     OW61856   9.173   6.913  10.523
53320SOL    HW161857   9.209   6.842  10.470
53320SOL    HW261858   9.117   6.868  10.587
53321SOL     OW61859   6.596   1.464  12.411
53321SOL    HW161860   6.537   1.531  12.374
53321SOL    HW261861   6.618   1.497  12.498
53322SOL     OW61862   3.562   6.160   6.221
53322SOL    HW161863   3.616   6.239   6.224
53322SOL    HW261864   3.517   6.165   6.137
53323SOL     OW61865   9.138   4.562   7.599
53323SOL    HW161866   9.218   4.594   7.640
53323SOL    HW261867   9.166   4.530   7.513
53324SOL     OW61868   4.485   3.073  11.432
53324SOL    HW161869   4.469   3.130  11.357
53324SOL    HW261870   4.414   3.010  11.430
53325SOL     OW61871   4.861  11.629   7.356
53325SOL    HW161872   4.882  11.646   7.265
53325SOL    HW261873   4.769  11.653   7.365
53326SOL     OW61874  11.552   9.528   4.251
53326SOL    HW161875  11.532   9.621   4.238
53326SOL    HW261876  11.627   9.512   4.194
53327SOL     OW61877   4.600  11.632   7.016
53327SOL    HW161878   4.509  11.654   6.995
53327SOL    HW261879   4.625  11.567   6.951
53328SOL     OW61880   2.996   0.691   5.578
53328SOL    HW161881   2.962   0.618   5.629
53328SOL    HW261882   2.989   0.663   5.487
53329SOL     OW61883   1.332   0.731  11.304
53329SOL    HW161884   1.266   0.797  11.328
53329SOL    HW261885   1.342   0.741  11.209
53330SOL     OW61886  12.547  11.218   9.425
53330SOL    HW161887  12.485  11.183   9.362
53330SOL    HW261888  12.582  11.141   9.470
53331SOL     OW61889   1.561   8.021   0.818
53331SOL    HW161890   1.498   7.984   0.881
53331SOL    HW261891   1.598   8.097   0.863
53332SOL     OW61892  11.139  12.879  12.565
53332SOL    HW161893  11.101  12.793  12.548
53332SOL    HW261894  11.064  12.934  12.588
53333SOL     OW61895   0.044   6.149  10.165
53333SOL    HW161896  14.849   6.181  10.104
53333SOL    HW261897  14.868   6.090  10.224
53334SOL     OW61898   3.943   4.209  11.530
53334SOL    HW161899   3.992   4.192  11.449
53334SOL    HW261900   3.971   4.141  11.590
53335SOL     OW61901   4.149  13.809  12.265
53335SOL    HW161902   4.187  13.888  12.302
53335SOL    HW261903   4.056  13.815  12.285
53336SOL     OW61904   0.662  11.223  12.618
53336SOL    HW161905   0.600  11.172  12.670
53336SOL    HW261906   0.727  11.159  12.588
53337SOL     OW61907   7.263   7.890   1.273
53337SOL    HW161908   7.248   7.943   1.351
53337SOL    HW261909   7.290   7.804   1.306
53338SOL     OW61910   3.143   5.183   7.902
53338SOL    HW161911   3.176   5.264   7.863
53338SOL    HW261912   3.218   5.124   7.901
53339SOL     OW61913  13.193   0.028  13.196
53339SOL    HW161914  13.103   0.056  13.212
53339SOL    HW261915  13.190  14.854  13.112
53340SOL     OW61916   4.031  10.058   7.128
53340SOL    HW161917   4.004   9.980   7.175
53340SOL    HW261918   4.085  10.107   7.190
53341SOL     OW61919   8.475  13.901   8.267
53341SOL    HW161920   8.549  13.842   8.256
53341SOL    HW261921   8.462  13.940   8.180
53342SOL     OW61922   6.135  12.878  14.102
53342SOL    HW161923   6.107  12.791  14.131
53342SOL    HW261924   6.194  12.909  14.171
53343SOL     OW61925   8.624   9.580   1.374
53343SOL    HW161926   8.570   9.526   1.432
53343SOL    HW261927   8.646   9.521   1.301
53344SOL     OW61928  12.951   0.540  14.068
53344SOL    HW161929  13.028   0.551  14.123
53344SOL    HW261930  12.929   0.447  14.076
53345SOL     OW61931  13.045   6.877   8.841
53345SOL    HW161932  12.985   6.874   8.916
53345SOL    HW261933  13.130   6.896   8.879
53346SOL     OW61934   7.460   8.685   9.871
53346SOL    HW161935   7.484   8.621   9.805
53346SOL    HW261936   7.536   8.743   9.877
53347SOL     OW61937  13.714   4.648  13.637
53347SOL    HW161938  13.650   4.592  13.593
53347SOL    HW261939  13.799   4.621  13.600
53348SOL     OW61940   1.163  13.959   8.420
53348SOL    HW161941   1.133  14.029   8.362
53348SOL    HW261942   1.082  13.917   8.450
53349SOL     OW61943   4.584   4.742   5.822
53349SOL    HW161944   4.572   4.653   5.792
53349SOL    HW261945   4.676   4.762   5.804
53350SOL     OW61946   0.006   6.259  12.072
53350SOL    HW161947   0.099   6.270  12.051
53350SOL    HW261948  14.859   6.326  12.137
53351SOL     OW61949   7.464   3.361   3.062
53351SOL    HW161950   7.423   3.445   3.040
53351SOL    HW261951   7.397   3.312   3.108
53352SOL     OW61952   6.222   3.439   3.493
53352SOL    HW161953   6.130   3.434   3.517
53352SOL    HW261954   6.263   3.490   3.563
53353SOL     OW61955  14.635  13.306  12.797
53353SOL    HW161956  14.540  13.310  12.789
53353SOL    HW261957  14.652  13.228  12.850
53354SOL     OW61958   4.115   3.401  14.119
53354SOL    HW161959   4.107   3.381  14.026
53354SOL    HW261960   4.143   3.319  14.160
53355SOL     OW61961   4.870  12.694   6.040
53355SOL    HW161962   4.907  12.708   5.953
53355SOL    HW261963   4.911  12.762   6.094
53356SOL     OW61964   9.479  10.334   5.117
53356SOL    HW161965   9.407  10.281   5.083
53356SOL    HW261966   9.508  10.289   5.196
53357SOL     OW61967   2.493  10.358  13.160
53357SOL    HW161968   2.575  10.344  13.113
53357SOL    HW261969   2.454  10.435  13.120
53358SOL     OW61970   4.709   5.316   9.561
53358SOL    HW161971   4.676   5.303   9.650
53358SOL    HW261972   4.759   5.397   9.566
53359SOL     OW61973  12.453   8.538   3.911
53359SOL    HW161974  12.533   8.503   3.952
53359SOL    HW261975  12.419   8.465   3.860
53360SOL     OW61976  10.024   2.912   4.665
53360SOL    HW161977  10.051   2.824   4.691
53360SOL    HW261978  10.084   2.936   4.595
53361SOL     OW61979   5.837  13.256   2.484
53361SOL    HW161980   5.746  13.240   2.457
53361SOL    HW261981   5.889  13.235   2.407
53362SOL     OW61982   8.925   6.722   7.945
53362SOL    HW161983   8.860   6.777   7.989
53362SOL    HW261984   9.005   6.733   7.996
53363SOL     OW61985  12.592   2.845   5.761
53363SOL    HW161986  12.618   2.907   5.830
53363SOL    HW261987  12.600   2.759   5.802
53364SOL     OW61988   8.074   0.001   3.090
53364SOL    HW161989   8.135   0.059   3.136
53364SOL    HW261990   8.064  14.797   3.148
53365SOL     OW61991   6.049   0.232  11.294
53365SOL    HW161992   5.997   0.298  11.248
53365SOL    HW261993   6.019   0.149  11.259
53366SOL     OW61994  14.443   2.105   2.830
53366SOL    HW161995  14.409   2.102   2.919
53366SOL    HW261996  14.472   2.015   2.812
53367SOL     OW61997   1.950  11.430   1.667
53367SOL    HW161998   1.877  11.377   1.634
53367SOL    HW261999   2.016  11.425   1.598
53368SOL     OW62000   5.407  11.132   4.197
53368SOL    HW162001   5.371  11.101   4.280
53368SOL    HW262002   5.452  11.214   4.220
53369SOL     OW62003   1.443   2.200  12.217
53369SOL    HW162004   1.438   2.230  12.126
53369SOL    HW262005   1.383   2.126  12.221
53370SOL     OW62006  12.165   1.505   4.737
53370SOL    HW162007  12.227   1.514   4.809
53370SOL    HW262008  12.185   1.420   4.699
53371SOL     OW62009   7.206   8.653   7.328
53371SOL    HW162010   7.264   8.655   7.252
53371SOL    HW262011   7.119   8.643   7.291
53372SOL     OW62012   0.498   4.040   4.493
53372SOL    HW162013   0.565   4.059   4.428
53372SOL    HW262014   0.536   3.970   4.547
53373SOL     OW62015  12.194   4.495  10.604
53373SOL    HW162016  12.289   4.499  10.593
53373SOL    HW262017  12.159   4.485  10.516
53374SOL     OW62018   9.542   3.823   9.235
53374SOL    HW162019   9.464   3.769   9.223
53374SOL    HW262020   9.608   3.762   9.268
53375SOL     OW62021   3.009   3.663   3.536
53375SOL    HW162022   3.078   3.606   3.500
53375SOL    HW262023   3.056   3.743   3.562
53376SOL     OW62024   9.063   7.159   3.208
53376SOL    HW162025   9.097   7.070   3.216
53376SOL    HW262026   9.117   7.199   3.140
53377SOL     OW62027  11.560   9.579   3.282
53377SOL    HW162028  11.487   9.640   3.273
53377SOL    HW262029  11.603   9.604   3.363
53378SOL     OW62030  14.016  13.367   0.571
53378SOL    HW162031  13.976  13.364   0.484
53378SOL    HW262032  13.952  13.411   0.626
53379SOL     OW62033   8.410  14.331  13.577
53379SOL    HW162034   8.388  14.244  13.545
53379SOL    HW262035   8.344  14.388  13.539
53380SOL     OW62036  10.115   4.050  10.219
53380SOL    HW162037  10.026   4.018  10.227
53380SOL    HW262038  10.136   4.085  10.306
53381SOL     OW62039  14.186   9.752  10.567
53381SOL    HW162040  14.177   9.672  10.515
53381SOL    HW262041  14.108   9.754  10.622
53382SOL     OW62042   4.178  10.198   1.606
53382SOL    HW162043   4.200  10.254   1.532
53382SOL    HW262044   4.221  10.240   1.681
53383SOL     OW62045  10.104   1.866   1.754
53383SOL    HW162046  10.129   1.891   1.843
53383SOL    HW262047  10.103   1.770   1.756
53384SOL     OW62048   7.380   4.227  12.169
53384SOL    HW162049   7.353   4.143  12.132
53384SOL    HW262050   7.365   4.217  12.263
53385SOL     OW62051  13.634   5.114  10.100
53385SOL    HW162052  13.538   5.111  10.100
53385SOL    HW262053  13.655   5.195  10.147
53386SOL     OW62054   9.063  11.751  13.648
53386SOL    HW162055   9.121  11.800  13.707
53386SOL    HW262056   8.984  11.804  13.644
53387SOL     OW62057  13.878   6.856   5.110
53387SOL    HW162058  13.823   6.931   5.085
53387SOL    HW262059  13.818   6.794   5.151
53388SOL     OW62060   9.803  14.039  11.989
53388SOL    HW162061   9.771  14.055  12.078
53388SOL    HW262062   9.885  14.088  11.984
53389SOL     OW62063   4.807  10.321   4.271
53389SOL    HW162064   4.866  10.251   4.299
53389SOL    HW262065   4.750  10.279   4.206
53390SOL     OW62066  11.139  10.647   5.404
53390SOL    HW162067  11.128  10.741   5.416
53390SOL    HW262068  11.219  10.638   5.352
53391SOL     OW62069  11.325  13.730  10.093
53391SOL    HW162070  11.351  13.755  10.004
53391SOL    HW262071  11.407  13.705  10.135
53392SOL     OW62072  10.512   0.828  14.040
53392SOL    HW162073  10.606   0.810  14.047
53392SOL    HW262074  10.470   0.748  14.071
53393SOL     OW62075   9.931   0.077   2.475
53393SOL    HW162076   9.988   0.050   2.546
53393SOL    HW262077   9.881  14.870   2.453
53394SOL     OW62078   3.666   6.133  11.014
53394SOL    HW162079   3.697   6.053  10.971
53394SOL    HW262080   3.576   6.144  10.982
53395SOL     OW62081   9.192   0.383   5.975
53395SOL    HW162082   9.165   0.378   5.884
53395SOL    HW262083   9.284   0.409   5.971
53396SOL     OW62084  11.072   8.148   7.751
53396SOL    HW162085  11.094   8.213   7.818
53396SOL    HW262086  11.051   8.069   7.800
53397SOL     OW62087   8.124  13.780   4.243
53397SOL    HW162088   8.152  13.744   4.158
53397SOL    HW262089   8.125  13.875   4.229
53398SOL     OW62090   9.134  11.429   9.892
53398SOL    HW162091   9.100  11.518   9.888
53398SOL    HW262092   9.212  11.435   9.947
53399SOL     OW62093  12.866  14.523  10.936
53399SOL    HW162094  12.897  14.462  10.870
53399SOL    HW262095  12.771  14.524  10.924
53400SOL     OW62096   8.520   3.380   4.758
53400SOL    HW162097   8.434   3.421   4.756
53400SOL    HW262098   8.575   3.442   4.807
53401SOL     OW62099   2.182  13.014   7.325
53401SOL    HW162100   2.209  12.974   7.408
53401SOL    HW262101   2.088  12.998   7.321
53402SOL     OW62102  12.165  11.209   6.151
53402SOL    HW162103  12.094  11.147   6.136
53402SOL    HW262104  12.121  11.294   6.160
53403SOL     OW62105  13.336   0.722   8.872
53403SOL    HW162106  13.346   0.722   8.967
53403SOL    HW262107  13.417   0.684   8.839
53404SOL     OW62108   4.449   8.936  10.171
53404SOL    HW162109   4.544   8.925  10.179
53404SOL    HW262110   4.437   9.027  10.145
53405SOL     OW62111  13.309   6.997   5.229
53405SOL    HW162112  13.353   6.915   5.249
53405SOL    HW262113  13.314   7.005   5.133
53406SOL     OW62114  13.506   5.493   7.675
53406SOL    HW162115  13.494   5.584   7.701
53406SOL    HW262116  13.511   5.496   7.579
53407SOL     OW62117   8.010  10.167   5.845
53407SOL    HW162118   8.087  10.118   5.817
53407SOL    HW262119   7.993  10.229   5.774
53408SOL     OW62120  11.683  12.010  11.375
53408SOL    HW162121  11.676  12.105  11.381
53408SOL    HW262122  11.598  11.977  11.405
53409SOL     OW62123   2.153  10.448   1.167
53409SOL    HW162124   2.217  10.519   1.166
53409SOL    HW262125   2.202  10.370   1.144
53410SOL     OW62126  12.853   9.054   0.469
53410SOL    HW162127  12.795   9.129   0.462
53410SOL    HW262128  12.810   8.985   0.417
53411SOL     OW62129   4.038   1.729   5.094
53411SOL    HW162130   4.009   1.644   5.125
53411SOL    HW262131   3.967   1.789   5.116
53412SOL     OW62132   7.251   1.810   6.282
53412SOL    HW162133   7.156   1.811   6.289
53412SOL    HW262134   7.276   1.902   6.275
53413SOL     OW62135  12.823   5.139   9.437
53413SOL    HW162136  12.728   5.144   9.446
53413SOL    HW262137  12.837   5.063   9.381
53414SOL     OW62138  11.431   3.227   6.314
53414SOL    HW162139  11.470   3.295   6.260
53414SOL    HW262140  11.359   3.271   6.359
53415SOL     OW62141   8.240   4.810   5.777
53415SOL    HW162142   8.161   4.757   5.778
53415SOL    HW262143   8.213   4.894   5.813
53416SOL     OW62144  13.734   8.748   2.605
53416SOL    HW162145  13.772   8.664   2.582
53416SOL    HW262146  13.741   8.753   2.701
53417SOL     OW62147   4.794  11.041   2.727
53417SOL    HW162148   4.808  10.973   2.794
53417SOL    HW262149   4.845  11.116   2.759
53418SOL     OW62150   1.778   3.607   7.107
53418SOL    HW162151   1.745   3.547   7.039
53418SOL    HW262152   1.809   3.683   7.058
53419SOL     OW62153   5.108  13.969   1.893
53419SOL    HW162154   5.057  13.909   1.839
53419SOL    HW262155   5.160  13.913   1.950
53420SOL     OW62156  14.309   0.634  11.527
53420SOL    HW162157  14.269   0.549  11.544
53420SOL    HW262158  14.290   0.686  11.605
53421SOL     OW62159   8.402   1.638   8.303
53421SOL    HW162160   8.460   1.570   8.269
53421SOL    HW262161   8.456   1.717   8.304
53422SOL     OW62162   2.878   8.676   4.518
53422SOL    HW162163   2.907   8.668   4.428
53422SOL    HW262164   2.927   8.608   4.565
53423SOL     OW62165   7.494   7.409   4.395
53423SOL    HW162166   7.402   7.392   4.376
53423SOL    HW262167   7.527   7.456   4.318
53424SOL     OW62168   5.255   0.348   7.944
53424SOL    HW162169   5.328   0.407   7.960
53424SOL    HW262170   5.279   0.267   7.989
53425SOL     OW62171  13.780  12.140   7.021
53425SOL    HW162172  13.832  12.060   7.026
53425SOL    HW262173  13.705  12.124   7.079
53426SOL     OW62174   6.121  11.020   2.739
53426SOL    HW162175   6.117  10.925   2.732
53426SOL    HW262176   6.049  11.051   2.683
53427SOL     OW62177   3.064   4.760   2.243
53427SOL    HW162178   3.089   4.809   2.165
53427SOL    HW262179   3.144   4.752   2.294
53428SOL     OW62180   1.807   0.510  10.796
53428SOL    HW162181   1.805   0.596  10.839
53428SOL    HW262182   1.754   0.522  10.717
53429SOL     OW62183  10.888   4.313   9.983
53429SOL    HW162184  10.901   4.386  10.045
53429SOL    HW262185  10.880   4.236  10.039
53430SOL     OW62186   0.450  12.867   9.526
53430SOL    HW162187   0.518  12.886   9.461
53430SOL    HW262188   0.493  12.876   9.610
53431SOL     OW62189   2.753   0.286   3.545
53431SOL    HW162190   2.732   0.358   3.605
53431SOL    HW262191   2.674   0.232   3.543
53432SOL     OW62192   8.953   0.226  14.630
53432SOL    HW162193   8.898   0.233  14.552
53432SOL    HW262194   8.964   0.132  14.642
53433SOL     OW62195   5.540  13.801   2.866
53433SOL    HW162196   5.570  13.808   2.775
53433SOL    HW262197   5.581  13.875   2.910
53434SOL     OW62198   3.377   0.356   2.493
53434SOL    HW162199   3.297   0.324   2.534
53434SOL    HW262200   3.348   0.397   2.411
53435SOL     OW62201   9.744  13.743   5.458
53435SOL    HW162202   9.686  13.727   5.384
53435SOL    HW262203   9.686  13.773   5.528
53436SOL     OW62204  11.607   2.321  12.335
53436SOL    HW162205  11.698   2.298  12.318
53436SOL    HW262206  11.588   2.393  12.275
53437SOL     OW62207  11.557  13.357   4.576
53437SOL    HW162208  11.569  13.371   4.669
53437SOL    HW262209  11.475  13.308   4.569
53438SOL     OW62210   8.658   0.652  12.949
53438SOL    HW162211   8.596   0.652  13.022
53438SOL    HW262212   8.722   0.719  12.973
53439SOL     OW62213  14.583  10.964   1.498
53439SOL    HW162214  14.595  10.998   1.409
53439SOL    HW262215  14.646  11.014   1.551
53440SOL     OW62216  14.104   4.135   2.624
53440SOL    HW162217  14.012   4.161   2.625
53440SOL    HW262218  14.142   4.179   2.700
53441SOL     OW62219   9.143   6.975   1.292
53441SOL    HW162220   9.159   7.058   1.336
53441SOL    HW262221   9.212   6.968   1.225
53442SOL     OW62222   9.874   4.453   5.770
53442SOL    HW162223   9.889   4.366   5.731
53442SOL    HW262224   9.940   4.461   5.838
53443SOL     OW62225   9.602  11.399   3.268
53443SOL    HW162226   9.526  11.427   3.218
53443SOL    HW262227   9.601  11.303   3.260
53444SOL     OW62228   3.039   6.203   5.679
53444SOL    HW162229   3.049   6.152   5.599
53444SOL    HW262230   2.988   6.146   5.738
53445SOL     OW62231  13.991  14.138  12.169
53445SOL    HW162232  13.961  14.087  12.244
53445SOL    HW262233  14.050  14.079  12.121
53446SOL     OW62234   3.597  10.480  14.425
53446SOL    HW162235   3.574  10.553  14.367
53446SOL    HW262236   3.692  10.474  14.417
53447SOL     OW62237   6.675  14.430   4.596
53447SOL    HW162238   6.690  14.416   4.689
53447SOL    HW262239   6.593  14.383   4.578
53448SOL     OW62240   2.397  10.980   4.147
53448SOL    HW162241   2.367  10.934   4.225
53448SOL    HW262242   2.456  10.919   4.104
53449SOL     OW62243   4.900   8.331   6.899
53449SOL    HW162244   4.970   8.381   6.858
53449SOL    HW262245   4.908   8.350   6.992
53450SOL     OW62246   7.750  10.213   5.096
53450SOL    HW162247   7.716  10.155   5.028
53450SOL    HW262248   7.728  10.169   5.178
53451SOL     OW62249  10.335   1.369   1.627
53451SOL    HW162250  10.367   1.363   1.717
53451SOL    HW262251  10.379   1.446   1.591
53452SOL     OW62252  13.436   6.659   9.207
53452SOL    HW162253  13.447   6.564   9.208
53452SOL    HW262254  13.511   6.691   9.158
53453SOL     OW62255   4.139  12.719   0.102
53453SOL    HW162256   4.097  12.796   0.063
53453SOL    HW262257   4.220  12.709   0.052
53454SOL     OW62258  10.329   3.883  12.742
53454SOL    HW162259  10.311   3.975  12.763
53454SOL    HW262260  10.254   3.855  12.690
53455SOL     OW62261   5.727  14.136   4.447
53455SOL    HW162262   5.703  14.119   4.538
53455SOL    HW262263   5.718  14.052   4.403
53456SOL     OW62264  12.812  10.302   1.360
53456SOL    HW162265  12.829  10.369   1.426
53456SOL    HW262266  12.717  10.289   1.364
53457SOL     OW62267   9.919   1.949   5.724
53457SOL    HW162268   9.912   1.898   5.805
53457SOL    HW262269   9.958   2.032   5.751
53458SOL     OW62270   9.856   3.404   2.471
53458SOL    HW162271   9.882   3.377   2.383
53458SOL    HW262272   9.764   3.379   2.477
53459SOL     OW62273   3.074   4.450  12.045
53459SOL    HW162274   3.027   4.440  12.128
53459SOL    HW262275   3.160   4.482  12.070
53460SOL     OW62276  11.489   0.024   7.053
53460SOL    HW162277  11.501  14.856   7.139
53460SOL    HW262278  11.490  14.822   6.992
53461SOL     OW62279   4.394   1.637  11.510
53461SOL    HW162280   4.362   1.695  11.441
53461SOL    HW262281   4.464   1.586  11.468
53462SOL     OW62282  13.252   5.286  14.098
53462SOL    HW162283  13.313   5.307  14.027
53462SOL    HW262284  13.193   5.221  14.059
53463SOL     OW62285   2.941  10.140   1.990
53463SOL    HW162286   3.019  10.174   1.946
53463SOL    HW262287   2.952  10.167   2.081
53464SOL     OW62288   9.065   2.407   9.699
53464SOL    HW162289   9.101   2.477   9.753
53464SOL    HW262290   8.972   2.405   9.722
53465SOL     OW62291  14.300   9.514  10.884
53465SOL    HW162292  14.339   9.595  10.915
53465SOL    HW262293  14.306   9.518  10.789
53466SOL     OW62294  14.810  13.797   7.433
53466SOL    HW162295   0.010  13.838   7.385
53466SOL    HW262296  14.834  13.806   7.525
53467SOL     OW62297  13.007   8.022   5.277
53467SOL    HW162298  13.035   8.036   5.367
53467SOL    HW262299  12.957   7.940   5.280
53468SOL     OW62300   9.439  14.504   0.851
53468SOL    HW162301   9.361  14.548   0.886
53468SOL    HW262302   9.410  14.467   0.768
53469SOL     OW62303   6.547  10.790   3.933
53469SOL    HW162304   6.614  10.784   3.865
53469SOL    HW262305   6.486  10.856   3.901
53470SOL     OW62306  10.444   9.792   9.489
53470SOL    HW162307  10.441   9.704   9.526
53470SOL    HW262308  10.537   9.815   9.487
53471SOL     OW62309   9.199   6.876   1.981
53471SOL    HW162310   9.225   6.917   1.898
53471SOL    HW262311   9.227   6.938   2.048
53472SOL     OW62312   8.105   1.830   6.984
53472SOL    HW162313   8.131   1.771   7.054
53472SOL    HW262314   8.154   1.800   6.907
53473SOL     OW62315   0.210  11.047   8.462
53473SOL    HW162316   0.195  10.996   8.382
53473SOL    HW262317   0.304  11.063   8.462
53474SOL     OW62318   2.320   4.915   1.990
53474SOL    HW162319   2.291   4.978   1.924
53474SOL    HW262320   2.372   4.852   1.940
53475SOL     OW62321   2.094  13.231  13.905
53475SOL    HW162322   2.108  13.272  13.990
53475SOL    HW262323   2.097  13.137  13.923
53476SOL     OW62324   9.074   6.499  11.442
53476SOL    HW162325   9.046   6.582  11.405
53476SOL    HW262326   9.166   6.491  11.417
53477SOL     OW62327   4.776   2.518  11.027
53477SOL    HW162328   4.760   2.592  11.084
53477SOL    HW262329   4.836   2.552  10.960
53478SOL     OW62330   8.029  10.163   0.825
53478SOL    HW162331   8.036  10.200   0.737
53478SOL    HW262332   7.950  10.109   0.823
53479SOL     OW62333  11.307   9.127   2.593
53479SOL    HW162334  11.348   9.146   2.677
53479SOL    HW262335  11.218   9.099   2.616
53480SOL     OW62336   4.574  11.391  11.118
53480SOL    HW162337   4.654  11.338  11.115
53480SOL    HW262338   4.594  11.461  11.180
53481SOL     OW62339   4.689  10.060   5.788
53481SOL    HW162340   4.710  10.004   5.863
53481SOL    HW262341   4.674   9.998   5.716
53482SOL     OW62342  11.154   8.428   5.153
53482SOL    HW162343  11.246   8.453   5.160
53482SOL    HW262344  11.155   8.348   5.100
53483SOL     OW62345   0.952   5.670   5.462
53483SOL    HW162346   0.940   5.744   5.521
53483SOL    HW262347   1.029   5.692   5.410
53484SOL     OW62348   5.835  11.232  14.147
53484SOL    HW162349   5.859  11.174  14.220
53484SOL    HW262350   5.842  11.176  14.070
53485SOL     OW62351  10.787   6.896   3.456
53485SOL    HW162352  10.752   6.811   3.481
53485SOL    HW262353  10.758   6.956   3.525
53486SOL     OW62354   1.488   3.011  13.905
53486SOL    HW162355   1.401   2.973  13.908
53486SOL    HW262356   1.501   3.051  13.991
53487SOL     OW62357  12.403   8.015  14.748
53487SOL    HW162358  12.479   7.966  14.777
53487SOL    HW262359  12.409   8.098  14.794
53488SOL     OW62360   3.739   1.143   6.605
53488SOL    HW162361   3.824   1.107   6.632
53488SOL    HW262362   3.676   1.094   6.658
53489SOL     OW62363   1.346   0.524   7.072
53489SOL    HW162364   1.402   0.447   7.073
53489SOL    HW262365   1.289   0.514   7.148
53490SOL     OW62366   6.645   9.905   0.970
53490SOL    HW162367   6.655   9.971   1.038
53490SOL    HW262368   6.575   9.847   1.001
53491SOL     OW62369   9.339   1.069   1.707
53491SOL    HW162370   9.393   0.991   1.726
53491SOL    HW262371   9.362   1.131   1.776
53492SOL     OW62372  10.049  12.778   5.693
53492SOL    HW162373  10.095  12.851   5.652
53492SOL    HW262374   9.996  12.742   5.622
53493SOL     OW62375   6.064   6.371   1.845
53493SOL    HW162376   6.155   6.403   1.842
53493SOL    HW262377   6.027   6.412   1.922
53494SOL     OW62378  12.748   6.768   4.366
53494SOL    HW162379  12.668   6.773   4.418
53494SOL    HW262380  12.755   6.676   4.340
53495SOL     OW62381  11.942   9.337   5.725
53495SOL    HW162382  12.013   9.401   5.738
53495SOL    HW262383  11.863   9.390   5.720
53496SOL     OW62384  10.496   3.423   5.759
53496SOL    HW162385  10.574   3.368   5.751
53496SOL    HW262386  10.468   3.438   5.669
53497SOL     OW62387   5.398   4.752  10.170
53497SOL    HW162388   5.317   4.798  10.147
53497SOL    HW262389   5.426   4.792  10.252
53498SOL     OW62390  10.460   9.779   0.040
53498SOL    HW162391  10.445   9.801  14.819
53498SOL    HW262392  10.448   9.684   0.044
53499SOL     OW62393   8.577   5.469   2.759
53499SOL    HW162394   8.626   5.394   2.726
53499SOL    HW262395   8.545   5.514   2.681
53500SOL     OW62396   3.613   6.707  13.228
53500SOL    HW162397   3.614   6.626  13.280
53500SOL    HW262398   3.581   6.679  13.141
53501SOL     OW62399   6.392   5.259  14.372
53501SOL    HW162400   6.452   5.218  14.310
53501SOL    HW262401   6.443   5.265  14.453
53502SOL     OW62402   3.682   2.318  11.975
53502SOL    HW162403   3.733   2.278  12.046
53502SOL    HW262404   3.656   2.243  11.920
53503SOL     OW62405   0.295   3.882   1.837
53503SOL    HW162406   0.319   3.790   1.853
53503SOL    HW262407   0.223   3.899   1.898
53504SOL     OW62408   1.652   0.439  14.055
53504SOL    HW162409   1.708   0.366  14.029
53504SOL    HW262410   1.647   0.433  14.151
53505SOL     OW62411   3.174   3.602   2.887
53505SOL    HW162412   3.197   3.642   2.803
53505SOL    HW262413   3.105   3.658   2.922
53506SOL     OW62414   3.399   1.173   8.496
53506SOL    HW162415   3.388   1.084   8.464
53506SOL    HW262416   3.321   1.189   8.549
53507SOL     OW62417   2.666   8.237   9.732
53507SOL    HW162418   2.700   8.148   9.726
53507SOL    HW262419   2.621   8.240   9.816
53508SOL     OW62420  11.740   9.469   8.889
53508SOL    HW162421  11.748   9.511   8.803
53508SOL    HW262422  11.761   9.377   8.872
53509SOL     OW62423   4.541   6.896  11.388
53509SOL    HW162424   4.536   6.957  11.461
53509SOL    HW262425   4.456   6.851  11.388
53510SOL     OW62426   3.641  10.583  13.801
53510SOL    HW162427   3.596  10.580  13.717
53510SOL    HW262428   3.729  10.551  13.783
53511SOL     OW62429   9.110   9.906  14.518
53511SOL    HW162430   9.180   9.966  14.545
53511SOL    HW262431   9.034   9.963  14.506
53512SOL     OW62432  12.448  13.303  11.932
53512SOL    HW162433  12.535  13.315  11.970
53512SOL    HW262434  12.463  13.303  11.837
53513SOL     OW62435  11.031  14.335   0.017
53513SOL    HW162436  10.978  14.263  14.855
53513SOL    HW262437  11.010  14.338   0.111
53514SOL     OW62438   9.052   4.568  13.155
53514SOL    HW162439   8.990   4.506  13.194
53514SOL    HW262440   9.022   4.578  13.065
53515SOL     OW62441  11.320   9.533   1.273
53515SOL    HW162442  11.398   9.536   1.329
53515SOL    HW262443  11.308   9.623   1.244
53516SOL     OW62444  10.089  11.949   8.669
53516SOL    HW162445  10.034  12.015   8.627
53516SOL    HW262446  10.029  11.900   8.726
53517SOL     OW62447  11.681   4.726   2.730
53517SOL    HW162448  11.690   4.764   2.818
53517SOL    HW262449  11.756   4.759   2.682
53518SOL     OW62450  13.599  14.304  12.032
53518SOL    HW162451  13.596  14.221  12.079
53518SOL    HW262452  13.583  14.280  11.941
53519SOL     OW62453   6.403   4.362   4.613
53519SOL    HW162454   6.430   4.276   4.645
53519SOL    HW262455   6.382   4.412   4.693
53520SOL     OW62456   7.269  11.391   3.434
53520SOL    HW162457   7.348  11.381   3.488
53520SOL    HW262458   7.243  11.301   3.413
53521SOL     OW62459   2.067  13.016   2.770
53521SOL    HW162460   2.106  12.972   2.695
53521SOL    HW262461   2.133  13.080   2.797
53522SOL     OW62462   2.215   5.652   0.585
53522SOL    HW162463   2.205   5.603   0.667
53522SOL    HW262464   2.270   5.597   0.530
53523SOL     OW62465   0.790   8.661   9.151
53523SOL    HW162466   0.732   8.622   9.216
53523SOL    HW262467   0.877   8.655   9.189
53524SOL     OW62468   7.575   4.972   8.995
53524SOL    HW162469   7.482   4.978   9.017
53524SOL    HW262470   7.589   5.043   8.933
53525SOL     OW62471   5.243   5.036   2.325
53525SOL    HW162472   5.313   4.971   2.319
53525SOL    HW262473   5.286   5.114   2.358
53526SOL     OW62474  10.927   5.593  14.379
53526SOL    HW162475  10.889   5.628  14.298
53526SOL    HW262476  10.940   5.500  14.361
53527SOL     OW62477  10.403  11.529  10.980
53527SOL    HW162478  10.387  11.480  11.061
53527SOL    HW262479  10.471  11.479  10.936
53528SOL     OW62480   1.697   3.921   4.390
53528SOL    HW162481   1.708   3.863   4.314
53528SOL    HW262482   1.751   3.882   4.458
53529SOL     OW62483   2.918   4.387   7.911
53529SOL    HW162484   3.004   4.427   7.895
53529SOL    HW262485   2.856   4.448   7.873
53530SOL     OW62486  12.230   4.562  10.137
53530SOL    HW162487  12.217   4.633  10.074
53530SOL    HW262488  12.316   4.526  10.115
53531SOL     OW62489   0.001  14.172   5.004
53531SOL    HW162490   0.011  14.154   5.098
53531SOL    HW262491   0.056  14.248   4.988
53532SOL     OW62492   7.344  13.284  14.827
53532SOL    HW162493   7.421  13.279   0.013
53532SOL    HW262494   7.341  13.376  14.799
53533SOL     OW62495  12.970   9.325   9.090
53533SOL    HW162496  12.893   9.368   9.126
53533SOL    HW262497  13.006   9.388   9.027
53534SOL     OW62498   0.294  12.666   3.554
53534SOL    HW162499   0.250  12.743   3.590
53534SOL    HW262500   0.228  12.625   3.497
53535SOL     OW62501  14.219  12.334   0.586
53535SOL    HW162502  14.273  12.372   0.655
53535SOL    HW262503  14.278  12.325   0.511
53536SOL     OW62504   4.056   7.832   6.291
53536SOL    HW162505   4.095   7.820   6.378
53536SOL    HW262506   4.125   7.874   6.239
53537SOL     OW62507  13.056   5.026   7.330
53537SOL    HW162508  13.095   5.094   7.275
53537SOL    HW262509  13.085   5.048   7.418
53538SOL     OW62510   0.709   7.228  11.908
53538SOL    HW162511   0.642   7.295  11.921
53538SOL    HW262512   0.660   7.150  11.882
53539SOL     OW62513   8.288  12.742  11.844
53539SOL    HW162514   8.209  12.757  11.793
53539SOL    HW262515   8.358  12.783  11.793
53540SOL     OW62516   7.657   5.736   2.569
53540SOL    HW162517   7.717   5.678   2.523
53540SOL    HW262518   7.650   5.813   2.511
53541SOL     OW62519   9.405   0.339   9.507
53541SOL    HW162520   9.314   0.311   9.496
53541SOL    HW262521   9.409   0.424   9.463
53542SOL     OW62522   1.296   8.184   0.870
53542SOL    HW162523   1.212   8.222   0.899
53542SOL    HW262524   1.342   8.164   0.951
53543SOL     OW62525   4.160  13.989   7.383
53543SOL    HW162526   4.194  13.903   7.409
53543SOL    HW262527   4.085  13.969   7.327
53544SOL     OW62528   8.398   5.264   9.268
53544SOL    HW162529   8.347   5.227   9.196
53544SOL    HW262530   8.375   5.212   9.344
53545SOL     OW62531   3.247  12.568   5.083
53545SOL    HW162532   3.174  12.512   5.110
53545SOL    HW262533   3.241  12.644   5.140
53546SOL     OW62534   1.129   1.799   6.293
53546SOL    HW162535   1.124   1.774   6.386
53546SOL    HW262536   1.210   1.850   6.287
53547SOL     OW62537   8.266  13.517  12.308
53547SOL    HW162538   8.192  13.517  12.370
53547SOL    HW262539   8.226  13.498  12.223
53548SOL     OW62540  13.321  13.672  13.362
53548SOL    HW162541  13.261  13.729  13.410
53548SOL    HW262542  13.408  13.707  13.382
53549SOL     OW62543   1.133  13.493   3.782
53549SOL    HW162544   1.160  13.435   3.711
53549SOL    HW262545   1.215  13.516   3.827
53550SOL     OW62546   8.034   6.259   9.694
53550SOL    HW162547   8.042   6.171   9.659
53550SOL    HW262548   8.047   6.317   9.619
53551SOL     OW62549   0.057   2.649   1.803
53551SOL    HW162550  14.847   2.650   1.853
53551SOL    HW262551   0.123   2.621   1.867
53552SOL     OW62552   0.441   0.168   9.266
53552SOL    HW162553   0.396   0.216   9.196
53552SOL    HW262554   0.371   0.134   9.321
53553SOL     OW62555  10.009   8.425   8.262
53553SOL    HW162556   9.947   8.355   8.242
53553SOL    HW262557  10.060   8.436   8.182
53554SOL     OW62558  10.688  14.513  11.093
53554SOL    HW162559  10.778  14.492  11.117
53554SOL    HW262560  10.635  14.482  11.166
53555SOL     OW62561  14.223   8.795   3.088
53555SOL    HW162562  14.222   8.779   3.182
53555SOL    HW262563  14.222   8.708   3.049
53556SOL     OW62564  13.502   1.238  11.883
53556SOL    HW162565  13.578   1.213  11.832
53556SOL    HW262566  13.428   1.198  11.837
53557SOL     OW62567   7.728   9.179   9.830
53557SOL    HW162568   7.767   9.127   9.760
53557SOL    HW262569   7.793   9.246   9.850
53558SOL     OW62570  12.076   4.926   4.801
53558SOL    HW162571  12.028   4.844   4.811
53558SOL    HW262572  12.150   4.904   4.746
53559SOL     OW62573   9.910  11.889   9.099
53559SOL    HW162574   9.917  11.900   9.194
53559SOL    HW262575   9.982  11.830   9.077
53560SOL     OW62576  11.753  11.640   2.334
53560SOL    HW162577  11.711  11.713   2.289
53560SOL    HW262578  11.724  11.650   2.425
53561SOL     OW62579   9.063  10.831   0.309
53561SOL    HW162580   9.035  10.841   0.400
53561SOL    HW262581   9.154  10.803   0.314
53562SOL     OW62582  11.082  11.770   6.795
53562SOL    HW162583  11.041  11.724   6.868
53562SOL    HW262584  11.159  11.716   6.774
53563SOL     OW62585   9.230   9.809   3.415
53563SOL    HW162586   9.284   9.745   3.368
53563SOL    HW262587   9.203   9.764   3.495
53564SOL     OW62588   4.345  13.760  13.063
53564SOL    HW162589   4.380  13.711  12.988
53564SOL    HW262590   4.375  13.850  13.048
53565SOL     OW62591   9.589   2.347   8.434
53565SOL    HW162592   9.578   2.252   8.428
53565SOL    HW262593   9.535   2.382   8.363
53566SOL     OW62594   5.448  10.660   5.300
53566SOL    HW162595   5.409  10.671   5.214
53566SOL    HW262596   5.440  10.566   5.319
53567SOL     OW62597   9.292   4.725   9.922
53567SOL    HW162598   9.346   4.664   9.973
53567SOL    HW262599   9.355   4.782   9.878
53568SOL     OW62600   5.278  13.933   0.667
53568SOL    HW162601   5.300  13.995   0.597
53568SOL    HW262602   5.198  13.890   0.636
53569SOL     OW62603   0.613   4.178  12.750
53569SOL    HW162604   0.543   4.114  12.734
53569SOL    HW262605   0.608   4.196  12.844
53570SOL     OW62606   0.355   2.226   5.754
53570SOL    HW162607   0.265   2.194   5.748
53570SOL    HW262608   0.409   2.147   5.756
53571SOL     OW62609   0.951  12.823  14.298
53571SOL    HW162610   0.922  12.787  14.215
53571SOL    HW262611   1.045  12.809  14.299
53572SOL     OW62612  12.198  10.197   3.580
53572SOL    HW162613  12.158  10.110   3.588
53572SOL    HW262614  12.124  10.258   3.584
53573SOL     OW62615  11.105   7.784   5.809
53573SOL    HW162616  11.093   7.714   5.872
53573SOL    HW262617  11.028   7.840   5.820
53574SOL     OW62618   0.778   0.006  11.466
53574SOL    HW162619   0.805   0.096  11.488
53574SOL    HW262620   0.842  14.822  11.511
53575SOL     OW62621   6.843   9.973   7.306
53575SOL    HW162622   6.859   9.928   7.224
53575SOL    HW262623   6.813   9.904   7.366
53576SOL     OW62624   0.064   8.030   5.379
53576SOL    HW162625   0.040   7.957   5.436
53576SOL    HW262626   0.139   7.998   5.329
53577SOL     OW62627   2.618   5.546   4.808
53577SOL    HW162628   2.679   5.597   4.754
53577SOL    HW262629   2.611   5.597   4.889
53578SOL     OW62630  13.757   4.776  13.128
53578SOL    HW162631  13.786   4.702  13.075
53578SOL    HW262632  13.761   4.851  13.069
53579SOL     OW62633   5.427   3.526   7.046
53579SOL    HW162634   5.465   3.438   7.052
53579SOL    HW262635   5.494   3.583   7.085
53580SOL     OW62636   1.818   5.952   6.393
53580SOL    HW162637   1.788   5.878   6.445
53580SOL    HW262638   1.864   5.912   6.318
53581SOL     OW62639   1.123   7.701   1.097
53581SOL    HW162640   1.120   7.771   1.031
53581SOL    HW262641   1.155   7.625   1.049
53582SOL     OW62642   8.737   8.633  14.181
53582SOL    HW162643   8.763   8.692  14.252
53582SOL    HW262644   8.681   8.685  14.125
53583SOL     OW62645   2.455   6.091  13.075
53583SOL    HW162646   2.475   6.184  13.081
53583SOL    HW262647   2.409   6.071  13.156
53584SOL     OW62648  10.849   0.764  10.105
53584SOL    HW162649  10.858   0.858  10.087
53584SOL    HW262650  10.926   0.724  10.065
53585SOL     OW62651  14.366   2.625   4.647
53585SOL    HW162652  14.299   2.651   4.584
53585SOL    HW262653  14.449   2.644   4.602
53586SOL     OW62654   0.233   4.508  13.390
53586SOL    HW162655   0.280   4.425  13.389
53586SOL    HW262656   0.209   4.523  13.299
53587SOL     OW62657   7.304   7.093   8.520
53587SOL    HW162658   7.327   7.163   8.582
53587SOL    HW262659   7.224   7.124   8.477
53588SOL     OW62660  13.456   1.611   4.230
53588SOL    HW162661  13.428   1.648   4.146
53588SOL    HW262662  13.550   1.630   4.234
53589SOL     OW62663   2.073   3.884   2.551
53589SOL    HW162664   1.989   3.904   2.592
53589SOL    HW262665   2.133   3.869   2.624
53590SOL     OW62666   4.313   0.731   5.365
53590SOL    HW162667   4.399   0.690   5.374
53590SOL    HW262668   4.293   0.764   5.453
53591SOL     OW62669   0.816   7.400  13.227
53591SOL    HW162670   0.825   7.327  13.288
53591SOL    HW262671   0.767   7.466  13.275
53592SOL     OW62672   2.431   5.198  13.897
53592SOL    HW162673   2.392   5.208  13.984
53592SOL    HW262674   2.389   5.121  13.860
53593SOL     OW62675  11.891  10.741  13.045
53593SOL    HW162676  11.950  10.694  13.104
53593SOL    HW262677  11.877  10.681  12.972
53594SOL     OW62678  13.709   2.389   0.687
53594SOL    HW162679  13.655   2.468   0.692
53594SOL    HW262680  13.727   2.366   0.778
53595SOL     OW62681   9.977  11.342   1.078
53595SOL    HW162682  10.052  11.397   1.101
53595SOL    HW262683   9.981  11.268   1.139
53596SOL     OW62684  13.246   3.896   4.528
53596SOL    HW162685  13.262   3.977   4.576
53596SOL    HW262686  13.287   3.828   4.582
53597SOL     OW62687  13.524  14.354   7.126
53597SOL    HW162688  13.575  14.332   7.204
53597SOL    HW262689  13.486  14.271   7.097
53598SOL     OW62690   1.802   2.925   8.069
53598SOL    HW162691   1.785   2.904   8.161
53598SOL    HW262692   1.749   3.003   8.051
53599SOL     OW62693  10.447   5.988  10.769
53599SOL    HW162694  10.450   5.911  10.826
53599SOL    HW262695  10.363   5.981  10.723
53600SOL     OW62696  13.535  13.938   1.040
53600SOL    HW162697  13.440  13.945   1.033
53600SOL    HW262698  13.551  13.848   1.070
53601SOL     OW62699   0.119  13.470   6.748
53601SOL    HW162700   0.131  13.417   6.826
53601SOL    HW262701   0.105  13.559   6.781
53602SOL     OW62702  14.279   7.975   2.570
53602SOL    HW162703  14.315   8.011   2.489
53602SOL    HW262704  14.290   8.045   2.634
53603SOL     OW62705   0.694   7.160   3.378
53603SOL    HW162706   0.776   7.116   3.399
53603SOL    HW262707   0.642   7.094   3.332
53604SOL     OW62708   1.292   1.405   0.555
53604SOL    HW162709   1.280   1.338   0.487
53604SOL    HW262710   1.269   1.361   0.636
53605SOL     OW62711  11.138   9.853   8.299
53605SOL    HW162712  11.045   9.846   8.279
53605SOL    HW262713  11.170   9.762   8.294
53606SOL     OW62714   0.162   8.957   4.499
53606SOL    HW162715   0.250   8.936   4.465
53606SOL    HW262716   0.175   9.037   4.551
53607SOL     OW62717  13.456   5.112  10.525
53607SOL    HW162718  13.457   5.019  10.503
53607SOL    HW262719  13.547   5.139  10.520
53608SOL     OW62720  10.867   1.201   4.365
53608SOL    HW162721  10.790   1.146   4.351
53608SOL    HW262722  10.934   1.165   4.306
53609SOL     OW62723   3.608   0.838   0.224
53609SOL    HW162724   3.662   0.912   0.198
53609SOL    HW262725   3.549   0.824   0.149
53610SOL     OW62726   7.413  14.157   4.029
53610SOL    HW162727   7.494  14.208   4.017
53610SOL    HW262728   7.352  14.194   3.965
53611SOL     OW62729  11.267   1.438   7.302
53611SOL    HW162730  11.314   1.512   7.341
53611SOL    HW262731  11.213   1.478   7.234
53612SOL     OW62732   0.414   2.536   3.253
53612SOL    HW162733   0.465   2.471   3.301
53612SOL    HW262734   0.331   2.491   3.234
53613SOL     OW62735   3.551   8.041   2.698
53613SOL    HW162736   3.543   7.948   2.677
53613SOL    HW262737   3.495   8.085   2.634
53614SOL     OW62738  10.006   1.868  14.015
53614SOL    HW162739   9.959   1.788  13.992
53614SOL    HW262740   9.940   1.923  14.057
53615SOL     OW62741  10.985  12.604   8.613
53615SOL    HW162742  10.909  12.584   8.668
53615SOL    HW262743  10.995  12.699   8.620
53616SOL     OW62744  14.184   3.326   0.780
53616SOL    HW162745  14.254   3.378   0.819
53616SOL    HW262746  14.156   3.377   0.704
53617SOL     OW62747  10.259   3.663  14.013
53617SOL    HW162748  10.248   3.646  14.106
53617SOL    HW262749  10.251   3.578  13.971
53618SOL     OW62750   7.474  12.429   0.067
53618SOL    HW162751   7.474  12.479   0.148
53618SOL    HW262752   7.554  12.455   0.022
53619SOL     OW62753   1.502  14.303   2.632
53619SOL    HW162754   1.439  14.234   2.652
53619SOL    HW262755   1.557  14.267   2.563
53620SOL     OW62756   9.307   9.832   7.285
53620SOL    HW162757   9.369   9.783   7.232
53620SOL    HW262758   9.271   9.897   7.226
53621SOL     OW62759   0.823   4.695   6.227
53621SOL    HW162760   0.775   4.661   6.151
53621SOL    HW262761   0.887   4.627   6.247
53622SOL     OW62762   9.741   0.885   7.699
53622SOL    HW162763   9.813   0.822   7.709
53622SOL    HW262764   9.664   0.839   7.731
53623SOL     OW62765  10.443   8.907   8.173
53623SOL    HW162766  10.360   8.875   8.208
53623SOL    HW262767  10.487   8.946   8.249
53624SOL     OW62768  14.768   8.725   7.447
53624SOL    HW162769  14.770   8.653   7.510
53624SOL    HW262770  14.676   8.752   7.444
53625SOL     OW62771   6.403   0.406  11.565
53625SOL    HW162772   6.456   0.387  11.487
53625SOL    HW262773   6.314   0.413  11.532
53626SOL     OW62774   3.282   1.751  10.395
53626SOL    HW162775   3.376   1.758  10.412
53626SOL    HW262776   3.276   1.694  10.318
53627SOL     OW62777   6.747  13.599   6.641
53627SOL    HW162778   6.765  13.511   6.674
53627SOL    HW262779   6.811  13.655   6.685
53628SOL     OW62780  10.041   6.276  14.221
53628SOL    HW162781  10.018   6.366  14.197
53628SOL    HW262782  10.091   6.243  14.147
53629SOL     OW62783   8.419  12.510  10.788
53629SOL    HW162784   8.441  12.520  10.696
53629SOL    HW262785   8.412  12.416  10.802
53630SOL     OW62786   3.751   8.291  14.139
53630SOL    HW162787   3.667   8.338  14.133
53630SOL    HW262788   3.766   8.258  14.050
53631SOL     OW62789   6.576   0.622  10.607
53631SOL    HW162790   6.665   0.625  10.641
53631SOL    HW262791   6.536   0.704  10.637
53632SOL     OW62792   7.299   0.893  12.251
53632SOL    HW162793   7.325   0.804  12.272
53632SOL    HW262794   7.378   0.945  12.264
53633SOL     OW62795   8.519   9.493   2.739
53633SOL    HW162796   8.435   9.460   2.770
53633SOL    HW262797   8.497   9.572   2.689
53634SOL     OW62798   5.679   7.777   9.650
53634SOL    HW162799   5.583   7.771   9.653
53634SOL    HW262800   5.698   7.867   9.679
53635SOL     OW62801   0.133   6.285  13.373
53635SOL    HW162802   0.080   6.243  13.440
53635SOL    HW262803   0.212   6.314  13.419
53636SOL     OW62804   7.842  10.997   8.082
53636SOL    HW162805   7.767  11.007   8.140
53636SOL    HW262806   7.804  10.976   7.997
53637SOL     OW62807   2.259  14.538   1.027
53637SOL    HW162808   2.330  14.489   0.987
53637SOL    HW262809   2.285  14.546   1.119
53638SOL     OW62810  13.572  10.823   9.134
53638SOL    HW162811  13.480  10.808   9.113
53638SOL    HW262812  13.599  10.744   9.182
53639SOL     OW62813   8.816   3.993   2.113
53639SOL    HW162814   8.855   3.926   2.168
53639SOL    HW262815   8.890   4.044   2.080
53640SOL     OW62816   5.973   9.031   3.043
53640SOL    HW162817   5.943   8.941   3.051
53640SOL    HW262818   6.026   9.033   2.963
53641SOL     OW62819   9.566   6.129  10.683
53641SOL    HW162820   9.516   6.199  10.725
53641SOL    HW262821   9.626   6.174  10.623
53642SOL     OW62822   9.130   5.527  14.649
53642SOL    HW162823   9.127   5.445  14.600
53642SOL    HW262824   9.209   5.572  14.617
53643SOL     OW62825   2.149   4.439  14.721
53643SOL    HW162826   2.105   4.516  14.686
53643SOL    HW262827   2.242   4.452  14.698
53644SOL     OW62828   9.370   6.352   6.032
53644SOL    HW162829   9.279   6.329   6.013
53644SOL    HW262830   9.421   6.279   5.995
53645SOL     OW62831  10.486   1.899   6.785
53645SOL    HW162832  10.525   1.900   6.872
53645SOL    HW262833  10.398   1.864   6.798
53646SOL     OW62834   6.160   2.127   1.016
53646SOL    HW162835   6.215   2.196   0.979
53646SOL    HW262836   6.135   2.160   1.103
53647SOL     OW62837  10.400   6.612  14.806
53647SOL    HW162838  10.335   6.680  14.823
53647SOL    HW262839  10.478   6.642  14.853
53648SOL     OW62840  13.866  10.518   1.201
53648SOL    HW162841  13.835  10.593   1.251
53648SOL    HW262842  13.811  10.518   1.122
53649SOL     OW62843  10.637   4.188  13.267
53649SOL    HW162844  10.639   4.115  13.205
53649SOL    HW262845  10.592   4.152  13.344
53650SOL     OW62846   4.931   4.454   3.736
53650SOL    HW162847   4.943   4.488   3.824
53650SOL    HW262848   4.973   4.519   3.679
53651SOL     OW62849   7.770  14.375  14.645
53651SOL    HW162850   7.794  14.372  14.552
53651SOL    HW262851   7.845  14.336  14.690
53652SOL     OW62852   7.703   0.070  14.600
53652SOL    HW162853   7.619   0.031  14.622
53652SOL    HW262854   7.736   0.106  14.683
53653SOL     OW62855   2.389  12.209   6.079
53653SOL    HW162856   2.323  12.185   6.144
53653SOL    HW262857   2.436  12.282   6.119
53654SOL     OW62858   0.295  13.251  14.240
53654SOL    HW162859   0.279  13.346  14.241
53654SOL    HW262860   0.391  13.243  14.234
53655SOL     OW62861  10.568   2.738   0.971
53655SOL    HW162862  10.638   2.799   0.947
53655SOL    HW262863  10.573   2.732   1.066
53656SOL     OW62864  13.577  13.018  12.375
53656SOL    HW162865  13.530  12.944  12.336
53656SOL    HW262866  13.643  12.977  12.431
53657SOL     OW62867  14.317  14.072   5.893
53657SOL    HW162868  14.246  14.008   5.891
53657SOL    HW262869  14.274  14.156   5.876
53658SOL     OW62870   1.336  11.010   4.005
53658SOL    HW162871   1.328  11.097   3.966
53658SOL    HW262872   1.431  10.995   4.008
53659SOL     OW62873   2.273  13.236   3.609
53659SOL    HW162874   2.323  13.171   3.659
53659SOL    HW262875   2.223  13.283   3.676
53660SOL     OW62876   8.187   1.491   4.805
53660SOL    HW162877   8.176   1.586   4.799
53660SOL    HW262878   8.165   1.459   4.718
53661SOL     OW62879  13.831   3.521  14.678
53661SOL    HW162880  13.884   3.600  14.666
53661SOL    HW262881  13.742   3.548  14.654
53662SOL     OW62882  11.273   3.277   9.632
53662SOL    HW162883  11.229   3.240   9.709
53662SOL    HW262884  11.359   3.303   9.665
53663SOL     OW62885  11.712   2.930   1.848
53663SOL    HW162886  11.792   2.964   1.890
53663SOL    HW262887  11.682   2.861   1.908
53664SOL     OW62888   3.661  13.955  14.423
53664SOL    HW162889   3.618  13.874  14.451
53664SOL    HW262890   3.725  13.927  14.358
53665SOL     OW62891   7.423  12.390   3.970
53665SOL    HW162892   7.483  12.366   3.900
53665SOL    HW262893   7.409  12.484   3.959
53666SOL     OW62894   4.826   2.480   2.902
53666SOL    HW162895   4.827   2.385   2.889
53666SOL    HW262896   4.748   2.496   2.955
53667SOL     OW62897   8.594   2.696   3.428
53667SOL    HW162898   8.553   2.624   3.475
53667SOL    HW262899   8.640   2.653   3.355
53668SOL     OW62900   0.252   7.955  10.802
53668SOL    HW162901   0.341   7.967  10.836
53668SOL    HW262902   0.218   7.879  10.849
53669SOL     OW62903   9.234   8.322   1.651
53669SOL    HW162904   9.151   8.356   1.685
53669SOL    HW262905   9.265   8.390   1.591
53670SOL     OW62906   2.954   4.797   1.436
53670SOL    HW162907   2.888   4.746   1.482
53670SOL    HW262908   2.911   4.825   1.355
53671SOL     OW62909   8.449   1.492   6.131
53671SOL    HW162910   8.387   1.497   6.204
53671SOL    HW262911   8.527   1.536   6.164
53672SOL     OW62912   5.632   3.317   8.345
53672SOL    HW162913   5.568   3.264   8.299
53672SOL    HW262914   5.587   3.400   8.363
53673SOL     OW62915  10.203   8.180   8.014
53673SOL    HW162916  10.282   8.138   8.049
53673SOL    HW262917  10.232   8.268   7.989
53674SOL     OW62918   2.709  14.700   0.709
53674SOL    HW162919   2.747  14.754   0.779
53674SOL    HW262920   2.641  14.755   0.671
53675SOL     OW62921  12.150   2.111   9.882
53675SOL    HW162922  12.220   2.077   9.826
53675SOL    HW262923  12.074   2.119   9.824
53676SOL     OW62924   6.094  10.061   7.484
53676SOL    HW162925   6.187  10.041   7.472
53676SOL    HW262926   6.055   9.977   7.507
53677SOL     OW62927  14.743   3.422   6.846
53677SOL    HW162928  14.709   3.487   6.908
53677SOL    HW262929  14.837   3.420   6.863
53678SOL     OW62930   2.132   3.912   8.904
53678SOL    HW162931   2.122   3.962   8.823
53678SOL    HW262932   2.052   3.932   8.954
53679SOL     OW62933   4.704   9.995   9.652
53679SOL    HW162934   4.770   9.929   9.674
53679SOL    HW262935   4.683  10.037   9.735
53680SOL     OW62936   3.013   0.613   4.585
53680SOL    HW162937   2.929   0.658   4.595
53680SOL    HW262938   2.997   0.549   4.515
53681SOL     OW62939   6.010   6.428   8.347
53681SOL    HW162940   5.995   6.423   8.252
53681SOL    HW262941   6.056   6.347   8.368
53682SOL     OW62942   3.182   6.563  11.974
53682SOL    HW162943   3.227   6.605  12.048
53682SOL    HW262944   3.235   6.485  11.955
53683SOL     OW62945   2.219   7.002   7.038
53683SOL    HW162946   2.231   6.940   7.110
53683SOL    HW262947   2.303   7.000   6.991
53684SOL     OW62948   3.612   2.787   3.414
53684SOL    HW162949   3.624   2.839   3.493
53684SOL    HW262950   3.575   2.848   3.350
53685SOL     OW62951   6.916   3.809   1.256
53685SOL    HW162952   6.956   3.736   1.208
53685SOL    HW262953   6.945   3.797   1.346
53686SOL     OW62954  10.537   4.784   0.331
53686SOL    HW162955  10.544   4.843   0.407
53686SOL    HW262956  10.507   4.840   0.260
53687SOL     OW62957   5.327   1.546   4.566
53687SOL    HW162958   5.404   1.503   4.529
53687SOL    HW262959   5.299   1.488   4.637
53688SOL     OW62960   3.505   6.108   2.204
53688SOL    HW162961   3.520   6.085   2.112
53688SOL    HW262962   3.593   6.118   2.241
53689SOL     OW62963   8.832   7.203   2.273
53689SOL    HW162964   8.835   7.220   2.179
53689SOL    HW262965   8.755   7.251   2.304
53690SOL     OW62966   1.265   8.950  10.281
53690SOL    HW162967   1.358   8.935  10.266
53690SOL    HW262968   1.226   8.951  10.194
53691SOL     OW62969  10.051   0.130   9.172
53691SOL    HW162970  10.081   0.154   9.084
53691SOL    HW262971   9.956   0.133   9.166
53692SOL     OW62972   8.546   7.552   6.168
53692SOL    HW162973   8.504   7.479   6.214
53692SOL    HW262974   8.555   7.621   6.234
53693SOL     OW62975   9.717  10.479  10.849
53693SOL    HW162976   9.682  10.392  10.831
53693SOL    HW262977   9.663  10.513  10.920
53694SOL     OW62978   9.005   2.379   5.079
53694SOL    HW162979   9.018   2.473   5.062
53694SOL    HW262980   8.916   2.373   5.113
53695SOL     OW62981   5.666   6.858   4.906
53695SOL    HW162982   5.709   6.802   4.970
53695SOL    HW262983   5.717   6.848   4.826
53696SOL     OW62984   1.572  11.268  14.176
53696SOL    HW162985   1.573  11.300  14.266
53696SOL    HW262986   1.515  11.191  14.179
53697SOL     OW62987   2.842   3.298  10.541
53697SOL    HW162988   2.931   3.262  10.538
53697SOL    HW262989   2.791   3.230  10.587
53698SOL     OW62990   0.884   7.112   0.867
53698SOL    HW162991   0.832   7.163   0.929
53698SOL    HW262992   0.863   7.150   0.782
53699SOL     OW62993  11.564  11.936  13.772
53699SOL    HW162994  11.599  11.866  13.716
53699SOL    HW262995  11.639  11.991  13.790
53700SOL     OW62996  12.051   7.353   0.192
53700SOL    HW162997  12.105   7.343   0.270
53700SOL    HW262998  11.977   7.295   0.206
53701SOL     OW62999   7.221  13.663   2.002
53701SOL    HW163000   7.275  13.713   1.941
53701SOL    HW263001   7.259  13.680   2.088
53702SOL     OW63002  12.469   5.553   8.441
53702SOL    HW163003  12.557   5.561   8.476
53702SOL    HW263004  12.448   5.640   8.408
53703SOL     OW63005  13.414   2.327   8.064
53703SOL    HW163006  13.441   2.401   8.009
53703SOL    HW263007  13.477   2.258   8.043
53704SOL     OW63008  10.751   7.355  12.487
53704SOL    HW163009  10.733   7.348  12.581
53704SOL    HW263010  10.667   7.381  12.448
53705SOL     OW63011   5.507   0.458  11.477
53705SOL    HW163012   5.566   0.517  11.430
53705SOL    HW263013   5.432   0.447  11.419
53706SOL     OW63014  13.250   2.796  14.132
53706SOL    HW163015  13.241   2.888  14.157
53706SOL    HW263016  13.208   2.747  14.204
53707SOL     OW63017  12.154   9.938   3.663
53707SOL    HW163018  12.152   9.948   3.758
53707SOL    HW263019  12.142   9.844   3.648
53708SOL     OW63020   2.596   5.236  14.197
53708SOL    HW163021   2.662   5.296  14.231
53708SOL    HW263022   2.630   5.149  14.217
53709SOL     OW63023  10.374   9.856   2.513
53709SOL    HW163024  10.319   9.873   2.590
53709SOL    HW263025  10.341   9.916   2.447
53710SOL     OW63026  10.204   3.053  13.114
53710SOL    HW163027  10.184   2.966  13.150
53710SOL    HW263028  10.285   3.078  13.158
53711SOL     OW63029   6.476  12.192  13.050
53711SOL    HW163030   6.545  12.126  13.061
53711SOL    HW263031   6.492  12.230  12.964
53712SOL     OW63032   2.164   0.745   8.213
53712SOL    HW163033   2.208   0.779   8.134
53712SOL    HW263034   2.074   0.775   8.203
53713SOL     OW63035   6.406   7.239   3.600
53713SOL    HW163036   6.449   7.291   3.667
53713SOL    HW263037   6.395   7.152   3.639
53714SOL     OW63038   1.855   5.768  12.571
53714SOL    HW163039   1.798   5.765  12.494
53714SOL    HW263040   1.839   5.685  12.616
53715SOL     OW63041   7.387   5.744   7.601
53715SOL    HW163042   7.336   5.693   7.539
53715SOL    HW263043   7.429   5.812   7.548
53716SOL     OW63044  10.683   5.078  13.562
53716SOL    HW163045  10.620   5.012  13.536
53716SOL    HW263046  10.665   5.092  13.655
53717SOL     OW63047  13.298  14.201   4.251
53717SOL    HW163048  13.269  14.275   4.303
53717SOL    HW263049  13.330  14.138   4.315
53718SOL     OW63050  10.892   4.982   0.703
53718SOL    HW163051  10.931   4.901   0.738
53718SOL    HW263052  10.929   4.990   0.615
53719SOL     OW63053   0.166  11.851   3.903
53719SOL    HW163054   0.178  11.833   3.810
53719SOL    HW263055   0.245  11.898   3.928
53720SOL     OW63056   2.894   5.988   4.434
53720SOL    HW163057   2.963   6.054   4.445
53720SOL    HW263058   2.939   5.904   4.441
53721SOL     OW63059  10.499   2.951  10.906
53721SOL    HW163060  10.465   2.900  10.980
53721SOL    HW263061  10.593   2.954  10.921
53722SOL     OW63062   1.525   7.719   9.697
53722SOL    HW163063   1.572   7.751   9.620
53722SOL    HW263064   1.470   7.648   9.664
53723SOL     OW63065   4.771   9.769   2.689
53723SOL    HW163066   4.759   9.767   2.594
53723SOL    HW263067   4.712   9.837   2.720
53724SOL     OW63068   4.666  13.268  13.214
53724SOL    HW163069   4.712  13.242  13.294
53724SOL    HW263070   4.736  13.280  13.150
53725SOL     OW63071   7.851   0.633   4.008
53725SOL    HW163072   7.795   0.663   4.079
53725SOL    HW263073   7.824   0.684   3.932
53726SOL     OW63074  11.278  12.826   7.499
53726SOL    HW163075  11.208  12.825   7.433
53726SOL    HW263076  11.274  12.739   7.539
53727SOL     OW63077  12.595   1.262   3.034
53727SOL    HW163078  12.657   1.223   3.096
53727SOL    HW263079  12.565   1.342   3.077
53728SOL     OW63080  11.703   5.205   5.028
53728SOL    HW163081  11.749   5.200   4.944
53728SOL    HW263082  11.767   5.242   5.089
53729SOL     OW63083   3.489   3.403   3.146
53729SOL    HW163084   3.439   3.387   3.066
53729SOL    HW263085   3.519   3.316   3.174
53730SOL     OW63086   2.137   2.238   3.503
53730SOL    HW163087   2.146   2.213   3.595
53730SOL    HW263088   2.044   2.254   3.491
53731SOL     OW63089   9.775   1.339   5.070
53731SOL    HW163090   9.731   1.375   5.146
53731SOL    HW263091   9.815   1.414   5.026
53732SOL     OW63092   0.867   2.509   8.673
53732SOL    HW163093   0.834   2.420   8.657
53732SOL    HW263094   0.857   2.554   8.590
53733SOL     OW63095   4.791   1.168   2.598
53733SOL    HW163096   4.780   1.149   2.691
53733SOL    HW263097   4.785   1.082   2.556
53734SOL     OW63098   6.359   1.183  10.954
53734SOL    HW163099   6.422   1.136  11.008
53734SOL    HW263100   6.393   1.272  10.948
53735SOL     OW63101   6.716   4.067   5.608
53735SOL    HW163102   6.669   4.075   5.525
53735SOL    HW263103   6.757   3.980   5.604
53736SOL     OW63104  11.504   5.957   7.061
53736SOL    HW163105  11.515   6.045   7.098
53736SOL    HW263106  11.558   5.901   7.117
53737SOL     OW63107  12.120  14.361   5.255
53737SOL    HW163108  12.081  14.306   5.187
53737SOL    HW263109  12.208  14.326   5.266
53738SOL     OW63110   2.933  12.232   9.250
53738SOL    HW163111   2.945  12.295   9.179
53738SOL    HW263112   2.902  12.284   9.324
53739SOL     OW63113  12.259  13.759   9.896
53739SOL    HW163114  12.272  13.811   9.975
53739SOL    HW263115  12.181  13.706   9.915
53740SOL     OW63116  12.584  13.581  12.933
53740SOL    HW163117  12.661  13.531  12.959
53740SOL    HW263118  12.561  13.546  12.847
53741SOL     OW63119   7.086   2.396   9.426
53741SOL    HW163120   7.065   2.454   9.353
53741SOL    HW263121   7.153   2.442   9.476
53742SOL     OW63122   6.043   2.402   9.942
53742SOL    HW163123   6.056   2.496   9.951
53742SOL    HW263124   6.089   2.378   9.862
53743SOL     OW63125   8.725   2.558  12.452
53743SOL    HW163126   8.774   2.497  12.396
53743SOL    HW263127   8.648   2.581  12.401
53744SOL     OW63128   9.897   5.504   1.007
53744SOL    HW163129   9.876   5.458   1.088
53744SOL    HW263130   9.902   5.596   1.032
53745SOL     OW63131  10.615   7.222  13.043
53745SOL    HW163132  10.531   7.266  13.058
53745SOL    HW263133  10.681   7.286  13.071
53746SOL     OW63134   0.802  10.520   9.751
53746SOL    HW163135   0.880  10.566   9.783
53746SOL    HW263136   0.782  10.456   9.820
53747SOL     OW63137   4.951  12.725   1.314
53747SOL    HW163138   5.042  12.746   1.334
53747SOL    HW263139   4.954  12.636   1.279
53748SOL     OW63140   2.356   7.563   0.550
53748SOL    HW163141   2.356   7.469   0.536
53748SOL    HW263142   2.443   7.592   0.524
53749SOL     OW63143  13.220   2.086   5.018
53749SOL    HW163144  13.130   2.108   5.041
53749SOL    HW263145  13.241   2.009   5.070
53750SOL     OW63146  13.144  13.935   4.089
53750SOL    HW163147  13.164  13.893   4.172
53750SOL    HW263148  13.229  13.943   4.045
53751SOL     OW63149  13.368   4.618   9.075
53751SOL    HW163150  13.363   4.615   8.980
53751SOL    HW263151  13.284   4.583   9.104
53752SOL     OW63152  13.775  12.210  13.081
53752SOL    HW163153  13.704  12.172  13.133
53752SOL    HW263154  13.854  12.194  13.132
53753SOL     OW63155   8.789   2.259   4.208
53753SOL    HW163156   8.785   2.353   4.192
53753SOL    HW263157   8.875   2.232   4.176
53754SOL     OW63158  10.746   5.528  14.622
53754SOL    HW163159  10.665   5.575  14.605
53754SOL    HW263160  10.809   5.564  14.559
53755SOL     OW63161  10.564  13.564   0.359
53755SOL    HW163162  10.636  13.510   0.391
53755SOL    HW263163  10.525  13.513   0.289
53756SOL     OW63164  12.916   0.804   4.512
53756SOL    HW163165  12.885   0.879   4.563
53756SOL    HW263166  12.885   0.728   4.561
53757SOL     OW63167  14.257   9.408   4.357
53757SOL    HW163168  14.291   9.390   4.444
53757SOL    HW263169  14.300   9.490   4.331
53758SOL     OW63170   5.685   2.813  12.628
53758SOL    HW163171   5.760   2.772  12.670
53758SOL    HW263172   5.706   2.907  12.628
53759SOL     OW63173   5.082   9.333   5.751
53759SOL    HW163174   5.145   9.269   5.783
53759SOL    HW263175   4.996   9.295   5.771
53760SOL     OW63176  10.221   2.191  12.735
53760SOL    HW163177  10.258   2.265  12.782
53760SOL    HW263178  10.132   2.219  12.714
53761SOL     OW63179   2.254   6.649   0.022
53761SOL    HW163180   2.166   6.648  14.855
53761SOL    HW263181   2.298   6.573  14.855
53762SOL     OW63182   3.576   9.842   4.528
53762SOL    HW163183   3.495   9.886   4.556
53762SOL    HW263184   3.591   9.775   4.594
53763SOL     OW63185   8.252   1.696   0.418
53763SOL    HW163186   8.334   1.732   0.452
53763SOL    HW263187   8.259   1.602   0.432
53764SOL     OW63188   7.703   3.901   5.210
53764SOL    HW163189   7.622   3.911   5.261
53764SOL    HW263190   7.689   3.957   5.133
53765SOL     OW63191   1.772   7.733   8.859
53765SOL    HW163192   1.863   7.752   8.883
53765SOL    HW263193   1.720   7.774   8.928
53766SOL     OW63194  11.209   2.844   7.082
53766SOL    HW163195  11.212   2.938   7.100
53766SOL    HW263196  11.122   2.829   7.045
53767SOL     OW63197  11.871   1.656  11.577
53767SOL    HW163198  11.776   1.652  11.583
53767SOL    HW263199  11.893   1.599  11.503
53768SOL     OW63200   1.248  10.372   3.450
53768SOL    HW163201   1.206  10.349   3.366
53768SOL    HW263202   1.220  10.462   3.467
53769SOL     OW63203   9.605   2.308  14.542
53769SOL    HW163204   9.606   2.355  14.459
53769SOL    HW263205   9.662   2.232  14.527
53770SOL     OW63206  13.420   7.499   5.158
53770SOL    HW163207  13.469   7.534   5.233
53770SOL    HW263208  13.397   7.576   5.106
53771SOL     OW63209   5.943   6.954  10.396
53771SOL    HW163210   5.980   6.883  10.344
53771SOL    HW263211   5.994   7.031  10.370
53772SOL     OW63212  14.240   2.439  13.544
53772SOL    HW163213  14.215   2.446  13.452
53772SOL    HW263214  14.189   2.508  13.588
53773SOL     OW63215   0.512   6.271  14.370
53773SOL    HW163216   0.513   6.233  14.282
53773SOL    HW263217   0.485   6.200  14.427
53774SOL     OW63218   6.774   1.365   3.769
53774SOL    HW163219   6.705   1.422   3.802
53774SOL    HW263220   6.749   1.345   3.679
53775SOL     OW63221  13.282   9.667  14.772
53775SOL    HW163222  13.215   9.685  14.838
53775SOL    HW263223  13.234   9.626  14.699
53776SOL     OW63224   6.477  13.576   6.737
53776SOL    HW163225   6.424  13.501   6.710
53776SOL    HW263226   6.556  13.571   6.684
53777SOL     OW63227  11.410   7.817   8.387
53777SOL    HW163228  11.370   7.739   8.348
53777SOL    HW263229  11.476   7.782   8.447
53778SOL     OW63230   3.813   2.791  13.237
53778SOL    HW163231   3.740   2.842  13.201
53778SOL    HW263232   3.806   2.803  13.332
53779SOL     OW63233  11.884   8.560   1.646
53779SOL    HW163234  11.876   8.464   1.646
53779SOL    HW263235  11.939   8.580   1.571
53780SOL     OW63236  11.363  14.769   3.275
53780SOL    HW163237  11.438  14.810   3.317
53780SOL    HW263238  11.346  14.823   3.198
53781SOL     OW63239  11.846   1.139   4.690
53781SOL    HW163240  11.780   1.077   4.660
53781SOL    HW263241  11.804   1.187   4.761
53782SOL     OW63242   4.146  11.153  10.802
53782SOL    HW163243   4.098  11.167  10.721
53782SOL    HW263244   4.238  11.165  10.779
53783SOL     OW63245   4.914   9.736  14.626
53783SOL    HW163246   4.829   9.715  14.666
53783SOL    HW263247   4.977   9.681  14.673
53784SOL     OW63248   1.285  14.133   6.720
53784SOL    HW163249   1.202  14.131   6.672
53784SOL    HW263250   1.274  14.204   6.783
53785SOL     OW63251   6.638   5.699  10.166
53785SOL    HW163252   6.667   5.767  10.226
53785SOL    HW263253   6.645   5.618  10.217
53786SOL     OW63254   7.980   7.360   8.355
53786SOL    HW163255   7.921   7.397   8.289
53786SOL    HW263256   8.015   7.436   8.402
53787SOL     OW63257   4.127   1.903   4.871
53787SOL    HW163258   4.122   1.863   4.958
53787SOL    HW263259   4.126   1.830   4.810
53788SOL     OW63260   5.189  11.028   6.613
53788SOL    HW163261   5.253  11.018   6.684
53788SOL    HW263262   5.226  10.978   6.540
53789SOL     OW63263  12.819   1.859   1.529
53789SOL    HW163264  12.788   1.939   1.571
53789SOL    HW263265  12.895   1.887   1.477
53790SOL     OW63266  13.679   7.678  13.044
53790SOL    HW163267  13.660   7.752  12.986
53790SOL    HW263268  13.637   7.702  13.127
53791SOL     OW63269   0.746   9.783   4.199
53791SOL    HW163270   0.696   9.855   4.159
53791SOL    HW263271   0.707   9.773   4.286
53792SOL     OW63272   4.416  13.284   8.765
53792SOL    HW163273   4.405  13.363   8.711
53792SOL    HW263274   4.403  13.212   8.704
53793SOL     OW63275  13.497   3.679  12.662
53793SOL    HW163276  13.517   3.695  12.570
53793SOL    HW263277  13.508   3.765  12.704
53794SOL     OW63278  12.863  14.011   0.522
53794SOL    HW163279  12.792  13.962   0.479
53794SOL    HW263280  12.892  14.074   0.456
53795SOL     OW63281   3.373   1.387  14.348
53795SOL    HW163282   3.350   1.330  14.422
53795SOL    HW263283   3.292   1.433  14.327
53796SOL     OW63284   6.863   5.476   7.842
53796SOL    HW163285   6.892   5.553   7.793
53796SOL    HW263286   6.943   5.427   7.859
53797SOL     OW63287   5.160  14.767   2.395
53797SOL    HW163288   5.082  14.814   2.366
53797SOL    HW263289   5.164  14.782   2.489
53798SOL     OW63290   6.868   8.480  14.865
53798SOL    HW163291   6.934   8.411  14.860
53798SOL    HW263292   6.913   8.558  14.834
53799SOL     OW63293   9.189  14.317   7.436
53799SOL    HW163294   9.167  14.301   7.344
53799SOL    HW263295   9.113  14.287   7.485
53800SOL     OW63296   4.028   4.576   1.537
53800SOL    HW163297   4.066   4.503   1.488
53800SOL    HW263298   3.951   4.537   1.580
53801SOL     OW63299   1.802  11.296  13.800
53801SOL    HW163300   1.787  11.263  13.889
53801SOL    HW263301   1.779  11.222  13.743
53802SOL     OW63302   4.187  11.507  13.467
53802SOL    HW163303   4.118  11.570  13.444
53802SOL    HW263304   4.259  11.528  13.408
53803SOL     OW63305  13.438   4.900  14.301
53803SOL    HW163306  13.451   4.903  14.206
53803SOL    HW263307  13.422   4.991  14.326
53804SOL     OW63308   4.147   5.148   6.662
53804SOL    HW163309   4.075   5.109   6.613
53804SOL    HW263310   4.105   5.210   6.722
53805SOL     OW63311   9.799  11.397   1.360
53805SOL    HW163312   9.869  11.338   1.332
53805SOL    HW263313   9.811  11.404   1.455
53806SOL     OW63314  12.717  11.403  11.219
53806SOL    HW163315  12.673  11.477  11.261
53806SOL    HW263316  12.697  11.413  11.126
53807SOL     OW63317   9.776  10.635  13.916
53807SOL    HW163318   9.765  10.665  14.006
53807SOL    HW263319   9.773  10.539  13.923
53808SOL     OW63320  13.476   1.714   5.792
53808SOL    HW163321  13.497   1.664   5.871
53808SOL    HW263322  13.550   1.773   5.780
53809SOL     OW63323   5.446  11.014   6.200
53809SOL    HW163324   5.486  10.928   6.187
53809SOL    HW263325   5.520  11.073   6.212
53810SOL     OW63326  14.593   0.442   9.667
53810SOL    HW163327  14.570   0.513   9.608
53810SOL    HW263328  14.517   0.431   9.723
53811SOL     OW63329  14.165   7.456  11.369
53811SOL    HW163330  14.201   7.530  11.319
53811SOL    HW263331  14.134   7.395  11.302
53812SOL     OW63332   7.822  10.516   3.281
53812SOL    HW163333   7.763  10.441   3.267
53812SOL    HW263334   7.856  10.537   3.195
53813SOL     OW63335   5.066  10.715  13.370
53813SOL    HW163336   4.972  10.713  13.351
53813SOL    HW263337   5.100  10.636  13.328
53814SOL     OW63338  10.626  10.571   4.577
53814SOL    HW163339  10.710  10.549   4.536
53814SOL    HW263340  10.609  10.661   4.551
53815SOL     OW63341   1.819  12.016   6.533
53815SOL    HW163342   1.750  11.997   6.596
53815SOL    HW263343   1.821  11.939   6.476
53816SOL     OW63344   5.279   6.713  14.060
53816SOL    HW163345   5.277   6.634  14.006
53816SOL    HW263346   5.277   6.785  13.997
53817SOL     OW63347   0.796  10.432  13.700
53817SOL    HW163348   0.744  10.354  13.677
53817SOL    HW263349   0.774  10.495  13.632
53818SOL     OW63350   7.547   1.112   4.226
53818SOL    HW163351   7.469   1.060   4.246
53818SOL    HW263352   7.550   1.177   4.297
53819SOL     OW63353   2.749   4.472  12.354
53819SOL    HW163354   2.834   4.439  12.325
53819SOL    HW263355   2.715   4.404  12.411
53820SOL     OW63356  14.507   5.904   1.519
53820SOL    HW163357  14.534   5.911   1.428
53820SOL    HW263358  14.438   5.838   1.518
53821SOL     OW63359   0.509  14.058   8.295
53821SOL    HW163360   0.468  13.976   8.322
53821SOL    HW263361   0.487  14.120   8.365
53822SOL     OW63362  13.017   8.731   6.193
53822SOL    HW163363  13.009   8.635   6.200
53822SOL    HW263364  13.100   8.752   6.236
53823SOL     OW63365   2.961   4.968   8.548
53823SOL    HW163366   3.037   5.026   8.555
53823SOL    HW263367   2.997   4.885   8.516
53824SOL     OW63368  11.650   4.059   7.340
53824SOL    HW163369  11.681   4.076   7.429
53824SOL    HW263370  11.566   4.015   7.353
53825SOL     OW63371   7.495  12.297  12.020
53825SOL    HW163372   7.525  12.280  12.109
53825SOL    HW263373   7.402  12.319  12.029
53826SOL     OW63374  12.983  14.409  13.645
53826SOL    HW163375  12.936  14.456  13.575
53826SOL    HW263376  13.075  14.434  13.632
53827SOL     OW63377   7.797   2.466  10.844
53827SOL    HW163378   7.778   2.509  10.761
53827SOL    HW263379   7.889   2.485  10.860
53828SOL     OW63380   7.976   5.354   3.535
53828SOL    HW163381   7.951   5.328   3.447
53828SOL    HW263382   7.895   5.390   3.573
53829SOL     OW63383   0.852   9.371   7.022
53829SOL    HW163384   0.897   9.293   7.054
53829SOL    HW263385   0.916   9.441   7.034
53830SOL     OW63386   3.774   6.335   8.489
53830SOL    HW163387   3.767   6.361   8.397
53830SOL    HW263388   3.687   6.350   8.525
53831SOL     OW63389  14.259   3.178   4.319
53831SOL    HW163390  14.281   3.135   4.236
53831SOL    HW263391  14.325   3.148   4.381
53832SOL     OW63392  13.686  13.388   1.659
53832SOL    HW163393  13.710  13.404   1.750
53832SOL    HW263394  13.769  13.370   1.614
53833SOL     OW63395   6.916   3.303  12.070
53833SOL    HW163396   6.866   3.368  12.119
53833SOL    HW263397   6.940   3.237  12.135
53834SOL     OW63398  11.447   7.491   9.368
53834SOL    HW163399  11.496   7.532   9.439
53834SOL    HW263400  11.356   7.495   9.395
53835SOL     OW63401   5.850   9.139   9.928
53835SOL    HW163402   5.757   9.132   9.950
53835SOL    HW263403   5.894   9.152  10.012
53836SOL     OW63404  13.636   8.933   6.487
53836SOL    HW163405  13.731   8.925   6.486
53836SOL    HW263406  13.604   8.848   6.458
53837SOL     OW63407   3.180  12.927   3.464
53837SOL    HW163408   3.150  12.939   3.374
53837SOL    HW263409   3.272  12.953   3.463
53838SOL     OW63410   6.323   5.082   2.496
53838SOL    HW163411   6.337   5.114   2.585
53838SOL    HW263412   6.410   5.053   2.467
53839SOL     OW63413  13.739   6.470  11.688
53839SOL    HW163414  13.720   6.559  11.660
53839SOL    HW263415  13.798   6.481  11.763
53840SOL     OW63416  14.289   4.949   6.036
53840SOL    HW163417  14.229   5.008   5.990
53840SOL    HW263418  14.246   4.933   6.120
53841SOL     OW63419   9.275   2.224  10.886
53841SOL    HW163420   9.324   2.249  10.965
53841SOL    HW263421   9.343   2.205  10.821
53842SOL     OW63422   8.397   7.356   8.594
53842SOL    HW163423   8.387   7.320   8.506
53842SOL    HW263424   8.385   7.281   8.652
53843SOL     OW63425  13.063   8.155  11.454
53843SOL    HW163426  13.129   8.218  11.482
53843SOL    HW263427  13.098   8.118  11.373
53844SOL     OW63428  10.187   9.975   0.557
53844SOL    HW163429  10.230   9.941   0.479
53844SOL    HW263430  10.126  10.041   0.524
53845SOL     OW63431  13.606   0.700  14.344
53845SOL    HW163432  13.539   0.717  14.411
53845SOL    HW263433  13.689   0.713  14.389
53846SOL     OW63434   9.765   9.242  13.894
53846SOL    HW163435   9.673   9.220  13.908
53846SOL    HW263436   9.769   9.267  13.802
53847SOL     OW63437  14.504  10.364   2.219
53847SOL    HW163438  14.484  10.401   2.305
53847SOL    HW263439  14.444  10.290   2.211
53848SOL     OW63440  14.530  13.292   5.327
53848SOL    HW163441  14.527  13.336   5.242
53848SOL    HW263442  14.623  13.286   5.348
53849SOL     OW63443   2.686   6.743  13.235
53849SOL    HW163444   2.627   6.803  13.280
53849SOL    HW263445   2.677   6.765  13.142
53850SOL     OW63446   2.138   1.155  13.217
53850SOL    HW163447   2.131   1.221  13.286
53850SOL    HW263448   2.120   1.072  13.261
53851SOL     OW63449   6.668  11.292   3.111
53851SOL    HW163450   6.688  11.375   3.067
53851SOL    HW263451   6.727  11.228   3.072
53852SOL     OW63452  11.425  12.245   5.288
53852SOL    HW163453  11.359  12.307   5.260
53852SOL    HW263454  11.494  12.299   5.327
53853SOL     OW63455   9.223  14.467   6.897
53853SOL    HW163456   9.207  14.527   6.824
53853SOL    HW263457   9.154  14.401   6.889
53854SOL     OW63458   4.003  12.614   1.231
53854SOL    HW163459   4.013  12.606   1.136
53854SOL    HW263460   4.032  12.703   1.251
53855SOL     OW63461  11.593   0.711   8.428
53855SOL    HW163462  11.580   0.648   8.499
53855SOL    HW263463  11.603   0.658   8.349
53856SOL     OW63464   8.688  11.686   3.064
53856SOL    HW163465   8.746  11.761   3.049
53856SOL    HW263466   8.617  11.698   3.002
53857SOL     OW63467   8.397   2.370   3.400
53857SOL    HW163468   8.392   2.336   3.489
53857SOL    HW263469   8.376   2.295   3.344
53858SOL     OW63470   6.438   6.083   0.088
53858SOL    HW163471   6.350   6.105   0.119
53858SOL    HW263472   6.490   6.075   0.167
53859SOL     OW63473   2.183   4.625   7.421
53859SOL    HW163474   2.206   4.603   7.511
53859SOL    HW263475   2.163   4.718   7.423
53860SOL     OW63476   1.949   8.466   3.011
53860SOL    HW163477   2.021   8.418   2.971
53860SOL    HW263478   1.872   8.440   2.961
53861SOL     OW63479   9.001   3.060  10.875
53861SOL    HW163480   8.994   2.967  10.897
53861SOL    HW263481   8.911   3.093  10.878
53862SOL     OW63482  11.632   0.663   3.291
53862SOL    HW163483  11.575   0.734   3.321
53862SOL    HW263484  11.699   0.707   3.238
53863SOL     OW63485   6.982   5.023  14.692
53863SOL    HW163486   7.058   5.007  14.636
53863SOL    HW263487   6.940   5.100  14.654
53864SOL     OW63488   5.527   9.560  10.116
53864SOL    HW163489   5.598   9.578  10.055
53864SOL    HW263490   5.568   9.514  10.189
53865SOL     OW63491   5.974   1.543   6.853
53865SOL    HW163492   6.066   1.537   6.877
53865SOL    HW263493   5.974   1.567   6.761
53866SOL     OW63494   5.640  10.527   2.896
53866SOL    HW163495   5.669  10.597   2.837
53866SOL    HW263496   5.689  10.542   2.977
53867SOL     OW63497   0.684  12.029   0.724
53867SOL    HW163498   0.606  12.017   0.779
53867SOL    HW263499   0.755  12.045   0.786
53868SOL     OW63500   1.509   9.944   7.703
53868SOL    HW163501   1.588   9.945   7.757
53868SOL    HW263502   1.474  10.033   7.710
53869SOL     OW63503  14.023   8.028   0.151
53869SOL    HW163504  14.093   8.029   0.085
53869SOL    HW263505  13.987   7.940   0.144
53870SOL     OW63506  11.292   3.432   1.281
53870SOL    HW163507  11.287   3.440   1.376
53870SOL    HW263508  11.358   3.496   1.255
53871SOL     OW63509  11.789   9.848   6.289
53871SOL    HW163510  11.770   9.893   6.207
53871SOL    HW263511  11.704   9.843   6.333
53872SOL     OW63512   5.667  14.140   0.384
53872SOL    HW163513   5.637  14.231   0.393
53872SOL    HW263514   5.761  14.146   0.370
53873SOL     OW63515   8.012   6.176  11.336
53873SOL    HW163516   8.013   6.096  11.283
53873SOL    HW263517   8.090   6.224  11.309
53874SOL     OW63518   3.528  11.209   3.291
53874SOL    HW163519   3.587  11.134   3.282
53874SOL    HW263520   3.585  11.281   3.318
53875SOL     OW63521  12.883   8.217   1.691
53875SOL    HW163522  12.927   8.263   1.762
53875SOL    HW263523  12.858   8.132   1.729
53876SOL     OW63524   4.681  10.424   8.122
53876SOL    HW163525   4.682  10.380   8.207
53876SOL    HW263526   4.711  10.513   8.141
53877SOL     OW63527   5.238   2.577   7.597
53877SOL    HW163528   5.326   2.611   7.612
53877SOL    HW263529   5.180   2.653   7.610
53878SOL     OW63530   3.863   3.413   2.170
53878SOL    HW163531   3.904   3.486   2.217
53878SOL    HW263532   3.769   3.429   2.176
53879SOL     OW63533   6.969   4.644   1.100
53879SOL    HW163534   6.875   4.662   1.090
53879SOL    HW263535   6.973   4.552   1.127
53880SOL     OW63536  11.456   3.673   7.804
53880SOL    HW163537  11.478   3.737   7.871
53880SOL    HW263538  11.509   3.596   7.826
53881SOL     OW63539  14.577   9.574   6.498
53881SOL    HW163540  14.554   9.667   6.495
53881SOL    HW263541  14.535   9.541   6.577
53882SOL     OW63542   2.793  12.157   8.466
53882SOL    HW163543   2.769  12.075   8.510
53882SOL    HW263544   2.869  12.189   8.515
53883SOL     OW63545  12.487  10.902   9.104
53883SOL    HW163546  12.405  10.877   9.147
53883SOL    HW263547  12.476  10.995   9.086
53884SOL     OW63548  13.734   3.089   3.978
53884SOL    HW163549  13.776   3.132   4.052
53884SOL    HW263550  13.646   3.066   4.009
53885SOL     OW63551   6.398  10.682   8.141
53885SOL    HW163552   6.387  10.730   8.223
53885SOL    HW263553   6.476  10.629   8.155
53886SOL     OW63554   5.305   8.669  12.371
53886SOL    HW163555   5.373   8.601  12.377
53886SOL    HW263556   5.341   8.743  12.419
53887SOL     OW63557   8.876  12.030   9.968
53887SOL    HW163558   8.877  12.121   9.939
53887SOL    HW263559   8.795  11.995   9.932
53888SOL     OW63560  13.865  10.376   0.553
53888SOL    HW163561  13.891  10.420   0.472
53888SOL    HW263562  13.924  10.301   0.560
53889SOL     OW63563   0.439   3.001   8.276
53889SOL    HW163564   0.379   2.931   8.250
53889SOL    HW263565   0.486   3.024   8.196
53890SOL     OW63566  10.933  12.498   9.014
53890SOL    HW163567  10.980  12.433   8.963
53890SOL    HW263568  10.949  12.473   9.105
53891SOL     OW63569   8.769   4.972   2.241
53891SOL    HW163570   8.681   5.010   2.234
53891SOL    HW263571   8.766   4.895   2.185
53892SOL     OW63572   5.164  12.817  11.865
53892SOL    HW163573   5.143  12.897  11.816
53892SOL    HW263574   5.250  12.792  11.832
53893SOL     OW63575  14.439  14.193  13.468
53893SOL    HW163576  14.491  14.113  13.468
53893SOL    HW263577  14.376  14.181  13.397
53894SOL     OW63578   4.409   4.873   1.776
53894SOL    HW163579   4.321   4.846   1.803
53894SOL    HW263580   4.466   4.841   1.846
53895SOL     OW63581  10.021  11.561  14.443
53895SOL    HW163582   9.942  11.514  14.415
53895SOL    HW263583  10.007  11.651  14.413
53896SOL     OW63584   9.442   1.463   7.773
53896SOL    HW163585   9.514   1.506   7.819
53896SOL    HW263586   9.378   1.443   7.842
53897SOL     OW63587   7.108   2.568  12.481
53897SOL    HW163588   7.166   2.558  12.406
53897SOL    HW263589   7.105   2.662  12.497
53898SOL     OW63590   9.595   9.944   9.286
53898SOL    HW163591   9.534   9.870   9.287
53898SOL    HW263592   9.585   9.981   9.198
53899SOL     OW63593   9.354   2.917   8.648
53899SOL    HW163594   9.425   2.859   8.675
53899SOL    HW263595   9.276   2.862   8.650
53900SOL     OW63596   1.276   5.876  12.994
53900SOL    HW163597   1.280   5.972  13.000
53900SOL    HW263598   1.280   5.846  13.084
53901SOL     OW63599   6.154   0.631  12.693
53901SOL    HW163600   6.091   0.700  12.716
53901SOL    HW263601   6.140   0.616  12.600
53902SOL     OW63602   0.557  10.210   5.433
53902SOL    HW163603   0.616  10.231   5.361
53902SOL    HW263604   0.614  10.189   5.506
53903SOL     OW63605   1.581   4.126  12.570
53903SOL    HW163606   1.496   4.125  12.526
53903SOL    HW263607   1.615   4.037  12.558
53904SOL     OW63608   8.865  13.848  13.051
53904SOL    HW163609   8.802  13.888  13.112
53904SOL    HW263610   8.819  13.771  13.017
53905SOL     OW63611   4.884  13.150   7.743
53905SOL    HW163612   4.807  13.161   7.687
53905SOL    HW263613   4.929  13.234   7.739
53906SOL     OW63614   6.148   9.480   8.022
53906SOL    HW163615   6.061   9.514   8.041
53906SOL    HW263616   6.206   9.555   8.032
53907SOL     OW63617  11.962  11.276   8.742
53907SOL    HW163618  11.921  11.286   8.656
53907SOL    HW263619  11.992  11.364   8.764
53908SOL     OW63620  10.049   4.107   6.471
53908SOL    HW163621  10.086   4.068   6.550
53908SOL    HW263622  10.125   4.139   6.422
53909SOL     OW63623   2.676   5.523   9.052
53909SOL    HW163624   2.754   5.473   9.075
53909SOL    HW263625   2.702   5.614   9.064
53910SOL     OW63626  13.968  13.630   9.485
53910SOL    HW163627  13.951  13.575   9.562
53910SOL    HW263628  13.881  13.647   9.448
53911SOL     OW63629   6.958  11.395   0.609
53911SOL    HW163630   6.916  11.344   0.678
53911SOL    HW263631   7.002  11.466   0.656
53912SOL     OW63632   8.726   9.899   1.636
53912SOL    HW163633   8.763   9.912   1.723
53912SOL    HW263634   8.726   9.986   1.596
53913SOL     OW63635   0.622  10.619  11.355
53913SOL    HW163636   0.560  10.548  11.372
53913SOL    HW263637   0.685  10.614  11.428
53914SOL     OW63638  14.803   5.111   1.957
53914SOL    HW163639  14.800   5.204   1.980
53914SOL    HW263640  14.787   5.066   2.040
53915SOL     OW63641  13.122   2.347   7.202
53915SOL    HW163642  13.163   2.373   7.120
53915SOL    HW263643  13.192   2.355   7.267
53916SOL     OW63644   5.185   9.307   5.079
53916SOL    HW163645   5.114   9.371   5.088
53916SOL    HW263646   5.194   9.294   4.985
53917SOL     OW63647   1.151  10.848   3.000
53917SOL    HW163648   1.111  10.865   2.915
53917SOL    HW263649   1.244  10.867   2.988
53918SOL     OW63650  12.920  12.778   6.339
53918SOL    HW163651  12.826  12.762   6.336
53918SOL    HW263652  12.960  12.691   6.328
53919SOL     OW63653   1.885   2.013   8.039
53919SOL    HW163654   1.832   2.089   8.064
53919SOL    HW263655   1.957   2.011   8.103
53920SOL     OW63656  13.626  11.230  11.766
53920SOL    HW163657  13.662  11.296  11.824
53920SOL    HW263658  13.702  11.195  11.718
53921SOL     OW63659  14.114   4.459   7.243
53921SOL    HW163660  14.056   4.535   7.234
53921SOL    HW263661  14.200   4.496   7.261
53922SOL     OW63662  14.533   2.825  10.327
53922SOL    HW163663  14.612   2.856  10.371
53922SOL    HW263664  14.501   2.902  10.279
53923SOL     OW63665   3.039  12.215  13.486
53923SOL    HW163666   2.993  12.194  13.405
53923SOL    HW263667   3.102  12.143  13.498
53924SOL     OW63668  12.824   0.895   7.382
53924SOL    HW163669  12.764   0.890   7.308
53924SOL    HW263670  12.780   0.845   7.451
53925SOL     OW63671   6.991  11.718  13.239
53925SOL    HW163672   7.051  11.758  13.302
53925SOL    HW263673   6.991  11.779  13.164
53926SOL     OW63674  13.932   9.251  14.545
53926SOL    HW163675  13.840   9.253  14.571
53926SOL    HW263676  13.981   9.258  14.627
53927SOL     OW63677  13.314   3.207   9.531
53927SOL    HW163678  13.223   3.228   9.508
53927SOL    HW263679  13.366   3.246   9.461
53928SOL     OW63680  11.533   7.823  10.544
53928SOL    HW163681  11.617   7.780  10.529
53928SOL    HW263682  11.550   7.916  10.524
53929SOL     OW63683   3.812   0.366   3.990
53929SOL    HW163684   3.745   0.435   3.987
53929SOL    HW263685   3.763   0.285   3.976
53930SOL     OW63686   7.009   3.706   4.450
53930SOL    HW163687   7.100   3.692   4.477
53930SOL    HW263688   6.962   3.725   4.531
53931SOL     OW63689   3.327  14.592  11.002
53931SOL    HW163690   3.408  14.602  10.952
53931SOL    HW263691   3.295  14.504  10.980
53932SOL     OW63692   7.074   5.478   1.441
53932SOL    HW163693   7.066   5.384   1.426
53932SOL    HW263694   7.061   5.517   1.355
53933SOL     OW63695   8.991   2.798   3.160
53933SOL    HW163696   8.907   2.826   3.198
53933SOL    HW263697   9.054   2.863   3.191
53934SOL     OW63698  11.854   0.914   4.888
53934SOL    HW163699  11.889   0.964   4.962
53934SOL    HW263700  11.843   0.979   4.819
53935SOL     OW63701  12.009   2.742   3.110
53935SOL    HW163702  11.993   2.729   3.017
53935SOL    HW263703  11.928   2.780   3.143
53936SOL     OW63704   4.637  12.097  10.882
53936SOL    HW163705   4.652  12.184  10.918
53936SOL    HW263706   4.606  12.045  10.957
53937SOL     OW63707   9.359  11.110   7.779
53937SOL    HW163708   9.354  11.110   7.683
53937SOL    HW263709   9.322  11.025   7.804
53938SOL     OW63710  14.061   9.616  10.951
53938SOL    HW163711  14.148   9.576  10.948
53938SOL    HW263712  14.050   9.643  11.042
53939SOL     OW63713  10.130   0.664   4.482
53939SOL    HW163714  10.204   0.722   4.500
53939SOL    HW263715  10.121   0.665   4.387
53940SOL     OW63716   9.135   9.172   4.315
53940SOL    HW163717   9.228   9.192   4.325
53940SOL    HW263718   9.091   9.234   4.374
53941SOL     OW63719   7.292   2.305   6.663
53941SOL    HW163720   7.215   2.281   6.715
53941SOL    HW263721   7.336   2.222   6.644
53942SOL     OW63722   9.134  10.531   2.209
53942SOL    HW163723   9.157  10.607   2.262
53942SOL    HW263724   9.201  10.466   2.229
53943SOL     OW63725  13.306  13.635   9.378
53943SOL    HW163726  13.292  13.575   9.450
53943SOL    HW263727  13.362  13.704   9.414
53944SOL     OW63728   9.200   2.841   8.200
53944SOL    HW163729   9.190   2.749   8.225
53944SOL    HW263730   9.117   2.882   8.226
53945SOL     OW63731   6.682   0.945   6.987
53945SOL    HW163732   6.600   0.993   7.000
53945SOL    HW263733   6.675   0.870   7.047
53946SOL     OW63734   3.484   2.870  13.306
53946SOL    HW163735   3.536   2.869  13.225
53946SOL    HW263736   3.526   2.804  13.361
53947SOL     OW63737   5.256   2.437   2.473
53947SOL    HW163738   5.203   2.409   2.548
53947SOL    HW263739   5.197   2.429   2.398
53948SOL     OW63740   8.099  14.225  10.833
53948SOL    HW163741   8.007  14.243  10.852
53948SOL    HW263742   8.111  14.259  10.744
53949SOL     OW63743  10.672   8.071  11.464
53949SOL    HW163744  10.639   8.114  11.543
53949SOL    HW263745  10.597   8.069  11.404
53950SOL     OW63746  11.274   3.271   1.047
53950SOL    HW163747  11.270   3.331   1.121
53950SOL    HW263748  11.237   3.189   1.081
53951SOL     OW63749   2.400   4.279   6.400
53951SOL    HW163750   2.445   4.287   6.316
53951SOL    HW263751   2.464   4.239   6.458
53952SOL     OW63752  10.262  12.940   8.667
53952SOL    HW163753  10.322  12.869   8.646
53952SOL    HW263754  10.224  12.916   8.751
53953SOL     OW63755   7.581  11.738   9.456
53953SOL    HW163756   7.611  11.735   9.547
53953SOL    HW263757   7.488  11.716   9.461
53954SOL     OW63758   9.129   9.428  10.432
53954SOL    HW163759   9.118   9.462  10.520
53954SOL    HW263760   9.056   9.368  10.419
53955SOL     OW63761  11.126   5.697   2.690
53955SOL    HW163762  11.167   5.614   2.665
53955SOL    HW263763  11.191   5.764   2.670
53956SOL     OW63764   7.360  10.762  14.355
53956SOL    HW163765   7.385  10.769  14.448
53956SOL    HW263766   7.300  10.687  14.352
53957SOL     OW63767   5.267   4.430   6.736
53957SOL    HW163768   5.297   4.344   6.767
53957SOL    HW263769   5.305   4.439   6.649
53958SOL     OW63770   5.614  12.203  10.460
53958SOL    HW163771   5.678  12.213  10.531
53958SOL    HW263772   5.632  12.277  10.402
53959SOL     OW63773   4.779  12.496  14.223
53959SOL    HW163774   4.874  12.488  14.232
53959SOL    HW263775   4.763  12.590  14.229
53960SOL     OW63776  11.770  13.161   6.121
53960SOL    HW163777  11.857  13.148   6.159
53960SOL    HW263778  11.740  13.073   6.101
53961SOL     OW63779   0.927   4.273   2.380
53961SOL    HW163780   0.901   4.351   2.331
53961SOL    HW263781   0.998   4.302   2.437
53962SOL     OW63782   7.615   1.456   3.639
53962SOL    HW163783   7.590   1.458   3.546
53962SOL    HW263784   7.589   1.369   3.668
53963SOL     OW63785   5.814   7.800   2.333
53963SOL    HW163786   5.879   7.765   2.394
53963SOL    HW263787   5.731   7.794   2.381
53964SOL     OW63788  11.356   5.610  12.332
53964SOL    HW163789  11.312   5.682  12.377
53964SOL    HW263790  11.355   5.538  12.395
53965SOL     OW63791  11.119   4.271  10.931
53965SOL    HW163792  11.123   4.231  10.844
53965SOL    HW263793  11.103   4.364  10.913
53966SOL     OW63794  10.105  12.370   5.598
53966SOL    HW163795  10.066  12.364   5.511
53966SOL    HW263796  10.194  12.338   5.587
53967SOL     OW63797   8.769   2.314   9.250
53967SOL    HW163798   8.710   2.361   9.309
53967SOL    HW263799   8.857   2.336   9.281
53968SOL     OW63800   7.639   7.449   2.598
53968SOL    HW163801   7.599   7.444   2.511
53968SOL    HW263802   7.626   7.362   2.636
53969SOL     OW63803   1.064   4.409   9.165
53969SOL    HW163804   1.065   4.352   9.087
53969SOL    HW263805   1.152   4.447   9.167
53970SOL     OW63806   7.839   1.387   1.322
53970SOL    HW163807   7.854   1.476   1.290
53970SOL    HW263808   7.864   1.390   1.414
53971SOL     OW63809   3.922  12.300  14.804
53971SOL    HW163810   3.834  12.268  14.821
53971SOL    HW263811   3.954  12.331   0.018
53972SOL     OW63812   2.560  11.688   3.802
53972SOL    HW163813   2.512  11.683   3.719
53972SOL    HW263814   2.652  11.676   3.777
53973SOL     OW63815  12.650  14.606   6.703
53973SOL    HW163816  12.624  14.623   6.793
53973SOL    HW263817  12.736  14.564   6.711
53974SOL     OW63818   3.646   2.598  10.504
53974SOL    HW163819   3.725   2.636  10.467
53974SOL    HW263820   3.670   2.575  10.593
53975SOL     OW63821   3.766   9.004   6.526
53975SOL    HW163822   3.786   8.998   6.432
53975SOL    HW263823   3.850   8.990   6.569
53976SOL     OW63824   5.720  12.439   8.897
53976SOL    HW163825   5.679  12.523   8.876
53976SOL    HW263826   5.736  12.399   8.811
53977SOL     OW63827  14.741  14.522   5.661
53977SOL    HW163828  14.676  14.498   5.595
53977SOL    HW263829  14.706  14.487   5.743
53978SOL     OW63830  11.269  10.841   9.216
53978SOL    HW163831  11.254  10.768   9.155
53978SOL    HW263832  11.314  10.801   9.291
53979SOL     OW63833   2.168   1.894   1.982
53979SOL    HW163834   2.102   1.914   2.049
53979SOL    HW263835   2.224   1.971   1.981
53980SOL     OW63836   2.645   3.685   7.550
53980SOL    HW163837   2.645   3.589   7.551
53980SOL    HW263838   2.657   3.708   7.458
53981SOL     OW63839  11.485   0.991   8.751
53981SOL    HW163840  11.579   0.976   8.758
53981SOL    HW263841  11.468   1.063   8.812
53982SOL     OW63842   0.331   2.017   0.372
53982SOL    HW163843   0.273   2.087   0.343
53982SOL    HW263844   0.276   1.961   0.427
53983SOL     OW63845   0.909   2.823   5.145
53983SOL    HW163846   0.972   2.847   5.077
53983SOL    HW263847   0.834   2.880   5.128
53984SOL     OW63848   3.299   2.000  10.965
53984SOL    HW163849   3.348   1.924  10.995
53984SOL    HW263850   3.234   1.964  10.904
53985SOL     OW63851   7.118   9.617  11.760
53985SOL    HW163852   7.097   9.526  11.741
53985SOL    HW263853   7.118   9.661  11.675
53986SOL     OW63854   9.785   5.480   3.136
53986SOL    HW163855   9.721   5.422   3.095
53986SOL    HW263856   9.733   5.538   3.191
53987SOL     OW63857   0.406  12.973   2.869
53987SOL    HW163858   0.452  12.960   2.952
53987SOL    HW263859   0.474  13.007   2.810
53988SOL     OW63860   2.368   8.441   6.417
53988SOL    HW163861   2.459   8.472   6.414
53988SOL    HW263862   2.358   8.405   6.505
53989SOL     OW63863  12.786  11.205   2.884
53989SOL    HW163864  12.833  11.178   2.805
53989SOL    HW263865  12.824  11.291   2.905
53990SOL     OW63866   1.781  10.935   9.828
53990SOL    HW163867   1.759  10.870   9.894
53990SOL    HW263868   1.860  10.979   9.862
53991SOL     OW63869  14.111   6.363   0.372
53991SOL    HW163870  14.082   6.362   0.281
53991SOL    HW263871  14.174   6.435   0.377
53992SOL     OW63872   5.805  12.703   0.231
53992SOL    HW163873   5.864  12.628   0.227
53992SOL    HW263874   5.782  12.711   0.323
53993SOL     OW63875   7.990  12.121   3.612
53993SOL    HW163876   7.916  12.134   3.552
53993SOL    HW263877   8.051  12.067   3.562
53994SOL     OW63878   3.665   9.588  10.635
53994SOL    HW163879   3.686   9.584  10.542
53994SOL    HW263880   3.608   9.665  10.643
53995SOL     OW63881   2.608  11.483   7.523
53995SOL    HW163882   2.526  11.517   7.556
53995SOL    HW263883   2.604  11.497   7.428
53996SOL     OW63884   7.547  14.095  14.608
53996SOL    HW163885   7.570  14.178  14.649
53996SOL    HW263886   7.632  14.056  14.586
53997SOL     OW63887   0.185  14.158   1.296
53997SOL    HW163888   0.278  14.179   1.309
53997SOL    HW263889   0.141  14.242   1.302
53998SOL     OW63890  10.207   2.459   0.803
53998SOL    HW163891  10.244   2.517   0.870
53998SOL    HW263892  10.237   2.372   0.828
53999SOL     OW63893  12.536   3.578   2.552
53999SOL    HW163894  12.500   3.647   2.495
53999SOL    HW263895  12.471   3.508   2.549
54000SOL     OW63896  11.566   2.281  14.362
54000SOL    HW163897  11.544   2.373  14.347
54000SOL    HW263898  11.600   2.278  14.451
54001SOL     OW63899   2.310  13.161   0.209
54001SOL    HW163900   2.342  13.179   0.297
54001SOL    HW263901   2.321  13.244   0.162
54002SOL     OW63902  14.111   1.833   9.574
54002SOL    HW163903  14.077   1.889   9.644
54002SOL    HW263904  14.165   1.891   9.521
54003SOL     OW63905  13.068   5.718  14.072
54003SOL    HW163906  13.002   5.746  14.136
54003SOL    HW263907  13.151   5.746  14.111
54004SOL     OW63908  12.864   4.051   8.341
54004SOL    HW163909  12.850   4.141   8.312
54004SOL    HW263910  12.777   4.012   8.345
54005SOL     OW63911   1.460   8.305   6.474
54005SOL    HW163912   1.517   8.336   6.403
54005SOL    HW263913   1.408   8.382   6.498
54006SOL     OW63914   5.511  11.436   9.114
54006SOL    HW163915   5.439  11.457   9.055
54006SOL    HW263916   5.533  11.345   9.094
54007SOL     OW63917   6.081   0.239   8.516
54007SOL    HW163918   6.003   0.217   8.464
54007SOL    HW263919   6.084   0.172   8.584
54008SOL     OW63920  13.683  11.089   5.984
54008SOL    HW163921  13.671  11.018   6.046
54008SOL    HW263922  13.759  11.138   6.017
54009SOL     OW63923   3.931   6.471   6.584
54009SOL    HW163924   3.893   6.387   6.558
54009SOL    HW263925   3.983   6.452   6.662
54010SOL     OW63926   3.896  11.773  13.924
54010SOL    HW163927   3.938  11.775  13.838
54010SOL    HW263928   3.804  11.793  13.907
54011SOL     OW63929  11.043   5.989   7.047
54011SOL    HW163930  11.063   6.057   7.112
54011SOL    HW263931  11.068   5.907   7.090
54012SOL     OW63932   1.598   9.934   1.543
54012SOL    HW163933   1.685   9.899   1.523
54012SOL    HW263934   1.603  10.027   1.518
54013SOL     OW63935   2.307  11.417   8.492
54013SOL    HW163936   2.370  11.360   8.448
54013SOL    HW263937   2.335  11.417   8.584
54014SOL     OW63938   3.025   6.719  11.619
54014SOL    HW163939   2.950   6.743  11.564
54014SOL    HW263940   3.102   6.738  11.565
54015SOL     OW63941   0.101   0.947   1.587
54015SOL    HW163942   0.080   1.036   1.557
54015SOL    HW263943   0.019   0.898   1.574
54016SOL     OW63944   8.300   9.990  11.918
54016SOL    HW163945   8.295  10.053  11.990
54016SOL    HW263946   8.239   9.920  11.943
54017SOL     OW63947   7.658   3.893   4.563
54017SOL    HW163948   7.681   3.847   4.644
54017SOL    HW263949   7.577   3.851   4.534
54018SOL     OW63950   0.411   6.448   7.097
54018SOL    HW163951   0.506   6.436   7.104
54018SOL    HW263952   0.400   6.507   7.022
54019SOL     OW63953   4.862   3.700  12.756
54019SOL    HW163954   4.931   3.640  12.786
54019SOL    HW263955   4.854   3.764  12.827
54020SOL     OW63956   7.590   1.127   8.070
54020SOL    HW163957   7.597   1.101   7.979
54020SOL    HW263958   7.496   1.134   8.087
54021SOL     OW63959  14.402   8.101   2.364
54021SOL    HW163960  14.339   8.143   2.306
54021SOL    HW263961  14.417   8.165   2.433
54022SOL     OW63962   0.107   0.559  13.632
54022SOL    HW163963   0.017   0.538  13.610
54022SOL    HW263964   0.159   0.495  13.584
54023SOL     OW63965   0.710   5.506  13.597
54023SOL    HW163966   0.747   5.564  13.530
54023SOL    HW263967   0.778   5.440  13.610
54024SOL     OW63968   8.669   8.281  13.886
54024SOL    HW163969   8.744   8.222  13.895
54024SOL    HW263970   8.623   8.249  13.809
54025SOL     OW63971   9.418   1.960   5.568
54025SOL    HW163972   9.455   1.999   5.647
54025SOL    HW263973   9.378   1.879   5.597
54026SOL     OW63974   7.264   9.182   5.617
54026SOL    HW163975   7.347   9.229   5.620
54026SOL    HW263976   7.218   9.209   5.697
54027SOL     OW63977  13.969   9.532  11.414
54027SOL    HW163978  14.007   9.444  11.423
54027SOL    HW263979  14.042   9.587  11.385
54028SOL     OW63980  14.785   6.408  12.284
54028SOL    HW163981  14.745   6.495  12.278
54028SOL    HW263982  14.727   6.358  12.341
54029SOL     OW63983   0.913   5.092  12.963
54029SOL    HW163984   0.928   5.181  12.932
54029SOL    HW263985   0.984   5.041  12.925
54030SOL     OW63986  10.473   0.077  14.374
54030SOL    HW163987  10.398   0.031  14.411
54030SOL    HW263988  10.461   0.070  14.279
54031SOL     OW63989   0.718   5.391   6.626
54031SOL    HW163990   0.677   5.316   6.584
54031SOL    HW263991   0.704   5.463   6.565
54032SOL     OW63992  11.833   7.456  10.475
54032SOL    HW163993  11.780   7.414  10.543
54032SOL    HW263994  11.790   7.540  10.460
54033SOL     OW63995   8.384   3.211  13.939
54033SOL    HW163996   8.451   3.279  13.943
54033SOL    HW263997   8.304   3.254  13.971
54034SOL     OW63998   5.140  13.341   1.662
54034SOL    HW163999   5.101  13.394   1.593
54034SOL    HW264000   5.089  13.259   1.661
54035SOL     OW64001  12.215  11.967   3.027
54035SOL    HW164002  12.182  12.053   3.054
54035SOL    HW264003  12.298  11.987   2.983
54036SOL     OW64004   4.314   4.624   8.107
54036SOL    HW164005   4.264   4.553   8.067
54036SOL    HW264006   4.264   4.646   8.186
54037SOL     OW64007  13.529  12.473  11.733
54037SOL    HW164008  13.548  12.434  11.647
54037SOL    HW264009  13.608  12.523  11.754
54038SOL     OW64010   7.927   9.742   7.778
54038SOL    HW164011   7.981   9.697   7.843
54038SOL    HW264012   7.941   9.835   7.795
54039SOL     OW64013  11.497   5.948   7.553
54039SOL    HW164014  11.424   6.011   7.555
54039SOL    HW264015  11.463   5.872   7.600
54040SOL     OW64016   6.992  14.823  13.564
54040SOL    HW164017   7.010   0.014  13.634
54040SOL    HW264018   6.964   0.005  13.490
54041SOL     OW64019   1.921  14.574   3.888
54041SOL    HW164020   1.841  14.569   3.940
54041SOL    HW264021   1.899  14.634   3.816
54042SOL     OW64022   6.359  13.536   3.538
54042SOL    HW164023   6.454  13.535   3.522
54042SOL    HW264024   6.320  13.521   3.452
54043SOL     OW64025   6.158   2.213   2.491
54043SOL    HW164026   6.174   2.283   2.427
54043SOL    HW264027   6.071   2.232   2.526
54044SOL     OW64028   3.186  11.804   8.011
54044SOL    HW164029   3.139  11.734   7.966
54044SOL    HW264030   3.272  11.806   7.969
54045SOL     OW64031   6.604   1.967   1.537
54045SOL    HW164032   6.625   1.887   1.490
54045SOL    HW264033   6.682   2.022   1.529
54046SOL     OW64034  12.501  11.371  13.903
54046SOL    HW164035  12.545  11.323  13.833
54046SOL    HW264036  12.530  11.462  13.892
54047SOL     OW64037   9.720   8.569  14.001
54047SOL    HW164038   9.640   8.617  13.979
54047SOL    HW264039   9.784   8.596  13.935
54048SOL     OW64040   3.235  12.175  14.226
54048SOL    HW164041   3.186  12.245  14.181
54048SOL    HW264042   3.190  12.164  14.309
54049SOL     OW64043  11.889   7.960   6.156
54049SOL    HW164044  11.886   8.049   6.121
54049SOL    HW264045  11.911   7.906   6.080
54050SOL     OW64046   6.820  13.591  11.203
54050SOL    HW164047   6.745  13.629  11.248
54050SOL    HW264048   6.806  13.496  11.208
54051SOL     OW64049  11.259   1.401  10.497
54051SOL    HW164050  11.234   1.374  10.586
54051SOL    HW264051  11.354   1.393  10.496
54052SOL     OW64052   5.478   6.285  12.979
54052SOL    HW164053   5.383   6.292  12.985
54052SOL    HW264054   5.507   6.284  13.070
54053SOL     OW64055   6.312   8.142  10.913
54053SOL    HW164056   6.239   8.203  10.920
54053SOL    HW264057   6.298   8.097  10.829
54054SOL     OW64058  11.880  14.073   4.659
54054SOL    HW164059  11.838  13.991   4.635
54054SOL    HW264060  11.810  14.124   4.700
54055SOL     OW64061  12.584   5.322   3.485
54055SOL    HW164062  12.558   5.231   3.504
54055SOL    HW264063  12.650   5.314   3.416
54056SOL     OW64064  13.533  13.977   1.321
54056SOL    HW164065  13.560  13.980   1.230
54056SOL    HW264066  13.608  13.938   1.367
54057SOL     OW64067  11.704  11.737   5.201
54057SOL    HW164068  11.671  11.664   5.148
54057SOL    HW264069  11.627  11.768   5.249
54058SOL     OW64070   4.322  10.787   3.557
54058SOL    HW164071   4.388  10.832   3.611
54058SOL    HW264072   4.359  10.786   3.469
54059SOL     OW64073  10.238   9.144   6.739
54059SOL    HW164074  10.324   9.179   6.761
54059SOL    HW264075  10.256   9.062   6.692
54060SOL     OW64076   2.813   3.894   0.514
54060SOL    HW164077   2.787   3.813   0.557
54060SOL    HW264078   2.788   3.882   0.422
54061SOL     OW64079   4.621  13.526  13.590
54061SOL    HW164080   4.589  13.471  13.519
54061SOL    HW264081   4.548  13.531  13.651
54062SOL     OW64082  12.540  10.335   5.019
54062SOL    HW164083  12.632  10.331   4.994
54062SOL    HW264084  12.535  10.409   5.080
54063SOL     OW64085  13.061  13.870  13.982
54063SOL    HW164086  12.985  13.916  14.017
54063SOL    HW264087  13.035  13.778  13.978
54064SOL     OW64088  12.090   5.109   1.817
54064SOL    HW164089  12.142   5.160   1.879
54064SOL    HW264090  12.067   5.030   1.866
54065SOL     OW64091  10.130  10.691   7.812
54065SOL    HW164092  10.071  10.743   7.758
54065SOL    HW264093  10.100  10.601   7.801
54066SOL     OW64094   6.345   4.547  11.325
54066SOL    HW164095   6.423   4.602  11.317
54066SOL    HW264096   6.377   4.459  11.308
54067SOL     OW64097   6.216  14.100  11.995
54067SOL    HW164098   6.185  14.073  12.081
54067SOL    HW264099   6.137  14.103  11.941
54068SOL     OW64100   6.193   5.639   3.543
54068SOL    HW164101   6.105   5.604   3.555
54068SOL    HW264102   6.249   5.577   3.589
54069SOL     OW64103   5.492  12.122   3.794
54069SOL    HW164104   5.583  12.121   3.764
54069SOL    HW264105   5.457  12.204   3.760
54070SOL     OW64106   2.211   4.845   7.915
54070SOL    HW164107   2.259   4.889   7.845
54070SOL    HW264108   2.264   4.769   7.937
54071SOL     OW64109  13.950  11.136   7.438
54071SOL    HW164110  13.981  11.111   7.351
54071SOL    HW264111  13.893  11.212   7.422
54072SOL     OW64112   4.420   6.243   4.975
54072SOL    HW164113   4.352   6.286   4.923
54072SOL    HW264114   4.380   6.234   5.062
54073SOL     OW64115   7.713   4.271   6.929
54073SOL    HW164116   7.633   4.324   6.931
54073SOL    HW264117   7.783   4.334   6.944
54074SOL     OW64118   5.731  11.011   6.794
54074SOL    HW164119   5.793  10.940   6.810
54074SOL    HW264120   5.655  10.989   6.847
54075SOL     OW64121   1.883  12.855   6.175
54075SOL    HW164122   1.864  12.824   6.086
54075SOL    HW264123   1.903  12.948   6.163
54076SOL     OW64124   8.201   8.764   5.468
54076SOL    HW164125   8.169   8.825   5.401
54076SOL    HW264126   8.186   8.677   5.431
54077SOL     OW64127   8.152   7.795   0.614
54077SOL    HW164128   8.148   7.833   0.702
54077SOL    HW264129   8.075   7.739   0.608
54078SOL     OW64130   7.498   9.159  12.195
54078SOL    HW164131   7.519   9.210  12.274
54078SOL    HW264132   7.512   9.220  12.123
54079SOL     OW64133  13.034   8.676   3.511
54079SOL    HW164134  13.106   8.682   3.574
54079SOL    HW264135  13.063   8.729   3.437
54080SOL     OW64136  13.006   3.465   3.109
54080SOL    HW164137  12.947   3.458   3.034
54080SOL    HW264138  12.958   3.518   3.173
54081SOL     OW64139  12.227   3.525   5.771
54081SOL    HW164140  12.243   3.562   5.685
54081SOL    HW264141  12.150   3.470   5.760
54082SOL     OW64142   8.955   0.738  14.115
54082SOL    HW164143   8.976   0.831  14.127
54082SOL    HW264144   8.970   0.722  14.021
54083SOL     OW64145   3.803   8.868  10.954
54083SOL    HW164146   3.718   8.875  10.997
54083SOL    HW264147   3.867   8.883  11.024
54084SOL     OW64148   6.887   0.335   5.474
54084SOL    HW164149   6.951   0.267   5.452
54084SOL    HW264150   6.875   0.328   5.569
54085SOL     OW64151   0.615   9.296   7.243
54085SOL    HW164152   0.538   9.310   7.298
54085SOL    HW264153   0.676   9.249   7.299
54086SOL     OW64154  12.315   3.503  11.594
54086SOL    HW164155  12.339   3.577  11.650
54086SOL    HW264156  12.398   3.458  11.577
54087SOL     OW64157   4.833   5.815  11.112
54087SOL    HW164158   4.743   5.785  11.102
54087SOL    HW264159   4.885   5.735  11.104
54088SOL     OW64160  12.494   5.455  13.674
54088SOL    HW164161  12.421   5.463  13.612
54088SOL    HW264162  12.549   5.532  13.656
54089SOL     OW64163  12.657   1.953   3.376
54089SOL    HW164164  12.627   1.885   3.437
54089SOL    HW264165  12.740   1.920   3.343
54090SOL     OW64166   1.270   0.720  13.724
54090SOL    HW164167   1.315   0.637  13.740
54090SOL    HW264168   1.313   0.755  13.646
54091SOL     OW64169   6.608  10.192  13.558
54091SOL    HW164170   6.674  10.151  13.502
54091SOL    HW264171   6.653  10.268  13.596
54092SOL     OW64172  12.553  13.751   3.919
54092SOL    HW164173  12.529  13.710   4.002
54092SOL    HW264174  12.512  13.838   3.924
54093SOL     OW64175  11.651   9.045  12.408
54093SOL    HW164176  11.579   8.991  12.440
54093SOL    HW264177  11.626   9.069  12.318
54094SOL     OW64178   7.044   6.751   0.593
54094SOL    HW164179   7.105   6.682   0.565
54094SOL    HW264180   6.975   6.704   0.640
54095SOL     OW64181   9.335   9.701   2.849
54095SOL    HW164182   9.293   9.714   2.934
54095SOL    HW264183   9.301   9.616   2.819
54096SOL     OW64184   0.579   4.558  11.279
54096SOL    HW164185   0.496   4.511  11.285
54096SOL    HW264186   0.629   4.529  11.356
54097SOL     OW64187   8.218   5.453   2.054
54097SOL    HW164188   8.151   5.384   2.050
54097SOL    HW264189   8.204   5.505   1.975
54098SOL     OW64190  12.126  11.555  11.639
54098SOL    HW164191  12.061  11.512  11.584
54098SOL    HW264192  12.141  11.640  11.596
54099SOL     OW64193   2.746  14.400  14.850
54099SOL    HW164194   2.714  14.311  14.870
54099SOL    HW264195   2.744  14.405  14.754
54100SOL     OW64196  14.008  11.249  11.999
54100SOL    HW164197  14.019  11.238  11.904
54100SOL    HW264198  14.060  11.177  12.037
54101SOL     OW64199  13.425   3.637   7.812
54101SOL    HW164200  13.339   3.681   7.814
54101SOL    HW264201  13.416   3.566   7.875
54102SOL     OW64202   4.779   9.829  10.282
54102SOL    HW164203   4.775   9.833  10.187
54102SOL    HW264204   4.867   9.798  10.302
54103SOL     OW64205   1.331   3.240   0.170
54103SOL    HW164206   1.240   3.246   0.141
54103SOL    HW264207   1.380   3.293   0.108
54104SOL     OW64208   4.789  14.240  14.598
54104SOL    HW164209   4.695  14.235  14.615
54104SOL    HW264210   4.808  14.165  14.542
54105SOL     OW64211   2.166  13.529  12.189
54105SOL    HW164212   2.080  13.516  12.148
54105SOL    HW264213   2.201  13.607  12.147
54106SOL     OW64214   5.454   0.988  12.848
54106SOL    HW164215   5.372   0.945  12.874
54106SOL    HW264216   5.484   1.031  12.928
54107SOL     OW64217   4.880   6.648   4.285
54107SOL    HW164218   4.893   6.635   4.379
54107SOL    HW264219   4.848   6.564   4.253
54108SOL     OW64220  12.244   0.172  13.916
54108SOL    HW164221  12.299   0.240  13.955
54108SOL    HW264222  12.158   0.185  13.954
54109SOL     OW64223   7.142   7.015  10.203
54109SOL    HW164224   7.142   6.943  10.267
54109SOL    HW264225   7.179   6.976  10.124
54110SOL     OW64226   5.986  14.352   9.360
54110SOL    HW164227   5.896  14.348   9.329
54110SOL    HW264228   6.032  14.405   9.294
54111SOL     OW64229   0.067   3.105   6.354
54111SOL    HW164230  14.852   3.144   6.354
54111SOL    HW264231   0.056   3.021   6.398
54112SOL     OW64232   2.305   5.575   5.339
54112SOL    HW164233   2.377   5.552   5.282
54112SOL    HW264234   2.232   5.521   5.309
54113SOL     OW64235  11.631  13.065   0.711
54113SOL    HW164236  11.652  13.021   0.793
54113SOL    HW264237  11.537  13.084   0.718
54114SOL     OW64238   8.839   3.110   7.156
54114SOL    HW164239   8.776   3.179   7.176
54114SOL    HW264240   8.913   3.128   7.214
54115SOL     OW64241   9.168  10.099   1.469
54115SOL    HW164242   9.141  10.165   1.532
54115SOL    HW264243   9.167  10.017   1.519
54116SOL     OW64244   0.118  13.183  11.792
54116SOL    HW164245   0.173  13.212  11.865
54116SOL    HW264246   0.147  13.235  11.718
54117SOL     OW64247   9.079   6.800  13.348
54117SOL    HW164248   9.092   6.844  13.431
54117SOL    HW264249   9.142   6.728  13.349
54118SOL     OW64250   3.963  14.420   2.731
54118SOL    HW164251   3.915  14.501   2.742
54118SOL    HW264252   3.897  14.355   2.707
54119SOL     OW64253   4.089   7.158  12.041
54119SOL    HW164254   4.063   7.080  11.992
54119SOL    HW264255   4.160   7.197  11.990
54120SOL     OW64256   5.623   6.282   1.326
54120SOL    HW164257   5.609   6.255   1.417
54120SOL    HW264258   5.591   6.372   1.323
54121SOL     OW64259  11.880  14.643   5.093
54121SOL    HW164260  11.934  14.624   5.169
54121SOL    HW264261  11.790  14.637   5.124
54122SOL     OW64262   0.322   3.978   3.397
54122SOL    HW164263   0.392   3.978   3.331
54122SOL    HW264264   0.247   3.938   3.352
54123SOL     OW64265   9.425   5.963   9.300
54123SOL    HW164266   9.518   5.942   9.297
54123SOL    HW264267   9.417   6.047   9.256
54124SOL     OW64268   0.456   0.323   7.270
54124SOL    HW164269   0.510   0.246   7.290
54124SOL    HW264270   0.409   0.299   7.190
54125SOL     OW64271  11.719   7.598   6.699
54125SOL    HW164272  11.767   7.557   6.771
54125SOL    HW264273  11.637   7.549   6.694
54126SOL     OW64274   0.473   4.846   9.040
54126SOL    HW164275   0.486   4.903   9.115
54126SOL    HW264276   0.383   4.864   9.012
54127SOL     OW64277   7.948  10.198   9.040
54127SOL    HW164278   7.898  10.119   9.062
54127SOL    HW264279   7.882  10.267   9.031
54128SOL     OW64280   9.998   4.882   9.903
54128SOL    HW164281   9.965   4.966   9.936
54128SOL    HW264282   9.947   4.816   9.949
54129SOL     OW64283  10.279   2.236  13.326
54129SOL    HW164284  10.297   2.241  13.420
54129SOL    HW264285  10.263   2.143  13.309
54130SOL     OW64286   3.695  11.442   2.650
54130SOL    HW164287   3.692  11.351   2.619
54130SOL    HW264288   3.645  11.491   2.585
54131SOL     OW64289  14.085  12.947   2.540
54131SOL    HW164290  14.050  13.002   2.610
54131SOL    HW264291  14.175  12.928   2.566
54132SOL     OW64292   2.236   7.990   2.763
54132SOL    HW164293   2.236   7.901   2.728
54132SOL    HW264294   2.145   8.019   2.753
54133SOL     OW64295   3.524  11.287   5.638
54133SOL    HW164296   3.530  11.220   5.570
54133SOL    HW264297   3.431  11.309   5.642
54134SOL     OW64298   3.741   9.231   1.367
54134SOL    HW164299   3.829   9.203   1.394
54134SOL    HW264300   3.695   9.246   1.450
54135SOL     OW64301  12.034  10.356  10.669
54135SOL    HW164302  11.995  10.273  10.696
54135SOL    HW264303  12.009  10.365  10.577
54136SOL     OW64304   7.788   3.665   5.086
54136SOL    HW164305   7.746   3.734   5.138
54136SOL    HW264306   7.786   3.588   5.143
54137SOL     OW64307   6.667   8.751  12.190
54137SOL    HW164308   6.745   8.711  12.228
54137SOL    HW264309   6.594   8.701  12.227
54138SOL     OW64310  11.545   2.121   2.673
54138SOL    HW164311  11.583   2.209   2.676
54138SOL    HW264312  11.531   2.098   2.765
54139SOL     OW64313  12.680  11.665  10.181
54139SOL    HW164314  12.748  11.613  10.139
54139SOL    HW264315  12.643  11.718  10.111
54140SOL     OW64316  13.913   1.502   7.240
54140SOL    HW164317  13.893   1.588   7.201
54140SOL    HW264318  13.879   1.439   7.176
54141SOL     OW64319  13.338   7.494  14.648
54141SOL    HW164320  13.412   7.490  14.588
54141SOL    HW264321  13.365   7.558  14.714
54142SOL     OW64322   3.508   5.448   1.295
54142SOL    HW164323   3.515   5.352   1.301
54142SOL    HW264324   3.596   5.480   1.318
54143SOL     OW64325   9.595   4.133  14.122
54143SOL    HW164326   9.572   4.199  14.057
54143SOL    HW264327   9.617   4.184  14.200
54144SOL     OW64328   4.772  13.647   6.775
54144SOL    HW164329   4.765  13.615   6.865
54144SOL    HW264330   4.761  13.568   6.721
54145SOL     OW64331   1.056   7.508   3.576
54145SOL    HW164332   1.127   7.482   3.635
54145SOL    HW264333   1.079   7.597   3.549
54146SOL     OW64334  10.181  14.204   1.234
54146SOL    HW164335  10.149  14.114   1.238
54146SOL    HW264336  10.102  14.258   1.234
54147SOL     OW64337   7.550   5.911  10.360
54147SOL    HW164338   7.558   5.854  10.283
54147SOL    HW264339   7.639   5.920  10.392
54148SOL     OW64340   8.321   9.565   0.294
54148SOL    HW164341   8.327   9.561   0.199
54148SOL    HW264342   8.237   9.525   0.315
54149SOL     OW64343   0.134   1.079  10.972
54149SOL    HW164344   0.197   1.139  11.010
54149SOL    HW264345   0.094   1.036  11.047
54150SOL     OW64346   3.046   5.342   3.272
54150SOL    HW164347   3.096   5.351   3.191
54150SOL    HW264348   3.105   5.295   3.331
54151SOL     OW64349   4.001  12.052   7.620
54151SOL    HW164350   3.964  11.972   7.657
54151SOL    HW264351   4.063  12.021   7.553
54152SOL     OW64352   6.919  13.702   2.067
54152SOL    HW164353   6.964  13.644   2.007
54152SOL    HW264354   6.974  13.704   2.145
54153SOL     OW64355  12.127   5.452   1.641
54153SOL    HW164356  12.200   5.394   1.619
54153SOL    HW264357  12.159   5.501   1.716
54154SOL     OW64358   3.877  11.108  14.797
54154SOL    HW164359   3.790  11.089  14.762
54154SOL    HW264360   3.867  11.101   0.021
54155SOL     OW64361   7.303   3.764   2.242
54155SOL    HW164362   7.390   3.775   2.280
54155SOL    HW264363   7.285   3.848   2.199
54156SOL     OW64364   5.121  14.028  11.495
54156SOL    HW164365   5.174  14.037  11.416
54156SOL    HW264366   5.172  13.969  11.551
54157SOL     OW64367  11.542   5.033   1.824
54157SOL    HW164368  11.622   5.055   1.871
54157SOL    HW264369  11.506   4.959   1.873
54158SOL     OW64370  12.042   8.510   8.768
54158SOL    HW164371  12.105   8.566   8.812
54158SOL    HW264372  11.962   8.518   8.819
54159SOL     OW64373   7.875   3.280   3.614
54159SOL    HW164374   7.875   3.217   3.541
54159SOL    HW264375   7.852   3.363   3.573
54160SOL     OW64376  14.063   1.035  14.845
54160SOL    HW164377  14.114   1.114  14.864
54160SOL    HW264378  14.083   0.975   0.046
54161SOL     OW64379   7.896   1.471   3.230
54161SOL    HW164380   7.902   1.385   3.189
54161SOL    HW264381   7.807   1.500   3.211
54162SOL     OW64382   0.751   1.710   2.281
54162SOL    HW164383   0.673   1.683   2.232
54162SOL    HW264384   0.746   1.661   2.363
54163SOL     OW64385  13.498   8.243  13.547
54163SOL    HW164386  13.583   8.250  13.591
54163SOL    HW264387  13.494   8.319  13.489
54164SOL     OW64388  14.333   6.743   4.155
54164SOL    HW164389  14.263   6.702   4.104
54164SOL    HW264390  14.380   6.670   4.195
54165SOL     OW64391   4.016   5.674  12.518
54165SOL    HW164392   4.071   5.715  12.585
54165SOL    HW264393   4.019   5.736  12.444
54166SOL     OW64394  14.193   7.420  13.427
54166SOL    HW164395  14.278   7.454  13.399
54166SOL    HW264396  14.146   7.403  13.345
54167SOL     OW64397   8.084   4.908   3.731
54167SOL    HW164398   8.059   4.850   3.659
54167SOL    HW264399   8.164   4.870   3.767
54168SOL     OW64400   5.483   9.669   7.181
54168SOL    HW164401   5.495   9.736   7.113
54168SOL    HW264402   5.460   9.590   7.132
54169SOL     OW64403   4.591   1.894   3.513
54169SOL    HW164404   4.573   1.859   3.600
54169SOL    HW264405   4.639   1.825   3.468
54170SOL     OW64406   3.048   3.486   4.579
54170SOL    HW164407   2.955   3.510   4.581
54170SOL    HW264408   3.086   3.533   4.654
54171SOL     OW64409  14.737   4.772  11.352
54171SOL    HW164410  14.743   4.814  11.266
54171SOL    HW264411  14.780   4.687  11.341
54172SOL     OW64412   9.585  14.196  12.719
54172SOL    HW164413   9.616  14.107  12.704
54172SOL    HW264414   9.646  14.234  12.781
54173SOL     OW64415  10.898   5.993   3.025
54173SOL    HW164416  10.986   5.996   3.062
54173SOL    HW264417  10.878   5.900   3.016
54174SOL     OW64418   2.841   5.969  14.813
54174SOL    HW164419   2.856   6.043   0.000
54174SOL    HW264420   2.820   5.896  14.871
54175SOL     OW64421  14.861  13.866   6.433
54175SOL    HW164422  14.828  13.780   6.459
54175SOL    HW264423  14.807  13.891   6.358
54176SOL     OW64424   8.385  11.016   2.526
54176SOL    HW164425   8.404  10.998   2.434
54176SOL    HW264426   8.400  10.932   2.570
54177SOL     OW64427  10.844  12.287   1.037
54177SOL    HW164428  10.929  12.278   0.993
54177SOL    HW264429  10.802  12.202   1.027
54178SOL     OW64430   4.331  11.898  10.362
54178SOL    HW164431   4.343  11.804  10.375
54178SOL    HW264432   4.394  11.939  10.421
54179SOL     OW64433   2.293   7.673   6.583
54179SOL    HW164434   2.377   7.713   6.603
54179SOL    HW264435   2.250   7.662   6.668
54180SOL     OW64436  13.032  14.636  13.324
54180SOL    HW164437  13.083  14.699  13.375
54180SOL    HW264438  12.941  14.652  13.350
54181SOL     OW64439   4.692   6.003  12.108
54181SOL    HW164440   4.760   5.996  12.040
54181SOL    HW264441   4.729   6.061  12.173
54182SOL     OW64442   9.195  11.869   6.967
54182SOL    HW164443   9.150  11.823   6.896
54182SOL    HW264444   9.190  11.961   6.943
54183SOL     OW64445  11.956  11.055   6.038
54183SOL    HW164446  11.992  10.966   6.033
54183SOL    HW264447  11.900  11.054   6.115
54184SOL     OW64448  12.945   5.414  11.138
54184SOL    HW164449  12.873   5.423  11.201
54184SOL    HW264450  12.947   5.498  11.092
54185SOL     OW64451  10.462  11.559   1.787
54185SOL    HW164452  10.548  11.528   1.760
54185SOL    HW264453  10.474  11.653   1.800
54186SOL     OW64454   6.998  13.285   4.634
54186SOL    HW164455   6.943  13.356   4.601
54186SOL    HW264456   6.952  13.205   4.608
54187SOL     OW64457   4.820   3.947   4.469
54187SOL    HW164458   4.775   3.961   4.552
54187SOL    HW264459   4.874   4.025   4.458
54188SOL     OW64460   0.061   2.568   0.566
54188SOL    HW164461  14.858   2.584   0.507
54188SOL    HW264462   0.025   2.581   0.654
54189SOL     OW64463   3.345  14.135   3.165
54189SOL    HW164464   3.390  14.173   3.089
54189SOL    HW264465   3.266  14.096   3.129
54190SOL     OW64466  11.580   6.935   7.550
54190SOL    HW164467  11.570   7.007   7.487
54190SOL    HW264468  11.492   6.922   7.585
54191SOL     OW64469   6.837  12.575   9.267
54191SOL    HW164470   6.760  12.562   9.322
54191SOL    HW264471   6.911  12.556   9.324
54192SOL     OW64472  12.642  13.030   0.604
54192SOL    HW164473  12.685  13.012   0.687
54192SOL    HW264474  12.648  12.948   0.555
54193SOL     OW64475   5.724  13.466   8.066
54193SOL    HW164476   5.767  13.411   8.132
54193SOL    HW264477   5.796  13.501   8.013
54194SOL     OW64478  12.143   8.689  14.146
54194SOL    HW164479  12.055   8.694  14.108
54194SOL    HW264480  12.201   8.720  14.076
54195SOL     OW64481   2.630   7.126   6.000
54195SOL    HW164482   2.583   7.192   5.949
54195SOL    HW264483   2.704   7.174   6.038
54196SOL     OW64484  12.411   6.929  11.049
54196SOL    HW164485  12.490   6.945  11.100
54196SOL    HW264486  12.404   6.834  11.043
54197SOL     OW64487   4.934   5.516  11.922
54197SOL    HW164488   4.843   5.506  11.893
54197SOL    HW264489   4.969   5.586  11.866
54198SOL     OW64490  11.688   3.956  12.283
54198SOL    HW164491  11.779   3.977  12.306
54198SOL    HW264492  11.685   3.968  12.188
54199SOL     OW64493   4.869   2.602  10.779
54199SOL    HW164494   4.942   2.540  10.771
54199SOL    HW264495   4.839   2.615  10.689
54200SOL     OW64496   4.209   4.155   9.085
54200SOL    HW164497   4.303   4.177   9.079
54200SOL    HW264498   4.185   4.130   8.996
54201SOL     OW64499   5.889   7.082   6.200
54201SOL    HW164500   5.984   7.092   6.194
54201SOL    HW264501   5.866   7.022   6.130
54202SOL     OW64502   2.994  14.500  10.500
54202SOL    HW164503   2.918  14.444  10.513
54202SOL    HW264504   2.989  14.564  10.572
54203SOL     OW64505   1.044   7.743   1.801
54203SOL    HW164506   0.951   7.741   1.779
54203SOL    HW264507   1.067   7.652   1.819
54204SOL     OW64508   5.033  11.123   4.619
54204SOL    HW164509   4.943  11.154   4.611
54204SOL    HW264510   5.028  11.051   4.682
54205SOL     OW64511   5.188   1.157   0.326
54205SOL    HW164512   5.262   1.211   0.356
54205SOL    HW264513   5.212   1.129   0.238
54206SOL     OW64514  12.490   4.221   8.339
54206SOL    HW164515  12.554   4.287   8.314
54206SOL    HW264516  12.413   4.241   8.287
54207SOL     OW64517   0.708  13.532   9.127
54207SOL    HW164518   0.686  13.618   9.091
54207SOL    HW264519   0.803  13.525   9.115
54208SOL     OW64520  12.002   1.204  14.024
54208SOL    HW164521  12.011   1.274  13.959
54208SOL    HW264522  11.959   1.246  14.099
54209SOL     OW64523   0.700   3.380   7.784
54209SOL    HW164524   0.729   3.424   7.704
54209SOL    HW264525   0.741   3.293   7.779
54210SOL     OW64526   6.299  12.853   4.670
54210SOL    HW164527   6.268  12.879   4.583
54210SOL    HW264528   6.375  12.909   4.686
54211SOL     OW64529   8.891  10.056  14.556
54211SOL    HW164530   8.849  10.081  14.638
54211SOL    HW264531   8.833  10.089  14.488
54212SOL     OW64532   8.209  13.025   7.827
54212SOL    HW164533   8.220  13.040   7.921
54212SOL    HW264534   8.249  12.939   7.811
54213SOL     OW64535   7.458  13.812  10.520
54213SOL    HW164536   7.403  13.872  10.572
54213SOL    HW264537   7.404  13.790  10.444
54214SOL     OW64538  10.939   3.327   9.611
54214SOL    HW164539  10.935   3.407   9.663
54214SOL    HW264540  11.003   3.272   9.656
54215SOL     OW64541   8.897   4.315  12.413
54215SOL    HW164542   8.950   4.366  12.352
54215SOL    HW264543   8.939   4.229  12.415
54216SOL     OW64544  11.082  12.792  14.524
54216SOL    HW164545  11.155  12.791  14.586
54216SOL    HW264546  11.117  12.748  14.446
54217SOL     OW64547   9.080   0.781   3.033
54217SOL    HW164548   9.057   0.708   2.975
54217SOL    HW264549   9.094   0.855   2.973
54218SOL     OW64550   2.742   4.714   4.928
54218SOL    HW164551   2.691   4.639   4.959
54218SOL    HW264552   2.720   4.785   4.988
54219SOL     OW64553   5.864  10.379  11.233
54219SOL    HW164554   5.908  10.461  11.255
54219SOL    HW264555   5.885  10.364  11.140
54220SOL     OW64556  10.368  11.503   2.948
54220SOL    HW164557  10.366  11.540   3.036
54220SOL    HW264558  10.439  11.550   2.904
54221SOL     OW64559   3.591   2.628   0.415
54221SOL    HW164560   3.502   2.630   0.450
54221SOL    HW264561   3.583   2.662   0.327
54222SOL     OW64562   6.202   5.855   1.175
54222SOL    HW164563   6.216   5.950   1.177
54222SOL    HW264564   6.210   5.832   1.082
54223SOL     OW64565   3.132  12.730   1.305
54223SOL    HW164566   3.170  12.670   1.369
54223SOL    HW264567   3.099  12.803   1.358
54224SOL     OW64568   3.367   2.365  11.778
54224SOL    HW164569   3.449   2.379  11.730
54224SOL    HW264570   3.321   2.449  11.773
54225SOL     OW64571   6.255   6.981  10.716
54225SOL    HW164572   6.197   7.031  10.659
54225SOL    HW264573   6.296   6.916  10.659
54226SOL     OW64574   2.306  11.516  14.722
54226SOL    HW164575   2.306  11.612  14.719
54226SOL    HW264576   2.399  11.492  14.726
54227SOL     OW64577   3.460   8.592   1.367
54227SOL    HW164578   3.428   8.682   1.358
54227SOL    HW264579   3.533   8.599   1.428
54228SOL     OW64580  14.098   0.838   4.809
54228SOL    HW164581  14.192   0.852   4.822
54228SOL    HW264582  14.089   0.744   4.797
54229SOL     OW64583   0.150  12.410   3.985
54229SOL    HW164584   0.133  12.393   3.892
54229SOL    HW264585   0.237  12.451   3.986
54230SOL     OW64586  13.952  13.298  14.068
54230SOL    HW164587  14.013  13.274  14.138
54230SOL    HW264588  13.988  13.379  14.031
54231SOL     OW64589  10.147   6.285   1.315
54231SOL    HW164590  10.093   6.331   1.250
54231SOL    HW264591  10.083   6.242   1.372
54232SOL     OW64592  12.637   5.642   1.206
54232SOL    HW164593  12.553   5.667   1.167
54232SOL    HW264594  12.629   5.548   1.221
54233SOL     OW64595   2.305   4.187   4.999
54233SOL    HW164596   2.291   4.118   4.934
54233SOL    HW264597   2.271   4.150   5.080
54234SOL     OW64598  11.362  11.330   7.154
54234SOL    HW164599  11.312  11.342   7.235
54234SOL    HW264600  11.443  11.288   7.181
54235SOL     OW64601   3.840   0.380  12.370
54235SOL    HW164602   3.825   0.322  12.445
54235SOL    HW264603   3.924   0.421  12.387
54236SOL     OW64604   1.942   3.913  13.225
54236SOL    HW164605   1.846   3.907  13.226
54236SOL    HW264606   1.971   3.854  13.294
54237SOL     OW64607  11.924   0.488   8.586
54237SOL    HW164608  11.931   0.581   8.564
54237SOL    HW264609  11.995   0.447   8.537
54238SOL     OW64610   3.727  13.682  13.172
54238SOL    HW164611   3.770  13.684  13.087
54238SOL    HW264612   3.794  13.712  13.234
54239SOL     OW64613   5.774   6.153  11.848
54239SOL    HW164614   5.831   6.171  11.773
54239SOL    HW264615   5.695   6.206  11.831
54240SOL     OW64616   6.056   7.360   3.721
54240SOL    HW164617   6.105   7.279   3.737
54240SOL    HW264618   5.980   7.332   3.670
54241SOL     OW64619  11.729   8.261  10.724
54241SOL    HW164620  11.771   8.221  10.800
54241SOL    HW264621  11.707   8.187  10.667
54242SOL     OW64622   2.276   6.575  12.744
54242SOL    HW164623   2.218   6.594  12.819
54242SOL    HW264624   2.218   6.539  12.677
54243SOL     OW64625   0.546   5.086   0.932
54243SOL    HW164626   0.474   5.025   0.944
54243SOL    HW264627   0.507   5.159   0.883
54244SOL     OW64628   9.969   5.336  10.259
54244SOL    HW164629   9.948   5.255  10.306
54244SOL    HW264630   9.975   5.309  10.167
54245SOL     OW64631   3.686   2.381   4.104
54245SOL    HW164632   3.634   2.301   4.107
54245SOL    HW264633   3.747   2.368   4.031
54246SOL     OW64634   6.507   2.062   7.369
54246SOL    HW164635   6.472   2.121   7.302
54246SOL    HW264636   6.552   1.993   7.320
54247SOL     OW64637   3.182   6.671   6.354
54247SOL    HW164638   3.109   6.632   6.307
54247SOL    HW264639   3.221   6.599   6.404
54248SOL     OW64640   3.306   6.929   7.068
54248SOL    HW164641   3.274   6.857   7.123
54248SOL    HW264642   3.230   6.985   7.055
54249SOL     OW64643   0.172  11.188  10.192
54249SOL    HW164644   0.087  11.232  10.197
54249SOL    HW264645   0.184  11.148  10.278
54250SOL     OW64646  10.456  13.039  10.423
54250SOL    HW164647  10.413  13.123  10.437
54250SOL    HW264648  10.550  13.059  10.429
54251SOL     OW64649   4.844   2.690   7.633
54251SOL    HW164650   4.925   2.736   7.655
54251SOL    HW264651   4.812   2.733   7.554
54252SOL     OW64652  12.045   0.340  13.962
54252SOL    HW164653  12.040   0.402  13.889
54252SOL    HW264654  12.018   0.391  14.038
54253SOL     OW64655   3.338   2.764   0.422
54253SOL    HW164656   3.296   2.824   0.484
54253SOL    HW264657   3.274   2.694   0.409
54254SOL     OW64658   6.957   4.251   6.270
54254SOL    HW164659   6.948   4.317   6.338
54254SOL    HW264660   6.981   4.171   6.317
54255SOL     OW64661  10.601   3.274   9.016
54255SOL    HW164662  10.619   3.182   8.997
54255SOL    HW264663  10.521   3.293   8.967
54256SOL     OW64664   6.806   1.617   6.763
54256SOL    HW164665   6.851   1.659   6.689
54256SOL    HW264666   6.865   1.630   6.837
54257SOL     OW64667  10.622   4.864   2.746
54257SOL    HW164668  10.640   4.900   2.660
54257SOL    HW264669  10.612   4.770   2.731
54258SOL     OW64670  13.738   4.169  10.079
54258SOL    HW164671  13.769   4.216  10.156
54258SOL    HW264672  13.652   4.207  10.060
54259SOL     OW64673   3.795   1.805   3.491
54259SOL    HW164674   3.800   1.723   3.442
54259SOL    HW264675   3.704   1.833   3.481
54260SOL     OW64676  14.000  13.253   4.642
54260SOL    HW164677  14.039  13.338   4.663
54260SOL    HW264678  13.909  13.274   4.617
54261SOL     OW64679   0.520   5.402   5.909
54261SOL    HW164680   0.578   5.379   5.837
54261SOL    HW264681   0.432   5.383   5.876
54262SOL     OW64682   4.943   0.276   0.220
54262SOL    HW164683   5.032   0.308   0.206
54262SOL    HW264684   4.898   0.294   0.137
54263SOL     OW64685   3.186  13.247   4.979
54263SOL    HW164686   3.261  13.307   4.983
54263SOL    HW264687   3.111  13.300   5.004
54264SOL     OW64688   4.965  10.703   3.821
54264SOL    HW164689   5.044  10.705   3.767
54264SOL    HW264690   4.908  10.770   3.784
54265SOL     OW64691  11.904  13.693  13.228
54265SOL    HW164692  11.968  13.755  13.193
54265SOL    HW264693  11.849  13.745  13.287
54266SOL     OW64694   8.060   1.304   7.315
54266SOL    HW164695   8.066   1.396   7.338
54266SOL    HW264696   7.967   1.282   7.326
54267SOL     OW64697   5.564  13.016  12.532
54267SOL    HW164698   5.637  13.071  12.506
54267SOL    HW264699   5.591  12.977  12.615
54268SOL     OW64700   9.093   5.427  10.335
54268SOL    HW164701   9.060   5.367  10.402
54268SOL    HW264702   9.145   5.490  10.384
54269SOL     OW64703  10.057   5.576   4.132
54269SOL    HW164704  10.030   5.486   4.154
54269SOL    HW264705  10.078   5.572   4.039
54270SOL     OW64706  14.767  10.945   7.377
54270SOL    HW164707  14.726  10.859   7.375
54270SOL    HW264708  14.844  10.934   7.433
54271SOL     OW64709  13.039  12.684   9.672
54271SOL    HW164710  13.063  12.767   9.632
54271SOL    HW264711  13.068  12.691   9.763
54272SOL     OW64712   8.606   0.321  11.729
54272SOL    HW164713   8.547   0.360  11.665
54272SOL    HW264714   8.549   0.300  11.803
54273SOL     OW64715  10.322  12.778   4.652
54273SOL    HW164716  10.289  12.867   4.637
54273SOL    HW264717  10.306  12.732   4.570
54274SOL     OW64718   5.279  10.106  14.045
54274SOL    HW164719   5.295  10.161  13.969
54274SOL    HW264720   5.193  10.066  14.029
54275SOL     OW64721  10.092   5.164   5.744
54275SOL    HW164722  10.061   5.220   5.673
54275SOL    HW264723  10.161   5.216   5.786
54276SOL     OW64724   7.982   4.195   3.940
54276SOL    HW164725   7.958   4.148   4.021
54276SOL    HW264726   8.016   4.279   3.970
54277SOL     OW64727   4.277   5.418  12.341
54277SOL    HW164728   4.330   5.482  12.389
54277SOL    HW264729   4.191   5.459  12.333
54278SOL     OW64730   2.607  13.478   5.091
54278SOL    HW164731   2.607  13.532   5.170
54278SOL    HW264732   2.539  13.412   5.107
54279SOL     OW64733   9.687   0.115  12.261
54279SOL    HW164734   9.772   0.078  12.240
54279SOL    HW264735   9.627   0.076  12.197
54280SOL     OW64736   0.162   8.471  10.079
54280SOL    HW164737   0.072   8.448  10.054
54280SOL    HW264738   0.164   8.566  10.076
54281SOL     OW64739   9.227   0.226   3.721
54281SOL    HW164740   9.203   0.272   3.802
54281SOL    HW264741   9.152   0.240   3.663
54282SOL     OW64742  11.372  14.751  10.811
54282SOL    HW164743  11.406  14.782  10.728
54282SOL    HW264744  11.444  14.762  10.873
54283SOL     OW64745   9.818   3.229   1.746
54283SOL    HW164746   9.727   3.256   1.738
54283SOL    HW264747   9.857   3.249   1.661
54284SOL     OW64748   7.792   6.159   0.133
54284SOL    HW164749   7.704   6.198   0.128
54284SOL    HW264750   7.821   6.178   0.222
54285SOL     OW64751   3.501   6.398   2.836
54285SOL    HW164752   3.424   6.409   2.781
54285SOL    HW264753   3.573   6.384   2.775
54286SOL     OW64754   9.944   2.569   0.932
54286SOL    HW164755   9.942   2.478   0.960
54286SOL    HW264756  10.001   2.568   0.854
54287SOL     OW64757  11.692   9.630  10.898
54287SOL    HW164758  11.746   9.678  10.961
54287SOL    HW264759  11.726   9.657  10.813
54288SOL     OW64760   0.237   3.781  14.088
54288SOL    HW164761   0.195   3.856  14.045
54288SOL    HW264762   0.258   3.721  14.017
54289SOL     OW64763   1.298   0.808  12.883
54289SOL    HW164764   1.372   0.844  12.832
54289SOL    HW264765   1.284   0.721  12.846
54290SOL     OW64766   8.758   9.026  10.043
54290SOL    HW164767   8.679   9.054  10.088
54290SOL    HW264768   8.799   9.107  10.014
54291SOL     OW64769   2.803   0.235  10.208
54291SOL    HW164770   2.880   0.223  10.263
54291SOL    HW264771   2.797   0.153  10.158
54292SOL     OW64772   4.877   6.257   1.416
54292SOL    HW164773   4.808   6.190   1.412
54292SOL    HW264774   4.829   6.340   1.414
54293SOL     OW64775  13.893   2.356   1.232
54293SOL    HW164776  13.979   2.317   1.217
54293SOL    HW264777  13.907   2.450   1.222
54294SOL     OW64778  12.794  12.099  12.453
54294SOL    HW164779  12.783  12.081  12.546
54294SOL    HW264780  12.870  12.047  12.427
54295SOL     OW64781   6.925   4.395  11.799
54295SOL    HW164782   6.936   4.432  11.887
54295SOL    HW264783   6.830   4.385  11.789
54296SOL     OW64784   8.210   6.904  13.800
54296SOL    HW164785   8.216   6.832  13.738
54296SOL    HW264786   8.125   6.943  13.784
54297SOL     OW64787  11.608   8.905  11.021
54297SOL    HW164788  11.662   8.961  10.966
54297SOL    HW264789  11.526   8.954  11.031
54298SOL     OW64790   7.062   8.901  11.438
54298SOL    HW164791   7.136   8.850  11.405
54298SOL    HW264792   7.019   8.936  11.360
54299SOL     OW64793  13.277  10.133  12.520
54299SOL    HW164794  13.317  10.210  12.481
54299SOL    HW264795  13.351  10.081  12.552
54300SOL     OW64796  11.315   0.066   2.810
54300SOL    HW164797  11.334   0.139   2.751
54300SOL    HW264798  11.374  14.868   2.782
54301SOL     OW64799  10.538   3.920   7.479
54301SOL    HW164800  10.608   3.860   7.455
54301SOL    HW264801  10.468   3.901   7.416
54302SOL     OW64802   1.153   5.568   9.333
54302SOL    HW164803   1.087   5.545   9.398
54302SOL    HW264804   1.178   5.484   9.294
54303SOL     OW64805  10.234   9.223  12.127
54303SOL    HW164806  10.158   9.217  12.184
54303SOL    HW264807  10.246   9.317  12.113
54304SOL     OW64808   3.028   4.967   5.989
54304SOL    HW164809   3.097   5.033   5.997
54304SOL    HW264810   2.979   4.974   6.071
54305SOL     OW64811   3.879   2.032   1.671
54305SOL    HW164812   3.923   2.112   1.700
54305SOL    HW264813   3.852   2.050   1.581
54306SOL     OW64814  12.610   7.058  10.868
54306SOL    HW164815  12.613   7.143  10.911
54306SOL    HW264816  12.664   7.002  10.923
54307SOL     OW64817  13.991   3.857   7.342
54307SOL    HW164818  13.937   3.786   7.379
54307SOL    HW264819  14.034   3.896   7.418
54308SOL     OW64820   1.375  11.911   5.521
54308SOL    HW164821   1.356  11.939   5.610
54308SOL    HW264822   1.402  11.992   5.476
54309SOL     OW64823  11.735   5.360  11.627
54309SOL    HW164824  11.789   5.433  11.595
54309SOL    HW264825  11.686   5.331  11.550
54310SOL     OW64826   6.929   2.909   3.264
54310SOL    HW164827   6.914   2.997   3.299
54310SOL    HW264828   6.841   2.871   3.256
54311SOL     OW64829  11.594   1.319   1.866
54311SOL    HW164830  11.649   1.275   1.931
54311SOL    HW264831  11.656   1.369   1.813
54312SOL     OW64832  12.528   7.203   3.139
54312SOL    HW164833  12.483   7.230   3.059
54312SOL    HW264834  12.494   7.262   3.206
54313SOL     OW64835   8.881   8.959   9.276
54313SOL    HW164836   8.890   8.939   9.183
54313SOL    HW264837   8.844   9.047   9.278
54314SOL     OW64838   0.615  10.174   4.931
54314SOL    HW164839   0.629  10.192   5.024
54314SOL    HW264840   0.677  10.105   4.910
54315SOL     OW64841   6.836   1.639  11.075
54315SOL    HW164842   6.901   1.576  11.106
54315SOL    HW264843   6.832   1.705  11.145
54316SOL     OW64844   3.920   0.478   7.500
54316SOL    HW164845   3.894   0.514   7.585
54316SOL    HW264846   3.866   0.526   7.437
54317SOL     OW64847   7.402   0.458  10.035
54317SOL    HW164848   7.311   0.442  10.056
54317SOL    HW264849   7.400   0.523   9.964
54318SOL     OW64850   7.354  14.847   3.177
54318SOL    HW164851   7.288   0.040   3.202
54318SOL    HW264852   7.373  14.800   3.258
54319SOL     OW64853   3.687  10.614   7.913
54319SOL    HW164854   3.667  10.521   7.903
54319SOL    HW264855   3.660  10.654   7.830
54320SOL     OW64856  11.304   0.135   8.508
54320SOL    HW164857  11.285   0.066   8.572
54320SOL    HW264858  11.399   0.131   8.497
54321SOL     OW64859  12.380  12.931   7.536
54321SOL    HW164860  12.426  12.867   7.482
54321SOL    HW264861  12.451  12.980   7.579
54322SOL     OW64862  10.194   4.840   8.822
54322SOL    HW164863  10.142   4.761   8.811
54322SOL    HW264864  10.282   4.809   8.842
54323SOL     OW64865   7.270   6.539  10.008
54323SOL    HW164866   7.208   6.554  10.080
54323SOL    HW264867   7.225   6.573   9.931
54324SOL     OW64868   6.231   3.905  12.561
54324SOL    HW164869   6.200   3.965  12.492
54324SOL    HW264870   6.305   3.859  12.521
54325SOL     OW64871   3.173  12.132   0.163
54325SOL    HW164872   3.181  12.169   0.251
54325SOL    HW264873   3.261  12.101   0.141
54326SOL     OW64874   4.373  12.611   1.412
54326SOL    HW164875   4.291  12.661   1.415
54326SOL    HW264876   4.433  12.667   1.361
54327SOL     OW64877   0.112  13.129   6.756
54327SOL    HW164878   0.195  13.083   6.743
54327SOL    HW264879   0.122  13.174   6.840
54328SOL     OW64880   4.197   4.487   2.376
54328SOL    HW164881   4.288   4.515   2.388
54328SOL    HW264882   4.158   4.556   2.321
54329SOL     OW64883   4.771  12.979   4.013
54329SOL    HW164884   4.816  12.958   4.095
54329SOL    HW264885   4.701  12.915   4.007
54330SOL     OW64886   2.038  11.085   7.520
54330SOL    HW164887   2.090  11.035   7.583
54330SOL    HW264888   2.023  11.023   7.448
54331SOL     OW64889   4.913  10.449  13.569
54331SOL    HW164890   4.873  10.371  13.608
54331SOL    HW264891   4.871  10.457  13.483
54332SOL     OW64892   0.137  10.128  14.553
54332SOL    HW164893   0.093  10.102  14.472
54332SOL    HW264894   0.075  10.105  14.622
54333SOL     OW64895  13.335   4.693  10.539
54333SOL    HW164896  13.311   4.608  10.575
54333SOL    HW264897  13.331   4.753  10.613
54334SOL     OW64898   6.423   6.181   7.172
54334SOL    HW164899   6.465   6.136   7.099
54334SOL    HW264900   6.437   6.274   7.154
54335SOL     OW64901   5.470  12.654  12.030
54335SOL    HW164902   5.506  12.742  12.045
54335SOL    HW264903   5.547  12.599  12.014
54336SOL     OW64904   1.632   2.026   3.523
54336SOL    HW164905   1.706   1.992   3.472
54336SOL    HW264906   1.663   2.023   3.614
54337SOL     OW64907   0.487  14.603   0.123
54337SOL    HW164908   0.567  14.574   0.079
54337SOL    HW264909   0.435  14.644   0.054
54338SOL     OW64910  10.659   9.863  12.500
54338SOL    HW164911  10.693   9.782  12.460
54338SOL    HW264912  10.586   9.888  12.443
54339SOL     OW64913   2.034   9.938  12.383
54339SOL    HW164914   2.117   9.942  12.337
54339SOL    HW264915   2.037  10.011  12.445
54340SOL     OW64916  13.711  12.430  12.523
54340SOL    HW164917  13.709  12.393  12.612
54340SOL    HW264918  13.678  12.519  12.533
54341SOL     OW64919  14.220   0.510   0.582
54341SOL    HW164920  14.188   0.561   0.508
54341SOL    HW264921  14.142   0.467   0.617
54342SOL     OW64922   4.778  14.836  13.945
54342SOL    HW164923   4.824   0.043  13.916
54342SOL    HW264924   4.686  14.863  13.951
54343SOL     OW64925  10.279   0.902   7.906
54343SOL    HW164926  10.372   0.883   7.898
54343SOL    HW264927  10.243   0.829   7.957
54344SOL     OW64928  13.279   8.934  11.428
54344SOL    HW164929  13.292   9.019  11.469
54344SOL    HW264930  13.251   8.954  11.339
54345SOL     OW64931  12.596   7.762   6.401
54345SOL    HW164932  12.567   7.698   6.336
54345SOL    HW264933  12.544   7.742   6.479
54346SOL     OW64934  10.465  13.769   4.082
54346SOL    HW164935  10.410  13.693   4.065
54346SOL    HW264936  10.406  13.833   4.122
54347SOL     OW64937  10.787   0.902   2.887
54347SOL    HW164938  10.759   0.810   2.890
54347SOL    HW264939  10.723   0.944   2.829
54348SOL     OW64940   2.761   8.335  13.718
54348SOL    HW164941   2.788   8.407  13.776
54348SOL    HW264942   2.707   8.377  13.651
54349SOL     OW64943   9.662  12.922   6.035
54349SOL    HW164944   9.702  12.852   6.087
54349SOL    HW264945   9.700  12.912   5.948
54350SOL     OW64946   8.982  10.682   2.577
54350SOL    HW164947   8.960  10.733   2.499
54350SOL    HW264948   9.051  10.733   2.619
54351SOL     OW64949   5.350   0.241   2.226
54351SOL    HW164950   5.335   0.227   2.319
54351SOL    HW264951   5.338   0.154   2.187
54352SOL     OW64952   5.385   5.576  14.321
54352SOL    HW164953   5.442   5.652  14.332
54352SOL    HW264954   5.436   5.515  14.268
54353SOL     OW64955   6.931   4.757   4.966
54353SOL    HW164956   6.846   4.798   4.981
54353SOL    HW264957   6.993   4.830   4.964
54354SOL     OW64958   2.308   0.111  10.846
54354SOL    HW164959   2.276   0.201  10.836
54354SOL    HW264960   2.331   0.104  10.938
54355SOL     OW64961   0.903   2.522   3.054
54355SOL    HW164962   0.825   2.574   3.074
54355SOL    HW264963   0.910   2.459   3.126
54356SOL     OW64964   8.825   6.051  14.313
54356SOL    HW164965   8.831   6.114  14.384
54356SOL    HW264966   8.820   6.103  14.233
54357SOL     OW64967   5.626   9.200   2.999
54357SOL    HW164968   5.611   9.128   3.060
54357SOL    HW264969   5.678   9.263   3.049
54358SOL     OW64970  11.360   2.627   9.696
54358SOL    HW164971  11.300   2.681   9.746
54358SOL    HW264972  11.447   2.649   9.731
54359SOL     OW64973   0.707   8.837  10.732
54359SOL    HW164974   0.707   8.743  10.716
54359SOL    HW264975   0.781   8.870  10.680
54360SOL     OW64976   1.347  10.387   3.933
54360SOL    HW164977   1.339  10.300   3.973
54360SOL    HW264978   1.264  10.430   3.954
54361SOL     OW64979  14.532  13.830   7.256
54361SOL    HW164980  14.472  13.822   7.182
54361SOL    HW264981  14.475  13.835   7.332
54362SOL     OW64982   4.949   6.471   2.464
54362SOL    HW164983   4.901   6.421   2.530
54362SOL    HW264984   4.887   6.536   2.432
54363SOL     OW64985  11.600   4.033   5.329
54363SOL    HW164986  11.540   4.098   5.366
54363SOL    HW264987  11.577   4.028   5.237
54364SOL     OW64988  13.704   3.822  10.876
54364SOL    HW164989  13.682   3.729  10.864
54364SOL    HW264990  13.648   3.851  10.948
54365SOL     OW64991   2.065   0.352   1.834
54365SOL    HW164992   2.079   0.340   1.740
54365SOL    HW264993   2.015   0.275   1.861
54366SOL     OW64994   2.588   1.235   0.184
54366SOL    HW164995   2.617   1.182   0.258
54366SOL    HW264996   2.556   1.316   0.224
54367SOL     OW64997   8.436   6.635   8.011
54367SOL    HW164998   8.341   6.619   8.006
54367SOL    HW264999   8.475   6.557   7.973
54368SOL     OW65000  13.743  12.646   4.738
54368SOL    HW165001  13.650  12.637   4.756
54368SOL    HW265002  13.751  12.732   4.696
54369SOL     OW65003   1.026   9.977   9.364
54369SOL    HW165004   1.058   9.987   9.453
54369SOL    HW265005   0.942   9.932   9.373
54370SOL     OW65006  11.832  11.091   6.276
54370SOL    HW165007  11.743  11.101   6.241
54370SOL    HW265008  11.831  11.141   6.357
54371SOL     OW65009   7.939  10.806  13.812
54371SOL    HW165010   7.950  10.826  13.905
54371SOL    HW265011   7.970  10.885  13.767
54372SOL     OW65012   8.599  11.241  14.602
54372SOL    HW165013   8.657  11.255  14.677
54372SOL    HW265014   8.513  11.223  14.641
54373SOL     OW65015   4.835   3.471   8.581
54373SOL    HW165016   4.891   3.544   8.555
54373SOL    HW265017   4.773   3.461   8.509
54374SOL     OW65018   2.953   9.400   2.079
54374SOL    HW165019   2.956   9.484   2.124
54374SOL    HW265020   3.043   9.368   2.080
54375SOL     OW65021   3.311  10.567   2.681
54375SOL    HW165022   3.301  10.630   2.752
54375SOL    HW265023   3.239  10.586   2.621
54376SOL     OW65024   0.647   7.307  14.829
54376SOL    HW165025   0.607   7.361   0.026
54376SOL    HW265026   0.699   7.368  14.777
54377SOL     OW65027   2.791   3.011   2.049
54377SOL    HW165028   2.708   2.977   2.016
54377SOL    HW265029   2.767   3.069   2.121
54378SOL     OW65030  11.721   6.515   4.130
54378SOL    HW165031  11.626   6.504   4.132
54378SOL    HW265032  11.746   6.494   4.041
54379SOL     OW65033  12.996   7.187  12.303
54379SOL    HW165034  13.011   7.200  12.210
54379SOL    HW265035  12.928   7.120  12.307
54380SOL     OW65036  11.800   2.787   7.090
54380SOL    HW165037  11.785   2.729   7.164
54380SOL    HW265038  11.813   2.728   7.015
54381SOL     OW65039   7.672   1.862  10.273
54381SOL    HW165040   7.695   1.950  10.302
54381SOL    HW265041   7.631   1.875  10.187
54382SOL     OW65042   7.212   4.657   2.060
54382SOL    HW165043   7.129   4.615   2.082
54382SOL    HW265044   7.189   4.749   2.047
54383SOL     OW65045  12.680  12.417   7.416
54383SOL    HW165046  12.722  12.377   7.340
54383SOL    HW265047  12.734  12.389   7.490
54384SOL     OW65048   6.806  12.795   9.127
54384SOL    HW165049   6.849  12.852   9.191
54384SOL    HW265050   6.806  12.708   9.169
54385SOL     OW65051   8.163   4.424   6.225
54385SOL    HW165052   8.184   4.381   6.142
54385SOL    HW265053   8.081   4.472   6.208
54386SOL     OW65054  11.959  13.964   6.354
54386SOL    HW165055  11.941  13.917   6.436
54386SOL    HW265056  11.884  13.947   6.299
54387SOL     OW65057   1.068  10.204   0.107
54387SOL    HW165058   1.024  10.277   0.063
54387SOL    HW265059   1.006  10.132   0.101
54388SOL     OW65060  13.394  14.701  10.181
54388SOL    HW165061  13.431  14.678  10.266
54388SOL    HW265062  13.327  14.633  10.165
54389SOL     OW65063   4.646   9.408   8.257
54389SOL    HW165064   4.680   9.322   8.230
54389SOL    HW265065   4.715   9.470   8.231
54390SOL     OW65066   6.128  12.423   7.424
54390SOL    HW165067   6.191  12.353   7.406
54390SOL    HW265068   6.058  12.381   7.473
54391SOL     OW65069   1.000   1.693   1.442
54391SOL    HW165070   1.042   1.709   1.358
54391SOL    HW265071   0.940   1.621   1.426
54392SOL     OW65072  14.526  13.062   4.924
54392SOL    HW165073  14.493  12.981   4.884
54392SOL    HW265074  14.620  13.047   4.933
54393SOL     OW65075  12.339   4.444   6.735
54393SOL    HW165076  12.357   4.362   6.688
54393SOL    HW265077  12.284   4.494   6.675
54394SOL     OW65078  14.093   1.501   2.070
54394SOL    HW165079  14.120   1.470   2.156
54394SOL    HW265080  14.010   1.458   2.053
54395SOL     OW65081   1.446   1.557   4.254
54395SOL    HW165082   1.485   1.590   4.335
54395SOL    HW265083   1.355   1.588   4.257
54396SOL     OW65084   4.611   7.763   1.591
54396SOL    HW165085   4.543   7.830   1.585
54396SOL    HW265086   4.646   7.771   1.679
54397SOL     OW65087   8.855   8.336   8.938
54397SOL    HW165088   8.923   8.319   9.003
54397SOL    HW265089   8.882   8.418   8.896
54398SOL     OW65090  12.983   5.104   5.470
54398SOL    HW165091  12.989   5.196   5.496
54398SOL    HW265092  12.907   5.071   5.519
54399SOL     OW65093  11.298  12.259   9.472
54399SOL    HW165094  11.347  12.230   9.395
54399SOL    HW265095  11.354  12.325   9.513
54400SOL     OW65096  13.512   7.685  13.720
54400SOL    HW165097  13.512   7.589  13.719
54400SOL    HW265098  13.466   7.709  13.639
54401SOL     OW65099   0.922   9.564   9.098
54401SOL    HW165100   0.940   9.475   9.069
54401SOL    HW265101   0.957   9.619   9.028
54402SOL     OW65102  11.404   4.194   6.521
54402SOL    HW165103  11.436   4.183   6.432
54402SOL    HW265104  11.342   4.122   6.534
54403SOL     OW65105   8.106   9.229   2.932
54403SOL    HW165106   8.038   9.256   2.870
54403SOL    HW265107   8.105   9.133   2.928
54404SOL     OW65108   6.975   2.985   8.462
54404SOL    HW165109   7.060   3.025   8.446
54404SOL    HW265110   6.983   2.942   8.547
54405SOL     OW65111  14.235  13.334   2.474
54405SOL    HW165112  14.318  13.300   2.507
54405SOL    HW265113  14.251  13.428   2.463
54406SOL     OW65114   3.327   6.974  10.666
54406SOL    HW165115   3.265   7.037  10.702
54406SOL    HW265116   3.337   6.998  10.574
54407SOL     OW65117   6.977  12.140  13.896
54407SOL    HW165118   6.954  12.226  13.932
54407SOL    HW265119   7.034  12.160  13.821
54408SOL     OW65120  11.393   1.083   3.726
54408SOL    HW165121  11.412   0.989   3.731
54408SOL    HW265122  11.479   1.124   3.719
54409SOL     OW65123   5.888  12.191  13.746
54409SOL    HW165124   5.981  12.212  13.755
54409SOL    HW265125   5.877  12.111  13.797
54410SOL     OW65126   5.619   0.706   4.898
54410SOL    HW165127   5.676   0.641   4.939
54410SOL    HW265128   5.678   0.775   4.869
54411SOL     OW65129   7.367   7.139  12.302
54411SOL    HW165130   7.274   7.117  12.297
54411SOL    HW265131   7.412   7.060  12.273
54412SOL     OW65132   9.263  12.403  11.403
54412SOL    HW165133   9.267  12.335  11.336
54412SOL    HW265134   9.354  12.424  11.421
54413SOL     OW65135   0.473   6.767  11.371
54413SOL    HW165136   0.381   6.746  11.385
54413SOL    HW265137   0.521   6.696  11.415
54414SOL     OW65138   3.302   5.488   3.350
54414SOL    HW165139   3.349   5.566   3.321
54414SOL    HW265140   3.228   5.522   3.401
54415SOL     OW65141  11.638   2.054   7.407
54415SOL    HW165142  11.684   2.021   7.330
54415SOL    HW265143  11.656   1.989   7.475
54416SOL     OW65144   2.961  14.146  14.115
54416SOL    HW165145   2.984  14.194  14.035
54416SOL    HW265146   3.011  14.190  14.184
54417SOL     OW65147  13.090   2.976   4.468
54417SOL    HW165148  13.029   3.049   4.469
54417SOL    HW265149  13.176   3.015   4.484
54418SOL     OW65150   5.452   4.654  10.661
54418SOL    HW165151   5.372   4.645  10.610
54418SOL    HW265152   5.521   4.664  10.596
54419SOL     OW65153  11.404   4.601   0.026
54419SOL    HW165154  11.471   4.669   0.023
54419SOL    HW265155  11.441   4.533   0.083
54420SOL     OW65156   9.414  13.636   5.836
54420SOL    HW165157   9.425  13.637   5.931
54420SOL    HW265158   9.360  13.712   5.816
54421SOL     OW65159  14.067   1.815   7.471
54421SOL    HW165160  14.143   1.786   7.520
54421SOL    HW265161  14.004   1.744   7.479
54422SOL     OW65162   2.686  14.140  14.017
54422SOL    HW165163   2.644  14.076  14.075
54422SOL    HW265164   2.775  14.149  14.051
54423SOL     OW65165   6.096   6.051   9.813
54423SOL    HW165166   6.102   5.969   9.861
54423SOL    HW265167   6.016   6.043   9.761
54424SOL     OW65168  14.357  11.159   6.842
54424SOL    HW165169  14.445  11.166   6.880
54424SOL    HW265170  14.349  11.066   6.820
54425SOL     OW65171   6.237  13.978  10.964
54425SOL    HW165172   6.311  13.927  10.998
54425SOL    HW265173   6.190  13.916  10.907
54426SOL     OW65174   9.433  13.986   7.722
54426SOL    HW165175   9.417  14.049   7.651
54426SOL    HW265176   9.429  14.038   7.802
54427SOL     OW65177  10.540   9.240   0.985
54427SOL    HW165178  10.514   9.154   0.951
54427SOL    HW265179  10.551   9.295   0.907
54428SOL     OW65180   6.955   5.690   6.899
54428SOL    HW165181   6.903   5.712   6.822
54428SOL    HW265182   6.936   5.758   6.962
54429SOL     OW65183   8.855   0.233   0.130
54429SOL    HW165184   8.762   0.251   0.139
54429SOL    HW265185   8.886   0.299   0.067
54430SOL     OW65186   5.803   1.438   2.548
54430SOL    HW165187   5.729   1.390   2.585
54430SOL    HW265188   5.763   1.504   2.491
54431SOL     OW65189   3.569   1.299   5.687
54431SOL    HW165190   3.617   1.265   5.762
54431SOL    HW265191   3.584   1.394   5.690
54432SOL     OW65192   7.866  13.365   4.300
54432SOL    HW165193   7.952  13.376   4.260
54432SOL    HW265194   7.804  13.382   4.229
54433SOL     OW65195   8.881  11.511  12.237
54433SOL    HW165196   8.859  11.588  12.289
54433SOL    HW265197   8.827  11.441  12.274
54434SOL     OW65198   5.958   5.404   1.105
54434SOL    HW165199   5.912   5.392   1.022
54434SOL    HW265200   6.034   5.458   1.083
54435SOL     OW65201   8.112  12.644   0.704
54435SOL    HW165202   8.119  12.623   0.797
54435SOL    HW265203   8.093  12.560   0.662
54436SOL     OW65204   4.368  11.200   2.865
54436SOL    HW165205   4.295  11.140   2.882
54436SOL    HW265206   4.443  11.142   2.853
54437SOL     OW65207  10.646   4.621   3.369
54437SOL    HW165208  10.681   4.669   3.294
54437SOL    HW265209  10.704   4.546   3.379
54438SOL     OW65210  11.714   4.713   3.035
54438SOL    HW165211  11.735   4.667   3.117
54438SOL    HW265212  11.693   4.802   3.063
54439SOL     OW65213   0.615  12.201  12.176
54439SOL    HW165214   0.621  12.113  12.138
54439SOL    HW265215   0.656  12.258  12.112
54440SOL     OW65216   3.958   3.701   4.393
54440SOL    HW165217   3.971   3.662   4.479
54440SOL    HW265218   3.926   3.790   4.412
54441SOL     OW65219   1.191   5.556   7.876
54441SOL    HW165220   1.211   5.577   7.785
54441SOL    HW265221   1.167   5.463   7.874
54442SOL     OW65222   9.896   6.909  13.970
54442SOL    HW165223   9.895   6.872  13.881
54442SOL    HW265224   9.811   6.953  13.978
54443SOL     OW65225   2.137  10.605   6.499
54443SOL    HW165226   2.187  10.581   6.421
54443SOL    HW265227   2.191  10.577   6.572
54444SOL     OW65228  11.053  10.606   1.398
54444SOL    HW165229  11.029  10.648   1.480
54444SOL    HW265230  11.055  10.677   1.334
54445SOL     OW65231   5.508   8.600   2.012
54445SOL    HW165232   5.579   8.663   2.008
54445SOL    HW265233   5.428   8.653   2.021
54446SOL     OW65234   2.032   0.110   8.680
54446SOL    HW165235   2.064   0.191   8.640
54446SOL    HW265236   2.061   0.115   8.771
54447SOL     OW65237  14.575   4.177  12.201
54447SOL    HW165238  14.625   4.211  12.127
54447SOL    HW265239  14.569   4.083  12.184
54448SOL     OW65240   2.665   1.590   4.951
54448SOL    HW165241   2.738   1.582   4.890
54448SOL    HW265242   2.706   1.614   5.034
54449SOL     OW65243   5.448  14.749  13.168
54449SOL    HW165244   5.469  14.691  13.095
54449SOL    HW265245   5.377  14.704  13.215
54450SOL     OW65246   1.832   4.754   5.106
54450SOL    HW165247   1.844   4.688   5.174
54450SOL    HW265248   1.748   4.794   5.125
54451SOL     OW65249   0.501   7.474   1.299
54451SOL    HW165250   0.447   7.526   1.358
54451SOL    HW265251   0.517   7.393   1.346
54452SOL     OW65252   7.962   2.657   7.623
54452SOL    HW165253   8.010   2.583   7.585
54452SOL    HW265254   7.885   2.617   7.663
54453SOL     OW65255   6.754  10.607   0.366
54453SOL    HW165256   6.845  10.633   0.380
54453SOL    HW265257   6.707  10.642   0.443
54454SOL     OW65258   6.680   4.476  12.733
54454SOL    HW165259   6.679   4.380  12.744
54454SOL    HW265260   6.751   4.492  12.671
54455SOL     OW65261   5.667   3.884   9.829
54455SOL    HW165262   5.625   3.902   9.913
54455SOL    HW265263   5.600   3.839   9.777
54456SOL     OW65264   1.948   7.344   5.200
54456SOL    HW165265   1.980   7.431   5.173
54456SOL    HW265266   1.947   7.293   5.119
54457SOL     OW65267  11.575   1.353   2.717
54457SOL    HW165268  11.650   1.392   2.761
54457SOL    HW265269  11.613   1.304   2.644
54458SOL     OW65270   0.684   0.633  10.552
54458SOL    HW165271   0.739   0.706  10.521
54458SOL    HW265272   0.622   0.674  10.612
54459SOL     OW65273   9.740  12.103   9.396
54459SOL    HW165274   9.648  12.103   9.422
54459SOL    HW265275   9.759  12.013   9.372
54460SOL     OW65276   8.442   5.097  14.465
54460SOL    HW165277   8.352   5.071  14.447
54460SOL    HW265278   8.495   5.039  14.410
54461SOL     OW65279   6.267   6.908  11.383
54461SOL    HW165280   6.205   6.942  11.318
54461SOL    HW265281   6.311   6.986  11.417
54462SOL     OW65282   3.480   5.119   6.604
54462SOL    HW165283   3.427   5.042   6.619
54462SOL    HW265284   3.514   5.143   6.690
54463SOL     OW65285   8.359   7.045  11.861
54463SOL    HW165286   8.399   6.958  11.868
54463SOL    HW265287   8.294   7.035  11.791
54464SOL     OW65288   4.359   1.909  11.218
54464SOL    HW165289   4.429   1.941  11.276
54464SOL    HW265290   4.297   1.865  11.276
54465SOL     OW65291  12.284  14.273  13.272
54465SOL    HW165292  12.270  14.346  13.333
54465SOL    HW265293  12.312  14.315  13.190
54466SOL     OW65294  12.925  10.050   0.430
54466SOL    HW165295  12.997  10.064   0.369
54466SOL    HW265296  12.919   9.954   0.438
54467SOL     OW65297   6.846   3.848   7.344
54467SOL    HW165298   6.795   3.872   7.267
54467SOL    HW265299   6.865   3.931   7.387
54468SOL     OW65300   3.448   1.262  14.812
54468SOL    HW165301   3.456   1.336  14.753
54468SOL    HW265302   3.472   1.296   0.026
54469SOL     OW65303   3.444  11.944   0.851
54469SOL    HW165304   3.465  12.010   0.917
54469SOL    HW265305   3.493  11.971   0.773
54470SOL     OW65306   5.163   7.805  13.487
54470SOL    HW165307   5.231   7.783  13.551
54470SOL    HW265308   5.140   7.721  13.446
54471SOL     OW65309  14.201   4.778  12.975
54471SOL    HW165310  14.107   4.781  12.991
54471SOL    HW265311  14.210   4.810  12.885
54472SOL     OW65312  13.104  11.514   1.729
54472SOL    HW165313  13.025  11.512   1.783
54472SOL    HW265314  13.151  11.434   1.752
54473SOL     OW65315  10.068   9.216   6.404
54473SOL    HW165316  10.024   9.161   6.339
54473SOL    HW265317  10.073   9.162   6.483
54474SOL     OW65318  12.590   0.627  12.067
54474SOL    HW165319  12.528   0.689  12.107
54474SOL    HW265320  12.545   0.542  12.072
54475SOL     OW65321  10.680  10.840   1.651
54475SOL    HW165322  10.622  10.891   1.707
54475SOL    HW265323  10.626  10.815   1.576
54476SOL     OW65324   6.361   2.273   4.538
54476SOL    HW165325   6.282   2.263   4.485
54476SOL    HW265326   6.429   2.300   4.475
54477SOL     OW65327   5.727   2.627  11.469
54477SOL    HW165328   5.762   2.541  11.491
54477SOL    HW265329   5.722   2.673  11.552
54478SOL     OW65330   9.431   6.725   7.380
54478SOL    HW165331   9.518   6.766   7.382
54478SOL    HW265332   9.411   6.716   7.286
54479SOL     OW65333   4.991   9.307  14.178
54479SOL    HW165334   5.032   9.365  14.243
54479SOL    HW265335   4.908   9.282  14.217
54480SOL     OW65336  12.796  14.146  10.194
54480SOL    HW165337  12.831  14.157  10.106
54480SOL    HW265338  12.774  14.053  10.201
54481SOL     OW65339   5.087  12.343  11.810
54481SOL    HW165340   5.040  12.425  11.824
54481SOL    HW265341   5.133  12.355  11.727
54482SOL     OW65342   2.518   1.184   2.050
54482SOL    HW165343   2.425   1.196   2.070
54482SOL    HW265344   2.531   1.089   2.055
54483SOL     OW65345   7.506   2.046  11.725
54483SOL    HW165346   7.578   2.027  11.786
54483SOL    HW265347   7.461   2.121  11.764
54484SOL     OW65348  10.711   4.629   2.241
54484SOL    HW165349  10.759   4.586   2.171
54484SOL    HW265350  10.661   4.698   2.197
54485SOL     OW65351   4.164  13.223   5.283
54485SOL    HW165352   4.233  13.186   5.338
54485SOL    HW265353   4.112  13.278   5.342
54486SOL     OW65354   7.199   1.331   1.861
54486SOL    HW165355   7.133   1.261   1.857
54486SOL    HW265356   7.260   1.310   1.790
54487SOL     OW65357   8.749   0.159   5.971
54487SOL    HW165358   8.680   0.219   6.001
54487SOL    HW265359   8.789   0.205   5.897
54488SOL     OW65360   6.832  11.218  11.164
54488SOL    HW165361   6.854  11.141  11.111
54488SOL    HW265362   6.908  11.275  11.156
54489SOL     OW65363  13.984   6.453  12.390
54489SOL    HW165364  13.993   6.474  12.483
54489SOL    HW265365  14.071   6.469  12.353
54490SOL     OW65366   9.662   3.859   9.673
54490SOL    HW165367   9.570   3.883   9.657
54490SOL    HW265368   9.712   3.914   9.613
54491SOL     OW65369   8.639   3.375  11.318
54491SOL    HW165370   8.585   3.448  11.285
54491SOL    HW265371   8.652   3.319  11.242
54492SOL     OW65372  13.225   4.388   3.084
54492SOL    HW165373  13.215   4.320   3.018
54492SOL    HW265374  13.311   4.373   3.123
54493SOL     OW65375   0.435   6.030   0.462
54493SOL    HW165376   0.479   6.001   0.543
54493SOL    HW265377   0.377   6.100   0.491
54494SOL     OW65378   0.307  11.566   5.217
54494SOL    HW165379   0.276  11.655   5.236
54494SOL    HW265380   0.398  11.566   5.246
54495SOL     OW65381   1.167  11.779  10.538
54495SOL    HW165382   1.254  11.749  10.513
54495SOL    HW265383   1.110  11.705  10.519
54496SOL     OW65384   0.358   1.757   9.611
54496SOL    HW165385   0.342   1.698   9.685
54496SOL    HW265386   0.351   1.845   9.648
54497SOL     OW65387   2.676   8.774   4.663
54497SOL    HW165388   2.763   8.756   4.628
54497SOL    HW265389   2.682   8.754   4.756
54498SOL     OW65390   4.347   0.422   3.219
54498SOL    HW165391   4.369   0.329   3.225
54498SOL    HW265392   4.266   0.425   3.168
54499SOL     OW65393   5.645   1.188   7.699
54499SOL    HW165394   5.621   1.180   7.792
54499SOL    HW265395   5.595   1.120   7.655
54500SOL     OW65396  12.548   5.005  11.916
54500SOL    HW165397  12.481   4.992  11.983
54500SOL    HW265398  12.500   5.002  11.833
54501SOL     OW65399  12.686   2.179  11.126
54501SOL    HW165400  12.600   2.206  11.158
54501SOL    HW265401  12.731   2.261  11.107
54502SOL     OW65402   4.040  12.063   6.236
54502SOL    HW165403   3.949  12.041   6.260
54502SOL    HW265404   4.036  12.084   6.143
54503SOL     OW65405   3.165   7.617   3.997
54503SOL    HW165406   3.234   7.681   4.014
54503SOL    HW265407   3.207   7.549   3.945
54504SOL     OW65408   3.092  14.060   6.047
54504SOL    HW165409   3.100  13.985   6.106
54504SOL    HW265410   3.107  14.137   6.103
54505SOL     OW65411   3.707  12.925   1.414
54505SOL    HW165412   3.762  12.987   1.365
54505SOL    HW265413   3.621  12.933   1.374
54506SOL     OW65414   8.896   7.909   5.164
54506SOL    HW165415   8.839   7.927   5.089
54506SOL    HW265416   8.835   7.891   5.236
54507SOL     OW65417   9.820   3.276   3.429
54507SOL    HW165418   9.908   3.241   3.414
54507SOL    HW265419   9.784   3.222   3.499
54508SOL     OW65420  14.671  14.577  10.481
54508SOL    HW165421  14.597  14.520  10.502
54508SOL    HW265422  14.734  14.561  10.552
54509SOL     OW65423   4.884   2.143   4.815
54509SOL    HW165424   4.811   2.118   4.759
54509SOL    HW265425   4.894   2.237   4.803
54510SOL     OW65426  14.546   2.495  12.230
54510SOL    HW165427  14.591   2.495  12.146
54510SOL    HW265428  14.593   2.430  12.282
54511SOL     OW65429   4.245   1.412  14.007
54511SOL    HW165430   4.298   1.335  13.989
54511SOL    HW265431   4.256   1.468  13.930
54512SOL     OW65432  12.843  14.412   3.455
54512SOL    HW165433  12.788  14.342   3.420
54512SOL    HW265434  12.915  14.367   3.499
54513SOL     OW65435   8.933  11.048  12.525
54513SOL    HW165436   8.841  11.063  12.502
54513SOL    HW265437   8.957  11.124  12.577
54514SOL     OW65438   0.057  11.507   9.658
54514SOL    HW165439  14.843  11.488   9.620
54514SOL    HW265440   0.115  11.516   9.583
54515SOL     OW65441   6.269   1.816   8.032
54515SOL    HW165442   6.210   1.836   8.105
54515SOL    HW265443   6.292   1.723   8.044
54516SOL     OW65444   7.272   5.157   0.174
54516SOL    HW165445   7.181   5.181   0.155
54516SOL    HW265446   7.319   5.240   0.176
54517SOL     OW65447   7.571  10.277   2.085
54517SOL    HW165448   7.589  10.201   2.030
54517SOL    HW265449   7.646  10.335   2.072
54518SOL     OW65450   9.325  10.320   4.514
54518SOL    HW165451   9.234  10.311   4.540
54518SOL    HW265452   9.363  10.233   4.525
54519SOL     OW65453   4.098   0.766   1.785
54519SOL    HW165454   4.021   0.781   1.840
54519SOL    HW265455   4.137   0.853   1.775
54520SOL     OW65456   1.383   4.911   3.994
54520SOL    HW165457   1.378   5.006   3.979
54520SOL    HW265458   1.299   4.877   3.964
54521SOL     OW65459   5.204  13.631  11.385
54521SOL    HW165460   5.272  13.577  11.345
54521SOL    HW265461   5.195  13.706  11.326
54522SOL     OW65462   6.080   0.775   9.626
54522SOL    HW165463   6.003   0.765   9.569
54522SOL    HW265464   6.101   0.686   9.653
54523SOL     OW65465   7.581   4.830   2.332
54523SOL    HW165466   7.573   4.758   2.394
54523SOL    HW265467   7.528   4.901   2.369
54524SOL     OW65468   2.960   6.768   7.802
54524SOL    HW165469   2.869   6.754   7.830
54524SOL    HW265470   3.012   6.718   7.864
54525SOL     OW65471   2.815   9.619   6.527
54525SOL    HW165472   2.821   9.715   6.523
54525SOL    HW265473   2.795   9.593   6.438
54526SOL     OW65474   3.118  10.649  14.210
54526SOL    HW165475   3.158  10.620  14.291
54526SOL    HW265476   3.034  10.688  14.237
54527SOL     OW65477   6.634   2.891   4.296
54527SOL    HW165478   6.552   2.908   4.249
54527SOL    HW265479   6.636   2.957   4.365
54528SOL     OW65480   5.306   4.158   4.351
54528SOL    HW165481   5.343   4.243   4.371
54528SOL    HW265482   5.267   4.129   4.434
54529SOL     OW65483   8.182   4.556  13.486
54529SOL    HW165484   8.177   4.521  13.575
54529SOL    HW265485   8.094   4.545  13.451
54530SOL     OW65486   3.077  10.362  14.409
54530SOL    HW165487   3.087  10.356  14.314
54530SOL    HW265488   3.163  10.339  14.444
54531SOL     OW65489   0.462  10.740   0.004
54531SOL    HW165490   0.460  10.656  14.829
54531SOL    HW265491   0.371  10.766   0.010
54532SOL     OW65492   4.162   6.897   2.546
54532SOL    HW165493   4.243   6.917   2.593
54532SOL    HW265494   4.151   6.970   2.485
54533SOL     OW65495   0.774   0.889  10.506
54533SOL    HW165496   0.737   0.939  10.579
54533SOL    HW265497   0.864   0.919  10.500
54534SOL     OW65498   4.516   3.835   2.496
54534SOL    HW165499   4.423   3.851   2.479
54534SOL    HW265500   4.535   3.755   2.446
54535SOL     OW65501   8.237   6.692  13.580
54535SOL    HW165502   8.151   6.725  13.604
54535SOL    HW265503   8.223   6.600  13.560
54536SOL     OW65504   8.485   6.309   4.142
54536SOL    HW165505   8.477   6.325   4.048
54536SOL    HW265506   8.452   6.220   4.155
54537SOL     OW65507  14.568  14.838  14.721
54537SOL    HW165508  14.643  14.871  14.671
54537SOL    HW265509  14.597  14.752  14.753
54538SOL     OW65510   0.485   1.297   5.875
54538SOL    HW165511   0.544   1.317   5.803
54538SOL    HW265512   0.429   1.228   5.842
54539SOL     OW65513   5.749   5.734   7.872
54539SOL    HW165514   5.805   5.719   7.796
54539SOL    HW265515   5.771   5.822   7.902
54540SOL     OW65516   4.040  13.553   6.091
54540SOL    HW165517   4.057  13.645   6.072
54540SOL    HW265518   3.947  13.542   6.075
54541SOL     OW65519   1.389   8.053   0.552
54541SOL    HW165520   1.440   8.069   0.631
54541SOL    HW265521   1.394   7.958   0.538
54542SOL     OW65522   4.448   5.601  12.449
54542SOL    HW165523   4.536   5.572  12.473
54542SOL    HW265524   4.454   5.696  12.444
54543SOL     OW65525  10.885   1.477   8.365
54543SOL    HW165526  10.928   1.398   8.396
54543SOL    HW265527  10.924   1.548   8.416
54544SOL     OW65528   4.324  11.884   5.621
54544SOL    HW165529   4.402  11.913   5.669
54544SOL    HW265530   4.259  11.953   5.637
54545SOL     OW65531   4.073   2.752  12.903
54545SOL    HW165532   4.138   2.756  12.833
54545SOL    HW265533   4.063   2.843  12.931
54546SOL     OW65534  10.481   8.595   9.363
54546SOL    HW165535  10.411   8.651   9.331
54546SOL    HW265536  10.561   8.638   9.336
54547SOL     OW65537  13.304   5.772  14.209
54547SOL    HW165538  13.297   5.805  14.299
54547SOL    HW265539  13.363   5.834  14.166
54548SOL     OW65540  11.962  13.243  13.850
54548SOL    HW165541  11.899  13.171  13.842
54548SOL    HW265542  11.934  13.306  13.783
54549SOL     OW65543  11.530   9.927   3.724
54549SOL    HW165544  11.620   9.894   3.720
54549SOL    HW265545  11.540  10.020   3.745
54550SOL     OW65546   1.047   6.542  10.514
54550SOL    HW165547   1.034   6.623  10.564
54550SOL    HW265548   1.064   6.572  10.425
54551SOL     OW65549  12.728  12.261   1.548
54551SOL    HW165550  12.636  12.239   1.540
54551SOL    HW265551  12.728  12.347   1.590
54552SOL     OW65552   5.816   2.264   4.739
54552SOL    HW165553   5.787   2.355   4.745
54552SOL    HW265554   5.760   2.224   4.673
54553SOL     OW65555  14.676   6.610   9.818
54553SOL    HW165556  14.584   6.583   9.817
54553SOL    HW265557  14.713   6.567   9.894
54554SOL     OW65558   0.429  11.364  11.979
54554SOL    HW165559   0.504  11.369  11.920
54554SOL    HW265560   0.354  11.348  11.921
54555SOL     OW65561  11.710   1.673   8.063
54555SOL    HW165562  11.649   1.602   8.081
54555SOL    HW265563  11.654   1.750   8.054
54556SOL     OW65564  12.022   3.906   3.846
54556SOL    HW165565  12.048   3.840   3.910
54556SOL    HW265566  12.092   3.971   3.849
54557SOL     OW65567   3.192   8.190   3.337
54557SOL    HW165568   3.193   8.157   3.247
54557SOL    HW265569   3.279   8.226   3.351
54558SOL     OW65570   6.023   3.789  13.810
54558SOL    HW165571   6.118   3.787  13.802
54558SOL    HW265572   5.999   3.699  13.833
54559SOL     OW65573   1.908   5.889  11.030
54559SOL    HW165574   1.946   5.972  11.001
54559SOL    HW265575   1.973   5.823  11.003
54560SOL     OW65576   4.084  10.757   4.543
54560SOL    HW165577   4.108  10.708   4.464
54560SOL    HW265578   3.994  10.729   4.562
54561SOL     OW65579  12.332  12.711   0.588
54561SOL    HW165580  12.347  12.619   0.569
54561SOL    HW265581  12.311  12.714   0.681
54562SOL     OW65582   0.470   0.474   0.788
54562SOL    HW165583   0.417   0.416   0.733
54562SOL    HW265584   0.408   0.536   0.825
54563SOL     OW65585   5.557  12.405   2.970
54563SOL    HW165586   5.492  12.362   2.914
54563SOL    HW265587   5.639  12.398   2.922
54564SOL     OW65588   9.029   6.300  12.679
54564SOL    HW165589   9.104   6.247  12.705
54564SOL    HW265590   9.010   6.272  12.589
54565SOL     OW65591   8.762   2.639   3.923
54565SOL    HW165592   8.705   2.704   3.963
54565SOL    HW265593   8.812   2.688   3.857
54566SOL     OW65594   7.019  11.762   0.554
54566SOL    HW165595   6.937  11.756   0.504
54566SOL    HW265596   7.086  11.730   0.493
54567SOL     OW65597   9.260   5.891   1.244
54567SOL    HW165598   9.343   5.931   1.220
54567SOL    HW265599   9.282   5.830   1.315
54568SOL     OW65600   7.810   8.755   6.346
54568SOL    HW165601   7.781   8.845   6.362
54568SOL    HW265602   7.753   8.701   6.401
54569SOL     OW65603   1.428   1.740   4.008
54569SOL    HW165604   1.463   1.704   4.089
54569SOL    HW265605   1.372   1.812   4.036
54570SOL     OW65606   3.091  11.267   0.629
54570SOL    HW165607   3.119  11.315   0.551
54570SOL    HW265608   3.146  11.189   0.631
54571SOL     OW65609  12.795  12.367   2.500
54571SOL    HW165610  12.828  12.281   2.474
54571SOL    HW265611  12.702  12.365   2.475
54572SOL     OW65612   7.266  12.147   3.924
54572SOL    HW165613   7.338  12.210   3.932
54572SOL    HW265614   7.265  12.100   4.007
54573SOL     OW65615   6.941   1.120  11.727
54573SOL    HW165616   6.965   1.058  11.796
54573SOL    HW265617   6.904   1.195  11.774
54574SOL     OW65618   0.313   1.685   6.033
54574SOL    HW165619   0.351   1.609   6.075
54574SOL    HW265620   0.304   1.660   5.941
54575SOL     OW65621   6.923  11.472   3.605
54575SOL    HW165622   6.929  11.540   3.538
54575SOL    HW265623   6.831  11.448   3.607
54576SOL     OW65624  13.587   8.533  14.649
54576SOL    HW165625  13.644   8.582  14.589
54576SOL    HW265626  13.541   8.471  14.592
54577SOL     OW65627   7.437  14.646   9.201
54577SOL    HW165628   7.444  14.723   9.258
54577SOL    HW265629   7.524  14.636   9.163
54578SOL     OW65630   2.149   7.077   4.199
54578SOL    HW165631   2.080   7.091   4.264
54578SOL    HW265632   2.145   6.983   4.180
54579SOL     OW65633  12.961  11.217  11.786
54579SOL    HW165634  12.885  11.211  11.728
54579SOL    HW265635  13.015  11.285  11.746
54580SOL     OW65636   2.577   8.319  11.533
54580SOL    HW165637   2.509   8.257  11.508
54580SOL    HW265638   2.595   8.369  11.453
54581SOL     OW65639  10.757   3.777  14.652
54581SOL    HW165640  10.753   3.725  14.572
54581SOL    HW265641  10.671   3.769  14.691
54582SOL     OW65642   8.464  10.022  11.712
54582SOL    HW165643   8.550  10.015  11.752
54582SOL    HW265644   8.403  10.030  11.786
54583SOL     OW65645   2.506   4.918  12.283
54583SOL    HW165646   2.456   4.886  12.208
54583SOL    HW265647   2.579   4.858  12.291
54584SOL     OW65648   7.370  14.002  10.033
54584SOL    HW165649   7.318  14.016  10.112
54584SOL    HW265650   7.395  14.089  10.004
54585SOL     OW65651   8.610   0.023  14.373
54585SOL    HW165652   8.587   0.063  14.457
54585SOL    HW265653   8.631   0.097  14.316
54586SOL     OW65654   5.485  13.670   9.439
54586SOL    HW165655   5.424  13.706   9.375
54586SOL    HW265656   5.437  13.673   9.522
54587SOL     OW65657   3.107  14.314  11.990
54587SOL    HW165658   3.021  14.319  12.031
54587SOL    HW265659   3.161  14.268  12.053
54588SOL     OW65660   7.814   9.285   7.086
54588SOL    HW165661   7.792   9.207   7.034
54588SOL    HW265662   7.805   9.358   7.025
54589SOL     OW65663  13.002   7.751  10.027
54589SOL    HW165664  13.071   7.697   9.988
54589SOL    HW265665  12.985   7.710  10.112
54590SOL     OW65666  13.872   2.282   2.457
54590SOL    HW165667  13.802   2.324   2.406
54590SOL    HW265668  13.826   2.226   2.519
54591SOL     OW65669   1.722  12.983   4.651
54591SOL    HW165670   1.797  13.043   4.647
54591SOL    HW265671   1.722  12.940   4.565
54592SOL     OW65672   0.819   1.899   9.511
54592SOL    HW165673   0.740   1.847   9.492
54592SOL    HW265674   0.822   1.905   9.606
54593SOL     OW65675  11.066   4.714   6.663
54593SOL    HW165676  11.137   4.654   6.686
54593SOL    HW265677  11.003   4.659   6.617
54594SOL     OW65678   4.437   4.968  10.833
54594SOL    HW165679   4.413   5.060  10.823
54594SOL    HW265680   4.359   4.920  10.804
54595SOL     OW65681   0.077   7.093  11.201
54595SOL    HW165682   0.002   7.122  11.148
54595SOL    HW265683   0.150   7.092  11.139
54596SOL     OW65684   3.282   8.647   9.501
54596SOL    HW165685   3.358   8.705   9.510
54596SOL    HW265686   3.227   8.690   9.436
54597SOL     OW65687   0.804   1.679   1.998
54597SOL    HW165688   0.724   1.689   2.050
54597SOL    HW265689   0.839   1.594   2.025
54598SOL     OW65690   4.013  12.038  11.310
54598SOL    HW165691   3.974  11.955  11.287
54598SOL    HW265692   4.037  12.029  11.402
54599SOL     OW65693   9.947  12.557   7.808
54599SOL    HW165694   9.865  12.570   7.761
54599SOL    HW265695   9.953  12.632   7.868
54600SOL     OW65696   9.862   7.977   9.393
54600SOL    HW165697   9.939   7.938   9.351
54600SOL    HW265698   9.864   8.069   9.366
54601SOL     OW65699   2.719  12.626  10.992
54601SOL    HW165700   2.738  12.651  11.083
54601SOL    HW265701   2.739  12.532  10.988
54602SOL     OW65702   3.349  12.848   8.805
54602SOL    HW165703   3.355  12.901   8.725
54602SOL    HW265704   3.375  12.760   8.777
54603SOL     OW65705   0.776  12.318  12.881
54603SOL    HW165706   0.784  12.389  12.817
54603SOL    HW265707   0.776  12.362  12.966
54604SOL     OW65708   2.845   0.424  13.397
54604SOL    HW165709   2.777   0.374  13.354
54604SOL    HW265710   2.848   0.389  13.486
54605SOL     OW65711  11.407   5.535  14.561
54605SOL    HW165712  11.461   5.559  14.485
54605SOL    HW265713  11.470   5.507  14.627
54606SOL     OW65714   6.052   0.102   3.306
54606SOL    HW165715   6.040   0.179   3.251
54606SOL    HW265716   6.120   0.128   3.368
54607SOL     OW65717   0.420  14.657  11.400
54607SOL    HW165718   0.432  14.719  11.327
54607SOL    HW265719   0.352  14.597  11.369
54608SOL     OW65720  10.429   1.940   1.126
54608SOL    HW165721  10.507   1.986   1.160
54608SOL    HW265722  10.464   1.877   1.064
54609SOL     OW65723   0.949  13.571   5.205
54609SOL    HW165724   0.980  13.531   5.286
54609SOL    HW265725   1.029  13.591   5.156
54610SOL     OW65726   7.741   7.790  12.760
54610SOL    HW165727   7.682   7.853  12.720
54610SOL    HW265728   7.743   7.716  12.700
54611SOL     OW65729  11.866   7.453   6.888
54611SOL    HW165730  11.795   7.415   6.939
54611SOL    HW265731  11.891   7.384   6.826
54612SOL     OW65732   1.751  11.797  14.257
54612SOL    HW165733   1.773  11.836  14.172
54612SOL    HW265734   1.688  11.858  14.295
54613SOL     OW65735   4.261  11.683   3.038
54613SOL    HW165736   4.340  11.655   3.086
54613SOL    HW265737   4.228  11.757   3.088
54614SOL     OW65738   6.611  13.070   9.898
54614SOL    HW165739   6.612  13.159   9.935
54614SOL    HW265740   6.703  13.052   9.877
54615SOL     OW65741  14.798  12.226   8.092
54615SOL    HW165742  14.828  12.283   8.163
54615SOL    HW265743  14.707  12.205   8.115
54616SOL     OW65744   4.790   3.842  13.153
54616SOL    HW165745   4.879   3.808  13.159
54616SOL    HW265746   4.778   3.863  13.061
54617SOL     OW65747   7.999   8.811   7.562
54617SOL    HW165748   8.031   8.747   7.625
54617SOL    HW265749   8.013   8.895   7.604
54618SOL     OW65750  10.561  10.345   0.931
54618SOL    HW165751  10.515  10.316   0.852
54618SOL    HW265752  10.628  10.405   0.899
54619SOL     OW65753  11.013  13.841   0.416
54619SOL    HW165754  11.059  13.903   0.473
54619SOL    HW265755  11.008  13.887   0.332
54620SOL     OW65756   8.769  10.149   7.256
54620SOL    HW165757   8.747  10.238   7.229
54620SOL    HW265758   8.772  10.100   7.174
54621SOL     OW65759  13.214  12.174   8.091
54621SOL    HW165760  13.145  12.232   8.059
54621SOL    HW265761  13.183  12.086   8.069
54622SOL     OW65762   5.485   8.241   4.427
54622SOL    HW165763   5.405   8.279   4.392
54622SOL    HW265764   5.489   8.153   4.389
54623SOL     OW65765   3.773   5.569  13.935
54623SOL    HW165766   3.735   5.585  13.849
54623SOL    HW265767   3.742   5.481  13.959
54624SOL     OW65768  12.487   9.487   2.695
54624SOL    HW165769  12.418   9.463   2.758
54624SOL    HW265770  12.566   9.494   2.748
54625SOL     OW65771  14.655  11.086   2.222
54625SOL    HW165772  14.650  11.147   2.296
54625SOL    HW265773  14.728  11.118   2.169
54626SOL     OW65774   9.560   9.866   3.328
54626SOL    HW165775   9.563   9.951   3.285
54626SOL    HW265776   9.517   9.808   3.265
54627SOL     OW65777   0.050   5.285   5.219
54627SOL    HW165778  14.830   5.268   5.196
54627SOL    HW265779   0.060   5.247   5.306
54628SOL     OW65780   6.452  12.085  11.314
54628SOL    HW165781   6.516  12.014  11.307
54628SOL    HW265782   6.462  12.134  11.232
54629SOL     OW65783   7.058   3.170   9.371
54629SOL    HW165784   7.097   3.162   9.284
54629SOL    HW265785   7.002   3.247   9.365
54630SOL     OW65786  14.851   2.989   5.168
54630SOL    HW165787  14.859   3.037   5.251
54630SOL    HW265788   0.018   3.048   5.103
54631SOL     OW65789   4.319   4.456   9.887
54631SOL    HW165790   4.340   4.449   9.794
54631SOL    HW265791   4.404   4.448   9.931
54632SOL     OW65792   3.240   4.823   6.228
54632SOL    HW165793   3.290   4.742   6.230
54632SOL    HW265794   3.212   4.831   6.137
54633SOL     OW65795   3.705   9.228   9.822
54633SOL    HW165796   3.678   9.248   9.732
54633SOL    HW265797   3.627   9.190   9.862
54634SOL     OW65798  11.523  14.477   4.583
54634SOL    HW165799  11.513  14.462   4.489
54634SOL    HW265800  11.442  14.442   4.621
54635SOL     OW65801  13.304   7.067   2.950
54635SOL    HW165802  13.294   7.085   2.857
54635SOL    HW265803  13.335   7.149   2.988
54636SOL     OW65804   1.316   6.237   0.761
54636SOL    HW165805   1.278   6.166   0.813
54636SOL    HW265806   1.402   6.203   0.735
54637SOL     OW65807  11.268   8.279  14.213
54637SOL    HW165808  11.279   8.184  14.222
54637SOL    HW265809  11.352   8.311  14.182
54638SOL     OW65810  14.706  13.195   7.821
54638SOL    HW165811  14.714  13.239   7.736
54638SOL    HW265812  14.795  13.196   7.857
54639SOL     OW65813   2.402   4.051   0.468
54639SOL    HW165814   2.315   4.087   0.449
54639SOL    HW265815   2.417   4.072   0.560
54640SOL     OW65816  12.996  11.467   2.788
54640SOL    HW165817  12.981  11.468   2.883
54640SOL    HW265818  12.910  11.453   2.750
54641SOL     OW65819  11.677   7.424   0.947
54641SOL    HW165820  11.600   7.459   0.902
54641SOL    HW265821  11.656   7.429   1.040
54642SOL     OW65822   5.920   5.648  11.661
54642SOL    HW165823   6.004   5.629  11.619
54642SOL    HW265824   5.855   5.629  11.594
54643SOL     OW65825   7.326  14.389  14.783
54643SOL    HW165826   7.283  14.474  14.787
54643SOL    HW265827   7.397  14.395  14.847
54644SOL     OW65828   0.019   2.493  13.339
54644SOL    HW165829   0.106   2.510  13.303
54644SOL    HW265830  14.853   2.429  13.279
54645SOL     OW65831   8.503   4.479  14.258
54645SOL    HW165832   8.556   4.496  14.336
54645SOL    HW265833   8.568   4.471  14.188
54646SOL     OW65834   5.824  13.144   8.710
54646SOL    HW165835   5.887  13.155   8.781
54646SOL    HW265836   5.878  13.132   8.632
54647SOL     OW65837   5.883   2.414  11.401
54647SOL    HW165838   5.820   2.358  11.355
54647SOL    HW265839   5.936   2.453  11.332
54648SOL     OW65840   3.000   1.404   7.872
54648SOL    HW165841   2.990   1.467   7.800
54648SOL    HW265842   2.940   1.333   7.849
54649SOL     OW65843  12.073   1.454   8.361
54649SOL    HW165844  11.998   1.416   8.407
54649SOL    HW265845  12.034   1.502   8.288
54650SOL     OW65846   6.081  13.389   7.770
54650SOL    HW165847   6.122  13.450   7.832
54650SOL    HW265848   6.154  13.344   7.729
54651SOL     OW65849   0.786   7.717  13.623
54651SOL    HW165850   0.837   7.797  13.615
54651SOL    HW265851   0.848   7.652  13.657
54652SOL     OW65852  12.120   1.923  14.725
54652SOL    HW165853  12.094   1.991  14.663
54652SOL    HW265854  12.210   1.945  14.749
54653SOL     OW65855   0.861   4.105   5.849
54653SOL    HW165856   0.836   4.016   5.823
54653SOL    HW265857   0.803   4.161   5.798
54654SOL     OW65858   5.126   8.907  13.602
54654SOL    HW165859   5.165   8.966  13.538
54654SOL    HW265860   5.103   8.829  13.551
54655SOL     OW65861   0.003   1.421   7.452
54655SOL    HW165862  14.781   1.432   7.435
54655SOL    HW265863   0.036   1.511   7.464
54656SOL     OW65864  12.642  10.758   1.480
54656SOL    HW165865  12.698  10.821   1.525
54656SOL    HW265866  12.701  10.714   1.418
54657SOL     OW65867  14.450   3.044   6.127
54657SOL    HW165868  14.387   3.114   6.107
54657SOL    HW265869  14.432   2.976   6.062
54658SOL     OW65870  11.437   0.779   2.047
54658SOL    HW165871  11.408   0.711   1.985
54658SOL    HW265872  11.488   0.732   2.113
54659SOL     OW65873  11.131  14.034   2.454
54659SOL    HW165874  11.037  14.023   2.441
54659SOL    HW265875  11.164  13.945   2.467
54660SOL     OW65876  12.148   3.140  10.438
54660SOL    HW165877  12.110   3.216  10.483
54660SOL    HW265878  12.078   3.106  10.383
54661SOL     OW65879   7.488   4.047   0.726
54661SOL    HW165880   7.523   3.959   0.737
54661SOL    HW265881   7.544   4.102   0.781
54662SOL     OW65882  11.128   9.122  10.520
54662SOL    HW165883  11.110   9.081  10.605
54662SOL    HW265884  11.224   9.126  10.516
54663SOL     OW65885   7.001   1.365   8.332
54663SOL    HW165886   6.910   1.366   8.362
54663SOL    HW265887   7.033   1.453   8.350
54664SOL     OW65888   0.803   3.035   1.232
54664SOL    HW165889   0.762   3.065   1.150
54664SOL    HW265890   0.745   3.066   1.301
54665SOL     OW65891   6.852   5.493   5.944
54665SOL    HW165892   6.807   5.416   5.908
54665SOL    HW265893   6.838   5.561   5.879
54666SOL     OW65894   1.304   1.003   8.391
54666SOL    HW165895   1.338   0.962   8.311
54666SOL    HW265896   1.325   1.096   8.381
54667SOL     OW65897   1.005   1.355   0.962
54667SOL    HW165898   1.010   1.299   1.039
54667SOL    HW265899   0.977   1.440   0.996
54668SOL     OW65900   8.827   8.536   7.672
54668SOL    HW165901   8.791   8.449   7.691
54668SOL    HW265902   8.761   8.578   7.618
54669SOL     OW65903   2.865  14.548  11.687
54669SOL    HW165904   2.775  14.579  11.702
54669SOL    HW265905   2.869  14.532  11.593
54670SOL     OW65906   8.376   0.641   1.079
54670SOL    HW165907   8.379   0.702   1.153
54670SOL    HW265908   8.401   0.557   1.117
54671SOL     OW65909  14.063   2.802   2.280
54671SOL    HW165910  14.032   2.881   2.236
54671SOL    HW265911  14.128   2.832   2.343
54672SOL     OW65912   4.885  11.054   8.171
54672SOL    HW165913   4.832  11.103   8.234
54672SOL    HW265914   4.925  11.121   8.116
54673SOL     OW65915   5.028  11.197   6.085
54673SOL    HW165916   5.105  11.148   6.054
54673SOL    HW265917   5.014  11.166   6.174
54674SOL     OW65918   3.847  11.023   0.188
54674SOL    HW165919   3.851  11.075   0.269
54674SOL    HW265920   3.771  10.966   0.199
54675SOL     OW65921  10.767  10.489   8.333
54675SOL    HW165922  10.733  10.568   8.291
54675SOL    HW265923  10.857  10.511   8.356
54676SOL     OW65924   0.112   6.893  13.707
54676SOL    HW165925   0.147   6.810  13.675
54676SOL    HW265926   0.047   6.918  13.641
54677SOL     OW65927   4.488   0.528   8.653
54677SOL    HW165928   4.493   0.433   8.643
54677SOL    HW265929   4.452   0.541   8.741
54678SOL     OW65930   6.390  12.498   4.906
54678SOL    HW165931   6.331  12.553   4.957
54678SOL    HW265932   6.359  12.508   4.816
54679SOL     OW65933   0.803   1.560   9.972
54679SOL    HW165934   0.792   1.596   9.884
54679SOL    HW265935   0.758   1.622  10.029
54680SOL     OW65936   7.850   4.491   7.024
54680SOL    HW165937   7.882   4.580   7.035
54680SOL    HW265938   7.922   4.444   6.983
54681SOL     OW65939   1.759   8.726   1.708
54681SOL    HW165940   1.740   8.666   1.635
54681SOL    HW265941   1.673   8.761   1.732
54682SOL     OW65942   6.200   6.400   1.540
54682SOL    HW165943   6.238   6.425   1.456
54682SOL    HW265944   6.260   6.335   1.576
54683SOL     OW65945  12.649  12.993   0.878
54683SOL    HW165946  12.634  13.084   0.904
54683SOL    HW265947  12.565  12.963   0.843
54684SOL     OW65948   3.189   3.999   6.384
54684SOL    HW165949   3.109   4.032   6.426
54684SOL    HW265950   3.176   3.904   6.378
54685SOL     OW65951   4.005   8.564   1.888
54685SOL    HW165952   4.082   8.538   1.938
54685SOL    HW265953   3.988   8.654   1.914
54686SOL     OW65954  11.286   7.290   9.773
54686SOL    HW165955  11.213   7.319   9.719
54686SOL    HW265956  11.254   7.212   9.818
54687SOL     OW65957   4.488   1.969  10.798
54687SOL    HW165958   4.512   2.059  10.775
54687SOL    HW265959   4.571   1.921  10.798
54688SOL     OW65960   5.287   6.733   6.960
54688SOL    HW165961   5.242   6.678   6.896
54688SOL    HW265962   5.380   6.710   6.950
54689SOL     OW65963  13.591   9.351   7.739
54689SOL    HW165964  13.551   9.294   7.673
54689SOL    HW265965  13.518   9.401   7.775
54690SOL     OW65966   7.198  13.353  11.663
54690SOL    HW165967   7.113  13.396  11.660
54690SOL    HW265968   7.178  13.259  11.654
54691SOL     OW65969  13.396  11.846  14.043
54691SOL    HW165970  13.414  11.753  14.049
54691SOL    HW265971  13.307  11.856  14.078
54692SOL     OW65972   3.075   6.975   0.729
54692SOL    HW165973   3.001   6.924   0.764
54692SOL    HW265974   3.096   6.933   0.646
54693SOL     OW65975   2.168   5.762  11.838
54693SOL    HW165976   2.123   5.710  11.905
54693SOL    HW265977   2.249   5.714  11.821
54694SOL     OW65978  12.030   6.886   8.422
54694SOL    HW165979  11.953   6.831   8.431
54694SOL    HW265980  12.016   6.933   8.339
54695SOL     OW65981   3.373  10.172   8.526
54695SOL    HW165982   3.357  10.230   8.600
54695SOL    HW265983   3.338  10.219   8.450
54696SOL     OW65984  14.527  10.053   5.521
54696SOL    HW165985  14.466  10.127   5.516
54696SOL    HW265986  14.505  10.010   5.604
54697SOL     OW65987  10.856   6.931  11.648
54697SOL    HW165988  10.891   6.999  11.704
54697SOL    HW265989  10.809   6.978  11.579
54698SOL     OW65990   7.465  14.012   7.828
54698SOL    HW165991   7.388  13.956   7.831
54698SOL    HW265992   7.435  14.091   7.783
54699SOL     OW65993   5.475  14.811  12.701
54699SOL    HW165994   5.535   0.012  12.717
54699SOL    HW265995   5.478  14.759  12.782
54700SOL     OW65996   5.873   3.783   5.862
54700SOL    HW165997   5.954   3.781   5.913
54700SOL    HW265998   5.898   3.824   5.779
54701SOL     OW65999   5.348  11.242   4.910
54701SOL    HW166000   5.372  11.304   4.979
54701SOL    HW266001   5.431  11.219   4.868
54702SOL     OW66002   9.663   4.231   1.602
54702SOL    HW166003   9.673   4.298   1.535
54702SOL    HW266004   9.568   4.214   1.604
54703SOL     OW66005  13.436   1.849   9.577
54703SOL    HW166006  13.380   1.919   9.613
54703SOL    HW266007  13.426   1.857   9.482
54704SOL     OW66008  10.387   1.063  12.203
54704SOL    HW166009  10.325   1.049  12.275
54704SOL    HW266010  10.357   1.004  12.134
54705SOL     OW66011  12.638   1.316   0.135
54705SOL    HW166012  12.668   1.333   0.224
54705SOL    HW266013  12.543   1.314   0.141
54706SOL     OW66014   4.431  10.787  12.415
54706SOL    HW166015   4.351  10.736  12.425
54706SOL    HW266016   4.404  10.878  12.430
54707SOL     OW66017  11.236  11.251  11.318
54707SOL    HW166018  11.265  11.266  11.408
54707SOL    HW266019  11.317  11.236  11.269
54708SOL     OW66020   3.700   1.974  10.617
54708SOL    HW166021   3.646   1.929  10.683
54708SOL    HW266022   3.706   1.911  10.545
54709SOL     OW66023   8.505   8.111   5.798
54709SOL    HW166024   8.447   8.067   5.860
54709SOL    HW266025   8.448   8.131   5.723
54710SOL     OW66026  11.070   7.710  12.667
54710SOL    HW166027  11.144   7.754  12.626
54710SOL    HW266028  11.105   7.626  12.698
54711SOL     OW66029  10.708   9.726  11.321
54711SOL    HW166030  10.767   9.671  11.373
54711SOL    HW266031  10.766   9.773  11.261
54712SOL     OW66032   8.644   3.651  12.924
54712SOL    HW166033   8.711   3.648  12.855
54712SOL    HW266034   8.562   3.639  12.876
54713SOL     OW66035   9.229   0.738   2.094
54713SOL    HW166036   9.315   0.780   2.098
54713SOL    HW266037   9.237   0.662   2.152
54714SOL     OW66038   6.575   1.519  13.429
54714SOL    HW166039   6.603   1.610  13.431
54714SOL    HW266040   6.482   1.523  13.408
54715SOL     OW66041  10.701   4.224  11.297
54715SOL    HW166042  10.779   4.168  11.299
54715SOL    HW266043  10.635   4.175  11.346
54716SOL     OW66044  12.682   0.806   7.056
54716SOL    HW166045  12.628   0.884   7.046
54716SOL    HW266046  12.725   0.795   6.972
54717SOL     OW66047   8.055   1.351   5.840
54717SOL    HW166048   7.969   1.315   5.819
54717SOL    HW266049   8.076   1.314   5.926
54718SOL     OW66050   1.447   2.097   1.043
54718SOL    HW166051   1.371   2.110   1.099
54718SOL    HW266052   1.428   2.150   0.965
54719SOL     OW66053  13.605  14.485   5.514
54719SOL    HW166054  13.632  14.396   5.489
54719SOL    HW266055  13.657  14.504   5.592
54720SOL     OW66056   3.071   1.406  13.724
54720SOL    HW166057   3.003   1.473  13.727
54720SOL    HW266058   3.115   1.413  13.809
54721SOL     OW66059  11.660   7.549   9.578
54721SOL    HW166060  11.703   7.545   9.493
54721SOL    HW266061  11.730   7.561   9.641
54722SOL     OW66062   9.980  12.954   3.817
54722SOL    HW166063   9.967  12.951   3.722
54722SOL    HW266064   9.915  12.893   3.852
54723SOL     OW66065   0.177   7.728   1.688
54723SOL    HW166066   0.101   7.713   1.632
54723SOL    HW266067   0.140   7.755   1.772
54724SOL     OW66068  13.900   5.130   0.095
54724SOL    HW166069  13.938   5.174   0.019
54724SOL    HW266070  13.813   5.102   0.065
54725SOL     OW66071  12.406   0.864   6.415
54725SOL    HW166072  12.375   0.803   6.483
54725SOL    HW266073  12.326   0.906   6.383
54726SOL     OW66074   1.469   2.915  10.990
54726SOL    HW166075   1.467   3.003  10.955
54726SOL    HW266076   1.539   2.916  11.056
54727SOL     OW66077   4.913  11.473   0.477
54727SOL    HW166078   4.929  11.555   0.522
54727SOL    HW266079   4.964  11.408   0.526
54728SOL     OW66080   4.740   6.219   8.729
54728SOL    HW166081   4.807   6.283   8.703
54728SOL    HW266082   4.711   6.249   8.815
54729SOL     OW66083  12.302  13.420   0.255
54729SOL    HW166084  12.241  13.471   0.308
54729SOL    HW266085  12.338  13.482   0.192
54730SOL     OW66086  10.837  14.457   2.076
54730SOL    HW166087  10.866  14.373   2.043
54730SOL    HW266088  10.883  14.468   2.159
54731SOL     OW66089   3.565   8.955   2.557
54731SOL    HW166090   3.628   8.883   2.553
54731SOL    HW266091   3.529   8.950   2.646
54732SOL     OW66092   1.882   5.173   5.162
54732SOL    HW166093   1.903   5.104   5.100
54732SOL    HW266094   1.887   5.254   5.111
54733SOL     OW66095  11.782   0.572   5.929
54733SOL    HW166096  11.869   0.589   5.893
54733SOL    HW266097  11.747   0.501   5.875
54734SOL     OW66098   3.664  13.398   5.784
54734SOL    HW166099   3.590  13.339   5.794
54734SOL    HW266100   3.727  13.349   5.731
54735SOL     OW66101   6.844   0.656  10.644
54735SOL    HW166102   6.831   0.751  10.648
54735SOL    HW266103   6.886   0.633  10.727
54736SOL     OW66104  14.438   8.218   5.346
54736SOL    HW166105  14.380   8.165   5.401
54736SOL    HW266106  14.443   8.170   5.264
54737SOL     OW66107   2.127   5.153  14.764
54737SOL    HW166108   2.138   5.117  14.676
54737SOL    HW266109   2.191   5.224  14.769
54738SOL     OW66110  10.724   6.489   5.663
54738SOL    HW166111  10.688   6.407   5.628
54738SOL    HW266112  10.680   6.501   5.747
54739SOL     OW66113   6.168   8.358  12.194
54739SOL    HW166114   6.220   8.424  12.150
54739SOL    HW266115   6.167   8.283  12.134
54740SOL     OW66116   5.846   4.835  14.212
54740SOL    HW166117   5.817   4.759  14.160
54740SOL    HW266118   5.938   4.845  14.190
54741SOL     OW66119  11.195  11.537  10.547
54741SOL    HW166120  11.277  11.580  10.524
54741SOL    HW266121  11.203  11.517  10.640
54742SOL     OW66122   3.288   9.986  11.469
54742SOL    HW166123   3.250  10.062  11.424
54742SOL    HW266124   3.216   9.923  11.474
54743SOL     OW66125  13.351   7.535   5.569
54743SOL    HW166126  13.349   7.615   5.620
54743SOL    HW266127  13.350   7.465   5.634
54744SOL     OW66128  11.797  12.218   6.907
54744SOL    HW166129  11.872  12.208   6.847
54744SOL    HW266130  11.722  12.232   6.849
54745SOL     OW66131   9.510   6.603  14.297
54745SOL    HW166132   9.526   6.649  14.214
54745SOL    HW266133   9.441   6.540  14.276
54746SOL     OW66134   7.453  10.549   8.801
54746SOL    HW166135   7.453  10.475   8.741
54746SOL    HW266136   7.383  10.530   8.864
54747SOL     OW66137   0.413   8.615   3.579
54747SOL    HW166138   0.428   8.534   3.530
54747SOL    HW266139   0.336   8.597   3.633
54748SOL     OW66140   5.312   3.568   2.017
54748SOL    HW166141   5.355   3.522   1.945
54748SOL    HW266142   5.220   3.573   1.991
54749SOL     OW66143   6.233  13.533   1.386
54749SOL    HW166144   6.314  13.513   1.433
54749SOL    HW266145   6.164  13.496   1.440
54750SOL     OW66146   5.030   2.670  13.198
54750SOL    HW166147   5.040   2.581  13.231
54750SOL    HW266148   5.073   2.669  13.112
54751SOL     OW66149   6.530   7.031  11.804
54751SOL    HW166150   6.553   6.938  11.801
54751SOL    HW266151   6.614   7.077  11.801
54752SOL     OW66152  14.653  12.501  11.811
54752SOL    HW166153  14.696  12.458  11.737
54752SOL    HW266154  14.696  12.586  11.817
54753SOL     OW66155   5.697   7.609   4.286
54753SOL    HW166156   5.771   7.600   4.346
54753SOL    HW266157   5.727   7.670   4.220
54754SOL     OW66158   9.137  11.217  11.898
54754SOL    HW166159   9.100  11.260  11.975
54754SOL    HW266160   9.218  11.265  11.880
54755SOL     OW66161   1.463   8.504   8.231
54755SOL    HW166162   1.500   8.512   8.318
54755SOL    HW266163   1.503   8.575   8.181
54756SOL     OW66164   4.022  12.247   2.626
54756SOL    HW166165   4.102  12.283   2.665
54756SOL    HW266166   4.030  12.153   2.638
54757SOL     OW66167   8.605  12.987   4.120
54757SOL    HW166168   8.695  12.977   4.151
54757SOL    HW266169   8.612  12.986   4.025
54758SOL     OW66170  10.142  11.094   1.450
54758SOL    HW166171  10.061  11.127   1.411
54758SOL    HW266172  10.124  11.001   1.465
54759SOL     OW66173   0.736   5.611   5.315
54759SOL    HW166174   0.672   5.558   5.364
54759SOL    HW266175   0.809   5.622   5.375
54760SOL     OW66176  12.311   0.790   6.874
54760SOL    HW166177  12.332   0.800   6.782
54760SOL    HW266178  12.358   0.712   6.902
54761SOL     OW66179   1.924   3.130  10.527
54761SOL    HW166180   2.003   3.101  10.480
54761SOL    HW266181   1.854   3.126  10.461
54762SOL     OW66182   9.716   5.833   7.495
54762SOL    HW166183   9.681   5.744   7.505
54762SOL    HW266184   9.664   5.871   7.425
54763SOL     OW66185  10.690  12.221   9.987
54763SOL    HW166186  10.774  12.228   9.941
54763SOL    HW266187  10.646  12.147   9.945
54764SOL     OW66188   6.478   3.695   9.839
54764SOL    HW166189   6.532   3.724   9.766
54764SOL    HW266190   6.507   3.748   9.913
54765SOL     OW66191   9.847  13.283  14.724
54765SOL    HW166192   9.874  13.243  14.642
54765SOL    HW266193   9.929  13.297  14.772
54766SOL     OW66194   5.291   1.995  14.687
54766SOL    HW166195   5.195   1.993  14.680
54766SOL    HW266196   5.316   2.077  14.645
54767SOL     OW66197  11.380  10.195   6.541
54767SOL    HW166198  11.372  10.117   6.595
54767SOL    HW266199  11.432  10.256   6.593
54768SOL     OW66200   5.467   5.430  11.882
54768SOL    HW166201   5.439   5.457  11.794
54768SOL    HW266202   5.503   5.510  11.921
54769SOL     OW66203   4.536  12.624   0.678
54769SOL    HW166204   4.540  12.589   0.767
54769SOL    HW266205   4.502  12.552   0.625
54770SOL     OW66206   9.518  11.411   4.472
54770SOL    HW166207   9.601  11.429   4.427
54770SOL    HW266208   9.456  11.392   4.402
54771SOL     OW66209   4.985  12.179   2.684
54771SOL    HW166210   4.946  12.104   2.639
54771SOL    HW266211   4.926  12.195   2.758
54772SOL     OW66212  12.705   4.563   1.543
54772SOL    HW166213  12.670   4.487   1.495
54772SOL    HW266214  12.724   4.627   1.475
54773SOL     OW66215   0.946   5.369  12.934
54773SOL    HW166216   1.017   5.378  12.871
54773SOL    HW266217   0.870   5.408  12.891
54774SOL     OW66218   5.238   8.241   3.812
54774SOL    HW166219   5.288   8.285   3.744
54774SOL    HW266220   5.304   8.204   3.870
54775SOL     OW66221   8.788   2.088   4.532
54775SOL    HW166222   8.860   2.105   4.593
54775SOL    HW266223   8.738   2.170   4.532
54776SOL     OW66224   8.813   4.709  13.562
54776SOL    HW166225   8.743   4.756  13.517
54776SOL    HW266226   8.830   4.759  13.641
54777SOL     OW66227   7.802   1.376   1.860
54777SOL    HW166228   7.759   1.445   1.912
54777SOL    HW266229   7.783   1.295   1.908
54778SOL     OW66230   1.247  12.536   2.750
54778SOL    HW166231   1.224  12.526   2.657
54778SOL    HW266232   1.342  12.550   2.750
54779SOL     OW66233  13.097  10.718   8.553
54779SOL    HW166234  13.088  10.647   8.617
54779SOL    HW266235  13.089  10.798   8.605
54780SOL     OW66236   2.976   7.805   9.698
54780SOL    HW166237   3.046   7.768   9.753
54780SOL    HW266238   2.972   7.747   9.622
54781SOL     OW66239   8.137   2.543   4.793
54781SOL    HW166240   8.124   2.456   4.754
54781SOL    HW266241   8.048   2.577   4.804
54782SOL     OW66242   0.898   5.328   2.745
54782SOL    HW166243   0.881   5.375   2.664
54782SOL    HW266244   0.992   5.339   2.761
54783SOL     OW66245  14.573   6.427   3.047
54783SOL    HW166246  14.557   6.481   3.124
54783SOL    HW266247  14.599   6.342   3.082
54784SOL     OW66248   4.749   2.539  11.853
54784SOL    HW166249   4.701   2.619  11.874
54784SOL    HW266250   4.721   2.476  11.919
54785SOL     OW66251  11.684   8.987   3.381
54785SOL    HW166252  11.645   9.033   3.455
54785SOL    HW266253  11.638   9.021   3.304
54786SOL     OW66254  13.653  13.044   9.269
54786SOL    HW166255  13.589  13.036   9.340
54786SOL    HW266256  13.671  13.138   9.263
54787SOL     OW66257   8.648   6.929   7.603
54787SOL    HW166258   8.590   6.905   7.531
54787SOL    HW266259   8.599   6.906   7.682
54788SOL     OW66260   1.920  10.629   2.285
54788SOL    HW166261   2.004  10.672   2.271
54788SOL    HW266262   1.855  10.695   2.260
54789SOL     OW66263   2.439  12.408  10.973
54789SOL    HW166264   2.492  12.476  11.013
54789SOL    HW266265   2.473  12.326  11.010
54790SOL     OW66266   9.383  10.153  13.242
54790SOL    HW166267   9.383  10.205  13.161
54790SOL    HW266268   9.300  10.105  13.240
54791SOL     OW66269  13.819  13.722   9.036
54791SOL    HW166270  13.728  13.730   9.008
54791SOL    HW266271  13.818  13.649   9.099
54792SOL     OW66272   3.630   3.473  10.040
54792SOL    HW166273   3.606   3.564  10.022
54792SOL    HW266274   3.710   3.459   9.988
54793SOL     OW66275  10.911   2.935   7.484
54793SOL    HW166276  10.897   2.994   7.558
54793SOL    HW266277  11.005   2.939   7.467
54794SOL     OW66278   1.154   6.761  12.927
54794SOL    HW166279   1.177   6.745  13.019
54794SOL    HW266280   1.122   6.851  12.926
54795SOL     OW66281   7.420   5.674   2.926
54795SOL    HW166282   7.369   5.736   2.873
54795SOL    HW266283   7.362   5.650   2.997
54796SOL     OW66284   8.970   9.213  11.029
54796SOL    HW166285   8.907   9.217  11.101
54796SOL    HW266286   9.052   9.185  11.070
54797SOL     OW66287  11.415   8.573   6.507
54797SOL    HW166288  11.445   8.537   6.423
54797SOL    HW266289  11.335   8.620   6.485
54798SOL     OW66290   8.461   1.489   1.948
54798SOL    HW166291   8.423   1.571   1.917
54798SOL    HW266292   8.553   1.493   1.921
54799SOL     OW66293  12.987  12.250   0.751
54799SOL    HW166294  12.980  12.310   0.677
54799SOL    HW266295  13.061  12.193   0.729
54800SOL     OW66296  14.434   0.080   9.340
54800SOL    HW166297  14.463   0.063   9.430
54800SOL    HW266298  14.413   0.173   9.339
54801SOL     OW66299   5.859  12.096   4.158
54801SOL    HW166300   5.882  12.145   4.238
54801SOL    HW266301   5.821  12.015   4.190
54802SOL     OW66302  11.530  13.656   8.596
54802SOL    HW166303  11.578  13.729   8.636
54802SOL    HW266304  11.467  13.698   8.537
54803SOL     OW66305   0.244  10.631   4.706
54803SOL    HW166306   0.322  10.577   4.714
54803SOL    HW266307   0.262  10.709   4.759
54804SOL     OW66308   5.940   7.596   0.884
54804SOL    HW166309   5.876   7.526   0.872
54804SOL    HW266310   5.888   7.673   0.905
54805SOL     OW66311   7.479   8.660   7.138
54805SOL    HW166312   7.513   8.727   7.197
54805SOL    HW266313   7.461   8.706   7.056
54806SOL     OW66314   9.576   0.410   3.862
54806SOL    HW166315   9.624   0.471   3.917
54806SOL    HW266316   9.549   0.339   3.921
54807SOL     OW66317   3.392   1.760   6.811
54807SOL    HW166318   3.433   1.755   6.898
54807SOL    HW266319   3.446   1.822   6.763
54808SOL     OW66320  12.793   4.909  10.886
54808SOL    HW166321  12.831   4.992  10.914
54808SOL    HW266322  12.863   4.845  10.897
54809SOL     OW66323  14.294   6.525   0.468
54809SOL    HW166324  14.270   6.616   0.488
54809SOL    HW266325  14.389   6.522   0.481
54810SOL     OW66326   6.407   4.880   9.348
54810SOL    HW166327   6.359   4.954   9.312
54810SOL    HW266328   6.498   4.908   9.348
54811SOL     OW66329   1.227  11.305   2.764
54811SOL    HW166330   1.290  11.237   2.783
54811SOL    HW266331   1.273  11.387   2.783
54812SOL     OW66332  13.650   7.856   7.691
54812SOL    HW166333  13.733   7.835   7.735
54812SOL    HW266334  13.615   7.772   7.663
54813SOL     OW66335  14.634   6.194   6.300
54813SOL    HW166336  14.621   6.242   6.382
54813SOL    HW266337  14.569   6.229   6.240
54814SOL     OW66338  13.039  13.004   6.860
54814SOL    HW166339  13.109  12.961   6.810
54814SOL    HW266340  13.014  13.079   6.806
54815SOL     OW66341   3.650   8.087  12.193
54815SOL    HW166342   3.674   8.071  12.284
54815SOL    HW266343   3.660   8.002  12.150
54816SOL     OW66344   9.760   7.765  12.268
54816SOL    HW166345   9.675   7.724  12.256
54816SOL    HW266346   9.823   7.703  12.232
54817SOL     OW66347   4.692  12.767  14.468
54817SOL    HW166348   4.762  12.827  14.442
54817SOL    HW266349   4.721  12.730  14.551
54818SOL     OW66350  10.482   8.019   2.626
54818SOL    HW166351  10.424   7.966   2.680
54818SOL    HW266352  10.468   7.987   2.537
54819SOL     OW66353   8.975   7.731  11.365
54819SOL    HW166354   9.004   7.657  11.418
54819SOL    HW266355   8.942   7.692  11.285
54820SOL     OW66356   3.356  10.088  14.300
54820SOL    HW166357   3.327  10.080  14.390
54820SOL    HW266358   3.452  10.088  14.305
54821SOL     OW66359   5.205   4.514  11.361
54821SOL    HW166360   5.269   4.508  11.291
54821SOL    HW266361   5.257   4.510  11.442
54822SOL     OW66362  10.496   6.182   0.208
54822SOL    HW166363  10.540   6.099   0.188
54822SOL    HW266364  10.556   6.249   0.176
54823SOL     OW66365   0.524   3.867   5.571
54823SOL    HW166366   0.468   3.815   5.513
54823SOL    HW266367   0.501   3.958   5.552
54824SOL     OW66368   1.735   1.999   4.086
54824SOL    HW166369   1.695   1.924   4.043
54824SOL    HW266370   1.829   1.983   4.080
54825SOL     OW66371   9.705   5.001  10.030
54825SOL    HW166372   9.682   4.943  10.102
54825SOL    HW266373   9.644   4.977   9.960
54826SOL     OW66374   7.671  13.109  11.380
54826SOL    HW166375   7.638  13.192  11.345
54826SOL    HW266376   7.714  13.067  11.306
54827SOL     OW66377   4.800   5.050   9.678
54827SOL    HW166378   4.801   5.078   9.770
54827SOL    HW266379   4.780   5.129   9.628
54828SOL     OW66380   8.007   9.232   3.354
54828SOL    HW166381   8.074   9.264   3.292
54828SOL    HW266382   8.046   9.245   3.440
54829SOL     OW66383   4.576  10.367   4.903
54829SOL    HW166384   4.506  10.384   4.839
54829SOL    HW266385   4.553  10.423   4.978
54830SOL     OW66386   3.659  14.684  10.578
54830SOL    HW166387   3.570  14.650  10.561
54830SOL    HW266388   3.688  14.716  10.492
54831SOL     OW66389  12.586   7.842   3.998
54831SOL    HW166390  12.586   7.751   3.969
54831SOL    HW266391  12.639   7.888   3.934
54832SOL     OW66392   6.628  11.680  14.556
54832SOL    HW166393   6.575  11.748  14.597
54832SOL    HW266394   6.696  11.728  14.508
54833SOL     OW66395   3.622   1.468   4.327
54833SOL    HW166396   3.589   1.542   4.277
54833SOL    HW266397   3.567   1.466   4.406
54834SOL     OW66398  10.494   2.930   5.887
54834SOL    HW166399  10.506   3.023   5.907
54834SOL    HW266400  10.435   2.929   5.812
54835SOL     OW66401  13.714   9.275  12.560
54835SOL    HW166402  13.699   9.362  12.522
54835SOL    HW266403  13.796   9.284  12.608
54836SOL     OW66404  10.103  14.774   3.730
54836SOL    HW166405  10.055  14.703   3.687
54836SOL    HW266406  10.127  14.832   3.658
54837SOL     OW66407   9.350   0.304   4.936
54837SOL    HW166408   9.268   0.349   4.917
54837SOL    HW266409   9.329   0.211   4.929
54838SOL     OW66410   1.839   3.991  13.859
54838SOL    HW166411   1.919   3.955  13.898
54838SOL    HW266412   1.863   4.011  13.769
54839SOL     OW66413   9.383   7.143   5.741
54839SOL    HW166414   9.439   7.080   5.696
54839SOL    HW266415   9.443   7.193   5.797
54840SOL     OW66416   1.396  10.012  14.123
54840SOL    HW166417   1.323  10.059  14.164
54840SOL    HW266418   1.353   9.949  14.064
54841SOL     OW66419  11.866   6.537  11.782
54841SOL    HW166420  11.946   6.585  11.760
54841SOL    HW266421  11.799   6.576  11.726
54842SOL     OW66422  12.763  11.979  14.405
54842SOL    HW166423  12.705  12.006  14.477
54842SOL    HW266424  12.777  11.886  14.419
54843SOL     OW66425   8.066  11.426   9.891
54843SOL    HW166426   8.019  11.342   9.892
54843SOL    HW266427   8.115  11.425   9.809
54844SOL     OW66428   3.586   7.982   4.859
54844SOL    HW166429   3.641   7.904   4.874
54844SOL    HW266430   3.574   7.985   4.764
54845SOL     OW66431   7.037  10.066   3.508
54845SOL    HW166432   7.044  10.000   3.578
54845SOL    HW266433   7.094  10.033   3.438
54846SOL     OW66434   3.209  12.288  10.367
54846SOL    HW166435   3.168  12.302  10.282
54846SOL    HW266436   3.303  12.288  10.350
54847SOL     OW66437   7.801   1.668   7.811
54847SOL    HW166438   7.716   1.683   7.852
54847SOL    HW266439   7.847   1.752   7.823
54848SOL     OW66440  12.647  12.091   9.930
54848SOL    HW166441  12.628  12.064   9.840
54848SOL    HW266442  12.739  12.068   9.943
54849SOL     OW66443  11.283   8.380  14.475
54849SOL    HW166444  11.266   8.341  14.389
54849SOL    HW266445  11.285   8.474  14.459
54850SOL     OW66446   6.910   9.778   6.647
54850SOL    HW166447   6.921   9.696   6.696
54850SOL    HW266448   6.999   9.812   6.635
54851SOL     OW66449   0.640   4.091   8.044
54851SOL    HW166450   0.716   4.085   8.102
54851SOL    HW266451   0.670   4.050   7.963
54852SOL     OW66452   6.896   4.769  12.673
54852SOL    HW166453   6.827   4.742  12.613
54852SOL    HW266454   6.960   4.813  12.617
54853SOL     OW66455  13.788   3.908   2.287
54853SOL    HW166456  13.815   3.987   2.240
54853SOL    HW266457  13.871   3.863   2.307
54854SOL     OW66458  10.528  10.041   0.204
54854SOL    HW166459  10.536   9.996   0.288
54854SOL    HW266460  10.494  10.128   0.226
54855SOL     OW66461   5.648   6.393  13.761
54855SOL    HW166462   5.598   6.340  13.823
54855SOL    HW266463   5.739   6.385  13.790
54856SOL     OW66464   9.169  12.199   1.094
54856SOL    HW166465   9.090  12.156   1.063
54856SOL    HW266466   9.143  12.241   1.176
54857SOL     OW66467  13.116  12.508  13.370
54857SOL    HW166468  13.207  12.518  13.397
54857SOL    HW266469  13.073  12.587  13.401
54858SOL     OW66470  10.252   1.298   2.783
54858SOL    HW166471  10.181   1.329   2.840
54858SOL    HW266472  10.332   1.329   2.826
54859SOL     OW66473   4.606   8.752  11.732
54859SOL    HW166474   4.608   8.764  11.827
54859SOL    HW266475   4.697   8.759  11.705
54860SOL     OW66476  12.957  11.527   5.922
54860SOL    HW166477  12.965  11.434   5.901
54860SOL    HW266478  12.964  11.531   6.017
54861SOL     OW66479   5.474   0.803  10.921
54861SOL    HW166480   5.568   0.791  10.930
54861SOL    HW266481   5.435   0.724  10.958
54862SOL     OW66482   6.228  12.772   0.957
54862SOL    HW166483   6.275  12.734   0.883
54862SOL    HW266484   6.240  12.709   1.028
54863SOL     OW66485   1.897  11.934  14.716
54863SOL    HW166486   1.914  11.867  14.649
54863SOL    HW266487   1.933  11.898  14.796
54864SOL     OW66488   8.224  10.340   3.583
54864SOL    HW166489   8.228  10.420   3.635
54864SOL    HW266490   8.131  10.328   3.564
54865SOL     OW66491   0.850   7.963   0.179
54865SOL    HW166492   0.908   8.026   0.221
54865SOL    HW266493   0.800   7.924   0.251
54866SOL     OW66494  11.321   7.765   2.527
54866SOL    HW166495  11.260   7.826   2.569
54866SOL    HW266496  11.354   7.813   2.450
54867SOL     OW66497   0.117  14.670   8.155
54867SOL    HW166498   0.063  14.722   8.215
54867SOL    HW266499   0.089  14.696   8.068
54868SOL     OW66500   0.231  14.180   0.432
54868SOL    HW166501   0.236  14.133   0.348
54868SOL    HW266502   0.186  14.119   0.491
54869SOL     OW66503  14.814  13.570   2.506
54869SOL    HW166504  14.844  13.492   2.552
54869SOL    HW266505  14.794  13.633   2.575
54870SOL     OW66506   1.083   6.535  14.247
54870SOL    HW166507   1.139   6.463  14.218
54870SOL    HW266508   1.040   6.503  14.326
54871SOL     OW66509   3.148   3.748   6.964
54871SOL    HW166510   3.238   3.780   6.964
54871SOL    HW266511   3.095   3.827   6.962
54872SOL     OW66512   1.340  12.132   9.688
54872SOL    HW166513   1.297  12.135   9.774
54872SOL    HW266514   1.425  12.092   9.705
54873SOL     OW66515   7.899   1.606  13.182
54873SOL    HW166516   7.948   1.640  13.106
54873SOL    HW266517   7.820   1.660  13.185
54874SOL     OW66518   0.257   3.808   9.006
54874SOL    HW166519   0.309   3.741   9.052
54874SOL    HW266520   0.181   3.760   8.972
54875SOL     OW66521   9.164   1.308   8.484
54875SOL    HW166522   9.238   1.320   8.424
54875SOL    HW266523   9.199   1.334   8.570
54876SOL     OW66524  10.024  12.507   0.858
54876SOL    HW166525   9.948  12.559   0.831
54876SOL    HW266526  10.096  12.540   0.804
54877SOL     OW66527  10.314  10.102  12.691
54877SOL    HW166528  10.311  10.049  12.611
54877SOL    HW266529  10.222  10.123  12.710
54878SOL     OW66530   9.773   7.431  11.073
54878SOL    HW166531   9.849   7.482  11.100
54878SOL    HW266532   9.804   7.378  11.000
54879SOL     OW66533   9.456   5.342   9.340
54879SOL    HW166534   9.507   5.291   9.277
54879SOL    HW266535   9.522   5.385   9.395
54880SOL     OW66536   5.008   5.640  14.829
54880SOL    HW166537   5.024   5.562  14.776
54880SOL    HW266538   4.937   5.615   0.017
54881SOL     OW66539   2.828   7.337   6.077
54881SOL    HW166540   2.900   7.374   6.025
54881SOL    HW266541   2.751   7.387   6.050
54882SOL     OW66542  12.243   0.468   8.745
54882SOL    HW166543  12.231   0.499   8.655
54882SOL    HW266544  12.322   0.415   8.742
54883SOL     OW66545   7.180   1.160   0.752
54883SOL    HW166546   7.087   1.152   0.776
54883SOL    HW266547   7.194   1.254   0.742
54884SOL     OW66548   7.094   1.505  12.428
54884SOL    HW166549   7.114   1.418  12.394
54884SOL    HW266550   7.096   1.562  12.351
54885SOL     OW66551  10.567   2.417   8.709
54885SOL    HW166552  10.607   2.438   8.793
54885SOL    HW266553  10.545   2.324   8.714
54886SOL     OW66554   2.487   9.070   3.364
54886SOL    HW166555   2.446   8.997   3.410
54886SOL    HW266556   2.414   9.115   3.321
54887SOL     OW66557   1.973  14.869   8.299
54887SOL    HW166558   1.883   0.028   8.310
54887SOL    HW266559   2.023   0.050   8.362
54888SOL     OW66560   8.357  13.898   4.782
54888SOL    HW166561   8.387  13.845   4.856
54888SOL    HW266562   8.403  13.862   4.707
54889SOL     OW66563   3.054   6.113  10.734
54889SOL    HW166564   2.990   6.152  10.793
54889SOL    HW266565   3.117   6.183  10.717
54890SOL     OW66566   9.210  11.093   8.740
54890SOL    HW166567   9.131  11.072   8.789
54890SOL    HW266568   9.277  11.109   8.807
54891SOL     OW66569   7.257   1.023   4.232
54891SOL    HW166570   7.258   1.076   4.312
54891SOL    HW266571   7.207   1.076   4.169
54892SOL     OW66572   0.132  12.370   1.008
54892SOL    HW166573   0.065  12.367   1.076
54892SOL    HW266574   0.197  12.305   1.036
54893SOL     OW66575   4.962   0.011  10.161
54893SOL    HW166576   5.043   0.057  10.182
54893SOL    HW266577   4.922  14.865  10.247
54894SOL     OW66578   6.665  10.954  13.372
54894SOL    HW166579   6.684  11.019  13.304
54894SOL    HW266580   6.609  11.000  13.435
54895SOL     OW66581   3.418  10.710  11.940
54895SOL    HW166582   3.505  10.692  11.905
54895SOL    HW266583   3.419  10.673  12.028
54896SOL     OW66584  10.357   6.113  12.360
54896SOL    HW166585  10.448   6.139  12.375
54896SOL    HW266586  10.344   6.036  12.415
54897SOL     OW66587  10.921   2.190   9.166
54897SOL    HW166588  10.893   2.098   9.167
54897SOL    HW266589  11.016   2.187   9.163
54898SOL     OW66590   2.651  14.229  13.159
54898SOL    HW166591   2.614  14.270  13.081
54898SOL    HW266592   2.581  14.232  13.224
54899SOL     OW66593   4.075  10.470  14.139
54899SOL    HW166594   4.144  10.417  14.178
54899SOL    HW266595   4.118  10.516  14.067
54900SOL     OW66596  12.731   7.580   0.612
54900SOL    HW166597  12.685   7.635   0.549
54900SOL    HW266598  12.743   7.636   0.689
54901SOL     OW66599  11.857   2.229  12.329
54901SOL    HW166600  11.898   2.203  12.411
54901SOL    HW266601  11.930   2.252  12.272
54902SOL     OW66602   0.417  14.432   0.490
54902SOL    HW166603   0.396  14.365   0.555
54902SOL    HW266604   0.463  14.385   0.421
54903SOL     OW66605  14.385  13.155   0.397
54903SOL    HW166606  14.386  13.190   0.486
54903SOL    HW266607  14.302  13.109   0.390
54904SOL     OW66608  10.806   5.326   8.968
54904SOL    HW166609  10.794   5.280   8.884
54904SOL    HW266610  10.780   5.416   8.950
54905SOL     OW66611   2.712   2.170  12.890
54905SOL    HW166612   2.629   2.155  12.844
54905SOL    HW266613   2.692   2.241  12.952
54906SOL     OW66614  13.586   2.979   5.935
54906SOL    HW166615  13.591   3.004   5.843
54906SOL    HW266616  13.677   2.957   5.958
54907SOL     OW66617   7.720   1.913  12.868
54907SOL    HW166618   7.769   1.915  12.950
54907SOL    HW266619   7.660   1.839  12.877
54908SOL     OW66620   1.807   8.845   2.229
54908SOL    HW166621   1.819   8.822   2.137
54908SOL    HW266622   1.771   8.767   2.270
54909SOL     OW66623   3.375   4.693  10.886
54909SOL    HW166624   3.398   4.606  10.855
54909SOL    HW266625   3.295   4.681  10.937
54910SOL     OW66626   7.033   7.770   2.092
54910SOL    HW166627   7.079   7.748   2.173
54910SOL    HW266628   6.951   7.809   2.121
54911SOL     OW66629   1.082   9.017   0.661
54911SOL    HW166630   1.047   9.080   0.598
54911SOL    HW266631   1.064   8.931   0.620
54912SOL     OW66632  10.426  11.888   1.777
54912SOL    HW166633  10.335  11.859   1.763
54912SOL    HW266634  10.434  11.966   1.722
54913SOL     OW66635   0.157  10.495  13.067
54913SOL    HW166636   0.160  10.405  13.101
54913SOL    HW266637   0.244  10.530  13.083
54914SOL     OW66638  10.352   6.766   8.627
54914SOL    HW166639  10.327   6.821   8.554
54914SOL    HW266640  10.274   6.713   8.645
54915SOL     OW66641   2.544  11.114   4.702
54915SOL    HW166642   2.507  11.172   4.636
54915SOL    HW266643   2.593  11.171   4.761
54916SOL     OW66644  13.502  11.693   8.504
54916SOL    HW166645  13.526  11.626   8.569
54916SOL    HW266646  13.484  11.644   8.424
54917SOL     OW66647   9.860   4.013   9.045
54917SOL    HW166648   9.951   4.007   9.013
54917SOL    HW266649   9.824   3.925   9.029
54918SOL     OW66650   0.528   7.878   4.566
54918SOL    HW166651   0.558   7.798   4.610
54918SOL    HW266652   0.441   7.895   4.603
54919SOL     OW66653   5.339   5.264   5.329
54919SOL    HW166654   5.371   5.240   5.242
54919SOL    HW266655   5.409   5.316   5.368
54920SOL     OW66656   1.990   8.164   2.023
54920SOL    HW166657   1.920   8.191   2.082
54920SOL    HW266658   1.958   8.082   1.985
54921SOL     OW66659   1.470   9.482   5.488
54921SOL    HW166660   1.408   9.467   5.416
54921SOL    HW266661   1.556   9.462   5.450
54922SOL     OW66662  10.249   7.601   5.456
54922SOL    HW166663  10.298   7.683   5.460
54922SOL    HW266664  10.220   7.595   5.365
54923SOL     OW66665   4.278   9.521   4.115
54923SOL    HW166666   4.330   9.447   4.084
54923SOL    HW266667   4.190   9.504   4.080
54924SOL     OW66668  11.933  12.588  13.254
54924SOL    HW166669  12.018  12.542  13.254
54924SOL    HW266670  11.956  12.680  13.264
54925SOL     OW66671   9.267  10.680   3.329
54925SOL    HW166672   9.219  10.759   3.305
54925SOL    HW266673   9.216  10.641   3.400
54926SOL     OW66674   6.602   2.203   7.046
54926SOL    HW166675   6.529   2.143   7.058
54926SOL    HW266676   6.585   2.273   7.110
54927SOL     OW66677   7.458   3.763   7.669
54927SOL    HW166678   7.518   3.693   7.645
54927SOL    HW266679   7.379   3.718   7.699
54928SOL     OW66680  12.225  14.847   4.679
54928SOL    HW166681  12.209   0.066   4.653
54928SOL    HW266682  12.146  14.821   4.727
54929SOL     OW66683  13.444   2.753  11.279
54929SOL    HW166684  13.526   2.776  11.235
54929SOL    HW266685  13.444   2.806  11.358
54930SOL     OW66686   1.089  14.615   5.764
54930SOL    HW166687   1.173  14.622   5.719
54930SOL    HW266688   1.043  14.545   5.717
54931SOL     OW66689   8.445   5.243  14.805
54931SOL    HW166690   8.477   5.278  14.722
54931SOL    HW266691   8.426   5.320  14.858
54932SOL     OW66692  11.524  11.371  11.763
54932SOL    HW166693  11.482  11.316  11.696
54932SOL    HW266694  11.469  11.360  11.841
54933SOL     OW66695   9.155  11.708   2.574
54933SOL    HW166696   9.078  11.734   2.524
54933SOL    HW266697   9.154  11.612   2.572
54934SOL     OW66698  11.039   5.010  11.621
54934SOL    HW166699  11.094   4.936  11.596
54934SOL    HW266700  10.971   4.973  11.677
54935SOL     OW66701   2.333  11.189   7.642
54935SOL    HW166702   2.319  11.096   7.663
54935SOL    HW266703   2.428  11.198   7.636
54936SOL     OW66704   7.415   6.501   0.284
54936SOL    HW166705   7.506   6.485   0.260
54936SOL    HW266706   7.414   6.591   0.316
54937SOL     OW66707  12.579   7.506  14.372
54937SOL    HW166708  12.496   7.466  14.402
54937SOL    HW266709  12.646   7.442  14.398
54938SOL     OW66710   4.114   7.178  14.611
54938SOL    HW166711   4.095   7.085  14.616
54938SOL    HW266712   4.030   7.221  14.626
54939SOL     OW66713   4.881   1.358   7.988
54939SOL    HW166714   4.936   1.348   8.066
54939SOL    HW266715   4.833   1.439   8.004
54940SOL     OW66716  13.153   2.650   3.435
54940SOL    HW166717  13.093   2.703   3.487
54940SOL    HW266718  13.228   2.707   3.419
54941SOL     OW66719   2.535   2.094   0.566
54941SOL    HW166720   2.593   2.144   0.509
54941SOL    HW266721   2.557   2.003   0.548
54942SOL     OW66722   7.828   9.834   3.166
54942SOL    HW166723   7.769   9.875   3.103
54942SOL    HW266724   7.865   9.907   3.216
54943SOL     OW66725   7.601   2.418   3.949
54943SOL    HW166726   7.689   2.454   3.960
54943SOL    HW266727   7.543   2.494   3.961
54944SOL     OW66728   2.965   0.297   7.250
54944SOL    HW166729   3.036   0.272   7.190
54944SOL    HW266730   2.913   0.217   7.261
54945SOL     OW66731  13.102   4.392  14.633
54945SOL    HW166732  13.186   4.405  14.677
54945SOL    HW266733  13.076   4.480  14.604
54946SOL     OW66734  10.857   8.603  13.448
54946SOL    HW166735  10.851   8.533  13.383
54946SOL    HW266736  10.890   8.678  13.399
54947SOL     OW66737   4.571   6.514  14.087
54947SOL    HW166738   4.500   6.473  14.037
54947SOL    HW266739   4.645   6.455  14.076
54948SOL     OW66740  12.115  13.512   4.692
54948SOL    HW166741  12.057  13.546   4.623
54948SOL    HW266742  12.192  13.569   4.688
54949SOL     OW66743   4.520  13.767   3.922
54949SOL    HW166744   4.461  13.706   3.967
54949SOL    HW266745   4.513  13.743   3.829
54950SOL     OW66746   3.200  10.941   1.171
54950SOL    HW166747   3.294  10.929   1.162
54950SOL    HW266748   3.165  10.929   1.082
54951SOL     OW66749   1.991   4.840  11.527
54951SOL    HW166750   1.996   4.758  11.479
54951SOL    HW266751   2.070   4.888  11.502
54952SOL     OW66752   2.912   9.602   8.944
54952SOL    HW166753   2.901   9.679   8.888
54952SOL    HW266754   2.993   9.561   8.912
54953SOL     OW66755  14.748  11.439   4.439
54953SOL    HW166756  14.814  11.426   4.371
54953SOL    HW266757  14.783  11.509   4.494
54954SOL     OW66758   8.475   4.041   4.902
54954SOL    HW166759   8.418   3.972   4.936
54954SOL    HW266760   8.561   4.000   4.893
54955SOL     OW66761   0.598  12.922   7.755
54955SOL    HW166762   0.624  12.832   7.774
54955SOL    HW266763   0.649  12.946   7.678
54956SOL     OW66764   9.006   0.673  13.849
54956SOL    HW166765   8.955   0.593  13.837
54956SOL    HW266766   8.975   0.732  13.780
54957SOL     OW66767   2.802  11.503   4.161
54957SOL    HW166768   2.846  11.493   4.076
54957SOL    HW266769   2.800  11.414   4.197
54958SOL     OW66770   9.683  11.420  12.659
54958SOL    HW166771   9.680  11.340  12.607
54958SOL    HW266772   9.610  11.412  12.720
54959SOL     OW66773   5.051   8.768   8.374
54959SOL    HW166774   5.069   8.802   8.462
54959SOL    HW266775   5.055   8.844   8.317
54960SOL     OW66776  11.284  12.398   4.886
54960SOL    HW166777  11.309  12.431   4.799
54960SOL    HW266778  11.364  12.357   4.920
54961SOL     OW66779   6.719  13.845   6.141
54961SOL    HW166780   6.694  13.841   6.048
54961SOL    HW266781   6.761  13.761   6.158
54962SOL     OW66782   1.828  12.912   5.369
54962SOL    HW166783   1.840  12.825   5.331
54962SOL    HW266784   1.799  12.966   5.296
54963SOL     OW66785   8.957  11.669   8.412
54963SOL    HW166786   9.029  11.606   8.420
54963SOL    HW266787   8.934  11.692   8.502
54964SOL     OW66788  14.500   6.714   9.261
54964SOL    HW166789  14.455   6.753   9.336
54964SOL    HW266790  14.432   6.702   9.195
54965SOL     OW66791  11.799  13.625   2.325
54965SOL    HW166792  11.772  13.608   2.415
54965SOL    HW266793  11.835  13.541   2.295
54966SOL     OW66794  12.895  10.842  13.105
54966SOL    HW166795  12.918  10.912  13.044
54966SOL    HW266796  12.952  10.769  13.081
54967SOL     OW66797   1.468   2.722   6.148
54967SOL    HW166798   1.468   2.811   6.112
54967SOL    HW266799   1.398   2.722   6.213
54968SOL     OW66800   5.426  13.046  13.542
54968SOL    HW166801   5.519  13.027  13.534
54968SOL    HW266802   5.382  12.982  13.486
54969SOL     OW66803   7.621   1.564   4.733
54969SOL    HW166804   7.559   1.547   4.662
54969SOL    HW266805   7.581   1.524   4.810
54970SOL     OW66806   9.602  14.041   0.574
54970SOL    HW166807   9.567  14.043   0.485
54970SOL    HW266808   9.584  13.952   0.605
54971SOL     OW66809   6.346   7.402   8.931
54971SOL    HW166810   6.332   7.395   9.025
54971SOL    HW266811   6.320   7.317   8.896
54972SOL     OW66812  12.297  12.037   8.016
54972SOL    HW166813  12.322  12.019   7.925
54972SOL    HW266814  12.360  11.989   8.069
54973SOL     OW66815  13.258   4.555   4.427
54973SOL    HW166816  13.352   4.537   4.428
54973SOL    HW266817  13.250   4.637   4.379
54974SOL     OW66818  11.364   5.213  14.631
54974SOL    HW166819  11.286   5.190  14.581
54974SOL    HW266820  11.427   5.242  14.564
54975SOL     OW66821   9.764  11.545   4.982
54975SOL    HW166822   9.715  11.597   4.918
54975SOL    HW266823   9.785  11.608   5.052
54976SOL     OW66824  12.530  12.614  12.756
54976SOL    HW166825  12.479  12.656  12.688
54976SOL    HW266826  12.584  12.549  12.710
54977SOL     OW66827   0.860   3.096   5.945
54977SOL    HW166828   0.943   3.056   5.919
54977SOL    HW266829   0.871   3.116   6.038
54978SOL     OW66830  11.668  10.574   7.106
54978SOL    HW166831  11.709  10.499   7.062
54978SOL    HW266832  11.736  10.605   7.167
54979SOL     OW66833   6.841   4.466  14.082
54979SOL    HW166834   6.872   4.548  14.045
54979SOL    HW266835   6.833   4.483  14.176
54980SOL     OW66836   3.651   2.529   3.532
54980SOL    HW166837   3.648   2.604   3.472
54980SOL    HW266838   3.676   2.455   3.477
54981SOL     OW66839   1.739  10.268  13.548
54981SOL    HW166840   1.756  10.333  13.616
54981SOL    HW266841   1.735  10.184  13.595
54982SOL     OW66842  14.818   1.464   5.942
54982SOL    HW166843  14.787   1.496   6.027
54982SOL    HW266844  14.833   1.543   5.891
54983SOL     OW66845   6.577   6.682  12.197
54983SOL    HW166846   6.649   6.641  12.246
54983SOL    HW266847   6.551   6.616  12.133
54984SOL     OW66848   9.130   5.622   8.159
54984SOL    HW166849   9.131   5.714   8.134
54984SOL    HW266850   9.193   5.581   8.100
54985SOL     OW66851   1.859   0.892  11.853
54985SOL    HW166852   1.773   0.933  11.846
54985SOL    HW266853   1.898   0.932  11.932
54986SOL     OW66854   3.090  11.031  11.727
54986SOL    HW166855   3.178  10.996  11.738
54986SOL    HW266856   3.102  11.125  11.716
54987SOL     OW66857   1.389   9.852   1.707
54987SOL    HW166858   1.324   9.795   1.666
54987SOL    HW266859   1.454   9.869   1.639
54988SOL     OW66860   4.042  10.328   6.252
54988SOL    HW166861   4.108  10.310   6.186
54988SOL    HW266862   3.961  10.341   6.202
54989SOL     OW66863   9.884   9.246   2.165
54989SOL    HW166864   9.827   9.183   2.122
54989SOL    HW266865   9.827   9.290   2.229
54990SOL     OW66866   1.269   4.041   3.760
54990SOL    HW166867   1.303   4.061   3.847
54990SOL    HW266868   1.173   4.045   3.770
54991SOL     OW66869   2.095   0.084  12.084
54991SOL    HW166870   2.145   0.003  12.077
54991SOL    HW266871   2.005   0.057  12.065
54992SOL     OW66872  13.185   4.379  13.432
54992SOL    HW166873  13.251   4.351  13.368
54992SOL    HW266874  13.142   4.297  13.458
54993SOL     OW66875   7.203   3.122   0.005
54993SOL    HW166876   7.230   3.107   0.096
54993SOL    HW266877   7.265   3.071  14.825
54994SOL     OW66878   5.849   5.905   7.099
54994SOL    HW166879   5.854   5.999   7.117
54994SOL    HW266880   5.782   5.898   7.030
54995SOL     OW66881   7.247   6.205  10.271
54995SOL    HW166882   7.161   6.229  10.237
54995SOL    HW266883   7.266   6.120  10.230
54996SOL     OW66884   1.348   9.019   6.512
54996SOL    HW166885   1.433   9.017   6.468
54996SOL    HW266886   1.367   8.997   6.603
54997SOL     OW66887  10.688   0.950   0.899
54997SOL    HW166888  10.727   0.876   0.945
54997SOL    HW266889  10.687   1.021   0.964
54998SOL     OW66890   2.542  10.921   8.741
54998SOL    HW166891   2.537  10.841   8.689
54998SOL    HW266892   2.601  10.979   8.693
54999SOL     OW66893  11.445  10.093  14.175
54999SOL    HW166894  11.461  10.186  14.163
54999SOL    HW266895  11.380  10.071  14.108
55000SOL     OW66896   8.723  10.649  12.750
55000SOL    HW166897   8.803  10.663  12.699
55000SOL    HW266898   8.670  10.590  12.698
55001SOL     OW66899  12.512  13.946   9.429
55001SOL    HW166900  12.572  13.977   9.361
55001SOL    HW266901  12.435  13.916   9.381
55002SOL     OW66902  10.198  11.966   5.795
55002SOL    HW166903  10.188  11.895   5.859
55002SOL    HW266904  10.110  12.002   5.785
55003SOL     OW66905   8.262  10.672  10.556
55003SOL    HW166906   8.194  10.693  10.492
55003SOL    HW266907   8.313  10.753  10.564
55004SOL     OW66908   8.658   7.429   1.871
55004SOL    HW166909   8.568   7.450   1.896
55004SOL    HW266910   8.685   7.501   1.814
55005SOL     OW66911   7.808   1.419   0.381
55005SOL    HW166912   7.739   1.364   0.417
55005SOL    HW266913   7.868   1.433   0.454
55006SOL     OW66914   6.730  13.889   6.995
55006SOL    HW166915   6.701  13.867   6.907
55006SOL    HW266916   6.743  13.805   7.039
55007SOL     OW66917   2.675   1.831  12.043
55007SOL    HW166918   2.748   1.857  11.986
55007SOL    HW266919   2.713   1.830  12.131
55008SOL     OW66920  11.150  14.727   4.243
55008SOL    HW166921  11.216  14.794   4.225
55008SOL    HW266922  11.088  14.735   4.172
55009SOL     OW66923   8.696   8.828  11.247
55009SOL    HW166924   8.686   8.787  11.161
55009SOL    HW266925   8.606   8.841  11.278
55010SOL     OW66926   7.958   9.522   6.668
55010SOL    HW166927   7.902   9.539   6.592
55010SOL    HW266928   7.990   9.609   6.693
55011SOL     OW66929   6.631  13.577  13.338
55011SOL    HW166930   6.668  13.573  13.426
55011SOL    HW266931   6.601  13.487  13.322
55012SOL     OW66932   6.435   0.581   4.157
55012SOL    HW166933   6.524   0.592   4.124
55012SOL    HW266934   6.383   0.559   4.080
55013SOL     OW66935   9.949   3.077   2.128
55013SOL    HW166936  10.005   3.102   2.054
55013SOL    HW266937   9.912   2.992   2.102
55014SOL     OW66938   9.801   6.225   7.428
55014SOL    HW166939   9.888   6.264   7.434
55014SOL    HW266940   9.742   6.300   7.418
55015SOL     OW66941   2.718  11.607   4.638
55015SOL    HW166942   2.765  11.635   4.559
55015SOL    HW266943   2.655  11.542   4.607
55016SOL     OW66944  12.830   2.371  12.164
55016SOL    HW166945  12.817   2.350  12.257
55016SOL    HW266946  12.865   2.291  12.126
55017SOL     OW66947  13.339  13.492   9.616
55017SOL    HW166948  13.417  13.505   9.669
55017SOL    HW266949  13.331  13.397   9.607
55018SOL     OW66950   5.063  13.163  13.768
55018SOL    HW166951   5.078  13.069  13.763
55018SOL    HW266952   4.986  13.178  13.713
55019SOL     OW66953   3.854  11.031   5.416
55019SOL    HW166954   3.842  10.946   5.373
55019SOL    HW266955   3.850  11.012   5.509
55020SOL     OW66956  11.905   9.977   5.370
55020SOL    HW166957  11.975  10.029   5.410
55020SOL    HW266958  11.876   9.918   5.440
55021SOL     OW66959  14.229   5.564   7.520
55021SOL    HW166960  14.228   5.475   7.486
55021SOL    HW266961  14.316   5.597   7.501
55022SOL     OW66962   0.744   6.502  14.115
55022SOL    HW166963   0.691   6.572  14.076
55022SOL    HW266964   0.826   6.505  14.068
55023SOL     OW66965   6.972   9.437   2.688
55023SOL    HW166966   6.912   9.381   2.737
55023SOL    HW266967   7.022   9.376   2.633
55024SOL     OW66968  14.826   0.443   7.571
55024SOL    HW166969  14.818   0.536   7.550
55024SOL    HW266970  14.751   0.402   7.528
55025SOL     OW66971  10.516   8.779   4.418
55025SOL    HW166972  10.529   8.850   4.481
55025SOL    HW266973  10.423   8.781   4.398
55026SOL     OW66974   5.742  12.854   5.467
55026SOL    HW166975   5.837  12.859   5.468
55026SOL    HW266976   5.713  12.928   5.520
55027SOL     OW66977   8.034   4.119   0.631
55027SOL    HW166978   7.994   4.203   0.609
55027SOL    HW266979   8.030   4.068   0.550
55028SOL     OW66980   3.052  13.222   3.059
55028SOL    HW166981   2.995  13.147   3.076
55028SOL    HW266982   3.120  13.188   3.001
55029SOL     OW66983   2.507   5.837   4.561
55029SOL    HW166984   2.414   5.862   4.560
55029SOL    HW266985   2.529   5.835   4.654
55030SOL     OW66986   5.421   3.307   4.729
55030SOL    HW166987   5.466   3.228   4.698
55030SOL    HW266988   5.491   3.365   4.759
55031SOL     OW66989  12.194   7.316   9.791
55031SOL    HW166990  12.264   7.264   9.751
55031SOL    HW266991  12.152   7.257   9.853
55032SOL     OW66992   7.908   4.654  13.730
55032SOL    HW166993   7.826   4.673  13.775
55032SOL    HW266994   7.971   4.716  13.766
55033SOL     OW66995  12.657   0.271  12.230
55033SOL    HW166996  12.690   0.216  12.158
55033SOL    HW266997  12.732   0.326  12.254
55034SOL     OW66998   2.633   4.628  13.334
55034SOL    HW166999   2.615   4.612  13.427
55034SOL    HW267000   2.594   4.554  13.289
55035SOL     OW67001   6.438  11.887   9.366
55035SOL    HW167002   6.462  11.802   9.403
55035SOL    HW267003   6.363  11.868   9.309
55036SOL     OW67004   1.212  12.334  13.861
55036SOL    HW167005   1.133  12.376  13.895
55036SOL    HW267006   1.185  12.294  13.778
55037SOL     OW67007   7.216  11.777   0.948
55037SOL    HW167008   7.142  11.736   0.992
55037SOL    HW267009   7.177  11.841   0.888
55038SOL     OW67010  13.139   4.407  10.222
55038SOL    HW167011  13.212   4.371  10.171
55038SOL    HW267012  13.178   4.481  10.270
55039SOL     OW67013  14.460   3.464   4.295
55039SOL    HW167014  14.437   3.557   4.296
55039SOL    HW267015  14.551   3.461   4.324
55040SOL     OW67016   2.762   2.079  10.354
55040SOL    HW167017   2.674   2.043  10.366
55040SOL    HW267018   2.776   2.136  10.429
55041SOL     OW67019   3.666  14.834   8.465
55041SOL    HW167020   3.664   0.058   8.461
55041SOL    HW267021   3.720  14.815   8.542
55042SOL     OW67022   3.163   4.689  12.443
55042SOL    HW167023   3.157   4.690  12.538
55042SOL    HW267024   3.193   4.601  12.421
55043SOL     OW67025   1.660   2.248  14.286
55043SOL    HW167026   1.684   2.165  14.327
55043SOL    HW267027   1.700   2.314  14.343
55044SOL     OW67028   3.300  11.896   8.855
55044SOL    HW167029   3.324  11.812   8.892
55044SOL    HW267030   3.215  11.916   8.895
55045SOL     OW67031   7.786   0.130  10.827
55045SOL    HW167032   7.846   0.055  10.818
55045SOL    HW267033   7.800   0.181  10.747
55046SOL     OW67034   7.811  10.785   4.113
55046SOL    HW167035   7.798  10.809   4.205
55046SOL    HW267036   7.730  10.741   4.089
55047SOL     OW67037   1.637   5.931  12.827
55047SOL    HW167038   1.639   6.019  12.864
55047SOL    HW267039   1.664   5.943  12.735
55048SOL     OW67040  13.793   1.119  14.560
55048SOL    HW167041  13.805   1.206  14.598
55048SOL    HW267042  13.713   1.125  14.509
55049SOL     OW67043   6.216   9.444  11.738
55049SOL    HW167044   6.178   9.522  11.779
55049SOL    HW267045   6.141   9.395  11.704
55050SOL     OW67046   7.998   8.118   5.381
55050SOL    HW167047   7.989   8.171   5.460
55050SOL    HW267048   7.934   8.048   5.392
55051SOL     OW67049   2.688   3.809   9.385
55051SOL    HW167050   2.632   3.732   9.391
55051SOL    HW267051   2.778   3.774   9.382
55052SOL     OW67052  13.900   5.640   9.639
55052SOL    HW167053  13.916   5.730   9.611
55052SOL    HW267054  13.988   5.605   9.657
55053SOL     OW67055   9.367  11.501   3.175
55053SOL    HW167056   9.401  11.587   3.151
55053SOL    HW267057   9.302  11.480   3.108
55054SOL     OW67058   2.688   1.130   8.052
55054SOL    HW167059   2.760   1.176   8.094
55054SOL    HW267060   2.676   1.050   8.104
55055SOL     OW67061  14.841   6.693  14.509
55055SOL    HW167062  14.856   6.627  14.577
55055SOL    HW267063  14.746   6.700  14.503
55056SOL     OW67064   3.119  10.002  13.544
55056SOL    HW167065   3.173   9.987  13.622
55056SOL    HW267066   3.149  10.086  13.510
55057SOL     OW67067   3.172  11.059   8.654
55057SOL    HW167068   3.166  11.036   8.747
55057SOL    HW267069   3.265  11.051   8.633
55058SOL     OW67070   2.459   0.463   7.369
55058SOL    HW167071   2.522   0.488   7.301
55058SOL    HW267072   2.374   0.490   7.335
55059SOL     OW67073  14.838   1.218   5.259
55059SOL    HW167074  14.778   1.221   5.334
55059SOL    HW267075   0.002   1.129   5.261
55060SOL     OW67076  12.823  12.769   0.926
55060SOL    HW167077  12.764  12.841   0.947
55060SOL    HW267078  12.804  12.748   0.834
55061SOL     OW67079  13.607  11.343  13.771
55061SOL    HW167080  13.691  11.386  13.789
55061SOL    HW267081  13.576  11.315  13.857
55062SOL     OW67082  13.449   0.582   3.501
55062SOL    HW167083  13.455   0.487   3.492
55062SOL    HW267084  13.401   0.611   3.423
55063SOL     OW67085   9.493   8.364   1.768
55063SOL    HW167086   9.408   8.357   1.724
55063SOL    HW267087   9.509   8.277   1.803
55064SOL     OW67088   0.023   7.708   2.477
55064SOL    HW167089  14.854   7.625   2.449
55064SOL    HW267090   0.092   7.723   2.413
55065SOL     OW67091   1.597   0.179   6.395
55065SOL    HW167092   1.562   0.267   6.406
55065SOL    HW267093   1.607   0.146   6.485
55066SOL     OW67094   5.976   6.911   7.709
55066SOL    HW167095   5.937   6.995   7.686
55066SOL    HW267096   6.060   6.910   7.662
55067SOL     OW67097   5.308  13.900  12.584
55067SOL    HW167098   5.253  13.822  12.578
55067SOL    HW267099   5.340  13.913  12.495
55068SOL     OW67100   5.029  12.853   6.231
55068SOL    HW167101   5.102  12.914   6.227
55068SOL    HW267102   4.954  12.906   6.255
55069SOL     OW67103   3.213   5.837  10.228
55069SOL    HW167104   3.245   5.839  10.318
55069SOL    HW267105   3.142   5.902  10.227
55070SOL     OW67106   8.166  11.875   3.072
55070SOL    HW167107   8.091  11.855   3.015
55070SOL    HW267108   8.130  11.932   3.139
55071SOL     OW67109   4.472   1.970   8.666
55071SOL    HW167110   4.509   1.961   8.754
55071SOL    HW267111   4.432   1.884   8.648
55072SOL     OW67112   9.225  11.959   5.074
55072SOL    HW167113   9.153  11.897   5.083
55072SOL    HW267114   9.253  11.977   5.163
55073SOL     OW67115  11.250   3.979   2.929
55073SOL    HW167116  11.200   3.900   2.948
55073SOL    HW267117  11.251   4.027   3.012
55074SOL     OW67118   9.379   2.799   5.974
55074SOL    HW167119   9.289   2.816   6.000
55074SOL    HW267120   9.425   2.781   6.056
55075SOL     OW67121   2.942   7.718   3.193
55075SOL    HW167122   2.907   7.754   3.112
55075SOL    HW267123   2.939   7.624   3.181
55076SOL     OW67124  10.136  13.646   4.872
55076SOL    HW167125  10.151  13.565   4.824
55076SOL    HW267126  10.202  13.645   4.942
55077SOL     OW67127   5.030  13.173   3.079
55077SOL    HW167128   5.105  13.232   3.069
55077SOL    HW267129   5.051  13.121   3.157
55078SOL     OW67130   1.559   4.242   7.587
55078SOL    HW167131   1.598   4.156   7.575
55078SOL    HW267132   1.587   4.292   7.510
55079SOL     OW67133  10.746   1.253  13.182
55079SOL    HW167134  10.831   1.232  13.221
55079SOL    HW267135  10.743   1.201  13.101
55080SOL     OW67136   6.582  13.733   9.672
55080SOL    HW167137   6.504  13.735   9.617
55080SOL    HW267138   6.652  13.768   9.616
55081SOL     OW67139  14.628   7.768   8.886
55081SOL    HW167140  14.633   7.728   8.799
55081SOL    HW267141  14.718   7.794   8.906
55082SOL     OW67142   6.020   7.166  13.050
55082SOL    HW167143   6.094   7.106  13.058
55082SOL    HW267144   5.993   7.159  12.958
55083SOL     OW67145   9.050  11.282   7.873
55083SOL    HW167146   9.102  11.321   7.803
55083SOL    HW267147   8.960  11.307   7.853
55084SOL     OW67148   4.516  13.671   7.908
55084SOL    HW167149   4.460  13.683   7.984
55084SOL    HW267150   4.471  13.603   7.856
55085SOL     OW67151  11.160   3.778  13.065
55085SOL    HW167152  11.106   3.701  13.079
55085SOL    HW267153  11.185   3.806  13.153
55086SOL     OW67154   1.683  14.239  12.789
55086SOL    HW167155   1.719  14.150  12.790
55086SOL    HW267156   1.614  14.237  12.855
55087SOL     OW67157   2.795   5.030  12.826
55087SOL    HW167158   2.809   5.085  12.749
55087SOL    HW267159   2.699   5.020  12.831
55088SOL     OW67160   3.703   4.573   1.399
55088SOL    HW167161   3.737   4.554   1.486
55088SOL    HW267162   3.767   4.536   1.339
55089SOL     OW67163   5.220   4.020   0.398
55089SOL    HW167164   5.171   3.939   0.402
55089SOL    HW267165   5.154   4.089   0.404
55090SOL     OW67166   4.955   4.303  13.655
55090SOL    HW167167   4.953   4.314  13.560
55090SOL    HW267168   5.026   4.361  13.684
55091SOL     OW67169   5.230  10.836   2.636
55091SOL    HW167170   5.238  10.918   2.588
55091SOL    HW267171   5.243  10.860   2.727
55092SOL     OW67172   1.848   5.994  11.828
55092SOL    HW167173   1.903   6.060  11.870
55092SOL    HW267174   1.874   5.997  11.736
55093SOL     OW67175   7.196   4.235   9.549
55093SOL    HW167176   7.205   4.302   9.481
55093SOL    HW267177   7.286   4.210   9.570
55094SOL     OW67178  13.309  10.212   6.700
55094SOL    HW167179  13.308  10.116   6.696
55094SOL    HW267180  13.236  10.239   6.645
55095SOL     OW67181   2.006   9.993   1.164
55095SOL    HW167182   1.998  10.084   1.193
55095SOL    HW267183   2.094   9.986   1.129
55096SOL     OW67184   6.746   0.063   1.889
55096SOL    HW167185   6.777  14.847   1.866
55096SOL    HW267186   6.653   0.052   1.908
55097SOL     OW67187   5.285  11.287  10.922
55097SOL    HW167188   5.303  11.268  11.014
55097SOL    HW267189   5.256  11.378  10.921
55098SOL     OW67190   6.818   5.460   0.761
55098SOL    HW167191   6.905   5.485   0.728
55098SOL    HW267192   6.758   5.485   0.690
55099SOL     OW67193  13.997   9.004   3.859
55099SOL    HW167194  13.988   9.042   3.771
55099SOL    HW267195  14.090   9.016   3.881
55100SOL     OW67196   9.650   0.554  12.794
55100SOL    HW167197   9.629   0.593  12.709
55100SOL    HW267198   9.601   0.606  12.858
55101SOL     OW67199   3.774  10.762   4.043
55101SOL    HW167200   3.800  10.704   3.970
55101SOL    HW267201   3.802  10.849   4.015
55102SOL     OW67202  11.379   8.867   0.478
55102SOL    HW167203  11.468   8.849   0.449
55102SOL    HW267204  11.363   8.802   0.547
55103SOL     OW67205  11.585   2.597   0.576
55103SOL    HW167206  11.575   2.565   0.665
55103SOL    HW267207  11.507   2.651   0.560
55104SOL     OW67208   4.499   9.730   7.984
55104SOL    HW167209   4.510   9.722   7.889
55104SOL    HW267210   4.455   9.814   7.996
55105SOL     OW67211   6.569   0.121   6.794
55105SOL    HW167212   6.577   0.122   6.698
55105SOL    HW267213   6.656   0.095   6.824
55106SOL     OW67214   1.187   4.436  11.955
55106SOL    HW167215   1.263   4.438  12.013
55106SOL    HW267216   1.224   4.454  11.868
55107SOL     OW67217   0.586  10.960   0.712
55107SOL    HW167218   0.534  11.016   0.771
55107SOL    HW267219   0.591  10.876   0.758
55108SOL     OW67220   5.322  14.477  13.269
55108SOL    HW167221   5.398  14.427  13.300
55108SOL    HW267222   5.288  14.520  13.347
55109SOL     OW67223   1.729   9.604   6.847
55109SOL    HW167224   1.682   9.535   6.802
55109SOL    HW267225   1.773   9.560   6.920
55110SOL     OW67226   5.634   5.161  13.976
55110SOL    HW167227   5.573   5.112  13.920
55110SOL    HW267228   5.648   5.244  13.930
55111SOL     OW67229   5.261   3.945   7.106
55111SOL    HW167230   5.168   3.935   7.090
55111SOL    HW267231   5.303   3.894   7.037
55112SOL     OW67232   9.473  10.896   5.490
55112SOL    HW167233   9.380  10.885   5.466
55112SOL    HW267234   9.520  10.838   5.430
55113SOL     OW67235  14.504  12.998   1.047
55113SOL    HW167236  14.426  13.047   1.023
55113SOL    HW267237  14.478  12.906   1.038
55114SOL     OW67238  12.792  10.444   1.044
55114SOL    HW167239  12.821  10.388   0.973
55114SOL    HW267240  12.854  10.427   1.115
55115SOL     OW67241   9.543   7.843   0.016
55115SOL    HW167242   9.523   7.839  14.794
55115SOL    HW267243   9.552   7.751   0.042
55116SOL     OW67244   7.918  14.844  11.293
55116SOL    HW167245   7.978  14.858  11.367
55116SOL    HW267246   7.832  14.869  11.326
55117SOL     OW67247   7.358   5.441  12.695
55117SOL    HW167248   7.306   5.496  12.636
55117SOL    HW267249   7.300   5.368  12.717
55118SOL     OW67250   3.083  14.532   9.992
55118SOL    HW167251   3.001  14.551   9.947
55118SOL    HW267252   3.107  14.444   9.961
55119SOL     OW67253  10.838   2.100  13.303
55119SOL    HW167254  10.900   2.118  13.233
55119SOL    HW267255  10.758   2.146  13.277
55120SOL     OW67256   3.670  13.795   1.497
55120SOL    HW167257   3.630  13.726   1.446
55120SOL    HW267258   3.623  13.874   1.472
55121SOL     OW67259   8.282   9.147   2.630
55121SOL    HW167260   8.287   9.205   2.554
55121SOL    HW267261   8.233   9.071   2.599
55122SOL     OW67262  10.678   8.021   9.282
55122SOL    HW167263  10.643   7.943   9.326
55122SOL    HW267264  10.665   8.091   9.345
55123SOL     OW67265   8.707   9.867   2.223
55123SOL    HW167266   8.670   9.936   2.277
55123SOL    HW267267   8.641   9.851   2.156
55124SOL     OW67268   1.100   6.214   9.126
55124SOL    HW167269   1.186   6.209   9.084
55124SOL    HW267270   1.080   6.307   9.130
55125SOL     OW67271   1.990   8.132   3.559
55125SOL    HW167272   2.052   8.198   3.528
55125SOL    HW267273   2.012   8.053   3.510
55126SOL     OW67274   0.469  11.303  14.239
55126SOL    HW167275   0.434  11.318  14.327
55126SOL    HW267276   0.556  11.266  14.253
55127SOL     OW67277  13.347  14.158   7.000
55127SOL    HW167278  13.261  14.151   7.041
55127SOL    HW267279  13.350  14.086   6.937
55128SOL     OW67280  12.544   7.788   8.581
55128SOL    HW167281  12.582   7.863   8.534
55128SOL    HW267282  12.458   7.819   8.608
55129SOL     OW67283  12.469  12.679   0.292
55129SOL    HW167284  12.495  12.715   0.207
55129SOL    HW267285  12.374  12.675   0.288
55130SOL     OW67286  13.556   4.528  12.008
55130SOL    HW167287  13.623   4.464  11.982
55130SOL    HW267288  13.474   4.478  12.006
55131SOL     OW67289   0.226   8.182   4.324
55131SOL    HW167290   0.132   8.165   4.311
55131SOL    HW267291   0.229   8.245   4.396
55132SOL     OW67292   1.118   4.191   0.092
55132SOL    HW167293   1.057   4.134   0.046
55132SOL    HW267294   1.064   4.264   0.124
55133SOL     OW67295   3.270   8.000  10.646
55133SOL    HW167296   3.277   8.076  10.589
55133SOL    HW267297   3.302   8.030  10.731
55134SOL     OW67298  12.713   4.109   9.528
55134SOL    HW167299  12.772   4.038   9.557
55134SOL    HW267300  12.697   4.161   9.607
55135SOL     OW67301   2.437   3.517  12.191
55135SOL    HW167302   2.411   3.486  12.105
55135SOL    HW267303   2.371   3.583  12.213
55136SOL     OW67304  12.623  10.287   0.446
55136SOL    HW167305  12.710  10.259   0.476
55136SOL    HW267306  12.631  10.381   0.435
55137SOL     OW67307  14.327  12.429   3.724
55137SOL    HW167308  14.360  12.501   3.671
55137SOL    HW267309  14.284  12.370   3.662
55138SOL     OW67310   4.201   3.745   5.799
55138SOL    HW167311   4.230   3.784   5.882
55138SOL    HW267312   4.251   3.791   5.732
55139SOL     OW67313  12.293  14.707   0.270
55139SOL    HW167314  12.247  14.790   0.285
55139SOL    HW267315  12.243  14.665   0.199
55140SOL     OW67316  12.545  12.929  14.076
55140SOL    HW167317  12.620  12.989  14.077
55140SOL    HW267318  12.524  12.918  13.983
55141SOL     OW67319  14.540   0.391   6.808
55141SOL    HW167320  14.608   0.455   6.830
55141SOL    HW267321  14.479   0.440   6.753
55142SOL     OW67322   0.702   5.709  11.518
55142SOL    HW167323   0.721   5.649  11.591
55142SOL    HW267324   0.617   5.748  11.540
55143SOL     OW67325   4.567   8.985   0.261
55143SOL    HW167326   4.506   9.058   0.261
55143SOL    HW267327   4.632   9.008   0.329
55144SOL     OW67328  11.806  13.790   8.939
55144SOL    HW167329  11.833  13.860   8.999
55144SOL    HW267330  11.778  13.719   8.996
55145SOL     OW67331   0.697   0.745  11.854
55145SOL    HW167332   0.761   0.757  11.924
55145SOL    HW267333   0.735   0.678  11.797
55146SOL     OW67334   4.176   5.984   7.697
55146SOL    HW167335   4.225   6.044   7.753
55146SOL    HW267336   4.197   5.897   7.730
55147SOL     OW67337   7.432  11.330   0.279
55147SOL    HW167338   7.442  11.400   0.344
55147SOL    HW267339   7.450  11.250   0.327
55148SOL     OW67340   3.808  11.459   5.304
55148SOL    HW167341   3.865  11.384   5.323
55148SOL    HW267342   3.860  11.535   5.330
55149SOL     OW67343  13.529   6.877  11.367
55149SOL    HW167344  13.611   6.881  11.318
55149SOL    HW267345  13.519   6.966  11.402
55150SOL     OW67346   3.305   2.235   1.840
55150SOL    HW167347   3.258   2.160   1.803
55150SOL    HW267348   3.243   2.308   1.831
55151SOL     OW67349  10.519  12.021  13.248
55151SOL    HW167350  10.424  12.014  13.242
55151SOL    HW267351  10.548  12.040  13.159
55152SOL     OW67352   9.707   4.908  10.555
55152SOL    HW167353   9.683   4.988  10.509
55152SOL    HW267354   9.626   4.856  10.557
55153SOL     OW67355   3.051   5.400  13.982
55153SOL    HW167356   3.135   5.445  13.993
55153SOL    HW267357   2.985   5.467  14.000
55154SOL     OW67358   3.248  11.322   5.678
55154SOL    HW167359   3.257  11.378   5.755
55154SOL    HW267360   3.186  11.254   5.705
55155SOL     OW67361   8.129  14.821   4.257
55155SOL    HW167362   8.110  14.788   4.345
55155SOL    HW267363   8.062   0.016   4.242
55156SOL     OW67364   6.599  12.138  14.087
55156SOL    HW167365   6.570  12.101  14.170
55156SOL    HW267366   6.655  12.071  14.048
55157SOL     OW67367   7.317   7.391   3.686
55157SOL    HW167368   7.288   7.456   3.622
55157SOL    HW267369   7.301   7.307   3.644
55158SOL     OW67370   6.170   1.613   0.297
55158SOL    HW167371   6.251   1.639   0.340
55158SOL    HW267372   6.190   1.616   0.203
55159SOL     OW67373   0.537   9.541   6.675
55159SOL    HW167374   0.577   9.498   6.599
55159SOL    HW267375   0.530   9.473   6.741
55160SOL     OW67376   8.458   9.732   3.034
55160SOL    HW167377   8.455   9.815   2.987
55160SOL    HW267378   8.539   9.691   3.004
55161SOL     OW67379   3.968  13.331   1.123
55161SOL    HW167380   3.946  13.406   1.068
55161SOL    HW267381   3.927  13.256   1.080
55162SOL     OW67382   5.369  12.812   9.644
55162SOL    HW167383   5.290  12.797   9.696
55162SOL    HW267384   5.356  12.762   9.564
55163SOL     OW67385   4.136   0.499   1.118
55163SOL    HW167386   4.129   0.443   1.040
55163SOL    HW267387   4.227   0.490   1.146
55164SOL     OW67388   1.964   2.929  11.253
55164SOL    HW167389   1.980   3.015  11.214
55164SOL    HW267390   2.001   2.867  11.190
55165SOL     OW67391   7.729   3.955  12.402
55165SOL    HW167392   7.814   3.992  12.425
55165SOL    HW267393   7.749   3.867  12.371
55166SOL     OW67394  12.413  14.291   4.612
55166SOL    HW167395  12.434  14.384   4.615
55166SOL    HW267396  12.318  14.289   4.596
55167SOL     OW67397   2.217  11.149   5.430
55167SOL    HW167398   2.285  11.151   5.362
55167SOL    HW267399   2.242  11.219   5.490
55168SOL     OW67400  14.798  13.396  13.317
55168SOL    HW167401  14.742  13.469  13.345
55168SOL    HW267402  14.742  13.344  13.258
55169SOL     OW67403   4.547   2.922  12.676
55169SOL    HW167404   4.514   2.944  12.763
55169SOL    HW267405   4.468   2.900  12.626
55170SOL     OW67406   5.556   7.468  13.154
55170SOL    HW167407   5.537   7.477  13.247
55170SOL    HW267408   5.487   7.411  13.121
55171SOL     OW67409   6.560   3.728   0.052
55171SOL    HW167410   6.516   3.646   0.029
55171SOL    HW267411   6.624   3.740  14.853
55172SOL     OW67412   9.157  10.850  13.955
55172SOL    HW167413   9.065  10.875  13.963
55172SOL    HW267414   9.191  10.908  13.887
55173SOL     OW67415   2.312  10.043  12.965
55173SOL    HW167416   2.250  10.092  13.018
55173SOL    HW267417   2.329  10.099  12.889
55174SOL     OW67418   2.987  13.441   7.042
55174SOL    HW167419   2.909  13.449   7.097
55174SOL    HW267420   2.953  13.427   6.954
55175SOL     OW67421   1.601   6.409   6.345
55175SOL    HW167422   1.676   6.352   6.358
55175SOL    HW267423   1.559   6.413   6.431
55176SOL     OW67424   9.673   2.502  13.585
55176SOL    HW167425   9.709   2.528  13.670
55176SOL    HW267426   9.578   2.508  13.596
55177SOL     OW67427   3.223   9.192  10.180
55177SOL    HW167428   3.279   9.264  10.150
55177SOL    HW267429   3.213   9.207  10.274
55178SOL     OW67430   0.358  13.863   2.011
55178SOL    HW167431   0.351  13.868   1.915
55178SOL    HW267432   0.268  13.850   2.041
55179SOL     OW67433   1.764   1.848  14.844
55179SOL    HW167434   1.735   1.797  14.768
55179SOL    HW267435   1.834   1.794   0.011
55180SOL     OW67436   4.137   1.162   9.743
55180SOL    HW167437   4.158   1.229   9.807
55180SOL    HW267438   4.132   1.081   9.793
55181SOL     OW67439   1.456  13.219   7.081
55181SOL    HW167440   1.360  13.227   7.075
55181SOL    HW267441   1.487  13.308   7.094
55182SOL     OW67442   3.313  12.509   9.186
55182SOL    HW167443   3.328  12.604   9.187
55182SOL    HW267444   3.323  12.482   9.277
55183SOL     OW67445   6.191  14.827   0.417
55183SOL    HW167446   6.223   0.002   0.495
55183SOL    HW267447   6.230   0.002   0.344
55184SOL     OW67448   9.403   8.855   9.204
55184SOL    HW167449   9.384   8.775   9.155
55184SOL    HW267450   9.322   8.906   9.199
55185SOL     OW67451   8.713   6.487   6.010
55185SOL    HW167452   8.625   6.462   6.039
55185SOL    HW267453   8.763   6.405   6.012
55186SOL     OW67454  12.550   2.188   9.877
55186SOL    HW167455  12.522   2.164   9.789
55186SOL    HW267456  12.551   2.284   9.877
55187SOL     OW67457  10.880  13.736  11.567
55187SOL    HW167458  10.861  13.821  11.606
55187SOL    HW267459  10.962  13.708  11.609
55188SOL     OW67460  11.801   0.134   4.806
55188SOL    HW167461  11.835   0.163   4.722
55188SOL    HW267462  11.788   0.214   4.856
55189SOL     OW67463   6.436   0.909   8.818
55189SOL    HW167464   6.487   0.931   8.896
55189SOL    HW267465   6.345   0.921   8.844
55190SOL     OW67466   9.747   3.622  14.584
55190SOL    HW167467   9.726   3.680  14.657
55190SOL    HW267468   9.782   3.543  14.626
55191SOL     OW67469  14.777   9.402  13.502
55191SOL    HW167470  14.852   9.391  13.560
55191SOL    HW267471  14.741   9.314  13.492
55192SOL     OW67472   1.390   6.790  10.399
55192SOL    HW167473   1.442   6.807  10.477
55192SOL    HW267474   1.358   6.701  10.410
55193SOL     OW67475   1.849   4.314  14.795
55193SOL    HW167476   1.898   4.233  14.778
55193SOL    HW267477   1.910   4.368  14.845
55194SOL     OW67478  14.142  12.338  11.978
55194SOL    HW167479  14.151  12.429  12.006
55194SOL    HW267480  14.108  12.343  11.889
55195SOL     OW67481   2.488   0.815   4.881
55195SOL    HW167482   2.532   0.898   4.902
55195SOL    HW267483   2.423   0.804   4.950
55196SOL     OW67484  12.273  10.490  12.844
55196SOL    HW167485  12.236  10.579  12.848
55196SOL    HW267486  12.340  10.490  12.913
55197SOL     OW67487   0.156   3.269  10.385
55197SOL    HW167488   0.110   3.202  10.335
55197SOL    HW267489   0.230   3.223  10.424
55198SOL     OW67490  10.756   8.206  10.649
55198SOL    HW167491  10.800   8.195  10.734
55198SOL    HW267492  10.785   8.292  10.619
55199SOL     OW67493  13.750   2.919  14.115
55199SOL    HW167494  13.798   2.853  14.166
55199SOL    HW267495  13.766   2.896  14.024
55200SOL     OW67496  13.951   7.173   0.732
55200SOL    HW167497  14.027   7.204   0.782
55200SOL    HW267498  13.890   7.143   0.798
55201SOL     OW67499   7.418   6.594   3.517
55201SOL    HW167500   7.452   6.607   3.605
55201SOL    HW267501   7.482   6.538   3.474
55202SOL     OW67502   0.844   2.102  10.270
55202SOL    HW167503   0.874   2.121  10.359
55202SOL    HW267504   0.749   2.114  10.274
55203SOL     OW67505  10.817   6.182   7.185
55203SOL    HW167506  10.793   6.106   7.131
55203SOL    HW267507  10.821   6.255   7.123
55204SOL     OW67508   9.473   1.247  10.756
55204SOL    HW167509   9.462   1.313  10.825
55204SOL    HW267510   9.567   1.227  10.757
55205SOL     OW67511  11.497   4.109  12.827
55205SOL    HW167512  11.584   4.148  12.816
55205SOL    HW267513  11.486   4.053  12.750
55206SOL     OW67514   3.353  11.464   9.232
55206SOL    HW167515   3.419  11.460   9.302
55206SOL    HW267516   3.401  11.437   9.153
55207SOL     OW67517   8.310   9.455  13.226
55207SOL    HW167518   8.392   9.462  13.275
55207SOL    HW267519   8.326   9.500  13.144
55208SOL     OW67520   5.911   5.925   3.398
55208SOL    HW167521   5.872   5.969   3.473
55208SOL    HW267522   5.913   5.833   3.422
55209SOL     OW67523   8.786   4.893   0.218
55209SOL    HW167524   8.767   4.981   0.251
55209SOL    HW267525   8.795   4.839   0.296
55210SOL     OW67526   0.197   2.114   8.602
55210SOL    HW167527   0.148   2.138   8.681
55210SOL    HW267528   0.129   2.086   8.540
55211SOL     OW67529  10.552   9.950   0.665
55211SOL    HW167530  10.630  10.005   0.671
55211SOL    HW267531  10.543   9.931   0.572
55212SOL     OW67532  10.333  11.157   2.668
55212SOL    HW167533  10.353  11.135   2.759
55212SOL    HW267534  10.241  11.182   2.669
55213SOL     OW67535  13.806   1.199   7.411
55213SOL    HW167536  13.863   1.226   7.339
55213SOL    HW267537  13.812   1.104   7.413
55214SOL     OW67538   5.708  14.857  14.604
55214SOL    HW167539   5.772   0.022  14.543
55214SOL    HW267540   5.728   0.026  14.688
55215SOL     OW67541   8.941  14.086   2.820
55215SOL    HW167542   8.891  14.156   2.778
55215SOL    HW267543   8.902  14.006   2.787
55216SOL     OW67544   6.002   6.647   5.970
55216SOL    HW167545   6.053   6.567   5.956
55216SOL    HW267546   5.987   6.681   5.882
55217SOL     OW67547   4.660   3.075   6.000
55217SOL    HW167548   4.608   3.034   6.069
55217SOL    HW267549   4.719   3.134   6.047
55218SOL     OW67550   5.820  14.368  13.516
55218SOL    HW167551   5.888  14.333  13.458
55218SOL    HW267552   5.740  14.367  13.463
55219SOL     OW67553   4.481   4.720   5.037
55219SOL    HW167554   4.468   4.713   4.942
55219SOL    HW267555   4.494   4.813   5.052
55220SOL     OW67556   0.340   5.545   3.565
55220SOL    HW167557   0.318   5.562   3.656
55220SOL    HW267558   0.314   5.454   3.551
55221SOL     OW67559   0.659   7.044   5.035
55221SOL    HW167560   0.723   6.986   5.076
55221SOL    HW267561   0.678   7.040   4.942
55222SOL     OW67562  14.439   1.238   7.085
55222SOL    HW167563  14.374   1.200   7.026
55222SOL    HW267564  14.438   1.182   7.163
55223SOL     OW67565   0.410   1.296  13.829
55223SOL    HW167566   0.462   1.219  13.806
55223SOL    HW267567   0.380   1.278  13.919
55224SOL     OW67568  11.666   2.942   3.621
55224SOL    HW167569  11.703   2.863   3.661
55224SOL    HW267570  11.663   3.005   3.693
55225SOL     OW67571  10.606   1.761   1.299
55225SOL    HW167572  10.641   1.850   1.290
55225SOL    HW267573  10.683   1.705   1.300
55226SOL     OW67574   1.059   2.177   4.039
55226SOL    HW167575   1.055   2.082   4.029
55226SOL    HW267576   1.026   2.211   3.956
55227SOL     OW67577   6.055   9.256   2.621
55227SOL    HW167578   6.051   9.272   2.715
55227SOL    HW267579   6.088   9.338   2.584
55228SOL     OW67580  10.939   0.412  12.990
55228SOL    HW167581  10.858   0.383  12.947
55228SOL    HW267582  11.003   0.343  12.971
55229SOL     OW67583   0.141   5.431   3.250
55229SOL    HW167584   0.170   5.487   3.178
55229SOL    HW267585   0.218   5.379   3.273
55230SOL     OW67586   1.657  13.547   5.742
55230SOL    HW167587   1.600  13.578   5.812
55230SOL    HW267588   1.723  13.493   5.786
55231SOL     OW67589   9.840  13.240   2.813
55231SOL    HW167590   9.893  13.276   2.741
55231SOL    HW267591   9.903  13.222   2.882
55232SOL     OW67592  13.805   2.512   2.843
55232SOL    HW167593  13.875   2.547   2.899
55232SOL    HW267594  13.792   2.423   2.873
55233SOL     OW67595  10.301  14.283  13.268
55233SOL    HW167596  10.224  14.340  13.275
55233SOL    HW267597  10.369  14.340  13.232
55234SOL     OW67598   5.999   2.966   9.104
55234SOL    HW167599   5.976   2.917   9.183
55234SOL    HW267600   6.034   2.900   9.044
55235SOL     OW67601   7.986  12.935   0.181
55235SOL    HW167602   8.054  12.905   0.241
55235SOL    HW267603   7.904  12.921   0.229
55236SOL     OW67604  12.664   5.480   0.862
55236SOL    HW167605  12.591   5.541   0.851
55236SOL    HW267606  12.729   5.529   0.912
55237SOL     OW67607  11.491   0.723  10.516
55237SOL    HW167608  11.477   0.798  10.458
55237SOL    HW267609  11.407   0.677  10.517
55238SOL     OW67610  14.297   4.837   8.852
55238SOL    HW167611  14.267   4.748   8.831
55238SOL    HW267612  14.296   4.841   8.947
55239SOL     OW67613  13.625   9.372   7.461
55239SOL    HW167614  13.705   9.318   7.464
55239SOL    HW267615  13.638   9.436   7.531
55240SOL     OW67616   3.883  14.830   3.284
55240SOL    HW167617   3.871  14.811   3.191
55240SOL    HW267618   3.967   0.004   3.289
55241SOL     OW67619   4.154   3.549   7.748
55241SOL    HW167620   4.175   3.602   7.671
55241SOL    HW267621   4.230   3.560   7.806
55242SOL     OW67622  11.949   8.289  11.469
55242SOL    HW167623  11.948   8.365  11.412
55242SOL    HW267624  11.883   8.307  11.535
55243SOL     OW67625   7.719  11.856   2.765
55243SOL    HW167626   7.745  11.835   2.675
55243SOL    HW267627   7.625  11.835   2.768
55244SOL     OW67628  10.580   6.931   3.194
55244SOL    HW167629  10.507   6.988   3.217
55244SOL    HW267630  10.641   6.989   3.148
55245SOL     OW67631   9.259  12.168  12.296
55245SOL    HW167632   9.305  12.090  12.326
55245SOL    HW267633   9.322  12.239  12.305
55246SOL     OW67634   8.365   0.125  14.222
55246SOL    HW167635   8.318   0.142  14.304
55246SOL    HW267636   8.408   0.041  14.236
55247SOL     OW67637  14.836  14.260   9.077
55247SOL    HW167638  14.776  14.186   9.082
55247SOL    HW267639  14.863  14.275   9.167
55248SOL     OW67640   3.207  13.623   9.011
55248SOL    HW167641   3.282  13.606   9.068
55248SOL    HW267642   3.156  13.541   9.013
55249SOL     OW67643   2.509   6.335   8.221
55249SOL    HW167644   2.547   6.302   8.140
55249SOL    HW267645   2.556   6.417   8.238
55250SOL     OW67646  12.914   4.440   7.506
55250SOL    HW167647  12.952   4.526   7.487
55250SOL    HW267648  12.937   4.422   7.597
55251SOL     OW67649  13.009   4.227   0.881
55251SOL    HW167650  12.992   4.183   0.964
55251SOL    HW267651  13.031   4.317   0.905
55252SOL     OW67652  13.954   6.673  11.579
55252SOL    HW167653  13.867   6.692  11.544
55252SOL    HW267654  13.937   6.646  11.669
55253SOL     OW67655  10.086  14.570  11.254
55253SOL    HW167656  10.081  14.483  11.293
55253SOL    HW267657  10.056  14.558  11.164
55254SOL     OW67658  11.750  13.566   2.840
55254SOL    HW167659  11.660  13.564   2.874
55254SOL    HW267660  11.798  13.620   2.904
55255SOL     OW67661  14.728  12.943  11.503
55255SOL    HW167662  14.686  12.893  11.573
55255SOL    HW267663  14.822  12.932  11.518
55256SOL     OW67664   1.724  11.257   0.762
55256SOL    HW167665   1.648  11.267   0.819
55256SOL    HW267666   1.709  11.175   0.716
55257SOL     OW67667  10.631   4.552   6.611
55257SOL    HW167668  10.590   4.506   6.538
55257SOL    HW267669  10.667   4.632   6.573
55258SOL     OW67670   7.395   1.811   5.363
55258SOL    HW167671   7.357   1.852   5.286
55258SOL    HW267672   7.430   1.728   5.331
55259SOL     OW67673  10.392   2.826   1.448
55259SOL    HW167674  10.432   2.783   1.372
55259SOL    HW267675  10.448   2.802   1.522
55260SOL     OW67676   5.473  14.593   9.123
55260SOL    HW167677   5.432  14.633   9.047
55260SOL    HW267678   5.565  14.583   9.098
55261SOL     OW67679   6.339  10.779  14.741
55261SOL    HW167680   6.422  10.763  14.785
55261SOL    HW267681   6.283  10.816  14.809
55262SOL     OW67682  12.476   3.199   9.275
55262SOL    HW167683  12.393   3.157   9.253
55262SOL    HW267684  12.512   3.225   9.191
55263SOL     OW67685   1.725  13.188   4.899
55263SOL    HW167686   1.770  13.182   4.814
55263SOL    HW267687   1.639  13.224   4.877
55264SOL     OW67688   2.918  11.330  13.295
55264SOL    HW167689   2.885  11.367  13.378
55264SOL    HW267690   3.007  11.301  13.316
55265SOL     OW67691   4.835   1.168  11.063
55265SOL    HW167692   4.897   1.231  11.101
55265SOL    HW267693   4.755   1.180  11.114
55266SOL     OW67694  11.926   2.922   0.876
55266SOL    HW167695  11.995   2.935   0.940
55266SOL    HW267696  11.845   2.929   0.927
55267SOL     OW67697   0.752   4.020   2.915
55267SOL    HW167698   0.798   3.944   2.951
55267SOL    HW267699   0.752   4.006   2.821
55268SOL     OW67700  12.705   3.700  13.185
55268SOL    HW167701  12.656   3.623  13.158
55268SOL    HW267702  12.643   3.753  13.234
55269SOL     OW67703   7.104   4.973   2.298
55269SOL    HW167704   7.104   5.032   2.374
55269SOL    HW267705   7.131   5.029   2.225
55270SOL     OW67706  10.226  11.835   0.709
55270SOL    HW167707  10.250  11.841   0.616
55270SOL    HW267708  10.130  11.838   0.709
55271SOL     OW67709   9.423   3.066   5.846
55271SOL    HW167710   9.445   2.974   5.861
55271SOL    HW267711   9.368   3.064   5.767
55272SOL     OW67712   6.592   0.640   1.790
55272SOL    HW167713   6.678   0.680   1.805
55272SOL    HW267714   6.530   0.702   1.828
55273SOL     OW67715   8.238  13.365   0.900
55273SOL    HW167716   8.328  13.368   0.867
55273SOL    HW267717   8.204  13.281   0.869
55274SOL     OW67718  11.759   5.168  12.971
55274SOL    HW167719  11.820   5.110  13.015
55274SOL    HW267720  11.686   5.112  12.944
55275SOL     OW67721   5.066   9.362   3.351
55275SOL    HW167722   4.985   9.390   3.394
55275SOL    HW267723   5.118   9.442   3.343
55276SOL     OW67724   9.359   3.808   0.730
55276SOL    HW167725   9.390   3.858   0.806
55276SOL    HW267726   9.274   3.772   0.758
55277SOL     OW67727   4.017   6.437   0.216
55277SOL    HW167728   3.952   6.508   0.214
55277SOL    HW267729   4.084   6.468   0.278
55278SOL     OW67730   9.064   3.627   0.356
55278SOL    HW167731   9.012   3.676   0.419
55278SOL    HW267732   9.063   3.537   0.389
55279SOL     OW67733  14.701   6.333   2.088
55279SOL    HW167734  14.791   6.366   2.079
55279SOL    HW267735  14.698   6.257   2.030
55280SOL     OW67736   9.615  12.221   1.000
55280SOL    HW167737   9.564  12.282   0.947
55280SOL    HW267738   9.698  12.211   0.953
55281SOL     OW67739   9.311  11.860  14.220
55281SOL    HW167740   9.326  11.952  14.240
55281SOL    HW267741   9.314  11.854  14.125
55282SOL     OW67742   3.859  11.456   8.614
55282SOL    HW167743   3.941  11.451   8.664
55282SOL    HW267744   3.821  11.541   8.639
55283SOL     OW67745   4.820  10.535   4.018
55283SOL    HW167746   4.869  10.461   4.056
55283SOL    HW267747   4.876  10.567   3.948
55284SOL     OW67748   3.330   5.759  14.590
55284SOL    HW167749   3.244   5.723  14.569
55284SOL    HW267750   3.390   5.709  14.534
55285SOL     OW67751  12.703   5.087   1.989
55285SOL    HW167752  12.712   5.080   2.085
55285SOL    HW267753  12.758   5.016   1.955
55286SOL     OW67754   0.230  11.066  13.733
55286SOL    HW167755   0.165  11.132  13.708
55286SOL    HW267756   0.217  11.052  13.826
55287SOL     OW67757   3.676  11.517  13.271
55287SOL    HW167758   3.688  11.547  13.181
55287SOL    HW267759   3.655  11.596  13.320
55288SOL     OW67760   4.460   1.432  10.581
55288SOL    HW167761   4.542   1.465  10.544
55288SOL    HW267762   4.429   1.368  10.517
55289SOL     OW67763  13.222  12.167   0.352
55289SOL    HW167764  13.233  12.085   0.303
55289SOL    HW267765  13.172  12.223   0.293
55290SOL     OW67766  13.549   9.753   0.425
55290SOL    HW167767  13.481   9.711   0.479
55290SOL    HW267768  13.617   9.778   0.488
55291SOL     OW67769  11.598   5.303   9.304
55291SOL    HW167770  11.536   5.359   9.258
55291SOL    HW267771  11.682   5.321   9.263
55292SOL     OW67772   1.503   6.546   8.128
55292SOL    HW167773   1.464   6.531   8.041
55292SOL    HW267774   1.523   6.458   8.160
55293SOL     OW67775   2.453  11.752   6.382
55293SOL    HW167776   2.428  11.826   6.327
55293SOL    HW267777   2.419  11.775   6.469
55294SOL     OW67778   2.249   0.491   7.182
55294SOL    HW167779   2.262   0.405   7.141
55294SOL    HW267780   2.177   0.530   7.133
55295SOL     OW67781   4.352   9.529   9.562
55295SOL    HW167782   4.441   9.555   9.585
55295SOL    HW267783   4.296   9.578   9.621
55296SOL     OW67784   1.718   4.715  12.935
55296SOL    HW167785   1.637   4.751  12.899
55296SOL    HW267786   1.705   4.719  13.030
55297SOL     OW67787  13.537   3.376   6.842
55297SOL    HW167788  13.572   3.430   6.771
55297SOL    HW267789  13.453   3.417   6.865
55298SOL     OW67790  12.417   5.468   7.361
55298SOL    HW167791  12.474   5.422   7.423
55298SOL    HW267792  12.351   5.403   7.337
55299SOL     OW67793  13.164   3.410  12.083
55299SOL    HW167794  13.232   3.448  12.026
55299SOL    HW267795  13.204   3.331  12.119
55300SOL     OW67796  12.347  14.481  10.304
55300SOL    HW167797  12.441  14.466  10.302
55300SOL    HW267798  12.309  14.396  10.325
55301SOL     OW67799  10.834   1.433   5.434
55301SOL    HW167800  10.772   1.505   5.445
55301SOL    HW267801  10.799   1.362   5.488
55302SOL     OW67802   4.900  11.511  14.579
55302SOL    HW167803   4.928  11.447  14.514
55302SOL    HW267804   4.882  11.460  14.658
55303SOL     OW67805   3.180   0.049   0.359
55303SOL    HW167806   3.210  14.834   0.330
55303SOL    HW267807   3.246   0.109   0.324
55304SOL     OW67808   1.707  10.482   9.899
55304SOL    HW167809   1.770  10.432   9.848
55304SOL    HW267810   1.701  10.434   9.982
55305SOL     OW67811   4.063  10.336   0.694
55305SOL    HW167812   4.094  10.396   0.762
55305SOL    HW267813   4.135  10.333   0.631
55306SOL     OW67814  10.240   7.981   6.724
55306SOL    HW167815  10.172   8.001   6.789
55306SOL    HW267816  10.204   8.014   6.642
55307SOL     OW67817   2.927   4.295   0.994
55307SOL    HW167818   2.843   4.253   0.982
55307SOL    HW267819   2.960   4.310   0.906
55308SOL     OW67820   7.282   4.534   4.708
55308SOL    HW167821   7.328   4.497   4.633
55308SOL    HW267822   7.192   4.505   4.698
55309SOL     OW67823   1.718  14.188   2.174
55309SOL    HW167824   1.742  14.242   2.100
55309SOL    HW267825   1.654  14.126   2.139
55310SOL     OW67826  11.739  13.485   1.460
55310SOL    HW167827  11.687  13.543   1.516
55310SOL    HW267828  11.677  13.456   1.393
55311SOL     OW67829   6.803  13.701  11.846
55311SOL    HW167830   6.819  13.615  11.886
55311SOL    HW267831   6.876  13.712  11.785
55312SOL     OW67832   9.288   1.824  10.644
55312SOL    HW167833   9.247   1.801  10.727
55312SOL    HW267834   9.234   1.896  10.610
55313SOL     OW67835   5.549  11.398   3.935
55313SOL    HW167836   5.463  11.440   3.944
55313SOL    HW267837   5.536  11.333   3.866
55314SOL     OW67838  10.575  13.679   5.869
55314SOL    HW167839  10.488  13.657   5.901
55314SOL    HW267840  10.565  13.767   5.831
55315SOL     OW67841   8.917   4.811   7.923
55315SOL    HW167842   8.924   4.768   7.838
55315SOL    HW267843   8.826   4.841   7.927
55316SOL     OW67844   6.152   5.946  12.009
55316SOL    HW167845   6.195   5.993  11.938
55316SOL    HW267846   6.176   5.995  12.088
55317SOL     OW67847   8.407  11.358   0.776
55317SOL    HW167848   8.345  11.295   0.742
55317SOL    HW267849   8.480  11.357   0.713
55318SOL     OW67850   6.884  11.458  13.285
55318SOL    HW167851   6.926  11.543  13.281
55318SOL    HW267852   6.955  11.396  13.298
55319SOL     OW67853   3.902   2.739   3.169
55319SOL    HW167854   3.990   2.758   3.204
55319SOL    HW267855   3.873   2.662   3.219
55320SOL     OW67856  11.742   0.852   3.544
55320SOL    HW167857  11.813   0.817   3.490
55320SOL    HW267858  11.757   0.946   3.546
55321SOL     OW67859  14.808   4.288   8.670
55321SOL    HW167860  14.767   4.373   8.657
55321SOL    HW267861  14.770   4.233   8.601
55322SOL     OW67862   8.670   6.346  13.928
55322SOL    HW167863   8.737   6.396  13.880
55322SOL    HW267864   8.601   6.331  13.864
55323SOL     OW67865   2.497   3.250  10.377
55323SOL    HW167866   2.549   3.172  10.397
55323SOL    HW267867   2.528   3.277  10.291
55324SOL     OW67868   4.288  10.951   6.459
55324SOL    HW167869   4.342  10.904   6.522
55324SOL    HW267870   4.346  11.017   6.422
55325SOL     OW67871  11.573  11.825   2.613
55325SOL    HW167872  11.650  11.776   2.585
55325SOL    HW267873  11.501  11.762   2.605
55326SOL     OW67874   9.426   2.837   3.654
55326SOL    HW167875   9.417   2.931   3.636
55326SOL    HW267876   9.351   2.797   3.610
55327SOL     OW67877   8.993   0.469  10.788
55327SOL    HW167878   8.920   0.528  10.767
55327SOL    HW267879   8.962   0.421  10.865
55328SOL     OW67880   8.320  10.122   6.046
55328SOL    HW167881   8.360  10.049   5.999
55328SOL    HW267882   8.251  10.082   6.099
55329SOL     OW67883   8.936   6.995   2.399
55329SOL    HW167884   8.903   7.067   2.345
55329SOL    HW267885   8.957   7.035   2.484
55330SOL     OW67886   0.804  14.285   6.258
55330SOL    HW167887   0.729  14.255   6.207
55330SOL    HW267888   0.768  14.353   6.315
55331SOL     OW67889  13.170   0.876   8.215
55331SOL    HW167890  13.227   0.820   8.163
55331SOL    HW267891  13.229   0.941   8.254
55332SOL     OW67892   9.451  11.375  11.622
55332SOL    HW167893   9.527  11.393  11.567
55332SOL    HW267894   9.391  11.448  11.605
55333SOL     OW67895   3.748   9.152   5.274
55333SOL    HW167896   3.748   9.139   5.369
55333SOL    HW267897   3.811   9.223   5.259
55334SOL     OW67898   0.451   7.059  13.504
55334SOL    HW167899   0.359   7.062  13.479
55334SOL    HW267900   0.452   7.091  13.594
55335SOL     OW67901   5.242   7.849   6.601
55335SOL    HW167902   5.324   7.885   6.567
55335SOL    HW267903   5.227   7.898   6.682
55336SOL     OW67904  10.196   0.868   0.273
55336SOL    HW167905  10.117   0.822   0.299
55336SOL    HW267906  10.260   0.798   0.257
55337SOL     OW67907   7.744  10.029  14.159
55337SOL    HW167908   7.699   9.960  14.110
55337SOL    HW267909   7.731  10.108  14.107
55338SOL     OW67910  12.907  13.606   0.147
55338SOL    HW167911  12.892  13.597   0.241
55338SOL    HW267912  12.962  13.532   0.123
55339SOL     OW67913  11.600   6.587   2.580
55339SOL    HW167914  11.526   6.635   2.616
55339SOL    HW267915  11.593   6.600   2.485
55340SOL     OW67916   5.320   4.417   3.999
55340SOL    HW167917   5.410   4.448   4.006
55340SOL    HW267918   5.304   4.412   3.904
55341SOL     OW67919   5.127  10.960  13.199
55341SOL    HW167920   5.216  10.949  13.168
55341SOL    HW267921   5.107  10.879  13.246
55342SOL     OW67922   6.219  14.587   9.008
55342SOL    HW167923   6.305  14.551   9.026
55342SOL    HW267924   6.225  14.620   8.918
55343SOL     OW67925   3.014   8.958   4.563
55343SOL    HW167926   2.963   8.894   4.513
55343SOL    HW267927   3.102   8.920   4.567
55344SOL     OW67928   2.818   4.266   2.043
55344SOL    HW167929   2.801   4.175   2.068
55344SOL    HW267930   2.895   4.291   2.093
55345SOL     OW67931  14.368   9.326   3.667
55345SOL    HW167932  14.307   9.275   3.719
55345SOL    HW267933  14.445   9.337   3.723
55346SOL     OW67934  10.669  12.446   3.937
55346SOL    HW167935  10.745  12.402   3.977
55346SOL    HW267936  10.606  12.453   4.008
55347SOL     OW67937   0.364  10.709  14.529
55347SOL    HW167938   0.344  10.797  14.497
55347SOL    HW267939   0.332  10.650  14.460
55348SOL     OW67940   5.044   5.323  14.215
55348SOL    HW167941   5.037   5.389  14.284
55348SOL    HW267942   5.044   5.374  14.134
55349SOL     OW67943   2.510   0.325  14.192
55349SOL    HW167944   2.542   0.238  14.166
55349SOL    HW267945   2.589   0.372  14.219
55350SOL     OW67946   8.079  13.596   5.578
55350SOL    HW167947   8.098  13.515   5.530
55350SOL    HW267948   8.021  13.569   5.649
55351SOL     OW67949  13.042   1.645   1.446
55351SOL    HW167950  13.112   1.609   1.392
55351SOL    HW267951  13.041   1.589   1.524
55352SOL     OW67952  12.882   9.511  13.271
55352SOL    HW167953  12.951   9.449  13.294
55352SOL    HW267954  12.920   9.598  13.287
55353SOL     OW67955  11.553  10.939   3.055
55353SOL    HW167956  11.519  10.993   3.127
55353SOL    HW267957  11.534  10.849   3.082
55354SOL     OW67958   3.174   8.340  12.255
55354SOL    HW167959   3.174   8.433  12.233
55354SOL    HW267960   3.204   8.297  12.175
55355SOL     OW67961   1.151  14.533   2.546
55355SOL    HW167962   1.214  14.529   2.475
55355SOL    HW267963   1.128  14.626   2.553
55356SOL     OW67964   5.269   1.507   8.103
55356SOL    HW167965   5.256   1.470   8.016
55356SOL    HW267966   5.297   1.433   8.157
55357SOL     OW67967   8.594  11.986   9.152
55357SOL    HW167968   8.679  11.950   9.127
55357SOL    HW267969   8.602  12.003   9.246
55358SOL     OW67970   1.736   8.062   2.600
55358SOL    HW167971   1.668   8.124   2.629
55358SOL    HW267972   1.692   8.005   2.537
55359SOL     OW67973   9.419   3.679  12.460
55359SOL    HW167974   9.402   3.739  12.387
55359SOL    HW267975   9.503   3.708  12.495
55360SOL     OW67976  11.402  10.487   0.806
55360SOL    HW167977  11.491  10.496   0.839
55360SOL    HW267978  11.362  10.573   0.822
55361SOL     OW67979   1.721  12.953   3.460
55361SOL    HW167980   1.743  12.932   3.551
55361SOL    HW267981   1.629  12.929   3.451
55362SOL     OW67982   7.002   7.816   5.108
55362SOL    HW167983   7.038   7.760   5.038
55362SOL    HW267984   6.964   7.754   5.170
55363SOL     OW67985   8.897  11.942  13.028
55363SOL    HW167986   8.852  11.871  12.982
55363SOL    HW267987   8.921  12.004  12.959
55364SOL     OW67988   2.821   3.112   7.774
55364SOL    HW167989   2.842   3.185   7.832
55364SOL    HW267990   2.778   3.048   7.831
55365SOL     OW67991   6.757   5.413   3.511
55365SOL    HW167992   6.757   5.354   3.436
55365SOL    HW267993   6.827   5.476   3.492
55366SOL     OW67994   1.883   1.199  12.283
55366SOL    HW167995   1.804   1.244  12.254
55366SOL    HW267996   1.917   1.255  12.353
55367SOL     OW67997  11.864   2.064   1.173
55367SOL    HW167998  11.830   2.093   1.088
55367SOL    HW267999  11.791   2.075   1.233
55368SOL     OW68000   6.076   3.944   4.729
55368SOL    HW168001   6.083   3.858   4.772
55368SOL    HW268002   6.099   4.007   4.797
55369SOL     OW68003  14.181   8.857   2.350
55369SOL    HW168004  14.223   8.942   2.361
55369SOL    HW268005  14.124   8.849   2.427
55370SOL     OW68006   4.788   5.424   4.005
55370SOL    HW168007   4.711   5.380   3.970
55370SOL    HW268008   4.777   5.516   3.980
55371SOL     OW68009   1.515   8.105  13.670
55371SOL    HW168010   1.525   8.143  13.582
55371SOL    HW268011   1.563   8.164  13.727
55372SOL     OW68012  13.169   8.241   7.595
55372SOL    HW168013  13.126   8.268   7.514
55372SOL    HW268014  13.105   8.258   7.664
55373SOL     OW68015  10.120   5.949  14.664
55373SOL    HW168016  10.193   5.985  14.714
55373SOL    HW268017  10.121   5.997  14.582
55374SOL     OW68018  12.245  10.796  12.500
55374SOL    HW168019  12.241  10.701  12.504
55374SOL    HW268020  12.154  10.823  12.485
55375SOL     OW68021   2.949   2.042   8.535
55375SOL    HW168022   3.014   1.994   8.586
55375SOL    HW268023   2.884   1.975   8.512
55376SOL     OW68024   2.738  10.835   0.603
55376SOL    HW168025   2.786  10.869   0.679
55376SOL    HW268026   2.647  10.831   0.632
55377SOL     OW68027  11.441   6.809   5.354
55377SOL    HW168028  11.371   6.853   5.306
55377SOL    HW268029  11.478   6.877   5.410
55378SOL     OW68030   1.079  11.724   5.811
55378SOL    HW168031   1.018  11.651   5.805
55378SOL    HW268032   1.073  11.754   5.901
55379SOL     OW68033   1.873  13.413   7.506
55379SOL    HW168034   1.937  13.474   7.543
55379SOL    HW268035   1.788  13.454   7.523
55380SOL     OW68036   8.075   7.980  13.374
55380SOL    HW168037   8.059   7.973  13.468
55380SOL    HW268038   7.993   7.952  13.334
55381SOL     OW68039   7.427   6.839   7.790
55381SOL    HW168040   7.513   6.813   7.822
55381SOL    HW268041   7.413   6.785   7.712
55382SOL     OW68042  13.216  11.968   4.158
55382SOL    HW168043  13.266  12.050   4.158
55382SOL    HW268044  13.282  11.900   4.173
55383SOL     OW68045  14.871  12.224   6.785
55383SOL    HW168046   0.076  12.237   6.728
55383SOL    HW268047  14.858  12.129   6.786
55384SOL     OW68048  10.194  11.573  14.813
55384SOL    HW168049  10.221  11.657  14.850
55384SOL    HW268050  10.132  11.537   0.005
55385SOL     OW68051  10.610   2.154  14.219
55385SOL    HW168052  10.658   2.153  14.136
55385SOL    HW268053  10.672   2.191  14.282
55386SOL     OW68054   9.696  12.910   9.531
55386SOL    HW168055   9.714  12.857   9.609
55386SOL    HW268056   9.600  12.911   9.524
55387SOL     OW68057  12.157  13.693   2.624
55387SOL    HW168058  12.099  13.619   2.605
55387SOL    HW268059  12.242  13.653   2.640
55388SOL     OW68060  14.574   8.346   2.160
55388SOL    HW168061  14.580   8.381   2.249
55388SOL    HW268062  14.480   8.350   2.140
55389SOL     OW68063  14.510   4.102   9.268
55389SOL    HW168064  14.467   4.186   9.259
55389SOL    HW268065  14.515   4.068   9.178
55390SOL     OW68066   5.568   3.348   9.704
55390SOL    HW168067   5.578   3.312   9.792
55390SOL    HW268068   5.540   3.274   9.651
55391SOL     OW68069   4.308  12.834  13.737
55391SOL    HW168070   4.347  12.752  13.706
55391SOL    HW268071   4.360  12.858  13.814
55392SOL     OW68072   0.165  12.201   9.016
55392SOL    HW168073   0.096  12.145   8.980
55392SOL    HW268074   0.232  12.140   9.046
55393SOL     OW68075  10.470   8.451   8.885
55393SOL    HW168076  10.422   8.523   8.844
55393SOL    HW268077  10.466   8.380   8.821
55394SOL     OW68078   6.999   7.660  14.806
55394SOL    HW168079   6.997   7.654  14.711
55394SOL    HW268080   7.072   7.604  14.832
55395SOL     OW68081   5.532  10.000   8.715
55395SOL    HW168082   5.607  10.022   8.770
55395SOL    HW268083   5.549   9.910   8.687
55396SOL     OW68084   0.241  14.577   6.502
55396SOL    HW168085   0.164  14.534   6.465
55396SOL    HW268086   0.207  14.654   6.547
55397SOL     OW68087   7.017  13.223  13.160
55397SOL    HW168088   6.930  13.183  13.151
55397SOL    HW268089   7.071  13.153  13.198
55398SOL     OW68090   1.767   7.605   4.959
55398SOL    HW168091   1.793   7.667   4.891
55398SOL    HW268092   1.744   7.525   4.910
55399SOL     OW68093  10.861  10.007  11.951
55399SOL    HW168094  10.876  10.102  11.950
55399SOL    HW268095  10.781   9.995  11.901
55400SOL     OW68096   5.526  11.959   1.037
55400SOL    HW168097   5.531  11.961   0.942
55400SOL    HW268098   5.591  12.024   1.066
55401SOL     OW68099   1.381   5.402   3.882
55401SOL    HW168100   1.429   5.475   3.843
55401SOL    HW268101   1.306   5.442   3.926
55402SOL     OW68102   7.788  11.382   8.251
55402SOL    HW168103   7.760  11.472   8.233
55402SOL    HW268104   7.872  11.374   8.205
55403SOL     OW68105  13.520  14.220  11.765
55403SOL    HW168106  13.608  14.187  11.745
55403SOL    HW268107  13.464  14.177  11.701
55404SOL     OW68108  12.237  11.842   6.306
55404SOL    HW168109  12.313  11.885   6.268
55404SOL    HW268110  12.269  11.804   6.388
55405SOL     OW68111  11.136  14.699  13.706
55405SOL    HW168112  11.132  14.656  13.620
55405SOL    HW268113  11.170  14.786  13.688
55406SOL     OW68114   6.396   0.606   7.286
55406SOL    HW168115   6.336   0.681   7.283
55406SOL    HW268116   6.369   0.555   7.362
55407SOL     OW68117   7.434  14.664   0.938
55407SOL    HW168118   7.359  14.634   0.885
55407SOL    HW268119   7.503  14.680   0.874
55408SOL     OW68120   9.704  11.846   6.505
55408SOL    HW168121   9.704  11.781   6.575
55408SOL    HW268122   9.756  11.919   6.540
55409SOL     OW68123   3.285   5.555   7.453
55409SOL    HW168124   3.367   5.604   7.441
55409SOL    HW268125   3.304   5.493   7.524
55410SOL     OW68126   6.132  12.849   1.262
55410SOL    HW168127   6.202  12.860   1.198
55410SOL    HW268128   6.052  12.860   1.212
55411SOL     OW68129   5.447   2.093   9.025
55411SOL    HW168130   5.494   2.044   9.092
55411SOL    HW268131   5.507   2.094   8.950
55412SOL     OW68132   0.363  12.411   2.994
55412SOL    HW168133   0.403  12.365   2.920
55412SOL    HW268134   0.368  12.504   2.970
55413SOL     OW68135   1.426   2.163   9.623
55413SOL    HW168136   1.487   2.091   9.610
55413SOL    HW268137   1.345   2.121   9.652
55414SOL     OW68138   3.946   4.887   0.551
55414SOL    HW168139   3.876   4.949   0.530
55414SOL    HW268140   4.023   4.941   0.565
55415SOL     OW68141   3.193   7.845   3.299
55415SOL    HW168142   3.175   7.816   3.388
55415SOL    HW268143   3.130   7.797   3.245
55416SOL     OW68144   8.437   7.228  11.430
55416SOL    HW168145   8.392   7.257  11.509
55416SOL    HW268146   8.405   7.139  11.415
55417SOL     OW68147  11.383  13.703   4.719
55417SOL    HW168148  11.413  13.684   4.631
55417SOL    HW268149  11.463  13.705   4.772
55418SOL     OW68150   2.184   9.916  13.230
55418SOL    HW168151   2.165  10.002  13.193
55418SOL    HW268152   2.106   9.864  13.213
55419SOL     OW68153   1.882  10.077   6.824
55419SOL    HW168154   1.830  10.009   6.867
55419SOL    HW268155   1.853  10.075   6.733
55420SOL     OW68156   3.152  14.096   9.125
55420SOL    HW168157   3.063  14.129   9.131
55420SOL    HW268158   3.199  14.163   9.075
55421SOL     OW68159   6.034   7.170   3.105
55421SOL    HW168160   5.976   7.102   3.139
55421SOL    HW268161   6.084   7.200   3.181
55422SOL     OW68162   2.761  14.489   0.557
55422SOL    HW168163   2.690  14.438   0.597
55422SOL    HW268164   2.761  14.571   0.606
55423SOL     OW68165  13.329   6.545   3.798
55423SOL    HW168166  13.413   6.535   3.842
55423SOL    HW268167  13.288   6.458   3.802
55424SOL     OW68168  10.626  13.598  14.845
55424SOL    HW168169  10.586  13.519   0.009
55424SOL    HW268170  10.564  13.668  14.867
55425SOL     OW68171   3.278  10.173  14.039
55425SOL    HW168172   3.330  10.150  14.117
55425SOL    HW268173   3.194  10.130  14.054
55426SOL     OW68174  14.759  13.526   9.635
55426SOL    HW168175  14.725  13.536   9.546
55426SOL    HW268176  14.853  13.509   9.623
55427SOL     OW68177   9.284   7.009   6.438
55427SOL    HW168178   9.287   6.943   6.507
55427SOL    HW268179   9.224   7.076   6.472
55428SOL     OW68180   0.881   3.676   7.769
55428SOL    HW168181   0.963   3.721   7.747
55428SOL    HW268182   0.875   3.605   7.705
55429SOL     OW68183   9.487  14.339  10.188
55429SOL    HW168184   9.490  14.244  10.193
55429SOL    HW268185   9.547  14.369  10.256
55430SOL     OW68186   4.854   7.467  14.586
55430SOL    HW168187   4.800   7.390  14.571
55430SOL    HW268188   4.921   7.438  14.647
55431SOL     OW68189   5.969  11.983   5.417
55431SOL    HW168190   5.970  12.055   5.480
55431SOL    HW268191   6.058  11.977   5.384
55432SOL     OW68192   8.093  10.116   7.247
55432SOL    HW168193   8.040  10.082   7.319
55432SOL    HW268194   8.150  10.182   7.287
55433SOL     OW68195   6.194   9.910  14.597
55433SOL    HW168196   6.184   9.815  14.589
55433SOL    HW268197   6.191   9.942  14.507
55434SOL     OW68198  10.760  11.937   3.710
55434SOL    HW168199  10.811  12.016   3.693
55434SOL    HW268200  10.826  11.868   3.716
55435SOL     OW68201   0.467   3.958   7.590
55435SOL    HW168202   0.421   3.973   7.672
55435SOL    HW268203   0.400   3.969   7.523
55436SOL     OW68204   0.420  11.865  13.703
55436SOL    HW168205   0.335  11.861  13.749
55436SOL    HW268206   0.452  11.953  13.722
55437SOL     OW68207   9.172   5.007   5.292
55437SOL    HW168208   9.144   5.049   5.373
55437SOL    HW268209   9.131   4.920   5.295
55438SOL     OW68210  13.058  11.244   9.126
55438SOL    HW168211  13.131  11.206   9.175
55438SOL    HW268212  13.039  11.326   9.171
55439SOL     OW68213   2.830   0.507   0.772
55439SOL    HW168214   2.748   0.557   0.769
55439SOL    HW268215   2.804   0.420   0.800
55440SOL     OW68216  10.803  11.309   3.294
55440SOL    HW168217  10.825  11.303   3.387
55440SOL    HW268218  10.858  11.379   3.261
55441SOL     OW68219  13.793  13.661  11.145
55441SOL    HW168220  13.851  13.693  11.076
55441SOL    HW268221  13.846  13.666  11.224
55442SOL     OW68222  12.640  11.393   4.821
55442SOL    HW168223  12.683  11.352   4.895
55442SOL    HW268224  12.712  11.420   4.763
55443SOL     OW68225  13.303   2.301   4.194
55443SOL    HW168226  13.272   2.210   4.197
55443SOL    HW268227  13.262   2.343   4.270
55444SOL     OW68228   6.008  12.313  14.517
55444SOL    HW168229   6.015  12.364  14.436
55444SOL    HW268230   6.087  12.258  14.517
55445SOL     OW68231   8.296   7.487   4.730
55445SOL    HW168232   8.313   7.535   4.648
55445SOL    HW268233   8.201   7.478   4.732
55446SOL     OW68234   9.792  12.519  10.704
55446SOL    HW168235   9.741  12.560  10.774
55446SOL    HW268236   9.867  12.577  10.692
55447SOL     OW68237   5.127   7.104  13.166
55447SOL    HW168238   5.189   7.042  13.128
55447SOL    HW268239   5.046   7.091  13.117
55448SOL     OW68240  13.269   8.263  14.187
55448SOL    HW168241  13.275   8.183  14.135
55448SOL    HW268242  13.332   8.323  14.146
55449SOL     OW68243  14.350   1.662  14.690
55449SOL    HW168244  14.295   1.595  14.731
55449SOL    HW268245  14.295   1.741  14.689
55450SOL     OW68246   7.748  12.621   6.669
55450SOL    HW168247   7.798  12.545   6.641
55450SOL    HW268248   7.670  12.585   6.711
55451SOL     OW68249   2.417   3.738   9.429
55451SOL    HW168250   2.355   3.761   9.360
55451SOL    HW268251   2.487   3.801   9.421
55452SOL     OW68252  13.083  13.673   1.447
55452SOL    HW168253  13.098  13.765   1.468
55452SOL    HW268254  13.104  13.666   1.354
55453SOL     OW68255   2.729  11.045   8.106
55453SOL    HW168256   2.749  11.023   8.015
55453SOL    HW268257   2.647  11.001   8.125
55454SOL     OW68258  12.778  10.512  10.723
55454SOL    HW168259  12.851  10.522  10.661
55454SOL    HW268260  12.820  10.500  10.808
55455SOL     OW68261   4.378   0.812   8.094
55455SOL    HW168262   4.390   0.901   8.059
55455SOL    HW268263   4.444   0.760   8.049
55456SOL     OW68264   4.049   1.257   8.129
55456SOL    HW168265   4.108   1.230   8.199
55456SOL    HW268266   4.037   1.178   8.076
55457SOL     OW68267   4.695   1.812   0.467
55457SOL    HW168268   4.717   1.883   0.526
55457SOL    HW268269   4.662   1.742   0.524
55458SOL     OW68270  13.449  11.156   2.502
55458SOL    HW168271  13.479  11.131   2.414
55458SOL    HW268272  13.448  11.251   2.501
55459SOL     OW68273   0.777  12.022   1.838
55459SOL    HW168274   0.851  11.962   1.847
55459SOL    HW268275   0.733  12.019   1.923
55460SOL     OW68276  13.083   1.025   7.172
55460SOL    HW168277  13.153   0.975   7.216
55460SOL    HW268278  13.088   0.997   7.081
55461SOL     OW68279   3.473   7.341  10.887
55461SOL    HW168280   3.518   7.383  10.961
55461SOL    HW268281   3.419   7.411  10.850
55462SOL     OW68282   1.102   6.677   1.942
55462SOL    HW168283   1.176   6.659   1.884
55462SOL    HW268284   1.062   6.756   1.905
55463SOL     OW68285  14.713   3.179   6.076
55463SOL    HW168286  14.627   3.147   6.102
55463SOL    HW268287  14.698   3.227   5.994
55464SOL     OW68288  10.084   9.885  14.697
55464SOL    HW168289  10.108   9.976  14.715
55464SOL    HW268290  10.010   9.891  14.636
55465SOL     OW68291  13.566  14.789  11.316
55465SOL    HW168292  13.641  14.763  11.262
55465SOL    HW268293  13.561   0.013  11.305
55466SOL     OW68294  10.982  13.363  11.683
55466SOL    HW168295  10.940  13.277  11.683
55466SOL    HW268296  10.984  13.389  11.591
55467SOL     OW68297  12.861  13.228   7.052
55467SOL    HW168298  12.827  13.152   7.098
55467SOL    HW268299  12.799  13.243   6.981
55468SOL     OW68300   5.674   8.493   5.406
55468SOL    HW168301   5.754   8.493   5.457
55468SOL    HW268302   5.648   8.585   5.400
55469SOL     OW68303   7.216   7.256   1.311
55469SOL    HW168304   7.275   7.266   1.237
55469SOL    HW268305   7.183   7.345   1.328
55470SOL     OW68306   1.193   8.002   6.046
55470SOL    HW168307   1.109   7.992   6.091
55470SOL    HW268308   1.223   8.090   6.071
55471SOL     OW68309   4.587   2.739   1.943
55471SOL    HW168310   4.611   2.823   1.980
55471SOL    HW268311   4.510   2.757   1.889
55472SOL     OW68312  13.882   5.268  13.497
55472SOL    HW168313  13.905   5.309  13.581
55472SOL    HW268314  13.872   5.175  13.518
55473SOL     OW68315   4.693   4.398  12.391
55473SOL    HW168316   4.660   4.446  12.315
55473SOL    HW268317   4.727   4.467  12.449
55474SOL     OW68318   6.181  14.213   9.723
55474SOL    HW168319   6.241  14.207   9.649
55474SOL    HW268320   6.201  14.135   9.776
55475SOL     OW68321   8.557  10.315  10.534
55475SOL    HW168322   8.613  10.237  10.533
55475SOL    HW268323   8.521  10.320  10.445
55476SOL     OW68324   9.846  13.880   6.851
55476SOL    HW168325   9.855  13.823   6.774
55476SOL    HW268326   9.798  13.828   6.915
55477SOL     OW68327   1.344   9.241   4.300
55477SOL    HW168328   1.343   9.189   4.219
55477SOL    HW268329   1.279   9.309   4.285
55478SOL     OW68330   4.411  11.481  13.153
55478SOL    HW168331   4.333  11.426  13.163
55478SOL    HW268332   4.484  11.421  13.164
55479SOL     OW68333   3.139   9.845   1.030
55479SOL    HW168334   3.067   9.824   0.969
55479SOL    HW268335   3.146   9.940   1.027
55480SOL     OW68336   4.973   2.608   5.731
55480SOL    HW168337   4.965   2.513   5.725
55480SOL    HW268338   4.961   2.639   5.641
55481SOL     OW68339  10.097   6.743   9.455
55481SOL    HW168340  10.034   6.759   9.524
55481SOL    HW268341  10.152   6.821   9.453
55482SOL     OW68342  12.870   7.389   6.209
55482SOL    HW168343  12.849   7.305   6.251
55482SOL    HW268344  12.932   7.430   6.269
55483SOL     OW68345   0.952  12.564   8.764
55483SOL    HW168346   1.028  12.522   8.723
55483SOL    HW268347   0.938  12.643   8.712
55484SOL     OW68348   2.860  11.102   5.981
55484SOL    HW168349   2.779  11.089   5.931
55484SOL    HW268350   2.838  11.076   6.070
55485SOL     OW68351   0.470  11.642  12.734
55485SOL    HW168352   0.416  11.640  12.655
55485SOL    HW268353   0.543  11.700  12.712
55486SOL     OW68354   6.558  14.099   3.708
55486SOL    HW168355   6.510  14.174   3.674
55486SOL    HW268356   6.498  14.025   3.700
55487SOL     OW68357   9.746   1.263  10.177
55487SOL    HW168358   9.706   1.346  10.152
55487SOL    HW268359   9.820   1.253  10.117
55488SOL     OW68360   2.847  13.268  14.180
55488SOL    HW168361   2.857  13.177  14.205
55488SOL    HW268362   2.874  13.271  14.088
55489SOL     OW68363  11.505   7.327  10.034
55489SOL    HW168364  11.471   7.359  10.118
55489SOL    HW268365  11.449   7.369   9.968
55490SOL     OW68366   6.415   8.628  12.192
55490SOL    HW168367   6.345   8.676  12.238
55490SOL    HW268368   6.370   8.581  12.122
55491SOL     OW68369   6.240  10.148   1.589
55491SOL    HW168370   6.268  10.127   1.678
55491SOL    HW268371   6.264  10.240   1.577
55492SOL     OW68372   9.792   6.603  14.404
55492SOL    HW168373   9.792   6.667  14.332
55492SOL    HW268374   9.702   6.572  14.409
55493SOL     OW68375   9.264  14.193  11.838
55493SOL    HW168376   9.269  14.134  11.762
55493SOL    HW268377   9.272  14.281  11.801
55494SOL     OW68378  11.796   2.634   1.328
55494SOL    HW168379  11.812   2.543   1.303
55494SOL    HW268380  11.715   2.631   1.379
55495SOL     OW68381   1.437   5.725   3.372
55495SOL    HW168382   1.394   5.690   3.294
55495SOL    HW268383   1.521   5.758   3.340
55496SOL     OW68384   7.081   8.316   4.364
55496SOL    HW168385   7.156   8.265   4.334
55496SOL    HW268386   7.029   8.255   4.416
55497SOL     OW68387   2.417   0.437   8.698
55497SOL    HW168388   2.407   0.526   8.733
55497SOL    HW268389   2.332   0.418   8.658
55498SOL     OW68390   3.042  10.459  11.438
55498SOL    HW168391   3.058  10.548  11.470
55498SOL    HW268392   2.993  10.471  11.357
55499SOL     OW68393   9.151   9.076  13.287
55499SOL    HW168394   9.179   9.050  13.199
55499SOL    HW268395   9.058   9.099  13.276
55500SOL     OW68396  11.079   7.311  12.698
55500SOL    HW168397  11.014   7.303  12.768
55500SOL    HW268398  11.132   7.387  12.724
55501SOL     OW68399   3.354   9.567   3.005
55501SOL    HW168400   3.421   9.617   3.051
55501SOL    HW268401   3.283   9.630   2.992
55502SOL     OW68402   3.914  12.962   1.613
55502SOL    HW168403   3.966  12.893   1.570
55502SOL    HW268404   3.828  12.956   1.571
55503SOL     OW68405   8.899  11.976   6.994
55503SOL    HW168406   8.923  12.023   7.073
55503SOL    HW268407   8.949  11.894   6.998
55504SOL     OW68408   7.294   1.729   9.200
55504SOL    HW168409   7.349   1.668   9.249
55504SOL    HW268410   7.306   1.704   9.108
55505SOL     OW68411   2.154  13.378   6.936
55505SOL    HW168412   2.173  13.315   7.005
55505SOL    HW268413   2.139  13.460   6.982
55506SOL     OW68414  11.563   5.280  14.441
55506SOL    HW168415  11.613   5.310  14.517
55506SOL    HW268416  11.611   5.203  14.410
55507SOL     OW68417   6.916  13.375   0.574
55507SOL    HW168418   6.987  13.431   0.543
55507SOL    HW268419   6.944  13.347   0.661
55508SOL     OW68420   2.303  12.343   4.925
55508SOL    HW168421   2.280  12.402   4.853
55508SOL    HW268422   2.397  12.356   4.936
55509SOL     OW68423   5.289  14.629  14.334
55509SOL    HW168424   5.195  14.611  14.336
55509SOL    HW268425   5.295  14.724  14.336
55510SOL     OW68426   9.701   4.044  13.868
55510SOL    HW168427   9.787   4.063  13.906
55510SOL    HW268428   9.639   4.084  13.928
55511SOL     OW68429  13.674   3.268  12.911
55511SOL    HW168430  13.646   3.358  12.930
55511SOL    HW268431  13.709   3.272  12.822
55512SOL     OW68432   9.397  13.012   8.310
55512SOL    HW168433   9.362  12.923   8.306
55512SOL    HW268434   9.323  13.068   8.286
55513SOL     OW68435   0.438   7.663   7.870
55513SOL    HW168436   0.518   7.715   7.861
55513SOL    HW268437   0.373   7.709   7.817
55514SOL     OW68438   5.035   8.127   3.691
55514SOL    HW168439   5.103   8.170   3.742
55514SOL    HW268440   5.051   8.155   3.601
55515SOL     OW68441  14.132  10.473   2.167
55515SOL    HW168442  14.172  10.514   2.244
55515SOL    HW268443  14.081  10.543   2.126
55516SOL     OW68444   0.937   4.177   1.079
55516SOL    HW168445   0.880   4.241   1.036
55516SOL    HW268446   0.936   4.101   1.020
55517SOL     OW68447  10.266   3.228   5.545
55517SOL    HW168448  10.335   3.174   5.582
55517SOL    HW268449  10.306   3.314   5.533
55518SOL     OW68450  13.008  10.790   2.599
55518SOL    HW168451  13.003  10.871   2.650
55518SOL    HW268452  13.089  10.798   2.549
55519SOL     OW68453   7.115   0.765   4.796
55519SOL    HW168454   7.138   0.714   4.874
55519SOL    HW268455   7.112   0.700   4.726
55520SOL     OW68456   8.644   2.466  13.558
55520SOL    HW168457   8.738   2.477  13.572
55520SOL    HW268458   8.632   2.479  13.464
55521SOL     OW68459   1.559  10.155  13.910
55521SOL    HW168460   1.514  10.141  13.993
55521SOL    HW268461   1.506  10.221  13.865
55522SOL     OW68462  10.631  11.728   4.257
55522SOL    HW168463  10.623  11.820   4.232
55522SOL    HW268464  10.549  11.707   4.301
55523SOL     OW68465   2.396   8.212   4.723
55523SOL    HW168466   2.455   8.138   4.733
55523SOL    HW268467   2.404   8.260   4.806
55524SOL     OW68468  10.273   0.500   9.351
55524SOL    HW168469  10.199   0.439   9.358
55524SOL    HW268470  10.349   0.447   9.376
55525SOL     OW68471   2.365   4.194  11.988
55525SOL    HW168472   2.387   4.203  12.081
55525SOL    HW268473   2.409   4.267  11.945
55526SOL     OW68474  13.005   2.743   5.699
55526SOL    HW168475  12.955   2.707   5.772
55526SOL    HW268476  12.976   2.693   5.622
55527SOL     OW68477   0.518  11.191   5.788
55527SOL    HW168478   0.428  11.160   5.778
55527SOL    HW268479   0.524  11.215   5.880
55528SOL     OW68480   2.899   9.190   9.835
55528SOL    HW168481   2.815   9.191   9.882
55528SOL    HW268482   2.924   9.097   9.834
55529SOL     OW68483   4.083  10.881   5.894
55529SOL    HW168484   4.018  10.852   5.958
55529SOL    HW268485   4.107  10.802   5.845
55530SOL     OW68486  10.077  12.726  12.939
55530SOL    HW168487  10.141  12.788  12.904
55530SOL    HW268488  10.081  12.652  12.879
55531SOL     OW68489   8.304  13.283   2.953
55531SOL    HW168490   8.257  13.365   2.969
55531SOL    HW268491   8.318  13.246   3.040
55532SOL     OW68492   3.832   9.466   1.693
55532SOL    HW168493   3.815   9.480   1.786
55532SOL    HW268494   3.747   9.439   1.657
55533SOL     OW68495  12.618  12.679   3.685
55533SOL    HW168496  12.530  12.696   3.651
55533SOL    HW268497  12.605  12.664   3.779
55534SOL     OW68498   4.461   8.117   9.382
55534SOL    HW168499   4.492   8.027   9.393
55534SOL    HW268500   4.517   8.154   9.314
55535SOL     OW68501  10.583   0.747   5.376
55535SOL    HW168502  10.626   0.667   5.407
55535SOL    HW268503  10.507   0.716   5.327
55536SOL     OW68504   8.253   5.716  12.053
55536SOL    HW168505   8.235   5.800  12.094
55536SOL    HW268506   8.348   5.705  12.060
55537SOL     OW68507   8.861  12.592   0.357
55537SOL    HW168508   8.947  12.584   0.399
55537SOL    HW268509   8.879  12.640   0.276
55538SOL     OW68510   1.475   9.087   2.042
55538SOL    HW168511   1.475   9.138   1.961
55538SOL    HW268512   1.418   9.012   2.023
55539SOL     OW68513   3.704  10.007   5.231
55539SOL    HW168514   3.635  10.035   5.172
55539SOL    HW268515   3.776  10.069   5.216
55540SOL     OW68516   0.471  12.531   6.373
55540SOL    HW168517   0.380  12.558   6.367
55540SOL    HW268518   0.515  12.580   6.304
55541SOL     OW68519   6.800   9.917  12.762
55541SOL    HW168520   6.839   9.855  12.701
55541SOL    HW268521   6.769   9.989  12.707
55542SOL     OW68522   0.644  11.968   9.291
55542SOL    HW168523   0.712  11.902   9.283
55542SOL    HW268524   0.655  12.004   9.379
55543SOL     OW68525  14.687   6.357   0.372
55543SOL    HW168526  14.652   6.268   0.359
55543SOL    HW268527  14.782   6.346   0.371
55544SOL     OW68528   7.460  12.609  10.156
55544SOL    HW168529   7.369  12.584  10.143
55544SOL    HW268530   7.456  12.692  10.203
55545SOL     OW68531   5.158  14.846   4.248
55545SOL    HW168532   5.138  14.778   4.312
55545SOL    HW268533   5.197  14.799   4.175
55546SOL     OW68534   0.481   5.155   1.889
55546SOL    HW168535   0.387   5.137   1.886
55546SOL    HW268536   0.491   5.239   1.844
55547SOL     OW68537   5.436   1.783  10.948
55547SOL    HW168538   5.379   1.857  10.924
55547SOL    HW268539   5.521   1.823  10.964
55548SOL     OW68540  11.609   2.595  11.592
55548SOL    HW168541  11.662   2.666  11.626
55548SOL    HW268542  11.629   2.520  11.648
55549SOL     OW68543   4.609   6.525  13.644
55549SOL    HW168544   4.558   6.450  13.675
55549SOL    HW268545   4.597   6.592  13.711
55550SOL     OW68546  11.292  11.837  13.754
55550SOL    HW168547  11.296  11.780  13.677
55550SOL    HW268548  11.384  11.859  13.773
55551SOL     OW68549   2.948   8.748   7.656
55551SOL    HW168550   2.936   8.716   7.567
55551SOL    HW268551   2.887   8.821   7.664
55552SOL     OW68552   3.533   6.080   1.927
55552SOL    HW168553   3.530   6.168   1.890
55552SOL    HW268554   3.619   6.046   1.902
55553SOL     OW68555  13.714   8.872   3.226
55553SOL    HW168556  13.749   8.833   3.146
55553SOL    HW268557  13.784   8.861   3.290
55554SOL     OW68558   8.233   1.071   3.023
55554SOL    HW168559   8.307   1.010   3.019
55554SOL    HW268560   8.196   1.057   3.110
55555SOL     OW68561  10.401   0.214   9.703
55555SOL    HW168562  10.488   0.204   9.666
55555SOL    HW268563  10.404   0.299   9.748
55556SOL     OW68564   7.361  10.963   0.181
55556SOL    HW168565   7.354  11.058   0.177
55556SOL    HW268566   7.278  10.934   0.218
55557SOL     OW68567   2.763   3.661  10.140
55557SOL    HW168568   2.833   3.713  10.180
55557SOL    HW268569   2.750   3.588  10.201
55558SOL     OW68570   5.312   2.026   9.620
55558SOL    HW168571   5.255   2.018   9.695
55558SOL    HW268572   5.256   2.008   9.544
55559SOL     OW68573  10.200   1.012  12.434
55559SOL    HW168574  10.135   1.074  12.465
55559SOL    HW268575  10.284   1.052  12.457
55560SOL     OW68576  11.362   6.926   0.075
55560SOL    HW168577  11.406   6.952  14.866
55560SOL    HW268578  11.356   6.830   0.069
55561SOL     OW68579  14.838  10.470   9.711
55561SOL    HW168580  14.775  10.441   9.644
55561SOL    HW268581   0.052  10.445   9.676
55562SOL     OW68582  11.651  10.887   8.353
55562SOL    HW168583  11.744  10.888   8.330
55562SOL    HW268584  11.610  10.946   8.290
55563SOL     OW68585   1.290   8.276   2.130
55563SOL    HW168586   1.286   8.243   2.220
55563SOL    HW268587   1.369   8.237   2.093
55564SOL     OW68588  13.704  12.052   3.798
55564SOL    HW168589  13.753  12.101   3.864
55564SOL    HW268590  13.613  12.079   3.810
55565SOL     OW68591   4.345  12.005  13.678
55565SOL    HW168592   4.311  12.094  13.691
55565SOL    HW268593   4.387  11.984  13.761
55566SOL     OW68594   1.789   1.978   9.107
55566SOL    HW168595   1.769   2.057   9.056
55566SOL    HW268596   1.756   1.906   9.054
55567SOL     OW68597  12.144   0.110   6.321
55567SOL    HW168598  12.183   0.087   6.405
55567SOL    HW268599  12.053   0.131   6.341
55568SOL     OW68600   2.064   2.870   4.038
55568SOL    HW168601   1.979   2.844   4.075
55568SOL    HW268602   2.085   2.800   3.976
55569SOL     OW68603   8.058  12.350   9.055
55569SOL    HW168604   8.032  12.288   9.123
55569SOL    HW268605   8.069  12.296   8.977
55570SOL     OW68606   2.311   6.542   7.057
55570SOL    HW168607   2.400   6.508   7.060
55570SOL    HW268608   2.256   6.464   7.049
55571SOL     OW68609  12.144  10.564  14.336
55571SOL    HW168610  12.064  10.615  14.352
55571SOL    HW268611  12.137  10.489  14.395
55572SOL     OW68612   1.583   5.549  13.617
55572SOL    HW168613   1.648   5.479  13.608
55572SOL    HW268614   1.523   5.535  13.545
55573SOL     OW68615   5.481  14.417  13.774
55573SOL    HW168616   5.421  14.374  13.713
55573SOL    HW268617   5.424  14.473  13.827
55574SOL     OW68618  14.206  14.492  13.340
55574SOL    HW168619  14.284  14.525  13.295
55574SOL    HW268620  14.209  14.534  13.426
55575SOL     OW68621  13.267   5.491  10.995
55575SOL    HW168622  13.189   5.534  10.960
55575SOL    HW268623  13.266   5.512  11.089
55576SOL     OW68624   4.864  11.503   5.351
55576SOL    HW168625   4.846  11.581   5.402
55576SOL    HW268626   4.958  11.504   5.336
55577SOL     OW68627  10.975   6.520   1.627
55577SOL    HW168628  11.014   6.432   1.630
55577SOL    HW268629  10.885   6.507   1.656
55578SOL     OW68630   3.879   9.637   2.910
55578SOL    HW168631   3.808   9.701   2.909
55578SOL    HW268632   3.885   9.610   3.002
55579SOL     OW68633   6.833  10.474   8.448
55579SOL    HW168634   6.848  10.428   8.365
55579SOL    HW268635   6.755  10.431   8.485
55580SOL     OW68636   5.996   1.059   5.326
55580SOL    HW168637   6.087   1.043   5.350
55580SOL    HW268638   5.968   0.978   5.283
55581SOL     OW68639   6.068  10.286  10.340
55581SOL    HW168640   6.021  10.313  10.419
55581SOL    HW268641   6.085  10.368  10.293
55582SOL     OW68642   6.616  12.757   3.808
55582SOL    HW168643   6.564  12.741   3.888
55582SOL    HW268644   6.590  12.845   3.780
55583SOL     OW68645  14.663   5.164  13.310
55583SOL    HW168646  14.652   5.257  13.290
55583SOL    HW268647  14.574   5.132  13.323
55584SOL     OW68648   5.860   4.044   8.689
55584SOL    HW168649   5.851   4.003   8.775
55584SOL    HW268650   5.858   4.138   8.707
55585SOL     OW68651  10.460  10.629  12.764
55585SOL    HW168652  10.400  10.683  12.711
55585SOL    HW268653  10.439  10.539  12.739
55586SOL     OW68654   0.265   9.423  10.119
55586SOL    HW168655   0.256   9.467  10.203
55586SOL    HW268656   0.314   9.484  10.064
55587SOL     OW68657   8.626  14.606   2.537
55587SOL    HW168658   8.566  14.675   2.566
55587SOL    HW268659   8.691  14.600   2.607
55588SOL     OW68660   1.443  11.637  13.499
55588SOL    HW168661   1.363  11.689  13.502
55588SOL    HW268662   1.466  11.623  13.591
55589SOL     OW68663  14.203   9.017   2.666
55589SOL    HW168664  14.144   8.945   2.649
55589SOL    HW268665  14.178   9.048   2.753
55590SOL     OW68666   8.087  10.393  10.544
55590SOL    HW168667   8.002  10.357  10.570
55590SOL    HW268668   8.069  10.437  10.460
55591SOL     OW68669   4.622   8.292   6.858
55591SOL    HW168670   4.593   8.356   6.924
55591SOL    HW268671   4.712   8.270   6.883
55592SOL     OW68672   2.679   6.132   1.484
55592SOL    HW168673   2.765   6.093   1.503
55592SOL    HW268674   2.653   6.092   1.401
55593SOL     OW68675   5.724  10.071   9.617
55593SOL    HW168676   5.739   9.978   9.633
55593SOL    HW268677   5.694  10.106   9.701
55594SOL     OW68678   4.984   6.561  12.557
55594SOL    HW168679   5.064   6.516  12.585
55594SOL    HW268680   4.914   6.499  12.574
55595SOL     OW68681   3.703   0.229   2.675
55595SOL    HW168682   3.688   0.135   2.684
55595SOL    HW268683   3.616   0.268   2.684
55596SOL     OW68684   0.948  12.556   1.998
55596SOL    HW168685   0.912  12.570   1.911
55596SOL    HW268686   0.935  12.462   2.014
55597SOL     OW68687   4.077   2.815  11.988
55597SOL    HW168688   3.992   2.848  11.959
55597SOL    HW268689   4.059   2.767  12.069
55598SOL     OW68690   9.876  10.291   0.921
55598SOL    HW168691   9.946  10.237   0.884
55598SOL    HW268692   9.919  10.341   0.991
55599SOL     OW68693   3.121   9.653   5.839
55599SOL    HW168694   3.083   9.735   5.808
55599SOL    HW268695   3.200   9.641   5.785
55600SOL     OW68696  11.038  11.690   5.776
55600SOL    HW168697  11.072  11.764   5.726
55600SOL    HW268698  11.068  11.706   5.865
55601SOL     OW68699   3.933  13.255  10.357
55601SOL    HW168700   3.863  13.190  10.366
55601SOL    HW268701   3.904  13.311  10.284
55602SOL     OW68702   4.391  11.398   8.642
55602SOL    HW168703   4.458  11.453   8.601
55602SOL    HW268704   4.440  11.342   8.702
55603SOL     OW68705   0.803  14.313  10.235
55603SOL    HW168706   0.897  14.306  10.218
55603SOL    HW268707   0.767  14.228  10.209
55604SOL     OW68708  12.982  10.146   6.935
55604SOL    HW168709  12.902  10.098   6.958
55604SOL    HW268710  13.014  10.103   6.856
55605SOL     OW68711   2.443   7.131   2.855
55605SOL    HW168712   2.502   7.165   2.923
55605SOL    HW268713   2.361   7.178   2.871
55606SOL     OW68714   1.858  10.831   3.906
55606SOL    HW168715   1.907  10.760   3.867
55606SOL    HW268716   1.881  10.828   3.999
55607SOL     OW68717   9.361   9.136  14.470
55607SOL    HW168718   9.430   9.153  14.533
55607SOL    HW268719   9.348   9.220  14.425
55608SOL     OW68720  14.848  14.010   1.203
55608SOL    HW168721   0.056  14.060   1.223
55608SOL    HW268722  14.797  14.012   1.284
55609SOL     OW68723  10.096   8.710  10.455
55609SOL    HW168724  10.139   8.780  10.504
55609SOL    HW268725  10.002   8.732  10.460
55610SOL     OW68726   1.336  11.419   9.374
55610SOL    HW168727   1.382  11.375   9.446
55610SOL    HW268728   1.244  11.392   9.385
55611SOL     OW68729   6.694   0.296  13.300
55611SOL    HW168730   6.613   0.255  13.270
55611SOL    HW268731   6.691   0.288  13.395
55612SOL     OW68732  13.309  14.733  11.394
55612SOL    HW168733  13.309  14.658  11.453
55612SOL    HW268734  13.401  14.758  11.388
55613SOL     OW68735   6.562  11.247   9.085
55613SOL    HW168736   6.632  11.220   9.144
55613SOL    HW268737   6.536  11.334   9.115
55614SOL     OW68738  10.778  14.324   1.500
55614SOL    HW168739  10.699  14.370   1.529
55614SOL    HW268740  10.842  14.340   1.568
55615SOL     OW68741  12.360  11.429  11.087
55615SOL    HW168742  12.329  11.519  11.079
55615SOL    HW268743  12.322  11.398  11.169
55616SOL     OW68744   4.109  13.022  14.569
55616SOL    HW168745   4.088  13.075  14.492
55616SOL    HW268746   4.164  12.951  14.535
55617SOL     OW68747  11.012   9.857  12.122
55617SOL    HW168748  11.059   9.798  12.064
55617SOL    HW268749  10.960   9.912  12.064
55618SOL     OW68750   8.059   2.181  10.406
55618SOL    HW168751   8.137   2.169  10.351
55618SOL    HW268752   8.001   2.236  10.352
55619SOL     OW68753   7.505   6.809   4.026
55619SOL    HW168754   7.545   6.892   4.051
55619SOL    HW268755   7.414   6.830   4.007
55620SOL     OW68756   9.383   0.865   3.546
55620SOL    HW168757   9.320   0.795   3.529
55620SOL    HW268758   9.344   0.917   3.616
55621SOL     OW68759   3.550  10.978  10.976
55621SOL    HW168760   3.458  10.953  10.973
55621SOL    HW268761   3.571  10.980  11.069
55622SOL     OW68762   0.323   7.002   4.057
55622SOL    HW168763   0.297   6.923   4.104
55622SOL    HW268764   0.404   6.977   4.012
55623SOL     OW68765  12.791  10.472  11.373
55623SOL    HW168766  12.842  10.531  11.317
55623SOL    HW268767  12.701  10.504  11.366
55624SOL     OW68768   3.185   8.828   8.013
55624SOL    HW168769   3.199   8.908   7.962
55624SOL    HW268770   3.230   8.760   7.962
55625SOL     OW68771  10.855   7.246   6.516
55625SOL    HW168772  10.901   7.325   6.488
55625SOL    HW268773  10.762   7.268   6.503
55626SOL     OW68774   4.451  10.821   9.971
55626SOL    HW168775   4.387  10.751   9.956
55626SOL    HW268776   4.507  10.788  10.041
55627SOL     OW68777  12.778  11.786   5.371
55627SOL    HW168778  12.834  11.743   5.306
55627SOL    HW268779  12.695  11.737   5.366
55628SOL     OW68780  11.925  13.453  13.342
55628SOL    HW168781  11.904  13.469  13.434
55628SOL    HW268782  11.918  13.538  13.300
55629SOL     OW68783   9.531   3.121   1.184
55629SOL    HW168784   9.611   3.156   1.145
55629SOL    HW268785   9.550   3.029   1.199
55630SOL     OW68786   6.010   3.891   6.815
55630SOL    HW168787   6.008   3.943   6.734
55630SOL    HW268788   5.953   3.816   6.795
55631SOL     OW68789  11.894   1.584  12.776
55631SOL    HW168790  11.937   1.517  12.829
55631SOL    HW268791  11.860   1.646  12.841
55632SOL     OW68792  12.029   3.832  13.175
55632SOL    HW168793  12.054   3.829  13.267
55632SOL    HW268794  11.947   3.784  13.170
55633SOL     OW68795   5.375   5.233   2.487
55633SOL    HW168796   5.442   5.274   2.432
55633SOL    HW268797   5.423   5.172   2.542
55634SOL     OW68798   6.331   6.942  10.396
55634SOL    HW168799   6.347   6.897  10.313
55634SOL    HW268800   6.374   7.027  10.386
55635SOL     OW68801  10.106   5.727  10.708
55635SOL    HW168802  10.083   5.694  10.622
55635SOL    HW268803  10.073   5.817  10.710
55636SOL     OW68804  13.285   4.398   2.114
55636SOL    HW168805  13.365   4.366   2.072
55636SOL    HW268806  13.292   4.369   2.205
55637SOL     OW68807   3.797  13.258  12.572
55637SOL    HW168808   3.880  13.302  12.592
55637SOL    HW268809   3.740  13.279  12.645
55638SOL     OW68810  10.583   7.423   0.751
55638SOL    HW168811  10.611   7.500   0.801
55638SOL    HW268812  10.612   7.348   0.804
55639SOL     OW68813  12.569  11.302   5.444
55639SOL    HW168814  12.552  11.395   5.433
55639SOL    HW268815  12.537  11.262   5.364
55640SOL     OW68816   1.976   1.075   0.874
55640SOL    HW168817   1.896   1.051   0.920
55640SOL    HW268818   1.979   1.017   0.798
55641SOL     OW68819   5.353  14.104   0.463
55641SOL    HW168820   5.327  14.193   0.441
55641SOL    HW268821   5.440  14.094   0.425
55642SOL     OW68822   9.028  13.164   5.171
55642SOL    HW168823   9.061  13.164   5.081
55642SOL    HW268824   8.993  13.252   5.183
55643SOL     OW68825  11.001   2.384  12.675
55643SOL    HW168826  11.024   2.408  12.765
55643SOL    HW268827  10.953   2.302  12.683
55644SOL     OW68828  14.281   4.705   9.491
55644SOL    HW168829  14.276   4.610   9.500
55644SOL    HW268830  14.359   4.730   9.539
55645SOL     OW68831  10.771  12.795   9.652
55645SOL    HW168832  10.718  12.752   9.719
55645SOL    HW268833  10.846  12.829   9.700
55646SOL     OW68834   2.300   8.219   7.092
55646SOL    HW168835   2.335   8.132   7.070
55646SOL    HW268836   2.277   8.213   7.184
55647SOL     OW68837   3.353   7.728   9.762
55647SOL    HW168838   3.441   7.693   9.775
55647SOL    HW268839   3.355   7.765   9.674
55648SOL     OW68840   7.241   3.561  11.658
55648SOL    HW168841   7.232   3.557  11.753
55648SOL    HW268842   7.334   3.583  11.644
55649SOL     OW68843  11.424  14.786   7.632
55649SOL    HW168844  11.375  14.819   7.556
55649SOL    HW268845  11.516  14.793   7.607
55650SOL     OW68846   2.725   2.459  12.992
55650SOL    HW168847   2.690   2.452  12.903
55650SOL    HW268848   2.651   2.490  13.044
55651SOL     OW68849  14.048  13.067   5.894
55651SOL    HW168850  13.988  13.066   5.819
55651SOL    HW268851  13.990  13.066   5.971
55652SOL     OW68852  10.801  12.846  11.877
55652SOL    HW168853  10.868  12.778  11.874
55652SOL    HW268854  10.827  12.902  11.950
55653SOL     OW68855   0.373  14.305   9.481
55653SOL    HW168856   0.439  14.237   9.491
55653SOL    HW268857   0.300  14.261   9.438
55654SOL     OW68858   8.314   2.731   6.044
55654SOL    HW168859   8.334   2.675   5.969
55654SOL    HW268860   8.306   2.819   6.006
55655SOL     OW68861  10.169   0.496   8.454
55655SOL    HW168862  10.261   0.518   8.437
55655SOL    HW268863  10.129   0.489   8.368
55656SOL     OW68864   5.230   9.324  10.254
55656SOL    HW168865   5.220   9.325  10.349
55656SOL    HW268866   5.268   9.238  10.235
55657SOL     OW68867  11.801   6.609   7.650
55657SOL    HW168868  11.865   6.585   7.718
55657SOL    HW268869  11.722   6.560   7.673
55658SOL     OW68870   5.623  12.049   3.204
55658SOL    HW168871   5.667  11.978   3.251
55658SOL    HW268872   5.644  12.032   3.112
55659SOL     OW68873   7.462  14.545  13.228
55659SOL    HW168874   7.383  14.584  13.265
55659SOL    HW268875   7.523  14.539  13.301
55660SOL     OW68876   8.676   3.136   4.165
55660SOL    HW168877   8.645   3.186   4.240
55660SOL    HW268878   8.613   3.155   4.096
55661SOL     OW68879   2.305   5.439   4.483
55661SOL    HW168880   2.366   5.384   4.432
55661SOL    HW268881   2.331   5.424   4.574
55662SOL     OW68882   4.902  14.017   8.055
55662SOL    HW168883   4.973  14.056   8.107
55662SOL    HW268884   4.832  14.002   8.119
55663SOL     OW68885   3.737   1.629  13.981
55663SOL    HW168886   3.643   1.630  14.001
55663SOL    HW268887   3.768   1.715  14.009
55664SOL     OW68888   0.908  12.456   6.053
55664SOL    HW168889   0.829  12.505   6.032
55664SOL    HW268890   0.952  12.509   6.120
55665SOL     OW68891  14.691   4.257   8.088
55665SOL    HW168892  14.610   4.265   8.139
55665SOL    HW268893  14.761   4.267   8.152
55666SOL     OW68894   2.480   5.519  14.011
55666SOL    HW168895   2.443   5.435  14.038
55666SOL    HW268896   2.451   5.530  13.921
55667SOL     OW68897   2.778  10.659   4.099
55667SOL    HW168898   2.744  10.644   4.187
55667SOL    HW268899   2.828  10.580   4.079
55668SOL     OW68900   0.000   7.776  14.524
55668SOL    HW168901  14.847   7.724  14.600
55668SOL    HW268902   0.051   7.849  14.561
55669SOL     OW68903   1.474   8.216   4.988
55669SOL    HW168904   1.493   8.129   4.951
55669SOL    HW268905   1.527   8.219   5.068
55670SOL     OW68906  14.382   2.919   9.071
55670SOL    HW168907  14.382   2.862   8.994
55670SOL    HW268908  14.474   2.919   9.100
55671SOL     OW68909   0.628   8.093   1.270
55671SOL    HW168910   0.619   8.006   1.310
55671SOL    HW268911   0.578   8.087   1.189
55672SOL     OW68912   8.179  13.366  10.139
55672SOL    HW168913   8.249  13.327  10.087
55672SOL    HW268914   8.206  13.352  10.230
55673SOL     OW68915  13.745  11.879   8.028
55673SOL    HW168916  13.699  11.825   7.964
55673SOL    HW268917  13.680  11.943   8.057
55674SOL     OW68918  13.991  11.591   7.850
55674SOL    HW168919  14.069  11.537   7.865
55674SOL    HW268920  13.967  11.623   7.937
55675SOL     OW68921  14.688   6.710   4.273
55675SOL    HW168922  14.775   6.749   4.281
55675SOL    HW268923  14.677   6.696   4.179
55676SOL     OW68924   0.430  11.535  13.044
55676SOL    HW168925   0.468  11.564  12.961
55676SOL    HW268926   0.339  11.514  13.023
55677SOL     OW68927   2.281   2.102  11.823
55677SOL    HW168928   2.303   2.161  11.750
55677SOL    HW268929   2.280   2.015  11.783
55678SOL     OW68930   1.822   4.635   8.802
55678SOL    HW168931   1.913   4.648   8.774
55678SOL    HW268932   1.769   4.670   8.730
55679SOL     OW68933   5.780   5.831  12.476
55679SOL    HW168934   5.846   5.851  12.409
55679SOL    HW268935   5.829   5.832  12.558
55680SOL     OW68936   6.157   8.109  14.264
55680SOL    HW168937   6.147   8.174  14.333
55680SOL    HW268938   6.072   8.109  14.219
55681SOL     OW68939   0.461   0.109   6.988
55681SOL    HW168940   0.423   0.193   7.013
55681SOL    HW268941   0.547   0.130   6.953
55682SOL     OW68942   7.927   4.807   5.831
55682SOL    HW168943   7.933   4.870   5.903
55682SOL    HW268944   7.873   4.736   5.866
55683SOL     OW68945   7.657  12.082  14.848
55683SOL    HW168946   7.564  12.100  14.855
55683SOL    HW268947   7.665  12.019  14.776
55684SOL     OW68948   7.628  13.448  14.144
55684SOL    HW168949   7.555  13.387  14.149
55684SOL    HW268950   7.607  13.505  14.071
55685SOL     OW68951  13.107   5.278   0.759
55685SOL    HW168952  13.059   5.342   0.706
55685SOL    HW268953  13.089   5.194   0.717
55686SOL     OW68954  12.132   2.206   9.255
55686SOL    HW168955  12.058   2.252   9.295
55686SOL    HW268956  12.103   2.115   9.250
55687SOL     OW68957   3.590   6.072   3.649
55687SOL    HW168958   3.515   6.064   3.590
55687SOL    HW268959   3.633   6.153   3.621
55688SOL     OW68960   8.337  12.208  13.269
55688SOL    HW168961   8.253  12.242  13.298
55688SOL    HW268962   8.316  12.127  13.223
55689SOL     OW68963  12.575  12.370  10.570
55689SOL    HW168964  12.542  12.319  10.644
55689SOL    HW268965  12.592  12.456  10.607
55690SOL     OW68966   3.034   5.451   1.344
55690SOL    HW168967   2.987   5.471   1.263
55690SOL    HW268968   2.986   5.499   1.412
55691SOL     OW68969  11.569  10.493   7.373
55691SOL    HW168970  11.651  10.447   7.356
55691SOL    HW268971  11.510  10.426   7.409
55692SOL     OW68972  10.637   1.603   5.454
55692SOL    HW168973  10.600   1.619   5.541
55692SOL    HW268974  10.572   1.639   5.394
55693SOL     OW68975   4.386  14.435   8.298
55693SOL    HW168976   4.464  14.473   8.339
55693SOL    HW268977   4.368  14.491   8.222
55694SOL     OW68978  10.018   3.612   4.890
55694SOL    HW168979   9.994   3.644   4.802
55694SOL    HW268980   9.989   3.521   4.891
55695SOL     OW68981   6.092   8.636   3.224
55695SOL    HW168982   6.044   8.701   3.275
55695SOL    HW268983   6.024   8.592   3.173
55696SOL     OW68984   8.376  10.606   1.021
55696SOL    HW168985   8.407  10.654   1.098
55696SOL    HW268986   8.398  10.662   0.947
55697SOL     OW68987   8.189   5.178   8.408
55697SOL    HW168988   8.224   5.226   8.332
55697SOL    HW268989   8.094   5.193   8.404
55698SOL     OW68990   2.618   1.499  13.303
55698SOL    HW168991   2.599   1.405  13.310
55698SOL    HW268992   2.567   1.528  13.228
55699SOL     OW68993   4.227   2.362   0.364
55699SOL    HW168994   4.162   2.361   0.434
55699SOL    HW268995   4.235   2.271   0.337
55700SOL     OW68996   9.426  13.807  11.850
55700SOL    HW168997   9.364  13.822  11.778
55700SOL    HW268998   9.380  13.745  11.907
55701SOL     OW68999   6.519  11.480   9.858
55701SOL    HW169000   6.563  11.411   9.908
55701SOL    HW269001   6.588  11.543   9.839
55702SOL     OW69002   5.432   9.796   8.382
55702SOL    HW169003   5.466   9.772   8.469
55702SOL    HW269004   5.475   9.879   8.362
55703SOL     OW69005   2.648   6.648   9.797
55703SOL    HW169006   2.687   6.649   9.710
55703SOL    HW269007   2.572   6.706   9.790
55704SOL     OW69008   1.206   1.912   5.543
55704SOL    HW169009   1.169   1.937   5.628
55704SOL    HW269010   1.214   1.816   5.549
55705SOL     OW69011  12.682  13.177   8.335
55705SOL    HW169012  12.669  13.134   8.420
55705SOL    HW269013  12.768  13.145   8.306
55706SOL     OW69014  11.028   7.440   6.432
55706SOL    HW169015  10.970   7.507   6.469
55706SOL    HW269016  11.111   7.485   6.417
55707SOL     OW69017  14.105  10.432  10.979
55707SOL    HW169018  14.075  10.521  10.962
55707SOL    HW269019  14.031  10.389  11.021
55708SOL     OW69020   1.168   0.164   0.117
55708SOL    HW169021   1.085   0.187   0.157
55708SOL    HW269022   1.152   0.168   0.023
55709SOL     OW69023  12.799   2.007  11.307
55709SOL    HW169024  12.855   2.070  11.352
55709SOL    HW269025  12.747   2.061  11.248
55710SOL     OW69026   1.979   5.751   2.298
55710SOL    HW169027   2.017   5.783   2.216
55710SOL    HW269028   2.053   5.744   2.358
55711SOL     OW69029   9.118   9.245  12.624
55711SOL    HW169030   9.029   9.277  12.633
55711SOL    HW269031   9.137   9.203  12.708
55712SOL     OW69032   2.698  10.544   4.794
55712SOL    HW169033   2.631  10.595   4.838
55712SOL    HW269034   2.721  10.475   4.855
55713SOL     OW69035   1.151   2.549   5.893
55713SOL    HW169036   1.060   2.566   5.917
55713SOL    HW269037   1.199   2.624   5.928
55714SOL     OW69038   7.552  13.575  12.847
55714SOL    HW169039   7.487  13.614  12.904
55714SOL    HW269040   7.553  13.630  12.769
55715SOL     OW69041  14.152   7.190  10.611
55715SOL    HW169042  14.154   7.095  10.599
55715SOL    HW269043  14.092   7.203  10.685
55716SOL     OW69044   8.167   7.513   5.167
55716SOL    HW169045   8.074   7.516   5.145
55716SOL    HW269046   8.205   7.590   5.124
55717SOL     OW69047   0.098   7.485   0.196
55717SOL    HW169048   0.015   7.495   0.241
55717SOL    HW269049   0.127   7.396   0.218
55718SOL     OW69050   3.912  14.611   5.459
55718SOL    HW169051   3.842  14.576   5.514
55718SOL    HW269052   3.946  14.536   5.412
55719SOL     OW69053  10.500   0.043  14.074
55719SOL    HW169054  10.433  14.850  14.055
55719SOL    HW269055  10.523   0.080  13.989
55720SOL     OW69056   3.104  11.030  14.863
55720SOL    HW169057   3.074  11.120  14.850
55720SOL    HW269058   3.112  11.021   0.087
55721SOL     OW69059  13.278   4.116  10.589
55721SOL    HW169060  13.213   4.159  10.645
55721SOL    HW269061  13.323   4.054  10.646
55722SOL     OW69062  13.839   3.358   2.892
55722SOL    HW169063  13.767   3.408   2.930
55722SOL    HW269064  13.894   3.424   2.850
55723SOL     OW69065   6.951   2.523  11.353
55723SOL    HW169066   6.987   2.578  11.284
55723SOL    HW269067   6.960   2.575  11.433
55724SOL     OW69068  12.182   3.338  12.188
55724SOL    HW169069  12.269   3.370  12.215
55724SOL    HW269070  12.189   3.327  12.093
55725SOL     OW69071  11.400   2.390   3.292
55725SOL    HW169072  11.311   2.420   3.275
55725SOL    HW269073  11.454   2.440   3.231
55726SOL     OW69074  12.076   4.337   0.409
55726SOL    HW169075  12.048   4.312   0.497
55726SOL    HW269076  12.022   4.284   0.351
55727SOL     OW69077   5.352   7.718  13.674
55727SOL    HW169078   5.342   7.627  13.702
55727SOL    HW269079   5.446   7.729  13.661
55728SOL     OW69080   6.381  11.983   2.168
55728SOL    HW169081   6.338  12.011   2.249
55728SOL    HW269082   6.317  11.927   2.125
55729SOL     OW69083   9.326   6.399  14.172
55729SOL    HW169084   9.262   6.371  14.107
55729SOL    HW269085   9.410   6.367  14.138
55730SOL     OW69086   2.507   9.788  11.665
55730SOL    HW169087   2.528   9.881  11.659
55730SOL    HW269088   2.418   9.786  11.700
55731SOL     OW69089   0.489   0.275  12.941
55731SOL    HW169090   0.523   0.356  12.903
55731SOL    HW269091   0.498   0.210  12.872
55732SOL     OW69092  12.808  12.635   0.304
55732SOL    HW169093  12.728  12.595   0.273
55732SOL    HW269094  12.842  12.575   0.371
55733SOL     OW69095   9.331   7.138  12.466
55733SOL    HW169096   9.415   7.095  12.453
55733SOL    HW269097   9.346   7.229  12.442
55734SOL     OW69098   2.712  10.468   2.654
55734SOL    HW169099   2.785  10.493   2.710
55734SOL    HW269100   2.752  10.455   2.568
55735SOL     OW69101   5.226   9.974   7.609
55735SOL    HW169102   5.160  10.042   7.594
55735SOL    HW269103   5.308  10.014   7.580
55736SOL     OW69104  13.093  14.304   3.544
55736SOL    HW169105  13.102  14.337   3.633
55736SOL    HW269106  13.166  14.343   3.497
55737SOL     OW69107  11.767   4.069   7.942
55737SOL    HW169108  11.698   4.071   7.875
55737SOL    HW269109  11.805   4.157   7.940
55738SOL     OW69110  14.207  12.605  11.260
55738SOL    HW169111  14.112  12.615  11.251
55738SOL    HW269112  14.244  12.679  11.212
55739SOL     OW69113   5.359   2.347   7.541
55739SOL    HW169114   5.302   2.423   7.552
55739SOL    HW269115   5.416   2.370   7.468
55740SOL     OW69116  10.663  10.536  12.548
55740SOL    HW169117  10.591  10.527  12.610
55740SOL    HW269118  10.664  10.453  12.500
55741SOL     OW69119  10.498   7.780   7.418
55741SOL    HW169120  10.579   7.765   7.369
55741SOL    HW269121  10.433   7.800   7.351
55742SOL     OW69122   8.850   3.441   4.991
55742SOL    HW169123   8.848   3.406   4.902
55742SOL    HW269124   8.940   3.428   5.020
55743SOL     OW69125   3.914  14.551  11.696
55743SOL    HW169126   3.845  14.503  11.651
55743SOL    HW269127   3.868  14.618  11.747
55744SOL     OW69128   4.692   7.734  13.159
55744SOL    HW169129   4.721   7.825  13.150
55744SOL    HW269130   4.740   7.688  13.090
55745SOL     OW69131   1.610   3.077   2.395
55745SOL    HW169132   1.536   3.019   2.414
55745SOL    HW269133   1.570   3.162   2.376
55746SOL     OW69134  14.259   0.388   1.007
55746SOL    HW169135  14.223   0.331   0.939
55746SOL    HW269136  14.220   0.355   1.089
55747SOL     OW69137   8.479   2.634   7.430
55747SOL    HW169138   8.480   2.703   7.363
55747SOL    HW269139   8.387   2.606   7.433
55748SOL     OW69140   3.737   8.501   8.098
55748SOL    HW169141   3.774   8.586   8.077
55748SOL    HW269142   3.672   8.485   8.030
55749SOL     OW69143   2.162   1.921  12.196
55749SOL    HW169144   2.151   2.016  12.187
55749SOL    HW269145   2.098   1.884  12.135
55750SOL     OW69146   1.384   2.425  11.043
55750SOL    HW169147   1.386   2.427  10.947
55750SOL    HW269148   1.367   2.516  11.068
55751SOL     OW69149   4.013   3.627   3.199
55751SOL    HW169150   4.089   3.681   3.218
55751SOL    HW269151   4.045   3.537   3.204
55752SOL     OW69152  12.370  12.338  14.767
55752SOL    HW169153  12.341  12.247  14.759
55752SOL    HW269154  12.349  12.362  14.857
55753SOL     OW69155  12.494   3.970   1.394
55753SOL    HW169156  12.505   4.048   1.341
55753SOL    HW269157  12.419   3.989   1.450
55754SOL     OW69158   5.909   3.436  13.066
55754SOL    HW169159   5.987   3.490  13.049
55754SOL    HW269160   5.877   3.466  13.151
55755SOL     OW69161   2.529  12.781  14.137
55755SOL    HW169162   2.470  12.706  14.130
55755SOL    HW269163   2.587  12.773  14.062
55756SOL     OW69164  14.286   4.296  12.621
55756SOL    HW169165  14.363   4.312  12.567
55756SOL    HW269166  14.216   4.347  12.580
55757SOL     OW69167   4.374   0.921  13.946
55757SOL    HW169168   4.294   0.877  13.976
55757SOL    HW269169   4.445   0.863  13.971
55758SOL     OW69170  14.372   8.304   2.555
55758SOL    HW169171  14.366   8.293   2.650
55758SOL    HW269172  14.341   8.394   2.540
55759SOL     OW69173   2.453   0.863   6.647
55759SOL    HW169174   2.452   0.921   6.723
55759SOL    HW269175   2.400   0.909   6.581
55760SOL     OW69176  13.991   2.947  10.821
55760SOL    HW169177  13.904   2.988  10.821
55760SOL    HW269178  14.038   2.991  10.892
55761SOL     OW69179  10.121   7.609   5.198
55761SOL    HW169180  10.172   7.644   5.124
55761SOL    HW269181  10.048   7.669   5.207
55762SOL     OW69182  13.829   9.805  11.979
55762SOL    HW169183  13.795   9.829  11.893
55762SOL    HW269184  13.750   9.786  12.031
55763SOL     OW69185   0.825   5.928   9.108
55763SOL    HW169186   0.730   5.918   9.097
55763SOL    HW269187   0.850   5.853   9.162
55764SOL     OW69188   1.989   5.136   2.945
55764SOL    HW169189   1.956   5.134   2.855
55764SOL    HW269190   1.999   5.044   2.969
55765SOL     OW69191   7.623  11.189  13.700
55765SOL    HW169192   7.656  11.271  13.738
55765SOL    HW269193   7.545  11.215  13.651
55766SOL     OW69194  10.731   3.159   3.622
55766SOL    HW169195  10.728   3.153   3.718
55766SOL    HW269196  10.692   3.078   3.592
55767SOL     OW69197   2.055   5.250   0.190
55767SOL    HW169198   2.096   5.170   0.224
55767SOL    HW269199   2.092   5.260   0.103
55768SOL     OW69200   3.450   5.756   0.532
55768SOL    HW169201   3.393   5.833   0.531
55768SOL    HW269202   3.399   5.688   0.488
55769SOL     OW69203   2.025   7.275   9.043
55769SOL    HW169204   1.994   7.285   9.133
55769SOL    HW269205   2.011   7.361   9.004
55770SOL     OW69206  14.040  11.412   5.533
55770SOL    HW169207  14.132  11.388   5.525
55770SOL    HW269208  13.992  11.331   5.514
55771SOL     OW69209   7.299   1.828   1.370
55771SOL    HW169210   7.317   1.837   1.464
55771SOL    HW269211   7.367   1.881   1.328
55772SOL     OW69212  13.959  10.659  10.896
55772SOL    HW169213  13.884  10.654  10.836
55772SOL    HW269214  14.009  10.735  10.866
55773SOL     OW69215   9.351   1.856   0.555
55773SOL    HW169216   9.268   1.881   0.513
55773SOL    HW269217   9.329   1.777   0.605
55774SOL     OW69218   5.694   1.933   5.227
55774SOL    HW169219   5.708   1.893   5.141
55774SOL    HW269220   5.607   1.903   5.253
55775SOL     OW69221   3.892   7.392   1.125
55775SOL    HW169222   3.844   7.328   1.178
55775SOL    HW269223   3.858   7.476   1.154
55776SOL     OW69224  13.038   3.002   3.640
55776SOL    HW169225  12.947   2.984   3.664
55776SOL    HW269226  13.038   3.003   3.544
55777SOL     OW69227   7.320   9.594   5.165
55777SOL    HW169228   7.402   9.550   5.144
55777SOL    HW269229   7.253   9.541   5.120
55778SOL     OW69230  12.422   1.005   3.460
55778SOL    HW169231  12.474   0.981   3.384
55778SOL    HW269232  12.353   1.062   3.425
55779SOL     OW69233  11.173  13.457   7.594
55779SOL    HW169234  11.237  13.386   7.582
55779SOL    HW269235  11.098  13.414   7.633
55780SOL     OW69236   2.931   1.866   9.485
55780SOL    HW169237   2.848   1.847   9.442
55780SOL    HW269238   2.992   1.883   9.413
55781SOL     OW69239  11.992   7.894   7.677
55781SOL    HW169240  11.924   7.870   7.614
55781SOL    HW269241  12.049   7.817   7.680
55782SOL     OW69242   6.208  13.021   9.589
55782SOL    HW169243   6.113  13.021   9.602
55782SOL    HW269244   6.221  12.972   9.508
55783SOL     OW69245   7.986   5.642   3.181
55783SOL    HW169246   7.990   5.652   3.086
55783SOL    HW269247   7.951   5.725   3.213
55784SOL     OW69248   2.246   9.184   7.559
55784SOL    HW169249   2.217   9.274   7.544
55784SOL    HW269250   2.315   9.170   7.495
55785SOL     OW69251   4.853   0.746  10.892
55785SOL    HW169252   4.921   0.810  10.914
55785SOL    HW269253   4.898   0.682  10.838
55786SOL     OW69254   5.312   3.942   2.398
55786SOL    HW169255   5.325   3.885   2.322
55786SOL    HW269256   5.303   4.030   2.360
55787SOL     OW69257   6.229   4.827   8.631
55787SOL    HW169258   6.249   4.777   8.552
55787SOL    HW269259   6.300   4.807   8.691
55788SOL     OW69260   4.150   8.348   3.720
55788SOL    HW169261   4.104   8.284   3.774
55788SOL    HW269262   4.111   8.339   3.633
55789SOL     OW69263   5.509   0.508   3.361
55789SOL    HW169264   5.540   0.572   3.297
55789SOL    HW269265   5.511   0.424   3.314
55790SOL     OW69266   6.086   1.349   4.281
55790SOL    HW169267   6.058   1.265   4.245
55790SOL    HW269268   6.181   1.339   4.293
55791SOL     OW69269   5.736   8.825   8.633
55791SOL    HW169270   5.826   8.824   8.601
55791SOL    HW269271   5.733   8.756   8.699
55792SOL     OW69272   5.910   3.746   9.094
55792SOL    HW169273   5.956   3.820   9.055
55792SOL    HW269274   5.916   3.762   9.188
55793SOL     OW69275   0.124   7.044   8.067
55793SOL    HW169276   0.093   6.960   8.033
55793SOL    HW269277   0.163   7.088   7.991
55794SOL     OW69278   8.894   6.581   0.542
55794SOL    HW169279   8.928   6.527   0.613
55794SOL    HW269280   8.818   6.624   0.580
55795SOL     OW69281   7.614   6.948  12.759
55795SOL    HW169282   7.532   6.899  12.764
55795SOL    HW269283   7.641   6.939  12.667
55796SOL     OW69284   0.209   1.160   9.746
55796SOL    HW169285   0.199   1.165   9.651
55796SOL    HW269286   0.219   1.251   9.773
55797SOL     OW69287   1.254  12.580   5.837
55797SOL    HW169288   1.337  12.533   5.840
55797SOL    HW269289   1.196  12.531   5.895
55798SOL     OW69290  14.306  11.802  11.070
55798SOL    HW169291  14.295  11.763  10.983
55798SOL    HW269292  14.386  11.854  11.063
55799SOL     OW69293  13.005   4.755   2.397
55799SOL    HW169294  12.933   4.802   2.356
55799SOL    HW269295  13.048   4.708   2.325
55800SOL     OW69296   4.085   4.951   6.918
55800SOL    HW169297   4.068   4.945   6.824
55800SOL    HW269298   4.124   5.038   6.929
55801SOL     OW69299  13.099  10.865  11.746
55801SOL    HW169300  13.004  10.858  11.742
55801SOL    HW269301  13.125  10.889  11.657
55802SOL     OW69302   4.131   6.872  14.140
55802SOL    HW169303   4.108   6.853  14.049
55802SOL    HW269304   4.082   6.808  14.191
55803SOL     OW69305  11.366  12.718   3.832
55803SOL    HW169306  11.453  12.755   3.846
55803SOL    HW269307  11.358  12.648   3.897
55804SOL     OW69308   7.175  10.664   6.892
55804SOL    HW169309   7.237  10.713   6.839
55804SOL    HW269310   7.197  10.687   6.983
55805SOL     OW69311   9.425   8.078  13.986
55805SOL    HW169312   9.417   8.033  13.902
55805SOL    HW269313   9.336   8.079  14.021
55806SOL     OW69314  10.598  11.503   8.197
55806SOL    HW169315  10.593  11.412   8.225
55806SOL    HW269316  10.572  11.554   8.273
55807SOL     OW69317  10.299   2.391   1.578
55807SOL    HW169318  10.217   2.371   1.534
55807SOL    HW269319  10.280   2.467   1.633
55808SOL     OW69320   1.627   9.517   0.059
55808SOL    HW169321   1.547   9.538   0.012
55808SOL    HW269322   1.685   9.591   0.042
55809SOL     OW69323   4.581   2.955   2.100
55809SOL    HW169324   4.593   3.046   2.073
55809SOL    HW269325   4.492   2.952   2.136
55810SOL     OW69326   4.975   8.190   7.448
55810SOL    HW169327   5.068   8.170   7.448
55810SOL    HW269328   4.954   8.206   7.541
55811SOL     OW69329   6.396   1.981   0.318
55811SOL    HW169330   6.393   1.939   0.404
55811SOL    HW269331   6.372   2.072   0.335
55812SOL     OW69332   4.031   0.636  14.852
55812SOL    HW169333   4.115   0.596  14.831
55812SOL    HW269334   4.051   0.729  14.864
55813SOL     OW69335  11.440  14.204   5.156
55813SOL    HW169336  11.533  14.223   5.160
55813SOL    HW269337  11.422  14.190   5.063
55814SOL     OW69338   0.177   6.172   1.950
55814SOL    HW169339   0.144   6.191   2.038
55814SOL    HW269340   0.196   6.078   1.952
55815SOL     OW69341   3.760  11.284   1.556
55815SOL    HW169342   3.773  11.348   1.626
55815SOL    HW269343   3.689  11.321   1.504
55816SOL     OW69344   2.224  10.395   8.099
55816SOL    HW169345   2.185  10.329   8.042
55816SOL    HW269346   2.249  10.466   8.040
55817SOL     OW69347  13.059  11.551   6.200
55817SOL    HW169348  13.123  11.555   6.272
55817SOL    HW269349  13.033  11.642   6.186
55818SOL     OW69350  10.670  14.255   4.487
55818SOL    HW169351  10.680  14.300   4.402
55818SOL    HW269352  10.587  14.207   4.479
55819SOL     OW69353  11.037  11.530   0.867
55819SOL    HW169354  11.039  11.502   0.775
55819SOL    HW269355  10.944  11.544   0.886
55820SOL     OW69356  11.158   5.496   7.769
55820SOL    HW169357  11.212   5.568   7.802
55820SOL    HW269358  11.073   5.537   7.750
55821SOL     OW69359   9.028   9.389   3.023
55821SOL    HW169360   8.962   9.346   2.969
55821SOL    HW269361   9.106   9.392   2.968
55822SOL     OW69362   2.894   4.581  12.699
55822SOL    HW169363   2.913   4.663  12.746
55822SOL    HW269364   2.978   4.556  12.660
55823SOL     OW69365  10.443   0.820  11.900
55823SOL    HW169366  10.400   0.778  11.826
55823SOL    HW269367  10.378   0.880  11.936
55824SOL     OW69368  14.827   6.505   7.867
55824SOL    HW169369  14.750   6.447   7.871
55824SOL    HW269370  14.810   6.562   7.792
55825SOL     OW69371  10.376   2.342  11.874
55825SOL    HW169372  10.307   2.404  11.896
55825SOL    HW269373  10.334   2.256  11.874
55826SOL     OW69374   8.855  13.008  12.161
55826SOL    HW169375   8.924  12.978  12.220
55826SOL    HW269376   8.837  13.098  12.189
55827SOL     OW69377   2.071   7.506   9.257
55827SOL    HW169378   2.000   7.562   9.227
55827SOL    HW269379   2.136   7.510   9.186
55828SOL     OW69380   7.419  12.749   3.470
55828SOL    HW169381   7.360  12.821   3.446
55828SOL    HW269382   7.418  12.749   3.566
55829SOL     OW69383  10.507   8.111   7.756
55829SOL    HW169384  10.590   8.066   7.741
55829SOL    HW269385  10.518   8.156   7.840
55830SOL     OW69386   0.324   5.481  13.392
55830SOL    HW169387   0.323   5.386  13.396
55830SOL    HW269388   0.319   5.509  13.484
55831SOL     OW69389   0.471  14.041  13.146
55831SOL    HW169390   0.483  13.960  13.097
55831SOL    HW269391   0.411  14.017  13.217
55832SOL     OW69392   8.829  12.476  11.806
55832SOL    HW169393   8.781  12.432  11.877
55832SOL    HW269394   8.772  12.469  11.730
55833SOL     OW69395   5.094   0.877   8.539
55833SOL    HW169396   5.123   0.797   8.583
55833SOL    HW269397   5.054   0.846   8.458
55834SOL     OW69398   8.081  14.242  12.611
55834SOL    HW169399   8.027  14.277  12.682
55834SOL    HW269400   8.109  14.156  12.642
55835SOL     OW69401   4.683  14.624   3.333
55835SOL    HW169402   4.667  14.713   3.300
55835SOL    HW269403   4.605  14.603   3.386
55836SOL     OW69404   1.005   9.177  10.857
55836SOL    HW169405   1.098   9.167  10.836
55836SOL    HW269406   0.996   9.138  10.944
55837SOL     OW69407   0.788  12.227  10.446
55837SOL    HW169408   0.761  12.138  10.424
55837SOL    HW269409   0.721  12.258  10.507
55838SOL     OW69410   6.669   3.000  11.793
55838SOL    HW169411   6.662   2.996  11.889
55838SOL    HW269412   6.722   3.078  11.776
55839SOL     OW69413   0.928   7.457  10.564
55839SOL    HW169414   0.920   7.384  10.626
55839SOL    HW269415   0.886   7.426  10.484
55840SOL     OW69416   5.074   3.539  12.919
55840SOL    HW169417   5.100   3.522  13.010
55840SOL    HW269418   5.094   3.632  12.906
55841SOL     OW69419  10.419   9.577  13.755
55841SOL    HW169420  10.331   9.593  13.789
55841SOL    HW269421  10.477   9.628  13.812
55842SOL     OW69422  11.379  10.284   5.596
55842SOL    HW169423  11.301  10.327   5.631
55842SOL    HW269424  11.417  10.240   5.672
55843SOL     OW69425  13.991   5.409  12.399
55843SOL    HW169426  13.904   5.377  12.421
55843SOL    HW269427  14.022   5.349  12.331
55844SOL     OW69428   6.430  13.335  10.465
55844SOL    HW169429   6.401  13.249  10.497
55844SOL    HW269430   6.522  13.321  10.442
55845SOL     OW69431   7.118   8.403   7.229
55845SOL    HW169432   7.036   8.449   7.246
55845SOL    HW269433   7.166   8.459   7.169
55846SOL     OW69434  13.088   8.471   1.309
55846SOL    HW169435  13.109   8.446   1.399
55846SOL    HW269436  13.151   8.539   1.288
55847SOL     OW69437   7.082  13.155  11.233
55847SOL    HW169438   7.088  13.198  11.147
55847SOL    HW269439   7.157  13.096  11.235
55848SOL     OW69440   6.903   3.445   2.688
55848SOL    HW169441   6.907   3.396   2.606
55848SOL    HW269442   6.949   3.526   2.669
55849SOL     OW69443   5.366   2.941   4.815
55849SOL    HW169444   5.406   2.877   4.757
55849SOL    HW269445   5.428   3.014   4.816
55850SOL     OW69446   1.626   8.482  13.822
55850SOL    HW169447   1.694   8.421  13.792
55850SOL    HW269448   1.615   8.461  13.914
55851SOL     OW69449   6.382   9.825  11.853
55851SOL    HW169450   6.399   9.755  11.790
55851SOL    HW269451   6.460   9.881  11.849
55852SOL     OW69452   9.555  13.570   2.905
55852SOL    HW169453   9.470  13.570   2.860
55852SOL    HW269454   9.567  13.479   2.932
55853SOL     OW69455  14.098   4.414   7.957
55853SOL    HW169456  14.098   4.490   7.899
55853SOL    HW269457  14.085   4.339   7.898
55854SOL     OW69458  12.669   9.979  11.274
55854SOL    HW169459  12.644   9.904  11.220
55854SOL    HW269460  12.738  10.022  11.225
55855SOL     OW69461   0.780   4.939  14.311
55855SOL    HW169462   0.862   4.938  14.360
55855SOL    HW269463   0.714   4.911  14.374
55856SOL     OW69464   6.870   2.348  12.923
55856SOL    HW169465   6.962   2.370  12.908
55856SOL    HW269466   6.835   2.331  12.836
55857SOL     OW69467   5.741   5.474  13.198
55857SOL    HW169468   5.755   5.559  13.240
55857SOL    HW269469   5.825   5.453  13.157
55858SOL     OW69470   0.542   9.244   2.593
55858SOL    HW169471   0.623   9.203   2.625
55858SOL    HW269472   0.563   9.271   2.504
55859SOL     OW69473   5.685  12.810  14.205
55859SOL    HW169474   5.767  12.850  14.174
55859SOL    HW269475   5.654  12.759  14.130
55860SOL     OW69476   5.414   7.328   7.340
55860SOL    HW169477   5.419   7.239   7.304
55860SOL    HW269478   5.327   7.333   7.380
55861SOL     OW69479   4.650   2.532   0.407
55861SOL    HW169480   4.560   2.561   0.393
55861SOL    HW269481   4.676   2.572   0.490
55862SOL     OW69482  10.730   8.467   4.064
55862SOL    HW169483  10.757   8.558   4.051
55862SOL    HW269484  10.716   8.434   3.975
55863SOL     OW69485  13.944   9.720   7.094
55863SOL    HW169486  13.930   9.808   7.130
55863SOL    HW269487  14.014   9.731   7.030
55864SOL     OW69488  11.847  13.232  10.888
55864SOL    HW169489  11.767  13.242  10.837
55864SOL    HW269490  11.828  13.274  10.972
55865SOL     OW69491  12.003   8.984   9.800
55865SOL    HW169492  12.097   9.001   9.800
55865SOL    HW269493  11.995   8.890   9.817
55866SOL     OW69494   3.478  14.286   0.166
55866SOL    HW169495   3.394  14.309   0.126
55866SOL    HW269496   3.515  14.220   0.107
55867SOL     OW69497   9.558   9.344   6.521
55867SOL    HW169498   9.508   9.339   6.440
55867SOL    HW269499   9.538   9.431   6.556
55868SOL     OW69500  10.968  12.886   0.044
55868SOL    HW169501  10.927  12.870   0.129
55868SOL    HW269502  10.932  12.818  14.859
55869SOL     OW69503  14.401   3.267   7.257
55869SOL    HW169504  14.483   3.282   7.305
55869SOL    HW269505  14.339   3.330   7.295
55870SOL     OW69506   0.560   2.999   3.088
55870SOL    HW169507   0.557   2.907   3.117
55870SOL    HW269508   0.591   2.994   2.997
55871SOL     OW69509  13.762   7.139   0.132
55871SOL    HW169510  13.855   7.163   0.131
55871SOL    HW269511  13.745   7.106   0.044
55872SOL     OW69512   9.210   7.998   3.021
55872SOL    HW169513   9.277   7.954   2.969
55872SOL    HW269514   9.145   7.930   3.040
55873SOL     OW69515   6.496   3.136  14.696
55873SOL    HW169516   6.532   3.059  14.738
55873SOL    HW269517   6.401   3.123  14.700
55874SOL     OW69518  14.002  11.187   0.616
55874SOL    HW169519  13.999  11.100   0.656
55874SOL    HW269520  13.925  11.233   0.651
55875SOL     OW69521   9.410   7.687   3.030
55875SOL    HW169522   9.423   7.738   2.950
55875SOL    HW269523   9.481   7.623   3.029
55876SOL     OW69524   4.143  10.370  12.187
55876SOL    HW169525   4.105  10.352  12.101
55876SOL    HW269526   4.231  10.332  12.184
55877SOL     OW69527   7.458   9.362   0.503
55877SOL    HW169528   7.375   9.405   0.522
55877SOL    HW269529   7.467   9.295   0.570
55878SOL     OW69530   7.284   0.379  14.172
55878SOL    HW169531   7.333   0.394  14.253
55878SOL    HW269532   7.192   0.391  14.198
55879SOL     OW69533   9.475   9.877   4.254
55879SOL    HW169534   9.513   9.820   4.322
55879SOL    HW269535   9.547   9.935   4.229
55880SOL     OW69536   8.971  11.526  11.628
55880SOL    HW169537   8.983  11.611  11.586
55880SOL    HW269538   8.929  11.546  11.711
55881SOL     OW69539  11.631   1.338  10.228
55881SOL    HW169540  11.705   1.392  10.200
55881SOL    HW269541  11.582   1.321  10.147
55882SOL     OW69542   0.019   7.711   4.096
55882SOL    HW169543   0.067   7.635   4.127
55882SOL    HW269544  14.807   7.677   4.064
55883SOL     OW69545   6.522   9.320   4.642
55883SOL    HW169546   6.439   9.279   4.615
55883SOL    HW269547   6.511   9.413   4.622
55884SOL     OW69548   6.390  13.481   2.925
55884SOL    HW169549   6.445  13.437   2.860
55884SOL    HW269550   6.322  13.417   2.946
55885SOL     OW69551  13.386   2.625   8.818
55885SOL    HW169552  13.470   2.634   8.773
55885SOL    HW269553  13.397   2.674   8.899
55886SOL     OW69554  13.603  14.650   2.047
55886SOL    HW169555  13.651  14.673   2.126
55886SOL    HW269556  13.670  14.641   1.979
55887SOL     OW69557   3.294   5.109   4.463
55887SOL    HW169558   3.373   5.072   4.502
55887SOL    HW269559   3.222   5.067   4.509
55888SOL     OW69560   3.059  11.074   7.091
55888SOL    HW169561   2.980  11.025   7.116
55888SOL    HW269562   3.128  11.037   7.146
55889SOL     OW69563  11.418   4.089   5.069
55889SOL    HW169564  11.391   4.025   5.003
55889SOL    HW269565  11.421   4.172   5.023
55890SOL     OW69566  11.457   1.135   7.473
55890SOL    HW169567  11.412   1.096   7.548
55890SOL    HW269568  11.404   1.110   7.398
55891SOL     OW69569   8.122  14.473   3.650
55891SOL    HW169570   8.163  14.534   3.711
55891SOL    HW269571   8.040  14.449   3.692
55892SOL     OW69572   2.042  10.702   1.833
55892SOL    HW169573   1.990  10.624   1.855
55892SOL    HW269574   2.111  10.669   1.775
55893SOL     OW69575  11.088   8.200   2.642
55893SOL    HW169576  11.096   8.295   2.638
55893SOL    HW269577  11.045   8.183   2.726
55894SOL     OW69578   4.234  14.199  11.345
55894SOL    HW169579   4.320  14.171  11.317
55894SOL    HW269580   4.250  14.281  11.393
55895SOL     OW69581   4.105  13.007  12.702
55895SOL    HW169582   4.160  13.070  12.655
55895SOL    HW269583   4.090  12.937  12.638
55896SOL     OW69584   8.775  13.560   4.348
55896SOL    HW169585   8.835  13.583   4.419
55896SOL    HW269586   8.750  13.643   4.310
55897SOL     OW69587   9.815   8.927   4.344
55897SOL    HW169588   9.793   8.835   4.359
55897SOL    HW269589   9.797   8.970   4.428
55898SOL     OW69590   9.164   7.790   7.721
55898SOL    HW169591   9.245   7.788   7.772
55898SOL    HW269592   9.138   7.882   7.720
55899SOL     OW69593  10.466  10.405   5.449
55899SOL    HW169594  10.381  10.417   5.490
55899SOL    HW269595  10.448  10.348   5.374
55900SOL     OW69596  13.977   1.388   6.955
55900SOL    HW169597  13.962   1.338   6.875
55900SOL    HW269598  13.979   1.479   6.927
55901SOL     OW69599   1.483   7.472  13.044
55901SOL    HW169600   1.437   7.397  13.006
55901SOL    HW269601   1.503   7.444  13.133
55902SOL     OW69602   1.193   0.444   7.708
55902SOL    HW169603   1.196   0.522   7.763
55902SOL    HW269604   1.167   0.476   7.621
55903SOL     OW69605  14.646   1.067  12.942
55903SOL    HW169606  14.681   1.011  13.011
55903SOL    HW269607  14.724   1.108  12.902
55904SOL     OW69608   4.319   4.993   4.204
55904SOL    HW169609   4.233   5.026   4.228
55904SOL    HW269610   4.302   4.917   4.149
55905SOL     OW69611   9.089   1.234   9.336
55905SOL    HW169612   9.166   1.266   9.288
55905SOL    HW269613   9.015   1.271   9.289
55906SOL     OW69614  11.592   5.682   4.162
55906SOL    HW169615  11.600   5.642   4.249
55906SOL    HW269616  11.623   5.772   4.174
55907SOL     OW69617   5.444  14.000   5.884
55907SOL    HW169618   5.511  13.995   5.952
55907SOL    HW269619   5.423  13.909   5.864
55908SOL     OW69620   2.950   2.113  12.842
55908SOL    HW169621   2.948   2.122  12.746
55908SOL    HW269622   2.861   2.137  12.869
55909SOL     OW69623   4.935   1.908   0.892
55909SOL    HW169624   4.909   1.824   0.931
55909SOL    HW269625   4.887   1.912   0.809
55910SOL     OW69626  13.899  11.932   4.221
55910SOL    HW169627  13.858  11.849   4.244
55910SOL    HW269628  13.873  11.992   4.292
55911SOL     OW69629   3.405  13.357  13.072
55911SOL    HW169630   3.440  13.375  13.159
55911SOL    HW269631   3.409  13.262  13.064
55912SOL     OW69632   3.483   8.401   8.394
55912SOL    HW169633   3.456   8.469   8.332
55912SOL    HW269634   3.405   8.346   8.404
55913SOL     OW69635  13.379  11.942  11.273
55913SOL    HW169636  13.306  11.911  11.325
55913SOL    HW269637  13.360  12.034  11.257
55914SOL     OW69638   9.920   6.445   9.668
55914SOL    HW169639   9.957   6.459   9.580
55914SOL    HW269640   9.827   6.465   9.657
55915SOL     OW69641   7.481   8.522  11.827
55915SOL    HW169642   7.483   8.550  11.919
55915SOL    HW269643   7.573   8.516  11.802
55916SOL     OW69644   7.432   4.324   3.760
55916SOL    HW169645   7.448   4.230   3.751
55916SOL    HW269646   7.504   4.355   3.815
55917SOL     OW69647   0.585  13.281   8.450
55917SOL    HW169648   0.513  13.323   8.404
55917SOL    HW269649   0.612  13.210   8.392
55918SOL     OW69650  10.911   6.778  14.418
55918SOL    HW169651  10.999   6.783  14.381
55918SOL    HW269652  10.853   6.795  14.344
55919SOL     OW69653  13.793   0.907  14.811
55919SOL    HW169654  13.836   0.966   0.001
55919SOL    HW269655  13.805   0.947  14.725
55920SOL     OW69656  14.764  13.586   3.690
55920SOL    HW169657  14.788  13.500   3.725
55920SOL    HW269658  14.702  13.566   3.620
55921SOL     OW69659  14.417  11.563  13.632
55921SOL    HW169660  14.440  11.470  13.636
55921SOL    HW269661  14.372  11.574  13.548
55922SOL     OW69662   4.879   8.705   7.505
55922SOL    HW169663   4.902   8.612   7.507
55922SOL    HW269664   4.814   8.715   7.574
55923SOL     OW69665   3.539  14.677   4.382
55923SOL    HW169666   3.579  14.751   4.337
55923SOL    HW269667   3.445  14.688   4.369
55924SOL     OW69668   4.605   9.208   5.105
55924SOL    HW169669   4.574   9.273   5.168
55924SOL    HW269670   4.697   9.195   5.128
55925SOL     OW69671  13.379   6.630   4.690
55925SOL    HW169672  13.332   6.612   4.771
55925SOL    HW269673  13.322   6.688   4.641
55926SOL     OW69674  11.564  14.749  14.472
55926SOL    HW169675  11.508  14.824  14.452
55926SOL    HW269676  11.574  14.752  14.567
55927SOL     OW69677  12.632   3.094   1.925
55927SOL    HW169678  12.617   3.188   1.916
55927SOL    HW269679  12.726   3.083   1.908
55928SOL     OW69680   5.657   5.160   3.900
55928SOL    HW169681   5.670   5.126   3.989
55928SOL    HW269682   5.562   5.159   3.888
55929SOL     OW69683  12.679   3.961  12.499
55929SOL    HW169684  12.704   3.957  12.591
55929SOL    HW269685  12.634   3.878  12.482
55930SOL     OW69686  14.446   5.731   7.583
55930SOL    HW169687  14.538   5.745   7.561
55930SOL    HW269688  14.449   5.687   7.669
55931SOL     OW69689   5.549   9.786  11.145
55931SOL    HW169690   5.484   9.720  11.171
55931SOL    HW269691   5.535   9.859  11.206
55932SOL     OW69692   9.066  14.256   6.692
55932SOL    HW169693   9.159  14.259   6.674
55932SOL    HW269694   9.031  14.336   6.654
55933SOL     OW69695   1.378  10.534   7.944
55933SOL    HW169696   1.425  10.464   7.989
55933SOL    HW269697   1.422  10.614   7.972
55934SOL     OW69698   3.026  11.095  14.185
55934SOL    HW169699   3.093  11.129  14.244
55934SOL    HW269700   2.955  11.159  14.190
55935SOL     OW69701   2.779   1.862  13.847
55935SOL    HW169702   2.778   1.946  13.803
55935SOL    HW269703   2.861   1.821  13.818
55936SOL     OW69704  11.442  13.253  11.098
55936SOL    HW169705  11.520  13.197  11.089
55936SOL    HW269706  11.377  13.196  11.139
55937SOL     OW69707   8.883   6.186   8.497
55937SOL    HW169708   8.926   6.193   8.412
55937SOL    HW269709   8.925   6.110   8.539
55938SOL     OW69710  13.260   5.284   6.406
55938SOL    HW169711  13.191   5.297   6.341
55938SOL    HW269712  13.338   5.324   6.366
55939SOL     OW69713   1.344   4.234   4.851
55939SOL    HW169714   1.401   4.204   4.780
55939SOL    HW269715   1.400   4.235   4.928
55940SOL     OW69716   4.915   9.336  11.009
55940SOL    HW169717   4.943   9.317  10.919
55940SOL    HW269718   4.820   9.333  11.006
55941SOL     OW69719   9.189  12.024   3.062
55941SOL    HW169720   9.181  11.996   3.153
55941SOL    HW269721   9.246  12.102   3.065
55942SOL     OW69722  10.437  13.233   6.954
55942SOL    HW169723  10.439  13.281   6.872
55942SOL    HW269724  10.520  13.255   6.997
55943SOL     OW69725  13.078  13.247   2.630
55943SOL    HW169726  13.006  13.299   2.594
55943SOL    HW269727  13.113  13.302   2.701
55944SOL     OW69728   0.595  10.483   1.533
55944SOL    HW169729   0.625  10.421   1.599
55944SOL    HW269730   0.584  10.430   1.454
55945SOL     OW69731   5.724  13.434  12.261
55945SOL    HW169732   5.809  13.476  12.248
55945SOL    HW269733   5.695  13.410  12.173
55946SOL     OW69734  13.839   6.319  10.027
55946SOL    HW169735  13.874   6.242  10.072
55946SOL    HW269736  13.745   6.318  10.048
55947SOL     OW69737   0.606   5.922  11.096
55947SOL    HW169738   0.534   5.870  11.059
55947SOL    HW269739   0.637   5.976  11.023
55948SOL     OW69740   9.067   5.993   7.276
55948SOL    HW169741   8.997   6.008   7.340
55948SOL    HW269742   9.023   5.947   7.204
55949SOL     OW69743  14.027  14.422  13.146
55949SOL    HW169744  14.074  14.461  13.220
55949SOL    HW269745  13.959  14.368  13.186
55950SOL     OW69746  13.662   7.753  11.221
55950SOL    HW169747  13.619   7.672  11.193
55950SOL    HW269748  13.750   7.726  11.247
55951SOL     OW69749   9.167   5.937   5.148
55951SOL    HW169750   9.161   5.860   5.206
55951SOL    HW269751   9.108   6.001   5.187
55952SOL     OW69752   5.191   1.050   6.957
55952SOL    HW169753   5.172   0.957   6.964
55952SOL    HW269754   5.124   1.084   6.897
55953SOL     OW69755   4.825   4.136   8.661
55953SOL    HW169756   4.805   4.224   8.692
55953SOL    HW269757   4.765   4.122   8.587
55954SOL     OW69758   1.043   4.600  13.628
55954SOL    HW169759   1.021   4.680  13.677
55954SOL    HW269760   1.116   4.562  13.677
55955SOL     OW69761   4.560   2.875   8.967
55955SOL    HW169762   4.512   2.823   9.031
55955SOL    HW269763   4.652   2.855   8.983
55956SOL     OW69764  13.369   8.516   4.824
55956SOL    HW169765  13.363   8.611   4.831
55956SOL    HW269766  13.374   8.499   4.729
55957SOL     OW69767   9.153  14.847  10.509
55957SOL    HW169768   9.126   0.044  10.570
55957SOL    HW269769   9.212  14.792  10.559
55958SOL     OW69770   8.964   8.959   8.958
55958SOL    HW169771   8.974   8.896   8.886
55958SOL    HW269772   8.905   9.025   8.923
55959SOL     OW69773  11.190  12.521   0.465
55959SOL    HW169774  11.154  12.505   0.552
55959SOL    HW269775  11.271  12.469   0.462
55960SOL     OW69776   3.099  11.856  10.840
55960SOL    HW169777   3.154  11.779  10.829
55960SOL    HW269778   3.093  11.868  10.935
55961SOL     OW69779   1.507  10.130   7.946
55961SOL    HW169780   1.499  10.209   7.999
55961SOL    HW269781   1.479  10.157   7.858
55962SOL     OW69782   5.250  11.237   1.484
55962SOL    HW169783   5.193  11.160   1.494
55962SOL    HW269784   5.196  11.302   1.440
55963SOL     OW69785  12.575   3.271   8.734
55963SOL    HW169786  12.587   3.288   8.827
55963SOL    HW269787  12.483   3.244   8.726
55964SOL     OW69788   6.021   4.368  11.110
55964SOL    HW169789   6.040   4.332  11.197
55964SOL    HW269790   5.984   4.295  11.061
55965SOL     OW69791  12.954   0.383   0.961
55965SOL    HW169792  12.887   0.355   0.898
55965SOL    HW269793  13.003   0.303   0.980
55966SOL     OW69794   5.783   4.737   1.036
55966SOL    HW169795   5.832   4.802   1.086
55966SOL    HW269796   5.730   4.692   1.102
55967SOL     OW69797   5.182   9.632   6.832
55967SOL    HW169798   5.132   9.640   6.913
55967SOL    HW269799   5.209   9.540   6.829
55968SOL     OW69800   5.773  12.823  13.171
55968SOL    HW169801   5.779  12.762  13.244
55968SOL    HW269802   5.695  12.875  13.190
55969SOL     OW69803   3.166   3.251  13.399
55969SOL    HW169804   3.111   3.176  13.421
55969SOL    HW269805   3.182   3.294  13.482
55970SOL     OW69806   7.079   8.927   1.126
55970SOL    HW169807   7.144   8.892   1.188
55970SOL    HW269808   7.024   8.984   1.180
55971SOL     OW69809   4.168  14.086   7.099
55971SOL    HW169810   4.143  14.018   7.162
55971SOL    HW269811   4.229  14.142   7.147
55972SOL     OW69812  13.738   3.210   0.928
55972SOL    HW169813  13.656   3.172   0.958
55972SOL    HW269814  13.728   3.218   0.833
55973SOL     OW69815  10.640  13.010   5.989
55973SOL    HW169816  10.564  13.022   6.046
55973SOL    HW269817  10.602  12.995   5.902
55974SOL     OW69818  13.407   0.677  11.980
55974SOL    HW169819  13.491   0.644  12.012
55974SOL    HW269820  13.342   0.631  12.033
55975SOL     OW69821   4.443   4.747  13.471
55975SOL    HW169822   4.389   4.763  13.548
55975SOL    HW269823   4.420   4.817  13.410
55976SOL     OW69824   3.143  14.149   1.460
55976SOL    HW169825   3.137  14.192   1.375
55976SOL    HW269826   3.068  14.182   1.509
55977SOL     OW69827  11.971   9.835   8.771
55977SOL    HW169828  11.992   9.834   8.865
55977SOL    HW269829  11.922   9.916   8.758
55978SOL     OW69830  13.630   0.255   3.991
55978SOL    HW169831  13.564   0.267   3.923
55978SOL    HW269832  13.600   0.311   4.063
55979SOL     OW69833  11.149  13.740   5.788
55979SOL    HW169834  11.215  13.799   5.752
55979SOL    HW269835  11.181  13.652   5.767
55980SOL     OW69836   7.593  11.091   3.677
55980SOL    HW169837   7.612  11.033   3.751
55980SOL    HW269838   7.528  11.043   3.626
55981SOL     OW69839   9.415   2.948   8.306
55981SOL    HW169840   9.340   2.912   8.260
55981SOL    HW269841   9.377   2.988   8.385
55982SOL     OW69842  12.301   8.328   6.903
55982SOL    HW169843  12.331   8.399   6.847
55982SOL    HW269844  12.214   8.355   6.931
55983SOL     OW69845   4.786   6.376   9.429
55983SOL    HW169846   4.735   6.306   9.388
55983SOL    HW269847   4.877   6.352   9.413
55984SOL     OW69848  10.925   6.749   2.040
55984SOL    HW169849  10.923   6.699   2.121
55984SOL    HW269850  10.904   6.685   1.972
55985SOL     OW69851   0.356   3.154  10.523
55985SOL    HW169852   0.359   3.217  10.595
55985SOL    HW269853   0.444   3.155  10.487
55986SOL     OW69854   9.765   6.946   6.965
55986SOL    HW169855   9.708   7.023   6.967
55986SOL    HW269856   9.732   6.893   6.893
55987SOL     OW69857   4.978  11.387   9.222
55987SOL    HW169858   5.057  11.440   9.216
55987SOL    HW269859   4.915  11.442   9.268
55988SOL     OW69860   2.766  12.864   1.260
55988SOL    HW169861   2.748  12.803   1.188
55988SOL    HW269862   2.845  12.829   1.302
55989SOL     OW69863  11.034  13.812   1.222
55989SOL    HW169864  11.026  13.803   1.127
55989SOL    HW269865  10.980  13.888   1.244
55990SOL     OW69866   7.504   4.376   1.869
55990SOL    HW169867   7.541   4.306   1.816
55990SOL    HW269868   7.448   4.332   1.933
55991SOL     OW69869   6.872   3.626   8.696
55991SOL    HW169870   6.894   3.660   8.609
55991SOL    HW269871   6.895   3.697   8.756
55992SOL     OW69872  11.612  12.457   1.292
55992SOL    HW169873  11.642  12.506   1.215
55992SOL    HW269874  11.691  12.416   1.327
55993SOL     OW69875   2.601   6.005   8.148
55993SOL    HW169876   2.515   5.964   8.143
55993SOL    HW269877   2.657   5.940   8.191
55994SOL     OW69878   0.428   5.579   5.091
55994SOL    HW169879   0.424   5.588   4.995
55994SOL    HW269880   0.426   5.485   5.106
55995SOL     OW69881  13.964  13.624   1.946
55995SOL    HW169882  14.050  13.622   1.987
55995SOL    HW269883  13.981  13.646   1.855
55996SOL     OW69884   7.196   8.193   6.116
55996SOL    HW169885   7.194   8.097   6.118
55996SOL    HW269886   7.178   8.218   6.207
55997SOL     OW69887  14.388  14.254   6.939
55997SOL    HW169888  14.422  14.180   6.990
55997SOL    HW269889  14.465  14.304   6.913
55998SOL     OW69890   2.775  13.787   4.984
55998SOL    HW169891   2.772  13.862   4.925
55998SOL    HW269892   2.803  13.714   4.929
55999SOL     OW69893   7.868  11.439   9.292
55999SOL    HW169894   7.881  11.372   9.359
55999SOL    HW269895   7.955  11.452   9.254
56000SOL     OW69896   7.346   2.561   4.735
56000SOL    HW169897   7.359   2.478   4.781
56000SOL    HW269898   7.406   2.556   4.661
56001SOL     OW69899   9.450  10.636   1.967
56001SOL    HW169900   9.510  10.562   1.954
56001SOL    HW269901   9.363  10.599   1.949
56002SOL     OW69902   8.255   7.381   7.853
56002SOL    HW169903   8.340   7.352   7.818
56002SOL    HW269904   8.260   7.476   7.852
56003SOL     OW69905   8.321   9.148   9.798
56003SOL    HW169906   8.247   9.175   9.853
56003SOL    HW269907   8.281   9.120   9.716
56004SOL     OW69908   1.064  11.301  10.035
56004SOL    HW169909   1.146  11.277  10.078
56004SOL    HW269910   1.040  11.385  10.076
56005SOL     OW69911  10.160   4.202   1.600
56005SOL    HW169912  10.175   4.142   1.527
56005SOL    HW269913  10.129   4.282   1.559
56006SOL     OW69914   4.319   4.332   4.015
56006SOL    HW169915   4.304   4.303   3.925
56006SOL    HW269916   4.410   4.361   4.017
56007SOL     OW69917   4.980   9.143  12.995
56007SOL    HW169918   4.996   9.233  13.025
56007SOL    HW269919   5.062   9.097  13.010
56008SOL     OW69920   9.094   9.525   4.424
56008SOL    HW169921   9.117   9.482   4.506
56008SOL    HW269922   9.093   9.618   4.445
56009SOL     OW69923  10.290   3.538   2.795
56009SOL    HW169924  10.213   3.537   2.739
56009SOL    HW269925  10.316   3.630   2.797
56010SOL     OW69926  10.175  12.590  10.116
56010SOL    HW169927  10.208  12.660  10.172
56010SOL    HW269928  10.083  12.581  10.142
56011SOL     OW69929   5.813  11.578   2.335
56011SOL    HW169930   5.797  11.618   2.249
56011SOL    HW269931   5.853  11.493   2.315
56012SOL     OW69932   9.827  11.890  10.660
56012SOL    HW169933   9.824  11.876  10.566
56012SOL    HW269934   9.736  11.892  10.688
56013SOL     OW69935   2.484   5.517  13.665
56013SOL    HW169936   2.450   5.607  13.665
56013SOL    HW269937   2.415   5.465  13.623
56014SOL     OW69938   3.813   4.489   0.327
56014SOL    HW169939   3.825   4.466   0.234
56014SOL    HW269940   3.794   4.406   0.370
56015SOL     OW69941   8.558   3.109   1.265
56015SOL    HW169942   8.504   3.148   1.334
56015SOL    HW269943   8.555   3.173   1.194
56016SOL     OW69944  12.937   6.790   2.724
56016SOL    HW169945  13.021   6.770   2.766
56016SOL    HW269946  12.878   6.812   2.796
56017SOL     OW69947   9.058   0.944   9.779
56017SOL    HW169948   9.066   1.003   9.705
56017SOL    HW269949   9.046   1.002   9.855
56018SOL     OW69950   4.056   2.499   0.579
56018SOL    HW169951   3.975   2.537   0.545
56018SOL    HW269952   4.049   2.406   0.559
56019SOL     OW69953   7.805  14.154   1.035
56019SOL    HW169954   7.820  14.067   0.999
56019SOL    HW269955   7.877  14.167   1.096
56020SOL     OW69956  13.384  10.056   8.717
56020SOL    HW169957  13.436   9.990   8.670
56020SOL    HW269958  13.404  10.138   8.674
56021SOL     OW69959   2.557   4.315   5.536
56021SOL    HW169960   2.505   4.344   5.610
56021SOL    HW269961   2.637   4.278   5.574
56022SOL     OW69962   0.570  14.038   0.656
56022SOL    HW169963   0.486  14.009   0.694
56022SOL    HW269964   0.556  14.130   0.636
56023SOL     OW69965  12.422   5.462   3.305
56023SOL    HW169966  12.444   5.429   3.218
56023SOL    HW269967  12.476   5.410   3.365
56024SOL     OW69968   0.824   8.535   1.276
56024SOL    HW169969   0.751   8.475   1.260
56024SOL    HW269970   0.782   8.620   1.289
56025SOL     OW69971   4.535   0.407  13.821
56025SOL    HW169972   4.542   0.502  13.817
56025SOL    HW269973   4.624   0.376  13.801
56026SOL     OW69974   6.601  13.310   8.048
56026SOL    HW169975   6.674  13.252   8.025
56026SOL    HW269976   6.523  13.256   8.040
56027SOL     OW69977   7.166  14.287  14.105
56027SOL    HW169978   7.198  14.360  14.158
56027SOL    HW269979   7.244  14.236  14.085
56028SOL     OW69980   1.858   1.100   2.875
56028SOL    HW169981   1.815   1.015   2.865
56028SOL    HW269982   1.853   1.118   2.969
56029SOL     OW69983   3.524   2.224   6.908
56029SOL    HW169984   3.578   2.184   6.977
56029SOL    HW269985   3.435   2.193   6.927
56030SOL     OW69986  12.741  13.387  11.154
56030SOL    HW169987  12.808  13.443  11.192
56030SOL    HW269988  12.759  13.389  11.060
56031SOL     OW69989  12.522  10.614   9.371
56031SOL    HW169990  12.607  10.586   9.405
56031SOL    HW269991  12.514  10.705   9.398
56032SOL     OW69992   4.645   3.700   5.368
56032SOL    HW169993   4.697   3.625   5.395
56032SOL    HW269994   4.557   3.681   5.401
56033SOL     OW69995  14.751   9.892   1.859
56033SOL    HW169996  14.766   9.977   1.819
56033SOL    HW269997  14.677   9.855   1.811
56034SOL     OW69998  12.863   5.810  13.912
56034SOL    HW169999  12.821   5.769  13.988
56034SOL    HW270000  12.955   5.819  13.938
56035SOL     OW70001   4.726  14.636   0.022
56035SOL    HW170002   4.790  14.566   0.013
56035SOL    HW270003   4.766  14.699   0.082
56036SOL     OW70004   9.738   5.617   6.351
56036SOL    HW170005   9.708   5.569   6.428
56036SOL    HW270006   9.775   5.550   6.293
56037SOL     OW70007  14.169   8.101  13.867
56037SOL    HW170008  14.162   8.006  13.856
56037SOL    HW270009  14.178   8.135  13.778
56038SOL     OW70010  12.618  13.402  14.065
56038SOL    HW170011  12.584  13.490  14.082
56038SOL    HW270012  12.692  13.417  14.006
56039SOL     OW70013   6.676   6.413   7.786
56039SOL    HW170014   6.714   6.501   7.782
56039SOL    HW270015   6.582   6.427   7.774
56040SOL     OW70016   5.465   8.461  14.620
56040SOL    HW170017   5.555   8.451  14.588
56040SOL    HW270018   5.447   8.379  14.666
56041SOL     OW70019  13.386   7.653   5.816
56041SOL    HW170020  13.398   7.747   5.825
56041SOL    HW270021  13.352   7.624   5.901
56042SOL     OW70022   8.337  12.238  12.051
56042SOL    HW170023   8.316  12.201  11.964
56042SOL    HW270024   8.331  12.163  12.110
56043SOL     OW70025  13.887  11.963   2.718
56043SOL    HW170026  13.974  11.994   2.743
56043SOL    HW270027  13.834  12.043   2.714
56044SOL     OW70028   2.506   5.992  13.575
56044SOL    HW170029   2.448   6.016  13.647
56044SOL    HW270030   2.566   5.927  13.613
56045SOL     OW70031   8.668  11.629   1.521
56045SOL    HW170032   8.739  11.623   1.585
56045SOL    HW270033   8.710  11.661   1.442
56046SOL     OW70034  11.789  11.922   9.988
56046SOL    HW170035  11.695  11.929  10.000
56046SOL    HW270036  11.803  11.942   9.895
56047SOL     OW70037  10.957  14.664  11.408
56047SOL    HW170038  10.895  14.737  11.398
56047SOL    HW270039  11.026  14.699  11.464
56048SOL     OW70040  10.128   7.204   8.590
56048SOL    HW170041  10.201   7.210   8.528
56048SOL    HW270042  10.153   7.134   8.650
56049SOL     OW70043  10.481   0.293   9.364
56049SOL    HW170044  10.432   0.227   9.315
56049SOL    HW270045  10.496   0.253   9.450
56050SOL     OW70046   8.190   7.003  13.081
56050SOL    HW170047   8.267   7.051  13.051
56050SOL    HW270048   8.117   7.065  13.073
56051SOL     OW70049   9.528  13.057  10.930
56051SOL    HW170050   9.556  13.064  10.838
56051SOL    HW270051   9.437  13.028  10.925
56052SOL     OW70052  10.102   5.919  12.803
56052SOL    HW170053  10.133   5.915  12.712
56052SOL    HW270054  10.074   6.010  12.815
56053SOL     OW70055   1.449  11.561   1.176
56053SOL    HW170056   1.405  11.477   1.165
56053SOL    HW270057   1.450  11.576   1.271
56054SOL     OW70058   6.036   3.969   3.405
56054SOL    HW170059   6.109   3.976   3.467
56054SOL    HW270060   5.972   3.914   3.450
56055SOL     OW70061  10.156   2.332  10.275
56055SOL    HW170062  10.146   2.299  10.185
56055SOL    HW270063  10.133   2.257  10.330
56056SOL     OW70064  12.252  10.716   8.936
56056SOL    HW170065  12.347  10.707   8.925
56056SOL    HW270066  12.215  10.686   8.853
56057SOL     OW70067   2.956  12.334  12.431
56057SOL    HW170068   2.864  12.357  12.420
56057SOL    HW270069   3.003  12.390  12.369
56058SOL     OW70070   6.950   8.209  14.201
56058SOL    HW170071   6.966   8.224  14.108
56058SOL    HW270072   6.934   8.115  14.208
56059SOL     OW70073   0.383   0.729   0.118
56059SOL    HW170074   0.413   0.803   0.064
56059SOL    HW270075   0.318   0.684   0.063
56060SOL     OW70076   5.987   4.248   1.327
56060SOL    HW170077   5.961   4.201   1.247
56060SOL    HW270078   6.078   4.273   1.312
56061SOL     OW70079   3.075   7.278   5.424
56061SOL    HW170080   3.003   7.280   5.362
56061SOL    HW270081   3.046   7.332   5.497
56062SOL     OW70082  12.120   0.455   3.272
56062SOL    HW170083  12.161   0.379   3.312
56062SOL    HW270084  12.026   0.443   3.286
56063SOL     OW70085  14.263  13.877  13.175
56063SOL    HW170086  14.315  13.832  13.241
56063SOL    HW270087  14.245  13.963  13.213
56064SOL     OW70088   5.968   6.897   0.059
56064SOL    HW170089   5.996   6.988   0.049
56064SOL    HW270090   5.934   6.891   0.148
56065SOL     OW70091  12.604   5.952  13.042
56065SOL    HW170092  12.663   5.895  12.993
56065SOL    HW270093  12.533   5.971  12.981
56066SOL     OW70094   1.018   7.241  11.176
56066SOL    HW170095   1.052   7.300  11.243
56066SOL    HW270096   1.076   7.165  11.179
56067SOL     OW70097  13.248   9.581  10.915
56067SOL    HW170098  13.302   9.657  10.935
56067SOL    HW270099  13.271   9.517  10.982
56068SOL     OW70100  14.170   6.365   8.633
56068SOL    HW170101  14.182   6.368   8.728
56068SOL    HW270102  14.081   6.332   8.621
56069SOL     OW70103   9.165  11.221   5.494
56069SOL    HW170104   9.232  11.152   5.489
56069SOL    HW270105   9.201  11.283   5.557
56070SOL     OW70106   0.035   1.105   4.863
56070SOL    HW170107  14.840   1.043   4.832
56070SOL    HW270108   0.091   1.053   4.921
56071SOL     OW70109   6.894   3.496   4.823
56071SOL    HW170110   6.945   3.415   4.814
56071SOL    HW270111   6.897   3.515   4.917
56072SOL     OW70112   3.871   0.184   7.662
56072SOL    HW170113   3.881   0.174   7.567
56072SOL    HW270114   3.902   0.273   7.679
56073SOL     OW70115   0.804   7.063  14.556
56073SOL    HW170116   0.799   6.978  14.514
56073SOL    HW270117   0.880   7.105  14.515
56074SOL     OW70118  12.110   9.607   5.131
56074SOL    HW170119  12.201   9.601   5.161
56074SOL    HW270120  12.086   9.698   5.148
56075SOL     OW70121  11.342   5.780  11.072
56075SOL    HW170122  11.413   5.795  11.010
56075SOL    HW270123  11.336   5.685  11.080
56076SOL     OW70124  11.030   0.041   4.432
56076SOL    HW170125  11.093   0.104   4.467
56076SOL    HW270126  11.083  14.841   4.397
56077SOL     OW70127  14.631   1.886   8.860
56077SOL    HW170128  14.653   1.910   8.770
56077SOL    HW270129  14.697   1.931   8.913
56078SOL     OW70130  12.515   7.197   4.506
56078SOL    HW170131  12.598   7.226   4.468
56078SOL    HW270132  12.540   7.158   4.590
56079SOL     OW70133   3.156   8.490  11.605
56079SOL    HW170134   3.252   8.482  11.608
56079SOL    HW270135   3.137   8.569  11.655
56080SOL     OW70136   0.618  12.816   2.314
56080SOL    HW170137   0.666  12.734   2.301
56080SOL    HW270138   0.594  12.844   2.226
56081SOL     OW70139  10.619   5.182   9.425
56081SOL    HW170140  10.687   5.214   9.484
56081SOL    HW270141  10.611   5.250   9.358
56082SOL     OW70142   7.495   6.149   8.793
56082SOL    HW170143   7.510   6.066   8.746
56082SOL    HW270144   7.450   6.204   8.729
56083SOL     OW70145  13.919   0.668  12.392
56083SOL    HW170146  14.006   0.692  12.361
56083SOL    HW270147  13.904   0.727  12.466
56084SOL     OW70148   4.336  12.489  10.836
56084SOL    HW170149   4.335  12.543  10.757
56084SOL    HW270150   4.422  12.506  10.874
56085SOL     OW70151   8.470  14.723   4.571
56085SOL    HW170152   8.439  14.646   4.618
56085SOL    HW270153   8.452  14.796   4.629
56086SOL     OW70154  12.384   3.167   8.506
56086SOL    HW170155  12.367   3.196   8.416
56086SOL    HW270156  12.477   3.147   8.508
56087SOL     OW70157   6.138  11.222   1.631
56087SOL    HW170158   6.155  11.209   1.537
56087SOL    HW270159   6.173  11.309   1.650
56088SOL     OW70160  12.459   9.554   9.433
56088SOL    HW170161  12.381   9.499   9.441
56088SOL    HW270162  12.427   9.643   9.449
56089SOL     OW70163   8.480  10.313  10.266
56089SOL    HW170164   8.407  10.368  10.237
56089SOL    HW270165   8.440  10.227  10.279
56090SOL     OW70166   7.461  13.556   6.112
56090SOL    HW170167   7.524  13.613   6.156
56090SOL    HW270168   7.495  13.547   6.023
56091SOL     OW70169  11.257  10.874  10.652
56091SOL    HW170170  11.312  10.900  10.579
56091SOL    HW270171  11.182  10.830  10.612
56092SOL     OW70172   9.749   7.697   6.416
56092SOL    HW170173   9.796   7.614   6.412
56092SOL    HW270174   9.686   7.693   6.343
56093SOL     OW70175  12.927   8.394   4.349
56093SOL    HW170176  12.970   8.418   4.267
56093SOL    HW270177  12.835   8.383   4.327
56094SOL     OW70178   2.092   0.563   7.434
56094SOL    HW170179   2.137   0.518   7.362
56094SOL    HW270180   2.106   0.507   7.510
56095SOL     OW70181   0.005  12.621   6.098
56095SOL    HW170182  14.868  12.664   6.013
56095SOL    HW270183   0.022  12.693   6.159
56096SOL     OW70184   1.591   3.962  14.120
56096SOL    HW170185   1.685   3.979  14.125
56096SOL    HW270186   1.581   3.901  14.047
56097SOL     OW70187   4.400  11.662  10.842
56097SOL    HW170188   4.306  11.664  10.824
56097SOL    HW270189   4.417  11.571  10.866
56098SOL     OW70190  10.576   3.238   2.393
56098SOL    HW170191  10.654   3.264   2.344
56098SOL    HW270192  10.510   3.221   2.326
56099SOL     OW70193  12.151   8.957   3.945
56099SOL    HW170194  12.089   8.899   3.988
56099SOL    HW270195  12.218   8.899   3.909
56100SOL     OW70196   8.173   8.540   4.676
56100SOL    HW170197   8.167   8.633   4.656
56100SOL    HW270198   8.093   8.520   4.724
56101SOL     OW70199   9.669   0.814  14.677
56101SOL    HW170200   9.638   0.773  14.758
56101SOL    HW270201   9.641   0.755  14.608
56102SOL     OW70202  12.563  14.037   2.863
56102SOL    HW170203  12.531  14.094   2.793
56102SOL    HW270204  12.553  13.949   2.829
56103SOL     OW70205   8.421   0.957   0.983
56103SOL    HW170206   8.501   0.905   0.977
56103SOL    HW270207   8.362   0.917   0.918
56104SOL     OW70208   4.329   5.910   1.550
56104SOL    HW170209   4.300   5.964   1.477
56104SOL    HW270210   4.393   5.850   1.511
56105SOL     OW70211  12.548   3.439   5.380
56105SOL    HW170212  12.470   3.394   5.412
56105SOL    HW270213  12.620   3.380   5.404
56106SOL     OW70214   8.102   5.283  12.908
56106SOL    HW170215   8.080   5.358  12.853
56106SOL    HW270216   8.158   5.228  12.853
56107SOL     OW70217  11.363   1.852  11.159
56107SOL    HW170218  11.432   1.796  11.194
56107SOL    HW270219  11.394   1.941  11.174
56108SOL     OW70220  11.481   0.476   1.459
56108SOL    HW170221  11.398   0.500   1.500
56108SOL    HW270222  11.489   0.537   1.385
56109SOL     OW70223   2.471   1.619   4.555
56109SOL    HW170224   2.559   1.652   4.571
56109SOL    HW270225   2.415   1.697   4.553
56110SOL     OW70226  13.066  10.792  13.853
56110SOL    HW170227  12.980  10.751  13.870
56110SOL    HW270228  13.129  10.721  13.867
56111SOL     OW70229  11.678   6.399  13.712
56111SOL    HW170230  11.664   6.393  13.618
56111SOL    HW270231  11.684   6.309  13.742
56112SOL     OW70232   5.423  14.155   6.497
56112SOL    HW170233   5.483  14.214   6.544
56112SOL    HW270234   5.341  14.204   6.490
56113SOL     OW70235   2.627   3.612   2.146
56113SOL    HW170236   2.620   3.706   2.129
56113SOL    HW270237   2.721   3.594   2.150
56114SOL     OW70238  12.072   1.041   4.454
56114SOL    HW170239  12.145   0.980   4.466
56114SOL    HW270240  12.076   1.099   4.530
56115SOL     OW70241   5.640   3.536   9.313
56115SOL    HW170242   5.695   3.461   9.292
56115SOL    HW270243   5.646   3.545   9.408
56116SOL     OW70244   3.923   0.235   5.094
56116SOL    HW170245   3.897   0.285   5.017
56116SOL    HW270246   3.886   0.148   5.080
56117SOL     OW70247   2.297   1.708   6.501
56117SOL    HW170248   2.291   1.663   6.586
56117SOL    HW270249   2.220   1.678   6.453
56118SOL     OW70250   5.604   9.679  11.430
56118SOL    HW170251   5.644   9.765  11.445
56118SOL    HW270252   5.601   9.639  11.517
56119SOL     OW70253  12.356  12.380   8.312
56119SOL    HW170254  12.363  12.401   8.405
56119SOL    HW270255  12.446  12.386   8.280
56120SOL     OW70256  14.562   0.628  13.662
56120SOL    HW170257  14.597   0.716  13.673
56120SOL    HW270258  14.549   0.620  13.567
56121SOL     OW70259  12.707  14.645   1.286
56121SOL    HW170260  12.655  14.565   1.275
56121SOL    HW270261  12.798  14.615   1.284
56122SOL     OW70262   0.248   0.296   2.590
56122SOL    HW170263   0.239   0.203   2.568
56122SOL    HW270264   0.199   0.305   2.672
56123SOL     OW70265   0.359  12.524   8.940
56123SOL    HW170266   0.397  12.507   9.026
56123SOL    HW270267   0.395  12.456   8.883
56124SOL     OW70268   9.892  14.115   5.761
56124SOL    HW170269   9.927  14.098   5.673
56124SOL    HW270270   9.797  14.119   5.748
56125SOL     OW70271   2.945   5.596   1.127
56125SOL    HW170272   2.980   5.668   1.179
56125SOL    HW270273   2.945   5.630   1.037
56126SOL     OW70274   5.740   0.861   2.074
56126SOL    HW170275   5.692   0.914   2.138
56126SOL    HW270276   5.729   0.771   2.106
56127SOL     OW70277  11.526   7.901  13.478
56127SOL    HW170278  11.507   7.831  13.541
56127SOL    HW270279  11.586   7.959  13.525
56128SOL     OW70280  13.994  12.809   6.428
56128SOL    HW170281  13.903  12.836   6.440
56128SOL    HW270282  13.990  12.713   6.427
56129SOL     OW70283  11.147   6.309   9.304
56129SOL    HW170284  11.231   6.268   9.322
56129SOL    HW270285  11.124   6.280   9.215
56130SOL     OW70286   9.213   4.029  14.633
56130SOL    HW170287   9.252   3.978  14.562
56130SOL    HW270288   9.205   3.967  14.706
56131SOL     OW70289  13.996  14.253   8.712
56131SOL    HW170290  13.940  14.176   8.722
56131SOL    HW270291  14.000  14.291   8.800
56132SOL     OW70292  11.614   1.095  11.658
56132SOL    HW170293  11.689   1.153  11.668
56132SOL    HW270294  11.594   1.066  11.747
56133SOL     OW70295  14.360   2.026   2.325
56133SOL    HW170296  14.274   2.059   2.299
56133SOL    HW270297  14.404   2.101   2.363
56134SOL     OW70298   2.506   3.254   2.887
56134SOL    HW170299   2.535   3.167   2.859
56134SOL    HW270300   2.501   3.247   2.983
56135SOL     OW70301   9.915  10.189   9.085
56135SOL    HW170302   9.828  10.152   9.097
56135SOL    HW270303   9.975  10.117   9.104
56136SOL     OW70304  11.605   0.752   4.308
56136SOL    HW170305  11.665   0.682   4.335
56136SOL    HW270306  11.571   0.787   4.390
56137SOL     OW70307   2.102  12.928  13.955
56137SOL    HW170308   2.136  12.918  13.866
56137SOL    HW270309   2.167  12.883  14.011
56138SOL     OW70310   6.219  12.632  12.022
56138SOL    HW170311   6.215  12.551  11.972
56138SOL    HW270312   6.283  12.615  12.091
56139SOL     OW70313   9.798   8.173   9.664
56139SOL    HW170314   9.833   8.250   9.619
56139SOL    HW270315   9.742   8.131   9.599
56140SOL     OW70316   1.014  10.464   9.414
56140SOL    HW170317   1.102  10.496   9.391
56140SOL    HW270318   0.983  10.526   9.479
56141SOL     OW70319   3.183  14.654   8.034
56141SOL    HW170320   3.142  14.694   7.957
56141SOL    HW270321   3.122  14.586   8.061
56142SOL     OW70322   8.598   8.186   4.853
56142SOL    HW170323   8.643   8.216   4.774
56142SOL    HW270324   8.619   8.252   4.919
56143SOL     OW70325   3.830   1.886  11.004
56143SOL    HW170326   3.740   1.921  11.009
56143SOL    HW270327   3.877   1.951  10.951
56144SOL     OW70328   5.024   8.021   5.638
56144SOL    HW170329   5.085   8.051   5.570
56144SOL    HW270330   4.960   8.091   5.647
56145SOL     OW70331  14.173   2.769   1.429
56145SOL    HW170332  14.239   2.759   1.498
56145SOL    HW270333  14.218   2.819   1.361
56146SOL     OW70334   2.678   4.353   7.031
56146SOL    HW170335   2.586   4.367   7.053
56146SOL    HW270336   2.724   4.427   7.070
56147SOL     OW70337   0.187   4.111   7.959
56147SOL    HW170338   0.147   4.187   7.917
56147SOL    HW270339   0.161   4.118   8.051
56148SOL     OW70340   6.715  12.358   3.947
56148SOL    HW170341   6.621  12.360   3.966
56148SOL    HW270342   6.726  12.280   3.893
56149SOL     OW70343   3.849   5.089   7.711
56149SOL    HW170344   3.866   5.011   7.764
56149SOL    HW270345   3.779   5.135   7.757
56150SOL     OW70346   6.215   5.575   0.683
56150SOL    HW170347   6.286   5.565   0.747
56150SOL    HW270348   6.204   5.487   0.646
56151SOL     OW70349   1.147  14.237   7.370
56151SOL    HW170350   1.051  14.226   7.370
56151SOL    HW270351   1.179  14.168   7.427
56152SOL     OW70352  10.315   8.887  14.749
56152SOL    HW170353  10.347   8.828  14.681
56152SOL    HW270354  10.250   8.836  14.798
56153SOL     OW70355  14.453  10.339  12.694
56153SOL    HW170356  14.407  10.323  12.612
56153SOL    HW270357  14.543  10.308  12.678
56154SOL     OW70358  10.078  13.780  13.353
56154SOL    HW170359  10.091  13.728  13.273
56154SOL    HW270360  10.147  13.846  13.350
56155SOL     OW70361  11.892   9.632   8.356
56155SOL    HW170362  11.917   9.723   8.343
56155SOL    HW270363  11.966   9.593   8.403
56156SOL     OW70364   7.160   0.171   6.595
56156SOL    HW170365   7.196   0.229   6.662
56156SOL    HW270366   7.107   0.108   6.644
56157SOL     OW70367   6.722   3.723  12.408
56157SOL    HW170368   6.709   3.646  12.463
56157SOL    HW270369   6.633   3.752  12.386
56158SOL     OW70370  14.413   6.376  12.416
56158SOL    HW170371  14.387   6.463  12.385
56158SOL    HW270372  14.502   6.387  12.447
56159SOL     OW70373   2.724   5.352   1.738
56159SOL    HW170374   2.783   5.301   1.793
56159SOL    HW270375   2.739   5.443   1.764
56160SOL     OW70376   4.793  11.338  14.771
56160SOL    HW170377   4.720  11.303  14.720
56160SOL    HW270378   4.792  11.286  14.852
56161SOL     OW70379   0.274  13.582   9.161
56161SOL    HW170380   0.347  13.541   9.114
56161SOL    HW270381   0.203  13.517   9.157
56162SOL     OW70382  12.198   5.596   1.866
56162SOL    HW170383  12.155   5.540   1.931
56162SOL    HW270384  12.287   5.607   1.900
56163SOL     OW70385   2.229   6.379   6.234
56163SOL    HW170386   2.176   6.317   6.182
56163SOL    HW270387   2.166   6.420   6.293
56164SOL     OW70388   4.591   7.385   4.551
56164SOL    HW170389   4.648   7.316   4.584
56164SOL    HW270390   4.552   7.424   4.630
56165SOL     OW70391   3.255   3.055   7.029
56165SOL    HW170392   3.226   2.995   6.961
56165SOL    HW270393   3.305   3.122   6.983
56166SOL     OW70394   0.057   2.485   8.795
56166SOL    HW170395   0.021   2.556   8.847
56166SOL    HW270396   0.091   2.527   8.716
56167SOL     OW70397   1.856   2.112  10.097
56167SOL    HW170398   1.946   2.082  10.113
56167SOL    HW270399   1.845   2.188  10.154
56168SOL     OW70400   8.557  11.453  10.084
56168SOL    HW170401   8.584  11.367  10.053
56168SOL    HW270402   8.462  11.452  10.078
56169SOL     OW70403   9.068   2.615   2.000
56169SOL    HW170404   9.092   2.530   2.037
56169SOL    HW270405   9.094   2.609   1.908
56170SOL     OW70406   5.081   8.407  11.070
56170SOL    HW170407   5.143   8.480  11.062
56170SOL    HW270408   5.004   8.445  11.112
56171SOL     OW70409   8.196  10.128   6.984
56171SOL    HW170410   8.148  10.111   7.065
56171SOL    HW270411   8.186  10.222   6.969
56172SOL     OW70412   4.875   8.348  14.493
56172SOL    HW170413   4.868   8.389  14.579
56172SOL    HW270414   4.864   8.420  14.431
56173SOL     OW70415   3.558   9.641   7.309
56173SOL    HW170416   3.653   9.651   7.318
56173SOL    HW270417   3.547   9.581   7.235
56174SOL     OW70418   1.417  14.699   3.281
56174SOL    HW170419   1.438  14.614   3.319
56174SOL    HW270420   1.346  14.733   3.335
56175SOL     OW70421   4.549  10.981   9.615
56175SOL    HW170422   4.456  11.001   9.622
56175SOL    HW270423   4.588  11.060   9.577
56176SOL     OW70424   9.290   8.402   7.535
56176SOL    HW170425   9.251   8.464   7.596
56176SOL    HW270426   9.295   8.320   7.583
56177SOL     OW70427  14.867   3.575   7.623
56177SOL    HW170428   0.010   3.647   7.563
56177SOL    HW270429   0.065   3.512   7.603
56178SOL     OW70430   4.531  14.455   6.314
56178SOL    HW170431   4.528  14.504   6.232
56178SOL    HW270432   4.587  14.508   6.371
56179SOL     OW70433  10.388  12.082  12.726
56179SOL    HW170434  10.344  12.158  12.686
56179SOL    HW270435  10.316  12.021  12.743
56180SOL     OW70436   5.866   8.434   3.740
56180SOL    HW170437   5.928   8.500   3.772
56180SOL    HW270438   5.902   8.405   3.656
56181SOL     OW70439  13.395   2.301  11.304
56181SOL    HW170440  13.490   2.289  11.312
56181SOL    HW270441  13.368   2.234  11.241
56182SOL     OW70442   8.819   9.541   8.687
56182SOL    HW170443   8.802   9.491   8.607
56182SOL    HW270444   8.760   9.617   8.681
56183SOL     OW70445  12.661  10.391   1.629
56183SOL    HW170446  12.615  10.463   1.673
56183SOL    HW270447  12.665  10.322   1.695
56184SOL     OW70448   6.969   4.774   9.332
56184SOL    HW170449   6.940   4.683   9.337
56184SOL    HW270450   7.053   4.770   9.287
56185SOL     OW70451   8.342   1.912  11.408
56185SOL    HW170452   8.270   1.920  11.470
56185SOL    HW270453   8.342   1.995  11.361
56186SOL     OW70454   9.570  13.268   5.481
56186SOL    HW170455   9.620  13.343   5.450
56186SOL    HW270456   9.615  13.241   5.562
56187SOL     OW70457   3.255   1.792   4.105
56187SOL    HW170458   3.328   1.771   4.162
56187SOL    HW270459   3.251   1.888   4.105
56188SOL     OW70460  11.168   5.259  13.711
56188SOL    HW170461  11.166   5.238  13.805
56188SOL    HW270462  11.083   5.298  13.694
56189SOL     OW70463   0.476   0.451  11.351
56189SOL    HW170464   0.565   0.480  11.330
56189SOL    HW270465   0.424   0.483  11.277
56190SOL     OW70466   7.148  11.754   9.649
56190SOL    HW170467   7.170  11.769   9.741
56190SOL    HW270468   7.139  11.841   9.612
56191SOL     OW70469  12.543   8.900   8.253
56191SOL    HW170470  12.631   8.864   8.240
56191SOL    HW270471  12.515   8.924   8.165
56192SOL     OW70472   1.482   3.824   7.056
56192SOL    HW170473   1.507   3.916   7.051
56192SOL    HW270474   1.520   3.793   7.139
56193SOL     OW70475   2.571   3.174  12.556
56193SOL    HW170476   2.579   3.179  12.652
56193SOL    HW270477   2.639   3.233  12.523
56194SOL     OW70478   1.345  13.849   9.260
56194SOL    HW170479   1.269  13.902   9.238
56194SOL    HW270480   1.420  13.899   9.228
56195SOL     OW70481  13.857  10.856   8.247
56195SOL    HW170482  13.894  10.798   8.180
56195SOL    HW270483  13.922  10.856   8.317
56196SOL     OW70484   1.401   9.726   1.290
56196SOL    HW170485   1.318   9.705   1.247
56196SOL    HW270486   1.416   9.818   1.271
56197SOL     OW70487   2.842   4.497   2.754
56197SOL    HW170488   2.779   4.523   2.687
56197SOL    HW270489   2.803   4.420   2.795
56198SOL     OW70490   6.946  12.080  10.547
56198SOL    HW170491   6.867  12.124  10.577
56198SOL    HW270492   7.014  12.110  10.607
56199SOL     OW70493   8.528  12.688   2.091
56199SOL    HW170494   8.618  12.691   2.123
56199SOL    HW270495   8.485  12.623   2.147
56200SOL     OW70496  14.783  10.592   8.953
56200SOL    HW170497  14.702  10.550   8.925
56200SOL    HW270498  14.757  10.681   8.976
56201SOL     OW70499   4.247   8.779   3.787
56201SOL    HW170500   4.209   8.752   3.703
56201SOL    HW270501   4.172   8.809   3.838
56202SOL     OW70502   4.874   8.470  13.129
56202SOL    HW170503   4.781   8.462  13.108
56202SOL    HW270504   4.908   8.532  13.064
56203SOL     OW70505   8.875   6.799  14.511
56203SOL    HW170506   8.960   6.755  14.510
56203SOL    HW270507   8.838   6.778  14.598
56204SOL     OW70508   8.039   6.805   3.459
56204SOL    HW170509   7.995   6.835   3.380
56204SOL    HW270510   8.002   6.718   3.475
56205SOL     OW70511   6.780  11.769  13.455
56205SOL    HW170512   6.711  11.703  13.442
56205SOL    HW270513   6.828  11.770  13.373
56206SOL     OW70514   9.977  13.440  12.471
56206SOL    HW170515   9.914  13.503  12.504
56206SOL    HW270516   9.925  13.363  12.448
56207SOL     OW70517  13.664  10.066  11.041
56207SOL    HW170518  13.683  10.137  10.979
56207SOL    HW270519  13.698  10.098  11.125
56208SOL     OW70520  13.539  12.426   6.918
56208SOL    HW170521  13.463  12.482   6.931
56208SOL    HW270522  13.573  12.410   7.006
56209SOL     OW70523   0.301   9.772  10.495
56209SOL    HW170524   0.312   9.681  10.522
56209SOL    HW270525   0.207   9.789  10.507
56210SOL     OW70526   6.660   8.198  12.004
56210SOL    HW170527   6.729   8.203  12.069
56210SOL    HW270528   6.692   8.250  11.930
56211SOL     OW70529   6.671  10.969   8.337
56211SOL    HW170530   6.586  10.929   8.320
56211SOL    HW270531   6.662  11.011   8.422
56212SOL     OW70532   2.182   3.496  10.564
56212SOL    HW170533   2.116   3.561  10.538
56212SOL    HW270534   2.266   3.538  10.544
56213SOL     OW70535  11.069   2.540  13.942
56213SOL    HW170536  11.012   2.612  13.915
56213SOL    HW270537  11.032   2.463  13.899
56214SOL     OW70538   3.278   4.537   9.131
56214SOL    HW170539   3.230   4.540   9.048
56214SOL    HW270540   3.240   4.608   9.183
56215SOL     OW70541   6.743  12.982   6.763
56215SOL    HW170542   6.698  13.007   6.843
56215SOL    HW270543   6.698  13.031   6.694
56216SOL     OW70544   3.244   3.591   2.285
56216SOL    HW170545   3.218   3.500   2.300
56216SOL    HW270546   3.171   3.643   2.318
56217SOL     OW70547   3.149  13.155   7.619
56217SOL    HW170548   3.227  13.136   7.671
56217SOL    HW270549   3.173  13.233   7.569
56218SOL     OW70550   8.993  13.712   1.674
56218SOL    HW170551   8.989  13.717   1.769
56218SOL    HW270552   9.085  13.695   1.654
56219SOL     OW70553   4.110  10.967  13.613
56219SOL    HW170554   4.084  10.970  13.521
56219SOL    HW270555   4.050  10.904  13.653
56220SOL     OW70556   7.105   0.447   7.807
56220SOL    HW170557   7.109   0.524   7.864
56220SOL    HW270558   7.175   0.459   7.743
56221SOL     OW70559  10.764  12.614   7.813
56221SOL    HW170560  10.719  12.611   7.898
56221SOL    HW270561  10.843  12.561   7.826
56222SOL     OW70562  11.156   9.185   3.514
56222SOL    HW170563  11.196   9.105   3.548
56222SOL    HW270564  11.163   9.177   3.419
56223SOL     OW70565   2.930   6.431   7.926
56223SOL    HW170566   3.023   6.424   7.907
56223SOL    HW270567   2.888   6.372   7.864
56224SOL     OW70568   2.899  13.253  13.922
56224SOL    HW170569   2.894  13.164  13.887
56224SOL    HW270570   2.843  13.305  13.864
56225SOL     OW70571   8.080  10.987  11.766
56225SOL    HW170572   8.033  10.930  11.705
56225SOL    HW270573   8.170  10.955  11.766
56226SOL     OW70574   3.365   0.774  13.531
56226SOL    HW170575   3.292   0.833  13.549
56226SOL    HW270576   3.393   0.743  13.617
56227SOL     OW70577  11.619   4.046  11.311
56227SOL    HW170578  11.562   4.121  11.329
56227SOL    HW270579  11.583   4.007  11.231
56228SOL     OW70580  10.997  11.939   5.185
56228SOL    HW170581  11.065  11.926   5.119
56228SOL    HW270582  11.038  11.996   5.250
56229SOL     OW70583  11.993   3.034  14.457
56229SOL    HW170584  11.922   2.970  14.457
56229SOL    HW270585  11.957   3.110  14.411
56230SOL     OW70586   5.104   3.381   6.755
56230SOL    HW170587   5.028   3.431   6.723
56230SOL    HW270588   5.151   3.443   6.811
56231SOL     OW70589  14.289   1.376   2.588
56231SOL    HW170590  14.231   1.401   2.516
56231SOL    HW270591  14.309   1.284   2.572
56232SOL     OW70592  12.393  14.097  12.200
56232SOL    HW170593  12.414  14.005  12.216
56232SOL    HW270594  12.477  14.139  12.182
56233SOL     OW70595   4.954  12.662   9.603
56233SOL    HW170596   4.899  12.717   9.658
56233SOL    HW270597   4.970  12.584   9.655
56234SOL     OW70598   2.232   6.304   3.383
56234SOL    HW170599   2.241   6.210   3.400
56234SOL    HW270600   2.157   6.331   3.437
56235SOL     OW70601   6.712   2.770   0.700
56235SOL    HW170602   6.635   2.819   0.728
56235SOL    HW270603   6.687   2.732   0.616
56236SOL     OW70604   3.114   0.039   3.865
56236SOL    HW170605   3.088   0.095   3.791
56236SOL    HW270606   3.196  14.869   3.836
56237SOL     OW70607   0.087   6.767   2.026
56237SOL    HW170608   0.064   6.688   2.075
56237SOL    HW270609   0.004   6.813   2.014
56238SOL     OW70610   5.621  14.588   9.377
56238SOL    HW170611   5.696  14.565   9.323
56238SOL    HW270612   5.549  14.597   9.314
56239SOL     OW70613  13.976   5.732   2.170
56239SOL    HW170614  13.990   5.794   2.098
56239SOL    HW270615  13.965   5.647   2.126
56240SOL     OW70616   0.699  12.066  12.906
56240SOL    HW170617   0.737  12.153  12.895
56240SOL    HW270618   0.766  12.016  12.953
56241SOL     OW70619  10.471  10.585  11.297
56241SOL    HW170620  10.491  10.634  11.377
56241SOL    HW270621  10.552  10.538  11.277
56242SOL     OW70622   2.529   8.223  13.029
56242SOL    HW170623   2.550   8.300  12.976
56242SOL    HW270624   2.459   8.254  13.088
56243SOL     OW70625   5.266   6.030  13.725
56243SOL    HW170626   5.272   6.082  13.805
56243SOL    HW270627   5.255   5.940  13.755
56244SOL     OW70628   7.891   8.409   2.882
56244SOL    HW170629   7.932   8.463   2.951
56244SOL    HW270630   7.840   8.344   2.930
56245SOL     OW70631  13.180  13.609  11.141
56245SOL    HW170632  13.091  13.573  11.148
56245SOL    HW270633  13.191  13.627  11.048
56246SOL     OW70634  14.378   1.743  11.773
56246SOL    HW170635  14.372   1.833  11.740
56246SOL    HW270636  14.291   1.725  11.808
56247SOL     OW70637   3.297  11.321   2.370
56247SOL    HW170638   3.324  11.230   2.361
56247SOL    HW270639   3.205  11.323   2.343
56248SOL     OW70640  13.116   8.980   8.020
56248SOL    HW170641  13.176   9.054   8.014
56248SOL    HW270642  13.132   8.944   8.107
56249SOL     OW70643  10.855   9.167  14.664
56249SOL    HW170644  10.860   9.145  14.757
56249SOL    HW270645  10.765   9.195  14.650
56250SOL     OW70646   2.119   1.603  11.414
56250SOL    HW170647   2.189   1.638  11.359
56250SOL    HW270648   2.161   1.534  11.465
56251SOL     OW70649  13.197   6.119   7.393
56251SOL    HW170650  13.235   6.205   7.374
56251SOL    HW270651  13.183   6.080   7.306
56252SOL     OW70652   9.586   0.215   1.565
56252SOL    HW170653   9.506   0.165   1.549
56252SOL    HW270654   9.631   0.167   1.633
56253SOL     OW70655  10.323   6.486   9.841
56253SOL    HW170656  10.394   6.423   9.849
56253SOL    HW270657  10.332   6.543   9.918
56254SOL     OW70658   0.007  10.745   8.310
56254SOL    HW170659  14.814  10.677   8.293
56254SOL    HW270660  14.829  10.827   8.303
56255SOL     OW70661   0.155  10.982  14.280
56255SOL    HW170662   0.148  10.888  14.263
56255SOL    HW270663   0.250  10.999  14.278
56256SOL     OW70664   1.190   1.632   0.941
56256SOL    HW170665   1.277   1.636   0.980
56256SOL    HW270666   1.187   1.545   0.900
56257SOL     OW70667  11.232   3.647   0.555
56257SOL    HW170668  11.160   3.618   0.610
56257SOL    HW270669  11.310   3.609   0.596
56258SOL     OW70670  11.576   6.847   9.799
56258SOL    HW170671  11.596   6.757   9.773
56258SOL    HW270672  11.629   6.862   9.877
56259SOL     OW70673  14.744   1.959  14.517
56259SOL    HW170674  14.701   1.977  14.601
56259SOL    HW270675  14.829   1.923  14.541
56260SOL     OW70676  13.163  13.097   1.941
56260SOL    HW170677  13.227  13.167   1.954
56260SOL    HW270678  13.170  13.075   1.848
56261SOL     OW70679   9.073  13.415   1.930
56261SOL    HW170680   9.125  13.449   1.857
56261SOL    HW270681   8.982  13.421   1.901
56262SOL     OW70682   7.420  14.471   3.653
56262SOL    HW170683   7.391  14.537   3.589
56262SOL    HW270684   7.390  14.505   3.737
56263SOL     OW70685   9.448   8.865  11.524
56263SOL    HW170686   9.468   8.938  11.584
56263SOL    HW270687   9.500   8.792  11.557
56264SOL     OW70688  12.757  12.729   3.302
56264SOL    HW170689  12.831  12.684   3.342
56264SOL    HW270690  12.759  12.702   3.210
56265SOL     OW70691   7.903   7.176   3.339
56265SOL    HW170692   7.999   7.178   3.347
56265SOL    HW270693   7.887   7.129   3.258
56266SOL     OW70694   9.987   8.016   8.051
56266SOL    HW170695   9.963   8.086   8.110
56266SOL    HW270696  10.069   8.045   8.011
56267SOL     OW70697   9.463  10.289  11.159
56267SOL    HW170698   9.452  10.367  11.214
56267SOL    HW270699   9.406  10.223  11.200
56268SOL     OW70700   2.411   3.580  11.472
56268SOL    HW170701   2.330   3.614  11.433
56268SOL    HW270702   2.456   3.657  11.506
56269SOL     OW70703  14.822   0.881  13.953
56269SOL    HW170704  14.794   0.882  13.862
56269SOL    HW270705  14.744   0.858  14.003
56270SOL     OW70706  12.833  11.728   4.942
56270SOL    HW170707  12.857  11.711   4.851
56270SOL    HW270708  12.752  11.680   4.956
56271SOL     OW70709   2.227  11.732   6.876
56271SOL    HW170710   2.203  11.652   6.828
56271SOL    HW270711   2.143  11.772   6.898
56272SOL     OW70712   9.164   2.077   9.199
56272SOL    HW170713   9.112   1.997   9.193
56272SOL    HW270714   9.164   2.100   9.292
56273SOL     OW70715   3.732   4.156  11.178
56273SOL    HW170716   3.779   4.231  11.215
56273SOL    HW270717   3.795   4.117  11.117
56274SOL     OW70718   9.494  10.190  10.213
56274SOL    HW170719   9.536  10.104  10.205
56274SOL    HW270720   9.521  10.222  10.299
56275SOL     OW70721   5.874   7.054   1.946
56275SOL    HW170722   5.961   7.015   1.933
56275SOL    HW270723   5.846   7.080   1.858
56276SOL     OW70724   9.441  14.065  10.704
56276SOL    HW170725   9.364  14.072  10.760
56276SOL    HW270726   9.412  14.094  10.618
56277SOL     OW70727   5.596  10.802   1.012
56277SOL    HW170728   5.520  10.768   0.964
56277SOL    HW270729   5.639  10.860   0.949
56278SOL     OW70730   6.463   9.821   6.076
56278SOL    HW170731   6.403   9.892   6.098
56278SOL    HW270732   6.480   9.777   6.159
56279SOL     OW70733   2.310   2.424   0.477
56279SOL    HW170734   2.315   2.418   0.572
56279SOL    HW270735   2.384   2.481   0.453
56280SOL     OW70736   9.313   6.370   0.348
56280SOL    HW170737   9.361   6.417   0.280
56280SOL    HW270738   9.249   6.433   0.380
56281SOL     OW70739   1.760   6.839   1.064
56281SOL    HW170740   1.761   6.744   1.052
56281SOL    HW270741   1.738   6.873   0.977
56282SOL     OW70742  10.170   6.661   0.682
56282SOL    HW170743  10.237   6.700   0.737
56282SOL    HW270744  10.111   6.733   0.660
56283SOL     OW70745   3.242   4.422   2.238
56283SOL    HW170746   3.272   4.426   2.328
56283SOL    HW270747   3.165   4.365   2.241
56284SOL     OW70748  12.953  14.743  14.783
56284SOL    HW170749  12.977  14.795  14.860
56284SOL    HW270750  13.027  14.755  14.723
56285SOL     OW70751  12.548  11.992   9.352
56285SOL    HW170752  12.486  11.976   9.423
56285SOL    HW270753  12.616  11.926   9.364
56286SOL     OW70754   3.161   9.154   0.905
56286SOL    HW170755   3.121   9.091   0.964
56286SOL    HW270756   3.109   9.148   0.825
56287SOL     OW70757   3.354   6.454   6.135
56287SOL    HW170758   3.374   6.430   6.226
56287SOL    HW270759   3.272   6.409   6.116
56288SOL     OW70760  12.604  10.166   4.691
56288SOL    HW170761  12.628  10.117   4.769
56288SOL    HW270762  12.518  10.132   4.665
56289SOL     OW70763  12.796   7.823   9.328
56289SOL    HW170764  12.729   7.770   9.285
56289SOL    HW270765  12.785   7.805   9.421
56290SOL     OW70766   7.495  12.522   1.244
56290SOL    HW170767   7.531  12.474   1.169
56290SOL    HW270768   7.401  12.526   1.227
56291SOL     OW70769  14.139   2.217   0.030
56291SOL    HW170770  14.116   2.129  14.871
56291SOL    HW270771  14.234   2.220   0.027
56292SOL     OW70772   9.917   5.784   1.090
56292SOL    HW170773  10.000   5.831   1.085
56292SOL    HW270774   9.884   5.802   1.178
56293SOL     OW70775   4.797   8.221   1.472
56293SOL    HW170776   4.706   8.194   1.482
56293SOL    HW270777   4.810   8.229   1.378
56294SOL     OW70778  11.179   0.746  12.559
56294SOL    HW170779  11.110   0.810  12.569
56294SOL    HW270780  11.134   0.665  12.533
56295SOL     OW70781   9.306   5.780  10.115
56295SOL    HW170782   9.333   5.760  10.205
56295SOL    HW270783   9.382   5.757  10.062
56296SOL     OW70784   2.051   4.134   9.574
56296SOL    HW170785   2.096   4.181   9.644
56296SOL    HW270786   2.049   4.044   9.604
56297SOL     OW70787   9.552   0.481   4.996
56297SOL    HW170788   9.503   0.528   5.062
56297SOL    HW270789   9.491   0.416   4.961
56298SOL     OW70790   8.396   5.976  13.043
56298SOL    HW170791   8.488   5.991  13.020
56298SOL    HW270792   8.349   6.049  13.003
56299SOL     OW70793   5.027   2.240   2.578
56299SOL    HW170794   4.950   2.184   2.568
56299SOL    HW270795   5.074   2.229   2.495
56300SOL     OW70796   0.785   3.751   1.033
56300SOL    HW170797   0.800   3.830   0.981
56300SOL    HW270798   0.850   3.756   1.103
56301SOL     OW70799  13.702  11.993   8.757
56301SOL    HW170800  13.620  11.952   8.728
56301SOL    HW270801  13.769  11.950   8.705
56302SOL     OW70802  14.815   1.538  13.241
56302SOL    HW170803   0.035   1.564  13.231
56302SOL    HW270804  14.799   1.479  13.167
56303SOL     OW70805   7.974  11.390  11.955
56303SOL    HW170806   7.887  11.427  11.938
56303SOL    HW270807   8.013  11.448  12.020
56304SOL     OW70808  12.970  12.149   6.584
56304SOL    HW170809  13.007  12.073   6.540
56304SOL    HW270810  12.989  12.136   6.677
56305SOL     OW70811  10.546   0.541   7.160
56305SOL    HW170812  10.478   0.559   7.225
56305SOL    HW270813  10.501   0.543   7.076
56306SOL     OW70814   2.522  12.470  13.533
56306SOL    HW170815   2.603  12.460  13.584
56306SOL    HW270816   2.485  12.382  13.529
56307SOL     OW70817  11.781   6.700  13.727
56307SOL    HW170818  11.797   6.611  13.696
56307SOL    HW270819  11.794   6.755  13.650
56308SOL     OW70820   3.554   0.268   2.021
56308SOL    HW170821   3.637   0.315   2.017
56308SOL    HW270822   3.511   0.287   1.938
56309SOL     OW70823   6.036   0.548  13.050
56309SOL    HW170824   5.964   0.611  13.044
56309SOL    HW270825   6.000   0.468  13.012
56310SOL     OW70826  12.753  13.465   1.549
56310SOL    HW170827  12.697  13.411   1.606
56310SOL    HW270828  12.816  13.506   1.609
56311SOL     OW70829   2.035   2.645   3.563
56311SOL    HW170830   1.961   2.585   3.560
56311SOL    HW270831   2.103   2.604   3.509
56312SOL     OW70832   7.478   8.413   0.288
56312SOL    HW170833   7.545   8.482   0.285
56312SOL    HW270834   7.508   8.348   0.225
56313SOL     OW70835  12.211   4.356  13.138
56313SOL    HW170836  12.187   4.417  13.209
56313SOL    HW270837  12.159   4.278  13.156
56314SOL     OW70838   7.633   8.472   0.687
56314SOL    HW170839   7.671   8.507   0.768
56314SOL    HW270840   7.567   8.536   0.662
56315SOL     OW70841  12.308   4.074   4.742
56315SOL    HW170842  12.221   4.066   4.781
56315SOL    HW270843  12.367   4.034   4.806
56316SOL     OW70844  11.976  12.954   0.969
56316SOL    HW170845  12.020  12.999   1.041
56316SOL    HW270846  11.949  12.870   1.006
56317SOL     OW70847  13.904  12.510   3.286
56317SOL    HW170848  13.969  12.525   3.218
56317SOL    HW270849  13.820  12.511   3.241
56318SOL     OW70850   4.436   8.637   2.552
56318SOL    HW170851   4.430   8.731   2.566
56318SOL    HW270852   4.525   8.614   2.579
56319SOL     OW70853   5.690   6.490   2.988
56319SOL    HW170854   5.599   6.470   3.007
56319SOL    HW270855   5.738   6.459   3.065
56320SOL     OW70856   7.671   2.413   0.267
56320SOL    HW170857   7.697   2.487   0.321
56320SOL    HW270858   7.713   2.337   0.309
56321SOL     OW70859   8.297   7.046   7.698
56321SOL    HW170860   8.351   6.986   7.646
56321SOL    HW270861   8.337   7.132   7.683
56322SOL     OW70862  11.995  14.430   2.206
56322SOL    HW170863  12.013  14.496   2.272
56322SOL    HW270864  11.900  14.417   2.209
56323SOL     OW70865   3.143   2.818   9.621
56323SOL    HW170866   3.117   2.758   9.692
56323SOL    HW270867   3.061   2.859   9.594
56324SOL     OW70868  12.264   9.917   9.219
56324SOL    HW170869  12.259   9.827   9.185
56324SOL    HW270870  12.345   9.952   9.181
56325SOL     OW70871   4.582  10.077  13.312
56325SOL    HW170872   4.672  10.109  13.302
56325SOL    HW270873   4.574  10.007  13.247
56326SOL     OW70874   9.363   5.433  14.238
56326SOL    HW170875   9.319   5.396  14.161
56326SOL    HW270876   9.306   5.505  14.265
56327SOL     OW70877   6.692   8.000   1.555
56327SOL    HW170878   6.686   7.937   1.483
56327SOL    HW270879   6.721   8.081   1.513
56328SOL     OW70880   7.588   8.213  14.498
56328SOL    HW170881   7.682   8.201  14.490
56328SOL    HW270882   7.564   8.164  14.577
56329SOL     OW70883   6.503   9.401   2.642
56329SOL    HW170884   6.418   9.413   2.599
56329SOL    HW270885   6.566   9.401   2.571
56330SOL     OW70886   9.419   6.951   0.394
56330SOL    HW170887   9.515   6.947   0.403
56330SOL    HW270888   9.396   7.040   0.420
56331SOL     OW70889  11.783   0.886   7.122
56331SOL    HW170890  11.797   0.977   7.149
56331SOL    HW270891  11.850   0.870   7.056
56332SOL     OW70892  10.107   3.549   2.573
56332SOL    HW170893  10.018   3.580   2.557
56332SOL    HW270894  10.115   3.472   2.517
56333SOL     OW70895   4.103   6.102  12.674
56333SOL    HW170896   4.026   6.099  12.618
56333SOL    HW270897   4.155   6.026  12.648
56334SOL     OW70898   4.582  12.331   5.454
56334SOL    HW170899   4.624  12.415   5.441
56334SOL    HW270900   4.639  12.284   5.516
56335SOL     OW70901  11.367   2.078  14.352
56335SOL    HW170902  11.424   2.152  14.330
56335SOL    HW270903  11.427   2.006  14.372
56336SOL     OW70904   1.623   7.189   9.505
56336SOL    HW170905   1.651   7.190   9.413
56336SOL    HW270906   1.702   7.167   9.553
56337SOL     OW70907   7.807  13.614   4.617
56337SOL    HW170908   7.811  13.684   4.683
56337SOL    HW270909   7.831  13.656   4.535
56338SOL     OW70910   4.168   8.502  13.401
56338SOL    HW170911   4.114   8.539  13.471
56338SOL    HW270912   4.193   8.415  13.433
56339SOL     OW70913  14.034   3.445  12.212
56339SOL    HW170914  14.020   3.412  12.123
56339SOL    HW270915  13.957   3.416  12.261
56340SOL     OW70916   8.562  12.739   6.301
56340SOL    HW170917   8.503  12.677   6.257
56340SOL    HW270918   8.616  12.684   6.357
56341SOL     OW70919  11.392   0.849  14.839
56341SOL    HW170920  11.336   0.787   0.015
56341SOL    HW270921  11.461   0.794  14.802
56342SOL     OW70922  10.298  14.762   0.697
56342SOL    HW170923  10.207  14.748   0.724
56342SOL    HW270924  10.293  14.784   0.604
56343SOL     OW70925   5.234  11.829   4.106
56343SOL    HW170926   5.307  11.885   4.133
56343SOL    HW270927   5.243  11.751   4.161
56344SOL     OW70928   5.943   6.089  11.064
56344SOL    HW170929   6.030   6.122  11.042
56344SOL    HW270930   5.930   6.116  11.155
56345SOL     OW70931   2.653  13.205   6.868
56345SOL    HW170932   2.723  13.156   6.825
56345SOL    HW270933   2.581  13.203   6.805
56346SOL     OW70934   0.536  10.134   1.510
56346SOL    HW170935   0.549  10.187   1.588
56346SOL    HW270936   0.589  10.177   1.443
56347SOL     OW70937   3.331   2.702   4.046
56347SOL    HW170938   3.387   2.768   4.086
56347SOL    HW270939   3.374   2.679   3.964
56348SOL     OW70940  14.235  11.532   8.228
56348SOL    HW170941  14.216  11.438   8.233
56348SOL    HW270942  14.165  11.573   8.277
56349SOL     OW70943  12.086   4.601   5.084
56349SOL    HW170944  12.076   4.670   5.149
56349SOL    HW270945  12.172   4.618   5.044
56350SOL     OW70946   8.167  10.594   4.553
56350SOL    HW170947   8.237  10.530   4.538
56350SOL    HW270948   8.112  10.554   4.621
56351SOL     OW70949   9.466   1.750  11.255
56351SOL    HW170950   9.523   1.675  11.272
56351SOL    HW270951   9.385   1.712  11.222
56352SOL     OW70952   0.100   1.371  11.040
56352SOL    HW170953   0.031   1.312  11.072
56352SOL    HW270954   0.169   1.365  11.105
56353SOL     OW70955   8.721   4.952   3.372
56353SOL    HW170956   8.725   5.047   3.361
56353SOL    HW270957   8.811   4.922   3.361
56354SOL     OW70958   2.902   9.391   4.393
56354SOL    HW170959   2.904   9.471   4.445
56354SOL    HW270960   2.859   9.327   4.450
56355SOL     OW70961   1.777   1.613   0.280
56355SOL    HW170962   1.731   1.683   0.326
56355SOL    HW270963   1.833   1.658   0.217
56356SOL     OW70964   9.493   9.184  11.343
56356SOL    HW170965   9.423   9.184  11.277
56356SOL    HW270966   9.449   9.156  11.424
56357SOL     OW70967  12.964   7.818  12.908
56357SOL    HW170968  12.934   7.789  12.822
56357SOL    HW270969  13.027   7.751  12.935
56358SOL     OW70970   1.008  10.994   2.485
56358SOL    HW170971   1.023  11.085   2.462
56358SOL    HW270972   0.937  10.966   2.426
56359SOL     OW70973   8.458   0.812   6.417
56359SOL    HW170974   8.525   0.754   6.381
56359SOL    HW270975   8.377   0.761   6.414
56360SOL     OW70976   9.559  14.786   3.975
56360SOL    HW170977   9.538  14.795   3.882
56360SOL    HW270978   9.647  14.822   3.983
56361SOL     OW70979   6.958   9.158  11.609
56361SOL    HW170980   6.933   9.208  11.531
56361SOL    HW270981   6.993   9.076  11.573
56362SOL     OW70982  11.242   2.863   3.936
56362SOL    HW170983  11.303   2.933   3.960
56362SOL    HW270984  11.164   2.909   3.907
56363SOL     OW70985   7.033   9.336   1.184
56363SOL    HW170986   7.126   9.358   1.186
56363SOL    HW270987   7.006   9.349   1.093
56364SOL     OW70988   4.838   7.403  13.777
56364SOL    HW170989   4.860   7.480  13.829
56364SOL    HW270990   4.861   7.329  13.834
56365SOL     OW70991   8.286  14.536   8.190
56365SOL    HW170992   8.193  14.525   8.169
56365SOL    HW270993   8.315  14.450   8.219
56366SOL     OW70994  14.328  10.832   8.374
56366SOL    HW170995  14.366  10.757   8.420
56366SOL    HW270996  14.246  10.799   8.338
56367SOL     OW70997   6.353   4.764   7.308
56367SOL    HW170998   6.394   4.679   7.292
56367SOL    HW270999   6.426   4.823   7.323
56368SOL     OW71000  13.770   4.962   3.000
56368SOL    HW171001  13.814   4.877   2.999
56368SOL    HW271002  13.754   4.982   2.908
56369SOL     OW71003   6.409   6.737  11.145
56369SOL    HW171004   6.452   6.809  11.192
56369SOL    HW271005   6.481   6.688  11.106
56370SOL     OW71006  11.610  14.041   9.047
56370SOL    HW171007  11.598  14.061   9.140
56370SOL    HW271008  11.680  14.101   9.019
56371SOL     OW71009  13.599   3.827   7.536
56371SOL    HW171010  13.687   3.797   7.557
56371SOL    HW271011  13.612   3.901   7.476
56372SOL     OW71012   4.637   7.952  11.455
56372SOL    HW171013   4.660   8.003  11.377
56372SOL    HW271014   4.634   8.017  11.526
56373SOL     OW71015   3.499   5.953   6.736
56373SOL    HW171016   3.506   5.897   6.813
56373SOL    HW271017   3.483   5.892   6.664
56374SOL     OW71018   5.131   5.915  10.010
56374SOL    HW171019   5.053   5.962  10.039
56374SOL    HW271020   5.180   5.897  10.090
56375SOL     OW71021   3.311   2.974   9.203
56375SOL    HW171022   3.312   2.925   9.286
56375SOL    HW271023   3.245   3.042   9.217
56376SOL     OW71024  11.919   3.789  11.780
56376SOL    HW171025  11.847   3.846  11.757
56376SOL    HW271026  11.918   3.721  11.712
56377SOL     OW71027   5.036  12.894   7.300
56377SOL    HW171028   4.982  12.944   7.239
56377SOL    HW271029   5.064  12.958   7.366
56378SOL     OW71030   5.090   9.898  12.343
56378SOL    HW171031   5.019   9.918  12.405
56378SOL    HW271032   5.169   9.906  12.396
56379SOL     OW71033   7.994   8.499   6.528
56379SOL    HW171034   7.901   8.477   6.533
56379SOL    HW271035   8.039   8.423   6.567
56380SOL     OW71036  13.535   6.869   4.646
56380SOL    HW171037  13.493   6.904   4.568
56380SOL    HW271038  13.482   6.792   4.669
56381SOL     OW71039  13.503   4.686   6.416
56381SOL    HW171040  13.504   4.768   6.367
56381SOL    HW271041  13.436   4.633   6.373
56382SOL     OW71042  12.690   6.617   9.594
56382SOL    HW171043  12.757   6.682   9.616
56382SOL    HW271044  12.704   6.600   9.500
56383SOL     OW71045  11.224   6.882   1.585
56383SOL    HW171046  11.253   6.966   1.549
56383SOL    HW271047  11.260   6.816   1.525
56384SOL     OW71048  10.909  13.975   6.545
56384SOL    HW171049  10.939  14.057   6.503
56384SOL    HW271050  10.897  13.915   6.472
56385SOL     OW71051   5.069   5.786   3.297
56385SOL    HW171052   5.102   5.713   3.350
56385SOL    HW271053   5.146   5.841   3.283
56386SOL     OW71054   4.872   9.434  12.023
56386SOL    HW171055   4.954   9.400  11.989
56386SOL    HW271056   4.832   9.479  11.949
56387SOL     OW71057   2.382  10.307  14.869
56387SOL    HW171058   2.427  10.277  14.791
56387SOL    HW271059   2.330  10.383  14.841
56388SOL     OW71060   2.484  12.177  11.123
56388SOL    HW171061   2.416  12.133  11.071
56388SOL    HW271062   2.552  12.111  11.136
56389SOL     OW71063   5.955  13.267   4.590
56389SOL    HW171064   5.880  13.327   4.588
56389SOL    HW271065   5.916  13.180   4.586
56390SOL     OW71066  13.095   9.502   8.943
56390SOL    HW171067  13.148   9.550   9.006
56390SOL    HW271068  13.138   9.517   8.859
56391SOL     OW71069   1.430   4.886   1.732
56391SOL    HW171070   1.339   4.913   1.744
56391SOL    HW271071   1.426   4.791   1.721
56392SOL     OW71072   9.702   6.330  10.921
56392SOL    HW171073   9.608   6.335  10.939
56392SOL    HW271074   9.713   6.374  10.837
56393SOL     OW71075   0.983  14.685   5.419
56393SOL    HW171076   0.980  14.630   5.497
56393SOL    HW271077   0.905  14.661   5.369
56394SOL     OW71078   9.489   1.624   6.475
56394SOL    HW171079   9.547   1.549   6.490
56394SOL    HW271080   9.405   1.585   6.452
56395SOL     OW71081   9.022  11.213   9.280
56395SOL    HW171082   9.082  11.259   9.339
56395SOL    HW271083   9.079  11.159   9.226
56396SOL     OW71084   7.794   2.200  10.034
56396SOL    HW171085   7.865   2.246   9.990
56396SOL    HW271086   7.717   2.256  10.022
56397SOL     OW71087   5.084  12.689   0.466
56397SOL    HW171088   5.040  12.708   0.548
56397SOL    HW271089   5.109  12.596   0.472
56398SOL     OW71090   3.747   0.564  11.784
56398SOL    HW171091   3.728   0.619  11.860
56398SOL    HW271092   3.713   0.614  11.709
56399SOL     OW71093  11.031   2.351   8.176
56399SOL    HW171094  11.043   2.334   8.082
56399SOL    HW271095  10.966   2.421   8.178
56400SOL     OW71096  11.107   0.314   1.470
56400SOL    HW171097  11.085   0.235   1.520
56400SOL    HW271098  11.185   0.348   1.513
56401SOL     OW71099   5.071  12.358  14.522
56401SOL    HW171100   4.982  12.391  14.528
56401SOL    HW271101   5.117  12.400  14.596
56402SOL     OW71102   4.854  14.697   1.589
56402SOL    HW171103   4.788  14.756   1.552
56402SOL    HW271104   4.904  14.667   1.513
56403SOL     OW71105   2.825   0.375   6.520
56403SOL    HW171106   2.825   0.284   6.492
56403SOL    HW271107   2.741   0.386   6.565
56404SOL     OW71108   3.666  13.097  12.007
56404SOL    HW171109   3.596  13.051  12.052
56404SOL    HW271110   3.659  13.188  12.037
56405SOL     OW71111  13.050   2.953   4.741
56405SOL    HW171112  13.066   2.953   4.647
56405SOL    HW271113  13.098   3.029   4.774
56406SOL     OW71114   6.969  13.849  14.822
56406SOL    HW171115   6.887  13.830  14.777
56406SOL    HW271116   6.953  13.827   0.042
56407SOL     OW71117  14.382   9.959  12.005
56407SOL    HW171118  14.343   9.999  11.928
56407SOL    HW271119  14.445   9.895  11.971
56408SOL     OW71120   3.764   4.419   7.768
56408SOL    HW171121   3.760   4.441   7.861
56408SOL    HW271122   3.696   4.353   7.757
56409SOL     OW71123  12.418  14.723   4.552
56409SOL    HW171124  12.381  14.640   4.523
56409SOL    HW271125  12.346  14.766   4.598
56410SOL     OW71126   5.661   9.879   0.989
56410SOL    HW171127   5.609   9.891   1.069
56410SOL    HW271128   5.718   9.805   1.008
56411SOL     OW71129   8.283   8.785   5.116
56411SOL    HW171130   8.209   8.838   5.147
56411SOL    HW271131   8.258   8.695   5.134
56412SOL     OW71132   9.994   1.283  11.522
56412SOL    HW171133   9.976   1.294  11.616
56412SOL    HW271134  10.002   1.373  11.489
56413SOL     OW71135  10.030   2.138   4.797
56413SOL    HW171136  10.045   2.223   4.756
56413SOL    HW271137   9.984   2.087   4.731
56414SOL     OW71138   4.790   2.162   5.928
56414SOL    HW171139   4.851   2.176   6.000
56414SOL    HW271140   4.704   2.159   5.970
56415SOL     OW71141   4.583  11.225   5.237
56415SOL    HW171142   4.675  11.207   5.214
56415SOL    HW271143   4.542  11.139   5.241
56416SOL     OW71144  14.198   9.651  14.122
56416SOL    HW171145  14.182   9.689  14.208
56416SOL    HW271146  14.289   9.672  14.103
56417SOL     OW71147   9.877   7.076   1.784
56417SOL    HW171148   9.885   7.072   1.689
56417SOL    HW271149   9.896   6.987   1.814
56418SOL     OW71150  12.503  11.455  12.343
56418SOL    HW171151  12.470  11.365  12.341
56418SOL    HW271152  12.452  11.497  12.413
56419SOL     OW71153  11.695  11.032   0.334
56419SOL    HW171154  11.696  11.071   0.247
56419SOL    HW271155  11.746  10.952   0.325
56420SOL     OW71156   7.995   5.006   9.733
56420SOL    HW171157   7.980   4.982   9.825
56420SOL    HW271158   8.000   5.102   9.734
56421SOL     OW71159  13.653  11.823   1.219
56421SOL    HW171160  13.658  11.740   1.171
56421SOL    HW271161  13.562  11.850   1.209
56422SOL     OW71162   1.482  10.529   3.205
56422SOL    HW171163   1.401  10.580   3.199
56422SOL    HW271164   1.498  10.520   3.299
56423SOL     OW71165  13.570  12.201   3.444
56423SOL    HW171166  13.540  12.246   3.523
56423SOL    HW271167  13.609  12.120   3.476
56424SOL     OW71168   2.047  12.891   2.477
56424SOL    HW171169   2.039  12.868   2.385
56424SOL    HW271170   2.070  12.984   2.477
56425SOL     OW71171   0.958   2.395  13.453
56425SOL    HW171172   1.050   2.418  13.465
56425SOL    HW271173   0.958   2.299  13.447
56426SOL     OW71174   4.296   7.614   6.128
56426SOL    HW171175   4.367   7.677   6.145
56426SOL    HW271176   4.308   7.546   6.195
56427SOL     OW71177   5.218  14.624   5.367
56427SOL    HW171178   5.296  14.624   5.422
56427SOL    HW271179   5.226  14.703   5.313
56428SOL     OW71180   0.460   4.769   1.543
56428SOL    HW171181   0.483   4.836   1.607
56428SOL    HW271182   0.533   4.771   1.480
56429SOL     OW71183   6.303   0.820   6.548
56429SOL    HW171184   6.263   0.867   6.620
56429SOL    HW271185   6.265   0.733   6.551
56430SOL     OW71186   6.430   0.819   1.876
56430SOL    HW171187   6.345   0.847   1.844
56430SOL    HW271188   6.455   0.886   1.941
56431SOL     OW71189  13.889   6.870   6.271
56431SOL    HW171190  13.967   6.826   6.305
56431SOL    HW271191  13.839   6.800   6.227
56432SOL     OW71192  14.693   1.443   9.045
56432SOL    HW171193  14.781   1.442   9.006
56432SOL    HW271194  14.636   1.410   8.976
56433SOL     OW71195   5.215   3.210   2.962
56433SOL    HW171196   5.184   3.139   2.905
56433SOL    HW271197   5.163   3.286   2.934
56434SOL     OW71198  14.437   6.767  14.799
56434SOL    HW171199  14.373   6.835  14.818
56434SOL    HW271200  14.435   6.708   0.004
56435SOL     OW71201   9.084   7.751   5.304
56435SOL    HW171202   9.015   7.783   5.361
56435SOL    HW271203   9.078   7.805   5.225
56436SOL     OW71204  12.044  13.939   6.953
56436SOL    HW171205  11.963  13.945   7.004
56436SOL    HW271206  12.101  14.007   6.990
56437SOL     OW71207  13.064   3.019   7.680
56437SOL    HW171208  13.019   3.086   7.629
56437SOL    HW271209  13.009   3.005   7.757
56438SOL     OW71210  14.123   2.268   7.746
56438SOL    HW171211  14.121   2.334   7.676
56438SOL    HW271212  14.052   2.293   7.804
56439SOL     OW71213   3.408   9.579   1.616
56439SOL    HW171214   3.457   9.661   1.617
56439SOL    HW271215   3.326   9.601   1.571
56440SOL     OW71216   8.384   7.970   5.993
56440SOL    HW171217   8.399   8.003   6.082
56440SOL    HW271218   8.300   7.925   5.998
56441SOL     OW71219   2.690   1.003   0.873
56441SOL    HW171220   2.615   1.058   0.897
56441SOL    HW271221   2.727   0.977   0.957
56442SOL     OW71222   5.693  13.331   3.261
56442SOL    HW171223   5.671  13.322   3.354
56442SOL    HW271224   5.631  13.275   3.216
56443SOL     OW71225   9.544  14.550   5.527
56443SOL    HW171226   9.619  14.516   5.575
56443SOL    HW271227   9.468  14.509   5.568
56444SOL     OW71228  10.139   3.368   2.952
56444SOL    HW171229  10.190   3.424   2.894
56444SOL    HW271230  10.073   3.426   2.989
56445SOL     OW71231   9.114   5.707  11.154
56445SOL    HW171232   9.203   5.688  11.126
56445SOL    HW271233   9.060   5.641  11.112
56446SOL     OW71234   1.388  11.474   5.266
56446SOL    HW171235   1.396  11.570   5.267
56446SOL    HW271236   1.295  11.458   5.276
56447SOL     OW71237   1.579   3.597   2.735
56447SOL    HW171238   1.581   3.522   2.795
56447SOL    HW271239   1.671   3.622   2.726
56448SOL     OW71240   8.652   2.277   8.896
56448SOL    HW171241   8.672   2.366   8.926
56448SOL    HW271242   8.557   2.276   8.885
56449SOL     OW71243   2.285   4.247  14.053
56449SOL    HW171244   2.251   4.203  13.974
56449SOL    HW271245   2.376   4.267  14.032
56450SOL     OW71246   5.734  10.113   0.474
56450SOL    HW171247   5.808  10.081   0.526
56450SOL    HW271248   5.765  10.109   0.384
56451SOL     OW71249   8.643  12.079   9.427
56451SOL    HW171250   8.680  12.094   9.515
56451SOL    HW271251   8.600  11.993   9.433
56452SOL     OW71252   2.502   4.567   9.721
56452SOL    HW171253   2.590   4.550   9.755
56452SOL    HW271254   2.443   4.546   9.793
56453SOL     OW71255  10.631   7.103  13.970
56453SOL    HW171256  10.575   7.181  13.967
56453SOL    HW271257  10.571   7.030  13.955
56454SOL     OW71258  11.753   7.398   9.011
56454SOL    HW171259  11.847   7.416   9.022
56454SOL    HW271260  11.735   7.327   9.072
56455SOL     OW71261   2.183  10.637   1.601
56455SOL    HW171262   2.221  10.600   1.522
56455SOL    HW271263   2.171  10.730   1.580
56456SOL     OW71264  12.992  10.438   7.362
56456SOL    HW171265  13.062  10.478   7.413
56456SOL    HW271266  13.010  10.465   7.272
56457SOL     OW71267   2.302   4.874   7.273
56457SOL    HW171268   2.302   4.903   7.365
56457SOL    HW271269   2.347   4.790   7.275
56458SOL     OW71270   0.139  10.220   9.023
56458SOL    HW171271   0.212  10.167   9.055
56458SOL    HW271272   0.174  10.309   9.018
56459SOL     OW71273   1.025   8.241  12.035
56459SOL    HW171274   0.996   8.257  11.945
56459SOL    HW271275   1.053   8.149  12.035
56460SOL     OW71276   9.524   8.867   8.361
56460SOL    HW171277   9.482   8.885   8.276
56460SOL    HW271278   9.479   8.926   8.422
56461SOL     OW71279   2.913   6.171   0.089
56461SOL    HW171280   2.845   6.231   0.119
56461SOL    HW271281   2.993   6.222   0.089
56462SOL     OW71282  14.012   0.155  12.498
56462SOL    HW171283  14.101   0.153  12.533
56462SOL    HW271284  14.019   0.206  12.417
56463SOL     OW71285   0.092  14.019   7.308
56463SOL    HW171286   0.001  14.008   7.279
56463SOL    HW271287   0.119  14.103   7.270
56464SOL     OW71288  13.791   3.679  13.032
56464SOL    HW171289  13.731   3.748  13.002
56464SOL    HW271290  13.795   3.691  13.127
56465SOL     OW71291  10.352   6.221  12.116
56465SOL    HW171292  10.356   6.193  12.208
56465SOL    HW271293  10.376   6.142  12.066
56466SOL     OW71294  11.466  12.026   4.791
56466SOL    HW171295  11.467  12.067   4.878
56466SOL    HW271296  11.484  12.098   4.730
56467SOL     OW71297   0.536   9.958  12.268
56467SOL    HW171298   0.535   9.991  12.358
56467SOL    HW271299   0.595  10.017  12.222
56468SOL     OW71300   2.965  13.806   0.616
56468SOL    HW171301   3.042  13.750   0.612
56468SOL    HW271302   2.979  13.872   0.548
56469SOL     OW71303   2.607  13.194  12.699
56469SOL    HW171304   2.599  13.138  12.622
56469SOL    HW271305   2.569  13.278  12.672
56470SOL     OW71306  12.232   4.818  11.962
56470SOL    HW171307  12.247   4.882  12.032
56470SOL    HW271308  12.204   4.739  12.007
56471SOL     OW71309   7.118   7.444   0.202
56471SOL    HW171310   7.135   7.371   0.143
56471SOL    HW271311   7.188   7.438   0.268
56472SOL     OW71312   3.931   8.958   0.210
56472SOL    HW171313   3.850   8.923   0.173
56472SOL    HW271314   3.963   8.888   0.268
56473SOL     OW71315  13.100  13.805   0.378
56473SOL    HW171316  13.051  13.723   0.372
56473SOL    HW271317  13.191  13.779   0.363
56474SOL     OW71318  13.112  11.656   0.168
56474SOL    HW171319  13.035  11.625   0.217
56474SOL    HW271320  13.093  11.748   0.151
56475SOL     OW71321   3.388   6.849   0.208
56475SOL    HW171322   3.347   6.789   0.270
56475SOL    HW271323   3.455   6.894   0.259
56476SOL     OW71324   4.757   0.096   8.513
56476SOL    HW171325   4.814   0.021   8.493
56476SOL    HW271326   4.767   0.109   8.607
56477SOL     OW71327  10.099  11.464   3.913
56477SOL    HW171328  10.194  11.456   3.905
56477SOL    HW271329  10.086  11.497   4.002
56478SOL     OW71330   5.560  11.443   6.320
56478SOL    HW171331   5.617  11.514   6.348
56478SOL    HW271332   5.489  11.486   6.273
56479SOL     OW71333   8.248   7.907  12.996
56479SOL    HW171334   8.271   7.814  12.990
56479SOL    HW271335   8.152   7.908  12.988
56480SOL     OW71336   1.495  12.282   1.428
56480SOL    HW171337   1.504  12.317   1.339
56480SOL    HW271338   1.584  12.281   1.463
56481SOL     OW71339   6.469  13.180  12.063
56481SOL    HW171340   6.436  13.149  11.978
56481SOL    HW271341   6.390  13.192  12.116
56482SOL     OW71342   6.888   8.250   3.375
56482SOL    HW171343   6.936   8.168   3.382
56482SOL    HW271344   6.796   8.224   3.367
56483SOL     OW71345   0.678  12.281   0.618
56483SOL    HW171346   0.686  12.188   0.639
56483SOL    HW271347   0.734  12.325   0.682
56484SOL     OW71348   4.070   8.519  13.758
56484SOL    HW171349   4.040   8.461  13.828
56484SOL    HW271350   4.084   8.604  13.801
56485SOL     OW71351   9.109  10.917   9.058
56485SOL    HW171352   9.027  10.964   9.045
56485SOL    HW271353   9.083  10.825   9.064
56486SOL     OW71354   9.047   4.553  14.448
56486SOL    HW171355   9.010   4.537  14.535
56486SOL    HW271356   9.135   4.516  14.452
56487SOL     OW71357  10.679  12.570  11.883
56487SOL    HW171358  10.711  12.497  11.937
56487SOL    HW271359  10.717  12.648  11.923
56488SOL     OW71360   0.168   2.936   6.671
56488SOL    HW171361   0.159   3.031   6.674
56488SOL    HW271362   0.138   2.911   6.584
56489SOL     OW71363   4.759  13.854   4.072
56489SOL    HW171364   4.725  13.787   4.013
56489SOL    HW271365   4.791  13.923   4.013
56490SOL     OW71366   3.356   5.369   8.663
56490SOL    HW171367   3.278   5.424   8.652
56490SOL    HW271368   3.334   5.287   8.620
56491SOL     OW71369   9.371  11.716   0.049
56491SOL    HW171370   9.380  11.695  14.828
56491SOL    HW271371   9.443  11.777   0.067
56492SOL     OW71372   2.822   9.582  14.062
56492SOL    HW171373   2.916   9.571  14.053
56492SOL    HW271374   2.800   9.652  14.000
56493SOL     OW71375   9.831   5.086   2.520
56493SOL    HW171376   9.901   5.128   2.570
56493SOL    HW271377   9.840   4.993   2.538
56494SOL     OW71378   9.048   6.013   2.245
56494SOL    HW171379   9.088   5.926   2.247
56494SOL    HW271380   9.073   6.052   2.329
56495SOL     OW71381   1.145  14.355   2.763
56495SOL    HW171382   1.240  14.345   2.776
56495SOL    HW271383   1.137  14.411   2.686
56496SOL     OW71384   6.529  12.088   1.974
56496SOL    HW171385   6.614  12.060   2.008
56496SOL    HW271386   6.465  12.039   2.026
56497SOL     OW71387   4.949   1.312  13.866
56497SOL    HW171388   5.032   1.357  13.852
56497SOL    HW271389   4.955   1.234  13.811
56498SOL     OW71390   1.898   6.427   4.700
56498SOL    HW171391   1.857   6.482   4.767
56498SOL    HW271392   1.971   6.480   4.668
56499SOL     OW71393  14.098  14.477   8.442
56499SOL    HW171394  14.041  14.546   8.475
56499SOL    HW271395  14.057  14.448   8.361
56500SOL     OW71396  10.424   4.389  13.534
56500SOL    HW171397  10.398   4.297  13.545
56500SOL    HW271398  10.416   4.426  13.622
56501SOL     OW71399   6.703  13.650   3.103
56501SOL    HW171400   6.799  13.649   3.102
56501SOL    HW271401   6.679  13.559   3.086
56502SOL     OW71402   5.449   4.901   1.028
56502SOL    HW171403   5.527   4.930   0.981
56502SOL    HW271404   5.444   4.957   1.105
56503SOL     OW71405   4.875  10.442   4.981
56503SOL    HW171406   4.863  10.372   5.046
56503SOL    HW271407   4.786  10.466   4.956
56504SOL     OW71408   6.171   4.517  11.645
56504SOL    HW171409   6.185   4.604  11.682
56504SOL    HW271410   6.141   4.465  11.720
56505SOL     OW71411  10.217   9.190   1.826
56505SOL    HW171412  10.137   9.139   1.842
56505SOL    HW271413  10.193   9.249   1.755
56506SOL     OW71414   2.061   3.814  14.452
56506SOL    HW171415   2.152   3.821  14.481
56506SOL    HW271416   2.010   3.857  14.521
56507SOL     OW71417   0.652  12.777   5.285
56507SOL    HW171418   0.702  12.777   5.203
56507SOL    HW271419   0.570  12.823   5.263
56508SOL     OW71420   4.044   4.784   9.313
56508SOL    HW171421   4.003   4.705   9.349
56508SOL    HW271422   3.970   4.838   9.285
56509SOL     OW71423  12.139  13.002  12.485
56509SOL    HW171424  12.132  13.087  12.528
56509SOL    HW271425  12.225  13.003  12.443
56510SOL     OW71426  12.040  13.772   5.224
56510SOL    HW171427  12.104  13.705   5.249
56510SOL    HW271428  12.079  13.854   5.254
56511SOL     OW71429   6.264   2.801   2.010
56511SOL    HW171430   6.270   2.893   1.985
56511SOL    HW271431   6.183   2.794   2.059
56512SOL     OW71432   0.610   7.116   4.318
56512SOL    HW171433   0.658   7.112   4.235
56512SOL    HW271434   0.542   7.182   4.303
56513SOL     OW71435   5.394   6.102  11.738
56513SOL    HW171436   5.461   6.170  11.731
56513SOL    HW271437   5.436   6.023  11.704
56514SOL     OW71438  10.923   3.063  12.447
56514SOL    HW171439  10.922   2.981  12.397
56514SOL    HW271440  10.992   3.115  12.408
56515SOL     OW71441   5.603  10.181   1.110
56515SOL    HW171442   5.581  10.090   1.126
56515SOL    HW271443   5.662  10.205   1.181
56516SOL     OW71444   8.821   6.108   8.050
56516SOL    HW171445   8.837   6.015   8.063
56516SOL    HW271446   8.788   6.139   8.134
56517SOL     OW71447  10.699   9.827   8.286
56517SOL    HW171448  10.764   9.806   8.353
56517SOL    HW271449  10.750   9.831   8.205
56518SOL     OW71450   9.976   2.270  11.641
56518SOL    HW171451   9.980   2.298  11.549
56518SOL    HW271452  10.000   2.348  11.691
56519SOL     OW71453  12.479   3.425   0.515
56519SOL    HW171454  12.415   3.441   0.584
56519SOL    HW271455  12.544   3.368   0.554
56520SOL     OW71456  12.778   1.605   3.694
56520SOL    HW171457  12.824   1.681   3.730
56520SOL    HW271458  12.825   1.529   3.729
56521SOL     OW71459  11.666   4.340  10.114
56521SOL    HW171460  11.706   4.266  10.159
56521SOL    HW271461  11.572   4.332  10.132
56522SOL     OW71462   6.027   2.169  13.681
56522SOL    HW171463   6.121   2.162  13.668
56522SOL    HW271464   6.008   2.109  13.753
56523SOL     OW71465   4.698  13.888   3.070
56523SOL    HW171466   4.669  13.797   3.062
56523SOL    HW271467   4.654  13.933   2.998
56524SOL     OW71468   0.702  11.539   6.999
56524SOL    HW171469   0.688  11.494   6.916
56524SOL    HW271470   0.783  11.589   6.986
56525SOL     OW71471   2.792   6.175  12.943
56525SOL    HW171472   2.838   6.097  12.911
56525SOL    HW271473   2.705   6.143  12.968
56526SOL     OW71474   8.006  13.574   0.807
56526SOL    HW171475   7.991  13.506   0.874
56526SOL    HW271476   8.079  13.539   0.755
56527SOL     OW71477   2.703   2.677   0.513
56527SOL    HW171478   2.675   2.619   0.584
56527SOL    HW271479   2.765   2.737   0.554
56528SOL     OW71480  11.191  10.330   0.774
56528SOL    HW171481  11.219  10.243   0.803
56528SOL    HW271482  11.269  10.385   0.786
56529SOL     OW71483   1.405  10.763   1.631
56529SOL    HW171484   1.464  10.821   1.678
56529SOL    HW271485   1.443  10.675   1.642
56530SOL     OW71486   8.363   4.631  10.566
56530SOL    HW171487   8.442   4.594  10.527
56530SOL    HW271488   8.335   4.566  10.630
56531SOL     OW71489   9.359   6.981   4.595
56531SOL    HW171490   9.404   6.898   4.606
56531SOL    HW271491   9.428   7.047   4.600
56532SOL     OW71492   7.589   5.715  13.996
56532SOL    HW171493   7.586   5.636  14.051
56532SOL    HW271494   7.658   5.769  14.034
56533SOL     OW71495  13.056   8.841   4.884
56533SOL    HW171496  13.038   8.924   4.839
56533SOL    HW271497  13.108   8.867   4.961
56534SOL     OW71498   0.718   0.647  12.643
56534SOL    HW171499   0.634   0.667  12.604
56534SOL    HW271500   0.770   0.727  12.631
56535SOL     OW71501   5.016   9.678   5.573
56535SOL    HW171502   5.081   9.680   5.643
56535SOL    HW271503   5.012   9.585   5.547
56536SOL     OW71504   9.291   4.665   0.122
56536SOL    HW171505   9.306   4.636   0.031
56536SOL    HW271506   9.260   4.755   0.114
56537SOL     OW71507   4.159   0.180  11.496
56537SOL    HW171508   4.129   0.092  11.519
56537SOL    HW271509   4.146   0.187  11.402
56538SOL     OW71510   7.605   7.780  12.418
56538SOL    HW171511   7.644   7.863  12.444
56538SOL    HW271512   7.569   7.743  12.498
56539SOL     OW71513  11.942   5.482   8.956
56539SOL    HW171514  11.980   5.564   8.926
56539SOL    HW271515  11.920   5.434   8.876
56540SOL     OW71516   3.594  10.859   7.569
56540SOL    HW171517   3.581  10.918   7.644
56540SOL    HW271518   3.529  10.790   7.583
56541SOL     OW71519   5.155   1.927   0.575
56541SOL    HW171520   5.185   1.906   0.663
56541SOL    HW271521   5.185   1.853   0.521
56542SOL     OW71522   5.598   9.211   1.291
56542SOL    HW171523   5.540   9.185   1.362
56542SOL    HW271524   5.632   9.129   1.256
56543SOL     OW71525  14.611   1.379   0.009
56543SOL    HW171526  14.583   1.470   0.019
56543SOL    HW271527  14.684   1.383  14.819
56544SOL     OW71528  10.801   3.201   0.798
56544SOL    HW171529  10.788   3.294   0.814
56544SOL    HW271530  10.887   3.182   0.836
56545SOL     OW71531   1.828  12.401   8.400
56545SOL    HW171532   1.869  12.470   8.349
56545SOL    HW271533   1.839  12.322   8.348
56546SOL     OW71534  14.824   1.419  10.377
56546SOL    HW171535  14.844   1.368  10.455
56546SOL    HW271536  14.732   1.399  10.358
56547SOL     OW71537   1.933   6.172  14.425
56547SOL    HW171538   1.998   6.198  14.490
56547SOL    HW271539   1.876   6.111  14.471
56548SOL     OW71540   8.654   7.875   6.010
56548SOL    HW171541   8.686   7.963   5.994
56548SOL    HW271542   8.564   7.875   5.979
56549SOL     OW71543  13.574  10.517  12.399
56549SOL    HW171544  13.520  10.556  12.468
56549SOL    HW271545  13.572  10.582  12.328
56550SOL     OW71546   4.127   0.864   5.123
56550SOL    HW171547   4.181   0.941   5.103
56550SOL    HW271548   4.187   0.803   5.165
56551SOL     OW71549   1.404  11.327  13.165
56551SOL    HW171550   1.448  11.244  13.183
56551SOL    HW271551   1.443  11.388  13.227
56552SOL     OW71552  14.600  14.411   4.288
56552SOL    HW171553  14.682  14.361   4.285
56552SOL    HW271554  14.627  14.502   4.298
56553SOL     OW71555   8.042   4.918   9.242
56553SOL    HW171556   7.988   4.885   9.170
56553SOL    HW271557   8.120   4.862   9.239
56554SOL     OW71558  11.175   0.597  13.109
56554SOL    HW171559  11.195   0.664  13.044
56554SOL    HW271560  11.244   0.531  13.098
56555SOL     OW71561   6.238   4.131  11.624
56555SOL    HW171562   6.306   4.113  11.559
56555SOL    HW271563   6.158   4.094  11.587
56556SOL     OW71564   2.355  13.604   3.790
56556SOL    HW171565   2.263  13.629   3.792
56556SOL    HW271566   2.401  13.676   3.832
56557SOL     OW71567  11.636   6.993   9.539
56557SOL    HW171568  11.617   6.955   9.625
56557SOL    HW271569  11.640   7.087   9.555
56558SOL     OW71570   0.344   4.738  14.855
56558SOL    HW171571   0.366   4.649  14.829
56558SOL    HW271572   0.273   4.764  14.796
56559SOL     OW71573  11.347   2.817  10.444
56559SOL    HW171574  11.363   2.771  10.526
56559SOL    HW271575  11.416   2.787  10.385
56560SOL     OW71576   4.899  11.961   4.094
56560SOL    HW171577   4.882  11.904   4.169
56560SOL    HW271578   4.964  11.913   4.042
56561SOL     OW71579  14.530  10.335  10.718
56561SOL    HW171580  14.609  10.334  10.664
56561SOL    HW271581  14.500  10.426  10.714
56562SOL     OW71582   3.610   4.212  12.875
56562SOL    HW171583   3.611   4.153  12.800
56562SOL    HW271584   3.580   4.158  12.948
56563SOL     OW71585   5.857   1.281  14.816
56563SOL    HW171586   5.879   1.261  14.725
56563SOL    HW271587   5.922   1.346  14.843
56564SOL     OW71588   8.076   1.674   8.677
56564SOL    HW171589   8.152   1.728   8.700
56564SOL    HW271590   8.088   1.653   8.585
56565SOL     OW71591   5.747   1.747  14.498
56565SOL    HW171592   5.745   1.842  14.510
56565SOL    HW271593   5.805   1.715  14.567
56566SOL     OW71594   9.539  14.136   6.376
56566SOL    HW171595   9.574  14.058   6.420
56566SOL    HW271596   9.453  14.109   6.345
56567SOL     OW71597   3.181  14.154   8.241
56567SOL    HW171598   3.240  14.151   8.316
56567SOL    HW271599   3.235  14.180   8.167
56568SOL     OW71600   9.612   6.036   2.962
56568SOL    HW171601   9.608   6.036   2.867
56568SOL    HW271602   9.634   5.946   2.985
56569SOL     OW71603   3.046  10.749   3.570
56569SOL    HW171604   3.059  10.793   3.486
56569SOL    HW271605   3.134  10.747   3.609
56570SOL     OW71606   3.075  13.317   2.412
56570SOL    HW171607   3.062  13.312   2.507
56570SOL    HW271608   3.019  13.248   2.377
56571SOL     OW71609   0.214   6.912  10.633
56571SOL    HW171610   0.261   6.852  10.576
56571SOL    HW271611   0.211   6.994  10.584
56572SOL     OW71612  11.945   1.920  14.112
56572SOL    HW171613  11.934   1.840  14.164
56572SOL    HW271614  11.923   1.991  14.173
56573SOL     OW71615  12.808   7.873   2.073
56573SOL    HW171616  12.785   7.797   2.021
56573SOL    HW271617  12.732   7.931   2.065
56574SOL     OW71618   6.472   9.884   6.362
56574SOL    HW171619   6.416   9.806   6.365
56574SOL    HW271620   6.531   9.874   6.436
56575SOL     OW71621  14.479  10.623   6.086
56575SOL    HW171622  14.531  10.548   6.055
56575SOL    HW271623  14.442  10.661   6.006
56576SOL     OW71624   4.442   1.672  14.405
56576SOL    HW171625   4.427   1.593  14.354
56576SOL    HW271626   4.521   1.711  14.367
56577SOL     OW71627   8.881  10.863  12.138
56577SOL    HW171628   8.955  10.875  12.198
56577SOL    HW271629   8.874  10.768  12.129
56578SOL     OW71630   1.884   9.631   0.261
56578SOL    HW171631   1.888   9.551   0.209
56578SOL    HW271632   1.975   9.660   0.268
56579SOL     OW71633   5.266  14.377   4.829
56579SOL    HW171634   5.299  14.323   4.757
56579SOL    HW271635   5.343  14.420   4.865
56580SOL     OW71636   7.405   8.078  10.133
56580SOL    HW171637   7.346   8.016  10.176
56580SOL    HW271638   7.377   8.078  10.042
56581SOL     OW71639   5.519   0.086   4.574
56581SOL    HW171640   5.445   0.129   4.618
56581SOL    HW271641   5.582   0.157   4.559
56582SOL     OW71642  13.759  10.352  10.625
56582SOL    HW171643  13.765  10.440  10.664
56582SOL    HW271644  13.723  10.368  10.537
56583SOL     OW71645   7.822   5.689   5.027
56583SOL    HW171646   7.851   5.721   4.942
56583SOL    HW271647   7.750   5.748   5.052
56584SOL     OW71648   2.398  10.826   7.761
56584SOL    HW171649   2.456  10.883   7.712
56584SOL    HW271650   2.445  10.807   7.842
56585SOL     OW71651   8.597  14.773   1.907
56585SOL    HW171652   8.651  14.714   1.959
56585SOL    HW271653   8.545  14.716   1.850
56586SOL     OW71654   0.227   7.784   2.280
56586SOL    HW171655   0.189   7.871   2.271
56586SOL    HW271656   0.248   7.757   2.191
56587SOL     OW71657  11.735   5.128  14.200
56587SOL    HW171658  11.706   5.094  14.284
56587SOL    HW271659  11.741   5.051  14.143
56588SOL     OW71660   4.278  11.024   9.590
56588SOL    HW171661   4.242  11.110   9.609
56588SOL    HW271662   4.232  10.996   9.511
56589SOL     OW71663  11.307  10.085   3.473
56589SOL    HW171664  11.249  10.083   3.397
56589SOL    HW271665  11.253  10.056   3.546
56590SOL     OW71666   4.593  11.929   3.829
56590SOL    HW171667   4.671  11.880   3.801
56590SOL    HW271668   4.581  11.995   3.760
56591SOL     OW71669  11.306  13.735   8.479
56591SOL    HW171670  11.267  13.769   8.560
56591SOL    HW271671  11.247  13.665   8.452
56592SOL     OW71672  13.904   4.337   7.571
56592SOL    HW171673  13.962   4.287   7.513
56592SOL    HW271674  13.964   4.384   7.629
56593SOL     OW71675   1.116  11.164   6.691
56593SOL    HW171676   1.194  11.220   6.686
56593SOL    HW271677   1.132  11.094   6.627
56594SOL     OW71678   2.632  11.673   1.291
56594SOL    HW171679   2.636  11.749   1.350
56594SOL    HW271680   2.539  11.664   1.271
56595SOL     OW71681   5.443   5.698   0.334
56595SOL    HW171682   5.437   5.747   0.416
56595SOL    HW271683   5.477   5.761   0.270
56596SOL     OW71684  14.335   8.096  13.124
56596SOL    HW171685  14.396   8.147  13.070
56596SOL    HW271686  14.347   8.130  13.212
56597SOL     OW71687  10.233   2.696   2.938
56597SOL    HW171688  10.162   2.681   3.001
56597SOL    HW271689  10.310   2.655   2.978
56598SOL     OW71690   8.987  10.435   5.707
56598SOL    HW171691   9.060  10.496   5.713
56598SOL    HW271692   9.024  10.350   5.732
56599SOL     OW71693   9.060   3.604   8.433
56599SOL    HW171694   8.971   3.593   8.401
56599SOL    HW271695   9.050   3.650   8.517
56600SOL     OW71696   9.847   5.511   3.628
56600SOL    HW171697   9.870   5.581   3.689
56600SOL    HW271698   9.897   5.530   3.549
56601SOL     OW71699   7.406   7.218  13.840
56601SOL    HW171700   7.406   7.170  13.922
56601SOL    HW271701   7.315   7.248  13.829
56602SOL     OW71702   8.663  11.209   1.150
56602SOL    HW171703   8.613  11.287   1.126
56602SOL    HW271704   8.626  11.183   1.235
56603SOL     OW71705   7.796   2.691   1.683
56603SOL    HW171706   7.812   2.664   1.773
56603SOL    HW271707   7.837   2.623   1.630
56604SOL     OW71708  14.445   7.701   9.681
56604SOL    HW171709  14.529   7.736   9.653
56604SOL    HW271710  14.456   7.683   9.775
56605SOL     OW71711  11.581   6.265   2.472
56605SOL    HW171712  11.631   6.263   2.554
56605SOL    HW271713  11.519   6.192   2.481
56606SOL     OW71714   4.322   5.392  13.946
56606SOL    HW171715   4.351   5.465  13.891
56606SOL    HW271716   4.290   5.326  13.884
56607SOL     OW71717   2.025  14.303   1.255
56607SOL    HW171718   2.072  14.240   1.310
56607SOL    HW271719   1.951  14.331   1.309
56608SOL     OW71720   8.407  11.755   0.333
56608SOL    HW171721   8.478  11.703   0.373
56608SOL    HW271722   8.424  11.844   0.361
56609SOL     OW71723   5.899   3.236   6.265
56609SOL    HW171724   5.975   3.182   6.283
56609SOL    HW271725   5.902   3.252   6.171
56610SOL     OW71726  10.234   2.511   7.358
56610SOL    HW171727  10.302   2.578   7.370
56610SOL    HW271728  10.222   2.506   7.263
56611SOL     OW71729   5.357   0.564  10.986
56611SOL    HW171730   5.350   0.546  10.892
56611SOL    HW271731   5.362   0.478  11.027
56612SOL     OW71732  11.882   1.908   3.883
56612SOL    HW171733  11.957   1.907   3.824
56612SOL    HW271734  11.843   1.994   3.871
56613SOL     OW71735  11.282   9.667   0.809
56613SOL    HW171736  11.274   9.762   0.800
56613SOL    HW271737  11.367   9.653   0.850
56614SOL     OW71738   8.644  10.314  11.867
56614SOL    HW171739   8.555  10.317  11.831
56614SOL    HW271740   8.648  10.230  11.913
56615SOL     OW71741   2.713  14.339   1.037
56615SOL    HW171742   2.649  14.399   1.076
56615SOL    HW271743   2.666  14.256   1.029
56616SOL     OW71744   2.213   2.562  10.738
56616SOL    HW171745   2.172   2.649  10.734
56616SOL    HW271746   2.302   2.576  10.706
56617SOL     OW71747   3.014  12.800   6.827
56617SOL    HW171748   2.956  12.724   6.831
56617SOL    HW271749   3.048  12.799   6.738
56618SOL     OW71750   2.704   7.404   7.661
56618SOL    HW171751   2.739   7.470   7.601
56618SOL    HW271752   2.781   7.372   7.708
56619SOL     OW71753   0.075   9.017   7.644
56619SOL    HW171754   0.080   8.988   7.735
56619SOL    HW271755  14.856   9.001   7.618
56620SOL     OW71756   2.758  12.524   0.862
56620SOL    HW171757   2.821  12.534   0.789
56620SOL    HW271758   2.792  12.450   0.912
56621SOL     OW71759   8.106  10.653   9.598
56621SOL    HW171760   8.074  10.618   9.681
56621SOL    HW271761   8.180  10.709   9.623
56622SOL     OW71762   2.669  11.348   1.708
56622SOL    HW171763   2.600  11.350   1.641
56622SOL    HW271764   2.630  11.392   1.784
56623SOL     OW71765   3.236   5.892   3.504
56623SOL    HW171766   3.271   5.806   3.482
56623SOL    HW271767   3.207   5.884   3.594
56624SOL     OW71768   4.314   4.398   9.556
56624SOL    HW171769   4.341   4.490   9.562
56624SOL    HW271770   4.318   4.378   9.462
56625SOL     OW71771   8.670   1.687   1.364
56625SOL    HW171772   8.644   1.750   1.297
56625SOL    HW271773   8.591   1.670   1.414
56626SOL     OW71774  11.027   7.582  11.688
56626SOL    HW171775  11.001   7.554  11.776
56626SOL    HW271776  11.122   7.572  11.687
56627SOL     OW71777   2.383   8.142  14.068
56627SOL    HW171778   2.415   8.117  13.982
56627SOL    HW271779   2.443   8.100  14.130
56628SOL     OW71780   3.564   2.106   1.884
56628SOL    HW171781   3.567   2.010   1.886
56628SOL    HW271782   3.482   2.128   1.927
56629SOL     OW71783   2.530   5.603   3.127
56629SOL    HW171784   2.557   5.659   3.054
56629SOL    HW271785   2.598   5.535   3.130
56630SOL     OW71786   3.372  13.956   7.310
56630SOL    HW171787   3.340  13.924   7.225
56630SOL    HW271788   3.369  13.879   7.367
56631SOL     OW71789  14.321   3.974   3.742
56631SOL    HW171790  14.268   3.909   3.696
56631SOL    HW271791  14.332   4.044   3.678
56632SOL     OW71792   4.100   2.440  12.271
56632SOL    HW171793   4.041   2.437  12.347
56632SOL    HW271794   4.187   2.449  12.310
56633SOL     OW71795  13.945   6.763   4.153
56633SOL    HW171796  13.980   6.715   4.228
56633SOL    HW271797  14.019   6.769   4.092
56634SOL     OW71798  10.319   5.567   4.218
56634SOL    HW171799  10.329   5.652   4.262
56634SOL    HW271800  10.236   5.574   4.170
56635SOL     OW71801  11.219   1.512  13.627
56635SOL    HW171802  11.208   1.552  13.713
56635SOL    HW271803  11.185   1.577  13.565
56636SOL     OW71804   8.738   8.388  14.299
56636SOL    HW171805   8.808   8.435  14.343
56636SOL    HW271806   8.695   8.454  14.245
56637SOL     OW71807   9.661   8.179   5.392
56637SOL    HW171808   9.671   8.084   5.398
56637SOL    HW271809   9.576   8.196   5.434
56638SOL     OW71810   2.080   1.717   4.509
56638SOL    HW171811   2.075   1.736   4.603
56638SOL    HW271812   2.172   1.732   4.486
56639SOL     OW71813   8.578   6.064   7.855
56639SOL    HW171814   8.668   6.036   7.838
56639SOL    HW271815   8.560   6.130   7.788
56640SOL     OW71816   1.531   6.179   5.062
56640SOL    HW171817   1.513   6.225   4.981
56640SOL    HW271818   1.449   6.184   5.112
56641SOL     OW71819  10.563   0.584   1.957
56641SOL    HW171820  10.615   0.530   1.898
56641SOL    HW271821  10.626   0.645   1.996
56642SOL     OW71822   5.539   4.729   2.951
56642SOL    HW171823   5.628   4.740   2.984
56642SOL    HW271824   5.534   4.636   2.928
56643SOL     OW71825   7.495   7.767   5.689
56643SOL    HW171826   7.401   7.773   5.674
56643SOL    HW271827   7.507   7.682   5.731
56644SOL     OW71828   4.115   9.949   4.916
56644SOL    HW171829   4.189  10.010   4.906
56644SOL    HW271830   4.128   9.912   5.004
56645SOL     OW71831  12.050   5.250   9.578
56645SOL    HW171832  12.025   5.264   9.670
56645SOL    HW271833  11.997   5.314   9.529
56646SOL     OW71834   2.989   9.598   8.576
56646SOL    HW171835   3.058   9.622   8.515
56646SOL    HW271836   3.020   9.518   8.618
56647SOL     OW71837  11.866   0.474   7.359
56647SOL    HW171838  11.821   0.537   7.415
56647SOL    HW271839  11.807   0.399   7.355
56648SOL     OW71840  12.702  11.629   8.979
56648SOL    HW171841  12.790  11.627   8.941
56648SOL    HW271842  12.650  11.571   8.924
56649SOL     OW71843   1.564   6.819   1.381
56649SOL    HW171844   1.471   6.804   1.364
56649SOL    HW271845   1.588   6.889   1.319
56650SOL     OW71846  10.906   9.926   1.048
56650SOL    HW171847  10.846   9.860   1.011
56650SOL    HW271848  10.872   9.941   1.136
56651SOL     OW71849  10.062   8.315  13.568
56651SOL    HW171850  10.130   8.270  13.518
56651SOL    HW271851  10.109   8.377  13.623
56652SOL     OW71852   0.410  12.848   5.203
56652SOL    HW171853   0.357  12.875   5.128
56652SOL    HW271854   0.368  12.888   5.279
56653SOL     OW71855   6.765   7.328   9.181
56653SOL    HW171856   6.729   7.393   9.241
56653SOL    HW271857   6.709   7.333   9.103
56654SOL     OW71858  10.756   4.946   8.268
56654SOL    HW171859  10.715   5.027   8.240
56654SOL    HW271860  10.723   4.930   8.357
56655SOL     OW71861   8.007  13.726   3.776
56655SOL    HW171862   7.980  13.764   3.693
56655SOL    HW271863   7.960  13.643   3.781
56656SOL     OW71864   4.675   5.460  11.816
56656SOL    HW171865   4.633   5.544  11.800
56656SOL    HW271866   4.621   5.419  11.884
56657SOL     OW71867  12.383  11.537  13.232
56657SOL    HW171868  12.462  11.503  13.274
56657SOL    HW271869  12.386  11.503  13.143
56658SOL     OW71870   5.375   1.276   7.305
56658SOL    HW171871   5.393   1.363   7.270
56658SOL    HW271872   5.459   1.246   7.340
56659SOL     OW71873  13.704   1.712  14.354
56659SOL    HW171874  13.665   1.727  14.268
56659SOL    HW271875  13.754   1.630  14.344
56660SOL     OW71876   4.267   4.569   8.541
56660SOL    HW171877   4.258   4.644   8.482
56660SOL    HW271878   4.336   4.594   8.602
56661SOL     OW71879   5.413  13.125   2.840
56661SOL    HW171880   5.327  13.084   2.831
56661SOL    HW271881   5.409  13.202   2.783
56662SOL     OW71882   5.892   1.535   9.923
56662SOL    HW171883   5.892   1.439   9.927
56662SOL    HW271884   5.869   1.556   9.833
56663SOL     OW71885   1.950  11.922  13.053
56663SOL    HW171886   1.863  11.887  13.070
56663SOL    HW271887   1.970  11.894  12.963
56664SOL     OW71888  11.300  14.456  13.101
56664SOL    HW171889  11.374  14.399  13.121
56664SOL    HW271890  11.247  14.455  13.181
56665SOL     OW71891   6.147   0.193  10.621
56665SOL    HW171892   6.066   0.148  10.596
56665SOL    HW271893   6.164   0.163  10.710
56666SOL     OW71894  11.373   7.523   9.904
56666SOL    HW171895  11.326   7.449   9.866
56666SOL    HW271896  11.308   7.568   9.958
56667SOL     OW71897  11.499   3.559  13.319
56667SOL    HW171898  11.442   3.512  13.258
56667SOL    HW271899  11.513   3.497  13.390
56668SOL     OW71900   1.036  13.175   9.204
56668SOL    HW171901   0.956  13.127   9.182
56668SOL    HW271902   1.077  13.124   9.274
56669SOL     OW71903  12.393   0.291   7.051
56669SOL    HW171904  12.386   0.294   7.147
56669SOL    HW271905  12.314   0.244   7.024
56670SOL     OW71906   0.608   1.029   7.649
56670SOL    HW171907   0.702   1.045   7.638
56670SOL    HW271908   0.587   0.961   7.585
56671SOL     OW71909   6.441   3.569  10.084
56671SOL    HW171910   6.362   3.601  10.128
56671SOL    HW271911   6.442   3.614  10.000
56672SOL     OW71912  13.660   4.340   3.942
56672SOL    HW171913  13.631   4.260   3.985
56672SOL    HW271914  13.686   4.312   3.854
56673SOL     OW71915   1.542   2.214   8.430
56673SOL    HW171916   1.495   2.218   8.347
56673SOL    HW271917   1.625   2.258   8.414
56674SOL     OW71918  11.969  10.852   5.747
56674SOL    HW171919  11.943  10.943   5.735
56674SOL    HW271920  12.007  10.849   5.835
56675SOL     OW71921   3.274  11.905  12.612
56675SOL    HW171922   3.223  11.984  12.594
56675SOL    HW271923   3.321  11.888  12.531
56676SOL     OW71924   9.668  10.902   3.585
56676SOL    HW171925   9.626  10.833   3.535
56676SOL    HW271926   9.716  10.954   3.520
56677SOL     OW71927  12.289   2.190   6.428
56677SOL    HW171928  12.278   2.106   6.473
56677SOL    HW271929  12.363   2.231   6.472
56678SOL     OW71930   6.704  10.833   6.533
56678SOL    HW171931   6.661  10.848   6.617
56678SOL    HW271932   6.700  10.738   6.521
56679SOL     OW71933  13.349  12.607   6.951
56679SOL    HW171934  13.258  12.609   6.922
56679SOL    HW271935  13.354  12.676   7.017
56680SOL     OW71936   9.600   0.220  13.187
56680SOL    HW171937   9.583   0.190  13.097
56680SOL    HW271938   9.578   0.313  13.186
56681SOL     OW71939   7.045   9.298  10.617
56681SOL    HW171940   6.954   9.323  10.605
56681SOL    HW271941   7.077   9.279  10.528
56682SOL     OW71942   5.920   4.560   9.668
56682SOL    HW171943   5.869   4.540   9.746
56682SOL    HW271944   5.862   4.616   9.615
56683SOL     OW71945   9.626   5.512   0.872
56683SOL    HW171946   9.684   5.478   0.941
56683SOL    HW271947   9.679   5.509   0.793
56684SOL     OW71948  13.190  12.405   1.969
56684SOL    HW171949  13.242  12.467   1.917
56684SOL    HW271950  13.208  12.428   2.060
56685SOL     OW71951   1.434   3.028   7.657
56685SOL    HW171952   1.375   2.997   7.725
56685SOL    HW271953   1.475   2.948   7.622
56686SOL     OW71954   3.420  13.941  11.985
56686SOL    HW171955   3.325  13.940  11.976
56686SOL    HW271956   3.438  13.880  12.056
56687SOL     OW71957   6.243  14.497  14.798
56687SOL    HW171958   6.177  14.540  14.744
56687SOL    HW271959   6.221  14.524   0.016
56688SOL     OW71960   6.614   6.879   0.052
56688SOL    HW171961   6.697   6.898   0.095
56688SOL    HW271962   6.548   6.927   0.102
56689SOL     OW71963  11.012   5.486   8.730
56689SOL    HW171964  10.948   5.459   8.664
56689SOL    HW271965  11.016   5.582   8.722
56690SOL     OW71966   0.760  12.196  13.662
56690SOL    HW171967   0.730  12.139  13.733
56690SOL    HW271968   0.679  12.233  13.626
56691SOL     OW71969  14.063   0.395   1.942
56691SOL    HW171970  14.012   0.399   2.023
56691SOL    HW271971  14.078   0.302   1.927
56692SOL     OW71972  10.508   9.911   1.259
56692SOL    HW171973  10.518   9.927   1.353
56692SOL    HW271974  10.590   9.943   1.221
56693SOL     OW71975   1.292   7.436  12.782
56693SOL    HW171976   1.230   7.376  12.740
56693SOL    HW271977   1.332   7.384  12.852
56694SOL     OW71978   1.679   4.102   6.283
56694SOL    HW171979   1.620   4.065   6.218
56694SOL    HW271980   1.737   4.030   6.308
56695SOL     OW71981   8.567  13.094  14.688
56695SOL    HW171982   8.632  13.050  14.742
56695SOL    HW271983   8.484  13.081  14.734
56696SOL     OW71984  13.124  12.701   7.879
56696SOL    HW171985  13.207  12.660   7.904
56696SOL    HW271986  13.104  12.761   7.951
56697SOL     OW71987   1.210   0.190   1.991
56697SOL    HW171988   1.115   0.197   1.995
56697SOL    HW271989   1.227   0.147   1.907
56698SOL     OW71990   5.846  12.146  12.637
56698SOL    HW171991   5.757  12.126  12.608
56698SOL    HW271992   5.865  12.232  12.599
56699SOL     OW71993   5.618  10.527  11.282
56699SOL    HW171994   5.699  10.501  11.239
56699SOL    HW271995   5.593  10.450  11.334
56700SOL     OW71996   9.158  10.200  11.564
56700SOL    HW171997   9.175  10.106  11.557
56700SOL    HW271998   9.065  10.209  11.546
56701SOL     OW71999   7.922   3.524  12.178
56701SOL    HW172000   7.923   3.443  12.128
56701SOL    HW272001   8.012   3.555  12.176
56702SOL     OW72002   0.784  13.685   4.750
56702SOL    HW172003   0.732  13.646   4.679
56702SOL    HW272004   0.740  13.768   4.769
56703SOL     OW72005   8.965   8.217   3.753
56703SOL    HW172006   8.888   8.265   3.724
56703SOL    HW272007   9.001   8.178   3.673
56704SOL     OW72008  10.629   8.436   3.809
56704SOL    HW172009  10.649   8.513   3.756
56704SOL    HW272010  10.565   8.386   3.758
56705SOL     OW72011   9.991  10.613   9.444
56705SOL    HW172012  10.035  10.687   9.403
56705SOL    HW272013   9.908  10.649   9.475
56706SOL     OW72014  13.768   9.335   0.097
56706SOL    HW172015  13.751   9.351   0.190
56706SOL    HW272016  13.690   9.369   0.053
56707SOL     OW72017   8.152  14.779   6.251
56707SOL    HW172018   8.081  14.800   6.312
56707SOL    HW272019   8.114  14.715   6.191
56708SOL     OW72020  14.668  13.506  11.463
56708SOL    HW172021  14.654  13.596  11.433
56708SOL    HW272022  14.663  13.453  11.383
56709SOL     OW72023  11.093   6.488   8.594
56709SOL    HW172024  11.170   6.531   8.557
56709SOL    HW272025  11.019   6.541   8.564
56710SOL     OW72026  12.195   9.269   9.924
56710SOL    HW172027  12.266   9.329   9.904
56710SOL    HW272028  12.217   9.189   9.877
56711SOL     OW72029  14.066   2.127  11.987
56711SOL    HW172030  14.071   2.198  11.923
56711SOL    HW272031  14.156   2.094  11.993
56712SOL     OW72032   6.074  12.464   9.012
56712SOL    HW172033   6.076  12.415   8.930
56712SOL    HW272034   6.052  12.553   8.987
56713SOL     OW72035   9.099   9.669  12.677
56713SOL    HW172036   9.090   9.697  12.585
56713SOL    HW272037   9.164   9.598  12.674
56714SOL     OW72038  10.875   5.045   5.520
56714SOL    HW172039  10.884   5.036   5.425
56714SOL    HW272040  10.901   4.960   5.556
56715SOL     OW72041   2.203   0.311  12.010
56715SOL    HW172042   2.214   0.303  11.916
56715SOL    HW272043   2.178   0.224  12.040
56716SOL     OW72044   9.746   7.191  10.470
56716SOL    HW172045   9.690   7.262  10.501
56716SOL    HW272046   9.779   7.221  10.385
56717SOL     OW72047   1.640   7.416   4.807
56717SOL    HW172048   1.644   7.425   4.712
56717SOL    HW272049   1.581   7.341   4.822
56718SOL     OW72050  14.514   5.301   7.155
56718SOL    HW172051  14.517   5.371   7.090
56718SOL    HW272052  14.487   5.224   7.106
56719SOL     OW72053  14.746   3.849   2.011
56719SOL    HW172054  14.765   3.891   1.928
56719SOL    HW272055  14.728   3.921   2.071
56720SOL     OW72056   5.886  10.526   3.541
56720SOL    HW172057   5.906  10.450   3.488
56720SOL    HW272058   5.825  10.494   3.608
56721SOL     OW72059  12.826   6.218   4.506
56721SOL    HW172060  12.748   6.234   4.452
56721SOL    HW272061  12.866   6.304   4.517
56722SOL     OW72062   8.935   2.053   9.460
56722SOL    HW172063   8.935   1.964   9.494
56722SOL    HW272064   8.997   2.100   9.515
56723SOL     OW72065   4.883   9.146   1.627
56723SOL    HW172066   4.855   9.173   1.539
56723SOL    HW272067   4.857   9.054   1.633
56724SOL     OW72068   3.136  12.527   6.160
56724SOL    HW172069   3.142  12.613   6.119
56724SOL    HW272070   3.080  12.476   6.102
56725SOL     OW72071   1.370   1.332  11.689
56725SOL    HW172072   1.351   1.422  11.660
56725SOL    HW272073   1.328   1.326  11.776
56726SOL     OW72074  10.338   5.462  12.975
56726SOL    HW172075  10.340   5.420  12.889
56726SOL    HW272076  10.371   5.551  12.959
56727SOL     OW72077  12.828   6.154   8.118
56727SOL    HW172078  12.787   6.133   8.034
56727SOL    HW272079  12.871   6.073   8.145
56728SOL     OW72080  11.206   1.492   8.205
56728SOL    HW172081  11.189   1.582   8.232
56728SOL    HW272082  11.216   1.444   8.288
56729SOL     OW72083   3.739  11.243  13.802
56729SOL    HW172084   3.716  11.153  13.777
56729SOL    HW272085   3.683  11.298  13.747
56730SOL     OW72086   4.649   6.304  12.661
56730SOL    HW172087   4.739   6.333  12.647
56730SOL    HW272088   4.626   6.259  12.580
56731SOL     OW72089  12.436   9.542   4.017
56731SOL    HW172090  12.398   9.574   4.099
56731SOL    HW272091  12.425   9.616   3.956
56732SOL     OW72092   8.028  13.996   9.434
56732SOL    HW172093   7.977  13.932   9.485
56732SOL    HW272094   7.963  14.058   9.401
56733SOL     OW72095  12.293   0.763   6.039
56733SOL    HW172096  12.324   0.843   5.997
56733SOL    HW272097  12.351   0.751   6.114
56734SOL     OW72098   0.184  10.570   4.410
56734SOL    HW172099   0.253  10.594   4.472
56734SOL    HW272100   0.108  10.621   4.438
56735SOL     OW72101   6.656  13.963  13.881
56735SOL    HW172102   6.617  13.952  13.968
56735SOL    HW272103   6.690  14.053  13.882
56736SOL     OW72104   3.614   5.126   5.045
56736SOL    HW172105   3.657   5.091   4.967
56736SOL    HW272106   3.572   5.207   5.016
56737SOL     OW72107  11.390   6.938   4.384
56737SOL    HW172108  11.408   7.012   4.443
56737SOL    HW272109  11.407   6.973   4.296
56738SOL     OW72110   3.235  12.897   0.531
56738SOL    HW172111   3.191  12.976   0.564
56738SOL    HW272112   3.188  12.875   0.451
56739SOL     OW72113   4.417  14.824  10.420
56739SOL    HW172114   4.510  14.809  10.401
56739SOL    HW272115   4.417   0.026  10.481
56740SOL     OW72116   8.964  12.973   2.863
56740SOL    HW172117   9.032  13.009   2.806
56740SOL    HW272118   9.013  12.931   2.934
56741SOL     OW72119   3.616   0.525   6.172
56741SOL    HW172120   3.684   0.592   6.170
56741SOL    HW272121   3.534   0.573   6.160
56742SOL     OW72122   2.402  13.212  13.471
56742SOL    HW172123   2.354  13.284  13.429
56742SOL    HW272124   2.380  13.135  13.419
56743SOL     OW72125   5.614  11.598   1.561
56743SOL    HW172126   5.542  11.625   1.619
56743SOL    HW272127   5.626  11.505   1.580
56744SOL     OW72128   3.937   0.918  10.260
56744SOL    HW172129   3.891   0.893  10.340
56744SOL    HW272130   4.022   0.951  10.289
56745SOL     OW72131   8.098   1.194   0.502
56745SOL    HW172132   8.053   1.249   0.567
56745SOL    HW272133   8.045   1.115   0.496
56746SOL     OW72134   4.968  10.736   9.802
56746SOL    HW172135   4.969  10.715   9.709
56746SOL    HW272136   4.891  10.792   9.814
56747SOL     OW72137   9.468  10.360  14.705
56747SOL    HW172138   9.417  10.424  14.655
56747SOL    HW272139   9.411  10.284  14.712
56748SOL     OW72140  14.726   9.656  14.534
56748SOL    HW172141  14.704   9.595  14.604
56748SOL    HW272142  14.822   9.661  14.535
56749SOL     OW72143   8.355   3.776  12.978
56749SOL    HW172144   8.308   3.800  13.058
56749SOL    HW272145   8.403   3.696  13.002
56750SOL     OW72146   8.581   4.729  14.452
56750SOL    HW172147   8.637   4.806  14.441
56750SOL    HW272148   8.506   4.746  14.395
56751SOL     OW72149  11.845   2.180   8.598
56751SOL    HW172150  11.911   2.165   8.665
56751SOL    HW272151  11.804   2.094   8.586
56752SOL     OW72152   4.098   7.846  11.690
56752SOL    HW172153   4.126   7.842  11.782
56752SOL    HW272154   4.024   7.785  11.686
56753SOL     OW72155   0.795   8.915   1.170
56753SOL    HW172156   0.804   9.001   1.210
56753SOL    HW272157   0.885   8.884   1.159
56754SOL     OW72158   7.784   3.765  12.175
56754SOL    HW172159   7.819   3.779  12.087
56754SOL    HW272160   7.826   3.685  12.205
56755SOL     OW72161   2.822   7.558  13.891
56755SOL    HW172162   2.837   7.606  13.972
56755SOL    HW272163   2.792   7.624  13.828
56756SOL     OW72164  13.938   7.250   5.615
56756SOL    HW172165  13.975   7.222   5.698
56756SOL    HW272166  13.865   7.307   5.639
56757SOL     OW72167   7.568   0.567   7.028
56757SOL    HW172168   7.491   0.544   7.081
56757SOL    HW272169   7.532   0.588   6.942
56758SOL     OW72170   1.100  11.770   4.648
56758SOL    HW172171   1.043  11.782   4.724
56758SOL    HW272172   1.046  11.793   4.573
56759SOL     OW72173  13.509   5.731   7.816
56759SOL    HW172174  13.530   5.794   7.885
56759SOL    HW272175  13.453   5.780   7.755
56760SOL     OW72176  12.839   4.527   3.713
56760SOL    HW172177  12.806   4.489   3.794
56760SOL    HW272178  12.877   4.611   3.739
56761SOL     OW72179   7.852  13.365   2.163
56761SOL    HW172180   7.771  13.333   2.202
56761SOL    HW272181   7.823  13.422   2.091
56762SOL     OW72182   5.724   2.293   0.633
56762SOL    HW172183   5.636   2.292   0.595
56762SOL    HW272184   5.775   2.237   0.575
56763SOL     OW72185  13.659   2.411  11.089
56763SOL    HW172186  13.645   2.369  11.174
56763SOL    HW272187  13.588   2.475  11.082
56764SOL     OW72188  14.642   1.901   5.467
56764SOL    HW172189  14.628   1.978   5.413
56764SOL    HW272190  14.672   1.936   5.551
56765SOL     OW72191  10.444   5.270   3.724
56765SOL    HW172192  10.498   5.254   3.802
56765SOL    HW272193  10.506   5.301   3.658
56766SOL     OW72194   8.215   9.737   1.707
56766SOL    HW172195   8.142   9.729   1.769
56766SOL    HW272196   8.264   9.656   1.717
56767SOL     OW72197  11.687   3.644   5.114
56767SOL    HW172198  11.757   3.709   5.110
56767SOL    HW272199  11.653   3.651   5.203
56768SOL     OW72200   5.301   4.760   6.529
56768SOL    HW172201   5.392   4.770   6.559
56768SOL    HW272202   5.308   4.713   6.446
56769SOL     OW72203  10.406   9.124  12.414
56769SOL    HW172204  10.314   9.140  12.431
56769SOL    HW272205  10.425   9.175  12.336
56770SOL     OW72206   3.847   4.448   6.756
56770SOL    HW172207   3.897   4.368   6.766
56770SOL    HW272208   3.802   4.460   6.839
56771SOL     OW72209  11.466   7.008  14.691
56771SOL    HW172210  11.493   7.092  14.654
56771SOL    HW272211  11.414   6.967  14.623
56772SOL     OW72212   6.595   7.823  14.320
56772SOL    HW172213   6.613   7.751  14.259
56772SOL    HW272214   6.500   7.823  14.330
56773SOL     OW72215  10.498   9.174  13.928
56773SOL    HW172216  10.409   9.144  13.949
56773SOL    HW272217  10.516   9.137  13.842
56774SOL     OW72218  14.260   1.292   4.796
56774SOL    HW172219  14.297   1.244   4.870
56774SOL    HW272220  14.279   1.384   4.815
56775SOL     OW72221  12.110   4.470  13.927
56775SOL    HW172222  12.039   4.534  13.920
56775SOL    HW272223  12.179   4.504  13.869
56776SOL     OW72224   8.714   6.909   8.059
56776SOL    HW172225   8.682   6.864   8.137
56776SOL    HW272226   8.640   6.909   7.999
56777SOL     OW72227   7.772  11.755  10.017
56777SOL    HW172228   7.867  11.745  10.006
56777SOL    HW272229   7.762  11.813  10.092
56778SOL     OW72230   5.612   5.067   0.096
56778SOL    HW172231   5.572   5.099   0.177
56778SOL    HW272232   5.560   4.990   0.073
56779SOL     OW72233  14.836   5.627   9.519
56779SOL    HW172234  14.871   5.692   9.457
56779SOL    HW272235  14.803   5.679   9.592
56780SOL     OW72236  13.157   5.466  13.531
56780SOL    HW172237  13.064   5.447  13.540
56780SOL    HW272238  13.167   5.553  13.569
56781SOL     OW72239   2.867   1.756  10.391
56781SOL    HW172240   2.922   1.799  10.326
56781SOL    HW272241   2.926   1.696  10.436
56782SOL     OW72242  14.711   9.535   2.493
56782SOL    HW172243  14.741   9.547   2.583
56782SOL    HW272244  14.776   9.477   2.453
56783SOL     OW72245  13.283   4.585   8.800
56783SOL    HW172246  13.217   4.640   8.842
56783SOL    HW272247  13.325   4.643   8.735
56784SOL     OW72248  10.990   9.959   6.859
56784SOL    HW172249  11.074  10.006   6.864
56784SOL    HW272250  11.005   9.891   6.794
56785SOL     OW72251   0.721   5.853   9.546
56785SOL    HW172252   0.686   5.913   9.611
56785SOL    HW272253   0.722   5.903   9.464
56786SOL     OW72254   5.530  14.370   0.424
56786SOL    HW172255   5.448  14.393   0.468
56786SOL    HW272256   5.517  14.396   0.333
56787SOL     OW72257  13.743   6.305   4.441
56787SOL    HW172258  13.759   6.367   4.511
56787SOL    HW272259  13.668   6.341   4.393
56788SOL     OW72260   0.218  12.147  12.655
56788SOL    HW172261   0.311  12.143  12.681
56788SOL    HW272262   0.210  12.080  12.587
56789SOL     OW72263  13.553   3.014  13.645
56789SOL    HW172264  13.540   2.973  13.731
56789SOL    HW272265  13.505   2.958  13.584
56790SOL     OW72266   1.033   6.705   1.269
56790SOL    HW172267   0.990   6.785   1.239
56790SOL    HW272268   1.011   6.640   1.203
56791SOL     OW72269   5.905   8.524   5.560
56791SOL    HW172270   5.992   8.560   5.538
56791SOL    HW272271   5.919   8.430   5.564
56792SOL     OW72272   7.338   7.778   9.067
56792SOL    HW172273   7.346   7.764   8.973
56792SOL    HW272274   7.247   7.754   9.087
56793SOL     OW72275   5.527  10.729   3.889
56793SOL    HW172276   5.497  10.785   3.961
56793SOL    HW272277   5.618  10.710   3.911
56794SOL     OW72278   5.950  11.823  10.395
56794SOL    HW172279   5.908  11.769  10.328
56794SOL    HW272280   6.043  11.823  10.371
56795SOL     OW72281   7.647  13.415   0.376
56795SOL    HW172282   7.681  13.371   0.298
56795SOL    HW272283   7.573  13.466   0.345
56796SOL     OW72284   8.432   0.633   7.770
56796SOL    HW172285   8.349   0.588   7.785
56796SOL    HW272286   8.468   0.592   7.691
56797SOL     OW72287   5.696   4.495   6.166
56797SOL    HW172288   5.735   4.457   6.245
56797SOL    HW272289   5.608   4.522   6.194
56798SOL     OW72290  10.015   0.624   5.563
56798SOL    HW172291   9.932   0.669   5.576
56798SOL    HW272292  10.012   0.595   5.472
56799SOL     OW72293   8.706  11.897   5.791
56799SOL    HW172294   8.777  11.956   5.763
56799SOL    HW272295   8.627  11.937   5.756
56800SOL     OW72296  10.002  13.187   3.026
56800SOL    HW172297   9.984  13.135   3.105
56800SOL    HW272298   9.997  13.278   3.057
56801SOL     OW72299   0.539   8.589  14.267
56801SOL    HW172300   0.537   8.496  14.289
56801SOL    HW272301   0.448   8.612  14.250
56802SOL     OW72302   5.020   0.621   7.379
56802SOL    HW172303   4.966   0.603   7.302
56802SOL    HW272304   4.959   0.655   7.444
56803SOL     OW72305   8.900   9.871  14.115
56803SOL    HW172306   8.825   9.916  14.075
56803SOL    HW272307   8.960   9.941  14.138
56804SOL     OW72308   1.982   4.841   8.049
56804SOL    HW172309   2.068   4.862   8.013
56804SOL    HW272310   1.921   4.866   7.980
56805SOL     OW72311  12.696   8.298   5.231
56805SOL    HW172312  12.662   8.387   5.228
56805SOL    HW272313  12.754   8.296   5.307
56806SOL     OW72314   3.927  14.536   1.814
56806SOL    HW172315   3.991  14.558   1.882
56806SOL    HW272316   3.981  14.511   1.739
56807SOL     OW72317   2.558   4.477   3.988
56807SOL    HW172318   2.471   4.504   3.958
56807SOL    HW272319   2.589   4.552   4.039
56808SOL     OW72320   5.531   5.022  13.775
56808SOL    HW172321   5.595   4.958  13.742
56808SOL    HW272322   5.453   5.006  13.722
56809SOL     OW72323  10.952   0.823   0.984
56809SOL    HW172324  10.998   0.825   1.068
56809SOL    HW272325  10.940   0.730   0.965
56810SOL     OW72326   5.158  11.308   0.400
56810SOL    HW172327   5.180  11.400   0.385
56810SOL    HW272328   5.169  11.296   0.495
56811SOL     OW72329  14.102  10.666  12.669
56811SOL    HW172330  14.184  10.627  12.700
56811SOL    HW272331  14.048  10.674  12.748
56812SOL     OW72332   9.074   2.849  14.633
56812SOL    HW172333   9.030   2.849  14.718
56812SOL    HW272334   9.149   2.792  14.644
56813SOL     OW72335  12.702  14.450  11.515
56813SOL    HW172336  12.686  14.544  11.521
56813SOL    HW272337  12.794  14.439  11.542
56814SOL     OW72338   5.939   0.951  11.618
56814SOL    HW172339   6.018   0.990  11.580
56814SOL    HW272340   5.883   0.932  11.544
56815SOL     OW72341   1.117   4.246  13.395
56815SOL    HW172342   1.145   4.209  13.478
56815SOL    HW272343   1.114   4.341  13.411
56816SOL     OW72344  12.308  13.593   5.018
56816SOL    HW172345  12.381  13.533   5.001
56816SOL    HW272346  12.342  13.679   4.995
56817SOL     OW72347   7.700   7.698   5.053
56817SOL    HW172348   7.755   7.772   5.076
56817SOL    HW272349   7.628   7.735   5.003
56818SOL     OW72350   7.059  10.035   6.411
56818SOL    HW172351   7.130   9.971   6.423
56818SOL    HW272352   7.008  10.000   6.338
56819SOL     OW72353  10.268  14.574   3.006
56819SOL    HW172354  10.293  14.610   2.921
56819SOL    HW272355  10.259  14.480   2.990
56820SOL     OW72356   1.995   2.248   0.225
56820SOL    HW172357   2.007   2.174   0.284
56820SOL    HW272358   1.904   2.275   0.237
56821SOL     OW72359   2.898  12.818  10.770
56821SOL    HW172360   2.842  12.749  10.733
56821SOL    HW272361   2.951  12.772  10.835
56822SOL     OW72362   7.068  10.487   3.304
56822SOL    HW172363   7.060  10.579   3.280
56822SOL    HW272364   7.126  10.450   3.238
56823SOL     OW72365   2.767   9.342   7.938
56823SOL    HW172366   2.823   9.365   7.863
56823SOL    HW272367   2.816   9.274   7.984
56824SOL     OW72368  11.766  10.504   2.719
56824SOL    HW172369  11.824  10.580   2.715
56824SOL    HW272370  11.761  10.473   2.629
56825SOL     OW72371   6.947   2.757  10.499
56825SOL    HW172372   6.928   2.675  10.546
56825SOL    HW272373   6.876   2.765  10.436
56826SOL     OW72374   4.236   7.531  12.787
56826SOL    HW172375   4.324   7.502  12.811
56826SOL    HW272376   4.240   7.627  12.795
56827SOL     OW72377   4.874   8.447   7.388
56827SOL    HW172378   4.932   8.465   7.314
56827SOL    HW272379   4.914   8.371   7.431
56828SOL     OW72380   6.679   5.092  11.251
56828SOL    HW172381   6.747   5.061  11.191
56828SOL    HW272382   6.597   5.065  11.212
56829SOL     OW72383   3.547   1.000   2.741
56829SOL    HW172384   3.499   1.018   2.660
56829SOL    HW272385   3.495   1.042   2.809
56830SOL     OW72386   4.048   4.604  12.142
56830SOL    HW172387   4.018   4.606  12.233
56830SOL    HW272388   3.981   4.552  12.097
56831SOL     OW72389  13.223   4.597   9.418
56831SOL    HW172390  13.309   4.577   9.455
56831SOL    HW272391  13.170   4.520   9.437
56832SOL     OW72392   7.515  12.665   9.737
56832SOL    HW172393   7.430  12.681   9.696
56832SOL    HW272394   7.508  12.704   9.824
56833SOL     OW72395   6.337   5.265   1.147
56833SOL    HW172396   6.370   5.355   1.142
56833SOL    HW272397   6.405   5.218   1.194
56834SOL     OW72398   0.902   2.275   5.440
56834SOL    HW172399   0.848   2.335   5.388
56834SOL    HW272400   0.847   2.253   5.515
56835SOL     OW72401   3.079   1.775  11.796
56835SOL    HW172402   3.088   1.699  11.853
56835SOL    HW272403   3.045   1.844  11.854
56836SOL     OW72404   3.026   7.668   6.763
56836SOL    HW172405   2.938   7.672   6.798
56836SOL    HW272406   3.062   7.756   6.776
56837SOL     OW72407  10.970  13.968   8.692
56837SOL    HW172408  11.001  14.039   8.636
56837SOL    HW272409  10.899  13.927   8.641
56838SOL     OW72410   8.637   1.439  11.909
56838SOL    HW172411   8.629   1.495  11.832
56838SOL    HW272412   8.547   1.420  11.935
56839SOL     OW72413   2.063  11.001  12.349
56839SOL    HW172414   2.014  11.028  12.427
56839SOL    HW272415   2.154  11.000  12.377
56840SOL     OW72416   4.659  11.119   1.030
56840SOL    HW172417   4.658  11.184   0.959
56840SOL    HW272418   4.615  11.162   1.103
56841SOL     OW72419   8.490   5.727   5.563
56841SOL    HW172420   8.425   5.754   5.628
56841SOL    HW272421   8.572   5.719   5.612
56842SOL     OW72422   4.283   0.105   4.288
56842SOL    HW172423   4.283   0.137   4.378
56842SOL    HW272424   4.300   0.011   4.296
56843SOL     OW72425   7.304   1.860  11.850
56843SOL    HW172426   7.386   1.906  11.866
56843SOL    HW272427   7.265   1.850  11.937
56844SOL     OW72428   1.173   4.451   0.488
56844SOL    HW172429   1.199   4.515   0.422
56844SOL    HW272430   1.223   4.372   0.466
56845SOL     OW72431   1.267   6.373  13.659
56845SOL    HW172432   1.362   6.367  13.671
56845SOL    HW272433   1.230   6.315  13.725
56846SOL     OW72434   7.778  12.220   5.170
56846SOL    HW172435   7.817  12.306   5.153
56846SOL    HW272436   7.806  12.199   5.259
56847SOL     OW72437  14.199   4.072   9.587
56847SOL    HW172438  14.224   3.980   9.584
56847SOL    HW272439  14.280   4.118   9.609
56848SOL     OW72440   9.661  11.229  12.397
56848SOL    HW172441   9.627  11.273  12.319
56848SOL    HW272442   9.747  11.196  12.370
56849SOL     OW72443   0.513   2.561   0.588
56849SOL    HW172444   0.555   2.508   0.656
56849SOL    HW272445   0.586   2.590   0.533
56850SOL     OW72446   2.350   4.690   4.012
56850SOL    HW172447   2.305   4.764   3.970
56850SOL    HW272448   2.377   4.723   4.097
56851SOL     OW72449   2.154  14.745   9.142
56851SOL    HW172450   2.100  14.675   9.177
56851SOL    HW272451   2.233  14.743   9.197
56852SOL     OW72452   1.978  14.491  13.841
56852SOL    HW172453   1.940  14.534  13.917
56852SOL    HW272454   2.001  14.562  13.781
56853SOL     OW72455   1.386   6.450   2.230
56853SOL    HW172456   1.323   6.421   2.296
56853SOL    HW272457   1.424   6.369   2.196
56854SOL     OW72458   6.579   4.266  13.596
56854SOL    HW172459   6.604   4.217  13.674
56854SOL    HW272460   6.504   4.318  13.623
56855SOL     OW72461   9.481   8.074   6.055
56855SOL    HW172462   9.503   8.004   5.994
56855SOL    HW272463   9.544   8.063   6.127
56856SOL     OW72464   5.204   2.193   4.123
56856SOL    HW172465   5.271   2.256   4.098
56856SOL    HW272466   5.185   2.214   4.215
56857SOL     OW72467   2.027  11.877   1.668
56857SOL    HW172468   2.038  11.914   1.581
56857SOL    HW272469   1.937  11.845   1.670
56858SOL     OW72470   2.227  11.235  13.405
56858SOL    HW172471   2.305  11.185  13.378
56858SOL    HW272472   2.255  11.326  13.400
56859SOL     OW72473  12.704   9.468  11.501
56859SOL    HW172474  12.765   9.519  11.449
56859SOL    HW272475  12.626   9.524  11.509
56860SOL     OW72476  10.867   7.631  14.036
56860SOL    HW172477  10.781   7.635  14.077
56860SOL    HW272478  10.926   7.672  14.100
56861SOL     OW72479  11.655  14.092   6.961
56861SOL    HW172480  11.631  14.164   7.020
56861SOL    HW272481  11.697  14.027   7.018
56862SOL     OW72482   5.466  12.453  12.295
56862SOL    HW172483   5.505  12.367  12.278
56862SOL    HW272484   5.408  12.438  12.370
56863SOL     OW72485  13.215  11.838   6.074
56863SOL    HW172486  13.123  11.863   6.066
56863SOL    HW272487  13.219  11.749   6.038
56864SOL     OW72488   4.660   1.483   9.752
56864SOL    HW172489   4.747   1.493   9.714
56864SOL    HW272490   4.673   1.497   9.845
56865SOL     OW72491   3.276  10.172  10.624
56865SOL    HW172492   3.240  10.175  10.535
56865SOL    HW272493   3.233  10.098  10.665
56866SOL     OW72494   4.993   4.381  10.795
56866SOL    HW172495   5.022   4.420  10.877
56866SOL    HW272496   4.941   4.449  10.753
56867SOL     OW72497  10.598   1.910  11.001
56867SOL    HW172498  10.567   1.848  10.936
56867SOL    HW272499  10.549   1.887  11.081
56868SOL     OW72500   2.321  10.958  14.589
56868SOL    HW172501   2.358  11.020  14.651
56868SOL    HW272502   2.264  11.010  14.533
56869SOL     OW72503   1.545   8.298   5.489
56869SOL    HW172504   1.591   8.308   5.573
56869SOL    HW272505   1.506   8.384   5.473
56870SOL     OW72506   6.792  12.569  14.531
56870SOL    HW172507   6.732  12.634  14.494
56870SOL    HW272508   6.736  12.495  14.554
56871SOL     OW72509   4.928   8.889   1.958
56871SOL    HW172510   4.960   8.853   1.876
56871SOL    HW272511   4.942   8.818   2.022
56872SOL     OW72512   1.860   4.176   8.980
56872SOL    HW172513   1.873   4.216   9.066
56872SOL    HW272514   1.831   4.248   8.925
56873SOL     OW72515   5.183  14.350   3.860
56873SOL    HW172516   5.100  14.326   3.901
56873SOL    HW272517   5.250  14.317   3.920
56874SOL     OW72518   5.724   2.924   4.594
56874SOL    HW172519   5.806   2.907   4.642
56874SOL    HW272520   5.751   2.930   4.503
56875SOL     OW72521  14.742  14.846   8.561
56875SOL    HW172522  14.685   0.048   8.536
56875SOL    HW272523  14.694  14.802   8.631
56876SOL     OW72524   4.638   6.297  13.306
56876SOL    HW172525   4.715   6.351  13.288
56876SOL    HW272526   4.564   6.350  13.277
56877SOL     OW72527  12.705  14.435   9.440
56877SOL    HW172528  12.673  14.517   9.478
56877SOL    HW272529  12.645  14.368   9.474
56878SOL     OW72530  13.163   6.575   6.025
56878SOL    HW172531  13.104   6.527   6.083
56878SOL    HW272532  13.140   6.546   5.937
56879SOL     OW72533  10.400   5.885   5.243
56879SOL    HW172534  10.482   5.930   5.263
56879SOL    HW272535  10.367   5.927   5.164
56880SOL     OW72536  10.219   5.436   6.065
56880SOL    HW172537  10.139   5.489   6.063
56880SOL    HW272538  10.222   5.402   6.154
56881SOL     OW72539   4.193   6.744   1.102
56881SOL    HW172540   4.288   6.752   1.110
56881SOL    HW272541   4.179   6.695   1.021
56882SOL     OW72542  12.770   5.470   1.586
56882SOL    HW172543  12.822   5.391   1.603
56882SOL    HW272544  12.715   5.478   1.664
56883SOL     OW72545   2.016   7.869   6.175
56883SOL    HW172546   2.087   7.842   6.234
56883SOL    HW272547   1.970   7.788   6.155
56884SOL     OW72548   0.142  10.553   2.808
56884SOL    HW172549   0.064  10.505   2.782
56884SOL    HW272550   0.215  10.507   2.767
56885SOL     OW72551   1.896   9.027   1.622
56885SOL    HW172552   1.956   9.031   1.548
56885SOL    HW272553   1.857   8.940   1.619
56886SOL     OW72554   4.056  14.404  13.161
56886SOL    HW172555   3.966  14.433  13.147
56886SOL    HW272556   4.085  14.451  13.239
56887SOL     OW72557   2.480   5.953   3.656
56887SOL    HW172558   2.559   5.901   3.642
56887SOL    HW272559   2.508   6.024   3.714
56888SOL     OW72560   1.909   1.045   0.251
56888SOL    HW172561   1.965   1.096   0.309
56888SOL    HW272562   1.964   0.973   0.220
56889SOL     OW72563  14.323   2.805   9.567
56889SOL    HW172564  14.279   2.721   9.556
56889SOL    HW272565  14.306   2.830   9.657
56890SOL     OW72566   9.898   1.448  13.587
56890SOL    HW172567   9.860   1.506  13.522
56890SOL    HW272568   9.854   1.472  13.669
56891SOL     OW72569   5.915   3.298   5.019
56891SOL    HW172570   5.871   3.358   4.959
56891SOL    HW272571   5.945   3.353   5.090
56892SOL     OW72572  10.231  12.053  14.236
56892SOL    HW172573  10.280  12.042  14.155
56892SOL    HW272574  10.219  11.964  14.270
56893SOL     OW72575   2.933  10.117  11.049
56893SOL    HW172576   2.858  10.153  11.097
56893SOL    HW272577   2.922  10.022  11.053
56894SOL     OW72578   0.440   5.105   9.427
56894SOL    HW172579   0.456   5.099   9.333
56894SOL    HW272580   0.367   5.045   9.443
56895SOL     OW72581   6.303   5.718  13.831
56895SOL    HW172582   6.317   5.668  13.911
56895SOL    HW272583   6.327   5.658  13.760
56896SOL     OW72584   8.853  12.217   6.174
56896SOL    HW172585   8.907  12.178   6.106
56896SOL    HW272586   8.861  12.312   6.160
56897SOL     OW72587  14.514   5.536   2.509
56897SOL    HW172588  14.436   5.485   2.487
56897SOL    HW272589  14.550   5.561   2.424
56898SOL     OW72590   0.042   1.539   2.516
56898SOL    HW172591   0.056   1.627   2.552
56898SOL    HW272592   0.032   1.483   2.593
56899SOL     OW72593   5.433   5.446   2.910
56899SOL    HW172594   5.436   5.360   2.870
56899SOL    HW272595   5.359   5.490   2.868
56900SOL     OW72596   9.470   0.747  10.606
56900SOL    HW172597   9.398   0.703  10.560
56900SOL    HW272598   9.428   0.821  10.650
56901SOL     OW72599  12.014   2.837   3.816
56901SOL    HW172600  12.057   2.906   3.766
56901SOL    HW272601  11.930   2.824   3.772
56902SOL     OW72602   4.517   7.637  10.091
56902SOL    HW172603   4.597   7.653  10.140
56902SOL    HW272604   4.518   7.543  10.074
56903SOL     OW72605  12.665   6.489  13.750
56903SOL    HW172606  12.736   6.514  13.809
56903SOL    HW272607  12.707   6.434  13.684
56904SOL     OW72608   8.431   3.469  11.923
56904SOL    HW172609   8.477   3.407  11.980
56904SOL    HW272610   8.377   3.414  11.866
56905SOL     OW72611   9.099   9.444  12.281
56905SOL    HW172612   9.162   9.495  12.230
56905SOL    HW272613   9.140   9.432  12.366
56906SOL     OW72614   5.580  12.728   8.841
56906SOL    HW172615   5.496  12.772   8.833
56906SOL    HW272616   5.570  12.671   8.918
56907SOL     OW72617   6.900   6.752   1.284
56907SOL    HW172618   6.856   6.675   1.248
56907SOL    HW272619   6.983   6.719   1.317
56908SOL     OW72620   6.554  13.319   2.158
56908SOL    HW172621   6.469  13.279   2.176
56908SOL    HW272622   6.553  13.401   2.207
56909SOL     OW72623   5.461   5.152   3.548
56909SOL    HW172624   5.421   5.227   3.503
56909SOL    HW272625   5.444   5.078   3.491
56910SOL     OW72626   9.252  13.122  10.271
56910SOL    HW172627   9.280  13.098  10.359
56910SOL    HW272628   9.162  13.153  10.281
56911SOL     OW72629   5.117   6.752   1.650
56911SOL    HW172630   5.207   6.723   1.633
56911SOL    HW272631   5.109   6.747   1.745
56912SOL     OW72632   3.638   4.505  10.259
56912SOL    HW172633   3.642   4.410  10.269
56912SOL    HW272634   3.635   4.519  10.164
56913SOL     OW72635  12.289   0.445  12.348
56913SOL    HW172636  12.335   0.491  12.277
56913SOL    HW272637  12.197   0.449  12.323
56914SOL     OW72638  11.478   1.663   6.643
56914SOL    HW172639  11.444   1.732   6.700
56914SOL    HW272640  11.557   1.701   6.603
56915SOL     OW72641  10.144   5.823   9.239
56915SOL    HW172642  10.227   5.870   9.240
56915SOL    HW272643  10.159   5.747   9.183
56916SOL     OW72644   5.179  10.630  12.167
56916SOL    HW172645   5.101  10.622  12.111
56916SOL    HW272646   5.177  10.551  12.221
56917SOL     OW72647  13.753   7.724   6.037
56917SOL    HW172648  13.752   7.817   6.014
56917SOL    HW272649  13.708   7.720   6.122
56918SOL     OW72650  13.968   5.260   3.955
56918SOL    HW172651  13.896   5.306   3.999
56918SOL    HW272652  13.928   5.179   3.923
56919SOL     OW72653  13.237   6.616  11.747
56919SOL    HW172654  13.224   6.639  11.655
56919SOL    HW272655  13.269   6.696  11.788
56920SOL     OW72656  12.537   4.856   5.214
56920SOL    HW172657  12.532   4.851   5.119
56920SOL    HW272658  12.452   4.826   5.245
56921SOL     OW72659  12.358  12.812   3.643
56921SOL    HW172660  12.402  12.861   3.575
56921SOL    HW272661  12.284  12.867   3.669
56922SOL     OW72662  11.423  11.543   1.068
56922SOL    HW172663  11.421  11.618   1.128
56922SOL    HW272664  11.338  11.500   1.081
56923SOL     OW72665  11.641   8.673  11.137
56923SOL    HW172666  11.628   8.765  11.111
56923SOL    HW272667  11.736   8.662  11.136
56924SOL     OW72668   5.017   6.302   6.376
56924SOL    HW172669   4.998   6.260   6.292
56924SOL    HW272670   4.975   6.246   6.441
56925SOL     OW72671   5.582  10.912   0.424
56925SOL    HW172672   5.615  10.898   0.335
56925SOL    HW272673   5.656  10.889   0.480
56926SOL     OW72674  11.088   1.960   2.385
56926SOL    HW172675  11.057   1.973   2.475
56926SOL    HW272676  11.008   1.964   2.332
56927SOL     OW72677   6.025  13.570   6.631
56927SOL    HW172678   6.087  13.623   6.581
56927SOL    HW272679   6.043  13.591   6.723
56928SOL     OW72680  10.863   5.036   1.252
56928SOL    HW172681  10.814   5.000   1.326
56928SOL    HW272682  10.880   4.961   1.195
56929SOL     OW72683  14.804  14.539  13.534
56929SOL    HW172684  14.849  14.458  13.555
56929SOL    HW272685  14.743  14.516  13.463
56930SOL     OW72686   2.668  10.615   5.620
56930SOL    HW172687   2.626  10.548   5.675
56930SOL    HW272688   2.698  10.567   5.543
56931SOL     OW72689   6.421  10.118   9.459
56931SOL    HW172690   6.389  10.126   9.549
56931SOL    HW272691   6.382  10.037   9.427
56932SOL     OW72692   9.034  13.706   8.846
56932SOL    HW172693   9.112  13.675   8.800
56932SOL    HW272694   8.977  13.739   8.777
56933SOL     OW72695  14.827  10.759  12.442
56933SOL    HW172696  14.838  10.776  12.535
56933SOL    HW272697  14.736  10.782  12.423
56934SOL     OW72698   3.428  10.444   5.664
56934SOL    HW172699   3.341  10.442   5.624
56934SOL    HW272700   3.485  10.400   5.601
56935SOL     OW72701   2.267   1.678  14.412
56935SOL    HW172702   2.338   1.743  14.416
56935SOL    HW272703   2.285   1.620  14.487
56936SOL     OW72704   8.052   5.999   3.795
56936SOL    HW172705   8.007   5.922   3.829
56936SOL    HW272706   7.995   6.030   3.724
56937SOL     OW72707  14.565  13.712   5.527
56937SOL    HW172708  14.550  13.697   5.433
56937SOL    HW272709  14.536  13.632   5.569
56938SOL     OW72710  11.042   8.046  14.524
56938SOL    HW172711  11.027   8.105  14.598
56938SOL    HW272712  10.954   8.021  14.495
56939SOL     OW72713  10.024   0.116  14.457
56939SOL    HW172714  10.087   0.044  14.447
56939SOL    HW272715   9.989   0.130  14.369
56940SOL     OW72716   6.183   6.488  14.164
56940SOL    HW172717   6.271   6.505  14.128
56940SOL    HW272718   6.189   6.516  14.255
56941SOL     OW72719  13.988   8.973  14.768
56941SOL    HW172720  13.900   8.991  14.736
56941SOL    HW272721  13.974   8.930  14.853
56942SOL     OW72722   8.872   9.644  12.824
56942SOL    HW172723   8.819   9.680  12.753
56942SOL    HW272724   8.959   9.633  12.786
56943SOL     OW72725   2.754   3.248   2.670
56943SOL    HW172726   2.836   3.284   2.638
56943SOL    HW272727   2.772   3.224   2.761
56944SOL     OW72728   0.900   4.506   1.275
56944SOL    HW172729   0.930   4.528   1.364
56944SOL    HW272730   0.887   4.411   1.277
56945SOL     OW72731   4.279   2.781  12.684
56945SOL    HW172732   4.201   2.830  12.659
56945SOL    HW272733   4.329   2.773  12.603
56946SOL     OW72734   7.344   5.774   3.543
56946SOL    HW172735   7.404   5.741   3.476
56946SOL    HW272736   7.273   5.709   3.545
56947SOL     OW72737   2.501   8.812   9.008
56947SOL    HW172738   2.483   8.790   8.917
56947SOL    HW272739   2.414   8.818   9.049
56948SOL     OW72740   5.380  12.257  13.762
56948SOL    HW172741   5.410  12.201  13.834
56948SOL    HW272742   5.365  12.196  13.689
56949SOL     OW72743  11.706   0.528   5.251
56949SOL    HW172744  11.730   0.492   5.165
56949SOL    HW272745  11.636   0.591   5.232
56950SOL     OW72746   7.133  12.664   5.215
56950SOL    HW172747   7.222  12.699   5.204
56950SOL    HW272748   7.146  12.571   5.235
56951SOL     OW72749  14.569  10.000  14.491
56951SOL    HW172750  14.534   9.954  14.414
56951SOL    HW272751  14.608  10.080  14.455
56952SOL     OW72752  14.538  12.655   1.516
56952SOL    HW172753  14.581  12.692   1.593
56952SOL    HW272754  14.485  12.726   1.481
56953SOL     OW72755   9.012  10.324  14.380
56953SOL    HW172756   9.005  10.401  14.436
56953SOL    HW272757   8.950  10.341  14.309
56954SOL     OW72758   5.150  13.866   3.213
56954SOL    HW172759   5.180  13.956   3.204
56954SOL    HW272760   5.183  13.821   3.135
56955SOL     OW72761  14.509   5.911   5.868
56955SOL    HW172762  14.539   5.827   5.832
56955SOL    HW272763  14.589   5.961   5.880
56956SOL     OW72764  12.061   8.187   3.151
56956SOL    HW172765  12.111   8.105   3.159
56956SOL    HW272766  12.123   8.249   3.113
56957SOL     OW72767   2.654   8.147   7.253
56957SOL    HW172768   2.608   8.088   7.193
56957SOL    HW272769   2.734   8.171   7.207
56958SOL     OW72770  10.874   4.794   1.082
56958SOL    HW172771  10.876   4.715   1.136
56958SOL    HW272772  10.805   4.777   1.018
56959SOL     OW72773   4.369   8.157   0.534
56959SOL    HW172774   4.415   8.074   0.547
56959SOL    HW272775   4.359   8.165   0.439
56960SOL     OW72776  13.693  11.004   6.519
56960SOL    HW172777  13.707  11.090   6.479
56960SOL    HW272778  13.704  11.020   6.613
56961SOL     OW72779   7.979   0.867  11.144
56961SOL    HW172780   8.061   0.892  11.188
56961SOL    HW272781   7.987   0.772  11.131
56962SOL     OW72782  10.644   8.828   2.502
56962SOL    HW172783  10.642   8.769   2.578
56962SOL    HW272784  10.705   8.788   2.442
56963SOL     OW72785  14.843   3.088   0.972
56963SOL    HW172786   0.019   3.171   0.979
56963SOL    HW272787  14.785   3.100   0.897
56964SOL     OW72788  13.283  12.187  10.935
56964SOL    HW172789  13.372  12.198  10.970
56964SOL    HW272790  13.289  12.220  10.845
56965SOL     OW72791   0.831  13.704  10.359
56965SOL    HW172792   0.896  13.635  10.344
56965SOL    HW272793   0.782  13.673  10.435
56966SOL     OW72794   8.656   4.107  13.871
56966SOL    HW172795   8.655   4.021  13.829
56966SOL    HW272796   8.647   4.088  13.965
56967SOL     OW72797   3.558   1.604   1.710
56967SOL    HW172798   3.547   1.598   1.615
56967SOL    HW272799   3.653   1.598   1.724
56968SOL     OW72800   4.112   4.352   0.257
56968SOL    HW172801   4.122   4.270   0.209
56968SOL    HW272802   4.017   4.369   0.255
56969SOL     OW72803   9.221   6.416   1.597
56969SOL    HW172804   9.158   6.347   1.616
56969SOL    HW272805   9.207   6.482   1.665
56970SOL     OW72806  13.889  11.259   6.051
56970SOL    HW172807  13.871  11.350   6.029
56970SOL    HW272808  13.917  11.261   6.142
56971SOL     OW72809   6.873   6.443   2.038
56971SOL    HW172810   6.903   6.397   2.116
56971SOL    HW272811   6.893   6.384   1.965
56972SOL     OW72812   8.139   6.523   4.037
56972SOL    HW172813   8.098   6.443   4.068
56972SOL    HW272814   8.067   6.575   4.002
56973SOL     OW72815   6.753   5.590   9.454
56973SOL    HW172816   6.665   5.611   9.421
56973SOL    HW272817   6.809   5.597   9.377
56974SOL     OW72818  11.058  10.009  12.410
56974SOL    HW172819  11.037   9.942  12.474
56974SOL    HW272820  11.071   9.961  12.328
56975SOL     OW72821  13.340  13.244   4.075
56975SOL    HW172822  13.358  13.334   4.102
56975SOL    HW272823  13.254  13.225   4.112
56976SOL     OW72824   1.048   7.644   6.974
56976SOL    HW172825   1.064   7.728   6.930
56976SOL    HW272826   1.041   7.667   7.067
56977SOL     OW72827   3.461  12.081   6.662
56977SOL    HW172828   3.478  12.063   6.570
56977SOL    HW272829   3.454  11.995   6.703
56978SOL     OW72830   7.498   5.057   1.289
56978SOL    HW172831   7.441   5.007   1.347
56978SOL    HW272832   7.438   5.108   1.234
56979SOL     OW72833   3.615   9.913   5.484
56979SOL    HW172834   3.646   9.951   5.403
56979SOL    HW272835   3.688   9.922   5.545
56980SOL     OW72836   1.616   5.271  10.449
56980SOL    HW172837   1.651   5.188  10.415
56980SOL    HW272838   1.526   5.274  10.418
56981SOL     OW72839   5.109   1.776  14.816
56981SOL    HW172840   5.095   1.870  14.830
56981SOL    HW272841   5.153   1.747   0.024
56982SOL     OW72842   4.752  13.964   6.667
56982SOL    HW172843   4.781  13.909   6.741
56982SOL    HW272844   4.724  13.901   6.601
56983SOL     OW72845  11.551   7.482  11.895
56983SOL    HW172846  11.640   7.448  11.898
56983SOL    HW272847  11.551   7.543  11.821
56984SOL     OW72848   9.274   5.569   6.741
56984SOL    HW172849   9.338   5.504   6.713
56984SOL    HW272850   9.317   5.653   6.727
56985SOL     OW72851   3.857   5.221   3.062
56985SOL    HW172852   3.864   5.240   3.155
56985SOL    HW272853   3.891   5.298   3.018
56986SOL     OW72854  13.636  14.798  10.532
56986SOL    HW172855  13.595   0.009  10.507
56986SOL    HW272856  13.725  14.803  10.496
56987SOL     OW72857  11.900   6.778  14.001
56987SOL    HW172858  11.978   6.731  14.031
56987SOL    HW272859  11.896   6.760  13.907
56988SOL     OW72860   2.997  10.040   2.933
56988SOL    HW172861   3.084  10.038   2.975
56988SOL    HW272862   2.947   9.972   2.978
56989SOL     OW72863   5.287   5.384   0.615
56989SOL    HW172864   5.323   5.472   0.606
56989SOL    HW272865   5.341   5.343   0.683
56990SOL     OW72866   0.368   6.486   1.953
56990SOL    HW172867   0.384   6.410   1.896
56990SOL    HW272868   0.367   6.450   2.041
56991SOL     OW72869  10.859  14.428   9.946
56991SOL    HW172870  10.896  14.478  10.019
56991SOL    HW272871  10.764  14.434   9.959
56992SOL     OW72872   7.323   1.801   2.508
56992SOL    HW172873   7.335   1.713   2.473
56992SOL    HW272874   7.229   1.807   2.525
56993SOL     OW72875   2.085   0.075   0.510
56993SOL    HW172876   2.135   0.156   0.516
56993SOL    HW272877   2.071   0.049   0.601
56994SOL     OW72878   4.759  12.401   4.534
56994SOL    HW172879   4.663  12.398   4.540
56994SOL    HW272880   4.776  12.419   4.441
56995SOL     OW72881  13.807   5.703   1.296
56995SOL    HW172882  13.722   5.661   1.309
56995SOL    HW272883  13.848   5.653   1.225
56996SOL     OW72884   8.460  12.170  14.801
56996SOL    HW172885   8.442  12.079  14.826
56996SOL    HW272886   8.526  12.199  14.864
56997SOL     OW72887  13.278   4.692   3.592
56997SOL    HW172888  13.188   4.720   3.576
56997SOL    HW272889  13.285   4.689   3.688
56998SOL     OW72890  12.529   0.820   2.654
56998SOL    HW172891  12.455   0.848   2.601
56998SOL    HW272892  12.538   0.726   2.635
56999SOL     OW72893   8.816   7.958   6.264
56999SOL    HW172894   8.757   7.909   6.207
56999SOL    HW272895   8.829   8.042   6.219
57000SOL     OW72896   1.540  11.416   3.591
57000SOL    HW172897   1.452  11.416   3.552
57000SOL    HW272898   1.535  11.349   3.660
57001SOL     OW72899  13.586   5.253   0.800
57001SOL    HW172900  13.515   5.203   0.760
57001SOL    HW272901  13.638   5.187   0.847
57002SOL     OW72902   3.946   4.067  12.342
57002SOL    HW172903   3.856   4.039  12.359
57002SOL    HW272904   3.946   4.094  12.250
57003SOL     OW72905  13.120  11.304   6.927
57003SOL    HW172906  13.085  11.234   6.982
57003SOL    HW272907  13.166  11.259   6.857
57004SOL     OW72908   3.330  13.245  10.400
57004SOL    HW172909   3.343  13.151  10.384
57004SOL    HW272910   3.240  13.251  10.433
57005SOL     OW72911   4.619   9.762   8.708
57005SOL    HW172912   4.607   9.683   8.762
57005SOL    HW272913   4.657   9.826   8.769
57006SOL     OW72914   7.151  13.509  12.729
57006SOL    HW172915   7.198  13.438  12.685
57006SOL    HW272916   7.115  13.469  12.808
57007SOL     OW72917   7.803   7.250   6.269
57007SOL    HW172918   7.887   7.221   6.233
57007SOL    HW272919   7.782   7.187   6.338
57008SOL     OW72920  10.337  11.803   6.351
57008SOL    HW172921  10.355  11.725   6.298
57008SOL    HW272922  10.274  11.774   6.416
57009SOL     OW72923   6.195  11.792   7.498
57009SOL    HW172924   6.111  11.772   7.457
57009SOL    HW272925   6.205  11.726   7.567
57010SOL     OW72926   1.858   7.332   3.279
57010SOL    HW172927   1.939   7.337   3.329
57010SOL    HW272928   1.805   7.268   3.325
57011SOL     OW72929   9.515  12.434  14.171
57011SOL    HW172930   9.540  12.478  14.089
57011SOL    HW272931   9.522  12.341  14.151
57012SOL     OW72932  10.782   9.972  14.052
57012SOL    HW172933  10.769   9.960  14.147
57012SOL    HW272934  10.867   9.931  14.035
57013SOL     OW72935  10.080   8.411  14.017
57013SOL    HW172936  10.043   8.325  13.997
57013SOL    HW272937  10.171   8.394  14.040
57014SOL     OW72938   6.742   6.807  13.714
57014SOL    HW172939   6.785   6.808  13.800
57014SOL    HW272940   6.652   6.832  13.732
57015SOL     OW72941   6.132   0.987  12.259
57015SOL    HW172942   6.221   1.004  12.291
57015SOL    HW272943   6.101   1.072  12.228
57016SOL     OW72944   9.444   3.307   9.363
57016SOL    HW172945   9.363   3.265   9.334
57016SOL    HW272946   9.415   3.387   9.407
57017SOL     OW72947  10.545   9.341   1.733
57017SOL    HW172948  10.470   9.397   1.755
57017SOL    HW272949  10.530   9.260   1.782
57018SOL     OW72950   0.138  14.123  13.658
57018SOL    HW172951   0.201  14.112  13.586
57018SOL    HW272952   0.191  14.119  13.737
57019SOL     OW72953   2.181   7.300  12.269
57019SOL    HW172954   2.126   7.301  12.347
57019SOL    HW272955   2.223   7.386  12.268
57020SOL     OW72956  11.330  10.436   6.915
57020SOL    HW172957  11.241  10.446   6.881
57020SOL    HW272958  11.344  10.514   6.969
57021SOL     OW72959   8.875   0.995   6.452
57021SOL    HW172960   8.802   0.986   6.514
57021SOL    HW272961   8.950   1.019   6.506
57022SOL     OW72962   5.026   7.676   9.269
57022SOL    HW172963   5.015   7.584   9.246
57022SOL    HW272964   5.119   7.693   9.260
57023SOL     OW72965  10.305   6.171   3.734
57023SOL    HW172966  10.297   6.247   3.791
57023SOL    HW272967  10.384   6.126   3.766
57024SOL     OW72968  12.627  12.557   6.093
57024SOL    HW172969  12.621  12.466   6.065
57024SOL    HW272970  12.718  12.581   6.077
57025SOL     OW72971   7.091  14.724   3.475
57025SOL    HW172972   7.064  14.713   3.384
57025SOL    HW272973   7.041  14.659   3.524
57026SOL     OW72974  11.556   2.639   7.941
57026SOL    HW172975  11.600   2.662   7.859
57026SOL    HW272976  11.463   2.643   7.920
57027SOL     OW72977  13.499   3.849   4.984
57027SOL    HW172978  13.457   3.933   5.000
57027SOL    HW272979  13.431   3.784   5.003
57028SOL     OW72980   4.533   9.290   3.478
57028SOL    HW172981   4.534   9.251   3.566
57028SOL    HW272982   4.546   9.383   3.494
57029SOL     OW72983   7.513   9.774   6.167
57029SOL    HW172984   7.430   9.745   6.130
57029SOL    HW272985   7.507   9.751   6.260
57030SOL     OW72986   5.160   0.700  14.835
57030SOL    HW172987   5.083   0.749  14.863
57030SOL    HW272988   5.177   0.729  14.746
57031SOL     OW72989   9.488   9.124  14.732
57031SOL    HW172990   9.441   9.112  14.814
57031SOL    HW272991   9.568   9.073  14.743
57032SOL     OW72992   1.762  10.332   8.254
57032SOL    HW172993   1.726  10.300   8.337
57032SOL    HW272994   1.853  10.352   8.273
57033SOL     OW72995  10.320   5.779  14.382
57033SOL    HW172996  10.357   5.849  14.436
57033SOL    HW272997  10.286   5.823  14.305
57034SOL     OW72998   2.110   6.757  13.265
57034SOL    HW172999   2.130   6.777  13.356
57034SOL    HW273000   2.188   6.787  13.217
57035SOL     OW73001   4.990  11.027   1.862
57035SOL    HW173002   5.023  10.940   1.839
57035SOL    HW273003   5.066  11.073   1.898
57036SOL     OW73004   8.823   5.828  14.108
57036SOL    HW173005   8.843   5.772  14.183
57036SOL    HW273006   8.816   5.916  14.145
57037SOL     OW73007  14.064   5.623   1.751
57037SOL    HW173008  14.139   5.682   1.760
57037SOL    HW273009  14.054   5.612   1.656
57038SOL     OW73010   3.799   4.706   9.805
57038SOL    HW173011   3.844   4.696   9.888
57038SOL    HW273012   3.807   4.620   9.763
57039SOL     OW73013   5.464   7.464  11.504
57039SOL    HW173014   5.482   7.548  11.461
57039SOL    HW273015   5.372   7.468  11.528
57040SOL     OW73016   9.372   0.605   3.185
57040SOL    HW173017   9.284   0.587   3.220
57040SOL    HW273018   9.358   0.621   3.092
57041SOL     OW73019   4.728   4.643  13.731
57041SOL    HW173020   4.729   4.731  13.769
57041SOL    HW273021   4.636   4.627  13.710
57042SOL     OW73022  11.230   1.829   6.050
57042SOL    HW173023  11.232   1.911   6.000
57042SOL    HW273024  11.200   1.855   6.137
57043SOL     OW73025   5.963   4.700  11.881
57043SOL    HW173026   5.965   4.637  11.952
57043SOL    HW273027   5.885   4.676  11.830
57044SOL     OW73028  11.571   7.947  11.419
57044SOL    HW173029  11.646   7.984  11.466
57044SOL    HW273030  11.496   7.961  11.477
57045SOL     OW73031  10.645   3.424  14.708
57045SOL    HW173032  10.651   3.404  14.615
57045SOL    HW273033  10.732   3.456  14.732
57046SOL     OW73034   2.326   2.237   6.831
57046SOL    HW173035   2.366   2.316   6.794
57046SOL    HW273036   2.241   2.231   6.787
57047SOL     OW73037   3.836   7.649   1.167
57047SOL    HW173038   3.800   7.705   1.236
57047SOL    HW273039   3.910   7.700   1.133
57048SOL     OW73040  14.151  12.835   1.750
57048SOL    HW173041  14.097  12.814   1.827
57048SOL    HW273042  14.173  12.928   1.761
57049SOL     OW73043  12.475  11.642   9.330
57049SOL    HW173044  12.401  11.603   9.285
57049SOL    HW273045  12.485  11.590   9.410
57050SOL     OW73046   4.409   1.526   7.679
57050SOL    HW173047   4.316   1.519   7.700
57050SOL    HW273048   4.410   1.562   7.590
57051SOL     OW73049   5.746  10.919   3.130
57051SOL    HW173050   5.655  10.894   3.144
57051SOL    HW273051   5.765  10.980   3.201
57052SOL     OW73052   9.053  10.625  11.912
57052SOL    HW173053   9.135  10.618  11.961
57052SOL    HW273054   9.061  10.707  11.863
57053SOL     OW73055   5.897   2.677   6.689
57053SOL    HW173056   5.886   2.707   6.598
57053SOL    HW273057   5.895   2.757   6.741
57054SOL     OW73058  12.094  14.168   3.276
57054SOL    HW173059  12.039  14.246   3.287
57054SOL    HW273060  12.067  14.109   3.347
57055SOL     OW73061   4.978  12.387  10.813
57055SOL    HW173062   4.892  12.380  10.771
57055SOL    HW273063   5.041  12.368  10.743
57056SOL     OW73064  12.583   9.613  10.033
57056SOL    HW173065  12.631   9.531  10.047
57056SOL    HW273066  12.616   9.645   9.949
57057SOL     OW73067   7.959   5.726  12.537
57057SOL    HW173068   7.890   5.762  12.592
57057SOL    HW273069   7.915   5.664  12.479
57058SOL     OW73070   8.766   2.591   5.435
57058SOL    HW173071   8.681   2.576   5.393
57058SOL    HW273072   8.765   2.683   5.458
57059SOL     OW73073  12.497   8.846   9.094
57059SOL    HW173074  12.550   8.776   9.131
57059SOL    HW273075  12.460   8.890   9.170
57060SOL     OW73076   3.164   8.860   9.250
57060SOL    HW173077   3.130   8.949   9.237
57060SOL    HW273078   3.254   8.873   9.280
57061SOL     OW73079   5.199  11.492  12.552
57061SOL    HW173080   5.132  11.442  12.506
57061SOL    HW273081   5.268  11.504  12.487
57062SOL     OW73082  10.434   4.359   7.865
57062SOL    HW173083  10.525   4.363   7.894
57062SOL    HW273084  10.393   4.436   7.905
57063SOL     OW73085   3.634  12.396   1.839
57063SOL    HW173086   3.706  12.447   1.876
57063SOL    HW273087   3.599  12.347   1.914
57064SOL     OW73088  10.900  10.329   7.944
57064SOL    HW173089  10.911  10.421   7.968
57064SOL    HW273090  10.967  10.312   7.879
57065SOL     OW73091  14.319   0.806   0.652
57065SOL    HW173092  14.385   0.826   0.718
57065SOL    HW273093  14.257   0.748   0.698
57066SOL     OW73094  14.089   8.393   3.013
57066SOL    HW173095  14.082   8.356   3.101
57066SOL    HW273096  14.074   8.318   2.954
57067SOL     OW73097   4.207  12.910   9.213
57067SOL    HW173098   4.286  12.872   9.252
57067SOL    HW273099   4.138  12.846   9.231
57068SOL     OW73100  13.747   6.198   6.794
57068SOL    HW173101  13.842   6.185   6.798
57068SOL    HW273102  13.735   6.274   6.737
57069SOL     OW73103   6.567   8.035  11.482
57069SOL    HW173104   6.483   8.077  11.463
57069SOL    HW273105   6.631   8.087  11.433
57070SOL     OW73106  13.235   0.429  10.286
57070SOL    HW173107  13.212   0.388  10.202
57070SOL    HW273108  13.221   0.359  10.350
57071SOL     OW73109   9.872   0.011   5.973
57071SOL    HW173110   9.967   0.022   5.979
57071SOL    HW273111   9.859  14.821   5.900
57072SOL     OW73112  11.051  12.010  14.442
57072SOL    HW173113  10.981  12.013  14.377
57072SOL    HW273114  11.110  11.942  14.409
57073SOL     OW73115   5.902  11.576   7.814
57073SOL    HW173116   5.844  11.509   7.851
57073SOL    HW273117   5.981  11.571   7.867
57074SOL     OW73118  14.007  11.968  13.317
57074SOL    HW173119  13.947  11.984  13.389
57074SOL    HW273120  14.083  11.925  13.359
57075SOL     OW73121  12.235   9.605   1.164
57075SOL    HW173122  12.329   9.588   1.165
57075SOL    HW273123  12.210   9.609   1.256
57076SOL     OW73124  10.425   0.482   2.669
57076SOL    HW173125  10.356   0.541   2.641
57076SOL    HW273126  10.445   0.428   2.592
57077SOL     OW73127   4.233   1.781   2.855
57077SOL    HW173128   4.189   1.765   2.771
57077SOL    HW273129   4.163   1.809   2.914
57078SOL     OW73130   1.630   8.250   1.012
57078SOL    HW173131   1.609   8.323   0.953
57078SOL    HW273132   1.720   8.228   0.989
57079SOL     OW73133   5.134  11.302   6.707
57079SOL    HW173134   5.142  11.208   6.687
57079SOL    HW273135   5.208  11.342   6.662
57080SOL     OW73136  14.704   0.113   7.594
57080SOL    HW173137  14.698   0.179   7.663
57080SOL    HW273138  14.772   0.053   7.624
57081SOL     OW73139  14.712   7.044   5.987
57081SOL    HW173140  14.666   7.121   5.955
57081SOL    HW273141  14.803   7.073   5.998
57082SOL     OW73142  10.306   2.265   7.482
57082SOL    HW173143  10.397   2.286   7.464
57082SOL    HW273144  10.256   2.341   7.452
57083SOL     OW73145   0.833   2.254   5.042
57083SOL    HW173146   0.917   2.277   5.002
57083SOL    HW273147   0.852   2.247   5.135
57084SOL     OW73148  10.871   1.334  14.385
57084SOL    HW173149  10.786   1.303  14.418
57084SOL    HW273150  10.928   1.330  14.462
57085SOL     OW73151  11.428  10.247   3.626
57085SOL    HW173152  11.384  10.185   3.568
57085SOL    HW273153  11.432  10.328   3.575
57086SOL     OW73154   6.465  11.312  10.707
57086SOL    HW173155   6.552  11.292  10.672
57086SOL    HW273156   6.479  11.325  10.800
57087SOL     OW73157   0.832   3.130  10.667
57087SOL    HW173158   0.860   3.146  10.577
57087SOL    HW273159   0.835   3.035  10.677
57088SOL     OW73160  14.127  12.853  14.311
57088SOL    HW173161  14.114  12.931  14.257
57088SOL    HW273162  14.204  12.873  14.364
57089SOL     OW73163  14.050   4.772   9.630
57089SOL    HW173164  14.123   4.758   9.569
57089SOL    HW273165  14.089   4.816   9.705
57090SOL     OW73166   9.903   9.865   9.557
57090SOL    HW173167   9.860   9.792   9.602
57090SOL    HW273168   9.996   9.854   9.577
57091SOL     OW73169   1.674  14.195   3.237
57091SOL    HW173170   1.629  14.258   3.182
57091SOL    HW273171   1.618  14.118   3.237
57092SOL     OW73172   8.087  10.649   5.299
57092SOL    HW173173   8.127  10.566   5.326
57092SOL    HW273174   8.135  10.715   5.349
57093SOL     OW73175  14.573  11.658  11.223
57093SOL    HW173176  14.580  11.752  11.208
57093SOL    HW273177  14.660  11.632  11.254
57094SOL     OW73178   9.140   4.189   1.598
57094SOL    HW173179   9.105   4.202   1.510
57094SOL    HW273180   9.088   4.248   1.653
57095SOL     OW73181   1.809  14.655  13.518
57095SOL    HW173182   1.894  14.658  13.475
57095SOL    HW273183   1.799  14.564  13.545
57096SOL     OW73184   1.567   0.565   7.699
57096SOL    HW173185   1.631   0.636   7.703
57096SOL    HW273186   1.551   0.542   7.791
57097SOL     OW73187   1.438  12.806   7.224
57097SOL    HW173188   1.432  12.829   7.317
57097SOL    HW273189   1.458  12.712   7.224
57098SOL     OW73190   9.608   4.508  11.421
57098SOL    HW173191   9.560   4.457  11.487
57098SOL    HW273192   9.586   4.599  11.441
57099SOL     OW73193   6.702   8.341   3.582
57099SOL    HW173194   6.773   8.309   3.527
57099SOL    HW273195   6.629   8.355   3.522
57100SOL     OW73196   4.722   0.394   2.236
57100SOL    HW173197   4.754   0.474   2.196
57100SOL    HW273198   4.797   0.361   2.287
57101SOL     OW73199   6.403  10.870   4.615
57101SOL    HW173200   6.427  10.830   4.698
57101SOL    HW273201   6.463  10.944   4.605
57102SOL     OW73202  11.759   2.530   5.936
57102SOL    HW173203  11.853   2.545   5.927
57102SOL    HW273204  11.748   2.508   6.029
57103SOL     OW73205  13.069   3.386  14.092
57103SOL    HW173206  12.979   3.398  14.120
57103SOL    HW273207  13.063   3.350  14.003
57104SOL     OW73208   9.189  11.384   2.206
57104SOL    HW173209   9.181  11.472   2.169
57104SOL    HW273210   9.261  11.344   2.157
57105SOL     OW73211  11.603   5.951  11.201
57105SOL    HW173212  11.520   5.984  11.237
57105SOL    HW273213  11.579   5.909  11.118
57106SOL     OW73214   7.668   7.741  14.559
57106SOL    HW173215   7.734   7.777  14.618
57106SOL    HW273216   7.587   7.741  14.612
57107SOL     OW73217   7.724  10.688   6.108
57107SOL    HW173218   7.725  10.639   6.190
57107SOL    HW273219   7.779  10.765   6.126
57108SOL     OW73220   4.729   0.772   3.085
57108SOL    HW173221   4.747   0.686   3.047
57108SOL    HW273222   4.642   0.795   3.052
57109SOL     OW73223  10.493   2.751   1.687
57109SOL    HW173224  10.560   2.700   1.641
57109SOL    HW273225  10.475   2.702   1.767
57110SOL     OW73226  12.774   1.451  13.685
57110SOL    HW173227  12.710   1.401  13.633
57110SOL    HW273228  12.721   1.498  13.749
57111SOL     OW73229   1.488  11.809   2.680
57111SOL    HW173230   1.471  11.748   2.608
57111SOL    HW273231   1.413  11.869   2.679
57112SOL     OW73232  10.790  14.036  11.674
57112SOL    HW173233  10.761  14.110  11.726
57112SOL    HW273234  10.832  14.075  11.597
57113SOL     OW73235   3.541   3.277  12.488
57113SOL    HW173236   3.576   3.354  12.533
57113SOL    HW273237   3.607   3.256  12.423
57114SOL     OW73238   8.179   4.959  11.837
57114SOL    HW173239   8.252   5.021  11.832
57114SOL    HW273240   8.130   4.987  11.915
57115SOL     OW73241   2.187  12.842   0.214
57115SOL    HW173242   2.232  12.882   0.139
57115SOL    HW273243   2.123  12.908   0.241
57116SOL     OW73244  12.090   1.670  13.129
57116SOL    HW173245  12.103   1.698  13.220
57116SOL    HW273246  12.023   1.730  13.096
57117SOL     OW73247  12.170  11.843   5.993
57117SOL    HW173248  12.118  11.882   6.064
57117SOL    HW273249  12.141  11.889   5.914
57118SOL     OW73250   1.377   1.422   8.050
57118SOL    HW173251   1.323   1.397   7.975
57118SOL    HW273252   1.357   1.358   8.117
57119SOL     OW73253  11.886  12.801   6.226
57119SOL    HW173254  11.870  12.834   6.314
57119SOL    HW273255  11.817  12.736   6.211
57120SOL     OW73256   5.774  11.459   8.208
57120SOL    HW173257   5.839  11.411   8.157
57120SOL    HW273258   5.817  11.541   8.231
57121SOL     OW73259   7.991   1.054  12.799
57121SOL    HW173260   7.975   1.037  12.706
57121SOL    HW273261   8.018   1.146  12.802
57122SOL     OW73262   6.478   5.191  12.042
57122SOL    HW173263   6.507   5.280  12.059
57122SOL    HW273264   6.384   5.200  12.024
57123SOL     OW73265  14.655   9.799   7.595
57123SOL    HW173266  14.682   9.708   7.579
57123SOL    HW273267  14.682   9.846   7.516
57124SOL     OW73268  13.047  14.575   2.435
57124SOL    HW173269  13.097  14.652   2.409
57124SOL    HW273270  12.955  14.600   2.423
57125SOL     OW73271  11.691   9.817   3.994
57125SOL    HW173272  11.686   9.770   3.911
57125SOL    HW273273  11.772   9.785   4.034
57126SOL     OW73274   6.535   6.947  10.152
57126SOL    HW173275   6.492   6.955  10.067
57126SOL    HW273276   6.624   6.979  10.136
57127SOL     OW73277   3.551  12.082   4.095
57127SOL    HW173278   3.591  12.000   4.066
57127SOL    HW273279   3.625  12.139   4.118
57128SOL     OW73280   8.015   1.300  11.284
57128SOL    HW173281   8.030   1.318  11.377
57128SOL    HW273282   8.003   1.205  11.279
57129SOL     OW73283   9.097   8.992  10.711
57129SOL    HW173284   9.023   8.957  10.761
57129SOL    HW273285   9.165   8.926  10.719
57130SOL     OW73286  11.740  12.300   9.861
57130SOL    HW173287  11.677  12.372   9.860
57130SOL    HW273288  11.754  12.281   9.954
57131SOL     OW73289   2.933  14.100   9.347
57131SOL    HW173290   2.929  14.046   9.426
57131SOL    HW273291   2.961  14.186   9.378
57132SOL     OW73292   4.157  10.734  12.462
57132SOL    HW173293   4.117  10.649  12.440
57132SOL    HW273294   4.087  10.782  12.506
57133SOL     OW73295  13.123  14.359   4.785
57133SOL    HW173296  13.126  14.372   4.880
57133SOL    HW273297  13.120  14.263   4.775
57134SOL     OW73298   9.564  10.812   8.660
57134SOL    HW173299   9.654  10.806   8.629
57134SOL    HW273300   9.549  10.906   8.674
57135SOL     OW73301  11.400  10.568   8.803
57135SOL    HW173302  11.462  10.495   8.808
57135SOL    HW273303  11.359  10.559   8.717
57136SOL     OW73304   5.774   7.981   4.921
57136SOL    HW173305   5.683   7.990   4.951
57136SOL    HW273306   5.767   7.972   4.826
57137SOL     OW73307   6.507  13.184   4.499
57137SOL    HW173308   6.515  13.143   4.413
57137SOL    HW273309   6.422  13.229   4.495
57138SOL     OW73310   0.778  10.782  13.211
57138SOL    HW173311   0.768  10.796  13.117
57138SOL    HW273312   0.843  10.847  13.238
57139SOL     OW73313  12.795   5.215   4.360
57139SOL    HW173314  12.822   5.220   4.452
57139SOL    HW273315  12.701   5.235   4.362
57140SOL     OW73316   9.873   9.827  13.584
57140SOL    HW173317   9.938   9.779  13.533
57140SOL    HW273318   9.925   9.888  13.637
57141SOL     OW73319  10.997   5.309  11.184
57141SOL    HW173320  10.947   5.268  11.254
57141SOL    HW273321  10.931   5.345  11.125
57142SOL     OW73322   1.390   8.441  13.193
57142SOL    HW173323   1.428   8.470  13.276
57142SOL    HW273324   1.466   8.423  13.137
57143SOL     OW73325   4.722   7.383   4.139
57143SOL    HW173326   4.732   7.445   4.211
57143SOL    HW273327   4.734   7.297   4.179
57144SOL     OW73328   6.522  14.540   7.805
57144SOL    HW173329   6.506  14.609   7.869
57144SOL    HW273330   6.610  14.509   7.824
57145SOL     OW73331  11.270  13.963  12.049
57145SOL    HW173332  11.285  13.881  12.003
57145SOL    HW273333  11.303  14.030  11.989
57146SOL     OW73334   2.604   0.551   5.465
57146SOL    HW173335   2.540   0.591   5.524
57146SOL    HW273336   2.552   0.493   5.409
57147SOL     OW73337  12.569  13.574   9.216
57147SOL    HW173338  12.519  13.506   9.172
57147SOL    HW273339  12.532  13.578   9.305
57148SOL     OW73340   2.218   3.001  11.902
57148SOL    HW173341   2.226   3.025  11.810
57148SOL    HW273342   2.251   3.077  11.950
57149SOL     OW73343  13.825   7.879  12.408
57149SOL    HW173344  13.784   7.942  12.468
57149SOL    HW273345  13.899   7.926  12.371
57150SOL     OW73346  11.119   8.376  11.672
57150SOL    HW173347  11.141   8.285  11.690
57150SOL    HW273348  11.093   8.377  11.580
57151SOL     OW73349   1.133   1.606   7.881
57151SOL    HW173350   1.174   1.543   7.823
57151SOL    HW273351   1.200   1.627   7.946
57152SOL     OW73352   5.018   9.119  11.158
57152SOL    HW173353   4.980   9.195  11.114
57152SOL    HW273354   4.949   9.053  11.156
57153SOL     OW73355   2.530   2.852   2.284
57153SOL    HW173356   2.572   2.765   2.285
57153SOL    HW273357   2.461   2.844   2.219
57154SOL     OW73358   6.901   5.186   2.649
57154SOL    HW173359   6.941   5.221   2.570
57154SOL    HW273360   6.926   5.094   2.651
57155SOL     OW73361   4.874  12.155  11.117
57155SOL    HW173362   4.953  12.208  11.124
57155SOL    HW273363   4.873  12.125  11.027
57156SOL     OW73364  11.357   4.580   3.893
57156SOL    HW173365  11.301   4.657   3.902
57156SOL    HW273366  11.390   4.585   3.803
57157SOL     OW73367   0.074   6.807   5.887
57157SOL    HW173368   0.106   6.742   5.950
57157SOL    HW273369   0.103   6.891   5.922
57158SOL     OW73370  12.855   2.233   0.237
57158SOL    HW173371  12.873   2.138   0.238
57158SOL    HW273372  12.810   2.249   0.320
57159SOL     OW73373   0.127   2.554   8.067
57159SOL    HW173374   0.090   2.561   8.155
57159SOL    HW273375   0.212   2.512   8.080
57160SOL     OW73376  13.115  11.145  13.763
57160SOL    HW173377  13.210  11.161  13.763
57160SOL    HW273378  13.096  11.114  13.675
57161SOL     OW73379   7.346  10.822   7.160
57161SOL    HW173380   7.326  10.905   7.202
57161SOL    HW273381   7.340  10.758   7.231
57162SOL     OW73382   8.152  14.156  11.658
57162SOL    HW173383   8.151  14.248  11.633
57162SOL    HW273384   8.153  14.156  11.754
57163SOL     OW73385   5.394   7.561   8.952
57163SOL    HW173386   5.408   7.559   8.857
57163SOL    HW273387   5.476   7.527   8.989
57164SOL     OW73388   8.680   3.659   8.626
57164SOL    HW173389   8.615   3.713   8.671
57164SOL    HW273390   8.629   3.589   8.587
57165SOL     OW73391   1.977  11.286   0.857
57165SOL    HW173392   2.004  11.355   0.797
57165SOL    HW273393   1.889  11.261   0.828
57166SOL     OW73394   6.476  11.161   2.543
57166SOL    HW173395   6.395  11.127   2.506
57166SOL    HW273396   6.501  11.096   2.609
57167SOL     OW73397   4.596   2.430   1.522
57167SOL    HW173398   4.561   2.517   1.539
57167SOL    HW273399   4.564   2.376   1.594
57168SOL     OW73400   4.677   5.151   7.006
57168SOL    HW173401   4.671   5.205   7.085
57168SOL    HW273402   4.718   5.070   7.036
57169SOL     OW73403   2.151   3.939   1.238
57169SOL    HW173404   2.160   3.850   1.272
57169SOL    HW273405   2.168   3.995   1.313
57170SOL     OW73406  12.166   9.690   1.432
57170SOL    HW173407  12.152   9.778   1.467
57170SOL    HW273408  12.111   9.634   1.487
57171SOL     OW73409   1.095   2.995   5.840
57171SOL    HW173410   1.069   2.985   5.748
57171SOL    HW273411   1.137   2.912   5.863
57172SOL     OW73412   5.220   1.242   8.260
57172SOL    HW173413   5.203   1.148   8.257
57172SOL    HW273414   5.133   1.282   8.265
57173SOL     OW73415  10.959   4.877   2.208
57173SOL    HW173416  11.029   4.873   2.142
57173SOL    HW273417  10.889   4.927   2.166
57174SOL     OW73418   3.118  13.607   2.265
57174SOL    HW173419   3.024  13.596   2.256
57174SOL    HW273420   3.147  13.531   2.316
57175SOL     OW73421   7.327   9.361   2.946
57175SOL    HW173422   7.270   9.302   2.896
57175SOL    HW273423   7.400   9.307   2.974
57176SOL     OW73424   8.244   9.646   3.510
57176SOL    HW173425   8.329   9.626   3.471
57176SOL    HW273426   8.181   9.597   3.457
57177SOL     OW73427  11.395   4.570   4.188
57177SOL    HW173428  11.456   4.580   4.115
57177SOL    HW273429  11.338   4.498   4.162
57178SOL     OW73430  13.860  13.416   8.579
57178SOL    HW173431  13.900  13.345   8.629
57178SOL    HW273432  13.769  13.418   8.610
57179SOL     OW73433   9.642  14.026  13.392
57179SOL    HW173434   9.653  14.024  13.297
57179SOL    HW273435   9.718  13.980  13.427
57180SOL     OW73436  10.330  14.300   4.739
57180SOL    HW173437  10.418  14.336   4.736
57180SOL    HW273438  10.277  14.359   4.685
57181SOL     OW73439   6.104   0.416   2.910
57181SOL    HW173440   6.169   0.484   2.898
57181SOL    HW273441   6.153   0.342   2.947
57182SOL     OW73442   0.325   7.322  14.237
57182SOL    HW173443   0.311   7.247  14.295
57182SOL    HW273444   0.284   7.395  14.283
57183SOL     OW73445  14.808  12.717  11.835
57183SOL    HW173446   0.019  12.748  11.799
57183SOL    HW273447  14.828  12.693  11.926
57184SOL     OW73448   5.626  14.348  10.417
57184SOL    HW173449   5.583  14.410  10.477
57184SOL    HW273450   5.567  14.341  10.343
57185SOL     OW73451  10.110   8.701  13.557
57185SOL    HW173452  10.157   8.641  13.499
57185SOL    HW273453  10.026   8.658  13.573
57186SOL     OW73454  11.691   3.536   1.772
57186SOL    HW173455  11.719   3.475   1.839
57186SOL    HW273456  11.611   3.576   1.806
57187SOL     OW73457   6.160   0.940  12.804
57187SOL    HW173458   6.151   1.003  12.876
57187SOL    HW273459   6.079   0.889  12.807
57188SOL     OW73460   2.147  10.734  11.313
57188SOL    HW173461   2.218  10.731  11.249
57188SOL    HW273462   2.072  10.696  11.268
57189SOL     OW73463  13.441   0.825  13.814
57189SOL    HW173464  13.421   0.766  13.742
57189SOL    HW273465  13.506   0.885  13.779
57190SOL     OW73466  14.840   7.744   7.302
57190SOL    HW173467  14.827   7.718   7.211
57190SOL    HW273468   0.058   7.776   7.305
57191SOL     OW73469   1.252  11.337   8.796
57191SOL    HW173470   1.279  11.246   8.791
57191SOL    HW273471   1.213  11.346   8.883
57192SOL     OW73472   5.599   2.637   5.488
57192SOL    HW173473   5.625   2.554   5.448
57192SOL    HW273474   5.621   2.628   5.580
57193SOL     OW73475   3.341   4.015  11.600
57193SOL    HW173476   3.394   4.061  11.535
57193SOL    HW273477   3.287   3.954  11.549
57194SOL     OW73478   6.375   6.515   9.118
57194SOL    HW173479   6.359   6.610   9.113
57194SOL    HW273480   6.323   6.487   9.193
57195SOL     OW73481   7.824   5.224  13.450
57195SOL    HW173482   7.879   5.299  13.428
57195SOL    HW273483   7.884   5.150  13.451
57196SOL     OW73484  12.132  10.097   0.843
57196SOL    HW173485  12.167  10.064   0.760
57196SOL    HW273486  12.153  10.028   0.906
57197SOL     OW73487  13.429   9.997  10.251
57197SOL    HW173488  13.494   9.951  10.304
57197SOL    HW273489  13.377   9.928  10.212
57198SOL     OW73490  13.630   3.430   9.056
57198SOL    HW173491  13.655   3.460   9.143
57198SOL    HW273492  13.688   3.478   8.996
57199SOL     OW73493   7.257   0.310  11.264
57199SOL    HW173494   7.193   0.380  11.248
57199SOL    HW273495   7.304   0.338  11.342
57200SOL     OW73496  12.407   0.821  10.497
57200SOL    HW173497  12.365   0.794  10.579
57200SOL    HW273498  12.359   0.900  10.472
57201SOL     OW73499  11.160   1.527  12.440
57201SOL    HW173500  11.180   1.609  12.394
57201SOL    HW273501  11.092   1.485  12.387
57202SOL     OW73502   5.969   1.313  12.441
57202SOL    HW173503   5.888   1.310  12.491
57202SOL    HW273504   6.022   1.242  12.477
57203SOL     OW73505  12.571  11.727  12.510
57203SOL    HW173506  12.488  11.680  12.501
57203SOL    HW273507  12.579  11.746  12.603
57204SOL     OW73508  12.797  10.234  12.519
57204SOL    HW173509  12.885  10.230  12.482
57204SOL    HW273510  12.789  10.324  12.552
57205SOL     OW73511  11.028   0.152   0.438
57205SOL    HW173512  11.081   0.154   0.359
57205SOL    HW273513  10.974   0.231   0.432
57206SOL     OW73514   2.306  10.396   0.345
57206SOL    HW173515   2.340  10.311   0.318
57206SOL    HW273516   2.362  10.460   0.300
57207SOL     OW73517   0.278   1.551   3.608
57207SOL    HW173518   0.273   1.612   3.534
57207SOL    HW273519   0.232   1.473   3.578
57208SOL     OW73520   0.702  12.551  10.416
57208SOL    HW173521   0.735  12.465  10.392
57208SOL    HW273522   0.780  12.599  10.446
57209SOL     OW73523   3.256   5.987  12.512
57209SOL    HW173524   3.204   5.935  12.451
57209SOL    HW273525   3.213   6.072  12.514
57210SOL     OW73526   6.152   9.545  11.276
57210SOL    HW173527   6.075   9.551  11.333
57210SOL    HW273528   6.206   9.620  11.300
57211SOL     OW73529   3.625   7.567   6.389
57211SOL    HW173530   3.537   7.551   6.423
57211SOL    HW273531   3.631   7.662   6.382
57212SOL     OW73532  14.081  11.128   5.925
57212SOL    HW173533  13.999  11.167   5.957
57212SOL    HW273534  14.148  11.159   5.985
57213SOL     OW73535   9.109  12.859   8.338
57213SOL    HW173536   9.162  12.786   8.369
57213SOL    HW273537   9.147  12.882   8.253
57214SOL     OW73538   4.533   1.104   7.354
57214SOL    HW173539   4.610   1.097   7.298
57214SOL    HW273540   4.472   1.158   7.303
57215SOL     OW73541  14.148   6.740   0.902
57215SOL    HW173542  14.156   6.755   0.808
57215SOL    HW273543  14.167   6.646   0.913
57216SOL     OW73544   0.601   4.362   9.197
57216SOL    HW173545   0.522   4.416   9.204
57216SOL    HW273546   0.664   4.404   9.255
57217SOL     OW73547  11.769  11.562   8.579
57217SOL    HW173548  11.763  11.633   8.642
57217SOL    HW273549  11.863  11.542   8.573
57218SOL     OW73550   6.813   6.151   1.835
57218SOL    HW173551   6.810   6.086   1.765
57218SOL    HW273552   6.772   6.109   1.910
57219SOL     OW73553   3.220  14.246   3.449
57219SOL    HW173554   3.228  14.236   3.544
57219SOL    HW273555   3.306  14.220   3.415
57220SOL     OW73556   9.245   4.875  12.575
57220SOL    HW173557   9.309   4.815  12.537
57220SOL    HW273558   9.256   4.864  12.670
57221SOL     OW73559   3.268   7.390  12.661
57221SOL    HW173560   3.256   7.428  12.748
57221SOL    HW273561   3.267   7.295  12.675
57222SOL     OW73562   8.247   0.727  12.615
57222SOL    HW173563   8.152   0.732  12.600
57222SOL    HW273564   8.264   0.792  12.683
57223SOL     OW73565  14.574   5.945  10.095
57223SOL    HW173566  14.623   5.866  10.073
57223SOL    HW273567  14.625   5.986  10.165
57224SOL     OW73568  11.269   9.447   7.364
57224SOL    HW173569  11.218   9.413   7.438
57224SOL    HW273570  11.344   9.491   7.404
57225SOL     OW73571  12.282   4.743   5.286
57225SOL    HW173572  12.233   4.825   5.280
57225SOL    HW273573  12.273   4.716   5.377
57226SOL     OW73574   5.577   7.139   4.031
57226SOL    HW173575   5.516   7.080   4.075
57226SOL    HW273576   5.530   7.170   3.954
57227SOL     OW73577   1.038  10.776   1.320
57227SOL    HW173578   1.010  10.754   1.409
57227SOL    HW273579   1.091  10.701   1.293
57228SOL     OW73580   1.240   7.495   0.071
57228SOL    HW173581   1.235   7.589   0.054
57228SOL    HW273582   1.204   7.455  14.863
57229SOL     OW73583   2.642   8.939   0.335
57229SOL    HW173584   2.598   8.939   0.250
57229SOL    HW273585   2.631   8.849   0.367
57230SOL     OW73586  12.828   7.199   8.735
57230SOL    HW173587  12.850   7.157   8.652
57230SOL    HW273588  12.733   7.204   8.735
57231SOL     OW73589  14.617  10.483   6.978
57231SOL    HW173590  14.583  10.572   6.988
57231SOL    HW273591  14.676  10.487   6.903
57232SOL     OW73592   9.979   1.026   6.173
57232SOL    HW173593  10.037   1.055   6.102
57232SOL    HW273594   9.923   1.102   6.190
57233SOL     OW73595  13.695  14.629  14.525
57233SOL    HW173596  13.680  14.574  14.602
57233SOL    HW273597  13.784  14.661  14.534
57234SOL     OW73598   1.086  14.336   0.057
57234SOL    HW173599   1.075  14.242   0.045
57234SOL    HW273600   1.039  14.376  14.856
57235SOL     OW73601   3.526   4.057  13.728
57235SOL    HW173602   3.594   4.087  13.789
57235SOL    HW273603   3.550   3.966  13.710
57236SOL     OW73604  14.538  13.407   1.317
57236SOL    HW173605  14.557  13.457   1.238
57236SOL    HW273606  14.443  13.405   1.323
57237SOL     OW73607  12.593  10.341   6.488
57237SOL    HW173608  12.562  10.251   6.499
57237SOL    HW273609  12.651  10.355   6.563
57238SOL     OW73610   6.829  11.264   7.975
57238SOL    HW173611   6.799  11.204   7.906
57238SOL    HW273612   6.924  11.264   7.968
57239SOL     OW73613  10.601   3.797  12.926
57239SOL    HW173614  10.636   3.844  12.851
57239SOL    HW273615  10.530   3.744  12.890
57240SOL     OW73616   3.100  12.565   1.954
57240SOL    HW173617   3.127  12.655   1.970
57240SOL    HW273618   3.181  12.514   1.958
57241SOL     OW73619   5.346   6.739  11.471
57241SOL    HW173620   5.338   6.802  11.542
57241SOL    HW273621   5.427   6.764  11.426
57242SOL     OW73622  12.374   1.033   9.293
57242SOL    HW173623  12.299   1.088   9.269
57242SOL    HW273624  12.342   0.943   9.286
57243SOL     OW73625   0.349   9.155   9.656
57243SOL    HW173626   0.321   9.094   9.723
57243SOL    HW273627   0.428   9.116   9.619
57244SOL     OW73628  10.719  13.076  14.812
57244SOL    HW173629  10.787  13.081  14.745
57244SOL    HW273630  10.637  13.090  14.764
57245SOL     OW73631  11.415   4.305   3.137
57245SOL    HW173632  11.362   4.227   3.152
57245SOL    HW273633  11.401   4.326   3.044
57246SOL     OW73634   1.197   9.698   1.614
57246SOL    HW173635   1.132   9.764   1.639
57246SOL    HW273636   1.150   9.640   1.554
57247SOL     OW73637   1.663   4.318  10.967
57247SOL    HW173638   1.625   4.246  11.018
57247SOL    HW273639   1.591   4.351  10.913
57248SOL     OW73640  10.737  11.381  14.167
57248SOL    HW173641  10.715  11.349  14.255
57248SOL    HW273642  10.777  11.467  14.183
57249SOL     OW73643   5.383   2.377   0.263
57249SOL    HW173644   5.371   2.364   0.169
57249SOL    HW273645   5.294   2.388   0.297
57250SOL     OW73646  10.470  12.300   2.155
57250SOL    HW173647  10.427  12.261   2.079
57250SOL    HW273648  10.485  12.226   2.214
57251SOL     OW73649   3.428  12.606   2.434
57251SOL    HW173650   3.509  12.571   2.396
57251SOL    HW273651   3.385  12.651   2.361
57252SOL     OW73652   6.457  13.586   7.653
57252SOL    HW173653   6.415  13.500   7.648
57252SOL    HW273654   6.521  13.578   7.724
57253SOL     OW73655   6.041  10.354   1.882
57253SOL    HW173656   5.990  10.295   1.826
57253SOL    HW273657   6.056  10.431   1.827
57254SOL     OW73658   8.343   6.403  10.017
57254SOL    HW173659   8.400   6.406  10.094
57254SOL    HW273660   8.335   6.494   9.989
57255SOL     OW73661  12.977   9.118   4.746
57255SOL    HW173662  12.927   9.099   4.667
57255SOL    HW273663  13.064   9.142   4.714
57256SOL     OW73664  12.893   0.275  12.488
57256SOL    HW173665  12.843   0.326  12.423
57256SOL    HW273666  12.967   0.240  12.438
57257SOL     OW73667  10.402  11.044   1.360
57257SOL    HW173668  10.309  11.047   1.383
57257SOL    HW273669  10.448  11.053   1.444
57258SOL     OW73670   8.356   2.595   1.874
57258SOL    HW173671   8.383   2.513   1.914
57258SOL    HW273672   8.314   2.644   1.945
57259SOL     OW73673   7.605  10.778   5.843
57259SOL    HW173674   7.649  10.741   5.919
57259SOL    HW273675   7.567  10.860   5.874
57260SOL     OW73676   7.723  14.558   3.753
57260SOL    HW173677   7.649  14.543   3.695
57260SOL    HW273678   7.684  14.584   3.836
57261SOL     OW73679   9.219  12.607  10.987
57261SOL    HW173680   9.265  12.622  11.069
57261SOL    HW273681   9.215  12.692  10.945
57262SOL     OW73682   8.405   6.389   1.428
57262SOL    HW173683   8.488   6.435   1.438
57262SOL    HW273684   8.351   6.447   1.373
57263SOL     OW73685   8.319   2.089   8.711
57263SOL    HW173686   8.234   2.095   8.754
57263SOL    HW273687   8.362   2.172   8.730
57264SOL     OW73688   8.733  13.427   2.732
57264SOL    HW173689   8.668  13.419   2.802
57264SOL    HW273690   8.769  13.339   2.722
57265SOL     OW73691  10.068   6.480   9.396
57265SOL    HW173692  10.101   6.555   9.446
57265SOL    HW273693   9.990   6.513   9.352
57266SOL     OW73694  11.740  11.810  12.426
57266SOL    HW173695  11.719  11.779  12.338
57266SOL    HW273696  11.666  11.781  12.480
57267SOL     OW73697   3.378   6.908   5.640
57267SOL    HW173698   3.307   6.967   5.616
57267SOL    HW273699   3.367   6.833   5.582
57268SOL     OW73700   7.563   5.493  14.131
57268SOL    HW173701   7.482   5.475  14.179
57268SOL    HW273702   7.633   5.468  14.191
57269SOL     OW73703  11.034   9.033   3.319
57269SOL    HW173704  11.017   9.059   3.229
57269SOL    HW273705  10.967   8.967   3.339
57270SOL     OW73706   6.977  14.739   4.498
57270SOL    HW173707   6.959  14.819   4.548
57270SOL    HW273708   6.900  14.728   4.442
57271SOL     OW73709   9.916  12.709   2.172
57271SOL    HW173710   9.972  12.644   2.214
57271SOL    HW273711   9.839  12.660   2.145
57272SOL     OW73712   7.895   0.987   9.851
57272SOL    HW173713   7.902   0.932   9.772
57272SOL    HW273714   7.817   1.041   9.835
57273SOL     OW73715   1.127   4.800  14.826
57273SOL    HW173716   1.187   4.850  14.770
57273SOL    HW273717   1.043   4.803  14.779
57274SOL     OW73718   8.215   5.837   4.770
57274SOL    HW173719   8.304   5.839   4.805
57274SOL    HW273720   8.188   5.929   4.770
57275SOL     OW73721   0.154  11.219   6.622
57275SOL    HW173722   0.084  11.248   6.680
57275SOL    HW273723   0.187  11.139   6.664
57276SOL     OW73724   2.430  11.796   7.018
57276SOL    HW173725   2.358  11.782   6.956
57276SOL    HW273726   2.441  11.891   7.021
57277SOL     OW73727   5.666  10.722   8.123
57277SOL    HW173728   5.577  10.693   8.106
57277SOL    HW273729   5.658  10.784   8.196
57278SOL     OW73730   3.562   3.466   2.811
57278SOL    HW173731   3.631   3.531   2.821
57278SOL    HW273732   3.607   3.382   2.810
57279SOL     OW73733   2.508  12.382   5.825
57279SOL    HW173734   2.417  12.405   5.846
57279SOL    HW273735   2.500  12.311   5.762
57280SOL     OW73736   9.262   7.470  10.233
57280SOL    HW173737   9.179   7.439  10.268
57280SOL    HW273738   9.305   7.392  10.199
57281SOL     OW73739   2.787   1.703   2.538
57281SOL    HW173740   2.854   1.670   2.598
57281SOL    HW273741   2.815   1.674   2.452
57282SOL     OW73742  13.806  11.503   9.115
57282SOL    HW173743  13.873  11.570   9.122
57282SOL    HW273744  13.757  11.509   9.197
57283SOL     OW73745   6.142   1.911   6.797
57283SOL    HW173746   6.082   1.916   6.871
57283SOL    HW273747   6.171   2.001   6.783
57284SOL     OW73748   0.747  12.553   4.758
57284SOL    HW173749   0.824  12.601   4.788
57284SOL    HW273750   0.709  12.516   4.837
57285SOL     OW73751  13.721   9.894   2.247
57285SOL    HW173752  13.633   9.860   2.234
57285SOL    HW273753  13.732   9.960   2.179
57286SOL     OW73754  13.879   9.741   1.648
57286SOL    HW173755  13.953   9.785   1.607
57286SOL    HW273756  13.919   9.677   1.707
57287SOL     OW73757   4.321  11.432   0.217
57287SOL    HW173758   4.409  11.465   0.232
57287SOL    HW273759   4.297  11.466   0.131
57288SOL     OW73760   6.508  14.745  11.451
57288SOL    HW173761   6.502  14.840  11.459
57288SOL    HW273762   6.601  14.727  11.443
57289SOL     OW73763   1.596   5.385   9.253
57289SOL    HW173764   1.567   5.474   9.273
57289SOL    HW273765   1.540   5.329   9.307
57290SOL     OW73766  11.487   1.326   0.311
57290SOL    HW173767  11.541   1.404   0.325
57290SOL    HW273768  11.397   1.358   0.319
57291SOL     OW73769   5.436  14.626   4.645
57291SOL    HW173770   5.436  14.703   4.701
57291SOL    HW273771   5.501  14.567   4.683
57292SOL     OW73772   2.990  10.936  14.621
57292SOL    HW173773   2.976  10.973  14.708
57292SOL    HW273774   3.083  10.949  14.603
57293SOL     OW73775  11.439   1.113   6.109
57293SOL    HW173776  11.407   1.170   6.179
57293SOL    HW273777  11.387   1.033   6.117
57294SOL     OW73778   1.913  14.304   4.864
57294SOL    HW173779   1.971  14.261   4.801
57294SOL    HW273780   1.843  14.241   4.879
57295SOL     OW73781  11.097   0.129   8.154
57295SOL    HW173782  11.120   0.193   8.222
57295SOL    HW273783  11.078   0.049   8.203
57296SOL     OW73784   6.417   7.347   3.045
57296SOL    HW173785   6.389   7.362   2.955
57296SOL    HW273786   6.391   7.256   3.063
57297SOL     OW73787  12.282   1.932   8.992
57297SOL    HW173788  12.272   1.842   9.023
57297SOL    HW273789  12.341   1.926   8.917
57298SOL     OW73790  10.686   6.459   0.343
57298SOL    HW173791  10.731   6.433   0.423
57298SOL    HW273792  10.711   6.393   0.278
57299SOL     OW73793   5.273   0.225   6.534
57299SOL    HW173794   5.332   0.269   6.473
57299SOL    HW273795   5.187   0.261   6.514
57300SOL     OW73796   0.754   1.090   0.834
57300SOL    HW173797   0.731   1.155   0.900
57300SOL    HW273798   0.671   1.045   0.816
57301SOL     OW73799   7.274   1.029   5.041
57301SOL    HW173800   7.238   1.037   4.952
57301SOL    HW273801   7.368   1.016   5.027
57302SOL     OW73802   3.362   9.021   7.155
57302SOL    HW173803   3.322   8.977   7.230
57302SOL    HW273804   3.294   9.019   7.087
57303SOL     OW73805   4.798   9.283   0.246
57303SOL    HW173806   4.874   9.227   0.265
57303SOL    HW273807   4.734   9.260   0.313
57304SOL     OW73808   8.181  11.839   1.234
57304SOL    HW173809   8.128  11.871   1.161
57304SOL    HW273810   8.120  11.836   1.308
57305SOL     OW73811   6.599   8.024  11.764
57305SOL    HW173812   6.586   8.032  11.669
57305SOL    HW273813   6.597   8.114  11.796
57306SOL     OW73814  12.146   3.659   2.487
57306SOL    HW173815  12.145   3.623   2.575
57306SOL    HW273816  12.160   3.753   2.500
57307SOL     OW73817   7.483   4.505   1.243
57307SOL    HW173818   7.444   4.490   1.156
57307SOL    HW273819   7.411   4.489   1.304
57308SOL     OW73820   1.074   3.888   8.422
57308SOL    HW173821   1.158   3.935   8.427
57308SOL    HW273822   1.044   3.902   8.332
57309SOL     OW73823   9.202   7.272   4.057
57309SOL    HW173824   9.176   7.181   4.041
57309SOL    HW273825   9.281   7.266   4.110
57310SOL     OW73826   4.820   0.074   4.089
57310SOL    HW173827   4.746   0.110   4.138
57310SOL    HW273828   4.791  14.859   4.062
57311SOL     OW73829   2.917   3.479   6.390
57311SOL    HW173830   2.824   3.490   6.373
57311SOL    HW273831   2.960   3.527   6.320
57312SOL     OW73832   7.149  13.442   1.891
57312SOL    HW173833   7.188  13.516   1.937
57312SOL    HW273834   7.096  13.399   1.958
57313SOL     OW73835   5.313  14.806   6.353
57313SOL    HW173836   5.335  14.850   6.436
57313SOL    HW273837   5.299   0.007   6.292
57314SOL     OW73838   0.755   5.105   4.341
57314SOL    HW173839   0.778   5.136   4.253
57314SOL    HW273840   0.825   5.138   4.397
57315SOL     OW73841   7.624   3.552   0.380
57315SOL    HW173842   7.612   3.640   0.343
57315SOL    HW273843   7.706   3.521   0.341
57316SOL     OW73844  11.509   4.595   1.281
57316SOL    HW173845  11.574   4.614   1.213
57316SOL    HW273846  11.499   4.677   1.329
57317SOL     OW73847   4.431  12.966   3.386
57317SOL    HW173848   4.497  12.938   3.450
57317SOL    HW273849   4.353  12.983   3.438
57318SOL     OW73850   3.334   2.782   5.759
57318SOL    HW173851   3.411   2.764   5.705
57318SOL    HW273852   3.365   2.768   5.849
57319SOL     OW73853   7.310   8.540   5.083
57319SOL    HW173854   7.297   8.446   5.088
57319SOL    HW273855   7.263   8.566   5.004
57320SOL     OW73856   3.450   2.964   8.974
57320SOL    HW173857   3.457   2.869   8.973
57320SOL    HW273858   3.399   2.984   9.052
57321SOL     OW73859  13.335  11.912  11.966
57321SOL    HW173860  13.258  11.856  11.976
57321SOL    HW273861  13.354  11.943  12.054
57322SOL     OW73862   7.025  11.607   0.769
57322SOL    HW173863   6.966  11.633   0.839
57322SOL    HW273864   7.011  11.673   0.701
57323SOL     OW73865  11.232  13.144   4.239
57323SOL    HW173866  11.161  13.081   4.249
57323SOL    HW273867  11.188  13.225   4.211
57324SOL     OW73868   2.935   9.766  13.575
57324SOL    HW173869   2.993   9.841  13.563
57324SOL    HW273870   2.914   9.738  13.486
57325SOL     OW73871  10.167   7.489   9.449
57325SOL    HW173872  10.160   7.577   9.485
57325SOL    HW273873  10.250   7.455   9.482
57326SOL     OW73874   4.599  13.455  14.325
57326SOL    HW173875   4.513  13.413  14.319
57326SOL    HW273876   4.653  13.409  14.261
57327SOL     OW73877   9.290   0.002   4.655
57327SOL    HW173878   9.253  14.810   4.594
57327SOL    HW273879   9.273   0.087   4.613
57328SOL     OW73880   5.316   2.422   8.044
57328SOL    HW173881   5.304   2.338   8.000
57328SOL    HW273882   5.355   2.479   7.977
57329SOL     OW73883  12.132   2.723   4.322
57329SOL    HW173884  12.219   2.698   4.355
57329SOL    HW273885  12.086   2.640   4.309
57330SOL     OW73886   3.254  14.453   6.727
57330SOL    HW173887   3.331  14.503   6.697
57330SOL    HW273888   3.180  14.510   6.707
57331SOL     OW73889   2.748  11.795   2.359
57331SOL    HW173890   2.660  11.781   2.393
57331SOL    HW273891   2.745  11.882   2.321
57332SOL     OW73892   6.297   3.372   2.801
57332SOL    HW173893   6.365   3.352   2.866
57332SOL    HW273894   6.258   3.287   2.781
57333SOL     OW73895   7.000  12.282   3.207
57333SOL    HW173896   7.080  12.234   3.184
57333SOL    HW273897   6.929  12.228   3.174
57334SOL     OW73898   9.651   1.756   5.413
57334SOL    HW173899   9.643   1.743   5.508
57334SOL    HW273900   9.701   1.838   5.405
57335SOL     OW73901  11.941   4.796  10.557
57335SOL    HW173902  11.960   4.813  10.465
57335SOL    HW273903  11.855   4.756  10.557
57336SOL     OW73904   4.067   1.861  11.171
57336SOL    HW173905   4.100   1.946  11.141
57336SOL    HW273906   3.988   1.846  11.118
57337SOL     OW73907   0.996  10.493  14.182
57337SOL    HW173908   0.913  10.535  14.202
57337SOL    HW273909   1.063  10.550  14.220
57338SOL     OW73910   7.034   7.918   9.965
57338SOL    HW173911   6.968   7.965  10.016
57338SOL    HW273912   7.076   7.985   9.911
57339SOL     OW73913   6.442   6.045   9.043
57339SOL    HW173914   6.378   6.060   9.112
57339SOL    HW273915   6.480   5.959   9.064
57340SOL     OW73916   2.273   1.048   7.795
57340SOL    HW173917   2.207   1.053   7.726
57340SOL    HW273918   2.333   1.120   7.776
57341SOL     OW73919   9.607  11.565   0.189
57341SOL    HW173920   9.638  11.574   0.280
57341SOL    HW273921   9.512  11.561   0.197
57342SOL     OW73922   2.239   5.708   4.431
57342SOL    HW173923   2.269   5.626   4.471
57342SOL    HW273924   2.225   5.686   4.339
57343SOL     OW73925  13.338   1.074   8.322
57343SOL    HW173926  13.356   1.162   8.290
57343SOL    HW273927  13.424   1.033   8.330
57344SOL     OW73928   2.852  13.767   5.769
57344SOL    HW173929   2.772  13.785   5.720
57344SOL    HW273930   2.917  13.825   5.729
57345SOL     OW73931  10.344   2.227   3.375
57345SOL    HW173932  10.282   2.190   3.438
57345SOL    HW273933  10.403   2.280   3.428
57346SOL     OW73934   3.513   5.994  14.564
57346SOL    HW173935   3.491   6.069  14.619
57346SOL    HW273936   3.436   5.938  14.568
57347SOL     OW73937   3.794  13.036   5.092
57347SOL    HW173938   3.721  13.022   5.152
57347SOL    HW273939   3.784  13.126   5.062
57348SOL     OW73940  10.976   9.280   8.483
57348SOL    HW173941  11.004   9.190   8.500
57348SOL    HW273942  10.883   9.272   8.462
57349SOL     OW73943   2.569   6.643   4.691
57349SOL    HW173944   2.489   6.695   4.692
57349SOL    HW273945   2.639   6.705   4.709
57350SOL     OW73946   7.792   2.226  14.557
57350SOL    HW173947   7.743   2.168  14.500
57350SOL    HW273948   7.753   2.214  14.643
57351SOL     OW73949  11.839   3.504   2.084
57351SOL    HW173950  11.862   3.512   2.177
57351SOL    HW273951  11.923   3.500   2.039
57352SOL     OW73952   0.822   2.310  13.816
57352SOL    HW173953   0.807   2.349  13.903
57352SOL    HW273954   0.778   2.369  13.755
57353SOL     OW73955   0.859  11.611   9.945
57353SOL    HW173956   0.847  11.563  10.027
57353SOL    HW273957   0.770  11.636   9.919
57354SOL     OW73958  13.841   5.705   7.410
57354SOL    HW173959  13.877   5.618   7.430
57354SOL    HW273960  13.915   5.753   7.372
57355SOL     OW73961   6.889   8.289   3.006
57355SOL    HW173962   6.862   8.231   3.077
57355SOL    HW273963   6.822   8.357   3.004
57356SOL     OW73964   3.000   2.792   6.194
57356SOL    HW173965   2.953   2.725   6.243
57356SOL    HW273966   2.932   2.840   6.147
57357SOL     OW73967  13.771  11.588  14.233
57357SOL    HW173968  13.738  11.506  14.270
57357SOL    HW273969  13.830  11.622  14.300
57358SOL     OW73970   3.249   7.417  13.981
57358SOL    HW173971   3.192   7.446  13.910
57358SOL    HW273972   3.198   7.433  14.060
57359SOL     OW73973   0.783  14.800   9.208
57359SOL    HW173974   0.797  14.855   9.285
57359SOL    HW273975   0.867  14.759   9.191
57360SOL     OW73976   4.971   1.514   7.776
57360SOL    HW173977   4.940   1.593   7.819
57360SOL    HW273978   4.942   1.442   7.833
57361SOL     OW73979   7.638   2.155   5.735
57361SOL    HW173980   7.594   2.082   5.691
57361SOL    HW273981   7.692   2.196   5.668
57362SOL     OW73982   0.826  10.697   5.340
57362SOL    HW173983   0.814  10.603   5.335
57362SOL    HW273984   0.815  10.727   5.249
57363SOL     OW73985  10.468   4.456   9.711
57363SOL    HW173986  10.558   4.478   9.685
57363SOL    HW273987  10.454   4.504   9.792
57364SOL     OW73988  13.394   0.524   6.252
57364SOL    HW173989  13.405   0.615   6.223
57364SOL    HW273990  13.431   0.523   6.340
57365SOL     OW73991   7.431   9.034   0.961
57365SOL    HW173992   7.515   9.028   0.916
57365SOL    HW273993   7.444   9.100   1.029
57366SOL     OW73994   5.518  13.845   8.368
57366SOL    HW173995   5.568  13.812   8.292
57366SOL    HW273996   5.465  13.770   8.395
57367SOL     OW73997  14.061   3.530   4.123
57367SOL    HW173998  14.149   3.499   4.145
57367SOL    HW273999  14.042   3.487   4.039
57368SOL     OW74000   1.520   0.665  11.092
57368SOL    HW174001   1.457   0.623  11.033
57368SOL    HW274002   1.600   0.671  11.040
57369SOL     OW74003   7.052   6.995   7.478
57369SOL    HW174004   7.145   6.993   7.502
57369SOL    HW274005   7.011   7.053   7.543
57370SOL     OW74006  11.141   0.659   3.378
57370SOL    HW174007  11.170   0.578   3.337
57370SOL    HW274008  11.160   0.727   3.313
57371SOL     OW74009   4.361   0.862  12.196
57371SOL    HW174010   4.424   0.905  12.139
57371SOL    HW274011   4.407   0.851  12.280
57372SOL     OW74012  14.743   7.356  12.722
57372SOL    HW174013  14.757   7.441  12.679
57372SOL    HW274014  14.700   7.378  12.805
57373SOL     OW74015   0.083   7.530   3.088
57373SOL    HW174016   0.075   7.597   3.020
57373SOL    HW274017   0.001   7.480   3.082
57374SOL     OW74018   7.961  14.451  11.887
57374SOL    HW174019   8.013  14.487  11.958
57374SOL    HW274020   7.872  14.448  11.922
57375SOL     OW74021   3.419   3.893   1.482
57375SOL    HW174022   3.448   3.931   1.566
57375SOL    HW274023   3.332   3.930   1.468
57376SOL     OW74024   6.836  14.683   8.092
57376SOL    HW174025   6.816  14.776   8.092
57376SOL    HW274026   6.789  14.649   8.168
57377SOL     OW74027   6.401   1.683  14.400
57377SOL    HW174028   6.483   1.733  14.407
57377SOL    HW274029   6.417   1.622  14.328
57378SOL     OW74030   3.094   5.254  14.503
57378SOL    HW174031   3.058   5.284  14.587
57378SOL    HW274032   3.136   5.331  14.466
57379SOL     OW74033   7.985   3.694   1.992
57379SOL    HW174034   8.011   3.674   2.082
57379SOL    HW274035   8.064   3.730   1.952
57380SOL     OW74036  10.978  11.643   6.993
57380SOL    HW174037  11.024  11.593   7.060
57380SOL    HW274038  10.938  11.716   7.040
57381SOL     OW74039   9.612   0.944  10.147
57381SOL    HW174040   9.594   0.850  10.145
57381SOL    HW274041   9.560   0.977  10.221
57382SOL     OW74042   4.588   8.013   3.980
57382SOL    HW174043   4.669   7.992   3.934
57382SOL    HW274044   4.556   8.092   3.937
57383SOL     OW74045   7.478   2.496   7.695
57383SOL    HW174046   7.385   2.497   7.674
57383SOL    HW274047   7.518   2.554   7.629
57384SOL     OW74048   1.978   9.115   5.990
57384SOL    HW174049   1.962   9.183   5.925
57384SOL    HW274050   2.055   9.145   6.038
57385SOL     OW74051   6.321   4.166   8.655
57385SOL    HW174052   6.252   4.220   8.694
57385SOL    HW274053   6.390   4.163   8.721
57386SOL     OW74054   6.458  11.979   6.253
57386SOL    HW174055   6.389  11.915   6.269
57386SOL    HW274056   6.450  12.041   6.325
57387SOL     OW74057  14.436  14.455   4.062
57387SOL    HW174058  14.455  14.393   3.992
57387SOL    HW274059  14.503  14.439   4.128
57388SOL     OW74060  13.810   5.673   0.690
57388SOL    HW174061  13.779   5.644   0.776
57388SOL    HW274062  13.892   5.719   0.708
57389SOL     OW74063  11.559   8.147   9.925
57389SOL    HW174064  11.586   8.204   9.853
57389SOL    HW274065  11.499   8.084   9.884
57390SOL     OW74066   7.027   4.785   3.870
57390SOL    HW174067   7.039   4.847   3.942
57390SOL    HW274068   7.070   4.826   3.795
57391SOL     OW74069  11.824   8.588   8.889
57391SOL    HW174070  11.862   8.656   8.944
57391SOL    HW274071  11.735   8.618   8.871
57392SOL     OW74072   8.330   0.056   7.723
57392SOL    HW174073   8.245   0.067   7.679
57392SOL    HW274074   8.360   0.145   7.740
57393SOL     OW74075   5.063   9.212   3.789
57393SOL    HW174076   4.986   9.241   3.739
57393SOL    HW274077   5.117   9.167   3.724
57394SOL     OW74078   0.940  12.446   0.586
57394SOL    HW174079   0.868  12.441   0.524
57394SOL    HW274080   0.900  12.471   0.669
57395SOL     OW74081   7.890   8.981   2.966
57395SOL    HW174082   7.951   8.973   3.039
57395SOL    HW274083   7.853   8.893   2.956
57396SOL     OW74084   9.139   5.794   1.994
57396SOL    HW174085   9.211   5.735   2.016
57396SOL    HW274086   9.178   5.859   1.936
57397SOL     OW74087   2.463   0.451   9.206
57397SOL    HW174088   2.398   0.386   9.179
57397SOL    HW274089   2.522   0.457   9.131
57398SOL     OW74090  11.902   5.873   9.612
57398SOL    HW174091  11.900   5.805   9.679
57398SOL    HW274092  11.823   5.858   9.561
57399SOL     OW74093   9.346   9.822   5.741
57399SOL    HW174094   9.299   9.860   5.667
57399SOL    HW274095   9.426   9.874   5.748
57400SOL     OW74096  13.691   9.531   3.476
57400SOL    HW174097  13.628   9.588   3.520
57400SOL    HW274098  13.728   9.585   3.406
57401SOL     OW74099  13.730   5.013  12.943
57401SOL    HW174100  13.651   5.018  12.996
57401SOL    HW274101  13.715   5.073  12.870
57402SOL     OW74102   5.371  12.696  11.012
57402SOL    HW174103   5.464  12.676  11.014
57402SOL    HW274104   5.328  12.620  11.051
57403SOL     OW74105   2.256   6.208   5.217
57403SOL    HW174106   2.240   6.184   5.126
57403SOL    HW274107   2.174   6.187   5.262
57404SOL     OW74108   3.332  11.121   6.054
57404SOL    HW174109   3.344  11.056   6.123
57404SOL    HW274110   3.295  11.197   6.098
57405SOL     OW74111   0.193   2.986  13.314
57405SOL    HW174112   0.181   2.922  13.385
57405SOL    HW274113   0.113   3.039  13.316
57406SOL     OW74114  11.983  10.710  12.388
57406SOL    HW174115  11.955  10.620  12.370
57406SOL    HW274116  11.971  10.756  12.305
57407SOL     OW74117   8.989   7.260   7.056
57407SOL    HW174118   9.079   7.232   7.039
57407SOL    HW274119   8.988   7.282   7.149
57408SOL     OW74120   2.196  13.578  11.509
57408SOL    HW174121   2.230  13.498  11.469
57408SOL    HW274122   2.273  13.621  11.545
57409SOL     OW74123  14.484   7.053  11.351
57409SOL    HW174124  14.489   6.971  11.302
57409SOL    HW274125  14.575   7.082  11.359
57410SOL     OW74126   8.304   6.793   3.393
57410SOL    HW174127   8.356   6.779   3.472
57410SOL    HW274128   8.215   6.810   3.424
57411SOL     OW74129   5.027  12.436   8.234
57411SOL    HW174130   5.043  12.360   8.179
57411SOL    HW274131   5.088  12.427   8.306
57412SOL     OW74132   4.385  11.311  11.494
57412SOL    HW174133   4.400  11.243  11.428
57412SOL    HW274134   4.471  11.347  11.512
57413SOL     OW74135  10.413   5.069   0.887
57413SOL    HW174136  10.494   5.020   0.904
57413SOL    HW274137  10.416   5.142   0.948
57414SOL     OW74138  13.048   5.864  11.225
57414SOL    HW174139  13.133   5.894  11.258
57414SOL    HW274140  13.010   5.817  11.299
57415SOL     OW74141  12.808   9.631   1.222
57415SOL    HW174142  12.865   9.682   1.164
57415SOL    HW274143  12.820   9.671   1.308
57416SOL     OW74144   2.339   5.285  10.701
57416SOL    HW174145   2.345   5.214  10.765
57416SOL    HW274146   2.430   5.310  10.683
57417SOL     OW74147   0.482   4.262   7.717
57417SOL    HW174148   0.470   4.174   7.753
57417SOL    HW274149   0.453   4.255   7.626
57418SOL     OW74150  11.705   2.769  13.674
57418SOL    HW174151  11.648   2.720  13.733
57418SOL    HW274152  11.679   2.739  13.586
57419SOL     OW74153   5.922   7.367  13.525
57419SOL    HW174154   5.953   7.412  13.447
57419SOL    HW274155   5.999   7.363  13.583
57420SOL     OW74156   6.533   4.112   0.748
57420SOL    HW174157   6.498   4.110   0.659
57420SOL    HW274158   6.467   4.067   0.800
57421SOL     OW74159   5.072   5.191   7.648
57421SOL    HW174160   5.055   5.154   7.562
57421SOL    HW274161   5.160   5.228   7.642
57422SOL     OW74162  12.330  13.898   5.788
57422SOL    HW174163  12.340  13.919   5.881
57422SOL    HW274164  12.420  13.895   5.754
57423SOL     OW74165  14.026   5.225   8.664
57423SOL    HW174166  14.068   5.300   8.621
57423SOL    HW274167  14.085   5.151   8.647
57424SOL     OW74168   6.917   9.927   6.216
57424SOL    HW174169   6.887   9.866   6.149
57424SOL    HW274170   6.839   9.977   6.240
57425SOL     OW74171   7.325  11.319   1.101
57425SOL    HW174172   7.312  11.228   1.131
57425SOL    HW274173   7.346  11.310   1.008
57426SOL     OW74174  11.641   2.857  11.953
57426SOL    HW174175  11.562   2.805  11.970
57426SOL    HW274176  11.635   2.931  12.013
57427SOL     OW74177   5.020  11.732   1.760
57427SOL    HW174178   4.992  11.679   1.685
57427SOL    HW274179   5.008  11.823   1.731
57428SOL     OW74180  12.407   7.903   1.239
57428SOL    HW174181  12.451   7.913   1.155
57428SOL    HW274182  12.439   7.819   1.273
57429SOL     OW74183   5.180   2.847  10.189
57429SOL    HW174184   5.137   2.926  10.156
57429SOL    HW274185   5.157   2.780  10.125
57430SOL     OW74186   4.912   2.093   7.048
57430SOL    HW174187   4.865   2.030   7.102
57430SOL    HW274188   4.853   2.169   7.042
57431SOL     OW74189  10.919   9.043  11.882
57431SOL    HW174190  10.917   9.137  11.865
57431SOL    HW274191  10.841   9.026  11.934
57432SOL     OW74192   3.510   8.724   4.994
57432SOL    HW174193   3.558   8.649   5.031
57432SOL    HW274194   3.550   8.738   4.908
57433SOL     OW74195   5.332  12.662   9.434
57433SOL    HW174196   5.286  12.579   9.421
57433SOL    HW274197   5.401  12.662   9.367
57434SOL     OW74198  11.087   2.614   1.997
57434SOL    HW174199  11.101   2.654   1.911
57434SOL    HW274200  11.104   2.684   2.059
57435SOL     OW74201   1.891  14.528   1.981
57435SOL    HW174202   1.848  14.567   2.057
57435SOL    HW274203   1.846  14.444   1.969
57436SOL     OW74204   8.295  13.717  11.440
57436SOL    HW174205   8.282  13.791  11.500
57436SOL    HW274206   8.235  13.649  11.472
57437SOL     OW74207   6.189   0.981   2.445
57437SOL    HW174208   6.244   1.051   2.480
57437SOL    HW274209   6.209   0.979   2.351
57438SOL     OW74210   6.649   2.089   4.976
57438SOL    HW174211   6.655   2.183   4.959
57438SOL    HW274212   6.593   2.055   4.906
57439SOL     OW74213   7.452  10.079   3.530
57439SOL    HW174214   7.527  10.127   3.564
57439SOL    HW274215   7.397  10.064   3.606
57440SOL     OW74216   3.924  13.751  13.637
57440SOL    HW174217   3.846  13.735  13.690
57440SOL    HW274218   3.892  13.748  13.547
57441SOL     OW74219   1.322   8.569   0.532
57441SOL    HW174220   1.313   8.639   0.597
57441SOL    HW274221   1.350   8.492   0.583
57442SOL     OW74222  11.304  13.239   8.896
57442SOL    HW174223  11.304  13.299   8.822
57442SOL    HW274224  11.358  13.282   8.962
57443SOL     OW74225   7.993   5.379   9.254
57443SOL    HW174226   8.030   5.314   9.314
57443SOL    HW274227   8.068   5.407   9.201
57444SOL     OW74228   5.032   5.416  10.437
57444SOL    HW174229   5.019   5.398  10.343
57444SOL    HW274230   5.125   5.438  10.445
57445SOL     OW74231   4.881   1.845  14.124
57445SOL    HW174232   4.925   1.780  14.069
57445SOL    HW274233   4.937   1.853  14.201
57446SOL     OW74234   9.477   7.699   0.940
57446SOL    HW174235   9.491   7.773   0.881
57446SOL    HW274236   9.499   7.622   0.888
57447SOL     OW74237   0.091   0.841   6.769
57447SOL    HW174238   0.145   0.796   6.835
57447SOL    HW274239   0.065   0.772   6.708
57448SOL     OW74240   1.511   2.377   5.001
57448SOL    HW174241   1.479   2.316   5.068
57448SOL    HW274242   1.478   2.462   5.027
57449SOL     OW74243   4.555   7.240   7.018
57449SOL    HW174244   4.575   7.156   6.976
57449SOL    HW274245   4.491   7.217   7.086
57450SOL     OW74246   0.123   1.678  11.023
57450SOL    HW174247   0.056   1.615  11.048
57450SOL    HW274248   0.075   1.746  10.975
57451SOL     OW74249  12.359   7.132   6.224
57451SOL    HW174250  12.273   7.167   6.199
57451SOL    HW274251  12.421   7.200   6.199
57452SOL     OW74252   4.799   7.376   2.482
57452SOL    HW174253   4.760   7.438   2.543
57452SOL    HW274254   4.726   7.321   2.453
57453SOL     OW74255  12.833   3.033   1.200
57453SOL    HW174256  12.780   2.970   1.152
57453SOL    HW274257  12.860   2.987   1.279
57454SOL     OW74258  10.544   4.410  10.406
57454SOL    HW174259  10.632   4.376  10.421
57454SOL    HW274260  10.492   4.332  10.384
57455SOL     OW74261   2.735   4.167  13.168
57455SOL    HW174262   2.819   4.129  13.194
57455SOL    HW274263   2.673   4.132  13.233
57456SOL     OW74264   6.856  14.364  12.224
57456SOL    HW174265   6.933  14.354  12.281
57456SOL    HW274266   6.802  14.287  12.244
57457SOL     OW74267   2.735  12.589   3.074
57457SOL    HW174268   2.780  12.654   3.019
57457SOL    HW274269   2.805  12.531   3.104
57458SOL     OW74270  12.395   6.317   6.966
57458SOL    HW174271  12.302   6.338   6.966
57458SOL    HW274272  12.406   6.255   6.894
57459SOL     OW74273   5.695  13.543  13.821
57459SOL    HW174274   5.646  13.566  13.900
57459SOL    HW274275   5.784  13.575  13.838
57460SOL     OW74276  12.043  14.113  10.705
57460SOL    HW174277  12.072  14.105  10.614
57460SOL    HW274278  12.088  14.043  10.751
57461SOL     OW74279  10.807  10.670   4.174
57461SOL    HW174280  10.843  10.739   4.118
57461SOL    HW274281  10.863  10.594   4.157
57462SOL     OW74282  10.907  10.334   2.919
57462SOL    HW174283  11.002  10.320   2.919
57462SOL    HW274284  10.884  10.339   3.012
57463SOL     OW74285   4.636  11.644   7.821
57463SOL    HW174286   4.669  11.732   7.835
57463SOL    HW274287   4.578  11.627   7.895
57464SOL     OW74288   5.420  10.458   6.762
57464SOL    HW174289   5.329  10.431   6.754
57464SOL    HW274290   5.461  10.389   6.815
57465SOL     OW74291  11.444   5.528   9.621
57465SOL    HW174292  11.421   5.578   9.699
57465SOL    HW274293  11.361   5.497   9.587
57466SOL     OW74294  12.616   6.601  14.410
57466SOL    HW174295  12.606   6.578  14.502
57466SOL    HW274296  12.575   6.687  14.402
57467SOL     OW74297   1.070   1.388   6.163
57467SOL    HW174298   1.000   1.410   6.102
57467SOL    HW274299   1.131   1.462   6.157
57468SOL     OW74300  12.162   1.359  14.822
57468SOL    HW174301  12.175   1.453  14.815
57468SOL    HW274302  12.102   1.349   0.025
57469SOL     OW74303  12.596  12.793   0.497
57469SOL    HW174304  12.507  12.783   0.531
57469SOL    HW274305  12.589  12.769   0.405
57470SOL     OW74306   8.112   7.069   1.430
57470SOL    HW174307   8.134   7.100   1.518
57470SOL    HW274308   8.045   7.130   1.399
57471SOL     OW74309   2.025   5.485  11.888
57471SOL    HW174310   1.988   5.481  11.976
57471SOL    HW274311   2.112   5.447  11.897
57472SOL     OW74312   8.894   5.210   5.083
57472SOL    HW174313   8.922   5.261   5.159
57472SOL    HW274314   8.968   5.152   5.065
57473SOL     OW74315  12.182  12.832   4.667
57473SOL    HW174316  12.090  12.847   4.642
57473SOL    HW274317  12.231  12.850   4.587
57474SOL     OW74318   2.754   5.890  10.094
57474SOL    HW174319   2.843   5.917  10.069
57474SOL    HW274320   2.765   5.849  10.180
57475SOL     OW74321  14.226   0.505   6.393
57475SOL    HW174322  14.244   0.473   6.304
57475SOL    HW274323  14.176   0.586   6.379
57476SOL     OW74324  11.339   9.380  13.987
57476SOL    HW174325  11.339   9.286  13.967
57476SOL    HW274326  11.419   9.413  13.944
57477SOL     OW74327   6.006   8.772   2.930
57477SOL    HW174328   5.974   8.686   2.902
57477SOL    HW274329   6.075   8.794   2.868
57478SOL     OW74330   3.727   2.935  12.526
57478SOL    HW174331   3.663   2.981  12.472
57478SOL    HW274332   3.723   2.981  12.610
57479SOL     OW74333   4.800   7.988  13.477
57479SOL    HW174334   4.731   7.922  13.480
57479SOL    HW274335   4.756   8.068  13.448
57480SOL     OW74336   6.212   2.980  14.276
57480SOL    HW174337   6.223   2.908  14.337
57480SOL    HW274338   6.139   2.953  14.220
57481SOL     OW74339   8.527   3.199   6.918
57481SOL    HW174340   8.563   3.167   6.835
57481SOL    HW274341   8.464   3.132   6.944
57482SOL     OW74342   0.392   6.674   1.351
57482SOL    HW174343   0.373   6.695   1.259
57482SOL    HW274344   0.318   6.710   1.399
57483SOL     OW74345  11.432   6.768  12.071
57483SOL    HW174346  11.391   6.691  12.111
57483SOL    HW274347  11.430   6.750  11.977
57484SOL     OW74348   1.526   0.606  13.872
57484SOL    HW174349   1.565   0.557  13.944
57484SOL    HW274350   1.584   0.681  13.859
57485SOL     OW74351   6.206   5.216  12.380
57485SOL    HW174352   6.181   5.265  12.301
57485SOL    HW274353   6.211   5.125  12.351
57486SOL     OW74354   4.759  10.188   7.486
57486SOL    HW174355   4.663  10.189   7.486
57486SOL    HW274356   4.784  10.260   7.544
57487SOL     OW74357   3.828  10.753   5.963
57487SOL    HW174358   3.792  10.842   5.963
57487SOL    HW274359   3.754  10.698   5.938
57488SOL     OW74360   1.394  14.759  10.172
57488SOL    HW174361   1.355  14.707  10.102
57488SOL    HW274362   1.431  14.836  10.128
57489SOL     OW74363   5.737   2.782   3.678
57489SOL    HW174364   5.714   2.727   3.604
57489SOL    HW274365   5.750   2.721   3.750
57490SOL     OW74366  11.853   0.657   4.951
57490SOL    HW174367  11.829   0.745   4.922
57490SOL    HW274368  11.834   0.600   4.876
57491SOL     OW74369   5.655  13.525  14.094
57491SOL    HW174370   5.736  13.479  14.116
57491SOL    HW274371   5.648  13.594  14.160
57492SOL     OW74372  12.980   5.190   5.767
57492SOL    HW174373  12.927   5.116   5.740
57492SOL    HW274374  12.923   5.266   5.753
57493SOL     OW74375   3.767   9.958   4.362
57493SOL    HW174376   3.751   9.927   4.273
57493SOL    HW274377   3.684   9.946   4.407
57494SOL     OW74378   7.620   9.454   2.019
57494SOL    HW174379   7.563   9.437   2.094
57494SOL    HW274380   7.701   9.406   2.038
57495SOL     OW74381   0.835   4.946   8.836
57495SOL    HW174382   0.858   4.942   8.929
57495SOL    HW274383   0.746   4.982   8.835
57496SOL     OW74384   6.020  11.259   7.308
57496SOL    HW174385   5.962  11.234   7.379
57496SOL    HW274386   5.981  11.219   7.230
57497SOL     OW74387   0.815   2.253   8.587
57497SOL    HW174388   0.790   2.196   8.659
57497SOL    HW274389   0.861   2.195   8.526
57498SOL     OW74390   2.760  13.748  12.878
57498SOL    HW174391   2.741  13.658  12.904
57498SOL    HW274392   2.851  13.763  12.906
57499SOL     OW74393  10.750  13.550   8.467
57499SOL    HW174394  10.777  13.525   8.556
57499SOL    HW274395  10.833  13.562   8.420
57500SOL     OW74396   4.657  12.153   0.911
57500SOL    HW174397   4.719  12.110   0.851
57500SOL    HW274398   4.576  12.160   0.860
57501SOL     OW74399  14.128  11.613   1.994
57501SOL    HW174400  14.119  11.641   1.902
57501SOL    HW274401  14.197  11.669   2.029
57502SOL     OW74402   2.297  11.491   7.831
57502SOL    HW174403   2.287  11.561   7.895
57502SOL    HW274404   2.338  11.419   7.880
57503SOL     OW74405   8.265  12.048  13.531
57503SOL    HW174406   8.252  12.106  13.606
57503SOL    HW274407   8.296  12.106  13.461
57504SOL     OW74408   4.567  13.555  12.194
57504SOL    HW174409   4.561  13.650  12.186
57504SOL    HW274410   4.500  13.521  12.136
57505SOL     OW74411   8.374   3.258  10.062
57505SOL    HW174412   8.363   3.201   9.985
57505SOL    HW274413   8.410   3.339  10.027
57506SOL     OW74414  10.699   3.517   2.480
57506SOL    HW174415  10.741   3.448   2.430
57506SOL    HW274416  10.769   3.556   2.533
57507SOL     OW74417  13.636   5.231  11.463
57507SOL    HW174418  13.669   5.145  11.488
57507SOL    HW274419  13.695   5.260  11.393
57508SOL     OW74420   9.507  12.830   9.229
57508SOL    HW174421   9.496  12.925   9.232
57508SOL    HW274422   9.602  12.818   9.231
57509SOL     OW74423   2.614   5.026  11.433
57509SOL    HW174424   2.589   5.030  11.525
57509SOL    HW274425   2.559   5.091  11.389
57510SOL     OW74426   7.555   8.376   7.650
57510SOL    HW174427   7.497   8.302   7.633
57510SOL    HW274428   7.531   8.405   7.738
57511SOL     OW74429   0.952  12.416  11.104
57511SOL    HW174430   0.984  12.443  11.190
57511SOL    HW274431   0.862  12.386  11.120
57512SOL     OW74432   8.412   1.465   0.225
57512SOL    HW174433   8.395   1.383   0.179
57512SOL    HW274434   8.343   1.470   0.291
57513SOL     OW74435   3.970  13.582   4.942
57513SOL    HW174436   3.895  13.538   4.901
57513SOL    HW274437   3.948  13.585   5.035
57514SOL     OW74438   5.072   9.399   4.416
57514SOL    HW174439   5.028   9.322   4.379
57514SOL    HW274440   5.159   9.397   4.377
57515SOL     OW74441   7.404   6.772  12.714
57515SOL    HW174442   7.324   6.824  12.709
57515SOL    HW274443   7.404   6.735  12.802
57516SOL     OW74444  12.114  11.066  10.461
57516SOL    HW174445  12.107  11.142  10.403
57516SOL    HW274446  12.034  11.069  10.514
57517SOL     OW74447  14.623   9.840   0.784
57517SOL    HW174448  14.539   9.813   0.819
57517SOL    HW274449  14.688   9.800   0.842
57518SOL     OW74450  12.229  10.316  11.214
57518SOL    HW174451  12.216  10.401  11.171
57518SOL    HW274452  12.145  10.300  11.259
57519SOL     OW74453  13.010  10.882  10.014
57519SOL    HW174454  13.030  10.960  10.066
57519SOL    HW274455  12.952  10.830  10.068
57520SOL     OW74456   1.120  11.519   5.359
57520SOL    HW174457   1.124  11.595   5.417
57520SOL    HW274458   1.116  11.444   5.419
57521SOL     OW74459   7.413   5.762  14.262
57521SOL    HW174460   7.319   5.750  14.276
57521SOL    HW274461   7.419   5.843  14.212
57522SOL     OW74462  10.890   4.011   0.999
57522SOL    HW174463  10.971   4.042   1.040
57522SOL    HW274464  10.827   4.005   1.071
57523SOL     OW74465   7.846  13.203   7.538
57523SOL    HW174466   7.920  13.156   7.576
57523SOL    HW274467   7.769  13.162   7.577
57524SOL     OW74468   8.537   7.879   3.011
57524SOL    HW174469   8.531   7.933   3.090
57524SOL    HW274470   8.537   7.789   3.043
57525SOL     OW74471   6.078   8.312   4.927
57525SOL    HW174472   6.160   8.304   4.977
57525SOL    HW274473   6.047   8.400   4.946
57526SOL     OW74474   4.630   2.372  13.489
57526SOL    HW174475   4.585   2.454  13.511
57526SOL    HW274476   4.574   2.332  13.422
57527SOL     OW74477   9.616   4.328   6.758
57527SOL    HW174478   9.599   4.257   6.820
57527SOL    HW274479   9.711   4.327   6.746
57528SOL     OW74480   5.600   0.240   9.262
57528SOL    HW174481   5.629   0.322   9.223
57528SOL    HW274482   5.551   0.196   9.191
57529SOL     OW74483  11.241   6.565  14.223
57529SOL    HW174484  11.294   6.595  14.297
57529SOL    HW274485  11.301   6.511  14.171
57530SOL     OW74486  11.777   2.799   9.489
57530SOL    HW174487  11.855   2.845   9.522
57530SOL    HW274488  11.784   2.806   9.394
57531SOL     OW74489  13.914  11.036   2.989
57531SOL    HW174490  13.982  10.971   3.005
57531SOL    HW274491  13.845  11.015   3.052
57532SOL     OW74492   2.048  14.733   5.781
57532SOL    HW174493   2.001  14.705   5.859
57532SOL    HW274494   1.993  14.800   5.742
57533SOL     OW74495   1.992   2.904  12.186
57533SOL    HW174496   2.064   2.912  12.249
57533SOL    HW274497   1.937   2.834  12.222
57534SOL     OW74498   3.717  12.712   0.605
57534SOL    HW174499   3.766  12.794   0.600
57534SOL    HW274500   3.721  12.687   0.698
57535SOL     OW74501   1.763   5.064  10.293
57535SOL    HW174502   1.837   5.123  10.307
57535SOL    HW274503   1.795   4.978  10.319
57536SOL     OW74504   1.569   2.818  10.549
57536SOL    HW174505   1.610   2.893  10.591
57536SOL    HW274506   1.637   2.750  10.550
57537SOL     OW74507   1.867  10.793  11.198
57537SOL    HW174508   1.910  10.758  11.120
57537SOL    HW274509   1.787  10.834  11.165
57538SOL     OW74510   7.596   9.697  12.875
57538SOL    HW174511   7.552   9.765  12.823
57538SOL    HW274512   7.526   9.660  12.929
57539SOL     OW74513  13.804  11.561   1.053
57539SOL    HW174514  13.715  11.567   1.089
57539SOL    HW274515  13.799  11.610   0.970
57540SOL     OW74516   7.788   3.157   3.847
57540SOL    HW174517   7.809   3.203   3.766
57540SOL    HW274518   7.714   3.206   3.883
57541SOL     OW74519  14.271   2.257   4.647
57541SOL    HW174520  14.179   2.273   4.627
57541SOL    HW274521  14.308   2.223   4.565
57542SOL     OW74522   3.732   9.464  14.334
57542SOL    HW174523   3.708   9.372  14.327
57542SOL    HW274524   3.700   9.503  14.253
57543SOL     OW74525   5.228   4.753   4.458
57543SOL    HW174526   5.299   4.727   4.517
57543SOL    HW274527   5.233   4.849   4.455
57544SOL     OW74528   1.944  13.429   4.193
57544SOL    HW174529   1.968  13.341   4.223
57544SOL    HW274530   2.019  13.484   4.216
57545SOL     OW74531  11.333  10.630  14.111
57545SOL    HW174532  11.301  10.671  14.030
57545SOL    HW274533  11.255  10.616  14.164
57546SOL     OW74534   7.382  11.594   1.111
57546SOL    HW174535   7.358  11.503   1.124
57546SOL    HW274536   7.340  11.618   1.028
57547SOL     OW74537  14.443  14.521  11.293
57547SOL    HW174538  14.422  14.522  11.386
57547SOL    HW274539  14.528  14.564  11.287
57548SOL     OW74540   9.731  11.229  13.398
57548SOL    HW174541   9.802  11.200  13.455
57548SOL    HW274542   9.703  11.313  13.436
57549SOL     OW74543   0.513   1.214   6.579
57549SOL    HW174544   0.596   1.203   6.626
57549SOL    HW274545   0.452   1.246   6.645
57550SOL     OW74546   2.856  13.332   0.155
57550SOL    HW174547   2.832  13.414   0.197
57550SOL    HW274548   2.945  13.348   0.121
57551SOL     OW74549  12.043  12.629   0.625
57551SOL    HW174550  11.960  12.674   0.610
57551SOL    HW274551  12.036  12.548   0.574
57552SOL     OW74552  10.893  10.152   8.156
57552SOL    HW174553  10.922  10.085   8.094
57552SOL    HW274554  10.889  10.233   8.104
57553SOL     OW74555   7.979  14.730   9.050
57553SOL    HW174556   7.951  14.756   8.962
57553SOL    HW274557   8.054  14.672   9.035
57554SOL     OW74558   2.294   7.632  12.395
57554SOL    HW174559   2.371   7.623  12.451
57554SOL    HW274560   2.234   7.686  12.447
57555SOL     OW74561   7.459   0.127   5.845
57555SOL    HW174562   7.506   0.082   5.775
57555SOL    HW274563   7.474   0.073   5.922
57556SOL     OW74564  14.088  12.625   2.508
57556SOL    HW174565  14.090  12.614   2.413
57556SOL    HW274566  14.180  12.634   2.533
57557SOL     OW74567  10.163   6.419  10.578
57557SOL    HW174568  10.121   6.503  10.558
57557SOL    HW274569  10.245   6.421  10.529
57558SOL     OW74570   4.782  10.522  14.128
57558SOL    HW174571   4.838  10.458  14.083
57558SOL    HW274572   4.796  10.604  14.080
57559SOL     OW74573  14.625   4.782   9.995
57559SOL    HW174574  14.600   4.837   9.921
57559SOL    HW274575  14.693   4.832  10.040
57560SOL     OW74576   8.728   6.468   7.874
57560SOL    HW174577   8.668   6.488   7.803
57560SOL    HW274578   8.786   6.545   7.878
57561SOL     OW74579   6.852   9.870   9.455
57561SOL    HW174580   6.909   9.879   9.532
57561SOL    HW274581   6.789   9.802   9.480
57562SOL     OW74582   2.224  12.956   8.332
57562SOL    HW174583   2.155  12.947   8.267
57562SOL    HW274584   2.257  12.867   8.344
57563SOL     OW74585   1.272   2.968   0.935
57563SOL    HW174586   1.294   3.008   1.019
57563SOL    HW274587   1.318   2.885   0.935
57564SOL     OW74588   8.328  12.106   6.997
57564SOL    HW174589   8.413  12.148   7.008
57564SOL    HW274590   8.268  12.179   6.981
57565SOL     OW74591   6.979   3.116  14.713
57565SOL    HW174592   7.051   3.146  14.769
57565SOL    HW274593   6.934   3.049  14.765
57566SOL     OW74594  13.284   3.482  14.221
57566SOL    HW174595  13.370   3.460  14.184
57566SOL    HW274596  13.223   3.426  14.174
57567SOL     OW74597   2.964   3.916   2.750
57567SOL    HW174598   3.020   3.851   2.707
57567SOL    HW274599   3.004   4.000   2.729
57568SOL     OW74600   7.276   7.652  11.428
57568SOL    HW174601   7.251   7.719  11.364
57568SOL    HW274602   7.237   7.571  11.394
57569SOL     OW74603   1.971   5.043  11.217
57569SOL    HW174604   1.887   5.080  11.190
57569SOL    HW274605   1.948   4.968  11.272
57570SOL     OW74606  10.619  11.811   0.932
57570SOL    HW174607  10.554  11.879   0.915
57570SOL    HW274608  10.583  11.761   1.005
57571SOL     OW74609   0.355   3.348   4.730
57571SOL    HW174610   0.437   3.397   4.736
57571SOL    HW274611   0.370   3.270   4.784
57572SOL     OW74612   8.196   5.455   4.396
57572SOL    HW174613   8.203   5.551   4.398
57572SOL    HW274614   8.137   5.437   4.322
57573SOL     OW74615  13.528   7.515  12.885
57573SOL    HW174616  13.492   7.456  12.952
57573SOL    HW274617  13.589   7.570  12.933
57574SOL     OW74618   1.871   4.080  11.100
57574SOL    HW174619   1.844   4.051  11.012
57574SOL    HW274620   1.791   4.075  11.152
57575SOL     OW74621   1.513   3.620  13.338
57575SOL    HW174622   1.452   3.556  13.302
57575SOL    HW274623   1.500   3.615  13.432
57576SOL     OW74624  10.944   1.680   8.834
57576SOL    HW174625  10.925   1.764   8.792
57576SOL    HW274626  11.017   1.699   8.893
57577SOL     OW74627   1.579   5.897   9.249
57577SOL    HW174628   1.507   5.940   9.203
57577SOL    HW274629   1.596   5.818   9.198
57578SOL     OW74630   6.028   5.680   7.051
57578SOL    HW174631   5.989   5.763   7.080
57578SOL    HW274632   5.964   5.613   7.077
57579SOL     OW74633   1.974  10.862   3.146
57579SOL    HW174634   1.993  10.877   3.239
57579SOL    HW274635   1.997  10.771   3.131
57580SOL     OW74636   0.387  13.003   8.817
57580SOL    HW174637   0.388  12.907   8.815
57580SOL    HW274638   0.373  13.028   8.726
57581SOL     OW74639   5.751   9.912   4.132
57581SOL    HW174640   5.697   9.909   4.211
57581SOL    HW274641   5.750  10.004   4.106
57582SOL     OW74642  14.149  11.454   8.998
57582SOL    HW174643  14.214  11.436   9.066
57582SOL    HW274644  14.156  11.381   8.938
57583SOL     OW74645  14.257  10.954   9.395
57583SOL    HW174646  14.170  10.993   9.400
57583SOL    HW274647  14.289  10.952   9.485
57584SOL     OW74648   0.658   2.850   9.759
57584SOL    HW174649   0.635   2.886   9.673
57584SOL    HW274650   0.625   2.760   9.757
57585SOL     OW74651   3.062   8.560   1.324
57585SOL    HW174652   3.117   8.636   1.346
57585SOL    HW274653   3.124   8.495   1.290
57586SOL     OW74654  14.111  13.672  14.634
57586SOL    HW174655  14.031  13.686  14.685
57586SOL    HW274656  14.105  13.580  14.607
57587SOL     OW74657   4.586   6.890  12.734
57587SOL    HW174658   4.629   6.887  12.649
57587SOL    HW274659   4.552   6.979  12.742
57588SOL     OW74660  14.827  11.308   2.911
57588SOL    HW174661  14.847  11.399   2.888
57588SOL    HW274662   0.041  11.266   2.921
57589SOL     OW74663   7.372   6.271  14.558
57589SOL    HW174664   7.361   6.365  14.547
57589SOL    HW274665   7.360   6.256  14.652
57590SOL     OW74666  13.085   6.079  12.494
57590SOL    HW174667  13.164   6.112  12.452
57590SOL    HW274668  13.013   6.126  12.451
57591SOL     OW74669   1.358  12.526   4.343
57591SOL    HW174670   1.431  12.514   4.403
57591SOL    HW274671   1.373  12.460   4.275
57592SOL     OW74672  12.448  14.738   7.250
57592SOL    HW174673  12.473  14.671   7.188
57592SOL    HW274674  12.366  14.774   7.216
57593SOL     OW74675  12.047   6.258  10.305
57593SOL    HW174676  12.058   6.256  10.210
57593SOL    HW274677  12.131   6.228  10.339
57594SOL     OW74678   3.430  14.430   5.503
57594SOL    HW174679   3.505  14.485   5.528
57594SOL    HW274680   3.372  14.433   5.580
57595SOL     OW74681   2.914   9.246   2.648
57595SOL    HW174682   2.904   9.279   2.558
57595SOL    HW274683   2.916   9.325   2.702
57596SOL     OW74684  12.048  14.175   5.685
57596SOL    HW174685  11.997  14.234   5.630
57596SOL    HW274686  12.023  14.198   5.775
57597SOL     OW74687   0.105  14.349   4.626
57597SOL    HW174688   0.124  14.373   4.716
57597SOL    HW274689   0.071  14.429   4.586
57598SOL     OW74690  12.034  12.367  12.032
57598SOL    HW174691  11.966  12.386  12.096
57598SOL    HW274692  11.987  12.355  11.950
57599SOL     OW74693  11.422   9.773   8.248
57599SOL    HW174694  11.392   9.813   8.167
57599SOL    HW274695  11.493   9.715   8.221
57600SOL     OW74696  10.467   0.231   7.201
57600SOL    HW174697  10.518   0.242   7.120
57600SOL    HW274698  10.521   0.273   7.268
57601SOL     OW74699   8.487   2.051   0.554
57601SOL    HW174700   8.405   2.101   0.560
57601SOL    HW274701   8.556   2.117   0.550
57602SOL     OW74702   3.716   2.420   6.868
57602SOL    HW174703   3.629   2.385   6.889
57602SOL    HW274704   3.704   2.464   6.783
57603SOL     OW74705   5.942   2.356   3.124
57603SOL    HW174706   6.012   2.327   3.183
57603SOL    HW274707   5.863   2.312   3.156
57604SOL     OW74708   6.988  10.922  12.168
57604SOL    HW174709   7.014  10.864  12.097
57604SOL    HW274710   6.912  10.880  12.207
57605SOL     OW74711   0.568   0.960   4.550
57605SOL    HW174712   0.649   0.928   4.591
57605SOL    HW274713   0.524   0.881   4.519
57606SOL     OW74714  14.484  13.567   2.335
57606SOL    HW174715  14.547  13.633   2.365
57606SOL    HW274716  14.399  13.602   2.362
57607SOL     OW74717   3.342   8.079   6.903
57607SOL    HW174718   3.290   8.130   6.965
57607SOL    HW274719   3.433   8.092   6.931
57608SOL     OW74720   8.067   9.971  12.261
57608SOL    HW174721   8.033  10.048  12.215
57608SOL    HW274722   8.064   9.995  12.354
57609SOL     OW74723  11.281   1.809   8.850
57609SOL    HW174724  11.233   1.885   8.882
57609SOL    HW274725  11.363   1.844   8.816
57610SOL     OW74726   0.423   1.269   0.218
57610SOL    HW174727   0.422   1.357   0.254
57610SOL    HW274728   0.333   1.254   0.188
57611SOL     OW74729  13.689   9.002  13.172
57611SOL    HW174730  13.769   9.051  13.152
57611SOL    HW274731  13.690   8.994  13.267
57612SOL     OW74732   9.458  11.233   1.591
57612SOL    HW174733   9.409  11.151   1.601
57612SOL    HW274734   9.469  11.242   1.496
57613SOL     OW74735   3.750   3.863   4.547
57613SOL    HW174736   3.842   3.887   4.560
57613SOL    HW274737   3.732   3.798   4.614
57614SOL     OW74738   0.319   2.964   8.932
57614SOL    HW174739   0.305   3.056   8.910
57614SOL    HW274740   0.383   2.966   9.004
57615SOL     OW74741   3.558   4.493   3.138
57615SOL    HW174742   3.610   4.432   3.085
57615SOL    HW274743   3.559   4.456   3.226
57616SOL     OW74744   8.768  11.978   6.400
57616SOL    HW174745   8.806  12.029   6.329
57616SOL    HW274746   8.673  11.989   6.389
57617SOL     OW74747  12.356   2.098  11.154
57617SOL    HW174748  12.283   2.063  11.103
57617SOL    HW274749  12.405   2.021  11.181
57618SOL     OW74750   4.057  13.945   9.413
57618SOL    HW174751   4.063  13.859   9.371
57618SOL    HW274752   4.142  13.957   9.456
57619SOL     OW74753  13.003  11.930   0.174
57619SOL    HW174754  12.935  11.883   0.126
57619SOL    HW274755  12.968  12.018   0.186
57620SOL     OW74756   1.547  10.963  13.598
57620SOL    HW174757   1.518  10.940  13.509
57620SOL    HW274758   1.632  11.005  13.585
57621SOL     OW74759  12.145  13.182  12.931
57621SOL    HW174760  12.173  13.090  12.930
57621SOL    HW274761  12.111  13.196  13.020
57622SOL     OW74762  11.569   7.248  13.726
57622SOL    HW174763  11.494   7.293  13.687
57622SOL    HW274764  11.644   7.305  13.707
57623SOL     OW74765  13.755   8.044   3.150
57623SOL    HW174766  13.732   8.059   3.241
57623SOL    HW274767  13.697   8.103   3.100
57624SOL     OW74768   1.125   6.148   4.456
57624SOL    HW174769   1.171   6.080   4.505
57624SOL    HW274770   1.054   6.102   4.412
57625SOL     OW74771   2.532   6.777  12.369
57625SOL    HW174772   2.497   6.795  12.457
57625SOL    HW274773   2.510   6.685  12.353
57626SOL     OW74774   1.835   5.403   7.344
57626SOL    HW174775   1.782   5.480   7.367
57626SOL    HW274776   1.836   5.349   7.422
57627SOL     OW74777   5.887   4.854  11.112
57627SOL    HW174778   5.923   4.795  11.178
57627SOL    HW274779   5.910   4.942  11.143
57628SOL     OW74780  11.874  10.389   7.825
57628SOL    HW174781  11.781  10.385   7.803
57628SOL    HW274782  11.918  10.348   7.751
57629SOL     OW74783  11.704   8.153  11.215
57629SOL    HW174784  11.639   8.134  11.282
57629SOL    HW274785  11.688   8.244  11.190
57630SOL     OW74786   5.352  12.557   5.545
57630SOL    HW174787   5.388  12.480   5.500
57630SOL    HW274788   5.409  12.629   5.519
57631SOL     OW74789  10.616  14.386   2.222
57631SOL    HW174790  10.556  14.453   2.189
57631SOL    HW274791  10.697  14.402   2.174
57632SOL     OW74792   3.799   5.278   7.501
57632SOL    HW174793   3.704   5.270   7.506
57632SOL    HW274794   3.831   5.230   7.578
57633SOL     OW74795   5.221   7.638  13.139
57633SOL    HW174796   5.279   7.617  13.065
57633SOL    HW274797   5.144   7.582  13.126
57634SOL     OW74798   3.542   0.859   5.505
57634SOL    HW174799   3.634   0.844   5.482
57634SOL    HW274800   3.492   0.825   5.431
57635SOL     OW74801  10.354   8.387   3.145
57635SOL    HW174802  10.437   8.375   3.191
57635SOL    HW274803  10.347   8.482   3.132
57636SOL     OW74804  12.392   3.432  11.266
57636SOL    HW174805  12.405   3.393  11.352
57636SOL    HW274806  12.323   3.498  11.279
57637SOL     OW74807  13.623   0.208  10.027
57637SOL    HW174808  13.529   0.204  10.043
57637SOL    HW274809  13.661   0.232  10.111
57638SOL     OW74810   3.190   1.008   5.379
57638SOL    HW174811   3.214   0.957   5.301
57638SOL    HW274812   3.268   1.059   5.400
57639SOL     OW74813   0.668   7.750  12.468
57639SOL    HW174814   0.649   7.844  12.472
57639SOL    HW274815   0.744   7.743  12.410
57640SOL     OW74816  13.016   3.857   9.902
57640SOL    HW174817  12.950   3.860   9.971
57640SOL    HW274818  13.044   3.766   9.898
57641SOL     OW74819  13.517   7.736  10.631
57641SOL    HW174820  13.491   7.766  10.544
57641SOL    HW274821  13.435   7.711  10.674
57642SOL     OW74822  14.780  12.456  10.969
57642SOL    HW174823  14.758  12.377  10.920
57642SOL    HW274824  14.750  12.440  11.058
57643SOL     OW74825   4.403  13.801  14.377
57643SOL    HW174826   4.483  13.804  14.324
57643SOL    HW274827   4.358  13.883  14.357
57644SOL     OW74828   1.775   7.410  10.887
57644SOL    HW174829   1.781   7.501  10.915
57644SOL    HW274830   1.699   7.407  10.829
57645SOL     OW74831   3.053   2.210   5.793
57645SOL    HW174832   3.058   2.303   5.772
57645SOL    HW274833   3.134   2.173   5.757
57646SOL     OW74834  12.045   4.381  12.087
57646SOL    HW174835  11.985   4.452  12.064
57646SOL    HW274836  11.999   4.301  12.063
57647SOL     OW74837   7.274   9.934  12.496
57647SOL    HW174838   7.241   9.999  12.434
57647SOL    HW274839   7.364   9.916  12.467
57648SOL     OW74840   5.129   0.997   8.185
57648SOL    HW174841   5.105   0.910   8.216
57648SOL    HW274842   5.068   1.016   8.115
57649SOL     OW74843   0.624   0.789  14.569
57649SOL    HW174844   0.587   0.719  14.624
57649SOL    HW274845   0.704   0.815  14.615
57650SOL     OW74846   1.251   9.959   3.695
57650SOL    HW174847   1.254  10.051   3.722
57650SOL    HW274848   1.256   9.962   3.600
57651SOL     OW74849   3.153   7.490   2.413
57651SOL    HW174850   3.224   7.430   2.387
57651SOL    HW274851   3.160   7.563   2.352
57652SOL     OW74852  14.397  13.505   4.751
57652SOL    HW174853  14.455  13.554   4.810
57652SOL    HW274854  14.363  13.571   4.691
57653SOL     OW74855   5.427   4.880   6.166
57653SOL    HW174856   5.504   4.915   6.121
57653SOL    HW274857   5.417   4.935   6.243
57654SOL     OW74858   9.690   4.906   6.331
57654SOL    HW174859   9.603   4.947   6.322
57654SOL    HW274860   9.719   4.932   6.419
57655SOL     OW74861   7.953   0.441   0.863
57655SOL    HW174862   7.947   0.347   0.845
57655SOL    HW274863   7.948   0.483   0.777
57656SOL     OW74864   9.946  12.351  11.202
57656SOL    HW174865   9.947  12.427  11.145
57656SOL    HW274866   9.947  12.276  11.143
57657SOL     OW74867   0.278   1.270  11.819
57657SOL    HW174868   0.284   1.322  11.899
57657SOL    HW274869   0.317   1.186  11.842
57658SOL     OW74870   9.849  10.753   4.150
57658SOL    HW174871   9.803  10.687   4.203
57658SOL    HW274872   9.825  10.731   4.060
57659SOL     OW74873   2.690   3.318   6.005
57659SOL    HW174874   2.717   3.247   5.946
57659SOL    HW274875   2.763   3.379   6.005
57660SOL     OW74876   1.988   0.355   2.864
57660SOL    HW174877   2.082   0.348   2.850
57660SOL    HW274878   1.978   0.361   2.959
57661SOL     OW74879   5.987   6.807   1.805
57661SOL    HW174880   5.996   6.751   1.728
57661SOL    HW274881   5.921   6.763   1.859
57662SOL     OW74882   8.525   9.258  12.941
57662SOL    HW174883   8.443   9.217  12.968
57662SOL    HW274884   8.501   9.315  12.868
57663SOL     OW74885   3.393  13.348   2.359
57663SOL    HW174886   3.337  13.288   2.409
57663SOL    HW274887   3.470  13.295   2.336
57664SOL     OW74888  13.347   9.182  11.522
57664SOL    HW174889  13.429   9.229  11.509
57664SOL    HW274890  13.318   9.209  11.609
57665SOL     OW74891  11.179   4.227  11.181
57665SOL    HW174892  11.088   4.250  11.204
57665SOL    HW274893  11.179   4.226  11.085
57666SOL     OW74894   4.182  11.487   0.771
57666SOL    HW174895   4.263  11.503   0.819
57666SOL    HW274896   4.189  11.396   0.741
57667SOL     OW74897   0.412  10.518  14.743
57667SOL    HW174898   0.397  10.565  14.661
57667SOL    HW274899   0.374  10.431  14.729
57668SOL     OW74900  12.880  10.349   2.234
57668SOL    HW174901  12.960  10.379   2.277
57668SOL    HW274902  12.903  10.265   2.195
57669SOL     OW74903  14.454   2.460   6.470
57669SOL    HW174904  14.535   2.488   6.425
57669SOL    HW274905  14.445   2.368   6.446
57670SOL     OW74906   4.347   5.347   8.629
57670SOL    HW174907   4.368   5.265   8.673
57670SOL    HW274908   4.316   5.405   8.699
57671SOL     OW74909  13.793   3.173  13.743
57671SOL    HW174910  13.698   3.166  13.729
57671SOL    HW274911  13.829   3.097  13.697
57672SOL     OW74912   1.168   1.022  11.412
57672SOL    HW174913   1.105   1.028  11.483
57672SOL    HW274914   1.119   0.985  11.338
57673SOL     OW74915  13.267   5.501   1.233
57673SOL    HW174916  13.339   5.441   1.212
57673SOL    HW274917  13.255   5.553   1.153
57674SOL     OW74918   5.774  14.204  11.216
57674SOL    HW174919   5.840  14.197  11.285
57674SOL    HW274920   5.712  14.134  11.236
57675SOL     OW74921  13.221  10.700  11.929
57675SOL    HW174922  13.195  10.781  11.886
57675SOL    HW274923  13.178  10.704  12.015
57676SOL     OW74924   8.929   5.491   2.166
57676SOL    HW174925   8.897   5.420   2.222
57676SOL    HW274926   9.002   5.452   2.118
57677SOL     OW74927   0.496   7.252  10.846
57677SOL    HW174928   0.452   7.294  10.772
57677SOL    HW274929   0.579   7.299  10.854
57678SOL     OW74930   7.893   5.007   2.688
57678SOL    HW174931   7.895   5.011   2.593
57678SOL    HW274932   7.953   4.936   2.711
57679SOL     OW74933  12.895  14.288   0.688
57679SOL    HW174934  12.816  14.265   0.736
57679SOL    HW274935  12.888  14.243   0.605
57680SOL     OW74936   5.957   9.000   7.845
57680SOL    HW174937   5.913   8.947   7.911
57680SOL    HW274938   5.927   9.089   7.862
57681SOL     OW74939   6.679   1.020  13.801
57681SOL    HW174940   6.731   1.029  13.722
57681SOL    HW274941   6.685   1.106  13.844
57682SOL     OW74942   8.143  12.770   6.325
57682SOL    HW174943   8.093  12.688   6.324
57682SOL    HW274944   8.168  12.782   6.417
57683SOL     OW74945   1.801  11.538   9.858
57683SOL    HW174946   1.831  11.547   9.948
57683SOL    HW274947   1.863  11.477   9.818
57684SOL     OW74948   3.354   9.417   7.404
57684SOL    HW174949   3.294   9.485   7.372
57684SOL    HW274950   3.431   9.425   7.348
57685SOL     OW74951  12.213   6.032   9.383
57685SOL    HW174952  12.215   6.051   9.477
57685SOL    HW274953  12.297   6.064   9.351
57686SOL     OW74954  12.419  10.115   5.632
57686SOL    HW174955  12.515  10.124   5.630
57686SOL    HW274956  12.387  10.204   5.615
57687SOL     OW74957   2.496   2.634  11.211
57687SOL    HW174958   2.566   2.589  11.164
57687SOL    HW274959   2.526   2.724  11.219
57688SOL     OW74960  13.891   4.214  10.765
57688SOL    HW174961  13.921   4.299  10.730
57688SOL    HW274962  13.953   4.194  10.834
57689SOL     OW74963   9.655   8.111   0.797
57689SOL    HW174964   9.616   8.026   0.776
57689SOL    HW274965   9.667   8.154   0.712
57690SOL     OW74966  11.738  12.288  14.246
57690SOL    HW174967  11.780  12.307  14.162
57690SOL    HW274968  11.761  12.363  14.301
57691SOL     OW74969   9.518   1.152  10.013
57691SOL    HW174970   9.585   1.196   9.962
57691SOL    HW274971   9.566   1.088  10.066
57692SOL     OW74972   0.726   8.114  12.320
57692SOL    HW174973   0.701   8.061  12.244
57692SOL    HW274974   0.812   8.079  12.346
57693SOL     OW74975   4.452  14.358   7.479
57693SOL    HW174976   4.382  14.402   7.431
57693SOL    HW274977   4.435  14.379   7.571
57694SOL     OW74978  12.117   8.756  10.984
57694SOL    HW174979  12.064   8.828  10.950
57694SOL    HW274980  12.086   8.678  10.938
57695SOL     OW74981  10.313  10.250   4.164
57695SOL    HW174982  10.266  10.200   4.098
57695SOL    HW274983  10.349  10.325   4.115
57696SOL     OW74984   5.037   0.508   5.366
57696SOL    HW174985   5.063   0.518   5.457
57696SOL    HW274986   4.962   0.449   5.368
57697SOL     OW74987   2.738  11.723   5.849
57697SOL    HW174988   2.831  11.731   5.828
57697SOL    HW274989   2.731  11.644   5.901
57698SOL     OW74990   0.432   0.024   6.655
57698SOL    HW174991   0.433  14.837   6.731
57698SOL    HW274992   0.495  14.855   6.595
57699SOL     OW74993   7.542   9.183  10.795
57699SOL    HW174994   7.477   9.117  10.821
57699SOL    HW274995   7.550   9.173  10.701
57700SOL     OW74996  11.724  10.401   3.392
57700SOL    HW174997  11.736  10.416   3.485
57700SOL    HW274998  11.770  10.474   3.350
57701SOL     OW74999   5.858   7.338   4.837
57701SOL    HW175000   5.900   7.257   4.866
57701SOL    HW275001   5.819   7.374   4.917
57702SOL     OW75002   5.753  10.958  11.320
57702SOL    HW175003   5.845  10.936  11.305
57702SOL    HW275004   5.706  10.876  11.306
57703SOL     OW75005  13.627  12.109   2.418
57703SOL    HW175006  13.710  12.107   2.371
57703SOL    HW275007  13.651  12.125   2.509
57704SOL     OW75008  11.206   3.709   5.568
57704SOL    HW175009  11.270   3.753   5.513
57704SOL    HW275010  11.239   3.620   5.579
57705SOL     OW75011   8.861   9.134   6.904
57705SOL    HW175012   8.816   9.050   6.892
57705SOL    HW275013   8.817   9.193   6.843
57706SOL     OW75014   7.574   0.933   4.930
57706SOL    HW175015   7.606   0.875   4.861
57706SOL    HW275016   7.594   1.021   4.897
57707SOL     OW75017  12.875  12.687   7.386
57707SOL    HW175018  12.897  12.605   7.342
57707SOL    HW275019  12.912  12.678   7.474
57708SOL     OW75020  11.665   2.642   7.567
57708SOL    HW175021  11.613   2.641   7.487
57708SOL    HW275022  11.603   2.662   7.636
57709SOL     OW75023  10.023   6.864   1.826
57709SOL    HW175024  10.017   6.848   1.731
57709SOL    HW275025  10.077   6.791   1.858
57710SOL     OW75026  10.334   2.874   6.842
57710SOL    HW175027  10.290   2.868   6.927
57710SOL    HW275028  10.323   2.787   6.803
57711SOL     OW75029   0.522  14.340  12.327
57711SOL    HW175030   0.557  14.406  12.387
57711SOL    HW275031   0.598  14.289  12.300
57712SOL     OW75032   8.902   5.141   1.037
57712SOL    HW175033   8.935   5.223   1.002
57712SOL    HW275034   8.808   5.155   1.049
57713SOL     OW75035  10.854  10.272   1.167
57713SOL    HW175036  10.854  10.238   1.256
57713SOL    HW275037  10.915  10.346   1.170
57714SOL     OW75038   0.162   8.349   9.095
57714SOL    HW175039   0.113   8.362   9.176
57714SOL    HW275040   0.154   8.255   9.078
57715SOL     OW75041  13.550   0.493   0.679
57715SOL    HW175042  13.502   0.412   0.663
57715SOL    HW275043  13.482   0.560   0.689
57716SOL     OW75044  14.392   3.318   3.040
57716SOL    HW175045  14.312   3.265   3.042
57716SOL    HW275046  14.369   3.393   2.984
57717SOL     OW75047   7.721  10.711   9.426
57717SOL    HW175048   7.807  10.752   9.435
57717SOL    HW275049   7.685  10.710   9.514
57718SOL     OW75050  11.766  14.057  12.308
57718SOL    HW175051  11.816  14.097  12.379
57718SOL    HW275052  11.756  14.128  12.244
57719SOL     OW75053   8.137   3.062   3.150
57719SOL    HW175054   8.044   3.037   3.149
57719SOL    HW275055   8.182   2.986   3.113
57720SOL     OW75056  10.265  11.488  14.569
57720SOL    HW175057  10.204  11.522  14.503
57720SOL    HW275058  10.235  11.526  14.652
57721SOL     OW75059   2.347   7.367   3.673
57721SOL    HW175060   2.405   7.394   3.602
57721SOL    HW275061   2.405   7.325   3.737
57722SOL     OW75062   3.902  10.153  13.623
57722SOL    HW175063   3.844  10.194  13.686
57722SOL    HW275064   3.987  10.195  13.637
57723SOL     OW75065   1.951   7.788   6.821
57723SOL    HW175066   1.927   7.713   6.768
57723SOL    HW275067   1.949   7.756   6.911
57724SOL     OW75068   1.302   0.034   4.471
57724SOL    HW175069   1.214   0.071   4.465
57724SOL    HW275070   1.326   0.013   4.381
57725SOL     OW75071   4.554   5.405   3.437
57725SOL    HW175072   4.530   5.468   3.505
57725SOL    HW275073   4.477   5.350   3.427
57726SOL     OW75074  12.836  12.641   7.026
57726SOL    HW175075  12.881  12.577   7.081
57726SOL    HW275076  12.771  12.681   7.084
57727SOL     OW75077  11.345  11.598   5.529
57727SOL    HW175078  11.427  11.644   5.547
57727SOL    HW275079  11.277  11.660   5.554
57728SOL     OW75080   4.521  14.236   5.733
57728SOL    HW175081   4.595  14.289   5.763
57728SOL    HW275082   4.560  14.174   5.672
57729SOL     OW75083   4.753   5.932   4.374
57729SOL    HW175084   4.825   5.970   4.425
57729SOL    HW275085   4.761   5.970   4.287
57730SOL     OW75086   5.642   8.893   7.948
57730SOL    HW175087   5.580   8.867   8.016
57730SOL    HW275088   5.728   8.875   7.986
57731SOL     OW75089   4.912   3.101   8.204
57731SOL    HW175090   4.897   3.190   8.172
57731SOL    HW275091   4.863   3.045   8.144
57732SOL     OW75092   1.378   4.809   2.246
57732SOL    HW175093   1.319   4.817   2.320
57732SOL    HW275094   1.322   4.821   2.169
57733SOL     OW75095  14.199   5.796   4.610
57733SOL    HW175096  14.132   5.844   4.658
57733SOL    HW275097  14.217   5.850   4.533
57734SOL     OW75098   3.672   0.892   2.334
57734SOL    HW175099   3.740   0.911   2.269
57734SOL    HW275100   3.604   0.957   2.317
57735SOL     OW75101   7.029   2.549   6.125
57735SOL    HW175102   7.094   2.550   6.056
57735SOL    HW275103   6.960   2.491   6.093
57736SOL     OW75104   7.790   9.494   4.278
57736SOL    HW175105   7.881   9.516   4.257
57736SOL    HW275106   7.738   9.561   4.233
57737SOL     OW75107  10.080   9.174   0.630
57737SOL    HW175108  10.159   9.141   0.587
57737SOL    HW275109  10.111   9.209   0.714
57738SOL     OW75110  10.755  10.644   4.875
57738SOL    HW175111  10.725  10.568   4.824
57738SOL    HW275112  10.840  10.667   4.836
57739SOL     OW75113   1.269  11.280  10.992
57739SOL    HW175114   1.336  11.218  10.965
57739SOL    HW275115   1.223  11.237  11.064
57740SOL     OW75116   1.002  11.404   2.797
57740SOL    HW175117   0.939  11.352   2.747
57740SOL    HW275118   1.087  11.362   2.781
57741SOL     OW75119   1.100  11.837   0.390
57741SOL    HW175120   1.193  11.819   0.403
57741SOL    HW275121   1.087  11.831   0.296
57742SOL     OW75122   6.862   3.597  12.712
57742SOL    HW175123   6.942   3.563  12.753
57742SOL    HW275124   6.842   3.536  12.642
57743SOL     OW75125   3.002   9.540  13.806
57743SOL    HW175126   2.978   9.629  13.833
57743SOL    HW275127   2.933   9.514  13.745
57744SOL     OW75128   3.058  11.705   4.909
57744SOL    HW175129   3.144  11.740   4.931
57744SOL    HW275130   3.076  11.617   4.877
57745SOL     OW75131   0.940  10.010   7.429
57745SOL    HW175132   0.868   9.965   7.473
57745SOL    HW275133   0.918  10.006   7.336
57746SOL     OW75134  14.531   4.572   2.923
57746SOL    HW175135  14.560   4.524   3.001
57746SOL    HW275136  14.512   4.660   2.955
57747SOL     OW75137   1.303  14.679  13.487
57747SOL    HW175138   1.270  14.697  13.399
57747SOL    HW275139   1.398  14.673  13.477
57748SOL     OW75140  11.497   1.010   1.270
57748SOL    HW175141  11.434   1.030   1.201
57748SOL    HW275142  11.510   1.092   1.316
57749SOL     OW75143   4.321   8.107   3.602
57749SOL    HW175144   4.233   8.102   3.565
57749SOL    HW275145   4.308   8.108   3.696
57750SOL     OW75146   4.994  11.357   5.560
57750SOL    HW175147   5.018  11.271   5.526
57750SOL    HW275148   4.922  11.385   5.503
57751SOL     OW75149  13.582   8.767   0.656
57751SOL    HW175150  13.525   8.797   0.726
57751SOL    HW275151  13.577   8.671   0.660
57752SOL     OW75152   6.650   1.468   6.969
57752SOL    HW175153   6.733   1.444   7.010
57752SOL    HW275154   6.672   1.539   6.909
57753SOL     OW75155   3.342   6.140  13.407
57753SOL    HW175156   3.431   6.175  13.392
57753SOL    HW275157   3.321   6.094  13.326
57754SOL     OW75158   5.665  12.790  13.893
57754SOL    HW175159   5.676  12.700  13.925
57754SOL    HW275160   5.577  12.815  13.922
57755SOL     OW75161   2.059   9.334  11.562
57755SOL    HW175162   1.991   9.400  11.571
57755SOL    HW275163   2.042   9.273  11.634
57756SOL     OW75164  12.164  10.303  12.681
57756SOL    HW175165  12.232  10.300  12.615
57756SOL    HW275166  12.207  10.338  12.759
57757SOL     OW75167   7.305   9.380   8.195
57757SOL    HW175168   7.377   9.339   8.242
57757SOL    HW275169   7.249   9.417   8.263
57758SOL     OW75170  10.331   2.736   9.329
57758SOL    HW175171  10.285   2.752   9.247
57758SOL    HW275172  10.420   2.769   9.314
57759SOL     OW75173  11.766   8.554   8.392
57759SOL    HW175174  11.708   8.557   8.468
57759SOL    HW275175  11.748   8.470   8.351
57760SOL     OW75176   7.139   1.586   2.277
57760SOL    HW175177   7.114   1.663   2.226
57760SOL    HW275178   7.235   1.582   2.268
57761SOL     OW75179   6.509  11.273   2.295
57761SOL    HW175180   6.423  11.314   2.300
57761SOL    HW275181   6.517  11.222   2.376
57762SOL     OW75182  13.721  10.460  13.644
57762SOL    HW175183  13.626  10.456  13.639
57762SOL    HW275184  13.744  10.538  13.592
57763SOL     OW75185   3.134   6.825  13.900
57763SOL    HW175186   3.143   6.888  13.971
57763SOL    HW275187   3.221   6.788  13.889
57764SOL     OW75188  13.115   5.500   2.666
57764SOL    HW175189  13.080   5.517   2.579
57764SOL    HW275190  13.134   5.587   2.702
57765SOL     OW75191  12.091   9.027   2.521
57765SOL    HW175192  12.118   9.023   2.429
57765SOL    HW275193  12.171   9.048   2.569
57766SOL     OW75194  10.935  14.537  13.474
57766SOL    HW175195  10.914  14.629  13.487
57766SOL    HW275196  10.885  14.491  13.542
57767SOL     OW75197   8.611  13.806   7.365
57767SOL    HW175198   8.655  13.800   7.451
57767SOL    HW275199   8.639  13.890   7.330
57768SOL     OW75200   3.709  12.517  11.230
57768SOL    HW175201   3.678  12.494  11.142
57768SOL    HW275202   3.786  12.572  11.215
57769SOL     OW75203  10.880   9.356   9.464
57769SOL    HW175204  10.942   9.366   9.536
57769SOL    HW275205  10.882   9.440   9.419
57770SOL     OW75206   5.284   4.828   4.823
57770SOL    HW175207   5.205   4.866   4.784
57770SOL    HW275208   5.251   4.767   4.890
57771SOL     OW75209   3.101   7.819   5.242
57771SOL    HW175210   3.104   7.885   5.173
57771SOL    HW275211   3.124   7.737   5.198
57772SOL     OW75212   9.728  11.798   5.461
57772SOL    HW175213   9.648  11.745   5.459
57772SOL    HW275214   9.798  11.736   5.441
57773SOL     OW75215  13.917  10.959  12.785
57773SOL    HW175216  13.885  11.047  12.768
57773SOL    HW275217  13.998  10.972  12.835
57774SOL     OW75218   8.509   6.163   3.596
57774SOL    HW175219   8.498   6.079   3.642
57774SOL    HW275220   8.590   6.199   3.633
57775SOL     OW75221  11.456   6.572  11.497
57775SOL    HW175222  11.435   6.587  11.404
57775SOL    HW275223  11.381   6.608  11.544
57776SOL     OW75224  12.592   9.252  11.598
57776SOL    HW175225  12.650   9.180  11.622
57776SOL    HW275226  12.651   9.325  11.577
57777SOL     OW75227  11.252   0.104   6.673
57777SOL    HW175228  11.208   0.126   6.591
57777SOL    HW275229  11.189   0.049   6.721
57778SOL     OW75230  14.682   3.148  13.858
57778SOL    HW175231  14.778   3.147  13.861
57778SOL    HW275232  14.657   3.229  13.904
57779SOL     OW75233   8.154   6.835   8.602
57779SOL    HW175234   8.216   6.762   8.600
57779SOL    HW275235   8.123   6.843   8.511
57780SOL     OW75236  12.606   1.314   5.679
57780SOL    HW175237  12.686   1.353   5.642
57780SOL    HW275238  12.612   1.222   5.655
57781SOL     OW75239   1.294   4.569   9.258
57781SOL    HW175240   1.274   4.609   9.343
57781SOL    HW275241   1.383   4.598   9.239
57782SOL     OW75242  12.091   2.031   1.042
57782SOL    HW175243  12.061   2.077   0.964
57782SOL    HW275244  12.021   2.045   1.106
57783SOL     OW75245   4.631   0.688   0.334
57783SOL    HW175246   4.726   0.702   0.338
57783SOL    HW275247   4.618   0.641   0.252
57784SOL     OW75248   0.897  11.433   0.539
57784SOL    HW175249   0.880  11.425   0.633
57784SOL    HW275250   0.812  11.420   0.498
57785SOL     OW75251  14.550   1.571   1.036
57785SOL    HW175252  14.541   1.551   1.129
57785SOL    HW275253  14.582   1.661   1.034
57786SOL     OW75254  12.505   1.057   5.635
57786SOL    HW175255  12.518   1.052   5.730
57786SOL    HW275256  12.415   1.029   5.622
57787SOL     OW75257   4.312   9.896   8.119
57787SOL    HW175258   4.229   9.865   8.155
57787SOL    HW275259   4.312   9.990   8.136
57788SOL     OW75260  11.960   7.477   5.073
57788SOL    HW175261  12.029   7.419   5.040
57788SOL    HW275262  11.879   7.428   5.059
57789SOL     OW75263   7.788   7.682  13.217
57789SOL    HW175264   7.876   7.674  13.179
57789SOL    HW275265   7.745   7.599  13.198
57790SOL     OW75266   4.201   6.579   4.557
57790SOL    HW175267   4.170   6.564   4.646
57790SOL    HW275268   4.122   6.599   4.507
57791SOL     OW75269   3.969   3.012   9.672
57791SOL    HW175270   4.043   3.030   9.729
57791SOL    HW275271   3.903   3.076   9.696
57792SOL     OW75272   5.361   6.365   2.630
57792SOL    HW175273   5.442   6.332   2.668
57792SOL    HW275274   5.387   6.403   2.546
57793SOL     OW75275   1.527  12.603   9.988
57793SOL    HW175276   1.477  12.582   9.910
57793SOL    HW275277   1.547  12.519  10.028
57794SOL     OW75278  11.866   4.481   8.119
57794SOL    HW175279  11.888   4.548   8.054
57794SOL    HW275280  11.771   4.470   8.112
57795SOL     OW75281   3.167   5.144  11.980
57795SOL    HW175282   3.197   5.068  12.029
57795SOL    HW275283   3.228   5.214  12.004
57796SOL     OW75284   8.416  14.165   7.431
57796SOL    HW175285   8.370  14.081   7.431
57796SOL    HW275286   8.363  14.221   7.488
57797SOL     OW75287  13.559   8.814  14.704
57797SOL    HW175288  13.500   8.832  14.631
57797SOL    HW275289  13.556   8.720  14.716
57798SOL     OW75290  12.369   3.741   9.176
57798SOL    HW175291  12.324   3.812   9.131
57798SOL    HW275292  12.322   3.731   9.259
57799SOL     OW75293   3.748  10.044   9.357
57799SOL    HW175294   3.810  10.016   9.424
57799SOL    HW275295   3.672   9.988   9.370
57800SOL     OW75296   7.381   4.385   5.637
57800SOL    HW175297   7.378   4.339   5.553
57800SOL    HW275298   7.441   4.334   5.690
57801SOL     OW75299   2.633   7.164  10.151
57801SOL    HW175300   2.622   7.210  10.069
57801SOL    HW275301   2.571   7.092  10.147
57802SOL     OW75302   6.512  13.387  13.073
57802SOL    HW175303   6.495  13.338  13.154
57802SOL    HW275304   6.583  13.447  13.096
57803SOL     OW75305  13.721   9.937   5.822
57803SOL    HW175306  13.795   9.987   5.857
57803SOL    HW275307  13.745   9.918   5.732
57804SOL     OW75308  11.401   8.247   4.560
57804SOL    HW175309  11.338   8.183   4.593
57804SOL    HW275310  11.449   8.277   4.637
57805SOL     OW75311   1.775   4.065   8.707
57805SOL    HW175312   1.728   4.097   8.784
57805SOL    HW275313   1.715   4.078   8.634
57806SOL     OW75314  12.598  12.145  14.870
57806SOL    HW175315  12.532  12.091   0.040
57806SOL    HW275316  12.575  12.145  14.777
57807SOL     OW75317  14.500   5.598   0.075
57807SOL    HW175318  14.518   5.521   0.129
57807SOL    HW275319  14.505   5.672   0.135
57808SOL     OW75320   5.363   3.496   5.398
57808SOL    HW175321   5.418   3.534   5.467
57808SOL    HW275322   5.290   3.556   5.388
57809SOL     OW75323  13.820   3.977   3.670
57809SOL    HW175324  13.842   3.950   3.760
57809SOL    HW275325  13.741   3.927   3.649
57810SOL     OW75326  11.623   3.240  11.585
57810SOL    HW175327  11.622   3.335  11.601
57810SOL    HW275328  11.571   3.204  11.657
57811SOL     OW75329   7.377  11.749  13.449
57811SOL    HW175330   7.470  11.756  13.426
57811SOL    HW275331   7.376  11.715  13.539
57812SOL     OW75332  12.953   4.151   2.693
57812SOL    HW175333  12.885   4.103   2.740
57812SOL    HW275334  12.936   4.132   2.601
57813SOL     OW75335   2.212   2.773   1.049
57813SOL    HW175336   2.178   2.862   1.056
57813SOL    HW275337   2.270   2.762   1.125
57814SOL     OW75338  12.951   2.910   7.911
57814SOL    HW175339  12.903   2.963   7.975
57814SOL    HW275340  13.029   2.881   7.958
57815SOL     OW75341  10.388   5.215  13.667
57815SOL    HW175342  10.382   5.243  13.576
57815SOL    HW275343  10.305   5.242  13.706
57816SOL     OW75344  13.612  14.070   5.290
57816SOL    HW175345  13.529  14.025   5.302
57816SOL    HW275346  13.651  14.029   5.213
57817SOL     OW75347   5.065   2.221   8.094
57817SOL    HW175348   4.980   2.193   8.129
57817SOL    HW275349   5.052   2.314   8.073
57818SOL     OW75350  10.897   0.732   3.559
57818SOL    HW175351  10.857   0.663   3.507
57818SOL    HW275352  10.985   0.742   3.522
57819SOL     OW75353   8.734   8.122   5.933
57819SOL    HW175354   8.766   8.201   5.977
57819SOL    HW275355   8.654   8.151   5.890
57820SOL     OW75356  14.529   8.626   2.619
57820SOL    HW175357  14.436   8.601   2.624
57820SOL    HW275358  14.528   8.708   2.570
57821SOL     OW75359  11.197  12.380   6.039
57821SOL    HW175360  11.117  12.348   5.997
57821SOL    HW275361  11.187  12.476   6.038
57822SOL     OW75362  10.117   5.030   8.647
57822SOL    HW175363  10.125   4.972   8.723
57822SOL    HW275364  10.025   5.024   8.622
57823SOL     OW75365  10.854   7.048   4.686
57823SOL    HW175366  10.813   7.081   4.765
57823SOL    HW275367  10.942   7.086   4.687
57824SOL     OW75368   4.456   1.841   5.106
57824SOL    HW175369   4.532   1.786   5.084
57824SOL    HW275370   4.392   1.780   5.143
57825SOL     OW75371   9.508   5.580   3.661
57825SOL    HW175372   9.538   5.489   3.668
57825SOL    HW275373   9.501   5.610   3.751
57826SOL     OW75374   0.550   7.264   3.873
57826SOL    HW175375   0.589   7.229   3.793
57826SOL    HW275376   0.597   7.220   3.944
57827SOL     OW75377  14.248  14.135  13.281
57827SOL    HW175378  14.177  14.176  13.329
57827SOL    HW275379  14.237  14.164  13.191
57828SOL     OW75380   4.982   1.798   7.835
57828SOL    HW175381   4.912   1.851   7.872
57828SOL    HW275382   4.987   1.825   7.743
57829SOL     OW75383   4.530   8.363  12.416
57829SOL    HW175384   4.610   8.366  12.469
57829SOL    HW275385   4.558   8.324  12.333
57830SOL     OW75386   0.626   6.865  12.260
57830SOL    HW175387   0.700   6.864  12.321
57830SOL    HW275388   0.628   6.953  12.222
57831SOL     OW75389   9.030   5.840  10.112
57831SOL    HW175390   8.987   5.796  10.038
57831SOL    HW275391   9.115   5.797  10.120
57832SOL     OW75392   2.184  12.233   1.347
57832SOL    HW175393   2.259  12.195   1.301
57832SOL    HW275394   2.206  12.225   1.440
57833SOL     OW75395  13.895   9.257   8.533
57833SOL    HW175396  13.922   9.348   8.518
57833SOL    HW275397  13.835   9.238   8.460
57834SOL     OW75398   0.839   9.233  11.742
57834SOL    HW175399   0.747   9.227  11.766
57834SOL    HW275400   0.843   9.306  11.680
57835SOL     OW75401   1.292   0.613   6.787
57835SOL    HW175402   1.200   0.606   6.761
57835SOL    HW275403   1.300   0.558   6.864
57836SOL     OW75404  14.803  13.356   5.390
57836SOL    HW175405  14.788  13.450   5.385
57836SOL    HW275406   0.024  13.347   5.413
57837SOL     OW75407  13.551   3.299   9.396
57837SOL    HW175408  13.632   3.298   9.446
57837SOL    HW275409  13.543   3.388   9.363
57838SOL     OW75410   0.400   3.482   6.114
57838SOL    HW175411   0.345   3.406   6.095
57838SOL    HW275412   0.489   3.447   6.121
57839SOL     OW75413   0.064   6.445   9.740
57839SOL    HW175414  14.844   6.469   9.753
57839SOL    HW275415   0.065   6.396   9.658
57840SOL     OW75416   9.867   9.785  11.248
57840SOL    HW175417   9.849   9.828  11.164
57840SOL    HW275418   9.866   9.692  11.228
57841SOL     OW75419   3.970   6.045   1.267
57841SOL    HW175420   3.983   5.997   1.185
57841SOL    HW275421   3.988   6.136   1.244
57842SOL     OW75422   6.191   0.892  13.973
57842SOL    HW175423   6.189   0.813  13.919
57842SOL    HW275424   6.250   0.951  13.926
57843SOL     OW75425  13.386   2.564  12.847
57843SOL    HW175426  13.428   2.496  12.794
57843SOL    HW275427  13.293   2.557  12.824
57844SOL     OW75428  11.748   0.935   8.113
57844SOL    HW175429  11.760   1.010   8.172
57844SOL    HW275430  11.836   0.918   8.078
57845SOL     OW75431  13.850   8.066   4.322
57845SOL    HW175432  13.883   7.989   4.368
57845SOL    HW275433  13.765   8.083   4.363
57846SOL     OW75434   6.499   4.564   7.217
57846SOL    HW175435   6.518   4.557   7.310
57846SOL    HW275436   6.573   4.518   7.175
57847SOL     OW75437  13.193   8.984  13.101
57847SOL    HW175438  13.220   8.928  13.029
57847SOL    HW275439  13.138   9.050  13.061
57848SOL     OW75440   5.935   3.653  11.114
57848SOL    HW175441   5.895   3.567  11.125
57848SOL    HW275442   6.020   3.646  11.159
57849SOL     OW75443   3.289   9.058   1.632
57849SOL    HW175444   3.263   8.979   1.679
57849SOL    HW275445   3.381   9.070   1.654
57850SOL     OW75446   0.494   4.210   6.966
57850SOL    HW175447   0.463   4.200   6.877
57850SOL    HW275448   0.426   4.170   7.021
57851SOL     OW75449  14.147   3.306   9.514
57851SOL    HW175450  14.217   3.362   9.480
57851SOL    HW275451  14.123   3.251   9.439
57852SOL     OW75452   6.316   4.632  10.604
57852SOL    HW175453   6.367   4.625  10.684
57852SOL    HW275454   6.234   4.585  10.623
57853SOL     OW75455   8.573   1.567   9.743
57853SOL    HW175456   8.509   1.558   9.813
57853SOL    HW275457   8.588   1.661   9.736
57854SOL     OW75458   4.179  10.296  14.829
57854SOL    HW175459   4.103  10.341  14.866
57854SOL    HW275460   4.160  10.289  14.736
57855SOL     OW75461  13.530  12.705   5.665
57855SOL    HW175462  13.500  12.705   5.574
57855SOL    HW275463  13.580  12.786   5.674
57856SOL     OW75464   0.458   9.712   6.435
57856SOL    HW175465   0.453   9.672   6.522
57856SOL    HW275466   0.415   9.797   6.445
57857SOL     OW75467  14.815   4.244   2.253
57857SOL    HW175468   0.026   4.259   2.206
57857SOL    HW275469  14.783   4.332   2.273
57858SOL     OW75470   9.642   8.492   3.206
57858SOL    HW175471   9.731   8.459   3.209
57858SOL    HW275472   9.639   8.562   3.271
57859SOL     OW75473   6.501  14.246  10.935
57859SOL    HW175474   6.412  14.245  10.969
57859SOL    HW275475   6.511  14.161  10.892
57860SOL     OW75476   4.451   4.360   6.866
57860SOL    HW175477   4.429   4.424   6.933
57860SOL    HW275478   4.547   4.357   6.866
57861SOL     OW75479   6.228   6.766   8.076
57861SOL    HW175480   6.284   6.690   8.091
57861SOL    HW275481   6.266   6.835   8.130
57862SOL     OW75482   7.402   5.853  12.771
57862SOL    HW175483   7.420   5.842  12.864
57862SOL    HW275484   7.413   5.947  12.756
57863SOL     OW75485   9.004   4.282   9.938
57863SOL    HW175486   8.946   4.356   9.952
57863SOL    HW275487   8.984   4.253   9.849
57864SOL     OW75488  12.707  10.985   2.459
57864SOL    HW175489  12.716  10.911   2.400
57864SOL    HW275490  12.633  10.962   2.516
57865SOL     OW75491   4.525   0.974   3.824
57865SOL    HW175492   4.479   1.048   3.783
57865SOL    HW275493   4.616   1.002   3.826
57866SOL     OW75494   4.369   8.893   7.042
57866SOL    HW175495   4.440   8.913   7.103
57866SOL    HW275496   4.394   8.939   6.961
57867SOL     OW75497  10.190   2.079   6.637
57867SOL    HW175498  10.161   2.162   6.601
57867SOL    HW275499  10.136   2.013   6.593
57868SOL     OW75500  10.908   3.308   5.532
57868SOL    HW175501  10.948   3.395   5.534
57868SOL    HW275502  10.960   3.259   5.469
57869SOL     OW75503  12.138   3.171   0.205
57869SOL    HW175504  12.121   3.233   0.275
57869SOL    HW275505  12.226   3.137   0.223
57870SOL     OW75506   2.401  11.657   9.687
57870SOL    HW175507   2.421  11.646   9.594
57870SOL    HW275508   2.327  11.599   9.702
57871SOL     OW75509   1.570  14.647   2.789
57871SOL    HW175510   1.600  14.572   2.842
57871SOL    HW275511   1.495  14.682   2.837
57872SOL     OW75512  10.907  11.988   8.361
57872SOL    HW175513  10.998  11.959   8.357
57872SOL    HW275514  10.900  12.055   8.292
57873SOL     OW75515   3.494   6.340   8.928
57873SOL    HW175516   3.562   6.385   8.979
57873SOL    HW275517   3.419   6.399   8.930
57874SOL     OW75518  11.526  14.705  11.576
57874SOL    HW175519  11.597  14.655  11.617
57874SOL    HW275520  11.485  14.753  11.649
57875SOL     OW75521  11.631  13.914   1.733
57875SOL    HW175522  11.591  13.839   1.688
57875SOL    HW275523  11.635  13.887   1.824
57876SOL     OW75524  13.175   7.318  12.506
57876SOL    HW175525  13.109   7.352  12.445
57876SOL    HW275526  13.247   7.381  12.502
57877SOL     OW75527   2.051   6.980   1.464
57877SOL    HW175528   2.070   6.897   1.509
57877SOL    HW275529   2.066   6.961   1.372
57878SOL     OW75530  13.674  10.900   6.181
57878SOL    HW175531  13.621  10.821   6.175
57878SOL    HW275532  13.763  10.871   6.160
57879SOL     OW75533   5.428   1.541   2.623
57879SOL    HW175534   5.518   1.573   2.635
57879SOL    HW275535   5.391   1.598   2.556
57880SOL     OW75536   5.333   9.332  11.907
57880SOL    HW175537   5.277   9.399  11.945
57880SOL    HW275538   5.303   9.325  11.816
57881SOL     OW75539   3.447  11.622   7.074
57881SOL    HW175540   3.521  11.679   7.095
57881SOL    HW275541   3.460  11.544   7.127
57882SOL     OW75542   1.060  12.776  14.576
57882SOL    HW175543   1.022  12.702  14.623
57882SOL    HW275544   0.986  12.814  14.528
57883SOL     OW75545  14.458   0.730   5.264
57883SOL    HW175546  14.496   0.767   5.184
57883SOL    HW275547  14.532   0.715   5.322
57884SOL     OW75548  10.891   5.196   3.896
57884SOL    HW175549  10.966   5.209   3.954
57884SOL    HW275550  10.873   5.283   3.860
57885SOL     OW75551   7.599  10.249   0.846
57885SOL    HW175552   7.528  10.238   0.783
57885SOL    HW275553   7.657  10.314   0.806
57886SOL     OW75554   3.683  12.611  11.513
57886SOL    HW175555   3.602  12.592  11.561
57886SOL    HW275556   3.664  12.586  11.423
57887SOL     OW75557   3.250  13.276   1.289
57887SOL    HW175558   3.158  13.297   1.308
57887SOL    HW275559   3.282  13.351   1.239
57888SOL     OW75560   7.057   5.151  12.233
57888SOL    HW175561   7.076   5.103  12.153
57888SOL    HW275562   7.105   5.234  12.224
57889SOL     OW75563   4.600   4.128   8.460
57889SOL    HW175564   4.549   4.204   8.488
57889SOL    HW275565   4.563   4.055   8.510
57890SOL     OW75566   2.084   3.900   1.808
57890SOL    HW175567   2.090   3.995   1.817
57890SOL    HW275568   1.990   3.883   1.798
57891SOL     OW75569   2.047  12.365   8.219
57891SOL    HW175570   2.118  12.317   8.261
57891SOL    HW275571   2.015  12.307   8.151
57892SOL     OW75572  13.044  14.172  11.644
57892SOL    HW175573  13.087  14.088  11.662
57892SOL    HW275574  13.070  14.227  11.717
57893SOL     OW75575   0.841  10.917   4.673
57893SOL    HW175576   0.810  10.992   4.623
57893SOL    HW275577   0.848  10.950   4.763
57894SOL     OW75578   0.116   1.836   6.134
57894SOL    HW175579   0.187   1.786   6.094
57894SOL    HW275580   0.047   1.772   6.148
57895SOL     OW75581  10.881  11.839   2.365
57895SOL    HW175582  10.933  11.799   2.435
57895SOL    HW275583  10.809  11.882   2.410
57896SOL     OW75584   2.898  10.590  12.654
57896SOL    HW175585   2.991  10.596  12.632
57896SOL    HW275586   2.891  10.509  12.705
57897SOL     OW75587  14.634   3.550  11.178
57897SOL    HW175588  14.689   3.627  11.169
57897SOL    HW275589  14.555   3.581  11.223
57898SOL     OW75590   2.989  11.836   5.179
57898SOL    HW175591   3.022  11.750   5.154
57898SOL    HW275592   2.894  11.831   5.164
57899SOL     OW75593   2.286   7.821   3.709
57899SOL    HW175594   2.306   7.897   3.654
57899SOL    HW275595   2.352   7.824   3.778
57900SOL     OW75596   2.773  10.400  13.905
57900SOL    HW175597   2.812  10.444  13.980
57900SOL    HW275598   2.681  10.428  13.907
57901SOL     OW75599   7.843   8.561   1.029
57901SOL    HW175600   7.751   8.585   1.013
57901SOL    HW275601   7.841   8.467   1.046
57902SOL     OW75602   1.745  10.207   5.169
57902SOL    HW175603   1.735  10.144   5.240
57902SOL    HW275604   1.693  10.283   5.196
57903SOL     OW75605   2.269   1.502  12.666
57903SOL    HW175606   2.357   1.493  12.701
57903SOL    HW275607   2.219   1.547  12.734
57904SOL     OW75608  11.553   8.708   6.999
57904SOL    HW175609  11.477   8.693   7.056
57904SOL    HW275610  11.515   8.723   6.912
57905SOL     OW75611   2.457  14.444  11.736
57905SOL    HW175612   2.468  14.374  11.672
57905SOL    HW275613   2.539  14.444  11.786
57906SOL     OW75614  13.970   7.027   9.456
57906SOL    HW175615  13.932   7.095   9.511
57906SOL    HW275616  14.013   7.074   9.385
57907SOL     OW75617   4.653   3.612   1.653
57907SOL    HW175618   4.621   3.668   1.725
57907SOL    HW275619   4.589   3.624   1.583
57908SOL     OW75620   4.650   8.050   9.790
57908SOL    HW175621   4.666   8.009   9.875
57908SOL    HW275622   4.617   7.979   9.735
57909SOL     OW75623   1.955   5.361   5.437
57909SOL    HW175624   1.982   5.392   5.350
57909SOL    HW275625   2.034   5.321   5.473
57910SOL     OW75626   4.330   8.345  11.710
57910SOL    HW175627   4.264   8.409  11.735
57910SOL    HW275628   4.409   8.397  11.695
57911SOL     OW75629  14.851   3.222  12.852
57911SOL    HW175630   0.038   3.240  12.925
57911SOL    HW275631   0.017   3.270  12.778
57912SOL     OW75632   3.125   7.897   7.848
57912SOL    HW175633   3.115   7.975   7.793
57912SOL    HW275634   3.131   7.825   7.785
57913SOL     OW75635   4.474   3.746   3.532
57913SOL    HW175636   4.473   3.705   3.446
57913SOL    HW275637   4.559   3.789   3.537
57914SOL     OW75638   1.190   5.321   2.807
57914SOL    HW175639   1.206   5.244   2.752
57914SOL    HW275640   1.243   5.390   2.767
57915SOL     OW75641   2.187   8.498   8.250
57915SOL    HW175642   2.280   8.518   8.245
57915SOL    HW275643   2.179   8.410   8.211
57916SOL     OW75644  12.120   6.757  14.730
57916SOL    HW175645  12.099   6.704  14.806
57916SOL    HW275646  12.043   6.812  14.717
57917SOL     OW75647   0.331   6.859   7.277
57917SOL    HW175648   0.334   6.770   7.240
57917SOL    HW275649   0.418   6.873   7.314
57918SOL     OW75650   7.230   5.233   8.040
57918SOL    HW175651   7.197   5.307   8.091
57918SOL    HW275652   7.301   5.197   8.094
57919SOL     OW75653   9.378  13.540   7.109
57919SOL    HW175654   9.282  13.538   7.107
57919SOL    HW275655   9.401  13.616   7.056
57920SOL     OW75656  12.886  14.009   1.347
57920SOL    HW175657  12.867  13.943   1.413
57920SOL    HW275658  12.835  14.085   1.373
57921SOL     OW75659   9.862   8.231   0.566
57921SOL    HW175660   9.888   8.140   0.546
57921SOL    HW275661   9.782   8.244   0.516
57922SOL     OW75662  12.456   7.290   6.485
57922SOL    HW175663  12.373   7.336   6.471
57922SOL    HW275664  12.522   7.360   6.486
57923SOL     OW75665  13.847   0.913   5.633
57923SOL    HW175666  13.931   0.958   5.639
57923SOL    HW275667  13.849   0.871   5.547
57924SOL     OW75668  12.893   0.053  13.250
57924SOL    HW175669  12.879   0.035  13.343
57924SOL    HW275670  12.866   0.143  13.238
57925SOL     OW75671  13.298   6.707  10.581
57925SOL    HW175672  13.262   6.645  10.645
57925SOL    HW275673  13.384   6.671  10.558
57926SOL     OW75674   6.606  14.186   9.391
57926SOL    HW175675   6.545  14.259   9.383
57926SOL    HW275676   6.555  14.118   9.435
57927SOL     OW75677  11.735  13.453   4.391
57927SOL    HW175678  11.662  13.400   4.423
57927SOL    HW275679  11.807  13.390   4.380
57928SOL     OW75680   3.102  13.184  10.905
57928SOL    HW175681   3.125  13.111  10.963
57928SOL    HW275682   3.162  13.255  10.929
57929SOL     OW75683  13.565   4.259   5.004
57929SOL    HW175684  13.632   4.327   5.010
57929SOL    HW275685  13.493   4.301   4.958
57930SOL     OW75686  13.007  12.131  11.601
57930SOL    HW175687  13.077  12.178  11.556
57930SOL    HW275688  12.927  12.174  11.573
57931SOL     OW75689   2.523  12.460   8.187
57931SOL    HW175690   2.576  12.402   8.132
57931SOL    HW275691   2.518  12.415   8.271
57932SOL     OW75692   8.090   2.043   4.437
57932SOL    HW175693   8.136   2.106   4.381
57932SOL    HW275694   8.160   2.003   4.488
57933SOL     OW75695   9.817   4.217   7.336
57933SOL    HW175696   9.765   4.295   7.315
57933SOL    HW275697   9.873   4.204   7.259
57934SOL     OW75698   0.106  13.321  10.445
57934SOL    HW175699   0.128  13.382  10.375
57934SOL    HW275700   0.183  13.265  10.454
57935SOL     OW75701  13.454  13.322   5.338
57935SOL    HW175702  13.411  13.281   5.413
57935SOL    HW275703  13.383  13.345   5.278
57936SOL     OW75704   4.449   7.227   4.235
57936SOL    HW175705   4.429   7.133   4.238
57936SOL    HW275706   4.534   7.235   4.279
57937SOL     OW75707   1.893   4.516  14.203
57937SOL    HW175708   1.961   4.459  14.241
57937SOL    HW275709   1.822   4.514  14.267
57938SOL     OW75710   1.467   5.278   1.900
57938SOL    HW175711   1.503   5.273   1.811
57938SOL    HW275712   1.500   5.361   1.934
57939SOL     OW75713  10.489  10.190   6.496
57939SOL    HW175714  10.530  10.112   6.534
57939SOL    HW275715  10.397  10.183   6.519
57940SOL     OW75716  12.208  13.158   6.059
57940SOL    HW175717  12.180  13.243   6.028
57940SOL    HW275718  12.133  13.100   6.045
57941SOL     OW75719   3.527   0.502   2.676
57941SOL    HW175720   3.586   0.567   2.636
57941SOL    HW275721   3.485   0.459   2.602
57942SOL     OW75722  12.015   5.016   3.442
57942SOL    HW175723  12.050   4.927   3.449
57942SOL    HW275724  12.092   5.071   3.427
57943SOL     OW75725   4.614  11.744   7.264
57943SOL    HW175726   4.527  11.757   7.303
57943SOL    HW275727   4.596  11.721   7.173
57944SOL     OW75728   1.557   1.772   5.725
57944SOL    HW175729   1.530   1.820   5.646
57944SOL    HW275730   1.649   1.795   5.737
57945SOL     OW75731  11.146  13.970  11.723
57945SOL    HW175732  11.173  14.052  11.682
57945SOL    HW275733  11.080  13.995  11.787
57946SOL     OW75734  12.123   5.395  13.181
57946SOL    HW175735  12.034   5.420  13.157
57946SOL    HW275736  12.174   5.407  13.101
57947SOL     OW75737   3.693  10.777   8.202
57947SOL    HW175738   3.684  10.821   8.117
57947SOL    HW275739   3.694  10.684   8.181
57948SOL     OW75740  11.342   4.620   0.422
57948SOL    HW175741  11.358   4.701   0.470
57948SOL    HW275742  11.411   4.561   0.453
57949SOL     OW75743   8.610   0.146   4.408
57949SOL    HW175744   8.699   0.114   4.394
57949SOL    HW275745   8.599   0.146   4.503
57950SOL     OW75746   5.267   6.499   9.850
57950SOL    HW175747   5.236   6.582   9.813
57950SOL    HW275748   5.217   6.489   9.931
57951SOL     OW75749   5.064  12.643  13.013
57951SOL    HW175750   5.160  12.643  13.019
57951SOL    HW275751   5.041  12.550  13.012
57952SOL     OW75752   9.783  10.799  11.598
57952SOL    HW175753   9.767  10.708  11.623
57952SOL    HW275754   9.759  10.803  11.506
57953SOL     OW75755  10.472   8.759   0.387
57953SOL    HW175756  10.475   8.853   0.368
57953SOL    HW275757  10.464   8.755   0.483
57954SOL     OW75758  12.679  10.288  14.439
57954SOL    HW175759  12.708  10.359  14.381
57954SOL    HW275760  12.738  10.294  14.514
57955SOL     OW75761   3.939   0.951   4.535
57955SOL    HW175762   3.910   0.964   4.445
57955SOL    HW275763   4.034   0.937   4.528
57956SOL     OW75764   6.562  13.209   2.965
57956SOL    HW175765   6.651  13.198   2.998
57956SOL    HW275766   6.532  13.120   2.948
57957SOL     OW75767   7.714   8.511   3.888
57957SOL    HW175768   7.670   8.517   3.973
57957SOL    HW275769   7.643   8.513   3.824
57958SOL     OW75770  12.167   5.971   0.994
57958SOL    HW175771  12.140   6.060   1.016
57958SOL    HW275772  12.243   5.983   0.937
57959SOL     OW75773   6.192   2.104   8.694
57959SOL    HW175774   6.130   2.090   8.767
57959SOL    HW275775   6.226   2.193   8.708
57960SOL     OW75776  11.819  12.183   9.085
57960SOL    HW175777  11.774  12.250   9.034
57960SOL    HW275778  11.854  12.230   9.160
57961SOL     OW75779  13.084  13.660   3.838
57961SOL    HW175780  13.162  13.693   3.883
57961SOL    HW275781  13.114  13.644   3.748
57962SOL     OW75782   0.767  13.031   0.687
57962SOL    HW175783   0.849  13.072   0.717
57962SOL    HW275784   0.782  12.937   0.698
57963SOL     OW75785   5.091   6.853   4.572
57963SOL    HW175786   5.156   6.783   4.575
57963SOL    HW275787   5.084   6.883   4.662
57964SOL     OW75788   0.824  11.870   7.902
57964SOL    HW175789   0.775  11.806   7.953
57964SOL    HW275790   0.853  11.935   7.966
57965SOL     OW75791  11.406   2.118   9.851
57965SOL    HW175792  11.384   2.042   9.906
57965SOL    HW275793  11.406   2.192   9.911
57966SOL     OW75794  12.585  12.881   5.362
57966SOL    HW175795  12.607  12.860   5.272
57966SOL    HW275796  12.595  12.799   5.410
57967SOL     OW75797   4.176   5.400  13.620
57967SOL    HW175798   4.203   5.310  13.635
57967SOL    HW275799   4.083   5.401  13.639
57968SOL     OW75800   1.914   1.719   5.973
57968SOL    HW175801   1.903   1.702   5.879
57968SOL    HW275802   1.940   1.811   5.978
57969SOL     OW75803   0.513   7.739  11.446
57969SOL    HW175804   0.548   7.653  11.423
57969SOL    HW275805   0.585   7.799  11.431
57970SOL     OW75806  11.006   4.284  14.128
57970SOL    HW175807  10.972   4.302  14.215
57970SOL    HW275808  10.928   4.280  14.072
57971SOL     OW75809   9.762   2.598   0.293
57971SOL    HW175810   9.775   2.504   0.278
57971SOL    HW275811   9.836   2.624   0.348
57972SOL     OW75812   1.098  14.643   2.113
57972SOL    HW175813   1.162  14.705   2.148
57972SOL    HW275814   1.080  14.676   2.025
57973SOL     OW75815   9.004   5.364  12.490
57973SOL    HW175816   8.943   5.396  12.556
57973SOL    HW275817   8.955   5.296  12.444
57974SOL     OW75818   0.076   4.679   4.082
57974SOL    HW175819   0.100   4.755   4.029
57974SOL    HW275820   0.136   4.610   4.053
57975SOL     OW75821  13.763   3.406   4.752
57975SOL    HW175822  13.814   3.417   4.672
57975SOL    HW275823  13.796   3.474   4.811
57976SOL     OW75824   2.586  12.541   5.618
57976SOL    HW175825   2.529  12.618   5.617
57976SOL    HW275826   2.555  12.491   5.694
57977SOL     OW75827   8.906   2.263  14.764
57977SOL    HW175828   9.001   2.276  14.760
57977SOL    HW275829   8.893   2.212  14.844
57978SOL     OW75830   1.805   0.978   8.836
57978SOL    HW175831   1.818   0.944   8.924
57978SOL    HW275832   1.790   1.072   8.848
57979SOL     OW75833   0.829   3.814   2.350
57979SOL    HW175834   0.767   3.847   2.285
57979SOL    HW275835   0.830   3.719   2.335
57980SOL     OW75836   9.589   3.952   9.959
57980SOL    HW175837   9.553   3.972   9.873
57980SOL    HW275838   9.632   4.033   9.987
57981SOL     OW75839  13.109   0.053  13.776
57981SOL    HW175840  13.154   0.012  13.850
57981SOL    HW275841  13.090   0.141  13.805
57982SOL     OW75842  11.705   3.250   3.515
57982SOL    HW175843  11.646   3.239   3.589
57982SOL    HW275844  11.793   3.244   3.552
57983SOL     OW75845   8.140   8.004  12.537
57983SOL    HW175846   8.080   8.030  12.606
57983SOL    HW275847   8.214   8.064  12.545
57984SOL     OW75848   6.050   6.503   9.525
57984SOL    HW175849   6.063   6.589   9.566
57984SOL    HW275850   6.132   6.456   9.541
57985SOL     OW75851  10.921  12.868   8.630
57985SOL    HW175852  10.874  12.880   8.712
57985SOL    HW275853  10.908  12.951   8.583
57986SOL     OW75854   7.861   0.542   3.177
57986SOL    HW175855   7.909   0.487   3.115
57986SOL    HW275856   7.808   0.481   3.228
57987SOL     OW75857  11.417   1.861   4.622
57987SOL    HW175858  11.366   1.932   4.659
57987SOL    HW275859  11.474   1.832   4.694
57988SOL     OW75860   3.602  11.064   1.552
57988SOL    HW175861   3.641  11.151   1.554
57988SOL    HW275862   3.560  11.055   1.638
57989SOL     OW75863   3.199   1.340   1.680
57989SOL    HW175864   3.182   1.345   1.586
57989SOL    HW275865   3.203   1.431   1.710
57990SOL     OW75866  13.006   8.491   1.047
57990SOL    HW175867  12.977   8.415   0.997
57990SOL    HW275868  13.027   8.456   1.134
57991SOL     OW75869   8.801  13.950  10.399
57991SOL    HW175870   8.713  13.916  10.382
57991SOL    HW275871   8.817  14.012  10.327
57992SOL     OW75872   0.133   3.974   7.713
57992SOL    HW175873   0.060   3.912   7.713
57992SOL    HW275874   0.130   4.015   7.800
57993SOL     OW75875   4.266   4.056   8.434
57993SOL    HW175876   4.334   3.996   8.466
57993SOL    HW275877   4.238   4.103   8.513
57994SOL     OW75878   9.689  11.003   7.042
57994SOL    HW175879   9.767  10.967   7.084
57994SOL    HW275880   9.719  11.033   6.956
57995SOL     OW75881   4.612   7.873  13.783
57995SOL    HW175882   4.616   7.879  13.688
57995SOL    HW275883   4.629   7.962  13.814
57996SOL     OW75884   6.562   2.859  13.506
57996SOL    HW175885   6.540   2.940  13.460
57996SOL    HW275886   6.604   2.804  13.440
57997SOL     OW75887   3.560  10.981   7.805
57997SOL    HW175888   3.544  11.074   7.820
57997SOL    HW275889   3.654  10.970   7.820
57998SOL     OW75890   2.908   2.131   7.884
57998SOL    HW175891   2.953   2.171   7.810
57998SOL    HW275892   2.820   2.112   7.850
57999SOL     OW75893   4.630  12.580   2.057
57999SOL    HW175894   4.597  12.539   2.137
57999SOL    HW275895   4.577  12.542   1.987
58000SOL     OW75896  14.844   1.782   4.149
58000SOL    HW175897  14.756   1.813   4.171
58000SOL    HW275898  14.833   1.736   4.066
58001SOL     OW75899   1.699   2.731   0.238
58001SOL    HW175900   1.719   2.717   0.146
58001SOL    HW275901   1.680   2.824   0.245
58002SOL     OW75902   4.167   7.240   3.081
58002SOL    HW175903   4.223   7.263   3.155
58002SOL    HW275904   4.079   7.238   3.118
58003SOL     OW75905   0.736   4.275   1.346
58003SOL    HW175906   0.732   4.303   1.437
58003SOL    HW275907   0.737   4.179   1.350
58004SOL     OW75908   1.538  10.495   3.729
58004SOL    HW175909   1.524  10.580   3.771
58004SOL    HW275910   1.486  10.434   3.780
58005SOL     OW75911   1.494  12.505   2.145
58005SOL    HW175912   1.500  12.558   2.065
58005SOL    HW275913   1.458  12.421   2.115
58006SOL     OW75914   5.429  13.496   4.416
58006SOL    HW175915   5.506  13.515   4.362
58006SOL    HW275916   5.397  13.583   4.441
58007SOL     OW75917  14.455   1.759  10.571
58007SOL    HW175918  14.542   1.744  10.534
58007SOL    HW275919  14.471   1.803  10.655
58008SOL     OW75920   3.436   2.545  14.423
58008SOL    HW175921   3.465   2.611  14.360
58008SOL    HW275922   3.343   2.533  14.404
58009SOL     OW75923   9.164   6.579  10.512
58009SOL    HW175924   9.156   6.611  10.422
58009SOL    HW275925   9.255   6.551  10.520
58010SOL     OW75926   6.351  13.017   6.171
58010SOL    HW175927   6.428  13.062   6.205
58010SOL    HW275928   6.321  12.963   6.245
58011SOL     OW75929   7.997  10.093   3.178
58011SOL    HW175930   8.070  10.040   3.209
58011SOL    HW275931   8.035  10.147   3.109
58012SOL     OW75932   1.760  11.748   6.400
58012SOL    HW175933   1.750  11.722   6.309
58012SOL    HW275934   1.695  11.696   6.447
58013SOL     OW75935   1.644  12.487  12.238
58013SOL    HW175936   1.583  12.438  12.293
58013SOL    HW275937   1.641  12.576  12.272
58014SOL     OW75938   6.881   1.509   2.666
58014SOL    HW175939   6.911   1.472   2.583
58014SOL    HW275940   6.808   1.453   2.693
58015SOL     OW75941  11.817   7.042  13.274
58015SOL    HW175942  11.846   7.107  13.337
58015SOL    HW275943  11.722   7.050  13.273
58016SOL     OW75944   3.056  11.970   1.468
58016SOL    HW175945   3.008  11.922   1.400
58016SOL    HW275946   3.029  12.061   1.457
58017SOL     OW75947   8.654  10.798   9.519
58017SOL    HW175948   8.575  10.786   9.466
58017SOL    HW275949   8.721  10.824   9.457
58018SOL     OW75950   9.162   9.229   8.972
58018SOL    HW175951   9.159   9.320   8.942
58018SOL    HW275952   9.105   9.182   8.912
58019SOL     OW75953   8.225   7.344   2.295
58019SOL    HW175954   8.281   7.267   2.307
58019SOL    HW275955   8.196   7.338   2.204
58020SOL     OW75956   3.381   0.279   3.118
58020SOL    HW175957   3.444   0.350   3.130
58020SOL    HW275958   3.422   0.203   3.159
58021SOL     OW75959  11.790   6.874  12.668
58021SOL    HW175960  11.721   6.900  12.728
58021SOL    HW275961  11.773   6.926  12.589
58022SOL     OW75962  12.204  10.668  13.406
58022SOL    HW175963  12.164  10.607  13.468
58022SOL    HW275964  12.140  10.739  13.397
58023SOL     OW75965   8.712  12.985   8.144
58023SOL    HW175966   8.718  12.890   8.154
58023SOL    HW275967   8.667  13.014   8.223
58024SOL     OW75968  12.144   8.775  11.257
58024SOL    HW175969  12.160   8.793  11.164
58024SOL    HW275970  12.192   8.843  11.303
58025SOL     OW75971   1.731   0.671   3.374
58025SOL    HW175972   1.760   0.652   3.285
58025SOL    HW275973   1.639   0.645   3.376
58026SOL     OW75974   5.381  11.510   7.741
58026SOL    HW175975   5.455  11.568   7.758
58026SOL    HW275976   5.387  11.489   7.647
58027SOL     OW75977  14.652   9.365   5.030
58027SOL    HW175978  14.616   9.437   4.978
58027SOL    HW275979  14.678   9.299   4.965
58028SOL     OW75980   9.611   3.482   8.004
58028SOL    HW175981   9.649   3.480   7.916
58028SOL    HW275982   9.636   3.399   8.043
58029SOL     OW75983   4.083   0.742   7.887
58029SOL    HW175984   4.051   0.696   7.965
58029SOL    HW275985   4.169   0.704   7.871
58030SOL     OW75986  13.645  10.230   9.701
58030SOL    HW175987  13.700  10.249   9.777
58030SOL    HW275988  13.705  10.226   9.628
58031SOL     OW75989   8.637   5.380  11.215
58031SOL    HW175990   8.715   5.411  11.261
58031SOL    HW275991   8.649   5.286  11.209
58032SOL     OW75992   4.958   5.718  14.006
58032SOL    HW175993   4.928   5.809  14.009
58032SOL    HW275994   4.882   5.667  14.031
58033SOL     OW75995   3.317   3.149  14.142
58033SOL    HW175996   3.279   3.106  14.219
58033SOL    HW275997   3.287   3.240  14.148
58034SOL     OW75998   1.963   1.367   9.187
58034SOL    HW175999   1.943   1.460   9.181
58034SOL    HW276000   2.029   1.352   9.118
58035SOL     OW76001  12.572   2.144   1.915
58035SOL    HW176002  12.531   2.223   1.950
58035SOL    HW276003  12.664   2.151   1.940
58036SOL     OW76004   3.116  11.026   8.938
58036SOL    HW176005   3.060  11.075   9.000
58036SOL    HW276006   3.181  10.983   8.994
58037SOL     OW76007  12.248   1.034  14.729
58037SOL    HW176008  12.207   0.999  14.651
58037SOL    HW276009  12.303   1.106  14.698
58038SOL     OW76010   5.653   5.312  12.647
58038SOL    HW176011   5.576   5.368  12.656
58038SOL    HW276012   5.716   5.365  12.598
58039SOL     OW76013  12.220  12.550   7.691
58039SOL    HW176014  12.239  12.476   7.748
58039SOL    HW276015  12.305  12.574   7.653
58040SOL     OW76016   7.373   9.339  11.729
58040SOL    HW176017   7.287   9.345  11.688
58040SOL    HW276018   7.413   9.425  11.715
58041SOL     OW76019   3.857  10.529  14.335
58041SOL    HW176020   3.916  10.544  14.261
58041SOL    HW276021   3.912  10.489  14.402
58042SOL     OW76022  13.257   4.799  10.053
58042SOL    HW176023  13.306   4.779  10.133
58042SOL    HW276024  13.235   4.892  10.061
58043SOL     OW76025   6.022   9.654  13.339
58043SOL    HW176026   5.994   9.696  13.258
58043SOL    HW276027   6.068   9.723  13.387
58044SOL     OW76028   3.298   5.113  11.367
58044SOL    HW176029   3.246   5.183  11.408
58044SOL    HW276030   3.347   5.074  11.439
58045SOL     OW76031   9.832   6.669  12.308
58045SOL    HW176032   9.773   6.599  12.336
58045SOL    HW276033   9.920   6.635  12.322
58046SOL     OW76034   2.534  12.645   2.715
58046SOL    HW176035   2.604  12.710   2.724
58046SOL    HW276036   2.490  12.645   2.800
58047SOL     OW76037  12.625   5.530   6.544
58047SOL    HW176038  12.678   5.609   6.552
58047SOL    HW276039  12.536   5.562   6.532
58048SOL     OW76040  12.943  11.658   9.742
58048SOL    HW176041  12.976  11.574   9.772
58048SOL    HW276042  12.927  11.646   9.648
58049SOL     OW76043  11.946   2.454  11.232
58049SOL    HW176044  11.927   2.403  11.154
58049SOL    HW276045  11.890   2.417  11.300
58050SOL     OW76046   3.034  14.102   7.657
58050SOL    HW176047   3.075  14.172   7.605
58050SOL    HW276048   2.988  14.149   7.727
58051SOL     OW76049   2.081   4.800   2.083
58051SOL    HW176050   2.168   4.835   2.065
58051SOL    HW276051   2.082   4.713   2.044
58052SOL     OW76052  10.038   6.936   2.607
58052SOL    HW176053  10.049   6.850   2.648
58052SOL    HW276054  10.016   6.916   2.516
58053SOL     OW76055  12.310   7.588   5.541
58053SOL    HW176056  12.248   7.610   5.472
58053SOL    HW276057  12.309   7.492   5.544
58054SOL     OW76058  12.564   2.199   5.568
58054SOL    HW176059  12.509   2.123   5.549
58054SOL    HW276060  12.526   2.235   5.649
58055SOL     OW76061   4.467  10.873   4.796
58055SOL    HW176062   4.422  10.792   4.772
58055SOL    HW276063   4.398  10.930   4.829
58056SOL     OW76064   6.057   8.528   4.323
58056SOL    HW176065   6.087   8.601   4.377
58056SOL    HW276066   6.031   8.567   4.240
58057SOL     OW76067   9.930  14.307   1.161
58057SOL    HW176068   9.983  14.385   1.181
58057SOL    HW276069   9.847  14.323   1.206
58058SOL     OW76070  11.270   4.723   0.996
58058SOL    HW176071  11.264   4.788   1.066
58058SOL    HW276072  11.201   4.749   0.934
58059SOL     OW76073   7.419   4.177   5.433
58059SOL    HW176074   7.352   4.221   5.380
58059SOL    HW276075   7.398   4.084   5.425
58060SOL     OW76076   7.874  10.115   9.372
58060SOL    HW176077   7.825  10.033   9.365
58060SOL    HW276078   7.955  10.099   9.324
58061SOL     OW76079  12.124   5.803   3.524
58061SOL    HW176080  12.191   5.821   3.458
58061SOL    HW276081  12.168   5.748   3.589
58062SOL     OW76082  13.285   6.012   8.643
58062SOL    HW176083  13.243   5.935   8.604
58062SOL    HW276084  13.264   6.084   8.583
58063SOL     OW76085   3.771   4.507   7.085
58063SOL    HW176086   3.747   4.570   7.018
58063SOL    HW276087   3.731   4.541   7.165
58064SOL     OW76088   4.774   1.547   0.139
58064SOL    HW176089   4.764   1.618   0.076
58064SOL    HW276090   4.806   1.590   0.218
58065SOL     OW76091   1.056   8.191   7.148
58065SOL    HW176092   0.980   8.166   7.096
58065SOL    HW276093   1.076   8.280   7.119
58066SOL     OW76094  14.092   3.606   9.228
58066SOL    HW176095  14.026   3.536   9.229
58066SOL    HW276096  14.044   3.683   9.197
58067SOL     OW76097   8.746   6.304   7.366
58067SOL    HW176098   8.653   6.290   7.383
58067SOL    HW276099   8.758   6.398   7.379
58068SOL     OW76100  11.177   8.054   6.027
58068SOL    HW176101  11.128   8.101   5.960
58068SOL    HW276102  11.257   8.105   6.038
58069SOL     OW76103   8.719  13.005   9.798
58069SOL    HW176104   8.733  12.947   9.872
58069SOL    HW276105   8.763  12.962   9.724
58070SOL     OW76106   8.063   1.138   6.033
58070SOL    HW176107   8.030   1.093   6.111
58070SOL    HW276108   8.043   1.078   5.961
58071SOL     OW76109   1.315  13.730   1.813
58071SOL    HW176110   1.296  13.678   1.892
58071SOL    HW276111   1.276  13.816   1.831
58072SOL     OW76112   5.786   0.615   1.136
58072SOL    HW176113   5.807   0.697   1.092
58072SOL    HW276114   5.738   0.564   1.070
58073SOL     OW76115  13.211  12.522   6.641
58073SOL    HW176116  13.140  12.518   6.705
58073SOL    HW276117  13.227  12.431   6.618
58074SOL     OW76118  13.107   6.436   8.192
58074SOL    HW176119  13.067   6.351   8.207
58074SOL    HW276120  13.033   6.498   8.196
58075SOL     OW76121   8.125   7.767   2.263
58075SOL    HW176122   8.035   7.765   2.295
58075SOL    HW276123   8.169   7.696   2.311
58076SOL     OW76124  14.083   4.801   8.645
58076SOL    HW176125  14.079   4.820   8.738
58076SOL    HW276126  14.111   4.883   8.604
58077SOL     OW76127  11.780   6.071   6.951
58077SOL    HW176128  11.801   6.109   7.036
58077SOL    HW276129  11.740   5.987   6.971
58078SOL     OW76130   3.363   5.441  12.313
58078SOL    HW176131   3.338   5.389  12.236
58078SOL    HW276132   3.288   5.498  12.328
58079SOL     OW76133  14.059   4.110   6.409
58079SOL    HW176134  14.070   4.015   6.402
58079SOL    HW276135  14.128   4.137   6.470
58080SOL     OW76136  11.393   5.173  12.512
58080SOL    HW176137  11.459   5.241  12.498
58080SOL    HW276138  11.316   5.204  12.465
58081SOL     OW76139   3.701   3.424  12.923
58081SOL    HW176140   3.619   3.379  12.944
58081SOL    HW276141   3.705   3.423  12.827
58082SOL     OW76142   0.304   4.417   7.837
58082SOL    HW176143   0.354   4.377   7.765
58082SOL    HW276144   0.348   4.388   7.916
58083SOL     OW76145   0.631  13.205   2.078
58083SOL    HW176146   0.673  13.245   2.154
58083SOL    HW276147   0.562  13.149   2.116
58084SOL     OW76148  10.667   5.642  11.867
58084SOL    HW176149  10.634   5.705  11.804
58084SOL    HW276150  10.604   5.570  11.866
58085SOL     OW76151   3.297  10.813  10.977
58085SOL    HW176152   3.314  10.803  11.070
58085SOL    HW276153   3.348  10.743  10.935
58086SOL     OW76154   2.868  10.240   7.034
58086SOL    HW176155   2.816  10.279   6.964
58086SOL    HW276156   2.803  10.210   7.098
58087SOL     OW76157   8.236   2.010   1.343
58087SOL    HW176158   8.166   1.945   1.335
58087SOL    HW276159   8.316   1.962   1.321
58088SOL     OW76160   9.560   2.625   3.299
58088SOL    HW176161   9.489   2.663   3.247
58088SOL    HW276162   9.637   2.678   3.276
58089SOL     OW76163  12.987  12.937   4.811
58089SOL    HW176164  13.024  12.850   4.795
58089SOL    HW276165  12.929  12.925   4.886
58090SOL     OW76166  12.149  11.403   8.369
58090SOL    HW176167  12.135  11.481   8.423
58090SOL    HW276168  12.244  11.396   8.361
58091SOL     OW76169   8.330  13.220   9.491
58091SOL    HW176170   8.299  13.268   9.568
58091SOL    HW276171   8.250  13.196   9.444
58092SOL     OW76172   0.029   9.640   7.886
58092SOL    HW176173  14.865   9.564   7.839
58092SOL    HW276174   0.122   9.641   7.862
58093SOL     OW76175   9.602   7.937   4.266
58093SOL    HW176176   9.646   7.940   4.181
58093SOL    HW276177   9.609   8.026   4.301
58094SOL     OW76178  11.722   3.470   5.629
58094SOL    HW176179  11.693   3.530   5.698
58094SOL    HW276180  11.679   3.387   5.649
58095SOL     OW76181   3.883   6.595  14.060
58095SOL    HW176182   3.927   6.632  14.136
58095SOL    HW276183   3.863   6.505  14.084
58096SOL     OW76184  13.531  14.651   3.445
58096SOL    HW176185  13.495  14.666   3.358
58096SOL    HW276186  13.458  14.670   3.505
58097SOL     OW76187  14.350  10.410   0.249
58097SOL    HW176188  14.324  10.472   0.318
58097SOL    HW276189  14.399  10.342   0.295
58098SOL     OW76190   1.980   1.378   4.896
58098SOL    HW176191   1.926   1.364   4.973
58098SOL    HW276192   2.034   1.299   4.890
58099SOL     OW76193   0.363   8.139   6.051
58099SOL    HW176194   0.288   8.087   6.079
58099SOL    HW276195   0.325   8.211   6.000
58100SOL     OW76196  13.396   1.110  12.699
58100SOL    HW176197  13.466   1.066  12.747
58100SOL    HW276198  13.327   1.044  12.691
58101SOL     OW76199  10.494   1.718  10.821
58101SOL    HW176200  10.562   1.673  10.772
58101SOL    HW276201  10.443   1.648  10.862
58102SOL     OW76202  11.997   8.105   8.268
58102SOL    HW176203  12.076   8.149   8.238
58102SOL    HW276204  11.996   8.118   8.363
58103SOL     OW76205  13.156  14.802  13.541
58103SOL    HW176206  13.138  14.841  13.627
58103SOL    HW276207  13.154   0.004  13.481
58104SOL     OW76208  10.905  10.635   5.178
58104SOL    HW176209  10.987  10.660   5.221
58104SOL    HW276210  10.871  10.717   5.143
58105SOL     OW76211   6.312   8.066   6.321
58105SOL    HW176212   6.218   8.076   6.310
58105SOL    HW276213   6.322   8.001   6.390
58106SOL     OW76214  11.916   0.237   6.409
58106SOL    HW176215  11.908   0.210   6.500
58106SOL    HW276216  11.826   0.242   6.377
58107SOL     OW76217  10.987  13.574   9.315
58107SOL    HW176218  10.935  13.579   9.235
58107SOL    HW276219  11.000  13.666   9.340
58108SOL     OW76220  13.641   9.114   8.592
58108SOL    HW176221  13.678   9.183   8.538
58108SOL    HW276222  13.580   9.159   8.650
58109SOL     OW76223   1.381   5.640   3.674
58109SOL    HW176224   1.287   5.658   3.670
58109SOL    HW276225   1.412   5.656   3.585
58110SOL     OW76226   5.377   8.140   0.651
58110SOL    HW176227   5.309   8.208   0.646
58110SOL    HW276228   5.376   8.099   0.565
58111SOL     OW76229   2.244   8.038   4.937
58111SOL    HW176230   2.193   8.055   4.857
58111SOL    HW276231   2.273   7.947   4.928
58112SOL     OW76232  12.089  14.395   8.125
58112SOL    HW176233  12.133  14.430   8.047
58112SOL    HW276234  12.087  14.301   8.112
58113SOL     OW76235  12.669   8.391   4.039
58113SOL    HW176236  12.755   8.398   3.997
58113SOL    HW276237  12.639   8.303   4.017
58114SOL     OW76238   5.575   3.774   7.131
58114SOL    HW176239   5.666   3.781   7.158
58114SOL    HW276240   5.526   3.778   7.213
58115SOL     OW76241   7.580   8.931   3.552
58115SOL    HW176242   7.653   8.932   3.491
58115SOL    HW276243   7.522   8.862   3.519
58116SOL     OW76244   8.841   7.028   3.123
58116SOL    HW176245   8.879   7.113   3.101
58116SOL    HW276246   8.908   6.985   3.177
58117SOL     OW76247  13.804  11.473   4.070
58117SOL    HW176248  13.810  11.492   4.164
58117SOL    HW276249  13.731  11.413   4.062
58118SOL     OW76250  12.598   9.467   1.835
58118SOL    HW176251  12.601   9.416   1.754
58118SOL    HW276252  12.674   9.436   1.885
58119SOL     OW76253  13.639   0.046   5.250
58119SOL    HW176254  13.556   0.014   5.214
58119SOL    HW276255  13.654  14.863   5.328
58120SOL     OW76256   1.101   3.308   2.577
58120SOL    HW176257   1.039   3.284   2.645
58120SOL    HW276258   1.187   3.282   2.611
58121SOL     OW76259   2.424  11.250  12.428
58121SOL    HW176260   2.458  11.294  12.506
58121SOL    HW276261   2.356  11.309  12.395
58122SOL     OW76262   5.999   7.423   2.128
58122SOL    HW176263   5.996   7.412   2.033
58122SOL    HW276264   5.907   7.427   2.154
58123SOL     OW76265   1.809   0.902   9.086
58123SOL    HW176266   1.831   0.857   9.168
58123SOL    HW276267   1.794   0.993   9.112
58124SOL     OW76268   6.740  14.170   1.802
58124SOL    HW176269   6.810  14.116   1.837
58124SOL    HW276270   6.715  14.129   1.720
58125SOL     OW76271   4.621   0.323   0.652
58125SOL    HW176272   4.661   0.408   0.664
58125SOL    HW276273   4.625   0.308   0.557
58126SOL     OW76274  12.251   0.810   2.570
58126SOL    HW176275  12.224   0.784   2.482
58126SOL    HW276276  12.228   0.735   2.625
58127SOL     OW76277   6.471  12.957   2.273
58127SOL    HW176278   6.525  13.023   2.230
58127SOL    HW276279   6.493  12.965   2.366
58128SOL     OW76280  12.318   8.070   6.796
58128SOL    HW176281  12.324   8.162   6.821
58128SOL    HW276282  12.229   8.043   6.822
58129SOL     OW76283   6.992   1.637   3.736
58129SOL    HW176284   7.035   1.569   3.788
58129SOL    HW276285   7.004   1.717   3.786
58130SOL     OW76286  11.543   9.535   1.972
58130SOL    HW176287  11.577   9.547   2.061
58130SOL    HW276288  11.581   9.452   1.943
58131SOL     OW76289  13.601   7.198   5.522
58131SOL    HW176290  13.611   7.264   5.591
58131SOL    HW276291  13.628   7.243   5.442
58132SOL     OW76292   5.298   0.982   2.078
58132SOL    HW176293   5.336   0.915   2.136
58132SOL    HW276294   5.354   0.981   2.001
58133SOL     OW76295  12.717  13.553   3.537
58133SOL    HW176296  12.706  13.553   3.632
58133SOL    HW276297  12.628  13.561   3.502
58134SOL     OW76298   5.356   4.771  13.058
58134SOL    HW176299   5.409   4.731  13.126
58134SOL    HW276300   5.403   4.751  12.976
58135SOL     OW76301   2.619   9.551   0.093
58135SOL    HW176302   2.667   9.597   0.162
58135SOL    HW276303   2.642   9.597   0.012
58136SOL     OW76304  14.615  12.757   4.628
58136SOL    HW176305  14.644  12.704   4.553
58136SOL    HW276306  14.688  12.753   4.690
58137SOL     OW76307  11.010   7.960  13.054
58137SOL    HW176308  11.050   7.878  13.082
58137SOL    HW276309  11.078   8.026  13.069
58138SOL     OW76310   0.800   8.649  12.494
58138SOL    HW176311   0.860   8.602  12.552
58138SOL    HW276312   0.818   8.741  12.511
58139SOL     OW76313   5.680   8.601   8.817
58139SOL    HW176314   5.622   8.556   8.755
58139SOL    HW276315   5.713   8.531   8.874
58140SOL     OW76316   2.086   7.789   0.531
58140SOL    HW176317   2.058   7.698   0.518
58140SOL    HW276318   2.008   7.835   0.560
58141SOL     OW76319   1.658   1.746   3.283
58141SOL    HW176320   1.614   1.663   3.300
58141SOL    HW276321   1.606   1.787   3.214
58142SOL     OW76322   0.469  13.192   4.091
58142SOL    HW176323   0.543  13.132   4.100
58142SOL    HW276324   0.449  13.191   3.998
58143SOL     OW76325   9.744   0.939   4.795
58143SOL    HW176326   9.799   0.874   4.751
58143SOL    HW276327   9.756   0.921   4.889
58144SOL     OW76328  12.428   9.793   1.858
58144SOL    HW176329  12.462   9.838   1.780
58144SOL    HW276330  12.336   9.819   1.861
58145SOL     OW76331   3.992   9.409  11.609
58145SOL    HW176332   3.930   9.358  11.660
58145SOL    HW276333   4.044   9.457  11.674
58146SOL     OW76334   0.980   2.553   9.863
58146SOL    HW176335   1.026   2.634   9.841
58146SOL    HW276336   1.040   2.506   9.922
58147SOL     OW76337   0.354  11.298   3.042
58147SOL    HW176338   0.353  11.307   3.138
58147SOL    HW276339   0.316  11.380   3.010
58148SOL     OW76340   5.872   9.828  10.322
58148SOL    HW176341   5.871   9.781  10.405
58148SOL    HW276342   5.940   9.895  10.333
58149SOL     OW76343  12.285   3.181  13.217
58149SOL    HW176344  12.227   3.241  13.170
58149SOL    HW276345  12.367   3.184  13.168
58150SOL     OW76346  11.938   5.802  14.285
58150SOL    HW176347  11.881   5.877  14.267
58150SOL    HW276348  11.890   5.726  14.251
58151SOL     OW76349  13.015   6.033  14.409
58151SOL    HW176350  12.982   6.019  14.320
58151SOL    HW276351  12.988   6.122  14.430
58152SOL     OW76352   7.042   0.799   3.284
58152SOL    HW176353   6.952   0.829   3.299
58152SOL    HW276354   7.033   0.722   3.227
58153SOL     OW76355  14.781  10.717  14.504
58153SOL    HW176356  14.808  10.808  14.491
58153SOL    HW276357  14.689  10.723  14.529
58154SOL     OW76358  12.086   0.827   5.286
58154SOL    HW176359  11.996   0.851   5.306
58154SOL    HW276360  12.086   0.731   5.287
58155SOL     OW76361   5.718   4.107   7.460
58155SOL    HW176362   5.752   4.074   7.377
58155SOL    HW276363   5.792   4.154   7.499
58156SOL     OW76364  13.150   0.352  11.742
58156SOL    HW176365  13.132   0.446  11.739
58156SOL    HW276366  13.134   0.327  11.833
58157SOL     OW76367   2.472   5.739   3.369
58157SOL    HW176368   2.501   5.826   3.345
58157SOL    HW276369   2.502   5.683   3.297
58158SOL     OW76370   9.879  10.914  12.067
58158SOL    HW176371   9.921  10.843  12.117
58158SOL    HW276372   9.875  10.881  11.978
58159SOL     OW76373   5.339   2.456   5.929
58159SOL    HW176374   5.425   2.424   5.956
58159SOL    HW276375   5.345   2.462   5.833
58160SOL     OW76376   2.917  14.284   1.533
58160SOL    HW176377   2.957  14.315   1.614
58160SOL    HW276378   2.853  14.351   1.510
58161SOL     OW76379   5.692   6.459   4.234
58161SOL    HW176380   5.737   6.430   4.314
58161SOL    HW276381   5.644   6.382   4.205
58162SOL     OW76382   9.104  13.351  10.774
58162SOL    HW176383   9.151  13.434  10.765
58162SOL    HW276384   9.032  13.357  10.712
58163SOL     OW76385  12.836   8.924  11.032
58163SOL    HW176386  12.787   8.981  11.092
58163SOL    HW276387  12.838   8.839  11.076
58164SOL     OW76388   4.336   3.562  10.802
58164SOL    HW176389   4.422   3.528  10.779
58164SOL    HW276390   4.289   3.486  10.836
58165SOL     OW76391  10.086  13.351  10.497
58165SOL    HW176392  10.064  13.266  10.536
58165SOL    HW276393  10.017  13.409  10.529
58166SOL     OW76394  11.498   2.810   5.368
58166SOL    HW176395  11.583   2.839   5.400
58166SOL    HW276396  11.436   2.874   5.403
58167SOL     OW76397   4.212   8.970  10.615
58167SOL    HW176398   4.137   8.958  10.556
58167SOL    HW276399   4.272   9.026  10.567
58168SOL     OW76400  11.903   4.256  11.894
58168SOL    HW176401  11.809   4.241  11.903
58168SOL    HW276402  11.911   4.306  11.813
58169SOL     OW76403  12.916  11.129   1.099
58169SOL    HW176404  12.921  11.072   1.176
58169SOL    HW276405  12.994  11.108   1.048
58170SOL     OW76406   3.501   9.882   1.015
58170SOL    HW176407   3.432   9.826   1.052
58170SOL    HW276408   3.486   9.968   1.054
58171SOL     OW76409  12.824   8.195   0.355
58171SOL    HW176410  12.737   8.234   0.361
58171SOL    HW276411  12.821   8.121   0.416
58172SOL     OW76412   1.113   3.039  11.962
58172SOL    HW176413   1.151   3.105  11.904
58172SOL    HW276414   1.187   2.982  11.985
58173SOL     OW76415   0.886   1.083   8.022
58173SOL    HW176416   0.890   1.004   7.969
58173SOL    HW276417   0.803   1.124   7.998
58174SOL     OW76418   3.451   3.698  14.128
58174SOL    HW176419   3.442   3.783  14.171
58174SOL    HW276420   3.545   3.682  14.125
58175SOL     OW76421   4.617   3.641  13.996
58175SOL    HW176422   4.648   3.697  14.067
58175SOL    HW276423   4.531   3.676  13.973
58176SOL     OW76424   7.632   6.307  14.693
58176SOL    HW176425   7.547   6.301  14.737
58176SOL    HW276426   7.640   6.224  14.645
58177SOL     OW76427   9.791   3.146   8.924
58177SOL    HW176428   9.787   3.239   8.901
58177SOL    HW276429   9.769   3.100   8.843
58178SOL     OW76430   1.477  11.008   0.879
58178SOL    HW176431   1.417  10.943   0.914
58178SOL    HW276432   1.482  10.988   0.785
58179SOL     OW76433   6.240  13.867   2.237
58179SOL    HW176434   6.189  13.866   2.318
58179SOL    HW276435   6.288  13.784   2.237
58180SOL     OW76436   6.721   0.066   5.174
58180SOL    HW176437   6.714   0.061   5.269
58180SOL    HW276438   6.652   0.126   5.147
58181SOL     OW76439   0.263   4.331   2.678
58181SOL    HW176440   0.238   4.422   2.688
58181SOL    HW276441   0.357   4.330   2.696
58182SOL     OW76442  13.773  13.158   3.433
58182SOL    HW176443  13.695  13.175   3.485
58182SOL    HW276444  13.827  13.102   3.488
58183SOL     OW76445   8.154   9.428  13.592
58183SOL    HW176446   8.233   9.376  13.610
58183SOL    HW276447   8.184   9.497  13.532
58184SOL     OW76448   1.224   7.168   3.272
58184SOL    HW176449   1.297   7.172   3.334
58184SOL    HW276450   1.255   7.214   3.195
58185SOL     OW76451  10.564   7.573   2.396
58185SOL    HW176452  10.590   7.483   2.375
58185SOL    HW276453  10.519   7.566   2.480
58186SOL     OW76454  14.670   1.627   8.052
58186SOL    HW176455  14.729   1.701   8.069
58186SOL    HW276456  14.726   1.550   8.061
58187SOL     OW76457   8.840   5.439  12.693
58187SOL    HW176458   8.751   5.404  12.692
58187SOL    HW276459   8.832   5.526  12.731
58188SOL     OW76460   6.555   6.790   0.749
58188SOL    HW176461   6.621   6.722   0.741
58188SOL    HW276462   6.502   6.763   0.825
58189SOL     OW76463   8.538   2.713  11.691
58189SOL    HW176464   8.545   2.808  11.685
58189SOL    HW276465   8.444   2.695  11.678
58190SOL     OW76466   3.475   9.455  11.311
58190SOL    HW176467   3.481   9.538  11.264
58190SOL    HW276468   3.394   9.415  11.279
58191SOL     OW76469   9.256   8.720  11.808
58191SOL    HW176470   9.319   8.787  11.781
58191SOL    HW276471   9.309   8.649  11.844
58192SOL     OW76472   5.075   7.330  14.697
58192SOL    HW176473   5.056   7.268  14.627
58192SOL    HW276474   5.170   7.342  14.694
58193SOL     OW76475  14.539   1.148  11.941
58193SOL    HW176476  14.595   1.181  11.872
58193SOL    HW276477  14.581   1.066  11.969
58194SOL     OW76478   1.234  13.414  12.317
58194SOL    HW176479   1.260  13.323  12.326
58194SOL    HW276480   1.270  13.441  12.233
58195SOL     OW76481  12.053   4.697  13.281
58195SOL    HW176482  12.002   4.741  13.213
58195SOL    HW276483  12.025   4.605  13.277
58196SOL     OW76484  14.615   8.517   6.564
58196SOL    HW176485  14.651   8.429   6.569
58196SOL    HW276486  14.615   8.538   6.471
58197SOL     OW76487   0.298  14.241   2.438
58197SOL    HW176488   0.319  14.150   2.416
58197SOL    HW276489   0.363  14.293   2.391
58198SOL     OW76490   3.432   2.282  13.944
58198SOL    HW176491   3.364   2.318  13.887
58198SOL    HW276492   3.441   2.191  13.915
58199SOL     OW76493   8.113   3.903   0.031
58199SOL    HW176494   8.128   3.940  14.816
58199SOL    HW276495   8.038   3.952   0.065
58200SOL     OW76496  14.651  10.017  13.590
58200SOL    HW176497  14.656   9.933  13.544
58200SOL    HW276498  14.630  10.081  13.521
58201SOL     OW76499   7.284   5.987   5.107
58201SOL    HW176500   7.349   6.000   5.176
58201SOL    HW276501   7.234   5.911   5.135
58202SOL     OW76502   5.374   0.220  14.244
58202SOL    HW176503   5.417   0.135  14.240
58202SOL    HW276504   5.373   0.251  14.154
58203SOL     OW76505  14.534  10.942  10.090
58203SOL    HW176506  14.473  10.950  10.164
58203SOL    HW276507  14.480  10.957  10.013
58204SOL     OW76508  10.209   1.792  10.099
58204SOL    HW176509  10.141   1.740  10.140
58204SOL    HW276510  10.271   1.810  10.170
58205SOL     OW76511  10.788   8.177   1.984
58205SOL    HW176512  10.809   8.223   2.066
58205SOL    HW276513  10.705   8.134   2.002
58206SOL     OW76514   9.235   1.633   5.413
58206SOL    HW176515   9.218   1.677   5.496
58206SOL    HW276516   9.257   1.704   5.352
58207SOL     OW76517   9.271  13.624   1.323
58207SOL    HW176518   9.330  13.699   1.319
58207SOL    HW276519   9.188  13.657   1.288
58208SOL     OW76520   4.464   6.227   3.010
58208SOL    HW176521   4.427   6.188   3.089
58208SOL    HW276522   4.424   6.177   2.938
58209SOL     OW76523   8.730   5.316   7.229
58209SOL    HW176524   8.639   5.345   7.224
58209SOL    HW276525   8.748   5.278   7.144
58210SOL     OW76526  13.931  12.817  10.815
58210SOL    HW176527  13.838  12.835  10.830
58210SOL    HW276528  13.969  12.902  10.793
58211SOL     OW76529   1.181  14.148   5.173
58211SOL    HW176530   1.128  14.125   5.249
58211SOL    HW276531   1.171  14.075   5.113
58212SOL     OW76532   5.620   9.022  14.845
58212SOL    HW176533   5.542   9.015  14.789
58212SOL    HW276534   5.589   8.998   0.060
58213SOL     OW76535   9.169  14.441  11.715
58213SOL    HW176536   9.259  14.470  11.725
58213SOL    HW276537   9.139  14.480  11.633
58214SOL     OW76538   3.690   7.613   2.763
58214SOL    HW176539   3.747   7.586   2.836
58214SOL    HW276540   3.720   7.561   2.689
58215SOL     OW76541   4.497   0.889   1.699
58215SOL    HW176542   4.498   0.960   1.635
58215SOL    HW276543   4.510   0.809   1.648
58216SOL     OW76544  11.007  14.350   6.148
58216SOL    HW176545  10.952  14.415   6.104
58216SOL    HW276546  11.096  14.383   6.139
58217SOL     OW76547   0.244   8.839   5.990
58217SOL    HW176548   0.159   8.854   5.948
58217SOL    HW276549   0.303   8.901   5.946
58218SOL     OW76550   4.056   2.091  13.317
58218SOL    HW176551   3.972   2.066  13.355
58218SOL    HW276552   4.065   2.184  13.338
58219SOL     OW76553   0.638   0.455  12.801
58219SOL    HW176554   0.673   0.530  12.753
58219SOL    HW276555   0.674   0.379  12.754
58220SOL     OW76556  11.748  14.801  13.934
58220SOL    HW176557  11.821  14.858  13.910
58220SOL    HW276558  11.741  14.738  13.862
58221SOL     OW76559   9.888   5.302  12.093
58221SOL    HW176560   9.937   5.319  12.012
58221SOL    HW276561   9.911   5.375  12.151
58222SOL     OW76562   0.290  12.512  12.464
58222SOL    HW176563   0.195  12.500  12.461
58222SOL    HW276564   0.324  12.440  12.411
58223SOL     OW76565  11.092   1.595   5.246
58223SOL    HW176566  11.105   1.599   5.341
58223SOL    HW276567  11.015   1.539   5.235
58224SOL     OW76568   5.427   0.870   4.777
58224SOL    HW176569   5.357   0.821   4.820
58224SOL    HW276570   5.507   0.836   4.815
58225SOL     OW76571   0.409   6.742  14.704
58225SOL    HW176572   0.412   6.837  14.711
58225SOL    HW276573   0.499   6.716  14.684
58226SOL     OW76574   1.285  12.421   7.961
58226SOL    HW176575   1.201  12.412   8.007
58226SOL    HW276576   1.339  12.474   8.020
58227SOL     OW76577  11.648   1.401   2.368
58227SOL    HW176578  11.591   1.411   2.291
58227SOL    HW276579  11.609   1.329   2.417
58228SOL     OW76580   3.755   3.067   9.946
58228SOL    HW176581   3.752   3.144   9.889
58228SOL    HW276582   3.714   2.998   9.894
58229SOL     OW76583  12.562   3.479   8.478
58229SOL    HW176584  12.557   3.430   8.397
58229SOL    HW276585  12.638   3.443   8.524
58230SOL     OW76586   1.852   5.121   8.032
58230SOL    HW176587   1.771   5.074   8.053
58230SOL    HW276588   1.922   5.064   8.063
58231SOL     OW76589   3.610   0.735  11.535
58231SOL    HW176590   3.619   0.803  11.602
58231SOL    HW276591   3.700   0.708  11.516
58232SOL     OW76592  10.097   0.448   0.086
58232SOL    HW176593  10.096   0.484  14.869
58232SOL    HW276594  10.175   0.392   0.088
58233SOL     OW76595   7.345   1.242  12.906
58233SOL    HW176596   7.338   1.162  12.853
58233SOL    HW276597   7.321   1.214  12.995
58234SOL     OW76598   1.171   3.530   2.434
58234SOL    HW176599   1.159   3.480   2.515
58234SOL    HW276600   1.146   3.469   2.365
58235SOL     OW76601   7.854   7.501   2.435
58235SOL    HW176602   7.780   7.490   2.494
58235SOL    HW276603   7.930   7.470   2.484
58236SOL     OW76604   3.034  11.575  12.947
58236SOL    HW176605   3.053  11.481  12.943
58236SOL    HW276606   3.007  11.597  12.858
58237SOL     OW76607   4.160  10.589   1.479
58237SOL    HW176608   4.192  10.512   1.430
58237SOL    HW276609   4.069  10.569   1.499
58238SOL     OW76610   9.324   5.502  13.289
58238SOL    HW176611   9.383   5.438  13.328
58238SOL    HW276612   9.334   5.581  13.343
58239SOL     OW76613  14.487   2.683  12.850
58239SOL    HW176614  14.444   2.608  12.890
58239SOL    HW276615  14.473   2.672  12.756
58240SOL     OW76616  11.988  11.804   1.992
58240SOL    HW176617  11.987  11.739   1.922
58240SOL    HW276618  11.900  11.802   2.028
58241SOL     OW76619   4.346   3.169   6.163
58241SOL    HW176620   4.365   3.162   6.257
58241SOL    HW276621   4.275   3.107   6.149
58242SOL     OW76622   2.103   7.887   9.340
58242SOL    HW176623   2.117   7.933   9.258
58242SOL    HW276624   2.172   7.821   9.343
58243SOL     OW76625   4.991   7.102  11.426
58243SOL    HW176626   4.927   7.114  11.356
58243SOL    HW276627   5.007   7.007  11.428
58244SOL     OW76628   2.659   0.480   5.907
58244SOL    HW176629   2.669   0.571   5.880
58244SOL    HW276630   2.573   0.454   5.875
58245SOL     OW76631  13.247   8.337  11.564
58245SOL    HW176632  13.289   8.348  11.650
58245SOL    HW276633  13.320   8.342  11.502
58246SOL     OW76634  11.513   0.344  11.373
58246SOL    HW176635  11.494   0.251  11.385
58246SOL    HW276636  11.527   0.354  11.279
58247SOL     OW76637   9.636   4.517   4.388
58247SOL    HW176638   9.628   4.422   4.376
58247SOL    HW276639   9.636   4.530   4.483
58248SOL     OW76640   8.389  14.135  13.975
58248SOL    HW176641   8.302  14.133  14.015
58248SOL    HW276642   8.404  14.227  13.956
58249SOL     OW76643   7.230  13.908   7.965
58249SOL    HW176644   7.213  13.987   8.016
58249SOL    HW276645   7.149  13.894   7.916
58250SOL     OW76646   3.955  11.455   1.666
58250SOL    HW176647   4.005  11.506   1.731
58250SOL    HW276648   3.969  11.501   1.584
58251SOL     OW76649  12.121   5.893   8.039
58251SOL    HW176650  12.215   5.909   8.030
58251SOL    HW276651  12.115   5.805   8.077
58252SOL     OW76652  12.501   8.244   1.768
58252SOL    HW176653  12.567   8.300   1.809
58252SOL    HW276654  12.539   8.223   1.682
58253SOL     OW76655  13.941   9.660   3.003
58253SOL    HW176656  13.937   9.748   2.966
58253SOL    HW276657  14.033   9.636   2.999
58254SOL     OW76658   2.584   3.799   5.516
58254SOL    HW176659   2.593   3.782   5.422
58254SOL    HW276660   2.493   3.776   5.536
58255SOL     OW76661   9.830   1.218   5.794
58255SOL    HW176662   9.789   1.216   5.881
58255SOL    HW276663   9.872   1.132   5.786
58256SOL     OW76664   3.491  10.159   3.087
58256SOL    HW176665   3.545  10.188   3.161
58256SOL    HW276666   3.554  10.124   3.024
58257SOL     OW76667   0.197   0.514  10.052
58257SOL    HW176668   0.150   0.580  10.001
58257SOL    HW276669   0.181   0.431  10.006
58258SOL     OW76670   9.753   2.380   9.334
58258SOL    HW176671   9.780   2.472   9.346
58258SOL    HW276672   9.685   2.384   9.268
58259SOL     OW76673  11.251   9.830   4.378
58259SOL    HW176674  11.252   9.847   4.284
58259SOL    HW276675  11.187   9.892   4.414
58260SOL     OW76676  12.588   1.235  10.192
58260SOL    HW176677  12.497   1.208  10.190
58260SOL    HW276678  12.632   1.170  10.247
58261SOL     OW76679  13.495   1.121   0.710
58261SOL    HW176680  13.532   1.098   0.795
58261SOL    HW276681  13.485   1.216   0.714
58262SOL     OW76682   6.889   6.343   0.322
58262SOL    HW176683   6.877   6.359   0.415
58262SOL    HW276684   6.909   6.250   0.316
58263SOL     OW76685  11.377   5.105   5.897
58263SOL    HW176686  11.371   5.125   5.990
58263SOL    HW276687  11.441   5.034   5.892
58264SOL     OW76688   7.194   1.695  12.241
58264SOL    HW176689   7.271   1.714  12.294
58264SOL    HW276690   7.227   1.648  12.165
58265SOL     OW76691   5.652   8.343  10.041
58265SOL    HW176692   5.738   8.371  10.074
58265SOL    HW276693   5.671   8.305   9.955
58266SOL     OW76694   6.910   8.482   4.224
58266SOL    HW176695   6.936   8.544   4.155
58266SOL    HW276696   6.991   8.436   4.247
58267SOL     OW76697  11.116   0.086   5.064
58267SOL    HW176698  11.030   0.061   5.030
58267SOL    HW276699  11.111   0.066   5.158
58268SOL     OW76700   2.123  14.573  11.449
58268SOL    HW176701   2.054  14.612  11.395
58268SOL    HW276702   2.127  14.482  11.420
58269SOL     OW76703   3.573  13.899  13.438
58269SOL    HW176704   3.505  13.884  13.372
58269SOL    HW276705   3.638  13.952  13.393
58270SOL     OW76706   3.211  10.225  11.319
58270SOL    HW176707   3.189  10.317  11.332
58270SOL    HW276708   3.236  10.220  11.226
58271SOL     OW76709   0.147   7.786  12.733
58271SOL    HW176710   0.109   7.708  12.693
58271SOL    HW276711   0.120   7.858  12.676
58272SOL     OW76712  10.138  12.255   4.187
58272SOL    HW176713  10.156  12.180   4.243
58272SOL    HW276714  10.211  12.315   4.202
58273SOL     OW76715  10.070   4.576  10.966
58273SOL    HW176716   9.996   4.530  11.006
58273SOL    HW276717  10.146   4.522  10.987
58274SOL     OW76718  11.533   7.391   1.937
58274SOL    HW176719  11.579   7.438   2.006
58274SOL    HW276720  11.517   7.304   1.975
58275SOL     OW76721   3.019  10.361   1.305
58275SOL    HW176722   3.114  10.362   1.304
58275SOL    HW276723   2.993  10.378   1.214
58276SOL     OW76724   9.991  10.310  14.504
58276SOL    HW176725   9.928  10.266  14.447
58276SOL    HW276726  10.077  10.287  14.467
58277SOL     OW76727   2.460   8.163   2.758
58277SOL    HW176728   2.409   8.230   2.804
58277SOL    HW276729   2.409   8.083   2.769
58278SOL     OW76730  13.842   0.718   7.033
58278SOL    HW176731  13.900   0.709   7.109
58278SOL    HW276732  13.879   0.660   6.967
58279SOL     OW76733   8.288   7.454   7.196
58279SOL    HW176734   8.337   7.420   7.271
58279SOL    HW276735   8.304   7.390   7.126
58280SOL     OW76736   3.407   4.175   2.658
58280SOL    HW176737   3.453   4.119   2.721
58280SOL    HW276738   3.395   4.258   2.704
58281SOL     OW76739   5.207  14.300   2.572
58281SOL    HW176740   5.171  14.317   2.659
58281SOL    HW276741   5.133  14.316   2.512
58282SOL     OW76742   5.132  11.307   0.664
58282SOL    HW176743   5.102  11.394   0.692
58282SOL    HW276744   5.175  11.270   0.741
58283SOL     OW76745   0.824  14.360  14.754
58283SOL    HW176746   0.805  14.280  14.803
58283SOL    HW276747   0.784  14.345  14.668
58284SOL     OW76748  12.211  11.582   2.368
58284SOL    HW176749  12.210  11.495   2.329
58284SOL    HW276750  12.258  11.636   2.305
58285SOL     OW76751   2.233   4.286   1.240
58285SOL    HW176752   2.233   4.225   1.314
58285SOL    HW276753   2.151   4.268   1.194
58286SOL     OW76754   4.845   1.871   5.843
58286SOL    HW176755   4.836   1.966   5.846
58286SOL    HW276756   4.779   1.838   5.905
58287SOL     OW76757  14.448   4.601   9.821
58287SOL    HW176758  14.514   4.665   9.795
58287SOL    HW276759  14.367   4.653   9.829
58288SOL     OW76760   2.463   4.055   1.062
58288SOL    HW176761   2.398   4.050   0.992
58288SOL    HW276762   2.413   4.077   1.140
58289SOL     OW76763   2.123   9.619   4.679
58289SOL    HW176764   2.070   9.657   4.748
58289SOL    HW276765   2.188   9.686   4.658
58290SOL     OW76766   0.344   9.314   5.827
58290SOL    HW176767   0.354   9.349   5.916
58290SOL    HW276768   0.251   9.320   5.809
58291SOL     OW76769   5.860  13.547   1.863
58291SOL    HW176770   5.932  13.610   1.866
58291SOL    HW276771   5.781  13.601   1.865
58292SOL     OW76772  13.832   2.863   6.015
58292SOL    HW176773  13.809   2.770   6.024
58292SOL    HW276774  13.909   2.863   5.957
58293SOL     OW76775  10.358   1.655  14.179
58293SOL    HW176776  10.398   1.739  14.200
58293SOL    HW276777  10.430   1.602  14.146
58294SOL     OW76778   5.644  12.528  14.017
58294SOL    HW176779   5.649  12.462  13.948
58294SOL    HW276780   5.554  12.522  14.050
58295SOL     OW76781   2.944   7.330   7.778
58295SOL    HW176782   3.025   7.373   7.804
58295SOL    HW276783   2.952   7.241   7.813
58296SOL     OW76784   6.763  12.104  10.980
58296SOL    HW176785   6.853  12.072  10.970
58296SOL    HW276786   6.713  12.027  11.007
58297SOL     OW76787   3.384  11.508  13.871
58297SOL    HW176788   3.389  11.415  13.853
58297SOL    HW276789   3.407  11.515  13.964
58298SOL     OW76790  11.083  10.834   8.712
58298SOL    HW176791  10.994  10.825   8.745
58298SOL    HW276792  11.125  10.894   8.774
58299SOL     OW76793  14.033   4.200  13.986
58299SOL    HW176794  13.964   4.156  14.035
58299SOL    HW276795  13.986   4.244  13.915
58300SOL     OW76796  11.621   2.398   3.894
58300SOL    HW176797  11.593   2.412   3.984
58300SOL    HW276798  11.558   2.447   3.841
58301SOL     OW76799  10.913   4.335  13.680
58301SOL    HW176800  10.884   4.309  13.592
58301SOL    HW276801  11.000   4.295  13.688
58302SOL     OW76802  12.332   9.998   3.975
58302SOL    HW176803  12.355   9.919   4.025
58302SOL    HW276804  12.240   9.984   3.951
58303SOL     OW76805   4.774  10.394  12.908
58303SOL    HW176806   4.783  10.446  12.827
58303SOL    HW276807   4.702  10.334  12.890
58304SOL     OW76808  13.666  11.371  14.377
58304SOL    HW176809  13.610  11.424  14.435
58304SOL    HW276810  13.618  11.288  14.367
58305SOL     OW76811   9.740   3.390   7.773
58305SOL    HW176812   9.803   3.319   7.762
58305SOL    HW276813   9.693   3.394   7.689
58306SOL     OW76814   3.328  10.131   2.161
58306SOL    HW176815   3.347  10.087   2.245
58306SOL    HW276816   3.413  10.164   2.132
58307SOL     OW76817   4.324   5.485   9.391
58307SOL    HW176818   4.277   5.403   9.403
58307SOL    HW276819   4.337   5.518   9.479
58308SOL     OW76820   3.792   3.409   6.488
58308SOL    HW176821   3.846   3.420   6.409
58308SOL    HW276822   3.735   3.335   6.468
58309SOL     OW76823  11.229   4.713   8.639
58309SOL    HW176824  11.295   4.658   8.596
58309SOL    HW276825  11.175   4.746   8.566
58310SOL     OW76826   1.186   6.402  13.391
58310SOL    HW176827   1.254   6.422  13.327
58310SOL    HW276828   1.233   6.364  13.466
58311SOL     OW76829   0.260   7.367   4.364
58311SOL    HW176830   0.253   7.316   4.445
58311SOL    HW276831   0.259   7.458   4.394
58312SOL     OW76832  12.884  13.680   2.383
58312SOL    HW176833  12.978  13.694   2.391
58312SOL    HW276834  12.849  13.766   2.358
58313SOL     OW76835   6.433  13.355  13.653
58313SOL    HW176836   6.353  13.307  13.676
58313SOL    HW276837   6.488  13.289  13.610
58314SOL     OW76838  11.650   0.997   1.613
58314SOL    HW176839  11.579   0.934   1.625
58314SOL    HW276840  11.611   1.067   1.560
58315SOL     OW76841   5.148   0.181  12.694
58315SOL    HW176842   5.100   0.181  12.611
58315SOL    HW276843   5.219   0.243  12.681
58316SOL     OW76844   5.869   2.775   2.974
58316SOL    HW176845   5.875   2.800   2.881
58316SOL    HW276846   5.856   2.681   2.973
58317SOL     OW76847   0.796   8.214  10.359
58317SOL    HW176848   0.767   8.253  10.276
58317SOL    HW276849   0.889   8.237  10.365
58318SOL     OW76850   6.898   4.943   5.332
58318SOL    HW176851   6.885   4.848   5.340
58318SOL    HW276852   6.821   4.973   5.284
58319SOL     OW76853   9.883  10.243   4.423
58319SOL    HW176854   9.950  10.302   4.388
58319SOL    HW276855   9.929  10.160   4.436
58320SOL     OW76856  14.672  13.123  12.244
58320SOL    HW176857  14.689  13.089  12.332
58320SOL    HW276858  14.583  13.093  12.223
58321SOL     OW76859   7.614   2.611   2.023
58321SOL    HW176860   7.611   2.680   1.957
58321SOL    HW276861   7.675   2.546   1.988
58322SOL     OW76862   7.212   0.578  10.943
58322SOL    HW176863   7.259   0.524  10.879
58322SOL    HW276864   7.274   0.589  11.015
58323SOL     OW76865  11.071   1.301  13.641
58323SOL    HW176866  10.990   1.343  13.671
58323SOL    HW276867  11.126   1.374  13.612
58324SOL     OW76868   2.968   0.548   4.887
58324SOL    HW176869   2.878   0.573   4.903
58324SOL    HW276870   2.977   0.547   4.792
58325SOL     OW76871  10.183   5.581   9.087
58325SOL    HW176872  10.173   5.497   9.132
58325SOL    HW276873  10.258   5.568   9.029
58326SOL     OW76874   4.231   6.448   1.864
58326SOL    HW176875   4.316   6.489   1.853
58326SOL    HW276876   4.217   6.445   1.959
58327SOL     OW76877   2.334  10.403  12.294
58327SOL    HW176878   2.291  10.381  12.212
58327SOL    HW276879   2.330  10.323  12.346
58328SOL     OW76880   2.037   2.633   5.275
58328SOL    HW176881   2.098   2.689   5.323
58328SOL    HW276882   2.086   2.552   5.260
58329SOL     OW76883   6.364   0.248   5.739
58329SOL    HW176884   6.433   0.182   5.746
58329SOL    HW276885   6.289   0.201   5.704
58330SOL     OW76886   4.446   4.205  14.281
58330SOL    HW176887   4.498   4.243  14.211
58330SOL    HW276888   4.469   4.255  14.359
58331SOL     OW76889   9.475   3.742  12.046
58331SOL    HW176890   9.452   3.677  12.112
58331SOL    HW276891   9.432   3.823  12.075
58332SOL     OW76892   1.837  10.742  10.308
58332SOL    HW176893   1.843  10.665  10.365
58332SOL    HW276894   1.868  10.815  10.362
58333SOL     OW76895   0.066   3.220   4.181
58333SOL    HW176896   0.037   3.269   4.104
58333SOL    HW276897   0.150   3.183   4.156
58334SOL     OW76898   7.674   5.149   4.671
58334SOL    HW176899   7.603   5.155   4.734
58334SOL    HW276900   7.741   5.209   4.704
58335SOL     OW76901   2.747   7.783   4.111
58335SOL    HW176902   2.823   7.725   4.106
58335SOL    HW276903   2.757   7.829   4.194
58336SOL     OW76904   8.047  14.468   1.127
58336SOL    HW176905   7.973  14.422   1.167
58336SOL    HW276906   8.085  14.404   1.067
58337SOL     OW76907   7.869   4.760   6.428
58337SOL    HW176908   7.919   4.837   6.454
58337SOL    HW276909   7.778   4.785   6.443
58338SOL     OW76910  14.630   1.351   3.282
58338SOL    HW176911  14.615   1.440   3.249
58338SOL    HW276912  14.646   1.363   3.375
58339SOL     OW76913   7.927   3.542   4.870
58339SOL    HW176914   7.977   3.621   4.849
58339SOL    HW276915   7.862   3.570   4.934
58340SOL     OW76916   9.597   4.177   3.551
58340SOL    HW176917   9.653   4.240   3.597
58340SOL    HW276918   9.537   4.231   3.500
58341SOL     OW76919   9.894   8.933  13.133
58341SOL    HW176920   9.800   8.920  13.148
58341SOL    HW276921   9.934   8.919  13.219
58342SOL     OW76922   9.763   6.187   5.870
58342SOL    HW176923   9.826   6.259   5.863
58342SOL    HW276924   9.799   6.130   5.938
58343SOL     OW76925   5.505   6.834  11.266
58343SOL    HW176926   5.556   6.912  11.288
58343SOL    HW276927   5.425   6.869  11.226
58344SOL     OW76928   6.187   8.041  10.663
58344SOL    HW176929   6.104   7.994  10.654
58344SOL    HW276930   6.222   8.043  10.574
58345SOL     OW76931   4.167   7.594   8.928
58345SOL    HW176932   4.123   7.678   8.944
58345SOL    HW276933   4.153   7.544   9.008
58346SOL     OW76934   7.877   1.981  13.989
58346SOL    HW176935   7.797   2.029  13.966
58346SOL    HW276936   7.882   1.910  13.924
58347SOL     OW76937   2.990  11.014   4.474
58347SOL    HW176938   2.905  10.982   4.501
58347SOL    HW276939   3.051  10.943   4.494
58348SOL     OW76940  14.104   1.244  11.562
58348SOL    HW176941  14.041   1.282  11.501
58348SOL    HW276942  14.064   1.160  11.587
58349SOL     OW76943  10.228   7.434   2.314
58349SOL    HW176944  10.291   7.362   2.318
58349SOL    HW276945  10.218   7.462   2.405
58350SOL     OW76946   3.044   6.990   1.518
58350SOL    HW176947   2.956   6.956   1.500
58350SOL    HW276948   3.030   7.082   1.541
58351SOL     OW76949   9.719  12.309   2.327
58351SOL    HW176950   9.685  12.393   2.296
58351SOL    HW276951   9.763  12.330   2.410
58352SOL     OW76952   1.864   1.041  14.635
58352SOL    HW176953   1.915   0.967  14.602
58352SOL    HW276954   1.902   1.059  14.721
58353SOL     OW76955   9.458   4.645   2.738
58353SOL    HW176956   9.472   4.703   2.663
58353SOL    HW276957   9.484   4.697   2.814
58354SOL     OW76958   3.896   5.932   3.435
58354SOL    HW176959   3.877   5.959   3.525
58354SOL    HW276960   3.955   5.858   3.445
58355SOL     OW76961   7.113   3.380  13.117
58355SOL    HW176962   7.204   3.353  13.106
58355SOL    HW276963   7.099   3.378  13.211
58356SOL     OW76964  10.389  12.565   9.132
58356SOL    HW176965  10.360  12.627   9.066
58356SOL    HW276966  10.427  12.620   9.201
58357SOL     OW76967   7.292   0.941   9.634
58357SOL    HW176968   7.234   0.888   9.580
58357SOL    HW276969   7.380   0.912   9.611
58358SOL     OW76970   9.651   0.791   7.152
58358SOL    HW176971   9.556   0.798   7.138
58358SOL    HW276972   9.686   0.874   7.121
58359SOL     OW76973   6.190   1.090  13.089
58359SOL    HW176974   6.123   1.149  13.053
58359SOL    HW276975   6.140   1.014  13.120
58360SOL     OW76976  11.199   6.938  11.547
58360SOL    HW176977  11.292   6.949  11.568
58360SOL    HW276978  11.178   7.014  11.493
58361SOL     OW76979  12.560   1.260  13.616
58361SOL    HW176980  12.519   1.344  13.598
58361SOL    HW276981  12.496   1.213  13.670
58362SOL     OW76982  11.004  14.216   6.435
58362SOL    HW176983  11.072  14.258   6.487
58362SOL    HW276984  11.012  14.253   6.348
58363SOL     OW76985  10.444   7.554  10.943
58363SOL    HW176986  10.361   7.505  10.950
58363SOL    HW276987  10.488   7.515  10.868
58364SOL     OW76988  10.097  14.163  13.964
58364SOL    HW176989  10.053  14.247  13.949
58364SOL    HW276990  10.056  14.128  14.043
58365SOL     OW76991   1.142   0.748  11.899
58365SOL    HW176992   1.217   0.726  11.954
58365SOL    HW276993   1.180   0.793  11.823
58366SOL     OW76994  11.487  12.388  12.940
58366SOL    HW176995  11.397  12.402  12.971
58366SOL    HW276996  11.532  12.348  13.014
58367SOL     OW76997   2.047   2.370  14.331
58367SOL    HW176998   1.995   2.451  14.337
58367SOL    HW276999   2.098   2.381  14.251
58368SOL     OW77000   6.247   7.501  11.476
58368SOL    HW177001   6.338   7.530  11.487
58368SOL    HW277002   6.245   7.458  11.390
58369SOL     OW77003   2.086   2.228   6.677
58369SOL    HW177004   2.066   2.261   6.590
58369SOL    HW277005   2.036   2.285   6.736
58370SOL     OW77006   5.904   5.128   0.506
58370SOL    HW177007   5.813   5.158   0.499
58370SOL    HW277008   5.940   5.177   0.580
58371SOL     OW77009   6.800  14.444   0.588
58371SOL    HW177010   6.707  14.441   0.611
58371SOL    HW277011   6.805  14.401   0.503
58372SOL     OW77012   0.552   2.776   7.402
58372SOL    HW177013   0.481   2.719   7.373
58372SOL    HW277014   0.522   2.864   7.379
58373SOL     OW77015   6.993   1.333  13.950
58373SOL    HW177016   6.940   1.264  13.910
58373SOL    HW277017   7.010   1.302  14.038
58374SOL     OW77018  12.035  14.660  14.590
58374SOL    HW177019  12.074  14.718  14.655
58374SOL    HW277020  11.974  14.716  14.541
58375SOL     OW77021   3.616   6.164   5.766
58375SOL    HW177022   3.699   6.127   5.736
58375SOL    HW277023   3.639   6.216   5.843
58376SOL     OW77024   2.473   6.169   9.322
58376SOL    HW177025   2.416   6.220   9.379
58376SOL    HW277026   2.445   6.078   9.334
58377SOL     OW77027   5.147  10.572  12.971
58377SOL    HW177028   5.153  10.539  12.881
58377SOL    HW277029   5.061  10.613  12.976
58378SOL     OW77030   7.051  10.909   1.236
58378SOL    HW177031   7.018  10.819   1.242
58378SOL    HW277032   7.088  10.927   1.323
58379SOL     OW77033  13.346  12.583  10.249
58379SOL    HW177034  13.253  12.570  10.231
58379SOL    HW277035  13.360  12.676  10.231
58380SOL     OW77036  10.760  13.605   1.802
58380SOL    HW177037  10.759  13.701   1.793
58380SOL    HW277038  10.835  13.577   1.751
58381SOL     OW77039  13.241  11.916   2.424
58381SOL    HW177040  13.183  11.855   2.469
58381SOL    HW277041  13.226  12.001   2.467
58382SOL     OW77042   7.831   1.498  12.007
58382SOL    HW177043   7.838   1.513  11.913
58382SOL    HW277044   7.810   1.405  12.015
58383SOL     OW77045   4.750  14.416   7.693
58383SOL    HW177046   4.814  14.387   7.628
58383SOL    HW277047   4.765  14.358   7.768
58384SOL     OW77048  12.477  12.546  13.264
58384SOL    HW177049  12.531  12.622  13.285
58384SOL    HW277050  12.484  12.538  13.169
58385SOL     OW77051  10.745   3.242   6.116
58385SOL    HW177052  10.705   3.325   6.091
58385SOL    HW277053  10.725   3.182   6.044
58386SOL     OW77054   0.125  12.856   3.670
58386SOL    HW177055   0.127  12.946   3.638
58386SOL    HW277056   0.086  12.862   3.757
58387SOL     OW77057  12.751  10.536  12.625
58387SOL    HW177058  12.794  10.594  12.688
58387SOL    HW277059  12.666  10.517  12.665
58388SOL     OW77060  14.215   3.341  10.755
58388SOL    HW177061  14.132   3.304  10.786
58388SOL    HW277062  14.190   3.421  10.709
58389SOL     OW77063   7.918   8.692   3.816
58389SOL    HW177064   7.859   8.618   3.830
58389SOL    HW277065   7.933   8.693   3.722
58390SOL     OW77066   1.785   0.838   2.948
58390SOL    HW177067   1.742   0.797   3.023
58390SOL    HW277068   1.878   0.833   2.967
58391SOL     OW77069  13.404   9.736   5.921
58391SOL    HW177070  13.484   9.788   5.916
58391SOL    HW277071  13.378   9.722   5.830
58392SOL     OW77072   4.310   3.975   0.263
58392SOL    HW177073   4.333   4.003   0.352
58392SOL    HW277074   4.381   3.916   0.238
58393SOL     OW77075   5.075  13.368   7.762
58393SOL    HW177076   5.084  13.382   7.857
58393SOL    HW277077   5.108  13.449   7.723
58394SOL     OW77078   5.084   2.811  12.570
58394SOL    HW177079   5.064   2.723  12.602
58394SOL    HW277080   5.117   2.797  12.481
58395SOL     OW77081   2.659   4.261   9.490
58395SOL    HW177082   2.599   4.188   9.471
58395SOL    HW277083   2.651   4.274   9.584
58396SOL     OW77084  11.652  10.804  14.482
58396SOL    HW177085  11.711  10.847  14.421
58396SOL    HW277086  11.569  10.851  14.472
58397SOL     OW77087  12.123   4.071   1.834
58397SOL    HW177088  12.206   4.093   1.877
58397SOL    HW277089  12.086   4.156   1.810
58398SOL     OW77090   0.336   0.564  12.277
58398SOL    HW177091   0.427   0.546  12.250
58398SOL    HW277092   0.291   0.582  12.194
58399SOL     OW77093   9.307  12.194  13.923
58399SOL    HW177094   9.249  12.213  13.997
58399SOL    HW277095   9.392  12.176  13.963
58400SOL     OW77096   7.720  11.964  11.902
58400SOL    HW177097   7.766  11.880  11.890
58400SOL    HW277098   7.644  11.957  11.843
58401SOL     OW77099   6.390   0.059  14.596
58401SOL    HW177100   6.391  14.841  14.561
58401SOL    HW277101   6.303   0.068  14.635
58402SOL     OW77102  11.377   5.630   5.061
58402SOL    HW177103  11.365   5.644   4.967
58402SOL    HW277104  11.288   5.629   5.096
58403SOL     OW77105   4.503  13.936  12.502
58403SOL    HW177106   4.506  13.860  12.561
58403SOL    HW277107   4.558  13.911  12.428
58404SOL     OW77108   9.948   8.644   7.169
58404SOL    HW177109   9.986   8.562   7.136
58404SOL    HW277110   9.857   8.621   7.191
58405SOL     OW77111   6.367   8.722   0.997
58405SOL    HW177112   6.457   8.697   1.014
58405SOL    HW277113   6.319   8.640   0.994
58406SOL     OW77114   8.267   2.911  10.443
58406SOL    HW177115   8.341   2.867  10.485
58406SOL    HW277116   8.282   3.004  10.460
58407SOL     OW77117   4.024  11.623   8.991
58407SOL    HW177118   4.059  11.579   9.069
58407SOL    HW277119   4.055  11.570   8.917
58408SOL     OW77120   9.249  11.237   6.582
58408SOL    HW177121   9.165  11.232   6.537
58408SOL    HW277122   9.312  11.256   6.512
58409SOL     OW77123   2.406  12.724   8.266
58409SOL    HW177124   2.446  12.646   8.229
58409SOL    HW277125   2.437  12.796   8.211
58410SOL     OW77126   5.553  12.925   0.934
58410SOL    HW177127   5.527  12.985   1.004
58410SOL    HW277128   5.643  12.899   0.957
58411SOL     OW77129   1.512  13.622   8.518
58411SOL    HW177130   1.602  13.648   8.537
58411SOL    HW277131   1.459  13.697   8.546
58412SOL     OW77132   2.247   8.548   6.935
58412SOL    HW177133   2.174   8.607   6.918
58412SOL    HW277134   2.281   8.575   7.020
58413SOL     OW77135   6.766  14.404   9.592
58413SOL    HW177136   6.674  14.405   9.619
58413SOL    HW277137   6.790  14.312   9.591
58414SOL     OW77138   6.858   6.879  12.700
58414SOL    HW177139   6.792   6.923  12.754
58414SOL    HW277140   6.823   6.792  12.685
58415SOL     OW77141   0.998  13.013   5.991
58415SOL    HW177142   0.928  13.060   6.036
58415SOL    HW277143   1.059  13.081   5.963
58416SOL     OW77144   7.722   3.369  14.009
58416SOL    HW177145   7.726   3.438  14.075
58416SOL    HW277146   7.806   3.376  13.962
58417SOL     OW77147  11.565  13.659   0.257
58417SOL    HW177148  11.559  13.736   0.201
58417SOL    HW277149  11.581  13.586   0.197
58418SOL     OW77150   8.212   3.821   1.915
58418SOL    HW177151   8.308   3.829   1.917
58418SOL    HW277152   8.187   3.855   1.829
58419SOL     OW77153  14.786   6.158   1.887
58419SOL    HW177154  14.783   6.088   1.822
58419SOL    HW277155   0.008   6.178   1.897
58420SOL     OW77156  10.799  10.295   9.258
58420SOL    HW177157  10.840  10.230   9.200
58420SOL    HW277158  10.724  10.250   9.296
58421SOL     OW77159  14.135   1.115  13.561
58421SOL    HW177160  14.125   1.168  13.640
58421SOL    HW277161  14.176   1.034  13.591
58422SOL     OW77162   8.312   8.145  13.197
58422SOL    HW177163   8.364   8.224  13.209
58422SOL    HW277164   8.227   8.167  13.234
58423SOL     OW77165  10.894   2.580   5.361
58423SOL    HW177166  10.938   2.666   5.361
58423SOL    HW277167  10.936   2.532   5.433
58424SOL     OW77168  12.629   7.874  12.206
58424SOL    HW177169  12.681   7.912  12.277
58424SOL    HW277170  12.607   7.948  12.150
58425SOL     OW77171   2.307  11.507  13.367
58425SOL    HW177172   2.255  11.573  13.323
58425SOL    HW277173   2.350  11.554  13.439
58426SOL     OW77174   2.966   3.711   5.558
58426SOL    HW177175   3.060   3.699   5.545
58426SOL    HW277176   2.925   3.653   5.495
58427SOL     OW77177   9.501  10.196   5.346
58427SOL    HW177178   9.544  10.112   5.356
58427SOL    HW277179   9.419  10.187   5.395
58428SOL     OW77180  12.349   0.338   6.140
58428SOL    HW177181  12.415   0.286   6.187
58428SOL    HW277182  12.378   0.337   6.049
58429SOL     OW77183   0.379   2.634  12.413
58429SOL    HW177184   0.456   2.685  12.389
58429SOL    HW277185   0.305   2.687  12.383
58430SOL     OW77186  13.869   5.376   8.843
58430SOL    HW177187  13.937   5.326   8.798
58430SOL    HW277188  13.793   5.373   8.784
58431SOL     OW77189   8.647   6.501   4.293
58431SOL    HW177190   8.635   6.532   4.383
58431SOL    HW277191   8.583   6.431   4.284
58432SOL     OW77192  14.354  12.005  13.679
58432SOL    HW177193  14.447  12.012  13.658
58432SOL    HW277194  14.351  11.955  13.760
58433SOL     OW77195   1.980  10.369   7.267
58433SOL    HW177196   1.916  10.301   7.284
58433SOL    HW277197   2.062  10.334   7.302
58434SOL     OW77198  12.443   7.096   6.940
58434SOL    HW177199  12.375   7.158   6.915
58434SOL    HW277200  12.477   7.064   6.856
58435SOL     OW77201  13.468   4.883   6.644
58435SOL    HW177202  13.472   4.800   6.693
58435SOL    HW277203  13.559   4.901   6.620
58436SOL     OW77204   9.809   5.637   1.380
58436SOL    HW177205   9.789   5.700   1.449
58436SOL    HW277206   9.818   5.553   1.426
58437SOL     OW77207   7.471   5.315   5.135
58437SOL    HW177208   7.416   5.380   5.177
58437SOL    HW277209   7.510   5.266   5.207
58438SOL     OW77210   1.744   4.635   2.596
58438SOL    HW177211   1.702   4.687   2.665
58438SOL    HW277212   1.793   4.568   2.643
58439SOL     OW77213   6.547   8.944   7.261
58439SOL    HW177214   6.509   9.001   7.328
58439SOL    HW277215   6.482   8.875   7.249
58440SOL     OW77216   5.802   4.800   2.649
58440SOL    HW177217   5.783   4.708   2.669
58440SOL    HW277218   5.812   4.842   2.735
58441SOL     OW77219  11.483   1.756   2.688
58441SOL    HW177220  11.455   1.762   2.779
58441SOL    HW277221  11.441   1.677   2.654
58442SOL     OW77222  12.164  10.033   7.333
58442SOL    HW177223  12.168   9.979   7.254
58442SOL    HW277224  12.135  10.118   7.303
58443SOL     OW77225   8.116  13.336   7.136
58443SOL    HW177226   8.160  13.417   7.112
58443SOL    HW277227   8.183  13.268   7.128
58444SOL     OW77228   0.249   3.717  14.520
58444SOL    HW177229   0.303   3.649  14.561
58444SOL    HW277230   0.312   3.778  14.482
58445SOL     OW77231  11.471   4.622   5.241
58445SOL    HW177232  11.485   4.633   5.147
58445SOL    HW277233  11.464   4.711   5.275
58446SOL     OW77234  11.098   9.511  10.452
58446SOL    HW177235  11.060   9.471  10.530
58446SOL    HW277236  11.143   9.589  10.485
58447SOL     OW77237   5.266  12.900   7.069
58447SOL    HW177238   5.287  12.848   7.147
58447SOL    HW277239   5.329  12.972   7.071
58448SOL     OW77240  11.904   0.589   9.513
58448SOL    HW177241  11.885   0.632   9.429
58448SOL    HW277242  11.825   0.539   9.532
58449SOL     OW77243   1.387   8.052  13.950
58449SOL    HW177244   1.422   8.017  13.868
58449SOL    HW277245   1.452   8.028  14.016
58450SOL     OW77246   0.327  12.048   4.261
58450SOL    HW177247   0.289  11.961   4.255
58450SOL    HW277248   0.363  12.065   4.174
58451SOL     OW77249  11.195  12.317   0.071
58451SOL    HW177250  11.132  12.389   0.063
58451SOL    HW277251  11.280  12.360   0.081
58452SOL     OW77252   4.194   9.482   7.727
58452SOL    HW177253   4.197   9.448   7.637
58452SOL    HW277254   4.179   9.405   7.781
58453SOL     OW77255  12.153  13.390   2.568
58453SOL    HW177256  12.175  13.299   2.548
58453SOL    HW277257  12.068  13.386   2.612
58454SOL     OW77258   4.469  14.122  11.271
58454SOL    HW177259   4.550  14.082  11.240
58454SOL    HW277260   4.498  14.187  11.336
58455SOL     OW77261   9.574  14.541  12.807
58455SOL    HW177262   9.636  14.571  12.741
58455SOL    HW277263   9.626  14.531  12.886
58456SOL     OW77264  13.809   3.112  14.493
58456SOL    HW177265  13.866   3.160  14.553
58456SOL    HW277266  13.809   3.165  14.413
58457SOL     OW77267   2.701  13.171   3.622
58457SOL    HW177268   2.741  13.171   3.710
58457SOL    HW277269   2.693  13.263   3.599
58458SOL     OW77270   2.802   7.027   4.027
58458SOL    HW177271   2.778   6.997   3.939
58458SOL    HW277272   2.893   7.056   4.019
58459SOL     OW77273  11.884  11.665   3.037
58459SOL    HW177274  11.945  11.674   2.964
58459SOL    HW277275  11.876  11.753   3.074
58460SOL     OW77276   5.621  12.875   3.142
58460SOL    HW177277   5.549  12.933   3.116
58460SOL    HW277278   5.577  12.796   3.173
58461SOL     OW77279   1.903   9.491   4.362
58461SOL    HW177280   1.957   9.420   4.398
58461SOL    HW277281   1.818   9.481   4.404
58462SOL     OW77282   2.253  10.257  14.162
58462SOL    HW177283   2.162  10.236  14.142
58462SOL    HW277284   2.284  10.182  14.213
58463SOL     OW77285   3.094   5.402   2.466
58463SOL    HW177286   3.158   5.415   2.395
58463SOL    HW277287   3.146   5.365   2.538
58464SOL     OW77288   7.425  10.048   4.544
58464SOL    HW177289   7.487  10.011   4.608
58464SOL    HW277290   7.363   9.977   4.528
58465SOL     OW77291   8.101  14.306  10.579
58465SOL    HW177292   8.093  14.397  10.550
58465SOL    HW277293   8.186  14.278  10.544
58466SOL     OW77294  13.106   2.470   6.785
58466SOL    HW177295  13.157   2.457   6.865
58466SOL    HW277296  13.163   2.522   6.728
58467SOL     OW77297   8.580  12.196   3.219
58467SOL    HW177298   8.519  12.182   3.292
58467SOL    HW277299   8.560  12.284   3.188
58468SOL     OW77300   9.467   8.289   2.179
58468SOL    HW177301   9.536   8.304   2.115
58468SOL    HW277302   9.386   8.310   2.132
58469SOL     OW77303  14.622  14.707  11.552
58469SOL    HW177304  14.704  14.713  11.600
58469SOL    HW277305  14.578  14.790  11.568
58470SOL     OW77306  10.445   1.814   5.658
58470SOL    HW177307  10.486   1.865   5.588
58470SOL    HW277308  10.511   1.750   5.682
58471SOL     OW77309  10.590  13.202   1.924
58471SOL    HW177310  10.679  13.174   1.946
58471SOL    HW277311  10.548  13.123   1.890
58472SOL     OW77312   2.717   7.331   4.453
58472SOL    HW177313   2.704   7.425   4.462
58472SOL    HW277314   2.741   7.302   4.541
58473SOL     OW77315   8.140   4.357   4.661
58473SOL    HW177316   8.148   4.425   4.728
58473SOL    HW277317   8.050   4.326   4.671
58474SOL     OW77318  12.318   1.958   9.665
58474SOL    HW177319  12.379   1.911   9.722
58474SOL    HW277320  12.253   1.891   9.641
58475SOL     OW77321   4.912  11.697   2.239
58475SOL    HW177322   4.833  11.645   2.226
58475SOL    HW277323   4.880  11.782   2.271
58476SOL     OW77324  12.351  12.905   6.594
58476SOL    HW177325  12.348  12.815   6.561
58476SOL    HW277326  12.344  12.896   6.689
58477SOL     OW77327   7.025   0.058   4.689
58477SOL    HW177328   7.098   0.004   4.719
58477SOL    HW277329   7.009   0.119   4.762
58478SOL     OW77330   0.048   7.613   7.571
58478SOL    HW177331  14.828   7.609   7.543
58478SOL    HW277332   0.088   7.534   7.534
58479SOL     OW77333   2.575   5.756   5.022
58479SOL    HW177334   2.495   5.778   5.069
58479SOL    HW277335   2.644   5.757   5.089
58480SOL     OW77336   9.774   5.847   0.471
58480SOL    HW177337   9.818   5.768   0.502
58480SOL    HW277338   9.794   5.850   0.377
58481SOL     OW77339   3.626  14.151  12.196
58481SOL    HW177340   3.592  14.210  12.128
58481SOL    HW277341   3.581  14.177  12.276
58482SOL     OW77342   8.011   3.549   0.031
58482SOL    HW177343   8.103   3.561   0.052
58482SOL    HW277344   8.007   3.465  14.857
58483SOL     OW77345   4.459  10.441   8.596
58483SOL    HW177346   4.420  10.470   8.514
58483SOL    HW277347   4.446  10.514   8.656
58484SOL     OW77348  13.954   0.801   2.318
58484SOL    HW177349  13.859   0.805   2.322
58484SOL    HW277350  13.984   0.832   2.403
58485SOL     OW77351   2.014  11.211   8.706
58485SOL    HW177352   2.069  11.273   8.754
58485SOL    HW277353   1.996  11.255   8.623
58486SOL     OW77354   2.253   2.412  12.723
58486SOL    HW177355   2.322   2.388  12.662
58486SOL    HW277356   2.229   2.502  12.699
58487SOL     OW77357   0.301  10.067   0.795
58487SOL    HW177358   0.340  10.137   0.848
58487SOL    HW277359   0.303  10.101   0.705
58488SOL     OW77360   1.118   9.662  10.353
58488SOL    HW177361   1.136   9.652  10.259
58488SOL    HW277362   1.199   9.698  10.389
58489SOL     OW77363   5.394   8.824  11.959
58489SOL    HW177364   5.308   8.834  12.002
58489SOL    HW277365   5.398   8.897  11.898
58490SOL     OW77366  11.126  11.828   3.838
58490SOL    HW177367  11.200  11.886   3.819
58490SOL    HW277368  11.155  11.774   3.911
58491SOL     OW77369   8.319  10.856  11.724
58491SOL    HW177370   8.327  10.778  11.668
58491SOL    HW277371   8.404  10.862  11.768
58492SOL     OW77372   1.227   7.371  13.692
58492SOL    HW177373   1.200   7.356  13.783
58492SOL    HW277374   1.150   7.348  13.641
58493SOL     OW77375   2.646   7.083   7.219
58493SOL    HW177376   2.587   7.027   7.170
58493SOL    HW277377   2.733   7.065   7.181
58494SOL     OW77378   2.595   4.818   0.025
58494SOL    HW177379   2.647   4.872  14.836
58494SOL    HW277380   2.515   4.868   0.040
58495SOL     OW77381  13.618  12.788   3.396
58495SOL    HW177382  13.554  12.855   3.416
58495SOL    HW277383  13.658  12.816   3.313
58496SOL     OW77384   5.304   7.715   3.736
58496SOL    HW177385   5.258   7.795   3.710
58496SOL    HW277386   5.330   7.674   3.653
58497SOL     OW77387   3.817   3.357   5.310
58497SOL    HW177388   3.833   3.451   5.314
58497SOL    HW277389   3.894   3.317   5.349
58498SOL     OW77390   1.551   9.725   4.346
58498SOL    HW177391   1.618   9.785   4.314
58498SOL    HW277392   1.533   9.667   4.272
58499SOL     OW77393   0.953  13.417   4.572
58499SOL    HW177394   0.887  13.409   4.641
58499SOL    HW277395   0.937  13.343   4.514
58500SOL     OW77396   3.995   9.953   0.412
58500SOL    HW177397   3.970  10.045   0.424
58500SOL    HW277398   4.059   9.955   0.341
58501SOL     OW77399  14.180  14.745   8.886
58501SOL    HW177400  14.201  14.697   8.807
58501SOL    HW277401  14.208  14.835   8.868
58502SOL     OW77402   6.104   8.625  14.093
58502SOL    HW177403   6.155   8.544  14.092
58502SOL    HW277404   6.059   8.624  14.178
58503SOL     OW77405  14.096   7.595   1.000
58503SOL    HW177406  14.095   7.591   1.095
58503SOL    HW277407  14.004   7.603   0.976
58504SOL     OW77408   1.059  13.334   6.794
58504SOL    HW177409   1.093  13.245   6.802
58504SOL    HW277410   1.080  13.359   6.704
58505SOL     OW77411  10.857  13.422   4.856
58505SOL    HW177412  10.946  13.456   4.848
58505SOL    HW277413  10.819  13.435   4.769
58506SOL     OW77414   9.363   6.784   9.917
58506SOL    HW177415   9.353   6.722   9.989
58506SOL    HW277416   9.304   6.856   9.938
58507SOL     OW77417   4.626   2.655   3.390
58507SOL    HW177418   4.630   2.560   3.376
58507SOL    HW277419   4.709   2.687   3.354
58508SOL     OW77420  10.569  12.384   9.010
58508SOL    HW177421  10.544  12.447   9.077
58508SOL    HW277422  10.487  12.363   8.965
58509SOL     OW77423   3.309  14.233   5.169
58509SOL    HW177424   3.325  14.184   5.249
58509SOL    HW277425   3.360  14.314   5.180
58510SOL     OW77426   9.670   4.073   9.421
58510SOL    HW177427   9.596   4.043   9.367
58510SOL    HW277428   9.719   4.131   9.364
58511SOL     OW77429   4.501  14.304  11.833
58511SOL    HW177430   4.407  14.285  11.839
58511SOL    HW277431   4.507  14.399  11.846
58512SOL     OW77432   2.472  10.205  10.306
58512SOL    HW177433   2.466  10.249  10.391
58512SOL    HW277434   2.384  10.170  10.291
58513SOL     OW77435  13.251   4.382   0.111
58513SOL    HW177436  13.211   4.304   0.072
58513SOL    HW277437  13.339   4.353   0.137
58514SOL     OW77438  10.822   8.875   7.116
58514SOL    HW177439  10.804   8.784   7.091
58514SOL    HW277440  10.831   8.922   7.033
58515SOL     OW77441  11.516  12.623   9.489
58515SOL    HW177442  11.574  12.650   9.560
58515SOL    HW277443  11.446  12.574   9.532
58516SOL     OW77444   8.368  14.006   2.817
58516SOL    HW177445   8.374  13.984   2.910
58516SOL    HW277446   8.450  13.975   2.779
58517SOL     OW77447   6.694   6.075   8.457
58517SOL    HW177448   6.643   6.144   8.500
58517SOL    HW277449   6.784   6.108   8.456
58518SOL     OW77450   3.534   8.829  11.084
58518SOL    HW177451   3.467   8.805  11.020
58518SOL    HW277452   3.516   8.921  11.105
58519SOL     OW77453  13.191   0.787   1.951
58519SOL    HW177454  13.137   0.820   2.023
58519SOL    HW277455  13.277   0.826   1.966
58520SOL     OW77456   1.768  10.497  14.197
58520SOL    HW177457   1.699  10.431  14.189
58520SOL    HW277458   1.724  10.573  14.236
58521SOL     OW77459   7.994   7.210  13.043
58521SOL    HW177460   7.901   7.216  13.021
58521SOL    HW277461   8.033   7.285  12.999
58522SOL     OW77462   8.523   7.637   3.815
58522SOL    HW177463   8.578   7.626   3.892
58522SOL    HW277464   8.585   7.656   3.744
58523SOL     OW77465   9.423   9.564  11.021
58523SOL    HW177466   9.423   9.490  10.961
58523SOL    HW277467   9.394   9.528  11.104
58524SOL     OW77468   2.108   5.649   8.112
58524SOL    HW177469   2.097   5.680   8.022
58524SOL    HW277470   2.099   5.554   8.106
58525SOL     OW77471  12.664   9.978   2.039
58525SOL    HW177472  12.569   9.986   2.034
58525SOL    HW277473  12.678   9.901   2.094
58526SOL     OW77474   8.516   3.348   0.645
58526SOL    HW177475   8.444   3.305   0.599
58526SOL    HW277476   8.531   3.293   0.722
58527SOL     OW77477   1.176   5.877  14.074
58527SOL    HW177478   1.083   5.885  14.091
58527SOL    HW277479   1.216   5.864  14.160
58528SOL     OW77480   7.337  13.730   0.634
58528SOL    HW177481   7.340  13.774   0.720
58528SOL    HW277482   7.365  13.640   0.652
58529SOL     OW77483   3.206   5.236   6.928
58529SOL    HW177484   3.139   5.193   6.876
58529SOL    HW277485   3.191   5.329   6.916
58530SOL     OW77486  11.850  11.699   7.278
58530SOL    HW177487  11.795  11.716   7.354
58530SOL    HW277488  11.933  11.742   7.297
58531SOL     OW77489   0.576   8.727   3.357
58531SOL    HW177490   0.552   8.702   3.447
58531SOL    HW277491   0.645   8.666   3.333
58532SOL     OW77492   0.853  10.353   1.507
58532SOL    HW177493   0.917  10.423   1.519
58532SOL    HW277494   0.806  10.375   1.427
58533SOL     OW77495   2.942   5.250   4.393
58533SOL    HW177496   2.955   5.158   4.416
58533SOL    HW277497   2.966   5.298   4.472
58534SOL     OW77498   2.339   5.475   9.114
58534SOL    HW177499   2.427   5.508   9.098
58534SOL    HW277500   2.347   5.380   9.108
58535SOL     OW77501  10.748   8.712   8.209
58535SOL    HW177502  10.700   8.681   8.286
58535SOL    HW277503  10.809   8.777   8.243
58536SOL     OW77504  10.141   4.541   4.406
58536SOL    HW177505  10.119   4.561   4.315
58536SOL    HW277506  10.132   4.625   4.452
58537SOL     OW77507   1.259  13.547  13.101
58537SOL    HW177508   1.235  13.463  13.062
58537SOL    HW277509   1.316  13.588  13.036
58538SOL     OW77510   2.174  13.826   4.199
58538SOL    HW177511   2.090  13.856   4.162
58538SOL    HW277512   2.162  13.732   4.210
58539SOL     OW77513  12.494  13.763   0.084
58539SOL    HW177514  12.497  13.714   0.167
58539SOL    HW277515  12.441  13.840   0.104
58540SOL     OW77516   5.885   9.626   5.929
58540SOL    HW177517   5.965   9.642   5.979
58540SOL    HW277518   5.853   9.541   5.960
58541SOL     OW77519   1.497   1.553  10.696
58541SOL    HW177520   1.574   1.601  10.666
58541SOL    HW277521   1.531   1.493  10.763
58542SOL     OW77522  14.362   4.966  14.108
58542SOL    HW177523  14.309   4.936  14.034
58542SOL    HW277524  14.452   4.952  14.081
58543SOL     OW77525  14.261  11.497   4.636
58543SOL    HW177526  14.219  11.567   4.586
58543SOL    HW277527  14.243  11.418   4.584
58544SOL     OW77528   7.310   5.772   2.348
58544SOL    HW177529   7.330   5.822   2.269
58544SOL    HW277530   7.313   5.837   2.419
58545SOL     OW77531   3.482   5.305   0.635
58545SOL    HW177532   3.551   5.371   0.640
58545SOL    HW277533   3.465   5.282   0.726
58546SOL     OW77534   2.314   9.263   2.183
58546SOL    HW177535   2.346   9.175   2.204
58546SOL    HW277536   2.264   9.289   2.260
58547SOL     OW77537  14.199   8.195  13.619
58547SOL    HW177538  14.256   8.247  13.562
58547SOL    HW277539  14.115   8.191  13.574
58548SOL     OW77540   3.395   5.120  12.436
58548SOL    HW177541   3.477   5.072  12.446
58548SOL    HW277542   3.352   5.079  12.361
58549SOL     OW77543   6.885   2.654  11.584
58549SOL    HW177544   6.799   2.696  11.592
58549SOL    HW277545   6.915   2.643  11.674
58550SOL     OW77546   7.787   7.395  11.597
58550SOL    HW177547   7.816   7.479  11.632
58550SOL    HW277548   7.846   7.378  11.523
58551SOL     OW77549   4.743   7.779   0.868
58551SOL    HW177550   4.675   7.817   0.812
58551SOL    HW277551   4.731   7.822   0.953
58552SOL     OW77552  14.050   0.463   9.404
58552SOL    HW177553  14.075   0.380   9.446
58552SOL    HW277554  14.123   0.522   9.420
58553SOL     OW77555  14.610   9.778  12.904
58553SOL    HW177556  14.564   9.731  12.834
58553SOL    HW277557  14.547   9.780  12.976
58554SOL     OW77558   9.498   6.122   5.930
58554SOL    HW177559   9.461   6.070   5.859
58554SOL    HW277560   9.579   6.158   5.894
58555SOL     OW77561  13.525   6.091  12.325
58555SOL    HW177562  13.603   6.100  12.270
58555SOL    HW277563  13.516   5.996  12.338
58556SOL     OW77564  10.421   8.041  14.403
58556SOL    HW177565  10.432   8.057  14.309
58556SOL    HW277566  10.433   8.127  14.443
58557SOL     OW77567  13.843   3.644   7.434
58557SOL    HW177568  13.758   3.605   7.455
58557SOL    HW277569  13.880   3.587   7.366
58558SOL     OW77570   4.825   5.441  13.157
58558SOL    HW177571   4.767   5.512  13.131
58558SOL    HW277572   4.827   5.382  13.082
58559SOL     OW77573  10.980   7.179   2.525
58559SOL    HW177574  11.042   7.246   2.498
58559SOL    HW277575  10.939   7.214   2.604
58560SOL     OW77576  14.676   4.744  12.835
58560SOL    HW177577  14.664   4.806  12.907
58560SOL    HW277578  14.610   4.770  12.771
58561SOL     OW77579  12.347   9.322   3.077
58561SOL    HW177580  12.426   9.268   3.069
58561SOL    HW277581  12.347   9.350   3.169
58562SOL     OW77582   0.540   7.340   3.191
58562SOL    HW177583   0.482   7.274   3.154
58562SOL    HW277584   0.566   7.304   3.277
58563SOL     OW77585   2.473   0.154   7.868
58563SOL    HW177586   2.397   0.175   7.921
58563SOL    HW277587   2.438   0.140   7.780
58564SOL     OW77588  10.385   2.882   4.261
58564SOL    HW177589  10.383   2.975   4.240
58564SOL    HW277590  10.474   2.866   4.292
58565SOL     OW77591  14.733  13.605   1.809
58565SOL    HW177592  14.825  13.585   1.793
58565SOL    HW277593  14.690  13.592   1.725
58566SOL     OW77594  10.103  10.056   9.367
58566SOL    HW177595  10.053  10.130   9.401
58566SOL    HW277596  10.037   9.998   9.328
58567SOL     OW77597   6.299   5.394  12.783
58567SOL    HW177598   6.293   5.301  12.806
58567SOL    HW277599   6.354   5.395  12.705
58568SOL     OW77600   2.889   6.392   3.502
58568SOL    HW177601   2.805   6.394   3.456
58568SOL    HW277602   2.866   6.394   3.595
58569SOL     OW77603  11.142   5.787   1.644
58569SOL    HW177604  11.075   5.756   1.582
58569SOL    HW277605  11.200   5.840   1.590
58570SOL     OW77606   8.796   6.124  14.055
58570SOL    HW177607   8.850   6.099  13.981
58570SOL    HW277608   8.755   6.206  14.029
58571SOL     OW77609   3.644   5.133  10.248
58571SOL    HW177610   3.715   5.138  10.312
58571SOL    HW277611   3.590   5.210  10.265
58572SOL     OW77612  13.450  11.409   9.251
58572SOL    HW177613  13.442  11.370   9.339
58572SOL    HW277614  13.462  11.502   9.268
58573SOL     OW77615   7.508   5.067   6.594
58573SOL    HW177616   7.464   5.126   6.533
58573SOL    HW277617   7.463   5.081   6.678
58574SOL     OW77618  12.051   2.595  14.818
58574SOL    HW177619  12.139   2.590  14.855
58574SOL    HW277620  12.053   2.536  14.743
58575SOL     OW77621  12.424   2.692  10.022
58575SOL    HW177622  12.369   2.743  10.081
58575SOL    HW277623  12.503   2.672  10.073
58576SOL     OW77624  14.192  14.057   5.123
58576SOL    HW177625  14.119  14.113   5.097
58576SOL    HW277626  14.247  14.113   5.178
58577SOL     OW77627   5.449   5.040   0.328
58577SOL    HW177628   5.356   5.056   0.310
58577SOL    HW277629   5.452   5.017   0.421
58578SOL     OW77630  12.697   6.077  13.690
58578SOL    HW177631  12.750   6.155  13.673
58578SOL    HW277632  12.608   6.102  13.664
58579SOL     OW77633  14.737   3.592   0.725
58579SOL    HW177634  14.732   3.509   0.772
58579SOL    HW277635  14.647   3.611   0.701
58580SOL     OW77636   9.396  10.502   9.042
58580SOL    HW177637   9.432  10.435   9.101
58580SOL    HW277638   9.341  10.453   8.981
58581SOL     OW77639   2.583   9.338   7.690
58581SOL    HW177640   2.640   9.362   7.763
58581SOL    HW277641   2.544   9.255   7.716
58582SOL     OW77642  14.116   7.736   5.588
58582SOL    HW177643  14.112   7.828   5.562
58582SOL    HW277644  14.210   7.715   5.587
58583SOL     OW77645   4.610   9.124   9.169
58583SOL    HW177646   4.675   9.190   9.196
58583SOL    HW277647   4.647   9.041   9.198
58584SOL     OW77648   7.122   1.800   7.681
58584SOL    HW177649   7.049   1.744   7.652
58584SOL    HW277650   7.181   1.740   7.726
58585SOL     OW77651   7.999   2.007   9.824
58585SOL    HW177652   8.052   2.042   9.752
58585SOL    HW277653   7.959   1.928   9.787
58586SOL     OW77654  14.093   5.001   6.478
58586SOL    HW177655  14.137   4.942   6.540
58586SOL    HW277656  14.125   5.088   6.501
58587SOL     OW77657   8.047   7.543   0.083
58587SOL    HW177658   8.014   7.529   0.172
58587SOL    HW277659   8.126   7.490   0.079
58588SOL     OW77660   6.257  13.640  11.528
58588SOL    HW177661   6.309  13.719  11.543
58588SOL    HW277662   6.316  13.582  11.479
58589SOL     OW77663  13.551   7.105  12.330
58589SOL    HW177664  13.466   7.107  12.286
58589SOL    HW277665  13.536   7.056  12.410
58590SOL     OW77666   2.754   5.116   0.241
58590SOL    HW177667   2.849   5.107   0.233
58590SOL    HW277668   2.728   5.168   0.165
58591SOL     OW77669   3.204   0.696   8.617
58591SOL    HW177670   3.177   0.619   8.567
58591SOL    HW277671   3.280   0.667   8.667
58592SOL     OW77672  12.474  13.560   1.385
58592SOL    HW177673  12.438  13.544   1.472
58592SOL    HW277674  12.399  13.589   1.333
58593SOL     OW77675  11.949   8.527   2.412
58593SOL    HW177676  11.874   8.470   2.395
58593SOL    HW277677  12.022   8.466   2.427
58594SOL     OW77678   0.815   9.159  13.975
58594SOL    HW177679   0.820   9.065  13.957
58594SOL    HW277680   0.758   9.167  14.051
58595SOL     OW77681   8.693   6.839   5.565
58595SOL    HW177682   8.669   6.750   5.541
58595SOL    HW277683   8.704   6.836   5.660
58596SOL     OW77684   1.647  12.578   7.076
58596SOL    HW177685   1.664  12.508   7.140
58596SOL    HW277686   1.661  12.536   6.991
58597SOL     OW77687   2.598  12.112   7.783
58597SOL    HW177688   2.662  12.132   7.715
58597SOL    HW277689   2.559  12.197   7.805
58598SOL     OW77690   3.443   1.028   3.828
58598SOL    HW177691   3.487   1.113   3.826
58598SOL    HW277692   3.377   1.034   3.759
58599SOL     OW77693   6.667   5.994   2.065
58599SOL    HW177694   6.747   5.952   2.096
58599SOL    HW277695   6.632   6.038   2.143
58600SOL     OW77696  12.346   0.465   4.022
58600SOL    HW177697  12.337   0.478   4.117
58600SOL    HW277698  12.283   0.525   3.984
58601SOL     OW77699   7.162   8.700   6.244
58601SOL    HW177700   7.129   8.653   6.321
58601SOL    HW277701   7.097   8.684   6.177
58602SOL     OW77702  11.506   5.012   2.839
58602SOL    HW177703  11.427   4.997   2.890
58602SOL    HW277704  11.577   5.005   2.903
58603SOL     OW77705   0.329   7.996  14.412
58603SOL    HW177706   0.399   8.029  14.468
58603SOL    HW277707   0.352   8.026  14.324
58604SOL     OW77708   9.429   4.671  12.530
58604SOL    HW177709   9.418   4.627  12.614
58604SOL    HW277710   9.493   4.741  12.547
58605SOL     OW77711   3.149   3.738   6.414
58605SOL    HW177712   3.229   3.687   6.403
58605SOL    HW277713   3.089   3.703   6.348
58606SOL     OW77714   7.764   3.091   5.405
58606SOL    HW177715   7.817   3.153   5.454
58606SOL    HW277716   7.826   3.025   5.374
58607SOL     OW77717   8.116   0.297  14.692
58607SOL    HW177718   8.033   0.322  14.650
58607SOL    HW277719   8.092   0.226  14.752
58608SOL     OW77720   4.155   9.363   2.361
58608SOL    HW177721   4.129   9.272   2.357
58608SOL    HW277722   4.204   9.371   2.443
58609SOL     OW77723  14.177   6.362  10.407
58609SOL    HW177724  14.256   6.333  10.452
58609SOL    HW277725  14.140   6.283  10.369
58610SOL     OW77726   1.760   1.162   9.171
58610SOL    HW177727   1.706   1.239   9.159
58610SOL    HW277728   1.847   1.197   9.190
58611SOL     OW77729  12.873  14.386   8.786
58611SOL    HW177730  12.789  14.400   8.742
58611SOL    HW277731  12.874  14.293   8.805
58612SOL     OW77732   1.282   8.026   9.584
58612SOL    HW177733   1.315   8.111   9.613
58612SOL    HW277734   1.218   8.048   9.516
58613SOL     OW77735   0.726   7.711  11.860
58613SOL    HW177736   0.788   7.782  11.843
58613SOL    HW277737   0.660   7.720  11.791
58614SOL     OW77738   1.972   8.123  12.616
58614SOL    HW177739   1.978   8.082  12.530
58614SOL    HW277740   2.050   8.092  12.662
58615SOL     OW77741   2.620  12.328   4.062
58615SOL    HW177742   2.644  12.421   4.060
58615SOL    HW277743   2.598  12.307   3.971
58616SOL     OW77744   9.821   8.567  12.795
58616SOL    HW177745   9.893   8.629  12.806
58616SOL    HW277746   9.757   8.614  12.741
58617SOL     OW77747   8.148  14.000  12.726
58617SOL    HW177748   8.070  13.999  12.782
58617SOL    HW277749   8.220  13.976  12.786
58618SOL     OW77750   9.897  10.830   9.127
58618SOL    HW177751   9.957  10.819   9.053
58618SOL    HW277752   9.812  10.804   9.092
58619SOL     OW77753   7.949   5.163  10.742
58619SOL    HW177754   7.916   5.242  10.699
58619SOL    HW277755   7.929   5.176  10.834
58620SOL     OW77756   7.522   4.940  14.714
58620SOL    HW177757   7.530   4.940  14.809
58620SOL    HW277758   7.493   5.029  14.693
58621SOL     OW77759   0.072  13.166   6.472
58621SOL    HW177760   0.070  13.151   6.567
58621SOL    HW277761  14.857  13.204   6.452
58622SOL     OW77762  12.058  11.463   9.058
58622SOL    HW177763  11.978  11.500   9.022
58622SOL    HW277764  12.080  11.521   9.131
58623SOL     OW77765   8.262   8.076   5.672
58623SOL    HW177766   8.252   7.982   5.683
58623SOL    HW277767   8.209   8.114   5.742
58624SOL     OW77768   6.873   1.236   5.431
58624SOL    HW177769   6.814   1.187   5.374
58624SOL    HW277770   6.816   1.296   5.479
58625SOL     OW77771  14.709  12.389   6.644
58625SOL    HW177772  14.767  12.336   6.698
58625SOL    HW277773  14.728  12.479   6.670
58626SOL     OW77774   4.911   3.284  10.251
58626SOL    HW177775   4.851   3.359  10.243
58626SOL    HW277776   4.984   3.318  10.302
58627SOL     OW77777   6.062   5.501   1.374
58627SOL    HW177778   6.010   5.572   1.335
58627SOL    HW277779   6.036   5.423   1.325
58628SOL     OW77780   8.552   3.030   8.145
58628SOL    HW177781   8.510   3.057   8.227
58628SOL    HW277782   8.499   2.956   8.115
58629SOL     OW77783   5.486  10.720  11.090
58629SOL    HW177784   5.394  10.745  11.086
58629SOL    HW277785   5.494  10.669  11.170
58630SOL     OW77786   1.960   3.733   6.514
58630SOL    HW177787   2.044   3.702   6.548
58630SOL    HW277788   1.907   3.653   6.504
58631SOL     OW77789   4.541   8.922   4.364
58631SOL    HW177790   4.485   8.857   4.321
58631SOL    HW277791   4.628   8.906   4.326
58632SOL     OW77792   3.341  12.217   6.300
58632SOL    HW177793   3.361  12.299   6.256
58632SOL    HW277794   3.265  12.238   6.355
58633SOL     OW77795   6.401  14.043   7.866
58633SOL    HW177796   6.434  14.036   7.955
58633SOL    HW277797   6.407  14.136   7.844
58634SOL     OW77798   4.947   6.858   0.727
58634SOL    HW177799   5.008   6.915   0.680
58634SOL    HW277800   4.869   6.912   0.738
58635SOL     OW77801   9.244   4.255  10.536
58635SOL    HW177802   9.158   4.244  10.578
58635SOL    HW277803   9.276   4.166  10.524
58636SOL     OW77804   3.733  10.205   6.249
58636SOL    HW177805   3.667  10.255   6.201
58636SOL    HW277806   3.718  10.114   6.223
58637SOL     OW77807   2.164  13.268   4.520
58637SOL    HW177808   2.141  13.361   4.522
58637SOL    HW277809   2.191  13.248   4.610
58638SOL     OW77810  10.018  14.374   4.089
58638SOL    HW177811  10.100  14.383   4.041
58638SOL    HW277812  10.041  14.397   4.180
58639SOL     OW77813  10.854   2.795  10.728
58639SOL    HW177814  10.933   2.773  10.678
58639SOL    HW277815  10.823   2.711  10.760
58640SOL     OW77816  14.193  14.808  11.985
58640SOL    HW177817  14.221  14.825  12.075
58640SOL    HW277818  14.107  14.767  11.993
58641SOL     OW77819   6.695   4.755   1.097
58641SOL    HW177820   6.672   4.847   1.103
58641SOL    HW277821   6.620   4.709   1.135
58642SOL     OW77822   5.109   0.326  10.901
58642SOL    HW177823   5.020   0.311  10.932
58642SOL    HW277824   5.162   0.262  10.948
58643SOL     OW77825   3.351   2.976   3.920
58643SOL    HW177826   3.258   2.984   3.898
58643SOL    HW277827   3.353   2.975   4.016
58644SOL     OW77828   7.193   3.616   3.400
58644SOL    HW177829   7.278   3.588   3.367
58644SOL    HW277830   7.186   3.708   3.375
58645SOL     OW77831   9.787   7.598   3.455
58645SOL    HW177832   9.871   7.578   3.496
58645SOL    HW277833   9.754   7.674   3.503
58646SOL     OW77834   8.798  14.247   7.488
58646SOL    HW177835   8.809  14.206   7.574
58646SOL    HW277836   8.723  14.306   7.498
58647SOL     OW77837  14.125   7.282  13.186
58647SOL    HW177838  14.080   7.318  13.109
58647SOL    HW277839  14.218   7.291  13.166
58648SOL     OW77840   6.538   4.336  14.507
58648SOL    HW177841   6.584   4.254  14.491
58648SOL    HW277842   6.551   4.387  14.427
58649SOL     OW77843  14.533  14.325   1.874
58649SOL    HW177844  14.564  14.237   1.892
58649SOL    HW277845  14.584  14.353   1.797
58650SOL     OW77846   7.448  12.228   6.937
58650SOL    HW177847   7.476  12.315   6.963
58650SOL    HW277848   7.476  12.171   7.010
58651SOL     OW77849   3.491  12.735   9.499
58651SOL    HW177850   3.532  12.672   9.439
58651SOL    HW277851   3.545  12.814   9.491
58652SOL     OW77852   3.883   8.742   4.307
58652SOL    HW177853   3.950   8.683   4.271
58652SOL    HW277854   3.807   8.728   4.251
58653SOL     OW77855   4.590   8.808   0.556
58653SOL    HW177856   4.496   8.824   0.550
58653SOL    HW277857   4.606   8.736   0.495
58654SOL     OW77858  12.025  14.846   4.161
58654SOL    HW177859  12.081   0.047   4.133
58654SOL    HW277860  11.938  14.870   4.131
58655SOL     OW77861   1.541  14.161   7.978
58655SOL    HW177862   1.589  14.206   7.909
58655SOL    HW277863   1.607  14.143   8.045
58656SOL     OW77864   5.205   5.784  13.748
58656SOL    HW177865   5.188   5.747  13.661
58656SOL    HW277866   5.121   5.777  13.794
58657SOL     OW77867  13.628   6.769   6.827
58657SOL    HW177868  13.631   6.775   6.922
58657SOL    HW277869  13.699   6.708   6.805
58658SOL     OW77870  12.670  11.702   9.828
58658SOL    HW177871  12.746  11.679   9.774
58658SOL    HW277872  12.607  11.633   9.811
58659SOL     OW77873  10.449   9.663   8.307
58659SOL    HW177874  10.503   9.728   8.352
58659SOL    HW277875  10.360   9.698   8.312
58660SOL     OW77876   8.503   2.080   5.485
58660SOL    HW177877   8.485   2.050   5.395
58660SOL    HW277878   8.434   2.040   5.537
58661SOL     OW77879   7.858   6.262   3.414
58661SOL    HW177880   7.949   6.261   3.443
58661SOL    HW277881   7.862   6.286   3.321
58662SOL     OW77882  11.861   7.573  11.389
58662SOL    HW177883  11.906   7.644  11.344
58662SOL    HW277884  11.878   7.495  11.335
58663SOL     OW77885   3.727  10.601  11.825
58663SOL    HW177886   3.705  10.509  11.815
58663SOL    HW277887   3.807  10.602  11.877
58664SOL     OW77888   2.898   4.921   2.709
58664SOL    HW177889   2.820   4.887   2.664
58664SOL    HW277890   2.876   5.011   2.730
58665SOL     OW77891   1.132  10.488  12.380
58665SOL    HW177892   1.218  10.519  12.407
58665SOL    HW277893   1.100  10.438  12.456
58666SOL     OW77894   2.561   4.478   4.879
58666SOL    HW177895   2.483   4.513   4.923
58666SOL    HW277896   2.530   4.458   4.790
58667SOL     OW77897   1.321  13.784   5.982
58667SOL    HW177898   1.349  13.825   6.064
58667SOL    HW277899   1.265  13.850   5.940
58668SOL     OW77900  10.072   8.397  10.668
58668SOL    HW177901  10.044   8.318  10.620
58668SOL    HW277902  10.167   8.394  10.666
58669SOL     OW77903   5.739  10.077   8.861
58669SOL    HW177904   5.747  10.004   8.923
58669SOL    HW277905   5.738  10.155   8.916
58670SOL     OW77906   6.497   0.559   0.448
58670SOL    HW177907   6.551   0.572   0.370
58670SOL    HW277908   6.422   0.617   0.436
58671SOL     OW77909   2.359   3.430   4.906
58671SOL    HW177910   2.416   3.409   4.833
58671SOL    HW277911   2.391   3.376   4.978
58672SOL     OW77912   1.170   4.411   3.419
58672SOL    HW177913   1.086   4.371   3.395
58672SOL    HW277914   1.155   4.447   3.507
58673SOL     OW77915   5.631   4.239   3.847
58673SOL    HW177916   5.628   4.172   3.916
58673SOL    HW277917   5.551   4.225   3.796
58674SOL     OW77918  14.072   1.948   7.089
58674SOL    HW177919  14.002   2.007   7.120
58674SOL    HW277920  14.142   2.007   7.063
58675SOL     OW77921   6.799   7.483  10.264
58675SOL    HW177922   6.750   7.526  10.194
58675SOL    HW277923   6.778   7.390  10.254
58676SOL     OW77924   4.845  10.961  12.960
58676SOL    HW177925   4.775  11.000  12.906
58676SOL    HW277926   4.903  11.034  12.981
58677SOL     OW77927  13.877   0.099   2.052
58677SOL    HW177928  13.876   0.018   2.102
58677SOL    HW277929  13.920   0.163   2.109
58678SOL     OW77930   0.876  13.543  12.544
58678SOL    HW177931   0.791  13.582  12.524
58678SOL    HW277932   0.875  13.458  12.501
58679SOL     OW77933   0.980   8.432   8.267
58679SOL    HW177934   1.072   8.453   8.248
58679SOL    HW277935   0.983   8.388   8.352
58680SOL     OW77936   5.826  11.737   0.585
58680SOL    HW177937   5.900  11.687   0.550
58680SOL    HW277938   5.836  11.732   0.680
58681SOL     OW77939  11.308   2.322  13.087
58681SOL    HW177940  11.325   2.231  13.062
58681SOL    HW277941  11.394   2.359  13.104
58682SOL     OW77942   9.436   9.755   9.996
58682SOL    HW177943   9.493   9.807  10.052
58682SOL    HW277944   9.491   9.729   9.922
58683SOL     OW77945   3.788   6.622   3.625
58683SOL    HW177946   3.793   6.540   3.674
58683SOL    HW277947   3.864   6.672   3.655
58684SOL     OW77948   8.581   3.629  11.184
58684SOL    HW177949   8.505   3.579  11.214
58684SOL    HW277950   8.553   3.721  11.189
58685SOL     OW77951   4.847   1.165  12.841
58685SOL    HW177952   4.758   1.139  12.816
58685SOL    HW277953   4.904   1.119  12.779
58686SOL     OW77954   9.002  12.092   5.989
58686SOL    HW177955   9.040  12.051   5.911
58686SOL    HW277956   9.023  12.031   6.061
58687SOL     OW77957   3.974   6.709   1.500
58687SOL    HW177958   4.022   6.778   1.455
58687SOL    HW277959   4.039   6.668   1.557
58688SOL     OW77960   1.365  11.681  12.767
58688SOL    HW177961   1.388  11.690  12.675
58688SOL    HW277962   1.343  11.770  12.795
58689SOL     OW77963  10.908   2.627  12.982
58689SOL    HW177964  10.850   2.556  12.957
58689SOL    HW277965  10.865   2.667  13.058
58690SOL     OW77966  13.027  10.614   7.085
58690SOL    HW177967  13.002  10.676   7.016
58690SOL    HW277968  13.075  10.668   7.149
58691SOL     OW77969   3.391   9.753   0.533
58691SOL    HW177970   3.462   9.689   0.526
58691SOL    HW277971   3.342   9.725   0.610
58692SOL     OW77972   8.832   4.728  12.649
58692SOL    HW177973   8.857   4.707  12.559
58692SOL    HW277974   8.740   4.702  12.656
58693SOL     OW77975   2.928   7.864   3.693
58693SOL    HW177976   2.892   7.864   3.782
58693SOL    HW277977   2.852   7.876   3.636
58694SOL     OW77978  14.044  13.059  10.775
58694SOL    HW177979  14.030  13.153  10.787
58694SOL    HW277980  14.121  13.053  10.718
58695SOL     OW77981   3.816  12.661   2.413
58695SOL    HW177982   3.757  12.599   2.371
58695SOL    HW277983   3.882  12.607   2.455
58696SOL     OW77984   7.117   5.876   0.488
58696SOL    HW177985   7.136   5.969   0.473
58696SOL    HW277986   7.117   5.838   0.400
58697SOL     OW77987   0.681   2.294  12.189
58697SOL    HW177988   0.668   2.303  12.284
58697SOL    HW277989   0.623   2.360  12.151
58698SOL     OW77990   9.692  12.062   1.320
58698SOL    HW177991   9.620  12.060   1.257
58698SOL    HW277992   9.661  12.117   1.391
58699SOL     OW77993  14.614   1.437  14.194
58699SOL    HW177994  14.689   1.381  14.174
58699SOL    HW277995  14.600   1.425  14.288
58700SOL     OW77996  11.574  13.260   5.760
58700SOL    HW177997  11.539  13.171   5.765
58700SOL    HW277998  11.599  13.281   5.850
58701SOL     OW77999  11.940  10.589  14.640
58701SOL    HW178000  11.992  10.658  14.599
58701SOL    HW278001  11.929  10.617  14.730
58702SOL     OW78002   5.175   4.108   4.576
58702SOL    HW178003   5.213   4.020   4.586
58702SOL    HW278004   5.106   4.112   4.642
58703SOL     OW78005   5.851   2.507  11.051
58703SOL    HW178006   5.927   2.480  11.103
58703SOL    HW278007   5.842   2.601  11.068
58704SOL     OW78008   5.615   3.979   2.193
58704SOL    HW178009   5.596   4.032   2.271
58704SOL    HW278010   5.565   4.020   2.123
58705SOL     OW78011   9.537   8.922  12.948
58705SOL    HW178012   9.492   8.952  12.870
58705SOL    HW278013   9.554   8.829  12.932
58706SOL     OW78014  12.368   9.467  14.850
58706SOL    HW178015  12.299   9.417   0.023
58706SOL    HW278016  12.321   9.534  14.800
58707SOL     OW78017  10.033   8.850   9.206
58707SOL    HW178018   9.958   8.878   9.154
58707SOL    HW278019  10.080   8.930   9.227
58708SOL     OW78020  12.392   1.541  11.103
58708SOL    HW178021  12.378   1.499  11.019
58708SOL    HW278022  12.324   1.608  11.108
58709SOL     OW78023   3.966   4.951   6.206
58709SOL    HW178024   3.963   4.910   6.293
58709SOL    HW278025   4.037   4.906   6.160
58710SOL     OW78026  14.359   4.105   5.811
58710SOL    HW178027  14.345   4.195   5.839
58710SOL    HW278028  14.330   4.052   5.885
58711SOL     OW78029   7.972   8.394   8.854
58711SOL    HW178030   8.016   8.406   8.938
58711SOL    HW278031   7.899   8.335   8.873
58712SOL     OW78032   6.013   0.145   3.740
58712SOL    HW178033   5.992   0.098   3.821
58712SOL    HW278034   5.963   0.099   3.672
58713SOL     OW78035   4.892   9.077   8.999
58713SOL    HW178036   4.969   9.038   8.958
58713SOL    HW278037   4.906   9.064   9.093
58714SOL     OW78038   6.930  11.216  13.858
58714SOL    HW178039   6.933  11.250  13.769
58714SOL    HW278040   6.959  11.290  13.913
58715SOL     OW78041  11.477   9.312  14.537
58715SOL    HW178042  11.519   9.263  14.607
58715SOL    HW278043  11.425   9.379  14.583
58716SOL     OW78044   5.345   4.713   9.521
58716SOL    HW178045   5.426   4.729   9.472
58716SOL    HW278046   5.342   4.783   9.586
58717SOL     OW78047   3.280   5.394   7.238
58717SOL    HW178048   3.195   5.418   7.276
58717SOL    HW278049   3.341   5.398   7.312
58718SOL     OW78050   9.160  14.727   1.147
58718SOL    HW178051   9.193  14.638   1.156
58718SOL    HW278052   9.204  14.762   1.070
58719SOL     OW78053   0.565   7.312   5.063
58719SOL    HW178054   0.617   7.232   5.060
58719SOL    HW278055   0.627   7.382   5.045
58720SOL     OW78056   4.739   7.242  14.192
58720SOL    HW178057   4.694   7.319  14.157
58720SOL    HW278058   4.669   7.178  14.209
58721SOL     OW78059   5.008   0.449   2.584
58721SOL    HW178060   5.053   0.459   2.668
58721SOL    HW278061   5.077   0.423   2.523
58722SOL     OW78062   3.773  10.134   8.251
58722SOL    HW178063   3.791  10.217   8.294
58722SOL    HW278064   3.846  10.077   8.277
58723SOL     OW78065   9.464   9.405   4.933
58723SOL    HW178066   9.396   9.434   4.994
58723SOL    HW278067   9.504   9.485   4.900
58724SOL     OW78068  10.672   7.576   1.128
58724SOL    HW178069  10.676   7.488   1.167
58724SOL    HW278070  10.763   7.603   1.121
58725SOL     OW78071   6.662   7.875   2.947
58725SOL    HW178072   6.649   7.873   2.852
58725SOL    HW278073   6.718   7.800   2.965
58726SOL     OW78074  12.874   9.409   3.521
58726SOL    HW178075  12.887   9.373   3.433
58726SOL    HW278076  12.930   9.487   3.523
58727SOL     OW78077  14.247   6.146  11.197
58727SOL    HW178078  14.245   6.054  11.224
58727SOL    HW278079  14.162   6.181  11.226
58728SOL     OW78080   6.758  10.674   2.348
58728SOL    HW178081   6.807  10.747   2.309
58728SOL    HW278082   6.729  10.622   2.274
58729SOL     OW78083   3.113   2.373  11.190
58729SOL    HW178084   3.174   2.341  11.125
58729SOL    HW278085   3.046   2.305  11.196
58730SOL     OW78086  12.558  10.074   6.467
58730SOL    HW178087  12.514  10.042   6.546
58730SOL    HW278088  12.505  10.042   6.394
58731SOL     OW78089   8.087  13.968   2.538
58731SOL    HW178090   8.120  13.884   2.571
58731SOL    HW278091   8.162  14.027   2.543
58732SOL     OW78092   4.567  13.767   9.701
58732SOL    HW178093   4.551  13.827   9.774
58732SOL    HW278094   4.574  13.681   9.743
58733SOL     OW78095   9.755   4.952   4.052
58733SOL    HW178096   9.783   4.864   4.025
58733SOL    HW278097   9.791   5.010   3.985
58734SOL     OW78098   7.853   3.075   9.442
58734SOL    HW178099   7.766   3.106   9.468
58734SOL    HW278100   7.842   3.045   9.352
58735SOL     OW78101   3.899  10.782  14.191
58735SOL    HW178102   3.837  10.725  14.146
58735SOL    HW278103   3.985  10.751  14.162
58736SOL     OW78104  14.192   9.841   6.559
58736SOL    HW178105  14.275   9.835   6.606
58736SOL    HW278106  14.136   9.776   6.601
58737SOL     OW78107   3.891   2.472  10.992
58737SOL    HW178108   3.890   2.563  11.022
58737SOL    HW278109   3.859   2.422  11.068
58738SOL     OW78110   2.696  10.996  12.250
58738SOL    HW178111   2.767  10.938  12.277
58738SOL    HW278112   2.660  10.955  12.171
58739SOL     OW78113   0.087   3.145   7.126
58739SOL    HW178114   0.088   3.060   7.083
58739SOL    HW278115   0.006   3.186   7.095
58740SOL     OW78116   2.595   8.282  11.176
58740SOL    HW178117   2.598   8.374  11.150
58740SOL    HW278118   2.508   8.252  11.148
58741SOL     OW78119  12.632  11.111  13.061
58741SOL    HW178120  12.555  11.120  13.117
58741SOL    HW278121  12.701  11.158  13.108
58742SOL     OW78122   7.911  14.583  14.777
58742SOL    HW178123   7.863  14.606  14.857
58742SOL    HW278124   7.858  14.515  14.736
58743SOL     OW78125  10.944   5.692   0.476
58743SOL    HW178126  10.939   5.725   0.386
58743SOL    HW278127  10.920   5.599   0.469
58744SOL     OW78128   3.081   7.309  10.708
58744SOL    HW178129   3.119   7.380  10.760
58744SOL    HW278130   3.035   7.354  10.637
58745SOL     OW78131   2.235  12.335   7.777
58745SOL    HW178132   2.300  12.394   7.738
58745SOL    HW278133   2.246  12.346   7.871
58746SOL     OW78134   4.658  11.657   9.213
58746SOL    HW178135   4.751  11.666   9.194
58746SOL    HW278136   4.653  11.590   9.281
58747SOL     OW78137  14.033  11.837  10.697
58747SOL    HW178138  14.117  11.875  10.670
58747SOL    HW278139  14.012  11.879  10.780
58748SOL     OW78140   5.525   9.127   7.484
58748SOL    HW178141   5.497   9.043   7.447
58748SOL    HW278142   5.614   9.139   7.450
58749SOL     OW78143   1.912   2.703  13.314
58749SOL    HW178144   1.922   2.758  13.392
58749SOL    HW278145   1.922   2.614  13.346
58750SOL     OW78146  10.150  14.066   6.887
58750SOL    HW178147  10.102  14.128   6.831
58750SOL    HW278148  10.146  13.983   6.840
58751SOL     OW78149   2.769   6.775  10.023
58751SOL    HW178150   2.747   6.732   9.940
58751SOL    HW278151   2.685   6.811  10.054
58752SOL     OW78152  12.000   1.050  13.151
58752SOL    HW178153  12.008   1.122  13.214
58752SOL    HW278154  11.981   1.093  13.068
58753SOL     OW78155  13.149   7.496  11.943
58753SOL    HW178156  13.070   7.534  11.905
58753SOL    HW278157  13.217   7.560  11.925
58754SOL     OW78158   2.279  12.838   1.998
58754SOL    HW178159   2.298  12.871   1.910
58754SOL    HW278160   2.293  12.914   2.055
58755SOL     OW78161   0.278   3.287   7.275
58755SOL    HW178162   0.225   3.220   7.232
58755SOL    HW278163   0.361   3.286   7.227
58756SOL     OW78164  14.626  14.064   1.960
58756SOL    HW178165  14.656  13.990   2.013
58756SOL    HW278166  14.579  14.023   1.888
58757SOL     OW78167  10.376   3.660  12.039
58757SOL    HW178168  10.463   3.638  12.072
58757SOL    HW278169  10.392   3.708  11.958
58758SOL     OW78170   1.173   5.264  11.399
58758SOL    HW178171   1.111   5.194  11.380
58758SOL    HW278172   1.129   5.343  11.367
58759SOL     OW78173   9.730  12.039  14.257
58759SOL    HW178174   9.809  12.053  14.310
58759SOL    HW278175   9.660  12.025  14.320
58760SOL     OW78176   7.204   2.545   0.280
58760SOL    HW178177   7.206   2.598   0.360
58760SOL    HW278178   7.195   2.608   0.209
58761SOL     OW78179  13.287   1.459  13.823
58761SOL    HW178180  13.233   1.427  13.752
58761SOL    HW278181  13.375   1.464  13.785
58762SOL     OW78182  12.696   9.930   3.944
58762SOL    HW178183  12.722   9.865   4.009
58762SOL    HW278184  12.681  10.010   3.995
58763SOL     OW78185   9.278  12.846  12.161
58763SOL    HW178186   9.235  12.929  12.182
58763SOL    HW278187   9.252  12.787  12.231
58764SOL     OW78188   4.276   5.250   4.943
58764SOL    HW178189   4.206   5.304   4.980
58764SOL    HW278190   4.302   5.192   5.014
58765SOL     OW78191   9.102   1.002  14.788
58765SOL    HW178192   9.125   0.914  14.818
58765SOL    HW278193   9.184   1.052  14.795
58766SOL     OW78194   9.151   4.894  14.131
58766SOL    HW178195   9.144   4.967  14.192
58766SOL    HW278196   9.076   4.906  14.072
58767SOL     OW78197   5.582  10.794   7.701
58767SOL    HW178198   5.598  10.740   7.624
58767SOL    HW278199   5.487  10.788   7.716
58768SOL     OW78200   5.648   1.647   2.374
58768SOL    HW178201   5.655   1.741   2.393
58768SOL    HW278202   5.556   1.635   2.349
58769SOL     OW78203   2.333   8.278  14.869
58769SOL    HW178204   2.302   8.295  14.780
58769SOL    HW278205   2.302   8.189   0.016
58770SOL     OW78206  11.663   8.947   4.165
58770SOL    HW178207  11.709   9.003   4.228
58770SOL    HW278208  11.695   8.977   4.080
58771SOL     OW78209   2.304   4.047  10.966
58771SOL    HW178210   2.300   4.093  11.050
58771SOL    HW278211   2.387   3.998  10.970
58772SOL     OW78212   9.008   3.600  14.154
58772SOL    HW178213   8.997   3.515  14.113
58772SOL    HW278214   8.934   3.608  14.214
58773SOL     OW78215   5.544  12.254   4.474
58773SOL    HW178216   5.636  12.279   4.469
58773SOL    HW278217   5.497  12.336   4.486
58774SOL     OW78218   9.158   4.596   0.606
58774SOL    HW178219   9.189   4.628   0.522
58774SOL    HW278220   9.237   4.577   0.656
58775SOL     OW78221  11.375   9.490   3.084
58775SOL    HW178222  11.334   9.405   3.101
58775SOL    HW278223  11.438   9.502   3.155
58776SOL     OW78224   6.783   5.436  13.742
58776SOL    HW178225   6.716   5.496  13.708
58776SOL    HW278226   6.851   5.435  13.675
58777SOL     OW78227  13.202  14.309  12.602
58777SOL    HW178228  13.231  14.310  12.510
58777SOL    HW278229  13.126  14.367  12.603
58778SOL     OW78230   8.393   4.227  14.227
58778SOL    HW178231   8.442   4.309  14.231
58778SOL    HW278232   8.302   4.253  14.228
58779SOL     OW78233  13.661  11.602   9.345
58779SOL    HW178234  13.720  11.633   9.415
58779SOL    HW278235  13.573  11.623   9.377
58780SOL     OW78236   0.487  10.855   8.895
58780SOL    HW178237   0.489  10.945   8.928
58780SOL    HW278238   0.426  10.810   8.954
58781SOL     OW78239   5.880   3.996   4.179
58781SOL    HW178240   5.968   3.960   4.178
58781SOL    HW278241   5.837   3.951   4.252
58782SOL     OW78242   2.563   4.020   5.262
58782SOL    HW178243   2.480   4.007   5.309
58782SOL    HW278244   2.569   4.115   5.250
58783SOL     OW78245   1.942   3.061   9.665
58783SOL    HW178246   2.006   3.121   9.705
58783SOL    HW278247   1.916   3.003   9.736
58784SOL     OW78248   1.372   1.601  13.858
58784SOL    HW178249   1.308   1.568  13.921
58784SOL    HW278250   1.444   1.633  13.912
58785SOL     OW78251   7.237   5.169   7.496
58785SOL    HW178252   7.333   5.170   7.498
58785SOL    HW278253   7.213   5.082   7.526
58786SOL     OW78254  14.865   8.318   7.004
58786SOL    HW178255   0.014   8.237   7.052
58786SOL    HW278256  14.851   8.290   6.914
58787SOL     OW78257   8.363   0.889   6.073
58787SOL    HW178258   8.356   0.978   6.109
58787SOL    HW278259   8.457   0.874   6.066
58788SOL     OW78260   4.871  13.179  11.939
58788SOL    HW178261   4.952  13.205  11.983
58788SOL    HW278262   4.876  13.084  11.935
58789SOL     OW78263   3.666   7.999   9.857
58789SOL    HW178264   3.759   8.019   9.869
58789SOL    HW278265   3.621   8.079   9.884
58790SOL     OW78266   8.607   0.479   7.518
58790SOL    HW178267   8.583   0.467   7.426
58790SOL    HW278268   8.687   0.531   7.516
58791SOL     OW78269   2.901  10.880   8.865
58791SOL    HW178270   2.880  10.829   8.943
58791SOL    HW278271   2.990  10.913   8.881
58792SOL     OW78272  14.795   9.632  12.453
58792SOL    HW178273  14.843   9.675  12.524
58792SOL    HW278274  14.849   9.646  12.375
58793SOL     OW78275   7.294   4.786  14.758
58793SOL    HW178276   7.332   4.804  14.844
58793SOL    HW278277   7.356   4.822  14.695
58794SOL     OW78278   4.660  10.275   9.093
58794SOL    HW178279   4.739  10.222   9.076
58794SOL    HW278280   4.692  10.350   9.143
58795SOL     OW78281   7.632  13.338  10.360
58795SOL    HW178282   7.616  13.382  10.444
58795SOL    HW278283   7.663  13.408  10.302
58796SOL     OW78284   6.121   2.683  10.799
58796SOL    HW178285   6.203   2.682  10.848
58796SOL    HW278286   6.065   2.620  10.844
58797SOL     OW78287   5.421   6.477  11.779
58797SOL    HW178288   5.388   6.428  11.854
58797SOL    HW278289   5.373   6.560  11.781
58798SOL     OW78290   9.304   7.865  12.640
58798SOL    HW178291   9.363   7.820  12.580
58798SOL    HW278292   9.258   7.929  12.585
58799SOL     OW78293  12.156   3.236   3.179
58799SOL    HW178294  12.137   3.144   3.197
58799SOL    HW278295  12.237   3.253   3.227
58800SOL     OW78296  13.444  14.473   8.251
58800SOL    HW178297  13.538  14.475   8.267
58800SOL    HW278298  13.411  14.407   8.312
58801SOL     OW78299  10.877   4.814   6.828
58801SOL    HW178300  10.967   4.844   6.843
58801SOL    HW278301  10.875   4.789   6.736
58802SOL     OW78302   5.328   7.901   3.008
58802SOL    HW178303   5.423   7.916   3.012
58802SOL    HW278304   5.291   7.969   3.065
58803SOL     OW78305  13.538  12.817   7.573
58803SOL    HW178306  13.624  12.776   7.562
58803SOL    HW278307  13.539  12.891   7.512
58804SOL     OW78308   9.851   3.957   2.394
58804SOL    HW178309   9.812   3.932   2.478
58804SOL    HW278310   9.776   3.972   2.337
58805SOL     OW78311   6.249   5.899  14.442
58805SOL    HW178312   6.273   5.810  14.415
58805SOL    HW278313   6.223   5.942  14.361
58806SOL     OW78314   0.972  12.552   4.465
58806SOL    HW178315   0.886  12.585   4.437
58806SOL    HW278316   1.023  12.631   4.483
58807SOL     OW78317   8.919   8.315   2.109
58807SOL    HW178318   8.962   8.353   2.184
58807SOL    HW278319   8.885   8.231   2.140
58808SOL     OW78320   0.847  12.659   7.481
58808SOL    HW178321   0.934  12.697   7.465
58808SOL    HW278322   0.846  12.579   7.427
58809SOL     OW78323   3.423  14.072  11.120
58809SOL    HW178324   3.389  14.001  11.174
58809SOL    HW278325   3.421  14.037  11.031
58810SOL     OW78326  12.633   1.380   3.994
58810SOL    HW178327  12.667   1.295   3.967
58810SOL    HW278328  12.705   1.441   3.980
58811SOL     OW78329   9.552   1.949   6.586
58811SOL    HW178330   9.507   1.883   6.532
58811SOL    HW278331   9.614   1.898   6.639
58812SOL     OW78332   6.944  14.467   6.507
58812SOL    HW178333   6.902  14.412   6.574
58812SOL    HW278334   6.896  14.550   6.511
58813SOL     OW78335  12.185   3.203   8.690
58813SOL    HW178336  12.252   3.170   8.629
58813SOL    HW278337  12.104   3.158   8.662
58814SOL     OW78338  13.360   7.064  11.760
58814SOL    HW178339  13.273   7.027  11.778
58814SOL    HW278340  13.353   7.155  11.789
58815SOL     OW78341  14.069   8.359   3.658
58815SOL    HW178342  14.045   8.405   3.739
58815SOL    HW278343  14.137   8.298   3.685
58816SOL     OW78344   4.797  12.623   0.971
58816SOL    HW178345   4.746  12.704   0.963
58816SOL    HW278346   4.741  12.556   0.932
58817SOL     OW78347  14.023  12.455   7.542
58817SOL    HW178348  14.079  12.402   7.486
58817SOL    HW278349  13.963  12.392   7.583
58818SOL     OW78350  10.295   5.532   6.876
58818SOL    HW178351  10.326   5.602   6.820
58818SOL    HW278352  10.220   5.570   6.922
58819SOL     OW78353  10.568   2.259   0.928
58819SOL    HW178354  10.510   2.287   0.999
58819SOL    HW278355  10.617   2.337   0.904
58820SOL     OW78356   1.136   7.793   7.875
58820SOL    HW178357   1.091   7.761   7.953
58820SOL    HW278358   1.065   7.819   7.816
58821SOL     OW78359   0.738   1.568  11.263
58821SOL    HW178360   0.670   1.526  11.211
58821SOL    HW278361   0.817   1.561  11.210
58822SOL     OW78362  11.996   5.761   2.921
58822SOL    HW178363  12.032   5.825   2.859
58822SOL    HW278364  11.970   5.687   2.867
58823SOL     OW78365   7.324  10.703   4.617
58823SOL    HW178366   7.310  10.617   4.657
58823SOL    HW278367   7.410  10.731   4.649
58824SOL     OW78368   0.723  12.995  14.080
58824SOL    HW178369   0.789  13.055  14.114
58824SOL    HW278370   0.746  12.984  13.988
58825SOL     OW78371  11.119  10.879  11.442
58825SOL    HW178372  11.200  10.871  11.392
58825SOL    HW278373  11.084  10.964  11.418
58826SOL     OW78374   8.987   0.794   9.047
58826SOL    HW178375   8.921   0.762   8.986
58826SOL    HW278376   8.974   0.889   9.049
58827SOL     OW78377   8.325   8.320   0.411
58827SOL    HW178378   8.289   8.371   0.484
58827SOL    HW278379   8.294   8.367   0.333
58828SOL     OW78380  13.938   7.766   0.285
58828SOL    HW178381  13.847   7.787   0.261
58828SOL    HW278382  13.937   7.767   0.381
58829SOL     OW78383  12.321  10.643   7.554
58829SOL    HW178384  12.351  10.564   7.509
58829SOL    HW278385  12.233  10.621   7.585
58830SOL     OW78386  12.721   5.508  10.043
58830SOL    HW178387  12.677   5.592  10.056
58830SOL    HW278388  12.759   5.514   9.955
58831SOL     OW78389   2.642   3.776  11.173
58831SOL    HW178390   2.599   3.768  11.087
58831SOL    HW278391   2.574   3.812  11.230
58832SOL     OW78392   7.481   6.884   6.055
58832SOL    HW178393   7.568   6.885   6.016
58832SOL    HW278394   7.449   6.795   6.043
58833SOL     OW78395   2.921   2.262  14.811
58833SOL    HW178396   2.998   2.283  14.758
58833SOL    HW278397   2.863   2.337  14.799
58834SOL     OW78398  14.609   3.761   4.348
58834SOL    HW178399  14.671   3.715   4.406
58834SOL    HW278400  14.523   3.734   4.379
58835SOL     OW78401   2.992  12.284   5.864
58835SOL    HW178402   2.934  12.213   5.838
58835SOL    HW278403   3.019  12.261   5.953
58836SOL     OW78404   7.423   6.121   6.121
58836SOL    HW178405   7.366   6.172   6.179
58836SOL    HW278406   7.362   6.072   6.066
58837SOL     OW78407  11.071   9.057  10.131
58837SOL    HW178408  11.077   9.139  10.083
58837SOL    HW278409  11.156   9.015  10.117
58838SOL     OW78410   7.660   5.387  10.873
58838SOL    HW178411   7.723   5.382  10.945
58838SOL    HW278412   7.654   5.480  10.853
58839SOL     OW78413  14.059   4.504  13.162
58839SOL    HW178414  14.097   4.434  13.214
58839SOL    HW278415  14.107   4.583  13.188
58840SOL     OW78416   8.948  10.487   1.723
58840SOL    HW178417   8.921  10.433   1.798
58840SOL    HW278418   8.882  10.556   1.719
58841SOL     OW78419   6.874  12.604   0.448
58841SOL    HW178420   6.847  12.620   0.539
58841SOL    HW278421   6.844  12.515   0.430
58842SOL     OW78422   0.151   3.894   6.558
58842SOL    HW178423   0.214   3.949   6.512
58842SOL    HW278424   0.191   3.807   6.558
58843SOL     OW78425   6.518  13.184   0.912
58843SOL    HW178426   6.475  13.215   0.992
58843SOL    HW278427   6.527  13.263   0.858
58844SOL     OW78428  14.552   5.378   7.718
58844SOL    HW178429  14.526   5.388   7.626
58844SOL    HW278430  14.540   5.465   7.755
58845SOL     OW78431   8.186   2.205   5.498
58845SOL    HW178432   8.157   2.120   5.467
58845SOL    HW278433   8.191   2.196   5.594
58846SOL     OW78434   6.869  11.930  10.150
58846SOL    HW178435   6.789  11.940  10.203
58846SOL    HW278436   6.856  11.847  10.104
58847SOL     OW78437  13.450   9.516   7.301
58847SOL    HW178438  13.530   9.477   7.337
58847SOL    HW278439  13.384   9.447   7.311
58848SOL     OW78440   3.184   8.489  10.484
58848SOL    HW178441   3.135   8.533  10.553
58848SOL    HW278442   3.134   8.505  10.404
58849SOL     OW78443   2.523   4.313  11.789
58849SOL    HW178444   2.549   4.376  11.722
58849SOL    HW278445   2.578   4.236  11.772
58850SOL     OW78446   5.505   9.275   2.470
58850SOL    HW178447   5.512   9.181   2.483
58850SOL    HW278448   5.486   9.310   2.557
58851SOL     OW78449   4.904   0.872   1.449
58851SOL    HW178450   4.920   0.824   1.368
58851SOL    HW278451   4.920   0.807   1.518
58852SOL     OW78452   3.567  14.518   7.630
58852SOL    HW178453   3.510  14.552   7.560
58852SOL    HW278454   3.622  14.453   7.586
58853SOL     OW78455   4.556   1.241   6.472
58853SOL    HW178456   4.548   1.289   6.555
58853SOL    HW278457   4.649   1.242   6.452
58854SOL     OW78458   6.297   7.952   5.699
58854SOL    HW178459   6.207   7.944   5.733
58854SOL    HW278460   6.344   7.996   5.770
58855SOL     OW78461   5.901   7.997   4.448
58855SOL    HW178462   5.964   7.983   4.518
58855SOL    HW278463   5.817   8.007   4.493
58856SOL     OW78464   0.814   0.414   1.828
58856SOL    HW178465   0.826   0.496   1.781
58856SOL    HW278466   0.771   0.440   1.910
58857SOL     OW78467   6.248   6.633   5.650
58857SOL    HW178468   6.197   6.629   5.731
58857SOL    HW278469   6.310   6.561   5.658
58858SOL     OW78470  12.447   4.556   8.306
58858SOL    HW178471  12.540   4.568   8.326
58858SOL    HW278472  12.405   4.637   8.336
58859SOL     OW78473  13.762  13.947   4.339
58859SOL    HW178474  13.831  13.900   4.385
58859SOL    HW278475  13.683  13.896   4.355
58860SOL     OW78476  10.280  10.751   5.506
58860SOL    HW178477  10.353  10.691   5.486
58860SOL    HW278478  10.245  10.775   5.420
58861SOL     OW78479   1.475   6.320   4.485
58861SOL    HW178480   1.468   6.227   4.462
58861SOL    HW278481   1.533   6.356   4.418
58862SOL     OW78482   5.516   1.964  12.914
58862SOL    HW178483   5.464   1.930  12.987
58862SOL    HW278484   5.582   2.020  12.955
58863SOL     OW78485   0.116   3.108   5.890
58863SOL    HW178486   0.197   3.156   5.873
58863SOL    HW278487   0.049   3.156   5.843
58864SOL     OW78488   4.115  14.503  11.469
58864SOL    HW178489   4.155  14.563  11.533
58864SOL    HW278490   4.060  14.445  11.522
58865SOL     OW78491   9.931   7.787   5.659
58865SOL    HW178492   9.868   7.826   5.720
58865SOL    HW278493   9.991   7.737   5.715
58866SOL     OW78494   8.310  13.696   9.077
58866SOL    HW178495   8.267  13.760   9.134
58866SOL    HW278496   8.369  13.648   9.135
58867SOL     OW78497   5.655   6.972   8.950
58867SOL    HW178498   5.724   6.934   9.003
58867SOL    HW278499   5.625   7.048   8.999
58868SOL     OW78500   8.240   4.643   3.198
58868SOL    HW178501   8.243   4.664   3.104
58868SOL    HW278502   8.297   4.567   3.207
58869SOL     OW78503   1.799   0.751  10.936
58869SOL    HW178504   1.747   0.830  10.944
58869SOL    HW278505   1.890   0.782  10.942
58870SOL     OW78506   8.488   5.157   2.954
58870SOL    HW178507   8.544   5.113   2.890
58870SOL    HW278508   8.547   5.216   3.001
58871SOL     OW78509   9.693   9.066   5.177
58871SOL    HW178510   9.759   9.030   5.118
58871SOL    HW278511   9.715   9.029   5.263
58872SOL     OW78512   5.689   3.776  12.678
58872SOL    HW178513   5.741   3.716  12.731
58872SOL    HW278514   5.752   3.818  12.619
58873SOL     OW78515   5.416   4.652   3.240
58873SOL    HW178516   5.389   4.561   3.226
58873SOL    HW278517   5.343   4.692   3.288
58874SOL     OW78518   3.834  13.508   2.096
58874SOL    HW178519   3.742  13.514   2.071
58874SOL    HW278520   3.875  13.458   2.026
58875SOL     OW78521   0.055   6.947   4.482
58875SOL    HW178522   0.010   6.900   4.552
58875SOL    HW278523   0.020   7.036   4.487
58876SOL     OW78524   0.777   2.700  13.103
58876SOL    HW178525   0.853   2.736  13.059
58876SOL    HW278526   0.719   2.775  13.116
58877SOL     OW78527   8.619  13.938   2.767
58877SOL    HW178528   8.671  13.926   2.846
58877SOL    HW278529   8.681  13.926   2.695
58878SOL     OW78530   3.498   1.340  10.038
58878SOL    HW178531   3.466   1.421   9.997
58878SOL    HW278532   3.580   1.366  10.080
58879SOL     OW78533   0.821   3.880   5.558
58879SOL    HW178534   0.729   3.891   5.582
58879SOL    HW278535   0.862   3.845   5.637
58880SOL     OW78536   3.710   7.526  12.917
58880SOL    HW178537   3.790   7.534  12.969
58880SOL    HW278538   3.738   7.543  12.827
58881SOL     OW78539   2.680   8.995   0.784
58881SOL    HW178540   2.651   9.056   0.716
58881SOL    HW278541   2.618   9.008   0.855
58882SOL     OW78542  12.142   6.846  12.993
58882SOL    HW178543  12.159   6.758  13.025
58882SOL    HW278544  12.068   6.877  13.045
58883SOL     OW78545   2.815   6.115   0.831
58883SOL    HW178546   2.823   6.107   0.735
58883SOL    HW278547   2.876   6.049   0.865
58884SOL     OW78548   3.378   1.439   3.019
58884SOL    HW178549   3.395   1.424   3.112
58884SOL    HW278550   3.465   1.436   2.978
58885SOL     OW78551  12.340   5.794   2.586
58885SOL    HW178552  12.397   5.732   2.540
58885SOL    HW278553  12.392   5.875   2.591
58886SOL     OW78554   9.751   6.828  14.691
58886SOL    HW178555   9.752   6.859  14.601
58886SOL    HW278556   9.734   6.906  14.744
58887SOL     OW78557   4.388   0.836   7.206
58887SOL    HW178558   4.467   0.866   7.252
58887SOL    HW278559   4.394   0.740   7.210
58888SOL     OW78560  13.818   3.181   1.679
58888SOL    HW178561  13.746   3.149   1.625
58888SOL    HW278562  13.808   3.276   1.680
58889SOL     OW78563   6.575   3.120   4.756
58889SOL    HW178564   6.635   3.122   4.681
58889SOL    HW278565   6.629   3.090   4.829
58890SOL     OW78566   4.353   9.659  11.800
58890SOL    HW178567   4.432   9.663  11.746
58890SOL    HW278568   4.374   9.712  11.877
58891SOL     OW78569   0.144   4.750   8.059
58891SOL    HW178570   0.080   4.819   8.044
58891SOL    HW278571   0.098   4.669   8.038
58892SOL     OW78572  12.812   8.816   6.614
58892SOL    HW178573  12.860   8.733   6.611
58892SOL    HW278574  12.846   8.866   6.539
58893SOL     OW78575   3.289  11.367   9.624
58893SOL    HW178576   3.242  11.433   9.674
58893SOL    HW278577   3.381  11.384   9.641
58894SOL     OW78578  11.349  14.057   1.378
58894SOL    HW178579  11.274  14.117   1.376
58894SOL    HW278580  11.317  13.980   1.426
58895SOL     OW78581   6.421   1.182   9.778
58895SOL    HW178582   6.513   1.199   9.797
58895SOL    HW278583   6.382   1.161   9.863
58896SOL     OW78584   3.084   2.800  13.025
58896SOL    HW178585   3.133   2.827  13.103
58896SOL    HW278586   3.047   2.881  12.991
58897SOL     OW78587   6.477   8.987  12.809
58897SOL    HW178588   6.449   9.078  12.820
58897SOL    HW278589   6.529   8.968  12.887
58898SOL     OW78590   2.361   9.834   7.654
58898SOL    HW178591   2.324   9.762   7.602
58898SOL    HW278592   2.343   9.912   7.602
58899SOL     OW78593   6.861  13.982  11.510
58899SOL    HW178594   6.777  13.966  11.467
58899SOL    HW278595   6.843  14.048  11.576
58900SOL     OW78596   9.654   0.496  11.426
58900SOL    HW178597   9.650   0.538  11.340
58900SOL    HW278598   9.675   0.405  11.407
58901SOL     OW78599   1.920   6.870  14.735
58901SOL    HW178600   1.866   6.845  14.810
58901SOL    HW278601   1.893   6.960  14.715
58902SOL     OW78602   1.066   9.534   6.427
58902SOL    HW178603   0.999   9.564   6.366
58902SOL    HW278604   1.023   9.537   6.513
58903SOL     OW78605  10.969   7.890   4.898
58903SOL    HW178606  10.935   7.978   4.913
58903SOL    HW278607  11.064   7.902   4.893
58904SOL     OW78608   7.742   2.740   2.904
58904SOL    HW178609   7.796   2.760   2.980
58904SOL    HW278610   7.668   2.800   2.911
58905SOL     OW78611  10.296   5.586   9.856
58905SOL    HW178612  10.339   5.501   9.847
58905SOL    HW278613  10.279   5.613   9.766
58906SOL     OW78614   0.504   8.979   5.181
58906SOL    HW178615   0.465   8.894   5.162
58906SOL    HW278616   0.583   8.958   5.232
58907SOL     OW78617  10.706   3.374   7.837
58907SOL    HW178618  10.726   3.440   7.771
58907SOL    HW278619  10.752   3.403   7.916
58908SOL     OW78620   0.737   9.820  13.774
58908SOL    HW178621   0.817   9.833  13.826
58908SOL    HW278622   0.763   9.757  13.706
58909SOL     OW78623   5.412  13.539   3.262
58909SOL    HW178624   5.433  13.447   3.277
58909SOL    HW278625   5.439  13.555   3.172
58910SOL     OW78626   8.921   0.958  12.577
58910SOL    HW178627   8.971   0.984  12.500
58910SOL    HW278628   8.872   1.037  12.601
58911SOL     OW78629   6.828   4.141   3.943
58911SOL    HW178630   6.777   4.221   3.956
58911SOL    HW278631   6.833   4.131   3.847
58912SOL     OW78632  11.598  11.056   4.389
58912SOL    HW178633  11.598  10.960   4.387
58912SOL    HW278634  11.687  11.080   4.415
58913SOL     OW78635   3.942   2.650   2.425
58913SOL    HW178636   3.950   2.742   2.448
58913SOL    HW278637   4.032   2.622   2.405
58914SOL     OW78638   6.281   5.440   8.379
58914SOL    HW178639   6.319   5.452   8.467
58914SOL    HW278640   6.323   5.507   8.326
58915SOL     OW78641   4.321   4.684  12.097
58915SOL    HW178642   4.242   4.633  12.113
58915SOL    HW278643   4.300   4.771  12.131
58916SOL     OW78644   1.450  13.380   9.140
58916SOL    HW178645   1.434  13.323   9.215
58916SOL    HW278646   1.372  13.435   9.134
58917SOL     OW78647   4.340  13.656   6.298
58917SOL    HW178648   4.267  13.594   6.302
58917SOL    HW278649   4.418  13.601   6.295
58918SOL     OW78650   6.821  10.659   7.484
58918SOL    HW178651   6.800  10.734   7.539
58918SOL    HW278652   6.900  10.684   7.437
58919SOL     OW78653  11.390  11.071   2.872
58919SOL    HW178654  11.483  11.052   2.856
58919SOL    HW278655  11.382  11.164   2.852
58920SOL     OW78656   9.147  13.761  12.285
58920SOL    HW178657   9.147  13.836  12.344
58920SOL    HW278658   9.099  13.791  12.208
58921SOL     OW78659   8.862   5.176  12.828
58921SOL    HW178660   8.911   5.114  12.774
58921SOL    HW278661   8.907   5.259  12.816
58922SOL     OW78662   3.147   0.737   6.981
58922SOL    HW178663   3.138   0.672   7.051
58922SOL    HW278664   3.231   0.780   6.999
58923SOL     OW78665  13.557  11.097   1.573
58923SOL    HW178666  13.542  11.110   1.666
58923SOL    HW278667  13.477  11.128   1.531
58924SOL     OW78668  13.686  14.518  12.299
58924SOL    HW178669  13.687  14.596  12.244
58924SOL    HW278670  13.759  14.465  12.268
58925SOL     OW78671   5.835   0.546   0.467
58925SOL    HW178672   5.761   0.557   0.526
58925SOL    HW278673   5.901   0.608   0.498
58926SOL     OW78674   3.457   2.268   5.406
58926SOL    HW178675   3.542   2.291   5.368
58926SOL    HW278676   3.472   2.273   5.501
58927SOL     OW78677  11.892   9.169   5.191
58927SOL    HW178678  11.877   9.075   5.194
58927SOL    HW278679  11.882   9.198   5.282
58928SOL     OW78680  11.484   0.978  11.453
58928SOL    HW178681  11.567   0.934  11.435
58928SOL    HW278682  11.506   1.042  11.521
58929SOL     OW78683   8.473  11.237  10.392
58929SOL    HW178684   8.503  11.241  10.301
58929SOL    HW278685   8.517  11.159  10.427
58930SOL     OW78686   1.762   8.421   5.945
58930SOL    HW178687   1.767   8.330   5.973
58930SOL    HW278688   1.837   8.433   5.887
58931SOL     OW78689   8.330  13.096  11.794
58931SOL    HW178690   8.324  13.026  11.730
58931SOL    HW278691   8.424  13.101  11.815
58932SOL     OW78692  14.599  14.075   0.608
58932SOL    HW178693  14.567  14.018   0.539
58932SOL    HW278694  14.520  14.113   0.647
58933SOL     OW78695   7.228   2.565  14.374
58933SOL    HW178696   7.261   2.575  14.285
58933SOL    HW278697   7.133   2.562  14.365
58934SOL     OW78698  12.660  12.003   6.407
58934SOL    HW178699  12.599  12.052   6.461
58934SOL    HW278700  12.683  12.064   6.336
58935SOL     OW78701  10.698   5.575   7.512
58935SOL    HW178702  10.732   5.560   7.424
58935SOL    HW278703  10.707   5.669   7.525
58936SOL     OW78704   4.221   8.867   3.129
58936SOL    HW178705   4.218   8.854   3.034
58936SOL    HW278706   4.312   8.850   3.152
58937SOL     OW78707   9.538   9.409  13.727
58937SOL    HW178708   9.449   9.383  13.750
58937SOL    HW278709   9.554   9.368  13.642
58938SOL     OW78710   0.679   5.952   7.219
58938SOL    HW178711   0.722   5.875   7.256
58938SOL    HW278712   0.603   5.966   7.276
58939SOL     OW78713   5.938   9.807   5.535
58939SOL    HW178714   5.883   9.841   5.465
58939SOL    HW278715   5.899   9.723   5.558
58940SOL     OW78716   1.686   4.971   3.522
58940SOL    HW178717   1.746   5.038   3.489
58940SOL    HW278718   1.742   4.911   3.571
58941SOL     OW78719   7.826   9.210   7.869
58941SOL    HW178720   7.791   9.261   7.942
58941SOL    HW278721   7.798   9.121   7.887
58942SOL     OW78722   6.386  14.748   0.910
58942SOL    HW178723   6.454  14.761   0.977
58942SOL    HW278724   6.335  14.829   0.912
58943SOL     OW78725   1.037   7.560   3.099
58943SOL    HW178726   1.041   7.510   3.180
58943SOL    HW278727   0.944   7.558   3.074
58944SOL     OW78728  10.678  11.494   9.431
58944SOL    HW178729  10.751  11.556   9.428
58944SOL    HW278730  10.710  11.421   9.483
58945SOL     OW78731   5.488   3.585  14.742
58945SOL    HW178732   5.510   3.495  14.768
58945SOL    HW278733   5.447   3.622  14.820
58946SOL     OW78734  11.234   4.067  12.566
58946SOL    HW178735  11.225   4.116  12.648
58946SOL    HW278736  11.201   4.127  12.499
58947SOL     OW78737   4.276   1.271  10.133
58947SOL    HW178738   4.198   1.281  10.078
58947SOL    HW278739   4.347   1.258  10.070
58948SOL     OW78740   4.699  14.448  11.071
58948SOL    HW178741   4.758  14.402  11.010
58948SOL    HW278742   4.629  14.482  11.016
58949SOL     OW78743   5.832   9.185   0.021
58949SOL    HW178744   5.854   9.204  14.801
58949SOL    HW278745   5.755   9.128   0.015
58950SOL     OW78746  11.785   3.757  12.588
58950SOL    HW178747  11.695   3.728  12.567
58950SOL    HW278748  11.841   3.694  12.542
58951SOL     OW78749   4.015  12.974   5.266
58951SOL    HW178750   3.981  12.994   5.179
58951SOL    HW278751   4.076  13.046   5.285
58952SOL     OW78752  14.848   7.601  12.565
58952SOL    HW178753   0.022   7.550  12.498
58952SOL    HW278754  14.775   7.642  12.518
58953SOL     OW78755   7.080   2.044   3.623
58953SOL    HW178756   7.115   1.967   3.580
58953SOL    HW278757   7.156   2.098   3.643
58954SOL     OW78758  14.566   0.163   6.960
58954SOL    HW178759  14.541   0.236   6.904
58954SOL    HW278760  14.595   0.095   6.899
58955SOL     OW78761  11.308   6.004   4.716
58955SOL    HW178762  11.337   6.094   4.703
58955SOL    HW278763  11.230   6.011   4.771
58956SOL     OW78764   4.118  11.505   8.769
58956SOL    HW178765   4.155  11.561   8.700
58956SOL    HW278766   4.160  11.420   8.755
58957SOL     OW78767  12.986   4.755   5.919
58957SOL    HW178768  12.978   4.662   5.940
58957SOL    HW278769  12.945   4.764   5.833
58958SOL     OW78770   4.629   7.431  14.050
58958SOL    HW178771   4.641   7.516  14.008
58958SOL    HW278772   4.534   7.421  14.059
58959SOL     OW78773  14.780   1.035   3.943
58959SOL    HW178774   0.000   1.059   3.955
58959SOL    HW278775  14.745   1.103   3.885
58960SOL     OW78776   6.065   3.232   4.127
58960SOL    HW178777   6.069   3.223   4.222
58960SOL    HW278778   5.972   3.226   4.106
58961SOL     OW78779  12.509   0.989   1.347
58961SOL    HW178780  12.528   0.947   1.431
58961SOL    HW278781  12.450   0.928   1.302
58962SOL     OW78782   6.143   6.047  12.931
58962SOL    HW178783   6.118   6.070  13.020
58962SOL    HW278784   6.166   6.131  12.891
58963SOL     OW78785   0.040  10.932   3.505
58963SOL    HW178786   0.051  11.013   3.456
58963SOL    HW278787   0.045  10.863   3.439
58964SOL     OW78788   0.973   6.049  11.879
58964SOL    HW178789   0.950   6.072  11.789
58964SOL    HW278790   0.905   5.987  11.905
58965SOL     OW78791  11.313   1.258   3.078
58965SOL    HW178792  11.350   1.225   3.159
58965SOL    HW278793  11.233   1.207   3.065
58966SOL     OW78794   6.672   3.201  14.097
58966SOL    HW178795   6.697   3.231  14.185
58966SOL    HW278796   6.589   3.155  14.111
58967SOL     OW78797  10.947   6.303   5.578
58967SOL    HW178798  10.900   6.377   5.615
58967SOL    HW278799  10.895   6.277   5.502
58968SOL     OW78800   3.566   8.253   9.897
58968SOL    HW178801   3.513   8.311   9.842
58968SOL    HW278802   3.644   8.304   9.917
58969SOL     OW78803  14.493  13.425   6.244
58969SOL    HW178804  14.505  13.453   6.153
58969SOL    HW278805  14.509  13.331   6.243
58970SOL     OW78806   3.357   1.478  11.047
58970SOL    HW178807   3.385   1.388  11.032
58970SOL    HW278808   3.383   1.496  11.138
58971SOL     OW78809   4.100  13.014   2.555
58971SOL    HW178810   4.152  12.984   2.630
58971SOL    HW278811   4.094  12.937   2.498
58972SOL     OW78812  14.484   0.544   0.711
58972SOL    HW178813  14.405   0.576   0.667
58972SOL    HW278814  14.542   0.518   0.640
58973SOL     OW78815   6.281   0.127   4.994
58973SOL    HW178816   6.322   0.042   5.010
58973SOL    HW278817   6.220   0.111   4.922
58974SOL     OW78818   3.525   2.944  14.383
58974SOL    HW178819   3.553   2.857  14.355
58974SOL    HW278820   3.450   2.928  14.439
58975SOL     OW78821   6.937   3.127   5.816
58975SOL    HW178822   7.002   3.172   5.869
58975SOL    HW278823   6.965   3.142   5.725
58976SOL     OW78824  13.208  13.674   8.779
58976SOL    HW178825  13.267  13.655   8.706
58976SOL    HW278826  13.124  13.691   8.738
58977SOL     OW78827  14.463   0.380   0.241
58977SOL    HW178828  14.499   0.299   0.205
58977SOL    HW278829  14.510   0.450   0.196
58978SOL     OW78830   3.733  12.719   8.463
58978SOL    HW178831   3.769  12.693   8.378
58978SOL    HW278832   3.642  12.689   8.460
58979SOL     OW78833   4.364   2.371  12.323
58979SOL    HW178834   4.382   2.320  12.244
58979SOL    HW278835   4.449   2.377  12.367
58980SOL     OW78836   4.092   8.950  13.632
58980SOL    HW178837   4.084   9.044  13.649
58980SOL    HW278838   4.030   8.932  13.561
58981SOL     OW78839  10.970   1.478   7.535
58981SOL    HW178840  11.002   1.509   7.450
58981SOL    HW278841  10.941   1.388   7.518
58982SOL     OW78842   4.970   0.880   3.176
58982SOL    HW178843   4.890   0.849   3.134
58982SOL    HW278844   4.953   0.872   3.270
58983SOL     OW78845  13.991   0.713   7.739
58983SOL    HW178846  14.069   0.686   7.788
58983SOL    HW278847  14.017   0.794   7.695
58984SOL     OW78848   0.990   8.038   3.678
58984SOL    HW178849   0.932   8.048   3.753
58984SOL    HW278850   0.965   8.109   3.619
58985SOL     OW78851   2.899   4.785   4.012
58985SOL    HW178852   2.969   4.761   4.074
58985SOL    HW278853   2.860   4.701   3.988
58986SOL     OW78854   4.245  12.462  12.445
58986SOL    HW178855   4.170  12.418  12.405
58986SOL    HW278856   4.319  12.441  12.387
58987SOL     OW78857   1.028   2.589   8.867
58987SOL    HW178858   0.984   2.550   8.792
58987SOL    HW278859   1.068   2.669   8.833
58988SOL     OW78860  13.760  10.652  14.305
58988SOL    HW178861  13.838  10.690  14.263
58988SOL    HW278862  13.793  10.615  14.387
58989SOL     OW78863   7.301   3.524   1.609
58989SOL    HW178864   7.384   3.484   1.635
58989SOL    HW278865   7.318   3.618   1.611
58990SOL     OW78866   3.177   5.307  11.516
58990SOL    HW178867   3.243   5.343  11.575
58990SOL    HW278868   3.098   5.301  11.570
58991SOL     OW78869   3.776   4.935   6.031
58991SOL    HW178870   3.687   4.934   6.066
58991SOL    HW278871   3.829   4.972   6.101
58992SOL     OW78872   2.072  14.764  13.425
58992SOL    HW178873   2.010  14.813  13.372
58992SOL    HW278874   2.125  14.715  13.363
58993SOL     OW78875  13.346   5.263   7.636
58993SOL    HW178876  13.331   5.243   7.729
58993SOL    HW278877  13.409   5.334   7.637
58994SOL     OW78878   1.860   5.680   5.604
58994SOL    HW178879   1.821   5.671   5.692
58994SOL    HW278880   1.798   5.635   5.546
58995SOL     OW78881   9.403   1.738   7.138
58995SOL    HW178882   9.459   1.692   7.075
58995SOL    HW278883   9.319   1.749   7.093
58996SOL     OW78884   0.451   9.730   4.624
58996SOL    HW178885   0.506   9.654   4.643
58996SOL    HW278886   0.417   9.757   4.709
58997SOL     OW78887   5.519  13.674   2.363
58997SOL    HW178888   5.434  13.631   2.361
58997SOL    HW278889   5.575  13.619   2.308
58998SOL     OW78890   3.422  12.351  14.759
58998SOL    HW178891   3.506  12.306  14.772
58998SOL    HW278892   3.425  12.425  14.820
58999SOL     OW78893   2.046   7.497   3.896
58999SOL    HW178894   2.117   7.463   3.949
58999SOL    HW278895   2.028   7.584   3.933
59000SOL     OW78896  10.743   5.520   5.264
59000SOL    HW178897  10.657   5.548   5.295
59000SOL    HW278898  10.727   5.435   5.223
59001SOL     OW78899   3.628   9.109   7.831
59001SOL    HW178900   3.646   9.021   7.799
59001SOL    HW278901   3.635   9.102   7.927
59002SOL     OW78902   0.357   4.338   5.187
59002SOL    HW178903   0.374   4.427   5.155
59002SOL    HW278904   0.362   4.283   5.109
59003SOL     OW78905   1.541   3.152   8.579
59003SOL    HW178906   1.529   3.185   8.490
59003SOL    HW278907   1.633   3.171   8.600
59004SOL     OW78908  10.233  11.181   3.767
59004SOL    HW178909  10.199  11.104   3.813
59004SOL    HW278910  10.157  11.215   3.719
59005SOL     OW78911  13.897  11.141  14.664
59005SOL    HW178912  13.817  11.186  14.636
59005SOL    HW278913  13.916  11.079  14.594
59006SOL     OW78914   6.570   9.206  12.066
59006SOL    HW178915   6.511   9.181  12.137
59006SOL    HW278916   6.654   9.220  12.109
59007SOL     OW78917  12.638   7.364   1.778
59007SOL    HW178918  12.594   7.290   1.737
59007SOL    HW278919  12.649   7.339   1.869
59008SOL     OW78920  13.066   8.090  11.181
59008SOL    HW178921  13.104   8.091  11.093
59008SOL    HW278922  13.074   7.999  11.209
59009SOL     OW78923  13.355   9.333   1.281
59009SOL    HW178924  13.382   9.422   1.305
59009SOL    HW278925  13.279   9.316   1.337
59010SOL     OW78926   6.066   2.316   1.852
59010SOL    HW178927   6.116   2.234   1.853
59010SOL    HW278928   5.975   2.288   1.839
59011SOL     OW78929   5.391  13.943   6.322
59011SOL    HW178930   5.367  13.863   6.370
59011SOL    HW278931   5.403  14.009   6.390
59012SOL     OW78932   9.918   0.880  10.965
59012SOL    HW178933   9.975   0.955  10.984
59012SOL    HW278934   9.965   0.804  11.001
59013SOL     OW78935   9.567   6.199   4.265
59013SOL    HW178936   9.659   6.195   4.242
59013SOL    HW278937   9.524   6.233   4.187
59014SOL     OW78938  10.007  11.146  13.032
59014SOL    HW178939   9.986  11.165  12.941
59014SOL    HW278940   9.929  11.174  13.081
59015SOL     OW78941   3.859   5.348   0.381
59015SOL    HW178942   3.880   5.405   0.307
59015SOL    HW278943   3.796   5.398   0.433
59016SOL     OW78944  11.991  12.881  14.404
59016SOL    HW178945  11.914  12.841  14.445
59016SOL    HW278946  12.040  12.919  14.476
59017SOL     OW78947   6.661   7.383  11.844
59017SOL    HW178948   6.594   7.356  11.781
59017SOL    HW278949   6.696   7.465  11.808
59018SOL     OW78950  14.637   5.564  14.077
59018SOL    HW178951  14.624   5.497  14.145
59018SOL    HW278952  14.564   5.625  14.090
59019SOL     OW78953  10.221   6.077   2.416
59019SOL    HW178954  10.186   6.159   2.382
59019SOL    HW278955  10.152   6.013   2.400
59020SOL     OW78956  10.381   2.868  14.809
59020SOL    HW178957  10.445   2.818  14.859
59020SOL    HW278958  10.407   2.854  14.717
59021SOL     OW78959   0.638   3.098  14.725
59021SOL    HW178960   0.599   3.082  14.639
59021SOL    HW278961   0.718   3.045  14.726
59022SOL     OW78962  13.346   3.814  13.417
59022SOL    HW178963  13.302   3.837  13.336
59022SOL    HW278964  13.323   3.885  13.478
59023SOL     OW78965  14.179  13.028   0.805
59023SOL    HW178966  14.242  13.093   0.836
59023SOL    HW278967  14.230  12.948   0.794
59024SOL     OW78968  14.631   0.325  13.342
59024SOL    HW178969  14.553   0.381  13.337
59024SOL    HW278970  14.690   0.360  13.276
59025SOL     OW78971   0.851   8.938   7.814
59025SOL    HW178972   0.878   8.850   7.786
59025SOL    HW278973   0.931   8.976   7.852
59026SOL     OW78974   1.388  14.661   6.882
59026SOL    HW178975   1.323  14.594   6.906
59026SOL    HW278976   1.435  14.623   6.807
59027SOL     OW78977   4.063  10.060  12.350
59027SOL    HW178978   4.112  10.023  12.276
59027SOL    HW278979   4.111  10.032  12.427
59028SOL     OW78980   6.169   6.622  11.096
59028SOL    HW178981   6.255   6.662  11.110
59028SOL    HW278982   6.119   6.688  11.048
59029SOL     OW78983  11.517   9.635   7.678
59029SOL    HW178984  11.461   9.632   7.755
59029SOL    HW278985  11.587   9.573   7.697
59030SOL     OW78986  13.970  13.580   8.025
59030SOL    HW178987  14.053  13.615   8.058
59030SOL    HW278988  13.949  13.508   8.085
59031SOL     OW78989   2.481  14.792   7.458
59031SOL    HW178990   2.396  14.762   7.491
59031SOL    HW278991   2.532  14.810   7.537
59032SOL     OW78992  13.541  12.667   2.104
59032SOL    HW178993  13.608  12.720   2.060
59032SOL    HW278994  13.548  12.580   2.063
59033SOL     OW78995  12.289  10.598  14.726
59033SOL    HW178996  12.227  10.562  14.790
59033SOL    HW278997  12.351  10.649  14.779
59034SOL     OW78998   9.431   0.374  14.472
59034SOL    HW178999   9.487   0.298  14.482
59034SOL    HW279000   9.404   0.372  14.380
59035SOL     OW79001  12.100   5.474   0.494
59035SOL    HW179002  12.190   5.445   0.505
59035SOL    HW279003  12.048   5.400   0.526
59036SOL     OW79004  11.445   5.383  14.237
59036SOL    HW179005  11.499   5.347  14.308
59036SOL    HW279006  11.440   5.477  14.256
59037SOL     OW79007   3.084   9.882   4.546
59037SOL    HW179008   3.113   9.835   4.468
59037SOL    HW279009   3.163   9.891   4.599
59038SOL     OW79010   8.501   2.190   6.984
59038SOL    HW179011   8.445   2.188   7.061
59038SOL    HW279012   8.588   2.168   7.016
59039SOL     OW79013   8.180   0.033   4.942
59039SOL    HW179014   8.193   0.124   4.967
59039SOL    HW279015   8.085   0.023   4.934
59040SOL     OW79016   5.027  13.604  12.018
59040SOL    HW179017   5.055  13.521  12.057
59040SOL    HW279018   4.932  13.603  12.027
59041SOL     OW79019   1.034   0.045   4.864
59041SOL    HW179020   1.127   0.038   4.843
59041SOL    HW279021   1.031   0.060   4.958
59042SOL     OW79022  14.143   6.361   8.899
59042SOL    HW179023  14.129   6.425   8.968
59042SOL    HW279024  14.147   6.277   8.944
59043SOL     OW79025   8.694   4.995   0.560
59043SOL    HW179026   8.692   4.949   0.644
59043SOL    HW279027   8.786   5.022   0.550
59044SOL     OW79028   4.787   1.626  10.621
59044SOL    HW179029   4.873   1.607  10.583
59044SOL    HW279030   4.730   1.638  10.545
59045SOL     OW79031  13.731   1.174   8.026
59045SOL    HW179032  13.651   1.137   7.989
59045SOL    HW279033  13.707   1.263   8.052
59046SOL     OW79034   6.928   0.955   6.000
59046SOL    HW179035   6.887   0.918   5.922
59046SOL    HW279036   6.972   1.034   5.969
59047SOL     OW79037   1.409   9.833  11.057
59047SOL    HW179038   1.335   9.793  11.010
59047SOL    HW279039   1.376   9.849  11.145
59048SOL     OW79040   0.572   8.472   8.171
59048SOL    HW179041   0.558   8.542   8.235
59048SOL    HW279042   0.612   8.401   8.221
59049SOL     OW79043   4.828  13.478   3.096
59049SOL    HW179044   4.800  13.387   3.105
59049SOL    HW279045   4.913  13.472   3.053
59050SOL     OW79046   9.788  10.189   4.851
59050SOL    HW179047   9.764  10.271   4.894
59050SOL    HW279048   9.868  10.210   4.803
59051SOL     OW79049  14.053   1.353  12.460
59051SOL    HW179050  14.088   1.442  12.462
59051SOL    HW279051  14.114   1.302  12.513
59052SOL     OW79052  11.030  13.132   8.775
59052SOL    HW179053  10.960  13.102   8.834
59052SOL    HW279054  11.093  13.174   8.833
59053SOL     OW79055  10.521   2.180  10.029
59053SOL    HW179056  10.611   2.166   9.999
59053SOL    HW279057  10.527   2.256  10.087
59054SOL     OW79058   4.429  14.681   2.624
59054SOL    HW179059   4.336  14.686   2.602
59054SOL    HW279060   4.439  14.596   2.666
59055SOL     OW79061   8.701   0.287  12.886
59055SOL    HW179062   8.780   0.339  12.871
59055SOL    HW279063   8.719   0.203  12.845
59056SOL     OW79064  12.832   2.310   8.330
59056SOL    HW179065  12.892   2.245   8.294
59056SOL    HW279066  12.805   2.362   8.254
59057SOL     OW79067  11.011   0.985   5.821
59057SOL    HW179068  11.008   1.029   5.736
59057SOL    HW279069  10.965   1.044   5.881
59058SOL     OW79070  10.920   1.783  12.060
59058SOL    HW179071  10.925   1.697  12.019
59058SOL    HW279072  10.987   1.781  12.128
59059SOL     OW79073   9.067  10.108   6.799
59059SOL    HW179074   9.103  10.027   6.836
59059SOL    HW279075   9.125  10.129   6.726
59060SOL     OW79076   7.928   4.469   1.393
59060SOL    HW179077   7.886   4.384   1.401
59060SOL    HW279078   7.862   4.526   1.354
59061SOL     OW79079   7.377  14.715   1.190
59061SOL    HW179080   7.406  14.685   1.104
59061SOL    HW279081   7.454  14.756   1.229
59062SOL     OW79082   0.615   2.916   1.591
59062SOL    HW179083   0.570   2.948   1.513
59062SOL    HW279084   0.708   2.933   1.574
59063SOL     OW79085   2.373  14.387  13.644
59063SOL    HW179086   2.423  14.347  13.573
59063SOL    HW279087   2.396  14.479  13.642
59064SOL     OW79088   9.768   9.034   7.737
59064SOL    HW179089   9.803   9.122   7.719
59064SOL    HW279090   9.699   9.049   7.802
59065SOL     OW79091   4.302   9.319  14.598
59065SOL    HW179092   4.328   9.239  14.644
59065SOL    HW279093   4.222   9.347  14.642
59066SOL     OW79094   9.338  11.043   2.264
59066SOL    HW179095   9.308  11.063   2.176
59066SOL    HW279096   9.391  10.964   2.255
59067SOL     OW79097   7.301  12.343  11.575
59067SOL    HW179098   7.248  12.339  11.654
59067SOL    HW279099   7.385  12.378  11.604
59068SOL     OW79100  10.210   2.533   3.344
59068SOL    HW179101  10.278   2.580   3.392
59068SOL    HW279102  10.131   2.585   3.355
59069SOL     OW79103   6.511   2.669  12.574
59069SOL    HW179104   6.438   2.707  12.526
59069SOL    HW279105   6.531   2.588  12.527
59070SOL     OW79106   9.653   9.248   9.422
59070SOL    HW179107   9.693   9.188   9.485
59070SOL    HW279108   9.561   9.222   9.419
59071SOL     OW79109  10.644  12.726   8.279
59071SOL    HW179110  10.648  12.805   8.332
59071SOL    HW279111  10.687  12.659   8.332
59072SOL     OW79112   9.193   7.422   6.790
59072SOL    HW179113   9.153   7.508   6.781
59072SOL    HW279114   9.220   7.417   6.881
59073SOL     OW79115   5.139   0.613   6.197
59073SOL    HW179116   5.206   0.603   6.264
59073SOL    HW279117   5.117   0.523   6.171
59074SOL     OW79118   3.364   1.530  13.621
59074SOL    HW179119   3.296   1.511  13.686
59074SOL    HW279120   3.404   1.612  13.651
59075SOL     OW79121  10.058   9.703  14.320
59075SOL    HW179122  10.066   9.614  14.285
59075SOL    HW279123  10.072   9.760  14.244
59076SOL     OW79124  10.124   4.028   9.245
59076SOL    HW179125  10.088   3.939   9.248
59076SOL    HW279126  10.215   4.016   9.218
59077SOL     OW79127  12.064  14.624   1.560
59077SOL    HW179128  12.027  14.562   1.496
59077SOL    HW279129  12.007  14.618   1.636
59078SOL     OW79130   1.463  10.579   2.502
59078SOL    HW179131   1.376  10.604   2.470
59078SOL    HW279132   1.497  10.520   2.434
59079SOL     OW79133  12.887  13.359  10.924
59079SOL    HW179134  12.874  13.290  10.858
59079SOL    HW279135  12.970  13.335  10.966
59080SOL     OW79136  13.925   2.066   1.869
59080SOL    HW179137  13.956   2.137   1.811
59080SOL    HW279138  13.969   2.083   1.952
59081SOL     OW79139   1.007   6.829   8.515
59081SOL    HW179140   0.945   6.891   8.477
59081SOL    HW279141   1.001   6.843   8.609
59082SOL     OW79142   5.415   8.963  14.665
59082SOL    HW179143   5.445   8.911  14.591
59082SOL    HW279144   5.322   8.980  14.648
59083SOL     OW79145   9.611   0.670   1.544
59083SOL    HW179146   9.605   0.586   1.589
59083SOL    HW279147   9.684   0.660   1.483
59084SOL     OW79148   6.316   6.565   6.523
59084SOL    HW179149   6.400   6.524   6.503
59084SOL    HW279150   6.294   6.615   6.445
59085SOL     OW79151   4.402   7.453  11.057
59085SOL    HW179152   4.319   7.475  11.016
59085SOL    HW279153   4.463   7.441  10.984
59086SOL     OW79154   9.039   5.145   0.030
59086SOL    HW179155   8.980   5.177  14.834
59086SOL    HW279156   8.996   5.170   0.112
59087SOL     OW79157   6.133  10.479  12.615
59087SOL    HW179158   6.086  10.486  12.699
59087SOL    HW279159   6.220  10.515  12.633
59088SOL     OW79160   5.261  12.708   8.061
59088SOL    HW179161   5.288  12.800   8.057
59088SOL    HW279162   5.293  12.671   7.979
59089SOL     OW79163   7.156   0.383   9.536
59089SOL    HW179164   7.138   0.445   9.607
59089SOL    HW279165   7.220   0.428   9.481
59090SOL     OW79166   4.214   2.804   0.909
59090SOL    HW179167   4.139   2.752   0.938
59090SOL    HW279168   4.189   2.837   0.823
59091SOL     OW79169   1.167  13.449   1.603
59091SOL    HW179170   1.172  13.507   1.527
59091SOL    HW279171   1.182  13.506   1.678
59092SOL     OW79172   5.374   7.993   3.435
59092SOL    HW179173   5.349   8.026   3.349
59092SOL    HW279174   5.295   7.952   3.470
59093SOL     OW79175  10.813   9.902   1.454
59093SOL    HW179176  10.824   9.810   1.430
59093SOL    HW279177  10.740   9.901   1.516
59094SOL     OW79178  10.193  10.836   2.733
59094SOL    HW179179  10.186  10.745   2.704
59094SOL    HW279180  10.258  10.834   2.803
59095SOL     OW79181   9.211  11.403   5.720
59095SOL    HW179182   9.120  11.429   5.705
59095SOL    HW279183   9.258  11.485   5.728
59096SOL     OW79184   0.701   6.889   5.288
59096SOL    HW179185   0.630   6.825   5.292
59096SOL    HW279186   0.658   6.973   5.300
59097SOL     OW79187   9.652   9.567   0.278
59097SOL    HW179188   9.643   9.540   0.186
59097SOL    HW279189   9.700   9.650   0.273
59098SOL     OW79190   5.001   6.517   2.122
59098SOL    HW179191   5.009   6.438   2.175
59098SOL    HW279192   5.065   6.505   2.051
59099SOL     OW79193   9.119  11.830   5.499
59099SOL    HW179194   9.162  11.870   5.574
59099SOL    HW279195   9.185  11.832   5.429
59100SOL     OW79196   6.386   3.169   8.569
59100SOL    HW179197   6.311   3.176   8.628
59100SOL    HW279198   6.347   3.166   8.482
59101SOL     OW79199   8.974   5.665  12.388
59101SOL    HW179200   9.032   5.604  12.433
59101SOL    HW279201   8.945   5.725  12.456
59102SOL     OW79202   4.816  14.564   8.770
59102SOL    HW179203   4.794  14.514   8.691
59102SOL    HW279204   4.902  14.601   8.752
59103SOL     OW79205   2.240   7.328   2.952
59103SOL    HW179206   2.148   7.314   2.978
59103SOL    HW279207   2.258   7.419   2.979
59104SOL     OW79208   5.712  12.662   7.505
59104SOL    HW179209   5.731  12.678   7.412
59104SOL    HW279210   5.669  12.577   7.507
59105SOL     OW79211  13.280  12.860   3.968
59105SOL    HW179212  13.220  12.906   3.910
59105SOL    HW279213  13.316  12.928   4.025
59106SOL     OW79214   2.475  12.799   5.828
59106SOL    HW179215   2.466  12.760   5.915
59106SOL    HW279216   2.565  12.779   5.802
59107SOL     OW79217  14.648  14.730  11.268
59107SOL    HW179218  14.632  14.720  11.362
59107SOL    HW279219  14.643  14.824  11.253
59108SOL     OW79220   8.046   0.170   7.110
59108SOL    HW179221   8.045   0.265   7.115
59108SOL    HW279222   8.137   0.147   7.090
59109SOL     OW79223   0.066  12.041   7.415
59109SOL    HW179224   0.120  11.990   7.476
59109SOL    HW279225   0.129  12.089   7.362
59110SOL     OW79226   2.825  14.449   3.983
59110SOL    HW179227   2.741  14.417   4.017
59110SOL    HW279228   2.805  14.478   3.894
59111SOL     OW79229   3.027   2.451  12.172
59111SOL    HW179230   3.065   2.532  12.136
59111SOL    HW279231   2.938   2.475  12.197
59112SOL     OW79232   3.478   4.750  13.399
59112SOL    HW179233   3.549   4.749  13.335
59112SOL    HW279234   3.423   4.823  13.373
59113SOL     OW79235   0.139  13.615   0.845
59113SOL    HW179236   0.109  13.575   0.763
59113SOL    HW279237   0.224  13.574   0.863
59114SOL     OW79238   6.650   4.646   2.332
59114SOL    HW179239   6.665   4.684   2.419
59114SOL    HW279240   6.716   4.576   2.326
59115SOL     OW79241  10.789   4.114   0.487
59115SOL    HW179242  10.784   4.155   0.574
59115SOL    HW279243  10.882   4.096   0.475
59116SOL     OW79244  13.455   5.221   0.091
59116SOL    HW179245  13.361   5.222   0.109
59116SOL    HW279246  13.471   5.302   0.043
59117SOL     OW79247  12.711   3.111  10.629
59117SOL    HW179248  12.717   3.205  10.614
59117SOL    HW279249  12.675   3.103  10.717
59118SOL     OW79250   4.397   7.372   3.174
59118SOL    HW179251   4.452   7.447   3.193
59118SOL    HW279252   4.458   7.304   3.143
59119SOL     OW79253   7.775  10.794   3.552
59119SOL    HW179254   7.786  10.844   3.632
59119SOL    HW279255   7.864  10.786   3.516
59120SOL     OW79256   2.388  12.773  13.830
59120SOL    HW179257   2.328  12.846  13.842
59120SOL    HW279258   2.384  12.754  13.736
59121SOL     OW79259  12.846   8.202   1.426
59121SOL    HW179260  12.754   8.228   1.419
59121SOL    HW279261  12.862   8.193   1.520
59122SOL     OW79262   3.450  14.062   7.913
59122SOL    HW179263   3.390  14.016   7.854
59122SOL    HW279264   3.512  14.107   7.855
59123SOL     OW79265   9.987   9.454  10.596
59123SOL    HW179266   9.895   9.481  10.602
59123SOL    HW279267   9.993   9.410  10.511
59124SOL     OW79268   0.362  13.374   1.071
59124SOL    HW179269   0.280  13.339   1.107
59124SOL    HW279270   0.394  13.435   1.137
59125SOL     OW79271  13.935   3.350   8.993
59125SOL    HW179272  13.908   3.334   9.084
59125SOL    HW279273  14.020   3.392   9.001
59126SOL     OW79274  11.168  11.931   7.152
59126SOL    HW179275  11.230  11.859   7.155
59126SOL    HW279276  11.186  11.976   7.070
59127SOL     OW79277  10.839  10.591  12.755
59127SOL    HW179278  10.773  10.570  12.689
59127SOL    HW279279  10.922  10.564  12.716
59128SOL     OW79280  14.790   5.110   5.971
59128SOL    HW179281  14.721   5.049   5.998
59128SOL    HW279282  14.793   5.175   6.040
59129SOL     OW79283   7.811   1.686   8.638
59129SOL    HW179284   7.891   1.652   8.678
59129SOL    HW279285   7.842   1.734   8.561
59130SOL     OW79286  12.075   9.940   1.554
59130SOL    HW179287  11.999   9.967   1.503
59130SOL    HW279288  12.097  10.016   1.608
59131SOL     OW79289  10.058  10.748  13.855
59131SOL    HW179290  10.002  10.693  13.801
59131SOL    HW279291  10.008  10.764  13.935
59132SOL     OW79292  13.476   5.792  11.930
59132SOL    HW179293  13.384   5.803  11.956
59132SOL    HW279294  13.522   5.771  12.011
59133SOL     OW79295  11.743   6.022   3.094
59133SOL    HW179296  11.667   6.079   3.083
59133SOL    HW279297  11.706   5.933   3.087
59134SOL     OW79298  13.065  11.391  12.785
59134SOL    HW179299  12.984  11.344  12.803
59134SOL    HW279300  13.095  11.355  12.701
59135SOL     OW79301   6.247  13.892  14.764
59135SOL    HW179302   6.320  13.858  14.816
59135SOL    HW279303   6.185  13.818  14.759
59136SOL     OW79304   5.153  12.263   7.924
59136SOL    HW179305   5.241  12.289   7.951
59136SOL    HW279306   5.155  12.267   7.828
59137SOL     OW79307   4.354   6.028  12.889
59137SOL    HW179308   4.323   5.977  12.814
59137SOL    HW279309   4.449   6.014  12.889
59138SOL     OW79310  12.784   0.244   5.822
59138SOL    HW179311  12.860   0.237   5.880
59138SOL    HW279312  12.745   0.156   5.824
59139SOL     OW79313   0.907   6.335  13.298
59139SOL    HW179314   0.990   6.382  13.299
59139SOL    HW279315   0.901   6.299  13.209
59140SOL     OW79316   0.909  13.195  11.894
59140SOL    HW179317   0.896  13.259  11.965
59140SOL    HW279318   1.002  13.200  11.874
59141SOL     OW79319   4.310  10.399  14.320
59141SOL    HW179320   4.405  10.400  14.333
59141SOL    HW279321   4.278  10.473  14.370
59142SOL     OW79322   8.276   7.255   1.283
59142SOL    HW179323   8.240   7.183   1.335
59142SOL    HW279324   8.321   7.212   1.211
59143SOL     OW79325   6.869   8.745   1.225
59143SOL    HW179326   6.896   8.802   1.296
59143SOL    HW279327   6.907   8.785   1.147
59144SOL     OW79328   1.430   2.205   1.705
59144SOL    HW179329   1.508   2.247   1.667
59144SOL    HW279330   1.356   2.249   1.664
59145SOL     OW79331  14.830  10.011   0.960
59145SOL    HW179332   0.043  10.007   1.004
59145SOL    HW279333  14.847   9.976   0.872
59146SOL     OW79334  11.237  14.310  14.278
59146SOL    HW179335  11.282  14.241  14.328
59146SOL    HW279336  11.307  14.366  14.246
59147SOL     OW79337   5.325   8.865   6.729
59147SOL    HW179338   5.350   8.776   6.754
59147SOL    HW279339   5.406   8.905   6.697
59148SOL     OW79340   5.353   2.617   3.615
59148SOL    HW179341   5.373   2.684   3.681
59148SOL    HW279342   5.299   2.662   3.551
59149SOL     OW79343  10.414   1.600   9.648
59149SOL    HW179344  10.484   1.634   9.592
59149SOL    HW279345  10.457   1.584   9.732
59150SOL     OW79346   7.467   1.727   8.616
59150SOL    HW179347   7.529   1.779   8.667
59150SOL    HW279348   7.382   1.749   8.653
59151SOL     OW79349  10.448   9.251   3.021
59151SOL    HW179350  10.397   9.328   3.047
59151SOL    HW279351  10.528   9.257   3.073
59152SOL     OW79352  13.656   5.552   5.710
59152SOL    HW179353  13.647   5.457   5.724
59152SOL    HW279354  13.748   5.569   5.731
59153SOL     OW79355   9.041  14.212   0.794
59153SOL    HW179356   9.057  14.117   0.796
59153SOL    HW279357   9.129  14.250   0.800
59154SOL     OW79358  13.681   5.625   9.240
59154SOL    HW179359  13.713   5.584   9.320
59154SOL    HW279360  13.676   5.554   9.177
59155SOL     OW79361   9.170  13.879   2.299
59155SOL    HW179362   9.151  13.913   2.212
59155SOL    HW279363   9.105  13.811   2.314
59156SOL     OW79364  14.837   1.628   3.182
59156SOL    HW179365  14.795   1.670   3.258
59156SOL    HW279366  14.765   1.590   3.133
59157SOL     OW79367  13.334  10.867   1.521
59157SOL    HW179368  13.405  10.845   1.580
59157SOL    HW279369  13.332  10.796   1.457
59158SOL     OW79370  11.349   9.745   7.500
59158SOL    HW179371  11.412   9.705   7.561
59158SOL    HW279372  11.389   9.733   7.414
59159SOL     OW79373   0.344   4.625   4.441
59159SOL    HW179374   0.425   4.638   4.393
59159SOL    HW279375   0.354   4.539   4.482
59160SOL     OW79376  13.137   7.203  10.856
59160SOL    HW179377  13.125   7.213  10.762
59160SOL    HW279378  13.062   7.150  10.884
59161SOL     OW79379   5.621   1.244   5.559
59161SOL    HW179380   5.672   1.180   5.509
59161SOL    HW279381   5.651   1.234   5.649
59162SOL     OW79382  14.330   6.378  11.262
59162SOL    HW179383  14.307   6.290  11.233
59162SOL    HW279384  14.264   6.399  11.328
59163SOL     OW79385   8.471   4.825   8.785
59163SOL    HW179386   8.476   4.730   8.800
59163SOL    HW279387   8.389   4.837   8.738
59164SOL     OW79388   8.489   1.256   2.615
59164SOL    HW179389   8.575   1.274   2.654
59164SOL    HW279390   8.508   1.194   2.544
59165SOL     OW79391  12.913   9.047   3.740
59165SOL    HW179392  12.958   8.979   3.790
59165SOL    HW279393  12.920   9.125   3.794
59166SOL     OW79394  13.725   5.564   5.104
59166SOL    HW179395  13.665   5.638   5.101
59166SOL    HW279396  13.772   5.574   5.187
59167SOL     OW79397   5.168  10.051   3.038
59167SOL    HW179398   5.227   9.985   3.001
59167SOL    HW279399   5.123  10.088   2.962
59168SOL     OW79400   2.770   2.782  13.509
59168SOL    HW179401   2.760   2.866  13.466
59168SOL    HW279402   2.755   2.800  13.602
59169SOL     OW79403   8.207   4.397   8.522
59169SOL    HW179404   8.150   4.449   8.464
59169SOL    HW279405   8.153   4.380   8.599
59170SOL     OW79406  10.953   3.030  12.925
59170SOL    HW179407  10.890   3.064  12.862
59170SOL    HW279408  10.929   3.072  13.008
59171SOL     OW79409  11.576  11.588  12.528
59171SOL    HW179410  11.491  11.591  12.572
59171SOL    HW279411  11.638  11.568  12.598
59172SOL     OW79412   0.474  11.963  14.167
59172SOL    HW179413   0.508  11.878  14.137
59172SOL    HW279414   0.386  11.968  14.128
59173SOL     OW79415   0.125  11.148  12.486
59173SOL    HW179416   0.154  11.183  12.571
59173SOL    HW279417   0.205  11.113  12.446
59174SOL     OW79418  10.986   5.039   2.968
59174SOL    HW179419  11.016   5.130   2.962
59174SOL    HW279420  10.911   5.041   3.027
59175SOL     OW79421  13.764  13.474  14.859
59175SOL    HW179422  13.689  13.436   0.031
59175SOL    HW279423  13.810  13.523   0.056
59176SOL     OW79424   1.567  13.879  12.261
59176SOL    HW179425   1.641  13.832  12.299
59176SOL    HW279426   1.584  13.879  12.166
59177SOL     OW79427   7.737   0.026   7.894
59177SOL    HW179428   7.649   0.036   7.931
59177SOL    HW279429   7.775  14.825   7.944
59178SOL     OW79430  10.696   4.589   5.500
59178SOL    HW179431  10.633   4.661   5.497
59178SOL    HW279432  10.682   4.542   5.417
59179SOL     OW79433   1.420   6.877  13.342
59179SOL    HW179434   1.358   6.869  13.270
59179SOL    HW279435   1.482   6.944  13.313
59180SOL     OW79436   0.903   1.149   9.346
59180SOL    HW179437   0.845   1.088   9.301
59180SOL    HW279438   0.980   1.097   9.368
59181SOL     OW79439   2.570   3.696   3.306
59181SOL    HW179440   2.607   3.632   3.367
59181SOL    HW279441   2.478   3.701   3.329
59182SOL     OW79442  11.635  12.618   6.297
59182SOL    HW179443  11.697  12.566   6.349
59182SOL    HW279444  11.644  12.583   6.208
59183SOL     OW79445  13.981  10.934  12.515
59183SOL    HW179446  13.916  10.873  12.481
59183SOL    HW279447  13.994  10.907  12.606
59184SOL     OW79448   3.324   4.671   3.839
59184SOL    HW179449   3.319   4.723   3.759
59184SOL    HW279450   3.235   4.638   3.852
59185SOL     OW79451  11.254   7.264  13.472
59185SOL    HW179452  11.271   7.323  13.545
59185SOL    HW279453  11.218   7.185  13.512
59186SOL     OW79454   5.482  12.110   6.441
59186SOL    HW179455   5.555  12.072   6.490
59186SOL    HW279456   5.522  12.175   6.384
59187SOL     OW79457   3.492   1.530   7.302
59187SOL    HW179458   3.445   1.611   7.283
59187SOL    HW279459   3.423   1.464   7.310
59188SOL     OW79460   2.982   7.831  12.731
59188SOL    HW179461   2.914   7.793  12.676
59188SOL    HW279462   3.061   7.782  12.709
59189SOL     OW79463  12.078   8.785   6.801
59189SOL    HW179464  12.117   8.698   6.811
59189SOL    HW279465  11.985   8.767   6.785
59190SOL     OW79466  13.954   5.431   7.735
59190SOL    HW179467  13.866   5.437   7.771
59190SOL    HW279468  13.999   5.369   7.791
59191SOL     OW79469   6.042   4.028  10.728
59191SOL    HW179470   5.958   4.000  10.691
59191SOL    HW279471   6.019   4.096  10.791
59192SOL     OW79472   4.397   7.027   9.443
59192SOL    HW179473   4.391   6.950   9.500
59192SOL    HW279474   4.485   7.022   9.406
59193SOL     OW79475   8.165  14.358   7.013
59193SOL    HW179476   8.078  14.396   7.004
59193SOL    HW279477   8.185  14.366   7.106
59194SOL     OW79478  12.277   6.132   3.875
59194SOL    HW179479  12.241   6.140   3.787
59194SOL    HW279480  12.283   6.222   3.907
59195SOL     OW79481   3.354   1.776  14.164
59195SOL    HW179482   3.291   1.707  14.186
59195SOL    HW279483   3.417   1.734  14.106
59196SOL     OW79484   4.694   1.097   7.041
59196SOL    HW179485   4.721   1.006   7.058
59196SOL    HW279486   4.599   1.091   7.029
59197SOL     OW79487   9.036   6.207   2.819
59197SOL    HW179488   9.096   6.157   2.763
59197SOL    HW279489   9.086   6.223   2.899
59198SOL     OW79490   3.019   6.552  11.100
59198SOL    HW179491   2.957   6.490  11.061
59198SOL    HW279492   3.042   6.611  11.029
59199SOL     OW79493   1.514   8.015   4.813
59199SOL    HW179494   1.570   8.028   4.736
59199SOL    HW279495   1.567   7.961   4.871
59200SOL     OW79496  13.660  11.226   8.612
59200SOL    HW179497  13.747  11.213   8.575
59200SOL    HW279498  13.645  11.148   8.666
59201SOL     OW79499   7.268   1.827   0.637
59201SOL    HW179500   7.309   1.791   0.559
59201SOL    HW279501   7.221   1.754   0.676
59202SOL     OW79502   4.689  12.285  11.290
59202SOL    HW179503   4.653  12.212  11.340
59202SOL    HW279504   4.755  12.245  11.234
59203SOL     OW79505  11.954  13.250   9.640
59203SOL    HW179506  11.958  13.236   9.735
59203SOL    HW279507  12.014  13.322   9.623
59204SOL     OW79508   0.224   0.454  11.775
59204SOL    HW179509   0.171   0.375  11.774
59204SOL    HW279510   0.310   0.425  11.744
59205SOL     OW79511  11.114   4.282   2.005
59205SOL    HW179512  11.074   4.231   2.075
59205SOL    HW279513  11.187   4.327   2.048
59206SOL     OW79514   3.242   7.042   3.830
59206SOL    HW179515   3.271   7.022   3.740
59206SOL    HW279516   3.227   6.957   3.870
59207SOL     OW79517   0.906   1.061   3.529
59207SOL    HW179518   0.899   1.097   3.618
59207SOL    HW279519   0.816   1.046   3.502
59208SOL     OW79520  10.889  10.696   2.698
59208SOL    HW179521  10.895  10.604   2.671
59208SOL    HW279522  10.853  10.692   2.787
59209SOL     OW79523   9.845   9.946   8.571
59209SOL    HW179524   9.783  10.009   8.605
59209SOL    HW279525   9.821   9.936   8.478
59210SOL     OW79526  10.235   1.846   6.851
59210SOL    HW179527  10.225   1.940   6.839
59210SOL    HW279528  10.153   1.808   6.821
59211SOL     OW79529   7.898   6.635   4.679
59211SOL    HW179530   7.889   6.543   4.655
59211SOL    HW279531   7.882   6.682   4.597
59212SOL     OW79532  14.323  14.608   9.468
59212SOL    HW179533  14.293  14.536   9.523
59212SOL    HW279534  14.352  14.567   9.387
59213SOL     OW79535   1.637   2.198   0.696
59213SOL    HW179536   1.565   2.153   0.651
59213SOL    HW279537   1.627   2.290   0.672
59214SOL     OW79538   0.191  11.214   1.196
59214SOL    HW179539   0.281  11.203   1.166
59214SOL    HW279540   0.183  11.153   1.270
59215SOL     OW79541  14.107   4.909  10.885
59215SOL    HW179542  14.159   4.884  10.808
59215SOL    HW279543  14.169   4.905  10.958
59216SOL     OW79544  14.796   1.132   9.563
59216SOL    HW179545   0.000   1.134   9.504
59216SOL    HW279546  14.772   1.224   9.574
59217SOL     OW79547   3.361   9.744  10.035
59217SOL    HW179548   3.442   9.757   9.986
59217SOL    HW279549   3.296   9.720   9.967
59218SOL     OW79550  13.201  13.676   3.016
59218SOL    HW179551  13.121  13.624   3.016
59218SOL    HW279552  13.190  13.736   2.942
59219SOL     OW79553   3.296   1.116  12.727
59219SOL    HW179554   3.215   1.086  12.768
59219SOL    HW279555   3.352   1.141  12.801
59220SOL     OW79556   5.399   5.123  13.342
59220SOL    HW179557   5.433   5.212  13.346
59220SOL    HW279558   5.474   5.069  13.318
59221SOL     OW79559   7.785   4.676   1.059
59221SOL    HW179560   7.877   4.694   1.078
59221SOL    HW279561   7.745   4.666   1.146
59222SOL     OW79562  13.814   0.631   8.912
59222SOL    HW179563  13.762   0.677   8.846
59222SOL    HW279564  13.766   0.645   8.994
59223SOL     OW79565   1.158  10.674   7.783
59223SOL    HW179566   1.083  10.651   7.838
59223SOL    HW279567   1.234  10.656   7.839
59224SOL     OW79568   7.998  10.713   5.047
59224SOL    HW179569   8.064  10.679   4.986
59224SOL    HW279570   8.023  10.678   5.132
59225SOL     OW79571   0.836   1.036   0.196
59225SOL    HW179572   0.758   1.033   0.140
59225SOL    HW279573   0.884   1.113   0.166
59226SOL     OW79574  14.061   5.095   4.302
59226SOL    HW179575  14.086   5.170   4.249
59226SOL    HW279576  14.048   5.024   4.239
59227SOL     OW79577   9.148   3.968  10.365
59227SOL    HW179578   9.091   3.906  10.320
59227SOL    HW279579   9.182   4.024  10.295
59228SOL     OW79580   0.482   6.421   8.006
59228SOL    HW179581   0.414   6.457   7.950
59228SOL    HW279582   0.496   6.332   7.973
59229SOL     OW79583  10.744  12.969  13.588
59229SOL    HW179584  10.663  12.941  13.546
59229SOL    HW279585  10.810  12.966  13.518
59230SOL     OW79586   3.602   1.365   9.700
59230SOL    HW179587   3.585   1.453   9.734
59230SOL    HW279588   3.647   1.379   9.616
59231SOL     OW79589  13.526   3.782   0.328
59231SOL    HW179590  13.512   3.688   0.322
59231SOL    HW279591  13.438   3.819   0.337
59232SOL     OW79592  12.654   4.988   8.946
59232SOL    HW179593  12.585   4.993   9.012
59232SOL    HW279594  12.608   4.972   8.864
59233SOL     OW79595  13.328   4.437   2.704
59233SOL    HW179596  13.285   4.508   2.751
59233SOL    HW279597  13.274   4.359   2.722
59234SOL     OW79598   1.612   6.270   7.109
59234SOL    HW179599   1.535   6.269   7.052
59234SOL    HW279600   1.588   6.329   7.180
59235SOL     OW79601   7.845   4.965   4.568
59235SOL    HW179602   7.777   5.030   4.588
59235SOL    HW279603   7.901   5.009   4.504
59236SOL     OW79604  11.423   2.426  10.277
59236SOL    HW179605  11.446   2.519  10.272
59236SOL    HW279606  11.498   2.385  10.319
59237SOL     OW79607  14.243  13.654   4.538
59237SOL    HW179608  14.243  13.568   4.495
59237SOL    HW279609  14.283  13.713   4.473
59238SOL     OW79610   9.782   5.692   7.061
59238SOL    HW179611   9.828   5.752   7.003
59238SOL    HW279612   9.693   5.727   7.066
59239SOL     OW79613  12.356  14.117   9.570
59239SOL    HW179614  12.299  14.061   9.623
59239SOL    HW279615  12.431  14.062   9.549
59240SOL     OW79616   4.505   6.414  10.066
59240SOL    HW179617   4.411   6.403  10.082
59240SOL    HW279618   4.520   6.508  10.078
59241SOL     OW79619   3.133   2.265   7.276
59241SOL    HW179620   3.120   2.292   7.367
59241SOL    HW279621   3.142   2.170   7.279
59242SOL     OW79622  12.572  13.699  11.951
59242SOL    HW179623  12.489  13.669  11.913
59242SOL    HW279624  12.547  13.752  12.026
59243SOL     OW79625   5.038  12.792   9.941
59243SOL    HW179626   5.041  12.706   9.982
59243SOL    HW279627   5.112  12.840   9.981
59244SOL     OW79628   7.464  13.330   9.356
59244SOL    HW179629   7.443  13.416   9.319
59244SOL    HW279630   7.528  13.348   9.425
59245SOL     OW79631   7.159   1.348   3.619
59245SOL    HW179632   7.187   1.389   3.538
59245SOL    HW279633   7.206   1.396   3.688
59246SOL     OW79634   2.107   5.405  14.508
59246SOL    HW179635   2.161   5.478  14.478
59246SOL    HW279636   2.118   5.405  14.603
59247SOL     OW79637   6.147   5.654   5.315
59247SOL    HW179638   6.240   5.630   5.313
59247SOL    HW279639   6.146   5.744   5.346
59248SOL     OW79640  14.342   5.690   0.630
59248SOL    HW179641  14.421   5.649   0.665
59248SOL    HW279642  14.317   5.634   0.556
59249SOL     OW79643   0.742   3.905   3.902
59249SOL    HW179644   0.722   3.820   3.862
59249SOL    HW279645   0.835   3.901   3.923
59250SOL     OW79646  12.176   7.181   3.888
59250SOL    HW179647  12.225   7.106   3.854
59250SOL    HW279648  12.210   7.193   3.977
59251SOL     OW79649   7.741   3.978   2.467
59251SOL    HW179650   7.660   3.941   2.503
59251SOL    HW279651   7.769   4.042   2.533
59252SOL     OW79652   4.887  14.449  10.370
59252SOL    HW179653   4.883  14.397  10.290
59252SOL    HW279654   4.808  14.503  10.367
59253SOL     OW79655   9.598   5.169   8.362
59253SOL    HW179656   9.579   5.250   8.315
59253SOL    HW279657   9.693   5.172   8.378
59254SOL     OW79658   1.494  13.365  12.578
59254SOL    HW179659   1.410  13.358  12.622
59254SOL    HW279660   1.558  13.337  12.644
59255SOL     OW79661  14.107   1.866   0.527
59255SOL    HW179662  14.068   1.867   0.614
59255SOL    HW279663  14.048   1.918   0.473
59256SOL     OW79664   3.638  12.973   2.728
59256SOL    HW179665   3.635  13.043   2.663
59256SOL    HW279666   3.700  12.909   2.692
59257SOL     OW79667  11.932   5.467   5.070
59257SOL    HW179668  11.994   5.516   5.016
59257SOL    HW279669  11.886   5.534   5.120
59258SOL     OW79670   9.810   6.818   3.982
59258SOL    HW179671   9.750   6.787   3.914
59258SOL    HW279672   9.860   6.740   4.007
59259SOL     OW79673   1.476   1.289  12.601
59259SOL    HW179674   1.402   1.252  12.553
59259SOL    HW279675   1.473   1.383  12.582
59260SOL     OW79676   9.063  11.661   7.470
59260SOL    HW179677   9.051  11.603   7.395
59260SOL    HW279678   8.974  11.685   7.496
59261SOL     OW79679  14.118   1.243  14.567
59261SOL    HW179680  14.191   1.261  14.626
59261SOL    HW279681  14.040   1.250  14.623
59262SOL     OW79682   1.192   8.961  10.737
59262SOL    HW179683   1.263   8.985  10.677
59262SOL    HW279684   1.117   8.947  10.680
59263SOL     OW79685  13.280   6.273  14.443
59263SOL    HW179686  13.219   6.320  14.499
59263SOL    HW279687  13.335   6.342  14.404
59264SOL     OW79688  13.237   3.411   8.586
59264SOL    HW179689  13.231   3.473   8.514
59264SOL    HW279690  13.200   3.330   8.551
59265SOL     OW79691  13.321   7.908   3.808
59265SOL    HW179692  13.283   7.858   3.736
59265SOL    HW279693  13.397   7.857   3.835
59266SOL     OW79694  14.377   0.251   7.512
59266SOL    HW179695  14.455   0.304   7.528
59266SOL    HW279696  14.405   0.186   7.448
59267SOL     OW79697   4.020   3.218   4.180
59267SOL    HW179698   3.951   3.233   4.116
59267SOL    HW279699   3.977   3.230   4.265
59268SOL     OW79700   4.219  12.842   6.861
59268SOL    HW179701   4.250  12.786   6.790
59268SOL    HW279702   4.270  12.815   6.937
59269SOL     OW79703   4.756   9.116   6.547
59269SOL    HW179704   4.664   9.093   6.562
59269SOL    HW279705   4.774   9.086   6.458
59270SOL     OW79706   1.014   9.133   3.518
59270SOL    HW179707   0.957   9.154   3.445
59270SOL    HW279708   0.964   9.159   3.596
59271SOL     OW79709   6.306   6.926   0.539
59271SOL    HW179710   6.373   6.858   0.537
59271SOL    HW279711   6.335   6.992   0.476
59272SOL     OW79712   0.979   1.831  12.402
59272SOL    HW179713   0.992   1.798  12.313
59272SOL    HW279714   1.062   1.814  12.446
59273SOL     OW79715  13.728   2.371  12.235
59273SOL    HW179716  13.704   2.286  12.200
59273SOL    HW279717  13.671   2.383  12.311
59274SOL     OW79718   4.525  10.035   9.130
59274SOL    HW179719   4.567  10.120   9.115
59274SOL    HW279720   4.432  10.052   9.112
59275SOL     OW79721  12.145   1.699   6.467
59275SOL    HW179722  12.215   1.636   6.453
59275SOL    HW279723  12.109   1.715   6.379
59276SOL     OW79724   8.912   4.146  10.336
59276SOL    HW179725   8.996   4.136  10.381
59276SOL    HW279726   8.877   4.057  10.330
59277SOL     OW79727   5.915   1.782   3.777
59277SOL    HW179728   5.919   1.876   3.796
59277SOL    HW279729   5.933   1.740   3.861
59278SOL     OW79730   6.695   0.984   1.232
59278SOL    HW179731   6.775   0.942   1.200
59278SOL    HW279732   6.714   1.078   1.225
59279SOL     OW79733  14.637   7.422   3.754
59279SOL    HW179734  14.721   7.467   3.749
59279SOL    HW279735  14.659   7.332   3.778
59280SOL     OW79736   9.976   8.640  10.762
59280SOL    HW179737   9.892   8.626  10.720
59280SOL    HW279738  10.031   8.567  10.731
59281SOL     OW79739   7.212   6.714   6.173
59281SOL    HW179740   7.205   6.790   6.115
59281SOL    HW279741   7.263   6.744   6.247
59282SOL     OW79742   5.216   3.083   3.769
59282SOL    HW179743   5.135   3.102   3.816
59282SOL    HW279744   5.285   3.111   3.829
59283SOL     OW79745   6.474   7.389  14.358
59283SOL    HW179746   6.471   7.295  14.377
59283SOL    HW279747   6.557   7.418  14.394
59284SOL     OW79748   1.225   7.194   1.375
59284SOL    HW179749   1.316   7.167   1.392
59284SOL    HW279750   1.225   7.220   1.283
59285SOL     OW79751  13.711   9.010  12.881
59285SOL    HW179752  13.703   9.021  12.976
59285SOL    HW279753  13.685   8.920  12.865
59286SOL     OW79754  14.753   0.927   1.936
59286SOL    HW179755  14.733   0.991   2.005
59286SOL    HW279756  14.774   0.847   1.984
59287SOL     OW79757  10.407   6.196   2.854
59287SOL    HW179758  10.380   6.119   2.903
59287SOL    HW279759  10.336   6.209   2.790
59288SOL     OW79760   9.014   3.903   3.861
59288SOL    HW179761   8.921   3.920   3.845
59288SOL    HW279762   9.015   3.834   3.927
59289SOL     OW79763   3.905   6.062  12.469
59289SOL    HW179764   3.878   6.031  12.383
59289SOL    HW279765   3.826   6.058  12.523
59290SOL     OW79766   9.663   9.146   2.061
59290SOL    HW179767   9.609   9.068   2.073
59290SOL    HW279768   9.639   9.179   1.974
59291SOL     OW79769   2.328  12.682   5.590
59291SOL    HW179770   2.282  12.730   5.521
59291SOL    HW279771   2.320  12.738   5.667
59292SOL     OW79772   4.241   9.967   5.471
59292SOL    HW179773   4.251   9.985   5.378
59292SOL    HW279774   4.300   9.893   5.488
59293SOL     OW79775   4.729  13.345  14.118
59293SOL    HW179776   4.781  13.376  14.044
59293SOL    HW279777   4.710  13.253  14.098
59294SOL     OW79778  14.547  11.629  11.825
59294SOL    HW179779  14.501  11.669  11.752
59294SOL    HW279780  14.638  11.659  11.817
59295SOL     OW79781  12.440  11.833  14.620
59295SOL    HW179782  12.379  11.801  14.687
59295SOL    HW279783  12.483  11.754  14.588
59296SOL     OW79784   0.796   3.176   6.613
59296SOL    HW179785   0.763   3.088   6.596
59296SOL    HW279786   0.814   3.177   6.707
59297SOL     OW79787   4.383   1.246   4.333
59297SOL    HW179788   4.321   1.318   4.335
59297SOL    HW279789   4.359   1.191   4.407
59298SOL     OW79790   0.732  12.052  13.386
59298SOL    HW179791   0.810  11.998  13.375
59298SOL    HW279792   0.751  12.105  13.463
59299SOL     OW79793   9.447   0.002  11.141
59299SOL    HW179794   9.386  14.809  11.105
59299SOL    HW279795   9.501   0.028  11.066
59300SOL     OW79796   2.774  12.971  14.764
59300SOL    HW179797   2.679  12.977  14.766
59300SOL    HW279798   2.804  13.062  14.763
59301SOL     OW79799  11.783   4.730   9.197
59301SOL    HW179800  11.726   4.667   9.154
59301SOL    HW279801  11.804   4.794   9.129
59302SOL     OW79802   5.626   7.868   0.148
59302SOL    HW179803   5.603   7.863   0.056
59302SOL    HW279804   5.622   7.777   0.179
59303SOL     OW79805  12.632  13.482   5.049
59303SOL    HW179806  12.681  13.492   4.967
59303SOL    HW279807  12.690  13.518   5.116
59304SOL     OW79808   7.846  13.337  11.269
59304SOL    HW179809   7.756  13.336  11.237
59304SOL    HW279810   7.881  13.251  11.248
59305SOL     OW79811  11.941   0.487  14.771
59305SOL    HW179812  11.888   0.485  14.851
59305SOL    HW279813  12.026   0.520  14.800
59306SOL     OW79814   2.488  10.629   9.037
59306SOL    HW179815   2.545  10.627   9.114
59306SOL    HW279816   2.507  10.713   8.995
59307SOL     OW79817   5.973  13.500  12.203
59307SOL    HW179818   5.949  13.588  12.231
59307SOL    HW279819   6.021  13.512  12.121
59308SOL     OW79820   0.282   5.318   4.103
59308SOL    HW179821   0.194   5.284   4.085
59308SOL    HW279822   0.273   5.363   4.188
59309SOL     OW79823  12.307   0.626   9.009
59309SOL    HW179824  12.384   0.668   8.971
59309SOL    HW279825  12.265   0.582   8.935
59310SOL     OW79826  13.010   6.426  11.558
59310SOL    HW179827  13.083   6.420  11.620
59310SOL    HW279828  12.999   6.336  11.526
59311SOL     OW79829   0.343   1.115   1.391
59311SOL    HW179830   0.390   1.192   1.361
59311SOL    HW279831   0.279   1.096   1.322
59312SOL     OW79832  11.093   7.211   6.275
59312SOL    HW179833  11.183   7.232   6.300
59312SOL    HW279834  11.039   7.269   6.328
59313SOL     OW79835   6.739   7.176   3.321
59313SOL    HW179836   6.715   7.256   3.274
59313SOL    HW279837   6.806   7.135   3.265
59314SOL     OW79838  11.511  10.423  12.689
59314SOL    HW179839  11.537  10.438  12.598
59314SOL    HW279840  11.483  10.331  12.690
59315SOL     OW79841   8.308   7.676   7.852
59315SOL    HW179842   8.304   7.695   7.758
59315SOL    HW279843   8.373   7.738   7.885
59316SOL     OW79844   2.677  14.771  10.417
59316SOL    HW179845   2.764  14.774  10.377
59316SOL    HW279846   2.685  14.827  10.494
59317SOL     OW79847   8.541   9.945   0.961
59317SOL    HW179848   8.635   9.938   0.980
59317SOL    HW279849   8.504   9.988   1.038
59318SOL     OW79850  10.086   8.089   9.949
59318SOL    HW179851  10.120   8.119   9.864
59318SOL    HW279852   9.992   8.107   9.945
59319SOL     OW79853   8.041   9.613   5.556
59319SOL    HW179854   7.985   9.535   5.549
59319SOL    HW279855   8.123   9.587   5.515
59320SOL     OW79856   9.773  12.863  12.852
59320SOL    HW179857   9.803  12.871  12.761
59320SOL    HW279858   9.759  12.770  12.865
59321SOL     OW79859   0.610   0.607  12.257
59321SOL    HW179860   0.692   0.584  12.300
59321SOL    HW279861   0.608   0.552  12.178
59322SOL     OW79862   7.255   9.931  11.558
59322SOL    HW179863   7.263  10.026  11.555
59322SOL    HW279864   7.279   9.907  11.647
59323SOL     OW79865  12.817   0.724  14.293
59323SOL    HW179866  12.852   0.693  14.210
59323SOL    HW279867  12.773   0.648  14.331
59324SOL     OW79868  10.416   8.569   1.436
59324SOL    HW179869  10.366   8.632   1.385
59324SOL    HW279870  10.397   8.485   1.395
59325SOL     OW79871   3.829  12.363   6.753
59325SOL    HW179872   3.924  12.363   6.740
59325SOL    HW279873   3.809  12.454   6.776
59326SOL     OW79874  14.336   0.921   3.873
59326SOL    HW179875  14.306   0.878   3.953
59326SOL    HW279876  14.416   0.968   3.900
59327SOL     OW79877   3.513   1.777   3.080
59327SOL    HW179878   3.535   1.863   3.115
59327SOL    HW279879   3.418   1.776   3.073
59328SOL     OW79880  10.249   8.876   8.429
59328SOL    HW179881  10.274   8.877   8.521
59328SOL    HW279882  10.175   8.815   8.425
59329SOL     OW79883  13.038  10.416  11.947
59329SOL    HW179884  13.085  10.395  12.028
59329SOL    HW279885  12.948  10.391  11.964
59330SOL     OW79886   8.223   8.764   0.992
59330SOL    HW179887   8.134   8.761   0.957
59330SOL    HW279888   8.266   8.689   0.952
59331SOL     OW79889  12.874  10.169   7.282
59331SOL    HW179890  12.848  10.226   7.354
59331SOL    HW279891  12.887  10.229   7.208
59332SOL     OW79892   0.991   0.973   4.222
59332SOL    HW179893   1.067   1.015   4.264
59332SOL    HW279894   0.955   1.041   4.165
59333SOL     OW79895  10.489   5.763  10.954
59333SOL    HW179896  10.497   5.761  11.050
59333SOL    HW279897  10.415   5.706  10.935
59334SOL     OW79898  12.251   8.243  13.941
59334SOL    HW179899  12.185   8.213  13.879
59334SOL    HW279900  12.238   8.338  13.945
59335SOL     OW79901  11.085  11.228   6.139
59335SOL    HW179902  11.074  11.134   6.131
59335SOL    HW279903  11.004  11.259   6.179
59336SOL     OW79904  14.152   8.342   9.267
59336SOL    HW179905  14.215   8.290   9.217
59336SOL    HW279906  14.203   8.378   9.340
59337SOL     OW79907  12.620   3.278   3.051
59337SOL    HW179908  12.665   3.207   3.096
59337SOL    HW279909  12.690   3.340   3.028
59338SOL     OW79910   8.309   4.161   4.660
59338SOL    HW179911   8.358   4.165   4.742
59338SOL    HW279912   8.244   4.230   4.668
59339SOL     OW79913   1.595  12.453  10.611
59339SOL    HW179914   1.542  12.507  10.670
59339SOL    HW279915   1.636  12.388  10.668
59340SOL     OW79916   8.145  12.615   1.853
59340SOL    HW179917   8.111  12.676   1.788
59340SOL    HW279918   8.106  12.643   1.936
59341SOL     OW79919  12.318   2.670  13.877
59341SOL    HW179920  12.301   2.659  13.970
59341SOL    HW279921  12.303   2.763  13.861
59342SOL     OW79922  14.313   7.415   9.290
59342SOL    HW179923  14.317   7.442   9.381
59342SOL    HW279924  14.220   7.404   9.271
59343SOL     OW79925   5.731   2.151   0.886
59343SOL    HW179926   5.715   2.183   0.797
59343SOL    HW279927   5.751   2.058   0.875
59344SOL     OW79928   5.192   7.882   0.166
59344SOL    HW179929   5.146   7.958   0.202
59344SOL    HW279930   5.137   7.808   0.189
59345SOL     OW79931   0.602   2.517   9.009
59345SOL    HW179932   0.556   2.523   8.925
59345SOL    HW279933   0.609   2.423   9.026
59346SOL     OW79934   0.459   4.305   2.289
59346SOL    HW179935   0.455   4.363   2.213
59346SOL    HW279936   0.385   4.246   2.277
59347SOL     OW79937   0.134   2.587  13.112
59347SOL    HW179938   0.040   2.595  13.100
59347SOL    HW279939   0.164   2.677  13.127
59348SOL     OW79940   6.545  11.413   2.666
59348SOL    HW179941   6.463  11.439   2.708
59348SOL    HW279942   6.530  11.324   2.635
59349SOL     OW79943  11.006   6.182  14.113
59349SOL    HW179944  11.101   6.182  14.105
59349SOL    HW279945  10.974   6.181  14.023
59350SOL     OW79946  14.376   6.840   7.669
59350SOL    HW179947  14.406   6.930   7.681
59350SOL    HW279948  14.352   6.835   7.577
59351SOL     OW79949  12.974   3.730  14.179
59351SOL    HW179950  13.034   3.800  14.205
59351SOL    HW279951  12.978   3.666  14.250
59352SOL     OW79952   0.419   2.467  12.638
59352SOL    HW179953   0.337   2.422  12.660
59352SOL    HW279954   0.396   2.522  12.563
59353SOL     OW79955  14.412  10.879  14.380
59353SOL    HW179956  14.427  10.973  14.388
59353SOL    HW279957  14.470  10.839  14.445
59354SOL     OW79958   5.825   9.408  13.087
59354SOL    HW179959   5.906   9.380  13.044
59354SOL    HW279960   5.755   9.374  13.030
59355SOL     OW79961   2.561   9.657   9.531
59355SOL    HW179962   2.471   9.667   9.562
59355SOL    HW279963   2.611   9.718   9.586
59356SOL     OW79964   9.606  13.666   5.238
59356SOL    HW179965   9.651  13.647   5.156
59356SOL    HW279966   9.517  13.690   5.212
59357SOL     OW79967   9.889   3.180  11.239
59357SOL    HW179968   9.860   3.265  11.206
59357SOL    HW279969   9.906   3.196  11.332
59358SOL     OW79970   7.490   0.923  11.139
59358SOL    HW179971   7.584   0.911  11.152
59358SOL    HW279972   7.483   0.959  11.050
59359SOL     OW79973  13.929   1.663   6.844
59359SOL    HW179974  13.899   1.642   6.755
59359SOL    HW279975  13.999   1.728   6.830
59360SOL     OW79976  10.940   4.719   1.882
59360SOL    HW179977  10.920   4.687   1.970
59360SOL    HW279978  10.964   4.641   1.833
59361SOL     OW79979  10.529  14.213  14.310
59361SOL    HW179980  10.621  14.220  14.336
59361SOL    HW279981  10.486  14.171  14.385
59362SOL     OW79982   8.250   0.378   9.190
59362SOL    HW179983   8.302   0.457   9.174
59362SOL    HW279984   8.313   0.306   9.184
59363SOL     OW79985  14.489   5.375   7.453
59363SOL    HW179986  14.551   5.304   7.438
59363SOL    HW279987  14.485   5.422   7.370
59364SOL     OW79988   2.960   7.150  13.938
59364SOL    HW179989   2.898   7.216  13.909
59364SOL    HW279990   2.908   7.087  13.987
59365SOL     OW79991  14.807   8.223   5.081
59365SOL    HW179992  14.815   8.131   5.054
59365SOL    HW279993  14.812   8.220   5.177
59366SOL     OW79994   3.366  10.807  11.272
59366SOL    HW179995   3.423  10.867  11.320
59366SOL    HW279996   3.365  10.727  11.325
59367SOL     OW79997   8.334   0.951  13.078
59367SOL    HW179998   8.338   1.001  12.997
59367SOL    HW279999   8.268   0.997  13.131
59368SOL     OW80000   0.308   6.800   8.337
59368SOL    HW180001   0.343   6.811   8.249
59368SOL    HW280002   0.267   6.884   8.358
59369SOL     OW80003   1.436   4.823   5.492
59369SOL    HW180004   1.431   4.866   5.577
59369SOL    HW280005   1.358   4.854   5.445
59370SOL     OW80006   3.997   9.196   9.884
59370SOL    HW180007   3.909   9.166   9.907
59370SOL    HW280008   4.021   9.255   9.955
59371SOL     OW80009   8.946   0.859   1.172
59371SOL    HW180010   8.857   0.861   1.208
59371SOL    HW280011   8.975   0.769   1.184
59372SOL     OW80012   4.141   4.495   5.869
59372SOL    HW180013   4.138   4.439   5.947
59372SOL    HW280014   4.221   4.546   5.880
59373SOL     OW80015   1.627   9.530   7.179
59373SOL    HW180016   1.691   9.515   7.110
59373SOL    HW280017   1.559   9.584   7.138
59374SOL     OW80018   1.821  11.702   4.239
59374SOL    HW180019   1.758  11.629   4.234
59374SOL    HW280020   1.838  11.724   4.147
59375SOL     OW80021   7.641   4.689   2.566
59375SOL    HW180022   7.653   4.594   2.557
59375SOL    HW280023   7.708   4.716   2.628
59376SOL     OW80024  11.834   7.598  14.000
59376SOL    HW180025  11.868   7.511  14.018
59376SOL    HW280026  11.912   7.652  13.988
59377SOL     OW80027  14.133  14.413  14.795
59377SOL    HW180028  14.137  14.490  14.738
59377SOL    HW280029  14.223  14.381  14.799
59378SOL     OW80030   2.133   0.700   5.019
59378SOL    HW180031   2.170   0.787   5.037
59378SOL    HW280032   2.183   0.669   4.943
59379SOL     OW80033   6.836   2.753   1.249
59379SOL    HW180034   6.888   2.748   1.329
59379SOL    HW280035   6.857   2.673   1.201
59380SOL     OW80036  13.439   2.623  13.784
59380SOL    HW180037  13.496   2.611  13.861
59380SOL    HW280038  13.475   2.564  13.718
59381SOL     OW80039   7.427   3.782   1.877
59381SOL    HW180040   7.407   3.785   1.784
59381SOL    HW280041   7.446   3.872   1.901
59382SOL     OW80042  11.145   8.960  11.279
59382SOL    HW180043  11.168   8.885  11.334
59382SOL    HW280044  11.052   8.976  11.298
59383SOL     OW80045  10.348   4.846   5.802
59383SOL    HW180046  10.364   4.917   5.864
59383SOL    HW280047  10.253   4.831   5.807
59384SOL     OW80048  11.252   3.275   1.748
59384SOL    HW180049  11.337   3.238   1.722
59384SOL    HW280050  11.273   3.334   1.820
59385SOL     OW80051   7.845  11.180   3.752
59385SOL    HW180052   7.750  11.188   3.740
59385SOL    HW280053   7.855  11.153   3.843
59386SOL     OW80054   5.707   5.211   6.061
59386SOL    HW180055   5.644   5.282   6.047
59386SOL    HW280056   5.791   5.256   6.071
59387SOL     OW80057   2.792   5.595   9.367
59387SOL    HW180058   2.714   5.628   9.413
59387SOL    HW280059   2.764   5.510   9.333
59388SOL     OW80060   7.313   3.297  11.529
59388SOL    HW180061   7.224   3.317  11.502
59388SOL    HW280062   7.326   3.349  11.609
59389SOL     OW80063   7.266   7.894   5.361
59389SOL    HW180064   7.334   7.835   5.327
59389SOL    HW280065   7.313   7.959   5.412
59390SOL     OW80066   0.044   3.814   0.450
59390SOL    HW180067   0.139   3.801   0.450
59390SOL    HW280068   0.032   3.904   0.421
59391SOL     OW80069   8.705  10.150   1.557
59391SOL    HW180070   8.654  10.226   1.585
59391SOL    HW280071   8.757  10.183   1.483
59392SOL     OW80072   2.765   6.962   1.473
59392SOL    HW180073   2.692   6.986   1.416
59392SOL    HW280074   2.728   6.967   1.562
59393SOL     OW80075   9.840  12.551   7.356
59393SOL    HW180076   9.826  12.641   7.326
59393SOL    HW280077   9.901  12.513   7.292
59394SOL     OW80078  14.845   5.210  14.537
59394SOL    HW180079  14.801   5.295  14.547
59394SOL    HW280080  14.776   5.146  14.553
59395SOL     OW80081  10.146   1.565  11.436
59395SOL    HW180082  10.239   1.552  11.417
59395SOL    HW280083  10.143   1.647  11.484
59396SOL     OW80084  11.695  14.538  11.675
59396SOL    HW180085  11.733  14.497  11.598
59396SOL    HW280086  11.770  14.556  11.732
59397SOL     OW80087   1.243  14.568  12.884
59397SOL    HW180088   1.161  14.543  12.927
59397SOL    HW280089   1.273  14.644  12.934
59398SOL     OW80090   8.446   8.402  13.976
59398SOL    HW180091   8.533   8.364  13.960
59398SOL    HW280092   8.464   8.493  13.999
59399SOL     OW80093  13.772   4.943   1.243
59399SOL    HW180094  13.708   4.904   1.303
59399SOL    HW280095  13.759   4.897   1.160
59400SOL     OW80096   4.037  12.949  14.062
59400SOL    HW180097   3.965  12.997  14.104
59400SOL    HW280098   4.077  12.899  14.133
59401SOL     OW80099   9.334   7.151   1.981
59401SOL    HW180100   9.416   7.112   1.952
59401SOL    HW280101   9.359   7.227   2.033
59402SOL     OW80102   5.256  14.097  12.760
59402SOL    HW180103   5.327  14.076  12.820
59402SOL    HW280104   5.275  14.044  12.682
59403SOL     OW80105   3.018  14.571  13.787
59403SOL    HW180106   3.056  14.659  13.780
59403SOL    HW280107   3.069  14.519  13.725
59404SOL     OW80108   7.970  10.409   2.372
59404SOL    HW180109   7.959  10.372   2.284
59404SOL    HW280110   8.006  10.338   2.424
59405SOL     OW80111  12.578  11.597  11.328
59405SOL    HW180112  12.528  11.591  11.410
59405SOL    HW280113  12.539  11.671  11.282
59406SOL     OW80114  12.030   8.909   3.637
59406SOL    HW180115  11.998   8.946   3.554
59406SOL    HW280116  12.102   8.967   3.663
59407SOL     OW80117   5.811  13.996   7.689
59407SOL    HW180118   5.760  14.074   7.665
59407SOL    HW280119   5.901  14.028   7.696
59408SOL     OW80120   5.149   8.444   3.101
59408SOL    HW180121   5.094   8.375   3.065
59408SOL    HW280122   5.228   8.443   3.046
59409SOL     OW80123   7.233   9.703   6.836
59409SOL    HW180124   7.289   9.780   6.849
59409SOL    HW280125   7.226   9.664   6.923
59410SOL     OW80126   8.659   7.322  14.191
59410SOL    HW180127   8.638   7.294  14.280
59410SOL    HW280128   8.599   7.271  14.136
59411SOL     OW80129   8.291   2.301  13.524
59411SOL    HW180130   8.355   2.289  13.454
59411SOL    HW280131   8.265   2.212  13.548
59412SOL     OW80132   7.345   7.586  10.211
59412SOL    HW180133   7.348   7.644  10.135
59412SOL    HW280134   7.311   7.503  10.177
59413SOL     OW80135   0.444  13.872  11.013
59413SOL    HW180136   0.467  13.781  11.035
59413SOL    HW280137   0.439  13.917  11.097
59414SOL     OW80138   1.443   8.687   3.335
59414SOL    HW180139   1.425   8.640   3.417
59414SOL    HW280140   1.506   8.754   3.360
59415SOL     OW80141   8.849   6.227  14.554
59415SOL    HW180142   8.841   6.317  14.588
59415SOL    HW280143   8.903   6.182  14.619
59416SOL     OW80144  13.213   4.833  13.624
59416SOL    HW180145  13.188   4.780  13.548
59416SOL    HW280146  13.307   4.849  13.612
59417SOL     OW80147  13.254   1.099  13.896
59417SOL    HW180148  13.222   1.169  13.839
59417SOL    HW280149  13.216   1.020  13.859
59418SOL     OW80150   0.671  12.163   1.326
59418SOL    HW180151   0.713  12.079   1.305
59418SOL    HW280152   0.679  12.215   1.246
59419SOL     OW80153  10.325   7.483   6.989
59419SOL    HW180154  10.239   7.503   6.952
59419SOL    HW280155  10.353   7.402   6.945
59420SOL     OW80156   0.131   5.382   0.131
59420SOL    HW180157   0.126   5.365   0.037
59420SOL    HW280158   0.222   5.406   0.146
59421SOL     OW80159   4.184  11.540  12.878
59421SOL    HW180160   4.258  11.505  12.928
59421SOL    HW280161   4.145  11.606  12.936
59422SOL     OW80162   0.463  11.773   9.472
59422SOL    HW180163   0.492  11.861   9.497
59422SOL    HW280164   0.544  11.728   9.447
59423SOL     OW80165   4.973  11.976   3.160
59423SOL    HW180166   4.963  12.023   3.078
59423SOL    HW280167   4.917  12.022   3.222
59424SOL     OW80168   9.232   7.036   9.936
59424SOL    HW180169   9.222   7.027   9.841
59424SOL    HW280170   9.301   7.102   9.946
59425SOL     OW80171  10.060  13.668   8.939
59425SOL    HW180172  10.114  13.608   8.889
59425SOL    HW280173  10.080  13.648   9.030
59426SOL     OW80174  10.353  12.709   7.691
59426SOL    HW180175  10.388  12.794   7.717
59426SOL    HW280176  10.283  12.729   7.630
59427SOL     OW80177   5.273   9.176   8.969
59427SOL    HW180178   5.284   9.255   9.023
59427SOL    HW280179   5.303   9.202   8.882
59428SOL     OW80180  12.793  13.629  13.130
59428SOL    HW180181  12.873  13.664  13.169
59428SOL    HW280182  12.801  13.535  13.139
59429SOL     OW80183   1.754   3.043  14.677
59429SOL    HW180184   1.741   3.137  14.694
59429SOL    HW280185   1.823   3.017  14.738
59430SOL     OW80186   3.177   9.010   5.060
59430SOL    HW180187   3.247   8.947   5.076
59430SOL    HW280188   3.187   9.075   5.130
59431SOL     OW80189   9.980  11.191   3.558
59431SOL    HW180190   9.926  11.151   3.626
59431SOL    HW280191   9.920  11.250   3.512
59432SOL     OW80192   6.619   0.096   7.713
59432SOL    HW180193   6.575   0.165   7.663
59432SOL    HW280194   6.712   0.112   7.698
59433SOL     OW80195   5.370   3.717   8.619
59433SOL    HW180196   5.323   3.777   8.677
59433SOL    HW280197   5.441   3.682   8.672
59434SOL     OW80198   3.812   2.899   1.586
59434SOL    HW180199   3.826   2.886   1.680
59434SOL    HW280200   3.730   2.855   1.567
59435SOL     OW80201   8.525   5.376   5.285
59435SOL    HW180202   8.577   5.300   5.312
59435SOL    HW280203   8.463   5.389   5.357
59436SOL     OW80204   9.478  14.159   0.821
59436SOL    HW180205   9.526  14.110   0.754
59436SOL    HW280206   9.453  14.241   0.777
59437SOL     OW80207   6.230   4.424   8.086
59437SOL    HW180208   6.216   4.333   8.112
59437SOL    HW280209   6.249   4.470   8.168
59438SOL     OW80210   4.584   0.141   5.382
59438SOL    HW180211   4.619   0.142   5.472
59438SOL    HW280212   4.554   0.051   5.369
59439SOL     OW80213   7.598  14.371   0.844
59439SOL    HW180214   7.534  14.316   0.888
59439SOL    HW280215   7.633  14.428   0.913
59440SOL     OW80216   2.789   0.448   7.534
59440SOL    HW180217   2.847   0.511   7.574
59440SOL    HW280218   2.814   0.446   7.442
59441SOL     OW80219   6.646  12.943   8.234
59441SOL    HW180220   6.554  12.922   8.220
59441SOL    HW280221   6.648  13.038   8.246
59442SOL     OW80222   2.676  10.562   1.636
59442SOL    HW180223   2.609  10.559   1.567
59442SOL    HW280224   2.626  10.571   1.717
59443SOL     OW80225   7.483  13.077   0.800
59443SOL    HW180226   7.536  13.102   0.876
59443SOL    HW280227   7.520  13.127   0.728
59444SOL     OW80228  14.570   5.872   8.119
59444SOL    HW180229  14.664   5.887   8.123
59444SOL    HW280230  14.540   5.923   8.044
59445SOL     OW80231   0.717   2.427  13.588
59445SOL    HW180232   0.654   2.415  13.517
59445SOL    HW280233   0.802   2.429  13.545
59446SOL     OW80234   7.229   6.295  14.154
59446SOL    HW180235   7.312   6.274  14.197
59446SOL    HW280236   7.162   6.251  14.207
59447SOL     OW80237   3.222   7.132   0.937
59447SOL    HW180238   3.257   7.199   0.878
59447SOL    HW280239   3.154   7.087   0.886
59448SOL     OW80240  13.461   0.040  14.188
59448SOL    HW180241  13.460  14.845  14.256
59448SOL    HW280242  13.400   0.107  14.220
59449SOL     OW80243   9.549  11.141   3.226
59449SOL    HW180244   9.519  11.176   3.142
59449SOL    HW280245   9.562  11.048   3.210
59450SOL     OW80246   4.098   7.713   3.804
59450SOL    HW180247   4.036   7.782   3.781
59450SOL    HW280248   4.110   7.720   3.898
59451SOL     OW80249   9.968  14.042   0.184
59451SOL    HW180250   9.979  14.105   0.255
59451SOL    HW280251   9.944  14.095   0.108
59452SOL     OW80252  12.731  12.281   3.311
59452SOL    HW180253  12.720  12.352   3.374
59452SOL    HW280254  12.644  12.244   3.301
59453SOL     OW80255   2.791  14.208  14.622
59453SOL    HW180256   2.862  14.144  14.623
59453SOL    HW280257   2.832  14.289  14.592
59454SOL     OW80258   9.080  10.287   4.622
59454SOL    HW180259   9.073  10.226   4.696
59454SOL    HW280260   9.070  10.373   4.662
59455SOL     OW80261  14.301   4.612  13.528
59455SOL    HW180262  14.386   4.578  13.557
59455SOL    HW280263  14.258   4.639  13.609
59456SOL     OW80264  13.165   7.099   5.421
59456SOL    HW180265  13.173   7.193   5.406
59456SOL    HW280266  13.215   7.059   5.350
59457SOL     OW80267   7.947   9.294   7.516
59457SOL    HW180268   7.869   9.326   7.470
59457SOL    HW280269   7.979   9.370   7.565
59458SOL     OW80270   1.394   3.717   3.054
59458SOL    HW180271   1.401   3.633   3.099
59458SOL    HW280272   1.302   3.723   3.027
59459SOL     OW80273  11.785   6.028   8.414
59459SOL    HW180274  11.832   6.030   8.331
59459SOL    HW280275  11.832   5.961   8.466
59460SOL     OW80276  10.422   9.307  14.182
59460SOL    HW180277  10.440   9.293  14.089
59460SOL    HW280278  10.405   9.220  14.217
59461SOL     OW80279   9.633  14.820   7.925
59461SOL    HW180280   9.670  14.736   7.897
59461SOL    HW280281   9.590  14.800   8.008
59462SOL     OW80282   0.457  14.658  14.369
59462SOL    HW180283   0.381  14.666  14.426
59462SOL    HW280284   0.530  14.693  14.420
59463SOL     OW80285   7.917  11.495   6.950
59463SOL    HW180286   7.981  11.565   6.965
59463SOL    HW280287   7.949  11.421   7.001
59464SOL     OW80288  12.286   7.328  14.701
59464SOL    HW180289  12.222   7.338  14.771
59464SOL    HW280290  12.349   7.265  14.735
59465SOL     OW80291   9.587  12.870   4.786
59465SOL    HW180292   9.494  12.876   4.810
59465SOL    HW280293   9.587  12.827   4.700
59466SOL     OW80294   1.024   4.155  13.167
59466SOL    HW180295   1.040   4.207  13.245
59466SOL    HW280296   0.929   4.140  13.166
59467SOL     OW80297   2.473   2.792   9.547
59467SOL    HW180298   2.554   2.743   9.533
59467SOL    HW280299   2.403   2.728   9.533
59468SOL     OW80300  11.362   5.135  11.323
59468SOL    HW180301  11.411   5.089  11.391
59468SOL    HW280302  11.345   5.069  11.257
59469SOL     OW80303  11.757  12.632   3.204
59469SOL    HW180304  11.751  12.704   3.141
59469SOL    HW280305  11.776  12.555   3.151
59470SOL     OW80306   7.550   8.238   3.780
59470SOL    HW180307   7.543   8.230   3.875
59470SOL    HW280308   7.500   8.163   3.747
59471SOL     OW80309   0.024  11.562  10.872
59471SOL    HW180310   0.071  11.517  10.942
59471SOL    HW280311   0.073  11.541  10.793
59472SOL     OW80312  11.659  11.935  14.219
59472SOL    HW180313  11.597  12.006  14.235
59472SOL    HW280314  11.604  11.856  14.214
59473SOL     OW80315   7.873  14.812   8.807
59473SOL    HW180316   7.948  14.871   8.802
59473SOL    HW280317   7.838  14.810   8.717
59474SOL     OW80318   9.088   7.748  14.256
59474SOL    HW180319   9.068   7.658  14.231
59474SOL    HW280320   9.175   7.764  14.219
59475SOL     OW80321  11.585  11.800   0.106
59475SOL    HW180322  11.666  11.783   0.057
59475SOL    HW280323  11.516  11.762   0.051
59476SOL     OW80324   1.212   0.435  10.626
59476SOL    HW180325   1.124   0.469  10.612
59476SOL    HW280326   1.242   0.481  10.705
59477SOL     OW80327  13.247   8.160   6.623
59477SOL    HW180328  13.304   8.140   6.548
59477SOL    HW280329  13.305   8.155   6.699
59478SOL     OW80330   2.714  14.559   9.472
59478SOL    HW180331   2.697  14.466   9.461
59478SOL    HW280332   2.641  14.602   9.426
59479SOL     OW80333  13.171   7.428   4.361
59479SOL    HW180334  13.253   7.463   4.326
59479SOL    HW280335  13.188   7.335   4.374
59480SOL     OW80336   7.466   1.964   8.448
59480SOL    HW180337   7.435   1.896   8.507
59480SOL    HW280338   7.536   2.008   8.496
59481SOL     OW80339   3.355   6.464   5.665
59481SOL    HW180340   3.295   6.396   5.696
59481SOL    HW280341   3.416   6.477   5.737
59482SOL     OW80342  13.216  10.620   7.977
59482SOL    HW180343  13.190  10.708   7.950
59482SOL    HW280344  13.153  10.597   8.046
59483SOL     OW80345   9.497  13.739   6.973
59483SOL    HW180346   9.592  13.728   6.985
59483SOL    HW280347   9.490  13.802   6.901
59484SOL     OW80348   9.350  11.212   8.540
59484SOL    HW180349   9.278  11.196   8.600
59484SOL    HW280350   9.427  11.176   8.585
59485SOL     OW80351   0.709   9.105   7.453
59485SOL    HW180352   0.803   9.120   7.466
59485SOL    HW280353   0.700   9.010   7.457
59486SOL     OW80354   5.133   6.890  14.774
59486SOL    HW180355   5.098   6.917  14.859
59486SOL    HW280356   5.057   6.893  14.716
59487SOL     OW80357   8.520   6.240   7.679
59487SOL    HW180358   8.508   6.232   7.585
59487SOL    HW280359   8.570   6.321   7.691
59488SOL     OW80360   7.129   5.183  11.266
59488SOL    HW180361   7.169   5.246  11.206
59488SOL    HW280362   7.156   5.211  11.353
59489SOL     OW80363  12.631   1.621  10.373
59489SOL    HW180364  12.692   1.548  10.387
59489SOL    HW280365  12.641   1.644  10.281
59490SOL     OW80366   9.640  13.484  14.638
59490SOL    HW180367   9.720  13.432  14.634
59490SOL    HW280368   9.580  13.441  14.577
59491SOL     OW80369  12.098   7.912   0.527
59491SOL    HW180370  12.179   7.871   0.496
59491SOL    HW280371  12.124   7.964   0.603
59492SOL     OW80372   4.748  11.484   3.209
59492SOL    HW180373   4.792  11.478   3.125
59492SOL    HW280374   4.816  11.514   3.269
59493SOL     OW80375   3.926   8.955  13.404
59493SOL    HW180376   3.893   8.914  13.325
59493SOL    HW280377   3.995   9.014  13.374
59494SOL     OW80378  12.805   9.985   6.505
59494SOL    HW180379  12.723  10.031   6.488
59494SOL    HW280380  12.785   9.893   6.487
59495SOL     OW80381  11.276   6.854   9.479
59495SOL    HW180382  11.331   6.877   9.554
59495SOL    HW280383  11.321   6.892   9.403
59496SOL     OW80384  13.569   8.341   0.082
59496SOL    HW180385  13.522   8.300   0.010
59496SOL    HW280386  13.623   8.271   0.119
59497SOL     OW80387  10.204   4.396  10.263
59497SOL    HW180388  10.200   4.424  10.171
59497SOL    HW280389  10.163   4.467  10.312
59498SOL     OW80390   8.985  14.191   1.607
59498SOL    HW180391   9.008  14.229   1.691
59498SOL    HW280392   8.954  14.103   1.628
59499SOL     OW80393  12.332   8.194   2.848
59499SOL    HW180394  12.340   8.108   2.890
59499SOL    HW280395  12.325   8.174   2.755
59500SOL     OW80396   4.439   4.000   3.928
59500SOL    HW180397   4.355   4.018   3.973
59500SOL    HW280398   4.414   3.970   3.841
59501SOL     OW80399   8.598   1.255   1.099
59501SOL    HW180400   8.560   1.182   1.050
59501SOL    HW280401   8.551   1.254   1.183
59502SOL     OW80402   2.007   2.564  10.167
59502SOL    HW180403   2.026   2.625  10.237
59502SOL    HW280404   1.971   2.619  10.096
59503SOL     OW80405  11.667   5.585   4.903
59503SOL    HW180406  11.724   5.576   4.979
59503SOL    HW280407  11.579   5.592   4.940
59504SOL     OW80408  11.531   9.225   7.882
59504SOL    HW180409  11.496   9.209   7.795
59504SOL    HW280410  11.537   9.138   7.922
59505SOL     OW80411  12.864  11.772   5.864
59505SOL    HW180412  12.928  11.804   5.801
59505SOL    HW280413  12.887  11.680   5.877
59506SOL     OW80414  13.993   4.672  11.226
59506SOL    HW180415  13.958   4.723  11.153
59506SOL    HW280416  13.964   4.582  11.208
59507SOL     OW80417   6.841   7.885   1.267
59507SOL    HW180418   6.891   7.957   1.306
59507SOL    HW280419   6.884   7.869   1.183
59508SOL     OW80420  11.097   8.886   4.869
59508SOL    HW180421  11.055   8.817   4.818
59508SOL    HW280422  11.125   8.950   4.804
59509SOL     OW80423   2.935   2.273   7.031
59509SOL    HW180424   3.008   2.235   6.981
59509SOL    HW280425   2.963   2.362   7.050
59510SOL     OW80426   2.117   5.774  12.875
59510SOL    HW180427   2.048   5.792  12.939
59510SOL    HW280428   2.197   5.807  12.916
59511SOL     OW80429   9.847   9.674   8.659
59511SOL    HW180430   9.845   9.769   8.648
59511SOL    HW280431   9.916   9.644   8.599
59512SOL     OW80432   0.442   2.771   2.726
59512SOL    HW180433   0.465   2.682   2.701
59512SOL    HW280434   0.347   2.773   2.725
59513SOL     OW80435   7.456   3.487   3.825
59513SOL    HW180436   7.411   3.446   3.751
59513SOL    HW280437   7.413   3.572   3.836
59514SOL     OW80438  12.041   9.993  13.141
59514SOL    HW180439  12.090   9.994  13.223
59514SOL    HW280440  11.991  10.074  13.141
59515SOL     OW80441   3.805   9.819   8.429
59515SOL    HW180442   3.788   9.826   8.523
59515SOL    HW280443   3.865   9.891   8.410
59516SOL     OW80444   7.793  12.155   3.406
59516SOL    HW180445   7.819  12.126   3.319
59516SOL    HW280446   7.764  12.246   3.393
59517SOL     OW80447  11.960   1.468   3.132
59517SOL    HW180448  11.941   1.383   3.093
59517SOL    HW280449  11.979   1.525   3.058
59518SOL     OW80450   7.057  10.233   3.164
59518SOL    HW180451   7.012  10.285   3.098
59518SOL    HW280452   7.127  10.188   3.117
59519SOL     OW80453   2.657   5.422   7.817
59519SOL    HW180454   2.688   5.383   7.735
59519SOL    HW280455   2.703   5.507   7.822
59520SOL     OW80456   8.390   3.330   7.265
59520SOL    HW180457   8.445   3.270   7.214
59520SOL    HW280458   8.310   3.280   7.283
59521SOL     OW80459   7.301   8.607  13.533
59521SOL    HW180460   7.214   8.618  13.569
59521SOL    HW280461   7.302   8.660  13.454
59522SOL     OW80462   4.543   5.170   1.477
59522SOL    HW180463   4.566   5.214   1.559
59522SOL    HW280464   4.525   5.080   1.502
59523SOL     OW80465  12.868   2.961  11.490
59523SOL    HW180466  12.908   3.006  11.415
59523SOL    HW280467  12.856   2.871  11.460
59524SOL     OW80468  13.866   7.234   6.827
59524SOL    HW180469  13.843   7.199   6.912
59524SOL    HW280470  13.876   7.158   6.770
59525SOL     OW80471   3.315   1.749  12.212
59525SOL    HW180472   3.354   1.797  12.140
59525SOL    HW280473   3.389   1.709  12.258
59526SOL     OW80474  12.319  11.115   3.234
59526SOL    HW180475  12.358  11.171   3.167
59526SOL    HW280476  12.394  11.073   3.276
59527SOL     OW80477   6.755   0.249   6.315
59527SOL    HW180478   6.842   0.225   6.345
59527SOL    HW280479   6.769   0.320   6.253
59528SOL     OW80480   2.629   4.535  11.679
59528SOL    HW180481   2.637   4.564  11.771
59528SOL    HW280482   2.662   4.609  11.628
59529SOL     OW80483   7.176  13.696   3.037
59529SOL    HW180484   7.251  13.640   3.019
59529SOL    HW280485   7.207  13.758   3.102
59530SOL     OW80486   3.990  14.809   7.725
59530SOL    HW180487   3.923  14.777   7.786
59530SOL    HW280488   3.947   0.010   7.678
59531SOL     OW80489   8.433   0.601   2.276
59531SOL    HW180490   8.484   0.529   2.239
59531SOL    HW280491   8.353   0.559   2.308
59532SOL     OW80492  11.648   7.215  14.583
59532SOL    HW180493  11.641   7.186  14.492
59532SOL    HW280494  11.741   7.211  14.603
59533SOL     OW80495   7.542   5.662   5.852
59533SOL    HW180496   7.550   5.748   5.892
59533SOL    HW280497   7.629   5.643   5.817
59534SOL     OW80498   4.124   6.390  11.199
59534SOL    HW180499   4.055   6.325  11.211
59534SOL    HW280500   4.154   6.377  11.109
59535SOL     OW80501   8.153   9.746   4.021
59535SOL    HW180502   8.169   9.711   3.933
59535SOL    HW280503   8.239   9.768   4.055
59536SOL     OW80504  10.199  13.399   1.913
59536SOL    HW180505  10.169  13.370   1.827
59536SOL    HW280506  10.230  13.319   1.956
59537SOL     OW80507   3.497   7.432  11.348
59537SOL    HW180508   3.448   7.371  11.293
59537SOL    HW280509   3.561   7.472  11.290
59538SOL     OW80510   4.802  14.001  10.119
59538SOL    HW180511   4.825  13.949  10.042
59538SOL    HW280512   4.710  13.981  10.136
59539SOL     OW80513  10.381   7.103  10.589
59539SOL    HW180514  10.474   7.099  10.567
59539SOL    HW280515  10.380   7.108  10.685
59540SOL     OW80516   7.281   6.042  14.788
59540SOL    HW180517   7.316   6.028  14.701
59540SOL    HW280518   7.325   5.976  14.843
59541SOL     OW80519  11.397  11.677  14.835
59541SOL    HW180520  11.422  11.613  14.768
59541SOL    HW280521  11.302  11.681  14.830
59542SOL     OW80522   0.699  12.123   2.740
59542SOL    HW180523   0.736  12.146   2.825
59542SOL    HW280524   0.640  12.195   2.718
59543SOL     OW80525   0.581   5.077   8.791
59543SOL    HW180526   0.574   5.055   8.698
59543SOL    HW280527   0.493   5.106   8.816
59544SOL     OW80528  11.250   3.056  11.378
59544SOL    HW180529  11.242   3.013  11.463
59544SOL    HW280530  11.160   3.080  11.355
59545SOL     OW80531   1.779   8.641  11.959
59545SOL    HW180532   1.743   8.698  11.892
59545SOL    HW280533   1.776   8.554  11.920
59546SOL     OW80534  12.362   1.996   1.976
59546SOL    HW180535  12.373   1.909   1.938
59546SOL    HW280536  12.450   2.034   1.973
59547SOL     OW80537   2.863   5.877  14.507
59547SOL    HW180538   2.892   5.896  14.596
59547SOL    HW280539   2.905   5.946  14.454
59548SOL     OW80540   4.712  14.701   9.840
59548SOL    HW180541   4.712  14.768   9.772
59548SOL    HW280542   4.790  14.649   9.823
59549SOL     OW80543   2.317   1.758   0.409
59549SOL    HW180544   2.295   1.760   0.316
59549SOL    HW280545   2.301   1.848   0.440
59550SOL     OW80546   0.385  14.408  12.582
59550SOL    HW180547   0.355  14.319  12.563
59550SOL    HW280548   0.309  14.464  12.566
59551SOL     OW80549   5.715  10.926   9.251
59551SOL    HW180550   5.668  10.848   9.222
59551SOL    HW280551   5.805  10.911   9.222
59552SOL     OW80552   3.375   9.686  12.532
59552SOL    HW180553   3.376   9.781  12.534
59552SOL    HW280554   3.285   9.662  12.552
59553SOL     OW80555   0.535   4.921   6.601
59553SOL    HW180556   0.569   4.917   6.691
59553SOL    HW280557   0.580   4.850   6.555
59554SOL     OW80558   2.941  13.564   3.972
59554SOL    HW180559   3.028  13.594   3.944
59554SOL    HW280560   2.916  13.626   4.040
59555SOL     OW80561   4.387  10.415   8.144
59555SOL    HW180562   4.351  10.431   8.056
59555SOL    HW280563   4.482  10.414   8.131
59556SOL     OW80564  12.276  14.663   6.553
59556SOL    HW180565  12.199  14.607   6.566
59556SOL    HW280566  12.344  14.603   6.522
59557SOL     OW80567  12.035  11.997   4.941
59557SOL    HW180568  12.131  11.994   4.936
59557SOL    HW280569  12.015  11.969   5.030
59558SOL     OW80570   1.504   9.112   2.854
59558SOL    HW180571   1.578   9.163   2.821
59558SOL    HW280572   1.488   9.146   2.942
59559SOL     OW80573   4.832   9.318   3.702
59559SOL    HW180574   4.751   9.348   3.744
59559SOL    HW280575   4.828   9.353   3.613
59560SOL     OW80576  14.201   5.290   4.132
59560SOL    HW180577  14.119   5.327   4.101
59560SOL    HW280578  14.250   5.269   4.052
59561SOL     OW80579   5.091   6.841   8.073
59561SOL    HW180580   5.015   6.823   8.017
59561SOL    HW280581   5.164   6.796   8.029
59562SOL     OW80582  10.032   5.480   6.992
59562SOL    HW180583  10.029   5.392   6.955
59562SOL    HW280584   9.990   5.535   6.926
59563SOL     OW80585   1.682   5.842   3.319
59563SOL    HW180586   1.677   5.780   3.246
59563SOL    HW280587   1.702   5.926   3.278
59564SOL     OW80588   2.221   1.228   0.776
59564SOL    HW180589   2.155   1.165   0.805
59564SOL    HW280590   2.240   1.202   0.686
59565SOL     OW80591   3.028   6.941  10.646
59565SOL    HW180592   2.960   6.996  10.683
59565SOL    HW280593   3.060   6.991  10.570
59566SOL     OW80594  12.663   0.274   1.869
59566SOL    HW180595  12.672   0.179   1.873
59566SOL    HW280596  12.725   0.307   1.933
59567SOL     OW80597  14.376   1.195   1.868
59567SOL    HW180598  14.373   1.114   1.817
59567SOL    HW280599  14.297   1.243   1.842
59568SOL     OW80600  10.297   5.633   1.714
59568SOL    HW180601  10.349   5.646   1.794
59568SOL    HW280602  10.346   5.568   1.664
59569SOL     OW80603  13.160   7.089  11.247
59569SOL    HW180604  13.156   6.993  11.245
59569SOL    HW280605  13.138   7.112  11.337
59570SOL     OW80606   6.736   3.545  10.127
59570SOL    HW180607   6.645   3.567  10.150
59570SOL    HW280608   6.728   3.484  10.053
59571SOL     OW80609   0.378   7.264   1.845
59571SOL    HW180610   0.309   7.327   1.821
59571SOL    HW280611   0.344   7.221   1.924
59572SOL     OW80612  14.329   3.521   2.814
59572SOL    HW180613  14.303   3.529   2.723
59572SOL    HW280614  14.371   3.605   2.834
59573SOL     OW80615  10.452   6.441   0.786
59573SOL    HW180616  10.425   6.491   0.863
59573SOL    HW280617  10.512   6.499   0.740
59574SOL     OW80618   4.498   3.425   0.258
59574SOL    HW180619   4.477   3.375   0.337
59574SOL    HW280620   4.528   3.359   0.196
59575SOL     OW80621  14.715  10.115   2.367
59575SOL    HW180622  14.629  10.134   2.404
59575SOL    HW280623  14.705  10.133   2.273
59576SOL     OW80624   8.854   9.015  12.685
59576SOL    HW180625   8.867   9.018  12.590
59576SOL    HW280626   8.844   8.922  12.705
59577SOL     OW80627   1.420   0.690  12.300
59577SOL    HW180628   1.474   0.762  12.331
59577SOL    HW280629   1.462   0.612  12.336
59578SOL     OW80630   3.776   3.952   3.330
59578SOL    HW180631   3.786   3.979   3.239
59578SOL    HW280632   3.865   3.948   3.365
59579SOL     OW80633  10.005  11.014   6.985
59579SOL    HW180634  10.058  11.093   6.985
59579SOL    HW280635  10.042  10.960   7.055
59580SOL     OW80636   8.541   3.581  13.225
59580SOL    HW180637   8.581   3.524  13.159
59580SOL    HW280638   8.494   3.522  13.284
59581SOL     OW80639   6.356  14.773   9.973
59581SOL    HW180640   6.434  14.824   9.997
59581SOL    HW280641   6.328  14.810   9.889
59582SOL     OW80642   2.497   0.762  10.611
59582SOL    HW180643   2.409   0.787  10.582
59582SOL    HW280644   2.541   0.845  10.627
59583SOL     OW80645  12.283   5.655  14.783
59583SOL    HW180646  12.326   5.596  14.722
59583SOL    HW280647  12.211   5.693  14.733
59584SOL     OW80648   5.682   6.616   1.548
59584SOL    HW180649   5.644   6.590   1.464
59584SOL    HW280650   5.776   6.606   1.535
59585SOL     OW80651   0.472  12.500   9.174
59585SOL    HW180652   0.549  12.444   9.171
59585SOL    HW280653   0.435  12.485   9.261
59586SOL     OW80654  13.005  11.099  12.060
59586SOL    HW180655  12.995  11.151  11.981
59586SOL    HW280656  12.952  11.143  12.126
59587SOL     OW80657   3.190   2.894   1.900
59587SOL    HW180658   3.280   2.864   1.884
59587SOL    HW280659   3.153   2.829   1.960
59588SOL     OW80660   9.327   0.474   5.176
59588SOL    HW180661   9.316   0.413   5.104
59588SOL    HW280662   9.247   0.526   5.176
59589SOL     OW80663   6.500   4.520   6.137
59589SOL    HW180664   6.592   4.501   6.152
59589SOL    HW280665   6.500   4.596   6.079
59590SOL     OW80666   5.979   6.351   0.943
59590SOL    HW180667   5.902   6.361   0.999
59590SOL    HW280668   5.948   6.374   0.856
59591SOL     OW80669   6.817  12.684   9.919
59591SOL    HW180670   6.761  12.685   9.997
59591SOL    HW280671   6.755  12.689   9.846
59592SOL     OW80672   4.599  11.873   5.502
59592SOL    HW180673   4.506  11.885   5.524
59592SOL    HW280674   4.636  11.830   5.579
59593SOL     OW80675   4.371   0.084   6.863
59593SOL    HW180676   4.399   0.080   6.772
59593SOL    HW280677   4.403   0.169   6.894
59594SOL     OW80678   7.877   7.451   3.423
59594SOL    HW180679   7.891   7.365   3.383
59594SOL    HW280680   7.912   7.442   3.512
59595SOL     OW80681   4.283  12.093   6.833
59595SOL    HW180682   4.371  12.076   6.797
59595SOL    HW280683   4.229  12.023   6.797
59596SOL     OW80684   9.759  12.651  11.802
59596SOL    HW180685   9.801  12.619  11.722
59596SOL    HW280686   9.805  12.732  11.822
59597SOL     OW80687   7.206   6.049   1.789
59597SOL    HW180688   7.214   6.059   1.884
59597SOL    HW280689   7.199   6.139   1.757
59598SOL     OW80690  11.411  11.006   8.487
59598SOL    HW180691  11.373  10.998   8.575
59598SOL    HW280692  11.489  10.950   8.490
59599SOL     OW80693   8.886   0.550   9.189
59599SOL    HW180694   8.896   0.645   9.187
59599SOL    HW280695   8.974   0.517   9.169
59600SOL     OW80696   4.448  10.646  14.073
59600SOL    HW180697   4.479  10.559  14.048
59600SOL    HW280698   4.486  10.705  14.008
59601SOL     OW80699  11.157   8.730  14.751
59601SOL    HW180700  11.111   8.806  14.716
59601SOL    HW280701  11.246   8.762  14.768
59602SOL     OW80702   5.251  11.262  10.450
59602SOL    HW180703   5.247  11.166  10.448
59602SOL    HW280704   5.182  11.287  10.512
59603SOL     OW80705   1.447   6.131   2.198
59603SOL    HW180706   1.538   6.146   2.172
59603SOL    HW280707   1.395   6.156   2.122
59604SOL     OW80708   8.231   4.565  10.947
59604SOL    HW180709   8.161   4.615  10.906
59604SOL    HW280710   8.248   4.493  10.886
59605SOL     OW80711   0.533   7.487  10.383
59605SOL    HW180712   0.498   7.458  10.467
59605SOL    HW280713   0.461   7.532  10.341
59606SOL     OW80714  12.133   4.978   5.259
59606SOL    HW180715  12.088   5.061   5.245
59606SOL    HW280716  12.064   4.912   5.256
59607SOL     OW80717  13.019   9.179   9.477
59607SOL    HW180718  13.020   9.119   9.402
59607SOL    HW280719  12.934   9.165   9.518
59608SOL     OW80720  11.632   6.943   6.840
59608SOL    HW180721  11.677   6.884   6.901
59608SOL    HW280722  11.558   6.977   6.890
59609SOL     OW80723  10.324   9.771   0.284
59609SOL    HW180724  10.357   9.777   0.194
59609SOL    HW280725  10.236   9.808   0.280
59610SOL     OW80726   9.763   1.390   2.457
59610SOL    HW180727   9.677   1.432   2.466
59610SOL    HW280728   9.765   1.360   2.366
59611SOL     OW80729   1.099   9.544   8.533
59611SOL    HW180730   1.122   9.586   8.616
59611SOL    HW280731   1.094   9.451   8.553
59612SOL     OW80732   9.647  10.106   4.205
59612SOL    HW180733   9.716  10.128   4.142
59612SOL    HW280734   9.609  10.190   4.230
59613SOL     OW80735   3.488  10.072   1.351
59613SOL    HW180736   3.515   9.980   1.354
59613SOL    HW280737   3.526  10.105   1.269
59614SOL     OW80738   9.910  14.194  13.398
59614SOL    HW180739   9.905  14.183  13.303
59614SOL    HW280740   9.890  14.107  13.433
59615SOL     OW80741   8.637   2.061  14.128
59615SOL    HW180742   8.637   2.111  14.209
59615SOL    HW280743   8.670   2.122  14.062
59616SOL     OW80744   7.673  13.657  14.665
59616SOL    HW180745   7.655  13.708  14.744
59616SOL    HW280746   7.725  13.582  14.696
59617SOL     OW80747   3.588   9.560   0.453
59617SOL    HW180748   3.645   9.501   0.501
59617SOL    HW280749   3.636   9.582   0.374
59618SOL     OW80750   6.285   5.649   1.362
59618SOL    HW180751   6.223   5.580   1.387
59618SOL    HW280752   6.236   5.703   1.299
59619SOL     OW80753   0.839   4.867   9.393
59619SOL    HW180754   0.921   4.914   9.409
59619SOL    HW280755   0.826   4.814   9.472
59620SOL     OW80756  10.835  13.547   6.808
59620SOL    HW180757  10.891  13.586   6.741
59620SOL    HW280758  10.887  13.551   6.888
59621SOL     OW80759   7.419  10.315   2.923
59621SOL    HW180760   7.430  10.335   2.830
59621SOL    HW280761   7.506  10.329   2.961
59622SOL     OW80762   2.099   2.438   7.176
59622SOL    HW180763   2.083   2.511   7.236
59622SOL    HW280764   2.170   2.389   7.217
59623SOL     OW80765  12.057  10.066  11.575
59623SOL    HW180766  11.967  10.044  11.596
59623SOL    HW280767  12.106  10.048  11.656
59624SOL     OW80768   3.590   2.084  10.924
59624SOL    HW180769   3.539   2.021  10.872
59624SOL    HW280770   3.569   2.169  10.885
59625SOL     OW80771   4.910  13.230  12.310
59625SOL    HW180772   4.961  13.218  12.229
59625SOL    HW280773   4.897  13.142  12.344
59626SOL     OW80774   9.728   0.256   9.767
59626SOL    HW180775   9.642   0.293   9.789
59626SOL    HW280776   9.772   0.326   9.718
59627SOL     OW80777   8.166   1.066   4.645
59627SOL    HW180778   8.094   1.014   4.682
59627SOL    HW280779   8.201   1.115   4.720
59628SOL     OW80780   1.390  14.472   1.488
59628SOL    HW180781   1.348  14.545   1.532
59628SOL    HW280782   1.372  14.485   1.395
59629SOL     OW80783   5.811   7.582   4.676
59629SOL    HW180784   5.805   7.489   4.656
59629SOL    HW280785   5.776   7.590   4.765
59630SOL     OW80786   7.010   2.944   0.200
59630SOL    HW180787   7.077   2.880   0.223
59630SOL    HW280788   7.030   3.020   0.254
59631SOL     OW80789   2.116   9.453   5.228
59631SOL    HW180790   2.201   9.458   5.183
59631SOL    HW280791   2.096   9.360   5.232
59632SOL     OW80792   1.770  10.554  11.782
59632SOL    HW180793   1.696  10.504  11.815
59632SOL    HW280794   1.779  10.627  11.844
59633SOL     OW80795   8.659  11.005  11.452
59633SOL    HW180796   8.615  10.932  11.408
59633SOL    HW280797   8.698  10.966  11.530
59634SOL     OW80798  10.709  12.698   1.225
59634SOL    HW180799  10.706  12.641   1.302
59634SOL    HW280800  10.795  12.680   1.186
59635SOL     OW80801   7.813   7.189   8.033
59635SOL    HW180802   7.801   7.099   8.002
59635SOL    HW280803   7.879   7.225   7.974
59636SOL     OW80804   1.985   5.208  11.559
59636SOL    HW180805   1.938   5.135  11.599
59636SOL    HW280806   1.969   5.282  11.617
59637SOL     OW80807   2.350  12.607  12.360
59637SOL    HW180808   2.359  12.595  12.455
59637SOL    HW280809   2.424  12.662  12.336
59638SOL     OW80810  13.013   4.313   4.996
59638SOL    HW180811  13.009   4.219   4.982
59638SOL    HW280812  12.930   4.347   4.962
59639SOL     OW80813   2.205  14.377   2.346
59639SOL    HW180814   2.247  14.431   2.280
59639SOL    HW280815   2.156  14.311   2.296
59640SOL     OW80816   2.595  11.467  13.266
59640SOL    HW180817   2.500  11.467  13.276
59640SOL    HW280818   2.608  11.449  13.173
59641SOL     OW80819  13.683   8.826   3.657
59641SOL    HW180820  13.689   8.900   3.596
59641SOL    HW280821  13.614   8.851   3.718
59642SOL     OW80822   0.055  13.719   5.202
59642SOL    HW180823  14.871  13.707   5.279
59642SOL    HW280824   0.128  13.773   5.233
59643SOL     OW80825  10.022  14.274  12.744
59643SOL    HW180826  10.094  14.214  12.725
59643SOL    HW280827  10.063  14.345  12.793
59644SOL     OW80828   4.088   5.030   8.725
59644SOL    HW180829   4.096   5.117   8.687
59644SOL    HW280830   4.161   5.024   8.787
59645SOL     OW80831   2.882  11.830   0.853
59645SOL    HW180832   2.849  11.744   0.828
59645SOL    HW280833   2.828  11.855   0.929
59646SOL     OW80834   6.798  10.684  11.931
59646SOL    HW180835   6.859  10.634  11.876
59646SOL    HW280836   6.752  10.617  11.982
59647SOL     OW80837  10.965  14.246   0.550
59647SOL    HW180838  10.878  14.227   0.585
59647SOL    HW280839  10.949  14.272   0.459
59648SOL     OW80840   9.115   1.909   7.847
59648SOL    HW180841   9.143   1.832   7.796
59648SOL    HW280842   9.174   1.910   7.922
59649SOL     OW80843   8.406   9.371   5.088
59649SOL    HW180844   8.426   9.441   5.026
59649SOL    HW280845   8.421   9.410   5.174
59650SOL     OW80846  14.346  11.903  14.592
59650SOL    HW180847  14.280  11.897  14.661
59650SOL    HW280848  14.366  11.996  14.585
59651SOL     OW80849  10.741  13.851   0.520
59651SOL    HW180850  10.826  13.864   0.478
59651SOL    HW280851  10.678  13.858   0.449
59652SOL     OW80852  13.275   1.314  11.230
59652SOL    HW180853  13.334   1.389  11.238
59652SOL    HW280854  13.187   1.351  11.239
59653SOL     OW80855   4.738   9.518   1.610
59653SOL    HW180856   4.786   9.460   1.551
59653SOL    HW280857   4.780   9.507   1.695
59654SOL     OW80858  10.672   8.688  14.466
59654SOL    HW180859  10.705   8.778  14.469
59654SOL    HW280860  10.636   8.679  14.378
59655SOL     OW80861   1.811   8.513   6.882
59655SOL    HW180862   1.740   8.518   6.819
59655SOL    HW280863   1.768   8.499   6.966
59656SOL     OW80864   9.511   8.230   4.567
59656SOL    HW180865   9.513   8.247   4.473
59656SOL    HW280866   9.603   8.235   4.594
59657SOL     OW80867   9.884   7.477   4.922
59657SOL    HW180868   9.808   7.441   4.876
59657SOL    HW280869   9.886   7.430   5.005
59658SOL     OW80870  12.020   6.610   1.192
59658SOL    HW180871  11.964   6.686   1.208
59658SOL    HW280872  12.073   6.602   1.272
59659SOL     OW80873   7.445   2.620   2.673
59659SOL    HW180874   7.474   2.617   2.582
59659SOL    HW280875   7.350   2.633   2.668
59660SOL     OW80876  12.339   6.902   9.540
59660SOL    HW180877  12.364   6.847   9.614
59660SOL    HW280878  12.413   6.963   9.530
59661SOL     OW80879  10.041   8.416  12.525
59661SOL    HW180880  10.060   8.420  12.431
59661SOL    HW280881  10.069   8.502  12.558
59662SOL     OW80882   6.560  14.002  11.470
59662SOL    HW180883   6.503  14.006  11.393
59662SOL    HW280884   6.515  14.055  11.535
59663SOL     OW80885   5.980   8.911  12.603
59663SOL    HW180886   6.045   8.928  12.535
59663SOL    HW280887   6.024   8.935  12.685
59664SOL     OW80888   8.339  14.264   8.498
59664SOL    HW180889   8.393  14.185   8.507
59664SOL    HW280890   8.337  14.301   8.586
59665SOL     OW80891   4.624   8.545   9.315
59665SOL    HW180892   4.617   8.635   9.283
59665SOL    HW280893   4.608   8.551   9.409
59666SOL     OW80894  10.691   3.684   6.685
59666SOL    HW180895  10.785   3.672   6.697
59666SOL    HW280896  10.652   3.648   6.765
59667SOL     OW80897   3.077   4.371   4.813
59667SOL    HW180898   3.001   4.374   4.871
59667SOL    HW280899   3.149   4.407   4.865
59668SOL     OW80900  10.233   6.653  12.988
59668SOL    HW180901  10.236   6.744  13.019
59668SOL    HW280902  10.314   6.614  13.020
59669SOL     OW80903   0.182  13.751   3.751
59669SOL    HW180904   0.275  13.771   3.766
59669SOL    HW280905   0.171  13.663   3.787
59670SOL     OW80906   7.213   2.785   4.883
59670SOL    HW180907   7.166   2.740   4.953
59670SOL    HW280908   7.237   2.716   4.822
59671SOL     OW80909   2.353  10.048  14.295
59671SOL    HW180910   2.437  10.035  14.251
59671SOL    HW280911   2.353   9.984  14.366
59672SOL     OW80912   1.660   0.508   0.945
59672SOL    HW180913   1.568   0.485   0.954
59672SOL    HW280914   1.665   0.557   0.863
59673SOL     OW80915   0.903   1.821  12.075
59673SOL    HW180916   0.904   1.916  12.088
59673SOL    HW280917   0.975   1.804  12.015
59674SOL     OW80918   0.804  13.146  10.154
59674SOL    HW180919   0.781  13.217  10.095
59674SOL    HW280920   0.812  13.069  10.098
59675SOL     OW80921   9.905  11.783   8.827
59675SOL    HW180922   9.872  11.727   8.757
59675SOL    HW280923   9.832  11.793   8.887
59676SOL     OW80924  10.449   3.024  13.615
59676SOL    HW180925  10.484   3.069  13.692
59676SOL    HW280926  10.377   2.971  13.649
59677SOL     OW80927   8.684   6.837   8.444
59677SOL    HW180928   8.632   6.889   8.505
59677SOL    HW280929   8.622   6.808   8.378
59678SOL     OW80930   6.628  10.092   0.535
59678SOL    HW180931   6.719  10.062   0.546
59678SOL    HW280932   6.619  10.107   0.441
59679SOL     OW80933   7.924   3.944  13.173
59679SOL    HW180934   7.934   4.016  13.236
59679SOL    HW280935   7.831   3.920  13.179
59680SOL     OW80936  11.040   5.428  10.039
59680SOL    HW180937  11.041   5.523  10.029
59680SOL    HW280938  11.132   5.402  10.031
59681SOL     OW80939   8.327   2.842   8.060
59681SOL    HW180940   8.301   2.884   7.978
59681SOL    HW280941   8.258   2.865   8.122
59682SOL     OW80942   5.791   6.405   2.455
59682SOL    HW180943   5.763   6.420   2.365
59682SOL    HW280944   5.738   6.464   2.508
59683SOL     OW80945   6.349   5.279   8.958
59683SOL    HW180946   6.322   5.318   8.875
59683SOL    HW280947   6.369   5.354   9.014
59684SOL     OW80948   1.917  14.570   7.733
59684SOL    HW180949   1.862  14.494   7.750
59684SOL    HW280950   1.855  14.643   7.724
59685SOL     OW80951   8.037   2.108   3.879
59685SOL    HW180952   8.105   2.041   3.893
59685SOL    HW280953   7.955   2.058   3.876
59686SOL     OW80954   1.879  12.336  13.341
59686SOL    HW180955   1.810  12.275  13.368
59686SOL    HW280956   1.961  12.291  13.360
59687SOL     OW80957   4.091   8.556   5.659
59687SOL    HW180958   4.132   8.565   5.745
59687SOL    HW280959   4.164   8.561   5.598
59688SOL     OW80960   1.168  11.737   6.326
59688SOL    HW180961   1.159  11.783   6.242
59688SOL    HW280962   1.103  11.667   6.322
59689SOL     OW80963   9.698  13.479  14.035
59689SOL    HW180964   9.646  13.451  13.959
59689SOL    HW280965   9.759  13.544  14.000
59690SOL     OW80966   1.678  10.662   8.219
59690SOL    HW180967   1.750  10.616   8.263
59690SOL    HW280968   1.691  10.754   8.243
59691SOL     OW80969  10.203   4.341  13.280
59691SOL    HW180970  10.147   4.334  13.358
59691SOL    HW280971  10.286   4.374  13.313
59692SOL     OW80972  13.082  13.152  14.561
59692SOL    HW180973  13.039  13.077  14.518
59692SOL    HW280974  13.021  13.177  14.630
59693SOL     OW80975   0.823   8.013  11.185
59693SOL    HW180976   0.889   8.013  11.255
59693SOL    HW280977   0.872   7.987  11.107
59694SOL     OW80978  14.211   0.513   3.432
59694SOL    HW180979  14.160   0.432   3.437
59694SOL    HW280980  14.229   0.536   3.523
59695SOL     OW80981  12.983   5.368   9.238
59695SOL    HW180982  13.022   5.294   9.192
59695SOL    HW280983  12.995   5.348   9.331
59696SOL     OW80984  11.629   8.221   2.962
59696SOL    HW180985  11.682   8.240   3.040
59696SOL    HW280986  11.634   8.302   2.911
59697SOL     OW80987  10.733   1.775   1.662
59697SOL    HW180988  10.779   1.827   1.596
59697SOL    HW280989  10.744   1.685   1.632
59698SOL     OW80990   2.806   3.603   1.285
59698SOL    HW180991   2.895   3.573   1.265
59698SOL    HW280992   2.772   3.634   1.201
59699SOL     OW80993   4.882   7.561   8.310
59699SOL    HW180994   4.963   7.576   8.359
59699SOL    HW280995   4.856   7.472   8.333
59700SOL     OW80996   8.184  12.446  10.660
59700SOL    HW180997   8.274  12.471  10.679
59700SOL    HW280998   8.138  12.454  10.744
59701SOL     OW80999  14.642   7.008   7.890
59701SOL    HW181000  14.719   7.061   7.907
59701SOL    HW281001  14.640   6.944   7.962
59702SOL     OW81002   5.429   6.485  14.744
59702SOL    HW181003   5.364   6.484  14.673
59702SOL    HW281004   5.489   6.556  14.721
59703SOL     OW81005  14.739  10.353   7.208
59703SOL    HW181006  14.667  10.388   7.260
59703SOL    HW281007  14.716  10.376   7.118
59704SOL     OW81008   2.939  10.358   2.355
59704SOL    HW181009   2.998  10.387   2.424
59704SOL    HW281010   2.993  10.357   2.276
59705SOL     OW81011   8.318  13.788   3.586
59705SOL    HW181012   8.246  13.756   3.531
59705SOL    HW281013   8.277  13.810   3.670
59706SOL     OW81014   2.073  10.297   8.298
59706SOL    HW181015   2.096  10.337   8.382
59706SOL    HW281016   2.127  10.343   8.233
59707SOL     OW81017   1.881   2.213   3.564
59707SOL    HW181018   1.848   2.159   3.635
59707SOL    HW281019   1.884   2.154   3.489
59708SOL     OW81020   1.912   7.833  14.085
59708SOL    HW181021   1.922   7.796  14.172
59708SOL    HW281022   1.993   7.883  14.071
59709SOL     OW81023   5.325   0.720   6.896
59709SOL    HW181024   5.370   0.799   6.870
59709SOL    HW281025   5.234   0.747   6.911
59710SOL     OW81026   8.123   9.400   9.614
59710SOL    HW181027   8.079   9.465   9.560
59710SOL    HW281028   8.139   9.326   9.555
59711SOL     OW81029   0.510  11.780   0.598
59711SOL    HW181030   0.522  11.872   0.576
59711SOL    HW281031   0.592  11.738   0.570
59712SOL     OW81032   3.756  13.269  12.304
59712SOL    HW181033   3.833  13.232  12.261
59712SOL    HW281034   3.777  13.266  12.398
59713SOL     OW81035  10.343   5.207   8.331
59713SOL    HW181036  10.291   5.127   8.332
59713SOL    HW281037  10.324   5.248   8.247
59714SOL     OW81038   9.624  13.557  10.065
59714SOL    HW181039   9.709  13.516  10.047
59714SOL    HW281040   9.642  13.617  10.138
59715SOL     OW81041   0.937   0.954   2.944
59715SOL    HW181042   1.006   0.888   2.944
59715SOL    HW281043   0.895   0.943   2.858
59716SOL     OW81044   5.299   9.192  12.640
59716SOL    HW181045   5.346   9.271  12.616
59716SOL    HW281046   5.209   9.207  12.609
59717SOL     OW81047   4.322   3.838   7.177
59717SOL    HW181048   4.382   3.782   7.128
59717SOL    HW281049   4.379   3.889   7.235
59718SOL     OW81050   9.162  12.630   3.709
59718SOL    HW181051   9.069  12.647   3.725
59718SOL    HW281052   9.179  12.545   3.750
59719SOL     OW81053  14.085   1.159   4.387
59719SOL    HW181054  14.057   1.096   4.454
59719SOL    HW281055  14.035   1.238   4.406
59720SOL     OW81056  14.022   6.490  14.013
59720SOL    HW181057  14.114   6.514  14.005
59720SOL    HW281058  14.014   6.412  13.958
59721SOL     OW81059  13.014   0.715   0.172
59721SOL    HW181060  13.035   0.633   0.217
59721SOL    HW281061  12.935   0.746   0.215
59722SOL     OW81062   6.953  10.126   2.845
59722SOL    HW181063   7.039  10.131   2.886
59722SOL    HW281064   6.921  10.217   2.847
59723SOL     OW81065  13.643  11.524  11.687
59723SOL    HW181066  13.586  11.474  11.746
59723SOL    HW281067  13.719  11.467  11.674
59724SOL     OW81068   1.311   6.102   7.163
59724SOL    HW181069   1.289   6.077   7.253
59724SOL    HW281070   1.308   6.198   7.163
59725SOL     OW81071   1.175   6.751   2.973
59725SOL    HW181072   1.198   6.844   2.965
59725SOL    HW281073   1.247   6.705   2.929
59726SOL     OW81074   7.754   5.568  12.881
59726SOL    HW181075   7.733   5.658  12.904
59726SOL    HW281076   7.715   5.555  12.795
59727SOL     OW81077   3.693   6.853   2.684
59727SOL    HW181078   3.620   6.910   2.661
59727SOL    HW281079   3.721   6.882   2.771
59728SOL     OW81080  13.455   6.355   9.833
59728SOL    HW181081  13.448   6.313   9.747
59728SOL    HW281082  13.508   6.294   9.885
59729SOL     OW81083  10.945  10.459   7.078
59729SOL    HW181084  10.934  10.544   7.034
59729SOL    HW281085  10.958  10.397   7.006
59730SOL     OW81086   6.877   4.141   3.691
59730SOL    HW181087   6.844   4.208   3.632
59730SOL    HW281088   6.934   4.086   3.637
59731SOL     OW81089   1.161   1.979  14.824
59731SOL    HW181090   1.199   1.988  14.736
59731SOL    HW281091   1.103   2.055  14.833
59732SOL     OW81092   4.256   1.641   1.313
59732SOL    HW181093   4.229   1.568   1.369
59732SOL    HW281094   4.178   1.695   1.303
59733SOL     OW81095  10.860   4.761  13.480
59733SOL    HW181096  10.906   4.825  13.426
59733SOL    HW281097  10.769   4.766  13.452
59734SOL     OW81098   5.937   2.214  14.545
59734SOL    HW181099   5.986   2.174  14.472
59734SOL    HW281100   5.921   2.142  14.605
59735SOL     OW81101  12.891   6.101  11.974
59735SOL    HW181102  12.968   6.151  11.999
59735SOL    HW281103  12.910   6.012  12.003
59736SOL     OW81104  14.482   2.344   8.326
59736SOL    HW181105  14.552   2.307   8.381
59736SOL    HW281106  14.500   2.438   8.326
59737SOL     OW81107  12.964   4.436   2.757
59737SOL    HW181108  12.928   4.347   2.763
59737SOL    HW281109  12.985   4.447   2.664
59738SOL     OW81110   7.823   2.729   7.899
59738SOL    HW181111   7.832   2.644   7.855
59738SOL    HW281112   7.895   2.731   7.962
59739SOL     OW81113   3.590   0.592   4.401
59739SOL    HW181114   3.583   0.687   4.391
59739SOL    HW281115   3.545   0.557   4.325
59740SOL     OW81116   1.280   7.256  13.024
59740SOL    HW181117   1.285   7.166  12.990
59740SOL    HW281118   1.280   7.246  13.119
59741SOL     OW81119   5.611  14.107  12.533
59741SOL    HW181120   5.547  14.157  12.582
59741SOL    HW281121   5.687  14.102  12.591
59742SOL     OW81122  14.168   6.266   0.722
59742SOL    HW181123  14.130   6.186   0.758
59742SOL    HW281124  14.225   6.235   0.651
59743SOL     OW81125   0.173  12.527  12.820
59743SOL    HW181126   0.121  12.451  12.792
59743SOL    HW281127   0.208  12.563  12.739
59744SOL     OW81128  12.485  11.670   4.185
59744SOL    HW181129  12.423  11.720   4.131
59744SOL    HW281130  12.557  11.650   4.126
59745SOL     OW81131   1.684   8.657   0.347
59745SOL    HW181132   1.590   8.640   0.356
59745SOL    HW281133   1.692   8.752   0.356
59746SOL     OW81134  12.118   5.966   3.250
59746SOL    HW181135  12.186   5.968   3.183
59746SOL    HW281136  12.102   5.873   3.265
59747SOL     OW81137  14.348  12.898  14.521
59747SOL    HW181138  14.349  12.987  14.555
59747SOL    HW281139  14.440  12.871  14.521
59748SOL     OW81140  11.886  11.407   3.251
59748SOL    HW181141  11.894  11.313   3.263
59748SOL    HW281142  11.891  11.420   3.156
59749SOL     OW81143  13.473   3.242  10.720
59749SOL    HW181144  13.428   3.222  10.802
59749SOL    HW281145  13.419   3.309  10.678
59750SOL     OW81146  13.464  11.771   6.205
59750SOL    HW181147  13.370  11.756   6.205
59750SOL    HW281148  13.497  11.718   6.133
59751SOL     OW81149   8.009   4.441   1.669
59751SOL    HW181150   7.940   4.479   1.616
59751SOL    HW281151   8.074   4.510   1.679
59752SOL     OW81152   5.145   3.593   1.361
59752SOL    HW181153   5.221   3.618   1.308
59752SOL    HW281154   5.176   3.598   1.451
59753SOL     OW81155   9.186   1.383  12.246
59753SOL    HW181156   9.239   1.324  12.192
59753SOL    HW281157   9.237   1.394  12.326
59754SOL     OW81158   0.681  10.944   4.083
59754SOL    HW181159   0.704  10.950   3.990
59754SOL    HW281160   0.603  10.888   4.085
59755SOL     OW81161  13.837   3.737   2.903
59755SOL    HW181162  13.918   3.687   2.919
59755SOL    HW281163  13.825   3.732   2.808
59756SOL     OW81164   9.285  12.537  14.274
59756SOL    HW181165   9.306  12.473  14.207
59756SOL    HW281166   9.364  12.591  14.282
59757SOL     OW81167  14.811   5.647  10.935
59757SOL    HW181168  14.719   5.673  10.931
59757SOL    HW281169  14.852   5.693  10.862
59758SOL     OW81170   2.065   8.619   1.176
59758SOL    HW181171   2.037   8.540   1.222
59758SOL    HW281172   1.989   8.646   1.125
59759SOL     OW81173   1.665  13.340   6.442
59759SOL    HW181174   1.743  13.383   6.477
59759SOL    HW281175   1.699  13.264   6.394
59760SOL     OW81176  12.156   7.439   3.000
59760SOL    HW181177  12.159   7.467   3.092
59760SOL    HW281178  12.080   7.380   2.996
59761SOL     OW81179   4.586   1.352   0.465
59761SOL    HW181180   4.541   1.401   0.396
59761SOL    HW281181   4.676   1.382   0.461
59762SOL     OW81182   3.181   0.487  12.565
59762SOL    HW181183   3.132   0.428  12.508
59762SOL    HW281184   3.170   0.573  12.527
59763SOL     OW81185  13.751   3.275   8.763
59763SOL    HW181186  13.677   3.335   8.761
59763SOL    HW281187  13.772   3.265   8.856
59764SOL     OW81188   3.983  10.586   2.235
59764SOL    HW181189   3.893  10.562   2.255
59764SOL    HW281190   4.026  10.503   2.214
59765SOL     OW81191   6.516   5.253   7.089
59765SOL    HW181192   6.507   5.280   7.180
59765SOL    HW281193   6.426   5.240   7.059
59766SOL     OW81194  10.149  13.407   6.167
59766SOL    HW181195  10.066  13.397   6.120
59766SOL    HW281196  10.216  13.394   6.099
59767SOL     OW81197   2.116   7.824   4.627
59767SOL    HW181198   2.095   7.859   4.540
59767SOL    HW281199   2.201   7.781   4.615
59768SOL     OW81200   4.108   2.309   2.656
59768SOL    HW181201   4.076   2.247   2.722
59768SOL    HW281202   4.029   2.355   2.627
59769SOL     OW81203  12.914   3.184   9.782
59769SOL    HW181204  12.971   3.254   9.812
59769SOL    HW281205  12.931   3.111   9.842
59770SOL     OW81206  13.526   1.597   9.644
59770SOL    HW181207  13.454   1.570   9.701
59770SOL    HW281208  13.514   1.691   9.634
59771SOL     OW81209   1.780   2.903   7.628
59771SOL    HW181210   1.856   2.849   7.650
59771SOL    HW281211   1.793   2.983   7.679
59772SOL     OW81212   5.419  11.020   4.682
59772SOL    HW181213   5.497  11.000   4.734
59772SOL    HW281214   5.367  10.939   4.685
59773SOL     OW81215   3.725   6.017   6.375
59773SOL    HW181216   3.729   5.926   6.346
59773SOL    HW281217   3.664   6.059   6.315
59774SOL     OW81218  12.899   2.616   5.240
59774SOL    HW181219  12.875   2.537   5.192
59774SOL    HW281220  12.862   2.604   5.327
59775SOL     OW81221   1.625   5.584   9.986
59775SOL    HW181222   1.533   5.563   9.970
59775SOL    HW281223   1.643   5.550  10.073
59776SOL     OW81224   1.057  12.162   8.675
59776SOL    HW181225   1.009  12.140   8.755
59776SOL    HW281226   1.095  12.248   8.694
59777SOL     OW81227   0.429   0.093   3.495
59777SOL    HW181228   0.416  14.870   3.499
59777SOL    HW281229   0.524   0.104   3.498
59778SOL     OW81230   7.865   6.563   0.909
59778SOL    HW181231   7.874   6.601   0.822
59778SOL    HW281232   7.896   6.630   0.968
59779SOL     OW81233   2.859  10.537  11.219
59779SOL    HW181234   2.798  10.604  11.249
59779SOL    HW281235   2.829  10.456  11.260
59780SOL     OW81236   8.934  14.264   4.005
59780SOL    HW181237   8.996  14.305   3.945
59780SOL    HW281238   8.862  14.327   4.013
59781SOL     OW81239  10.914  13.505   7.958
59781SOL    HW181240  10.849  13.446   7.997
59781SOL    HW281241  10.953  13.550   8.033
59782SOL     OW81242   2.221   0.816   5.989
59782SOL    HW181243   2.238   0.867   6.069
59782SOL    HW281244   2.149   0.758   6.012
59783SOL     OW81245   5.605   1.907  12.094
59783SOL    HW181246   5.672   1.975  12.110
59783SOL    HW281247   5.587   1.871  12.181
59784SOL     OW81248   8.394   5.831   4.542
59784SOL    HW181249   8.483   5.797   4.539
59784SOL    HW281250   8.377   5.843   4.636
59785SOL     OW81251   7.743   4.519   4.724
59785SOL    HW181252   7.652   4.520   4.755
59785SOL    HW281253   7.790   4.574   4.787
59786SOL     OW81254   7.719   4.855  14.577
59786SOL    HW181255   7.640   4.879  14.625
59786SOL    HW281256   7.772   4.806  14.640
59787SOL     OW81257  14.231   5.938  13.746
59787SOL    HW181258  14.325   5.952  13.753
59787SOL    HW281259  14.214   5.859  13.798
59788SOL     OW81260  13.478   6.991   0.779
59788SOL    HW181261  13.405   6.975   0.719
59788SOL    HW281262  13.445   6.964   0.865
59789SOL     OW81263   0.880  12.064   6.894
59789SOL    HW181264   0.914  12.021   6.816
59789SOL    HW281265   0.957  12.099   6.939
59790SOL     OW81266   9.127  12.822   2.613
59790SOL    HW181267   9.164  12.866   2.690
59790SOL    HW281268   9.137  12.729   2.631
59791SOL     OW81269  13.595   0.657  13.594
59791SOL    HW181270  13.610   0.593  13.524
59791SOL    HW281271  13.670   0.717  13.588
59792SOL     OW81272   2.486  11.105   7.321
59792SOL    HW181273   2.550  11.162   7.280
59792SOL    HW281274   2.473  11.034   7.258
59793SOL     OW81275   4.657   4.371   3.726
59793SOL    HW181276   4.750   4.391   3.722
59793SOL    HW281277   4.653   4.287   3.773
59794SOL     OW81278   0.109  11.923   4.537
59794SOL    HW181279   0.178  11.921   4.603
59794SOL    HW281280   0.093  12.016   4.521
59795SOL     OW81281  11.908  10.138   3.712
59795SOL    HW181282  11.814  10.149   3.724
59795SOL    HW281283  11.944  10.226   3.721
59796SOL     OW81284   3.586  13.758   1.761
59796SOL    HW181285   3.642  13.788   1.690
59796SOL    HW281286   3.573  13.835   1.816
59797SOL     OW81287  10.086   5.305   4.802
59797SOL    HW181288  10.022   5.234   4.804
59797SOL    HW281289  10.050   5.368   4.739
59798SOL     OW81290   6.148  14.537   7.159
59798SOL    HW181291   6.159  14.486   7.079
59798SOL    HW281292   6.236  14.542   7.197
59799SOL     OW81293   9.904  13.003  10.076
59799SOL    HW181294   9.929  13.066  10.144
59799SOL    HW281295   9.983  12.994  10.022
59800SOL     OW81296   3.973   8.497   3.317
59800SOL    HW181297   3.996   8.471   3.228
59800SOL    HW281298   4.010   8.429   3.373
59801SOL     OW81299   1.073   5.752   3.365
59801SOL    HW181300   1.014   5.782   3.297
59801SOL    HW281301   1.129   5.687   3.323
59802SOL     OW81302  13.357  13.515   5.655
59802SOL    HW181303  13.421  13.490   5.721
59802SOL    HW281304  13.402  13.578   5.599
59803SOL     OW81305  11.080   9.308  10.044
59803SOL    HW181306  11.043   9.372  10.105
59803SOL    HW281307  11.174   9.311  10.060
59804SOL     OW81308   4.536   8.654   6.055
59804SOL    HW181309   4.524   8.749   6.043
59804SOL    HW281310   4.620   8.635   6.014
59805SOL     OW81311   2.699   9.917   0.967
59805SOL    HW181312   2.661  10.004   0.980
59805SOL    HW281313   2.633   9.857   1.002
59806SOL     OW81314   9.899   5.878   3.574
59806SOL    HW181315   9.918   5.849   3.485
59806SOL    HW281316   9.887   5.972   3.566
59807SOL     OW81317  10.322   9.759  12.439
59807SOL    HW181318  10.264   9.834  12.429
59807SOL    HW281319  10.270   9.694  12.487
59808SOL     OW81320   5.481   1.081   8.343
59808SOL    HW181321   5.450   1.088   8.252
59808SOL    HW281322   5.507   1.170   8.366
59809SOL     OW81323  12.703   6.981   0.346
59809SOL    HW181324  12.697   6.939   0.432
59809SOL    HW281325  12.760   6.923   0.295
59810SOL     OW81326   9.067   0.816   8.717
59810SOL    HW181327   9.003   0.886   8.705
59810SOL    HW281328   9.020   0.749   8.768
59811SOL     OW81329   6.685   8.412   5.015
59811SOL    HW181330   6.656   8.321   5.011
59811SOL    HW281331   6.636   8.450   5.087
59812SOL     OW81332  11.934   6.976  14.649
59812SOL    HW181333  11.963   7.017  14.731
59812SOL    HW281334  11.855   6.928  14.673
59813SOL     OW81335  10.534   4.057   5.395
59813SOL    HW181336  10.532   3.972   5.352
59813SOL    HW281337  10.533   4.037   5.488
59814SOL     OW81338  11.480  11.457   9.454
59814SOL    HW181339  11.545  11.488   9.391
59814SOL    HW281340  11.439  11.382   9.411
59815SOL     OW81341   2.136   0.364   4.546
59815SOL    HW181342   2.208   0.353   4.485
59815SOL    HW281343   2.089   0.281   4.545
59816SOL     OW81344   2.140   4.753   4.433
59816SOL    HW181345   2.071   4.739   4.498
59816SOL    HW281346   2.095   4.795   4.360
59817SOL     OW81347   8.434   9.463  14.577
59817SOL    HW181348   8.451   9.440  14.486
59817SOL    HW281349   8.521   9.474  14.616
59818SOL     OW81350  10.990   4.792  13.163
59818SOL    HW181351  10.905   4.836  13.165
59818SOL    HW281352  11.046   4.849  13.110
59819SOL     OW81353   9.615   6.584   1.201
59819SOL    HW181354   9.610   6.550   1.112
59819SOL    HW281355   9.579   6.513   1.255
59820SOL     OW81356   9.207   7.370   8.190
59820SOL    HW181357   9.265   7.437   8.228
59820SOL    HW281358   9.132   7.367   8.250
59821SOL     OW81359   0.499   8.794   3.097
59821SOL    HW181360   0.404   8.807   3.089
59821SOL    HW281361   0.512   8.772   3.189
59822SOL     OW81362   8.123   8.940  10.945
59822SOL    HW181363   8.194   8.993  10.909
59822SOL    HW281364   8.056   8.940  10.877
59823SOL     OW81365   9.773   1.982   3.683
59823SOL    HW181366   9.855   1.947   3.648
59823SOL    HW281367   9.768   2.071   3.647
59824SOL     OW81368  13.721   2.320   0.059
59824SOL    HW181369  13.706   2.244   0.003
59824SOL    HW281370  13.805   2.356   0.030
59825SOL     OW81371   7.862   4.445   2.683
59825SOL    HW181372   7.868   4.455   2.778
59825SOL    HW281373   7.948   4.473   2.651
59826SOL     OW81374   8.234  12.794   8.640
59826SOL    HW181375   8.327  12.814   8.654
59826SOL    HW281376   8.209  12.743   8.716
59827SOL     OW81377  13.138   1.772  12.285
59827SOL    HW181378  13.100   1.762  12.373
59827SOL    HW281379  13.232   1.780  12.300
59828SOL     OW81380  13.830   0.933   8.163
59828SOL    HW181381  13.920   0.903   8.171
59828SOL    HW281382  13.834   1.003   8.098
59829SOL     OW81383   8.705   9.590   3.004
59829SOL    HW181384   8.719   9.526   2.934
59829SOL    HW281385   8.792   9.621   3.027
59830SOL     OW81386  11.855   6.674   6.522
59830SOL    HW181387  11.928   6.731   6.497
59830SOL    HW281388  11.856   6.603   6.458
59831SOL     OW81389   3.564   1.556   5.673
59831SOL    HW181390   3.647   1.590   5.640
59831SOL    HW281391   3.504   1.560   5.598
59832SOL     OW81392  11.991   5.190   8.094
59832SOL    HW181393  12.037   5.251   8.152
59832SOL    HW281394  11.949   5.128   8.153
59833SOL     OW81395   6.089   1.837   4.740
59833SOL    HW181396   6.120   1.769   4.799
59833SOL    HW281397   6.145   1.913   4.760
59834SOL     OW81398   5.726  12.209  11.646
59834SOL    HW181399   5.708  12.146  11.575
59834SOL    HW281400   5.821  12.211  11.652
59835SOL     OW81401   5.055  12.624   5.563
59835SOL    HW181402   5.144  12.605   5.534
59835SOL    HW281403   5.023  12.540   5.599
59836SOL     OW81404   9.316   6.388   2.100
59836SOL    HW181405   9.320   6.306   2.050
59836SOL    HW281406   9.228   6.388   2.138
59837SOL     OW81407   6.403   7.079   0.829
59837SOL    HW181408   6.326   7.061   0.882
59837SOL    HW281409   6.411   7.004   0.771
59838SOL     OW81410   9.598  11.896   0.435
59838SOL    HW181411   9.509  11.867   0.454
59838SOL    HW281412   9.617  11.960   0.504
59839SOL     OW81413   1.175  10.533   4.175
59839SOL    HW181414   1.229  10.609   4.157
59839SOL    HW281415   1.158  10.537   4.269
59840SOL     OW81416   8.558  13.354   2.938
59840SOL    HW181417   8.466  13.372   2.915
59840SOL    HW281418   8.567  13.259   2.930
59841SOL     OW81419   0.484   3.369   1.028
59841SOL    HW181420   0.557   3.417   0.990
59841SOL    HW281421   0.414   3.376   0.964
59842SOL     OW81422   7.906  14.491   0.813
59842SOL    HW181423   7.879  14.549   0.741
59842SOL    HW281424   7.824  14.461   0.852
59843SOL     OW81425   3.651   5.384   8.130
59843SOL    HW181426   3.621   5.358   8.217
59843SOL    HW281427   3.574   5.376   8.074
59844SOL     OW81428   7.777   9.317  13.905
59844SOL    HW181429   7.683   9.319  13.889
59844SOL    HW281430   7.793   9.232  13.945
59845SOL     OW81431   9.505   3.262   2.896
59845SOL    HW181432   9.496   3.320   2.820
59845SOL    HW281433   9.595   3.229   2.889
59846SOL     OW81434   9.054   0.213   1.298
59846SOL    HW181435   9.068   0.304   1.324
59846SOL    HW281436   8.971   0.189   1.339
59847SOL     OW81437  11.743   5.064  12.332
59847SOL    HW181438  11.776   5.036  12.417
59847SOL    HW281439  11.805   5.028  12.269
59848SOL     OW81440   0.096   5.448  13.619
59848SOL    HW181441   0.073   5.528  13.571
59848SOL    HW281442   0.186   5.462  13.647
59849SOL     OW81443   3.527  14.188   6.971
59849SOL    HW181444   3.473  14.139   6.908
59849SOL    HW281445   3.488  14.275   6.974
59850SOL     OW81446   2.680   9.275   0.017
59850SOL    HW181447   2.730   9.244   0.092
59850SOL    HW281448   2.637   9.356   0.048
59851SOL     OW81449   2.735  11.495  10.025
59851SOL    HW181450   2.809  11.493   9.964
59851SOL    HW281451   2.663  11.454   9.977
59852SOL     OW81452   9.530   6.926   6.340
59852SOL    HW181453   9.447   6.963   6.369
59852SOL    HW281454   9.593   6.998   6.348
59853SOL     OW81455   2.821   5.635   7.690
59853SOL    HW181456   2.887   5.665   7.753
59853SOL    HW281457   2.764   5.712   7.677
59854SOL     OW81458   8.719   1.146   0.236
59854SOL    HW181459   8.772   1.219   0.203
59854SOL    HW281460   8.629   1.176   0.225
59855SOL     OW81461  14.636  12.171   5.946
59855SOL    HW181462  14.568  12.195   6.008
59855SOL    HW281463  14.709  12.230   5.965
59856SOL     OW81464   0.041   1.194  13.191
59856SOL    HW181465   0.078   1.108  13.171
59856SOL    HW281466  14.842   1.175  13.254
59857SOL     OW81467   8.152   7.664   1.915
59857SOL    HW181468   8.151   7.698   2.005
59857SOL    HW281469   8.087   7.594   1.915
59858SOL     OW81470   4.610  12.727   1.672
59858SOL    HW181471   4.660  12.660   1.625
59858SOL    HW281472   4.549  12.678   1.727
59859SOL     OW81473  13.210  13.203  10.524
59859SOL    HW181474  13.203  13.177  10.616
59859SOL    HW281475  13.127  13.174  10.485
59860SOL     OW81476   8.227   8.500   5.639
59860SOL    HW181477   8.322   8.499   5.635
59860SOL    HW281478   8.199   8.504   5.547
59861SOL     OW81479   8.820   3.060   3.509
59861SOL    HW181480   8.882   3.133   3.506
59861SOL    HW281481   8.826   3.027   3.598
59862SOL     OW81482   7.161  13.204  14.112
59862SOL    HW181483   7.076  13.213  14.155
59862SOL    HW281484   7.146  13.237  14.023
59863SOL     OW81485   7.235  11.646   6.434
59863SOL    HW181486   7.214  11.564   6.479
59863SOL    HW281487   7.324  11.667   6.462
59864SOL     OW81488  14.097   0.947   3.749
59864SOL    HW181489  14.180   0.939   3.796
59864SOL    HW281490  14.112   1.017   3.686
59865SOL     OW81491   2.934   2.429   3.659
59865SOL    HW181492   2.848   2.422   3.617
59865SOL    HW281493   2.991   2.467   3.592
59866SOL     OW81494   0.418   1.944   8.597
59866SOL    HW181495   0.458   1.984   8.520
59866SOL    HW281496   0.331   1.984   8.602
59867SOL     OW81497   4.462  12.796   6.287
59867SOL    HW181498   4.527  12.734   6.251
59867SOL    HW281499   4.492  12.812   6.377
59868SOL     OW81500   1.747   9.982  13.548
59868SOL    HW181501   1.806   9.907  13.556
59868SOL    HW281502   1.682   9.970  13.617
59869SOL     OW81503  14.584   4.692   1.557
59869SOL    HW181504  14.659   4.737   1.596
59869SOL    HW281505  14.604   4.599   1.565
59870SOL     OW81506   2.859   8.827   2.297
59870SOL    HW181507   2.901   8.848   2.213
59870SOL    HW281508   2.874   8.733   2.307
59871SOL     OW81509  12.982  12.480  13.131
59871SOL    HW181510  13.036  12.485  13.210
59871SOL    HW281511  13.024  12.541  13.070
59872SOL     OW81512   1.771   6.241  10.430
59872SOL    HW181513   1.756   6.192  10.350
59872SOL    HW281514   1.711   6.315  10.425
59873SOL     OW81515  13.400   2.026   5.946
59873SOL    HW181516  13.442   2.017   5.861
59873SOL    HW281517  13.311   2.054   5.927
59874SOL     OW81518   3.734   7.327   5.317
59874SOL    HW181519   3.675   7.251   5.324
59874SOL    HW281520   3.763   7.343   5.406
59875SOL     OW81521   7.670   1.761  11.052
59875SOL    HW181522   7.754   1.799  11.027
59875SOL    HW281523   7.639   1.717  10.972
59876SOL     OW81524  11.270   7.374   5.872
59876SOL    HW181525  11.258   7.439   5.941
59876SOL    HW281526  11.238   7.292   5.910
59877SOL     OW81527   4.204   7.877  12.221
59877SOL    HW181528   4.134   7.851  12.281
59877SOL    HW281529   4.280   7.890  12.277
59878SOL     OW81530   3.622   8.185  12.844
59878SOL    HW181531   3.608   8.092  12.866
59878SOL    HW281532   3.577   8.197  12.761
59879SOL     OW81533  13.389   7.468   0.036
59879SOL    HW181534  13.365   7.388  14.860
59879SOL    HW281535  13.477   7.451   0.068
59880SOL     OW81536  14.518   1.297   6.280
59880SOL    HW181537  14.447   1.282   6.343
59880SOL    HW281538  14.557   1.210   6.268
59881SOL     OW81539   8.392   5.132   2.156
59881SOL    HW181540   8.485   5.126   2.178
59881SOL    HW281541   8.391   5.164   2.066
59882SOL     OW81542  10.205   2.593  13.821
59882SOL    HW181543  10.149   2.610  13.897
59882SOL    HW281544  10.234   2.502  13.832
59883SOL     OW81545   6.438   5.186   5.606
59883SOL    HW181546   6.434   5.137   5.524
59883SOL    HW281547   6.532   5.196   5.623
59884SOL     OW81548   9.880  12.061   9.865
59884SOL    HW181549   9.869  11.967   9.852
59884SOL    HW281550   9.911  12.070   9.955
59885SOL     OW81551  11.975   2.316   0.095
59885SOL    HW181552  11.923   2.373   0.038
59885SOL    HW281553  11.953   2.346   0.184
59886SOL     OW81554   9.345   1.285  14.536
59886SOL    HW181555   9.336   1.222  14.607
59886SOL    HW281556   9.258   1.323  14.525
59887SOL     OW81557   3.503  12.364   2.895
59887SOL    HW181558   3.435  12.361   2.828
59887SOL    HW281559   3.540  12.452   2.888
59888SOL     OW81560  10.365   4.935   7.549
59888SOL    HW181561  10.309   4.863   7.578
59888SOL    HW281562  10.305   5.006   7.528
59889SOL     OW81563  12.724  14.415  10.511
59889SOL    HW181564  12.716  14.362  10.590
59889SOL    HW281565  12.679  14.364  10.443
59890SOL     OW81566   3.177   4.476   5.044
59890SOL    HW181567   3.102   4.532   5.065
59890SOL    HW281568   3.166   4.399   5.099
59891SOL     OW81569   5.116   6.194  10.611
59891SOL    HW181570   5.186   6.256  10.632
59891SOL    HW281571   5.123   6.180  10.517
59892SOL     OW81572  10.721   4.172  10.164
59892SOL    HW181573  10.670   4.093  10.181
59892SOL    HW281574  10.731   4.213  10.250
59893SOL     OW81575   8.289   6.965   0.165
59893SOL    HW181576   8.278   6.871   0.153
59893SOL    HW281577   8.303   6.999   0.077
59894SOL     OW81578   9.565   7.513  14.141
59894SOL    HW181579   9.584   7.510  14.048
59894SOL    HW281580   9.471   7.493  14.147
59895SOL     OW81581   8.226  10.482   1.689
59895SOL    HW181582   8.246  10.501   1.781
59895SOL    HW281583   8.269  10.551   1.640
59896SOL     OW81584   2.785   6.614   7.139
59896SOL    HW181585   2.863   6.577   7.181
59896SOL    HW281586   2.723   6.625   7.211
59897SOL     OW81587   6.147  11.798   4.683
59897SOL    HW181588   6.171  11.706   4.696
59897SOL    HW281589   6.083  11.816   4.752
59898SOL     OW81590   5.409   7.846   8.579
59898SOL    HW181591   5.434   7.927   8.536
59898SOL    HW281592   5.332   7.869   8.631
59899SOL     OW81593   6.292   1.116   4.982
59899SOL    HW181594   6.254   1.028   4.991
59899SOL    HW281595   6.342   1.129   5.062
59900SOL     OW81596   6.218   1.122   3.115
59900SOL    HW181597   6.167   1.201   3.132
59900SOL    HW281598   6.157   1.050   3.129
59901SOL     OW81599   0.777   1.495   5.130
59901SOL    HW181600   0.869   1.478   5.113
59901SOL    HW281601   0.731   1.421   5.089
59902SOL     OW81602  11.527   9.672  14.106
59902SOL    HW181603  11.606   9.625  14.079
59902SOL    HW281604  11.494   9.622  14.180
59903SOL     OW81605   3.697  14.618   5.790
59903SOL    HW181606   3.755  14.553   5.750
59903SOL    HW281607   3.677  14.583   5.876
59904SOL     OW81608   0.262   0.096   4.026
59904SOL    HW181609   0.265   0.175   4.080
59904SOL    HW281610   0.325   0.113   3.956
59905SOL     OW81611   8.516   4.981   4.663
59905SOL    HW181612   8.598   4.984   4.613
59905SOL    HW281613   8.543   4.989   4.754
59906SOL     OW81614  13.232   9.038   3.656
59906SOL    HW181615  13.181   9.032   3.575
59906SOL    HW281616  13.191   9.108   3.706
59907SOL     OW81617  13.680   9.604   7.589
59907SOL    HW181618  13.730   9.675   7.630
59907SOL    HW281619  13.598   9.646   7.561
59908SOL     OW81620   5.856   9.000   2.475
59908SOL    HW181621   5.885   9.046   2.395
59908SOL    HW281622   5.843   8.910   2.447
59909SOL     OW81623  12.076   5.270  10.452
59909SOL    HW181624  12.099   5.300  10.365
59909SOL    HW281625  12.128   5.190  10.465
59910SOL     OW81626   6.040  12.886  13.842
59910SOL    HW181627   6.067  12.870  13.933
59910SOL    HW281628   6.003  12.974  13.842
59911SOL     OW81629   9.261  14.563   4.004
59911SOL    HW181630   9.305  14.566   4.089
59911SOL    HW281631   9.198  14.636   4.007
59912SOL     OW81632   0.169   8.755   7.617
59912SOL    HW181633   0.168   8.701   7.538
59912SOL    HW281634   0.142   8.842   7.588
59913SOL     OW81635   1.235   2.404   8.523
59913SOL    HW181636   1.150   2.367   8.545
59913SOL    HW281637   1.218   2.462   8.449
59914SOL     OW81638   0.377   9.749  11.854
59914SOL    HW181639   0.397   9.766  11.946
59914SOL    HW281640   0.463   9.731  11.814
59915SOL     OW81641   5.107  11.676   4.354
59915SOL    HW181642   5.200  11.700   4.348
59915SOL    HW281643   5.064  11.754   4.388
59916SOL     OW81644   5.226   9.699   4.178
59916SOL    HW181645   5.227   9.654   4.093
59916SOL    HW281646   5.305   9.667   4.222
59917SOL     OW81647   6.856   9.243   0.491
59917SOL    HW181648   6.801   9.164   0.492
59917SOL    HW281649   6.843   9.282   0.578
59918SOL     OW81650  13.027   8.907   3.985
59918SOL    HW181651  12.974   8.828   3.999
59918SOL    HW281652  13.108   8.875   3.945
59919SOL     OW81653  12.852   4.795   5.662
59919SOL    HW181654  12.830   4.887   5.677
59919SOL    HW281655  12.861   4.788   5.567
59920SOL     OW81656   4.951   9.067   8.473
59920SOL    HW181657   5.041   9.097   8.463
59920SOL    HW281658   4.958   8.989   8.529
59921SOL     OW81659   8.340   9.557   9.418
59921SOL    HW181660   8.341   9.592   9.328
59921SOL    HW281661   8.387   9.474   9.411
59922SOL     OW81662   9.873   3.983   7.006
59922SOL    HW181663   9.782   3.970   7.033
59922SOL    HW281664   9.925   3.959   7.082
59923SOL     OW81665   5.330   8.622  13.626
59923SOL    HW181666   5.385   8.694  13.597
59923SOL    HW281667   5.247   8.635  13.582
59924SOL     OW81668   3.459   1.332  14.102
59924SOL    HW181669   3.432   1.348  14.193
59924SOL    HW281670   3.432   1.242  14.085
59925SOL     OW81671  11.416   5.464   9.181
59925SOL    HW181672  11.401   5.445   9.088
59925SOL    HW281673  11.370   5.546   9.196
59926SOL     OW81674  12.168   4.050  10.632
59926SOL    HW181675  12.150   4.096  10.549
59926SOL    HW281676  12.254   4.082  10.658
59927SOL     OW81677  10.424   3.228   5.930
59927SOL    HW181678  10.392   3.238   6.020
59927SOL    HW281679  10.429   3.318   5.897
59928SOL     OW81680  14.060  12.289   3.351
59928SOL    HW181681  13.985  12.251   3.397
59928SOL    HW281682  14.038  12.381   3.340
59929SOL     OW81683   2.980   8.646   4.273
59929SOL    HW181684   2.973   8.592   4.195
59929SOL    HW281685   2.995   8.735   4.240
59930SOL     OW81686   8.393   9.223   8.866
59930SOL    HW181687   8.379   9.218   8.961
59930SOL    HW281688   8.469   9.280   8.856
59931SOL     OW81689  11.597   4.071  14.371
59931SOL    HW181690  11.520   4.015  14.373
59931SOL    HW281691  11.650   4.043  14.446
59932SOL     OW81692   3.536   2.803  12.155
59932SOL    HW181693   3.536   2.861  12.231
59932SOL    HW281694   3.628   2.783  12.139
59933SOL     OW81695  13.952   0.044   3.401
59933SOL    HW181696  13.974  14.824   3.416
59933SOL    HW281697  13.857   0.044   3.388
59934SOL     OW81698   7.860   9.302  12.309
59934SOL    HW181699   7.930   9.341  12.361
59934SOL    HW281700   7.802   9.375  12.287
59935SOL     OW81701  12.574   9.120  13.816
59935SOL    HW181702  12.650   9.122  13.873
59935SOL    HW281703  12.607   9.151  13.731
59936SOL     OW81704   9.290   0.978  10.622
59936SOL    HW181705   9.327   1.013  10.703
59936SOL    HW281706   9.195   0.985  10.634
59937SOL     OW81707   2.924   2.882   9.483
59937SOL    HW181708   2.857   2.822   9.517
59937SOL    HW281709   2.913   2.880   9.388
59938SOL     OW81710  14.731  11.716   0.856
59938SOL    HW181711  14.779  11.696   0.937
59938SOL    HW281712  14.661  11.651   0.853
59939SOL     OW81713   4.101   6.546   0.527
59939SOL    HW181714   4.158   6.525   0.453
59939SOL    HW281715   4.046   6.469   0.538
59940SOL     OW81716  11.417   4.316   4.885
59940SOL    HW181717  11.480   4.249   4.858
59940SOL    HW281718  11.353   4.318   4.814
59941SOL     OW81719  11.266  11.786   3.206
59941SOL    HW181720  11.211  11.715   3.238
59941SOL    HW281721  11.207  11.862   3.202
59942SOL     OW81722   4.123  13.761   8.270
59942SOL    HW181723   4.092  13.671   8.281
59942SOL    HW281724   4.054  13.815   8.309
59943SOL     OW81725  14.395  10.556   1.819
59943SOL    HW181726  14.435  10.596   1.896
59943SOL    HW281727  14.434  10.602   1.745
59944SOL     OW81728   4.007   6.967   5.397
59944SOL    HW181729   4.015   7.031   5.468
59944SOL    HW281730   3.923   6.925   5.412
59945SOL     OW81731   2.341  13.654   6.795
59945SOL    HW181732   2.382  13.587   6.851
59945SOL    HW281733   2.293  13.603   6.729
59946SOL     OW81734   9.724   9.454   4.259
59946SOL    HW181735   9.765   9.367   4.260
59946SOL    HW281736   9.798   9.514   4.250
59947SOL     OW81737   9.172   9.781   3.698
59947SOL    HW181738   9.215   9.854   3.742
59947SOL    HW281739   9.080   9.791   3.719
59948SOL     OW81740  12.313   7.372  14.427
59948SOL    HW181741  12.228   7.403  14.396
59948SOL    HW281742  12.295   7.336  14.514
59949SOL     OW81743  13.882  13.725  13.860
59949SOL    HW181744  13.801  13.681  13.888
59949SOL    HW281745  13.949  13.657  13.863
59950SOL     OW81746  14.823   3.239   9.327
59950SOL    HW181747  14.792   3.245   9.417
59950SOL    HW281748  14.795   3.321   9.286
59951SOL     OW81749   8.456   4.146   7.027
59951SOL    HW181750   8.414   4.083   6.968
59951SOL    HW281751   8.387   4.167   7.091
59952SOL     OW81752  10.832   8.681   1.115
59952SOL    HW181753  10.897   8.616   1.087
59952SOL    HW281754  10.871   8.765   1.091
59953SOL     OW81755   0.456  11.284   0.283
59953SOL    HW181756   0.378  11.270   0.337
59953SOL    HW281757   0.524  11.311   0.345
59954SOL     OW81758  13.824   5.187   3.435
59954SOL    HW181759  13.738   5.219   3.407
59954SOL    HW281760  13.810   5.153   3.523
59955SOL     OW81761   0.022  14.828   4.504
59955SOL    HW181762   0.113  14.854   4.511
59955SOL    HW281763   0.002  14.836   4.411
59956SOL     OW81764   2.775  11.784   4.845
59956SOL    HW181765   2.869  11.793   4.859
59956SOL    HW281766   2.767  11.731   4.766
59957SOL     OW81767   0.748   1.520  10.455
59957SOL    HW181768   0.678   1.513  10.390
59957SOL    HW281769   0.826   1.487  10.411
59958SOL     OW81770   2.761   0.094   7.296
59958SOL    HW181771   2.794   0.005   7.304
59958SOL    HW281772   2.743   0.122   7.386
59959SOL     OW81773   3.812   5.195   0.783
59959SOL    HW181774   3.800   5.261   0.852
59959SOL    HW281775   3.814   5.112   0.830
59960SOL     OW81776   1.222   4.905   5.378
59960SOL    HW181777   1.225   4.977   5.315
59960SOL    HW281778   1.169   4.838   5.335
59961SOL     OW81779   3.063  10.940  10.887
59961SOL    HW181780   3.143  10.903  10.927
59961SOL    HW281781   3.031  10.870  10.830
59962SOL     OW81782  11.875   4.802   9.674
59962SOL    HW181783  11.872   4.836   9.585
59962SOL    HW281784  11.893   4.708   9.663
59963SOL     OW81785   1.018   6.810   2.276
59963SOL    HW181786   1.077   6.775   2.342
59963SOL    HW281787   1.074   6.865   2.221
59964SOL     OW81788  13.001   1.399  10.974
59964SOL    HW181789  12.906   1.401  10.963
59964SOL    HW281790  13.017   1.454  11.051
59965SOL     OW81791   0.042  12.582   0.264
59965SOL    HW181792  14.860  12.653   0.229
59965SOL    HW281793   0.055  12.604   0.356
59966SOL     OW81794   4.846  12.224  10.509
59966SOL    HW181795   4.815  12.148  10.459
59966SOL    HW281796   4.942  12.217  10.504
59967SOL     OW81797   1.825   9.343   3.358
59967SOL    HW181798   1.730   9.338   3.364
59967SOL    HW281799   1.845   9.322   3.267
59968SOL     OW81800  12.748   6.847  14.030
59968SOL    HW181801  12.795   6.922  14.069
59968SOL    HW281802  12.750   6.864  13.936
59969SOL     OW81803   5.044   2.548   8.731
59969SOL    HW181804   4.962   2.547   8.781
59969SOL    HW281805   5.111   2.571   8.795
59970SOL     OW81806   6.347  10.878  12.686
59970SOL    HW181807   6.440  10.887  12.707
59970SOL    HW281808   6.303  10.936  12.748
59971SOL     OW81809   8.458  10.361   7.918
59971SOL    HW181810   8.497  10.327   7.998
59971SOL    HW281811   8.528  10.411   7.876
59972SOL     OW81812  11.400  13.333   0.039
59972SOL    HW181813  11.364  13.296  14.829
59972SOL    HW281814  11.365  13.422   0.042
59973SOL     OW81815   7.538   5.170  12.218
59973SOL    HW181816   7.616   5.128  12.181
59973SOL    HW281817   7.472   5.101  12.218
59974SOL     OW81818   6.385  13.997   4.598
59974SOL    HW181819   6.290  13.980   4.599
59974SOL    HW281820   6.425  13.914   4.622
59975SOL     OW81821   3.423   9.905   6.654
59975SOL    HW181822   3.503   9.853   6.645
59975SOL    HW281823   3.431   9.973   6.588
59976SOL     OW81824   9.542   8.420   4.970
59976SOL    HW181825   9.566   8.447   4.881
59976SOL    HW281826   9.465   8.474   4.991
59977SOL     OW81827   6.307   4.206   1.297
59977SOL    HW181828   6.308   4.208   1.201
59977SOL    HW281829   6.283   4.295   1.323
59978SOL     OW81830   4.923   5.734   1.234
59978SOL    HW181831   4.895   5.765   1.148
59978SOL    HW281832   5.004   5.782   1.252
59979SOL     OW81833   0.405   1.344  14.423
59979SOL    HW181834   0.457   1.410  14.469
59979SOL    HW281835   0.449   1.334  14.339
59980SOL     OW81836   3.620  10.147  14.789
59980SOL    HW181837   3.710  10.179  14.784
59980SOL    HW281838   3.627  10.052  14.774
59981SOL     OW81839   4.591  12.262   0.263
59981SOL    HW181840   4.536  12.333   0.230
59981SOL    HW281841   4.560  12.184   0.216
59982SOL     OW81842   4.114  13.653   8.560
59982SOL    HW181843   4.165  13.590   8.611
59982SOL    HW281844   4.137  13.738   8.598
59983SOL     OW81845  12.820   1.285   2.669
59983SOL    HW181846  12.823   1.365   2.617
59983SOL    HW281847  12.879   1.302   2.742
59984SOL     OW81848   3.417   8.257   5.486
59984SOL    HW181849   3.406   8.297   5.572
59984SOL    HW281850   3.328   8.240   5.456
59985SOL     OW81851   9.438  10.748  11.114
59985SOL    HW181852   9.466  10.719  11.202
59985SOL    HW281853   9.378  10.820  11.131
59986SOL     OW81854  12.524  13.295  14.326
59986SOL    HW181855  12.604  13.337  14.296
59986SOL    HW281856  12.455  13.358  14.309
59987SOL     OW81857   1.593   6.969   7.197
59987SOL    HW181858   1.532   6.948   7.267
59987SOL    HW281859   1.627   7.056   7.220
59988SOL     OW81860  14.728   6.689   6.095
59988SOL    HW181861  14.808   6.731   6.062
59988SOL    HW281862  14.703   6.743   6.170
59989SOL     OW81863   7.050   5.514  10.949
59989SOL    HW181864   7.101   5.468  11.015
59989SOL    HW281865   6.968   5.463  10.942
59990SOL     OW81866   2.155   6.232  14.607
59990SOL    HW181867   2.182   6.172  14.675
59990SOL    HW281868   2.101   6.297  14.652
59991SOL     OW81869  10.284  10.110  11.008
59991SOL    HW181870  10.223  10.182  11.025
59991SOL    HW281871  10.331  10.099  11.091
59992SOL     OW81872  10.552   6.146   5.654
59992SOL    HW181873  10.561   6.058   5.689
59992SOL    HW281874  10.470   6.179   5.690
59993SOL     OW81875  12.736   6.294  10.148
59993SOL    HW181876  12.699   6.382  10.160
59993SOL    HW281877  12.730   6.277  10.054
59994SOL     OW81878   4.330  10.572   3.782
59994SOL    HW181879   4.316  10.616   3.698
59994SOL    HW281880   4.289  10.630   3.847
59995SOL     OW81881   5.819  11.057   1.738
59995SOL    HW181882   5.906  11.062   1.699
59995SOL    HW281883   5.764  11.019   1.670
59996SOL     OW81884   4.851   3.603   2.510
59996SOL    HW181885   4.806   3.518   2.508
59996SOL    HW281886   4.811   3.650   2.583
59997SOL     OW81887  10.357   0.938   7.165
59997SOL    HW181888  10.377   0.987   7.245
59997SOL    HW281889  10.297   0.870   7.193
59998SOL     OW81890   3.796   5.875   0.610
59998SOL    HW181891   3.823   5.843   0.696
59998SOL    HW281892   3.714   5.829   0.591
59999SOL     OW81893  13.737   6.434   1.967
59999SOL    HW181894  13.672   6.382   1.919
59999SOL    HW281895  13.820   6.415   1.923
60000SOL     OW81896  14.384  11.257  12.955
60000SOL    HW181897  14.477  11.277  12.947
60000SOL    HW281898  14.341  11.311  12.888
60001SOL     OW81899   3.149  11.522  11.928
60001SOL    HW181900   3.143  11.439  11.976
60001SOL    HW281901   3.191  11.582  11.989
60002SOL     OW81902   7.800   8.062   0.775
60002SOL    HW181903   7.735   8.105   0.830
60002SOL    HW281904   7.784   8.096   0.687
60003SOL     OW81905   1.127   4.531   1.087
60003SOL    HW181906   1.053   4.508   1.144
60003SOL    HW281907   1.104   4.617   1.052
60004SOL     OW81908   6.210   0.921  13.614
60004SOL    HW181909   6.208   1.003  13.564
60004SOL    HW281910   6.280   0.934  13.678
60005SOL     OW81911  10.379  13.558  13.999
60005SOL    HW181912  10.456  13.501  13.997
60005SOL    HW281913  10.409  13.637  14.046
60006SOL     OW81914   9.360  13.989   9.466
60006SOL    HW181915   9.332  14.079   9.450
60006SOL    HW281916   9.362  13.949   9.379
60007SOL     OW81917   7.654   0.755   7.293
60007SOL    HW181918   7.704   0.835   7.312
60007SOL    HW281919   7.717   0.696   7.254
60008SOL     OW81920   5.236   1.171  12.025
60008SOL    HW181921   5.195   1.086  12.007
60008SOL    HW281922   5.281   1.193  11.943
60009SOL     OW81923   3.986  11.535  11.252
60009SOL    HW181924   3.988  11.443  11.278
60009SOL    HW281925   4.061  11.544  11.193
60010SOL     OW81926  11.541   9.649   0.888
60010SOL    HW181927  11.582   9.677   0.807
60010SOL    HW281928  11.604   9.673   0.956
60011SOL     OW81929  13.940   4.785  11.486
60011SOL    HW181930  13.970   4.730  11.413
60011SOL    HW281931  13.940   4.727  11.562
60012SOL     OW81932  14.752  11.118   1.662
60012SOL    HW181933  14.818  11.185   1.677
60012SOL    HW281934  14.760  11.059   1.736
60013SOL     OW81935   5.069   0.968  13.539
60013SOL    HW181936   4.999   0.976  13.474
60013SOL    HW281937   5.104   0.880  13.525
60014SOL     OW81938   6.936   1.477   8.831
60014SOL    HW181939   6.930   1.397   8.882
60014SOL    HW281940   6.901   1.453   8.745
60015SOL     OW81941   5.782  12.107   3.843
60015SOL    HW181942   5.831  12.043   3.791
60015SOL    HW281943   5.794  12.079   3.934
60016SOL     OW81944   9.034   4.940   4.760
60016SOL    HW181945   8.953   4.888   4.758
60016SOL    HW281946   9.036   4.978   4.848
60017SOL     OW81947   5.602  13.824  12.213
60017SOL    HW181948   5.549  13.872  12.277
60017SOL    HW281949   5.685  13.871  12.210
60018SOL     OW81950   1.056  12.310  10.062
60018SOL    HW181951   1.024  12.371  10.129
60018SOL    HW281952   1.030  12.349   9.979
60019SOL     OW81953   8.714   9.901  11.512
60019SOL    HW181954   8.711   9.881  11.606
60019SOL    HW281955   8.777   9.972  11.505
60020SOL     OW81956   2.330  10.192  12.737
60020SOL    HW181957   2.329  10.265  12.674
60020SOL    HW281958   2.388  10.127  12.699
60021SOL     OW81959   0.112   0.760   0.264
60021SOL    HW181960   0.068   0.702   0.327
60021SOL    HW281961   0.197   0.718   0.248
60022SOL     OW81962   8.870   6.479  14.628
60022SOL    HW181963   8.942   6.484  14.565
60022SOL    HW281964   8.903   6.525  14.706
60023SOL     OW81965   2.150  14.046  13.881
60023SOL    HW181966   2.205  13.968  13.882
60023SOL    HW281967   2.204  14.113  13.839
60024SOL     OW81968   8.491  13.126  13.874
60024SOL    HW181969   8.524  13.043  13.840
60024SOL    HW281970   8.398  13.109  13.891
60025SOL     OW81971   8.497   5.589  13.066
60025SOL    HW181972   8.489   5.505  13.021
60025SOL    HW281973   8.408   5.610  13.094
60026SOL     OW81974   6.261   3.425   6.468
60026SOL    HW181975   6.289   3.470   6.389
60026SOL    HW281976   6.177   3.466   6.491
60027SOL     OW81977  14.065   8.790  12.748
60027SOL    HW181978  14.137   8.728  12.763
60027SOL    HW281979  14.077   8.818  12.657
60028SOL     OW81980   9.079  11.153   5.208
60028SOL    HW181981   9.073  11.142   5.303
60028SOL    HW281982   9.111  11.242   5.196
60029SOL     OW81983   2.883   9.769   7.579
60029SOL    HW181984   2.942   9.838   7.549
60029SOL    HW281985   2.796   9.808   7.573
60030SOL     OW81986   7.444  13.534  12.054
60030SOL    HW181987   7.467  13.517  12.145
60030SOL    HW281988   7.394  13.615  12.055
60031SOL     OW81989  12.486  13.280   7.378
60031SOL    HW181990  12.494  13.231   7.296
60031SOL    HW281991  12.397  13.314   7.376
60032SOL     OW81992   8.330   1.318   4.191
60032SOL    HW181993   8.272   1.260   4.241
60032SOL    HW281994   8.270   1.375   4.142
60033SOL     OW81995   2.875   8.125   0.374
60033SOL    HW181996   2.870   8.173   0.291
60033SOL    HW281997   2.855   8.191   0.440
60034SOL     OW81998   2.779   5.827  11.021
60034SOL    HW181999   2.713   5.894  11.039
60034SOL    HW282000   2.804   5.793  11.107
60035SOL     OW82001  10.812   2.050   0.545
60035SOL    HW182002  10.824   2.005   0.461
60035SOL    HW282003  10.857   2.134   0.533
60036SOL     OW82004  12.352   9.221   5.414
60036SOL    HW182005  12.316   9.207   5.326
60036SOL    HW282006  12.324   9.144   5.464
60037SOL     OW82007   7.539   2.877   0.428
60037SOL    HW182008   7.523   2.852   0.337
60037SOL    HW282009   7.558   2.970   0.424
60038SOL     OW82010   2.138   0.616  11.661
60038SOL    HW182011   2.198   0.688  11.646
60038SOL    HW282012   2.136   0.605  11.756
60039SOL     OW82013   4.617   9.216   3.039
60039SOL    HW182014   4.670   9.172   3.105
60039SOL    HW282015   4.679   9.243   2.971
60040SOL     OW82016   7.562   2.348  13.763
60040SOL    HW182017   7.557   2.425  13.706
60040SOL    HW282018   7.500   2.367  13.834
60041SOL     OW82019   2.756   8.789   9.518
60041SOL    HW182020   2.702   8.866   9.504
60041SOL    HW282021   2.703   8.716   9.487
60042SOL     OW82022  11.265   9.057   8.723
60042SOL    HW182023  11.265   8.967   8.754
60042SOL    HW282024  11.197   9.100   8.775
60043SOL     OW82025   6.424  12.347   7.080
60043SOL    HW182026   6.339  12.391   7.085
60043SOL    HW282027   6.422  12.282   7.150
60044SOL     OW82028   9.194   1.851  12.102
60044SOL    HW182029   9.289   1.840  12.106
60044SOL    HW282030   9.177   1.872  12.010
60045SOL     OW82031  13.701  13.998   1.911
60045SOL    HW182032  13.722  14.086   1.879
60045SOL    HW282033  13.786  13.958   1.929
60046SOL     OW82034   9.271  12.056   9.753
60046SOL    HW182035   9.238  12.145   9.761
60046SOL    HW282036   9.216  12.016   9.685
60047SOL     OW82037  14.741  10.938  14.728
60047SOL    HW182038  14.724  11.029  14.753
60047SOL    HW282039  14.833  10.938  14.702
60048SOL     OW82040   7.120   2.053   0.641
60048SOL    HW182041   7.167   1.970   0.634
60048SOL    HW282042   7.126   2.075   0.734
60049SOL     OW82043   0.861  11.562   5.857
60049SOL    HW182044   0.843  11.468   5.869
60049SOL    HW282045   0.831  11.602   5.939
60050SOL     OW82046  10.043  13.937   9.582
60050SOL    HW182047  10.064  13.874   9.651
60050SOL    HW282048  10.050  13.887   9.500
60051SOL     OW82049   3.942  12.571  13.722
60051SOL    HW182050   3.978  12.524  13.647
60051SOL    HW282051   4.010  12.565  13.789
60052SOL     OW82052   3.772   6.194   3.083
60052SOL    HW182053   3.755   6.287   3.098
60052SOL    HW282054   3.725   6.149   3.154
60053SOL     OW82055   7.592   6.344   5.965
60053SOL    HW182056   7.671   6.317   6.013
60053SOL    HW282057   7.537   6.266   5.962
60054SOL     OW82058   8.119   3.186  10.191
60054SOL    HW182059   8.099   3.251  10.257
60054SOL    HW282060   8.197   3.219  10.147
60055SOL     OW82061   5.984   3.113   2.170
60055SOL    HW182062   5.922   3.147   2.235
60055SOL    HW282063   5.940   3.125   2.086
60056SOL     OW82064   8.440   1.426  10.033
60056SOL    HW182065   8.484   1.508  10.054
60056SOL    HW282066   8.402   1.397  10.116
60057SOL     OW82067   1.436  12.597  13.685
60057SOL    HW182068   1.377  12.562  13.752
60057SOL    HW282069   1.498  12.651  13.734
60058SOL     OW82070   5.442   4.674   4.606
60058SOL    HW182071   5.399   4.592   4.630
60058SOL    HW282072   5.428   4.731   4.682
60059SOL     OW82073  11.957   1.645   0.442
60059SOL    HW182074  11.911   1.633   0.525
60059SOL    HW282075  11.920   1.726   0.406
60060SOL     OW82076   4.691  11.604   1.380
60060SOL    HW182077   4.770  11.657   1.378
60060SOL    HW282078   4.681  11.572   1.290
60061SOL     OW82079   5.963   7.053   8.419
60061SOL    HW182080   5.973   7.078   8.328
60061SOL    HW282081   5.976   6.958   8.419
60062SOL     OW82082   0.194  12.896  11.219
60062SOL    HW182083   0.141  12.911  11.297
60062SOL    HW282084   0.145  12.831  11.169
60063SOL     OW82085  11.830   7.135   5.980
60063SOL    HW182086  11.904   7.153   5.922
60063SOL    HW282087  11.754   7.133   5.922
60064SOL     OW82088  12.410   2.840   6.908
60064SOL    HW182089  12.344   2.771   6.911
60064SOL    HW282090  12.412   2.868   6.817
60065SOL     OW82091  11.588  12.856   3.880
60065SOL    HW182092  11.682  12.844   3.872
60065SOL    HW282093  11.578  12.925   3.946
60066SOL     OW82094  12.891  10.950   1.843
60066SOL    HW182095  12.937  11.032   1.863
60066SOL    HW282096  12.871  10.956   1.750
60067SOL     OW82097   9.224   9.490   8.892
60067SOL    HW182098   9.297   9.531   8.845
60067SOL    HW282099   9.176   9.564   8.930
60068SOL     OW82100   0.553   0.209   3.160
60068SOL    HW182101   0.462   0.179   3.159
60068SOL    HW282102   0.561   0.257   3.243
60069SOL     OW82103   4.720   2.256  11.387
60069SOL    HW182104   4.708   2.285  11.477
60069SOL    HW282105   4.632   2.258  11.349
60070SOL     OW82106   2.727  13.042  14.500
60070SOL    HW182107   2.714  12.961  14.452
60070SOL    HW282108   2.736  13.015  14.591
60071SOL     OW82109  13.852   6.495  14.772
60071SOL    HW182110  13.789   6.509  14.844
60071SOL    HW282111  13.806   6.438  14.711
60072SOL     OW82112   5.458   9.829   0.298
60072SOL    HW182113   5.500   9.754   0.256
60072SOL    HW282114   5.521   9.858   0.364
60073SOL     OW82115  12.344   6.130   7.324
60073SOL    HW182116  12.270   6.097   7.273
60073SOL    HW282117  12.312   6.135   7.414
60074SOL     OW82118   9.095   5.215   0.628
60074SOL    HW182119   9.020   5.273   0.617
60074SOL    HW282120   9.079   5.143   0.567
60075SOL     OW82121   2.359   3.707   2.113
60075SOL    HW182122   2.369   3.630   2.058
60075SOL    HW282123   2.416   3.689   2.188
60076SOL     OW82124   2.281   7.841   1.227
60076SOL    HW182125   2.276   7.855   1.132
60076SOL    HW282126   2.207   7.891   1.263
60077SOL     OW82127  11.715   8.684  14.222
60077SOL    HW182128  11.799   8.729  14.229
60077SOL    HW282129  11.692   8.661  14.312
60078SOL     OW82130   3.494  14.349  11.114
60078SOL    HW182131   3.471  14.256  11.107
60078SOL    HW282132   3.524  14.373  11.026
60079SOL     OW82133   7.731   4.408  13.925
60079SOL    HW182134   7.690   4.405  14.011
60079SOL    HW282135   7.693   4.334  13.877
60080SOL     OW82136   9.799   4.346  13.076
60080SOL    HW182137   9.834   4.272  13.126
60080SOL    HW282138   9.707   4.324  13.061
60081SOL     OW82139   3.108  11.063   9.283
60081SOL    HW182140   3.035  11.125   9.285
60081SOL    HW282141   3.185  11.116   9.301
60082SOL     OW82142   3.823   5.217  14.177
60082SOL    HW182143   3.798   5.143  14.232
60082SOL    HW282144   3.783   5.293  14.220
60083SOL     OW82145  13.701  14.421   3.431
60083SOL    HW182146  13.710  14.379   3.517
60083SOL    HW282147  13.616  14.465   3.434
60084SOL     OW82148   7.726   4.493   2.002
60084SOL    HW182149   7.635   4.475   1.979
60084SOL    HW282150   7.724   4.579   2.043
60085SOL     OW82151   8.855   0.422  11.966
60085SOL    HW182152   8.779   0.479  11.972
60085SOL    HW282153   8.921   0.474  11.920
60086SOL     OW82154   0.062  12.265   7.153
60086SOL    HW182155   0.095  12.280   7.242
60086SOL    HW282156  14.867  12.332   7.141
60087SOL     OW82157  10.734  11.108   2.725
60087SOL    HW182158  10.717  11.154   2.643
60087SOL    HW282159  10.674  11.148   2.788
60088SOL     OW82160   2.818   2.108   7.250
60088SOL    HW182161   2.811   2.039   7.184
60088SOL    HW282162   2.865   2.179   7.206
60089SOL     OW82163  13.167   2.415   5.792
60089SOL    HW182164  13.078   2.405   5.825
60089SOL    HW282165  13.223   2.403   5.869
60090SOL     OW82166  13.843   1.560  12.507
60090SOL    HW182167  13.924   1.608  12.496
60090SOL    HW282168  13.833   1.509  12.427
60091SOL     OW82169  13.605   0.422   0.044
60091SOL    HW182170  13.662   0.419  14.839
60091SOL    HW282171  13.614   0.512   0.077
60092SOL     OW82172   6.719   2.387   8.885
60092SOL    HW182173   6.756   2.299   8.889
60092SOL    HW282174   6.665   2.387   8.806
60093SOL     OW82175   5.071   2.498   2.106
60093SOL    HW182176   5.057   2.591   2.123
60093SOL    HW282177   5.141   2.496   2.041
60094SOL     OW82178   7.836   3.876   9.138
60094SOL    HW182179   7.768   3.818   9.105
60094SOL    HW282180   7.917   3.826   9.129
60095SOL     OW82181  11.964  11.937   6.347
60095SOL    HW182182  12.059  11.924   6.342
60095SOL    HW282183  11.927  11.862   6.299
60096SOL     OW82184   3.636   2.503   2.410
60096SOL    HW182185   3.610   2.417   2.444
60096SOL    HW282186   3.590   2.565   2.466
60097SOL     OW82187   4.571  10.398  14.271
60097SOL    HW182188   4.643  10.450  14.235
60097SOL    HW282189   4.526  10.363  14.194
60098SOL     OW82190   6.281  11.730   6.564
60098SOL    HW182191   6.310  11.691   6.646
60098SOL    HW282192   6.225  11.804   6.591
60099SOL     OW82193   5.788   0.961  11.382
60099SOL    HW182194   5.714   1.006  11.341
60099SOL    HW282195   5.759   0.870  11.388
60100SOL     OW82196  14.359  13.217  11.156
60100SOL    HW182197  14.389  13.194  11.067
60100SOL    HW282198  14.309  13.297  11.144
60101SOL     OW82199   5.625  10.792   8.689
60101SOL    HW182200   5.558  10.730   8.662
60101SOL    HW282201   5.684  10.799   8.614
60102SOL     OW82202   6.777  13.687  14.698
60102SOL    HW182203   6.755  13.607  14.745
60102SOL    HW282204   6.692  13.724  14.673
60103SOL     OW82205  14.748  13.328   3.183
60103SOL    HW182206  14.662  13.333   3.142
60103SOL    HW282207  14.807  13.304   3.112
60104SOL     OW82208  12.825   6.507   0.824
60104SOL    HW182209  12.887   6.482   0.893
60104SOL    HW282210  12.811   6.601   0.837
60105SOL     OW82211  10.585  13.981   3.828
60105SOL    HW182212  10.615  13.891   3.842
60105SOL    HW282213  10.497  13.983   3.863
60106SOL     OW82214   6.306   8.289  13.109
60106SOL    HW182215   6.372   8.269  13.043
60106SOL    HW282216   6.251   8.357  13.068
60107SOL     OW82217   3.649   4.913   8.790
60107SOL    HW182218   3.737   4.916   8.828
60107SOL    HW282219   3.594   4.957   8.854
60108SOL     OW82220   3.743   6.569  14.673
60108SOL    HW182221   3.770   6.477  14.677
60108SOL    HW282222   3.652   6.565  14.644
60109SOL     OW82223   9.012   6.850   6.161
60109SOL    HW182224   8.928   6.866   6.204
60109SOL    HW282225   8.989   6.798   6.083
60110SOL     OW82226   3.832   6.003   0.916
60110SOL    HW182227   3.738   6.022   0.923
60110SOL    HW282228   3.837   5.912   0.886
60111SOL     OW82229   9.089   3.136   6.365
60111SOL    HW182230   9.042   3.215   6.391
60111SOL    HW282231   9.179   3.151   6.393
60112SOL     OW82232  10.501   2.124   1.991
60112SOL    HW182233  10.559   2.060   1.950
60112SOL    HW282234  10.520   2.117   2.084
60113SOL     OW82235   5.901  14.010   0.886
60113SOL    HW182236   5.879  14.101   0.868
60113SOL    HW282237   5.929  14.010   0.978
60114SOL     OW82238  11.373   7.426  10.267
60114SOL    HW182239  11.279   7.410  10.269
60114SOL    HW282240  11.383   7.518  10.291
60115SOL     OW82241   2.147   6.798   1.767
60115SOL    HW182242   2.189   6.729   1.818
60115SOL    HW282243   2.214   6.826   1.705
60116SOL     OW82244  13.946   0.380  10.160
60116SOL    HW182245  13.858   0.367  10.123
60116SOL    HW282246  13.945   0.332  10.242
60117SOL     OW82247   0.490   2.200   9.982
60117SOL    HW182248   0.571   2.149   9.978
60117SOL    HW282249   0.467   2.217   9.891
60118SOL     OW82250   5.955   0.128   8.162
60118SOL    HW182251   5.988   0.217   8.173
60118SOL    HW282252   6.019   0.085   8.106
60119SOL     OW82253  12.914   4.346   0.138
60119SOL    HW182254  12.896   4.436   0.164
60119SOL    HW282255  12.974   4.313   0.206
60120SOL     OW82256   9.026   1.301   4.942
60120SOL    HW182257   9.111   1.266   4.913
60120SOL    HW282258   8.977   1.313   4.861
60121SOL     OW82259   7.657   3.202   8.685
60121SOL    HW182260   7.593   3.151   8.735
60121SOL    HW282261   7.606   3.273   8.647
60122SOL     OW82262  10.255  10.177   3.422
60122SOL    HW182263  10.317  10.140   3.485
60122SOL    HW282264  10.172  10.181   3.470
60123SOL     OW82265  14.746   6.165   9.752
60123SOL    HW182266  14.746   6.125   9.665
60123SOL    HW282267  14.831   6.143   9.789
60124SOL     OW82268   7.548   5.821   4.179
60124SOL    HW182269   7.497   5.897   4.206
60124SOL    HW282270   7.606   5.854   4.110
60125SOL     OW82271  10.920   1.547   2.684
60125SOL    HW182272  10.996   1.547   2.743
60125SOL    HW282273  10.950   1.499   2.607
60126SOL     OW82274   4.738   3.089   9.570
60126SOL    HW182275   4.693   3.031   9.632
60126SOL    HW282276   4.670   3.115   9.508
60127SOL     OW82277   7.879  13.130   0.398
60127SOL    HW182278   7.834  13.047   0.414
60127SOL    HW282279   7.816  13.181   0.346
60128SOL     OW82280   8.008  13.237  11.531
60128SOL    HW182281   8.038  13.292  11.459
60128SOL    HW282282   7.917  13.265  11.546
60129SOL     OW82283  10.457   8.846  14.022
60129SOL    HW182284  10.479   8.780  14.088
60129SOL    HW282285  10.539   8.891  14.004
60130SOL     OW82286   6.623   2.690   8.624
60130SOL    HW182287   6.595   2.776   8.591
60130SOL    HW282288   6.546   2.657   8.671
60131SOL     OW82289  12.192   6.361   6.323
60131SOL    HW182290  12.233   6.420   6.386
60131SOL    HW282291  12.214   6.399   6.238
60132SOL     OW82292   0.025   5.505   3.762
60132SOL    HW182293  14.833   5.525   3.831
60132SOL    HW282294   0.101   5.559   3.783
60133SOL     OW82295  12.454   3.333   6.665
60133SOL    HW182296  12.381   3.316   6.724
60133SOL    HW282297  12.532   3.321   6.720
60134SOL     OW82298   1.616   4.093   7.084
60134SOL    HW182299   1.668   4.088   7.164
60134SOL    HW282300   1.659   4.161   7.032
60135SOL     OW82301   9.055   3.967   9.502
60135SOL    HW182302   9.041   3.882   9.459
60135SOL    HW282303   9.097   4.021   9.435
60136SOL     OW82304   1.611   3.830  11.401
60136SOL    HW182305   1.602   3.823  11.496
60136SOL    HW282306   1.525   3.804  11.367
60137SOL     OW82307   1.029   9.536  14.538
60137SOL    HW182308   1.073   9.608  14.584
60137SOL    HW282309   0.964   9.578  14.482
60138SOL     OW82310   0.026  11.853  13.077
60138SOL    HW182311   0.053  11.896  12.996
60138SOL    HW282312   0.090  11.783  13.090
60139SOL     OW82313   8.819   4.301   3.846
60139SOL    HW182314   8.752   4.245   3.885
60139SOL    HW282315   8.770   4.369   3.801
60140SOL     OW82316   9.700  10.426   4.944
60140SOL    HW182317   9.653  10.352   4.983
60140SOL    HW282318   9.660  10.437   4.858
60141SOL     OW82319  11.856  12.843   8.684
60141SOL    HW182320  11.931  12.819   8.631
60141SOL    HW282321  11.890  12.848   8.774
60142SOL     OW82322   6.005  10.479  12.377
60142SOL    HW182323   6.060  10.435  12.312
60142SOL    HW282324   6.045  10.459  12.461
60143SOL     OW82325   3.020   1.901   9.208
60143SOL    HW182326   2.988   1.988   9.185
60143SOL    HW282327   3.104   1.894   9.163
60144SOL     OW82328  10.086   9.059   8.273
60144SOL    HW182329  10.151   9.027   8.336
60144SOL    HW282330  10.105   9.010   8.192
60145SOL     OW82331   9.653  10.184   7.209
60145SOL    HW182332   9.644  10.237   7.288
60145SOL    HW282333   9.701  10.241   7.148
60146SOL     OW82334   2.680   2.002   5.564
60146SOL    HW182335   2.738   1.926   5.574
60146SOL    HW282336   2.592   1.964   5.562
60147SOL     OW82337   4.104   5.544   1.225
60147SOL    HW182338   4.021   5.555   1.178
60147SOL    HW282339   4.095   5.601   1.301
60148SOL     OW82340   8.339  11.729  14.630
60148SOL    HW182341   8.388  11.665  14.682
60148SOL    HW282342   8.359  11.813  14.670
60149SOL     OW82343   5.361   7.691   7.939
60149SOL    HW182344   5.354   7.653   7.851
60149SOL    HW282345   5.443   7.656   7.974
60150SOL     OW82346  11.764   6.158  10.603
60150SOL    HW182347  11.686   6.213  10.609
60150SOL    HW282348  11.783   6.154  10.509
60151SOL     OW82349   3.178  12.358   1.317
60151SOL    HW182350   3.108  12.311   1.273
60151SOL    HW282351   3.222  12.292   1.370
60152SOL     OW82352   2.433  11.612   3.591
60152SOL    HW182353   2.371  11.543   3.615
60152SOL    HW282354   2.518  11.567   3.587
60153SOL     OW82355   9.029   1.320  12.579
60153SOL    HW182356   9.005   1.349  12.667
60153SOL    HW282357   8.981   1.377  12.520
60154SOL     OW82358   3.705  12.893  11.099
60154SOL    HW182359   3.771  12.888  11.030
60154SOL    HW282360   3.668  12.980  11.090
60155SOL     OW82361  11.459   3.899  10.281
60155SOL    HW182362  11.424   3.943  10.204
60155SOL    HW282363  11.536   3.950  10.306
60156SOL     OW82364   9.315   4.154   1.947
60156SOL    HW182365   9.335   4.226   2.007
60156SOL    HW282366   9.324   4.076   2.001
60157SOL     OW82367  10.043   7.249   9.433
60157SOL    HW182368   9.962   7.240   9.485
60157SOL    HW282369  10.079   7.333   9.460
60158SOL     OW82370  13.528  12.946   6.872
60158SOL    HW182371  13.605  12.955   6.816
60158SOL    HW282372  13.472  12.884   6.825
60159SOL     OW82373   2.705   4.191   7.683
60159SOL    HW182374   2.661   4.132   7.622
60159SOL    HW282375   2.719   4.272   7.632
60160SOL     OW82376  11.679   8.796  11.670
60160SOL    HW182377  11.614   8.842  11.616
60160SOL    HW282378  11.627   8.738  11.726
60161SOL     OW82379   1.109   8.700   3.037
60161SOL    HW182380   1.158   8.782   3.042
60161SOL    HW282381   1.033   8.720   2.983
60162SOL     OW82382   5.224   3.343  14.214
60162SOL    HW182383   5.295   3.389  14.259
60162SOL    HW282384   5.179   3.410  14.163
60163SOL     OW82385   4.043  12.089   1.086
60163SOL    HW182386   4.046  12.092   1.182
60163SOL    HW282387   4.135  12.083   1.060
60164SOL     OW82388  11.456   0.158  11.049
60164SOL    HW182389  11.477   0.148  10.957
60164SOL    HW282390  11.401   0.083  11.070
60165SOL     OW82391  11.644   7.705   8.561
60165SOL    HW182392  11.717   7.713   8.499
60165SOL    HW282393  11.679   7.739   8.643
60166SOL     OW82394   3.778   0.743  13.252
60166SOL    HW182395   3.753   0.672  13.311
60166SOL    HW282396   3.752   0.712  13.165
60167SOL     OW82397   0.735   0.287  10.129
60167SOL    HW182398   0.698   0.368  10.164
60167SOL    HW282399   0.661   0.244  10.086
60168SOL     OW82400   4.146   4.736   3.812
60168SOL    HW182401   4.140   4.730   3.716
60168SOL    HW282402   4.206   4.809   3.827
60169SOL     OW82403  14.648   9.185  13.187
60169SOL    HW182404  14.585   9.157  13.121
60169SOL    HW282405  14.709   9.242  13.139
60170SOL     OW82406   5.937   6.156   8.695
60170SOL    HW182407   5.882   6.198   8.629
60170SOL    HW282408   5.878   6.096   8.741
60171SOL     OW82409   8.883  12.052   5.673
60171SOL    HW182410   8.916  12.128   5.625
60171SOL    HW282411   8.961  11.999   5.690
60172SOL     OW82412   7.367  12.793   6.673
60172SOL    HW182413   7.287  12.748   6.647
60172SOL    HW282414   7.386  12.853   6.601
60173SOL     OW82415   5.838   1.878   2.970
60173SOL    HW182416   5.895   1.940   2.925
60173SOL    HW282417   5.870   1.878   3.061
60174SOL     OW82418   5.718  10.527   1.359
60174SOL    HW182419   5.713  10.491   1.448
60174SOL    HW282420   5.761  10.458   1.308
60175SOL     OW82421   6.024   6.798   6.505
60175SOL    HW182422   6.096   6.803   6.442
60175SOL    HW282423   5.964   6.868   6.480
60176SOL     OW82424   3.127  11.594   9.219
60176SOL    HW182425   3.212  11.552   9.220
60176SOL    HW282426   3.074  11.541   9.159
60177SOL     OW82427   3.219   9.830   3.975
60177SOL    HW182428   3.236   9.741   4.005
60177SOL    HW282429   3.303   9.861   3.942
60178SOL     OW82430   2.410  11.090  14.793
60178SOL    HW182431   2.475  11.159  14.807
60178SOL    HW282432   2.451  11.011  14.828
60179SOL     OW82433  12.964   0.508   3.095
60179SOL    HW182434  12.971   0.598   3.126
60179SOL    HW282435  12.900   0.512   3.024
60180SOL     OW82436   7.509  13.133   6.273
60180SOL    HW182437   7.570  13.207   6.284
60180SOL    HW282438   7.533  13.095   6.189
60181SOL     OW82439   8.466   3.658   8.308
60181SOL    HW182440   8.385   3.704   8.328
60181SOL    HW282441   8.439   3.570   8.281
60182SOL     OW82442   4.048   6.222   4.077
60182SOL    HW182443   4.075   6.280   4.148
60182SOL    HW282444   4.090   6.257   3.999
60183SOL     OW82445   1.610  14.217  11.030
60183SOL    HW182446   1.536  14.248  11.082
60183SOL    HW282447   1.687  14.249  11.077
60184SOL     OW82448   3.896   7.493  13.679
60184SOL    HW182449   3.829   7.447  13.629
60184SOL    HW282450   3.966   7.429  13.690
60185SOL     OW82451   1.233   6.736   9.183
60185SOL    HW182452   1.275   6.819   9.160
60185SOL    HW282453   1.274   6.711   9.266
60186SOL     OW82454   6.760   9.432   6.304
60186SOL    HW182455   6.714   9.468   6.229
60186SOL    HW282456   6.844   9.477   6.304
60187SOL     OW82457   6.342   5.513   4.259
60187SOL    HW182458   6.297   5.591   4.227
60187SOL    HW282459   6.273   5.463   4.304
60188SOL     OW82460   2.748  11.653   1.802
60188SOL    HW182461   2.801  11.650   1.723
60188SOL    HW282462   2.662  11.682   1.772
60189SOL     OW82463   1.472   7.581   7.387
60189SOL    HW182464   1.406   7.581   7.317
60189SOL    HW282465   1.454   7.500   7.436
60190SOL     OW82466   3.618   3.522   9.487
60190SOL    HW182467   3.571   3.473   9.554
60190SOL    HW282468   3.567   3.603   9.477
60191SOL     OW82469   0.071   8.265  13.479
60191SOL    HW182470   0.051   8.276  13.386
60191SOL    HW282471   0.050   8.350  13.518
60192SOL     OW82472   6.167   6.792  14.587
60192SOL    HW182473   6.179   6.763  14.678
60192SOL    HW282474   6.248   6.838  14.565
60193SOL     OW82475  13.645  13.144   5.404
60193SOL    HW182476  13.584  13.213   5.379
60193SOL    HW282477  13.624  13.071   5.346
60194SOL     OW82478  13.952   0.136   6.040
60194SOL    HW182479  14.017   0.172   6.100
60194SOL    HW282480  13.921   0.056   6.083
60195SOL     OW82481   9.039   5.421   5.857
60195SOL    HW182482   9.048   5.380   5.943
60195SOL    HW282483   8.962   5.379   5.818
60196SOL     OW82484   8.488  13.403   7.944
60196SOL    HW182485   8.466  13.314   7.917
60196SOL    HW282486   8.456  13.410   8.034
60197SOL     OW82487  13.298  13.021  11.603
60197SOL    HW182488  13.242  12.946  11.624
60197SOL    HW282489  13.363  12.985  11.542
60198SOL     OW82490  10.311   9.881  12.017
60198SOL    HW182491  10.226   9.906  12.053
60198SOL    HW282492  10.333   9.951  11.956
60199SOL     OW82493   7.135   2.664  11.234
60199SOL    HW182494   7.118   2.754  11.263
60199SOL    HW282495   7.224   2.667  11.199
60200SOL     OW82496  13.518  13.956   9.920
60200SOL    HW182497  13.429  13.983   9.944
60200SOL    HW282498  13.553  13.916  10.000
60201SOL     OW82499   8.590   8.686   9.915
60201SOL    HW182500   8.536   8.743   9.970
60201SOL    HW282501   8.680   8.718   9.929
60202SOL     OW82502   6.227  11.486   8.922
60202SOL    HW182503   6.204  11.405   8.968
60202SOL    HW282504   6.143  11.518   8.888
60203SOL     OW82505   0.252   0.240  12.642
60203SOL    HW182506   0.200   0.204  12.570
60203SOL    HW282507   0.303   0.166  12.673
60204SOL     OW82508  14.705  14.048   7.232
60204SOL    HW182509  14.653  13.975   7.267
60204SOL    HW282510  14.679  14.055   7.140
60205SOL     OW82511   7.501   1.485   6.699
60205SOL    HW182512   7.571   1.550   6.694
60205SOL    HW282513   7.494   1.451   6.610
60206SOL     OW82514  12.793   5.502   9.080
60206SOL    HW182515  12.870   5.454   9.112
60206SOL    HW282516  12.734   5.434   9.047
60207SOL     OW82517  11.953   2.608   8.021
60207SOL    HW182518  11.922   2.581   8.108
60207SOL    HW282519  11.907   2.551   7.960
60208SOL     OW82520   0.989   0.805   7.106
60208SOL    HW182521   0.965   0.824   7.015
60208SOL    HW282522   1.084   0.790   7.103
60209SOL     OW82523   6.433   9.357   6.821
60209SOL    HW182524   6.463   9.267   6.812
60209SOL    HW282525   6.476   9.404   6.749
60210SOL     OW82526  10.472   3.466  10.607
60210SOL    HW182527  10.543   3.438  10.550
60210SOL    HW282528  10.431   3.385  10.636
60211SOL     OW82529   6.908   0.499  14.820
60211SOL    HW182530   6.917   0.533   0.038
60211SOL    HW282531   6.965   0.555  14.767
60212SOL     OW82532   5.803   4.755   9.220
60212SOL    HW182533   5.780   4.667   9.190
60212SOL    HW282534   5.794   4.810   9.143
60213SOL     OW82535   3.187   6.468  11.618
60213SOL    HW182536   3.161   6.490  11.528
60213SOL    HW282537   3.144   6.534  11.672
60214SOL     OW82538   7.558   7.584  12.601
60214SOL    HW182539   7.500   7.524  12.648
60214SOL    HW282540   7.603   7.529  12.537
60215SOL     OW82541  14.000   1.326  13.446
60215SOL    HW182542  14.065   1.262  13.472
60215SOL    HW282543  13.945   1.339  13.523
60216SOL     OW82544  11.218   9.809   1.190
60216SOL    HW182545  11.293   9.867   1.201
60216SOL    HW282546  11.147   9.866   1.161
60217SOL     OW82547   1.479  13.347  10.587
60217SOL    HW182548   1.489  13.437  10.556
60217SOL    HW282549   1.429  13.356  10.668
60218SOL     OW82550   4.314   1.576  14.819
60218SOL    HW182551   4.311   1.480  14.817
60218SOL    HW282552   4.244   1.601   0.008
60219SOL     OW82553  13.759   1.309  10.488
60219SOL    HW182554  13.701   1.236  10.467
60219SOL    HW282555  13.700   1.384  10.499
60220SOL     OW82556   4.624  14.282   8.505
60220SOL    HW182557   4.579  14.256   8.424
60220SOL    HW282558   4.554  14.302   8.566
60221SOL     OW82559  12.524   4.134   2.700
60221SOL    HW182560  12.504   4.075   2.627
60221SOL    HW282561  12.447   4.127   2.757
60222SOL     OW82562   0.223   6.699  11.390
60222SOL    HW182563   0.138   6.742  11.396
60222SOL    HW282564   0.203   6.608  11.369
60223SOL     OW82565   6.249   8.018   1.775
60223SOL    HW182566   6.191   8.053   1.707
60223SOL    HW282567   6.222   8.064   1.855
60224SOL     OW82568  13.508   1.034   1.700
60224SOL    HW182569  13.587   1.050   1.648
60224SOL    HW282570  13.480   0.946   1.673
60225SOL     OW82571   6.115   3.878  12.816
60225SOL    HW182572   6.149   3.885  12.726
60225SOL    HW282573   6.188   3.842  12.866
60226SOL     OW82574  12.389   2.862   4.089
60226SOL    HW182575  12.400   2.808   4.167
60226SOL    HW282576  12.454   2.829   4.027
60227SOL     OW82577   0.951   6.011   0.698
60227SOL    HW182578   0.938   6.106   0.701
60227SOL    HW282579   0.937   5.987   0.607
60228SOL     OW82580   7.932   0.563   5.463
60228SOL    HW182581   7.963   0.535   5.550
60228SOL    HW282582   8.011   0.594   5.419
60229SOL     OW82583   6.451   2.225   4.120
60229SOL    HW182584   6.408   2.188   4.043
60229SOL    HW282585   6.420   2.172   4.193
60230SOL     OW82586  11.129  14.766   8.299
60230SOL    HW182587  11.191  14.694   8.289
60230SOL    HW282588  11.137  14.793   8.390
60231SOL     OW82589   3.058  10.553  11.020
60231SOL    HW182590   2.980  10.564  11.074
60231SOL    HW282591   3.130  10.584  11.076
60232SOL     OW82592  10.926  12.902   1.630
60232SOL    HW182593  10.855  12.904   1.566
60232SOL    HW282594  10.881  12.892   1.714
60233SOL     OW82595   5.629   4.910   1.394
60233SOL    HW182596   5.671   4.981   1.444
60233SOL    HW282597   5.615   4.947   1.307
60234SOL     OW82598   1.127   3.510   5.489
60234SOL    HW182599   1.032   3.504   5.474
60234SOL    HW282600   1.139   3.592   5.536
60235SOL     OW82601   0.809   1.727   4.855
60235SOL    HW182602   0.849   1.805   4.893
60235SOL    HW282603   0.857   1.713   4.773
60236SOL     OW82604   2.786  11.280   2.727
60236SOL    HW182605   2.770  11.285   2.821
60236SOL    HW282606   2.733  11.351   2.690
60237SOL     OW82607   1.866   7.166   8.830
60237SOL    HW182608   1.925   7.212   8.889
60237SOL    HW282609   1.908   7.171   8.744
60238SOL     OW82610  10.514  10.597   2.207
60238SOL    HW182611  10.543  10.561   2.291
60238SOL    HW282612  10.462  10.527   2.168
60239SOL     OW82613  10.402   5.803   5.718
60239SOL    HW182614  10.440   5.851   5.791
60239SOL    HW282615  10.474   5.792   5.656
60240SOL     OW82616   0.787   7.964   4.215
60240SOL    HW182617   0.765   7.925   4.130
60240SOL    HW282618   0.751   7.902   4.279
60241SOL     OW82619  10.012   3.295  11.473
60241SOL    HW182620   9.987   3.243  11.549
60241SOL    HW282621  10.107   3.302  11.479
60242SOL     OW82622   1.414   5.265   7.945
60242SOL    HW182623   1.438   5.192   7.889
60242SOL    HW282624   1.358   5.321   7.891
60243SOL     OW82625   8.596  12.177   3.803
60243SOL    HW182626   8.617  12.213   3.889
60243SOL    HW282627   8.516  12.127   3.816
60244SOL     OW82628   2.413   9.488   5.421
60244SOL    HW182629   2.438   9.516   5.509
60244SOL    HW282630   2.407   9.393   5.427
60245SOL     OW82631   6.372  11.701   6.830
60245SOL    HW182632   6.397  11.708   6.922
60245SOL    HW282633   6.284  11.737   6.827
60246SOL     OW82634   8.528  11.145   7.733
60246SOL    HW182635   8.491  11.061   7.704
60246SOL    HW282636   8.524  11.141   7.829
60247SOL     OW82637   3.931  11.830   7.943
60247SOL    HW182638   3.914  11.835   8.037
60247SOL    HW282639   3.852  11.868   7.902
60248SOL     OW82640   0.309  12.701   2.180
60248SOL    HW182641   0.323  12.636   2.249
60248SOL    HW282642   0.378  12.682   2.116
60249SOL     OW82643   7.717   1.997   4.391
60249SOL    HW182644   7.735   2.062   4.323
60249SOL    HW282645   7.684   1.921   4.342
60250SOL     OW82646   1.380   2.892   4.728
60250SOL    HW182647   1.308   2.955   4.733
60250SOL    HW282648   1.432   2.909   4.807
60251SOL     OW82649  12.745   9.748   7.539
60251SOL    HW182650  12.741   9.843   7.545
60251SOL    HW282651  12.810   9.722   7.604
60252SOL     OW82652   5.521  14.629  12.923
60252SOL    HW182653   5.615  14.622  12.907
60252SOL    HW282654   5.485  14.547  12.889
60253SOL     OW82655   1.296   7.012  12.664
60253SOL    HW182656   1.265   7.099  12.641
60253SOL    HW282657   1.276   7.004  12.758
60254SOL     OW82658   3.882   7.552   3.672
60254SOL    HW182659   3.952   7.500   3.711
60254SOL    HW282660   3.925   7.605   3.606
60255SOL     OW82661  11.426   2.472  14.744
60255SOL    HW182662  11.513   2.433  14.742
60255SOL    HW282663  11.380   2.432  14.670
60256SOL     OW82664  11.135  12.476   3.346
60256SOL    HW182665  11.229  12.462   3.351
60256SOL    HW282666  11.118  12.493   3.254
60257SOL     OW82667  10.321  11.046   8.332
60257SOL    HW182668  10.289  11.103   8.403
60257SOL    HW282669  10.293  11.090   8.252
60258SOL     OW82670   8.612   9.919  11.024
60258SOL    HW182671   8.570   9.898  11.107
60258SOL    HW282672   8.661   9.999  11.042
60259SOL     OW82673  13.615   6.941   9.757
60259SOL    HW182674  13.587   6.891   9.834
60259SOL    HW282675  13.633   6.874   9.691
60260SOL     OW82676   7.668   8.898  11.726
60260SOL    HW182677   7.626   8.956  11.663
60260SOL    HW282678   7.720   8.956  11.781
60261SOL     OW82679   3.336   4.922   0.794
60261SOL    HW182680   3.404   4.921   0.861
60261SOL    HW282681   3.379   4.956   0.716
60262SOL     OW82682   2.392  13.396   3.422
60262SOL    HW182683   2.336  13.474   3.410
60262SOL    HW282684   2.341  13.339   3.479
60263SOL     OW82685   9.396   2.268   2.054
60263SOL    HW182686   9.452   2.328   2.005
60263SOL    HW282687   9.394   2.188   2.001
60264SOL     OW82688   9.780   6.279   8.202
60264SOL    HW182689   9.721   6.339   8.157
60264SOL    HW282690   9.746   6.192   8.182
60265SOL     OW82691  13.177  13.081   3.827
60265SOL    HW182692  13.189  13.168   3.864
60265SOL    HW282693  13.155  13.096   3.735
60266SOL     OW82694  14.459  13.848   4.450
60266SOL    HW182695  14.520  13.780   4.420
60266SOL    HW282696  14.515  13.922   4.474
60267SOL     OW82697   7.713   1.697  14.841
60267SOL    HW182698   7.678   1.785  14.832
60267SOL    HW282699   7.697   1.673   0.060
60268SOL     OW82700   1.776   3.272   9.928
60268SOL    HW182701   1.840   3.212   9.965
60268SOL    HW282702   1.755   3.234   9.843
60269SOL     OW82703   0.527   7.029  11.894
60269SOL    HW182704   0.440   7.029  11.933
60269SOL    HW282705   0.515   6.987  11.809
60270SOL     OW82706   3.394   6.509  11.275
60270SOL    HW182707   3.462   6.514  11.342
60270SOL    HW282708   3.442   6.508  11.192
60271SOL     OW82709   3.087  11.598   3.687
60271SOL    HW182710   3.085  11.680   3.736
60271SOL    HW282711   3.014  11.604   3.625
60272SOL     OW82712   3.870   7.999   8.778
60272SOL    HW182713   3.821   8.046   8.846
60272SOL    HW282714   3.912   8.068   8.726
60273SOL     OW82715   4.516  13.343   2.587
60273SOL    HW182716   4.423  13.366   2.580
60273SOL    HW282717   4.544  13.330   2.496
60274SOL     OW82718   1.649   2.156   2.822
60274SOL    HW182719   1.640   2.156   2.917
60274SOL    HW282720   1.624   2.244   2.795
60275SOL     OW82721  11.246  10.542   1.999
60275SOL    HW182722  11.161  10.552   1.958
60275SOL    HW282723  11.304  10.601   1.951
60276SOL     OW82724   1.921   2.862   5.173
60276SOL    HW182725   1.932   2.768   5.160
60276SOL    HW282726   2.006   2.893   5.204
60277SOL     OW82727   0.581   6.730   7.045
60277SOL    HW182728   0.572   6.652   6.990
60277SOL    HW282729   0.526   6.796   7.002
60278SOL     OW82730   3.567  12.369   6.668
60278SOL    HW182731   3.650  12.362   6.715
60278SOL    HW282732   3.538  12.278   6.658
60279SOL     OW82733   5.552   2.157   9.699
60279SOL    HW182734   5.599   2.096   9.755
60279SOL    HW282735   5.475   2.109   9.669
60280SOL     OW82736   6.077   8.000   4.046
60280SOL    HW182737   6.080   8.093   4.066
60280SOL    HW282738   6.162   7.966   4.072
60281SOL     OW82739   2.015   3.469   7.153
60281SOL    HW182740   2.000   3.376   7.170
60281SOL    HW282741   1.927   3.507   7.146
60282SOL     OW82742   1.959   4.759   6.449
60282SOL    HW182743   1.868   4.731   6.458
60282SOL    HW282744   1.958   4.852   6.473
60283SOL     OW82745   1.452   4.210  14.600
60283SOL    HW182746   1.372   4.159  14.614
60283SOL    HW282747   1.479   4.191  14.510
60284SOL     OW82748  12.192   2.957   3.176
60284SOL    HW182749  12.124   2.898   3.144
60284SOL    HW282750  12.227   2.913   3.254
60285SOL     OW82751   8.678   0.378   6.225
60285SOL    HW182752   8.711   0.317   6.291
60285SOL    HW282753   8.757   0.409   6.180
60286SOL     OW82754  10.513   8.683  12.046
60286SOL    HW182755  10.599   8.724  12.035
60286SOL    HW282756  10.470   8.734  12.115
60287SOL     OW82757  11.866   1.703   5.641
60287SOL    HW182758  11.911   1.644   5.581
60287SOL    HW282759  11.784   1.659   5.661
60288SOL     OW82760   7.738  14.012  13.916
60288SOL    HW182761   7.653  14.032  13.877
60288SOL    HW282762   7.755  13.922  13.889
60289SOL     OW82763   2.968   8.827  10.175
60289SOL    HW182764   2.998   8.881  10.247
60289SOL    HW282765   3.048   8.789  10.138
60290SOL     OW82766  12.368   0.132  12.780
60290SOL    HW182767  12.291   0.075  12.778
60290SOL    HW282768  12.415   0.111  12.699
60291SOL     OW82769  13.357   1.395  12.715
60291SOL    HW182770  13.400   1.433  12.639
60291SOL    HW282771  13.375   1.301  12.709
60292SOL     OW82772  10.628  13.450   1.997
60292SOL    HW182773  10.583  13.373   1.964
60292SOL    HW282774  10.628  13.512   1.924
60293SOL     OW82775  12.063   9.333  11.494
60293SOL    HW182776  12.151   9.299  11.508
60293SOL    HW282777  12.071   9.390  11.417
60294SOL     OW82778   8.824   0.740  10.124
60294SOL    HW182779   8.783   0.826  10.116
60294SOL    HW282780   8.794   0.707  10.208
60295SOL     OW82781   6.525  14.342   2.680
60295SOL    HW182782   6.531  14.420   2.625
60295SOL    HW282783   6.528  14.375   2.770
60296SOL     OW82784   9.997   8.274  10.321
60296SOL    HW182785  10.088   8.251  10.338
60296SOL    HW282786   9.995   8.297  10.228
60297SOL     OW82787  12.895  14.694   2.960
60297SOL    HW182788  12.888  14.790   2.960
60297SOL    HW282789  12.814  14.665   3.001
60298SOL     OW82790   3.681   8.827   3.882
60298SOL    HW182791   3.746   8.876   3.832
60298SOL    HW282792   3.600   8.875   3.870
60299SOL     OW82793   4.749   8.196   9.250
60299SOL    HW182794   4.755   8.286   9.219
60299SOL    HW282795   4.776   8.200   9.342
60300SOL     OW82796   0.171   2.679   4.719
60300SOL    HW182797   0.095   2.627   4.745
60300SOL    HW282798   0.143   2.727   4.641
60301SOL     OW82799   0.093   6.000   3.134
60301SOL    HW182800   0.062   5.909   3.124
60301SOL    HW282801   0.169   6.005   3.076
60302SOL     OW82802  13.721   5.456  12.705
60302SOL    HW182803  13.668   5.383  12.735
60302SOL    HW282804  13.801   5.451  12.758
60303SOL     OW82805  13.905  10.126   1.303
60303SOL    HW182806  13.924  10.035   1.281
60303SOL    HW282807  13.907  10.129   1.399
60304SOL     OW82808  13.059   9.867  14.267
60304SOL    HW182809  13.150   9.839  14.277
60304SOL    HW282810  13.021   9.859  14.355
60305SOL     OW82811   0.692   5.378   3.763
60305SOL    HW182812   0.627   5.406   3.828
60305SOL    HW282813   0.676   5.284   3.753
60306SOL     OW82814  12.098  13.649  10.956
60306SOL    HW182815  12.005  13.632  10.940
60306SOL    HW282816  12.119  13.597  11.033
60307SOL     OW82817   4.968  11.454   6.433
60307SOL    HW182818   5.011  11.453   6.348
60307SOL    HW282819   4.978  11.364   6.466
60308SOL     OW82820  13.738   3.928  14.628
60308SOL    HW182821  13.701   3.843  14.603
60308SOL    HW282822  13.812   3.941  14.569
60309SOL     OW82823  12.530   6.053  14.061
60309SOL    HW182824  12.461   6.001  14.018
60309SOL    HW282825  12.492   6.140  14.070
60310SOL     OW82826  13.943   1.021  11.610
60310SOL    HW182827  13.900   1.063  11.685
60310SOL    HW282828  13.873   0.974  11.566
60311SOL     OW82829   7.068   4.059   2.568
60311SOL    HW182830   7.043   4.020   2.485
60311SOL    HW282831   6.990   4.106   2.597
60312SOL     OW82832   2.700   8.427   6.177
60312SOL    HW182833   2.688   8.522   6.176
60312SOL    HW282834   2.719   8.406   6.269
60313SOL     OW82835   9.209   4.931   0.002
60313SOL    HW182836   9.305   4.932  14.867
60313SOL    HW282837   9.184   5.023  14.867
60314SOL     OW82838   6.878   0.469   8.231
60314SOL    HW182839   6.941   0.417   8.281
60314SOL    HW282840   6.843   0.408   8.166
60315SOL     OW82841   4.824   6.028   6.501
60315SOL    HW182842   4.870   6.051   6.582
60315SOL    HW282843   4.893   6.027   6.435
60316SOL     OW82844   4.702   4.526   0.817
60316SOL    HW182845   4.720   4.591   0.749
60316SOL    HW282846   4.612   4.497   0.800
60317SOL     OW82847  12.523   5.085   9.439
60317SOL    HW182848  12.516   5.014   9.374
60317SOL    HW282849  12.474   5.157   9.400
60318SOL     OW82850   2.692  11.982   5.301
60318SOL    HW182851   2.602  12.012   5.301
60318SOL    HW282852   2.701  11.934   5.218
60319SOL     OW82853   9.039  14.594   7.846
60319SOL    HW182854   9.026  14.616   7.754
60319SOL    HW282855   8.953  14.564   7.877
60320SOL     OW82856   1.766   4.805   7.456
60320SOL    HW182857   1.852   4.794   7.498
60320SOL    HW282858   1.774   4.758   7.373
60321SOL     OW82859  13.616   3.500  11.768
60321SOL    HW182860  13.575   3.508  11.682
60321SOL    HW282861  13.679   3.429  11.758
60322SOL     OW82862   4.489   4.397  11.697
60322SOL    HW182863   4.491   4.473  11.755
60322SOL    HW282864   4.561   4.411  11.636
60323SOL     OW82865   6.300   1.220   3.823
60323SOL    HW182866   6.210   1.253   3.818
60323SOL    HW282867   6.331   1.219   3.733
60324SOL     OW82868   7.247   2.673   0.516
60324SOL    HW182869   7.299   2.728   0.574
60324SOL    HW282870   7.156   2.698   0.534
60325SOL     OW82871   6.656   2.222   2.856
60325SOL    HW182872   6.650   2.148   2.795
60325SOL    HW282873   6.630   2.298   2.804
60326SOL     OW82874  11.221   9.342   3.774
60326SOL    HW182875  11.163   9.313   3.703
60326SOL    HW282876  11.309   9.316   3.745
60327SOL     OW82877   9.958  13.555  11.717
60327SOL    HW182878   9.896  13.601  11.661
60327SOL    HW282879   9.927  13.572  11.806
60328SOL     OW82880  14.534  10.429  10.075
60328SOL    HW182881  14.572  10.516  10.081
60328SOL    HW282882  14.588  10.374  10.131
60329SOL     OW82883   9.274   9.360  11.239
60329SOL    HW182884   9.288   9.307  11.317
60329SOL    HW282885   9.251   9.297  11.171
60330SOL     OW82886  14.686  13.517  11.145
60330SOL    HW182887  14.710  13.607  11.121
60330SOL    HW282888  14.768  13.468  11.139
60331SOL     OW82889   1.375   0.057   4.178
60331SOL    HW182890   1.304   0.059   4.113
60331SOL    HW282891   1.382   0.147   4.209
60332SOL     OW82892   4.817   6.919   3.233
60332SOL    HW182893   4.829   6.879   3.147
60332SOL    HW282894   4.828   6.847   3.295
60333SOL     OW82895  12.681   1.356   9.808
60333SOL    HW182896  12.746   1.309   9.861
60333SOL    HW282897  12.597   1.332   9.848
60334SOL     OW82898  10.389  11.652  11.578
60334SOL    HW182899  10.344  11.675  11.497
60334SOL    HW282900  10.383  11.731  11.633
60335SOL     OW82901   4.445   3.855   1.797
60335SOL    HW182902   4.458   3.851   1.891
60335SOL    HW282903   4.363   3.807   1.782
60336SOL     OW82904   0.135   8.803   8.484
60336SOL    HW182905   0.095   8.722   8.517
60336SOL    HW282906   0.181   8.839   8.560
60337SOL     OW82907  12.980   8.205   9.436
60337SOL    HW182908  12.911   8.220   9.500
60337SOL    HW282909  12.934   8.205   9.352
60338SOL     OW82910  13.486   0.078  13.287
60338SOL    HW182911  13.524   0.029  13.214
60338SOL    HW282912  13.392   0.079  13.269
60339SOL     OW82913   3.335  14.144   2.868
60339SOL    HW182914   3.295  14.217   2.821
60339SOL    HW282915   3.263  14.104   2.916
60340SOL     OW82916  11.529   3.076   8.568
60340SOL    HW182917  11.561   3.166   8.563
60340SOL    HW282918  11.435   3.084   8.552
60341SOL     OW82919  13.451   3.194   3.569
60341SOL    HW182920  13.504   3.120   3.597
60341SOL    HW282921  13.514   3.264   3.549
60342SOL     OW82922   8.334   6.405  12.617
60342SOL    HW182923   8.327   6.490  12.661
60342SOL    HW282924   8.376   6.348  12.680
60343SOL     OW82925   5.459   2.772   8.749
60343SOL    HW182926   5.514   2.713   8.698
60343SOL    HW282927   5.440   2.845   8.690
60344SOL     OW82928  13.288   3.460   4.996
60344SOL    HW182929  13.287   3.544   5.042
60344SOL    HW282930  13.372   3.459   4.950
60345SOL     OW82931   2.870   5.435  10.096
60345SOL    HW182932   2.905   5.524  10.086
60345SOL    HW282933   2.934   5.390  10.150
60346SOL     OW82934  11.261  11.355   2.625
60346SOL    HW182935  11.174  11.327   2.598
60346SOL    HW282936  11.312  11.357   2.544
60347SOL     OW82937   6.061   8.344  10.409
60347SOL    HW182938   6.113   8.274  10.371
60347SOL    HW282939   5.972   8.309  10.412
60348SOL     OW82940   8.961   4.965   8.324
60348SOL    HW182941   8.965   4.905   8.399
60348SOL    HW282942   9.051   4.973   8.295
60349SOL     OW82943   3.886  10.663   8.596
60349SOL    HW182944   3.874  10.744   8.547
60349SOL    HW282945   3.944  10.687   8.668
60350SOL     OW82946   5.420   8.272  13.967
60350SOL    HW182947   5.395   8.249  13.877
60350SOL    HW282948   5.513   8.247  13.973
60351SOL     OW82949  11.636   1.679   7.092
60351SOL    HW182950  11.571   1.646   7.030
60351SOL    HW282951  11.665   1.601   7.139
60352SOL     OW82952   2.069   2.142   3.790
60352SOL    HW182953   2.092   2.050   3.777
60352SOL    HW282954   1.973   2.143   3.787
60353SOL     OW82955   9.598   9.103  10.549
60353SOL    HW182956   9.585   9.110  10.454
60353SOL    HW282957   9.653   9.178  10.571
60354SOL     OW82958   0.668  13.311   4.703
60354SOL    HW182959   0.614  13.352   4.770
60354SOL    HW282960   0.689  13.224   4.738
60355SOL     OW82961   5.780   7.297   0.584
60355SOL    HW182962   5.742   7.376   0.546
60355SOL    HW282963   5.865   7.326   0.619
60356SOL     OW82964   2.988  14.512   4.889
60356SOL    HW182965   2.934  14.579   4.847
60356SOL    HW282966   3.061  14.500   4.828
60357SOL     OW82967   0.989   3.331   5.258
60357SOL    HW182968   0.977   3.252   5.204
60357SOL    HW282969   1.075   3.364   5.232
60358SOL     OW82970  14.729   4.545   3.511
60358SOL    HW182971  14.750   4.567   3.421
60358SOL    HW282972  14.634   4.531   3.510
60359SOL     OW82973   4.802   0.163  13.752
60359SOL    HW182974   4.763   0.245  13.722
60359SOL    HW282975   4.767   0.096  13.694
60360SOL     OW82976  12.138  11.310   6.489
60360SOL    HW182977  12.177  11.286   6.405
60360SOL    HW282978  12.160  11.402   6.500
60361SOL     OW82979   9.588   1.907   2.650
60361SOL    HW182980   9.527   1.834   2.662
60361SOL    HW282981   9.667   1.866   2.615
60362SOL     OW82982   4.660   2.107  10.390
60362SOL    HW182983   4.640   2.014  10.388
60362SOL    HW282984   4.687   2.124  10.480
60363SOL     OW82985  11.008   6.234   5.063
60363SOL    HW182986  10.963   6.206   5.143
60363SOL    HW282987  11.058   6.157   5.035
60364SOL     OW82988   1.025   4.130  10.802
60364SOL    HW182989   0.995   4.045  10.770
60364SOL    HW282990   0.967   4.193  10.759
60365SOL     OW82991  12.649   0.986   4.655
60365SOL    HW182992  12.646   1.079   4.632
60365SOL    HW282993  12.738   0.973   4.687
60366SOL     OW82994  14.292  12.846  12.320
60366SOL    HW182995  14.371  12.886  12.356
60366SOL    HW282996  14.318  12.818  12.232
60367SOL     OW82997   3.906   4.577   9.432
60367SOL    HW182998   3.956   4.541   9.505
60367SOL    HW282999   3.816   4.583   9.465
60368SOL     OW83000   5.792  12.994   2.575
60368SOL    HW183001   5.730  12.976   2.645
60368SOL    HW283002   5.811  13.087   2.582
60369SOL     OW83003   0.435   9.203   6.472
60369SOL    HW183004   0.353   9.153   6.469
60369SOL    HW283005   0.434   9.255   6.392
60370SOL     OW83006   0.667   1.649  10.179
60370SOL    HW183007   0.593   1.612  10.226
60370SOL    HW283008   0.708   1.708  10.243
60371SOL     OW83009  10.643   2.641   5.490
60371SOL    HW183010  10.711   2.596   5.441
60371SOL    HW283011  10.647   2.732   5.459
60372SOL     OW83012   2.401   5.001   0.093
60372SOL    HW183013   2.409   5.088   0.131
60372SOL    HW283014   2.315   4.969   0.121
60373SOL     OW83015  12.697  14.194   3.410
60373SOL    HW183016  12.613  14.156   3.434
60373SOL    HW283017  12.760  14.123   3.419
60374SOL     OW83018   5.143  10.665   9.245
60374SOL    HW183019   5.136  10.741   9.187
60374SOL    HW283020   5.236  10.661   9.269
60375SOL     OW83021   3.815   8.588   1.286
60375SOL    HW183022   3.785   8.500   1.265
60375SOL    HW283023   3.904   8.592   1.250
60376SOL     OW83024  14.376   4.235  14.628
60376SOL    HW183025  14.353   4.226  14.720
60376SOL    HW283026  14.419   4.153  14.605
60377SOL     OW83027  14.165   6.910  14.863
60377SOL    HW183028  14.079   6.880  14.833
60377SOL    HW283029  14.183   6.857   0.069
60378SOL     OW83030   7.393   4.452  12.542
60378SOL    HW183031   7.322   4.508  12.574
60378SOL    HW283032   7.352   4.367  12.528
60379SOL     OW83033  14.454   5.757  11.845
60379SOL    HW183034  14.394   5.797  11.909
60379SOL    HW283035  14.507   5.697  11.898
60380SOL     OW83036   0.973  12.288   1.976
60380SOL    HW183037   1.056  12.312   1.935
60380SOL    HW283038   0.935  12.223   1.917
60381SOL     OW83039   2.220   0.612   4.759
60381SOL    HW183040   2.295   0.559   4.733
60381SOL    HW283041   2.180   0.639   4.676
60382SOL     OW83042  11.148  13.446   6.676
60382SOL    HW183043  11.118  13.355   6.680
60382SOL    HW283044  11.226  13.448   6.733
60383SOL     OW83045   7.297   0.139   3.393
60383SOL    HW183046   7.344   0.112   3.472
60383SOL    HW283047   7.352   0.207   3.354
60384SOL     OW83048   9.135   9.137  13.738
60384SOL    HW183049   9.171   9.084  13.667
60384SOL    HW283050   9.042   9.144  13.717
60385SOL     OW83051  13.959   9.567  13.734
60385SOL    HW183052  13.966   9.550  13.828
60385SOL    HW283053  13.888   9.632  13.727
60386SOL     OW83054   7.558  11.350   6.300
60386SOL    HW183055   7.480  11.378   6.252
60386SOL    HW283056   7.578  11.263   6.264
60387SOL     OW83057  14.330   9.133   8.598
60387SOL    HW183058  14.385   9.075   8.650
60387SOL    HW283059  14.252   9.080   8.578
60388SOL     OW83060   1.820  14.799   2.117
60388SOL    HW183061   1.809  14.726   2.178
60388SOL    HW283062   1.881  14.858   2.161
60389SOL     OW83063   1.302  14.834   5.250
60389SOL    HW183064   1.249   0.020   5.194
60389SOL    HW283065   1.279  14.860   5.339
60390SOL     OW83066   0.798   2.470   9.279
60390SOL    HW183067   0.807   2.544   9.218
60390SOL    HW283068   0.705   2.470   9.303
60391SOL     OW83069   1.074   5.466   0.951
60391SOL    HW183070   0.994   5.421   0.923
60391SOL    HW283071   1.063   5.478   1.045
60392SOL     OW83072  10.439   6.603   4.475
60392SOL    HW183073  10.531   6.584   4.493
60392SOL    HW283074  10.397   6.603   4.562
60393SOL     OW83075  14.396  14.421   2.222
60393SOL    HW183076  14.308  14.390   2.243
60393SOL    HW283077  14.397  14.512   2.252
60394SOL     OW83078   2.526  12.875   4.839
60394SOL    HW183079   2.489  12.862   4.927
60394SOL    HW283080   2.596  12.811   4.834
60395SOL     OW83081  11.628   4.287  11.124
60395SOL    HW183082  11.568   4.271  11.051
60395SOL    HW283083  11.572   4.285  11.202
60396SOL     OW83084  13.623   6.077   2.308
60396SOL    HW183085  13.546   6.023   2.327
60396SOL    HW283086  13.638   6.127   2.388
60397SOL     OW83087   8.399   1.054  11.861
60397SOL    HW183088   8.453   1.132  11.877
60397SOL    HW283089   8.421   0.993  11.931
60398SOL     OW83090   3.445   6.368   7.773
60398SOL    HW183091   3.413   6.307   7.707
60398SOL    HW283092   3.516   6.321   7.817
60399SOL     OW83093  10.933   2.879  11.411
60399SOL    HW183094  11.011   2.892  11.465
60399SOL    HW283095  10.946   2.794  11.369
60400SOL     OW83096   5.154   6.458  10.337
60400SOL    HW183097   5.087   6.491  10.398
60400SOL    HW283098   5.172   6.532  10.279
60401SOL     OW83099  14.785   9.827  11.036
60401SOL    HW183100  14.810   9.885  11.109
60401SOL    HW283101  14.714   9.874  10.991
60402SOL     OW83102   2.975   9.359   7.758
60402SOL    HW183103   3.059   9.327   7.791
60402SOL    HW283104   2.999   9.416   7.684
60403SOL     OW83105   1.711   0.950   3.256
60403SOL    HW183106   1.791   1.002   3.254
60403SOL    HW283107   1.738   0.864   3.289
60404SOL     OW83108   1.685   4.056  10.461
60404SOL    HW183109   1.640   4.089  10.383
60404SOL    HW283110   1.616   4.047  10.526
60405SOL     OW83111   1.704   2.405   6.972
60405SOL    HW183112   1.697   2.426   6.879
60405SOL    HW283113   1.625   2.442   7.011
60406SOL     OW83114  10.733  13.899   6.118
60406SOL    HW183115  10.642  13.896   6.087
60406SOL    HW283116  10.748  13.992   6.137
60407SOL     OW83117   6.610   2.581   6.555
60407SOL    HW183118   6.670   2.555   6.624
60407SOL    HW283119   6.547   2.509   6.548
60408SOL     OW83120   2.101   9.986  11.309
60408SOL    HW183121   2.140  10.016  11.226
60408SOL    HW283122   2.169  10.001  11.374
60409SOL     OW83123   1.471   9.889   9.798
60409SOL    HW183124   1.445   9.981   9.788
60409SOL    HW283125   1.444   9.866   9.887
60410SOL     OW83126   0.106   6.307   3.137
60410SOL    HW183127   0.016   6.296   3.107
60410SOL    HW283128   0.143   6.219   3.136
60411SOL     OW83129   2.572  12.323   8.841
60411SOL    HW183130   2.479  12.323   8.860
60411SOL    HW283131   2.581  12.375   8.761
60412SOL     OW83132   0.495   2.377  10.839
60412SOL    HW183133   0.543   2.457  10.817
60412SOL    HW283134   0.420   2.407  10.889
60413SOL     OW83135   7.721   8.291   8.252
60413SOL    HW183136   7.692   8.214   8.203
60413SOL    HW283137   7.674   8.285   8.335
60414SOL     OW83138   5.508   9.942   8.036
60414SOL    HW183139   5.512  10.026   8.081
60414SOL    HW283140   5.588   9.897   8.063
60415SOL     OW83141   2.746   2.679   2.321
60415SOL    HW183142   2.836   2.698   2.349
60415SOL    HW283143   2.708   2.629   2.393
60416SOL     OW83144   0.840   2.766  14.585
60416SOL    HW183145   0.910   2.741  14.524
60416SOL    HW283146   0.760   2.733  14.543
60417SOL     OW83147   8.295   2.585  13.169
60417SOL    HW183148   8.326   2.644  13.238
60417SOL    HW283149   8.287   2.500  13.212
60418SOL     OW83150  12.285  14.698   4.210
60418SOL    HW183151  12.193  14.721   4.193
60418SOL    HW283152  12.336  14.761   4.159
60419SOL     OW83153   1.540   7.130  13.987
60419SOL    HW183154   1.631   7.157  13.976
60419SOL    HW283155   1.506   7.121  13.898
60420SOL     OW83156   4.611   6.819   5.484
60420SOL    HW183157   4.541   6.874   5.520
60420SOL    HW283158   4.587   6.806   5.393
60421SOL     OW83159  13.340  13.261   2.781
60421SOL    HW183160  13.352  13.178   2.734
60421SOL    HW283161  13.359  13.328   2.715
60422SOL     OW83162  10.728  13.739   9.634
60422SOL    HW183163  10.687  13.720   9.550
60422SOL    HW283164  10.712  13.661   9.687
60423SOL     OW83165   9.006   4.397  10.648
60423SOL    HW183166   9.068   4.470  10.648
60423SOL    HW283167   8.969   4.398  10.560
60424SOL     OW83168   0.161  10.532  12.033
60424SOL    HW183169   0.116  10.521  12.117
60424SOL    HW283170   0.169  10.443  11.998
60425SOL     OW83171   7.884   7.588   9.710
60425SOL    HW183172   7.845   7.546   9.634
60425SOL    HW283173   7.815   7.588   9.777
60426SOL     OW83174   3.355   9.893   4.362
60426SOL    HW183175   3.403   9.857   4.287
60426SOL    HW283176   3.341   9.818   4.420
60427SOL     OW83177  13.868   2.303  14.591
60427SOL    HW183178  13.841   2.378  14.645
60427SOL    HW283179  13.962   2.296  14.606
60428SOL     OW83180   7.004   4.195   1.628
60428SOL    HW183181   6.930   4.251   1.604
60428SOL    HW283182   7.075   4.222   1.570
60429SOL     OW83183  12.142   8.535   2.123
60429SOL    HW183184  12.065   8.591   2.124
60429SOL    HW283185  12.120   8.463   2.182
60430SOL     OW83186   8.660  10.929   2.418
60430SOL    HW183187   8.648  10.925   2.513
60430SOL    HW283188   8.751  10.901   2.404
60431SOL     OW83189  11.399   5.905   0.123
60431SOL    HW183190  11.368   5.906   0.214
60431SOL    HW283191  11.430   5.816   0.108
60432SOL     OW83192   6.972   1.013  10.652
60432SOL    HW183193   7.041   1.080  10.657
60432SOL    HW283194   7.009   0.937  10.697
60433SOL     OW83195   9.086  14.288  10.539
60433SOL    HW183196   9.040  14.302  10.621
60433SOL    HW283197   9.159  14.231  10.561
60434SOL     OW83198   5.120   9.763   6.356
60434SOL    HW183199   5.193   9.709   6.386
60434SOL    HW283200   5.042   9.724   6.395
60435SOL     OW83201   4.335   5.562  11.677
60435SOL    HW183202   4.370   5.472  11.676
60435SOL    HW283203   4.366   5.600  11.594
60436SOL     OW83204  11.608  11.995  14.644
60436SOL    HW183205  11.631  11.905  14.623
60436SOL    HW283206  11.680  12.027  14.698
60437SOL     OW83207   6.584   3.451   6.940
60437SOL    HW183208   6.608   3.372   6.988
60437SOL    HW283209   6.527   3.419   6.870
60438SOL     OW83210   5.128   2.600   9.344
60438SOL    HW183211   5.180   2.652   9.405
60438SOL    HW283212   5.049   2.651   9.330
60439SOL     OW83213   2.910   1.373  10.462
60439SOL    HW183214   2.991   1.419  10.439
60439SOL    HW283215   2.848   1.401  10.395
60440SOL     OW83216   0.235   8.939   9.427
60440SOL    HW183217   0.253   9.027   9.393
60440SOL    HW283218   0.303   8.884   9.386
60441SOL     OW83219   2.222   3.243   4.265
60441SOL    HW183220   2.305   3.290   4.259
60441SOL    HW283221   2.179   3.260   4.182
60442SOL     OW83222   7.914   3.564   6.937
60442SOL    HW183223   7.995   3.526   6.972
60442SOL    HW283224   7.900   3.643   6.989
60443SOL     OW83225   7.106  13.086   7.817
60443SOL    HW183226   7.162  13.149   7.771
60443SOL    HW283227   7.167  13.019   7.848
60444SOL     OW83228  12.874   8.632  14.169
60444SOL    HW183229  12.821   8.553  14.158
60444SOL    HW283230  12.947   8.622  14.109
60445SOL     OW83231  11.283  11.519   1.388
60445SOL    HW183232  11.243  11.511   1.302
60445SOL    HW283233  11.210  11.518   1.449
60446SOL     OW83234   9.411   9.271   4.410
60446SOL    HW183235   9.491   9.224   4.386
60446SOL    HW283236   9.431   9.363   4.390
60447SOL     OW83237   3.509  12.771   6.136
60447SOL    HW183238   3.545  12.716   6.206
60447SOL    HW283239   3.565  12.752   6.060
60448SOL     OW83240  10.994  12.469   1.190
60448SOL    HW183241  10.944  12.397   1.150
60448SOL    HW283242  11.081  12.432   1.205
60449SOL     OW83243  10.837   9.903   5.023
60449SOL    HW183244  10.750   9.943   5.030
60449SOL    HW283245  10.897   9.977   5.016
60450SOL     OW83246   3.468   7.774  10.962
60450SOL    HW183247   3.524   7.841  10.923
60450SOL    HW283248   3.432   7.726  10.888
60451SOL     OW83249  11.363  11.684   2.561
60451SOL    HW183250  11.308  11.761   2.576
60451SOL    HW283251  11.335  11.621   2.627
60452SOL     OW83252   6.424   5.564   0.851
60452SOL    HW183253   6.509   5.520   0.850
60452SOL    HW283254   6.444   5.656   0.837
60453SOL     OW83255   0.647   1.000   3.403
60453SOL    HW183256   0.641   0.977   3.311
60453SOL    HW283257   0.561   1.036   3.425
60454SOL     OW83258  13.792   8.291   1.714
60454SOL    HW183259  13.755   8.275   1.801
60454SOL    HW283260  13.758   8.376   1.688
60455SOL     OW83261   2.559   0.899   2.675
60455SOL    HW183262   2.508   0.861   2.603
60455SOL    HW283263   2.647   0.912   2.638
60456SOL     OW83264   2.176  11.162   0.582
60456SOL    HW183265   2.196  11.226   0.514
60456SOL    HW283266   2.236  11.183   0.653
60457SOL     OW83267   1.643   4.320   7.342
60457SOL    HW183268   1.557   4.323   7.302
60457SOL    HW283269   1.704   4.343   7.272
60458SOL     OW83270   5.985   2.572  14.757
60458SOL    HW183271   5.948   2.516  14.824
60458SOL    HW283272   6.007   2.513  14.685
60459SOL     OW83273   9.764   9.805   6.480
60459SOL    HW183274   9.732   9.721   6.514
60459SOL    HW283275   9.694   9.867   6.500
60460SOL     OW83276   6.320   3.294  12.167
60460SOL    HW183277   6.238   3.263  12.128
60460SOL    HW283278   6.307   3.282  12.261
60461SOL     OW83279   9.732  13.174  14.138
60461SOL    HW183280   9.760  13.212  14.055
60461SOL    HW283281   9.803  13.114  14.162
60462SOL     OW83282  11.823  13.002  10.340
60462SOL    HW183283  11.810  13.095  10.323
60462SOL    HW283284  11.918  12.990  10.341
60463SOL     OW83285   0.943   8.943  14.238
60463SOL    HW183286   0.949   8.848  14.246
60463SOL    HW283287   0.953   8.959  14.144
60464SOL     OW83288   3.099   5.611  14.849
60464SOL    HW183289   3.118   5.589   0.068
60464SOL    HW283290   3.113   5.706  14.843
60465SOL     OW83291  11.276  10.892  10.331
60465SOL    HW183292  11.204  10.836  10.302
60465SOL    HW283293  11.260  10.976  10.289
60466SOL     OW83294   4.468  12.958  10.630
60466SOL    HW183295   4.381  12.997  10.615
60466SOL    HW283296   4.507  13.013  10.698
60467SOL     OW83297   8.808   4.146   8.094
60467SOL    HW183298   8.827   4.052   8.090
60467SOL    HW283299   8.893   4.188   8.080
60468SOL     OW83300  14.301  11.514   5.750
60468SOL    HW183301  14.339  11.601   5.737
60468SOL    HW283302  14.310  11.471   5.664
60469SOL     OW83303   9.874  11.551   3.783
60469SOL    HW183304   9.913  11.561   3.696
60469SOL    HW283305   9.944  11.514   3.837
60470SOL     OW83306  13.652   6.862   8.317
60470SOL    HW183307  13.686   6.808   8.245
60470SOL    HW283308  13.567   6.893   8.286
60471SOL     OW83309   3.747   8.717  10.729
60471SOL    HW183310   3.831   8.735  10.687
60471SOL    HW283311   3.736   8.785  10.794
60472SOL     OW83312   7.048   8.330   0.403
60472SOL    HW183313   7.074   8.255   0.350
60472SOL    HW283314   6.972   8.366   0.357
60473SOL     OW83315   7.723  12.699   1.035
60473SOL    HW183316   7.718  12.755   1.113
60473SOL    HW283317   7.643  12.717   0.987
60474SOL     OW83318   4.637  12.442   1.428
60474SOL    HW183319   4.544  12.458   1.444
60474SOL    HW283320   4.640  12.399   1.342
60475SOL     OW83321  13.333   6.540  14.770
60475SOL    HW183322  13.315   6.487  14.848
60475SOL    HW283323  13.340   6.629  14.803
60476SOL     OW83324   0.143   0.561   8.071
60476SOL    HW183325   0.060   0.572   8.025
60476SOL    HW283326   0.191   0.497   8.018
60477SOL     OW83327  10.255   3.627   8.698
60477SOL    HW183328  10.285   3.643   8.788
60477SOL    HW283329  10.193   3.697   8.680
60478SOL     OW83330  12.459   0.120   2.039
60478SOL    HW183331  12.460   0.159   1.952
60478SOL    HW283332  12.466   0.026   2.024
60479SOL     OW83333   1.892   7.738   4.761
60479SOL    HW183334   1.977   7.756   4.721
60479SOL    HW283335   1.828   7.773   4.699
60480SOL     OW83336   6.480  13.482  11.375
60480SOL    HW183337   6.478  13.423  11.299
60480SOL    HW283338   6.534  13.556  11.346
60481SOL     OW83339  12.462   9.928  13.896
60481SOL    HW183340  12.476   9.900  13.987
60481SOL    HW283341  12.500   9.858  13.843
60482SOL     OW83342   1.822  12.871  10.413
60482SOL    HW183343   1.902  12.864  10.360
60482SOL    HW283344   1.752  12.842  10.356
60483SOL     OW83345   9.465   3.275   9.084
60483SOL    HW183346   9.409   3.203   9.056
60483SOL    HW283347   9.488   3.253   9.175
60484SOL     OW83348   6.757   7.233   7.393
60484SOL    HW183349   6.684   7.291   7.413
60484SOL    HW283350   6.807   7.279   7.325
60485SOL     OW83351  14.732   5.107  12.564
60485SOL    HW183352  14.643   5.114  12.528
60485SOL    HW283353  14.729   5.159  12.644
60486SOL     OW83354   0.046  10.303   3.083
60486SOL    HW183355  14.831  10.275   3.056
60486SOL    HW283356   0.060  10.262   3.168
60487SOL     OW83357   3.155   9.734   2.919
60487SOL    HW183358   3.200   9.801   2.867
60487SOL    HW283359   3.067   9.731   2.882
60488SOL     OW83360   4.985   3.323   1.032
60488SOL    HW183361   5.079   3.341   1.040
60488SOL    HW283362   4.946   3.407   1.012
60489SOL     OW83363   1.871  12.969  14.081
60489SOL    HW183364   1.890  13.002  14.169
60489SOL    HW283365   1.957  12.965  14.038
60490SOL     OW83366   8.709   4.974   7.824
60490SOL    HW183367   8.745   5.060   7.845
60490SOL    HW283368   8.614   4.987   7.823
60491SOL     OW83369   8.053  11.694   6.493
60491SOL    HW183370   7.976  11.708   6.547
60491SOL    HW283371   8.116  11.759   6.524
60492SOL     OW83372  10.359   8.473  12.117
60492SOL    HW183373  10.412   8.552  12.113
60492SOL    HW283374  10.305   8.484  12.196
60493SOL     OW83375  10.558  14.782  10.742
60493SOL    HW183376  10.558   0.005  10.754
60493SOL    HW283377  10.466  14.761  10.722
60494SOL     OW83378  14.690   9.863   4.573
60494SOL    HW183379  14.707   9.888   4.664
60494SOL    HW283380  14.758   9.907   4.523
60495SOL     OW83381   0.378   4.586  14.612
60495SOL    HW183382   0.367   4.644  14.536
60495SOL    HW283383   0.393   4.500  14.573
60496SOL     OW83384   7.907   3.100   0.104
60496SOL    HW183385   7.909   3.188   0.067
60496SOL    HW283386   7.965   3.105   0.180
60497SOL     OW83387   7.261  14.502  10.430
60497SOL    HW183388   7.194  14.434  10.434
60497SOL    HW283389   7.324  14.477  10.497
60498SOL     OW83390   6.975  11.641   8.174
60498SOL    HW183391   6.980  11.559   8.223
60498SOL    HW283392   7.064  11.655   8.141
60499SOL     OW83393   2.074   1.368  10.946
60499SOL    HW183394   2.110   1.353  11.033
60499SOL    HW283395   2.141   1.337  10.886
60500SOL     OW83396  11.419  11.636   2.937
60500SOL    HW183397  11.502  11.591   2.924
60500SOL    HW283398  11.440  11.713   2.989
60501SOL     OW83399  14.615  10.631   5.136
60501SOL    HW183400  14.670  10.572   5.085
60501SOL    HW283401  14.598  10.705   5.077
60502SOL     OW83402   0.479  11.107   8.381
60502SOL    HW183403   0.505  11.015   8.374
60502SOL    HW283404   0.534  11.142   8.450
60503SOL     OW83405   4.947   1.390   2.627
60503SOL    HW183406   4.896   1.311   2.608
60503SOL    HW283407   5.038   1.363   2.612
60504SOL     OW83408   5.569   6.292   9.335
60504SOL    HW183409   5.624   6.299   9.257
60504SOL    HW283410   5.582   6.203   9.366
60505SOL     OW83411  10.953   7.486   1.869
60505SOL    HW183412  10.900   7.548   1.817
60505SOL    HW283413  11.038   7.486   1.826
60506SOL     OW83414  11.235  10.219  13.643
60506SOL    HW183415  11.157  10.255  13.686
60506SOL    HW283416  11.307  10.240  13.703
60507SOL     OW83417   5.040  13.445   8.042
60507SOL    HW183418   5.100  13.468   8.113
60507SOL    HW283419   4.985  13.522   8.031
60508SOL     OW83420   1.913   8.382   8.197
60508SOL    HW183421   1.925   8.341   8.112
60508SOL    HW283422   1.860   8.460   8.180
60509SOL     OW83423   8.453   2.980   2.037
60509SOL    HW183424   8.472   3.074   2.045
60509SOL    HW283425   8.538   2.940   2.016
60510SOL     OW83426  12.974  14.379   8.452
60510SOL    HW183427  12.987  14.473   8.436
60510SOL    HW283428  12.908  14.353   8.388
60511SOL     OW83429  13.540  11.547   1.090
60511SOL    HW183430  13.534  11.454   1.110
60511SOL    HW283431  13.454  11.582   1.112
60512SOL     OW83432   0.125   2.547   1.380
60512SOL    HW183433   0.147   2.592   1.299
60512SOL    HW283434   0.203   2.558   1.435
60513SOL     OW83435   6.523  10.295   3.468
60513SOL    HW183436   6.464  10.315   3.541
60513SOL    HW283437   6.478  10.328   3.390
60514SOL     OW83438  12.705   9.063   5.774
60514SOL    HW183439  12.625   9.091   5.819
60514SOL    HW283440  12.695   9.095   5.685
60515SOL     OW83441   0.426   2.304   5.486
60515SOL    HW183442   0.394   2.216   5.466
60515SOL    HW283443   0.421   2.310   5.581
60516SOL     OW83444   9.268  14.072   6.312
60516SOL    HW183445   9.211  14.133   6.359
60516SOL    HW283446   9.229  14.063   6.226
60517SOL     OW83447   1.278   1.960  13.319
60517SOL    HW183448   1.235   1.908  13.251
60517SOL    HW283449   1.326   1.895  13.371
60518SOL     OW83450   7.462  11.639   6.570
60518SOL    HW183451   7.448  11.707   6.637
60518SOL    HW283452   7.554  11.617   6.578
60519SOL     OW83453   4.345   5.992   5.843
60519SOL    HW183454   4.293   6.070   5.825
60519SOL    HW283455   4.313   5.926   5.781
60520SOL     OW83456  14.059   4.546  10.868
60520SOL    HW183457  14.084   4.496  10.946
60520SOL    HW283458  13.995   4.609  10.900
60521SOL     OW83459   6.100   6.573   1.111
60521SOL    HW183460   6.182   6.533   1.142
60521SOL    HW283461   6.056   6.503   1.063
60522SOL     OW83462   0.269   7.403   8.232
60522SOL    HW183463   0.355   7.420   8.192
60522SOL    HW283464   0.280   7.320   8.278
60523SOL     OW83465  11.613  14.636   0.179
60523SOL    HW183466  11.523  14.616   0.207
60523SOL    HW283467  11.620  14.731   0.189
60524SOL     OW83468   1.823  12.784  14.670
60524SOL    HW183469   1.794  12.693  14.683
60524SOL    HW283470   1.912  12.775  14.635
60525SOL     OW83471  11.261  12.065  11.802
60525SOL    HW183472  11.343  12.017  11.805
60525SOL    HW283473  11.283  12.153  11.832
60526SOL     OW83474   1.291   1.996   6.452
60526SOL    HW183475   1.226   1.976   6.519
60526SOL    HW283476   1.332   2.077   6.483
60527SOL     OW83477   9.569  14.627  11.959
60527SOL    HW183478   9.632  14.688  11.919
60527SOL    HW283479   9.623  14.574  12.018
60528SOL     OW83480  11.760   4.375   7.839
60528SOL    HW183481  11.740   4.419   7.922
60528SOL    HW283482  11.675   4.363   7.797
60529SOL     OW83483   6.549  12.099   9.505
60529SOL    HW183484   6.510  12.034   9.446
60529SOL    HW283485   6.638  12.068   9.519
60530SOL     OW83486  11.542  10.492   4.576
60530SOL    HW183487  11.612  10.427   4.577
60530SOL    HW283488  11.576  10.565   4.627
60531SOL     OW83489   8.864   9.672   1.009
60531SOL    HW183490   8.921   9.600   1.036
60531SOL    HW283491   8.834   9.648   0.922
60532SOL     OW83492  10.257   9.255  10.590
60532SOL    HW183493  10.229   9.265  10.499
60532SOL    HW283494  10.241   9.341  10.629
60533SOL     OW83495   6.843   8.670  14.119
60533SOL    HW183496   6.764   8.654  14.172
60533SOL    HW283497   6.809   8.691  14.032
60534SOL     OW83498   5.551  14.774  11.346
60534SOL    HW183499   5.532  14.682  11.328
60534SOL    HW283500   5.470  14.810  11.380
60535SOL     OW83501   2.691   6.664   6.191
60535SOL    HW183502   2.764   6.608   6.166
60535SOL    HW283503   2.632   6.607   6.240
60536SOL     OW83504   9.364  13.983   1.908
60536SOL    HW183505   9.343  13.896   1.942
60536SOL    HW283506   9.339  13.979   1.816
60537SOL     OW83507   8.454  11.388   0.436
60537SOL    HW183508   8.533  11.361   0.483
60537SOL    HW283509   8.412  11.305   0.412
60538SOL     OW83510  11.312   0.526   2.124
60538SOL    HW183511  11.255   0.601   2.142
60538SOL    HW283512  11.399   0.555   2.153
60539SOL     OW83513   8.798  11.388  13.332
60539SOL    HW183514   8.817  11.448  13.260
60539SOL    HW283515   8.710  11.412  13.361
60540SOL     OW83516  13.819  13.743  13.598
60540SOL    HW183517  13.799  13.826  13.553
60540SOL    HW283518  13.859  13.770  13.681
60541SOL     OW83519  11.536  10.531   0.557
60541SOL    HW183520  11.526  10.436   0.547
60541SOL    HW283521  11.478  10.553   0.630
60542SOL     OW83522   7.752   4.313  11.819
60542SOL    HW183523   7.751   4.223  11.854
60542SOL    HW283524   7.710   4.305  11.733
60543SOL     OW83525   8.328   8.098   4.059
60543SOL    HW183526   8.381   8.019   4.049
60543SOL    HW283527   8.238   8.068   4.051
60544SOL     OW83528  10.696   2.331   0.066
60544SOL    HW183529  10.666   2.389  14.868
60544SOL    HW283530  10.785   2.360   0.085
60545SOL     OW83531   9.607   1.098   3.153
60545SOL    HW183532   9.656   1.150   3.090
60545SOL    HW283533   9.543   1.159   3.190
60546SOL     OW83534  12.152   4.095   5.992
60546SOL    HW183535  12.165   4.170   5.934
60546SOL    HW283536  12.125   4.024   5.933
60547SOL     OW83537   4.035   9.464  10.850
60547SOL    HW183538   4.039   9.535  10.785
60547SOL    HW283539   3.950   9.475  10.891
60548SOL     OW83540   1.074   1.931   7.319
60548SOL    HW183541   1.101   1.940   7.228
60548SOL    HW283542   1.142   1.974   7.369
60549SOL     OW83543   0.541  12.788   2.563
60549SOL    HW183544   0.550  12.801   2.469
60549SOL    HW283545   0.570  12.870   2.602
60550SOL     OW83546   0.114  14.577   3.896
60550SOL    HW183547   0.038  14.529   3.862
60550SOL    HW283548   0.077  14.659   3.930
60551SOL     OW83549  11.473   7.175   2.095
60551SOL    HW183550  11.431   7.135   2.170
60551SOL    HW283551  11.558   7.204   2.128
60552SOL     OW83552   5.482   4.012  11.923
60552SOL    HW183553   5.387   4.014  11.906
60552SOL    HW283554   5.506   4.104  11.933
60553SOL     OW83555  14.643   4.820   2.453
60553SOL    HW183556  14.622   4.832   2.361
60553SOL    HW283557  14.738   4.807   2.455
60554SOL     OW83558   8.951  11.899   3.007
60554SOL    HW183559   9.029  11.955   3.007
60554SOL    HW283560   8.974  11.827   3.066
60555SOL     OW83561   8.388   3.006   5.916
60555SOL    HW183562   8.352   3.058   5.843
60555SOL    HW283563   8.475   2.981   5.887
60556SOL     OW83564   5.615   0.198   1.563
60556SOL    HW183565   5.643   0.180   1.474
60556SOL    HW283566   5.678   0.151   1.618
60557SOL     OW83567   9.434   0.827   9.496
60557SOL    HW183568   9.414   0.747   9.447
60557SOL    HW283569   9.382   0.819   9.576
60558SOL     OW83570  11.209   6.256   8.737
60558SOL    HW183571  11.193   6.336   8.686
60558SOL    HW283572  11.303   6.242   8.731
60559SOL     OW83573   8.751   1.824  11.637
60559SOL    HW183574   8.743   1.855  11.547
60559SOL    HW283575   8.785   1.735  11.628
60560SOL     OW83576   2.787  14.324   8.123
60560SOL    HW183577   2.764  14.340   8.214
60560SOL    HW283578   2.879  14.352   8.116
60561SOL     OW83579   9.096   5.771   5.510
60561SOL    HW183580   9.050   5.839   5.461
60561SOL    HW283581   9.079   5.791   5.602
60562SOL     OW83582  13.145  13.607   4.849
60562SOL    HW183583  13.225  13.631   4.802
60562SOL    HW283584  13.138  13.512   4.838
60563SOL     OW83585   2.554   0.515   0.157
60563SOL    HW183586   2.523   0.597   0.196
60563SOL    HW283587   2.479   0.481   0.109
60564SOL     OW83588   5.164   7.641  11.717
60564SOL    HW183589   5.244   7.643  11.769
60564SOL    HW283590   5.116   7.719  11.744
60565SOL     OW83591  11.993  10.506   0.736
60565SOL    HW183592  12.028  10.543   0.817
60565SOL    HW283593  12.066  10.456   0.698
60566SOL     OW83594   8.733   6.793  14.737
60566SOL    HW183595   8.674   6.754  14.801
60566SOL    HW283596   8.726   6.888  14.754
60567SOL     OW83597   9.171  13.244   9.198
60567SOL    HW183598   9.106  13.240   9.268
60567SOL    HW283599   9.200  13.335   9.196
60568SOL     OW83600  12.099   3.500   7.885
60568SOL    HW183601  12.088   3.435   7.816
60568SOL    HW283602  12.122   3.581   7.839
60569SOL     OW83603  13.029   0.389   9.451
60569SOL    HW183604  13.072   0.389   9.537
60569SOL    HW283605  13.075   0.321   9.401
60570SOL     OW83606   2.588   2.604   7.327
60570SOL    HW183607   2.513   2.599   7.386
60570SOL    HW283608   2.555   2.572   7.243
60571SOL     OW83609   8.180   9.056   6.688
60571SOL    HW183610   8.166   9.016   6.773
60571SOL    HW283611   8.111   9.019   6.632
60572SOL     OW83612  14.531  13.576   8.519
60572SOL    HW183613  14.521  13.616   8.433
60572SOL    HW283614  14.624  13.586   8.540
60573SOL     OW83615   0.798   0.448   7.290
60573SOL    HW183616   0.861   0.377   7.287
60573SOL    HW283617   0.718   0.409   7.325
60574SOL     OW83618   4.864  10.047   6.452
60574SOL    HW183619   4.771  10.023   6.459
60574SOL    HW283620   4.884  10.037   6.359
60575SOL     OW83621   7.746  13.508  13.037
60575SOL    HW183622   7.691  13.493  13.114
60575SOL    HW283623   7.685  13.530  12.967
60576SOL     OW83624   0.420  14.651   6.294
60576SOL    HW183625   0.364  14.643   6.372
60576SOL    HW283626   0.362  14.688   6.227
60577SOL     OW83627  14.070   5.861  11.900
60577SOL    HW183628  14.164   5.878  11.897
60577SOL    HW283629  14.035   5.931  11.956
60578SOL     OW83630   9.865  10.533  13.687
60578SOL    HW183631   9.828  10.563  13.770
60578SOL    HW283632   9.900  10.446  13.706
60579SOL     OW83633   3.614   3.790   6.620
60579SOL    HW183634   3.697   3.834   6.637
60579SOL    HW283635   3.625   3.702   6.658
60580SOL     OW83636   7.272   0.791   2.531
60580SOL    HW183637   7.269   0.859   2.599
60580SOL    HW283638   7.325   0.721   2.570
60581SOL     OW83639  13.375   5.613   9.335
60581SOL    HW183640  13.380   5.660   9.251
60581SOL    HW283641  13.282   5.600   9.349
60582SOL     OW83642  13.708   9.026  14.818
60582SOL    HW183643  13.646   8.960  14.790
60582SOL    HW283644  13.660   9.109  14.811
60583SOL     OW83645   6.724   5.953   6.760
60583SOL    HW183646   6.653   5.899   6.727
60583SOL    HW283647   6.803   5.918   6.718
60584SOL     OW83648   1.923   9.867   8.931
60584SOL    HW183649   1.923   9.771   8.930
60584SOL    HW283650   1.852   9.891   8.990
60585SOL     OW83651   4.186  12.455   9.485
60585SOL    HW183652   4.198  12.441   9.579
60585SOL    HW283653   4.275  12.453   9.450
60586SOL     OW83654   5.104  11.416   3.212
60586SOL    HW183655   5.189  11.385   3.182
60586SOL    HW283656   5.112  11.512   3.211
60587SOL     OW83657   8.259  11.553  11.846
60587SOL    HW183658   8.214  11.573  11.928
60587SOL    HW283659   8.189  11.536  11.783
60588SOL     OW83660  10.445   0.452   2.388
60588SOL    HW183661  10.443   0.544   2.366
60588SOL    HW283662  10.402   0.408   2.315
60589SOL     OW83663   0.011   5.815  13.845
60589SOL    HW183664  14.846   5.853  13.925
60589SOL    HW283665   0.089   5.769  13.874
60590SOL     OW83666   3.388  13.682  11.113
60590SOL    HW183667   3.347  13.751  11.062
60590SOL    HW283668   3.458  13.649  11.057
60591SOL     OW83669  13.876  10.183   8.824
60591SOL    HW183670  13.892  10.104   8.772
60591SOL    HW283671  13.806  10.229   8.776
60592SOL     OW83672   9.311   3.692  10.875
60592SOL    HW183673   9.352   3.726  10.795
60592SOL    HW283674   9.299   3.599  10.858
60593SOL     OW83675   7.704   6.818  13.639
60593SOL    HW183676   7.719   6.810  13.733
60593SOL    HW283677   7.679   6.730  13.611
60594SOL     OW83678   8.924   8.984   3.777
60594SOL    HW183679   8.982   9.059   3.787
60594SOL    HW283680   8.879   8.977   3.861
60595SOL     OW83681  11.799   8.772   6.787
60595SOL    HW183682  11.764   8.830   6.855
60595SOL    HW283683  11.722   8.728   6.752
60596SOL     OW83684   3.346   1.030  11.649
60596SOL    HW183685   3.343   1.019  11.744
60596SOL    HW283686   3.282   0.967  11.615
60597SOL     OW83687   6.238  10.002   5.857
60597SOL    HW183688   6.278   9.919   5.828
60597SOL    HW283689   6.152  10.002   5.815
60598SOL     OW83690  12.424  11.793   4.506
60598SOL    HW183691  12.335  11.763   4.526
60598SOL    HW283692  12.456  11.830   4.588
60599SOL     OW83693  11.833  10.083  12.870
60599SOL    HW183694  11.874  10.003  12.901
60599SOL    HW283695  11.849  10.083  12.775
60600SOL     OW83696  13.682  10.265   2.889
60600SOL    HW183697  13.656  10.350   2.924
60600SOL    HW283698  13.778  10.266   2.895
60601SOL     OW83699   6.354   6.224   0.389
60601SOL    HW183700   6.325   6.291   0.327
60601SOL    HW283701   6.446   6.246   0.406
60602SOL     OW83702   1.543   0.650  13.063
60602SOL    HW183703   1.517   0.558  13.054
60602SOL    HW283704   1.636   0.647  13.088
60603SOL     OW83705   7.768   2.935   9.207
60603SOL    HW183706   7.709   2.943   9.132
60603SOL    HW283707   7.854   2.920   9.168
60604SOL     OW83708   9.230  13.613  10.756
60604SOL    HW183709   9.288  13.671  10.707
60604SOL    HW283710   9.278  13.594  10.837
60605SOL     OW83711   2.971   5.614   9.792
60605SOL    HW183712   3.030   5.632   9.719
60605SOL    HW283713   2.988   5.522   9.814
60606SOL     OW83714  11.504  11.486  12.942
60606SOL    HW183715  11.441  11.419  12.968
60606SOL    HW283716  11.589  11.449  12.963
60607SOL     OW83717   3.938   2.796  14.548
60607SOL    HW183718   3.986   2.763  14.625
60607SOL    HW283719   3.891   2.872  14.581
60608SOL     OW83720  13.155  12.543  10.656
60608SOL    HW183721  13.073  12.521  10.699
60608SOL    HW283722  13.133  12.616  10.598
60609SOL     OW83723   7.705   1.669  10.545
60609SOL    HW183724   7.719   1.744  10.487
60609SOL    HW283725   7.644   1.700  10.611
60610SOL     OW83726   4.218   6.215   0.139
60610SOL    HW183727   4.188   6.304   0.120
60610SOL    HW283728   4.260   6.221   0.224
60611SOL     OW83729   5.707   2.978   0.802
60611SOL    HW183730   5.796   2.956   0.829
60611SOL    HW283731   5.650   2.926   0.859
60612SOL     OW83732   8.464   0.575   5.032
60612SOL    HW183733   8.410   0.500   5.058
60612SOL    HW283734   8.472   0.628   5.111
60613SOL     OW83735   3.518   5.925   7.163
60613SOL    HW183736   3.597   5.905   7.214
60613SOL    HW283737   3.546   5.994   7.104
60614SOL     OW83738   9.423   2.203  10.673
60614SOL    HW183739   9.383   2.139  10.614
60614SOL    HW283740   9.516   2.181  10.674
60615SOL     OW83741   9.313   8.139   7.600
60615SOL    HW183742   9.357   8.092   7.671
60615SOL    HW283743   9.362   8.114   7.522
60616SOL     OW83744   3.159   8.312   5.130
60616SOL    HW183745   3.076   8.356   5.114
60616SOL    HW283746   3.223   8.363   5.080
60617SOL     OW83747   6.943   7.265   2.628
60617SOL    HW183748   7.008   7.206   2.592
60617SOL    HW283749   6.956   7.261   2.723
60618SOL     OW83750  13.508  12.277   9.670
60618SOL    HW183751  13.555  12.281   9.753
60618SOL    HW283752  13.417  12.257   9.695
60619SOL     OW83753   0.877   4.146  10.381
60619SOL    HW183754   0.962   4.184  10.400
60619SOL    HW283755   0.881   4.059  10.420
60620SOL     OW83756   7.661  13.860   8.158
60620SOL    HW183757   7.655  13.778   8.109
60620SOL    HW283758   7.571  13.877   8.188
60621SOL     OW83759  13.951   7.778   2.634
60621SOL    HW183760  13.978   7.849   2.576
60621SOL    HW283761  13.859   7.763   2.612
60622SOL     OW83762   1.161   9.449   0.202
60622SOL    HW183763   1.218   9.393   0.150
60622SOL    HW283764   1.106   9.494   0.137
60623SOL     OW83765  10.991   3.596   9.769
60623SOL    HW183766  11.026   3.677   9.806
60623SOL    HW283767  10.909   3.581   9.816
60624SOL     OW83768  13.370   5.974   3.363
60624SOL    HW183769  13.336   6.022   3.288
60624SOL    HW283770  13.465   5.979   3.353
60625SOL     OW83771   6.194  12.652   5.071
60625SOL    HW183772   6.120  12.710   5.056
60625SOL    HW283773   6.252  12.700   5.130
60626SOL     OW83774   9.032   2.085   8.884
60626SOL    HW183775   8.959   2.090   8.946
60626SOL    HW283776   9.008   2.146   8.815
60627SOL     OW83777   6.925   3.234   0.204
60627SOL    HW183778   6.975   3.261   0.281
60627SOL    HW283779   6.959   3.288   0.133
60628SOL     OW83780   4.169   1.459   7.807
60628SOL    HW183781   4.216   1.376   7.797
60628SOL    HW283782   4.077   1.435   7.805
60629SOL     OW83783   5.543  10.143  10.627
60629SOL    HW183784   5.531  10.209  10.559
60629SOL    HW283785   5.626  10.167  10.669
60630SOL     OW83786  11.390  11.000  14.134
60630SOL    HW183787  11.447  11.004  14.057
60630SOL    HW283788  11.301  11.009  14.100
60631SOL     OW83789  12.277   2.257   6.162
60631SOL    HW183790  12.274   2.178   6.108
60631SOL    HW283791  12.284   2.225   6.252
60632SOL     OW83792  12.269  14.726   6.844
60632SOL    HW183793  12.296  14.697   6.757
60632SOL    HW283794  12.178  14.752   6.834
60633SOL     OW83795   2.163   3.629  11.067
60633SOL    HW183796   2.224   3.625  10.994
60633SOL    HW283797   2.096   3.692  11.040
60634SOL     OW83798   2.831  13.095   4.919
60634SOL    HW183799   2.824  13.126   4.829
60634SOL    HW283800   2.787  13.010   4.919
60635SOL     OW83801   4.018  14.548   3.457
60635SOL    HW183802   4.056  14.515   3.538
60635SOL    HW283803   4.002  14.641   3.474
60636SOL     OW83804   3.611  10.764   5.779
60636SOL    HW183805   3.605  10.818   5.699
60636SOL    HW283806   3.591  10.675   5.749
60637SOL     OW83807   8.981   4.390   1.134
60637SOL    HW183808   8.934   4.471   1.115
60637SOL    HW283809   9.012   4.359   1.049
60638SOL     OW83810   2.958  10.087   0.049
60638SOL    HW183811   2.996  10.083  14.832
60638SOL    HW283812   2.910  10.004   0.058
60639SOL     OW83813   3.737  12.808   9.021
60639SOL    HW183814   3.777  12.780   8.939
60639SOL    HW283815   3.806  12.855   9.067
60640SOL     OW83816   6.198  12.909   8.297
60640SOL    HW183817   6.155  12.988   8.330
60640SOL    HW283818   6.148  12.837   8.335
60641SOL     OW83819   1.150   4.015   8.814
60641SOL    HW183820   1.134   4.109   8.812
60641SOL    HW283821   1.075   3.977   8.768
60642SOL     OW83822   0.152   7.749   0.043
60642SOL    HW183823   0.119   7.682   0.103
60642SOL    HW283824   0.073   7.788   0.006
60643SOL     OW83825   0.260   6.143   9.536
60643SOL    HW183826   0.265   6.219   9.594
60643SOL    HW283827   0.171   6.110   9.548
60644SOL     OW83828   7.886  12.072   3.068
60644SOL    HW183829   7.804  12.064   3.019
60644SOL    HW283830   7.887  11.996   3.125
60645SOL     OW83831   8.224  14.299  14.560
60645SOL    HW183832   8.299  14.245  14.533
60645SOL    HW283833   8.221  14.370  14.497
60646SOL     OW83834   0.564   0.297  10.971
60646SOL    HW183835   0.578   0.391  10.970
60646SOL    HW283836   0.496   0.282  10.905
60647SOL     OW83837  12.623   4.758   7.879
60647SOL    HW183838  12.705   4.778   7.835
60647SOL    HW283839  12.647   4.693   7.946
60648SOL     OW83840   3.776   3.266  14.620
60648SOL    HW183841   3.771   3.192  14.681
60648SOL    HW283842   3.689   3.269  14.579
60649SOL     OW83843   5.966   0.350   0.739
60649SOL    HW183844   5.980   0.255   0.741
60649SOL    HW283845   5.892   0.364   0.798
60650SOL     OW83846  12.645   7.778   5.856
60650SOL    HW183847  12.618   7.772   5.764
60650SOL    HW283848  12.565   7.764   5.906
60651SOL     OW83849   9.453   8.035  14.391
60651SOL    HW183850   9.378   8.094  14.384
60651SOL    HW283851   9.529   8.092  14.378
60652SOL     OW83852   3.397   0.728   5.780
60652SOL    HW183853   3.448   0.789   5.726
60652SOL    HW283854   3.306   0.756   5.766
60653SOL     OW83855  14.420  12.593   8.936
60653SOL    HW183856  14.371  12.568   8.857
60653SOL    HW283857  14.511  12.573   8.915
60654SOL     OW83858  10.896   1.536   4.910
60654SOL    HW183859  10.864   1.475   4.977
60654SOL    HW283860  10.983   1.561   4.940
60655SOL     OW83861  14.345  10.578   9.015
60655SOL    HW183862  14.315  10.523   9.087
60655SOL    HW283863  14.416  10.528   8.974
60656SOL     OW83864   1.668   3.181   9.690
60656SOL    HW183865   1.682   3.245   9.621
60656SOL    HW283866   1.730   3.111   9.671
60657SOL     OW83867   6.884   9.111   5.042
60657SOL    HW183868   6.849   9.180   4.986
60657SOL    HW283869   6.911   9.157   5.122
60658SOL     OW83870   8.431   3.155   4.023
60658SOL    HW183871   8.344   3.158   4.061
60658SOL    HW283872   8.429   3.079   3.965
60659SOL     OW83873   8.222  10.949   5.801
60659SOL    HW183874   8.272  10.949   5.883
60659SOL    HW283875   8.287  10.967   5.733
60660SOL     OW83876   3.038   0.950   4.742
60660SOL    HW183877   3.004   0.936   4.831
60660SOL    HW283878   3.133   0.945   4.751
60661SOL     OW83879  11.121  13.146  12.308
60661SOL    HW183880  11.097  13.084  12.239
60661SOL    HW283881  11.215  13.133  12.321
60662SOL     OW83882   3.075   9.380   0.228
60662SOL    HW183883   3.056   9.468   0.261
60662SOL    HW283884   3.170   9.375   0.228
60663SOL     OW83885  11.140   4.033   6.658
60663SOL    HW183886  11.229   3.997   6.666
60663SOL    HW283887  11.083   3.964   6.692
60664SOL     OW83888  10.330  10.417   3.342
60664SOL    HW183889  10.293  10.425   3.254
60664SOL    HW283890  10.319  10.325   3.364
60665SOL     OW83891   6.929  10.280   5.104
60665SOL    HW183892   7.003  10.288   5.043
60665SOL    HW283893   6.945  10.197   5.149
60666SOL     OW83894   6.106   5.300   0.347
60666SOL    HW183895   6.024   5.308   0.397
60666SOL    HW283896   6.095   5.220   0.297
60667SOL     OW83897   5.403  11.352  12.777
60667SOL    HW183898   5.460  11.362  12.701
60667SOL    HW283899   5.315  11.369  12.744
60668SOL     OW83900  14.710   6.558  11.954
60668SOL    HW183901  14.635   6.616  11.942
60668SOL    HW283902  14.681   6.492  12.016
60669SOL     OW83903  11.971  11.073   0.757
60669SOL    HW183904  12.018  11.057   0.839
60669SOL    HW283905  11.879  11.080   0.783
60670SOL     OW83906   0.146  12.532  10.831
60670SOL    HW183907   0.093  12.536  10.751
60670SOL    HW283908   0.100  12.470  10.887
60671SOL     OW83909   5.870  13.708   0.890
60671SOL    HW183910   5.957  13.728   0.857
60671SOL    HW283911   5.870  13.740   0.980
60672SOL     OW83912  10.062   7.324   0.619
60672SOL    HW183913  10.146   7.295   0.653
60672SOL    HW283914  10.071   7.419   0.609
60673SOL     OW83915  12.237   3.940   5.475
60673SOL    HW183916  12.193   3.856   5.487
60673SOL    HW283917  12.321   3.918   5.434
60674SOL     OW83918   9.145  11.966   7.828
60674SOL    HW183919   9.057  12.003   7.837
60674SOL    HW283920   9.131  11.877   7.797
60675SOL     OW83921   4.455  14.175   8.270
60675SOL    HW183922   4.383  14.113   8.263
60675SOL    HW283923   4.414  14.262   8.264
60676SOL     OW83924  11.763  12.619   6.037
60676SOL    HW183925  11.766  12.524   6.022
60676SOL    HW283926  11.723  12.654   5.958
60677SOL     OW83927   5.708   1.211   0.743
60677SOL    HW183928   5.709   1.261   0.662
60677SOL    HW283929   5.653   1.135   0.723
60678SOL     OW83930   0.395   8.106  14.662
60678SOL    HW183931   0.305   8.138  14.666
60678SOL    HW283932   0.395   8.027  14.715
60679SOL     OW83933  13.860  12.388  10.173
60679SOL    HW183934  13.895  12.433  10.250
60679SOL    HW283935  13.765  12.391  10.185
60680SOL     OW83936   9.120  14.062  13.660
60680SOL    HW183937   9.118  14.092  13.569
60680SOL    HW283938   9.085  13.973  13.656
60681SOL     OW83939   6.335  10.220   2.422
60681SOL    HW183940   6.330  10.265   2.506
60681SOL    HW283941   6.333  10.290   2.356
60682SOL     OW83942  11.098   4.868   7.396
60682SOL    HW183943  11.079   4.776   7.415
60682SOL    HW283944  11.021   4.898   7.347
60683SOL     OW83945  13.803  11.789   1.464
60683SOL    HW183946  13.732  11.794   1.528
60683SOL    HW283947  13.762  11.807   1.380
60684SOL     OW83948   1.097  14.054   8.724
60684SOL    HW183949   1.170  14.004   8.759
60684SOL    HW283950   1.078  14.013   8.640
60685SOL     OW83951   6.732  14.485  13.340
60685SOL    HW183952   6.643  14.487  13.303
60685SOL    HW283953   6.789  14.495  13.264
60686SOL     OW83954   4.333   0.028  12.649
60686SOL    HW183955   4.369   0.008  12.562
60686SOL    HW283956   4.408   0.019  12.708
60687SOL     OW83957  13.196  11.451  14.039
60687SOL    HW183958  13.241  11.389  14.097
60687SOL    HW283959  13.267  11.497  13.993
60688SOL     OW83960   0.325  13.548  11.523
60688SOL    HW183961   0.240  13.556  11.481
60688SOL    HW283962   0.385  13.522  11.452
60689SOL     OW83963   1.470  10.284  12.142
60689SOL    HW183964   1.375  10.282  12.149
60689SOL    HW283965   1.497  10.354  12.202
60690SOL     OW83966   4.820   0.776   6.865
60690SOL    HW183967   4.762   0.730   6.805
60690SOL    HW283968   4.776   0.769   6.950
60691SOL     OW83969  11.195   6.171   0.412
60691SOL    HW183970  11.263   6.228   0.378
60691SOL    HW283971  11.150   6.224   0.477
60692SOL     OW83972   8.015   3.100   1.762
60692SOL    HW183973   7.926   3.069   1.746
60692SOL    HW283974   8.033   3.075   1.853
60693SOL     OW83975   6.750  14.804  10.213
60693SOL    HW183976   6.725  14.859  10.139
60693SOL    HW283977   6.804  14.735  10.174
60694SOL     OW83978   2.129   0.276   5.722
60694SOL    HW183979   2.181   0.206   5.762
60694SOL    HW283980   2.050   0.233   5.689
60695SOL     OW83981   2.401   5.636   6.261
60695SOL    HW183982   2.407   5.660   6.353
60695SOL    HW283983   2.375   5.544   6.262
60696SOL     OW83984   6.109   0.501   5.958
60696SOL    HW183985   6.201   0.472   5.952
60696SOL    HW283986   6.084   0.481   6.048
60697SOL     OW83987   7.076   3.406   8.838
60697SOL    HW183988   7.022   3.401   8.758
60697SOL    HW283989   7.032   3.472   8.892
60698SOL     OW83990  11.009   8.836   7.337
60698SOL    HW183991  10.954   8.843   7.415
60698SOL    HW283992  10.956   8.875   7.267
60699SOL     OW83993   9.448   3.700  10.633
60699SOL    HW183994   9.487   3.754  10.564
60699SOL    HW283995   9.502   3.621  10.635
60700SOL     OW83996  13.541   4.986  11.021
60700SOL    HW183997  13.509   5.024  10.939
60700SOL    HW283998  13.534   4.891  11.008
60701SOL     OW83999  12.599   1.942  12.507
60701SOL    HW184000  12.574   1.859  12.548
60701SOL    HW284001  12.639   1.916  12.424
60702SOL     OW84002   3.698  13.526   9.964
60702SOL    HW184003   3.611  13.564   9.954
60702SOL    HW284004   3.699  13.452   9.903
60703SOL     OW84005   4.112   4.215   8.166
60703SOL    HW184006   4.073   4.247   8.247
60703SOL    HW284007   4.206   4.218   8.181
60704SOL     OW84008   6.655   6.096  12.063
60704SOL    HW184009   6.717   6.146  12.116
60704SOL    HW284010   6.582   6.157  12.047
60705SOL     OW84011   0.375   8.514   9.136
60705SOL    HW184012   0.295   8.466   9.119
60705SOL    HW284013   0.425   8.458   9.196
60706SOL     OW84014   8.016   4.451   7.586
60706SOL    HW184015   7.961   4.398   7.644
60706SOL    HW284016   7.954   4.506   7.538
60707SOL     OW84017  14.095   7.185   5.820
60707SOL    HW184018  14.106   7.280   5.824
60707SOL    HW284019  14.060   7.162   5.906
60708SOL     OW84020  10.767   4.816  12.257
60708SOL    HW184021  10.682   4.806  12.299
60708SOL    HW284022  10.747   4.830  12.164
60709SOL     OW84023  10.780   7.026   8.825
60709SOL    HW184024  10.755   6.994   8.912
60709SOL    HW284025  10.710   6.994   8.767
60710SOL     OW84026   0.991  12.735  10.902
60710SOL    HW184027   0.993  12.812  10.959
60710SOL    HW284028   0.937  12.761  10.828
60711SOL     OW84029  10.762  14.494  13.675
60711SOL    HW184030  10.764  14.584  13.706
60711SOL    HW284031  10.713  14.446  13.743
60712SOL     OW84032  12.443  10.812   7.321
60712SOL    HW184033  12.398  10.768   7.393
60712SOL    HW284034  12.390  10.792   7.244
60713SOL     OW84035  11.140   9.380   7.584
60713SOL    HW184036  11.218   9.337   7.617
60713SOL    HW284037  11.067   9.326   7.614
60714SOL     OW84038  10.956   4.999   5.223
60714SOL    HW184039  10.929   4.933   5.160
60714SOL    HW284040  10.975   5.077   5.171
60715SOL     OW84041   2.384   7.784   6.082
60715SOL    HW184042   2.457   7.813   6.137
60715SOL    HW284043   2.318   7.753   6.144
60716SOL     OW84044   3.273   7.980   9.075
60716SOL    HW184045   3.261   8.060   9.125
60716SOL    HW284046   3.244   7.910   9.133
60717SOL     OW84047   4.664   8.015   5.928
60717SOL    HW184048   4.674   8.042   5.837
60717SOL    HW284049   4.645   7.921   5.923
60718SOL     OW84050   6.556  10.121   6.003
60718SOL    HW184051   6.628  10.184   5.999
60718SOL    HW284052   6.578  10.055   5.938
60719SOL     OW84053  14.205   8.529  11.370
60719SOL    HW184054  14.276   8.592  11.384
60719SOL    HW284055  14.208   8.473  11.448
60720SOL     OW84056   6.800   2.805   3.671
60720SOL    HW184057   6.881   2.787   3.623
60720SOL    HW284058   6.745   2.851   3.609
60721SOL     OW84059   5.426   3.175   9.514
60721SOL    HW184060   5.485   3.103   9.539
60721SOL    HW284061   5.338   3.141   9.534
60722SOL     OW84062  13.625   7.421   9.374
60722SOL    HW184063  13.571   7.347   9.346
60722SOL    HW284064  13.697   7.381   9.424
60723SOL     OW84065   0.825   2.342   7.507
60723SOL    HW184066   0.732   2.323   7.489
60723SOL    HW284067   0.850   2.276   7.571
60724SOL     OW84068  12.756   3.227  14.499
60724SOL    HW184069  12.759   3.217  14.404
60724SOL    HW284070  12.664   3.212  14.522
60725SOL     OW84071   8.739   3.725  12.129
60725SOL    HW184072   8.724   3.711  12.035
60725SOL    HW284073   8.799   3.800  12.132
60726SOL     OW84074   2.781   9.041   9.348
60726SOL    HW184075   2.778   9.125   9.302
60726SOL    HW284076   2.870   9.036   9.383
60727SOL     OW84077   0.307   7.094   4.297
60727SOL    HW184078   0.246   7.168   4.300
60727SOL    HW284079   0.309   7.069   4.204
60728SOL     OW84080   9.464   2.204  13.251
60728SOL    HW184081   9.497   2.274  13.196
60728SOL    HW284082   9.379   2.180  13.213
60729SOL     OW84083  13.175   5.064   1.112
60729SOL    HW184084  13.129   4.991   1.070
60729SOL    HW284085  13.225   5.104   1.041
60730SOL     OW84086  13.300   5.933  13.799
60730SOL    HW184087  13.321   5.950  13.890
60730SOL    HW284088  13.275   6.018  13.763
60731SOL     OW84089   1.854   2.333   9.895
60731SOL    HW184090   1.902   2.372   9.969
60731SOL    HW284091   1.855   2.401   9.827
60732SOL     OW84092   6.285   4.335   5.644
60732SOL    HW184093   6.288   4.429   5.625
60732SOL    HW284094   6.194   4.310   5.628
60733SOL     OW84095   1.819  11.017  13.068
60733SOL    HW184096   1.737  11.052  13.032
60733SOL    HW284097   1.848  10.953  13.003
60734SOL     OW84098   4.123   6.087   2.450
60734SOL    HW184099   4.090   6.177   2.454
60734SOL    HW284100   4.114   6.055   2.539
60735SOL     OW84101   9.168  11.837   1.515
60735SOL    HW184102   9.161  11.861   1.423
60735SOL    HW284103   9.139  11.746   1.518
60736SOL     OW84104  12.873   1.072  12.089
60736SOL    HW184105  12.828   1.040  12.168
60736SOL    HW284106  12.836   1.159  12.075
60737SOL     OW84107  14.229   2.497   5.612
60737SOL    HW184108  14.199   2.557   5.544
60737SOL    HW284109  14.290   2.438   5.567
60738SOL     OW84110  12.069   5.385  11.041
60738SOL    HW184111  12.030   5.378  11.128
60738SOL    HW284112  12.085   5.294  11.015
60739SOL     OW84113  11.684   3.008   8.328
60739SOL    HW184114  11.625   2.998   8.403
60739SOL    HW284115  11.664   2.932   8.272
60740SOL     OW84116  12.491   4.941  11.054
60740SOL    HW184117  12.563   4.907  11.001
60740SOL    HW284118  12.456   4.864  11.099
60741SOL     OW84119   5.050   5.957   3.531
60741SOL    HW184120   5.133   5.949   3.579
60741SOL    HW284121   5.051   5.883   3.470
60742SOL     OW84122   3.835  12.085   6.754
60742SOL    HW184123   3.827  12.178   6.735
60742SOL    HW284124   3.842  12.080   6.849
60743SOL     OW84125   0.270   9.534   1.979
60743SOL    HW184126   0.329   9.599   2.016
60743SOL    HW284127   0.197   9.585   1.943
60744SOL     OW84128   0.668   8.643   4.150
60744SOL    HW184129   0.746   8.645   4.206
60744SOL    HW284130   0.639   8.552   4.154
60745SOL     OW84131  14.269   3.837   8.590
60745SOL    HW184132  14.199   3.841   8.655
60745SOL    HW284133  14.229   3.869   8.510
60746SOL     OW84134   2.174  10.994  12.774
60746SOL    HW184135   2.218  10.913  12.747
60746SOL    HW284136   2.242  11.061  12.771
60747SOL     OW84137   3.327   5.800   9.657
60747SOL    HW184138   3.304   5.832   9.745
60747SOL    HW284139   3.347   5.880   9.607
60748SOL     OW84140   6.610  13.406   3.656
60748SOL    HW184141   6.680  13.362   3.608
60748SOL    HW284142   6.635  13.397   3.748
60749SOL     OW84143  11.380   8.259   6.035
60749SOL    HW184144  11.392   8.345   5.994
60749SOL    HW284145  11.443   8.258   6.107
60750SOL     OW84146   4.068  10.321  11.934
60750SOL    HW184147   4.084  10.414  11.915
60750SOL    HW284148   4.018  10.290  11.858
60751SOL     OW84149  13.541  12.222   5.764
60751SOL    HW184150  13.564  12.135   5.729
60751SOL    HW284151  13.478  12.257   5.702
60752SOL     OW84152   0.511  11.611   1.454
60752SOL    HW184153   0.562  11.628   1.534
60752SOL    HW284154   0.473  11.524   1.468
60753SOL     OW84155  13.733  14.817   7.398
60753SOL    HW184156  13.746  14.855   7.485
60753SOL    HW284157  13.739   0.019   7.338
60754SOL     OW84158   1.515   6.123  12.261
60754SOL    HW184159   1.530   6.148  12.352
60754SOL    HW284160   1.420   6.112  12.254
60755SOL     OW84161   0.384   6.381   2.208
60755SOL    HW184162   0.469   6.338   2.218
60755SOL    HW284163   0.380   6.443   2.281
60756SOL     OW84164   1.721   5.557   8.364
60756SOL    HW184165   1.769   5.627   8.318
60756SOL    HW284166   1.629   5.574   8.343
60757SOL     OW84167   6.936   3.004   8.026
60757SOL    HW184168   7.032   2.999   8.025
60757SOL    HW284169   6.911   2.980   8.115
60758SOL     OW84170   4.205  14.145  14.650
60758SOL    HW184171   4.183  14.197  14.573
60758SOL    HW284172   4.250  14.068  14.615
60759SOL     OW84173   1.312  11.510   7.293
60759SOL    HW184174   1.230  11.531   7.337
60759SOL    HW284175   1.378  11.561   7.340
60760SOL     OW84176   1.503   5.643   1.715
60760SOL    HW184177   1.528   5.710   1.779
60760SOL    HW284178   1.584   5.595   1.698
60761SOL     OW84179   9.378   2.125  12.694
60761SOL    HW184180   9.383   2.081  12.778
60761SOL    HW284181   9.424   2.068  12.633
60762SOL     OW84182   9.086   5.510  10.609
60762SOL    HW184183   9.128   5.454  10.674
60762SOL    HW284184   8.992   5.491  10.619
60763SOL     OW84185  12.274  13.603   8.684
60763SOL    HW184186  12.293  13.695   8.663
60763SOL    HW284187  12.189  13.587   8.644
60764SOL     OW84188  11.412   0.215   3.688
60764SOL    HW184189  11.496   0.251   3.714
60764SOL    HW284190  11.404   0.235   3.595
60765SOL     OW84191  14.630  14.626  11.949
60765SOL    HW184192  14.586  14.583  12.022
60765SOL    HW284193  14.562  14.633  11.881
60766SOL     OW84194  11.282  13.196  12.872
60766SOL    HW184195  11.314  13.112  12.839
60766SOL    HW284196  11.362  13.247  12.887
60767SOL     OW84197  14.380  10.163   8.603
60767SOL    HW184198  14.391  10.104   8.678
60767SOL    HW284199  14.469  10.190   8.581
60768SOL     OW84200   9.225   1.473   7.972
60768SOL    HW184201   9.205   1.561   8.004
60768SOL    HW284202   9.139   1.434   7.957
60769SOL     OW84203  14.804   9.972   6.029
60769SOL    HW184204  14.839   9.938   5.947
60769SOL    HW284205  14.738  10.036   6.002
60770SOL     OW84206   0.810   5.586   2.266
60770SOL    HW184207   0.722   5.624   2.258
60770SOL    HW284208   0.862   5.633   2.201
60771SOL     OW84209   5.873  13.606   7.881
60771SOL    HW184210   5.964  13.590   7.858
60771SOL    HW284211   5.835  13.647   7.803
60772SOL     OW84212  13.642   1.403   7.301
60772SOL    HW184213  13.689   1.323   7.325
60772SOL    HW284214  13.639   1.454   7.383
60773SOL     OW84215   3.859  11.380   6.370
60773SOL    HW184216   3.873  11.362   6.277
60773SOL    HW284217   3.774  11.339   6.389
60774SOL     OW84218   7.668   0.104   4.110
60774SOL    HW184219   7.729   0.060   4.170
60774SOL    HW284220   7.619   0.164   4.165
60775SOL     OW84221   3.109  12.189   2.138
60775SOL    HW184222   3.076  12.114   2.187
60775SOL    HW284223   3.149  12.246   2.205
60776SOL     OW84224   2.209  13.807   2.883
60776SOL    HW184225   2.192  13.753   2.805
60776SOL    HW284226   2.292  13.775   2.917
60777SOL     OW84227   7.205   8.558   0.326
60777SOL    HW184228   7.146   8.600   0.388
60777SOL    HW284229   7.182   8.465   0.330
60778SOL     OW84230   2.761   0.624   8.771
60778SOL    HW184231   2.854   0.627   8.794
60778SOL    HW284232   2.728   0.711   8.794
60779SOL     OW84233   8.708   8.156   4.589
60779SOL    HW184234   8.641   8.114   4.535
60779SOL    HW284235   8.751   8.218   4.530
60780SOL     OW84236  14.786   7.582   9.053
60780SOL    HW184237  14.731   7.537   9.118
60780SOL    HW284238  14.814   7.662   9.098
60781SOL     OW84239   5.463   9.914   7.737
60781SOL    HW184240   5.368   9.904   7.729
60781SOL    HW284241   5.481   9.897   7.829
60782SOL     OW84242  14.178   7.024  11.307
60782SOL    HW184243  14.266   7.021  11.345
60782SOL    HW284244  14.122   7.051  11.380
60783SOL     OW84245   3.491   0.490   9.573
60783SOL    HW184246   3.517   0.410   9.527
60783SOL    HW284247   3.419   0.462   9.630
60784SOL     OW84248   3.823   4.123   9.782
60784SOL    HW184249   3.734   4.126   9.818
60784SOL    HW284250   3.812   4.133   9.688
60785SOL     OW84251   1.557   6.342  12.828
60785SOL    HW184252   1.633   6.334  12.770
60785SOL    HW284253   1.525   6.431  12.812
60786SOL     OW84254  10.278  14.238   0.186
60786SOL    HW184255  10.279  14.297   0.261
60786SOL    HW284256  10.192  14.251   0.146
60787SOL     OW84257   4.111   5.686   8.444
60787SOL    HW184258   4.100   5.591   8.458
60787SOL    HW284259   4.142   5.719   8.528
60788SOL     OW84260  13.942   7.214   7.919
60788SOL    HW184261  13.946   7.293   7.865
60788SOL    HW284262  13.962   7.244   8.008
60789SOL     OW84263   3.207   9.632   8.418
60789SOL    HW184264   3.192   9.553   8.367
60789SOL    HW284265   3.177   9.703   8.361
60790SOL     OW84266   3.306   5.597   4.740
60790SOL    HW184267   3.329   5.666   4.677
60790SOL    HW284268   3.339   5.517   4.701
60791SOL     OW84269   5.438   5.053   9.173
60791SOL    HW184270   5.421   5.051   9.079
60791SOL    HW284271   5.409   4.968   9.205
60792SOL     OW84272  13.104  13.036   0.280
60792SOL    HW184273  13.144  12.954   0.309
60792SOL    HW284274  13.013  13.030   0.308
60793SOL     OW84275   2.343   8.400  14.155
60793SOL    HW184276   2.355   8.444  14.071
60793SOL    HW284277   2.347   8.307  14.134
60794SOL     OW84278  10.901  13.120   2.693
60794SOL    HW184279  10.880  13.027   2.692
60794SOL    HW284280  10.928  13.138   2.783
60795SOL     OW84281   6.065   1.060   8.546
60795SOL    HW184282   6.111   1.048   8.629
60795SOL    HW284283   6.019   0.978   8.532
60796SOL     OW84284  13.228  10.465  12.946
60796SOL    HW184285  13.309  10.418  12.967
60796SOL    HW284286  13.202  10.431  12.860
60797SOL     OW84287   9.811  12.730  11.386
60797SOL    HW184288   9.859  12.808  11.416
60797SOL    HW284289   9.848  12.658  11.437
60798SOL     OW84290   2.378  14.509   9.628
60798SOL    HW184291   2.398  14.421   9.661
60798SOL    HW284292   2.392  14.567   9.703
60799SOL     OW84293   4.722   2.276   7.745
60799SOL    HW184294   4.639   2.282   7.792
60799SOL    HW284295   4.707   2.327   7.665
60800SOL     OW84296   5.272   9.471   6.004
60800SOL    HW184297   5.220   9.406   6.051
60800SOL    HW284298   5.214   9.504   5.936
60801SOL     OW84299   6.710  13.569   8.526
60801SOL    HW184300   6.616  13.581   8.537
60801SOL    HW284301   6.724  13.475   8.543
60802SOL     OW84302   2.730  12.921  10.519
60802SOL    HW184303   2.756  13.012  10.533
60802SOL    HW284304   2.681  12.898  10.598
60803SOL     OW84305  14.862  13.631   8.339
60803SOL    HW184306  14.823  13.568   8.278
60803SOL    HW284307   0.041  13.690   8.283
60804SOL     OW84308   4.933  10.457  10.149
60804SOL    HW184309   4.947  10.551  10.161
60804SOL    HW284310   4.989  10.434  10.074
60805SOL     OW84311   2.896   9.052   8.360
60805SOL    HW184312   2.858   9.020   8.441
60805SOL    HW284313   2.926   8.974   8.315
60806SOL     OW84314   6.425   9.803  10.246
60806SOL    HW184315   6.495   9.826  10.308
60806SOL    HW284316   6.439   9.710  10.229
60807SOL     OW84317   2.869   6.546   8.426
60807SOL    HW184318   2.918   6.599   8.489
60807SOL    HW284319   2.933   6.483   8.393
60808SOL     OW84320  12.453   4.628   2.392
60808SOL    HW184321  12.544   4.598   2.381
60808SOL    HW284322  12.449   4.656   2.484
60809SOL     OW84323  12.507  14.668   6.304
60809SOL    HW184324  12.508  14.578   6.272
60809SOL    HW284325  12.429  14.707   6.265
60810SOL     OW84326  13.146  10.102   2.627
60810SOL    HW184327  13.076  10.065   2.572
60810SOL    HW284328  13.099  10.153   2.693
60811SOL     OW84329   1.844  10.697  13.087
60811SOL    HW184330   1.845  10.610  13.049
60811SOL    HW284331   1.873  10.755  13.016
60812SOL     OW84332   5.764   6.378   3.923
60812SOL    HW184333   5.842   6.395   3.974
60812SOL    HW284334   5.745   6.461   3.879
60813SOL     OW84335  13.544   9.876   6.947
60813SOL    HW184336  13.585   9.917   7.023
60813SOL    HW284337  13.462   9.923   6.936
60814SOL     OW84338   6.761   1.411   7.830
60814SOL    HW184339   6.855   1.417   7.845
60814SOL    HW284340   6.728   1.499   7.849
60815SOL     OW84341   8.284   9.549   9.897
60815SOL    HW184342   8.353   9.497   9.855
60815SOL    HW284343   8.247   9.602   9.826
60816SOL     OW84344   0.748  11.412  14.757
60816SOL    HW184345   0.691  11.358  14.811
60816SOL    HW284346   0.698  11.492  14.742
60817SOL     OW84347  11.214   7.475  11.120
60817SOL    HW184348  11.222   7.380  11.108
60817SOL    HW284349  11.260   7.492  11.202
60818SOL     OW84350   2.982   4.699   5.059
60818SOL    HW184351   2.947   4.699   5.148
60818SOL    HW284352   2.910   4.731   5.005
60819SOL     OW84353   3.570   6.994   0.355
60819SOL    HW184354   3.644   6.951   0.313
60819SOL    HW284355   3.590   6.992   0.448
60820SOL     OW84356  10.973   7.890   2.097
60820SOL    HW184357  10.985   7.973   2.142
60820SOL    HW284358  10.883   7.891   2.066
60821SOL     OW84359  11.518  12.299  10.279
60821SOL    HW184360  11.468  12.373  10.311
60821SOL    HW284361  11.492  12.290  10.187
60822SOL     OW84362   1.507   2.675   5.807
60822SOL    HW184363   1.550   2.639   5.884
60822SOL    HW284364   1.431   2.619   5.793
60823SOL     OW84365   0.937   9.819   7.800
60823SOL    HW184366   0.930   9.777   7.886
60823SOL    HW284367   1.025   9.857   7.799
60824SOL     OW84368  13.115   1.512   9.726
60824SOL    HW184369  13.023   1.486   9.728
60824SOL    HW284370  13.124   1.565   9.647
60825SOL     OW84371  13.778  12.737  14.503
60825SOL    HW184372  13.794  12.813  14.560
60825SOL    HW284373  13.865  12.704  14.483
60826SOL     OW84374   5.213  14.043   9.674
60826SOL    HW184375   5.147  13.997   9.622
60826SOL    HW284376   5.285  13.981   9.682
60827SOL     OW84377   0.773  14.484   1.864
60827SOL    HW184378   0.794  14.446   1.950
60827SOL    HW284379   0.707  14.551   1.883
60828SOL     OW84380   3.088   6.708  10.844
60828SOL    HW184381   3.032   6.783  10.823
60828SOL    HW284382   3.148   6.701  10.770
60829SOL     OW84383   1.974   4.494   7.748
60829SOL    HW184384   1.950   4.502   7.656
60829SOL    HW284385   1.901   4.447   7.788
60830SOL     OW84386  11.867  11.144   8.103
60830SOL    HW184387  11.886  11.098   8.184
60830SOL    HW284388  11.774  11.127   8.087
60831SOL     OW84389   8.310   2.412  11.706
60831SOL    HW184390   8.397   2.395  11.670
60831SOL    HW284391   8.250   2.365  11.648
60832SOL     OW84392   6.126   3.523   4.155
60832SOL    HW184393   6.074   3.590   4.201
60832SOL    HW284394   6.063   3.477   4.100
60833SOL     OW84395   0.368   1.591   1.911
60833SOL    HW184396   0.354   1.553   1.825
60833SOL    HW284397   0.433   1.660   1.897
60834SOL     OW84398   0.604   2.474   4.459
60834SOL    HW184399   0.596   2.422   4.539
60834SOL    HW284400   0.533   2.442   4.403
60835SOL     OW84401   0.411   5.401   1.030
60835SOL    HW184402   0.502   5.413   1.057
60835SOL    HW284403   0.416   5.376   0.938
60836SOL     OW84404   3.292   0.692   4.346
60836SOL    HW184405   3.282   0.772   4.294
60836SOL    HW284406   3.296   0.622   4.282
60837SOL     OW84407   9.084   8.760  13.414
60837SOL    HW184408   9.067   8.767  13.320
60837SOL    HW284409   9.001   8.729  13.451
60838SOL     OW84410   8.136  14.526   1.828
60838SOL    HW184411   8.092  14.477   1.897
60838SOL    HW284412   8.150  14.613   1.865
60839SOL     OW84413   2.775  10.193   1.377
60839SOL    HW184414   2.826  10.118   1.408
60839SOL    HW284415   2.840  10.255   1.346
60840SOL     OW84416  10.033   0.879   2.126
60840SOL    HW184417  10.052   0.877   2.220
60840SOL    HW284418  10.073   0.799   2.092
60841SOL     OW84419   6.881   0.301   7.744
60841SOL    HW184420   6.947   0.366   7.768
60841SOL    HW284421   6.926   0.241   7.685
60842SOL     OW84422   1.051   2.648  14.789
60842SOL    HW184423   1.104   2.725  14.809
60842SOL    HW284424   1.023   2.660  14.699
60843SOL     OW84425   9.557   1.511  13.508
60843SOL    HW184426   9.502   1.567  13.562
60843SOL    HW284427   9.578   1.436  13.564
60844SOL     OW84428   8.799   8.308   6.770
60844SOL    HW184429   8.887   8.322   6.735
60844SOL    HW284430   8.802   8.222   6.811
60845SOL     OW84431  13.378  10.053  10.671
60845SOL    HW184432  13.360  10.006  10.589
60845SOL    HW284433  13.453  10.007  10.709
60846SOL     OW84434   4.830   6.322   3.321
60846SOL    HW184435   4.804   6.323   3.229
60846SOL    HW284436   4.755   6.282   3.366
60847SOL     OW84437   6.961   2.144  14.732
60847SOL    HW184438   7.029   2.196  14.775
60847SOL    HW284439   6.932   2.198  14.659
60848SOL     OW84440   7.285   4.192   0.356
60848SOL    HW184441   7.226   4.142   0.300
60848SOL    HW284442   7.361   4.210   0.301
60849SOL     OW84443   8.652  10.488  12.962
60849SOL    HW184444   8.650  10.550  12.889
60849SOL    HW284445   8.586  10.422  12.939
60850SOL     OW84446   5.670   2.251  14.221
60850SOL    HW184447   5.625   2.328  14.255
60850SOL    HW284448   5.643   2.245  14.129
60851SOL     OW84449   0.370   7.776   8.989
60851SOL    HW184450   0.372   7.708   8.922
60851SOL    HW284451   0.342   7.855   8.943
60852SOL     OW84452  14.414  10.915   0.830
60852SOL    HW184453  14.338  10.948   0.782
60852SOL    HW284454  14.489  10.936   0.774
60853SOL     OW84455   2.172   4.185   7.281
60853SOL    HW184456   2.173   4.206   7.187
60853SOL    HW284457   2.114   4.109   7.288
60854SOL     OW84458   4.751   5.176   8.900
60854SOL    HW184459   4.765   5.111   8.831
60854SOL    HW284460   4.803   5.251   8.873
60855SOL     OW84461  10.682   7.250   7.233
60855SOL    HW184462  10.620   7.224   7.302
60855SOL    HW284463  10.726   7.168   7.209
60856SOL     OW84464  13.047   8.090   2.757
60856SOL    HW184465  12.954   8.111   2.746
60856SOL    HW284466  13.048   8.001   2.792
60857SOL     OW84467   5.929  10.173   1.718
60857SOL    HW184468   5.835  10.165   1.733
60857SOL    HW284469   5.956  10.086   1.688
60858SOL     OW84470   5.924   0.026   0.164
60858SOL    HW184471   5.967   0.101   0.123
60858SOL    HW284472   5.995  14.841   0.192
60859SOL     OW84473   4.777  10.394   3.718
60859SOL    HW184474   4.700  10.384   3.774
60859SOL    HW284475   4.766  10.479   3.676
60860SOL     OW84476  13.515   1.601   0.836
60860SOL    HW184477  13.570   1.640   0.768
60860SOL    HW284478  13.442   1.663   0.846
60861SOL     OW84479  14.853   4.037  10.796
60861SOL    HW184480  14.821   3.948  10.815
60861SOL    HW284481   0.030   4.062  10.875
60862SOL     OW84482   8.662  12.440   5.527
60862SOL    HW184483   8.591  12.500   5.550
60862SOL    HW284484   8.671  12.384   5.604
60863SOL     OW84485  12.249   6.989  10.823
60863SOL    HW184486  12.252   7.084  10.836
60863SOL    HW284487  12.283   6.953  10.905
60864SOL     OW84488   9.754   3.929  13.618
60864SOL    HW184489   9.739   3.840  13.584
60864SOL    HW284490   9.757   3.917  13.713
60865SOL     OW84491  10.597   4.351   6.411
60865SOL    HW184492  10.638   4.282   6.463
60865SOL    HW284493  10.534   4.306   6.356
60866SOL     OW84494   1.708   6.930  12.431
60866SOL    HW184495   1.712   6.921  12.336
60866SOL    HW284496   1.615   6.935  12.451
60867SOL     OW84497  12.167   6.881   0.291
60867SOL    HW184498  12.230   6.809   0.286
60867SOL    HW284499  12.215   6.952   0.333
60868SOL     OW84500  13.576   3.110  10.329
60868SOL    HW184501  13.513   3.181  10.340
60868SOL    HW284502  13.561   3.078  10.240
60869SOL     OW84503   2.938  14.154  10.200
60869SOL    HW184504   2.897  14.107  10.127
60869SOL    HW284505   3.011  14.099  10.226
60870SOL     OW84506   2.157   2.142   5.031
60870SOL    HW184507   2.131   2.050   5.019
60870SOL    HW284508   2.253   2.139   5.035
60871SOL     OW84509   7.418   9.654   7.991
60871SOL    HW184510   7.371   9.572   7.978
60871SOL    HW284511   7.459   9.645   8.077
60872SOL     OW84512  12.790   0.612   2.308
60872SOL    HW184513  12.742   0.531   2.290
60872SOL    HW284514  12.881   0.590   2.287
60873SOL     OW84515   4.116  11.908   2.233
60873SOL    HW184516   4.021  11.913   2.224
60873SOL    HW284517   4.141  11.992   2.272
60874SOL     OW84518  14.706   5.734   8.497
60874SOL    HW184519  14.794   5.771   8.502
60874SOL    HW284520  14.710   5.669   8.427
60875SOL     OW84521   6.809  12.140   9.088
60875SOL    HW184522   6.852  12.082   9.151
60875SOL    HW284523   6.764  12.205   9.142
60876SOL     OW84524   9.499   7.277  10.791
60876SOL    HW184525   9.518   7.212  10.859
60876SOL    HW284526   9.505   7.362  10.836
60877SOL     OW84527   1.508   8.790   2.498
60877SOL    HW184528   1.519   8.860   2.434
60877SOL    HW284529   1.551   8.715   2.459
60878SOL     OW84530   7.000  12.341   7.868
60878SOL    HW184531   6.976  12.252   7.844
60878SOL    HW284532   7.023  12.383   7.785
60879SOL     OW84533   2.138   1.711  14.013
60879SOL    HW184534   2.057   1.759  14.028
60879SOL    HW284535   2.207   1.778  14.018
60880SOL     OW84536   1.741   6.434   0.388
60880SOL    HW184537   1.787   6.357   0.352
60880SOL    HW284538   1.791   6.509   0.355
60881SOL     OW84539   0.126   7.448  10.114
60881SOL    HW184540   0.205   7.401  10.088
60881SOL    HW284541   0.148   7.490  10.196
60882SOL     OW84542  10.309   4.168  12.801
60882SOL    HW184543  10.256   4.245  12.781
60882SOL    HW284544  10.325   4.174  12.895
60883SOL     OW84545  14.051   9.374  10.569
60883SOL    HW184546  14.136   9.418  10.578
60883SOL    HW284547  14.066   9.307  10.502
60884SOL     OW84548  10.105   0.396  14.186
60884SOL    HW184549  10.042   0.467  14.204
60884SOL    HW284550  10.168   0.402  14.258
60885SOL     OW84551   4.634  11.560  13.975
60885SOL    HW184552   4.570  11.490  13.986
60885SOL    HW284553   4.717  11.521  14.000
60886SOL     OW84554   2.840   1.916   2.202
60886SOL    HW184555   2.853   2.006   2.232
60886SOL    HW284556   2.751   1.894   2.230
60887SOL     OW84557   2.728  12.807  12.456
60887SOL    HW184558   2.770  12.768  12.533
60887SOL    HW284559   2.660  12.864  12.491
60888SOL     OW84560   7.498   0.813   6.459
60888SOL    HW184561   7.546   0.838   6.538
60888SOL    HW284562   7.412   0.854   6.470
60889SOL     OW84563  10.028   9.512   4.620
60889SOL    HW184564  10.093   9.450   4.652
60889SOL    HW284565  10.030   9.584   4.683
60890SOL     OW84566   1.280  13.791   3.658
60890SOL    HW184567   1.296  13.848   3.582
60890SOL    HW284568   1.357  13.734   3.661
60891SOL     OW84569   4.741   8.557  13.873
60891SOL    HW184570   4.822   8.549  13.822
60891SOL    HW284571   4.767   8.605  13.952
60892SOL     OW84572  11.988  12.169  12.290
60892SOL    HW184573  12.080  12.181  12.266
60892SOL    HW284574  11.988  12.100  12.356
60893SOL     OW84575  13.584   3.796   2.676
60893SOL    HW184576  13.561   3.881   2.637
60893SOL    HW284577  13.679   3.791   2.668
60894SOL     OW84578   6.638   5.402  12.394
60894SOL    HW184579   6.667   5.440  12.311
60894SOL    HW284580   6.544   5.388  12.382
60895SOL     OW84581   2.718   3.778  14.130
60895SOL    HW184582   2.688   3.864  14.159
60895SOL    HW284583   2.690   3.718  14.199
60896SOL     OW84584   8.840  13.952  10.674
60896SOL    HW184585   8.815  13.927  10.585
60896SOL    HW284586   8.807  14.042  10.684
60897SOL     OW84587   0.545   1.602   2.144
60897SOL    HW184588   0.495   1.564   2.071
60897SOL    HW284589   0.484   1.601   2.217
60898SOL     OW84590   9.352   2.773   3.128
60898SOL    HW184591   9.317   2.853   3.087
60898SOL    HW284592   9.426   2.748   3.073
60899SOL     OW84593   2.028  13.762  11.391
60899SOL    HW184594   2.095  13.698  11.414
60899SOL    HW284595   2.020  13.817  11.469
60900SOL     OW84596   5.011   5.026   1.022
60900SOL    HW184597   5.097   5.052   0.989
60900SOL    HW284598   5.029   4.963   1.092
60901SOL     OW84599  11.111   1.060   1.263
60901SOL    HW184600  11.174   1.102   1.204
60901SOL    HW284601  11.098   0.973   1.226
60902SOL     OW84602   7.292   8.095   7.843
60902SOL    HW184603   7.315   8.122   7.754
60902SOL    HW284604   7.204   8.129   7.856
60903SOL     OW84605   9.925   2.759   1.155
60903SOL    HW184606   9.947   2.666   1.151
60903SOL    HW284607   9.905   2.776   1.247
60904SOL     OW84608  12.487   2.787   7.174
60904SOL    HW184609  12.578   2.816   7.177
60904SOL    HW284610  12.467   2.781   7.080
60905SOL     OW84611   1.076   0.019   9.342
60905SOL    HW184612   1.135  14.815   9.337
60905SOL    HW284613   1.002  14.859   9.394
60906SOL     OW84614  11.585   7.648   2.413
60906SOL    HW184615  11.649   7.720   2.406
60906SOL    HW284616  11.508   7.689   2.452
60907SOL     OW84617   0.978  12.063  10.211
60907SOL    HW184618   0.999  12.046  10.302
60907SOL    HW284619   0.991  12.158  10.200
60908SOL     OW84620   8.479  14.850   5.975
60908SOL    HW184621   8.465   0.008   6.065
60908SOL    HW284622   8.561   0.021   5.948
60909SOL     OW84623   4.888   3.146   0.047
60909SOL    HW184624   4.950   3.078   0.075
60909SOL    HW284625   4.944   3.218   0.017
60910SOL     OW84626   9.277   2.481   2.805
60910SOL    HW184627   9.236   2.525   2.730
60910SOL    HW284628   9.220   2.503   2.879
60911SOL     OW84629   0.173   3.952   6.142
60911SOL    HW184630   0.202   3.963   6.051
60911SOL    HW284631   0.126   4.033   6.162
60912SOL     OW84632   0.375  11.722   3.766
60912SOL    HW184633   0.353  11.635   3.799
60912SOL    HW284634   0.397  11.772   3.844
60913SOL     OW84635  11.078   2.270   7.923
60913SOL    HW184636  11.099   2.273   7.829
60913SOL    HW284637  11.042   2.182   7.937
60914SOL     OW84638  11.523  13.561   1.268
60914SOL    HW184639  11.460  13.581   1.199
60914SOL    HW284640  11.605  13.598   1.236
60915SOL     OW84641   0.357   5.198  10.571
60915SOL    HW184642   0.377   5.272  10.512
60915SOL    HW284643   0.422   5.206  10.641
60916SOL     OW84644   1.086  11.470   0.864
60916SOL    HW184645   1.009  11.480   0.920
60916SOL    HW284646   1.108  11.559   0.838
60917SOL     OW84647   9.688  11.663  13.278
60917SOL    HW184648   9.625  11.611  13.229
60917SOL    HW284649   9.773  11.629  13.252
60918SOL     OW84650  14.196   4.639   6.875
60918SOL    HW184651  14.212   4.550   6.846
60918SOL    HW284652  14.112   4.635   6.921
60919SOL     OW84653  10.745  13.000   2.401
60919SOL    HW184654  10.713  12.931   2.342
60919SOL    HW284655  10.789  12.953   2.471
60920SOL     OW84656   4.629   1.179   8.036
60920SOL    HW184657   4.539   1.146   8.038
60920SOL    HW284658   4.624   1.256   7.979
60921SOL     OW84659   6.501   9.443   5.364
60921SOL    HW184660   6.507   9.348   5.367
60921SOL    HW284661   6.494   9.470   5.455
60922SOL     OW84662   2.946   5.726   7.429
60922SOL    HW184663   2.944   5.700   7.521
60922SOL    HW284664   3.000   5.658   7.386
60923SOL     OW84665   9.889  10.870   2.222
60923SOL    HW184666   9.834  10.936   2.179
60923SOL    HW284667   9.959  10.852   2.159
60924SOL     OW84668   2.847   6.209   6.194
60924SOL    HW184669   2.798   6.172   6.268
60924SOL    HW284670   2.925   6.154   6.187
60925SOL     OW84671  14.288   5.435   9.921
60925SOL    HW184672  14.323   5.479   9.998
60925SOL    HW284673  14.218   5.379   9.954
60926SOL     OW84674   0.317  14.291   3.946
60926SOL    HW184675   0.309  14.385   3.933
60926SOL    HW284676   0.227  14.261   3.959
60927SOL     OW84677   7.995  12.160  12.291
60927SOL    HW184678   7.916  12.144  12.342
60927SOL    HW284679   8.067  12.134  12.349
60928SOL     OW84680   7.563   8.129   4.750
60928SOL    HW184681   7.621   8.190   4.704
60928SOL    HW284682   7.599   8.124   4.839
60929SOL     OW84683  10.442  11.607   9.345
60929SOL    HW184684  10.391  11.528   9.356
60929SOL    HW284685  10.532  11.581   9.367
60930SOL     OW84686  11.390  10.166   8.745
60930SOL    HW184687  11.455  10.233   8.766
60930SOL    HW284688  11.311  10.216   8.724
60931SOL     OW84689   1.962   1.938  14.593
60931SOL    HW184690   2.025   2.001  14.628
60931SOL    HW284691   1.958   1.869  14.659
60932SOL     OW84692   1.663   0.849   5.260
60932SOL    HW184693   1.593   0.901   5.221
60932SOL    HW284694   1.689   0.787   5.191
60933SOL     OW84695  11.836   7.797  11.690
60933SOL    HW184696  11.899   7.865  11.666
60933SOL    HW284697  11.890   7.723  11.718
60934SOL     OW84698   2.439   0.492  10.088
60934SOL    HW184699   2.482   0.431  10.029
60934SOL    HW284700   2.394   0.554  10.030
60935SOL     OW84701  10.998   4.105   7.407
60935SOL    HW184702  11.017   4.172   7.342
60935SOL    HW284703  10.905   4.086   7.395
60936SOL     OW84704   0.048   0.151  13.535
60936SOL    HW184705   0.128   0.198  13.513
60936SOL    HW284706   0.067   0.060  13.512
60937SOL     OW84707   4.766   3.062  12.647
60937SOL    HW184708   4.732   3.097  12.565
60937SOL    HW284709   4.700   2.999  12.675
60938SOL     OW84710  13.280  10.732   2.547
60938SOL    HW184711  13.303  10.671   2.617
60938SOL    HW284712  13.333  10.809   2.565
60939SOL     OW84713  10.602  13.684  10.215
60939SOL    HW184714  10.533  13.721  10.160
60939SOL    HW284715  10.677  13.672  10.157
60940SOL     OW84716   7.471   2.130   7.127
60940SOL    HW184717   7.395   2.128   7.069
60940SOL    HW284718   7.503   2.040   7.128
60941SOL     OW84719   9.692   6.311   6.331
60941SOL    HW184720   9.722   6.388   6.284
60941SOL    HW284721   9.751   6.241   6.304
60942SOL     OW84722  11.651   6.556   4.376
60942SOL    HW184723  11.574   6.596   4.337
60942SOL    HW284724  11.700   6.522   4.302
60943SOL     OW84725   5.399  10.724   6.610
60943SOL    HW184726   5.311  10.707   6.644
60943SOL    HW284727   5.434  10.638   6.590
60944SOL     OW84728   9.472   2.859  10.925
60944SOL    HW184729   9.470   2.767  10.901
60944SOL    HW284730   9.516   2.902  10.852
60945SOL     OW84731   0.928   9.732   2.612
60945SOL    HW184732   0.835   9.722   2.592
60945SOL    HW284733   0.934   9.712   2.705
60946SOL     OW84734  10.710   9.619   7.835
60946SOL    HW184735  10.622   9.632   7.800
60946SOL    HW284736  10.717   9.682   7.907
60947SOL     OW84737   7.057  10.685   6.321
60947SOL    HW184738   7.138  10.638   6.300
60947SOL    HW284739   7.006  10.683   6.240
60948SOL     OW84740   8.818   2.981  11.814
60948SOL    HW184741   8.729   2.984  11.780
60948SOL    HW284742   8.870   2.944  11.743
60949SOL     OW84743   5.597  13.903   0.265
60949SOL    HW184744   5.571  13.827   0.317
60949SOL    HW284745   5.615  13.972   0.329
60950SOL     OW84746  11.220   6.705   4.118
60950SOL    HW184747  11.168   6.641   4.166
60950SOL    HW284748  11.295   6.723   4.175
60951SOL     OW84749   1.328   2.942  14.497
60951SOL    HW184750   1.270   3.001  14.546
60951SOL    HW284751   1.415   2.980  14.508
60952SOL     OW84752   6.573   3.757   2.846
60952SOL    HW184753   6.499   3.815   2.866
60952SOL    HW284754   6.647   3.796   2.893
60953SOL     OW84755   6.494   4.370  10.123
60953SOL    HW184756   6.534   4.443  10.075
60953SOL    HW284757   6.436   4.413  10.186
60954SOL     OW84758   4.103   1.349   0.259
60954SOL    HW184759   4.026   1.394   0.295
60954SOL    HW284760   4.177   1.402   0.286
60955SOL     OW84761   4.012  14.197   2.156
60955SOL    HW184762   3.973  14.115   2.125
60955SOL    HW284763   3.953  14.265   2.126
60956SOL     OW84764  11.653  14.431   4.949
60956SOL    HW184765  11.568  14.455   4.985
60956SOL    HW284766  11.691  14.513   4.919
60957SOL     OW84767  13.861   2.609  12.084
60957SOL    HW184768  13.929   2.645  12.142
60957SOL    HW284769  13.839   2.525  12.123
60958SOL     OW84770   8.010   5.353  14.074
60958SOL    HW184771   7.971   5.270  14.047
60958SOL    HW284772   8.095   5.329  14.111
60959SOL     OW84773   1.084  10.116   8.806
60959SOL    HW184774   1.173  10.151   8.812
60959SOL    HW284775   1.051  10.119   8.895
60960SOL     OW84776   3.125   9.340   7.101
60960SOL    HW184777   3.169   9.359   7.184
60960SOL    HW284778   3.057   9.277   7.124
60961SOL     OW84779   9.778  12.408   3.680
60961SOL    HW184780   9.723  12.334   3.653
60961SOL    HW284781   9.824  12.434   3.601
60962SOL     OW84782  14.348   0.881  10.010
60962SOL    HW184783  14.362   0.816  10.079
60962SOL    HW284784  14.262   0.918  10.029
60963SOL     OW84785   9.951  10.558   4.951
60963SOL    HW184786   9.943  10.647   4.985
60963SOL    HW284787   9.864  10.521   4.961
60964SOL     OW84788  11.181   9.677   0.298
60964SOL    HW184789  11.225   9.672   0.383
60964SOL    HW284790  11.146   9.766   0.294
60965SOL     OW84791  11.099   6.201  13.400
60965SOL    HW184792  11.168   6.263  13.423
60965SOL    HW284793  11.058   6.238  13.322
60966SOL     OW84794   2.891   4.035   2.389
60966SOL    HW184795   2.817   4.079   2.431
60966SOL    HW284796   2.867   4.030   2.296
60967SOL     OW84797   3.312   0.122   8.704
60967SOL    HW184798   3.404   0.111   8.730
60967SOL    HW284799   3.289   0.039   8.662
60968SOL     OW84800   5.362   7.708   9.971
60968SOL    HW184801   5.267   7.710   9.976
60968SOL    HW284802   5.383   7.732   9.881
60969SOL     OW84803   3.936   6.524   4.020
60969SOL    HW184804   3.851   6.522   4.064
60969SOL    HW284805   3.923   6.475   3.939
60970SOL     OW84806   5.369  11.718   1.014
60970SOL    HW184807   5.446  11.773   1.026
60970SOL    HW284808   5.398  11.648   0.955
60971SOL     OW84809   1.455   2.711   2.048
60971SOL    HW184810   1.431   2.799   2.019
60971SOL    HW284811   1.495   2.724   2.134
60972SOL     OW84812   1.368  13.747  13.327
60972SOL    HW184813   1.425  13.721  13.399
60972SOL    HW284814   1.316  13.669  13.307
60973SOL     OW84815  13.313   5.226   4.932
60973SOL    HW184816  13.374   5.189   4.867
60973SOL    HW284817  13.338   5.184   5.014
60974SOL     OW84818   0.867  14.586  12.279
60974SOL    HW184819   0.889  14.660  12.223
60974SOL    HW284820   0.784  14.610  12.320
60975SOL     OW84821  12.582   8.369   0.995
60975SOL    HW184822  12.601   8.460   0.968
60975SOL    HW284823  12.536   8.378   1.078
60976SOL     OW84824  12.289   9.742   2.972
60976SOL    HW184825  12.293   9.836   2.987
60976SOL    HW284826  12.223   9.732   2.904
60977SOL     OW84827  11.955   3.720   5.811
60977SOL    HW184828  11.975   3.626   5.815
60977SOL    HW284829  11.997   3.757   5.889
60978SOL     OW84830   6.050  14.039   8.791
60978SOL    HW184831   5.985  14.079   8.733
60978SOL    HW284832   6.033  13.945   8.784
60979SOL     OW84833   4.599   1.562   1.392
60979SOL    HW184834   4.582   1.471   1.366
60979SOL    HW284835   4.647   1.599   1.319
60980SOL     OW84836  12.265  13.659   7.424
60980SOL    HW184837  12.285  13.566   7.429
60980SOL    HW284838  12.217  13.670   7.342
60981SOL     OW84839   1.684   1.017  13.153
60981SOL    HW184840   1.698   0.934  13.198
60981SOL    HW284841   1.728   1.006  13.068
60982SOL     OW84842   2.172  10.142   5.287
60982SOL    HW184843   2.140  10.068   5.236
60982SOL    HW284844   2.146  10.219   5.236
60983SOL     OW84845   8.501   3.797   7.420
60983SOL    HW184846   8.488   3.723   7.361
60983SOL    HW284847   8.413   3.832   7.435
60984SOL     OW84848   2.567   8.008  12.270
60984SOL    HW184849   2.594   8.099  12.284
60984SOL    HW284850   2.646   7.965  12.237
60985SOL     OW84851  11.712   3.154   3.841
60985SOL    HW184852  11.692   3.105   3.921
60985SOL    HW284853  11.696   3.245   3.865
60986SOL     OW84854  13.852   2.610   6.983
60986SOL    HW184855  13.836   2.532   7.036
60986SOL    HW284856  13.791   2.675   7.017
60987SOL     OW84857   1.831   7.378  13.684
60987SOL    HW184858   1.871   7.460  13.713
60987SOL    HW284859   1.900   7.313  13.697
60988SOL     OW84860  13.616   5.067  14.496
60988SOL    HW184861  13.586   5.109  14.576
60988SOL    HW284862  13.581   5.121  14.425
60989SOL     OW84863   8.785   0.118   2.804
60989SOL    HW184864   8.868   0.070   2.805
60989SOL    HW284865   8.747   0.097   2.719
60990SOL     OW84866   4.963   5.112   4.350
60990SOL    HW184867   5.040   5.145   4.305
60990SOL    HW284868   4.966   5.017   4.337
60991SOL     OW84869   8.829   8.514   7.254
60991SOL    HW184870   8.800   8.556   7.336
60991SOL    HW284871   8.903   8.460   7.280
60992SOL     OW84872   7.751  10.543  10.086
60992SOL    HW184873   7.727  10.451  10.073
60992SOL    HW284874   7.814  10.541  10.159
60993SOL     OW84875   6.230  12.541   5.830
60993SOL    HW184876   6.223  12.494   5.747
60993SOL    HW284877   6.180  12.622   5.816
60994SOL     OW84878   0.533   3.268   7.506
60994SOL    HW184879   0.578   3.185   7.523
60994SOL    HW284880   0.576   3.303   7.428
60995SOL     OW84881   7.951   6.633   0.232
60995SOL    HW184882   7.952   6.711   0.288
60995SOL    HW284883   7.988   6.663   0.149
60996SOL     OW84884   3.555   8.783  12.664
60996SOL    HW184885   3.612   8.827  12.727
60996SOL    HW284886   3.601   8.702  12.643
60997SOL     OW84887  13.261   1.745  13.072
60997SOL    HW184888  13.271   1.652  13.054
60997SOL    HW284889  13.177   1.752  13.118
60998SOL     OW84890   1.686  11.943  12.174
60998SOL    HW184891   1.759  12.003  12.189
60998SOL    HW284892   1.612  11.983  12.220
60999SOL     OW84893  12.299  10.772   5.320
60999SOL    HW184894  12.361  10.743   5.387
60999SOL    HW284895  12.299  10.701   5.256
61000SOL     OW84896   0.102   4.717   4.541
61000SOL    HW184897   0.119   4.769   4.620
61000SOL    HW284898   0.189   4.695   4.507
61001SOL     OW84899   0.463   3.270   7.093
61001SOL    HW184900   0.523   3.214   7.142
61001SOL    HW284901   0.475   3.245   7.002
61002SOL     OW84902  13.745   7.659   8.622
61002SOL    HW184903  13.800   7.581   8.633
61002SOL    HW284904  13.796   7.729   8.662
61003SOL     OW84905   9.093  13.703   3.196
61003SOL    HW184906   9.138  13.629   3.236
61003SOL    HW284907   9.055  13.668   3.115
61004SOL     OW84908   6.655  13.918  11.897
61004SOL    HW184909   6.706  13.840  11.874
61004SOL    HW284910   6.578  13.913  11.842
61005SOL     OW84911  12.774   4.936   0.163
61005SOL    HW184912  12.681   4.956   0.155
61005SOL    HW284913  12.781   4.843   0.141
61006SOL     OW84914   1.177   4.996   3.583
61006SOL    HW184915   1.169   5.091   3.578
61006SOL    HW284916   1.261   4.982   3.627
61007SOL     OW84917   9.825  12.347   4.589
61007SOL    HW184918   9.772  12.267   4.592
61007SOL    HW284919   9.822  12.374   4.498
61008SOL     OW84920   2.736  11.245   6.921
61008SOL    HW184921   2.691  11.181   6.865
61008SOL    HW284922   2.678  11.255   6.997
61009SOL     OW84923   8.770   9.368   2.798
61009SOL    HW184924   8.797   9.406   2.715
61009SOL    HW284925   8.675   9.367   2.794
61010SOL     OW84926  12.680   2.366  13.727
61010SOL    HW184927  12.717   2.452  13.746
61010SOL    HW284928  12.607   2.357  13.789
61011SOL     OW84929   8.643   1.875   4.412
61011SOL    HW184930   8.660   1.920   4.494
61011SOL    HW284931   8.612   1.943   4.352
61012SOL     OW84932   7.024   2.558   3.342
61012SOL    HW184933   7.111   2.546   3.380
61012SOL    HW284934   6.964   2.517   3.404
61013SOL     OW84935  14.576  12.099  10.376
61013SOL    HW184936  14.502  12.050  10.340
61013SOL    HW284937  14.536  12.168  10.428
61014SOL     OW84938  12.920   5.905   0.719
61014SOL    HW184939  13.009   5.928   0.695
61014SOL    HW284940  12.914   5.811   0.701
61015SOL     OW84941   4.470   1.703  13.911
61015SOL    HW184942   4.401   1.651  13.870
61015SOL    HW284943   4.551   1.670  13.874
61016SOL     OW84944  13.042  12.200  13.496
61016SOL    HW184945  12.986  12.264  13.540
61016SOL    HW284946  13.081  12.248  13.423
61017SOL     OW84947   9.253  12.969  11.153
61017SOL    HW184948   9.274  12.876  11.143
61017SOL    HW284949   9.166  12.979  11.114
61018SOL     OW84950  10.011  12.667  10.734
61018SOL    HW184951  10.044  12.649  10.821
61018SOL    HW284952   9.974  12.755  10.739
61019SOL     OW84953   9.059   0.490   1.025
61019SOL    HW184954   9.081   0.433   0.951
61019SOL    HW284955   9.144   0.516   1.061
61020SOL     OW84956   6.377   1.299  13.147
61020SOL    HW184957   6.313   1.231  13.166
61020SOL    HW284958   6.386   1.349  13.228
61021SOL     OW84959  13.436   0.782   2.076
61021SOL    HW184960  13.445   0.706   2.018
61021SOL    HW284961  13.405   0.745   2.159
61022SOL     OW84962   3.137   0.637  14.334
61022SOL    HW184963   3.176   0.661  14.418
61022SOL    HW284964   3.185   0.689  14.269
61023SOL     OW84965   0.448   4.073   2.574
61023SOL    HW184966   0.478   4.053   2.485
61023SOL    HW284967   0.463   4.167   2.583
61024SOL     OW84968   6.556   0.999  12.055
61024SOL    HW184969   6.628   0.970  12.112
61024SOL    HW284970   6.544   0.927  11.993
61025SOL     OW84971   9.454   3.118  10.524
61025SOL    HW184972   9.460   3.210  10.497
61025SOL    HW284973   9.478   3.118  10.617
61026SOL     OW84974  11.426  12.091  13.968
61026SOL    HW184975  11.506  12.140  13.984
61026SOL    HW284976  11.451  12.022  13.906
61027SOL     OW84977   7.788   2.238   5.460
61027SOL    HW184978   7.819   2.236   5.369
61027SOL    HW284979   7.801   2.149   5.492
61028SOL     OW84980   3.291  14.552  14.767
61028SOL    HW184981   3.371  14.550  14.714
61028SOL    HW284982   3.264  14.643  14.767
61029SOL     OW84983   3.820  14.544   4.795
61029SOL    HW184984   3.760  14.525   4.724
61029SOL    HW284985   3.851  14.632   4.778
61030SOL     OW84986  12.732   2.142  10.504
61030SOL    HW184987  12.786   2.148  10.583
61030SOL    HW284988  12.679   2.064  10.517
61031SOL     OW84989  13.800  11.689  10.738
61031SOL    HW184990  13.881  11.731  10.710
61031SOL    HW284991  13.813  11.671  10.831
61032SOL     OW84992  10.253  11.873   7.674
61032SOL    HW184993  10.287  11.894   7.761
61032SOL    HW284994  10.327  11.832   7.629
61033SOL     OW84995  10.495   2.582  13.454
61033SOL    HW184996  10.421   2.596  13.395
61033SOL    HW284997  10.542   2.666  13.453
61034SOL     OW84998  10.116  10.893   6.754
61034SOL    HW184999  10.064  10.905   6.833
61034SOL    HW285000  10.057  10.914   6.682
61035SOL     OW85001   4.289  14.521  12.496
61035SOL    HW185002   4.218  14.583  12.513
61035SOL    HW285003   4.362  14.551  12.550
61036SOL     OW85004   2.954   4.156   0.321
61036SOL    HW185005   2.883   4.105   0.282
61036SOL    HW285006   2.985   4.212   0.249
61037SOL     OW85007  14.452   7.954   7.640
61037SOL    HW185008  14.457   8.042   7.601
61037SOL    HW285009  14.486   7.896   7.572
61038SOL     OW85010   2.828  14.277   8.796
61038SOL    HW185011   2.839  14.184   8.819
61038SOL    HW285012   2.801  14.275   8.704
61039SOL     OW85013  11.318   6.451  14.605
61039SOL    HW185014  11.312   6.368  14.558
61039SOL    HW285015  11.262   6.439  14.682
61040SOL     OW85016  10.108  12.560   5.397
61040SOL    HW185017  10.018  12.584   5.418
61040SOL    HW285018  10.154  12.563   5.481
61041SOL     OW85019   5.095   3.518  12.051
61041SOL    HW185020   5.049   3.483  11.976
61041SOL    HW285021   5.027   3.557  12.106
61042SOL     OW85022   8.890  12.633  13.877
61042SOL    HW185023   8.888  12.729  13.877
61042SOL    HW285024   8.862  12.608  13.965
61043SOL     OW85025   3.669   3.515   7.253
61043SOL    HW185026   3.610   3.485   7.184
61043SOL    HW285027   3.613   3.567   7.311
61044SOL     OW85028   4.931   3.416   5.754
61044SOL    HW185029   4.920   3.360   5.831
61044SOL    HW285030   4.975   3.494   5.787
61045SOL     OW85031  11.495  12.152  14.305
61045SOL    HW185032  11.574  12.205  14.297
61045SOL    HW285033  11.425  12.216  14.319
61046SOL     OW85034   0.734   1.144   8.934
61046SOL    HW185035   0.649   1.129   8.894
61046SOL    HW285036   0.785   1.066   8.912
61047SOL     OW85037  14.625  13.759   4.766
61047SOL    HW185038  14.673  13.719   4.839
61047SOL    HW285039  14.680  13.743   4.689
61048SOL     OW85040   1.990   2.683   8.658
61048SOL    HW185041   1.944   2.626   8.720
61048SOL    HW285042   1.982   2.639   8.574
61049SOL     OW85043   3.805   7.864   0.535
61049SOL    HW185044   3.738   7.798   0.555
61049SOL    HW285045   3.773   7.906   0.455
61050SOL     OW85046  14.725   3.040   0.364
61050SOL    HW185047  14.795   3.094   0.327
61050SOL    HW285048  14.769   2.975   0.418
61051SOL     OW85049   3.522  13.957   1.168
61051SOL    HW185050   3.507  13.983   1.077
61051SOL    HW285051   3.434  13.950   1.206
61052SOL     OW85052  14.852   9.598   1.318
61052SOL    HW185053   0.057   9.620   1.265
61052SOL    HW285054  14.778   9.635   1.269
61053SOL     OW85055   2.154   2.397  13.588
61053SOL    HW185056   2.181   2.447  13.511
61053SOL    HW285057   2.126   2.313  13.553
61054SOL     OW85058   8.400   7.304   7.397
61054SOL    HW185059   8.480   7.310   7.450
61054SOL    HW285060   8.349   7.235   7.439
61055SOL     OW85061  10.709  12.074   2.090
61055SOL    HW185062  10.682  12.119   2.170
61055SOL    HW285063  10.649  11.999   2.084
61056SOL     OW85064   4.873   4.192   2.253
61056SOL    HW185065   4.937   4.229   2.314
61056SOL    HW285066   4.840   4.114   2.297
61057SOL     OW85067   5.977   7.112   8.848
61057SOL    HW185068   6.000   7.042   8.787
61057SOL    HW285069   5.901   7.155   8.808
61058SOL     OW85070  13.915   6.903  10.951
61058SOL    HW185071  13.971   6.910  10.874
61058SOL    HW285072  13.940   6.820  10.992
61059SOL     OW85073   3.286  14.856  14.021
61059SOL    HW185074   3.319   0.067  13.986
61059SOL    HW285075   3.313  14.789  13.959
61060SOL     OW85076   4.529  13.878  10.516
61060SOL    HW185077   4.442  13.837  10.507
61060SOL    HW285078   4.523  13.957  10.463
61061SOL     OW85079   4.535  14.195   9.084
61061SOL    HW185080   4.587  14.114   9.085
61061SOL    HW285081   4.473  14.184   9.155
61062SOL     OW85082   2.655  11.381  10.960
61062SOL    HW185083   2.617  11.297  10.987
61062SOL    HW285084   2.579  11.436  10.941
61063SOL     OW85085  12.466  12.194  11.504
61063SOL    HW185086  12.438  12.118  11.454
61063SOL    HW285087  12.385  12.235  11.534
61064SOL     OW85088   8.577   7.765  10.659
61064SOL    HW185089   8.647   7.788  10.597
61064SOL    HW285090   8.572   7.669  10.654
61065SOL     OW85091   3.724   2.063   7.072
61065SOL    HW185092   3.748   2.079   7.163
61065SOL    HW285093   3.808   2.045   7.029
61066SOL     OW85094   8.439   7.643   9.958
61066SOL    HW185095   8.418   7.670  10.048
61066SOL    HW285096   8.440   7.547   9.962
61067SOL     OW85097   1.920  14.552   4.752
61067SOL    HW185098   1.914  14.468   4.797
61067SOL    HW285099   2.010  14.556   4.721
61068SOL     OW85100   8.226   3.881  14.363
61068SOL    HW185101   8.227   3.811  14.429
61068SOL    HW285102   8.305   3.932  14.380
61069SOL     OW85103   5.335   4.339   5.705
61069SOL    HW185104   5.430   4.327   5.698
61069SOL    HW285105   5.319   4.343   5.799
61070SOL     OW85106  10.234   7.112   9.767
61070SOL    HW185107  10.327   7.120   9.786
61070SOL    HW285108  10.196   7.196   9.795
61071SOL     OW85109   2.915   1.306  14.595
61071SOL    HW185110   2.839   1.340  14.547
61071SOL    HW285111   2.885   1.296  14.685
61072SOL     OW85112   9.024  12.468   5.665
61072SOL    HW185113   9.014  12.400   5.598
61072SOL    HW285114   9.068  12.540   5.620
61073SOL     OW85115  12.539   1.549   7.866
61073SOL    HW185116  12.605   1.502   7.815
61073SOL    HW285117  12.519   1.490   7.939
61074SOL     OW85118   9.424   9.477  12.310
61074SOL    HW185119   9.465   9.393  12.288
61074SOL    HW285120   9.370   9.458  12.387
61075SOL     OW85121   2.617   8.389  13.492
61075SOL    HW185122   2.616   8.468  13.438
61075SOL    HW285123   2.649   8.321  13.433
61076SOL     OW85124   6.773  13.042  10.689
61076SOL    HW185125   6.698  13.038  10.630
61076SOL    HW285126   6.766  12.963  10.743
61077SOL     OW85127  13.687   6.696   4.431
61077SOL    HW185128  13.596   6.725   4.433
61077SOL    HW285129  13.736   6.773   4.401
61078SOL     OW85130   5.565  12.120  11.845
61078SOL    HW185131   5.623  12.167  11.786
61078SOL    HW285132   5.488  12.099  11.792
61079SOL     OW85133  11.661  10.858  13.685
61079SOL    HW185134  11.594  10.812  13.737
61079SOL    HW285135  11.675  10.802  13.609
61080SOL     OW85136  13.186   7.273   6.010
61080SOL    HW185137  13.256   7.247   6.069
61080SOL    HW285138  13.169   7.365   6.032
61081SOL     OW85139   0.769   5.376   4.632
61081SOL    HW185140   0.832   5.322   4.584
61081SOL    HW285141   0.685   5.330   4.621
61082SOL     OW85142   2.167  13.854   5.598
61082SOL    HW185143   2.204  13.934   5.561
61082SOL    HW285144   2.240  13.810   5.640
61083SOL     OW85145   0.512  14.580   9.360
61083SOL    HW185146   0.494  14.656   9.416
61083SOL    HW285147   0.575  14.529   9.410
61084SOL     OW85148   8.716  10.572   8.863
61084SOL    HW185149   8.639  10.603   8.814
61084SOL    HW285150   8.776  10.540   8.795
61085SOL     OW85151  11.137   6.514  12.603
61085SOL    HW185152  11.128   6.451  12.532
61085SOL    HW285153  11.051   6.514  12.645
61086SOL     OW85154   5.283   6.137  12.726
61086SOL    HW185155   5.190   6.129  12.749
61086SOL    HW285156   5.318   6.199  12.790
61087SOL     OW85157   1.612   3.067  10.108
61087SOL    HW185158   1.600   3.077  10.014
61087SOL    HW285159   1.587   2.976  10.126
61088SOL     OW85160   5.343   2.916   5.580
61088SOL    HW185161   5.280   2.984   5.602
61088SOL    HW285162   5.384   2.946   5.499
61089SOL     OW85163   5.109  13.503   3.877
61089SOL    HW185164   5.062  13.420   3.868
61089SOL    HW285165   5.153  13.516   3.794
61090SOL     OW85166   5.595   4.471   7.979
61090SOL    HW185167   5.670   4.413   7.970
61090SOL    HW285168   5.583   4.510   7.892
61091SOL     OW85169   4.373   1.207   7.736
61091SOL    HW185170   4.332   1.157   7.666
61091SOL    HW285171   4.454   1.240   7.698
61092SOL     OW85172   1.827   0.463  10.389
61092SOL    HW185173   1.742   0.449  10.431
61092SOL    HW285174   1.807   0.518  10.314
61093SOL     OW85175   0.228   5.028  12.955
61093SOL    HW185176   0.217   5.083  12.877
61093SOL    HW285177   0.225   5.090  13.029
61094SOL     OW85178   3.782   1.767   8.471
61094SOL    HW185179   3.854   1.778   8.410
61094SOL    HW285180   3.782   1.673   8.492
61095SOL     OW85181   4.373   5.047  10.552
61095SOL    HW185182   4.458   5.010  10.575
61095SOL    HW285183   4.392   5.136  10.523
61096SOL     OW85184   0.581   4.633   4.148
61096SOL    HW185185   0.503   4.599   4.104
61096SOL    HW285186   0.586   4.724   4.121
61097SOL     OW85187  12.418  13.946  13.526
61097SOL    HW185188  12.385  14.014  13.584
61097SOL    HW285189  12.464  13.885  13.585
61098SOL     OW85190   4.715   0.575  14.745
61098SOL    HW185191   4.750   0.652  14.700
61098SOL    HW285192   4.771   0.503  14.715
61099SOL     OW85193   1.803   4.666   6.811
61099SOL    HW185194   1.805   4.601   6.741
61099SOL    HW285195   1.734   4.636   6.870
61100SOL     OW85196   6.868  14.404   1.104
61100SOL    HW185197   6.890  14.419   1.012
61100SOL    HW285198   6.951  14.408   1.150
61101SOL     OW85199  14.292   4.829   7.059
61101SOL    HW185200  14.202   4.861   7.074
61101SOL    HW285201  14.283   4.762   6.992
61102SOL     OW85202  12.676   4.842   1.338
61102SOL    HW185203  12.613   4.790   1.288
61102SOL    HW285204  12.746   4.862   1.276
61103SOL     OW85205  13.715   5.150  11.937
61103SOL    HW185206  13.717   5.221  12.002
61103SOL    HW285207  13.751   5.189  11.858
61104SOL     OW85208   6.246   1.927  13.923
61104SOL    HW185209   6.169   1.962  13.968
61104SOL    HW285210   6.319   1.949  13.980
61105SOL     OW85211  13.616   8.788   7.217
61105SOL    HW185212  13.678   8.851   7.182
61105SOL    HW285213  13.537   8.839   7.236
61106SOL     OW85214  14.119   5.919   8.266
61106SOL    HW185215  14.192   5.978   8.283
61106SOL    HW285216  14.115   5.912   8.170
61107SOL     OW85217  14.738   2.531  13.830
61107SOL    HW185218  14.817   2.515  13.779
61107SOL    HW285219  14.673   2.472  13.793
61108SOL     OW85220   3.037   8.205   5.715
61108SOL    HW185221   2.951   8.235   5.743
61108SOL    HW285222   3.047   8.239   5.626
61109SOL     OW85223   8.460   3.183   3.135
61109SOL    HW185224   8.482   3.132   3.056
61109SOL    HW285225   8.542   3.185   3.185
61110SOL     OW85226   5.267  13.482   4.856
61110SOL    HW185227   5.318  13.555   4.820
61110SOL    HW285228   5.255  13.504   4.948
61111SOL     OW85229   8.617  11.412   6.695
61111SOL    HW185230   8.633  11.435   6.603
61111SOL    HW285231   8.575  11.489   6.732
61112SOL     OW85232   6.539  12.235  11.060
61112SOL    HW185233   6.568  12.326  11.054
61112SOL    HW285234   6.616  12.184  11.035
61113SOL     OW85235   5.978   9.609   7.739
61113SOL    HW185236   5.901   9.640   7.787
61113SOL    HW285237   5.954   9.521   7.710
61114SOL     OW85238   0.830   1.509  13.264
61114SOL    HW185239   0.842   1.583  13.323
61114SOL    HW285240   0.736   1.509  13.245
61115SOL     OW85241   3.988  12.410   8.275
61115SOL    HW185242   4.055  12.470   8.243
61115SOL    HW285243   3.981  12.430   8.369
61116SOL     OW85244   4.543  14.576  13.947
61116SOL    HW185245   4.595  14.623  13.883
61116SOL    HW285246   4.461  14.626  13.953
61117SOL     OW85247   9.546   8.863   6.347
61117SOL    HW185248   9.471   8.922   6.335
61117SOL    HW285249   9.604   8.883   6.274
61118SOL     OW85250   2.507   5.908   4.002
61118SOL    HW185251   2.468   5.943   4.082
61118SOL    HW285252   2.450   5.836   3.977
61119SOL     OW85253   9.848   0.487   1.563
61119SOL    HW185254   9.861   0.548   1.491
61119SOL    HW285255   9.887   0.405   1.532
61120SOL     OW85256  12.305   0.606   5.708
61120SOL    HW185257  12.396   0.637   5.714
61120SOL    HW285258  12.254   0.685   5.689
61121SOL     OW85259  11.425   8.273   0.117
61121SOL    HW185260  11.420   8.297   0.024
61121SOL    HW285261  11.360   8.203   0.127
61122SOL     OW85262   7.135  10.779   2.864
61122SOL    HW185263   7.225  10.799   2.840
61122SOL    HW285264   7.120  10.827   2.945
61123SOL     OW85265   5.232   0.323   5.623
61123SOL    HW185266   5.278   0.367   5.695
61123SOL    HW285267   5.287   0.341   5.547
61124SOL     OW85268   7.100  13.778   1.754
61124SOL    HW185269   7.065  13.809   1.671
61124SOL    HW285270   7.185  13.740   1.732
61125SOL     OW85271   0.625   9.954   8.056
61125SOL    HW185272   0.653  10.004   8.133
61125SOL    HW285273   0.702   9.904   8.031
61126SOL     OW85274   1.182   5.204  13.993
61126SOL    HW185275   1.142   5.291  13.997
61126SOL    HW285276   1.209   5.185  14.082
61127SOL     OW85277  11.481  11.258   5.148
61127SOL    HW185278  11.433  11.221   5.222
61127SOL    HW285279  11.567  11.217   5.152
61128SOL     OW85280  14.664   2.621  13.369
61128SOL    HW185281  14.704   2.694  13.320
61128SOL    HW285282  14.738   2.564  13.391
61129SOL     OW85283  12.028   9.236   4.626
61129SOL    HW185284  12.105   9.195   4.588
61129SOL    HW285285  12.000   9.176   4.695
61130SOL     OW85286   6.621  10.189  13.121
61130SOL    HW185287   6.583  10.267  13.161
61130SOL    HW285288   6.710  10.185  13.158
61131SOL     OW85289   1.743   9.106   2.128
61131SOL    HW185290   1.765   9.034   2.187
61131SOL    HW285291   1.651   9.091   2.106
61132SOL     OW85292   3.655   7.548   5.727
61132SOL    HW185293   3.657   7.530   5.821
61132SOL    HW285294   3.628   7.465   5.688
61133SOL     OW85295  11.903   3.823   4.154
61133SOL    HW185296  11.994   3.797   4.139
61133SOL    HW285297  11.893   3.823   4.249
61134SOL     OW85298   7.231  11.767  14.192
61134SOL    HW185299   7.172  11.698  14.220
61134SOL    HW285300   7.177  11.824  14.136
61135SOL     OW85301  12.505   0.689   9.473
61135SOL    HW185302  12.528   0.653   9.387
61135SOL    HW285303  12.544   0.627   9.535
61136SOL     OW85304  10.636   8.273  13.984
61136SOL    HW185305  10.704   8.264  13.917
61136SOL    HW285306  10.554   8.276  13.935
61137SOL     OW85307   9.211   9.762   0.690
61137SOL    HW185308   9.160   9.697   0.738
61137SOL    HW285309   9.187   9.750   0.598
61138SOL     OW85310   8.199   2.946   9.151
61138SOL    HW185311   8.238   2.881   9.209
61138SOL    HW285312   8.141   2.896   9.094
61139SOL     OW85313   4.679   5.605  12.105
61139SOL    HW185314   4.759   5.554  12.104
61139SOL    HW285315   4.698   5.680  12.161
61140SOL     OW85316   4.950   4.911  11.199
61140SOL    HW185317   4.962   4.987  11.142
61140SOL    HW285318   4.935   4.838  11.140
61141SOL     OW85319   0.910   6.140   3.588
61141SOL    HW185320   0.991   6.101   3.555
61141SOL    HW285321   0.844   6.072   3.575
61142SOL     OW85322   6.108   7.912   3.698
61142SOL    HW185323   6.090   7.828   3.657
61142SOL    HW285324   6.145   7.890   3.784
61143SOL     OW85325   9.066   1.623   3.697
61143SOL    HW185326   9.131   1.677   3.651
61143SOL    HW285327   8.994   1.683   3.716
61144SOL     OW85328   0.391  12.057   1.832
61144SOL    HW185329   0.457  12.076   1.898
61144SOL    HW285330   0.335  12.135   1.830
61145SOL     OW85331   8.158   9.354  10.408
61145SOL    HW185332   8.216   9.351  10.484
61145SOL    HW285333   8.180   9.275  10.358
61146SOL     OW85334  14.617   6.857   8.159
61146SOL    HW185335  14.615   6.773   8.203
61146SOL    HW285336  14.563   6.914   8.214
61147SOL     OW85337  10.241  10.565   0.746
61147SOL    HW185338  10.191  10.569   0.664
61147SOL    HW285339  10.285  10.649   0.751
61148SOL     OW85340  12.798   7.570  10.232
61148SOL    HW185341  12.877   7.623  10.243
61148SOL    HW285342  12.746   7.588  10.310
61149SOL     OW85343   3.141  13.596   7.236
61149SOL    HW185344   3.079  13.569   7.304
61149SOL    HW285345   3.111  13.551   7.157
61150SOL     OW85346  10.223  14.374   0.940
61150SOL    HW185347  10.274  14.299   0.969
61150SOL    HW285348  10.289  14.441   0.920
61151SOL     OW85349  13.285   2.391   8.706
61151SOL    HW185350  13.302   2.481   8.734
61151SOL    HW285351  13.270   2.342   8.787
61152SOL     OW85352  11.049   2.833   4.775
61152SOL    HW185353  10.968   2.800   4.735
61152SOL    HW285354  11.040   2.813   4.868
61153SOL     OW85355  12.202   8.281  11.571
61153SOL    HW185356  12.125   8.268  11.515
61153SOL    HW285357  12.203   8.375  11.590
61154SOL     OW85358   1.433   5.351   0.469
61154SOL    HW185359   1.490   5.279   0.443
61154SOL    HW285360   1.492   5.425   0.485
61155SOL     OW85361   4.638  10.229   4.078
61155SOL    HW185362   4.688  10.213   3.998
61155SOL    HW285363   4.569  10.291   4.052
61156SOL     OW85364   9.128  12.362   3.126
61156SOL    HW185365   9.090  12.326   3.207
61156SOL    HW285366   9.214  12.320   3.119
61157SOL     OW85367   6.914   9.847   8.437
61157SOL    HW185368   6.983   9.904   8.470
61157SOL    HW285369   6.839   9.862   8.496
61158SOL     OW85370   7.868   7.696   1.797
61158SOL    HW185371   7.941   7.673   1.854
61158SOL    HW285372   7.886   7.651   1.715
61159SOL     OW85373   6.950   4.851   6.783
61159SOL    HW185374   6.912   4.765   6.764
61159SOL    HW285375   6.898   4.912   6.730
61160SOL     OW85376   5.231  14.326  14.844
61160SOL    HW185377   5.266  14.395  14.787
61160SOL    HW285378   5.196  14.261  14.783
61161SOL     OW85379   1.799   2.092  12.221
61161SOL    HW185380   1.802   2.016  12.279
61161SOL    HW285381   1.709   2.125  12.229
61162SOL     OW85382   2.734   4.373   9.259
61162SOL    HW185383   2.730   4.359   9.354
61162SOL    HW285384   2.804   4.315   9.229
61163SOL     OW85385   9.493  12.757  10.492
61163SOL    HW185386   9.583  12.727  10.476
61163SOL    HW285387   9.452  12.758  10.406
61164SOL     OW85388   8.717  13.866   7.838
61164SOL    HW185389   8.655  13.797   7.862
61164SOL    HW285390   8.718  13.926   7.912
61165SOL     OW85391  10.067   8.435   9.835
61165SOL    HW185392  10.093   8.352   9.794
61165SOL    HW285393   9.982   8.455   9.797
61166SOL     OW85394   7.138   8.242   3.906
61166SOL    HW185395   7.079   8.315   3.924
61166SOL    HW285396   7.081   8.173   3.870
61167SOL     OW85397   4.462   8.390   2.009
61167SOL    HW185398   4.474   8.304   2.050
61167SOL    HW285399   4.381   8.424   2.047
61168SOL     OW85400   4.335  11.868   4.679
61168SOL    HW185401   4.346  11.944   4.736
61168SOL    HW285402   4.383  11.798   4.723
61169SOL     OW85403   6.830   3.523  11.764
61169SOL    HW185404   6.865   3.605  11.731
61169SOL    HW285405   6.865   3.516  11.853
61170SOL     OW85406   3.112  11.830  11.860
61170SOL    HW185407   3.021  11.804  11.843
61170SOL    HW285408   3.140  11.871  11.778
61171SOL     OW85409   7.065   2.325  10.074
61171SOL    HW185410   7.111   2.271  10.139
61171SOL    HW285411   7.017   2.262  10.020
61172SOL     OW85412  12.526   9.336   9.639
61172SOL    HW185413  12.555   9.345   9.548
61172SOL    HW285414  12.534   9.242   9.658
61173SOL     OW85415  14.393   9.277  10.999
61173SOL    HW185416  14.315   9.255  11.051
61173SOL    HW285417  14.370   9.358  10.954
61174SOL     OW85418  13.910   6.766   5.564
61174SOL    HW185419  13.877   6.856   5.557
61174SOL    HW285420  14.001   6.771   5.535
61175SOL     OW85421  10.903  14.110  14.005
61175SOL    HW185422  10.927  14.052  13.933
61175SOL    HW285423  10.986  14.148  14.034
61176SOL     OW85424  14.585   5.451  13.270
61176SOL    HW185425  14.603   5.537  13.308
61176SOL    HW285426  14.532   5.471  13.193
61177SOL     OW85427   6.217   2.755  14.444
61177SOL    HW185428   6.190   2.777  14.533
61177SOL    HW285429   6.143   2.707  14.407
61178SOL     OW85430   3.665   1.533   3.884
61178SOL    HW185431   3.752   1.532   3.844
61178SOL    HW285432   3.623   1.611   3.849
61179SOL     OW85433   0.341  11.838  10.209
61179SOL    HW185434   0.423  11.815  10.167
61179SOL    HW285435   0.361  11.916  10.261
61180SOL     OW85436   0.235   7.799   0.375
61180SOL    HW185437   0.192   7.866   0.323
61180SOL    HW285438   0.224   7.718   0.325
61181SOL     OW85439   3.985   3.991  11.704
61181SOL    HW185440   4.068   3.951  11.730
61181SOL    HW285441   3.918   3.934  11.742
61182SOL     OW85442  12.272   4.843   8.538
61182SOL    HW185443  12.328   4.839   8.460
61182SOL    HW285444  12.245   4.934   8.542
61183SOL     OW85445   4.632   2.030  11.704
61183SOL    HW185446   4.582   1.949  11.718
61183SOL    HW285447   4.710   2.001  11.657
61184SOL     OW85448   8.917   5.089  13.486
61184SOL    HW185449   8.948   5.002  13.461
61184SOL    HW285450   8.823   5.080  13.495
61185SOL     OW85451   6.246   3.234  10.096
61185SOL    HW185452   6.321   3.260  10.149
61185SOL    HW285453   6.223   3.146  10.128
61186SOL     OW85454   8.906   4.271   2.874
61186SOL    HW185455   8.871   4.334   2.810
61186SOL    HW285456   8.847   4.196   2.869
61187SOL     OW85457  12.464   3.794   5.687
61187SOL    HW185458  12.535   3.836   5.736
61187SOL    HW285459  12.387   3.804   5.744
61188SOL     OW85460   4.041  14.507  14.624
61188SOL    HW185461   3.991  14.589  14.619
61188SOL    HW285462   3.994  14.456  14.690
61189SOL     OW85463   0.446   5.714   1.426
61189SOL    HW185464   0.506   5.693   1.497
61189SOL    HW285465   0.400   5.793   1.456
61190SOL     OW85466   3.882   6.535   2.578
61190SOL    HW185467   3.948   6.573   2.636
61190SOL    HW285468   3.844   6.611   2.532
61191SOL     OW85469   5.463   1.356   8.729
61191SOL    HW185470   5.392   1.292   8.722
61191SOL    HW285471   5.445   1.404   8.810
61192SOL     OW85472   7.523  13.632   2.288
61192SOL    HW185473   7.447  13.690   2.277
61192SOL    HW285474   7.568  13.635   2.203
61193SOL     OW85475  10.789   3.330   6.391
61193SOL    HW185476  10.870   3.377   6.372
61193SOL    HW285477  10.748   3.318   6.306
61194SOL     OW85478  13.917   2.320   0.522
61194SOL    HW185479  13.944   2.409   0.503
61194SOL    HW285480  13.837   2.329   0.574
61195SOL     OW85481  11.961  12.557   6.491
61195SOL    HW185482  11.932  12.480   6.539
61195SOL    HW285483  12.036  12.527   6.440
61196SOL     OW85484   4.408  11.091  14.510
61196SOL    HW185485   4.421  11.132  14.425
61196SOL    HW285486   4.363  11.157  14.563
61197SOL     OW85487   0.268  13.531   5.212
61197SOL    HW185488   0.186  13.578   5.200
61197SOL    HW285489   0.262  13.493   5.300
61198SOL     OW85490  12.084  14.580   8.563
61198SOL    HW185491  12.172  14.603   8.534
61198SOL    HW285492  12.043  14.664   8.585
61199SOL     OW85493   6.102   1.180  11.151
61199SOL    HW185494   6.190   1.203  11.180
61199SOL    HW285495   6.086   1.237  11.076
61200SOL     OW85496  13.266   6.611  11.463
61200SOL    HW185497  13.191   6.590  11.408
61200SOL    HW285498  13.340   6.568  11.419
61201SOL     OW85499   2.929   1.029   9.133
61201SOL    HW185500   2.845   0.984   9.128
61201SOL    HW285501   2.908   1.116   9.168
61202SOL     OW85502   6.785  13.339  10.599
61202SOL    HW185503   6.759  13.276  10.666
61202SOL    HW285504   6.864  13.300  10.560
61203SOL     OW85505   4.194   4.727   8.344
61203SOL    HW185506   4.260   4.795   8.357
61203SOL    HW285507   4.123   4.771   8.298
61204SOL     OW85508  12.777  11.877   4.631
61204SOL    HW185509  12.818  11.791   4.624
61204SOL    HW285510  12.816  11.929   4.561
61205SOL     OW85511   7.117   1.292   9.199
61205SOL    HW185512   7.205   1.272   9.233
61205SOL    HW285513   7.132   1.313   9.107
61206SOL     OW85514   0.399   9.787   3.124
61206SOL    HW185515   0.415   9.758   3.214
61206SOL    HW285516   0.453   9.729   3.070
61207SOL     OW85517   3.202   3.348   8.592
61207SOL    HW185518   3.222   3.438   8.567
61207SOL    HW285519   3.244   3.337   8.677
61208SOL     OW85520  14.707   6.112   7.449
61208SOL    HW185521  14.776   6.169   7.483
61208SOL    HW285522  14.678   6.156   7.369
61209SOL     OW85523   6.340   2.897   2.869
61209SOL    HW185524   6.435   2.886   2.872
61209SOL    HW285525   6.318   2.939   2.952
61210SOL     OW85526  13.076   3.845   8.068
61210SOL    HW185527  13.120   3.888   8.142
61210SOL    HW285528  12.996   3.809   8.106
61211SOL     OW85529   1.303  12.840  14.684
61211SOL    HW185530   1.298  12.932  14.710
61211SOL    HW285531   1.226  12.827  14.629
61212SOL     OW85532  13.482  10.537  11.226
61212SOL    HW185533  13.560  10.592  11.230
61212SOL    HW285534  13.412  10.591  11.263
61213SOL     OW85535  13.599   4.339   2.740
61213SOL    HW185536  13.560   4.417   2.780
61213SOL    HW285537  13.536   4.312   2.673
61214SOL     OW85538  14.520   2.900  14.539
61214SOL    HW185539  14.499   2.915  14.631
61214SOL    HW285540  14.457   2.833  14.511
61215SOL     OW85541   0.326  13.096   8.542
61215SOL    HW185542   0.415  13.087   8.510
61215SOL    HW285543   0.274  13.038   8.487
61216SOL     OW85544  13.134   8.268   7.281
61216SOL    HW185545  13.154   8.353   7.243
61216SOL    HW285546  13.216   8.219   7.274
61217SOL     OW85547   3.757   1.046   8.821
61217SOL    HW185548   3.818   1.013   8.755
61217SOL    HW285549   3.802   1.120   8.861
61218SOL     OW85550   2.939   2.446   2.967
61218SOL    HW185551   2.967   2.538   2.967
61218SOL    HW285552   2.921   2.427   3.059
61219SOL     OW85553  14.160   3.878  10.245
61219SOL    HW185554  14.134   3.970  10.249
61219SOL    HW285555  14.079   3.829  10.262
61220SOL     OW85556   6.674  12.234   0.722
61220SOL    HW185557   6.704  12.325   0.712
61220SOL    HW285558   6.754  12.182   0.722
61221SOL     OW85559  10.529   0.360  10.474
61221SOL    HW185560  10.448   0.408  10.489
61221SOL    HW285561  10.545   0.313  10.557
61222SOL     OW85562  12.571   2.277   7.931
61222SOL    HW185563  12.608   2.340   7.994
61222SOL    HW285564  12.631   2.281   7.856
61223SOL     OW85565   5.231   4.531   4.716
61223SOL    HW185566   5.160   4.508   4.655
61223SOL    HW285567   5.201   4.498   4.801
61224SOL     OW85568  13.598   0.877   3.788
61224SOL    HW185569  13.638   0.793   3.810
61224SOL    HW285570  13.508   0.854   3.764
61225SOL     OW85571  12.841   6.499   7.754
61225SOL    HW185572  12.760   6.504   7.704
61225SOL    HW285573  12.815   6.462   7.838
61226SOL     OW85574   2.209  14.316   4.593
61226SOL    HW185575   2.144  14.256   4.631
61226SOL    HW285576   2.251  14.357   4.668
61227SOL     OW85577  13.784   4.571   0.181
61227SOL    HW185578  13.731   4.613   0.249
61227SOL    HW285579  13.789   4.479   0.208
61228SOL     OW85580  12.168  12.912   2.701
61228SOL    HW185581  12.081  12.876   2.689
61228SOL    HW285582  12.178  12.919   2.796
61229SOL     OW85583   2.934  10.894   3.888
61229SOL    HW185584   2.967  10.949   3.817
61229SOL    HW285585   2.843  10.922   3.899
61230SOL     OW85586   9.054  14.022  12.451
61230SOL    HW185587   8.992  13.998  12.383
61230SOL    HW285588   9.116  14.081  12.408
61231SOL     OW85589   3.457   4.445   1.364
61231SOL    HW185590   3.526   4.496   1.322
61231SOL    HW285591   3.387   4.509   1.380
61232SOL     OW85592   7.274   3.277   6.431
61232SOL    HW185593   7.368   3.288   6.417
61232SOL    HW285594   7.261   3.183   6.441
61233SOL     OW85595   9.037   0.165   4.763
61233SOL    HW185596   9.101   0.131   4.826
61233SOL    HW285597   9.008   0.088   4.715
61234SOL     OW85598   1.903   1.019   5.708
61234SOL    HW185599   1.981   0.967   5.687
61234SOL    HW285600   1.900   1.086   5.639
61235SOL     OW85601  14.395   3.664  10.067
61235SOL    HW185602  14.307   3.656  10.031
61235SOL    HW285603  14.435   3.577  10.052
61236SOL     OW85604   0.001  13.390   5.714
61236SOL    HW185605   0.022  13.480   5.736
61236SOL    HW285606   0.042  13.338   5.783
61237SOL     OW85607  12.505  13.844   2.045
61237SOL    HW185608  12.431  13.811   1.994
61237SOL    HW285609  12.464  13.897   2.114
61238SOL     OW85610   5.734   5.124   1.200
61238SOL    HW185611   5.690   5.209   1.203
61238SOL    HW285612   5.778   5.116   1.285
61239SOL     OW85613  12.916   7.296  11.730
61239SOL    HW185614  12.948   7.240  11.801
61239SOL    HW285615  12.849   7.243  11.685
61240SOL     OW85616   1.412   0.297  13.901
61240SOL    HW185617   1.458   0.338  13.974
61240SOL    HW285618   1.348   0.239  13.942
61241SOL     OW85619   1.033  12.103   0.424
61241SOL    HW185620   1.066  12.013   0.427
61241SOL    HW285621   1.096  12.154   0.474
61242SOL     OW85622   7.737  12.009   1.972
61242SOL    HW185623   7.697  12.057   1.899
61242SOL    HW285624   7.829  12.036   1.971
61243SOL     OW85625  11.602  12.822   5.500
61243SOL    HW185626  11.576  12.733   5.524
61243SOL    HW285627  11.668  12.811   5.432
61244SOL     OW85628   9.563   5.805   8.430
61244SOL    HW185629   9.658   5.798   8.441
61244SOL    HW285630   9.527   5.732   8.480
61245SOL     OW85631   2.507  12.531   1.619
61245SOL    HW185632   2.583  12.552   1.565
61245SOL    HW285633   2.486  12.441   1.597
61246SOL     OW85634  10.490   3.330   1.761
61246SOL    HW185635  10.482   3.416   1.721
61246SOL    HW285636  10.571   3.333   1.811
61247SOL     OW85637  11.914   2.513   8.803
61247SOL    HW185638  11.944   2.464   8.879
61247SOL    HW285639  11.980   2.581   8.790
61248SOL     OW85640  12.491   2.217  14.871
61248SOL    HW185641  12.539   2.296  14.846
61248SOL    HW285642  12.403   2.249   0.020
61249SOL     OW85643  14.644  13.256   6.467
61249SOL    HW185644  14.554  13.286   6.485
61249SOL    HW285645  14.663  13.194   6.537
61250SOL     OW85646  14.301   4.914  10.661
61250SOL    HW185647  14.317   4.850  10.592
61250SOL    HW285648  14.376   4.973  10.657
61251SOL     OW85649   3.704  14.222   4.501
61251SOL    HW185650   3.672  14.225   4.411
61251SOL    HW285651   3.698  14.130   4.526
61252SOL     OW85652   3.849   2.358   7.781
61252SOL    HW185653   3.822   2.371   7.690
61252SOL    HW285654   3.798   2.422   7.830
61253SOL     OW85655  13.936  10.630  14.522
61253SOL    HW185656  13.891  10.669  14.597
61253SOL    HW285657  14.019  10.678  14.516
61254SOL     OW85658  13.124  14.699  14.186
61254SOL    HW185659  13.031  14.716  14.169
61254SOL    HW285660  13.155  14.655  14.107
61255SOL     OW85661  12.410   3.474   9.666
61255SOL    HW185662  12.506   3.481   9.663
61255SOL    HW285663  12.392   3.385   9.637
61256SOL     OW85664   5.303   5.471   1.272
61256SOL    HW185665   5.209   5.451   1.274
61256SOL    HW285666   5.336   5.435   1.354
61257SOL     OW85667   8.549  12.400   2.938
61257SOL    HW185668   8.631  12.449   2.925
61257SOL    HW285669   8.515  12.433   3.021
61258SOL     OW85670   7.951   9.745   0.689
61258SOL    HW185671   7.882   9.809   0.706
61258SOL    HW285672   8.000   9.740   0.771
61259SOL     OW85673   8.661  13.730   4.681
61259SOL    HW185674   8.585  13.721   4.624
61259SOL    HW285675   8.716  13.655   4.660
61260SOL     OW85676  12.913  14.121  11.944
61260SOL    HW185677  12.878  14.059  11.880
61260SOL    HW285678  12.887  14.085  12.029
61261SOL     OW85679  13.011  11.087   8.290
61261SOL    HW185680  13.099  11.054   8.310
61261SOL    HW285681  12.979  11.121   8.374
61262SOL     OW85682   8.268  14.596   7.542
61262SOL    HW185683   8.356  14.633   7.550
61262SOL    HW285684   8.209  14.672   7.545
61263SOL     OW85685  11.610   1.294  12.034
61263SOL    HW185686  11.697   1.334  12.039
61263SOL    HW285687  11.626   1.202  12.056
61264SOL     OW85688  14.763   6.344   7.599
61264SOL    HW185689  14.708   6.396   7.541
61264SOL    HW285690  14.705   6.316   7.669
61265SOL     OW85691   9.471  14.236  11.197
61265SOL    HW185692   9.486  14.228  11.291
61265SOL    HW285693   9.515  14.160  11.159
61266SOL     OW85694   6.952   8.912   5.772
61266SOL    HW185695   6.998   8.892   5.853
61266SOL    HW285696   6.928   8.827   5.736
61267SOL     OW85697   1.144  14.242  12.334
61267SOL    HW185698   1.218  14.257  12.392
61267SOL    HW285699   1.158  14.154  12.299
61268SOL     OW85700   9.376  12.474  10.782
61268SOL    HW185701   9.455  12.431  10.815
61268SOL    HW285702   9.329  12.501  10.861
61269SOL     OW85703   8.020  10.183   1.844
61269SOL    HW185704   7.973  10.238   1.782
61269SOL    HW285705   8.070  10.122   1.789
61270SOL     OW85706  14.389   3.378   8.030
61270SOL    HW185707  14.459   3.328   7.988
61270SOL    HW285708  14.431   3.459   8.059
61271SOL     OW85709   5.195   3.780  12.818
61271SOL    HW185710   5.207   3.821  12.733
61271SOL    HW285711   5.258   3.708  12.819
61272SOL     OW85712  11.213   6.256  10.393
61272SOL    HW185713  11.232   6.284  10.482
61272SOL    HW285714  11.289   6.284  10.342
61273SOL     OW85715   2.972   8.336  10.283
61273SOL    HW185716   2.917   8.259  10.267
61273SOL    HW285717   2.958   8.357  10.375
61274SOL     OW85718  12.440  13.014  12.171
61274SOL    HW185719  12.441  13.105  12.200
61274SOL    HW285720  12.448  12.963  12.251
61275SOL     OW85721  14.269  13.506  13.393
61275SOL    HW185722  14.294  13.585  13.345
61275SOL    HW285723  14.174  13.513  13.404
61276SOL     OW85724   6.053  10.249   9.214
61276SOL    HW185725   5.967  10.210   9.230
61276SOL    HW285726   6.107  10.176   9.184
61277SOL     OW85727   8.849  12.007  14.507
61277SOL    HW185728   8.827  11.988  14.598
61277SOL    HW285729   8.790  12.077  14.482
61278SOL     OW85730   3.530   5.229   7.473
61278SOL    HW185731   3.525   5.138   7.504
61278SOL    HW285732   3.533   5.222   7.378
61279SOL     OW85733  13.640   2.717  12.214
61279SOL    HW185734  13.709   2.668  12.169
61279SOL    HW285735  13.681   2.800  12.238
61280SOL     OW85736   9.897   0.527   7.990
61280SOL    HW185737   9.821   0.553   8.042
61280SOL    HW285738   9.952   0.479   8.051
61281SOL     OW85739   9.905   4.913   0.989
61281SOL    HW185740   9.999   4.901   1.005
61281SOL    HW285741   9.896   5.007   0.970
61282SOL     OW85742   6.669  10.529   5.420
61282SOL    HW185743   6.591  10.564   5.377
61282SOL    HW285744   6.635  10.461   5.479
61283SOL     OW85745   3.250   2.671  11.362
61283SOL    HW185746   3.339   2.644  11.386
61283SOL    HW285747   3.259   2.763  11.337
61284SOL     OW85748  10.178  12.890  11.967
61284SOL    HW185749  10.197  12.840  11.887
61284SOL    HW285750  10.264  12.909  12.004
61285SOL     OW85751   5.860  10.389  10.924
61285SOL    HW185752   5.786  10.448  10.938
61285SOL    HW285753   5.933  10.446  10.901
61286SOL     OW85754   8.192   5.786   8.339
61286SOL    HW185755   8.278   5.768   8.377
61286SOL    HW285756   8.194   5.879   8.319
61287SOL     OW85757  10.759   0.619   9.333
61287SOL    HW185758  10.725   0.546   9.282
61287SOL    HW285759  10.725   0.604   9.421
61288SOL     OW85760  12.159   8.380   2.971
61288SOL    HW185761  12.135   8.440   2.901
61288SOL    HW285762  12.211   8.312   2.928
61289SOL     OW85763   6.364  13.809   0.593
61289SOL    HW185764   6.458  13.820   0.574
61289SOL    HW285765   6.350  13.857   0.675
61290SOL     OW85766  12.872   6.744  13.116
61290SOL    HW185767  12.912   6.658  13.105
61290SOL    HW285768  12.931   6.803  13.070
61291SOL     OW85769   6.662   5.120  10.011
61291SOL    HW185770   6.645   5.148  10.101
61291SOL    HW285771   6.627   5.191   9.957
61292SOL     OW85772  13.989   1.517   5.069
61292SOL    HW185773  14.035   1.434   5.060
61292SOL    HW285774  14.058   1.583   5.069
61293SOL     OW85775  13.911   3.073  12.648
61293SOL    HW185776  13.990   3.093  12.698
61293SOL    HW285777  13.941   3.014  12.579
61294SOL     OW85778   4.745   4.018   6.772
61294SOL    HW185779   4.734   3.943   6.830
61294SOL    HW285780   4.709   4.092   6.821
61295SOL     OW85781   6.912   9.103   3.521
61295SOL    HW185782   6.949   9.030   3.472
61295SOL    HW285783   6.975   9.174   3.509
61296SOL     OW85784   5.520   6.121  10.359
61296SOL    HW185785   5.511   6.196  10.418
61296SOL    HW285786   5.595   6.073  10.395
61297SOL     OW85787   4.847   5.970  11.341
61297SOL    HW185788   4.838   5.925  11.257
61297SOL    HW285789   4.920   5.926  11.385
61298SOL     OW85790   1.773   4.130  13.374
61298SOL    HW185791   1.840   4.115  13.307
61298SOL    HW285792   1.721   4.204  13.339
61299SOL     OW85793   8.523   9.360   6.687
61299SOL    HW185794   8.464   9.431   6.662
61299SOL    HW285795   8.489   9.283   6.642
61300SOL     OW85796   6.225   4.223   3.206
61300SOL    HW185797   6.259   4.284   3.271
61300SOL    HW285798   6.160   4.274   3.158
61301SOL     OW85799  11.412  14.772   6.795
61301SOL    HW185800  11.463  14.732   6.724
61301SOL    HW285801  11.370  14.848   6.754
61302SOL     OW85802   7.314  10.971   4.107
61302SOL    HW185803   7.305  11.046   4.167
61302SOL    HW285804   7.225  10.935   4.100
61303SOL     OW85805   7.058   6.317  11.935
61303SOL    HW185806   7.085   6.226  11.923
61303SOL    HW285807   7.115   6.349  12.005
61304SOL     OW85808  14.480   5.962  14.456
61304SOL    HW185809  14.509   5.954  14.365
61304SOL    HW285810  14.392   5.999  14.450
61305SOL     OW85811   6.112   6.242  14.076
61305SOL    HW185812   6.027   6.275  14.047
61305SOL    HW285813   6.159   6.320  14.104
61306SOL     OW85814   2.230   6.907   0.637
61306SOL    HW185815   2.187   6.992   0.649
61306SOL    HW285816   2.159   6.843   0.644
61307SOL     OW85817   3.863   0.938   8.583
61307SOL    HW185818   3.906   0.861   8.546
61307SOL    HW285819   3.772   0.930   8.556
61308SOL     OW85820   0.643   6.708   5.056
61308SOL    HW185821   0.714   6.772   5.063
61308SOL    HW285822   0.662   6.643   5.124
61309SOL     OW85823   3.830   5.779   1.260
61309SOL    HW185824   3.865   5.763   1.172
61309SOL    HW285825   3.868   5.863   1.285
61310SOL     OW85826   5.676   4.032   1.586
61310SOL    HW185827   5.712   4.120   1.576
61310SOL    HW285828   5.682   4.013   1.679
61311SOL     OW85829   3.824   5.456  11.700
61311SOL    HW185830   3.903   5.498  11.734
61311SOL    HW285831   3.856   5.384  11.646
61312SOL     OW85832   1.093   1.274   8.263
61312SOL    HW185833   1.034   1.215   8.310
61312SOL    HW285834   1.089   1.244   8.172
61313SOL     OW85835   5.480   8.411  10.517
61313SOL    HW185836   5.520   8.333  10.556
61313SOL    HW285837   5.394   8.382  10.488
61314SOL     OW85838   1.102   9.470   7.382
61314SOL    HW185839   1.094   9.557   7.419
61314SOL    HW285840   1.040   9.416   7.432
61315SOL     OW85841   7.680   3.572   4.005
61315SOL    HW185842   7.601   3.548   3.957
61315SOL    HW285843   7.748   3.580   3.938
61316SOL     OW85844   2.760   8.358   2.867
61316SOL    HW185845   2.774   8.418   2.940
61316SOL    HW285846   2.752   8.414   2.791
61317SOL     OW85847  12.890   4.850   1.563
61317SOL    HW185848  12.807   4.888   1.533
61317SOL    HW285849  12.941   4.838   1.483
61318SOL     OW85850   8.771  11.067  13.066
61318SOL    HW185851   8.864  11.086  13.055
61318SOL    HW285852   8.742  11.042  12.978
61319SOL     OW85853  12.051  13.819   8.781
61319SOL    HW185854  11.961  13.847   8.800
61319SOL    HW285855  12.099  13.901   8.768
61320SOL     OW85856  13.081  14.679   4.499
61320SOL    HW185857  13.042  14.751   4.448
61320SOL    HW285858  13.167  14.712   4.525
61321SOL     OW85859  11.652  12.572   8.575
61321SOL    HW185860  11.586  12.555   8.508
61321SOL    HW285861  11.612  12.635   8.634
61322SOL     OW85862   9.649  12.009   5.118
61322SOL    HW185863   9.648  12.024   5.024
61322SOL    HW285864   9.588  12.074   5.153
61323SOL     OW85865   5.271   2.660   9.654
61323SOL    HW185866   5.287   2.570   9.625
61323SOL    HW285867   5.348   2.708   9.625
61324SOL     OW85868   6.584  14.507  12.250
61324SOL    HW185869   6.515  14.442  12.242
61324SOL    HW285870   6.585  14.552  12.166
61325SOL     OW85871  11.258   6.041   9.550
61325SOL    HW185872  11.268   5.954   9.512
61325SOL    HW285873  11.305   6.036   9.634
61326SOL     OW85874   1.575   0.405   6.844
61326SOL    HW185875   1.651   0.458   6.824
61326SOL    HW285876   1.602   0.350   6.918
61327SOL     OW85877  13.787  14.096   4.606
61327SOL    HW185878  13.878  14.071   4.622
61327SOL    HW285879  13.772  14.075   4.514
61328SOL     OW85880   0.407  12.748  12.769
61328SOL    HW185881   0.427  12.732  12.677
61328SOL    HW285882   0.487  12.786  12.805
61329SOL     OW85883  10.994  12.320   6.847
61329SOL    HW185884  10.916  12.308   6.793
61329SOL    HW285885  11.040  12.237   6.843
61330SOL     OW85886  10.317   4.161  13.079
61330SOL    HW185887  10.268   4.203  13.150
61330SOL    HW285888  10.402   4.141  13.116
61331SOL     OW85889   9.726   8.950   5.417
61331SOL    HW185890   9.724   9.008   5.493
61331SOL    HW285891   9.734   8.862   5.454
61332SOL     OW85892  10.898   6.283   8.627
61332SOL    HW185893  10.925   6.373   8.645
61332SOL    HW285894  10.893   6.242   8.713
61333SOL     OW85895   9.348  12.510   6.564
61333SOL    HW185896   9.366  12.489   6.656
61333SOL    HW285897   9.348  12.426   6.520
61334SOL     OW85898   8.173   6.017   4.040
61334SOL    HW185899   8.113   5.966   4.094
61334SOL    HW285900   8.131   6.020   3.954
61335SOL     OW85901   7.144   4.013  11.675
61335SOL    HW185902   7.102   4.094  11.704
61335SOL    HW285903   7.237   4.029  11.686
61336SOL     OW85904   3.831   9.002  13.099
61336SOL    HW185905   3.877   9.086  13.090
61336SOL    HW285906   3.895   8.937  13.070
61337SOL     OW85907   3.928   6.209   7.344
61337SOL    HW185908   3.928   6.204   7.439
61337SOL    HW285909   3.993   6.144   7.317
61338SOL     OW85910   3.319   4.362   7.391
61338SOL    HW185911   3.332   4.301   7.463
61338SOL    HW285912   3.328   4.308   7.312
61339SOL     OW85913   8.330   0.432  11.193
61339SOL    HW185914   8.239   0.414  11.218
61339SOL    HW285915   8.381   0.407  11.270
61340SOL     OW85916   5.889  10.713   7.966
61340SOL    HW185917   5.804  10.683   7.996
61340SOL    HW285918   5.947  10.701   8.041
61341SOL     OW85919   7.539  14.482   6.039
61341SOL    HW185920   7.516  14.549   5.974
61341SOL    HW285921   7.628  14.455   6.016
61342SOL     OW85922   1.067   3.168  14.698
61342SOL    HW185923   1.014   3.187  14.620
61342SOL    HW285924   1.157   3.185  14.670
61343SOL     OW85925   7.272  14.019   0.942
61343SOL    HW185926   7.299  14.110   0.956
61343SOL    HW285927   7.177  14.023   0.939
61344SOL     OW85928   9.156  10.358   1.604
61344SOL    HW185929   9.206  10.439   1.612
61344SOL    HW285930   9.078  10.373   1.657
61345SOL     OW85931   5.581  13.217   3.768
61345SOL    HW185932   5.550  13.139   3.813
61345SOL    HW285933   5.647  13.254   3.826
61346SOL     OW85934   2.574   6.028  11.005
61346SOL    HW185935   2.580   6.046  11.098
61346SOL    HW285936   2.482   6.046  10.982
61347SOL     OW85937  14.681  14.700  14.060
61347SOL    HW185938  14.646  14.673  13.976
61347SOL    HW285939  14.759  14.752  14.039
61348SOL     OW85940  11.894   2.021   3.275
61348SOL    HW185941  11.887   1.928   3.251
61348SOL    HW285942  11.839   2.066   3.211
61349SOL     OW85943   1.307  11.356  11.417
61349SOL    HW185944   1.290  11.446  11.446
61349SOL    HW285945   1.309  11.305  11.498
61350SOL     OW85946  12.383   9.921  10.939
61350SOL    HW185947  12.418   9.941  10.852
61350SOL    HW285948  12.356   9.830  10.933
61351SOL     OW85949   9.212   0.596  12.632
61351SOL    HW185950   9.167   0.513  12.616
61351SOL    HW285951   9.293   0.589  12.583
61352SOL     OW85952   8.417  10.629  14.246
61352SOL    HW185953   8.451  10.710  14.210
61352SOL    HW285954   8.322  10.637  14.238
61353SOL     OW85955   1.791   5.123   1.967
61353SOL    HW185956   1.709   5.082   1.994
61353SOL    HW285957   1.818   5.175   2.043
61354SOL     OW85958   1.752   9.703   2.399
61354SOL    HW185959   1.722   9.690   2.489
61354SOL    HW285960   1.846   9.721   2.408
61355SOL     OW85961   5.095  13.236  12.111
61355SOL    HW185962   5.162  13.243  12.179
61355SOL    HW285963   5.145  13.240  12.029
61356SOL     OW85964   7.900  13.581   1.383
61356SOL    HW185965   7.972  13.590   1.320
61356SOL    HW285966   7.843  13.514   1.345
61357SOL     OW85967  11.608   5.040   6.538
61357SOL    HW185968  11.631   5.067   6.628
61357SOL    HW285969  11.654   4.957   6.526
61358SOL     OW85970   4.287   3.809  14.149
61358SOL    HW185971   4.291   3.808  14.053
61358SOL    HW285972   4.251   3.895  14.170
61359SOL     OW85973   2.828   4.333   4.934
61359SOL    HW185974   2.752   4.391   4.934
61359SOL    HW285975   2.802   4.260   4.989
61360SOL     OW85976   4.063   8.175   4.696
61360SOL    HW185977   4.054   8.098   4.640
61360SOL    HW285978   3.974   8.196   4.723
61361SOL     OW85979   1.592   0.131  13.027
61361SOL    HW185980   1.545   0.093  12.953
61361SOL    HW285981   1.538   0.111  13.103
61362SOL     OW85982   1.315   1.365   4.727
61362SOL    HW185983   1.316   1.409   4.642
61362SOL    HW285984   1.393   1.398   4.771
61363SOL     OW85985  12.087   9.527  11.285
61363SOL    HW185986  12.166   9.551  11.238
61363SOL    HW285987  12.053   9.451  11.238
61364SOL     OW85988   9.975  13.622   5.257
61364SOL    HW185989   9.958  13.665   5.173
61364SOL    HW285990   9.890  13.623   5.302
61365SOL     OW85991   5.986  14.241  11.421
61365SOL    HW185992   6.073  14.270  11.448
61365SOL    HW285993   5.927  14.278  11.486
61366SOL     OW85994   6.270   0.942   5.416
61366SOL    HW185995   6.329   0.952   5.490
61366SOL    HW285996   6.234   0.854   5.426
61367SOL     OW85997  14.685   5.541   6.639
61367SOL    HW185998  14.682   5.455   6.596
61367SOL    HW285999  14.778   5.563   6.641
61368SOL     OW86000   8.802   8.547  11.691
61368SOL    HW186001   8.818   8.607  11.618
61368SOL    HW286002   8.710   8.523  11.684
61369SOL     OW86003  11.773  11.663   3.524
61369SOL    HW186004  11.770  11.574   3.559
61369SOL    HW286005  11.864  11.675   3.495
61370SOL     OW86006   9.874   9.219   4.898
61370SOL    HW186007   9.804   9.215   4.833
61370SOL    HW286008   9.878   9.130   4.933
61371SOL     OW86009   2.724   7.354   1.362
61371SOL    HW186010   2.810   7.351   1.321
61371SOL    HW286011   2.709   7.446   1.380
61372SOL     OW86012   7.429  10.267   0.520
61372SOL    HW186013   7.388  10.290   0.436
61372SOL    HW286014   7.365  10.294   0.586
61373SOL     OW86015  14.083   3.541   1.160
61373SOL    HW186016  14.069   3.452   1.125
61373SOL    HW286017  14.166   3.535   1.208
61374SOL     OW86018  12.088   5.804  13.739
61374SOL    HW186019  11.993   5.798  13.745
61374SOL    HW286020  12.104   5.854  13.659
61375SOL     OW86021   6.724   4.454   4.639
61375SOL    HW186022   6.731   4.539   4.595
61375SOL    HW286023   6.631   4.444   4.657
61376SOL     OW86024  13.523   1.362   9.524
61376SOL    HW186025  13.452   1.395   9.468
61376SOL    HW286026  13.561   1.441   9.563
61377SOL     OW86027   1.424   6.316   3.655
61377SOL    HW186028   1.372   6.298   3.734
61377SOL    HW286029   1.508   6.272   3.672
61378SOL     OW86030   6.503  12.442   8.460
61378SOL    HW186031   6.459  12.377   8.406
61378SOL    HW286032   6.432  12.488   8.506
61379SOL     OW86033  11.300   5.712   9.193
61379SOL    HW186034  11.341   5.756   9.267
61379SOL    HW286035  11.234   5.774   9.161
61380SOL     OW86036   4.273   5.484   1.820
61380SOL    HW186037   4.259   5.460   1.911
61380SOL    HW286038   4.209   5.432   1.771
61381SOL     OW86039   2.648   8.118  13.881
61381SOL    HW186040   2.668   8.176  13.807
61381SOL    HW286041   2.622   8.035  13.841
61382SOL     OW86042   9.531  10.395   3.088
61382SOL    HW186043   9.452  10.418   3.136
61382SOL    HW286044   9.519  10.433   3.001
61383SOL     OW86045   6.225   7.609   4.527
61383SOL    HW186046   6.319   7.624   4.536
61383SOL    HW286047   6.212   7.588   4.435
61384SOL     OW86048  11.304   2.635   7.902
61384SOL    HW186049  11.237   2.586   7.855
61384SOL    HW286050  11.254   2.689   7.964
61385SOL     OW86051  11.477   4.718  13.513
61385SOL    HW186052  11.475   4.771  13.593
61385SOL    HW286053  11.424   4.767  13.450
61386SOL     OW86054   1.953   8.320   2.360
61386SOL    HW186055   1.919   8.329   2.450
61386SOL    HW286056   1.877   8.294   2.308
61387SOL     OW86057   6.558  13.361   2.750
61387SOL    HW186058   6.566  13.297   2.820
61387SOL    HW286059   6.647  13.373   2.718
61388SOL     OW86060   5.020   0.368  13.383
61388SOL    HW186061   4.948   0.424  13.411
61388SOL    HW286062   4.979   0.303  13.325
61389SOL     OW86063   7.538  10.662   0.413
61389SOL    HW186064   7.510  10.752   0.403
61389SOL    HW286065   7.460  10.610   0.394
61390SOL     OW86066   3.704   8.873   0.107
61390SOL    HW186067   3.612   8.852   0.122
61390SOL    HW286068   3.702   8.949   0.049
61391SOL     OW86069   5.049   0.530  11.726
61391SOL    HW186070   5.143   0.520  11.715
61391SOL    HW286071   5.034   0.624  11.723
61392SOL     OW86072   8.079   8.393  12.773
61392SOL    HW186073   8.008   8.424  12.830
61392SOL    HW286074   8.126   8.329  12.825
61393SOL     OW86075   8.884   2.671   6.712
61393SOL    HW186076   8.938   2.622   6.650
61393SOL    HW286077   8.921   2.650   6.798
61394SOL     OW86078  11.819  10.611   0.572
61394SOL    HW186079  11.731  10.590   0.604
61394SOL    HW286080  11.878  10.566   0.634
61395SOL     OW86081   9.674  13.842   9.070
61395SOL    HW186082   9.685  13.760   9.021
61395SOL    HW286083   9.580  13.848   9.086
61396SOL     OW86084   1.214   7.350   2.883
61396SOL    HW186085   1.306   7.324   2.891
61396SOL    HW286086   1.198   7.404   2.961
61397SOL     OW86087   0.250   6.795   9.062
61397SOL    HW186088   0.157   6.784   9.081
61397SOL    HW286089   0.262   6.890   9.055
61398SOL     OW86090  13.307   0.106   8.105
61398SOL    HW186091  13.212   0.090   8.105
61398SOL    HW286092  13.342   0.040   8.165
61399SOL     OW86093   2.809  13.715   4.548
61399SOL    HW186094   2.721  13.697   4.582
61399SOL    HW286095   2.844  13.783   4.606
61400SOL     OW86096   3.658   2.185   1.175
61400SOL    HW186097   3.715   2.227   1.110
61400SOL    HW286098   3.577   2.168   1.127
61401SOL     OW86099   9.612   0.781   0.105
61401SOL    HW186100   9.587   0.870   0.130
61401SOL    HW286101   9.706   0.778   0.122
61402SOL     OW86102   6.542   6.740  10.644
61402SOL    HW186103   6.476   6.726  10.712
61402SOL    HW286104   6.580   6.825  10.664
61403SOL     OW86105  12.106   1.655  11.751
61403SOL    HW186106  12.147   1.659  11.665
61403SOL    HW286107  12.014   1.675  11.734
61404SOL     OW86108  12.843  14.099   9.886
61404SOL    HW186109  12.834  14.004   9.897
61404SOL    HW286110  12.753  14.131   9.891
61405SOL     OW86111   6.192   8.652   6.459
61405SOL    HW186112   6.255   8.639   6.388
61405SOL    HW286113   6.230   8.607   6.533
61406SOL     OW86114   1.659   1.757   4.823
61406SOL    HW186115   1.595   1.765   4.752
61406SOL    HW286116   1.707   1.840   4.821
61407SOL     OW86117   0.004   8.560  12.280
61407SOL    HW186118  14.855   8.648  12.310
61407SOL    HW286119   0.064   8.572  12.206
61408SOL     OW86120   0.906   2.075  12.215
61408SOL    HW186121   0.816   2.046  12.206
61408SOL    HW286122   0.908   2.124  12.297
61409SOL     OW86123   8.413   0.539   2.917
61409SOL    HW186124   8.507   0.526   2.922
61409SOL    HW286125   8.392   0.531   2.824
61410SOL     OW86126   3.606   7.592  14.440
61410SOL    HW186127   3.551   7.637  14.505
61410SOL    HW286128   3.590   7.640  14.359
61411SOL     OW86129   6.077   7.813   8.033
61411SOL    HW186130   6.091   7.907   8.045
61411SOL    HW286131   6.154   7.782   7.986
61412SOL     OW86132  13.739  10.161  11.303
61412SOL    HW186133  13.702  10.245  11.331
61412SOL    HW286134  13.773  10.122  11.383
61413SOL     OW86135   6.602   3.051  10.833
61413SOL    HW186136   6.657   3.004  10.770
61413SOL    HW286137   6.601   2.995  10.911
61414SOL     OW86138  13.721   6.689   4.872
61414SOL    HW186139  13.713   6.776   4.835
61414SOL    HW286140  13.796   6.695   4.932
61415SOL     OW86141   9.441   5.333   6.697
61415SOL    HW186142   9.366   5.273   6.696
61415SOL    HW286143   9.511   5.284   6.739
61416SOL     OW86144   0.619  13.850   6.049
61416SOL    HW186145   0.596  13.932   6.092
61416SOL    HW286146   0.650  13.793   6.119
61417SOL     OW86147   4.311   8.920  11.978
61417SOL    HW186148   4.320   8.861  11.903
61417SOL    HW286149   4.291   9.005  11.940
61418SOL     OW86150   6.548   0.507  11.786
61418SOL    HW186151   6.497   0.484  11.708
61418SOL    HW286152   6.504   0.463  11.858
61419SOL     OW86153   8.318  12.275  10.212
61419SOL    HW186154   8.267  12.196  10.193
61419SOL    HW286155   8.406  12.255  10.179
61420SOL     OW86156   9.756   3.148  12.249
61420SOL    HW186157   9.834   3.162  12.303
61420SOL    HW286158   9.726   3.237  12.228
61421SOL     OW86159   3.355   6.881  12.872
61421SOL    HW186160   3.360   6.975  12.892
61421SOL    HW286161   3.302   6.844  12.942
61422SOL     OW86162   9.162  11.721  14.539
61422SOL    HW186163   9.175  11.816  14.535
61422SOL    HW286164   9.130  11.698  14.452
61423SOL     OW86165   6.584  14.172   6.862
61423SOL    HW186166   6.508  14.115   6.871
61423SOL    HW286167   6.658  14.113   6.850
61424SOL     OW86168   9.780  14.250   0.520
61424SOL    HW186169   9.734  14.319   0.472
61424SOL    HW286170   9.715  14.181   0.529
61425SOL     OW86171   8.085   8.138   4.295
61425SOL    HW186172   8.081   8.052   4.256
61425SOL    HW286173   8.033   8.194   4.238
61426SOL     OW86174  13.362  11.238   5.702
61426SOL    HW186175  13.332  11.186   5.776
61426SOL    HW286176  13.441  11.282   5.733
61427SOL     OW86177   6.878   7.578   5.196
61427SOL    HW186178   6.879   7.537   5.282
61427SOL    HW286179   6.920   7.514   5.138
61428SOL     OW86180   0.011  13.055  14.848
61428SOL    HW186181   0.085  12.994  14.851
61428SOL    HW286182   0.001  13.077  14.756
61429SOL     OW86183   5.899   7.904   0.191
61429SOL    HW186184   5.937   7.930   0.274
61429SOL    HW286185   5.806   7.892   0.210
61430SOL     OW86186  13.890  13.948   9.157
61430SOL    HW186187  13.815  13.996   9.123
61430SOL    HW286188  13.873  13.856   9.134
61431SOL     OW86189   3.072  13.222   2.705
61431SOL    HW186190   2.996  13.259   2.750
61431SOL    HW286191   3.120  13.174   2.774
61432SOL     OW86192  10.405  13.781  12.322
61432SOL    HW186193  10.467  13.833  12.270
61432SOL    HW286194  10.395  13.700  12.272
61433SOL     OW86195   4.720   6.994   3.922
61433SOL    HW186196   4.642   6.968   3.874
61433SOL    HW286197   4.715   6.947   4.005
61434SOL     OW86198   2.438   3.060   7.807
61434SOL    HW186199   2.525   3.095   7.828
61434SOL    HW286200   2.378   3.131   7.830
61435SOL     OW86201   1.214   3.140   9.232
61435SOL    HW186202   1.196   3.232   9.249
61435SOL    HW286203   1.128   3.102   9.213
61436SOL     OW86204   0.708   8.587   8.902
61436SOL    HW186205   0.770   8.522   8.870
61436SOL    HW286206   0.750   8.623   8.980
61437SOL     OW86207  11.486   2.835   8.791
61437SOL    HW186208  11.436   2.763   8.830
61437SOL    HW286209  11.429   2.868   8.721
61438SOL     OW86210   0.252   6.110  14.190
61438SOL    HW186211   0.231   6.137  14.101
61438SOL    HW286212   0.344   6.083  14.186
61439SOL     OW86213   0.593   0.430   6.018
61439SOL    HW186214   0.596   0.384   5.934
61439SOL    HW286215   0.504   0.415   6.050
61440SOL     OW86216   6.451  11.621   9.488
61440SOL    HW186217   6.358  11.600   9.481
61440SOL    HW286218   6.491  11.541   9.523
61441SOL     OW86219   7.600  14.845   6.337
61441SOL    HW186220   7.512  14.846   6.376
61441SOL    HW286221   7.649  14.782   6.390
61442SOL     OW86222  10.703   5.749   3.369
61442SOL    HW186223  10.642   5.798   3.425
61442SOL    HW286224  10.790   5.776   3.398
61443SOL     OW86225  11.966  14.253  13.946
61443SOL    HW186226  11.955  14.239  13.852
61443SOL    HW286227  12.061  14.259  13.958
61444SOL     OW86228   8.159  12.811   0.363
61444SOL    HW186229   8.149  12.731   0.311
61444SOL    HW286230   8.241  12.799   0.409
61445SOL     OW86231   8.950  11.641  14.001
61445SOL    HW186232   8.906  11.619  13.919
61445SOL    HW286233   8.957  11.737  14.000
61446SOL     OW86234  13.180   4.350   1.156
61446SOL    HW186235  13.103   4.318   1.203
61446SOL    HW286236  13.243   4.277   1.162
61447SOL     OW86237   7.077   5.417  13.632
61447SOL    HW186238   7.121   5.425  13.717
61447SOL    HW286239   7.119   5.341  13.591
61448SOL     OW86240   6.277  12.112   2.866
61448SOL    HW186241   6.262  12.190   2.812
61448SOL    HW286242   6.371  12.095   2.859
61449SOL     OW86243   9.976   2.274   7.517
61449SOL    HW186244  10.021   2.193   7.490
61449SOL    HW286245   9.887   2.264   7.483
61450SOL     OW86246  14.409   0.801   8.942
61450SOL    HW186247  14.457   0.879   8.971
61450SOL    HW286248  14.477   0.734   8.931
61451SOL     OW86249   6.909  12.251   8.832
61451SOL    HW186250   6.868  12.337   8.835
61451SOL    HW286251   6.910  12.222   8.924
61452SOL     OW86252   8.749   7.226   1.229
61452SOL    HW186253   8.843   7.206   1.230
61452SOL    HW286254   8.708   7.147   1.264
61453SOL     OW86255  13.057  10.355   4.265
61453SOL    HW186256  13.059  10.376   4.358
61453SOL    HW286257  13.010  10.428   4.224
61454SOL     OW86258  11.796   2.470  13.575
61454SOL    HW186259  11.780   2.530  13.501
61454SOL    HW286260  11.780   2.383  13.538
61455SOL     OW86261   2.980   8.714   3.867
61455SOL    HW186262   3.004   8.643   3.926
61455SOL    HW286263   3.038   8.787   3.892
61456SOL     OW86264  10.542  11.785  10.706
61456SOL    HW186265  10.626  11.796  10.750
61456SOL    HW286266  10.477  11.788  10.776
61457SOL     OW86267   6.334   3.218   4.568
61457SOL    HW186268   6.271   3.286   4.591
61457SOL    HW286269   6.378   3.198   4.651
61458SOL     OW86270   2.448   7.805  10.044
61458SOL    HW186271   2.473   7.759   9.964
61458SOL    HW286272   2.522   7.792  10.104
61459SOL     OW86273   7.891   0.915   9.266
61459SOL    HW186274   7.927   1.003   9.282
61459SOL    HW286275   7.871   0.914   9.172
61460SOL     OW86276   8.981   6.135   1.854
61460SOL    HW186277   8.913   6.130   1.921
61460SOL    HW286278   9.061   6.111   1.899
61461SOL     OW86279   2.046   0.778   2.880
61461SOL    HW186280   2.063   0.841   2.811
61461SOL    HW286281   2.033   0.695   2.835
61462SOL     OW86282  11.694  13.110  11.172
61462SOL    HW186283  11.669  13.095  11.263
61462SOL    HW286284  11.759  13.180  11.176
61463SOL     OW86285   0.098   9.596  13.875
61463SOL    HW186286   0.135   9.616  13.960
61463SOL    HW286287   0.083   9.501  13.877
61464SOL     OW86288   9.833  11.625   2.906
61464SOL    HW186289   9.770  11.566   2.864
61464SOL    HW286290   9.908  11.626   2.847
61465SOL     OW86291   5.232  12.267   6.641
61465SOL    HW186292   5.291  12.336   6.611
61465SOL    HW286293   5.290  12.202   6.680
61466SOL     OW86294   6.206   5.840  12.743
61466SOL    HW186295   6.239   5.787  12.817
61466SOL    HW286296   6.192   5.927  12.781
61467SOL     OW86297   2.361   8.172  11.502
61467SOL    HW186298   2.340   8.092  11.453
61467SOL    HW286299   2.275   8.207  11.528
61468SOL     OW86300  11.871  11.835   6.931
61468SOL    HW186301  11.930  11.762   6.950
61468SOL    HW286302  11.880  11.893   7.008
61469SOL     OW86303   4.921   0.366   9.274
61469SOL    HW186304   4.834   0.404   9.288
61469SOL    HW286305   4.958   0.356   9.362
61470SOL     OW86306   0.844  12.053   8.106
61470SOL    HW186307   0.897  12.020   8.178
61470SOL    HW286308   0.790  12.122   8.144
61471SOL     OW86309   1.032  10.620   0.838
61471SOL    HW186310   1.068  10.598   0.752
61471SOL    HW286311   0.971  10.549   0.857
61472SOL     OW86312  12.095   4.102   8.799
61472SOL    HW186313  12.173   4.085   8.746
61472SOL    HW286314  12.066   4.189   8.771
61473SOL     OW86315   4.224  10.437   6.584
61473SOL    HW186316   4.223  10.508   6.649
61473SOL    HW286317   4.201  10.358   6.634
61474SOL     OW86318   7.347   1.760  10.417
61474SOL    HW186319   7.265   1.778  10.372
61474SOL    HW286320   7.320   1.717  10.498
61475SOL     OW86321   4.211   3.457  11.095
61475SOL    HW186322   4.146   3.436  11.162
61475SOL    HW286323   4.264   3.526  11.134
61476SOL     OW86324  11.938   7.995   1.865
61476SOL    HW186325  11.945   8.018   1.772
61476SOL    HW286326  11.857   8.036   1.894
61477SOL     OW86327   6.670  10.662   7.047
61477SOL    HW186328   6.754  10.637   7.085
61477SOL    HW286329   6.640  10.584   7.000
61478SOL     OW86330   0.127   6.276   2.223
61478SOL    HW186331   0.132   6.186   2.255
61478SOL    HW286332   0.217   6.308   2.229
61479SOL     OW86333  10.768  13.597  13.718
61479SOL    HW186334  10.732  13.686  13.720
61479SOL    HW286335  10.832  13.598  13.647
61480SOL     OW86336   9.981   6.955  12.671
61480SOL    HW186337   9.912   6.909  12.623
61480SOL    HW286338   9.969   7.047  12.648
61481SOL     OW86339   4.918   9.968   7.502
61481SOL    HW186340   4.879  10.055   7.495
61481SOL    HW286341   4.967   9.957   7.420
61482SOL     OW86342   8.331   8.969   3.558
61482SOL    HW186343   8.241   8.944   3.581
61482SOL    HW286344   8.385   8.930   3.627
61483SOL     OW86345  11.268   8.793   8.814
61483SOL    HW186346  11.278   8.806   8.909
61483SOL    HW286347  11.254   8.699   8.804
61484SOL     OW86348   5.507   6.224  13.926
61484SOL    HW186349   5.414   6.204  13.939
61484SOL    HW286350   5.546   6.211  14.012
61485SOL     OW86351   0.253  12.603   1.370
61485SOL    HW186352   0.241  12.624   1.277
61485SOL    HW286353   0.195  12.664   1.416
61486SOL     OW86354   2.975   0.355  14.851
61486SOL    HW186355   2.903   0.311  14.806
61486SOL    HW286356   2.981   0.312   0.065
61487SOL     OW86357   4.460   6.427  12.815
61487SOL    HW186358   4.519   6.366  12.770
61487SOL    HW286359   4.511   6.508  12.822
61488SOL     OW86360   4.310  11.834  14.267
61488SOL    HW186361   4.390  11.878  14.235
61488SOL    HW286362   4.295  11.764  14.204
61489SOL     OW86363  13.910  13.227   9.028
61489SOL    HW186364  13.983  13.185   9.074
61489SOL    HW286365  13.838  13.226   9.092
61490SOL     OW86366  14.059   4.417  14.232
61490SOL    HW186367  13.965   4.400  14.240
61490SOL    HW286368  14.084   4.375  14.150
61491SOL     OW86369  12.288   3.413  10.753
61491SOL    HW186370  12.361   3.387  10.697
61491SOL    HW286371  12.249   3.488  10.708
61492SOL     OW86372  12.846   2.072   6.821
61492SOL    HW186373  12.854   2.147   6.763
61492SOL    HW286374  12.826   2.110   6.907
61493SOL     OW86375  10.907   6.891   0.639
61493SOL    HW186376  10.864   6.872   0.555
61493SOL    HW286377  10.931   6.984   0.633
61494SOL     OW86378   7.431   8.012  11.257
61494SOL    HW186379   7.510   8.030  11.206
61494SOL    HW286380   7.424   8.086  11.317
61495SOL     OW86381  10.969  14.540   5.746
61495SOL    HW186382  10.949  14.525   5.838
61495SOL    HW286383  10.894  14.506   5.698
61496SOL     OW86384  14.121  10.480   7.765
61496SOL    HW186385  14.157  10.405   7.717
61496SOL    HW286386  14.027  10.460   7.772
61497SOL     OW86387  11.179   8.773  12.224
61497SOL    HW186388  11.239   8.809  12.290
61497SOL    HW286389  11.200   8.822  12.145
61498SOL     OW86390  13.342   0.756  11.483
61498SOL    HW186391  13.313   0.703  11.409
61498SOL    HW286392  13.265   0.808  11.507
61499SOL     OW86393   3.623  11.598   2.440
61499SOL    HW186394   3.674  11.680   2.443
61499SOL    HW286395   3.537  11.625   2.409
61500SOL     OW86396   3.159  11.652  11.442
61500SOL    HW186397   3.127  11.575  11.395
61500SOL    HW286398   3.084  11.682  11.493
61501SOL     OW86399  11.877  12.482  10.911
61501SOL    HW186400  11.835  12.451  10.991
61501SOL    HW286401  11.921  12.563  10.937
61502SOL     OW86402   3.276  11.625   8.881
61502SOL    HW186403   3.248  11.580   8.802
61502SOL    HW286404   3.365  11.594   8.896
61503SOL     OW86405   3.546   7.375   5.991
61503SOL    HW186406   3.619   7.341   6.043
61503SOL    HW286407   3.493   7.297   5.972
61504SOL     OW86408   7.749  10.980   7.819
61504SOL    HW186409   7.812  11.020   7.759
61504SOL    HW286410   7.718  10.902   7.773
61505SOL     OW86411   2.486   4.952   7.481
61505SOL    HW186412   2.524   4.985   7.562
61505SOL    HW286413   2.549   4.886   7.450
61506SOL     OW86414  13.611   5.101   0.469
61506SOL    HW186415  13.522   5.112   0.435
61506SOL    HW286416  13.664   5.162   0.417
61507SOL     OW86417  12.293  10.025   6.215
61507SOL    HW186418  12.344   9.945   6.204
61507SOL    HW286419  12.202   9.998   6.205
61508SOL     OW86420   3.460  12.420   9.608
61508SOL    HW186421   3.487  12.403   9.699
61508SOL    HW286422   3.366  12.437   9.614
61509SOL     OW86423   6.377   9.000  10.605
61509SOL    HW186424   6.340   9.016  10.691
61509SOL    HW286425   6.312   9.035  10.544
61510SOL     OW86426   6.035   1.871   7.565
61510SOL    HW186427   6.123   1.856   7.599
61510SOL    HW286428   6.016   1.793   7.512
61511SOL     OW86429   1.160   5.883   4.903
61511SOL    HW186430   1.145   5.841   4.987
61511SOL    HW286431   1.228   5.831   4.861
61512SOL     OW86432   0.620  11.138   2.460
61512SOL    HW186433   0.532  11.101   2.453
61512SOL    HW286434   0.677  11.073   2.420
61513SOL     OW86435   0.252   1.447   2.988
61513SOL    HW186436   0.255   1.536   3.023
61513SOL    HW286437   0.200   1.398   3.052
61514SOL     OW86438   4.927   3.716   1.756
61514SOL    HW186439   4.868   3.674   1.819
61514SOL    HW286440   4.895   3.687   1.671
61515SOL     OW86441  10.487   1.437  14.019
61515SOL    HW186442  10.508   1.348  13.992
61515SOL    HW286443  10.512   1.492  13.945
61516SOL     OW86444  13.454  10.605   3.210
61516SOL    HW186445  13.407  10.666   3.153
61516SOL    HW286446  13.523  10.658   3.251
61517SOL     OW86447  12.432   1.994  14.650
61517SOL    HW186448  12.381   2.020  14.572
61517SOL    HW286449  12.481   2.073  14.673
61518SOL     OW86450   5.440  11.499   0.476
61518SOL    HW186451   5.480  11.413   0.487
61518SOL    HW286452   5.435  11.512   0.381
61519SOL     OW86453  12.976   5.904   2.491
61519SOL    HW186454  12.933   5.941   2.414
61519SOL    HW286455  12.908   5.904   2.559
61520SOL     OW86456   5.298  14.383   4.474
61520SOL    HW186457   5.229  14.325   4.441
61520SOL    HW286458   5.342  14.331   4.542
61521SOL     OW86459   3.425   0.684   8.287
61521SOL    HW186460   3.457   0.720   8.204
61521SOL    HW286461   3.360   0.618   8.260
61522SOL     OW86462   8.659   3.237   2.449
61522SOL    HW186463   8.680   3.232   2.356
61522SOL    HW286464   8.578   3.186   2.458
61523SOL     OW86465  10.131   0.482   2.881
61523SOL    HW186466  10.075   0.414   2.844
61523SOL    HW286467  10.159   0.447   2.966
61524SOL     OW86468  14.081   8.451  14.103
61524SOL    HW186469  14.101   8.405  14.185
61524SOL    HW286470  14.015   8.395  14.061
61525SOL     OW86471   0.892  13.707   2.926
61525SOL    HW186472   0.941  13.767   2.982
61525SOL    HW286473   0.818  13.679   2.980
61526SOL     OW86474   2.269   5.311  10.429
61526SOL    HW186475   2.302   5.287  10.516
61526SOL    HW286476   2.330   5.376  10.397
61527SOL     OW86477   6.190   1.695   9.587
61527SOL    HW186478   6.277   1.676   9.623
61527SOL    HW286479   6.142   1.613   9.597
61528SOL     OW86480   3.789   7.572  14.824
61528SOL    HW186481   3.719   7.626  14.788
61528SOL    HW286482   3.843   7.550  14.748
61529SOL     OW86483  10.000   7.964   0.560
61529SOL    HW186484  10.095   7.970   0.571
61529SOL    HW286485   9.968   7.935   0.646
61530SOL     OW86486  13.999   8.559   0.586
61530SOL    HW186487  13.991   8.495   0.656
61530SOL    HW286488  14.038   8.511   0.513
61531SOL     OW86489   5.150   2.737   4.734
61531SOL    HW186490   5.109   2.656   4.703
61531SOL    HW286491   5.209   2.710   4.804
61532SOL     OW86492   6.434   0.877  14.471
61532SOL    HW186493   6.401   0.901  14.385
61532SOL    HW286494   6.357   0.842  14.517
61533SOL     OW86495   1.094   7.000  11.809
61533SOL    HW186496   1.061   6.910  11.809
61533SOL    HW286497   1.103   7.022  11.716
61534SOL     OW86498   7.776   2.202  12.880
61534SOL    HW186499   7.835   2.136  12.844
61534SOL    HW286500   7.751   2.255  12.804
61535SOL     OW86501   4.762  11.077  12.074
61535SOL    HW186502   4.784  11.090  12.166
61535SOL    HW286503   4.746  11.165  12.041
61536SOL     OW86504  12.269   5.466   3.541
61536SOL    HW186505  12.300   5.542   3.591
61536SOL    HW286506  12.314   5.473   3.457
61537SOL     OW86507  10.293   8.700   6.194
61537SOL    HW186508  10.384   8.706   6.222
61537SOL    HW286509  10.293   8.730   6.103
61538SOL     OW86510   7.549   8.086   4.149
61538SOL    HW186511   7.467   8.135   4.151
61538SOL    HW286512   7.533   8.014   4.089
61539SOL     OW86513  12.159  11.789   8.719
61539SOL    HW186514  12.125  11.864   8.671
61539SOL    HW286515  12.141  11.808   8.811
61540SOL     OW86516   9.478  11.171  12.615
61540SOL    HW186517   9.485  11.078  12.640
61540SOL    HW286518   9.545  11.182  12.547
61541SOL     OW86519   9.551   2.136   3.410
61541SOL    HW186520   9.555   2.049   3.370
61541SOL    HW286521   9.626   2.182   3.373
61542SOL     OW86522   6.831   2.787  10.249
61542SOL    HW186523   6.910   2.751  10.208
61542SOL    HW286524   6.766   2.790  10.178
61543SOL     OW86525  11.945   4.256  11.101
61543SOL    HW186526  11.853   4.280  11.101
61543SOL    HW286527  11.962   4.230  11.010
61544SOL     OW86528   5.574   9.343   0.316
61544SOL    HW186529   5.516   9.269   0.332
61544SOL    HW286530   5.538   9.414   0.368
61545SOL     OW86531  13.986  10.053  14.331
61545SOL    HW186532  13.957  10.137  14.367
61545SOL    HW286533  13.992  10.068  14.236
61546SOL     OW86534   3.321   1.967   6.251
61546SOL    HW186535   3.347   2.041   6.196
61546SOL    HW286536   3.259   1.918   6.197
61547SOL     OW86537  12.215   7.169   7.903
61547SOL    HW186538  12.124   7.172   7.875
61547SOL    HW286539  12.247   7.084   7.872
61548SOL     OW86540   6.266   4.789  12.698
61548SOL    HW186541   6.175   4.806  12.721
61548SOL    HW286542   6.312   4.792  12.782
61549SOL     OW86543   6.728   6.878  14.406
61549SOL    HW186544   6.822   6.870  14.390
61549SOL    HW286545   6.698   6.789  14.425
61550SOL     OW86546   6.414   8.744   4.398
61550SOL    HW186547   6.404   8.672   4.461
61550SOL    HW286548   6.324   8.769   4.376
61551SOL     OW86549   2.641   3.003   0.120
61551SOL    HW186550   2.699   3.029   0.192
61551SOL    HW286551   2.688   3.032   0.041
61552SOL     OW86552   9.052   5.885  14.347
61552SOL    HW186553   8.969   5.927  14.325
61552SOL    HW286554   9.041   5.854  14.437
61553SOL     OW86555   9.786   8.420   9.186
61553SOL    HW186556   9.783   8.511   9.215
61553SOL    HW286557   9.844   8.422   9.109
61554SOL     OW86558  13.688   0.749   7.254
61554SOL    HW186559  13.738   0.818   7.296
61554SOL    HW286560  13.745   0.716   7.185
61555SOL     OW86561   7.931  14.575   4.980
61555SOL    HW186562   7.889  14.661   4.985
61555SOL    HW286563   7.864  14.519   4.941
61556SOL     OW86564  14.173   4.394  13.386
61556SOL    HW186565  14.206   4.316  13.431
61556SOL    HW286566  14.218   4.467  13.428
61557SOL     OW86567   6.921  14.031   2.253
61557SOL    HW186568   6.838  14.020   2.206
61557SOL    HW286569   6.984  14.055   2.185
61558SOL     OW86570   1.582   5.661   6.822
61558SOL    HW186571   1.628   5.740   6.849
61558SOL    HW286572   1.627   5.634   6.741
61559SOL     OW86573  10.126   6.962   6.769
61559SOL    HW186574  10.205   6.941   6.719
61559SOL    HW286575  10.054   6.925   6.718
61560SOL     OW86576  14.440  10.094   4.244
61560SOL    HW186577  14.488  10.090   4.327
61560SOL    HW286578  14.503  10.128   4.181
61561SOL     OW86579  11.634   0.749   7.944
61561SOL    HW186580  11.672   0.823   7.993
61561SOL    HW286581  11.704   0.720   7.887
61562SOL     OW86582   2.811   3.393   0.070
61562SOL    HW186583   2.821   3.302   0.097
61562SOL    HW286584   2.752   3.390  14.866
61563SOL     OW86585   7.166   2.689   1.232
61563SOL    HW186586   7.125   2.747   1.169
61563SOL    HW286587   7.128   2.713   1.316
61564SOL     OW86588   4.024  11.734   8.610
61564SOL    HW186589   3.942  11.705   8.570
61564SOL    HW286590   3.998  11.800   8.674
61565SOL     OW86591   7.244   8.824   1.624
61565SOL    HW186592   7.311   8.795   1.562
61565SOL    HW286593   7.225   8.915   1.598
61566SOL     OW86594   1.704   1.168  14.152
61566SOL    HW186595   1.642   1.095  14.147
61566SOL    HW286596   1.747   1.168  14.067
61567SOL     OW86597   2.694   8.348   4.681
61567SOL    HW186598   2.648   8.299   4.749
61567SOL    HW286599   2.773   8.380   4.725
61568SOL     OW86600   6.699   4.811   7.402
61568SOL    HW186601   6.639   4.885   7.414
61568SOL    HW286602   6.690   4.787   7.310
61569SOL     OW86603   7.255   6.513  13.611
61569SOL    HW186604   7.328   6.477  13.560
61569SOL    HW286605   7.286   6.600  13.638
61570SOL     OW86606   0.505   9.041   8.727
61570SOL    HW186607   0.552   9.048   8.810
61570SOL    HW286608   0.563   9.082   8.663
61571SOL     OW86609   4.190   8.480   5.073
61571SOL    HW186610   4.110   8.525   5.101
61571SOL    HW286611   4.159   8.411   5.014
61572SOL     OW86612   3.932   2.277  11.724
61572SOL    HW186613   3.997   2.237  11.781
61572SOL    HW286614   3.880   2.333  11.782
61573SOL     OW86615   1.387  14.577   2.351
61573SOL    HW186616   1.448  14.545   2.417
61573SOL    HW286617   1.407  14.670   2.342
61574SOL     OW86618   3.987   8.197  11.639
61574SOL    HW186619   4.003   8.232  11.727
61574SOL    HW286620   4.073   8.172  11.606
61575SOL     OW86621   4.642  12.708  11.542
61575SOL    HW186622   4.554  12.712  11.577
61575SOL    HW286623   4.657  12.615  11.525
61576SOL     OW86624   5.298   0.557  12.923
61576SOL    HW186625   5.360   0.612  12.971
61576SOL    HW286626   5.334   0.469  12.929
61577SOL     OW86627  14.047   4.791  14.482
61577SOL    HW186628  14.094   4.747  14.552
61577SOL    HW286629  14.089   4.877  14.475
61578SOL     OW86630   6.394  13.589   6.377
61578SOL    HW186631   6.354  13.502   6.382
61578SOL    HW286632   6.332  13.647   6.420
61579SOL     OW86633   4.013   6.499   5.144
61579SOL    HW186634   4.038   6.590   5.131
61579SOL    HW286635   3.926   6.492   5.106
61580SOL     OW86636   0.627   3.040  13.999
61580SOL    HW186637   0.708   2.999  14.028
61580SOL    HW286638   0.559   3.002  14.054
61581SOL     OW86639   4.954   2.322  11.245
61581SOL    HW186640   4.930   2.412  11.223
61581SOL    HW286641   4.878   2.288  11.292
61582SOL     OW86642   0.162  14.253   0.087
61582SOL    HW186643   0.119  14.218   0.009
61582SOL    HW286644   0.195  14.175   0.132
61583SOL     OW86645  13.489   7.235   9.219
61583SOL    HW186646  13.479   7.140   9.210
61583SOL    HW286647  13.405   7.271   9.189
61584SOL     OW86648  10.452   9.526  11.881
61584SOL    HW186649  10.395   9.587  11.835
61584SOL    HW286650  10.540   9.557  11.863
61585SOL     OW86651   7.751   0.597  13.630
61585SOL    HW186652   7.730   0.645  13.551
61585SOL    HW286653   7.806   0.524  13.601
61586SOL     OW86654   9.408   9.996  14.625
61586SOL    HW186655   9.373   9.938  14.692
61586SOL    HW286656   9.482   9.947  14.587
61587SOL     OW86657  13.247   3.973   1.453
61587SOL    HW186658  13.319   3.925   1.411
61587SOL    HW286659  13.277   4.064   1.456
61588SOL     OW86660   6.384  12.778  10.249
61588SOL    HW186661   6.457  12.806  10.304
61588SOL    HW286662   6.394  12.828  10.169
61589SOL     OW86663  11.429   8.478   0.602
61589SOL    HW186664  11.339   8.447   0.600
61589SOL    HW286665  11.466   8.453   0.517
61590SOL     OW86666   2.683  11.266  12.165
61590SOL    HW186667   2.763  11.278  12.114
61590SOL    HW286668   2.679  11.172  12.182
61591SOL     OW86669   5.178  10.408  13.530
61591SOL    HW186670   5.167  10.404  13.435
61591SOL    HW286671   5.090  10.423  13.564
61592SOL     OW86672   6.945   2.229   1.760
61592SOL    HW186673   6.990   2.307   1.791
61592SOL    HW286674   6.852   2.252   1.761
61593SOL     OW86675   5.477   6.731  13.254
61593SOL    HW186676   5.547   6.797  13.261
61593SOL    HW286677   5.504   6.661  13.313
61594SOL     OW86678   6.941   7.893   2.623
61594SOL    HW186679   6.927   7.988   2.618
61594SOL    HW286680   7.013   7.884   2.685
61595SOL     OW86681  11.199   7.507  10.704
61595SOL    HW186682  11.203   7.450  10.781
61595SOL    HW286683  11.287   7.545  10.699
61596SOL     OW86684   3.228   2.129   8.147
61596SOL    HW186685   3.233   2.222   8.168
61596SOL    HW286686   3.281   2.119   8.068
61597SOL     OW86687  13.792  14.253   1.804
61597SOL    HW186688  13.886  14.242   1.788
61597SOL    HW286689  13.788  14.307   1.883
61598SOL     OW86690   6.147   9.403   0.823
61598SOL    HW186691   6.063   9.380   0.784
61598SOL    HW286692   6.211   9.351   0.774
61599SOL     OW86693   1.181   1.127   6.854
61599SOL    HW186694   1.101   1.105   6.901
61599SOL    HW286695   1.157   1.120   6.762
61600SOL     OW86696   4.313   6.661  10.672
61600SOL    HW186697   4.226   6.674  10.711
61600SOL    HW286698   4.365   6.734  10.705
61601SOL     OW86699   2.659   1.373  13.639
61601SOL    HW186700   2.567   1.349  13.633
61601SOL    HW286701   2.707   1.291  13.624
61602SOL     OW86702  10.264   4.172   9.445
61602SOL    HW186703  10.210   4.141   9.372
61602SOL    HW286704  10.308   4.250   9.411
61603SOL     OW86705   6.455  13.641   2.683
61603SOL    HW186706   6.432  13.554   2.715
61603SOL    HW286707   6.539  13.630   2.640
61604SOL     OW86708  13.602   9.634   6.220
61604SOL    HW186709  13.594   9.564   6.285
61604SOL    HW286710  13.560   9.599   6.141
61605SOL     OW86711   9.101   7.513  10.762
61605SOL    HW186712   9.151   7.496  10.682
61605SOL    HW286713   9.072   7.427  10.791
61606SOL     OW86714   0.832  10.732   6.105
61606SOL    HW186715   0.924  10.723   6.080
61606SOL    HW286716   0.825  10.686   6.188
61607SOL     OW86717   2.587   6.304   1.687
61607SOL    HW186718   2.614   6.248   1.614
61607SOL    HW286719   2.572   6.390   1.647
61608SOL     OW86720   1.045  10.841   5.492
61608SOL    HW186721   0.995  10.770   5.453
61608SOL    HW286722   1.124  10.847   5.439
61609SOL     OW86723   9.833  10.923   7.829
61609SOL    HW186724   9.891  10.924   7.905
61609SOL    HW286725   9.883  10.878   7.761
61610SOL     OW86726   9.261   1.975   3.760
61610SOL    HW186727   9.315   1.954   3.836
61610SOL    HW286728   9.263   1.895   3.707
61611SOL     OW86729   5.334  12.408   7.328
61611SOL    HW186730   5.418  12.362   7.327
61611SOL    HW286731   5.355  12.497   7.302
61612SOL     OW86732   4.338   3.255   6.840
61612SOL    HW186733   4.253   3.213   6.856
61612SOL    HW286734   4.378   3.202   6.771
61613SOL     OW86735  11.756   0.381   5.021
61613SOL    HW186736  11.705   0.420   4.950
61613SOL    HW286737  11.844   0.373   4.986
61614SOL     OW86738  14.627  14.279   2.191
61614SOL    HW186739  14.543  14.322   2.206
61614SOL    HW286740  14.613  14.224   2.114
61615SOL     OW86741  11.936   9.243   9.919
61615SOL    HW186742  12.028   9.268   9.929
61615SOL    HW286743  11.938   9.150   9.898
61616SOL     OW86744   1.534   7.086  10.126
61616SOL    HW186745   1.593   7.021  10.163
61616SOL    HW286746   1.468   7.100  10.194
61617SOL     OW86747   5.850   2.124   0.474
61617SOL    HW186748   5.941   2.111   0.448
61617SOL    HW286749   5.799   2.091   0.400
61618SOL     OW86750   4.923   6.177  12.538
61618SOL    HW186751   5.008   6.178  12.495
61618SOL    HW286752   4.942   6.151  12.628
61619SOL     OW86753  13.329   4.831  12.551
61619SOL    HW186754  13.257   4.880  12.589
61619SOL    HW286755  13.400   4.838  12.615
61620SOL     OW86756  10.251   7.875  13.684
61620SOL    HW186757  10.308   7.943  13.647
61620SOL    HW286758  10.295   7.793  13.662
61621SOL     OW86759  11.336   2.612   2.376
61621SOL    HW186760  11.421   2.651   2.397
61621SOL    HW286761  11.355   2.522   2.353
61622SOL     OW86762   8.505   6.885   7.826
61622SOL    HW186763   8.435   6.944   7.853
61622SOL    HW286764   8.491   6.805   7.877
61623SOL     OW86765   2.263  14.571   7.311
61623SOL    HW186766   2.232  14.502   7.253
61623SOL    HW286767   2.332  14.529   7.362
61624SOL     OW86768   2.319   8.055   8.827
61624SOL    HW186769   2.330   8.102   8.745
61624SOL    HW286770   2.369   8.106   8.891
61625SOL     OW86771  12.393  13.018   1.096
61625SOL    HW186772  12.384  12.926   1.072
61625SOL    HW286773  12.434  13.059   1.021
61626SOL     OW86774  11.378   0.062   9.869
61626SOL    HW186775  11.423   0.001   9.810
61626SOL    HW286776  11.347   0.133   9.812
61627SOL     OW86777  12.270   7.303   6.779
61627SOL    HW186778  12.177   7.325   6.784
61627SOL    HW286779  12.291   7.310   6.686
61628SOL     OW86780   9.423   8.289   8.054
61628SOL    HW186781   9.514   8.295   8.024
61628SOL    HW286782   9.404   8.377   8.088
61629SOL     OW86783  12.280  12.874   8.201
61629SOL    HW186784  12.312  12.903   8.115
61629SOL    HW286785  12.298  12.780   8.203
61630SOL     OW86786   5.658  14.459   6.318
61630SOL    HW186787   5.631  14.505   6.398
61630SOL    HW286788   5.642  14.522   6.248
61631SOL     OW86789   3.012   6.081  12.034
61631SOL    HW186790   3.051   6.143  12.096
61631SOL    HW286791   3.065   6.090  11.955
61632SOL     OW86792  11.546   2.529   0.832
61632SOL    HW186793  11.620   2.544   0.890
61632SOL    HW286794  11.526   2.436   0.841
61633SOL     OW86795  10.870  14.756  14.399
61633SOL    HW186796  10.796  14.805  14.363
61633SOL    HW286797  10.911  14.714  14.323
61634SOL     OW86798   3.641   6.332   9.370
61634SOL    HW186799   3.555   6.310   9.334
61634SOL    HW286800   3.678   6.247   9.396
61635SOL     OW86801  12.434   0.862  12.189
61635SOL    HW186802  12.359   0.919  12.205
61635SOL    HW286803  12.509   0.912  12.221
61636SOL     OW86804   5.957  12.196   5.560
61636SOL    HW186805   5.916  12.245   5.489
61636SOL    HW286806   5.969  12.260   5.630
61637SOL     OW86807  13.561  13.995   6.188
61637SOL    HW186808  13.645  14.033   6.215
61637SOL    HW286809  13.572  13.901   6.202
61638SOL     OW86810   8.681   0.429  14.030
61638SOL    HW186811   8.600   0.426  14.080
61638SOL    HW286812   8.668   0.501  13.967
61639SOL     OW86813   1.608   2.843   4.055
61639SOL    HW186814   1.675   2.845   3.986
61639SOL    HW286815   1.605   2.751   4.082
61640SOL     OW86816  11.188   1.773   9.777
61640SOL    HW186817  11.181   1.678   9.783
61640SOL    HW286818  11.099   1.805   9.793
61641SOL     OW86819  13.698   9.722   9.343
61641SOL    HW186820  13.608   9.737   9.314
61641SOL    HW286821  13.710   9.784   9.415
61642SOL     OW86822   6.857   8.671   9.961
61642SOL    HW186823   6.908   8.689  10.039
61642SOL    HW286824   6.907   8.605   9.914
61643SOL     OW86825   8.397   9.656   9.175
61643SOL    HW186826   8.382   9.743   9.137
61643SOL    HW286827   8.466   9.617   9.120
61644SOL     OW86828   9.727  14.621   8.939
61644SOL    HW186829   9.809  14.626   8.987
61644SOL    HW286830   9.751  14.642   8.848
61645SOL     OW86831   2.678   2.558   9.781
61645SOL    HW186832   2.677   2.647   9.818
61645SOL    HW286833   2.611   2.511   9.831
61646SOL     OW86834  13.348  12.016   2.750
61646SOL    HW186835  13.254  12.008   2.768
61646SOL    HW286836  13.386  11.935   2.784
61647SOL     OW86837   1.020  10.113   2.857
61647SOL    HW186838   0.952  10.097   2.792
61647SOL    HW286839   1.016  10.037   2.916
61648SOL     OW86840   9.400   9.318  10.907
61648SOL    HW186841   9.351   9.305  10.826
61648SOL    HW286842   9.472   9.255  10.902
61649SOL     OW86843  11.701   8.111  11.609
61649SOL    HW186844  11.707   8.206  11.619
61649SOL    HW286845  11.762   8.076  11.675
61650SOL     OW86846   7.977   4.042   7.156
61650SOL    HW186847   7.906   4.019   7.216
61650SOL    HW286848   8.015   4.121   7.192
61651SOL     OW86849  14.348   3.318   0.388
61651SOL    HW186850  14.308   3.391   0.434
61651SOL    HW286851  14.441   3.341   0.383
61652SOL     OW86852   2.080   7.338  13.094
61652SOL    HW186853   2.113   7.252  13.120
61652SOL    HW286854   2.139   7.366  13.024
61653SOL     OW86855   4.485   4.949  10.079
61653SOL    HW186856   4.469   4.874  10.136
61653SOL    HW286857   4.527   4.912  10.001
61654SOL     OW86858   6.342   4.437  10.330
61654SOL    HW186859   6.347   4.509  10.392
61654SOL    HW286860   6.249   4.424  10.315
61655SOL     OW86861   2.688  10.271  12.995
61655SOL    HW186862   2.769  10.266  13.047
61655SOL    HW286863   2.658  10.180  12.988
61656SOL     OW86864   2.004   5.442   2.523
61656SOL    HW186865   1.949   5.508   2.566
61656SOL    HW286866   2.069   5.418   2.590
61657SOL     OW86867   7.344   2.854   8.792
61657SOL    HW186868   7.361   2.766   8.826
61657SOL    HW286869   7.401   2.862   8.716
61658SOL     OW86870  13.792   7.067   6.471
61658SOL    HW186871  13.827   7.001   6.412
61658SOL    HW286872  13.786   7.023   6.556
61659SOL     OW86873   3.060  10.027  14.079
61659SOL    HW186874   2.973  10.002  14.047
61659SOL    HW286875   3.066   9.985  14.165
61660SOL     OW86876   5.958  13.626   0.389
61660SOL    HW186877   5.897  13.644   0.460
61660SOL    HW286878   6.012  13.705   0.383
61661SOL     OW86879   5.252   4.612   7.666
61661SOL    HW186880   5.193   4.622   7.591
61661SOL    HW286881   5.248   4.696   7.711
61662SOL     OW86882  12.841  10.246  13.427
61662SOL    HW186883  12.806  10.200  13.350
61662SOL    HW286884  12.769  10.300  13.457
61663SOL     OW86885   1.113   8.583  13.429
61663SOL    HW186886   1.105   8.654  13.493
61663SOL    HW286887   1.187   8.608  13.375
61664SOL     OW86888  14.778   7.420   4.248
61664SOL    HW186889  14.866   7.410   4.212
61664SOL    HW286890  14.724   7.446   4.173
61665SOL     OW86891   3.265   3.998   8.194
61665SOL    HW186892   3.175   4.023   8.214
61665SOL    HW286893   3.265   3.978   8.101
61666SOL     OW86894   5.791   3.826   5.218
61666SOL    HW186895   5.817   3.865   5.134
61666SOL    HW286896   5.804   3.732   5.205
61667SOL     OW86897   5.362   7.222   5.561
61667SOL    HW186898   5.321   7.226   5.474
61667SOL    HW286899   5.454   7.201   5.543
61668SOL     OW86900   2.236   7.601   6.864
61668SOL    HW186901   2.145   7.570   6.857
61668SOL    HW286902   2.264   7.574   6.952
61669SOL     OW86903   0.973  14.798  10.055
61669SOL    HW186904   0.949   0.002  10.001
61669SOL    HW286905   0.894  14.781  10.107
61670SOL     OW86906   8.812  12.123  10.347
61670SOL    HW186907   8.857  12.093  10.427
61670SOL    HW286908   8.827  12.052  10.284
61671SOL     OW86909  10.827   5.519   4.401
61671SOL    HW186910  10.904   5.567   4.433
61671SOL    HW286911  10.844   5.506   4.307
61672SOL     OW86912   3.010   0.193   0.674
61672SOL    HW186913   3.100   0.174   0.703
61672SOL    HW286914   2.964   0.220   0.753
61673SOL     OW86915   0.916  12.563  13.479
61673SOL    HW186916   0.914  12.616  13.400
61673SOL    HW286917   0.955  12.621  13.545
61674SOL     OW86918  13.845  10.609   8.667
61674SOL    HW186919  13.891  10.638   8.588
61674SOL    HW286920  13.808  10.524   8.644
61675SOL     OW86921   3.375  13.490   9.618
61675SOL    HW186922   3.416  13.561   9.668
61675SOL    HW286923   3.286  13.484   9.654
61676SOL     OW86924   0.819   9.962   1.312
61676SOL    HW186925   0.775  10.024   1.255
61676SOL    HW286926   0.749   9.912   1.352
61677SOL     OW86927  14.448   7.231   0.658
61677SOL    HW186928  14.495   7.285   0.595
61677SOL    HW286929  14.507   7.223   0.733
61678SOL     OW86930   6.854  11.665  11.187
61678SOL    HW186931   6.892  11.748  11.216
61678SOL    HW286932   6.916  11.631  11.123
61679SOL     OW86933   9.016  10.502  11.597
61679SOL    HW186934   9.106  10.478  11.618
61679SOL    HW286935   9.014  10.506  11.501
61680SOL     OW86936   8.107   9.647   4.846
61680SOL    HW186937   8.066   9.668   4.930
61680SOL    HW286938   8.037   9.607   4.794
61681SOL     OW86939   3.046  10.481   8.999
61681SOL    HW186940   3.096  10.403   8.976
61681SOL    HW286941   3.102  10.528   9.061
61682SOL     OW86942   9.293   8.942   6.218
61682SOL    HW186943   9.235   8.866   6.219
61682SOL    HW286944   9.241   9.011   6.177
61683SOL     OW86945  10.085   0.664  12.005
61683SOL    HW186946  10.012   0.604  12.015
61683SOL    HW286947  10.161   0.615  12.035
61684SOL     OW86948  12.884  12.950  13.910
61684SOL    HW186949  12.847  13.035  13.933
61684SOL    HW286950  12.978  12.967  13.899
61685SOL     OW86951  10.797   8.517   5.809
61685SOL    HW186952  10.883   8.476   5.818
61685SOL    HW286953  10.756   8.507   5.895
61686SOL     OW86954  14.489   4.000   7.315
61686SOL    HW186955  14.438   3.953   7.381
61686SOL    HW286956  14.426   4.021   7.246
61687SOL     OW86957   1.878   3.662   4.389
61687SOL    HW186958   1.940   3.591   4.406
61687SOL    HW286959   1.893   3.684   4.297
61688SOL     OW86960   9.404   3.010   0.615
61688SOL    HW186961   9.381   3.099   0.587
61688SOL    HW286962   9.496   3.015   0.639
61689SOL     OW86963   0.939   7.176   9.207
61689SOL    HW186964   0.947   7.090   9.249
61689SOL    HW286965   0.845   7.189   9.197
61690SOL     OW86966   9.205   1.019   8.386
61690SOL    HW186967   9.167   1.107   8.397
61690SOL    HW286968   9.235   1.018   8.295
61691SOL     OW86969   7.702   3.203  12.939
61691SOL    HW186970   7.649   3.249  12.873
61691SOL    HW286971   7.701   3.260  13.015
61692SOL     OW86972  13.546   5.759   1.685
61692SOL    HW186973  13.529   5.666   1.669
61692SOL    HW286974  13.641   5.765   1.696
61693SOL     OW86975  12.426  10.664  14.291
61693SOL    HW186976  12.345  10.715  14.282
61693SOL    HW286977  12.400  10.587  14.343
61694SOL     OW86978   2.552   4.184  10.325
61694SOL    HW186979   2.466   4.212  10.354
61694SOL    HW286980   2.546   4.089  10.321
61695SOL     OW86981   0.627   9.329   8.066
61695SOL    HW186982   0.633   9.257   8.129
61695SOL    HW286983   0.620   9.287   7.981
61696SOL     OW86984   0.124   9.038  11.022
61696SOL    HW186985   0.155   9.070  11.107
61696SOL    HW286986   0.038   9.000  11.042
61697SOL     OW86987   0.873  11.761  13.570
61697SOL    HW186988   0.785  11.734  13.543
61697SOL    HW286989   0.919  11.679  13.588
61698SOL     OW86990  12.731   0.224   7.998
61698SOL    HW186991  12.651   0.219   8.049
61698SOL    HW286992  12.751   0.133   7.976
61699SOL     OW86993   9.623  11.579   8.698
61699SOL    HW186994   9.637  11.631   8.778
61699SOL    HW286995   9.671  11.627   8.630
61700SOL     OW86996   1.111   0.524  12.818
61700SOL    HW186997   1.103   0.565  12.904
61700SOL    HW286998   1.158   0.443  12.834
61701SOL     OW86999   1.166   7.346  13.985
61701SOL    HW187000   1.158   7.293  14.064
61701SOL    HW287001   1.076   7.356  13.954
61702SOL     OW87002  12.315   4.044  13.525
61702SOL    HW187003  12.331   4.136  13.544
61702SOL    HW287004  12.381   3.997  13.576
61703SOL     OW87005  10.623  12.798   8.730
61703SOL    HW187006  10.561  12.760   8.667
61703SOL    HW287007  10.681  12.726   8.753
61704SOL     OW87008   2.363   4.424   1.949
61704SOL    HW187009   2.441   4.460   1.992
61704SOL    HW287010   2.367   4.330   1.967
61705SOL     OW87011   8.022   3.178  13.682
61705SOL    HW187012   7.987   3.223  13.759
61705SOL    HW287013   8.010   3.085  13.702
61706SOL     OW87014  13.707  13.460   1.939
61706SOL    HW187015  13.697  13.366   1.958
61706SOL    HW287016  13.796  13.481   1.968
61707SOL     OW87017  12.896   7.674   0.066
61707SOL    HW187018  12.861   7.605   0.123
61707SOL    HW287019  12.990   7.673   0.082
61708SOL     OW87020   0.345   9.281   0.479
61708SOL    HW187021   0.305   9.317   0.400
61708SOL    HW287022   0.298   9.199   0.494
61709SOL     OW87023   0.758   3.190   6.903
61709SOL    HW187024   0.740   3.284   6.907
61709SOL    HW287025   0.677   3.149   6.932
61710SOL     OW87026  12.167  12.284  12.695
61710SOL    HW187027  12.133  12.332  12.771
61710SOL    HW287028  12.177  12.350  12.627
61711SOL     OW87029   2.644   0.907  10.267
61711SOL    HW187030   2.565   0.907  10.321
61711SOL    HW287031   2.621   0.958  10.190
61712SOL     OW87032   9.238  13.862   5.824
61712SOL    HW187033   9.182  13.885   5.750
61712SOL    HW287034   9.197  13.904   5.900
61713SOL     OW87035  12.768   9.382   8.386
61713SOL    HW187036  12.778   9.442   8.459
61713SOL    HW287037  12.742   9.299   8.426
61714SOL     OW87038   7.048   5.313   0.099
61714SOL    HW187039   6.959   5.344   0.082
61714SOL    HW287040   7.085   5.377   0.160
61715SOL     OW87041   8.308   4.454   1.550
61715SOL    HW187042   8.280   4.529   1.602
61715SOL    HW287043   8.377   4.413   1.603
61716SOL     OW87044   9.992   9.546   4.892
61716SOL    HW187045   9.996   9.630   4.938
61716SOL    HW287046   9.900   9.522   4.893
61717SOL     OW87047  10.618   3.570  13.900
61717SOL    HW187048  10.540   3.562  13.845
61717SOL    HW287049  10.671   3.637  13.857
61718SOL     OW87050   8.841  11.706   4.617
61718SOL    HW187051   8.864  11.736   4.705
61718SOL    HW287052   8.799  11.621   4.631
61719SOL     OW87053  11.985   7.402   1.181
61719SOL    HW187054  11.943   7.487   1.186
61719SOL    HW287055  11.931   7.352   1.120
61720SOL     OW87056  13.730   0.101   7.636
61720SOL    HW187057  13.797   0.158   7.674
61720SOL    HW287058  13.716   0.033   7.703
61721SOL     OW87059  11.437  11.272   0.445
61721SOL    HW187060  11.409  11.219   0.520
61721SOL    HW287061  11.532  11.264   0.443
61722SOL     OW87062   5.722  13.685  11.424
61722SOL    HW187063   5.704  13.617  11.359
61722SOL    HW287064   5.796  13.651  11.474
61723SOL     OW87065   6.033   3.183   7.173
61723SOL    HW187066   5.990   3.111   7.126
61723SOL    HW287067   6.053   3.247   7.105
61724SOL     OW87068   3.287   5.409  13.206
61724SOL    HW187069   3.313   5.479  13.146
61724SOL    HW287070   3.333   5.331  13.175
61725SOL     OW87071  10.382   5.516   3.462
61725SOL    HW187072  10.462   5.472   3.491
61725SOL    HW287073  10.398   5.536   3.370
61726SOL     OW87074   5.371   9.525   0.814
61726SOL    HW187075   5.448   9.582   0.810
61726SOL    HW287076   5.308   9.573   0.867
61727SOL     OW87077  14.546   1.196   7.829
61727SOL    HW187078  14.493   1.275   7.839
61727SOL    HW287079  14.604   1.197   7.905
61728SOL     OW87080  13.658   1.021   9.835
61728SOL    HW187081  13.685   1.112   9.823
61728SOL    HW287082  13.730   0.981   9.884
61729SOL     OW87083   3.542   9.815   3.868
61729SOL    HW187084   3.596   9.764   3.929
61729SOL    HW287085   3.528   9.756   3.794
61730SOL     OW87086   0.516  14.835   8.136
61730SOL    HW187087   0.490  14.789   8.217
61730SOL    HW287088   0.532   0.054   8.164
61731SOL     OW87089  10.341  10.058   9.512
61731SOL    HW187090  10.254  10.061   9.472
61731SOL    HW287091  10.369   9.967   9.502
61732SOL     OW87092   2.121   8.688   4.102
61732SOL    HW187093   2.051   8.742   4.139
61732SOL    HW287094   2.152   8.635   4.175
61733SOL     OW87095   7.005  11.868  11.555
61733SOL    HW187096   6.987  11.950  11.602
61733SOL    HW287097   6.969  11.883  11.468
61734SOL     OW87098   3.162   9.348  10.406
61734SOL    HW187099   3.104   9.386  10.472
61734SOL    HW287100   3.248   9.387  10.425
61735SOL     OW87101   4.404  10.852   6.917
61735SOL    HW187102   4.397  10.772   6.865
61735SOL    HW287103   4.449  10.824   6.997
61736SOL     OW87104   9.537   5.490   9.906
61736SOL    HW187105   9.514   5.579   9.933
61736SOL    HW287106   9.495   5.479   9.821
61737SOL     OW87107  12.288   6.243   6.703
61737SOL    HW187108  12.214   6.242   6.642
61737SOL    HW287109  12.361   6.279   6.653
61738SOL     OW87110   8.381   0.335  14.803
61738SOL    HW187111   8.439   0.403  14.770
61738SOL    HW287112   8.297   0.350  14.760
61739SOL     OW87113  11.523  14.387  10.946
61739SOL    HW187114  11.518  14.482  10.956
61739SOL    HW287115  11.528  14.354  11.036
61740SOL     OW87116   9.244   4.747   1.778
61740SOL    HW187117   9.227   4.741   1.684
61740SOL    HW287118   9.161   4.722   1.819
61741SOL     OW87119   3.768  12.822   7.838
61741SOL    HW187120   3.779  12.794   7.747
61741SOL    HW287121   3.788  12.744   7.889
61742SOL     OW87122   1.165   5.500   1.486
61742SOL    HW187123   1.186   5.542   1.570
61742SOL    HW287124   1.250   5.469   1.454
61743SOL     OW87125  13.522  10.108   5.416
61743SOL    HW187126  13.498  10.156   5.337
61743SOL    HW287127  13.444  10.113   5.471
61744SOL     OW87128  12.157   5.339   6.620
61744SOL    HW187129  12.138   5.301   6.706
61744SOL    HW287130  12.239   5.297   6.593
61745SOL     OW87131   6.544   2.274   8.680
61745SOL    HW187132   6.553   2.204   8.616
61745SOL    HW287133   6.463   2.318   8.655
61746SOL     OW87134  10.291  10.404   2.395
61746SOL    HW187135  10.223  10.436   2.454
61746SOL    HW287136  10.370  10.404   2.447
61747SOL     OW87137  10.666   5.796   4.340
61747SOL    HW187138  10.603   5.772   4.271
61747SOL    HW287139  10.737   5.733   4.331
61748SOL     OW87140   6.820   2.326  10.931
61748SOL    HW187141   6.784   2.374  11.005
61748SOL    HW287142   6.908   2.300  10.959
61749SOL     OW87143  12.499   4.904   2.875
61749SOL    HW187144  12.495   4.878   2.967
61749SOL    HW287145  12.474   4.996   2.875
61750SOL     OW87146   0.652  13.628  12.436
61750SOL    HW187147   0.621  13.642  12.346
61750SOL    HW287148   0.582  13.578  12.478
61751SOL     OW87149   3.574  13.490   6.169
61751SOL    HW187150   3.534  13.404   6.174
61751SOL    HW287151   3.504  13.548   6.141
61752SOL     OW87152   7.692  14.621  11.652
61752SOL    HW187153   7.754  14.689  11.629
61752SOL    HW287154   7.738  14.539  11.635
61753SOL     OW87155   1.857  12.301   5.770
61753SOL    HW187156   1.935  12.266   5.726
61753SOL    HW287157   1.883  12.310   5.861
61754SOL     OW87158  10.285   2.511  13.238
61754SOL    HW187159  10.276   2.425  13.280
61754SOL    HW287160  10.195   2.540  13.224
61755SOL     OW87161  13.402  12.229   2.960
61755SOL    HW187162  13.365  12.195   2.878
61755SOL    HW287163  13.342  12.200   3.028
61756SOL     OW87164   2.152   4.137   5.428
61756SOL    HW187165   2.169   4.085   5.350
61756SOL    HW287166   2.060   4.120   5.449
61757SOL     OW87167   4.737   2.541  13.842
61757SOL    HW187168   4.698   2.545  13.929
61757SOL    HW287169   4.830   2.561  13.857
61758SOL     OW87170   7.231   4.541  11.824
61758SOL    HW187171   7.154   4.547  11.880
61758SOL    HW287172   7.195   4.531  11.736
61759SOL     OW87173   8.328   6.022   5.827
61759SOL    HW187174   8.396   5.965   5.861
61759SOL    HW287175   8.373   6.104   5.805
61760SOL     OW87176  13.558   5.783   5.635
61760SOL    HW187177  13.587   5.831   5.713
61760SOL    HW287178  13.591   5.694   5.648
61761SOL     OW87179   5.970  13.683  11.586
61761SOL    HW187180   5.990  13.775  11.571
61761SOL    HW287181   6.055  13.640  11.590
61762SOL     OW87182   1.485  13.646  12.542
61762SOL    HW187183   1.485  13.552  12.526
61762SOL    HW287184   1.446  13.684  12.463
61763SOL     OW87185   5.223   4.046  11.897
61763SOL    HW187186   5.204   4.081  11.810
61763SOL    HW287187   5.169   3.967  11.902
61764SOL     OW87188  14.073  10.202   0.554
61764SOL    HW187189  14.028  10.154   0.484
61764SOL    HW287190  14.165  10.174   0.546
61765SOL     OW87191   7.879  14.009   8.117
61765SOL    HW187192   7.823  14.065   8.063
61765SOL    HW287193   7.822  13.937   8.144
61766SOL     OW87194   9.555  12.683   3.724
61766SOL    HW187195   9.585  12.641   3.643
61766SOL    HW287196   9.464  12.708   3.706
61767SOL     OW87197  14.699  13.039   6.649
61767SOL    HW187198  14.778  12.987   6.662
61767SOL    HW287199  14.679  13.075   6.736
61768SOL     OW87200   3.202   6.420   7.900
61768SOL    HW187201   3.230   6.511   7.904
61768SOL    HW287202   3.257   6.380   7.833
61769SOL     OW87203   2.564   8.596   3.288
61769SOL    HW187204   2.570   8.684   3.251
61769SOL    HW287205   2.597   8.606   3.378
61770SOL     OW87206   4.552   5.893   6.821
61770SOL    HW187207   4.535   5.837   6.746
61770SOL    HW287208   4.505   5.852   6.894
61771SOL     OW87209  13.001   3.844   2.853
61771SOL    HW187210  13.016   3.762   2.806
61771SOL    HW287211  12.948   3.896   2.792
61772SOL     OW87212   6.058   0.501  13.513
61772SOL    HW187213   5.985   0.521  13.454
61772SOL    HW287214   6.136   0.507  13.457
61773SOL     OW87215  11.350  14.330   1.611
61773SOL    HW187216  11.323  14.333   1.519
61773SOL    HW287217  11.445  14.318   1.609
61774SOL     OW87218   2.854  10.345  12.754
61774SOL    HW187219   2.882  10.261  12.717
61774SOL    HW287220   2.778  10.323  12.807
61775SOL     OW87221   7.540  10.908  13.452
61775SOL    HW187222   7.477  10.842  13.483
61775SOL    HW287223   7.487  10.967  13.398
61776SOL     OW87224  14.805   2.855   3.085
61776SOL    HW187225   0.029   2.865   3.083
61776SOL    HW287226  14.772   2.932   3.040
61777SOL     OW87227  12.181   8.977   2.904
61777SOL    HW187228  12.214   8.922   2.976
61777SOL    HW287229  12.164   9.062   2.944
61778SOL     OW87230  11.751  13.271   7.726
61778SOL    HW187231  11.835  13.296   7.765
61778SOL    HW287232  11.758  13.177   7.710
61779SOL     OW87233  11.317  14.076  14.452
61779SOL    HW187234  11.345  14.060  14.542
61779SOL    HW287235  11.366  14.013  14.399
61780SOL     OW87236   2.282   6.760   4.466
61780SOL    HW187237   2.360   6.783   4.417
61780SOL    HW287238   2.227   6.839   4.461
61781SOL     OW87239   4.368   6.398   7.829
61781SOL    HW187240   4.362   6.330   7.897
61781SOL    HW287241   4.298   6.377   7.768
61782SOL     OW87242  12.992  12.608   5.035
61782SOL    HW187243  12.940  12.537   4.997
61782SOL    HW287244  12.927  12.674   5.060
61783SOL     OW87245  10.167   8.228  11.879
61783SOL    HW187246  10.212   8.145  11.863
61783SOL    HW287247  10.218   8.293  11.831
61784SOL     OW87248   3.090  12.961   9.506
61784SOL    HW187249   3.084  12.980   9.413
61784SOL    HW287250   3.119  12.869   9.510
61785SOL     OW87251  10.520   1.162  11.209
61785SOL    HW187252  10.566   1.089  11.251
61785SOL    HW287253  10.470   1.202  11.280
61786SOL     OW87254   7.316   6.170  13.457
61786SOL    HW187255   7.335   6.076  13.465
61786SOL    HW287256   7.278   6.194  13.542
61787SOL     OW87257   0.624   0.132   7.334
61787SOL    HW187258   0.698   0.143   7.274
61787SOL    HW287259   0.649   0.057   7.389
61788SOL     OW87260   8.406   5.825   6.601
61788SOL    HW187261   8.462   5.816   6.677
61788SOL    HW287262   8.390   5.920   6.594
61789SOL     OW87263  10.148  12.827   1.851
61789SOL    HW187264  10.115  12.913   1.825
61789SOL    HW287265  10.219  12.809   1.790
61790SOL     OW87266   5.235   7.768   2.173
61790SOL    HW187267   5.330   7.762   2.184
61790SOL    HW287268   5.222   7.847   2.121
61791SOL     OW87269  10.538  14.031   7.864
61791SOL    HW187270  10.445  14.018   7.882
61791SOL    HW287271  10.578  13.946   7.882
61792SOL     OW87272   4.399  12.587   6.925
61792SOL    HW187273   4.441  12.672   6.937
61792SOL    HW287274   4.469  12.528   6.899
61793SOL     OW87275  12.448  13.506  10.536
61793SOL    HW187276  12.515  13.458  10.586
61793SOL    HW287277  12.423  13.446  10.466
61794SOL     OW87278   0.498   4.363   3.864
61794SOL    HW187279   0.450   4.294   3.819
61794SOL    HW287280   0.489   4.343   3.957
61795SOL     OW87281   3.653   7.902  14.090
61795SOL    HW187282   3.748   7.911  14.079
61795SOL    HW287283   3.640   7.808  14.104
61796SOL     OW87284  10.270  14.458   1.733
61796SOL    HW187285  10.229  14.437   1.649
61796SOL    HW287286  10.202  14.505   1.782
61797SOL     OW87287  12.500   1.315   2.779
61797SOL    HW187288  12.509   1.296   2.872
61797SOL    HW287289  12.555   1.249   2.735
61798SOL     OW87290  10.127   1.522  13.251
61798SOL    HW187291  10.148   1.517  13.158
61798SOL    HW287292  10.041   1.481  13.259
61799SOL     OW87293   2.505   9.688  10.899
61799SOL    HW187294   2.575   9.651  10.953
61799SOL    HW287295   2.525   9.657  10.810
61800SOL     OW87296  14.807  12.798   7.372
61800SOL    HW187297  14.860  12.869   7.407
61800SOL    HW287298  14.763  12.761   7.448
61801SOL     OW87299  12.774  13.918   6.709
61801SOL    HW187300  12.734  14.004   6.719
61801SOL    HW287301  12.825  13.905   6.789
61802SOL     OW87302  13.502   8.040   0.582
61802SOL    HW187303  13.473   7.968   0.639
61802SOL    HW287304  13.450   8.115   0.610
61803SOL     OW87305   3.578  13.713   9.456
61803SOL    HW187306   3.599  13.634   9.406
61803SOL    HW287307   3.612  13.785   9.403
61804SOL     OW87308   3.577   8.007   3.285
61804SOL    HW187309   3.626   7.930   3.314
61804SOL    HW287310   3.508   7.971   3.229
61805SOL     OW87311   7.211  10.250   8.709
61805SOL    HW187312   7.154  10.247   8.633
61805SOL    HW287313   7.153  10.236   8.784
61806SOL     OW87314   3.701   5.129   8.622
61806SOL    HW187315   3.654   5.053   8.657
61806SOL    HW287316   3.780   5.094   8.583
61807SOL     OW87317   3.125   4.617   8.905
61807SOL    HW187318   3.084   4.592   8.823
61807SOL    HW287319   3.163   4.703   8.888
61808SOL     OW87320   4.482   9.728   9.202
61808SOL    HW187321   4.394   9.707   9.170
61808SOL    HW287322   4.511   9.800   9.145
61809SOL     OW87323   2.473  12.824  13.241
61809SOL    HW187324   2.488  12.730  13.231
61809SOL    HW287325   2.555  12.858  13.277
61810SOL     OW87326   7.817  12.593   0.324
61810SOL    HW187327   7.889  12.570   0.382
61810SOL    HW287328   7.739  12.555   0.365
61811SOL     OW87329   5.988   2.426   3.413
61811SOL    HW187330   5.908   2.391   3.452
61811SOL    HW287331   6.058   2.372   3.448
61812SOL     OW87332   0.083  14.706   0.849
61812SOL    HW187333  14.859  14.698   0.853
61812SOL    HW287334   0.113  14.618   0.829
61813SOL     OW87335   7.693   6.633  13.033
61813SOL    HW187336   7.705   6.539  13.047
61813SOL    HW287337   7.762   6.658  12.973
61814SOL     OW87338   2.745   7.001   4.566
61814SOL    HW187339   2.664   7.047   4.590
61814SOL    HW287340   2.722   6.955   4.485
61815SOL     OW87341   6.733   2.354   9.895
61815SOL    HW187342   6.703   2.352   9.804
61815SOL    HW287343   6.809   2.296   9.896
61816SOL     OW87344  11.288  10.789  11.860
61816SOL    HW187345  11.293  10.711  11.916
61816SOL    HW287346  11.258  10.859  11.918
61817SOL     OW87347   5.257   4.947   8.675
61817SOL    HW187348   5.193   4.915   8.611
61817SOL    HW287349   5.283   4.869   8.724
61818SOL     OW87350   6.764   4.628  13.348
61818SOL    HW187351   6.851   4.588  13.341
61818SOL    HW287352   6.730   4.627  13.259
61819SOL     OW87353  11.179   2.664  12.862
61819SOL    HW187354  11.085   2.663  12.879
61819SOL    HW287355  11.187   2.700  12.773
61820SOL     OW87356   1.428   2.541   4.670
61820SOL    HW187357   1.440   2.627   4.631
61820SOL    HW287358   1.490   2.539   4.743
61821SOL     OW87359   8.765   0.871  12.290
61821SOL    HW187360   8.685   0.887  12.341
61821SOL    HW287361   8.766   0.942  12.226
61822SOL     OW87362   3.447   4.932  11.547
61822SOL    HW187363   3.506   4.862  11.575
61822SOL    HW287364   3.362   4.907  11.581
61823SOL     OW87365   4.713   6.839   4.133
61823SOL    HW187366   4.799   6.808   4.161
61823SOL    HW287367   4.660   6.837   4.213
61824SOL     OW87368  13.667   8.475   0.990
61824SOL    HW187369  13.655   8.382   1.012
61824SOL    HW287370  13.713   8.511   1.065
61825SOL     OW87371  14.241  14.239   1.896
61825SOL    HW187372  14.316  14.299   1.895
61825SOL    HW287373  14.177  14.283   1.952
61826SOL     OW87374   3.925  12.659  11.106
61826SOL    HW187375   3.874  12.737  11.084
61826SOL    HW287376   3.978  12.642  11.029
61827SOL     OW87377   0.490   7.185   0.724
61827SOL    HW187378   0.484   7.170   0.819
61827SOL    HW287379   0.405   7.157   0.691
61828SOL     OW87380   3.222   8.262  11.958
61828SOL    HW187381   3.131   8.291  11.947
61828SOL    HW287382   3.215   8.166  11.965
61829SOL     OW87383   8.511   5.956   2.462
61829SOL    HW187384   8.565   5.959   2.541
61829SOL    HW287385   8.565   5.998   2.395
61830SOL     OW87386   8.451   8.405  13.244
61830SOL    HW187387   8.400   8.396  13.164
61830SOL    HW287388   8.409   8.476  13.292
61831SOL     OW87389  11.049  14.655   0.757
61831SOL    HW187390  11.070  14.645   0.664
61831SOL    HW287391  10.969  14.707   0.759
61832SOL     OW87392   8.194   1.488   6.285
61832SOL    HW187393   8.102   1.493   6.261
61832SOL    HW287394   8.207   1.560   6.346
61833SOL     OW87395  10.749   3.358   1.872
61833SOL    HW187396  10.778   3.414   1.801
61833SOL    HW287397  10.777   3.270   1.847
61834SOL     OW87398   9.246   1.803   6.884
61834SOL    HW187399   9.264   1.897   6.892
61834SOL    HW287400   9.332   1.763   6.877
61835SOL     OW87401  13.886   7.187   4.353
61835SOL    HW187402  13.869   7.206   4.260
61835SOL    HW287403  13.821   7.239   4.400
61836SOL     OW87404  14.442  14.214   3.845
61836SOL    HW187405  14.484  14.152   3.904
61836SOL    HW287406  14.486  14.200   3.761
61837SOL     OW87407   7.316   0.539  11.797
61837SOL    HW187408   7.410   0.532  11.779
61837SOL    HW287409   7.280   0.456  11.765
61838SOL     OW87410  10.142  11.014  11.696
61838SOL    HW187411  10.232  10.999  11.668
61838SOL    HW287412  10.142  11.105  11.728
61839SOL     OW87413   4.260   5.080   9.220
61839SOL    HW187414   4.320   5.010   9.246
61839SOL    HW287415   4.247   5.131   9.300
61840SOL     OW87416   0.004   2.672  14.450
61840SOL    HW187417   0.044   2.671  14.363
61840SOL    HW287418   0.064   2.619  14.504
61841SOL     OW87419   1.658   7.022   8.639
61841SOL    HW187420   1.688   7.066   8.718
61841SOL    HW287421   1.612   6.944   8.671
61842SOL     OW87422  12.411   8.548  10.275
61842SOL    HW187423  12.378   8.484  10.338
61842SOL    HW287424  12.334   8.575  10.225
61843SOL     OW87425   0.675   5.391  10.085
61843SOL    HW187426   0.674   5.425   9.995
61843SOL    HW287427   0.625   5.310  10.080
61844SOL     OW87428  14.129   9.263   1.890
61844SOL    HW187429  14.176   9.248   1.808
61844SOL    HW287430  14.041   9.230   1.874
61845SOL     OW87431   3.475   5.871   5.309
61845SOL    HW187432   3.564   5.839   5.290
61845SOL    HW287433   3.487   5.933   5.382
61846SOL     OW87434   8.084  13.971  12.152
61846SOL    HW187435   8.118  14.059  12.171
61846SOL    HW287436   8.162  13.918  12.136
61847SOL     OW87437   8.966  11.266   2.463
61847SOL    HW187438   9.055  11.232   2.472
61847SOL    HW287439   8.943  11.251   2.372
61848SOL     OW87440   6.073   3.306  14.741
61848SOL    HW187441   6.006   3.372  14.722
61848SOL    HW287442   6.075   3.300  14.836
61849SOL     OW87443  13.162   1.265   8.124
61849SOL    HW187444  13.246   1.275   8.080
61849SOL    HW287445  13.182   1.270   8.217
61850SOL     OW87446   1.950   9.313  12.529
61850SOL    HW187447   1.993   9.395  12.503
61850SOL    HW287448   1.945   9.318  12.625
61851SOL     OW87449   5.349   3.237  10.023
61851SOL    HW187450   5.317   3.295   9.954
61851SOL    HW287451   5.274   3.227  10.082
61852SOL     OW87452   3.220   1.779  13.448
61852SOL    HW187453   3.164   1.785  13.526
61852SOL    HW287454   3.244   1.869  13.428
61853SOL     OW87455   7.499  14.803   2.098
61853SOL    HW187456   7.508  14.870   2.031
61853SOL    HW287457   7.484  14.852   2.179
61854SOL     OW87458   4.212   9.913  10.197
61854SOL    HW187459   4.273   9.954  10.258
61854SOL    HW287460   4.241   9.941  10.111
61855SOL     OW87461   5.162   7.989   2.499
61855SOL    HW187462   5.144   8.048   2.425
61855SOL    HW287463   5.138   7.902   2.466
61856SOL     OW87464   4.320   9.588  13.764
61856SOL    HW187465   4.340   9.632  13.682
61856SOL    HW287466   4.401   9.544  13.788
61857SOL     OW87467   0.041   2.218  10.569
61857SOL    HW187468  14.853   2.155  10.528
61857SOL    HW287469   0.125   2.172  10.575
61858SOL     OW87470   0.391   5.176   0.106
61858SOL    HW187471   0.305   5.196   0.071
61858SOL    HW287472   0.405   5.242   0.174
61859SOL     OW87473   6.340   8.788   8.863
61859SOL    HW187474   6.375   8.831   8.941
61859SOL    HW287475   6.334   8.696   8.886
61860SOL     OW87476  14.788  10.873   2.307
61860SOL    HW187477   0.010  10.891   2.298
61860SOL    HW287478  14.745  10.952   2.276
61861SOL     OW87479  13.190   5.166   1.615
61861SOL    HW187480  13.216   5.256   1.637
61861SOL    HW287481  13.096   5.163   1.631
61862SOL     OW87482   5.150   3.954   8.208
61862SOL    HW187483   5.123   4.044   8.188
61862SOL    HW287484   5.245   3.959   8.217
61863SOL     OW87485  10.076  10.501   6.089
61863SOL    HW187486  10.015  10.566   6.052
61863SOL    HW287487  10.162  10.531   6.060
61864SOL     OW87488   4.775   4.894  10.789
61864SOL    HW187489   4.870   4.904  10.788
61864SOL    HW287490   4.746   4.936  10.870
61865SOL     OW87491   5.975   4.079  14.541
61865SOL    HW187492   6.055   4.035  14.514
61865SOL    HW287493   5.904   4.025  14.506
61866SOL     OW87494  14.011   0.989   7.628
61866SOL    HW187495  14.032   0.996   7.722
61866SOL    HW287496  14.062   1.059   7.587
61867SOL     OW87497   0.606  11.549   8.269
61867SOL    HW187498   0.640  11.475   8.318
61867SOL    HW287499   0.538  11.587   8.325
61868SOL     OW87500   1.796  11.726   5.204
61868SOL    HW187501   1.749  11.737   5.121
61868SOL    HW287502   1.837  11.811   5.219
61869SOL     OW87503   0.560   1.112   9.352
61869SOL    HW187504   0.513   1.186   9.392
61869SOL    HW287505   0.594   1.062   9.426
61870SOL     OW87506  14.544  14.197   5.528
61870SOL    HW187507  14.464  14.226   5.484
61870SOL    HW287508  14.523  14.201   5.621
61871SOL     OW87509   4.921  11.939   7.729
61871SOL    HW187510   4.906  11.867   7.789
61871SOL    HW287511   4.834  11.970   7.704
61872SOL     OW87512   2.379  13.004   5.260
61872SOL    HW187513   2.407  13.089   5.227
61872SOL    HW287514   2.398  12.943   5.189
61873SOL     OW87515  13.992  12.867   9.097
61873SOL    HW187516  13.939  12.843   9.173
61873SOL    HW287517  14.044  12.942   9.126
61874SOL     OW87518   2.342   3.016  10.658
61874SOL    HW187519   2.415   3.032  10.598
61874SOL    HW287520   2.310   3.103  10.682
61875SOL     OW87521   9.243   9.034  11.818
61875SOL    HW187522   9.268   9.123  11.841
61875SOL    HW287523   9.304   8.978  11.867
61876SOL     OW87524   9.760   1.478   6.047
61876SOL    HW187525   9.737   1.559   6.093
61876SOL    HW287526   9.796   1.507   5.963
61877SOL     OW87527   2.522   1.645  12.419
61877SOL    HW187528   2.551   1.601  12.499
61877SOL    HW287529   2.440   1.602  12.395
61878SOL     OW87530   2.345   6.005  11.456
61878SOL    HW187531   2.403   5.983  11.529
61878SOL    HW287532   2.360   6.099  11.442
61879SOL     OW87533   6.454  14.674   0.349
61879SOL    HW187534   6.409  14.753   0.380
61879SOL    HW287535   6.545  14.686   0.375
61880SOL     OW87536   2.772  12.318  14.560
61880SOL    HW187537   2.749  12.300  14.651
61880SOL    HW287538   2.862  12.287  14.552
61881SOL     OW87539  10.126   9.419  11.145
61881SOL    HW187540  10.164   9.369  11.217
61881SOL    HW287541  10.158   9.509  11.158
61882SOL     OW87542  12.016   1.598  10.655
61882SOL    HW187543  11.931   1.643  10.655
61882SOL    HW287544  12.027   1.566  10.566
61883SOL     OW87545  10.346   1.047   4.171
61883SOL    HW187546  10.268   0.994   4.154
61883SOL    HW287547  10.390   1.053   4.086
61884SOL     OW87548  12.427  13.989   3.961
61884SOL    HW187549  12.419  14.081   3.935
61884SOL    HW287550  12.341  13.951   3.943
61885SOL     OW87551  14.111   5.412   9.571
61885SOL    HW187552  14.163   5.482   9.611
61885SOL    HW287553  14.150   5.400   9.484
61886SOL     OW87554   5.301   8.036   2.044
61886SOL    HW187555   5.294   8.061   1.952
61886SOL    HW287556   5.395   8.026   2.059
61887SOL     OW87557   3.480   5.666   8.059
61887SOL    HW187558   3.509   5.603   8.125
61887SOL    HW287559   3.505   5.628   7.975
61888SOL     OW87560  13.322   5.482  14.303
61888SOL    HW187561  13.295   5.566  14.266
61888SOL    HW287562  13.271   5.416  14.256
61889SOL     OW87563  13.867  11.054  13.662
61889SOL    HW187564  13.805  11.116  13.623
61889SOL    HW287565  13.886  10.993  13.592
61890SOL     OW87566   2.500  13.082   5.816
61890SOL    HW187567   2.453  13.122   5.742
61890SOL    HW287568   2.510  12.990   5.792
61891SOL     OW87569  13.678   8.206   2.277
61891SOL    HW187570  13.772   8.198   2.263
61891SOL    HW287571  13.658   8.143   2.347
61892SOL     OW87572  14.216  12.909   0.296
61892SOL    HW187573  14.155  12.838   0.273
61892SOL    HW287574  14.170  12.959   0.363
61893SOL     OW87575  10.030   6.727   9.024
61893SOL    HW187576  10.068   6.710   8.937
61893SOL    HW287577  10.010   6.640   9.058
61894SOL     OW87578  13.760   7.992   5.581
61894SOL    HW187579  13.775   7.898   5.568
61894SOL    HW287580  13.665   8.000   5.589
61895SOL     OW87581   5.906  14.235   3.092
61895SOL    HW187582   5.976  14.300   3.099
61895SOL    HW287583   5.904  14.193   3.178
61896SOL     OW87584   9.447   4.616   4.653
61896SOL    HW187585   9.441   4.539   4.710
61896SOL    HW287586   9.371   4.669   4.678
61897SOL     OW87587   7.547  13.258   5.951
61897SOL    HW187588   7.466  13.294   5.988
61897SOL    HW287589   7.517  13.191   5.889
61898SOL     OW87590   0.936   5.041  12.102
61898SOL    HW187591   0.997   5.032  12.176
61898SOL    HW287592   0.961   4.970  12.042
61899SOL     OW87593  11.226   4.206  12.808
61899SOL    HW187594  11.188   4.274  12.864
61899SOL    HW287595  11.319   4.205  12.831
61900SOL     OW87596  10.325  12.908   9.558
61900SOL    HW187597  10.316  12.820   9.594
61900SOL    HW287598  10.242  12.925   9.514
61901SOL     OW87599  11.956   1.427   9.597
61901SOL    HW187600  12.015   1.432   9.521
61901SOL    HW287601  11.945   1.333   9.612
61902SOL     OW87602   4.759   4.280   4.556
61902SOL    HW187603   4.796   4.342   4.493
61902SOL    HW287604   4.665   4.299   4.557
61903SOL     OW87605   6.415  13.874   3.682
61903SOL    HW187606   6.366  13.802   3.721
61903SOL    HW287607   6.350  13.923   3.632
61904SOL     OW87608  10.865   8.597   7.965
61904SOL    HW187609  10.813   8.667   8.005
61904SOL    HW287610  10.804   8.552   7.907
61905SOL     OW87611   7.430   3.777   8.304
61905SOL    HW187612   7.389   3.697   8.271
61905SOL    HW287613   7.471   3.816   8.227
61906SOL     OW87614  10.696   2.563   4.496
61906SOL    HW187615  10.640   2.491   4.522
61906SOL    HW287616  10.741   2.589   4.577
61907SOL     OW87617  13.304  10.419   3.312
61907SOL    HW187618  13.370  10.474   3.270
61907SOL    HW287619  13.220  10.458   3.288
61908SOL     OW87620  11.596   9.075   9.764
61908SOL    HW187621  11.609   9.138   9.693
61908SOL    HW287622  11.626   8.992   9.728
61909SOL     OW87623   1.300  12.609  13.206
61909SOL    HW187624   1.384  12.643  13.237
61909SOL    HW287625   1.251  12.591  13.286
61910SOL     OW87626   8.156   5.006   5.924
61910SOL    HW187627   8.080   4.993   5.980
61910SOL    HW287628   8.227   5.030   5.985
61911SOL     OW87629   7.270   0.680  10.264
61911SOL    HW187630   7.329   0.730  10.207
61911SOL    HW287631   7.248   0.602  10.214
61912SOL     OW87632   0.060   4.694   8.478
61912SOL    HW187633  14.836   4.704   8.488
61912SOL    HW287634   0.086   4.768   8.424
61913SOL     OW87635   9.863  13.044   4.491
61913SOL    HW187636   9.853  12.949   4.491
61913SOL    HW287637   9.773  13.077   4.485
61914SOL     OW87638  11.571   5.874  14.764
61914SOL    HW187639  11.516   5.923  14.824
61914SOL    HW287640  11.601   5.938  14.700
61915SOL     OW87641   3.397   4.604  14.203
61915SOL    HW187642   3.425   4.642  14.286
61915SOL    HW287643   3.316   4.557  14.225
61916SOL     OW87644   4.176   1.514   3.688
61916SOL    HW187645   4.182   1.576   3.615
61916SOL    HW287646   4.174   1.570   3.766
61917SOL     OW87647   0.970   7.104  14.305
61917SOL    HW187648   0.947   7.017  14.336
61917SOL    HW287649   0.922   7.113  14.222
61918SOL     OW87650   8.749   7.650  14.390
61918SOL    HW187651   8.736   7.581  14.454
61918SOL    HW287652   8.839   7.679  14.403
61919SOL     OW87653  10.869  10.847   9.552
61919SOL    HW187654  10.845  10.898   9.474
61919SOL    HW287655  10.795  10.788   9.565
61920SOL     OW87656  12.213   2.738   7.320
61920SOL    HW187657  12.275   2.772   7.256
61920SOL    HW287658  12.148   2.809   7.330
61921SOL     OW87659  11.580   5.067  13.303
61921SOL    HW187660  11.627   5.000  13.352
61921SOL    HW287661  11.601   5.048  13.211
61922SOL     OW87662   9.424  13.741  12.232
61922SOL    HW187663   9.338  13.752  12.272
61922SOL    HW287664   9.408  13.689  12.154
61923SOL     OW87665   9.441   6.082   5.658
61923SOL    HW187666   9.430   6.177   5.664
61923SOL    HW287667   9.412   6.060   5.569
61924SOL     OW87668   1.830   7.002   2.887
61924SOL    HW187669   1.829   6.926   2.829
61924SOL    HW287670   1.917   7.040   2.876
61925SOL     OW87671   5.303   9.322   2.296
61925SOL    HW187672   5.310   9.246   2.237
61925SOL    HW287673   5.375   9.311   2.358
61926SOL     OW87674  12.043   7.804   1.485
61926SOL    HW187675  12.044   7.894   1.517
61926SOL    HW287676  11.963   7.767   1.522
61927SOL     OW87677   3.695   9.465  12.987
61927SOL    HW187678   3.753   9.408  13.038
61927SOL    HW287679   3.726   9.457  12.897
61928SOL     OW87680   3.177   8.628  13.668
61928SOL    HW187681   3.131   8.571  13.607
61928SOL    HW287682   3.224   8.568  13.725
61929SOL     OW87683   0.687  13.577   4.508
61929SOL    HW187684   0.677  13.489   4.471
61929SOL    HW287685   0.606  13.621   4.486
61930SOL     OW87686  13.404   2.808   4.985
61930SOL    HW187687  13.500   2.814   4.977
61930SOL    HW287688  13.387   2.714   4.992
61931SOL     OW87689   3.651  10.293  10.497
61931SOL    HW187690   3.675  10.212  10.452
61931SOL    HW287691   3.631  10.355  10.426
61932SOL     OW87692   5.214   8.164   4.813
61932SOL    HW187693   5.148   8.144   4.746
61932SOL    HW287694   5.250   8.249   4.787
61933SOL     OW87695   9.959  13.411   8.538
61933SOL    HW187696   9.993  13.323   8.524
61933SOL    HW287697   9.937  13.442   8.450
61934SOL     OW87698   6.509   0.984   2.080
61934SOL    HW187699   6.518   1.078   2.092
61934SOL    HW287700   6.594   0.948   2.104
61935SOL     OW87701  10.780   2.142  14.026
61935SOL    HW187702  10.815   2.094  13.951
61935SOL    HW287703  10.838   2.218  14.035
61936SOL     OW87704  12.377  10.281   4.491
61936SOL    HW187705  12.359  10.214   4.558
61936SOL    HW287706  12.464  10.259   4.457
61937SOL     OW87707  10.132   5.816  11.731
61937SOL    HW187708  10.099   5.726  11.724
61937SOL    HW287709  10.105   5.845  11.818
61938SOL     OW87710  14.349   9.032   3.192
61938SOL    HW187711  14.404   9.102   3.155
61938SOL    HW287712  14.341   8.968   3.120
61939SOL     OW87713   3.448   0.349   5.125
61939SOL    HW187714   3.365   0.372   5.165
61939SOL    HW287715   3.499   0.310   5.196
61940SOL     OW87716  10.319   6.914   8.097
61940SOL    HW187717  10.389   6.912   8.032
61940SOL    HW287718  10.255   6.850   8.066
61941SOL     OW87719   0.452   3.118   5.493
61941SOL    HW187720   0.537   3.100   5.453
61941SOL    HW287721   0.470   3.190   5.554
61942SOL     OW87722   4.124  12.034   3.425
61942SOL    HW187723   4.052  11.980   3.458
61942SOL    HW287724   4.160  12.077   3.504
61943SOL     OW87725   8.092   1.725   2.892
61943SOL    HW187726   8.019   1.727   2.829
61943SOL    HW287727   8.082   1.642   2.938
61944SOL     OW87728  13.302   0.360   1.426
61944SOL    HW187729  13.295   0.438   1.371
61944SOL    HW287730  13.329   0.291   1.366
61945SOL     OW87731  11.037   3.852   0.814
61945SOL    HW187732  10.978   3.892   0.878
61945SOL    HW287733  11.082   3.926   0.773
61946SOL     OW87734  13.330   0.520   5.968
61946SOL    HW187735  13.362   0.608   5.951
61946SOL    HW287736  13.356   0.502   6.058
61947SOL     OW87737   9.154   4.067   4.671
61947SOL    HW187738   9.221   4.008   4.638
61947SOL    HW287739   9.186   4.094   4.758
61948SOL     OW87740  10.483   6.792   3.903
61948SOL    HW187741  10.405   6.840   3.876
61948SOL    HW287742  10.483   6.713   3.849
61949SOL     OW87743   0.933  11.475   8.853
61949SOL    HW187744   0.999  11.409   8.875
61949SOL    HW287745   0.866  11.465   8.921
61950SOL     OW87746   7.802   9.164   3.714
61950SOL    HW187747   7.889   9.199   3.694
61950SOL    HW287748   7.819   9.081   3.758
61951SOL     OW87749   2.176   6.372  10.774
61951SOL    HW187750   2.094   6.342  10.734
61951SOL    HW287751   2.227   6.408  10.700
61952SOL     OW87752   6.741  13.607   2.565
61952SOL    HW187753   6.810  13.674   2.562
61952SOL    HW287754   6.707  13.604   2.476
61953SOL     OW87755   9.966   6.348   1.110
61953SOL    HW187756  10.005   6.329   1.025
61953SOL    HW287757   9.906   6.275   1.126
61954SOL     OW87758  13.956  13.135  10.275
61954SOL    HW187759  13.917  13.067  10.221
61954SOL    HW287760  14.051  13.118  10.270
61955SOL     OW87761   3.933   7.873  10.304
61955SOL    HW187762   4.021   7.857  10.271
61955SOL    HW287763   3.942   7.871  10.399
61956SOL     OW87764   2.613   5.792  14.595
61956SOL    HW187765   2.547   5.854  14.562
61956SOL    HW287766   2.696   5.836  14.582
61957SOL     OW87767   8.474  10.310   2.221
61957SOL    HW187768   8.544  10.335   2.281
61957SOL    HW287769   8.517  10.259   2.153
61958SOL     OW87770  14.383   0.657  10.158
61958SOL    HW187771  14.378   0.699  10.244
61958SOL    HW287772  14.337   0.574  10.169
61959SOL     OW87773   3.610  11.253  11.372
61959SOL    HW187774   3.518  11.234  11.388
61959SOL    HW287775   3.656  11.175  11.404
61960SOL     OW87776  11.496  11.717  10.910
61960SOL    HW187777  11.564  11.772  10.948
61960SOL    HW287778  11.466  11.661  10.982
61961SOL     OW87779   7.561   9.392   5.546
61961SOL    HW187780   7.487   9.449   5.527
61961SOL    HW287781   7.556   9.377   5.641
61962SOL     OW87782   4.339   1.995   3.388
61962SOL    HW187783   4.405   1.951   3.441
61962SOL    HW287784   4.264   2.007   3.446
61963SOL     OW87785  13.508  12.631   5.927
61963SOL    HW187786  13.588  12.579   5.935
61963SOL    HW287787  13.497  12.644   5.833
61964SOL     OW87788   0.160   7.275   6.540
61964SOL    HW187789   0.204   7.202   6.584
61964SOL    HW287790   0.088   7.235   6.492
61965SOL     OW87791   9.405   9.051   6.574
61965SOL    HW187792   9.501   9.059   6.575
61965SOL    HW287793   9.376   9.127   6.524
61966SOL     OW87794   1.344   9.471   3.092
61966SOL    HW187795   1.319   9.447   3.002
61966SOL    HW287796   1.261   9.481   3.138
61967SOL     OW87797   5.705   8.098   7.644
61967SOL    HW187798   5.748   8.176   7.611
61967SOL    HW287799   5.633   8.131   7.698
61968SOL     OW87800  10.630   0.887   1.313
61968SOL    HW187801  10.550   0.913   1.357
61968SOL    HW287802  10.690   0.961   1.326
61969SOL     OW87803   1.640  11.348   8.243
61969SOL    HW187804   1.612  11.423   8.296
61969SOL    HW287805   1.692  11.388   8.172
61970SOL     OW87806  13.142  13.762   1.952
61970SOL    HW187807  13.222  13.745   1.903
61970SOL    HW287808  13.123  13.680   1.997
61971SOL     OW87809   1.230   4.675   5.081
61971SOL    HW187810   1.284   4.746   5.046
61971SOL    HW287811   1.152   4.718   5.114
61972SOL     OW87812   3.369   1.772   0.880
61972SOL    HW187813   3.405   1.846   0.831
61972SOL    HW287814   3.274   1.784   0.875
61973SOL     OW87815  11.332  13.295  13.839
61973SOL    HW187816  11.277  13.223  13.811
61973SOL    HW287817  11.328  13.293  13.935
61974SOL     OW87818   4.054   3.968   3.418
61974SOL    HW187819   4.126   4.025   3.390
61974SOL    HW287820   4.097   3.901   3.471
61975SOL     OW87821   1.589   0.471   2.910
61975SOL    HW187822   1.638   0.485   2.829
61975SOL    HW287823   1.586   0.376   2.920
61976SOL     OW87824  12.983   5.576   1.254
61976SOL    HW187825  12.977   5.487   1.219
61976SOL    HW287826  13.051   5.618   1.200
61977SOL     OW87827  14.257  11.112   1.224
61977SOL    HW187828  14.285  11.161   1.301
61977SOL    HW287829  14.197  11.045   1.258
61978SOL     OW87830  11.822   4.343   9.882
61978SOL    HW187831  11.754   4.360   9.948
61978SOL    HW287832  11.809   4.252   9.857
61979SOL     OW87833   9.550   1.841   8.469
61979SOL    HW187834   9.583   1.928   8.447
61979SOL    HW287835   9.559   1.835   8.564
61980SOL     OW87836  11.296   9.011   6.245
61980SOL    HW187837  11.379   8.964   6.248
61980SOL    HW287838  11.311   9.082   6.182
61981SOL     OW87839  11.856   9.411   8.198
61981SOL    HW187840  11.887   9.448   8.116
61981SOL    HW287841  11.875   9.478   8.264
61982SOL     OW87842   7.063  12.439  12.762
61982SOL    HW187843   7.098  12.421  12.850
61982SOL    HW287844   6.975  12.402  12.764
61983SOL     OW87845   3.647  10.543   2.010
61983SOL    HW187846   3.687  10.530   2.096
61983SOL    HW287847   3.646  10.638   1.997
61984SOL     OW87848  10.638  11.988   1.389
61984SOL    HW187849  10.548  11.957   1.394
61984SOL    HW287850  10.653  12.003   1.295
61985SOL     OW87851   2.440   5.177  10.020
61985SOL    HW187852   2.497   5.247  10.054
61985SOL    HW287853   2.443   5.110  10.087
61986SOL     OW87854  11.016   4.599   4.299
61986SOL    HW187855  10.949   4.666   4.304
61986SOL    HW287856  11.095   4.641   4.335
61987SOL     OW87857   9.823   4.186  12.421
61987SOL    HW187858   9.807   4.279  12.411
61987SOL    HW287859   9.892   4.166  12.358
61988SOL     OW87860  14.065  13.521   3.906
61988SOL    HW187861  14.048  13.613   3.927
61988SOL    HW287862  14.159  13.518   3.888
61989SOL     OW87863   2.143  11.948   4.090
61989SOL    HW187864   2.127  11.980   4.002
61989SOL    HW287865   2.136  11.852   4.083
61990SOL     OW87866   6.206   4.818   6.256
61990SOL    HW187867   6.269   4.852   6.193
61990SOL    HW287868   6.122   4.825   6.212
61991SOL     OW87869   4.033   8.020   2.637
61991SOL    HW187870   3.957   7.977   2.675
61991SOL    HW287871   4.030   8.109   2.672
61992SOL     OW87872   9.311   4.492   1.091
61992SOL    HW187873   9.382   4.548   1.123
61992SOL    HW287874   9.262   4.549   1.031
61993SOL     OW87875  10.760  12.832  11.381
61993SOL    HW187876  10.751  12.927  11.389
61993SOL    HW287877  10.818  12.808  11.453
61994SOL     OW87878   9.204   5.092   2.762
61994SOL    HW187879   9.131   5.151   2.743
61994SOL    HW287880   9.253   5.087   2.680
61995SOL     OW87881  12.926   3.066   4.124
61995SOL    HW187882  12.881   3.125   4.185
61995SOL    HW287883  13.008   3.110   4.104
61996SOL     OW87884   9.781  12.446   9.945
61996SOL    HW187885   9.716  12.377   9.954
61996SOL    HW287886   9.813  12.437   9.855
61997SOL     OW87887   8.839   8.936   7.369
61997SOL    HW187888   8.932   8.920   7.354
61997SOL    HW287889   8.803   8.851   7.395
61998SOL     OW87890  10.605   5.286   2.684
61998SOL    HW187891  10.653   5.360   2.648
61998SOL    HW287892  10.600   5.303   2.778
61999SOL     OW87893   5.676   5.411  10.719
61999SOL    HW187894   5.674   5.480  10.785
61999SOL    HW287895   5.764   5.375  10.724
62000SOL     OW87896   2.556  12.427   5.343
62000SOL    HW187897   2.647  12.444   5.321
62000SOL    HW287898   2.540  12.477   5.423
62001SOL     OW87899   6.502   3.752  13.132
62001SOL    HW187900   6.592   3.722  13.132
62001SOL    HW287901   6.508   3.847  13.146
62002SOL     OW87902   8.218  14.700  11.747
62002SOL    HW187903   8.304  14.705  11.788
62002SOL    HW287904   8.215  14.776  11.689
62003SOL     OW87905  12.340   1.111   7.250
62003SOL    HW187906  12.307   1.025   7.277
62003SOL    HW287907  12.307   1.121   7.161
62004SOL     OW87908  11.439  12.309   2.727
62004SOL    HW187909  11.425  12.388   2.779
62004SOL    HW287910  11.352  12.271   2.714
62005SOL     OW87911   1.548  11.692   1.676
62005SOL    HW187912   1.508  11.755   1.735
62005SOL    HW287913   1.529  11.607   1.716
62006SOL     OW87914   0.636   3.651  12.407
62006SOL    HW187915   0.689   3.632  12.329
62006SOL    HW287916   0.689   3.711  12.458
62007SOL     OW87917   5.917   4.757   8.734
62007SOL    HW187918   5.920   4.695   8.661
62007SOL    HW287919   5.998   4.807   8.726
62008SOL     OW87920  10.373  12.270  11.653
62008SOL    HW187921  10.422  12.352  11.656
62008SOL    HW287922  10.325  12.274  11.570
62009SOL     OW87923   0.482  13.920   1.746
62009SOL    HW187924   0.393  13.897   1.719
62009SOL    HW287925   0.534  13.841   1.727
62010SOL     OW87926  11.178  10.182  13.362
62010SOL    HW187927  11.139  10.263  13.328
62010SOL    HW287928  11.200  10.201  13.453
62011SOL     OW87929   5.300   9.383   6.784
62011SOL    HW187930   5.382   9.367   6.830
62011SOL    HW287931   5.308   9.334   6.702
62012SOL     OW87932   8.503   2.071   2.309
62012SOL    HW187933   8.481   2.160   2.280
62012SOL    HW287934   8.510   2.020   2.229
62013SOL     OW87935   8.765   5.881  10.561
62013SOL    HW187936   8.790   5.973  10.550
62013SOL    HW287937   8.681   5.885  10.607
62014SOL     OW87938   7.104   2.205   2.579
62014SOL    HW187939   7.030   2.231   2.633
62014SOL    HW287940   7.180   2.210   2.638
62015SOL     OW87941  14.010  11.199   1.462
62015SOL    HW187942  14.098  11.211   1.426
62015SOL    HW287943  14.025  11.171   1.552
62016SOL     OW87944  14.510   4.753  10.852
62016SOL    HW187945  14.436   4.791  10.900
62016SOL    HW287946  14.472   4.729  10.767
62017SOL     OW87947  14.088   1.644   8.958
62017SOL    HW187948  14.118   1.569   9.009
62017SOL    HW287949  14.138   1.718   8.993
62018SOL     OW87950   7.049   0.567   5.529
62018SOL    HW187951   7.143   0.560   5.514
62018SOL    HW287952   7.012   0.490   5.486
62019SOL     OW87953   4.817   1.779   7.513
62019SOL    HW187954   4.911   1.787   7.530
62019SOL    HW287955   4.799   1.686   7.522
62020SOL     OW87956  14.009   7.298   8.171
62020SOL    HW187957  14.003   7.378   8.222
62020SOL    HW287958  13.964   7.232   8.225
62021SOL     OW87959   9.974   8.707   8.425
62021SOL    HW187960   9.890   8.668   8.448
62021SOL    HW287961   9.974   8.792   8.470
62022SOL     OW87962   0.940   4.277  14.722
62022SOL    HW187963   0.912   4.249  14.635
62022SOL    HW287964   0.906   4.366  14.732
62023SOL     OW87965  11.259   9.085   8.320
62023SOL    HW187966  11.265   9.131   8.404
62023SOL    HW287967  11.303   9.142   8.257
62024SOL     OW87968   4.353   4.989  13.305
62024SOL    HW187969   4.400   5.056  13.255
62024SOL    HW287970   4.316   5.036  13.380
62025SOL     OW87971   1.948  12.447   3.742
62025SOL    HW187972   1.926  12.438   3.649
62025SOL    HW287973   1.902  12.526   3.770
62026SOL     OW87974  10.665  13.697   5.425
62026SOL    HW187975  10.573  13.670   5.426
62026SOL    HW287976  10.714  13.615   5.437
62027SOL     OW87977   4.433   2.589   4.097
62027SOL    HW187978   4.351   2.636   4.106
62027SOL    HW287979   4.469   2.584   4.185
62028SOL     OW87980  14.768   2.570   6.706
62028SOL    HW187981  14.735   2.558   6.617
62028SOL    HW287982  14.857   2.602   6.694
62029SOL     OW87983  14.407   1.175   5.894
62029SOL    HW187984  14.334   1.142   5.842
62029SOL    HW287985  14.478   1.188   5.831
62030SOL     OW87986   8.249   4.227   2.201
62030SOL    HW187987   8.187   4.155   2.192
62030SOL    HW287988   8.334   4.185   2.213
62031SOL     OW87989   5.115  11.737   6.020
62031SOL    HW187990   5.075  11.743   6.106
62031SOL    HW287991   5.134  11.828   5.996
62032SOL     OW87992   0.923   2.128  10.557
62032SOL    HW187993   0.910   2.038  10.586
62032SOL    HW287994   1.001   2.125  10.501
62033SOL     OW87995  10.791  10.725   5.537
62033SOL    HW187996  10.855  10.789   5.505
62033SOL    HW287997  10.841  10.645   5.549
62034SOL     OW87998   1.332   2.294   0.848
62034SOL    HW187999   1.271   2.229   0.814
62034SOL    HW288000   1.315   2.372   0.796
62035SOL     OW88001   0.726   0.008   1.621
62035SOL    HW188002   0.658   0.037   1.682
62035SOL    HW288003   0.701  14.791   1.598
62036SOL     OW88004   9.034   5.085   9.143
62036SOL    HW188005   9.063   5.010   9.194
62036SOL    HW288006   9.051   5.160   9.200
62037SOL     OW88007  12.160   7.259   5.038
62037SOL    HW188008  12.118   7.174   5.023
62037SOL    HW288009  12.203   7.279   4.955
62038SOL     OW88010  13.419   7.878  13.867
62038SOL    HW188011  13.465   7.809  13.819
62038SOL    HW288012  13.337   7.890  13.819
62039SOL     OW88013   0.452   5.900  11.489
62039SOL    HW188014   0.501   5.933  11.564
62039SOL    HW288015   0.387   5.968  11.471
62040SOL     OW88016   7.594   8.690  13.347
62040SOL    HW188017   7.545   8.680  13.266
62040SOL    HW288018   7.550   8.631  13.409
62041SOL     OW88019   0.428   9.925   1.022
62041SOL    HW188020   0.523   9.913   1.010
62041SOL    HW288021   0.389   9.875   0.949
62042SOL     OW88022  12.686  14.181   7.711
62042SOL    HW188023  12.660  14.137   7.630
62042SOL    HW288024  12.606  14.223   7.742
62043SOL     OW88025   4.663   9.931   2.918
62043SOL    HW188026   4.711  10.011   2.895
62043SOL    HW288027   4.572   9.951   2.899
62044SOL     OW88028  10.778   3.982  13.613
62044SOL    HW188029  10.842   3.928  13.660
62044SOL    HW288030  10.737   4.036  13.681
62045SOL     OW88031  10.027  10.272   2.331
62045SOL    HW188032  10.007  10.361   2.359
62045SOL    HW288033  10.095  10.282   2.265
62046SOL     OW88034   7.171  11.248   2.168
62046SOL    HW188035   7.110  11.177   2.186
62046SOL    HW288036   7.120  11.328   2.181
62047SOL     OW88037   3.591  11.660   6.758
62047SOL    HW188038   3.612  11.587   6.818
62047SOL    HW288039   3.652  11.649   6.685
62048SOL     OW88040  11.213   6.925  10.222
62048SOL    HW188041  11.283   6.989  10.211
62048SOL    HW288042  11.132   6.973  10.204
62049SOL     OW88043  12.957   1.310   2.920
62049SOL    HW188044  12.933   1.399   2.947
62049SOL    HW288045  12.979   1.266   3.002
62050SOL     OW88046   3.434   9.482   9.079
62050SOL    HW188047   3.485   9.546   9.029
62050SOL    HW288048   3.458   9.397   9.043
62051SOL     OW88049   5.269  10.017  11.541
62051SOL    HW188050   5.362  10.022  11.516
62051SOL    HW288051   5.269  10.034  11.635
62052SOL     OW88052   1.774   3.649  10.691
62052SOL    HW188053   1.737   3.612  10.610
62052SOL    HW288054   1.834   3.717  10.661
62053SOL     OW88055   2.794   8.609   2.043
62053SOL    HW188056   2.813   8.533   2.098
62053SOL    HW288057   2.877   8.655   2.037
62054SOL     OW88058   1.360  10.793   7.055
62054SOL    HW188059   1.355  10.728   6.985
62054SOL    HW288060   1.276  10.840   7.049
62055SOL     OW88061   6.057  13.720   1.865
62055SOL    HW188062   6.122  13.774   1.909
62055SOL    HW288063   6.093  13.705   1.778
62056SOL     OW88064  10.182   6.872   4.159
62056SOL    HW188065  10.135   6.954   4.172
62056SOL    HW288066  10.262   6.882   4.211
62057SOL     OW88067  13.075   4.627   6.470
62057SOL    HW188068  13.076   4.588   6.557
62057SOL    HW288069  12.992   4.598   6.432
62058SOL     OW88070  13.633   4.571   1.232
62058SOL    HW188071  13.635   4.627   1.155
62058SOL    HW288072  13.585   4.622   1.298
62059SOL     OW88073   8.811  10.834   3.582
62059SOL    HW188074   8.832  10.822   3.489
62059SOL    HW288075   8.894  10.818   3.627
62060SOL     OW88076  14.621   9.813   5.058
62060SOL    HW188077  14.580   9.858   5.131
62060SOL    HW288078  14.690   9.759   5.098
62061SOL     OW88079  12.904  11.779   6.197
62061SOL    HW188080  12.840  11.743   6.135
62061SOL    HW288081  12.907  11.872   6.177
62062SOL     OW88082  13.149  13.889   7.796
62062SOL    HW188083  13.114  13.971   7.830
62062SOL    HW288084  13.240  13.888   7.826
62063SOL     OW88085  14.126  13.617  10.153
62063SOL    HW188086  14.214  13.650  10.136
62063SOL    HW288087  14.082  13.622  10.068
62064SOL     OW88088   6.230   2.863  11.522
62064SOL    HW188089   6.286   2.938  11.504
62064SOL    HW288090   6.174   2.856  11.445
62065SOL     OW88091  11.625   0.981  12.339
62065SOL    HW188092  11.675   0.948  12.414
62065SOL    HW288093  11.611   1.073  12.357
62066SOL     OW88094   1.229   2.486   3.801
62066SOL    HW188095   1.254   2.457   3.714
62066SOL    HW288096   1.289   2.557   3.821
62067SOL     OW88097   5.235   1.387   7.834
62067SOL    HW188098   5.149   1.416   7.804
62067SOL    HW288099   5.261   1.318   7.772
62068SOL     OW88100   2.667   1.030   6.169
62068SOL    HW188101   2.761   1.027   6.184
62068SOL    HW288102   2.658   1.054   6.077
62069SOL     OW88103   3.450   4.733   7.440
62069SOL    HW188104   3.521   4.742   7.377
62069SOL    HW288105   3.372   4.764   7.394
62070SOL     OW88106  13.056   4.550   6.764
62070SOL    HW188107  13.112   4.627   6.760
62070SOL    HW288108  13.117   4.476   6.758
62071SOL     OW88109  13.708  10.064   4.386
62071SOL    HW188110  13.646  10.137   4.384
62071SOL    HW288111  13.765  10.084   4.460
62072SOL     OW88112   8.075   0.898  13.434
62072SOL    HW188113   8.126   0.818  13.442
62072SOL    HW288114   8.115   0.959  13.496
62073SOL     OW88115  13.363   6.313   1.975
62073SOL    HW188116  13.405   6.360   2.047
62073SOL    HW288117  13.432   6.257   1.939
62074SOL     OW88118  11.265   4.971   8.424
62074SOL    HW188119  11.332   4.991   8.489
62074SOL    HW288120  11.222   5.054   8.408
62075SOL     OW88121   8.729  11.208   0.836
62075SOL    HW188122   8.761  11.238   0.921
62075SOL    HW288123   8.805  11.167   0.795
62076SOL     OW88124  11.922   8.797   7.337
62076SOL    HW188125  11.866   8.853   7.390
62076SOL    HW288126  11.871   8.779   7.258
62077SOL     OW88127   9.161  12.512  10.143
62077SOL    HW188128   9.242  12.468  10.168
62077SOL    HW288129   9.092  12.451  10.168
62078SOL     OW88130  10.919   6.434  11.903
62078SOL    HW188131  10.938   6.526  11.884
62078SOL    HW288132  10.830   6.421  11.871
62079SOL     OW88133  11.969   2.358   5.121
62079SOL    HW188134  11.955   2.287   5.185
62079SOL    HW288135  11.893   2.415   5.132
62080SOL     OW88136   0.805   4.555  10.399
62080SOL    HW188137   0.760   4.638  10.379
62080SOL    HW288138   0.895   4.568  10.369
62081SOL     OW88139   8.427  12.216   0.533
62081SOL    HW188140   8.391  12.149   0.476
62081SOL    HW288141   8.514  12.184   0.556
62082SOL     OW88142   7.165  11.522  10.630
62082SOL    HW188143   7.213  11.526  10.713
62082SOL    HW288144   7.116  11.440  10.635
62083SOL     OW88145   0.429   7.654  12.555
62083SOL    HW188146   0.430   7.698  12.640
62083SOL    HW288147   0.514   7.674  12.517
62084SOL     OW88148  13.618   6.955  12.559
62084SOL    HW188149  13.558   6.932  12.630
62084SOL    HW288150  13.670   7.027  12.595
62085SOL     OW88151   8.850   8.652   5.595
62085SOL    HW188152   8.872   8.570   5.640
62085SOL    HW288153   8.862   8.632   5.502
62086SOL     OW88154  11.096   9.080   4.433
62086SOL    HW188155  11.001   9.083   4.418
62086SOL    HW288156  11.123   8.995   4.398
62087SOL     OW88157   7.042   4.869   8.917
62087SOL    HW188158   7.037   4.918   8.999
62087SOL    HW288159   6.975   4.801   8.925
62088SOL     OW88160   3.511  13.359  11.360
62088SOL    HW188161   3.479  13.366  11.450
62088SOL    HW288162   3.526  13.449  11.331
62089SOL     OW88163   3.768  10.491   6.686
62089SOL    HW188164   3.771  10.444   6.603
62089SOL    HW288165   3.799  10.579   6.665
62090SOL     OW88166  10.505  11.822   7.052
62090SOL    HW188167  10.413  11.796   7.039
62090SOL    HW288168  10.547  11.800   6.969
62091SOL     OW88169  13.657  12.558  13.503
62091SOL    HW188170  13.706  12.639  13.511
62091SOL    HW288171  13.723  12.490  13.493
62092SOL     OW88172  12.706   1.798   7.307
62092SOL    HW188173  12.653   1.842   7.374
62092SOL    HW288174  12.773   1.862   7.284
62093SOL     OW88175   5.139   7.657   8.418
62093SOL    HW188176   5.174   7.741   8.387
62093SOL    HW288177   5.208   7.594   8.397
62094SOL     OW88178   3.295   0.791  12.911
62094SOL    HW188179   3.217   0.828  12.870
62094SOL    HW288180   3.343   0.867  12.943
62095SOL     OW88181   1.040  12.684   0.899
62095SOL    HW188182   1.057  12.760   0.955
62095SOL    HW288183   1.070  12.712   0.812
62096SOL     OW88184   7.143   4.553   2.804
62096SOL    HW188185   7.186   4.626   2.759
62096SOL    HW288186   7.188   4.546   2.888
62097SOL     OW88187  13.911   2.937   3.834
62097SOL    HW188188  13.874   2.854   3.866
62097SOL    HW288189  13.871   3.003   3.891
62098SOL     OW88190  14.256   9.880   5.616
62098SOL    HW188191  14.252   9.946   5.685
62098SOL    HW288192  14.323   9.819   5.645
62099SOL     OW88193   6.628   2.097  13.250
62099SOL    HW188194   6.557   2.041  13.283
62099SOL    HW288195   6.624   2.175  13.305
62100SOL     OW88196   0.396   3.978   8.481
62100SOL    HW188197   0.410   3.996   8.388
62100SOL    HW288198   0.302   3.991   8.494
62101SOL     OW88199  11.814   4.249   6.525
62101SOL    HW188200  11.836   4.161   6.493
62101SOL    HW288201  11.898   4.296   6.524
62102SOL     OW88202   2.835   4.159   7.136
62102SOL    HW188203   2.823   4.128   7.226
62102SOL    HW288204   2.760   4.216   7.119
62103SOL     OW88205   4.008   0.805  12.510
62103SOL    HW188206   4.031   0.814  12.418
62103SOL    HW288207   3.912   0.806  12.511
62104SOL     OW88208   7.258  10.373   3.491
62104SOL    HW188209   7.232  10.455   3.533
62104SOL    HW288210   7.305  10.325   3.559
62105SOL     OW88211   5.585   3.610  13.012
62105SOL    HW188212   5.659   3.671  13.014
62105SOL    HW288213   5.530   3.635  13.087
62106SOL     OW88214   9.562   0.050   1.304
62106SOL    HW188215   9.516  14.839   1.321
62106SOL    HW288216   9.495   0.107   1.265
62107SOL     OW88217   8.303   7.756   9.335
62107SOL    HW188218   8.256   7.686   9.380
62107SOL    HW288219   8.241   7.791   9.272
62108SOL     OW88220  11.792   4.306   9.430
62108SOL    HW188221  11.723   4.245   9.407
62108SOL    HW288222  11.777   4.326   9.523
62109SOL     OW88223   9.812  12.375  13.691
62109SOL    HW188224   9.783  12.341  13.606
62109SOL    HW288225   9.877  12.442  13.669
62110SOL     OW88226  13.327   8.312   5.513
62110SOL    HW188227  13.283   8.362   5.582
62110SOL    HW288228  13.362   8.379   5.454
62111SOL     OW88229   4.423  10.195   0.660
62111SOL    HW188230   4.340  10.148   0.664
62111SOL    HW288231   4.484  10.131   0.622
62112SOL     OW88232  11.427  14.755  12.337
62112SOL    HW188233  11.402  14.848  12.334
62112SOL    HW288234  11.345  14.709  12.351
62113SOL     OW88235   8.845   3.450   6.112
62113SOL    HW188236   8.792   3.393   6.168
62113SOL    HW288237   8.828   3.538   6.145
62114SOL     OW88238   1.802  12.213  11.393
62114SOL    HW188239   1.803  12.252  11.480
62114SOL    HW288240   1.891  12.227  11.360
62115SOL     OW88241   0.109   8.083   9.052
62115SOL    HW188242   0.075   8.120   8.970
62115SOL    HW288243   0.042   8.019   9.079
62116SOL     OW88244   4.730  10.071   8.390
62116SOL    HW188245   4.706  10.072   8.483
62116SOL    HW288246   4.656  10.030   8.346
62117SOL     OW88247  11.214   9.338   6.360
62117SOL    HW188248  11.143   9.293   6.314
62117SOL    HW288249  11.171   9.388   6.429
62118SOL     OW88250   5.087  13.450  13.830
62118SOL    HW188251   5.090  13.356  13.814
62118SOL    HW288252   5.039  13.486  13.755
62119SOL     OW88253   6.607   4.519  12.030
62119SOL    HW188254   6.690   4.563  12.048
62119SOL    HW288255   6.541   4.583  12.055
62120SOL     OW88256  11.792   9.057   0.348
62120SOL    HW188257  11.815   9.128   0.408
62120SOL    HW288258  11.709   9.085   0.309
62121SOL     OW88259  10.885   1.561   7.768
62121SOL    HW188260  10.916   1.524   7.685
62121SOL    HW288261  10.963   1.601   7.806
62122SOL     OW88262   5.265  11.443   9.006
62122SOL    HW188263   5.203  11.483   8.945
62122SOL    HW288264   5.226  11.458   9.092
62123SOL     OW88265  12.604   7.690   0.385
62123SOL    HW188266  12.512   7.714   0.391
62123SOL    HW288267  12.608   7.629   0.311
62124SOL     OW88268  11.584   8.922  13.742
62124SOL    HW188269  11.680   8.929  13.748
62124SOL    HW288270  11.552   8.971  13.817
62125SOL     OW88271   1.790  10.666   1.490
62125SOL    HW188272   1.726  10.720   1.443
62125SOL    HW288273   1.841  10.729   1.541
62126SOL     OW88274   4.414   6.366   9.779
62126SOL    HW188275   4.493   6.407   9.815
62126SOL    HW288276   4.444   6.281   9.746
62127SOL     OW88277   5.424   5.202   2.808
62127SOL    HW188278   5.490   5.134   2.799
62127SOL    HW288279   5.342   5.154   2.822
62128SOL     OW88280   9.629   7.534   6.022
62128SOL    HW188281   9.569   7.594   6.066
62128SOL    HW288282   9.710   7.541   6.072
62129SOL     OW88283   6.855  11.995  13.587
62129SOL    HW188284   6.840  11.921  13.529
62129SOL    HW288285   6.822  11.966  13.672
62130SOL     OW88286   4.680   7.312  10.896
62130SOL    HW188287   4.772   7.303  10.922
62130SOL    HW288288   4.682   7.376  10.824
62131SOL     OW88289   9.980   7.960   8.733
62131SOL    HW188290  10.004   7.868   8.743
62131SOL    HW288291   9.979   7.994   8.823
62132SOL     OW88292  14.014   5.221   9.865
62132SOL    HW188293  14.086   5.183   9.915
62132SOL    HW288294  13.948   5.151   9.863
62133SOL     OW88295  11.110   0.810  10.252
62133SOL    HW188296  11.187   0.753  10.241
62133SOL    HW288297  11.041   0.751  10.282
62134SOL     OW88298   9.702   6.393   5.364
62134SOL    HW188299   9.741   6.323   5.311
62134SOL    HW288300   9.722   6.473   5.315
62135SOL     OW88301   2.187   0.373   7.627
62135SOL    HW188302   2.119   0.349   7.690
62135SOL    HW288303   2.222   0.289   7.596
62136SOL     OW88304  11.399  14.493  14.133
62136SOL    HW188305  11.440  14.486  14.047
62136SOL    HW288306  11.308  14.517  14.115
62137SOL     OW88307   2.754   3.973   4.925
62137SOL    HW188308   2.840   3.966   4.883
62137SOL    HW288309   2.703   4.028   4.865
62138SOL     OW88310   9.594   4.831   9.335
62138SOL    HW188311   9.529   4.783   9.387
62138SOL    HW288312   9.619   4.771   9.266
62139SOL     OW88313   2.944   3.540   9.643
62139SOL    HW188314   2.931   3.482   9.717
62139SOL    HW288315   2.869   3.524   9.585
62140SOL     OW88316   9.443   6.559   0.194
62140SOL    HW188317   9.389   6.631   0.162
62140SOL    HW288318   9.515   6.601   0.240
62141SOL     OW88319  14.308  10.549  12.805
62141SOL    HW188320  14.384  10.497  12.778
62141SOL    HW288321  14.279  10.509  12.887
62142SOL     OW88322  14.491  11.616  12.995
62142SOL    HW188323  14.422  11.610  13.061
62142SOL    HW288324  14.444  11.621  12.912
62143SOL     OW88325   0.374   8.643  11.501
62143SOL    HW188326   0.439   8.583  11.465
62143SOL    HW288327   0.422   8.724  11.517
62144SOL     OW88328   9.874  10.161   4.093
62144SOL    HW188329   9.875  10.227   4.023
62144SOL    HW288330   9.932  10.197   4.160
62145SOL     OW88331  14.067  14.061   4.596
62145SOL    HW188332  14.139  14.082   4.537
62145SOL    HW288333  14.068  13.965   4.602
62146SOL     OW88334   2.296   2.639   4.779
62146SOL    HW188335   2.236   2.698   4.734
62146SOL    HW288336   2.262   2.552   4.760
62147SOL     OW88337   0.742  10.927   2.859
62147SOL    HW188338   0.793  10.883   2.927
62147SOL    HW288339   0.714  10.857   2.800
62148SOL     OW88340   2.337  14.331  10.708
62148SOL    HW188341   2.297  14.335  10.621
62148SOL    HW288342   2.277  14.277  10.760
62149SOL     OW88343  12.269   2.121  10.782
62149SOL    HW188344  12.333   2.184  10.814
62149SOL    HW288345  12.272   2.131  10.686
62150SOL     OW88346   4.584   2.426   6.268
62150SOL    HW188347   4.653   2.480   6.307
62150SOL    HW288348   4.570   2.356   6.333
62151SOL     OW88349  14.632   3.905   6.208
62151SOL    HW188350  14.574   3.830   6.200
62151SOL    HW288351  14.574   3.979   6.227
62152SOL     OW88352   7.854  11.123   3.463
62152SOL    HW188353   7.764  11.149   3.441
62152SOL    HW288354   7.856  11.124   3.559
62153SOL     OW88355  13.376   4.031   4.327
62153SOL    HW188356  13.439   4.072   4.386
62153SOL    HW288357  13.322   3.976   4.383
62154SOL     OW88358   8.249   7.414  10.497
62154SOL    HW188359   8.176   7.471  10.470
62154SOL    HW288360   8.213   7.325  10.491
62155SOL     OW88361  12.750   5.031   0.874
62155SOL    HW188362  12.687   4.978   0.824
62155SOL    HW288363  12.769   5.105   0.817
62156SOL     OW88364   4.118   5.579   4.395
62156SOL    HW188365   4.205   5.605   4.427
62156SOL    HW288366   4.135   5.503   4.339
62157SOL     OW88367   3.669   3.775   3.501
62157SOL    HW188368   3.730   3.837   3.461
62157SOL    HW288369   3.652   3.710   3.432
62158SOL     OW88370   3.448  10.413   6.780
62158SOL    HW188371   3.396  10.343   6.819
62158SOL    HW288372   3.535  10.374   6.769
62159SOL     OW88373   2.400   5.364  14.481
62159SOL    HW188374   2.312   5.335  14.458
62159SOL    HW288375   2.391   5.459  14.493
62160SOL     OW88376   4.357   9.739   2.718
62160SOL    HW188377   4.364   9.665   2.659
62160SOL    HW288378   4.326   9.811   2.663
62161SOL     OW88379   1.741  11.503   4.816
62161SOL    HW188380   1.779  11.547   4.740
62161SOL    HW288381   1.816  11.474   4.867
62162SOL     OW88382   3.052  12.671   0.358
62162SOL    HW188383   2.965  12.705   0.341
62162SOL    HW288384   3.052  12.651   0.452
62163SOL     OW88385  11.576  12.095   3.254
62163SOL    HW188386  11.562  12.016   3.201
62163SOL    HW288387  11.512  12.087   3.325
62164SOL     OW88388   3.929   0.411   9.131
62164SOL    HW188389   4.010   0.456   9.108
62164SOL    HW288390   3.860   0.474   9.112
62165SOL     OW88391   7.359   6.242   7.503
62165SOL    HW188392   7.399   6.169   7.550
62165SOL    HW288393   7.428   6.308   7.499
62166SOL     OW88394  10.062   7.162   2.194
62166SOL    HW188395  10.023   7.078   2.169
62166SOL    HW288396  10.039   7.172   2.286
62167SOL     OW88397  12.598   7.493  11.157
62167SOL    HW188398  12.674   7.459  11.111
62167SOL    HW288399  12.606   7.588  11.153
62168SOL     OW88400   2.702  13.478  12.919
62168SOL    HW188401   2.794  13.450  12.927
62168SOL    HW288402   2.652  13.396  12.926
62169SOL     OW88403  13.594   7.542   0.378
62169SOL    HW188404  13.663   7.559   0.442
62169SOL    HW288405  13.520   7.510   0.429
62170SOL     OW88406  11.917   1.964   0.731
62170SOL    HW188407  11.972   1.888   0.752
62170SOL    HW288408  11.944   1.990   0.643
62171SOL     OW88409   7.997   8.179   7.981
62171SOL    HW188410   7.905   8.155   7.968
62171SOL    HW288411   8.000   8.216   8.069
62172SOL     OW88412   5.204   8.696  12.779
62172SOL    HW188413   5.256   8.747  12.717
62172SOL    HW288414   5.172   8.621  12.728
62173SOL     OW88415   0.164   6.394  12.384
62173SOL    HW188416   0.078   6.376  12.346
62173SOL    HW288417   0.148   6.403  12.478
62174SOL     OW88418   2.817  13.282   4.213
62174SOL    HW188419   2.732  13.323   4.196
62174SOL    HW288420   2.860  13.339   4.277
62175SOL     OW88421  11.141   0.795   1.179
62175SOL    HW188422  11.229   0.783   1.142
62175SOL    HW288423  11.129   0.719   1.236
62176SOL     OW88424   2.760  14.329  12.746
62176SOL    HW188425   2.683  14.289  12.705
62176SOL    HW288426   2.748  14.314  12.840
62177SOL     OW88427  13.129  14.142   7.598
62177SOL    HW188428  13.089  14.058   7.622
62177SOL    HW288429  13.078  14.207   7.647
62178SOL     OW88430   4.151   7.285   1.063
62178SOL    HW188431   4.073   7.331   1.094
62178SOL    HW288432   4.180   7.234   1.139
62179SOL     OW88433   7.379   7.784  13.874
62179SOL    HW188434   7.320   7.711  13.891
62179SOL    HW288435   7.453   7.745  13.828
62180SOL     OW88436   4.614   4.650   6.179
62180SOL    HW188437   4.675   4.608   6.120
62180SOL    HW288438   4.582   4.727   6.131
62181SOL     OW88439  11.218   7.361  13.994
62181SOL    HW188440  11.152   7.385  14.058
62181SOL    HW288441  11.295   7.338  14.046
62182SOL     OW88442   5.936   5.659   7.631
62182SOL    HW188443   5.931   5.746   7.592
62182SOL    HW288444   5.901   5.601   7.563
62183SOL     OW88445  12.671   4.303   0.749
62183SOL    HW188446  12.757   4.281   0.714
62183SOL    HW288447  12.677   4.397   0.770
62184SOL     OW88448  12.549   7.353   9.768
62184SOL    HW188449  12.497   7.372   9.690
62184SOL    HW288450  12.630   7.402   9.756
62185SOL     OW88451  10.912   1.931   1.379
62185SOL    HW188452  10.917   1.912   1.285
62185SOL    HW288453  10.989   1.888   1.416
62186SOL     OW88454   3.840   4.123   3.856
62186SOL    HW188455   3.777   4.129   3.928
62186SOL    HW288456   3.923   4.102   3.898
62187SOL     OW88457   3.803  12.098  13.901
62187SOL    HW188458   3.805  12.131  13.812
62187SOL    HW288459   3.735  12.031  13.901
62188SOL     OW88460   1.043   3.811  12.534
62188SOL    HW188461   1.026   3.905  12.544
62188SOL    HW288462   1.107   3.806  12.463
62189SOL     OW88463   7.650  14.598   1.400
62189SOL    HW188464   7.599  14.679   1.393
62189SOL    HW288465   7.708  14.613   1.475
62190SOL     OW88466   6.255   5.376  13.270
62190SOL    HW188467   6.253   5.302  13.210
62190SOL    HW288468   6.226   5.340  13.354
62191SOL     OW88469   6.443   1.408   7.550
62191SOL    HW188470   6.460   1.317   7.529
62191SOL    HW288471   6.351   1.410   7.577
62192SOL     OW88472  10.340   6.332   7.657
62192SOL    HW188473  10.297   6.328   7.572
62192SOL    HW288474  10.272   6.309   7.720
62193SOL     OW88475   4.878   3.125  13.850
62193SOL    HW188476   4.951   3.064  13.838
62193SOL    HW288477   4.800   3.071  13.839
62194SOL     OW88478   1.114   5.384   6.042
62194SOL    HW188479   1.075   5.417   5.961
62194SOL    HW288480   1.041   5.348   6.092
62195SOL     OW88481   7.414  11.075  14.609
62195SOL    HW188482   7.446  11.087  14.520
62195SOL    HW288483   7.401  11.164  14.643
62196SOL     OW88484  12.309  12.811   5.880
62196SOL    HW188485  12.395  12.828   5.841
62196SOL    HW288486  12.306  12.867   5.957
62197SOL     OW88487   2.359  13.278   9.216
62197SOL    HW188488   2.282  13.299   9.163
62197SOL    HW288489   2.403  13.208   9.167
62198SOL     OW88490  13.688  12.805  14.241
62198SOL    HW188491  13.752  12.876  14.237
62198SOL    HW288492  13.704  12.764  14.326
62199SOL     OW88493  12.588   7.593   0.008
62199SOL    HW188494  12.520   7.569   0.071
62199SOL    HW288495  12.599   7.688   0.020
62200SOL     OW88496   5.991   5.147   1.403
62200SOL    HW188497   6.024   5.135   1.314
62200SOL    HW288498   6.070   5.158   1.456
62201SOL     OW88499  13.078  11.903   2.729
62201SOL    HW188500  13.055  11.993   2.753
62201SOL    HW288501  12.995  11.855   2.734
62202SOL     OW88502   6.840   2.930  11.290
62202SOL    HW188503   6.823   3.011  11.338
62202SOL    HW288504   6.757   2.883  11.293
62203SOL     OW88505  12.804  11.213   9.046
62203SOL    HW188506  12.778  11.218   9.138
62203SOL    HW288507  12.900  11.204   9.049
62204SOL     OW88508   6.848  11.665   1.006
62204SOL    HW188509   6.884  11.741   1.052
62204SOL    HW288510   6.851  11.594   1.071
62205SOL     OW88511  13.876   6.523   0.794
62205SOL    HW188512  13.926   6.493   0.718
62205SOL    HW288513  13.904   6.465   0.865
62206SOL     OW88514   0.986   1.857   0.505
62206SOL    HW188515   1.003   1.770   0.541
62206SOL    HW288516   1.057   1.871   0.443
62207SOL     OW88517   1.560  12.746   1.431
62207SOL    HW188518   1.514  12.819   1.471
62207SOL    HW288519   1.499  12.672   1.439
62208SOL     OW88520   0.137  13.897   0.940
62208SOL    HW188521   0.116  13.882   1.032
62208SOL    HW288522   0.057  13.871   0.893
62209SOL     OW88523  10.646   1.373  12.320
62209SOL    HW188524  10.553   1.359  12.302
62209SOL    HW288525  10.649   1.454  12.371
62210SOL     OW88526   8.413   6.076   2.861
62210SOL    HW188527   8.415   6.085   2.766
62210SOL    HW288528   8.394   5.983   2.875
62211SOL     OW88529   4.463   0.144  14.306
62211SOL    HW188530   4.408   0.220  14.328
62211SOL    HW288531   4.490   0.109  14.391
62212SOL     OW88532   8.139   1.152   5.405
62212SOL    HW188533   8.048   1.122   5.408
62212SOL    HW288534   8.190   1.071   5.405
62213SOL     OW88535  12.092  10.975   9.021
62213SOL    HW188536  12.013  10.973   8.968
62213SOL    HW288537  12.130  10.888   9.012
62214SOL     OW88538  12.138  13.266   1.663
62214SOL    HW188539  12.045  13.286   1.654
62214SOL    HW288540  12.160  13.213   1.587
62215SOL     OW88541   5.929  11.670  12.498
62215SOL    HW188542   5.970  11.727  12.433
62215SOL    HW288543   5.990  11.597  12.507
62216SOL     OW88544   1.711  12.608   0.004
62216SOL    HW188545   1.752  12.526  14.850
62216SOL    HW288546   1.784  12.662   0.034
62217SOL     OW88547   9.729   8.888   0.512
62217SOL    HW188548   9.728   8.827   0.438
62217SOL    HW288549   9.636   8.904   0.532
62218SOL     OW88550   9.442  13.267  12.806
62218SOL    HW188551   9.393  13.186  12.793
62218SOL    HW288552   9.464  13.296  12.717
62219SOL     OW88553   0.087   6.539   0.832
62219SOL    HW188554   0.009   6.576   0.790
62219SOL    HW288555   0.056   6.514   0.920
62220SOL     OW88556   9.161   2.643  12.890
62220SOL    HW188557   9.122   2.605  12.812
62220SOL    HW288558   9.117   2.728  12.901
62221SOL     OW88559   6.150   9.716   6.038
62221SOL    HW188560   6.227   9.668   6.008
62221SOL    HW288561   6.178   9.760   6.118
62222SOL     OW88562   8.920   0.618  11.391
62222SOL    HW188563   8.954   0.617  11.302
62222SOL    HW288564   8.840   0.566  11.387
62223SOL     OW88565   6.598   6.676  10.390
62223SOL    HW188566   6.560   6.710  10.471
62223SOL    HW288567   6.672   6.733  10.372
62224SOL     OW88568   0.613  13.468   0.478
62224SOL    HW188569   0.674  13.437   0.545
62224SOL    HW288570   0.550  13.522   0.526
62225SOL     OW88571  13.327   9.126  10.315
62225SOL    HW188572  13.256   9.071  10.282
62225SOL    HW288573  13.407   9.076  10.298
62226SOL     OW88574   5.759  14.560  13.683
62226SOL    HW188575   5.697  14.609  13.629
62226SOL    HW288576   5.794  14.492  13.625
62227SOL     OW88577  14.004  13.425   5.546
62227SOL    HW188578  13.952  13.429   5.626
62227SOL    HW288579  14.085  13.473   5.567
62228SOL     OW88580   3.470  10.048   9.753
62228SOL    HW188581   3.421   9.976   9.711
62228SOL    HW288582   3.403  10.112   9.776
62229SOL     OW88583   1.582   9.469   2.858
62229SOL    HW188584   1.612   9.555   2.888
62229SOL    HW288585   1.645   9.408   2.895
62230SOL     OW88586   1.646   7.784   3.533
62230SOL    HW188587   1.563   7.790   3.487
62230SOL    HW288588   1.698   7.722   3.481
62231SOL     OW88589   5.138   9.995  10.799
62231SOL    HW188590   5.053   9.953  10.785
62231SOL    HW288591   5.165   9.966  10.886
62232SOL     OW88592  13.013   5.960  13.721
62232SOL    HW188593  12.950   5.933  13.788
62232SOL    HW288594  13.052   6.040  13.757
62233SOL     OW88595   9.370  12.708  11.204
62233SOL    HW188596   9.391  12.619  11.231
62233SOL    HW288597   9.404  12.763  11.275
62234SOL     OW88598   4.910  11.163  10.368
62234SOL    HW188599   4.882  11.240  10.319
62234SOL    HW288600   4.933  11.197  10.454
62235SOL     OW88601   1.739  10.032   5.967
62235SOL    HW188602   1.775  10.004   5.883
62235SOL    HW288603   1.697  10.116   5.949
62236SOL     OW88604  12.498   7.047  10.355
62236SOL    HW188605  12.472   7.025  10.445
62236SOL    HW288606  12.593   7.034  10.354
62237SOL     OW88607   7.739   0.722  13.376
62237SOL    HW188608   7.704   0.670  13.304
62237SOL    HW288609   7.810   0.772  13.336
62238SOL     OW88610  11.369   7.477   7.073
62238SOL    HW188611  11.314   7.541   7.117
62238SOL    HW288612  11.307   7.421   7.025
62239SOL     OW88613   2.021   4.356  14.415
62239SOL    HW188614   2.117   4.360  14.410
62239SOL    HW288615   1.997   4.429  14.472
62240SOL     OW88616  13.092  14.172   1.072
62240SOL    HW188617  13.060  14.244   1.017
62240SOL    HW288618  13.148  14.121   1.013
62241SOL     OW88619   6.461  14.590  12.583
62241SOL    HW188620   6.514  14.645  12.525
62241SOL    HW288621   6.509  14.591  12.666
62242SOL     OW88622  10.144  10.569   4.123
62242SOL    HW188623  10.133  10.664   4.118
62242SOL    HW288624  10.225  10.552   4.075
62243SOL     OW88625  13.907  11.391   3.669
62243SOL    HW188626  13.930  11.324   3.734
62243SOL    HW288627  13.885  11.468   3.721
62244SOL     OW88628   5.345   9.310   1.867
62244SOL    HW188629   5.279   9.366   1.826
62244SOL    HW288630   5.427   9.335   1.824
62245SOL     OW88631  13.412   6.669   0.909
62245SOL    HW188632  13.330   6.626   0.934
62245SOL    HW288633  13.429   6.732   0.979
62246SOL     OW88634   4.695   8.766  13.228
62246SOL    HW188635   4.656   8.739  13.145
62246SOL    HW288636   4.622   8.771  13.289
62247SOL     OW88637  12.149  10.762   9.425
62247SOL    HW188638  12.157  10.714   9.343
62247SOL    HW288639  12.160  10.697   9.493
62248SOL     OW88640   0.513   2.101   8.120
62248SOL    HW188641   0.419   2.085   8.107
62248SOL    HW288642   0.549   2.105   8.032
62249SOL     OW88643   0.335  12.089   7.317
62249SOL    HW188644   0.397  12.101   7.246
62249SOL    HW288645   0.375  12.134   7.391
62250SOL     OW88646   9.285   1.102  14.151
62250SOL    HW188647   9.223   1.074  14.218
62250SOL    HW288648   9.363   1.127  14.201
62251SOL     OW88649  12.402   4.906   7.791
62251SOL    HW188650  12.310   4.904   7.817
62251SOL    HW288651  12.448   4.859   7.860
62252SOL     OW88652   1.752   0.304   5.394
62252SOL    HW188653   1.842   0.287   5.365
62252SOL    HW288654   1.756   0.391   5.433
62253SOL     OW88655   1.677   3.367   5.693
62253SOL    HW188656   1.761   3.322   5.699
62253SOL    HW288657   1.612   3.300   5.712
62254SOL     OW88658  11.646   3.522   5.909
62254SOL    HW188659  11.676   3.538   5.999
62254SOL    HW288660  11.557   3.489   5.919
62255SOL     OW88661   7.115  14.020  10.895
62255SOL    HW188662   7.160  14.048  10.975
62255SOL    HW288663   7.169  14.054  10.824
62256SOL     OW88664  13.938   5.907   1.931
62256SOL    HW188665  13.884   5.976   1.970
62256SOL    HW288666  14.026   5.945   1.929
62257SOL     OW88667  11.001   2.836   9.507
62257SOL    HW188668  11.002   2.854   9.413
62257SOL    HW288669  10.984   2.921   9.548
62258SOL     OW88670  10.304   0.719   1.010
62258SOL    HW188671  10.315   0.641   0.956
62258SOL    HW288672  10.362   0.784   0.969
62259SOL     OW88673   2.750  10.687   3.807
62259SOL    HW188674   2.798  10.682   3.890
62259SOL    HW288675   2.793  10.623   3.750
62260SOL     OW88676  10.926  14.825  10.995
62260SOL    HW188677  10.849  14.794  11.042
62260SOL    HW288678  10.921  14.781  10.910
62261SOL     OW88679  10.496   2.313   1.384
62261SOL    HW188680  10.585   2.337   1.408
62261SOL    HW288681  10.445   2.323   1.464
62262SOL     OW88682   0.857   1.432   4.781
62262SOL    HW188683   0.782   1.396   4.828
62262SOL    HW288684   0.832   1.523   4.763
62263SOL     OW88685   7.531  14.794   9.708
62263SOL    HW188686   7.596  14.817   9.642
62263SOL    HW288687   7.574  14.812   9.791
62264SOL     OW88688  10.945   3.360   2.907
62264SOL    HW188689  10.858   3.368   2.868
62264SOL    HW288690  11.006   3.389   2.839
62265SOL     OW88691   6.198   5.522   1.035
62265SOL    HW188692   6.152   5.603   1.013
62265SOL    HW288693   6.272   5.520   0.973
62266SOL     OW88694   8.654   6.665  11.784
62266SOL    HW188695   8.667   6.580  11.826
62266SOL    HW288696   8.695   6.657  11.698
62267SOL     OW88697   2.069  11.084  13.547
62267SOL    HW188698   2.126  11.030  13.602
62267SOL    HW288699   2.129  11.143  13.501
62268SOL     OW88700   2.728   3.392   3.074
62268SOL    HW188701   2.703   3.484   3.062
62268SOL    HW288702   2.652   3.353   3.116
62269SOL     OW88703  10.566   4.157   9.349
62269SOL    HW188704  10.487   4.146   9.296
62269SOL    HW288705  10.639   4.144   9.288
62270SOL     OW88706   3.283  14.530   1.071
62270SOL    HW188707   3.253  14.463   1.132
62270SOL    HW288708   3.259  14.497   0.984
62271SOL     OW88709   1.217  11.351  14.182
62271SOL    HW188710   1.255  11.264  14.200
62271SOL    HW288711   1.192  11.384  14.269
62272SOL     OW88712   6.892   6.674   2.824
62272SOL    HW188713   6.836   6.607   2.786
62272SOL    HW288714   6.936   6.630   2.897
62273SOL     OW88715   4.778  13.597  10.135
62273SOL    HW188716   4.816  13.684  10.152
62273SOL    HW288717   4.758  13.562  10.221
62274SOL     OW88718   1.792   2.842   1.131
62274SOL    HW188719   1.775   2.749   1.116
62274SOL    HW288720   1.853   2.866   1.061
62275SOL     OW88721   4.671  11.838  13.186
62275SOL    HW188722   4.581  11.839  13.154
62275SOL    HW288723   4.684  11.748  13.218
62276SOL     OW88724   3.671   6.817  14.165
62276SOL    HW188725   3.737   6.873  14.205
62276SOL    HW288726   3.722   6.756  14.111
62277SOL     OW88727   4.165  13.320  12.922
62277SOL    HW188728   4.108  13.367  12.983
62277SOL    HW288729   4.201  13.389  12.866
62278SOL     OW88730  12.833  10.969  14.184
62278SOL    HW188731  12.798  10.881  14.198
62278SOL    HW288732  12.804  10.993  14.096
62279SOL     OW88733   2.564   0.378   9.452
62279SOL    HW188734   2.526   0.428   9.524
62279SOL    HW288735   2.517   0.409   9.374
62280SOL     OW88736   5.020   9.699   0.583
62280SOL    HW188737   5.109   9.721   0.556
62280SOL    HW288738   4.964   9.742   0.518
62281SOL     OW88739  11.115   0.179  12.927
62281SOL    HW188740  11.094   0.104  12.872
62281SOL    HW288741  11.208   0.170  12.946
62282SOL     OW88742   9.568   9.440   1.262
62282SOL    HW188743   9.655   9.466   1.292
62282SOL    HW288744   9.517   9.520   1.261
62283SOL     OW88745   5.327   2.528   7.122
62283SOL    HW188746   5.381   2.454   7.152
62283SOL    HW288747   5.326   2.519   7.026
62284SOL     OW88748   5.695  13.784   5.717
62284SOL    HW188749   5.662  13.874   5.719
62284SOL    HW288750   5.790  13.794   5.703
62285SOL     OW88751  12.647   3.760   1.295
62285SOL    HW188752  12.646   3.792   1.205
62285SOL    HW288753  12.585   3.817   1.341
62286SOL     OW88754   1.025   6.817  10.860
62286SOL    HW188755   0.948   6.805  10.915
62286SOL    HW288756   0.994   6.801  10.771
62287SOL     OW88757   6.416  11.701   1.531
62287SOL    HW188758   6.488  11.638   1.527
62287SOL    HW288759   6.339  11.652   1.501
62288SOL     OW88760   9.041  13.328  12.863
62288SOL    HW188761   9.102  13.271  12.815
62288SOL    HW288762   9.057  13.308  12.955
62289SOL     OW88763   9.028  13.708   8.113
62289SOL    HW188764   9.093  13.640   8.134
62289SOL    HW288765   9.043  13.726   8.020
62290SOL     OW88766   0.074   0.778  11.121
62290SOL    HW188767  14.870   0.832  11.099
62290SOL    HW288768   0.047   0.729  11.199
62291SOL     OW88769   0.459   3.249   9.971
62291SOL    HW188770   0.405   3.178  10.005
62291SOL    HW288771   0.405   3.328   9.980
62292SOL     OW88772   4.250   0.041   6.549
62292SOL    HW188773   4.187   0.012   6.615
62292SOL    HW288774   4.225  14.864   6.470
62293SOL     OW88775   4.674   6.166   3.644
62293SOL    HW188776   4.698   6.245   3.692
62293SOL    HW288777   4.752   6.111   3.648
62294SOL     OW88778  11.504   7.968  12.658
62294SOL    HW188779  11.507   7.899  12.725
62294SOL    HW288780  11.415   7.964  12.624
62295SOL     OW88781  14.076   4.123   7.874
62295SOL    HW188782  14.084   4.118   7.779
62295SOL    HW288783  14.022   4.047   7.897
62296SOL     OW88784   5.663   0.183  10.104
62296SOL    HW188785   5.705   0.260  10.066
62296SOL    HW288786   5.571   0.207  10.112
62297SOL     OW88787  11.564   2.773   6.312
62297SOL    HW188788  11.578   2.853   6.363
62297SOL    HW288789  11.650   2.752   6.276
62298SOL     OW88790   0.600  12.348   1.541
62298SOL    HW188791   0.635  12.300   1.466
62298SOL    HW288792   0.505  12.349   1.528
62299SOL     OW88793   6.313   4.263  13.436
62299SOL    HW188794   6.271   4.258  13.350
62299SOL    HW288795   6.348   4.175  13.451
62300SOL     OW88796  11.281   4.233   7.881
62300SOL    HW188797  11.264   4.242   7.787
62300SOL    HW288798  11.257   4.318   7.918
62301SOL     OW88799   6.753   4.609   3.083
62301SOL    HW188800   6.691   4.536   3.074
62301SOL    HW288801   6.832   4.570   3.119
62302SOL     OW88802  10.164  11.905   3.306
62302SOL    HW188803  10.080  11.945   3.328
62302SOL    HW288804  10.223  11.930   3.377
62303SOL     OW88805  13.926   7.247   1.210
62303SOL    HW188806  13.944   7.341   1.211
62303SOL    HW288807  13.833   7.240   1.231
62304SOL     OW88808   8.508   8.189  10.536
62304SOL    HW188809   8.588   8.138  10.544
62304SOL    HW288810   8.475   8.169  10.449
62305SOL     OW88811   3.167   6.758  12.704
62305SOL    HW188812   3.096   6.822  12.708
62305SOL    HW288813   3.243   6.804  12.741
62306SOL     OW88814  12.848   8.626   9.888
62306SOL    HW188815  12.903   8.551   9.865
62306SOL    HW288816  12.824   8.665   9.805
62307SOL     OW88817   0.404   6.525   4.276
62307SOL    HW188818   0.320   6.538   4.232
62307SOL    HW288819   0.466   6.580   4.227
62308SOL     OW88820   3.470   1.365   9.400
62308SOL    HW188821   3.538   1.386   9.464
62308SOL    HW288822   3.463   1.270   9.402
62309SOL     OW88823  13.840  12.867   4.986
62309SOL    HW188824  13.910  12.892   4.926
62309SOL    HW288825  13.770  12.931   4.969
62310SOL     OW88826  12.946   0.512  11.004
62310SOL    HW188827  12.874   0.457  11.034
62310SOL    HW288828  12.911   0.601  11.008
62311SOL     OW88829   5.250  13.440  14.844
62311SOL    HW188830   5.248  13.391  14.762
62311SOL    HW288831   5.177  13.501  14.838
62312SOL     OW88832  14.166   1.650  13.472
62312SOL    HW188833  14.139   1.597  13.546
62312SOL    HW288834  14.089   1.702  13.450
62313SOL     OW88835   6.360  14.471   1.869
62313SOL    HW188836   6.293  14.531   1.836
62313SOL    HW288837   6.341  14.463   1.962
62314SOL     OW88838   8.471  11.816   1.661
62314SOL    HW188839   8.527  11.874   1.713
62314SOL    HW288840   8.528  11.779   1.594
62315SOL     OW88841   8.317   0.538   7.034
62315SOL    HW188842   8.357   0.474   6.975
62315SOL    HW288843   8.386   0.603   7.048
62316SOL     OW88844   8.273   4.907   8.610
62316SOL    HW188845   8.265   4.986   8.555
62316SOL    HW288846   8.184   4.872   8.614
62317SOL     OW88847   5.598   7.896  11.220
62317SOL    HW188848   5.559   7.920  11.136
62317SOL    HW288849   5.693   7.904  11.206
62318SOL     OW88850   4.876   8.794   4.748
62318SOL    HW188851   4.941   8.860   4.724
62318SOL    HW288852   4.798   8.816   4.696
62319SOL     OW88853   8.741   2.510   7.179
62319SOL    HW188854   8.747   2.513   7.275
62319SOL    HW288855   8.649   2.488   7.162
62320SOL     OW88856   7.441   8.896  11.846
62320SOL    HW188857   7.514   8.883  11.785
62320SOL    HW288858   7.439   8.816  11.899
62321SOL     OW88859   5.467  10.870   6.845
62321SOL    HW188860   5.438  10.832   6.762
62321SOL    HW288861   5.492  10.794   6.898
62322SOL     OW88862   7.435  11.050  10.159
62322SOL    HW188863   7.389  11.105  10.096
62322SOL    HW288864   7.393  11.069  10.243
62323SOL     OW88865  14.608  11.335   3.729
62323SOL    HW188866  14.579  11.421   3.697
62323SOL    HW288867  14.529  11.296   3.766
62324SOL     OW88868   6.766  11.182   9.277
62324SOL    HW188869   6.753  11.119   9.347
62324SOL    HW288870   6.829  11.245   9.312
62325SOL     OW88871   0.576  10.886   5.126
62325SOL    HW188872   0.539  10.961   5.078
62325SOL    HW288873   0.668  10.884   5.098
62326SOL     OW88874   0.548   2.007  12.347
62326SOL    HW188875   0.488   1.985  12.275
62326SOL    HW288876   0.617   1.941  12.342
62327SOL     OW88877  10.017   7.960   3.985
62327SOL    HW188878  10.020   7.899   4.059
62327SOL    HW288879   9.961   8.031   4.015
62328SOL     OW88880   9.112   9.403  10.922
62328SOL    HW188881   9.169   9.416  10.998
62328SOL    HW288882   9.052   9.334  10.948
62329SOL     OW88883   7.119   6.831   8.554
62329SOL    HW188884   7.187   6.839   8.488
62329SOL    HW288885   7.088   6.920   8.569
62330SOL     OW88886   2.884   8.225  11.202
62330SOL    HW188887   2.910   8.294  11.263
62330SOL    HW288888   2.788   8.225  11.204
62331SOL     OW88889   4.966  11.543   4.151
62331SOL    HW188890   5.018  11.577   4.223
62331SOL    HW288891   4.893  11.497   4.194
62332SOL     OW88892  14.851   4.533   0.293
62332SOL    HW188893  14.779   4.533   0.356
62332SOL    HW288894   0.032   4.609   0.317
62333SOL     OW88895   8.893   7.434   4.427
62333SOL    HW188896   8.913   7.340   4.432
62333SOL    HW288897   8.871   7.458   4.516
62334SOL     OW88898   6.433   5.795   2.202
62334SOL    HW188899   6.526   5.812   2.190
62334SOL    HW288900   6.398   5.875   2.241
62335SOL     OW88901   7.532   1.947   1.258
62335SOL    HW188902   7.586   1.889   1.312
62335SOL    HW288903   7.561   2.035   1.282
62336SOL     OW88904   3.441  14.668   9.772
62336SOL    HW188905   3.490  14.749   9.757
62336SOL    HW288906   3.472  14.608   9.705
62337SOL     OW88907   4.591  12.809   8.877
62337SOL    HW188908   4.634  12.798   8.792
62337SOL    HW288909   4.659  12.786   8.941
62338SOL     OW88910  13.107  11.101   7.139
62338SOL    HW188911  13.182  11.045   7.116
62338SOL    HW288912  13.037  11.039   7.158
62339SOL     OW88913  10.498   3.214   7.701
62339SOL    HW188914  10.571   3.270   7.727
62339SOL    HW288915  10.485   3.155   7.774
62340SOL     OW88916   4.672  10.321   1.458
62340SOL    HW188917   4.619  10.275   1.524
62340SOL    HW288918   4.607  10.362   1.400
62341SOL     OW88919   5.147   4.762   9.798
62341SOL    HW188920   5.190   4.677   9.785
62341SOL    HW288921   5.198   4.823   9.744
62342SOL     OW88922   4.146   6.052   7.308
62342SOL    HW188923   4.199   6.008   7.375
62342SOL    HW288924   4.208   6.073   7.238
62343SOL     OW88925  13.828  13.965   5.432
62343SOL    HW188926  13.910  13.999   5.395
62343SOL    HW288927  13.762  13.983   5.365
62344SOL     OW88928   5.068   8.536   6.751
62344SOL    HW188929   5.136   8.565   6.812
62344SOL    HW288930   5.116   8.490   6.682
62345SOL     OW88931   3.145   8.676   2.151
62345SOL    HW188932   3.200   8.720   2.216
62345SOL    HW288933   3.207   8.644   2.085
62346SOL     OW88934   7.714  12.844   8.244
62346SOL    HW188935   7.717  12.749   8.240
62346SOL    HW288936   7.743  12.865   8.333
62347SOL     OW88937   9.458  12.071   1.813
62347SOL    HW188938   9.481  12.153   1.770
62347SOL    HW288939   9.542  12.033   1.839
62348SOL     OW88940  13.200  10.087   9.683
62348SOL    HW188941  13.262  10.105   9.753
62348SOL    HW288942  13.114  10.103   9.722
62349SOL     OW88943  14.798   1.968   3.521
62349SOL    HW188944  14.738   2.019   3.466
62349SOL    HW288945   0.005   1.958   3.468
62350SOL     OW88946  10.122  10.300   1.724
62350SOL    HW188947  10.159  10.212   1.734
62350SOL    HW288948  10.134  10.321   1.631
62351SOL     OW88949  14.838   0.117   2.893
62351SOL    HW188950  14.860   0.025   2.878
62351SOL    HW288951  14.816   0.122   2.986
62352SOL     OW88952   5.762   0.564   3.004
62352SOL    HW188953   5.725   0.602   2.924
62352SOL    HW288954   5.761   0.469   2.988
62353SOL     OW88955   7.716   5.147   7.901
62353SOL    HW188956   7.709   5.233   7.943
62353SOL    HW288957   7.725   5.086   7.973
62354SOL     OW88958  12.897   9.009   2.238
62354SOL    HW188959  12.818   9.024   2.185
62354SOL    HW288960  12.968   9.008   2.175
62355SOL     OW88961   8.671   5.116   6.414
62355SOL    HW188962   8.708   5.028   6.410
62355SOL    HW288963   8.630   5.121   6.500
62356SOL     OW88964   8.680   8.350   7.769
62356SOL    HW188965   8.600   8.299   7.755
62356SOL    HW288966   8.661   8.403   7.847
62357SOL     OW88967  11.093  11.839   9.091
62357SOL    HW188968  11.023  11.777   9.114
62357SOL    HW288969  11.088  11.848   8.996
62358SOL     OW88970   2.307   2.554   5.042
62358SOL    HW188971   2.397   2.527   5.062
62358SOL    HW288972   2.312   2.587   4.952
62359SOL     OW88973  10.415   6.844   4.320
62359SOL    HW188974  10.360   6.868   4.394
62359SOL    HW288975  10.462   6.766   4.349
62360SOL     OW88976   1.015   9.080   6.924
62360SOL    HW188977   1.054   9.003   6.883
62360SOL    HW288978   1.089   9.140   6.937
62361SOL     OW88979   8.464   6.748   3.617
62361SOL    HW188980   8.452   6.737   3.712
62361SOL    HW288981   8.473   6.659   3.584
62362SOL     OW88982   4.555   5.246   0.533
62362SOL    HW188983   4.589   5.262   0.446
62362SOL    HW288984   4.619   5.188   0.574
62363SOL     OW88985   9.869   9.392   5.122
62363SOL    HW188986   9.960   9.400   5.150
62363SOL    HW288987   9.872   9.337   5.044
62364SOL     OW88988  11.262   2.446   2.838
62364SOL    HW188989  11.195   2.448   2.770
62364SOL    HW288990  11.229   2.505   2.906
62365SOL     OW88991   0.605  11.046   6.064
62365SOL    HW188992   0.668  11.029   6.135
62365SOL    HW288993   0.525  11.001   6.092
62366SOL     OW88994   1.749  12.189  14.161
62366SOL    HW188995   1.777  12.257  14.100
62366SOL    HW288996   1.735  12.111  14.106
62367SOL     OW88997   8.576   2.108   9.979
62367SOL    HW188998   8.611   2.159   9.906
62367SOL    HW288999   8.630   2.029   9.980
62368SOL     OW89000   7.335  10.794   8.108
62368SOL    HW189001   7.372  10.738   8.176
62368SOL    HW289002   7.260  10.837   8.150
62369SOL     OW89003   1.226   1.588  11.612
62369SOL    HW189004   1.296   1.638  11.653
62369SOL    HW289005   1.251   1.584  11.519
62370SOL     OW89006   2.604  12.637   3.449
62370SOL    HW189007   2.644  12.551   3.440
62370SOL    HW289008   2.677  12.698   3.451
62371SOL     OW89009   3.359   0.639   3.929
62371SOL    HW189010   3.307   0.718   3.917
62371SOL    HW289011   3.312   0.572   3.881
62372SOL     OW89012   8.945   9.138   5.624
62372SOL    HW189013   9.029   9.093   5.612
62372SOL    HW289014   8.947   9.167   5.715
62373SOL     OW89015  10.259  11.156   8.573
62373SOL    HW189016  10.320  11.212   8.526
62373SOL    HW289017  10.289  11.158   8.664
62374SOL     OW89018   1.973   5.376   0.423
62374SOL    HW189019   1.977   5.464   0.384
62374SOL    HW289020   1.992   5.317   0.351
62375SOL     OW89021   8.894   5.929   6.830
62375SOL    HW189022   8.987   5.935   6.808
62375SOL    HW289023   8.892   5.923   6.925
62376SOL     OW89024   1.743  13.649   6.806
62376SOL    HW189025   1.682  13.703   6.756
62376SOL    HW289026   1.716  13.559   6.788
62377SOL     OW89027   7.022   0.945  11.928
62377SOL    HW189028   7.030   0.866  11.875
62377SOL    HW289029   7.014   0.914  12.018
62378SOL     OW89030  13.604   6.567   3.489
62378SOL    HW189031  13.645   6.510   3.424
62378SOL    HW289032  13.667   6.572   3.560
62379SOL     OW89033  12.296  13.990   0.701
62379SOL    HW189034  12.314  14.083   0.685
62379SOL    HW289035  12.242  13.989   0.780
62380SOL     OW89036   4.201  13.059   4.749
62380SOL    HW189037   4.253  13.115   4.691
62380SOL    HW289038   4.223  13.090   4.837
62381SOL     OW89039  13.984  12.903  12.837
62381SOL    HW189040  13.963  12.836  12.771
62381SOL    HW289041  13.910  12.963  12.834
62382SOL     OW89042   0.631   8.399   5.881
62382SOL    HW189043   0.564   8.391   5.949
62382SOL    HW289044   0.590   8.362   5.803
62383SOL     OW89045   5.856   8.533   7.244
62383SOL    HW189046   5.928   8.562   7.300
62383SOL    HW289047   5.870   8.439   7.235
62384SOL     OW89048   6.565   1.166   1.671
62384SOL    HW189049   6.472   1.158   1.649
62384SOL    HW289050   6.576   1.258   1.695
62385SOL     OW89051  12.780   7.530  13.293
62385SOL    HW189052  12.785   7.576  13.377
62385SOL    HW289053  12.757   7.598  13.229
62386SOL     OW89054   5.088   3.560  11.634
62386SOL    HW189055   5.160   3.594  11.687
62386SOL    HW289056   5.030   3.517  11.698
62387SOL     OW89057  13.654   0.106   5.594
62387SOL    HW189058  13.708   0.125   5.671
62387SOL    HW289059  13.690   0.162   5.526
62388SOL     OW89060  10.052   9.063   2.288
62388SOL    HW189061  10.003   9.134   2.246
62388SOL    HW289062  10.143   9.077   2.261
62389SOL     OW89063   2.634  12.820   2.057
62389SOL    HW189064   2.710  12.762   2.064
62389SOL    HW289065   2.559  12.764   2.075
62390SOL     OW89066   7.242  12.600  10.925
62390SOL    HW189067   7.227  12.613  11.019
62390SOL    HW289068   7.219  12.684  10.886
62391SOL     OW89069   6.566   3.486   6.571
62391SOL    HW189070   6.491   3.465   6.627
62391SOL    HW289071   6.544   3.570   6.532
62392SOL     OW89072   9.745   3.845  11.636
62392SOL    HW189073   9.724   3.855  11.729
62392SOL    HW289074   9.724   3.754  11.616
62393SOL     OW89075  14.072  10.621   5.021
62393SOL    HW189076  14.078  10.649   4.930
62393SOL    HW289077  14.011  10.547   5.019
62394SOL     OW89078   1.771  10.110  11.379
62394SOL    HW189079   1.821  10.084  11.456
62394SOL    HW289080   1.690  10.146  11.415
62395SOL     OW89081   6.903   4.479   2.475
62395SOL    HW189082   6.925   4.572   2.482
62395SOL    HW289083   6.972   4.435   2.524
62396SOL     OW89084   9.001   8.948   4.830
62396SOL    HW189085   8.906   8.956   4.843
62396SOL    HW289086   9.038   8.961   4.917
62397SOL     OW89087  10.299   3.231  12.843
62397SOL    HW189088  10.267   3.321  12.835
62397SOL    HW289089  10.224   3.182  12.877
62398SOL     OW89090   9.925   7.865  11.384
62398SOL    HW189091   9.971   7.938  11.343
62398SOL    HW289092   9.836   7.872  11.351
62399SOL     OW89093   4.580  12.666  13.360
62399SOL    HW189094   4.612  12.703  13.278
62399SOL    HW289095   4.485  12.683  13.358
62400SOL     OW89096  12.814   1.125  13.737
62400SOL    HW189097  12.804   1.213  13.700
62400SOL    HW289098  12.774   1.131  13.824
62401SOL     OW89099  11.904  12.512  11.689
62401SOL    HW189100  11.863  12.537  11.772
62401SOL    HW289101  11.915  12.417  11.696
62402SOL     OW89102  14.425  14.827  10.186
62402SOL    HW189103  14.338  14.865  10.195
62402SOL    HW289104  14.480   0.027  10.155
62403SOL     OW89105   8.581   4.472   1.304
62403SOL    HW189106   8.581   4.376   1.307
62403SOL    HW289107   8.637   4.499   1.376
62404SOL     OW89108   5.588   5.643   5.069
62404SOL    HW189109   5.644   5.720   5.082
62404SOL    HW289110   5.624   5.577   5.129
62405SOL     OW89111   4.320   6.073  10.026
62405SOL    HW189112   4.367   6.008  10.079
62405SOL    HW289113   4.294   6.026   9.947
62406SOL     OW89114  11.329   7.754  12.339
62406SOL    HW189115  11.359   7.674  12.295
62406SOL    HW289116  11.343   7.823  12.275
62407SOL     OW89117   9.843   5.999   4.839
62407SOL    HW189118   9.897   5.999   4.760
62407SOL    HW289119   9.889   5.942   4.900
62408SOL     OW89120   2.327   4.254  10.467
62408SOL    HW189121   2.250   4.311  10.475
62408SOL    HW289122   2.340   4.219  10.554
62409SOL     OW89123  11.422   0.028   1.869
62409SOL    HW189124  11.334   0.063   1.854
62409SOL    HW289125  11.459   0.017   1.781
62410SOL     OW89126  13.108  12.236   5.822
62410SOL    HW189127  13.165  12.161   5.836
62410SOL    HW289128  13.167  12.309   5.803
62411SOL     OW89129  14.497   5.658   5.772
62411SOL    HW189130  14.469   5.642   5.683
62411SOL    HW289131  14.417   5.676   5.820
62412SOL     OW89132  12.057   6.758   9.122
62412SOL    HW189133  12.100   6.841   9.104
62412SOL    HW289134  11.968   6.782   9.147
62413SOL     OW89135   9.514   5.725   6.507
62413SOL    HW189136   9.561   5.725   6.424
62413SOL    HW289137   9.527   5.814   6.541
62414SOL     OW89138  10.144   1.420   7.338
62414SOL    HW189139  10.135   1.341   7.390
62414SOL    HW289140  10.062   1.468   7.352
62415SOL     OW89141  14.344   8.334   6.374
62415SOL    HW189142  14.380   8.422   6.367
62415SOL    HW289143  14.273   8.342   6.438
62416SOL     OW89144  11.632   3.908   2.491
62416SOL    HW189145  11.600   3.902   2.401
62416SOL    HW289146  11.694   3.836   2.499
62417SOL     OW89147  10.161  12.023   1.373
62417SOL    HW189148  10.069  12.027   1.345
62417SOL    HW289149  10.169  12.092   1.439
62418SOL     OW89150  13.444  10.932  12.822
62418SOL    HW189151  13.532  10.904  12.848
62418SOL    HW289152  13.385  10.873  12.869
62419SOL     OW89153   4.812  13.397  12.512
62419SOL    HW189154   4.728  13.427  12.476
62419SOL    HW289155   4.845  13.335  12.447
62420SOL     OW89156  11.906   8.001   3.320
62420SOL    HW189157  11.936   7.927   3.267
62420SOL    HW289158  11.931   8.078   3.267
62421SOL     OW89159   9.929   3.345   9.248
62421SOL    HW189160   9.866   3.304   9.308
62421SOL    HW289161  10.015   3.317   9.281
62422SOL     OW89162  11.759   8.465   2.017
62422SOL    HW189163  11.687   8.496   1.962
62422SOL    HW289164  11.813   8.542   2.031
62423SOL     OW89165   6.323  13.386  14.870
62423SOL    HW189166   6.228  13.393  14.866
62423SOL    HW289167   6.348  13.441   0.073
62424SOL     OW89168  10.987   0.372   7.071
62424SOL    HW189169  10.943   0.432   7.131
62424SOL    HW289170  10.930   0.370   6.994
62425SOL     OW89171  14.069  10.225   3.629
62425SOL    HW189172  14.073  10.138   3.590
62425SOL    HW289173  13.975  10.245   3.636
62426SOL     OW89174   4.820  14.246   7.053
62426SOL    HW189175   4.853  14.309   7.118
62426SOL    HW289176   4.749  14.292   7.009
62427SOL     OW89177   8.345  14.262   1.113
62427SOL    HW189178   8.435  14.266   1.081
62427SOL    HW289179   8.292  14.281   1.036
62428SOL     OW89180  13.718   4.823   7.079
62428SOL    HW189181  13.662   4.838   7.155
62428SOL    HW289182  13.666   4.766   7.022
62429SOL     OW89183   5.524   8.232  12.388
62429SOL    HW189184   5.522   8.313  12.338
62429SOL    HW289185   5.593   8.180  12.347
62430SOL     OW89186   1.911   3.214   0.805
62430SOL    HW189187   1.822   3.240   0.826
62430SOL    HW289188   1.909   3.192   0.712
62431SOL     OW89189   2.946   6.329   1.434
62431SOL    HW189190   2.853   6.340   1.415
62431SOL    HW289191   2.963   6.386   1.508
62432SOL     OW89192   5.357   3.433  10.869
62432SOL    HW189193   5.346   3.490  10.792
62432SOL    HW289194   5.386   3.493  10.938
62433SOL     OW89195   2.614   2.953  11.955
62433SOL    HW189196   2.637   2.929  12.045
62433SOL    HW289197   2.681   2.910  11.902
62434SOL     OW89198  14.634   8.103   4.745
62434SOL    HW189199  14.692   8.090   4.670
62434SOL    HW289200  14.654   8.191   4.776
62435SOL     OW89201   1.314   6.766   1.270
62435SOL    HW189202   1.330   6.672   1.274
62435SOL    HW289203   1.218   6.774   1.266
62436SOL     OW89204   8.632   3.904   0.380
62436SOL    HW189205   8.647   3.938   0.292
62436SOL    HW289206   8.555   3.847   0.371
62437SOL     OW89207   6.662   1.832   3.912
62437SOL    HW189208   6.725   1.897   3.883
62437SOL    HW289209   6.702   1.792   3.989
62438SOL     OW89210  13.896   1.447   9.322
62438SOL    HW189211  13.938   1.412   9.243
62438SOL    HW289212  13.820   1.496   9.289
62439SOL     OW89213   1.658   8.454   4.674
62439SOL    HW189214   1.712   8.515   4.723
62439SOL    HW289215   1.584   8.435   4.732
62440SOL     OW89216   5.019   2.073   3.183
62440SOL    HW189217   5.107   2.060   3.147
62440SOL    HW289218   5.022   2.161   3.221
62441SOL     OW89219   3.891   2.785   6.857
62441SOL    HW189220   3.826   2.835   6.808
62441SOL    HW289221   3.962   2.770   6.794
62442SOL     OW89222  12.440   8.062  10.236
62442SOL    HW189223  12.381   8.003  10.188
62442SOL    HW289224  12.489   8.107  10.167
62443SOL     OW89225  13.466   1.100  14.096
62443SOL    HW189226  13.427   1.184  14.119
62443SOL    HW289227  13.408   1.063  14.030
62444SOL     OW89228  13.813   1.271  10.972
62444SOL    HW189229  13.842   1.346  10.920
62444SOL    HW289230  13.877   1.202  10.951
62445SOL     OW89231   9.014   0.025   4.039
62445SOL    HW189232   9.066   0.023   3.959
62445SOL    HW289233   9.033  14.813   4.082
62446SOL     OW89234   7.350  14.092  10.702
62446SOL    HW189235   7.425  14.116  10.649
62446SOL    HW289236   7.388  14.061  10.785
62447SOL     OW89237  12.212   1.048  12.713
62447SOL    HW189238  12.185   0.965  12.674
62447SOL    HW289239  12.301   1.061  12.681
62448SOL     OW89240   9.336   2.407   9.917
62448SOL    HW189241   9.392   2.334   9.894
62448SOL    HW289242   9.365   2.479   9.860
62449SOL     OW89243   7.546   0.034  11.966
62449SOL    HW189244   7.528   0.016  12.058
62449SOL    HW289245   7.473  14.865  11.918
62450SOL     OW89246   5.136   2.380   3.794
62450SOL    HW189247   5.147   2.290   3.822
62450SOL    HW289248   5.052   2.407   3.832
62451SOL     OW89249   8.590   7.573   3.448
62451SOL    HW189250   8.677   7.549   3.479
62451SOL    HW289251   8.563   7.500   3.393
62452SOL     OW89252   6.026   4.713   1.700
62452SOL    HW189253   6.058   4.688   1.787
62452SOL    HW289254   6.038   4.808   1.696
62453SOL     OW89255   3.363  11.084   3.550
62453SOL    HW189256   3.438  11.068   3.493
62453SOL    HW289257   3.366  11.178   3.568
62454SOL     OW89258  10.204   6.158   7.510
62454SOL    HW189259  10.137   6.098   7.542
62454SOL    HW289260  10.219   6.131   7.420
62455SOL     OW89261   6.577   6.106   7.829
62455SOL    HW189262   6.526   6.039   7.783
62455SOL    HW289263   6.645   6.057   7.874
62456SOL     OW89264   1.372   3.717   2.424
62456SOL    HW189265   1.333   3.630   2.433
62456SOL    HW289266   1.375   3.732   2.330
62457SOL     OW89267  12.060   8.035  14.183
62457SOL    HW189268  12.125   8.023  14.252
62457SOL    HW289269  11.997   8.097  14.220
62458SOL     OW89270   0.174   2.898   2.112
62458SOL    HW189271   0.163   2.804   2.126
62458SOL    HW289272   0.202   2.932   2.197
62459SOL     OW89273  13.456   1.369  14.426
62459SOL    HW189274  13.479   1.458  14.451
62459SOL    HW289275  13.430   1.375  14.334
62460SOL     OW89276  13.762  11.980   1.710
62460SOL    HW189277  13.673  11.963   1.680
62460SOL    HW289278  13.765  11.943   1.798
62461SOL     OW89279   3.649   7.909  11.570
62461SOL    HW189280   3.600   7.971  11.516
62461SOL    HW289281   3.689   7.963  11.638
62462SOL     OW89282  11.111   2.637  11.568
62462SOL    HW189283  11.200   2.671  11.563
62462SOL    HW289284  11.093   2.602  11.480
62463SOL     OW89285   5.671   0.809   7.447
62463SOL    HW189286   5.657   0.885   7.392
62463SOL    HW289287   5.599   0.749   7.425
62464SOL     OW89288   0.614  10.104   6.011
62464SOL    HW189289   0.694  10.140   6.050
62464SOL    HW289290   0.575  10.177   5.963
62465SOL     OW89291   8.578   2.074   4.230
62465SOL    HW189292   8.659   2.126   4.225
62465SOL    HW289293   8.544   2.074   4.141
62466SOL     OW89294  12.276   5.637  14.030
62466SOL    HW189295  12.193   5.622  13.986
62466SOL    HW289296  12.299   5.728  14.010
62467SOL     OW89297   4.627   8.747   6.556
62467SOL    HW189298   4.572   8.674   6.526
62467SOL    HW289299   4.665   8.782   6.475
62468SOL     OW89300   8.486  13.406   6.911
62468SOL    HW189301   8.429  13.441   6.979
62468SOL    HW289302   8.459  13.314   6.902
62469SOL     OW89303   8.657   2.474   8.343
62469SOL    HW189304   8.740   2.483   8.390
62469SOL    HW289305   8.640   2.563   8.310
62470SOL     OW89306   7.776   3.778   6.115
62470SOL    HW189307   7.872   3.784   6.117
62470SOL    HW289308   7.752   3.818   6.031
62471SOL     OW89309  13.334   7.377  13.598
62471SOL    HW189310  13.418   7.401  13.638
62471SOL    HW289311  13.268   7.409  13.659
62472SOL     OW89312  11.288   2.820   1.203
62472SOL    HW189313  11.322   2.903   1.236
62472SOL    HW289314  11.367   2.769   1.182
62473SOL     OW89315   7.397   7.290  10.704
62473SOL    HW189316   7.417   7.352  10.774
62473SOL    HW289317   7.304   7.273  10.713
62474SOL     OW89318   9.784   6.409  10.664
62474SOL    HW189319   9.806   6.495  10.699
62474SOL    HW289320   9.804   6.416  10.570
62475SOL     OW89321   1.339  11.777   3.028
62475SOL    HW189322   1.294  11.860   3.011
62475SOL    HW289323   1.278  11.710   2.999
62476SOL     OW89324   5.683  11.834   5.576
62476SOL    HW189325   5.653  11.849   5.486
62476SOL    HW289326   5.728  11.750   5.573
62477SOL     OW89327   7.387   2.526   6.793
62477SOL    HW189328   7.382   2.443   6.745
62477SOL    HW289329   7.316   2.520   6.858
62478SOL     OW89330   8.247  14.763  11.144
62478SOL    HW189331   8.305  14.825  11.100
62478SOL    HW289332   8.217  14.705  11.073
62479SOL     OW89333   9.435  11.981   8.322
62479SOL    HW189334   9.414  11.918   8.391
62479SOL    HW289335   9.368  11.967   8.256
62480SOL     OW89336   7.574   6.144   1.501
62480SOL    HW189337   7.526   6.171   1.579
62480SOL    HW289338   7.625   6.221   1.475
62481SOL     OW89339   9.760   2.509   3.780
62481SOL    HW189340   9.812   2.432   3.758
62481SOL    HW289341   9.688   2.509   3.717
62482SOL     OW89342   8.946   4.441   7.143
62482SOL    HW189343   8.974   4.525   7.180
62482SOL    HW289344   8.935   4.458   7.050
62483SOL     OW89345   1.579   3.012   3.783
62483SOL    HW189346   1.639   3.087   3.786
62483SOL    HW289347   1.608   2.962   3.707
62484SOL     OW89348   4.362   8.440   6.077
62484SOL    HW189349   4.424   8.511   6.098
62484SOL    HW289350   4.417   8.371   6.041
62485SOL     OW89351   2.196   3.200   6.478
62485SOL    HW189352   2.193   3.243   6.392
62485SOL    HW289353   2.184   3.272   6.541
62486SOL     OW89354  12.229   7.290   5.538
62486SOL    HW189355  12.286   7.236   5.483
62486SOL    HW289356  12.142   7.278   5.501
62487SOL     OW89357   7.535   8.510  13.866
62487SOL    HW189358   7.538   8.415  13.871
62487SOL    HW289359   7.588   8.532  13.790
62488SOL     OW89360  13.037   9.707   0.329
62488SOL    HW189361  13.008   9.768   0.397
62488SOL    HW289362  13.052   9.624   0.375
62489SOL     OW89363  14.841  11.556   1.537
62489SOL    HW189364   0.022  11.523   1.463
62489SOL    HW289365  14.835  11.650   1.522
62490SOL     OW89366   3.618   7.739   4.191
62490SOL    HW189367   3.666   7.723   4.110
62490SOL    HW289368   3.526   7.727   4.167
62491SOL     OW89369  11.336   9.981  14.662
62491SOL    HW189370  11.357   9.983  14.569
62491SOL    HW289371  11.411   9.938  14.704
62492SOL     OW89372   7.007   1.668   2.864
62492SOL    HW189373   6.953   1.623   2.799
62492SOL    HW289374   6.956   1.744   2.890
62493SOL     OW89375   0.467   5.000   2.712
62493SOL    HW189376   0.443   5.082   2.670
62493SOL    HW289377   0.384   4.967   2.748
62494SOL     OW89378   4.274  13.477   7.332
62494SOL    HW189379   4.226  13.478   7.249
62494SOL    HW289380   4.317  13.391   7.334
62495SOL     OW89381   0.525   9.072  10.740
62495SOL    HW189382   0.578   8.997  10.714
62495SOL    HW289383   0.442   9.034  10.770
62496SOL     OW89384   8.828  12.295   8.309
62496SOL    HW189385   8.758  12.299   8.374
62496SOL    HW289386   8.876  12.377   8.319
62497SOL     OW89387   5.712   9.101   4.944
62497SOL    HW189388   5.788   9.085   4.889
62497SOL    HW289389   5.736   9.177   4.997
62498SOL     OW89390  14.078  12.085   5.765
62498SOL    HW189391  14.091  12.144   5.839
62498SOL    HW289392  14.088  11.997   5.802
62499SOL     OW89393   1.455   0.285   7.097
62499SOL    HW189394   1.397   0.209   7.098
62499SOL    HW289395   1.479   0.298   7.189
62500SOL     OW89396   9.204  11.606  13.027
62500SOL    HW189397   9.244  11.684  13.064
62500SOL    HW289398   9.156  11.567  13.100
62501SOL     OW89399  11.854  14.523  13.203
62501SOL    HW189400  11.819  14.439  13.173
62501SOL    HW289401  11.933  14.536  13.151
62502SOL     OW89402   6.880  13.198  12.079
62502SOL    HW189403   6.856  13.179  12.170
62502SOL    HW289404   6.965  13.242  12.084
62503SOL     OW89405  14.627  13.853   1.572
62503SOL    HW189406  14.593  13.764   1.561
62503SOL    HW289407  14.590  13.882   1.656
62504SOL     OW89408   0.106   3.860  14.690
62504SOL    HW189409   0.151   3.802  14.628
62504SOL    HW289410   0.139   3.947  14.669
62505SOL     OW89411  13.654   9.469   5.745
62505SOL    HW189412  13.569   9.465   5.703
62505SOL    HW289413  13.653   9.552   5.794
62506SOL     OW89414   2.450   8.547  11.346
62506SOL    HW189415   2.529   8.542  11.291
62506SOL    HW289416   2.386   8.593  11.291
62507SOL     OW89417   4.471  11.657   3.784
62507SOL    HW189418   4.518  11.651   3.868
62507SOL    HW289419   4.443  11.748   3.779
62508SOL     OW89420   8.626   2.836   3.672
62508SOL    HW189421   8.721   2.839   3.690
62508SOL    HW289422   8.620   2.813   3.580
62509SOL     OW89423  14.669   1.340  11.736
62509SOL    HW189424  14.630   1.408  11.792
62509SOL    HW289425  14.606   1.331  11.664
62510SOL     OW89426   5.377   7.940   8.265
62510SOL    HW189427   5.444   7.876   8.242
62510SOL    HW289428   5.420   7.998   8.329
62511SOL     OW89429  14.822   0.836  11.586
62511SOL    HW189430   0.002   0.755  11.594
62511SOL    HW289431   0.013   0.906  11.605
62512SOL     OW89432   5.706   2.161   3.975
62512SOL    HW189433   5.625   2.137   3.929
62512SOL    HW289434   5.711   2.257   3.966
62513SOL     OW89435   6.897   5.413   6.353
62513SOL    HW189436   6.808   5.437   6.379
62513SOL    HW289437   6.894   5.318   6.341
62514SOL     OW89438   9.036   0.801   8.066
62514SOL    HW189439   8.989   0.884   8.057
62514SOL    HW289440   9.128   0.826   8.066
62515SOL     OW89441   5.903  12.592   1.495
62515SOL    HW189442   5.877  12.577   1.585
62515SOL    HW289443   5.999  12.588   1.496
62516SOL     OW89444   9.842   9.010  13.675
62516SOL    HW189445   9.768   9.001  13.615
62516SOL    HW289446   9.844   9.103  13.696
62517SOL     OW89447   6.211   7.946  12.948
62517SOL    HW189448   6.209   8.021  12.888
62517SOL    HW289449   6.121   7.940  12.982
62518SOL     OW89450   3.158   8.264   4.605
62518SOL    HW189451   3.210   8.268   4.685
62518SOL    HW289452   3.219   8.287   4.535
62519SOL     OW89453  13.306   0.270   0.931
62519SOL    HW189454  13.244   0.342   0.919
62519SOL    HW289455  13.270   0.198   0.878
62520SOL     OW89456   3.395  11.571   4.465
62520SOL    HW189457   3.449  11.519   4.523
62520SOL    HW289458   3.415  11.538   4.377
62521SOL     OW89459  13.962   5.543   1.989
62521SOL    HW189460  14.011   5.580   1.916
62521SOL    HW289461  13.886   5.502   1.949
62522SOL     OW89462   4.466   6.180  11.599
62522SOL    HW189463   4.514   6.177  11.516
62522SOL    HW289464   4.392   6.239  11.582
62523SOL     OW89465   8.058   6.798   4.830
62523SOL    HW189466   8.011   6.741   4.769
62523SOL    HW289467   8.086   6.872   4.776
62524SOL     OW89468   9.763   7.985   5.035
62524SOL    HW189469   9.802   8.003   4.949
62524SOL    HW289470   9.748   8.072   5.072
62525SOL     OW89471  13.096   8.454   8.707
62525SOL    HW189472  13.109   8.428   8.616
62525SOL    HW289473  13.167   8.412   8.755
62526SOL     OW89474   0.715  11.430   3.228
62526SOL    HW189475   0.693  11.368   3.158
62526SOL    HW289476   0.639  11.489   3.232
62527SOL     OW89477   3.609   0.578  13.377
62527SOL    HW189478   3.557   0.509  13.335
62527SOL    HW289479   3.594   0.565  13.471
62528SOL     OW89480   3.798   5.736   0.859
62528SOL    HW189481   3.821   5.670   0.924
62528SOL    HW289482   3.713   5.709   0.825
62529SOL     OW89483  13.719   3.432   9.865
62529SOL    HW189484  13.635   3.396   9.834
62529SOL    HW289485  13.729   3.396   9.953
62530SOL     OW89486  12.046   5.557   6.817
62530SOL    HW189487  11.993   5.607   6.754
62530SOL    HW289488  12.134   5.556   6.779
62531SOL     OW89489  14.423  11.345  13.372
62531SOL    HW189490  14.448  11.406  13.303
62531SOL    HW289491  14.506  11.313  13.407
62532SOL     OW89492   5.626   7.666   3.022
62532SOL    HW189493   5.716   7.697   3.012
62532SOL    HW289494   5.589   7.671   2.934
62533SOL     OW89495   3.576  12.360   0.857
62533SOL    HW189496   3.663  12.383   0.824
62533SOL    HW289497   3.531  12.322   0.781
62534SOL     OW89498   7.506   8.497   3.702
62534SOL    HW189499   7.518   8.486   3.608
62534SOL    HW289500   7.525   8.411   3.739
62535SOL     OW89501  11.381  10.063   9.655
62535SOL    HW189502  11.309  10.067   9.718
62535SOL    HW289503  11.354  10.120   9.583
62536SOL     OW89504   1.598   8.861   1.291
62536SOL    HW189505   1.568   8.918   1.220
62536SOL    HW289506   1.562   8.901   1.371
62537SOL     OW89507  13.139   3.668   4.367
62537SOL    HW189508  13.190   3.723   4.426
62537SOL    HW289509  13.169   3.692   4.280
62538SOL     OW89510   6.083   8.347   9.097
62538SOL    HW189511   6.057   8.355   9.189
62538SOL    HW289512   6.074   8.254   9.077
62539SOL     OW89513  10.223  12.303  13.085
62539SOL    HW189514  10.139  12.317  13.127
62539SOL    HW289515  10.221  12.212  13.056
62540SOL     OW89516   2.387  13.895  14.809
62540SOL    HW189517   2.307  13.939  14.837
62540SOL    HW289518   2.357  13.814  14.768
62541SOL     OW89519   5.515   8.223   7.795
62541SOL    HW189520   5.517   8.296   7.857
62541SOL    HW289521   5.447   8.246   7.732
62542SOL     OW89522   7.999   7.723  10.139
62542SOL    HW189523   7.995   7.764  10.225
62542SOL    HW289524   8.030   7.634  10.156
62543SOL     OW89525   1.317  13.596   9.775
62543SOL    HW189526   1.335  13.608   9.682
62543SOL    HW289527   1.383  13.649   9.820
62544SOL     OW89528   1.679   9.985  13.071
62544SOL    HW189529   1.736  10.062  13.065
62544SOL    HW289530   1.663   9.974  13.164
62545SOL     OW89531   4.771   7.485   2.845
62545SOL    HW189532   4.831   7.525   2.782
62545SOL    HW289533   4.718   7.557   2.878
62546SOL     OW89534   3.516  10.002  13.097
62546SOL    HW189535   3.559   9.987  13.012
62546SOL    HW289536   3.469  10.084  13.085
62547SOL     OW89537   2.000  11.413   6.451
62547SOL    HW189538   2.069  11.347   6.453
62547SOL    HW289539   1.930  11.376   6.505
62548SOL     OW89540  10.437   6.610   2.364
62548SOL    HW189541  10.454   6.572   2.278
62548SOL    HW289542  10.406   6.699   2.345
62549SOL     OW89543   9.507   1.956  12.509
62549SOL    HW189544   9.515   1.894  12.582
62549SOL    HW289545   9.429   1.928  12.461
62550SOL     OW89546  11.734   0.422   8.001
62550SOL    HW189547  11.760   0.447   7.912
62550SOL    HW289548  11.708   0.505   8.042
62551SOL     OW89549  14.255   6.097   1.273
62551SOL    HW189550  14.165   6.083   1.302
62551SOL    HW289551  14.251   6.086   1.177
62552SOL     OW89552   7.912   6.392   8.868
62552SOL    HW189553   7.868   6.465   8.912
62552SOL    HW289554   7.861   6.315   8.895
62553SOL     OW89555  11.480   0.322   0.645
62553SOL    HW189556  11.503   0.283   0.561
62553SOL    HW289557  11.391   0.291   0.662
62554SOL     OW89558   2.156  10.650   9.653
62554SOL    HW189559   2.152  10.565   9.697
62554SOL    HW289560   2.210  10.634   9.575
62555SOL     OW89561   7.100  11.644  10.970
62555SOL    HW189562   7.116  11.644  11.064
62555SOL    HW289563   7.183  11.617  10.931
62556SOL     OW89564   2.116   9.129   7.804
62556SOL    HW189565   2.083   9.218   7.800
62556SOL    HW289566   2.166   9.118   7.723
62557SOL     OW89567  14.141   7.262   0.936
62557SOL    HW189568  14.212   7.321   0.962
62557SOL    HW289569  14.167   7.176   0.970
62558SOL     OW89570  10.288   7.987   8.279
62558SOL    HW189571  10.309   7.979   8.185
62558SOL    HW289572  10.243   8.071   8.287
62559SOL     OW89573   7.571   4.266   0.849
62559SOL    HW189574   7.524   4.287   0.929
62559SOL    HW289575   7.527   4.318   0.781
62560SOL     OW89576   0.329   1.355   7.487
62560SOL    HW189577   0.423   1.342   7.503
62560SOL    HW289578   0.294   1.383   7.572
62561SOL     OW89579  11.743   4.527  13.650
62561SOL    HW189580  11.837   4.539  13.644
62561SOL    HW289581  11.714   4.589  13.716
62562SOL     OW89582   6.595  14.448   6.704
62562SOL    HW189583   6.534  14.424   6.635
62562SOL    HW289584   6.622  14.365   6.743
62563SOL     OW89585   4.001   7.034   5.142
62563SOL    HW189586   4.087   7.075   5.153
62563SOL    HW289587   3.968   7.021   5.231
62564SOL     OW89588   3.416  12.639   9.794
62564SOL    HW189589   3.414  12.658   9.700
62564SOL    HW289590   3.459  12.714   9.833
62565SOL     OW89591  14.336  11.699   8.911
62565SOL    HW189592  14.359  11.610   8.939
62565SOL    HW289593  14.327  11.748   8.992
62566SOL     OW89594  10.671   9.352   6.794
62566SOL    HW189595  10.669   9.423   6.730
62566SOL    HW289596  10.745   9.373   6.852
62567SOL     OW89597  13.950   6.083  14.140
62567SOL    HW189598  13.976   6.078  14.048
62567SOL    HW289599  14.026   6.120  14.185
62568SOL     OW89600  13.776  13.956  10.515
62568SOL    HW189601  13.787  13.866  10.484
62568SOL    HW289602  13.727  14.000  10.446
62569SOL     OW89603  10.428  10.268   4.835
62569SOL    HW189604  10.423  10.271   4.739
62569SOL    HW289605  10.521  10.280   4.854
62570SOL     OW89606   7.528   1.857   2.179
62570SOL    HW189607   7.457   1.795   2.195
62570SOL    HW289608   7.495   1.940   2.214
62571SOL     OW89609  11.360   3.502   5.643
62571SOL    HW189610  11.395   3.423   5.602
62571SOL    HW289611  11.305   3.470   5.714
62572SOL     OW89612  10.480  14.855   1.163
62572SOL    HW189613  10.423  14.792   1.209
62572SOL    HW289614  10.561  14.806   1.147
62573SOL     OW89615   0.089  11.409   6.086
62573SOL    HW189616   0.002  11.435   6.056
62573SOL    HW289617   0.073  11.362   6.168
62574SOL     OW89618   5.734  10.586  14.657
62574SOL    HW189619   5.709  10.539  14.577
62574SOL    HW289620   5.658  10.578  14.715
62575SOL     OW89621  11.840   0.448   3.302
62575SOL    HW189622  11.806   0.537   3.300
62575SOL    HW289623  11.771   0.395   3.263
62576SOL     OW89624   1.710   4.204   4.185
62576SOL    HW189625   1.805   4.214   4.189
62576SOL    HW289626   1.696   4.117   4.149
62577SOL     OW89627   3.840  10.692   3.285
62577SOL    HW189628   3.862  10.717   3.195
62577SOL    HW289629   3.902  10.740   3.339
62578SOL     OW89630  13.282   2.510   9.766
62578SOL    HW189631  13.224   2.435   9.757
62578SOL    HW289632  13.237   2.582   9.722
62579SOL     OW89633   1.243  13.610  10.715
62579SOL    HW189634   1.252  13.590  10.622
62579SOL    HW289635   1.244  13.706  10.718
62580SOL     OW89636  14.013   9.086   3.257
62580SOL    HW189637  14.080   9.073   3.190
62580SOL    HW289638  13.977   9.172   3.239
62581SOL     OW89639  13.960  14.352   5.911
62581SOL    HW189640  13.959  14.280   5.976
62581SOL    HW289641  14.053  14.363   5.889
62582SOL     OW89642   9.415  10.791   9.136
62582SOL    HW189643   9.414  10.699   9.112
62582SOL    HW289644   9.341  10.801   9.196
62583SOL     OW89645  12.309   1.755  11.933
62583SOL    HW189646  12.236   1.726  11.877
62583SOL    HW289647  12.358   1.816  11.878
62584SOL     OW89648  14.424   4.728   4.053
62584SOL    HW189649  14.514   4.739   4.081
62584SOL    HW289650  14.423   4.754   3.961
62585SOL     OW89651   1.461   1.828   9.134
62585SOL    HW189652   1.445   1.790   9.220
62585SOL    HW289653   1.376   1.862   9.107
62586SOL     OW89654  10.506   1.782  11.294
62586SOL    HW189655  10.600   1.775  11.284
62586SOL    HW289656  10.477   1.694  11.320
62587SOL     OW89657   6.587  13.225   5.555
62587SOL    HW189658   6.571  13.244   5.648
62587SOL    HW289659   6.647  13.150   5.556
62588SOL     OW89660  11.184   2.443   9.490
62588SOL    HW189661  11.187   2.539   9.493
62588SOL    HW289662  11.249   2.415   9.554
62589SOL     OW89663   3.073  13.689   2.851
62589SOL    HW189664   3.021  13.769   2.856
62589SOL    HW289665   3.093  13.680   2.757
62590SOL     OW89666   4.136   7.041   2.047
62590SOL    HW189667   4.163   6.975   2.111
62590SOL    HW289668   4.180   7.015   1.966
62591SOL     OW89669   4.365  14.780   5.095
62591SOL    HW189670   4.434  14.826   5.047
62591SOL    HW289671   4.287  14.834   5.082
62592SOL     OW89672   1.425   0.998   7.051
62592SOL    HW189673   1.436   0.972   7.142
62592SOL    HW289674   1.393   1.088   7.055
62593SOL     OW89675  13.756   9.582  14.705
62593SOL    HW189676  13.794   9.530  14.635
62593SOL    HW289677  13.828   9.639  14.734
62594SOL     OW89678   0.724  12.999  11.978
62594SOL    HW189679   0.802  12.954  11.946
62594SOL    HW289680   0.752  13.090  11.990
62595SOL     OW89681   0.849   2.625   9.065
62595SOL    HW189682   0.908   2.599   8.995
62595SOL    HW289683   0.767   2.581   9.045
62596SOL     OW89684   8.795   8.205   1.743
62596SOL    HW189685   8.832   8.160   1.819
62596SOL    HW289686   8.860   8.272   1.721
62597SOL     OW89687   8.320  13.531   1.564
62597SOL    HW189688   8.416  13.527   1.557
62597SOL    HW289689   8.289  13.461   1.507
62598SOL     OW89690  11.511   8.605  12.207
62598SOL    HW189691  11.490   8.667  12.137
62598SOL    HW289692  11.605   8.591  12.199
62599SOL     OW89693   6.834   1.141   6.474
62599SOL    HW189694   6.823   1.177   6.562
62599SOL    HW289695   6.845   1.218   6.418
62600SOL     OW89696  10.701  13.338   9.175
62600SOL    HW189697  10.770  13.390   9.133
62600SOL    HW289698  10.748  13.281   9.236
62601SOL     OW89699   2.045  11.882   5.229
62601SOL    HW189700   2.082  11.843   5.308
62601SOL    HW289701   2.060  11.976   5.240
62602SOL     OW89702  11.455   3.429  10.513
62602SOL    HW189703  11.438   3.518  10.483
62602SOL    HW289704  11.398   3.374  10.460
62603SOL     OW89705  14.760   2.006  10.509
62603SOL    HW189706  14.683   2.034  10.458
62603SOL    HW289707  14.733   2.015  10.600
62604SOL     OW89708   1.173   3.283  13.401
62604SOL    HW189709   1.133   3.324  13.477
62604SOL    HW289710   1.193   3.355  13.342
62605SOL     OW89711   0.837  13.187   4.299
62605SOL    HW189712   0.766  13.248   4.319
62605SOL    HW289713   0.850  13.139   4.381
62606SOL     OW89714   2.203  10.677   8.730
62606SOL    HW189715   2.125  10.640   8.690
62606SOL    HW289716   2.263  10.690   8.656
62607SOL     OW89717   3.836  13.945  11.688
62607SOL    HW189718   3.850  13.935  11.782
62607SOL    HW289719   3.742  13.930  11.676
62608SOL     OW89720   2.280   7.780   0.724
62608SOL    HW189721   2.349   7.720   0.697
62608SOL    HW289722   2.206   7.760   0.667
62609SOL     OW89723   2.080   5.416   7.450
62609SOL    HW189724   2.146   5.356   7.417
62609SOL    HW289725   2.012   5.416   7.383
62610SOL     OW89726   5.715   3.066   6.403
62610SOL    HW189727   5.626   3.062   6.368
62610SOL    HW289728   5.766   3.105   6.332
62611SOL     OW89729  10.514   9.091   6.978
62611SOL    HW189730  10.516   9.148   6.901
62611SOL    HW289731  10.583   9.126   7.035
62612SOL     OW89732  14.354   7.208  11.129
62612SOL    HW189733  14.383   7.121  11.104
62612SOL    HW289734  14.319   7.197  11.218
62613SOL     OW89735   6.860   2.338  14.394
62613SOL    HW189736   6.935   2.280  14.380
62613SOL    HW289737   6.891   2.424  14.364
62614SOL     OW89738   6.199   6.376  11.247
62614SOL    HW189739   6.107   6.382  11.271
62614SOL    HW289740   6.199   6.357  11.154
62615SOL     OW89741   3.446   5.237   5.289
62615SOL    HW189742   3.522   5.253   5.233
62615SOL    HW289743   3.421   5.323   5.321
62616SOL     OW89744   5.084   9.659  10.579
62616SOL    HW189745   5.167   9.701  10.602
62616SOL    HW289746   5.017   9.714  10.618
62617SOL     OW89747   7.614  12.005  13.312
62617SOL    HW189748   7.603  12.022  13.406
62617SOL    HW289749   7.708  11.991  13.301
62618SOL     OW89750   0.616  13.555   8.471
62618SOL    HW189751   0.585  13.558   8.561
62618SOL    HW289752   0.627  13.462   8.452
62619SOL     OW89753  10.236   9.386   3.403
62619SOL    HW189754  10.200   9.304   3.437
62619SOL    HW289755  10.312   9.404   3.459
62620SOL     OW89756   4.808   1.081   6.629
62620SOL    HW189757   4.743   1.011   6.628
62620SOL    HW289758   4.837   1.088   6.538
62621SOL     OW89759   3.891   8.062   6.287
62621SOL    HW189760   3.902   7.968   6.272
62621SOL    HW289761   3.977   8.099   6.267
62622SOL     OW89762   3.085   4.165  11.921
62622SOL    HW189763   3.045   4.221  11.854
62622SOL    HW289764   3.032   4.182  12.000
62623SOL     OW89765   1.717   6.787  11.188
62623SOL    HW189766   1.632   6.784  11.144
62623SOL    HW289767   1.722   6.876  11.224
62624SOL     OW89768   5.882   4.876   2.098
62624SOL    HW189769   5.923   4.911   2.177
62624SOL    HW289770   5.821   4.944   2.070
62625SOL     OW89771   3.164   6.378   9.763
62625SOL    HW189772   3.073   6.350   9.768
62625SOL    HW289773   3.190   6.391   9.854
62626SOL     OW89774  10.771   4.972  10.120
62626SOL    HW189775  10.800   4.939  10.206
62626SOL    HW289776  10.821   5.053  10.108
62627SOL     OW89777   7.665   3.655   8.677
62627SOL    HW189778   7.639   3.613   8.759
62627SOL    HW289779   7.692   3.743   8.702
62628SOL     OW89780   5.889  11.404   1.787
62628SOL    HW189781   5.816  11.444   1.833
62628SOL    HW289782   5.848  11.341   1.728
62629SOL     OW89783   4.450   3.688  11.677
62629SOL    HW189784   4.468   3.630  11.751
62629SOL    HW289785   4.377   3.743  11.707
62630SOL     OW89786   4.727   5.195  10.765
62630SOL    HW189787   4.720   5.164  10.855
62630SOL    HW289788   4.822   5.202  10.749
62631SOL     OW89789   6.775  14.659   5.234
62631SOL    HW189790   6.839  14.648   5.304
62631SOL    HW289791   6.794  14.746   5.198
62632SOL     OW89792  14.176   2.297   0.316
62632SOL    HW189793  14.135   2.383   0.322
62632SOL    HW289794  14.149   2.264   0.230
62633SOL     OW89795   7.653   3.731   2.115
62633SOL    HW189796   7.569   3.770   2.092
62633SOL    HW289797   7.631   3.646   2.153
62634SOL     OW89798   4.282   3.422   0.696
62634SOL    HW189799   4.289   3.516   0.714
62634SOL    HW289800   4.198   3.413   0.651
62635SOL     OW89801   6.570  12.537   1.930
62635SOL    HW189802   6.562  12.611   1.991
62635SOL    HW289803   6.507  12.556   1.861
62636SOL     OW89804   5.407   8.845   7.380
62636SOL    HW189805   5.327   8.857   7.431
62636SOL    HW289806   5.461   8.786   7.433
62637SOL     OW89807  10.911   3.078   6.934
62637SOL    HW189808  10.865   3.063   7.016
62637SOL    HW289809  10.867   3.154   6.896
62638SOL     OW89810   5.042   4.928  10.847
62638SOL    HW189811   5.122   4.881  10.824
62638SOL    HW289812   5.066   5.021  10.837
62639SOL     OW89813   8.865   1.707   4.395
62639SOL    HW189814   8.869   1.678   4.304
62639SOL    HW289815   8.793   1.770   4.397
62640SOL     OW89816   4.518  10.036   4.988
62640SOL    HW189817   4.600  10.080   4.963
62640SOL    HW289818   4.543   9.945   5.002
62641SOL     OW89819   8.302   5.691   0.222
62641SOL    HW189820   8.224   5.715   0.172
62641SOL    HW289821   8.280   5.713   0.313
62642SOL     OW89822   3.329  11.824   2.206
62642SOL    HW189823   3.329  11.752   2.269
62642SOL    HW289824   3.261  11.801   2.142
62643SOL     OW89825   1.033   1.001  10.519
62643SOL    HW189826   1.040   1.025  10.427
62643SOL    HW289827   1.047   1.083  10.566
62644SOL     OW89828   8.670   9.436   9.302
62644SOL    HW189829   8.659   9.511   9.362
62644SOL    HW289830   8.600   9.375   9.327
62645SOL     OW89831   1.461  13.288   4.328
62645SOL    HW189832   1.428  13.263   4.414
62645SOL    HW289833   1.555  13.272   4.332
62646SOL     OW89834  10.365   7.020   5.144
62646SOL    HW189835  10.409   7.074   5.078
62646SOL    HW289836  10.363   7.074   5.222
62647SOL     OW89837   6.989  11.791   5.456
62647SOL    HW189838   6.957  11.815   5.543
62647SOL    HW289839   7.056  11.856   5.436
62648SOL     OW89840   9.917  11.266   5.738
62648SOL    HW189841   9.841  11.215   5.765
62648SOL    HW289842   9.981  11.201   5.710
62649SOL     OW89843   5.040   0.829   0.497
62649SOL    HW189844   5.052   0.919   0.530
62649SOL    HW289845   5.072   0.774   0.568
62650SOL     OW89846  14.603   8.206  13.558
62650SOL    HW189847  14.599   8.159  13.642
62650SOL    HW289848  14.524   8.177  13.512
62651SOL     OW89849   1.525   9.350   0.264
62651SOL    HW189850   1.546   9.410   0.192
62651SOL    HW289851   1.459   9.291   0.228
62652SOL     OW89852   7.094   0.087   8.445
62652SOL    HW189853   7.026   0.057   8.505
62652SOL    HW289854   7.167   0.111   8.502
62653SOL     OW89855   3.145   1.762   6.703
62653SOL    HW189856   3.229   1.735   6.740
62653SOL    HW289857   3.168   1.820   6.631
62654SOL     OW89858   5.026  11.037   1.444
62654SOL    HW189859   4.948  11.047   1.499
62654SOL    HW289860   4.994  11.051   1.355
62655SOL     OW89861   6.436   2.545  13.961
62655SOL    HW189862   6.364   2.527  14.021
62655SOL    HW289863   6.410   2.624  13.915
62656SOL     OW89864   0.080  12.109  10.753
62656SOL    HW189865   0.022  12.169  10.706
62656SOL    HW289866   0.114  12.051  10.685
62657SOL     OW89867  13.902   5.954   5.313
62657SOL    HW189868  13.949   5.877   5.344
62657SOL    HW289869  13.844   5.978   5.385
62658SOL     OW89870   9.564   2.341   2.275
62658SOL    HW189871   9.525   2.297   2.200
62658SOL    HW289872   9.510   2.418   2.289
62659SOL     OW89873   5.427  12.369  10.990
62659SOL    HW189874   5.484  12.294  11.009
62659SOL    HW289875   5.454  12.398  10.903
62660SOL     OW89876  12.479  10.590  14.027
62660SOL    HW189877  12.446  10.672  13.991
62660SOL    HW289878  12.473  10.601  14.122
62661SOL     OW89879  14.574  11.434   1.754
62661SOL    HW189880  14.663  11.407   1.734
62661SOL    HW289881  14.531  11.356   1.788
62662SOL     OW89882   8.917  13.176   6.673
62662SOL    HW189883   8.876  13.224   6.745
62662SOL    HW289884   8.903  13.084   6.694
62663SOL     OW89885   2.558   7.703   8.326
62663SOL    HW189886   2.644   7.672   8.354
62663SOL    HW289887   2.516   7.626   8.289
62664SOL     OW89888  10.870   6.596   4.973
62664SOL    HW189889  10.793   6.652   4.987
62664SOL    HW289890  10.944   6.656   4.980
62665SOL     OW89891  11.088   9.470  11.300
62665SOL    HW189892  11.066   9.531  11.229
62665SOL    HW289893  11.141   9.403  11.258
62666SOL     OW89894  10.734   9.034   5.351
62666SOL    HW189895  10.668   9.081   5.300
62666SOL    HW289896  10.715   8.942   5.336
62667SOL     OW89897   8.450  14.630  12.071
62667SOL    HW189898   8.400  14.560  12.029
62667SOL    HW289899   8.429  14.622  12.164
62668SOL     OW89900   3.783   8.164   4.793
62668SOL    HW189901   3.755   8.076   4.815
62668SOL    HW289902   3.702   8.217   4.796
62669SOL     OW89903   4.378   1.009  12.585
62669SOL    HW189904   4.297   0.983  12.629
62669SOL    HW289905   4.415   0.926  12.553
62670SOL     OW89906   2.348   7.209  13.430
62670SOL    HW189907   2.287   7.175  13.495
62670SOL    HW289908   2.329   7.303  13.428
62671SOL     OW89909   8.173   1.067   3.625
62671SOL    HW189910   8.115   1.065   3.701
62671SOL    HW289911   8.161   1.154   3.588
62672SOL     OW89912   2.913  13.349   9.630
62672SOL    HW189913   2.968  13.362   9.553
62672SOL    HW289914   2.892  13.255   9.628
62673SOL     OW89915  11.347  13.259   7.087
62673SOL    HW189916  11.299  13.323   7.140
62673SOL    HW289917  11.438  13.268   7.116
62674SOL     OW89918   8.479  13.262   4.077
62674SOL    HW189919   8.393  13.268   4.119
62674SOL    HW289920   8.510  13.174   4.100
62675SOL     OW89921   1.735   0.005   3.463
62675SOL    HW189922   1.692  14.833   3.389
62675SOL    HW289923   1.663   0.033   3.520
62676SOL     OW89924   1.183  13.965   4.977
62676SOL    HW189925   1.254  13.994   4.919
62676SOL    HW289926   1.130  13.907   4.923
62677SOL     OW89927   9.563   1.189   7.202
62677SOL    HW189928   9.513   1.253   7.152
62677SOL    HW289929   9.502   1.157   7.268
62678SOL     OW89930   2.386   6.095   2.258
62678SOL    HW189931   2.466   6.146   2.266
62678SOL    HW289932   2.369   6.063   2.346
62679SOL     OW89933  11.434   9.522  14.310
62679SOL    HW189934  11.349   9.546  14.347
62679SOL    HW289935  11.423   9.432  14.281
62680SOL     OW89936   3.228   9.060  13.912
62680SOL    HW189937   3.138   9.035  13.889
62680SOL    HW289938   3.230   9.155  13.899
62681SOL     OW89939  11.964  12.240  11.755
62681SOL    HW189940  11.896  12.204  11.698
62681SOL    HW289941  11.964  12.183  11.831
62682SOL     OW89942  11.816   4.264   8.569
62682SOL    HW189943  11.828   4.353   8.603
62682SOL    HW289944  11.807   4.210   8.648
62683SOL     OW89945   9.451   2.881  10.005
62683SOL    HW189946   9.488   2.854   9.921
62683SOL    HW289947   9.442   2.976   9.998
62684SOL     OW89948  12.612   2.029  13.729
62684SOL    HW189949  12.660   2.107  13.759
62684SOL    HW289950  12.627   1.964  13.798
62685SOL     OW89951   4.817   4.946   9.152
62685SOL    HW189952   4.739   4.999   9.133
62685SOL    HW289953   4.883   5.010   9.180
62686SOL     OW89954   5.001   3.954   9.741
62686SOL    HW189955   4.933   3.912   9.688
62686SOL    HW289956   4.954   4.000   9.810
62687SOL     OW89957   8.542   0.692   7.036
62687SOL    HW189958   8.520   0.726   6.949
62687SOL    HW289959   8.631   0.659   7.027
62688SOL     OW89960   0.795   7.712   3.898
62688SOL    HW189961   0.792   7.694   3.804
62688SOL    HW289962   0.752   7.797   3.908
62689SOL     OW89963   2.612  11.663   6.154
62689SOL    HW189964   2.578  11.743   6.194
62689SOL    HW289965   2.556  11.647   6.078
62690SOL     OW89966   3.444   0.505  12.629
62690SOL    HW189967   3.350   0.494  12.616
62690SOL    HW289968   3.480   0.511  12.541
62691SOL     OW89969   3.397   8.694   7.540
62691SOL    HW189970   3.489   8.669   7.551
62691SOL    HW289971   3.362   8.629   7.479
62692SOL     OW89972   7.653   3.062  11.912
62692SOL    HW189973   7.735   3.016  11.932
62692SOL    HW289974   7.618   3.017  11.836
62693SOL     OW89975   1.597   6.312   8.210
62693SOL    HW189976   1.643   6.232   8.186
62693SOL    HW289977   1.655   6.355   8.273
62694SOL     OW89978   5.951   8.134  14.639
62694SOL    HW189979   5.941   8.057  14.582
62694SOL    HW289980   5.979   8.099  14.723
62695SOL     OW89981   8.958  13.864   0.294
62695SOL    HW189982   8.930  13.781   0.256
62695SOL    HW289983   8.886  13.891   0.351
62696SOL     OW89984   6.216  13.724   7.530
62696SOL    HW189985   6.275  13.658   7.567
62696SOL    HW289986   6.192  13.779   7.605
62697SOL     OW89987   7.240  14.698   2.524
62697SOL    HW189988   7.237  14.618   2.576
62697SOL    HW289989   7.325  14.695   2.480
62698SOL     OW89990  12.348   4.978   3.849
62698SOL    HW189991  12.302   4.975   3.933
62698SOL    HW289992  12.287   4.936   3.787
62699SOL     OW89993   8.323   7.136   5.644
62699SOL    HW189994   8.369   7.097   5.570
62699SOL    HW289995   8.388   7.140   5.714
62700SOL     OW89996  11.404   9.620  12.381
62700SOL    HW189997  11.431   9.600  12.470
62700SOL    HW289998  11.309   9.633  12.387
62701SOL     OW89999   3.524   6.420  14.310
62701SOL    HW190000   3.570   6.342  14.339
62701SOL    HW290001   3.498   6.465  14.390
62702SOL     OW90002   0.164  14.792   1.560
62702SOL    HW190003   0.107  14.736   1.506
62702SOL    HW290004   0.135   0.009   1.541
62703SOL     OW90005   6.074   9.220  13.015
62703SOL    HW190006   6.021   9.144  12.993
62703SOL    HW290007   6.151   9.184  13.059
62704SOL     OW90008   2.931   8.045   9.194
62704SOL    HW190009   2.979   7.962   9.193
62704SOL    HW290010   2.923   8.066   9.287
62705SOL     OW90011   4.819   8.842   5.866
62705SOL    HW190012   4.765   8.920   5.860
62705SOL    HW290013   4.780   8.780   5.804
62706SOL     OW90014   9.723   1.638  14.252
62706SOL    HW190015   9.694   1.596  14.333
62706SOL    HW290016   9.644   1.638  14.196
62707SOL     OW90017  10.323  13.526  12.817
62707SOL    HW190018  10.234  13.517  12.850
62707SOL    HW290019  10.312  13.554  12.726
62708SOL     OW90020   5.750   7.893  10.708
62708SOL    HW190021   5.783   7.808  10.740
62708SOL    HW290022   5.655   7.884  10.710
62709SOL     OW90023  11.038  10.447   8.431
62709SOL    HW190024  11.017  10.497   8.509
62709SOL    HW290025  11.003  10.360   8.447
62710SOL     OW90026   8.211  13.619   6.544
62710SOL    HW190027   8.285  13.586   6.595
62710SOL    HW290028   8.134  13.596   6.597
62711SOL     OW90029   4.740  14.440  14.265
62711SOL    HW190030   4.767  14.462  14.354
62711SOL    HW290031   4.666  14.498  14.247
62712SOL     OW90032   1.922   5.927   4.180
62712SOL    HW190033   2.003   5.968   4.211
62712SOL    HW290034   1.951   5.862   4.116
62713SOL     OW90035  13.565   1.519   5.948
62713SOL    HW190036  13.480   1.475   5.954
62713SOL    HW290037  13.610   1.494   6.029
62714SOL     OW90038   4.156   7.260   5.902
62714SOL    HW190039   4.213   7.286   5.974
62714SOL    HW290040   4.074   7.234   5.945
62715SOL     OW90041  11.467  12.611  12.189
62715SOL    HW190042  11.511  12.547  12.246
62715SOL    HW290043  11.386  12.632  12.236
62716SOL     OW90044   7.049   8.235  11.518
62716SOL    HW190045   7.035   8.151  11.560
62716SOL    HW290046   7.120   8.275  11.568
62717SOL     OW90047   4.986   1.625   9.753
62717SOL    HW190048   5.008   1.679   9.828
62717SOL    HW290049   5.068   1.618   9.703
62718SOL     OW90050   7.031   9.874   5.436
62718SOL    HW190051   7.015   9.906   5.525
62718SOL    HW290052   7.126   9.875   5.427
62719SOL     OW90053  14.817   7.322   5.156
62719SOL    HW190054  14.732   7.300   5.194
62719SOL    HW290055  14.833   7.412   5.184
62720SOL     OW90056   3.309   4.240   6.930
62720SOL    HW190057   3.349   4.182   6.865
62720SOL    HW290058   3.236   4.281   6.884
62721SOL     OW90059   5.887  10.738   5.169
62721SOL    HW190060   5.817  10.802   5.185
62721SOL    HW290061   5.928  10.726   5.254
62722SOL     OW90062   4.378   3.421  13.199
62722SOL    HW190063   4.346   3.424  13.109
62722SOL    HW290064   4.360   3.508  13.234
62723SOL     OW90065  10.378   1.988   9.602
62723SOL    HW190066  10.408   1.956   9.687
62723SOL    HW290067  10.421   2.073   9.591
62724SOL     OW90068   4.169  13.736   0.935
62724SOL    HW190069   4.077  13.761   0.931
62724SOL    HW290070   4.178  13.688   1.017
62725SOL     OW90071   5.520  14.278   9.970
62725SOL    HW190072   5.523  14.184   9.952
62725SOL    HW290073   5.611  14.303   9.984
62726SOL     OW90074   6.153   1.623   4.327
62726SOL    HW190075   6.240   1.631   4.288
62726SOL    HW290076   6.122   1.537   4.299
62727SOL     OW90077  13.865   0.748  11.280
62727SOL    HW190078  13.788   0.705  11.317
62727SOL    HW290079  13.910   0.679  11.232
62728SOL     OW90080   5.670   7.237  13.878
62728SOL    HW190081   5.669   7.274  13.789
62728SOL    HW290082   5.578   7.214  13.895
62729SOL     OW90083   0.635   4.425  10.575
62729SOL    HW190084   0.690   4.453  10.502
62729SOL    HW290085   0.560   4.485  10.573
62730SOL     OW90086   8.418   9.903   3.928
62730SOL    HW190087   8.410   9.825   3.874
62730SOL    HW290088   8.502   9.892   3.974
62731SOL     OW90089  12.628   8.352   7.948
62731SOL    HW190090  12.572   8.287   7.906
62731SOL    HW290091  12.648   8.313   8.034
62732SOL     OW90092   0.329   4.790  11.541
62732SOL    HW190093   0.423   4.799  11.555
62732SOL    HW290094   0.292   4.875  11.566
62733SOL     OW90095   4.852   3.347   8.162
62733SOL    HW190096   4.853   3.405   8.086
62733SOL    HW290097   4.800   3.394   8.228
62734SOL     OW90098  13.999   1.798   6.500
62734SOL    HW190099  14.087   1.792   6.464
62734SOL    HW290100  13.972   1.888   6.485
62735SOL     OW90101  14.355   2.057   8.635
62735SOL    HW190102  14.449   2.062   8.618
62735SOL    HW290103  14.323   1.989   8.575
62736SOL     OW90104   8.591   9.270  10.045
62736SOL    HW190105   8.624   9.333   9.981
62736SOL    HW290106   8.627   9.301  10.128
62737SOL     OW90107   4.046   2.947  12.563
62737SOL    HW190108   4.008   3.026  12.602
62737SOL    HW290109   4.084   2.977  12.480
62738SOL     OW90110   7.335  11.601  10.866
62738SOL    HW190111   7.382  11.532  10.821
62738SOL    HW290112   7.391  11.625  10.940
62739SOL     OW90113   8.736   3.147   7.979
62739SOL    HW190114   8.680   3.120   8.051
62739SOL    HW290115   8.819   3.104   7.995
62740SOL     OW90116   3.659  14.523   0.771
62740SOL    HW190117   3.617  14.455   0.823
62740SOL    HW290118   3.601  14.599   0.778
62741SOL     OW90119   3.871   7.524   9.088
62741SOL    HW190120   3.857   7.600   9.032
62741SOL    HW290121   3.873   7.559   9.177
62742SOL     OW90122   3.665  12.128  12.475
62742SOL    HW190123   3.658  12.064  12.404
62742SOL    HW290124   3.739  12.098  12.527
62743SOL     OW90125  10.144   2.787  12.901
62743SOL    HW190126  10.106   2.874  12.905
62743SOL    HW290127  10.096   2.736  12.967
62744SOL     OW90128   6.039   6.545  11.647
62744SOL    HW190129   5.995   6.509  11.570
62744SOL    HW290130   6.035   6.640  11.634
62745SOL     OW90131   9.569   8.283  12.007
62745SOL    HW190132   9.542   8.260  12.096
62745SOL    HW290133   9.597   8.199  11.968
62746SOL     OW90134   7.149   6.061   7.163
62746SOL    HW190135   7.174   6.029   7.076
62746SOL    HW290136   7.122   6.152   7.148
62747SOL     OW90137   2.674   1.458   8.538
62747SOL    HW190138   2.642   1.538   8.580
62747SOL    HW290139   2.762   1.445   8.573
62748SOL     OW90140   8.025   7.259   0.154
62748SOL    HW190141   8.091   7.285   0.090
62748SOL    HW290142   8.076   7.223   0.227
62749SOL     OW90143  14.558   0.096  11.988
62749SOL    HW190144  14.561   0.007  11.954
62749SOL    HW290145  14.582   0.151  11.914
62750SOL     OW90146   0.919   6.392   7.708
62750SOL    HW190147   0.991   6.429   7.657
62750SOL    HW290148   0.896   6.461   7.771
62751SOL     OW90149  10.079   6.100   1.844
62751SOL    HW190150  10.146   6.105   1.776
62751SOL    HW290151  10.128   6.082   1.924
62752SOL     OW90152   7.648  12.893  13.283
62752SOL    HW190153   7.616  12.805  13.264
62752SOL    HW290154   7.742  12.888  13.266
62753SOL     OW90155   7.364   1.343  14.211
62753SOL    HW190156   7.331   1.255  14.193
62753SOL    HW290157   7.291   1.401  14.188
62754SOL     OW90158   0.111   2.974   7.319
62754SOL    HW190159   0.147   2.914   7.253
62754SOL    HW290160   0.093   3.054   7.270
62755SOL     OW90161   7.388  12.120  14.813
62755SOL    HW190162   7.380  12.133  14.718
62755SOL    HW290163   7.366  12.205  14.851
62756SOL     OW90164   8.470   4.182   5.615
62756SOL    HW190165   8.435   4.193   5.704
62756SOL    HW290166   8.531   4.254   5.604
62757SOL     OW90167   8.981   5.743  13.845
62757SOL    HW190168   8.933   5.743  13.927
62757SOL    HW290169   8.919   5.776  13.781
62758SOL     OW90170   0.907   4.943   7.395
62758SOL    HW190171   0.890   4.850   7.381
62758SOL    HW290172   0.832   4.973   7.446
62759SOL     OW90173   1.459   1.109   6.482
62759SOL    HW190174   1.477   1.192   6.438
62759SOL    HW290175   1.515   1.110   6.560
62760SOL     OW90176  12.411  12.883   3.913
62760SOL    HW190177  12.377  12.907   3.827
62760SOL    HW290178  12.452  12.797   3.900
62761SOL     OW90179   7.174   7.055  13.929
62761SOL    HW190180   7.150   6.986  13.866
62761SOL    HW290181   7.267   7.040  13.946
62762SOL     OW90182   8.169   0.508   9.970
62762SOL    HW190183   8.105   0.437   9.978
62762SOL    HW290184   8.156   0.543   9.882
62763SOL     OW90185   4.725  13.231   8.402
62763SOL    HW190186   4.730  13.320   8.436
62763SOL    HW290187   4.737  13.241   8.308
62764SOL     OW90188   5.988   1.716  12.835
62764SOL    HW190189   5.920   1.685  12.893
62764SOL    HW290190   6.066   1.723  12.890
62765SOL     OW90191  10.719  11.450   4.232
62765SOL    HW190192  10.765  11.533   4.240
62765SOL    HW290193  10.703  11.441   4.138
62766SOL     OW90194  10.243  11.054  12.301
62766SOL    HW190195  10.194  11.120  12.252
62766SOL    HW290196  10.305  11.104  12.354
62767SOL     OW90197  11.707   7.634  12.553
62767SOL    HW190198  11.750   7.697  12.495
62767SOL    HW290199  11.768   7.625  12.627
62768SOL     OW90200   2.022  13.563   4.529
62768SOL    HW190201   2.025  13.658   4.524
62768SOL    HW290202   2.072  13.541   4.608
62769SOL     OW90203  11.991   4.418   8.417
62769SOL    HW190204  11.971   4.434   8.325
62769SOL    HW290205  11.924   4.355   8.446
62770SOL     OW90206  13.085   6.760   0.028
62770SOL    HW190207  13.046   6.675   0.010
62770SOL    HW290208  13.034   6.796   0.100
62771SOL     OW90209   7.356  12.898   5.848
62771SOL    HW190210   7.263  12.921   5.851
62771SOL    HW290211   7.361  12.832   5.779
62772SOL     OW90212   4.074   5.985  10.574
62772SOL    HW190213   4.144   5.963  10.635
62772SOL    HW290214   4.105   5.953  10.489
62773SOL     OW90215   0.365   7.817   5.431
62773SOL    HW190216   0.443   7.853   5.390
62773SOL    HW290217   0.319   7.893   5.466
62774SOL     OW90218   3.125   4.933   6.452
62774SOL    HW190219   3.204   4.934   6.507
62774SOL    HW290220   3.159   4.928   6.362
62775SOL     OW90221   9.565   9.531  14.447
62775SOL    HW190222   9.655   9.510  14.469
62775SOL    HW290223   9.536   9.591  14.515
62776SOL     OW90224   0.889   5.892   0.462
62776SOL    HW190225   0.820   5.838   0.502
62776SOL    HW290226   0.963   5.832   0.451
62777SOL     OW90227   1.373   4.360   4.372
62777SOL    HW190228   1.322   4.280   4.369
62777SOL    HW290229   1.318   4.422   4.420
62778SOL     OW90230   6.354  14.273   4.083
62778SOL    HW190231   6.393  14.215   4.148
62778SOL    HW290232   6.427  14.300   4.027
62779SOL     OW90233  12.649   9.233   3.813
62779SOL    HW190234  12.570   9.287   3.809
62779SOL    HW290235  12.664   9.205   3.723
62780SOL     OW90236   3.679   0.249   1.692
62780SOL    HW190237   3.752   0.226   1.750
62780SOL    HW290238   3.690   0.191   1.616
62781SOL     OW90239   5.311  13.231   4.714
62781SOL    HW190240   5.286  13.319   4.742
62781SOL    HW290241   5.383  13.246   4.653
62782SOL     OW90242   9.605   9.643  12.455
62782SOL    HW190243   9.563   9.648  12.541
62782SOL    HW290244   9.549   9.585  12.404
62783SOL     OW90245   6.348  14.414  13.825
62783SOL    HW190246   6.324  14.444  13.738
62783SOL    HW290247   6.337  14.319  13.822
62784SOL     OW90248   7.964   2.948   3.914
62784SOL    HW190249   7.943   2.914   4.000
62784SOL    HW290250   7.901   3.019   3.900
62785SOL     OW90251  13.432  13.500   1.282
62785SOL    HW190252  13.338  13.507   1.265
62785SOL    HW290253  13.441  13.420   1.333
62786SOL     OW90254  12.900  10.730   0.843
62786SOL    HW190255  12.841  10.676   0.896
62786SOL    HW290256  12.878  10.709   0.752
62787SOL     OW90257  14.767   8.921  11.814
62787SOL    HW190258  14.700   8.872  11.766
62787SOL    HW290259  14.844   8.916  11.758
62788SOL     OW90260   6.275   3.131   6.828
62788SOL    HW190261   6.310   3.069   6.892
62788SOL    HW290262   6.183   3.142   6.853
62789SOL     OW90263  11.238  11.950   2.591
62789SOL    HW190264  11.164  11.948   2.652
62789SOL    HW290265  11.307  11.994   2.640
62790SOL     OW90266   9.996   2.724   5.007
62790SOL    HW190267  10.018   2.650   5.064
62790SOL    HW290268   9.984   2.685   4.921
62791SOL     OW90269   2.313   0.131   3.255
62791SOL    HW190270   2.256   0.204   3.278
62791SOL    HW290271   2.266   0.054   3.285
62792SOL     OW90272   0.684   2.357   6.401
62792SOL    HW190273   0.607   2.307   6.372
62792SOL    HW290274   0.734   2.294   6.453
62793SOL     OW90275   5.048  10.359   2.914
62793SOL    HW190276   4.958  10.327   2.918
62793SOL    HW290277   5.057  10.394   2.825
62794SOL     OW90278  10.039   7.644   0.871
62794SOL    HW190279  10.084   7.637   0.787
62794SOL    HW290280  10.094   7.702   0.924
62795SOL     OW90281   1.626   1.964  13.768
62795SOL    HW190282   1.594   2.010  13.691
62795SOL    HW290283   1.551   1.958  13.827
62796SOL     OW90284   4.183   3.033   5.650
62796SOL    HW190285   4.201   2.961   5.710
62796SOL    HW290286   4.157   2.991   5.568
62797SOL     OW90287   9.487   8.416   5.307
62797SOL    HW190288   9.511   8.327   5.330
62797SOL    HW290289   9.409   8.407   5.251
62798SOL     OW90290   0.839   9.007   4.897
62798SOL    HW190291   0.789   9.063   4.956
62798SOL    HW290292   0.926   9.047   4.893
62799SOL     OW90293   9.694   3.395   0.231
62799SOL    HW190294   9.719   3.401   0.323
62799SOL    HW290295   9.777   3.394   0.184
62800SOL     OW90296  12.808  13.412   7.644
62800SOL    HW190297  12.714  13.395   7.648
62800SOL    HW290298  12.844  13.365   7.719
62801SOL     OW90299  12.906  14.441   5.227
62801SOL    HW190300  12.904  14.451   5.322
62801SOL    HW290301  12.863  14.520   5.194
62802SOL     OW90302   5.788   4.274   7.869
62802SOL    HW190303   5.835   4.227   7.800
62802SOL    HW290304   5.855   4.330   7.909
62803SOL     OW90305   7.767   9.619  13.318
62803SOL    HW190306   7.851   9.599  13.277
62803SOL    HW290307   7.730   9.688  13.264
62804SOL     OW90308   9.845   6.268   3.228
62804SOL    HW190309   9.914   6.229   3.174
62804SOL    HW290310   9.804   6.194   3.273
62805SOL     OW90311  13.260   2.085   0.621
62805SOL    HW190312  13.322   2.105   0.550
62805SOL    HW290313  13.301   2.012   0.668
62806SOL     OW90314  11.426   4.263  12.322
62806SOL    HW190315  11.462   4.321  12.254
62806SOL    HW290316  11.501   4.242  12.377
62807SOL     OW90317  14.625  14.212  10.376
62807SOL    HW190318  14.700  14.267  10.352
62807SOL    HW290319  14.655  14.122  10.361
62808SOL     OW90320  10.379   1.861  12.778
62808SOL    HW190321  10.465   1.845  12.740
62808SOL    HW290322  10.386   1.830  12.869
62809SOL     OW90323   5.885  10.553  13.701
62809SOL    HW190324   5.822  10.606  13.751
62809SOL    HW290325   5.862  10.568  13.609
62810SOL     OW90326  11.134  12.765  11.218
62810SOL    HW190327  11.102  12.854  11.204
62810SOL    HW290328  11.183  12.744  11.138
62811SOL     OW90329  10.894   2.783   5.592
62811SOL    HW190330  10.906   2.822   5.505
62811SOL    HW290331  10.803   2.801   5.614
62812SOL     OW90332   4.670   4.600  10.141
62812SOL    HW190333   4.635   4.674  10.091
62812SOL    HW290334   4.637   4.614  10.230
62813SOL     OW90335   2.276  12.642  14.137
62813SOL    HW190336   2.329  12.569  14.170
62813SOL    HW290337   2.188  12.625  14.172
62814SOL     OW90338   4.615   4.065   6.257
62814SOL    HW190339   4.613   4.058   6.352
62814SOL    HW290340   4.675   4.137   6.240
62815SOL     OW90341   2.516  14.228   7.881
62815SOL    HW190342   2.495  14.247   7.972
62815SOL    HW290343   2.489  14.306   7.833
62816SOL     OW90344   2.312   5.149   1.757
62816SOL    HW190345   2.287   5.127   1.668
62816SOL    HW290346   2.230   5.144   1.807
62817SOL     OW90347   2.934  12.721   2.935
62817SOL    HW190348   2.955  12.764   2.852
62817SOL    HW290349   3.009  12.740   2.991
62818SOL     OW90350   4.935   2.543  12.576
62818SOL    HW190351   4.863   2.596  12.610
62818SOL    HW290352   4.903   2.453  12.580
62819SOL     OW90353   7.182  11.204  13.467
62819SOL    HW190354   7.153  11.142  13.400
62819SOL    HW290355   7.180  11.290  13.424
62820SOL     OW90356   5.575   6.914   0.624
62820SOL    HW190357   5.522   6.943   0.698
62820SOL    HW290358   5.555   6.821   0.615
62821SOL     OW90359   8.019  10.127   5.337
62821SOL    HW190360   7.949  10.061   5.335
62821SOL    HW290361   7.988  10.196   5.278
62822SOL     OW90362   6.954  10.711  12.475
62822SOL    HW190363   7.047  10.733  12.483
62822SOL    HW290364   6.939  10.644  12.541
62823SOL     OW90365   3.028   2.984  13.440
62823SOL    HW190366   3.089   2.925  13.397
62823SOL    HW290367   3.040   2.967  13.534
62824SOL     OW90368   5.552   3.389   3.578
62824SOL    HW190369   5.469   3.427   3.608
62824SOL    HW290370   5.556   3.411   3.485
62825SOL     OW90371   1.300  11.720   6.985
62825SOL    HW190372   1.249  11.640   6.988
62825SOL    HW290373   1.242  11.787   7.023
62826SOL     OW90374  10.410   7.552   1.027
62826SOL    HW190375  10.340   7.498   1.063
62826SOL    HW290376  10.481   7.545   1.091
62827SOL     OW90377   5.735   0.218   4.071
62827SOL    HW190378   5.766   0.190   3.985
62827SOL    HW290379   5.655   0.167   4.086
62828SOL     OW90380  12.932   7.846   6.445
62828SOL    HW190381  13.005   7.881   6.495
62828SOL    HW290382  12.888   7.786   6.506
62829SOL     OW90383  14.421   1.224   3.398
62829SOL    HW190384  14.493   1.211   3.336
62829SOL    HW290385  14.412   1.319   3.404
62830SOL     OW90386   9.371   4.500   5.652
62830SOL    HW190387   9.464   4.503   5.676
62830SOL    HW290388   9.351   4.589   5.622
62831SOL     OW90389   7.143   2.220   7.846
62831SOL    HW190390   7.063   2.197   7.894
62831SOL    HW290391   7.183   2.289   7.899
62832SOL     OW90392  10.963   9.763   3.721
62832SOL    HW190393  10.925   9.818   3.653
62832SOL    HW290394  10.933   9.674   3.700
62833SOL     OW90395   0.187   4.377  12.465
62833SOL    HW190396   0.265   4.320  12.461
62833SOL    HW290397   0.206   4.437  12.537
62834SOL     OW90398   8.945   4.419   5.991
62834SOL    HW190399   8.958   4.373   5.908
62834SOL    HW290400   8.904   4.502   5.967
62835SOL     OW90401  14.792   8.716   2.232
62835SOL    HW190402  14.764   8.778   2.300
62835SOL    HW290403  14.717   8.658   2.220
62836SOL     OW90404   0.078  14.238   8.791
62836SOL    HW190405   0.056  14.282   8.874
62836SOL    HW290406   0.075  14.145   8.812
62837SOL     OW90407   3.831   8.486  11.806
62837SOL    HW190408   3.768   8.549  11.842
62837SOL    HW290409   3.820   8.408  11.860
62838SOL     OW90410  11.126   6.783   0.768
62838SOL    HW190411  11.200   6.780   0.706
62838SOL    HW290412  11.058   6.831   0.722
62839SOL     OW90413   9.334   6.672   3.376
62839SOL    HW190414   9.335   6.768   3.380
62839SOL    HW290415   9.290   6.652   3.293
62840SOL     OW90416  11.190   1.375   4.582
62840SOL    HW190417  11.095   1.386   4.592
62840SOL    HW290418  11.225   1.463   4.589
62841SOL     OW90419   2.248  10.354   4.957
62841SOL    HW190420   2.286  10.277   4.914
62841SOL    HW290421   2.271  10.427   4.899
62842SOL     OW90422  14.096  12.574  10.620
62842SOL    HW190423  14.129  12.663  10.632
62842SOL    HW290424  14.168  12.518  10.651
62843SOL     OW90425  12.862   2.154   1.971
62843SOL    HW190426  12.827   2.242   1.960
62843SOL    HW290427  12.908   2.156   2.054
62844SOL     OW90428   3.179   1.768   0.604
62844SOL    HW190429   3.173   1.813   0.688
62844SOL    HW290430   3.191   1.839   0.540
62845SOL     OW90431  11.944   3.409   9.649
62845SOL    HW190432  11.976   3.414   9.739
62845SOL    HW290433  11.850   3.393   9.658
62846SOL     OW90434   0.730   2.763   3.403
62846SOL    HW190435   0.727   2.761   3.307
62846SOL    HW290436   0.651   2.715   3.430
62847SOL     OW90437   7.665  12.609  12.936
62847SOL    HW190438   7.615  12.664  12.876
62847SOL    HW290439   7.755  12.643  12.930
62848SOL     OW90440   9.839   7.226   8.996
62848SOL    HW190441   9.871   7.278   8.922
62848SOL    HW290442   9.918   7.190   9.035
62849SOL     OW90443   4.898   1.603  13.329
62849SOL    HW190444   4.878   1.560  13.412
62849SOL    HW290445   4.839   1.561  13.265
62850SOL     OW90446  10.615   0.940   9.118
62850SOL    HW190447  10.593   0.863   9.065
62850SOL    HW290448  10.536   0.957   9.169
62851SOL     OW90449  10.757   4.775   3.131
62851SOL    HW190450  10.749   4.858   3.083
62851SOL    HW290451  10.791   4.714   3.067
62852SOL     OW90452   4.062   2.851   1.486
62852SOL    HW190453   4.075   2.864   1.392
62852SOL    HW290454   3.969   2.867   1.499
62853SOL     OW90455   2.040   1.917   9.900
62853SOL    HW190456   1.998   1.996   9.866
62853SOL    HW290457   2.102   1.949   9.965
62854SOL     OW90458   4.039  10.996   2.087
62854SOL    HW190459   4.026  11.065   2.022
62854SOL    HW290460   4.094  11.037   2.154
62855SOL     OW90461   4.725   6.817   8.300
62855SOL    HW190462   4.667   6.883   8.263
62855SOL    HW290463   4.811   6.837   8.263
62856SOL     OW90464   6.561   6.226  11.717
62856SOL    HW190465   6.627   6.174  11.761
62856SOL    HW290466   6.602   6.254  11.635
62857SOL     OW90467   0.953   4.178  12.478
62857SOL    HW190468   0.917   4.146  12.395
62857SOL    HW290469   1.020   4.242  12.453
62858SOL     OW90470  13.044  12.009   6.978
62858SOL    HW190471  13.105  12.082   6.970
62858SOL    HW290472  12.958  12.050   6.978
62859SOL     OW90473   0.779   0.884  11.093
62859SOL    HW190474   0.693   0.917  11.066
62859SOL    HW290475   0.781   0.794  11.059
62860SOL     OW90476  14.528  13.852  13.952
62860SOL    HW190477  14.540  13.940  13.916
62860SOL    HW290478  14.488  13.866  14.037
62861SOL     OW90479   9.602   7.418  12.495
62861SOL    HW190480   9.518   7.427  12.451
62861SOL    HW290481   9.614   7.502  12.541
62862SOL     OW90482   3.734  11.050   3.971
62862SOL    HW190483   3.688  11.041   3.887
62862SOL    HW290484   3.665  11.071   4.034
62863SOL     OW90485   7.568   2.795   0.156
62863SOL    HW190486   7.622   2.828   0.083
62863SOL    HW290487   7.561   2.701   0.138
62864SOL     OW90488   4.142   7.644   3.307
62864SOL    HW190489   4.073   7.672   3.247
62864SOL    HW290490   4.203   7.718   3.310
62865SOL     OW90491   7.145   0.860   7.627
62865SOL    HW190492   7.233   0.885   7.655
62865SOL    HW290493   7.088   0.888   7.698
62866SOL     OW90494   7.426   0.352   4.814
62866SOL    HW190495   7.408   0.388   4.727
62866SOL    HW290496   7.513   0.386   4.837
62867SOL     OW90497   4.773  11.078  13.587
62867SOL    HW190498   4.747  10.986  13.585
62867SOL    HW290499   4.869  11.076  13.584
62868SOL     OW90500   2.149  14.805   3.781
62868SOL    HW190501   2.114  14.740   3.843
62868SOL    HW290502   2.072  14.837   3.734
62869SOL     OW90503  13.070  10.265   3.606
62869SOL    HW190504  13.128  10.323   3.656
62869SOL    HW290505  13.128  10.224   3.541
62870SOL     OW90506   8.750   1.641   3.357
62870SOL    HW190507   8.670   1.666   3.404
62870SOL    HW290508   8.789   1.725   3.331
62871SOL     OW90509  11.668  10.282  10.395
62871SOL    HW190510  11.643  10.212  10.335
62871SOL    HW290511  11.600  10.349  10.384
62872SOL     OW90512   7.829  11.596   8.672
62872SOL    HW190513   7.828  11.545   8.591
62872SOL    HW290514   7.748  11.571   8.717
62873SOL     OW90515  12.450   8.883  11.172
62873SOL    HW190516  12.455   8.797  11.130
62873SOL    HW290517  12.531   8.889  11.223
62874SOL     OW90518   3.310  11.764   3.542
62874SOL    HW190519   3.254  11.801   3.474
62874SOL    HW290520   3.252  11.752   3.617
62875SOL     OW90521   7.834   7.060   4.978
62875SOL    HW190522   7.837   7.012   4.895
62875SOL    HW290523   7.842   7.152   4.952
62876SOL     OW90524  10.782   1.431  13.981
62876SOL    HW190525  10.751   1.342  13.993
62876SOL    HW290526  10.738   1.482  14.049
62877SOL     OW90527   0.645   7.352   7.153
62877SOL    HW190528   0.626   7.324   7.064
62877SOL    HW290529   0.676   7.442   7.144
62878SOL     OW90530  13.390   1.825  12.657
62878SOL    HW190531  13.467   1.770  12.646
62878SOL    HW290532  13.350   1.828  12.570
62879SOL     OW90533  14.845   6.282  14.601
62879SOL    HW190534  14.847   6.368  14.643
62879SOL    HW290535   0.039   6.231  14.649
62880SOL     OW90536   1.504   8.129  10.162
62880SOL    HW190537   1.576   8.136  10.099
62880SOL    HW290538   1.504   8.213  10.208
62881SOL     OW90539   4.026   8.939   5.731
62881SOL    HW190540   3.971   8.926   5.808
62881SOL    HW290541   4.102   8.882   5.746
62882SOL     OW90542   1.665   1.752   0.503
62882SOL    HW190543   1.580   1.770   0.463
62882SOL    HW290544   1.656   1.663   0.539
62883SOL     OW90545   3.946   4.127   0.948
62883SOL    HW190546   4.013   4.131   1.016
62883SOL    HW290547   3.902   4.212   0.952
62884SOL     OW90548   9.667  10.573   2.558
62884SOL    HW190549   9.738  10.563   2.622
62884SOL    HW290550   9.694  10.647   2.504
62885SOL     OW90551   2.778   9.257  11.620
62885SOL    HW190552   2.776   9.265  11.524
62885SOL    HW290553   2.709   9.316  11.650
62886SOL     OW90554   3.741   3.199   9.456
62886SOL    HW190555   3.662   3.253   9.447
62886SOL    HW290556   3.807   3.245   9.404
62887SOL     OW90557   5.710  11.117   3.956
62887SOL    HW190558   5.675  11.203   3.930
62887SOL    HW290559   5.756  11.086   3.878
62888SOL     OW90560  14.468   9.560  13.597
62888SOL    HW190561  14.464   9.637  13.541
62888SOL    HW290562  14.561   9.548  13.615
62889SOL     OW90563   2.412   4.936   5.178
62889SOL    HW190564   2.357   4.857   5.181
62889SOL    HW290565   2.383   4.987   5.254
62890SOL     OW90566   0.659   6.075   9.707
62890SOL    HW190567   0.658   6.119   9.792
62890SOL    HW290568   0.567   6.050   9.693
62891SOL     OW90569   8.010   7.474   4.642
62891SOL    HW190570   7.933   7.419   4.624
62891SOL    HW290571   7.992   7.513   4.727
62892SOL     OW90572  10.542   4.600   4.440
62892SOL    HW190573  10.599   4.523   4.438
62892SOL    HW290574  10.456   4.565   4.463
62893SOL     OW90575  10.485  10.874   9.950
62893SOL    HW190576  10.436  10.857  10.031
62893SOL    HW290577  10.503  10.968   9.952
62894SOL     OW90578  14.699   0.232  10.742
62894SOL    HW190579  14.729   0.314  10.703
62894SOL    HW290580  14.619   0.255  10.789
62895SOL     OW90581   0.906   5.099   5.465
62895SOL    HW190582   0.981   5.121   5.521
62895SOL    HW290583   0.942   5.097   5.376
62896SOL     OW90584   2.207   9.971   3.089
62896SOL    HW190585   2.116   9.987   3.113
62896SOL    HW290586   2.205   9.961   2.994
62897SOL     OW90587  13.436   5.852  12.676
62897SOL    HW190588  13.480   5.780  12.722
62897SOL    HW290589  13.466   5.845  12.586
62898SOL     OW90590   8.111   1.241   1.506
62898SOL    HW190591   8.028   1.235   1.553
62898SOL    HW290592   8.177   1.213   1.570
62899SOL     OW90593  14.251  10.280   9.001
62899SOL    HW190594  14.328  10.260   8.948
62899SOL    HW290595  14.194  10.331   8.943
62900SOL     OW90596   9.372  11.225  12.937
62900SOL    HW190597   9.339  11.199  13.022
62900SOL    HW290598   9.433  11.156  12.912
62901SOL     OW90599  13.139   0.271  10.097
62901SOL    HW190600  13.056   0.224  10.100
62901SOL    HW290601  13.189   0.229  10.027
62902SOL     OW90602   5.661   3.299   1.243
62902SOL    HW190603   5.628   3.388   1.259
62902SOL    HW290604   5.642   3.283   1.151
62903SOL     OW90605   7.988  12.699  12.038
62903SOL    HW190606   8.037  12.694  12.120
62903SOL    HW290607   8.019  12.624  11.988
62904SOL     OW90608  10.820  10.878  13.488
62904SOL    HW190609  10.874  10.811  13.445
62904SOL    HW290610  10.829  10.860  13.581
62905SOL     OW90611   5.574  14.023   9.775
62905SOL    HW190612   5.539  13.936   9.797
62905SOL    HW290613   5.642  14.005   9.711
62906SOL     OW90614   8.357  11.534   6.992
62906SOL    HW190615   8.335  11.442   6.980
62906SOL    HW290616   8.344  11.550   7.085
62907SOL     OW90617   6.835   0.590   7.034
62907SOL    HW190618   6.810   0.556   6.948
62907SOL    HW290619   6.753   0.610   7.078
62908SOL     OW90620  10.450  14.021   9.381
62908SOL    HW190621  10.395  14.073   9.323
62908SOL    HW290622  10.536  14.021   9.339
62909SOL     OW90623   9.480  10.801   5.801
62909SOL    HW190624   9.408  10.829   5.858
62909SOL    HW290625   9.475  10.861   5.726
62910SOL     OW90626   2.532   5.353   5.416
62910SOL    HW190627   2.439   5.370   5.428
62910SOL    HW290628   2.550   5.277   5.471
62911SOL     OW90629   4.783  12.590  10.916
62911SOL    HW190630   4.774  12.657  10.848
62911SOL    HW290631   4.846  12.527  10.880
62912SOL     OW90632   3.275   4.877   5.452
62912SOL    HW190633   3.308   4.800   5.406
62912SOL    HW290634   3.234   4.930   5.383
62913SOL     OW90635  12.830   4.328  10.652
62913SOL    HW190636  12.828   4.390  10.725
62913SOL    HW290637  12.906   4.355  10.600
62914SOL     OW90638  10.702   3.086   3.896
62914SOL    HW190639  10.617   3.044   3.906
62914SOL    HW290640  10.697   3.163   3.952
62915SOL     OW90641   4.322   1.060   5.211
62915SOL    HW190642   4.380   1.119   5.164
62915SOL    HW290643   4.362   1.050   5.297
62916SOL     OW90644   1.333   3.588  11.706
62916SOL    HW190645   1.252   3.558  11.665
62916SOL    HW290646   1.348   3.527  11.778
62917SOL     OW90647   9.428   7.197  13.941
62917SOL    HW190648   9.376   7.247  14.003
62917SOL    HW290649   9.443   7.258  13.868
62918SOL     OW90650   6.017   2.443   9.459
62918SOL    HW190651   6.074   2.430   9.534
62918SOL    HW290652   5.968   2.523   9.479
62919SOL     OW90653   7.497   2.107   7.418
62919SOL    HW190654   7.474   2.020   7.451
62919SOL    HW290655   7.473   2.104   7.325
62920SOL     OW90656   1.069   2.745   4.479
62920SOL    HW190657   1.138   2.804   4.450
62920SOL    HW290658   1.014   2.734   4.401
62921SOL     OW90659   6.671   9.754   0.456
62921SOL    HW190660   6.736   9.712   0.513
62921SOL    HW290661   6.628   9.818   0.512
62922SOL     OW90662   3.506   7.966   2.977
62922SOL    HW190663   3.526   7.968   2.884
62922SOL    HW290664   3.486   7.875   2.996
62923SOL     OW90665   6.585   9.628   6.712
62923SOL    HW190666   6.593   9.706   6.657
62923SOL    HW290667   6.586   9.555   6.650
62924SOL     OW90668   0.972  14.300   9.530
62924SOL    HW190669   0.956  14.239   9.602
62924SOL    HW290670   1.067  14.310   9.527
62925SOL     OW90671   9.846   9.645   2.393
62925SOL    HW190672   9.772   9.652   2.453
62925SOL    HW290673   9.907   9.714   2.422
62926SOL     OW90674  13.147   3.785   8.989
62926SOL    HW190675  13.207   3.719   9.024
62926SOL    HW290676  13.147   3.853   9.057
62927SOL     OW90677   4.354  13.156   3.931
62927SOL    HW190678   4.402  13.105   3.866
62927SOL    HW290679   4.413  13.161   4.007
62928SOL     OW90680   6.703   3.181   7.460
62928SOL    HW190681   6.674   3.141   7.543
62928SOL    HW290682   6.715   3.274   7.481
62929SOL     OW90683   7.001   4.122  11.349
62929SOL    HW190684   7.001   4.121  11.253
62929SOL    HW290685   6.997   4.030  11.374
62930SOL     OW90686  10.685  11.779  11.270
62930SOL    HW190687  10.627  11.846  11.237
62930SOL    HW290688  10.769  11.823  11.281
62931SOL     OW90689   6.595   2.073  11.277
62931SOL    HW190690   6.555   1.986  11.275
62931SOL    HW290691   6.658   2.068  11.349
62932SOL     OW90692   8.596   9.219   2.511
62932SOL    HW190693   8.571   9.177   2.593
62932SOL    HW290694   8.520   9.207   2.454
62933SOL     OW90695  14.539  13.629   6.500
62933SOL    HW190696  14.633  13.613   6.508
62933SOL    HW290697  14.504  13.547   6.464
62934SOL     OW90698   7.212  13.186   7.323
62934SOL    HW190699   7.292  13.198   7.272
62934SOL    HW290700   7.150  13.146   7.262
62935SOL     OW90701   3.204  13.325  14.651
62935SOL    HW190702   3.220  13.290  14.563
62935SOL    HW290703   3.270  13.394  14.661
62936SOL     OW90704  11.808   7.772   4.790
62936SOL    HW190705  11.792   7.840   4.855
62936SOL    HW290706  11.904   7.764   4.787
62937SOL     OW90707   2.579   6.072   9.085
62937SOL    HW190708   2.553   6.136   9.151
62937SOL    HW290709   2.503   6.014   9.076
62938SOL     OW90710  13.001  10.070   5.411
62938SOL    HW190711  13.089  10.094   5.383
62938SOL    HW290712  13.003   9.974   5.414
62939SOL     OW90713  12.421  10.165   1.872
62939SOL    HW190714  12.509  10.198   1.849
62939SOL    HW290715  12.361  10.229   1.834
62940SOL     OW90716   1.779   0.660   5.053
62940SOL    HW190717   1.725   0.676   4.975
62940SOL    HW290718   1.869   0.660   5.020
62941SOL     OW90719  12.067   8.282   2.294
62941SOL    HW190720  12.086   8.233   2.214
62941SOL    HW290721  12.055   8.216   2.361
62942SOL     OW90722   2.373   5.789   2.097
62942SOL    HW190723   2.357   5.734   2.021
62942SOL    HW290724   2.342   5.737   2.171
62943SOL     OW90725   3.925   4.689  11.750
62943SOL    HW190726   3.968   4.623  11.696
62943SOL    HW290727   3.994   4.722  11.807
62944SOL     OW90728  12.740   1.761  12.918
62944SOL    HW190729  12.790   1.842  12.926
62944SOL    HW290730  12.784   1.699  12.975
62945SOL     OW90731   0.563   4.668   2.179
62945SOL    HW190732   0.558   4.758   2.212
62945SOL    HW290733   0.625   4.624   2.238
62946SOL     OW90734   7.394   5.433   5.798
62946SOL    HW190735   7.437   5.517   5.812
62946SOL    HW290736   7.412   5.411   5.707
62947SOL     OW90737   9.240   8.819   1.912
62947SOL    HW190738   9.196   8.825   1.827
62947SOL    HW290739   9.178   8.772   1.968
62948SOL     OW90740  12.760   0.625   8.263
62948SOL    HW190741  12.760   0.598   8.171
62948SOL    HW290742  12.838   0.680   8.271
62949SOL     OW90743   8.253  13.350   4.315
62949SOL    HW190744   8.179  13.358   4.255
62949SOL    HW290745   8.271  13.440   4.343
62950SOL     OW90746   3.028  14.698  11.158
62950SOL    HW190747   3.114  14.726  11.189
62950SOL    HW290748   2.984  14.779  11.132
62951SOL     OW90749   1.408  12.298   6.752
62951SOL    HW190750   1.420  12.230   6.685
62951SOL    HW290751   1.354  12.364   6.710
62952SOL     OW90752  14.691   7.416   6.991
62952SOL    HW190753  14.614   7.442   7.042
62952SOL    HW290754  14.658   7.406   6.901
62953SOL     OW90755   0.566   7.786   0.707
62953SOL    HW190756   0.568   7.692   0.688
62953SOL    HW290757   0.657   7.808   0.728
62954SOL     OW90758   2.192   0.873   2.675
62954SOL    HW190759   2.209   0.966   2.659
62954SOL    HW290760   2.260   0.827   2.627
62955SOL     OW90761   0.527   2.052   6.084
62955SOL    HW190762   0.616   2.043   6.050
62955SOL    HW290763   0.522   1.987   6.154
62956SOL     OW90764   7.109   6.554  10.230
62956SOL    HW190765   7.035   6.494  10.237
62956SOL    HW290766   7.115   6.594  10.316
62957SOL     OW90767  12.978   3.152   0.936
62957SOL    HW190768  13.000   3.200   1.016
62957SOL    HW290769  12.987   3.060   0.959
62958SOL     OW90770   1.086   8.287   4.698
62958SOL    HW190771   1.101   8.378   4.725
62958SOL    HW290772   1.172   8.254   4.675
62959SOL     OW90773   9.962  13.089  12.886
62959SOL    HW190774   9.902  13.159  12.910
62959SOL    HW290775   9.909  13.009  12.888
62960SOL     OW90776  13.622   1.690  12.657
62960SOL    HW190777  13.695   1.650  12.609
62960SOL    HW290778  13.649   1.689  12.748
62961SOL     OW90779  10.223   5.096   2.483
62961SOL    HW190780  10.228   5.016   2.535
62961SOL    HW290781  10.196   5.163   2.545
62962SOL     OW90782   7.468   8.537  10.172
62962SOL    HW190783   7.416   8.557  10.094
62962SOL    HW290784   7.407   8.548  10.245
62963SOL     OW90785   1.304   7.150  12.379
62963SOL    HW190786   1.267   7.071  12.418
62963SOL    HW290787   1.233   7.214  12.384
62964SOL     OW90788  14.246   5.838  13.422
62964SOL    HW190789  14.151   5.845  13.435
62964SOL    HW290790  14.283   5.893  13.490
62965SOL     OW90791  10.841   5.782   5.267
62965SOL    HW190792  10.889   5.770   5.349
62965SOL    HW290793  10.824   5.693   5.236
62966SOL     OW90794   9.385   8.553   8.162
62966SOL    HW190795   9.303   8.585   8.124
62966SOL    HW290796   9.453   8.594   8.110
62967SOL     OW90797  11.375   2.247  12.128
62967SOL    HW190798  11.321   2.253  12.048
62967SOL    HW290799  11.428   2.326  12.127
62968SOL     OW90800  11.390  10.818   0.365
62968SOL    HW190801  11.444  10.740   0.354
62968SOL    HW290802  11.373  10.848   0.276
62969SOL     OW90803  10.222   4.311   0.295
62969SOL    HW190804  10.157   4.364   0.250
62969SOL    HW290805  10.196   4.315   0.387
62970SOL     OW90806  11.837   3.701   2.565
62970SOL    HW190807  11.817   3.634   2.499
62970SOL    HW290808  11.903   3.660   2.621
62971SOL     OW90809   4.807   0.643  12.331
62971SOL    HW190810   4.716   0.617  12.315
62971SOL    HW290811   4.802   0.736  12.351
62972SOL     OW90812   5.703   5.444   1.896
62972SOL    HW190813   5.701   5.537   1.920
62972SOL    HW290814   5.616   5.411   1.918
62973SOL     OW90815  10.864   2.439   1.886
62973SOL    HW190816  10.891   2.377   1.955
62973SOL    HW290817  10.882   2.525   1.924
62974SOL     OW90818   4.579  13.854   5.896
62974SOL    HW190819   4.583  13.927   5.957
62974SOL    HW290820   4.637  13.879   5.824
62975SOL     OW90821  12.701   1.080   0.875
62975SOL    HW190822  12.743   1.161   0.902
62975SOL    HW290823  12.644   1.105   0.803
62976SOL     OW90824  13.752  14.382   0.473
62976SOL    HW190825  13.710  14.422   0.397
62976SOL    HW290826  13.812  14.449   0.505
62977SOL     OW90827   8.536   2.940   7.262
62977SOL    HW190828   8.560   2.981   7.345
62977SOL    HW290829   8.619   2.924   7.218
62978SOL     OW90830   3.819   2.238   6.321
62978SOL    HW190831   3.912   2.218   6.333
62978SOL    HW290832   3.786   2.254   6.409
62979SOL     OW90833  11.974   1.486   6.295
62979SOL    HW190834  12.020   1.411   6.259
62979SOL    HW290835  12.006   1.561   6.244
62980SOL     OW90836  14.478   1.018  11.235
62980SOL    HW190837  14.449   0.983  11.319
62980SOL    HW290838  14.476   1.113  11.246
62981SOL     OW90839  12.585  10.087   2.528
62981SOL    HW190840  12.492  10.080   2.506
62981SOL    HW290841  12.615  10.166   2.484
62982SOL     OW90842  13.729   4.990  11.559
62982SOL    HW190843  13.656   4.942  11.597
62982SOL    HW290844  13.772   4.926  11.501
62983SOL     OW90845   2.875   6.276  11.759
62983SOL    HW190846   2.960   6.257  11.720
62983SOL    HW290847   2.843   6.192  11.791
62984SOL     OW90848   1.442   8.171   7.391
62984SOL    HW190849   1.532   8.203   7.384
62984SOL    HW290850   1.395   8.244   7.432
62985SOL     OW90851   8.694  10.308  14.504
62985SOL    HW190852   8.750  10.385  14.498
62985SOL    HW290853   8.655  10.313  14.591
62986SOL     OW90854  14.568   1.261  10.577
62986SOL    HW190855  14.565   1.306  10.493
62986SOL    HW290856  14.661   1.254  10.598
62987SOL     OW90857   0.953   9.855   9.619
62987SOL    HW190858   0.876   9.911   9.609
62987SOL    HW290859   0.928   9.789   9.683
62988SOL     OW90860   8.118   3.001  13.163
62988SOL    HW190861   8.107   3.089  13.128
62988SOL    HW290862   8.199   3.005  13.213
62989SOL     OW90863   3.093   8.230   7.450
62989SOL    HW190864   3.050   8.146   7.435
62989SOL    HW290865   3.032   8.295   7.417
62990SOL     OW90866  14.709   4.602   0.075
62990SOL    HW190867  14.692   4.695   0.091
62990SOL    HW290868  14.768   4.576   0.147
62991SOL     OW90869   3.205   9.743   2.284
62991SOL    HW190870   3.263   9.739   2.207
62991SOL    HW290871   3.155   9.662   2.280
62992SOL     OW90872   9.994   7.787   6.580
62992SOL    HW190873  10.011   7.876   6.550
62992SOL    HW290874   9.940   7.797   6.658
62993SOL     OW90875   2.896   8.918   3.282
62993SOL    HW190876   2.965   8.965   3.329
62993SOL    HW290877   2.913   8.826   3.300
62994SOL     OW90878  12.985  12.174   5.381
62994SOL    HW190879  12.958  12.176   5.289
62994SOL    HW290880  12.922  12.117   5.424
62995SOL     OW90881   2.595   9.969   6.219
62995SOL    HW190882   2.539   9.894   6.201
62995SOL    HW290883   2.536  10.044   6.218
62996SOL     OW90884  12.557   7.552   8.702
62996SOL    HW190885  12.564   7.646   8.683
62996SOL    HW290886  12.498   7.518   8.634
62997SOL     OW90887   0.167  10.079   9.520
62997SOL    HW190888   0.150  10.007   9.580
62997SOL    HW290889   0.108  10.062   9.446
62998SOL     OW90890   8.162   9.662  10.622
62998SOL    HW190891   8.127   9.749  10.642
62998SOL    HW290892   8.155   9.655  10.527
62999SOL     OW90893   2.520   5.302   8.227
62999SOL    HW190894   2.507   5.395   8.246
62999SOL    HW290895   2.509   5.296   8.132
63000SOL     OW90896   9.614   1.106   7.605
63000SOL    HW190897   9.656   1.032   7.648
63000SOL    HW290898   9.521   1.096   7.625
63001SOL     OW90899  11.393   4.805  14.554
63001SOL    HW190900  11.401   4.793  14.648
63001SOL    HW290901  11.375   4.717  14.520
63002SOL     OW90902  11.753   1.730  10.690
63002SOL    HW190903  11.695   1.670  10.644
63002SOL    HW290904  11.744   1.813  10.643
63003SOL     OW90905  12.708   9.072   2.551
63003SOL    HW190906  12.694   9.029   2.467
63003SOL    HW290907  12.620   9.090   2.584
63004SOL     OW90908  13.675  12.478  11.012
63004SOL    HW190909  13.755  12.438  10.977
63004SOL    HW290910  13.644  12.535  10.941
63005SOL     OW90911   7.402   9.418   1.441
63005SOL    HW190912   7.343   9.382   1.375
63005SOL    HW290913   7.345   9.438   1.515
63006SOL     OW90914   4.208   4.279  10.081
63006SOL    HW190915   4.260   4.303  10.158
63006SOL    HW290916   4.245   4.330  10.010
63007SOL     OW90917   9.097  13.967  11.069
63007SOL    HW190918   9.034  13.921  11.013
63007SOL    HW290919   9.058  13.964  11.156
63008SOL     OW90920   3.105   2.997   6.549
63008SOL    HW190921   3.059   2.954   6.476
63008SOL    HW290922   3.130   3.082   6.515
63009SOL     OW90923  10.960  10.107   9.111
63009SOL    HW190924  11.011  10.095   9.191
63009SOL    HW290925  11.008  10.058   9.044
63010SOL     OW90926   3.425   4.883  12.861
63010SOL    HW190927   3.410   4.949  12.793
63010SOL    HW290928   3.344   4.883  12.912
63011SOL     OW90929   1.289   8.505   6.540
63011SOL    HW190930   1.354   8.568   6.511
63011SOL    HW290931   1.213   8.521   6.483
63012SOL     OW90932   9.841   1.298  11.204
63012SOL    HW190933   9.868   1.380  11.246
63012SOL    HW290934   9.913   1.276  11.146
63013SOL     OW90935   0.886   4.423   4.246
63013SOL    HW190936   0.797   4.403   4.217
63013SOL    HW290937   0.892   4.385   4.334
63014SOL     OW90938   2.408   3.553   4.068
63014SOL    HW190939   2.368   3.588   4.147
63014SOL    HW290940   2.402   3.458   4.078
63015SOL     OW90941  14.669   1.500  10.849
63015SOL    HW190942  14.688   1.420  10.800
63015SOL    HW290943  14.733   1.500  10.921
63016SOL     OW90944   5.204   1.834   8.244
63016SOL    HW190945   5.233   1.925   8.250
63016SOL    HW290946   5.277   1.787   8.204
63017SOL     OW90947   4.613   0.149   1.640
63017SOL    HW190948   4.640   0.166   1.730
63017SOL    HW290949   4.518   0.161   1.642
63018SOL     OW90950  10.580   5.955  13.485
63018SOL    HW190951  10.666   5.917  13.506
63018SOL    HW290952  10.595   6.005  13.405
63019SOL     OW90953  12.304   8.849  11.702
63019SOL    HW190954  12.264   8.851  11.615
63019SOL    HW290955  12.366   8.921  11.703
63020SOL     OW90956  12.129   3.897  12.503
63020SOL    HW190957  12.167   3.810  12.517
63020SOL    HW290958  12.160   3.922  12.416
63021SOL     OW90959   8.687  10.404   4.352
63021SOL    HW190960   8.741  10.331   4.319
63021SOL    HW290961   8.597  10.378   4.333
63022SOL     OW90962  14.041   8.008   7.581
63022SOL    HW190963  14.094   7.958   7.642
63022SOL    HW290964  14.015   7.945   7.514
63023SOL     OW90965   6.867   9.827  14.031
63023SOL    HW190966   6.811   9.858  14.102
63023SOL    HW290967   6.954   9.862  14.051
63024SOL     OW90968   3.585   7.555   1.144
63024SOL    HW190969   3.603   7.486   1.208
63024SOL    HW290970   3.672   7.581   1.112
63025SOL     OW90971  13.760   0.380   7.135
63025SOL    HW190972  13.805   0.446   7.189
63025SOL    HW290973  13.668   0.390   7.157
63026SOL     OW90974  12.490   9.808   7.238
63026SOL    HW190975  12.498   9.797   7.333
63026SOL    HW290976  12.474   9.719   7.206
63027SOL     OW90977  11.376   6.853  13.477
63027SOL    HW190978  11.382   6.848  13.382
63027SOL    HW290979  11.384   6.763  13.507
63028SOL     OW90980   4.813   6.642  11.564
63028SOL    HW190981   4.885   6.579  11.563
63028SOL    HW290982   4.744   6.601  11.513
63029SOL     OW90983  10.937   1.049  13.942
63029SOL    HW190984  11.032   1.039  13.946
63029SOL    HW290985  10.914   1.099  14.020
63030SOL     OW90986   1.594   1.097   2.623
63030SOL    HW190987   1.606   1.119   2.715
63030SOL    HW290988   1.604   1.002   2.619
63031SOL     OW90989  11.952   7.917   7.270
63031SOL    HW190990  12.029   7.867   7.243
63031SOL    HW290991  11.916   7.866   7.343
63032SOL     OW90992  11.854   0.678   7.756
63032SOL    HW190993  11.824   0.588   7.740
63032SOL    HW290994  11.928   0.668   7.815
63033SOL     OW90995  14.299  11.492   7.553
63033SOL    HW190996  14.387  11.514   7.586
63033SOL    HW290997  14.285  11.402   7.581
63034SOL     OW90998   9.814  12.115   6.718
63034SOL    HW190999   9.728  12.116   6.677
63034SOL    HW291000   9.865  12.178   6.668
63035SOL     OW91001   8.642   2.899   9.507
63035SOL    HW191002   8.649   2.804   9.495
63035SOL    HW291003   8.662   2.914   9.599
63036SOL     OW91004  13.827   1.288   3.989
63036SOL    HW191005  13.915   1.317   4.013
63036SOL    HW291006  13.809   1.215   4.048
63037SOL     OW91007  11.429  10.678   4.074
63037SOL    HW191008  11.347  10.668   4.123
63037SOL    HW291009  11.496  10.642   4.131
63038SOL     OW91010  12.520   8.660   6.197
63038SOL    HW191011  12.528   8.578   6.149
63038SOL    HW291012  12.609   8.682   6.223
63039SOL     OW91013   2.991  11.406   1.655
63039SOL    HW191014   3.021  11.360   1.577
63039SOL    HW291015   2.903  11.436   1.634
63040SOL     OW91016   3.667   4.472   4.009
63040SOL    HW191017   3.605   4.444   4.077
63040SOL    HW291018   3.627   4.551   3.972
63041SOL     OW91019  11.004   8.940   5.148
63041SOL    HW191020  11.012   8.931   5.053
63041SOL    HW291021  10.913   8.918   5.166
63042SOL     OW91022   1.015  11.029   4.931
63042SOL    HW191023   1.104  11.048   4.901
63042SOL    HW291024   1.003  11.087   5.007
63043SOL     OW91025  12.081   9.316  12.920
63043SOL    HW191026  12.042   9.393  12.961
63043SOL    HW291027  12.027   9.299  12.843
63044SOL     OW91028   0.077   3.397  12.662
63044SOL    HW191029   0.159   3.419  12.705
63044SOL    HW291030   0.103   3.363  12.576
63045SOL     OW91031   9.517  12.710   0.374
63045SOL    HW191032   9.595  12.747   0.333
63045SOL    HW291033   9.485  12.779   0.432
63046SOL     OW91034  11.157  13.650   6.923
63046SOL    HW191035  11.082  13.648   6.982
63046SOL    HW291036  11.120  13.666   6.836
63047SOL     OW91037  13.023   7.503   5.640
63047SOL    HW191038  13.108   7.478   5.604
63047SOL    HW291039  13.003   7.433   5.702
63048SOL     OW91040   8.717   6.378  12.981
63048SOL    HW191041   8.744   6.334  12.901
63048SOL    HW291042   8.622   6.368  12.983
63049SOL     OW91043   6.635   4.384   3.701
63049SOL    HW191044   6.573   4.317   3.673
63049SOL    HW291045   6.709   4.375   3.640
63050SOL     OW91046   7.290  11.400  10.089
63050SOL    HW191047   7.273  11.377  10.180
63050SOL    HW291048   7.363  11.462  10.093
63051SOL     OW91049   3.556   2.762   1.623
63051SOL    HW191050   3.518   2.763   1.711
63051SOL    HW291051   3.569   2.669   1.604
63052SOL     OW91052  13.222  10.183   5.321
63052SOL    HW191053  13.289  10.238   5.281
63052SOL    HW291054  13.184  10.239   5.389
63053SOL     OW91055   5.192  14.174   1.751
63053SOL    HW191056   5.195  14.089   1.795
63053SOL    HW291057   5.189  14.152   1.657
63054SOL     OW91058   6.579   0.514  12.909
63054SOL    HW191059   6.660   0.474  12.942
63054SOL    HW291060   6.510   0.481  12.966
63055SOL     OW91061   5.357  10.156   0.818
63055SOL    HW191062   5.352  10.121   0.907
63055SOL    HW291063   5.448  10.144   0.792
63056SOL     OW91064  12.865   6.200   5.567
63056SOL    HW191065  12.885   6.156   5.650
63056SOL    HW291066  12.890   6.291   5.582
63057SOL     OW91067  12.621  11.582   6.608
63057SOL    HW191068  12.596  11.671   6.635
63057SOL    HW291069  12.707  11.592   6.569
63058SOL     OW91070   5.593  12.967   0.398
63058SOL    HW191071   5.548  13.031   0.452
63058SOL    HW291072   5.633  13.018   0.328
63059SOL     OW91073   6.747  13.050   3.186
63059SOL    HW191074   6.789  13.019   3.266
63059SOL    HW291075   6.792  13.004   3.115
63060SOL     OW91076   3.789   5.771   9.478
63060SOL    HW191077   3.798   5.707   9.549
63060SOL    HW291078   3.879   5.791   9.452
63061SOL     OW91079   7.461   2.622  13.791
63061SOL    HW191080   7.487   2.710  13.764
63061SOL    HW291081   7.365   2.626  13.794
63062SOL     OW91082  11.611   2.386  12.793
63062SOL    HW191083  11.563   2.304  12.780
63062SOL    HW291084  11.576   2.446  12.727
63063SOL     OW91085  12.528  11.773   3.446
63063SOL    HW191086  12.570  11.758   3.531
63063SOL    HW291087  12.490  11.688   3.423
63064SOL     OW91088  10.152  14.170   6.216
63064SOL    HW191089  10.203  14.248   6.238
63064SOL    HW291090  10.214  14.114   6.169
63065SOL     OW91091   2.949  11.257   3.816
63065SOL    HW191092   2.954  11.228   3.726
63065SOL    HW291093   2.864  11.227   3.847
63066SOL     OW91094   9.829  14.548   1.457
63066SOL    HW191095   9.821  14.475   1.518
63066SOL    HW291096   9.779  14.521   1.380
63067SOL     OW91097   2.933   0.882  11.963
63067SOL    HW191098   2.906   0.822  12.033
63067SOL    HW291099   2.885   0.852  11.886
63068SOL     OW91100  11.218   2.036   8.580
63068SOL    HW191101  11.163   2.054   8.504
63068SOL    HW291102  11.307   2.034   8.545
63069SOL     OW91103   4.835   3.249   4.306
63069SOL    HW191104   4.863   3.165   4.270
63069SOL    HW291105   4.781   3.287   4.238
63070SOL     OW91106   8.276  13.936   0.293
63070SOL    HW191107   8.291  13.930   0.199
63070SOL    HW291108   8.304  14.024   0.317
63071SOL     OW91109   2.248   6.260   7.071
63071SOL    HW191110   2.305   6.190   7.040
63071SOL    HW291111   2.161   6.237   7.038
63072SOL     OW91112   0.355   5.835   6.243
63072SOL    HW191113   0.399   5.825   6.159
63072SOL    HW291114   0.415   5.888   6.295
63073SOL     OW91115   5.651   4.926  10.607
63073SOL    HW191116   5.743   4.938  10.586
63073SOL    HW291117   5.619   5.015  10.624
63074SOL     OW91118  13.097  12.382   4.543
63074SOL    HW191119  13.137  12.400   4.628
63074SOL    HW291120  13.150  12.432   4.481
63075SOL     OW91121  11.744   7.224   6.333
63075SOL    HW191122  11.671   7.224   6.272
63075SOL    HW291123  11.738   7.140   6.379
63076SOL     OW91124   3.757   0.838  14.546
63076SOL    HW191125   3.679   0.881  14.580
63076SOL    HW291126   3.827   0.862  14.606
63077SOL     OW91127   6.712   4.343   3.279
63077SOL    HW191128   6.640   4.396   3.311
63077SOL    HW291129   6.670   4.269   3.235
63078SOL     OW91130  12.961   8.715  12.375
63078SOL    HW191131  12.880   8.754  12.343
63078SOL    HW291132  12.941   8.622  12.386
63079SOL     OW91133  14.499  13.940   5.727
63079SOL    HW191134  14.415  13.903   5.700
63079SOL    HW291135  14.479  13.992   5.806
63080SOL     OW91136   3.463  14.087  14.302
63080SOL    HW191137   3.520  14.028  14.352
63080SOL    HW291138   3.443  14.038  14.222
63081SOL     OW91139   9.540   9.318   4.058
63081SOL    HW191140   9.550   9.374   4.135
63081SOL    HW291141   9.628   9.282   4.043
63082SOL     OW91142   3.888   5.818   8.914
63082SOL    HW191143   3.824   5.783   8.975
63082SOL    HW291144   3.921   5.897   8.957
63083SOL     OW91145   3.184   0.088  10.796
63083SOL    HW191146   3.201   0.111  10.887
63083SOL    HW291147   3.240   0.148  10.746
63084SOL     OW91148   5.134   3.996   3.438
63084SOL    HW191149   5.043   4.003   3.408
63084SOL    HW291150   5.147   4.073   3.494
63085SOL     OW91151  10.110  13.457   8.059
63085SOL    HW191152  10.168  13.386   8.088
63085SOL    HW291153  10.032  13.448   8.113
63086SOL     OW91154   0.908  14.369   9.269
63086SOL    HW191155   0.951  14.330   9.345
63086SOL    HW291156   0.839  14.306   9.245
63087SOL     OW91157  13.959   5.428   7.434
63087SOL    HW191158  13.996   5.341   7.421
63087SOL    HW291159  13.950   5.436   7.529
63088SOL     OW91160   7.440   4.164  10.513
63088SOL    HW191161   7.392   4.189  10.591
63088SOL    HW291162   7.523   4.213  10.519
63089SOL     OW91163  11.474   3.472  10.904
63089SOL    HW191164  11.555   3.472  10.956
63089SOL    HW291165  11.407   3.507  10.962
63090SOL     OW91166  11.656  11.012   4.942
63090SOL    HW191167  11.610  10.945   4.992
63090SOL    HW291168  11.740  10.973   4.918
63091SOL     OW91169   1.295   3.444  11.317
63091SOL    HW191170   1.257   3.435  11.404
63091SOL    HW291171   1.354   3.369  11.309
63092SOL     OW91172   2.602   5.004  10.447
63092SOL    HW191173   2.570   4.966  10.529
63092SOL    HW291174   2.663   4.939  10.413
63093SOL     OW91175   2.686   4.429   3.001
63093SOL    HW191176   2.651   4.517   2.993
63093SOL    HW291177   2.632   4.377   2.941
63094SOL     OW91178  10.458  14.637   4.148
63094SOL    HW191179  10.427  14.687   4.223
63094SOL    HW291180  10.381  14.627   4.092
63095SOL     OW91181   2.525   2.120   7.220
63095SOL    HW191182   2.592   2.088   7.160
63095SOL    HW291183   2.573   2.150   7.297
63096SOL     OW91184   0.462   1.520   4.089
63096SOL    HW191185   0.386   1.537   4.143
63096SOL    HW291186   0.533   1.505   4.151
63097SOL     OW91187  14.321  12.726   4.349
63097SOL    HW191188  14.412  12.753   4.336
63097SOL    HW291189  14.327  12.642   4.394
63098SOL     OW91190   7.047  14.186  12.955
63098SOL    HW191191   7.059  14.184  13.049
63098SOL    HW291192   6.968  14.134  12.940
63099SOL     OW91193  10.616  14.086  14.027
63099SOL    HW191194  10.709  14.064  14.019
63099SOL    HW291195  10.607  14.128  14.113
63100SOL     OW91196   7.208   0.048   2.705
63100SOL    HW191197   7.212  14.857   2.777
63100SOL    HW291198   7.228  14.867   2.627
63101SOL     OW91199   7.649   9.346   4.917
63101SOL    HW191200   7.567   9.356   4.868
63101SOL    HW291201   7.634   9.394   4.999
63102SOL     OW91202   5.424   4.085   3.685
63102SOL    HW191203   5.441   4.101   3.592
63102SOL    HW291204   5.393   3.995   3.688
63103SOL     OW91205  12.328   1.526   6.383
63103SOL    HW191206  12.395   1.518   6.450
63103SOL    HW291207  12.364   1.482   6.307
63104SOL     OW91208   4.407  13.146  11.043
63104SOL    HW191209   4.420  13.214  10.976
63104SOL    HW291210   4.418  13.193  11.126
63105SOL     OW91211   0.537  13.510   1.230
63105SOL    HW191212   0.487  13.514   1.311
63105SOL    HW291213   0.627  13.528   1.256
63106SOL     OW91214   3.691   1.406  12.956
63106SOL    HW191215   3.768   1.375  13.004
63106SOL    HW291216   3.716   1.492  12.923
63107SOL     OW91217  10.304  12.017   7.326
63107SOL    HW191218  10.343  12.014   7.414
63107SOL    HW291219  10.261  11.932   7.317
63108SOL     OW91220  13.562   6.857  13.930
63108SOL    HW191221  13.517   6.773  13.940
63108SOL    HW291222  13.510   6.905  13.867
63109SOL     OW91223  12.388   4.414  12.024
63109SOL    HW191224  12.412   4.507  12.021
63109SOL    HW291225  12.329   4.402  11.951
63110SOL     OW91226  13.237   7.832  12.016
63110SOL    HW191227  13.171   7.871  11.959
63110SOL    HW291228  13.307   7.897  12.020
63111SOL     OW91229  14.574   6.885   6.452
63111SOL    HW191230  14.602   6.916   6.366
63111SOL    HW291231  14.527   6.960   6.490
63112SOL     OW91232   2.471   4.128   4.077
63112SOL    HW191233   2.547   4.171   4.038
63112SOL    HW291234   2.403   4.134   4.011
63113SOL     OW91235   5.117   4.523   8.948
63113SOL    HW191236   5.180   4.545   9.017
63113SOL    HW291237   5.032   4.541   8.986
63114SOL     OW91238   7.697   0.403   0.106
63114SOL    HW191239   7.663   0.451   0.031
63114SOL    HW291240   7.734   0.470   0.163
63115SOL     OW91241   9.402   6.636  12.289
63115SOL    HW191242   9.377   6.621  12.380
63115SOL    HW291243   9.451   6.718  12.290
63116SOL     OW91244   4.664  13.462   2.780
63116SOL    HW191245   4.755  13.437   2.760
63116SOL    HW291246   4.613  13.423   2.709
63117SOL     OW91247  12.966   4.711   5.423
63117SOL    HW191248  12.900   4.713   5.354
63117SOL    HW291249  13.000   4.621   5.421
63118SOL     OW91250  13.890   7.034  14.039
63118SOL    HW191251  13.807   6.992  14.064
63118SOL    HW291252  13.877   7.059  13.947
63119SOL     OW91253   7.428  12.659   0.910
63119SOL    HW191254   7.361  12.717   0.874
63119SOL    HW291255   7.425  12.582   0.853
63120SOL     OW91256  10.431   9.467   7.809
63120SOL    HW191257  10.435   9.413   7.730
63120SOL    HW291258  10.391   9.549   7.780
63121SOL     OW91259  14.508  13.983  14.204
63121SOL    HW191260  14.446  14.038  14.252
63121SOL    HW291261  14.594  14.020  14.225
63122SOL     OW91262   3.639   5.356   2.279
63122SOL    HW191263   3.576   5.298   2.321
63122SOL    HW291264   3.616   5.353   2.186
63123SOL     OW91265   9.374   1.975  12.977
63123SOL    HW191266   9.306   2.034  13.009
63123SOL    HW291267   9.418   1.944  13.056
63124SOL     OW91268   4.092   2.530  13.961
63124SOL    HW191269   4.116   2.438  13.969
63124SOL    HW291270   4.012   2.539  14.011
63125SOL     OW91271   5.177   4.267   8.850
63125SOL    HW191272   5.166   4.204   8.921
63125SOL    HW291273   5.169   4.353   8.892
63126SOL     OW91274  10.398   0.857  13.340
63126SOL    HW191275  10.453   0.780  13.326
63126SOL    HW291276  10.330   0.828  13.401
63127SOL     OW91277   9.009  13.197   3.413
63127SOL    HW191278   8.954  13.222   3.487
63127SOL    HW291279   8.961  13.126   3.370
63128SOL     OW91280  14.175   4.596   4.555
63128SOL    HW191281  14.238   4.604   4.626
63128SOL    HW291282  14.141   4.684   4.543
63129SOL     OW91283   2.276   8.240   8.057
63129SOL    HW191284   2.204   8.261   7.997
63129SOL    HW291285   2.347   8.298   8.029
63130SOL     OW91286   1.387   9.382   7.591
63130SOL    HW191287   1.301   9.414   7.618
63130SOL    HW291288   1.447   9.455   7.606
63131SOL     OW91289  10.420   5.024   5.998
63131SOL    HW191290  10.478   5.090   5.961
63131SOL    HW291291  10.467   4.991   6.075
63132SOL     OW91292   7.932   3.561   7.583
63132SOL    HW191293   7.921   3.501   7.509
63132SOL    HW291294   8.021   3.543   7.615
63133SOL     OW91295  12.057   8.901  10.151
63133SOL    HW191296  12.145   8.887  10.186
63133SOL    HW291297  12.009   8.940  10.224
63134SOL     OW91298  13.628   3.828   9.381
63134SOL    HW191299  13.547   3.875   9.401
63134SOL    HW291300  13.695   3.873   9.432
63135SOL     OW91301   4.720   7.923   8.183
63135SOL    HW191302   4.809   7.905   8.213
63135SOL    HW291303   4.692   7.997   8.236
63136SOL     OW91304   7.799   2.706  11.744
63136SOL    HW191305   7.824   2.795  11.769
63136SOL    HW291306   7.829   2.697  11.653
63137SOL     OW91307  14.606   3.695  12.340
63137SOL    HW191308  14.566   3.707  12.426
63137SOL    HW291309  14.672   3.627  12.354
63138SOL     OW91310   2.348   5.853   5.129
63138SOL    HW191311   2.344   5.878   5.221
63138SOL    HW291312   2.262   5.816   5.110
63139SOL     OW91313   2.371  13.225   5.612
63139SOL    HW191314   2.450  13.254   5.567
63139SOL    HW291315   2.310  13.201   5.542
63140SOL     OW91316   0.838   2.417   2.321
63140SOL    HW191317   0.910   2.469   2.283
63140SOL    HW291318   0.843   2.334   2.274
63141SOL     OW91319   1.736  11.093   7.319
63141SOL    HW191320   1.693  11.176   7.299
63141SOL    HW291321   1.674  11.046   7.374
63142SOL     OW91322   8.292   6.854  14.083
63142SOL    HW191323   8.297   6.882  13.992
63142SOL    HW291324   8.331   6.926  14.132
63143SOL     OW91325   9.235   3.623  14.781
63143SOL    HW191326   9.273   3.536  14.772
63143SOL    HW291327   9.172   3.615  14.853
63144SOL     OW91328  10.257   8.643   9.189
63144SOL    HW191329  10.238   8.645   9.095
63144SOL    HW291330  10.190   8.699   9.228
63145SOL     OW91331   6.658   8.562   2.066
63145SOL    HW191332   6.581   8.504   2.065
63145SOL    HW291333   6.730   8.504   2.090
63146SOL     OW91334  10.577  10.606  14.744
63146SOL    HW191335  10.587  10.697  14.715
63146SOL    HW291336  10.650  10.592  14.806
63147SOL     OW91337   0.111   6.573   4.183
63147SOL    HW191338   0.141   6.590   4.094
63147SOL    HW291339   0.096   6.660   4.220
63148SOL     OW91340   2.313  12.918   6.191
63148SOL    HW191341   2.302  12.879   6.278
63148SOL    HW291342   2.372  12.858   6.145
63149SOL     OW91343  10.131  10.215  11.899
63149SOL    HW191344  10.077  10.212  11.979
63149SOL    HW291345  10.067  10.223  11.828
63150SOL     OW91346  11.281   5.384  10.839
63150SOL    HW191347  11.226   5.456  10.809
63150SOL    HW291348  11.304   5.336  10.760
63151SOL     OW91349   5.047   8.038   4.430
63151SOL    HW191350   5.080   8.126   4.448
63151SOL    HW291351   5.003   8.012   4.511
63152SOL     OW91352   9.984   7.454  13.540
63152SOL    HW191353   9.932   7.390  13.491
63152SOL    HW291354   9.976   7.426  13.631
63153SOL     OW91355  13.478   9.997  11.961
63153SOL    HW191356  13.402   9.939  11.958
63153SOL    HW291357  13.519   9.977  12.045
63154SOL     OW91358   8.316  13.380   9.728
63154SOL    HW191359   8.405  13.412   9.742
63154SOL    HW291360   8.307  13.307   9.789
63155SOL     OW91361   8.783   0.573   1.048
63155SOL    HW191362   8.872   0.541   1.059
63155SOL    HW291363   8.756   0.597   1.137
63156SOL     OW91364  14.806   0.099   8.784
63156SOL    HW191365  14.795   0.098   8.689
63156SOL    HW291366  14.753   0.026   8.815
63157SOL     OW91367  10.717   9.155   4.639
63157SOL    HW191368  10.623   9.160   4.619
63157SOL    HW291369  10.751   9.241   4.615
63158SOL     OW91370  12.314  10.747   5.827
63158SOL    HW191371  12.242  10.804   5.855
63158SOL    HW291372  12.393  10.794   5.855
63159SOL     OW91373   1.930   3.357   7.895
63159SOL    HW191374   1.958   3.305   7.971
63159SOL    HW291375   2.001   3.419   7.880
63160SOL     OW91376  13.929   1.697   4.821
63160SOL    HW191377  14.005   1.699   4.879
63160SOL    HW291378  13.900   1.788   4.816
63161SOL     OW91379  10.291   6.395  14.400
63161SOL    HW191380  10.197   6.387  14.383
63161SOL    HW291381  10.330   6.322  14.351
63162SOL     OW91382   4.473   0.090  14.636
63162SOL    HW191383   4.381   0.066  14.624
63162SOL    HW291384   4.499   0.044  14.716
63163SOL     OW91385   0.048  11.317   8.848
63163SOL    HW191386   0.068  11.228   8.877
63163SOL    HW291387   0.133  11.355   8.826
63164SOL     OW91388   3.309   3.628   9.982
63164SOL    HW191389   3.284   3.627   9.889
63164SOL    HW291390   3.245   3.571  10.024
63165SOL     OW91391   3.953   4.224   4.665
63165SOL    HW191392   3.890   4.288   4.633
63165SOL    HW291393   3.999   4.269   4.736
63166SOL     OW91394   1.720   0.115   3.804
63166SOL    HW191395   1.682   0.120   3.892
63166SOL    HW291396   1.733   0.206   3.778
63167SOL     OW91397   2.473   3.148  10.076
63167SOL    HW191398   2.393   3.101  10.101
63167SOL    HW291399   2.542   3.110  10.130
63168SOL     OW91400   0.332  13.039   1.011
63168SOL    HW191401   0.361  13.097   0.940
63168SOL    HW291402   0.336  12.952   0.973
63169SOL     OW91403  13.159   3.113  12.700
63169SOL    HW191404  13.174   3.106  12.794
63169SOL    HW291405  13.245   3.097  12.661
63170SOL     OW91406  10.168   4.152   1.120
63170SOL    HW191407  10.151   4.242   1.091
63170SOL    HW291408  10.150   4.098   1.044
63171SOL     OW91409   8.681   6.371  12.607
63171SOL    HW191410   8.678   6.458  12.647
63171SOL    HW291411   8.613   6.374  12.540
63172SOL     OW91412   1.335   3.599   0.719
63172SOL    HW191413   1.334   3.608   0.624
63172SOL    HW291414   1.296   3.514   0.737
63173SOL     OW91415  14.634  10.350   6.151
63173SOL    HW191416  14.653  10.332   6.059
63173SOL    HW291417  14.646  10.265   6.195
63174SOL     OW91418   7.973  14.652  11.557
63174SOL    HW191419   8.004  14.613  11.476
63174SOL    HW291420   8.028  14.730  11.568
63175SOL     OW91421  11.564   5.016   9.785
63175SOL    HW191422  11.474   4.983   9.785
63175SOL    HW291423  11.598   4.991   9.699
63176SOL     OW91424   9.484  11.481  11.318
63176SOL    HW191425   9.487  11.518  11.230
63176SOL    HW291426   9.394  11.452  11.330
63177SOL     OW91427   3.190  11.356   3.809
63177SOL    HW191428   3.106  11.312   3.821
63177SOL    HW291429   3.173  11.424   3.744
63178SOL     OW91430   0.522  10.685   0.779
63178SOL    HW191431   0.437  10.643   0.765
63178SOL    HW291432   0.554  10.648   0.861
63179SOL     OW91433   1.207   2.630   2.071
63179SOL    HW191434   1.298   2.656   2.079
63179SOL    HW291435   1.200   2.589   1.985
63180SOL     OW91436   9.539   0.347  10.193
63180SOL    HW191437   9.476   0.411  10.225
63180SOL    HW291438   9.623   0.376  10.227
63181SOL     OW91439  13.588   4.054   4.735
63181SOL    HW191440  13.597   4.021   4.825
63181SOL    HW291441  13.654   4.124   4.729
63182SOL     OW91442  13.473   8.432   1.524
63182SOL    HW191443  13.481   8.385   1.441
63182SOL    HW291444  13.563   8.448   1.552
63183SOL     OW91445   8.326   0.032   6.778
63183SOL    HW191446   8.319   0.067   6.867
63183SOL    HW291447   8.419   0.034   6.758
63184SOL     OW91448  10.955   3.017   8.729
63184SOL    HW191449  10.938   3.106   8.700
63184SOL    HW291450  10.900   2.962   8.673
63185SOL     OW91451  10.316   9.149   2.210
63185SOL    HW191452  10.378   9.180   2.276
63185SOL    HW291453  10.365   9.084   2.159
63186SOL     OW91454   7.638  13.545   4.963
63186SOL    HW191455   7.587  13.487   5.020
63186SOL    HW291456   7.712  13.573   5.017
63187SOL     OW91457  14.327   6.525   1.186
63187SOL    HW191458  14.257   6.511   1.249
63187SOL    HW291459  14.307   6.467   1.113
63188SOL     OW91460   7.626   2.636  12.545
63188SOL    HW191461   7.710   2.677  12.526
63188SOL    HW291462   7.571   2.657  12.470
63189SOL     OW91463  12.920   2.194   8.077
63189SOL    HW191464  12.954   2.105   8.088
63189SOL    HW291465  12.948   2.220   7.989
63190SOL     OW91466   5.153  14.797   1.850
63190SOL    HW191467   5.158  14.834   1.938
63190SOL    HW291468   5.221  14.844   1.801
63191SOL     OW91469   9.671   9.355   2.318
63191SOL    HW191470   9.621   9.273   2.322
63191SOL    HW291471   9.606   9.423   2.334
63192SOL     OW91472   5.000   6.308   9.001
63192SOL    HW191473   5.055   6.363   8.946
63192SOL    HW291474   4.911   6.343   8.989
63193SOL     OW91475   0.081   9.410   4.030
63193SOL    HW191476   0.106   9.341   3.969
63193SOL    HW291477   0.163   9.450   4.057
63194SOL     OW91478  10.651  12.732   2.338
63194SOL    HW191479  10.599  12.725   2.257
63194SOL    HW291480  10.659  12.641   2.368
63195SOL     OW91481   5.776   4.740   5.913
63195SOL    HW191482   5.748   4.794   5.986
63195SOL    HW291483   5.802   4.802   5.845
63196SOL     OW91484  11.218  11.804  10.238
63196SOL    HW191485  11.171  11.846  10.310
63196SOL    HW291486  11.240  11.876  10.178
63197SOL     OW91487   2.003   5.855   0.205
63197SOL    HW191488   1.929   5.908   0.235
63197SOL    HW291489   2.080   5.904   0.233
63198SOL     OW91490   5.013  14.824   5.536
63198SOL    HW191491   5.010  14.744   5.587
63198SOL    HW291492   5.034  14.795   5.447
63199SOL     OW91493   5.882   9.071   4.178
63199SOL    HW191494   5.889   9.054   4.084
63199SOL    HW291495   5.818   9.007   4.209
63200SOL     OW91496   7.053   4.352   1.965
63200SOL    HW191497   7.104   4.418   1.918
63200SOL    HW291498   7.093   4.269   1.939
63201SOL     OW91499  10.953   3.713   9.459
63201SOL    HW191500  10.994   3.632   9.490
63201SOL    HW291501  11.027   3.772   9.442
63202SOL     OW91502  14.476   7.281   0.085
63202SOL    HW191503  14.447   7.266  14.867
63202SOL    HW291504  14.422   7.354   0.116
63203SOL     OW91505   5.307   3.832   3.654
63203SOL    HW191506   5.259   3.824   3.737
63203SOL    HW291507   5.240   3.861   3.591
63204SOL     OW91508   7.777   8.179   7.629
63204SOL    HW191509   7.718   8.253   7.638
63204SOL    HW291510   7.798   8.176   7.536
63205SOL     OW91511   0.417   3.090   0.880
63205SOL    HW191512   0.398   3.179   0.851
63205SOL    HW291513   0.511   3.079   0.867
63206SOL     OW91514   2.909   3.050  13.977
63206SOL    HW191515   2.982   2.991  13.994
63206SOL    HW291516   2.936   3.133  14.017
63207SOL     OW91517  10.781   7.656  10.587
63207SOL    HW191518  10.803   7.699  10.669
63207SOL    HW291519  10.845   7.585  10.578
63208SOL     OW91520   7.524   0.789   9.094
63208SOL    HW191521   7.522   0.732   9.170
63208SOL    HW291522   7.571   0.867   9.123
63209SOL     OW91523   0.294   9.861   4.451
63209SOL    HW191524   0.340   9.801   4.509
63209SOL    HW291525   0.351   9.938   4.446
63210SOL     OW91526   7.548   2.498   8.743
63210SOL    HW191527   7.456   2.476   8.727
63210SOL    HW291528   7.596   2.451   8.675
63211SOL     OW91529   9.562   2.602   3.578
63211SOL    HW191530   9.559   2.620   3.484
63211SOL    HW291531   9.524   2.679   3.619
63212SOL     OW91532   1.906   3.153   0.518
63212SOL    HW191533   1.850   3.174   0.443
63212SOL    HW291534   1.903   3.058   0.524
63213SOL     OW91535   7.637   5.811   6.503
63213SOL    HW191536   7.622   5.728   6.548
63213SOL    HW291537   7.570   5.815   6.435
63214SOL     OW91538  14.159  13.305  12.431
63214SOL    HW191539  14.074  13.342  12.455
63214SOL    HW291540  14.223  13.367  12.465
63215SOL     OW91541   4.675   0.475   6.945
63215SOL    HW191542   4.657   0.531   6.870
63215SOL    HW291543   4.761   0.437   6.926
63216SOL     OW91544   5.396  14.696  10.777
63216SOL    HW191545   5.491  14.691  10.792
63216SOL    HW291546   5.377  14.790  10.781
63217SOL     OW91547  13.748  14.316   5.244
63217SOL    HW191548  13.715  14.401   5.214
63217SOL    HW291549  13.669  14.266   5.267
63218SOL     OW91550   3.977  12.230   9.149
63218SOL    HW191551   3.986  12.313   9.102
63218SOL    HW291552   4.066  12.207   9.176
63219SOL     OW91553   9.321   5.233   4.991
63219SOL    HW191554   9.304   5.242   5.084
63219SOL    HW291555   9.334   5.322   4.960
63220SOL     OW91556   2.746   3.152  14.775
63220SOL    HW191557   2.683   3.161  14.703
63220SOL    HW291558   2.828   3.185  14.740
63221SOL     OW91559   4.404   4.348  10.939
63221SOL    HW191560   4.351   4.393  10.873
63221SOL    HW291561   4.347   4.280  10.974
63222SOL     OW91562   4.304   4.146   9.626
63222SOL    HW191563   4.303   4.240   9.607
63222SOL    HW291564   4.389   4.131   9.668
63223SOL     OW91565  14.841   4.107  12.388
63223SOL    HW191566  14.769   4.068  12.338
63223SOL    HW291567  14.839   4.200  12.364
63224SOL     OW91568   4.944   9.887  11.931
63224SOL    HW191569   4.999   9.890  12.009
63224SOL    HW291570   5.005   9.896  11.858
63225SOL     OW91571   9.886   0.286   5.068
63225SOL    HW191572   9.875   0.362   5.010
63225SOL    HW291573   9.821   0.298   5.136
63226SOL     OW91574   7.994   1.823  11.862
63226SOL    HW191575   8.001   1.886  11.791
63226SOL    HW291576   8.013   1.738  11.822
63227SOL     OW91577   8.341   4.971   8.155
63227SOL    HW191578   8.306   5.056   8.130
63227SOL    HW291579   8.264   4.915   8.162
63228SOL     OW91580   1.780  13.630   7.289
63228SOL    HW191581   1.818  13.547   7.261
63228SOL    HW291582   1.751  13.615   7.379
63229SOL     OW91583   7.042  10.949   4.916
63229SOL    HW191584   7.002  10.915   4.836
63229SOL    HW291585   6.975  10.937   4.984
63230SOL     OW91586   2.164   8.069  10.311
63230SOL    HW191587   2.200   8.081  10.223
63230SOL    HW291588   2.072   8.093  10.302
63231SOL     OW91589   5.729  14.100  14.235
63231SOL    HW191590   5.785  14.098  14.158
63231SOL    HW291591   5.650  14.144  14.206
63232SOL     OW91592  11.357  10.596   0.023
63232SOL    HW191593  11.296  10.590   0.097
63232SOL    HW291594  11.410  10.516   0.030
63233SOL     OW91595   9.976   2.529  12.933
63233SOL    HW191596   9.959   2.438  12.909
63233SOL    HW291597   9.941   2.580  12.860
63234SOL     OW91598  12.637   8.830  13.622
63234SOL    HW191599  12.651   8.922  13.646
63234SOL    HW291600  12.563   8.802  13.677
63235SOL     OW91601   9.913   5.703   3.812
63235SOL    HW191602   9.942   5.779   3.762
63235SOL    HW291603   9.990   5.675   3.861
63236SOL     OW91604  10.497   0.509  11.302
63236SOL    HW191605  10.585   0.541  11.281
63236SOL    HW291606  10.439   0.561  11.246
63237SOL     OW91607  11.657   6.994   6.421
63237SOL    HW191608  11.572   6.962   6.453
63237SOL    HW291609  11.700   6.915   6.387
63238SOL     OW91610  11.717   2.913  14.319
63238SOL    HW191611  11.777   2.839  14.314
63238SOL    HW291612  11.646   2.883  14.376
63239SOL     OW91613   4.946   3.571   3.552
63239SOL    HW191614   4.867   3.517   3.546
63239SOL    HW291615   4.992   3.556   3.470
63240SOL     OW91616   0.769   6.198   7.858
63240SOL    HW191617   0.790   6.199   7.951
63240SOL    HW291618   0.822   6.268   7.820
63241SOL     OW91619   0.927   7.495   2.151
63241SOL    HW191620   0.965   7.483   2.064
63241SOL    HW291621   0.957   7.420   2.202
63242SOL     OW91622   5.230   0.882  11.417
63242SOL    HW191623   5.282   0.961  11.402
63242SOL    HW291624   5.255   0.822  11.348
63243SOL     OW91625  14.805   2.047  12.730
63243SOL    HW191626  14.867   1.982  12.698
63243SOL    HW291627  14.751   2.000  12.793
63244SOL     OW91628  12.541  13.948  12.711
63244SOL    HW191629  12.577  13.970  12.625
63244SOL    HW291630  12.451  13.982  12.710
63245SOL     OW91631   9.450   0.692  12.307
63245SOL    HW191632   9.539   0.723  12.290
63245SOL    HW291633   9.431   0.631  12.236
63246SOL     OW91634   6.445   6.550   1.426
63246SOL    HW191635   6.383   6.598   1.481
63246SOL    HW291636   6.529   6.560   1.471
63247SOL     OW91637  13.781   6.282  12.330
63247SOL    HW191638  13.804   6.199  12.373
63247SOL    HW291639  13.863   6.331  12.328
63248SOL     OW91640  13.818  10.203   6.945
63248SOL    HW191641  13.743  10.228   6.998
63248SOL    HW291642  13.786  10.129   6.892
63249SOL     OW91643   0.697  13.348  10.517
63249SOL    HW191644   0.620  13.296  10.538
63249SOL    HW291645   0.745  13.354  10.599
63250SOL     OW91646   8.287   9.351  11.719
63250SOL    HW191647   8.222   9.282  11.732
63250SOL    HW291648   8.340   9.321  11.645
63251SOL     OW91649   2.974   3.755   9.408
63251SOL    HW191650   3.004   3.734   9.496
63251SOL    HW291651   3.050   3.793   9.365
63252SOL     OW91652   6.153   0.887   2.793
63252SOL    HW191653   6.240   0.902   2.756
63252SOL    HW291654   6.114   0.973   2.799
63253SOL     OW91655   1.225   0.703   3.869
63253SOL    HW191656   1.184   0.685   3.785
63253SOL    HW291657   1.300   0.760   3.848
63254SOL     OW91658   4.918   6.943  10.242
63254SOL    HW191659   4.928   6.886  10.166
63254SOL    HW291660   4.946   7.030  10.211
63255SOL     OW91661   5.870  13.669   2.836
63255SOL    HW191662   5.953  13.626   2.855
63255SOL    HW291663   5.849  13.644   2.746
63256SOL     OW91664   1.580  14.821  11.050
63256SOL    HW191665   1.638  14.783  11.116
63256SOL    HW291666   1.638  14.851  10.981
63257SOL     OW91667   2.858   0.225   5.532
63257SOL    HW191668   2.764   0.230   5.520
63257SOL    HW291669   2.878   0.296   5.594
63258SOL     OW91670   5.134   6.952  14.207
63258SOL    HW191671   5.058   6.901  14.234
63258SOL    HW291672   5.188   6.890  14.158
63259SOL     OW91673   3.918   8.717   0.978
63259SOL    HW191674   3.830   8.725   1.015
63259SOL    HW291675   3.906   8.734   0.884
63260SOL     OW91676   3.370  13.654   5.046
63260SOL    HW191677   3.342  13.739   5.011
63260SOL    HW291678   3.458  13.642   5.010
63261SOL     OW91679   4.004  11.322   0.901
63261SOL    HW191680   3.993  11.280   0.816
63261SOL    HW291681   4.038  11.409   0.880
63262SOL     OW91682   7.161   6.618  11.530
63262SOL    HW191683   7.226   6.678  11.568
63262SOL    HW291684   7.213   6.558  11.476
63263SOL     OW91685   3.336  12.728   7.580
63263SOL    HW191686   3.313  12.766   7.665
63263SOL    HW291687   3.418  12.682   7.596
63264SOL     OW91688   8.930   1.912   6.654
63264SOL    HW191689   9.015   1.892   6.693
63264SOL    HW291690   8.924   2.008   6.655
63265SOL     OW91691   3.122   0.174  12.014
63265SOL    HW191692   3.134   0.196  11.921
63265SOL    HW291693   3.190   0.109  12.032
63266SOL     OW91694  14.837   1.703  14.827
63266SOL    HW191695  14.871   1.759  14.757
63266SOL    HW291696   0.038   1.643  14.847
63267SOL     OW91697   3.866   5.750  14.828
63267SOL    HW191698   3.852   5.789   0.042
63267SOL    HW291699   3.959   5.728  14.826
63268SOL     OW91700   6.674   3.662  12.045
63268SOL    HW191701   6.610   3.733  12.037
63268SOL    HW291702   6.633   3.587  12.000
63269SOL     OW91703  11.974   4.825   8.373
63269SOL    HW191704  11.910   4.755   8.368
63269SOL    HW291705  12.042   4.792   8.432
63270SOL     OW91706   8.502   5.472   8.306
63270SOL    HW191707   8.428   5.491   8.364
63270SOL    HW291708   8.520   5.379   8.318
63271SOL     OW91709  12.353  10.244   5.360
63271SOL    HW191710  12.325  10.294   5.437
63271SOL    HW291711  12.402  10.171   5.396
63272SOL     OW91712  14.783   2.889  11.213
63272SOL    HW191713  14.714   2.902  11.148
63272SOL    HW291714  14.776   2.797  11.238
63273SOL     OW91715   6.435  12.559  12.538
63273SOL    HW191716   6.386  12.639  12.521
63273SOL    HW291717   6.383  12.513  12.604
63274SOL     OW91718   9.684   6.307   2.989
63274SOL    HW191719   9.648   6.219   2.974
63274SOL    HW291720   9.708   6.308   3.081
63275SOL     OW91721   0.968  13.666   9.419
63275SOL    HW191722   0.921  13.735   9.372
63275SOL    HW291723   0.906  13.594   9.427
63276SOL     OW91724   5.781   0.386   5.429
63276SOL    HW191725   5.737   0.366   5.347
63276SOL    HW291726   5.762   0.479   5.445
63277SOL     OW91727   5.560   3.878  14.152
63277SOL    HW191728   5.603   3.816  14.093
63277SOL    HW291729   5.632   3.925  14.194
63278SOL     OW91730   8.418   6.599  14.062
63278SOL    HW191731   8.403   6.691  14.087
63278SOL    HW291732   8.355   6.583  13.992
63279SOL     OW91733   4.283   2.420   3.659
63279SOL    HW191734   4.366   2.418   3.707
63279SOL    HW291735   4.228   2.479   3.710
63280SOL     OW91736  14.606  11.216  12.198
63280SOL    HW191737  14.598  11.146  12.134
63280SOL    HW291738  14.519  11.256  12.202
63281SOL     OW91739  10.376   2.450  10.358
63281SOL    HW191740  10.371   2.448  10.453
63281SOL    HW291741  10.298   2.402  10.329
63282SOL     OW91742  13.712  11.299   9.952
63282SOL    HW191743  13.748  11.214   9.927
63282SOL    HW291744  13.784  11.344   9.996
63283SOL     OW91745   7.043   8.772   1.801
63283SOL    HW191746   7.099   8.722   1.860
63283SOL    HW291747   7.091   8.773   1.718
63284SOL     OW91748  13.422   7.093   6.910
63284SOL    HW191749  13.381   7.054   6.987
63284SOL    HW291750  13.483   7.158   6.945
63285SOL     OW91751   9.280   7.789  11.348
63285SOL    HW191752   9.324   7.707  11.367
63285SOL    HW291753   9.187   7.772  11.363
63286SOL     OW91754   4.167   8.638   1.021
63286SOL    HW191755   4.154   8.543   1.028
63286SOL    HW291756   4.081   8.672   0.994
63287SOL     OW91757   5.520   4.398  12.922
63287SOL    HW191758   5.455   4.382  12.992
63287SOL    HW291759   5.553   4.485  12.940
63288SOL     OW91760   5.227  10.220   4.846
63288SOL    HW191761   5.196  10.182   4.928
63288SOL    HW291762   5.149  10.258   4.806
63289SOL     OW91763   5.872   2.893  14.731
63289SOL    HW191764   5.941   2.830  14.708
63289SOL    HW291765   5.796   2.838  14.752
63290SOL     OW91766  12.635   2.918  10.414
63290SOL    HW191767  12.712   2.863  10.432
63290SOL    HW291768  12.622   2.969  10.494
63291SOL     OW91769   9.241  14.716  14.608
63291SOL    HW191770   9.160  14.765  14.594
63291SOL    HW291771   9.310  14.776  14.580
63292SOL     OW91772   7.821  11.489  14.289
63292SOL    HW191773   7.765  11.412  14.296
63292SOL    HW291774   7.799  11.528  14.204
63293SOL     OW91775   1.537   9.484   9.199
63293SOL    HW191776   1.583   9.401   9.190
63293SOL    HW291777   1.451   9.468   9.160
63294SOL     OW91778  14.281   7.685  10.611
63294SOL    HW191779  14.216   7.756  10.609
63294SOL    HW291780  14.252   7.625  10.542
63295SOL     OW91781   6.221   3.594   5.257
63295SOL    HW191782   6.222   3.499   5.259
63295SOL    HW291783   6.312   3.620   5.274
63296SOL     OW91784   8.872  13.625  13.800
63296SOL    HW191785   8.839  13.645  13.888
63296SOL    HW291786   8.818  13.551  13.771
63297SOL     OW91787   5.587   2.936  10.627
63297SOL    HW191788   5.517   2.934  10.692
63297SOL    HW291789   5.644   2.863  10.650
63298SOL     OW91790   3.112  11.108   6.283
63298SOL    HW191791   3.067  11.166   6.345
63298SOL    HW291792   3.202  11.104   6.315
63299SOL     OW91793  11.594  10.669   2.543
63299SOL    HW191794  11.589  10.602   2.611
63299SOL    HW291795  11.505  10.676   2.510
63300SOL     OW91796   5.811   6.542   0.405
63300SOL    HW191797   5.886   6.496   0.366
63300SOL    HW291798   5.813   6.629   0.365
63301SOL     OW91799   5.275  10.067  14.616
63301SOL    HW191800   5.208  10.027  14.561
63301SOL    HW291801   5.348  10.005  14.614
63302SOL     OW91802  11.437  11.993   8.771
63302SOL    HW191803  11.513  12.027   8.723
63302SOL    HW291804  11.461  12.001   8.863
63303SOL     OW91805   4.474   8.212   5.042
63303SOL    HW191806   4.541   8.265   4.998
63303SOL    HW291807   4.391   8.255   5.022
63304SOL     OW91808   2.986   2.432  14.535
63304SOL    HW191809   3.051   2.448  14.604
63304SOL    HW291810   2.905   2.471  14.569
63305SOL     OW91811   4.689   1.751   6.036
63305SOL    HW191812   4.709   1.702   6.115
63305SOL    HW291813   4.598   1.777   6.045
63306SOL     OW91814  13.855   5.280   9.460
63306SOL    HW191815  13.929   5.273   9.520
63306SOL    HW291816  13.892   5.264   9.373
63307SOL     OW91817   2.964  14.260  13.457
63307SOL    HW191818   2.877  14.242  13.491
63307SOL    HW291819   2.984  14.349  13.485
63308SOL     OW91820   3.274   8.026   4.785
63308SOL    HW191821   3.328   8.105   4.782
63308SOL    HW291822   3.337   7.956   4.805
63309SOL     OW91823   1.448   0.101  11.512
63309SOL    HW191824   1.434   0.100  11.417
63309SOL    HW291825   1.364   0.128  11.549
63310SOL     OW91826  11.207   5.697   9.718
63310SOL    HW191827  11.156   5.616   9.727
63310SOL    HW291828  11.277   5.688   9.782
63311SOL     OW91829  10.644   0.304   5.054
63311SOL    HW191830  10.607   0.223   5.019
63311SOL    HW291831  10.705   0.334   4.986
63312SOL     OW91832   7.897   1.895   5.795
63312SOL    HW191833   7.851   1.817   5.825
63312SOL    HW291834   7.989   1.880   5.819
63313SOL     OW91835  11.084   7.131  10.127
63313SOL    HW191836  11.110   7.220  10.150
63313SOL    HW291837  10.989   7.130  10.140
63314SOL     OW91838  12.344   3.439   9.150
63314SOL    HW191839  12.331   3.475   9.238
63314SOL    HW291840  12.389   3.509   9.102
63315SOL     OW91841   5.516   3.558   1.460
63315SOL    HW191842   5.511   3.632   1.399
63315SOL    HW291843   5.542   3.597   1.543
63316SOL     OW91844  14.278   6.572  14.061
63316SOL    HW191845  14.365   6.601  14.087
63316SOL    HW291846  14.220   6.645  14.088
63317SOL     OW91847   3.424   6.165   6.592
63317SOL    HW191848   3.455   6.111   6.519
63317SOL    HW291849   3.413   6.103   6.664
63318SOL     OW91850   2.324  11.959  12.022
63318SOL    HW191851   2.236  11.929  12.041
63318SOL    HW291852   2.312  12.046  11.983
63319SOL     OW91853   4.010   4.918  14.736
63319SOL    HW191854   4.038   4.955  14.821
63319SOL    HW291855   3.939   4.976  14.708
63320SOL     OW91856  14.232   6.062  14.384
63320SOL    HW191857  14.200   6.074  14.473
63320SOL    HW291858  14.202   6.140  14.337
63321SOL     OW91859  10.720   9.554  10.211
63321SOL    HW191860  10.719   9.601  10.128
63321SOL    HW291861  10.690   9.617  10.276
63322SOL     OW91862   9.898   1.085   2.473
63322SOL    HW191863   9.838   1.087   2.547
63322SOL    HW291864   9.953   1.163   2.485
63323SOL     OW91865  14.797  12.140   1.002
63323SOL    HW191866  14.805  12.182   0.916
63323SOL    HW291867  14.805  12.212   1.064
63324SOL     OW91868   5.871   9.226  12.358
63324SOL    HW191869   5.895   9.134  12.351
63324SOL    HW291870   5.791   9.234  12.305
63325SOL     OW91871   2.027   6.158   8.060
63325SOL    HW191872   2.090   6.107   8.008
63325SOL    HW291873   1.997   6.226   7.999
63326SOL     OW91874   6.350   4.095   0.519
63326SOL    HW191875   6.344   4.154   0.445
63326SOL    HW291876   6.381   4.012   0.481
63327SOL     OW91877   4.180   1.751   9.841
63327SOL    HW191878   4.263   1.797   9.834
63327SOL    HW291879   4.139   1.761   9.756
63328SOL     OW91880  13.052   7.642   6.272
63328SOL    HW191881  13.021   7.706   6.336
63328SOL    HW291882  13.144   7.628   6.294
63329SOL     OW91883  13.484  11.905   1.622
63329SOL    HW191884  13.507  11.894   1.715
63329SOL    HW291885  13.393  11.876   1.617
63330SOL     OW91886  11.807  14.377   9.195
63330SOL    HW191887  11.834  14.469   9.189
63330SOL    HW291888  11.789  14.351   9.105
63331SOL     OW91889   2.355   7.025   8.804
63331SOL    HW191890   2.349   7.119   8.787
63331SOL    HW291891   2.399   7.019   8.889
63332SOL     OW91892   2.251  10.572   7.252
63332SOL    HW191893   2.194  10.498   7.273
63332SOL    HW291894   2.242  10.631   7.326
63333SOL     OW91895   4.148   0.951   3.065
63333SOL    HW191896   4.173   1.037   3.099
63333SOL    HW291897   4.218   0.928   3.004
63334SOL     OW91898  11.304   4.228   1.026
63334SOL    HW191899  11.261   4.145   1.048
63334SOL    HW291900  11.264   4.291   1.086
63335SOL     OW91901   6.087   3.416   7.654
63335SOL    HW191902   6.042   3.447   7.733
63335SOL    HW291903   6.037   3.452   7.582
63336SOL     OW91904   3.576   8.170  10.615
63336SOL    HW191905   3.642   8.221  10.568
63336SOL    HW291906   3.627   8.104  10.663
63337SOL     OW91907   6.460   0.438  12.195
63337SOL    HW191908   6.396   0.391  12.249
63337SOL    HW291909   6.411   0.510  12.157
63338SOL     OW91910  13.737   0.982   9.497
63338SOL    HW191911  13.778   0.911   9.547
63338SOL    HW291912  13.756   1.061   9.547
63339SOL     OW91913   3.978   3.563  13.589
63339SOL    HW191914   4.070   3.572  13.564
63339SOL    HW291915   3.929   3.577  13.508
63340SOL     OW91916  13.750   4.904   4.281
63340SOL    HW191917  13.752   4.999   4.270
63340SOL    HW291918  13.819   4.872   4.223
63341SOL     OW91919  12.163   1.438  13.590
63341SOL    HW191920  12.157   1.355  13.543
63341SOL    HW291921  12.242   1.480  13.556
63342SOL     OW91922   3.332   1.081   1.500
63342SOL    HW191923   3.385   1.038   1.567
63342SOL    HW291924   3.375   1.060   1.418
63343SOL     OW91925  12.605  14.349   6.942
63343SOL    HW191926  12.569  14.437   6.943
63343SOL    HW291927  12.697  14.360   6.968
63344SOL     OW91928  11.375   2.008   3.047
63344SOL    HW191929  11.442   2.072   3.025
63344SOL    HW291930  11.293   2.057   3.043
63345SOL     OW91931   1.628   4.816  13.911
63345SOL    HW191932   1.707   4.856  13.874
63345SOL    HW291933   1.630   4.726  13.877
63346SOL     OW91934   7.471   7.748   0.493
63346SOL    HW191935   7.417   7.775   0.567
63346SOL    HW291936   7.491   7.656   0.509
63347SOL     OW91937   9.124   5.079   3.711
63347SOL    HW191938   9.071   5.066   3.790
63347SOL    HW291939   9.096   5.010   3.651
63348SOL     OW91940   8.879   2.069  14.546
63348SOL    HW191941   8.888   2.126  14.623
63348SOL    HW291942   8.909   2.123  14.473
63349SOL     OW91943   9.878  12.382  14.259
63349SOL    HW191944   9.927  12.338  14.329
63349SOL    HW291945   9.893  12.476  14.275
63350SOL     OW91946  12.834  12.170   1.001
63350SOL    HW191947  12.871  12.209   0.921
63350SOL    HW291948  12.791  12.243   1.045
63351SOL     OW91949   9.479  13.257   9.520
63351SOL    HW191950   9.457  13.349   9.538
63351SOL    HW291951   9.503  13.221   9.605
63352SOL     OW91952   8.893   3.957   9.714
63352SOL    HW191953   8.945   3.956   9.634
63352SOL    HW291954   8.896   4.048   9.744
63353SOL     OW91955  14.334   4.354   9.765
63353SOL    HW191956  14.307   4.368   9.675
63353SOL    HW291957  14.377   4.436   9.791
63354SOL     OW91958   6.269   3.157   3.347
63354SOL    HW191959   6.264   3.229   3.410
63354SOL    HW291960   6.187   3.110   3.358
63355SOL     OW91961  14.050   4.983   2.417
63355SOL    HW191962  14.113   5.025   2.475
63355SOL    HW291963  14.004   5.056   2.374
63356SOL     OW91964  12.431   5.702  11.767
63356SOL    HW191965  12.337   5.689  11.777
63356SOL    HW291966  12.455   5.646  11.693
63357SOL     OW91967  11.921  10.916   8.283
63357SOL    HW191968  11.997  10.965   8.315
63357SOL    HW291969  11.949  10.825   8.284
63358SOL     OW91970  14.696   9.575  14.104
63358SOL    HW191971  14.709   9.490  14.061
63358SOL    HW291972  14.664   9.552  14.192
63359SOL     OW91973  11.329   1.784   2.917
63359SOL    HW191974  11.253   1.759   2.969
63359SOL    HW291975  11.342   1.877   2.935
63360SOL     OW91976   7.031   5.331   4.524
63360SOL    HW191977   7.015   5.265   4.591
63360SOL    HW291978   7.102   5.385   4.559
63361SOL     OW91979   3.263  10.562  11.754
63361SOL    HW191980   3.323  10.621  11.799
63361SOL    HW291981   3.277  10.477  11.794
63362SOL     OW91982  14.282  14.463   1.328
63362SOL    HW191983  14.226  14.387   1.340
63362SOL    HW291984  14.350  14.434   1.268
63363SOL     OW91985   1.560   5.089  13.999
63363SOL    HW191986   1.563   4.998  13.970
63363SOL    HW291987   1.588   5.086  14.090
63364SOL     OW91988   2.279   7.872   7.816
63364SOL    HW191989   2.275   7.777   7.825
63364SOL    HW291990   2.276   7.906   7.906
63365SOL     OW91991   0.851  12.984   1.630
63365SOL    HW191992   0.782  13.038   1.668
63365SOL    HW291993   0.885  12.932   1.703
63366SOL     OW91994   8.155  11.911  10.969
63366SOL    HW191995   8.072  11.872  10.993
63366SOL    HW291996   8.158  11.993  11.019
63367SOL     OW91997   3.426   8.925  14.070
63367SOL    HW191998   3.507   8.959  14.030
63367SOL    HW291999   3.356   8.976  14.029
63368SOL     OW92000   8.159   4.277  14.728
63368SOL    HW192001   8.254   4.289  14.726
63368SOL    HW292002   8.146   4.184  14.707
63369SOL     OW92003  11.672   0.121  13.076
63369SOL    HW192004  11.609   0.178  13.120
63369SOL    HW292005  11.644   0.032  13.096
63370SOL     OW92006   5.582   9.740   8.630
63370SOL    HW192007   5.656   9.716   8.685
63370SOL    HW292008   5.505   9.705   8.675
63371SOL     OW92009   6.151   6.412   7.587
63371SOL    HW192010   6.165   6.488   7.643
63371SOL    HW292011   6.239   6.381   7.565
63372SOL     OW92012   2.189  14.582   4.579
63372SOL    HW192013   2.207  14.493   4.550
63372SOL    HW292014   2.135  14.620   4.509
63373SOL     OW92015   9.918   6.491   3.591
63373SOL    HW192016   9.888   6.460   3.676
63373SOL    HW292017   9.839   6.529   3.551
63374SOL     OW92018  10.855  10.925   1.451
63374SOL    HW192019  10.853  11.020   1.444
63374SOL    HW292020  10.797  10.905   1.524
63375SOL     OW92021   6.748  11.437   3.973
63375SOL    HW192022   6.729  11.529   3.955
63375SOL    HW292023   6.667  11.391   3.949
63376SOL     OW92024   0.701  10.604   4.576
63376SOL    HW192025   0.621  10.553   4.588
63376SOL    HW292026   0.705  10.621   4.482
63377SOL     OW92027  14.161  14.734   0.547
63377SOL    HW192028  14.231  14.799   0.541
63377SOL    HW292029  14.191  14.672   0.613
63378SOL     OW92030   4.317   2.364  14.280
63378SOL    HW192031   4.390   2.303  14.268
63378SOL    HW292032   4.243   2.308  14.305
63379SOL     OW92033   6.582   4.317  12.255
63379SOL    HW192034   6.617   4.406  12.247
63379SOL    HW292035   6.600   4.276  12.171
63380SOL     OW92036   6.358   3.485   7.645
63380SOL    HW192037   6.265   3.463   7.653
63380SOL    HW292038   6.396   3.459   7.729
63381SOL     OW92039   1.867   2.698  12.282
63381SOL    HW192040   1.813   2.627  12.248
63381SOL    HW292041   1.838   2.707  12.373
63382SOL     OW92042   1.987   6.738   6.386
63382SOL    HW192043   2.034   6.820   6.401
63382SOL    HW292044   1.901   6.752   6.425
63383SOL     OW92045  10.369   6.232  13.414
63383SOL    HW192046  10.307   6.206  13.346
63383SOL    HW292047  10.338   6.317  13.443
63384SOL     OW92048   8.026   2.471   9.676
63384SOL    HW192049   7.986   2.557   9.684
63384SOL    HW292050   8.093   2.481   9.608
63385SOL     OW92051   5.117   7.874   4.249
63385SOL    HW192052   5.170   7.811   4.298
63385SOL    HW292053   5.103   7.947   4.310
63386SOL     OW92054   2.845   1.773   8.252
63386SOL    HW192055   2.935   1.791   8.279
63386SOL    HW292056   2.851   1.695   8.198
63387SOL     OW92057   5.036   2.885   9.369
63387SOL    HW192058   4.961   2.839   9.332
63387SOL    HW292059   5.038   2.969   9.323
63388SOL     OW92060   7.334   8.117   1.054
63388SOL    HW192061   7.373   8.049   1.109
63388SOL    HW292062   7.256   8.144   1.102
63389SOL     OW92063  13.424   8.113   9.098
63389SOL    HW192064  13.474   8.061   9.161
63389SOL    HW292065  13.442   8.204   9.121
63390SOL     OW92066   2.615   4.565   1.020
63390SOL    HW192067   2.564   4.484   1.028
63390SOL    HW292068   2.687   4.554   1.082
63391SOL     OW92069   0.863   1.656   4.600
63391SOL    HW192070   0.862   1.735   4.546
63391SOL    HW292071   0.834   1.586   4.540
63392SOL     OW92072   5.828   3.083   8.326
63392SOL    HW192073   5.772   3.028   8.380
63392SOL    HW292074   5.910   3.035   8.319
63393SOL     OW92075   4.352   2.774   6.107
63393SOL    HW192076   4.302   2.693   6.097
63393SOL    HW292077   4.440   2.745   6.130
63394SOL     OW92078  11.329  11.681   7.177
63394SOL    HW192079  11.368  11.684   7.090
63394SOL    HW292080  11.378  11.612   7.223
63395SOL     OW92081   8.430   1.694   1.481
63395SOL    HW192082   8.401   1.619   1.534
63395SOL    HW292083   8.350   1.744   1.464
63396SOL     OW92084   6.764   8.174   2.787
63396SOL    HW192085   6.697   8.106   2.775
63396SOL    HW292086   6.808   8.149   2.868
63397SOL     OW92087   9.302  13.931   8.638
63397SOL    HW192088   9.258  14.009   8.672
63397SOL    HW292089   9.395  13.954   8.639
63398SOL     OW92090  12.619   6.622   2.979
63398SOL    HW192091  12.686   6.609   2.912
63398SOL    HW292092  12.561   6.689   2.942
63399SOL     OW92093  10.402   9.791   3.344
63399SOL    HW192094  10.416   9.867   3.288
63399SOL    HW292095  10.311   9.765   3.328
63400SOL     OW92096   4.322   2.977   2.211
63400SOL    HW192097   4.235   2.969   2.172
63400SOL    HW292098   4.312   2.947   2.301
63401SOL     OW92099   3.697  12.417   5.642
63401SOL    HW192100   3.675  12.499   5.597
63401SOL    HW292101   3.618  12.364   5.636
63402SOL     OW92102  11.833   7.996  13.393
63402SOL    HW192103  11.839   8.085  13.360
63402SOL    HW292104  11.904   7.989  13.457
63403SOL     OW92105  14.183  14.272   3.941
63403SOL    HW192106  14.255  14.208   3.947
63403SOL    HW292107  14.202  14.320   3.860
63404SOL     OW92108   2.474   4.864  13.345
63404SOL    HW192109   2.529   4.785  13.343
63404SOL    HW292110   2.504   4.915  13.270
63405SOL     OW92111   4.013   2.902   2.476
63405SOL    HW192112   4.108   2.911   2.471
63405SOL    HW292113   3.979   2.985   2.443
63406SOL     OW92114   7.235   1.064  14.093
63406SOL    HW192115   7.238   1.067  13.997
63406SOL    HW292116   7.244   0.971  14.114
63407SOL     OW92117   1.993   8.607  13.693
63407SOL    HW192118   1.978   8.701  13.685
63407SOL    HW292119   1.991   8.590  13.787
63408SOL     OW92120  10.849  13.390   8.706
63408SOL    HW192121  10.845  13.346   8.792
63408SOL    HW292122  10.920  13.454   8.715
63409SOL     OW92123   5.527   4.356  12.569
63409SOL    HW192124   5.525   4.346  12.665
63409SOL    HW292125   5.471   4.286  12.536
63410SOL     OW92126   0.399   3.056  14.538
63410SOL    HW192127   0.383   2.967  14.509
63410SOL    HW292128   0.316   3.084  14.576
63411SOL     OW92129  10.585   8.148   7.262
63411SOL    HW192130  10.664   8.102   7.234
63411SOL    HW292131  10.607   8.184   7.348
63412SOL     OW92132   3.726   3.320   2.488
63412SOL    HW192133   3.770   3.305   2.572
63412SOL    HW292134   3.634   3.334   2.512
63413SOL     OW92135  10.881   2.599   7.258
63413SOL    HW192136  10.954   2.618   7.199
63413SOL    HW292137  10.817   2.552   7.203
63414SOL     OW92138   5.238  10.563   1.789
63414SOL    HW192139   5.286  10.535   1.711
63414SOL    HW292140   5.175  10.628   1.756
63415SOL     OW92141   2.288  14.129   2.036
63415SOL    HW192142   2.241  14.112   1.954
63415SOL    HW292143   2.225  14.178   2.090
63416SOL     OW92144  10.720   1.257   2.585
63416SOL    HW192145  10.810   1.281   2.562
63416SOL    HW292146  10.667   1.286   2.510
63417SOL     OW92147   1.596   9.967  13.319
63417SOL    HW192148   1.518   9.921  13.350
63417SOL    HW292149   1.653   9.971  13.396
63418SOL     OW92150  10.857  12.491  10.318
63418SOL    HW192151  10.822  12.567  10.365
63418SOL    HW292152  10.808  12.417  10.353
63419SOL     OW92153   8.532  14.167  12.304
63419SOL    HW192154   8.459  14.224  12.282
63419SOL    HW292155   8.492  14.088  12.340
63420SOL     OW92156   5.582   6.960   1.973
63420SOL    HW192157   5.620   6.908   1.901
63420SOL    HW292158   5.644   6.949   2.045
63421SOL     OW92159   1.681  11.224   7.838
63421SOL    HW192160   1.748  11.270   7.788
63421SOL    HW292161   1.653  11.288   7.904
63422SOL     OW92162   6.824   0.120   6.829
63422SOL    HW192163   6.885   0.182   6.870
63422SOL    HW292164   6.864   0.034   6.844
63423SOL     OW92165   3.323   1.313  12.563
63423SOL    HW192166   3.417   1.328  12.558
63423SOL    HW292167   3.312   1.249  12.634
63424SOL     OW92168   2.705   5.965  13.229
63424SOL    HW192169   2.780   6.014  13.264
63424SOL    HW292170   2.631   6.025  13.240
63425SOL     OW92171  10.023   1.547   3.375
63425SOL    HW192172  10.070   1.543   3.458
63425SOL    HW292173  10.091   1.558   3.309
63426SOL     OW92174  13.053  12.275   4.997
63426SOL    HW192175  12.995  12.258   4.923
63426SOL    HW292176  13.064  12.190   5.039
63427SOL     OW92177   6.268   9.142  12.103
63427SOL    HW192178   6.196   9.200  12.126
63427SOL    HW292179   6.327   9.147  12.178
63428SOL     OW92180   0.212   0.784  14.009
63428SOL    HW192181   0.140   0.836  13.972
63428SOL    HW292182   0.269   0.849  14.051
63429SOL     OW92183   6.583   2.350   4.805
63429SOL    HW192184   6.571   2.380   4.715
63429SOL    HW292185   6.662   2.394   4.835
63430SOL     OW92186   3.826   5.990   8.316
63430SOL    HW192187   3.873   5.911   8.286
63430SOL    HW292188   3.858   6.004   8.405
63431SOL     OW92189   6.699  11.508   8.418
63431SOL    HW192190   6.748  11.490   8.498
63431SOL    HW292191   6.734  11.447   8.353
63432SOL     OW92192   1.717  11.114   3.557
63432SOL    HW192193   1.686  11.161   3.634
63432SOL    HW292194   1.729  11.182   3.490
63433SOL     OW92195   5.731   8.231   4.082
63433SOL    HW192196   5.662   8.188   4.131
63433SOL    HW292197   5.737   8.182   4.000
63434SOL     OW92198   6.433   5.204   9.542
63434SOL    HW192199   6.483   5.125   9.562
63434SOL    HW292200   6.498   5.274   9.544
63435SOL     OW92201   6.193  13.924   1.969
63435SOL    HW192202   6.203  14.014   1.938
63435SOL    HW292203   6.192  13.931   2.064
63436SOL     OW92204   7.433   0.403   2.204
63436SOL    HW192205   7.400   0.476   2.256
63436SOL    HW292206   7.359   0.342   2.197
63437SOL     OW92207  13.673   6.246   0.375
63437SOL    HW192208  13.689   6.153   0.355
63437SOL    HW292209  13.610   6.274   0.308
63438SOL     OW92210  14.403   2.239  11.718
63438SOL    HW192211  14.491   2.221  11.752
63438SOL    HW292212  14.415   2.317  11.663
63439SOL     OW92213   9.631   4.079   0.537
63439SOL    HW192214   9.596   4.160   0.499
63439SOL    HW292215   9.568   4.011   0.512
63440SOL     OW92216   4.135  10.559   4.033
63440SOL    HW192217   4.103  10.578   4.121
63440SOL    HW292218   4.198  10.629   4.015
63441SOL     OW92219  10.280   6.116   9.513
63441SOL    HW192220  10.365   6.072   9.511
63441SOL    HW292221  10.275   6.154   9.601
63442SOL     OW92222   2.755   9.323  14.004
63442SOL    HW192223   2.774   9.297  14.094
63442SOL    HW292224   2.797   9.408  13.994
63443SOL     OW92225   3.423   1.160   4.377
63443SOL    HW192226   3.400   1.088   4.318
63443SOL    HW292227   3.426   1.121   4.464
63444SOL     OW92228   9.244   9.539   7.545
63444SOL    HW192229   9.149   9.526   7.552
63444SOL    HW292230   9.274   9.547   7.636
63445SOL     OW92231   9.403   7.107   0.723
63445SOL    HW192232   9.349   7.185   0.712
63445SOL    HW292233   9.484   7.125   0.676
63446SOL     OW92234   9.375   5.748   1.461
63446SOL    HW192235   9.447   5.760   1.399
63446SOL    HW292236   9.356   5.655   1.458
63447SOL     OW92237   9.430   3.715   2.846
63447SOL    HW192238   9.487   3.774   2.896
63447SOL    HW292239   9.348   3.713   2.895
63448SOL     OW92240   8.739   3.557  14.405
63448SOL    HW192241   8.783   3.506  14.472
63448SOL    HW292242   8.728   3.496  14.332
63449SOL     OW92243   2.442  13.984  12.889
63449SOL    HW192244   2.461  13.964  12.981
63449SOL    HW292245   2.455  13.900  12.844
63450SOL     OW92246   3.022   1.666   8.582
63450SOL    HW192247   3.019   1.572   8.565
63450SOL    HW292248   3.071   1.701   8.507
63451SOL     OW92249   8.991   1.229  12.134
63451SOL    HW192250   9.066   1.259  12.186
63451SOL    HW292251   8.923   1.294  12.152
63452SOL     OW92252   8.752  12.551   8.839
63452SOL    HW192253   8.765  12.471   8.890
63452SOL    HW292254   8.795  12.619   8.890
63453SOL     OW92255  10.914   9.164  10.381
63453SOL    HW192256  10.991   9.183  10.436
63453SOL    HW292257  10.949   9.117  10.306
63454SOL     OW92258  14.868   7.764   6.996
63454SOL    HW192259  14.829   7.735   6.914
63454SOL    HW292260   0.090   7.770   6.977
63455SOL     OW92261  14.496   9.642   7.296
63455SOL    HW192262  14.547   9.709   7.342
63455SOL    HW292263  14.556   9.568   7.286
63456SOL     OW92264  11.008   9.333  13.672
63456SOL    HW192265  11.042   9.407  13.723
63456SOL    HW292266  11.062   9.333  13.592
63457SOL     OW92267   8.191   3.759   0.818
63457SOL    HW192268   8.162   3.678   0.858
63457SOL    HW292269   8.113   3.793   0.773
63458SOL     OW92270  12.550   6.030  10.751
63458SOL    HW192271  12.467   6.004  10.790
63458SOL    HW292272  12.617   5.994  10.810
63459SOL     OW92273  10.590   3.767   9.080
63459SOL    HW192274  10.627   3.798   9.163
63459SOL    HW292275  10.653   3.702   9.049
63460SOL     OW92276   4.213   7.983   9.436
63460SOL    HW192277   4.263   8.057   9.400
63460SOL    HW292278   4.266   7.906   9.416
63461SOL     OW92279   1.589  12.268  11.779
63461SOL    HW192280   1.586  12.185  11.826
63461SOL    HW292281   1.557  12.333  11.843
63462SOL     OW92282  14.176  13.336   2.126
63462SOL    HW192283  14.116  13.306   2.057
63462SOL    HW292284  14.130  13.317   2.208
63463SOL     OW92285   7.956  14.812   6.431
63463SOL    HW192286   7.898  14.755   6.381
63463SOL    HW292287   7.898  14.857   6.493
63464SOL     OW92288  11.339   4.548   8.035
63464SOL    HW192289  11.325   4.602   7.957
63464SOL    HW292290  11.267   4.573   8.094
63465SOL     OW92291   5.188  13.928   5.194
63465SOL    HW192292   5.257  13.992   5.212
63465SOL    HW292293   5.165  13.893   5.280
63466SOL     OW92294   6.383  14.356  10.335
63466SOL    HW192295   6.434  14.436  10.323
63466SOL    HW292296   6.349  14.335  10.248
63467SOL     OW92297  14.405   4.186  13.342
63467SOL    HW192298  14.356   4.246  13.285
63467SOL    HW292299  14.377   4.099  13.314
63468SOL     OW92300   1.302  11.556   5.804
63468SOL    HW192301   1.307  11.492   5.733
63468SOL    HW292302   1.217  11.599   5.793
63469SOL     OW92303   0.123   0.275  13.802
63469SOL    HW192304   0.137   0.334  13.728
63469SOL    HW292305   0.052   0.315  13.852
63470SOL     OW92306   1.338  13.220   0.675
63470SOL    HW192307   1.338  13.315   0.671
63470SOL    HW292308   1.259  13.197   0.724
63471SOL     OW92309  11.596   6.121   9.697
63471SOL    HW192310  11.607   6.096   9.605
63471SOL    HW292311  11.622   6.213   9.700
63472SOL     OW92312  10.772  11.170   1.520
63472SOL    HW192313  10.794  11.221   1.598
63472SOL    HW292314  10.677  11.160   1.524
63473SOL     OW92315  12.135   6.109   4.305
63473SOL    HW192316  12.087   6.191   4.291
63473SOL    HW292317  12.073   6.040   4.278
63474SOL     OW92318   1.013  12.558   7.801
63474SOL    HW192319   1.028  12.599   7.716
63474SOL    HW292320   1.073  12.602   7.861
63475SOL     OW92321  10.498   9.249   8.201
63475SOL    HW192322  10.503   9.335   8.160
63475SOL    HW292323  10.452   9.194   8.138
63476SOL     OW92324   0.519   1.788   1.788
63476SOL    HW192325   0.614   1.780   1.798
63476SOL    HW292326   0.506   1.873   1.747
63477SOL     OW92327   0.357   1.763   5.556
63477SOL    HW192328   0.264   1.742   5.556
63477SOL    HW292329   0.387   1.742   5.467
63478SOL     OW92330   6.414  11.327   4.224
63478SOL    HW192331   6.328  11.370   4.216
63478SOL    HW292332   6.425  11.280   4.142
63479SOL     OW92333  11.110   8.992  13.893
63479SOL    HW192334  11.024   9.019  13.859
63479SOL    HW292335  11.094   8.906  13.933
63480SOL     OW92336   8.208  14.392   0.127
63480SOL    HW192337   8.180  14.300   0.137
63480SOL    HW292338   8.191  14.431   0.212
63481SOL     OW92339  13.283   8.489   7.017
63481SOL    HW192340  13.256   8.499   7.109
63481SOL    HW292341  13.301   8.579   6.989
63482SOL     OW92342   8.152  13.580   7.039
63482SOL    HW192343   8.213  13.615   6.974
63482SOL    HW292344   8.079  13.643   7.039
63483SOL     OW92345   7.301   9.858   4.034
63483SOL    HW192346   7.384   9.814   4.018
63483SOL    HW292347   7.265   9.814   4.112
63484SOL     OW92348   6.393   4.535   4.996
63484SOL    HW192349   6.313   4.493   4.965
63484SOL    HW292350   6.441   4.465   5.041
63485SOL     OW92351  14.632  10.701   7.349
63485SOL    HW192352  14.585  10.624   7.382
63485SOL    HW292353  14.575  10.737   7.282
63486SOL     OW92354  10.857   1.934  10.404
63486SOL    HW192355  10.787   1.901  10.461
63486SOL    HW292356  10.919   1.861  10.399
63487SOL     OW92357  13.676   8.814   8.050
63487SOL    HW192358  13.611   8.883   8.038
63487SOL    HW292359  13.721   8.839   8.131
63488SOL     OW92360   8.861   5.271   5.480
63488SOL    HW192361   8.882   5.329   5.407
63488SOL    HW292362   8.784   5.222   5.450
63489SOL     OW92363   8.959   3.411  13.979
63489SOL    HW192364   9.048   3.382  13.959
63489SOL    HW292365   8.905   3.374  13.910
63490SOL     OW92366  14.086  13.243   5.359
63490SOL    HW192367  14.175  13.213   5.378
63490SOL    HW292368  14.068  13.306   5.428
63491SOL     OW92369   6.148  13.727   7.252
63491SOL    HW192370   6.176  13.697   7.339
63491SOL    HW292371   6.217  13.696   7.193
63492SOL     OW92372  11.499  11.934  10.025
63492SOL    HW192373  11.413  11.976  10.023
63492SOL    HW292374  11.512  11.909  10.116
63493SOL     OW92375   5.717  11.750  10.873
63493SOL    HW192376   5.645  11.762  10.934
63493SOL    HW292377   5.693  11.802  10.797
63494SOL     OW92378   8.700   3.684   2.679
63494SOL    HW192379   8.679   3.734   2.758
63494SOL    HW292380   8.615   3.649   2.650
63495SOL     OW92381   4.392   8.476   0.356
63495SOL    HW192382   4.459   8.469   0.288
63495SOL    HW292383   4.311   8.447   0.312
63496SOL     OW92384   0.368  14.602  10.892
63496SOL    HW192385   0.410  14.667  10.836
63496SOL    HW292386   0.327  14.541  10.832
63497SOL     OW92387   7.008   1.051  10.352
63497SOL    HW192388   7.100   1.023  10.358
63497SOL    HW292389   6.973   1.037  10.440
63498SOL     OW92390   7.814   1.046   8.861
63498SOL    HW192391   7.900   1.070   8.828
63498SOL    HW292392   7.753   1.102   8.813
63499SOL     OW92393  11.279   3.678   5.277
63499SOL    HW192394  11.218   3.617   5.318
63499SOL    HW292395  11.263   3.669   5.183
63500SOL     OW92396  11.581   0.719   7.064
63500SOL    HW192397  11.499   0.752   7.099
63500SOL    HW292398  11.646   0.783   7.092
63501SOL     OW92399   5.716   8.224  10.783
63501SOL    HW192400   5.643   8.282  10.804
63501SOL    HW292401   5.714   8.157  10.851
63502SOL     OW92402   3.191  10.824   4.334
63502SOL    HW192403   3.139  10.746   4.352
63502SOL    HW292404   3.139  10.873   4.270
63503SOL     OW92405   7.867  10.301  11.572
63503SOL    HW192406   7.940  10.289  11.512
63503SOL    HW292407   7.810  10.365  11.528
63504SOL     OW92408   7.376   8.328  11.205
63504SOL    HW192409   7.351   8.270  11.278
63504SOL    HW292410   7.377   8.270  11.128
63505SOL     OW92411  13.160  13.401   1.373
63505SOL    HW192412  13.161  13.496   1.379
63505SOL    HW292413  13.071  13.376   1.396
63506SOL     OW92414   1.914  14.814   1.844
63506SOL    HW192415   1.879  14.765   1.918
63506SOL    HW292416   1.868  14.779   1.768
63507SOL     OW92417  14.422  10.167   1.922
63507SOL    HW192418  14.337  10.205   1.901
63507SOL    HW292419  14.407  10.116   2.002
63508SOL     OW92420  14.287   9.370  11.606
63508SOL    HW192421  14.328   9.338  11.687
63508SOL    HW292422  14.201   9.402  11.634
63509SOL     OW92423   2.189  13.567   3.539
63509SOL    HW192424   2.178  13.647   3.591
63509SOL    HW292425   2.178  13.496   3.602
63510SOL     OW92426   7.322  14.766   3.980
63510SOL    HW192427   7.370  14.834   3.933
63510SOL    HW292428   7.233  14.801   3.987
63511SOL     OW92429   8.677  14.825  14.832
63511SOL    HW192430   8.703  14.846   0.050
63511SOL    HW292431   8.605   0.014  14.813
63512SOL     OW92432   5.646   5.722  13.407
63512SOL    HW192433   5.612   5.811  13.422
63512SOL    HW292434   5.570   5.672  13.378
63513SOL     OW92435  11.417   3.541   3.861
63513SOL    HW192436  11.468   3.617   3.833
63513SOL    HW292437  11.333   3.577   3.887
63514SOL     OW92438   6.670  12.780  14.402
63514SOL    HW192439   6.696  12.735  14.321
63514SOL    HW292440   6.678  12.873  14.380
63515SOL     OW92441   3.563  11.824  10.271
63515SOL    HW192442   3.469  11.812  10.262
63515SOL    HW292443   3.599  11.801  10.185
63516SOL     OW92444   2.711   1.524  13.975
63516SOL    HW192445   2.737   1.449  13.922
63516SOL    HW292446   2.640   1.565  13.926
63517SOL     OW92447  10.689   3.001   8.989
63517SOL    HW192448  10.627   2.927   8.992
63517SOL    HW292449  10.774   2.961   9.006
63518SOL     OW92450   7.745   2.961   1.203
63518SOL    HW192451   7.762   2.913   1.122
63518SOL    HW292452   7.831   2.972   1.243
63519SOL     OW92453   1.313  10.918  11.339
63519SOL    HW192454   1.299  10.927  11.433
63519SOL    HW292455   1.356  11.000  11.314
63520SOL     OW92456   0.768   0.111  13.444
63520SOL    HW192457   0.784   0.190  13.392
63520SOL    HW292458   0.820   0.122  13.523
63521SOL     OW92459  13.943   8.840   2.144
63521SOL    HW192460  13.972   8.751   2.164
63521SOL    HW292461  13.945   8.886   2.228
63522SOL     OW92462   2.857   9.223  14.240
63522SOL    HW192463   2.953   9.215  14.242
63522SOL    HW292464   2.830   9.207  14.331
63523SOL     OW92465   4.923   4.255   5.022
63523SOL    HW192466   4.922   4.172   5.070
63523SOL    HW292467   4.941   4.230   4.931
63524SOL     OW92468  11.242  11.066  10.144
63524SOL    HW192469  11.197  11.148  10.123
63524SOL    HW292470  11.311  11.058  10.079
63525SOL     OW92471  14.449   9.424   9.981
63525SOL    HW192472  14.364   9.415   9.938
63525SOL    HW292473  14.507   9.364   9.935
63526SOL     OW92474   1.933   1.642   9.156
63526SOL    HW192475   2.018   1.662   9.115
63526SOL    HW292476   1.869   1.658   9.087
63527SOL     OW92477   6.620   2.877   2.878
63527SOL    HW192478   6.683   2.805   2.865
63527SOL    HW292479   6.651   2.921   2.958
63528SOL     OW92480  12.761   3.599   2.689
63528SOL    HW192481  12.673   3.583   2.655
63528SOL    HW292482  12.819   3.565   2.621
63529SOL     OW92483   0.886   4.490   3.206
63529SOL    HW192484   0.976   4.465   3.185
63529SOL    HW292485   0.850   4.415   3.253
63530SOL     OW92486  11.036  12.360   8.139
63530SOL    HW192487  11.128  12.354   8.165
63530SOL    HW292488  10.988  12.323   8.214
63531SOL     OW92489  13.774   3.588   8.841
63531SOL    HW192490  13.697   3.640   8.819
63531SOL    HW292491  13.832   3.597   8.766
63532SOL     OW92492   9.130  10.600   1.936
63532SOL    HW192493   9.126  10.568   2.027
63532SOL    HW292494   9.079  10.538   1.886
63533SOL     OW92495   6.447   6.582  11.594
63533SOL    HW192496   6.446   6.493  11.626
63533SOL    HW292497   6.409   6.576  11.506
63534SOL     OW92498  11.864  11.089  14.432
63534SOL    HW192499  11.898  11.048  14.512
63534SOL    HW292500  11.856  11.017  14.370
63535SOL     OW92501   4.756   6.515   7.420
63535SOL    HW192502   4.680   6.541   7.473
63535SOL    HW292503   4.741   6.423   7.401
63536SOL     OW92504   3.473  11.394   5.102
63536SOL    HW192505   3.389  11.433   5.080
63536SOL    HW292506   3.481  11.406   5.197
63537SOL     OW92507  12.338   0.082  14.325
63537SOL    HW192508  12.349   0.165  14.279
63537SOL    HW292509  12.250   0.085  14.361
63538SOL     OW92510   9.320  10.652   0.555
63538SOL    HW192511   9.348  10.668   0.465
63538SOL    HW292512   9.309  10.557   0.561
63539SOL     OW92513  14.481   8.557   4.209
63539SOL    HW192514  14.463   8.600   4.125
63539SOL    HW292515  14.459   8.465   4.193
63540SOL     OW92516  12.490   2.935  14.695
63540SOL    HW192517  12.456   2.862  14.644
63540SOL    HW292518  12.581   2.911  14.714
63541SOL     OW92519  13.167   6.295   3.862
63541SOL    HW192520  13.185   6.232   3.931
63541SOL    HW292521  13.092   6.346   3.894
63542SOL     OW92522   2.549   4.105  12.954
63542SOL    HW192523   2.598   4.082  13.033
63542SOL    HW292524   2.574   4.195  12.935
63543SOL     OW92525  12.291  11.541   2.764
63543SOL    HW192526  12.333  11.597   2.699
63543SOL    HW292527  12.250  11.602   2.825
63544SOL     OW92528   8.692  13.044  11.945
63544SOL    HW192529   8.709  12.951  11.926
63544SOL    HW292530   8.737  13.060  12.028
63545SOL     OW92531   7.399   2.074   4.025
63545SOL    HW192532   7.418   1.980   4.028
63545SOL    HW292533   7.377   2.091   3.933
63546SOL     OW92534   2.867   9.083  10.215
63546SOL    HW192535   2.949   9.060  10.259
63546SOL    HW292536   2.855   9.014  10.150
63547SOL     OW92537  14.854   0.863  10.824
63547SOL    HW192538  14.831   0.849  10.916
63547SOL    HW292539   0.044   0.937  10.825
63548SOL     OW92540   4.708   1.884   6.781
63548SOL    HW192541   4.711   1.970   6.739
63548SOL    HW292542   4.667   1.900   6.866
63549SOL     OW92543   9.271   3.575   9.003
63549SOL    HW192544   9.232   3.491   8.978
63549SOL    HW292545   9.241   3.636   8.936
63550SOL     OW92546   7.874  14.190   6.758
63550SOL    HW192547   7.875  14.223   6.668
63550SOL    HW292548   7.947  14.129   6.762
63551SOL     OW92549  14.223   0.794   6.347
63551SOL    HW192550  14.224   0.806   6.252
63551SOL    HW292551  14.308   0.828   6.376
63552SOL     OW92552   4.480   4.416   8.373
63552SOL    HW192553   4.563   4.449   8.407
63552SOL    HW292554   4.414   4.476   8.410
63553SOL     OW92555   0.968  10.764   6.818
63553SOL    HW192556   0.970  10.729   6.907
63553SOL    HW292557   1.030  10.837   6.819
63554SOL     OW92558  14.851   5.028   9.848
63554SOL    HW192559  14.758   5.048   9.849
63554SOL    HW292560  14.869   4.993   9.935
63555SOL     OW92561   3.936   4.615  14.015
63555SOL    HW192562   3.892   4.697  13.990
63555SOL    HW292563   4.013   4.643  14.065
63556SOL     OW92564   4.114   0.418  11.643
63556SOL    HW192565   4.091   0.369  11.722
63556SOL    HW292566   4.138   0.351  11.579
63557SOL     OW92567   3.400   3.810   6.884
63557SOL    HW192568   3.458   3.886   6.888
63557SOL    HW292569   3.361   3.814   6.797
63558SOL     OW92570   7.059   2.700   6.742
63558SOL    HW192571   7.027   2.747   6.819
63558SOL    HW292572   7.040   2.757   6.668
63559SOL     OW92573   9.645  11.853   6.852
63559SOL    HW192574   9.645  11.758   6.837
63559SOL    HW292575   9.737  11.874   6.868
63560SOL     OW92576   4.522   8.829   8.245
63560SOL    HW192577   4.524   8.770   8.169
63560SOL    HW292578   4.607   8.816   8.287
63561SOL     OW92579   9.309   5.371  12.458
63561SOL    HW192580   9.237   5.343  12.516
63561SOL    HW292581   9.269   5.375  12.371
63562SOL     OW92582   4.503  13.791  11.403
63562SOL    HW192583   4.515  13.758  11.493
63562SOL    HW292584   4.571  13.857  11.392
63563SOL     OW92585   4.420  14.653   5.342
63563SOL    HW192586   4.388  14.687   5.258
63563SOL    HW292587   4.350  14.674   5.404
63564SOL     OW92588   5.504   4.655  13.627
63564SOL    HW192589   5.415   4.662  13.593
63564SOL    HW292590   5.493   4.634  13.720
63565SOL     OW92591  12.650  13.286   6.843
63565SOL    HW192592  12.604  13.215   6.799
63565SOL    HW292593  12.708  13.323   6.777
63566SOL     OW92594   4.250  14.666   3.350
63566SOL    HW192595   4.230  14.758   3.332
63566SOL    HW292596   4.165  14.628   3.371
63567SOL     OW92597   2.198   3.910  11.305
63567SOL    HW192598   2.120   3.866  11.272
63567SOL    HW292599   2.171   3.945  11.390
63568SOL     OW92600  10.387   0.870   1.505
63568SOL    HW192601  10.311   0.843   1.557
63568SOL    HW292602  10.370   0.834   1.417
63569SOL     OW92603   5.381  13.268   3.275
63569SOL    HW192604   5.289  13.293   3.268
63569SOL    HW292605   5.406  13.246   3.185
63570SOL     OW92606   3.736   0.041   5.554
63570SOL    HW192607   3.802   0.023   5.620
63570SOL    HW292608   3.681   0.109   5.593
63571SOL     OW92609  13.325  13.480   7.221
63571SOL    HW192610  13.331  13.439   7.308
63571SOL    HW292611  13.405  13.533   7.214
63572SOL     OW92612  13.698   3.335   3.528
63572SOL    HW192613  13.773   3.325   3.587
63572SOL    HW292614  13.736   3.362   3.445
63573SOL     OW92615  11.246  12.336   1.743
63573SOL    HW192616  11.246  12.431   1.750
63573SOL    HW292617  11.189  12.306   1.814
63574SOL     OW92618   8.053  13.513   9.449
63574SOL    HW192619   8.015  13.545   9.367
63574SOL    HW292620   8.043  13.418   9.445
63575SOL     OW92621  12.830   9.968   1.599
63575SOL    HW192622  12.832   9.893   1.540
63575SOL    HW292623  12.737   9.985   1.612
63576SOL     OW92624   8.810   6.611   3.497
63576SOL    HW192625   8.723   6.591   3.461
63576SOL    HW292626   8.791   6.640   3.587
63577SOL     OW92627   6.448   2.472  14.621
63577SOL    HW192628   6.423   2.517  14.702
63577SOL    HW292629   6.415   2.383  14.633
63578SOL     OW92630  13.117   5.263  10.807
63578SOL    HW192631  13.193   5.262  10.865
63578SOL    HW292632  13.155   5.255  10.719
63579SOL     OW92633   2.015   0.498   9.868
63579SOL    HW192634   1.989   0.409   9.845
63579SOL    HW292635   2.092   0.515   9.814
63580SOL     OW92636   2.861   2.311   4.898
63580SOL    HW192637   2.833   2.390   4.944
63580SOL    HW292638   2.956   2.308   4.910
63581SOL     OW92639  12.591   8.862   1.745
63581SOL    HW192640  12.670   8.897   1.787
63581SOL    HW292641  12.542   8.822   1.817
63582SOL     OW92642  10.589   7.213   2.913
63582SOL    HW192643  10.499   7.220   2.882
63582SOL    HW292644  10.581   7.197   3.007
63583SOL     OW92645   9.344  10.984   1.629
63583SOL    HW192646   9.389  10.913   1.583
63583SOL    HW292647   9.286  10.940   1.691
63584SOL     OW92648   4.151  10.963  14.769
63584SOL    HW192649   4.077  11.009  14.809
63584SOL    HW292650   4.111  10.901  14.708
63585SOL     OW92651   3.551   8.495  14.097
63585SOL    HW192652   3.536   8.559  14.027
63585SOL    HW292653   3.556   8.548  14.177
63586SOL     OW92654   7.519  11.242  12.851
63586SOL    HW192655   7.429  11.210  12.841
63586SOL    HW292656   7.526  11.314  12.789
63587SOL     OW92657   1.079   1.266  12.189
63587SOL    HW192658   1.041   1.208  12.255
63587SOL    HW292659   1.005   1.288  12.131
63588SOL     OW92660   0.907   0.649   1.699
63588SOL    HW192661   0.998   0.672   1.719
63588SOL    HW292662   0.867   0.732   1.675
63589SOL     OW92663  12.457   3.119   7.753
63589SOL    HW192664  12.383   3.131   7.812
63589SOL    HW292665  12.528   3.088   7.810
63590SOL     OW92666   9.776   3.345   8.636
63590SOL    HW192667   9.800   3.253   8.625
63590SOL    HW292668   9.711   3.345   8.706
63591SOL     OW92669  11.348   6.322   2.074
63591SOL    HW192670  11.371   6.403   2.118
63591SOL    HW292671  11.430   6.272   2.070
63592SOL     OW92672  12.937  10.078  10.239
63592SOL    HW192673  12.881  10.138  10.288
63592SOL    HW292674  12.990  10.135  10.183
63593SOL     OW92675   5.034   0.783   7.977
63593SOL    HW192676   5.049   0.700   8.022
63593SOL    HW292677   4.960   0.822   8.023
63594SOL     OW92678  14.071   1.526   0.293
63594SOL    HW192679  13.999   1.494   0.239
63594SOL    HW292680  14.045   1.503   0.383
63595SOL     OW92681   2.017   2.561  11.670
63595SOL    HW192682   2.049   2.651  11.675
63595SOL    HW292683   2.084   2.509  11.717
63596SOL     OW92684   9.832   0.579   0.461
63596SOL    HW192685   9.905   0.551   0.516
63596SOL    HW292686   9.754   0.552   0.509
63597SOL     OW92687  12.910   8.691  10.173
63597SOL    HW192688  12.892   8.785  10.176
63597SOL    HW292689  12.934   8.674  10.082
63598SOL     OW92690   4.715  10.782  14.234
63598SOL    HW192691   4.635  10.734  14.214
63598SOL    HW292692   4.771  10.719  14.279
63599SOL     OW92693   5.895   6.341   4.381
63599SOL    HW192694   5.840   6.371   4.454
63599SOL    HW292695   5.981   6.327   4.421
63600SOL     OW92696   2.962   3.983  13.285
63600SOL    HW192697   3.037   3.923  13.278
63600SOL    HW292698   2.972   4.023  13.372
63601SOL     OW92699  11.281  10.824   2.163
63601SOL    HW192700  11.236  10.740   2.152
63601SOL    HW292701  11.236  10.865   2.237
63602SOL     OW92702  13.187  12.887   1.291
63602SOL    HW192703  13.131  12.963   1.306
63602SOL    HW292704  13.147  12.842   1.216
63603SOL     OW92705  14.074   8.761   6.939
63603SOL    HW192706  14.135   8.835   6.950
63603SOL    HW292707  14.046   8.767   6.848
63604SOL     OW92708   1.715   4.475   4.147
63604SOL    HW192709   1.715   4.380   4.157
63604SOL    HW292710   1.623   4.498   4.130
63605SOL     OW92711   0.182   3.739   2.718
63605SOL    HW192712   0.245   3.732   2.647
63605SOL    HW292713   0.221   3.801   2.779
63606SOL     OW92714   6.731   3.608  14.388
63606SOL    HW192715   6.703   3.529  14.343
63606SOL    HW292716   6.716   3.589  14.481
63607SOL     OW92717   6.889   0.046   8.618
63607SOL    HW192718   6.826   0.007   8.679
63607SOL    HW292719   6.862   0.137   8.612
63608SOL     OW92720   6.533  12.430   8.950
63608SOL    HW192721   6.589  12.506   8.933
63608SOL    HW292722   6.528  12.385   8.865
63609SOL     OW92723   0.220   9.838   1.334
63609SOL    HW192724   0.240   9.767   1.273
63609SOL    HW292725   0.271   9.816   1.413
63610SOL     OW92726   4.509  10.288  11.391
63610SOL    HW192727   4.535  10.196  11.391
63610SOL    HW292728   4.591  10.335  11.372
63611SOL     OW92729   2.912   6.594  14.294
63611SOL    HW192730   2.931   6.677  14.339
63611SOL    HW292731   2.905   6.618  14.202
63612SOL     OW92732   3.654  11.898   5.493
63612SOL    HW192733   3.736  11.923   5.535
63612SOL    HW292734   3.614  11.980   5.467
63613SOL     OW92735  12.527   3.464   4.534
63613SOL    HW192736  12.484   3.465   4.449
63613SOL    HW292737  12.472   3.521   4.589
63614SOL     OW92738  11.849   0.419  11.212
63614SOL    HW192739  11.837   0.494  11.155
63614SOL    HW292740  11.938   0.389  11.194
63615SOL     OW92741  12.502   9.280   7.531
63615SOL    HW192742  12.556   9.325   7.596
63615SOL    HW292743  12.466   9.205   7.578
63616SOL     OW92744   2.016   4.939  11.901
63616SOL    HW192745   1.957   4.871  11.932
63616SOL    HW292746   1.961   4.995  11.846
63617SOL     OW92747  14.280   5.653  10.625
63617SOL    HW192748  14.236   5.568  10.629
63617SOL    HW292749  14.372   5.632  10.640
63618SOL     OW92750   5.572  12.411   3.524
63618SOL    HW192751   5.667  12.414   3.513
63618SOL    HW292752   5.542  12.350   3.457
63619SOL     OW92753   1.954   0.537   0.931
63619SOL    HW192754   1.904   0.611   0.897
63619SOL    HW292755   1.972   0.482   0.854
63620SOL     OW92756   5.987  14.117  11.855
63620SOL    HW192757   5.933  14.039  11.867
63620SOL    HW292758   5.943  14.166  11.785
63621SOL     OW92759   4.987   8.441   5.122
63621SOL    HW192760   4.986   8.528   5.160
63621SOL    HW292761   5.023   8.453   5.034
63622SOL     OW92762   0.599   3.139  13.758
63622SOL    HW192763   0.504   3.126  13.751
63622SOL    HW292764   0.622   3.100  13.843
63623SOL     OW92765   0.982   8.569   5.307
63623SOL    HW192766   0.921   8.578   5.234
63623SOL    HW292767   1.027   8.653   5.312
63624SOL     OW92768   6.536   1.182   0.699
63624SOL    HW192769   6.587   1.147   0.772
63624SOL    HW292770   6.464   1.120   0.688
63625SOL     OW92771   1.875   6.408   8.359
63625SOL    HW192772   1.928   6.332   8.383
63625SOL    HW292773   1.935   6.482   8.364
63626SOL     OW92774  14.732   9.554  10.907
63626SOL    HW192775  14.705   9.600  10.827
63626SOL    HW292776  14.825   9.573  10.915
63627SOL     OW92777   8.935   0.743   4.175
63627SOL    HW192778   9.012   0.792   4.148
63627SOL    HW292779   8.861   0.788   4.133
63628SOL     OW92780   2.873   8.942  12.834
63628SOL    HW192781   2.935   8.876  12.864
63628SOL    HW292782   2.863   8.925  12.740
63629SOL     OW92783   6.296   9.276   5.901
63629SOL    HW192784   6.290   9.220   5.824
63629SOL    HW292785   6.205   9.293   5.926
63630SOL     OW92786  13.708   5.511   0.123
63630SOL    HW192787  13.719   5.592   0.173
63630SOL    HW292788  13.614   5.505   0.107
63631SOL     OW92789   3.503   0.750   9.714
63631SOL    HW192790   3.505   0.693   9.637
63631SOL    HW292791   3.595   0.763   9.736
63632SOL     OW92792   4.157   1.273   3.866
63632SOL    HW192793   4.191   1.334   3.800
63632SOL    HW292794   4.235   1.240   3.910
63633SOL     OW92795  10.447   5.371   9.254
63633SOL    HW192796  10.371   5.316   9.272
63633SOL    HW292797  10.500   5.319   9.193
63634SOL     OW92798   5.286  11.546   8.531
63634SOL    HW192799   5.359  11.587   8.485
63634SOL    HW292800   5.326  11.506   8.609
63635SOL     OW92801  10.957  10.408  11.401
63635SOL    HW192802  11.042  10.397  11.357
63635SOL    HW292803  10.958  10.344  11.471
63636SOL     OW92804  14.781   4.133   8.917
63636SOL    HW192805  14.801   4.135   8.823
63636SOL    HW292806  14.723   4.208   8.931
63637SOL     OW92807  10.995  13.663   8.165
63637SOL    HW192808  11.035  13.730   8.111
63637SOL    HW292809  11.029  13.679   8.253
63638SOL     OW92810  11.510   9.383   3.621
63638SOL    HW192811  11.432   9.378   3.565
63638SOL    HW292812  11.578   9.339   3.570
63639SOL     OW92813   1.655   1.617   6.033
63639SOL    HW192814   1.685   1.561   6.105
63639SOL    HW292815   1.732   1.671   6.012
63640SOL     OW92816  13.900  11.538   3.149
63640SOL    HW192817  13.809  11.551   3.175
63640SOL    HW292818  13.925  11.454   3.188
63641SOL     OW92819   4.781   1.081   3.786
63641SOL    HW192820   4.777   1.056   3.694
63641SOL    HW292821   4.874   1.076   3.809
63642SOL     OW92822   5.066   5.976   6.340
63642SOL    HW192823   5.160   5.960   6.334
63642SOL    HW292824   5.034   5.962   6.251
63643SOL     OW92825   1.136   3.131   4.149
63643SOL    HW192826   1.067   3.192   4.178
63643SOL    HW292827   1.218   3.174   4.175
63644SOL     OW92828   2.573   8.883   9.307
63644SOL    HW192829   2.650   8.938   9.321
63644SOL    HW292830   2.575   8.862   9.214
63645SOL     OW92831   2.075   4.132   3.010
63645SOL    HW192832   2.159   4.178   3.019
63645SOL    HW292833   2.096   4.041   3.029
63646SOL     OW92834   3.249  10.727   5.463
63646SOL    HW192835   3.189  10.768   5.401
63646SOL    HW292836   3.334  10.730   5.420
63647SOL     OW92837   3.446  10.764   2.477
63647SOL    HW192838   3.468  10.673   2.495
63647SOL    HW292839   3.493  10.814   2.543
63648SOL     OW92840  13.028  11.905   5.674
63648SOL    HW192841  13.089  11.972   5.641
63648SOL    HW292842  13.043  11.829   5.618
63649SOL     OW92843   4.642   6.640   1.543
63649SOL    HW192844   4.737   6.636   1.536
63649SOL    HW292845   4.620   6.732   1.523
63650SOL     OW92846   5.085   2.289  12.964
63650SOL    HW192847   5.018   2.334  12.912
63650SOL    HW292848   5.061   2.307  13.055
63651SOL     OW92849  14.450  14.817  10.454
63651SOL    HW192850  14.495  14.733  10.461
63651SOL    HW292851  14.446  14.834  10.360
63652SOL     OW92852   3.389   7.729  10.686
63652SOL    HW192853   3.380   7.817  10.650
63652SOL    HW292854   3.470   7.695  10.648
63653SOL     OW92855   3.158   6.584   0.111
63653SOL    HW192856   3.149   6.605   0.204
63653SOL    HW292857   3.244   6.619   0.087
63654SOL     OW92858   6.333   0.316   9.852
63654SOL    HW192859   6.346   0.237   9.800
63654SOL    HW292860   6.278   0.287   9.925
63655SOL     OW92861   4.001   1.550  13.417
63655SOL    HW192862   3.959   1.600  13.487
63655SOL    HW292863   3.950   1.570  13.339
63656SOL     OW92864  11.064   3.365   6.439
63656SOL    HW192865  11.058   3.303   6.366
63656SOL    HW292866  11.157   3.385   6.446
63657SOL     OW92867   0.846   0.048  13.153
63657SOL    HW192868   0.886   0.018  13.072
63657SOL    HW292869   0.827   0.140  13.138
63658SOL     OW92870   7.465   7.586   1.060
63658SOL    HW192871   7.470   7.679   1.039
63658SOL    HW292872   7.519   7.543   0.995
63659SOL     OW92873   7.803   5.360   6.858
63659SOL    HW192874   7.898   5.368   6.852
63659SOL    HW292875   7.769   5.424   6.796
63660SOL     OW92876  14.343   3.382   6.828
63660SOL    HW192877  14.309   3.443   6.893
63660SOL    HW292878  14.383   3.312   6.880
63661SOL     OW92879   9.736   1.247  12.314
63661SOL    HW192880   9.799   1.200  12.369
63661SOL    HW292881   9.666   1.273  12.374
63662SOL     OW92882  13.536  13.788  14.749
63662SOL    HW192883  13.545  13.842  14.827
63662SOL    HW292884  13.475  13.719  14.774
63663SOL     OW92885   7.767  14.812   9.539
63663SOL    HW192886   7.837  14.835   9.599
63663SOL    HW292887   7.809  14.808   9.453
63664SOL     OW92888  10.762   5.088   0.324
63664SOL    HW192889  10.790   5.006   0.365
63664SOL    HW292890  10.831   5.108   0.260
63665SOL     OW92891  13.981   7.814   9.228
63665SOL    HW192892  13.915   7.746   9.220
63665SOL    HW292893  13.985   7.832   9.322
63666SOL     OW92894   9.004   2.829  10.054
63666SOL    HW192895   8.978   2.787   9.972
63666SOL    HW292896   8.924   2.830  10.106
63667SOL     OW92897  10.073   6.095  14.437
63667SOL    HW192898  10.108   6.126  14.353
63667SOL    HW292899   9.987   6.136  14.443
63668SOL     OW92900   8.382   9.722   0.534
63668SOL    HW192901   8.294   9.758   0.528
63668SOL    HW292902   8.389   9.662   0.459
63669SOL     OW92903   6.168   8.143   3.090
63669SOL    HW192904   6.135   8.079   3.027
63669SOL    HW292905   6.259   8.157   3.065
63670SOL     OW92906  13.235   9.072   8.550
63670SOL    HW192907  13.258   9.137   8.617
63670SOL    HW292908  13.233   8.989   8.597
63671SOL     OW92909  10.937   9.502   7.386
63671SOL    HW192910  10.843   9.496   7.405
63671SOL    HW292911  10.978   9.449   7.455
63672SOL     OW92912  11.344  10.015   7.577
63672SOL    HW192913  11.298  10.002   7.659
63672SOL    HW292914  11.338   9.931   7.532
63673SOL     OW92915  11.597   2.378  13.069
63673SOL    HW192916  11.685   2.340  13.072
63673SOL    HW292917  11.576   2.384  12.976
63674SOL     OW92918  11.276   4.483   1.126
63674SOL    HW192919  11.256   4.559   1.072
63674SOL    HW292920  11.326   4.517   1.200
63675SOL     OW92921   6.602  13.432   1.055
63675SOL    HW192922   6.697  13.434   1.067
63675SOL    HW292923   6.588  13.472   0.969
63676SOL     OW92924   6.617   6.350  12.939
63676SOL    HW192925   6.689   6.286  12.943
63676SOL    HW292926   6.659   6.433  12.958
63677SOL     OW92927   8.662  14.263  10.331
63677SOL    HW192928   8.647  14.313  10.411
63677SOL    HW292929   8.592  14.291  10.272
63678SOL     OW92930  12.974   4.223   6.503
63678SOL    HW192931  12.997   4.257   6.589
63678SOL    HW292932  12.883   4.251   6.489
63679SOL     OW92933   1.337  11.332   6.646
63679SOL    HW192934   1.363  11.370   6.730
63679SOL    HW292935   1.314  11.407   6.592
63680SOL     OW92936   5.587  11.217  12.097
63680SOL    HW192937   5.592  11.309  12.125
63680SOL    HW292938   5.511  11.214  12.038
63681SOL     OW92939   3.693  10.200   2.291
63681SOL    HW192940   3.628  10.135   2.318
63681SOL    HW292941   3.748  10.213   2.368
63682SOL     OW92942  11.110   5.471   1.448
63682SOL    HW192943  11.046   5.421   1.397
63682SOL    HW292944  11.082   5.562   1.438
63683SOL     OW92945  11.209  12.577  12.276
63683SOL    HW192946  11.115  12.580  12.257
63683SOL    HW292947  11.244  12.513  12.214
63684SOL     OW92948  14.574   4.175   1.888
63684SOL    HW192949  14.609   4.140   1.971
63684SOL    HW292950  14.632   4.138   1.821
63685SOL     OW92951  13.660   6.942  14.159
63685SOL    HW192952  13.621   6.908  14.078
63685SOL    HW292953  13.585   6.955  14.218
63686SOL     OW92954   6.735   8.593   2.875
63686SOL    HW192955   6.701   8.516   2.830
63686SOL    HW292956   6.736   8.662   2.809
63687SOL     OW92957  10.486  13.245  13.504
63687SOL    HW192958  10.413  13.299  13.473
63687SOL    HW292959  10.534  13.302  13.564
63688SOL     OW92960   7.707   9.627   6.569
63688SOL    HW192961   7.614   9.614   6.553
63688SOL    HW292962   7.711   9.677   6.650
63689SOL     OW92963   6.161   4.113   4.916
63689SOL    HW192964   6.232   4.117   4.979
63689SOL    HW292965   6.158   4.200   4.877
63690SOL     OW92966   9.785   0.766   5.548
63690SOL    HW192967   9.736   0.684   5.559
63690SOL    HW292968   9.761   0.819   5.624
63691SOL     OW92969  14.501   2.884  11.825
63691SOL    HW192970  14.555   2.809  11.800
63691SOL    HW292971  14.564   2.955  11.839
63692SOL     OW92972   1.482   1.779   8.666
63692SOL    HW192973   1.428   1.856   8.683
63692SOL    HW292974   1.449   1.745   8.583
63693SOL     OW92975  13.444   3.743  14.694
63693SOL    HW192976  13.393   3.663  14.706
63693SOL    HW292977  13.420   3.798  14.769
63694SOL     OW92978  10.438   8.716   0.675
63694SOL    HW192979  10.492   8.758   0.742
63694SOL    HW292980  10.351   8.712   0.714
63695SOL     OW92981  12.786   0.089   1.020
63695SOL    HW192982  12.698   0.088   1.059
63695SOL    HW292983  12.802  14.869   0.998
63696SOL     OW92984  14.667   3.535   3.844
63696SOL    HW192985  14.656   3.600   3.913
63696SOL    HW292986  14.612   3.566   3.772
63697SOL     OW92987   7.190  13.291  12.544
63697SOL    HW192988   7.098  13.272  12.564
63697SOL    HW292989   7.206  13.243  12.463
63698SOL     OW92990  12.806   6.826   7.013
63698SOL    HW192991  12.769   6.914   7.025
63698SOL    HW292992  12.901   6.841   7.006
63699SOL     OW92993   3.901   9.949  10.423
63699SOL    HW192994   3.980   9.944  10.476
63699SOL    HW292995   3.911   9.879  10.358
63700SOL     OW92996  13.396   6.734   6.024
63700SOL    HW192997  13.324   6.673   6.038
63700SOL    HW292998  13.379   6.806   6.085
63701SOL     OW92999   3.546   6.633   9.536
63701SOL    HW193000   3.636   6.609   9.511
63701SOL    HW293001   3.555   6.720   9.576
63702SOL     OW93002   0.610   1.178  13.260
63702SOL    HW193003   0.698   1.213  13.247
63702SOL    HW293004   0.625   1.091  13.299
63703SOL     OW93005   5.829   6.702  10.225
63703SOL    HW193006   5.831   6.706  10.321
63703SOL    HW293007   5.788   6.784  10.198
63704SOL     OW93008   4.642  11.661  10.027
63704SOL    HW193009   4.565  11.662  10.085
63704SOL    HW293010   4.716  11.677  10.086
63705SOL     OW93011   8.137   1.119  11.754
63705SOL    HW193012   8.229   1.110  11.777
63705SOL    HW293013   8.098   1.164  11.829
63706SOL     OW93014  14.060  13.193   8.215
63706SOL    HW193015  14.131  13.250   8.246
63706SOL    HW293016  14.039  13.138   8.290
63707SOL     OW93017   1.249   1.246   3.154
63707SOL    HW193018   1.245   1.151   3.162
63707SOL    HW293019   1.170   1.278   3.197
63708SOL     OW93020   5.791   2.776  10.192
63708SOL    HW193021   5.871   2.767  10.245
63708SOL    HW293022   5.821   2.814  10.110
63709SOL     OW93023   8.436   6.706   5.926
63709SOL    HW193024   8.521   6.749   5.929
63709SOL    HW293025   8.448   6.632   5.867
63710SOL     OW93026  13.022   1.636   3.091
63710SOL    HW193027  13.019   1.638   2.995
63710SOL    HW293028  12.933   1.660   3.118
63711SOL     OW93029   3.704   1.705   6.106
63711SOL    HW193030   3.700   1.745   6.193
63711SOL    HW293031   3.779   1.746   6.063
63712SOL     OW93032   6.650   4.084   1.561
63712SOL    HW193033   6.671   4.030   1.484
63712SOL    HW293034   6.555   4.080   1.567
63713SOL     OW93035  12.978   0.799   0.521
63713SOL    HW193036  12.883   0.807   0.531
63713SOL    HW293037  13.012   0.886   0.538
63714SOL     OW93038  12.298  14.560  14.703
63714SOL    HW193039  12.242  14.633  14.729
63714SOL    HW293040  12.248  14.514  14.636
63715SOL     OW93041   2.810   0.406   1.449
63715SOL    HW193042   2.745   0.396   1.379
63715SOL    HW293043   2.796   0.494   1.483
63716SOL     OW93044   5.605   2.379   6.031
63716SOL    HW193045   5.567   2.346   6.112
63716SOL    HW293046   5.623   2.300   5.980
63717SOL     OW93047   7.292  10.731   8.613
63717SOL    HW193048   7.245  10.649   8.596
63717SOL    HW293049   7.384  10.704   8.621
63718SOL     OW93050  14.489   6.091   6.814
63718SOL    HW193051  14.531   6.025   6.758
63718SOL    HW293052  14.401   6.057   6.830
63719SOL     OW93053  13.894   8.985  13.869
63719SOL    HW193054  13.860   9.073  13.884
63719SOL    HW293055  13.846   8.930  13.929
63720SOL     OW93056  10.166   9.824  13.418
63720SOL    HW193057  10.192   9.736  13.392
63720SOL    HW293058  10.143   9.816  13.511
63721SOL     OW93059  12.618   3.894   2.264
63721SOL    HW193060  12.675   3.828   2.225
63721SOL    HW293061  12.569   3.930   2.190
63722SOL     OW93062  12.325   8.205   1.295
63722SOL    HW193063  12.253   8.203   1.358
63722SOL    HW293064  12.357   8.115   1.292
63723SOL     OW93065  12.753   0.322   3.711
63723SOL    HW193066  12.693   0.303   3.783
63723SOL    HW293067  12.710   0.286   3.634
63724SOL     OW93068  11.077   0.129  11.655
63724SOL    HW193069  10.985   0.151  11.674
63724SOL    HW293070  11.114   0.211  11.622
63725SOL     OW93071   9.600   2.879   1.593
63725SOL    HW193072   9.590   2.957   1.538
63725SOL    HW293073   9.694   2.876   1.613
63726SOL     OW93074  10.835   3.325  13.437
63726SOL    HW193075  10.775   3.349  13.508
63726SOL    HW293076  10.885   3.405  13.420
63727SOL     OW93077   5.664   8.997  10.980
63727SOL    HW193078   5.616   9.007  10.898
63727SOL    HW293079   5.743   9.050  10.969
63728SOL     OW93080   1.081  12.800   2.346
63728SOL    HW193081   1.000  12.851   2.354
63728SOL    HW293082   1.109  12.814   2.255
63729SOL     OW93083   4.134  14.447  13.432
63729SOL    HW193084   4.105  14.445  13.523
63729SOL    HW293085   4.229  14.453  13.438
63730SOL     OW93086   6.249   3.069   2.015
63730SOL    HW193087   6.247   3.154   1.971
63730SOL    HW293088   6.178   3.074   2.080
63731SOL     OW93089   1.835   5.945   0.830
63731SOL    HW193090   1.888   5.930   0.753
63731SOL    HW293091   1.850   6.037   0.853
63732SOL     OW93092   4.353   4.090   2.083
63732SOL    HW193093   4.422   4.136   2.129
63732SOL    HW293094   4.364   3.998   2.107
63733SOL     OW93095  14.648  13.894  10.404
63733SOL    HW193096  14.574  13.931  10.451
63733SOL    HW293097  14.689  13.833  10.466
63734SOL     OW93098   4.360  10.260   2.830
63734SOL    HW193099   4.367  10.281   2.923
63734SOL    HW293100   4.430  10.197   2.814
63735SOL     OW93101   6.736   8.105   0.988
63735SOL    HW193102   6.768   8.023   0.949
63735SOL    HW293103   6.742   8.169   0.918
63736SOL     OW93104  12.754   1.738   3.045
63736SOL    HW193105  12.735   1.832   3.036
63736SOL    HW293106  12.730   1.700   2.961
63737SOL     OW93107  13.348   6.898   4.971
63737SOL    HW193108  13.409   6.918   4.900
63737SOL    HW293109  13.267   6.871   4.927
63738SOL     OW93110   8.268  11.536  14.345
63738SOL    HW193111   8.185  11.491  14.359
63738SOL    HW293112   8.316  11.523  14.427
63739SOL     OW93113  12.598   7.972  10.727
63739SOL    HW193114  12.651   8.045  10.756
63739SOL    HW293115  12.548   8.006  10.652
63740SOL     OW93116   2.709   6.501   6.543
63740SOL    HW193117   2.783   6.537   6.493
63740SOL    HW293118   2.746   6.426   6.589
63741SOL     OW93119   2.792   3.321   4.290
63741SOL    HW193120   2.788   3.391   4.225
63741SOL    HW293121   2.879   3.283   4.279
63742SOL     OW93122  13.405   3.688  10.604
63742SOL    HW193123  13.362   3.684  10.690
63742SOL    HW293124  13.441   3.776  10.600
63743SOL     OW93125   7.318   4.748  13.454
63743SOL    HW193126   7.294   4.820  13.512
63743SOL    HW293127   7.378   4.787  13.391
63744SOL     OW93128   7.385   9.924   1.195
63744SOL    HW193129   7.449   9.951   1.129
63744SOL    HW293130   7.302   9.915   1.146
63745SOL     OW93131  10.544  11.043  10.541
63745SOL    HW193132  10.596  11.094  10.602
63745SOL    HW293133  10.563  10.952  10.564
63746SOL     OW93134  14.403  10.063   9.674
63746SOL    HW193135  14.486  10.018   9.688
63746SOL    HW293136  14.414  10.148   9.717
63747SOL     OW93137  10.346  10.176   9.190
63747SOL    HW193138  10.271  10.121   9.213
63747SOL    HW293139  10.307  10.260   9.165
63748SOL     OW93140  13.565  12.080   5.341
63748SOL    HW193141  13.624  12.138   5.294
63748SOL    HW293142  13.615  12.049   5.416
63749SOL     OW93143  13.068  14.059   8.984
63749SOL    HW193144  13.117  14.130   8.941
63749SOL    HW293145  13.129  13.986   8.986
63750SOL     OW93146   9.820   5.499   5.981
63750SOL    HW193147   9.793   5.457   6.062
63750SOL    HW293148   9.761   5.575   5.973
63751SOL     OW93149   9.305   2.671  10.569
63751SOL    HW193150   9.243   2.636  10.505
63751SOL    HW293151   9.313   2.603  10.635
63752SOL     OW93152   0.366   3.708   6.676
63752SOL    HW193153   0.423   3.660   6.617
63752SOL    HW293154   0.289   3.651   6.686
63753SOL     OW93155   3.246   7.480   7.099
63753SOL    HW193156   3.209   7.408   7.149
63753SOL    HW293157   3.340   7.479   7.121
63754SOL     OW93158   8.600  11.959   8.763
63754SOL    HW193159   8.662  12.032   8.762
63754SOL    HW293160   8.568  11.955   8.853
63755SOL     OW93161  10.813   5.958   6.201
63755SOL    HW193162  10.758   5.883   6.221
63755SOL    HW293163  10.890   5.921   6.159
63756SOL     OW93164   0.449   4.954  10.445
63756SOL    HW193165   0.417   5.041  10.467
63756SOL    HW293166   0.460   4.910  10.530
63757SOL     OW93167   0.097   8.657   1.771
63757SOL    HW193168   0.083   8.700   1.855
63757SOL    HW293169   0.091   8.563   1.791
63758SOL     OW93170   1.410  10.174   0.756
63758SOL    HW193171   1.429  10.147   0.846
63758SOL    HW293172   1.352  10.249   0.764
63759SOL     OW93173  14.612  11.812   1.891
63759SOL    HW193174  14.669  11.747   1.932
63759SOL    HW293175  14.672  11.870   1.843
63760SOL     OW93176  12.111   1.889   3.753
63760SOL    HW193177  12.199   1.917   3.781
63760SOL    HW293178  12.126   1.847   3.668
63761SOL     OW93179   8.584  13.665   1.356
63761SOL    HW193180   8.582  13.760   1.349
63761SOL    HW293181   8.626  13.636   1.274
63762SOL     OW93182  13.289   2.106   2.158
63762SOL    HW193183  13.322   2.053   2.231
63762SOL    HW293184  13.218   2.054   2.120
63763SOL     OW93185   1.980  11.588   2.863
63763SOL    HW193186   1.960  11.499   2.891
63763SOL    HW293187   1.993  11.637   2.944
63764SOL     OW93188   3.103  12.460  12.180
63764SOL    HW193189   3.190  12.443  12.144
63764SOL    HW293190   3.044  12.407  12.127
63765SOL     OW93191   6.150  13.105   1.717
63765SOL    HW193192   6.196  13.165   1.776
63765SOL    HW293193   6.139  13.025   1.769
63766SOL     OW93194  13.682   7.656   6.745
63766SOL    HW193195  13.728   7.688   6.668
63766SOL    HW293196  13.610   7.718   6.758
63767SOL     OW93197   0.235   5.659  14.697
63767SOL    HW193198   0.255   5.718  14.625
63767SOL    HW293199   0.167   5.705  14.747
63768SOL     OW93200   9.501  12.984  12.770
63768SOL    HW193201   9.422  12.949  12.809
63768SOL    HW293202   9.539  12.910  12.722
63769SOL     OW93203  12.529   1.439  10.638
63769SOL    HW193204  12.530   1.532  10.661
63769SOL    HW293205  12.622   1.414  10.636
63770SOL     OW93206   3.468  12.183   1.640
63770SOL    HW193207   3.505  12.262   1.599
63770SOL    HW293208   3.508  12.179   1.726
63771SOL     OW93209   6.030   0.582   7.605
63771SOL    HW193210   5.983   0.560   7.524
63771SOL    HW293211   5.983   0.658   7.639
63772SOL     OW93212   4.631  11.002   3.372
63772SOL    HW193213   4.649  10.994   3.279
63772SOL    HW293214   4.673  11.084   3.397
63773SOL     OW93215   3.135   3.823   0.597
63773SOL    HW193216   3.163   3.748   0.649
63773SOL    HW293217   3.092   3.785   0.520
63774SOL     OW93218   3.827   1.101  10.825
63774SOL    HW193219   3.833   1.192  10.853
63774SOL    HW293220   3.915   1.080  10.792
63775SOL     OW93221   5.146   9.971  12.091
63775SOL    HW193222   5.154  10.065  12.109
63775SOL    HW293223   5.132   9.931  12.177
63776SOL     OW93224   9.453  13.020   1.684
63776SOL    HW193225   9.520  12.982   1.740
63776SOL    HW293226   9.385  13.050   1.744
63777SOL     OW93227   7.656   9.425   1.527
63777SOL    HW193228   7.709   9.387   1.457
63777SOL    HW293229   7.565   9.411   1.499
63778SOL     OW93230   0.160   2.875   7.972
63778SOL    HW193231   0.074   2.898   8.008
63778SOL    HW293232   0.205   2.830   8.043
63779SOL     OW93233   2.989   6.493   2.783
63779SOL    HW193234   2.899   6.478   2.754
63779SOL    HW293235   2.996   6.589   2.787
63780SOL     OW93236  14.067   2.922   4.120
63780SOL    HW193237  14.089   3.001   4.070
63780SOL    HW293238  14.014   2.954   4.193
63781SOL     OW93239   6.582  12.601  10.073
63781SOL    HW193240   6.534  12.546  10.011
63781SOL    HW293241   6.545  12.689  10.060
63782SOL     OW93242   8.160   7.944   1.642
63782SOL    HW193243   8.079   7.916   1.600
63782SOL    HW293244   8.157   8.040   1.638
63783SOL     OW93245  10.281   2.494  14.866
63783SOL    HW193246  10.222   2.544   0.051
63783SOL    HW293247  10.344   2.455   0.055
63784SOL     OW93248  13.676   7.165   1.295
63784SOL    HW193249  13.710   7.083   1.258
63784SOL    HW293250  13.656   7.143   1.386
63785SOL     OW93251   8.155  13.792   9.929
63785SOL    HW193252   8.167  13.743   9.848
63785SOL    HW293253   8.208  13.871   9.918
63786SOL     OW93254   4.237  12.706   2.124
63786SOL    HW193255   4.201  12.672   2.042
63786SOL    HW293256   4.329  12.724   2.103
63787SOL     OW93257   1.104  10.614   5.098
63787SOL    HW193258   1.067  10.652   5.018
63787SOL    HW293259   1.150  10.686   5.140
63788SOL     OW93260   9.669   9.646   3.027
63788SOL    HW193261   9.597   9.665   3.087
63788SOL    HW293262   9.638   9.572   2.975
63789SOL     OW93263   8.377   2.982  10.761
63789SOL    HW193264   8.305   3.020  10.710
63789SOL    HW293265   8.378   2.890  10.734
63790SOL     OW93266   2.939   4.996   3.621
63790SOL    HW193267   2.889   5.072   3.651
63790SOL    HW293268   2.915   4.986   3.529
63791SOL     OW93269   3.263  14.796   7.563
63791SOL    HW193270   3.318  14.719   7.546
63791SOL    HW293271   3.207  14.802   7.486
63792SOL     OW93272  11.707   7.955   4.473
63792SOL    HW193273  11.786   7.902   4.486
63792SOL    HW293274  11.739   8.034   4.430
63793SOL     OW93275  11.243   9.134  13.101
63793SOL    HW193276  11.334   9.104  13.099
63793SOL    HW293277  11.233   9.185  13.020
63794SOL     OW93278   6.495   5.366   5.981
63794SOL    HW193279   6.486   5.442   5.922
63794SOL    HW293280   6.472   5.400   6.067
63795SOL     OW93281   8.250  12.917   4.923
63795SOL    HW193282   8.245  13.006   4.958
63795SOL    HW293283   8.324  12.920   4.862
63796SOL     OW93284   5.106   1.304  11.137
63796SOL    HW193285   5.156   1.277  11.059
63796SOL    HW293286   5.149   1.258  11.210
63797SOL     OW93287   9.895  11.842   3.042
63797SOL    HW193288   9.869  11.766   2.990
63797SOL    HW293289   9.987  11.826   3.062
63798SOL     OW93290  14.619   2.471   3.380
63798SOL    HW193291  14.549   2.535   3.394
63798SOL    HW293292  14.680   2.514   3.321
63799SOL     OW93293   3.987   3.394   4.866
63799SOL    HW193294   4.063   3.338   4.849
63799SOL    HW293295   3.911   3.340   4.844
63800SOL     OW93296   2.396   9.444   4.802
63800SOL    HW193297   2.319   9.500   4.798
63800SOL    HW293298   2.363   9.359   4.831
63801SOL     OW93299   3.644  13.122   7.069
63801SOL    HW193300   3.551  13.140   7.063
63801SOL    HW293301   3.680  13.195   7.119
63802SOL     OW93302   7.050   5.270  14.116
63802SOL    HW193303   7.016   5.346  14.163
63802SOL    HW293304   7.015   5.195  14.164
63803SOL     OW93305  12.845   3.472   0.312
63803SOL    HW193306  12.890   3.388   0.316
63803SOL    HW293307  12.860   3.504   0.223
63804SOL     OW93308  14.187   2.578   6.478
63804SOL    HW193309  14.261   2.593   6.420
63804SOL    HW293310  14.226   2.569   6.565
63805SOL     OW93311   1.335   8.843   2.030
63805SOL    HW193312   1.339   8.777   2.099
63805SOL    HW293313   1.242   8.864   2.021
63806SOL     OW93314  12.409   9.340   4.619
63806SOL    HW193315  12.387   9.285   4.543
63806SOL    HW293316  12.484   9.392   4.590
63807SOL     OW93317   8.124   9.990  11.691
63807SOL    HW193318   8.057  10.035  11.742
63807SOL    HW293319   8.204   9.998  11.743
63808SOL     OW93320   3.636   5.580   4.876
63808SOL    HW193321   3.603   5.667   4.899
63808SOL    HW293322   3.633   5.578   4.780
63809SOL     OW93323  14.798   8.610  13.211
63809SOL    HW193324  14.744   8.550  13.262
63809SOL    HW293325  14.771   8.697  13.240
63810SOL     OW93326  12.202  10.722   6.819
63810SOL    HW193327  12.197  10.808   6.777
63810SOL    HW293328  12.263  10.672   6.765
63811SOL     OW93329  11.117   2.019   5.567
63811SOL    HW193330  11.139   2.111   5.581
63811SOL    HW293331  11.163   1.973   5.638
63812SOL     OW93332   3.570   4.896  10.994
63812SOL    HW193333   3.656   4.887  10.954
63812SOL    HW293334   3.511   4.850  10.935
63813SOL     OW93335   4.304  13.376   8.142
63813SOL    HW193336   4.283  13.384   8.049
63813SOL    HW293337   4.244  13.309   8.175
63814SOL     OW93338   3.510  14.623   3.694
63814SOL    HW193339   3.605  14.629   3.703
63814SOL    HW293340   3.475  14.686   3.758
63815SOL     OW93341   4.827  12.336  13.725
63815SOL    HW193342   4.813  12.393  13.801
63815SOL    HW293343   4.758  12.270  13.732
63816SOL     OW93344   0.818   4.692  14.160
63816SOL    HW193345   0.789   4.767  14.212
63816SOL    HW293346   0.908   4.713  14.136
63817SOL     OW93347   8.960  14.012   4.950
63817SOL    HW193348   9.010  14.055   4.881
63817SOL    HW293349   9.016  13.940   4.980
63818SOL     OW93350  14.189   1.608   0.876
63818SOL    HW193351  14.239   1.631   0.798
63818SOL    HW293352  14.208   1.515   0.890
63819SOL     OW93353   8.759   4.813   8.935
63819SOL    HW193354   8.764   4.871   8.858
63819SOL    HW293355   8.666   4.809   8.955
63820SOL     OW93356   9.506   7.447   0.818
63820SOL    HW193357   9.587   7.462   0.769
63820SOL    HW293358   9.448   7.402   0.757
63821SOL     OW93359   3.088  13.904   7.200
63821SOL    HW193360   3.172  13.891   7.156
63821SOL    HW293361   3.083  13.833   7.263
63822SOL     OW93362  12.495   9.352   5.986
63822SOL    HW193363  12.414   9.376   6.031
63822SOL    HW293364  12.564   9.395   6.036
63823SOL     OW93365   9.366   1.129   7.377
63823SOL    HW193366   9.359   1.066   7.449
63823SOL    HW293367   9.376   1.214   7.420
63824SOL     OW93368  14.118  11.755   2.301
63824SOL    HW193369  14.126  11.758   2.397
63824SOL    HW293370  14.075  11.671   2.284
63825SOL     OW93371  11.716   2.019   5.074
63825SOL    HW193372  11.666   2.096   5.045
63825SOL    HW293373  11.655   1.971   5.129
63826SOL     OW93374   1.006   4.765   3.093
63826SOL    HW193375   1.004   4.761   2.997
63826SOL    HW293376   1.093   4.733   3.117
63827SOL     OW93377   3.273  10.186   6.836
63827SOL    HW193378   3.287  10.103   6.882
63827SOL    HW293379   3.220  10.238   6.896
63828SOL     OW93380  11.673  11.228  10.261
63828SOL    HW193381  11.599  11.274  10.299
63828SOL    HW293382  11.649  11.214  10.169
63829SOL     OW93383   8.885  14.760   1.170
63829SOL    HW193384   8.980  14.749   1.166
63829SOL    HW293385   8.856  14.762   1.079
63830SOL     OW93386  12.698   3.792   4.385
63830SOL    HW193387  12.678   3.800   4.292
63830SOL    HW293388  12.631   3.845   4.429
63831SOL     OW93389  10.962   8.706   9.988
63831SOL    HW193390  10.987   8.621   9.951
63831SOL    HW293391  11.022   8.769   9.946
63832SOL     OW93392  11.425   0.766   0.663
63832SOL    HW193393  11.463   0.822   0.730
63832SOL    HW293394  11.334   0.794   0.657
63833SOL     OW93395  12.235   9.376   1.378
63833SOL    HW193396  12.238   9.330   1.462
63833SOL    HW293397  12.306   9.440   1.383
63834SOL     OW93398   7.838  13.409   3.065
63834SOL    HW193399   7.852  13.331   3.119
63834SOL    HW293400   7.749  13.399   3.031
63835SOL     OW93401   9.316   7.791   5.601
63835SOL    HW193402   9.320   7.764   5.693
63835SOL    HW293403   9.248   7.858   5.598
63836SOL     OW93404  14.433  10.349  11.868
63836SOL    HW193405  14.423  10.271  11.813
63836SOL    HW293406  14.366  10.409  11.837
63837SOL     OW93407   7.736   9.327   3.354
63837SOL    HW193408   7.819   9.278   3.350
63837SOL    HW293409   7.748   9.399   3.291
63838SOL     OW93410   4.268  10.322  13.939
63838SOL    HW193411   4.318  10.255  13.893
63838SOL    HW293412   4.178  10.290  13.938
63839SOL     OW93413   7.551  14.547  10.169
63839SOL    HW193414   7.459  14.523  10.172
63839SOL    HW293415   7.566  14.594  10.252
63840SOL     OW93416  11.450   4.673   3.121
63840SOL    HW193417  11.537   4.675   3.082
63840SOL    HW293418  11.391   4.664   3.046
63841SOL     OW93419   0.674   7.936   3.387
63841SOL    HW193420   0.622   7.932   3.468
63841SOL    HW293421   0.612   7.913   3.318
63842SOL     OW93422   7.111  12.754  10.459
63842SOL    HW193423   7.068  12.686  10.510
63842SOL    HW293424   7.043  12.787  10.400
63843SOL     OW93425  10.026   2.822  10.560
63843SOL    HW193426  10.085   2.815  10.485
63843SOL    HW293427   9.943   2.787  10.528
63844SOL     OW93428   5.967  10.175   0.894
63844SOL    HW193429   5.979  10.202   0.803
63844SOL    HW293430   5.977  10.256   0.945
63845SOL     OW93431  12.828  11.081  13.676
63845SOL    HW193432  12.884  11.028  13.733
63845SOL    HW293433  12.856  11.059  13.587
63846SOL     OW93434  10.776   0.403  10.265
63846SOL    HW193435  10.731   0.411  10.181
63846SOL    HW293436  10.717   0.349  10.318
63847SOL     OW93437   1.637   1.903   8.156
63847SOL    HW193438   1.724   1.922   8.123
63847SOL    HW293439   1.651   1.875   8.247
63848SOL     OW93440   1.828  10.313   3.718
63848SOL    HW193441   1.888  10.244   3.747
63848SOL    HW293442   1.847  10.387   3.776
63849SOL     OW93443   5.516   9.544   4.627
63849SOL    HW193444   5.596   9.549   4.574
63849SOL    HW293445   5.548   9.544   4.717
63850SOL     OW93446   6.741   6.911   1.089
63850SOL    HW193447   6.682   6.845   1.128
63850SOL    HW293448   6.829   6.878   1.109
63851SOL     OW93449   4.662   6.479   7.064
63851SOL    HW193450   4.678   6.401   7.118
63851SOL    HW293451   4.741   6.488   7.011
63852SOL     OW93452   1.288   7.426   3.765
63852SOL    HW193453   1.379   7.455   3.763
63852SOL    HW293454   1.266   7.424   3.859
63853SOL     OW93455   4.527   2.388   9.323
63853SOL    HW193456   4.621   2.385   9.339
63853SOL    HW293457   4.502   2.478   9.346
63854SOL     OW93458   6.965   8.440   1.980
63854SOL    HW193459   6.942   8.353   2.012
63854SOL    HW293460   6.948   8.437   1.886
63855SOL     OW93461   7.459   7.908   6.432
63855SOL    HW193462   7.389   7.858   6.389
63855SOL    HW293463   7.414   7.980   6.476
63856SOL     OW93464   3.270  14.435   2.227
63856SOL    HW193465   3.182  14.415   2.259
63856SOL    HW293466   3.262  14.522   2.189
63857SOL     OW93467   4.385  10.457   4.232
63857SOL    HW193468   4.421  10.427   4.315
63857SOL    HW293469   4.443  10.529   4.206
63858SOL     OW93470   7.833  12.975   2.452
63858SOL    HW193471   7.847  13.069   2.462
63858SOL    HW293472   7.783  12.967   2.371
63859SOL     OW93473   2.524   5.827   8.743
63859SOL    HW193474   2.620   5.827   8.735
63859SOL    HW293475   2.494   5.764   8.678
63860SOL     OW93476   1.376   1.874  10.435
63860SOL    HW193477   1.393   1.798  10.378
63860SOL    HW293478   1.431   1.943  10.399
63861SOL     OW93479  10.344  11.144   1.951
63861SOL    HW193480  10.323  11.236   1.942
63861SOL    HW293481  10.355  11.131   2.045
63862SOL     OW93482   3.777   3.728   1.729
63862SOL    HW193483   3.686   3.726   1.700
63862SOL    HW293484   3.781   3.802   1.789
63863SOL     OW93485   8.051  10.365   7.734
63863SOL    HW193486   8.128  10.314   7.759
63863SOL    HW293487   7.992  10.357   7.809
63864SOL     OW93488   6.626   9.659   5.625
63864SOL    HW193489   6.698   9.597   5.615
63864SOL    HW293490   6.644   9.727   5.560
63865SOL     OW93491   7.776   0.736   6.179
63865SOL    HW193492   7.690   0.696   6.175
63865SOL    HW293493   7.829   0.674   6.229
63866SOL     OW93494   4.594  10.805   6.204
63866SOL    HW193495   4.576  10.761   6.121
63866SOL    HW293496   4.528  10.771   6.264
63867SOL     OW93497  13.957   8.090   6.462
63867SOL    HW193498  13.991   8.079   6.374
63867SOL    HW293499  13.988   8.176   6.490
63868SOL     OW93500  10.014  10.535  10.082
63868SOL    HW193501   9.978  10.586  10.009
63868SOL    HW293502  10.058  10.461  10.040
63869SOL     OW93503   1.936   2.418   2.937
63869SOL    HW193504   1.883   2.343   2.967
63869SOL    HW293505   1.931   2.481   3.009
63870SOL     OW93506   6.075   5.631   9.361
63870SOL    HW193507   6.041   5.640   9.450
63870SOL    HW293508   6.169   5.647   9.369
63871SOL     OW93509  10.158   4.705  12.917
63871SOL    HW193510  10.120   4.794  12.916
63871SOL    HW293511  10.091   4.651  12.876
63872SOL     OW93512   4.092   1.740   8.609
63872SOL    HW193513   4.092   1.774   8.520
63872SOL    HW293514   4.010   1.690   8.616
63873SOL     OW93515   4.892  11.956  13.538
63873SOL    HW193516   4.970  11.902  13.550
63873SOL    HW293517   4.887  12.009  13.618
63874SOL     OW93518   2.172   1.998   1.133
63874SOL    HW193519   2.163   1.960   1.045
63874SOL    HW293520   2.087   1.983   1.174
63875SOL     OW93521  12.756  10.425   6.687
63875SOL    HW193522  12.852  10.421   6.685
63875SOL    HW293523  12.736  10.517   6.705
63876SOL     OW93524   1.969   9.537  13.748
63876SOL    HW193525   2.010   9.450  13.747
63876SOL    HW293526   2.028   9.590  13.802
63877SOL     OW93527   7.064  11.025  12.730
63877SOL    HW193528   7.105  11.008  12.645
63877SOL    HW293529   7.077  10.944  12.779
63878SOL     OW93530   6.346   3.886   7.131
63878SOL    HW193531   6.369   3.797   7.107
63878SOL    HW293532   6.399   3.941   7.071
63879SOL     OW93533   9.339   8.503  11.282
63879SOL    HW193534   9.411   8.442  11.266
63879SOL    HW293535   9.378   8.590  11.271
63880SOL     OW93536   1.549  13.464   3.179
63880SOL    HW193537   1.585  13.510   3.103
63880SOL    HW293538   1.475  13.415   3.144
63881SOL     OW93539   1.310   5.975   5.645
63881SOL    HW193540   1.350   5.964   5.559
63881SOL    HW293541   1.305   6.069   5.658
63882SOL     OW93542   9.539   3.085   4.409
63882SOL    HW193543   9.612   3.056   4.355
63882SOL    HW293544   9.579   3.136   4.479
63883SOL     OW93545   3.048  13.288   5.614
63883SOL    HW193546   3.029  13.358   5.676
63883SOL    HW293547   3.014  13.321   5.530
63884SOL     OW93548  14.799   2.987  10.494
63884SOL    HW193549  14.725   3.043  10.471
63884SOL    HW293550  14.856   3.043  10.547
63885SOL     OW93551  10.447   1.643   3.363
63885SOL    HW193552  10.462   1.557   3.327
63885SOL    HW293553  10.531   1.670   3.399
63886SOL     OW93554   4.022   3.012  10.074
63886SOL    HW193555   3.936   3.009  10.033
63886SOL    HW293556   4.020   3.092  10.128
63887SOL     OW93557  14.250   7.069  11.896
63887SOL    HW193558  14.211   7.014  11.829
63887SOL    HW293559  14.182   7.076  11.963
63888SOL     OW93560   0.116   7.189   4.995
63888SOL    HW193561   0.151   7.122   5.053
63888SOL    HW293562   0.049   7.233   5.048
63889SOL     OW93563   1.507   5.034   6.674
63889SOL    HW193564   1.542   5.121   6.693
63889SOL    HW293565   1.441   5.019   6.742
63890SOL     OW93566   2.082   6.040   3.720
63890SOL    HW193567   2.137   6.038   3.642
63890SOL    HW293568   2.013   5.976   3.702
63891SOL     OW93569  10.175   5.426   1.060
63891SOL    HW193570  10.119   5.493   1.100
63891SOL    HW293571  10.220   5.472   0.989
63892SOL     OW93572  11.837   7.164   1.102
63892SOL    HW193573  11.912   7.123   1.143
63892SOL    HW293574  11.862   7.176   1.011
63893SOL     OW93575   9.693   3.562   5.210
63893SOL    HW193576   9.733   3.478   5.189
63893SOL    HW293577   9.751   3.627   5.169
63894SOL     OW93578   3.018   7.416  11.789
63894SOL    HW193579   3.081   7.485  11.808
63894SOL    HW293580   2.992   7.431  11.698
63895SOL     OW93581   1.005  10.630  12.040
63895SOL    HW193582   0.916  10.631  12.075
63895SOL    HW293583   0.996  10.663  11.951
63896SOL     OW93584   9.155   7.945   3.368
63896SOL    HW193585   9.229   7.921   3.312
63896SOL    HW293586   9.081   7.956   3.309
63897SOL     OW93587  11.594   8.545   4.920
63897SOL    HW193588  11.519   8.593   4.956
63897SOL    HW293589  11.585   8.553   4.826
63898SOL     OW93590   4.371   2.317   6.807
63898SOL    HW193591   4.449   2.289   6.855
63898SOL    HW293592   4.405   2.353   6.725
63899SOL     OW93593   7.844  14.166   9.255
63899SOL    HW193594   7.839  14.246   9.202
63899SOL    HW293595   7.807  14.098   9.198
63900SOL     OW93596   9.730   3.238   5.923
63900SOL    HW193597   9.645   3.228   5.882
63900SOL    HW293598   9.752   3.330   5.911
63901SOL     OW93599   6.271   9.616  12.955
63901SOL    HW193600   6.348   9.598  12.902
63901SOL    HW293601   6.301   9.607  13.045
63902SOL     OW93602   1.644   1.268   2.416
63902SOL    HW193603   1.629   1.217   2.496
63902SOL    HW293604   1.655   1.358   2.447
63903SOL     OW93605   0.315   6.957   9.326
63903SOL    HW193606   0.277   6.991   9.245
63903SOL    HW293607   0.295   7.023   9.392
63904SOL     OW93608   9.406  13.611   9.406
63904SOL    HW193609   9.355  13.564   9.472
63904SOL    HW293610   9.488  13.632   9.449
63905SOL     OW93611   6.152   8.408   4.601
63905SOL    HW193612   6.072   8.360   4.580
63905SOL    HW293613   6.198   8.416   4.517
63906SOL     OW93614   5.719   3.690   6.486
63906SOL    HW193615   5.791   3.724   6.434
63906SOL    HW293616   5.690   3.612   6.438
63907SOL     OW93617  11.443  13.747  11.329
63907SOL    HW193618  11.418  13.827  11.281
63907SOL    HW293619  11.420  13.676  11.270
63908SOL     OW93620  11.776   7.549  14.334
63908SOL    HW193621  11.863   7.517  14.311
63908SOL    HW293622  11.789   7.643  14.351
63909SOL     OW93623   1.489   7.384  10.835
63909SOL    HW193624   1.403   7.342  10.827
63909SOL    HW293625   1.478   7.446  10.907
63910SOL     OW93626   5.723   1.417   1.359
63910SOL    HW193627   5.729   1.494   1.416
63910SOL    HW293628   5.715   1.343   1.418
63911SOL     OW93629  14.502   3.269   2.202
63911SOL    HW193630  14.489   3.189   2.252
63911SOL    HW293631  14.592   3.262   2.168
63912SOL     OW93632  13.751   6.183  14.845
63912SOL    HW193633  13.690   6.238   0.022
63912SOL    HW293634  13.696   6.134  14.784
63913SOL     OW93635   7.175  10.710   4.356
63913SOL    HW193636   7.233  10.742   4.425
63913SOL    HW293637   7.209  10.750   4.276
63914SOL     OW93638  10.718  12.506   9.316
63914SOL    HW193639  10.705  12.599   9.332
63914SOL    HW293640  10.733  12.468   9.402
63915SOL     OW93641   9.000   0.619  13.066
63915SOL    HW193642   8.923   0.653  13.020
63915SOL    HW293643   9.042   0.697  13.101
63916SOL     OW93644   5.005   3.525  11.083
63916SOL    HW193645   5.053   3.515  11.165
63916SOL    HW293646   4.943   3.452  11.084
63917SOL     OW93647   5.621   1.402   0.934
63917SOL    HW193648   5.622   1.331   0.870
63917SOL    HW293649   5.714   1.417   0.955
63918SOL     OW93650  10.483  12.649   0.524
63918SOL    HW193651  10.575  12.623   0.531
63918SOL    HW293652  10.480  12.737   0.562
63919SOL     OW93653   7.614   3.906  10.836
63919SOL    HW193654   7.612   3.981  10.776
63919SOL    HW293655   7.615   3.945  10.923
63920SOL     OW93656   1.499   2.371  11.970
63920SOL    HW193657   1.557   2.445  11.952
63920SOL    HW293658   1.436   2.372  11.898
63921SOL     OW93659  13.515   8.804  10.683
63921SOL    HW193660  13.535   8.735  10.746
63921SOL    HW293661  13.420   8.815  10.690
63922SOL     OW93662   2.743  11.724   0.508
63922SOL    HW193663   2.796  11.688   0.436
63922SOL    HW293664   2.692  11.794   0.467
63923SOL     OW93665  13.871  14.221   0.261
63923SOL    HW193666  13.799  14.265   0.306
63923SOL    HW293667  13.838  14.132   0.245
63924SOL     OW93668   7.952  10.517   4.719
63924SOL    HW193669   7.916  10.565   4.794
63924SOL    HW293670   7.967  10.429   4.751
63925SOL     OW93671  13.935   8.722   5.380
63925SOL    HW193672  13.886   8.640   5.387
63925SOL    HW293673  13.979   8.717   5.295
63926SOL     OW93674  10.092   0.477   0.548
63926SOL    HW193675  10.157   0.475   0.478
63926SOL    HW293676  10.046   0.394   0.539
63927SOL     OW93677   7.185   7.041   1.777
63927SOL    HW193678   7.093   7.065   1.767
63927SOL    HW293679   7.231   7.125   1.785
63928SOL     OW93680  12.509   0.556   1.534
63928SOL    HW193681  12.535   0.533   1.623
63928SOL    HW293682  12.575   0.620   1.505
63929SOL     OW93683  12.874   5.971   1.540
63929SOL    HW193684  12.950   5.993   1.485
63929SOL    HW293685  12.855   5.880   1.519
63930SOL     OW93686  13.284   8.283   0.234
63930SOL    HW193687  13.365   8.326   0.263
63930SOL    HW293688  13.220   8.354   0.227
63931SOL     OW93689  12.793   5.247   0.723
63931SOL    HW193690  12.741   5.322   0.749
63931SOL    HW293691  12.781   5.242   0.628
63932SOL     OW93692   4.372   3.514   6.711
63932SOL    HW193693   4.368   3.436   6.766
63932SOL    HW293694   4.335   3.584   6.764
63933SOL     OW93695   0.319  12.562   0.987
63933SOL    HW193696   0.259  12.488   0.997
63933SOL    HW293697   0.263  12.640   0.996
63934SOL     OW93698   7.579   4.645   5.350
63934SOL    HW193699   7.603   4.691   5.431
63934SOL    HW293700   7.496   4.602   5.371
63935SOL     OW93701  11.867   2.183   8.245
63935SOL    HW193702  11.859   2.088   8.254
63935SOL    HW293703  11.779   2.217   8.260
63936SOL     OW93704   8.711  12.496  10.794
63936SOL    HW193705   8.634  12.476  10.740
63936SOL    HW293706   8.713  12.591  10.799
63937SOL     OW93707   3.298  13.313  14.303
63937SOL    HW193708   3.265  13.385  14.249
63937SOL    HW293709   3.226  13.250  14.305
63938SOL     OW93710   9.882   6.345   6.977
63938SOL    HW193711   9.797   6.328   7.017
63938SOL    HW293712   9.944   6.300   7.035
63939SOL     OW93713   0.720  14.757   7.677
63939SOL    HW193714   0.676  14.718   7.753
63939SOL    HW293715   0.731  14.849   7.700
63940SOL     OW93716   9.689   4.958   6.050
63940SOL    HW193717   9.613   4.903   6.029
63940SOL    HW293718   9.708   4.939   6.142
63941SOL     OW93719   6.920   6.560   9.873
63941SOL    HW193720   6.849   6.532   9.817
63941SOL    HW293721   6.996   6.509   9.844
63942SOL     OW93722   6.298  11.400  11.858
63942SOL    HW193723   6.269  11.469  11.918
63942SOL    HW293724   6.392  11.412  11.850
63943SOL     OW93725  10.406   5.713  12.894
63943SOL    HW193726  10.403   5.766  12.974
63943SOL    HW293727  10.370   5.770  12.826
63944SOL     OW93728  13.505   7.191   8.205
63944SOL    HW193729  13.579   7.251   8.213
63944SOL    HW293730  13.472   7.181   8.295
63945SOL     OW93731   9.651   3.695   7.285
63945SOL    HW193732   9.666   3.680   7.378
63945SOL    HW293733   9.645   3.790   7.276
63946SOL     OW93734   0.534   6.545   6.854
63946SOL    HW193735   0.490   6.603   6.792
63946SOL    HW293736   0.590   6.489   6.799
63947SOL     OW93737  11.680   7.403   2.530
63947SOL    HW193738  11.671   7.492   2.496
63947SOL    HW293739  11.630   7.404   2.612
63948SOL     OW93740   2.466   3.944  12.195
63948SOL    HW193741   2.399   3.989  12.246
63948SOL    HW293742   2.531   4.012  12.175
63949SOL     OW93743   0.930   3.713   1.603
63949SOL    HW193744   0.998   3.776   1.580
63949SOL    HW293745   0.932   3.649   1.532
63950SOL     OW93746  13.897  11.270   1.854
63950SOL    HW193747  13.873  11.190   1.806
63950SOL    HW293748  13.875  11.341   1.794
63951SOL     OW93749  14.603   8.745  11.700
63951SOL    HW193750  14.563   8.740  11.613
63951SOL    HW293751  14.615   8.653  11.726
63952SOL     OW93752   4.148   8.607   2.596
63952SOL    HW193753   4.101   8.645   2.521
63952SOL    HW293754   4.236   8.646   2.591
63953SOL     OW93755   2.138   2.807  11.694
63953SOL    HW193756   2.230   2.783  11.692
63953SOL    HW293757   2.129   2.862  11.772
63954SOL     OW93758   6.079   9.208   3.524
63954SOL    HW193759   6.012   9.171   3.583
63954SOL    HW293760   6.028   9.249   3.454
63955SOL     OW93761   3.273  10.228   3.587
63955SOL    HW193762   3.243  10.271   3.667
63955SOL    HW293763   3.339  10.287   3.551
63956SOL     OW93764  14.422   2.288   0.920
63956SOL    HW193765  14.454   2.333   0.999
63956SOL    HW293766  14.489   2.305   0.854
63957SOL     OW93767   0.494  14.512  14.707
63957SOL    HW193768   0.503  14.607  14.709
63957SOL    HW293769   0.403  14.495  14.728
63958SOL     OW93770  14.063   5.543   7.056
63958SOL    HW193771  14.111   5.537   7.139
63958SOL    HW293772  14.060   5.454   7.023
63959SOL     OW93773   5.242  14.831  10.269
63959SOL    HW193774   5.185  14.777  10.325
63959SOL    HW293775   5.263  14.775  10.194
63960SOL     OW93776   3.498   0.695  13.806
63960SOL    HW193777   3.500   0.667  13.898
63960SOL    HW293778   3.478   0.789  13.810
63961SOL     OW93779   9.304   8.059   6.486
63961SOL    HW193780   9.376   8.045   6.548
63961SOL    HW293781   9.314   8.149   6.457
63962SOL     OW93782   5.020   9.572   0.239
63962SOL    HW193783   4.963   9.512   0.192
63962SOL    HW293784   5.108   9.535   0.229
63963SOL     OW93785   5.232   0.952  10.857
63963SOL    HW193786   5.205   0.929  10.769
63963SOL    HW293787   5.319   0.913  10.867
63964SOL     OW93788  12.370   2.855   3.397
63964SOL    HW193789  12.416   2.939   3.395
63964SOL    HW293790  12.363   2.834   3.490
63965SOL     OW93791   5.163   4.411  10.019
63965SOL    HW193792   5.076   4.429  10.053
63965SOL    HW293793   5.163   4.318  10.000
63966SOL     OW93794  14.587   0.893  10.544
63966SOL    HW193795  14.587   0.959  10.612
63966SOL    HW293796  14.614   0.812  10.588
63967SOL     OW93797  13.315  11.821  13.163
63967SOL    HW193798  13.350  11.894  13.112
63967SOL    HW293799  13.221  11.840  13.170
63968SOL     OW93800   2.467  13.079   9.692
63968SOL    HW193801   2.391  13.028   9.663
63968SOL    HW293802   2.448  13.168   9.663
63969SOL     OW93803  10.470   3.860  13.951
63969SOL    HW193804  10.405   3.791  13.938
63969SOL    HW293805  10.453   3.892  14.040
63970SOL     OW93806   3.862  10.892   0.838
63970SOL    HW193807   3.886  10.812   0.885
63970SOL    HW293808   3.771  10.877   0.811
63971SOL     OW93809   6.827  10.207   5.770
63971SOL    HW193810   6.843  10.274   5.703
63971SOL    HW293811   6.781  10.254   5.840
63972SOL     OW93812  12.255  13.096   8.862
63972SOL    HW193813  12.184  13.150   8.896
63972SOL    HW293814  12.335  13.142   8.888
63973SOL     OW93815  14.187   6.466   4.898
63973SOL    HW193816  14.190   6.413   4.977
63973SOL    HW293817  14.147   6.409   4.832
63974SOL     OW93818  13.374   1.969   5.674
63974SOL    HW193819  13.413   1.889   5.709
63974SOL    HW293820  13.376   1.958   5.579
63975SOL     OW93821   4.832  12.665  12.163
63975SOL    HW193822   4.839  12.689  12.256
63975SOL    HW293823   4.875  12.580  12.157
63976SOL     OW93824   4.880   1.264   6.994
63976SOL    HW193825   4.933   1.258   7.073
63976SOL    HW293826   4.807   1.203   7.009
63977SOL     OW93827  12.722  13.877   1.148
63977SOL    HW193828  12.739  13.800   1.202
63977SOL    HW293829  12.789  13.940   1.175
63978SOL     OW93830   4.889   8.461   9.261
63978SOL    HW193831   4.950   8.532   9.281
63978SOL    HW293832   4.804   8.504   9.252
63979SOL     OW93833   4.855   5.617  12.827
63979SOL    HW193834   4.821   5.529  12.813
63979SOL    HW293835   4.944   5.615  12.791
63980SOL     OW93836   9.828  13.005   1.526
63980SOL    HW193837   9.802  12.916   1.551
63980SOL    HW293838   9.906  12.993   1.472
63981SOL     OW93839   9.637   5.915  12.046
63981SOL    HW193840   9.611   5.899  12.136
63981SOL    HW293841   9.564   5.966  12.009
63982SOL     OW93842   9.987   4.993   5.916
63982SOL    HW193843  10.031   5.022   5.836
63982SOL    HW293844   9.933   4.919   5.889
63983SOL     OW93845   4.045   2.319   0.146
63983SOL    HW193846   3.964   2.273   0.170
63983SOL    HW293847   4.064   2.375   0.222
63984SOL     OW93848  12.268   2.847  14.384
63984SOL    HW193849  12.219   2.838  14.465
63984SOL    HW293850  12.358   2.826  14.408
63985SOL     OW93851  11.448   1.629   4.066
63985SOL    HW193852  11.469   1.542   4.031
63985SOL    HW293853  11.464   1.688   3.992
63986SOL     OW93854  13.961   8.357   6.589
63986SOL    HW193855  13.942   8.367   6.682
63986SOL    HW293856  14.029   8.423   6.571
63987SOL     OW93857   7.454   4.039   2.337
63987SOL    HW193858   7.371   4.084   2.319
63987SOL    HW293859   7.447   4.010   2.428
63988SOL     OW93860   8.055   9.532   7.937
63988SOL    HW193861   8.001   9.536   8.017
63988SOL    HW293862   8.086   9.442   7.934
63989SOL     OW93863   5.678  14.837  12.949
63989SOL    HW193864   5.744  14.770  12.932
63989SOL    HW293865   5.597  14.789  12.963
63990SOL     OW93866  13.305   4.759  14.489
63990SOL    HW193867  13.264   4.845  14.486
63990SOL    HW293868  13.384   4.767  14.436
63991SOL     OW93869   5.182   1.196  10.204
63991SOL    HW193870   5.230   1.171  10.283
63991SOL    HW293871   5.156   1.113  10.164
63992SOL     OW93872  11.317   4.960   9.984
63992SOL    HW193873  11.258   4.976  10.058
63992SOL    HW293874  11.258   4.952   9.909
63993SOL     OW93875  10.427   0.993   1.884
63993SOL    HW193876  10.487   0.996   1.959
63993SOL    HW293877  10.367   0.921   1.905
63994SOL     OW93878   2.319  13.500   0.533
63994SOL    HW193879   2.323  13.415   0.576
63994SOL    HW293880   2.226  13.516   0.519
63995SOL     OW93881   7.603   1.335  13.176
63995SOL    HW193882   7.515   1.297  13.168
63995SOL    HW293883   7.649   1.276  13.235
63996SOL     OW93884   7.733   2.060  12.386
63996SOL    HW193885   7.802   2.059  12.452
63996SOL    HW293886   7.693   1.973  12.392
63997SOL     OW93887   4.149   9.999  14.367
63997SOL    HW193888   4.076  10.060  14.379
63997SOL    HW293889   4.219  10.036  14.420
63998SOL     OW93890   0.732   9.373   6.127
63998SOL    HW193891   0.820   9.342   6.148
63998SOL    HW293892   0.738   9.468   6.132
63999SOL     OW93893  11.569   3.299  13.469
63999SOL    HW193894  11.507   3.241  13.513
63999SOL    HW293895  11.645   3.243  13.451
64000SOL     OW93896  10.175  10.987   9.643
64000SOL    HW193897  10.155  10.910   9.695
64000SOL    HW293898  10.134  11.060   9.691
64001SOL     OW93899   3.696   2.492   7.569
64001SOL    HW193900   3.762   2.561   7.563
64001SOL    HW293901   3.701   2.446   7.485
64002SOL     OW93902  14.446   8.805   8.637
64002SOL    HW193903  14.449   8.789   8.543
64002SOL    HW293904  14.427   8.719   8.676
64003SOL     OW93905   1.950  13.406   2.908
64003SOL    HW193906   1.973  13.321   2.870
64003SOL    HW293907   1.945  13.465   2.833
64004SOL     OW93908  11.366   0.070   3.067
64004SOL    HW193909  11.342   0.074   2.975
64004SOL    HW293910  11.438   0.133   3.077
64005SOL     OW93911   0.066   7.874   4.320
64005SOL    HW193912   0.149   7.904   4.283
64005SOL    HW293913   0.032   7.812   4.256
64006SOL     OW93914  10.738   8.346   6.060
64006SOL    HW193915  10.822   8.345   6.106
64006SOL    HW293916  10.693   8.267   6.090
64007SOL     OW93917   4.859   8.287   8.182
64007SOL    HW193918   4.784   8.265   8.237
64007SOL    HW293919   4.896   8.365   8.222
64008SOL     OW93920  10.940   9.219   5.453
64008SOL    HW193921  10.882   9.157   5.409
64008SOL    HW293922  10.963   9.282   5.384
64009SOL     OW93923   2.931  10.059  10.136
64009SOL    HW193924   2.933  10.154  10.146
64009SOL    HW293925   2.840  10.035  10.150
64010SOL     OW93926   3.989   8.716   6.788
64010SOL    HW193927   3.944   8.657   6.849
64010SOL    HW293928   4.037   8.777   6.845
64011SOL     OW93929   1.447   6.735  11.706
64011SOL    HW193930   1.382   6.675  11.745
64011SOL    HW293931   1.457   6.804  11.772
64012SOL     OW93932  12.113  14.803   5.897
64012SOL    HW193933  12.024  14.818   5.927
64012SOL    HW293934  12.113  14.829   5.805
64013SOL     OW93935   1.750  11.848   3.420
64013SOL    HW193936   1.687  11.824   3.487
64013SOL    HW293937   1.828  11.874   3.469
64014SOL     OW93938  10.674   1.530  12.813
64014SOL    HW193939  10.649   1.480  12.891
64014SOL    HW293940  10.668   1.622  12.840
64015SOL     OW93941   2.774  10.528  10.217
64015SOL    HW193942   2.781  10.525  10.313
64015SOL    HW293943   2.693  10.479  10.198
64016SOL     OW93944   8.188   8.804   2.323
64016SOL    HW193945   8.204   8.710   2.315
64016SOL    HW293946   8.207   8.824   2.414
64017SOL     OW93947  11.634   6.983  11.725
64017SOL    HW193948  11.631   6.974  11.630
64017SOL    HW293949  11.549   7.020  11.749
64018SOL     OW93950  14.466  10.478   4.794
64018SOL    HW193951  14.400  10.431   4.744
64018SOL    HW293952  14.471  10.430   4.877
64019SOL     OW93953   1.293   4.177   0.701
64019SOL    HW193954   1.201   4.184   0.728
64019SOL    HW293955   1.341   4.171   0.784
64020SOL     OW93956   7.258  11.890   5.961
64020SOL    HW193957   7.168  11.877   5.931
64020SOL    HW293958   7.264  11.837   6.041
64021SOL     OW93959  12.087   8.710  12.340
64021SOL    HW193960  11.994   8.730  12.334
64021SOL    HW293961  12.098   8.671  12.427
64022SOL     OW93962   8.316   4.265  12.895
64022SOL    HW193963   8.363   4.301  12.970
64022SOL    HW293964   8.233   4.235  12.930
64023SOL     OW93965   3.627   4.840  11.906
64023SOL    HW193966   3.703   4.863  11.958
64023SOL    HW293967   3.662   4.827  11.817
64024SOL     OW93968  12.138  11.321   0.012
64024SOL    HW193969  12.212  11.260   0.007
64024SOL    HW293970  12.115  11.323   0.104
64025SOL     OW93971  14.153   2.276  10.112
64025SOL    HW193972  14.168   2.353  10.058
64025SOL    HW293973  14.078   2.299  10.167
64026SOL     OW93974   3.408   1.035   7.639
64026SOL    HW193975   3.409   1.123   7.675
64026SOL    HW293976   3.321   1.001   7.660
64027SOL     OW93977   3.581  11.405   2.276
64027SOL    HW193978   3.628  11.431   2.355
64027SOL    HW293979   3.515  11.342   2.306
64028SOL     OW93980  13.590  13.734   6.121
64028SOL    HW193981  13.663  13.754   6.063
64028SOL    HW293982  13.516  13.717   6.062
64029SOL     OW93983  13.442  14.369   3.210
64029SOL    HW193984  13.431  14.328   3.296
64029SOL    HW293985  13.433  14.297   3.148
64030SOL     OW93986  12.257  12.090   5.616
64030SOL    HW193987  12.171  12.130   5.607
64030SOL    HW293988  12.299  12.102   5.530
64031SOL     OW93989   5.633   9.632   0.787
64031SOL    HW193990   5.680   9.706   0.750
64031SOL    HW293991   5.692   9.597   0.854
64032SOL     OW93992   8.051   8.650  10.222
64032SOL    HW193993   8.064   8.616  10.133
64032SOL    HW293994   8.008   8.579  10.269
64033SOL     OW93995  11.192   7.071   2.998
64033SOL    HW193996  11.226   7.089   3.086
64033SOL    HW293997  11.101   7.046   3.012
64034SOL     OW93998  14.339   7.484   2.284
64034SOL    HW193999  14.262   7.541   2.279
64034SOL    HW294000  14.305   7.401   2.318
64035SOL     OW94001  10.865   9.509  10.907
64035SOL    HW194002  10.810   9.435  10.934
64035SOL    HW294003  10.914   9.476  10.832
64036SOL     OW94004  14.509   8.229   3.521
64036SOL    HW194005  14.598   8.199   3.537
64036SOL    HW294006  14.492   8.293   3.589
64037SOL     OW94007   7.702  13.305   6.241
64037SOL    HW194008   7.771  13.353   6.287
64037SOL    HW294009   7.720  13.320   6.148
64038SOL     OW94010  12.329   5.209  14.070
64038SOL    HW194011  12.353   5.289  14.025
64038SOL    HW294012  12.406   5.153  14.062
64039SOL     OW94013   3.754  12.268   0.297
64039SOL    HW194014   3.837  12.297   0.259
64039SOL    HW294015   3.756  12.301   0.387
64040SOL     OW94016   5.568   7.013  13.757
64040SOL    HW194017   5.489   6.976  13.717
64040SOL    HW294018   5.535   7.064  13.831
64041SOL     OW94019   2.890   5.113  11.417
64041SOL    HW194020   2.934   5.164  11.485
64041SOL    HW294021   2.798   5.109  11.445
64042SOL     OW94022  11.538   6.691   0.536
64042SOL    HW194023  11.553   6.606   0.579
64042SOL    HW294024  11.620   6.709   0.491
64043SOL     OW94025   3.192   8.658   2.967
64043SOL    HW194026   3.160   8.649   3.056
64043SOL    HW294027   3.281   8.622   2.969
64044SOL     OW94028   3.426   4.800   0.259
64044SOL    HW194029   3.421   4.767   0.169
64044SOL    HW294030   3.492   4.745   0.301
64045SOL     OW94031  14.560   8.304   9.342
64045SOL    HW194032  14.487   8.269   9.291
64045SOL    HW294033  14.551   8.263   9.428
64046SOL     OW94034   7.015  12.885  13.967
64046SOL    HW194035   6.952  12.896  14.039
64046SOL    HW294036   7.079  12.955  13.980
64047SOL     OW94037   8.601  13.089   2.835
64047SOL    HW194038   8.682  13.127   2.800
64047SOL    HW294039   8.617  12.995   2.837
64048SOL     OW94040   1.532   7.663   2.301
64048SOL    HW194041   1.478   7.615   2.238
64048SOL    HW294042   1.610   7.608   2.311
64049SOL     OW94043  11.600   2.869   5.701
64049SOL    HW194044  11.522   2.900   5.654
64049SOL    HW294045  11.593   2.908   5.788
64050SOL     OW94046  14.247  10.207   5.005
64050SOL    HW194047  14.326  10.262   4.997
64050SOL    HW294048  14.278  10.119   4.984
64051SOL     OW94049   4.974  11.467  12.208
64051SOL    HW194050   4.938  11.428  12.288
64051SOL    HW294051   5.069  11.460  12.218
64052SOL     OW94052  11.317   1.911   6.572
64052SOL    HW194053  11.360   1.891   6.654
64052SOL    HW294054  11.231   1.870   6.579
64053SOL     OW94055   9.328   2.508   0.585
64053SOL    HW194056   9.409   2.465   0.559
64053SOL    HW294057   9.355   2.594   0.617
64054SOL     OW94058  11.833   8.538   7.531
64054SOL    HW194059  11.782   8.618   7.521
64054SOL    HW294060  11.923   8.564   7.511
64055SOL     OW94061   5.097   2.312   3.289
64055SOL    HW194062   5.128   2.344   3.374
64055SOL    HW294063   5.143   2.366   3.225
64056SOL     OW94064   2.265   1.573   5.091
64056SOL    HW194065   2.282   1.480   5.108
64056SOL    HW294066   2.220   1.574   5.007
64057SOL     OW94067  14.059   7.100  12.090
64057SOL    HW194068  14.070   7.194  12.105
64057SOL    HW294069  14.022   7.066  12.172
64058SOL     OW94070   6.086   9.662   1.490
64058SOL    HW194071   6.089   9.693   1.580
64058SOL    HW294072   6.092   9.741   1.436
64059SOL     OW94073   6.904  13.812   7.522
64059SOL    HW194074   6.967  13.793   7.452
64059SOL    HW294075   6.840  13.741   7.517
64060SOL     OW94076  12.809   0.337   4.161
64060SOL    HW194077  12.886   0.393   4.154
64060SOL    HW294078  12.750   0.369   4.093
64061SOL     OW94079   0.425  11.741  13.452
64061SOL    HW194080   0.373  11.661  13.453
64061SOL    HW294081   0.386  11.797  13.519
64062SOL     OW94082   1.865  14.656   1.261
64062SOL    HW194083   1.854  14.730   1.321
64062SOL    HW294084   1.875  14.696   1.175
64063SOL     OW94085   9.102   6.489  13.777
64063SOL    HW194086   9.076   6.444  13.697
64063SOL    HW294087   9.047   6.567  13.781
64064SOL     OW94088  10.771  11.962  12.222
64064SOL    HW194089  10.865  11.950  12.212
64064SOL    HW294090  10.743  11.887  12.274
64065SOL     OW94091   3.402  14.580  12.905
64065SOL    HW194092   3.409  14.487  12.923
64065SOL    HW294093   3.387  14.586  12.811
64066SOL     OW94094   8.501  12.894   7.646
64066SOL    HW194095   8.573  12.957   7.639
64066SOL    HW294096   8.524  12.839   7.721
64067SOL     OW94097   2.164   3.130   4.500
64067SOL    HW194098   2.081   3.084   4.486
64067SOL    HW294099   2.180   3.176   4.417
64068SOL     OW94100   3.941   8.649   4.789
64068SOL    HW194101   3.892   8.570   4.813
64068SOL    HW294102   3.925   8.710   4.861
64069SOL     OW94103  12.361   4.024  11.337
64069SOL    HW194104  12.332   4.032  11.428
64069SOL    HW294105  12.456   4.029  11.342
64070SOL     OW94106   8.975   4.961  12.655
64070SOL    HW194107   8.907   4.894  12.663
64070SOL    HW294108   9.039   4.922  12.595
64071SOL     OW94109  14.054   5.318   4.892
64071SOL    HW194110  14.103   5.236   4.889
64071SOL    HW294111  14.048   5.347   4.801
64072SOL     OW94112   7.030   4.185  10.508
64072SOL    HW194113   6.935   4.184  10.498
64072SOL    HW294114   7.062   4.137  10.432
64073SOL     OW94115   5.544   4.189   6.841
64073SOL    HW194116   5.589   4.107   6.860
64073SOL    HW294117   5.467   4.188   6.898
64074SOL     OW94118   9.167  14.855   3.826
64074SOL    HW194119   9.144  14.786   3.764
64074SOL    HW294120   9.213   0.049   3.773
64075SOL     OW94121   3.816   2.168   9.695
64075SOL    HW194122   3.851   2.140   9.780
64075SOL    HW294123   3.887   2.219   9.656
64076SOL     OW94124   9.163   5.263  14.625
64076SOL    HW194125   9.228   5.195  14.603
64076SOL    HW294126   9.079   5.217  14.625
64077SOL     OW94127   5.326  14.528  12.122
64077SOL    HW194128   5.420  14.540  12.106
64077SOL    HW294129   5.301  14.604  12.175
64078SOL     OW94130  14.008   2.917   2.906
64078SOL    HW194131  13.967   2.895   2.990
64078SOL    HW294132  14.091   2.870   2.906
64079SOL     OW94133   1.879   2.316   8.573
64079SOL    HW194134   1.857   2.343   8.663
64079SOL    HW294135   1.832   2.377   8.517
64080SOL     OW94136  11.075  11.184  14.704
64080SOL    HW194137  11.085  11.274  14.676
64080SOL    HW294138  11.127  11.133  14.642
64081SOL     OW94139   5.709   2.300  12.049
64081SOL    HW194140   5.620   2.265  12.054
64081SOL    HW294141   5.703   2.373  11.988
64082SOL     OW94142  12.947   9.758   7.793
64082SOL    HW194143  13.000   9.828   7.832
64082SOL    HW294144  12.861   9.768   7.834
64083SOL     OW94145  13.088   5.911  13.257
64083SOL    HW194146  13.113   5.987  13.204
64083SOL    HW294147  12.999   5.930  13.284
64084SOL     OW94148   5.068   5.364   8.536
64084SOL    HW194149   5.079   5.401   8.448
64084SOL    HW294150   5.098   5.434   8.595
64085SOL     OW94151   7.932   8.219  12.311
64085SOL    HW194152   8.020   8.187  12.292
64085SOL    HW294153   7.898   8.248  12.226
64086SOL     OW94154  11.050   5.392   1.179
64086SOL    HW194155  11.063   5.466   1.120
64086SOL    HW294156  11.137   5.351   1.185
64087SOL     OW94157   8.507   7.519  12.748
64087SOL    HW194158   8.560   7.578  12.801
64087SOL    HW294159   8.458   7.576  12.689
64088SOL     OW94160   8.578   6.512   9.837
64088SOL    HW194161   8.627   6.583   9.877
64088SOL    HW294162   8.605   6.434   9.885
64089SOL     OW94163  10.628   7.579   9.220
64089SOL    HW194164  10.712   7.548   9.185
64089SOL    HW294165  10.563   7.549   9.156
64090SOL     OW94166  11.591   4.752   8.700
64090SOL    HW194167  11.634   4.828   8.739
64090SOL    HW294168  11.529   4.723   8.766
64091SOL     OW94169  11.423   5.989  11.806
64091SOL    HW194170  11.422   6.084  11.817
64091SOL    HW294171  11.382   5.956  11.886
64092SOL     OW94172   2.897   0.808   8.368
64092SOL    HW194173   2.853   0.794   8.451
64092SOL    HW294174   2.890   0.724   8.322
64093SOL     OW94175  12.137   5.757  14.470
64093SOL    HW194176  12.075   5.762  14.397
64093SOL    HW294177  12.110   5.679  14.519
64094SOL     OW94178   2.259   9.978  12.222
64094SOL    HW194179   2.209  10.012  12.147
64094SOL    HW294180   2.267   9.884  12.205
64095SOL     OW94181   0.990   1.337   3.246
64095SOL    HW194182   0.954   1.423   3.222
64095SOL    HW294183   0.950   1.277   3.184
64096SOL     OW94184   2.000   0.981  10.003
64096SOL    HW194185   1.910   1.015  10.009
64096SOL    HW294186   2.032   0.982  10.094
64097SOL     OW94187  14.815   5.126   3.749
64097SOL    HW194188  14.767   5.045   3.729
64097SOL    HW294189  14.750   5.196   3.736
64098SOL     OW94190   4.896   4.550   9.682
64098SOL    HW194191   4.954   4.572   9.609
64098SOL    HW294192   4.897   4.627   9.737
64099SOL     OW94193  13.145   0.789   7.661
64099SOL    HW194194  13.115   0.852   7.596
64099SOL    HW294195  13.157   0.708   7.612
64100SOL     OW94196   6.969   5.968  10.674
64100SOL    HW194197   6.914   5.894  10.700
64100SOL    HW294198   6.929   6.044  10.715
64101SOL     OW94199   5.548  10.381   4.466
64101SOL    HW194200   5.545  10.289   4.493
64101SOL    HW294201   5.457  10.402   4.445
64102SOL     OW94202   7.420   8.732   1.442
64102SOL    HW194203   7.507   8.768   1.461
64102SOL    HW294204   7.399   8.767   1.355
64103SOL     OW94205  12.227   8.470   9.661
64103SOL    HW194206  12.235   8.535   9.731
64103SOL    HW294207  12.317   8.454   9.633
64104SOL     OW94208   8.147   8.201   2.941
64104SOL    HW194209   8.201   8.239   3.010
64104SOL    HW294210   8.128   8.275   2.882
64105SOL     OW94211   3.761   8.321   5.877
64105SOL    HW194212   3.683   8.291   5.832
64105SOL    HW294213   3.810   8.370   5.811
64106SOL     OW94214   6.485   6.062   2.524
64106SOL    HW194215   6.521   6.148   2.546
64106SOL    HW294216   6.448   6.074   2.437
64107SOL     OW94217  14.709   4.849   0.151
64107SOL    HW194218  14.790   4.897   0.135
64107SOL    HW294219  14.663   4.900   0.218
64108SOL     OW94220   6.710  13.851  12.152
64108SOL    HW194221   6.627  13.867  12.197
64108SOL    HW294222   6.689  13.858  12.059
64109SOL     OW94223   9.980  13.351   2.132
64109SOL    HW194224   9.982  13.416   2.063
64109SOL    HW294225  10.051  13.290   2.110
64110SOL     OW94226   3.372   6.982   8.492
64110SOL    HW194227   3.432   6.944   8.429
64110SOL    HW294228   3.387   6.934   8.573
64111SOL     OW94229   8.950   4.300   5.759
64111SOL    HW194230   9.038   4.262   5.765
64111SOL    HW294231   8.954   4.357   5.683
64112SOL     OW94232  10.303  13.436  13.420
64112SOL    HW194233  10.234  13.444  13.353
64112SOL    HW294234  10.275  13.494  13.490
64113SOL     OW94235   4.893   8.268   8.513
64113SOL    HW194236   4.921   8.182   8.482
64113SOL    HW294237   4.912   8.267   8.607
64114SOL     OW94238   4.573  11.879   4.108
64114SOL    HW194239   4.641  11.848   4.168
64114SOL    HW294240   4.614  11.879   4.022
64115SOL     OW94241   5.485  13.354  14.674
64115SOL    HW194242   5.410  13.402  14.640
64115SOL    HW294243   5.450  13.268  14.698
64116SOL     OW94244   5.668   9.048   3.973
64116SOL    HW194245   5.595   9.068   4.032
64116SOL    HW294246   5.697   9.134   3.942
64117SOL     OW94247  10.123   1.661  10.724
64117SOL    HW194248  10.158   1.739  10.682
64117SOL    HW294249  10.090   1.692  10.809
64118SOL     OW94250   6.667   1.301   9.822
64118SOL    HW194251   6.729   1.374   9.819
64118SOL    HW294252   6.722   1.223   9.824
64119SOL     OW94253   3.417   7.581  12.534
64119SOL    HW194254   3.380   7.510  12.586
64119SOL    HW294255   3.434   7.541  12.448
64120SOL     OW94256  12.780   7.095   3.166
64120SOL    HW194257  12.699   7.142   3.187
64120SOL    HW294258  12.758   7.003   3.177
64121SOL     OW94259  10.529   1.406  14.324
64121SOL    HW194260  10.517   1.416  14.229
64121SOL    HW294261  10.461   1.343  14.350
64122SOL     OW94262   3.584   3.513   9.193
64122SOL    HW194263   3.598   3.484   9.283
64122SOL    HW294264   3.597   3.608   9.196
64123SOL     OW94265   5.860   7.505   8.185
64123SOL    HW194266   5.824   7.481   8.270
64123SOL    HW294267   5.843   7.429   8.129
64124SOL     OW94268   1.592  12.790   2.633
64124SOL    HW194269   1.609  12.844   2.556
64124SOL    HW294270   1.678  12.755   2.657
64125SOL     OW94271  11.868   6.483   6.320
64125SOL    HW194272  11.811   6.405   6.318
64125SOL    HW294273  11.941   6.460   6.263
64126SOL     OW94274  13.852  14.028   8.729
64126SOL    HW194275  13.800  13.954   8.696
64126SOL    HW294276  13.900  13.992   8.804
64127SOL     OW94277  14.428  11.504   9.277
64127SOL    HW194278  14.378  11.423   9.287
64127SOL    HW294279  14.446  11.510   9.183
64128SOL     OW94280   1.879  14.113  13.368
64128SOL    HW194281   1.868  14.096  13.462
64128SOL    HW294282   1.813  14.180  13.348
64129SOL     OW94283   0.676   9.730   7.124
64129SOL    HW194284   0.640   9.661   7.068
64129SOL    HW294285   0.706   9.684   7.203
64130SOL     OW94286  13.715  13.785   8.658
64130SOL    HW194287  13.802  13.748   8.645
64130SOL    HW294288  13.664  13.712   8.694
64131SOL     OW94289  14.449   7.522  13.391
64131SOL    HW194290  14.519   7.476  13.346
64131SOL    HW294291  14.491   7.567  13.463
64132SOL     OW94292   1.495   0.554   7.971
64132SOL    HW194293   1.500   0.476   8.027
64132SOL    HW294294   1.565   0.611   8.003
64133SOL     OW94295   7.604   8.194  12.988
64133SOL    HW194296   7.534   8.236  12.938
64133SOL    HW294297   7.577   8.200  13.079
64134SOL     OW94298  13.831   4.830  12.558
64134SOL    HW194299  13.840   4.889  12.633
64134SOL    HW294300  13.921   4.804  12.537
64135SOL     OW94301   4.621   2.654   6.941
64135SOL    HW194302   4.571   2.679   6.864
64135SOL    HW294303   4.674   2.579   6.912
64136SOL     OW94304   2.412   2.442   6.675
64136SOL    HW194305   2.493   2.482   6.704
64136SOL    HW294306   2.439   2.377   6.610
64137SOL     OW94307   2.363   2.129   3.363
64137SOL    HW194308   2.309   2.122   3.284
64137SOL    HW294309   2.301   2.146   3.433
64138SOL     OW94310   4.660  13.568   1.660
64138SOL    HW194311   4.621  13.602   1.740
64138SOL    HW294312   4.682  13.647   1.609
64139SOL     OW94313   6.267   5.097  11.300
64139SOL    HW194314   6.264   5.091  11.395
64139SOL    HW294315   6.355   5.132  11.281
64140SOL     OW94316   9.223   6.136  11.274
64140SOL    HW194317   9.212   6.144  11.369
64140SOL    HW294318   9.316   6.116  11.262
64141SOL     OW94319  11.165  13.752  14.467
64141SOL    HW194320  11.082  13.799  14.453
64141SOL    HW294321  11.231  13.807  14.425
64142SOL     OW94322  12.080  11.502  10.471
64142SOL    HW194323  12.172  11.522  10.452
64142SOL    HW294324  12.033  11.526  10.391
64143SOL     OW94325   6.591  13.875   5.703
64143SOL    HW194326   6.569  13.967   5.687
64143SOL    HW294327   6.550  13.828   5.631
64144SOL     OW94328   0.708   0.561   6.866
64144SOL    HW194329   0.712   0.504   6.789
64144SOL    HW294330   0.789   0.611   6.863
64145SOL     OW94331   0.845  14.629   2.953
64145SOL    HW194332   0.767  14.578   2.932
64145SOL    HW294333   0.916  14.564   2.954
64146SOL     OW94334  11.923   2.599   4.136
64146SOL    HW194335  11.863   2.660   4.179
64146SOL    HW294336  11.912   2.617   4.042
64147SOL     OW94337  14.568  10.789   9.482
64147SOL    HW194338  14.649  10.806   9.529
64147SOL    HW294339  14.532  10.876   9.465
64148SOL     OW94340  10.104   2.154   5.555
64148SOL    HW194341  10.025   2.123   5.511
64148SOL    HW294342  10.074   2.179   5.642
64149SOL     OW94343  13.079  10.221  11.736
64149SOL    HW194344  13.148  10.210  11.671
64149SOL    HW294345  13.097  10.306  11.776
64150SOL     OW94346   2.150   3.226   5.570
64150SOL    HW194347   2.171   3.192   5.483
64150SOL    HW294348   2.156   3.321   5.560
64151SOL     OW94349   0.243   9.063  14.479
64151SOL    HW194350   0.164   9.051  14.425
64151SOL    HW294351   0.314   9.030  14.424
64152SOL     OW94352   6.062   0.416  14.018
64152SOL    HW194353   6.148   0.421  14.059
64152SOL    HW294354   6.046   0.505  13.987
64153SOL     OW94355   8.092  14.139   7.380
64153SOL    HW194356   8.101  14.067   7.443
64153SOL    HW294357   8.136  14.107   7.301
64154SOL     OW94358  12.959   6.892   0.289
64154SOL    HW194359  13.048   6.884   0.324
64154SOL    HW294360  12.908   6.828   0.337
64155SOL     OW94361   5.174   0.534   4.021
64155SOL    HW194362   5.144   0.517   3.932
64155SOL    HW294363   5.255   0.483   4.029
64156SOL     OW94364  12.859   5.936  13.399
64156SOL    HW194365  12.847   5.986  13.480
64156SOL    HW294366  12.774   5.942  13.354
64157SOL     OW94367  12.307   1.393   2.182
64157SOL    HW194368  12.355   1.476   2.186
64157SOL    HW294369  12.236   1.409   2.119
64158SOL     OW94370   6.195   5.250   1.595
64158SOL    HW194371   6.204   5.280   1.686
64158SOL    HW294372   6.280   5.270   1.555
64159SOL     OW94373  12.345  11.153   9.828
64159SOL    HW194374  12.287  11.223   9.798
64159SOL    HW294375  12.300  11.116   9.904
64160SOL     OW94376  13.463  10.914   3.798
64160SOL    HW194377  13.555  10.938   3.802
64160SOL    HW294378  13.435  10.909   3.890
64161SOL     OW94379   4.386   9.337   6.076
64161SOL    HW194380   4.404   9.248   6.046
64161SOL    HW294381   4.455   9.390   6.038
64162SOL     OW94382   1.621   8.885   3.351
64162SOL    HW194383   1.570   8.965   3.364
64162SOL    HW294384   1.705   8.902   3.394
64163SOL     OW94385   6.941  13.918   8.935
64163SOL    HW194386   6.953  14.013   8.941
64163SOL    HW294387   6.955  13.898   8.843
64164SOL     OW94388   4.727   5.452   8.711
64164SOL    HW194389   4.778   5.484   8.786
64164SOL    HW294390   4.662   5.520   8.696
64165SOL     OW94391  14.343   3.280   7.660
64165SOL    HW194392  14.383   3.276   7.746
64165SOL    HW294393  14.313   3.191   7.643
64166SOL     OW94394   3.099  10.762   9.408
64166SOL    HW194395   3.183  10.722   9.385
64166SOL    HW294396   3.058  10.782   9.324
64167SOL     OW94397  14.557   9.471   8.004
64167SOL    HW194398  14.566   9.479   8.099
64167SOL    HW294399  14.465   9.490   7.986
64168SOL     OW94400   9.933   0.519   9.012
64168SOL    HW194401   9.929   0.423   9.010
64168SOL    HW294402   9.858   0.548   8.961
64169SOL     OW94403   4.571  11.475   5.341
64169SOL    HW194404   4.557  11.383   5.320
64169SOL    HW294405   4.664  11.491   5.323
64170SOL     OW94406  11.168  11.858   1.459
64170SOL    HW194407  11.146  11.795   1.390
64170SOL    HW294408  11.169  11.943   1.415
64171SOL     OW94409   0.070   6.828   4.249
64171SOL    HW194410   0.082   6.884   4.326
64171SOL    HW294411   0.036   6.886   4.182
64172SOL     OW94412   5.170   6.852   9.225
64172SOL    HW194413   5.239   6.895   9.276
64172SOL    HW294414   5.177   6.759   9.247
64173SOL     OW94415   0.796   1.174   6.185
64173SOL    HW194416   0.726   1.157   6.248
64173SOL    HW294417   0.815   1.267   6.195
64174SOL     OW94418   8.381   1.369  11.985
64174SOL    HW194419   8.338   1.342  12.066
64174SOL    HW294420   8.309   1.381  11.923
64175SOL     OW94421   7.809   4.081   7.948
64175SOL    HW194422   7.725   4.061   7.906
64175SOL    HW294423   7.874   4.068   7.879
64176SOL     OW94424   3.352   5.038   8.277
64176SOL    HW194425   3.286   5.105   8.257
64176SOL    HW294426   3.349   5.031   8.372
64177SOL     OW94427   1.379   6.896   4.207
64177SOL    HW194428   1.352   6.816   4.251
64177SOL    HW294429   1.463   6.919   4.248
64178SOL     OW94430   0.916  13.587  11.629
64178SOL    HW194431   0.968  13.514  11.595
64178SOL    HW294432   0.953  13.604  11.716
64179SOL     OW94433   6.426   1.553  10.225
64179SOL    HW194434   6.476   1.635  10.231
64179SOL    HW294435   6.408   1.543  10.131
64180SOL     OW94436   6.008  13.162  12.054
64180SOL    HW194437   6.012  13.116  11.970
64180SOL    HW294438   6.044  13.249  12.036
64181SOL     OW94439   9.056   3.646   5.280
64181SOL    HW194440   9.090   3.731   5.306
64181SOL    HW294441   9.005   3.616   5.356
64182SOL     OW94442   7.077   2.849   1.025
64182SOL    HW194443   7.109   2.810   0.943
64182SOL    HW294444   6.982   2.843   1.019
64183SOL     OW94445   6.010  13.952   4.840
64183SOL    HW194446   5.924  13.952   4.882
64183SOL    HW294447   6.063  13.894   4.895
64184SOL     OW94448   3.597  13.450   9.318
64184SOL    HW194449   3.678  13.400   9.323
64184SOL    HW294450   3.532  13.396   9.362
64185SOL     OW94451   2.772   8.173   5.769
64185SOL    HW194452   2.793   8.095   5.820
64185SOL    HW294453   2.748   8.238   5.834
64186SOL     OW94454   9.089  14.280   5.505
64186SOL    HW194455   9.058  14.365   5.536
64186SOL    HW294456   9.176  14.271   5.544
64187SOL     OW94457  14.066   4.301  12.946
64187SOL    HW194458  14.138   4.248  12.980
64187SOL    HW294459  14.076   4.385  12.989
64188SOL     OW94460   5.831   8.655   6.635
64188SOL    HW194461   5.870   8.718   6.575
64188SOL    HW294462   5.837   8.571   6.589
64189SOL     OW94463  13.735  13.226  10.420
64189SOL    HW194464  13.686  13.173  10.358
64189SOL    HW294465  13.827  13.212  10.397
64190SOL     OW94466   8.750   2.498  14.582
64190SOL    HW194467   8.806   2.442  14.636
64190SOL    HW294468   8.724   2.570  14.641
64191SOL     OW94469   0.953   9.054  13.007
64191SOL    HW194470   1.031   9.020  12.962
64191SOL    HW294471   0.980   9.063  13.098
64192SOL     OW94472   7.566   8.414   5.004
64192SOL    HW194473   7.538   8.476   4.937
64192SOL    HW294474   7.542   8.455   5.086
64193SOL     OW94475  14.741   8.023  13.062
64193SOL    HW194476  14.675   7.954  13.053
64193SOL    HW294477  14.749   8.035  13.157
64194SOL     OW94478   4.774   7.538   6.150
64194SOL    HW194479   4.792   7.446   6.131
64194SOL    HW294480   4.769   7.580   6.064
64195SOL     OW94481   5.143  10.668   6.689
64195SOL    HW194482   5.123  10.695   6.779
64195SOL    HW294483   5.066  10.694   6.639
64196SOL     OW94484   8.725   7.891  12.545
64196SOL    HW194485   8.797   7.928  12.596
64196SOL    HW294486   8.648   7.903  12.601
64197SOL     OW94487   8.987   5.766  12.119
64197SOL    HW194488   8.968   5.738  12.209
64197SOL    HW294489   8.968   5.689  12.065
64198SOL     OW94490  12.571   7.022   5.210
64198SOL    HW194491  12.638   6.970   5.166
64198SOL    HW294492  12.489   6.997   5.167
64199SOL     OW94493   2.172  13.152   8.861
64199SOL    HW194494   2.151  13.232   8.910
64199SOL    HW294495   2.184  13.085   8.928
64200SOL     OW94496  14.217  10.327   0.991
64200SOL    HW194497  14.133  10.324   1.037
64200SOL    HW294498  14.282  10.343   1.059
64201SOL     OW94499   9.647   2.992   0.691
64201SOL    HW194500   9.675   2.909   0.653
64201SOL    HW294501   9.711   3.010   0.760
64202SOL     OW94502   9.835  12.128   8.964
64202SOL    HW194503   9.873  12.168   9.042
64202SOL    HW294504   9.862  12.036   8.969
64203SOL     OW94505   5.753   4.480  11.124
64203SOL    HW194506   5.846   4.457  11.129
64203SOL    HW294507   5.735   4.487  11.031
64204SOL     OW94508  12.656   7.460   6.430
64204SOL    HW194509  12.689   7.466   6.340
64204SOL    HW294510  12.726   7.499   6.483
64205SOL     OW94511  12.963   9.097   5.850
64205SOL    HW194512  12.880   9.055   5.825
64205SOL    HW294513  12.962   9.180   5.804
64206SOL     OW94514   6.622  11.053   4.555
64206SOL    HW194515   6.631  11.071   4.461
64206SOL    HW294516   6.610  11.139   4.595
64207SOL     OW94517  12.653   2.905  11.205
64207SOL    HW194518  12.630   2.883  11.295
64207SOL    HW294519  12.674   2.998  11.207
64208SOL     OW94520  12.879   5.077  12.503
64208SOL    HW194521  12.894   5.171  12.500
64208SOL    HW294522  12.804   5.067  12.560
64209SOL     OW94523   1.980   0.579   1.463
64209SOL    HW194524   1.908   0.631   1.500
64209SOL    HW294525   1.957   0.570   1.370
64210SOL     OW94526   6.989  12.972   5.941
64210SOL    HW194527   7.006  13.054   5.894
64210SOL    HW294528   6.958  12.912   5.873
64211SOL     OW94529   3.878   4.669  14.790
64211SOL    HW194530   3.935   4.743  14.766
64211SOL    HW294531   3.808   4.708  14.842
64212SOL     OW94532  12.163  13.548  12.808
64212SOL    HW194533  12.188  13.621  12.866
64212SOL    HW294534  12.070  13.535  12.826
64213SOL     OW94535  10.237   8.761   4.355
64213SOL    HW194536  10.241   8.678   4.402
64213SOL    HW294537  10.178   8.745   4.282
64214SOL     OW94538   6.114   8.929  11.878
64214SOL    HW194539   6.146   9.019  11.871
64214SOL    HW294540   6.163   8.891  11.950
64215SOL     OW94541   5.362  12.837   6.092
64215SOL    HW194542   5.288  12.880   6.135
64215SOL    HW294543   5.399  12.781   6.160
64216SOL     OW94544  12.203   1.891   1.306
64216SOL    HW194545  12.236   1.968   1.351
64216SOL    HW294546  12.162   1.925   1.226
64217SOL     OW94547   0.025  13.001   5.780
64217SOL    HW194548   0.055  13.019   5.690
64217SOL    HW294549   0.037  13.084   5.826
64218SOL     OW94550  13.662   7.308  10.745
64218SOL    HW194551  13.584   7.254  10.755
64218SOL    HW294552  13.702   7.276  10.664
64219SOL     OW94553  11.788  14.722   6.787
64219SOL    HW194554  11.716  14.723   6.724
64219SOL    HW294555  11.764  14.654   6.850
64220SOL     OW94556  14.658   9.650   4.366
64220SOL    HW194557  14.733   9.595   4.388
64220SOL    HW294558  14.657   9.717   4.434
64221SOL     OW94559   6.081   5.548  11.922
64221SOL    HW194560   6.140   5.601  11.869
64221SOL    HW294561   5.995   5.561  11.882
64222SOL     OW94562  10.711   8.843   7.969
64222SOL    HW194563  10.700   8.933   7.939
64222SOL    HW294564  10.679   8.843   8.059
64223SOL     OW94565  11.844   8.946   6.340
64223SOL    HW194566  11.881   8.935   6.427
64223SOL    HW294567  11.772   9.007   6.352
64224SOL     OW94568   8.341   7.296   4.362
64224SOL    HW194569   8.250   7.308   4.390
64224SOL    HW294570   8.375   7.228   4.420
64225SOL     OW94571   0.727  10.317   2.654
64225SOL    HW194572   0.691  10.250   2.595
64225SOL    HW294573   0.822  10.310   2.643
64226SOL     OW94574   7.563   4.392  11.624
64226SOL    HW194575   7.540   4.391  11.717
64226SOL    HW294576   7.513   4.465  11.587
64227SOL     OW94577  10.799  12.204  14.558
64227SOL    HW194578  10.860  12.170  14.492
64227SOL    HW294579  10.842  12.284  14.590
64228SOL     OW94580  14.660   1.692   2.173
64228SOL    HW194581  14.671   1.687   2.268
64228SOL    HW294582  14.594   1.760   2.160
64229SOL     OW94583   1.777   5.371   4.030
64229SOL    HW194584   1.751   5.320   3.953
64229SOL    HW294585   1.807   5.306   4.093
64230SOL     OW94586  10.248   5.719  13.732
64230SOL    HW194587  10.170   5.768  13.706
64230SOL    HW294588  10.290   5.774  13.798
64231SOL     OW94589   5.252   8.109  11.452
64231SOL    HW194590   5.240   8.195  11.411
64231SOL    HW294591   5.181   8.103  11.516
64232SOL     OW94592   2.336   7.118  10.289
64232SOL    HW194593   2.303   7.207  10.284
64232SOL    HW294594   2.337   7.087  10.198
64233SOL     OW94595  13.911  12.272   9.396
64233SOL    HW194596  13.916  12.343   9.332
64233SOL    HW294597  13.876  12.314   9.475
64234SOL     OW94598  14.561   7.944   6.792
64234SOL    HW194599  14.556   7.967   6.700
64234SOL    HW294600  14.505   8.009   6.836
64235SOL     OW94601   4.931  11.078  14.200
64235SOL    HW194602   5.011  11.130  14.198
64235SOL    HW294603   4.909  11.064  14.107
64236SOL     OW94604   2.985   4.278   9.485
64236SOL    HW194605   3.013   4.365   9.459
64236SOL    HW294606   2.984   4.227   9.404
64237SOL     OW94607  11.341   4.843   7.609
64237SOL    HW194608  11.291   4.798   7.676
64237SOL    HW294609  11.280   4.908   7.573
64238SOL     OW94610   8.261   4.909  10.683
64238SOL    HW194611   8.287   4.985  10.734
64238SOL    HW294612   8.300   4.835  10.729
64239SOL     OW94613   7.109   7.065   2.483
64239SOL    HW194614   7.042   7.001   2.509
64239SOL    HW294615   7.148   7.028   2.404
64240SOL     OW94616   7.219   9.906   7.224
64240SOL    HW194617   7.283   9.837   7.244
64240SOL    HW294618   7.195   9.942   7.309
64241SOL     OW94619  14.790  10.575   5.368
64241SOL    HW194620  14.757  10.633   5.299
64241SOL    HW294621  14.840  10.632   5.426
64242SOL     OW94622  13.048   6.557   9.562
64242SOL    HW194623  12.967   6.595   9.527
64242SOL    HW294624  13.031   6.463   9.565
64243SOL     OW94625  10.564  11.168   1.167
64243SOL    HW194626  10.528  11.143   1.252
64243SOL    HW294627  10.488  11.194   1.115
64244SOL     OW94628  14.388  13.872   2.253
64244SOL    HW194629  14.388  13.799   2.315
64244SOL    HW294630  14.457  13.930   2.283
64245SOL     OW94631   7.441   3.574  12.564
64245SOL    HW194632   7.525   3.590  12.607
64245SOL    HW294633   7.420   3.658  12.523
64246SOL     OW94634   6.816   3.120   4.174
64246SOL    HW194635   6.812   3.153   4.263
64246SOL    HW294636   6.727   3.128   4.140
64247SOL     OW94637   0.101   3.677   3.165
64247SOL    HW194638   0.025   3.734   3.170
64247SOL    HW294639   0.157   3.717   3.099
64248SOL     OW94640   5.643  11.948  10.640
64248SOL    HW194641   5.737  11.949  10.658
64248SOL    HW294642   5.635  11.982  10.551
64249SOL     OW94643   3.123  10.281   9.990
64249SOL    HW194644   3.153  10.296  10.080
64249SOL    HW294645   3.078  10.362   9.966
64250SOL     OW94646   7.617   0.992  14.762
64250SOL    HW194647   7.655   1.052  14.826
64250SOL    HW294648   7.526   1.020  14.755
64251SOL     OW94649   2.649   1.006   9.081
64251SOL    HW194650   2.590   1.067   9.036
64251SOL    HW294651   2.595   0.929   9.099
64252SOL     OW94652   3.898  10.478   4.281
64252SOL    HW194653   3.899  10.390   4.244
64252SOL    HW294654   3.823  10.478   4.341
64253SOL     OW94655  12.224   0.221   4.561
64253SOL    HW194656  12.292   0.228   4.494
64253SOL    HW294657  12.251   0.282   4.630
64254SOL     OW94658  10.533  11.093   0.639
64254SOL    HW194659  10.603  11.152   0.665
64254SOL    HW294660  10.570  11.005   0.652
64255SOL     OW94661   7.431   8.374   4.323
64255SOL    HW194662   7.399   8.335   4.404
64255SOL    HW294663   7.490   8.444   4.352
64256SOL     OW94664   1.913   6.039   2.095
64256SOL    HW194665   1.966   5.959   2.097
64256SOL    HW294666   1.974   6.108   2.068
64257SOL     OW94667  12.399   2.368  12.611
64257SOL    HW194668  12.345   2.340  12.684
64257SOL    HW294669  12.342   2.425  12.560
64258SOL     OW94670   9.302  14.701  12.040
64258SOL    HW194671   9.386  14.660  12.023
64258SOL    HW294672   9.312  14.791  12.010
64259SOL     OW94673   2.137   2.125   7.296
64259SOL    HW194674   2.075   2.198   7.293
64259SOL    HW294675   2.220   2.163   7.266
64260SOL     OW94676   9.124  13.220  13.148
64260SOL    HW194677   9.079  13.143  13.112
64260SOL    HW294678   9.214  13.191  13.160
64261SOL     OW94679   4.021   0.400   5.840
64261SOL    HW194680   3.934   0.367   5.866
64261SOL    HW294681   4.065   0.418   5.923
64262SOL     OW94682   8.741   1.494   2.240
64262SOL    HW194683   8.707   1.527   2.323
64262SOL    HW294684   8.738   1.399   2.248
64263SOL     OW94685  11.108   7.271   5.227
64263SOL    HW194686  11.133   7.337   5.292
64263SOL    HW294687  11.014   7.258   5.241
64264SOL     OW94688  10.845  13.192  10.811
64264SOL    HW194689  10.850  13.214  10.904
64264SOL    HW294690  10.755  13.161  10.799
64265SOL     OW94691  13.213   1.132   0.780
64265SOL    HW194692  13.224   1.041   0.809
64265SOL    HW294693  13.302   1.166   0.777
64266SOL     OW94694  11.982  12.560   9.294
64266SOL    HW194695  11.982  12.606   9.210
64266SOL    HW294696  11.934  12.618   9.353
64267SOL     OW94697  10.931   0.248   7.339
64267SOL    HW194698  10.948   0.234   7.246
64267SOL    HW294699  10.838   0.225   7.351
64268SOL     OW94700   2.783   0.660   3.297
64268SOL    HW194701   2.740   0.745   3.286
64268SOL    HW294702   2.829   0.667   3.380
64269SOL     OW94703   8.809  14.728   5.560
64269SOL    HW194704   8.721  14.765   5.561
64269SOL    HW294705   8.841  14.742   5.471
64270SOL     OW94706   5.273   6.575   6.646
64270SOL    HW194707   5.317   6.659   6.637
64270SOL    HW294708   5.241   6.556   6.557
64271SOL     OW94709   3.803  14.028  13.285
64271SOL    HW194710   3.798  13.988  13.198
64271SOL    HW294711   3.883  14.081  13.282
64272SOL     OW94712   9.375   8.016  10.392
64272SOL    HW194713   9.307   8.021  10.325
64272SOL    HW294714   9.454   8.052  10.350
64273SOL     OW94715  13.624   8.066   8.696
64273SOL    HW194716  13.572   8.052   8.618
64273SOL    HW294717  13.592   8.002   8.759
64274SOL     OW94718   3.171   3.811  12.698
64274SOL    HW194719   3.157   3.759  12.777
64274SOL    HW294720   3.134   3.897  12.719
64275SOL     OW94721   0.796   3.537   0.014
64275SOL    HW194722   0.798   3.555  14.792
64275SOL    HW294723   0.751   3.452   0.021
64276SOL     OW94724   1.675   5.246   9.051
64276SOL    HW194725   1.637   5.297   9.122
64276SOL    HW294726   1.682   5.157   9.086
64277SOL     OW94727   7.742   2.158   4.172
64277SOL    HW194728   7.817   2.215   4.155
64277SOL    HW294729   7.689   2.164   4.093
64278SOL     OW94730  12.809   1.227   6.003
64278SOL    HW194731  12.791   1.133   6.006
64278SOL    HW294732  12.817   1.253   6.095
64279SOL     OW94733   6.400   9.787   5.760
64279SOL    HW194734   6.434   9.778   5.849
64279SOL    HW294735   6.464   9.740   5.705
64280SOL     OW94736   7.760   0.984  11.182
64280SOL    HW194737   7.769   1.050  11.113
64280SOL    HW294738   7.843   0.936  11.180
64281SOL     OW94739  10.987  12.635  12.555
64281SOL    HW194740  10.916  12.689  12.589
64281SOL    HW294741  11.043  12.619  12.630
64282SOL     OW94742  12.345   5.010   0.924
64282SOL    HW194743  12.371   4.995   1.015
64282SOL    HW294744  12.255   4.979   0.919
64283SOL     OW94745  11.737  14.345   7.773
64283SOL    HW194746  11.790  14.420   7.799
64283SOL    HW294747  11.671  14.337   7.842
64284SOL     OW94748   9.197  12.770   0.459
64284SOL    HW194749   9.224  12.688   0.419
64284SOL    HW294750   9.196  12.752   0.553
64285SOL     OW94751  13.606   2.312   3.417
64285SOL    HW194752  13.645   2.257   3.348
64285SOL    HW294753  13.594   2.253   3.491
64286SOL     OW94754   2.904   9.531   9.644
64286SOL    HW194755   2.859   9.606   9.608
64286SOL    HW294756   2.887   9.460   9.582
64287SOL     OW94757   8.915   6.299   1.143
64287SOL    HW194758   8.857   6.249   1.200
64287SOL    HW294759   8.936   6.240   1.071
64288SOL     OW94760   7.064   0.610   2.828
64288SOL    HW194761   7.019   0.636   2.748
64288SOL    HW294762   7.146   0.572   2.799
64289SOL     OW94763  13.902   2.117  11.184
64289SOL    HW194764  13.947   2.190  11.227
64289SOL    HW294765  13.955   2.101  11.105
64290SOL     OW94766   4.424   1.756   0.228
64290SOL    HW194767   4.361   1.769   0.157
64290SOL    HW294768   4.446   1.845   0.256
64291SOL     OW94769   4.452   2.622   2.645
64291SOL    HW194770   4.402   2.541   2.635
64291SOL    HW294771   4.403   2.673   2.710
64292SOL     OW94772  12.928   8.114   7.386
64292SOL    HW194773  12.960   8.027   7.409
64292SOL    HW294774  13.006   8.164   7.365
64293SOL     OW94775  11.026   0.603   9.998
64293SOL    HW194776  11.114   0.638  10.006
64293SOL    HW294777  11.032   0.513  10.029
64294SOL     OW94778   5.468   0.624   0.912
64294SOL    HW194779   5.373   0.626   0.909
64294SOL    HW294780   5.492   0.691   0.976
64295SOL     OW94781   7.409   7.870   2.002
64295SOL    HW194782   7.473   7.848   1.935
64295SOL    HW294783   7.328   7.887   1.954
64296SOL     OW94784   0.368   3.537   3.537
64296SOL    HW194785   0.416   3.510   3.459
64296SOL    HW294786   0.289   3.579   3.503
64297SOL     OW94787   4.783   9.367   7.587
64297SOL    HW194788   4.867   9.375   7.633
64297SOL    HW294789   4.717   9.379   7.654
64298SOL     OW94790   4.998   3.958   8.441
64298SOL    HW194791   5.074   3.943   8.384
64298SOL    HW294792   5.036   3.990   8.523
64299SOL     OW94793   9.886   4.517   0.348
64299SOL    HW194794   9.882   4.481   0.437
64299SOL    HW294795   9.833   4.458   0.295
64300SOL     OW94796   8.886   2.779   3.724
64300SOL    HW194797   8.926   2.867   3.725
64300SOL    HW294798   8.891   2.752   3.633
64301SOL     OW94799  13.604   9.670   4.945
64301SOL    HW194800  13.620   9.741   4.883
64301SOL    HW294801  13.586   9.594   4.890
64302SOL     OW94802  14.066  12.208  13.201
64302SOL    HW194803  14.057  12.255  13.284
64302SOL    HW294804  14.062  12.116  13.226
64303SOL     OW94805   8.522  11.852   9.444
64303SOL    HW194806   8.484  11.802   9.372
64303SOL    HW294807   8.553  11.785   9.505
64304SOL     OW94808   1.857  12.247  11.721
64304SOL    HW194809   1.906  12.300  11.785
64304SOL    HW294810   1.765  12.260  11.744
64305SOL     OW94811   2.365  13.553  12.869
64305SOL    HW194812   2.316  13.479  12.833
64305SOL    HW294813   2.345  13.552  12.963
64306SOL     OW94814  10.813  11.978   1.578
64306SOL    HW194815  10.738  11.983   1.519
64306SOL    HW294816  10.882  12.027   1.534
64307SOL     OW94817   7.485   4.998   3.392
64307SOL    HW194818   7.562   5.045   3.423
64307SOL    HW294819   7.432   4.984   3.470
64308SOL     OW94820   2.469  14.429   7.376
64308SOL    HW194821   2.492  14.480   7.298
64308SOL    HW294822   2.531  14.356   7.376
64309SOL     OW94823   1.512   1.402   1.555
64309SOL    HW194824   1.476   1.491   1.557
64309SOL    HW294825   1.584   1.405   1.617
64310SOL     OW94826   1.963   8.838  11.232
64310SOL    HW194827   1.987   8.931  11.235
64310SOL    HW294828   1.880   8.836  11.186
64311SOL     OW94829  10.582   8.073  13.312
64311SOL    HW194830  10.657   8.064  13.253
64311SOL    HW294831  10.563   8.167  13.313
64312SOL     OW94832  14.553   5.036  11.808
64312SOL    HW194833  14.486   5.057  11.742
64312SOL    HW294834  14.522   4.954  11.847
64313SOL     OW94835  11.865   9.160  13.278
64313SOL    HW194836  11.854   9.239  13.225
64313SOL    HW294837  11.957   9.136  13.267
64314SOL     OW94838   4.155   7.618   1.384
64314SOL    HW194839   4.157   7.524   1.401
64314SOL    HW294840   4.062   7.639   1.377
64315SOL     OW94841   5.928   9.740  13.105
64315SOL    HW194842   5.912   9.815  13.049
64315SOL    HW294843   5.880   9.668  13.064
64316SOL     OW94844  11.130   8.052   0.669
64316SOL    HW194845  11.192   8.096   0.727
64316SOL    HW294846  11.147   8.090   0.583
64317SOL     OW94847   3.713  14.535   3.089
64317SOL    HW194848   3.803  14.566   3.079
64317SOL    HW294849   3.690  14.555   3.179
64318SOL     OW94850   0.340   8.545   3.114
64318SOL    HW194851   0.324   8.527   3.207
64318SOL    HW294852   0.398   8.475   3.086
64319SOL     OW94853   6.703   3.411   6.343
64319SOL    HW194854   6.626   3.398   6.288
64319SOL    HW294855   6.667   3.441   6.427
64320SOL     OW94856   4.473  14.500   5.587
64320SOL    HW194857   4.450  14.408   5.601
64320SOL    HW294858   4.427  14.524   5.506
64321SOL     OW94859   4.485   6.542   7.466
64321SOL    HW194860   4.401   6.581   7.491
64321SOL    HW294861   4.462   6.476   7.401
64322SOL     OW94862   3.914   3.158   1.222
64322SOL    HW194863   3.932   3.199   1.307
64322SOL    HW294864   3.941   3.224   1.158
64323SOL     OW94865   6.911   8.041   5.256
64323SOL    HW194866   6.971   8.075   5.321
64323SOL    HW294867   6.967   8.007   5.186
64324SOL     OW94868  12.571   8.887  11.471
64324SOL    HW194869  12.666   8.880  11.465
64324SOL    HW294870  12.550   8.852  11.558
64325SOL     OW94871   3.433  10.968   2.926
64325SOL    HW194872   3.513  10.942   2.972
64325SOL    HW294873   3.443  11.063   2.913
64326SOL     OW94874   2.910   4.123   4.175
64326SOL    HW194875   2.888   4.030   4.165
64326SOL    HW294876   2.959   4.144   4.096
64327SOL     OW94877  14.600   3.913  10.512
64327SOL    HW194878  14.556   3.896  10.429
64327SOL    HW294879  14.533   3.956  10.566
64328SOL     OW94880   1.956   1.824  14.273
64328SOL    HW194881   1.940   1.752  14.334
64328SOL    HW294882   2.038   1.863  14.304
64329SOL     OW94883   7.544  10.942   0.420
64329SOL    HW194884   7.607  11.014   0.425
64329SOL    HW294885   7.494  10.960   0.341
64330SOL     OW94886   3.665  10.062  10.344
64330SOL    HW194887   3.607   9.987  10.330
64330SOL    HW294888   3.741  10.025  10.389
64331SOL     OW94889  10.315  12.993  12.431
64331SOL    HW194890  10.367  12.915  12.452
64331SOL    HW294891  10.337  13.056  12.500
64332SOL     OW94892   1.082  12.293  13.268
64332SOL    HW194893   1.151  12.297  13.334
64332SOL    HW294894   1.073  12.200  13.248
64333SOL     OW94895   4.602  12.135   5.263
64333SOL    HW194896   4.685  12.090   5.279
64333SOL    HW294897   4.604  12.209   5.324
64334SOL     OW94898   7.227  10.238   9.125
64334SOL    HW194899   7.154  10.197   9.078
64334SOL    HW294900   7.192  10.256   9.212
64335SOL     OW94901   6.331   1.525  13.308
64335SOL    HW194902   6.312   1.597  13.369
64335SOL    HW294903   6.273   1.543  13.233
64336SOL     OW94904  13.181  14.030   3.206
64336SOL    HW194905  13.089  14.051   3.189
64336SOL    HW294906  13.184  14.006   3.298
64337SOL     OW94907   8.755  14.106  14.143
64337SOL    HW194908   8.803  14.062  14.073
64337SOL    HW294909   8.731  14.191  14.106
64338SOL     OW94910   3.530  13.654   4.292
64338SOL    HW194911   3.623  13.650   4.312
64338SOL    HW294912   3.512  13.746   4.275
64339SOL     OW94913   8.243   8.954  12.284
64339SOL    HW194914   8.208   9.034  12.243
64339SOL    HW294915   8.309   8.986  12.346
64340SOL     OW94916   0.669  12.225  11.655
64340SOL    HW194917   0.668  12.320  11.663
64340SOL    HW294918   0.669  12.209  11.561
64341SOL     OW94919  10.183  14.074  12.671
64341SOL    HW194920  10.276  14.054  12.666
64341SOL    HW294921  10.140  13.989  12.675
64342SOL     OW94922   3.801   2.151   6.060
64342SOL    HW194923   3.873   2.089   6.066
64342SOL    HW294924   3.785   2.179   6.151
64343SOL     OW94925  11.555   1.377   7.511
64343SOL    HW194926  11.531   1.286   7.491
64343SOL    HW294927  11.636   1.391   7.461
64344SOL     OW94928   9.141   7.784  12.839
64344SOL    HW194929   9.061   7.820  12.799
64344SOL    HW294930   9.210   7.804  12.776
64345SOL     OW94931   9.978  14.771   2.164
64345SOL    HW194932  10.054  14.811   2.207
64345SOL    HW294933   9.923  14.741   2.235
64346SOL     OW94934   0.387   9.530   6.035
64346SOL    HW194935   0.333   9.602   6.005
64346SOL    HW294936   0.475   9.566   6.041
64347SOL     OW94937  13.006   9.670   0.041
64347SOL    HW194938  12.996   9.765   0.032
64347SOL    HW294939  13.001   9.654   0.136
64348SOL     OW94940   3.487   4.176  11.441
64348SOL    HW194941   3.521   4.177  11.351
64348SOL    HW294942   3.561   4.198  11.496
64349SOL     OW94943   2.116  13.426  12.610
64349SOL    HW194944   2.036  13.429  12.662
64349SOL    HW294945   2.181  13.388  12.668
64350SOL     OW94946  12.097   3.198   5.907
64350SOL    HW194947  12.183   3.185   5.869
64350SOL    HW294948  12.047   3.242   5.838
64351SOL     OW94949   4.229   8.307   7.105
64351SOL    HW194950   4.224   8.401   7.084
64351SOL    HW294951   4.279   8.304   7.186
64352SOL     OW94952   5.908  12.856   2.368
64352SOL    HW194953   5.873  12.889   2.451
64352SOL    HW294954   5.988  12.907   2.354
64353SOL     OW94955   7.062   5.627  12.660
64353SOL    HW194956   7.079   5.603  12.751
64353SOL    HW294957   6.983   5.681  12.664
64354SOL     OW94958   8.895  14.380   5.302
64354SOL    HW194959   8.959  14.450   5.287
64354SOL    HW294960   8.932  14.328   5.373
64355SOL     OW94961  10.256   5.169  14.176
64355SOL    HW194962  10.334   5.121  14.149
64355SOL    HW294963  10.290   5.241  14.230
64356SOL     OW94964  12.820   0.493   7.164
64356SOL    HW194965  12.878   0.418   7.173
64356SOL    HW294966  12.877   0.569   7.175
64357SOL     OW94967  13.315   9.285   7.037
64357SOL    HW194968  13.232   9.243   7.015
64357SOL    HW294969  13.302   9.321   7.124
64358SOL     OW94970   8.434  12.079  11.352
64358SOL    HW194971   8.409  11.986  11.345
64358SOL    HW294972   8.384  12.122  11.283
64359SOL     OW94973   5.934  10.950   0.886
64359SOL    HW194974   5.895  11.033   0.911
64359SOL    HW294975   6.024  10.972   0.861
64360SOL     OW94976   7.043   6.692   7.069
64360SOL    HW194977   7.121   6.674   7.121
64360SOL    HW294978   7.030   6.786   7.077
64361SOL     OW94979   9.956  13.287  11.619
64361SOL    HW194980   9.943  13.379  11.641
64361SOL    HW294981   9.889  13.268  11.553
64362SOL     OW94982  12.934   9.989   5.970
64362SOL    HW194983  12.928  10.025   6.058
64362SOL    HW294984  12.893  10.055   5.914
64363SOL     OW94985   8.460  10.085   7.372
64363SOL    HW194986   8.437  10.000   7.334
64363SOL    HW294987   8.541  10.068   7.420
64364SOL     OW94988   4.418   8.593   2.277
64364SOL    HW194989   4.420   8.599   2.373
64364SOL    HW294990   4.352   8.526   2.259
64365SOL     OW94991   5.714   1.847   4.971
64365SOL    HW194992   5.632   1.822   4.928
64365SOL    HW294993   5.781   1.799   4.923
64366SOL     OW94994  10.005  13.752   5.958
64366SOL    HW194995  10.008  13.729   6.051
64366SOL    HW294996   9.919  13.792   5.946
64367SOL     OW94997   6.160  10.984   4.014
64367SOL    HW194998   6.209  10.932   4.077
64367SOL    HW294999   6.114  11.049   4.066
64368SOL     OW95000   4.944   7.990  10.332
64368SOL    HW195001   4.951   8.077  10.372
64368SOL    HW295002   4.968   8.003  10.241
64369SOL     OW95003   7.378  10.988  13.239
64369SOL    HW195004   7.285  11.003  13.223
64369SOL    HW295005   7.421  11.011  13.156
64370SOL     OW95006   2.577   1.591  11.385
64370SOL    HW195007   2.556   1.633  11.468
64370SOL    HW295008   2.672   1.597  11.378
64371SOL     OW95009   3.599   9.370   1.591
64371SOL    HW195010   3.578   9.287   1.634
64371SOL    HW295011   3.526   9.428   1.613
64372SOL     OW95012   7.424   1.670  13.278
64372SOL    HW195013   7.392   1.721  13.352
64372SOL    HW295014   7.362   1.688  13.207
64373SOL     OW95015  13.987  12.317   8.497
64373SOL    HW195016  13.992  12.354   8.585
64373SOL    HW295017  13.960  12.226   8.511
64374SOL     OW95018   6.534  11.938   8.900
64374SOL    HW195019   6.618  11.907   8.932
64374SOL    HW295020   6.470  11.881   8.941
64375SOL     OW95021   6.030   5.643   8.552
64375SOL    HW195022   6.020   5.684   8.466
64375SOL    HW295023   6.058   5.715   8.609
64376SOL     OW95024   3.451   5.034   0.578
64376SOL    HW195025   3.455   5.129   0.587
64376SOL    HW295026   3.539   5.009   0.550
64377SOL     OW95027  12.759   4.404  11.302
64377SOL    HW195028  12.785   4.313  11.287
64377SOL    HW295029  12.835   4.455  11.271
64378SOL     OW95030  14.277   9.513   0.403
64378SOL    HW195031  14.340   9.477   0.465
64378SOL    HW295032  14.261   9.443   0.340
64379SOL     OW95033  12.998   0.843  14.003
64379SOL    HW195034  13.084   0.848  13.959
64379SOL    HW295035  12.937   0.823  13.932
64380SOL     OW95036   2.213   4.248   8.896
64380SOL    HW195037   2.127   4.210   8.876
64380SOL    HW295038   2.208   4.271   8.988
64381SOL     OW95039   0.184  11.859  14.132
64381SOL    HW195040   0.110  11.871  14.192
64381SOL    HW295041   0.241  11.795  14.175
64382SOL     OW95042   8.720   9.478   8.396
64382SOL    HW195043   8.748   9.417   8.328
64382SOL    HW295044   8.733   9.565   8.357
64383SOL     OW95045  13.262  13.866   4.334
64383SOL    HW195046  13.243  13.774   4.351
64383SOL    HW295047  13.209  13.913   4.399
64384SOL     OW95048   3.035   0.586   2.178
64384SOL    HW195049   3.069   0.612   2.264
64384SOL    HW295050   3.110   0.597   2.119
64385SOL     OW95051   8.601   9.282  12.288
64385SOL    HW195052   8.641   9.235  12.214
64385SOL    HW295053   8.516   9.311  12.254
64386SOL     OW95054   4.995   8.666  12.992
64386SOL    HW195055   4.930   8.736  12.980
64386SOL    HW295056   5.053   8.675  12.917
64387SOL     OW95057   0.292   0.889   2.529
64387SOL    HW195058   0.219   0.827   2.535
64387SOL    HW295059   0.366   0.837   2.497
64388SOL     OW95060   4.095  11.682  14.359
64388SOL    HW195061   4.045  11.696  14.278
64388SOL    HW295062   4.171  11.738  14.349
64389SOL     OW95063  12.853   0.860   0.849
64389SOL    HW195064  12.804   0.782   0.876
64389SOL    HW295065  12.788   0.930   0.847
64390SOL     OW95066   1.277  13.370   9.930
64390SOL    HW195067   1.353  13.367   9.989
64390SOL    HW295068   1.300  13.438   9.866
64391SOL     OW95069   9.654  10.230  11.403
64391SOL    HW195070   9.623  10.307  11.449
64391SOL    HW295071   9.575  10.187  11.371
64392SOL     OW95072   9.052   6.789   3.488
64392SOL    HW195073   8.982   6.723   3.488
64392SOL    HW295074   9.081   6.792   3.397
64393SOL     OW95075  13.271   7.311  11.482
64393SOL    HW195076  13.230   7.360  11.411
64393SOL    HW295077  13.199   7.264  11.523
64394SOL     OW95078  14.372   5.180  13.356
64394SOL    HW195079  14.296   5.163  13.412
64394SOL    HW295080  14.418   5.252  13.399
64395SOL     OW95081   5.363   9.394   9.158
64395SOL    HW195082   5.340   9.482   9.128
64395SOL    HW295083   5.392   9.406   9.248
64396SOL     OW95084  13.650   7.237   2.886
64396SOL    HW195085  13.609   7.290   2.818
64396SOL    HW295086  13.604   7.263   2.966
64397SOL     OW95087  12.057   0.228  10.921
64397SOL    HW195088  12.092   0.313  10.947
64397SOL    HW295089  11.991   0.248  10.854
64398SOL     OW95090   8.150   7.877   0.887
64398SOL    HW195091   8.236   7.876   0.928
64398SOL    HW295092   8.092   7.915   0.954
64399SOL     OW95093   2.928   5.915   0.297
64399SOL    HW195094   2.927   5.998   0.346
64399SOL    HW295095   3.014   5.913   0.255
64400SOL     OW95096  14.471   2.270  13.897
64400SOL    HW195097  14.456   2.296  13.988
64400SOL    HW295098  14.510   2.183  13.903
64401SOL     OW95099   8.679   8.551   3.247
64401SOL    HW195100   8.613   8.561   3.179
64401SOL    HW295101   8.762   8.560   3.202
64402SOL     OW95102   7.023  14.038   0.630
64402SOL    HW195103   6.994  14.078   0.711
64402SOL    HW295104   7.015  14.107   0.564
64403SOL     OW95105  14.771   6.430  14.156
64403SOL    HW195106  14.820   6.400  14.080
64403SOL    HW295107  14.834   6.481  14.206
64404SOL     OW95108   6.717  10.510   3.063
64404SOL    HW195109   6.728  10.599   3.028
64404SOL    HW295110   6.704  10.455   2.987
64405SOL     OW95111  10.259   6.377   3.927
64405SOL    HW195112  10.175   6.350   3.964
64405SOL    HW295113  10.311   6.402   4.003
64406SOL     OW95114  13.643   5.189   8.970
64406SOL    HW195115  13.596   5.111   8.940
64406SOL    HW295116  13.735   5.171   8.952
64407SOL     OW95117   0.887   7.728  10.618
64407SOL    HW195118   0.933   7.749  10.537
64407SOL    HW295119   0.866   7.635  10.611
64408SOL     OW95120  10.598   8.289   7.032
64408SOL    HW195121  10.598   8.235   7.112
64408SOL    HW295122  10.530   8.355   7.048
64409SOL     OW95123   6.816   5.110   1.357
64409SOL    HW195124   6.855   5.035   1.311
64409SOL    HW295125   6.849   5.187   1.310
64410SOL     OW95126   3.931  12.639   3.143
64410SOL    HW195127   3.874  12.640   3.067
64410SOL    HW295128   4.017  12.615   3.109
64411SOL     OW95129   2.587  13.934   0.684
64411SOL    HW195130   2.570  13.982   0.603
64411SOL    HW295131   2.561  13.844   0.664
64412SOL     OW95132  14.234  10.394   4.312
64412SOL    HW195133  14.268  10.392   4.223
64412SOL    HW295134  14.140  10.375   4.302
64413SOL     OW95135   9.124  11.661  14.282
64413SOL    HW195136   9.072  11.662  14.201
64413SOL    HW295137   9.187  11.732  14.271
64414SOL     OW95138   0.205   5.996   2.238
64414SOL    HW195139   0.296   6.002   2.270
64414SOL    HW295140   0.211   5.938   2.162
64415SOL     OW95141   2.957   4.603   8.668
64415SOL    HW195142   2.864   4.623   8.658
64415SOL    HW295143   3.000   4.656   8.601
64416SOL     OW95144   8.138  12.706   8.897
64416SOL    HW195145   8.216  12.662   8.929
64416SOL    HW295146   8.117  12.772   8.964
64417SOL     OW95147   2.783  10.691  11.647
64417SOL    HW195148   2.805  10.598  11.646
64417SOL    HW295149   2.862  10.735  11.678
64418SOL     OW95150  10.325   0.739  14.372
64418SOL    HW195151  10.396   0.698  14.421
64418SOL    HW295152  10.317   0.688  14.292
64419SOL     OW95153   9.121   1.689   4.082
64419SOL    HW195154   9.035   1.722   4.057
64419SOL    HW295155   9.108   1.595   4.096
64420SOL     OW95156   6.756   2.463   1.371
64420SOL    HW195157   6.812   2.393   1.403
64420SOL    HW295158   6.784   2.479   1.281
64421SOL     OW95159   1.505  11.988  10.062
64421SOL    HW195160   1.431  11.929  10.074
64421SOL    HW295161   1.474  12.053   9.999
64422SOL     OW95162   1.065  10.342  10.372
64422SOL    HW195163   1.054  10.355  10.278
64422SOL    HW295164   1.002  10.402  10.412
64423SOL     OW95165   5.271  11.693  10.435
64423SOL    HW195166   5.265  11.598  10.438
64423SOL    HW295167   5.343  11.714  10.494
64424SOL     OW95168   4.174   6.119   4.612
64424SOL    HW195169   4.125   6.083   4.538
64424SOL    HW295170   4.260   6.077   4.607
64425SOL     OW95171   4.444   6.805   1.843
64425SOL    HW195172   4.511   6.842   1.901
64425SOL    HW295173   4.422   6.721   1.883
64426SOL     OW95174  14.246   7.474  10.825
64426SOL    HW195175  14.260   7.553  10.772
64426SOL    HW295176  14.303   7.409  10.785
64427SOL     OW95177   8.137   3.091   6.701
64427SOL    HW195178   8.171   3.065   6.615
64427SOL    HW295179   8.065   3.031   6.718
64428SOL     OW95180  13.390  11.622   1.934
64428SOL    HW195181  13.456  11.691   1.924
64428SOL    HW295182  13.311  11.669   1.962
64429SOL     OW95183  10.940  11.022  11.085
64429SOL    HW195184  10.849  11.008  11.111
64429SOL    HW295185  10.979  11.067  11.159
64430SOL     OW95186  13.277   9.450   3.016
64430SOL    HW195187  13.264   9.442   3.110
64430SOL    HW295188  13.196   9.487   2.983
64431SOL     OW95189  14.404   4.013   7.052
64431SOL    HW195190  14.420   3.942   6.990
64431SOL    HW295191  14.312   4.002   7.076
64432SOL     OW95192   5.210   5.003  14.675
64432SOL    HW195193   5.227   4.913  14.649
64432SOL    HW295194   5.294   5.035  14.708
64433SOL     OW95195  13.913   2.146   4.646
64433SOL    HW195196  13.939   2.069   4.594
64433SOL    HW295197  13.917   2.219   4.584
64434SOL     OW95198   3.520  10.987  12.773
64434SOL    HW195199   3.514  10.893  12.793
64434SOL    HW295200   3.429  11.015  12.765
64435SOL     OW95201  11.400   8.356  13.566
64435SOL    HW195202  11.326   8.328  13.512
64435SOL    HW295203  11.477   8.325  13.518
64436SOL     OW95204  14.487  10.470   1.055
64436SOL    HW195205  14.581  10.484   1.066
64436SOL    HW295206  14.454  10.462   1.145
64437SOL     OW95207   8.721   5.043  10.870
64437SOL    HW195208   8.786   4.974  10.855
64437SOL    HW295209   8.658   5.034  10.798
64438SOL     OW95210   3.766   2.404  14.367
64438SOL    HW195211   3.677   2.370  14.370
64438SOL    HW295212   3.801   2.387  14.455
64439SOL     OW95213   6.384   6.863  12.112
64439SOL    HW195214   6.346   6.789  12.065
64439SOL    HW295215   6.465   6.829  12.149
64440SOL     OW95216   7.141   1.785   3.492
64440SOL    HW195217   7.172   1.780   3.402
64440SOL    HW295218   7.071   1.720   3.497
64441SOL     OW95219  10.309   8.972  12.048
64441SOL    HW195220  10.275   8.950  11.961
64441SOL    HW295221  10.263   9.053  12.072
64442SOL     OW95222  12.105   6.656  12.484
64442SOL    HW195223  12.097   6.596  12.410
64442SOL    HW295224  12.097   6.600  12.561
64443SOL     OW95225   6.205   7.173  14.381
64443SOL    HW195226   6.130   7.166  14.440
64443SOL    HW295227   6.166   7.183  14.294
64444SOL     OW95228   8.495   1.303   5.776
64444SOL    HW195229   8.421   1.308   5.715
64444SOL    HW295230   8.457   1.271   5.857
64445SOL     OW95231   9.581  13.699   3.173
64445SOL    HW195232   9.584  13.652   3.089
64445SOL    HW295233   9.555  13.788   3.149
64446SOL     OW95234   6.661  10.021   3.166
64446SOL    HW195235   6.597   9.958   3.197
64446SOL    HW295236   6.671  10.001   3.073
64447SOL     OW95237   9.857   6.961  14.471
64447SOL    HW195238   9.948   6.975  14.442
64447SOL    HW295239   9.812   6.928  14.394
64448SOL     OW95240   8.849   1.901   7.774
64448SOL    HW195241   8.943   1.909   7.790
64448SOL    HW295242   8.809   1.961   7.837
64449SOL     OW95243  14.505   0.198   2.202
64449SOL    HW195244  14.417   0.231   2.181
64449SOL    HW295245  14.523   0.231   2.290
64450SOL     OW95246   0.113  13.088  12.343
64450SOL    HW195247   0.106  13.092  12.248
64450SOL    HW295248   0.034  13.132  12.375
64451SOL     OW95249   2.552  11.250   2.261
64451SOL    HW195250   2.492  11.182   2.231
64451SOL    HW295251   2.611  11.264   2.186
64452SOL     OW95252   8.280  14.265  12.940
64452SOL    HW195253   8.237  14.183  12.912
64452SOL    HW295254   8.351  14.236  12.997
64453SOL     OW95255  14.318  11.086   4.786
64453SOL    HW195256  14.380  11.116   4.853
64453SOL    HW295257  14.269  11.016   4.829
64454SOL     OW95258   6.553   4.719  12.642
64454SOL    HW195259   6.582   4.629  12.659
64454SOL    HW295260   6.457   4.713  12.639
64455SOL     OW95261   9.158   2.121  13.742
64455SOL    HW195262   9.160   2.052  13.808
64455SOL    HW295263   9.165   2.202  13.793
64456SOL     OW95264  12.449   2.571   6.611
64456SOL    HW195265  12.360   2.585   6.643
64456SOL    HW295266  12.466   2.478   6.628
64457SOL     OW95267   8.705  11.621   5.600
64457SOL    HW195268   8.724  11.714   5.614
64457SOL    HW295269   8.630  11.622   5.540
64458SOL     OW95270   2.903   2.436   5.350
64458SOL    HW195271   2.966   2.444   5.278
64458SOL    HW295272   2.939   2.366   5.406
64459SOL     OW95273   8.677  13.367  10.392
64459SOL    HW195274   8.591  13.407  10.399
64459SOL    HW295275   8.739  13.440  10.394
64460SOL     OW95276   2.728   5.523   2.018
64460SOL    HW195277   2.642   5.484   2.000
64460SOL    HW295278   2.727   5.541   2.112
64461SOL     OW95279   9.796  11.687   1.620
64461SOL    HW195280   9.779  11.715   1.530
64461SOL    HW295281   9.857  11.752   1.654
64462SOL     OW95282  11.463  12.841  11.156
64462SOL    HW195283  11.487  12.753  11.184
64462SOL    HW295284  11.525  12.861  11.085
64463SOL     OW95285   2.098  13.342  11.033
64463SOL    HW195286   2.077  13.435  11.043
64463SOL    HW295287   2.158  13.324  11.106
64464SOL     OW95288   9.116   8.538   4.907
64464SOL    HW195289   9.038   8.499   4.868
64464SOL    HW295290   9.087   8.573   4.991
64465SOL     OW95291   7.640  14.034  12.255
64465SOL    HW195292   7.712  14.034  12.319
64465SOL    HW295293   7.673  14.088  12.183
64466SOL     OW95294  11.112   5.891   9.128
64466SOL    HW195295  11.149   5.978   9.139
64466SOL    HW295296  11.018   5.906   9.119
64467SOL     OW95297   6.572   3.459  11.879
64467SOL    HW195298   6.553   3.370  11.906
64467SOL    HW295299   6.659   3.455  11.838
64468SOL     OW95300   9.632   4.307  14.334
64468SOL    HW195301   9.579   4.281  14.409
64468SOL    HW295302   9.638   4.402  14.341
64469SOL     OW95303  14.785   5.179  12.881
64469SOL    HW195304  14.803   5.094  12.921
64469SOL    HW295305  14.871   5.215  12.860
64470SOL     OW95306   1.662  11.476   5.577
64470SOL    HW195307   1.662  11.523   5.493
64470SOL    HW295308   1.683  11.544   5.642
64471SOL     OW95309   5.035  12.664   4.759
64471SOL    HW195310   5.112  12.703   4.800
64471SOL    HW295311   4.976  12.738   4.744
64472SOL     OW95312   0.852   1.271   2.510
64472SOL    HW195313   0.879   1.348   2.461
64472SOL    HW295314   0.879   1.289   2.600
64473SOL     OW95315   8.469  12.378  12.548
64473SOL    HW195316   8.439  12.462  12.583
64473SOL    HW295317   8.409  12.313  12.585
64474SOL     OW95318   5.598  10.966  11.025
64474SOL    HW195319   5.536  11.012  11.082
64474SOL    HW295320   5.597  10.876  11.058
64475SOL     OW95321   4.723   4.286   6.854
64475SOL    HW195322   4.785   4.258   6.921
64475SOL    HW295323   4.775   4.337   6.792
64476SOL     OW95324  13.106   5.835   8.486
64476SOL    HW195325  13.141   5.754   8.448
64476SOL    HW295326  13.094   5.894   8.412
64477SOL     OW95327   6.781   9.497   3.574
64477SOL    HW195328   6.821   9.455   3.650
64477SOL    HW295329   6.772   9.427   3.510
64478SOL     OW95330   5.240   7.957  12.088
64478SOL    HW195331   5.326   7.967  12.047
64478SOL    HW295332   5.193   7.896  12.032
64479SOL     OW95333  12.698   4.591   3.186
64479SOL    HW195334  12.762   4.568   3.118
64479SOL    HW295335  12.624   4.629   3.138
64480SOL     OW95336   8.955   8.787   0.317
64480SOL    HW195337   8.973   8.712   0.373
64480SOL    HW295338   8.945   8.750   0.230
64481SOL     OW95339   5.324   1.860  13.753
64481SOL    HW195340   5.359   1.789  13.699
64481SOL    HW295341   5.353   1.839  13.842
64482SOL     OW95342  13.284  12.318  10.697
64482SOL    HW195343  13.358  12.337  10.639
64482SOL    HW295344  13.227  12.395  10.690
64483SOL     OW95345   5.898  11.225   9.227
64483SOL    HW195346   5.871  11.245   9.316
64483SOL    HW295347   5.888  11.131   9.219
64484SOL     OW95348  13.530   3.414  10.287
64484SOL    HW195349  13.512   3.494  10.238
64484SOL    HW295350  13.625   3.410  10.292
64485SOL     OW95351   6.607   8.621  10.480
64485SOL    HW195352   6.591   8.632  10.574
64485SOL    HW295353   6.679   8.558  10.475
64486SOL     OW95354   3.749   8.043  13.232
64486SOL    HW195355   3.739   8.138  13.218
64486SOL    HW295356   3.732   8.031  13.326
64487SOL     OW95357  13.193  13.138   7.928
64487SOL    HW195358  13.272  13.189   7.911
64487SOL    HW295359  13.143  13.144   7.847
64488SOL     OW95360   8.031   4.472   5.479
64488SOL    HW195361   8.069   4.417   5.411
64488SOL    HW295362   7.987   4.543   5.432
64489SOL     OW95363   8.274   9.937   3.578
64489SOL    HW195364   8.197   9.989   3.554
64489SOL    HW295365   8.250   9.847   3.556
64490SOL     OW95366   8.825   8.110   8.101
64490SOL    HW195367   8.877   8.190   8.094
64490SOL    HW295368   8.845   8.060   8.022
64491SOL     OW95369   4.339   8.264   8.184
64491SOL    HW195370   4.247   8.286   8.203
64491SOL    HW295371   4.388   8.341   8.213
64492SOL     OW95372  13.228   9.034  14.105
64492SOL    HW195373  13.286   9.046  14.180
64492SOL    HW295374  13.286   9.034  14.029
64493SOL     OW95375   0.374   2.191   1.835
64493SOL    HW195376   0.361   2.278   1.798
64493SOL    HW295377   0.325   2.191   1.917
64494SOL     OW95378   7.739   9.144   5.530
64494SOL    HW195379   7.773   9.058   5.555
64494SOL    HW295380   7.684   9.169   5.604
64495SOL     OW95381   0.208  13.468  10.230
64495SOL    HW195382   0.132  13.492  10.178
64495SOL    HW295383   0.284  13.495  10.178
64496SOL     OW95384   6.016   9.850   5.051
64496SOL    HW195385   5.970   9.789   5.108
64496SOL    HW295386   5.949   9.914   5.025
64497SOL     OW95387   4.206   5.633  14.264
64497SOL    HW195388   4.138   5.697  14.288
64497SOL    HW295389   4.159   5.566  14.216
64498SOL     OW95390  14.231  12.456   7.287
64498SOL    HW195391  14.269  12.414   7.364
64498SOL    HW295392  14.264  12.406   7.213
64499SOL     OW95393   2.282  10.049   1.399
64499SOL    HW195394   2.228  10.105   1.454
64499SOL    HW295395   2.345  10.108   1.357
64500SOL     OW95396   9.529  11.346   0.688
64500SOL    HW195397   9.485  11.265   0.715
64500SOL    HW295398   9.622  11.326   0.699
64501SOL     OW95399  14.507  14.101   6.125
64501SOL    HW195400  14.431  14.108   6.067
64501SOL    HW295401  14.474  14.125   6.211
64502SOL     OW95402   7.703  11.574   7.877
64502SOL    HW195403   7.611  11.553   7.861
64502SOL    HW295404   7.751  11.520   7.814
64503SOL     OW95405   1.482   4.190   9.169
64503SOL    HW195406   1.396   4.175   9.130
64503SOL    HW295407   1.528   4.107   9.155
64504SOL     OW95408   9.876   9.155  11.824
64504SOL    HW195409   9.866   9.208  11.903
64504SOL    HW295410   9.890   9.219  11.754
64505SOL     OW95411   4.316   6.255  13.731
64505SOL    HW195412   4.226   6.227  13.710
64505SOL    HW295413   4.370   6.213  13.664
64506SOL     OW95414  11.210  13.392   0.605
64506SOL    HW195415  11.249  13.406   0.519
64506SOL    HW295416  11.127  13.439   0.602
64507SOL     OW95417   9.592  12.489  14.716
64507SOL    HW195418   9.610  12.460  14.627
64507SOL    HW295419   9.569  12.582  14.707
64508SOL     OW95420   4.163   7.087  11.549
64508SOL    HW195421   4.119   7.063  11.468
64508SOL    HW295422   4.106   7.150  11.591
64509SOL     OW95423   5.110   6.331  12.376
64509SOL    HW195424   5.090   6.396  12.443
64509SOL    HW295425   5.190   6.288  12.406
64510SOL     OW95426   3.316  10.726   4.667
64510SOL    HW195427   3.279  10.804   4.625
64510SOL    HW295428   3.410  10.742   4.670
64511SOL     OW95429  13.264  13.972   9.974
64511SOL    HW195430  13.199  13.903   9.984
64511SOL    HW295431  13.213  14.053   9.973
64512SOL     OW95432   1.107   7.500   7.440
64512SOL    HW195433   1.032   7.540   7.396
64512SOL    HW295434   1.104   7.535   7.529
64513SOL     OW95435   5.202  13.215  10.815
64513SOL    HW195436   5.222  13.137  10.762
64513SOL    HW295437   5.246  13.287  10.769
64514SOL     OW95438   1.412  10.249   9.143
64514SOL    HW195439   1.479  10.317   9.151
64514SOL    HW295440   1.412  10.205   9.227
64515SOL     OW95441   3.778   8.399   5.156
64515SOL    HW195442   3.687   8.410   5.185
64515SOL    HW295443   3.798   8.307   5.176
64516SOL     OW95444   2.295   1.471   8.491
64516SOL    HW195445   2.282   1.510   8.405
64516SOL    HW295446   2.299   1.546   8.551
64517SOL     OW95447   1.774   4.581   0.648
64517SOL    HW195448   1.806   4.495   0.620
64517SOL    HW295449   1.698   4.598   0.593
64518SOL     OW95450  12.751  11.181   4.960
64518SOL    HW195451  12.844  11.161   4.947
64518SOL    HW295452  12.725  11.126   5.034
64519SOL     OW95453   7.133  13.204   0.304
64519SOL    HW195454   7.154  13.150   0.228
64519SOL    HW295455   7.153  13.293   0.277
64520SOL     OW95456   1.324   5.315  11.630
64520SOL    HW195457   1.361   5.246  11.685
64520SOL    HW295458   1.286   5.269  11.556
64521SOL     OW95459  10.362   8.340  14.110
64521SOL    HW195460  10.393   8.255  14.141
64521SOL    HW295461  10.383   8.400  14.181
64522SOL     OW95462  13.851   6.117   4.279
64522SOL    HW195463  13.832   6.197   4.329
64522SOL    HW295464  13.771   6.100   4.229
64523SOL     OW95465  13.382  14.303  13.844
64523SOL    HW195466  13.347  14.232  13.790
64523SOL    HW295467  13.423  14.363  13.782
64524SOL     OW95468   3.351   2.013   2.116
64524SOL    HW195469   3.423   1.993   2.176
64524SOL    HW295470   3.294   2.070   2.167
64525SOL     OW95471   7.839  10.001   0.702
64525SOL    HW195472   7.744  10.005   0.695
64525SOL    HW295473   7.870  10.016   0.613
64526SOL     OW95474   3.554   4.698   4.252
64526SOL    HW195475   3.636   4.746   4.240
64526SOL    HW295476   3.542   4.651   4.169
64527SOL     OW95477   7.720   6.683   6.441
64527SOL    HW195478   7.787   6.731   6.393
64527SOL    HW295479   7.695   6.741   6.512
64528SOL     OW95480  12.715   9.350   0.769
64528SOL    HW195481  12.644   9.405   0.802
64528SOL    HW295482  12.783   9.412   0.744
64529SOL     OW95483   4.007   4.890  14.370
64529SOL    HW195484   3.943   4.956  14.395
64529SOL    HW295485   3.961   4.807  14.379
64530SOL     OW95486  12.956   6.513  14.848
64530SOL    HW195487  12.863   6.490  14.838
64530SOL    HW295488  12.997   6.486  14.766
64531SOL     OW95489   0.494   2.726   5.304
64531SOL    HW195490   0.584   2.696   5.293
64531SOL    HW295491   0.441   2.648   5.287
64532SOL     OW95492   9.241  14.366  10.022
64532SOL    HW195493   9.324  14.411  10.037
64532SOL    HW295494   9.223  14.322  10.105
64533SOL     OW95495   2.204   1.972   6.603
64533SOL    HW195496   2.160   2.051   6.633
64533SOL    HW295497   2.138   1.903   6.611
64534SOL     OW95498  13.298  14.499   7.702
64534SOL    HW195499  13.285  14.437   7.631
64534SOL    HW295500  13.332  14.445   7.774
64535SOL     OW95501   5.318   5.522  10.158
64535SOL    HW195502   5.302   5.495  10.249
64535SOL    HW295503   5.235   5.503  10.114
64536SOL     OW95504   5.718  10.294   6.460
64536SOL    HW195505   5.761  10.210   6.478
64536SOL    HW295506   5.680  10.319   6.544
64537SOL     OW95507   0.912  12.233   8.415
64537SOL    HW195508   0.859  12.245   8.336
64537SOL    HW295509   0.963  12.154   8.396
64538SOL     OW95510  12.375  10.810   0.008
64538SOL    HW195511  12.443  10.808   0.075
64538SOL    HW295512  12.296  10.838   0.054
64539SOL     OW95513   1.857   4.402   9.146
64539SOL    HW195514   1.867   4.390   9.240
64539SOL    HW295515   1.765   4.427   9.134
64540SOL     OW95516   4.856   8.339   3.673
64540SOL    HW195517   4.912   8.262   3.666
64540SOL    HW295518   4.771   8.309   3.640
64541SOL     OW95519   1.932   3.929  14.145
64541SOL    HW195520   2.019   3.968  14.153
64541SOL    HW295521   1.946   3.835  14.156
64542SOL     OW95522   0.021  11.046   0.181
64542SOL    HW195523   0.113  11.020   0.175
64542SOL    HW295524   0.003  11.047   0.275
64543SOL     OW95525  11.733  13.220   2.901
64543SOL    HW195526  11.802  13.279   2.869
64543SOL    HW295527  11.725  13.240   2.994
64544SOL     OW95528   4.395   9.014   9.357
64544SOL    HW195529   4.347   8.979   9.282
64544SOL    HW295530   4.463   9.069   9.318
64545SOL     OW95531  11.100   4.415   0.746
64545SOL    HW195532  11.078   4.434   0.837
64545SOL    HW295533  11.178   4.468   0.728
64546SOL     OW95534  13.869  14.379  10.867
64546SOL    HW195535  13.850  14.466  10.831
64546SOL    HW295536  13.852  14.319  10.795
64547SOL     OW95537  12.264   1.090  10.005
64547SOL    HW195538  12.325   1.049  10.066
64547SOL    HW295539  12.219   1.156  10.057
64548SOL     OW95540   3.598   5.148  13.605
64548SOL    HW195541   3.561   5.154  13.693
64548SOL    HW295542   3.523   5.166  13.547
64549SOL     OW95543   4.551   6.691  13.854
64549SOL    HW195544   4.528   6.690  13.947
64549SOL    HW295545   4.498   6.761  13.816
64550SOL     OW95546   2.035   7.180   5.933
64550SOL    HW195547   2.009   7.272   5.928
64550SOL    HW295548   2.016   7.154   6.023
64551SOL     OW95549   5.867  12.280   9.031
64551SOL    HW195550   5.941  12.339   9.039
64551SOL    HW295551   5.798  12.333   8.990
64552SOL     OW95552   3.878   1.520   3.715
64552SOL    HW195553   3.972   1.502   3.709
64552SOL    HW295554   3.840   1.470   3.643
64553SOL     OW95555   8.335  13.636   4.951
64553SOL    HW195556   8.390  13.678   5.017
64553SOL    HW295557   8.396  13.595   4.891
64554SOL     OW95558   8.364   1.781  12.040
64554SOL    HW195559   8.455   1.807  12.046
64554SOL    HW295560   8.356   1.708  12.102
64555SOL     OW95561   7.675  11.627   9.219
64555SOL    HW195562   7.629  11.657   9.297
64555SOL    HW295563   7.747  11.574   9.252
64556SOL     OW95564   5.233   3.239   5.363
64556SOL    HW195565   5.265   3.329   5.353
64556SOL    HW295566   5.245   3.220   5.456
64557SOL     OW95567  14.297   3.359  12.137
64557SOL    HW195568  14.225   3.401  12.184
64557SOL    HW295569  14.267   3.269  12.124
64558SOL     OW95570  12.296   8.544   1.864
64558SOL    HW195571  12.260   8.540   1.952
64558SOL    HW295572  12.299   8.453   1.835
64559SOL     OW95573   2.029   5.776   3.150
64559SOL    HW195574   1.964   5.708   3.165
64559SOL    HW295575   2.109   5.729   3.125
64560SOL     OW95576   7.536   0.967   3.246
64560SOL    HW195577   7.487   0.885   3.248
64560SOL    HW295578   7.624   0.943   3.275
64561SOL     OW95579  11.329   7.173  13.059
64561SOL    HW195580  11.260   7.219  13.107
64561SOL    HW295581  11.408   7.226  13.074
64562SOL     OW95582   6.259   1.935   7.356
64562SOL    HW195583   6.197   1.999   7.393
64562SOL    HW295584   6.339   1.948   7.406
64563SOL     OW95585  10.304   5.528   0.059
64563SOL    HW195586  10.278   5.523  14.839
64563SOL    HW295587  10.372   5.461   0.068
64564SOL     OW95588   8.070  10.898   7.009
64564SOL    HW195589   8.124  10.957   6.955
64564SOL    HW295590   8.104  10.910   7.097
64565SOL     OW95591  13.144   1.321  13.249
64565SOL    HW195592  13.143   1.314  13.154
64565SOL    HW295593  13.236   1.334  13.271
64566SOL     OW95594  10.339  10.595   1.359
64566SOL    HW195595  10.423  10.611   1.316
64566SOL    HW295596  10.274  10.619   1.293
64567SOL     OW95597   8.364   7.305   1.624
64567SOL    HW195598   8.415   7.331   1.547
64567SOL    HW295599   8.366   7.381   1.681
64568SOL     OW95600   3.305  13.194  12.095
64568SOL    HW195601   3.258  13.168  12.173
64568SOL    HW295602   3.382  13.241  12.128
64569SOL     OW95603  12.565   7.259  13.011
64569SOL    HW195604  12.656   7.228  13.010
64569SOL    HW295605  12.518   7.198  12.955
64570SOL     OW95606   6.338   2.609   8.781
64570SOL    HW195607   6.404   2.650   8.837
64570SOL    HW295608   6.257   2.657   8.802
64571SOL     OW95609   8.738   8.541   3.540
64571SOL    HW195610   8.696   8.571   3.459
64571SOL    HW295611   8.829   8.573   3.533
64572SOL     OW95612   1.369   6.451  14.336
64572SOL    HW195613   1.365   6.399  14.416
64572SOL    HW295614   1.328   6.395  14.270
64573SOL     OW95615   8.906   3.884   6.703
64573SOL    HW195616   8.823   3.879   6.655
64573SOL    HW295617   8.899   3.963   6.756
64574SOL     OW95618   1.439   9.853   8.030
64574SOL    HW195619   1.474   9.927   7.981
64574SOL    HW295620   1.419   9.889   8.117
64575SOL     OW95621   7.982   0.722  12.771
64575SOL    HW195622   7.899   0.734  12.817
64575SOL    HW295623   8.049   0.745  12.835
64576SOL     OW95624   6.130  11.816   7.964
64576SOL    HW195625   6.203  11.758   7.983
64576SOL    HW295626   6.166  11.904   7.974
64577SOL     OW95627  13.341   1.860   5.128
64577SOL    HW195628  13.309   1.772   5.108
64577SOL    HW295629  13.437   1.851   5.127
64578SOL     OW95630   8.844   7.667   6.547
64578SOL    HW195631   8.850   7.607   6.472
64578SOL    HW295632   8.893   7.745   6.520
64579SOL     OW95633   7.177  14.277   5.433
64579SOL    HW195634   7.264  14.240   5.451
64579SOL    HW295635   7.146  14.229   5.356
64580SOL     OW95636   4.325   0.730   9.163
64580SOL    HW195637   4.397   0.768   9.213
64580SOL    HW295638   4.363   0.711   9.077
64581SOL     OW95639   8.328   6.570   4.216
64581SOL    HW195640   8.345   6.480   4.244
64581SOL    HW295641   8.265   6.562   4.144
64582SOL     OW95642   0.865   4.811   4.942
64582SOL    HW195643   0.854   4.905   4.954
64582SOL    HW295644   0.872   4.799   4.848
64583SOL     OW95645   7.792   1.074   7.118
64583SOL    HW195646   7.850   1.120   7.179
64583SOL    HW295647   7.718   1.134   7.106
64584SOL     OW95648   1.863  13.909   8.489
64584SOL    HW195649   1.837  13.997   8.515
64584SOL    HW295650   1.897  13.919   8.400
64585SOL     OW95651   6.520  13.980   8.515
64585SOL    HW195652   6.578  13.918   8.471
64585SOL    HW295653   6.549  13.980   8.606
64586SOL     OW95654  14.298  14.291   4.573
64586SOL    HW195655  14.318  14.382   4.555
64586SOL    HW295656  14.233  14.266   4.507
64587SOL     OW95657  14.744   6.204  11.609
64587SOL    HW195658  14.793   6.213  11.527
64587SOL    HW295659  14.655   6.231  11.588
64588SOL     OW95660   4.382   4.403  12.598
64588SOL    HW195661   4.461   4.368  12.639
64588SOL    HW295662   4.400   4.496  12.585
64589SOL     OW95663   5.301   0.393   3.517
64589SOL    HW195664   5.302   0.322   3.454
64589SOL    HW295665   5.370   0.453   3.487
64590SOL     OW95666  10.953   1.477   6.728
64590SOL    HW195667  11.001   1.468   6.645
64590SOL    HW295668  10.978   1.562   6.762
64591SOL     OW95669  10.367   2.039  13.727
64591SOL    HW195670  10.419   2.106  13.772
64591SOL    HW295671  10.325   1.991  13.798
64592SOL     OW95672   8.321   6.441   8.627
64592SOL    HW195673   8.289   6.400   8.708
64592SOL    HW295674   8.356   6.369   8.576
64593SOL     OW95675   6.173  11.967   2.370
64593SOL    HW195676   6.202  11.878   2.387
64593SOL    HW295677   6.141  11.999   2.454
64594SOL     OW95678   4.755   3.742   5.134
64594SOL    HW195679   4.732   3.724   5.226
64594SOL    HW295680   4.726   3.832   5.120
64595SOL     OW95681  13.822   6.090   6.432
64595SOL    HW195682  13.819   6.148   6.356
64595SOL    HW295683  13.738   6.104   6.477
64596SOL     OW95684  10.883  10.261   5.367
64596SOL    HW195685  10.954  10.240   5.428
64596SOL    HW295686  10.819  10.192   5.380
64597SOL     OW95687  10.838   0.936   1.546
64597SOL    HW195688  10.767   0.910   1.605
64597SOL    HW295689  10.892   0.995   1.598
64598SOL     OW95690   1.555   6.635  14.261
64598SOL    HW195691   1.490   6.575  14.295
64598SOL    HW295692   1.550   6.626  14.166
64599SOL     OW95693   5.173  12.301   3.525
64599SOL    HW195694   5.174  12.243   3.448
64599SOL    HW295695   5.113  12.371   3.501
64600SOL     OW95696   2.792  13.625   9.575
64600SOL    HW195697   2.768  13.648   9.664
64600SOL    HW295698   2.841  13.543   9.583
64601SOL     OW95699   5.231   1.539   6.902
64601SOL    HW195700   5.275   1.503   6.980
64601SOL    HW295701   5.180   1.465   6.868
64602SOL     OW95702   9.661   4.469  10.477
64602SOL    HW195703   9.659   4.380  10.441
64602SOL    HW295704   9.575   4.479  10.519
64603SOL     OW95705   3.946  11.940   8.792
64603SOL    HW195706   3.878  11.952   8.859
64603SOL    HW295707   3.958  12.027   8.754
64604SOL     OW95708   1.996   6.059   3.171
64604SOL    HW195709   1.937   6.066   3.095
64604SOL    HW295710   2.010   5.965   3.181
64605SOL     OW95711  14.223   2.874   2.498
64605SOL    HW195712  14.287   2.866   2.568
64605SOL    HW295713  14.138   2.868   2.542
64606SOL     OW95714   9.517   9.491  13.218
64606SOL    HW195715   9.556   9.573  13.187
64606SOL    HW295716   9.423   9.502  13.200
64607SOL     OW95717   6.899  12.915   9.591
64607SOL    HW195718   6.866  12.825   9.597
64607SOL    HW295719   6.930  12.922   9.500
64608SOL     OW95720  12.933  10.746  11.421
64608SOL    HW195721  12.984  10.665  11.417
64608SOL    HW295722  12.897  10.746  11.510
64609SOL     OW95723  10.236   8.573  11.331
64609SOL    HW195724  10.310   8.548  11.276
64609SOL    HW295725  10.160   8.567  11.274
64610SOL     OW95726  12.899   3.443  12.190
64610SOL    HW195727  12.926   3.473  12.277
64610SOL    HW295728  12.979   3.408  12.151
64611SOL     OW95729   7.662   9.051   5.100
64611SOL    HW195730   7.745   9.064   5.053
64611SOL    HW295731   7.631   9.139   5.120
64612SOL     OW95732   9.638   5.071   4.753
64612SOL    HW195733   9.562   5.019   4.727
64612SOL    HW295734   9.613   5.162   4.734
64613SOL     OW95735   5.841   5.696  11.149
64613SOL    HW195736   5.924   5.701  11.195
64613SOL    HW295737   5.864   5.680  11.057
64614SOL     OW95738  12.180   2.239   0.498
64614SOL    HW195739  12.244   2.271   0.433
64614SOL    HW295740  12.142   2.161   0.458
64615SOL     OW95741   2.725  13.927   9.762
64615SOL    HW195742   2.756  13.844   9.798
64615SOL    HW295743   2.630  13.925   9.776
64616SOL     OW95744   5.157   2.103   6.435
64616SOL    HW195745   5.132   2.187   6.396
64616SOL    HW295746   5.216   2.127   6.507
64617SOL     OW95747   5.026  12.243   9.822
64617SOL    HW195748   5.062  12.271   9.907
64617SOL    HW295749   4.965  12.313   9.798
64618SOL     OW95750   4.947  14.041   3.001
64618SOL    HW195751   4.876  13.992   3.043
64618SOL    HW295752   5.006  14.064   3.074
64619SOL     OW95753   7.647   2.823   8.081
64619SOL    HW195754   7.562   2.780   8.091
64619SOL    HW295755   7.683   2.787   8.000
64620SOL     OW95756   3.194   0.844   3.870
64620SOL    HW195757   3.113   0.821   3.916
64620SOL    HW295758   3.203   0.938   3.881
64621SOL     OW95759   0.157   3.540  12.973
64621SOL    HW195760   0.217   3.597  12.926
64621SOL    HW295761   0.110   3.598  13.033
64622SOL     OW95762  12.392  12.737   1.067
64622SOL    HW195763  12.450  12.689   1.126
64622SOL    HW295764  12.420  12.711   0.979
64623SOL     OW95765   4.505   2.171   3.636
64623SOL    HW195766   4.572   2.118   3.592
64623SOL    HW295767   4.536   2.261   3.627
64624SOL     OW95768   5.166   3.250   5.858
64624SOL    HW195769   5.109   3.205   5.920
64624SOL    HW295770   5.149   3.343   5.873
64625SOL     OW95771   3.728  13.746  12.555
64625SOL    HW195772   3.811  13.780  12.588
64625SOL    HW295773   3.673  13.823  12.544
64626SOL     OW95774   3.197   9.169   2.622
64626SOL    HW195775   3.177   9.086   2.664
64626SOL    HW295776   3.133   9.231   2.658
64627SOL     OW95777   1.685  12.713  11.708
64627SOL    HW195778   1.696  12.653  11.634
64627SOL    HW295779   1.773  12.749  11.722
64628SOL     OW95780   4.750   5.825   9.754
64628SOL    HW195781   4.805   5.870   9.690
64628SOL    HW295782   4.715   5.895   9.810
64629SOL     OW95783  14.381  13.363   6.589
64629SOL    HW195784  14.314  13.420   6.550
64629SOL    HW295785  14.331  13.296   6.636
64630SOL     OW95786   6.264   1.477   8.974
64630SOL    HW195787   6.247   1.561   8.931
64630SOL    HW295788   6.274   1.415   8.902
64631SOL     OW95789  12.717   1.265  11.257
64631SOL    HW195790  12.803   1.225  11.270
64631SOL    HW295791  12.668   1.243  11.336
64632SOL     OW95792   6.931   1.735   6.563
64632SOL    HW195793   6.990   1.810   6.575
64632SOL    HW295794   6.972   1.684   6.493
64633SOL     OW95795   6.318   7.875   0.730
64633SOL    HW195796   6.397   7.898   0.780
64633SOL    HW295797   6.322   7.780   0.720
64634SOL     OW95798   4.505  11.421   6.572
64634SOL    HW195799   4.550  11.386   6.495
64634SOL    HW295800   4.445  11.488   6.537
64635SOL     OW95801   8.514  12.922   3.303
64635SOL    HW195802   8.599  12.964   3.316
64635SOL    HW295803   8.534  12.841   3.257
64636SOL     OW95804  10.781   9.894   3.911
64636SOL    HW195805  10.824   9.820   3.869
64636SOL    HW295806  10.839   9.968   3.894
64637SOL     OW95807  11.978   9.852  14.569
64637SOL    HW195808  12.054   9.899  14.535
64637SOL    HW295809  11.964   9.889  14.656
64638SOL     OW95810   5.906   9.536  14.408
64638SOL    HW195811   5.995   9.509  14.428
64638SOL    HW295812   5.852   9.460  14.432
64639SOL     OW95813   0.552   3.468   3.332
64639SOL    HW195814   0.525   3.376   3.340
64639SOL    HW295815   0.566   3.480   3.238
64640SOL     OW95816   5.642   4.446   2.350
64640SOL    HW195817   5.699   4.465   2.276
64640SOL    HW295818   5.563   4.497   2.333
64641SOL     OW95819   6.747  14.651   4.213
64641SOL    HW195820   6.811  14.722   4.210
64641SOL    HW295821   6.771  14.594   4.140
64642SOL     OW95822  10.767   5.612  12.945
64642SOL    HW195823  10.799   5.527  12.914
64642SOL    HW295824  10.672   5.604  12.942
64643SOL     OW95825   8.424   7.509   1.949
64643SOL    HW195826   8.333   7.530   1.927
64643SOL    HW295827   8.465   7.594   1.965
64644SOL     OW95828  14.259   1.991  13.360
64644SOL    HW195829  14.215   1.907  13.372
64644SOL    HW295830  14.201   2.055  13.402
64645SOL     OW95831   5.314  11.249  11.179
64645SOL    HW195832   5.311  11.326  11.235
64645SOL    HW295833   5.348  11.179  11.235
64646SOL     OW95834   7.854   6.557   1.734
64646SOL    HW195835   7.945   6.530   1.748
64646SOL    HW295836   7.809   6.536   1.815
64647SOL     OW95837  11.174   8.225   8.832
64647SOL    HW195838  11.082   8.224   8.858
64647SOL    HW295839  11.174   8.273   8.749
64648SOL     OW95840   5.585  12.212   5.733
64648SOL    HW195841   5.661  12.269   5.726
64648SOL    HW295842   5.523  12.261   5.787
64649SOL     OW95843   4.208  14.069   9.982
64649SOL    HW195844   4.212  14.073  10.078
64649SOL    HW295845   4.140  14.133   9.959
64650SOL     OW95846   1.780   0.492  14.313
64650SOL    HW195847   1.852   0.509  14.252
64650SOL    HW295848   1.803   0.410  14.356
64651SOL     OW95849  11.951   3.095   3.678
64651SOL    HW195850  11.879   3.066   3.734
64651SOL    HW295851  11.976   3.180   3.714
64652SOL     OW95852   1.703  13.853  13.165
64652SOL    HW195853   1.714  13.758  13.160
64652SOL    HW295854   1.625  13.870  13.112
64653SOL     OW95855   3.071   0.389  13.721
64653SOL    HW195856   3.134   0.443  13.673
64653SOL    HW295857   3.052   0.315  13.662
64654SOL     OW95858   0.204   8.320   5.937
64654SOL    HW195859   0.195   8.361   6.023
64654SOL    HW295860   0.118   8.281   5.921
64655SOL     OW95861   5.966   6.259   6.300
64655SOL    HW195862   6.049   6.249   6.345
64655SOL    HW295863   5.967   6.348   6.265
64656SOL     OW95864   3.313   2.378   8.576
64656SOL    HW195865   3.385   2.370   8.512
64656SOL    HW295866   3.235   2.390   8.522
64657SOL     OW95867   3.723   7.275  11.681
64657SOL    HW195868   3.657   7.344  11.673
64657SOL    HW295869   3.782   7.290  11.607
64658SOL     OW95870   9.732   2.356  14.778
64658SOL    HW195871   9.679   2.333  14.702
64658SOL    HW295872   9.712   2.288  14.842
64659SOL     OW95873   1.452   6.451  12.167
64659SOL    HW195874   1.373   6.466  12.218
64659SOL    HW295875   1.521   6.440  12.233
64660SOL     OW95876  11.804   3.788   7.491
64660SOL    HW195877  11.713   3.792   7.521
64660SOL    HW295878  11.855   3.821   7.564
64661SOL     OW95879   5.010   9.538   5.022
64661SOL    HW195880   5.096   9.560   4.986
64661SOL    HW295881   4.963   9.622   5.024
64662SOL     OW95882   7.488   2.338   3.375
64662SOL    HW195883   7.504   2.425   3.413
64662SOL    HW295884   7.506   2.349   3.282
64663SOL     OW95885   3.066   5.470   4.879
64663SOL    HW195886   3.050   5.512   4.963
64663SOL    HW295887   3.158   5.489   4.860
64664SOL     OW95888  12.910  13.688   0.993
64664SOL    HW195889  12.968  13.756   1.026
64664SOL    HW295890  12.826  13.733   0.979
64665SOL     OW95891   8.228   5.526  10.339
64665SOL    HW195892   8.246   5.497  10.429
64665SOL    HW295893   8.138   5.497  10.322
64666SOL     OW95894   9.458   5.384   1.701
64666SOL    HW195895   9.414   5.319   1.757
64666SOL    HW295896   9.551   5.365   1.711
64667SOL     OW95897   7.166   5.876  10.492
64667SOL    HW195898   7.237   5.840  10.545
64667SOL    HW295899   7.103   5.910  10.557
64668SOL     OW95900  13.813   4.662   9.708
64668SOL    HW195901  13.897   4.691   9.674
64668SOL    HW295902  13.834   4.617   9.790
64669SOL     OW95903   6.440   1.364   3.226
64669SOL    HW195904   6.429   1.440   3.283
64669SOL    HW295905   6.429   1.288   3.283
64670SOL     OW95906   5.364   9.550  13.175
64670SOL    HW195907   5.437   9.496  13.206
64670SOL    HW295908   5.393   9.583  13.090
64671SOL     OW95909  14.588  10.023  10.917
64671SOL    HW195910  14.500  10.033  10.881
64671SOL    HW295911  14.588  10.080  10.994
64672SOL     OW95912  14.617   2.373   6.190
64672SOL    HW195913  14.649   2.463   6.198
64672SOL    HW295914  14.526   2.382   6.164
64673SOL     OW95915   1.305   3.069   5.637
64673SOL    HW195916   1.315   3.066   5.542
64673SOL    HW295917   1.282   3.160   5.656
64674SOL     OW95918   1.253  12.060   5.883
64674SOL    HW195919   1.282  12.132   5.827
64674SOL    HW295920   1.157  12.062   5.876
64675SOL     OW95921   0.850  13.343   6.985
64675SOL    HW195922   0.865  13.386   6.901
64675SOL    HW295923   0.854  13.414   7.050
64676SOL     OW95924   4.759   2.854   8.662
64676SOL    HW195925   4.769   2.945   8.690
64676SOL    HW295926   4.829   2.841   8.598
64677SOL     OW95927   1.061   5.971   2.342
64677SOL    HW195928   1.008   6.043   2.308
64677SOL    HW295929   1.095   6.003   2.426
64678SOL     OW95930   8.991  11.028   5.730
64678SOL    HW195931   9.060  11.000   5.790
64678SOL    HW295932   8.917  11.047   5.788
64679SOL     OW95933   4.769   9.673   0.334
64679SOL    HW195934   4.848   9.636   0.294
64679SOL    HW295935   4.702   9.606   0.321
64680SOL     OW95936   0.649   2.093  11.537
64680SOL    HW195937   0.665   2.018  11.479
64680SOL    HW295938   0.609   2.055  11.615
64681SOL     OW95939   6.190   7.770   2.205
64681SOL    HW195940   6.140   7.688   2.204
64681SOL    HW295941   6.281   7.742   2.215
64682SOL     OW95942   7.173   0.517  13.984
64682SOL    HW195943   7.192   0.445  14.043
64682SOL    HW295944   7.098   0.487  13.933
64683SOL     OW95945   2.370   9.299   0.640
64683SOL    HW195946   2.327   9.343   0.567
64683SOL    HW295947   2.437   9.244   0.599
64684SOL     OW95948  13.565   2.377   4.228
64684SOL    HW195949  13.484   2.328   4.217
64684SOL    HW295950  13.544   2.445   4.291
64685SOL     OW95951  14.044   6.569   9.577
64685SOL    HW195952  13.992   6.526   9.645
64685SOL    HW295953  13.979   6.601   9.515
64686SOL     OW95954   8.082  12.893   9.600
64686SOL    HW195955   8.023  12.861   9.668
64686SOL    HW295956   8.030  12.888   9.519
64687SOL     OW95957   3.812   6.354   1.960
64687SOL    HW195958   3.799   6.402   2.042
64687SOL    HW295959   3.831   6.264   1.988
64688SOL     OW95960  14.255  11.932   3.076
64688SOL    HW195961  14.173  11.968   3.110
64688SOL    HW295962  14.238  11.917   2.983
64689SOL     OW95963   0.577   8.140  11.070
64689SOL    HW195964   0.657   8.108  11.111
64689SOL    HW295965   0.579   8.235  11.085
64690SOL     OW95966   3.021  12.421   5.153
64690SOL    HW195967   3.010  12.328   5.132
64690SOL    HW295968   2.952  12.439   5.216
64691SOL     OW95969  11.757   7.197   2.755
64691SOL    HW195970  11.775   7.254   2.680
64691SOL    HW295971  11.823   7.127   2.747
64692SOL     OW95972  11.363  10.085   5.362
64692SOL    HW195973  11.395  10.159   5.414
64692SOL    HW295974  11.375  10.112   5.271
64693SOL     OW95975   6.874  12.119   0.237
64693SOL    HW195976   6.879  12.030   0.271
64693SOL    HW295977   6.843  12.171   0.310
64694SOL     OW95978  11.433   1.931  13.924
64694SOL    HW195979  11.512   1.951  13.876
64694SOL    HW295980  11.418   2.007  13.979
64695SOL     OW95981  12.245   6.428   2.759
64695SOL    HW195982  12.241   6.473   2.675
64695SOL    HW295983  12.197   6.485   2.819
64696SOL     OW95984  14.586  12.534   5.553
64696SOL    HW195985  14.555  12.530   5.462
64696SOL    HW295986  14.591  12.442   5.580
64697SOL     OW95987   2.776  10.361   7.340
64697SOL    HW195988   2.727  10.294   7.388
64697SOL    HW295989   2.739  10.444   7.370
64698SOL     OW95990  13.658   8.525   4.154
64698SOL    HW195991  13.665   8.570   4.238
64698SOL    HW295992  13.730   8.462   4.154
64699SOL     OW95993  10.454  10.507   3.765
64699SOL    HW195994  10.425  10.539   3.680
64699SOL    HW295995  10.546  10.484   3.752
64700SOL     OW95996   8.516   2.454  14.449
64700SOL    HW195997   8.529   2.376  14.395
64700SOL    HW295998   8.602   2.471  14.489
64701SOL     OW95999  14.822  14.548   2.119
64701SOL    HW196000  14.838  14.552   2.025
64701SOL    HW296001  14.836  14.456   2.142
64702SOL     OW96002  11.757   7.976   3.928
64702SOL    HW196003  11.801   7.930   4.000
64702SOL    HW296004  11.797   8.063   3.927
64703SOL     OW96005  13.349   6.125   5.308
64703SOL    HW196006  13.402   6.200   5.336
64703SOL    HW296007  13.304   6.156   5.229
64704SOL     OW96008   9.420  13.098   7.444
64704SOL    HW196009   9.462  13.121   7.527
64704SOL    HW296010   9.332  13.070   7.469
64705SOL     OW96011  12.691   6.361   1.112
64705SOL    HW196012  12.773   6.370   1.159
64705SOL    HW296013  12.697   6.276   1.068
64706SOL     OW96014   0.799   6.331  11.184
64706SOL    HW196015   0.871   6.283  11.143
64706SOL    HW296016   0.794   6.413  11.135
64707SOL     OW96017   4.933   7.029   5.094
64707SOL    HW196018   4.884   6.947   5.101
64707SOL    HW296019   4.941   7.060   5.185
64708SOL     OW96020   6.968  14.323   7.446
64708SOL    HW196021   6.965  14.329   7.350
64708SOL    HW296022   6.885  14.361   7.475
64709SOL     OW96023  10.929  10.604   8.046
64709SOL    HW196024  10.863  10.658   8.089
64709SOL    HW296025  11.010  10.625   8.091
64710SOL     OW96026   4.482   2.015   0.272
64710SOL    HW196027   4.452   2.055   0.191
64710SOL    HW296028   4.514   2.088   0.325
64711SOL     OW96029   7.397   8.387   9.095
64711SOL    HW196030   7.410   8.443   9.018
64711SOL    HW296031   7.472   8.406   9.152
64712SOL     OW96032   9.601  14.769   0.936
64712SOL    HW196033   9.565  14.686   0.904
64712SOL    HW296034   9.547  14.791   1.012
64713SOL     OW96035  10.278   1.941  13.983
64713SOL    HW196036  10.315   1.947  14.071
64713SOL    HW296037  10.183   1.936  13.997
64714SOL     OW96038  10.503   9.840  12.207
64714SOL    HW196039  10.440   9.848  12.136
64714SOL    HW296040  10.460   9.783  12.271
64715SOL     OW96041   4.767  14.268  12.898
64715SOL    HW196042   4.772  14.217  12.817
64715SOL    HW296043   4.835  14.232  12.954
64716SOL     OW96044   0.441  11.698   6.114
64716SOL    HW196045   0.467  11.780   6.158
64716SOL    HW296046   0.411  11.642   6.185
64717SOL     OW96047   0.895   8.187   8.725
64717SOL    HW196048   0.930   8.249   8.790
64717SOL    HW296049   0.879   8.107   8.775
64718SOL     OW96050  13.400   8.302   3.032
64718SOL    HW196051  13.345   8.293   3.110
64718SOL    HW296052  13.340   8.293   2.958
64719SOL     OW96053   3.895   4.129   3.561
64719SOL    HW196054   3.918   4.110   3.653
64719SOL    HW296055   3.966   4.090   3.511
64720SOL     OW96056  14.527  10.819  10.768
64720SOL    HW196057  14.524  10.881  10.841
64720SOL    HW296058  14.436  10.791  10.756
64721SOL     OW96059  10.663   7.774   6.670
64721SOL    HW196060  10.577   7.756   6.632
64721SOL    HW296061  10.648   7.769   6.765
64722SOL     OW96062   4.545   9.211   9.529
64722SOL    HW196063   4.472   9.149   9.518
64722SOL    HW296064   4.526   9.282   9.468
64723SOL     OW96065   9.140   3.677   2.881
64723SOL    HW196066   9.063   3.671   2.937
64723SOL    HW296067   9.132   3.761   2.837
64724SOL     OW96068   7.688   5.997   4.518
64724SOL    HW196069   7.682   6.007   4.613
64724SOL    HW296070   7.621   5.933   4.496
64725SOL     OW96071  11.729  12.834  12.837
64725SOL    HW196072  11.725  12.762  12.900
64725SOL    HW296073  11.721  12.913  12.890
64726SOL     OW96074   2.632  10.320  12.201
64726SOL    HW196075   2.542  10.351  12.190
64726SOL    HW296076   2.662  10.361  12.282
64727SOL     OW96077   5.917   2.546   4.149
64727SOL    HW196078   5.971   2.471   4.125
64727SOL    HW296079   5.916   2.545   4.245
64728SOL     OW96080   0.533   2.409  13.350
64728SOL    HW196081   0.609   2.435  13.297
64728SOL    HW296082   0.529   2.313  13.340
64729SOL     OW96083   0.495   4.971  14.828
64729SOL    HW196084   0.458   4.884  14.846
64729SOL    HW296085   0.458   5.027   0.025
64730SOL     OW96086   6.797   2.045  14.447
64730SOL    HW196087   6.753   2.091  14.518
64730SOL    HW296088   6.888   2.038  14.476
64731SOL     OW96089   1.302  13.705   2.508
64731SOL    HW196090   1.240  13.769   2.472
64731SOL    HW296091   1.373  13.758   2.543
64732SOL     OW96092   9.090   7.970  11.488
64732SOL    HW196093   9.097   8.062  11.462
64732SOL    HW296094   9.098   7.921  11.406
64733SOL     OW96095   1.496   7.555   2.944
64733SOL    HW196096   1.480   7.576   2.853
64733SOL    HW296097   1.442   7.617   2.993
64734SOL     OW96098   2.792   1.483   0.329
64734SOL    HW196099   2.848   1.516   0.400
64734SOL    HW296100   2.722   1.436   0.373
64735SOL     OW96101  14.408  14.389   7.261
64735SOL    HW196102  14.431  14.475   7.224
64735SOL    HW296103  14.488  14.359   7.303
64736SOL     OW96104   7.600   5.426  12.377
64736SOL    HW196105   7.601   5.372  12.457
64736SOL    HW296106   7.598   5.363  12.306
64737SOL     OW96107   4.862  10.967   9.530
64737SOL    HW196108   4.790  10.911   9.501
64737SOL    HW296109   4.887  10.932   9.616
64738SOL     OW96110  13.184   5.408  10.282
64738SOL    HW196111  13.200   5.498  10.254
64738SOL    HW296112  13.103   5.383  10.238
64739SOL     OW96113  10.953  10.883   9.057
64739SOL    HW196114  11.008  10.961   9.058
64739SOL    HW296115  10.924  10.873   9.147
64740SOL     OW96116  14.098   5.698  12.782
64740SOL    HW196117  14.168   5.683  12.718
64740SOL    HW296118  14.064   5.611  12.801
64741SOL     OW96119   6.011  10.208   7.879
64741SOL    HW196120   6.002  10.291   7.927
64741SOL    HW296121   5.924  10.194   7.841
64742SOL     OW96122  13.121   3.224   0.031
64742SOL    HW196123  13.097   3.252  14.814
64742SOL    HW296124  13.197   3.167   0.019
64743SOL     OW96125   8.027   4.232  14.054
64743SOL    HW196126   8.058   4.144  14.077
64743SOL    HW296127   7.974   4.260  14.129
64744SOL     OW96128  12.888  14.404   6.961
64744SOL    HW196129  12.983  14.391   6.961
64744SOL    HW296130  12.873  14.470   6.893
64745SOL     OW96131  10.550  12.705   6.204
64745SOL    HW196132  10.530  12.793   6.234
64745SOL    HW296133  10.645  12.707   6.187
64746SOL     OW96134  14.112   1.389  13.179
64746SOL    HW196135  14.113   1.469  13.231
64746SOL    HW296136  14.196   1.346  13.200
64747SOL     OW96137   5.998   8.085   0.399
64747SOL    HW196138   6.019   8.173   0.429
64747SOL    HW296139   5.904   8.087   0.381
64748SOL     OW96140   6.012   3.875   8.566
64748SOL    HW196141   6.083   3.837   8.618
64748SOL    HW296142   5.986   3.953   8.615
64749SOL     OW96143   9.875   6.682  10.706
64749SOL    HW196144   9.939   6.753  10.695
64749SOL    HW296145   9.860   6.678  10.800
64750SOL     OW96146   9.642   5.395  14.842
64750SOL    HW196147   9.548   5.389  14.825
64750SOL    HW296148   9.649   5.456   0.044
64751SOL     OW96149   0.966  13.737   0.862
64751SOL    HW196150   0.964  13.799   0.789
64751SOL    HW296151   0.874  13.723   0.885
64752SOL     OW96152  11.288  12.288   8.320
64752SOL    HW196153  11.363  12.262   8.374
64752SOL    HW296154  11.273  12.379   8.343
64753SOL     OW96155  11.108   0.948   9.392
64753SOL    HW196156  11.049   1.021   9.410
64753SOL    HW296157  11.118   0.948   9.297
64754SOL     OW96158   1.374   4.164  11.820
64754SOL    HW196159   1.288   4.164  11.863
64754SOL    HW296160   1.358   4.128  11.733
64755SOL     OW96161   3.552  14.833   0.278
64755SOL    HW196162   3.587  14.774   0.210
64755SOL    HW296163   3.624   0.020   0.298
64756SOL     OW96164   2.290   9.566  11.679
64756SOL    HW196165   2.348   9.562  11.603
64756SOL    HW296166   2.203   9.577  11.642
64757SOL     OW96167   3.776   7.261  10.518
64757SOL    HW196168   3.724   7.241  10.595
64757SOL    HW296169   3.735   7.211  10.447
64758SOL     OW96170   6.280  13.291  14.450
64758SOL    HW196171   6.351  13.355  14.450
64758SOL    HW296172   6.204  13.338  14.484
64759SOL     OW96173   8.143   1.548   7.382
64759SOL    HW196174   8.230   1.580   7.404
64759SOL    HW296175   8.085   1.588   7.446
64760SOL     OW96176   1.907  10.141   1.814
64760SOL    HW196177   1.935  10.079   1.881
64760SOL    HW296178   1.812  10.144   1.822
64761SOL     OW96179   3.247   9.963   4.954
64761SOL    HW196180   3.223   9.870   4.954
64761SOL    HW296181   3.171  10.007   4.992
64762SOL     OW96182  10.474   4.136   7.616
64762SOL    HW196183  10.388   4.122   7.656
64762SOL    HW296184  10.486   4.061   7.559
64763SOL     OW96185   5.610   2.789   6.263
64763SOL    HW196186   5.568   2.856   6.211
64763SOL    HW296187   5.626   2.717   6.202
64764SOL     OW96188  13.689  14.762   8.520
64764SOL    HW196189  13.657  14.674   8.536
64764SOL    HW296190  13.628  14.819   8.568
64765SOL     OW96191   8.515   0.871  13.264
64765SOL    HW196192   8.525   0.946  13.322
64765SOL    HW296193   8.453   0.900  13.197
64766SOL     OW96194   0.334   3.520   7.826
64766SOL    HW196195   0.342   3.530   7.731
64766SOL    HW296196   0.249   3.560   7.846
64767SOL     OW96197   0.142   3.928   9.216
64767SOL    HW196198   0.181   3.876   9.145
64767SOL    HW296199   0.217   3.957   9.268
64768SOL     OW96200  13.747  10.954   3.943
64768SOL    HW196201  13.756  10.878   4.001
64768SOL    HW296202  13.799  10.930   3.866
64769SOL     OW96203   9.742   5.944   9.681
64769SOL    HW196204   9.783   6.019   9.724
64769SOL    HW296205   9.764   5.953   9.589
64770SOL     OW96206  11.169   4.204  12.360
64770SOL    HW196207  11.121   4.238  12.285
64770SOL    HW296208  11.260   4.229  12.344
64771SOL     OW96209   7.903   6.737  13.378
64771SOL    HW196210   7.897   6.727  13.472
64771SOL    HW296211   7.984   6.692  13.354
64772SOL     OW96212  14.509  10.034   1.641
64772SOL    HW196213  14.531  10.019   1.549
64772SOL    HW296214  14.538   9.956   1.686
64773SOL     OW96215  11.192   4.964   8.806
64773SOL    HW196216  11.110   4.982   8.761
64773SOL    HW296217  11.210   4.872   8.787
64774SOL     OW96218   3.461   5.230  13.091
64774SOL    HW196219   3.553   5.209  13.108
64774SOL    HW296220   3.462   5.274  13.006
64775SOL     OW96221  14.617  14.835   5.678
64775SOL    HW196222  14.681   0.022   5.719
64775SOL    HW296223  14.649  14.747   5.697
64776SOL     OW96224  13.036  12.524   6.297
64776SOL    HW196225  13.075  12.514   6.210
64776SOL    HW296226  12.991  12.441   6.314
64777SOL     OW96227   1.962  13.697   1.300
64777SOL    HW196228   2.030  13.745   1.253
64777SOL    HW296229   1.940  13.753   1.374
64778SOL     OW96230  14.084  11.221  13.288
64778SOL    HW196231  14.112  11.273  13.364
64778SOL    HW296232  14.080  11.285  13.217
64779SOL     OW96233   7.033   0.046   5.454
64779SOL    HW196234   7.078   0.065   5.537
64779SOL    HW296235   7.061  14.829   5.431
64780SOL     OW96236  13.315   9.559  13.758
64780SOL    HW196237  13.256   9.491  13.791
64780SOL    HW296238  13.274   9.642  13.786
64781SOL     OW96239   7.565   1.682   2.960
64781SOL    HW196240   7.630   1.747   2.988
64781SOL    HW296241   7.570   1.614   3.028
64782SOL     OW96242   0.049  12.033   4.116
64782SOL    HW196243   0.062  11.954   4.168
64782SOL    HW296244   0.093  12.015   4.033
64783SOL     OW96245   7.972   2.302   6.162
64783SOL    HW196246   8.037   2.305   6.232
64783SOL    HW296247   7.990   2.379   6.109
64784SOL     OW96248   7.080   6.748   4.523
64784SOL    HW196249   7.102   6.717   4.611
64784SOL    HW296250   6.989   6.720   4.510
64785SOL     OW96251   4.707  14.771   1.965
64785SOL    HW196252   4.726  14.678   1.959
64785SOL    HW296253   4.712  14.791   2.058
64786SOL     OW96254   0.544  13.867   9.076
64786SOL    HW196255   0.607  13.929   9.111
64786SOL    HW296256   0.461  13.916   9.074
64787SOL     OW96257   5.882   0.467  12.673
64787SOL    HW196258   5.930   0.406  12.618
64787SOL    HW296259   5.926   0.464  12.758
64788SOL     OW96260   6.682   8.927  14.409
64788SOL    HW196261   6.704   8.992  14.475
64788SOL    HW296262   6.761   8.918  14.356
64789SOL     OW96263  13.097  12.760  11.867
64789SOL    HW196264  13.147  12.680  11.881
64789SOL    HW296265  13.145  12.808  11.800
64790SOL     OW96266   4.410   0.471  10.960
64790SOL    HW196267   4.414   0.530  11.035
64790SOL    HW296268   4.484   0.412  10.972
64791SOL     OW96269  13.019  10.107  12.905
64791SOL    HW196270  12.958  10.067  12.843
64791SOL    HW296271  13.096  10.050  12.903
64792SOL     OW96272   5.812   7.932   4.170
64792SOL    HW196273   5.787   7.938   4.262
64792SOL    HW296274   5.903   7.960   4.168
64793SOL     OW96275   7.594  11.484   1.248
64793SOL    HW196276   7.518  11.524   1.205
64793SOL    HW296277   7.600  11.397   1.210
64794SOL     OW96278   8.339  10.604  11.578
64794SOL    HW196279   8.367  10.591  11.487
64794SOL    HW296280   8.417  10.585  11.630
64795SOL     OW96281   1.753  11.590   6.188
64795SOL    HW196282   1.847  11.576   6.191
64795SOL    HW296283   1.729  11.568   6.098
64796SOL     OW96284   1.700   3.557   5.208
64796SOL    HW196285   1.618   3.558   5.159
64796SOL    HW296286   1.746   3.636   5.178
64797SOL     OW96287   3.482   8.281  10.186
64797SOL    HW196288   3.409   8.221  10.200
64797SOL    HW296289   3.533   8.240  10.115
64798SOL     OW96290  14.590   2.173  11.410
64798SOL    HW196291  14.496   2.179  11.425
64798SOL    HW296292  14.598   2.136  11.322
64799SOL     OW96293   8.269   1.793  11.067
64799SOL    HW196294   8.284   1.785  10.973
64799SOL    HW296295   8.189   1.743  11.082
64800SOL     OW96296   7.560   0.625  10.671
64800SOL    HW196297   7.495   0.588  10.731
64800SOL    HW296298   7.618   0.552  10.650
64801SOL     OW96299   6.597   3.705  11.704
64801SOL    HW196300   6.585   3.610  11.697
64801SOL    HW296301   6.572   3.739  11.618
64802SOL     OW96302  11.599   8.669   7.553
64802SOL    HW196303  11.592   8.635   7.642
64802SOL    HW296304  11.509   8.666   7.520
64803SOL     OW96305   2.221   2.277   1.185
64803SOL    HW196306   2.312   2.299   1.167
64803SOL    HW296307   2.215   2.182   1.169
64804SOL     OW96308   1.538   1.226   3.723
64804SOL    HW196309   1.504   1.297   3.776
64804SOL    HW296310   1.461   1.176   3.695
64805SOL     OW96311   9.082   2.414   7.008
64805SOL    HW196312   9.065   2.390   7.099
64805SOL    HW296313   9.022   2.486   6.990
64806SOL     OW96314  11.180  11.164   8.110
64806SOL    HW196315  11.244  11.235   8.104
64806SOL    HW296316  11.109  11.191   8.052
64807SOL     OW96317  14.524   0.415  13.047
64807SOL    HW196318  14.456   0.448  13.106
64807SOL    HW296319  14.605   0.419  13.099
64808SOL     OW96320  14.202   7.263   2.580
64808SOL    HW196321  14.256   7.302   2.649
64808SOL    HW296322  14.217   7.168   2.588
64809SOL     OW96323   7.610   7.856   5.434
64809SOL    HW196324   7.567   7.814   5.360
64809SOL    HW296325   7.575   7.810   5.511
64810SOL     OW96326  12.934   8.780   2.472
64810SOL    HW196327  13.021   8.765   2.508
64810SOL    HW296328  12.875   8.756   2.543
64811SOL     OW96329  11.944   9.370  12.322
64811SOL    HW196330  11.911   9.370  12.232
64811SOL    HW296331  11.874   9.330  12.373
64812SOL     OW96332  12.963   8.566   6.554
64812SOL    HW196333  12.985   8.475   6.575
64812SOL    HW296334  13.045   8.614   6.567
64813SOL     OW96335   5.794  10.734   9.874
64813SOL    HW196336   5.862  10.690   9.824
64813SOL    HW296337   5.737  10.774   9.808
64814SOL     OW96338   2.742  11.842  13.791
64814SOL    HW196339   2.814  11.811  13.847
64814SOL    HW296340   2.786  11.876  13.713
64815SOL     OW96341   9.442  12.351   7.266
64815SOL    HW196342   9.440  12.438   7.225
64815SOL    HW296343   9.531  12.320   7.253
64816SOL     OW96344  10.400  11.503   6.787
64816SOL    HW196345  10.463  11.451   6.838
64816SOL    HW296346  10.321  11.450   6.787
64817SOL     OW96347   7.544   7.393   5.500
64817SOL    HW196348   7.460   7.355   5.523
64817SOL    HW296349   7.575   7.435   5.580
64818SOL     OW96350   1.304   3.875   9.356
64818SOL    HW196351   1.398   3.876   9.336
64818SOL    HW296352   1.261   3.876   9.270
64819SOL     OW96353   8.758   7.956   9.531
64819SOL    HW196354   8.721   7.874   9.564
64819SOL    HW296355   8.738   8.021   9.598
64820SOL     OW96356  12.535   0.327   3.261
64820SOL    HW196357  12.535   0.309   3.355
64820SOL    HW296358  12.504   0.418   3.254
64821SOL     OW96359   4.222  13.808   0.525
64821SOL    HW196360   4.228  13.751   0.448
64821SOL    HW296361   4.286  13.772   0.586
64822SOL     OW96362   1.318  12.027   8.899
64822SOL    HW196363   1.393  12.019   8.958
64822SOL    HW296364   1.324  12.116   8.865
64823SOL     OW96365   3.421   1.226   1.818
64823SOL    HW196366   3.378   1.278   1.886
64823SOL    HW296367   3.372   1.245   1.739
64824SOL     OW96368   7.041  12.769  11.987
64824SOL    HW196369   6.960  12.721  12.002
64824SOL    HW296370   7.083  12.774  12.073
64825SOL     OW96371  13.570   6.226   4.710
64825SOL    HW196372  13.505   6.289   4.680
64825SOL    HW296373  13.648   6.279   4.726
64826SOL     OW96374  10.635  14.232   9.233
64826SOL    HW196375  10.637  14.291   9.158
64826SOL    HW296376  10.712  14.256   9.284
64827SOL     OW96377   6.431  14.762   5.005
64827SOL    HW196378   6.444  14.684   5.058
64827SOL    HW296379   6.456  14.736   4.916
64828SOL     OW96380  11.918  14.778   0.090
64828SOL    HW196381  11.889  14.869   0.086
64828SOL    HW296382  12.002  14.778   0.043
64829SOL     OW96383   4.363   6.932  10.058
64829SOL    HW196384   4.450   6.972  10.051
64829SOL    HW296385   4.317   6.986  10.122
64830SOL     OW96386  10.074  10.998  10.974
64830SOL    HW196387  10.007  11.066  10.965
64830SOL    HW296388  10.142  11.024  10.911
64831SOL     OW96389   5.529  11.761   0.784
64831SOL    HW196390   5.515  11.799   0.698
64831SOL    HW296391   5.623  11.769   0.799
64832SOL     OW96392   0.406   1.088  13.011
64832SOL    HW196393   0.465   1.162  13.000
64832SOL    HW296394   0.452   1.015  12.969
64833SOL     OW96395   0.266  12.746   6.650
64833SOL    HW196396   0.254  12.661   6.692
64833SOL    HW296397   0.256  12.728   6.557
64834SOL     OW96398   7.474   0.311   3.953
64834SOL    HW196399   7.535   0.269   4.013
64834SOL    HW296400   7.493   0.405   3.960
64835SOL     OW96401   0.259  13.372   3.785
64835SOL    HW196402   0.293  13.363   3.696
64835SOL    HW296403   0.318  13.434   3.827
64836SOL     OW96404   7.114   7.550   2.797
64836SOL    HW196405   7.113   7.646   2.796
64836SOL    HW296406   7.176   7.526   2.728
64837SOL     OW96407   3.112   8.020  13.140
64837SOL    HW196408   3.056   7.944  13.123
64837SOL    HW296409   3.076   8.058  13.220
64838SOL     OW96410  13.689   8.733   4.793
64838SOL    HW196411  13.595   8.719   4.781
64838SOL    HW296412  13.711   8.681   4.870
64839SOL     OW96413   6.344   9.625   6.355
64839SOL    HW196414   6.257   9.629   6.394
64839SOL    HW296415   6.341   9.548   6.298
64840SOL     OW96416  14.714   0.545   2.231
64840SOL    HW196417  14.767   0.466   2.220
64840SOL    HW296418  14.632   0.514   2.269
64841SOL     OW96419  12.974  12.065  14.657
64841SOL    HW196420  12.982  12.149  14.612
64841SOL    HW296421  13.045  12.066  14.722
64842SOL     OW96422  11.635  10.735   9.862
64842SOL    HW196423  11.597  10.772   9.942
64842SOL    HW296424  11.643  10.641   9.880
64843SOL     OW96425   2.269   5.348   1.270
64843SOL    HW196426   2.190   5.342   1.217
64843SOL    HW296427   2.294   5.441   1.265
64844SOL     OW96428   6.904   6.432   2.344
64844SOL    HW196429   6.829   6.491   2.351
64844SOL    HW296430   6.979   6.490   2.328
64845SOL     OW96431  11.712   1.716   0.883
64845SOL    HW196432  11.785   1.778   0.889
64845SOL    HW296433  11.754   1.631   0.875
64846SOL     OW96434   2.181   3.097   2.473
64846SOL    HW196435   2.129   3.017   2.471
64846SOL    HW296436   2.244   3.086   2.402
64847SOL     OW96437   6.455   7.679   0.054
64847SOL    HW196438   6.490   7.762   0.086
64847SOL    HW296439   6.362   7.683   0.073
64848SOL     OW96440   9.695  14.466   0.976
64848SOL    HW196441   9.630  14.501   0.914
64848SOL    HW296442   9.753  14.413   0.922
64849SOL     OW96443   0.127   1.200  10.153
64849SOL    HW196444   0.087   1.255  10.085
64849SOL    HW296445   0.218   1.190  10.125
64850SOL     OW96446  11.293   3.975   5.301
64850SOL    HW196447  11.342   4.009   5.226
64850SOL    HW296448  11.304   3.880   5.296
64851SOL     OW96449   0.754   8.975  12.823
64851SOL    HW196450   0.813   9.000  12.894
64851SOL    HW296451   0.709   8.898  12.856
64852SOL     OW96452  12.975   0.565   5.590
64852SOL    HW196453  13.020   0.544   5.671
64852SOL    HW296454  12.883   0.576   5.615
64853SOL     OW96455   6.827  14.638   6.112
64853SOL    HW196456   6.830  14.626   6.017
64853SOL    HW296457   6.747  14.593   6.139
64854SOL     OW96458   7.092   1.520   1.193
64854SOL    HW196459   7.090   1.427   1.218
64854SOL    HW296460   7.145   1.521   1.113
64855SOL     OW96461   3.331   3.705  13.712
64855SOL    HW196462   3.323   3.614  13.682
64855SOL    HW296463   3.256   3.750  13.673
64856SOL     OW96464   6.365  11.868   0.228
64856SOL    HW196465   6.312  11.798   0.265
64856SOL    HW296466   6.370  11.934   0.297
64857SOL     OW96467  10.286   5.021   6.284
64857SOL    HW196468  10.203   5.011   6.237
64857SOL    HW296469  10.318   4.931   6.296
64858SOL     OW96470  14.738   7.397  14.870
64858SOL    HW196471  14.653   7.355   0.007
64858SOL    HW296472  14.773   7.401   0.088
64859SOL     OW96473   3.163  11.569   1.755
64859SOL    HW196474   3.119  11.644   1.716
64859SOL    HW296475   3.112  11.494   1.725
64860SOL     OW96476   8.857  13.304   0.633
64860SOL    HW196477   8.826  13.225   0.678
64860SOL    HW296478   8.783  13.331   0.579
64861SOL     OW96479   7.473  11.082   5.871
64861SOL    HW196480   7.424  11.019   5.818
64861SOL    HW296481   7.499  11.150   5.810
64862SOL     OW96482  12.077  11.789   9.443
64862SOL    HW196483  12.029  11.857   9.490
64862SOL    HW296484  12.136  11.752   9.508
64863SOL     OW96485   3.474   9.760  13.553
64863SOL    HW196486   3.475   9.774  13.458
64863SOL    HW296487   3.386   9.729  13.572
64864SOL     OW96488   9.144   6.539   4.388
64864SOL    HW196489   9.101   6.590   4.457
64864SOL    HW296490   9.138   6.448   4.419
64865SOL     OW96491  11.108   8.695   0.638
64865SOL    HW196492  11.152   8.619   0.676
64865SOL    HW296493  11.147   8.705   0.551
64866SOL     OW96494   8.780   2.804  12.809
64866SOL    HW196495   8.690   2.799  12.776
64866SOL    HW296496   8.782   2.744  12.884
64867SOL     OW96497   6.553   9.514  13.885
64867SOL    HW196498   6.484   9.460  13.848
64867SOL    HW296499   6.586   9.566  13.811
64868SOL     OW96500   8.686   8.883  10.339
64868SOL    HW196501   8.614   8.924  10.291
64868SOL    HW296502   8.643   8.831  10.407
64869SOL     OW96503  12.640  11.255   2.451
64869SOL    HW196504  12.554  11.224   2.481
64869SOL    HW296505  12.693  11.176   2.443
64870SOL     OW96506  13.579  11.292   6.271
64870SOL    HW196507  13.661  11.272   6.226
64870SOL    HW296508  13.606  11.323   6.358
64871SOL     OW96509   7.681   8.563   8.260
64871SOL    HW196510   7.588   8.573   8.237
64871SOL    HW296511   7.701   8.472   8.237
64872SOL     OW96512   7.446  10.343  14.388
64872SOL    HW196513   7.425  10.392  14.309
64872SOL    HW296514   7.361  10.325  14.429
64873SOL     OW96515   5.660  13.056   5.632
64873SOL    HW196516   5.604  13.094   5.699
64873SOL    HW296517   5.748  13.084   5.656
64874SOL     OW96518   5.690   5.492   8.289
64874SOL    HW196519   5.764   5.473   8.347
64874SOL    HW296520   5.615   5.497   8.348
64875SOL     OW96521   3.021  11.972   5.842
64875SOL    HW196522   3.094  11.911   5.836
64875SOL    HW296523   2.980  11.952   5.927
64876SOL     OW96524  14.424   1.052  12.479
64876SOL    HW196525  14.493   1.118  12.486
64876SOL    HW296526  14.386   1.066  12.392
64877SOL     OW96527   2.063   2.014   5.402
64877SOL    HW196528   2.150   2.042   5.374
64877SOL    HW296529   2.022   2.093   5.438
64878SOL     OW96530   1.184   3.845  10.323
64878SOL    HW196531   1.157   3.893  10.401
64878SOL    HW296532   1.107   3.795  10.298
64879SOL     OW96533   2.503   1.171   0.989
64879SOL    HW196534   2.469   1.248   1.034
64879SOL    HW296535   2.497   1.100   1.053
64880SOL     OW96536  13.719   1.507   1.509
64880SOL    HW196537  13.808   1.488   1.540
64880SOL    HW296538  13.712   1.458   1.427
64881SOL     OW96539  12.081   2.432   1.221
64881SOL    HW196540  12.137   2.363   1.257
64881SOL    HW296541  11.994   2.412   1.253
64882SOL     OW96542   8.468   4.818  12.001
64882SOL    HW196543   8.410   4.847  12.072
64882SOL    HW296544   8.434   4.733  11.976
64883SOL     OW96545  11.622   8.635   1.562
64883SOL    HW196546  11.705   8.592   1.582
64883SOL    HW296547  11.574   8.572   1.509
64884SOL     OW96548   6.389   4.274   6.183
64884SOL    HW196549   6.433   4.358   6.171
64884SOL    HW296550   6.438   4.231   6.253
64885SOL     OW96551  14.868   2.200   4.988
64885SOL    HW196552  14.807   2.248   5.045
64885SOL    HW296553   0.083   2.219   5.024
64886SOL     OW96554  11.253  10.111   2.434
64886SOL    HW196555  11.223  10.033   2.387
64886SOL    HW296556  11.327  10.143   2.382
64887SOL     OW96557  12.276  10.408   2.336
64887SOL    HW196558  12.336  10.414   2.262
64887SOL    HW296559  12.251  10.499   2.354
64888SOL     OW96560  11.242   4.667   9.774
64888SOL    HW196561  11.165   4.676   9.718
64888SOL    HW296562  11.300   4.737   9.745
64889SOL     OW96563   3.215   3.167   1.923
64889SOL    HW196564   3.195   3.074   1.915
64889SOL    HW296565   3.267   3.173   2.003
64890SOL     OW96566   4.874  13.784   3.649
64890SOL    HW196567   4.818  13.777   3.571
64890SOL    HW296568   4.953  13.827   3.618
64891SOL     OW96569  13.871  13.362   7.186
64891SOL    HW196570  13.883  13.441   7.134
64891SOL    HW296571  13.806  13.311   7.138
64892SOL     OW96572   7.407   8.600   0.641
64892SOL    HW196573   7.353   8.602   0.561
64892SOL    HW296574   7.350   8.638   0.708
64893SOL     OW96575   4.829   1.954  12.862
64893SOL    HW196576   4.785   1.869  12.851
64893SOL    HW296577   4.759   2.018  12.853
64894SOL     OW96578   1.634  13.325   0.233
64894SOL    HW196579   1.586  13.275   0.167
64894SOL    HW296580   1.682  13.259   0.284
64895SOL     OW96581  13.664   8.967  11.547
64895SOL    HW196582  13.580   8.928  11.574
64895SOL    HW296583  13.698   9.006  11.627
64896SOL     OW96584   2.015   5.841  14.506
64896SOL    HW196585   2.042   5.749  14.496
64896SOL    HW296586   1.936   5.836  14.561
64897SOL     OW96587   0.624   7.081   2.046
64897SOL    HW196588   0.634   7.165   2.091
64897SOL    HW296589   0.532   7.059   2.059
64898SOL     OW96590  14.201   2.753  13.914
64898SOL    HW196591  14.147   2.701  13.854
64898SOL    HW296592  14.289   2.717  13.903
64899SOL     OW96593  12.809  10.419  14.230
64899SOL    HW196594  12.769  10.347  14.182
64899SOL    HW296595  12.888  10.441  14.180
64900SOL     OW96596  11.929   9.564   9.110
64900SOL    HW196597  11.947   9.658   9.112
64900SOL    HW296598  11.857   9.555   9.048
64901SOL     OW96599   4.675  13.109   7.102
64901SOL    HW196600   4.763  13.075   7.121
64901SOL    HW296601   4.662  13.179   7.167
64902SOL     OW96602   0.205   1.612  14.146
64902SOL    HW196603   0.147   1.540  14.171
64902SOL    HW296604   0.292   1.585  14.174
64903SOL     OW96605   1.193   8.127  13.547
64903SOL    HW196606   1.162   8.200  13.494
64903SOL    HW296607   1.287   8.124  13.530
64904SOL     OW96608  14.179  10.820   8.966
64904SOL    HW196609  14.222  10.735   8.970
64904SOL    HW296610  14.089  10.800   8.939
64905SOL     OW96611   7.213   9.385  12.509
64905SOL    HW196612   7.255   9.329  12.575
64905SOL    HW296613   7.144   9.330  12.472
64906SOL     OW96614   1.188   6.778  14.207
64906SOL    HW196615   1.276   6.744  14.191
64906SOL    HW296616   1.133   6.699  14.213
64907SOL     OW96617   8.337   0.181   9.516
64907SOL    HW196618   8.249   0.160   9.482
64907SOL    HW296619   8.321   0.207   9.607
64908SOL     OW96620   0.132   8.363  10.326
64908SOL    HW196621   0.142   8.271  10.302
64908SOL    HW296622   0.140   8.411  10.244
64909SOL     OW96623   9.733   1.876   8.104
64909SOL    HW196624   9.763   1.964   8.128
64909SOL    HW296625   9.766   1.863   8.016
64910SOL     OW96626   4.454   1.985   9.313
64910SOL    HW196627   4.448   2.043   9.237
64910SOL    HW296628   4.516   2.028   9.372
64911SOL     OW96629   3.019  14.382   8.952
64911SOL    HW196630   2.939  14.347   8.914
64911SOL    HW296631   2.990  14.433   9.027
64912SOL     OW96632   6.322   1.087   9.359
64912SOL    HW196633   6.308   1.148   9.431
64912SOL    HW296634   6.406   1.112   9.321
64913SOL     OW96635  12.206  13.293  14.313
64913SOL    HW196636  12.231  13.202  14.301
64913SOL    HW296637  12.177  13.298  14.404
64914SOL     OW96638   8.365   1.598  13.841
64914SOL    HW196639   8.417   1.623  13.918
64914SOL    HW296640   8.296   1.541  13.876
64915SOL     OW96641   5.063  10.280  12.840
64915SOL    HW196642   4.999  10.328  12.893
64915SOL    HW296643   5.019  10.198  12.818
64916SOL     OW96644  10.751   9.651  12.365
64916SOL    HW196645  10.727   9.559  12.354
64916SOL    HW296646  10.805   9.672  12.288
64917SOL     OW96647   3.708  13.547  12.757
64917SOL    HW196648   3.735  13.592  12.677
64917SOL    HW296649   3.732  13.609  12.827
64918SOL     OW96650  13.353   3.461   1.738
64918SOL    HW196651  13.264   3.436   1.760
64918SOL    HW296652  13.407   3.389   1.770
64919SOL     OW96653   5.993  14.166   6.925
64919SOL    HW196654   5.991  14.100   6.856
64919SOL    HW296655   6.083  14.162   6.959
64920SOL     OW96656   7.780   5.335   2.548
64920SOL    HW196657   7.839   5.260   2.549
64920SOL    HW296658   7.727   5.323   2.470
64921SOL     OW96659   1.500   6.984   5.202
64921SOL    HW196660   1.455   7.050   5.150
64921SOL    HW296661   1.583   7.025   5.226
64922SOL     OW96662  12.171   8.512  11.359
64922SOL    HW196663  12.174   8.517  11.455
64922SOL    HW296664  12.159   8.603  11.331
64923SOL     OW96665   2.935   6.947   2.668
64923SOL    HW196666   2.869   6.951   2.599
64923SOL    HW296667   2.937   7.035   2.705
64924SOL     OW96668   6.637  12.276   6.878
64924SOL    HW196669   6.547  12.304   6.895
64924SOL    HW296670   6.667  12.240   6.961
64925SOL     OW96671   2.068   3.825  13.782
64925SOL    HW196672   2.021   3.772  13.718
64925SOL    HW296673   2.116   3.762  13.835
64926SOL     OW96674   3.734   7.020  11.804
64926SOL    HW196675   3.718   7.114  11.798
64926SOL    HW296676   3.760   6.994  11.716
64927SOL     OW96677   3.415  10.595  10.673
64927SOL    HW196678   3.457  10.682  10.673
64927SOL    HW296679   3.483  10.536  10.708
64928SOL     OW96680   5.953   9.547   2.246
64928SOL    HW196681   5.926   9.595   2.169
64928SOL    HW296682   5.962   9.613   2.315
64929SOL     OW96683   1.188  11.466   7.048
64929SOL    HW196684   1.236  11.472   7.130
64929SOL    HW296685   1.098  11.446   7.075
64930SOL     OW96686   7.309   9.411  12.207
64930SOL    HW196687   7.293   9.401  12.301
64930SOL    HW296688   7.345   9.499  12.198
64931SOL     OW96689  11.186  14.763   4.734
64931SOL    HW196690  11.153  14.751   4.645
64931SOL    HW296691  11.210  14.856   4.738
64932SOL     OW96692   7.067   7.433   7.651
64932SOL    HW196693   7.162   7.428   7.656
64932SOL    HW296694   7.049   7.459   7.560
64933SOL     OW96695   9.118   4.641  12.246
64933SOL    HW196696   9.099   4.584  12.171
64933SOL    HW296697   9.214   4.646  12.249
64934SOL     OW96698   0.288   1.085  12.085
64934SOL    HW196699   0.381   1.103  12.102
64934SOL    HW296700   0.252   1.063  12.171
64935SOL     OW96701   1.707   9.991   3.001
64935SOL    HW196702   1.766   9.949   2.938
64935SOL    HW296703   1.758  10.066   3.033
64936SOL     OW96704   2.131   9.150  12.163
64936SOL    HW196705   2.122   9.121  12.072
64936SOL    HW296706   2.063   9.217  12.173
64937SOL     OW96707   4.680  13.000  11.321
64937SOL    HW196708   4.763  13.006  11.274
64937SOL    HW296709   4.659  12.907  11.320
64938SOL     OW96710  14.108   5.059  12.569
64938SOL    HW196711  14.111   4.985  12.509
64938SOL    HW296712  14.055   5.028  12.643
64939SOL     OW96713   8.731  11.558   2.117
64939SOL    HW196714   8.774  11.473   2.119
64939SOL    HW296715   8.637  11.537   2.119
64940SOL     OW96716   3.625   9.568  14.117
64940SOL    HW196717   3.552   9.525  14.072
64940SOL    HW296718   3.656   9.634  14.055
64941SOL     OW96719   4.977   4.894  13.540
64941SOL    HW196720   5.073   4.890  13.536
64941SOL    HW296721   4.948   4.826  13.480
64942SOL     OW96722   2.779   8.421  12.053
64942SOL    HW196723   2.869   8.418  12.022
64942SOL    HW296724   2.754   8.513  12.050
64943SOL     OW96725  11.183  13.652   5.034
64943SOL    HW196726  11.263  13.705   5.025
64943SOL    HW296727  11.176  13.606   4.950
64944SOL     OW96728   7.419  14.208   4.857
64944SOL    HW196729   7.480  14.204   4.783
64944SOL    HW296730   7.342  14.160   4.827
64945SOL     OW96731   2.136   3.513   1.610
64945SOL    HW196732   2.141   3.418   1.597
64945SOL    HW296733   2.043   3.533   1.613
64946SOL     OW96734   4.884  13.989   5.190
64946SOL    HW196735   4.974  13.974   5.219
64946SOL    HW296736   4.892  14.050   5.116
64947SOL     OW96737   9.874   3.622   2.246
64947SOL    HW196738   9.894   3.536   2.282
64947SOL    HW296739   9.793   3.649   2.288
64948SOL     OW96740  11.382  12.834  13.837
64948SOL    HW196741  11.427  12.857  13.918
64948SOL    HW296742  11.348  12.917  13.804
64949SOL     OW96743   8.758  13.678  14.608
64949SOL    HW196744   8.760  13.596  14.656
64949SOL    HW296745   8.699  13.662  14.534
64950SOL     OW96746  13.476   6.068  10.006
64950SOL    HW196747  13.506   5.997   9.949
64950SOL    HW296748  13.383   6.050  10.020
64951SOL     OW96749   8.076  11.565  12.138
64951SOL    HW196750   8.133  11.639  12.116
64951SOL    HW296751   8.120  11.521  12.210
64952SOL     OW96752   6.301  14.341   3.025
64952SOL    HW196753   6.380  14.390   3.048
64952SOL    HW296754   6.333  14.264   2.978
64953SOL     OW96755   5.371   2.607  11.677
64953SOL    HW196756   5.438   2.661  11.635
64953SOL    HW296757   5.389   2.616  11.771
64954SOL     OW96758   1.332   1.215   5.856
64954SOL    HW196759   1.266   1.159   5.814
64954SOL    HW296760   1.323   1.197   5.950
64955SOL     OW96761   8.547  13.838   3.425
64955SOL    HW196762   8.570  13.926   3.454
64955SOL    HW296763   8.461  13.822   3.462
64956SOL     OW96764   7.614  12.078   3.593
64956SOL    HW196765   7.679  12.098   3.525
64956SOL    HW296766   7.637  11.991   3.623
64957SOL     OW96767   9.039  13.253  12.155
64957SOL    HW196768   9.047  13.348  12.168
64957SOL    HW296769   8.954  13.243  12.111
64958SOL     OW96770   9.141   9.841   7.511
64958SOL    HW196771   9.169   9.755   7.542
64958SOL    HW296772   9.174   9.846   7.421
64959SOL     OW96773   0.276   7.087   0.587
64959SOL    HW196774   0.186   7.107   0.613
64959SOL    HW296775   0.267   7.025   0.514
64960SOL     OW96776   2.816   7.953  10.940
64960SOL    HW196777   2.879   7.926  10.874
64960SOL    HW296778   2.860   7.937  11.023
64961SOL     OW96779  13.393  14.528  13.291
64961SOL    HW196780  13.440  14.590  13.347
64961SOL    HW296781  13.382  14.575  13.208
64962SOL     OW96782   1.118   1.672   2.012
64962SOL    HW196783   1.059   1.612   2.058
64962SOL    HW296784   1.129   1.633   1.925
64963SOL     OW96785   1.511   3.623   9.381
64963SOL    HW196786   1.456   3.556   9.424
64963SOL    HW296787   1.480   3.624   9.290
64964SOL     OW96788  12.805   3.744   9.054
64964SOL    HW196789  12.877   3.683   9.041
64964SOL    HW296790  12.835   3.825   9.012
64965SOL     OW96791  10.865  13.268   1.556
64965SOL    HW196792  10.951  13.234   1.583
64965SOL    HW296793  10.876  13.293   1.465
64966SOL     OW96794  11.867   0.342  13.505
64966SOL    HW196795  11.877   0.437  13.498
64966SOL    HW296796  11.892   0.322  13.596
64967SOL     OW96797  10.544   5.522  10.679
64967SOL    HW196798  10.509   5.482  10.599
64967SOL    HW296799  10.466   5.541  10.732
64968SOL     OW96800   1.021   2.496   1.263
64968SOL    HW196801   1.061   2.447   1.335
64968SOL    HW296802   1.047   2.586   1.279
64969SOL     OW96803  10.485   2.563  12.795
64969SOL    HW196804  10.394   2.577  12.768
64969SOL    HW296805  10.487   2.590  12.887
64970SOL     OW96806   7.074   4.365  12.862
64970SOL    HW196807   7.068   4.327  12.775
64970SOL    HW296808   7.016   4.441  12.859
64971SOL     OW96809   4.003   7.334   4.341
64971SOL    HW196810   4.015   7.262   4.404
64971SOL    HW296811   4.092   7.363   4.321
64972SOL     OW96812   3.283   9.697   8.689
64972SOL    HW196813   3.302   9.640   8.614
64972SOL    HW296814   3.258   9.780   8.651
64973SOL     OW96815  10.512   1.045  10.388
64973SOL    HW196816  10.607   1.043  10.375
64973SOL    HW296817  10.499   1.101  10.464
64974SOL     OW96818  10.236  10.249  11.400
64974SOL    HW196819  10.181  10.247  11.321
64974SOL    HW296820  10.214  10.333  11.442
64975SOL     OW96821   0.590   6.277   3.572
64975SOL    HW196822   0.613   6.229   3.492
64975SOL    HW296823   0.639   6.359   3.566
64976SOL     OW96824   7.271   4.968   4.612
64976SOL    HW196825   7.289   4.951   4.704
64976SOL    HW296826   7.199   4.909   4.590
64977SOL     OW96827   3.107  11.896   1.734
64977SOL    HW196828   3.096  11.967   1.797
64977SOL    HW296829   3.062  11.927   1.655
64978SOL     OW96830   8.954  12.318  10.234
64978SOL    HW196831   8.910  12.258  10.294
64978SOL    HW296832   8.883  12.365  10.190
64979SOL     OW96833   2.993   9.743   6.247
64979SOL    HW196834   3.062   9.810   6.239
64979SOL    HW296835   2.932   9.780   6.311
64980SOL     OW96836   0.317   6.703   0.774
64980SOL    HW196837   0.239   6.650   0.789
64980SOL    HW296838   0.306   6.736   0.684
64981SOL     OW96839  13.010   0.307  13.852
64981SOL    HW196840  12.961   0.289  13.932
64981SOL    HW296841  12.966   0.382  13.812
64982SOL     OW96842   1.559   4.189   9.848
64982SOL    HW196843   1.552   4.281   9.823
64982SOL    HW296844   1.648   4.164   9.822
64983SOL     OW96845   6.916   8.519  13.424
64983SOL    HW196846   6.916   8.484  13.512
64983SOL    HW296847   6.893   8.611  13.434
64984SOL     OW96848   3.383   9.354   8.322
64984SOL    HW196849   3.423   9.285   8.375
64984SOL    HW296850   3.298   9.318   8.296
64985SOL     OW96851   2.259   6.911   0.086
64985SOL    HW196852   2.249   6.816   0.073
64985SOL    HW296853   2.294   6.942   0.002
64986SOL     OW96854   9.791   3.006  14.004
64986SOL    HW196855   9.839   3.084  14.032
64986SOL    HW296856   9.702   3.020  14.037
64987SOL     OW96857   7.038  11.967  14.106
64987SOL    HW196858   7.010  12.009  14.025
64987SOL    HW296859   7.012  12.028  14.175
64988SOL     OW96860   9.414   3.443   3.119
64988SOL    HW196861   9.485   3.385   3.092
64988SOL    HW296862   9.341   3.418   3.062
64989SOL     OW96863   3.016   1.119   8.004
64989SOL    HW196864   3.091   1.080   8.048
64989SOL    HW296865   2.990   1.192   8.060
64990SOL     OW96866   2.008  13.231   3.423
64990SOL    HW196867   2.085  13.266   3.468
64990SOL    HW296868   2.022  13.254   3.331
64991SOL     OW96869   1.102   5.199   6.331
64991SOL    HW196870   1.067   5.250   6.404
64991SOL    HW296871   1.034   5.205   6.263
64992SOL     OW96872  10.827   4.186   0.758
64992SOL    HW196873  10.838   4.097   0.793
64992SOL    HW296874  10.890   4.239   0.806
64993SOL     OW96875  12.618   8.095   3.096
64993SOL    HW196876  12.655   8.183   3.103
64993SOL    HW296877  12.547   8.104   3.033
64994SOL     OW96878   0.662   3.605   8.566
64994SOL    HW196879   0.577   3.567   8.587
64994SOL    HW296880   0.667   3.603   8.470
64995SOL     OW96881   3.937  14.848   6.423
64995SOL    HW196882   3.984  14.770   6.392
64995SOL    HW296883   3.935  14.838   6.518
64996SOL     OW96884   6.436  12.879   9.985
64996SOL    HW196885   6.441  12.848   9.895
64996SOL    HW296886   6.509  12.939   9.995
64997SOL     OW96887  14.612   0.673   4.386
64997SOL    HW196888  14.589   0.766   4.377
64997SOL    HW296889  14.607   0.638   4.297
64998SOL     OW96890   5.465   3.756   7.394
64998SOL    HW196891   5.415   3.674   7.391
64998SOL    HW296892   5.399   3.824   7.398
64999SOL     OW96893   1.700   8.679   9.986
64999SOL    HW196894   1.697   8.688   9.890
64999SOL    HW296895   1.785   8.714  10.011
65000SOL     OW96896   7.932   0.072  12.973
65000SOL    HW196897   7.996   0.067  12.902
65000SOL    HW296898   7.967   0.139  13.032
65001SOL     OW96899   9.547   4.428   7.530
65001SOL    HW196900   9.497   4.465   7.603
65001SOL    HW296901   9.492   4.358   7.495
65002SOL     OW96902   1.902   9.773   1.286
65002SOL    HW196903   1.954   9.843   1.246
65002SOL    HW296904   1.873   9.810   1.369
65003SOL     OW96905  14.570   1.221   6.744
65003SOL    HW196906  14.637   1.154   6.728
65003SOL    HW296907  14.620   1.298   6.770
65004SOL     OW96908   4.858  12.761   5.380
65004SOL    HW196909   4.891  12.773   5.291
65004SOL    HW296910   4.930  12.718   5.426
65005SOL     OW96911   1.989  12.386   2.865
65005SOL    HW196912   2.078  12.350   2.862
65005SOL    HW296913   2.001  12.478   2.885
65006SOL     OW96914  11.514  14.324  10.140
65006SOL    HW196915  11.565  14.405  10.144
65006SOL    HW296916  11.431  14.350  10.100
65007SOL     OW96917   1.679   4.439  12.912
65007SOL    HW196918   1.708   4.529  12.920
65007SOL    HW296919   1.597   4.444  12.863
65008SOL     OW96920   5.275   1.567   0.588
65008SOL    HW196921   5.365   1.539   0.600
65008SOL    HW296922   5.260   1.632   0.657
65009SOL     OW96923   1.741   4.473   4.980
65009SOL    HW196924   1.715   4.554   5.023
65009SOL    HW296925   1.743   4.493   4.887
65010SOL     OW96926   7.338   6.295   2.769
65010SOL    HW196927   7.401   6.356   2.809
65010SOL    HW296928   7.321   6.230   2.837
65011SOL     OW96929   3.909   5.543   4.228
65011SOL    HW196930   3.961   5.464   4.216
65011SOL    HW296931   3.963   5.598   4.285
65012SOL     OW96932   3.114   0.700   1.141
65012SOL    HW196933   3.083   0.735   1.225
65012SOL    HW296934   3.036   0.665   1.099
65013SOL     OW96935  10.593   0.105   6.616
65013SOL    HW196936  10.549   0.026   6.585
65013SOL    HW296937  10.535   0.176   6.591
65014SOL     OW96938  13.443  11.970   9.802
65014SOL    HW196939  13.521  12.009   9.763
65014SOL    HW296940  13.427  11.891   9.750
65015SOL     OW96941   3.909  12.409   4.943
65015SOL    HW196942   3.919  12.372   5.030
65015SOL    HW296943   3.997  12.405   4.905
65016SOL     OW96944   3.971   7.246   2.130
65016SOL    HW196945   3.884   7.212   2.109
65016SOL    HW296946   4.030   7.173   2.115
65017SOL     OW96947   8.787   1.816   7.528
65017SOL    HW196948   8.813   1.725   7.541
65017SOL    HW296949   8.827   1.863   7.602
65018SOL     OW96950  12.289   2.857   0.005
65018SOL    HW196951  12.336   2.933  14.841
65018SOL    HW296952  12.197   2.878  14.861
65019SOL     OW96953   0.807  11.961   0.087
65019SOL    HW196954   0.718  11.995   0.087
65019SOL    HW296955   0.858  12.029   0.132
65020SOL     OW96956   2.402   6.803   1.297
65020SOL    HW196957   2.407   6.707   1.297
65020SOL    HW296958   2.329   6.823   1.239
65021SOL     OW96959   5.733   8.186   1.549
65021SOL    HW196960   5.653   8.195   1.496
65021SOL    HW296961   5.701   8.169   1.637
65022SOL     OW96962  11.062  13.853   4.824
65022SOL    HW196963  11.070  13.949   4.820
65022SOL    HW296964  11.093  13.830   4.911
65023SOL     OW96965  14.436  11.193  10.639
65023SOL    HW196966  14.430  11.278  10.595
65023SOL    HW296967  14.528  11.187  10.666
65024SOL     OW96968   0.455   0.255   8.636
65024SOL    HW196969   0.425   0.165   8.619
65024SOL    HW296970   0.550   0.251   8.624
65025SOL     OW96971  13.190  14.415   2.664
65025SOL    HW196972  13.158  14.410   2.574
65025SOL    HW296973  13.122  14.463   2.711
65026SOL     OW96974   0.335  10.211   3.472
65026SOL    HW196975   0.416  10.161   3.472
65026SOL    HW296976   0.274  10.158   3.523
65027SOL     OW96977  12.063   0.779   0.726
65027SOL    HW196978  12.110   0.813   0.649
65027SOL    HW296979  12.128   0.727   0.773
65028SOL     OW96980  11.340  12.750  10.108
65028SOL    HW196981  11.375  12.798  10.184
65028SOL    HW296982  11.254  12.718  10.137
65029SOL     OW96983   4.393   5.170   6.568
65029SOL    HW196984   4.448   5.169   6.646
65029SOL    HW296985   4.304   5.160   6.602
65030SOL     OW96986  12.676  10.163   5.585
65030SOL    HW196987  12.746  10.177   5.648
65030SOL    HW296988  12.713  10.189   5.501
65031SOL     OW96989   0.980  12.477  13.908
65031SOL    HW196990   0.958  12.544  13.973
65031SOL    HW296991   0.904  12.419  13.906
65032SOL     OW96992   6.166   7.230   3.344
65032SOL    HW196993   6.224   7.302   3.317
65032SOL    HW296994   6.224   7.168   3.388
65033SOL     OW96995   5.395   4.053   4.912
65033SOL    HW196996   5.437   3.988   4.854
65033SOL    HW296997   5.315   4.078   4.866
65034SOL     OW96998  12.509   5.975  12.089
65034SOL    HW196999  12.431   5.972  12.033
65034SOL    HW297000  12.539   5.884  12.093
65035SOL     OW97001  12.251   5.687   9.215
65035SOL    HW197002  12.328   5.631   9.218
65035SOL    HW297003  12.269   5.749   9.144
65036SOL     OW97004  14.867  14.771   1.284
65036SOL    HW197005  14.781  14.813   1.289
65036SOL    HW297006  14.848  14.679   1.264
65037SOL     OW97007   4.660   1.220   8.797
65037SOL    HW197008   4.597   1.264   8.741
65037SOL    HW297009   4.610   1.151   8.841
65038SOL     OW97010   7.305   3.557   8.222
65038SOL    HW197011   7.209   3.560   8.228
65038SOL    HW297012   7.324   3.471   8.184
65039SOL     OW97013  12.626  10.709  13.132
65039SOL    HW197014  12.553  10.764  13.159
65039SOL    HW297015  12.704  10.761  13.152
65040SOL     OW97016   8.231  12.581   3.358
65040SOL    HW197017   8.139  12.583   3.333
65040SOL    HW297018   8.230  12.571   3.453
65041SOL     OW97019  13.884  13.052   3.891
65041SOL    HW197020  13.948  12.997   3.937
65041SOL    HW297021  13.819  12.991   3.858
65042SOL     OW97022  12.140   5.085   0.472
65042SOL    HW197023  12.067   5.146   0.484
65042SOL    HW297024  12.216   5.141   0.461
65043SOL     OW97025   9.598   6.995  13.733
65043SOL    HW197026   9.605   7.082  13.694
65043SOL    HW297027   9.673   6.947  13.699
65044SOL     OW97028  12.701   1.350   3.550
65044SOL    HW197029  12.709   1.426   3.492
65044SOL    HW297030  12.610   1.324   3.544
65045SOL     OW97031   8.326   5.534   5.421
65045SOL    HW197032   8.283   5.581   5.349
65045SOL    HW297033   8.374   5.601   5.469
65046SOL     OW97034   2.568  11.362   9.858
65046SOL    HW197035   2.537  11.286   9.908
65046SOL    HW297036   2.515  11.361   9.778
65047SOL     OW97037  14.145  13.675   9.279
65047SOL    HW197038  14.064  13.713   9.247
65047SOL    HW297039  14.131  13.665   9.374
65048SOL     OW97040   5.428   8.082   5.288
65048SOL    HW197041   5.360   8.086   5.221
65048SOL    HW297042   5.495   8.024   5.251
65049SOL     OW97043   8.095   5.835   0.059
65049SOL    HW197044   8.043   5.880  14.863
65049SOL    HW297045   8.040   5.839   0.138
65050SOL     OW97046  11.222   4.674  12.876
65050SOL    HW197047  11.309   4.634  12.876
65050SOL    HW297048  11.165   4.608  12.836
65051SOL     OW97049  10.053  12.758   0.093
65051SOL    HW197050  10.074  12.851   0.103
65051SOL    HW297051  10.003  12.736   0.171
65052SOL     OW97052   7.020   7.355  10.040
65052SOL    HW197053   7.013   7.450  10.034
65052SOL    HW297054   6.943   7.322   9.995
65053SOL     OW97055   9.413   3.129  10.818
65053SOL    HW197056   9.366   3.181  10.884
65053SOL    HW297057   9.505   3.151  10.833
65054SOL     OW97058   2.801   0.690   2.745
65054SOL    HW197059   2.831   0.605   2.778
65054SOL    HW297060   2.848   0.702   2.663
65055SOL     OW97061   5.537  13.749   5.124
65055SOL    HW197062   5.630  13.727   5.123
65055SOL    HW297063   5.519  13.775   5.215
65056SOL     OW97064  11.488   0.752   1.340
65056SOL    HW197065  11.449   0.773   1.425
65056SOL    HW297066  11.488   0.835   1.293
65057SOL     OW97067   4.969  12.078   9.122
65057SOL    HW197068   4.892  12.029   9.093
65057SOL    HW297069   5.032  12.010   9.149
65058SOL     OW97070   5.394   9.191   0.474
65058SOL    HW197071   5.317   9.166   0.423
65058SOL    HW297072   5.358   9.229   0.555
65059SOL     OW97073   0.059  14.239  13.295
65059SOL    HW197074   0.114  14.307  13.334
65059SOL    HW297075   0.065  14.253  13.201
65060SOL     OW97076   5.970   9.548   3.786
65060SOL    HW197077   5.882   9.556   3.749
65060SOL    HW297078   6.029   9.564   3.712
65061SOL     OW97079   8.151   5.253   3.158
65061SOL    HW197080   8.147   5.322   3.093
65061SOL    HW297081   8.061   5.223   3.168
65062SOL     OW97082  14.032  13.638   9.880
65062SOL    HW197083  13.962  13.703   9.886
65062SOL    HW297084  14.006  13.580   9.809
65063SOL     OW97085   4.759   3.145  13.377
65063SOL    HW197086   4.675   3.136  13.421
65063SOL    HW297087   4.745   3.215  13.312
65064SOL     OW97088   6.004  11.112  13.273
65064SOL    HW197089   6.061  11.036  13.283
65064SOL    HW297090   5.986  11.116  13.179
65065SOL     OW97091   4.371   7.420  14.161
65065SOL    HW197092   4.332   7.391  14.244
65065SOL    HW297093   4.383   7.514  14.172
65066SOL     OW97094   7.332   2.814   0.027
65066SOL    HW197095   7.288   2.823   0.111
65066SOL    HW297096   7.425   2.815   0.048
65067SOL     OW97097   1.812   0.188  10.191
65067SOL    HW197098   1.836   0.280  10.193
65067SOL    HW297099   1.716   0.189  10.181
65068SOL     OW97100  11.108  14.753   2.869
65068SOL    HW197101  11.151  14.670   2.850
65068SOL    HW297102  11.173  14.820   2.847
65069SOL     OW97103   1.058  14.210  10.386
65069SOL    HW197104   0.997  14.248  10.450
65069SOL    HW297105   1.037  14.117  10.385
65070SOL     OW97106   6.634  14.017  13.497
65070SOL    HW197107   6.687  14.093  13.518
65070SOL    HW297108   6.635  14.012  13.401
65071SOL     OW97109   3.759   9.248   8.590
65071SOL    HW197110   3.793   9.327   8.632
65071SOL    HW297111   3.715   9.280   8.511
65072SOL     OW97112   6.054  13.003  11.830
65072SOL    HW197113   6.102  12.978  11.751
65072SOL    HW297114   5.962  13.003  11.803
65073SOL     OW97115   0.286  12.138   0.466
65073SOL    HW197116   0.325  12.089   0.393
65073SOL    HW297117   0.342  12.119   0.541
65074SOL     OW97118  14.765  12.388   7.858
65074SOL    HW197119  14.757  12.314   7.917
65074SOL    HW297120  14.836  12.441   7.894
65075SOL     OW97121   9.014  13.719   1.215
65075SOL    HW197122   9.007  13.803   1.170
65075SOL    HW297123   8.945  13.722   1.282
65076SOL     OW97124  11.905  11.394   5.818
65076SOL    HW197125  11.822  11.434   5.791
65076SOL    HW297126  11.938  11.452   5.888
65077SOL     OW97127  12.672   0.656   3.877
65077SOL    HW197128  12.726   0.705   3.815
65077SOL    HW297129  12.621   0.722   3.922
65078SOL     OW97130   8.500   7.748   1.992
65078SOL    HW197131   8.457   7.832   2.011
65078SOL    HW297132   8.574   7.772   1.936
65079SOL     OW97133  12.912   6.615   8.207
65079SOL    HW197134  12.890   6.703   8.176
65079SOL    HW297135  12.872   6.608   8.293
65080SOL     OW97136   0.319  10.900   2.018
65080SOL    HW197137   0.331  10.811   1.986
65080SOL    HW297138   0.325  10.955   1.940
65081SOL     OW97139   7.882   4.595  12.998
65081SOL    HW197140   7.795   4.627  12.974
65081SOL    HW297141   7.926   4.671  13.037
65082SOL     OW97142  12.507   2.464   4.719
65082SOL    HW197143  12.598   2.456   4.748
65082SOL    HW297144  12.486   2.380   4.680
65083SOL     OW97145  11.541   4.779   4.505
65083SOL    HW197146  11.480   4.853   4.505
65083SOL    HW297147  11.498   4.712   4.557
65084SOL     OW97148   4.949   4.331   5.390
65084SOL    HW197149   5.012   4.336   5.461
65084SOL    HW297150   4.903   4.415   5.392
65085SOL     OW97151   5.433  14.572  10.219
65085SOL    HW197152   5.524  14.551  10.196
65085SOL    HW297153   5.403  14.494  10.266
65086SOL     OW97154   1.973  12.933   5.049
65086SOL    HW197155   1.920  12.878   4.991
65086SOL    HW297156   1.910  12.995   5.088
65087SOL     OW97157   0.260   0.863   0.513
65087SOL    HW197158   0.223   0.933   0.460
65087SOL    HW297159   0.243   0.890   0.604
65088SOL     OW97160   6.809   1.699   8.300
65088SOL    HW197161   6.868   1.758   8.253
65088SOL    HW297162   6.860   1.668   8.375
65089SOL     OW97163   4.476  10.517  11.113
65089SOL    HW197164   4.515  10.438  11.075
65089SOL    HW297165   4.384  10.513  11.088
65090SOL     OW97166   2.955   7.627   4.162
65090SOL    HW197167   2.994   7.632   4.249
65090SOL    HW297168   3.026   7.599   4.105
65091SOL     OW97169   9.285   2.031   4.430
65091SOL    HW197170   9.235   1.955   4.403
65091SOL    HW297171   9.237   2.066   4.506
65092SOL     OW97172   6.188   1.499  12.533
65092SOL    HW197173   6.130   1.430  12.500
65092SOL    HW297174   6.235   1.458  12.605
65093SOL     OW97175   0.027   0.553   0.868
65093SOL    HW197176   0.019   0.597   0.783
65093SOL    HW297177   0.056   0.623   0.927
65094SOL     OW97178   1.280   9.977  13.724
65094SOL    HW197179   1.188   9.999  13.710
65094SOL    HW297180   1.325  10.061  13.726
65095SOL     OW97181  13.665  12.872  10.550
65095SOL    HW197182  13.679  12.957  10.509
65095SOL    HW297183  13.673  12.889  10.644
65096SOL     OW97184  13.550   3.488   3.718
65096SOL    HW197185  13.582   3.446   3.638
65096SOL    HW297186  13.621   3.546   3.744
65097SOL     OW97187  12.346   3.714  13.193
65097SOL    HW197188  12.330   3.785  13.131
65097SOL    HW297189  12.400   3.755  13.262
65098SOL     OW97190   9.073   9.063   9.937
65098SOL    HW197191   9.007   9.058   9.868
65098SOL    HW297192   9.153   9.091   9.891
65099SOL     OW97193   0.488   9.531  13.565
65099SOL    HW197194   0.523   9.543  13.654
65099SOL    HW297195   0.527   9.603  13.515
65100SOL     OW97196  13.463   0.969   0.279
65100SOL    HW197197  13.415   0.963   0.361
65100SOL    HW297198  13.395   0.979   0.212
65101SOL     OW97199   7.982  13.114   5.530
65101SOL    HW197200   7.923  13.070   5.469
65101SOL    HW297201   8.030  13.043   5.573
65102SOL     OW97202  10.276   2.442  11.187
65102SOL    HW197203  10.313   2.474  11.269
65102SOL    HW297204  10.181   2.441  11.202
65103SOL     OW97205   0.895  10.338   3.853
65103SOL    HW197206   0.984  10.372   3.843
65103SOL    HW297207   0.904  10.243   3.843
65104SOL     OW97208   0.347   8.808   2.123
65104SOL    HW197209   0.389   8.729   2.159
65104SOL    HW297210   0.272   8.775   2.074
65105SOL     OW97211   8.483   1.181   4.022
65105SOL    HW197212   8.509   1.109   4.080
65105SOL    HW297213   8.424   1.234   4.075
65106SOL     OW97214  13.056   5.574   6.211
65106SOL    HW197215  13.007   5.495   6.185
65106SOL    HW297216  13.069   5.622   6.130
65107SOL     OW97217   0.191   3.618   7.104
65107SOL    HW197218   0.127   3.634   7.173
65107SOL    HW297219   0.168   3.679   7.035
65108SOL     OW97220   5.671  13.904   1.075
65108SOL    HW197221   5.765  13.917   1.088
65108SOL    HW297222   5.636  13.993   1.065
65109SOL     OW97223   5.481  10.504   7.202
65109SOL    HW197224   5.576  10.492   7.210
65109SOL    HW297225   5.470  10.551   7.120
65110SOL     OW97226   6.171   9.558   4.209
65110SOL    HW197227   6.106   9.525   4.271
65110SOL    HW297228   6.242   9.592   4.264
65111SOL     OW97229  12.534   3.480   5.103
65111SOL    HW197230  12.588   3.421   5.051
65111SOL    HW297231  12.545   3.451   5.193
65112SOL     OW97232   8.210   8.458   8.104
65112SOL    HW197233   8.155   8.391   8.145
65112SOL    HW297234   8.154   8.498   8.037
65113SOL     OW97235   3.553   9.119   8.423
65113SOL    HW197236   3.537   9.093   8.514
65113SOL    HW297237   3.647   9.112   8.412
65114SOL     OW97238  14.177  11.403   5.186
65114SOL    HW197239  14.273  11.396   5.189
65114SOL    HW297240  14.146  11.325   5.232
65115SOL     OW97241  10.038   5.327  12.712
65115SOL    HW197242  10.122   5.364  12.685
65115SOL    HW297243  10.003   5.285  12.633
65116SOL     OW97244   6.223   9.150   7.693
65116SOL    HW197245   6.157   9.195   7.642
65116SOL    HW297246   6.190   9.152   7.783
65117SOL     OW97247   0.012  13.080   0.856
65117SOL    HW197248  14.847  13.036   0.932
65117SOL    HW297249   0.069  13.015   0.815
65118SOL     OW97250   3.383   1.535  13.096
65118SOL    HW197251   3.351   1.623  13.117
65118SOL    HW297252   3.478   1.541  13.106
65119SOL     OW97253   9.442   1.362   3.130
65119SOL    HW197254   9.418   1.442   3.178
65119SOL    HW297255   9.430   1.384   3.038
65120SOL     OW97256   1.757  12.273   1.526
65120SOL    HW197257   1.794  12.357   1.555
65120SOL    HW297258   1.764  12.216   1.603
65121SOL     OW97259   8.726   6.399   8.159
65121SOL    HW197260   8.727   6.421   8.066
65121SOL    HW297261   8.636   6.415   8.188
65122SOL     OW97262  12.946   4.017   5.427
65122SOL    HW197263  12.965   4.110   5.413
65122SOL    HW297264  12.896   4.015   5.508
65123SOL     OW97265   9.077  12.284  14.111
65123SOL    HW197266   9.079  12.352  14.043
65123SOL    HW297267   8.996  12.301  14.159
65124SOL     OW97268   7.901  14.160   4.986
65124SOL    HW197269   7.881  14.125   4.899
65124SOL    HW297270   7.932  14.249   4.970
65125SOL     OW97271   0.889   0.922   1.438
65125SOL    HW197272   0.876   0.829   1.422
65125SOL    HW297273   0.864   0.934   1.530
65126SOL     OW97274   8.562   6.557   7.688
65126SOL    HW197275   8.590   6.600   7.608
65126SOL    HW297276   8.467   6.569   7.690
65127SOL     OW97277   9.827  12.239  10.360
65127SOL    HW197278   9.781  12.323  10.354
65127SOL    HW297279   9.871  12.242  10.445
65128SOL     OW97280   5.367  12.089  13.523
65128SOL    HW197281   5.395  12.003  13.491
65128SOL    HW297282   5.290  12.111  13.470
65129SOL     OW97283  13.819   3.745  10.577
65129SOL    HW197284  13.864   3.726  10.660
65129SOL    HW297285  13.867   3.819  10.540
65130SOL     OW97286   5.560   6.529  13.428
65130SOL    HW197287   5.613   6.519  13.507
65130SOL    HW297288   5.470   6.524  13.459
65131SOL     OW97289   5.153   5.490   5.472
65131SOL    HW197290   5.092   5.461   5.404
65131SOL    HW297291   5.228   5.524   5.423
65132SOL     OW97292   7.656   7.169   5.800
65132SOL    HW197293   7.698   7.185   5.716
65132SOL    HW297294   7.562   7.172   5.781
65133SOL     OW97295   8.581   2.761   6.117
65133SOL    HW197296   8.634   2.715   6.052
65133SOL    HW297297   8.491   2.746   6.089
65134SOL     OW97298  10.911   9.047  12.483
65134SOL    HW197299  10.996   9.088  12.495
65134SOL    HW297300  10.917   9.002  12.399
65135SOL     OW97301   4.515   9.270  12.356
65135SOL    HW197302   4.463   9.331  12.304
65135SOL    HW297303   4.451   9.219  12.405
65136SOL     OW97304   1.065   9.547   3.818
65136SOL    HW197305   1.153   9.524   3.849
65136SOL    HW297306   1.033   9.610   3.882
65137SOL     OW97307   4.575   9.432  12.668
65137SOL    HW197308   4.502   9.466  12.719
65137SOL    HW297309   4.554   9.339  12.655
65138SOL     OW97310   5.276   9.752   1.248
65138SOL    HW197311   5.189   9.734   1.286
65138SOL    HW297312   5.307   9.666   1.219
65139SOL     OW97313  11.733   6.047  11.848
65139SOL    HW197314  11.674   6.005  11.910
65139SOL    HW297315  11.819   6.045  11.891
65140SOL     OW97316   0.754   4.900   0.307
65140SOL    HW197317   0.798   4.867   0.386
65140SOL    HW297318   0.823   4.905   0.241
65141SOL     OW97319   5.500  12.673   0.985
65141SOL    HW197320   5.544  12.757   0.969
65141SOL    HW297321   5.418  12.679   0.935
65142SOL     OW97322   3.874  11.156   5.008
65142SOL    HW197323   3.943  11.218   4.985
65142SOL    HW297324   3.911  11.104   5.080
65143SOL     OW97325   8.316   2.693   2.732
65143SOL    HW197326   8.353   2.729   2.813
65143SOL    HW297327   8.359   2.744   2.663
65144SOL     OW97328  12.202  11.908   1.478
65144SOL    HW197329  12.108  11.909   1.465
65144SOL    HW297330  12.239  11.931   1.393
65145SOL     OW97331   4.642  14.286  10.441
65145SOL    HW197332   4.643  14.297  10.346
65145SOL    HW297333   4.563  14.332  10.469
65146SOL     OW97334   7.297   4.663   6.701
65146SOL    HW197335   7.324   4.722   6.631
65146SOL    HW297336   7.247   4.718   6.762
65147SOL     OW97337   0.505   0.538   7.059
65147SOL    HW197338   0.554   0.537   7.141
65147SOL    HW297339   0.571   0.527   6.991
65148SOL     OW97340   1.629   8.134   8.355
65148SOL    HW197341   1.698   8.071   8.335
65148SOL    HW297342   1.579   8.141   8.274
65149SOL     OW97343  13.769   0.622   4.343
65149SOL    HW197344  13.787   0.635   4.436
65149SOL    HW297345  13.676   0.599   4.339
65150SOL     OW97346   3.322   4.261  12.818
65150SOL    HW197347   3.344   4.186  12.873
65150SOL    HW297348   3.322   4.336  12.878
65151SOL     OW97349   9.966   6.620   1.119
65151SOL    HW197350   9.984   6.527   1.132
65151SOL    HW297351   9.936   6.626   1.028
65152SOL     OW97352   0.779   8.871   9.632
65152SOL    HW197353   0.756   8.901   9.720
65152SOL    HW297354   0.701   8.892   9.580
65153SOL     OW97355   1.157  10.196   5.346
65153SOL    HW197356   1.139  10.166   5.258
65153SOL    HW297357   1.091  10.155   5.401
65154SOL     OW97358   3.047   2.153  10.292
65154SOL    HW197359   3.038   2.131  10.385
65154SOL    HW297360   3.085   2.241  10.292
65155SOL     OW97361   6.919   3.426  14.832
65155SOL    HW197362   6.833   3.413  14.791
65155SOL    HW297363   6.899   3.463   0.046
65156SOL     OW97364  11.334   1.429  12.046
65156SOL    HW197365  11.428   1.445  12.051
65156SOL    HW297366  11.310   1.395  12.132
65157SOL     OW97367  10.781   9.433   1.718
65157SOL    HW197368  10.693   9.398   1.731
65157SOL    HW297369  10.813   9.388   1.639
65158SOL     OW97370   5.854  11.757   1.290
65158SOL    HW197371   5.791  11.700   1.245
65158SOL    HW297372   5.814  11.774   1.375
65159SOL     OW97373   9.783   4.764  13.874
65159SOL    HW197374   9.736   4.772  13.957
65159SOL    HW297375   9.716   4.734  13.812
65160SOL     OW97376   9.600   9.122   4.290
65160SOL    HW197377   9.563   9.101   4.204
65160SOL    HW297378   9.682   9.072   4.294
65161SOL     OW97379   6.629   8.157   3.323
65161SOL    HW197380   6.608   8.145   3.231
65161SOL    HW297381   6.551   8.127   3.370
65162SOL     OW97382   8.508   9.089   2.076
65162SOL    HW197383   8.566   9.150   2.122
65162SOL    HW297384   8.562   9.051   2.008
65163SOL     OW97385   4.066   4.276  13.080
65163SOL    HW197386   4.076   4.350  13.020
65163SOL    HW297387   4.121   4.207  13.042
65164SOL     OW97388  10.569  11.691  10.233
65164SOL    HW197389  10.659  11.690  10.198
65164SOL    HW297390  10.527  11.615  10.191
65165SOL     OW97391   8.907   1.677  11.148
65165SOL    HW197392   8.881   1.704  11.236
65165SOL    HW297393   8.910   1.758  11.098
65166SOL     OW97394   1.674   0.998  10.513
65166SOL    HW197395   1.746   0.995  10.575
65166SOL    HW297396   1.613   1.063  10.550
65167SOL     OW97397   2.242  11.975   8.394
65167SOL    HW197398   2.263  11.900   8.449
65167SOL    HW297399   2.252  12.051   8.452
65168SOL     OW97400   2.769   9.495  14.466
65168SOL    HW197401   2.785   9.414  14.515
65168SOL    HW297402   2.836   9.495  14.398
65169SOL     OW97403   8.446  14.738   8.202
65169SOL    HW197404   8.455  14.718   8.296
65169SOL    HW297405   8.408  14.658   8.164
65170SOL     OW97406   6.355   8.257  11.850
65170SOL    HW197407   6.355   8.281  11.758
65170SOL    HW297408   6.430   8.305  11.887
65171SOL     OW97409   2.490   9.632  10.111
65171SOL    HW197410   2.441   9.665  10.036
65171SOL    HW297411   2.460   9.685  10.185
65172SOL     OW97412  11.239   3.991   1.656
65172SOL    HW197413  11.316   4.031   1.694
65172SOL    HW297414  11.256   3.897   1.660
65173SOL     OW97415   8.912  14.500   2.578
65173SOL    HW197416   8.987  14.560   2.584
65173SOL    HW297417   8.873  14.502   2.666
65174SOL     OW97418  10.834   7.058  10.844
65174SOL    HW197419  10.760   6.997  10.842
65174SOL    HW297420  10.910   7.004  10.823
65175SOL     OW97421  11.811   2.827  14.703
65175SOL    HW197422  11.818   2.775  14.782
65175SOL    HW297423  11.771   2.909  14.731
65176SOL     OW97424   7.172   1.345   6.313
65176SOL    HW197425   7.185   1.252   6.332
65176SOL    HW297426   7.252   1.371   6.266
65177SOL     OW97427   0.141  11.544   6.452
65177SOL    HW197428   0.213  11.604   6.470
65177SOL    HW297429   0.172  11.459   6.484
65178SOL     OW97430   9.714  13.427   2.033
65178SOL    HW197431   9.788  13.475   2.071
65178SOL    HW297432   9.677  13.378   2.106
65179SOL     OW97433   6.383   4.290  13.797
65179SOL    HW197434   6.292   4.266  13.814
65179SOL    HW297435   6.406   4.349  13.869
65180SOL     OW97436   8.239  13.388  11.756
65180SOL    HW197437   8.250  13.417  11.666
65180SOL    HW297438   8.275  13.300  11.758
65181SOL     OW97439  14.203   5.882  11.297
65181SOL    HW197440  14.170   5.847  11.215
65181SOL    HW297441  14.131   5.871  11.359
65182SOL     OW97442   5.459   7.236   7.041
65182SOL    HW197443   5.416   7.306   7.089
65182SOL    HW297444   5.553   7.255   7.050
65183SOL     OW97445   6.813   2.717  12.576
65183SOL    HW197446   6.728   2.677  12.595
65183SOL    HW297447   6.875   2.668  12.630
65184SOL     OW97448  12.255  12.699  14.089
65184SOL    HW197449  12.349  12.684  14.102
65184SOL    HW297450  12.248  12.733  14.000
65185SOL     OW97451   2.391   8.639   2.822
65185SOL    HW197452   2.430   8.689   2.893
65185SOL    HW297453   2.465   8.593   2.781
65186SOL     OW97454   8.894   3.728   9.899
65186SOL    HW197455   8.862   3.759   9.814
65186SOL    HW297456   8.851   3.785   9.963
65187SOL     OW97457   1.918   8.783   7.290
65187SOL    HW197458   1.881   8.788   7.202
65187SOL    HW297459   1.857   8.833   7.344
65188SOL     OW97460  13.749   7.371   0.919
65188SOL    HW197461  13.818   7.323   0.964
65188SOL    HW297462  13.714   7.310   0.854
65189SOL     OW97463   9.564  12.057  12.780
65189SOL    HW197464   9.471  12.036  12.768
65189SOL    HW297465   9.599  12.067  12.692
65190SOL     OW97466   4.559   3.402   2.725
65190SOL    HW197467   4.590   3.385   2.636
65190SOL    HW297468   4.505   3.481   2.717
65191SOL     OW97469   9.192   4.157   9.370
65191SOL    HW197470   9.116   4.214   9.369
65191SOL    HW297471   9.263   4.210   9.334
65192SOL     OW97472   3.579   5.002   1.243
65192SOL    HW197473   3.640   4.951   1.296
65192SOL    HW297474   3.630   5.077   1.212
65193SOL     OW97475   1.907   3.482   9.045
65193SOL    HW197476   1.951   3.553   8.998
65193SOL    HW297477   1.974   3.448   9.104
65194SOL     OW97478   2.325   3.140  11.219
65194SOL    HW197479   2.306   3.233  11.205
65194SOL    HW297480   2.266   3.114  11.290
65195SOL     OW97481  10.245  13.382   0.178
65195SOL    HW197482  10.318  13.383   0.117
65195SOL    HW297483  10.223  13.474   0.191
65196SOL     OW97484  12.076   5.920   2.288
65196SOL    HW197485  12.095   6.014   2.283
65196SOL    HW297486  12.005   5.906   2.225
65197SOL     OW97487   2.386   1.379   3.901
65197SOL    HW197488   2.299   1.361   3.938
65197SOL    HW297489   2.418   1.455   3.949
65198SOL     OW97490   0.012  11.433   1.772
65198SOL    HW197491   0.061  11.368   1.723
65198SOL    HW297492  14.865  11.502   1.708
65199SOL     OW97493   2.149   0.412  11.470
65199SOL    HW197494   2.066   0.365  11.467
65199SOL    HW297495   2.132   0.486  11.529
65200SOL     OW97496   0.520   0.775   7.957
65200SOL    HW197497   0.521   0.696   8.010
65200SOL    HW297498   0.594   0.827   7.990
65201SOL     OW97499   1.223   0.308  11.580
65201SOL    HW197500   1.255   0.380  11.634
65201SOL    HW297501   1.221   0.232  11.639
65202SOL     OW97502  10.963   5.569  12.228
65202SOL    HW197503  10.955   5.505  12.298
65202SOL    HW297504  10.922   5.527  12.152
65203SOL     OW97505   6.139   2.046  12.494
65203SOL    HW197506   6.166   1.957  12.513
65203SOL    HW297507   6.212   2.085  12.447
65204SOL     OW97508  11.731   2.798  11.711
65204SOL    HW197509  11.731   2.883  11.668
65204SOL    HW297510  11.707   2.817  11.802
65205SOL     OW97511  10.509   8.510   0.298
65205SOL    HW197512  10.486   8.470   0.214
65205SOL    HW297513  10.507   8.604   0.281
65206SOL     OW97514  13.799   6.984  12.889
65206SOL    HW197515  13.785   6.959  12.980
65206SOL    HW297516  13.760   7.071  12.881
65207SOL     OW97517   2.834  13.232   2.813
65207SOL    HW197518   2.840  13.161   2.877
65207SOL    HW297519   2.792  13.191   2.737
65208SOL     OW97520  11.607  14.460   6.826
65208SOL    HW197521  11.533  14.478   6.884
65208SOL    HW297522  11.569  14.410   6.754
65209SOL     OW97523   6.721   7.581   4.499
65209SOL    HW197524   6.785   7.598   4.569
65209SOL    HW297525   6.739   7.491   4.472
65210SOL     OW97526  12.577   0.965  13.275
65210SOL    HW197527  12.620   1.019  13.342
65210SOL    HW297528  12.484   0.972  13.295
65211SOL     OW97529   9.762   7.582   5.577
65211SOL    HW197530   9.777   7.570   5.484
65211SOL    HW297531   9.832   7.642   5.605
65212SOL     OW97532   8.116   6.552  10.617
65212SOL    HW197533   8.137   6.583  10.528
65212SOL    HW297534   8.063   6.473  10.603
65213SOL     OW97535   6.724   3.355  13.525
65213SOL    HW197536   6.676   3.316  13.597
65213SOL    HW297537   6.712   3.293  13.452
65214SOL     OW97538   8.573   5.733   0.194
65214SOL    HW197539   8.584   5.819   0.153
65214SOL    HW297540   8.479   5.728   0.212
65215SOL     OW97541   1.904  11.344   3.782
65215SOL    HW197542   1.952  11.419   3.747
65215SOL    HW297543   1.958  11.268   3.762
65216SOL     OW97544   7.693   7.106   3.511
65216SOL    HW197545   7.778   7.136   3.481
65216SOL    HW297546   7.634   7.180   3.496
65217SOL     OW97547  14.188  11.989   5.027
65217SOL    HW197548  14.110  11.935   5.015
65217SOL    HW297549  14.229  11.953   5.106
65218SOL     OW97550  11.962  12.704   0.131
65218SOL    HW197551  11.971  12.798   0.145
65218SOL    HW297552  12.052  12.674   0.115
65219SOL     OW97553   1.818  10.894   2.929
65219SOL    HW197554   1.740  10.947   2.947
65219SOL    HW297555   1.857  10.879   3.015
65220SOL     OW97556   4.569   9.706  10.667
65220SOL    HW197557   4.579   9.660  10.584
65220SOL    HW297558   4.609   9.792  10.653
65221SOL     OW97559   6.856   4.737   0.541
65221SOL    HW197560   6.786   4.675   0.520
65221SOL    HW297561   6.844   4.758   0.633
65222SOL     OW97562   4.328  13.848   1.204
65222SOL    HW197563   4.347  13.926   1.256
65222SOL    HW297564   4.279  13.791   1.263
65223SOL     OW97565   0.797   1.459   1.380
65223SOL    HW197566   0.878   1.428   1.338
65223SOL    HW297567   0.782   1.397   1.451
65224SOL     OW97568  12.422   1.880   6.785
65224SOL    HW197569  12.420   1.876   6.880
65224SOL    HW297570  12.337   1.917   6.760
65225SOL     OW97571   9.151   5.687   9.768
65225SOL    HW197572   9.159   5.612   9.828
65225SOL    HW297573   9.138   5.647   9.682
65226SOL     OW97574  11.351   9.322   6.889
65226SOL    HW197575  11.368   9.336   6.982
65226SOL    HW297576  11.333   9.228   6.882
65227SOL     OW97577  14.347   5.583  11.179
65227SOL    HW197578  14.395   5.622  11.252
65227SOL    HW297579  14.344   5.490  11.199
65228SOL     OW97580   7.815   4.567   3.666
65228SOL    HW197581   7.908   4.547   3.673
65228SOL    HW297582   7.812   4.650   3.618
65229SOL     OW97583  11.894   5.611   8.262
65229SOL    HW197584  11.838   5.625   8.338
65229SOL    HW297585  11.863   5.528   8.225
65230SOL     OW97586  14.793   9.441   3.599
65230SOL    HW197587  14.772   9.528   3.564
65230SOL    HW297588  14.781   9.382   3.524
65231SOL     OW97589   8.388   3.139  13.612
65231SOL    HW197590   8.325   3.212  13.604
65231SOL    HW297591   8.398   3.126  13.706
65232SOL     OW97592   7.958  13.791  14.714
65232SOL    HW197593   8.017  13.735  14.764
65232SOL    HW297594   7.874  13.745  14.715
65233SOL     OW97595   5.930  13.995   8.137
65233SOL    HW197596   5.889  14.025   8.056
65233SOL    HW297597   5.893  13.907   8.151
65234SOL     OW97598  10.334   9.240   7.971
65234SOL    HW197599  10.284   9.194   7.903
65234SOL    HW297600  10.331   9.332   7.945
65235SOL     OW97601   8.787  13.270  11.825
65235SOL    HW197602   8.755  13.182  11.842
65235SOL    HW297603   8.776  13.316  11.909
65236SOL     OW97604   2.710   1.170   6.527
65236SOL    HW197605   2.722   1.228   6.451
65236SOL    HW297606   2.789   1.117   6.529
65237SOL     OW97607  10.473   9.403  13.378
65237SOL    HW197608  10.563   9.418  13.406
65237SOL    HW297609  10.427   9.372  13.456
65238SOL     OW97610   2.720  10.505  12.391
65238SOL    HW197611   2.793  10.547  12.345
65238SOL    HW297612   2.736  10.525  12.483
65239SOL     OW97613   5.505   8.989  10.756
65239SOL    HW197614   5.533   9.042  10.681
65239SOL    HW297615   5.421   9.028  10.782
65240SOL     OW97616  10.877   8.946   2.198
65240SOL    HW197617  10.853   8.879   2.135
65240SOL    HW297618  10.816   8.935   2.270
65241SOL     OW97619   0.027   3.258   2.838
65241SOL    HW197620   0.058   3.349   2.835
65241SOL    HW297621  14.838   3.250   2.765
65242SOL     OW97622   8.374   7.796   5.230
65242SOL    HW197623   8.445   7.751   5.184
65242SOL    HW297624   8.327   7.843   5.162
65243SOL     OW97625   4.004   7.976  11.139
65243SOL    HW197626   3.938   8.046  11.145
65243SOL    HW297627   3.983   7.917  11.211
65244SOL     OW97628   4.472  10.980   5.214
65244SOL    HW197629   4.391  10.975   5.164
65244SOL    HW297630   4.508  10.891   5.211
65245SOL     OW97631  12.122  14.643  10.863
65245SOL    HW197632  12.131  14.692  10.945
65245SOL    HW297633  12.041  14.593  10.873
65246SOL     OW97634  11.276   0.344   8.869
65246SOL    HW197635  11.233   0.374   8.789
65246SOL    HW297636  11.235   0.260   8.890
65247SOL     OW97637  12.251  12.390   0.947
65247SOL    HW197638  12.234  12.484   0.957
65247SOL    HW297639  12.250  12.376   0.853
65248SOL     OW97640   4.382  11.876   2.351
65248SOL    HW197641   4.458  11.824   2.324
65248SOL    HW297642   4.311  11.844   2.294
65249SOL     OW97643   5.460   4.493   1.517
65249SOL    HW197644   5.397   4.423   1.499
65249SOL    HW297645   5.406   4.568   1.542
65250SOL     OW97646   5.939  11.012   5.721
65250SOL    HW197647   5.885  10.992   5.645
65250SOL    HW297648   5.890  11.079   5.769
65251SOL     OW97649  12.631   8.872  14.212
65251SOL    HW197650  12.672   8.905  14.132
65251SOL    HW297651  12.681   8.912  14.283
65252SOL     OW97652   3.181   4.304   8.242
65252SOL    HW197653   3.140   4.237   8.298
65252SOL    HW297654   3.275   4.289   8.251
65253SOL     OW97655   9.216   6.947   7.113
65253SOL    HW197656   9.182   6.949   7.023
65253SOL    HW297657   9.300   6.901   7.106
65254SOL     OW97658   5.254   2.128   6.833
65254SOL    HW197659   5.162   2.108   6.814
65254SOL    HW297660   5.303   2.055   6.795
65255SOL     OW97661  10.152  10.546   5.296
65255SOL    HW197662  10.096  10.616   5.263
65255SOL    HW297663  10.230  10.549   5.241
65256SOL     OW97664  11.792   8.009  10.556
65256SOL    HW197665  11.864   7.977  10.610
65256SOL    HW297666  11.797   7.958  10.475
65257SOL     OW97667   2.651   9.380   6.666
65257SOL    HW197668   2.684   9.450   6.610
65257SOL    HW297669   2.588   9.333   6.612
65258SOL     OW97670  10.922   2.091  12.263
65258SOL    HW197671  10.948   2.043  12.341
65258SOL    HW297672  10.853   2.037  12.223
65259SOL     OW97673   0.240  10.371   6.776
65259SOL    HW197674   0.198  10.456   6.791
65259SOL    HW297675   0.284  10.380   6.691
65260SOL     OW97676  11.816   8.882   8.679
65260SOL    HW197677  11.898   8.908   8.722
65260SOL    HW297678  11.823   8.917   8.591
65261SOL     OW97679  10.054  12.520  14.080
65261SOL    HW197680  10.078  12.532  13.988
65261SOL    HW297681  10.120  12.460  14.115
65262SOL     OW97682   4.150   1.049   5.943
65262SOL    HW197683   4.090   1.065   6.017
65262SOL    HW297684   4.227   1.009   5.983
65263SOL     OW97685  11.961   2.303  11.737
65263SOL    HW197686  11.870   2.289  11.762
65263SOL    HW297687  11.990   2.219  11.702
65264SOL     OW97688  12.389   7.749   5.245
65264SOL    HW197689  12.393   7.841   5.221
65264SOL    HW297690  12.295   7.731   5.256
65265SOL     OW97691   2.198   1.120   9.791
65265SOL    HW197692   2.141   1.150   9.862
65265SOL    HW297693   2.138   1.096   9.720
65266SOL     OW97694   2.596   2.806   9.172
65266SOL    HW197695   2.565   2.865   9.241
65266SOL    HW297696   2.542   2.827   9.096
65267SOL     OW97697   9.400   7.817   1.832
65267SOL    HW197698   9.307   7.794   1.826
65267SOL    HW297699   9.404   7.907   1.798
65268SOL     OW97700   1.646   2.201   1.518
65268SOL    HW197701   1.595   2.269   1.475
65268SOL    HW297702   1.679   2.147   1.446
65269SOL     OW97703  12.400   3.773  11.143
65269SOL    HW197704  12.366   3.704  11.200
65269SOL    HW297705  12.377   3.855  11.188
65270SOL     OW97706   8.253  12.078  14.376
65270SOL    HW197707   8.247  12.121  14.292
65270SOL    HW297708   8.338  12.105  14.412
65271SOL     OW97709   1.691   6.622   9.648
65271SOL    HW197710   1.643   6.598   9.568
65271SOL    HW297711   1.625   6.660   9.706
65272SOL     OW97712  12.747   9.931  11.760
65272SOL    HW197713  12.814   9.922  11.692
65272SOL    HW297714  12.768  10.014  11.803
65273SOL     OW97715  12.996  10.592  13.043
65273SOL    HW197716  13.064  10.530  13.020
65273SOL    HW297717  12.916  10.539  13.050
65274SOL     OW97718  14.684  13.207   3.425
65274SOL    HW197719  14.702  13.263   3.350
65274SOL    HW297720  14.692  13.118   3.391
65275SOL     OW97721   6.184  12.220   3.751
65275SOL    HW197722   6.095  12.237   3.782
65275SOL    HW297723   6.236  12.291   3.786
65276SOL     OW97724   2.219  12.699   3.664
65276SOL    HW197725   2.253  12.745   3.587
65276SOL    HW297726   2.128  12.681   3.643
65277SOL     OW97727   4.759   3.139   7.427
65277SOL    HW197728   4.665   3.148   7.444
65277SOL    HW297729   4.768   3.153   7.333
65278SOL     OW97730   2.144  12.967  12.207
65278SOL    HW197731   2.222  12.945  12.258
65278SOL    HW297732   2.164  13.051  12.167
65279SOL     OW97733  12.281   4.377   2.141
65279SOL    HW197734  12.372   4.384   2.169
65279SOL    HW297735  12.234   4.439   2.196
65280SOL     OW97736  11.063   3.246   7.842
65280SOL    HW197737  11.116   3.323   7.821
65280SOL    HW297738  11.127   3.174   7.846
65281SOL     OW97739   2.923  13.045   2.040
65281SOL    HW197740   2.921  13.067   1.947
65281SOL    HW297741   2.835  13.067   2.071
65282SOL     OW97742   8.230   6.827   7.255
65282SOL    HW197743   8.214   6.741   7.293
65282SOL    HW297744   8.169   6.832   7.182
65283SOL     OW97745   7.614  11.873  12.141
65283SOL    HW197746   7.659  11.875  12.057
65283SOL    HW297747   7.669  11.817  12.196
65284SOL     OW97748   9.748   4.644   6.502
65284SOL    HW197749   9.810   4.578   6.471
65284SOL    HW297750   9.724   4.694   6.424
65285SOL     OW97751  13.961  12.517   4.907
65285SOL    HW197752  13.902  12.592   4.917
65285SOL    HW297753  14.005  12.533   4.823
65286SOL     OW97754  12.131  14.725  13.285
65286SOL    HW197755  12.195  14.743  13.216
65286SOL    HW297756  12.093  14.810  13.305
65287SOL     OW97757   9.801   1.783   2.561
65287SOL    HW197758   9.874   1.844   2.566
65287SOL    HW297759   9.819   1.730   2.483
65288SOL     OW97760   1.993   1.821  12.022
65288SOL    HW197761   2.000   1.727  12.034
65288SOL    HW297762   1.901   1.836  12.001
65289SOL     OW97763   1.309   0.510  10.889
65289SOL    HW197764   1.393   0.469  10.868
65289SOL    HW297765   1.277   0.461  10.965
65290SOL     OW97766   1.115   1.497  13.935
65290SOL    HW197767   1.031   1.463  13.966
65290SOL    HW297768   1.111   1.489  13.840
65291SOL     OW97769   4.955   1.098   9.352
65291SOL    HW197770   4.947   1.033   9.283
65291SOL    HW297771   4.995   1.174   9.309
65292SOL     OW97772   8.287   2.586   7.140
65292SOL    HW197773   8.209   2.548   7.100
65292SOL    HW297774   8.271   2.680   7.140
65293SOL     OW97775   9.958  13.569  13.720
65293SOL    HW197776   9.941  13.628  13.794
65293SOL    HW297777  10.032  13.516  13.748
65294SOL     OW97778   1.201   3.802   6.752
65294SOL    HW197779   1.214   3.859   6.827
65294SOL    HW297780   1.134   3.739   6.781
65295SOL     OW97781   8.570   4.614   6.477
65295SOL    HW197782   8.652   4.565   6.476
65295SOL    HW297783   8.588   4.690   6.532
65296SOL     OW97784  13.045   9.698   5.210
65296SOL    HW197785  12.993   9.643   5.151
65296SOL    HW297786  13.129   9.653   5.217
65297SOL     OW97787   1.494   6.153   4.023
65297SOL    HW197788   1.480   6.059   4.015
65297SOL    HW297789   1.462   6.175   4.110
65298SOL     OW97790   7.766   6.091   7.593
65298SOL    HW197791   7.826   6.071   7.665
65298SOL    HW297792   7.679   6.088   7.632
65299SOL     OW97793  12.058  10.605   7.629
65299SOL    HW197794  12.039  10.695   7.654
65299SOL    HW297795  11.980  10.575   7.583
65300SOL     OW97796  12.674  12.813  12.412
65300SOL    HW197797  12.727  12.814  12.333
65300SOL    HW297798  12.737  12.824  12.483
65301SOL     OW97799   4.689  11.120   7.964
65301SOL    HW197800   4.662  11.209   7.989
65301SOL    HW297801   4.737  11.088   8.040
65302SOL     OW97802   9.923  14.504   2.396
65302SOL    HW197803   9.852  14.463   2.346
65302SOL    HW297804  10.003  14.472   2.354
65303SOL     OW97805   2.081   1.065   7.603
65303SOL    HW197806   2.114   1.115   7.528
65303SOL    HW297807   2.097   0.974   7.579
65304SOL     OW97808   0.570   3.096   1.354
65304SOL    HW197809   0.584   3.191   1.358
65304SOL    HW297810   0.507   3.085   1.282
65305SOL     OW97811  13.042   2.581  13.091
65305SOL    HW197812  12.949   2.591  13.109
65305SOL    HW297813  13.078   2.669  13.101
65306SOL     OW97814  11.909   8.449   5.793
65306SOL    HW197815  12.000   8.438   5.823
65306SOL    HW297816  11.886   8.538   5.821
65307SOL     OW97817   7.577   4.942  14.291
65307SOL    HW197818   7.628   4.883  14.348
65307SOL    HW297819   7.623   5.026  14.296
65308SOL     OW97820  10.970  11.989   9.425
65308SOL    HW197821  10.896  11.972   9.368
65308SOL    HW297822  10.963  11.923   9.494
65309SOL     OW97823   3.930  12.548   7.064
65309SOL    HW197824   3.846  12.582   7.032
65309SOL    HW297825   3.984  12.541   6.985
65310SOL     OW97826   2.865  10.997  11.484
65310SOL    HW197827   2.939  10.958  11.530
65310SOL    HW297828   2.876  11.091  11.498
65311SOL     OW97829   9.725   7.857   6.669
65311SOL    HW197830   9.698   7.798   6.599
65311SOL    HW297831   9.726   7.801   6.747
65312SOL     OW97832   7.802  13.463  11.537
65312SOL    HW197833   7.818  13.432  11.447
65312SOL    HW297834   7.879  13.515  11.558
65313SOL     OW97835   8.929   8.389  14.046
65313SOL    HW197836   8.889   8.473  14.069
65313SOL    HW297837   8.943   8.394  13.952
65314SOL     OW97838   7.131   0.740   6.045
65314SOL    HW197839   7.143   0.685   5.967
65314SOL    HW297840   7.101   0.824   6.010
65315SOL     OW97841   6.130  12.951   6.356
65315SOL    HW197842   6.112  12.904   6.274
65315SOL    HW297843   6.106  12.890   6.425
65316SOL     OW97844   4.569   5.128  13.629
65316SOL    HW197845   4.502   5.127  13.561
65316SOL    HW297846   4.575   5.220  13.656
65317SOL     OW97847   3.182   1.703  13.841
65317SOL    HW197848   3.206   1.788  13.878
65317SOL    HW297849   3.114   1.670  13.900
65318SOL     OW97850   1.036   8.278  10.711
65318SOL    HW197851   1.035   8.184  10.696
65318SOL    HW297852   0.963   8.311  10.659
65319SOL     OW97853   2.613   8.622  13.261
65319SOL    HW197854   2.526   8.589  13.287
65319SOL    HW297855   2.597   8.672  13.181
65320SOL     OW97856   2.483   1.977   8.486
65320SOL    HW197857   2.573   1.995   8.513
65320SOL    HW297858   2.441   1.940   8.564
65321SOL     OW97859   8.159   3.306  11.502
65321SOL    HW197860   8.077   3.291  11.455
65321SOL    HW297861   8.140   3.377  11.562
65322SOL     OW97862   9.229   8.175  14.369
65322SOL    HW197863   9.146   8.132  14.351
65322SOL    HW297864   9.229   8.251  14.311
65323SOL     OW97865  14.793  10.019  11.452
65323SOL    HW197866   0.003  10.050  11.491
65323SOL    HW297867  14.815  10.004  11.360
65324SOL     OW97868   4.511  12.849   6.549
65324SOL    HW197869   4.544  12.759   6.550
65324SOL    HW297870   4.523  12.880   6.638
65325SOL     OW97871  12.093   5.189   5.738
65325SOL    HW197872  12.109   5.109   5.789
65325SOL    HW297873  12.106   5.260   5.800
65326SOL     OW97874   1.264   3.106   6.308
65326SOL    HW197875   1.307   3.146   6.232
65326SOL    HW297876   1.215   3.177   6.348
65327SOL     OW97877  14.687   8.817   0.645
65327SOL    HW197878  14.721   8.869   0.572
65327SOL    HW297879  14.610   8.865   0.674
65328SOL     OW97880  12.773   9.841   9.500
65328SOL    HW197881  12.866   9.817   9.500
65328SOL    HW297882  12.732   9.778   9.440
65329SOL     OW97883   7.418   7.234   1.497
65329SOL    HW197884   7.336   7.236   1.447
65329SOL    HW297885   7.403   7.294   1.570
65330SOL     OW97886  13.732   8.036  12.619
65330SOL    HW197887  13.648   7.992  12.632
65330SOL    HW297888  13.717   8.125  12.650
65331SOL     OW97889  14.701  14.432  14.630
65331SOL    HW197890  14.692  14.355  14.686
65331SOL    HW297891  14.710  14.397  14.542
65332SOL     OW97892   9.476   2.809   0.014
65332SOL    HW197893   9.544   2.866  14.851
65332SOL    HW297894   9.459   2.841   0.102
65333SOL     OW97895   2.381  12.815   5.050
65333SOL    HW197896   2.417  12.738   5.095
65333SOL    HW297897   2.305  12.782   5.002
65334SOL     OW97898   9.679   2.505   5.647
65334SOL    HW197899   9.629   2.562   5.589
65334SOL    HW297900   9.709   2.563   5.717
65335SOL     OW97901   9.803  13.201   7.365
65335SOL    HW197902   9.841  13.243   7.288
65335SOL    HW297903   9.777  13.114   7.335
65336SOL     OW97904   6.172  13.251  11.452
65336SOL    HW197905   6.091  13.255  11.503
65336SOL    HW297906   6.239  13.286  11.510
65337SOL     OW97907  10.813   6.524   7.602
65337SOL    HW197908  10.754   6.475   7.545
65337SOL    HW297909  10.758   6.592   7.641
65338SOL     OW97910  13.280  13.685   0.917
65338SOL    HW197911  13.348  13.747   0.892
65338SOL    HW297912  13.218  13.685   0.844
65339SOL     OW97913   6.356  10.965   3.818
65339SOL    HW197914   6.355  11.052   3.779
65339SOL    HW297915   6.296  10.971   3.892
65340SOL     OW97916   9.165   0.913   2.777
65340SOL    HW197917   9.193   0.993   2.731
65340SOL    HW297918   9.232   0.849   2.756
65341SOL     OW97919   0.764   4.366   2.679
65341SOL    HW197920   0.780   4.439   2.619
65341SOL    HW297921   0.825   4.298   2.650
65342SOL     OW97922   1.315  10.758   0.824
65342SOL    HW197923   1.238  10.708   0.795
65342SOL    HW297924   1.369  10.694   0.871
65343SOL     OW97925   8.761  12.289   9.337
65343SOL    HW197926   8.710  12.217   9.374
65343SOL    HW297927   8.840  12.248   9.303
65344SOL     OW97928  12.555   7.707   5.618
65344SOL    HW197929  12.585   7.712   5.527
65344SOL    HW297930  12.463   7.682   5.611
65345SOL     OW97931   9.128   3.623  11.206
65345SOL    HW197932   9.132   3.573  11.125
65345SOL    HW297933   9.035   3.625  11.229
65346SOL     OW97934   5.071   8.953   4.075
65346SOL    HW197935   5.015   9.030   4.078
65346SOL    HW297936   5.096   8.945   3.983
65347SOL     OW97937  11.688  13.601   5.349
65347SOL    HW197938  11.745  13.672   5.377
65347SOL    HW297939  11.684  13.542   5.424
65348SOL     OW97940   3.240   5.935  10.837
65348SOL    HW197941   3.307   5.999  10.813
65348SOL    HW297942   3.163   5.961  10.786
65349SOL     OW97943  14.389   5.841  13.208
65349SOL    HW197944  14.333   5.885  13.272
65349SOL    HW297945  14.327   5.791  13.153
65350SOL     OW97946   8.272  11.161   9.558
65350SOL    HW197947   8.348  11.186   9.506
65350SOL    HW297948   8.203  11.144   9.494
65351SOL     OW97949   0.169  11.952   6.580
65351SOL    HW197950   0.130  11.917   6.500
65351SOL    HW297951   0.141  12.044   6.581
65352SOL     OW97952   3.993  13.476   5.253
65352SOL    HW197953   4.039  13.464   5.336
65352SOL    HW297954   3.967  13.568   5.252
65353SOL     OW97955   4.695   3.364   9.833
65353SOL    HW197956   4.633   3.360   9.760
65353SOL    HW297957   4.689   3.454   9.864
65354SOL     OW97958   7.163   6.859  10.967
65354SOL    HW197959   7.071   6.879  10.984
65354SOL    HW297960   7.209   6.894  11.043
65355SOL     OW97961  12.827   3.966  14.846
65355SOL    HW197962  12.746   3.989   0.020
65355SOL    HW297963  12.892   3.956   0.045
65356SOL     OW97964   5.341   1.489   8.452
65356SOL    HW197965   5.282   1.486   8.527
65356SOL    HW297966   5.309   1.421   8.393
65357SOL     OW97967   4.256  13.596  11.596
65357SOL    HW197968   4.193  13.641  11.652
65357SOL    HW297969   4.306  13.541  11.655
65358SOL     OW97970   9.724   1.171  14.402
65358SOL    HW197971   9.759   1.175  14.491
65358SOL    HW297972   9.794   1.131  14.350
65359SOL     OW97973  11.067   3.297   7.186
65359SOL    HW197974  11.114   3.342   7.116
65359SOL    HW297975  11.110   3.327   7.266
65360SOL     OW97976  10.875  11.229   7.181
65360SOL    HW197977  10.959  11.184   7.182
65360SOL    HW297978  10.897  11.320   7.202
65361SOL     OW97979  10.582  12.285   8.126
65361SOL    HW197980  10.549  12.316   8.210
65361SOL    HW297981  10.627  12.360   8.087
65362SOL     OW97982  10.553   2.799   3.174
65362SOL    HW197983  10.583   2.888   3.189
65362SOL    HW297984  10.633   2.747   3.167
65363SOL     OW97985   1.494   8.872  11.998
65363SOL    HW197986   1.468   8.935  12.066
65363SOL    HW297987   1.590   8.877  11.997
65364SOL     OW97988  12.623   2.606   2.969
65364SOL    HW197989  12.620   2.511   2.971
65364SOL    HW297990  12.661   2.631   3.053
65365SOL     OW97991   1.436  12.509   1.532
65365SOL    HW197992   1.442  12.416   1.513
65365SOL    HW297993   1.486  12.522   1.613
65366SOL     OW97994  10.517  12.687  12.083
65366SOL    HW197995  10.528  12.639  12.001
65366SOL    HW297996  10.477  12.769  12.057
65367SOL     OW97997  13.244   7.797   4.249
65367SOL    HW197998  13.174   7.779   4.187
65367SOL    HW297999  13.201   7.840   4.323
65368SOL     OW98000   3.357   6.817   9.939
65368SOL    HW198001   3.393   6.824  10.027
65368SOL    HW298002   3.354   6.723   9.922
65369SOL     OW98003   9.880   4.208   4.924
65369SOL    HW198004   9.962   4.166   4.898
65369SOL    HW298005   9.894   4.233   5.015
65370SOL     OW98006   9.562   8.666  12.859
65370SOL    HW198007   9.499   8.594  12.855
65370SOL    HW298008   9.596   8.672  12.770
65371SOL     OW98009   2.132  14.541   6.042
65371SOL    HW198010   2.146  14.460   5.993
65371SOL    HW298011   2.039  14.559   6.032
65372SOL     OW98012   1.034   1.254   9.620
65372SOL    HW198013   0.969   1.188   9.645
65372SOL    HW298014   0.985   1.316   9.567
65373SOL     OW98015  10.999   3.471   4.382
65373SOL    HW198016  11.039   3.440   4.463
65373SOL    HW298017  10.976   3.563   4.400
65374SOL     OW98018   6.984  14.644   0.677
65374SOL    HW198019   6.928  14.575   0.642
65374SOL    HW298020   6.996  14.704   0.604
65375SOL     OW98021   9.919   2.457   6.849
65375SOL    HW198022  10.013   2.441   6.844
65375SOL    HW298023   9.906   2.498   6.935
65376SOL     OW98024   5.395   3.750   1.282
65376SOL    HW198025   5.389   3.792   1.196
65376SOL    HW298026   5.419   3.820   1.342
65377SOL     OW98027  13.584  12.147   7.473
65377SOL    HW198028  13.493  12.139   7.501
65377SOL    HW298029  13.633  12.165   7.553
65378SOL     OW98030   8.049  14.237  11.234
65378SOL    HW198031   8.054  14.164  11.296
65378SOL    HW298032   8.135  14.238  11.191
65379SOL     OW98033   8.499   3.422   8.560
65379SOL    HW198034   8.481   3.440   8.468
65379SOL    HW298035   8.413   3.406   8.600
65380SOL     OW98036   4.022   2.776   7.950
65380SOL    HW198037   4.023   2.787   7.855
65380SOL    HW298038   4.090   2.835   7.982
65381SOL     OW98039   1.834  11.722  11.182
65381SOL    HW198040   1.898  11.667  11.227
65381SOL    HW298041   1.821  11.797  11.241
65382SOL     OW98042   3.296   2.419   3.765
65382SOL    HW198043   3.289   2.497   3.821
65382SOL    HW298044   3.251   2.443   3.684
65383SOL     OW98045  14.175  13.898   6.053
65383SOL    HW198046  14.167  13.829   5.987
65383SOL    HW298047  14.240  13.865   6.115
65384SOL     OW98048   4.451   9.144   6.922
65384SOL    HW198049   4.545   9.160   6.915
65384SOL    HW298050   4.417   9.222   6.966
65385SOL     OW98051   7.767  10.889  10.673
65385SOL    HW198052   7.776  10.885  10.578
65385SOL    HW298053   7.694  10.830  10.693
65386SOL     OW98054   5.970   2.358   8.725
65386SOL    HW198055   6.017   2.345   8.807
65386SOL    HW298056   6.038   2.376   8.661
65387SOL     OW98057  13.242  10.252  14.136
65387SOL    HW198058  13.164  10.224  14.185
65387SOL    HW298059  13.241  10.347  14.141
65388SOL     OW98060   1.906  10.394   6.527
65388SOL    HW198061   1.989  10.422   6.489
65388SOL    HW298062   1.877  10.468   6.580
65389SOL     OW98063   2.717   0.013   6.154
65389SOL    HW198064   2.701   0.097   6.112
65389SOL    HW298065   2.805  14.860   6.124
65390SOL     OW98066   6.066  14.057  10.494
65390SOL    HW198067   6.093  14.110  10.419
65390SOL    HW298068   6.148  14.026  10.533
65391SOL     OW98069   5.316   6.355   9.571
65391SOL    HW198070   5.303   6.376   9.664
65391SOL    HW298071   5.383   6.416   9.542
65392SOL     OW98072   4.341  12.461   7.156
65392SOL    HW198073   4.408  12.397   7.133
65392SOL    HW298074   4.331  12.515   7.078
65393SOL     OW98075   2.053   1.849   4.767
65393SOL    HW198076   1.993   1.916   4.733
65393SOL    HW298077   2.044   1.856   4.862
65394SOL     OW98078  13.391   4.322   6.902
65394SOL    HW198079  13.472   4.372   6.902
65394SOL    HW298080  13.388   4.280   6.988
65395SOL     OW98081  14.826   2.013   5.642
65395SOL    HW198082   0.031   1.997   5.696
65395SOL    HW298083  14.856   2.075   5.575
65396SOL     OW98084  14.277   9.600   1.988
65396SOL    HW198085  14.339   9.544   2.035
65396SOL    HW298086  14.207   9.616   2.051
65397SOL     OW98087   2.361   5.947   8.399
65397SOL    HW198088   2.273   5.984   8.394
65397SOL    HW298089   2.419   6.023   8.409
65398SOL     OW98090   2.870  13.497   8.283
65398SOL    HW198091   2.895  13.448   8.205
65398SOL    HW298092   2.941  13.559   8.297
65399SOL     OW98093  10.162   6.872  13.467
65399SOL    HW198094  10.158   6.805  13.536
65399SOL    HW298095  10.180   6.953  13.514
65400SOL     OW98096   7.048   8.043   2.268
65400SOL    HW198097   7.090   8.065   2.185
65400SOL    HW298098   6.959   8.017   2.243
65401SOL     OW98099  12.106   7.432  10.495
65401SOL    HW198100  12.165   7.467  10.428
65401SOL    HW298101  12.022   7.476  10.479
65402SOL     OW98102  12.964   2.419   8.915
65402SOL    HW198103  13.029   2.349   8.909
65402SOL    HW298104  12.886   2.376   8.949
65403SOL     OW98105   1.550  13.674  10.102
65403SOL    HW198106   1.618  13.688  10.037
65403SOL    HW298107   1.577  13.725  10.178
65404SOL     OW98108  14.157   1.467   2.327
65404SOL    HW198109  14.228   1.531   2.321
65404SOL    HW298110  14.200   1.382   2.316
65405SOL     OW98111   2.196  12.712  10.406
65405SOL    HW198112   2.158  12.755  10.329
65405SOL    HW298113   2.135  12.733  10.477
65406SOL     OW98114  11.722   8.668  12.505
65406SOL    HW198115  11.799   8.698  12.554
65406SOL    HW298116  11.649   8.715  12.544
65407SOL     OW98117   0.293   6.435  14.356
65407SOL    HW198118   0.361   6.369  14.343
65407SOL    HW298119   0.297   6.457  14.449
65408SOL     OW98120  13.199   1.045   4.356
65408SOL    HW198121  13.141   1.088   4.419
65408SOL    HW298122  13.169   1.077   4.271
65409SOL     OW98123  13.602   4.994   7.930
65409SOL    HW198124  13.550   4.936   7.876
65409SOL    HW298125  13.546   5.014   8.006
65410SOL     OW98126   1.475   7.147   1.476
65410SOL    HW198127   1.547   7.135   1.413
65410SOL    HW298128   1.519   7.166   1.559
65411SOL     OW98129   7.876  12.536   8.937
65411SOL    HW198130   7.953  12.592   8.927
65411SOL    HW298131   7.911  12.449   8.957
65412SOL     OW98132   4.055   6.031   4.845
65412SOL    HW198133   4.047   6.111   4.897
65412SOL    HW298134   4.080   6.062   4.758
65413SOL     OW98135   4.186  12.193   5.312
65413SOL    HW198136   4.160  12.253   5.242
65413SOL    HW298137   4.228  12.120   5.266
65414SOL     OW98138   1.844  10.060   9.309
65414SOL    HW198139   1.857  10.121   9.236
65414SOL    HW298140   1.855   9.974   9.270
65415SOL     OW98141  13.345  10.267   0.915
65415SOL    HW198142  13.402  10.295   0.986
65415SOL    HW298143  13.371  10.177   0.897
65416SOL     OW98144   1.327   9.163   9.948
65416SOL    HW198145   1.361   9.215  10.021
65416SOL    HW298146   1.312   9.076   9.986
65417SOL     OW98147   3.064  10.002  13.028
65417SOL    HW198148   3.032   9.994  13.118
65417SOL    HW298149   3.047   9.916  12.989
65418SOL     OW98150   4.822   5.170   3.506
65418SOL    HW198151   4.788   5.216   3.583
65418SOL    HW298152   4.743   5.139   3.461
65419SOL     OW98153   4.077   3.615  13.844
65419SOL    HW198154   4.120   3.530  13.838
65419SOL    HW298155   4.045   3.633  13.756
65420SOL     OW98156   0.462   3.184   1.631
65420SOL    HW198157   0.479   3.246   1.702
65420SOL    HW298158   0.531   3.203   1.566
65421SOL     OW98159   6.404  14.045   3.137
65421SOL    HW198160   6.441  14.109   3.198
65421SOL    HW298161   6.480  13.998   3.103
65422SOL     OW98162  12.273   5.353  11.774
65422SOL    HW198163  12.285   5.404  11.694
65422SOL    HW298164  12.361   5.328  11.800
65423SOL     OW98165   2.006  14.478  10.218
65423SOL    HW198166   2.061  14.537  10.167
65423SOL    HW298167   1.978  14.529  10.293
65424SOL     OW98168   7.726   6.484   3.810
65424SOL    HW198169   7.801   6.539   3.833
65424SOL    HW298170   7.652   6.544   3.807
65425SOL     OW98171   6.480   4.430   0.738
65425SOL    HW198172   6.441   4.361   0.684
65425SOL    HW298173   6.420   4.439   0.812
65426SOL     OW98174   8.461   4.336  11.195
65426SOL    HW198175   8.469   4.251  11.239
65426SOL    HW298176   8.551   4.362  11.177
65427SOL     OW98177   3.557   3.067   8.602
65427SOL    HW198178   3.555   2.978   8.567
65427SOL    HW298179   3.618   3.062   8.676
65428SOL     OW98180   9.634   0.156   7.695
65428SOL    HW198181   9.681   0.236   7.717
65428SOL    HW298182   9.589   0.132   7.776
65429SOL     OW98183  12.376   4.598   9.048
65429SOL    HW198184  12.403   4.536   8.980
65429SOL    HW298185  12.310   4.653   9.005
65430SOL     OW98186   7.910  14.851   4.915
65430SOL    HW198187   7.856   0.053   4.944
65430SOL    HW298188   7.909  14.857   4.819
65431SOL     OW98189   2.029  10.676   2.778
65431SOL    HW198190   1.937  10.653   2.791
65431SOL    HW298191   2.033  10.770   2.796
65432SOL     OW98192   2.885  10.864  14.217
65432SOL    HW198193   2.863  10.880  14.309
65432SOL    HW298194   2.934  10.941  14.190
65433SOL     OW98195   0.948   7.321   9.701
65433SOL    HW198196   1.015   7.306   9.633
65433SOL    HW298197   0.968   7.408   9.735
65434SOL     OW98198   6.919   2.164   8.025
65434SOL    HW198199   6.848   2.130   7.970
65434SOL    HW298200   6.876   2.198   8.103
65435SOL     OW98201  12.110   1.723   0.123
65435SOL    HW198202  12.138   1.688   0.039
65435SOL    HW298203  12.077   1.647   0.171
65436SOL     OW98204   7.377   0.459   7.227
65436SOL    HW198205   7.312   0.514   7.271
65436SOL    HW298206   7.427   0.419   7.298
65437SOL     OW98207   6.944   1.390   0.450
65437SOL    HW198208   7.026   1.404   0.497
65437SOL    HW298209   6.968   1.396   0.357
65438SOL     OW98210   5.968   9.585   8.202
65438SOL    HW198211   5.905   9.656   8.216
65438SOL    HW298212   6.045   9.612   8.251
65439SOL     OW98213  10.517   0.580  12.298
65439SOL    HW198214  10.491   0.654  12.353
65439SOL    HW298215  10.612   0.581  12.301
65440SOL     OW98216  10.094  13.208   5.249
65440SOL    HW198217  10.122  13.117   5.234
65440SOL    HW298218  10.143  13.236   5.326
65441SOL     OW98219  13.932   2.677   8.305
65441SOL    HW198220  14.027   2.671   8.297
65441SOL    HW298221  13.907   2.600   8.356
65442SOL     OW98222  14.811   9.070   1.130
65442SOL    HW198223   0.014   9.118   1.166
65442SOL    HW298224  14.848   9.020   1.057
65443SOL     OW98225  13.209   5.281  10.544
65443SOL    HW198226  13.301   5.255  10.534
65443SOL    HW298227  13.183   5.311  10.457
65444SOL     OW98228   4.213   8.724  13.276
65444SOL    HW198229   4.191   8.652  13.334
65444SOL    HW298230   4.309   8.725  13.273
65445SOL     OW98231   1.935  11.996   5.674
65445SOL    HW198232   1.865  11.995   5.608
65445SOL    HW298233   1.933  11.909   5.712
65446SOL     OW98234  10.487   4.990   9.289
65446SOL    HW198235  10.523   5.067   9.333
65446SOL    HW298236  10.417   5.025   9.234
65447SOL     OW98237   7.099   9.538   5.706
65447SOL    HW198238   7.020   9.485   5.692
65447SOL    HW298239   7.081   9.588   5.785
65448SOL     OW98240   1.913   3.206   6.429
65448SOL    HW198241   1.992   3.192   6.481
65448SOL    HW298242   1.843   3.168   6.482
65449SOL     OW98243   3.474   9.231   3.687
65449SOL    HW198244   3.422   9.244   3.608
65449SOL    HW298245   3.562   9.211   3.655
65450SOL     OW98246   5.719  10.944   7.933
65450SOL    HW198247   5.765  10.880   7.987
65450SOL    HW298248   5.705  10.899   7.850
65451SOL     OW98249   1.979   1.117   2.608
65451SOL    HW198250   1.936   1.106   2.693
65451SOL    HW298251   2.069   1.140   2.630
65452SOL     OW98252   8.044   2.628  11.554
65452SOL    HW198253   8.034   2.533  11.558
65452SOL    HW298254   7.957   2.660  11.531
65453SOL     OW98255   2.410  12.329   7.167
65453SOL    HW198256   2.467  12.402   7.146
65453SOL    HW298257   2.408  12.326   7.263
65454SOL     OW98258   5.151   1.117  11.633
65454SOL    HW198259   5.149   1.123  11.538
65454SOL    HW298260   5.200   1.037  11.651
65455SOL     OW98261   5.814   4.499   6.425
65455SOL    HW198262   5.799   4.529   6.515
65455SOL    HW298263   5.899   4.536   6.401
65456SOL     OW98264   2.123  13.295   6.013
65456SOL    HW198265   2.061  13.270   6.082
65456SOL    HW298266   2.155  13.211   5.979
65457SOL     OW98267   9.517  13.411   9.010
65457SOL    HW198268   9.560  13.385   9.092
65457SOL    HW298269   9.588  13.449   8.957
65458SOL     OW98270   9.303   3.837   7.298
65458SOL    HW198271   9.301   3.744   7.275
65458SOL    HW298272   9.215   3.856   7.330
65459SOL     OW98273  13.463  11.183   7.902
65459SOL    HW198274  13.456  11.251   7.969
65459SOL    HW298275  13.553  11.152   7.909
65460SOL     OW98276   1.477   2.705   2.681
65460SOL    HW198277   1.565   2.701   2.718
65460SOL    HW298278   1.439   2.619   2.699
65461SOL     OW98279  10.356   1.463   1.105
65461SOL    HW198280  10.353   1.518   1.183
65461SOL    HW298281  10.447   1.432   1.101
65462SOL     OW98282   0.265  10.672   0.520
65462SOL    HW198283   0.206  10.669   0.596
65462SOL    HW298284   0.295  10.762   0.516
65463SOL     OW98285   5.982   9.141   1.998
65463SOL    HW198286   6.013   9.051   2.000
65463SOL    HW298287   5.931   9.151   2.079
65464SOL     OW98288  10.486  11.730   7.486
65464SOL    HW198289  10.404  11.715   7.439
65464SOL    HW298290  10.551  11.745   7.417
65465SOL     OW98291   3.816   4.369   5.612
65465SOL    HW198292   3.824   4.356   5.706
65465SOL    HW298293   3.896   4.333   5.575
65466SOL     OW98294   3.188   7.082  14.085
65466SOL    HW198295   3.154   7.004  14.130
65466SOL    HW298296   3.110   7.128  14.055
65467SOL     OW98297   3.161   0.117  14.288
65467SOL    HW198298   3.104   0.125  14.364
65467SOL    HW298299   3.147   0.028  14.256
65468SOL     OW98300   8.338   4.166   2.584
65468SOL    HW198301   8.302   4.192   2.500
65468SOL    HW298302   8.328   4.244   2.639
65469SOL     OW98303  11.547   0.972   3.096
65469SOL    HW198304  11.612   1.039   3.119
65469SOL    HW298305  11.535   0.921   3.176
65470SOL     OW98306   0.778   0.365   6.193
65470SOL    HW198307   0.863   0.405   6.175
65470SOL    HW298308   0.722   0.395   6.121
65471SOL     OW98309   3.292   6.824   0.539
65471SOL    HW198310   3.309   6.777   0.620
65471SOL    HW298311   3.311   6.916   0.560
65472SOL     OW98312  13.188  11.614   5.855
65472SOL    HW198313  13.100  11.586   5.880
65472SOL    HW298314  13.210  11.560   5.779
65473SOL     OW98315   9.806   3.059   8.638
65473SOL    HW198316   9.846   2.976   8.665
65473SOL    HW298317   9.775   3.041   8.549
65474SOL     OW98318   4.406   5.900   2.237
65474SOL    HW198319   4.463   5.947   2.177
65474SOL    HW298320   4.464   5.866   2.305
65475SOL     OW98321  11.952  11.022  10.670
65475SOL    HW198322  12.015  10.984  10.732
65475SOL    HW298323  11.930  11.107  10.708
65476SOL     OW98324   7.989   1.673  11.019
65476SOL    HW198325   7.975   1.657  10.925
65476SOL    HW298326   8.027   1.591  11.051
65477SOL     OW98327   7.754   7.144  13.865
65477SOL    HW198328   7.663   7.118  13.853
65477SOL    HW298329   7.750   7.228  13.911
65478SOL     OW98330   3.273  12.062   1.151
65478SOL    HW198331   3.293  12.056   1.245
65478SOL    HW298332   3.358  12.072   1.109
65479SOL     OW98333  14.097   9.746   8.108
65479SOL    HW198334  14.129   9.826   8.067
65479SOL    HW298335  14.055   9.776   8.189
65480SOL     OW98336  12.221   2.598   3.797
65480SOL    HW198337  12.135   2.634   3.819
65480SOL    HW298338  12.244   2.543   3.872
65481SOL     OW98339   8.591  14.249   4.502
65481SOL    HW198340   8.513  14.244   4.557
65481SOL    HW298341   8.607  14.343   4.492
65482SOL     OW98342   4.688  13.505  14.725
65482SOL    HW198343   4.633  13.582  14.710
65482SOL    HW298344   4.629  13.439  14.762
65483SOL     OW98345  12.886   2.136   5.266
65483SOL    HW198346  12.883   2.046   5.299
65483SOL    HW298347  12.898   2.189   5.345
65484SOL     OW98348   7.022  12.068  12.423
65484SOL    HW198349   7.010  12.015  12.344
65484SOL    HW298350   6.972  12.148  12.406
65485SOL     OW98351   8.264   0.841   4.203
65485SOL    HW198352   8.248   0.797   4.119
65485SOL    HW298353   8.357   0.825   4.221
65486SOL     OW98354   2.561   1.480  12.745
65486SOL    HW198355   2.649   1.505  12.772
65486SOL    HW298356   2.538   1.407  12.804
65487SOL     OW98357   6.391  10.892   3.544
65487SOL    HW198358   6.377  10.914   3.637
65487SOL    HW298359   6.467  10.835   3.544
65488SOL     OW98360   3.756  10.431   7.279
65488SOL    HW198361   3.669  10.406   7.246
65488SOL    HW298362   3.772  10.371   7.351
65489SOL     OW98363   1.474   8.498  13.441
65489SOL    HW198364   1.451   8.473  13.531
65489SOL    HW298365   1.569   8.486  13.437
65490SOL     OW98366   6.669   1.788  13.672
65490SOL    HW198367   6.752   1.740  13.663
65490SOL    HW298368   6.687   1.854  13.740
65491SOL     OW98369   7.456   3.541  10.728
65491SOL    HW198370   7.446   3.447  10.719
65491SOL    HW298371   7.380   3.578  10.683
65492SOL     OW98372  12.019   7.592   1.796
65492SOL    HW198373  12.061   7.598   1.710
65492SOL    HW298374  11.944   7.534   1.782
65493SOL     OW98375   4.037   5.668   3.885
65493SOL    HW198376   4.008   5.684   3.795
65493SOL    HW298377   3.960   5.633   3.930
65494SOL     OW98378   5.566  11.570  13.353
65494SOL    HW198379   5.655  11.561  13.387
65494SOL    HW298380   5.574  11.551  13.260
65495SOL     OW98381   6.636  13.002   5.264
65495SOL    HW198382   6.646  12.959   5.349
65495SOL    HW298383   6.543  13.021   5.258
65496SOL     OW98384  11.767   2.600  10.514
65496SOL    HW198385  11.831   2.667  10.491
65496SOL    HW298386  11.744   2.618  10.605
65497SOL     OW98387   5.229   2.305   3.028
65497SOL    HW198388   5.160   2.338   2.971
65497SOL    HW298389   5.225   2.210   3.018
65498SOL     OW98390   0.289   7.879   1.237
65498SOL    HW198391   0.214   7.825   1.213
65498SOL    HW298392   0.365   7.830   1.207
65499SOL     OW98393  12.451  11.188   7.701
65499SOL    HW198394  12.420  11.146   7.781
65499SOL    HW298395  12.510  11.124   7.661
65500SOL     OW98396  13.854  14.614  10.738
65500SOL    HW198397  13.858  14.703  10.772
65500SOL    HW298398  13.876  14.622  10.645
65501SOL     OW98399   0.778   3.187  13.535
65501SOL    HW198400   0.718   3.173  13.608
65501SOL    HW298401   0.809   3.100  13.511
65502SOL     OW98402   6.189   5.694  12.367
65502SOL    HW198403   6.096   5.689  12.384
65502SOL    HW298404   6.195   5.726  12.277
65503SOL     OW98405  13.558   7.147   4.717
65503SOL    HW198406  13.483   7.100   4.680
65503SOL    HW298407  13.632   7.087   4.704
65504SOL     OW98408   0.972  13.238  13.680
65504SOL    HW198409   1.037  13.170  13.700
65504SOL    HW298410   0.899  13.191  13.641
65505SOL     OW98411   5.352  12.430   1.872
65505SOL    HW198412   5.282  12.495   1.861
65505SOL    HW298413   5.394  12.424   1.786
65506SOL     OW98414   5.966   3.418  11.404
65506SOL    HW198415   5.942   3.510  11.408
65506SOL    HW298416   6.062   3.418  11.408
65507SOL     OW98417   4.674   1.518  12.273
65507SOL    HW198418   4.763   1.496  12.300
65507SOL    HW298419   4.674   1.613  12.263
65508SOL     OW98420   2.665   5.686   3.881
65508SOL    HW198421   2.700   5.726   3.801
65508SOL    HW298422   2.617   5.757   3.923
65509SOL     OW98423   7.339   4.750   8.518
65509SOL    HW198424   7.324   4.683   8.450
65509SOL    HW298425   7.257   4.798   8.522
65510SOL     OW98426   2.335   1.872   4.408
65510SOL    HW198427   2.282   1.952   4.411
65510SOL    HW298428   2.365   1.867   4.317
65511SOL     OW98429   2.244   0.954  13.056
65511SOL    HW198430   2.311   0.920  13.115
65511SOL    HW298431   2.195   1.017  13.109
65512SOL     OW98432   1.320   2.365  11.750
65512SOL    HW198433   1.229   2.347  11.727
65512SOL    HW298434   1.344   2.440  11.696
65513SOL     OW98435  14.439   4.297  10.197
65513SOL    HW198436  14.384   4.230  10.157
65513SOL    HW298437  14.392   4.322  10.277
65514SOL     OW98438   6.176   7.736   1.839
65514SOL    HW198439   6.211   7.819   1.806
65514SOL    HW298440   6.091   7.760   1.877
65515SOL     OW98441   8.084   0.178   7.854
65515SOL    HW198442   8.126   0.261   7.879
65515SOL    HW298443   8.089   0.124   7.933
65516SOL     OW98444   8.159   0.607   9.685
65516SOL    HW198445   8.091   0.580   9.623
65516SOL    HW298446   8.164   0.702   9.675
65517SOL     OW98447  14.629   2.680   7.729
65517SOL    HW198448  14.631   2.772   7.754
65517SOL    HW298449  14.717   2.661   7.697
65518SOL     OW98450   1.372   5.904   9.731
65518SOL    HW198451   1.290   5.901   9.681
65518SOL    HW298452   1.441   5.896   9.666
65519SOL     OW98453   0.930  10.284  13.361
65519SOL    HW198454   0.893  10.359  13.315
65519SOL    HW298455   0.868  10.213  13.345
65520SOL     OW98456   7.824  14.329   1.874
65520SOL    HW198457   7.903  14.353   1.922
65520SOL    HW298458   7.833  14.235   1.860
65521SOL     OW98459   4.448   5.240   3.145
65521SOL    HW198460   4.407   5.325   3.129
65521SOL    HW298461   4.483   5.213   3.060
65522SOL     OW98462   2.351   2.376   3.682
65522SOL    HW198463   2.435   2.388   3.727
65522SOL    HW298464   2.369   2.405   3.592
65523SOL     OW98465  10.423   2.029  10.741
65523SOL    HW198466  10.509   1.998  10.767
65523SOL    HW298467  10.381   2.056  10.822
65524SOL     OW98468   6.436   2.177   1.927
65524SOL    HW198469   6.526   2.177   1.958
65524SOL    HW298470   6.387   2.225   1.994
65525SOL     OW98471   6.753  11.477   2.890
65525SOL    HW198472   6.693  11.424   2.838
65525SOL    HW298473   6.841  11.448   2.863
65526SOL     OW98474   1.078  10.137   5.079
65526SOL    HW198475   1.161  10.095   5.060
65526SOL    HW298476   1.045  10.166   4.995
65527SOL     OW98477   4.098   1.690   0.743
65527SOL    HW198478   4.174   1.671   0.688
65527SOL    HW298479   4.042   1.613   0.734
65528SOL     OW98480   5.871  14.362   5.385
65528SOL    HW198481   5.950  14.308   5.394
65528SOL    HW298482   5.903  14.452   5.390
65529SOL     OW98483  14.137   5.908   7.975
65529SOL    HW198484  14.131   6.003   7.971
65529SOL    HW298485  14.106   5.878   7.890
65530SOL     OW98486   2.571   8.950  10.999
65530SOL    HW198487   2.490   8.936  11.049
65530SOL    HW298488   2.550   9.021  10.938
65531SOL     OW98489   6.710   9.822  13.515
65531SOL    HW198490   6.773   9.766  13.470
65531SOL    HW298491   6.737   9.911  13.493
65532SOL     OW98492  11.530   2.617  13.849
65532SOL    HW198493  11.450   2.566  13.859
65532SOL    HW298494  11.586   2.588  13.921
65533SOL     OW98495  11.289  12.659   5.760
65533SOL    HW198496  11.266  12.751   5.747
65533SOL    HW298497  11.357  12.660   5.827
65534SOL     OW98498   8.065   8.289  14.214
65534SOL    HW198499   8.118   8.299  14.135
65534SOL    HW298500   7.976   8.310  14.186
65535SOL     OW98501   8.524  12.144   2.189
65535SOL    HW198502   8.542  12.055   2.218
65535SOL    HW298503   8.607  12.190   2.200
65536SOL     OW98504  13.557   3.212   7.804
65536SOL    HW198505  13.630   3.198   7.743
65536SOL    HW298506  13.482   3.231   7.747
65537SOL     OW98507   3.649  13.256   9.053
65537SOL    HW198508   3.643  13.185   8.989
65537SOL    HW298509   3.602  13.329   9.013
65538SOL     OW98510  12.339  14.537  13.833
65538SOL    HW198511  12.304  14.615  13.877
65538SOL    HW298512  12.352  14.566  13.742
65539SOL     OW98513   9.279  10.815  12.534
65539SOL    HW198514   9.374  10.807  12.547
65539SOL    HW298515   9.245  10.840  12.620
65540SOL     OW98516   5.883  11.286   5.520
65540SOL    HW198517   5.921  11.218   5.576
65540SOL    HW298518   5.957  11.343   5.498
65541SOL     OW98519   1.089   9.065   3.904
65541SOL    HW198520   1.149   9.030   3.839
65541SOL    HW298521   1.025   8.995   3.917
65542SOL     OW98522   3.347   6.319  11.976
65542SOL    HW198523   3.284   6.250  11.958
65542SOL    HW298524   3.383   6.342  11.890
65543SOL     OW98525   3.696  10.781  13.534
65543SOL    HW198526   3.623  10.824  13.490
65543SOL    HW298527   3.665  10.692  13.552
65544SOL     OW98528   2.221   9.869   2.310
65544SOL    HW198529   2.200   9.957   2.342
65544SOL    HW298530   2.251   9.883   2.220
65545SOL     OW98531  13.511   6.538   6.493
65545SOL    HW198532  13.507   6.631   6.515
65545SOL    HW298533  13.433   6.523   6.439
65546SOL     OW98534  10.364   4.810  14.286
65546SOL    HW198535  10.350   4.882  14.349
65546SOL    HW298536  10.298   4.825  14.219
65547SOL     OW98537   4.275   7.843   2.844
65547SOL    HW198538   4.250   7.932   2.871
65547SOL    HW298539   4.355   7.855   2.793
65548SOL     OW98540   0.066   0.085   4.749
65548SOL    HW198541   0.032   0.055   4.665
65548SOL    HW298542   0.120   0.012   4.780
65549SOL     OW98543  10.455   5.377   1.957
65549SOL    HW198544  10.427   5.286   1.970
65549SOL    HW298545  10.545   5.370   1.924
65550SOL     OW98546   8.858   7.540   3.037
65550SOL    HW198547   8.820   7.487   3.107
65550SOL    HW298548   8.863   7.481   2.962
65551SOL     OW98549  14.820   8.970   7.202
65551SOL    HW198550  14.786   8.923   7.126
65551SOL    HW298551   0.005   8.907   7.246
65552SOL     OW98552  11.611  11.091   3.477
65552SOL    HW198553  11.630  11.022   3.541
65552SOL    HW298554  11.654  11.169   3.513
65553SOL     OW98555  14.864  12.828  13.844
65553SOL    HW198556  14.845  12.762  13.777
65553SOL    HW298557  14.801  12.898  13.826
65554SOL     OW98558   9.869   9.962   9.249
65554SOL    HW198559   9.826   9.950   9.334
65554SOL    HW298560   9.807   9.925   9.186
65555SOL     OW98561   0.460  13.122  13.036
65555SOL    HW198562   0.408  13.176  12.976
65555SOL    HW298563   0.397  13.062  13.076
65556SOL     OW98564   8.149   2.885   0.525
65556SOL    HW198565   8.129   2.793   0.536
65556SOL    HW298566   8.082   2.918   0.465
65557SOL     OW98567   2.548  13.071   8.747
65557SOL    HW198568   2.556  12.979   8.773
65557SOL    HW298569   2.519  13.116   8.826
65558SOL     OW98570   2.808  14.666   7.271
65558SOL    HW198571   2.718  14.696   7.262
65558SOL    HW298572   2.818  14.599   7.203
65559SOL     OW98573  10.815   9.239  10.615
65559SOL    HW198574  10.722   9.252  10.634
65559SOL    HW298575  10.816   9.193  10.531
65560SOL     OW98576  13.032  13.478   3.271
65560SOL    HW198577  13.058  13.552   3.325
65560SOL    HW298578  12.954  13.443   3.314
65561SOL     OW98579  13.897   5.035  14.220
65561SOL    HW198580  13.929   5.121  14.194
65561SOL    HW298581  13.863   5.047  14.309
65562SOL     OW98582  13.335  14.507   0.184
65562SOL    HW198583  13.280  14.581   0.211
65562SOL    HW298584  13.273  14.434   0.174
65563SOL     OW98585  14.331  10.120  13.894
65563SOL    HW198586  14.419  10.083  13.895
65563SOL    HW298587  14.310  10.135  13.987
65564SOL     OW98588  13.403   3.393  11.901
65564SOL    HW198589  13.478   3.428  11.855
65564SOL    HW298590  13.434   3.311  11.940
65565SOL     OW98591   5.544   2.619  10.523
65565SOL    HW198592   5.532   2.664  10.440
65565SOL    HW298593   5.621   2.661  10.562
65566SOL     OW98594  12.367   1.900  11.685
65566SOL    HW198595  12.426   1.825  11.680
65566SOL    HW298596  12.327   1.905  11.598
65567SOL     OW98597   1.831  13.173   1.828
65567SOL    HW198598   1.866  13.091   1.864
65567SOL    HW298599   1.776  13.209   1.897
65568SOL     OW98600   2.113  10.872  13.114
65568SOL    HW198601   2.025  10.907  13.121
65568SOL    HW298602   2.128  10.863  13.019
65569SOL     OW98603  14.354  14.818   5.666
65569SOL    HW198604  14.449  14.806   5.662
65569SOL    HW298605  14.331  14.794   5.756
65570SOL     OW98606  12.650   3.625   1.535
65570SOL    HW198607  12.644   3.658   1.446
65570SOL    HW298608  12.642   3.703   1.590
65571SOL     OW98609   5.090   1.861   2.458
65571SOL    HW198610   5.018   1.923   2.445
65571SOL    HW298611   5.068   1.787   2.401
65572SOL     OW98612   6.660   2.523  12.379
65572SOL    HW198613   6.701   2.494  12.298
65572SOL    HW298614   6.594   2.457  12.398
65573SOL     OW98615  10.926   0.676  14.838
65573SOL    HW198616  10.857   0.624  14.797
65573SOL    HW298617  10.887   0.706   0.049
65574SOL     OW98618  11.335   9.733   8.663
65574SOL    HW198619  11.342   9.660   8.601
65574SOL    HW298620  11.254   9.715   8.712
65575SOL     OW98621  13.818   3.965   9.513
65575SOL    HW198622  13.875   3.967   9.437
65575SOL    HW298623  13.832   4.049   9.556
65576SOL     OW98624   8.930   4.999  11.148
65576SOL    HW198625   8.994   5.059  11.109
65576SOL    HW298626   8.956   4.912  11.116
65577SOL     OW98627   2.235   7.104  10.041
65577SOL    HW198628   2.141   7.102  10.056
65577SOL    HW298629   2.250   7.187   9.996
65578SOL     OW98630   7.904   6.221   1.946
65578SOL    HW198631   7.954   6.286   1.995
65578SOL    HW298632   7.815   6.229   1.979
65579SOL     OW98633   3.913  13.833   2.671
65579SOL    HW198634   3.874  13.874   2.748
65579SOL    HW298635   3.854  13.759   2.651
65580SOL     OW98636   6.783   6.519   4.090
65580SOL    HW198637   6.777   6.458   4.017
65580SOL    HW298638   6.806   6.465   4.165
65581SOL     OW98639   6.771   4.799   1.845
65581SOL    HW198640   6.684   4.834   1.826
65581SOL    HW298641   6.786   4.733   1.778
65582SOL     OW98642   7.631   7.363   8.832
65582SOL    HW198643   7.597   7.276   8.853
65582SOL    HW298644   7.560   7.422   8.855
65583SOL     OW98645  11.480   7.983   3.943
65583SOL    HW198646  11.464   7.985   4.037
65583SOL    HW298647  11.565   7.939   3.934
65584SOL     OW98648  14.796  13.141   9.831
65584SOL    HW198649  14.829  13.107   9.748
65584SOL    HW298650  14.702  13.123   9.829
65585SOL     OW98651   9.989   1.973   4.279
65585SOL    HW198652   9.963   1.886   4.310
65585SOL    HW298653   9.923   1.996   4.214
65586SOL     OW98654  11.146  11.224  13.204
65586SOL    HW198655  11.115  11.267  13.284
65586SOL    HW298656  11.081  11.246  13.138
65587SOL     OW98657   1.728   3.833  14.826
65587SOL    HW198658   1.638   3.827  14.857
65587SOL    HW298659   1.780   3.849   0.034
65588SOL     OW98660   0.797   3.017  12.591
65588SOL    HW198661   0.722   2.968  12.624
65588SOL    HW298662   0.765   3.107  12.582
65589SOL     OW98663  10.728   2.383   9.846
65589SOL    HW198664  10.777   2.323   9.902
65589SOL    HW298665  10.783   2.461   9.840
65590SOL     OW98666   6.099  10.686  13.526
65590SOL    HW198667   6.036  10.708  13.594
65590SOL    HW298668   6.180  10.667  13.572
65591SOL     OW98669   8.029   6.135   8.689
65591SOL    HW198670   8.116   6.101   8.671
65591SOL    HW298671   8.030   6.224   8.655
65592SOL     OW98672   1.735   3.878   0.421
65592SOL    HW198673   1.741   3.969   0.450
65592SOL    HW298674   1.722   3.828   0.502
65593SOL     OW98675   9.870   0.834   0.139
65593SOL    HW198676   9.906   0.918   0.167
65593SOL    HW298677   9.899   0.824   0.048
65594SOL     OW98678  12.759   2.196  12.985
65594SOL    HW198679  12.750   2.229  13.074
65594SOL    HW298680  12.809   2.264  12.939
65595SOL     OW98681  11.360  10.887   1.596
65595SOL    HW198682  11.345  10.965   1.650
65595SOL    HW298683  11.353  10.814   1.657
65596SOL     OW98684   5.419   6.410   2.363
65596SOL    HW198685   5.342   6.468   2.361
65596SOL    HW298686   5.492   6.465   2.335
65597SOL     OW98687   1.875   5.002   5.939
65597SOL    HW198688   1.814   4.977   6.009
65597SOL    HW298689   1.900   5.092   5.959
65598SOL     OW98690  11.811  13.545   5.920
65598SOL    HW198691  11.764  13.621   5.954
65598SOL    HW298692  11.849  13.575   5.838
65599SOL     OW98693   4.816   3.430   1.984
65599SOL    HW198694   4.900   3.386   1.970
65599SOL    HW298695   4.769   3.418   1.901
65600SOL     OW98696   8.880   7.538  13.225
65600SOL    HW198697   8.939   7.500  13.159
65600SOL    HW298698   8.858   7.465  13.282
65601SOL     OW98699  11.111   5.248   8.365
65601SOL    HW198700  11.039   5.210   8.415
65601SOL    HW298701  11.068   5.296   8.294
65602SOL     OW98702   5.117   1.728   6.153
65602SOL    HW198703   5.151   1.664   6.216
65602SOL    HW298704   5.077   1.796   6.207
65603SOL     OW98705   5.462   5.281   1.642
65603SOL    HW198706   5.545   5.328   1.632
65603SOL    HW298707   5.484   5.206   1.698
65604SOL     OW98708   6.602   7.171   2.713
65604SOL    HW198709   6.667   7.224   2.758
65604SOL    HW298710   6.647   7.139   2.635
65605SOL     OW98711  11.133   5.039  10.593
65605SOL    HW198712  11.145   5.001  10.680
65605SOL    HW298713  11.193   5.114  10.592
65606SOL     OW98714   6.051   0.453   7.850
65606SOL    HW198715   6.024   0.365   7.824
65606SOL    HW298716   6.043   0.506   7.771
65607SOL     OW98717   6.857   2.838   7.644
65607SOL    HW198718   6.847   2.798   7.731
65607SOL    HW298719   6.827   2.928   7.655
65608SOL     OW98720   9.432   4.853   4.991
65608SOL    HW198721   9.458   4.899   5.071
65608SOL    HW298722   9.510   4.857   4.936
65609SOL     OW98723   1.567   4.026  13.053
65609SOL    HW198724   1.606   4.100  13.006
65609SOL    HW298725   1.497   4.064  13.106
65610SOL     OW98726  10.401  14.457   8.822
65610SOL    HW198727  10.332  14.522   8.825
65610SOL    HW298728  10.384  14.400   8.897
65611SOL     OW98729   9.134   4.561   2.821
65611SOL    HW198730   9.109   4.606   2.901
65611SOL    HW298731   9.187   4.487   2.850
65612SOL     OW98732   0.377   1.527   2.629
65612SOL    HW198733   0.411   1.439   2.641
65612SOL    HW298734   0.347   1.529   2.538
65613SOL     OW98735   0.413   7.777   6.014
65613SOL    HW198736   0.388   7.856   5.967
65613SOL    HW298737   0.391   7.705   5.955
65614SOL     OW98738  10.048   3.136   6.267
65614SOL    HW198739   9.982   3.070   6.246
65614SOL    HW298740  10.131   3.094   6.246
65615SOL     OW98741  13.006  10.024   6.706
65615SOL    HW198742  12.928  10.018   6.650
65615SOL    HW298743  13.022   9.934   6.735
65616SOL     OW98744  14.789  13.807   0.829
65616SOL    HW198745  14.829  13.724   0.854
65616SOL    HW298746  14.700  13.802   0.862
65617SOL     OW98747   9.891   4.803   0.380
65617SOL    HW198748   9.983   4.827   0.384
65617SOL    HW298749   9.891   4.710   0.360
65618SOL     OW98750   0.408  10.166   6.616
65618SOL    HW198751   0.443  10.218   6.544
65618SOL    HW298752   0.436  10.214   6.695
65619SOL     OW98753   0.894   6.848   5.687
65619SOL    HW198754   0.913   6.758   5.715
65619SOL    HW298755   0.905   6.847   5.592
65620SOL     OW98756   6.098  12.605  11.384
65620SOL    HW198757   6.116  12.598  11.290
65620SOL    HW298758   6.155  12.541  11.425
65621SOL     OW98759   4.527   1.649   1.854
65621SOL    HW198760   4.433   1.666   1.859
65621SOL    HW298761   4.535   1.578   1.790
65622SOL     OW98762  11.337  14.831   8.926
65622SOL    HW198763  11.329  14.855   9.018
65622SOL    HW298764  11.431  14.816   8.913
65623SOL     OW98765  10.851   3.858  11.452
65623SOL    HW198766  10.943   3.833  11.444
65623SOL    HW298767  10.822   3.818  11.534
65624SOL     OW98768  14.115  11.161   0.997
65624SOL    HW198769  14.162  11.155   1.080
65624SOL    HW298770  14.033  11.205   1.019
65625SOL     OW98771   9.356  13.880  11.095
65625SOL    HW198772   9.345  13.785  11.096
65625SOL    HW298773   9.273  13.914  11.061
65626SOL     OW98774   2.664  13.144   7.513
65626SOL    HW198775   2.698  13.141   7.602
65626SOL    HW298776   2.688  13.060   7.475
65627SOL     OW98777  12.671  11.217   1.595
65627SOL    HW198778  12.644  11.192   1.683
65627SOL    HW298779  12.645  11.309   1.587
65628SOL     OW98780   7.316   0.175   8.606
65628SOL    HW198781   7.330   0.195   8.699
65628SOL    HW298782   7.378   0.104   8.588
65629SOL     OW98783   3.745   0.266   9.389
65629SOL    HW198784   3.707   0.192   9.437
65629SOL    HW298785   3.823   0.230   9.347
65630SOL     OW98786   2.784   4.811  10.388
65630SOL    HW198787   2.740   4.726  10.390
65630SOL    HW298788   2.869   4.794  10.347
65631SOL     OW98789   1.177  13.302  13.037
65631SOL    HW198790   1.212  13.216  13.015
65631SOL    HW298791   1.083  13.295  13.022
65632SOL     OW98792   0.945  12.710  12.937
65632SOL    HW198793   0.928  12.704  13.031
65632SOL    HW298794   0.965  12.620  12.910
65633SOL     OW98795  12.032  10.073  11.129
65633SOL    HW198796  12.104  10.071  11.192
65633SOL    HW298797  11.994   9.986  11.133
65634SOL     OW98798   4.013   9.716  13.195
65634SOL    HW198799   3.925   9.677  13.192
65634SOL    HW298800   3.997   9.810  13.188
65635SOL     OW98801   6.733   3.833  13.467
65635SOL    HW198802   6.667   3.765  13.476
65635SOL    HW298803   6.817   3.786  13.466
65636SOL     OW98804   8.124  10.965   5.249
65636SOL    HW198805   8.204  10.913   5.244
65636SOL    HW298806   8.076  10.929   5.325
65637SOL     OW98807  12.118   8.468  13.865
65637SOL    HW198808  12.176   8.536  13.829
65637SOL    HW298809  12.030   8.499  13.845
65638SOL     OW98810   5.897   7.707   4.453
65638SOL    HW198811   5.862   7.796   4.444
65638SOL    HW298812   5.879   7.683   4.543
65639SOL     OW98813  12.259   2.115   1.461
65639SOL    HW198814  12.263   2.131   1.556
65639SOL    HW298815  12.306   2.189   1.422
65640SOL     OW98816   2.847  10.796   6.643
65640SOL    HW198817   2.893  10.779   6.561
65640SOL    HW298818   2.818  10.887   6.636
65641SOL     OW98819   4.439   6.053  14.589
65641SOL    HW198820   4.512   6.100  14.548
65641SOL    HW298821   4.375   6.121  14.611
65642SOL     OW98822   8.485   8.349   3.368
65642SOL    HW198823   8.552   8.395   3.317
65642SOL    HW298824   8.431   8.419   3.405
65643SOL     OW98825   2.556  10.851  10.579
65643SOL    HW198826   2.604  10.818  10.655
65643SOL    HW298827   2.607  10.823  10.503
65644SOL     OW98828  13.034  14.023   6.156
65644SOL    HW198829  13.028  13.933   6.187
65644SOL    HW298830  13.013  14.076   6.233
65645SOL     OW98831   6.970   8.839   5.151
65645SOL    HW198832   6.899   8.901   5.165
65645SOL    HW298833   7.013   8.870   5.070
65646SOL     OW98834   5.119  10.881   0.625
65646SOL    HW198835   5.044  10.915   0.575
65646SOL    HW298836   5.080  10.825   0.692
65647SOL     OW98837   4.168   6.807   9.008
65647SOL    HW198838   4.215   6.879   8.967
65647SOL    HW298839   4.145   6.749   8.936
65648SOL     OW98840   0.267   1.549   9.476
65648SOL    HW198841   0.299   1.635   9.504
65648SOL    HW298842   0.184   1.568   9.432
65649SOL     OW98843  13.985   3.597  10.896
65649SOL    HW198844  14.024   3.620  10.811
65649SOL    HW298845  13.973   3.502  10.892
65650SOL     OW98846   0.140   3.709   4.142
65650SOL    HW198847   0.087   3.733   4.065
65650SOL    HW298848   0.143   3.614   4.141
65651SOL     OW98849   3.589   0.342  10.967
65651SOL    HW198850   3.654   0.412  10.959
65651SOL    HW298851   3.562   0.345  11.058
65652SOL     OW98852   3.502  10.448  11.269
65652SOL    HW198853   3.518  10.357  11.293
65652SOL    HW298854   3.579  10.496  11.302
65653SOL     OW98855   2.791   3.877  11.613
65653SOL    HW198856   2.869   3.925  11.585
65653SOL    HW298857   2.825   3.802  11.662
65654SOL     OW98858   4.146   5.457   2.462
65654SOL    HW198859   4.052   5.455   2.445
65654SOL    HW298860   4.167   5.551   2.467
65655SOL     OW98861   1.948  10.972  12.103
65655SOL    HW198862   1.986  11.050  12.062
65655SOL    HW298863   1.999  10.960  12.183
65656SOL     OW98864   7.495   8.485  10.665
65656SOL    HW198865   7.451   8.570  10.670
65656SOL    HW298866   7.565   8.497  10.602
65657SOL     OW98867   5.998   0.828   6.642
65657SOL    HW198868   6.050   0.908   6.641
65657SOL    HW298869   6.058   0.760   6.671
65658SOL     OW98870   1.494  13.924  14.586
65658SOL    HW198871   1.505  14.008  14.629
65658SOL    HW298872   1.455  13.868  14.653
65659SOL     OW98873  12.948   5.822   5.684
65659SOL    HW198874  12.854   5.820   5.666
65659SOL    HW298875  12.985   5.876   5.615
65660SOL     OW98876   3.893   6.717   7.346
65660SOL    HW198877   3.980   6.754   7.358
65660SOL    HW298878   3.908   6.634   7.300
65661SOL     OW98879   0.418   8.360   7.817
65661SOL    HW198880   0.363   8.437   7.834
65661SOL    HW298881   0.493   8.371   7.876
65662SOL     OW98882   7.061   0.132   9.504
65662SOL    HW198883   7.076   0.227   9.503
65662SOL    HW298884   6.968   0.122   9.484
65663SOL     OW98885  12.350   7.552   0.180
65663SOL    HW198886  12.295   7.494   0.233
65663SOL    HW298887  12.296   7.573   0.104
65664SOL     OW98888  13.852   0.977   8.519
65664SOL    HW198889  13.812   1.064   8.524
65664SOL    HW298890  13.878   0.957   8.609
65665SOL     OW98891   9.713   2.176  11.432
65665SOL    HW198892   9.680   2.171  11.522
65665SOL    HW298893   9.635   2.166  11.377
65666SOL     OW98894   3.745   1.393   4.095
65666SOL    HW198895   3.697   1.444   4.030
65666SOL    HW298896   3.709   1.422   4.179
65667SOL     OW98897  13.465   5.219   5.980
65667SOL    HW198898  13.447   5.304   6.020
65667SOL    HW298899  13.383   5.196   5.936
65668SOL     OW98900   3.185   4.452   4.502
65668SOL    HW198901   3.170   4.415   4.589
65668SOL    HW298902   3.161   4.381   4.442
65669SOL     OW98903   6.416   3.825   4.075
65669SOL    HW198904   6.502   3.865   4.083
65669SOL    HW298905   6.426   3.736   4.108
65670SOL     OW98906   5.777  14.392   4.431
65670SOL    HW198907   5.720  14.427   4.363
65670SOL    HW298908   5.762  14.298   4.429
65671SOL     OW98909   2.317   2.045   7.626
65671SOL    HW198910   2.259   1.977   7.594
65671SOL    HW298911   2.389   1.997   7.669
65672SOL     OW98912   6.077   3.787   6.047
65672SOL    HW198913   6.167   3.816   6.061
65672SOL    HW298914   6.079   3.692   6.061
65673SOL     OW98915  10.162  10.388   4.998
65673SOL    HW198916  10.111  10.469   4.993
65673SOL    HW298917  10.252  10.417   5.015
65674SOL     OW98918   8.099   4.891  10.294
65674SOL    HW198919   8.167   4.948  10.258
65674SOL    HW298920   8.078   4.929  10.379
65675SOL     OW98921   6.757   5.715  10.998
65675SOL    HW198922   6.667   5.695  10.971
65675SOL    HW298923   6.769   5.664  11.078
65676SOL     OW98924  11.026   2.959   5.415
65676SOL    HW198925  11.006   3.045   5.377
65676SOL    HW298926  11.089   2.921   5.354
65677SOL     OW98927   6.849   5.596  11.292
65677SOL    HW198928   6.831   5.522  11.235
65677SOL    HW298929   6.920   5.566  11.349
65678SOL     OW98930   6.699   5.219   7.879
65678SOL    HW198931   6.617   5.171   7.882
65678SOL    HW298932   6.676   5.308   7.906
65679SOL     OW98933   7.776   3.022   9.869
65679SOL    HW198934   7.844   3.050   9.930
65679SOL    HW298935   7.724   3.100   9.853
65680SOL     OW98936   9.816  14.841  10.075
65680SOL    HW198937   9.757   0.016  10.016
65680SOL    HW298938   9.816   0.021  10.156
65681SOL     OW98939   4.988  14.144  13.747
65681SOL    HW198940   5.026  14.082  13.810
65681SOL    HW298941   4.960  14.218  13.800
65682SOL     OW98942   2.538   9.964   4.095
65682SOL    HW198943   2.569   9.924   4.176
65682SOL    HW298944   2.471   9.903   4.063
65683SOL     OW98945  14.642  10.452   8.590
65683SOL    HW198946  14.729  10.480   8.619
65683SOL    HW298947  14.658  10.372   8.540
65684SOL     OW98948  12.037  11.004   4.007
65684SOL    HW198949  12.021  11.089   4.048
65684SOL    HW298950  12.029  11.021   3.913
65685SOL     OW98951   3.422  10.844  13.802
65685SOL    HW198952   3.398  10.822  13.892
65685SOL    HW298953   3.464  10.766  13.768
65686SOL     OW98954   3.292   3.395   5.790
65686SOL    HW198955   3.370   3.419   5.741
65686SOL    HW298956   3.288   3.300   5.784
65687SOL     OW98957   6.330   9.281   2.853
65687SOL    HW198958   6.262   9.332   2.809
65687SOL    HW298959   6.407   9.289   2.797
65688SOL     OW98960  10.840   8.735  11.829
65688SOL    HW198961  10.805   8.823  11.845
65688SOL    HW298962  10.818   8.717  11.737
65689SOL     OW98963   6.502  11.981   1.467
65689SOL    HW198964   6.500  11.891   1.498
65689SOL    HW298965   6.430  11.987   1.405
65690SOL     OW98966  11.278   9.627   0.023
65690SOL    HW198967  11.244   9.608   0.110
65690SOL    HW298968  11.262   9.720   0.010
65691SOL     OW98969   3.571   9.668  12.050
65691SOL    HW198970   3.481   9.665  12.083
65691SOL    HW298971   3.625   9.650  12.126
65692SOL     OW98972   2.090   2.379   2.717
65692SOL    HW198973   2.176   2.380   2.760
65692SOL    HW298974   2.027   2.383   2.789
65693SOL     OW98975  14.288   0.441   4.039
65693SOL    HW198976  14.252   0.406   4.120
65693SOL    HW298977  14.214   0.439   3.978
65694SOL     OW98978  11.897   0.854  11.762
65694SOL    HW198979  11.852   0.858  11.677
65694SOL    HW298980  11.984   0.890  11.743
65695SOL     OW98981  10.538   9.133   6.696
65695SOL    HW198982  10.600   9.199   6.726
65695SOL    HW298983  10.592   9.055   6.679
65696SOL     OW98984  12.406   7.710   6.711
65696SOL    HW198985  12.429   7.619   6.728
65696SOL    HW298986  12.360   7.739   6.790
65697SOL     OW98987   1.325   5.033   6.897
65697SOL    HW198988   1.239   5.075   6.887
65697SOL    HW298989   1.365   5.079   6.971
65698SOL     OW98990   7.635   2.191  14.216
65698SOL    HW198991   7.572   2.146  14.159
65698SOL    HW298992   7.626   2.148  14.301
65699SOL     OW98993   4.743   3.328   7.785
65699SOL    HW198994   4.742   3.393   7.856
65699SOL    HW298995   4.660   3.341   7.739
65700SOL     OW98996   7.631  11.211  10.889
65700SOL    HW198997   7.671  11.274  10.950
65700SOL    HW298998   7.694  11.140  10.882
65701SOL     OW98999  12.260   6.765  10.606
65701SOL    HW199000  12.305   6.846  10.632
65701SOL    HW299001  12.309   6.696  10.649
65702SOL     OW99002   5.571  11.413   5.156
65702SOL    HW199003   5.666  11.427   5.155
65702SOL    HW299004   5.537  11.490   5.201
65703SOL     OW99005   0.068  10.688   3.034
65703SOL    HW199006   0.099  10.614   2.983
65703SOL    HW299007   0.127  10.760   3.011
65704SOL     OW99008   5.213  13.063   6.143
65704SOL    HW199009   5.197  13.088   6.052
65704SOL    HW299010   5.195  13.143   6.193
65705SOL     OW99011   3.156  13.523  12.774
65705SOL    HW199012   3.250  13.534  12.789
65705SOL    HW299013   3.135  13.589  12.708
65706SOL     OW99014   4.898  12.832   1.838
65706SOL    HW199015   4.858  12.915   1.811
65706SOL    HW299016   4.892  12.776   1.761
65707SOL     OW99017   8.439  12.219   5.370
65707SOL    HW199018   8.361  12.239   5.420
65707SOL    HW299019   8.413  12.146   5.313
65708SOL     OW99020  10.756   5.963   7.002
65708SOL    HW199021  10.848   5.966   6.975
65708SOL    HW299022  10.711   6.021   6.940
65709SOL     OW99023  10.100  10.816   6.049
65709SOL    HW199024  10.041  10.781   5.983
65709SOL    HW299025  10.043  10.858   6.113
65710SOL     OW99026  14.429  12.069   6.356
65710SOL    HW199027  14.479  11.990   6.336
65710SOL    HW299028  14.489  12.124   6.405
65711SOL     OW99029   6.252   4.207  13.184
65711SOL    HW199030   6.333   4.205  13.134
65711SOL    HW299031   6.186   4.173  13.125
65712SOL     OW99032   0.062   8.796  12.371
65712SOL    HW199033  14.852   8.845  12.360
65712SOL    HW299034   0.113   8.848  12.433
65713SOL     OW99035   0.453   1.773  13.416
65713SOL    HW199036   0.413   1.815  13.340
65713SOL    HW299037   0.399   1.695  13.432
65714SOL     OW99038   6.507   6.765   8.587
65714SOL    HW199039   6.479   6.844   8.634
65714SOL    HW299040   6.446   6.697   8.617
65715SOL     OW99041  14.566  13.455   5.971
65715SOL    HW199042  14.514  13.398   5.915
65715SOL    HW299043  14.555  13.542   5.934
65716SOL     OW99044   6.270   2.790   7.228
65716SOL    HW199045   6.196   2.810   7.286
65716SOL    HW299046   6.236   2.724   7.168
65717SOL     OW99047   7.835   7.905   7.674
65717SOL    HW199048   7.855   7.881   7.765
65717SOL    HW299049   7.821   8.000   7.677
65718SOL     OW99050  11.399  13.824  14.313
65718SOL    HW199051  11.493  13.832  14.301
65718SOL    HW299052  11.361  13.858  14.232
65719SOL     OW99053  12.036  13.024   9.454
65719SOL    HW199054  12.006  13.096   9.510
65719SOL    HW299055  11.978  13.029   9.377
65720SOL     OW99056  14.074   1.667   9.357
65720SOL    HW199057  14.088   1.698   9.447
65720SOL    HW299058  14.009   1.598   9.365
65721SOL     OW99059  10.020  10.837   4.617
65721SOL    HW199060  10.031  10.838   4.522
65721SOL    HW299061  10.060  10.754   4.644
65722SOL     OW99062   1.779  12.659   2.929
65722SOL    HW199063   1.798  12.632   2.839
65722SOL    HW299064   1.860  12.638   2.977
65723SOL     OW99065  11.787   0.092   9.143
65723SOL    HW199066  11.867   0.040   9.130
65723SOL    HW299067  11.732   0.037   9.198
65724SOL     OW99068   1.952  11.773   0.761
65724SOL    HW199069   1.857  11.771   0.774
65724SOL    HW299070   1.966  11.844   0.698
65725SOL     OW99071   0.951  10.732  10.174
65725SOL    HW199072   0.885  10.753  10.241
65725SOL    HW299073   0.931  10.791  10.101
65726SOL     OW99074   7.308   1.534   5.707
65726SOL    HW199075   7.341   1.623   5.719
65726SOL    HW299076   7.328   1.490   5.790
65727SOL     OW99077   5.534  13.712   1.798
65727SOL    HW199078   5.536  13.682   1.707
65727SOL    HW299079   5.511  13.634   1.848
65728SOL     OW99080   7.026  14.103  13.788
65728SOL    HW199081   7.111  14.070  13.758
65728SOL    HW299082   7.037  14.117  13.882
65729SOL     OW99083  10.247  11.964   0.440
65729SOL    HW199084  10.250  11.984   0.347
65729SOL    HW299085  10.198  12.036   0.479
65730SOL     OW99086  14.221   4.032  11.993
65730SOL    HW199087  14.277   4.089  12.046
65730SOL    HW299088  14.177   3.976  12.057
65731SOL     OW99089   5.391  11.217  13.727
65731SOL    HW199090   5.370  11.126  13.705
65731SOL    HW299091   5.434  11.251  13.648
65732SOL     OW99092   2.565   0.110   2.138
65732SOL    HW199093   2.526   0.197   2.136
65732SOL    HW299094   2.502   0.056   2.186
65733SOL     OW99095   0.859   3.787   5.310
65733SOL    HW199096   0.834   3.876   5.286
65733SOL    HW299097   0.854   3.785   5.406
65734SOL     OW99098  10.486   4.191   0.187
65734SOL    HW199099  10.526   4.194   0.099
65734SOL    HW299100  10.393   4.176   0.170
65735SOL     OW99101   8.808  12.038   3.331
65735SOL    HW199102   8.713  12.028   3.331
65735SOL    HW299103   8.832  12.043   3.424
65736SOL     OW99104  12.707   0.169   2.506
65736SOL    HW199105  12.793   0.147   2.544
65736SOL    HW299106  12.645   0.157   2.578
65737SOL     OW99107  14.653  10.732  11.261
65737SOL    HW199108  14.723  10.785  11.298
65737SOL    HW299109  14.672  10.643  11.290
65738SOL     OW99110  10.485  13.082  13.942
65738SOL    HW199111  10.576  13.054  13.951
65738SOL    HW299112  10.444  13.014  13.889
65739SOL     OW99113   4.840   3.160   6.261
65739SOL    HW199114   4.835   3.240   6.313
65739SOL    HW299115   4.814   3.090   6.321
65740SOL     OW99116   3.781  11.608  13.015
65740SOL    HW199117   3.791  11.640  12.925
65740SOL    HW299118   3.789  11.687  13.069
65741SOL     OW99119   9.516  13.802   2.648
65741SOL    HW199120   9.576  13.769   2.716
65741SOL    HW299121   9.555  13.885   2.621
65742SOL     OW99122   2.760  10.823   5.288
65742SOL    HW199123   2.850  10.852   5.272
65742SOL    HW299124   2.712  10.903   5.309
65743SOL     OW99125   2.812   4.746   4.333
65743SOL    HW199126   2.755   4.679   4.370
65743SOL    HW299127   2.901   4.713   4.348
65744SOL     OW99128   3.784  10.496   2.903
65744SOL    HW199129   3.701  10.451   2.888
65744SOL    HW299130   3.839  10.431   2.947
65745SOL     OW99131  12.264   8.435   4.242
65745SOL    HW199132  12.214   8.385   4.178
65745SOL    HW299133  12.235   8.401   4.327
65746SOL     OW99134  12.085   0.052   5.357
65746SOL    HW199135  12.015  14.860   5.373
65746SOL    HW299136  12.096   0.053   5.262
65747SOL     OW99137   3.795   0.439   2.532
65747SOL    HW199138   3.748   0.365   2.572
65747SOL    HW299139   3.816   0.496   2.605
65748SOL     OW99140   9.963   5.961   1.478
65748SOL    HW199141  10.029   5.891   1.472
65748SOL    HW299142   9.935   5.961   1.569
65749SOL     OW99143  14.597  12.952   6.320
65749SOL    HW199144  14.527  12.992   6.371
65749SOL    HW299145  14.553  12.898   6.256
65750SOL     OW99146   7.351  11.142   7.151
65750SOL    HW199147   7.309  11.109   7.072
65750SOL    HW299148   7.310  11.227   7.167
65751SOL     OW99149   2.260   0.111   4.981
65751SOL    HW199150   2.198   0.126   5.053
65751SOL    HW299151   2.236   0.175   4.915
65752SOL     OW99152   3.915   6.739   6.969
65752SOL    HW199153   3.968   6.674   7.014
65752SOL    HW299154   3.945   6.736   6.878
65753SOL     OW99155   4.932   2.088   8.503
65753SOL    HW199156   5.012   2.141   8.502
65753SOL    HW299157   4.892   2.104   8.417
65754SOL     OW99158  14.288   3.447  11.881
65754SOL    HW199159  14.263   3.424  11.971
65754SOL    HW299160  14.249   3.533  11.866
65755SOL     OW99161  10.310  12.308   6.203
65755SOL    HW199162  10.318  12.215   6.184
65755SOL    HW299163  10.283  12.348   6.120
65756SOL     OW99164   1.500  14.153   5.136
65756SOL    HW199165   1.505  14.134   5.042
65756SOL    HW299166   1.406  14.158   5.155
65757SOL     OW99167  10.104  14.337   5.776
65757SOL    HW199168  10.166  14.269   5.805
65757SOL    HW299169  10.026  14.322   5.829
65758SOL     OW99170   0.712   7.266   0.365
65758SOL    HW199171   0.686   7.303   0.281
65758SOL    HW299172   0.694   7.172   0.357
65759SOL     OW99173   4.784  13.437   7.011
65759SOL    HW199174   4.829  13.493   7.076
65759SOL    HW299175   4.691  13.454   7.026
65760SOL     OW99176   0.329  11.239   4.822
65760SOL    HW199177   0.388  11.314   4.818
65760SOL    HW299178   0.300  11.227   4.731
65761SOL     OW99179  13.307   7.622   6.073
65761SOL    HW199180  13.216   7.594   6.060
65761SOL    HW299181  13.352   7.544   6.104
65762SOL     OW99182  10.330   9.959   4.933
65762SOL    HW199183  10.398   9.974   4.868
65762SOL    HW299184  10.249   9.954   4.883
65763SOL     OW99185   3.227   3.785   9.270
65763SOL    HW199186   3.196   3.731   9.198
65763SOL    HW299187   3.245   3.870   9.230
65764SOL     OW99188  13.373   4.163   1.117
65764SOL    HW199189  13.432   4.184   1.189
65764SOL    HW299190  13.359   4.068   1.124
65765SOL     OW99191   9.577   2.983   5.564
65765SOL    HW199192   9.646   3.049   5.571
65765SOL    HW299193   9.555   2.962   5.654
65766SOL     OW99194   9.460  12.452   5.292
65766SOL    HW199195   9.415  12.499   5.363
65766SOL    HW299196   9.549  12.487   5.293
65767SOL     OW99197   5.749   0.766   5.678
65767SOL    HW199198   5.676   0.704   5.679
65767SOL    HW299199   5.772   0.775   5.586
65768SOL     OW99200  14.392   3.703   8.911
65768SOL    HW199201  14.376   3.611   8.887
65768SOL    HW299202  14.330   3.720   8.982
65769SOL     OW99203  11.224   6.560  11.793
65769SOL    HW199204  11.216   6.545  11.699
65769SOL    HW299205  11.231   6.656  11.802
65770SOL     OW99206   6.213   7.138   5.054
65770SOL    HW199207   6.223   7.043   5.053
65770SOL    HW299208   6.300   7.172   5.073
65771SOL     OW99209   1.210  11.978  12.560
65771SOL    HW199210   1.287  11.926  12.536
65771SOL    HW299211   1.157  11.919  12.613
65772SOL     OW99212   7.862   6.878  12.945
65772SOL    HW199213   7.853   6.881  13.040
65772SOL    HW299214   7.782   6.919  12.912
65773SOL     OW99215  13.746  12.448   7.317
65773SOL    HW199216  13.657  12.465   7.348
65773SOL    HW299217  13.784  12.535   7.307
65774SOL     OW99218  10.632   3.995   1.739
65774SOL    HW199219  10.643   3.931   1.669
65774SOL    HW299220  10.540   4.022   1.732
65775SOL     OW99221  10.818   0.695   6.779
65775SOL    HW199222  10.901   0.649   6.764
65775SOL    HW299223  10.833   0.746   6.858
65776SOL     OW99224  12.759  11.667   2.284
65776SOL    HW199225  12.682  11.708   2.244
65776SOL    HW299226  12.756  11.695   2.375
65777SOL     OW99227   8.667   3.829   9.654
65777SOL    HW199228   8.638   3.863   9.570
65777SOL    HW299229   8.746   3.879   9.674
65778SOL     OW99230  14.360   7.292   1.265
65778SOL    HW199231  14.450   7.278   1.236
65778SOL    HW299232  14.342   7.384   1.244
65779SOL     OW99233   7.752   8.562   5.950
65779SOL    HW199234   7.811   8.637   5.946
65779SOL    HW299235   7.794   8.496   5.893
65780SOL     OW99236   5.478  12.576   8.197
65780SOL    HW199237   5.411  12.636   8.164
65780SOL    HW299238   5.519  12.541   8.118
65781SOL     OW99239   8.913   6.750   4.740
65781SOL    HW199240   8.839   6.802   4.709
65781SOL    HW299241   8.980   6.814   4.761
65782SOL     OW99242  14.546   6.892   0.721
65782SOL    HW199243  14.469   6.914   0.670
65782SOL    HW299244  14.594   6.974   0.731
65783SOL     OW99245   3.266   6.467   2.718
65783SOL    HW199246   3.201   6.455   2.788
65783SOL    HW299247   3.213   6.487   2.641
65784SOL     OW99248   2.987   5.700   3.111
65784SOL    HW199249   2.950   5.667   3.193
65784SOL    HW299250   3.041   5.774   3.138
65785SOL     OW99251   5.872   1.474   6.589
65785SOL    HW199252   5.910   1.486   6.501
65785SOL    HW299253   5.806   1.543   6.596
65786SOL     OW99254   5.448   7.355   5.235
65786SOL    HW199255   5.482   7.384   5.151
65786SOL    HW299256   5.415   7.434   5.277
65787SOL     OW99257  14.631   8.755   0.285
65787SOL    HW199258  14.552   8.808   0.282
65787SOL    HW299259  14.599   8.666   0.303
65788SOL     OW99260   8.885  11.581   3.726
65788SOL    HW199261   8.824  11.530   3.780
65788SOL    HW299262   8.924  11.643   3.787
65789SOL     OW99263   3.674   2.702  14.399
65789SOL    HW199264   3.751   2.750  14.431
65789SOL    HW299265   3.707   2.614  14.381
65790SOL     OW99266   4.121   5.201  13.834
65790SOL    HW199267   4.120   5.165  13.923
65790SOL    HW299268   4.031   5.228  13.818
65791SOL     OW99269   1.051  10.432   4.738
65791SOL    HW199270   1.036  10.520   4.703
65791SOL    HW299271   1.007  10.433   4.823
65792SOL     OW99272  11.481   4.925  11.175
65792SOL    HW199273  11.564   4.958  11.209
65792SOL    HW299274  11.489   4.931  11.080
65793SOL     OW99275   4.019   4.970  10.000
65793SOL    HW199276   3.926   4.953   9.985
65793SOL    HW299277   4.062   4.940   9.920
65794SOL     OW99278   3.999  11.481   6.838
65794SOL    HW199279   4.016  11.494   6.745
65794SOL    HW299280   4.079  11.440   6.871
65795SOL     OW99281   8.597   4.181  12.535
65795SOL    HW199282   8.671   4.124  12.512
65795SOL    HW299283   8.522   4.141  12.492
65796SOL     OW99284   8.612  14.366   8.505
65796SOL    HW199285   8.521  14.344   8.524
65796SOL    HW299286   8.617  14.461   8.519
65797SOL     OW99287  11.887  14.824  10.117
65797SOL    HW199288  11.909  14.731  10.114
65797SOL    HW299289  11.846  14.836  10.203
65798SOL     OW99290  12.423   2.937   3.013
65798SOL    HW199291  12.345   2.972   3.055
65798SOL    HW299292  12.414   2.842   3.020
65799SOL     OW99293  13.368  12.798   7.150
65799SOL    HW199294  13.350  12.815   7.242
65799SOL    HW299295  13.455  12.758   7.149
65800SOL     OW99296   8.823   8.067  13.855
65800SOL    HW199297   8.874   7.998  13.896
65800SOL    HW299298   8.851   8.067  13.763
65801SOL     OW99299   2.009  11.016   5.344
65801SOL    HW199300   1.929  11.068   5.347
65801SOL    HW299301   2.076  11.073   5.383
65802SOL     OW99302   7.838  14.802   3.545
65802SOL    HW199303   7.759  14.777   3.595
65802SOL    HW299304   7.807  14.809   3.455
65803SOL     OW99305   4.882   8.573  11.265
65803SOL    HW199306   4.839   8.488  11.265
65803SOL    HW299307   4.811   8.636  11.277
65804SOL     OW99308   1.252   8.204   8.977
65804SOL    HW199309   1.163   8.173   8.958
65804SOL    HW299310   1.303   8.178   8.900
65805SOL     OW99311  11.985   7.827   4.525
65805SOL    HW199312  12.074   7.800   4.503
65805SOL    HW299313  11.929   7.763   4.480
65806SOL     OW99314  12.372   8.894   2.429
65806SOL    HW199315  12.364   8.928   2.519
65806SOL    HW299316  12.460   8.857   2.425
65807SOL     OW99317  10.601   2.598   9.192
65807SOL    HW199318  10.632   2.525   9.246
65807SOL    HW299319  10.611   2.675   9.248
65808SOL     OW99320   0.630   6.950  13.737
65808SOL    HW199321   0.624   6.904  13.653
65808SOL    HW299322   0.541   6.946  13.773
65809SOL     OW99323   2.824  12.135   4.904
65809SOL    HW199324   2.802  12.157   4.994
65809SOL    HW299325   2.913  12.100   4.909
65810SOL     OW99326   2.959  13.739   3.208
65810SOL    HW199327   2.974  13.652   3.172
65810SOL    HW299328   3.046  13.769   3.236
65811SOL     OW99329  10.827   8.331   2.959
65811SOL    HW199330  10.773   8.265   3.002
65811SOL    HW299331  10.911   8.287   2.943
65812SOL     OW99332   2.082   6.874   7.772
65812SOL    HW199333   2.076   6.969   7.783
65812SOL    HW299334   2.168   6.852   7.807
65813SOL     OW99335  11.821   7.105   4.660
65813SOL    HW199336  11.733   7.071   4.643
65813SOL    HW299337  11.829   7.105   4.755
65814SOL     OW99338   5.988  14.370  10.970
65814SOL    HW199339   5.927  14.317  10.917
65814SOL    HW299340   5.935  14.443  11.001
65815SOL     OW99341   3.627   3.002   2.390
65815SOL    HW199342   3.537   2.983   2.365
65815SOL    HW299343   3.674   3.014   2.308
65816SOL     OW99344   8.472   8.565  12.654
65816SOL    HW199345   8.491   8.478  12.617
65816SOL    HW299346   8.377   8.573  12.646
65817SOL     OW99347   7.418   3.520   7.187
65817SOL    HW199348   7.332   3.482   7.201
65817SOL    HW299349   7.432   3.517   7.093
65818SOL     OW99350   3.459   9.160  14.564
65818SOL    HW199351   3.398   9.232  14.551
65818SOL    HW299352   3.471   9.122  14.477
65819SOL     OW99353   2.334   0.818   4.152
65819SOL    HW199354   2.427   0.822   4.170
65819SOL    HW299355   2.327   0.765   4.073
65820SOL     OW99356  13.729  10.631   2.057
65820SOL    HW199357  13.665  10.573   2.016
65820SOL    HW299358  13.779  10.573   2.115
65821SOL     OW99359   1.011   6.356  11.340
65821SOL    HW199360   0.916   6.359  11.334
65821SOL    HW299361   1.030   6.267  11.372
65822SOL     OW99362   7.784  10.498   4.509
65822SOL    HW199363   7.763  10.405   4.519
65822SOL    HW299364   7.855  10.514   4.572
65823SOL     OW99365   1.911   1.474   7.068
65823SOL    HW199366   1.968   1.400   7.048
65823SOL    HW299367   1.893   1.466   7.162
65824SOL     OW99368   3.715   8.800   2.223
65824SOL    HW199369   3.741   8.808   2.315
65824SOL    HW299370   3.722   8.707   2.204
65825SOL     OW99371  13.232  10.675   4.192
65825SOL    HW199372  13.170  10.626   4.137
65825SOL    HW299373  13.264  10.610   4.256
65826SOL     OW99374   3.463  13.931   6.830
65826SOL    HW199375   3.511  13.992   6.774
65826SOL    HW299376   3.380  13.916   6.784
65827SOL     OW99377   8.529  13.896   2.493
65827SOL    HW199378   8.580  13.825   2.532
65827SOL    HW299379   8.476  13.853   2.425
65828SOL     OW99380  12.729  14.246  13.546
65828SOL    HW199381  12.766  14.323  13.503
65828SOL    HW299382  12.649  14.277  13.587
65829SOL     OW99383  12.806   9.062   6.980
65829SOL    HW199384  12.774   9.152   6.972
65829SOL    HW299385  12.899   9.067   6.960
65830SOL     OW99386   8.607   0.536   8.107
65830SOL    HW199387   8.616   0.484   8.187
65830SOL    HW299388   8.628   0.476   8.036
65831SOL     OW99389   0.692   3.693   7.061
65831SOL    HW199390   0.604   3.665   7.087
65831SOL    HW299391   0.707   3.773   7.110
65832SOL     OW99392  14.603   3.217   9.861
65832SOL    HW199393  14.558   3.288   9.816
65832SOL    HW299394  14.549   3.140   9.843
65833SOL     OW99395  13.684  12.843  13.107
65833SOL    HW199396  13.641  12.923  13.076
65833SOL    HW299397  13.746  12.873  13.173
65834SOL     OW99398   3.041   8.892   8.719
65834SOL    HW199399   3.035   8.842   8.638
65834SOL    HW299400   3.132   8.920   8.724
65835SOL     OW99401   0.966   0.201   1.728
65835SOL    HW199402   0.897   0.143   1.694
65835SOL    HW299403   0.918   0.273   1.769
65836SOL     OW99404   5.821   6.093  12.305
65836SOL    HW199405   5.906   6.137  12.308
65836SOL    HW299406   5.843   6.001  12.294
65837SOL     OW99407   8.405   4.077  14.479
65837SOL    HW199408   8.499   4.062  14.478
65837SOL    HW299409   8.391   4.146  14.415
65838SOL     OW99410   5.576  10.032   9.853
65838SOL    HW199411   5.576   9.943   9.817
65838SOL    HW299412   5.590  10.020   9.947
65839SOL     OW99413   2.391   5.874   4.280
65839SOL    HW199414   2.430   5.801   4.232
65839SOL    HW299415   2.335   5.833   4.345
65840SOL     OW99416   2.716   6.475   2.679
65840SOL    HW199417   2.721   6.570   2.687
65840SOL    HW299418   2.665   6.460   2.599
65841SOL     OW99419   7.034   7.457  10.904
65841SOL    HW199420   7.002   7.499  10.983
65841SOL    HW299421   7.069   7.529  10.851
65842SOL     OW99422   0.882   7.448   6.848
65842SOL    HW199423   0.941   7.384   6.887
65842SOL    HW299424   0.931   7.531   6.852
65843SOL     OW99425   6.516   8.619   3.687
65843SOL    HW199426   6.607   8.597   3.709
65843SOL    HW299427   6.476   8.535   3.666
65844SOL     OW99428   0.023   7.772   2.947
65844SOL    HW199429  14.871   7.819   2.868
65844SOL    HW299430  14.849   7.819   3.017
65845SOL     OW99431   6.715  10.990   1.854
65845SOL    HW199432   6.688  11.082   1.861
65845SOL    HW299433   6.753  10.970   1.939
65846SOL     OW99434  11.549  10.396   2.337
65846SOL    HW199435  11.524  10.315   2.294
65846SOL    HW299436  11.478  10.414   2.399
65847SOL     OW99437  14.302  10.448   1.276
65847SOL    HW199438  14.324  10.493   1.357
65847SOL    HW299439  14.233  10.386   1.301
65848SOL     OW99440  14.800   9.896  13.163
65848SOL    HW199441  14.729   9.905  13.227
65848SOL    HW299442  14.870   9.851  13.211
65849SOL     OW99443   8.824   0.888   0.188
65849SOL    HW199444   8.808   0.982   0.183
65849SOL    HW299445   8.758   0.856   0.249
65850SOL     OW99446  13.216   1.554   0.099
65850SOL    HW199447  13.278   1.605   0.046
65850SOL    HW299448  13.218   1.467   0.059
65851SOL     OW99449   2.805   1.981   2.605
65851SOL    HW199450   2.803   1.893   2.567
65851SOL    HW299451   2.745   2.031   2.550
65852SOL     OW99452   5.617  11.862  14.224
65852SOL    HW199453   5.576  11.778  14.246
65852SOL    HW299454   5.604  11.915  14.303
65853SOL     OW99455   2.180   0.404  10.268
65853SOL    HW199456   2.262   0.437  10.307
65853SOL    HW299457   2.141   0.350  10.337
65854SOL     OW99458   2.100   0.091   4.457
65854SOL    HW199459   2.193   0.072   4.450
65854SOL    HW299460   2.058   0.024   4.404
65855SOL     OW99461   2.669  11.605  13.686
65855SOL    HW199462   2.757  11.598  13.649
65855SOL    HW299463   2.670  11.687  13.736
65856SOL     OW99464   2.606  13.610   7.883
65856SOL    HW199465   2.667  13.540   7.860
65856SOL    HW299466   2.610  13.616   7.979
65857SOL     OW99467   9.725   1.960  11.160
65857SOL    HW199468   9.655   1.979  11.098
65857SOL    HW299469   9.780   2.038  11.159
65858SOL     OW99470   1.410   8.307   3.258
65858SOL    HW199471   1.385   8.386   3.210
65858SOL    HW299472   1.338   8.291   3.318
65859SOL     OW99473   4.860   8.252   7.167
65859SOL    HW199474   4.880   8.261   7.260
65859SOL    HW299475   4.800   8.178   7.162
65860SOL     OW99476  10.758   0.888   9.401
65860SOL    HW199477  10.738   0.813   9.346
65860SOL    HW299478  10.780   0.849   9.486
65861SOL     OW99479  11.004   0.191  14.524
65861SOL    HW199480  11.062   0.126  14.564
65861SOL    HW299481  10.944   0.139  14.470
65862SOL     OW99482   6.108   7.179  10.379
65862SOL    HW199483   6.166   7.145  10.312
65862SOL    HW299484   6.150   7.259  10.410
65863SOL     OW99485   8.831  11.080   5.494
65863SOL    HW199486   8.840  11.066   5.588
65863SOL    HW299487   8.868  11.002   5.454
65864SOL     OW99488   8.147   7.255   5.015
65864SOL    HW199489   8.141   7.174   5.065
65864SOL    HW299490   8.102   7.320   5.070
65865SOL     OW99491   9.567   8.186   6.895
65865SOL    HW199492   9.568   8.279   6.921
65865SOL    HW299493   9.653   8.153   6.919
65866SOL     OW99494   9.777   7.239  11.677
65866SOL    HW199495   9.828   7.162  11.704
65866SOL    HW299496   9.693   7.230  11.722
65867SOL     OW99497  12.223   0.741   4.273
65867SOL    HW199498  12.197   0.814   4.216
65867SOL    HW299499  12.251   0.783   4.354
65868SOL     OW99500   6.594   1.754   9.945
65868SOL    HW199501   6.533   1.682   9.959
65868SOL    HW299502   6.540   1.833   9.953
65869SOL     OW99503  14.054   3.897   9.938
65869SOL    HW199504  14.066   3.804   9.954
65869SOL    HW299505  14.129   3.923   9.885
65870SOL     OW99506  14.343   5.239   1.049
65870SOL    HW199507  14.330   5.322   1.095
65870SOL    HW299508  14.279   5.240   0.979
65871SOL     OW99509  12.216  12.460   3.410
65871SOL    HW199510  12.144  12.397   3.407
65871SOL    HW299511  12.292  12.410   3.439
65872SOL     OW99512   6.932  12.507  11.618
65872SOL    HW199513   6.902  12.472  11.534
65872SOL    HW299514   6.994  12.442  11.650
65873SOL     OW99515  11.007   3.476  13.119
65873SOL    HW199516  10.942   3.525  13.068
65873SOL    HW299517  10.977   3.483  13.209
65874SOL     OW99518   3.353   7.948   3.739
65874SOL    HW199519   3.306   7.981   3.663
65874SOL    HW299520   3.296   7.968   3.813
65875SOL     OW99521  12.350   9.752   2.507
65875SOL    HW199522  12.415   9.714   2.566
65875SOL    HW299523  12.398   9.817   2.456
65876SOL     OW99524   7.854   7.565   7.745
65876SOL    HW199525   7.903   7.505   7.801
65876SOL    HW299526   7.918   7.600   7.684
65877SOL     OW99527  10.100  10.793   5.726
65877SOL    HW199528  10.160  10.765   5.657
65877SOL    HW299529  10.094  10.888   5.715
65878SOL     OW99530   5.055   9.504  13.973
65878SOL    HW199531   5.148   9.485  13.985
65878SOL    HW299532   5.011   9.449  14.038
65879SOL     OW99533   6.683  13.635  12.831
65879SOL    HW199534   6.725  13.634  12.917
65879SOL    HW299535   6.601  13.683  12.844
65880SOL     OW99536   9.884   2.156  12.270
65880SOL    HW199537   9.855   2.226  12.211
65880SOL    HW299538   9.838   2.174  12.352
65881SOL     OW99539   5.942  10.384   4.600
65881SOL    HW199540   5.936  10.289   4.610
65881SOL    HW299541   6.035  10.400   4.584
65882SOL     OW99542   6.176   4.851   5.881
65882SOL    HW199543   6.205   4.766   5.914
65882SOL    HW299544   6.164   4.904   5.960
65883SOL     OW99545   1.485   9.042   1.122
65883SOL    HW199546   1.484   9.051   1.027
65883SOL    HW299547   1.502   9.131   1.154
65884SOL     OW99548   2.973   6.651   1.413
65884SOL    HW199549   2.883   6.644   1.380
65884SOL    HW299550   2.966   6.634   1.507
65885SOL     OW99551   4.406  13.661   0.152
65885SOL    HW199552   4.449  13.682   0.069
65885SOL    HW299553   4.327  13.614   0.126
65886SOL     OW99554   2.639   5.915  10.716
65886SOL    HW199555   2.598   5.969  10.649
65886SOL    HW299556   2.636   5.968  10.796
65887SOL     OW99557   4.336  10.160  14.492
65887SOL    HW199558   4.407  10.150  14.556
65887SOL    HW299559   4.367  10.227  14.432
65888SOL     OW99560  12.110   7.877   3.594
65888SOL    HW199561  12.073   7.794   3.624
65888SOL    HW299562  12.034   7.933   3.579
65889SOL     OW99563   3.265  11.945   0.636
65889SOL    HW199564   3.352  11.909   0.650
65889SOL    HW299565   3.252  12.007   0.708
65890SOL     OW99566   6.127   3.158   9.354
65890SOL    HW199567   6.140   3.070   9.321
65890SOL    HW299568   6.053   3.150   9.415
65891SOL     OW99569   5.163   7.029   0.636
65891SOL    HW199570   5.251   7.003   0.662
65891SOL    HW299571   5.174   7.075   0.554
65892SOL     OW99572   4.389   2.451   6.579
65892SOL    HW199573   4.362   2.381   6.519
65892SOL    HW299574   4.442   2.509   6.526
65893SOL     OW99575  11.641  11.140   7.885
65893SOL    HW199576  11.708  11.197   7.848
65893SOL    HW299577  11.568  11.198   7.907
65894SOL     OW99578   3.666   3.218   1.014
65894SOL    HW199579   3.693   3.177   1.096
65894SOL    HW299580   3.722   3.294   1.004
65895SOL     OW99581  13.266   8.301   4.512
65895SOL    HW199582  13.198   8.287   4.447
65895SOL    HW299583  13.336   8.347   4.465
65896SOL     OW99584   6.094   7.168  11.385
65896SOL    HW199585   6.101   7.149  11.291
65896SOL    HW299586   6.184   7.189  11.411
65897SOL     OW99587  13.906   9.435  12.240
65897SOL    HW199588  13.918   9.479  12.324
65897SOL    HW299589  13.929   9.502  12.175
65898SOL     OW99590   3.411   1.250  11.447
65898SOL    HW199591   3.346   1.246  11.376
65898SOL    HW299592   3.416   1.160  11.479
65899SOL     OW99593  10.788  11.281   9.536
65899SOL    HW199594  10.750  11.199   9.569
65899SOL    HW299595  10.879  11.259   9.517
65900SOL     OW99596   9.358   3.695   8.618
65900SOL    HW199597   9.393   3.769   8.668
65900SOL    HW299598   9.340   3.732   8.531
65901SOL     OW99599   6.445  12.743   8.196
65901SOL    HW199600   6.489  12.685   8.259
65901SOL    HW299601   6.363  12.768   8.239
65902SOL     OW99602   5.136   6.380   8.577
65902SOL    HW199603   5.220   6.370   8.621
65902SOL    HW299604   5.123   6.298   8.530
65903SOL     OW99605  11.555  14.400   1.133
65903SOL    HW199606  11.611  14.326   1.109
65903SOL    HW299607  11.507  14.421   1.052
65904SOL     OW99608   5.105   4.108   6.843
65904SOL    HW199609   5.032   4.132   6.901
65904SOL    HW299610   5.183   4.133   6.891
65905SOL     OW99611   2.182   0.543   6.346
65905SOL    HW199612   2.153   0.493   6.422
65905SOL    HW299613   2.171   0.635   6.371
65906SOL     OW99614  13.371  13.610   3.448
65906SOL    HW199615  13.435  13.559   3.399
65906SOL    HW299616  13.360  13.690   3.397
65907SOL     OW99617   8.984  14.403  14.778
65907SOL    HW199618   9.035  14.431  14.702
65907SOL    HW299619   8.904  14.456  14.774
65908SOL     OW99620   8.298   0.600   0.544
65908SOL    HW199621   8.223   0.542   0.554
65908SOL    HW299622   8.279   0.651   0.464
65909SOL     OW99623  11.200  12.298  10.905
65909SOL    HW199624  11.159  12.312  10.990
65909SOL    HW299625  11.165  12.215  10.874
65910SOL     OW99626   6.356   3.262   8.008
65910SOL    HW199627   6.309   3.197   7.955
65910SOL    HW299628   6.293   3.333   8.021
65911SOL     OW99629   1.103  13.393  10.494
65911SOL    HW199630   1.036  13.356  10.437
65911SOL    HW299631   1.177  13.333  10.486
65912SOL     OW99632   9.265   8.398   5.172
65912SOL    HW199633   9.187   8.384   5.120
65912SOL    HW299634   9.236   8.386   5.263
65913SOL     OW99635  14.379   4.883   0.254
65913SOL    HW199636  14.434   4.961   0.264
65913SOL    HW299637  14.289   4.915   0.260
65914SOL     OW99638  14.793   8.441   3.613
65914SOL    HW199639  14.805   8.371   3.549
65914SOL    HW299640  14.753   8.512   3.563
65915SOL     OW99641   1.399   7.845  11.751
65915SOL    HW199642   1.321   7.888  11.715
65915SOL    HW299643   1.400   7.759  11.709
65916SOL     OW99644  12.004   7.447  13.404
65916SOL    HW199645  12.097   7.471  13.411
65916SOL    HW299646  11.969   7.504  13.335
65917SOL     OW99647   5.616   2.784  13.948
65917SOL    HW199648   5.662   2.853  13.900
65917SOL    HW299649   5.523   2.801  13.932
65918SOL     OW99650   5.213   3.992   6.212
65918SOL    HW199651   5.297   3.955   6.186
65918SOL    HW299652   5.173   4.021   6.130
65919SOL     OW99653  10.941  13.933   4.164
65919SOL    HW199654  10.920  13.984   4.086
65919SOL    HW299655  10.871  13.868   4.170
65920SOL     OW99656   3.870   2.396  10.551
65920SOL    HW199657   3.959   2.379  10.519
65920SOL    HW299658   3.824   2.431  10.474
65921SOL     OW99659   5.240  12.165   0.715
65921SOL    HW199660   5.163  12.208   0.753
65921SOL    HW299661   5.233  12.073   0.743
65922SOL     OW99662   5.564  12.830   7.200
65922SOL    HW199663   5.482  12.805   7.158
65922SOL    HW299664   5.553  12.923   7.222
65923SOL     OW99665  11.231   4.064   4.014
65923SOL    HW199666  11.151   4.101   3.976
65923SOL    HW299667  11.207   3.975   4.039
65924SOL     OW99668  11.182   5.818   3.585
65924SOL    HW199669  11.250   5.805   3.651
65924SOL    HW299670  11.227   5.807   3.501
65925SOL     OW99671   1.674   2.850   3.570
65925SOL    HW199672   1.766   2.843   3.548
65925SOL    HW299673   1.629   2.797   3.504
65926SOL     OW99674  10.862   7.067   7.101
65926SOL    HW199675  10.921   7.005   7.143
65926SOL    HW299676  10.854   7.035   7.011
65927SOL     OW99677   0.307  11.192   2.685
65927SOL    HW199678   0.218  11.162   2.703
65927SOL    HW299679   0.304  11.286   2.703
65928SOL     OW99680   7.366   3.452   9.583
65928SOL    HW199681   7.272   3.461   9.597
65928SOL    HW299682   7.401   3.429   9.668
65929SOL     OW99683   3.721   3.518   4.191
65929SOL    HW199684   3.689   3.461   4.262
65929SOL    HW299685   3.649   3.519   4.127
65930SOL     OW99686   6.285  10.121   6.920
65930SOL    HW199687   6.286  10.216   6.913
65930SOL    HW299688   6.246  10.104   7.006
65931SOL     OW99689   0.638  12.164   6.425
65931SOL    HW199690   0.610  12.232   6.363
65931SOL    HW299691   0.733  12.161   6.416
65932SOL     OW99692   7.720   8.248   1.479
65932SOL    HW199693   7.786   8.317   1.470
65932SOL    HW299694   7.657   8.266   1.409
65933SOL     OW99695  13.314   5.453   7.155
65933SOL    HW199696  13.309   5.359   7.134
65933SOL    HW299697  13.223   5.480   7.163
65934SOL     OW99698  11.421   5.205   7.965
65934SOL    HW199699  11.357   5.274   7.981
65934SOL    HW299700  11.382   5.127   8.004
65935SOL     OW99701   3.513   3.096   2.642
65935SOL    HW199702   3.574   3.079   2.571
65935SOL    HW299703   3.429   3.110   2.598
65936SOL     OW99704   7.921   2.933   9.653
65936SOL    HW199705   7.863   2.982   9.711
65936SOL    HW299706   7.881   2.940   9.566
65937SOL     OW99707   9.225  11.302  12.555
65937SOL    HW199708   9.244  11.395  12.570
65937SOL    HW299709   9.309  11.258  12.568
65938SOL     OW99710   1.079  13.731  13.169
65938SOL    HW199711   1.078  13.788  13.093
65938SOL    HW299712   1.130  13.655  13.141
65939SOL     OW99713   6.372   0.146   1.216
65939SOL    HW199714   6.425   0.151   1.136
65939SOL    HW299715   6.388   0.230   1.260
65940SOL     OW99716   1.682   6.371   6.074
65940SOL    HW199717   1.768   6.404   6.051
65940SOL    HW299718   1.663   6.409   6.160
65941SOL     OW99719  12.533   6.511   0.962
65941SOL    HW199720  12.547   6.460   0.883
65941SOL    HW299721  12.583   6.465   1.030
65942SOL     OW99722  13.857   2.102  14.182
65942SOL    HW199723  13.948   2.120  14.156
65942SOL    HW299724  13.830   2.029  14.128
65943SOL     OW99725  11.061   2.538   5.607
65943SOL    HW199726  11.011   2.615   5.635
65943SOL    HW299727  11.145   2.547   5.651
65944SOL     OW99728   9.701   5.991   6.434
65944SOL    HW199729   9.681   5.951   6.349
65944SOL    HW299730   9.737   6.077   6.412
65945SOL     OW99731   2.684  13.967   5.249
65945SOL    HW199732   2.706  14.048   5.295
65945SOL    HW299733   2.701  13.987   5.157
65946SOL     OW99734  14.677   9.285  11.007
65946SOL    HW199735  14.705   9.374  10.986
65946SOL    HW299736  14.582   9.289  11.009
65947SOL     OW99737   0.390  11.756   5.478
65947SOL    HW199738   0.466  11.780   5.425
65947SOL    HW299739   0.407  11.665   5.503
65948SOL     OW99740   0.155   0.224   1.259
65948SOL    HW199741   0.153   0.199   1.352
65948SOL    HW299742   0.228   0.174   1.223
65949SOL     OW99743   7.573  14.668  11.241
65949SOL    HW199744   7.621  14.586  11.228
65949SOL    HW299745   7.621  14.732  11.189
65950SOL     OW99746  12.029   3.750  10.879
65950SOL    HW199747  12.048   3.678  10.819
65950SOL    HW299748  11.959   3.799  10.837
65951SOL     OW99749   5.086  11.560  14.158
65951SOL    HW199750   5.059  11.650  14.176
65951SOL    HW299751   5.163  11.569  14.102
65952SOL     OW99752  14.593   5.159   5.770
65952SOL    HW199753  14.579   5.252   5.786
65952SOL    HW299754  14.668   5.136   5.825
65953SOL     OW99755   2.866   1.832   1.037
65953SOL    HW199756   2.871   1.917   1.081
65953SOL    HW299757   2.931   1.778   1.082
65954SOL     OW99758  14.191   9.235  13.464
65954SOL    HW199759  14.286   9.247  13.453
65954SOL    HW299760  14.154   9.269  13.383
65955SOL     OW99761  12.938   9.364   5.778
65955SOL    HW199762  12.909   9.454   5.762
65955SOL    HW299763  12.960   9.330   5.691
65956SOL     OW99764   6.320   4.721   3.245
65956SOL    HW199765   6.370   4.644   3.273
65956SOL    HW299766   6.381   4.794   3.256
65957SOL     OW99767   5.928   8.713   7.658
65957SOL    HW199768   5.886   8.648   7.715
65957SOL    HW299769   5.986   8.762   7.716
65958SOL     OW99770  14.300   5.678  10.931
65958SOL    HW199771  14.328   5.644  11.016
65958SOL    HW299772  14.279   5.601  10.880
65959SOL     OW99773  13.749   9.154   5.484
65959SOL    HW199774  13.778   9.069   5.517
65959SOL    HW299775  13.829   9.205   5.473
65960SOL     OW99776   6.753   3.818  14.698
65960SOL    HW199777   6.686   3.850  14.637
65960SOL    HW299778   6.814   3.891  14.707
65961SOL     OW99779   7.932  13.281  11.839
65961SOL    HW199780   8.012  13.269  11.788
65961SOL    HW299781   7.923  13.376  11.847
65962SOL     OW99782   8.592   8.148   9.659
65962SOL    HW199783   8.551   8.234   9.665
65962SOL    HW299784   8.531   8.096   9.607
65963SOL     OW99785  13.448   8.736   0.230
65963SOL    HW199786  13.415   8.790   0.158
65963SOL    HW299787  13.484   8.799   0.292
65964SOL     OW99788   9.515   1.587   2.754
65964SOL    HW199789   9.584   1.571   2.691
65964SOL    HW299790   9.554   1.645   2.819
65965SOL     OW99791  12.105   5.991   5.307
65965SOL    HW199792  12.083   5.950   5.391
65965SOL    HW299793  12.023   6.030   5.277
65966SOL     OW99794   2.629  10.787   6.904
65966SOL    HW199795   2.625  10.858   6.840
65966SOL    HW299796   2.721  10.782   6.930
65967SOL     OW99797   3.705   6.042   3.298
65967SOL    HW199798   3.638   6.034   3.366
65967SOL    HW299799   3.786   6.012   3.340
65968SOL     OW99800   4.653   0.648  12.693
65968SOL    HW199801   4.692   0.711  12.753
65968SOL    HW299802   4.726   0.615  12.641
65969SOL     OW99803  11.298   9.633   6.800
65969SOL    HW199804  11.359   9.705   6.781
65969SOL    HW299805  11.351   9.569   6.847
65970SOL     OW99806   7.958  11.835   8.613
65970SOL    HW199807   7.901  11.758   8.617
65970SOL    HW299808   7.925  11.893   8.682
65971SOL     OW99809   0.408   9.636   2.728
65971SOL    HW199810   0.450   9.632   2.814
65971SOL    HW299811   0.407   9.546   2.698
65972SOL     OW99812  11.856  10.100   2.543
65972SOL    HW199813  11.914  10.120   2.616
65972SOL    HW299814  11.880  10.011   2.517
65973SOL     OW99815   4.014  14.850   6.701
65973SOL    HW199816   3.981  14.771   6.744
65973SOL    HW299817   4.011   0.045   6.770
65974SOL     OW99818   1.746   7.932   7.890
65974SOL    HW199819   1.721   7.873   7.961
65974SOL    HW299820   1.662   7.960   7.852
65975SOL     OW99821  14.628  13.294   1.559
65975SOL    HW199822  14.595  13.312   1.471
65975SOL    HW299823  14.552  13.305   1.616
65976SOL     OW99824   3.664   3.198   6.389
65976SOL    HW199825   3.697   3.190   6.299
65976SOL    HW299826   3.624   3.114   6.408
65977SOL     OW99827  13.536   4.838  14.849
65977SOL    HW199828  13.587   4.844   0.058
65977SOL    HW299829  13.600   4.820  14.781
65978SOL     OW99830   8.230   9.021   7.786
65978SOL    HW199831   8.140   9.013   7.755
65978SOL    HW299832   8.262   9.103   7.749
65979SOL     OW99833   1.618   0.598   1.708
65979SOL    HW199834   1.610   0.507   1.678
65979SOL    HW299835   1.708   0.604   1.740
65980SOL     OW99836   1.453  12.370   1.830
65980SOL    HW199837   1.446  12.327   1.914
65980SOL    HW299838   1.545  12.396   1.823
65981SOL     OW99839   3.982   4.268   2.608
65981SOL    HW199840   3.922   4.339   2.587
65981SOL    HW299841   4.006   4.282   2.699
65982SOL     OW99842   0.818   4.023   6.317
65982SOL    HW199843   0.756   4.052   6.250
65982SOL    HW299844   0.884   4.093   6.320
65983SOL     OW99845   5.763  14.755  11.170
65983SOL    HW199846   5.776  14.661  11.184
65983SOL    HW299847   5.682  14.775  11.216
65984SOL     OW99848   8.903   6.571   8.316
65984SOL    HW199849   8.975   6.536   8.368
65984SOL    HW299850   8.884   6.503   8.252
65985SOL     OW99851   8.024  12.590  11.314
65985SOL    HW199852   7.950  12.644  11.340
65985SOL    HW299853   8.016  12.511  11.368
65986SOL     OW99854   1.038  12.164   4.441
65986SOL    HW199855   1.115  12.163   4.498
65986SOL    HW299856   0.967  12.191   4.499
65987SOL     OW99857   9.747   3.058   9.957
65987SOL    HW199858   9.652   3.067   9.951
65987SOL    HW299859   9.768   2.985   9.898
65988SOL     OW99860   6.761  13.344   9.526
65988SOL    HW199861   6.740  13.267   9.474
65988SOL    HW299862   6.684  13.401   9.518
65989SOL     OW99863   5.799   2.713   0.939
65989SOL    HW199864   5.838   2.714   1.026
65989SOL    HW299865   5.713   2.753   0.950
65990SOL     OW99866  12.108   1.231   4.691
65990SOL    HW199867  12.023   1.204   4.727
65990SOL    HW299868  12.173   1.186   4.744
65991SOL     OW99869   6.950  11.433   2.669
65991SOL    HW199870   6.879  11.454   2.608
65991SOL    HW299871   6.936  11.341   2.691
65992SOL     OW99872  10.925  12.552  14.318
65992SOL    HW199873  10.830  12.548  14.335
65992SOL    HW299874  10.953  12.461  14.320
65993SOL     OW99875   0.613  11.235   2.007
65993SOL    HW199876   0.691  11.268   1.962
65993SOL    HW299877   0.611  11.285   2.089
65994SOL     OW99878   5.692  12.896  10.384
65994SOL    HW199879   5.655  12.927  10.301
65994SOL    HW299880   5.646  12.945  10.451
65995SOL     OW99881  10.146   7.809   1.046
65995SOL    HW199882  10.075   7.868   1.070
65995SOL    HW299883  10.224   7.865   1.046
65996SOL     OW99884  10.818   3.684   2.922
65996SOL    HW199885  10.746   3.693   2.860
65996SOL    HW299886  10.784   3.718   3.005
65997SOL     OW99887   9.866   4.465   7.771
65997SOL    HW199888   9.877   4.560   7.766
65997SOL    HW299889   9.771   4.453   7.770
65998SOL     OW99890   2.747   2.157   9.421
65998SOL    HW199891   2.774   2.124   9.336
65998SOL    HW299892   2.788   2.243   9.428
65999SOL     OW99893   6.633   7.261  12.997
65999SOL    HW199894   6.550   7.309  12.988
65999SOL    HW299895   6.696   7.328  13.023
66000SOL     OW99896   9.777  11.549  10.810
66000SOL    HW199897   9.764  11.487  10.882
66000SOL    HW299898   9.868  11.577  10.820
66001SOL     OW99899  10.073   0.895   2.394
66001SOL    HW199900  10.160   0.936   2.395
66001SOL    HW299901  10.014   0.963   2.425
66002SOL     OW99902   5.233   6.037   8.970
66002SOL    HW199903   5.278   6.115   8.938
66002SOL    HW299904   5.206   6.060   9.059
66003SOL     OW99905  12.533   1.379   8.058
66003SOL    HW199906  12.610   1.334   8.092
66003SOL    HW299907  12.482   1.311   8.015
66004SOL     OW99908   1.468  12.710   9.680
66004SOL    HW199909   1.419  12.634   9.710
66004SOL    HW299910   1.523  12.677   9.608
66005SOL     OW99911  14.746  12.580   3.858
66005SOL    HW199912  14.839  12.581   3.838
66005SOL    HW299913  14.742  12.558   3.951
66006SOL     OW99914  13.845   2.834   6.617
66006SOL    HW199915  13.851   2.871   6.705
66006SOL    HW299916  13.887   2.749   6.624
66007SOL     OW99917  10.987   2.955   9.035
66007SOL    HW199918  11.078   2.930   9.049
66007SOL    HW299919  10.965   2.918   8.949
66008SOL     OW99920   5.668   1.339   9.262
66008SOL    HW199921   5.719   1.388   9.197
66008SOL    HW299922   5.661   1.399   9.337
66009SOL     OW99923   8.161   6.087  13.341
66009SOL    HW199924   8.135   6.130  13.422
66009SOL    HW299925   8.212   6.153  13.294
66010SOL     OW99926   7.572  12.513   2.926
66010SOL    HW199927   7.542  12.549   2.842
66010SOL    HW299928   7.512  12.550   2.991
66011SOL     OW99929   4.336   0.904  11.679
66011SOL    HW199930   4.356   0.975  11.619
66011SOL    HW299931   4.398   0.915  11.751
66012SOL     OW99932   4.754  11.273  12.917
66012SOL    HW199933   4.782  11.334  12.984
66012SOL    HW299934   4.796  11.303  12.837
66013SOL     OW99935   8.494  10.064   0.696
66013SOL    HW199936   8.414  10.038   0.650
66013SOL    HW299937   8.488  10.020   0.780
66014SOL     OW99938   2.389   3.916   3.390
66014SOL    HW199939   2.377   3.892   3.298
66014SOL    HW299940   2.400   4.011   3.388
66015SOL     OW99941   6.377   9.040   7.477
66015SOL    HW199942   6.333   9.081   7.551
66015SOL    HW299943   6.306   9.016   7.418
66016SOL     OW99944  13.924  10.964   1.794
66016SOL    HW199945  13.864  10.941   1.723
66016SOL    HW299946  13.995  10.899   1.787
66017SOL     OW99947   0.019   3.498   3.506
66017SOL    HW199948  14.857   3.587   3.503
66017SOL    HW299949   0.047   3.479   3.416
66018SOL     OW99950   2.047  11.064   7.952
66018SOL    HW199951   2.047  11.138   7.890
66018SOL    HW299952   2.101  11.095   8.025
66019SOL     OW99953   9.337   2.508  13.286
66019SOL    HW199954   9.301   2.421  13.304
66019SOL    HW299955   9.371   2.538  13.371
66020SOL     OW99956  14.446  10.501  11.084
66020SOL    HW199957  14.373  10.440  11.080
66020SOL    HW299958  14.522  10.446  11.100
66021SOL     OW99959  12.368  10.471   5.850
66021SOL    HW199960  12.341  10.562   5.848
66021SOL    HW299961  12.287  10.422   5.865
66022SOL     OW99962   3.784   1.823   4.214
66022SOL    HW199963   3.855   1.798   4.273
66022SOL    HW299964   3.827   1.875   4.146
66023SOL     OW99965   0.980  14.526   7.432
66023SOL    HW199966   0.953  14.435   7.422
66023SOL    HW299967   0.989  14.558   7.343
66024SOL     OW99968  10.845  12.415  11.570
66024SOL    HW199969  10.846  12.423  11.474
66024SOL    HW299970  10.849  12.320  11.586
66025SOL     OW99971   4.053  12.795  13.230
66025SOL    HW199972   4.032  12.824  13.319
66025SOL    HW299973   3.971  12.757  13.197
66026SOL     OW99974  12.446   9.900  11.434
66026SOL    HW199975  12.511   9.928  11.369
66026SOL    HW299976  12.363   9.897  11.386
66027SOL     OW99977   4.642   6.275  14.516
66027SOL    HW199978   4.633   6.349  14.456
66027SOL    HW299979   4.692   6.210  14.467
66028SOL     OW99980   8.169   0.509  10.254
66028SOL    HW199981   8.076   0.497  10.236
66028SOL    HW299982   8.171   0.570  10.328
66029SOL     OW99983   8.005   2.313  13.449
66029SOL    HW199984   8.067   2.355  13.509
66029SOL    HW299985   8.060   2.285  13.375
66030SOL     OW99986   4.991  14.032   6.931
66030SOL    HW199987   4.911  14.084   6.923
66030SOL    HW299988   4.981  13.986   7.014
66031SOL     OW99989   7.902   3.276   4.266
66031SOL    HW199990   7.894   3.322   4.350
66031SOL    HW299991   7.908   3.184   4.290
66032SOL     OW99992  11.108   6.743   3.614
66032SOL    HW199993  11.024   6.746   3.660
66032SOL    HW299994  11.152   6.825   3.638
66033SOL     OW99995   9.511  10.566   8.386
66033SOL    HW199996   9.449  10.571   8.314
66033SOL    HW299997   9.461  10.594   8.463
66034SOL     OW99998   1.264   3.493   3.143
66034SOL    HW199999   1.243   3.457   3.057
66034SOL    HW2    0   1.185   3.479   3.194
66035SOL     OW    1   9.668   8.977   8.617
66035SOL    HW1    2   9.617   9.052   8.586
66035SOL    HW2    3   9.754   9.014   8.638
66036SOL     OW    4   8.208   7.731  13.884
66036SOL    HW1    5   8.146   7.666  13.852
66036SOL    HW2    6   8.286   7.681  13.907
66037SOL     OW    7   2.891   3.805   6.630
66037SOL    HW1    8   2.857   3.838   6.713
66037SOL    HW2    9   2.954   3.738   6.654
66038SOL     OW   10   9.281   9.927   7.832
66038SOL    HW1   11   9.277   9.835   7.808
66038SOL    HW2   12   9.201   9.965   7.796
66039SOL     OW   13   1.258   9.490  11.545
66039SOL    HW1   14   1.263   9.583  11.567
66039SOL    HW2   15   1.350   9.460  11.546
66040SOL     OW   16   6.921   1.321   4.309
66040SOL    HW1   17   6.885   1.359   4.229
66040SOL    HW2   18   6.860   1.347   4.378
66041SOL     OW   19   6.066   4.736   2.766
66041SOL    HW1   20   6.070   4.643   2.788
66041SOL    HW2   21   6.068   4.781   2.851
66042SOL     OW   22   8.489  11.527   3.399
66042SOL    HW1   23   8.555  11.553   3.335
66042SOL    HW2   24   8.435  11.462   3.353
66043SOL     OW   25  13.147   0.379   4.408
66043SOL    HW1   26  13.188   0.292   4.412
66043SOL    HW2   27  13.199   0.433   4.468
66044SOL     OW   28   4.346   9.742   4.851
66044SOL    HW1   29   4.349   9.725   4.757
66044SOL    HW2   30   4.261   9.708   4.879
66045SOL     OW   31  11.289  10.207   9.446
66045SOL    HW1   32  11.263  10.299   9.456
66045SOL    HW2   33  11.384  10.210   9.434
66046SOL     OW   34  12.398  11.927  11.404
66046SOL    HW1   35  12.490  11.903  11.411
66046SOL    HW2   36  12.361  11.862  11.344
66047SOL     OW   37   9.147   3.113  11.190
66047SOL    HW1   38   9.075   3.156  11.143
66047SOL    HW2   39   9.157   3.165  11.270
66048SOL     OW   40   6.251   5.769  13.456
66048SOL    HW1   41   6.277   5.809  13.373
66048SOL    HW2   42   6.156   5.759  13.449
66049SOL     OW   43  10.235  10.318   2.149
66049SOL    HW1   44  10.276  10.370   2.219
66049SOL    HW2   45  10.248  10.369   2.070
66050SOL     OW   46   9.822  12.046   5.336
66050SOL    HW1   47   9.780  12.043   5.250
66050SOL    HW2   48   9.763  11.997   5.393
66051SOL     OW   49   4.621  10.275   6.693
66051SOL    HW1   50   4.550  10.306   6.749
66051SOL    HW2   51   4.677  10.223   6.751
66052SOL     OW   52   3.737   6.010   5.193
66052SOL    HW1   53   3.810   5.949   5.201
66052SOL    HW2   54   3.754   6.078   5.257
66053SOL     OW   55   4.316   4.050   5.817
66053SOL    HW1   56   4.371   4.116   5.858
66053SOL    HW2   57   4.358   3.967   5.837
66054SOL     OW   58   8.506   6.581   4.921
66054SOL    HW1   59   8.473   6.567   4.832
66054SOL    HW2   60   8.555   6.663   4.916
66055SOL     OW   61   5.253   1.339  12.451
66055SOL    HW1   62   5.276   1.309  12.540
66055SOL    HW2   63   5.259   1.259  12.398
66056SOL     OW   64  10.575   7.851   8.516
66056SOL    HW1   65  10.480   7.848   8.519
66056SOL    HW2   66  10.602   7.845   8.608
66057SOL     OW   67  10.247   1.380  11.910
66057SOL    HW1   68  10.161   1.422  11.913
66057SOL    HW2   69  10.237   1.301  11.963
66058SOL     OW   70   4.041   2.929  13.238
66058SOL    HW1   71   3.953   2.892  13.226
66058SOL    HW2   72   4.026   3.010  13.288
66059SOL     OW   73  12.844  11.738  13.048
66059SOL    HW1   74  12.762  11.691  13.031
66059SOL    HW2   75  12.906  11.701  12.985
66060SOL     OW   76   7.297  10.827  14.090
66060SOL    HW1   77   7.276  10.744  14.049
66060SOL    HW2   78   7.311  10.806  14.182
66061SOL     OW   79   9.420   5.594  11.811
66061SOL    HW1   80   9.442   5.686  11.796
66061SOL    HW2   81   9.476   5.568  11.884
66062SOL     OW   82   2.704  13.727   7.375
66062SOL    HW1   83   2.726  13.819   7.363
66062SOL    HW2   84   2.671  13.721   7.464
66063SOL     OW   85  10.629  11.565   9.718
66063SOL    HW1   86  10.641  11.514   9.638
66063SOL    HW2   87  10.601  11.501   9.783
66064SOL     OW   88   4.294   3.498   3.013
66064SOL    HW1   89   4.389   3.485   3.022
66064SOL    HW2   90   4.256   3.452   3.088
66065SOL     OW   91   8.620   3.337   1.734
66065SOL    HW1   92   8.597   3.430   1.737
66065SOL    HW2   93   8.539   3.292   1.758
66066SOL     OW   94  10.281   8.996   6.377
66066SOL    HW1   95  10.347   8.985   6.308
66066SOL    HW2   96  10.290   9.088   6.404
66067SOL     OW   97  11.795  12.559   4.335
66067SOL    HW1   98  11.785  12.650   4.363
66067SOL    HW2   99  11.762  12.558   4.245
66068SOL     OW  100   9.929  11.945  11.228
66068SOL    HW1  101   9.879  11.863  11.222
66068SOL    HW2  102   9.874  12.003  11.280
66069SOL     OW  103   3.048   8.522   6.678
66069SOL    HW1  104   3.018   8.448   6.730
66069SOL    HW2  105   3.015   8.505   6.589
66070SOL     OW  106  12.306   6.291   8.616
66070SOL    HW1  107  12.273   6.352   8.550
66070SOL    HW2  108  12.391   6.262   8.582
66071SOL     OW  109  14.848   5.569   5.834
66071SOL    HW1  110   0.059   5.558   5.880
66071SOL    HW2  111  14.841   5.664   5.820
66072SOL     OW  112   8.263  11.815   5.258
66072SOL    HW1  113   8.287  11.758   5.185
66072SOL    HW2  114   8.168  11.806   5.265
66073SOL     OW  115  13.439   6.777   6.594
66073SOL    HW1  116  13.522   6.779   6.642
66073SOL    HW2  117  13.401   6.863   6.610
66074SOL     OW  118  12.122   8.306  10.673
66074SOL    HW1  119  12.044   8.257  10.648
66074SOL    HW2  120  12.156   8.260  10.749
66075SOL     OW  121   3.878   9.656   1.081
66075SOL    HW1  122   3.959   9.609   1.064
66075SOL    HW2  123   3.855   9.694   0.997
66076SOL     OW  124  11.715   6.154   5.510
66076SOL    HW1  125  11.771   6.163   5.433
66076SOL    HW2  126  11.772   6.120   5.578
66077SOL     OW  127   6.630  14.416   0.036
66077SOL    HW1  128   6.691  14.382  14.842
66077SOL    HW2  129   6.614  14.506   0.010
66078SOL     OW  130   9.877   3.517  11.380
66078SOL    HW1  131   9.940   3.461  11.425
66078SOL    HW2  132   9.837   3.569  11.449
66079SOL     OW  133  11.180   6.301   5.350
66079SOL    HW1  134  11.158   6.242   5.422
66079SOL    HW2  135  11.110   6.366   5.350
66080SOL     OW  136   8.166  10.027   1.658
66080SOL    HW1  137   8.146  10.040   1.566
66080SOL    HW2  138   8.182   9.933   1.666
66081SOL     OW  139  14.273  14.259  12.116
66081SOL    HW1  140  14.204  14.266  12.049
66081SOL    HW2  141  14.352  14.286  12.070
66082SOL     OW  142   3.566   1.180   5.096
66082SOL    HW1  143   3.644   1.232   5.076
66082SOL    HW2  144   3.574   1.102   5.042
66083SOL     OW  145  12.367  13.658   6.241
66083SOL    HW1  146  12.326  13.593   6.184
66083SOL    HW2  147  12.304  13.672   6.311
66084SOL     OW  148   5.112   4.526   4.370
66084SOL    HW1  149   5.096   4.463   4.441
66084SOL    HW2  150   5.155   4.600   4.413
66085SOL     OW  151   1.735   2.847   9.285
66085SOL    HW1  152   1.692   2.933   9.280
66085SOL    HW2  153   1.690   2.794   9.219
66086SOL     OW  154   8.063   3.378   7.776
66086SOL    HW1  155   7.975   3.360   7.809
66086SOL    HW2  156   8.109   3.417   7.850
66087SOL     OW  157   9.721   7.036   7.952
66087SOL    HW1  158   9.632   7.047   7.920
66087SOL    HW2  159   9.713   6.976   8.026
66088SOL     OW  160   7.635   7.746   9.476
66088SOL    HW1  161   7.686   7.767   9.397
66088SOL    HW2  162   7.644   7.824   9.531
66089SOL     OW  163   8.351   8.385   6.330
66089SOL    HW1  164   8.389   8.298   6.341
66089SOL    HW2  165   8.256   8.371   6.331
66090SOL     OW  166  13.697   9.157   3.575
66090SOL    HW1  167  13.627   9.136   3.513
66090SOL    HW2  168  13.668   9.239   3.616
66091SOL     OW  169   3.390   8.225  14.437
66091SOL    HW1  170   3.443   8.277  14.497
66091SOL    HW2  171   3.454   8.185  14.377
66092SOL     OW  172   8.309  13.769  12.178
66092SOL    HW1  173   8.324  13.791  12.270
66092SOL    HW2  174   8.307  13.673  12.176
66093SOL     OW  175   6.855   8.179  10.485
66093SOL    HW1  176   6.789   8.124  10.528
66093SOL    HW2  177   6.822   8.268  10.494
66094SOL     OW  178  11.532   9.316   9.622
66094SOL    HW1  179  11.561   9.408   9.620
66094SOL    HW2  180  11.448   9.316   9.578
66095SOL     OW  181   8.684   6.353   3.195
66095SOL    HW1  182   8.752   6.287   3.182
66095SOL    HW2  183   8.619   6.311   3.252
66096SOL     OW  184   0.712  14.524  14.260
66096SOL    HW1  185   0.707  14.583  14.335
66096SOL    HW2  186   0.631  14.540  14.211
66097SOL     OW  187   2.421   7.639   1.014
66097SOL    HW1  188   2.497   7.582   1.021
66097SOL    HW2  189   2.452   7.714   0.962
66098SOL     OW  190   0.323   2.194  11.708
66098SOL    HW1  191   0.312   2.262  11.774
66098SOL    HW2  192   0.385   2.133  11.747
66099SOL     OW  193   6.975  13.654  10.588
66099SOL    HW1  194   6.937  13.742  10.582
66099SOL    HW2  195   7.041  13.652  10.519
66100SOL     OW  196   1.528  12.887   0.131
66100SOL    HW1  197   1.568  12.959   0.083
66100SOL    HW2  198   1.589  12.869   0.203
66101SOL     OW  199   3.258   8.602   4.301
66101SOL    HW1  200   3.182   8.621   4.245
66101SOL    HW2  201   3.303   8.686   4.309
66102SOL     OW  202   7.138   2.979   9.538
66102SOL    HW1  203   7.106   3.058   9.495
66102SOL    HW2  204   7.226   3.002   9.569
66103SOL     OW  205   5.854   6.271  14.292
66103SOL    HW1  206   5.875   6.364  14.295
66103SOL    HW2  207   5.938   6.226  14.299
66104SOL     OW  208  11.055  13.176   6.136
66104SOL    HW1  209  10.993  13.208   6.072
66104SOL    HW2  210  11.082  13.254   6.185
66105SOL     OW  211  13.524   0.285   2.107
66105SOL    HW1  212  13.476   0.228   2.046
66105SOL    HW2  213  13.615   0.256   2.099
66106SOL     OW  214  13.146   7.831  13.844
66106SOL    HW1  215  13.090   7.770  13.891
66106SOL    HW2  216  13.136   7.807  13.752
66107SOL     OW  217  11.453   4.103   1.740
66107SOL    HW1  218  11.499   4.076   1.820
66107SOL    HW2  219  11.519   4.152   1.691
66108SOL     OW  220   9.221   1.964  12.360
66108SOL    HW1  221   9.205   2.052  12.326
66108SOL    HW2  222   9.195   1.905  12.289
66109SOL     OW  223  12.740   2.612   1.581
66109SOL    HW1  224  12.753   2.664   1.660
66109SOL    HW2  225  12.794   2.535   1.594
66110SOL     OW  226   0.603   8.107   2.091
66110SOL    HW1  227   0.650   8.025   2.075
66110SOL    HW2  228   0.666   8.162   2.137
66111SOL     OW  229  13.808   4.171   8.635
66111SOL    HW1  230  13.799   4.246   8.694
66111SOL    HW2  231  13.723   4.163   8.593
66112SOL     OW  232  11.419   7.442   6.685
66112SOL    HW1  233  11.365   7.461   6.609
66112SOL    HW2  234  11.410   7.348   6.698
66113SOL     OW  235   0.321   0.799   4.308
66113SOL    HW1  236   0.297   0.861   4.376
66113SOL    HW2  237   0.350   0.854   4.235
66114SOL     OW  238  12.245  10.291   6.797
66114SOL    HW1  239  12.319  10.305   6.856
66114SOL    HW2  240  12.283  10.290   6.710
66115SOL     OW  241   1.866  11.789   0.400
66115SOL    HW1  242   1.826  11.703   0.412
66115SOL    HW2  243   1.864  11.803   0.305
66116SOL     OW  244  13.472  10.005   7.411
66116SOL    HW1  245  13.430   9.926   7.376
66116SOL    HW2  246  13.403  10.072   7.410
66117SOL     OW  247   8.643  13.769  12.146
66117SOL    HW1  248   8.582  13.734  12.081
66117SOL    HW2  249   8.605  13.742  12.230
66118SOL     OW  250   3.004   9.045   1.829
66118SOL    HW1  251   2.970   9.091   1.753
66118SOL    HW2  252   2.999   8.952   1.806
66119SOL     OW  253   7.273   0.419  12.371
66119SOL    HW1  254   7.335   0.360  12.415
66119SOL    HW2  255   7.256   0.377  12.287
66120SOL     OW  256   2.472  11.121   3.649
66120SOL    HW1  257   2.436  11.126   3.738
66120SOL    HW2  258   2.539  11.053   3.654
66121SOL     OW  259   3.741  10.869   4.315
66121SOL    HW1  260   3.656  10.888   4.354
66121SOL    HW2  261   3.721  10.827   4.231
66122SOL     OW  262   0.120   0.611  10.761
66122SOL    HW1  263   0.202   0.638  10.720
66122SOL    HW2  264   0.072   0.692  10.774
66123SOL     OW  265   4.803   4.472  11.844
66123SOL    HW1  266   4.890   4.508  11.827
66123SOL    HW2  267   4.767   4.528  11.912
66124SOL     OW  268  14.697  14.429   7.913
66124SOL    HW1  269  14.648  14.371   7.855
66124SOL    HW2  270  14.775  14.379   7.937
66125SOL     OW  271  13.986  14.385  10.182
66125SOL    HW1  272  14.007  14.478  10.177
66125SOL    HW2  273  14.070  14.342  10.196
66126SOL     OW  274   7.673  13.633   6.227
66126SOL    HW1  275   7.681  13.538   6.227
66126SOL    HW2  276   7.634  13.655   6.311
66127SOL     OW  277  13.272   2.111  14.602
66127SOL    HW1  278  13.358   2.122  14.561
66127SOL    HW2  279  13.276   2.169  14.679
66128SOL     OW  280   5.927   7.176  10.630
66128SOL    HW1  281   5.916   7.201  10.538
66128SOL    HW2  282   5.840   7.191  10.669
66129SOL     OW  283  12.677   8.018   6.412
66129SOL    HW1  284  12.663   7.923   6.402
66129SOL    HW2  285  12.767   8.032   6.385
66130SOL     OW  286   6.193  13.313   2.513
66130SOL    HW1  287   6.146  13.276   2.439
66130SOL    HW2  288   6.150  13.277   2.590
66131SOL     OW  289  11.777  12.737   0.585
66131SOL    HW1  290  11.825  12.819   0.597
66131SOL    HW2  291  11.761  12.732   0.491
66132SOL     OW  292  10.451   2.769  14.247
66132SOL    HW1  293  10.378   2.763  14.308
66132SOL    HW2  294  10.459   2.681  14.210
66133SOL     OW  295   5.197  11.556   9.264
66133SOL    HW1  296   5.240  11.547   9.349
66133SOL    HW2  297   5.228  11.640   9.230
66134SOL     OW  298   6.773   9.939   5.785
66134SOL    HW1  299   6.773  10.034   5.778
66134SOL    HW2  300   6.765   9.908   5.695
66135SOL     OW  301   8.054   8.651  13.201
66135SOL    HW1  302   8.067   8.745  13.187
66135SOL    HW2  303   8.046   8.642  13.296
66136SOL     OW  304   2.361   9.206  12.340
66136SOL    HW1  305   2.277   9.190  12.297
66136SOL    HW2  306   2.344   9.280  12.399
66137SOL     OW  307   2.258  14.609   5.611
66137SOL    HW1  308   2.196  14.657   5.666
66137SOL    HW2  309   2.242  14.517   5.631
66138SOL     OW  310   4.788   4.651  12.768
66138SOL    HW1  311   4.792   4.692  12.854
66138SOL    HW2  312   4.814   4.560  12.783
66139SOL     OW  313   0.498   8.258   4.836
66139SOL    HW1  314   0.523   8.351   4.838
66139SOL    HW2  315   0.520   8.230   4.747
66140SOL     OW  316   8.473   9.091   0.460
66140SOL    HW1  317   8.454   9.148   0.535
66140SOL    HW2  318   8.456   9.003   0.492
66141SOL     OW  319   6.712   8.644  12.479
66141SOL    HW1  320   6.704   8.577  12.547
66141SOL    HW2  321   6.796   8.686  12.496
66142SOL     OW  322   1.792  13.970  12.755
66142SOL    HW1  323   1.875  13.986  12.710
66142SOL    HW2  324   1.796  13.877  12.779
66143SOL     OW  325  12.909   0.567   9.254
66143SOL    HW1  326  12.955   0.546   9.172
66143SOL    HW2  327  12.936   0.498   9.314
66144SOL     OW  328   7.912   6.573   3.045
66144SOL    HW1  329   7.876   6.576   3.134
66144SOL    HW2  330   7.950   6.661   3.032
66145SOL     OW  331  13.349   1.003   6.405
66145SOL    HW1  332  13.344   1.010   6.500
66145SOL    HW2  333  13.293   1.074   6.373
66146SOL     OW  334  12.713  10.914   8.436
66146SOL    HW1  335  12.763  10.960   8.504
66146SOL    HW2  336  12.632  10.888   8.480
66147SOL     OW  337  12.172   7.533   3.712
66147SOL    HW1  338  12.251   7.548   3.660
66147SOL    HW2  339  12.102   7.577   3.662
66148SOL     OW  340   3.344   3.095   2.162
66148SOL    HW1  341   3.418   3.154   2.148
66148SOL    HW2  342   3.378   3.008   2.143
66149SOL     OW  343  14.719   6.113  13.909
66149SOL    HW1  344  14.756   6.088  13.994
66149SOL    HW2  345  14.769   6.190  13.883
66150SOL     OW  346  10.692   7.113   4.162
66150SOL    HW1  347  10.732   7.033   4.196
66150SOL    HW2  348  10.621   7.131   4.224
66151SOL     OW  349   9.105  11.630   3.372
66151SOL    HW1  350   9.164  11.555   3.385
66151SOL    HW2  351   9.019  11.596   3.394
66152SOL     OW  352   6.285   0.230   8.287
66152SOL    HW1  353   6.225   0.278   8.229
66152SOL    HW2  354   6.228   0.182   8.346
66153SOL     OW  355   6.965  14.531  13.593
66153SOL    HW1  356   6.878  14.532  13.632
66153SOL    HW2  357   6.980  14.621  13.564
66154SOL     OW  358   5.765   9.750   5.295
66154SOL    HW1  359   5.707   9.758   5.219
66154SOL    HW2  360   5.726   9.680   5.348
66155SOL     OW  361  11.153  13.235   4.797
66155SOL    HW1  362  11.229  13.188   4.832
66155SOL    HW2  363  11.089  13.167   4.777
66156SOL     OW  364   9.718   8.449   4.381
66156SOL    HW1  365   9.737   8.356   4.397
66156SOL    HW2  366   9.768   8.495   4.448
66157SOL     OW  367   2.421   2.349   4.101
66157SOL    HW1  368   2.420   2.388   4.013
66157SOL    HW2  369   2.392   2.420   4.158
66158SOL     OW  370   8.971   2.884   5.180
66158SOL    HW1  371   8.893   2.900   5.233
66158SOL    HW2  372   8.958   2.939   5.103
66159SOL     OW  373   1.716   8.632   2.369
66159SOL    HW1  374   1.810   8.636   2.386
66159SOL    HW2  375   1.690   8.544   2.397
66160SOL     OW  376   6.560  12.221   0.234
66160SOL    HW1  377   6.578  12.314   0.247
66160SOL    HW2  378   6.467  12.212   0.252
66161SOL     OW  379   0.845  13.297   7.824
66161SOL    HW1  380   0.933  13.312   7.859
66161SOL    HW2  381   0.842  13.204   7.805
66162SOL     OW  382   3.434   4.640   9.694
66162SOL    HW1  383   3.366   4.624   9.630
66162SOL    HW2  384   3.388   4.672   9.772
66163SOL     OW  385  14.168  14.168   0.182
66163SOL    HW1  386  14.180  14.255   0.144
66163SOL    HW2  387  14.080  14.170   0.219
66164SOL     OW  388   7.670   3.291   7.797
66164SOL    HW1  389   7.673   3.267   7.704
66164SOL    HW2  390   7.592   3.246   7.830
66165SOL     OW  391   0.617  13.340   6.303
66165SOL    HW1  392   0.526  13.368   6.293
66165SOL    HW2  393   0.614  13.245   6.291
66166SOL     OW  394   2.717   1.884  10.125
66166SOL    HW1  395   2.691   1.802  10.166
66166SOL    HW2  396   2.701   1.871  10.031
66167SOL     OW  397  11.914  13.076   9.861
66167SOL    HW1  398  11.966  13.089   9.940
66167SOL    HW2  399  11.837  13.028   9.890
66168SOL     OW  400   1.339   8.548   3.086
66168SOL    HW1  401   1.247   8.569   3.071
66168SOL    HW2  402   1.373   8.624   3.134
66169SOL     OW  403  14.820  12.725   5.543
66169SOL    HW1  404  14.748  12.666   5.519
66169SOL    HW2  405  14.801  12.806   5.496
66170SOL     OW  406  11.767  12.678  13.758
66170SOL    HW1  407  11.855  12.648  13.781
66170SOL    HW2  408  11.773  12.698  13.664
66171SOL     OW  409  13.813  14.547   7.435
66171SOL    HW1  410  13.752  14.619   7.421
66171SOL    HW2  411  13.784  14.478   7.375
66172SOL     OW  412   4.071   8.593   7.334
66172SOL    HW1  413   4.044   8.509   7.369
66172SOL    HW2  414   4.165   8.584   7.317
66173SOL     OW  415   3.475   4.677  11.654
66173SOL    HW1  416   3.456   4.613  11.585
66173SOL    HW2  417   3.405   4.666  11.718
66174SOL     OW  418   6.946   6.410   9.139
66174SOL    HW1  419   7.008   6.384   9.070
66174SOL    HW2  420   6.999   6.459   9.201
66175SOL     OW  421  14.383  11.935   8.742
66175SOL    HW1  422  14.419  11.974   8.821
66175SOL    HW2  423  14.381  11.841   8.760
66176SOL     OW  424  11.710   4.894  14.029
66176SOL    HW1  425  11.635   4.904  13.969
66176SOL    HW2  426  11.779   4.855  13.974
66177SOL     OW  427   5.087   1.783   4.871
66177SOL    HW1  428   5.146   1.857   4.857
66177SOL    HW2  429   5.071   1.782   4.965
66178SOL     OW  430   1.299  14.336   1.706
66178SOL    HW1  431   1.236  14.396   1.745
66178SOL    HW2  432   1.327  14.379   1.625
66179SOL     OW  433   2.107   1.101  10.533
66179SOL    HW1  434   2.193   1.130  10.564
66179SOL    HW2  435   2.119   1.085  10.440
66180SOL     OW  436   1.793  10.323   0.844
66180SOL    HW1  437   1.784  10.295   0.935
66180SOL    HW2  438   1.882  10.296   0.819
66181SOL     OW  439  11.868  13.825  12.408
66181SOL    HW1  440  11.833  13.912  12.388
66181SOL    HW2  441  11.841  13.808  12.499
66182SOL     OW  442   4.964   0.846   0.052
66182SOL    HW1  443   5.022   0.922   0.048
66182SOL    HW2  444   4.884   0.879   0.093
66183SOL     OW  445  13.630   8.342   1.947
66183SOL    HW1  446  13.677   8.374   2.025
66183SOL    HW2  447  13.540   8.329   1.978
66184SOL     OW  448   1.655   5.575   2.869
66184SOL    HW1  449   1.577   5.551   2.817
66184SOL    HW2  450   1.724   5.589   2.804
66185SOL     OW  451  13.790   0.532  13.137
66185SOL    HW1  452  13.832   0.618  13.131
66185SOL    HW2  453  13.720   0.544  13.202
66186SOL     OW  454   9.444  13.383  12.527
66186SOL    HW1  455   9.366  13.377  12.471
66186SOL    HW2  456   9.484  13.466  12.503
66187SOL     OW  457   1.993   4.860   9.773
66187SOL    HW1  458   2.079   4.902   9.773
66187SOL    HW2  459   1.933   4.928   9.804
66188SOL     OW  460   5.827   1.486   5.669
66188SOL    HW1  461   5.847   1.409   5.615
66188SOL    HW2  462   5.811   1.556   5.605
66189SOL     OW  463   8.631   9.934  13.305
66189SOL    HW1  464   8.609  10.025  13.286
66189SOL    HW2  465   8.696   9.911  13.239
66190SOL     OW  466   5.630   9.345   5.286
66190SOL    HW1  467   5.543   9.308   5.299
66190SOL    HW2  468   5.690   9.274   5.311
66191SOL     OW  469  10.455   4.114   2.950
66191SOL    HW1  470  10.519   4.100   3.020
66191SOL    HW2  471  10.370   4.096   2.992
66192SOL     OW  472  12.550   2.804   1.691
66192SOL    HW1  473  12.487   2.865   1.652
66192SOL    HW2  474  12.595   2.766   1.616
66193SOL     OW  475   0.968  12.366   6.623
66193SOL    HW1  476   1.027  12.319   6.680
66193SOL    HW2  477   0.891  12.310   6.615
66194SOL     OW  478   4.071   2.028  12.733
66194SOL    HW1  479   4.012   2.098  12.705
66194SOL    HW2  480   4.104   2.058  12.818
66195SOL     OW  481   6.221  14.250  10.974
66195SOL    HW1  482   6.207  14.158  10.952
66195SOL    HW2  483   6.136  14.291  10.960
66196SOL     OW  484  11.685  14.068  14.853
66196SOL    HW1  485  11.647  14.018   0.055
66196SOL    HW2  486  11.682  14.007  14.779
66197SOL     OW  487  13.525   3.348  14.503
66197SOL    HW1  488  13.570   3.295  14.569
66197SOL    HW2  489  13.590   3.361  14.434
66198SOL     OW  490  13.736   2.110  12.513
66198SOL    HW1  491  13.746   2.025  12.555
66198SOL    HW2  492  13.751   2.092  12.420
66199SOL     OW  493   8.438  13.179   7.720
66199SOL    HW1  494   8.411  13.096   7.759
66199SOL    HW2  495   8.483  13.154   7.639
66200SOL     OW  496  14.419   3.411   0.971
66200SOL    HW1  497  14.447   3.357   1.045
66200SOL    HW2  498  14.463   3.495   0.985
66201SOL     OW  499   4.787  10.766   5.782
66201SOL    HW1  500   4.792  10.761   5.878
66201SOL    HW2  501   4.872  10.734   5.752
66202SOL     OW  502  11.512   2.363   1.571
66202SOL    HW1  503  11.551   2.284   1.611
66202SOL    HW2  504  11.437   2.383   1.627
66203SOL     OW  505  14.228   3.994   6.657
66203SOL    HW1  506  14.187   4.034   6.734
66203SOL    HW2  507  14.302   4.051   6.637
66204SOL     OW  508  11.870  12.812   2.704
66204SOL    HW1  509  11.775  12.806   2.695
66204SOL    HW2  510  11.883  12.854   2.789
66205SOL     OW  511   5.960   4.607   4.955
66205SOL    HW1  512   5.937   4.631   4.865
66205SOL    HW2  513   5.976   4.512   4.950
66206SOL     OW  514   1.393   6.980   1.687
66206SOL    HW1  515   1.458   7.037   1.728
66206SOL    HW2  516   1.412   6.986   1.593
66207SOL     OW  517  11.668  13.965   5.183
66207SOL    HW1  518  11.636  13.982   5.272
66207SOL    HW2  519  11.753  13.923   5.196
66208SOL     OW  520   0.147  12.042   6.065
66208SOL    HW1  521   0.085  12.062   6.136
66208SOL    HW2  522   0.117  11.958   6.031
66209SOL     OW  523  13.495   9.867   2.081
66209SOL    HW1  524  13.472   9.795   2.139
66209SOL    HW2  525  13.416   9.883   2.030
66210SOL     OW  526  11.497   5.539   3.969
66210SOL    HW1  527  11.454   5.571   3.890
66210SOL    HW2  528  11.504   5.616   4.026
66211SOL     OW  529   9.011   8.020   1.844
66211SOL    HW1  530   9.047   7.977   1.767
66211SOL    HW2  531   9.000   7.950   1.908
66212SOL     OW  532   1.994   6.239   4.384
66212SOL    HW1  533   2.033   6.200   4.306
66212SOL    HW2  534   1.962   6.324   4.355
66213SOL     OW  535   4.602   9.666  12.526
66213SOL    HW1  536   4.602   9.579  12.565
66213SOL    HW2  537   4.693   9.682  12.501
66214SOL     OW  538   3.932   9.257  13.583
66214SOL    HW1  539   3.892   9.172  13.566
66214SOL    HW2  540   3.951   9.256  13.677
66215SOL     OW  541   1.822  10.515  10.466
66215SOL    HW1  542   1.813  10.420  10.474
66215SOL    HW2  543   1.789  10.549  10.549
66216SOL     OW  544  12.776   0.840  13.773
66216SOL    HW1  545  12.696   0.840  13.720
66216SOL    HW2  546  12.809   0.930  13.766
66217SOL     OW  547   3.958   8.208  13.679
66217SOL    HW1  548   4.016   8.189  13.605
66217SOL    HW2  549   3.875   8.232  13.638
66218SOL     OW  550  13.821   9.336   0.502
66218SOL    HW1  551  13.784   9.403   0.444
66218SOL    HW2  552  13.746   9.305   0.553
66219SOL     OW  553   1.056  12.452  12.997
66219SOL    HW1  554   1.098  12.366  12.988
66219SOL    HW2  555   1.081  12.482  13.084
66220SOL     OW  556   2.799   8.724  11.255
66220SOL    HW1  557   2.785   8.798  11.196
66220SOL    HW2  558   2.817   8.764  11.340
66221SOL     OW  559  10.243   4.391   8.941
66221SOL    HW1  560  10.221   4.314   8.888
66221SOL    HW2  561  10.307   4.360   9.004
66222SOL     OW  562   3.152   4.780   4.230
66222SOL    HW1  563   3.107   4.730   4.298
66222SOL    HW2  564   3.244   4.753   4.236
66223SOL     OW  565   0.047   1.467  11.698
66223SOL    HW1  566   0.132   1.423  11.693
66223SOL    HW2  567  14.860   1.402  11.738
66224SOL     OW  568   1.822   0.955  12.930
66224SOL    HW1  569   1.864   1.017  12.870
66224SOL    HW2  570   1.830   0.870  12.887
66225SOL     OW  571   4.385  12.580  14.424
66225SOL    HW1  572   4.452  12.511  14.423
66225SOL    HW2  573   4.378  12.607  14.332
66226SOL     OW  574  12.449  10.865   3.709
66226SOL    HW1  575  12.527  10.822   3.674
66226SOL    HW2  576  12.379  10.801   3.695
66227SOL     OW  577   1.253  14.217  14.720
66227SOL    HW1  578   1.227  14.308  14.724
66227SOL    HW2  579   1.196  14.178  14.653
66228SOL     OW  580   7.656  10.601  12.547
66228SOL    HW1  581   7.699  10.642  12.621
66228SOL    HW2  582   7.679  10.508  12.553
66229SOL     OW  583   0.607   7.485   0.199
66229SOL    HW1  584   0.528   7.515   0.154
66229SOL    HW2  585   0.581   7.475   0.290
66230SOL     OW  586   0.701   3.440  13.760
66230SOL    HW1  587   0.750   3.481  13.831
66230SOL    HW2  588   0.680   3.352  13.792
66231SOL     OW  589   6.138  10.748   2.749
66231SOL    HW1  590   6.089  10.685   2.696
66231SOL    HW2  591   6.135  10.712   2.838
66232SOL     OW  592  14.170  10.470  13.059
66232SOL    HW1  593  14.177  10.459  13.153
66232SOL    HW2  594  14.113  10.399  13.030
66233SOL     OW  595   7.304   8.597   4.250
66233SOL    HW1  596   7.218   8.603   4.291
66233SOL    HW2  597   7.349   8.528   4.300
66234SOL     OW  598  10.799  14.753   4.365
66234SOL    HW1  599  10.875  14.802   4.397
66234SOL    HW2  600  10.835  14.669   4.335
66235SOL     OW  601   3.931  13.014   2.151
66235SOL    HW1  602   3.850  13.039   2.107
66235SOL    HW2  603   3.986  12.977   2.082
66236SOL     OW  604  13.685   8.729  11.293
66236SOL    HW1  605  13.686   8.703  11.386
66236SOL    HW2  606  13.596   8.758  11.277
66237SOL     OW  607  11.255   4.300   5.937
66237SOL    HW1  608  11.199   4.279   5.863
66237SOL    HW2  609  11.258   4.396   5.938
66238SOL     OW  610   9.514   6.383   3.259
66238SOL    HW1  611   9.484   6.293   3.271
66238SOL    HW2  612   9.447   6.437   3.302
66239SOL     OW  613  12.617  10.406   0.063
66239SOL    HW1  614  12.669  10.329   0.086
66239SOL    HW2  615  12.595  10.447   0.146
66240SOL     OW  616   4.402   1.511   5.425
66240SOL    HW1  617   4.473   1.574   5.411
66240SOL    HW2  618   4.336   1.534   5.360
66241SOL     OW  619   5.565   8.045   3.759
66241SOL    HW1  620   5.590   7.961   3.720
66241SOL    HW2  621   5.541   8.100   3.685
66242SOL     OW  622  11.386   0.463  10.842
66242SOL    HW1  623  11.335   0.544  10.843
66242SOL    HW2  624  11.324   0.397  10.811
66243SOL     OW  625   0.232   1.245   7.856
66243SOL    HW1  626   0.260   1.189   7.784
66243SOL    HW2  627   0.209   1.328   7.815
66244SOL     OW  628  14.690   1.134  10.073
66244SOL    HW1  629  14.663   1.095  10.156
66244SOL    HW2  630  14.779   1.100  10.059
66245SOL     OW  631   5.713  11.523   7.509
66245SOL    HW1  632   5.807  11.521   7.525
66245SOL    HW2  633   5.700  11.460   7.437
66246SOL     OW  634  10.166   4.136  11.029
66246SOL    HW1  635  10.163   4.040  11.030
66246SOL    HW2  636  10.121   4.161  10.948
66247SOL     OW  637   7.122   1.234   2.770
66247SOL    HW1  638   7.067   1.291   2.824
66247SOL    HW2  639   7.203   1.284   2.758
66248SOL     OW  640   5.069   3.075  11.194
66248SOL    HW1  641   5.008   3.148  11.205
66248SOL    HW2  642   5.121   3.099  11.117
66249SOL     OW  643   5.094   8.120   0.265
66249SOL    HW1  644   5.016   8.143   0.314
66249SOL    HW2  645   5.128   8.204   0.232
66250SOL     OW  646  10.044   2.095   2.965
66250SOL    HW1  647  10.139   2.105   2.975
66250SOL    HW2  648  10.025   2.010   3.004
66251SOL     OW  649   7.230  11.206   1.436
66251SOL    HW1  650   7.180  11.283   1.411
66251SOL    HW2  651   7.289  11.236   1.505
66252SOL     OW  652   6.459   7.773  10.638
66252SOL    HW1  653   6.365   7.775  10.623
66252SOL    HW2  654   6.492   7.704  10.580
66253SOL     OW  655   2.710   8.213  12.550
66253SOL    HW1  656   2.637   8.160  12.583
66253SOL    HW2  657   2.715   8.288  12.609
66254SOL     OW  658  13.821   2.121  13.868
66254SOL    HW1  659  13.897   2.148  13.918
66254SOL    HW2  660  13.856   2.064  13.799
66255SOL     OW  661   0.688  13.924   0.388
66255SOL    HW1  662   0.671  13.914   0.481
66255SOL    HW2  663   0.742  14.002   0.381
66256SOL     OW  664   3.096   2.562  13.561
66256SOL    HW1  665   3.128   2.652  13.570
66256SOL    HW2  666   3.174   2.511  13.541
66257SOL     OW  667   8.813  12.787  14.591
66257SOL    HW1  668   8.749  12.797  14.662
66257SOL    HW2  669   8.873  12.860  14.601
66258SOL     OW  670  13.812   7.597   1.759
66258SOL    HW1  671  13.849   7.511   1.740
66258SOL    HW2  672  13.834   7.650   1.683
66259SOL     OW  673  11.995   5.691   9.154
66259SOL    HW1  674  12.079   5.666   9.193
66259SOL    HW2  675  12.017   5.717   9.064
66260SOL     OW  676  12.940   7.457  10.770
66260SOL    HW1  677  12.909   7.400  10.700
66260SOL    HW2  678  13.028   7.424  10.791
66261SOL     OW  679   0.371   5.136   6.578
66261SOL    HW1  680   0.350   5.145   6.485
66261SOL    HW2  681   0.435   5.065   6.581
66262SOL     OW  682   8.258   5.729   4.307
66262SOL    HW1  683   8.330   5.766   4.358
66262SOL    HW2  684   8.299   5.661   4.253
66263SOL     OW  685  13.411   1.042   2.132
66263SOL    HW1  686  13.388   1.016   2.221
66263SOL    HW2  687  13.416   0.960   2.083
66264SOL     OW  688  12.710  10.721   6.185
66264SOL    HW1  689  12.655  10.650   6.217
66264SOL    HW2  690  12.749  10.685   6.104
66265SOL     OW  691   8.670   0.891   7.756
66265SOL    HW1  692   8.626   0.825   7.809
66265SOL    HW2  693   8.607   0.911   7.686
66266SOL     OW  694   3.248   2.803   2.858
66266SOL    HW1  695   3.227   2.896   2.868
66266SOL    HW2  696   3.235   2.785   2.765
66267SOL     OW  697   4.123  11.914  12.318
66267SOL    HW1  698   4.080  11.840  12.361
66267SOL    HW2  699   4.108  11.987  12.378
66268SOL     OW  700   9.359   3.084   3.574
66268SOL    HW1  701   9.403   3.158   3.531
66268SOL    HW2  702   9.348   3.112   3.664
66269SOL     OW  703  12.551  14.607   1.067
66269SOL    HW1  704  12.597  14.685   1.099
66269SOL    HW2  705  12.474  14.599   1.123
66270SOL     OW  706   8.743  14.741   8.187
66270SOL    HW1  707   8.658  14.772   8.154
66270SOL    HW2  708   8.742  14.647   8.169
66271SOL     OW  709  12.554   5.286  12.161
66271SOL    HW1  710  12.588   5.205  12.201
66271SOL    HW2  711  12.632   5.338  12.144
66272SOL     OW  712  13.986   3.872   1.592
66272SOL    HW1  713  13.968   3.778   1.596
66272SOL    HW2  714  14.057   3.880   1.529
66273SOL     OW  715  10.908   8.584  14.418
66273SOL    HW1  716  10.816   8.608  14.431
66273SOL    HW2  717  10.912   8.554  14.327
66274SOL     OW  718   7.408   4.557   8.728
66274SOL    HW1  719   7.383   4.628   8.670
66274SOL    HW2  720   7.463   4.500   8.675
66275SOL     OW  721  11.956  12.476   8.737
66275SOL    HW1  722  11.981  12.386   8.714
66275SOL    HW2  723  12.025  12.505   8.797
66276SOL     OW  724  11.553   3.403  14.823
66276SOL    HW1  725  11.476   3.456  14.845
66276SOL    HW2  726  11.626   3.465  14.827
66277SOL     OW  727   0.403   0.492   2.197
66277SOL    HW1  728   0.384   0.496   2.291
66277SOL    HW2  729   0.375   0.405   2.171
66278SOL     OW  730   0.368  14.869   9.864
66278SOL    HW1  731   0.440   0.026   9.920
66278SOL    HW2  732   0.290   0.039   9.901
66279SOL     OW  733   7.219   2.628  11.706
66279SOL    HW1  734   7.248   2.626  11.615
66279SOL    HW2  735   7.174   2.712  11.715
66280SOL     OW  736   1.309   0.934  11.034
66280SOL    HW1  737   1.258   0.854  11.028
66280SOL    HW2  738   1.258   0.999  10.986
66281SOL     OW  739   7.033  12.439   0.051
66281SOL    HW1  740   7.051  12.350   0.020
66281SOL    HW2  741   7.097  12.493   0.005
66282SOL     OW  742   9.463  14.858   3.420
66282SOL    HW1  743   9.486  14.771   3.387
66282SOL    HW2  744   9.387   0.012   3.368
66283SOL     OW  745  14.091   3.388  12.803
66283SOL    HW1  746  14.137   3.373  12.886
66283SOL    HW2  747  14.143   3.341  12.738
66284SOL     OW  748  13.920   1.013  10.354
66284SOL    HW1  749  13.982   1.074  10.396
66284SOL    HW2  750  13.848   1.006  10.415
66285SOL     OW  751   6.419   4.040  11.851
66285SOL    HW1  752   6.454   4.075  11.933
66285SOL    HW2  753   6.477   4.074  11.783
66286SOL     OW  754   7.443   6.266  13.944
66286SOL    HW1  755   7.433   6.178  13.907
66286SOL    HW2  756   7.358   6.285  13.983
66287SOL     OW  757   3.911  11.061   4.184
66287SOL    HW1  758   3.884  11.066   4.093
66287SOL    HW2  759   3.854  10.994   4.222
66288SOL     OW  760  10.396   4.999   6.949
66288SOL    HW1  761  10.402   5.093   6.935
66288SOL    HW2  762  10.440   4.984   7.033
66289SOL     OW  763  11.859  12.419  11.184
66289SOL    HW1  764  11.909  12.338  11.170
66289SOL    HW2  765  11.925  12.483  11.212
66290SOL     OW  766   6.312   5.645  12.928
66290SOL    HW1  767   6.264   5.617  13.006
66290SOL    HW2  768   6.286   5.582  12.860
66291SOL     OW  769  11.254  13.479   3.616
66291SOL    HW1  770  11.281  13.570   3.606
66291SOL    HW2  771  11.230  13.451   3.527
66292SOL     OW  772  10.308  13.239   9.232
66292SOL    HW1  773  10.339  13.245   9.322
66292SOL    HW2  774  10.355  13.308   9.185
66293SOL     OW  775  10.054   3.861   3.285
66293SOL    HW1  776  10.058   3.834   3.377
66293SOL    HW2  777   9.963   3.846   3.260
66294SOL     OW  778   2.132  14.598   2.708
66294SOL    HW1  779   2.167  14.661   2.771
66294SOL    HW2  780   2.042  14.583   2.738
66295SOL     OW  781   3.009   2.389   2.475
66295SOL    HW1  782   2.970   2.385   2.563
66295SOL    HW2  783   3.084   2.329   2.479
66296SOL     OW  784  11.667  14.050   7.773
66296SOL    HW1  785  11.716  13.970   7.792
66296SOL    HW2  786  11.722  14.120   7.806
66297SOL     OW  787   0.073  12.545   3.439
66297SOL    HW1  788   0.069  12.463   3.391
66297SOL    HW2  789  14.853  12.573   3.446
66298SOL     OW  790  10.497   3.725   6.512
66298SOL    HW1  791  10.565   3.692   6.571
66298SOL    HW2  792  10.448   3.648   6.485
66299SOL     OW  793   5.010  10.030   6.714
66299SOL    HW1  794   4.965  10.046   6.631
66299SOL    HW2  795   4.990   9.939   6.735
66300SOL     OW  796   8.902   6.882   0.300
66300SOL    HW1  797   8.864   6.930   0.374
66300SOL    HW2  798   8.848   6.804   0.291
66301SOL     OW  799   2.487   4.039   6.876
66301SOL    HW1  800   2.447   3.995   6.952
66301SOL    HW2  801   2.571   3.996   6.865
66302SOL     OW  802   0.435  14.111   8.012
66302SOL    HW1  803   0.462  14.198   8.040
66302SOL    HW2  804   0.411  14.066   8.093
66303SOL     OW  805   1.199  10.555   1.324
66303SOL    HW1  806   1.152  10.492   1.268
66303SOL    HW2  807   1.289  10.553   1.291
66304SOL     OW  808   3.093  10.528   7.595
66304SOL    HW1  809   2.998  10.541   7.592
66304SOL    HW2  810   3.127  10.579   7.521
66305SOL     OW  811   1.500  13.983  13.326
66305SOL    HW1  812   1.457  13.898  13.317
66305SOL    HW2  813   1.586  13.971  13.286
66306SOL     OW  814  13.258   8.692   9.864
66306SOL    HW1  815  13.209   8.611   9.853
66306SOL    HW2  816  13.194   8.761   9.846
66307SOL     OW  817   0.964   5.014  13.262
66307SOL    HW1  818   0.968   5.108  13.282
66307SOL    HW2  819   0.940   5.010  13.169
66308SOL     OW  820   2.513   3.524  12.551
66308SOL    HW1  821   2.545   3.473  12.477
66308SOL    HW2  822   2.446   3.581  12.515
66309SOL     OW  823  10.844  11.148   4.946
66309SOL    HW1  824  10.818  11.240   4.949
66309SOL    HW2  825  10.916  11.145   4.882
66310SOL     OW  826   3.134  11.119   5.834
66310SOL    HW1  827   3.196  11.084   5.897
66310SOL    HW2  828   3.049  11.112   5.878
66311SOL     OW  829   5.154  14.464  13.999
66311SOL    HW1  830   5.076  14.487  14.051
66311SOL    HW2  831   5.121  14.455  13.910
66312SOL     OW  832  11.889   5.327   8.753
66312SOL    HW1  833  11.938   5.268   8.697
66312SOL    HW2  834  11.803   5.287   8.762
66313SOL     OW  835   2.208   9.812   1.639
66313SOL    HW1  836   2.124   9.806   1.685
66313SOL    HW2  837   2.217   9.906   1.620
66314SOL     OW  838   9.139   6.314  14.383
66314SOL    HW1  839   9.208   6.345  14.324
66314SOL    HW2  840   9.066   6.293  14.326
66315SOL     OW  841   3.803   8.674  13.354
66315SOL    HW1  842   3.719   8.653  13.395
66315SOL    HW2  843   3.868   8.650  13.420
66316SOL     OW  844   0.372   8.209   2.159
66316SOL    HW1  845   0.456   8.171   2.131
66316SOL    HW2  846   0.396   8.270   2.229
66317SOL     OW  847  13.025   1.482   5.706
66317SOL    HW1  848  13.120   1.486   5.700
66317SOL    HW2  849  13.002   1.554   5.766
66318SOL     OW  850   5.580   3.942   0.733
66318SOL    HW1  851   5.658   3.889   0.715
66318SOL    HW2  852   5.525   3.885   0.787
66319SOL     OW  853   9.435   5.858  11.585
66319SOL    HW1  854   9.397   5.791  11.528
66319SOL    HW2  855   9.366   5.878  11.648
66320SOL     OW  856   8.602   1.263  14.436
66320SOL    HW1  857   8.516   1.279  14.395
66320SOL    HW2  858   8.621   1.171  14.415
66321SOL     OW  859   2.910   1.859   4.822
66321SOL    HW1  860   2.856   1.908   4.761
66321SOL    HW2  861   2.919   1.772   4.782
66322SOL     OW  862   6.681   2.978   4.984
66322SOL    HW1  863   6.724   2.892   4.991
66322SOL    HW2  864   6.733   3.035   5.040
66323SOL     OW  865   9.481  11.598   4.126
66323SOL    HW1  866   9.435  11.682   4.120
66323SOL    HW2  867   9.530  11.592   4.044
66324SOL     OW  868   4.705   9.502  13.022
66324SOL    HW1  869   4.656   9.578  12.992
66324SOL    HW2  870   4.646   9.428  13.009
66325SOL     OW  871   2.807   5.602  14.662
66325SOL    HW1  872   2.764   5.527  14.622
66325SOL    HW2  873   2.748   5.675  14.645
66326SOL     OW  874   1.625   6.565   1.266
66326SOL    HW1  875   1.610   6.636   1.328
66326SOL    HW2  876   1.666   6.496   1.317
66327SOL     OW  877   5.803   9.350   8.402
66327SOL    HW1  878   5.860   9.332   8.328
66327SOL    HW2  879   5.759   9.267   8.420
66328SOL     OW  880   9.569  14.652  14.635
66328SOL    HW1  881   9.593  14.591  14.565
66328SOL    HW2  882   9.643  14.714  14.638
66329SOL     OW  883  10.310   3.807   7.743
66329SOL    HW1  884  10.267   3.889   7.720
66329SOL    HW2  885  10.337   3.769   7.659
66330SOL     OW  886   4.069  14.723   2.843
66330SOL    HW1  887   4.091  14.815   2.828
66330SOL    HW2  888   3.988  14.709   2.794
66331SOL     OW  889   9.485   5.999   1.080
66331SOL    HW1  890   9.549   5.935   1.050
66331SOL    HW2  891   9.413   5.993   1.018
66332SOL     OW  892   7.702   9.723  14.418
66332SOL    HW1  893   7.770   9.789  14.430
66332SOL    HW2  894   7.685   9.690  14.507
66333SOL     OW  895   3.382   4.416   5.278
66333SOL    HW1  896   3.349   4.502   5.303
66333SOL    HW2  897   3.392   4.369   5.361
66334SOL     OW  898  14.259   7.071  12.340
66334SOL    HW1  899  14.258   7.145  12.279
66334SOL    HW2  900  14.346   7.073  12.378
66335SOL     OW  901   1.959  10.375  11.750
66335SOL    HW1  902   2.050  10.399  11.769
66335SOL    HW2  903   1.911  10.458  11.755
66336SOL     OW  904  10.449  11.320   3.258
66336SOL    HW1  905  10.443  11.229   3.289
66336SOL    HW2  906  10.532  11.324   3.212
66337SOL     OW  907  13.979  12.109  11.066
66337SOL    HW1  908  14.013  12.103  11.155
66337SOL    HW2  909  14.020  12.036  11.020
66338SOL     OW  910   8.385  12.538   8.830
66338SOL    HW1  911   8.448  12.467   8.816
66338SOL    HW2  912   8.438  12.608   8.868
66339SOL     OW  913  10.049  12.386  11.448
66339SOL    HW1  914   9.996  12.400  11.369
66339SOL    HW2  915  10.055  12.291  11.456
66340SOL     OW  916   7.007   1.407   6.048
66340SOL    HW1  917   7.003   1.341   5.979
66340SOL    HW2  918   6.961   1.367   6.121
66341SOL     OW  919   4.940   0.230   3.610
66341SOL    HW1  920   4.897   0.309   3.641
66341SOL    HW2  921   4.922   0.164   3.677
66342SOL     OW  922   3.945   8.183   1.745
66342SOL    HW1  923   3.945   8.097   1.788
66342SOL    HW2  924   3.877   8.233   1.791
66343SOL     OW  925   7.804   6.731   9.405
66343SOL    HW1  926   7.795   6.802   9.469
66343SOL    HW2  927   7.720   6.685   9.407
66344SOL     OW  928   4.426   7.452   8.166
66344SOL    HW1  929   4.501   7.499   8.131
66344SOL    HW2  930   4.395   7.507   8.239
66345SOL     OW  931   4.617  10.798   4.500
66345SOL    HW1  932   4.710  10.811   4.481
66345SOL    HW2  933   4.571  10.863   4.447
66346SOL     OW  934  13.390   8.412   6.064
66346SOL    HW1  935  13.377   8.465   5.985
66346SOL    HW2  936  13.348   8.461   6.134
66347SOL     OW  937  10.338   0.877  10.046
66347SOL    HW1  938  10.431   0.853  10.050
66347SOL    HW2  939  10.332   0.959  10.095
66348SOL     OW  940   6.102  13.213   6.682
66348SOL    HW1  941   6.072  13.269   6.610
66348SOL    HW2  942   6.021  13.173   6.716
66349SOL     OW  943   7.230   3.569  14.329
66349SOL    HW1  944   7.202   3.513  14.257
66349SOL    HW2  945   7.151   3.616  14.355
66350SOL     OW  946   8.423  14.703   1.704
66350SOL    HW1  947   8.404  14.619   1.661
66350SOL    HW2  948   8.359  14.764   1.667
66351SOL     OW  949  12.158  12.782   0.832
66351SOL    HW1  950  12.084  12.835   0.861
66351SOL    HW2  951  12.122  12.729   0.761
66352SOL     OW  952   6.746  12.475  11.838
66352SOL    HW1  953   6.809  12.477  11.767
66352SOL    HW2  954   6.668  12.436  11.800
66353SOL     OW  955   3.332  10.400   5.988
66353SOL    HW1  956   3.309  10.324   5.934
66353SOL    HW2  957   3.294  10.474   5.941
66354SOL     OW  958   6.178   6.669   0.777
66354SOL    HW1  959   6.144   6.636   0.694
66354SOL    HW2  960   6.169   6.596   0.838
66355SOL     OW  961   8.187   7.107   9.987
66355SOL    HW1  962   8.126   7.079  10.055
66355SOL    HW2  963   8.130   7.126   9.911
66356SOL     OW  964   7.519  11.278   9.878
66356SOL    HW1  965   7.430  11.272   9.844
66356SOL    HW2  966   7.523  11.364   9.920
66357SOL     OW  967  11.354   7.937   0.227
66357SOL    HW1  968  11.385   7.925   0.138
66357SOL    HW2  969  11.377   7.856   0.272
66358SOL     OW  970  10.424   5.674   1.945
66358SOL    HW1  971  10.465   5.590   1.963
66358SOL    HW2  972  10.482   5.739   1.985
66359SOL     OW  973   9.992   8.211   5.730
66359SOL    HW1  974   9.906   8.254   5.730
66359SOL    HW2  975   9.985   8.143   5.797
66360SOL     OW  976  13.207   6.475   0.407
66360SOL    HW1  977  13.136   6.458   0.344
66360SOL    HW2  978  13.268   6.532   0.360
66361SOL     OW  979  14.045   2.138   0.718
66361SOL    HW1  980  14.131   2.120   0.756
66361SOL    HW2  981  14.064   2.189   0.639
66362SOL     OW  982   9.922   3.565   1.448
66362SOL    HW1  983   9.955   3.521   1.370
66362SOL    HW2  984   9.985   3.543   1.517
66363SOL     OW  985   3.146   1.433   4.756
66363SOL    HW1  986   3.227   1.446   4.805
66363SOL    HW2  987   3.174   1.390   4.676
66364SOL     OW  988   4.460   3.865  13.504
66364SOL    HW1  989   4.403   3.866  13.580
66364SOL    HW2  990   4.418   3.922  13.441
66365SOL     OW  991  12.059  13.842   7.563
66365SOL    HW1  992  12.017  13.771   7.514
66365SOL    HW2  993  12.105  13.798   7.634
66366SOL     OW  994  14.866   2.894   4.854
66366SOL    HW1  995   0.027   2.818   4.902
66366SOL    HW2  996  14.871   2.967   4.916
66367SOL     OW  997  10.329   9.313  13.176
66367SOL    HW1  998  10.384   9.357  13.241
66367SOL    HW2  999  10.287   9.242  13.225
66368SOL     OW 1000  14.334  10.162  12.881
66368SOL    HW1 1001  14.293  10.245  12.906
66368SOL    HW2 1002  14.404  10.187  12.820
66369SOL     OW 1003  14.619   3.356   7.369
66369SOL    HW1 1004  14.710   3.382   7.359
66369SOL    HW2 1005  14.589   3.403   7.447
66370SOL     OW 1006  14.560  13.133   9.238
66370SOL    HW1 1007  14.624  13.200   9.261
66370SOL    HW2 1008  14.597  13.087   9.163
66371SOL     OW 1009  10.262  11.086  12.981
66371SOL    HW1 1010  10.178  11.120  13.009
66371SOL    HW2 1011  10.241  11.023  12.912
66372SOL     OW 1012  12.425   8.683  12.691
66372SOL    HW1 1013  12.445   8.668  12.784
66372SOL    HW2 1014  12.493   8.635  12.644
66373SOL     OW 1015   6.613   6.031   2.790
66373SOL    HW1 1016   6.602   5.994   2.877
66373SOL    HW2 1017   6.619   5.954   2.732
66374SOL     OW 1018   6.360   5.616   5.576
66374SOL    HW1 1019   6.332   5.706   5.590
66374SOL    HW2 1020   6.393   5.615   5.486
66375SOL     OW 1021   5.048   6.819  11.424
66375SOL    HW1 1022   5.121   6.809  11.486
66375SOL    HW2 1023   4.981   6.759  11.456
66376SOL     OW 1024   0.961   8.112   2.432
66376SOL    HW1 1025   0.940   8.114   2.525
66376SOL    HW2 1026   0.961   8.205   2.406
66377SOL     OW 1027   6.275  11.187   7.245
66377SOL    HW1 1028   6.269  11.102   7.289
66377SOL    HW2 1029   6.199  11.236   7.277
66378SOL     OW 1030   5.387   6.974  10.206
66378SOL    HW1 1031   5.450   7.046  10.214
66378SOL    HW2 1032   5.437   6.896  10.232
66379SOL     OW 1033   3.192   1.787   3.037
66379SOL    HW1 1034   3.144   1.704   3.040
66379SOL    HW2 1035   3.210   1.802   2.945
66380SOL     OW 1036  11.203   7.048   4.892
66380SOL    HW1 1037  11.130   7.098   4.855
66380SOL    HW2 1038  11.260   7.115   4.931
66381SOL     OW 1039  14.571   3.914  10.940
66381SOL    HW1 1040  14.570   4.002  10.902
66381SOL    HW2 1041  14.593   3.928  11.032
66382SOL     OW 1042   0.911  11.874  14.538
66382SOL    HW1 1043   0.925  11.967  14.518
66382SOL    HW2 1044   0.997  11.842  14.564
66383SOL     OW 1045   8.714   2.375   6.805
66383SOL    HW1 1046   8.717   2.349   6.713
66383SOL    HW2 1047   8.643   2.323   6.842
66384SOL     OW 1048   7.205  14.210   9.186
66384SOL    HW1 1049   7.165  14.297   9.188
66384SOL    HW2 1050   7.150  14.157   9.245
66385SOL     OW 1051   2.981   3.961   7.021
66385SOL    HW1 1052   2.950   4.052   7.028
66385SOL    HW2 1053   2.934   3.914   7.090
66386SOL     OW 1054   7.309   3.260  10.659
66386SOL    HW1 1055   7.250   3.190  10.686
66386SOL    HW2 1056   7.272   3.291  10.576
66387SOL     OW 1057  10.712   3.817   7.761
66387SOL    HW1 1058  10.674   3.820   7.849
66387SOL    HW2 1059  10.644   3.851   7.703
66388SOL     OW 1060   3.026   4.710  14.352
66388SOL    HW1 1061   3.005   4.771  14.282
66388SOL    HW2 1062   2.995   4.753  14.432
66389SOL     OW 1063   0.065   1.395   2.757
66389SOL    HW1 1064   0.135   1.432   2.810
66389SOL    HW2 1065   0.071   1.300   2.773
66390SOL     OW 1066   8.200   9.058   4.275
66390SOL    HW1 1067   8.173   8.966   4.277
66390SOL    HW2 1068   8.123   9.105   4.245
66391SOL     OW 1069   9.558  11.777   5.182
66391SOL    HW1 1070   9.597  11.862   5.201
66391SOL    HW2 1071   9.633  11.718   5.173
66392SOL     OW 1072  14.708   4.822   3.970
66392SOL    HW1 1073  14.723   4.753   3.905
66392SOL    HW2 1074  14.796   4.849   3.996
66393SOL     OW 1075  14.147   3.881  10.787
66393SOL    HW1 1076  14.164   3.842  10.873
66393SOL    HW2 1077  14.119   3.970  10.806
66394SOL     OW 1078   8.542   6.018  11.340
66394SOL    HW1 1079   8.589   5.941  11.309
66394SOL    HW2 1080   8.602   6.059  11.403
66395SOL     OW 1081  10.713   6.559  11.080
66395SOL    HW1 1082  10.694   6.570  10.986
66395SOL    HW2 1083  10.790   6.613  11.095
66396SOL     OW 1084  10.613  12.028   0.343
66396SOL    HW1 1085  10.676  12.079   0.395
66396SOL    HW2 1086  10.551  11.994   0.408
66397SOL     OW 1087  11.406   6.951   6.146
66397SOL    HW1 1088  11.497   6.926   6.135
66397SOL    HW2 1089  11.365   6.875   6.188
66398SOL     OW 1090   8.233   9.656  12.648
66398SOL    HW1 1091   8.144   9.676  12.677
66398SOL    HW2 1092   8.243   9.701  12.565
66399SOL     OW 1093   9.974  10.856   7.598
66399SOL    HW1 1094  10.032  10.908   7.542
66399SOL    HW2 1095   9.932  10.794   7.538
66400SOL     OW 1096  12.739   9.736   4.711
66400SOL    HW1 1097  12.674   9.763   4.646
66400SOL    HW2 1098  12.823   9.751   4.667
66401SOL     OW 1099   6.093  12.939  13.168
66401SOL    HW1 1100   6.111  12.965  13.259
66401SOL    HW2 1101   6.027  12.870  13.176
66402SOL     OW 1102   0.794   4.108  11.814
66402SOL    HW1 1103   0.717   4.085  11.762
66402SOL    HW2 1104   0.789   4.051  11.891
66403SOL     OW 1105  11.449   4.877   5.318
66403SOL    HW1 1106  11.481   4.942   5.256
66403SOL    HW2 1107  11.356   4.897   5.327
66404SOL     OW 1108   5.109   2.149   2.294
66404SOL    HW1 1109   5.186   2.093   2.283
66404SOL    HW2 1110   5.124   2.221   2.233
66405SOL     OW 1111   2.397   0.605   6.181
66405SOL    HW1 1112   2.324   0.574   6.234
66405SOL    HW2 1113   2.385   0.563   6.096
66406SOL     OW 1114   9.065  12.421   7.760
66406SOL    HW1 1115   9.135  12.377   7.808
66406SOL    HW2 1116   8.985  12.382   7.793
66407SOL     OW 1117   4.588   5.837  12.315
66407SOL    HW1 1118   4.565   5.909  12.373
66407SOL    HW2 1119   4.622   5.880  12.236
66408SOL     OW 1120   0.738   0.471   4.003
66408SOL    HW1 1121   0.691   0.480   4.086
66408SOL    HW2 1122   0.822   0.513   4.019
66409SOL     OW 1123  12.489   0.641   6.270
66409SOL    HW1 1124  12.473   0.695   6.347
66409SOL    HW2 1125  12.498   0.552   6.305
66410SOL     OW 1126   7.144  11.961   9.452
66410SOL    HW1 1127   7.167  11.941   9.361
66410SOL    HW2 1128   7.110  12.050   9.449
66411SOL     OW 1129  14.593   6.172  12.201
66411SOL    HW1 1130  14.521   6.236  12.197
66411SOL    HW2 1131  14.664   6.213  12.152
66412SOL     OW 1132  13.235  13.634  11.645
66412SOL    HW1 1133  13.303  13.599  11.702
66412SOL    HW2 1134  13.268  13.620  11.556
66413SOL     OW 1135  10.896   0.420   0.444
66413SOL    HW1 1136  10.960   0.489   0.426
66413SOL    HW2 1137  10.815   0.449   0.402
66414SOL     OW 1138  13.290  11.875  13.470
66414SOL    HW1 1139  13.221  11.883  13.404
66414SOL    HW2 1140  13.305  11.964  13.501
66415SOL     OW 1141  12.064  12.166   1.343
66415SOL    HW1 1142  12.001  12.094   1.350
66415SOL    HW2 1143  12.116  12.160   1.424
66416SOL     OW 1144  12.690   4.180   0.118
66416SOL    HW1 1145  12.761   4.237   0.148
66416SOL    HW2 1146  12.614   4.238   0.109
66417SOL     OW 1147  14.074   1.629  10.380
66417SOL    HW1 1148  14.025   1.603  10.303
66417SOL    HW2 1149  14.049   1.566  10.448
66418SOL     OW 1150   6.460   2.571   2.942
66418SOL    HW1 1151   6.503   2.613   3.017
66418SOL    HW2 1152   6.371   2.552   2.972
66419SOL     OW 1153   5.007   3.173   0.615
66419SOL    HW1 1154   4.961   3.241   0.567
66419SOL    HW2 1155   4.951   3.154   0.690
66420SOL     OW 1156   8.651   7.572   4.908
66420SOL    HW1 1157   8.578   7.512   4.924
66420SOL    HW2 1158   8.635   7.645   4.967
66421SOL     OW 1159   2.488   7.122   2.357
66421SOL    HW1 1160   2.561   7.134   2.296
66421SOL    HW2 1161   2.471   7.028   2.356
66422SOL     OW 1162  12.978  10.611  10.586
66422SOL    HW1 1163  12.933  10.665  10.521
66422SOL    HW2 1164  12.998  10.672  10.657
66423SOL     OW 1165   4.060  10.327  13.345
66423SOL    HW1 1166   4.081  10.390  13.276
66423SOL    HW2 1167   3.967  10.340  13.361
66424SOL     OW 1168  13.068  10.400   4.535
66424SOL    HW1 1169  13.106  10.324   4.579
66424SOL    HW2 1170  13.056  10.464   4.604
66425SOL     OW 1171   3.557  12.566   6.357
66425SOL    HW1 1172   3.630  12.619   6.390
66425SOL    HW2 1173   3.506  12.544   6.435
66426SOL     OW 1174   6.880  11.436   4.748
66426SOL    HW1 1175   6.823  11.494   4.799
66426SOL    HW2 1176   6.939  11.495   4.702
66427SOL     OW 1177   8.196   4.072   8.328
66427SOL    HW1 1178   8.181   4.057   8.235
66427SOL    HW2 1179   8.288   4.096   8.334
66428SOL     OW 1180   3.463   7.851  13.354
66428SOL    HW1 1181   3.434   7.896  13.275
66428SOL    HW2 1182   3.433   7.906  13.426
66429SOL     OW 1183  11.045   1.573   5.999
66429SOL    HW1 1184  10.954   1.564   5.972
66429SOL    HW2 1185  11.040   1.601   6.090
66430SOL     OW 1186  11.314   5.146   1.701
66430SOL    HW1 1187  11.383   5.094   1.742
66430SOL    HW2 1188  11.337   5.146   1.608
66431SOL     OW 1189  11.128   5.084   7.872
66431SOL    HW1 1190  11.154   5.099   7.781
66431SOL    HW2 1191  11.039   5.049   7.866
66432SOL     OW 1192   4.019  11.054  12.658
66432SOL    HW1 1193   3.979  11.119  12.715
66432SOL    HW2 1194   4.109  11.045  12.690
66433SOL     OW 1195  11.452   2.728  12.847
66433SOL    HW1 1196  11.511   2.702  12.918
66433SOL    HW2 1197  11.367   2.692  12.873
66434SOL     OW 1198   7.864   1.901   6.892
66434SOL    HW1 1199   7.951   1.864   6.911
66434SOL    HW2 1200   7.858   1.977   6.949
66435SOL     OW 1201  13.560  14.023   8.554
66435SOL    HW1 1202  13.486  14.044   8.611
66435SOL    HW2 1203  13.599  13.944   8.593
66436SOL     OW 1204   1.972   2.660   1.398
66436SOL    HW1 1205   1.949   2.585   1.453
66436SOL    HW2 1206   1.992   2.622   1.313
66437SOL     OW 1207  13.341   2.086  11.106
66437SOL    HW1 1208  13.393   2.045  11.037
66437SOL    HW2 1209  13.251   2.074  11.078
66438SOL     OW 1210  10.249  13.375  10.957
66438SOL    HW1 1211  10.208  13.324  11.027
66438SOL    HW2 1212  10.304  13.312  10.911
66439SOL     OW 1213  10.473   6.891   6.310
66439SOL    HW1 1214  10.473   6.827   6.382
66439SOL    HW2 1215  10.514   6.969   6.347
66440SOL     OW 1216   4.736   5.243  13.316
66440SOL    HW1 1217   4.767   5.313  13.259
66440SOL    HW2 1218   4.796   5.244  13.390
66441SOL     OW 1219   5.271   5.106  10.014
66441SOL    HW1 1220   5.277   5.125   9.921
66441SOL    HW2 1221   5.347   5.150  10.053
66442SOL     OW 1222   9.764   5.777   2.891
66442SOL    HW1 1223   9.772   5.734   2.806
66442SOL    HW2 1224   9.852   5.776   2.927
66443SOL     OW 1225   3.614  13.132   6.154
66443SOL    HW1 1226   3.535  13.183   6.135
66443SOL    HW2 1227   3.636  13.090   6.071
66444SOL     OW 1228   5.989   6.298  11.985
66444SOL    HW1 1229   6.009   6.246  12.063
66444SOL    HW2 1230   5.900   6.274  11.962
66445SOL     OW 1231   6.257   8.983  13.053
66445SOL    HW1 1232   6.219   8.948  13.134
66445SOL    HW2 1233   6.351   8.988  13.072
66446SOL     OW 1234  11.457   2.263   0.783
66446SOL    HW1 1235  11.489   2.282   0.695
66446SOL    HW2 1236  11.482   2.173   0.800
66447SOL     OW 1237   4.074   1.002  11.822
66447SOL    HW1 1238   4.122   0.983  11.740
66447SOL    HW2 1239   4.106   1.088  11.848
66448SOL     OW 1240   0.603   8.482  12.539
66448SOL    HW1 1241   0.674   8.545  12.528
66448SOL    HW2 1242   0.542   8.526  12.599
66449SOL     OW 1243   6.418   7.240  10.331
66449SOL    HW1 1244   6.388   7.304  10.397
66449SOL    HW2 1245   6.372   7.265  10.251
66450SOL     OW 1246   6.460  13.491  12.054
66450SOL    HW1 1247   6.544  13.453  12.029
66450SOL    HW2 1248   6.460  13.491  12.150
66451SOL     OW 1249   0.555   4.901   7.714
66451SOL    HW1 1250   0.478   4.918   7.769
66451SOL    HW2 1251   0.606   4.836   7.762
66452SOL     OW 1252   2.564   8.945  13.257
66452SOL    HW1 1253   2.504   8.871  13.270
66452SOL    HW2 1254   2.650   8.904  13.243
66453SOL     OW 1255   8.923  12.751   3.729
66453SOL    HW1 1256   8.838  12.720   3.762
66453SOL    HW2 1257   8.935  12.836   3.770
66454SOL     OW 1258  11.960  13.197   0.415
66454SOL    HW1 1259  12.017  13.177   0.342
66454SOL    HW2 1260  12.018  13.203   0.491
66455SOL     OW 1261   4.449   7.936  12.341
66455SOL    HW1 1262   4.491   7.876  12.279
66455SOL    HW2 1263   4.473   7.902  12.427
66456SOL     OW 1264   6.093   9.391   3.127
66456SOL    HW1 1265   6.081   9.482   3.153
66456SOL    HW2 1266   6.169   9.362   3.177
66457SOL     OW 1267   8.881  12.600   7.987
66457SOL    HW1 1268   8.804  12.615   8.041
66457SOL    HW2 1269   8.856  12.530   7.927
66458SOL     OW 1270   0.726   0.552   5.776
66458SOL    HW1 1271   0.767   0.510   5.701
66458SOL    HW2 1272   0.795   0.605   5.815
66459SOL     OW 1273   9.796   7.721   0.278
66459SOL    HW1 1274   9.843   7.703   0.197
66459SOL    HW2 1275   9.707   7.743   0.250
66460SOL     OW 1276  13.404  11.688   9.732
66460SOL    HW1 1277  13.329  11.634   9.708
66460SOL    HW2 1278  13.469  11.625   9.764
66461SOL     OW 1279   4.964  10.723  10.192
66461SOL    HW1 1280   4.924  10.715  10.279
66461SOL    HW2 1281   4.937  10.810  10.162
66462SOL     OW 1282   3.672   9.207   1.103
66462SOL    HW1 1283   3.639   9.296   1.090
66462SOL    HW2 1284   3.722   9.211   1.184
66463SOL     OW 1285   0.056   9.896   3.412
66463SOL    HW1 1286   0.011   9.929   3.489
66463SOL    HW2 1287   0.025   9.952   3.340
66464SOL     OW 1288   3.044   0.658   8.016
66464SOL    HW1 1289   2.950   0.658   8.029
66464SOL    HW2 1290   3.080   0.617   8.094
66465SOL     OW 1291   7.408  10.516   4.071
66465SOL    HW1 1292   7.430  10.433   4.113
66465SOL    HW2 1293   7.313  10.523   4.078
66466SOL     OW 1294   2.420  11.542   3.996
66466SOL    HW1 1295   2.464  11.617   3.955
66466SOL    HW2 1296   2.477  11.467   3.977
66467SOL     OW 1297  13.613   0.821   5.130
66467SOL    HW1 1298  13.645   0.808   5.219
66467SOL    HW2 1299  13.519   0.835   5.140
66468SOL     OW 1300   2.158   1.759   8.260
66468SOL    HW1 1301   2.236   1.707   8.245
66468SOL    HW2 1302   2.132   1.790   8.174
66469SOL     OW 1303  12.685  10.782   3.609
66469SOL    HW1 1304  12.731  10.701   3.585
66469SOL    HW2 1305  12.755  10.847   3.615
66470SOL     OW 1306  12.606  13.247   7.735
66470SOL    HW1 1307  12.670  13.178   7.716
66470SOL    HW2 1308  12.594  13.244   7.830
66471SOL     OW 1309   4.114   3.794  13.075
66471SOL    HW1 1310   4.049   3.835  13.018
66471SOL    HW2 1311   4.114   3.848  13.154
66472SOL     OW 1312  14.246   5.143   7.782
66472SOL    HW1 1313  14.340   5.145   7.802
66472SOL    HW2 1314  14.213   5.067   7.829
66473SOL     OW 1315   5.089   0.443  12.177
66473SOL    HW1 1316   5.176   0.405  12.170
66473SOL    HW2 1317   5.029   0.371  12.159
66474SOL     OW 1318  11.991   7.835  14.547
66474SOL    HW1 1319  11.959   7.863  14.633
66474SOL    HW2 1320  12.029   7.748  14.563
66475SOL     OW 1321  10.310  10.160   8.736
66475SOL    HW1 1322  10.256  10.223   8.783
66475SOL    HW2 1323  10.364  10.119   8.804
66476SOL     OW 1324  11.202   4.251   7.250
66476SOL    HW1 1325  11.123   4.304   7.241
66476SOL    HW2 1326  11.274   4.313   7.237
66477SOL     OW 1327   4.393   1.775   8.081
66477SOL    HW1 1328   4.372   1.688   8.115
66477SOL    HW2 1329   4.448   1.759   8.005
66478SOL     OW 1330   8.672   6.025   0.009
66478SOL    HW1 1331   8.623   6.107   0.016
66478SOL    HW2 1332   8.743   6.034   0.072
66479SOL     OW 1333   3.146   5.899   2.849
66479SOL    HW1 1334   3.206   5.965   2.816
66479SOL    HW2 1335   3.132   5.922   2.941
66480SOL     OW 1336   3.525  14.748   0.553
66480SOL    HW1 1337   3.526  14.757   0.457
66480SOL    HW2 1338   3.474  14.668   0.568
66481SOL     OW 1339  10.288   1.415   6.615
66481SOL    HW1 1340  10.284   1.504   6.650
66481SOL    HW2 1341  10.317   1.426   6.524
66482SOL     OW 1342  12.312   6.949   6.746
66482SOL    HW1 1343  12.379   6.882   6.760
66482SOL    HW2 1344  12.323   6.974   6.654
66483SOL     OW 1345   6.187   1.170   8.338
66483SOL    HW1 1346   6.234   1.254   8.338
66483SOL    HW2 1347   6.165   1.154   8.429
66484SOL     OW 1348  11.580   5.959   2.839
66484SOL    HW1 1349  11.505   6.018   2.846
66484SOL    HW2 1350  11.650   6.012   2.801
66485SOL     OW 1351  10.769   7.939  14.050
66485SOL    HW1 1352  10.704   7.872  14.073
66485SOL    HW2 1353  10.847   7.915  14.100
66486SOL     OW 1354  13.665   4.431  14.198
66486SOL    HW1 1355  13.621   4.489  14.261
66486SOL    HW2 1356  13.660   4.345  14.238
66487SOL     OW 1357   1.553   7.687  13.218
66487SOL    HW1 1358   1.584   7.602  13.188
66487SOL    HW2 1359   1.527   7.673  13.309
66488SOL     OW 1360   1.907   0.078   2.880
66488SOL    HW1 1361   1.936   0.165   2.857
66488SOL    HW2 1362   1.983   0.021   2.865
66489SOL     OW 1363   1.066  14.858  12.340
66489SOL    HW1 1364   1.149  14.812  12.352
66489SOL    HW2 1365   1.045  14.845  12.248
66490SOL     OW 1366   0.195   9.132   1.204
66490SOL    HW1 1367   0.140   9.208   1.222
66490SOL    HW2 1368   0.201   9.087   1.288
66491SOL     OW 1369   2.564  12.293   8.400
66491SOL    HW1 1370   2.627  12.222   8.408
66491SOL    HW2 1371   2.586  12.354   8.470
66492SOL     OW 1372  13.147  10.073  10.821
66492SOL    HW1 1373  13.116   9.989  10.857
66492SOL    HW2 1374  13.214  10.048  10.757
66493SOL     OW 1375  14.749   5.075   4.582
66493SOL    HW1 1376  14.738   4.983   4.607
66493SOL    HW2 1377  14.720   5.125   4.658
66494SOL     OW 1378   8.818   2.268   9.723
66494SOL    HW1 1379   8.805   2.216   9.644
66494SOL    HW2 1380   8.904   2.240   9.756
66495SOL     OW 1381   9.968   1.629   9.720
66495SOL    HW1 1382   9.896   1.681   9.685
66495SOL    HW2 1383  10.035   1.694   9.743
66496SOL     OW 1384  12.929   1.104   5.076
66496SOL    HW1 1385  12.999   1.049   5.042
66496SOL    HW2 1386  12.936   1.185   5.026
66497SOL     OW 1387   4.032   9.874  14.841
66497SOL    HW1 1388   4.127   9.867  14.848
66497SOL    HW2 1389   4.011   9.960   0.007
66498SOL     OW 1390   9.709  12.723   9.750
66498SOL    HW1 1391   9.620  12.732   9.783
66498SOL    HW2 1392   9.712  12.636   9.712
66499SOL     OW 1393   3.672  14.619   5.027
66499SOL    HW1 1394   3.729  14.597   5.100
66499SOL    HW2 1395   3.724  14.600   4.949
66500SOL     OW 1396   3.616  12.966   6.403
66500SOL    HW1 1397   3.601  13.025   6.329
66500SOL    HW2 1398   3.539  12.908   6.404
66501SOL     OW 1399  13.700   5.466  13.778
66501SOL    HW1 1400  13.782   5.415  13.774
66501SOL    HW2 1401  13.708   5.519  13.856
66502SOL     OW 1402   2.380   4.240   2.578
66502SOL    HW1 1403   2.295   4.215   2.614
66502SOL    HW2 1404   2.406   4.165   2.524
66503SOL     OW 1405   8.813  10.833   4.841
66503SOL    HW1 1406   8.799  10.925   4.822
66503SOL    HW2 1407   8.897  10.830   4.888
66504SOL     OW 1408   9.163   3.566  12.296
66504SOL    HW1 1409   9.128   3.624  12.229
66504SOL    HW2 1410   9.109   3.487  12.289
66505SOL     OW 1411   6.745  12.405   7.594
66505SOL    HW1 1412   6.832  12.367   7.577
66505SOL    HW2 1413   6.712  12.356   7.669
66506SOL     OW 1414   4.583   1.572   2.432
66506SOL    HW1 1415   4.607   1.565   2.340
66506SOL    HW2 1416   4.666   1.592   2.476
66507SOL     OW 1417   2.290  12.315   2.844
66507SOL    HW1 1418   2.317  12.259   2.771
66507SOL    HW2 1419   2.343  12.286   2.918
66508SOL     OW 1420  13.360   2.282   4.871
66508SOL    HW1 1421  13.374   2.260   4.779
66508SOL    HW2 1422  13.310   2.208   4.905
66509SOL     OW 1423   7.280  13.094   3.239
66509SOL    HW1 1424   7.325  13.104   3.155
66509SOL    HW2 1425   7.225  13.173   3.246
66510SOL     OW 1426  10.315   6.570   5.671
66510SOL    HW1 1427  10.234   6.623   5.668
66510SOL    HW2 1428  10.367   6.602   5.597
66511SOL     OW 1429   5.871   5.391  11.006
66511SOL    HW1 1430   5.919   5.378  10.924
66511SOL    HW2 1431   5.935   5.425  11.067
66512SOL     OW 1432   1.944   8.635   0.267
66512SOL    HW1 1433   1.854   8.655   0.292
66512SOL    HW2 1434   1.952   8.665   0.177
66513SOL     OW 1435   1.321   6.327   2.939
66513SOL    HW1 1436   1.268   6.248   2.931
66513SOL    HW2 1437   1.266   6.388   2.988
66514SOL     OW 1438  14.382   5.257   6.392
66514SOL    HW1 1439  14.446   5.326   6.372
66514SOL    HW2 1440  14.351   5.228   6.306
66515SOL     OW 1441   5.951   5.396  13.531
66515SOL    HW1 1442   5.881   5.353  13.580
66515SOL    HW2 1443   6.014   5.326  13.512
66516SOL     OW 1444  14.646  12.819  14.559
66516SOL    HW1 1445  14.648  12.789  14.468
66516SOL    HW2 1446  14.735  12.849  14.576
66517SOL     OW 1447   4.134   1.291   7.408
66517SOL    HW1 1448   4.219   1.273   7.367
66517SOL    HW2 1449   4.131   1.230   7.482
66518SOL     OW 1450   4.568   3.837  14.471
66518SOL    HW1 1451   4.612   3.753  14.462
66518SOL    HW2 1452   4.599   3.872  14.555
66519SOL     OW 1453   1.637  13.252  12.804
66519SOL    HW1 1454   1.618  13.247  12.897
66519SOL    HW2 1455   1.732  13.261  12.798
66520SOL     OW 1456  12.711  12.938   9.067
66520SOL    HW1 1457  12.709  12.931   8.972
66520SOL    HW2 1458  12.798  12.972   9.087
66521SOL     OW 1459   8.258   2.486   0.642
66521SOL    HW1 1460   8.341   2.461   0.601
66521SOL    HW2 1461   8.283   2.529   0.724
66522SOL     OW 1462  13.508   8.418   2.237
66522SOL    HW1 1463  13.423   8.389   2.269
66522SOL    HW2 1464  13.567   8.345   2.253
66523SOL     OW 1465   7.152   4.382  10.325
66523SOL    HW1 1466   7.141   4.309  10.385
66523SOL    HW2 1467   7.238   4.419  10.346
66524SOL     OW 1468  14.659   3.760   8.548
66524SOL    HW1 1469  14.674   3.805   8.465
66524SOL    HW2 1470  14.567   3.736   8.547
66525SOL     OW 1471  10.783   7.430  12.178
66525SOL    HW1 1472  10.794   7.510  12.231
66525SOL    HW2 1473  10.871   7.395  12.169
66526SOL     OW 1474   8.581   8.091  14.092
66526SOL    HW1 1475   8.579   8.174  14.044
66526SOL    HW2 1476   8.668   8.087  14.130
66527SOL     OW 1477   4.731   9.578  10.842
66527SOL    HW1 1478   4.675   9.638  10.793
66527SOL    HW2 1479   4.738   9.500  10.786
66528SOL     OW 1480   5.591   5.110   9.785
66528SOL    HW1 1481   5.501   5.140   9.781
66528SOL    HW2 1482   5.627   5.152   9.863
66529SOL     OW 1483   6.189  11.801  12.971
66529SOL    HW1 1484   6.151  11.777  12.886
66529SOL    HW2 1485   6.275  11.837  12.949
66530SOL     OW 1486   7.262  12.576  13.235
66530SOL    HW1 1487   7.211  12.650  13.269
66530SOL    HW2 1488   7.208  12.541  13.163
66531SOL     OW 1489   4.568   2.573   8.075
66531SOL    HW1 1490   4.627   2.501   8.096
66531SOL    HW2 1491   4.610   2.618   8.002
66532SOL     OW 1492  10.108   8.749  14.503
66532SOL    HW1 1493  10.194   8.784  14.479
66532SOL    HW2 1494  10.074   8.813  14.566
66533SOL     OW 1495   7.406   9.772  13.509
66533SOL    HW1 1496   7.464   9.831  13.461
66533SOL    HW2 1497   7.455   9.749  13.589
66534SOL     OW 1498  10.911   1.381   9.236
66534SOL    HW1 1499  10.959   1.302   9.213
66534SOL    HW2 1500  10.832   1.377   9.182
66535SOL     OW 1501   7.681   0.701   1.832
66535SOL    HW1 1502   7.718   0.653   1.758
66535SOL    HW2 1503   7.613   0.643   1.867
66536SOL     OW 1504  10.152  13.627   0.270
66536SOL    HW1 1505  10.081  13.681   0.238
66536SOL    HW2 1506  10.190  13.677   0.342
66537SOL     OW 1507   3.005  12.540   4.735
66537SOL    HW1 1508   2.999  12.451   4.699
66537SOL    HW2 1509   3.060  12.587   4.673
66538SOL     OW 1510   8.923  14.739   4.844
66538SOL    HW1 1511   8.954  14.649   4.854
66538SOL    HW2 1512   8.829  14.734   4.864
66539SOL     OW 1513  11.727  11.632  10.007
66539SOL    HW1 1514  11.696  11.708  10.056
66539SOL    HW2 1515  11.704  11.652   9.916
66540SOL     OW 1516   8.715  14.557  12.076
66540SOL    HW1 1517   8.705  14.463  12.091
66540SOL    HW2 1518   8.627  14.588  12.058
66541SOL     OW 1519  12.835   7.442   0.219
66541SOL    HW1 1520  12.823   7.376   0.287
66541SOL    HW2 1521  12.803   7.402   0.139
66542SOL     OW 1522   9.808   4.996   4.310
66542SOL    HW1 1523   9.761   4.916   4.331
66542SOL    HW2 1524   9.801   5.004   4.215
66543SOL     OW 1525  11.281  11.391   4.463
66543SOL    HW1 1526  11.251  11.399   4.554
66543SOL    HW2 1527  11.205  11.415   4.411
66544SOL     OW 1528  13.537   4.386   8.061
66544SOL    HW1 1529  13.543   4.344   7.975
66544SOL    HW2 1530  13.623   4.372   8.101
66545SOL     OW 1531  11.878  13.131   8.684
66545SOL    HW1 1532  11.810  13.090   8.737
66545SOL    HW2 1533  11.888  13.073   8.609
66546SOL     OW 1534   5.453   5.107  12.703
66546SOL    HW1 1535   5.485   5.022  12.735
66546SOL    HW2 1536   5.528   5.147  12.660
66547SOL     OW 1537   8.011   0.447   4.481
66547SOL    HW1 1538   8.027   0.541   4.490
66547SOL    HW2 1539   8.062   0.421   4.404
66548SOL     OW 1540  13.090   8.469   6.824
66548SOL    HW1 1541  13.172   8.455   6.871
66548SOL    HW2 1542  13.101   8.555   6.782
66549SOL     OW 1543  11.346   6.765   5.716
66549SOL    HW1 1544  11.352   6.770   5.621
66549SOL    HW2 1545  11.294   6.687   5.733
66550SOL     OW 1546   8.100   8.557  11.763
66550SOL    HW1 1547   8.095   8.613  11.686
66550SOL    HW2 1548   8.194   8.550  11.782
66551SOL     OW 1549   1.479   0.303  11.908
66551SOL    HW1 1550   1.388   0.326  11.892
66551SOL    HW2 1551   1.513   0.278  11.822
66552SOL     OW 1552   2.478  11.133   9.053
66552SOL    HW1 1553   2.389  11.131   9.018
66552SOL    HW2 1554   2.467  11.152   9.146
66553SOL     OW 1555   4.227   0.968   4.176
66553SOL    HW1 1556   4.206   1.057   4.149
66553SOL    HW2 1557   4.264   0.927   4.098
66554SOL     OW 1558   2.663   3.394   7.573
66554SOL    HW1 1559   2.759   3.384   7.576
66554SOL    HW2 1560   2.636   3.394   7.665
66555SOL     OW 1561  11.286  14.645   7.936
66555SOL    HW1 1562  11.226  14.710   7.970
66555SOL    HW2 1563  11.261  14.635   7.844
66556SOL     OW 1564   9.416   6.731   4.623
66556SOL    HW1 1565   9.376   6.645   4.608
66556SOL    HW2 1566   9.504   6.711   4.656
66557SOL     OW 1567  13.116  12.250  14.395
66557SOL    HW1 1568  13.033  12.272  14.436
66557SOL    HW2 1569  13.093  12.189  14.325
66558SOL     OW 1570  11.021   7.368  14.544
66558SOL    HW1 1571  11.054   7.279  14.555
66558SOL    HW2 1572  11.003   7.397  14.634
66559SOL     OW 1573  13.484  12.480   4.310
66559SOL    HW1 1574  13.500  12.450   4.221
66559SOL    HW2 1575  13.561  12.532   4.333
66560SOL     OW 1576   5.283   5.032   4.472
66560SOL    HW1 1577   5.334   5.092   4.527
66560SOL    HW2 1578   5.239   5.089   4.409
66561SOL     OW 1579  11.315  11.050  10.836
66561SOL    HW1 1580  11.404  11.032  10.865
66561SOL    HW2 1581  11.293  10.978  10.778
66562SOL     OW 1582  13.569   0.305  13.774
66562SOL    HW1 1583  13.547   0.311  13.681
66562SOL    HW2 1584  13.630   0.232  13.780
66563SOL     OW 1585   8.682   1.354  13.025
66563SOL    HW1 1586   8.604   1.350  12.970
66563SOL    HW2 1587   8.653   1.401  13.104
66564SOL     OW 1588   4.091   7.716   0.905
66564SOL    HW1 1589   4.017   7.659   0.885
66564SOL    HW2 1590   4.110   7.761   0.823
66565SOL     OW 1591   5.422   2.239   9.294
66565SOL    HW1 1592   5.415   2.248   9.199
66565SOL    HW2 1593   5.440   2.146   9.307
66566SOL     OW 1594   5.539   0.943  10.525
66566SOL    HW1 1595   5.581   1.022  10.491
66566SOL    HW2 1596   5.448   0.968  10.539
66567SOL     OW 1597  10.490   6.047   3.892
66567SOL    HW1 1598  10.574   6.057   3.847
66567SOL    HW2 1599  10.478   5.952   3.898
66568SOL     OW 1600   7.097  10.736  10.828
66568SOL    HW1 1601   7.102  10.644  10.854
66568SOL    HW2 1602   7.152  10.742  10.750
66569SOL     OW 1603   7.668  14.541   8.781
66569SOL    HW1 1604   7.624  14.497   8.709
66569SOL    HW2 1605   7.761  14.527   8.765
66570SOL     OW 1606  11.639   7.740   9.347
66570SOL    HW1 1607  11.709   7.803   9.330
66570SOL    HW2 1608  11.640   7.682   9.271
66571SOL     OW 1609   9.035  13.392   7.335
66571SOL    HW1 1610   8.978  13.451   7.385
66571SOL    HW2 1611   9.119  13.397   7.380
66572SOL     OW 1612   2.594   3.309   9.885
66572SOL    HW1 1613   2.532   3.272   9.948
66572SOL    HW2 1614   2.662   3.348   9.940
66573SOL     OW 1615   5.338  10.377  10.127
66573SOL    HW1 1616   5.318  10.461  10.168
66573SOL    HW2 1617   5.347  10.316  10.200
66574SOL     OW 1618   3.249   7.612  12.239
66574SOL    HW1 1619   3.202   7.542  12.194
66574SOL    HW2 1620   3.335   7.575  12.259
66575SOL     OW 1621  10.672  13.319  13.278
66575SOL    HW1 1622  10.620  13.269  13.215
66575SOL    HW2 1623  10.609  13.352  13.341
66576SOL     OW 1624   6.686   1.951  11.828
66576SOL    HW1 1625   6.640   1.919  11.906
66576SOL    HW2 1626   6.775   1.916  11.837
66577SOL     OW 1627  14.590  14.828   1.318
66577SOL    HW1 1628  14.620   0.024   1.379
66577SOL    HW2 1629  14.509  14.864   1.281
66578SOL     OW 1630   6.113   5.039   3.572
66578SOL    HW1 1631   6.125   4.992   3.489
66578SOL    HW2 1632   6.116   5.131   3.548
66579SOL     OW 1633   6.823   2.924   8.261
66579SOL    HW1 1634   6.866   2.919   8.347
66579SOL    HW2 1635   6.802   2.833   8.240
66580SOL     OW 1636   7.010  11.991   6.755
66580SOL    HW1 1637   6.996  12.078   6.793
66580SOL    HW2 1638   6.925  11.967   6.717
66581SOL     OW 1639   1.631   4.555   7.032
66581SOL    HW1 1640   1.549   4.517   7.000
66581SOL    HW2 1641   1.689   4.479   7.043
66582SOL     OW 1642   6.862  14.190  11.684
66582SOL    HW1 1643   6.956  14.197  11.700
66582SOL    HW2 1644   6.822  14.218  11.766
66583SOL     OW 1645   0.005   3.579  12.359
66583SOL    HW1 1646   0.047   3.664  12.369
66583SOL    HW2 1647   0.077   3.518  12.341
66584SOL     OW 1648   9.575   1.361  14.027
66584SOL    HW1 1649   9.520   1.430  14.064
66584SOL    HW2 1650   9.574   1.291  14.093
66585SOL     OW 1651   5.396  13.161   1.476
66585SOL    HW1 1652   5.433  13.165   1.565
66585SOL    HW2 1653   5.434  13.082   1.438
66586SOL     OW 1654   7.847   0.330  13.453
66586SOL    HW1 1655   7.845   0.268  13.526
66586SOL    HW2 1656   7.926   0.382  13.468
66587SOL     OW 1657   1.372   2.428   5.742
66587SOL    HW1 1658   1.368   2.335   5.720
66587SOL    HW2 1659   1.284   2.450   5.773
66588SOL     OW 1660  12.473   7.265  12.019
66588SOL    HW1 1661  12.397   7.306  12.061
66588SOL    HW2 1662  12.543   7.330  12.026
66589SOL     OW 1663  14.649  13.734   2.729
66589SOL    HW1 1664  14.577  13.737   2.793
66589SOL    HW2 1665  14.616  13.781   2.653
66590SOL     OW 1666   9.772  10.492   0.486
66590SOL    HW1 1667   9.712  10.424   0.515
66590SOL    HW2 1668   9.859  10.460   0.510
66591SOL     OW 1669   3.958  13.797   3.641
66591SOL    HW1 1670   4.023  13.728   3.657
66591SOL    HW2 1671   3.978  13.828   3.553
66592SOL     OW 1672   1.462   1.387   6.622
66592SOL    HW1 1673   1.374   1.356   6.647
66592SOL    HW2 1674   1.513   1.307   6.612
66593SOL     OW 1675   4.756   1.727   8.846
66593SOL    HW1 1676   4.664   1.702   8.836
66593SOL    HW2 1677   4.776   1.776   8.766
66594SOL     OW 1678   7.672  13.858  11.752
66594SOL    HW1 1679   7.690  13.899  11.667
66594SOL    HW2 1680   7.584  13.889  11.775
66595SOL     OW 1681   4.116  10.090   2.183
66595SOL    HW1 1682   4.034  10.054   2.219
66595SOL    HW2 1683   4.185  10.042   2.229
66596SOL     OW 1684  13.682   0.581   0.884
66596SOL    HW1 1685  13.758   0.609   0.834
66596SOL    HW2 1686  13.631   0.528   0.822
66597SOL     OW 1687   5.806   4.599   0.802
66597SOL    HW1 1688   5.766   4.514   0.820
66597SOL    HW2 1689   5.795   4.648   0.884
66598SOL     OW 1690   3.923   1.424  11.973
66598SOL    HW1 1691   3.924   1.520  11.971
66598SOL    HW2 1692   3.835   1.400  11.944
66599SOL     OW 1693   4.374   8.366   3.264
66599SOL    HW1 1694   4.326   8.441   3.298
66599SOL    HW2 1695   4.458   8.403   3.234
66600SOL     OW 1696   6.281   0.414  12.752
66600SOL    HW1 1697   6.293   0.432  12.846
66600SOL    HW2 1698   6.233   0.489  12.719
66601SOL     OW 1699   9.830   3.748  13.801
66601SOL    HW1 1700   9.911   3.797  13.814
66601SOL    HW2 1701   9.839   3.672  13.859
66602SOL     OW 1702   2.817  11.264  14.206
66602SOL    HW1 1703   2.752  11.195  14.213
66602SOL    HW2 1704   2.799  11.306  14.121
66603SOL     OW 1705  14.431  10.594  14.721
66603SOL    HW1 1706  14.438  10.515  14.774
66603SOL    HW2 1707  14.380  10.566  14.644
66604SOL     OW 1708   8.494  12.236   6.521
66604SOL    HW1 1709   8.480  12.159   6.466
66604SOL    HW2 1710   8.503  12.201   6.610
66605SOL     OW 1711  10.298   5.745  11.495
66605SOL    HW1 1712  10.290   5.822  11.439
66605SOL    HW2 1713  10.233   5.759  11.565
66606SOL     OW 1714  12.901  10.796  10.389
66606SOL    HW1 1715  12.807  10.811  10.401
66606SOL    HW2 1716  12.943  10.876  10.418
66607SOL     OW 1717  12.520   9.559   0.792
66607SOL    HW1 1718  12.529   9.625   0.723
66607SOL    HW2 1719  12.502   9.608   0.871
66608SOL     OW 1720   0.056   8.669   9.796
66608SOL    HW1 1721   0.077   8.583   9.760
66608SOL    HW2 1722   0.052   8.726   9.719
66609SOL     OW 1723   8.220  10.333   9.931
66609SOL    HW1 1724   8.203  10.239   9.942
66609SOL    HW2 1725   8.135  10.370   9.908
66610SOL     OW 1726  14.769  12.691   4.375
66610SOL    HW1 1727  14.769  12.641   4.294
66610SOL    HW2 1728  14.843  12.656   4.425
66611SOL     OW 1729   6.675   5.062  11.831
66611SOL    HW1 1730   6.610   5.100  11.771
66611SOL    HW2 1731   6.642   5.084  11.918
66612SOL     OW 1732   6.405   4.929  14.528
66612SOL    HW1 1733   6.427   4.930  14.434
66612SOL    HW2 1734   6.326   4.876  14.532
66613SOL     OW 1735  11.995   3.411   5.695
66613SOL    HW1 1736  11.902   3.427   5.685
66613SOL    HW2 1737  12.015   3.344   5.629
66614SOL     OW 1738   7.918  12.623  14.085
66614SOL    HW1 1739   7.988  12.592  14.143
66614SOL    HW2 1740   7.945  12.596  13.998
66615SOL     OW 1741   3.725   5.442   6.857
66615SOL    HW1 1742   3.774   5.464   6.936
66615SOL    HW2 1743   3.637   5.422   6.888
66616SOL     OW 1744  13.015   8.050  10.290
66616SOL    HW1 1745  13.075   7.986  10.252
66616SOL    HW2 1746  13.070   8.105  10.346
66617SOL     OW 1747   0.231  11.779   1.319
66617SOL    HW1 1748   0.241  11.726   1.240
66617SOL    HW2 1749   0.174  11.851   1.293
66618SOL     OW 1750   6.809   5.963  13.955
66618SOL    HW1 1751   6.885   5.906  13.941
66618SOL    HW2 1752   6.738   5.904  13.980
66619SOL     OW 1753  12.053   1.017   6.141
66619SOL    HW1 1754  11.972   0.980   6.107
66619SOL    HW2 1755  12.067   0.973   6.225
66620SOL     OW 1756   5.245   8.581   8.664
66620SOL    HW1 1757   5.290   8.659   8.697
66620SOL    HW2 1758   5.217   8.605   8.576
66621SOL     OW 1759   7.796   2.186   8.306
66621SOL    HW1 1760   7.758   2.271   8.328
66621SOL    HW2 1761   7.871   2.208   8.249
66622SOL     OW 1762  11.276  13.445  12.672
66622SOL    HW1 1763  11.193  13.485  12.696
66622SOL    HW2 1764  11.272  13.356  12.706
66623SOL     OW 1765   4.036   8.858   3.923
66623SOL    HW1 1766   4.010   8.933   3.870
66623SOL    HW2 1767   4.034   8.891   4.013
66624SOL     OW 1768   4.786   8.693   1.072
66624SOL    HW1 1769   4.696   8.690   1.102
66624SOL    HW2 1770   4.792   8.776   1.023
66625SOL     OW 1771   3.571   8.967   8.646
66625SOL    HW1 1772   3.586   8.995   8.736
66625SOL    HW2 1773   3.559   8.872   8.652
66626SOL     OW 1774   1.301  10.296   4.375
66626SOL    HW1 1775   1.373  10.346   4.336
66626SOL    HW2 1776   1.308  10.209   4.335
66627SOL     OW 1777   6.780  11.073  12.658
66627SOL    HW1 1778   6.874  11.064  12.675
66627SOL    HW2 1779   6.766  11.026  12.576
66628SOL     OW 1780   1.007  12.071   1.289
66628SOL    HW1 1781   0.986  12.162   1.266
66628SOL    HW2 1782   0.965  12.058   1.375
66629SOL     OW 1783  10.283   5.270  13.403
66629SOL    HW1 1784  10.313   5.357  13.375
66629SOL    HW2 1785  10.218   5.245  13.338
66630SOL     OW 1786   9.300   2.533   6.683
66630SOL    HW1 1787   9.294   2.629   6.689
66630SOL    HW2 1788   9.394   2.516   6.677
66631SOL     OW 1789   4.905  10.668   2.026
66631SOL    HW1 1790   4.827  10.714   2.058
66631SOL    HW2 1791   4.918  10.597   2.089
66632SOL     OW 1792   0.346   7.117  12.675
66632SOL    HW1 1793   0.398   7.194  12.654
66632SOL    HW2 1794   0.385   7.047  12.623
66633SOL     OW 1795   0.762  11.514  11.536
66633SOL    HW1 1796   0.830  11.567  11.577
66633SOL    HW2 1797   0.728  11.570  11.466
66634SOL     OW 1798   9.338   0.269   1.262
66634SOL    HW1 1799   9.248   0.240   1.253
66634SOL    HW2 1800   9.335   0.362   1.240
66635SOL     OW 1801   8.391   2.397   4.094
66635SOL    HW1 1802   8.400   2.325   4.031
66635SOL    HW2 1803   8.310   2.441   4.068
66636SOL     OW 1804  10.653   9.344  14.321
66636SOL    HW1 1805  10.710   9.306  14.255
66636SOL    HW2 1806  10.572   9.364  14.275
66637SOL     OW 1807  12.677  11.175   1.000
66637SOL    HW1 1808  12.752  11.178   1.060
66637SOL    HW2 1809  12.671  11.264   0.966
66638SOL     OW 1810   3.693   2.936  14.615
66638SOL    HW1 1811   3.642   2.904  14.540
66638SOL    HW2 1812   3.643   2.909  14.691
66639SOL     OW 1813   0.394   8.114   7.350
66639SOL    HW1 1814   0.367   8.176   7.417
66639SOL    HW2 1815   0.410   8.168   7.272
66640SOL     OW 1816   2.668  14.814   1.941
66640SOL    HW1 1817   2.627   0.024   1.970
66640SOL    HW2 1818   2.749  14.842   1.899
66641SOL     OW 1819   1.783   8.006   3.368
66641SOL    HW1 1820   1.856   8.042   3.418
66641SOL    HW2 1821   1.742   7.943   3.427
66642SOL     OW 1822   7.324  12.210   8.899
66642SOL    HW1 1823   7.284  12.184   8.816
66642SOL    HW2 1824   7.306  12.303   8.908
66643SOL     OW 1825   9.641   8.414   0.562
66643SOL    HW1 1826   9.733   8.437   0.566
66643SOL    HW2 1827   9.600   8.465   0.632
66644SOL     OW 1828   4.432  12.977  12.199
66644SOL    HW1 1829   4.455  12.896  12.244
66644SOL    HW2 1830   4.458  12.963  12.108
66645SOL     OW 1831  11.943   4.713   2.631
66645SOL    HW1 1832  11.981   4.669   2.555
66645SOL    HW2 1833  11.967   4.658   2.705
66646SOL     OW 1834   0.593   8.862   5.920
66646SOL    HW1 1835   0.659   8.900   5.978
66646SOL    HW2 1836   0.530   8.933   5.906
66647SOL     OW 1837   1.959   1.803  10.538
66647SOL    HW1 1838   1.911   1.824  10.458
66647SOL    HW2 1839   2.000   1.885  10.564
66648SOL     OW 1840   1.405  11.649   0.856
66648SOL    HW1 1841   1.471  11.648   0.925
66648SOL    HW2 1842   1.455  11.660   0.775
66649SOL     OW 1843  12.988  10.940   8.975
66649SOL    HW1 1844  13.033  10.932   9.058
66649SOL    HW2 1845  12.901  10.903   8.991
66650SOL     OW 1846  11.041   1.200  10.550
66650SOL    HW1 1847  11.060   1.236  10.464
66650SOL    HW2 1848  11.108   1.133  10.564
66651SOL     OW 1849  14.755   2.526   4.383
66651SOL    HW1 1850  14.770   2.546   4.476
66651SOL    HW2 1851  14.670   2.565   4.364
66652SOL     OW 1852   3.488   2.178   7.679
66652SOL    HW1 1853   3.566   2.122   7.673
66652SOL    HW2 1854   3.501   2.244   7.611
66653SOL     OW 1855   5.802  12.197  14.062
66653SOL    HW1 1856   5.845  12.116  14.036
66653SOL    HW2 1857   5.708  12.178  14.057
66654SOL     OW 1858  12.917   7.962   3.221
66654SOL    HW1 1859  12.841   8.005   3.183
66654SOL    HW2 1860  12.881   7.888   3.269
66655SOL     OW 1861  13.116   0.421   7.176
66655SOL    HW1 1862  13.186   0.487   7.173
66655SOL    HW2 1863  13.106   0.401   7.268
66656SOL     OW 1864   9.898   2.578  14.445
66656SOL    HW1 1865   9.837   2.617  14.507
66656SOL    HW2 1866   9.971   2.546  14.499
66657SOL     OW 1867   0.714   1.804   7.151
66657SOL    HW1 1868   0.788   1.797   7.089
66657SOL    HW2 1869   0.731   1.885   7.199
66658SOL     OW 1870   4.667  11.908   9.496
66658SOL    HW1 1871   4.734  11.872   9.554
66658SOL    HW2 1872   4.640  11.835   9.441
66659SOL     OW 1873   5.083  14.223   4.383
66659SOL    HW1 1874   5.027  14.279   4.329
66659SOL    HW2 1875   5.022  14.180   4.443
66660SOL     OW 1876   9.094   8.945  11.335
66660SOL    HW1 1877   9.109   8.970  11.426
66660SOL    HW2 1878   9.099   8.849  11.335
66661SOL     OW 1879   6.801  13.224   5.167
66661SOL    HW1 1880   6.872  13.192   5.222
66661SOL    HW2 1881   6.742  13.149   5.158
66662SOL     OW 1882  10.689  10.122   1.023
66662SOL    HW1 1883  10.623  10.192   1.027
66662SOL    HW2 1884  10.769  10.164   1.055
66663SOL     OW 1885   9.417   4.941  13.392
66663SOL    HW1 1886   9.332   4.921  13.353
66663SOL    HW2 1887   9.404   4.928  13.486
66664SOL     OW 1888   1.160  12.931  11.132
66664SOL    HW1 1889   1.237  12.928  11.075
66664SOL    HW2 1890   1.087  12.947  11.072
66665SOL     OW 1891   3.909   5.557   0.221
66665SOL    HW1 1892   3.817   5.576   0.208
66665SOL    HW2 1893   3.948   5.640   0.248
66666SOL     OW 1894   2.090   7.647   3.019
66666SOL    HW1 1895   2.026   7.677   3.083
66666SOL    HW2 1896   2.049   7.571   2.977
66667SOL     OW 1897   6.820   3.519   5.674
66667SOL    HW1 1898   6.832   3.445   5.733
66667SOL    HW2 1899   6.814   3.595   5.732
66668SOL     OW 1900   6.789   6.957   1.425
66668SOL    HW1 1901   6.806   6.887   1.362
66668SOL    HW2 1902   6.876   6.987   1.451
66669SOL     OW 1903  13.195  13.446   6.715
66669SOL    HW1 1904  13.274  13.461   6.663
66669SOL    HW2 1905  13.216  13.482   6.802
66670SOL     OW 1906  12.483   4.302  14.538
66670SOL    HW1 1907  12.550   4.370  14.533
66670SOL    HW2 1908  12.514   4.243  14.606
66671SOL     OW 1909  12.897  14.628   4.151
66671SOL    HW1 1910  12.810  14.604   4.183
66671SOL    HW2 1911  12.931  14.690   4.215
66672SOL     OW 1912   0.795  13.089   4.810
66672SOL    HW1 1913   0.760  13.017   4.863
66672SOL    HW2 1914   0.888  13.089   4.830
66673SOL     OW 1915  13.060  11.827   4.413
66673SOL    HW1 1916  13.133  11.770   4.434
66673SOL    HW2 1917  13.023  11.851   4.498
66674SOL     OW 1918  12.380  10.073  12.732
66674SOL    HW1 1919  12.330  10.105  12.658
66674SOL    HW2 1920  12.315  10.061  12.802
66675SOL     OW 1921   8.170   9.137  10.181
66675SOL    HW1 1922   8.138   9.120  10.092
66675SOL    HW2 1923   8.158   9.055  10.227
66676SOL     OW 1924  12.114   4.044   3.560
66676SOL    HW1 1925  12.048   4.018   3.495
66676SOL    HW2 1926  12.143   3.961   3.598
66677SOL     OW 1927   6.061   0.261  12.538
66677SOL    HW1 1928   5.997   0.231  12.473
66677SOL    HW2 1929   6.089   0.347  12.506
66678SOL     OW 1930   9.928  11.187   2.002
66678SOL    HW1 1931   9.859  11.219   2.062
66678SOL    HW2 1932  10.004  11.172   2.059
66679SOL     OW 1933  11.960   3.455  13.501
66679SOL    HW1 1934  11.940   3.395  13.573
66679SOL    HW2 1935  11.896   3.526  13.510
66680SOL     OW 1936   8.499   9.980   2.908
66680SOL    HW1 1937   8.419  10.016   2.870
66680SOL    HW2 1938   8.539  10.053   2.955
66681SOL     OW 1939   3.116   0.356  13.998
66681SOL    HW1 1940   3.086   0.381  13.910
66681SOL    HW2 1941   3.050   0.293  14.028
66682SOL     OW 1942  10.754  11.854  13.683
66682SOL    HW1 1943  10.753  11.911  13.760
66682SOL    HW2 1944  10.683  11.887  13.627
66683SOL     OW 1945   0.579  13.668  13.301
66683SOL    HW1 1946   0.635  13.742  13.278
66683SOL    HW2 1947   0.624  13.626  13.374
66684SOL     OW 1948  14.796  12.116   5.242
66684SOL    HW1 1949   0.000  12.168   5.215
66684SOL    HW2 1950  14.729  12.135   5.176
66685SOL     OW 1951   5.793  13.785   6.396
66685SOL    HW1 1952   5.823  13.870   6.363
66685SOL    HW2 1953   5.793  13.794   6.491
66686SOL     OW 1954  14.008  11.954   7.955
66686SOL    HW1 1955  13.923  11.913   7.971
66686SOL    HW2 1956  13.987  12.034   7.907
66687SOL     OW 1957  13.705   8.091  10.981
66687SOL    HW1 1958  13.731   8.135  10.900
66687SOL    HW2 1959  13.662   8.010  10.952
66688SOL     OW 1960   2.585   4.849   5.889
66688SOL    HW1 1961   2.631   4.773   5.852
66688SOL    HW2 1962   2.654   4.900   5.931
66689SOL     OW 1963  12.410   5.025   2.058
66689SOL    HW1 1964  12.503   5.013   2.041
66689SOL    HW2 1965  12.378   4.936   2.076
66690SOL     OW 1966   4.655  11.850  13.613
66690SOL    HW1 1967   4.701  11.918  13.564
66690SOL    HW2 1968   4.563  11.874  13.606
66691SOL     OW 1969   3.491   9.995   2.348
66691SOL    HW1 1970   3.442   9.943   2.412
66691SOL    HW2 1971   3.490   9.943   2.268
66692SOL     OW 1972  10.263   6.301  12.579
66692SOL    HW1 1973  10.289   6.393  12.578
66692SOL    HW2 1974  10.301   6.265  12.499
66693SOL     OW 1975   5.836   2.963   4.327
66693SOL    HW1 1976   5.905   2.912   4.284
66693SOL    HW2 1977   5.764   2.964   4.265
66694SOL     OW 1978   8.389   5.532   9.231
66694SOL    HW1 1979   8.408   5.438   9.229
66694SOL    HW2 1980   8.403   5.557   9.322
66695SOL     OW 1981   7.937   1.729   4.452
66695SOL    HW1 1982   7.911   1.792   4.384
66695SOL    HW2 1983   8.033   1.729   4.449
66696SOL     OW 1984   0.118   8.422   5.034
66696SOL    HW1 1985   0.067   8.491   4.993
66696SOL    HW2 1986   0.057   8.350   5.047
66697SOL     OW 1987  13.447   9.862   6.375
66697SOL    HW1 1988  13.467   9.773   6.345
66697SOL    HW2 1989  13.353   9.860   6.393
66698SOL     OW 1990   4.606   9.799   6.496
66698SOL    HW1 1991   4.581   9.891   6.486
66698SOL    HW2 1992   4.562   9.771   6.577
66699SOL     OW 1993   3.228   7.287   9.174
66699SOL    HW1 1994   3.319   7.264   9.155
66699SOL    HW2 1995   3.178   7.253   9.100
66700SOL     OW 1996   5.069  11.826  12.412
66700SOL    HW1 1997   5.134  11.759  12.388
66700SOL    HW2 1998   5.117  11.909  12.403
66701SOL     OW 1999   2.818   3.519   4.105
66701SOL    HW1 2000   2.904   3.542   4.070
66701SOL    HW2 2001   2.765   3.499   4.027
66702SOL     OW 2002   7.734   6.769   5.688
66702SOL    HW1 2003   7.695   6.756   5.602
66702SOL    HW2 2004   7.732   6.682   5.728
66703SOL     OW 2005   6.282   6.336   2.598
66703SOL    HW1 2006   6.229   6.299   2.528
66703SOL    HW2 2007   6.227   6.331   2.676
66704SOL     OW 2008   0.535   2.375   2.047
66704SOL    HW1 2009   0.524   2.470   2.046
66704SOL    HW2 2010   0.447   2.340   2.059
66705SOL     OW 2011   3.397  14.147   4.610
66705SOL    HW1 2012   3.417  14.226   4.560
66705SOL    HW2 2013   3.340  14.096   4.552
66706SOL     OW 2014   5.881   4.753   7.979
66706SOL    HW1 2015   5.961   4.790   8.018
66706SOL    HW2 2016   5.877   4.664   8.013
66707SOL     OW 2017   5.096  13.598  10.265
66707SOL    HW1 2018   5.079  13.512  10.306
66707SOL    HW2 2019   5.023  13.653  10.295
66708SOL     OW 2020  10.608  11.064  13.761
66708SOL    HW1 2021  10.606  11.124  13.835
66708SOL    HW2 2022  10.534  11.004  13.776
66709SOL     OW 2023  14.128  13.009   8.636
66709SOL    HW1 2024  14.221  13.013   8.658
66709SOL    HW2 2025  14.088  12.962   8.709
66710SOL     OW 2026  13.601   0.743   8.454
66710SOL    HW1 2027  13.575   0.808   8.388
66710SOL    HW2 2028  13.570   0.659   8.419
66711SOL     OW 2029   9.865   9.324  12.042
66711SOL    HW1 2030   9.833   9.285  12.123
66711SOL    HW2 2031   9.845   9.417  12.050
66712SOL     OW 2032   0.232   9.138   3.242
66712SOL    HW1 2033   0.240   9.200   3.314
66712SOL    HW2 2034   0.307   9.157   3.185
66713SOL     OW 2035   6.965  13.771   2.510
66713SOL    HW1 2036   7.003  13.836   2.568
66713SOL    HW2 2037   6.925  13.822   2.440
66714SOL     OW 2038   0.520   0.496  14.656
66714SOL    HW1 2039   0.433   0.509  14.617
66714SOL    HW2 2040   0.504   0.452  14.739
66715SOL     OW 2041   9.160   7.394  13.338
66715SOL    HW1 2042   9.125   7.386  13.249
66715SOL    HW2 2043   9.223   7.466  13.333
66716SOL     OW 2044  10.378  14.221  12.222
66716SOL    HW1 2045  10.446  14.213  12.156
66716SOL    HW2 2046  10.399  14.302  12.268
66717SOL     OW 2047   5.614  13.660  13.444
66717SOL    HW1 2048   5.669  13.720  13.394
66717SOL    HW2 2049   5.528  13.667  13.402
66718SOL     OW 2050   4.026  10.137  10.096
66718SOL    HW1 2051   4.069  10.101  10.173
66718SOL    HW2 2052   3.933  10.118  10.110
66719SOL     OW 2053   7.335   0.752   5.702
66719SOL    HW1 2054   7.382   0.808   5.763
66719SOL    HW2 2055   7.272   0.810   5.660
66720SOL     OW 2056   7.074   4.708  12.367
66720SOL    HW1 2057   7.109   4.753  12.444
66720SOL    HW2 2058   6.982   4.737  12.362
66721SOL     OW 2059   4.897   5.166   3.874
66721SOL    HW1 2060   4.895   5.238   3.937
66721SOL    HW2 2061   4.984   5.129   3.884
66722SOL     OW 2062  10.455  13.905   0.934
66722SOL    HW1 2063  10.450  14.000   0.943
66722SOL    HW2 2064  10.534  13.890   0.882
66723SOL     OW 2065   4.426   1.300  10.329
66723SOL    HW1 2066   4.510   1.324  10.291
66723SOL    HW2 2067   4.364   1.307  10.257
66724SOL     OW 2068   0.102   6.485  11.060
66724SOL    HW1 2069   0.181   6.530  11.089
66724SOL    HW2 2070   0.049   6.477  11.139
66725SOL     OW 2071  11.835   3.293   0.935
66725SOL    HW1 2072  11.783   3.217   0.962
66725SOL    HW2 2073  11.863   3.333   1.017
66726SOL     OW 2074   2.215  10.072  10.207
66726SOL    HW1 2075   2.162  10.072  10.127
66726SOL    HW2 2076   2.208   9.982  10.241
66727SOL     OW 2077   5.206   8.989   6.080
66727SOL    HW1 2078   5.172   8.908   6.042
66727SOL    HW2 2079   5.299   8.972   6.095
66728SOL     OW 2080   1.624   4.783  12.529
66728SOL    HW1 2081   1.646   4.875  12.542
66728SOL    HW2 2082   1.689   4.751  12.467
66729SOL     OW 2083   0.179  10.482   9.029
66729SOL    HW1 2084   0.215  10.510   9.113
66729SOL    HW2 2085   0.094  10.525   9.023
66730SOL     OW 2086   2.419   8.566  10.466
66730SOL    HW1 2087   2.335   8.534  10.501
66730SOL    HW2 2088   2.473   8.487  10.458
66731SOL     OW 2089   2.826  11.481   6.546
66731SOL    HW1 2090   2.831  11.536   6.625
66731SOL    HW2 2091   2.809  11.393   6.580
66732SOL     OW 2092  11.916   0.900  12.892
66732SOL    HW1 2093  11.963   0.979  12.865
66732SOL    HW2 2094  11.944   0.833  12.829
66733SOL     OW 2095   1.155   6.620   4.675
66733SOL    HW1 2096   1.203   6.588   4.599
66733SOL    HW2 2097   1.073   6.571   4.675
66734SOL     OW 2098   4.603   1.476  11.385
66734SOL    HW1 2099   4.568   1.439  11.304
66734SOL    HW2 2100   4.684   1.520  11.359
66735SOL     OW 2101   2.793  12.989   5.291
66735SOL    HW1 2102   2.741  12.945   5.223
66735SOL    HW2 2103   2.831  13.065   5.246
66736SOL     OW 2104   6.802  10.245   3.334
66736SOL    HW1 2105   6.726  10.234   3.391
66736SOL    HW2 2106   6.777  10.199   3.254
66737SOL     OW 2107   4.452  12.520  14.719
66737SOL    HW1 2108   4.434  12.522  14.625
66737SOL    HW2 2109   4.544  12.545  14.726
66738SOL     OW 2110   2.119   4.572   1.953
66738SOL    HW1 2111   2.059   4.544   1.884
66738SOL    HW2 2112   2.187   4.505   1.956
66739SOL     OW 2113  12.470   8.817   8.600
66739SOL    HW1 2114  12.394   8.822   8.542
66739SOL    HW2 2115  12.445   8.868   8.677
66740SOL     OW 2116   0.380   2.109  12.074
66740SOL    HW1 2117   0.442   2.112  12.002
66740SOL    HW2 2118   0.346   2.020  12.074
66741SOL     OW 2119   2.332   8.007  12.940
66741SOL    HW1 2120   2.388   8.050  13.004
66741SOL    HW2 2121   2.306   8.077  12.879
66742SOL     OW 2122  13.036   1.706  13.241
66742SOL    HW1 2123  13.026   1.791  13.284
66742SOL    HW2 2124  12.998   1.643  13.303
66743SOL     OW 2125   5.125   8.187   1.363
66743SOL    HW1 2126   5.112   8.279   1.387
66743SOL    HW2 2127   5.101   8.183   1.271
66744SOL     OW 2128  10.802   2.160  11.516
66744SOL    HW1 2129  10.774   2.070  11.536
66744SOL    HW2 2130  10.769   2.212  11.589
66745SOL     OW 2131   2.517  13.339   0.932
66745SOL    HW1 2132   2.527  13.331   1.027
66745SOL    HW2 2133   2.434  13.385   0.920
66746SOL     OW 2134   1.071   5.740   8.510
66746SOL    HW1 2135   1.162   5.710   8.505
66746SOL    HW2 2136   1.042   5.742   8.419
66747SOL     OW 2137   2.255   7.405   4.923
66747SOL    HW1 2138   2.223   7.489   4.956
66747SOL    HW2 2139   2.348   7.405   4.945
66748SOL     OW 2140  14.676   4.304  12.772
66748SOL    HW1 2141  14.666   4.366  12.700
66748SOL    HW2 2142  14.639   4.222  12.739
66749SOL     OW 2143  13.501   1.308   0.339
66749SOL    HW1 2144  13.524   1.299   0.247
66749SOL    HW2 2145  13.581   1.336   0.382
66750SOL     OW 2146  14.536  11.067   0.342
66750SOL    HW1 2147  14.631  11.069   0.332
66750SOL    HW2 2148  14.507  11.155   0.317
66751SOL     OW 2149   7.015  12.961   6.360
66751SOL    HW1 2150   7.042  13.052   6.352
66751SOL    HW2 2151   7.018  12.943   6.454
66752SOL     OW 2152   4.406   4.715  10.209
66752SOL    HW1 2153   4.326   4.726  10.158
66752SOL    HW2 2154   4.410   4.622  10.229
66753SOL     OW 2155   3.990   8.823   7.487
66753SOL    HW1 2156   4.052   8.878   7.438
66753SOL    HW2 2157   3.994   8.738   7.443
66754SOL     OW 2158  12.819  13.534   2.005
66754SOL    HW1 2159  12.903  13.528   1.958
66754SOL    HW2 2160  12.834  13.483   2.084
66755SOL     OW 2161  12.310   2.282   2.877
66755SOL    HW1 2162  12.296   2.359   2.933
66755SOL    HW2 2163  12.342   2.214   2.936
66756SOL     OW 2164  10.044   9.783   2.486
66756SOL    HW1 2165  10.084   9.774   2.573
66756SOL    HW2 2166  10.095   9.723   2.430
66757SOL     OW 2167   7.011   7.417   1.822
66757SOL    HW1 2168   7.043   7.347   1.878
66757SOL    HW2 2169   6.982   7.373   1.742
66758SOL     OW 2170   5.520   4.065   5.427
66758SOL    HW1 2171   5.491   4.057   5.336
66758SOL    HW2 2172   5.510   4.158   5.448
66759SOL     OW 2173   1.182   1.942   2.672
66759SOL    HW1 2174   1.275   1.923   2.661
66759SOL    HW2 2175   1.180   2.031   2.706
66760SOL     OW 2176  13.507   9.662   3.847
66760SOL    HW1 2177  13.507   9.661   3.752
66760SOL    HW2 2178  13.596   9.637   3.871
66761SOL     OW 2179  13.341  13.374  13.702
66761SOL    HW1 2180  13.401  13.319  13.752
66761SOL    HW2 2181  13.399  13.431  13.650
66762SOL     OW 2182   3.875  11.493  13.560
66762SOL    HW1 2183   3.784  11.513  13.542
66762SOL    HW2 2184   3.891  11.409  13.518
66763SOL     OW 2185  14.804   7.212  10.071
66763SOL    HW1 2186  14.858   7.290  10.061
66763SOL    HW2 2187  14.804   7.195  10.165
66764SOL     OW 2188   2.968  14.060   4.188
66764SOL    HW1 2189   3.017  14.095   4.263
66764SOL    HW2 2190   2.974  14.129   4.122
66765SOL     OW 2191   0.445  12.653   7.435
66765SOL    HW1 2192   0.350  12.649   7.428
66765SOL    HW2 2193   0.470  12.733   7.390
66766SOL     OW 2194  13.449  13.067   5.183
66766SOL    HW1 2195  13.416  13.024   5.104
66766SOL    HW2 2196  13.528  13.113   5.154
66767SOL     OW 2197   7.724   6.179   6.697
66767SOL    HW1 2198   7.717   6.154   6.605
66767SOL    HW2 2199   7.706   6.098   6.745
66768SOL     OW 2200   1.351  14.694   5.612
66768SOL    HW1 2201   1.333  14.783   5.582
66768SOL    HW2 2202   1.370  14.645   5.533
66769SOL     OW 2203  10.337   8.743   2.937
66769SOL    HW1 2204  10.421   8.781   2.909
66769SOL    HW2 2205  10.318   8.677   2.871
66770SOL     OW 2206  13.459   1.759   2.109
66770SOL    HW1 2207  13.537   1.710   2.136
66770SOL    HW2 2208  13.390   1.728   2.167
66771SOL     OW 2209  14.135   0.911  10.605
66771SOL    HW1 2210  14.205   0.942  10.662
66771SOL    HW2 2211  14.107   0.988  10.556
66772SOL     OW 2212   1.737   6.051  13.773
66772SOL    HW1 2213   1.790   5.972  13.762
66772SOL    HW2 2214   1.797   6.117  13.806
66773SOL     OW 2215  13.449   2.127  14.033
66773SOL    HW1 2216  13.490   2.090  13.955
66773SOL    HW2 2217  13.378   2.066  14.054
66774SOL     OW 2218  13.036   4.981  11.361
66774SOL    HW1 2219  13.028   5.046  11.291
66774SOL    HW2 2220  13.065   4.901  11.318
66775SOL     OW 2221   9.527   4.648  10.942
66775SOL    HW1 2222   9.435   4.660  10.918
66775SOL    HW2 2223   9.528   4.568  10.995
66776SOL     OW 2224   7.766  14.118  12.666
66776SOL    HW1 2225   7.678  14.110  12.702
66776SOL    HW2 2226   7.813  14.175  12.728
66777SOL     OW 2227   6.281   9.025   3.159
66777SOL    HW1 2228   6.196   9.053   3.126
66777SOL    HW2 2229   6.337   9.023   3.081
66778SOL     OW 2230   5.845  13.870  11.901
66778SOL    HW1 2231   5.826  13.779  11.921
66778SOL    HW2 2232   5.793  13.890  11.824
66779SOL     OW 2233   5.174   5.977   8.111
66779SOL    HW1 2234   5.208   5.909   8.053
66779SOL    HW2 2235   5.251   6.022   8.143
66780SOL     OW 2236  11.172  13.232  13.477
66780SOL    HW1 2237  11.230  13.180  13.421
66780SOL    HW2 2238  11.095  13.250  13.423
66781SOL     OW 2239   1.780  12.135   6.874
66781SOL    HW1 2240   1.838  12.126   6.949
66781SOL    HW2 2241   1.838  12.154   6.801
66782SOL     OW 2242   8.685  11.001   2.716
66782SOL    HW1 2243   8.707  11.016   2.808
66782SOL    HW2 2244   8.695  11.087   2.675
66783SOL     OW 2245   9.230   8.865   1.413
66783SOL    HW1 2246   9.183   8.917   1.348
66783SOL    HW2 2247   9.275   8.930   1.468
66784SOL     OW 2248   2.138   6.892   1.208
66784SOL    HW1 2249   2.114   6.814   1.159
66784SOL    HW2 2250   2.112   6.965   1.151
66785SOL     OW 2251   0.387   6.083   5.651
66785SOL    HW1 2252   0.309   6.136   5.670
66785SOL    HW2 2253   0.352   5.995   5.637
66786SOL     OW 2254   4.783   8.500   1.991
66786SOL    HW1 2255   4.704   8.450   2.009
66786SOL    HW2 2256   4.787   8.567   2.059
66787SOL     OW 2257  10.890   8.168  11.588
66787SOL    HW1 2258  10.916   8.250  11.546
66787SOL    HW2 2259  10.824   8.131  11.529
66788SOL     OW 2260   0.094  13.117   8.277
66788SOL    HW1 2261   0.170  13.162   8.241
66788SOL    HW2 2262   0.084  13.039   8.223
66789SOL     OW 2263   4.661   8.442   8.542
66789SOL    HW1 2264   4.692   8.527   8.572
66789SOL    HW2 2265   4.739   8.387   8.543
66790SOL     OW 2266   2.731   0.011   1.484
66790SOL    HW1 2267   2.819  14.854   1.461
66790SOL    HW2 2268   2.744   0.081   1.548
66791SOL     OW 2269   2.096   5.602  12.379
66791SOL    HW1 2270   2.109   5.614  12.473
66791SOL    HW2 2271   2.129   5.514  12.361
66792SOL     OW 2272   4.737   5.041  11.675
66792SOL    HW1 2273   4.822   5.078  11.699
66792SOL    HW2 2274   4.695   5.110  11.623
66793SOL     OW 2275   1.063  10.292   4.504
66793SOL    HW1 2276   1.145  10.314   4.461
66793SOL    HW2 2277   1.077  10.316   4.596
66794SOL     OW 2278   4.630  12.333   7.106
66794SOL    HW1 2279   4.708  12.278   7.118
66794SOL    HW2 2280   4.561  12.272   7.079
66795SOL     OW 2281   6.227   5.350   8.718
66795SOL    HW1 2282   6.278   5.402   8.655
66795SOL    HW2 2283   6.227   5.261   8.682
66796SOL     OW 2284   9.774   8.946   8.048
66796SOL    HW1 2285   9.803   8.880   7.985
66796SOL    HW2 2286   9.854   8.970   8.095
66797SOL     OW 2287   8.236   4.128   7.536
66797SOL    HW1 2288   8.288   4.126   7.616
66797SOL    HW2 2289   8.226   4.221   7.515
66798SOL     OW 2290  10.318   8.528  10.452
66798SOL    HW1 2291  10.231   8.567  10.465
66798SOL    HW2 2292  10.313   8.488  10.365
66799SOL     OW 2293  14.690   7.659   8.664
66799SOL    HW1 2294  14.709   7.680   8.572
66799SOL    HW2 2295  14.709   7.565   8.670
66800SOL     OW 2296   0.804  12.920  13.806
66800SOL    HW1 2297   0.785  12.990  13.743
66800SOL    HW2 2298   0.809  12.841  13.753
66801SOL     OW 2299   8.157   8.032  12.222
66801SOL    HW1 2300   8.137   8.004  12.311
66801SOL    HW2 2301   8.243   8.074  12.229
66802SOL     OW 2302   7.876   4.252   4.364
66802SOL    HW1 2303   7.844   4.255   4.454
66802SOL    HW2 2304   7.960   4.299   4.367
66803SOL     OW 2305   9.962  13.882   8.365
66803SOL    HW1 2306   9.955  13.969   8.326
66803SOL    HW2 2307   9.989  13.826   8.292
66804SOL     OW 2308   1.952   7.223   8.546
66804SOL    HW1 2309   1.935   7.317   8.544
66804SOL    HW2 2310   1.936   7.194   8.456
66805SOL     OW 2311   8.104  13.701   3.077
66805SOL    HW1 2312   8.088  13.641   3.004
66805SOL    HW2 2313   8.022  13.750   3.086
66806SOL     OW 2314  10.902   2.757   1.160
66806SOL    HW1 2315  10.952   2.678   1.180
66806SOL    HW2 2316  10.968   2.821   1.132
66807SOL     OW 2317   5.564  10.033   4.950
66807SOL    HW1 2318   5.531  10.102   5.008
66807SOL    HW2 2319   5.485   9.994   4.913
66808SOL     OW 2320   9.331   4.065   3.423
66808SOL    HW1 2321   9.294   4.056   3.335
66808SOL    HW2 2322   9.335   4.160   3.438
66809SOL     OW 2323   1.596   5.765  14.771
66809SOL    HW1 2324   1.574   5.772  14.864
66809SOL    HW2 2325   1.565   5.679  14.745
66810SOL     OW 2326  13.154   1.931   6.260
66810SOL    HW1 2327  13.145   1.838   6.241
66810SOL    HW2 2328  13.087   1.948   6.327
66811SOL     OW 2329   5.212   1.063  13.125
66811SOL    HW1 2330   5.159   1.131  13.165
66811SOL    HW2 2331   5.193   0.984  13.177
66812SOL     OW 2332   2.210   1.709   3.194
66812SOL    HW1 2333   2.212   1.686   3.287
66812SOL    HW2 2334   2.272   1.649   3.153
66813SOL     OW 2335   9.126  11.457   8.821
66813SOL    HW1 2336   9.169  11.443   8.905
66813SOL    HW2 2337   9.185  11.514   8.773
66814SOL     OW 2338   8.062  13.003  13.767
66814SOL    HW1 2339   8.018  13.043  13.693
66814SOL    HW2 2340   7.992  12.960  13.817
66815SOL     OW 2341   1.183   3.629   4.670
66815SOL    HW1 2342   1.124   3.602   4.740
66815SOL    HW2 2343   1.218   3.713   4.699
66816SOL     OW 2344   3.324  11.202   1.025
66816SOL    HW1 2345   3.370  11.224   1.106
66816SOL    HW2 2346   3.237  11.240   1.035
66817SOL     OW 2347   2.536   3.399  14.537
66817SOL    HW1 2348   2.469   3.454  14.577
66817SOL    HW2 2349   2.509   3.392  14.445
66818SOL     OW 2350   0.594   8.216   2.646
66818SOL    HW1 2351   0.499   8.218   2.638
66818SOL    HW2 2352   0.626   8.259   2.567
66819SOL     OW 2353   9.143   9.130  14.696
66819SOL    HW1 2354   9.068   9.187  14.715
66819SOL    HW2 2355   9.156   9.138  14.602
66820SOL     OW 2356   7.422   2.785  14.547
66820SOL    HW1 2357   7.489   2.755  14.609
66820SOL    HW2 2358   7.348   2.728  14.562
66821SOL     OW 2359   0.329   8.342   8.127
66821SOL    HW1 2360   0.414   8.382   8.142
66821SOL    HW2 2361   0.349   8.252   8.101
66822SOL     OW 2362  13.592   3.837   4.532
66822SOL    HW1 2363  13.603   3.931   4.548
66822SOL    HW2 2364  13.545   3.805   4.608
66823SOL     OW 2365  10.594   3.821  14.277
66823SOL    HW1 2366  10.543   3.744  14.252
66823SOL    HW2 2367  10.672   3.785  14.321
66824SOL     OW 2368   8.247   7.570   4.174
66824SOL    HW1 2369   8.251   7.666   4.178
66824SOL    HW2 2370   8.198   7.545   4.252
66825SOL     OW 2371   3.905  11.773  11.378
66825SOL    HW1 2372   3.817  11.778  11.414
66825SOL    HW2 2373   3.910  11.686  11.337
66826SOL     OW 2374   0.823   6.138   9.332
66826SOL    HW1 2375   0.831   6.053   9.288
66826SOL    HW2 2376   0.897   6.188   9.299
66827SOL     OW 2377  14.059  14.145   9.382
66827SOL    HW1 2378  13.975  14.183   9.355
66827SOL    HW2 2379  14.054  14.054   9.352
66828SOL     OW 2380   8.039  13.498   2.902
66828SOL    HW1 2381   7.968  13.459   2.953
66828SOL    HW2 2382   8.039  13.448   2.820
66829SOL     OW 2383  13.649   5.351  11.724
66829SOL    HW1 2384  13.737   5.323  11.699
66829SOL    HW2 2385  13.598   5.344  11.643
66830SOL     OW 2386   2.520  12.828   4.475
66830SOL    HW1 2387   2.465  12.750   4.473
66830SOL    HW2 2388   2.473  12.892   4.422
66831SOL     OW 2389  13.387  14.144  14.266
66831SOL    HW1 2390  13.322  14.089  14.309
66831SOL    HW2 2391  13.445  14.082  14.221
66832SOL     OW 2392   2.965   7.635   9.498
66832SOL    HW1 2393   2.908   7.559   9.484
66832SOL    HW2 2394   3.053   7.602   9.478
66833SOL     OW 2395   1.864  13.054   1.440
66833SOL    HW1 2396   1.864  13.130   1.382
66833SOL    HW2 2397   1.945  13.008   1.418
66834SOL     OW 2398   4.024   8.555   4.184
66834SOL    HW1 2399   3.989   8.531   4.098
66834SOL    HW2 2400   4.109   8.511   4.189
66835SOL     OW 2401   5.645   1.395   8.157
66835SOL    HW1 2402   5.739   1.386   8.173
66835SOL    HW2 2403   5.605   1.388   8.244
66836SOL     OW 2404   0.812   5.536  12.604
66836SOL    HW1 2405   0.774   5.494  12.682
66836SOL    HW2 2406   0.824   5.627  12.630
66837SOL     OW 2407   1.142   0.054   8.694
66837SOL    HW1 2408   1.085   0.094   8.629
66837SOL    HW2 2409   1.207   0.121   8.714
66838SOL     OW 2410  13.641   2.737   7.091
66838SOL    HW1 2411  13.590   2.677   7.146
66838SOL    HW2 2412  13.576   2.795   7.052
66839SOL     OW 2413   9.268   7.855   9.231
66839SOL    HW1 2414   9.361   7.834   9.234
66839SOL    HW2 2415   9.252   7.879   9.140
66840SOL     OW 2416  10.961   1.159   1.646
66840SOL    HW1 2417  11.021   1.199   1.709
66840SOL    HW2 2418  10.880   1.209   1.655
66841SOL     OW 2419  10.410   1.098  14.162
66841SOL    HW1 2420  10.373   1.032  14.103
66841SOL    HW2 2421  10.337   1.158  14.178
66842SOL     OW 2422   9.008   4.993   0.491
66842SOL    HW1 2423   8.968   4.909   0.469
66842SOL    HW2 2424   9.102   4.974   0.493
66843SOL     OW 2425  12.027  13.770  10.584
66843SOL    HW1 2426  11.973  13.806  10.654
66843SOL    HW2 2427  12.115  13.766  10.621
66844SOL     OW 2428   0.212  12.531  14.422
66844SOL    HW1 2429   0.307  12.539  14.418
66844SOL    HW2 2430   0.189  12.474  14.349
66845SOL     OW 2431  11.700  10.058   4.144
66845SOL    HW1 2432  11.710   9.976   4.096
66845SOL    HW2 2433  11.765  10.117   4.105
66846SOL     OW 2434   4.032   4.362  10.834
66846SOL    HW1 2435   4.010   4.337  10.744
66846SOL    HW2 2436   3.959   4.329  10.886
66847SOL     OW 2437   4.294   9.063   3.519
66847SOL    HW1 2438   4.266   8.977   3.487
66847SOL    HW2 2439   4.388   9.065   3.505
66848SOL     OW 2440   7.999  12.110   4.819
66848SOL    HW1 2441   7.938  12.124   4.747
66848SOL    HW2 2442   8.080  12.152   4.790
66849SOL     OW 2443   1.985  14.324  10.988
66849SOL    HW1 2444   2.001  14.350  10.898
66849SOL    HW2 2445   1.938  14.398  11.027
66850SOL     OW 2446   6.655  14.011   4.447
66850SOL    HW1 2447   6.672  13.917   4.449
66850SOL    HW2 2448   6.652  14.037   4.539
66851SOL     OW 2449  12.762   5.230   7.118
66851SOL    HW1 2450  12.739   5.158   7.178
66851SOL    HW2 2451  12.752   5.192   7.031
66852SOL     OW 2452  13.881  11.641  12.512
66852SOL    HW1 2453  13.912  11.676  12.429
66852SOL    HW2 2454  13.862  11.548  12.493
66853SOL     OW 2455  11.184  12.186   7.863
66853SOL    HW1 2456  11.234  12.218   7.938
66853SOL    HW2 2457  11.206  12.092   7.858
66854SOL     OW 2458   5.477  10.031   0.108
66854SOL    HW1 2459   5.453   9.966   0.174
66854SOL    HW2 2460   5.461  10.116   0.151
66855SOL     OW 2461   3.726   5.292  13.912
66855SOL    HW1 2462   3.757   5.254  13.994
66855SOL    HW2 2463   3.634   5.264  13.905
66856SOL     OW 2464   4.710  13.973  11.316
66856SOL    HW1 2465   4.775  14.000  11.250
66856SOL    HW2 2466   4.762  13.940  11.389
66857SOL     OW 2467   3.915   1.469  11.669
66857SOL    HW1 2468   3.863   1.545  11.694
66857SOL    HW2 2469   4.006   1.499  11.678
66858SOL     OW 2470  12.274   7.262  12.293
66858SOL    HW1 2471  12.182   7.285  12.283
66858SOL    HW2 2472  12.275   7.166  12.289
66859SOL     OW 2473   5.004  14.437  12.882
66859SOL    HW1 2474   5.089  14.402  12.857
66859SOL    HW2 2475   4.949  14.359  12.896
66860SOL     OW 2476   6.051  12.714   6.508
66860SOL    HW1 2477   5.970  12.680   6.470
66860SOL    HW2 2478   6.120  12.663   6.466
66861SOL     OW 2479   6.578   8.675  10.030
66861SOL    HW1 2480   6.574   8.713  10.117
66861SOL    HW2 2481   6.671   8.670  10.010
66862SOL     OW 2482   3.641  10.095   7.249
66862SOL    HW1 2483   3.546  10.085   7.250
66862SOL    HW2 2484   3.656  10.189   7.264
66863SOL     OW 2485  11.986   0.182  12.074
66863SOL    HW1 2486  11.969   0.100  12.027
66863SOL    HW2 2487  11.951   0.250  12.016
66864SOL     OW 2488   8.446   4.637   9.805
66864SOL    HW1 2489   8.438   4.589   9.722
66864SOL    HW2 2490   8.539   4.630   9.827
66865SOL     OW 2491   3.932   0.918  12.051
66865SOL    HW1 2492   3.979   0.942  11.971
66865SOL    HW2 2493   4.001   0.904  12.116
66866SOL     OW 2494   7.182   3.810   6.824
66866SOL    HW1 2495   7.271   3.816   6.858
66866SOL    HW2 2496   7.162   3.717   6.824
66867SOL     OW 2497   3.442  11.227  13.888
66867SOL    HW1 2498   3.475  11.165  13.823
66867SOL    HW2 2499   3.500  11.216  13.963
66868SOL     OW 2500  10.869  12.778  11.141
66868SOL    HW1 2501  10.828  12.824  11.214
66868SOL    HW2 2502  10.944  12.733  11.180
66869SOL     OW 2503   4.052  13.101  11.870
66869SOL    HW1 2504   4.104  13.026  11.899
66869SOL    HW2 2505   3.965  13.065  11.852
66870SOL     OW 2506   1.880   4.826   0.513
66870SOL    HW1 2507   1.870   4.738   0.550
66870SOL    HW2 2508   1.855   4.885   0.584
66871SOL     OW 2509  14.552  11.108  14.231
66871SOL    HW1 2510  14.552  11.018  14.198
66871SOL    HW2 2511  14.613  11.107  14.305
66872SOL     OW 2512  11.949   8.047   1.602
66872SOL    HW1 2513  11.872   8.063   1.546
66872SOL    HW2 2514  12.014   8.110   1.571
66873SOL     OW 2515   1.196  13.544  11.044
66873SOL    HW1 2516   1.149  13.621  11.010
66873SOL    HW2 2517   1.127  13.478  11.057
66874SOL     OW 2518  10.891   6.941  13.980
66874SOL    HW1 2519  10.975   6.942  13.935
66874SOL    HW2 2520  10.838   7.006  13.934
66875SOL     OW 2521   4.323   4.943   3.468
66875SOL    HW1 2522   4.286   4.882   3.405
66875SOL    HW2 2523   4.417   4.925   3.466
66876SOL     OW 2524   9.007  14.545   5.642
66876SOL    HW1 2525   8.980  14.520   5.731
66876SOL    HW2 2526   8.954  14.621   5.621
66877SOL     OW 2527   6.994  13.532   9.992
66877SOL    HW1 2528   6.907  13.506  10.024
66877SOL    HW2 2529   7.053  13.467  10.029
66878SOL     OW 2530   9.797  10.555   6.633
66878SOL    HW1 2531   9.734  10.487   6.606
66878SOL    HW2 2532   9.881  10.509   6.636
66879SOL     OW 2533   5.322   5.508   6.550
66879SOL    HW1 2534   5.264   5.551   6.487
66879SOL    HW2 2535   5.397   5.567   6.558
66880SOL     OW 2536   7.938  12.931   1.008
66880SOL    HW1 2537   7.871  12.864   0.991
66880SOL    HW2 2538   8.011  12.883   1.047
66881SOL     OW 2539   5.065  12.210  13.695
66881SOL    HW1 2540   4.974  12.240  13.698
66881SOL    HW2 2541   5.086  12.207  13.602
66882SOL     OW 2542   1.562  11.210   5.543
66882SOL    HW1 2543   1.550  11.222   5.638
66882SOL    HW2 2544   1.596  11.294   5.512
66883SOL     OW 2545  14.167   5.304  11.402
66883SOL    HW1 2546  14.125   5.218  11.398
66883SOL    HW2 2547  14.141   5.339  11.488
66884SOL     OW 2548   1.052   8.362  14.008
66884SOL    HW1 2549   1.109   8.312  13.950
66884SOL    HW2 2550   1.001   8.296  14.055
66885SOL     OW 2551   8.003  13.842  10.808
66885SOL    HW1 2552   8.083  13.888  10.781
66885SOL    HW2 2553   8.004  13.761  10.758
66886SOL     OW 2554   5.465   6.897  12.395
66886SOL    HW1 2555   5.558   6.901  12.417
66886SOL    HW2 2556   5.422   6.866  12.475
66887SOL     OW 2557   2.067  10.404   3.024
66887SOL    HW1 2558   2.025  10.490   3.028
66887SOL    HW2 2559   1.996  10.341   3.035
66888SOL     OW 2560   2.734  12.132   8.915
66888SOL    HW1 2561   2.808  12.164   8.864
66888SOL    HW2 2562   2.660  12.185   8.886
66889SOL     OW 2563  14.511   5.158  11.079
66889SOL    HW1 2564  14.557   5.137  11.159
66889SOL    HW2 2565  14.530   5.251  11.064
66890SOL     OW 2566   4.063   8.287  13.905
66890SOL    HW1 2567   4.021   8.245  13.831
66890SOL    HW2 2568   4.157   8.284  13.884
66891SOL     OW 2569  12.392  11.543   9.866
66891SOL    HW1 2570  12.465  11.489   9.896
66891SOL    HW2 2571  12.347  11.569   9.947
66892SOL     OW 2572   7.408  12.572   8.276
66892SOL    HW1 2573   7.480  12.556   8.337
66892SOL    HW2 2574   7.378  12.661   8.298
66893SOL     OW 2575  11.225   6.942  13.147
66893SOL    HW1 2576  11.287   7.007  13.114
66893SOL    HW2 2577  11.155   6.994  13.187
66894SOL     OW 2578   9.633   8.935   3.749
66894SOL    HW1 2579   9.726   8.958   3.750
66894SOL    HW2 2580   9.593   8.996   3.811
66895SOL     OW 2581   9.312   6.553   6.719
66895SOL    HW1 2582   9.254   6.478   6.701
66895SOL    HW2 2583   9.393   6.532   6.672
66896SOL     OW 2584   2.335  10.158  12.435
66896SOL    HW1 2585   2.402  10.112  12.486
66896SOL    HW2 2586   2.295  10.090  12.381
66897SOL     OW 2587  10.106   1.447   4.009
66897SOL    HW1 2588  10.087   1.527   3.960
66897SOL    HW2 2589  10.067   1.377   3.958
66898SOL     OW 2590   1.045   4.053   2.752
66898SOL    HW1 2591   1.038   4.013   2.666
66898SOL    HW2 2592   1.138   4.048   2.774
66899SOL     OW 2593   3.410   0.712   2.852
66899SOL    HW1 2594   3.436   0.799   2.820
66899SOL    HW2 2595   3.426   0.654   2.778
66900SOL     OW 2596   1.836  12.754   8.676
66900SOL    HW1 2597   1.794  12.787   8.596
66900SOL    HW2 2598   1.831  12.827   8.738
66901SOL     OW 2599   1.358  10.345  10.978
66901SOL    HW1 2600   1.408  10.267  11.002
66901SOL    HW2 2601   1.344  10.392  11.060
66902SOL     OW 2602  12.253   9.426  10.270
66902SOL    HW1 2603  12.171   9.473  10.284
66902SOL    HW2 2604  12.321   9.494  10.275
66903SOL     OW 2605  10.383   8.405   0.988
66903SOL    HW1 2606  10.470   8.365   1.000
66903SOL    HW2 2607  10.375   8.416   0.893
66904SOL     OW 2608  11.747   0.023   2.928
66904SOL    HW1 2609  11.712  14.806   2.942
66904SOL    HW2 2610  11.811   0.035   2.997
66905SOL     OW 2611  10.969  10.368   0.427
66905SOL    HW1 2612  10.968  10.324   0.342
66905SOL    HW2 2613  11.060  10.390   0.442
66906SOL     OW 2614  10.630   6.758   8.614
66906SOL    HW1 2615  10.626   6.853   8.604
66906SOL    HW2 2616  10.540   6.728   8.603
66907SOL     OW 2617   5.591  10.604   0.144
66907SOL    HW1 2618   5.585  10.532   0.081
66907SOL    HW2 2619   5.569  10.564   0.228
66908SOL     OW 2620  14.851  13.261   1.747
66908SOL    HW1 2621   0.020  13.175   1.734
66908SOL    HW2 2622  14.776  13.262   1.688
66909SOL     OW 2623   8.580  13.666   7.957
66909SOL    HW1 2624   8.619  13.654   8.044
66909SOL    HW2 2625   8.525  13.589   7.944
66910SOL     OW 2626   9.779   5.004   3.157
66910SOL    HW1 2627   9.854   4.953   3.186
66910SOL    HW2 2628   9.752   5.053   3.234
66911SOL     OW 2629   9.192  12.205   8.371
66911SOL    HW1 2630   9.280  12.223   8.338
66911SOL    HW2 2631   9.137  12.201   8.293
66912SOL     OW 2632  14.054   9.855  12.905
66912SOL    HW1 2633  13.992   9.913  12.948
66912SOL    HW2 2634  14.054   9.776  12.958
66913SOL     OW 2635   0.545   1.400   7.866
66913SOL    HW1 2636   0.453   1.412   7.889
66913SOL    HW2 2637   0.592   1.407   7.949
66914SOL     OW 2638   3.831  14.322   6.254
66914SOL    HW1 2639   3.806  14.235   6.283
66914SOL    HW2 2640   3.818  14.320   6.159
66915SOL     OW 2641  11.587   6.534  10.048
66915SOL    HW1 2642  11.598   6.545  10.142
66915SOL    HW2 2643  11.511   6.587  10.026
66916SOL     OW 2644   6.057   9.149   4.400
66916SOL    HW1 2645   6.007   9.153   4.319
66916SOL    HW2 2646   5.995   9.117   4.465
66917SOL     OW 2647   9.462   4.693   1.527
66917SOL    HW1 2648   9.466   4.599   1.513
66917SOL    HW2 2649   9.369   4.715   1.519
66918SOL     OW 2650   5.892   7.139  13.301
66918SOL    HW1 2651   5.927   7.162  13.215
66918SOL    HW2 2652   5.919   7.211  13.358
66919SOL     OW 2653  12.872  11.628   0.740
66919SOL    HW1 2654  12.824  11.688   0.797
66919SOL    HW2 2655  12.882  11.548   0.791
66920SOL     OW 2656   2.916  14.068  10.475
66920SOL    HW1 2657   2.849  14.003  10.457
66920SOL    HW2 2658   2.925  14.118  10.394
66921SOL     OW 2659  12.363  11.159   6.620
66921SOL    HW1 2660  12.448  11.200   6.636
66921SOL    HW2 2661  12.311  11.226   6.575
66922SOL     OW 2662  14.155  10.847   0.537
66922SOL    HW1 2663  14.197  10.927   0.504
66922SOL    HW2 2664  14.137  10.867   0.629
66923SOL     OW 2665  12.778   8.866   6.105
66923SOL    HW1 2666  12.729   8.855   6.023
66923SOL    HW2 2667  12.866   8.835   6.084
66924SOL     OW 2668   6.942  12.456  13.763
66924SOL    HW1 2669   6.919  12.534  13.713
66924SOL    HW2 2670   6.892  12.464  13.844
66925SOL     OW 2671  12.570   0.886   1.599
66925SOL    HW1 2672  12.637   0.829   1.561
66925SOL    HW2 2673  12.537   0.837   1.674
66926SOL     OW 2674   1.248   7.712   6.465
66926SOL    HW1 2675   1.286   7.649   6.526
66926SOL    HW2 2676   1.261   7.797   6.507
66927SOL     OW 2677   3.069  13.842   9.092
66927SOL    HW1 2678   3.122  13.920   9.111
66927SOL    HW2 2679   3.133  13.771   9.084
66928SOL     OW 2680   4.894   8.602   3.771
66928SOL    HW1 2681   4.810   8.647   3.765
66928SOL    HW2 2682   4.882   8.522   3.719
66929SOL     OW 2683  13.134   9.895   8.036
66929SOL    HW1 2684  13.039   9.903   8.041
66929SOL    HW2 2685  13.166   9.957   8.101
66930SOL     OW 2686   8.476  13.459   9.439
66930SOL    HW1 2687   8.544  13.441   9.504
66930SOL    HW2 2688   8.423  13.379   9.438
66931SOL     OW 2689   6.436   2.247  11.516
66931SOL    HW1 2690   6.353   2.201  11.513
66931SOL    HW2 2691   6.495   2.195  11.461
66932SOL     OW 2692  12.744   6.338   6.851
66932SOL    HW1 2693  12.712   6.397   6.919
66932SOL    HW2 2694  12.717   6.251   6.880
66933SOL     OW 2695  10.276   6.155   1.605
66933SOL    HW1 2696  10.358   6.184   1.645
66933SOL    HW2 2697  10.296   6.068   1.570
66934SOL     OW 2698  11.809   0.439   3.597
66934SOL    HW1 2699  11.859   0.489   3.533
66934SOL    HW2 2700  11.717   0.458   3.577
66935SOL     OW 2701   1.167   7.910  11.635
66935SOL    HW1 2702   1.088   7.920  11.688
66935SOL    HW2 2703   1.137   7.919  11.545
66936SOL     OW 2704  12.735   0.735   1.452
66936SOL    HW1 2705  12.820   0.712   1.490
66936SOL    HW2 2706  12.745   0.718   1.358
66937SOL     OW 2707  13.670   6.336   1.065
66937SOL    HW1 2708  13.703   6.249   1.044
66937SOL    HW2 2709  13.680   6.386   0.984
66938SOL     OW 2710  13.752   6.054  12.741
66938SOL    HW1 2711  13.824   5.996  12.765
66938SOL    HW2 2712  13.786   6.143  12.756
66939SOL     OW 2713  14.185  13.398   9.418
66939SOL    HW1 2714  14.188  13.466   9.486
66939SOL    HW2 2715  14.258  13.419   9.360
66940SOL     OW 2716   6.215  13.456   4.977
66940SOL    HW1 2717   6.140  13.400   4.958
66940SOL    HW2 2718   6.251  13.422   5.059
66941SOL     OW 2719   8.411   2.904   0.418
66941SOL    HW1 2720   8.476   2.851   0.463
66941SOL    HW2 2721   8.328   2.858   0.432
66942SOL     OW 2722   3.760  13.277  10.872
66942SOL    HW1 2723   3.787  13.185  10.868
66942SOL    HW2 2724   3.666  13.274  10.856
66943SOL     OW 2725   4.334   5.433  10.625
66943SOL    HW1 2726   4.298   5.517  10.655
66943SOL    HW2 2727   4.417   5.425  10.673
66944SOL     OW 2728   7.878   2.554  14.167
66944SOL    HW1 2729   7.811   2.497  14.129
66944SOL    HW2 2730   7.932   2.496  14.220
66945SOL     OW 2731  13.749  13.871   6.809
66945SOL    HW1 2732  13.799  13.792   6.787
66945SOL    HW2 2733  13.775  13.936   6.744
66946SOL     OW 2734   7.444  13.015   5.011
66946SOL    HW1 2735   7.426  13.074   4.938
66946SOL    HW2 2736   7.518  12.962   4.982
66947SOL     OW 2737  11.061   0.203   5.713
66947SOL    HW1 2738  10.985   0.248   5.675
66947SOL    HW2 2739  11.025   0.123   5.752
66948SOL     OW 2740   3.682   4.105   2.743
66948SOL    HW1 2741   3.674   4.042   2.814
66948SOL    HW2 2742   3.721   4.182   2.784
66949SOL     OW 2743  10.179   3.628   3.533
66949SOL    HW1 2744  10.233   3.705   3.516
66949SOL    HW2 2745  10.115   3.658   3.598
66950SOL     OW 2746  12.753   5.572   0.325
66950SOL    HW1 2747  12.698   5.574   0.404
66950SOL    HW2 2748  12.691   5.587   0.253
66951SOL     OW 2749  12.446  14.001   2.265
66951SOL    HW1 2750  12.356  13.972   2.278
66951SOL    HW2 2751  12.454  14.082   2.315
66952SOL     OW 2752  11.922  13.365  12.053
66952SOL    HW1 2753  11.877  13.389  11.972
66952SOL    HW2 2754  11.859  13.385  12.122
66953SOL     OW 2755   6.585  12.947  10.496
66953SOL    HW1 2756   6.614  12.857  10.510
66953SOL    HW2 2757   6.587  12.960  10.401
66954SOL     OW 2758   0.065   3.906  10.151
66954SOL    HW1 2759   0.099   3.913  10.062
66954SOL    HW2 2760  14.842   3.919  10.142
66955SOL     OW 2761   5.073  10.979  14.477
66955SOL    HW1 2762   5.121  11.026  14.546
66955SOL    HW2 2763   5.127  10.902  14.459
66956SOL     OW 2764  13.001   8.434   4.608
66956SOL    HW1 2765  12.984   8.440   4.514
66956SOL    HW2 2766  13.088   8.396   4.615
66957SOL     OW 2767   4.295  12.004   4.051
66957SOL    HW1 2768   4.314  12.058   3.974
66957SOL    HW2 2769   4.357  11.931   4.045
66958SOL     OW 2770   8.514   5.843   4.822
66958SOL    HW1 2771   8.576   5.804   4.760
66958SOL    HW2 2772   8.500   5.775   4.887
66959SOL     OW 2773   7.010   5.373   9.511
66959SOL    HW1 2774   7.004   5.365   9.606
66959SOL    HW2 2775   6.983   5.288   9.478
66960SOL     OW 2776   2.454  11.417   1.497
66960SOL    HW1 2777   2.464  11.508   1.524
66960SOL    HW2 2778   2.482  11.416   1.405
66961SOL     OW 2779  13.426   4.487  11.683
66961SOL    HW1 2780  13.344   4.494  11.635
66961SOL    HW2 2781  13.402   4.449  11.767
66962SOL     OW 2782   3.667   0.029  14.379
66962SOL    HW1 2783   3.616  14.858  14.310
66962SOL    HW2 2784   3.613   0.104  14.405
66963SOL     OW 2785   9.441  13.178   4.822
66963SOL    HW1 2786   9.479  13.239   4.885
66963SOL    HW2 2787   9.420  13.100   4.872
66964SOL     OW 2788   9.785  13.216  11.444
66964SOL    HW1 2789   9.796  13.182  11.355
66964SOL    HW2 2790   9.697  13.254  11.445
66965SOL     OW 2791  10.955   6.655   2.914
66965SOL    HW1 2792  10.870   6.664   2.871
66965SOL    HW2 2793  10.942   6.689   3.002
66966SOL     OW 2794  13.259  12.143   3.174
66966SOL    HW1 2795  13.266  12.078   3.244
66966SOL    HW2 2796  13.173  12.182   3.186
66967SOL     OW 2797   6.973   0.821   9.537
66967SOL    HW1 2798   7.050   0.804   9.483
66967SOL    HW2 2799   7.007   0.839   9.624
66968SOL     OW 2800   6.133   8.898   1.225
66968SOL    HW1 2801   6.177   8.819   1.256
66968SOL    HW2 2802   6.057   8.907   1.283
66969SOL     OW 2803   7.050   2.480   1.799
66969SOL    HW1 2804   6.974   2.497   1.743
66969SOL    HW2 2805   7.090   2.566   1.812
66970SOL     OW 2806   0.547   1.675   3.537
66970SOL    HW1 2807   0.529   1.671   3.631
66970SOL    HW2 2808   0.479   1.621   3.497
66971SOL     OW 2809  10.323   7.872  14.685
66971SOL    HW1 2810  10.281   7.796  14.645
66971SOL    HW2 2811  10.305   7.945  14.625
66972SOL     OW 2812  12.316   1.594   5.533
66972SOL    HW1 2813  12.297   1.631   5.447
66972SOL    HW2 2814  12.235   1.605   5.583
66973SOL     OW 2815   5.116   8.299   9.303
66973SOL    HW1 2816   5.152   8.364   9.243
66973SOL    HW2 2817   5.022   8.301   9.287
66974SOL     OW 2818   8.313   3.173  10.467
66974SOL    HW1 2819   8.232   3.199  10.423
66974SOL    HW2 2820   8.383   3.203  10.410
66975SOL     OW 2821   6.839  11.736   6.476
66975SOL    HW1 2822   6.923  11.782   6.485
66975SOL    HW2 2823   6.856  11.667   6.412
66976SOL     OW 2824   3.092  11.689   1.392
66976SOL    HW1 2825   3.037  11.621   1.354
66976SOL    HW2 2826   3.103  11.753   1.322
66977SOL     OW 2827   0.479   9.773   0.619
66977SOL    HW1 2828   0.556   9.814   0.580
66977SOL    HW2 2829   0.420   9.759   0.545
66978SOL     OW 2830   0.410   4.024  12.699
66978SOL    HW1 2831   0.328   4.058  12.663
66978SOL    HW2 2832   0.435   3.954  12.639
66979SOL     OW 2833  12.799  13.217   0.462
66979SOL    HW1 2834  12.744  13.153   0.508
66979SOL    HW2 2835  12.737  13.267   0.409
66980SOL     OW 2836  12.743   3.734   4.979
66980SOL    HW1 2837  12.777   3.796   5.044
66980SOL    HW2 2838  12.751   3.649   5.021
66981SOL     OW 2839   3.255  10.554   3.000
66981SOL    HW1 2840   3.252  10.646   2.976
66981SOL    HW2 2841   3.170  10.537   3.042
66982SOL     OW 2842   5.089   9.896  12.777
66982SOL    HW1 2843   5.126   9.930  12.859
66982SOL    HW2 2844   5.123   9.806  12.772
66983SOL     OW 2845  14.829   5.982   1.176
66983SOL    HW1 2846   0.004   6.065   1.166
66983SOL    HW2 2847  14.751   6.003   1.227
66984SOL     OW 2848   2.277  13.648   4.650
66984SOL    HW1 2849   2.288  13.735   4.688
66984SOL    HW2 2850   2.242  13.594   4.721
66985SOL     OW 2851   7.117   0.853   5.479
66985SOL    HW1 2852   7.159   0.865   5.394
66985SOL    HW2 2853   7.084   0.763   5.477
66986SOL     OW 2854   7.854   0.954   6.541
66986SOL    HW1 2855   7.945   0.969   6.567
66986SOL    HW2 2856   7.843   0.859   6.544
66987SOL     OW 2857   5.682   6.154   9.844
66987SOL    HW1 2858   5.643   6.239   9.824
66987SOL    HW2 2859   5.609   6.099   9.870
66988SOL     OW 2860   6.297   0.832   9.340
66988SOL    HW1 2861   6.308   0.925   9.355
66988SOL    HW2 2862   6.381   0.802   9.305
66989SOL     OW 2863   9.629   3.505  10.715
66989SOL    HW1 2864   9.599   3.499  10.806
66989SOL    HW2 2865   9.721   3.529  10.723
66990SOL     OW 2866   6.371   5.387   2.549
66990SOL    HW1 2867   6.328   5.434   2.621
66990SOL    HW2 2868   6.357   5.294   2.569
66991SOL     OW 2869   3.845   1.631   2.185
66991SOL    HW1 2870   3.936   1.599   2.180
66991SOL    HW2 2871   3.852   1.725   2.175
66992SOL     OW 2872   1.756   9.201  13.201
66992SOL    HW1 2873   1.700   9.203  13.278
66992SOL    HW2 2874   1.789   9.290  13.192
66993SOL     OW 2875   8.166   7.830   9.118
66993SOL    HW1 2876   8.100   7.851   9.052
66993SOL    HW2 2877   8.130   7.753   9.163
66994SOL     OW 2878   7.138  10.664  13.542
66994SOL    HW1 2879   7.197  10.623  13.479
66994SOL    HW2 2880   7.061  10.689  13.490
66995SOL     OW 2881  14.297   0.173  11.884
66995SOL    HW1 2882  14.233   0.102  11.887
66995SOL    HW2 2883  14.377   0.134  11.922
66996SOL     OW 2884  13.499   2.335   5.474
66996SOL    HW1 2885  13.467   2.425   5.473
66996SOL    HW2 2886  13.430   2.284   5.431
66997SOL     OW 2887   5.563   1.702   0.292
66997SOL    HW1 2888   5.504   1.674   0.363
66997SOL    HW2 2889   5.552   1.636   0.224
66998SOL     OW 2890  12.201  11.426   4.541
66998SOL    HW1 2891  12.137  11.487   4.577
66998SOL    HW2 2892  12.286  11.462   4.567
66999SOL     OW 2893   5.803   0.684   4.608
66999SOL    HW1 2894   5.723   0.653   4.565
66999SOL    HW2 2895   5.861   0.608   4.609
67000SOL     OW 2896   6.728   3.940  13.883
67000SOL    HW1 2897   6.654   3.925  13.823
67000SOL    HW2 2898   6.769   4.020  13.850
67001SOL     OW 2899   7.283   9.109   3.705
67001SOL    HW1 2900   7.267   9.027   3.658
67001SOL    HW2 2901   7.357   9.149   3.659
67002SOL     OW 2902  10.360   4.033   5.936
67002SOL    HW1 2903  10.284   4.045   5.993
67002SOL    HW2 2904  10.407   4.116   5.941
67003SOL     OW 2905  10.856   4.454  11.191
67003SOL    HW1 2906  10.949   4.468  11.205
67003SOL    HW2 2907  10.850   4.366  11.154
67004SOL     OW 2908  11.211  13.564   9.831
67004SOL    HW1 2909  11.270  13.639   9.839
67004SOL    HW2 2910  11.168  13.558   9.916
67005SOL     OW 2911   3.239   0.460   5.625
67005SOL    HW1 2912   3.215   0.410   5.547
67005SOL    HW2 2913   3.211   0.549   5.606
67006SOL     OW 2914  10.904  12.570   5.206
67006SOL    HW1 2915  10.964  12.585   5.133
67006SOL    HW2 2916  10.908  12.476   5.221
67007SOL     OW 2917   8.627   5.024   5.606
67007SOL    HW1 2918   8.597   5.064   5.688
67007SOL    HW2 2919   8.561   4.957   5.588
67008SOL     OW 2920   3.709   2.925   9.186
67008SOL    HW1 2921   3.652   2.998   9.159
67008SOL    HW2 2922   3.759   2.960   9.259
67009SOL     OW 2923  14.189   3.230  11.572
67009SOL    HW1 2924  14.213   3.311  11.617
67009SOL    HW2 2925  14.262   3.171  11.589
67010SOL     OW 2926   2.861  14.089  12.633
67010SOL    HW1 2927   2.768  14.081  12.613
67010SOL    HW2 2928   2.873  14.181  12.655
67011SOL     OW 2929   7.289   4.318   5.211
67011SOL    HW1 2930   7.361   4.340   5.152
67011SOL    HW2 2931   7.220   4.381   5.190
67012SOL     OW 2932   5.428   5.553   1.037
67012SOL    HW1 2933   5.375   5.513   1.106
67012SOL    HW2 2934   5.365   5.583   0.971
67013SOL     OW 2935  12.985  14.836  11.682
67013SOL    HW1 2936  13.074  14.833  11.716
67013SOL    HW2 2937  12.986   0.035  11.617
67014SOL     OW 2938   9.454   7.927   5.005
67014SOL    HW1 2939   9.533   7.897   5.051
67014SOL    HW2 2940   9.483   8.000   4.952
67015SOL     OW 2941  11.679   0.277   6.288
67015SOL    HW1 2942  11.611   0.242   6.347
67015SOL    HW2 2943  11.633   0.341   6.235
67016SOL     OW 2944   2.072  11.499  14.351
67016SOL    HW1 2945   2.025  11.567  14.401
67016SOL    HW2 2946   2.084  11.539  14.264
67017SOL     OW 2947   7.380   7.139   0.273
67017SOL    HW1 2948   7.424   7.155   0.189
67017SOL    HW2 2949   7.339   7.053   0.262
67018SOL     OW 2950   6.390   1.974   0.907
67018SOL    HW1 2951   6.344   1.908   0.959
67018SOL    HW2 2952   6.395   2.051   0.964
67019SOL     OW 2953   8.890   5.528   2.603
67019SOL    HW1 2954   8.962   5.539   2.666
67019SOL    HW2 2955   8.838   5.456   2.639
67020SOL     OW 2956   0.546   9.908  13.005
67020SOL    HW1 2957   0.554   9.832  13.063
67020SOL    HW2 2958   0.636   9.935  12.989
67021SOL     OW 2959  10.184   9.607   4.318
67021SOL    HW1 2960  10.236   9.628   4.396
67021SOL    HW2 2961  10.248   9.600   4.247
67022SOL     OW 2962  12.070  11.319  10.671
67022SOL    HW1 2963  12.074  11.362  10.585
67022SOL    HW2 2964  12.155  11.336  10.710
67023SOL     OW 2965  12.098   6.910   9.403
67023SOL    HW1 2966  12.178   6.897   9.453
67023SOL    HW2 2967  12.031   6.861   9.451
67024SOL     OW 2968   2.839   0.162  11.404
67024SOL    HW1 2969   2.856   0.230  11.339
67024SOL    HW2 2970   2.771   0.108  11.366
67025SOL     OW 2971   3.254  10.516   3.389
67025SOL    HW1 2972   3.215  10.603   3.400
67025SOL    HW2 2973   3.295  10.498   3.474
67026SOL     OW 2974   7.135   3.172   3.735
67026SOL    HW1 2975   7.124   3.259   3.775
67026SOL    HW2 2976   7.211   3.135   3.780
67027SOL     OW 2977   8.729   9.847   5.176
67027SOL    HW1 2978   8.651   9.802   5.145
67027SOL    HW2 2979   8.697   9.906   5.244
67028SOL     OW 2980   4.989   3.560   3.831
67028SOL    HW1 2981   5.036   3.638   3.861
67028SOL    HW2 2982   4.979   3.572   3.737
67029SOL     OW 2983   9.193   5.385  10.964
67029SOL    HW1 2984   9.271   5.438  10.980
67029SOL    HW2 2985   9.120   5.447  10.974
67030SOL     OW 2986   1.114   3.496   9.298
67030SOL    HW1 2987   1.043   3.436   9.275
67030SOL    HW2 2988   1.123   3.489   9.393
67031SOL     OW 2989   3.265   7.031   2.693
67031SOL    HW1 2990   3.196   7.005   2.632
67031SOL    HW2 2991   3.306   6.948   2.718
67032SOL     OW 2992  11.958  14.269   9.462
67032SOL    HW1 2993  11.893  14.282   9.393
67032SOL    HW2 2994  12.034  14.232   9.416
67033SOL     OW 2995  14.528   9.890   3.374
67033SOL    HW1 2996  14.435   9.905   3.354
67033SOL    HW2 2997  14.573   9.965   3.334
67034SOL     OW 2998   7.263   0.038   6.916
67034SOL    HW1 2999   7.258   0.121   6.962
67034SOL    HW2 3000   7.349   0.037   6.876
67035SOL     OW 3001   3.908   8.776   5.027
67035SOL    HW1 3002   3.977   8.728   5.073
67035SOL    HW2 3003   3.885   8.848   5.086
67036SOL     OW 3004  13.922   9.710  10.726
67036SOL    HW1 3005  13.854   9.655  10.686
67036SOL    HW2 3006  13.945   9.665  10.807
67037SOL     OW 3007   7.068  14.330  10.457
67037SOL    HW1 3008   7.067  14.335  10.553
67037SOL    HW2 3009   7.012  14.403  10.429
67038SOL     OW 3010  11.089  10.893   8.060
67038SOL    HW1 3011  11.077  10.907   7.966
67038SOL    HW2 3012  11.106  10.980   8.096
67039SOL     OW 3013  13.362   5.156   0.351
67039SOL    HW1 3014  13.320   5.071   0.365
67039SOL    HW2 3015  13.406   5.147   0.266
67040SOL     OW 3016  12.520   1.713   1.593
67040SOL    HW1 3017  12.535   1.797   1.549
67040SOL    HW2 3018  12.578   1.652   1.549
67041SOL     OW 3019   4.820   4.947  14.357
67041SOL    HW1 3020   4.810   5.015  14.291
67041SOL    HW2 3021   4.882   4.983  14.420
67042SOL     OW 3022  13.397   0.723   9.152
67042SOL    HW1 3023  13.415   0.791   9.217
67042SOL    HW2 3024  13.313   0.687   9.178
67043SOL     OW 3025   6.194   0.457  10.570
67043SOL    HW1 3026   6.175   0.364  10.560
67043SOL    HW2 3027   6.290   0.462  10.571
67044SOL     OW 3028   4.410   5.291  11.684
67044SOL    HW1 3029   4.495   5.294  11.640
67044SOL    HW2 3030   4.431   5.290  11.777
67045SOL     OW 3031   8.685   7.215   8.922
67045SOL    HW1 3032   8.675   7.131   8.968
67045SOL    HW2 3033   8.605   7.263   8.942
67046SOL     OW 3034  11.756   3.263   7.772
67046SOL    HW1 3035  11.816   3.233   7.840
67046SOL    HW2 3036  11.803   3.249   7.690
67047SOL     OW 3037  10.404  11.851  10.091
67047SOL    HW1 3038  10.466  11.791  10.134
67047SOL    HW2 3039  10.358  11.894  10.163
67048SOL     OW 3040  13.866   6.545   7.384
67048SOL    HW1 3041  13.800   6.476   7.396
67048SOL    HW2 3042  13.899   6.531   7.295
67049SOL     OW 3043   5.223   2.520   4.450
67049SOL    HW1 3044   5.154   2.575   4.412
67049SOL    HW2 3045   5.195   2.506   4.541
67050SOL     OW 3046   6.357   9.727   8.113
67050SOL    HW1 3047   6.359   9.655   8.175
67050SOL    HW2 3048   6.309   9.796   8.158
67051SOL     OW 3049   6.654  10.400   3.838
67051SOL    HW1 3050   6.652  10.426   3.746
67051SOL    HW2 3051   6.738  10.433   3.870
67052SOL     OW 3052  12.015  12.707  10.641
67052SOL    HW1 3053  11.945  12.763  10.674
67052SOL    HW2 3054  12.095  12.759  10.654
67053SOL     OW 3055  13.531   7.128  13.577
67053SOL    HW1 3056  13.484   7.147  13.658
67053SOL    HW2 3057  13.488   7.051  13.542
67054SOL     OW 3058   3.974   6.004   6.079
67054SOL    HW1 3059   3.919   6.063   6.028
67054SOL    HW2 3060   3.983   6.046   6.164
67055SOL     OW 3061   9.999  10.388   8.577
67055SOL    HW1 3062   9.983  10.477   8.607
67055SOL    HW2 3063   9.995  10.334   8.656
67056SOL     OW 3064  11.811  13.009   5.009
67056SOL    HW1 3065  11.819  13.105   5.010
67056SOL    HW2 3066  11.877  12.979   5.072
67057SOL     OW 3067   1.207   7.871   0.068
67057SOL    HW1 3068   1.259   7.935   0.117
67057SOL    HW2 3069   1.252   7.862  14.856
67058SOL     OW 3070  10.035   3.884   2.173
67058SOL    HW1 3071   9.976   3.932   2.232
67058SOL    HW2 3072  10.032   3.794   2.205
67059SOL     OW 3073   0.029   0.377   5.284
67059SOL    HW1 3074   0.034   0.470   5.260
67059SOL    HW2 3075   0.120   0.347   5.284
67060SOL     OW 3076   3.085   9.503   0.593
67060SOL    HW1 3077   3.143   9.460   0.532
67060SOL    HW2 3078   3.140   9.566   0.640
67061SOL     OW 3079   9.987   0.275   2.826
67061SOL    HW1 3080  10.036   0.213   2.773
67061SOL    HW2 3081   9.896   0.262   2.800
67062SOL     OW 3082  14.019  13.600   2.334
67062SOL    HW1 3083  13.941  13.568   2.289
67062SOL    HW2 3084  13.988  13.671   2.390
67063SOL     OW 3085  14.579  13.202   1.931
67063SOL    HW1 3086  14.529  13.277   1.963
67063SOL    HW2 3087  14.544  13.186   1.843
67064SOL     OW 3088   1.490   5.400   4.943
67064SOL    HW1 3089   1.424   5.407   4.874
67064SOL    HW2 3090   1.470   5.473   5.002
67065SOL     OW 3091   0.775  11.103   0.210
67065SOL    HW1 3092   0.837  11.129   0.278
67065SOL    HW2 3093   0.696  11.154   0.228
67066SOL     OW 3094   9.239   7.170   2.774
67066SOL    HW1 3095   9.191   7.200   2.697
67066SOL    HW2 3096   9.326   7.210   2.765
67067SOL     OW 3097  14.568   7.370  14.014
67067SOL    HW1 3098  14.612   7.428  13.951
67067SOL    HW2 3099  14.615   7.287  14.008
67068SOL     OW 3100   1.857   3.188  11.555
67068SOL    HW1 3101   1.817   3.119  11.502
67068SOL    HW2 3102   1.860   3.151  11.644
67069SOL     OW 3103   4.079   4.425   1.933
67069SOL    HW1 3104   4.053   4.364   1.864
67069SOL    HW2 3105   4.166   4.396   1.959
67070SOL     OW 3106   5.979   7.204   5.615
67070SOL    HW1 3107   5.950   7.157   5.538
67070SOL    HW2 3108   5.987   7.137   5.683
67071SOL     OW 3109   6.386  13.865   9.125
67071SOL    HW1 3110   6.470  13.847   9.167
67071SOL    HW2 3111   6.344  13.930   9.183
67072SOL     OW 3112   0.855   7.516   5.932
67072SOL    HW1 3113   0.937   7.565   5.936
67072SOL    HW2 3114   0.788   7.583   5.913
67073SOL     OW 3115  13.607   2.638   0.706
67073SOL    HW1 3116  13.620   2.719   0.756
67073SOL    HW2 3117  13.518   2.611   0.727
67074SOL     OW 3118   4.682   0.807  13.229
67074SOL    HW1 3119   4.623   0.877  13.204
67074SOL    HW2 3120   4.639   0.727  13.199
67075SOL     OW 3121   8.487  14.000   8.517
67075SOL    HW1 3122   8.483  13.918   8.567
67075SOL    HW2 3123   8.511  13.973   8.429
67076SOL     OW 3124   3.420   0.732   8.858
67076SOL    HW1 3125   3.459   0.665   8.914
67076SOL    HW2 3126   3.494   0.787   8.832
67077SOL     OW 3127  13.485   8.910   1.922
67077SOL    HW1 3128  13.485   8.895   2.016
67077SOL    HW2 3129  13.503   9.003   1.912
67078SOL     OW 3130  10.178  10.498  11.820
67078SOL    HW1 3131  10.175  10.407  11.848
67078SOL    HW2 3132  10.178  10.493  11.724
67079SOL     OW 3133  13.307   4.154  11.061
67079SOL    HW1 3134  13.332   4.122  10.974
67079SOL    HW2 3135  13.238   4.094  11.089
67080SOL     OW 3136   4.950   1.620   3.138
67080SOL    HW1 3137   4.914   1.641   3.052
67080SOL    HW2 3138   4.891   1.664   3.200
67081SOL     OW 3139   3.607   4.038   2.212
67081SOL    HW1 3140   3.618   3.975   2.141
67081SOL    HW2 3141   3.629   3.989   2.291
67082SOL     OW 3142  13.979  12.173   6.485
67082SOL    HW1 3143  13.918  12.099   6.478
67082SOL    HW2 3144  13.968  12.205   6.574
67083SOL     OW 3145   3.296   3.653  11.873
67083SOL    HW1 3146   3.230   3.629  11.938
67083SOL    HW2 3147   3.274   3.743  11.848
67084SOL     OW 3148   3.301   6.509   9.200
67084SOL    HW1 3149   3.206   6.516   9.206
67084SOL    HW2 3150   3.322   6.425   9.241
67085SOL     OW 3151  12.771   3.060  12.533
67085SOL    HW1 3152  12.712   2.985  12.546
67085SOL    HW2 3153  12.803   3.081  12.621
67086SOL     OW 3154  14.360   7.139   5.237
67086SOL    HW1 3155  14.332   7.098   5.319
67086SOL    HW2 3156  14.282   7.185   5.206
67087SOL     OW 3157   3.219   0.541   1.930
67087SOL    HW1 3158   3.272   0.523   1.852
67087SOL    HW2 3159   3.260   0.618   1.969
67088SOL     OW 3160   7.046   0.302   0.666
67088SOL    HW1 3161   7.011   0.307   0.578
67088SOL    HW2 3162   7.005   0.375   0.713
67089SOL     OW 3163   6.548   4.038   0.043
67089SOL    HW1 3164   6.543   3.943   0.047
67089SOL    HW2 3165   6.524   4.060  14.825
67090SOL     OW 3166   6.270  10.046   3.710
67090SOL    HW1 3167   6.231  10.072   3.793
67090SOL    HW2 3168   6.364  10.065   3.720
67091SOL     OW 3169  13.810  11.519   5.995
67091SOL    HW1 3170  13.842  11.604   5.965
67091SOL    HW2 3171  13.806  11.528   6.090
67092SOL     OW 3172  11.647  13.310   0.576
67092SOL    HW1 3173  11.631  13.219   0.603
67092SOL    HW2 3174  11.631  13.310   0.482
67093SOL     OW 3175  10.266  12.248   8.025
67093SOL    HW1 3176  10.271  12.321   7.964
67093SOL    HW2 3177  10.274  12.288   8.112
67094SOL     OW 3178   9.081   9.336   6.806
67094SOL    HW1 3179   9.157   9.280   6.824
67094SOL    HW2 3180   9.012   9.304   6.863
67095SOL     OW 3181  11.795   0.524   5.492
67095SOL    HW1 3182  11.851   0.448   5.505
67095SOL    HW2 3183  11.752   0.508   5.408
67096SOL     OW 3184  13.620   7.165   3.350
67096SOL    HW1 3185  13.701   7.177   3.399
67096SOL    HW2 3186  13.635   7.086   3.299
67097SOL     OW 3187  12.490   6.869   2.900
67097SOL    HW1 3188  12.412   6.870   2.844
67097SOL    HW2 3189  12.494   6.958   2.937
67098SOL     OW 3190   7.046  12.542   6.869
67098SOL    HW1 3191   6.976  12.606   6.855
67098SOL    HW2 3192   7.120  12.577   6.819
67099SOL     OW 3193  14.497   3.983   8.678
67099SOL    HW1 3194  14.504   3.963   8.772
67099SOL    HW2 3195  14.427   3.924   8.647
67100SOL     OW 3196   8.821   3.258   6.914
67100SOL    HW1 3197   8.737   3.216   6.897
67100SOL    HW2 3198   8.851   3.219   6.997
67101SOL     OW 3199   7.930   8.914   5.544
67101SOL    HW1 3200   7.944   8.896   5.451
67101SOL    HW2 3201   8.018   8.920   5.581
67102SOL     OW 3202  12.580  11.172  13.413
67102SOL    HW1 3203  12.616  11.258  13.391
67102SOL    HW2 3204  12.653  11.112  13.399
67103SOL     OW 3205   0.519   0.876  10.394
67103SOL    HW1 3206   0.605   0.912  10.416
67103SOL    HW2 3207   0.531   0.837  10.307
67104SOL     OW 3208   4.024  12.951  14.854
67104SOL    HW1 3209   3.941  12.994   0.002
67104SOL    HW2 3210   4.034  12.958  14.760
67105SOL     OW 3211   2.631   4.847   2.921
67105SOL    HW1 3212   2.718   4.882   2.942
67105SOL    HW2 3213   2.613   4.879   2.833
67106SOL     OW 3214   4.836   4.266  14.626
67106SOL    HW1 3215   4.835   4.214  14.546
67106SOL    HW2 3216   4.880   4.211  14.691
67107SOL     OW 3217   1.080  11.739   0.696
67107SOL    HW1 3218   1.072  11.834   0.686
67107SOL    HW2 3219   1.002  11.704   0.652
67108SOL     OW 3220   3.859   2.379   8.693
67108SOL    HW1 3221   3.894   2.447   8.635
67108SOL    HW2 3222   3.925   2.310   8.694
67109SOL     OW 3223  14.428   2.381   6.770
67109SOL    HW1 3224  14.355   2.424   6.726
67109SOL    HW2 3225  14.471   2.330   6.702
67110SOL     OW 3226   2.429   6.340   4.014
67110SOL    HW1 3227   2.338   6.364   4.000
67110SOL    HW2 3228   2.425   6.259   4.065
67111SOL     OW 3229   8.208  13.793   7.213
67111SOL    HW1 3230   8.231  13.708   7.176
67111SOL    HW2 3231   8.161  13.772   7.293
67112SOL     OW 3232  10.513  11.136   9.892
67112SOL    HW1 3233  10.422  11.151   9.867
67112SOL    HW2 3234  10.544  11.221   9.921
67113SOL     OW 3235   2.100   3.401   7.574
67113SOL    HW1 3236   2.128   3.488   7.601
67113SOL    HW2 3237   2.181   3.358   7.543
67114SOL     OW 3238   7.822   0.356   9.570
67114SOL    HW1 3239   7.770   0.319   9.499
67114SOL    HW2 3240   7.869   0.429   9.531
67115SOL     OW 3241   3.958  13.905   4.938
67115SOL    HW1 3242   4.037  13.885   4.988
67115SOL    HW2 3243   3.991  13.929   4.851
67116SOL     OW 3244  13.802   2.553   4.637
67116SOL    HW1 3245  13.746   2.483   4.605
67116SOL    HW2 3246  13.754   2.633   4.618
67117SOL     OW 3247   4.519   3.621  10.192
67117SOL    HW1 3248   4.481   3.534  10.203
67117SOL    HW2 3249   4.479   3.675  10.260
67118SOL     OW 3250  13.953   6.369   1.810
67118SOL    HW1 3251  14.034   6.368   1.862
67118SOL    HW2 3252  13.980   6.339   1.724
67119SOL     OW 3253   6.050  14.232  13.739
67119SOL    HW1 3254   6.045  14.176  13.662
67119SOL    HW2 3255   6.102  14.307  13.711
67120SOL     OW 3256  10.843   0.289   4.145
67120SOL    HW1 3257  10.838   0.367   4.089
67120SOL    HW2 3258  10.935   0.281   4.168
67121SOL     OW 3259  10.794   0.111   3.129
67121SOL    HW1 3260  10.829   0.178   3.189
67121SOL    HW2 3261  10.741   0.161   3.067
67122SOL     OW 3262   7.793   1.904   9.598
67122SOL    HW1 3263   7.837   1.870   9.520
67122SOL    HW2 3264   7.709   1.857   9.600
67123SOL     OW 3265   1.733   4.549  10.257
67123SOL    HW1 3266   1.743   4.643  10.271
67123SOL    HW2 3267   1.778   4.508  10.330
67124SOL     OW 3268  14.560   4.903   8.723
67124SOL    HW1 3269  14.476   4.900   8.768
67124SOL    HW2 3270  14.624   4.922   8.792
67125SOL     OW 3271   7.437  13.822   0.869
67125SOL    HW1 3272   7.505  13.812   0.936
67125SOL    HW2 3273   7.398  13.907   0.886
67126SOL     OW 3274  14.186  11.977  12.977
67126SOL    HW1 3275  14.229  12.058  13.006
67126SOL    HW2 3276  14.247  11.940  12.913
67127SOL     OW 3277   8.622   6.716  11.163
67127SOL    HW1 3278   8.620   6.722  11.258
67127SOL    HW2 3279   8.533   6.688  11.139
67128SOL     OW 3280   9.296   2.753   1.099
67128SOL    HW1 3281   9.346   2.779   1.021
67128SOL    HW2 3282   9.300   2.829   1.157
67129SOL     OW 3283   5.200   6.292   8.267
67129SOL    HW1 3284   5.260   6.220   8.247
67129SOL    HW2 3285   5.204   6.349   8.191
67130SOL     OW 3286   8.490   7.065  12.649
67130SOL    HW1 3287   8.577   7.039  12.678
67130SOL    HW2 3288   8.505   7.131  12.581
67131SOL     OW 3289   1.953  14.367  10.693
67131SOL    HW1 3290   1.859  14.349  10.690
67131SOL    HW2 3291   1.963  14.453  10.653
67132SOL     OW 3292   0.229   9.012  10.349
67132SOL    HW1 3293   0.256   9.085  10.294
67132SOL    HW2 3294   0.265   9.031  10.435
67133SOL     OW 3295   7.894  14.670  11.071
67133SOL    HW1 3296   7.901  14.753  11.118
67133SOL    HW2 3297   7.888  14.604  11.140
67134SOL     OW 3298   9.895   6.185   8.646
67134SOL    HW1 3299   9.905   6.174   8.741
67134SOL    HW2 3300   9.812   6.230   8.636
67135SOL     OW 3301   0.866   6.178   8.120
67135SOL    HW1 3302   0.815   6.251   8.153
67135SOL    HW2 3303   0.954   6.214   8.108
67136SOL     OW 3304  13.179  14.246  14.043
67136SOL    HW1 3305  13.246  14.293  13.993
67136SOL    HW2 3306  13.224  14.220  14.123
67137SOL     OW 3307  10.202  12.864  10.939
67137SOL    HW1 3308  10.285  12.825  10.911
67137SOL    HW2 3309  10.224  12.911  11.019
67138SOL     OW 3310   4.010   5.725   2.451
67138SOL    HW1 3311   4.094   5.754   2.486
67138SOL    HW2 3312   3.946   5.751   2.517
67139SOL     OW 3313   5.567  13.874   2.005
67139SOL    HW1 3314   5.572  13.813   1.932
67139SOL    HW2 3315   5.657  13.883   2.035
67140SOL     OW 3316   1.394  13.084   6.133
67140SOL    HW1 3317   1.343  13.008   6.108
67140SOL    HW2 3318   1.403  13.077   6.228
67141SOL     OW 3319   9.689   9.381   2.913
67141SOL    HW1 3320   9.698   9.387   2.818
67141SOL    HW2 3321   9.755   9.316   2.938
67142SOL     OW 3322  14.656   5.256   4.743
67142SOL    HW1 3323  14.561   5.266   4.733
67142SOL    HW2 3324  14.681   5.327   4.802
67143SOL     OW 3325   1.386  10.184   7.710
67143SOL    HW1 3326   1.342  10.163   7.628
67143SOL    HW2 3327   1.367  10.277   7.724
67144SOL     OW 3328  13.163   6.406   1.781
67144SOL    HW1 3329  13.229   6.419   1.713
67144SOL    HW2 3330  13.209   6.362   1.852
67145SOL     OW 3331   7.277   0.089   6.189
67145SOL    HW1 3332   7.281   0.070   6.283
67145SOL    HW2 3333   7.335   0.025   6.149
67146SOL     OW 3334  12.283   3.443   9.924
67146SOL    HW1 3335  12.198   3.400   9.919
67146SOL    HW2 3336  12.301   3.472   9.835
67147SOL     OW 3337   6.888   0.737  12.621
67147SOL    HW1 3338   6.845   0.745  12.706
67147SOL    HW2 3339   6.899   0.642  12.609
67148SOL     OW 3340   4.562  13.513   6.254
67148SOL    HW1 3341   4.616  13.565   6.193
67148SOL    HW2 3342   4.623  13.486   6.323
67149SOL     OW 3343  14.103  11.964   3.416
67149SOL    HW1 3344  14.195  11.986   3.402
67149SOL    HW2 3345  14.091  11.880   3.373
67150SOL     OW 3346   7.202  12.894   3.375
67150SOL    HW1 3347   7.123  12.916   3.424
67150SOL    HW2 3348   7.220  12.971   3.321
67151SOL     OW 3349   9.348   6.096   5.035
67151SOL    HW1 3350   9.364   6.154   5.109
67151SOL    HW2 3351   9.268   6.048   5.058
67152SOL     OW 3352   5.052   7.136  13.442
67152SOL    HW1 3353   5.095   7.170  13.363
67152SOL    HW2 3354   5.061   7.041  13.435
67153SOL     OW 3355   2.242   5.703  11.219
67153SOL    HW1 3356   2.245   5.795  11.193
67153SOL    HW2 3357   2.213   5.705  11.310
67154SOL     OW 3358  13.909   1.354   4.499
67154SOL    HW1 3359  13.901   1.445   4.530
67154SOL    HW2 3360  13.911   1.302   4.579
67155SOL     OW 3361  10.052   4.362   5.250
67155SOL    HW1 3362  10.139   4.325   5.267
67155SOL    HW2 3363  10.067   4.457   5.243
67156SOL     OW 3364  14.165  14.032   2.356
67156SOL    HW1 3365  14.096  13.986   2.308
67156SOL    HW2 3366  14.242  13.976   2.348
67157SOL     OW 3367   0.580   4.797   1.950
67157SOL    HW1 3368   0.617   4.866   2.006
67157SOL    HW2 3369   0.544   4.733   2.011
67158SOL     OW 3370   4.975  14.158   5.741
67158SOL    HW1 3371   4.931  14.190   5.820
67158SOL    HW2 3372   5.054  14.115   5.774
67159SOL     OW 3373   0.988   5.831   9.861
67159SOL    HW1 3374   0.915   5.870   9.815
67159SOL    HW2 3375   0.950   5.757   9.909
67160SOL     OW 3376   6.807   8.662   5.745
67160SOL    HW1 3377   6.799   8.582   5.694
67160SOL    HW2 3378   6.767   8.640   5.830
67161SOL     OW 3379  10.461   5.805   3.598
67161SOL    HW1 3380  10.515   5.883   3.608
67161SOL    HW2 3381  10.416   5.817   3.514
67162SOL     OW 3382  14.385   0.138   8.200
67162SOL    HW1 3383  14.359   0.123   8.110
67162SOL    HW2 3384  14.480   0.133   8.199
67163SOL     OW 3385   8.047  10.747   5.931
67163SOL    HW1 3386   7.979  10.814   5.946
67163SOL    HW2 3387   8.116  10.793   5.885
67164SOL     OW 3388   0.041   6.965  12.383
67164SOL    HW1 3389   0.016   7.054  12.356
67164SOL    HW2 3390  14.829   6.921  12.400
67165SOL     OW 3391   2.482   5.847  12.084
67165SOL    HW1 3392   2.449   5.929  12.048
67165SOL    HW2 3393   2.408   5.811  12.134
67166SOL     OW 3394   8.259  13.653  10.119
67166SOL    HW1 3395   8.203  13.700  10.058
67166SOL    HW2 3396   8.262  13.564  10.085
67167SOL     OW 3397   1.797   9.044  13.554
67167SOL    HW1 3398   1.788   9.047  13.649
67167SOL    HW2 3399   1.749   8.966  13.527
67168SOL     OW 3400   4.151  12.561  13.897
67168SOL    HW1 3401   4.164  12.484  13.952
67168SOL    HW2 3402   4.232  12.612  13.907
67169SOL     OW 3403   7.790   5.111  13.162
67169SOL    HW1 3404   7.745   5.181  13.210
67169SOL    HW2 3405   7.839   5.064  13.230
67170SOL     OW 3406  11.771  12.096  13.939
67170SOL    HW1 3407  11.820  12.096  14.021
67170SOL    HW2 3408  11.798  12.177  13.894
67171SOL     OW 3409   5.360   4.276  10.296
67171SOL    HW1 3410   5.295   4.216  10.259
67171SOL    HW2 3411   5.374   4.341  10.227
67172SOL     OW 3412  12.663   6.115  11.255
67172SOL    HW1 3413  12.646   6.130  11.348
67172SOL    HW2 3414  12.599   6.049  11.229
67173SOL     OW 3415   2.966   9.048   3.052
67173SOL    HW1 3416   2.913   9.043   3.131
67173SOL    HW2 3417   2.983   9.142   3.040
67174SOL     OW 3418  11.188   9.522   3.324
67174SOL    HW1 3419  11.252   9.452   3.335
67174SOL    HW2 3420  11.188   9.541   3.231
67175SOL     OW 3421  13.429   0.568   9.687
67175SOL    HW1 3422  13.425   0.476   9.660
67175SOL    HW2 3423  13.506   0.603   9.643
67176SOL     OW 3424  14.142   9.600   7.697
67176SOL    HW1 3425  14.060   9.571   7.656
67176SOL    HW2 3426  14.208   9.587   7.628
67177SOL     OW 3427   6.478   1.263  11.882
67177SOL    HW1 3428   6.506   1.217  11.962
67177SOL    HW2 3429   6.502   1.354  11.898
67178SOL     OW 3430   0.290   4.604  11.321
67178SOL    HW1 3431   0.283   4.676  11.385
67178SOL    HW2 3432   0.271   4.645  11.237
67179SOL     OW 3433   2.938  13.984   9.591
67179SOL    HW1 3434   2.933  13.894   9.560
67179SOL    HW2 3435   2.870  13.991   9.657
67180SOL     OW 3436   1.917   4.290   6.854
67180SOL    HW1 3437   1.919   4.202   6.818
67180SOL    HW2 3438   1.937   4.347   6.780
67181SOL     OW 3439   2.824  11.028  11.925
67181SOL    HW1 3440   2.821  10.941  11.965
67181SOL    HW2 3441   2.777  11.019  11.843
67182SOL     OW 3442   0.753   1.579   0.630
67182SOL    HW1 3443   0.799   1.512   0.680
67182SOL    HW2 3444   0.780   1.662   0.670
67183SOL     OW 3445   1.495  11.689   8.676
67183SOL    HW1 3446   1.426  11.751   8.698
67183SOL    HW2 3447   1.525  11.656   8.761
67184SOL     OW 3448  14.319   5.514   4.297
67184SOL    HW1 3449  14.334   5.440   4.239
67184SOL    HW2 3450  14.245   5.561   4.257
67185SOL     OW 3451   6.367   7.764   3.961
67185SOL    HW1 3452   6.372   7.805   4.047
67185SOL    HW2 3453   6.276   7.734   3.953
67186SOL     OW 3454  11.831   1.304  11.221
67186SOL    HW1 3455  11.778   1.256  11.158
67186SOL    HW2 3456  11.917   1.311  11.180
67187SOL     OW 3457   4.217  14.203   1.949
67187SOL    HW1 3458   4.188  14.113   1.930
67187SOL    HW2 3459   4.171  14.227   2.029
67188SOL     OW 3460   9.331  13.683   4.105
67188SOL    HW1 3461   9.363  13.594   4.121
67188SOL    HW2 3462   9.237  13.673   4.091
67189SOL     OW 3463  11.782   4.155   2.236
67189SOL    HW1 3464  11.837   4.196   2.303
67189SOL    HW2 3465  11.807   4.063   2.238
67190SOL     OW 3466   9.675  14.241  14.179
67190SOL    HW1 3467   9.692  14.227  14.086
67190SOL    HW2 3468   9.584  14.216  14.191
67191SOL     OW 3469   8.809   0.161  10.705
67191SOL    HW1 3470   8.746   0.222  10.666
67191SOL    HW2 3471   8.822   0.194  10.794
67192SOL     OW 3472  12.198  11.635   7.697
67192SOL    HW1 3473  12.222  11.657   7.607
67192SOL    HW2 3474  12.254  11.560   7.719
67193SOL     OW 3475  12.355   4.214   1.886
67193SOL    HW1 3476  12.387   4.226   1.796
67193SOL    HW2 3477  12.342   4.303   1.919
67194SOL     OW 3478  12.710  12.840   4.632
67194SOL    HW1 3479  12.787  12.811   4.585
67194SOL    HW2 3480  12.711  12.789   4.713
67195SOL     OW 3481  10.210  13.768  11.715
67195SOL    HW1 3482  10.161  13.719  11.781
67195SOL    HW2 3483  10.257  13.835  11.765
67196SOL     OW 3484  11.733  13.403   6.281
67196SOL    HW1 3485  11.728  13.311   6.252
67196SOL    HW2 3486  11.705  13.400   6.373
67197SOL     OW 3487   9.345   4.386   4.774
67197SOL    HW1 3488   9.384   4.300   4.757
67197SOL    HW2 3489   9.251   4.374   4.757
67198SOL     OW 3490   2.026   6.473  12.586
67198SOL    HW1 3491   1.963   6.530  12.543
67198SOL    HW2 3492   2.032   6.396  12.529
67199SOL     OW 3493  14.413  10.957  10.343
67199SOL    HW1 3494  14.443  10.870  10.368
67199SOL    HW2 3495  14.337  10.973  10.399
67200SOL     OW 3496  13.539   6.251   0.625
67200SOL    HW1 3497  13.575   6.317   0.684
67200SOL    HW2 3498  13.576   6.273   0.539
67201SOL     OW 3499   9.811   6.592   0.189
67201SOL    HW1 3500   9.748   6.657   0.159
67201SOL    HW2 3501   9.895   6.622   0.155
67202SOL     OW 3502   7.966   5.514   5.522
67202SOL    HW1 3503   7.977   5.607   5.506
67202SOL    HW2 3504   8.055   5.483   5.542
67203SOL     OW 3505   7.072   1.679   6.060
67203SOL    HW1 3506   7.042   1.590   6.038
67203SOL    HW2 3507   7.131   1.666   6.134
67204SOL     OW 3508  13.081  12.608   1.583
67204SOL    HW1 3509  13.071  12.602   1.678
67204SOL    HW2 3510  13.053  12.523   1.550
67205SOL     OW 3511  11.329   0.353   9.354
67205SOL    HW1 3512  11.388   0.419   9.318
67205SOL    HW2 3513  11.320   0.289   9.283
67206SOL     OW 3514  13.524   9.486   8.776
67206SOL    HW1 3515  13.545   9.399   8.810
67206SOL    HW2 3516  13.597   9.541   8.806
67207SOL     OW 3517   8.014  11.338   8.118
67207SOL    HW1 3518   7.971  11.255   8.097
67207SOL    HW2 3519   8.106  11.324   8.095
67208SOL     OW 3520   9.442   6.034   2.233
67208SOL    HW1 3521   9.536   6.052   2.231
67208SOL    HW2 3522   9.405   6.101   2.290
67209SOL     OW 3523  12.101   1.532   4.413
67209SOL    HW1 3524  12.093   1.494   4.325
67209SOL    HW2 3525  12.034   1.487   4.464
67210SOL     OW 3526  12.119   9.074   0.738
67210SOL    HW1 3527  12.149   9.099   0.650
67210SOL    HW2 3528  12.195   9.088   0.794
67211SOL     OW 3529   9.346   2.069  10.378
67211SOL    HW1 3530   9.352   2.145  10.320
67211SOL    HW2 3531   9.436   2.037  10.385
67212SOL     OW 3532   4.754   9.029   3.216
67212SOL    HW1 3533   4.846   9.004   3.209
67212SOL    HW2 3534   4.721   8.978   3.290
67213SOL     OW 3535  14.610   7.489  12.347
67213SOL    HW1 3536  14.572   7.442  12.422
67213SOL    HW2 3537  14.625   7.578  12.380
67214SOL     OW 3538  10.779   5.296   1.933
67214SOL    HW1 3539  10.840   5.223   1.928
67214SOL    HW2 3540  10.756   5.302   2.026
67215SOL     OW 3541   3.485   6.639   0.426
67215SOL    HW1 3542   3.439   6.710   0.470
67215SOL    HW2 3543   3.577   6.668   0.424
67216SOL     OW 3544  13.513   8.255  13.909
67216SOL    HW1 3545  13.571   8.255  13.833
67216SOL    HW2 3546  13.450   8.326  13.891
67217SOL     OW 3547   6.821   0.257   2.170
67217SOL    HW1 3548   6.732   0.232   2.195
67217SOL    HW2 3549   6.814   0.351   2.150
67218SOL     OW 3550  10.648   1.263   3.134
67218SOL    HW1 3551  10.731   1.233   3.171
67218SOL    HW2 3552  10.658   1.248   3.040
67219SOL     OW 3553  13.340   2.668   1.469
67219SOL    HW1 3554  13.413   2.633   1.520
67219SOL    HW2 3555  13.273   2.600   1.473
67220SOL     OW 3556  13.128   9.104   0.428
67220SOL    HW1 3557  13.044   9.086   0.471
67220SOL    HW2 3558  13.134   9.038   0.359
67221SOL     OW 3559  11.104   3.456   3.327
67221SOL    HW1 3560  11.070   3.389   3.387
67221SOL    HW2 3561  11.070   3.539   3.362
67222SOL     OW 3562   6.485   3.174  13.672
67222SOL    HW1 3563   6.553   3.122  13.716
67222SOL    HW2 3564   6.409   3.116  13.668
67223SOL     OW 3565  14.029   2.385   6.329
67223SOL    HW1 3566  13.943   2.375   6.369
67223SOL    HW2 3567  14.070   2.457   6.377
67224SOL     OW 3568   9.588   5.599   4.908
67224SOL    HW1 3569   9.510   5.655   4.911
67224SOL    HW2 3570   9.631   5.622   4.825
67225SOL     OW 3571   0.863   5.241   0.914
67225SOL    HW1 3572   0.823   5.246   0.827
67225SOL    HW2 3573   0.894   5.151   0.922
67226SOL     OW 3574  11.918  13.625   4.506
67226SOL    HW1 3575  11.859  13.585   4.441
67226SOL    HW2 3576  11.986  13.668   4.454
67227SOL     OW 3577   8.928   3.763   4.592
67227SOL    HW1 3578   8.946   3.840   4.645
67227SOL    HW2 3579   8.994   3.699   4.620
67228SOL     OW 3580  11.208  13.197   5.886
67228SOL    HW1 3581  11.125  13.245   5.892
67228SOL    HW2 3582  11.227  13.171   5.976
67229SOL     OW 3583   3.251   2.130   3.837
67229SOL    HW1 3584   3.160   2.145   3.811
67229SOL    HW2 3585   3.285   2.217   3.856
67230SOL     OW 3586   6.598   9.079  13.058
67230SOL    HW1 3587   6.655   9.076  13.135
67230SOL    HW2 3588   6.650   9.124  12.991
67231SOL     OW 3589  12.451  13.406   3.316
67231SOL    HW1 3590  12.504  13.330   3.342
67231SOL    HW2 3591  12.407  13.377   3.236
67232SOL     OW 3592   2.356  13.050  11.576
67232SOL    HW1 3593   2.424  13.020  11.637
67232SOL    HW2 3594   2.346  12.977  11.514
67233SOL     OW 3595   0.283   2.776  12.792
67233SOL    HW1 3596   0.268   2.846  12.855
67233SOL    HW2 3597   0.332   2.710  12.841
67234SOL     OW 3598   4.000   9.415   8.827
67234SOL    HW1 3599   4.071   9.460   8.782
67234SOL    HW2 3600   3.948   9.486   8.867
67235SOL     OW 3601   6.595   7.982   2.712
67235SOL    HW1 3602   6.656   8.013   2.645
67235SOL    HW2 3603   6.508   8.004   2.677
67236SOL     OW 3604  11.088   7.181   4.631
67236SOL    HW1 3605  11.061   7.185   4.539
67236SOL    HW2 3606  11.183   7.191   4.628
67237SOL     OW 3607  12.002   8.676   1.393
67237SOL    HW1 3608  12.030   8.758   1.354
67237SOL    HW2 3609  12.014   8.610   1.324
67238SOL     OW 3610   9.962   2.929  11.311
67238SOL    HW1 3611   9.946   3.023  11.299
67238SOL    HW2 3612   9.905   2.886  11.247
67239SOL     OW 3613  12.763  11.266   3.973
67239SOL    HW1 3614  12.728  11.178   3.957
67239SOL    HW2 3615  12.816  11.257   4.052
67240SOL     OW 3616  14.372   8.258   0.002
67240SOL    HW1 3617  14.432   8.272  14.800
67240SOL    HW2 3618  14.312   8.332  14.870
67241SOL     OW 3619   2.813   7.620   5.576
67241SOL    HW1 3620   2.827   7.712   5.599
67241SOL    HW2 3621   2.882   7.572   5.623
67242SOL     OW 3622   1.266   4.892  13.155
67242SOL    HW1 3623   1.340   4.947  13.181
67242SOL    HW2 3624   1.232   4.932  13.075
67243SOL     OW 3625  14.304   7.711   1.412
67243SOL    HW1 3626  14.354   7.645   1.461
67243SOL    HW2 3627  14.255   7.757   1.479
67244SOL     OW 3628  11.833   1.750   1.749
67244SOL    HW1 3629  11.847   1.837   1.786
67244SOL    HW2 3630  11.762   1.763   1.686
67245SOL     OW 3631   4.502  11.649  14.709
67245SOL    HW1 3632   4.452  11.722  14.672
67245SOL    HW2 3633   4.512  11.588  14.636
67246SOL     OW 3634  10.978   7.824   4.399
67246SOL    HW1 3635  11.000   7.862   4.313
67246SOL    HW2 3636  10.916   7.886   4.437
67247SOL     OW 3637   7.649  11.626   3.812
67247SOL    HW1 3638   7.681  11.556   3.756
67247SOL    HW2 3639   7.676  11.601   3.900
67248SOL     OW 3640  11.366   1.114  11.918
67248SOL    HW1 3641  11.455   1.089  11.943
67248SOL    HW2 3642  11.345   1.187  11.976
67249SOL     OW 3643   2.817   5.155   0.549
67249SOL    HW1 3644   2.881   5.090   0.579
67249SOL    HW2 3645   2.736   5.105   0.539
67250SOL     OW 3646   1.792  13.014   4.143
67250SOL    HW1 3647   1.737  12.941   4.115
67250SOL    HW2 3648   1.876  12.999   4.101
67251SOL     OW 3649   2.908  13.961   6.983
67251SOL    HW1 3650   2.958  14.013   6.920
67251SOL    HW2 3651   2.970  13.945   7.055
67252SOL     OW 3652   0.585   9.223   1.254
67252SOL    HW1 3653   0.612   9.307   1.217
67252SOL    HW2 3654   0.659   9.197   1.310
67253SOL     OW 3655   5.622   1.685  13.808
67253SOL    HW1 3656   5.634   1.691  13.713
67253SOL    HW2 3657   5.709   1.703  13.844
67254SOL     OW 3658  12.984   3.659  10.907
67254SOL    HW1 3659  12.889   3.662  10.906
67254SOL    HW2 3660  13.006   3.585  10.963
67255SOL     OW 3661   8.191   2.061   0.372
67255SOL    HW1 3662   8.183   1.970   0.403
67255SOL    HW2 3663   8.124   2.108   0.422
67256SOL     OW 3664   9.425   8.324   3.091
67256SOL    HW1 3665   9.477   8.388   3.140
67256SOL    HW2 3666   9.481   8.299   3.017
67257SOL     OW 3667  14.343  14.009   3.110
67257SOL    HW1 3668  14.425  13.990   3.155
67257SOL    HW2 3669  14.368  14.069   3.039
67258SOL     OW 3670   7.984   7.853  12.935
67258SOL    HW1 3671   7.907   7.853  12.878
67258SOL    HW2 3672   7.983   7.767  12.977
67259SOL     OW 3673  14.743   4.503   9.006
67259SOL    HW1 3674  14.698   4.578   9.046
67259SOL    HW2 3675  14.711   4.501   8.916
67260SOL     OW 3676   8.075   3.767   5.369
67260SOL    HW1 3677   8.109   3.840   5.421
67260SOL    HW2 3678   7.982   3.763   5.390
67261SOL     OW 3679   3.881  13.896   8.358
67261SOL    HW1 3680   3.794  13.881   8.320
67261SOL    HW2 3681   3.884  13.990   8.375
67262SOL     OW 3682   9.294  11.730   9.011
67262SOL    HW1 3683   9.264  11.640   9.021
67262SOL    HW2 3684   9.291  11.745   8.916
67263SOL     OW 3685   6.066   3.700  14.115
67263SOL    HW1 3686   6.151   3.745  14.115
67263SOL    HW2 3687   6.084   3.613  14.151
67264SOL     OW 3688   5.353  13.788   4.045
67264SOL    HW1 3689   5.404  13.819   4.120
67264SOL    HW2 3690   5.346  13.693   4.058
67265SOL     OW 3691  11.948   7.320  12.486
67265SOL    HW1 3692  11.925   7.263  12.412
67265SOL    HW2 3693  11.896   7.286  12.559
67266SOL     OW 3694  12.107  12.780   2.454
67266SOL    HW1 3695  12.184  12.835   2.447
67266SOL    HW2 3696  12.121  12.729   2.534
67267SOL     OW 3697   4.323   2.146  10.492
67267SOL    HW1 3698   4.369   2.155  10.409
67267SOL    HW2 3699   4.382   2.186  10.556
67268SOL     OW 3700   7.016  13.297   0.829
67268SOL    HW1 3701   6.980  13.361   0.890
67268SOL    HW2 3702   6.957  13.222   0.835
67269SOL     OW 3703  13.825  11.205   5.521
67269SOL    HW1 3704  13.816  11.143   5.449
67269SOL    HW2 3705  13.873  11.157   5.589
67270SOL     OW 3706   5.670   9.336   0.640
67270SOL    HW1 3707   5.662   9.423   0.602
67270SOL    HW2 3708   5.613   9.281   0.586
67271SOL     OW 3709  12.826   6.884   7.859
67271SOL    HW1 3710  12.745   6.929   7.834
67271SOL    HW2 3711  12.840   6.820   7.789
67272SOL     OW 3712  12.090   1.689  14.519
67272SOL    HW1 3713  12.170   1.638  14.506
67272SOL    HW2 3714  12.112   1.751  14.588
67273SOL     OW 3715   7.123  14.166   8.317
67273SOL    HW1 3716   7.055  14.101   8.304
67273SOL    HW2 3717   7.172  14.166   8.235
67274SOL     OW 3718   7.022   7.366  14.378
67274SOL    HW1 3719   6.960   7.315  14.431
67274SOL    HW2 3720   6.967   7.427  14.330
67275SOL     OW 3721   0.126   3.193  14.297
67275SOL    HW1 3722   0.084   3.109  14.314
67275SOL    HW2 3723   0.057   3.258  14.315
67276SOL     OW 3724  14.428   2.803   5.953
67276SOL    HW1 3725  14.368   2.817   5.879
67276SOL    HW2 3726  14.503   2.759   5.914
67277SOL     OW 3727   6.700   4.202   4.845
67277SOL    HW1 3728   6.729   4.230   4.932
67277SOL    HW2 3729   6.772   4.229   4.787
67278SOL     OW 3730  14.658   0.909  11.944
67278SOL    HW1 3731  14.710   0.839  11.985
67278SOL    HW2 3732  14.636   0.874  11.857
67279SOL     OW 3733   9.921  11.483   6.943
67279SOL    HW1 3734   9.993  11.444   6.892
67279SOL    HW2 3735   9.932  11.446   7.030
67280SOL     OW 3736  12.833   0.895   5.322
67280SOL    HW1 3737  12.841   0.982   5.361
67280SOL    HW2 3738  12.754   0.858   5.362
67281SOL     OW 3739   2.616   2.550   5.640
67281SOL    HW1 3740   2.651   2.617   5.581
67281SOL    HW2 3741   2.579   2.483   5.582
67282SOL     OW 3742   9.361   9.641   8.194
67282SOL    HW1 3743   9.295   9.590   8.242
67282SOL    HW2 3744   9.398   9.580   8.131
67283SOL     OW 3745  12.235  12.843   9.617
67283SOL    HW1 3746  12.189  12.889   9.547
67283SOL    HW2 3747  12.268  12.763   9.576
67284SOL     OW 3748   0.036   6.403   7.260
67284SOL    HW1 3749   0.056   6.486   7.216
67284SOL    HW2 3750   0.106   6.344   7.234
67285SOL     OW 3751   0.030   1.105  10.397
67285SOL    HW1 3752   0.037   1.010  10.392
67285SOL    HW2 3753   0.051   1.136  10.309
67286SOL     OW 3754  14.568  10.989  12.048
67286SOL    HW1 3755  14.491  11.020  12.001
67286SOL    HW2 3756  14.614  10.933  11.986
67287SOL     OW 3757  14.837  14.789  12.269
67287SOL    HW1 3758  14.823  14.840  12.189
67287SOL    HW2 3759  14.801  14.703  12.249
67288SOL     OW 3760  11.430  12.066   3.469
67288SOL    HW1 3761  11.359  12.016   3.509
67288SOL    HW2 3762  11.479  12.102   3.543
67289SOL     OW 3763   9.866   6.374  10.133
67289SOL    HW1 3764   9.950   6.399  10.171
67289SOL    HW2 3765   9.871   6.403  10.042
67290SOL     OW 3766  10.157   0.304  10.802
67290SOL    HW1 3767  10.146   0.396  10.782
67290SOL    HW2 3768  10.154   0.260  10.717
67291SOL     OW 3769   2.553   2.581   9.369
67291SOL    HW1 3770   2.540   2.498   9.323
67291SOL    HW2 3771   2.517   2.647   9.310
67292SOL     OW 3772  10.985   7.350   9.273
67292SOL    HW1 3773  10.916   7.372   9.209
67292SOL    HW2 3774  11.034   7.431   9.284
67293SOL     OW 3775   6.259   5.005   0.409
67293SOL    HW1 3776   6.332   4.951   0.379
67293SOL    HW2 3777   6.204   5.017   0.331
67294SOL     OW 3778  10.651   5.893   8.776
67294SOL    HW1 3779  10.710   5.817   8.771
67294SOL    HW2 3780  10.646   5.913   8.869
67295SOL     OW 3781  13.702  13.327   9.284
67295SOL    HW1 3782  13.657  13.386   9.344
67295SOL    HW2 3783  13.782  13.302   9.330
67296SOL     OW 3784  14.732   8.830  10.860
67296SOL    HW1 3785  14.692   8.842  10.946
67296SOL    HW2 3786  14.788   8.753  10.869
67297SOL     OW 3787  13.848   1.233   7.760
67297SOL    HW1 3788  13.809   1.159   7.714
67297SOL    HW2 3789  13.826   1.218   7.852
67298SOL     OW 3790   1.422  14.849   7.750
67298SOL    HW1 3791   1.339  14.869   7.706
67298SOL    HW2 3792   1.463   0.063   7.763
67299SOL     OW 3793   1.688   3.850  12.603
67299SOL    HW1 3794   1.665   3.845  12.696
67299SOL    HW2 3795   1.782   3.869  12.602
67300SOL     OW 3796  13.616   2.056   9.601
67300SOL    HW1 3797  13.592   2.075   9.691
67300SOL    HW2 3798  13.600   1.962   9.591
67301SOL     OW 3799  12.442   4.630  10.657
67301SOL    HW1 3800  12.439   4.658  10.565
67301SOL    HW2 3801  12.512   4.683  10.696
67302SOL     OW 3802   6.654  13.210   8.326
67302SOL    HW1 3803   6.630  13.296   8.290
67302SOL    HW2 3804   6.638  13.217   8.420
67303SOL     OW 3805   2.684   4.272  12.516
67303SOL    HW1 3806   2.744   4.218  12.568
67303SOL    HW2 3807   2.597   4.247  12.545
67304SOL     OW 3808   1.684   6.467   4.944
67304SOL    HW1 3809   1.610   6.448   4.886
67304SOL    HW2 3810   1.663   6.553   4.982
67305SOL     OW 3811  14.615   2.590   5.331
67305SOL    HW1 3812  14.624   2.680   5.299
67305SOL    HW2 3813  14.635   2.596   5.424
67306SOL     OW 3814   2.218  14.559  12.666
67306SOL    HW1 3815   2.136  14.565  12.716
67306SOL    HW2 3816   2.201  14.608  12.586
67307SOL     OW 3817   6.538  14.628   8.678
67307SOL    HW1 3818   6.552  14.542   8.637
67307SOL    HW2 3819   6.616  14.641   8.732
67308SOL     OW 3820  11.610  13.700  10.165
67308SOL    HW1 3821  11.669  13.723  10.237
67308SOL    HW2 3822  11.668  13.684  10.090
67309SOL     OW 3823   8.510  11.092  12.049
67309SOL    HW1 3824   8.476  11.043  12.124
67309SOL    HW2 3825   8.520  11.182  12.081
67310SOL     OW 3826   4.537  14.464   1.647
67310SOL    HW1 3827   4.485  14.530   1.692
67310SOL    HW2 3828   4.614  14.511   1.615
67311SOL     OW 3829  10.591   1.540  11.149
67311SOL    HW1 3830  10.668   1.595  11.163
67311SOL    HW2 3831  10.601   1.469  11.213
67312SOL     OW 3832  11.795  14.036   6.718
67312SOL    HW1 3833  11.793  14.083   6.801
67312SOL    HW2 3834  11.796  13.943   6.744
67313SOL     OW 3835  13.309  12.145   9.023
67313SOL    HW1 3836  13.393  12.107   8.996
67313SOL    HW2 3837  13.257  12.146   8.943
67314SOL     OW 3838   1.169  12.614   1.524
67314SOL    HW1 3839   1.260  12.586   1.518
67314SOL    HW2 3840   1.169  12.704   1.490
67315SOL     OW 3841  10.355   2.677   2.018
67315SOL    HW1 3842  10.272   2.645   1.983
67315SOL    HW2 3843  10.416   2.606   2.004
67316SOL     OW 3844  12.359   5.931  10.489
67316SOL    HW1 3845  12.445   5.925  10.531
67316SOL    HW2 3846  12.310   5.857  10.524
67317SOL     OW 3847   3.913   8.706  14.810
67317SOL    HW1 3848   3.938   8.714   0.031
67317SOL    HW2 3849   3.818   8.695  14.812
67318SOL     OW 3850   2.200   9.980   0.220
67318SOL    HW1 3851   2.156   9.896   0.206
67318SOL    HW2 3852   2.166  10.011   0.304
67319SOL     OW 3853  14.465   7.502  10.357
67319SOL    HW1 3854  14.531   7.434  10.368
67319SOL    HW2 3855  14.385   7.456  10.333
67320SOL     OW 3856   7.944   5.444   4.241
67320SOL    HW1 3857   7.912   5.361   4.207
67320SOL    HW2 3858   7.866   5.497   4.255
67321SOL     OW 3859   2.164  12.538   1.429
67321SOL    HW1 3860   2.190  12.446   1.424
67321SOL    HW2 3861   2.192  12.566   1.517
67322SOL     OW 3862  12.181  14.045   8.767
67322SOL    HW1 3863  12.192  14.054   8.673
67322SOL    HW2 3864  12.198  14.133   8.802
67323SOL     OW 3865   0.004   7.572   9.892
67323SOL    HW1 3866   0.038   7.523   9.967
67323SOL    HW2 3867   0.006   7.664   9.921
67324SOL     OW 3868   2.728  14.726   7.665
67324SOL    HW1 3869   2.790  14.787   7.626
67324SOL    HW2 3870   2.705  14.766   7.749
67325SOL     OW 3871  10.569   2.487   2.293
67325SOL    HW1 3872  10.643   2.548   2.288
67325SOL    HW2 3873  10.528   2.507   2.377
67326SOL     OW 3874   8.544   2.162  11.568
67326SOL    HW1 3875   8.482   2.167  11.494
67326SOL    HW2 3876   8.565   2.253  11.588
67327SOL     OW 3877   1.849  14.728   9.385
67327SOL    HW1 3878   1.907  14.804   9.390
67327SOL    HW2 3879   1.885  14.676   9.313
67328SOL     OW 3880   0.101   7.882  11.279
67328SOL    HW1 3881   0.178   7.878  11.336
67328SOL    HW2 3882   0.071   7.973  11.286
67329SOL     OW 3883   3.948  10.299  10.614
67329SOL    HW1 3884   4.004  10.307  10.536
67329SOL    HW2 3885   3.869  10.348  10.592
67330SOL     OW 3886   0.817   7.375   2.491
67330SOL    HW1 3887   0.874   7.307   2.455
67330SOL    HW2 3888   0.861   7.457   2.469
67331SOL     OW 3889   1.736  13.623   9.093
67331SOL    HW1 3890   1.663  13.635   9.033
67331SOL    HW2 3891   1.807  13.675   9.056
67332SOL     OW 3892  10.965   3.839  10.851
67332SOL    HW1 3893  10.891   3.898  10.838
67332SOL    HW2 3894  10.929   3.751  10.842
67333SOL     OW 3895   4.863   6.149   1.076
67333SOL    HW1 3896   4.807   6.225   1.091
67333SOL    HW2 3897   4.808   6.073   1.095
67334SOL     OW 3898   7.026   0.891   3.697
67334SOL    HW1 3899   7.043   0.929   3.611
67334SOL    HW2 3900   7.006   0.966   3.753
67335SOL     OW 3901  11.497  10.122  14.852
67335SOL    HW1 3902  11.468  10.031  14.845
67335SOL    HW2 3903  11.508  10.150  14.761
67336SOL     OW 3904   9.167   2.212  12.215
67336SOL    HW1 3905   9.102   2.281  12.221
67336SOL    HW2 3906   9.243   2.246  12.264
67337SOL     OW 3907   0.607   1.153  10.400
67337SOL    HW1 3908   0.684   1.155  10.456
67337SOL    HW2 3909   0.533   1.145  10.460
67338SOL     OW 3910   8.654  13.656   2.557
67338SOL    HW1 3911   8.737  13.700   2.537
67338SOL    HW2 3912   8.679  13.580   2.609
67339SOL     OW 3913   9.331   3.542   9.430
67339SOL    HW1 3914   9.383   3.571   9.504
67339SOL    HW2 3915   9.333   3.616   9.368
67340SOL     OW 3916   7.830   1.984   5.550
67340SOL    HW1 3917   7.859   1.951   5.635
67340SOL    HW2 3918   7.793   1.908   5.506
67341SOL     OW 3919   8.008   6.268   7.898
67341SOL    HW1 3920   8.076   6.310   7.846
67341SOL    HW2 3921   7.988   6.187   7.851
67342SOL     OW 3922   0.161  12.040   8.058
67342SOL    HW1 3923   0.098  12.111   8.068
67342SOL    HW2 3924   0.108  11.960   8.064
67343SOL     OW 3925   3.936  11.205   5.834
67343SOL    HW1 3926   3.894  11.290   5.818
67343SOL    HW2 3927   4.012  11.205   5.776
67344SOL     OW 3928   3.216  12.397   3.374
67344SOL    HW1 3929   3.283  12.412   3.307
67344SOL    HW2 3930   3.167  12.479   3.379
67345SOL     OW 3931  13.458  14.604  10.475
67345SOL    HW1 3932  13.524  14.670  10.500
67345SOL    HW2 3933  13.381  14.628  10.526
67346SOL     OW 3934   1.725  11.607   8.159
67346SOL    HW1 3935   1.802  11.577   8.208
67346SOL    HW2 3936   1.686  11.674   8.216
67347SOL     OW 3937  12.576   3.963  10.980
67347SOL    HW1 3938  12.501   4.021  10.989
67347SOL    HW2 3939  12.547   3.880  11.017
67348SOL     OW 3940  12.077   5.305   9.170
67348SOL    HW1 3941  11.994   5.337   9.133
67348SOL    HW2 3942  12.116   5.381   9.212
67349SOL     OW 3943   2.237   6.407  13.420
67349SOL    HW1 3944   2.165   6.448  13.467
67349SOL    HW2 3945   2.195   6.340  13.366
67350SOL     OW 3946  12.157  10.050   8.410
67350SOL    HW1 3947  12.118   9.963   8.404
67350SOL    HW2 3948  12.141  10.077   8.501
67351SOL     OW 3949   6.324   7.433  14.731
67351SOL    HW1 3950   6.338   7.527  14.718
67351SOL    HW2 3951   6.239   7.427  14.775
67352SOL     OW 3952   4.285   9.484   2.140
67352SOL    HW1 3953   4.232   9.443   2.209
67352SOL    HW2 3954   4.225   9.492   2.066
67353SOL     OW 3955  14.524   0.807  10.843
67353SOL    HW1 3956  14.530   0.901  10.827
67353SOL    HW2 3957  14.456   0.798  10.910
67354SOL     OW 3958   4.214   8.173   2.230
67354SOL    HW1 3959   4.133   8.170   2.280
67354SOL    HW2 3960   4.205   8.104   2.165
67355SOL     OW 3961   2.237   0.784  10.553
67355SOL    HW1 3962   2.201   0.873  10.555
67355SOL    HW2 3963   2.164   0.729  10.525
67356SOL     OW 3964   0.989   7.126   4.768
67356SOL    HW1 3965   0.955   7.213   4.785
67356SOL    HW2 3966   0.914   7.068   4.782
67357SOL     OW 3967   2.388   6.185   7.928
67357SOL    HW1 3968   2.330   6.160   8.000
67357SOL    HW2 3969   2.400   6.103   7.879
67358SOL     OW 3970   3.698  12.903   1.006
67358SOL    HW1 3971   3.647  12.924   0.928
67358SOL    HW2 3972   3.668  12.816   1.033
67359SOL     OW 3973   6.585  11.732   1.840
67359SOL    HW1 3974   6.593  11.826   1.857
67359SOL    HW2 3975   6.494  11.711   1.861
67360SOL     OW 3976   7.525   8.964  11.397
67360SOL    HW1 3977   7.451   8.983  11.338
67360SOL    HW2 3978   7.502   9.006  11.479
67361SOL     OW 3979   5.684  10.589   7.482
67361SOL    HW1 3980   5.728  10.507   7.458
67361SOL    HW2 3981   5.592  10.566   7.488
67362SOL     OW 3982   4.031  11.712   0.696
67362SOL    HW1 3983   4.070  11.629   0.723
67362SOL    HW2 3984   3.986  11.692   0.614
67363SOL     OW 3985   9.183  11.898  10.757
67363SOL    HW1 3986   9.102  11.850  10.777
67363SOL    HW2 3987   9.181  11.909  10.662
67364SOL     OW 3988   5.280  10.896  11.002
67364SOL    HW1 3989   5.320  10.929  10.921
67364SOL    HW2 3990   5.310  10.957  11.070
67365SOL     OW 3991   6.761   3.971   9.954
67365SOL    HW1 3992   6.774   4.064   9.973
67365SOL    HW2 3993   6.685   3.947  10.006
67366SOL     OW 3994   9.355   5.470   4.882
67366SOL    HW1 3995   9.450   5.483   4.872
67366SOL    HW2 3996   9.330   5.535   4.949
67367SOL     OW 3997   2.489  11.032   0.421
67367SOL    HW1 3998   2.504  11.057   0.512
67367SOL    HW2 3999   2.472  11.114   0.376
67368SOL     OW 4000   7.261  13.682   1.429
67368SOL    HW1 4001   7.261  13.630   1.510
67368SOL    HW2 4002   7.196  13.750   1.445
67369SOL     OW 4003   6.443   3.995   5.677
67369SOL    HW1 4004   6.363   4.006   5.625
67369SOL    HW2 4005   6.511   4.038   5.625
67370SOL     OW 4006   5.595   9.189   0.844
67370SOL    HW1 4007   5.577   9.112   0.790
67370SOL    HW2 4008   5.619   9.257   0.782
67371SOL     OW 4009  12.705   5.237   5.961
67371SOL    HW1 4010  12.681   5.204   6.048
67371SOL    HW2 4011  12.657   5.180   5.900
67372SOL     OW 4012  12.260   8.770   5.181
67372SOL    HW1 4013  12.331   8.780   5.118
67372SOL    HW2 4014  12.240   8.676   5.180
67373SOL     OW 4015   3.467   7.503   0.224
67373SOL    HW1 4016   3.459   7.463   0.311
67373SOL    HW2 4017   3.459   7.597   0.240
67374SOL     OW 4018   2.960   1.335   4.904
67374SOL    HW1 4019   3.004   1.343   4.988
67374SOL    HW2 4020   3.027   1.355   4.839
67375SOL     OW 4021  12.919  13.155   6.660
67375SOL    HW1 4022  12.854  13.220   6.636
67375SOL    HW2 4023  12.976  13.149   6.583
67376SOL     OW 4024  12.789  11.614   0.188
67376SOL    HW1 4025  12.721  11.680   0.205
67376SOL    HW2 4026  12.762  11.538   0.238
67377SOL     OW 4027  11.296   4.584  14.348
67377SOL    HW1 4028  11.309   4.571  14.254
67377SOL    HW2 4029  11.350   4.516  14.389
67378SOL     OW 4030   5.156   2.147   4.594
67378SOL    HW1 4031   5.104   2.138   4.674
67378SOL    HW2 4032   5.232   2.091   4.609
67379SOL     OW 4033   7.678   8.193  14.178
67379SOL    HW1 4034   7.614   8.134  14.219
67379SOL    HW2 4035   7.762   8.148  14.187
67380SOL     OW 4036  10.506   0.771   3.623
67380SOL    HW1 4037  10.601   0.756   3.626
67380SOL    HW2 4038  10.470   0.688   3.592
67381SOL     OW 4039   4.158   3.027   1.697
67381SOL    HW1 4040   4.189   3.099   1.643
67381SOL    HW2 4041   4.144   2.955   1.636
67382SOL     OW 4042   9.912   4.606  14.071
67382SOL    HW1 4043   9.868   4.529  14.035
67382SOL    HW2 4044   9.872   4.680  14.025
67383SOL     OW 4045   7.416   3.764  14.442
67383SOL    HW1 4046   7.380   3.679  14.417
67383SOL    HW2 4047   7.376   3.826  14.381
67384SOL     OW 4048  12.095   4.385   4.422
67384SOL    HW1 4049  12.057   4.404   4.336
67384SOL    HW2 4050  12.098   4.470   4.465
67385SOL     OW 4051  12.884  11.065  12.923
67385SOL    HW1 4052  12.894  11.076  12.829
67385SOL    HW2 4053  12.797  11.102  12.942
67386SOL     OW 4054  12.305  14.364   8.758
67386SOL    HW1 4055  12.343  14.370   8.671
67386SOL    HW2 4056  12.327  14.448   8.800
67387SOL     OW 4057   0.824   6.282   6.056
67387SOL    HW1 4058   0.828   6.308   6.148
67387SOL    HW2 4059   0.902   6.321   6.017
67388SOL     OW 4060   9.955   4.788   8.029
67388SOL    HW1 4061   9.962   4.787   8.124
67388SOL    HW2 4062   9.956   4.696   8.004
67389SOL     OW 4063   7.248   3.678  11.134
67389SOL    HW1 4064   7.165   3.665  11.179
67389SOL    HW2 4065   7.257   3.601  11.079
67390SOL     OW 4066   8.133   4.513  12.887
67390SOL    HW1 4067   8.047   4.555  12.892
67390SOL    HW2 4068   8.119   4.425  12.922
67391SOL     OW 4069   6.516  11.707   8.551
67391SOL    HW1 4070   6.578  11.658   8.497
67391SOL    HW2 4071   6.498  11.650   8.625
67392SOL     OW 4072   6.067   0.879  10.698
67392SOL    HW1 4073   6.078   0.825  10.620
67392SOL    HW2 4074   5.978   0.915  10.690
67393SOL     OW 4075   5.627  10.160   8.135
67393SOL    HW1 4076   5.722  10.157   8.139
67393SOL    HW2 4077   5.608  10.214   8.059
67394SOL     OW 4078  13.190   4.217   8.205
67394SOL    HW1 4079  13.205   4.139   8.258
67394SOL    HW2 4080  13.134   4.187   8.133
67395SOL     OW 4081   8.392  14.286   8.158
67395SOL    HW1 4082   8.417  14.321   8.072
67395SOL    HW2 4083   8.328  14.218   8.138
67396SOL     OW 4084   9.685  12.657   5.783
67396SOL    HW1 4085   9.592  12.677   5.773
67396SOL    HW2 4086   9.687  12.572   5.827
67397SOL     OW 4087  11.781   9.614   2.124
67397SOL    HW1 4088  11.875   9.604   2.105
67397SOL    HW2 4089  11.746   9.658   2.047
67398SOL     OW 4090  11.519  14.864   2.431
67398SOL    HW1 4091  11.545   0.006   2.340
67398SOL    HW2 4092  11.425  14.844   2.426
67399SOL     OW 4093   8.538   1.844   7.650
67399SOL    HW1 4094   8.475   1.776   7.628
67399SOL    HW2 4095   8.608   1.835   7.584
67400SOL     OW 4096   8.214   2.695   2.125
67400SOL    HW1 4097   8.165   2.617   2.152
67400SOL    HW2 4098   8.195   2.760   2.193
67401SOL     OW 4099   6.364  13.780  10.610
67401SOL    HW1 4100   6.341  13.690  10.589
67401SOL    HW2 4101   6.420  13.772  10.688
67402SOL     OW 4102   7.700   7.533  10.425
67402SOL    HW1 4103   7.781   7.489  10.450
67402SOL    HW2 4104   7.722   7.626  10.426
67403SOL     OW 4105   5.648   4.413   4.814
67403SOL    HW1 4106   5.700   4.350   4.864
67403SOL    HW2 4107   5.620   4.364   4.737
67404SOL     OW 4108  14.666  10.147   4.100
67404SOL    HW1 4109  14.635  10.117   4.015
67404SOL    HW2 4110  14.751  10.106   4.111
67405SOL     OW 4111   2.118   4.214   0.144
67405SOL    HW1 4112   2.195   4.259   0.110
67405SOL    HW2 4113   2.090   4.156   0.073
67406SOL     OW 4114  13.955   3.195  10.246
67406SOL    HW1 4115  13.985   3.169  10.159
67406SOL    HW2 4116  13.966   3.117  10.300
67407SOL     OW 4117   9.230  14.117  10.860
67407SOL    HW1 4118   9.191  14.072  10.935
67407SOL    HW2 4119   9.159  14.168  10.822
67408SOL     OW 4120  14.763   4.532   0.969
67408SOL    HW1 4121  14.724   4.457   1.015
67408SOL    HW2 4122  14.724   4.530   0.882
67409SOL     OW 4123   8.727   3.528  10.959
67409SOL    HW1 4124   8.678   3.578  10.895
67409SOL    HW2 4125   8.689   3.553  11.044
67410SOL     OW 4126   0.023   5.714   2.619
67410SOL    HW1 4127   0.047   5.756   2.702
67410SOL    HW2 4128   0.081   5.639   2.612
67411SOL     OW 4129  14.416   5.273   0.551
67411SOL    HW1 4130  14.493   5.217   0.565
67411SOL    HW2 4131  14.443   5.359   0.583
67412SOL     OW 4132   4.123  13.971   5.844
67412SOL    HW1 4133   4.126  13.961   5.939
67412SOL    HW2 4134   4.198  13.921   5.811
67413SOL     OW 4135   0.066   5.662   7.587
67413SOL    HW1 4136   0.133   5.605   7.625
67413SOL    HW2 4137   0.103   5.688   7.503
67414SOL     OW 4138   7.192   5.673   6.755
67414SOL    HW1 4139   7.163   5.690   6.665
67414SOL    HW2 4140   7.111   5.666   6.806
67415SOL     OW 4141  14.791   7.359   0.843
67415SOL    HW1 4142  14.769   7.449   0.868
67415SOL    HW2 4143  14.855   7.369   0.772
67416SOL     OW 4144  12.309   3.651  13.651
67416SOL    HW1 4145  12.257   3.574  13.627
67416SOL    HW2 4146  12.253   3.725  13.628
67417SOL     OW 4147  10.271   0.139   4.092
67417SOL    HW1 4148  10.333   0.091   4.037
67417SOL    HW2 4149  10.326   0.187   4.154
67418SOL     OW 4150  13.149   9.205  14.715
67418SOL    HW1 4151  13.109   9.290  14.733
67418SOL    HW2 4152  13.226   9.203  14.772
67419SOL     OW 4153  12.813   4.925  13.097
67419SOL    HW1 4154  12.874   4.949  13.167
67419SOL    HW2 4155  12.730   4.963  13.124
67420SOL     OW 4156   5.860  14.178   1.880
67420SOL    HW1 4157   5.802  14.206   1.809
67420SOL    HW2 4158   5.816  14.208   1.960
67421SOL     OW 4159  12.311  13.695  10.661
67421SOL    HW1 4160  12.354  13.615  10.630
67421SOL    HW2 4161  12.357  13.718  10.742
67422SOL     OW 4162   8.035   4.729   3.543
67422SOL    HW1 4163   8.061   4.649   3.589
67422SOL    HW2 4164   8.109   4.750   3.487
67423SOL     OW 4165   6.139   4.349  11.408
67423SOL    HW1 4166   6.162   4.417  11.471
67423SOL    HW2 4167   6.222   4.307  11.386
67424SOL     OW 4168  12.155   6.468   8.468
67424SOL    HW1 4169  12.195   6.534   8.411
67424SOL    HW2 4170  12.081   6.514   8.508
67425SOL     OW 4171   2.794   2.879  12.720
67425SOL    HW1 4172   2.790   2.890  12.625
67425SOL    HW2 4173   2.732   2.808  12.738
67426SOL     OW 4174   6.030   8.114   0.991
67426SOL    HW1 4175   5.940   8.087   1.009
67426SOL    HW2 4176   6.077   8.097   1.072
67427SOL     OW 4177   2.730   9.645   0.804
67427SOL    HW1 4178   2.654   9.681   0.851
67427SOL    HW2 4179   2.693   9.602   0.727
67428SOL     OW 4180   6.572   0.862  12.414
67428SOL    HW1 4181   6.629   0.885  12.488
67428SOL    HW2 4182   6.627   0.876  12.337
67429SOL     OW 4183   5.204   7.260   1.795
67429SOL    HW1 4184   5.172   7.288   1.710
67429SOL    HW2 4185   5.163   7.174   1.809
67430SOL     OW 4186   8.003   7.723   7.555
67430SOL    HW1 4187   7.956   7.784   7.612
67430SOL    HW2 4188   7.937   7.689   7.496
67431SOL     OW 4189   9.198   4.873   2.619
67431SOL    HW1 4190   9.175   4.927   2.694
67431SOL    HW2 4191   9.275   4.915   2.582
67432SOL     OW 4192   7.462   4.675   1.820
67432SOL    HW1 4193   7.456   4.616   1.895
67432SOL    HW2 4194   7.506   4.753   1.854
67433SOL     OW 4195   6.378  14.680   7.376
67433SOL    HW1 4196   6.441  14.683   7.448
67433SOL    HW2 4197   6.414  14.616   7.314
67434SOL     OW 4198   0.673  13.387   5.648
67434SOL    HW1 4199   0.730  13.347   5.714
67434SOL    HW2 4200   0.675  13.480   5.668
67435SOL     OW 4201   7.215  10.479   7.178
67435SOL    HW1 4202   7.245  10.466   7.267
67435SOL    HW2 4203   7.289  10.453   7.123
67436SOL     OW 4204  10.508  13.821   6.955
67436SOL    HW1 4205  10.528  13.738   6.913
67436SOL    HW2 4206  10.584  13.840   7.010
67437SOL     OW 4207   1.886  13.659   5.104
67437SOL    HW1 4208   1.955  13.719   5.077
67437SOL    HW2 4209   1.828  13.711   5.159
67438SOL     OW 4210   2.876   1.582   7.433
67438SOL    HW1 4211   2.956   1.568   7.382
67438SOL    HW2 4212   2.816   1.626   7.373
67439SOL     OW 4213  13.295  11.625   1.182
67439SOL    HW1 4214  13.295  11.590   1.271
67439SOL    HW2 4215  13.202  11.635   1.161
67440SOL     OW 4216   4.903  10.319   6.416
67440SOL    HW1 4217   4.943  10.310   6.329
67440SOL    HW2 4218   4.884  10.229   6.443
67441SOL     OW 4219   7.660   7.256   7.371
67441SOL    HW1 4220   7.730   7.311   7.404
67441SOL    HW2 4221   7.675   7.250   7.276
67442SOL     OW 4222  13.732  13.266   6.836
67442SOL    HW1 4223  13.655  13.279   6.893
67442SOL    HW2 4224  13.807  13.284   6.893
67443SOL     OW 4225  14.441  11.443   5.227
67443SOL    HW1 4226  14.521  11.410   5.185
67443SOL    HW2 4227  14.464  11.530   5.258
67444SOL     OW 4228   6.162  11.333  10.650
67444SOL    HW1 4229   6.208  11.268  10.598
67444SOL    HW2 4230   6.229  11.372  10.707
67445SOL     OW 4231   6.196   4.490   0.378
67445SOL    HW1 4232   6.115   4.539   0.387
67445SOL    HW2 4233   6.183   4.412   0.432
67446SOL     OW 4234   8.577   9.737  14.318
67446SOL    HW1 4235   8.650   9.695  14.273
67446SOL    HW2 4236   8.559   9.816  14.265
67447SOL     OW 4237   4.113   4.696   1.773
67447SOL    HW1 4238   4.079   4.652   1.695
67447SOL    HW2 4239   4.134   4.624   1.833
67448SOL     OW 4240   5.327   0.002   9.894
67448SOL    HW1 4241   5.341   0.091   9.927
67448SOL    HW2 4242   5.233  14.860   9.900
67449SOL     OW 4243  14.431  12.455   0.731
67449SOL    HW1 4244  14.471  12.461   0.817
67449SOL    HW2 4245  14.500  12.418   0.675
67450SOL     OW 4246  13.063  10.841   7.940
67450SOL    HW1 4247  13.000  10.886   7.996
67450SOL    HW2 4248  13.145  10.887   7.955
67451SOL     OW 4249   9.961   2.771  12.444
67451SOL    HW1 4250   9.985   2.806  12.358
67451SOL    HW2 4251   9.928   2.683  12.426
67452SOL     OW 4252   2.534  13.825  12.215
67452SOL    HW1 4253   2.455  13.790  12.174
67452SOL    HW2 4254   2.536  13.784  12.302
67453SOL     OW 4255   2.738   1.132   8.537
67453SOL    HW1 4256   2.706   1.185   8.610
67453SOL    HW2 4257   2.727   1.042   8.566
67454SOL     OW 4258  14.000   7.741   6.407
67454SOL    HW1 4259  14.035   7.773   6.324
67454SOL    HW2 4260  14.077   7.712   6.456
67455SOL     OW 4261   7.304   5.549   6.097
67455SOL    HW1 4262   7.221   5.512   6.127
67455SOL    HW2 4263   7.308   5.527   6.005
67456SOL     OW 4264  10.239   1.985   3.843
67456SOL    HW1 4265  10.227   1.968   3.937
67456SOL    HW2 4266  10.292   1.911   3.813
67457SOL     OW 4267  10.274  14.142   7.370
67457SOL    HW1 4268  10.202  14.086   7.397
67457SOL    HW2 4269  10.289  14.120   7.278
67458SOL     OW 4270   7.038   0.882   7.874
67458SOL    HW1 4271   6.975   0.865   7.945
67458SOL    HW2 4272   7.039   0.977   7.866
67459SOL     OW 4273  13.275   3.688  14.040
67459SOL    HW1 4274  13.256   3.629  14.113
67459SOL    HW2 4275  13.316   3.764  14.081
67460SOL     OW 4276   5.433   9.326   2.756
67460SOL    HW1 4277   5.391   9.392   2.701
67460SOL    HW2 4278   5.448   9.371   2.840
67461SOL     OW 4279   0.509   3.849   9.922
67461SOL    HW1 4280   0.522   3.877   9.832
67461SOL    HW2 4281   0.447   3.912   9.959
67462SOL     OW 4282   3.045   8.048   6.145
67462SOL    HW1 4283   3.025   8.141   6.144
67462SOL    HW2 4284   3.136   8.043   6.116
67463SOL     OW 4285   2.995   2.784  12.318
67463SOL    HW1 4286   3.060   2.736  12.370
67463SOL    HW2 4287   3.038   2.800  12.234
67464SOL     OW 4288  14.050   8.355  10.741
67464SOL    HW1 4289  14.121   8.418  10.755
67464SOL    HW2 4290  13.972   8.410  10.733
67465SOL     OW 4291   9.968   5.517  14.083
67465SOL    HW1 4292   9.903   5.579  14.051
67465SOL    HW2 4293   9.947   5.435  14.039
67466SOL     OW 4294  10.905  11.289   9.068
67466SOL    HW1 4295  10.971  11.233   9.109
67466SOL    HW2 4296  10.893  11.252   8.981
67467SOL     OW 4297   0.137  10.530  11.340
67467SOL    HW1 4298   0.141  10.570  11.254
67467SOL    HW2 4299   0.166  10.598  11.400
67468SOL     OW 4300   4.648   2.478   7.539
67468SOL    HW1 4301   4.629   2.410   7.474
67468SOL    HW2 4302   4.716   2.531   7.498
67469SOL     OW 4303   0.825  10.006   2.682
67469SOL    HW1 4304   0.739   9.986   2.718
67469SOL    HW2 4305   0.858   9.921   2.652
67470SOL     OW 4306  13.899   0.639   1.625
67470SOL    HW1 4307  13.887   0.555   1.670
67470SOL    HW2 4308  13.893   0.617   1.532
67471SOL     OW 4309   4.033   6.371  11.809
67471SOL    HW1 4310   4.107   6.431  11.806
67471SOL    HW2 4311   4.064   6.291  11.766
67472SOL     OW 4312   8.597  12.706  12.856
67472SOL    HW1 4313   8.550  12.623  12.848
67472SOL    HW2 4314   8.610  12.735  12.765
67473SOL     OW 4315  14.259  10.541   4.516
67473SOL    HW1 4316  14.236  10.632   4.500
67473SOL    HW2 4317  14.247  10.497   4.431
67474SOL     OW 4318   1.280  12.154   9.992
67474SOL    HW1 4319   1.268  12.073  10.040
67474SOL    HW2 4320   1.209  12.211  10.022
67475SOL     OW 4321   5.697   8.325   0.581
67475SOL    HW1 4322   5.601   8.328   0.578
67475SOL    HW2 4323   5.724   8.417   0.574
67476SOL     OW 4324   2.778   7.770   0.745
67476SOL    HW1 4325   2.700   7.775   0.799
67476SOL    HW2 4326   2.790   7.859   0.711
67477SOL     OW 4327  12.933   2.587   2.431
67477SOL    HW1 4328  12.891   2.545   2.356
67477SOL    HW2 4329  12.985   2.517   2.471
67478SOL     OW 4330   5.775   1.277  12.628
67478SOL    HW1 4331   5.767   1.312  12.717
67478SOL    HW2 4332   5.747   1.185  12.637
67479SOL     OW 4333   5.730   1.349  14.107
67479SOL    HW1 4334   5.669   1.401  14.158
67479SOL    HW2 4335   5.741   1.397  14.025
67480SOL     OW 4336   8.855   7.358   2.820
67480SOL    HW1 4337   8.800   7.280   2.831
67480SOL    HW2 4338   8.908   7.340   2.743
67481SOL     OW 4339   4.822   4.664   2.462
67481SOL    HW1 4340   4.743   4.717   2.464
67481SOL    HW2 4341   4.877   4.701   2.531
67482SOL     OW 4342   7.515  14.285   7.561
67482SOL    HW1 4343   7.476  14.355   7.614
67482SOL    HW2 4344   7.605  14.278   7.594
67483SOL     OW 4345  10.104  13.142  12.032
67483SOL    HW1 4346  10.112  13.127  12.126
67483SOL    HW2 4347  10.123  13.057  11.992
67484SOL     OW 4348   0.413   2.429   0.029
67484SOL    HW1 4349   0.392   2.506   0.083
67484SOL    HW2 4350   0.330   2.383   0.022
67485SOL     OW 4351   6.327   0.879   3.370
67485SOL    HW1 4352   6.403   0.822   3.356
67485SOL    HW2 4353   6.254   0.818   3.383
67486SOL     OW 4354   3.011  11.402   3.114
67486SOL    HW1 4355   3.095  11.437   3.085
67486SOL    HW2 4356   3.030  11.357   3.196
67487SOL     OW 4357  12.078  13.901  10.105
67487SOL    HW1 4358  12.142  13.963  10.068
67487SOL    HW2 4359  11.998  13.916  10.055
67488SOL     OW 4360   6.601   5.514  13.472
67488SOL    HW1 4361   6.659   5.533  13.398
67488SOL    HW2 4362   6.596   5.418  13.474
67489SOL     OW 4363  14.364   5.195   2.901
67489SOL    HW1 4364  14.269   5.193   2.890
67489SOL    HW2 4365  14.377   5.207   2.995
67490SOL     OW 4366  14.164   1.231   5.519
67490SOL    HW1 4367  14.211   1.308   5.549
67490SOL    HW2 4368  14.071   1.254   5.525
67491SOL     OW 4369   3.171  11.001   2.629
67491SOL    HW1 4370   3.128  10.955   2.702
67491SOL    HW2 4371   3.109  11.069   2.604
67492SOL     OW 4372  10.693   8.612  10.029
67492SOL    HW1 4373  10.776   8.648   9.997
67492SOL    HW2 4374  10.626   8.656   9.977
67493SOL     OW 4375  11.595   1.638  11.613
67493SOL    HW1 4376  11.588   1.586  11.533
67493SOL    HW2 4377  11.548   1.587  11.679
67494SOL     OW 4378   5.381  10.856  13.610
67494SOL    HW1 4379   5.393  10.770  13.569
67494SOL    HW2 4380   5.411  10.918  13.544
67495SOL     OW 4381   6.739   7.837   8.799
67495SOL    HW1 4382   6.791   7.874   8.727
67495SOL    HW2 4383   6.727   7.910   8.860
67496SOL     OW 4384   1.771   3.572   7.767
67496SOL    HW1 4385   1.803   3.487   7.796
67496SOL    HW2 4386   1.786   3.630   7.842
67497SOL     OW 4387   9.584   5.077   5.723
67497SOL    HW1 4388   9.532   4.997   5.722
67497SOL    HW2 4389   9.539   5.134   5.785
67498SOL     OW 4390   0.231  14.359   4.914
67498SOL    HW1 4391   0.170  14.418   4.960
67498SOL    HW2 4392   0.310  14.412   4.901
67499SOL     OW 4393  13.319   5.177   0.923
67499SOL    HW1 4394  13.401   5.227   0.924
67499SOL    HW2 4395  13.264   5.223   0.860
67500SOL     OW 4396  12.314   7.202   4.114
67500SOL    HW1 4397  12.294   7.163   4.199
67500SOL    HW2 4398  12.396   7.159   4.087
67501SOL     OW 4399   5.382  14.802   4.894
67501SOL    HW1 4400   5.452  14.838   4.949
67501SOL    HW2 4401   5.312  14.867   4.898
67502SOL     OW 4402  13.524   9.535   2.947
67502SOL    HW1 4403  13.537   9.586   3.027
67502SOL    HW2 4404  13.444   9.484   2.963
67503SOL     OW 4405   4.362  13.282  13.339
67503SOL    HW1 4406   4.268  13.271  13.325
67503SOL    HW2 4407   4.403  13.217  13.282
67504SOL     OW 4408   7.663   6.034   6.194
67504SOL    HW1 4409   7.577   6.076   6.188
67504SOL    HW2 4410   7.652   5.952   6.146
67505SOL     OW 4411   6.661   2.884   3.439
67505SOL    HW1 4412   6.598   2.830   3.392
67505SOL    HW2 4413   6.608   2.950   3.483
67506SOL     OW 4414  14.513  11.758  12.081
67506SOL    HW1 4415  14.511  11.757  11.986
67506SOL    HW2 4416  14.422  11.770  12.108
67507SOL     OW 4417   4.284   8.416  12.029
67507SOL    HW1 4418   4.242   8.490  12.072
67507SOL    HW2 4419   4.262   8.341  12.083
67508SOL     OW 4420   0.915   6.029   4.333
67508SOL    HW1 4421   0.830   5.998   4.366
67508SOL    HW2 4422   0.960   5.950   4.305
67509SOL     OW 4423  13.493  10.693   6.163
67509SOL    HW1 4424  13.503  10.639   6.241
67509SOL    HW2 4425  13.445  10.638   6.100
67510SOL     OW 4426   2.579   8.513   5.228
67510SOL    HW1 4427   2.649   8.562   5.271
67510SOL    HW2 4428   2.596   8.422   5.252
67511SOL     OW 4429   7.568   7.350   3.469
67511SOL    HW1 4430   7.641   7.405   3.441
67511SOL    HW2 4431   7.491   7.406   3.460
67512SOL     OW 4432   2.185   5.586   9.481
67512SOL    HW1 4433   2.132   5.507   9.492
67512SOL    HW2 4434   2.121   5.657   9.474
67513SOL     OW 4435  10.815   1.053  11.445
67513SOL    HW1 4436  10.851   1.123  11.390
67513SOL    HW2 4437  10.796   1.096  11.528
67514SOL     OW 4438  12.140   3.801   9.411
67514SOL    HW1 4439  12.082   3.725   9.411
67514SOL    HW2 4440  12.085   3.873   9.381
67515SOL     OW 4441   1.178   3.077   4.741
67515SOL    HW1 4442   1.155   3.163   4.705
67515SOL    HW2 4443   1.097   3.027   4.736
67516SOL     OW 4444   1.815   5.508  12.713
67516SOL    HW1 4445   1.726   5.477  12.702
67516SOL    HW2 4446   1.836   5.487  12.804
67517SOL     OW 4447   9.442  12.742  13.142
67517SOL    HW1 4448   9.494  12.819  13.119
67517SOL    HW2 4449   9.404  12.713  13.059
67518SOL     OW 4450  10.768  10.620   5.985
67518SOL    HW1 4451  10.864  10.621   5.982
67518SOL    HW2 4452  10.741  10.686   5.921
67519SOL     OW 4453  10.880   1.462  13.741
67519SOL    HW1 4454  10.853   1.441  13.831
67519SOL    HW2 4455  10.800   1.497  13.700
67520SOL     OW 4456  10.462   7.830   6.447
67520SOL    HW1 4457  10.486   7.788   6.364
67520SOL    HW2 4458  10.374   7.798   6.465
67521SOL     OW 4459  11.759  12.281   3.342
67521SOL    HW1 4460  11.706  12.303   3.419
67521SOL    HW2 4461  11.700  12.234   3.284
67522SOL     OW 4462  11.549   6.156   8.437
67522SOL    HW1 4463  11.624   6.104   8.409
67522SOL    HW2 4464  11.473   6.106   8.407
67523SOL     OW 4465   4.773   4.275   8.010
67523SOL    HW1 4466   4.695   4.220   8.017
67523SOL    HW2 4467   4.800   4.290   8.100
67524SOL     OW 4468   0.265   8.526   1.194
67524SOL    HW1 4469   0.247   8.433   1.189
67524SOL    HW2 4470   0.319   8.536   1.272
67525SOL     OW 4471   5.466   9.878   0.667
67525SOL    HW1 4472   5.437   9.944   0.603
67525SOL    HW2 4473   5.555   9.904   0.689
67526SOL     OW 4474  14.695   1.870   6.436
67526SOL    HW1 4475  14.675   1.898   6.526
67526SOL    HW2 4476  14.703   1.775   6.442
67527SOL     OW 4477   6.177  11.005   4.487
67527SOL    HW1 4478   6.219  11.091   4.485
67527SOL    HW2 4479   6.249  10.945   4.506
67528SOL     OW 4480   9.062   8.435   8.716
67528SOL    HW1 4481   9.096   8.346   8.707
67528SOL    HW2 4482   9.120   8.477   8.780
67529SOL     OW 4483  11.314   6.883   5.082
67529SOL    HW1 4484  11.408   6.870   5.066
67529SOL    HW2 4485  11.286   6.943   5.012
67530SOL     OW 4486   3.803   7.983   0.285
67530SOL    HW1 4487   3.893   7.989   0.318
67530SOL    HW2 4488   3.793   7.892   0.259
67531SOL     OW 4489   4.910  14.279   1.515
67531SOL    HW1 4490   5.002  14.263   1.496
67531SOL    HW2 4491   4.908  14.295   1.610
67532SOL     OW 4492   4.268   8.822   4.448
67532SOL    HW1 4493   4.185   8.788   4.480
67532SOL    HW2 4494   4.280   8.905   4.494
67533SOL     OW 4495   1.173   9.105   8.205
67533SOL    HW1 4496   1.127   9.188   8.190
67533SOL    HW2 4497   1.108   9.050   8.249
67534SOL     OW 4498   4.761   9.420  14.644
67534SOL    HW1 4499   4.742   9.352  14.708
67534SOL    HW2 4500   4.681   9.426  14.591
67535SOL     OW 4501   0.494   1.989   5.760
67535SOL    HW1 4502   0.540   1.967   5.841
67535SOL    HW2 4503   0.551   1.957   5.690
67536SOL     OW 4504   9.478   8.737  14.261
67536SOL    HW1 4505   9.483   8.717  14.167
67536SOL    HW2 4506   9.499   8.831  14.266
67537SOL     OW 4507   6.846  11.171  11.864
67537SOL    HW1 4508   6.929  11.218  11.868
67537SOL    HW2 4509   6.796  11.203  11.939
67538SOL     OW 4510   7.985   5.700   3.537
67538SOL    HW1 4511   7.989   5.674   3.629
67538SOL    HW2 4512   7.926   5.774   3.535
67539SOL     OW 4513   1.622   0.227   1.798
67539SOL    HW1 4514   1.601   0.134   1.787
67539SOL    HW2 4515   1.643   0.257   1.710
67540SOL     OW 4516  10.002  13.096   0.170
67540SOL    HW1 4517  10.074  13.056   0.121
67540SOL    HW2 4518   9.980  13.174   0.120
67541SOL     OW 4519  13.583   7.628   2.543
67541SOL    HW1 4520  13.580   7.714   2.586
67541SOL    HW2 4521  13.524   7.637   2.467
67542SOL     OW 4522  10.229   1.667  10.387
67542SOL    HW1 4523  10.277   1.584  10.394
67542SOL    HW2 4524  10.287   1.732  10.425
67543SOL     OW 4525   4.771   6.902   1.531
67543SOL    HW1 4526   4.787   6.951   1.612
67543SOL    HW2 4527   4.855   6.899   1.487
67544SOL     OW 4528   3.455  13.539   8.073
67544SOL    HW1 4529   3.452  13.507   7.983
67544SOL    HW2 4530   3.380  13.598   8.080
67545SOL     OW 4531  14.705   1.780  12.822
67545SOL    HW1 4532  14.753   1.776  12.905
67545SOL    HW2 4533  14.756   1.726  12.762
67546SOL     OW 4534   7.135  10.966   6.050
67546SOL    HW1 4535   7.174  10.893   6.003
67546SOL    HW2 4536   7.177  10.964   6.136
67547SOL     OW 4537  11.525   8.597   6.209
67547SOL    HW1 4538  11.515   8.692   6.206
67547SOL    HW2 4539  11.471   8.565   6.137
67548SOL     OW 4540  13.029   7.867   1.049
67548SOL    HW1 4541  13.033   7.773   1.065
67548SOL    HW2 4542  13.006   7.906   1.133
67549SOL     OW 4543  10.841   3.477   0.945
67549SOL    HW1 4544  10.773   3.496   0.881
67549SOL    HW2 4545  10.829   3.543   1.013
67550SOL     OW 4546  11.151   4.602  14.072
67550SOL    HW1 4547  11.243   4.575  14.077
67550SOL    HW2 4548  11.101   4.521  14.077
67551SOL     OW 4549   9.452   8.589   1.927
67551SOL    HW1 4550   9.438   8.667   1.873
67551SOL    HW2 4551   9.478   8.521   1.865
67552SOL     OW 4552   2.851   5.448  11.836
67552SOL    HW1 4553   2.803   5.485  11.761
67552SOL    HW2 4554   2.789   5.450  11.908
67553SOL     OW 4555  13.024   4.077   8.683
67553SOL    HW1 4556  12.944   4.041   8.720
67553SOL    HW2 4557  12.998   4.161   8.646
67554SOL     OW 4558   6.087   4.606   6.411
67554SOL    HW1 4559   6.129   4.675   6.360
67554SOL    HW2 4560   6.070   4.646   6.496
67555SOL     OW 4561   5.743  14.616   8.730
67555SOL    HW1 4562   5.831  14.579   8.722
67555SOL    HW2 4563   5.736  14.642   8.821
67556SOL     OW 4564  13.011   3.493   6.129
67556SOL    HW1 4565  13.047   3.437   6.198
67556SOL    HW2 4566  13.056   3.576   6.139
67557SOL     OW 4567   6.429  13.732   4.664
67557SOL    HW1 4568   6.361  13.725   4.597
67557SOL    HW2 4569   6.381  13.722   4.747
67558SOL     OW 4570  10.754  12.452  12.757
67558SOL    HW1 4571  10.742  12.391  12.684
67558SOL    HW2 4572  10.764  12.395  12.834
67559SOL     OW 4573  12.641   5.333  10.888
67559SOL    HW1 4574  12.729   5.350  10.854
67559SOL    HW2 4575  12.583   5.361  10.818
67560SOL     OW 4576  10.167   2.462   6.751
67560SOL    HW1 4577  10.133   2.406   6.682
67560SOL    HW2 4578  10.206   2.536   6.705
67561SOL     OW 4579   5.838   2.800   6.434
67561SOL    HW1 4580   5.843   2.895   6.449
67561SOL    HW2 4581   5.761   2.788   6.378
67562SOL     OW 4582   5.649   4.881   3.577
67562SOL    HW1 4583   5.619   4.947   3.514
67562SOL    HW2 4584   5.740   4.904   3.593
67563SOL     OW 4585  14.076   4.585  13.719
67563SOL    HW1 4586  14.042   4.622  13.637
67563SOL    HW2 4587  14.016   4.514  13.740
67564SOL     OW 4588   5.485   5.963  12.766
67564SOL    HW1 4589   5.442   6.035  12.721
67564SOL    HW2 4590   5.511   5.903  12.697
67565SOL     OW 4591   3.129  10.482   1.861
67565SOL    HW1 4592   3.172  10.434   1.790
67565SOL    HW2 4593   3.059  10.531   1.818
67566SOL     OW 4594   6.541  10.114   3.775
67566SOL    HW1 4595   6.546  10.209   3.783
67566SOL    HW2 4596   6.617  10.090   3.722
67567SOL     OW 4597   7.703   9.523  12.260
67567SOL    HW1 4598   7.669   9.519  12.171
67567SOL    HW2 4599   7.751   9.606  12.264
67568SOL     OW 4600   4.297   5.273   2.596
67568SOL    HW1 4601   4.257   5.354   2.563
67568SOL    HW2 4602   4.368   5.303   2.653
67569SOL     OW 4603  13.767   7.209   2.053
67569SOL    HW1 4604  13.803   7.292   2.020
67569SOL    HW2 4605  13.816   7.194   2.134
67570SOL     OW 4606   2.557   5.436  13.221
67570SOL    HW1 4607   2.481   5.467  13.171
67570SOL    HW2 4608   2.621   5.506  13.213
67571SOL     OW 4609   5.758  10.239  10.042
67571SOL    HW1 4610   5.735  10.277  10.127
67571SOL    HW2 4611   5.690  10.269   9.983
67572SOL     OW 4612   1.935   5.275  14.309
67572SOL    HW1 4613   1.968   5.319  14.231
67572SOL    HW2 4614   1.987   5.311  14.381
67573SOL     OW 4615   2.505   0.564   3.326
67573SOL    HW1 4616   2.530   0.644   3.279
67573SOL    HW2 4617   2.586   0.512   3.329
67574SOL     OW 4618   7.300  13.801   2.226
67574SOL    HW1 4619   7.250  13.854   2.288
67574SOL    HW2 4620   7.333  13.863   2.161
67575SOL     OW 4621   3.499   9.815  10.566
67575SOL    HW1 4622   3.427   9.878  10.570
67575SOL    HW2 4623   3.492   9.777  10.478
67576SOL     OW 4624   6.008  12.366  12.091
67576SOL    HW1 4625   6.076  12.387  12.027
67576SOL    HW2 4626   6.049  12.379  12.176
67577SOL     OW 4627   2.749   0.224  11.004
67577SOL    HW1 4628   2.812   0.295  11.010
67577SOL    HW2 4629   2.663   0.267  11.001
67578SOL     OW 4630   8.067  14.843   8.457
67578SOL    HW1 4631   8.072  14.748   8.458
67578SOL    HW2 4632   8.152   0.000   8.424
67579SOL     OW 4633   7.715   5.214  12.649
67579SOL    HW1 4634   7.768   5.160  12.708
67579SOL    HW2 4635   7.630   5.170  12.646
67580SOL     OW 4636  12.129   6.651  14.021
67580SOL    HW1 4637  12.210   6.701  14.012
67580SOL    HW2 4638  12.148   6.586  14.089
67581SOL     OW 4639   8.823  12.132   8.798
67581SOL    HW1 4640   8.811  12.165   8.709
67581SOL    HW2 4641   8.917  12.144   8.815
67582SOL     OW 4642   0.085   1.661   6.468
67582SOL    HW1 4643   0.008   1.611   6.495
67582SOL    HW2 4644   0.104   1.631   6.379
67583SOL     OW 4645  14.260  10.174   5.726
67583SOL    HW1 4646  14.279  10.187   5.819
67583SOL    HW2 4647  14.330  10.221   5.681
67584SOL     OW 4648  12.354   7.433   1.938
67584SOL    HW1 4649  12.366   7.430   1.843
67584SOL    HW2 4650  12.416   7.499   1.968
67585SOL     OW 4651   5.924  13.095  14.609
67585SOL    HW1 4652   6.000  13.113  14.665
67585SOL    HW2 4653   5.952  13.120  14.521
67586SOL     OW 4654   2.633   5.053   7.676
67586SOL    HW1 4655   2.709   4.997   7.695
67586SOL    HW2 4656   2.672   5.137   7.651
67587SOL     OW 4657   1.530  12.738   8.989
67587SOL    HW1 4658   1.485  12.811   8.946
67587SOL    HW2 4659   1.600  12.713   8.928
67588SOL     OW 4660  10.247   8.364   6.849
67588SOL    HW1 4661  10.170   8.308   6.855
67588SOL    HW2 4662  10.280   8.350   6.760
67589SOL     OW 4663  11.457  11.739   9.404
67589SOL    HW1 4664  11.453  11.650   9.440
67589SOL    HW2 4665  11.402  11.734   9.325
67590SOL     OW 4666   3.000   0.929   0.521
67590SOL    HW1 4667   3.005   0.977   0.439
67590SOL    HW2 4668   3.004   0.836   0.495
67591SOL     OW 4669  12.127  13.646  14.679
67591SOL    HW1 4670  12.116  13.581  14.749
67591SOL    HW2 4671  12.081  13.723  14.711
67592SOL     OW 4672   7.688   7.318   3.966
67592SOL    HW1 4673   7.726   7.404   3.948
67592SOL    HW2 4674   7.744   7.257   3.917
67593SOL     OW 4675   7.135  12.087  10.112
67593SOL    HW1 4676   7.173  12.085  10.024
67593SOL    HW2 4677   7.054  12.037  10.104
67594SOL     OW 4678   9.148   6.369   6.327
67594SOL    HW1 4679   9.153   6.457   6.291
67594SOL    HW2 4680   9.077   6.372   6.391
67595SOL     OW 4681  11.926  10.958   1.031
67595SOL    HW1 4682  11.970  10.997   1.106
67595SOL    HW2 4683  11.835  10.987   1.038
67596SOL     OW 4684   4.277   4.052  13.441
67596SOL    HW1 4685   4.187   4.034  13.416
67596SOL    HW2 4686   4.282   4.032  13.534
67597SOL     OW 4687  11.497   2.251  10.596
67597SOL    HW1 4688  11.534   2.300  10.522
67597SOL    HW2 4689  11.572   2.208  10.636
67598SOL     OW 4690   8.058   1.241   7.026
67598SOL    HW1 4691   8.085   1.248   7.118
67598SOL    HW2 4692   8.125   1.289   6.978
67599SOL     OW 4693  13.903   1.943  11.880
67599SOL    HW1 4694  13.960   2.006  11.925
67599SOL    HW2 4695  13.953   1.916  11.803
67600SOL     OW 4696   0.480   0.263   2.031
67600SOL    HW1 4697   0.390   0.278   2.001
67600SOL    HW2 4698   0.469   0.220   2.116
67601SOL     OW 4699   5.802   5.137  14.584
67601SOL    HW1 4700   5.803   5.171  14.674
67601SOL    HW2 4701   5.764   5.208  14.532
67602SOL     OW 4702   6.573  10.111   7.109
67602SOL    HW1 4703   6.626  10.110   7.029
67602SOL    HW2 4704   6.506  10.045   7.093
67603SOL     OW 4705  10.782  12.933  10.095
67603SOL    HW1 4706  10.694  12.961  10.070
67603SOL    HW2 4707  10.814  13.003  10.152
67604SOL     OW 4708   6.358  11.893   5.447
67604SOL    HW1 4709   6.448  11.864   5.429
67604SOL    HW2 4710   6.366  11.988   5.461
67605SOL     OW 4711  11.551   1.840   5.529
67605SOL    HW1 4712  11.472   1.886   5.503
67605SOL    HW2 4713  11.555   1.850   5.624
67606SOL     OW 4714  13.765   8.892  12.178
67606SOL    HW1 4715  13.740   8.925  12.264
67606SOL    HW2 4716  13.786   8.970  12.127
67607SOL     OW 4717   9.065   4.533   0.295
67607SOL    HW1 4718   8.995   4.555   0.234
67607SOL    HW2 4719   9.142   4.580   0.262
67608SOL     OW 4720   2.685   5.560  12.926
67608SOL    HW1 4721   2.626   5.628  12.894
67608SOL    HW2 4722   2.701   5.583  13.017
67609SOL     OW 4723   2.560  11.642   0.261
67609SOL    HW1 4724   2.628  11.579   0.286
67609SOL    HW2 4725   2.607  11.710   0.212
67610SOL     OW 4726   8.500  10.852  11.249
67610SOL    HW1 4727   8.421  10.818  11.291
67610SOL    HW2 4728   8.561  10.778  11.249
67611SOL     OW 4729   6.872  10.008   0.568
67611SOL    HW1 4730   6.882   9.915   0.547
67611SOL    HW2 4731   6.960  10.044   0.560
67612SOL     OW 4732   0.144  10.908  11.135
67612SOL    HW1 4733   0.127  10.979  11.197
67612SOL    HW2 4734   0.058  10.866  11.123
67613SOL     OW 4735   6.487   4.947   9.617
67613SOL    HW1 4736   6.451   4.901   9.693
67613SOL    HW2 4737   6.424   4.932   9.547
67614SOL     OW 4738   7.926   1.936   6.224
67614SOL    HW1 4739   7.979   1.919   6.301
67614SOL    HW2 4740   7.989   1.962   6.157
67615SOL     OW 4741   1.302  11.224  10.173
67615SOL    HW1 4742   1.359  11.294  10.205
67615SOL    HW2 4743   1.293  11.165  10.248
67616SOL     OW 4744   0.489   6.496  10.342
67616SOL    HW1 4745   0.484   6.439  10.266
67616SOL    HW2 4746   0.549   6.452  10.402
67617SOL     OW 4747  11.101   4.611  14.524
67617SOL    HW1 4748  11.030   4.670  14.498
67617SOL    HW2 4749  11.148   4.593  14.442
67618SOL     OW 4750   0.893   6.858   5.030
67618SOL    HW1 4751   0.911   6.788   4.966
67618SOL    HW2 4752   0.979   6.877   5.068
67619SOL     OW 4753   3.436   2.731   6.028
67619SOL    HW1 4754   3.419   2.809   6.082
67619SOL    HW2 4755   3.398   2.659   6.078
67620SOL     OW 4756   1.065   2.279   2.617
67620SOL    HW1 4757   1.009   2.352   2.643
67620SOL    HW2 4758   1.074   2.226   2.696
67621SOL     OW 4759   4.185  14.721   2.257
67621SOL    HW1 4760   4.259  14.677   2.215
67621SOL    HW2 4761   4.173  14.674   2.340
67622SOL     OW 4762  10.684   8.053   8.777
67622SOL    HW1 4763  10.669   7.959   8.784
67622SOL    HW2 4764  10.665   8.087   8.865
67623SOL     OW 4765  14.562   6.712   5.691
67623SOL    HW1 4766  14.518   6.777   5.745
67623SOL    HW2 4767  14.534   6.732   5.602
67624SOL     OW 4768   4.785   6.436   9.085
67624SOL    HW1 4769   4.732   6.479   9.153
67624SOL    HW2 4770   4.737   6.356   9.065
67625SOL     OW 4771  12.282  12.040   9.956
67625SOL    HW1 4772  12.195  12.003   9.941
67625SOL    HW2 4773  12.274  12.131   9.926
67626SOL     OW 4774   7.457   1.087   3.012
67626SOL    HW1 4775   7.498   1.055   3.093
67626SOL    HW2 4776   7.418   1.171   3.037
67627SOL     OW 4777  11.721  11.047   5.573
67627SOL    HW1 4778  11.752  11.064   5.662
67627SOL    HW2 4779  11.777  11.101   5.518
67628SOL     OW 4780   9.134  10.319   5.908
67628SOL    HW1 4781   9.064  10.378   5.937
67628SOL    HW2 4782   9.190  10.310   5.985
67629SOL     OW 4783   3.366   3.133   8.762
67629SOL    HW1 4784   3.407   3.081   8.831
67629SOL    HW2 4785   3.411   3.106   8.682
67630SOL     OW 4786   8.050   3.462   7.365
67630SOL    HW1 4787   8.058   3.501   7.278
67630SOL    HW2 4788   8.087   3.374   7.355
67631SOL     OW 4789  11.997  10.317  11.037
67631SOL    HW1 4790  12.016  10.226  11.062
67631SOL    HW2 4791  11.928  10.309  10.971
67632SOL     OW 4792   5.981  13.197  13.529
67632SOL    HW1 4793   5.945  13.179  13.616
67632SOL    HW2 4794   5.972  13.291  13.518
67633SOL     OW 4795   7.031   8.678  11.198
67633SOL    HW1 4796   6.986   8.678  11.283
67633SOL    HW2 4797   6.978   8.735  11.143
67634SOL     OW 4798  12.956   6.566   2.532
67634SOL    HW1 4799  12.943   6.657   2.558
67634SOL    HW2 4800  12.868   6.531   2.519
67635SOL     OW 4801  11.424   3.403   5.997
67635SOL    HW1 4802  11.465   3.319   6.017
67635SOL    HW2 4803  11.331   3.389   6.014
67636SOL     OW 4804   6.435   1.846   9.653
67636SOL    HW1 4805   6.457   1.754   9.664
67636SOL    HW2 4806   6.520   1.890   9.650
67637SOL     OW 4807   5.253   9.552  10.115
67637SOL    HW1 4808   5.236   9.481  10.178
67637SOL    HW2 4809   5.348   9.557  10.109
67638SOL     OW 4810   9.946   1.876   7.372
67638SOL    HW1 4811   9.911   1.932   7.302
67638SOL    HW2 4812  10.011   1.931   7.416
67639SOL     OW 4813   7.259   7.030   6.332
67639SOL    HW1 4814   7.200   7.094   6.292
67639SOL    HW2 4815   7.204   6.982   6.394
67640SOL     OW 4816   0.064  11.333   0.101
67640SOL    HW1 4817   0.073  11.239   0.082
67640SOL    HW2 4818   0.110  11.376   0.029
67641SOL     OW 4819   7.737   8.960   4.375
67641SOL    HW1 4820   7.795   8.886   4.358
67641SOL    HW2 4821   7.651   8.931   4.344
67642SOL     OW 4822   6.285   1.333   5.421
67642SOL    HW1 4823   6.266   1.267   5.489
67642SOL    HW2 4824   6.345   1.394   5.464
67643SOL     OW 4825  10.650  11.026   2.161
67643SOL    HW1 4826  10.599  10.954   2.125
67643SOL    HW2 4827  10.715  10.983   2.217
67644SOL     OW 4828  13.707   1.318   3.190
67644SOL    HW1 4829  13.628   1.368   3.166
67644SOL    HW2 4830  13.760   1.381   3.240
67645SOL     OW 4831   6.262   6.082  14.641
67645SOL    HW1 4832   6.191   6.069  14.704
67645SOL    HW2 4833   6.230   6.043  14.560
67646SOL     OW 4834   1.278   7.781  10.251
67646SOL    HW1 4835   1.287   7.813  10.162
67646SOL    HW2 4836   1.333   7.703  10.254
67647SOL     OW 4837   1.141   4.293   5.056
67647SOL    HW1 4838   1.181   4.267   4.973
67647SOL    HW2 4839   1.110   4.210   5.094
67648SOL     OW 4840   3.177   3.915  11.833
67648SOL    HW1 4841   3.126   3.979  11.883
67648SOL    HW2 4842   3.217   3.965  11.762
67649SOL     OW 4843   0.607   9.269   0.563
67649SOL    HW1 4844   0.515   9.280   0.540
67649SOL    HW2 4845   0.611   9.183   0.605
67650SOL     OW 4846  13.564  12.794   0.852
67650SOL    HW1 4847  13.517  12.867   0.892
67650SOL    HW2 4848  13.578  12.732   0.923
67651SOL     OW 4849  11.405   0.986  14.195
67651SOL    HW1 4850  11.442   0.949  14.274
67651SOL    HW2 4851  11.479   1.024  14.148
67652SOL     OW 4852  12.169   1.667   6.727
67652SOL    HW1 4853  12.144   1.679   6.635
67652SOL    HW2 4854  12.264   1.675   6.727
67653SOL     OW 4855   4.162  11.745   4.906
67653SOL    HW1 4856   4.236  11.704   4.951
67653SOL    HW2 4857   4.200  11.781   4.826
67654SOL     OW 4858   5.192   7.459   3.382
67654SOL    HW1 4859   5.117   7.472   3.324
67654SOL    HW2 4860   5.251   7.401   3.333
67655SOL     OW 4861   9.177   7.586  12.380
67655SOL    HW1 4862   9.105   7.564  12.321
67655SOL    HW2 4863   9.190   7.680  12.368
67656SOL     OW 4864   9.328   2.293  12.434
67656SOL    HW1 4865   9.274   2.369  12.455
67656SOL    HW2 4866   9.310   2.230  12.503
67657SOL     OW 4867   7.038   4.825  14.168
67657SOL    HW1 4868   7.066   4.868  14.087
67657SOL    HW2 4869   7.114   4.828  14.225
67658SOL     OW 4870  11.336   9.574   8.434
67658SOL    HW1 4871  11.365   9.626   8.359
67658SOL    HW2 4872  11.252   9.537   8.406
67659SOL     OW 4873   5.452   6.105   2.840
67659SOL    HW1 4874   5.388   6.100   2.768
67659SOL    HW2 4875   5.520   6.163   2.808
67660SOL     OW 4876   2.529  11.762   4.449
67660SOL    HW1 4877   2.616  11.754   4.487
67660SOL    HW2 4878   2.517  11.682   4.398
67661SOL     OW 4879   2.512   2.510   7.059
67661SOL    HW1 4880   2.439   2.459   7.093
67661SOL    HW2 4881   2.574   2.445   7.026
67662SOL     OW 4882   3.855   5.486  14.562
67662SOL    HW1 4883   3.843   5.579  14.578
67662SOL    HW2 4884   3.863   5.447  14.649
67663SOL     OW 4885   5.843   5.975   9.721
67663SOL    HW1 4886   5.780   6.038   9.756
67663SOL    HW2 4887   5.846   5.906   9.786
67664SOL     OW 4888   1.761  10.680  12.334
67664SOL    HW1 4889   1.745  10.765  12.293
67664SOL    HW2 4890   1.843  10.650  12.295
67665SOL     OW 4891   4.315   8.486   8.633
67665SOL    HW1 4892   4.363   8.546   8.576
67665SOL    HW2 4893   4.331   8.399   8.595
67666SOL     OW 4894   9.679   1.526  12.985
67666SOL    HW1 4895   9.604   1.471  13.009
67666SOL    HW2 4896   9.752   1.464  12.979
67667SOL     OW 4897   6.567   5.626  13.028
67667SOL    HW1 4898   6.492   5.683  13.015
67667SOL    HW2 4899   6.616   5.632  12.946
67668SOL     OW 4900   8.916  12.155   4.714
67668SOL    HW1 4901   8.993  12.135   4.768
67668SOL    HW2 4902   8.842  12.126   4.767
67669SOL     OW 4903   1.115  13.678  12.180
67669SOL    HW1 4904   1.032  13.638  12.154
67669SOL    HW2 4905   1.182  13.613  12.158
67670SOL     OW 4906   5.017  12.181  12.413
67670SOL    HW1 4907   5.037  12.246  12.346
67670SOL    HW2 4908   5.096  12.128  12.420
67671SOL     OW 4909  11.516   4.028   8.579
67671SOL    HW1 4910  11.495   3.971   8.505
67671SOL    HW2 4911  11.472   3.989   8.654
67672SOL     OW 4912   9.444  14.183   8.254
67672SOL    HW1 4913   9.413  14.178   8.344
67672SOL    HW2 4914   9.415  14.268   8.222
67673SOL     OW 4915   9.538   0.965  13.846
67673SOL    HW1 4916   9.624   1.007  13.852
67673SOL    HW2 4917   9.518   0.938  13.936
67674SOL     OW 4918   6.677   9.813   2.424
67674SOL    HW1 4919   6.686   9.744   2.358
67674SOL    HW2 4920   6.727   9.782   2.499
67675SOL     OW 4921   6.136  13.670   0.858
67675SOL    HW1 4922   6.179  13.705   0.780
67675SOL    HW2 4923   6.203  13.676   0.927
67676SOL     OW 4924  10.725  10.213   4.655
67676SOL    HW1 4925  10.786  10.140   4.665
67676SOL    HW2 4926  10.723  10.255   4.741
67677SOL     OW 4927   6.310   2.397   8.592
67677SOL    HW1 4928   6.303   2.475   8.649
67677SOL    HW2 4929   6.271   2.425   8.509
67678SOL     OW 4930   6.868   3.903  10.477
67678SOL    HW1 4931   6.783   3.943  10.459
67678SOL    HW2 4932   6.892   3.859  10.395
67679SOL     OW 4933   0.042   6.525   8.976
67679SOL    HW1 4934   0.123   6.522   8.926
67679SOL    HW2 4935  14.857   6.460   8.933
67680SOL     OW 4936   1.087   9.347  14.295
67680SOL    HW1 4937   1.077   9.412  14.226
67680SOL    HW2 4938   1.068   9.394  14.376
67681SOL     OW 4939  13.013  11.901   0.433
67681SOL    HW1 4940  12.976  11.813   0.431
67681SOL    HW2 4941  13.024  11.925   0.341
67682SOL     OW 4942  13.320  10.384  12.402
67682SOL    HW1 4943  13.399  10.375  12.349
67682SOL    HW2 4944  13.258  10.429  12.345
67683SOL     OW 4945   4.938   6.031   7.219
67683SOL    HW1 4946   4.931   6.013   7.125
67683SOL    HW2 4947   5.026   6.001   7.242
67684SOL     OW 4948   4.243   6.046   1.353
67684SOL    HW1 4949   4.258   6.079   1.264
67684SOL    HW2 4950   4.153   6.072   1.373
67685SOL     OW 4951  13.024  11.909  10.152
67685SOL    HW1 4952  12.967  11.890  10.226
67685SOL    HW2 4953  13.113  11.900  10.186
67686SOL     OW 4954   2.304  14.865   2.274
67686SOL    HW1 4955   2.224   0.025   2.234
67686SOL    HW2 4956   2.277  14.793   2.331
67687SOL     OW 4957   2.032   6.612   5.092
67687SOL    HW1 4958   1.987   6.530   5.074
67687SOL    HW2 4959   2.125   6.592   5.080
67688SOL     OW 4960   7.498  11.575   1.503
67688SOL    HW1 4961   7.552  11.534   1.436
67688SOL    HW2 4962   7.471  11.503   1.560
67689SOL     OW 4963  14.507  11.611  14.155
67689SOL    HW1 4964  14.465  11.594  14.071
67689SOL    HW2 4965  14.480  11.700  14.178
67690SOL     OW 4966  12.203   7.536   7.424
67690SOL    HW1 4967  12.219   7.586   7.344
67690SOL    HW2 4968  12.178   7.449   7.394
67691SOL     OW 4969   7.567   0.406  12.829
67691SOL    HW1 4970   7.511   0.338  12.867
67691SOL    HW2 4971   7.517   0.487  12.839
67692SOL     OW 4972   4.642   7.275  14.499
67692SOL    HW1 4973   4.603   7.214  14.437
67692SOL    HW2 4974   4.574   7.289  14.565
67693SOL     OW 4975  12.109   0.929   6.997
67693SOL    HW1 4976  12.024   0.897   6.966
67693SOL    HW2 4977  12.172   0.869   6.959
67694SOL     OW 4978   9.766   4.560   7.437
67694SOL    HW1 4979   9.675   4.529   7.443
67694SOL    HW2 4980   9.768   4.613   7.357
67695SOL     OW 4981   5.741   5.108   1.993
67695SOL    HW1 4982   5.753   5.160   2.073
67695SOL    HW2 4983   5.781   5.160   1.924
67696SOL     OW 4984   8.437  11.925   3.187
67696SOL    HW1 4985   8.513  11.946   3.132
67696SOL    HW2 4986   8.365  11.918   3.125
67697SOL     OW 4987   0.752  13.534   5.919
67697SOL    HW1 4988   0.736  13.598   5.989
67697SOL    HW2 4989   0.667  13.493   5.904
67698SOL     OW 4990   7.963   0.531   1.169
67698SOL    HW1 4991   8.018   0.580   1.107
67698SOL    HW2 4992   7.881   0.518   1.122
67699SOL     OW 4993   3.349   5.320   7.647
67699SOL    HW1 4994   3.294   5.247   7.619
67699SOL    HW2 4995   3.428   5.313   7.594
67700SOL     OW 4996  10.216   1.921   1.496
67700SOL    HW1 4997  10.175   1.866   1.429
67700SOL    HW2 4998  10.145   1.943   1.556
67701SOL     OW 4999  10.094   4.813  10.838
67701SOL    HW1 5000  10.083   4.887  10.898
67701SOL    HW2 5001  10.077   4.736  10.893
67702SOL     OW 5002  13.069   5.674  10.311
67702SOL    HW1 5003  13.088   5.763  10.341
67702SOL    HW2 5004  12.984   5.654  10.349
67703SOL     OW 5005   6.420   5.926  13.015
67703SOL    HW1 5006   6.503   5.895  12.979
67703SOL    HW2 5007   6.390   5.992  12.952
67704SOL     OW 5008   6.492  12.878   1.084
67704SOL    HW1 5009   6.485  12.974   1.085
67704SOL    HW2 5010   6.441  12.851   1.008
67705SOL     OW 5011   8.834  13.565   3.117
67705SOL    HW1 5012   8.746  13.532   3.100
67705SOL    HW2 5013   8.828  13.607   3.203
67706SOL     OW 5014   7.457   5.599   8.120
67706SOL    HW1 5015   7.451   5.685   8.161
67706SOL    HW2 5016   7.449   5.616   8.026
67707SOL     OW 5017  11.220  14.177   1.932
67707SOL    HW1 5018  11.274  14.121   1.876
67707SOL    HW2 5019  11.245  14.152   2.021
67708SOL     OW 5020  14.551   8.498  11.429
67708SOL    HW1 5021  14.627   8.486  11.371
67708SOL    HW2 5022  14.515   8.410  11.440
67709SOL     OW 5023   2.227   1.783   6.061
67709SOL    HW1 5024   2.223   1.687   6.061
67709SOL    HW2 5025   2.301   1.803   6.003
67710SOL     OW 5026   4.951   2.897   0.178
67710SOL    HW1 5027   4.928   2.830   0.114
67710SOL    HW2 5028   4.998   2.849   0.247
67711SOL     OW 5029   2.480   9.105  14.386
67711SOL    HW1 5030   2.398   9.114  14.337
67711SOL    HW2 5031   2.535   9.176  14.355
67712SOL     OW 5032   5.351   9.838   0.903
67712SOL    HW1 5033   5.424   9.850   0.965
67712SOL    HW2 5034   5.389   9.856   0.817
67713SOL     OW 5035   3.836  10.834  14.472
67713SOL    HW1 5036   3.843  10.800  14.383
67713SOL    HW2 5037   3.824  10.757  14.527
67714SOL     OW 5038   7.682  13.342   4.785
67714SOL    HW1 5039   7.776  13.322   4.790
67714SOL    HW2 5040   7.670  13.414   4.846
67715SOL     OW 5041  10.131  14.165   2.769
67715SOL    HW1 5042  10.177  14.081   2.770
67715SOL    HW2 5043  10.044  14.143   2.735
67716SOL     OW 5044  13.001  14.844   6.754
67716SOL    HW1 5045  12.931   0.037   6.754
67716SOL    HW2 5046  13.081   0.025   6.756
67717SOL     OW 5047   9.060   3.803   5.019
67717SOL    HW1 5048   9.015   3.886   5.002
67717SOL    HW2 5049   8.991   3.742   5.043
67718SOL     OW 5050  12.963  14.059  10.397
67718SOL    HW1 5051  12.901  14.080  10.326
67718SOL    HW2 5052  12.911  14.065  10.477
67719SOL     OW 5053   2.370   2.371   2.864
67719SOL    HW1 5054   2.389   2.302   2.801
67719SOL    HW2 5055   2.422   2.349   2.941
67720SOL     OW 5056  11.451   2.908   9.745
67720SOL    HW1 5057  11.441   2.934   9.653
67720SOL    HW2 5058  11.363   2.882   9.773
67721SOL     OW 5059  11.467  11.426   3.457
67721SOL    HW1 5060  11.447  11.517   3.481
67721SOL    HW2 5061  11.563  11.425   3.449
67722SOL     OW 5062   5.418   3.795   9.872
67722SOL    HW1 5063   5.430   3.707   9.908
67722SOL    HW2 5064   5.339   3.828   9.915
67723SOL     OW 5065   9.498   8.921   6.917
67723SOL    HW1 5066   9.474   8.862   6.845
67723SOL    HW2 5067   9.438   8.995   6.909
67724SOL     OW 5068   3.724  11.583  11.131
67724SOL    HW1 5069   3.742  11.552  11.042
67724SOL    HW2 5070   3.805  11.566  11.178
67725SOL     OW 5071  14.072   3.443   5.018
67725SOL    HW1 5072  13.980   3.419   5.025
67725SOL    HW2 5073  14.076   3.498   4.940
67726SOL     OW 5074   5.834   1.855   4.659
67726SOL    HW1 5075   5.858   1.816   4.575
67726SOL    HW2 5076   5.907   1.835   4.716
67727SOL     OW 5077  10.976   0.685   5.813
67727SOL    HW1 5078  11.043   0.617   5.805
67727SOL    HW2 5079  11.025   0.767   5.815
67728SOL     OW 5080   5.759   2.671   3.955
67728SOL    HW1 5081   5.710   2.753   3.969
67728SOL    HW2 5082   5.824   2.670   4.025
67729SOL     OW 5083  13.727   3.076  10.891
67729SOL    HW1 5084  13.637   3.097  10.870
67729SOL    HW2 5085  13.733   3.088  10.986
67730SOL     OW 5086  14.023   6.269   8.316
67730SOL    HW1 5087  14.057   6.198   8.371
67730SOL    HW2 5088  14.049   6.245   8.227
67731SOL     OW 5089   1.846   6.022   0.339
67731SOL    HW1 5090   1.862   6.102   0.289
67731SOL    HW2 5091   1.752   6.022   0.354
67732SOL     OW 5092   7.113   4.208  14.381
67732SOL    HW1 5093   7.119   4.148  14.456
67732SOL    HW2 5094   7.070   4.286  14.416
67733SOL     OW 5095   9.611  14.013  11.066
67733SOL    HW1 5096   9.588  14.061  10.986
67733SOL    HW2 5097   9.529  13.970  11.092
67734SOL     OW 5098  14.429   2.346   5.511
67734SOL    HW1 5099  14.507   2.390   5.546
67734SOL    HW2 5100  14.463   2.271   5.463
67735SOL     OW 5101  13.557   5.517   8.536
67735SOL    HW1 5102  13.550   5.605   8.574
67735SOL    HW2 5103  13.590   5.463   8.607
67736SOL     OW 5104  13.182   7.794   3.343
67736SOL    HW1 5105  13.219   7.787   3.255
67736SOL    HW2 5106  13.088   7.784   3.330
67737SOL     OW 5107   3.348   5.093   3.222
67737SOL    HW1 5108   3.297   5.136   3.291
67737SOL    HW2 5109   3.379   5.165   3.167
67738SOL     OW 5110   0.606  11.630   8.937
67738SOL    HW1 5111   0.652  11.688   8.877
67738SOL    HW2 5112   0.673  11.567   8.965
67739SOL     OW 5113  10.428   6.845   1.615
67739SOL    HW1 5114  10.372   6.859   1.690
67739SOL    HW2 5115  10.374   6.866   1.539
67740SOL     OW 5116   1.995   2.618   0.933
67740SOL    HW1 5117   2.058   2.658   0.993
67740SOL    HW2 5118   1.943   2.692   0.900
67741SOL     OW 5119   5.455  14.079   9.293
67741SOL    HW1 5120   5.478  14.138   9.365
67741SOL    HW2 5121   5.460  14.134   9.215
67742SOL     OW 5122   0.501  13.926  13.858
67742SOL    HW1 5123   0.484  13.883  13.942
67742SOL    HW2 5124   0.529  13.856  13.800
67743SOL     OW 5125  11.713   0.587   9.910
67743SOL    HW1 5126  11.725   0.540   9.992
67743SOL    HW2 5127  11.678   0.521   9.850
67744SOL     OW 5128   1.524   7.228   3.406
67744SOL    HW1 5129   1.590   7.159   3.404
67744SOL    HW2 5130   1.461   7.200   3.473
67745SOL     OW 5131   5.757   7.442   8.766
67745SOL    HW1 5132   5.839   7.407   8.731
67745SOL    HW2 5133   5.784   7.499   8.838
67746SOL     OW 5134  11.928   2.815  12.928
67746SOL    HW1 5135  12.021   2.792  12.938
67746SOL    HW2 5136  11.901   2.770  12.848
67747SOL     OW 5137  10.374  11.493  14.160
67747SOL    HW1 5138  10.433  11.508  14.086
67747SOL    HW2 5139  10.391  11.402  14.185
67748SOL     OW 5140   2.720   5.945  12.620
67748SOL    HW1 5141   2.812   5.927  12.639
67748SOL    HW2 5142   2.720   6.030  12.575
67749SOL     OW 5143   2.110  12.605   7.175
67749SOL    HW1 5144   2.021  12.638   7.172
67749SOL    HW2 5145   2.110  12.530   7.116
67750SOL     OW 5146   2.997  13.311  13.409
67750SOL    HW1 5147   3.042  13.388  13.375
67750SOL    HW2 5148   2.971  13.262  13.331
67751SOL     OW 5149   8.307   0.407   1.859
67751SOL    HW1 5150   8.257   0.470   1.911
67751SOL    HW2 5151   8.334   0.340   1.921
67752SOL     OW 5152   6.104   0.042  14.651
67752SOL    HW1 5153   6.052   0.050  14.571
67752SOL    HW2 5154   6.084  14.827  14.685
67753SOL     OW 5155   1.220   3.554  12.928
67753SOL    HW1 5156   1.267   3.635  12.945
67753SOL    HW2 5157   1.129   3.580  12.914
67754SOL     OW 5158  14.021   0.551   1.147
67754SOL    HW1 5159  14.030   0.629   1.091
67754SOL    HW2 5160  13.970   0.490   1.094
67755SOL     OW 5161   4.371  10.067   3.378
67755SOL    HW1 5162   4.303  10.134   3.389
67755SOL    HW2 5163   4.352  10.003   3.446
67756SOL     OW 5164   5.634  11.587   1.225
67756SOL    HW1 5165   5.635  11.505   1.275
67756SOL    HW2 5166   5.575  11.644   1.274
67757SOL     OW 5167  10.401  13.136   4.773
67757SOL    HW1 5168  10.329  13.104   4.827
67757SOL    HW2 5169  10.438  13.057   4.735
67758SOL     OW 5170   7.368   6.331   1.368
67758SOL    HW1 5171   7.293   6.283   1.403
67758SOL    HW2 5172   7.406   6.273   1.302
67759SOL     OW 5173   8.206   4.647   1.688
67759SOL    HW1 5174   8.163   4.729   1.667
67759SOL    HW2 5175   8.245   4.661   1.775
67760SOL     OW 5176   2.391   6.227  10.971
67760SOL    HW1 5177   2.380   6.292  11.040
67760SOL    HW2 5178   2.331   6.255  10.902
67761SOL     OW 5179   9.001  14.312  14.070
67761SOL    HW1 5180   8.976  14.267  13.989
67761SOL    HW2 5181   8.933  14.378  14.083
67762SOL     OW 5182   5.157  12.768   8.697
67762SOL    HW1 5183   5.159  12.818   8.616
67762SOL    HW2 5184   5.222  12.811   8.753
67763SOL     OW 5185  13.093   5.841   3.805
67763SOL    HW1 5186  13.066   5.886   3.725
67763SOL    HW2 5187  13.016   5.791   3.833
67764SOL     OW 5188  14.130  11.441   6.068
67764SOL    HW1 5189  14.044  11.457   6.106
67764SOL    HW2 5190  14.114  11.434   5.974
67765SOL     OW 5191   4.939   0.426   1.037
67765SOL    HW1 5192   4.889   0.434   0.956
67765SOL    HW2 5193   4.918   0.338   1.069
67766SOL     OW 5194  10.183   8.160   7.257
67766SOL    HW1 5195  10.258   8.217   7.275
67766SOL    HW2 5196  10.197   8.128   7.168
67767SOL     OW 5197   0.882  14.048   8.917
67767SOL    HW1 5198   0.895  14.141   8.938
67767SOL    HW2 5199   0.932  14.035   8.837
67768SOL     OW 5200   4.219  12.094   5.001
67768SOL    HW1 5201   4.269  12.039   5.061
67768SOL    HW2 5202   4.280  12.115   4.930
67769SOL     OW 5203   5.990   5.666  13.407
67769SOL    HW1 5204   5.950   5.582  13.430
67769SOL    HW2 5205   5.930   5.731  13.443
67770SOL     OW 5206   7.914   2.505   1.526
67770SOL    HW1 5207   7.856   2.430   1.530
67770SOL    HW2 5208   7.997   2.470   1.495
67771SOL     OW 5209   2.309  10.721  13.909
67771SOL    HW1 5210   2.282  10.652  13.970
67771SOL    HW2 5211   2.336  10.674  13.830
67772SOL     OW 5212   4.273  11.297   4.590
67772SOL    HW1 5213   4.204  11.251   4.541
67772SOL    HW2 5214   4.225  11.361   4.643
67773SOL     OW 5215  11.411  14.301   9.781
67773SOL    HW1 5216  11.457  14.327   9.701
67773SOL    HW2 5217  11.377  14.383   9.817
67774SOL     OW 5218   9.959  11.866   0.694
67774SOL    HW1 5219   9.922  11.865   0.605
67774SOL    HW2 5220   9.887  11.894   0.750
67775SOL     OW 5221  14.871  13.163   8.997
67775SOL    HW1 5222  14.860  13.069   9.011
67775SOL    HW2 5223  14.785  13.193   8.967
67776SOL     OW 5224  13.201  10.787   6.428
67776SOL    HW1 5225  13.182  10.818   6.339
67776SOL    HW2 5226  13.296  10.795   6.436
67777SOL     OW 5227   7.005  10.828   7.195
67777SOL    HW1 5228   6.976  10.845   7.105
67777SOL    HW2 5229   6.974  10.740   7.214
67778SOL     OW 5230   0.799  14.440  13.196
67778SOL    HW1 5231   0.727  14.382  13.222
67778SOL    HW2 5232   0.762  14.493  13.125
67779SOL     OW 5233   2.382  10.238  11.826
67779SOL    HW1 5234   2.357  10.247  11.918
67779SOL    HW2 5235   2.312  10.283  11.778
67780SOL     OW 5236  10.716   4.060  12.086
67780SOL    HW1 5237  10.680   4.140  12.123
67780SOL    HW2 5238  10.680   3.990  12.140
67781SOL     OW 5239   4.641  10.274  10.726
67781SOL    HW1 5240   4.734  10.268  10.704
67781SOL    HW2 5241   4.603  10.195  10.688
67782SOL     OW 5242   8.665   1.832  12.311
67782SOL    HW1 5243   8.675   1.788  12.227
67782SOL    HW2 5244   8.665   1.762  12.376
67783SOL     OW 5245   9.048   5.335   9.613
67783SOL    HW1 5246   9.090   5.331   9.528
67783SOL    HW2 5247   8.968   5.387   9.598
67784SOL     OW 5248   6.865   8.912   3.206
67784SOL    HW1 5249   6.908   8.984   3.160
67784SOL    HW2 5250   6.935   8.868   3.254
67785SOL     OW 5251   0.084   8.938   7.920
67785SOL    HW1 5252   0.143   8.872   7.956
67785SOL    HW2 5253  14.868   8.905   7.939
67786SOL     OW 5254  11.499   1.972   8.772
67786SOL    HW1 5255  11.591   1.957   8.794
67786SOL    HW2 5256  11.498   1.978   8.677
67787SOL     OW 5257  13.104  12.340   1.002
67787SOL    HW1 5258  13.034  12.320   0.941
67787SOL    HW2 5259  13.103  12.268   1.065
67788SOL     OW 5260  13.511  11.622   3.996
67788SOL    HW1 5261  13.447  11.652   4.061
67788SOL    HW2 5262  13.586  11.680   4.009
67789SOL     OW 5263  11.078  10.362   3.334
67789SOL    HW1 5264  11.081  10.270   3.309
67789SOL    HW2 5265  11.127  10.365   3.417
67790SOL     OW 5266   3.849   3.564   8.797
67790SOL    HW1 5267   3.927   3.609   8.828
67790SOL    HW2 5268   3.879   3.476   8.776
67791SOL     OW 5269  12.406   0.670   5.013
67791SOL    HW1 5270  12.424   0.742   5.073
67791SOL    HW2 5271  12.352   0.610   5.064
67792SOL     OW 5272   1.686   8.411  11.812
67792SOL    HW1 5273   1.625   8.470  11.768
67792SOL    HW2 5274   1.650   8.324  11.797
67793SOL     OW 5275   9.958   7.796   3.743
67793SOL    HW1 5276   9.991   7.706   3.752
67793SOL    HW2 5277   9.970   7.834   3.830
67794SOL     OW 5278   4.839   3.580   7.598
67794SOL    HW1 5279   4.865   3.488   7.590
67794SOL    HW2 5280   4.768   3.579   7.662
67795SOL     OW 5281  14.049   8.344  12.581
67795SOL    HW1 5282  14.089   8.399  12.647
67795SOL    HW2 5283  14.099   8.262  12.584
67796SOL     OW 5284   9.824  10.623   4.542
67796SOL    HW1 5285   9.818  10.575   4.459
67796SOL    HW2 5286   9.916  10.617   4.567
67797SOL     OW 5287  11.588   2.247   7.730
67797SOL    HW1 5288  11.501   2.217   7.701
67797SOL    HW2 5289  11.572   2.288   7.815
67798SOL     OW 5290   9.360  10.627  11.361
67798SOL    HW1 5291   9.332  10.667  11.443
67798SOL    HW2 5292   9.296  10.557  11.345
67799SOL     OW 5293   7.712   0.456   4.375
67799SOL    HW1 5294   7.718   0.544   4.337
67799SOL    HW2 5295   7.793   0.413   4.345
67800SOL     OW 5296   9.486   4.258   1.181
67800SOL    HW1 5297   9.520   4.261   1.091
67800SOL    HW2 5298   9.411   4.316   1.180
67801SOL     OW 5299   0.434   6.896  14.424
67801SOL    HW1 5300   0.451   6.959  14.494
67801SOL    HW2 5301   0.361   6.843  14.456
67802SOL     OW 5302   5.731   1.544   7.247
67802SOL    HW1 5303   5.678   1.552   7.168
67802SOL    HW2 5304   5.722   1.629   7.291
67803SOL     OW 5305   7.831  13.115  10.360
67803SOL    HW1 5306   7.782  13.195  10.342
67803SOL    HW2 5307   7.785  13.075  10.433
67804SOL     OW 5308   2.841   6.930   1.203
67804SOL    HW1 5309   2.937   6.931   1.199
67804SOL    HW2 5310   2.819   6.973   1.286
67805SOL     OW 5311   4.366   1.484   0.835
67805SOL    HW1 5312   4.434   1.544   0.803
67805SOL    HW2 5313   4.347   1.515   0.924
67806SOL     OW 5314   3.474   7.321   5.122
67806SOL    HW1 5315   3.390   7.323   5.078
67806SOL    HW2 5316   3.458   7.272   5.203
67807SOL     OW 5317   7.578   9.611   0.404
67807SOL    HW1 5318   7.513   9.548   0.432
67807SOL    HW2 5319   7.537   9.696   0.418
67808SOL     OW 5320   7.226  13.444   6.277
67808SOL    HW1 5321   7.219  13.503   6.351
67808SOL    HW2 5322   7.308  13.469   6.233
67809SOL     OW 5323   6.382   0.371  10.855
67809SOL    HW1 5324   6.476   0.373  10.875
67809SOL    HW2 5325   6.376   0.323  10.772
67810SOL     OW 5326   5.489  10.039   6.403
67810SOL    HW1 5327   5.580  10.049   6.430
67810SOL    HW2 5328   5.484   9.949   6.370
67811SOL     OW 5329  13.015  14.228   2.035
67811SOL    HW1 5330  13.036  14.157   1.975
67811SOL    HW2 5331  12.932  14.264   2.002
67812SOL     OW 5332   8.886  14.557  14.439
67812SOL    HW1 5333   8.848  14.517  14.516
67812SOL    HW2 5334   8.934  14.486  14.396
67813SOL     OW 5335   6.827   2.422   4.852
67813SOL    HW1 5336   6.894   2.450   4.790
67813SOL    HW2 5337   6.866   2.347   4.898
67814SOL     OW 5338   6.471  13.360   3.179
67814SOL    HW1 5339   6.476  13.320   3.092
67814SOL    HW2 5340   6.562  13.374   3.205
67815SOL     OW 5341   7.846   8.469   3.206
67815SOL    HW1 5342   7.766   8.418   3.191
67815SOL    HW2 5343   7.915   8.403   3.216
67816SOL     OW 5344  12.322   6.424   1.922
67816SOL    HW1 5345  12.293   6.344   1.878
67816SOL    HW2 5346  12.389   6.460   1.865
67817SOL     OW 5347   7.546   0.624   1.082
67817SOL    HW1 5348   7.595   0.544   1.064
67817SOL    HW2 5349   7.544   0.670   0.997
67818SOL     OW 5350  14.355  10.097  10.791
67818SOL    HW1 5351  14.421  10.151  10.749
67818SOL    HW2 5352  14.272  10.129  10.756
67819SOL     OW 5353   1.464   8.143   0.057
67819SOL    HW1 5354   1.492   8.234   0.061
67819SOL    HW2 5355   1.466   8.113   0.148
67820SOL     OW 5356  13.208  11.338  13.291
67820SOL    HW1 5357  13.201  11.421  13.338
67820SOL    HW2 5358  13.194  11.361  13.199
67821SOL     OW 5359   8.545   9.673   4.683
67821SOL    HW1 5360   8.604   9.737   4.723
67821SOL    HW2 5361   8.603   9.602   4.655
67822SOL     OW 5362   0.825   0.134   4.714
67822SOL    HW1 5363   0.817   0.089   4.630
67822SOL    HW2 5364   0.904   0.096   4.754
67823SOL     OW 5365   0.151   6.100  14.712
67823SOL    HW1 5366   0.091   6.028  14.699
67823SOL    HW2 5367   0.224   6.082  14.652
67824SOL     OW 5368   4.074   1.343   1.743
67824SOL    HW1 5369   4.012   1.333   1.816
67824SOL    HW2 5370   4.026   1.312   1.666
67825SOL     OW 5371   8.126  14.197   3.871
67825SOL    HW1 5372   8.171  14.263   3.923
67825SOL    HW2 5373   8.058  14.246   3.824
67826SOL     OW 5374   5.340   8.739   1.483
67826SOL    HW1 5375   5.273   8.796   1.522
67826SOL    HW2 5376   5.400   8.721   1.554
67827SOL     OW 5377   0.518   4.442   2.894
67827SOL    HW1 5378   0.504   4.467   2.803
67827SOL    HW2 5379   0.603   4.479   2.917
67828SOL     OW 5380   7.170  10.529   3.742
67828SOL    HW1 5381   7.112  10.571   3.806
67828SOL    HW2 5382   7.226  10.600   3.710
67829SOL     OW 5383   3.136  14.799   0.999
67829SOL    HW1 5384   3.225  14.828   1.019
67829SOL    HW2 5385   3.147  14.714   0.957
67830SOL     OW 5386   8.655   8.134   4.206
67830SOL    HW1 5387   8.675   8.201   4.270
67830SOL    HW2 5388   8.574   8.163   4.165
67831SOL     OW 5389   9.354  12.070   6.686
67831SOL    HW1 5390   9.264  12.071   6.719
67831SOL    HW2 5391   9.368  11.979   6.658
67832SOL     OW 5392   9.630  14.199   5.721
67832SOL    HW1 5393   9.624  14.164   5.631
67832SOL    HW2 5394   9.554  14.161   5.765
67833SOL     OW 5395  14.329   8.592  14.174
67833SOL    HW1 5396  14.304   8.645  14.250
67833SOL    HW2 5397  14.249   8.546  14.150
67834SOL     OW 5398   9.674   8.132   1.992
67834SOL    HW1 5399   9.676   8.036   1.999
67834SOL    HW2 5400   9.665   8.163   2.082
67835SOL     OW 5401   6.341  13.389   5.704
67835SOL    HW1 5402   6.414  13.398   5.766
67835SOL    HW2 5403   6.338  13.296   5.683
67836SOL     OW 5404   1.236   2.756   0.559
67836SOL    HW1 5405   1.303   2.689   0.571
67836SOL    HW2 5406   1.188   2.729   0.481
67837SOL     OW 5407   8.810   4.595  14.314
67837SOL    HW1 5408   8.747   4.651  14.359
67837SOL    HW2 5409   8.892   4.606  14.363
67838SOL     OW 5410   8.956  10.388   2.867
67838SOL    HW1 5411   8.927  10.478   2.879
67838SOL    HW2 5412   9.051  10.392   2.877
67839SOL     OW 5413   5.922   4.444  14.409
67839SOL    HW1 5414   5.952   4.514  14.467
67839SOL    HW2 5415   5.867   4.388  14.463
67840SOL     OW 5416   2.484   8.631   6.758
67840SOL    HW1 5417   2.454   8.715   6.724
67840SOL    HW2 5418   2.500   8.647   6.851
67841SOL     OW 5419   1.570  13.980  14.302
67841SOL    HW1 5420   1.482  14.017  14.307
67841SOL    HW2 5421   1.587  13.946  14.390
67842SOL     OW 5422   0.244   9.124   8.788
67842SOL    HW1 5423   0.338   9.106   8.784
67842SOL    HW2 5424   0.203   9.045   8.754
67843SOL     OW 5425   2.171  11.438  12.451
67843SOL    HW1 5426   2.132  11.518  12.417
67843SOL    HW2 5427   2.185  11.456  12.544
67844SOL     OW 5428   0.656  11.284  11.397
67844SOL    HW1 5429   0.699  11.351  11.450
67844SOL    HW2 5430   0.563  11.291  11.421
67845SOL     OW 5431   3.096  14.421   8.681
67845SOL    HW1 5432   3.065  14.413   8.771
67845SOL    HW2 5433   3.034  14.480   8.639
67846SOL     OW 5434   2.747   9.020   5.896
67846SOL    HW1 5435   2.660   9.031   5.932
67846SOL    HW2 5436   2.802   9.078   5.948
67847SOL     OW 5437   2.816   9.747   3.464
67847SOL    HW1 5438   2.817   9.660   3.424
67847SOL    HW2 5439   2.728   9.754   3.503
67848SOL     OW 5440   8.610   2.071   0.202
67848SOL    HW1 5441   8.562   2.133   0.257
67848SOL    HW2 5442   8.670   2.027   0.262
67849SOL     OW 5443   2.742   2.470   8.749
67849SOL    HW1 5444   2.667   2.486   8.692
67849SOL    HW2 5445   2.795   2.406   8.702
67850SOL     OW 5446   8.544  12.802   7.376
67850SOL    HW1 5447   8.538  12.838   7.464
67850SOL    HW2 5448   8.638  12.793   7.359
67851SOL     OW 5449   6.558  12.570   6.396
67851SOL    HW1 5450   6.577  12.485   6.435
67851SOL    HW2 5451   6.574  12.633   6.466
67852SOL     OW 5452  11.384   9.115   4.164
67852SOL    HW1 5453  11.479   9.130   4.164
67852SOL    HW2 5454  11.354   9.154   4.246
67853SOL     OW 5455  12.210   9.283   1.112
67853SOL    HW1 5456  12.220   9.373   1.079
67853SOL    HW2 5457  12.243   9.287   1.202
67854SOL     OW 5458   3.927   0.498   3.344
67854SOL    HW1 5459   3.930   0.484   3.439
67854SOL    HW2 5460   3.986   0.572   3.329
67855SOL     OW 5461   1.445  11.613   1.426
67855SOL    HW1 5462   1.358  11.652   1.435
67855SOL    HW2 5463   1.499  11.662   1.487
67856SOL     OW 5464   8.285   1.588   8.060
67856SOL    HW1 5465   8.378   1.600   8.039
67856SOL    HW2 5466   8.281   1.593   8.156
67857SOL     OW 5467  13.268   7.897   7.693
67857SOL    HW1 5468  13.175   7.880   7.684
67857SOL    HW2 5469  13.310   7.812   7.677
67858SOL     OW 5470   7.301   1.026  12.740
67858SOL    HW1 5471   7.212   1.061  12.742
67858SOL    HW2 5472   7.292   0.939  12.701
67859SOL     OW 5473   3.195   5.566   1.572
67859SOL    HW1 5474   3.250   5.541   1.497
67859SOL    HW2 5475   3.164   5.654   1.551
67860SOL     OW 5476   3.643   3.857   4.811
67860SOL    HW1 5477   3.680   3.928   4.864
67860SOL    HW2 5478   3.549   3.863   4.825
67861SOL     OW 5479  12.855   5.644   6.896
67861SOL    HW1 5480  12.875   5.711   6.961
67861SOL    HW2 5481  12.936   5.594   6.887
67862SOL     OW 5482   3.721  11.266  11.924
67862SOL    HW1 5483   3.765  11.325  11.985
67862SOL    HW2 5484   3.792  11.220  11.879
67863SOL     OW 5485   8.737  12.901   2.257
67863SOL    HW1 5486   8.822  12.861   2.277
67863SOL    HW2 5487   8.753  12.953   2.179
67864SOL     OW 5488  12.425   6.707   5.357
67864SOL    HW1 5489  12.506   6.732   5.402
67864SOL    HW2 5490  12.443   6.619   5.324
67865SOL     OW 5491  12.299  12.852  11.627
67865SOL    HW1 5492  12.260  12.928  11.669
67865SOL    HW2 5493  12.224  12.794  11.608
67866SOL     OW 5494   7.657   7.096  13.440
67866SOL    HW1 5495   7.720   7.158  13.479
67866SOL    HW2 5496   7.665   7.110  13.346
67867SOL     OW 5497  10.365   6.243  14.614
67867SOL    HW1 5498  10.307   6.301  14.566
67867SOL    HW2 5499  10.373   6.283  14.701
67868SOL     OW 5500   7.496  12.285   5.707
67868SOL    HW1 5501   7.525  12.259   5.619
67868SOL    HW2 5502   7.461  12.205   5.746
67869SOL     OW 5503  11.639   9.328   1.705
67869SOL    HW1 5504  11.643   9.333   1.800
67869SOL    HW2 5505  11.586   9.250   1.687
67870SOL     OW 5506   9.306   5.865   3.909
67870SOL    HW1 5507   9.392   5.821   3.907
67870SOL    HW2 5508   9.263   5.829   3.987
67871SOL     OW 5509   1.002   2.208  12.635
67871SOL    HW1 5510   1.035   2.164  12.713
67871SOL    HW2 5511   0.976   2.295  12.666
67872SOL     OW 5512  10.036  10.832   7.218
67872SOL    HW1 5513  10.126  10.806   7.201
67872SOL    HW2 5514  10.042  10.896   7.288
67873SOL     OW 5515   9.710  14.130   5.476
67873SOL    HW1 5516   9.781  14.065   5.476
67873SOL    HW2 5517   9.718  14.173   5.391
67874SOL     OW 5518   1.473   3.706   4.342
67874SOL    HW1 5519   1.388   3.713   4.385
67874SOL    HW2 5520   1.537   3.712   4.413
67875SOL     OW 5521   2.625   5.305   2.290
67875SOL    HW1 5522   2.596   5.248   2.361
67875SOL    HW2 5523   2.578   5.273   2.213
67876SOL     OW 5524  14.450  13.487  12.133
67876SOL    HW1 5525  14.446  13.394  12.109
67876SOL    HW2 5526  14.373  13.526  12.093
67877SOL     OW 5527  10.845   4.422   5.128
67877SOL    HW1 5528  10.797   4.347   5.164
67877SOL    HW2 5529  10.932   4.388   5.110
67878SOL     OW 5530   6.361   4.151   0.238
67878SOL    HW1 5531   6.389   4.237   0.209
67878SOL    HW2 5532   6.424   4.090   0.198
67879SOL     OW 5533   0.213   6.439   8.724
67879SOL    HW1 5534   0.232   6.505   8.658
67879SOL    HW2 5535   0.288   6.441   8.783
67880SOL     OW 5536  13.438   6.555   8.601
67880SOL    HW1 5537  13.496   6.488   8.638
67880SOL    HW2 5538  13.443   6.541   8.506
67881SOL     OW 5539  13.715  11.840  12.529
67881SOL    HW1 5540  13.731  11.746  12.542
67881SOL    HW2 5541  13.803  11.878  12.526
67882SOL     OW 5542   6.016   0.574   0.077
67882SOL    HW1 5543   6.005   0.623  14.867
67882SOL    HW2 5544   5.951   0.504   0.072
67883SOL     OW 5545  10.395   9.534   3.208
67883SOL    HW1 5546  10.319   9.499   3.256
67883SOL    HW2 5547  10.415   9.616   3.254
67884SOL     OW 5548   1.157   7.958   4.227
67884SOL    HW1 5549   1.129   7.965   4.136
67884SOL    HW2 5550   1.093   7.901   4.268
67885SOL     OW 5551  12.126  12.874   1.668
67885SOL    HW1 5552  12.067  12.916   1.730
67885SOL    HW2 5553  12.148  12.942   1.605
67886SOL     OW 5554  11.397   6.052   0.777
67886SOL    HW1 5555  11.436   6.099   0.704
67886SOL    HW2 5556  11.470   6.003   0.816
67887SOL     OW 5557  10.987   2.990   1.394
67887SOL    HW1 5558  11.042   2.996   1.316
67887SOL    HW2 5559  10.911   2.939   1.366
67888SOL     OW 5560   3.575   7.729   7.248
67888SOL    HW1 5561   3.659   7.691   7.221
67888SOL    HW2 5562   3.515   7.708   7.176
67889SOL     OW 5563  13.138   5.690   1.867
67889SOL    HW1 5564  13.042   5.691   1.868
67889SOL    HW2 5565  13.163   5.772   1.825
67890SOL     OW 5566  14.121   6.521  14.677
67890SOL    HW1 5567  14.103   6.502  14.585
67890SOL    HW2 5568  14.036   6.517  14.720
67891SOL     OW 5569   8.516   5.031   2.674
67891SOL    HW1 5570   8.429   5.012   2.710
67891SOL    HW2 5571   8.552   4.944   2.654
67892SOL     OW 5572   2.045  13.168  10.493
67892SOL    HW1 5573   2.082  13.082  10.515
67892SOL    HW2 5574   2.014  13.203  10.576
67893SOL     OW 5575   5.791  12.960  11.738
67893SOL    HW1 5576   5.708  12.981  11.696
67893SOL    HW2 5577   5.775  12.877  11.783
67894SOL     OW 5578   9.074   7.708   4.922
67894SOL    HW1 5579   9.122   7.753   4.992
67894SOL    HW2 5580   9.020   7.777   4.883
67895SOL     OW 5581   5.917   7.125   2.816
67895SOL    HW1 5582   5.847   7.190   2.820
67895SOL    HW2 5583   5.958   7.128   2.902
67896SOL     OW 5584   0.379  13.141  12.740
67896SOL    HW1 5585   0.380  13.065  12.682
67896SOL    HW2 5586   0.455  13.129  12.798
67897SOL     OW 5587   4.617   7.759  12.192
67897SOL    HW1 5588   4.620   7.664  12.178
67897SOL    HW2 5589   4.681   7.775  12.262
67898SOL     OW 5590  11.008   4.522   3.253
67898SOL    HW1 5591  10.972   4.535   3.340
67898SOL    HW2 5592  11.095   4.484   3.269
67899SOL     OW 5593  12.002  12.047   7.393
67899SOL    HW1 5594  11.921  12.095   7.406
67899SOL    HW2 5595  12.070  12.114   7.389
67900SOL     OW 5596   0.082   9.674   1.554
67900SOL    HW1 5597   0.095   9.767   1.534
67900SOL    HW2 5598   0.032   9.640   1.480
67901SOL     OW 5599   4.789   1.126  12.054
67901SOL    HW1 5600   4.868   1.131  12.106
67901SOL    HW2 5601   4.730   1.192  12.091
67902SOL     OW 5602   5.072  11.748   0.065
67902SOL    HW1 5603   5.062  11.668   0.117
67902SOL    HW2 5604   5.090  11.717  14.848
67903SOL     OW 5605  10.360  12.593  14.611
67903SOL    HW1 5606  10.428  12.526  14.615
67903SOL    HW2 5607  10.385  12.656  14.679
67904SOL     OW 5608   6.644   5.012   9.066
67904SOL    HW1 5609   6.556   5.045   9.085
67904SOL    HW2 5610   6.667   5.051   8.982
67905SOL     OW 5611   6.478   2.170   1.657
67905SOL    HW1 5612   6.512   2.083   1.636
67905SOL    HW2 5613   6.452   2.163   1.749
67906SOL     OW 5614   1.998   1.416   7.511
67906SOL    HW1 5615   1.991   1.438   7.604
67906SOL    HW2 5616   2.092   1.405   7.496
67907SOL     OW 5617   9.081   0.007  10.039
67907SOL    HW1 5618   9.037  14.842  10.116
67907SOL    HW2 5619   9.091   0.100  10.059
67908SOL     OW 5620  11.877   1.104  10.720
67908SOL    HW1 5621  11.923   1.172  10.671
67908SOL    HW2 5622  11.947   1.048  10.754
67909SOL     OW 5623  12.716   6.823  11.631
67909SOL    HW1 5624  12.628   6.829  11.666
67909SOL    HW2 5625  12.747   6.737  11.656
67910SOL     OW 5626  14.484   5.292  14.798
67910SOL    HW1 5627  14.544   5.220  14.816
67910SOL    HW2 5628  14.414   5.281  14.864
67911SOL     OW 5629   7.503   3.439  10.199
67911SOL    HW1 5630   7.586   3.482  10.179
67911SOL    HW2 5631   7.436   3.501  10.170
67912SOL     OW 5632   5.696  10.627  13.875
67912SOL    HW1 5633   5.622  10.673  13.915
67912SOL    HW2 5634   5.697  10.542  13.919
67913SOL     OW 5635   5.872   6.016  13.029
67913SOL    HW1 5636   5.952   6.049  13.070
67913SOL    HW2 5637   5.847   6.084  12.967
67914SOL     OW 5638   9.662  13.218   6.075
67914SOL    HW1 5639   9.595  13.267   6.027
67914SOL    HW2 5640   9.636  13.127   6.066
67915SOL     OW 5641  10.050  12.858   2.796
67915SOL    HW1 5642  10.120  12.794   2.785
67915SOL    HW2 5643  10.038  12.897   2.709
67916SOL     OW 5644   1.623  14.601   2.540
67916SOL    HW1 5645   1.698  14.542   2.545
67916SOL    HW2 5646   1.603  14.623   2.631
67917SOL     OW 5647  11.599  13.122   3.984
67917SOL    HW1 5648  11.553  13.170   4.052
67917SOL    HW2 5649  11.604  13.183   3.911
67918SOL     OW 5650  13.901  13.730   5.140
67918SOL    HW1 5651  13.898  13.636   5.161
67918SOL    HW2 5652  13.975  13.764   5.191
67919SOL     OW 5653  10.372   8.811  14.381
67919SOL    HW1 5654  10.401   8.774  14.464
67919SOL    HW2 5655  10.433   8.776  14.316
67920SOL     OW 5656   4.790   2.817   0.433
67920SOL    HW1 5657   4.702   2.800   0.400
67920SOL    HW2 5658   4.841   2.839   0.354
67921SOL     OW 5659  11.338   7.458  14.422
67921SOL    HW1 5660  11.303   7.480  14.508
67921SOL    HW2 5661  11.433   7.453  14.436
67922SOL     OW 5662   9.758   5.523   7.466
67922SOL    HW1 5663   9.730   5.434   7.445
67922SOL    HW2 5664   9.787   5.559   7.383
67923SOL     OW 5665   4.926  12.364  13.045
67923SOL    HW1 5666   4.923  12.366  12.949
67923SOL    HW2 5667   5.004  12.313  13.066
67924SOL     OW 5668   2.088  14.570   9.595
67924SOL    HW1 5669   2.169  14.526   9.621
67924SOL    HW2 5670   2.032  14.566   9.673
67925SOL     OW 5671  11.793   0.689  12.733
67925SOL    HW1 5672  11.803   0.595  12.716
67925SOL    HW2 5673  11.786   0.696  12.828
67926SOL     OW 5674  14.286   1.814  12.580
67926SOL    HW1 5675  14.343   1.794  12.653
67926SOL    HW2 5676  14.343   1.814  12.503
67927SOL     OW 5677   1.106  12.421   9.476
67927SOL    HW1 5678   1.031  12.372   9.443
67927SOL    HW2 5679   1.182  12.369   9.449
67928SOL     OW 5680   3.165   4.317   5.865
67928SOL    HW1 5681   3.070   4.308   5.875
67928SOL    HW2 5682   3.198   4.327   5.954
67929SOL     OW 5683   3.566   9.823   1.379
67929SOL    HW1 5684   3.567   9.825   1.475
67929SOL    HW2 5685   3.563   9.730   1.357
67930SOL     OW 5686   1.136   4.262   4.682
67930SOL    HW1 5687   1.221   4.289   4.715
67930SOL    HW2 5688   1.101   4.341   4.640
67931SOL     OW 5689  13.822  13.302  11.737
67931SOL    HW1 5690  13.894  13.290  11.798
67931SOL    HW2 5691  13.857  13.359  11.669
67932SOL     OW 5692  13.923   0.457  13.619
67932SOL    HW1 5693  13.936   0.454  13.714
67932SOL    HW2 5694  13.879   0.375  13.599
67933SOL     OW 5695  11.917   1.301   4.395
67933SOL    HW1 5696  11.851   1.260   4.451
67933SOL    HW2 5697  11.982   1.232   4.379
67934SOL     OW 5698   6.754  14.478  11.650
67934SOL    HW1 5699   6.772  14.555  11.703
67934SOL    HW2 5700   6.659  14.465  11.658
67935SOL     OW 5701   3.234  11.229   7.697
67935SOL    HW1 5702   3.327  11.241   7.679
67935SOL    HW2 5703   3.232  11.177   7.777
67936SOL     OW 5704   1.664   0.330   1.560
67936SOL    HW1 5705   1.573   0.335   1.530
67936SOL    HW2 5706   1.713   0.383   1.497
67937SOL     OW 5707  14.350   2.802   5.444
67937SOL    HW1 5708  14.326   2.876   5.388
67937SOL    HW2 5709  14.444   2.812   5.458
67938SOL     OW 5710  10.847   3.216   9.965
67938SOL    HW1 5711  10.770   3.216   9.908
67938SOL    HW2 5712  10.811   3.231  10.053
67939SOL     OW 5713  12.764   7.529   9.765
67939SOL    HW1 5714  12.780   7.622   9.780
67939SOL    HW2 5715  12.852   7.492   9.751
67940SOL     OW 5716  10.029   6.147   4.413
67940SOL    HW1 5717  10.066   6.170   4.328
67940SOL    HW2 5718   9.977   6.223   4.438
67941SOL     OW 5719   2.523   7.373  12.996
67941SOL    HW1 5720   2.430   7.380  12.976
67941SOL    HW2 5721   2.537   7.280  13.013
67942SOL     OW 5722   6.601   7.506   9.002
67942SOL    HW1 5723   6.516   7.473   8.973
67942SOL    HW2 5724   6.583   7.552   9.084
67943SOL     OW 5725   4.664   5.045   2.729
67943SOL    HW1 5726   4.576   5.009   2.728
67943SOL    HW2 5727   4.694   5.037   2.638
67944SOL     OW 5728   7.751   1.113   0.091
67944SOL    HW1 5729   7.828   1.152   0.132
67944SOL    HW2 5730   7.678   1.143   0.146
67945SOL     OW 5731   5.968   9.284  14.237
67945SOL    HW1 5732   5.977   9.204  14.186
67945SOL    HW2 5733   6.011   9.264  14.321
67946SOL     OW 5734   9.701   9.322   6.214
67946SOL    HW1 5735   9.634   9.259   6.188
67946SOL    HW2 5736   9.782   9.272   6.214
67947SOL     OW 5737   2.298   2.905   4.194
67947SOL    HW1 5738   2.269   2.869   4.277
67947SOL    HW2 5739   2.224   2.958   4.163
67948SOL     OW 5740   4.776   4.978   0.909
67948SOL    HW1 5741   4.698   4.985   0.965
67948SOL    HW2 5742   4.850   4.989   0.969
67949SOL     OW 5743  14.310   5.300   8.880
67949SOL    HW1 5744  14.271   5.386   8.896
67949SOL    HW2 5745  14.301   5.254   8.964
67950SOL     OW 5746  10.039   6.096  12.201
67950SOL    HW1 5747  10.060   6.039  12.275
67950SOL    HW2 5748  10.066   6.046  12.124
67951SOL     OW 5749   0.632   6.765   6.303
67951SOL    HW1 5750   0.655   6.768   6.211
67951SOL    HW2 5751   0.665   6.680   6.334
67952SOL     OW 5752  13.852   4.774  10.635
67952SOL    HW1 5753  13.866   4.838  10.566
67952SOL    HW2 5754  13.884   4.691  10.599
67953SOL     OW 5755  12.418  10.002   8.536
67953SOL    HW1 5756  12.332  10.006   8.493
67953SOL    HW2 5757  12.480  10.023   8.466
67954SOL     OW 5758  12.213   8.172  10.917
67954SOL    HW1 5759  12.289   8.113  10.913
67954SOL    HW2 5760  12.206   8.196  11.009
67955SOL     OW 5761  12.686   5.606   3.040
67955SOL    HW1 5762  12.708   5.677   3.100
67955SOL    HW2 5763  12.768   5.559   3.028
67956SOL     OW 5764   5.622  11.087   0.159
67956SOL    HW1 5765   5.682  11.147   0.114
67956SOL    HW2 5766   5.672  11.006   0.170
67957SOL     OW 5767  12.633   8.353   6.818
67957SOL    HW1 5768  12.619   8.261   6.836
67957SOL    HW2 5769  12.671   8.355   6.730
67958SOL     OW 5770  10.710   2.003   0.909
67958SOL    HW1 5771  10.633   1.965   0.866
67958SOL    HW2 5772  10.684   2.093   0.931
67959SOL     OW 5773   3.023   8.998   2.774
67959SOL    HW1 5774   3.009   9.021   2.866
67959SOL    HW2 5775   2.958   9.050   2.727
67960SOL     OW 5776   9.347   3.866   3.627
67960SOL    HW1 5777   9.387   3.922   3.560
67960SOL    HW2 5778   9.253   3.883   3.619
67961SOL     OW 5779   9.637  13.705  14.457
67961SOL    HW1 5780   9.643  13.632  14.518
67961SOL    HW2 5781   9.708  13.764  14.484
67962SOL     OW 5782  11.319   1.299  13.861
67962SOL    HW1 5783  11.274   1.374  13.900
67962SOL    HW2 5784  11.250   1.248  13.819
67963SOL     OW 5785   4.782   3.478   5.388
67963SOL    HW1 5786   4.772   3.421   5.311
67963SOL    HW2 5787   4.822   3.422   5.454
67964SOL     OW 5788   4.862   9.165   4.051
67964SOL    HW1 5789   4.786   9.196   4.002
67964SOL    HW2 5790   4.937   9.185   3.995
67965SOL     OW 5791  14.383   5.003   9.774
67965SOL    HW1 5792  14.293   4.985   9.803
67965SOL    HW2 5793  14.384   5.097   9.757
67966SOL     OW 5794   2.327  12.750   7.051
67966SOL    HW1 5795   2.262  12.710   7.109
67966SOL    HW2 5796   2.402  12.769   7.107
67967SOL     OW 5797   4.162   9.766  10.960
67967SOL    HW1 5798   4.180   9.714  11.039
67967SOL    HW2 5799   4.219   9.727  10.893
67968SOL     OW 5800  10.081  14.563   7.727
67968SOL    HW1 5801  10.135  14.585   7.651
67968SOL    HW2 5802  10.119  14.613   7.799
67969SOL     OW 5803   1.820  12.187  10.546
67969SOL    HW1 5804   1.831  12.272  10.503
67969SOL    HW2 5805   1.725  12.181  10.561
67970SOL     OW 5806   0.180   4.675   7.126
67970SOL    HW1 5807   0.210   4.762   7.098
67970SOL    HW2 5808   0.116   4.649   7.059
67971SOL     OW 5809   8.373  12.494  11.848
67971SOL    HW1 5810   8.337  12.583  11.853
67971SOL    HW2 5811   8.298  12.440  11.822
67972SOL     OW 5812  14.369   0.628  14.857
67972SOL    HW1 5813  14.298   0.673  14.811
67972SOL    HW2 5814  14.324   0.560   0.036
67973SOL     OW 5815   6.552  10.242   0.893
67973SOL    HW1 5816   6.634  10.196   0.875
67973SOL    HW2 5817   6.550  10.251   0.988
67974SOL     OW 5818   6.436  13.559   0.204
67974SOL    HW1 5819   6.521  13.514   0.199
67974SOL    HW2 5820   6.398  13.529   0.286
67975SOL     OW 5821   9.798   0.010   5.491
67975SOL    HW1 5822   9.863  14.812   5.483
67975SOL    HW2 5823   9.819   0.054   5.574
67976SOL     OW 5824   1.065   4.770   9.972
67976SOL    HW1 5825   1.054   4.677   9.953
67976SOL    HW2 5826   1.125   4.801   9.904
67977SOL     OW 5827  11.118   3.796   2.187
67977SOL    HW1 5828  11.053   3.726   2.172
67977SOL    HW2 5829  11.145   3.784   2.278
67978SOL     OW 5830   3.166   0.644   5.038
67978SOL    HW1 5831   3.145   0.730   5.074
67978SOL    HW2 5832   3.088   0.619   4.989
67979SOL     OW 5833   3.312   4.159   7.546
67979SOL    HW1 5834   3.353   4.079   7.578
67979SOL    HW2 5835   3.218   4.148   7.564
67980SOL     OW 5836   3.468  11.245  14.834
67980SOL    HW1 5837   3.483  11.157  14.801
67980SOL    HW2 5838   3.462  11.234   0.058
67981SOL     OW 5839   8.444  13.190   1.674
67981SOL    HW1 5840   8.373  13.125   1.667
67981SOL    HW2 5841   8.442  13.236   1.590
67982SOL     OW 5842  12.010  12.589   1.887
67982SOL    HW1 5843  12.021  12.659   1.952
67982SOL    HW2 5844  12.098  12.573   1.854
67983SOL     OW 5845   2.299   3.366  13.077
67983SOL    HW1 5846   2.235   3.433  13.100
67983SOL    HW2 5847   2.291   3.301  13.147
67984SOL     OW 5848   9.942   3.844   7.830
67984SOL    HW1 5849  10.027   3.887   7.819
67984SOL    HW2 5850   9.963   3.751   7.830
67985SOL     OW 5851   7.420   7.289   6.352
67985SOL    HW1 5852   7.344   7.293   6.410
67985SOL    HW2 5853   7.493   7.318   6.407
67986SOL     OW 5854   6.392   2.313   1.412
67986SOL    HW1 5855   6.438   2.254   1.471
67986SOL    HW2 5856   6.376   2.392   1.464
67987SOL     OW 5857  14.200   3.587   7.301
67987SOL    HW1 5858  14.240   3.551   7.380
67987SOL    HW2 5859  14.116   3.542   7.293
67988SOL     OW 5860   5.809   6.702   7.704
67988SOL    HW1 5861   5.883   6.761   7.713
67988SOL    HW2 5862   5.757   6.715   7.783
67989SOL     OW 5863   3.232   0.494  13.546
67989SOL    HW1 5864   3.218   0.576  13.500
67989SOL    HW2 5865   3.283   0.440  13.485
67990SOL     OW 5866   6.004  10.927  11.226
67990SOL    HW1 5867   5.996  10.832  11.220
67990SOL    HW2 5868   6.099  10.942  11.229
67991SOL     OW 5869   1.403   7.724   8.182
67991SOL    HW1 5870   1.407   7.734   8.277
67991SOL    HW2 5871   1.336   7.657   8.167
67992SOL     OW 5872  10.325   8.251   6.610
67992SOL    HW1 5873  10.278   8.237   6.527
67992SOL    HW2 5874  10.394   8.313   6.588
67993SOL     OW 5875   6.381  12.727   3.106
67993SOL    HW1 5876   6.457  12.675   3.082
67993SOL    HW2 5877   6.327  12.727   3.026
67994SOL     OW 5878   5.456   8.717  14.462
67994SOL    HW1 5879   5.549   8.734  14.453
67994SOL    HW2 5880   5.449   8.650  14.530
67995SOL     OW 5881  11.749   6.332   8.102
67995SOL    HW1 5882  11.797   6.372   8.175
67995SOL    HW2 5883  11.716   6.406   8.051
67996SOL     OW 5884   4.237   6.693   3.380
67996SOL    HW1 5885   4.149   6.706   3.344
67996SOL    HW2 5886   4.295   6.700   3.304
67997SOL     OW 5887   1.926  10.187   5.641
67997SOL    HW1 5888   2.013  10.151   5.622
67997SOL    HW2 5889   1.916  10.259   5.578
67998SOL     OW 5890  13.333  11.348   0.154
67998SOL    HW1 5891  13.338  11.422   0.093
67998SOL    HW2 5892  13.344  11.387   0.241
67999SOL     OW 5893   2.068  11.582  13.021
67999SOL    HW1 5894   1.980  11.619  13.025
67999SOL    HW2 5895   2.055  11.492  12.990
68000SOL     OW 5896   0.736  14.429   3.877
68000SOL    HW1 5897   0.727  14.505   3.820
68000SOL    HW2 5898   0.666  14.369   3.849
68001SOL     OW 5899   8.369   1.047  13.891
68001SOL    HW1 5900   8.383   1.121  13.833
68001SOL    HW2 5901   8.443   1.048  13.951
68002SOL     OW 5902  14.362   8.106  11.150
68002SOL    HW1 5903  14.389   8.082  11.062
68002SOL    HW2 5904  14.298   8.039  11.175
68003SOL     OW 5905  10.922   5.974  10.763
68003SOL    HW1 5906  10.879   5.915  10.826
68003SOL    HW2 5907  10.992   5.921  10.725
68004SOL     OW 5908   9.902   7.186   4.342
68004SOL    HW1 5909   9.993   7.170   4.366
68004SOL    HW2 5910   9.886   7.128   4.268
68005SOL     OW 5911  13.326   2.071  11.529
68005SOL    HW1 5912  13.294   2.009  11.463
68005SOL    HW2 5913  13.293   2.156  11.501
68006SOL     OW 5914   6.474  14.146   4.268
68006SOL    HW1 5915   6.522  14.090   4.328
68006SOL    HW2 5916   6.406  14.186   4.322
68007SOL     OW 5917   4.110  13.815   6.085
68007SOL    HW1 5918   4.126  13.822   6.179
68007SOL    HW2 5919   4.194  13.786   6.049
68008SOL     OW 5920  10.920  12.727   1.041
68008SOL    HW1 5921  10.962  12.649   1.077
68008SOL    HW2 5922  10.988  12.769   0.988
68009SOL     OW 5923   4.365  13.753   6.969
68009SOL    HW1 5924   4.288  13.714   7.011
68009SOL    HW2 5925   4.330  13.803   6.895
68010SOL     OW 5926  13.894   7.400   8.556
68010SOL    HW1 5927  13.941   7.381   8.637
68010SOL    HW2 5928  13.884   7.314   8.514
68011SOL     OW 5929   1.573   9.078   6.839
68011SOL    HW1 5930   1.564   9.072   6.934
68011SOL    HW2 5931   1.492   9.041   6.804
68012SOL     OW 5932  12.306   5.360   6.074
68012SOL    HW1 5933  12.213   5.375   6.056
68012SOL    HW2 5934  12.308   5.275   6.118
68013SOL     OW 5935   7.822   1.927   3.896
68013SOL    HW1 5936   7.781   1.909   3.811
68013SOL    HW2 5937   7.777   2.004   3.929
68014SOL     OW 5938  10.981   7.390   3.368
68014SOL    HW1 5939  10.969   7.297   3.388
68014SOL    HW2 5940  11.050   7.419   3.428
68015SOL     OW 5941   6.224   2.470   2.987
68015SOL    HW1 5942   6.201   2.546   3.040
68015SOL    HW2 5943   6.145   2.415   2.989
68016SOL     OW 5944  13.268   4.183  14.433
68016SOL    HW1 5945  13.209   4.246  14.474
68016SOL    HW2 5946  13.335   4.237  14.391
68017SOL     OW 5947   0.999   4.991   4.186
68017SOL    HW1 5948   1.054   5.063   4.156
68017SOL    HW2 5949   0.910   5.017   4.162
68018SOL     OW 5950   3.508   6.792  11.435
68018SOL    HW1 5951   3.568   6.849  11.484
68018SOL    HW2 5952   3.544   6.704  11.445
68019SOL     OW 5953   1.135   6.755   6.354
68019SOL    HW1 5954   1.120   6.838   6.307
68019SOL    HW2 5955   1.069   6.695   6.317
68020SOL     OW 5956   8.480  10.818   8.908
68020SOL    HW1 5957   8.456  10.883   8.842
68020SOL    HW2 5958   8.398  10.798   8.953
68021SOL     OW 5959   9.421   6.736   2.431
68021SOL    HW1 5960   9.434   6.647   2.397
68021SOL    HW2 5961   9.488   6.788   2.386
68022SOL     OW 5962   4.465   5.447   1.581
68022SOL    HW1 5963   4.426   5.396   1.510
68022SOL    HW2 5964   4.407   5.432   1.656
68023SOL     OW 5965  13.832   3.553   2.215
68023SOL    HW1 5966  13.816   3.564   2.121
68023SOL    HW2 5967  13.826   3.459   2.230
68024SOL     OW 5968   8.353   0.560   2.628
68024SOL    HW1 5969   8.428   0.611   2.595
68024SOL    HW2 5970   8.311   0.525   2.550
68025SOL     OW 5971   5.778  12.018   8.535
68025SOL    HW1 5972   5.818  12.105   8.527
68025SOL    HW2 5973   5.780  11.982   8.447
68026SOL     OW 5974  11.069   2.618   4.280
68026SOL    HW1 5975  11.053   2.537   4.231
68026SOL    HW2 5976  11.107   2.588   4.363
68027SOL     OW 5977   9.531  12.457   7.861
68027SOL    HW1 5978   9.597  12.506   7.811
68027SOL    HW2 5979   9.497  12.393   7.798
68028SOL     OW 5980   4.134   6.810   0.279
68028SOL    HW1 5981   4.198   6.822   0.349
68028SOL    HW2 5982   4.159   6.728   0.237
68029SOL     OW 5983   8.825   9.230   2.373
68029SOL    HW1 5984   8.749   9.217   2.428
68029SOL    HW2 5985   8.849   9.322   2.384
68030SOL     OW 5986  12.020   0.795   2.963
68030SOL    HW1 5987  12.040   0.843   2.884
68030SOL    HW2 5988  12.054   0.707   2.948
68031SOL     OW 5989  13.715  10.225   5.153
68031SOL    HW1 5990  13.749  10.312   5.132
68031SOL    HW2 5991  13.651  10.240   5.222
68032SOL     OW 5992   9.688  12.299  14.486
68032SOL    HW1 5993   9.765  12.266  14.534
68032SOL    HW2 5994   9.716  12.302  14.395
68033SOL     OW 5995   3.305   0.196   9.033
68033SOL    HW1 5996   3.235   0.240   8.985
68033SOL    HW2 5997   3.311   0.244   9.116
68034SOL     OW 5998  10.974   7.703   3.300
68034SOL    HW1 5999  11.013   7.617   3.284
68034SOL    HW2 6000  10.897   7.685   3.354
68035SOL     OW 6001   1.692  10.868   1.050
68035SOL    HW1 6002   1.772  10.829   1.013
68035SOL    HW2 6003   1.653  10.916   0.978
68036SOL     OW 6004  12.487   2.652   7.433
68036SOL    HW1 6005  12.553   2.591   7.398
68036SOL    HW2 6006  12.420   2.656   7.365
68037SOL     OW 6007   9.122   1.733   0.290
68037SOL    HW1 6008   9.135   1.654   0.341
68037SOL    HW2 6009   9.126   1.804   0.354
68038SOL     OW 6010  12.072   4.810   2.363
68038SOL    HW1 6011  12.123   4.891   2.357
68038SOL    HW2 6012  11.985   4.833   2.330
68039SOL     OW 6013   1.720   4.021   7.317
68039SOL    HW1 6014   1.713   3.931   7.285
68039SOL    HW2 6015   1.696   4.015   7.410
68040SOL     OW 6016   1.531   7.240   0.632
68040SOL    HW1 6017   1.557   7.227   0.723
68040SOL    HW2 6018   1.597   7.297   0.595
68041SOL     OW 6019   4.327   8.184   1.781
68041SOL    HW1 6020   4.393   8.220   1.840
68041SOL    HW2 6021   4.329   8.242   1.705
68042SOL     OW 6022  11.190   7.989   5.383
68042SOL    HW1 6023  11.251   7.933   5.432
68042SOL    HW2 6024  11.245   8.031   5.317
68043SOL     OW 6025  11.442   2.085   7.981
68043SOL    HW1 6026  11.371   2.089   7.916
68043SOL    HW2 6027  11.483   2.171   7.976
68044SOL     OW 6028   0.146   4.525  11.911
68044SOL    HW1 6029   0.172   4.615  11.929
68044SOL    HW2 6030   0.218   4.471  11.944
68045SOL     OW 6031   4.896  11.987   2.019
68045SOL    HW1 6032   4.896  11.981   1.923
68045SOL    HW2 6033   4.867  12.076   2.038
68046SOL     OW 6034   2.942  13.777   6.372
68046SOL    HW1 6035   2.988  13.782   6.288
68046SOL    HW2 6036   2.849  13.769   6.348
68047SOL     OW 6037   4.380  12.805  13.069
68047SOL    HW1 6038   4.357  12.821  12.977
68047SOL    HW2 6039   4.341  12.721  13.089
68048SOL     OW 6040   9.968   2.971   5.033
68048SOL    HW1 6041   9.906   2.976   5.105
68048SOL    HW2 6042   9.975   2.877   5.013
68049SOL     OW 6043   1.443   2.614  13.007
68049SOL    HW1 6044   1.485   2.700  13.000
68049SOL    HW2 6045   1.380   2.612  12.935
68050SOL     OW 6046   1.170  12.334   1.812
68050SOL    HW1 6047   1.146  12.307   1.723
68050SOL    HW2 6048   1.266  12.324   1.814
68051SOL     OW 6049   1.300   2.660  13.811
68051SOL    HW1 6050   1.212   2.623  13.818
68051SOL    HW2 6051   1.327   2.675  13.901
68052SOL     OW 6052   4.218   6.389   3.307
68052SOL    HW1 6053   4.267   6.469   3.287
68052SOL    HW2 6054   4.127   6.419   3.313
68053SOL     OW 6055  10.492   4.418  13.271
68053SOL    HW1 6056  10.539   4.335  13.264
68053SOL    HW2 6057  10.476   4.430  13.364
68054SOL     OW 6058   8.082   1.584  12.488
68054SOL    HW1 6059   8.010   1.528  12.517
68054SOL    HW2 6060   8.081   1.657  12.549
68055SOL     OW 6061  14.566   0.590  11.408
68055SOL    HW1 6062  14.474   0.594  11.432
68055SOL    HW2 6063  14.610   0.562  11.489
68056SOL     OW 6064   7.267  14.848  12.330
68056SOL    HW1 6065   7.247  14.755  12.316
68056SOL    HW2 6066   7.230  14.868  12.416
68057SOL     OW 6067  11.807   8.206   4.381
68057SOL    HW1 6068  11.880   8.218   4.320
68057SOL    HW2 6069  11.779   8.295   4.403
68058SOL     OW 6070   7.354   2.054  10.408
68058SOL    HW1 6071   7.357   2.026  10.500
68058SOL    HW2 6072   7.413   1.993  10.363
68059SOL     OW 6073   5.156   6.887  13.402
68059SOL    HW1 6074   5.144   6.817  13.338
68059SOL    HW2 6075   5.246   6.916  13.389
68060SOL     OW 6076   7.637   6.676   2.068
68060SOL    HW1 6077   7.633   6.770   2.083
68060SOL    HW2 6078   7.730   6.655   2.071
68061SOL     OW 6079  11.716  10.834   7.625
68061SOL    HW1 6080  11.740  10.741   7.625
68061SOL    HW2 6081  11.644  10.840   7.687
68062SOL     OW 6082   1.960   6.199   3.936
68062SOL    HW1 6083   1.991   6.156   3.857
68062SOL    HW2 6084   1.972   6.134   4.006
68063SOL     OW 6085  14.297  10.142  14.206
68063SOL    HW1 6086  14.336  10.055  14.220
68063SOL    HW2 6087  14.306  10.186  14.291
68064SOL     OW 6088   2.821   6.417   1.977
68064SOL    HW1 6089   2.880   6.456   1.913
68064SOL    HW2 6090   2.863   6.334   2.000
68065SOL     OW 6091   1.358  12.266  10.887
68065SOL    HW1 6092   1.263  12.253  10.883
68065SOL    HW2 6093   1.390  12.195  10.942
68066SOL     OW 6094   7.510   6.317  10.236
68066SOL    HW1 6095   7.509   6.316  10.141
68066SOL    HW2 6096   7.420   6.300  10.261
68067SOL     OW 6097   0.829   4.456   6.663
68067SOL    HW1 6098   0.819   4.382   6.723
68067SOL    HW2 6099   0.816   4.418   6.576
68068SOL     OW 6100   0.979  10.608  13.545
68068SOL    HW1 6101   1.058  10.649  13.509
68068SOL    HW2 6102   1.011  10.532  13.593
68069SOL     OW 6103  10.359   1.709  13.070
68069SOL    HW1 6104  10.309   1.749  13.140
68069SOL    HW2 6105  10.372   1.618  13.098
68070SOL     OW 6106  10.315  10.851  11.483
68070SOL    HW1 6107  10.234  10.829  11.436
68070SOL    HW2 6108  10.347  10.766  11.515
68071SOL     OW 6109   5.068   9.079  14.013
68071SOL    HW1 6110   5.000   9.014  14.033
68071SOL    HW2 6111   5.044   9.156  14.065
68072SOL     OW 6112   7.622   0.158   0.403
68072SOL    HW1 6113   7.701   0.212   0.409
68072SOL    HW2 6114   7.567   0.187   0.476
68073SOL     OW 6115   4.860   1.635  11.045
68073SOL    HW1 6116   4.852   1.592  10.959
68073SOL    HW2 6117   4.775   1.676  11.060
68074SOL     OW 6118   2.328  12.949   0.001
68074SOL    HW1 6119   2.404  12.915  14.824
68074SOL    HW2 6120   2.339  13.044  14.871
68075SOL     OW 6121  12.590  12.861   9.547
68075SOL    HW1 6122  12.647  12.805   9.495
68075SOL    HW2 6123  12.507  12.813   9.552
68076SOL     OW 6124  12.266  13.340   0.917
68076SOL    HW1 6125  12.195  13.311   0.974
68076SOL    HW2 6126  12.226  13.343   0.830
68077SOL     OW 6127   6.067  12.237   7.738
68077SOL    HW1 6128   6.048  12.146   7.759
68077SOL    HW2 6129   6.046  12.246   7.645
68078SOL     OW 6130  13.930   2.122   8.050
68078SOL    HW1 6131  13.870   2.049   8.063
68078SOL    HW2 6132  13.893   2.172   7.977
68079SOL     OW 6133  12.113   6.279   3.207
68079SOL    HW1 6134  12.100   6.185   3.216
68079SOL    HW2 6135  12.119   6.294   3.113
68080SOL     OW 6136  13.036   5.521   2.183
68080SOL    HW1 6137  13.035   5.616   2.181
68080SOL    HW2 6138  13.009   5.495   2.094
68081SOL     OW 6139   0.449  10.652   8.416
68081SOL    HW1 6140   0.421  10.657   8.508
68081SOL    HW2 6141   0.479  10.740   8.395
68082SOL     OW 6142   9.685  13.198   6.426
68082SOL    HW1 6143   9.753  13.167   6.367
68082SOL    HW2 6144   9.603  13.169   6.387
68083SOL     OW 6145   6.033  10.732   0.686
68083SOL    HW1 6146   6.128  10.722   0.684
68083SOL    HW2 6147   6.018  10.823   0.660
68084SOL     OW 6148  11.089  13.085  13.165
68084SOL    HW1 6149  11.174  13.050  13.141
68084SOL    HW2 6150  11.102  13.179  13.172
68085SOL     OW 6151   8.560   2.192   1.607
68085SOL    HW1 6152   8.479   2.243   1.611
68085SOL    HW2 6153   8.575   2.180   1.513
68086SOL     OW 6154   9.994  12.964   8.326
68086SOL    HW1 6155  10.079  12.979   8.285
68086SOL    HW2 6156   9.997  12.872   8.354
68087SOL     OW 6157  14.246   3.035  11.799
68087SOL    HW1 6158  14.152   3.022  11.809
68087SOL    HW2 6159  14.284   2.949  11.818
68088SOL     OW 6160   0.751  11.860  11.445
68088SOL    HW1 6161   0.842  11.833  11.431
68088SOL    HW2 6162   0.751  11.899  11.532
68089SOL     OW 6163   8.720   8.062  10.645
68089SOL    HW1 6164   8.743   7.986  10.592
68089SOL    HW2 6165   8.804   8.095  10.677
68090SOL     OW 6166   6.801   2.721   5.016
68090SOL    HW1 6167   6.888   2.701   5.050
68090SOL    HW2 6168   6.808   2.706   4.922
68091SOL     OW 6169   5.355   7.296  13.158
68091SOL    HW1 6170   5.303   7.216  13.157
68091SOL    HW2 6171   5.343   7.330  13.247
68092SOL     OW 6172  14.336   2.307   7.911
68092SOL    HW1 6173  14.287   2.354   7.978
68092SOL    HW2 6174  14.270   2.278   7.848
68093SOL     OW 6175  13.284   2.113   3.547
68093SOL    HW1 6176  13.261   2.191   3.496
68093SOL    HW2 6177  13.287   2.042   3.483
68094SOL     OW 6178   0.180   4.322   2.126
68094SOL    HW1 6179   0.250   4.341   2.064
68094SOL    HW2 6180   0.199   4.376   2.202
68095SOL     OW 6181  11.783   1.472   2.845
68095SOL    HW1 6182  11.845   1.409   2.879
68095SOL    HW2 6183  11.809   1.486   2.754
68096SOL     OW 6184   3.162  14.696   9.652
68096SOL    HW1 6185   3.141  14.750   9.729
68096SOL    HW2 6186   3.253  14.670   9.666
68097SOL     OW 6187   1.661   0.967   8.594
68097SOL    HW1 6188   1.610   0.903   8.643
68097SOL    HW2 6189   1.703   1.021   8.661
68098SOL     OW 6190   1.509   0.362  12.194
68098SOL    HW1 6191   1.486   0.334  12.105
68098SOL    HW2 6192   1.573   0.433  12.180
68099SOL     OW 6193  14.638   5.869  12.124
68099SOL    HW1 6194  14.546   5.844  12.120
68099SOL    HW2 6195  14.678   5.803  12.181
68100SOL     OW 6196   3.360  11.504  10.054
68100SOL    HW1 6197   3.388  11.535  10.140
68100SOL    HW2 6198   3.348  11.410  10.066
68101SOL     OW 6199   3.722   4.203  13.869
68101SOL    HW1 6200   3.725   4.174  13.960
68101SOL    HW2 6201   3.767   4.287  13.869
68102SOL     OW 6202   7.696  11.195   6.008
68102SOL    HW1 6203   7.612  11.172   6.049
68102SOL    HW2 6204   7.672  11.247   5.931
68103SOL     OW 6205   2.430  11.334   9.625
68103SOL    HW1 6206   2.466  11.409   9.578
68103SOL    HW2 6207   2.347  11.315   9.582
68104SOL     OW 6208   8.427   8.535   1.706
68104SOL    HW1 6209   8.477   8.496   1.634
68104SOL    HW2 6210   8.386   8.460   1.750
68105SOL     OW 6211   5.787   8.643  10.719
68105SOL    HW1 6212   5.695   8.653  10.742
68105SOL    HW2 6213   5.823   8.731  10.727
68106SOL     OW 6214   8.788  12.433  12.293
68106SOL    HW1 6215   8.845  12.369  12.336
68106SOL    HW2 6216   8.849  12.500  12.260
68107SOL     OW 6217   6.956   2.020   1.193
68107SOL    HW1 6218   6.983   1.950   1.253
68107SOL    HW2 6219   6.862   2.006   1.181
68108SOL     OW 6220   6.858  10.582   9.494
68108SOL    HW1 6221   6.851  10.614   9.584
68108SOL    HW2 6222   6.770  10.549   9.474
68109SOL     OW 6223   4.007   3.708   1.580
68109SOL    HW1 6224   3.964   3.763   1.514
68109SOL    HW2 6225   3.939   3.691   1.645
68110SOL     OW 6226  11.612   0.113   2.666
68110SOL    HW1 6227  11.596   0.081   2.577
68110SOL    HW2 6228  11.586   0.041   2.723
68111SOL     OW 6229   3.898  10.537   2.656
68111SOL    HW1 6230   3.888  10.494   2.741
68111SOL    HW2 6231   3.962  10.484   2.609
68112SOL     OW 6232  12.333   7.244   5.254
68112SOL    HW1 6233  12.285   7.289   5.185
68112SOL    HW2 6234  12.358   7.160   5.214
68113SOL     OW 6235   3.237  14.362  12.671
68113SOL    HW1 6236   3.295  14.435  12.649
68113SOL    HW2 6237   3.155  14.382  12.626
68114SOL     OW 6238  10.433   0.390   4.018
68114SOL    HW1 6239  10.481   0.314   3.985
68114SOL    HW2 6240  10.411   0.440   3.940
68115SOL     OW 6241   3.287   0.766   7.949
68115SOL    HW1 6242   3.248   0.823   7.883
68115SOL    HW2 6243   3.213   0.717   7.986
68116SOL     OW 6244   6.268  12.358  11.943
68116SOL    HW1 6245   6.248  12.283  11.886
68116SOL    HW2 6246   6.362  12.352  11.957
68117SOL     OW 6247  11.182   8.624   7.339
68117SOL    HW1 6248  11.221   8.625   7.426
68117SOL    HW2 6249  11.117   8.694   7.341
68118SOL     OW 6250   7.048   4.483   6.157
68118SOL    HW1 6251   7.019   4.395   6.182
68118SOL    HW2 6252   7.059   4.479   6.062
68119SOL     OW 6253  13.380   8.811   4.861
68119SOL    HW1 6254  13.425   8.876   4.914
68119SOL    HW2 6255  13.291   8.809   4.895
68120SOL     OW 6256   4.436  12.012  12.322
68120SOL    HW1 6257   4.402  11.933  12.364
68120SOL    HW2 6258   4.423  11.997  12.228
68121SOL     OW 6259   2.443   4.005  11.191
68121SOL    HW1 6260   2.497   4.034  11.264
68121SOL    HW2 6261   2.366   3.966  11.231
68122SOL     OW 6262   7.504   7.168   0.014
68122SOL    HW1 6263   7.523   7.256  14.855
68122SOL    HW2 6264   7.588   7.136   0.049
68123SOL     OW 6265   1.618  12.077   3.065
68123SOL    HW1 6266   1.673  12.155   3.066
68123SOL    HW2 6267   1.646  12.029   2.987
68124SOL     OW 6268   3.340   8.551   1.990
68124SOL    HW1 6269   3.360   8.476   1.933
68124SOL    HW2 6270   3.425   8.588   2.012
68125SOL     OW 6271   4.136  14.856   6.103
68125SOL    HW1 6272   4.087  14.778   6.077
68125SOL    HW2 6273   4.228  14.833   6.088
68126SOL     OW 6274   6.996  13.372   6.543
68126SOL    HW1 6275   7.047  13.453   6.538
68126SOL    HW2 6276   7.023  13.321   6.467
68127SOL     OW 6277   7.011  10.185   8.933
68127SOL    HW1 6278   6.935  10.137   8.899
68127SOL    HW2 6279   6.977  10.270   8.959
68128SOL     OW 6280  12.118   3.561   3.143
68128SOL    HW1 6281  12.038   3.596   3.181
68128SOL    HW2 6282  12.167   3.525   3.217
68129SOL     OW 6283   4.283   2.944  10.120
68129SOL    HW1 6284   4.196   2.984  10.113
68129SOL    HW2 6285   4.271   2.867  10.175
68130SOL     OW 6286   5.432   1.714   9.901
68130SOL    HW1 6287   5.481   1.639   9.934
68130SOL    HW2 6288   5.396   1.755   9.980
68131SOL     OW 6289   3.032  11.984   2.665
68131SOL    HW1 6290   3.068  11.949   2.747
68131SOL    HW2 6291   2.997  11.907   2.620
68132SOL     OW 6292   0.928   2.872   2.234
68132SOL    HW1 6293   0.837   2.896   2.253
68132SOL    HW2 6294   0.971   2.956   2.218
68133SOL     OW 6295   1.360  13.143   8.669
68133SOL    HW1 6296   1.335  13.196   8.745
68133SOL    HW2 6297   1.427  13.196   8.625
68134SOL     OW 6298  13.371   4.429  10.051
68134SOL    HW1 6299  13.300   4.478  10.011
68134SOL    HW2 6300  13.447   4.487  10.042
68135SOL     OW 6301   2.385   0.146   7.375
68135SOL    HW1 6302   2.439   0.213   7.333
68135SOL    HW2 6303   2.446   0.074   7.394
68136SOL     OW 6304  11.358  13.480   6.842
68136SOL    HW1 6305  11.297  13.545   6.876
68136SOL    HW2 6306  11.392  13.436   6.921
68137SOL     OW 6307   3.421   9.515   8.082
68137SOL    HW1 6308   3.378   9.504   8.167
68137SOL    HW2 6309   3.515   9.514   8.101
68138SOL     OW 6310  14.645  13.582   9.885
68138SOL    HW1 6311  14.582  13.512   9.901
68138SOL    HW2 6312  14.679  13.564   9.797
68139SOL     OW 6313  13.762   5.477   3.069
68139SOL    HW1 6314  13.827   5.431   3.122
68139SOL    HW2 6315  13.723   5.410   3.013
68140SOL     OW 6316   5.272  13.203   8.973
68140SOL    HW1 6317   5.232  13.170   9.054
68140SOL    HW2 6318   5.209  13.181   8.904
68141SOL     OW 6319   9.547  11.291   1.322
68141SOL    HW1 6320   9.503  11.296   1.238
68141SOL    HW2 6321   9.628  11.342   1.310
68142SOL     OW 6322   0.260   1.837  11.371
68142SOL    HW1 6323   0.171   1.805  11.383
68142SOL    HW2 6324   0.257   1.928  11.401
68143SOL     OW 6325  13.628   7.881  10.858
68143SOL    HW1 6326  13.599   7.882  10.767
68143SOL    HW2 6327  13.622   7.790  10.885
68144SOL     OW 6328   2.774  10.522  10.497
68144SOL    HW1 6329   2.803  10.552  10.583
68144SOL    HW2 6330   2.726  10.441  10.515
68145SOL     OW 6331   3.418  14.389   4.325
68145SOL    HW1 6332   3.341  14.392   4.269
68145SOL    HW2 6333   3.417  14.474   4.370
68146SOL     OW 6334  10.682  11.562   2.232
68146SOL    HW1 6335  10.724  11.549   2.147
68146SOL    HW2 6336  10.754  11.560   2.295
68147SOL     OW 6337   6.708   4.265   4.255
68147SOL    HW1 6338   6.700   4.271   4.159
68147SOL    HW2 6339   6.740   4.351   4.281
68148SOL     OW 6340   2.802  14.249   5.290
68148SOL    HW1 6341   2.849  14.243   5.207
68148SOL    HW2 6342   2.869  14.275   5.354
68149SOL     OW 6343   2.940   5.657  13.940
68149SOL    HW1 6344   3.028   5.685  13.914
68149SOL    HW2 6345   2.901   5.623  13.860
68150SOL     OW 6346   6.825   1.426   6.563
68150SOL    HW1 6347   6.913   1.392   6.574
68150SOL    HW2 6348   6.802   1.461   6.649
68151SOL     OW 6349   1.818  11.677  12.960
68151SOL    HW1 6350   1.750  11.732  13.000
68151SOL    HW2 6351   1.799  11.589  12.994
68152SOL     OW 6352   5.664  12.370  13.808
68152SOL    HW1 6353   5.713  12.292  13.783
68152SOL    HW2 6354   5.598  12.381  13.739
68153SOL     OW 6355   7.349   2.019  13.129
68153SOL    HW1 6356   7.296   1.944  13.156
68153SOL    HW2 6357   7.335   2.085  13.197
68154SOL     OW 6358  10.629   7.238   5.722
68154SOL    HW1 6359  10.631   7.212   5.814
68154SOL    HW2 6360  10.695   7.308   5.717
68155SOL     OW 6361   4.149   4.322  11.782
68155SOL    HW1 6362   4.111   4.373  11.854
68155SOL    HW2 6363   4.080   4.263  11.754
68156SOL     OW 6364   6.301  10.525  13.260
68156SOL    HW1 6365   6.374  10.586  13.253
68156SOL    HW2 6366   6.300  10.480  13.175
68157SOL     OW 6367   2.184   5.990   7.910
68157SOL    HW1 6368   2.252   5.929   7.884
68157SOL    HW2 6369   2.110   5.971   7.852
68158SOL     OW 6370  13.279  12.049  10.027
68158SOL    HW1 6371  13.334  11.992   9.973
68158SOL    HW2 6372  13.243  11.991  10.094
68159SOL     OW 6373   7.279  12.184   1.774
68159SOL    HW1 6374   7.249  12.273   1.753
68159SOL    HW2 6375   7.287  12.184   1.869
68160SOL     OW 6376   2.409   4.599   6.919
68160SOL    HW1 6377   2.324   4.629   6.952
68160SOL    HW2 6378   2.389   4.517   6.873
68161SOL     OW 6379   2.648  12.005   1.699
68161SOL    HW1 6380   2.697  12.069   1.749
68161SOL    HW2 6381   2.594  11.960   1.764
68162SOL     OW 6382  13.921   2.042   7.419
68162SOL    HW1 6383  13.874   2.080   7.493
68162SOL    HW2 6384  13.956   1.960   7.452
68163SOL     OW 6385  13.002   8.261   6.630
68163SOL    HW1 6386  13.091   8.230   6.644
68163SOL    HW2 6387  12.968   8.281   6.717
68164SOL     OW 6388   5.950   9.173  13.821
68164SOL    HW1 6389   6.005   9.234  13.870
68164SOL    HW2 6390   5.924   9.221  13.742
68165SOL     OW 6391   7.350   9.338   3.996
68165SOL    HW1 6392   7.376   9.336   3.904
68165SOL    HW2 6393   7.382   9.255   4.031
68166SOL     OW 6394   0.037  12.442   9.847
68166SOL    HW1 6395  14.822  12.467   9.815
68166SOL    HW2 6396   0.043  12.480   9.934
68167SOL     OW 6397  14.337  13.604   0.717
68167SOL    HW1 6398  14.379  13.632   0.635
68167SOL    HW2 6399  14.305  13.685   0.756
68168SOL     OW 6400   0.057   0.567  10.357
68168SOL    HW1 6401  14.846   0.590  10.316
68168SOL    HW2 6402   0.090   0.649  10.395
68169SOL     OW 6403   9.128   1.772  10.147
68169SOL    HW1 6404   9.132   1.774  10.243
68169SOL    HW2 6405   9.138   1.680  10.124
68170SOL     OW 6406   4.799   0.355   8.927
68170SOL    HW1 6407   4.772   0.446   8.943
68170SOL    HW2 6408   4.889   0.351   8.958
68171SOL     OW 6409   4.605   2.497   7.162
68171SOL    HW1 6410   4.574   2.542   7.240
68171SOL    HW2 6411   4.597   2.562   7.092
68172SOL     OW 6412   7.785  12.390  14.552
68172SOL    HW1 6413   7.733  12.429  14.481
68172SOL    HW2 6414   7.875  12.394  14.521
68173SOL     OW 6415  10.178  12.038   9.313
68173SOL    HW1 6416  10.224  12.122   9.309
68173SOL    HW2 6417  10.242  11.974   9.282
68174SOL     OW 6418  12.706   3.073  13.283
68174SOL    HW1 6419  12.703   3.090  13.377
68174SOL    HW2 6420  12.687   2.980  13.275
68175SOL     OW 6421   5.939   5.164   6.335
68175SOL    HW1 6422   5.938   5.186   6.242
68175SOL    HW2 6423   6.015   5.210   6.370
68176SOL     OW 6424   3.156  13.376   8.380
68176SOL    HW1 6425   3.143  13.461   8.338
68176SOL    HW2 6426   3.214  13.329   8.320
68177SOL     OW 6427   3.056  12.176   6.119
68177SOL    HW1 6428   3.022  12.087   6.115
68177SOL    HW2 6429   3.150  12.167   6.104
68178SOL     OW 6430   1.097   5.956   5.301
68178SOL    HW1 6431   1.034   5.892   5.268
68178SOL    HW2 6432   1.064   6.041   5.270
68179SOL     OW 6433   4.436  11.571   7.628
68179SOL    HW1 6434   4.514  11.565   7.683
68179SOL    HW2 6435   4.410  11.662   7.633
68180SOL     OW 6436   5.762   3.439   4.352
68180SOL    HW1 6437   5.764   3.426   4.447
68180SOL    HW2 6438   5.815   3.518   4.338
68181SOL     OW 6439   0.810   9.039  12.532
68181SOL    HW1 6440   0.831   9.132  12.536
68181SOL    HW2 6441   0.791   9.015  12.623
68182SOL     OW 6442   7.027  13.168   5.338
68182SOL    HW1 6443   7.086  13.118   5.394
68182SOL    HW2 6444   7.078  13.186   5.259
68183SOL     OW 6445  12.032   2.897   2.796
68183SOL    HW1 6446  11.995   2.950   2.866
68183SOL    HW2 6447  11.958   2.850   2.758
68184SOL     OW 6448  12.872   2.759   2.908
68184SOL    HW1 6449  12.798   2.725   2.857
68184SOL    HW2 6450  12.906   2.831   2.855
68185SOL     OW 6451  11.274  11.917  13.122
68185SOL    HW1 6452  11.229  11.835  13.100
68185SOL    HW2 6453  11.335  11.931  13.049
68186SOL     OW 6454   2.671  14.216   2.331
68186SOL    HW1 6455   2.728  14.214   2.253
68186SOL    HW2 6456   2.655  14.309   2.346
68187SOL     OW 6457   6.374   5.017  12.575
68187SOL    HW1 6458   6.338   4.934  12.607
68187SOL    HW2 6459   6.402   4.997  12.485
68188SOL     OW 6460   2.348   8.921   3.731
68188SOL    HW1 6461   2.260   8.935   3.695
68188SOL    HW2 6462   2.333   8.902   3.823
68189SOL     OW 6463   6.266   5.258  11.023
68189SOL    HW1 6464   6.235   5.194  10.959
68189SOL    HW2 6465   6.241   5.221  11.108
68190SOL     OW 6466  13.602   7.624  11.809
68190SOL    HW1 6467  13.507   7.637  11.803
68190SOL    HW2 6468  13.629   7.605  11.719
68191SOL     OW 6469  14.730  11.100   5.469
68191SOL    HW1 6470  14.748  11.064   5.557
68191SOL    HW2 6471  14.679  11.031   5.426
68192SOL     OW 6472   6.371  11.032  13.481
68192SOL    HW1 6473   6.427  10.985  13.543
68192SOL    HW2 6474   6.301  11.068  13.535
68193SOL     OW 6475   4.728   8.990   1.047
68193SOL    HW1 6476   4.678   8.942   0.980
68193SOL    HW2 6477   4.662   9.037   1.098
68194SOL     OW 6478   0.155  12.197   1.454
68194SOL    HW1 6479   0.142  12.133   1.524
68194SOL    HW2 6480   0.235  12.167   1.409
68195SOL     OW 6481  14.709  10.541   3.107
68195SOL    HW1 6482  14.731  10.472   3.044
68195SOL    HW2 6483  14.786  10.598   3.107
68196SOL     OW 6484  14.691   2.182   6.521
68196SOL    HW1 6485  14.663   2.106   6.571
68196SOL    HW2 6486  14.616   2.205   6.467
68197SOL     OW 6487   6.300  14.093   6.108
68197SOL    HW1 6488   6.330  14.010   6.146
68197SOL    HW2 6489   6.286  14.150   6.184
68198SOL     OW 6490  14.222   3.529  14.545
68198SOL    HW1 6491  14.313   3.530  14.577
68198SOL    HW2 6492  14.228   3.554  14.453
68199SOL     OW 6493  11.937  13.485   3.034
68199SOL    HW1 6494  11.977  13.543   3.099
68199SOL    HW2 6495  11.881  13.427   3.086
68200SOL     OW 6496  13.127   2.879   5.035
68200SOL    HW1 6497  13.223   2.880   5.024
68200SOL    HW2 6498  13.096   2.825   4.962
68201SOL     OW 6499  10.178  11.619   2.097
68201SOL    HW1 6500  10.133  11.575   2.168
68201SOL    HW2 6501  10.207  11.702   2.136
68202SOL     OW 6502   4.225   3.867  11.768
68202SOL    HW1 6503   4.296   3.931  11.760
68202SOL    HW2 6504   4.205   3.865  11.861
68203SOL     OW 6505   5.745   4.548  12.674
68203SOL    HW1 6506   5.663   4.542  12.625
68203SOL    HW2 6507   5.747   4.638  12.707
68204SOL     OW 6508   3.866  11.066   9.759
68204SOL    HW1 6509   3.849  10.982   9.717
68204SOL    HW2 6510   3.939  11.048   9.818
68205SOL     OW 6511   3.505  13.945   5.090
68205SOL    HW1 6512   3.413  13.938   5.063
68205SOL    HW2 6513   3.552  13.968   5.009
68206SOL     OW 6514   4.845   2.956  11.739
68206SOL    HW1 6515   4.940   2.943  11.734
68206SOL    HW2 6516   4.812   2.876  11.779
68207SOL     OW 6517  10.841   9.210   3.529
68207SOL    HW1 6518  10.932   9.181   3.525
68207SOL    HW2 6519  10.819   9.206   3.622
68208SOL     OW 6520   1.897   0.855   9.342
68208SOL    HW1 6521   1.853   0.894   9.418
68208SOL    HW2 6522   1.865   0.765   9.340
68209SOL     OW 6523   4.779   8.333  12.528
68209SOL    HW1 6524   4.872   8.354  12.516
68209SOL    HW2 6525   4.772   8.240  12.507
68210SOL     OW 6526   9.344   4.151   8.542
68210SOL    HW1 6527   9.396   4.222   8.580
68210SOL    HW2 6528   9.274   4.136   8.605
68211SOL     OW 6529   1.303   9.260   0.110
68211SOL    HW1 6530   1.232   9.196   0.102
68211SOL    HW2 6531   1.358   9.244   0.034
68212SOL     OW 6532   3.525   4.635   8.274
68212SOL    HW1 6533   3.561   4.715   8.312
68212SOL    HW2 6534   3.471   4.665   8.201
68213SOL     OW 6535  12.013   5.160   6.469
68213SOL    HW1 6536  11.921   5.186   6.468
68213SOL    HW2 6537  12.055   5.222   6.528
68214SOL     OW 6538   2.453   6.388   3.226
68214SOL    HW1 6539   2.373   6.349   3.260
68214SOL    HW2 6540   2.509   6.398   3.303
68215SOL     OW 6541   8.016  11.127   4.651
68215SOL    HW1 6542   7.992  11.094   4.564
68215SOL    HW2 6543   8.020  11.049   4.706
68216SOL     OW 6544   9.687   3.218   3.688
68216SOL    HW1 6545   9.617   3.263   3.734
68216SOL    HW2 6546   9.670   3.125   3.703
68217SOL     OW 6547   2.923  12.415   0.228
68217SOL    HW1 6548   2.979  12.346   0.263
68217SOL    HW2 6549   2.880  12.452   0.305
68218SOL     OW 6550   8.520   4.579   0.708
68218SOL    HW1 6551   8.523   4.674   0.724
68218SOL    HW2 6552   8.598   4.546   0.754
68219SOL     OW 6553  11.154   8.653   2.281
68219SOL    HW1 6554  11.175   8.581   2.221
68219SOL    HW2 6555  11.153   8.731   2.225
68220SOL     OW 6556  10.311   4.948  12.281
68220SOL    HW1 6557  10.323   4.920  12.372
68220SOL    HW2 6558  10.382   4.907  12.233
68221SOL     OW 6559   3.674   9.528  10.107
68221SOL    HW1 6560   3.661   9.622  10.094
68221SOL    HW2 6561   3.586   9.491  10.099
68222SOL     OW 6562   7.127   7.179   4.100
68222SOL    HW1 6563   7.046   7.145   4.140
68222SOL    HW2 6564   7.165   7.104   4.055
68223SOL     OW 6565  14.455   5.608   3.025
68223SOL    HW1 6566  14.460   5.569   2.938
68223SOL    HW2 6567  14.518   5.559   3.077
68224SOL     OW 6568   3.459  13.589  12.450
68224SOL    HW1 6569   3.450  13.517  12.388
68224SOL    HW2 6570   3.540  13.633  12.424
68225SOL     OW 6571  13.330  11.801   3.023
68225SOL    HW1 6572  13.248  11.848   3.008
68225SOL    HW2 6573  13.304  11.718   3.064
68226SOL     OW 6574   0.686  11.624  11.299
68226SOL    HW1 6575   0.748  11.695  11.317
68226SOL    HW2 6576   0.652  11.644  11.212
68227SOL     OW 6577   8.939  13.366   1.517
68227SOL    HW1 6578   8.929  13.316   1.598
68227SOL    HW2 6579   9.033  13.381   1.508
68228SOL     OW 6580   6.758   6.975   7.242
68228SOL    HW1 6581   6.733   7.052   7.294
68228SOL    HW2 6582   6.800   7.011   7.164
68229SOL     OW 6583   9.294  14.045   5.045
68229SOL    HW1 6584   9.290  14.120   5.104
68229SOL    HW2 6585   9.387  14.038   5.022
68230SOL     OW 6586   1.956  10.494   2.009
68230SOL    HW1 6587   2.027  10.519   2.068
68230SOL    HW2 6588   1.955  10.399   2.010
68231SOL     OW 6589   9.438  10.045   3.987
68231SOL    HW1 6590   9.454  10.002   4.071
68231SOL    HW2 6591   9.487  10.127   3.993
68232SOL     OW 6592   6.087  12.422   5.162
68232SOL    HW1 6593   6.008  12.455   5.120
68232SOL    HW2 6594   6.155  12.486   5.141
68233SOL     OW 6595   9.577  10.803   1.281
68233SOL    HW1 6596   9.526  10.816   1.361
68233SOL    HW2 6597   9.563  10.883   1.230
68234SOL     OW 6598  12.880   0.922  12.411
68234SOL    HW1 6599  12.785   0.915  12.399
68234SOL    HW2 6600  12.892   0.926  12.505
68235SOL     OW 6601   5.906   0.039   4.364
68235SOL    HW1 6602   5.816   0.041   4.329
68235SOL    HW2 6603   5.897   0.061   4.456
68236SOL     OW 6604  14.788   2.363   1.969
68236SOL    HW1 6605  14.773   2.458   1.968
68236SOL    HW2 6606  14.826   2.344   1.883
68237SOL     OW 6607   7.852   8.754   1.831
68237SOL    HW1 6608   7.847   8.702   1.751
68237SOL    HW2 6609   7.795   8.709   1.893
68238SOL     OW 6610   0.433  10.124   8.697
68238SOL    HW1 6611   0.415  10.041   8.741
68238SOL    HW2 6612   0.356  10.179   8.716
68239SOL     OW 6613  12.340  11.713  10.892
68239SOL    HW1 6614  12.264  11.676  10.846
68239SOL    HW2 6615  12.414  11.661  10.862
68240SOL     OW 6616   5.878  12.573  13.815
68240SOL    HW1 6617   5.916  12.551  13.900
68240SOL    HW2 6618   5.810  12.507  13.802
68241SOL     OW 6619  14.259   4.112   8.106
68241SOL    HW1 6620  14.348   4.121   8.074
68241SOL    HW2 6621  14.204   4.115   8.028
68242SOL     OW 6622   6.819  12.300   8.562
68242SOL    HW1 6623   6.819  12.245   8.640
68242SOL    HW2 6624   6.809  12.389   8.594
68243SOL     OW 6625   0.467  12.556   5.880
68243SOL    HW1 6626   0.412  12.478   5.869
68243SOL    HW2 6627   0.475  12.592   5.792
68244SOL     OW 6628  13.263   0.899  12.131
68244SOL    HW1 6629  13.309   0.872  12.051
68244SOL    HW2 6630  13.316   0.970  12.166
68245SOL     OW 6631   4.987  13.773   8.377
68245SOL    HW1 6632   4.924  13.756   8.306
68245SOL    HW2 6633   5.060  13.817   8.333
68246SOL     OW 6634  11.402  14.015   6.833
68246SOL    HW1 6635  11.462  14.042   6.903
68246SOL    HW2 6636  11.423  13.923   6.818
68247SOL     OW 6637   3.525   2.286  14.318
68247SOL    HW1 6638   3.486   2.372  14.333
68247SOL    HW2 6639   3.457   2.237  14.272
68248SOL     OW 6640   7.448   9.703   6.447
68248SOL    HW1 6641   7.448   9.782   6.500
68248SOL    HW2 6642   7.397   9.640   6.497
68249SOL     OW 6643  12.890   2.849  14.294
68249SOL    HW1 6644  12.866   2.930  14.249
68249SOL    HW2 6645  12.980   2.865  14.325
68250SOL     OW 6646   9.433   6.228   6.354
68250SOL    HW1 6647   9.366   6.291   6.328
68250SOL    HW2 6648   9.516   6.275   6.344
68251SOL     OW 6649   8.800   6.210   0.481
68251SOL    HW1 6650   8.773   6.294   0.518
68251SOL    HW2 6651   8.870   6.232   0.420
68252SOL     OW 6652   3.018  14.079   6.742
68252SOL    HW1 6653   3.109  14.105   6.730
68252SOL    HW2 6654   3.020  13.983   6.735
68253SOL     OW 6655   5.586  11.670   9.222
68253SOL    HW1 6656   5.535  11.591   9.206
68253SOL    HW2 6657   5.677  11.641   9.213
68254SOL     OW 6658  10.261   2.265   9.696
68254SOL    HW1 6659  10.327   2.246   9.629
68254SOL    HW2 6660  10.190   2.204   9.677
68255SOL     OW 6661  12.429   2.001   3.572
68255SOL    HW1 6662  12.398   2.091   3.581
68255SOL    HW2 6663  12.522   2.009   3.551
68256SOL     OW 6664   7.938   7.391  10.448
68256SOL    HW1 6665   7.933   7.418  10.540
68256SOL    HW2 6666   7.934   7.296  10.451
68257SOL     OW 6667   1.563   1.058  11.390
68257SOL    HW1 6668   1.492   1.083  11.331
68257SOL    HW2 6669   1.538   1.096  11.475
68258SOL     OW 6670  11.368  12.391  14.241
68258SOL    HW1 6671  11.313  12.433  14.174
68258SOL    HW2 6672  11.327  12.415  14.324
68259SOL     OW 6673   4.316  12.649   7.345
68259SOL    HW1 6674   4.238  12.701   7.325
68259SOL    HW2 6675   4.321  12.584   7.274
68260SOL     OW 6676   2.129   3.422  11.818
68260SOL    HW1 6677   2.133   3.516  11.832
68260SOL    HW2 6678   2.090   3.412  11.731
68261SOL     OW 6679   2.561  12.619  14.701
68261SOL    HW1 6680   2.604  12.593  14.783
68261SOL    HW2 6681   2.629  12.612  14.635
68262SOL     OW 6682   5.899  13.649   5.966
68262SOL    HW1 6683   5.976  13.684   5.921
68262SOL    HW2 6684   5.831  13.715   5.952
68263SOL     OW 6685  12.850   2.696  12.427
68263SOL    HW1 6686  12.805   2.612  12.430
68263SOL    HW2 6687  12.859   2.715  12.333
68264SOL     OW 6688   3.291  14.653   0.403
68264SOL    HW1 6689   3.299  14.686   0.314
68264SOL    HW2 6690   3.326  14.564   0.399
68265SOL     OW 6691   5.088  12.842   9.352
68265SOL    HW1 6692   5.120  12.763   9.395
68265SOL    HW2 6693   4.996  12.848   9.378
68266SOL     OW 6694   0.647   7.582  13.415
68266SOL    HW1 6695   0.674   7.600  13.505
68266SOL    HW2 6696   0.552   7.592  13.416
68267SOL     OW 6697   9.978   0.709   1.903
68267SOL    HW1 6698   9.964   0.641   1.836
68267SOL    HW2 6699   9.900   0.704   1.958
68268SOL     OW 6700  13.514  10.557  11.599
68268SOL    HW1 6701  13.467  10.622  11.548
68268SOL    HW2 6702  13.588  10.604  11.637
68269SOL     OW 6703   2.126   1.481  13.841
68269SOL    HW1 6704   2.212   1.454  13.808
68269SOL    HW2 6705   2.145   1.554  13.899
68270SOL     OW 6706  13.872   0.627   9.969
68270SOL    HW1 6707  13.823   0.560   9.921
68270SOL    HW2 6708  13.866   0.599  10.061
68271SOL     OW 6709  14.674   7.195  10.661
68271SOL    HW1 6710  14.667   7.197  10.566
68271SOL    HW2 6711  14.664   7.102  10.684
68272SOL     OW 6712  10.292   7.792   4.175
68272SOL    HW1 6713  10.201   7.817   4.188
68272SOL    HW2 6714  10.293   7.697   4.183
68273SOL     OW 6715  13.894  12.502   0.340
68273SOL    HW1 6716  13.944  12.449   0.402
68273SOL    HW2 6717  13.961  12.544   0.286
68274SOL     OW 6718  12.091  11.668  13.360
68274SOL    HW1 6719  12.044  11.596  13.404
68274SOL    HW2 6720  12.183  11.647  13.372
68275SOL     OW 6721  10.786   5.646   8.622
68275SOL    HW1 6722  10.809   5.591   8.547
68275SOL    HW2 6723  10.799   5.736   8.590
68276SOL     OW 6724   1.274   1.496  10.179
68276SOL    HW1 6725   1.218   1.481  10.255
68276SOL    HW2 6726   1.215   1.493  10.104
68277SOL     OW 6727   4.508   7.618  14.338
68277SOL    HW1 6728   4.590   7.588  14.297
68277SOL    HW2 6729   4.510   7.581  14.426
68278SOL     OW 6730   9.459   8.537   4.304
68278SOL    HW1 6731   9.550   8.511   4.320
68278SOL    HW2 6732   9.427   8.474   4.240
68279SOL     OW 6733  13.133  14.230   9.998
68279SOL    HW1 6734  13.157  14.238  10.090
68279SOL    HW2 6735  13.039  14.211  10.000
68280SOL     OW 6736  11.293   2.357  12.653
68280SOL    HW1 6737  11.200   2.338  12.645
68280SOL    HW2 6738  11.301   2.449  12.627
68281SOL     OW 6739   0.839   8.704  13.375
68281SOL    HW1 6740   0.835   8.613  13.345
68281SOL    HW2 6741   0.930   8.729  13.363
68282SOL     OW 6742   8.583  10.769   7.436
68282SOL    HW1 6743   8.577  10.796   7.528
68282SOL    HW2 6744   8.565  10.849   7.386
68283SOL     OW 6745   3.486   6.831   8.120
68283SOL    HW1 6746   3.424   6.890   8.077
68283SOL    HW2 6747   3.556   6.818   8.056
68284SOL     OW 6748   2.112   2.861   6.751
68284SOL    HW1 6749   2.207   2.873   6.745
68284SOL    HW2 6750   2.082   2.862   6.660
68285SOL     OW 6751  13.505   0.242   3.538
68285SOL    HW1 6752  13.564   0.264   3.465
68285SOL    HW2 6753  13.563   0.204   3.604
68286SOL     OW 6754   7.060   6.348   3.920
68286SOL    HW1 6755   7.063   6.363   4.015
68286SOL    HW2 6756   7.148   6.372   3.890
68287SOL     OW 6757   5.192   2.910   7.947
68287SOL    HW1 6758   5.277   2.883   7.983
68287SOL    HW2 6759   5.176   2.996   7.986
68288SOL     OW 6760   6.061  14.782   5.702
68288SOL    HW1 6761   6.023  14.857   5.656
68288SOL    HW2 6762   6.150  14.810   5.724
68289SOL     OW 6763   9.527  13.180  10.191
68289SOL    HW1 6764   9.517  13.232  10.111
68289SOL    HW2 6765   9.437  13.165  10.221
68290SOL     OW 6766   6.453  13.249   9.006
68290SOL    HW1 6767   6.519  13.197   9.051
68290SOL    HW2 6768   6.448  13.330   9.057
68291SOL     OW 6769   2.157   9.673   8.458
68291SOL    HW1 6770   2.238   9.623   8.462
68291SOL    HW2 6771   2.093   9.621   8.507
68292SOL     OW 6772   7.136  14.269  11.728
68292SOL    HW1 6773   7.204  14.310  11.673
68292SOL    HW2 6774   7.152  14.175  11.719
68293SOL     OW 6775   4.115   1.131  12.402
68293SOL    HW1 6776   4.150   1.140  12.491
68293SOL    HW2 6777   4.043   1.193  12.397
68294SOL     OW 6778   2.632   6.761  13.583
68294SOL    HW1 6779   2.621   6.717  13.668
68294SOL    HW2 6780   2.563   6.724  13.528
68295SOL     OW 6781  11.518   7.474   8.826
68295SOL    HW1 6782  11.499   7.566   8.811
68295SOL    HW2 6783  11.576   7.473   8.902
68296SOL     OW 6784   4.228   4.848   9.547
68296SOL    HW1 6785   4.238   4.944   9.552
68296SOL    HW2 6786   4.139   4.835   9.513
68297SOL     OW 6787   8.138   0.694  10.448
68297SOL    HW1 6788   8.047   0.711  10.472
68297SOL    HW2 6789   8.156   0.755  10.376
68298SOL     OW 6790   8.911   2.152   2.742
68298SOL    HW1 6791   8.873   2.069   2.714
68298SOL    HW2 6792   8.910   2.208   2.664
68299SOL     OW 6793  14.076   2.699   3.842
68299SOL    HW1 6794  14.163   2.660   3.839
68299SOL    HW2 6795  14.091   2.793   3.830
68300SOL     OW 6796   7.159  11.591   7.623
68300SOL    HW1 6797   7.148  11.497   7.604
68300SOL    HW2 6798   7.191  11.593   7.713
68301SOL     OW 6799  11.035   6.037   0.929
68301SOL    HW1 6800  10.952   6.061   0.972
68301SOL    HW2 6801  11.035   5.942   0.931
68302SOL     OW 6802   0.706  14.798   0.862
68302SOL    HW1 6803   0.655  14.777   0.940
68302SOL    HW2 6804   0.661   0.001   0.823
68303SOL     OW 6805  11.202  13.817   8.718
68303SOL    HW1 6806  11.260  13.884   8.754
68303SOL    HW2 6807  11.123  13.864   8.693
68304SOL     OW 6808   6.549   4.448   8.815
68304SOL    HW1 6809   6.591   4.416   8.735
68304SOL    HW2 6810   6.621   4.456   8.877
68305SOL     OW 6811   8.349   0.400   5.787
68305SOL    HW1 6812   8.349   0.324   5.729
68305SOL    HW2 6813   8.335   0.475   5.729
68306SOL     OW 6814   1.240   8.901   9.996
68306SOL    HW1 6815   1.314   8.840   9.999
68306SOL    HW2 6816   1.169   8.851   9.955
68307SOL     OW 6817   6.271  10.753  13.041
68307SOL    HW1 6818   6.213  10.775  12.968
68307SOL    HW2 6819   6.221  10.692  13.094
68308SOL     OW 6820  11.790   1.937   1.536
68308SOL    HW1 6821  11.706   1.979   1.515
68308SOL    HW2 6822  11.795   1.862   1.477
68309SOL     OW 6823   3.267  11.036   5.406
68309SOL    HW1 6824   3.231  11.121   5.383
68309SOL    HW2 6825   3.362  11.047   5.397
68310SOL     OW 6826  12.238   3.134  12.831
68310SOL    HW1 6827  12.326   3.132  12.793
68310SOL    HW2 6828  12.248   3.181  12.914
68311SOL     OW 6829  10.747   8.250   5.575
68311SOL    HW1 6830  10.815   8.309   5.608
68311SOL    HW2 6831  10.795   8.176   5.539
68312SOL     OW 6832  13.117  14.327  10.877
68312SOL    HW1 6833  13.189  14.345  10.816
68312SOL    HW2 6834  13.094  14.236  10.859
68313SOL     OW 6835   1.650   5.029   2.888
68313SOL    HW1 6836   1.718   5.037   2.820
68313SOL    HW2 6837   1.612   5.116   2.894
68314SOL     OW 6838   0.499  12.333  10.293
68314SOL    HW1 6839   0.538  12.401  10.240
68314SOL    HW2 6840   0.404  12.348  10.286
68315SOL     OW 6841   1.618  10.590   1.836
68315SOL    HW1 6842   1.645  10.599   1.927
68315SOL    HW2 6843   1.645  10.672   1.795
68316SOL     OW 6844   8.558  13.634  13.684
68316SOL    HW1 6845   8.626  13.567  13.691
68316SOL    HW2 6846   8.581  13.698  13.751
68317SOL     OW 6847   6.399   8.033   5.288
68317SOL    HW1 6848   6.314   7.990   5.280
68317SOL    HW2 6849   6.463   7.961   5.286
68318SOL     OW 6850  14.626   0.314   5.694
68318SOL    HW1 6851  14.692   0.246   5.706
68318SOL    HW2 6852  14.563   0.275   5.632
68319SOL     OW 6853  10.621  14.220  11.770
68319SOL    HW1 6854  10.541  14.217  11.717
68319SOL    HW2 6855  10.670  14.294  11.736
68320SOL     OW 6856   9.581  13.280   0.188
68320SOL    HW1 6857   9.499  13.232   0.184
68320SOL    HW2 6858   9.649  13.212   0.188
68321SOL     OW 6859   2.688   8.364   0.259
68321SOL    HW1 6860   2.607   8.373   0.208
68321SOL    HW2 6861   2.659   8.348   0.348
68322SOL     OW 6862   0.012   5.759   4.956
68322SOL    HW1 6863   0.003   5.726   5.045
68322SOL    HW2 6864  14.799   5.743   4.915
68323SOL     OW 6865   1.824   3.060  11.799
68323SOL    HW1 6866   1.838   3.096  11.887
68323SOL    HW2 6867   1.870   2.976  11.800
68324SOL     OW 6868   2.638   1.910   1.579
68324SOL    HW1 6869   2.723   1.867   1.567
68324SOL    HW2 6870   2.578   1.838   1.596
68325SOL     OW 6871   9.523  10.963   1.894
68325SOL    HW1 6872   9.536  10.977   1.801
68325SOL    HW2 6873   9.496  10.872   1.902
68326SOL     OW 6874  14.019  12.245   3.929
68326SOL    HW1 6875  14.078  12.179   3.893
68326SOL    HW2 6876  14.074  12.293   3.992
68327SOL     OW 6877   4.822   6.435   0.799
68327SOL    HW1 6878   4.809   6.518   0.754
68327SOL    HW2 6879   4.851   6.375   0.730
68328SOL     OW 6880   9.900   3.740  12.035
68328SOL    HW1 6881   9.912   3.808  11.968
68328SOL    HW2 6882   9.971   3.678  12.019
68329SOL     OW 6883   6.372   4.738   0.808
68329SOL    HW1 6884   6.409   4.762   0.723
68329SOL    HW2 6885   6.283   4.772   0.806
68330SOL     OW 6886   6.530   3.975  12.282
68330SOL    HW1 6887   6.580   4.018  12.213
68330SOL    HW2 6888   6.525   4.040  12.352
68331SOL     OW 6889   8.870  10.294  11.715
68331SOL    HW1 6890   8.882  10.379  11.672
68331SOL    HW2 6891   8.781  10.297  11.750
68332SOL     OW 6892   3.869  12.833   9.578
68332SOL    HW1 6893   3.873  12.750   9.625
68332SOL    HW2 6894   3.960  12.854   9.557
68333SOL     OW 6895   1.111   8.214   0.051
68333SOL    HW1 6896   1.039   8.277   0.057
68333SOL    HW2 6897   1.129   8.191   0.142
68334SOL     OW 6898  12.181  13.421   3.746
68334SOL    HW1 6899  12.276  13.428   3.744
68334SOL    HW2 6900  12.156  13.442   3.835
68335SOL     OW 6901   3.157   4.997  14.461
68335SOL    HW1 6902   3.133   5.085  14.489
68335SOL    HW2 6903   3.131   4.993  14.369
68336SOL     OW 6904  12.751  12.340   1.210
68336SOL    HW1 6905  12.678  12.390   1.174
68336SOL    HW2 6906  12.819  12.405   1.226
68337SOL     OW 6907  12.198   8.235   8.865
68337SOL    HW1 6908  12.117   8.280   8.889
68337SOL    HW2 6909  12.265   8.276   8.919
68338SOL     OW 6910   8.739  14.129   4.138
68338SOL    HW1 6911   8.815  14.166   4.092
68338SOL    HW2 6912   8.663  14.167   4.093
68339SOL     OW 6913   6.330   7.214   0.055
68339SOL    HW1 6914   6.336   7.254   0.142
68339SOL    HW2 6915   6.317   7.287  14.867
68340SOL     OW 6916  11.574   2.455   9.584
68340SOL    HW1 6917  11.500   2.483   9.639
68340SOL    HW2 6918  11.573   2.360   9.589
68341SOL     OW 6919   2.972  12.610   4.018
68341SOL    HW1 6920   3.052  12.660   4.006
68341SOL    HW2 6921   2.998  12.536   4.074
68342SOL     OW 6922   9.987   9.561   5.930
68342SOL    HW1 6923   9.912   9.510   5.901
68342SOL    HW2 6924  10.029   9.507   5.997
68343SOL     OW 6925   1.338   7.015   9.157
68343SOL    HW1 6926   1.412   7.026   9.097
68343SOL    HW2 6927   1.280   7.088   9.135
68344SOL     OW 6928   8.929   8.923   6.434
68344SOL    HW1 6929   8.888   8.837   6.436
68344SOL    HW2 6930   8.891   8.966   6.357
68345SOL     OW 6931  12.657   4.380   7.444
68345SOL    HW1 6932  12.623   4.425   7.366
68345SOL    HW2 6933  12.751   4.394   7.440
68346SOL     OW 6934  14.266  12.176   7.811
68346SOL    HW1 6935  14.247  12.158   7.902
68346SOL    HW2 6936  14.305  12.096   7.777
68347SOL     OW 6937   5.175   9.922  10.139
68347SOL    HW1 6938   5.271   9.920  10.143
68347SOL    HW2 6939   5.152  10.013  10.157
68348SOL     OW 6940   6.762   2.196  11.893
68348SOL    HW1 6941   6.841   2.165  11.937
68348SOL    HW2 6942   6.722   2.117  11.855
68349SOL     OW 6943  12.388   6.197   6.048
68349SOL    HW1 6944  12.433   6.280   6.031
68349SOL    HW2 6945  12.410   6.176   6.139
68350SOL     OW 6946  10.417  14.114   4.543
68350SOL    HW1 6947  10.423  14.178   4.614
68350SOL    HW2 6948  10.468  14.039   4.574
68351SOL     OW 6949   3.467   7.731  11.670
68351SOL    HW1 6950   3.396   7.784  11.635
68351SOL    HW2 6951   3.547   7.777  11.643
68352SOL     OW 6952  11.423   4.984   2.282
68352SOL    HW1 6953  11.388   4.909   2.330
68352SOL    HW2 6954  11.502   5.008   2.330
68353SOL     OW 6955   4.314   2.261   3.208
68353SOL    HW1 6956   4.301   2.345   3.253
68353SOL    HW2 6957   4.356   2.205   3.273
68354SOL     OW 6958  11.095  12.862   4.984
68354SOL    HW1 6959  11.139  12.911   5.052
68354SOL    HW2 6960  11.007  12.900   4.979
68355SOL     OW 6961   6.622   1.125  13.140
68355SOL    HW1 6962   6.616   1.217  13.115
68355SOL    HW2 6963   6.577   1.120  13.225
68356SOL     OW 6964   9.973  12.582   2.703
68356SOL    HW1 6965   9.984  12.675   2.724
68356SOL    HW2 6966  10.017  12.536   2.774
68357SOL     OW 6967  12.102  11.626   5.655
68357SOL    HW1 6968  12.143  11.545   5.626
68357SOL    HW2 6969  12.174  11.688   5.663
68358SOL     OW 6970   4.785   7.367   6.503
68358SOL    HW1 6971   4.807   7.444   6.449
68358SOL    HW2 6972   4.726   7.316   6.448
68359SOL     OW 6973   4.943   6.717  10.044
68359SOL    HW1 6974   5.027   6.756  10.070
68359SOL    HW2 6975   4.923   6.758   9.960
68360SOL     OW 6976   7.886  13.025  12.985
68360SOL    HW1 6977   7.921  13.103  12.942
68360SOL    HW2 6978   7.828  13.058  13.053
68361SOL     OW 6979   8.616   0.158   6.996
68361SOL    HW1 6980   8.589   0.082   7.048
68361SOL    HW2 6981   8.689   0.195   7.046
68362SOL     OW 6982  12.423   8.171   1.995
68362SOL    HW1 6983  12.462   8.247   2.039
68362SOL    HW2 6984  12.454   8.178   1.905
68363SOL     OW 6985   1.336   3.251  14.616
68363SOL    HW1 6986   1.392   3.319  14.652
68363SOL    HW2 6987   1.338   3.266  14.521
68364SOL     OW 6988  12.930  11.707  12.591
68364SOL    HW1 6989  12.925  11.760  12.511
68364SOL    HW2 6990  12.991  11.636  12.569
68365SOL     OW 6991   8.192   2.203   6.731
68365SOL    HW1 6992   8.192   2.204   6.826
68365SOL    HW2 6993   8.191   2.110   6.707
68366SOL     OW 6994  10.955  14.006   3.387
68366SOL    HW1 6995  11.038  13.973   3.352
68366SOL    HW2 6996  10.949  13.969   3.475
68367SOL     OW 6997  11.503  11.101   4.122
68367SOL    HW1 6998  11.484  11.195   4.127
68367SOL    HW2 6999  11.527  11.077   4.212
68368SOL     OW 7000  10.253  11.678  10.585
68368SOL    HW1 7001  10.301  11.687  10.667
68368SOL    HW2 7002  10.316  11.642  10.523
68369SOL     OW 7003  13.522   2.756  10.823
68369SOL    HW1 7004  13.570   2.803  10.891
68369SOL    HW2 7005  13.493   2.825  10.763
68370SOL     OW 7006  13.686   5.942   8.338
68370SOL    HW1 7007  13.631   5.897   8.401
68370SOL    HW2 7008  13.625   5.988   8.280
68371SOL     OW 7009   1.991   7.744  10.244
68371SOL    HW1 7010   2.082   7.730  10.272
68371SOL    HW2 7011   1.939   7.718  10.320
68372SOL     OW 7012   3.583   9.672   2.430
68372SOL    HW1 7013   3.550   9.623   2.354
68372SOL    HW2 7014   3.610   9.605   2.492
68373SOL     OW 7015  11.450  13.021   5.372
68373SOL    HW1 7016  11.478  13.010   5.281
68373SOL    HW2 7017  11.505  12.959   5.421
68374SOL     OW 7018  12.975   3.963   1.424
68374SOL    HW1 7019  12.948   4.038   1.477
68374SOL    HW2 7020  13.071   3.968   1.422
68375SOL     OW 7021   3.582   6.386   5.955
68375SOL    HW1 7022   3.636   6.389   6.034
68375SOL    HW2 7023   3.494   6.409   5.985
68376SOL     OW 7024   8.947   1.200   4.420
68376SOL    HW1 7025   9.018   1.139   4.399
68376SOL    HW2 7026   8.975   1.283   4.384
68377SOL     OW 7027   7.501  13.679   4.753
68377SOL    HW1 7028   7.543  13.637   4.679
68377SOL    HW2 7029   7.563  13.669   4.826
68378SOL     OW 7030   7.896   9.458  12.040
68378SOL    HW1 7031   7.892   9.369  12.074
68378SOL    HW2 7032   7.856   9.453  11.953
68379SOL     OW 7033  12.789   8.564   7.882
68379SOL    HW1 7034  12.731   8.579   7.807
68379SOL    HW2 7035  12.761   8.480   7.917
68380SOL     OW 7036  10.280   2.728  12.162
68380SOL    HW1 7037  10.318   2.650  12.203
68380SOL    HW2 7038  10.282   2.794  12.231
68381SOL     OW 7039  10.442   2.362   0.165
68381SOL    HW1 7040  10.526   2.344   0.122
68381SOL    HW2 7041  10.465   2.386   0.255
68382SOL     OW 7042   4.659   3.916   0.858
68382SOL    HW1 7043   4.754   3.912   0.847
68382SOL    HW2 7044   4.647   3.960   0.943
68383SOL     OW 7045   7.830   9.623   9.135
68383SOL    HW1 7046   7.764   9.628   9.204
68383SOL    HW2 7047   7.794   9.561   9.072
68384SOL     OW 7048   6.790   5.117   2.117
68384SOL    HW1 7049   6.717   5.154   2.166
68384SOL    HW2 7050   6.754   5.037   2.079
68385SOL     OW 7051   9.244   5.549   9.350
68385SOL    HW1 7052   9.251   5.454   9.360
68385SOL    HW2 7053   9.277   5.567   9.262
68386SOL     OW 7054  14.740  13.812   2.002
68386SOL    HW1 7055  14.741  13.751   2.076
68386SOL    HW2 7056  14.741  13.755   1.925
68387SOL     OW 7057  12.357   0.911  11.073
68387SOL    HW1 7058  12.272   0.932  11.111
68387SOL    HW2 7059  12.346   0.929  10.979
68388SOL     OW 7060  10.507   7.474   7.269
68388SOL    HW1 7061  10.507   7.501   7.177
68388SOL    HW2 7062  10.596   7.442   7.285
68389SOL     OW 7063   9.289  13.503   5.112
68389SOL    HW1 7064   9.207  13.460   5.086
68389SOL    HW2 7065   9.290  13.585   5.062
68390SOL     OW 7066   3.216  14.808   9.067
68390SOL    HW1 7067   3.256   0.023   9.059
68390SOL    HW2 7068   3.178  14.807   9.155
68391SOL     OW 7069   2.438   8.797   8.095
68391SOL    HW1 7070   2.344   8.798   8.111
68391SOL    HW2 7071   2.463   8.706   8.110
68392SOL     OW 7072   3.228   9.425   6.843
68392SOL    HW1 7073   3.143   9.462   6.817
68392SOL    HW2 7074   3.226   9.423   6.938
68393SOL     OW 7075   9.770   9.360  12.909
68393SOL    HW1 7076   9.703   9.370  12.976
68393SOL    HW2 7077   9.752   9.275  12.869
68394SOL     OW 7078   1.812   4.557   4.545
68394SOL    HW1 7079   1.750   4.531   4.613
68394SOL    HW2 7080   1.757   4.589   4.473
68395SOL     OW 7081  12.102  14.741   7.560
68395SOL    HW1 7082  12.117  14.755   7.654
68395SOL    HW2 7083  12.186  14.713   7.526
68396SOL     OW 7084  11.956   8.632   0.951
68396SOL    HW1 7085  11.870   8.590   0.951
68396SOL    HW2 7086  11.941   8.716   0.907
68397SOL     OW 7087  12.544   8.847   0.716
68397SOL    HW1 7088  12.483   8.886   0.777
68397SOL    HW2 7089  12.525   8.889   0.632
68398SOL     OW 7090   3.284   8.758  10.957
68398SOL    HW1 7091   3.272   8.681  11.013
68398SOL    HW2 7092   3.324   8.725  10.877
68399SOL     OW 7093   2.333   6.829  13.145
68399SOL    HW1 7094   2.389   6.815  13.222
68399SOL    HW2 7095   2.382   6.790  13.073
68400SOL     OW 7096   0.176   6.095   5.938
68400SOL    HW1 7097   0.115   6.168   5.945
68400SOL    HW2 7098   0.129   6.020   5.975
68401SOL     OW 7099   1.127   7.880   3.193
68401SOL    HW1 7100   1.123   7.973   3.217
68401SOL    HW2 7101   1.044   7.844   3.221
68402SOL     OW 7102   0.602   2.851   9.050
68402SOL    HW1 7103   0.553   2.799   9.114
68402SOL    HW2 7104   0.595   2.803   8.968
68403SOL     OW 7105   5.144   5.321   4.617
68403SOL    HW1 7106   5.133   5.344   4.709
68403SOL    HW2 7107   5.234   5.289   4.610
68404SOL     OW 7108   5.362   4.290   2.558
68404SOL    HW1 7109   5.298   4.361   2.562
68404SOL    HW2 7110   5.318   4.216   2.600
68405SOL     OW 7111   0.265   9.320   2.570
68405SOL    HW1 7112   0.350   9.284   2.596
68405SOL    HW2 7113   0.282   9.365   2.487
68406SOL     OW 7114   5.497   3.410   5.171
68406SOL    HW1 7115   5.549   3.351   5.225
68406SOL    HW2 7116   5.427   3.440   5.229
68407SOL     OW 7117   3.112  14.057  12.518
68407SOL    HW1 7118   3.170  14.003  12.571
68407SOL    HW2 7119   3.028  14.055  12.563
68408SOL     OW 7120   5.943   1.644   4.025
68408SOL    HW1 7121   5.901   1.680   4.103
68408SOL    HW2 7122   5.886   1.573   3.998
68409SOL     OW 7123  11.539   2.999   4.542
68409SOL    HW1 7124  11.582   2.921   4.508
68409SOL    HW2 7125  11.490   2.968   4.619
68410SOL     OW 7126   6.878   4.062  14.702
68410SOL    HW1 7127   6.868   4.117  14.624
68410SOL    HW2 7128   6.895   4.124  14.773
68411SOL     OW 7129  12.042   1.975   7.176
68411SOL    HW1 7130  12.052   1.955   7.083
68411SOL    HW2 7131  12.095   1.909   7.221
68412SOL     OW 7132  13.883   0.251   7.794
68412SOL    HW1 7133  13.918   0.222   7.878
68412SOL    HW2 7134  13.952   0.306   7.757
68413SOL     OW 7135  10.327   1.659   1.299
68413SOL    HW1 7136  10.292   1.689   1.216
68413SOL    HW2 7137  10.415   1.697   1.303
68414SOL     OW 7138   0.274   9.439   9.061
68414SOL    HW1 7139   0.309   9.400   9.141
68414SOL    HW2 7140   0.182   9.414   9.060
68415SOL     OW 7141  14.668  11.410   4.991
68415SOL    HW1 7142  14.613  11.455   4.927
68415SOL    HW2 7143  14.744  11.467   5.002
68416SOL     OW 7144   6.874   1.264   8.999
68416SOL    HW1 7145   6.858   1.281   9.092
68416SOL    HW2 7146   6.937   1.191   8.998
68417SOL     OW 7147   8.509   1.551  14.591
68417SOL    HW1 7148   8.600   1.562  14.617
68417SOL    HW2 7149   8.495   1.456  14.591
68418SOL     OW 7150   0.393  10.974  11.464
68418SOL    HW1 7151   0.453  10.935  11.401
68418SOL    HW2 7152   0.351  11.046  11.417
68419SOL     OW 7153  10.298  10.776   7.138
68419SOL    HW1 7154  10.322  10.688   7.169
68419SOL    HW2 7155  10.380  10.826   7.142
68420SOL     OW 7156   3.588   7.237   3.822
68420SOL    HW1 7157   3.512   7.218   3.766
68420SOL    HW2 7158   3.623   7.319   3.788
68421SOL     OW 7159   7.474   5.040   0.508
68421SOL    HW1 7160   7.519   4.959   0.486
68421SOL    HW2 7161   7.545   5.103   0.525
68422SOL     OW 7162   6.872   5.526  14.588
68422SOL    HW1 7163   6.911   5.448  14.549
68422SOL    HW2 7164   6.799   5.492  14.640
68423SOL     OW 7165   1.155   5.548   7.521
68423SOL    HW1 7166   1.177   5.639   7.501
68423SOL    HW2 7167   1.240   5.504   7.529
68424SOL     OW 7168  11.928   6.281   1.677
68424SOL    HW1 7169  11.927   6.289   1.582
68424SOL    HW2 7170  11.903   6.368   1.709
68425SOL     OW 7171   9.340  12.887   2.445
68425SOL    HW1 7172   9.280  12.846   2.507
68425SOL    HW2 7173   9.402  12.934   2.500
68426SOL     OW 7174   9.732   9.120   9.632
68426SOL    HW1 7175   9.787   9.087   9.703
68426SOL    HW2 7176   9.642   9.110   9.664
68427SOL     OW 7177   2.802  14.321  10.541
68427SOL    HW1 7178   2.729  14.299  10.598
68427SOL    HW2 7179   2.857  14.243  10.541
68428SOL     OW 7180   3.211   5.749  13.671
68428SOL    HW1 7181   3.255   5.834  13.661
68428SOL    HW2 7182   3.220   5.728  13.764
68429SOL     OW 7183   0.845  13.578   6.756
68429SOL    HW1 7184   0.937  13.599   6.744
68429SOL    HW2 7185   0.813  13.558   6.668
68430SOL     OW 7186   9.567  12.843  13.561
68430SOL    HW1 7187   9.623  12.789  13.506
68430SOL    HW2 7188   9.620  12.859  13.640
68431SOL     OW 7189   2.362   4.282   0.042
68431SOL    HW1 7190   2.419   4.309   0.114
68431SOL    HW2 7191   2.391   4.336  14.839
68432SOL     OW 7192   9.217   6.905   1.651
68432SOL    HW1 7193   9.127   6.886   1.624
68432SOL    HW2 7194   9.267   6.828   1.625
68433SOL     OW 7195   3.349   3.139  12.222
68433SOL    HW1 7196   3.400   3.217  12.201
68433SOL    HW2 7197   3.262   3.156  12.185
68434SOL     OW 7198   2.407   2.874   8.976
68434SOL    HW1 7199   2.438   2.860   8.887
68434SOL    HW2 7200   2.313   2.855   8.972
68435SOL     OW 7201   3.235   7.099   2.425
68435SOL    HW1 7202   3.303   7.119   2.360
68435SOL    HW2 7203   3.154   7.130   2.385
68436SOL     OW 7204  11.876   0.255   5.399
68436SOL    HW1 7205  11.951   0.196   5.394
68436SOL    HW2 7206  11.811   0.216   5.341
68437SOL     OW 7207   8.320   3.806  13.649
68437SOL    HW1 7208   8.228   3.821  13.629
68437SOL    HW2 7209   8.320   3.746  13.723
68438SOL     OW 7210   0.242   5.790  12.784
68438SOL    HW1 7211   0.235   5.862  12.847
68438SOL    HW2 7212   0.160   5.742  12.793
68439SOL     OW 7213  14.455   7.447   6.448
68439SOL    HW1 7214  14.493   7.359   6.445
68439SOL    HW2 7215  14.393   7.449   6.375
68440SOL     OW 7216  11.350   3.103  10.940
68440SOL    HW1 7217  11.430   3.147  10.910
68440SOL    HW2 7218  11.305   3.077  10.859
68441SOL     OW 7219   4.450   5.727   6.611
68441SOL    HW1 7220   4.519   5.740   6.546
68441SOL    HW2 7221   4.369   5.731   6.561
68442SOL     OW 7222   4.599  14.346   0.759
68442SOL    HW1 7223   4.623  14.294   0.682
68442SOL    HW2 7224   4.571  14.430   0.722
68443SOL     OW 7225  10.677   7.072   1.882
68443SOL    HW1 7226  10.726   7.040   1.806
68443SOL    HW2 7227  10.739   7.127   1.930
68444SOL     OW 7228   7.781   2.875  14.605
68444SOL    HW1 7229   7.735   2.796  14.635
68444SOL    HW2 7230   7.777   2.869  14.510
68445SOL     OW 7231   2.730  13.770  12.009
68445SOL    HW1 7232   2.696  13.739  11.925
68445SOL    HW2 7233   2.652  13.799  12.057
68446SOL     OW 7234   7.774  12.382   3.946
68446SOL    HW1 7235   7.864  12.354   3.958
68446SOL    HW2 7236   7.749  12.419   4.031
68447SOL     OW 7237   5.967  10.924   7.185
68447SOL    HW1 7238   5.948  11.010   7.148
68447SOL    HW2 7239   5.915  10.920   7.265
68448SOL     OW 7240  11.946   2.117  11.162
68448SOL    HW1 7241  11.963   2.023  11.166
68448SOL    HW2 7242  11.964   2.140  11.071
68449SOL     OW 7243  14.472   0.635   7.363
68449SOL    HW1 7244  14.473   0.707   7.299
68449SOL    HW2 7245  14.403   0.660   7.425
68450SOL     OW 7246   2.412  10.493  11.320
68450SOL    HW1 7247   2.325  10.475  11.357
68450SOL    HW2 7248   2.472  10.440  11.373
68451SOL     OW 7249  10.419  14.534   0.787
68451SOL    HW1 7250  10.370  14.616   0.776
68451SOL    HW2 7251  10.473  14.528   0.708
68452SOL     OW 7252  11.656   3.293   2.019
68452SOL    HW1 7253  11.682   3.354   2.088
68452SOL    HW2 7254  11.651   3.208   2.062
68453SOL     OW 7255   8.323   4.956  14.076
68453SOL    HW1 7256   8.357   5.034  14.033
68453SOL    HW2 7257   8.273   4.911  14.008
68454SOL     OW 7258   2.369   9.311   5.131
68454SOL    HW1 7259   2.415   9.263   5.199
68454SOL    HW2 7260   2.374   9.255   5.054
68455SOL     OW 7261  12.845   3.026  10.086
68455SOL    HW1 7262  12.905   3.022  10.160
68455SOL    HW2 7263  12.790   3.102  10.104
68456SOL     OW 7264   1.438  13.775   5.738
68456SOL    HW1 7265   1.399  13.753   5.822
68456SOL    HW2 7266   1.503  13.842   5.758
68457SOL     OW 7267   4.141  11.254  12.366
68457SOL    HW1 7268   4.070  11.318  12.364
68457SOL    HW2 7269   4.129  11.204  12.285
68458SOL     OW 7270   4.479   5.207   8.310
68458SOL    HW1 7271   4.531   5.189   8.231
68458SOL    HW2 7272   4.541   5.249   8.370
68459SOL     OW 7273   0.912  13.152   5.619
68459SOL    HW1 7274   0.842  13.154   5.685
68459SOL    HW2 7275   0.877  13.203   5.546
68460SOL     OW 7276  10.663   2.941  10.582
68460SOL    HW1 7277  10.730   2.947  10.650
68460SOL    HW2 7278  10.649   2.847  10.571
68461SOL     OW 7279   9.311  13.599  12.009
68461SOL    HW1 7280   9.233  13.624  11.960
68461SOL    HW2 7281   9.328  13.509  11.983
68462SOL     OW 7282   0.501   6.093  10.805
68462SOL    HW1 7283   0.591   6.126  10.809
68462SOL    HW2 7284   0.511   5.999  10.792
68463SOL     OW 7285   6.225   5.163  13.054
68463SOL    HW1 7286   6.261   5.120  12.977
68463SOL    HW2 7287   6.142   5.201  13.025
68464SOL     OW 7288   9.851   6.471  11.656
68464SOL    HW1 7289   9.802   6.523  11.592
68464SOL    HW2 7290   9.895   6.404  11.604
68465SOL     OW 7291   3.063   3.856   3.131
68465SOL    HW1 7292   3.108   3.932   3.169
68465SOL    HW2 7293   2.986   3.843   3.187
68466SOL     OW 7294  10.563   7.635   4.344
68466SOL    HW1 7295  10.564   7.728   4.369
68466SOL    HW2 7296  10.642   7.599   4.384
68467SOL     OW 7297   3.633  11.310   8.566
68467SOL    HW1 7298   3.630  11.282   8.475
68467SOL    HW2 7299   3.721  11.345   8.578
68468SOL     OW 7300   0.853   0.435  13.082
68468SOL    HW1 7301   0.937   0.394  13.103
68468SOL    HW2 7302   0.876   0.521  13.048
68469SOL     OW 7303  13.431  10.307  10.800
68469SOL    HW1 7304  13.434  10.350  10.714
68469SOL    HW2 7305  13.403  10.217  10.781
68470SOL     OW 7306  11.492   6.212   1.722
68470SOL    HW1 7307  11.442   6.166   1.790
68470SOL    HW2 7308  11.558   6.262   1.770
68471SOL     OW 7309   4.623   9.686   7.706
68471SOL    HW1 7310   4.716   9.680   7.730
68471SOL    HW2 7311   4.623   9.730   7.621
68472SOL     OW 7312  13.687   9.659   5.938
68472SOL    HW1 7313  13.716   9.749   5.923
68472SOL    HW2 7314  13.701   9.645   6.031
68473SOL     OW 7315   6.014   6.277  12.301
68473SOL    HW1 7316   6.027   6.365  12.267
68473SOL    HW2 7317   6.007   6.289  12.396
68474SOL     OW 7318   5.644   8.576   7.650
68474SOL    HW1 7319   5.700   8.550   7.723
68474SOL    HW2 7320   5.591   8.648   7.684
68475SOL     OW 7321  11.008   1.577   0.433
68475SOL    HW1 7322  11.030   1.658   0.387
68475SOL    HW2 7323  10.914   1.565   0.417
68476SOL     OW 7324  14.328   7.917  10.411
68476SOL    HW1 7325  14.296   7.921  10.501
68476SOL    HW2 7326  14.262   7.865  10.365
68477SOL     OW 7327  11.273  14.148   6.610
68477SOL    HW1 7328  11.238  14.164   6.697
68477SOL    HW2 7329  11.327  14.069   6.619
68478SOL     OW 7330   5.123  10.545   9.935
68478SOL    HW1 7331   5.082  10.472   9.890
68478SOL    HW2 7332   5.082  10.623   9.897
68479SOL     OW 7333   5.115   1.629   4.249
68479SOL    HW1 7334   5.126   1.684   4.172
68479SOL    HW2 7335   5.127   1.688   4.323
68480SOL     OW 7336   3.194  11.425   6.476
68480SOL    HW1 7337   3.166  11.494   6.417
68480SOL    HW2 7338   3.197  11.467   6.562
68481SOL     OW 7339   1.884   3.921   9.011
68481SOL    HW1 7340   1.874   4.017   9.013
68481SOL    HW2 7341   1.872   3.894   9.103
68482SOL     OW 7342   5.801  12.004  12.930
68482SOL    HW1 7343   5.790  12.049  12.846
68482SOL    HW2 7344   5.893  12.018  12.953
68483SOL     OW 7345   5.170   0.303  13.646
68483SOL    HW1 7346   5.120   0.294  13.727
68483SOL    HW2 7347   5.105   0.326  13.580
68484SOL     OW 7348  10.620   0.903   4.991
68484SOL    HW1 7349  10.620   0.807   4.994
68484SOL    HW2 7350  10.529   0.926   4.973
68485SOL     OW 7351   8.194   2.623  14.266
68485SOL    HW1 7352   8.132   2.551  14.273
68485SOL    HW2 7353   8.170   2.682  14.337
68486SOL     OW 7354  10.913   4.537   1.223
68486SOL    HW1 7355  10.843   4.499   1.276
68486SOL    HW2 7356  10.974   4.573   1.287
68487SOL     OW 7357   7.545   4.686  14.124
68487SOL    HW1 7358   7.544   4.772  14.165
68487SOL    HW2 7359   7.457   4.676  14.088
68488SOL     OW 7360   4.152  14.097   4.483
68488SOL    HW1 7361   4.180  14.077   4.394
68488SOL    HW2 7362   4.212  14.166   4.512
68489SOL     OW 7363   7.125   2.083  14.212
68489SOL    HW1 7364   7.152   2.119  14.127
68489SOL    HW2 7365   7.139   1.989  14.203
68490SOL     OW 7366  12.808  10.910  12.004
68490SOL    HW1 7367  12.853  10.829  12.026
68490SOL    HW2 7368  12.877  10.970  11.979
68491SOL     OW 7369   2.200   8.567   5.601
68491SOL    HW1 7370   2.189   8.659   5.580
68491SOL    HW2 7371   2.293   8.550   5.587
68492SOL     OW 7372   4.671   5.819   8.499
68492SOL    HW1 7373   4.721   5.737   8.500
68492SOL    HW2 7374   4.737   5.886   8.479
68493SOL     OW 7375  12.164   3.773  10.531
68493SOL    HW1 7376  12.254   3.756  10.560
68493SOL    HW2 7377  12.152   3.867  10.544
68494SOL     OW 7378   5.685  13.388  12.548
68494SOL    HW1 7379   5.604  13.438  12.549
68494SOL    HW2 7380   5.702  13.368  12.640
68495SOL     OW 7381   5.392   9.387   7.373
68495SOL    HW1 7382   5.354   9.328   7.308
68495SOL    HW2 7383   5.481   9.355   7.386
68496SOL     OW 7384   6.119   6.627   8.882
68496SOL    HW1 7385   6.173   6.647   8.806
68496SOL    HW2 7386   6.034   6.602   8.845
68497SOL     OW 7387   4.100   4.769   3.308
68497SOL    HW1 7388   4.097   4.857   3.268
68497SOL    HW2 7389   4.041   4.717   3.253
68498SOL     OW 7390   2.752   7.956   2.165
68498SOL    HW1 7391   2.833   7.925   2.206
68498SOL    HW2 7392   2.700   7.991   2.238
68499SOL     OW 7393   6.686  11.041   9.885
68499SOL    HW1 7394   6.598  11.002   9.891
68499SOL    HW2 7395   6.691  11.076   9.797
68500SOL     OW 7396   4.373  13.125  14.712
68500SOL    HW1 7397   4.292  13.083  14.682
68500SOL    HW2 7398   4.443  13.069  14.681
68501SOL     OW 7399  12.183   7.909   0.014
68501SOL    HW1 7400  12.268   7.923  14.843
68501SOL    HW2 7401  12.182   7.972   0.086
68502SOL     OW 7402  14.194   9.568  13.342
68502SOL    HW1 7403  14.216   9.651  13.386
68502SOL    HW2 7404  14.261   9.507  13.372
68503SOL     OW 7405  11.009   7.391  14.212
68503SOL    HW1 7406  10.959   7.342  14.147
68503SOL    HW2 7407  10.996   7.343  14.294
68504SOL     OW 7408   5.887   1.977  12.407
68504SOL    HW1 7409   5.968   2.021  12.432
68504SOL    HW2 7410   5.819   2.018  12.461
68505SOL     OW 7411  14.066   5.860   9.217
68505SOL    HW1 7412  14.063   5.802   9.141
68505SOL    HW2 7413  13.974   5.879   9.236
68506SOL     OW 7414   8.654   2.450   2.232
68506SOL    HW1 7415   8.697   2.474   2.150
68506SOL    HW2 7416   8.564   2.428   2.207
68507SOL     OW 7417   6.932  13.186  12.476
68507SOL    HW1 7418   6.879  13.252  12.433
68507SOL    HW2 7419   6.979  13.142  12.405
68508SOL     OW 7420  10.982   0.851   7.409
68508SOL    HW1 7421  10.987   0.841   7.504
68508SOL    HW2 7422  10.955   0.942   7.396
68509SOL     OW 7423  12.814   5.670  14.507
68509SOL    HW1 7424  12.720   5.688  14.506
68509SOL    HW2 7425  12.822   5.587  14.555
68510SOL     OW 7426   3.903  10.146   1.476
68510SOL    HW1 7427   3.998  10.142   1.492
68510SOL    HW2 7428   3.867  10.077   1.531
68511SOL     OW 7429   0.888   1.403   4.419
68511SOL    HW1 7430   0.818   1.353   4.460
68511SOL    HW2 7431   0.969   1.364   4.453
68512SOL     OW 7432  11.275   2.682  14.608
68512SOL    HW1 7433  11.222   2.731  14.670
68512SOL    HW2 7434  11.338   2.634  14.662
68513SOL     OW 7435   1.596  13.723   6.110
68513SOL    HW1 7436   1.514  13.771   6.127
68513SOL    HW2 7437   1.654  13.789   6.072
68514SOL     OW 7438  10.712  11.045   5.775
68514SOL    HW1 7439  10.685  11.083   5.858
68514SOL    HW2 7440  10.737  10.956   5.797
68515SOL     OW 7441   5.518   0.087   8.298
68515SOL    HW1 7442   5.577   0.012   8.301
68515SOL    HW2 7443   5.526   0.128   8.384
68516SOL     OW 7444   8.623  10.276  13.536
68516SOL    HW1 7445   8.703  10.259  13.586
68516SOL    HW2 7446   8.605  10.369  13.550
68517SOL     OW 7447   0.872   0.601   9.228
68517SOL    HW1 7448   0.889   0.581   9.136
68517SOL    HW2 7449   0.924   0.537   9.276
68518SOL     OW 7450   5.210   2.118   8.727
68518SOL    HW1 7451   5.210   2.159   8.640
68518SOL    HW2 7452   5.238   2.028   8.710
68519SOL     OW 7453   1.467   4.814  10.981
68519SOL    HW1 7454   1.554   4.839  10.953
68519SOL    HW2 7455   1.425   4.781  10.901
68520SOL     OW 7456  11.485  14.366   6.599
68520SOL    HW1 7457  11.395  14.382   6.627
68520SOL    HW2 7458  11.486  14.273   6.576
68521SOL     OW 7459   4.723   5.252   6.734
68521SOL    HW1 7460   4.758   5.238   6.822
68521SOL    HW2 7461   4.719   5.164   6.696
68522SOL     OW 7462   3.124  10.131   5.579
68522SOL    HW1 7463   3.182  10.120   5.655
68522SOL    HW2 7464   3.067  10.203   5.603
68523SOL     OW 7465   0.464  12.069  12.738
68523SOL    HW1 7466   0.492  12.086  12.648
68523SOL    HW2 7467   0.544  12.044  12.784
68524SOL     OW 7468  12.861   4.067   3.335
68524SOL    HW1 7469  12.954   4.044   3.341
68524SOL    HW2 7470  12.854   4.150   3.383
68525SOL     OW 7471   4.414   2.814  12.449
68525SOL    HW1 7472   4.500   2.816  12.405
68525SOL    HW2 7473   4.357   2.865  12.391
68526SOL     OW 7474   1.087   0.900   8.889
68526SOL    HW1 7475   1.155   0.849   8.845
68526SOL    HW2 7476   1.110   0.991   8.870
68527SOL     OW 7477   2.721  11.821  14.741
68527SOL    HW1 7478   2.815  11.838  14.732
68527SOL    HW2 7479   2.680  11.893  14.694
68528SOL     OW 7480   2.583  13.435  12.287
68528SOL    HW1 7481   2.646  13.476  12.346
68528SOL    HW2 7482   2.498  13.457  12.324
68529SOL     OW 7483   7.148   9.893  13.501
68529SOL    HW1 7484   7.239   9.865  13.517
68529SOL    HW2 7485   7.117   9.925  13.586
68530SOL     OW 7486  10.265  12.934   8.371
68530SOL    HW1 7487  10.347  12.977   8.346
68530SOL    HW2 7488  10.277  12.910   8.463
68531SOL     OW 7489   6.125   0.700   3.493
68531SOL    HW1 7490   6.030   0.711   3.485
68531SOL    HW2 7491   6.141   0.612   3.459
68532SOL     OW 7492   4.837  14.447   3.478
68532SOL    HW1 7493   4.804  14.357   3.473
68532SOL    HW2 7494   4.781  14.497   3.419
68533SOL     OW 7495  11.739   3.364   6.242
68533SOL    HW1 7496  11.793   3.288   6.261
68533SOL    HW2 7497  11.788   3.411   6.174
68534SOL     OW 7498  13.175   7.074   4.087
68534SOL    HW1 7499  13.247   7.023   4.125
68534SOL    HW2 7500  13.217   7.152   4.052
68535SOL     OW 7501   9.672  11.752  12.472
68535SOL    HW1 7502   9.645  11.744  12.563
68535SOL    HW2 7503   9.734  11.681  12.459
68536SOL     OW 7504   9.262  14.590   9.582
68536SOL    HW1 7505   9.187  14.621   9.633
68536SOL    HW2 7506   9.227  14.573   9.495
68537SOL     OW 7507   5.213   6.187  13.514
68537SOL    HW1 7508   5.117   6.183  13.511
68537SOL    HW2 7509   5.238   6.122  13.580
68538SOL     OW 7510  12.880   8.077   9.962
68538SOL    HW1 7511  12.961   8.121   9.989
68538SOL    HW2 7512  12.899   8.047   9.873
68539SOL     OW 7513  11.643   4.394  13.084
68539SOL    HW1 7514  11.587   4.455  13.131
68539SOL    HW2 7515  11.604   4.308  13.101
68540SOL     OW 7516   1.525   9.816   5.776
68540SOL    HW1 7517   1.498   9.907   5.764
68540SOL    HW2 7518   1.579   9.796   5.699
68541SOL     OW 7519   1.621   0.539  12.758
68541SOL    HW1 7520   1.633   0.508  12.847
68541SOL    HW2 7521   1.652   0.467  12.703
68542SOL     OW 7522   3.050  10.963   7.879
68542SOL    HW1 7523   3.132  10.916   7.864
68542SOL    HW2 7524   3.019  10.986   7.791
68543SOL     OW 7525   6.067  13.785   3.759
68543SOL    HW1 7526   6.006  13.721   3.722
68543SOL    HW2 7527   6.078  13.758   3.850
68544SOL     OW 7528  13.988   8.036   7.247
68544SOL    HW1 7529  13.994   7.950   7.289
68544SOL    HW2 7530  13.922   8.083   7.298
68545SOL     OW 7531  14.770   8.918   2.396
68545SOL    HW1 7532  14.850   8.920   2.449
68545SOL    HW2 7533  14.706   8.966   2.447
68546SOL     OW 7534   7.243  10.210   3.971
68546SOL    HW1 7535   7.234  10.269   4.046
68546SOL    HW2 7536   7.156  10.170   3.961
68547SOL     OW 7537   7.389   4.283  11.813
68547SOL    HW1 7538   7.310   4.337  11.807
68547SOL    HW2 7539   7.416   4.292  11.905
68548SOL     OW 7540   2.263   8.651   7.208
68548SOL    HW1 7541   2.219   8.736   7.198
68548SOL    HW2 7542   2.283   8.646   7.301
68549SOL     OW 7543   8.730   1.985  12.981
68549SOL    HW1 7544   8.635   1.992  12.975
68549SOL    HW2 7545   8.763   2.064  12.938
68550SOL     OW 7546  11.652  12.026  11.957
68550SOL    HW1 7547  11.742  12.019  11.924
68550SOL    HW2 7548  11.647  11.959  12.025
68551SOL     OW 7549  14.652   5.602   4.524
68551SOL    HW1 7550  14.727   5.588   4.582
68551SOL    HW2 7551  14.589   5.650   4.578
68552SOL     OW 7552   3.383   4.240   9.902
68552SOL    HW1 7553   3.384   4.288   9.985
68552SOL    HW2 7554   3.303   4.187   9.906
68553SOL     OW 7555   3.487   1.378   9.114
68553SOL    HW1 7556   3.475   1.470   9.137
68553SOL    HW2 7557   3.489   1.333   9.198
68554SOL     OW 7558   2.934   1.468   9.425
68554SOL    HW1 7559   2.902   1.542   9.373
68554SOL    HW2 7560   3.027   1.463   9.404
68555SOL     OW 7561   0.712   6.180   9.950
68555SOL    HW1 7562   0.734   6.273   9.956
68555SOL    HW2 7563   0.784   6.136   9.995
68556SOL     OW 7564  10.491   6.472   2.878
68556SOL    HW1 7565  10.493   6.379   2.855
68556SOL    HW2 7566  10.464   6.473   2.970
68557SOL     OW 7567   9.716  10.703  12.729
68557SOL    HW1 7568   9.777  10.700  12.655
68557SOL    HW2 7569   9.768  10.673  12.803
68558SOL     OW 7570  10.927  11.599   9.425
68558SOL    HW1 7571  11.010  11.578   9.383
68558SOL    HW2 7572  10.951  11.647   9.505
68559SOL     OW 7573   3.761   7.691   2.235
68559SOL    HW1 7574   3.848   7.709   2.199
68559SOL    HW2 7575   3.705   7.759   2.196
68560SOL     OW 7576  14.246   6.229  14.616
68560SOL    HW1 7577  14.166   6.281  14.608
68560SOL    HW2 7578  14.317   6.289  14.595
68561SOL     OW 7579   0.555   4.334   5.385
68561SOL    HW1 7580   0.475   4.349   5.336
68561SOL    HW2 7581   0.623   4.325   5.318
68562SOL     OW 7582   1.685  11.179  10.020
68562SOL    HW1 7583   1.655  11.237  10.090
68562SOL    HW2 7584   1.623  11.107  10.019
68563SOL     OW 7585   6.964  13.500  11.555
68563SOL    HW1 7586   6.964  13.596  11.565
68563SOL    HW2 7587   7.008  13.485  11.471
68564SOL     OW 7588   1.002  10.320   2.551
68564SOL    HW1 7589   1.015  10.245   2.493
68564SOL    HW2 7590   1.067  10.309   2.619
68565SOL     OW 7591   7.156   2.062   2.930
68565SOL    HW1 7592   7.189   2.132   2.874
68565SOL    HW2 7593   7.212   1.987   2.912
68566SOL     OW 7594   7.247   8.824   3.610
68566SOL    HW1 7595   7.298   8.766   3.553
68566SOL    HW2 7596   7.282   8.806   3.698
68567SOL     OW 7597   2.877  14.713  12.394
68567SOL    HW1 7598   2.782  14.704  12.389
68567SOL    HW2 7599   2.911  14.636  12.348
68568SOL     OW 7600   1.073   1.890  10.843
68568SOL    HW1 7601   1.108   1.978  10.854
68568SOL    HW2 7602   1.113   1.858  10.762
68569SOL     OW 7603   3.079  12.803   5.504
68569SOL    HW1 7604   2.987  12.803   5.480
68569SOL    HW2 7605   3.081  12.842   5.591
68570SOL     OW 7606   4.737   2.122   1.240
68570SOL    HW1 7607   4.743   2.041   1.289
68570SOL    HW2 7608   4.734   2.095   1.148
68571SOL     OW 7609  10.759   3.351   4.227
68571SOL    HW1 7610  10.802   3.270   4.202
68571SOL    HW2 7611  10.830   3.407   4.260
68572SOL     OW 7612   2.326   6.914   7.947
68572SOL    HW1 7613   2.276   6.984   7.989
68572SOL    HW2 7614   2.351   6.856   8.019
68573SOL     OW 7615   3.605  13.009   1.728
68573SOL    HW1 7616   3.578  12.926   1.691
68573SOL    HW2 7617   3.579  13.075   1.663
68574SOL     OW 7618  11.353  13.299  14.114
68574SOL    HW1 7619  11.289  13.336  14.175
68574SOL    HW2 7620  11.438  13.322  14.151
68575SOL     OW 7621  14.817   9.475   1.670
68575SOL    HW1 7622  14.758   9.511   1.737
68575SOL    HW2 7623   0.010   9.544   1.656
68576SOL     OW 7624   4.211   8.441   2.161
68576SOL    HW1 7625   4.119   8.460   2.180
68576SOL    HW2 7626   4.223   8.350   2.190
68577SOL     OW 7627   5.009  10.290   4.059
68577SOL    HW1 7628   4.988  10.235   3.985
68577SOL    HW2 7629   4.985  10.238   4.136
68578SOL     OW 7630  14.718  10.026   8.045
68578SOL    HW1 7631  14.724  10.020   7.949
68578SOL    HW2 7632  14.716   9.935   8.074
68579SOL     OW 7633   3.202   3.990   5.554
68579SOL    HW1 7634   3.173   3.959   5.468
68579SOL    HW2 7635   3.244   3.913   5.594
68580SOL     OW 7636   1.599  10.439   9.167
68580SOL    HW1 7637   1.587  10.527   9.203
68580SOL    HW2 7638   1.643  10.390   9.236
68581SOL     OW 7639   9.609   3.970  13.028
68581SOL    HW1 7640   9.539   3.991  13.090
68581SOL    HW2 7641   9.567   3.915  12.962
68582SOL     OW 7642   2.428   8.563  11.869
68582SOL    HW1 7643   2.473   8.624  11.811
68582SOL    HW2 7644   2.491   8.493  11.885
68583SOL     OW 7645  14.745   9.760   3.853
68583SOL    HW1 7646  14.733   9.855   3.862
68583SOL    HW2 7647  14.810   9.738   3.920
68584SOL     OW 7648  13.500   7.945  12.194
68584SOL    HW1 7649  13.461   7.964  12.279
68584SOL    HW2 7650  13.479   8.021  12.140
68585SOL     OW 7651   0.350   6.402  11.743
68585SOL    HW1 7652   0.400   6.337  11.695
68585SOL    HW2 7653   0.388   6.486  11.716
68586SOL     OW 7654  14.711  12.936   7.790
68586SOL    HW1 7655  14.710  13.031   7.782
68586SOL    HW2 7656  14.619  12.910   7.791
68587SOL     OW 7657   8.333  10.502  10.105
68587SOL    HW1 7658   8.312  10.426  10.050
68587SOL    HW2 7659   8.255  10.557  10.100
68588SOL     OW 7660  11.352   5.635   0.659
68588SOL    HW1 7661  11.433   5.684   0.667
68588SOL    HW2 7662  11.283   5.701   0.669
68589SOL     OW 7663   6.349   5.054   6.640
68589SOL    HW1 7664   6.304   5.021   6.718
68589SOL    HW2 7665   6.428   5.095   6.674
68590SOL     OW 7666   5.935   4.446   8.030
68590SOL    HW1 7667   6.026   4.455   8.058
68590SOL    HW2 7668   5.884   4.477   8.105
68591SOL     OW 7669   2.583   3.445   8.262
68591SOL    HW1 7670   2.630   3.365   8.241
68591SOL    HW2 7671   2.577   3.492   8.178
68592SOL     OW 7672   2.111   6.437  10.345
68592SOL    HW1 7673   2.169   6.439  10.269
68592SOL    HW2 7674   2.139   6.359  10.394
68593SOL     OW 7675   9.808   7.218  13.491
68593SOL    HW1 7676   9.731   7.161  13.487
68593SOL    HW2 7677   9.853   7.203  13.408
68594SOL     OW 7678  13.676  14.196   5.555
68594SOL    HW1 7679  13.760  14.173   5.596
68594SOL    HW2 7680  13.682  14.160   5.466
68595SOL     OW 7681   1.300   9.681   5.817
68595SOL    HW1 7682   1.370   9.739   5.788
68595SOL    HW2 7683   1.329   9.593   5.793
68596SOL     OW 7684  14.464  14.816   3.541
68596SOL    HW1 7685  14.499  14.832   3.629
68596SOL    HW2 7686  14.369  14.812   3.554
68597SOL     OW 7687   3.963   2.436  12.516
68597SOL    HW1 7688   3.934   2.420  12.606
68597SOL    HW2 7689   3.930   2.523  12.495
68598SOL     OW 7690  12.382   9.533   7.874
68598SOL    HW1 7691  12.383   9.628   7.884
68598SOL    HW2 7692  12.448   9.515   7.808
68599SOL     OW 7693   4.487   2.869   4.347
68599SOL    HW1 7694   4.496   2.909   4.433
68599SOL    HW2 7695   4.528   2.931   4.287
68600SOL     OW 7696   7.603   4.254  10.822
68600SOL    HW1 7697   7.532   4.293  10.772
68600SOL    HW2 7698   7.678   4.311  10.805
68601SOL     OW 7699   4.768  12.502  13.934
68601SOL    HW1 7700   4.843  12.551  13.968
68601SOL    HW2 7701   4.729  12.462  14.012
68602SOL     OW 7702   7.966   7.536   2.121
68602SOL    HW1 7703   7.902   7.505   2.184
68602SOL    HW2 7704   8.029   7.464   2.111
68603SOL     OW 7705  14.203   8.126   3.771
68603SOL    HW1 7706  14.159   8.141   3.855
68603SOL    HW2 7707  14.296   8.122   3.793
68604SOL     OW 7708   5.179   7.562   7.320
68604SOL    HW1 7709   5.090   7.592   7.301
68604SOL    HW2 7710   5.171   7.468   7.334
68605SOL     OW 7711  12.327   5.821   8.972
68605SOL    HW1 7712  12.348   5.907   9.010
68605SOL    HW2 7713  12.295   5.841   8.884
68606SOL     OW 7714  14.171  12.121  10.024
68606SOL    HW1 7715  14.187  12.158  10.111
68606SOL    HW2 7716  14.233  12.048  10.017
68607SOL     OW 7717  10.463  13.374   0.007
68607SOL    HW1 7718  10.436  13.411  14.794
68607SOL    HW2 7719  10.476  13.281  14.861
68608SOL     OW 7720   5.803  10.698   3.883
68608SOL    HW1 7721   5.844  10.784   3.875
68608SOL    HW2 7722   5.819  10.671   3.973
68609SOL     OW 7723   7.098   0.102  11.976
68609SOL    HW1 7724   7.016   0.152  11.973
68609SOL    HW2 7725   7.071   0.012  11.992
68610SOL     OW 7726   5.146   6.583   7.160
68610SOL    HW1 7727   5.234   6.547   7.166
68610SOL    HW2 7728   5.156   6.661   7.105
68611SOL     OW 7729   4.752   2.271   4.442
68611SOL    HW1 7730   4.790   2.358   4.447
68611SOL    HW2 7731   4.801   2.227   4.373
68612SOL     OW 7732   7.288   2.367   4.099
68612SOL    HW1 7733   7.377   2.333   4.092
68612SOL    HW2 7734   7.254   2.329   4.180
68613SOL     OW 7735  14.743  12.320   4.660
68613SOL    HW1 7736  14.791  12.256   4.606
68613SOL    HW2 7737  14.701  12.378   4.596
68614SOL     OW 7738   3.969   0.130   2.732
68614SOL    HW1 7739   3.995   0.112   2.642
68614SOL    HW2 7740   3.908   0.203   2.724
68615SOL     OW 7741  12.919  13.662   4.366
68615SOL    HW1 7742  13.012  13.655   4.390
68615SOL    HW2 7743  12.919  13.656   4.271
68616SOL     OW 7744   7.320   6.173   9.137
68616SOL    HW1 7745   7.290   6.095   9.183
68616SOL    HW2 7746   7.249   6.193   9.075
68617SOL     OW 7747   3.619   0.976   6.781
68617SOL    HW1 7748   3.630   1.034   6.856
68617SOL    HW2 7749   3.670   0.898   6.804
68618SOL     OW 7750   8.235   8.164  13.522
68618SOL    HW1 7751   8.190   8.158  13.606
68618SOL    HW2 7752   8.181   8.112  13.462
68619SOL     OW 7753   5.965   6.405  10.459
68619SOL    HW1 7754   5.925   6.490  10.475
68619SOL    HW2 7755   6.052   6.425  10.426
68620SOL     OW 7756   3.510   5.966  12.381
68620SOL    HW1 7757   3.541   6.052  12.355
68620SOL    HW2 7758   3.429   5.983  12.430
68621SOL     OW 7759  13.928  12.336   2.323
68621SOL    HW1 7760  13.970  12.298   2.400
68621SOL    HW2 7761  13.988  12.317   2.250
68622SOL     OW 7762   1.140  14.299  13.428
68622SOL    HW1 7763   1.185  14.222  13.392
68622SOL    HW2 7764   1.190  14.321  13.506
68623SOL     OW 7765  11.314   7.366   0.070
68623SOL    HW1 7766  11.403   7.356   0.104
68623SOL    HW2 7767  11.325   7.408  14.856
68624SOL     OW 7768  12.841  14.274   4.610
68624SOL    HW1 7769  12.853  14.368   4.617
68624SOL    HW2 7770  12.914  14.244   4.555
68625SOL     OW 7771   6.676  13.751   3.875
68625SOL    HW1 7772   6.676  13.844   3.897
68625SOL    HW2 7773   6.682  13.706   3.959
68626SOL     OW 7774  11.070  14.309   1.025
68626SOL    HW1 7775  11.064  14.342   0.936
68626SOL    HW2 7776  11.044  14.217   1.019
68627SOL     OW 7777  10.958  14.392  14.251
68627SOL    HW1 7778  11.053  14.382  14.242
68627SOL    HW2 7779  10.935  14.336  14.325
68628SOL     OW 7780   1.271   8.246  14.708
68628SOL    HW1 7781   1.223   8.233  14.790
68628SOL    HW2 7782   1.354   8.201  14.721
68629SOL     OW 7783  11.325  11.532   0.434
68629SOL    HW1 7784  11.388  11.461   0.426
68629SOL    HW2 7785  11.256  11.498   0.490
68630SOL     OW 7786  10.619   2.929   9.924
68630SOL    HW1 7787  10.558   2.995   9.891
68630SOL    HW2 7788  10.703   2.950   9.882
68631SOL     OW 7789   0.783  14.175   4.164
68631SOL    HW1 7790   0.841  14.161   4.238
68631SOL    HW2 7791   0.836  14.224   4.101
68632SOL     OW 7792   7.815   9.299   1.337
68632SOL    HW1 7793   7.788   9.215   1.300
68632SOL    HW2 7794   7.855   9.346   1.264
68633SOL     OW 7795   8.346  14.358  10.832
68633SOL    HW1 7796   8.341  14.441  10.785
68633SOL    HW2 7797   8.261  14.316  10.819
68634SOL     OW 7798   8.841   2.873   8.716
68634SOL    HW1 7799   8.810   2.957   8.752
68634SOL    HW2 7800   8.765   2.838   8.670
68635SOL     OW 7801  14.827  11.808   9.341
68635SOL    HW1 7802   0.043  11.772   9.330
68635SOL    HW2 7803  14.773  11.759   9.279
68636SOL     OW 7804  13.056   7.946   8.891
68636SOL    HW1 7805  13.030   7.866   8.846
68636SOL    HW2 7806  13.152   7.946   8.887
68637SOL     OW 7807   9.467   8.721   5.980
68637SOL    HW1 7808   9.511   8.651   6.029
68637SOL    HW2 7809   9.377   8.720   6.012
68638SOL     OW 7810   6.031   7.485   0.349
68638SOL    HW1 7811   5.958   7.424   0.361
68638SOL    HW2 7812   6.082   7.477   0.430
68639SOL     OW 7813   1.995   6.206   0.702
68639SOL    HW1 7814   1.997   6.217   0.797
68639SOL    HW2 7815   1.928   6.268   0.672
68640SOL     OW 7816   9.267   7.779   8.654
68640SOL    HW1 7817   9.330   7.837   8.612
68640SOL    HW2 7818   9.197   7.768   8.589
68641SOL     OW 7819   1.945  10.374  14.663
68641SOL    HW1 7820   1.928  10.400  14.573
68641SOL    HW2 7821   2.040  10.370  14.669
68642SOL     OW 7822   3.336   9.850   2.765
68642SOL    HW1 7823   3.334   9.830   2.671
68642SOL    HW2 7824   3.384   9.933   2.771
68643SOL     OW 7825   7.992   0.742  12.461
68643SOL    HW1 7826   7.936   0.797  12.406
68643SOL    HW2 7827   7.943   0.730  12.542
68644SOL     OW 7828   7.279  10.296  12.400
68644SOL    HW1 7829   7.184  10.311  12.392
68644SOL    HW2 7830   7.297  10.223  12.341
68645SOL     OW 7831   8.812  11.559   0.719
68645SOL    HW1 7832   8.807  11.478   0.770
68645SOL    HW2 7833   8.829  11.628   0.783
68646SOL     OW 7834   8.236  13.054   5.797
68646SOL    HW1 7835   8.320  13.008   5.797
68646SOL    HW2 7836   8.170  12.985   5.794
68647SOL     OW 7837   9.441   0.602   5.452
68647SOL    HW1 7838   9.436   0.507   5.440
68647SOL    HW2 7839   9.356   0.634   5.423
68648SOL     OW 7840  13.083   8.032   4.894
68648SOL    HW1 7841  13.053   8.116   4.929
68648SOL    HW2 7842  13.147   8.001   4.958
68649SOL     OW 7843  10.935  10.423   2.618
68649SOL    HW1 7844  10.939  10.378   2.702
68649SOL    HW2 7845  10.981  10.365   2.557
68650SOL     OW 7846   3.903   0.078  11.090
68650SOL    HW1 7847   3.890   0.092  10.996
68650SOL    HW2 7848   3.838   0.013  11.114
68651SOL     OW 7849  11.384   4.990   6.394
68651SOL    HW1 7850  11.451   5.007   6.460
68651SOL    HW2 7851  11.304   4.973   6.445
68652SOL     OW 7852  12.839  14.306   2.685
68652SOL    HW1 7853  12.880  14.380   2.730
68652SOL    HW2 7854  12.793  14.345   2.611
68653SOL     OW 7855   6.622  12.200   7.377
68653SOL    HW1 7856   6.662  12.138   7.438
68653SOL    HW2 7857   6.676  12.279   7.384
68654SOL     OW 7858   2.634   7.644   4.762
68654SOL    HW1 7859   2.650   7.617   4.852
68654SOL    HW2 7860   2.671   7.732   4.756
68655SOL     OW 7861   5.964  14.688   9.753
68655SOL    HW1 7862   6.014  14.766   9.730
68655SOL    HW2 7863   5.977  14.629   9.679
68656SOL     OW 7864  14.818  14.843  11.861
68656SOL    HW1 7865  14.776  14.759  11.876
68656SOL    HW2 7866  14.837   0.005  11.949
68657SOL     OW 7867   2.225   8.273   3.481
68657SOL    HW1 7868   2.195   8.352   3.435
68657SOL    HW2 7869   2.319   8.271   3.466
68658SOL     OW 7870   0.715   5.957   5.533
68658SOL    HW1 7871   0.696   5.988   5.445
68658SOL    HW2 7872   0.796   6.001   5.557
68659SOL     OW 7873  13.347   9.092   2.450
68659SOL    HW1 7874  13.408   9.045   2.507
68659SOL    HW2 7875  13.363   9.184   2.467
68660SOL     OW 7876   8.839   1.416  14.450
68660SOL    HW1 7877   8.822   1.510  14.461
68660SOL    HW2 7878   8.753   1.375  14.458
68661SOL     OW 7879   2.597   3.014  10.486
68661SOL    HW1 7880   2.559   2.928  10.472
68661SOL    HW2 7881   2.635   3.010  10.573
68662SOL     OW 7882   8.535  14.727  10.736
68662SOL    HW1 7883   8.617  14.678  10.726
68662SOL    HW2 7884   8.550  14.809  10.690
68663SOL     OW 7885   1.281   7.806  11.212
68663SOL    HW1 7886   1.348   7.846  11.268
68663SOL    HW2 7887   1.325   7.730  11.173
68664SOL     OW 7888  14.341   0.351  11.095
68664SOL    HW1 7889  14.433   0.348  11.120
68664SOL    HW2 7890  14.317   0.444  11.104
68665SOL     OW 7891  10.983   2.929   3.471
68665SOL    HW1 7892  11.016   2.842   3.448
68665SOL    HW2 7893  10.910   2.912   3.530
68666SOL     OW 7894   1.815   1.483   6.295
68666SOL    HW1 7895   1.870   1.407   6.274
68666SOL    HW2 7896   1.877   1.555   6.306
68667SOL     OW 7897  13.324  10.987   2.982
68667SOL    HW1 7898  13.240  11.025   2.956
68667SOL    HW2 7899  13.304  10.895   3.002
68668SOL     OW 7900  10.800   4.675   9.229
68668SOL    HW1 7901  10.855   4.653   9.154
68668SOL    HW2 7902  10.734   4.605   9.232
68669SOL     OW 7903  12.597   3.364   8.231
68669SOL    HW1 7904  12.588   3.274   8.264
68669SOL    HW2 7905  12.520   3.378   8.176
68670SOL     OW 7906  11.254   9.425   4.070
68670SOL    HW1 7907  11.215   9.382   3.994
68670SOL    HW2 7908  11.274   9.354   4.131
68671SOL     OW 7909  14.628   7.685   6.820
68671SOL    HW1 7910  14.595   7.660   6.907
68671SOL    HW2 7911  14.590   7.771   6.804
68672SOL     OW 7912   5.114  14.621   4.399
68672SOL    HW1 7913   5.138  14.530   4.378
68672SOL    HW2 7914   5.156  14.638   4.483
68673SOL     OW 7915  13.969   0.970   3.210
68673SOL    HW1 7916  14.020   0.926   3.278
68673SOL    HW2 7917  14.034   1.018   3.158
68674SOL     OW 7918  12.339  14.662  13.039
68674SOL    HW1 7919  12.335  14.679  12.945
68674SOL    HW2 7920  12.431  14.680  13.062
68675SOL     OW 7921   4.119  10.645   0.357
68675SOL    HW1 7922   4.144  10.576   0.418
68675SOL    HW2 7923   4.159  10.724   0.393
68676SOL     OW 7924   7.805   0.460   7.106
68676SOL    HW1 7925   7.891   0.498   7.086
68676SOL    HW2 7926   7.742   0.519   7.066
68677SOL     OW 7927   5.054   3.625   1.969
68677SOL    HW1 7928   4.993   3.606   2.039
68677SOL    HW2 7929   5.006   3.684   1.910
68678SOL     OW 7930   2.005   7.807  12.126
68678SOL    HW1 7931   2.075   7.815  12.061
68678SOL    HW2 7932   1.927   7.841  12.082
68679SOL     OW 7933   7.699   5.000   8.368
68679SOL    HW1 7934   7.616   4.982   8.323
68679SOL    HW2 7935   7.676   5.002   8.461
68680SOL     OW 7936   4.521   0.750   7.821
68680SOL    HW1 7937   4.454   0.731   7.756
68680SOL    HW2 7938   4.557   0.835   7.795
68681SOL     OW 7939   1.532   3.308  13.574
68681SOL    HW1 7940   1.542   3.398  13.605
68681SOL    HW2 7941   1.451   3.277  13.614
68682SOL     OW 7942  12.930   2.867   8.538
68682SOL    HW1 7943  12.985   2.894   8.466
68682SOL    HW2 7944  12.988   2.817   8.596
68683SOL     OW 7945   3.792  14.142   6.722
68683SOL    HW1 7946   3.828  14.137   6.811
68683SOL    HW2 7947   3.806  14.233   6.695
68684SOL     OW 7948   7.070   6.446  12.851
68684SOL    HW1 7949   7.128   6.494  12.909
68684SOL    HW2 7950   7.089   6.354  12.869
68685SOL     OW 7951  14.252   2.680  14.238
68685SOL    HW1 7952  14.272   2.666  14.330
68685SOL    HW2 7953  14.159   2.703  14.237
68686SOL     OW 7954   5.070   5.803   3.871
68686SOL    HW1 7955   5.165   5.789   3.866
68686SOL    HW2 7956   5.061   5.896   3.891
68687SOL     OW 7957   9.445   5.004   5.244
68687SOL    HW1 7958   9.351   4.990   5.239
68687SOL    HW2 7959   9.456   5.099   5.243
68688SOL     OW 7960   5.055   3.741  14.565
68688SOL    HW1 7961   4.980   3.689  14.594
68688SOL    HW2 7962   5.085   3.697  14.485
68689SOL     OW 7963   1.353  11.930  11.693
68689SOL    HW1 7964   1.369  12.014  11.650
68689SOL    HW2 7965   1.440  11.899  11.720
68690SOL     OW 7966  13.333   4.898   9.327
68690SOL    HW1 7967  13.377   4.888   9.243
68690SOL    HW2 7968  13.389   4.958   9.376
68691SOL     OW 7969   3.870   6.898   8.962
68691SOL    HW1 7970   3.888   6.847   9.041
68691SOL    HW2 7971   3.933   6.970   8.965
68692SOL     OW 7972   1.165   5.743   6.365
68692SOL    HW1 7973   1.213   5.793   6.299
68692SOL    HW2 7974   1.219   5.750   6.444
68693SOL     OW 7975   7.563   8.191   0.921
68693SOL    HW1 7976   7.549   8.216   0.829
68693SOL    HW2 7977   7.478   8.157   0.949
68694SOL     OW 7978  13.961   9.999   5.067
68694SOL    HW1 7979  13.928   9.922   5.114
68694SOL    HW2 7980  14.032  10.031   5.123
68695SOL     OW 7981   9.121  12.051  11.488
68695SOL    HW1 7982   9.130  12.023  11.397
68695SOL    HW2 7983   9.150  12.142  11.489
68696SOL     OW 7984   5.386   9.032   2.543
68696SOL    HW1 7985   5.395   9.014   2.449
68696SOL    HW2 7986   5.341   8.955   2.578
68697SOL     OW 7987   1.693   2.134  13.227
68697SOL    HW1 7988   1.660   2.052  13.263
68697SOL    HW2 7989   1.655   2.202  13.283
68698SOL     OW 7990   4.443   1.802   3.777
68698SOL    HW1 7991   4.403   1.824   3.861
68698SOL    HW2 7992   4.436   1.707   3.771
68699SOL     OW 7993  11.671   3.629   3.011
68699SOL    HW1 7994  11.647   3.650   2.920
68699SOL    HW2 7995  11.589   3.599   3.051
68700SOL     OW 7996   1.323   6.368  14.048
68700SOL    HW1 7997   1.360   6.319  13.974
68700SOL    HW2 7998   1.267   6.305  14.093
68701SOL     OW 7999  13.417   4.594  12.261
68701SOL    HW1 8000  13.484   4.657  12.232
68701SOL    HW2 8001  13.455   4.508  12.242
68702SOL     OW 8002   8.158   1.666   0.845
68702SOL    HW1 8003   8.171   1.752   0.803
68702SOL    HW2 8004   8.096   1.621   0.788
68703SOL     OW 8005   8.459   0.298   0.321
68703SOL    HW1 8006   8.504   0.296   0.237
68703SOL    HW2 8007   8.488   0.379   0.362
68704SOL     OW 8008   5.028   5.570   2.042
68704SOL    HW1 8009   5.018   5.664   2.053
68704SOL    HW2 8010   5.071   5.540   2.122
68705SOL     OW 8011  13.722   3.774   6.907
68705SOL    HW1 8012  13.745   3.804   6.995
68705SOL    HW2 8013  13.668   3.844   6.870
68706SOL     OW 8014   8.782  14.359   3.385
68706SOL    HW1 8015   8.827  14.275   3.395
68706SOL    HW2 8016   8.721  14.346   3.313
68707SOL     OW 8017   5.838   1.693  12.590
68707SOL    HW1 8018   5.896   1.690  12.666
68707SOL    HW2 8019   5.750   1.692  12.627
68708SOL     OW 8020  12.083   6.175   9.189
68708SOL    HW1 8021  12.132   6.223   9.121
68708SOL    HW2 8022  12.148   6.117   9.228
68709SOL     OW 8023   3.593   2.863   0.773
68709SOL    HW1 8024   3.497   2.857   0.772
68709SOL    HW2 8025   3.611   2.951   0.804
68710SOL     OW 8026   0.624   0.625   3.786
68710SOL    HW1 8027   0.641   0.716   3.810
68710SOL    HW2 8028   0.665   0.574   3.856
68711SOL     OW 8029   9.949   3.653   4.620
68711SOL    HW1 8030   9.941   3.742   4.586
68711SOL    HW2 8031   9.923   3.597   4.547
68712SOL     OW 8032  13.655   7.673   5.792
68712SOL    HW1 8033  13.566   7.642   5.809
68712SOL    HW2 8034  13.692   7.689   5.878
68713SOL     OW 8035  11.187   5.921   3.907
68713SOL    HW1 8036  11.225   5.955   3.826
68713SOL    HW2 8037  11.149   5.998   3.950
68714SOL     OW 8038   4.880   6.849   1.109
68714SOL    HW1 8039   4.922   6.893   1.183
68714SOL    HW2 8040   4.953   6.826   1.051
68715SOL     OW 8041   3.066  10.894   9.788
68715SOL    HW1 8042   3.108  10.891   9.875
68715SOL    HW2 8043   3.139  10.908   9.727
68716SOL     OW 8044   6.675   0.449  10.899
68716SOL    HW1 8045   6.697   0.398  10.822
68716SOL    HW2 8046   6.757   0.456  10.948
68717SOL     OW 8047   2.549  11.235  11.490
68717SOL    HW1 8048   2.587  11.208  11.406
68717SOL    HW2 8049   2.455  11.220  11.479
68718SOL     OW 8050   2.887   2.801  11.061
68718SOL    HW1 8051   2.799   2.836  11.075
68718SOL    HW2 8052   2.945   2.874  11.083
68719SOL     OW 8053  14.694   7.765   7.532
68719SOL    HW1 8054  14.761   7.800   7.592
68719SOL    HW2 8055  14.742   7.751   7.450
68720SOL     OW 8056   1.715  10.561  11.030
68720SOL    HW1 8057   1.727  10.557  11.125
68720SOL    HW2 8058   1.738  10.473  10.999
68721SOL     OW 8059   9.366  13.200   2.145
68721SOL    HW1 8060   9.333  13.246   2.222
68721SOL    HW2 8061   9.434  13.141   2.179
68722SOL     OW 8062   9.697   7.342   7.412
68722SOL    HW1 8063   9.610   7.308   7.431
68722SOL    HW2 8064   9.724   7.387   7.492
68723SOL     OW 8065   2.317  13.374  10.457
68723SOL    HW1 8066   2.332  13.282  10.437
68723SOL    HW2 8067   2.387  13.420  10.410
68724SOL     OW 8068   8.248   7.086   5.234
68724SOL    HW1 8069   8.178   7.136   5.275
68724SOL    HW2 8070   8.321   7.147   5.227
68725SOL     OW 8071  11.286   7.577   4.236
68725SOL    HW1 8072  11.225   7.523   4.186
68725SOL    HW2 8073  11.252   7.666   4.226
68726SOL     OW 8074  13.954   5.292  13.236
68726SOL    HW1 8075  13.940   5.305  13.330
68726SOL    HW2 8076  14.017   5.361  13.212
68727SOL     OW 8077  14.170  14.583  14.575
68727SOL    HW1 8078  14.124  14.537  14.505
68727SOL    HW2 8079  14.261  14.556  14.566
68728SOL     OW 8080  13.279   8.114   2.202
68728SOL    HW1 8081  13.218   8.041   2.194
68728SOL    HW2 8082  13.265   8.166   2.123
68729SOL     OW 8083   8.109   4.679   7.883
68729SOL    HW1 8084   8.064   4.644   7.806
68729SOL    HW2 8085   8.073   4.767   7.893
68730SOL     OW 8086   0.656   8.869   9.870
68730SOL    HW1 8087   0.613   8.893   9.952
68730SOL    HW2 8088   0.586   8.834   9.815
68731SOL     OW 8089   3.439   8.588   9.798
68731SOL    HW1 8090   3.514   8.598   9.739
68731SOL    HW2 8091   3.363   8.584   9.740
68732SOL     OW 8092   5.244   1.880   8.550
68732SOL    HW1 8093   5.168   1.835   8.588
68732SOL    HW2 8094   5.206   1.952   8.498
68733SOL     OW 8095  11.391   8.597  12.467
68733SOL    HW1 8096  11.379   8.503  12.483
68733SOL    HW2 8097  11.431   8.601  12.380
68734SOL     OW 8098  14.186  13.645   5.183
68734SOL    HW1 8099  14.161  13.559   5.148
68734SOL    HW2 8100  14.189  13.632   5.278
68735SOL     OW 8101   9.794  12.286  12.028
68735SOL    HW1 8102   9.797  12.360  11.968
68735SOL    HW2 8103   9.729  12.227  11.990
68736SOL     OW 8104   1.181   2.175   8.855
68736SOL    HW1 8105   1.221   2.259   8.877
68736SOL    HW2 8106   1.090   2.183   8.884
68737SOL     OW 8107  11.467   9.356   7.134
68737SOL    HW1 8108  11.545   9.313   7.167
68737SOL    HW2 8109  11.434   9.407   7.208
68738SOL     OW 8110  14.151   0.177  11.131
68738SOL    HW1 8111  14.219   0.243  11.119
68738SOL    HW2 8112  14.177   0.105  11.073
68739SOL     OW 8113   3.956   7.110   3.690
68739SOL    HW1 8114   3.954   7.193   3.736
68739SOL    HW2 8115   4.048   7.083   3.692
68740SOL     OW 8116   8.685   1.977   9.387
68740SOL    HW1 8117   8.772   2.015   9.400
68740SOL    HW2 8118   8.633   2.012   9.459
68741SOL     OW 8119   5.308   1.398   4.824
68741SOL    HW1 8120   5.293   1.417   4.916
68741SOL    HW2 8121   5.394   1.356   4.821
68742SOL     OW 8122  11.916   0.824   6.832
68742SOL    HW1 8123  11.877   0.745   6.870
68742SOL    HW2 8124  11.851   0.856   6.770
68743SOL     OW 8125   2.890  14.174   7.889
68743SOL    HW1 8126   2.806  14.148   7.852
68743SOL    HW2 8127   2.868  14.232   7.961
68744SOL     OW 8128  12.740  11.040  13.934
68744SOL    HW1 8129  12.676  11.079  13.994
68744SOL    HW2 8130  12.708  11.063  13.847
68745SOL     OW 8131   0.103   7.826   8.765
68745SOL    HW1 8132   0.059   7.865   8.690
68745SOL    HW2 8133   0.159   7.896   8.799
68746SOL     OW 8134   1.139   4.272  10.424
68746SOL    HW1 8135   1.219   4.310  10.388
68746SOL    HW2 8136   1.086   4.348  10.450
68747SOL     OW 8137   2.457   7.814  14.748
68747SOL    HW1 8138   2.534   7.815  14.691
68747SOL    HW2 8139   2.471   7.889  14.807
68748SOL     OW 8140   9.840   3.399   7.423
68748SOL    HW1 8141   9.814   3.340   7.352
68748SOL    HW2 8142   9.761   3.408   7.476
68749SOL     OW 8143   3.683   0.488   8.053
68749SOL    HW1 8144   3.736   0.409   8.062
68749SOL    HW2 8145   3.742   0.559   8.079
68750SOL     OW 8146   4.426  11.710   1.446
68750SOL    HW1 8147   4.510  11.665   1.446
68750SOL    HW2 8148   4.390  11.694   1.358
68751SOL     OW 8149   5.657  11.956   2.919
68751SOL    HW1 8150   5.700  12.042   2.925
68751SOL    HW2 8151   5.704  11.911   2.849
68752SOL     OW 8152   7.305  14.012   8.550
68752SOL    HW1 8153   7.230  14.066   8.524
68752SOL    HW2 8154   7.352  14.065   8.614
68753SOL     OW 8155   4.870  13.879  13.389
68753SOL    HW1 8156   4.950  13.863  13.339
68753SOL    HW2 8157   4.884  13.833  13.471
68754SOL     OW 8158   6.335   8.147   7.290
68754SOL    HW1 8159   6.271   8.078   7.302
68754SOL    HW2 8160   6.411   8.119   7.341
68755SOL     OW 8161  13.664   5.409   6.732
68755SOL    HW1 8162  13.598   5.461   6.686
68755SOL    HW2 8163  13.616   5.367   6.803
68756SOL     OW 8164   5.027   2.468   6.873
68756SOL    HW1 8165   5.121   2.458   6.892
68756SOL    HW2 8166   4.985   2.460   6.959
68757SOL     OW 8167  11.716   5.126   7.329
68757SOL    HW1 8168  11.667   5.102   7.251
68757SOL    HW2 8169  11.655   5.114   7.401
68758SOL     OW 8170  12.223  12.145  12.159
68758SOL    HW1 8171  12.211  12.126  12.066
68758SOL    HW2 8172  12.266  12.230  12.161
68759SOL     OW 8173   3.869   1.309   1.561
68759SOL    HW1 8174   3.797   1.288   1.621
68759SOL    HW2 8175   3.856   1.251   1.486
68760SOL     OW 8176   3.736   1.469   1.974
68760SOL    HW1 8177   3.769   1.497   2.059
68760SOL    HW2 8178   3.765   1.537   1.913
68761SOL     OW 8179   6.378  10.345   3.220
68761SOL    HW1 8180   6.362  10.420   3.163
68761SOL    HW2 8181   6.354  10.269   3.166
68762SOL     OW 8182  13.868   6.753   0.987
68762SOL    HW1 8183  13.961   6.737   0.973
68762SOL    HW2 8184  13.824   6.686   0.936
68763SOL     OW 8185  10.702   3.353   0.508
68763SOL    HW1 8186  10.700   3.281   0.445
68763SOL    HW2 8187  10.711   3.310   0.593
68764SOL     OW 8188  14.730  14.410  11.149
68764SOL    HW1 8189  14.712  14.363  11.230
68764SOL    HW2 8190  14.824  14.428  11.152
68765SOL     OW 8191   1.689   7.542  14.843
68765SOL    HW1 8192   1.718   7.628   0.001
68765SOL    HW2 8193   1.606   7.528   0.018
68766SOL     OW 8194  14.214   0.110   4.386
68766SOL    HW1 8195  14.145   0.044   4.392
68766SOL    HW2 8196  14.198   0.155   4.303
68767SOL     OW 8197   1.254   2.386   6.154
68767SOL    HW1 8198   1.320   2.403   6.086
68767SOL    HW2 8199   1.217   2.473   6.173
68768SOL     OW 8200   5.309   3.955   5.548
68768SOL    HW1 8201   5.384   4.001   5.512
68768SOL    HW2 8202   5.237   3.975   5.488
68769SOL     OW 8203   0.336   1.036   7.695
68769SOL    HW1 8204   0.288   1.001   7.620
68769SOL    HW2 8205   0.423   1.056   7.659
68770SOL     OW 8206  10.102   2.666   2.706
68770SOL    HW1 8207  10.025   2.610   2.716
68770SOL    HW2 8208  10.153   2.651   2.786
68771SOL     OW 8209  10.798   2.120   9.959
68771SOL    HW1 8210  10.867   2.099  10.022
68771SOL    HW2 8211  10.795   2.045   9.900
68772SOL     OW 8212   3.183   1.640   0.086
68772SOL    HW1 8213   3.118   1.618   0.153
68772SOL    HW2 8214   3.185   1.564   0.028
68773SOL     OW 8215  11.740  11.477   0.320
68773SOL    HW1 8216  11.813  11.509   0.266
68773SOL    HW2 8217  11.671  11.542   0.307
68774SOL     OW 8218   9.843   4.208  13.445
68774SOL    HW1 8219   9.808   4.127  13.481
68774SOL    HW2 8220   9.860   4.188  13.353
68775SOL     OW 8221  12.307   7.344   3.530
68775SOL    HW1 8222  12.218   7.333   3.565
68775SOL    HW2 8223  12.356   7.385   3.602
68776SOL     OW 8224   9.077   2.269  11.506
68776SOL    HW1 8225   9.037   2.214  11.438
68776SOL    HW2 8226   9.070   2.358  11.472
68777SOL     OW 8227   0.977   4.007   2.481
68777SOL    HW1 8228   0.921   3.951   2.427
68777SOL    HW2 8229   1.021   4.064   2.418
68778SOL     OW 8230   2.241  12.963   9.993
68778SOL    HW1 8231   2.228  12.995  10.083
68778SOL    HW2 8232   2.153  12.958   9.956
68779SOL     OW 8233   5.952   4.383  13.350
68779SOL    HW1 8234   5.888   4.316  13.325
68779SOL    HW2 8235   5.984   4.418  13.267
68780SOL     OW 8236   4.161   7.070   5.684
68780SOL    HW1 8237   4.157   7.135   5.754
68780SOL    HW2 8238   4.072   7.033   5.681
68781SOL     OW 8239  14.030   0.710   7.249
68781SOL    HW1 8240  14.011   0.647   7.319
68781SOL    HW2 8241  14.085   0.776   7.290
68782SOL     OW 8242   7.608  11.732   3.375
68782SOL    HW1 8243   7.639  11.775   3.454
68782SOL    HW2 8244   7.529  11.685   3.403
68783SOL     OW 8245   1.529   2.244  10.125
68783SOL    HW1 8246   1.574   2.329  10.122
68783SOL    HW2 8247   1.559   2.199  10.046
68784SOL     OW 8248   7.638   8.713  14.462
68784SOL    HW1 8249   7.650   8.618  14.472
68784SOL    HW2 8250   7.550   8.722  14.426
68785SOL     OW 8251   5.168  11.263   3.487
68785SOL    HW1 8252   5.168  11.215   3.404
68785SOL    HW2 8253   5.240  11.326   3.478
68786SOL     OW 8254   7.432  11.566   0.477
68786SOL    HW1 8255   7.419  11.626   0.550
68786SOL    HW2 8256   7.356  11.580   0.420
68787SOL     OW 8257   2.102   6.553   9.101
68787SOL    HW1 8258   2.179   6.608   9.084
68787SOL    HW2 8259   2.133   6.464   9.084
68788SOL     OW 8260  10.561   6.631   8.059
68788SOL    HW1 8261  10.625   6.563   8.038
68788SOL    HW2 8262  10.483   6.607   8.009
68789SOL     OW 8263   8.155   4.927   2.153
68789SOL    HW1 8264   8.176   4.882   2.234
68789SOL    HW2 8265   8.232   4.982   2.135
68790SOL     OW 8266   9.010   7.149  11.216
68790SOL    HW1 8267   9.046   7.076  11.266
68790SOL    HW2 8268   9.055   7.226  11.251
68791SOL     OW 8269   6.203   7.907   6.751
68791SOL    HW1 8270   6.168   7.853   6.822
68791SOL    HW2 8271   6.134   7.907   6.685
68792SOL     OW 8272   1.617  13.046  10.553
68792SOL    HW1 8273   1.615  13.000  10.637
68792SOL    HW2 8274   1.615  13.139  10.576
68793SOL     OW 8275   6.930  12.918  10.294
68793SOL    HW1 8276   6.898  12.991  10.241
68793SOL    HW2 8277   6.859  12.853  10.290
68794SOL     OW 8278   8.213  10.413   6.964
68794SOL    HW1 8279   8.219  10.426   7.059
68794SOL    HW2 8280   8.283  10.467   6.928
68795SOL     OW 8281   2.102   1.159   2.312
68795SOL    HW1 8282   2.099   1.189   2.403
68795SOL    HW2 8283   2.066   1.070   2.315
68796SOL     OW 8284   7.452   3.160  12.093
68796SOL    HW1 8285   7.481   3.251  12.092
68796SOL    HW2 8286   7.522   3.113  12.048
68797SOL     OW 8287   6.847  12.742  13.341
68797SOL    HW1 8288   6.776  12.766  13.283
68797SOL    HW2 8289   6.897  12.676  13.292
68798SOL     OW 8290   0.720  11.309   6.074
68798SOL    HW1 8291   0.680  11.224   6.054
68798SOL    HW2 8292   0.648  11.372   6.067
68799SOL     OW 8293   8.652   5.442   6.563
68799SOL    HW1 8294   8.705   5.512   6.601
68799SOL    HW2 8295   8.571   5.485   6.536
68800SOL     OW 8296   5.168  13.291   6.278
68800SOL    HW1 8297   5.105  13.354   6.244
68800SOL    HW2 8298   5.230  13.343   6.329
68801SOL     OW 8299  13.209   5.889   9.195
68801SOL    HW1 8300  13.166   5.804   9.202
68801SOL    HW2 8301  13.299   5.868   9.167
68802SOL     OW 8302   9.981   7.527  10.264
68802SOL    HW1 8303  10.003   7.577  10.343
68802SOL    HW2 8304  10.055   7.466  10.253
68803SOL     OW 8305   7.183  11.203   0.340
68803SOL    HW1 8306   7.246  11.273   0.361
68803SOL    HW2 8307   7.119  11.245   0.282
68804SOL     OW 8308   1.550  11.296   7.226
68804SOL    HW1 8309   1.531  11.348   7.305
68804SOL    HW2 8310   1.470  11.245   7.212
68805SOL     OW 8311  10.591   9.160   2.263
68805SOL    HW1 8312  10.574   9.068   2.239
68805SOL    HW2 8313  10.674   9.181   2.221
68806SOL     OW 8314   6.743   7.398   2.506
68806SOL    HW1 8315   6.682   7.328   2.480
68806SOL    HW2 8316   6.819   7.351   2.540
68807SOL     OW 8317  10.722  10.249   4.922
68807SOL    HW1 8318  10.690  10.173   4.971
68807SOL    HW2 8319  10.738  10.315   4.989
68808SOL     OW 8320   0.917   6.763   4.770
68808SOL    HW1 8321   0.843   6.823   4.778
68808SOL    HW2 8322   0.975   6.805   4.706
68809SOL     OW 8323   2.826   8.795   0.704
68809SOL    HW1 8324   2.759   8.861   0.722
68809SOL    HW2 8325   2.908   8.835   0.735
68810SOL     OW 8326   1.375  13.481   0.606
68810SOL    HW1 8327   1.462  13.449   0.631
68810SOL    HW2 8328   1.375  13.574   0.630
68811SOL     OW 8329   7.388   5.954   3.274
68811SOL    HW1 8330   7.420   5.866   3.296
68811SOL    HW2 8331   7.442   6.013   3.326
68812SOL     OW 8332   0.848  11.771   3.166
68812SOL    HW1 8333   0.940  11.748   3.179
68812SOL    HW2 8334   0.805  11.688   3.146
68813SOL     OW 8335  12.443   4.043   4.192
68813SOL    HW1 8336  12.524   4.020   4.236
68813SOL    HW2 8337  12.403   4.109   4.248
68814SOL     OW 8338   9.332   0.003   5.202
68814SOL    HW1 8339   9.424   0.022   5.224
68814SOL    HW2 8340   9.282   0.047   5.272
68815SOL     OW 8341  10.368   2.894   3.671
68815SOL    HW1 8342  10.386   2.979   3.631
68815SOL    HW2 8343  10.434   2.886   3.740
68816SOL     OW 8344  10.067   1.474  14.225
68816SOL    HW1 8345  10.125   1.544  14.253
68816SOL    HW2 8346   9.993   1.478  14.286
68817SOL     OW 8347  14.099  11.776   5.679
68817SOL    HW1 8348  14.081  11.687   5.649
68817SOL    HW2 8349  14.175  11.804   5.628
68818SOL     OW 8350   4.498   6.910   7.468
68818SOL    HW1 8351   4.517   6.852   7.395
68818SOL    HW2 8352   4.569   6.894   7.531
68819SOL     OW 8353  13.583   3.278  11.493
68819SOL    HW1 8354  13.507   3.331  11.471
68819SOL    HW2 8355  13.573   3.259  11.586
68820SOL     OW 8356  12.888  11.187   7.413
68820SOL    HW1 8357  12.916  11.219   7.499
68820SOL    HW2 8358  12.928  11.247   7.351
68821SOL     OW 8359   3.614   5.531  11.869
68821SOL    HW1 8360   3.688   5.535  11.808
68821SOL    HW2 8361   3.628   5.450  11.918
68822SOL     OW 8362   1.877   3.936  14.633
68822SOL    HW1 8363   1.818   3.881  14.683
68822SOL    HW2 8364   1.824   3.968  14.559
68823SOL     OW 8365   1.081  12.777   7.037
68823SOL    HW1 8366   1.037  12.860   7.053
68823SOL    HW2 8367   1.162  12.801   6.992
68824SOL     OW 8368   2.123   0.507   5.243
68824SOL    HW1 8369   2.056   0.553   5.294
68824SOL    HW2 8370   2.129   0.557   5.162
68825SOL     OW 8371  11.081   6.270   0.676
68825SOL    HW1 8372  11.036   6.186   0.663
68825SOL    HW2 8373  11.127   6.259   0.760
68826SOL     OW 8374   2.192   1.364  11.550
68826SOL    HW1 8375   2.178   1.270  11.548
68826SOL    HW2 8376   2.279   1.375  11.587
68827SOL     OW 8377  12.773   6.114  14.215
68827SOL    HW1 8378  12.746   6.130  14.305
68827SOL    HW2 8379  12.697   6.074  14.173
68828SOL     OW 8380   4.349   7.856  14.791
68828SOL    HW1 8381   4.326   7.938  14.836
68828SOL    HW2 8382   4.319   7.869  14.702
68829SOL     OW 8383   2.016   6.316   3.542
68829SOL    HW1 8384   1.946   6.270   3.496
68829SOL    HW2 8385   1.970   6.379   3.597
68830SOL     OW 8386  11.259  10.032  13.939
68830SOL    HW1 8387  11.287  10.104  13.883
68830SOL    HW2 8388  11.228   9.965  13.878
68831SOL     OW 8389   2.744   0.121   9.869
68831SOL    HW1 8390   2.832   0.151   9.848
68831SOL    HW2 8391   2.753   0.073   9.951
68832SOL     OW 8392  14.042  11.268   0.109
68832SOL    HW1 8393  14.103  11.297   0.177
68832SOL    HW2 8394  14.056  11.329   0.036
68833SOL     OW 8395   1.417  14.795  13.991
68833SOL    HW1 8396   1.349  14.785  14.059
68833SOL    HW2 8397   1.368  14.809  13.910
68834SOL     OW 8398  12.548  11.261   8.034
68834SOL    HW1 8399  12.589  11.188   8.080
68834SOL    HW2 8400  12.457  11.235   8.023
68835SOL     OW 8401   9.421   0.077   7.020
68835SOL    HW1 8402   9.445   0.084   7.113
68835SOL    HW2 8403   9.503   0.088   6.973
68836SOL     OW 8404   6.137   8.664   2.627
68836SOL    HW1 8405   6.118   8.741   2.574
68836SOL    HW2 8406   6.213   8.689   2.680
68837SOL     OW 8407   8.562   8.455  12.361
68837SOL    HW1 8408   8.520   8.541  12.359
68837SOL    HW2 8409   8.644   8.467  12.314
68838SOL     OW 8410  13.863   8.739   7.844
68838SOL    HW1 8411  13.947   8.728   7.888
68838SOL    HW2 8412  13.801   8.756   7.915
68839SOL     OW 8413   6.237   7.011  11.829
68839SOL    HW1 8414   6.333   7.013  11.826
68839SOL    HW2 8415   6.213   6.936  11.775
68840SOL     OW 8416  12.986  14.075   2.260
68840SOL    HW1 8417  12.909  14.123   2.289
68840SOL    HW2 8418  13.008  14.112   2.175
68841SOL     OW 8419   8.372   1.667   0.078
68841SOL    HW1 8420   8.351   1.728   0.148
68841SOL    HW2 8421   8.402   1.588   0.123
68842SOL     OW 8422   7.969  11.861   1.451
68842SOL    HW1 8423   7.907  11.795   1.419
68842SOL    HW2 8424   7.959  11.857   1.547
68843SOL     OW 8425  12.398   1.684   1.263
68843SOL    HW1 8426  12.393   1.618   1.332
68843SOL    HW2 8427  12.360   1.763   1.302
68844SOL     OW 8428  10.558  12.519   4.204
68844SOL    HW1 8429  10.502  12.453   4.247
68844SOL    HW2 8430  10.502  12.597   4.197
68845SOL     OW 8431   5.898   8.886   4.583
68845SOL    HW1 8432   5.841   8.840   4.645
68845SOL    HW2 8433   5.884   8.841   4.499
68846SOL     OW 8434   7.981  13.209   3.491
68846SOL    HW1 8435   7.946  13.264   3.421
68846SOL    HW2 8436   8.075  13.203   3.472
68847SOL     OW 8437   6.985   1.060  13.828
68847SOL    HW1 8438   7.025   1.002  13.763
68847SOL    HW2 8439   6.953   1.000  13.896
68848SOL     OW 8440   2.288   4.124  13.140
68848SOL    HW1 8441   2.283   4.103  13.046
68848SOL    HW2 8442   2.369   4.083  13.170
68849SOL     OW 8443  13.367  14.059  12.315
68849SOL    HW1 8444  13.314  14.139  12.308
68849SOL    HW2 8445  13.305  13.988  12.298
68850SOL     OW 8446  14.048  13.911   9.559
68850SOL    HW1 8447  14.029  13.818   9.573
68850SOL    HW2 8448  14.141  13.919   9.580
68851SOL     OW 8449   1.144   6.178   6.099
68851SOL    HW1 8450   1.239   6.191   6.094
68851SOL    HW2 8451   1.111   6.259   6.137
68852SOL     OW 8452   1.999   9.227  11.804
68852SOL    HW1 8453   1.920   9.175  11.788
68852SOL    HW2 8454   2.060   9.165  11.843
68853SOL     OW 8455   2.243  13.614  13.774
68853SOL    HW1 8456   2.272  13.705  13.779
68853SOL    HW2 8457   2.302  13.568  13.834
68854SOL     OW 8458   4.548   2.991   4.607
68854SOL    HW1 8459   4.591   3.077   4.601
68854SOL    HW2 8460   4.456   3.012   4.625
68855SOL     OW 8461   4.108   7.949   5.625
68855SOL    HW1 8462   4.140   7.978   5.539
68855SOL    HW2 8463   4.133   7.857   5.629
68856SOL     OW 8464  13.032  13.997   8.166
68856SOL    HW1 8465  12.953  13.943   8.174
68856SOL    HW2 8466  13.095  13.954   8.224
68857SOL     OW 8467   3.359   2.048   7.095
68857SOL    HW1 8468   3.404   2.060   7.179
68857SOL    HW2 8469   3.271   2.021   7.118
68858SOL     OW 8470  13.404  10.890  14.082
68858SOL    HW1 8471  13.336  10.949  14.049
68858SOL    HW2 8472  13.401  10.901  14.177
68859SOL     OW 8473   5.371   3.014  14.381
68859SOL    HW1 8474   5.350   2.949  14.448
68859SOL    HW2 8475   5.286   3.040  14.345
68860SOL     OW 8476  10.908   7.923   0.404
68860SOL    HW1 8477  10.982   7.962   0.357
68860SOL    HW2 8478  10.895   7.839   0.361
68861SOL     OW 8479   3.804   6.884   3.780
68861SOL    HW1 8480   3.871   6.929   3.728
68861SOL    HW2 8481   3.779   6.947   3.847
68862SOL     OW 8482  14.143   0.367  10.855
68862SOL    HW1 8483  14.196   0.348  10.932
68862SOL    HW2 8484  14.091   0.288  10.841
68863SOL     OW 8485   5.507  14.500  14.226
68863SOL    HW1 8486   5.468  14.494  14.139
68863SOL    HW2 8487   5.440  14.545  14.279
68864SOL     OW 8488   4.568  10.237  14.632
68864SOL    HW1 8489   4.580  10.146  14.659
68864SOL    HW2 8490   4.657  10.270  14.617
68865SOL     OW 8491  14.261  14.629  13.586
68865SOL    HW1 8492  14.263  14.722  13.564
68865SOL    HW2 8493  14.342  14.614  13.635
68866SOL     OW 8494   9.799   5.988  14.657
68866SOL    HW1 8495   9.747   6.050  14.607
68866SOL    HW2 8496   9.887   5.994  14.619
68867SOL     OW 8497   8.544   5.836   6.856
68867SOL    HW1 8498   8.489   5.767   6.894
68867SOL    HW2 8499   8.564   5.894   6.930
68868SOL     OW 8500   8.177  10.755   7.514
68868SOL    HW1 8501   8.158  10.780   7.423
68868SOL    HW2 8502   8.147  10.665   7.520
68869SOL     OW 8503  12.229  13.919   4.603
68869SOL    HW1 8504  12.314  13.944   4.638
68869SOL    HW2 8505  12.209  13.835   4.645
68870SOL     OW 8506   1.212  14.435   2.193
68870SOL    HW1 8507   1.290  14.480   2.225
68870SOL    HW2 8508   1.155  14.505   2.161
68871SOL     OW 8509  12.399  10.586   6.695
68871SOL    HW1 8510  12.489  10.585   6.729
68871SOL    HW2 8511  12.391  10.504   6.647
68872SOL     OW 8512   3.594   6.156   8.317
68872SOL    HW1 8513   3.649   6.202   8.254
68872SOL    HW2 8514   3.594   6.065   8.286
68873SOL     OW 8515   5.973  12.101   6.794
68873SOL    HW1 8516   5.958  12.188   6.756
68873SOL    HW2 8517   5.982  12.117   6.888
68874SOL     OW 8518   8.532  14.788   7.121
68874SOL    HW1 8519   8.581  14.724   7.173
68874SOL    HW2 8520   8.466  14.736   7.075
68875SOL     OW 8521   2.728  12.076  12.176
68875SOL    HW1 8522   2.739  12.089  12.082
68875SOL    HW2 8523   2.816  12.078  12.211
68876SOL     OW 8524   6.081   3.879  10.074
68876SOL    HW1 8525   6.137   3.856  10.000
68876SOL    HW2 8526   6.067   3.974  10.065
68877SOL     OW 8527   7.321   1.822   3.232
68877SOL    HW1 8528   7.244   1.782   3.191
68877SOL    HW2 8529   7.328   1.908   3.189
68878SOL     OW 8530  14.675  13.788   3.857
68878SOL    HW1 8531  14.705  13.739   3.933
68878SOL    HW2 8532  14.687  13.728   3.783
68879SOL     OW 8533   4.622   1.428   1.622
68879SOL    HW1 8534   4.706   1.444   1.664
68879SOL    HW2 8535   4.627   1.475   1.539
68880SOL     OW 8536   8.225   6.340   8.848
68880SOL    HW1 8537   8.267   6.379   8.925
68880SOL    HW2 8538   8.132   6.351   8.863
68881SOL     OW 8539   1.800   7.297  12.728
68881SOL    HW1 8540   1.751   7.346  12.661
68881SOL    HW2 8541   1.882   7.272  12.684
68882SOL     OW 8542   0.637  10.174   0.734
68882SOL    HW1 8543   0.688  10.254   0.724
68882SOL    HW2 8544   0.623  10.143   0.645
68883SOL     OW 8545  12.314   9.266  12.419
68883SOL    HW1 8546  12.398   9.286  12.460
68883SOL    HW2 8547  12.296   9.341  12.362
68884SOL     OW 8548   9.251  14.834   8.996
68884SOL    HW1 8549   9.283  14.784   8.920
68884SOL    HW2 8550   9.189  14.775   9.039
68885SOL     OW 8551  12.041   0.832  14.286
68885SOL    HW1 8552  12.010   0.879  14.363
68885SOL    HW2 8553  12.009   0.742  14.299
68886SOL     OW 8554  10.824   7.967   9.679
68886SOL    HW1 8555  10.758   7.907   9.712
68886SOL    HW2 8556  10.907   7.919   9.687
68887SOL     OW 8557   5.769   8.794   1.686
68887SOL    HW1 8558   5.715   8.858   1.731
68887SOL    HW2 8559   5.723   8.711   1.697
68888SOL     OW 8560  13.733   1.570   3.327
68888SOL    HW1 8561  13.803   1.575   3.393
68888SOL    HW2 8562  13.666   1.631   3.359
68889SOL     OW 8563  10.523  10.367  10.649
68889SOL    HW1 8564  10.478  10.433  10.597
68889SOL    HW2 8565  10.467  10.356  10.726
68890SOL     OW 8566   9.857   0.616   9.767
68890SOL    HW1 8567   9.779   0.607   9.820
68890SOL    HW2 8568   9.930   0.603   9.828
68891SOL     OW 8569   0.961  11.087   2.744
68891SOL    HW1 8570   0.976  11.055   2.655
68891SOL    HW2 8571   0.932  11.010   2.794
68892SOL     OW 8572   8.974   0.207   2.285
68892SOL    HW1 8573   9.064   0.199   2.253
68892SOL    HW2 8574   8.974   0.162   2.369
68893SOL     OW 8575  10.215  12.578   0.677
68893SOL    HW1 8576  10.253  12.498   0.640
68893SOL    HW2 8577  10.284  12.644   0.669
68894SOL     OW 8578   5.147   6.323   1.077
68894SOL    HW1 8579   5.093   6.249   1.048
68894SOL    HW2 8580   5.235   6.300   1.049
68895SOL     OW 8581   5.557   9.305   6.854
68895SOL    HW1 8582   5.601   9.313   6.769
68895SOL    HW2 8583   5.619   9.257   6.908
68896SOL     OW 8584   5.097   4.310   2.787
68896SOL    HW1 8585   5.104   4.216   2.803
68896SOL    HW2 8586   5.105   4.350   2.874
68897SOL     OW 8587   4.852   8.478   4.275
68897SOL    HW1 8588   4.936   8.473   4.319
68897SOL    HW2 8589   4.787   8.465   4.344
68898SOL     OW 8590   5.331   6.839   7.449
68898SOL    HW1 8591   5.401   6.786   7.411
68898SOL    HW2 8592   5.356   6.849   7.541
68899SOL     OW 8593   6.526   4.788   4.075
68899SOL    HW1 8594   6.497   4.700   4.100
68899SOL    HW2 8595   6.604   4.774   4.022
68900SOL     OW 8596   1.994   8.122   0.375
68900SOL    HW1 8597   2.019   8.214   0.381
68900SOL    HW2 8598   2.041   8.080   0.448
68901SOL     OW 8599  13.162   8.709   7.912
68901SOL    HW1 8600  13.104   8.678   7.843
68901SOL    HW2 8601  13.120   8.788   7.946
68902SOL     OW 8602   5.181  13.899   7.707
68902SOL    HW1 8603   5.212  13.899   7.616
68902SOL    HW2 8604   5.258  13.923   7.759
68903SOL     OW 8605   0.844   7.176   6.441
68903SOL    HW1 8606   0.839   7.157   6.347
68903SOL    HW2 8607   0.878   7.095   6.479
68904SOL     OW 8608   8.111  12.355   7.238
68904SOL    HW1 8609   8.088  12.433   7.288
68904SOL    HW2 8610   8.194  12.326   7.275
68905SOL     OW 8611   6.629   4.055  14.133
68905SOL    HW1 8612   6.642   4.027  14.042
68905SOL    HW2 8613   6.628   3.973  14.183
68906SOL     OW 8614   5.059   9.948   7.290
68906SOL    HW1 8615   4.975   9.928   7.248
68906SOL    HW2 8616   5.121   9.956   7.217
68907SOL     OW 8617  12.529   4.477  11.442
68907SOL    HW1 8618  12.613   4.479  11.397
68907SOL    HW2 8619  12.547   4.437  11.527
68908SOL     OW 8620   5.867   6.407   2.091
68908SOL    HW1 8621   5.781   6.408   2.049
68908SOL    HW2 8622   5.871   6.322   2.135
68909SOL     OW 8623   7.397   2.460  12.818
68909SOL    HW1 8624   7.402   2.554  12.802
68909SOL    HW2 8625   7.478   2.425  12.781
68910SOL     OW 8626   7.027   9.359   4.471
68910SOL    HW1 8627   6.932   9.351   4.484
68910SOL    HW2 8628   7.049   9.284   4.415
68911SOL     OW 8629   7.414   1.132   6.606
68911SOL    HW1 8630   7.434   1.151   6.698
68911SOL    HW2 8631   7.319   1.120   6.604
68912SOL     OW 8632   0.973  10.881  12.747
68912SOL    HW1 8633   1.042  10.946  12.759
68912SOL    HW2 8634   0.917  10.916  12.678
68913SOL     OW 8635   7.703   3.333  12.282
68913SOL    HW1 8636   7.729   3.241  12.291
68913SOL    HW2 8637   7.777   3.374  12.237
68914SOL     OW 8638   7.785   9.656  13.579
68914SOL    HW1 8639   7.764   9.637  13.488
68914SOL    HW2 8640   7.827   9.576  13.612
68915SOL     OW 8641   6.610  10.320  14.709
68915SOL    HW1 8642   6.585  10.243  14.658
68915SOL    HW2 8643   6.540  10.383  14.695
68916SOL     OW 8644   1.521   8.127  14.245
68916SOL    HW1 8645   1.506   8.163  14.332
68916SOL    HW2 8646   1.510   8.202  14.186
68917SOL     OW 8647   9.291  13.738   6.509
68917SOL    HW1 8648   9.278  13.683   6.432
68917SOL    HW2 8649   9.366  13.794   6.486
68918SOL     OW 8650   9.696   5.777   1.599
68918SOL    HW1 8651   9.615   5.750   1.642
68918SOL    HW2 8652   9.693   5.873   1.600
68919SOL     OW 8653   2.730  13.854   3.813
68919SOL    HW1 8654   2.824  13.861   3.801
68919SOL    HW2 8655   2.714  13.760   3.828
68920SOL     OW 8656  13.258   2.272   4.515
68920SOL    HW1 8657  13.281   2.225   4.595
68920SOL    HW2 8658  13.304   2.356   4.523
68921SOL     OW 8659  11.147  13.122  13.746
68921SOL    HW1 8660  11.054  13.122  13.768
68921SOL    HW2 8661  11.148  13.120  13.650
68922SOL     OW 8662  11.675   6.700   3.113
68922SOL    HW1 8663  11.581   6.712   3.125
68922SOL    HW2 8664  11.715   6.768   3.168
68923SOL     OW 8665   6.470  13.816  12.893
68923SOL    HW1 8666   6.473  13.910  12.914
68923SOL    HW2 8667   6.428  13.776  12.969
68924SOL     OW 8668  11.613   4.656   9.787
68924SOL    HW1 8669  11.606   4.667   9.692
68924SOL    HW2 8670  11.705   4.631   9.801
68925SOL     OW 8671   8.631   6.018   2.691
68925SOL    HW1 8672   8.646   6.061   2.775
68925SOL    HW2 8673   8.716   6.022   2.647
68926SOL     OW 8674   1.979   0.914   7.043
68926SOL    HW1 8675   1.946   0.840   7.095
68926SOL    HW2 8676   1.978   0.882   6.953
68927SOL     OW 8677   2.438   6.583  13.508
68927SOL    HW1 8678   2.373   6.548  13.446
68927SOL    HW2 8679   2.397   6.572  13.594
68928SOL     OW 8680  10.206  11.683   0.220
68928SOL    HW1 8681  10.188  11.593   0.193
68928SOL    HW2 8682  10.228  11.676   0.312
68929SOL     OW 8683   0.911   5.111   8.348
68929SOL    HW1 8684   0.892   5.183   8.408
68929SOL    HW2 8685   1.005   5.097   8.356
68930SOL     OW 8686  10.154  12.327  10.478
68930SOL    HW1 8687  10.074  12.305  10.526
68930SOL    HW2 8688  10.164  12.421  10.491
68931SOL     OW 8689   3.480  11.571   7.468
68931SOL    HW1 8690   3.530  11.652   7.477
68931SOL    HW2 8691   3.392  11.600   7.443
68932SOL     OW 8692   8.422   0.744   0.766
68932SOL    HW1 8693   8.458   0.668   0.812
68932SOL    HW2 8694   8.385   0.708   0.685
68933SOL     OW 8695   5.431  10.242   9.762
68933SOL    HW1 8696   5.462  10.316   9.814
68933SOL    HW2 8697   5.474  10.165   9.800
68934SOL     OW 8698   0.605  12.325  10.619
68934SOL    HW1 8699   0.517  12.351  10.646
68934SOL    HW2 8700   0.659  12.402  10.635
68935SOL     OW 8701  13.040   6.130   9.111
68935SOL    HW1 8702  13.055   6.103   9.021
68935SOL    HW2 8703  13.070   6.056   9.164
68936SOL     OW 8704  11.371   1.895   4.236
68936SOL    HW1 8705  11.441   1.865   4.294
68936SOL    HW2 8706  11.360   1.824   4.173
68937SOL     OW 8707  11.496   3.888   7.972
68937SOL    HW1 8708  11.590   3.890   7.993
68937SOL    HW2 8709  11.483   3.964   7.916
68938SOL     OW 8710   3.542   6.613  10.314
68938SOL    HW1 8711   3.556   6.667  10.391
68938SOL    HW2 8712   3.618   6.629  10.259
68939SOL     OW 8713  14.641   3.600   1.544
68939SOL    HW1 8714  14.566   3.641   1.585
68939SOL    HW2 8715  14.657   3.521   1.596
68940SOL     OW 8716  14.849   2.536   7.031
68940SOL    HW1 8717  14.766   2.508   6.992
68940SOL    HW2 8718  14.860   2.626   7.002
68941SOL     OW 8719  14.536   9.745  10.368
68941SOL    HW1 8720  14.523   9.730  10.462
68941SOL    HW2 8721  14.522   9.839  10.357
68942SOL     OW 8722  13.755   5.955   1.499
68942SOL    HW1 8723  13.825   5.916   1.551
68942SOL    HW2 8724  13.677   5.904   1.521
68943SOL     OW 8725   3.041   1.307   6.757
68943SOL    HW1 8726   2.974   1.253   6.798
68943SOL    HW2 8727   3.091   1.246   6.702
68944SOL     OW 8728   9.190   8.360   9.671
68944SOL    HW1 8729   9.159   8.295   9.734
68944SOL    HW2 8730   9.263   8.404   9.715
68945SOL     OW 8731   5.340   3.412   3.910
68945SOL    HW1 8732   5.353   3.451   3.823
68945SOL    HW2 8733   5.413   3.446   3.962
68946SOL     OW 8734  11.357  14.340   5.830
68946SOL    HW1 8735  11.306  14.270   5.790
68946SOL    HW2 8736  11.401  14.383   5.756
68947SOL     OW 8737   9.661   9.982   9.829
68947SOL    HW1 8738   9.575   9.971   9.789
68947SOL    HW2 8739   9.688  10.071   9.806
68948SOL     OW 8740  12.274   7.718   5.771
68948SOL    HW1 8741  12.295   7.657   5.700
68948SOL    HW2 8742  12.213   7.780   5.731
68949SOL     OW 8743   3.355   8.296   2.183
68949SOL    HW1 8744   3.361   8.241   2.261
68949SOL    HW2 8745   3.275   8.347   2.196
68950SOL     OW 8746   7.894   0.476   9.014
68950SOL    HW1 8747   7.884   0.568   8.989
68950SOL    HW2 8748   7.915   0.431   8.933
68951SOL     OW 8749   9.793  14.781   3.744
68951SOL    HW1 8750   9.825  14.772   3.834
68951SOL    HW2 8751   9.837  14.860   3.711
68952SOL     OW 8752   8.612   9.213   6.408
68952SOL    HW1 8753   8.694   9.200   6.455
68952SOL    HW2 8754   8.545   9.178   6.466
68953SOL     OW 8755  14.722   1.106  14.548
68953SOL    HW1 8756  14.783   1.098  14.475
68953SOL    HW2 8757  14.693   1.017  14.565
68954SOL     OW 8758   2.869   4.952   3.027
68954SOL    HW1 8759   2.921   4.871   3.035
68954SOL    HW2 8760   2.934   5.022   3.032
68955SOL     OW 8761   2.381   7.103  12.331
68955SOL    HW1 8762   2.352   7.035  12.270
68955SOL    HW2 8763   2.326   7.179  12.311
68956SOL     OW 8764   3.123  11.860   3.384
68956SOL    HW1 8765   3.031  11.885   3.370
68956SOL    HW2 8766   3.171  11.942   3.381
68957SOL     OW 8767   6.351  12.499  10.284
68957SOL    HW1 8768   6.438  12.497  10.323
68957SOL    HW2 8769   6.344  12.588  10.248
68958SOL     OW 8770   8.736  13.135  10.265
68958SOL    HW1 8771   8.722  13.222  10.301
68958SOL    HW2 8772   8.649  13.095  10.263
68959SOL     OW 8773   1.257  12.771   4.194
68959SOL    HW1 8774   1.162  12.771   4.209
68959SOL    HW2 8775   1.289  12.695   4.242
68960SOL     OW 8776  11.137   5.560   3.068
68960SOL    HW1 8777  11.207   5.549   3.004
68960SOL    HW2 8778  11.180   5.601   3.143
68961SOL     OW 8779   6.970   7.781  12.267
68961SOL    HW1 8780   6.942   7.853  12.210
68961SOL    HW2 8781   6.888   7.744  12.299
68962SOL     OW 8782  10.287   1.126  10.161
68962SOL    HW1 8783  10.201   1.123  10.201
68962SOL    HW2 8784  10.313   1.218  10.163
68963SOL     OW 8785  13.315   6.302  11.520
68963SOL    HW1 8786  13.376   6.229  11.521
68963SOL    HW2 8787  13.366   6.376  11.486
68964SOL     OW 8788  11.269  12.908  12.871
68964SOL    HW1 8789  11.300  12.819  12.855
68964SOL    HW2 8790  11.305  12.931  12.957
68965SOL     OW 8791   1.864   4.873  13.537
68965SOL    HW1 8792   1.862   4.863  13.632
68965SOL    HW2 8793   1.774   4.855  13.510
68966SOL     OW 8794   6.189   7.601  13.766
68966SOL    HW1 8795   6.104   7.635  13.792
68966SOL    HW2 8796   6.251   7.642  13.826
68967SOL     OW 8797  10.767  10.024  10.034
68967SOL    HW1 8798  10.849   9.978  10.013
68967SOL    HW2 8799  10.789  10.078  10.111
68968SOL     OW 8800   6.114  12.779   5.769
68968SOL    HW1 8801   6.157  12.851   5.815
68968SOL    HW2 8802   6.026  12.776   5.805
68969SOL     OW 8803  10.882   3.521   7.974
68969SOL    HW1 8804  10.848   3.601   8.016
68969SOL    HW2 8805  10.950   3.491   8.034
68970SOL     OW 8806   1.295   0.781  13.176
68970SOL    HW1 8807   1.383   0.758  13.148
68970SOL    HW2 8808   1.268   0.851  13.116
68971SOL     OW 8809   5.042  11.676   2.678
68971SOL    HW1 8810   5.123  11.667   2.728
68971SOL    HW2 8811   5.057  11.752   2.622
68972SOL     OW 8812   0.997  11.042  11.744
68972SOL    HW1 8813   1.030  11.104  11.679
68972SOL    HW2 8814   0.908  11.072  11.762
68973SOL     OW 8815   8.421  12.323   8.568
68973SOL    HW1 8816   8.401  12.331   8.662
68973SOL    HW2 8817   8.352  12.265   8.535
68974SOL     OW 8818   1.573  10.194   1.483
68974SOL    HW1 8819   1.609  10.281   1.462
68974SOL    HW2 8820   1.480  10.201   1.463
68975SOL     OW 8821   7.493   4.182  13.168
68975SOL    HW1 8822   7.454   4.163  13.253
68975SOL    HW2 8823   7.533   4.269  13.179
68976SOL     OW 8824   3.392   8.477   0.867
68976SOL    HW1 8825   3.367   8.388   0.842
68976SOL    HW2 8826   3.425   8.469   0.957
68977SOL     OW 8827  10.141  10.165   6.629
68977SOL    HW1 8828  10.156  10.197   6.718
68977SOL    HW2 8829  10.145  10.070   6.637
68978SOL     OW 8830   4.253  13.529   3.030
68978SOL    HW1 8831   4.160  13.550   3.032
68978SOL    HW2 8832   4.280  13.542   2.939
68979SOL     OW 8833  10.121   3.030   0.643
68979SOL    HW1 8834  10.131   2.954   0.700
68979SOL    HW2 8835  10.120   3.105   0.702
68980SOL     OW 8836   3.629   5.005  12.493
68980SOL    HW1 8837   3.680   4.998  12.411
68980SOL    HW2 8838   3.666   4.937  12.549
68981SOL     OW 8839   9.085  14.522   2.840
68981SOL    HW1 8840   9.077  14.452   2.774
68981SOL    HW2 8841   9.177  14.548   2.837
68982SOL     OW 8842  13.303  14.248   5.268
68982SOL    HW1 8843  13.321  14.301   5.346
68982SOL    HW2 8844  13.224  14.199   5.291
68983SOL     OW 8845   2.035   3.336   2.173
68983SOL    HW1 8846   1.961   3.384   2.135
68983SOL    HW2 8847   2.029   3.356   2.267
68984SOL     OW 8848   8.960   8.633   6.962
68984SOL    HW1 8849   8.927   8.559   7.014
68984SOL    HW2 8850   8.961   8.600   6.872
68985SOL     OW 8851  10.377   5.868   1.281
68985SOL    HW1 8852  10.390   5.880   1.375
68985SOL    HW2 8853  10.379   5.956   1.245
68986SOL     OW 8854  10.370  10.526   5.131
68986SOL    HW1 8855  10.356  10.620   5.118
68986SOL    HW2 8856  10.457  10.510   5.094
68987SOL     OW 8857   3.173   3.316   4.006
68987SOL    HW1 8858   3.178   3.401   4.050
68987SOL    HW2 8859   3.120   3.333   3.928
68988SOL     OW 8860  13.940   4.108   2.204
68988SOL    HW1 8861  13.935   4.143   2.115
68988SOL    HW2 8862  13.932   4.184   2.261
68989SOL     OW 8863  14.064  14.042  10.739
68989SOL    HW1 8864  14.076  13.954  10.704
68989SOL    HW2 8865  14.127  14.096  10.691
68990SOL     OW 8866  13.841   3.793   9.750
68990SOL    HW1 8867  13.823   3.841   9.669
68990SOL    HW2 8868  13.882   3.857   9.808
68991SOL     OW 8869   5.146  12.262  13.112
68991SOL    HW1 8870   5.234  12.274  13.146
68991SOL    HW2 8871   5.143  12.170  13.085
68992SOL     OW 8872   3.456   8.229   3.387
68992SOL    HW1 8873   3.493   8.281   3.316
68992SOL    HW2 8874   3.504   8.146   3.384
68993SOL     OW 8875   4.566   1.500  11.863
68993SOL    HW1 8876   4.508   1.482  11.789
68993SOL    HW2 8877   4.646   1.453  11.843
68994SOL     OW 8878   3.314   4.313   8.723
68994SOL    HW1 8879   3.233   4.280   8.760
68994SOL    HW2 8880   3.287   4.354   8.641
68995SOL     OW 8881  10.217   1.604   7.690
68995SOL    HW1 8882  10.124   1.602   7.713
68995SOL    HW2 8883  10.240   1.513   7.674
68996SOL     OW 8884   3.738   3.778   2.338
68996SOL    HW1 8885   3.773   3.839   2.404
68996SOL    HW2 8886   3.647   3.805   2.327
68997SOL     OW 8887   7.072   6.325   3.026
68997SOL    HW1 8888   7.140   6.267   2.991
68997SOL    HW2 8889   7.035   6.276   3.100
68998SOL     OW 8890   2.944   3.962   8.764
68998SOL    HW1 8891   2.853   3.947   8.738
68998SOL    HW2 8892   2.975   3.876   8.792
68999SOL     OW 8893   8.640   8.669  13.463
68999SOL    HW1 8894   8.563   8.715  13.495
68999SOL    HW2 8895   8.712   8.700  13.519
69000SOL     OW 8896  12.229   5.544  11.545
69000SOL    HW1 8897  12.198   5.542  11.454
69000SOL    HW2 8898  12.274   5.628  11.554
69001SOL     OW 8899  10.517   7.865   2.365
69001SOL    HW1 8900  10.608   7.885   2.344
69001SOL    HW2 8901  10.516   7.772   2.384
69002SOL     OW 8902  12.859   3.368  13.501
69002SOL    HW1 8903  12.890   3.401  13.585
69002SOL    HW2 8904  12.825   3.281  13.521
69003SOL     OW 8905  11.565   6.628  13.297
69003SOL    HW1 8906  11.581   6.712  13.253
69003SOL    HW2 8907  11.481   6.598  13.262
69004SOL     OW 8908   4.003   9.590   4.068
69004SOL    HW1 8909   4.040   9.670   4.031
69004SOL    HW2 8910   3.959   9.617   4.148
69005SOL     OW 8911  10.810   1.681  11.621
69005SOL    HW1 8912  10.833   1.654  11.532
69005SOL    HW2 8913  10.783   1.773  11.612
69006SOL     OW 8914   0.311   0.732  10.972
69006SOL    HW1 8915   0.218   0.722  10.992
69006SOL    HW2 8916   0.313   0.774  10.886
69007SOL     OW 8917  11.563  11.481   6.581
69007SOL    HW1 8918  11.636  11.534   6.611
69007SOL    HW2 8919  11.520  11.535   6.515
69008SOL     OW 8920   6.860  13.967   6.335
69008SOL    HW1 8921   6.805  13.990   6.409
69008SOL    HW2 8922   6.799  13.937   6.268
69009SOL     OW 8923   7.166  11.920   0.717
69009SOL    HW1 8924   7.232  11.967   0.665
69009SOL    HW2 8925   7.100  11.892   0.653
69010SOL     OW 8926  12.378   5.721   9.650
69010SOL    HW1 8927  12.295   5.722   9.602
69010SOL    HW2 8928  12.355   5.691   9.737
69011SOL     OW 8929  12.613  13.325   1.255
69011SOL    HW1 8930  12.562  13.399   1.287
69011SOL    HW2 8931  12.698  13.363   1.232
69012SOL     OW 8932   8.219  11.915   4.100
69012SOL    HW1 8933   8.227  11.845   4.036
69012SOL    HW2 8934   8.242  11.994   4.052
69013SOL     OW 8935  14.449   4.652   0.957
69013SOL    HW1 8936  14.445   4.712   0.883
69013SOL    HW2 8937  14.542   4.636   0.972
69014SOL     OW 8938   9.067   8.458  13.547
69014SOL    HW1 8939   9.084   8.499  13.632
69014SOL    HW2 8940   9.001   8.392  13.565
69015SOL     OW 8941  14.381   2.696  13.245
69015SOL    HW1 8942  14.416   2.785  13.245
69015SOL    HW2 8943  14.442   2.646  13.299
69016SOL     OW 8944   8.529  11.176   5.113
69016SOL    HW1 8945   8.519  11.139   5.201
69016SOL    HW2 8946   8.620  11.207   5.111
69017SOL     OW 8947  14.567   0.543   7.951
69017SOL    HW1 8948  14.563   0.567   8.044
69017SOL    HW2 8949  14.660   0.530   7.933
69018SOL     OW 8950   7.285   1.648  10.666
69018SOL    HW1 8951   7.209   1.655  10.724
69018SOL    HW2 8952   7.290   1.555  10.644
69019SOL     OW 8953   1.934   7.196   4.317
69019SOL    HW1 8954   1.958   7.287   4.303
69019SOL    HW2 8955   1.877   7.197   4.394
69020SOL     OW 8956  14.099   1.729   5.640
69020SOL    HW1 8957  14.181   1.774   5.660
69020SOL    HW2 8958  14.046   1.740   5.719
69021SOL     OW 8959   5.847   1.373   8.771
69021SOL    HW1 8960   5.808   1.437   8.711
69021SOL    HW2 8961   5.806   1.391   8.855
69022SOL     OW 8962   4.855   6.435  13.543
69022SOL    HW1 8963   4.846   6.350  13.586
69022SOL    HW2 8964   4.773   6.480  13.561
69023SOL     OW 8965   5.398   0.412   4.037
69023SOL    HW1 8966   5.414   0.379   3.949
69023SOL    HW2 8967   5.438   0.347   4.095
69024SOL     OW 8968   9.075  13.727   7.593
69024SOL    HW1 8969   9.076  13.822   7.601
69024SOL    HW2 8970   9.081  13.711   7.498
69025SOL     OW 8971  14.729   8.651   4.379
69025SOL    HW1 8972  14.797   8.714   4.354
69025SOL    HW2 8973  14.674   8.643   4.301
69026SOL     OW 8974   9.791   9.153   5.620
69026SOL    HW1 8975   9.865   9.202   5.585
69026SOL    HW2 8976   9.827   9.108   5.697
69027SOL     OW 8977   3.674   7.747   0.894
69027SOL    HW1 8978   3.764   7.714   0.894
69027SOL    HW2 8979   3.627   7.687   0.836
69028SOL     OW 8980   8.079  10.834   0.044
69028SOL    HW1 8981   8.095  10.793   0.128
69028SOL    HW2 8982   8.027  10.770  14.867
69029SOL     OW 8983   9.417   6.489  12.766
69029SOL    HW1 8984   9.376   6.510  12.682
69029SOL    HW2 8985   9.442   6.575  12.802
69030SOL     OW 8986   1.669   3.766   7.293
69030SOL    HW1 8987   1.685   3.730   7.380
69030SOL    HW2 8988   1.701   3.699   7.233
69031SOL     OW 8989  13.629   5.079   6.151
69031SOL    HW1 8990  13.582   5.121   6.079
69031SOL    HW2 8991  13.579   5.000   6.170
69032SOL     OW 8992   7.525  11.813   1.983
69032SOL    HW1 8993   7.536  11.779   1.894
69032SOL    HW2 8994   7.601  11.870   1.996
69033SOL     OW 8995  13.744   5.686  14.265
69033SOL    HW1 8996  13.690   5.613  14.293
69033SOL    HW2 8997  13.719   5.700  14.174
69034SOL     OW 8998   9.798   8.688   0.884
69034SOL    HW1 8999   9.712   8.652   0.864
69034SOL    HW2 9000   9.829   8.637   0.959
69035SOL     OW 9001   6.946  10.952   6.418
69035SOL    HW1 9002   6.994  10.875   6.388
69035SOL    HW2 9003   6.872  10.916   6.467
69036SOL     OW 9004   4.974   7.820   0.437
69036SOL    HW1 9005   4.928   7.764   0.500
69036SOL    HW2 9006   5.012   7.890   0.490
69037SOL     OW 9007   3.222  12.635   7.337
69037SOL    HW1 9008   3.277  12.663   7.264
69037SOL    HW2 9009   3.271  12.658   7.415
69038SOL     OW 9010  11.902   7.632   0.235
69038SOL    HW1 9011  11.906   7.558   0.174
69038SOL    HW2 9012  11.935   7.597   0.317
69039SOL     OW 9013   0.196   9.235  12.368
69039SOL    HW1 9014   0.256   9.294  12.323
69039SOL    HW2 9015   0.168   9.173  12.301
69040SOL     OW 9016   5.011   4.443   1.390
69040SOL    HW1 9017   5.008   4.517   1.451
69040SOL    HW2 9018   4.977   4.369   1.441
69041SOL     OW 9019   4.935   1.555  14.350
69041SOL    HW1 9020   5.000   1.613  14.309
69041SOL    HW2 9021   4.948   1.568  14.444
69042SOL     OW 9022   3.177   7.404   6.492
69042SOL    HW1 9023   3.235   7.364   6.557
69042SOL    HW2 9024   3.184   7.348   6.415
69043SOL     OW 9025   4.677   2.219  14.724
69043SOL    HW1 9026   4.592   2.253  14.752
69043SOL    HW2 9027   4.678   2.128  14.754
69044SOL     OW 9028   0.196   4.144   5.037
69044SOL    HW1 9029   0.143   4.223   5.030
69044SOL    HW2 9030   0.241   4.137   4.953
69045SOL     OW 9031   3.625  10.227  14.251
69045SOL    HW1 9032   3.637  10.230  14.156
69045SOL    HW2 9033   3.611  10.319  14.276
69046SOL     OW 9034  13.644  10.767   2.598
69046SOL    HW1 9035  13.601  10.751   2.514
69046SOL    HW2 9036  13.590  10.833   2.641
69047SOL     OW 9037   6.339   6.667   3.446
69047SOL    HW1 9038   6.309   6.579   3.468
69047SOL    HW2 9039   6.290   6.725   3.506
69048SOL     OW 9040   9.482   8.491   8.416
69048SOL    HW1 9041   9.441   8.405   8.419
69048SOL    HW2 9042   9.446   8.532   8.338
69049SOL     OW 9043   0.427  11.383   3.310
69049SOL    HW1 9044   0.493  11.328   3.352
69049SOL    HW2 9045   0.430  11.465   3.358
69050SOL     OW 9046  10.126   0.222   7.855
69050SOL    HW1 9047  10.056   0.172   7.896
69050SOL    HW2 9048  10.193   0.156   7.833
69051SOL     OW 9049  14.552   0.765   3.104
69051SOL    HW1 9050  14.635   0.717   3.109
69051SOL    HW2 9051  14.485   0.697   3.105
69052SOL     OW 9052   1.848   1.981   4.656
69052SOL    HW1 9053   1.880   2.036   4.585
69052SOL    HW2 9054   1.799   2.041   4.713
69053SOL     OW 9055   7.086   9.723   4.235
69053SOL    HW1 9056   7.103   9.648   4.178
69053SOL    HW2 9057   6.992   9.739   4.227
69054SOL     OW 9058   9.173   4.910  13.322
69054SOL    HW1 9059   9.089   4.864  13.333
69054SOL    HW2 9060   9.169   4.945  13.233
69055SOL     OW 9061   4.647   2.713  14.634
69055SOL    HW1 9062   4.730   2.703  14.587
69055SOL    HW2 9063   4.599   2.779  14.585
69056SOL     OW 9064   8.226   6.648   4.463
69056SOL    HW1 9065   8.136   6.616   4.453
69056SOL    HW2 9066   8.271   6.616   4.385
69057SOL     OW 9067   2.238   0.102  13.722
69057SOL    HW1 9068   2.275   0.115  13.634
69057SOL    HW2 9069   2.272   0.176  13.772
69058SOL     OW 9070   3.724   9.931   6.147
69058SOL    HW1 9071   3.789   9.861   6.151
69058SOL    HW2 9072   3.683   9.932   6.233
69059SOL     OW 9073  13.597   7.577   7.737
69059SOL    HW1 9074  13.519   7.618   7.701
69059SOL    HW2 9075  13.567   7.494   7.773
69060SOL     OW 9076  11.606   9.231  13.456
69060SOL    HW1 9077  11.683   9.192  13.414
69060SOL    HW2 9078  11.553   9.156  13.484
69061SOL     OW 9079   7.104   5.532  13.194
69061SOL    HW1 9080   7.038   5.477  13.237
69061SOL    HW2 9081   7.122   5.602  13.257
69062SOL     OW 9082   5.036  11.747   8.038
69062SOL    HW1 9083   4.949  11.708   8.046
69062SOL    HW2 9084   5.089  11.679   7.997
69063SOL     OW 9085   5.940   9.998  11.707
69063SOL    HW1 9086   6.010  10.040  11.657
69063SOL    HW2 9087   5.909  10.066  11.767
69064SOL     OW 9088   0.864   0.042   3.728
69064SOL    HW1 9089   0.938   0.002   3.775
69064SOL    HW2 9090   0.861   0.132   3.761
69065SOL     OW 9091   9.452   8.209  11.660
69065SOL    HW1 9092   9.429   8.138  11.601
69065SOL    HW2 9093   9.368   8.240  11.695
69066SOL     OW 9094   8.581  14.323   5.623
69066SOL    HW1 9095   8.676  14.321   5.613
69066SOL    HW2 9096   8.567  14.330   5.717
69067SOL     OW 9097   7.103  13.339  12.105
69067SOL    HW1 9098   7.147  13.408  12.155
69067SOL    HW2 9099   7.170  13.307  12.044
69068SOL     OW 9100   3.602   0.068   4.585
69068SOL    HW1 9101   3.674   0.018   4.623
69068SOL    HW2 9102   3.523   0.024   4.616
69069SOL     OW 9103   9.946   0.718   6.599
69069SOL    HW1 9104   9.973   0.752   6.514
69069SOL    HW2 9105   9.899   0.637   6.579
69070SOL     OW 9106   5.854   3.935  11.547
69070SOL    HW1 9107   5.879   3.978  11.465
69070SOL    HW2 9108   5.818   4.005  11.601
69071SOL     OW 9109  14.844   0.550   7.838
69071SOL    HW1 9110   0.028   0.625   7.816
69071SOL    HW2 9111  14.855   0.490   7.764
69072SOL     OW 9112  12.465   4.327   6.967
69072SOL    HW1 9113  12.426   4.401   6.920
69072SOL    HW2 9114  12.407   4.253   6.949
69073SOL     OW 9115   0.599   1.606   6.750
69073SOL    HW1 9116   0.592   1.683   6.694
69073SOL    HW2 9117   0.582   1.639   6.838
69074SOL     OW 9118   9.929  13.558   9.253
69074SOL    HW1 9119  10.022  13.560   9.232
69074SOL    HW2 9120   9.890  13.506   9.182
69075SOL     OW 9121   0.345   4.763  13.231
69075SOL    HW1 9122   0.256   4.727  13.222
69075SOL    HW2 9123   0.401   4.696  13.191
69076SOL     OW 9124  14.617   6.906  12.445
69076SOL    HW1 9125  14.578   6.914  12.532
69076SOL    HW2 9126  14.590   6.985  12.399
69077SOL     OW 9127   0.302   3.638  13.626
69077SOL    HW1 9128   0.248   3.644  13.547
69077SOL    HW2 9129   0.380   3.589  13.597
69078SOL     OW 9130  13.887   9.996  11.456
69078SOL    HW1 9131  13.955   9.970  11.395
69078SOL    HW2 9132  13.899   9.939  11.532
69079SOL     OW 9133   5.933   9.932   8.714
69079SOL    HW1 9134   5.904   9.949   8.803
69079SOL    HW2 9135   6.003   9.867   8.723
69080SOL     OW 9136  14.279   2.893   0.262
69080SOL    HW1 9137  14.351   2.831   0.253
69080SOL    HW2 9138  14.241   2.874   0.348
69081SOL     OW 9139   8.463  10.068   3.695
69081SOL    HW1 9140   8.424   9.996   3.647
69081SOL    HW2 9141   8.473  10.036   3.785
69082SOL     OW 9142   2.269   4.503   0.584
69082SOL    HW1 9143   2.268   4.594   0.614
69082SOL    HW2 9144   2.310   4.455   0.655
69083SOL     OW 9145   5.033   2.928   6.486
69083SOL    HW1 9146   5.015   3.015   6.520
69083SOL    HW2 9147   5.121   2.907   6.517
69084SOL     OW 9148   2.173   0.951   5.755
69084SOL    HW1 9149   2.209   0.905   5.680
69084SOL    HW2 9150   2.200   0.900   5.831
69085SOL     OW 9151  12.694   6.683   1.776
69085SOL    HW1 9152  12.730   6.762   1.736
69085SOL    HW2 9153  12.742   6.674   1.858
69086SOL     OW 9154   6.349  12.656   6.092
69086SOL    HW1 9155   6.440  12.678   6.075
69086SOL    HW2 9156   6.315  12.625   6.008
69087SOL     OW 9157   8.085   0.018   4.546
69087SOL    HW1 9158   8.052   0.089   4.491
69087SOL    HW2 9159   8.006  14.852   4.586
69088SOL     OW 9160  11.256   0.396   6.004
69088SOL    HW1 9161  11.193   0.392   6.077
69088SOL    HW2 9162  11.342   0.397   6.046
69089SOL     OW 9163  10.524   7.718   0.232
69089SOL    HW1 9164  10.555   7.649   0.174
69089SOL    HW2 9165  10.572   7.703   0.314
69090SOL     OW 9166   4.383   9.789  12.387
69090SOL    HW1 9167   4.450   9.721  12.394
69090SOL    HW2 9168   4.432   9.871  12.392
69091SOL     OW 9169   2.513   3.291   1.464
69091SOL    HW1 9170   2.502   3.304   1.370
69091SOL    HW2 9171   2.552   3.205   1.473
69092SOL     OW 9172   2.636   3.296  11.872
69092SOL    HW1 9173   2.544   3.308  11.850
69092SOL    HW2 9174   2.683   3.315  11.791
69093SOL     OW 9175   2.344   5.565  10.104
69093SOL    HW1 9176   2.354   5.597  10.015
69093SOL    HW2 9177   2.298   5.635  10.150
69094SOL     OW 9178   9.931   1.388   1.746
69094SOL    HW1 9179   9.978   1.329   1.806
69094SOL    HW2 9180   9.936   1.344   1.661
69095SOL     OW 9181   1.294  13.915  10.447
69095SOL    HW1 9182   1.290  13.974  10.522
69095SOL    HW2 9183   1.204  13.884  10.435
69096SOL     OW 9184   4.595  10.583   3.833
69096SOL    HW1 9185   4.501  10.564   3.832
69096SOL    HW2 9186   4.620  10.577   3.925
69097SOL     OW 9187   8.875   8.902   8.485
69097SOL    HW1 9188   8.958   8.879   8.443
69097SOL    HW2 9189   8.822   8.823   8.480
69098SOL     OW 9190   2.929   0.419  10.972
69098SOL    HW1 9191   2.884   0.498  10.942
69098SOL    HW2 9192   2.999   0.450  11.030
69099SOL     OW 9193  14.185  14.760   6.453
69099SOL    HW1 9194  14.094  14.730   6.449
69099SOL    HW2 9195  14.207  14.756   6.546
69100SOL     OW 9196   5.595   1.314   5.960
69100SOL    HW1 9197   5.667   1.334   6.020
69100SOL    HW2 9198   5.632   1.251   5.899
69101SOL     OW 9199  11.773   4.156   2.868
69101SOL    HW1 9200  11.744   4.205   2.945
69101SOL    HW2 9201  11.803   4.073   2.903
69102SOL     OW 9202   3.070   4.212   4.359
69102SOL    HW1 9203   3.036   4.201   4.448
69102SOL    HW2 9204   2.995   4.194   4.302
69103SOL     OW 9205   1.742   2.735   2.768
69103SOL    HW1 9206   1.772   2.675   2.836
69103SOL    HW2 9207   1.790   2.707   2.690
69104SOL     OW 9208   8.907   5.222  13.788
69104SOL    HW1 9209   8.875   5.161  13.722
69104SOL    HW2 9210   8.980   5.267  13.745
69105SOL     OW 9211   0.980   3.291   0.410
69105SOL    HW1 9212   1.001   3.339   0.330
69105SOL    HW2 9213   0.929   3.353   0.463
69106SOL     OW 9214   2.994  10.299  11.966
69106SOL    HW1 9215   2.913  10.258  11.936
69106SOL    HW2 9216   2.988  10.299  12.061
69107SOL     OW 9217  14.164   9.317   3.443
69107SOL    HW1 9218  14.236   9.325   3.506
69107SOL    HW2 9219  14.095   9.372   3.480
69108SOL     OW 9220   4.168   3.108  12.842
69108SOL    HW1 9221   4.209   3.147  12.765
69108SOL    HW2 9222   4.074   3.118  12.826
69109SOL     OW 9223   9.486   7.018   3.946
69109SOL    HW1 9224   9.401   7.019   3.901
69109SOL    HW2 9225   9.464   7.005   4.038
69110SOL     OW 9226   7.266  12.606   2.548
69110SOL    HW1 9227   7.254  12.512   2.561
69110SOL    HW2 9228   7.342  12.628   2.603
69111SOL     OW 9229   4.774   2.060  12.518
69111SOL    HW1 9230   4.810   1.973  12.500
69111SOL    HW2 9231   4.706   2.045  12.584
69112SOL     OW 9232  10.749   4.636  10.618
69112SOL    HW1 9233  10.667   4.685  10.624
69112SOL    HW2 9234  10.723   4.549  10.587
69113SOL     OW 9235  11.836   5.658   5.242
69113SOL    HW1 9236  11.786   5.653   5.323
69113SOL    HW2 9237  11.807   5.740   5.201
69114SOL     OW 9238  11.333   3.129   6.636
69114SOL    HW1 9239  11.256   3.137   6.693
69114SOL    HW2 9240  11.297   3.113   6.549
69115SOL     OW 9241  10.261  14.761   8.703
69115SOL    HW1 9242  10.200  14.815   8.654
69115SOL    HW2 9243  10.303  14.706   8.636
69116SOL     OW 9244   5.718   7.216   1.543
69116SOL    HW1 9245   5.797   7.224   1.596
69116SOL    HW2 9246   5.750   7.203   1.453
69117SOL     OW 9247   3.805  10.789   9.715
69117SOL    HW1 9248   3.820  10.710   9.767
69117SOL    HW2 9249   3.716  10.778   9.681
69118SOL     OW 9250  13.577   8.592  10.825
69118SOL    HW1 9251  13.610   8.538  10.896
69118SOL    HW2 9252  13.499   8.546  10.793
69119SOL     OW 9253  10.019  12.315   3.926
69119SOL    HW1 9254   9.949  12.377   3.947
69119SOL    HW2 9255  10.071  12.309   4.007
69120SOL     OW 9256  14.122   1.594   2.827
69120SOL    HW1 9257  14.053   1.657   2.849
69120SOL    HW2 9258  14.079   1.509   2.838
69121SOL     OW 9259   4.271  14.017   0.955
69121SOL    HW1 9260   4.250  13.960   1.030
69121SOL    HW2 9261   4.353  13.981   0.921
69122SOL     OW 9262   6.816  14.049  12.898
69122SOL    HW1 9263   6.761  13.974  12.919
69122SOL    HW2 9264   6.809  14.058  12.803
69123SOL     OW 9265   6.917   6.054   3.585
69123SOL    HW1 9266   7.002   6.040   3.626
69123SOL    HW2 9267   6.890   6.141   3.614
69124SOL     OW 9268  13.899   3.330   5.722
69124SOL    HW1 9269  13.978   3.379   5.697
69124SOL    HW2 9270  13.827   3.384   5.690
69125SOL     OW 9271  10.244   8.576   6.503
69125SOL    HW1 9272  10.151   8.557   6.494
69125SOL    HW2 9273  10.263   8.639   6.434
69126SOL     OW 9274   3.190   9.805   3.173
69126SOL    HW1 9275   3.189   9.897   3.146
69126SOL    HW2 9276   3.177   9.756   3.092
69127SOL     OW 9277   3.717   0.361   1.091
69127SOL    HW1 9278   3.721   0.453   1.116
69127SOL    HW2 9279   3.628   0.334   1.114
69128SOL     OW 9280  11.733  11.927   3.598
69128SOL    HW1 9281  11.751  11.843   3.555
69128SOL    HW2 9282  11.680  11.904   3.674
69129SOL     OW 9283   6.659   2.047   8.389
69129SOL    HW1 9284   6.569   2.052   8.422
69129SOL    HW2 9285   6.649   2.042   8.294
69130SOL     OW 9286   9.107   3.868   1.910
69130SOL    HW1 9287   9.011   3.865   1.900
69130SOL    HW2 9288   9.130   3.783   1.948
69131SOL     OW 9289   5.775   2.747   2.449
69131SOL    HW1 9290   5.702   2.708   2.498
69131SOL    HW2 9291   5.781   2.693   2.369
69132SOL     OW 9292  10.709   2.056   6.376
69132SOL    HW1 9293  10.635   2.117   6.386
69132SOL    HW2 9294  10.669   1.969   6.377
69133SOL     OW 9295  13.650   6.632  14.319
69133SOL    HW1 9296  13.594   6.708  14.305
69133SOL    HW2 9297  13.698   6.651  14.400
69134SOL     OW 9298   5.088   6.500  14.849
69134SOL    HW1 9299   5.144   6.556   0.031
69134SOL    HW2 9300   5.013   6.555  14.827
69135SOL     OW 9301   4.038   4.688   0.357
69135SOL    HW1 9302   4.029   4.755   0.425
69135SOL    HW2 9303   3.953   4.644   0.355
69136SOL     OW 9304   4.902   2.994  13.563
69136SOL    HW1 9305   4.868   3.056  13.499
69136SOL    HW2 9306   4.899   2.909  13.518
69137SOL     OW 9307  12.163  13.226   4.699
69137SOL    HW1 9308  12.128  13.180   4.623
69137SOL    HW2 9309  12.094  13.288   4.723
69138SOL     OW 9310  10.802  14.519  14.092
69138SOL    HW1 9311  10.839  14.461  14.158
69138SOL    HW2 9312  10.844  14.493  14.010
69139SOL     OW 9313  13.995   6.093   6.862
69139SOL    HW1 9314  14.034   6.013   6.897
69139SOL    HW2 9315  13.993   6.153   6.937
69140SOL     OW 9316   8.097   6.462  11.282
69140SOL    HW1 9317   8.066   6.551  11.301
69140SOL    HW2 9318   8.074   6.448  11.191
69141SOL     OW 9319   4.379  13.503   7.575
69141SOL    HW1 9320   4.324  13.506   7.497
69141SOL    HW2 9321   4.329  13.552   7.641
69142SOL     OW 9322   7.604  13.201  12.668
69142SOL    HW1 9323   7.697  13.215  12.651
69142SOL    HW2 9324   7.596  13.106  12.676
69143SOL     OW 9325  13.591   4.321  10.299
69143SOL    HW1 9326  13.586   4.228  10.322
69143SOL    HW2 9327  13.504   4.341  10.264
69144SOL     OW 9328  12.804   4.645   0.137
69144SOL    HW1 9329  12.725   4.618   0.090
69144SOL    HW2 9330  12.863   4.676   0.068
69145SOL     OW 9331  12.178   4.384   2.487
69145SOL    HW1 9332  12.214   4.427   2.565
69145SOL    HW2 9333  12.167   4.454   2.423
69146SOL     OW 9334   9.750  11.676  14.598
69146SOL    HW1 9335   9.744  11.587  14.563
69146SOL    HW2 9336   9.805  11.722  14.534
69147SOL     OW 9337   5.673  10.365  13.987
69147SOL    HW1 9338   5.734  10.399  14.053
69147SOL    HW2 9339   5.719  10.291  13.947
69148SOL     OW 9340   7.208  14.449   0.240
69148SOL    HW1 9341   7.229  14.536   0.206
69148SOL    HW2 9342   7.279  14.428   0.300
69149SOL     OW 9343   7.088  13.133  12.812
69149SOL    HW1 9344   6.995  13.145  12.791
69149SOL    HW2 9345   7.114  13.217  12.852
69150SOL     OW 9346   2.155  11.025  10.499
69150SOL    HW1 9347   2.237  11.049  10.455
69150SOL    HW2 9348   2.180  11.010  10.590
69151SOL     OW 9349   4.453   8.250  13.196
69151SOL    HW1 9350   4.503   8.294  13.128
69151SOL    HW2 9351   4.364   8.281  13.185
69152SOL     OW 9352   8.835   4.085   8.764
69152SOL    HW1 9353   8.800   4.080   8.675
69152SOL    HW2 9354   8.774   4.141   8.811
69153SOL     OW 9355   9.254   9.541   6.715
69153SOL    HW1 9356   9.188   9.480   6.748
69153SOL    HW2 9357   9.271   9.600   6.788
69154SOL     OW 9358   9.882   3.734   5.082
69154SOL    HW1 9359   9.825   3.779   5.020
69154SOL    HW2 9360   9.945   3.687   5.028
69155SOL     OW 9361  13.066   9.641  12.380
69155SOL    HW1 9362  13.062   9.733  12.405
69155SOL    HW2 9363  13.069   9.593  12.462
69156SOL     OW 9364   8.705   5.567   5.235
69156SOL    HW1 9365   8.659   5.649   5.251
69156SOL    HW2 9366   8.637   5.499   5.241
69157SOL     OW 9367   9.129   6.049  10.298
69157SOL    HW1 9368   9.119   5.960  10.266
69157SOL    HW2 9369   9.075   6.053  10.377
69158SOL     OW 9370   0.051   1.669   9.325
69158SOL    HW1 9371   0.122   1.690   9.264
69158SOL    HW2 9372  14.868   1.748   9.326
69159SOL     OW 9373   9.581  14.487  10.827
69159SOL    HW1 9374   9.614  14.556  10.886
69159SOL    HW2 9375   9.600  14.520  10.739
69160SOL     OW 9376  13.470   9.163   0.793
69160SOL    HW1 9377  13.436   9.075   0.809
69160SOL    HW2 9378  13.473   9.204   0.879
69161SOL     OW 9379   8.643  11.610   9.218
69161SOL    HW1 9380   8.668  11.544   9.154
69161SOL    HW2 9381   8.547  11.603   9.224
69162SOL     OW 9382  12.485   1.110  13.046
69162SOL    HW1 9383  12.511   1.029  13.089
69162SOL    HW2 9384  12.568   1.155  13.029
69163SOL     OW 9385   5.256   8.008  11.197
69163SOL    HW1 9386   5.240   8.048  11.282
69163SOL    HW2 9387   5.168   7.990  11.163
69164SOL     OW 9388   5.181   1.404  12.845
69164SOL    HW1 9389   5.202   1.324  12.798
69164SOL    HW2 9390   5.262   1.427  12.891
69165SOL     OW 9391  14.158  11.581   3.459
69165SOL    HW1 9392  14.176  11.491   3.433
69165SOL    HW2 9393  14.134  11.625   3.377
69166SOL     OW 9394  11.700   8.049   1.447
69166SOL    HW1 9395  11.673   7.985   1.381
69166SOL    HW2 9396  11.664   8.015   1.529
69167SOL     OW 9397   3.287   9.671   4.480
69167SOL    HW1 9398   3.257   9.650   4.569
69167SOL    HW2 9399   3.267   9.592   4.429
69168SOL     OW 9400   6.872   3.235  11.678
69168SOL    HW1 9401   6.865   3.324  11.714
69168SOL    HW2 9402   6.940   3.194  11.731
69169SOL     OW 9403   7.656   1.259   8.342
69169SOL    HW1 9404   7.719   1.210   8.289
69169SOL    HW2 9405   7.604   1.191   8.386
69170SOL     OW 9406  12.770  13.560   7.276
69170SOL    HW1 9407  12.738  13.473   7.300
69170SOL    HW2 9408  12.861  13.545   7.250
69171SOL     OW 9409  11.706   0.199   3.745
69171SOL    HW1 9410  11.713   0.113   3.704
69171SOL    HW2 9411  11.730   0.260   3.675
69172SOL     OW 9412   9.432   5.237   7.476
69172SOL    HW1 9413   9.450   5.317   7.427
69172SOL    HW2 9414   9.478   5.168   7.429
69173SOL     OW 9415   9.709   9.432  13.424
69173SOL    HW1 9416   9.783   9.391  13.378
69173SOL    HW2 9417   9.655   9.468  13.354
69174SOL     OW 9418   3.521   4.702   5.046
69174SOL    HW1 9419   3.439   4.716   4.999
69174SOL    HW2 9420   3.583   4.762   5.005
69175SOL     OW 9421   0.974   4.842  11.908
69175SOL    HW1 9422   0.944   4.755  11.932
69175SOL    HW2 9423   0.948   4.853  11.816
69176SOL     OW 9424   2.019   0.407   6.142
69176SOL    HW1 9425   2.006   0.422   6.049
69176SOL    HW2 9426   2.076   0.479   6.170
69177SOL     OW 9427   1.174   6.945   5.018
69177SOL    HW1 9428   1.197   6.863   4.975
69177SOL    HW2 9429   1.239   7.008   4.986
69178SOL     OW 9430   2.523  10.165   5.886
69178SOL    HW1 9431   2.478  10.082   5.901
69178SOL    HW2 9432   2.478  10.227   5.943
69179SOL     OW 9433  14.301   2.527   0.075
69179SOL    HW1 9434  14.327   2.439   0.048
69179SOL    HW2 9435  14.298   2.524   0.170
69180SOL     OW 9436   0.869  11.719   8.447
69180SOL    HW1 9437   0.879  11.722   8.352
69180SOL    HW2 9438   0.899  11.805   8.476
69181SOL     OW 9439   7.682   0.232  11.832
69181SOL    HW1 9440   7.632   0.160  11.872
69181SOL    HW2 9441   7.725   0.275  11.907
69182SOL     OW 9442  11.870   9.240   8.792
69182SOL    HW1 9443  11.900   9.150   8.781
69182SOL    HW2 9444  11.823   9.260   8.711
69183SOL     OW 9445   6.655   4.628   6.458
69183SOL    HW1 9446   6.564   4.617   6.429
69183SOL    HW2 9447   6.681   4.713   6.422
69184SOL     OW 9448   5.668   6.218   9.105
69184SOL    HW1 9449   5.673   6.124   9.121
69184SOL    HW2 9450   5.752   6.240   9.063
69185SOL     OW 9451   5.302   7.473   7.080
69185SOL    HW1 9452   5.382   7.522   7.058
69185SOL    HW2 9453   5.290   7.488   7.174
69186SOL     OW 9454  12.613   9.334   8.679
69186SOL    HW1 9455  12.568   9.296   8.604
69186SOL    HW2 9456  12.691   9.279   8.691
69187SOL     OW 9457  14.676   3.240  14.743
69187SOL    HW1 9458  14.681   3.169  14.807
69187SOL    HW2 9459  14.593   3.225  14.697
69188SOL     OW 9460   9.950   6.856   7.748
69188SOL    HW1 9461   9.865   6.813   7.758
69188SOL    HW2 9462   9.933   6.930   7.691
69189SOL     OW 9463  10.622   9.911   9.275
69189SOL    HW1 9464  10.591   9.995   9.308
69189SOL    HW2 9465  10.707   9.898   9.318
69190SOL     OW 9466   0.001   5.216   8.070
69190SOL    HW1 9467  14.853   5.308   8.051
69190SOL    HW2 9468  14.870   5.209   8.165
69191SOL     OW 9469   9.248   0.901  10.062
69191SOL    HW1 9470   9.244   0.806  10.051
69191SOL    HW2 9471   9.316   0.930  10.001
69192SOL     OW 9472   6.767   3.624  11.400
69192SOL    HW1 9473   6.826   3.627  11.325
69192SOL    HW2 9474   6.824   3.639  11.476
69193SOL     OW 9475  14.116  13.566  10.767
69193SOL    HW1 9476  14.198  13.559  10.816
69193SOL    HW2 9477  14.081  13.477  10.767
69194SOL     OW 9478   3.424  13.516   7.806
69194SOL    HW1 9479   3.482  13.458   7.757
69194SOL    HW2 9480   3.400  13.584   7.743
69195SOL     OW 9481   9.999   6.459  13.579
69195SOL    HW1 9482   9.907   6.485  13.572
69195SOL    HW2 9483   9.998   6.364  13.579
69196SOL     OW 9484  13.914   0.212   5.519
69196SOL    HW1 9485  13.994   0.207   5.572
69196SOL    HW2 9486  13.890   0.304   5.520
69197SOL     OW 9487   8.301   1.685   5.235
69197SOL    HW1 9488   8.385   1.722   5.259
69197SOL    HW2 9489   8.297   1.694   5.140
69198SOL     OW 9490  14.110   9.601   5.853
69198SOL    HW1 9491  14.077   9.651   5.779
69198SOL    HW2 9492  14.188   9.556   5.820
69199SOL     OW 9493   2.939   5.973   6.543
69199SOL    HW1 9494   3.016   5.989   6.598
69199SOL    HW2 9495   2.896   5.898   6.583
69200SOL     OW 9496  11.968  10.301   8.337
69200SOL    HW1 9497  11.930  10.289   8.250
69200SOL    HW2 9498  12.061  10.281   8.326
69201SOL     OW 9499   5.518  11.738   2.676
69201SOL    HW1 9500   5.605  11.702   2.692
69201SOL    HW2 9501   5.514  11.749   2.581
69202SOL     OW 9502   6.604   3.046   0.736
69202SOL    HW1 9503   6.590   3.081   0.648
69202SOL    HW2 9504   6.627   3.123   0.789
69203SOL     OW 9505   0.614  11.682   9.884
69203SOL    HW1 9506   0.589  11.723   9.967
69203SOL    HW2 9507   0.547  11.615   9.869
69204SOL     OW 9508  12.955   7.371  13.047
69204SOL    HW1 9509  12.873   7.391  13.003
69204SOL    HW2 9510  12.943   7.281  13.080
69205SOL     OW 9511   6.230  10.171   3.002
69205SOL    HW1 9512   6.140  10.144   3.022
69205SOL    HW2 9513   6.270  10.094   2.962
69206SOL     OW 9514   5.891   7.967   7.268
69206SOL    HW1 9515   5.821   7.915   7.228
69206SOL    HW2 9516   5.947   7.992   7.195
69207SOL     OW 9517   4.362  12.899   1.007
69207SOL    HW1 9518   4.328  12.810   1.001
69207SOL    HW2 9519   4.373  12.927   0.916
69208SOL     OW 9520  11.237   7.418  13.226
69208SOL    HW1 9521  11.154   7.465  13.238
69208SOL    HW2 9522  11.243   7.361  13.302
69209SOL     OW 9523   4.343  10.044   8.595
69209SOL    HW1 9524   4.437  10.052   8.609
69209SOL    HW2 9525   4.304  10.078   8.676
69210SOL     OW 9526  14.743   8.938  14.702
69210SOL    HW1 9527  14.725   8.961  14.793
69210SOL    HW2 9528  14.669   8.974  14.653
69211SOL     OW 9529   1.418   7.229   5.085
69211SOL    HW1 9530   1.479   7.303   5.083
69211SOL    HW2 9531   1.341   7.263   5.130
69212SOL     OW 9532   0.829   2.276   0.185
69212SOL    HW1 9533   0.880   2.249   0.261
69212SOL    HW2 9534   0.844   2.371   0.178
69213SOL     OW 9535   3.811   5.950   1.571
69213SOL    HW1 9536   3.724   5.928   1.603
69213SOL    HW2 9537   3.870   5.920   1.640
69214SOL     OW 9538   0.784   8.274   9.813
69214SOL    HW1 9539   0.791   8.182   9.838
69214SOL    HW2 9540   0.870   8.296   9.778
69215SOL     OW 9541   8.078  14.625  12.713
69215SOL    HW1 9542   8.143  14.572  12.667
69215SOL    HW2 9543   7.994  14.581  12.695
69216SOL     OW 9544   5.801  11.614  12.254
69216SOL    HW1 9545   5.843  11.699  12.272
69216SOL    HW2 9546   5.871  11.550  12.264
69217SOL     OW 9547  10.106  11.956   7.090
69217SOL    HW1 9548  10.044  12.015   7.134
69217SOL    HW2 9549  10.075  11.868   7.112
69218SOL     OW 9550   1.685   7.621   6.335
69218SOL    HW1 9551   1.682   7.602   6.429
69218SOL    HW2 9552   1.636   7.703   6.325
69219SOL     OW 9553   2.051  11.635   0.208
69219SOL    HW1 9554   2.057  11.544   0.179
69219SOL    HW2 9555   1.988  11.633   0.280
69220SOL     OW 9556  11.507   6.935  14.164
69220SOL    HW1 9557  11.529   6.907  14.075
69220SOL    HW2 9558  11.412   6.935  14.167
69221SOL     OW 9559   6.706   4.165   1.175
69221SOL    HW1 9560   6.640   4.234   1.167
69221SOL    HW2 9561   6.666   4.101   1.234
69222SOL     OW 9562  14.050   2.992  14.017
69222SOL    HW1 9563  14.090   2.906  14.009
69222SOL    HW2 9564  13.989   2.985  14.091
69223SOL     OW 9565   5.148   3.441   7.911
69223SOL    HW1 9566   5.168   3.503   7.841
69223SOL    HW2 9567   5.150   3.494   7.991
69224SOL     OW 9568   2.135   1.296   8.962
69224SOL    HW1 9569   2.094   1.306   8.876
69224SOL    HW2 9570   2.212   1.242   8.946
69225SOL     OW 9571   0.440   5.538  11.604
69225SOL    HW1 9572   0.461   5.446  11.618
69225SOL    HW2 9573   0.438   5.549  11.509
69226SOL     OW 9574   0.684  13.608   6.217
69226SOL    HW1 9575   0.698  13.518   6.244
69226SOL    HW2 9576   0.760  13.656   6.251
69227SOL     OW 9577   0.216  11.696  13.215
69227SOL    HW1 9578   0.252  11.694  13.304
69227SOL    HW2 9579   0.292  11.703  13.158
69228SOL     OW 9580  10.121   1.689   2.032
69228SOL    HW1 9581  10.153   1.632   2.101
69228SOL    HW2 9582  10.047   1.641   1.993
69229SOL     OW 9583   3.384  12.549  11.736
69229SOL    HW1 9584   3.424  12.634  11.723
69229SOL    HW2 9585   3.457  12.492  11.762
69230SOL     OW 9586   5.582   0.631   2.393
69230SOL    HW1 9587   5.593   0.714   2.439
69230SOL    HW2 9588   5.671   0.595   2.386
69231SOL     OW 9589   7.105  14.755   9.233
69231SOL    HW1 9590   7.054  14.707   9.167
69231SOL    HW2 9591   7.164  14.690   9.271
69232SOL     OW 9592  13.648   4.530   3.323
69232SOL    HW1 9593  13.677   4.523   3.415
69232SOL    HW2 9594  13.659   4.623   3.302
69233SOL     OW 9595  13.066   6.514   4.520
69233SOL    HW1 9596  12.982   6.512   4.565
69233SOL    HW2 9597  13.106   6.429   4.539
69234SOL     OW 9598  12.234   8.110   1.012
69234SOL    HW1 9599  12.326   8.116   1.038
69234SOL    HW2 9600  12.209   8.199   0.990
69235SOL     OW 9601  11.251   2.222   0.542
69235SOL    HW1 9602  11.341   2.191   0.532
69235SOL    HW2 9603  11.256   2.317   0.526
69236SOL     OW 9604   3.389   3.527   8.145
69236SOL    HW1 9605   3.309   3.553   8.100
69236SOL    HW2 9606   3.401   3.593   8.214
69237SOL     OW 9607  12.156   6.209  12.803
69237SOL    HW1 9608  12.107   6.258  12.736
69237SOL    HW2 9609  12.120   6.241  12.886
69238SOL     OW 9610  10.451   3.333   7.225
69238SOL    HW1 9611  10.488   3.285   7.298
69238SOL    HW2 9612  10.486   3.290   7.147
69239SOL     OW 9613   2.854   9.665  12.254
69239SOL    HW1 9614   2.873   9.621  12.171
69239SOL    HW2 9615   2.869   9.598  12.320
69240SOL     OW 9616   4.015  14.424   7.360
69240SOL    HW1 9617   4.021  14.494   7.425
69240SOL    HW2 9618   4.052  14.348   7.404
69241SOL     OW 9619  13.118  11.332   7.303
69241SOL    HW1 9620  13.126  11.254   7.249
69241SOL    HW2 9621  13.078  11.397   7.245
69242SOL     OW 9622  13.117  12.397   5.453
69242SOL    HW1 9623  13.044  12.460   5.454
69242SOL    HW2 9624  13.083  12.322   5.404
69243SOL     OW 9625   8.330   4.553  11.971
69243SOL    HW1 9626   8.375   4.472  11.950
69243SOL    HW2 9627   8.257   4.557  11.910
69244SOL     OW 9628   9.956   7.188   8.036
69244SOL    HW1 9629   9.894   7.131   7.992
69244SOL    HW2 9630   9.923   7.195   8.126
69245SOL     OW 9631  14.813   9.980   6.526
69245SOL    HW1 9632  14.823   9.885   6.526
69245SOL    HW2 9633  14.842  10.008   6.613
69246SOL     OW 9634   2.828   2.071  14.242
69246SOL    HW1 9635   2.905   2.090  14.190
69246SOL    HW2 9636   2.860   2.069  14.332
69247SOL     OW 9637   5.178   5.110  14.276
69247SOL    HW1 9638   5.257   5.152  14.310
69247SOL    HW2 9639   5.129   5.181  14.235
69248SOL     OW 9640   3.838  13.652   8.143
69248SOL    HW1 9641   3.763  13.686   8.192
69248SOL    HW2 9642   3.876  13.586   8.201
69249SOL     OW 9643  14.248   6.236  10.120
69249SOL    HW1 9644  14.310   6.304  10.146
69249SOL    HW2 9645  14.295   6.185  10.055
69250SOL     OW 9646   4.961  14.839   8.966
69250SOL    HW1 9647   4.959   0.056   9.003
69250SOL    HW2 9648   4.952  14.781   9.042
69251SOL     OW 9649   7.447   6.536   4.044
69251SOL    HW1 9650   7.518   6.503   4.099
69251SOL    HW2 9651   7.451   6.631   4.055
69252SOL     OW 9652  13.591  11.330   5.816
69252SOL    HW1 9653  13.633  11.245   5.828
69252SOL    HW2 9654  13.643  11.390   5.871
69253SOL     OW 9655  14.792   4.669   3.765
69253SOL    HW1 9656   0.009   4.633   3.771
69253SOL    HW2 9657  14.754   4.628   3.688
69254SOL     OW 9658   3.785  12.194   7.534
69254SOL    HW1 9659   3.874  12.162   7.546
69254SOL    HW2 9660   3.781  12.275   7.585
69255SOL     OW 9661  12.268  10.103  13.266
69255SOL    HW1 9662  12.338  10.055  13.221
69255SOL    HW2 9663  12.293  10.102  13.358
69256SOL     OW 9664   1.154  14.756   6.040
69256SOL    HW1 9665   1.192  14.844   6.035
69256SOL    HW2 9666   1.088  14.762   6.109
69257SOL     OW 9667   9.195   5.403  12.195
69257SOL    HW1 9668   9.101   5.386  12.203
69257SOL    HW2 9669   9.216   5.382  12.104
69258SOL     OW 9670   9.243   3.470  10.125
69258SOL    HW1 9671   9.148   3.465  10.108
69258SOL    HW2 9672   9.257   3.407  10.196
69259SOL     OW 9673   3.074   0.634  10.844
69259SOL    HW1 9674   3.144   0.591  10.893
69259SOL    HW2 9675   3.115   0.712  10.807
69260SOL     OW 9676   3.273   0.270   5.846
69260SOL    HW1 9677   3.191   0.296   5.889
69260SOL    HW2 9678   3.260   0.295   5.754
69261SOL     OW 9679   8.247   9.263   0.066
69261SOL    HW1 9680   8.311   9.271   0.137
69261SOL    HW2 9681   8.213   9.174   0.074
69262SOL     OW 9682  11.595  11.912   7.125
69262SOL    HW1 9683  11.589  11.872   7.212
69262SOL    HW2 9684  11.683  11.949   7.122
69263SOL     OW 9685  12.646   1.300   5.273
69263SOL    HW1 9686  12.667   1.315   5.180
69263SOL    HW2 9687  12.730   1.275   5.312
69264SOL     OW 9688  13.880   6.586  13.469
69264SOL    HW1 9689  13.907   6.660  13.522
69264SOL    HW2 9690  13.913   6.509  13.516
69265SOL     OW 9691   2.785   5.226  14.845
69265SOL    HW1 9692   2.875   5.258  14.835
69265SOL    HW2 9693   2.731   5.305  14.847
69266SOL     OW 9694  10.600   0.359   3.441
69266SOL    HW1 9695  10.668   0.319   3.496
69266SOL    HW2 9696  10.562   0.286   3.393
69267SOL     OW 9697   2.098   0.873  12.626
69267SOL    HW1 9698   2.086   0.788  12.584
69267SOL    HW2 9699   2.125   0.851  12.715
69268SOL     OW 9700  11.319  12.334  11.828
69268SOL    HW1 9701  11.405  12.369  11.805
69268SOL    HW2 9702  11.266  12.346  11.749
69269SOL     OW 9703   4.595  12.739   8.517
69269SOL    HW1 9704   4.572  12.694   8.436
69269SOL    HW2 9705   4.631  12.823   8.489
69270SOL     OW 9706  11.926   1.160   9.593
69270SOL    HW1 9707  11.932   1.097   9.521
69270SOL    HW2 9708  11.910   1.106   9.671
69271SOL     OW 9709  14.112   0.939  14.583
69271SOL    HW1 9710  14.062   0.961  14.662
69271SOL    HW2 9711  14.114   1.021  14.533
69272SOL     OW 9712   8.756  14.561   3.569
69272SOL    HW1 9713   8.736  14.517   3.486
69272SOL    HW2 9714   8.804  14.496   3.620
69273SOL     OW 9715   8.337   4.547   6.803
69273SOL    HW1 9716   8.350   4.629   6.850
69273SOL    HW2 9717   8.337   4.571   6.711
69274SOL     OW 9718  12.291  11.490  14.586
69274SOL    HW1 9719  12.363  11.543  14.621
69274SOL    HW2 9720  12.316  11.473  14.495
69275SOL     OW 9721  12.676   5.813  14.131
69275SOL    HW1 9722  12.601   5.769  14.171
69275SOL    HW2 9723  12.637   5.882  14.077
69276SOL     OW 9724   3.128  11.664   5.351
69276SOL    HW1 9725   3.177  11.642   5.430
69276SOL    HW2 9726   3.101  11.756   5.364
69277SOL     OW 9727   3.319  13.882  12.625
69277SOL    HW1 9728   3.402  13.927  12.607
69277SOL    HW2 9729   3.344  13.807  12.679
69278SOL     OW 9730  11.572   1.741   4.806
69278SOL    HW1 9731  11.648   1.704   4.851
69278SOL    HW2 9732  11.516   1.775   4.876
69279SOL     OW 9733  11.758   6.454   5.177
69279SOL    HW1 9734  11.833   6.408   5.141
69279SOL    HW2 9735  11.795   6.524   5.230
69280SOL     OW 9736  13.174   7.082   2.325
69280SOL    HW1 9737  13.205   7.164   2.362
69280SOL    HW2 9738  13.146   7.031   2.401
69281SOL     OW 9739   1.616   6.271   2.396
69281SOL    HW1 9740   1.695   6.324   2.405
69281SOL    HW2 9741   1.551   6.316   2.450
69282SOL     OW 9742   8.342   0.354  11.568
69282SOL    HW1 9743   8.325   0.273  11.617
69282SOL    HW2 9744   8.264   0.366  11.515
69283SOL     OW 9745  10.980  11.988   8.793
69283SOL    HW1 9746  10.948  12.073   8.824
69283SOL    HW2 9747  10.908  11.954   8.739
69284SOL     OW 9748   5.555   7.664  11.366
69284SOL    HW1 9749   5.632   7.635  11.317
69284SOL    HW2 9750   5.541   7.755  11.337
69285SOL     OW 9751  11.832   3.852   2.249
69285SOL    HW1 9752  11.878   3.897   2.178
69285SOL    HW2 9753  11.900   3.799   2.291
69286SOL     OW 9754   6.242  14.072   1.472
69286SOL    HW1 9755   6.246  13.978   1.485
69286SOL    HW2 9756   6.308  14.107   1.531
69287SOL     OW 9757   0.163   0.102   9.677
69287SOL    HW1 9758   0.254   0.081   9.656
69287SOL    HW2 9759   0.114   0.022   9.659
69288SOL     OW 9760   6.283  12.907   0.098
69288SOL    HW1 9761   6.218  12.860   0.045
69288SOL    HW2 9762   6.367  12.867   0.074
69289SOL     OW 9763   1.596   2.253   5.823
69289SOL    HW1 9764   1.573   2.339   5.858
69289SOL    HW2 9765   1.514   2.204   5.826
69290SOL     OW 9766   5.893   6.791  11.852
69290SOL    HW1 9767   5.942   6.845  11.914
69290SOL    HW2 9768   5.890   6.704  11.893
69291SOL     OW 9769   8.981   5.862  14.614
69291SOL    HW1 9770   8.937   5.939  14.648
69291SOL    HW2 9771   8.991   5.804  14.690
69292SOL     OW 9772   2.047   7.330   7.914
69292SOL    HW1 9773   2.137   7.304   7.894
69292SOL    HW2 9774   2.048   7.425   7.913
69293SOL     OW 9775   3.711   9.259   2.514
69293SOL    HW1 9776   3.649   9.225   2.579
69293SOL    HW2 9777   3.709   9.354   2.527
69294SOL     OW 9778   0.709   3.980   1.401
69294SOL    HW1 9779   0.680   3.927   1.475
69294SOL    HW2 9780   0.785   3.933   1.366
69295SOL     OW 9781   9.012   0.816  12.201
69295SOL    HW1 9782   8.920   0.818  12.177
69295SOL    HW2 9783   9.019   0.745  12.265
69296SOL     OW 9784   1.561   1.453  13.379
69296SOL    HW1 9785   1.520   1.459  13.466
69296SOL    HW2 9786   1.529   1.530  13.333
69297SOL     OW 9787   7.549   3.134   7.320
69297SOL    HW1 9788   7.627   3.118   7.268
69297SOL    HW2 9789   7.582   3.167   7.404
69298SOL     OW 9790  14.578   6.691   4.666
69298SOL    HW1 9791  14.505   6.698   4.727
69298SOL    HW2 9792  14.543   6.721   4.582
69299SOL     OW 9793  11.877  10.919   2.105
69299SOL    HW1 9794  11.806  10.919   2.040
69299SOL    HW2 9795  11.842  10.870   2.179
69300SOL     OW 9796   1.832   2.432   9.067
69300SOL    HW1 9797   1.914   2.402   9.105
69300SOL    HW2 9798   1.785   2.351   9.046
69301SOL     OW 9799   6.901   7.943  13.555
69301SOL    HW1 9800   6.889   7.855  13.519
69301SOL    HW2 9801   6.895   7.931  13.650
69302SOL     OW 9802  11.754  12.313  13.600
69302SOL    HW1 9803  11.663  12.323  13.629
69302SOL    HW2 9804  11.758  12.225  13.563
69303SOL     OW 9805  13.141   7.486  12.232
69303SOL    HW1 9806  13.078   7.414  12.228
69303SOL    HW2 9807  13.186   7.483  12.147
69304SOL     OW 9808   5.437  13.111  11.848
69304SOL    HW1 9809   5.469  13.053  11.780
69304SOL    HW2 9810   5.465  13.070  11.930
69305SOL     OW 9811   7.384  13.153   5.682
69305SOL    HW1 9812   7.405  13.109   5.599
69305SOL    HW2 9813   7.350  13.083   5.738
69306SOL     OW 9814   2.422   2.092   2.751
69306SOL    HW1 9815   2.348   2.070   2.694
69306SOL    HW2 9816   2.423   2.023   2.817
69307SOL     OW 9817   4.527   2.504  10.078
69307SOL    HW1 9818   4.498   2.533  10.164
69307SOL    HW2 9819   4.623   2.506  10.083
69308SOL     OW 9820   4.157  12.401   4.847
69308SOL    HW1 9821   4.200  12.439   4.771
69308SOL    HW2 9822   4.228  12.367   4.901
69309SOL     OW 9823  10.706   2.951  11.864
69309SOL    HW1 9824  10.669   3.035  11.889
69309SOL    HW2 9825  10.653   2.887  11.910
69310SOL     OW 9826   0.317   8.004   8.837
69310SOL    HW1 9827   0.293   8.066   8.906
69310SOL    HW2 9828   0.378   8.053   8.782
69311SOL     OW 9829  13.516  14.016   2.236
69311SOL    HW1 9830  13.585  14.054   2.181
69311SOL    HW2 9831  13.508  13.926   2.206
69312SOL     OW 9832   5.496   4.192  14.023
69312SOL    HW1 9833   5.465   4.102  14.007
69312SOL    HW2 9834   5.504   4.230  13.936
69313SOL     OW 9835   4.981  12.603   2.809
69313SOL    HW1 9836   4.994  12.634   2.898
69313SOL    HW2 9837   5.059  12.550   2.790
69314SOL     OW 9838  10.805   9.940  10.892
69314SOL    HW1 9839  10.778  10.031  10.895
69314SOL    HW2 9840  10.762   9.904  10.814
69315SOL     OW 9841   9.190  10.319  13.897
69315SOL    HW1 9842   9.098  10.296  13.898
69315SOL    HW2 9843   9.199  10.380  13.824
69316SOL     OW 9844  12.350   5.908  14.401
69316SOL    HW1 9845  12.305   5.984  14.363
69316SOL    HW2 9846  12.280   5.843  14.413
69317SOL     OW 9847   0.937  13.495  14.784
69317SOL    HW1 9848   0.987  13.443  14.846
69317SOL    HW2 9849   0.851  13.504  14.823
69318SOL     OW 9850   5.243   8.176  14.152
69318SOL    HW1 9851   5.217   8.264  14.181
69318SOL    HW2 9852   5.307   8.191  14.083
69319SOL     OW 9853  13.951   0.290  10.424
69319SOL    HW1 9854  13.990   0.377  10.413
69319SOL    HW2 9855  13.879   0.304  10.485
69320SOL     OW 9856   6.695   4.136   9.304
69320SOL    HW1 9857   6.654   4.219   9.280
69320SOL    HW2 9858   6.783   4.140   9.266
69321SOL     OW 9859   7.414  11.102  10.735
69321SOL    HW1 9860   7.362  11.036  10.782
69321SOL    HW2 9861   7.484  11.125  10.796
69322SOL     OW 9862  14.369   1.557   9.242
69322SOL    HW1 9863  14.301   1.592   9.299
69322SOL    HW2 9864  14.356   1.462   9.245
69323SOL     OW 9865  12.422   6.394   3.089
69323SOL    HW1 9866  12.374   6.413   3.169
69323SOL    HW2 9867  12.460   6.477   3.062
69324SOL     OW 9868  10.887   4.807  14.398
69324SOL    HW1 9869  10.883   4.754  14.318
69324SOL    HW2 9870  10.795   4.825  14.419
69325SOL     OW 9871  10.208   6.324   2.617
69325SOL    HW1 9872  10.128   6.375   2.606
69325SOL    HW2 9873  10.184   6.254   2.678
69326SOL     OW 9874  13.744  13.818   8.364
69326SOL    HW1 9875  13.822  13.875   8.361
69326SOL    HW2 9876  13.717  13.820   8.455
69327SOL     OW 9877   1.616  12.192   1.000
69327SOL    HW1 9878   1.657  12.256   0.942
69327SOL    HW2 9879   1.586  12.123   0.941
69328SOL     OW 9880  12.207  11.508   0.262
69328SOL    HW1 9881  12.202  11.493   0.356
69328SOL    HW2 9882  12.118  11.532   0.236
69329SOL     OW 9883   6.014   7.251   1.742
69329SOL    HW1 9884   6.056   7.235   1.826
69329SOL    HW2 9885   6.057   7.329   1.707
69330SOL     OW 9886   0.483   4.242   1.073
69330SOL    HW1 9887   0.395   4.272   1.052
69330SOL    HW2 9888   0.471   4.152   1.104
69331SOL     OW 9889  11.556   2.589   1.435
69331SOL    HW1 9890  11.536   2.653   1.503
69331SOL    HW2 9891  11.543   2.504   1.477
69332SOL     OW 9892   3.289   4.713   1.343
69332SOL    HW1 9893   3.254   4.775   1.407
69332SOL    HW2 9894   3.244   4.631   1.362
69333SOL     OW 9895  10.062   7.377  11.554
69333SOL    HW1 9896  10.017   7.305  11.511
69333SOL    HW2 9897  10.016   7.456  11.525
69334SOL     OW 9898   3.628   6.994   0.606
69334SOL    HW1 9899   3.575   7.041   0.670
69334SOL    HW2 9900   3.716   6.993   0.644
69335SOL     OW 9901   0.423  13.827  14.366
69335SOL    HW1 9902   0.351  13.778  14.407
69335SOL    HW2 9903   0.481  13.848  14.439
69336SOL     OW 9904   5.461   9.301   6.299
69336SOL    HW1 9905   5.450   9.280   6.392
69336SOL    HW2 9906   5.401   9.374   6.283
69337SOL     OW 9907   9.965  12.298   1.351
69337SOL    HW1 9908  10.009  12.316   1.268
69337SOL    HW2 9909   9.927  12.211   1.339
69338SOL     OW 9910  10.143  14.744   7.924
69338SOL    HW1 9911  10.190  14.816   7.882
69338SOL    HW2 9912  10.192  14.726   8.004
69339SOL     OW 9913  11.417   0.514   0.116
69339SOL    HW1 9914  11.337   0.548   0.075
69339SOL    HW2 9915  11.401   0.522   0.210
69340SOL     OW 9916  12.328   6.493   9.820
69340SOL    HW1 9917  12.243   6.452   9.839
69340SOL    HW2 9918  12.367   6.436   9.753
69341SOL     OW 9919   9.651   2.896  10.722
69341SOL    HW1 9920   9.672   2.989  10.709
69341SOL    HW2 9921   9.677   2.855  10.640
69342SOL     OW 9922   0.991   5.298  13.337
69342SOL    HW1 9923   0.896   5.290  13.346
69342SOL    HW2 9924   1.024   5.291  13.427
69343SOL     OW 9925  11.266   6.298   1.402
69343SOL    HW1 9926  11.282   6.382   1.443
69343SOL    HW2 9927  11.332   6.240   1.440
69344SOL     OW 9928  13.268   1.123  11.724
69344SOL    HW1 9929  13.300   1.095  11.637
69344SOL    HW2 9930  13.294   1.052  11.783
69345SOL     OW 9931   0.671   5.947  13.694
69345SOL    HW1 9932   0.723   5.915  13.767
69345SOL    HW2 9933   0.731   5.949  13.620
69346SOL     OW 9934   2.984  12.984   3.641
69346SOL    HW1 9935   3.027  13.005   3.723
69346SOL    HW2 9936   3.055  12.984   3.576
69347SOL     OW 9937   5.234  11.056  12.221
69347SOL    HW1 9938   5.267  10.978  12.178
69347SOL    HW2 9939   5.166  11.024  12.280
69348SOL     OW 9940   6.465   1.489  10.915
69348SOL    HW1 9941   6.470   1.585  10.913
69348SOL    HW2 9942   6.549   1.461  10.951
69349SOL     OW 9943   4.413   0.278   9.437
69349SOL    HW1 9944   4.482   0.227   9.479
69349SOL    HW2 9945   4.406   0.358   9.490
69350SOL     OW 9946   9.202   4.780   0.984
69350SOL    HW1 9947   9.128   4.828   0.946
69350SOL    HW2 9948   9.259   4.760   0.909
69351SOL     OW 9949   9.786  12.784   4.295
69351SOL    HW1 9950   9.697  12.756   4.276
69351SOL    HW2 9951   9.799  12.761   4.387
69352SOL     OW 9952   1.151   0.583   0.148
69352SOL    HW1 9953   1.183   0.672   0.134
69352SOL    HW2 9954   1.207   0.528   0.093
69353SOL     OW 9955   5.319  10.985   1.220
69353SOL    HW1 9956   5.267  10.967   1.142
69353SOL    HW2 9957   5.402  11.019   1.187
69354SOL     OW 9958  11.030   6.171   0.203
69354SOL    HW1 9959  11.057   6.117   0.128
69354SOL    HW2 9960  11.088   6.145   0.274
69355SOL     OW 9961   7.400  12.642  13.498
69355SOL    HW1 9962   7.369  12.731  13.477
69355SOL    HW2 9963   7.466  12.623  13.431
69356SOL     OW 9964  13.111   2.921   6.668
69356SOL    HW1 9965  13.080   3.006   6.699
69356SOL    HW2 9966  13.040   2.860   6.689
69357SOL     OW 9967  12.899   9.583   0.669
69357SOL    HW1 9968  12.937   9.546   0.590
69357SOL    HW2 9969  12.974   9.616   0.719
69358SOL     OW 9970   6.261  11.959   3.671
69358SOL    HW1 9971   6.240  12.049   3.698
69358SOL    HW2 9972   6.354  11.961   3.651
69359SOL     OW 9973   8.917   1.931   5.041
69359SOL    HW1 9974   8.908   1.837   5.048
69359SOL    HW2 9975   8.902   1.964   5.129
69360SOL     OW 9976   0.946  11.939  14.191
69360SOL    HW1 9977   0.933  11.845  14.191
69360SOL    HW2 9978   1.032  11.951  14.232
69361SOL     OW 9979  10.688   5.751   1.408
69361SOL    HW1 9980  10.683   5.807   1.485
69361SOL    HW2 9981  10.627   5.679   1.427
69362SOL     OW 9982   7.907   4.743   3.916
69362SOL    HW1 9983   7.858   4.806   3.863
69362SOL    HW2 9984   7.986   4.724   3.864
69363SOL     OW 9985   6.753   4.360   9.755
69363SOL    HW1 9986   6.777   4.442   9.712
69363SOL    HW2 9987   6.830   4.337   9.807
69364SOL     OW 9988   6.599  12.423   3.344
69364SOL    HW1 9989   6.647  12.389   3.268
69364SOL    HW2 9990   6.660  12.414   3.417
69365SOL     OW 9991  11.983   6.649   3.211
69365SOL    HW1 9992  11.943   6.562   3.206
69365SOL    HW2 9993  11.914   6.708   3.180
69366SOL     OW 9994   4.228   9.480   1.335
69366SOL    HW1 9995   4.191   9.512   1.417
69366SOL    HW2 9996   4.257   9.560   1.290
69367SOL     OW 9997   5.464  10.447  13.824
69367SOL    HW1 9998   5.529  10.434  13.894
69367SOL    HW2 9999   5.475  10.371  13.767
69368SOL     OW10000   2.202   5.814   3.364
69368SOL    HW110001   2.285   5.767   3.362
69368SOL    HW210002   2.164   5.800   3.278
69369SOL     OW10003  14.439  12.357   6.718
69369SOL    HW110004  14.436  12.406   6.800
69369SOL    HW210005  14.529  12.369   6.687
69370SOL     OW10006   6.852  14.296   6.704
69370SOL    HW110007   6.792  14.236   6.660
69370SOL    HW210008   6.932  14.244   6.717
69371SOL     OW10009  11.496  11.312   6.783
69371SOL    HW110010  11.566  11.344   6.841
69371SOL    HW210011  11.507  11.363   6.703
69372SOL     OW10012   1.148   3.476  14.569
69372SOL    HW110013   1.189   3.563  14.574
69372SOL    HW210014   1.165   3.437  14.654
69373SOL     OW10015   0.568  13.810   5.802
69373SOL    HW110016   0.575  13.903   5.779
69373SOL    HW210017   0.595  13.806   5.894
69374SOL     OW10018   9.234   6.862  12.322
69374SOL    HW110019   9.191   6.786  12.282
69374SOL    HW210020   9.282   6.903  12.250
69375SOL     OW10021   4.639   8.431   3.482
69375SOL    HW110022   4.654   8.490   3.408
69375SOL    HW210023   4.604   8.487   3.551
69376SOL     OW10024   8.096  12.774  10.151
69376SOL    HW110025   8.028  12.842  10.151
69376SOL    HW210026   8.079  12.723  10.230
69377SOL     OW10027   2.781   5.880   1.615
69377SOL    HW110028   2.693   5.846   1.626
69377SOL    HW210029   2.787   5.953   1.677
69378SOL     OW10030   6.961   3.504  10.303
69378SOL    HW110031   6.965   3.540  10.392
69378SOL    HW210032   6.870   3.514  10.277
69379SOL     OW10033   4.896   8.810  12.307
69379SOL    HW110034   4.882   8.861  12.227
69379SOL    HW210035   4.816   8.757  12.315
69380SOL     OW10036  10.376   4.156   4.652
69380SOL    HW110037  10.371   4.103   4.573
69380SOL    HW210038  10.341   4.241   4.626
69381SOL     OW10039   5.237  12.303   4.826
69381SOL    HW110040   5.208  12.334   4.740
69381SOL    HW210041   5.156  12.286   4.874
69382SOL     OW10042   4.567   7.505  12.817
69382SOL    HW110043   4.641   7.553  12.854
69382SOL    HW210044   4.552   7.433  12.878
69383SOL     OW10045   2.613   2.919  10.960
69383SOL    HW110046   2.586   3.010  10.954
69383SOL    HW210047   2.680   2.909  10.893
69384SOL     OW10048   8.790   5.636   4.954
69384SOL    HW110049   8.794   5.649   5.049
69384SOL    HW210050   8.739   5.556   4.943
69385SOL     OW10051   8.140  11.226   5.309
69385SOL    HW110052   8.061  11.256   5.356
69385SOL    HW210053   8.120  11.135   5.285
69386SOL     OW10054   2.460   8.006   0.052
69386SOL    HW110055   2.508   8.006   0.135
69386SOL    HW210056   2.476   8.093   0.016
69387SOL     OW10057   2.099  12.601   8.007
69387SOL    HW110058   2.061  12.571   7.925
69387SOL    HW210059   2.115  12.521   8.057
69388SOL     OW10060  14.422   4.670   3.702
69388SOL    HW110061  14.415   4.634   3.614
69388SOL    HW210062  14.424   4.594   3.760
69389SOL     OW10063  12.288  10.401   5.558
69389SOL    HW110064  12.200  10.430   5.534
69389SOL    HW210065  12.311  10.455   5.633
69390SOL     OW10066   5.395   2.880  11.412
69390SOL    HW110067   5.369   2.970  11.393
69390SOL    HW210068   5.312   2.834  11.422
69391SOL     OW10069  12.839   4.874   1.121
69391SOL    HW110070  12.916   4.870   1.064
69391SOL    HW210071  12.766   4.847   1.064
69392SOL     OW10072  12.649   8.485   4.567
69392SOL    HW110073  12.636   8.468   4.474
69392SOL    HW210074  12.700   8.411   4.599
69393SOL     OW10075   0.905   3.571  14.432
69393SOL    HW110076   0.836   3.514  14.397
69393SOL    HW210077   0.965   3.510  14.477
69394SOL     OW10078  12.335   1.264  10.387
69394SOL    HW110079  12.396   1.240  10.457
69394SOL    HW210080  12.335   1.360  10.387
69395SOL     OW10081   4.865  12.865   9.069
69395SOL    HW110082   4.869  12.954   9.034
69395SOL    HW210083   4.955  12.835   9.069
69396SOL     OW10084   4.869  13.596   9.465
69396SOL    HW110085   4.953  13.637   9.442
69396SOL    HW210086   4.880  13.568   9.556
69397SOL     OW10087   4.800   3.277  12.887
69397SOL    HW110088   4.715   3.269  12.931
69397SOL    HW210089   4.801   3.204  12.825
69398SOL     OW10090  12.025  11.601   0.517
69398SOL    HW110091  12.098  11.606   0.578
69398SOL    HW210092  11.950  11.632   0.566
69399SOL     OW10093   2.892   4.497   0.016
69399SOL    HW110094   2.895   4.450  14.805
69399SOL    HW210095   2.952   4.450   0.073
69400SOL     OW10096  14.694   3.792   4.854
69400SOL    HW110097  14.776   3.828   4.889
69400SOL    HW210098  14.653   3.866   4.808
69401SOL     OW10099   9.804  12.417   6.296
69401SOL    HW110100   9.722  12.371   6.316
69401SOL    HW210101   9.839  12.370   6.220
69402SOL     OW10102   3.844   1.724  11.735
69402SOL    HW110103   3.861   1.709  11.828
69402SOL    HW210104   3.882   1.810  11.716
69403SOL     OW10105   4.865   3.065  14.265
69403SOL    HW110106   4.814   3.115  14.202
69403SOL    HW210107   4.865   3.118  14.345
69404SOL     OW10108   6.580  12.497  10.999
69404SOL    HW110109   6.547  12.587  11.010
69404SOL    HW210110   6.616  12.496  10.910
69405SOL     OW10111  11.542  14.558   6.195
69405SOL    HW110112  11.540  14.497   6.269
69405SOL    HW210113  11.537  14.503   6.118
69406SOL     OW10114   1.289  10.691  12.090
69406SOL    HW110115   1.315  10.641  12.167
69406SOL    HW210116   1.199  10.663  12.071
69407SOL     OW10117  11.058   3.227   8.976
69407SOL    HW110118  10.984   3.260   8.924
69407SOL    HW210119  11.030   3.139   9.002
69408SOL     OW10120   3.998   3.452   8.205
69408SOL    HW110121   4.044   3.503   8.272
69408SOL    HW210122   4.011   3.361   8.232
69409SOL     OW10123   3.027  13.836  10.717
69409SOL    HW110124   3.012  13.750  10.758
69409SOL    HW210125   2.941  13.876  10.712
69410SOL     OW10126   3.381   1.047   0.095
69410SOL    HW110127   3.401   1.113   0.029
69410SOL    HW210128   3.287   1.032   0.086
69411SOL     OW10129  10.727  12.175  12.630
69411SOL    HW110130  10.657  12.140  12.576
69411SOL    HW210131  10.742  12.109  12.697
69412SOL     OW10132   1.307   5.043  12.661
69412SOL    HW110133   1.359   5.024  12.583
69412SOL    HW210134   1.286   5.136  12.654
69413SOL     OW10135  14.540   7.449  12.873
69413SOL    HW110136  14.539   7.522  12.936
69413SOL    HW210137  14.454   7.454  12.830
69414SOL     OW10138   1.669  14.392  13.628
69414SOL    HW110139   1.590  14.442  13.649
69414SOL    HW210140   1.710  14.375  13.713
69415SOL     OW10141   5.865  11.433  13.057
69415SOL    HW110142   5.937  11.492  13.079
69415SOL    HW210143   5.809  11.484  12.999
69416SOL     OW10144  12.602   0.407   6.353
69416SOL    HW110145  12.643   0.370   6.431
69416SOL    HW210146  12.637   0.356   6.280
69417SOL     OW10147   5.269   8.363   8.303
69417SOL    HW110148   5.278   8.310   8.382
69417SOL    HW210149   5.175   8.365   8.286
69418SOL     OW10150   6.719   7.855   0.433
69418SOL    HW110151   6.710   7.903   0.515
69418SOL    HW210152   6.774   7.910   0.378
69419SOL     OW10153   8.827   4.482   1.850
69419SOL    HW110154   8.912   4.523   1.834
69419SOL    HW210155   8.781   4.543   1.908
69420SOL     OW10156   4.938   0.446  10.517
69420SOL    HW110157   4.953   0.500  10.594
69420SOL    HW210158   4.895   0.505  10.455
69421SOL     OW10159  11.290   0.383   6.660
69421SOL    HW110160  11.214   0.406   6.713
69421SOL    HW210161  11.300   0.288   6.671
69422SOL     OW10162   3.947  14.688  13.837
69422SOL    HW110163   3.992  14.771  13.824
69422SOL    HW210164   3.987  14.628  13.775
69423SOL     OW10165   8.379  12.669  11.007
69423SOL    HW110166   8.366  12.614  10.930
69423SOL    HW210167   8.413  12.609  11.073
69424SOL     OW10168  10.101   2.435   3.646
69424SOL    HW110169  10.148   2.488   3.711
69424SOL    HW210170  10.066   2.499   3.585
69425SOL     OW10171   5.207   5.236   4.295
69425SOL    HW110172   5.131   5.288   4.269
69425SOL    HW210173   5.268   5.300   4.331
69426SOL     OW10174  12.109  10.629   5.665
69426SOL    HW110175  12.036  10.677   5.705
69426SOL    HW210176  12.184  10.650   5.721
69427SOL     OW10177   5.720  10.950   1.502
69427SOL    HW110178   5.748  10.871   1.455
69427SOL    HW210179   5.634  10.927   1.537
69428SOL     OW10180  10.731   2.507  13.281
69428SOL    HW110181  10.692   2.495  13.195
69428SOL    HW210182  10.692   2.588  13.314
69429SOL     OW10183   4.182   3.497  12.139
69429SOL    HW110184   4.249   3.507  12.071
69429SOL    HW210185   4.164   3.587  12.169
69430SOL     OW10186   0.026   1.602   4.417
69430SOL    HW110187  14.816   1.554   4.400
69430SOL    HW210188  14.869   1.683   4.459
69431SOL     OW10189  14.224   3.875   4.606
69431SOL    HW110190  14.304   3.898   4.560
69431SOL    HW210191  14.155   3.881   4.539
69432SOL     OW10192   9.781   5.054   2.871
69432SOL    HW110193   9.796   4.962   2.850
69432SOL    HW210194   9.805   5.061   2.964
69433SOL     OW10195   7.259   6.540  13.041
69433SOL    HW110196   7.293   6.464  13.086
69433SOL    HW210197   7.328   6.606  13.048
69434SOL     OW10198   8.050  12.020   5.544
69434SOL    HW110199   8.063  11.930   5.517
69434SOL    HW210200   8.079  12.022   5.635
69435SOL     OW10201   7.803  13.118   1.197
69435SOL    HW110202   7.736  13.055   1.224
69435SOL    HW210203   7.868  13.066   1.150
69436SOL     OW10204  12.813   0.362   8.792
69436SOL    HW110205  12.724   0.376   8.760
69436SOL    HW210206  12.857   0.446   8.780
69437SOL     OW10207   6.272   4.904  13.228
69437SOL    HW110208   6.275   4.813  13.260
69437SOL    HW210209   6.179   4.922  13.215
69438SOL     OW10210   5.143   2.362   4.891
69438SOL    HW110211   5.191   2.444   4.905
69438SOL    HW210212   5.151   2.315   4.974
69439SOL     OW10213   6.698  13.050   3.493
69439SOL    HW110214   6.635  12.989   3.454
69439SOL    HW210215   6.653  13.085   3.570
69440SOL     OW10216   6.742  13.148   6.512
69440SOL    HW110217   6.665  13.102   6.479
69440SOL    HW210218   6.777  13.193   6.435
69441SOL     OW10219   8.309  12.363  13.545
69441SOL    HW110220   8.335  12.440  13.594
69441SOL    HW210221   8.218  12.378  13.521
69442SOL     OW10222   1.225   1.488   8.379
69442SOL    HW110223   1.157   1.434   8.338
69442SOL    HW210224   1.195   1.578   8.368
69443SOL     OW10225   5.757   1.121   2.598
69443SOL    HW110226   5.740   1.155   2.686
69443SOL    HW210227   5.841   1.075   2.606
69444SOL     OW10228  14.124  14.499   9.849
69444SOL    HW110229  14.110  14.565   9.917
69444SOL    HW210230  14.211  14.518   9.815
69445SOL     OW10231  10.211   6.666  11.003
69445SOL    HW110232  10.154   6.728  10.958
69445SOL    HW210233  10.157   6.630  11.074
69446SOL     OW10234  12.726   7.647  11.626
69446SOL    HW110235  12.648   7.612  11.584
69446SOL    HW210236  12.698   7.733  11.660
69447SOL     OW10237  13.824   8.233   9.070
69447SOL    HW110238  13.879   8.155   9.057
69447SOL    HW210239  13.849   8.266   9.156
69448SOL     OW10240   7.044   2.961  13.206
69448SOL    HW110241   7.064   3.011  13.285
69448SOL    HW210242   6.963   2.999  13.173
69449SOL     OW10243   3.380  14.668  10.493
69449SOL    HW110244   3.340  14.589  10.530
69449SOL    HW210245   3.411  14.641  10.407
69450SOL     OW10246   2.999   4.461  14.453
69450SOL    HW110247   3.020   4.551  14.427
69450SOL    HW210248   2.949   4.470  14.534
69451SOL     OW10249  10.596   1.718   0.519
69451SOL    HW110250  10.675   1.746   0.565
69451SOL    HW210251  10.564   1.798   0.476
69452SOL     OW10252  10.260   9.072  10.957
69452SOL    HW110253  10.211   8.998  10.923
69452SOL    HW210254  10.309   9.037  11.031
69453SOL     OW10255   8.669   1.539   8.760
69453SOL    HW110256   8.726   1.611   8.786
69453SOL    HW210257   8.718   1.460   8.780
69454SOL     OW10258  13.115  13.267   7.109
69454SOL    HW110259  13.151  13.286   7.022
69454SOL    HW210260  13.030  13.227   7.091
69455SOL     OW10261   7.867   5.284   4.799
69455SOL    HW110262   7.931   5.300   4.730
69455SOL    HW210263   7.896   5.339   4.872
69456SOL     OW10264   9.241   5.730  13.447
69456SOL    HW110265   9.190   5.808  13.424
69456SOL    HW210266   9.331   5.761  13.451
69457SOL     OW10267  12.219  10.109   6.477
69457SOL    HW110268  12.234  10.204   6.468
69457SOL    HW210269  12.246  10.073   6.393
69458SOL     OW10270   1.867  10.394   5.428
69458SOL    HW110271   1.867  10.429   5.339
69458SOL    HW210272   1.900  10.466   5.482
69459SOL     OW10273  13.501   0.278   2.387
69459SOL    HW110274  13.485   0.319   2.302
69459SOL    HW210275  13.475   0.186   2.374
69460SOL     OW10276  12.566   2.990   5.505
69460SOL    HW110277  12.641   3.049   5.488
69460SOL    HW210278  12.596   2.934   5.576
69461SOL     OW10279   9.716   3.956   1.542
69461SOL    HW110280   9.707   4.051   1.550
69461SOL    HW210281   9.655   3.932   1.472
69462SOL     OW10282   8.121   0.454   7.186
69462SOL    HW110283   8.094   0.535   7.230
69462SOL    HW210284   8.201   0.477   7.140
69463SOL     OW10285  12.704  10.841   2.866
69463SOL    HW110286  12.741  10.794   2.791
69463SOL    HW210287  12.699  10.932   2.838
69464SOL     OW10288   8.120  13.945   6.880
69464SOL    HW110289   8.173  14.023   6.860
69464SOL    HW210290   8.183  13.877   6.900
69465SOL     OW10291  10.444  11.961   5.664
69465SOL    HW110292  10.482  11.884   5.705
69465SOL    HW210293  10.352  11.961   5.692
69466SOL     OW10294   8.200   7.948   9.599
69466SOL    HW110295   8.172   7.908   9.681
69466SOL    HW210296   8.131   7.928   9.537
69467SOL     OW10297  11.609   8.538  11.481
69467SOL    HW110298  11.692   8.585  11.474
69467SOL    HW210299  11.552   8.598  11.528
69468SOL     OW10300   0.548  12.165   2.382
69468SOL    HW110301   0.504  12.136   2.462
69468SOL    HW210302   0.481  12.158   2.314
69469SOL     OW10303   9.669   7.953   5.673
69469SOL    HW110304   9.664   7.918   5.585
69469SOL    HW210305   9.661   8.048   5.662
69470SOL     OW10306   9.530   6.744   2.073
69470SOL    HW110307   9.472   6.708   2.006
69470SOL    HW210308   9.516   6.688   2.150
69471SOL     OW10309   5.389   1.230   5.231
69471SOL    HW110310   5.393   1.146   5.185
69471SOL    HW210311   5.299   1.260   5.217
69472SOL     OW10312   2.857   9.858  11.029
69472SOL    HW110313   2.792   9.803  11.073
69472SOL    HW210314   2.838   9.848  10.936
69473SOL     OW10315   5.996   5.268   0.737
69473SOL    HW110316   6.085   5.286   0.766
69473SOL    HW210317   5.940   5.311   0.802
69474SOL     OW10318   0.037  13.347  11.118
69474SOL    HW110319   0.013  13.258  11.093
69474SOL    HW210320   0.118  13.365  11.071
69475SOL     OW10321   1.812  14.389  14.869
69475SOL    HW110322   1.722  14.419  14.862
69475SOL    HW210323   1.856  14.424  14.792
69476SOL     OW10324   4.373  11.087   0.935
69476SOL    HW110325   4.430  11.159   0.908
69476SOL    HW210326   4.323  11.122   1.009
69477SOL     OW10327   8.427   2.362   4.393
69477SOL    HW110328   8.415   2.340   4.301
69477SOL    HW210329   8.457   2.281   4.434
69478SOL     OW10330  14.375   3.906  12.723
69478SOL    HW110331  14.329   3.837  12.770
69478SOL    HW210332  14.320   3.925  12.648
69479SOL     OW10333   8.202   5.439   4.990
69479SOL    HW110334   8.219   5.490   4.911
69479SOL    HW210335   8.106   5.437   4.997
69480SOL     OW10336  10.380   3.975   9.187
69480SOL    HW110337  10.413   3.923   9.113
69480SOL    HW210338  10.395   3.920   9.263
69481SOL     OW10339   3.920   0.278  14.124
69481SOL    HW110340   3.929   0.188  14.156
69481SOL    HW210341   3.838   0.279  14.075
69482SOL     OW10342  14.629   8.484  10.716
69482SOL    HW110343  14.664   8.396  10.706
69482SOL    HW210344  14.698   8.533  10.760
69483SOL     OW10345   4.840   8.334  10.214
69483SOL    HW110346   4.755   8.335  10.258
69483SOL    HW210347   4.903   8.310  10.282
69484SOL     OW10348   4.471   6.114   9.621
69484SOL    HW110349   4.555   6.130   9.662
69484SOL    HW210350   4.427   6.051   9.678
69485SOL     OW10351   7.726  12.278  10.405
69485SOL    HW110352   7.818  12.303  10.393
69485SOL    HW210353   7.693  12.266  10.316
69486SOL     OW10354   2.287   6.517   1.124
69486SOL    HW110355   2.282   6.520   1.219
69486SOL    HW210356   2.378   6.495   1.105
69487SOL     OW10357   5.880   1.919  14.213
69487SOL    HW110358   5.931   1.984  14.262
69487SOL    HW210359   5.794   1.919  14.255
69488SOL     OW10360   4.474   3.207   7.926
69488SOL    HW110361   4.458   3.232   7.835
69488SOL    HW210362   4.533   3.132   7.920
69489SOL     OW10363  13.501   1.225   7.584
69489SOL    HW110364  13.544   1.311   7.593
69489SOL    HW210365  13.417   1.245   7.542
69490SOL     OW10366  13.268   2.363   3.461
69490SOL    HW110367  13.242   2.434   3.402
69490SOL    HW210368  13.331   2.404   3.521
69491SOL     OW10369   6.535   6.468   7.213
69491SOL    HW110370   6.484   6.485   7.292
69491SOL    HW210371   6.576   6.552   7.192
69492SOL     OW10372  14.303  10.009  12.240
69492SOL    HW110373  14.332  10.009  12.148
69492SOL    HW210374  14.379   9.979  12.289
69493SOL     OW10375  11.015  11.561  12.211
69493SOL    HW110376  11.039  11.488  12.153
69493SOL    HW210377  11.085  11.625  12.200
69494SOL     OW10378   1.967  12.215   8.013
69494SOL    HW110379   2.005  12.161   7.944
69494SOL    HW210380   1.914  12.155   8.065
69495SOL     OW10381  14.385  10.346   7.074
69495SOL    HW110382  14.466  10.384   7.039
69495SOL    HW210383  14.317  10.375   7.012
69496SOL     OW10384   5.339  10.545   8.974
69496SOL    HW110385   5.368  10.488   8.902
69496SOL    HW210386   5.341  10.489   9.051
69497SOL     OW10387  11.644   3.892   0.308
69497SOL    HW110388  11.677   3.946   0.379
69497SOL    HW210389  11.688   3.808   0.318
69498SOL     OW10390   2.729   5.937   1.253
69498SOL    HW110391   2.751   5.904   1.166
69498SOL    HW210392   2.671   5.870   1.290
69499SOL     OW10393   3.121   6.357   4.860
69499SOL    HW110394   3.193   6.385   4.917
69499SOL    HW210395   3.056   6.321   4.919
69500SOL     OW10396   7.347  10.798   3.844
69500SOL    HW110397   7.420  10.860   3.844
69500SOL    HW210398   7.363  10.743   3.768
69501SOL     OW10399   6.232   5.482   2.305
69501SOL    HW110400   6.301   5.493   2.240
69501SOL    HW210401   6.272   5.431   2.376
69502SOL     OW10402   7.254  11.864   5.410
69502SOL    HW110403   7.241  11.769   5.404
69502SOL    HW210404   7.232  11.897   5.323
69503SOL     OW10405  11.174   0.302   2.417
69503SOL    HW110406  11.227   0.329   2.492
69503SOL    HW210407  11.085   0.296   2.452
69504SOL     OW10408  12.998  11.593  10.452
69504SOL    HW110409  12.966  11.672  10.408
69504SOL    HW210410  12.948  11.589  10.533
69505SOL     OW10411   4.898   0.118   6.608
69505SOL    HW110412   4.914   0.202   6.650
69505SOL    HW210413   4.836   0.074   6.666
69506SOL     OW10414  11.933   7.003   0.416
69506SOL    HW110415  12.020   6.963   0.411
69506SOL    HW210416  11.946   7.082   0.468
69507SOL     OW10417  11.034   5.101  10.025
69507SOL    HW110418  11.002   5.188  10.048
69507SOL    HW210419  11.023   5.049  10.104
69508SOL     OW10420   7.273   5.941  12.147
69508SOL    HW110421   7.353   5.918  12.100
69508SOL    HW210422   7.300   6.006  12.212
69509SOL     OW10423   7.349   7.796   9.628
69509SOL    HW110424   7.390   7.850   9.560
69509SOL    HW210425   7.273   7.846   9.656
69510SOL     OW10426   0.865  10.823   5.086
69510SOL    HW110427   0.878  10.738   5.044
69510SOL    HW210428   0.905  10.886   5.026
69511SOL     OW10429  10.431   6.174  14.288
69511SOL    HW110430  10.493   6.144  14.354
69511SOL    HW210431  10.374   6.099  14.272
69512SOL     OW10432  13.401   7.724   2.357
69512SOL    HW110433  13.363   7.704   2.272
69512SOL    HW210434  13.347   7.796   2.391
69513SOL     OW10435   7.834  12.646   7.114
69513SOL    HW110436   7.843  12.703   7.190
69513SOL    HW210437   7.823  12.705   7.040
69514SOL     OW10438  12.595  11.883  11.819
69514SOL    HW110439  12.681  11.894  11.779
69514SOL    HW210440  12.574  11.969  11.855
69515SOL     OW10441   2.673   9.936  11.307
69515SOL    HW110442   2.585   9.935  11.270
69515SOL    HW210443   2.719   9.863  11.265
69516SOL     OW10444   8.896   4.631  12.401
69516SOL    HW110445   8.814   4.647  12.355
69516SOL    HW210446   8.964   4.646  12.336
69517SOL     OW10447   1.497   4.985   7.821
69517SOL    HW110448   1.514   5.003   7.728
69517SOL    HW210449   1.426   4.921   7.821
69518SOL     OW10450   8.606   3.910   3.579
69518SOL    HW110451   8.654   3.889   3.659
69518SOL    HW210452   8.547   3.981   3.604
69519SOL     OW10453   5.381   5.128   1.187
69519SOL    HW110454   5.438   5.186   1.238
69519SOL    HW210455   5.336   5.187   1.126
69520SOL     OW10456   3.640   0.730   2.579
69520SOL    HW110457   3.689   0.768   2.652
69520SOL    HW210458   3.679   0.769   2.501
69521SOL     OW10459   6.157   6.416   7.045
69521SOL    HW110460   6.070   6.381   7.028
69521SOL    HW210461   6.180   6.464   6.965
69522SOL     OW10462  13.332   5.974   5.871
69522SOL    HW110463  13.415   6.015   5.893
69522SOL    HW210464  13.327   5.978   5.775
69523SOL     OW10465   4.623   2.587   6.525
69523SOL    HW110466   4.645   2.539   6.605
69523SOL    HW210467   4.707   2.603   6.483
69524SOL     OW10468   7.595   7.930  10.307
69524SOL    HW110469   7.601   7.891  10.220
69524SOL    HW210470   7.503   7.924  10.331
69525SOL     OW10471   2.193  12.972   1.428
69525SOL    HW110472   2.281  13.010   1.420
69525SOL    HW210473   2.167  12.989   1.518
69526SOL     OW10474   7.824   6.580   3.308
69526SOL    HW110475   7.823   6.675   3.313
69526SOL    HW210476   7.898   6.554   3.363
69527SOL     OW10477  11.688  13.263  13.107
69527SOL    HW110478  11.642  13.327  13.161
69527SOL    HW210479  11.779  13.268  13.137
69528SOL     OW10480  12.392  12.938   0.802
69528SOL    HW110481  12.324  12.882   0.840
69528SOL    HW210482  12.353  12.971   0.721
69529SOL     OW10483   1.508  13.188   0.028
69529SOL    HW110484   1.496  13.157  14.810
69529SOL    HW210485   1.428  13.238   0.046
69530SOL     OW10486   2.498  11.494   3.293
69530SOL    HW110487   2.417  11.516   3.340
69530SOL    HW210488   2.470  11.480   3.202
69531SOL     OW10489   2.739  12.463  12.282
69531SOL    HW110490   2.705  12.383  12.241
69531SOL    HW210491   2.667  12.494  12.337
69532SOL     OW10492   6.201   8.117   0.796
69532SOL    HW110493   6.134   8.132   0.862
69532SOL    HW210494   6.216   8.022   0.798
69533SOL     OW10495  13.560   2.536  14.552
69533SOL    HW110496  13.584   2.452  14.512
69533SOL    HW210497  13.487   2.515  14.610
69534SOL     OW10498  12.230   7.981   3.152
69534SOL    HW110499  12.285   7.935   3.089
69534SOL    HW210500  12.286   7.990   3.229
69535SOL     OW10501   8.274   1.987   4.930
69535SOL    HW110502   8.252   2.039   4.853
69535SOL    HW210503   8.340   1.925   4.899
69536SOL     OW10504  12.155   9.215  14.046
69536SOL    HW110505  12.156   9.285  13.981
69536SOL    HW210506  12.240   9.221  14.090
69537SOL     OW10507   8.817   5.740  12.789
69537SOL    HW110508   8.866   5.774  12.864
69537SOL    HW210509   8.725   5.752  12.813
69538SOL     OW10510  14.420  12.496   8.427
69538SOL    HW110511  14.493  12.483   8.367
69538SOL    HW210512  14.378  12.410   8.433
69539SOL     OW10513  10.620   0.323  13.925
69539SOL    HW110514  10.667   0.326  14.008
69539SOL    HW210515  10.559   0.397  13.930
69540SOL     OW10516   9.394   2.905  13.648
69540SOL    HW110517   9.416   2.939  13.561
69540SOL    HW210518   9.458   2.835  13.663
69541SOL     OW10519  11.476  14.582   9.906
69541SOL    HW110520  11.475  14.675   9.926
69541SOL    HW210521  11.433  14.541   9.980
69542SOL     OW10522   9.375   6.755   2.896
69542SOL    HW110523   9.306   6.688   2.891
69542SOL    HW210524   9.328   6.837   2.911
69543SOL     OW10525  12.989   6.510   6.777
69543SOL    HW110526  13.084   6.514   6.760
69543SOL    HW210527  12.983   6.489   6.871
69544SOL     OW10528   1.363   6.516   5.292
69544SOL    HW110529   1.312   6.597   5.289
69544SOL    HW210530   1.351   6.485   5.382
69545SOL     OW10531   7.735  14.435  11.214
69545SOL    HW110532   7.721  14.350  11.172
69545SOL    HW210533   7.814  14.422  11.267
69546SOL     OW10534  11.191   9.622   5.918
69546SOL    HW110535  11.159   9.701   5.961
69546SOL    HW210536  11.281   9.612   5.949
69547SOL     OW10537   8.868   9.842   8.610
69547SOL    HW110538   8.807   9.809   8.544
69547SOL    HW210539   8.813   9.885   8.675
69548SOL     OW10540   5.762  10.981   6.162
69548SOL    HW110541   5.805  10.940   6.238
69548SOL    HW210542   5.832  11.024   6.115
69549SOL     OW10543   0.353  12.094   3.182
69549SOL    HW110544   0.400  12.177   3.194
69549SOL    HW210545   0.360  12.077   3.088
69550SOL     OW10546  14.214  14.774  13.903
69550SOL    HW110547  14.297  14.742  13.868
69550SOL    HW210548  14.162  14.694  13.917
69551SOL     OW10549   4.922   2.902   9.788
69551SOL    HW110550   5.008   2.875   9.820
69551SOL    HW210551   4.913   2.992   9.819
69552SOL     OW10552  10.646  13.312  12.024
69552SOL    HW110553  10.711  13.250  12.055
69552SOL    HW210554  10.664  13.392  12.073
69553SOL     OW10555   3.356   6.750   2.023
69553SOL    HW110556   3.374   6.748   1.929
69553SOL    HW210557   3.441   6.733   2.064
69554SOL     OW10558   2.044   1.412   8.110
69554SOL    HW110559   2.138   1.411   8.098
69554SOL    HW210560   2.020   1.320   8.117
69555SOL     OW10561   6.995  14.539  11.828
69555SOL    HW110562   7.056  14.465  11.831
69555SOL    HW210563   6.923  14.512  11.884
69556SOL     OW10564   1.753   2.427  14.460
69556SOL    HW110565   1.754   2.522  14.446
69556SOL    HW210566   1.815   2.413  14.531
69557SOL     OW10567  11.203  12.724  14.260
69557SOL    HW110568  11.297  12.728  14.273
69557SOL    HW210569  11.187  12.637  14.224
69558SOL     OW10570   3.730   8.505   9.847
69558SOL    HW110571   3.815   8.504   9.890
69558SOL    HW210572   3.684   8.580   9.885
69559SOL     OW10573   3.019  14.309   2.320
69559SOL    HW110574   2.957  14.335   2.252
69559SOL    HW210575   3.030  14.215   2.306
69560SOL     OW10576   0.773  10.327   9.940
69560SOL    HW110577   0.692  10.279   9.957
69560SOL    HW210578   0.809  10.346  10.026
69561SOL     OW10579   7.022  10.933  14.656
69561SOL    HW110580   6.992  10.906  14.569
69561SOL    HW210581   7.029  11.028  14.650
69562SOL     OW10582  13.076   0.814   9.156
69562SOL    HW110583  13.048   0.790   9.244
69562SOL    HW210584  13.064   0.909   9.152
69563SOL     OW10585   6.605   8.990   3.235
69563SOL    HW110586   6.587   9.011   3.144
69563SOL    HW210587   6.688   8.942   3.233
69564SOL     OW10588   1.300   5.427   6.497
69564SOL    HW110589   1.204   5.428   6.496
69564SOL    HW210590   1.323   5.422   6.590
69565SOL     OW10591   6.913  11.224   3.468
69565SOL    HW110592   6.952  11.290   3.525
69565SOL    HW210593   6.976  11.215   3.396
69566SOL     OW10594   6.055   6.709   8.540
69566SOL    HW110595   5.963   6.728   8.522
69566SOL    HW210596   6.081   6.649   8.470
69567SOL     OW10597   7.748   3.149   6.638
69567SOL    HW110598   7.801   3.127   6.562
69567SOL    HW210599   7.692   3.073   6.652
69568SOL     OW10600  12.623   8.483  14.098
69568SOL    HW110601  12.587   8.415  14.041
69568SOL    HW210602  12.547   8.519  14.143
69569SOL     OW10603   4.120   1.163   0.633
69569SOL    HW110604   4.049   1.099   0.639
69569SOL    HW210605   4.136   1.190   0.723
69570SOL     OW10606   7.369  13.604  14.302
69570SOL    HW110607   7.303  13.576  14.365
69570SOL    HW210608   7.429  13.530  14.294
69571SOL     OW10609  11.686   6.015   4.858
69571SOL    HW110610  11.614   6.074   4.880
69571SOL    HW210611  11.740   6.064   4.797
69572SOL     OW10612   5.140   6.270   1.348
69572SOL    HW110613   5.049   6.259   1.376
69572SOL    HW210614   5.134   6.290   1.255
69573SOL     OW10615   6.973  10.397   3.620
69573SOL    HW110616   6.930  10.389   3.705
69573SOL    HW210617   7.057  10.438   3.638
69574SOL     OW10618   1.086  11.979  12.121
69574SOL    HW110619   1.153  11.990  12.054
69574SOL    HW210620   1.023  12.049  12.105
69575SOL     OW10621  12.212   9.710  10.310
69575SOL    HW110622  12.258   9.698  10.227
69575SOL    HW210623  12.134   9.655  10.303
69576SOL     OW10624  10.678   7.413  12.755
69576SOL    HW110625  10.700   7.500  12.789
69576SOL    HW210626  10.591   7.395  12.790
69577SOL     OW10627   3.866   6.553   9.785
69577SOL    HW110628   3.940   6.551   9.725
69577SOL    HW210629   3.832   6.642   9.778
69578SOL     OW10630  10.220   7.410   1.861
69578SOL    HW110631  10.253   7.336   1.911
69578SOL    HW210632  10.144   7.441   1.911
69579SOL     OW10633  13.355   2.811  12.719
69579SOL    HW110634  13.377   2.724  12.753
69579SOL    HW210635  13.414   2.870  12.765
69580SOL     OW10636   8.015   7.634  13.079
69580SOL    HW110637   8.039   7.548  13.044
69580SOL    HW210638   8.089   7.658  13.135
69581SOL     OW10639   3.762  11.064   9.328
69581SOL    HW110640   3.833  11.066   9.264
69581SOL    HW210641   3.767  11.149   9.372
69582SOL     OW10642   1.673   3.499  11.357
69582SOL    HW110643   1.708   3.588  11.362
69582SOL    HW210644   1.679   3.466  11.447
69583SOL     OW10645   4.252   5.063  13.623
69583SOL    HW110646   4.200   5.114  13.686
69583SOL    HW210647   4.334   5.044  13.669
69584SOL     OW10648  10.756   7.826  13.197
69584SOL    HW110649  10.676   7.785  13.164
69584SOL    HW210650  10.756   7.913  13.157
69585SOL     OW10651   7.520   6.679   4.781
69585SOL    HW110652   7.582   6.674   4.854
69585SOL    HW210653   7.441   6.717   4.820
69586SOL     OW10654   4.954   8.201   5.202
69586SOL    HW110655   4.955   8.192   5.106
69586SOL    HW210656   4.946   8.295   5.217
69587SOL     OW10657   7.889   4.922  11.472
69587SOL    HW110658   7.870   5.005  11.516
69587SOL    HW210659   7.825   4.917  11.401
69588SOL     OW10660   5.264   2.517   1.859
69588SOL    HW110661   5.264   2.436   1.809
69588SOL    HW210662   5.347   2.559   1.838
69589SOL     OW10663  13.061   1.809   4.414
69589SOL    HW110664  12.981   1.778   4.458
69589SOL    HW210665  13.039   1.898   4.386
69590SOL     OW10666   5.716   5.660  10.851
69590SOL    HW110667   5.810   5.677  10.845
69590SOL    HW210668   5.675   5.734  10.806
69591SOL     OW10669   4.385   6.141   5.358
69591SOL    HW110670   4.480   6.151   5.371
69591SOL    HW210671   4.371   6.047   5.358
69592SOL     OW10672   3.497   9.809  11.388
69592SOL    HW110673   3.432   9.851  11.444
69592SOL    HW210674   3.452   9.798  11.304
69593SOL     OW10675  12.013   5.138   8.612
69593SOL    HW110676  12.061   5.116   8.532
69593SOL    HW210677  12.068   5.106   8.683
69594SOL     OW10678  11.377  11.239   9.320
69594SOL    HW110679  11.427  11.162   9.294
69594SOL    HW210680  11.361  11.286   9.239
69595SOL     OW10681   6.608   8.814   4.706
69595SOL    HW110682   6.537   8.750   4.705
69595SOL    HW210683   6.686   8.762   4.686
69596SOL     OW10684   3.345  14.510   8.327
69596SOL    HW110685   3.265  14.461   8.305
69596SOL    HW210686   3.358  14.496   8.421
69597SOL     OW10687   6.989  14.140  13.464
69597SOL    HW110688   6.942  14.195  13.527
69597SOL    HW210689   7.057  14.198  13.428
69598SOL     OW10690   1.111  10.608   3.487
69598SOL    HW110691   1.094  10.696   3.521
69598SOL    HW210692   1.025  10.573   3.468
69599SOL     OW10693   5.341  12.185   1.091
69599SOL    HW110694   5.368  12.093   1.089
69599SOL    HW210695   5.414  12.232   1.050
69600SOL     OW10696   1.409   4.521   5.512
69600SOL    HW110697   1.448   4.608   5.510
69600SOL    HW210698   1.383   4.505   5.421
69601SOL     OW10699  10.953   1.669   9.953
69601SOL    HW110700  10.989   1.619   9.879
69601SOL    HW210701  10.859   1.651   9.951
69602SOL     OW10702  11.659   7.755   1.830
69602SOL    HW110703  11.581   7.723   1.876
69602SOL    HW210704  11.703   7.812   1.893
69603SOL     OW10705   8.087  13.019   4.478
69603SOL    HW110706   8.123  13.005   4.390
69603SOL    HW210707   8.140  13.090   4.514
69604SOL     OW10708   6.542   4.733  11.267
69604SOL    HW110709   6.537   4.806  11.329
69604SOL    HW210710   6.492   4.762  11.191
69605SOL     OW10711  10.705  10.259   9.889
69605SOL    HW110712  10.618  10.224   9.867
69605SOL    HW210713  10.765  10.186   9.874
69606SOL     OW10714   3.366   7.087  11.808
69606SOL    HW110715   3.409   7.090  11.722
69606SOL    HW210716   3.334   6.997  11.815
69607SOL     OW10717   9.243   2.578   0.159
69607SOL    HW110718   9.193   2.504   0.125
69607SOL    HW210719   9.333   2.558   0.134
69608SOL     OW10720  10.640   3.686  13.370
69608SOL    HW110721  10.646   3.669  13.464
69608SOL    HW210722  10.564   3.636  13.341
69609SOL     OW10723   0.696  13.882  11.792
69609SOL    HW110724   0.722  13.806  11.740
69609SOL    HW210725   0.617  13.915  11.748
69610SOL     OW10726   7.273   7.630  12.594
69610SOL    HW110727   7.309   7.543  12.574
69610SOL    HW210728   7.212   7.614  12.666
69611SOL     OW10729   9.125   7.561   7.997
69611SOL    HW110730   9.142   7.511   8.077
69611SOL    HW210731   9.056   7.512   7.952
69612SOL     OW10732   4.159  13.051  13.187
69612SOL    HW110733   4.122  12.964  13.171
69612SOL    HW210734   4.254  13.035  13.195
69613SOL     OW10735   9.072  12.218  13.218
69613SOL    HW110736   9.049  12.299  13.264
69613SOL    HW210737   9.092  12.245  13.129
69614SOL     OW10738   8.523   1.336  10.768
69614SOL    HW110739   8.539   1.362  10.859
69614SOL    HW210740   8.476   1.253  10.775
69615SOL     OW10741  12.679   9.677  14.050
69615SOL    HW110742  12.752   9.656  14.108
69615SOL    HW210743  12.627   9.596  14.048
69616SOL     OW10744   5.446  12.651  12.645
69616SOL    HW110745   5.519  12.633  12.585
69616SOL    HW210746   5.477  12.725  12.697
69617SOL     OW10747   0.937   3.641  12.986
69617SOL    HW110748   0.941   3.733  12.958
69617SOL    HW210749   0.851   3.632  13.026
69618SOL     OW10750  11.662  11.672  10.357
69618SOL    HW110751  11.640  11.585  10.325
69618SOL    HW210752  11.698  11.657  10.445
69619SOL     OW10753  10.070   0.673   9.573
69619SOL    HW110754  10.137   0.607   9.590
69619SOL    HW210755  10.035   0.695   9.660
69620SOL     OW10756   7.687  12.134  14.444
69620SOL    HW110757   7.768  12.083  14.433
69620SOL    HW210758   7.714  12.210  14.495
69621SOL     OW10759  10.303   3.450   3.354
69621SOL    HW110760  10.312   3.529   3.300
69621SOL    HW210761  10.249   3.477   3.428
69622SOL     OW10762  12.478   2.647  10.814
69622SOL    HW110763  12.441   2.733  10.796
69622SOL    HW210764  12.407   2.599  10.857
69623SOL     OW10765  11.816  11.929   7.899
69623SOL    HW110766  11.900  11.946   7.856
69623SOL    HW210767  11.836  11.863   7.965
69624SOL     OW10768  13.789   9.019  14.372
69624SOL    HW110769  13.833   9.093  14.414
69624SOL    HW210770  13.849   8.992  14.303
69625SOL     OW10771   1.769   2.606  11.101
69625SOL    HW110772   1.701   2.666  11.071
69625SOL    HW210773   1.842   2.620  11.041
69626SOL     OW10774   8.002   4.318   2.094
69626SOL    HW110775   8.090   4.287   2.114
69626SOL    HW210776   8.003   4.334   1.999
69627SOL     OW10777   8.032   9.279   5.561
69627SOL    HW110778   8.035   9.272   5.656
69627SOL    HW210779   7.950   9.325   5.543
69628SOL     OW10780   4.750  12.881  11.720
69628SOL    HW110781   4.718  12.937  11.650
69628SOL    HW210782   4.727  12.792  11.692
69629SOL     OW10783   1.170  11.382  12.769
69629SOL    HW110784   1.170  11.457  12.709
69629SOL    HW210785   1.078  11.355  12.773
69630SOL     OW10786   4.983  11.901   1.089
69630SOL    HW110787   4.901  11.928   1.130
69630SOL    HW210788   5.045  11.894   1.162
69631SOL     OW10789  14.639   2.005   8.552
69631SOL    HW110790  14.585   1.957   8.489
69631SOL    HW210791  14.729   1.989   8.524
69632SOL     OW10792   4.847   0.276  10.980
69632SOL    HW110793   4.797   0.357  10.988
69632SOL    HW210794   4.811   0.219  11.048
69633SOL     OW10795  14.297   7.941  11.690
69633SOL    HW110796  14.286   7.855  11.729
69633SOL    HW210797  14.388   7.965  11.709
69634SOL     OW10798  13.663   8.677   5.198
69634SOL    HW110799  13.713   8.633   5.129
69634SOL    HW210800  13.697   8.637   5.279
69635SOL     OW10801  12.065   3.341  11.232
69635SOL    HW110802  12.067   3.323  11.138
69635SOL    HW210803  12.052   3.436  11.238
69636SOL     OW10804   5.708   5.847   2.543
69636SOL    HW110805   5.714   5.812   2.632
69636SOL    HW210806   5.693   5.941   2.555
69637SOL     OW10807   8.102   4.551   3.725
69637SOL    HW110808   8.084   4.539   3.819
69637SOL    HW210809   8.173   4.490   3.706
69638SOL     OW10810   0.779   0.853   5.599
69638SOL    HW110811   0.700   0.869   5.651
69638SOL    HW210812   0.781   0.926   5.536
69639SOL     OW10813   4.239   1.102   2.021
69639SOL    HW110814   4.207   1.147   2.099
69639SOL    HW210815   4.328   1.076   2.044
69640SOL     OW10816   6.569   7.308  13.623
69640SOL    HW110817   6.582   7.267  13.709
69640SOL    HW210818   6.535   7.238  13.568
69641SOL     OW10819   5.172   5.631   3.509
69641SOL    HW110820   5.155   5.546   3.469
69641SOL    HW210821   5.213   5.610   3.593
69642SOL     OW10822   1.885  12.683  12.957
69642SOL    HW110823   1.836  12.621  12.903
69642SOL    HW210824   1.825  12.704  13.029
69643SOL     OW10825   4.496  12.820   0.050
69643SOL    HW110826   4.591  12.824   0.060
69643SOL    HW210827   4.480  12.836  14.829
69644SOL     OW10828   3.152   2.581  14.295
69644SOL    HW110829   3.101   2.517  14.345
69644SOL    HW210830   3.100   2.661  14.298
69645SOL     OW10831  13.660   1.925   4.247
69645SOL    HW110832  13.728   1.959   4.189
69645SOL    HW210833  13.620   2.003   4.286
69646SOL     OW10834  12.035  12.482   8.216
69646SOL    HW110835  12.106  12.531   8.173
69646SOL    HW210836  11.977  12.549   8.251
69647SOL     OW10837   8.777   2.215   2.018
69647SOL    HW110838   8.777   2.307   1.990
69647SOL    HW210839   8.819   2.216   2.104
69648SOL     OW10840  10.842   8.492  13.217
69648SOL    HW110841  10.771   8.539  13.173
69648SOL    HW210842  10.922   8.521  13.172
69649SOL     OW10843   9.861   0.293   0.147
69649SOL    HW110844   9.940   0.347   0.155
69649SOL    HW210845   9.894   0.204   0.139
69650SOL     OW10846   7.147  12.503   3.337
69650SOL    HW110847   7.099  12.424   3.310
69650SOL    HW210848   7.082  12.572   3.336
69651SOL     OW10849   0.500   4.262  14.367
69651SOL    HW110850   0.443   4.314  14.312
69651SOL    HW210851   0.549   4.207  14.306
69652SOL     OW10852   7.478  12.105   8.027
69652SOL    HW110853   7.401  12.088   7.973
69652SOL    HW210854   7.534  12.161   7.974
69653SOL     OW10855   6.046  12.848   0.332
69653SOL    HW110856   6.093  12.780   0.283
69653SOL    HW210857   6.092  12.929   0.310
69654SOL     OW10858   0.959   5.222   4.485
69654SOL    HW110859   1.045   5.246   4.451
69654SOL    HW210860   0.977   5.162   4.557
69655SOL     OW10861   1.629  13.426  13.385
69655SOL    HW110862   1.537  13.403  13.368
69655SOL    HW210863   1.624  13.510  13.431
69656SOL     OW10864   0.725   6.427   0.389
69656SOL    HW110865   0.733   6.348   0.444
69656SOL    HW210866   0.815   6.450   0.367
69657SOL     OW10867   4.744  11.097   6.785
69657SOL    HW110868   4.655  11.065   6.767
69657SOL    HW210869   4.797  11.018   6.792
69658SOL     OW10870   2.099  14.751   2.927
69658SOL    HW110871   2.074  14.699   3.004
69658SOL    HW210872   2.163  14.813   2.961
69659SOL     OW10873   8.321   8.229   5.426
69659SOL    HW110874   8.272   8.172   5.365
69659SOL    HW210875   8.300   8.194   5.513
69660SOL     OW10876   2.746   6.470   5.382
69660SOL    HW110877   2.821   6.437   5.431
69660SOL    HW210878   2.736   6.560   5.410
69661SOL     OW10879  11.980  14.338   5.881
69661SOL    HW110880  12.060  14.380   5.912
69661SOL    HW210881  11.911  14.403   5.897
69662SOL     OW10882   0.226   4.201  12.261
69662SOL    HW110883   0.201   4.282  12.307
69662SOL    HW210884   0.155   4.184  12.201
69663SOL     OW10885   8.143   4.350   9.809
69663SOL    HW110886   8.177   4.326   9.723
69663SOL    HW210887   8.220   4.375   9.860
69664SOL     OW10888   5.449   4.424   9.582
69664SOL    HW110889   5.459   4.421   9.487
69664SOL    HW210890   5.388   4.496   9.597
69665SOL     OW10891   5.171  12.497  14.728
69665SOL    HW110892   5.153  12.433  14.797
69665SOL    HW210893   5.255  12.536  14.751
69666SOL     OW10894   4.542   9.975   7.658
69666SOL    HW110895   4.488  10.038   7.705
69666SOL    HW210896   4.632   9.996   7.684
69667SOL     OW10897  12.668   6.700   5.498
69667SOL    HW110898  12.732   6.685   5.428
69667SOL    HW210899  12.705   6.770   5.551
69668SOL     OW10900  12.338   9.125  11.178
69668SOL    HW110901  12.382   9.040  11.176
69668SOL    HW210902  12.245   9.104  11.167
69669SOL     OW10903  13.833   5.127   7.820
69669SOL    HW110904  13.819   5.221   7.815
69669SOL    HW210905  13.759   5.095   7.872
69670SOL     OW10906   9.060   3.727   2.574
69670SOL    HW110907   8.997   3.761   2.511
69670SOL    HW210908   9.087   3.803   2.625
69671SOL     OW10909  14.775   0.546   9.848
69671SOL    HW110910  14.814   0.625   9.808
69671SOL    HW210911  14.716   0.512   9.781
69672SOL     OW10912   7.917   6.337  13.442
69672SOL    HW110913   7.828   6.369  13.458
69672SOL    HW210914   7.935   6.278  13.515
69673SOL     OW10915   5.064  14.579   8.282
69673SOL    HW110916   5.010  14.590   8.360
69673SOL    HW210917   5.149  14.551   8.317
69674SOL     OW10918  13.544  11.856   1.878
69674SOL    HW110919  13.484  11.910   1.929
69674SOL    HW210920  13.621  11.845   1.935
69675SOL     OW10921   5.788   3.075   5.175
69675SOL    HW110922   5.736   3.134   5.229
69675SOL    HW210923   5.835   3.133   5.114
69676SOL     OW10924   1.267  14.662   1.660
69676SOL    HW110925   1.201  14.727   1.684
69676SOL    HW210926   1.293  14.623   1.743
69677SOL     OW10927  10.714   3.024   7.313
69677SOL    HW110928  10.788   2.991   7.365
69677SOL    HW210929  10.712   3.117   7.331
69678SOL     OW10930   2.444  11.932   1.024
69678SOL    HW110931   2.423  11.931   0.930
69678SOL    HW210932   2.359  11.922   1.067
69679SOL     OW10933   2.571  10.104   9.513
69679SOL    HW110934   2.655  10.059   9.519
69679SOL    HW210935   2.520  10.052   9.451
69680SOL     OW10936   2.025  10.668   0.385
69680SOL    HW110937   2.024  10.674   0.290
69680SOL    HW210938   2.115  10.689   0.409
69681SOL     OW10939   6.799   9.076   0.809
69681SOL    HW110940   6.781   9.071   0.903
69681SOL    HW210941   6.720   9.039   0.768
69682SOL     OW10942   2.137   2.098   8.157
69682SOL    HW110943   2.202   2.027   8.161
69682SOL    HW210944   2.179   2.171   8.203
69683SOL     OW10945   4.178   7.811  10.171
69683SOL    HW110946   4.233   7.807  10.249
69683SOL    HW210947   4.179   7.721  10.136
69684SOL     OW10948   4.641   4.329   1.201
69684SOL    HW110949   4.602   4.326   1.288
69684SOL    HW210950   4.646   4.422   1.179
69685SOL     OW10951  13.304  14.466   9.408
69685SOL    HW110952  13.361  14.510   9.471
69685SOL    HW210953  13.307  14.522   9.330
69686SOL     OW10954   6.567  11.225   5.704
69686SOL    HW110955   6.564  11.231   5.799
69686SOL    HW210956   6.562  11.131   5.686
69687SOL     OW10957  12.994  11.339   7.613
69687SOL    HW110958  13.059  11.406   7.594
69687SOL    HW210959  12.921  11.388   7.652
69688SOL     OW10960   6.460   8.616  12.893
69688SOL    HW110961   6.391   8.682  12.900
69688SOL    HW210962   6.498   8.610  12.980
69689SOL     OW10963  12.991   6.414  12.819
69689SOL    HW110964  12.986   6.425  12.914
69689SOL    HW210965  12.982   6.502  12.784
69690SOL     OW10966   4.763   3.369   1.723
69690SOL    HW110967   4.739   3.452   1.681
69690SOL    HW210968   4.827   3.330   1.663
69691SOL     OW10969  10.142   1.088   5.942
69691SOL    HW110970  10.070   1.074   5.879
69691SOL    HW210971  10.219   1.053   5.898
69692SOL     OW10972  12.864   8.588   8.293
69692SOL    HW110973  12.955   8.566   8.271
69692SOL    HW210974  12.815   8.507   8.275
69693SOL     OW10975   9.516  13.636  12.443
69693SOL    HW110976   9.451  13.668  12.505
69693SOL    HW210977   9.486  13.667  12.358
69694SOL     OW10978   8.840   3.273   3.986
69694SOL    HW110979   8.811   3.364   3.999
69694SOL    HW210980   8.793   3.224   4.053
69695SOL     OW10981   5.259   8.350   4.305
69695SOL    HW110982   5.257   8.445   4.319
69695SOL    HW210983   5.185   8.334   4.246
69696SOL     OW10984   8.703  13.848   6.986
69696SOL    HW110985   8.790  13.810   6.974
69696SOL    HW210986   8.651  13.779   7.026
69697SOL     OW10987   4.809   8.063   6.183
69697SOL    HW110988   4.760   8.058   6.100
69697SOL    HW210989   4.752   8.019   6.246
69698SOL     OW10990   1.563   8.725   0.949
69698SOL    HW110991   1.497   8.731   1.018
69698SOL    HW210992   1.647   8.721   0.996
69699SOL     OW10993   5.630  11.512   0.966
69699SOL    HW110994   5.636  11.556   1.051
69699SOL    HW210995   5.662  11.577   0.903
69700SOL     OW10996   7.429   7.884   2.789
69700SOL    HW110997   7.465   7.796   2.776
69700SOL    HW210998   7.445   7.904   2.881
69701SOL     OW10999  12.286   1.043   5.995
69701SOL    HW111000  12.214   1.037   6.058
69701SOL    HW211001  12.260   1.114   5.936
69702SOL     OW11002   2.017   0.419   9.079
69702SOL    HW111003   1.944   0.359   9.098
69702SOL    HW211004   2.006   0.441   8.986
69703SOL     OW11005   1.880   1.018  12.650
69703SOL    HW111006   1.961   0.972  12.629
69703SOL    HW211007   1.821   0.949  12.683
69704SOL     OW11008   6.517  10.702   1.187
69704SOL    HW111009   6.563  10.772   1.140
69704SOL    HW211010   6.448  10.674   1.126
69705SOL     OW11011  13.111   7.172  13.824
69705SOL    HW111012  13.044   7.232  13.856
69705SOL    HW211013  13.095   7.167  13.730
69706SOL     OW11014   1.643   2.475   5.282
69706SOL    HW111015   1.604   2.391   5.307
69706SOL    HW211016   1.737   2.464   5.299
69707SOL     OW11017   6.559   4.558  10.743
69707SOL    HW111018   6.613   4.495  10.696
69707SOL    HW211019   6.551   4.522  10.831
69708SOL     OW11020   3.977  10.535   5.097
69708SOL    HW111021   4.019  10.556   5.014
69708SOL    HW211022   4.034  10.471   5.137
69709SOL     OW11023  12.908   5.728  14.784
69709SOL    HW111024  12.901   5.788  14.710
69709SOL    HW211025  12.903   5.785  14.862
69710SOL     OW11026   4.994   8.522  13.750
69710SOL    HW111027   4.996   8.429  13.727
69710SOL    HW211028   5.002   8.568  13.667
69711SOL     OW11029  12.503  11.447   9.544
69711SOL    HW111030  12.567  11.449   9.615
69711SOL    HW211031  12.532  11.376   9.487
69712SOL     OW11032   6.875  11.560  13.675
69712SOL    HW111033   6.841  11.621  13.610
69712SOL    HW211034   6.797  11.529  13.721
69713SOL     OW11035   8.655   3.351   6.581
69713SOL    HW111036   8.594   3.397   6.638
69713SOL    HW211037   8.599   3.301   6.521
69714SOL     OW11038   0.542   4.835  12.682
69714SOL    HW111039   0.473   4.815  12.745
69714SOL    HW211040   0.615   4.866  12.736
69715SOL     OW11041   9.980   6.823   1.563
69715SOL    HW111042   9.915   6.771   1.517
69715SOL    HW211043   9.985   6.905   1.514
69716SOL     OW11044   2.735   0.427   4.652
69716SOL    HW111045   2.720   0.370   4.728
69716SOL    HW211046   2.819   0.397   4.616
69717SOL     OW11047  12.824   3.749  10.548
69717SOL    HW111048  12.809   3.837  10.583
69717SOL    HW211049  12.756   3.738  10.481
69718SOL     OW11050   3.755   2.164  12.225
69718SOL    HW111051   3.830   2.222  12.211
69718SOL    HW211052   3.752   2.150  12.320
69719SOL     OW11053  10.027   6.018   9.705
69719SOL    HW111054  10.071   5.977   9.779
69719SOL    HW211055  10.033   5.953   9.634
69720SOL     OW11056   7.232   0.041   1.995
69720SOL    HW111057   7.273   0.038   1.909
69720SOL    HW211058   7.157  14.853   1.988
69721SOL     OW11059   7.747   9.930   2.104
69721SOL    HW111060   7.816   9.900   2.163
69721SOL    HW211061   7.668   9.887   2.136
69722SOL     OW11062  14.658  12.137   9.232
69722SOL    HW111063  14.723  12.088   9.182
69722SOL    HW211064  14.708  12.192   9.291
69723SOL     OW11065  12.636   2.590   5.877
69723SOL    HW111066  12.640   2.539   5.958
69723SOL    HW211067  12.574   2.542   5.822
69724SOL     OW11068   4.556   4.237   0.112
69724SOL    HW111069   4.648   4.264   0.118
69724SOL    HW211070   4.525   4.238   0.202
69725SOL     OW11071   2.515   6.834   0.243
69725SOL    HW111072   2.453   6.798   0.306
69725SOL    HW211073   2.469   6.911   0.207
69726SOL     OW11074  12.808  10.474   5.630
69726SOL    HW111075  12.823  10.430   5.546
69726SOL    HW211076  12.887  10.457   5.681
69727SOL     OW11077  11.460   2.177   3.814
69727SOL    HW111078  11.542   2.225   3.819
69727SOL    HW211079  11.423   2.182   3.902
69728SOL     OW11080   6.537  12.509  13.545
69728SOL    HW111081   6.629  12.497  13.521
69728SOL    HW211082   6.500  12.421  13.546
69729SOL     OW11083   7.788  14.044  14.466
69729SOL    HW111084   7.815  14.117  14.410
69729SOL    HW211085   7.798  13.966  14.412
69730SOL     OW11086   2.847  14.253  12.372
69730SOL    HW111087   2.831  14.166  12.409
69730SOL    HW211088   2.905  14.295  12.435
69731SOL     OW11089   3.370  14.692   5.932
69731SOL    HW111090   3.440  14.749   5.963
69731SOL    HW211091   3.381  14.690   5.837
69732SOL     OW11092   9.178  10.544  14.052
69732SOL    HW111093   9.150  10.622  14.005
69732SOL    HW211094   9.160  10.471  13.992
69733SOL     OW11095  14.199  13.015   7.838
69733SOL    HW111096  14.144  12.977   7.906
69733SOL    HW211097  14.144  13.012   7.759
69734SOL     OW11098   1.735   2.484   6.724
69734SOL    HW111099   1.687   2.534   6.659
69734SOL    HW211100   1.826   2.488   6.695
69735SOL     OW11101  14.642   4.185   1.526
69735SOL    HW111102  14.719   4.181   1.582
69735SOL    HW211103  14.581   4.243   1.573
69736SOL     OW11104   4.185   9.899  12.173
69736SOL    HW111105   4.221   9.839  12.238
69736SOL    HW211106   4.212   9.863  12.089
69737SOL     OW11107   3.601  13.466   2.733
69737SOL    HW111108   3.509  13.494   2.730
69737SOL    HW211109   3.625  13.474   2.825
69738SOL     OW11110   8.072  12.904   0.641
69738SOL    HW111111   8.101  12.818   0.671
69738SOL    HW211112   8.097  12.907   0.549
69739SOL     OW11113  14.192  11.690   0.121
69739SOL    HW111114  14.281  11.658   0.140
69739SOL    HW211115  14.157  11.626   0.059
69740SOL     OW11116   0.687   4.004   6.899
69740SOL    HW111117   0.638   3.938   6.948
69740SOL    HW211118   0.640   4.086   6.915
69741SOL     OW11119   0.683   9.119   4.660
69741SOL    HW111120   0.757   9.123   4.720
69741SOL    HW211121   0.723   9.108   4.574
69742SOL     OW11122   2.930  13.968  13.687
69742SOL    HW111123   3.002  13.905  13.676
69742SOL    HW211124   2.930  14.020  13.607
69743SOL     OW11125   8.037   4.006  11.633
69743SOL    HW111126   7.982   4.049  11.568
69743SOL    HW211127   8.032   4.063  11.710
69744SOL     OW11128   0.237   6.257   7.128
69744SOL    HW111129   0.291   6.183   7.100
69744SOL    HW211130   0.293   6.333   7.113
69745SOL     OW11131  12.457   5.260   8.012
69745SOL    HW111132  12.540   5.297   7.981
69745SOL    HW211133  12.397   5.271   7.939
69746SOL     OW11134  12.436  10.135  11.904
69746SOL    HW111135  12.467  10.049  11.877
69746SOL    HW211136  12.494  10.197  11.859
69747SOL     OW11137  10.768  12.796   9.400
69747SOL    HW111138  10.860  12.821   9.392
69747SOL    HW211139  10.754  12.784   9.494
69748SOL     OW11140   3.885  12.910   9.221
69748SOL    HW111141   3.908  12.829   9.265
69748SOL    HW211142   3.896  12.979   9.287
69749SOL     OW11143  14.461  11.588   0.508
69749SOL    HW111144  14.385  11.636   0.476
69749SOL    HW211145  14.488  11.534   0.434
69750SOL     OW11146   3.929   7.775  14.355
69750SOL    HW111147   3.872   7.716  14.308
69750SOL    HW211148   4.015   7.764  14.314
69751SOL     OW11149   9.455   3.424  10.491
69751SOL    HW111150   9.374   3.470  10.513
69751SOL    HW211151   9.515   3.447  10.562
69752SOL     OW11152  10.176  10.377   9.154
69752SOL    HW111153  10.160  10.362   9.247
69752SOL    HW211154  10.088  10.381   9.115
69753SOL     OW11155   4.930   8.114   0.816
69753SOL    HW111156   4.967   8.050   0.878
69753SOL    HW211157   4.836   8.108   0.829
69754SOL     OW11158  12.581  14.520  10.856
69754SOL    HW111159  12.560  14.556  10.770
69754SOL    HW211160  12.498  14.522  10.904
69755SOL     OW11161  11.780   5.090  10.697
69755SOL    HW111162  11.687   5.096  10.676
69755SOL    HW211163  11.811   5.014  10.648
69756SOL     OW11164   1.191   0.061   1.696
69756SOL    HW111165   1.216   0.072   1.605
69756SOL    HW211166   1.119   0.123   1.709
69757SOL     OW11167   1.001  13.055  12.231
69757SOL    HW111168   1.091  13.054  12.264
69757SOL    HW211169   0.977  13.148  12.232
69758SOL     OW11170  10.094  14.327  11.897
69758SOL    HW111171  10.156  14.357  11.964
69758SOL    HW211172  10.070  14.238  11.925
69759SOL     OW11173   6.187   5.312  10.509
69759SOL    HW111174   6.271   5.314  10.555
69759SOL    HW211175   6.199   5.245  10.441
69760SOL     OW11176  13.598  11.973   5.690
69760SOL    HW111177  13.680  11.925   5.706
69760SOL    HW211178  13.529  11.914   5.719
69761SOL     OW11179   3.430  14.295  12.999
69761SOL    HW111180   3.334  14.294  12.993
69761SOL    HW211181   3.457  14.211  12.962
69762SOL     OW11182   1.216   6.647   9.686
69762SOL    HW111183   1.174   6.731   9.669
69762SOL    HW211184   1.206   6.598   9.604
69763SOL     OW11185  11.926  12.875   9.674
69763SOL    HW111186  12.020  12.884   9.655
69763SOL    HW211187  11.899  12.962   9.704
69764SOL     OW11188   1.792   4.276  13.909
69764SOL    HW111189   1.813   4.182  13.910
69764SOL    HW211190   1.798   4.300  13.817
69765SOL     OW11191  13.039   2.434   2.072
69765SOL    HW111192  13.001   2.382   2.143
69765SOL    HW211193  12.976   2.506   2.059
69766SOL     OW11194   9.303   4.917  10.220
69766SOL    HW111195   9.264   4.837  10.256
69766SOL    HW211196   9.286   4.984  10.286
69767SOL     OW11197   9.447   7.416   2.081
69767SOL    HW111198   9.442   7.494   2.136
69767SOL    HW211199   9.523   7.431   2.025
69768SOL     OW11200   7.797   8.208   6.144
69768SOL    HW111201   7.724   8.145   6.149
69768SOL    HW211202   7.792   8.257   6.225
69769SOL     OW11203  12.120   8.003  13.493
69769SOL    HW111204  12.172   8.009  13.413
69769SOL    HW211205  12.118   8.093  13.527
69770SOL     OW11206   8.066   3.410   1.653
69770SOL    HW111207   8.034   3.368   1.732
69770SOL    HW211208   8.022   3.494   1.650
69771SOL     OW11209  11.890   7.963  12.733
69771SOL    HW111210  11.825   8.001  12.674
69771SOL    HW211211  11.968   7.951  12.678
69772SOL     OW11212  11.153  10.569   8.206
69772SOL    HW111213  11.110  10.534   8.284
69772SOL    HW211214  11.247  10.562   8.226
69773SOL     OW11215   0.340   4.789  12.860
69773SOL    HW111216   0.328   4.857  12.926
69773SOL    HW211217   0.251   4.760  12.840
69774SOL     OW11218   1.132   1.606  14.208
69774SOL    HW111219   1.145   1.548  14.133
69774SOL    HW211220   1.187   1.567  14.277
69775SOL     OW11221  10.381   9.645   8.988
69775SOL    HW111222  10.367   9.689   8.904
69775SOL    HW211223  10.296   9.605   9.009
69776SOL     OW11224   9.176   5.778   0.022
69776SOL    HW111225   9.192   5.690   0.058
69776SOL    HW211226   9.258   5.801  14.851
69777SOL     OW11227  14.721   3.271   5.805
69777SOL    HW111228  14.669   3.342   5.841
69777SOL    HW211229  14.659   3.218   5.754
69778SOL     OW11230   2.412   1.892  14.466
69778SOL    HW111231   2.404   1.916  14.559
69778SOL    HW211232   2.340   1.938  14.423
69779SOL     OW11233  13.241   4.321   7.822
69779SOL    HW111234  13.217   4.296   7.733
69779SOL    HW211235  13.175   4.280   7.877
69780SOL     OW11236   8.407   2.411   4.767
69780SOL    HW111237   8.452   2.490   4.738
69780SOL    HW211238   8.314   2.436   4.769
69781SOL     OW11239   2.350  12.523   4.038
69781SOL    HW111240   2.343  12.435   4.003
69781SOL    HW211241   2.376  12.510   4.129
69782SOL     OW11242   2.769   1.239   5.547
69782SOL    HW111243   2.794   1.327   5.574
69782SOL    HW211244   2.692   1.219   5.600
69783SOL     OW11245   7.920   4.322   0.491
69783SOL    HW111246   7.900   4.315   0.398
69783SOL    HW211247   7.850   4.377   0.526
69784SOL     OW11248   1.151  10.194  11.369
69784SOL    HW111249   1.235  10.219  11.332
69784SOL    HW211250   1.087  10.219  11.302
69785SOL     OW11251  10.819   0.831  11.132
69785SOL    HW111252  10.850   0.826  11.222
69785SOL    HW211253  10.834   0.922  11.106
69786SOL     OW11254   7.807   0.123  11.580
69786SOL    HW111255   7.780   0.185  11.512
69786SOL    HW211256   7.752   0.144  11.655
69787SOL     OW11257  13.470  10.642  10.346
69787SOL    HW111258  13.375  10.631  10.354
69787SOL    HW211259  13.488  10.633  10.253
69788SOL     OW11260  12.555   2.668   2.156
69788SOL    HW111261  12.546   2.720   2.236
69788SOL    HW211262  12.526   2.726   2.086
69789SOL     OW11263   3.819  13.404  10.164
69789SOL    HW111264   3.903  13.419  10.121
69789SOL    HW211265   3.754  13.438  10.103
69790SOL     OW11266  12.607   8.467   7.216
69790SOL    HW111267  12.606   8.553   7.173
69790SOL    HW211268  12.693   8.431   7.196
69791SOL     OW11269   0.248   3.057   3.154
69791SOL    HW111270   0.333   3.021   3.178
69791SOL    HW211271   0.220   3.108   3.230
69792SOL     OW11272   5.183  11.196  14.316
69792SOL    HW111273   5.272  11.184  14.348
69792SOL    HW211274   5.135  11.119  14.348
69793SOL     OW11275   6.627  10.768   3.617
69793SOL    HW111276   6.637  10.673   3.618
69793SOL    HW211277   6.693  10.798   3.556
69794SOL     OW11278   4.206  13.506   1.164
69794SOL    HW111279   4.150  13.577   1.197
69794SOL    HW211280   4.146  13.447   1.118
69795SOL     OW11281   0.110   8.997   3.472
69795SOL    HW111282   0.118   9.002   3.376
69795SOL    HW211283   0.156   9.074   3.504
69796SOL     OW11284   4.663   7.839   9.598
69796SOL    HW111285   4.660   7.863   9.505
69796SOL    HW211286   4.753   7.811   9.612
69797SOL     OW11287   8.150  12.651   4.063
69797SOL    HW111288   8.099  12.646   4.144
69797SOL    HW211289   8.182  12.741   4.060
69798SOL     OW11290   8.034   4.229  12.961
69798SOL    HW111291   7.939   4.228  12.967
69798SOL    HW211292   8.063   4.158  13.018
69799SOL     OW11293   8.800  12.375   7.854
69799SOL    HW111294   8.741  12.337   7.919
69799SOL    HW211295   8.751  12.370   7.772
69800SOL     OW11296  10.172   4.565  14.026
69800SOL    HW111297  10.079   4.585  14.015
69800SOL    HW211298  10.175   4.491  14.087
69801SOL     OW11299   8.005  11.695  13.248
69801SOL    HW111300   8.042  11.609  13.232
69801SOL    HW211301   8.042  11.723  13.331
69802SOL     OW11302   0.603   5.608   6.328
69802SOL    HW111303   0.569   5.609   6.239
69802SOL    HW211304   0.526   5.625   6.383
69803SOL     OW11305   2.007   3.525  10.259
69803SOL    HW111306   2.038   3.601  10.309
69803SOL    HW211307   1.998   3.557  10.170
69804SOL     OW11308   2.545   2.428   1.506
69804SOL    HW111309   2.568   2.483   1.580
69804SOL    HW211310   2.533   2.340   1.543
69805SOL     OW11311   8.230  13.120  13.927
69805SOL    HW111312   8.161  13.074  13.877
69805SOL    HW211313   8.198  13.209  13.935
69806SOL     OW11314   7.808   0.658  11.696
69806SOL    HW111315   7.821   0.602  11.620
69806SOL    HW211316   7.874   0.727  11.686
69807SOL     OW11317  12.015  11.843  10.434
69807SOL    HW111318  12.024  11.887  10.350
69807SOL    HW211319  11.969  11.906  10.490
69808SOL     OW11320   4.971  11.833   9.464
69808SOL    HW111321   4.957  11.811   9.557
69808SOL    HW211322   5.021  11.915   9.467
69809SOL     OW11323   1.184  13.590  12.516
69809SOL    HW111324   1.201  13.515  12.459
69809SOL    HW211325   1.088  13.596  12.519
69810SOL     OW11326   6.511   3.500  12.251
69810SOL    HW111327   6.495   3.593  12.232
69810SOL    HW211328   6.437   3.455  12.211
69811SOL     OW11329  11.869   8.866  11.463
69811SOL    HW111330  11.796   8.874  11.525
69811SOL    HW211331  11.843   8.921  11.388
69812SOL     OW11332   6.362   2.046   4.330
69812SOL    HW111333   6.421   2.002   4.269
69812SOL    HW211334   6.308   1.975   4.366
69813SOL     OW11335   9.440   5.986   0.132
69813SOL    HW111336   9.520   6.033   0.111
69813SOL    HW211337   9.411   6.024   0.215
69814SOL     OW11338  13.321  10.266   9.085
69814SOL    HW111339  13.261  10.194   9.105
69814SOL    HW211340  13.288  10.339   9.137
69815SOL     OW11341  12.862  14.041  11.474
69815SOL    HW111342  12.903  14.089  11.546
69815SOL    HW211343  12.773  14.022  11.504
69816SOL     OW11344   0.695  13.973  10.952
69816SOL    HW111345   0.617  13.921  10.969
69816SOL    HW211346   0.663  14.052  10.910
69817SOL     OW11347   8.151   0.759  14.560
69817SOL    HW111348   8.060   0.732  14.551
69817SOL    HW211349   8.171   0.745  14.653
69818SOL     OW11350   0.706  13.690   8.885
69818SOL    HW111351   0.642  13.625   8.856
69818SOL    HW211352   0.654  13.756   8.930
69819SOL     OW11353   0.396   5.658   0.904
69819SOL    HW111354   0.353   5.589   0.955
69819SOL    HW211355   0.398   5.734   0.962
69820SOL     OW11356  11.036   6.693   7.607
69820SOL    HW111357  11.022   6.752   7.681
69820SOL    HW211358  10.956   6.641   7.602
69821SOL     OW11359  14.469   9.890   5.811
69821SOL    HW111360  14.378   9.883   5.841
69821SOL    HW211361  14.518   9.832   5.870
69822SOL     OW11362  12.085  13.146  13.528
69822SOL    HW111363  12.137  13.225  13.514
69822SOL    HW211364  12.012  13.174  13.583
69823SOL     OW11365  14.119   4.526  11.498
69823SOL    HW111366  14.165   4.482  11.428
69823SOL    HW211367  14.032   4.545  11.462
69824SOL     OW11368   0.521   1.505   4.574
69824SOL    HW111369   0.540   1.596   4.549
69824SOL    HW211370   0.431   1.508   4.606
69825SOL     OW11371  10.684   9.256  12.631
69825SOL    HW111372  10.716   9.167  12.647
69825SOL    HW211373  10.591   9.245  12.613
69826SOL     OW11374  12.344   1.348   5.677
69826SOL    HW111375  12.330   1.419   5.615
69826SOL    HW211376  12.439   1.347   5.692
69827SOL     OW11377   4.226  13.325   2.557
69827SOL    HW111378   4.237  13.244   2.507
69827SOL    HW211379   4.139  13.316   2.596
69828SOL     OW11380   1.383   8.569   6.843
69828SOL    HW111381   1.316   8.607   6.787
69828SOL    HW211382   1.347   8.486   6.873
69829SOL     OW11383   9.120   6.897  11.824
69829SOL    HW111384   9.116   6.802  11.828
69829SOL    HW211385   9.064   6.920  11.749
69830SOL     OW11386  14.638   2.722   2.860
69830SOL    HW111387  14.709   2.672   2.900
69830SOL    HW211388  14.576   2.738   2.931
69831SOL     OW11389   0.679  14.640   1.489
69831SOL    HW111390   0.712  14.557   1.524
69831SOL    HW211391   0.594  14.619   1.452
69832SOL     OW11392   6.679  11.127   9.639
69832SOL    HW111393   6.674  11.042   9.594
69832SOL    HW211394   6.629  11.186   9.583
69833SOL     OW11395  12.557  11.914   7.027
69833SOL    HW111396  12.580  11.831   7.068
69833SOL    HW211397  12.473  11.938   7.066
69834SOL     OW11398  14.272   9.179   4.579
69834SOL    HW111399  14.352   9.225   4.603
69834SOL    HW211400  14.204   9.218   4.634
69835SOL     OW11401  13.895   3.992   5.317
69835SOL    HW111402  13.872   4.073   5.272
69835SOL    HW211403  13.893   3.925   5.248
69836SOL     OW11404  10.043   8.859   5.355
69836SOL    HW111405  10.020   8.829   5.268
69836SOL    HW211406  10.018   8.952   5.355
69837SOL     OW11407   0.356  11.481   4.353
69837SOL    HW111408   0.352  11.386   4.337
69837SOL    HW211409   0.344  11.489   4.448
69838SOL     OW11410   5.685   3.203   0.237
69838SOL    HW111411   5.694   3.110   0.257
69838SOL    HW211412   5.641   3.205   0.152
69839SOL     OW11413   2.513   4.761   9.503
69839SOL    HW111414   2.469   4.683   9.537
69839SOL    HW211415   2.590   4.772   9.559
69840SOL     OW11416   2.176   2.873   9.291
69840SOL    HW111417   2.142   2.817   9.362
69840SOL    HW211418   2.265   2.894   9.318
69841SOL     OW11419   0.882  14.265  14.453
69841SOL    HW111420   0.791  14.249  14.477
69841SOL    HW211421   0.883  14.259  14.357
69842SOL     OW11422  14.525  12.038  12.186
69842SOL    HW111423  14.534  11.986  12.106
69842SOL    HW211424  14.569  11.987  12.253
69843SOL     OW11425   7.952  13.125   2.801
69843SOL    HW111426   7.867  13.110   2.759
69843SOL    HW211427   8.011  13.150   2.730
69844SOL     OW11428   6.829  14.086   2.498
69844SOL    HW111429   6.897  14.061   2.435
69844SOL    HW211430   6.748  14.087   2.448
69845SOL     OW11431   6.560   0.160   2.205
69845SOL    HW111432   6.532   0.128   2.119
69845SOL    HW211433   6.488   0.215   2.235
69846SOL     OW11434   2.377   6.024  13.825
69846SOL    HW111435   2.317   6.098  13.837
69846SOL    HW211436   2.436   6.030  13.900
69847SOL     OW11437   9.392   4.739  11.893
69847SOL    HW111438   9.366   4.782  11.812
69847SOL    HW211439   9.466   4.684  11.870
69848SOL     OW11440   7.285  12.559  14.335
69848SOL    HW111441   7.363  12.545  14.389
69848SOL    HW211442   7.222  12.601  14.395
69849SOL     OW11443   5.531  10.357   5.980
69849SOL    HW111444   5.538  10.359   6.075
69849SOL    HW211445   5.594  10.289   5.952
69850SOL     OW11446   0.194  11.383   8.469
69850SOL    HW111447   0.117  11.330   8.490
69850SOL    HW211448   0.231  11.340   8.391
69851SOL     OW11449  10.088   7.930   4.685
69851SOL    HW111450  10.048   7.879   4.755
69851SOL    HW211451  10.081   8.021   4.715
69852SOL     OW11452   1.484   5.608   9.357
69852SOL    HW111453   1.521   5.685   9.400
69852SOL    HW211454   1.389   5.623   9.361
69853SOL     OW11455   9.340   4.083  11.827
69853SOL    HW111456   9.321   4.163  11.776
69853SOL    HW211457   9.433   4.090  11.847
69854SOL     OW11458   8.548   6.265  14.815
69854SOL    HW111459   8.599   6.314  14.752
69854SOL    HW211460   8.484   6.217  14.763
69855SOL     OW11461   1.800   7.245  13.998
69855SOL    HW111462   1.895   7.245  13.989
69855SOL    HW211463   1.780   7.323  14.050
69856SOL     OW11464   0.526   5.217   4.681
69856SOL    HW111465   0.438   5.227   4.646
69856SOL    HW211466   0.540   5.123   4.686
69857SOL     OW11467  13.765   2.577  13.479
69857SOL    HW111468  13.805   2.503  13.434
69857SOL    HW211469  13.671   2.560  13.475
69858SOL     OW11470   5.736  12.189   1.052
69858SOL    HW111471   5.743  12.192   1.148
69858SOL    HW211472   5.676  12.260   1.030
69859SOL     OW11473  14.114   4.466   4.850
69859SOL    HW111474  14.175   4.428   4.786
69859SOL    HW211475  14.028   4.435   4.822
69860SOL     OW11476   1.282   8.500   2.694
69860SOL    HW111477   1.367   8.481   2.734
69860SOL    HW211478   1.218   8.457   2.751
69861SOL     OW11479   4.181  12.628   5.168
69861SOL    HW111480   4.270  12.612   5.137
69861SOL    HW211481   4.153  12.707   5.122
69862SOL     OW11482  14.411  12.012   1.991
69862SOL    HW111483  14.483  11.965   1.949
69862SOL    HW211484  14.383  11.955   2.063
69863SOL     OW11485   7.610  12.186   9.839
69863SOL    HW111486   7.587  12.275   9.864
69863SOL    HW211487   7.654  12.195   9.755
69864SOL     OW11488  13.652  10.361   4.358
69864SOL    HW111489  13.612  10.344   4.273
69864SOL    HW211490  13.746  10.364   4.339
69865SOL     OW11491   4.164   5.622  10.718
69865SOL    HW111492   4.103   5.662  10.655
69865SOL    HW211493   4.108   5.564  10.770
69866SOL     OW11494  13.022   2.626   6.228
69866SOL    HW111495  13.068   2.552   6.189
69866SOL    HW211496  13.016   2.605   6.321
69867SOL     OW11497   5.772  11.805   1.528
69867SOL    HW111498   5.789  11.860   1.605
69867SOL    HW211499   5.700  11.748   1.555
69868SOL     OW11500   5.214  11.329  12.168
69868SOL    HW111501   5.262  11.345  12.087
69868SOL    HW211502   5.225  11.235  12.184
69869SOL     OW11503  13.253  11.428  14.657
69869SOL    HW111504  13.192  11.397  14.591
69869SOL    HW211505  13.316  11.482  14.609
69870SOL     OW11506   0.327   8.098  11.249
69870SOL    HW111507   0.417   8.119  11.225
69870SOL    HW211508   0.324   8.107  11.344
69871SOL     OW11509   1.120  10.496   3.739
69871SOL    HW111510   1.101  10.512   3.647
69871SOL    HW211511   1.168  10.573   3.768
69872SOL     OW11512   5.074  14.293   8.155
69872SOL    HW111513   5.128  14.329   8.226
69872SOL    HW211514   5.015  14.364   8.132
69873SOL     OW11515   7.823   4.398   3.180
69873SOL    HW111516   7.826   4.307   3.151
69873SOL    HW211517   7.815   4.393   3.275
69874SOL     OW11518   9.026   2.033   6.933
69874SOL    HW111519   9.119   2.056   6.935
69874SOL    HW211520   8.985   2.094   6.995
69875SOL     OW11521   0.036  12.301  13.752
69875SOL    HW111522   0.025  12.265  13.664
69875SOL    HW211523   0.116  12.354  13.747
69876SOL     OW11524   3.338   7.064   7.320
69876SOL    HW111525   3.372   7.018   7.243
69876SOL    HW211526   3.281   7.133   7.284
69877SOL     OW11527  12.837   6.274  14.460
69877SOL    HW111528  12.754   6.256  14.504
69877SOL    HW211529  12.852   6.368  14.475
69878SOL     OW11530   4.186   6.869  14.746
69878SOL    HW111531   4.189   6.873  14.651
69878SOL    HW211532   4.257   6.925  14.775
69879SOL     OW11533   2.729   9.366  12.859
69879SOL    HW111534   2.701   9.421  12.932
69879SOL    HW211535   2.672   9.392  12.786
69880SOL     OW11536   1.981   3.661   3.093
69880SOL    HW111537   1.895   3.701   3.088
69880SOL    HW211538   1.992   3.639   3.185
69881SOL     OW11539   9.034  13.538   1.018
69881SOL    HW111540   9.029  13.605   1.087
69881SOL    HW211541   9.123  13.504   1.024
69882SOL     OW11542   2.105   4.908   1.767
69882SOL    HW111543   2.188   4.861   1.761
69882SOL    HW211544   2.040   4.840   1.785
69883SOL     OW11545   8.813   4.741   9.838
69883SOL    HW111546   8.753   4.787   9.779
69883SOL    HW211547   8.880   4.806   9.858
69884SOL     OW11548   0.814   8.651   6.230
69884SOL    HW111549   0.769   8.717   6.283
69884SOL    HW211550   0.828   8.693   6.145
69885SOL     OW11551  13.214  13.207   0.707
69885SOL    HW111552  13.265  13.147   0.652
69885SOL    HW211553  13.140  13.232   0.651
69886SOL     OW11554   8.199  12.978  10.919
69886SOL    HW111555   8.137  12.977  10.846
69886SOL    HW211556   8.144  12.968  10.997
69887SOL     OW11557  10.785   0.438  10.564
69887SOL    HW111558  10.799   0.376  10.492
69887SOL    HW211559  10.694   0.465  10.554
69888SOL     OW11560   1.542   1.139   1.900
69888SOL    HW111561   1.548   1.166   1.992
69888SOL    HW211562   1.449   1.148   1.878
69889SOL     OW11563  13.361   1.575   7.003
69889SOL    HW111564  13.351   1.669   6.985
69889SOL    HW211565  13.451   1.555   6.976
69890SOL     OW11566   2.802  12.533  11.987
69890SOL    HW111567   2.717  12.491  11.976
69890SOL    HW211568   2.860  12.463  12.016
69891SOL     OW11569   7.948   4.009  12.527
69891SOL    HW111570   7.986   4.095  12.540
69891SOL    HW211571   8.022   3.948  12.533
69892SOL     OW11572  12.963   1.596   7.814
69892SOL    HW111573  12.903   1.547   7.757
69892SOL    HW211574  12.937   1.687   7.802
69893SOL     OW11575   2.553   2.317  12.068
69893SOL    HW111576   2.547   2.227  12.100
69893SOL    HW211577   2.479   2.326  12.009
69894SOL     OW11578   2.394  11.249   6.113
69894SOL    HW111579   2.485  11.276   6.110
69894SOL    HW211580   2.347  11.315   6.061
69895SOL     OW11581   5.104   4.206   8.179
69895SOL    HW111582   5.124   4.277   8.118
69895SOL    HW211583   5.095   4.250   8.264
69896SOL     OW11584  13.059   7.356   1.104
69896SOL    HW111585  13.003   7.327   1.176
69896SOL    HW211586  13.148   7.341   1.136
69897SOL     OW11587   6.312  10.153   8.414
69897SOL    HW111588   6.245  10.189   8.473
69897SOL    HW211589   6.392  10.151   8.467
69898SOL     OW11590   4.477   3.208   9.103
69898SOL    HW111591   4.451   3.157   9.026
69898SOL    HW211592   4.537   3.275   9.068
69899SOL     OW11593   3.471   8.352  13.030
69899SOL    HW111594   3.383   8.321  13.051
69899SOL    HW211595   3.510   8.281  12.979
69900SOL     OW11596   1.256  14.543   9.948
69900SOL    HW111597   1.310  14.488  10.004
69900SOL    HW211598   1.270  14.509   9.860
69901SOL     OW11599  12.475  10.235  14.733
69901SOL    HW111600  12.500  10.148  14.765
69901SOL    HW211601  12.528  10.296  14.784
69902SOL     OW11602   0.694  11.867   0.325
69902SOL    HW111603   0.731  11.868   0.236
69902SOL    HW211604   0.767  11.842   0.381
69903SOL     OW11605   1.530   9.409  13.176
69903SOL    HW111606   1.483   9.328  13.157
69903SOL    HW211607   1.507   9.468  13.104
69904SOL     OW11608   2.453   4.178   7.893
69904SOL    HW111609   2.365   4.162   7.858
69904SOL    HW211610   2.449   4.267   7.927
69905SOL     OW11611   2.806  13.532  10.069
69905SOL    HW111612   2.757  13.484  10.135
69905SOL    HW211613   2.896  13.501  10.078
69906SOL     OW11614   1.689   7.397  10.207
69906SOL    HW111615   1.684   7.346  10.126
69906SOL    HW211616   1.693   7.488  10.178
69907SOL     OW11617   4.843   8.494  14.712
69907SOL    HW111618   4.832   8.574  14.765
69907SOL    HW211619   4.755   8.456  14.708
69908SOL     OW11620   4.361  10.307   5.325
69908SOL    HW111621   4.397  10.351   5.402
69908SOL    HW211622   4.433  10.251   5.293
69909SOL     OW11623   5.960   6.356  12.562
69909SOL    HW111624   5.868   6.344  12.584
69909SOL    HW211625   5.986   6.435  12.609
69910SOL     OW11626   1.201   6.039   1.112
69910SOL    HW111627   1.108   6.033   1.133
69910SOL    HW211628   1.245   5.991   1.182
69911SOL     OW11629   8.505   8.630  10.986
69911SOL    HW111630   8.451   8.562  11.027
69911SOL    HW211631   8.458   8.711  11.002
69912SOL     OW11632   4.036   7.826   0.075
69912SOL    HW111633   3.943   7.832   0.096
69912SOL    HW211634   4.038   7.790  14.857
69913SOL     OW11635  11.190   2.120   1.142
69913SOL    HW111636  11.170   2.066   1.066
69913SOL    HW211637  11.205   2.208   1.106
69914SOL     OW11638  11.888  12.448   9.663
69914SOL    HW111639  11.842  12.402   9.733
69914SOL    HW211640  11.848  12.535   9.661
69915SOL     OW11641  10.112  13.042   7.436
69915SOL    HW111642  10.105  13.058   7.530
69915SOL    HW211643  10.108  13.130   7.397
69916SOL     OW11644   8.550   5.378  10.959
69916SOL    HW111645   8.577   5.383  11.051
69916SOL    HW211646   8.629   5.350  10.913
69917SOL     OW11647   5.786   9.164  12.618
69917SOL    HW111648   5.744   9.236  12.571
69917SOL    HW211649   5.876   9.163  12.586
69918SOL     OW11650  13.618   1.701  13.666
69918SOL    HW111651  13.625   1.782  13.615
69918SOL    HW211652  13.686   1.710  13.733
69919SOL     OW11653   0.121   4.571  10.078
69919SOL    HW111654   0.025   4.562  10.073
69919SOL    HW211655   0.148   4.502  10.138
69920SOL     OW11656   7.503   2.810   7.781
69920SOL    HW111657   7.566   2.764   7.725
69920SOL    HW211658   7.484   2.748   7.851
69921SOL     OW11659   7.371   0.246  14.601
69921SOL    HW111660   7.406   0.305  14.535
69921SOL    HW211661   7.355   0.164  14.555
69922SOL     OW11662   5.863   2.357   5.152
69922SOL    HW111663   5.850   2.383   5.243
69922SOL    HW211664   5.932   2.291   5.155
69923SOL     OW11665  14.104   2.938   9.092
69923SOL    HW111666  14.085   2.998   9.019
69923SOL    HW211667  14.200   2.934   9.096
69924SOL     OW11668   3.520   4.306  14.855
69924SOL    HW111669   3.597   4.254   0.003
69924SOL    HW211670   3.447   4.243  14.860
69925SOL     OW11671   4.567   9.546  13.459
69925SOL    HW111672   4.480   9.571  13.429
69925SOL    HW211673   4.585   9.464  13.412
69926SOL     OW11674   1.027   8.837  12.373
69926SOL    HW111675   0.932   8.850  12.370
69926SOL    HW211676   1.046   8.813  12.463
69927SOL     OW11677  14.402   8.145   7.246
69927SOL    HW111678  14.496   8.132   7.256
69927SOL    HW211679  14.389   8.240   7.256
69928SOL     OW11680   7.103   0.205   3.085
69928SOL    HW111681   7.058   0.143   3.028
69928SOL    HW211682   7.183   0.226   3.038
69929SOL     OW11683   1.242   9.869   7.175
69929SOL    HW111684   1.184   9.899   7.105
69929SOL    HW211685   1.187   9.812   7.229
69930SOL     OW11686   1.234   6.410   9.440
69930SOL    HW111687   1.298   6.338   9.439
69930SOL    HW211688   1.286   6.489   9.426
69931SOL     OW11689  11.934   8.982   2.245
69931SOL    HW111690  11.873   9.026   2.305
69931SOL    HW211691  12.002   9.048   2.228
69932SOL     OW11692   2.436  13.770   9.577
69932SOL    HW111693   2.474  13.684   9.560
69932SOL    HW211694   2.474  13.826   9.509
69933SOL     OW11695   0.457  10.493   1.212
69933SOL    HW111696   0.409  10.412   1.193
69933SOL    HW211697   0.390  10.561   1.210
69934SOL     OW11698   0.835   6.839   0.775
69934SOL    HW111699   0.840   6.931   0.799
69934SOL    HW211700   0.776   6.837   0.700
69935SOL     OW11701  10.540   6.163   0.815
69935SOL    HW111702  10.626   6.158   0.857
69935SOL    HW211703  10.526   6.257   0.801
69936SOL     OW11704   8.933   0.041   2.027
69936SOL    HW111705   8.960   0.048   2.119
69936SOL    HW211706   8.910   0.131   2.002
69937SOL     OW11707  10.431  10.564  11.965
69937SOL    HW111708  10.450  10.654  11.939
69937SOL    HW211709  10.336  10.557  11.958
69938SOL     OW11710   1.041   6.271  10.518
69938SOL    HW111711   1.049   6.255  10.423
69938SOL    HW211712   1.009   6.360  10.525
69939SOL     OW11713   2.009   4.053   4.330
69939SOL    HW111714   1.991   4.110   4.405
69939SOL    HW211715   2.021   4.113   4.256
69940SOL     OW11716   2.271   8.063  12.309
69940SOL    HW111717   2.274   8.154  12.336
69940SOL    HW211718   2.300   8.064  12.218
69941SOL     OW11719   3.370   3.912   9.814
69941SOL    HW111720   3.359   3.975   9.743
69941SOL    HW211721   3.297   3.852   9.805
69942SOL     OW11722   1.673   8.756  11.179
69942SOL    HW111723   1.675   8.830  11.240
69942SOL    HW211724   1.583   8.724  11.183
69943SOL     OW11725   0.116   2.462   3.296
69943SOL    HW111726   0.122   2.471   3.201
69943SOL    HW211727   0.144   2.547   3.330
69944SOL     OW11728   2.109   2.566   5.876
69944SOL    HW111729   2.016   2.555   5.896
69944SOL    HW211730   2.139   2.633   5.937
69945SOL     OW11731  11.619   1.654   6.157
69945SOL    HW111732  11.637   1.571   6.201
69945SOL    HW211733  11.545   1.635   6.099
69946SOL     OW11734   8.017   4.090   7.760
69946SOL    HW111735   7.959   4.159   7.731
69946SOL    HW211736   7.994   4.014   7.705
69947SOL     OW11737   3.095  11.792   6.800
69947SOL    HW111738   3.097  11.872   6.747
69947SOL    HW211739   3.111  11.822   6.889
69948SOL     OW11740  12.467   9.071   5.068
69948SOL    HW111741  12.380   9.036   5.088
69948SOL    HW211742  12.462   9.096   4.975
69949SOL     OW11743   2.035   4.372   8.667
69949SOL    HW111744   2.006   4.419   8.589
69949SOL    HW211745   1.965   4.386   8.731
69950SOL     OW11746   6.921   6.190   2.508
69950SOL    HW111747   6.998   6.185   2.564
69950SOL    HW211748   6.905   6.284   2.497
69951SOL     OW11749  13.727   1.975   1.657
69951SOL    HW111750  13.784   1.979   1.580
69951SOL    HW211751  13.780   2.010   1.728
69952SOL     OW11752   8.217  13.768   2.662
69952SOL    HW111753   8.297  13.778   2.714
69952SOL    HW211754   8.195  13.675   2.670
69953SOL     OW11755   9.298   3.850   6.416
69953SOL    HW111756   9.274   3.916   6.350
69953SOL    HW211757   9.324   3.902   6.493
69954SOL     OW11758  10.585   3.449   0.288
69954SOL    HW111759  10.649   3.507   0.246
69954SOL    HW211760  10.622   3.432   0.375
69955SOL     OW11761   4.043  12.416   9.958
69955SOL    HW111762   3.981  12.361  10.006
69955SOL    HW211763   4.094  12.354   9.907
69956SOL     OW11764   5.759  11.582   6.461
69956SOL    HW111765   5.820  11.592   6.534
69956SOL    HW211766   5.708  11.663   6.461
69957SOL     OW11767   5.662   5.461  14.673
69957SOL    HW111768   5.642   5.415  14.591
69957SOL    HW211769   5.705   5.396  14.727
69958SOL     OW11770   8.555  13.739  10.531
69958SOL    HW111771   8.521  13.815  10.579
69958SOL    HW211772   8.477  13.698  10.492
69959SOL     OW11773  14.356  12.094  11.806
69959SOL    HW111774  14.363  12.139  11.890
69959SOL    HW211775  14.444  12.062  11.788
69960SOL     OW11776   7.503   0.015   2.802
69960SOL    HW111777   7.536  14.841   2.725
69960SOL    HW211778   7.409   0.019   2.789
69961SOL     OW11779  13.062  10.501   8.176
69961SOL    HW111780  13.060  10.522   8.270
69961SOL    HW211781  13.000  10.429   8.167
69962SOL     OW11782  10.126   4.800   0.673
69962SOL    HW111783  10.039   4.761   0.680
69962SOL    HW211784  10.143   4.802   0.579
69963SOL     OW11785   1.125  11.113  12.025
69963SOL    HW111786   1.097  11.093  12.114
69963SOL    HW211787   1.044  11.138  11.979
69964SOL     OW11788  11.655   2.408  11.790
69964SOL    HW111789  11.675   2.428  11.881
69964SOL    HW211790  11.661   2.312  11.785
69965SOL     OW11791   8.869  14.543  10.192
69965SOL    HW111792   8.894  14.512  10.105
69965SOL    HW211793   8.925  14.619  10.207
69966SOL     OW11794   9.980   9.680  10.358
69966SOL    HW111795   9.986   9.648  10.268
69966SOL    HW211796   9.953   9.604  10.409
69967SOL     OW11797  14.528   7.555   5.953
69967SOL    HW111798  14.489   7.572   5.867
69967SOL    HW211799  14.465   7.501   5.999
69968SOL     OW11800  10.769  11.752   0.255
69968SOL    HW111801  10.790  11.842   0.229
69968SOL    HW211802  10.719  11.717   0.182
69969SOL     OW11803   7.280   2.610   3.469
69969SOL    HW111804   7.358   2.641   3.423
69969SOL    HW211805   7.311   2.590   3.558
69970SOL     OW11806  12.121   4.177   5.397
69970SOL    HW111807  12.163   4.106   5.446
69970SOL    HW211808  12.028   4.170   5.419
69971SOL     OW11809   2.064   9.549   3.030
69971SOL    HW111810   2.118   9.525   3.105
69971SOL    HW211811   2.032   9.466   2.996
69972SOL     OW11812   3.533  11.573   0.190
69972SOL    HW111813   3.604  11.522   0.230
69972SOL    HW211814   3.568  11.599   0.104
69973SOL     OW11815  14.031   3.730   8.383
69973SOL    HW111816  13.958   3.672   8.361
69973SOL    HW211817  13.991   3.797   8.439
69974SOL     OW11818  11.378   6.202   9.340
69974SOL    HW111819  11.355   6.126   9.393
69974SOL    HW211820  11.451   6.242   9.388
69975SOL     OW11821   9.096   0.607  10.082
69975SOL    HW111822   9.038   0.682  10.069
69975SOL    HW211823   9.045   0.545  10.134
69976SOL     OW11824   5.468   9.662  10.522
69976SOL    HW111825   5.561   9.684  10.525
69976SOL    HW211826   5.425   9.736  10.566
69977SOL     OW11827   3.207   6.125   7.933
69977SOL    HW111828   3.119   6.125   7.969
69977SOL    HW211829   3.238   6.035   7.944
69978SOL     OW11830   6.001   8.809   5.372
69978SOL    HW111831   5.934   8.851   5.318
69978SOL    HW211832   6.010   8.721   5.335
69979SOL     OW11833  10.323   6.471   4.169
69979SOL    HW111834  10.414   6.453   4.194
69979SOL    HW211835  10.319   6.565   4.157
69980SOL     OW11836  13.432   5.707   0.079
69980SOL    HW111837  13.517   5.747   0.062
69980SOL    HW211838  13.369   5.777   0.067
69981SOL     OW11839   0.330   3.155  14.127
69981SOL    HW111840   0.262   3.196  14.180
69981SOL    HW211841   0.351   3.074  14.173
69982SOL     OW11842   5.134   3.043   8.418
69982SOL    HW111843   5.100   3.101   8.350
69982SOL    HW211844   5.158   3.102   8.489
69983SOL     OW11845   5.802  12.597   7.182
69983SOL    HW111846   5.785  12.691   7.182
69983SOL    HW211847   5.892  12.589   7.214
69984SOL     OW11848   2.777   3.769  12.491
69984SOL    HW111849   2.709   3.785  12.557
69984SOL    HW211850   2.728   3.746  12.412
69985SOL     OW11851   4.715  12.889   2.821
69985SOL    HW111852   4.689  12.865   2.732
69985SOL    HW211853   4.705  12.984   2.824
69986SOL     OW11854  12.314  13.243   4.038
69986SOL    HW111855  12.341  13.155   4.066
69986SOL    HW211856  12.389  13.299   4.060
69987SOL     OW11857  10.182   6.233   8.376
69987SOL    HW111858  10.105   6.175   8.371
69987SOL    HW211859  10.254   6.179   8.343
69988SOL     OW11860   8.198   8.849   7.339
69988SOL    HW111861   8.115   8.829   7.383
69988SOL    HW211862   8.219   8.939   7.366
69989SOL     OW11863   0.959   4.830   6.897
69989SOL    HW111864   0.990   4.743   6.875
69989SOL    HW211865   1.038   4.882   6.909
69990SOL     OW11866   5.341   8.837   8.740
69990SOL    HW111867   5.322   8.895   8.666
69990SOL    HW211868   5.410   8.883   8.789
69991SOL     OW11869   9.135   8.856  10.118
69991SOL    HW111870   9.105   8.907  10.043
69991SOL    HW211871   9.059   8.851  10.176
69992SOL     OW11872   9.061   7.062   8.175
69992SOL    HW111873   9.093   7.130   8.235
69992SOL    HW211874   8.991   7.019   8.224
69993SOL     OW11875   0.301   8.830  14.081
69993SOL    HW111876   0.362   8.761  14.056
69993SOL    HW211877   0.241   8.788  14.143
69994SOL     OW11878   6.293   8.214   2.704
69994SOL    HW111879   6.347   8.150   2.659
69994SOL    HW211880   6.205   8.176   2.705
69995SOL     OW11881   8.361  14.226   4.667
69995SOL    HW111882   8.343  14.168   4.740
69995SOL    HW211883   8.310  14.305   4.686
69996SOL     OW11884   0.026   9.171   7.369
69996SOL    HW111885  14.850   9.203   7.446
69996SOL    HW211886  14.843   9.100   7.336
69997SOL     OW11887   0.336   7.850   4.228
69997SOL    HW111888   0.376   7.795   4.161
69997SOL    HW211889   0.350   7.940   4.198
69998SOL     OW11890   3.207   4.351  11.093
69998SOL    HW111891   3.136   4.303  11.049
69998SOL    HW211892   3.209   4.436  11.049
69999SOL     OW11893  14.653  11.391  12.959
69999SOL    HW111894  14.603  11.473  12.963
69999SOL    HW211895  14.737  11.412  12.998
70000SOL     OW11896   8.730   8.923   0.521
70000SOL    HW111897   8.643   8.888   0.543
70000SOL    HW211898   8.716   8.968   0.438
70001SOL     OW11899   2.182   2.739   9.579
70001SOL    HW111900   2.091   2.769   9.574
70001SOL    HW211901   2.212   2.768   9.665
70002SOL     OW11902   5.125   7.772  13.945
70002SOL    HW111903   5.080   7.816  13.873
70002SOL    HW211904   5.205   7.822  13.958
70003SOL     OW11905   2.734  10.335   6.821
70003SOL    HW111906   2.699  10.422   6.801
70003SOL    HW211907   2.761  10.300   6.736
70004SOL     OW11908   7.024   8.709   0.482
70004SOL    HW111909   6.978   8.637   0.525
70004SOL    HW211910   6.956   8.756   0.434
70005SOL     OW11911   8.638  10.962  14.394
70005SOL    HW111912   8.595  10.916  14.322
70005SOL    HW211913   8.608  10.917  14.472
70006SOL     OW11914   7.881  13.033  11.227
70006SOL    HW111915   7.958  12.980  11.246
70006SOL    HW211916   7.848  12.998  11.144
70007SOL     OW11917  11.656  13.898  12.003
70007SOL    HW111918  11.651  13.814  12.049
70007SOL    HW211919  11.668  13.962  12.073
70008SOL     OW11920  11.541  14.220   0.714
70008SOL    HW111921  11.464  14.164   0.723
70008SOL    HW211922  11.604  14.185   0.777
70009SOL     OW11923  12.507   4.586  12.485
70009SOL    HW111924  12.481   4.507  12.438
70009SOL    HW211925  12.587   4.562  12.531
70010SOL     OW11926   1.642   0.884  10.167
70010SOL    HW111927   1.549   0.871  10.186
70010SOL    HW211928   1.681   0.797  10.174
70011SOL     OW11929   5.758   5.609  12.751
70011SOL    HW111930   5.809   5.687  12.733
70011SOL    HW211931   5.671   5.642  12.775
70012SOL     OW11932  11.310   9.027  14.264
70012SOL    HW111933  11.230   9.032  14.213
70012SOL    HW211934  11.357   9.107  14.243
70013SOL     OW11935  13.907  13.633   6.717
70013SOL    HW111936  13.896  13.554   6.664
70013SOL    HW211937  13.961  13.603   6.791
70014SOL     OW11938   2.257   7.674  10.300
70014SOL    HW111939   2.325   7.608  10.288
70014SOL    HW211940   2.289   7.728  10.372
70015SOL     OW11941  12.035  10.317   9.904
70015SOL    HW111942  12.031  10.267   9.986
70015SOL    HW211943  11.947  10.306   9.866
70016SOL     OW11944   0.817   8.892   3.727
70016SOL    HW111945   0.876   8.822   3.698
70016SOL    HW211946   0.738   8.847   3.754
70017SOL     OW11947   0.960   3.095   4.442
70017SOL    HW111948   0.941   3.150   4.366
70017SOL    HW211949   0.901   3.020   4.433
70018SOL     OW11950   3.266   5.304  10.929
70018SOL    HW111951   3.350   5.263  10.949
70018SOL    HW211952   3.285   5.398  10.925
70019SOL     OW11953   4.390   6.450   0.713
70019SOL    HW111954   4.420   6.525   0.764
70019SOL    HW211955   4.311   6.481   0.669
70020SOL     OW11956  12.585  13.857   0.768
70020SOL    HW111957  12.551  13.881   0.682
70020SOL    HW211958  12.516  13.882   0.830
70021SOL     OW11959   5.312   8.138   9.785
70021SOL    HW111960   5.232   8.111   9.741
70021SOL    HW211961   5.285   8.154   9.876
70022SOL     OW11962   2.521  13.439   6.882
70022SOL    HW111963   2.576  13.369   6.919
70022SOL    HW211964   2.521  13.421   6.788
70023SOL     OW11965   3.958  12.235   3.587
70023SOL    HW111966   3.999  12.257   3.671
70023SOL    HW211967   3.969  12.314   3.534
70024SOL     OW11968  10.444   8.826   1.096
70024SOL    HW111969  10.401   8.780   1.024
70024SOL    HW211970  10.375   8.837   1.162
70025SOL     OW11971   3.898  10.607   1.585
70025SOL    HW111972   3.830  10.674   1.592
70025SOL    HW211973   3.874  10.541   1.650
70026SOL     OW11974  13.411  11.905   0.475
70026SOL    HW111975  13.408  11.813   0.502
70026SOL    HW211976  13.386  11.954   0.553
70027SOL     OW11977   8.941   1.260   8.353
70027SOL    HW111978   8.928   1.306   8.270
70027SOL    HW211979   9.029   1.286   8.381
70028SOL     OW11980   8.628   8.851  12.400
70028SOL    HW111981   8.556   8.802  12.361
70028SOL    HW211982   8.611   8.850  12.494
70029SOL     OW11983   2.128  13.785  10.789
70029SOL    HW111984   2.182  13.776  10.868
70029SOL    HW211985   2.145  13.705  10.740
70030SOL     OW11986  13.753  13.736   4.805
70030SOL    HW111987  13.662  13.716   4.783
70030SOL    HW211988  13.762  13.709   4.896
70031SOL     OW11989   2.189   5.168  12.669
70031SOL    HW111990   2.099   5.184  12.696
70031SOL    HW211991   2.195   5.073  12.661
70032SOL     OW11992   0.531   6.734  12.714
70032SOL    HW111993   0.475   6.751  12.789
70032SOL    HW211994   0.490   6.782  12.642
70033SOL     OW11995  11.390   4.616  11.715
70033SOL    HW111996  11.344   4.699  11.700
70033SOL    HW211997  11.406   4.614  11.809
70034SOL     OW11998  10.566   8.742  11.606
70034SOL    HW111999  10.530   8.762  11.520
70034SOL    HW212000  10.659   8.724  11.590
70035SOL     OW12001   1.100   6.919   0.924
70035SOL    HW112002   1.146   6.947   0.844
70035SOL    HW212003   1.009   6.946   0.909
70036SOL     OW12004   5.828  11.858   2.664
70036SOL    HW112005   5.832  11.951   2.686
70036SOL    HW212006   5.819  11.856   2.569
70037SOL     OW12007   8.997   3.619  12.971
70037SOL    HW112008   8.950   3.626  13.054
70037SOL    HW212009   8.955   3.684  12.914
70038SOL     OW12010   9.459   6.472   1.846
70038SOL    HW112011   9.491   6.557   1.817
70038SOL    HW212012   9.390   6.492   1.909
70039SOL     OW12013  10.877  14.648   8.689
70039SOL    HW112014  10.799  14.668   8.741
70039SOL    HW212015  10.950  14.678   8.742
70040SOL     OW12016   9.244   4.044  10.831
70040SOL    HW112017   9.181   4.074  10.765
70040SOL    HW212018   9.204   3.967  10.870
70041SOL     OW12019   1.769   6.739  14.398
70041SOL    HW112020   1.693   6.738  14.340
70041SOL    HW212021   1.774   6.829  14.429
70042SOL     OW12022   1.028   8.814   1.155
70042SOL    HW112023   1.064   8.850   1.074
70042SOL    HW212024   1.049   8.720   1.150
70043SOL     OW12025  14.303  13.969   0.470
70043SOL    HW112026  14.292  14.064   0.467
70043SOL    HW212027  14.387  13.954   0.427
70044SOL     OW12028   0.296   4.557  12.245
70044SOL    HW112029   0.327   4.502  12.173
70044SOL    HW212030   0.370   4.615  12.264
70045SOL     OW12031  13.754   3.024   0.634
70045SOL    HW112032  13.780   3.000   0.545
70045SOL    HW212033  13.707   3.107   0.624
70046SOL     OW12034  11.087  13.239   0.307
70046SOL    HW112035  11.174  13.277   0.311
70046SOL    HW212036  11.052  13.249   0.396
70047SOL     OW12037  12.885   2.414  14.434
70047SOL    HW112038  12.862   2.501  14.468
70047SOL    HW212039  12.957   2.385  14.490
70048SOL     OW12040  11.305   7.945  14.497
70048SOL    HW112041  11.314   7.928  14.403
70048SOL    HW212042  11.221   7.988  14.506
70049SOL     OW12043   4.480   6.910   8.695
70049SOL    HW112044   4.540   6.877   8.629
70049SOL    HW212045   4.485   6.847   8.767
70050SOL     OW12046   7.003   9.468   1.500
70050SOL    HW112047   6.977   9.447   1.590
70050SOL    HW212048   6.967   9.397   1.447
70051SOL     OW12049   0.461  12.256   8.337
70051SOL    HW112050   0.376  12.268   8.378
70051SOL    HW212051   0.451  12.176   8.285
70052SOL     OW12052  11.323   2.352  10.787
70052SOL    HW112053  11.372   2.310  10.716
70052SOL    HW212054  11.270   2.282  10.824
70053SOL     OW12055   2.285   0.280  12.684
70053SOL    HW112056   2.265   0.373  12.680
70053SOL    HW212057   2.358   0.268  12.623
70054SOL     OW12058   3.858   4.904   7.151
70054SOL    HW112059   3.940   4.932   7.191
70054SOL    HW212060   3.841   4.970   7.083
70055SOL     OW12061   7.840   5.889   5.771
70055SOL    HW112062   7.903   5.956   5.745
70055SOL    HW212063   7.887   5.835   5.834
70056SOL     OW12064   7.032   6.745   3.895
70056SOL    HW112065   6.946   6.771   3.862
70056SOL    HW212066   7.078   6.712   3.818
70057SOL     OW12067   4.369  11.299   7.847
70057SOL    HW112068   4.331  11.259   7.926
70057SOL    HW212069   4.404  11.382   7.877
70058SOL     OW12070   4.828  11.338   0.764
70058SOL    HW112071   4.786  11.414   0.805
70058SOL    HW212072   4.921  11.347   0.787
70059SOL     OW12073  10.733   5.286  12.408
70059SOL    HW112074  10.815   5.262  12.365
70059SOL    HW212075  10.728   5.228  12.484
70060SOL     OW12076   4.108   1.524  10.390
70060SOL    HW112077   4.081   1.548  10.479
70060SOL    HW212078   4.117   1.428  10.394
70061SOL     OW12079   6.215   0.868   4.892
70061SOL    HW112080   6.246   0.784   4.860
70061SOL    HW212081   6.185   0.914   4.814
70062SOL     OW12082   2.197  13.400  10.174
70062SOL    HW112083   2.155  13.480  10.204
70062SOL    HW212084   2.225  13.356  10.254
70063SOL     OW12085   1.342   6.170  11.042
70063SOL    HW112086   1.324   6.145  11.133
70063SOL    HW212087   1.296   6.104  10.990
70064SOL     OW12088   8.752  10.769   5.675
70064SOL    HW112089   8.823  10.775   5.739
70064SOL    HW212090   8.697  10.845   5.694
70065SOL     OW12091  13.100  13.803   5.968
70065SOL    HW112092  13.153  13.812   5.888
70065SOL    HW212093  13.094  13.892   6.003
70066SOL     OW12094  13.946   9.657   6.613
70066SOL    HW112095  13.956   9.639   6.520
70066SOL    HW212096  13.904   9.743   6.616
70067SOL     OW12097  14.191   5.171   2.576
70067SOL    HW112098  14.195   5.252   2.627
70067SOL    HW212099  14.276   5.130   2.589
70068SOL     OW12100   5.098   5.995   0.292
70068SOL    HW112101   5.072   6.051   0.218
70068SOL    HW212102   5.025   5.934   0.303
70069SOL     OW12103   8.330   3.212  11.290
70069SOL    HW112104   8.267   3.255  11.232
70069SOL    HW212105   8.288   3.214  11.376
70070SOL     OW12106   2.464   3.149  10.984
70070SOL    HW112107   2.398   3.195  10.932
70070SOL    HW212108   2.422   3.133  11.069
70071SOL     OW12109   2.052   6.064   6.613
70071SOL    HW112110   2.000   5.987   6.637
70071SOL    HW212111   2.058   6.061   6.518
70072SOL     OW12112  12.152  10.615   9.166
70072SOL    HW112113  12.187  10.663   9.091
70072SOL    HW212114  12.224  10.557   9.193
70073SOL     OW12115   5.530   2.008   1.467
70073SOL    HW112116   5.559   2.002   1.376
70073SOL    HW212117   5.610   2.003   1.519
70074SOL     OW12118  14.210  10.044  14.495
70074SOL    HW112119  14.252   9.958  14.494
70074SOL    HW212120  14.141  10.039  14.429
70075SOL     OW12121   0.233   0.258   2.175
70075SOL    HW112122   0.141   0.282   2.174
70075SOL    HW212123   0.234   0.163   2.188
70076SOL     OW12124   3.895  11.501   7.719
70076SOL    HW112125   3.893  11.532   7.629
70076SOL    HW212126   3.985  11.518   7.748
70077SOL     OW12127   1.515  10.392  10.721
70077SOL    HW112128   1.433  10.423  10.682
70077SOL    HW212129   1.496  10.383  10.814
70078SOL     OW12130  11.208  12.667   7.207
70078SOL    HW112131  11.197  12.762   7.204
70078SOL    HW212132  11.172  12.636   7.124
70079SOL     OW12133   2.697   8.655   7.827
70079SOL    HW112134   2.733   8.568   7.809
70079SOL    HW212135   2.769   8.715   7.808
70080SOL     OW12136  11.293   6.883  14.508
70080SOL    HW112137  11.330   6.795  14.498
70080SOL    HW212138  11.221   6.886  14.445
70081SOL     OW12139   8.538   0.520   0.888
70081SOL    HW112140   8.618   0.502   0.938
70081SOL    HW212141   8.491   0.437   0.888
70082SOL     OW12142   0.615  14.462   7.749
70082SOL    HW112143   0.558  14.398   7.790
70082SOL    HW212144   0.626  14.531   7.815
70083SOL     OW12145   1.716   6.011   3.069
70083SOL    HW112146   1.787   6.055   3.022
70083SOL    HW212147   1.658   6.082   3.097
70084SOL     OW12148   9.734   5.586   0.208
70084SOL    HW112149   9.815   5.535   0.203
70084SOL    HW212150   9.763   5.674   0.232
70085SOL     OW12151  13.928  14.393   1.372
70085SOL    HW112152  13.861  14.328   1.351
70085SOL    HW212153  14.011  14.351   1.350
70086SOL     OW12154   1.147  13.380   4.836
70086SOL    HW112155   1.166  13.404   4.745
70086SOL    HW212156   1.068  13.429   4.858
70087SOL     OW12157   2.803   9.208   1.719
70087SOL    HW112158   2.738   9.273   1.692
70087SOL    HW212159   2.803   9.213   1.815
70088SOL     OW12160  10.844   5.522  13.330
70088SOL    HW112161  10.921   5.579  13.330
70088SOL    HW212162  10.769   5.582  13.331
70089SOL     OW12163  10.222  13.564   8.392
70089SOL    HW112164  10.164  13.538   8.464
70089SOL    HW212165  10.310  13.548   8.426
70090SOL     OW12166   0.238  10.609   6.150
70090SOL    HW112167   0.236  10.640   6.059
70090SOL    HW212168   0.151  10.571   6.163
70091SOL     OW12169   7.576  11.466   3.235
70091SOL    HW112170   7.575  11.540   3.296
70091SOL    HW212171   7.573  11.506   3.148
70092SOL     OW12172   5.036  10.369   7.962
70092SOL    HW112173   4.994  10.287   7.990
70092SOL    HW212174   5.025  10.370   7.867
70093SOL     OW12175   1.949   7.544   6.680
70093SOL    HW112176   1.884   7.475   6.670
70093SOL    HW212177   1.987   7.555   6.593
70094SOL     OW12178   8.040  14.145   7.783
70094SOL    HW112179   7.977  14.153   7.711
70094SOL    HW212180   8.091  14.067   7.762
70095SOL     OW12181   8.799  11.293   2.018
70095SOL    HW112182   8.712  11.270   1.986
70095SOL    HW212183   8.859  11.256   1.952
70096SOL     OW12184   7.052  12.653  14.526
70096SOL    HW112185   7.054  12.737  14.479
70096SOL    HW212186   6.960  12.641  14.549
70097SOL     OW12187   7.283   3.983   8.960
70097SOL    HW112188   7.300   3.932   8.880
70097SOL    HW212189   7.369   3.992   9.001
70098SOL     OW12190   9.866   5.263   3.484
70098SOL    HW112191   9.853   5.348   3.527
70098SOL    HW212192   9.943   5.275   3.429
70099SOL     OW12193   1.530  12.926   1.820
70099SOL    HW112194   1.481  12.997   1.862
70099SOL    HW212195   1.535  12.951   1.728
70100SOL     OW12196  11.156   8.156   8.086
70100SOL    HW112197  11.099   8.140   8.161
70100SOL    HW212198  11.117   8.231   8.041
70101SOL     OW12199   3.795   5.895   5.529
70101SOL    HW112200   3.764   5.818   5.576
70101SOL    HW212201   3.717   5.950   5.519
70102SOL     OW12202   4.011   8.811   1.652
70102SOL    HW112203   4.011   8.842   1.742
70102SOL    HW212204   3.935   8.854   1.612
70103SOL     OW12205   9.285   2.662   3.854
70103SOL    HW112206   9.301   2.756   3.855
70103SOL    HW212207   9.319   2.633   3.769
70104SOL     OW12208   7.693   4.174   9.251
70104SOL    HW112209   7.784   4.161   9.226
70104SOL    HW212210   7.677   4.268   9.239
70105SOL     OW12211   3.828  13.615  12.294
70105SOL    HW112212   3.859  13.702  12.268
70105SOL    HW212213   3.790  13.628  12.381
70106SOL     OW12214   3.492   7.854   8.972
70106SOL    HW112215   3.421   7.884   9.028
70106SOL    HW212216   3.525   7.933   8.930
70107SOL     OW12217   6.433   1.783   6.932
70107SOL    HW112218   6.522   1.811   6.912
70107SOL    HW212219   6.385   1.798   6.850
70108SOL     OW12220   7.793   2.255  10.628
70108SOL    HW112221   7.885   2.246  10.605
70108SOL    HW212222   7.771   2.345  10.604
70109SOL     OW12223   6.235  14.078  13.130
70109SOL    HW112224   6.280  14.060  13.048
70109SOL    HW212225   6.213  14.171  13.127
70110SOL     OW12226   2.232  11.146  12.144
70110SOL    HW112227   2.182  11.143  12.226
70110SOL    HW212228   2.318  11.179  12.170
70111SOL     OW12229   1.076   1.583   0.523
70111SOL    HW112230   1.118   1.497   0.532
70111SOL    HW212231   1.013   1.572   0.452
70112SOL     OW12232   3.802   7.444  10.322
70112SOL    HW112233   3.714   7.482  10.327
70112SOL    HW212234   3.809   7.392  10.402
70113SOL     OW12235   6.257  10.765   1.546
70113SOL    HW112236   6.203  10.687   1.536
70113SOL    HW212237   6.323  10.741   1.611
70114SOL     OW12238   0.621   9.948   9.798
70114SOL    HW112239   0.641   9.936   9.890
70114SOL    HW212240   0.532   9.984   9.797
70115SOL     OW12241  10.399   8.754  10.128
70115SOL    HW112242  10.478   8.772  10.077
70115SOL    HW212243  10.344   8.832  10.115
70116SOL     OW12244   5.771  13.872   8.802
70116SOL    HW112245   5.846  13.813   8.789
70116SOL    HW212246   5.711  13.850   8.731
70117SOL     OW12247   5.068   9.024  10.649
70117SOL    HW112248   5.077   8.932  10.673
70117SOL    HW212249   5.084   9.027  10.555
70118SOL     OW12250   7.832  14.137  11.631
70118SOL    HW112251   7.851  14.231  11.628
70118SOL    HW212252   7.872  14.107  11.712
70119SOL     OW12253  12.874   1.565   2.531
70119SOL    HW112254  12.953   1.600   2.490
70119SOL    HW212255  12.803   1.589   2.471
70120SOL     OW12256   7.661   6.282   3.624
70120SOL    HW112257   7.745   6.241   3.603
70120SOL    HW212258   7.685   6.361   3.673
70121SOL     OW12259   4.251   4.532   5.606
70121SOL    HW112260   4.196   4.481   5.666
70121SOL    HW212261   4.197   4.607   5.583
70122SOL     OW12262  11.499  14.747   2.750
70122SOL    HW112263  11.441  14.673   2.767
70122SOL    HW212264  11.554  14.719   2.676
70123SOL     OW12265   9.743  12.013  12.555
70123SOL    HW112266   9.734  11.927  12.515
70123SOL    HW212267   9.778  12.069  12.485
70124SOL     OW12268  12.737   4.348   5.943
70124SOL    HW112269  12.797   4.395   6.001
70124SOL    HW212270  12.742   4.395   5.860
70125SOL     OW12271  11.074   8.719  10.234
70125SOL    HW112272  11.045   8.730  10.143
70125SOL    HW212273  11.007   8.664  10.274
70126SOL     OW12274  14.269  10.607   2.366
70126SOL    HW112275  14.319  10.684   2.342
70126SOL    HW212276  14.333  10.547   2.405
70127SOL     OW12277  13.329   9.251   0.548
70127SOL    HW112278  13.248   9.202   0.533
70127SOL    HW212279  13.374   9.201   0.616
70128SOL     OW12280   2.775   9.953   8.111
70128SOL    HW112281   2.848   9.892   8.101
70128SOL    HW212282   2.707   9.919   8.053
70129SOL     OW12283  14.029   2.371   9.420
70129SOL    HW112284  13.982   2.291   9.396
70129SOL    HW212285  13.985   2.440   9.370
70130SOL     OW12286  11.151   3.468  13.436
70130SOL    HW112287  11.099   3.517  13.373
70130SOL    HW212288  11.230   3.442  13.387
70131SOL     OW12289   5.404   5.583  13.588
70131SOL    HW112290   5.389   5.492  13.616
70131SOL    HW212291   5.499   5.590  13.578
70132SOL     OW12292   3.913   6.320  12.421
70132SOL    HW112293   3.910   6.224  12.428
70132SOL    HW212294   3.822   6.346  12.405
70133SOL     OW12295   0.919   6.553   6.195
70133SOL    HW112296   0.922   6.583   6.104
70133SOL    HW212297   0.984   6.483   6.200
70134SOL     OW12298   1.951   7.058  13.405
70134SOL    HW112299   1.907   7.007  13.473
70134SOL    HW212300   1.880   7.094  13.351
70135SOL     OW12301   8.497  11.454   0.112
70135SOL    HW112302   8.484  11.469   0.206
70135SOL    HW212303   8.590  11.433   0.104
70136SOL     OW12304  12.274   5.846  13.083
70136SOL    HW112305  12.191   5.876  13.120
70136SOL    HW212306  12.287   5.901  13.005
70137SOL     OW12307  10.184   3.328  13.501
70137SOL    HW112308  10.124   3.383  13.451
70137SOL    HW212309  10.130   3.288  13.569
70138SOL     OW12310  13.360   4.185   3.439
70138SOL    HW112311  13.372   4.256   3.376
70138SOL    HW212312  13.305   4.223   3.507
70139SOL     OW12313   3.205   9.911   8.188
70139SOL    HW112314   3.281   9.921   8.245
70139SOL    HW212315   3.136   9.964   8.228
70140SOL     OW12316  13.042   2.858   5.290
70140SOL    HW112317  13.055   2.878   5.197
70140SOL    HW212318  12.970   2.795   5.291
70141SOL     OW12319  11.637   1.863   9.647
70141SOL    HW112320  11.653   1.896   9.736
70141SOL    HW212321  11.548   1.829   9.650
70142SOL     OW12322   2.011   4.193   8.254
70142SOL    HW112323   1.998   4.286   8.275
70142SOL    HW212324   2.078   4.164   8.315
70143SOL     OW12325   6.943   7.772  10.744
70143SOL    HW112326   6.910   7.861  10.759
70143SOL    HW212327   6.870   7.715  10.768
70144SOL     OW12328  12.320   0.993   0.118
70144SOL    HW112329  12.273   0.996   0.035
70144SOL    HW212330  12.406   0.957   0.095
70145SOL     OW12331   6.572   0.928   0.150
70145SOL    HW112332   6.637   0.951   0.216
70145SOL    HW212333   6.509   1.001   0.152
70146SOL     OW12334   2.573   9.662   4.748
70146SOL    HW112335   2.527   9.579   4.762
70146SOL    HW212336   2.602   9.659   4.657
70147SOL     OW12337  10.399  11.109   2.232
70147SOL    HW112338  10.464  11.065   2.178
70147SOL    HW212339  10.399  11.059   2.314
70148SOL     OW12340   2.267   5.093   5.394
70148SOL    HW112341   2.242   5.134   5.311
70148SOL    HW212342   2.304   5.164   5.446
70149SOL     OW12343   5.484   9.676   1.444
70149SOL    HW112344   5.441   9.631   1.372
70149SOL    HW212345   5.566   9.708   1.407
70150SOL     OW12346   8.578   5.753   1.425
70150SOL    HW112347   8.552   5.839   1.458
70150SOL    HW212348   8.562   5.758   1.331
70151SOL     OW12349   0.921  12.845   5.400
70151SOL    HW112350   0.862  12.921   5.393
70151SOL    HW212351   0.864  12.769   5.387
70152SOL     OW12352   7.138  14.613   0.906
70152SOL    HW112353   7.105  14.680   0.966
70152SOL    HW212354   7.097  14.635   0.822
70153SOL     OW12355   4.523   1.959   6.956
70153SOL    HW112356   4.533   2.050   6.928
70153SOL    HW212357   4.509   1.965   7.050
70154SOL     OW12358   4.531  14.232  10.070
70154SOL    HW112359   4.494  14.318  10.092
70154SOL    HW212360   4.609  14.252  10.019
70155SOL     OW12361  10.006  10.725  11.065
70155SOL    HW112362   9.975  10.810  11.032
70155SOL    HW212363  10.071  10.697  11.001
70156SOL     OW12364   6.645   6.927   8.892
70156SOL    HW112365   6.649   7.008   8.841
70156SOL    HW212366   6.697   6.865   8.842
70157SOL     OW12367   5.886   0.662  14.448
70157SOL    HW112368   5.948   0.720  14.402
70157SOL    HW212369   5.881   0.584  14.394
70158SOL     OW12370  14.704  11.403   9.031
70158SOL    HW112371  14.703  11.317   9.073
70158SOL    HW212372  14.785  11.403   8.979
70159SOL     OW12373  13.737   1.101   1.580
70159SOL    HW112374  13.770   1.170   1.638
70159SOL    HW212375  13.810   1.039   1.572
70160SOL     OW12376   8.216  11.718   2.001
70160SOL    HW112377   8.273  11.768   1.942
70160SOL    HW212378   8.141  11.693   1.946
70161SOL     OW12379   4.621  14.665   6.771
70161SOL    HW112380   4.696  14.623   6.813
70161SOL    HW212381   4.545  14.620   6.806
70162SOL     OW12382   6.716  11.688   0.478
70162SOL    HW112383   6.722  11.649   0.565
70162SOL    HW212384   6.636  11.651   0.441
70163SOL     OW12385   9.901   5.091   4.750
70163SOL    HW112386   9.806   5.102   4.756
70163SOL    HW212387   9.917   5.002   4.781
70164SOL     OW12388  12.969  11.607   0.442
70164SOL    HW112389  12.926  11.581   0.524
70164SOL    HW212390  13.052  11.560   0.443
70165SOL     OW12391   6.962   6.203   1.194
70165SOL    HW112392   6.907   6.140   1.147
70165SOL    HW212393   7.037   6.153   1.223
70166SOL     OW12394   7.984   2.813   6.754
70166SOL    HW112395   7.896   2.782   6.731
70166SOL    HW212396   8.040   2.737   6.742
70167SOL     OW12397   3.562   0.943   9.200
70167SOL    HW112398   3.547   0.850   9.182
70167SOL    HW212399   3.544   0.987   9.117
70168SOL     OW12400  14.621   3.386   9.083
70168SOL    HW112401  14.550   3.328   9.055
70168SOL    HW212402  14.696   3.360   9.028
70169SOL     OW12403  10.863  11.110  10.780
70169SOL    HW112404  10.910  11.029  10.799
70169SOL    HW212405  10.843  11.147  10.866
70170SOL     OW12406  12.681  11.009   3.890
70170SOL    HW112407  12.601  10.957   3.883
70170SOL    HW212408  12.752  10.945   3.879
70171SOL     OW12409   3.054   5.418   3.681
70171SOL    HW112410   3.117   5.348   3.662
70171SOL    HW212411   3.062   5.433   3.776
70172SOL     OW12412   4.455  10.540   0.661
70172SOL    HW112413   4.437  10.478   0.732
70172SOL    HW212414   4.550  10.539   0.651
70173SOL     OW12415  11.437   0.959  12.844
70173SOL    HW112416  11.477   0.900  12.779
70173SOL    HW212417  11.512   1.002  12.885
70174SOL     OW12418   3.388   4.161   6.309
70174SOL    HW112419   3.463   4.117   6.350
70174SOL    HW212420   3.311   4.117   6.346
70175SOL     OW12421   5.608   1.607   5.900
70175SOL    HW112422   5.528   1.614   5.952
70175SOL    HW212423   5.624   1.513   5.893
70176SOL     OW12424   3.696   7.844   7.727
70176SOL    HW112425   3.766   7.786   7.757
70176SOL    HW212426   3.703   7.844   7.632
70177SOL     OW12427   9.182  10.832   1.790
70177SOL    HW112428   9.150  10.774   1.859
70177SOL    HW212429   9.131  10.912   1.801
70178SOL     OW12430   8.527   5.425   0.361
70178SOL    HW112431   8.597   5.450   0.301
70178SOL    HW212432   8.492   5.344   0.325
70179SOL     OW12433   6.060   1.162   1.268
70179SOL    HW112434   6.041   1.254   1.248
70179SOL    HW212435   5.984   1.114   1.236
70180SOL     OW12436  14.829   2.030   8.987
70180SOL    HW112437  14.858   2.089   9.057
70180SOL    HW212438  14.872   2.063   8.908
70181SOL     OW12439   8.177   5.116   5.576
70181SOL    HW112440   8.097   5.144   5.621
70181SOL    HW212441   8.155   5.029   5.541
70182SOL     OW12442   7.460  10.477   1.095
70182SOL    HW112443   7.551  10.481   1.124
70182SOL    HW212444   7.441  10.566   1.065
70183SOL     OW12445   6.209   8.878   8.616
70183SOL    HW112446   6.242   8.947   8.674
70183SOL    HW212447   6.255   8.799   8.643
70184SOL     OW12448   3.579   8.540  10.905
70184SOL    HW112449   3.667   8.561  10.873
70184SOL    HW212450   3.524   8.541  10.826
70185SOL     OW12451  13.044   1.539   6.071
70185SOL    HW112452  12.984   1.612   6.054
70185SOL    HW212453  12.992   1.477   6.121
70186SOL     OW12454  10.984   0.947   6.199
70186SOL    HW112455  10.917   0.907   6.144
70186SOL    HW212456  11.027   1.011   6.142
70187SOL     OW12457   3.777   7.970  10.734
70187SOL    HW112458   3.816   7.935  10.653
70187SOL    HW212459   3.767   7.893  10.790
70188SOL     OW12460   1.819   0.600   9.364
70188SOL    HW112461   1.729   0.569   9.368
70188SOL    HW212462   1.872   0.522   9.383
70189SOL     OW12463   8.035  14.456   8.198
70189SOL    HW112464   7.943  14.475   8.185
70189SOL    HW212465   8.038  14.361   8.215
70190SOL     OW12466   3.425   7.768   8.557
70190SOL    HW112467   3.390   7.823   8.626
70190SOL    HW212468   3.360   7.699   8.546
70191SOL     OW12469   0.674  14.694   9.808
70191SOL    HW112470   0.767  14.710   9.791
70191SOL    HW212471   0.673  14.648   9.892
70192SOL     OW12472   0.219   0.725   8.755
70192SOL    HW112473   0.245   0.746   8.844
70192SOL    HW212474   0.243   0.633   8.744
70193SOL     OW12475   8.159   3.192   4.055
70193SOL    HW112476   8.149   3.259   4.122
70193SOL    HW212477   8.101   3.220   3.984
70194SOL     OW12478  13.704   6.632  10.116
70194SOL    HW112479  13.709   6.550  10.165
70194SOL    HW212480  13.795   6.653  10.095
70195SOL     OW12481   6.678   5.936   0.254
70195SOL    HW112482   6.736   6.012   0.249
70195SOL    HW212483   6.712   5.875   0.188
70196SOL     OW12484   3.280  13.539   6.712
70196SOL    HW112485   3.371  13.515   6.698
70196SOL    HW212486   3.264  13.523   6.805
70197SOL     OW12487   2.455  13.181  10.970
70197SOL    HW112488   2.395  13.186  10.895
70197SOL    HW212489   2.517  13.112  10.946
70198SOL     OW12490   4.852   3.836  10.196
70198SOL    HW112491   4.890   3.919  10.226
70198SOL    HW212492   4.806   3.859  10.115
70199SOL     OW12493   4.829   9.488   5.249
70199SOL    HW112494   4.809   9.581   5.259
70199SOL    HW212495   4.870   9.482   5.163
70200SOL     OW12496  12.395   4.826  14.582
70200SOL    HW112497  12.417   4.899  14.524
70200SOL    HW212498  12.320   4.857  14.632
70201SOL     OW12499  12.116  13.002  11.769
70201SOL    HW112500  12.102  12.926  11.825
70201SOL    HW212501  12.168  13.062  11.822
70202SOL     OW12502   7.881   0.709  14.526
70202SOL    HW112503   7.805   0.716  14.584
70202SOL    HW212504   7.857   0.760  14.449
70203SOL     OW12505   6.646   0.308   9.671
70203SOL    HW112506   6.550   0.306   9.669
70203SOL    HW212507   6.672   0.216   9.661
70204SOL     OW12508   2.346   5.632   3.628
70204SOL    HW112509   2.425   5.684   3.613
70204SOL    HW212510   2.315   5.608   3.540
70205SOL     OW12511   0.905  11.265   3.387
70205SOL    HW112512   0.929  11.298   3.474
70205SOL    HW212513   0.840  11.327   3.355
70206SOL     OW12514   9.838   1.672   0.113
70206SOL    HW112515   9.790   1.700   0.190
70206SOL    HW212516   9.788   1.598   0.078
70207SOL     OW12517  13.348  11.213   5.153
70207SOL    HW112518  13.370  11.198   5.061
70207SOL    HW212519  13.265  11.166   5.165
70208SOL     OW12520   3.459  13.693   2.839
70208SOL    HW112521   3.366  13.692   2.820
70208SOL    HW212522   3.501  13.711   2.755
70209SOL     OW12523   4.946   1.888  14.575
70209SOL    HW112524   4.964   1.958  14.638
70209SOL    HW212525   4.864   1.850  14.606
70210SOL     OW12526   6.714   7.318   2.052
70210SOL    HW112527   6.786   7.380   2.061
70210SOL    HW212528   6.650   7.362   1.997
70211SOL     OW12529   4.363  10.315   6.361
70211SOL    HW112530   4.297  10.330   6.429
70211SOL    HW212531   4.388  10.223   6.372
70212SOL     OW12532   2.032  10.035   8.306
70212SOL    HW112533   2.065  10.125   8.306
70212SOL    HW212534   1.947  10.041   8.261
70213SOL     OW12535  11.055  14.011   0.203
70213SOL    HW112536  11.088  14.097   0.231
70213SOL    HW212537  11.071  14.009   0.109
70214SOL     OW12538  13.523   6.771   3.953
70214SOL    HW112539  13.605   6.789   3.907
70214SOL    HW212540  13.456   6.812   3.898
70215SOL     OW12541   3.715  10.119   6.606
70215SOL    HW112542   3.725  10.182   6.534
70215SOL    HW212543   3.794  10.066   6.602
70216SOL     OW12544   2.796   3.112   5.842
70216SOL    HW112545   2.848   3.172   5.789
70216SOL    HW212546   2.715   3.099   5.791
70217SOL     OW12547  11.271   3.216  14.363
70217SOL    HW112548  11.260   3.211  14.458
70217SOL    HW212549  11.185   3.193  14.327
70218SOL     OW12550   0.895   1.801   5.651
70218SOL    HW112551   0.954   1.867   5.686
70218SOL    HW212552   0.928   1.718   5.686
70219SOL     OW12553   4.034   3.916   8.440
70219SOL    HW112554   3.983   3.997   8.439
70219SOL    HW212555   4.122   3.942   8.412
70220SOL     OW12556   6.877   1.321   0.932
70220SOL    HW112557   6.895   1.233   0.898
70220SOL    HW212558   6.861   1.308   1.025
70221SOL     OW12559   7.564   1.860  13.596
70221SOL    HW112560   7.630   1.794  13.576
70221SOL    HW212561   7.487   1.810  13.623
70222SOL     OW12562   0.031   8.938   0.874
70222SOL    HW112563   0.069   8.851   0.873
70222SOL    HW212564  14.849   8.942   0.794
70223SOL     OW12565   7.379  11.920   6.768
70223SOL    HW112566   7.286  11.909   6.787
70223SOL    HW212567   7.382  11.986   6.699
70224SOL     OW12568   3.252   5.862   9.173
70224SOL    HW112569   3.316   5.800   9.209
70224SOL    HW212570   3.280   5.874   9.082
70225SOL     OW12571   7.337   8.175  13.832
70225SOL    HW112572   7.414   8.122  13.851
70225SOL    HW212573   7.331   8.236  13.906
70226SOL     OW12574  13.956   7.705   9.766
70226SOL    HW112575  14.010   7.636   9.805
70226SOL    HW212576  13.962   7.778   9.828
70227SOL     OW12577  14.456  10.957   3.295
70227SOL    HW112578  14.453  10.974   3.389
70227SOL    HW212579  14.428  11.040   3.255
70228SOL     OW12580   2.053   3.688   8.172
70228SOL    HW112581   2.059   3.651   8.260
70228SOL    HW212582   2.095   3.774   8.179
70229SOL     OW12583   2.664   3.942   5.974
70229SOL    HW112584   2.579   3.980   5.997
70229SOL    HW212585   2.645   3.884   5.899
70230SOL     OW12586  10.908  13.630   1.374
70230SOL    HW112587  10.847  13.664   1.441
70230SOL    HW212588  10.939  13.709   1.330
70231SOL     OW12589   7.167  11.941   7.229
70231SOL    HW112590   7.151  11.852   7.260
70231SOL    HW212591   7.163  11.934   7.133
70232SOL     OW12592   1.722  14.016   0.936
70232SOL    HW112593   1.778  14.086   0.969
70232SOL    HW212594   1.642  14.023   0.988
70233SOL     OW12595   6.057  11.258  10.361
70233SOL    HW112596   6.141  11.215  10.371
70233SOL    HW212597   6.005  11.229  10.436
70234SOL     OW12598  12.460  14.196   1.922
70234SOL    HW112599  12.516  14.135   1.970
70234SOL    HW212600  12.517  14.235   1.856
70235SOL     OW12601  14.345   1.926   9.843
70235SOL    HW112602  14.386   1.943   9.758
70235SOL    HW212603  14.406   1.963   9.907
70236SOL     OW12604   9.221   6.037   6.401
70236SOL    HW112605   9.272   6.087   6.338
70236SOL    HW212606   9.139   6.086   6.409
70237SOL     OW12607   4.694   2.083   4.000
70237SOL    HW112608   4.706   2.128   4.084
70237SOL    HW212609   4.606   2.108   3.972
70238SOL     OW12610  12.346   2.516  11.603
70238SOL    HW112611  12.260   2.546  11.574
70238SOL    HW212612  12.328   2.433  11.649
70239SOL     OW12613   8.190   0.580  14.326
70239SOL    HW112614   8.212   0.497  14.368
70239SOL    HW212615   8.169   0.639  14.398
70240SOL     OW12616   2.381   3.746   3.873
70240SOL    HW112617   2.300   3.794   3.889
70240SOL    HW212618   2.384   3.680   3.943
70241SOL     OW12619   6.299   9.270   3.278
70241SOL    HW112620   6.343   9.251   3.361
70241SOL    HW212621   6.306   9.189   3.227
70242SOL     OW12622   6.075  14.019  12.525
70242SOL    HW112623   5.996  14.055  12.564
70242SOL    HW212624   6.118  13.972  12.597
70243SOL     OW12625   0.254   7.672   0.900
70243SOL    HW112626   0.239   7.669   0.805
70243SOL    HW212627   0.312   7.598   0.917
70244SOL     OW12628   3.930  10.590  12.010
70244SOL    HW112629   3.935  10.547  12.095
70244SOL    HW212630   4.015  10.634  12.000
70245SOL     OW12631  13.138   2.753  13.463
70245SOL    HW112632  13.078   2.780  13.392
70245SOL    HW212633  13.105   2.668  13.491
70246SOL     OW12634   6.054   8.370   6.887
70246SOL    HW112635   6.070   8.419   6.968
70246SOL    HW212636   6.100   8.421   6.820
70247SOL     OW12637   9.085  12.937  14.540
70247SOL    HW112638   9.171  12.971  14.565
70247SOL    HW212639   9.100  12.845  14.520
70248SOL     OW12640  12.459   0.551   6.928
70248SOL    HW112641  12.479   0.459   6.940
70248SOL    HW212642  12.497   0.594   7.005
70249SOL     OW12643  13.822  12.786   5.776
70249SOL    HW112644  13.908  12.795   5.734
70249SOL    HW212645  13.811  12.692   5.787
70250SOL     OW12646   4.072   3.583   2.549
70250SOL    HW112647   4.046   3.497   2.581
70250SOL    HW212648   4.167   3.576   2.538
70251SOL     OW12649   5.737   0.765  12.533
70251SOL    HW112650   5.739   0.837  12.597
70251SOL    HW212651   5.823   0.768  12.491
70252SOL     OW12652   5.729   3.422   8.840
70252SOL    HW112653   5.672   3.479   8.892
70252SOL    HW212654   5.813   3.424   8.885
70253SOL     OW12655   8.651   7.339   2.531
70253SOL    HW112656   8.580   7.363   2.591
70253SOL    HW212657   8.691   7.423   2.507
70254SOL     OW12658   9.718   2.363   6.354
70254SOL    HW112659   9.717   2.432   6.420
70254SOL    HW212660   9.634   2.373   6.308
70255SOL     OW12661   5.249   9.650   9.272
70255SOL    HW112662   5.238   9.675   9.181
70255SOL    HW212663   5.168   9.603   9.295
70256SOL     OW12664  12.293   7.687   9.436
70256SOL    HW112665  12.214   7.669   9.385
70256SOL    HW212666  12.338   7.757   9.388
70257SOL     OW12667   1.928   7.937  10.825
70257SOL    HW112668   1.949   8.022  10.862
70257SOL    HW212669   1.983   7.930  10.747
70258SOL     OW12670  11.431   9.183   6.507
70258SOL    HW112671  11.374   9.259   6.493
70258SOL    HW212672  11.370   9.110   6.519
70259SOL     OW12673   5.905   4.354  10.049
70259SOL    HW112674   5.927   4.297   9.975
70259SOL    HW212675   5.845   4.419  10.012
70260SOL     OW12676  10.394   8.408   0.071
70260SOL    HW112677  10.317   8.350   0.067
70260SOL    HW212678  10.468   8.349   0.055
70261SOL     OW12679   6.133   4.722   3.739
70261SOL    HW112680   6.158   4.708   3.831
70261SOL    HW212681   6.204   4.683   3.689
70262SOL     OW12682  10.426  12.683   4.879
70262SOL    HW112683  10.341  12.676   4.923
70262SOL    HW212684  10.404  12.710   4.789
70263SOL     OW12685  12.864  11.411   8.247
70263SOL    HW112686  12.782  11.450   8.216
70263SOL    HW212687  12.839  11.324   8.277
70264SOL     OW12688  11.419   2.544   8.350
70264SOL    HW112689  11.382   2.572   8.434
70264SOL    HW212690  11.416   2.623   8.295
70265SOL     OW12691  14.426   1.120   0.520
70265SOL    HW112692  14.465   1.198   0.558
70265SOL    HW212693  14.499   1.060   0.505
70266SOL     OW12694   8.106   8.608   7.817
70266SOL    HW112695   8.050   8.531   7.822
70266SOL    HW212696   8.090   8.655   7.898
70267SOL     OW12697   2.703   4.694  12.190
70267SOL    HW112698   2.712   4.615  12.244
70267SOL    HW212699   2.792   4.730  12.186
70268SOL     OW12700   2.298  13.758  12.065
70268SOL    HW112701   2.257  13.774  11.980
70268SOL    HW212702   2.291  13.842  12.111
70269SOL     OW12703  12.597  14.862   3.736
70269SOL    HW112704  12.555  14.779   3.757
70269SOL    HW212705  12.620   0.028   3.821
70270SOL     OW12706   9.830   9.752   0.883
70270SOL    HW112707   9.739   9.728   0.902
70270SOL    HW212708   9.824   9.838   0.842
70271SOL     OW12709   1.094   3.809   4.439
70271SOL    HW112710   1.014   3.861   4.428
70271SOL    HW212711   1.077   3.753   4.515
70272SOL     OW12712  12.321   4.666   0.891
70272SOL    HW112713  12.295   4.758   0.890
70272SOL    HW212714  12.338   4.645   0.799
70273SOL     OW12715   7.028   7.109  11.095
70273SOL    HW112716   7.015   7.147  11.008
70273SOL    HW212717   7.114   7.141  11.122
70274SOL     OW12718   4.508  12.024   5.777
70274SOL    HW112719   4.597  12.002   5.803
70274SOL    HW212720   4.496  12.114   5.806
70275SOL     OW12721   2.276   5.374  14.731
70275SOL    HW112722   2.350   5.337  14.683
70275SOL    HW212723   2.317   5.423  14.803
70276SOL     OW12724   0.632   3.240   3.550
70276SOL    HW112725   0.603   3.187   3.625
70276SOL    HW212726   0.612   3.186   3.474
70277SOL     OW12727   6.979   8.975  11.185
70277SOL    HW112728   6.910   8.982  11.119
70277SOL    HW212729   7.008   9.066  11.199
70278SOL     OW12730  13.083   3.143  13.400
70278SOL    HW112731  13.019   3.077  13.425
70278SOL    HW212732  13.067   3.159  13.307
70279SOL     OW12733   1.571   9.713  10.322
70279SOL    HW112734   1.612   9.679  10.401
70279SOL    HW212735   1.491   9.756  10.353
70280SOL     OW12736   3.086   7.094  10.430
70280SOL    HW112737   3.100   7.099  10.336
70280SOL    HW212738   3.055   7.182  10.454
70281SOL     OW12739   5.071   0.616   6.718
70281SOL    HW112740   5.064   0.710   6.735
70281SOL    HW212741   5.157   0.592   6.751
70282SOL     OW12742   0.810  13.535  13.745
70282SOL    HW112743   0.897  13.551  13.782
70282SOL    HW212744   0.780  13.455  13.787
70283SOL     OW12745   0.481  13.639  10.147
70283SOL    HW112746   0.501  13.655  10.239
70283SOL    HW212747   0.548  13.687  10.099
70284SOL     OW12748  14.753   5.613  11.527
70284SOL    HW112749  14.698   5.539  11.554
70284SOL    HW212750  14.711   5.689  11.568
70285SOL     OW12751   6.373  13.772   2.951
70285SOL    HW112752   6.295  13.772   2.895
70285SOL    HW212753   6.400  13.681   2.956
70286SOL     OW12754   1.220  11.453  13.941
70286SOL    HW112755   1.207  11.413  14.026
70286SOL    HW212756   1.315  11.446  13.925
70287SOL     OW12757   6.732  14.120  10.635
70287SOL    HW112758   6.750  14.201  10.682
70287SOL    HW212759   6.675  14.070  10.694
70288SOL     OW12760   5.491   3.955  12.322
70288SOL    HW112761   5.474   3.996  12.237
70288SOL    HW212762   5.580   3.981  12.344
70289SOL     OW12763   8.162   0.691   4.495
70289SOL    HW112764   8.141   0.686   4.402
70289SOL    HW212765   8.244   0.740   4.499
70290SOL     OW12766   1.671   3.935   6.608
70290SOL    HW112767   1.698   3.845   6.589
70290SOL    HW212768   1.593   3.948   6.554
70291SOL     OW12769  10.006   9.927   6.702
70291SOL    HW112770   9.937   9.865   6.726
70291SOL    HW212771  10.076   9.871   6.668
70292SOL     OW12772   6.703   1.256  13.907
70292SOL    HW112773   6.660   1.311  13.973
70292SOL    HW212774   6.694   1.304  13.825
70293SOL     OW12775  12.957  11.399   3.823
70293SOL    HW112776  12.901  11.356   3.887
70293SOL    HW212777  13.041  11.353   3.830
70294SOL     OW12778   6.182   0.606   8.276
70294SOL    HW112779   6.243   0.568   8.213
70294SOL    HW212780   6.174   0.698   8.250
70295SOL     OW12781   8.900   1.567   9.533
70295SOL    HW112782   8.835   1.530   9.473
70295SOL    HW212783   8.904   1.505   9.606
70296SOL     OW12784  14.114   6.767  11.190
70296SOL    HW112785  14.111   6.849  11.239
70296SOL    HW212786  14.202   6.734  11.203
70297SOL     OW12787   0.596   1.315   1.814
70297SOL    HW112788   0.685   1.313   1.849
70297SOL    HW212789   0.540   1.314   1.891
70298SOL     OW12790   2.840  11.738   6.261
70298SOL    HW112791   2.820  11.749   6.354
70298SOL    HW212792   2.761  11.701   6.224
70299SOL     OW12793   7.796   3.571  12.958
70299SOL    HW112794   7.817   3.528  13.041
70299SOL    HW212795   7.792   3.499  12.894
70300SOL     OW12796   0.315   3.970   5.198
70300SOL    HW112797   0.385   4.001   5.255
70300SOL    HW212798   0.279   4.050   5.160
70301SOL     OW12799  11.339   3.556   8.669
70301SOL    HW112800  11.398   3.499   8.718
70301SOL    HW212801  11.263   3.501   8.650
70302SOL     OW12802   3.030  13.136  14.433
70302SOL    HW112803   3.035  13.097  14.521
70302SOL    HW212804   2.988  13.068  14.380
70303SOL     OW12805   1.599  11.344   5.158
70303SOL    HW112806   1.523  11.381   5.202
70303SOL    HW212807   1.566  11.265   5.115
70304SOL     OW12808   6.293   2.103   9.330
70304SOL    HW112809   6.357   2.032   9.327
70304SOL    HW212810   6.229   2.074   9.396
70305SOL     OW12811   0.300  10.102  13.839
70305SOL    HW112812   0.286  10.159  13.764
70305SOL    HW212813   0.335  10.159  13.907
70306SOL     OW12814   5.020   8.410  12.406
70306SOL    HW112815   5.098   8.374  12.363
70306SOL    HW212816   5.041   8.502  12.420
70307SOL     OW12817   7.697   4.178  11.086
70307SOL    HW112818   7.774   4.223  11.050
70307SOL    HW212819   7.625   4.207  11.029
70308SOL     OW12820   0.125   0.775   7.819
70308SOL    HW112821   0.193   0.824   7.867
70308SOL    HW212822   0.058   0.841   7.799
70309SOL     OW12823  14.859   6.752  11.710
70309SOL    HW112824  14.866   6.820  11.777
70309SOL    HW212825   0.041   6.680  11.743
70310SOL     OW12826   5.905  14.372   6.243
70310SOL    HW112827   5.813  14.387   6.262
70310SOL    HW212828   5.911  14.279   6.221
70311SOL     OW12829  12.511  11.142  14.081
70311SOL    HW112830  12.503  11.229  14.040
70311SOL    HW212831  12.451  11.145  14.155
70312SOL     OW12832   5.272  12.801   4.859
70312SOL    HW112833   5.305  12.890   4.874
70312SOL    HW212834   5.350  12.746   4.862
70313SOL     OW12835   1.551   2.171   0.369
70313SOL    HW112836   1.482   2.165   0.303
70313SOL    HW212837   1.526   2.107   0.436
70314SOL     OW12838  10.172   3.548   1.813
70314SOL    HW112839  10.096   3.596   1.846
70314SOL    HW212840  10.239   3.615   1.801
70315SOL     OW12841   6.074   3.329  13.987
70315SOL    HW112842   6.160   3.289  13.979
70315SOL    HW212843   6.034   3.286  14.063
70316SOL     OW12844  11.559   0.817  12.666
70316SOL    HW112845  11.569   0.877  12.592
70316SOL    HW212846  11.649   0.790  12.686
70317SOL     OW12847  14.026   5.053   1.060
70317SOL    HW112848  14.009   5.083   1.150
70317SOL    HW212849  14.057   4.963   1.070
70318SOL     OW12850   8.973  13.907   6.301
70318SOL    HW112851   8.931  13.988   6.328
70318SOL    HW212852   9.019  13.876   6.379
70319SOL     OW12853  11.684   3.605   0.279
70319SOL    HW112854  11.594   3.626   0.253
70319SOL    HW212855  11.678   3.591   0.373
70320SOL     OW12856   9.414   8.236   1.251
70320SOL    HW112857   9.353   8.247   1.178
70320SOL    HW212858   9.493   8.200   1.211
70321SOL     OW12859   7.254  13.276   9.539
70321SOL    HW112860   7.272  13.182   9.546
70321SOL    HW212861   7.323  13.309   9.482
70322SOL     OW12862   9.088  10.914  12.328
70322SOL    HW112863   9.168  10.878  12.367
70322SOL    HW212864   9.035  10.940  12.403
70323SOL     OW12865   3.591   9.262   2.181
70323SOL    HW112866   3.589   9.176   2.223
70323SOL    HW212867   3.679   9.295   2.197
70324SOL     OW12868  13.554  12.234   0.613
70324SOL    HW112869  13.496  12.184   0.671
70324SOL    HW212870  13.628  12.259   0.668
70325SOL     OW12871   1.570   9.918   2.331
70325SOL    HW112872   1.523   9.920   2.414
70325SOL    HW212873   1.644   9.860   2.347
70326SOL     OW12874   4.192   6.164  11.421
70326SOL    HW112875   4.201   6.102  11.349
70326SOL    HW212876   4.145   6.239  11.383
70327SOL     OW12877  11.092   5.099  12.772
70327SOL    HW112878  11.080   5.065  12.683
70327SOL    HW212879  11.147   5.176  12.761
70328SOL     OW12880   4.505   4.084   2.619
70328SOL    HW112881   4.507   3.988   2.619
70328SOL    HW212882   4.478   4.108   2.531
70329SOL     OW12883  14.063   7.557   0.572
70329SOL    HW112884  14.055   7.651   0.590
70329SOL    HW212885  14.138   7.529   0.624
70330SOL     OW12886   3.007   7.721  12.131
70330SOL    HW112887   3.093   7.728  12.172
70330SOL    HW212888   2.966   7.645  12.174
70331SOL     OW12889   3.220   7.307   4.088
70331SOL    HW112890   3.135   7.349   4.105
70331SOL    HW212891   3.201   7.214   4.087
70332SOL     OW12892   5.593   4.051   4.034
70332SOL    HW112893   5.539   4.014   4.104
70332SOL    HW212894   5.667   3.991   4.027
70333SOL     OW12895  13.515  12.440   3.622
70333SOL    HW112896  13.585  12.469   3.565
70333SOL    HW212897  13.502  12.512   3.684
70334SOL     OW12898   7.786  12.254   1.441
70334SOL    HW112899   7.793  12.263   1.346
70334SOL    HW212900   7.717  12.189   1.454
70335SOL     OW12901   4.507  14.842   9.390
70335SOL    HW112902   4.432   0.028   9.377
70335SOL    HW212903   4.469  14.758   9.414
70336SOL     OW12904   6.769   2.431  14.655
70336SOL    HW112905   6.682   2.468  14.638
70336SOL    HW212906   6.805   2.416  14.567
70337SOL     OW12907   8.049   2.452   3.248
70337SOL    HW112908   8.127   2.500   3.222
70337SOL    HW212909   8.064   2.431   3.340
70338SOL     OW12910   9.385  11.212  14.175
70338SOL    HW112911   9.410  11.132  14.220
70338SOL    HW212912   9.300  11.192  14.136
70339SOL     OW12913   5.773   0.673   6.511
70339SOL    HW112914   5.820   0.755   6.501
70339SOL    HW212915   5.842   0.607   6.522
70340SOL     OW12916  14.222   8.771   9.005
70340SOL    HW112917  14.317   8.765   8.991
70340SOL    HW212918  14.190   8.818   8.928
70341SOL     OW12919   2.425   1.543   9.434
70341SOL    HW112920   2.491   1.478   9.456
70341SOL    HW212921   2.455   1.582   9.352
70342SOL     OW12922  10.546  14.632   4.538
70342SOL    HW112923  10.631  14.661   4.505
70342SOL    HW212924  10.483  14.671   4.477
70343SOL     OW12925   7.930  14.392   2.913
70343SOL    HW112926   7.922  14.373   3.007
70343SOL    HW212927   7.883  14.474   2.902
70344SOL     OW12928   3.035   3.075   9.851
70344SOL    HW112929   2.985   3.078   9.769
70344SOL    HW212930   3.124   3.049   9.824
70345SOL     OW12931   3.664  13.807   5.284
70345SOL    HW112932   3.618  13.838   5.206
70345SOL    HW212933   3.604  13.824   5.356
70346SOL     OW12934   1.030   1.702  10.157
70346SOL    HW112935   1.048   1.668  10.069
70346SOL    HW212936   1.033   1.797  10.147
70347SOL     OW12937  12.927  13.457   8.088
70347SOL    HW112938  12.984  13.532   8.108
70347SOL    HW212939  12.845  13.497   8.060
70348SOL     OW12940   6.143  10.173   3.932
70348SOL    HW112941   6.141  10.267   3.915
70348SOL    HW212942   6.054  10.143   3.914
70349SOL     OW12943   9.031  10.224   0.131
70349SOL    HW112944   8.978  10.161   0.180
70349SOL    HW212945   9.085  10.266   0.198
70350SOL     OW12946   3.296  10.646   5.903
70350SOL    HW112947   3.337  10.730   5.924
70350SOL    HW212948   3.206  10.668   5.880
70351SOL     OW12949  10.372  14.826   5.608
70351SOL    HW112950  10.303  14.769   5.575
70351SOL    HW212951  10.453  14.780   5.588
70352SOL     OW12952   0.216  11.348   5.418
70352SOL    HW112953   0.203  11.364   5.325
70352SOL    HW212954   0.128  11.342   5.454
70353SOL     OW12955   0.411   2.827   3.292
70353SOL    HW112956   0.376   2.883   3.361
70353SOL    HW212957   0.405   2.738   3.327
70354SOL     OW12958   9.975  12.199   8.569
70354SOL    HW112959   9.925  12.192   8.488
70354SOL    HW212960   9.911  12.185   8.638
70355SOL     OW12961   3.500   8.739   6.622
70355SOL    HW112962   3.448   8.738   6.542
70355SOL    HW212963   3.550   8.658   6.620
70356SOL     OW12964  11.721   2.930   7.435
70356SOL    HW112965  11.789   2.934   7.368
70356SOL    HW212966  11.659   2.864   7.402
70357SOL     OW12967   8.231   5.178   5.138
70357SOL    HW112968   8.223   5.243   5.208
70357SOL    HW212969   8.220   5.229   5.057
70358SOL     OW12970   9.558   0.770  11.534
70358SOL    HW112971   9.614   0.816  11.595
70358SOL    HW212972   9.596   0.682  11.528
70359SOL     OW12973   9.199  10.858   5.444
70359SOL    HW112974   9.108  10.888   5.444
70359SOL    HW212975   9.213  10.823   5.356
70360SOL     OW12976  11.290   4.442   6.980
70360SOL    HW112977  11.297   4.501   7.055
70360SOL    HW212978  11.367   4.386   6.986
70361SOL     OW12979  13.002   1.631  10.002
70361SOL    HW112980  12.955   1.713   9.983
70361SOL    HW212981  13.022   1.595   9.916
70362SOL     OW12982   0.798   7.796   7.045
70362SOL    HW112983   0.890   7.809   7.066
70362SOL    HW212984   0.797   7.777   6.951
70363SOL     OW12985  11.700   5.566   1.069
70363SOL    HW112986  11.754   5.515   1.010
70363SOL    HW212987  11.610   5.541   1.048
70364SOL     OW12988   0.455   9.197  13.680
70364SOL    HW112989   0.393   9.135  13.718
70364SOL    HW212990   0.405   9.278  13.669
70365SOL     OW12991  10.008   8.913  14.709
70365SOL    HW112992  10.063   8.872  14.775
70365SOL    HW212993   9.923   8.924  14.752
70366SOL     OW12994   2.051  12.682   3.238
70366SOL    HW112995   2.038  12.723   3.324
70366SOL    HW212996   2.056  12.756   3.177
70367SOL     OW12997  10.466   6.239  10.942
70367SOL    HW112998  10.473   6.166  10.880
70367SOL    HW212999  10.425   6.309  10.891
70368SOL     OW13000  10.670  12.875   5.365
70368SOL    HW113001  10.650  12.841   5.278
70368SOL    HW213002  10.728  12.949   5.349
70369SOL     OW13003  13.154   4.630   2.837
70369SOL    HW113004  13.085   4.563   2.829
70369SOL    HW213005  13.110   4.704   2.879
70370SOL     OW13006   6.851   6.574   8.509
70370SOL    HW113007   6.838   6.641   8.576
70370SOL    HW213008   6.908   6.616   8.444
70371SOL     OW13009   6.659   4.083   7.167
70371SOL    HW113010   6.674   3.989   7.158
70371SOL    HW213011   6.740   4.123   7.134
70372SOL     OW13012  13.566  10.295  11.866
70372SOL    HW113013  13.537  10.207  11.890
70372SOL    HW213014  13.501  10.353  11.904
70373SOL     OW13015  11.041   3.029   7.216
70373SOL    HW113016  11.061   3.122   7.205
70373SOL    HW213017  10.946   3.024   7.207
70374SOL     OW13018   1.124  12.216   6.792
70374SOL    HW113019   1.126  12.237   6.885
70374SOL    HW213020   1.160  12.127   6.787
70375SOL     OW13021   5.241   6.968  14.469
70375SOL    HW113022   5.201   6.972  14.382
70375SOL    HW213023   5.323   7.017  14.459
70376SOL     OW13024   6.452   0.200   7.239
70376SOL    HW113025   6.457   0.110   7.206
70376SOL    HW213026   6.410   0.249   7.170
70377SOL     OW13027  12.825   0.933   0.259
70377SOL    HW113028  12.745   0.889   0.231
70377SOL    HW213029  12.795   1.007   0.312
70378SOL     OW13030   2.739   9.130   3.496
70378SOL    HW113031   2.726   9.213   3.541
70378SOL    HW213032   2.660   9.119   3.443
70379SOL     OW13033  12.526   6.734  13.725
70379SOL    HW113034  12.570   6.649  13.733
70379SOL    HW213035  12.455   6.719  13.663
70380SOL     OW13036   2.122  12.775   5.352
70380SOL    HW113037   2.031  12.782   5.381
70380SOL    HW213038   2.139  12.859   5.308
70381SOL     OW13039  14.482  10.189   1.357
70381SOL    HW113040  14.527  10.214   1.437
70381SOL    HW213041  14.513  10.251   1.291
70382SOL     OW13042  11.926   0.979   5.744
70382SOL    HW113043  11.845   0.995   5.694
70382SOL    HW213044  11.902   0.913   5.808
70383SOL     OW13045  12.796   7.045   1.990
70383SOL    HW113046  12.765   6.980   2.054
70383SOL    HW213047  12.890   7.053   2.008
70384SOL     OW13048  11.746  13.866  13.363
70384SOL    HW113049  11.684  13.850  13.434
70384SOL    HW213050  11.732  13.958  13.339
70385SOL     OW13051   1.237   3.414   1.783
70385SOL    HW113052   1.233   3.361   1.702
70385SOL    HW213053   1.330   3.423   1.801
70386SOL     OW13054   8.529   7.943  10.242
70386SOL    HW113055   8.519   8.038  10.243
70386SOL    HW213056   8.603   7.927  10.183
70387SOL     OW13057   6.604   0.992   9.047
70387SOL    HW113058   6.591   1.048   9.124
70387SOL    HW213059   6.639   1.051   8.980
70388SOL     OW13060   4.125   5.181   5.312
70388SOL    HW113061   4.069   5.199   5.237
70388SOL    HW213062   4.076   5.116   5.364
70389SOL     OW13063  12.693  11.804  12.782
70389SOL    HW113064  12.786  11.799  12.761
70389SOL    HW213065  12.679  11.733  12.845
70390SOL     OW13066   2.953  12.671  13.519
70390SOL    HW113067   3.046  12.691  13.529
70390SOL    HW213068   2.944  12.638  13.430
70391SOL     OW13069   8.001  10.259   2.861
70391SOL    HW113070   7.915  10.252   2.903
70391SOL    HW213071   7.983  10.246   2.768
70392SOL     OW13072   3.419  13.904  14.714
70392SOL    HW113073   3.333  13.864  14.730
70392SOL    HW213074   3.404  13.967  14.644
70393SOL     OW13075   4.286  13.060   8.067
70393SOL    HW113076   4.292  13.134   8.007
70393SOL    HW213077   4.284  13.100   8.154
70394SOL     OW13078   1.066   2.399  10.593
70394SOL    HW113079   0.979   2.374  10.628
70394SOL    HW213080   1.081   2.338  10.521
70395SOL     OW13081  10.233   0.694   2.739
70395SOL    HW113082  10.208   0.616   2.788
70395SOL    HW213083  10.211   0.674   2.648
70396SOL     OW13084   2.653   5.759   3.589
70396SOL    HW113085   2.618   5.748   3.500
70396SOL    HW213086   2.747   5.748   3.579
70397SOL     OW13087   5.689   9.364   3.940
70397SOL    HW113088   5.704   9.368   4.034
70397SOL    HW213089   5.683   9.456   3.913
70398SOL     OW13090  11.965   0.871  14.553
70398SOL    HW113091  11.912   0.817  14.612
70398SOL    HW213092  11.904   0.938  14.521
70399SOL     OW13093   0.864   3.996   1.725
70399SOL    HW113094   0.871   4.001   1.630
70399SOL    HW213095   0.920   4.068   1.757
70400SOL     OW13096   7.876  14.347   2.624
70400SOL    HW113097   7.850  14.256   2.643
70400SOL    HW213098   7.915  14.379   2.705
70401SOL     OW13099   5.992  10.747   8.365
70401SOL    HW113100   6.031  10.800   8.435
70401SOL    HW213101   5.916  10.706   8.406
70402SOL     OW13102   3.226  12.628   0.153
70402SOL    HW113103   3.162  12.606   0.221
70402SOL    HW213104   3.237  12.722   0.161
70403SOL     OW13105   1.714  12.234   4.588
70403SOL    HW113106   1.780  12.237   4.518
70403SOL    HW213107   1.728  12.149   4.630
70404SOL     OW13108   3.740  14.468   4.269
70404SOL    HW113109   3.811  14.496   4.327
70404SOL    HW213110   3.675  14.538   4.275
70405SOL     OW13111  13.444   2.548  13.492
70405SOL    HW113112  13.415   2.481  13.554
70405SOL    HW213113  13.387   2.535  13.416
70406SOL     OW13114   3.229   4.046  13.034
70406SOL    HW113115   3.167   4.118  13.039
70406SOL    HW213116   3.182   3.976  12.989
70407SOL     OW13117   3.113   8.657   0.564
70407SOL    HW113118   3.088   8.653   0.472
70407SOL    HW213119   3.093   8.748   0.590
70408SOL     OW13120  10.453   4.882   1.164
70408SOL    HW113121  10.433   4.791   1.141
70408SOL    HW213122  10.543   4.895   1.132
70409SOL     OW13123   5.919   3.959  14.012
70409SOL    HW113124   5.971   3.951  13.932
70409SOL    HW213125   5.969   3.911  14.078
70410SOL     OW13126  13.590  14.511   8.575
70410SOL    HW113127  13.567  14.537   8.664
70410SOL    HW213128  13.511  14.470   8.541
70411SOL     OW13129   2.800   7.555   0.187
70411SOL    HW113130   2.828   7.646   0.194
70411SOL    HW213131   2.844   7.510   0.259
70412SOL     OW13132  12.328   2.245  11.718
70412SOL    HW113133  12.413   2.212  11.745
70412SOL    HW213134  12.310   2.201  11.635
70413SOL     OW13135   2.285   4.575  10.724
70413SOL    HW113136   2.256   4.501  10.777
70413SOL    HW213137   2.243   4.561  10.639
70414SOL     OW13138   9.578   9.837   2.832
70414SOL    HW113139   9.611   9.791   2.909
70414SOL    HW213140   9.501   9.787   2.805
70415SOL     OW13141  12.456   5.982  11.141
70415SOL    HW113142  12.380   5.924  11.144
70415SOL    HW213143  12.420   6.068  11.121
70416SOL     OW13144   8.618  14.203   6.703
70416SOL    HW113145   8.638  14.294   6.680
70416SOL    HW213146   8.693  14.153   6.670
70417SOL     OW13147   6.727   8.826   5.487
70417SOL    HW113148   6.707   8.769   5.413
70417SOL    HW213149   6.748   8.767   5.559
70418SOL     OW13150  10.178  10.561  11.302
70418SOL    HW113151  10.270  10.587  11.302
70418SOL    HW213152  10.135  10.625  11.244
70419SOL     OW13153   3.401   8.547  13.441
70419SOL    HW113154   3.378   8.634  13.409
70419SOL    HW213155   3.448   8.564  13.523
70420SOL     OW13156   7.717   1.978  11.527
70420SOL    HW113157   7.693   1.908  11.467
70420SOL    HW213158   7.638   1.995  11.579
70421SOL     OW13159   4.652   3.364   4.146
70421SOL    HW113160   4.680   3.370   4.055
70421SOL    HW213161   4.581   3.301   4.146
70422SOL     OW13162   9.631  11.026   6.384
70422SOL    HW113163   9.621  10.966   6.311
70422SOL    HW213164   9.558  11.004   6.443
70423SOL     OW13165  10.454   0.518   2.947
70423SOL    HW113166  10.429   0.498   2.857
70423SOL    HW213167  10.485   0.609   2.944
70424SOL     OW13168   7.916  11.076   8.460
70424SOL    HW113169   7.850  11.007   8.453
70424SOL    HW213170   7.972  11.063   8.383
70425SOL     OW13171  12.370   8.937   8.873
70425SOL    HW113172  12.369   9.033   8.877
70425SOL    HW213173  12.426   8.910   8.945
70426SOL     OW13174   9.253   3.485   1.025
70426SOL    HW113175   9.266   3.424   0.953
70426SOL    HW213176   9.159   3.501   1.027
70427SOL     OW13177  10.560   8.166   6.725
70427SOL    HW113178  10.470   8.166   6.690
70427SOL    HW213179  10.548   8.174   6.819
70428SOL     OW13180   1.881  14.622   5.981
70428SOL    HW113181   1.852  14.691   6.041
70428SOL    HW213182   1.801  14.596   5.934
70429SOL     OW13183   7.499   9.390   6.486
70429SOL    HW113184   7.433   9.459   6.496
70429SOL    HW213185   7.480   9.351   6.401
70430SOL     OW13186   4.036   0.782   9.690
70430SOL    HW113187   4.117   0.733   9.699
70430SOL    HW213188   4.049   0.835   9.612
70431SOL     OW13189   8.470   0.122   7.454
70431SOL    HW113190   8.419   0.156   7.527
70431SOL    HW213191   8.454   0.185   7.383
70432SOL     OW13192  13.025  11.512  12.278
70432SOL    HW113193  12.935  11.484  12.262
70432SOL    HW213194  13.059  11.449  12.342
70433SOL     OW13195   8.869  13.091  14.538
70433SOL    HW113196   8.828  13.108  14.622
70433SOL    HW213197   8.957  13.059  14.561
70434SOL     OW13198   3.496   5.357   4.327
70434SOL    HW113199   3.555   5.288   4.358
70434SOL    HW213200   3.442   5.315   4.261
70435SOL     OW13201   3.888   7.757   9.299
70435SOL    HW113202   3.796   7.752   9.272
70435SOL    HW213203   3.923   7.832   9.252
70436SOL     OW13204  11.654  12.463   8.181
70436SOL    HW113205  11.585  12.516   8.220
70436SOL    HW213206  11.659  12.492   8.090
70437SOL     OW13207   6.589  14.173  13.210
70437SOL    HW113208   6.605  14.263  13.240
70437SOL    HW213209   6.665  14.124  13.239
70438SOL     OW13210  11.499  13.674   3.568
70438SOL    HW113211  11.555  13.717   3.633
70438SOL    HW213212  11.440  13.743   3.538
70439SOL     OW13213  10.929   2.368   9.570
70439SOL    HW113214  11.007   2.403   9.527
70439SOL    HW213215  10.958   2.348   9.659
70440SOL     OW13216   1.754   8.494  13.428
70440SOL    HW113217   1.807   8.420  13.460
70440SOL    HW213218   1.751   8.481  13.333
70441SOL     OW13219   6.931  14.215   4.905
70441SOL    HW113220   6.891  14.263   4.977
70441SOL    HW213221   6.934  14.124   4.936
70442SOL     OW13222  11.857  14.143   9.716
70442SOL    HW113223  11.893  14.194   9.644
70442SOL    HW213224  11.884  14.053   9.698
70443SOL     OW13225   4.744   8.892   9.263
70443SOL    HW113226   4.823   8.944   9.278
70443SOL    HW213227   4.723   8.855   9.349
70444SOL     OW13228  14.622   2.945   4.771
70444SOL    HW113229  14.580   2.953   4.856
70444SOL    HW213230  14.714   2.927   4.791
70445SOL     OW13231   3.646   1.410   0.513
70445SOL    HW113232   3.644   1.390   0.607
70445SOL    HW213233   3.669   1.327   0.472
70446SOL     OW13234   2.020   7.943   4.409
70446SOL    HW113235   1.976   8.008   4.353
70446SOL    HW213236   1.970   7.863   4.394
70447SOL     OW13237   5.062   4.558  12.462
70447SOL    HW113238   4.980   4.607  12.475
70447SOL    HW213239   5.041   4.493  12.395
70448SOL     OW13240   4.203   2.552   6.323
70448SOL    HW113241   4.229   2.642   6.340
70448SOL    HW213242   4.217   2.541   6.229
70449SOL     OW13243  10.790   1.848   6.670
70449SOL    HW113244  10.743   1.842   6.753
70449SOL    HW213245  10.729   1.809   6.606
70450SOL     OW13246   5.475  12.642   3.148
70450SOL    HW113247   5.416  12.582   3.193
70450SOL    HW213248   5.531  12.586   3.095
70451SOL     OW13249   0.752   0.582   2.299
70451SOL    HW113250   0.818   0.628   2.352
70451SOL    HW213251   0.753   0.492   2.332
70452SOL     OW13252   4.951   1.085   8.002
70452SOL    HW113253   4.919   1.168   7.966
70452SOL    HW213254   4.872   1.034   8.020
70453SOL     OW13255  10.803   9.296   7.553
70453SOL    HW113256  10.815   9.241   7.631
70453SOL    HW213257  10.740   9.248   7.500
70454SOL     OW13258  10.987   5.820   8.175
70454SOL    HW113259  10.923   5.884   8.206
70454SOL    HW213260  11.043   5.803   8.251
70455SOL     OW13261  12.348   1.909  10.908
70455SOL    HW113262  12.312   1.835  10.858
70455SOL    HW213263  12.323   1.986  10.858
70456SOL     OW13264  14.800   6.103   2.928
70456SOL    HW113265  14.848   6.023   2.947
70456SOL    HW213266  14.847   6.143   2.855
70457SOL     OW13267  10.238  14.512   9.221
70457SOL    HW113268  10.203  14.442   9.166
70457SOL    HW213269  10.163  14.568   9.239
70458SOL     OW13270  14.442   3.598  14.133
70458SOL    HW113271  14.495   3.636  14.063
70458SOL    HW213272  14.411   3.514  14.098
70459SOL     OW13273   3.121   7.078   8.346
70459SOL    HW113274   3.184   7.037   8.405
70459SOL    HW213275   3.053   7.112   8.405
70460SOL     OW13276   8.530  11.666   5.189
70460SOL    HW113277   8.595  11.689   5.123
70460SOL    HW213278   8.579  11.613   5.253
70461SOL     OW13279   1.385   3.533   5.371
70461SOL    HW113280   1.380   3.621   5.335
70461SOL    HW213281   1.296   3.513   5.399
70462SOL     OW13282  12.171   5.739  10.568
70462SOL    HW113283  12.130   5.657  10.595
70462SOL    HW213284  12.109   5.777  10.506
70463SOL     OW13285   0.997  12.755   4.245
70463SOL    HW113286   0.912  12.729   4.282
70463SOL    HW213287   0.976  12.826   4.185
70464SOL     OW13288   8.874   9.728   2.783
70464SOL    HW113289   8.926   9.809   2.781
70464SOL    HW213290   8.788   9.754   2.752
70465SOL     OW13291  14.332  13.988   8.789
70465SOL    HW113292  14.305  14.020   8.703
70465SOL    HW213293  14.403  13.926   8.769
70466SOL     OW13294   9.466  11.919  11.066
70466SOL    HW113295   9.423  11.990  11.019
70466SOL    HW213296   9.468  11.846  11.004
70467SOL     OW13297  11.998  11.613   3.394
70467SOL    HW113298  12.071  11.555   3.418
70467SOL    HW213299  11.955  11.568   3.321
70468SOL     OW13300  12.662  13.491   3.017
70468SOL    HW113301  12.731  13.498   2.951
70468SOL    HW213302  12.689  13.551   3.086
70469SOL     OW13303  12.963   9.392  10.031
70469SOL    HW113304  13.008   9.317  10.070
70469SOL    HW213305  13.028   9.431   9.972
70470SOL     OW13306  11.241   6.704   8.493
70470SOL    HW113307  11.317   6.745   8.452
70470SOL    HW213308  11.230   6.750   8.576
70471SOL     OW13309   4.301   7.374   6.593
70471SOL    HW113310   4.316   7.465   6.618
70471SOL    HW213311   4.211   7.355   6.620
70472SOL     OW13312   6.328   1.206  14.736
70472SOL    HW113313   6.326   1.155  14.817
70472SOL    HW213314   6.404   1.263  14.747
70473SOL     OW13315   2.189  13.551   4.264
70473SOL    HW113316   2.164  13.558   4.356
70473SOL    HW213317   2.250  13.478   4.261
70474SOL     OW13318   5.949  10.431   1.021
70474SOL    HW113319   6.015  10.500   1.030
70474SOL    HW213320   5.888  10.464   0.956
70475SOL     OW13321  11.744   1.275   3.480
70475SOL    HW113322  11.719   1.303   3.392
70475SOL    HW213323  11.830   1.315   3.495
70476SOL     OW13324  11.857   4.931   9.431
70476SOL    HW113325  11.933   4.972   9.388
70476SOL    HW213326  11.820   4.874   9.364
70477SOL     OW13327   3.308  12.894   4.457
70477SOL    HW113328   3.232  12.945   4.484
70477SOL    HW213329   3.383  12.947   4.483
70478SOL     OW13330   8.941   1.226   0.015
70478SOL    HW113331   8.996   1.147   0.010
70478SOL    HW213332   8.873   1.211  14.822
70479SOL     OW13333   2.307   2.856   1.770
70479SOL    HW113334   2.352   2.772   1.769
70479SOL    HW213335   2.282   2.869   1.861
70480SOL     OW13336   9.864   9.112   3.327
70480SOL    HW113337   9.813   9.049   3.277
70480SOL    HW213338   9.897   9.174   3.262
70481SOL     OW13339   4.027  10.467   9.278
70481SOL    HW113340   4.076  10.548   9.264
70481SOL    HW213341   3.964  10.488   9.347
70482SOL     OW13342   3.861  11.995   3.530
70482SOL    HW113343   3.890  12.082   3.558
70482SOL    HW213344   3.781  11.979   3.581
70483SOL     OW13345   9.650   7.299  14.705
70483SOL    HW113346   9.714   7.347  14.758
70483SOL    HW213347   9.674   7.318  14.614
70484SOL     OW13348   1.476   4.967  14.618
70484SOL    HW113349   1.414   4.900  14.587
70484SOL    HW213350   1.513   4.930  14.698
70485SOL     OW13351  12.648   2.022   0.093
70485SOL    HW113352  12.591   2.095   0.067
70485SOL    HW213353  12.729   2.064   0.124
70486SOL     OW13354  10.447   1.586   0.230
70486SOL    HW113355  10.471   1.540   0.310
70486SOL    HW213356  10.353   1.570   0.220
70487SOL     OW13357  14.596  11.873  10.812
70487SOL    HW113358  14.653  11.927  10.868
70487SOL    HW213359  14.582  11.927  10.734
70488SOL     OW13360  14.053  13.384   6.787
70488SOL    HW113361  14.005  13.314   6.832
70488SOL    HW213362  13.997  13.408   6.714
70489SOL     OW13363   5.646  12.599  12.472
70489SOL    HW113364   5.617  12.580  12.383
70489SOL    HW213365   5.730  12.644  12.461
70490SOL     OW13366   9.790   3.179   5.562
70490SOL    HW113367   9.831   3.235   5.629
70490SOL    HW213368   9.860   3.120   5.535
70491SOL     OW13369   1.100   7.912   0.919
70491SOL    HW113370   1.056   7.981   0.969
70491SOL    HW213371   1.111   7.949   0.832
70492SOL     OW13372  13.591   7.419   3.626
70492SOL    HW113373  13.557   7.419   3.537
70492SOL    HW213374  13.516   7.399   3.681
70493SOL     OW13375   5.110   6.972   3.308
70493SOL    HW113376   5.128   7.014   3.224
70493SOL    HW213377   5.035   7.019   3.343
70494SOL     OW13378  11.479   5.477   4.704
70494SOL    HW113379  11.518   5.390   4.707
70494SOL    HW213380  11.553   5.537   4.715
70495SOL     OW13381  14.720   3.741  11.600
70495SOL    HW113382  14.793   3.684  11.574
70495SOL    HW213383  14.653   3.727  11.533
70496SOL     OW13384  14.645   4.280   6.224
70496SOL    HW113385  14.575   4.216   6.216
70496SOL    HW213386  14.603   4.357   6.264
70497SOL     OW13387   4.581   5.476   6.605
70497SOL    HW113388   4.647   5.417   6.643
70497SOL    HW213389   4.502   5.461   6.657
70498SOL     OW13390   5.665   6.010   6.000
70498SOL    HW113391   5.582   6.020   5.952
70498SOL    HW213392   5.707   5.935   5.959
70499SOL     OW13393   1.649   1.167  13.376
70499SOL    HW113394   1.679   1.258  13.373
70499SOL    HW213395   1.651   1.139  13.284
70500SOL     OW13396  13.328   9.470   3.624
70500SOL    HW113397  13.385   9.425   3.562
70500SOL    HW213398  13.365   9.449   3.710
70501SOL     OW13399   0.061   5.417  13.237
70501SOL    HW113400   0.035   5.477  13.307
70501SOL    HW213401   0.104   5.344  13.282
70502SOL     OW13402   8.197   4.106  13.125
70502SOL    HW113403   8.203   4.146  13.212
70502SOL    HW213404   8.207   4.012  13.142
70503SOL     OW13405   9.080   5.631  12.749
70503SOL    HW113406   9.105   5.724  12.744
70503SOL    HW213407   8.988   5.633  12.776
70504SOL     OW13408   6.749  12.046   1.708
70504SOL    HW113409   6.714  12.132   1.730
70504SOL    HW213410   6.843  12.060   1.695
70505SOL     OW13411  10.654   6.231   8.988
70505SOL    HW113412  10.645   6.147   9.035
70505SOL    HW213413  10.718   6.280   9.040
70506SOL     OW13414   0.585   0.023   1.914
70506SOL    HW113415   0.675   0.034   1.943
70506SOL    HW213416   0.543   0.107   1.933
70507SOL     OW13417   9.538   7.022  12.771
70507SOL    HW113418   9.496   7.103  12.743
70507SOL    HW213419   9.618   7.050  12.816
70508SOL     OW13420   2.668   1.768   2.933
70508SOL    HW113421   2.684   1.707   2.861
70508SOL    HW213422   2.715   1.847   2.909
70509SOL     OW13423   9.242   0.761  11.982
70509SOL    HW113424   9.167   0.702  11.975
70509SOL    HW213425   9.239   0.813  11.902
70510SOL     OW13426   5.469   9.414   7.103
70510SOL    HW113427   5.514   9.376   7.028
70510SOL    HW213428   5.419   9.342   7.141
70511SOL     OW13429   6.585   3.960  10.925
70511SOL    HW113430   6.642   3.991  10.994
70511SOL    HW213431   6.606   3.867  10.916
70512SOL     OW13432  14.271   5.913  12.347
70512SOL    HW113433  14.255   5.998  12.389
70512SOL    HW213434  14.359   5.889  12.375
70513SOL     OW13435  10.321   7.250   7.288
70513SOL    HW113436  10.390   7.301   7.247
70513SOL    HW213437  10.367   7.195   7.352
70514SOL     OW13438  11.080   4.072   1.167
70514SOL    HW113439  11.054   3.982   1.186
70514SOL    HW213440  11.102   4.110   1.252
70515SOL     OW13441   4.545   0.958  12.909
70515SOL    HW113442   4.513   1.033  12.858
70515SOL    HW213443   4.621   0.927  12.861
70516SOL     OW13444  11.306   9.494   5.143
70516SOL    HW113445  11.298   9.577   5.098
70516SOL    HW213446  11.276   9.429   5.080
70517SOL     OW13447   2.031  13.542  12.955
70517SOL    HW113448   1.945  13.585  12.953
70517SOL    HW213449   2.034  13.498  13.040
70518SOL     OW13450   9.476   3.995   4.435
70518SOL    HW113451   9.446   3.981   4.525
70518SOL    HW213452   9.465   3.910   4.393
70519SOL     OW13453  14.815  11.728   8.051
70519SOL    HW113454  14.772  11.650   8.017
70519SOL    HW213455  14.766  11.801   8.015
70520SOL     OW13456  13.051   4.453   1.949
70520SOL    HW113457  13.077   4.507   1.874
70520SOL    HW213458  13.134   4.431   1.991
70521SOL     OW13459   0.422  10.788   1.358
70521SOL    HW113460   0.398  10.745   1.276
70521SOL    HW213461   0.397  10.725   1.426
70522SOL     OW13462   5.914   3.787   7.714
70522SOL    HW113463   5.842   3.849   7.705
70522SOL    HW213464   5.876   3.714   7.764
70523SOL     OW13465   0.939   1.444  10.230
70523SOL    HW113466   0.884   1.500  10.175
70523SOL    HW213467   0.920   1.355  10.200
70524SOL     OW13468   5.014  11.641  10.392
70524SOL    HW113469   5.055  11.570  10.342
70524SOL    HW213470   5.088  11.697  10.418
70525SOL     OW13471  14.378   7.821   0.370
70525SOL    HW113472  14.294   7.810   0.324
70525SOL    HW213473  14.394   7.915   0.368
70526SOL     OW13474  14.850  10.749  14.201
70526SOL    HW113475  14.772  10.693  14.211
70526SOL    HW213476  14.837  10.795  14.118
70527SOL     OW13477   8.698   2.560   9.923
70527SOL    HW113478   8.630   2.563   9.856
70527SOL    HW213479   8.654   2.584  10.004
70528SOL     OW13480   7.513  12.733   7.367
70528SOL    HW113481   7.496  12.651   7.414
70528SOL    HW213482   7.462  12.726   7.287
70529SOL     OW13483   5.450   8.751   2.569
70529SOL    HW113484   5.471   8.724   2.480
70529SOL    HW213485   5.527   8.798   2.599
70530SOL     OW13486   5.244   6.842  12.729
70530SOL    HW113487   5.225   6.771  12.791
70530SOL    HW213488   5.313   6.808  12.673
70531SOL     OW13489  12.612   2.483   9.853
70531SOL    HW113490  12.654   2.507   9.770
70531SOL    HW213491  12.553   2.556   9.871
70532SOL     OW13492   4.113  11.863   5.322
70532SOL    HW113493   4.127  11.939   5.378
70532SOL    HW213494   4.199  11.841   5.287
70533SOL     OW13495  10.457   0.030   3.013
70533SOL    HW113496  10.382   0.020   2.955
70533SOL    HW213497  10.508  14.821   3.000
70534SOL     OW13498   7.778  14.820   8.544
70534SOL    HW113499   7.839  14.856   8.480
70534SOL    HW213500   7.765  14.730   8.517
70535SOL     OW13501   3.069  12.432   7.367
70535SOL    HW113502   3.053  12.434   7.272
70535SOL    HW213503   3.137  12.498   7.381
70536SOL     OW13504   3.643  13.800   8.236
70536SOL    HW113505   3.569  13.784   8.295
70536SOL    HW213506   3.628  13.888   8.201
70537SOL     OW13507   9.959   7.438   5.995
70537SOL    HW113508   9.921   7.486   6.068
70537SOL    HW213509  10.009   7.367   6.037
70538SOL     OW13510  12.377  12.087   1.574
70538SOL    HW113511  12.329  12.005   1.561
70538SOL    HW213512  12.456  12.061   1.621
70539SOL     OW13513  12.054   2.295   4.112
70539SOL    HW113514  12.025   2.383   4.138
70539SOL    HW213515  12.045   2.243   4.191
70540SOL     OW13516   0.918  10.855   3.142
70540SOL    HW113517   1.006  10.874   3.109
70540SOL    HW213518   0.866  10.932   3.119
70541SOL     OW13519  14.658   4.048   0.738
70541SOL    HW113520  14.615   4.121   0.781
70541SOL    HW213521  14.587   3.988   0.714
70542SOL     OW13522  11.735   0.794  13.689
70542SOL    HW113523  11.775   0.742  13.758
70542SOL    HW213524  11.783   0.770  13.610
70543SOL     OW13525   3.426  11.836   8.320
70543SOL    HW113526   3.357  11.902   8.313
70543SOL    HW213527   3.456  11.843   8.411
70544SOL     OW13528   0.854   7.569  12.062
70544SOL    HW113529   0.777   7.536  12.110
70544SOL    HW213530   0.817   7.620  11.990
70545SOL     OW13531   6.020   5.772   8.306
70545SOL    HW113532   6.032   5.730   8.221
70545SOL    HW213533   6.003   5.864   8.285
70546SOL     OW13534   8.417   5.762   8.470
70546SOL    HW113535   8.448   5.738   8.557
70546SOL    HW213536   8.482   5.724   8.411
70547SOL     OW13537   3.288  14.312   9.292
70547SOL    HW113538   3.250  14.229   9.262
70547SOL    HW213539   3.212  14.364   9.319
70548SOL     OW13540   9.222   8.581   1.107
70548SOL    HW113541   9.257   8.642   1.042
70548SOL    HW213542   9.259   8.610   1.190
70549SOL     OW13543   4.516   0.217   2.314
70549SOL    HW113544   4.451   0.265   2.262
70549SOL    HW213545   4.598   0.264   2.300
70550SOL     OW13546   4.327   5.646   2.103
70550SOL    HW113547   4.385   5.645   2.027
70550SOL    HW213548   4.340   5.732   2.142
70551SOL     OW13549   9.912  14.234   6.464
70551SOL    HW113550   9.946  14.206   6.379
70551SOL    HW213551   9.835  14.287   6.443
70552SOL     OW13552   3.602   9.659   5.691
70552SOL    HW113553   3.645   9.657   5.776
70552SOL    HW213554   3.670   9.636   5.629
70553SOL     OW13555   9.946   0.058   4.249
70553SOL    HW113556   9.961   0.089   4.160
70553SOL    HW213557   9.923  14.837   4.239
70554SOL     OW13558   3.136   4.851   7.279
70554SOL    HW113559   3.144   4.786   7.209
70554SOL    HW213560   3.178   4.930   7.244
70555SOL     OW13561  10.918  13.216  12.466
70555SOL    HW113562  10.964  13.195  12.548
70555SOL    HW213563  10.983  13.200  12.398
70556SOL     OW13564   8.880   7.288   6.476
70556SOL    HW113565   8.850   7.359   6.418
70556SOL    HW213566   8.852   7.208   6.433
70557SOL     OW13567   5.273   4.979  13.558
70557SOL    HW113568   5.219   5.044  13.603
70557SOL    HW213569   5.312   5.027  13.485
70558SOL     OW13570   7.727  14.458   1.064
70558SOL    HW113571   7.711  14.488   1.154
70558SOL    HW213572   7.746  14.365   1.073
70559SOL     OW13573  14.336   4.928  13.165
70559SOL    HW113574  14.296   5.014  13.180
70559SOL    HW213575  14.275   4.884  13.105
70560SOL     OW13576  12.326   0.827   9.669
70560SOL    HW113577  12.360   0.908   9.708
70560SOL    HW213578  12.385   0.810   9.595
70561SOL     OW13579   8.022   5.594  11.669
70561SOL    HW113580   8.055   5.514  11.709
70561SOL    HW213581   7.927   5.590  11.682
70562SOL     OW13582  14.485   2.448   7.607
70562SOL    HW113583  14.502   2.540   7.623
70562SOL    HW213584  14.467   2.412   7.694
70563SOL     OW13585   7.652  12.613  14.018
70563SOL    HW113586   7.747  12.619  14.024
70563SOL    HW213587   7.620  12.668  14.091
70564SOL     OW13588   4.228   8.837  11.177
70564SOL    HW113589   4.226   8.855  11.271
70564SOL    HW213590   4.144   8.870  11.145
70565SOL     OW13591   6.523   2.783   7.947
70565SOL    HW113592   6.520   2.873   7.979
70565SOL    HW213593   6.435   2.749   7.961
70566SOL     OW13594   8.001   1.390  14.720
70566SOL    HW113595   8.086   1.432  14.720
70566SOL    HW213596   8.019   1.299  14.745
70567SOL     OW13597  10.781   4.754   4.417
70567SOL    HW113598  10.768   4.826   4.355
70567SOL    HW213599  10.694   4.713   4.423
70568SOL     OW13600  11.782   5.369   0.789
70568SOL    HW113601  11.688   5.367   0.771
70568SOL    HW213602  11.818   5.429   0.723
70569SOL     OW13603   6.745  10.905   7.564
70569SOL    HW113604   6.683  10.946   7.625
70569SOL    HW213605   6.708  10.922   7.478
70570SOL     OW13606   1.792   0.690   2.097
70570SOL    HW113607   1.701   0.663   2.084
70570SOL    HW213608   1.796   0.718   2.188
70571SOL     OW13609  13.521   6.797   5.250
70571SOL    HW113610  13.484   6.749   5.176
70571SOL    HW213611  13.577   6.733   5.294
70572SOL     OW13612   3.531   4.118  11.795
70572SOL    HW113613   3.473   4.058  11.747
70572SOL    HW213614   3.595   4.146  11.730
70573SOL     OW13615   6.023  14.774   1.750
70573SOL    HW113616   6.085  14.791   1.679
70573SOL    HW213617   6.068  14.806   1.829
70574SOL     OW13618  13.520   4.382   8.973
70574SOL    HW113619  13.451   4.385   8.907
70574SOL    HW213620  13.502   4.456   9.030
70575SOL     OW13621  12.365  10.725  11.200
70575SOL    HW113622  12.379  10.661  11.131
70575SOL    HW213623  12.405  10.686  11.278
70576SOL     OW13624  10.637   4.379   0.808
70576SOL    HW113625  10.664   4.291   0.780
70576SOL    HW213626  10.719   4.426   0.824
70577SOL     OW13627   8.375  10.946  10.915
70577SOL    HW113628   8.321  10.882  10.962
70577SOL    HW213629   8.337  11.031  10.937
70578SOL     OW13630   8.519  14.124   3.260
70578SOL    HW113631   8.502  14.214   3.233
70578SOL    HW213632   8.459  14.109   3.333
70579SOL     OW13633   3.953   7.785  14.650
70579SOL    HW113634   3.937   7.700  14.611
70579SOL    HW213635   3.966   7.844  14.575
70580SOL     OW13636   2.587   1.687   8.648
70580SOL    HW113637   2.638   1.710   8.726
70580SOL    HW213638   2.496   1.703   8.673
70581SOL     OW13639   8.552   1.570  12.379
70581SOL    HW113640   8.492   1.630  12.335
70581SOL    HW213641   8.525   1.571  12.470
70582SOL     OW13642  14.575   0.382  14.044
70582SOL    HW113643  14.639   0.410  13.979
70582SOL    HW213644  14.491   0.389  13.998
70583SOL     OW13645   3.905  14.213   1.036
70583SOL    HW113646   3.819  14.240   1.068
70583SOL    HW213647   3.902  14.227   0.942
70584SOL     OW13648   0.867   0.251  12.818
70584SOL    HW113649   0.833   0.305  12.889
70584SOL    HW213650   0.923   0.187  12.862
70585SOL     OW13651   1.114  12.253   7.380
70585SOL    HW113652   1.189  12.194   7.389
70585SOL    HW213653   1.152  12.334   7.345
70586SOL     OW13654  10.012   1.314   4.724
70586SOL    HW113655   9.934   1.368   4.738
70586SOL    HW213656  10.034   1.327   4.632
70587SOL     OW13657   0.505   1.276   2.088
70587SOL    HW113658   0.535   1.292   2.177
70587SOL    HW213659   0.521   1.183   2.074
70588SOL     OW13660   5.495   8.598   6.302
70588SOL    HW113661   5.545   8.651   6.364
70588SOL    HW213662   5.554   8.526   6.279
70589SOL     OW13663   2.801   5.898   4.109
70589SOL    HW113664   2.742   5.927   4.039
70589SOL    HW213665   2.746   5.895   4.187
70590SOL     OW13666   2.972   4.088  13.564
70590SOL    HW113667   3.016   4.172  13.550
70590SOL    HW213668   2.986   4.070  13.657
70591SOL     OW13669   7.965   5.045   3.015
70591SOL    HW113670   7.911   4.978   2.974
70591SOL    HW213671   7.936   5.128   2.976
70592SOL     OW13672   8.210   6.038   8.047
70592SOL    HW113673   8.160   6.025   8.127
70592SOL    HW213674   8.283   6.095   8.074
70593SOL     OW13675   2.738   5.392   0.422
70593SOL    HW113676   2.765   5.405   0.331
70593SOL    HW213677   2.745   5.297   0.436
70594SOL     OW13678   2.359   6.162  12.161
70594SOL    HW113679   2.372   6.138  12.253
70594SOL    HW213680   2.274   6.125  12.139
70595SOL     OW13681  10.807  10.349   1.716
70595SOL    HW113682  10.810  10.388   1.628
70595SOL    HW213683  10.756  10.410   1.768
70596SOL     OW13684  13.528  12.250   1.212
70596SOL    HW113685  13.460  12.262   1.146
70596SOL    HW213686  13.480  12.245   1.295
70597SOL     OW13687   8.036  11.860  11.709
70597SOL    HW113688   7.983  11.831  11.783
70597SOL    HW213689   7.973  11.897  11.647
70598SOL     OW13690   7.370   8.227   0.457
70598SOL    HW113691   7.302   8.180   0.409
70598SOL    HW213692   7.397   8.297   0.397
70599SOL     OW13693   1.065   2.203  12.023
70599SOL    HW113694   1.147   2.156  12.010
70599SOL    HW213695   1.017   2.153  12.089
70600SOL     OW13696   0.437   5.687   0.365
70600SOL    HW113697   0.427   5.657   0.456
70600SOL    HW213698   0.360   5.741   0.349
70601SOL     OW13699  14.551   3.141   1.869
70601SOL    HW113700  14.628   3.197   1.876
70601SOL    HW213701  14.578   3.070   1.812
70602SOL     OW13702  11.069  12.086  11.610
70602SOL    HW113703  11.130  12.088  11.684
70602SOL    HW213704  11.124  12.102  11.533
70603SOL     OW13705   7.108   0.304  10.510
70603SOL    HW113706   7.086   0.268  10.424
70603SOL    HW213707   7.041   0.268  10.569
70604SOL     OW13708   5.879  12.338   6.701
70604SOL    HW113709   5.864  12.403   6.770
70604SOL    HW213710   5.796  12.335   6.653
70605SOL     OW13711   0.325   6.351   9.889
70605SOL    HW113712   0.385   6.363   9.815
70605SOL    HW213713   0.245   6.395   9.862
70606SOL     OW13714   5.825   0.140  10.392
70606SOL    HW113715   5.801   0.084  10.318
70606SOL    HW213716   5.909   0.105  10.422
70607SOL     OW13717   3.800   9.983   5.721
70607SOL    HW113718   3.854  10.025   5.788
70607SOL    HW213719   3.842   9.899   5.706
70608SOL     OW13720   8.483   9.522  11.439
70608SOL    HW113721   8.555   9.521  11.502
70608SOL    HW213722   8.436   9.603  11.457
70609SOL     OW13723   3.256  11.574   5.110
70609SOL    HW113724   3.205  11.595   5.189
70609SOL    HW213725   3.281  11.659   5.074
70610SOL     OW13726  11.545   9.504   4.842
70610SOL    HW113727  11.466   9.557   4.854
70610SOL    HW213728  11.516   9.414   4.858
70611SOL     OW13729   7.093   1.499  14.563
70611SOL    HW113730   7.187   1.483  14.561
70611SOL    HW213731   7.085   1.589  14.596
70612SOL     OW13732   1.541   8.882  10.295
70612SOL    HW113733   1.506   8.822  10.228
70612SOL    HW213734   1.635   8.867  10.294
70613SOL     OW13735  14.608   1.514   1.301
70613SOL    HW113736  14.632   1.551   1.386
70613SOL    HW213737  14.539   1.451   1.321
70614SOL     OW13738  14.680  10.043  11.711
70614SOL    HW113739  14.674  10.138  11.712
70614SOL    HW213740  14.741  10.024  11.639
70615SOL     OW13741   6.245  10.961   7.405
70615SOL    HW113742   6.155  10.943   7.431
70615SOL    HW213743   6.298  10.930   7.478
70616SOL     OW13744   2.781   7.089   9.065
70616SOL    HW113745   2.754   7.001   9.037
70616SOL    HW213746   2.858   7.074   9.119
70617SOL     OW13747  12.981   6.057   6.936
70617SOL    HW113748  12.955   6.059   6.844
70617SOL    HW213749  13.013   6.145   6.954
70618SOL     OW13750  14.365  12.442   4.319
70618SOL    HW113751  14.289  12.399   4.359
70618SOL    HW213752  14.363  12.414   4.228
70619SOL     OW13753   6.239  11.420   3.574
70619SOL    HW113754   6.297  11.417   3.498
70619SOL    HW213755   6.232  11.512   3.596
70620SOL     OW13756   9.773  11.759   9.514
70620SOL    HW113757   9.741  11.697   9.449
70620SOL    HW213758   9.864  11.775   9.489
70621SOL     OW13759   5.551   1.564  14.649
70621SOL    HW113760   5.486   1.630  14.671
70621SOL    HW213761   5.592   1.596  14.569
70622SOL     OW13762   6.932   0.589   2.561
70622SOL    HW113763   6.967   0.501   2.577
70622SOL    HW213764   6.838   0.576   2.554
70623SOL     OW13765   5.178   7.801   4.634
70623SOL    HW113766   5.244   7.792   4.566
70623SOL    HW213767   5.190   7.724   4.690
70624SOL     OW13768   0.612   7.450  14.206
70624SOL    HW113769   0.592   7.390  14.278
70624SOL    HW213770   0.705   7.438  14.189
70625SOL     OW13771   6.513  10.665  12.344
70625SOL    HW113772   6.598  10.705  12.357
70625SOL    HW213773   6.451  10.738  12.342
70626SOL     OW13774   3.038   1.400   3.715
70626SOL    HW113775   2.993   1.356   3.643
70626SOL    HW213776   3.060   1.486   3.680
70627SOL     OW13777   8.865  11.185   1.399
70627SOL    HW113778   8.806  11.257   1.374
70627SOL    HW213779   8.917  11.169   1.320
70628SOL     OW13780  11.823  11.772   9.149
70628SOL    HW113781  11.866  11.818   9.221
70628SOL    HW213782  11.840  11.679   9.166
70629SOL     OW13783   9.332   6.688  13.423
70629SOL    HW113784   9.410   6.653  13.379
70629SOL    HW213785   9.366   6.759  13.478
70630SOL     OW13786   9.477   5.827   5.467
70630SOL    HW113787   9.491   5.761   5.400
70630SOL    HW213788   9.446   5.904   5.420
70631SOL     OW13789  10.438   8.133   3.823
70631SOL    HW113790  10.493   8.056   3.810
70631SOL    HW213791  10.376   8.131   3.751
70632SOL     OW13792   8.032  12.630   3.060
70632SOL    HW113793   8.020  12.725   3.055
70632SOL    HW213794   8.090  12.609   2.987
70633SOL     OW13795   3.208   2.891   3.413
70633SOL    HW113796   3.280   2.894   3.476
70633SOL    HW213797   3.143   2.951   3.447
70634SOL     OW13798   7.915   3.599   3.885
70634SOL    HW113799   7.881   3.688   3.886
70634SOL    HW213800   7.963   3.593   3.802
70635SOL     OW13801   0.206   7.237   7.870
70635SOL    HW113802   0.114   7.232   7.841
70635SOL    HW213803   0.204   7.293   7.947
70636SOL     OW13804  11.057  13.029  10.627
70636SOL    HW113805  11.090  13.102  10.574
70636SOL    HW213806  11.008  13.071  10.698
70637SOL     OW13807   2.387   9.413  13.117
70637SOL    HW113808   2.396   9.330  13.165
70637SOL    HW213809   2.432   9.398  13.034
70638SOL     OW13810  10.899   2.174   8.338
70638SOL    HW113811  10.930   2.239   8.275
70638SOL    HW213812  10.880   2.225   8.417
70639SOL     OW13813   7.393  10.481  13.434
70639SOL    HW113814   7.391  10.548  13.366
70639SOL    HW213815   7.470  10.428  13.414
70640SOL     OW13816  12.997  14.657   1.507
70640SOL    HW113817  13.070  14.635   1.564
70640SOL    HW213818  13.023  14.739   1.464
70641SOL     OW13819   2.566   8.306   2.219
70641SOL    HW113820   2.534   8.217   2.233
70641SOL    HW213821   2.492   8.351   2.176
70642SOL     OW13822  13.074   6.534   0.649
70642SOL    HW113823  13.075   6.493   0.562
70642SOL    HW213824  12.985   6.520   0.680
70643SOL     OW13825   9.637   7.712   5.121
70643SOL    HW113826   9.698   7.769   5.074
70643SOL    HW213827   9.580   7.676   5.053
70644SOL     OW13828   9.038   7.489  11.466
70644SOL    HW113829   9.089   7.435  11.406
70644SOL    HW213830   9.028   7.435  11.544
70645SOL     OW13831   4.853   9.430  12.706
70645SOL    HW113832   4.760   9.451  12.718
70645SOL    HW213833   4.898   9.512  12.726
70646SOL     OW13834   4.760   8.138  14.369
70646SOL    HW113835   4.828   8.099  14.314
70646SOL    HW213836   4.805   8.210  14.414
70647SOL     OW13837  12.814   4.235  13.974
70647SOL    HW113838  12.822   4.238  13.879
70647SOL    HW213839  12.724   4.206  13.990
70648SOL     OW13840   9.137  10.801   6.729
70648SOL    HW113841   9.203  10.835   6.789
70648SOL    HW213842   9.066  10.770   6.786
70649SOL     OW13843   8.569   0.705   4.568
70649SOL    HW113844   8.517   0.708   4.649
70649SOL    HW213845   8.626   0.629   4.579
70650SOL     OW13846   4.737  12.967   6.189
70650SOL    HW113847   4.664  12.905   6.180
70650SOL    HW213848   4.750  13.001   6.101
70651SOL     OW13849   3.440  11.037   6.741
70651SOL    HW113850   3.475  10.992   6.818
70651SOL    HW213851   3.359  11.078   6.771
70652SOL     OW13852  10.311  14.627   4.919
70652SOL    HW113853  10.399  14.605   4.889
70652SOL    HW213854  10.321  14.712   4.963
70653SOL     OW13855   7.769  10.383   4.008
70653SOL    HW113856   7.826  10.308   3.992
70653SOL    HW213857   7.719  10.360   4.087
70654SOL     OW13858  10.050   4.625   6.235
70654SOL    HW113859  10.141   4.607   6.260
70654SOL    HW213860  10.038   4.717   6.255
70655SOL     OW13861   3.584   7.802   1.624
70655SOL    HW113862   3.591   7.757   1.708
70655SOL    HW213863   3.658   7.864   1.623
70656SOL     OW13864   7.327  10.583   6.317
70656SOL    HW113865   7.375  10.527   6.255
70656SOL    HW213866   7.337  10.538   6.401
70657SOL     OW13867   5.021  12.931   2.218
70657SOL    HW113868   4.989  12.853   2.174
70657SOL    HW213869   5.056  12.986   2.148
70658SOL     OW13870   3.038   9.135   5.826
70658SOL    HW113871   3.122   9.138   5.872
70658SOL    HW213872   3.027   9.222   5.790
70659SOL     OW13873  13.903   3.999  11.919
70659SOL    HW113874  13.842   3.953  11.977
70659SOL    HW213875  13.950   4.060  11.977
70660SOL     OW13876   0.608  14.686  11.076
70660SOL    HW113877   0.531  14.671  11.021
70660SOL    HW213878   0.682  14.680  11.015
70661SOL     OW13879   0.836  11.777   1.196
70661SOL    HW113880   0.914  11.804   1.149
70661SOL    HW213881   0.772  11.758   1.127
70662SOL     OW13882   5.224   8.049   7.443
70662SOL    HW113883   5.227   8.000   7.361
70662SOL    HW213884   5.309   8.034   7.483
70663SOL     OW13885   4.130  12.258   4.116
70663SOL    HW113886   4.112  12.322   4.186
70663SOL    HW213887   4.134  12.174   4.162
70664SOL     OW13888   4.066   4.751   5.544
70664SOL    HW113889   4.052   4.818   5.477
70664SOL    HW213890   3.986   4.750   5.596
70665SOL     OW13891   0.751  13.051   5.355
70665SOL    HW113892   0.795  13.133   5.374
70665SOL    HW213893   0.733  13.055   5.261
70666SOL     OW13894   3.937   4.945  12.017
70666SOL    HW113895   3.993   4.868  12.030
70666SOL    HW213896   3.986   5.000  11.956
70667SOL     OW13897   6.670   7.126   0.998
70667SOL    HW113898   6.584   7.113   0.959
70667SOL    HW213899   6.692   7.042   1.039
70668SOL     OW13900  14.524   3.120  11.249
70668SOL    HW113901  14.519   3.031  11.214
70668SOL    HW213902  14.571   3.170  11.182
70669SOL     OW13903   6.377  11.374  13.662
70669SOL    HW113904   6.330  11.291  13.661
70669SOL    HW213905   6.465  11.352  13.692
70670SOL     OW13906  13.727   3.795  11.274
70670SOL    HW113907  13.765   3.863  11.329
70670SOL    HW213908  13.803   3.744  11.245
70671SOL     OW13909   0.237  14.429  13.333
70671SOL    HW113910   0.234  14.516  13.374
70671SOL    HW213911   0.304  14.438  13.265
70672SOL     OW13912  10.690   4.510   7.874
70672SOL    HW113913  10.766   4.458   7.900
70672SOL    HW213914  10.680   4.574   7.944
70673SOL     OW13915   0.594   9.330  13.092
70673SOL    HW113916   0.580   9.356  13.183
70673SOL    HW213917   0.687   9.348  13.077
70674SOL     OW13918   9.169   1.937  11.838
70674SOL    HW113919   9.109   1.963  11.768
70674SOL    HW213920   9.242   1.998  11.831
70675SOL     OW13921  14.249  13.228   1.493
70675SOL    HW113922  14.198  13.247   1.414
70675SOL    HW213923  14.299  13.149   1.471
70676SOL     OW13924  11.372   0.061  14.414
70676SOL    HW113925  11.376   0.124  14.342
70676SOL    HW213926  11.291   0.012  14.400
70677SOL     OW13927  14.439   4.490  11.045
70677SOL    HW113928  14.388   4.526  11.119
70677SOL    HW213929  14.423   4.552  10.974
70678SOL     OW13930   9.122   8.536   3.878
70678SOL    HW113931   9.122   8.591   3.956
70678SOL    HW213932   9.206   8.491   3.881
70679SOL     OW13933   7.150   1.987   9.621
70679SOL    HW113934   7.085   1.928   9.582
70679SOL    HW213935   7.234   1.954   9.591
70680SOL     OW13936  11.665   4.345   5.750
70680SOL    HW113937  11.667   4.415   5.685
70680SOL    HW213938  11.723   4.375   5.820
70681SOL     OW13939   2.632   2.528   2.829
70681SOL    HW113940   2.676   2.528   2.914
70681SOL    HW213941   2.539   2.519   2.850
70682SOL     OW13942   1.644   5.547   0.862
70682SOL    HW113943   1.574   5.508   0.915
70682SOL    HW213944   1.627   5.515   0.773
70683SOL     OW13945   9.382   7.870   3.229
70683SOL    HW113946   9.465   7.905   3.196
70683SOL    HW213947   9.372   7.786   3.184
70684SOL     OW13948   4.164   3.471   0.203
70684SOL    HW113949   4.137   3.520   0.280
70684SOL    HW213950   4.238   3.521   0.168
70685SOL     OW13951   1.248   4.914  13.885
70685SOL    HW113952   1.242   5.006  13.911
70685SOL    HW213953   1.290   4.871  13.959
70686SOL     OW13954   4.380  11.301   2.335
70686SOL    HW113955   4.372  11.395   2.319
70686SOL    HW213956   4.472  11.282   2.319
70687SOL     OW13957  10.535   0.129   3.258
70687SOL    HW113958  10.629   0.123   3.244
70687SOL    HW213959  10.496   0.105   3.173
70688SOL     OW13960  12.552  10.088   4.114
70688SOL    HW113961  12.486  10.041   4.064
70688SOL    HW213962  12.572  10.165   4.061
70689SOL     OW13963   3.280  14.681   0.672
70689SOL    HW113964   3.283  14.674   0.576
70689SOL    HW213965   3.268  14.591   0.702
70690SOL     OW13966  13.902   7.183   0.459
70690SOL    HW113967  13.879   7.267   0.420
70690SOL    HW213968  13.922   7.203   0.550
70691SOL     OW13969   3.894  12.722   5.341
70691SOL    HW113970   3.946  12.799   5.319
70691SOL    HW213971   3.870  12.684   5.256
70692SOL     OW13972   7.489   3.714   9.546
70692SOL    HW113973   7.445   3.732   9.629
70692SOL    HW213974   7.484   3.619   9.535
70693SOL     OW13975   4.612  12.641   6.132
70693SOL    HW113976   4.701  12.631   6.098
70693SOL    HW213977   4.556  12.609   6.061
70694SOL     OW13978   5.575   0.910   8.673
70694SOL    HW113979   5.491   0.930   8.634
70694SOL    HW213980   5.601   0.990   8.719
70695SOL     OW13981   4.043  12.310  12.343
70695SOL    HW113982   4.070  12.277  12.257
70695SOL    HW213983   3.952  12.339  12.330
70696SOL     OW13984   6.399   3.559   2.644
70696SOL    HW113985   6.385   3.481   2.699
70696SOL    HW213986   6.443   3.621   2.702
70697SOL     OW13987   8.144   2.431   2.462
70697SOL    HW113988   8.132   2.336   2.468
70697SOL    HW213989   8.176   2.457   2.548
70698SOL     OW13990   0.718   6.946   9.058
70698SOL    HW113991   0.640   6.895   9.078
70698SOL    HW213992   0.786   6.881   9.038
70699SOL     OW13993   3.649   5.334   6.003
70699SOL    HW113994   3.701   5.297   5.932
70699SOL    HW213995   3.711   5.345   6.076
70700SOL     OW13996   2.680   5.020   6.074
70700SOL    HW113997   2.677   5.116   6.068
70700SOL    HW213998   2.758   5.002   6.126
70701SOL     OW13999   8.025   2.811   6.455
70701SOL    HW114000   8.062   2.767   6.378
70701SOL    HW214001   8.097   2.865   6.488
70702SOL     OW14002   8.592   4.003  10.868
70702SOL    HW114003   8.655   3.934  10.846
70702SOL    HW214004   8.642   4.067  10.918
70703SOL     OW14005  12.811   6.886  10.144
70703SOL    HW114006  12.754   6.881  10.067
70703SOL    HW214007  12.814   6.979  10.166
70704SOL     OW14008  11.233   7.307   5.606
70704SOL    HW114009  11.151   7.260   5.611
70704SOL    HW214010  11.240   7.352   5.690
70705SOL     OW14011  14.644   9.763   0.086
70705SOL    HW114012  14.594   9.812   0.021
70705SOL    HW214013  14.698   9.829   0.129
70706SOL     OW14014   0.621   0.176   6.320
70706SOL    HW114015   0.677   0.242   6.279
70706SOL    HW214016   0.666   0.093   6.304
70707SOL     OW14017   9.402  10.383  12.994
70707SOL    HW114018   9.316  10.406  12.959
70707SOL    HW214019   9.464  10.415  12.928
70708SOL     OW14020   2.261  11.763   1.769
70708SOL    HW114021   2.200  11.813   1.714
70708SOL    HW214022   2.207  11.694   1.808
70709SOL     OW14023   7.181  12.835  10.788
70709SOL    HW114024   7.091  12.844  10.821
70709SOL    HW214025   7.176  12.859  10.696
70710SOL     OW14026   0.753   9.423  11.555
70710SOL    HW114027   0.686   9.367  11.516
70710SOL    HW214028   0.828   9.416  11.495
70711SOL     OW14029  12.331   8.856  12.227
70711SOL    HW114030  12.260   8.794  12.246
70711SOL    HW214031  12.371   8.872  12.313
70712SOL     OW14032   8.047  14.152  13.605
70712SOL    HW114033   7.999  14.186  13.681
70712SOL    HW214034   8.024  14.059  13.602
70713SOL     OW14035   9.977   6.609   5.085
70713SOL    HW114036   9.978   6.696   5.045
70713SOL    HW214037   9.946   6.551   5.015
70714SOL     OW14038   5.720   9.653   9.947
70714SOL    HW114039   5.787   9.599   9.906
70714SOL    HW214040   5.759   9.740   9.954
70715SOL     OW14041   2.872  11.967  13.575
70715SOL    HW114042   2.933  12.039  13.588
70715SOL    HW214043   2.917  11.907  13.515
70716SOL     OW14044   3.999   5.093   1.441
70716SOL    HW114045   3.986   5.004   1.409
70716SOL    HW214046   4.022   5.082   1.534
70717SOL     OW14047   0.943  14.300   4.012
70717SOL    HW114048   0.882  14.333   3.946
70717SOL    HW214049   1.023  14.351   3.998
70718SOL     OW14050   8.102  12.533   0.272
70718SOL    HW114051   8.027  12.477   0.293
70718SOL    HW214052   8.177  12.488   0.310
70719SOL     OW14053   7.637   8.411   4.136
70719SOL    HW114054   7.604   8.491   4.178
70719SOL    HW214055   7.572   8.344   4.157
70720SOL     OW14056   1.361   3.229   7.204
70720SOL    HW114057   1.360   3.134   7.215
70720SOL    HW214058   1.441   3.257   7.249
70721SOL     OW14059   0.840   1.691   8.660
70721SOL    HW114060   0.872   1.623   8.601
70721SOL    HW214061   0.886   1.675   8.742
70722SOL     OW14062  12.957   0.344   8.125
70722SOL    HW114063  13.005   0.410   8.074
70722SOL    HW214064  12.871   0.339   8.083
70723SOL     OW14065   6.522  12.844  14.807
70723SOL    HW114066   6.527  12.938  14.788
70723SOL    HW214067   6.510  12.803  14.722
70724SOL     OW14068  11.125   2.822  14.039
70724SOL    HW114069  11.058   2.803  13.973
70724SOL    HW214070  11.076   2.848  14.117
70725SOL     OW14071   8.419   6.728   3.029
70725SOL    HW114072   8.508   6.758   3.013
70725SOL    HW214073   8.429   6.647   3.079
70726SOL     OW14074  11.808  12.922  13.913
70726SOL    HW114075  11.889  12.936  13.962
70726SOL    HW214076  11.824  12.843  13.862
70727SOL     OW14077  12.844   6.049  10.230
70727SOL    HW114078  12.812   5.984  10.168
70727SOL    HW214079  12.815   6.133  10.195
70728SOL     OW14080   2.353  12.663   9.912
70728SOL    HW114081   2.319  12.752   9.920
70728SOL    HW214082   2.400  12.648   9.994
70729SOL     OW14083  12.079   4.149  10.402
70729SOL    HW114084  12.166   4.178  10.375
70729SOL    HW214085  12.021   4.177  10.331
70730SOL     OW14086  10.929   3.839   0.252
70730SOL    HW114087  10.900   3.872   0.337
70730SOL    HW214088  10.914   3.912   0.192
70731SOL     OW14089   8.975   9.779   4.222
70731SOL    HW114090   8.890   9.795   4.262
70731SOL    HW214091   9.037   9.778   4.296
70732SOL     OW14092   3.236   5.324   3.039
70732SOL    HW114093   3.324   5.314   3.004
70732SOL    HW214094   3.202   5.403   2.997
70733SOL     OW14095   6.438   0.316   9.113
70733SOL    HW114096   6.488   0.352   9.186
70733SOL    HW214097   6.418   0.392   9.058
70734SOL     OW14098   0.803  12.079   8.660
70734SOL    HW114099   0.890  12.096   8.624
70734SOL    HW214100   0.795  12.141   8.732
70735SOL     OW14101  10.616   3.910   4.360
70735SOL    HW114102  10.598   3.860   4.281
70735SOL    HW214103  10.541   3.969   4.369
70736SOL     OW14104   0.747  13.967   4.894
70736SOL    HW114105   0.658  13.970   4.859
70736SOL    HW214106   0.744  14.021   4.973
70737SOL     OW14107   7.140   8.798   7.637
70737SOL    HW114108   7.185   8.717   7.612
70737SOL    HW214109   7.077   8.770   7.704
70738SOL     OW14110  12.104   5.894   5.952
70738SOL    HW114111  12.112   5.903   6.047
70738SOL    HW214112  12.194   5.897   5.920
70739SOL     OW14113   1.999   6.476   6.998
70739SOL    HW114114   2.029   6.566   7.011
70739SOL    HW214115   1.960   6.451   7.081
70740SOL     OW14116  14.688   8.033  13.327
70740SOL    HW114117  14.780   8.052  13.344
70740SOL    HW214118  14.642   8.113  13.352
70741SOL     OW14119  13.443   1.248   6.138
70741SOL    HW114120  13.365   1.275   6.090
70741SOL    HW214121  13.423   1.268   6.230
70742SOL     OW14122  13.278  11.688   4.514
70742SOL    HW114123  13.268  11.594   4.522
70742SOL    HW214124  13.304  11.718   4.601
70743SOL     OW14125   8.572   1.454   4.251
70743SOL    HW114126   8.485   1.425   4.223
70743SOL    HW214127   8.632   1.389   4.215
70744SOL     OW14128   8.782   1.870  10.473
70744SOL    HW114129   8.742   1.837  10.553
70744SOL    HW214130   8.870   1.832  10.473
70745SOL     OW14131   6.150  13.799   5.937
70745SOL    HW114132   6.175  13.891   5.937
70745SOL    HW214133   6.230  13.752   5.914
70746SOL     OW14134  14.802   2.297   1.703
70746SOL    HW114135  14.860   2.256   1.638
70746SOL    HW214136  14.716   2.296   1.662
70747SOL     OW14137   4.478   4.594  11.877
70747SOL    HW114138   4.433   4.605  11.961
70747SOL    HW214139   4.538   4.668  11.872
70748SOL     OW14140   9.290   8.418   1.419
70748SOL    HW114141   9.204   8.432   1.380
70748SOL    HW214142   9.330   8.349   1.366
70749SOL     OW14143  14.848   8.999   0.514
70749SOL    HW114144   0.034   9.069   0.546
70749SOL    HW214145   0.025   8.961   0.441
70750SOL     OW14146   3.658  13.487   3.018
70750SOL    HW114147   3.634  13.579   3.026
70750SOL    HW214148   3.603  13.442   3.082
70751SOL     OW14149  13.097   0.073   0.458
70751SOL    HW114150  13.125   0.165   0.450
70751SOL    HW214151  13.146   0.040   0.534
70752SOL     OW14152   5.582   2.443  12.811
70752SOL    HW114153   5.648   2.432  12.743
70752SOL    HW214154   5.506   2.396  12.779
70753SOL     OW14155  11.093   1.745   4.380
70753SOL    HW114156  11.011   1.724   4.335
70753SOL    HW214157  11.071   1.742   4.473
70754SOL     OW14158   8.423  12.873   5.960
70754SOL    HW114159   8.473  12.894   6.038
70754SOL    HW214160   8.335  12.908   5.978
70755SOL     OW14161   5.074   8.711   2.635
70755SOL    HW114162   5.124   8.629   2.628
70755SOL    HW214163   4.989   8.684   2.670
70756SOL     OW14164  13.241   8.441   6.550
70756SOL    HW114165  13.180   8.371   6.526
70756SOL    HW214166  13.285   8.408   6.629
70757SOL     OW14167   3.067   6.760   2.779
70757SOL    HW114168   3.057   6.777   2.872
70757SOL    HW214169   3.021   6.832   2.736
70758SOL     OW14170   3.976   3.790   5.534
70758SOL    HW114171   4.026   3.839   5.469
70758SOL    HW214172   4.019   3.810   5.617
70759SOL     OW14173   9.655  11.236   7.277
70759SOL    HW114174   9.730  11.209   7.223
70759SOL    HW214175   9.617  11.310   7.229
70760SOL     OW14176   2.374   1.956   8.954
70760SOL    HW114177   2.412   2.023   8.897
70760SOL    HW214178   2.285   1.945   8.921
70761SOL     OW14179   6.539   0.993   6.672
70761SOL    HW114180   6.445   0.986   6.657
70761SOL    HW214181   6.551   1.078   6.713
70762SOL     OW14182   0.131  14.761  13.243
70762SOL    HW114183   0.155  14.761  13.336
70762SOL    HW214184   0.204  14.718  13.199
70763SOL     OW14185   1.642   1.280   4.708
70763SOL    HW114186   1.587   1.327   4.771
70763SOL    HW214187   1.583   1.259   4.636
70764SOL     OW14188   3.905   2.755   5.708
70764SOL    HW114189   3.959   2.771   5.630
70764SOL    HW214190   3.937   2.671   5.742
70765SOL     OW14191  13.490   3.756   1.368
70765SOL    HW114192  13.448   3.719   1.446
70765SOL    HW214193  13.451   3.709   1.295
70766SOL     OW14194  13.161  11.883  11.484
70766SOL    HW114195  13.162  11.811  11.547
70766SOL    HW214196  13.159  11.962  11.537
70767SOL     OW14197   0.086  14.241  14.474
70767SOL    HW114198   0.083  14.336  14.459
70767SOL    HW214199  14.866  14.214  14.471
70768SOL     OW14200  13.726  11.072   1.076
70768SOL    HW114201  13.759  11.061   1.165
70768SOL    HW214202  13.789  11.129   1.034
70769SOL     OW14203   3.783   6.095   0.259
70769SOL    HW114204   3.835   6.110   0.180
70769SOL    HW214205   3.761   6.002   0.256
70770SOL     OW14206   0.899  10.705   6.580
70770SOL    HW114207   0.916  10.739   6.668
70770SOL    HW214208   0.842  10.771   6.540
70771SOL     OW14209  10.044  10.476  12.267
70771SOL    HW114210   9.966  10.431  12.298
70771SOL    HW214211  10.098  10.407  12.227
70772SOL     OW14212   1.117   5.101   9.368
70772SOL    HW114213   1.091   5.084   9.459
70772SOL    HW214214   1.161   5.021   9.341
70773SOL     OW14215  11.837   2.373   1.326
70773SOL    HW114216  11.879   2.346   1.408
70773SOL    HW214217  11.753   2.327   1.326
70774SOL     OW14218   3.745   0.505   6.639
70774SOL    HW114219   3.808   0.576   6.626
70774SOL    HW214220   3.708   0.489   6.552
70775SOL     OW14221   8.195   5.310   0.806
70775SOL    HW114222   8.154   5.328   0.891
70775SOL    HW214223   8.171   5.386   0.752
70776SOL     OW14224  10.233  12.477   7.812
70776SOL    HW114225  10.282  12.555   7.786
70776SOL    HW214226  10.142  12.506   7.817
70777SOL     OW14227   6.371   4.737   1.122
70777SOL    HW114228   6.398   4.797   1.052
70777SOL    HW214229   6.275   4.736   1.116
70778SOL     OW14230  11.582   8.656  14.464
70778SOL    HW114231  11.501   8.700  14.490
70778SOL    HW214232  11.626   8.636  14.547
70779SOL     OW14233   6.146  14.539  13.317
70779SOL    HW114234   6.072  14.570  13.266
70779SOL    HW214235   6.163  14.610  13.380
70780SOL     OW14236  11.012   9.919   2.962
70780SOL    HW114237  10.920   9.924   2.989
70780SOL    HW214238  11.008   9.915   2.866
70781SOL     OW14239   8.910   8.868   2.216
70781SOL    HW114240   9.003   8.859   2.238
70781SOL    HW214241   8.864   8.865   2.299
70782SOL     OW14242  14.638   0.562  10.981
70782SOL    HW114243  14.621   0.655  10.964
70782SOL    HW214244  14.575   0.515  10.927
70783SOL     OW14245   1.047  10.018  12.295
70783SOL    HW114246   1.067   9.984  12.208
70783SOL    HW214247   1.081  10.107  12.295
70784SOL     OW14248   6.448   6.368   8.425
70784SOL    HW114249   6.375   6.316   8.392
70784SOL    HW214250   6.411   6.418   8.497
70785SOL     OW14251   2.003  11.738   9.658
70785SOL    HW114252   2.045  11.656   9.682
70785SOL    HW214253   2.041  11.803   9.717
70786SOL     OW14254   6.185  12.138  10.092
70786SOL    HW114255   6.117  12.204  10.105
70786SOL    HW214256   6.251  12.182  10.039
70787SOL     OW14257   3.961   0.136   8.821
70787SOL    HW114258   4.031   0.201   8.820
70787SOL    HW214259   4.001   0.058   8.860
70788SOL     OW14260  13.526  10.101   9.355
70788SOL    HW114261  13.617  10.121   9.332
70788SOL    HW214262  13.474  10.155   9.296
70789SOL     OW14263   2.779   6.116  11.465
70789SOL    HW114264   2.811   6.190  11.413
70789SOL    HW214265   2.858   6.074  11.499
70790SOL     OW14266   9.679  13.482  12.122
70790SOL    HW114267   9.750  13.417  12.127
70790SOL    HW214268   9.657  13.501  12.213
70791SOL     OW14269   6.980   5.106  10.025
70791SOL    HW114270   6.991   5.119  10.119
70791SOL    HW214271   6.886   5.114  10.010
70792SOL     OW14272   2.012  13.515   5.372
70792SOL    HW114273   1.990  13.608   5.369
70792SOL    HW214274   2.067  13.506   5.450
70793SOL     OW14275   2.326   9.393  12.620
70793SOL    HW114276   2.375   9.390  12.702
70793SOL    HW214277   2.293   9.483  12.615
70794SOL     OW14278   3.146   5.814   4.805
70794SOL    HW114279   3.220   5.857   4.848
70794SOL    HW214280   3.181   5.728   4.779
70795SOL     OW14281   7.182   4.517   1.774
70795SOL    HW114282   7.169   4.612   1.766
70795SOL    HW214283   7.277   4.506   1.777
70796SOL     OW14284   9.925  12.176   6.331
70796SOL    HW114285   9.924  12.189   6.236
70796SOL    HW214286   9.833  12.170   6.355
70797SOL     OW14287   2.633  11.415  14.696
70797SOL    HW114288   2.658  11.340  14.750
70797SOL    HW214289   2.630  11.488  14.757
70798SOL     OW14290   4.890   0.638   0.348
70798SOL    HW114291   4.948   0.702   0.390
70798SOL    HW214292   4.949   0.577   0.305
70799SOL     OW14293  14.212  11.240   8.155
70799SOL    HW114294  14.275  11.213   8.089
70799SOL    HW214295  14.220  11.176   8.225
70800SOL     OW14296   1.821   9.839   8.200
70800SOL    HW114297   1.901   9.818   8.154
70800SOL    HW214298   1.762   9.766   8.181
70801SOL     OW14299  14.279  12.307   7.555
70801SOL    HW114300  14.367  12.306   7.518
70801SOL    HW214301  14.285  12.250   7.631
70802SOL     OW14302   4.579   5.649  10.239
70802SOL    HW114303   4.498   5.603  10.219
70802SOL    HW214304   4.648   5.591  10.206
70803SOL     OW14305   5.010  12.697   3.493
70803SOL    HW114306   5.081  12.704   3.558
70803SOL    HW214307   5.055  12.697   3.409
70804SOL     OW14308  13.950  14.638   3.478
70804SOL    HW114309  13.876  14.598   3.433
70804SOL    HW214310  13.941  14.609   3.568
70805SOL     OW14311   5.655  11.210   7.015
70805SOL    HW114312   5.629  11.159   7.091
70805SOL    HW214313   5.575  11.220   6.963
70806SOL     OW14314   6.093   0.812   1.244
70806SOL    HW114315   6.125   0.882   1.302
70806SOL    HW214316   6.006   0.842   1.217
70807SOL     OW14317   9.347   1.540   0.728
70807SOL    HW114318   9.346   1.578   0.816
70807SOL    HW214319   9.327   1.448   0.741
70808SOL     OW14320   8.453  11.421   1.504
70808SOL    HW114321   8.513  11.471   1.558
70808SOL    HW214322   8.435  11.477   1.429
70809SOL     OW14323   5.923   4.392  12.520
70809SOL    HW114324   5.873   4.459  12.566
70809SOL    HW214325   5.901   4.311  12.565
70810SOL     OW14326  10.739  12.875   0.733
70810SOL    HW114327  10.728  12.812   0.804
70810SOL    HW214328  10.660  12.865   0.679
70811SOL     OW14329  13.981  11.353   9.388
70811SOL    HW114330  13.905  11.309   9.351
70811SOL    HW214331  13.946  11.432   9.429
70812SOL     OW14332   5.527  12.976   3.921
70812SOL    HW114333   5.457  12.918   3.887
70812SOL    HW214334   5.608  12.929   3.900
70813SOL     OW14335   2.303  12.390   0.016
70813SOL    HW114336   2.334  12.481   0.018
70813SOL    HW214337   2.306  12.361   0.107
70814SOL     OW14338   1.286   6.127   0.117
70814SOL    HW114339   1.193   6.150   0.113
70814SOL    HW214340   1.330   6.210   0.133
70815SOL     OW14341   1.775   8.970  11.955
70815SOL    HW114342   1.851   8.954  12.010
70815SOL    HW214343   1.801   8.938  11.868
70816SOL     OW14344   7.330   7.403   0.372
70816SOL    HW114345   7.369   7.321   0.343
70816SOL    HW214346   7.397   7.469   0.353
70817SOL     OW14347   5.898   4.158  12.662
70817SOL    HW114348   5.816   4.185  12.703
70817SOL    HW214349   5.884   4.067  12.638
70818SOL     OW14350  14.385   7.581   4.131
70818SOL    HW114351  14.469   7.562   4.089
70818SOL    HW214352  14.340   7.639   4.070
70819SOL     OW14353  10.529   5.508   9.605
70819SOL    HW114354  10.454   5.474   9.654
70819SOL    HW214355  10.492   5.541   9.523
70820SOL     OW14356  13.547  14.460   1.436
70820SOL    HW114357  13.473  14.411   1.398
70820SOL    HW214358  13.574  14.407   1.511
70821SOL     OW14359  14.810   9.664   5.199
70821SOL    HW114360  14.776   9.597   5.257
70821SOL    HW214361   0.027   9.635   5.176
70822SOL     OW14362   7.878  10.092   1.478
70822SOL    HW114363   7.934  10.163   1.509
70822SOL    HW214364   7.935  10.039   1.421
70823SOL     OW14365  10.674   3.876   0.701
70823SOL    HW114366  10.708   3.845   0.617
70823SOL    HW214367  10.668   3.971   0.690
70824SOL     OW14368   3.299  11.085   0.624
70824SOL    HW114369   3.361  11.046   0.561
70824SOL    HW214370   3.353  11.103   0.701
70825SOL     OW14371   1.678   1.512  10.370
70825SOL    HW114372   1.698   1.524  10.463
70825SOL    HW214373   1.624   1.588  10.347
70826SOL     OW14374  14.455   8.967  10.132
70826SOL    HW114375  14.463   8.876  10.161
70826SOL    HW214376  14.525   9.012  10.179
70827SOL     OW14377   4.346  10.013   6.259
70827SOL    HW114378   4.271   9.987   6.313
70827SOL    HW214379   4.318   9.995   6.170
70828SOL     OW14380  10.671   0.596   2.760
70828SOL    HW114381  10.576   0.608   2.762
70828SOL    HW214382  10.700   0.617   2.848
70829SOL     OW14383   5.105   7.293   7.039
70829SOL    HW114384   5.183   7.345   7.059
70829SOL    HW214385   5.035   7.357   7.028
70830SOL     OW14386   9.649   3.966   7.288
70830SOL    HW114387   9.707   4.032   7.326
70830SOL    HW214388   9.592   3.940   7.360
70831SOL     OW14389   6.980   6.288   3.330
70831SOL    HW114390   6.971   6.362   3.389
70831SOL    HW214391   6.892   6.252   3.322
70832SOL     OW14392   8.296   1.730   6.806
70832SOL    HW114393   8.389   1.745   6.820
70832SOL    HW214394   8.292   1.648   6.757
70833SOL     OW14395   7.115   5.906   1.564
70833SOL    HW114396   7.193   5.883   1.513
70833SOL    HW214397   7.150   5.950   1.642
70834SOL     OW14398   0.131  14.395  12.116
70834SOL    HW114399   0.070  14.463  12.145
70834SOL    HW214400   0.133  14.333  12.189
70835SOL     OW14401  13.368   2.320   2.307
70835SOL    HW114402  13.335   2.236   2.278
70835SOL    HW214403  13.411   2.302   2.391
70836SOL     OW14404  11.003   9.441   0.236
70836SOL    HW114405  11.057   9.513   0.267
70836SOL    HW214406  11.014   9.372   0.302
70837SOL     OW14407   4.348  13.034  11.509
70837SOL    HW114408   4.290  12.972  11.554
70837SOL    HW214409   4.340  13.011  11.417
70838SOL     OW14410  13.866   1.278  13.159
70838SOL    HW114411  13.835   1.323  13.081
70838SOL    HW214412  13.948   1.323  13.181
70839SOL     OW14413  10.673   4.342  14.669
70839SOL    HW114414  10.705   4.350  14.579
70839SOL    HW214415  10.751   4.322  14.721
70840SOL     OW14416   4.389  10.119   7.833
70840SOL    HW114417   4.360  10.202   7.871
70840SOL    HW214418   4.311  10.084   7.790
70841SOL     OW14419  13.486   3.001  12.218
70841SOL    HW114420  13.572   3.033  12.242
70841SOL    HW214421  13.448   2.969  12.301
70842SOL     OW14422   2.460   8.431   7.990
70842SOL    HW114423   2.445   8.469   8.077
70842SOL    HW214424   2.553   8.407   7.990
70843SOL     OW14425   7.437  13.998   3.132
70843SOL    HW114426   7.368  14.061   3.113
70843SOL    HW214427   7.500  14.047   3.185
70844SOL     OW14428  13.139  11.545   8.427
70844SOL    HW114429  13.059  11.511   8.466
70844SOL    HW214430  13.138  11.638   8.448
70845SOL     OW14431   0.178   6.777   7.661
70845SOL    HW114432   0.170   6.870   7.682
70845SOL    HW214433   0.156   6.771   7.568
70846SOL     OW14434   7.849   1.700   6.045
70846SOL    HW114435   7.914   1.762   6.078
70846SOL    HW214436   7.849   1.629   6.109
70847SOL     OW14437  13.355   0.234   7.309
70847SOL    HW114438  13.416   0.260   7.378
70847SOL    HW214439  13.324   0.148   7.335
70848SOL     OW14440   3.490   0.657  10.985
70848SOL    HW114441   3.466   0.732  11.039
70848SOL    HW214442   3.566   0.620  11.029
70849SOL     OW14443   7.637   8.419   6.704
70849SOL    HW114444   7.667   8.503   6.739
70849SOL    HW214445   7.609   8.370   6.782
70850SOL     OW14446  10.366   6.051   8.278
70850SOL    HW114447  10.442   6.098   8.245
70850SOL    HW214448  10.395   5.960   8.285
70851SOL     OW14449  11.627   8.303   5.642
70851SOL    HW114450  11.700   8.250   5.674
70851SOL    HW214451  11.552   8.245   5.645
70852SOL     OW14452   6.390   5.760   2.818
70852SOL    HW114453   6.485   5.772   2.828
70852SOL    HW214454   6.359   5.844   2.785
70853SOL     OW14455   5.207  11.197  12.557
70853SOL    HW114456   5.130  11.228  12.510
70853SOL    HW214457   5.272  11.180  12.488
70854SOL     OW14458   5.224  12.049  12.532
70854SOL    HW114459   5.178  12.076  12.611
70854SOL    HW214460   5.293  11.989  12.564
70855SOL     OW14461  11.336   6.706  10.088
70855SOL    HW114462  11.320   6.794  10.120
70855SOL    HW214463  11.268   6.653  10.129
70856SOL     OW14464   8.874   6.388  10.175
70856SOL    HW114465   8.788   6.347  10.163
70856SOL    HW214466   8.870   6.468  10.123
70857SOL     OW14467  13.046   6.319   8.840
70857SOL    HW114468  13.104   6.391   8.863
70857SOL    HW214469  13.031   6.329   8.746
70858SOL     OW14470  13.388   9.127  10.580
70858SOL    HW114471  13.366   9.161  10.493
70858SOL    HW214472  13.362   9.035  10.578
70859SOL     OW14473   7.110  14.328  12.330
70859SOL    HW114474   7.147  14.416  12.339
70859SOL    HW214475   7.180  14.276  12.291
70860SOL     OW14476  14.504   0.929   1.792
70860SOL    HW114477  14.575   0.896   1.847
70860SOL    HW214478  14.425   0.892   1.831
70861SOL     OW14479   8.887   3.823   8.557
70861SOL    HW114480   8.836   3.895   8.519
70861SOL    HW214481   8.829   3.747   8.551
70862SOL     OW14482   9.227   3.770  12.805
70862SOL    HW114483   9.170   3.770  12.729
70862SOL    HW214484   9.187   3.708  12.866
70863SOL     OW14485   2.987   7.484   5.936
70863SOL    HW114486   3.079   7.499   5.958
70863SOL    HW214487   2.952   7.570   5.916
70864SOL     OW14488   3.827   4.390   9.191
70864SOL    HW114489   3.862   4.454   9.253
70864SOL    HW214490   3.770   4.442   9.134
70865SOL     OW14491  13.973   2.720   0.691
70865SOL    HW114492  13.998   2.678   0.774
70865SOL    HW214493  13.942   2.807   0.717
70866SOL     OW14494  10.594  14.492   5.577
70866SOL    HW114495  10.568  14.524   5.664
70866SOL    HW214496  10.533  14.422   5.558
70867SOL     OW14497   6.729  12.865   6.027
70867SOL    HW114498   6.822  12.885   6.016
70867SOL    HW214499   6.717  12.864   6.122
70868SOL     OW14500  10.389   0.936   3.807
70868SOL    HW114501  10.446   0.878   3.756
70868SOL    HW214502  10.301   0.903   3.792
70869SOL     OW14503   1.659   3.183   1.647
70869SOL    HW114504   1.644   3.246   1.717
70869SOL    HW214505   1.752   3.193   1.625
70870SOL     OW14506   3.409   9.012  14.332
70870SOL    HW114507   3.394   9.001  14.238
70870SOL    HW214508   3.341   8.958  14.374
70871SOL     OW14509   2.443   1.153   8.975
70871SOL    HW114510   2.377   1.107   9.027
70871SOL    HW214511   2.420   1.133   8.884
70872SOL     OW14512   8.465   1.277  13.809
70872SOL    HW114513   8.440   1.340  13.741
70872SOL    HW214514   8.531   1.323  13.861
70873SOL     OW14515   9.579  12.515   3.482
70873SOL    HW114516   9.572  12.427   3.517
70873SOL    HW214517   9.528  12.514   3.401
70874SOL     OW14518   5.548  14.398   8.219
70874SOL    HW114519   5.590  14.449   8.288
70874SOL    HW214520   5.587  14.311   8.226
70875SOL     OW14521   2.460  11.935   0.148
70875SOL    HW114522   2.411  11.877   0.208
70875SOL    HW214523   2.393  11.975   0.094
70876SOL     OW14524  12.085   2.134  13.803
70876SOL    HW114525  12.170   2.093  13.787
70876SOL    HW214526  12.076   2.198  13.733
70877SOL     OW14527   2.940  13.515  12.414
70877SOL    HW114528   3.024  13.555  12.435
70877SOL    HW214529   2.882  13.542  12.486
70878SOL     OW14530   9.068   2.578   0.546
70878SOL    HW114531   9.021   2.583   0.629
70878SOL    HW214532   9.155   2.545   0.569
70879SOL     OW14533   6.386  13.142   1.208
70879SOL    HW114534   6.331  13.105   1.277
70879SOL    HW214535   6.324  13.176   1.144
70880SOL     OW14536  11.097   9.036   0.077
70880SOL    HW114537  11.029   9.103   0.074
70880SOL    HW214538  11.058   8.961   0.032
70881SOL     OW14539   5.677  10.855  12.844
70881SOL    HW114540   5.747  10.901  12.890
70881SOL    HW214541   5.617  10.925  12.816
70882SOL     OW14542  13.707   3.547   9.303
70882SOL    HW114543  13.783   3.506   9.345
70882SOL    HW214544  13.676   3.611   9.366
70883SOL     OW14545  11.844   9.294   9.368
70883SOL    HW114546  11.751   9.315   9.373
70883SOL    HW214547  11.864   9.250   9.450
70884SOL     OW14548  12.856   3.685  11.563
70884SOL    HW114549  12.861   3.732  11.647
70884SOL    HW214550  12.770   3.708  11.528
70885SOL     OW14551  11.986   8.713   0.151
70885SOL    HW114552  11.932   8.767   0.093
70885SOL    HW214553  11.985   8.760   0.235
70886SOL     OW14554   0.832   5.607   3.708
70886SOL    HW114555   0.789   5.521   3.714
70886SOL    HW214556   0.781   5.654   3.641
70887SOL     OW14557   3.674   4.780   0.048
70887SOL    HW114558   3.690   4.867   0.086
70887SOL    HW214559   3.580   4.779   0.029
70888SOL     OW14560   7.857   9.809   8.281
70888SOL    HW114561   7.913   9.884   8.264
70888SOL    HW214562   7.850   9.805   8.376
70889SOL     OW14563  11.681  11.314   6.969
70889SOL    HW114564  11.675  11.407   6.993
70889SOL    HW214565  11.688  11.268   7.052
70890SOL     OW14566   4.492   3.334   5.388
70890SOL    HW114567   4.449   3.267   5.442
70890SOL    HW214568   4.580   3.341   5.425
70891SOL     OW14569  10.084  10.128   3.656
70891SOL    HW114570  10.174  10.104   3.681
70891SOL    HW214571  10.051  10.178   3.730
70892SOL     OW14572   1.678   9.065   3.148
70892SOL    HW114573   1.615   9.131   3.118
70892SOL    HW214574   1.627   9.005   3.202
70893SOL     OW14575  14.187   2.344   5.373
70893SOL    HW114576  14.174   2.435   5.346
70893SOL    HW214577  14.275   2.343   5.413
70894SOL     OW14578   7.370   8.786   0.875
70894SOL    HW114579   7.311   8.806   0.802
70894SOL    HW214580   7.377   8.868   0.923
70895SOL     OW14581   2.671   5.027   8.005
70895SOL    HW114582   2.749   5.076   7.978
70895SOL    HW214583   2.600   5.091   8.004
70896SOL     OW14584  14.579  11.786   3.981
70896SOL    HW114585  14.505  11.728   3.962
70896SOL    HW214586  14.644  11.729   4.022
70897SOL     OW14587   4.432   6.981   6.742
70897SOL    HW114588   4.526   6.978   6.762
70897SOL    HW214589   4.391   6.930   6.811
70898SOL     OW14590   2.285   6.544  11.062
70898SOL    HW114591   2.236   6.611  11.014
70898SOL    HW214592   2.370   6.542  11.020
70899SOL     OW14593  10.101  11.005   0.197
70899SOL    HW114594  10.066  10.917   0.215
70899SOL    HW214595  10.073  11.025   0.108
70900SOL     OW14596   6.132   0.539   7.002
70900SOL    HW114597   6.133   0.443   6.999
70900SOL    HW214598   6.151   0.560   7.093
70901SOL     OW14599   9.538   7.780   9.266
70901SOL    HW114600   9.549   7.875   9.272
70901SOL    HW214601   9.596   7.744   9.333
70902SOL     OW14602   3.008   6.599   4.789
70902SOL    HW114603   2.983   6.596   4.697
70902SOL    HW214604   3.040   6.511   4.808
70903SOL     OW14605   1.905   3.953   3.527
70903SOL    HW114606   1.975   3.990   3.474
70903SOL    HW214607   1.825   3.971   3.478
70904SOL     OW14608   6.570  13.708   9.263
70904SOL    HW114609   6.619  13.737   9.341
70904SOL    HW214610   6.611  13.755   9.190
70905SOL     OW14611   8.889   3.890  14.772
70905SOL    HW114612   8.842   3.971  14.792
70905SOL    HW214613   8.970   3.896  14.823
70906SOL     OW14614  13.947   6.581  10.936
70906SOL    HW114615  13.937   6.499  10.985
70906SOL    HW214616  13.892   6.569  10.859
70907SOL     OW14617   0.606   1.971   7.540
70907SOL    HW114618   0.536   2.023   7.500
70907SOL    HW214619   0.685   1.997   7.493
70908SOL     OW14620   0.154   7.544   6.521
70908SOL    HW114621   0.170   7.450   6.511
70908SOL    HW214622   0.068   7.550   6.563
70909SOL     OW14623   2.471   5.966   7.788
70909SOL    HW114624   2.451   5.895   7.728
70909SOL    HW214625   2.563   5.953   7.812
70910SOL     OW14626   4.548   8.651  14.560
70910SOL    HW114627   4.636   8.628  14.530
70910SOL    HW214628   4.533   8.594  14.635
70911SOL     OW14629  10.743   5.784   1.009
70911SOL    HW114630  10.702   5.701   1.031
70911SOL    HW214631  10.722   5.797   0.916
70912SOL     OW14632   1.729   1.359   3.050
70912SOL    HW114633   1.739   1.279   3.101
70912SOL    HW214634   1.634   1.366   3.035
70913SOL     OW14635   8.550   8.211  10.894
70913SOL    HW114636   8.607   8.285  10.870
70913SOL    HW214637   8.565   8.146  10.826
70914SOL     OW14638   4.464  13.497  10.403
70914SOL    HW114639   4.494  13.408  10.420
70914SOL    HW214640   4.530  13.553  10.443
70915SOL     OW14641   7.478   2.748  10.131
70915SOL    HW114642   7.393   2.722  10.168
70915SOL    HW214643   7.455   2.809  10.061
70916SOL     OW14644  14.309  14.602  14.234
70916SOL    HW114645  14.296  14.694  14.211
70916SOL    HW214646  14.222  14.572  14.262
70917SOL     OW14647   4.915   6.072  10.125
70917SOL    HW114648   4.890   6.117  10.044
70917SOL    HW214649   4.834   6.070  10.177
70918SOL     OW14650   0.704  11.128   4.819
70918SOL    HW114651   0.743  11.147   4.733
70918SOL    HW214652   0.705  11.212   4.864
70919SOL     OW14653   3.019  11.723   4.052
70919SOL    HW114654   2.986  11.644   4.008
70919SOL    HW214655   3.064  11.690   4.130
70920SOL     OW14656   2.543   3.228   3.165
70920SOL    HW114657   2.597   3.170   3.219
70920SOL    HW214658   2.469   3.252   3.222
70921SOL     OW14659  13.441   2.888  11.972
70921SOL    HW114660  13.439   2.920  12.062
70921SOL    HW214661  13.484   2.802  11.979
70922SOL     OW14662  10.487   6.149   4.300
70922SOL    HW114663  10.574   6.165   4.264
70922SOL    HW214664  10.501   6.141   4.394
70923SOL     OW14665   9.735   5.285   7.377
70923SOL    HW114666   9.713   5.192   7.370
70923SOL    HW214667   9.753   5.312   7.287
70924SOL     OW14668   7.841  12.772   6.019
70924SOL    HW114669   7.817  12.791   6.109
70924SOL    HW214670   7.927  12.730   6.024
70925SOL     OW14671   1.061   7.720   2.838
70925SOL    HW114672   1.096   7.721   2.749
70925SOL    HW214673   1.084   7.633   2.871
70926SOL     OW14674   1.476   9.624   7.792
70926SOL    HW114675   1.427   9.661   7.720
70926SOL    HW214676   1.478   9.693   7.859
70927SOL     OW14677  13.303   5.866  10.281
70927SOL    HW114678  13.224   5.920  10.290
70927SOL    HW214679  13.355   5.886  10.358
70928SOL     OW14680   8.951   0.031   3.508
70928SOL    HW114681   8.986   0.120   3.513
70928SOL    HW214682   8.875   0.031   3.565
70929SOL     OW14683   9.987   7.500   3.633
70929SOL    HW114684  10.065   7.444   3.640
70929SOL    HW214685   9.926   7.464   3.697
70930SOL     OW14686   3.055   9.619  14.807
70930SOL    HW114687   3.130   9.594  14.753
70930SOL    HW214688   3.003   9.538  14.815
70931SOL     OW14689   9.754  11.545   5.634
70931SOL    HW114690   9.761  11.481   5.564
70931SOL    HW214691   9.714  11.497   5.707
70932SOL     OW14692  11.942   1.184  10.263
70932SOL    HW114693  11.877   1.252  10.275
70932SOL    HW214694  11.951   1.144  10.350
70933SOL     OW14695  11.655   6.029  13.148
70933SOL    HW114696  11.597   5.952  13.144
70933SOL    HW214697  11.659   6.061  13.058
70934SOL     OW14698   6.198  12.167   4.361
70934SOL    HW114699   6.220  12.191   4.271
70934SOL    HW214700   6.106  12.141   4.357
70935SOL     OW14701  13.935   5.792  11.380
70935SOL    HW114702  13.992   5.736  11.432
70935SOL    HW214703  13.869   5.733  11.345
70936SOL     OW14704  12.666   7.759  11.162
70936SOL    HW114705  12.678   7.825  11.093
70936SOL    HW214706  12.749   7.757  11.208
70937SOL     OW14707   7.912   8.296   1.890
70937SOL    HW114708   7.968   8.236   1.938
70937SOL    HW214709   7.965   8.376   1.881
70938SOL     OW14710  14.674  12.286  10.798
70938SOL    HW114711  14.619  12.212  10.773
70938SOL    HW214712  14.711  12.317  10.716
70939SOL     OW14713   4.509   5.208  12.738
70939SOL    HW114714   4.497   5.136  12.677
70939SOL    HW214715   4.426   5.256  12.735
70940SOL     OW14716   9.536   6.244   9.874
70940SOL    HW114717   9.486   6.255   9.955
70940SOL    HW214718   9.524   6.152   9.850
70941SOL     OW14719   9.456   4.322   6.525
70941SOL    HW114720   9.452   4.400   6.470
70941SOL    HW214721   9.513   4.348   6.598
70942SOL     OW14722   9.322  13.125   7.938
70942SOL    HW114723   9.333  13.031   7.953
70942SOL    HW214724   9.260  13.131   7.865
70943SOL     OW14725  14.723  11.682   5.685
70943SOL    HW114726  14.657  11.695   5.617
70943SOL    HW214727  14.783  11.756   5.675
70944SOL     OW14728  13.471   0.306   6.538
70944SOL    HW114729  13.482   0.375   6.604
70944SOL    HW214730  13.377   0.289   6.536
70945SOL     OW14731   7.821  14.088  11.127
70945SOL    HW114732   7.857  14.169  11.163
70945SOL    HW214733   7.735  14.079  11.168
70946SOL     OW14734  12.713  12.509   9.729
70946SOL    HW114735  12.773  12.522   9.656
70946SOL    HW214736  12.767  12.469   9.797
70947SOL     OW14737   6.892  12.050   6.398
70947SOL    HW114738   6.868  12.088   6.483
70947SOL    HW214739   6.959  11.985   6.419
70948SOL     OW14740   0.866   0.297   5.051
70948SOL    HW114741   0.898   0.259   5.133
70948SOL    HW214742   0.944   0.307   4.997
70949SOL     OW14743   7.470   9.916  12.775
70949SOL    HW114744   7.431   9.965  12.702
70949SOL    HW214745   7.550   9.964  12.795
70950SOL     OW14746  14.529   3.517  14.595
70950SOL    HW114747  14.560   3.571  14.668
70950SOL    HW214748  14.553   3.567  14.517
70951SOL     OW14749   6.400   9.793   7.013
70951SOL    HW114750   6.482   9.744   7.000
70951SOL    HW214751   6.338   9.751   6.954
70952SOL     OW14752   8.937   7.832  14.630
70952SOL    HW114753   8.876   7.787  14.688
70952SOL    HW214754   9.024   7.809  14.663
70953SOL     OW14755   8.429   6.488   6.437
70953SOL    HW114756   8.381   6.406   6.448
70953SOL    HW214757   8.386   6.532   6.363
70954SOL     OW14758   2.542  12.960   5.527
70954SOL    HW114759   2.517  12.908   5.451
70954SOL    HW214760   2.555  13.048   5.493
70955SOL     OW14761   2.167  11.650   1.039
70955SOL    HW114762   2.077  11.683   1.038
70955SOL    HW214763   2.211  11.698   0.969
70956SOL     OW14764  14.818  14.382   2.392
70956SOL    HW114765  14.864  14.317   2.339
70956SOL    HW214766  14.731  14.388   2.352
70957SOL     OW14767   5.462  14.541   7.661
70957SOL    HW114768   5.405  14.464   7.649
70957SOL    HW214769   5.403  14.616   7.653
70958SOL     OW14770   6.793   3.051   1.640
70958SOL    HW114771   6.886   3.068   1.649
70958SOL    HW214772   6.770   3.084   1.553
70959SOL     OW14773  14.097   3.106   9.315
70959SOL    HW114774  14.072   3.042   9.381
70959SOL    HW214775  14.121   3.054   9.239
70960SOL     OW14776   7.847   2.274   3.334
70960SOL    HW114777   7.908   2.326   3.283
70960SOL    HW214778   7.847   2.314   3.421
70961SOL     OW14779   3.838   4.792   5.227
70961SOL    HW114780   3.749   4.810   5.257
70961SOL    HW214781   3.850   4.848   5.150
70962SOL     OW14782   5.323  10.484   7.777
70962SOL    HW114783   5.253  10.421   7.766
70962SOL    HW214784   5.289  10.547   7.841
70963SOL     OW14785   0.685  12.816  11.368
70963SOL    HW114786   0.617  12.750  11.379
70963SOL    HW214787   0.720  12.800  11.281
70964SOL     OW14788   6.298   7.644   2.722
70964SOL    HW114789   6.392   7.634   2.708
70964SOL    HW214790   6.285   7.738   2.730
70965SOL     OW14791   4.370   0.971   0.717
70965SOL    HW114792   4.281   0.951   0.687
70965SOL    HW214793   4.372   1.066   0.727
70966SOL     OW14794   9.264   2.718   9.478
70966SOL    HW114795   9.238   2.695   9.567
70966SOL    HW214796   9.325   2.791   9.490
70967SOL     OW14797  13.692   0.751   1.982
70967SOL    HW114798  13.615   0.802   2.006
70967SOL    HW214799  13.763   0.815   1.981
70968SOL     OW14800   2.407  12.572   1.283
70968SOL    HW114801   2.314  12.558   1.301
70968SOL    HW214802   2.434  12.640   1.344
70969SOL     OW14803   3.889   7.421  14.257
70969SOL    HW114804   3.881   7.347  14.318
70969SOL    HW214805   3.941   7.387  14.184
70970SOL     OW14806  10.381  13.570   1.791
70970SOL    HW114807  10.440  13.508   1.748
70970SOL    HW214808  10.318  13.515   1.838
70971SOL     OW14809  14.813   2.376   7.958
70971SOL    HW114810  14.723   2.408   7.945
70971SOL    HW214811  14.864   2.455   7.977
70972SOL     OW14812   5.963  13.406   0.988
70972SOL    HW114813   6.005  13.443   1.066
70972SOL    HW214814   5.926  13.482   0.942
70973SOL     OW14815   5.016  10.206   3.738
70973SOL    HW114816   4.959  10.282   3.742
70973SOL    HW214817   5.074  10.223   3.664
70974SOL     OW14818   6.650   9.569   4.798
70974SOL    HW114819   6.692   9.484   4.804
70974SOL    HW214820   6.599   9.577   4.879
70975SOL     OW14821   0.632   1.724   8.397
70975SOL    HW114822   0.724   1.738   8.372
70975SOL    HW214823   0.593   1.812   8.396
70976SOL     OW14824  13.740   2.386   3.108
70976SOL    HW114825  13.701   2.299   3.110
70976SOL    HW214826  13.666   2.445   3.089
70977SOL     OW14827   0.038   3.439   8.397
70977SOL    HW114828   0.044   3.510   8.460
70977SOL    HW214829   0.055   3.360   8.449
70978SOL     OW14830   9.938  11.897   4.629
70978SOL    HW114831   9.980  11.816   4.601
70978SOL    HW214832   9.910  11.939   4.548
70979SOL     OW14833  13.032   0.412  11.290
70979SOL    HW114834  12.995   0.423  11.203
70979SOL    HW214835  12.957   0.392  11.347
70980SOL     OW14836   9.734   0.766  12.218
70980SOL    HW114837   9.796   0.696  12.197
70980SOL    HW214838   9.788   0.837  12.252
70981SOL     OW14839   0.770  11.804   8.776
70981SOL    HW114840   0.864  11.789   8.786
70981SOL    HW214841   0.763  11.894   8.745
70982SOL     OW14842  12.384   8.046  13.380
70982SOL    HW114843  12.399   8.046  13.285
70982SOL    HW214844  12.392   7.955  13.406
70983SOL     OW14845  10.326   3.225   8.932
70983SOL    HW114846  10.294   3.270   8.854
70983SOL    HW214847  10.293   3.277   9.005
70984SOL     OW14848   5.541   3.951  12.847
70984SOL    HW114849   5.561   3.936  12.939
70984SOL    HW214850   5.575   3.874  12.802
70985SOL     OW14851  12.751   6.919  13.286
70985SOL    HW114852  12.820   6.950  13.345
70985SOL    HW214853  12.795   6.860  13.226
70986SOL     OW14854   2.788   0.175  14.696
70986SOL    HW114855   2.718   0.112  14.679
70986SOL    HW214856   2.840   0.176  14.616
70987SOL     OW14857   1.625   1.383   0.875
70987SOL    HW114858   1.598   1.301   0.916
70987SOL    HW214859   1.719   1.387   0.891
70988SOL     OW14860  11.851   2.201  10.278
70988SOL    HW114861  11.854   2.195  10.182
70988SOL    HW214862  11.880   2.114  10.307
70989SOL     OW14863  10.217   5.661   9.598
70989SOL    HW114864  10.129   5.632   9.576
70989SOL    HW214865  10.268   5.647   9.518
70990SOL     OW14866  10.703  14.234   0.660
70990SOL    HW114867  10.628  14.267   0.609
70990SOL    HW214868  10.693  14.276   0.745
70991SOL     OW14869  14.527   1.647   8.816
70991SOL    HW114870  14.563   1.733   8.837
70991SOL    HW214871  14.502   1.609   8.900
70992SOL     OW14872   4.001   6.479   5.416
70992SOL    HW114873   4.043   6.562   5.440
70992SOL    HW214874   3.996   6.482   5.321
70993SOL     OW14875  12.018   3.319   6.480
70993SOL    HW114876  12.023   3.246   6.418
70993SOL    HW214877  12.048   3.395   6.430
70994SOL     OW14878   6.846   4.459   5.189
70994SOL    HW114879   6.837   4.364   5.180
70994SOL    HW214880   6.786   4.494   5.123
70995SOL     OW14881   9.364   3.970  13.805
70995SOL    HW114882   9.284   3.970  13.753
70995SOL    HW214883   9.334   3.969  13.896
70996SOL     OW14884   8.812  14.612  11.133
70996SOL    HW114885   8.733  14.600  11.081
70996SOL    HW214886   8.791  14.573  11.218
70997SOL     OW14887   7.495   8.897   4.951
70997SOL    HW114888   7.430   8.938   5.009
70997SOL    HW214889   7.578   8.939   4.975
70998SOL     OW14890   3.860  12.831   2.620
70998SOL    HW114891   3.847  12.853   2.528
70998SOL    HW214892   3.900  12.744   2.618
70999SOL     OW14893  12.928   6.919   9.106
70999SOL    HW114894  13.005   6.931   9.161
70999SOL    HW214895  12.913   7.006   9.068
71000SOL     OW14896   8.654  10.258   3.234
71000SOL    HW114897   8.706  10.308   3.297
71000SOL    HW214898   8.579  10.226   3.285
71001SOL     OW14899  12.801   9.456   7.877
71001SOL    HW114900  12.890   9.481   7.902
71001SOL    HW214901  12.798   9.361   7.893
71002SOL     OW14902   4.439  10.349   0.855
71002SOL    HW114903   4.434  10.293   0.777
71002SOL    HW214904   4.482  10.293   0.920
71003SOL     OW14905   3.759  13.616   2.558
71003SOL    HW114906   3.718  13.538   2.595
71003SOL    HW214907   3.754  13.603   2.463
71004SOL     OW14908   6.466   3.785  14.553
71004SOL    HW114909   6.445   3.772  14.460
71004SOL    HW214910   6.425   3.868  14.575
71005SOL     OW14911   9.998   0.633   6.844
71005SOL    HW114912   9.925   0.624   6.905
71005SOL    HW214913   9.956   0.658   6.761
71006SOL     OW14914   8.266  12.155   1.710
71006SOL    HW114915   8.205  12.142   1.637
71006SOL    HW214916   8.214  12.201   1.776
71007SOL     OW14917  10.417  10.134  11.559
71007SOL    HW114918  10.435  10.049  11.519
71007SOL    HW214919  10.363  10.180  11.495
71008SOL     OW14920   1.917   0.378  11.686
71008SOL    HW114921   1.897   0.467  11.716
71008SOL    HW214922   1.909   0.324  11.764
71009SOL     OW14923   4.477   7.634   4.222
71009SOL    HW114924   4.557   7.616   4.271
71009SOL    HW214925   4.489   7.722   4.187
71010SOL     OW14926   1.367   6.174   9.518
71010SOL    HW114927   1.294   6.133   9.473
71010SOL    HW214928   1.443   6.121   9.494
71011SOL     OW14929   5.194   8.384   5.335
71011SOL    HW114930   5.165   8.306   5.288
71011SOL    HW214931   5.135   8.389   5.411
71012SOL     OW14932  13.274   9.587  14.067
71012SOL    HW114933  13.209   9.616  14.003
71012SOL    HW214934  13.358   9.605  14.024
71013SOL     OW14935  12.857   1.082   6.699
71013SOL    HW114936  12.884   1.037   6.619
71013SOL    HW214937  12.790   1.144   6.670
71014SOL     OW14938  12.505   8.083   0.736
71014SOL    HW114939  12.415   8.109   0.714
71014SOL    HW214940  12.504   8.077   0.832
71015SOL     OW14941  14.630   8.981   6.284
71015SOL    HW114942  14.636   9.024   6.369
71015SOL    HW214943  14.721   8.960   6.262
71016SOL     OW14944   0.087   0.979   0.125
71016SOL    HW114945   0.177   1.008   0.109
71016SOL    HW214946   0.095   0.905   0.184
71017SOL     OW14947   4.249   2.702   3.562
71017SOL    HW114948   4.270   2.648   3.485
71017SOL    HW214949   4.333   2.718   3.604
71018SOL     OW14950   8.220   0.826   2.027
71018SOL    HW114951   8.169   0.855   1.951
71018SOL    HW214952   8.251   0.907   2.068
71019SOL     OW14953   6.989  12.283   9.349
71019SOL    HW114954   7.028  12.368   9.367
71019SOL    HW214955   7.032  12.253   9.269
71020SOL     OW14956   8.194   4.300   3.787
71020SOL    HW114957   8.131   4.302   3.715
71020SOL    HW214958   8.177   4.216   3.831
71021SOL     OW14959  10.118  14.002   6.444
71021SOL    HW114960  10.161  14.030   6.363
71021SOL    HW214961  10.029  13.978   6.417
71022SOL     OW14962   5.114  11.983  12.956
71022SOL    HW114963   5.028  12.022  12.943
71022SOL    HW214964   5.102  11.917  13.024
71023SOL     OW14965  13.465   6.283   2.839
71023SOL    HW114966  13.393   6.333   2.876
71023SOL    HW214967  13.543   6.335   2.859
71024SOL     OW14968   4.340  13.383  11.768
71024SOL    HW114969   4.331  13.362  11.861
71024SOL    HW214970   4.280  13.322  11.724
71025SOL     OW14971   5.868  14.488   4.766
71025SOL    HW114972   5.937  14.477   4.700
71025SOL    HW214973   5.897  14.436   4.840
71026SOL     OW14974   8.828  13.151   2.713
71026SOL    HW114975   8.906  13.178   2.667
71026SOL    HW214976   8.855  13.074   2.763
71027SOL     OW14977  10.277   9.718  14.042
71027SOL    HW114978  10.276   9.682  14.130
71027SOL    HW214979  10.370   9.719  14.018
71028SOL     OW14980   0.275   2.128   5.075
71028SOL    HW114981   0.370   2.119   5.083
71028SOL    HW214982   0.261   2.221   5.059
71029SOL     OW14983   3.190   7.580  10.024
71029SOL    HW114984   3.282   7.576   9.998
71029SOL    HW214985   3.143   7.538   9.952
71030SOL     OW14986   1.322   6.086  14.353
71030SOL    HW114987   1.304   6.078  14.447
71030SOL    HW214988   1.349   5.999  14.326
71031SOL     OW14989   2.524  11.469  13.866
71031SOL    HW114990   2.469  11.522  13.923
71031SOL    HW214991   2.583  11.533  13.825
71032SOL     OW14992  12.704  10.651   4.587
71032SOL    HW114993  12.685  10.575   4.641
71032SOL    HW214994  12.619  10.684   4.560
71033SOL     OW14995  14.628   5.315   3.774
71033SOL    HW114996  14.605   5.352   3.689
71033SOL    HW214997  14.587   5.373   3.838
71034SOL     OW14998  13.860   4.307   4.204
71034SOL    HW114999  13.941   4.317   4.153
71034SOL    HW215000  13.873   4.362   4.281
71035SOL     OW15001  11.995   6.340   4.133
71035SOL    HW115002  12.010   6.428   4.167
71035SOL    HW215003  12.045   6.336   4.052
71036SOL     OW15004  11.741   7.329   1.365
71036SOL    HW115005  11.711   7.300   1.278
71036SOL    HW215006  11.720   7.422   1.368
71037SOL     OW15007   5.323  12.075  11.184
71037SOL    HW115008   5.266  12.042  11.254
71037SOL    HW215009   5.306  12.169  11.183
71038SOL     OW15010   0.651   1.604   7.347
71038SOL    HW115011   0.557   1.590   7.344
71038SOL    HW215012   0.666   1.679   7.289
71039SOL     OW15013   6.726   4.994   6.682
71039SOL    HW115014   6.697   5.016   6.771
71039SOL    HW215015   6.648   4.960   6.639
71040SOL     OW15016   0.840   2.918   3.590
71040SOL    HW115017   0.792   2.864   3.527
71040SOL    HW215018   0.798   2.899   3.674
71041SOL     OW15019   3.233  13.784   4.693
71041SOL    HW115020   3.251  13.877   4.698
71041SOL    HW215021   3.198  13.771   4.605
71042SOL     OW15022   3.913   8.210   4.154
71042SOL    HW115023   3.869   8.125   4.160
71042SOL    HW215024   3.975   8.210   4.227
71043SOL     OW15025   8.874   1.801   3.766
71043SOL    HW115026   8.861   1.885   3.722
71043SOL    HW215027   8.867   1.821   3.859
71044SOL     OW15028   7.898   6.962   9.934
71044SOL    HW115029   7.827   7.003   9.984
71044SOL    HW215030   7.919   7.025   9.865
71045SOL     OW15031   5.753   2.607   2.201
71045SOL    HW115032   5.658   2.620   2.193
71045SOL    HW215033   5.773   2.539   2.136
71046SOL     OW15034   3.807   7.521  13.951
71046SOL    HW115035   3.840   7.509  13.863
71046SOL    HW215036   3.749   7.447  13.966
71047SOL     OW15037   9.326  13.982   2.582
71047SOL    HW115038   9.372  14.025   2.654
71047SOL    HW215039   9.358  14.026   2.503
71048SOL     OW15040  14.809  14.245  11.984
71048SOL    HW115041   0.001  14.304  12.025
71048SOL    HW215042  14.734  14.246  12.044
71049SOL     OW15043   1.121   9.122   9.758
71049SOL    HW115044   1.207   9.136   9.796
71049SOL    HW215045   1.079   9.057   9.815
71050SOL     OW15046   7.017  10.214  13.712
71050SOL    HW115047   7.054  10.131  13.740
71050SOL    HW215048   7.067  10.237  13.633
71051SOL     OW15049   7.659  10.961  14.119
71051SOL    HW115050   7.609  10.955  14.037
71051SOL    HW215051   7.749  10.977  14.091
71052SOL     OW15052   6.987   5.945  11.087
71052SOL    HW115053   6.932   5.872  11.116
71052SOL    HW215054   6.928   6.020  11.082
71053SOL     OW15055   6.848   6.166   2.804
71053SOL    HW115056   6.907   6.098   2.773
71053SOL    HW215057   6.762   6.141   2.772
71054SOL     OW15058   1.580   7.464   7.836
71054SOL    HW115059   1.497   7.509   7.823
71054SOL    HW215060   1.641   7.509   7.777
71055SOL     OW15061  11.055  10.209   7.192
71055SOL    HW115062  11.130  10.266   7.207
71055SOL    HW215063  11.047  10.158   7.273
71056SOL     OW15064   5.642  12.888  12.762
71056SOL    HW115065   5.713  12.849  12.812
71056SOL    HW215066   5.588  12.933  12.827
71057SOL     OW15067   7.549   0.065   4.986
71057SOL    HW115068   7.572   0.045   5.077
71057SOL    HW215069   7.624   0.114   4.953
71058SOL     OW15070  10.179   7.032  11.967
71058SOL    HW115071  10.255   7.070  11.924
71058SOL    HW215072  10.212   6.954  12.011
71059SOL     OW15073   9.794   5.172   6.478
71059SOL    HW115074   9.757   5.093   6.519
71059SOL    HW215075   9.887   5.153   6.467
71060SOL     OW15076  13.213   9.217   9.138
71060SOL    HW115077  13.220   9.177   9.225
71060SOL    HW215078  13.131   9.266   9.141
71061SOL     OW15079   1.468   8.932  10.920
71061SOL    HW115080   1.474   8.938  11.015
71061SOL    HW215081   1.375   8.936  10.901
71062SOL     OW15082   4.933   6.783   2.112
71062SOL    HW115083   4.959   6.691   2.114
71062SOL    HW215084   4.924   6.807   2.205
71063SOL     OW15085  11.438   7.216   7.276
71063SOL    HW115086  11.379   7.206   7.202
71063SOL    HW215087  11.381   7.211   7.353
71064SOL     OW15088   3.731   7.161   2.531
71064SOL    HW115089   3.640   7.134   2.540
71064SOL    HW215090   3.741   7.232   2.595
71065SOL     OW15091  10.668  10.245   3.942
71065SOL    HW115092  10.590  10.195   3.965
71065SOL    HW215093  10.639  10.303   3.871
71066SOL     OW15094   1.898  12.707  13.945
71066SOL    HW115095   1.895  12.796  13.981
71066SOL    HW215096   1.971  12.709  13.884
71067SOL     OW15097   6.658  13.614   6.303
71067SOL    HW115098   6.567  13.600   6.330
71067SOL    HW215099   6.706  13.625   6.385
71068SOL     OW15100   2.915   5.314   9.545
71068SOL    HW115101   2.886   5.297   9.634
71068SOL    HW215102   2.835   5.332   9.496
71069SOL     OW15103  10.061   9.219   5.807
71069SOL    HW115104   9.982   9.269   5.830
71069SOL    HW215105  10.100   9.269   5.735
71070SOL     OW15106  12.349   4.814  12.507
71070SOL    HW115107  12.390   4.728  12.503
71070SOL    HW215108  12.421   4.876  12.500
71071SOL     OW15109   9.677   1.201   3.966
71071SOL    HW115110   9.611   1.179   3.901
71071SOL    HW215111   9.639   1.173   4.049
71072SOL     OW15112   2.758  14.090   5.731
71072SOL    HW115113   2.830  14.132   5.778
71072SOL    HW215114   2.682  14.145   5.750
71073SOL     OW15115   3.020   6.064  14.216
71073SOL    HW115116   3.015   6.108  14.301
71073SOL    HW215117   3.001   6.133  14.152
71074SOL     OW15118   8.678  11.783   4.978
71074SOL    HW115119   8.625  11.814   4.904
71074SOL    HW215120   8.690  11.861   5.033
71075SOL     OW15121   6.044   4.886   0.535
71075SOL    HW115122   5.972   4.947   0.519
71075SOL    HW215123   6.123   4.938   0.521
71076SOL     OW15124  10.312   4.594   0.182
71076SOL    HW115125  10.236   4.541   0.161
71076SOL    HW215126  10.328   4.577   0.275
71077SOL     OW15127   8.675  14.367  14.075
71077SOL    HW115128   8.593  14.386  14.028
71077SOL    HW215129   8.720  14.451  14.078
71078SOL     OW15130  14.781   0.197  14.555
71078SOL    HW115131  14.725   0.243  14.492
71078SOL    HW215132  14.807   0.264  14.619
71079SOL     OW15133   4.789   9.902   4.363
71079SOL    HW115134   4.694   9.897   4.352
71079SOL    HW215135   4.811   9.825   4.414
71080SOL     OW15136   0.304  10.728   7.676
71080SOL    HW115137   0.242  10.692   7.739
71080SOL    HW215138   0.301  10.822   7.691
71081SOL     OW15139   5.360  10.183   6.627
71081SOL    HW115140   5.340  10.276   6.618
71081SOL    HW215141   5.304  10.140   6.562
71082SOL     OW15142   6.519  14.101   2.511
71082SOL    HW115143   6.528  14.176   2.571
71082SOL    HW215144   6.482  14.032   2.564
71083SOL     OW15145   1.707   6.016   7.164
71083SOL    HW115146   1.663   6.088   7.121
71083SOL    HW215147   1.718   5.950   7.096
71084SOL     OW15148  11.157   6.350  11.351
71084SOL    HW115149  11.166   6.287  11.423
71084SOL    HW215150  11.197   6.430  11.385
71085SOL     OW15151   3.853   7.130   6.713
71085SOL    HW115152   3.917   7.087   6.769
71085SOL    HW215153   3.796   7.060   6.682
71086SOL     OW15154   6.687  12.719   4.157
71086SOL    HW115155   6.706  12.809   4.134
71086SOL    HW215156   6.596  12.706   4.132
71087SOL     OW15157  13.475   4.817   4.165
71087SOL    HW115158  13.540   4.846   4.230
71087SOL    HW215159  13.527   4.800   4.086
71088SOL     OW15160   3.347  13.069  14.827
71088SOL    HW115161   3.262  13.048  14.787
71088SOL    HW215162   3.366  13.158  14.797
71089SOL     OW15163  12.717  10.717   5.641
71089SOL    HW115164  12.737  10.627   5.666
71089SOL    HW215165  12.793  10.745   5.591
71090SOL     OW15166  12.620  10.287  10.045
71090SOL    HW115167  12.599  10.337  10.124
71090SOL    HW215168  12.640  10.199  10.077
71091SOL     OW15169   2.113   9.531   9.481
71091SOL    HW115170   2.065   9.511   9.400
71091SOL    HW215171   2.049   9.578   9.535
71092SOL     OW15172   5.031   5.194  10.755
71092SOL    HW115173   5.026   5.168  10.663
71092SOL    HW215174   5.096   5.264  10.757
71093SOL     OW15175   9.598   5.985   6.820
71093SOL    HW115176   9.663   6.052   6.840
71093SOL    HW215177   9.557   6.015   6.739
71094SOL     OW15178   6.028   1.939   8.930
71094SOL    HW115179   6.038   1.973   9.019
71094SOL    HW215180   5.937   1.909   8.926
71095SOL     OW15181   7.844  12.269  10.749
71095SOL    HW115182   7.779  12.333  10.779
71095SOL    HW215183   7.919  12.282  10.808
71096SOL     OW15184  12.593   0.510   9.865
71096SOL    HW115185  12.615   0.419   9.846
71096SOL    HW215186  12.606   0.519   9.959
71097SOL     OW15187  11.575   5.736   2.017
71097SOL    HW115188  11.634   5.672   1.978
71097SOL    HW215189  11.526   5.771   1.942
71098SOL     OW15190   8.953   7.573  11.778
71098SOL    HW115191   8.871   7.621  11.788
71098SOL    HW215192   8.943   7.527  11.694
71099SOL     OW15193   4.569  10.642   2.490
71099SOL    HW115194   4.588  10.651   2.397
71099SOL    HW215195   4.609  10.719   2.531
71100SOL     OW15196   1.080   1.487  11.085
71100SOL    HW115197   1.141   1.533  11.028
71100SOL    HW215198   1.027   1.434  11.025
71101SOL     OW15199   7.614   4.037   8.650
71101SOL    HW115200   7.681   4.002   8.590
71101SOL    HW215201   7.607   3.972   8.719
71102SOL     OW15202   1.562   0.520   5.193
71102SOL    HW115203   1.591   0.482   5.109
71102SOL    HW215204   1.644   0.538   5.240
71103SOL     OW15205   8.308   7.962   2.198
71103SOL    HW115206   8.280   8.018   2.270
71103SOL    HW215207   8.256   7.882   2.208
71104SOL     OW15208   5.440   1.631   6.115
71104SOL    HW115209   5.498   1.623   6.191
71104SOL    HW215210   5.427   1.726   6.105
71105SOL     OW15211  13.120   3.766   7.497
71105SOL    HW115212  13.124   3.781   7.402
71105SOL    HW215213  13.209   3.741   7.521
71106SOL     OW15214   8.870   7.529   3.532
71106SOL    HW115215   8.901   7.450   3.488
71106SOL    HW215216   8.876   7.508   3.626
71107SOL     OW15217   6.209   9.778   5.457
71107SOL    HW115218   6.199   9.723   5.535
71107SOL    HW215219   6.133   9.836   5.459
71108SOL     OW15220   5.334   6.999   8.211
71108SOL    HW115221   5.350   7.067   8.145
71108SOL    HW215222   5.239   6.988   8.212
71109SOL     OW15223  14.096   1.783   1.371
71109SOL    HW115224  14.136   1.789   1.458
71109SOL    HW215225  14.096   1.873   1.339
71110SOL     OW15226   8.062   7.748   5.004
71110SOL    HW115227   8.136   7.795   4.966
71110SOL    HW215228   8.025   7.808   5.068
71111SOL     OW15229   1.476   1.928  11.953
71111SOL    HW115230   1.505   1.838  11.945
71111SOL    HW215231   1.550   1.980  11.920
71112SOL     OW15232  13.152  13.506   2.029
71112SOL    HW115233  13.223  13.443   2.038
71112SOL    HW215234  13.085  13.476   2.091
71113SOL     OW15235  10.608   9.984   6.627
71113SOL    HW115236  10.590  10.025   6.712
71113SOL    HW215237  10.691   9.938   6.640
71114SOL     OW15238   6.965  11.056   9.910
71114SOL    HW115239   6.873  11.064   9.884
71114SOL    HW215240   6.963  11.009   9.993
71115SOL     OW15241  13.101  11.066  10.231
71115SOL    HW115242  13.112  11.054  10.325
71115SOL    HW215243  13.188  11.085  10.198
71116SOL     OW15244   8.827  12.599   3.252
71116SOL    HW115245   8.821  12.653   3.330
71116SOL    HW215246   8.768  12.526   3.269
71117SOL     OW15247   4.873   0.990  10.052
71117SOL    HW115248   4.964   0.997  10.081
71117SOL    HW215249   4.850   0.898  10.065
71118SOL     OW15250   0.050   9.227   8.291
71118SOL    HW115251   0.135   9.188   8.269
71118SOL    HW215252   0.026   9.278   8.214
71119SOL     OW15253   3.715  12.440   1.088
71119SOL    HW115254   3.798  12.430   1.042
71119SOL    HW215255   3.649  12.413   1.024
71120SOL     OW15256   3.958  12.500   3.523
71120SOL    HW115257   4.035  12.557   3.522
71120SOL    HW215258   3.912  12.521   3.442
71121SOL     OW15259   9.518   6.852  14.454
71121SOL    HW115260   9.461   6.842  14.531
71121SOL    HW215261   9.535   6.763  14.425
71122SOL     OW15262   9.397  14.275   4.059
71122SOL    HW115263   9.435  14.353   4.017
71122SOL    HW215264   9.381  14.214   3.987
71123SOL     OW15265   9.131   8.774  12.312
71123SOL    HW115266   9.044   8.758  12.349
71123SOL    HW215267   9.116   8.783  12.218
71124SOL     OW15268  11.147   9.699  12.385
71124SOL    HW115269  11.182   9.782  12.352
71124SOL    HW215270  11.113   9.655  12.307
71125SOL     OW15271   9.935   3.746   5.493
71125SOL    HW115272   9.901   3.666   5.532
71125SOL    HW215273   9.912   3.816   5.554
71126SOL     OW15274  11.866  13.540  14.034
71126SOL    HW115275  11.889  13.454  14.070
71126SOL    HW215276  11.947  13.591  14.039
71127SOL     OW15277   0.821  10.495   8.752
71127SOL    HW115278   0.802  10.586   8.777
71127SOL    HW215279   0.747  10.446   8.787
71128SOL     OW15280   2.929   5.114   5.671
71128SOL    HW115281   2.939   5.023   5.700
71128SOL    HW215282   2.943   5.111   5.577
71129SOL     OW15283   2.600   4.380   9.020
71129SOL    HW115284   2.532   4.330   9.065
71129SOL    HW215285   2.644   4.428   9.090
71130SOL     OW15286   3.798  13.090  11.756
71130SOL    HW115287   3.751  13.091  11.840
71130SOL    HW215288   3.730  13.110  11.691
71131SOL     OW15289   7.044   3.599   9.010
71131SOL    HW115290   7.033   3.680   8.961
71131SOL    HW215291   6.955   3.575   9.037
71132SOL     OW15292   8.144  14.429   0.427
71132SOL    HW115293   8.131  14.338   0.456
71132SOL    HW215294   8.056  14.460   0.405
71133SOL     OW15295   2.541  12.782   8.913
71133SOL    HW115296   2.572  12.754   8.827
71133SOL    HW215297   2.579  12.719   8.974
71134SOL     OW15298  11.740  13.952  10.688
71134SOL    HW115299  11.794  13.911  10.756
71134SOL    HW215300  11.757  14.045  10.696
71135SOL     OW15301  13.324  11.487   1.411
71135SOL    HW115302  13.411  11.464   1.443
71135SOL    HW215303  13.264  11.431   1.461
71136SOL     OW15304   3.312  10.879   7.908
71136SOL    HW115305   3.312  10.967   7.945
71136SOL    HW215306   3.398  10.870   7.866
71137SOL     OW15307   4.729   4.580   8.538
71137SOL    HW115308   4.806   4.592   8.592
71137SOL    HW215309   4.758   4.603   8.449
71138SOL     OW15310  10.717   9.242   7.187
71138SOL    HW115311  10.720   9.199   7.272
71138SOL    HW215312  10.669   9.324   7.203
71139SOL     OW15313   9.230   4.845   7.477
71139SOL    HW115314   9.169   4.795   7.423
71139SOL    HW215315   9.184   4.925   7.499
71140SOL     OW15316   1.834   3.140   6.684
71140SOL    HW115317   1.890   3.209   6.719
71140SOL    HW215318   1.830   3.075   6.754
71141SOL     OW15319  14.500  14.215  11.909
71141SOL    HW115320  14.557  14.221  11.832
71141SOL    HW215321  14.437  14.146  11.886
71142SOL     OW15322   2.612   1.962   4.501
71142SOL    HW115323   2.560   1.955   4.422
71142SOL    HW215324   2.654   1.877   4.510
71143SOL     OW15325   1.240   6.721  11.415
71143SOL    HW115326   1.171   6.675  11.463
71143SOL    HW215327   1.321   6.692  11.456
71144SOL     OW15328   4.959   9.682   3.556
71144SOL    HW115329   5.022   9.701   3.625
71144SOL    HW215330   4.888   9.744   3.570
71145SOL     OW15331  13.865   9.657   9.696
71145SOL    HW115332  13.785   9.670   9.645
71145SOL    HW215333  13.936   9.680   9.637
71146SOL     OW15334  14.271   1.034   0.821
71146SOL    HW115335  14.310   1.032   0.908
71146SOL    HW215336  14.344   1.053   0.762
71147SOL     OW15337   1.833   5.558   3.630
71147SOL    HW115338   1.788   5.614   3.693
71147SOL    HW215339   1.860   5.618   3.560
71148SOL     OW15340  11.848   4.919   9.005
71148SOL    HW115341  11.847   4.921   8.910
71148SOL    HW215342  11.784   4.986   9.031
71149SOL     OW15343  14.290   4.149   8.790
71149SOL    HW115344  14.364   4.118   8.739
71149SOL    HW215345  14.219   4.159   8.726
71150SOL     OW15346  12.786   4.838   6.934
71150SOL    HW115347  12.796   4.900   6.862
71150SOL    HW215348  12.774   4.753   6.892
71151SOL     OW15349  14.866   5.801   4.443
71151SOL    HW115350  14.837   5.773   4.356
71151SOL    HW215351  14.868   5.720   4.494
71152SOL     OW15352   7.127   8.363  11.823
71152SOL    HW115353   7.046   8.402  11.855
71152SOL    HW215354   7.111   8.269  11.826
71153SOL     OW15355   1.675   1.231   8.872
71153SOL    HW115356   1.640   1.318   8.891
71153SOL    HW215357   1.603   1.172   8.895
71154SOL     OW15358  10.713   0.033   4.112
71154SOL    HW115359  10.710   0.006   4.204
71154SOL    HW215360  10.748   0.122   4.114
71155SOL     OW15361   7.677   9.134   6.540
71155SOL    HW115362   7.649   9.218   6.504
71155SOL    HW215363   7.595   9.092   6.568
71156SOL     OW15364   3.191  10.810   3.302
71156SOL    HW115365   3.164  10.899   3.279
71156SOL    HW215366   3.286  10.810   3.295
71157SOL     OW15367   7.001   9.764  11.557
71157SOL    HW115368   6.931   9.746  11.494
71157SOL    HW215369   6.959   9.752  11.642
71158SOL     OW15370   6.598   6.453   2.072
71158SOL    HW115371   6.690   6.434   2.052
71158SOL    HW215372   6.584   6.542   2.039
71159SOL     OW15373   4.153   4.023   2.717
71159SOL    HW115374   4.104   4.099   2.686
71159SOL    HW215375   4.217   4.059   2.779
71160SOL     OW15376  14.784   3.096   3.848
71160SOL    HW115377  14.845   3.169   3.856
71160SOL    HW215378  14.804   3.040   3.924
71161SOL     OW15379   1.592   3.655  14.164
71161SOL    HW115380   1.636   3.683  14.244
71161SOL    HW215381   1.505   3.628  14.194
71162SOL     OW15382  12.176   7.085  12.016
71162SOL    HW115383  12.235   7.056  12.085
71162SOL    HW215384  12.089   7.061  12.047
71163SOL     OW15385  12.256  12.324   9.980
71163SOL    HW115386  12.222  12.408  10.011
71163SOL    HW215387  12.345  12.320  10.015
71164SOL     OW15388   7.342  10.350   1.290
71164SOL    HW115389   7.377  10.394   1.212
71164SOL    HW215390   7.419  10.312   1.332
71165SOL     OW15391   3.822   3.843   4.113
71165SOL    HW115392   3.853   3.894   4.187
71165SOL    HW215393   3.853   3.754   4.129
71166SOL     OW15394   6.840   9.532  11.954
71166SOL    HW115395   6.914   9.577  11.914
71166SOL    HW215396   6.817   9.464  11.891
71167SOL     OW15397  14.111  14.267   1.015
71167SOL    HW115398  14.097  14.173   1.028
71167SOL    HW215399  14.182  14.289   1.074
71168SOL     OW15400   3.725   2.395   5.358
71168SOL    HW115401   3.815   2.426   5.369
71168SOL    HW215402   3.732   2.300   5.365
71169SOL     OW15403  10.793   5.897   9.323
71169SOL    HW115404  10.799   5.812   9.280
71169SOL    HW215405  10.852   5.890   9.399
71170SOL     OW15406  13.707  11.889  12.939
71170SOL    HW115407  13.786  11.860  12.984
71170SOL    HW215408  13.645  11.817  12.948
71171SOL     OW15409   0.199   8.142   8.556
71171SOL    HW115410   0.291   8.115   8.564
71171SOL    HW215411   0.203   8.227   8.513
71172SOL     OW15412  12.656   7.456   5.676
71172SOL    HW115413  12.650   7.413   5.591
71172SOL    HW215414  12.605   7.537   5.665
71173SOL     OW15415   2.502   5.765  14.854
71173SOL    HW115416   2.557   5.786   0.058
71173SOL    HW215417   2.563   5.769  14.780
71174SOL     OW15418   9.102   3.348  14.408
71174SOL    HW115419   9.055   3.290  14.348
71174SOL    HW215420   9.180   3.298  14.433
71175SOL     OW15421   0.384   2.337   7.818
71175SOL    HW115422   0.352   2.250   7.793
71175SOL    HW215423   0.335   2.398   7.764
71176SOL     OW15424  11.064   5.199  13.084
71176SOL    HW115425  11.101   5.126  13.034
71176SOL    HW215426  11.127   5.216  13.153
71177SOL     OW15427  10.791   6.739   5.905
71177SOL    HW115428  10.730   6.794   5.955
71177SOL    HW215429  10.834   6.685   5.972
71178SOL     OW15430   3.179   8.565   2.515
71178SOL    HW115431   3.168   8.631   2.584
71178SOL    HW215432   3.244   8.603   2.456
71179SOL     OW15433   9.650  10.692  14.832
71179SOL    HW115434   9.564  10.711  14.794
71179SOL    HW215435   9.692  10.633  14.770
71180SOL     OW15436   3.803  13.531   4.314
71180SOL    HW115437   3.851  13.608   4.343
71180SOL    HW215438   3.856  13.457   4.345
71181SOL     OW15439  14.292   9.722  14.434
71181SOL    HW115440  14.270   9.631  14.417
71181SOL    HW215441  14.258   9.739  14.522
71182SOL     OW15442   5.131   8.586   3.929
71182SOL    HW115443   5.148   8.502   3.972
71182SOL    HW215444   5.054   8.570   3.875
71183SOL     OW15445   6.810   6.064  11.630
71183SOL    HW115446   6.810   6.021  11.715
71183SOL    HW215447   6.767   6.002  11.571
71184SOL     OW15448   1.800  13.752   4.699
71184SOL    HW115449   1.884  13.784   4.731
71184SOL    HW215450   1.817  13.730   4.607
71185SOL     OW15451   5.181   5.098   1.774
71185SOL    HW115452   5.260   5.073   1.822
71185SOL    HW215453   5.176   5.035   1.702
71186SOL     OW15454   2.296  10.495   7.596
71186SOL    HW115455   2.308  10.447   7.679
71186SOL    HW215456   2.226  10.448   7.551
71187SOL     OW15457   1.582  10.279   4.183
71187SOL    HW115458   1.579  10.185   4.169
71187SOL    HW215459   1.666  10.295   4.226
71188SOL     OW15460   7.104   3.574   5.406
71188SOL    HW115461   7.128   3.559   5.314
71188SOL    HW215462   7.029   3.516   5.421
71189SOL     OW15463   1.516   0.890   0.152
71189SOL    HW115464   1.543   0.955   0.087
71189SOL    HW215465   1.574   0.905   0.226
71190SOL     OW15466   7.303   0.296   2.929
71190SOL    HW115467   7.392   0.276   2.955
71190SOL    HW215468   7.304   0.293   2.833
71191SOL     OW15469   9.685   4.264   8.380
71191SOL    HW115470   9.632   4.186   8.366
71191SOL    HW215471   9.624   4.337   8.367
71192SOL     OW15472   0.567  14.083   7.769
71192SOL    HW115473   0.521  14.059   7.849
71192SOL    HW215474   0.658  14.096   7.796
71193SOL     OW15475   2.080   1.337  13.409
71193SOL    HW115476   1.988   1.346  13.433
71193SOL    HW215477   2.114   1.426  13.408
71194SOL     OW15478  11.753  13.262   1.073
71194SOL    HW115479  11.700  13.312   1.010
71194SOL    HW215480  11.715  13.282   1.158
71195SOL     OW15481   3.216   2.236  13.129
71195SOL    HW115482   3.301   2.278  13.144
71195SOL    HW215483   3.153   2.295  13.171
71196SOL     OW15484   4.924   8.054   4.117
71196SOL    HW115485   4.985   8.004   4.172
71196SOL    HW215486   4.886   7.988   4.058
71197SOL     OW15487  10.653  14.127  13.602
71197SOL    HW115488  10.618  14.211  13.575
71197SOL    HW215489  10.645  14.071  13.524
71198SOL     OW15490   2.916   5.205   2.770
71198SOL    HW115491   2.975   5.193   2.845
71198SOL    HW215492   2.900   5.299   2.767
71199SOL     OW15493  11.739  10.882   5.209
71199SOL    HW115494  11.764  10.975   5.212
71199SOL    HW215495  11.821  10.836   5.191
71200SOL     OW15496   8.023   8.670  14.075
71200SOL    HW115497   7.946   8.696  14.126
71200SOL    HW215498   8.098   8.696  14.128
71201SOL     OW15499   3.994   3.586   4.669
71201SOL    HW115500   4.078   3.630   4.682
71201SOL    HW215501   3.990   3.522   4.740
71202SOL     OW15502  14.549   5.901  14.202
71202SOL    HW115503  14.502   5.839  14.144
71202SOL    HW215504  14.550   5.983  14.153
71203SOL     OW15505  13.358   0.197   8.390
71203SOL    HW115506  13.349   0.110   8.428
71203SOL    HW215507  13.334   0.186   8.298
71204SOL     OW15508  14.024   9.367  13.293
71204SOL    HW115509  14.082   9.438  13.322
71204SOL    HW215510  13.945   9.378  13.347
71205SOL     OW15511   2.873   0.052   5.777
71205SOL    HW115512   2.863   0.066   5.683
71205SOL    HW215513   2.955   0.003   5.784
71206SOL     OW15514   0.593   6.689  12.994
71206SOL    HW115515   0.536   6.615  12.973
71206SOL    HW215516   0.629   6.669  13.080
71207SOL     OW15517  10.432   5.964  12.040
71207SOL    HW115518  10.463   5.949  12.129
71207SOL    HW215519  10.512   5.981  11.989
71208SOL     OW15520   9.097  10.525   6.178
71208SOL    HW115521   9.008  10.508   6.209
71208SOL    HW215522   9.132  10.438   6.157
71209SOL     OW15523   7.679  13.121   9.053
71209SOL    HW115524   7.639  13.098   9.137
71209SOL    HW215525   7.684  13.038   9.006
71210SOL     OW15526  12.444   1.772  14.822
71210SOL    HW115527  12.503   1.756   0.024
71210SOL    HW215528  12.477   1.851  14.780
71211SOL     OW15529   8.977   8.177   4.707
71211SOL    HW115530   9.049   8.230   4.673
71211SOL    HW215531   8.904   8.195   4.647
71212SOL     OW15532  11.176  10.803  13.918
71212SOL    HW115533  11.149  10.861  13.989
71212SOL    HW215534  11.169  10.855  13.839
71213SOL     OW15535   5.269   5.782   7.946
71213SOL    HW115536   5.358   5.763   7.976
71213SOL    HW215537   5.281   5.836   7.869
71214SOL     OW15538   5.559  10.058  10.933
71214SOL    HW115539   5.551  10.058  10.837
71214SOL    HW215540   5.652  10.070  10.950
71215SOL     OW15541  12.459   6.601  12.963
71215SOL    HW115542  12.385   6.552  12.999
71215SOL    HW215543  12.436   6.693  12.977
71216SOL     OW15544  10.865   3.917  13.357
71216SOL    HW115545  10.870   3.949  13.447
71216SOL    HW215546  10.774   3.932  13.331
71217SOL     OW15547   0.394  14.706  11.653
71217SOL    HW115548   0.315  14.654  11.672
71217SOL    HW215549   0.403  14.701  11.558
71218SOL     OW15550   2.903  14.447   7.752
71218SOL    HW115551   2.968  14.400   7.700
71218SOL    HW215552   2.928  14.539   7.744
71219SOL     OW15553  13.367   5.373  11.662
71219SOL    HW115554  13.338   5.464  11.671
71219SOL    HW215555  13.288   5.324  11.641
71220SOL     OW15556   5.871  10.702   2.596
71220SOL    HW115557   5.796  10.646   2.576
71220SOL    HW215558   5.945  10.658   2.555
71221SOL     OW15559  13.607   8.683   6.374
71221SOL    HW115560  13.639   8.659   6.287
71221SOL    HW215561  13.601   8.600   6.421
71222SOL     OW15562   6.445   1.745   8.996
71222SOL    HW115563   6.428   1.652   9.010
71222SOL    HW215564   6.397   1.767   8.917
71223SOL     OW15565  10.881   4.284  14.815
71223SOL    HW115566  10.875   4.274   0.039
71223SOL    HW215567  10.948   4.222  14.788
71224SOL     OW15568   0.021  11.315   0.738
71224SOL    HW115569  14.811  11.288   0.781
71224SOL    HW215570  14.866  11.385   0.679
71225SOL     OW15571   3.469   4.897   7.069
71225SOL    HW115572   3.484   4.966   7.004
71225SOL    HW215573   3.395   4.929   7.121
71226SOL     OW15574   7.610   5.275   1.471
71226SOL    HW115575   7.528   5.321   1.455
71226SOL    HW215576   7.597   5.189   1.431
71227SOL     OW15577  12.177   8.410   7.375
71227SOL    HW115578  12.138   8.423   7.289
71227SOL    HW215579  12.175   8.497   7.415
71228SOL     OW15580  11.927  14.657   9.362
71228SOL    HW115581  11.966  14.743   9.373
71228SOL    HW215582  11.868  14.667   9.287
71229SOL     OW15583  14.555   6.312   3.389
71229SOL    HW115584  14.631   6.323   3.446
71229SOL    HW215585  14.588   6.261   3.315
71230SOL     OW15586   5.515   1.757   8.871
71230SOL    HW115587   5.490   1.745   8.779
71230SOL    HW215588   5.438   1.797   8.912
71231SOL     OW15589   0.983   6.902   4.318
71231SOL    HW115590   1.046   6.914   4.389
71231SOL    HW215591   0.964   6.991   4.288
71232SOL     OW15592  14.206   4.684   4.941
71232SOL    HW115593  14.128   4.738   4.928
71232SOL    HW215594  14.176   4.595   4.922
71233SOL     OW15595   1.866  14.520   2.801
71233SOL    HW115596   1.892  14.576   2.874
71233SOL    HW215597   1.906  14.435   2.820
71234SOL     OW15598   4.384  11.403  10.901
71234SOL    HW115599   4.442  11.400  10.977
71234SOL    HW215600   4.405  11.324  10.851
71235SOL     OW15601  14.135  13.050   0.517
71235SOL    HW115602  14.064  13.112   0.529
71235SOL    HW215603  14.160  13.024   0.606
71236SOL     OW15604   5.695   1.229   1.584
71236SOL    HW115605   5.630   1.278   1.634
71236SOL    HW215606   5.648   1.153   1.551
71237SOL     OW15607   3.666   9.756   6.626
71237SOL    HW115608   3.683   9.734   6.717
71237SOL    HW215609   3.751   9.780   6.590
71238SOL     OW15610  12.141  12.751   1.440
71238SOL    HW115611  12.111  12.805   1.513
71238SOL    HW215612  12.126  12.661   1.469
71239SOL     OW15613  10.967   6.228  13.851
71239SOL    HW115614  10.915   6.214  13.772
71239SOL    HW215615  10.963   6.322  13.866
71240SOL     OW15616   3.606   8.726  11.324
71240SOL    HW115617   3.590   8.753  11.233
71240SOL    HW215618   3.519   8.722  11.364
71241SOL     OW15619   3.804   4.944   0.867
71241SOL    HW115620   3.767   4.860   0.839
71241SOL    HW215621   3.870   4.921   0.932
71242SOL     OW15622   1.233   2.312  14.276
71242SOL    HW115623   1.152   2.263  14.289
71242SOL    HW215624   1.301   2.246  14.267
71243SOL     OW15625   7.911   3.532   1.431
71243SOL    HW115626   7.941   3.623   1.430
71243SOL    HW215627   7.992   3.480   1.425
71244SOL     OW15628  11.577   5.891   0.888
71244SOL    HW115629  11.522   5.849   0.955
71244SOL    HW215630  11.601   5.820   0.829
71245SOL     OW15631   7.801   3.376   1.185
71245SOL    HW115632   7.785   3.396   1.093
71245SOL    HW215633   7.801   3.461   1.229
71246SOL     OW15634  14.835   5.995  13.307
71246SOL    HW115635  14.779   5.956  13.240
71246SOL    HW215636   0.042   6.023  13.260
71247SOL     OW15637  12.745   3.242   5.395
71247SOL    HW115638  12.711   3.187   5.325
71247SOL    HW215639  12.839   3.225   5.396
71248SOL     OW15640   6.213   3.783   9.838
71248SOL    HW115641   6.207   3.848   9.769
71248SOL    HW215642   6.302   3.749   9.832
71249SOL     OW15643  10.377   3.972   3.980
71249SOL    HW115644  10.394   3.903   4.044
71249SOL    HW215645  10.454   4.029   3.986
71250SOL     OW15646   3.971  13.021   4.178
71250SOL    HW115647   3.880  13.028   4.150
71250SOL    HW215648   4.018  13.083   4.122
71251SOL     OW15649   5.204  12.634   6.443
71251SOL    HW115650   5.277  12.637   6.381
71251SOL    HW215651   5.169  12.545   6.434
71252SOL     OW15652  13.376   3.127   1.447
71252SOL    HW115653  13.366   3.222   1.441
71252SOL    HW215654  13.470   3.112   1.443
71253SOL     OW15655   6.452   1.207   7.360
71253SOL    HW115656   6.470   1.290   7.314
71253SOL    HW215657   6.357   1.198   7.355
71254SOL     OW15658   1.481  10.916   0.616
71254SOL    HW115659   1.407  10.854   0.619
71254SOL    HW215660   1.491  10.936   0.523
71255SOL     OW15661  12.766   5.061   5.663
71255SOL    HW115662  12.712   5.053   5.584
71255SOL    HW215663  12.705   5.051   5.735
71256SOL     OW15664   2.280   2.369   5.821
71256SOL    HW115665   2.213   2.436   5.840
71256SOL    HW215666   2.363   2.412   5.843
71257SOL     OW15667  13.816  13.195   6.417
71257SOL    HW115668  13.833  13.118   6.363
71257SOL    HW215669  13.810  13.161   6.506
71258SOL     OW15670   4.112   1.777   5.396
71258SOL    HW115671   4.193   1.798   5.441
71258SOL    HW215672   4.059   1.729   5.460
71259SOL     OW15673   3.533  14.546   2.262
71259SOL    HW115674   3.463  14.486   2.237
71259SOL    HW215675   3.515  14.626   2.212
71260SOL     OW15676   0.391  12.639   0.080
71260SOL    HW115677   0.396  12.735   0.082
71260SOL    HW215678   0.409  12.616  14.861
71261SOL     OW15679   5.339   0.750   5.713
71261SOL    HW115680   5.393   0.778   5.639
71261SOL    HW215681   5.301   0.832   5.746
71262SOL     OW15682  13.856  11.382   5.067
71262SOL    HW115683  13.893  11.470   5.070
71262SOL    HW215684  13.931  11.324   5.060
71263SOL     OW15685   2.453   4.439  12.214
71263SOL    HW115686   2.507   4.502  12.262
71263SOL    HW215687   2.460   4.466  12.123
71264SOL     OW15688   3.473  13.000   0.883
71264SOL    HW115689   3.407  13.011   0.951
71264SOL    HW215690   3.430  12.949   0.815
71265SOL     OW15691   3.374  10.143   7.191
71265SOL    HW115692   3.349  10.225   7.234
71265SOL    HW215693   3.335  10.075   7.246
71266SOL     OW15694   5.778  13.489  11.670
71266SOL    HW115695   5.834  13.566  11.662
71266SOL    HW215696   5.743  13.494  11.759
71267SOL     OW15697   4.548   5.633  11.511
71267SOL    HW115698   4.546   5.724  11.481
71267SOL    HW215699   4.638   5.618  11.537
71268SOL     OW15700   2.214  10.105   5.584
71268SOL    HW115701   2.294  10.055   5.600
71268SOL    HW215702   2.208  10.114   5.489
71269SOL     OW15703   8.671   4.602   7.719
71269SOL    HW115704   8.748   4.657   7.705
71269SOL    HW215705   8.702   4.513   7.706
71270SOL     OW15706   6.562   6.663  14.038
71270SOL    HW115707   6.531   6.685  14.126
71270SOL    HW215708   6.547   6.569  14.031
71271SOL     OW15709   3.310   7.918   4.216
71271SOL    HW115710   3.241   7.977   4.186
71271SOL    HW215711   3.342   7.875   4.137
71272SOL     OW15712   7.723   8.582  13.659
71272SOL    HW115713   7.813   8.556  13.679
71272SOL    HW215714   7.693   8.517  13.594
71273SOL     OW15715  12.915   5.263   2.851
71273SOL    HW115716  12.923   5.346   2.899
71273SOL    HW215717  13.002   5.225   2.853
71274SOL     OW15718   2.619   6.029   6.695
71274SOL    HW115719   2.528   6.043   6.721
71274SOL    HW215720   2.652   5.963   6.757
71275SOL     OW15721   2.735  13.328   7.341
71275SOL    HW115722   2.740  13.277   7.421
71275SOL    HW215723   2.687  13.272   7.279
71276SOL     OW15724  10.438   6.573  13.129
71276SOL    HW115725  10.497   6.499  13.142
71276SOL    HW215726  10.393   6.583  13.213
71277SOL     OW15727   6.632   1.142   4.871
71277SOL    HW115728   6.599   1.053   4.857
71277SOL    HW215729   6.567   1.198   4.829
71278SOL     OW15730  11.564   4.887  12.205
71278SOL    HW115731  11.521   4.920  12.126
71278SOL    HW215732  11.587   4.966  12.255
71279SOL     OW15733   2.047   0.782   6.387
71279SOL    HW115734   1.990   0.706   6.398
71279SOL    HW215735   2.029   0.837   6.463
71280SOL     OW15736   5.550   3.738   7.889
71280SOL    HW115737   5.519   3.778   7.971
71280SOL    HW215738   5.614   3.801   7.854
71281SOL     OW15739   4.911   7.837   9.870
71281SOL    HW115740   4.890   7.807   9.782
71281SOL    HW215741   4.985   7.782   9.897
71282SOL     OW15742  10.345   7.178   8.426
71282SOL    HW115743  10.414   7.229   8.469
71282SOL    HW215744  10.310   7.237   8.359
71283SOL     OW15745  11.589  13.866   1.319
71283SOL    HW115746  11.512  13.923   1.314
71283SOL    HW215747  11.582  13.825   1.406
71284SOL     OW15748   5.636   5.398   8.026
71284SOL    HW115749   5.663   5.306   8.021
71284SOL    HW215750   5.670   5.429   8.110
71285SOL     OW15751   0.609   4.569  12.480
71285SOL    HW115752   0.523   4.570  12.520
71285SOL    HW215753   0.661   4.629  12.534
71286SOL     OW15754  10.695  14.720  14.871
71286SOL    HW115755  10.679  14.698  14.779
71286SOL    HW215756  10.790  14.717   0.009
71287SOL     OW15757  14.418  10.380  14.867
71287SOL    HW115758  14.375  10.407   0.077
71287SOL    HW215759  14.407  10.285  14.865
71288SOL     OW15760   8.804  11.749   7.469
71288SOL    HW115761   8.766  11.827   7.430
71288SOL    HW215762   8.744  11.678   7.445
71289SOL     OW15763  13.446  10.283   5.156
71289SOL    HW115764  13.510  10.257   5.090
71289SOL    HW215765  13.438  10.378   5.145
71290SOL     OW15766  14.445   3.532   2.242
71290SOL    HW115767  14.486   3.545   2.327
71290SOL    HW215768  14.468   3.442   2.218
71291SOL     OW15769   6.961   3.894   5.218
71291SOL    HW115770   7.015   3.947   5.159
71291SOL    HW215771   6.884   3.948   5.234
71292SOL     OW15772   0.710   0.594   8.408
71292SOL    HW115773   0.703   0.656   8.481
71292SOL    HW215774   0.729   0.649   8.332
71293SOL     OW15775   3.929  10.225  11.687
71293SOL    HW115776   3.863  10.161  11.660
71293SOL    HW215777   3.934  10.286  11.614
71294SOL     OW15778   9.556   3.396   4.214
71294SOL    HW115779   9.461   3.401   4.227
71294SOL    HW215780   9.573   3.304   4.197
71295SOL     OW15781  12.666   1.101  13.971
71295SOL    HW115782  12.692   1.056  14.052
71295SOL    HW215783  12.574   1.077  13.959
71296SOL     OW15784   1.907   6.413   7.288
71296SOL    HW115785   1.940   6.327   7.262
71296SOL    HW215786   1.882   6.403   7.380
71297SOL     OW15787  11.188   9.267   9.220
71297SOL    HW115788  11.263   9.269   9.162
71297SOL    HW215789  11.126   9.329   9.182
71298SOL     OW15790  13.218   2.057   4.310
71298SOL    HW115791  13.223   2.123   4.379
71298SOL    HW215792  13.238   1.975   4.354
71299SOL     OW15793  12.978   2.063   9.081
71299SOL    HW115794  13.010   1.991   9.135
71299SOL    HW215795  12.889   2.038   9.058
71300SOL     OW15796  13.252   1.063   1.769
71300SOL    HW115797  13.337   1.079   1.728
71300SOL    HW215798  13.254   0.970   1.792
71301SOL     OW15799   9.875   7.729   1.731
71301SOL    HW115800   9.836   7.675   1.663
71301SOL    HW215801   9.968   7.731   1.710
71302SOL     OW15802   5.852   2.698  12.338
71302SOL    HW115803   5.916   2.666  12.401
71302SOL    HW215804   5.767   2.681  12.379
71303SOL     OW15805   9.734   1.567  12.442
71303SOL    HW115806   9.739   1.646  12.497
71303SOL    HW215807   9.823   1.556  12.409
71304SOL     OW15808   7.740  11.292   7.255
71304SOL    HW115809   7.810  11.259   7.311
71304SOL    HW215810   7.766  11.266   7.167
71305SOL     OW15811   9.774   2.897  11.925
71305SOL    HW115812   9.774   2.987  11.893
71305SOL    HW215813   9.685   2.881  11.954
71306SOL     OW15814   8.226  13.241   4.998
71306SOL    HW115815   8.214  13.333   5.023
71306SOL    HW215816   8.310  13.217   5.036
71307SOL     OW15817   4.934   1.257  10.791
71307SOL    HW115818   4.944   1.211  10.874
71307SOL    HW215819   4.971   1.197  10.726
71308SOL     OW15820   4.437  13.808  11.996
71308SOL    HW115821   4.381  13.739  12.031
71308SOL    HW215822   4.479  13.769  11.920
71309SOL     OW15823  14.076   9.033   9.228
71309SOL    HW115824  14.137   9.014   9.157
71309SOL    HW215825  13.993   9.053   9.184
71310SOL     OW15826   5.891   2.048   1.185
71310SOL    HW115827   5.902   2.143   1.185
71310SOL    HW215828   5.797   2.034   1.187
71311SOL     OW15829  13.027   2.323   7.852
71311SOL    HW115830  12.968   2.391   7.818
71311SOL    HW215831  13.077   2.368   7.920
71312SOL     OW15832   3.525   6.764   3.661
71312SOL    HW115833   3.585   6.693   3.637
71312SOL    HW215834   3.582   6.832   3.697
71313SOL     OW15835  11.142   4.683   6.081
71313SOL    HW115836  11.111   4.645   6.163
71313SOL    HW215837  11.157   4.607   6.024
71314SOL     OW15838   9.885  12.345   5.402
71314SOL    HW115839   9.837  12.373   5.324
71314SOL    HW215840   9.911  12.255   5.383
71315SOL     OW15841  10.252  14.455  12.077
71315SOL    HW115842  10.262  14.481  12.169
71315SOL    HW215843  10.340  14.461  12.041
71316SOL     OW15844  14.839   7.076   0.599
71316SOL    HW115845  14.796   7.028   0.528
71316SOL    HW215846  14.813   7.167   0.586
71317SOL     OW15847   4.205  14.544   2.476
71317SOL    HW115848   4.235  14.461   2.439
71317SOL    HW215849   4.124  14.521   2.523
71318SOL     OW15850  11.548  11.244   5.805
71318SOL    HW115851  11.572  11.303   5.734
71318SOL    HW215852  11.579  11.287   5.884
71319SOL     OW15853   9.879  11.390   0.418
71319SOL    HW115854   9.827  11.384   0.338
71319SOL    HW215855   9.968  11.372   0.391
71320SOL     OW15856  10.714  14.476   7.497
71320SOL    HW115857  10.711  14.571   7.509
71320SOL    HW215858  10.625  14.453   7.472
71321SOL     OW15859   4.726   1.370   3.408
71321SOL    HW115860   4.790   1.437   3.431
71321SOL    HW215861   4.756   1.292   3.455
71322SOL     OW15862   3.987   0.635   1.365
71322SOL    HW115863   4.045   0.674   1.430
71322SOL    HW215864   4.036   0.560   1.330
71323SOL     OW15865  10.106   4.589   2.392
71323SOL    HW115866  10.012   4.606   2.396
71323SOL    HW215867  10.116   4.503   2.433
71324SOL     OW15868  10.096  12.889   2.107
71324SOL    HW115869  10.124  12.872   2.017
71324SOL    HW215870  10.034  12.819   2.127
71325SOL     OW15871  11.263   5.561  13.926
71325SOL    HW115872  11.201   5.507  13.878
71325SOL    HW215873  11.239   5.651  13.905
71326SOL     OW15874   1.475   0.766   8.202
71326SOL    HW115875   1.399   0.766   8.145
71326SOL    HW215876   1.549   0.749   8.144
71327SOL     OW15877   6.428   6.092   2.248
71327SOL    HW115878   6.477   6.173   2.261
71327SOL    HW215879   6.343   6.121   2.213
71328SOL     OW15880  11.831   0.911   7.608
71328SOL    HW115881  11.809   0.966   7.683
71328SOL    HW215882  11.851   0.825   7.646
71329SOL     OW15883  14.699  14.839  14.299
71329SOL    HW115884  14.677  14.791  14.219
71329SOL    HW215885  14.654   0.052  14.289
71330SOL     OW15886   4.578   6.544   1.213
71330SOL    HW115887   4.570   6.519   1.305
71330SOL    HW215888   4.660   6.502   1.184
71331SOL     OW15889   2.914   3.712  13.935
71331SOL    HW115890   3.004   3.733  13.960
71331SOL    HW215891   2.860   3.771  13.986
71332SOL     OW15892   9.381   3.579   7.262
71332SOL    HW115893   9.454   3.624   7.304
71332SOL    HW215894   9.404   3.486   7.267
71333SOL     OW15895   7.886   1.423   5.350
71333SOL    HW115896   7.900   1.329   5.359
71333SOL    HW215897   7.822   1.444   5.419
71334SOL     OW15898  12.201   2.493   3.503
71334SOL    HW115899  12.130   2.542   3.463
71334SOL    HW215900  12.218   2.537   3.586
71335SOL     OW15901   2.948   3.235   2.354
71335SOL    HW115902   2.922   3.148   2.386
71335SOL    HW215903   2.872   3.265   2.304
71336SOL     OW15904   8.252   2.601  11.372
71336SOL    HW115905   8.174   2.609  11.428
71336SOL    HW215906   8.244   2.674  11.310
71337SOL     OW15907  12.734  11.935   0.794
71337SOL    HW115908  12.671  11.938   0.866
71337SOL    HW215909  12.720  12.017   0.746
71338SOL     OW15910  14.556   9.449   1.231
71338SOL    HW115911  14.619   9.387   1.196
71338SOL    HW215912  14.564   9.526   1.174
71339SOL     OW15913   9.819   3.779  12.942
71339SOL    HW115914   9.819   3.800  12.849
71339SOL    HW215915   9.749   3.833  12.979
71340SOL     OW15916   1.711   0.412  13.257
71340SOL    HW115917   1.801   0.388  13.279
71340SOL    HW215918   1.683   0.471  13.327
71341SOL     OW15919   5.932  14.762   6.005
71341SOL    HW115920   5.920  14.813   6.085
71341SOL    HW215921   5.981  14.820   5.947
71342SOL     OW15922  12.325  13.617  11.730
71342SOL    HW115923  12.281  13.555  11.787
71342SOL    HW215924  12.257  13.679  11.705
71343SOL     OW15925   0.669   7.119   9.257
71343SOL    HW115926   0.686   7.050   9.193
71343SOL    HW215927   0.574   7.119   9.268
71344SOL     OW15928   1.003  12.835   1.972
71344SOL    HW115929   0.983  12.742   1.964
71344SOL    HW215930   1.093  12.837   2.006
71345SOL     OW15931   2.885   9.607   5.988
71345SOL    HW115932   2.914   9.669   6.055
71345SOL    HW215933   2.954   9.608   5.922
71346SOL     OW15934   5.738  10.198   2.747
71346SOL    HW115935   5.699  10.285   2.757
71346SOL    HW215936   5.689  10.157   2.676
71347SOL     OW15937  10.611   9.161   8.989
71347SOL    HW115938  10.546   9.176   9.057
71347SOL    HW215939  10.694   9.186   9.028
71348SOL     OW15940   4.006   6.792   9.262
71348SOL    HW115941   4.057   6.800   9.343
71348SOL    HW215942   4.072   6.781   9.194
71349SOL     OW15943  12.744   3.823   4.085
71349SOL    HW115944  12.786   3.833   4.000
71349SOL    HW215945  12.724   3.730   4.091
71350SOL     OW15946   8.461  12.543   0.842
71350SOL    HW115947   8.547  12.531   0.803
71350SOL    HW215948   8.476  12.534   0.936
71351SOL     OW15949   3.137   2.422   0.806
71351SOL    HW115950   3.101   2.358   0.745
71351SOL    HW215951   3.060   2.471   0.837
71352SOL     OW15952   1.218   1.716   7.564
71352SOL    HW115953   1.259   1.778   7.503
71352SOL    HW215954   1.238   1.630   7.527
71353SOL     OW15955   3.782  11.604   9.517
71353SOL    HW115956   3.733  11.677   9.554
71353SOL    HW215957   3.846  11.582   9.585
71354SOL     OW15958  12.573   2.509  12.362
71354SOL    HW115959  12.484   2.485  12.385
71354SOL    HW215960  12.568   2.603  12.341
71355SOL     OW15961   6.990  13.114   1.506
71355SOL    HW115962   6.951  13.193   1.543
71355SOL    HW215963   6.942  13.099   1.425
71356SOL     OW15964   7.050   6.214   8.901
71356SOL    HW115965   7.056   6.143   8.836
71356SOL    HW215966   6.991   6.277   8.861
71357SOL     OW15967   8.813   1.457  11.348
71357SOL    HW115968   8.858   1.492  11.271
71357SOL    HW215969   8.872   1.477  11.421
71358SOL     OW15970   8.609  10.986   5.774
71358SOL    HW115971   8.683  11.035   5.810
71358SOL    HW215972   8.534  11.011   5.829
71359SOL     OW15973   9.493   4.366  10.073
71359SOL    HW115974   9.414   4.347  10.023
71359SOL    HW215975   9.491   4.461  10.087
71360SOL     OW15976   3.407  11.254  10.344
71360SOL    HW115977   3.367  11.289  10.265
71360SOL    HW215978   3.472  11.192  10.311
71361SOL     OW15979  13.601  13.419   4.700
71361SOL    HW115980  13.659  13.366   4.645
71361SOL    HW215981  13.660  13.464   4.760
71362SOL     OW15982  12.022  13.962   1.489
71362SOL    HW115983  11.943  13.939   1.539
71362SOL    HW215984  12.078  13.884   1.496
71363SOL     OW15985  11.429   6.011  11.529
71363SOL    HW115986  11.521   6.031  11.548
71363SOL    HW215987  11.396   5.971  11.609
71364SOL     OW15988   6.246  11.222   9.520
71364SOL    HW115989   6.177  11.255   9.577
71364SOL    HW215990   6.270  11.137   9.556
71365SOL     OW15991   5.915   5.250   1.818
71365SOL    HW115992   5.870   5.311   1.760
71365SOL    HW215993   5.993   5.297   1.848
71366SOL     OW15994   3.158  12.557  10.478
71366SOL    HW115995   3.067  12.549  10.505
71366SOL    HW215996   3.178  12.475  10.433
71367SOL     OW15997   0.279   2.706   9.004
71367SOL    HW115998   0.299   2.793   8.970
71367SOL    HW215999   0.342   2.693   9.075
71368SOL     OW16000   3.144  12.203  11.021
71368SOL    HW116001   3.222  12.149  11.010
71368SOL    HW216002   3.098  12.196  10.938
71369SOL     OW16003  14.655  10.212   8.490
71369SOL    HW116004  14.708  10.175   8.419
71369SOL    HW216005  14.659  10.145   8.559
71370SOL     OW16006   7.259   6.900   7.281
71370SOL    HW116007   7.210   6.950   7.346
71370SOL    HW216008   7.339   6.950   7.267
71371SOL     OW16009  14.295   1.706   1.184
71371SOL    HW116010  14.229   1.713   1.253
71371SOL    HW216011  14.267   1.631   1.132
71372SOL     OW16012  14.320  12.164   0.215
71372SOL    HW116013  14.231  12.131   0.231
71372SOL    HW216014  14.310  12.259   0.217
71373SOL     OW16015  10.860  12.235   3.900
71373SOL    HW116016  10.911  12.308   3.863
71373SOL    HW216017  10.799  12.211   3.830
71374SOL     OW16018   9.823   8.623   4.030
71374SOL    HW116019   9.829   8.714   4.059
71374SOL    HW216020   9.891   8.577   4.079
71375SOL     OW16021   9.911   3.052   0.249
71375SOL    HW116022   9.947   3.055   0.161
71375SOL    HW216023   9.834   2.995   0.242
71376SOL     OW16024   1.499   2.567  12.513
71376SOL    HW116025   1.486   2.534  12.424
71376SOL    HW216026   1.477   2.492  12.569
71377SOL     OW16027   6.668   0.053  14.217
71377SOL    HW116028   6.672   0.125  14.155
71377SOL    HW216029   6.646  14.848  14.164
71378SOL     OW16030   9.008  13.800   1.940
71378SOL    HW116031   9.103  13.792   1.943
71378SOL    HW216032   8.979  13.774   2.028
71379SOL     OW16033  11.564   1.261  12.367
71379SOL    HW116034  11.480   1.257  12.322
71379SOL    HW216035  11.592   1.352  12.359
71380SOL     OW16036  12.857   4.261   9.356
71380SOL    HW116037  12.786   4.309   9.314
71380SOL    HW216038  12.814   4.190   9.403
71381SOL     OW16039   3.945  13.810   6.953
71381SOL    HW116040   3.903  13.771   6.876
71381SOL    HW216041   3.964  13.900   6.927
71382SOL     OW16042   4.041   4.476  13.297
71382SOL    HW116043   4.078   4.416  13.232
71382SOL    HW216044   3.952   4.444  13.311
71383SOL     OW16045   3.341   2.894  10.211
71383SOL    HW116046   3.425   2.939  10.213
71383SOL    HW216047   3.351   2.821  10.272
71384SOL     OW16048  11.829   7.979   0.773
71384SOL    HW116049  11.826   7.971   0.677
71384SOL    HW216050  11.904   8.035   0.790
71385SOL     OW16051   2.538  11.440   4.965
71385SOL    HW116052   2.518  11.350   4.992
71385SOL    HW216053   2.616  11.463   5.017
71386SOL     OW16054   1.430  13.793  10.884
71386SOL    HW116055   1.399  13.877  10.919
71386SOL    HW216056   1.423  13.733  10.958
71387SOL     OW16057  13.619   5.223  11.105
71387SOL    HW116058  13.589   5.261  11.022
71387SOL    HW216059  13.598   5.130  11.098
71388SOL     OW16060   5.323   7.725  11.140
71388SOL    HW116061   5.390   7.691  11.199
71388SOL    HW216062   5.327   7.820  11.151
71389SOL     OW16063   9.638   0.458   1.729
71389SOL    HW116064   9.730   0.456   1.702
71389SOL    HW216065   9.599   0.381   1.689
71390SOL     OW16066  12.007   1.497  10.380
71390SOL    HW116067  12.093   1.529  10.352
71390SOL    HW216068  11.965   1.469  10.299
71391SOL     OW16069   9.781   5.864   0.206
71391SOL    HW116070   9.718   5.933   0.185
71391SOL    HW216071   9.864   5.896   0.173
71392SOL     OW16072  10.703  10.331   0.065
71392SOL    HW116073  10.757  10.410   0.063
71392SOL    HW216074  10.725  10.284  14.856
71393SOL     OW16075  10.574   1.369  14.622
71393SOL    HW116076  10.556   1.367  14.528
71393SOL    HW216077  10.630   1.292  14.637
71394SOL     OW16078   8.731  10.170   8.554
71394SOL    HW116079   8.764  10.166   8.464
71394SOL    HW216080   8.651  10.222   8.548
71395SOL     OW16081   7.700   0.187   3.379
71395SOL    HW116082   7.730   0.109   3.333
71395SOL    HW216083   7.780   0.234   3.401
71396SOL     OW16084   5.919  14.043   6.322
71396SOL    HW116085   5.880  14.068   6.238
71396SOL    HW216086   5.862  14.083   6.387
71397SOL     OW16087   7.735   6.672   8.087
71397SOL    HW116088   7.672   6.652   8.018
71397SOL    HW216089   7.808   6.613   8.070
71398SOL     OW16090   7.909  12.296   6.873
71398SOL    HW116091   7.905  12.286   6.778
71398SOL    HW216092   8.002  12.288   6.893
71399SOL     OW16093   0.250   0.411   6.747
71399SOL    HW116094   0.180   0.383   6.688
71399SOL    HW216095   0.329   0.412   6.693
71400SOL     OW16096  12.230  12.896   2.988
71400SOL    HW116097  12.214  12.968   3.050
71400SOL    HW216098  12.310  12.922   2.943
71401SOL     OW16099   6.200   0.811   9.092
71401SOL    HW116100   6.232   0.829   9.181
71401SOL    HW216101   6.110   0.781   9.105
71402SOL     OW16102   4.823   9.287   2.841
71402SOL    HW116103   4.791   9.242   2.763
71402SOL    HW216104   4.795   9.378   2.829
71403SOL     OW16105   1.253   6.302   1.099
71403SOL    HW116106   1.235   6.209   1.112
71403SOL    HW216107   1.230   6.318   1.007
71404SOL     OW16108  10.799  10.948  12.082
71404SOL    HW116109  10.858  10.878  12.055
71404SOL    HW216110  10.784  10.932  12.175
71405SOL     OW16111   3.654   2.793   6.533
71405SOL    HW116112   3.682   2.849   6.606
71405SOL    HW216113   3.705   2.823   6.458
71406SOL     OW16114  14.350  10.809   8.744
71406SOL    HW116115  14.444  10.824   8.743
71406SOL    HW216116  14.314  10.881   8.795
71407SOL     OW16117   1.421   4.489   9.822
71407SOL    HW116118   1.443   4.463   9.911
71407SOL    HW216119   1.461   4.575   9.812
71408SOL     OW16120   9.508   5.018  12.896
71408SOL    HW116121   9.596   5.045  12.920
71408SOL    HW216122   9.472   5.092  12.848
71409SOL     OW16123   6.381   3.561   5.749
71409SOL    HW116124   6.433   3.641   5.763
71409SOL    HW216125   6.444   3.490   5.760
71410SOL     OW16126   4.072   7.759   5.255
71410SOL    HW116127   4.009   7.722   5.317
71410SOL    HW216128   4.021   7.781   5.178
71411SOL     OW16129  14.470   1.715  14.355
71411SOL    HW116130  14.545   1.706  14.414
71411SOL    HW216131  14.430   1.628  14.353
71412SOL     OW16132   6.655  12.195  13.320
71412SOL    HW116133   6.709  12.146  13.259
71412SOL    HW216134   6.717  12.237  13.379
71413SOL     OW16135  12.016   5.901  13.153
71413SOL    HW116136  11.965   5.915  13.074
71413SOL    HW216137  11.958   5.853  13.211
71414SOL     OW16138   6.228   4.361  14.528
71414SOL    HW116139   6.298   4.307  14.566
71414SOL    HW216140   6.165   4.372  14.599
71415SOL     OW16141   4.594  10.085   6.506
71415SOL    HW116142   4.617  10.175   6.529
71415SOL    HW216143   4.513  10.068   6.555
71416SOL     OW16144   3.455   0.527   4.167
71416SOL    HW116145   3.423   0.562   4.084
71416SOL    HW216146   3.446   0.432   4.159
71417SOL     OW16147   2.811   3.433  11.665
71417SOL    HW116148   2.846   3.446  11.576
71417SOL    HW216149   2.883   3.391  11.713
71418SOL     OW16150  12.219   8.222   7.940
71418SOL    HW116151  12.197   8.284   7.870
71418SOL    HW216152  12.145   8.161   7.942
71419SOL     OW16153  11.931  10.041  14.177
71419SOL    HW116154  11.849  10.007  14.142
71419SOL    HW216155  11.976   9.964  14.212
71420SOL     OW16156  14.345   5.129   3.866
71420SOL    HW116157  14.363   5.082   3.784
71420SOL    HW216158  14.413   5.099   3.926
71421SOL     OW16159   5.643   7.004  10.681
71421SOL    HW116160   5.570   6.998  10.743
71421SOL    HW216161   5.653   7.097  10.665
71422SOL     OW16162   4.800   1.480  10.845
71422SOL    HW116163   4.855   1.404  10.831
71422SOL    HW216164   4.789   1.520  10.759
71423SOL     OW16165   9.672   0.152   3.469
71423SOL    HW116166   9.626   0.071   3.448
71423SOL    HW216167   9.619   0.193   3.538
71424SOL     OW16168  12.603   5.560   9.565
71424SOL    HW116169  12.541   5.625   9.595
71424SOL    HW216170  12.584   5.550   9.471
71425SOL     OW16171   9.237  11.618   0.694
71425SOL    HW116172   9.234  11.559   0.619
71425SOL    HW216173   9.149  11.655   0.699
71426SOL     OW16174  14.585   7.258  11.723
71426SOL    HW116175  14.625   7.261  11.636
71426SOL    HW216176  14.532   7.179  11.722
71427SOL     OW16177  14.128  14.524  13.921
71427SOL    HW116178  14.215  14.487  13.906
71427SOL    HW216179  14.095  14.480  13.999
71428SOL     OW16180   5.246  12.073   1.394
71428SOL    HW116181   5.303  12.146   1.372
71428SOL    HW216182   5.279  12.040   1.477
71429SOL     OW16183  14.641  10.430   1.398
71429SOL    HW116184  14.628  10.474   1.481
71429SOL    HW216185  14.692  10.492   1.345
71430SOL     OW16186   9.685   2.320   7.187
71430SOL    HW116187   9.686   2.285   7.098
71430SOL    HW216188   9.729   2.405   7.180
71431SOL     OW16189   6.842   2.005   7.245
71431SOL    HW116190   6.816   2.077   7.303
71431SOL    HW216191   6.760   1.960   7.224
71432SOL     OW16192   7.217   5.949   6.926
71432SOL    HW116193   7.173   5.867   6.903
71432SOL    HW216194   7.218   5.999   6.844
71433SOL     OW16195  13.311  12.037   9.312
71433SOL    HW116196  13.381  12.088   9.353
71433SOL    HW216197  13.316  12.061   9.219
71434SOL     OW16198  12.989   3.002   2.353
71434SOL    HW116199  12.975   2.959   2.437
71434SOL    HW216200  13.030   2.936   2.298
71435SOL     OW16201  13.656   0.636   9.550
71435SOL    HW116202  13.700   0.633   9.465
71435SOL    HW216203  13.726   0.655   9.612
71436SOL     OW16204   0.923   6.569   8.466
71436SOL    HW116205   1.001   6.515   8.476
71436SOL    HW216206   0.954   6.659   8.480
71437SOL     OW16207   1.265   0.409  13.703
71437SOL    HW116208   1.179   0.395  13.743
71437SOL    HW216209   1.327   0.370  13.766
71438SOL     OW16210  10.427   3.150  12.122
71438SOL    HW116211  10.465   3.104  12.196
71438SOL    HW216212  10.501   3.167  12.064
71439SOL     OW16213   8.978   2.421  13.141
71439SOL    HW116214   8.934   2.403  13.224
71439SOL    HW216215   8.926   2.491  13.101
71440SOL     OW16216   1.213  12.333   2.342
71440SOL    HW116217   1.301  12.364   2.366
71440SOL    HW216218   1.228  12.246   2.304
71441SOL     OW16219  12.617   7.032   7.722
71441SOL    HW116220  12.600   6.997   7.635
71441SOL    HW216221  12.690   7.093   7.709
71442SOL     OW16222   4.539  12.652   3.623
71442SOL    HW116223   4.557  12.744   3.604
71442SOL    HW216224   4.620  12.606   3.600
71443SOL     OW16225   3.418   9.505  13.891
71443SOL    HW116226   3.348   9.441  13.902
71443SOL    HW216227   3.441   9.500  13.798
71444SOL     OW16228   7.121   5.066   8.394
71444SOL    HW116229   7.132   5.153   8.356
71444SOL    HW216230   7.063   5.079   8.469
71445SOL     OW16231   9.145   8.609  13.792
71445SOL    HW116232   9.098   8.692  13.791
71445SOL    HW216233   9.233   8.631  13.762
71446SOL     OW16234  11.917   3.000   3.411
71446SOL    HW116235  11.936   3.090   3.382
71446SOL    HW216236  11.907   3.007   3.506
71447SOL     OW16237   7.102   4.103   0.177
71447SOL    HW116238   7.020   4.058   0.196
71447SOL    HW216239   7.107   4.106   0.081
71448SOL     OW16240  13.572   3.817   6.164
71448SOL    HW116241  13.593   3.734   6.208
71448SOL    HW216242  13.657   3.861   6.155
71449SOL     OW16243   0.495   0.734   2.073
71449SOL    HW116244   0.493   0.678   1.995
71449SOL    HW216245   0.492   0.673   2.146
71450SOL     OW16246   3.804   3.272   9.765
71450SOL    HW116247   3.890   3.279   9.807
71450SOL    HW216248   3.776   3.362   9.753
71451SOL     OW16249   3.517  14.602  14.646
71451SOL    HW116250   3.481  14.677  14.599
71451SOL    HW216251   3.601  14.585  14.604
71452SOL     OW16252  10.792   4.747   8.503
71452SOL    HW116253  10.835   4.662   8.512
71452SOL    HW216254  10.708   4.727   8.462
71453SOL     OW16255   5.061   3.873   2.213
71453SOL    HW116256   5.117   3.804   2.249
71453SOL    HW216257   5.100   3.954   2.246
71454SOL     OW16258  14.353   3.746   4.063
71454SOL    HW116259  14.449   3.741   4.061
71454SOL    HW216260  14.330   3.720   4.152
71455SOL     OW16261   0.802   1.314   5.802
71455SOL    HW116262   0.820   1.376   5.873
71455SOL    HW216263   0.845   1.233   5.828
71456SOL     OW16264   9.592   6.392   6.814
71456SOL    HW116265   9.625   6.409   6.726
71456SOL    HW216266   9.670   6.378   6.867
71457SOL     OW16267   3.400   5.401   8.338
71457SOL    HW116268   3.457   5.337   8.382
71457SOL    HW216269   3.413   5.482   8.387
71458SOL     OW16270   0.692   6.397   8.181
71458SOL    HW116271   0.618   6.387   8.121
71458SOL    HW216272   0.704   6.492   8.188
71459SOL     OW16273  13.766   6.004  11.400
71459SOL    HW116274  13.831   5.937  11.422
71459SOL    HW216275  13.765   6.062  11.475
71460SOL     OW16276   7.025   3.167  12.681
71460SOL    HW116277   7.005   3.239  12.621
71460SOL    HW216278   7.088   3.204  12.742
71461SOL     OW16279  11.833  13.811   0.203
71461SOL    HW116280  11.798  13.898   0.225
71461SOL    HW216281  11.888  13.788   0.278
71462SOL     OW16282   7.280   8.922  10.376
71462SOL    HW116283   7.366   8.888  10.400
71462SOL    HW216284   7.271   9.003  10.427
71463SOL     OW16285   5.511  10.944  10.732
71463SOL    HW116286   5.562  10.864  10.725
71463SOL    HW216287   5.567  11.004  10.781
71464SOL     OW16288   0.490  14.743   3.946
71464SOL    HW116289   0.571  14.726   3.898
71464SOL    HW216290   0.422  14.744   3.879
71465SOL     OW16291   8.831   0.679  12.471
71465SOL    HW116292   8.809   0.739  12.543
71465SOL    HW216293   8.831   0.735  12.393
71466SOL     OW16294  13.317   3.565   6.899
71466SOL    HW116295  13.229   3.537   6.874
71466SOL    HW216296  13.322   3.656   6.868
71467SOL     OW16297  11.390   8.535  14.805
71467SOL    HW116298  11.350   8.450  14.784
71467SOL    HW216299  11.318   8.597  14.798
71468SOL     OW16300   5.250   2.664  13.465
71468SOL    HW116301   5.281   2.710  13.388
71468SOL    HW216302   5.273   2.572  13.449
71469SOL     OW16303   3.164   1.387  11.229
71469SOL    HW116304   3.190   1.479  11.231
71469SOL    HW216305   3.215   1.349  11.157
71470SOL     OW16306   0.544  10.725   4.804
71470SOL    HW116307   0.528  10.819   4.805
71470SOL    HW216308   0.555  10.704   4.711
71471SOL     OW16309   7.687   8.477   6.219
71471SOL    HW116310   7.729   8.505   6.138
71471SOL    HW216311   7.625   8.547   6.239
71472SOL     OW16312   3.779   0.720   9.769
71472SOL    HW116313   3.792   0.631   9.737
71472SOL    HW216314   3.859   0.767   9.744
71473SOL     OW16315  10.681   4.593   0.185
71473SOL    HW116316  10.636   4.591   0.101
71473SOL    HW216317  10.635   4.660   0.236
71474SOL     OW16318  13.961   1.799  13.209
71474SOL    HW116319  14.021   1.754  13.150
71474SOL    HW216320  13.960   1.746  13.288
71475SOL     OW16321  12.840  14.325   3.903
71475SOL    HW116322  12.854  14.310   3.997
71475SOL    HW216323  12.858  14.240   3.862
71476SOL     OW16324   7.715   8.863   4.111
71476SOL    HW116325   7.634   8.815   4.097
71476SOL    HW216326   7.699   8.950   4.073
71477SOL     OW16327   5.510   0.169  13.277
71477SOL    HW116328   5.479   0.234  13.214
71477SOL    HW216329   5.477   0.085  13.243
71478SOL     OW16330   3.143   8.454   9.822
71478SOL    HW116331   3.184   8.396   9.758
71478SOL    HW216332   3.127   8.398   9.898
71479SOL     OW16333   0.873   2.022   4.226
71479SOL    HW116334   0.835   2.103   4.192
71479SOL    HW216335   0.921   1.985   4.152
71480SOL     OW16336  11.099   3.569   0.170
71480SOL    HW116337  11.035   3.568   0.241
71480SOL    HW216338  11.116   3.662   0.155
71481SOL     OW16339   2.026   5.145   1.817
71481SOL    HW116340   2.065   5.059   1.796
71481SOL    HW216341   1.952   5.124   1.874
71482SOL     OW16342   0.240   6.032   9.217
71482SOL    HW116343   0.321   6.042   9.266
71482SOL    HW216344   0.212   6.121   9.198
71483SOL     OW16345   3.006  12.181  10.527
71483SOL    HW116346   2.934  12.148  10.473
71483SOL    HW216347   3.068  12.218  10.464
71484SOL     OW16348  13.596   0.022  12.522
71484SOL    HW116349  13.658   0.067  12.580
71484SOL    HW216350  13.553   0.093  12.474
71485SOL     OW16351   2.560   3.070   0.727
71485SOL    HW116352   2.655   3.060   0.729
71485SOL    HW216353   2.545   3.164   0.730
71486SOL     OW16354  13.143  13.339   7.556
71486SOL    HW116355  13.109  13.254   7.581
71486SOL    HW216356  13.169  13.380   7.639
71487SOL     OW16357   0.040   7.764  12.325
71487SOL    HW116358   0.049   7.838  12.385
71487SOL    HW216359   0.125   7.721  12.326
71488SOL     OW16360   9.468  10.429   1.645
71488SOL    HW116361   9.396  10.474   1.602
71488SOL    HW216362   9.498  10.365   1.580
71489SOL     OW16363   4.954   3.199  12.142
71489SOL    HW116364   4.868   3.197  12.100
71489SOL    HW216365   4.941   3.256  12.218
71490SOL     OW16366  13.279   7.309   5.737
71490SOL    HW116367  13.250   7.289   5.826
71490SOL    HW216368  13.309   7.224   5.703
71491SOL     OW16369   5.610   0.409   2.119
71491SOL    HW116370   5.674   0.345   2.152
71491SOL    HW216371   5.529   0.388   2.166
71492SOL     OW16372   1.430   3.509   8.430
71492SOL    HW116373   1.438   3.604   8.431
71492SOL    HW216374   1.473   3.480   8.511
71493SOL     OW16375   3.145   2.399   9.390
71493SOL    HW116376   3.184   2.361   9.311
71493SOL    HW216377   3.171   2.491   9.389
71494SOL     OW16378   2.423   5.589  11.433
71494SOL    HW116379   2.407   5.634  11.516
71494SOL    HW216380   2.480   5.649  11.384
71495SOL     OW16381   4.636   1.370   4.322
71495SOL    HW116382   4.555   1.324   4.298
71495SOL    HW216383   4.705   1.307   4.301
71496SOL     OW16384   7.291  12.252   8.259
71496SOL    HW116385   7.373  12.223   8.220
71496SOL    HW216386   7.233  12.266   8.185
71497SOL     OW16387   8.034   8.236  13.199
71497SOL    HW116388   7.978   8.310  13.225
71497SOL    HW216389   8.030   8.176  13.273
71498SOL     OW16390   3.959  10.315   7.034
71498SOL    HW116391   3.984  10.231   7.073
71498SOL    HW216392   3.872  10.333   7.070
71499SOL     OW16393   2.328   6.702   5.717
71499SOL    HW116394   2.242   6.703   5.675
71499SOL    HW216395   2.338   6.790   5.753
71500SOL     OW16396  10.364  12.445   5.557
71500SOL    HW116397  10.363  12.532   5.596
71500SOL    HW216398  10.445  12.405   5.587
71501SOL     OW16399   6.770   0.188   0.769
71501SOL    HW116400   6.835   0.256   0.748
71501SOL    HW216401   6.708   0.231   0.828
71502SOL     OW16402  10.104  12.746  14.230
71502SOL    HW116403  10.093  12.705  14.316
71502SOL    HW216404  10.096  12.675  14.167
71503SOL     OW16405   0.505   6.652  12.056
71503SOL    HW116406   0.556   6.732  12.068
71503SOL    HW216407   0.476   6.629  12.144
71504SOL     OW16408   1.971   9.718   6.261
71504SOL    HW116409   1.975   9.701   6.167
71504SOL    HW216410   2.033   9.790   6.275
71505SOL     OW16411  12.142   2.443   9.704
71505SOL    HW116412  12.168   2.361   9.662
71505SOL    HW216413  12.198   2.449   9.781
71506SOL     OW16414  10.233   7.239   7.672
71506SOL    HW116415  10.181   7.241   7.752
71506SOL    HW216416  10.178   7.196   7.607
71507SOL     OW16417   5.144   4.466   2.568
71507SOL    HW116418   5.121   4.409   2.641
71507SOL    HW216419   5.080   4.538   2.573
71508SOL     OW16420   1.496   4.694   2.896
71508SOL    HW116421   1.463   4.767   2.949
71508SOL    HW216422   1.590   4.713   2.887
71509SOL     OW16423   3.306  13.749   1.073
71509SOL    HW116424   3.239  13.737   1.005
71509SOL    HW216425   3.278  13.828   1.120
71510SOL     OW16426   5.348   5.836  14.681
71510SOL    HW116427   5.330   5.743  14.670
71510SOL    HW216428   5.428   5.851  14.630
71511SOL     OW16429   5.859   1.157   4.550
71511SOL    HW116430   5.840   1.155   4.644
71511SOL    HW216431   5.913   1.235   4.538
71512SOL     OW16432   4.987  12.274   0.747
71512SOL    HW116433   4.951  12.357   0.714
71512SOL    HW216434   5.016  12.295   0.836
71513SOL     OW16435  11.296   3.653   6.186
71513SOL    HW116436  11.292   3.664   6.091
71513SOL    HW216437  11.204   3.645   6.213
71514SOL     OW16438   2.803   7.126   9.736
71514SOL    HW116439   2.737   7.135   9.804
71514SOL    HW216440   2.788   7.039   9.699
71515SOL     OW16441  10.980  12.287   0.320
71515SOL    HW116442  11.052  12.255   0.266
71515SOL    HW216443  10.955  12.212   0.373
71516SOL     OW16444   8.694   3.480   7.071
71516SOL    HW116445   8.707   3.568   7.036
71516SOL    HW216446   8.704   3.422   6.996
71517SOL     OW16447   7.109   5.200  13.427
71517SOL    HW116448   7.120   5.125  13.368
71517SOL    HW216449   7.028   5.182  13.473
71518SOL     OW16450   1.253   0.846  11.683
71518SOL    HW116451   1.345   0.845  11.654
71518SOL    HW216452   1.205   0.879  11.607
71519SOL     OW16453  10.683   9.851   5.767
71519SOL    HW116454  10.745   9.892   5.828
71519SOL    HW216455  10.633   9.791   5.821
71520SOL     OW16456   1.560   8.668   7.209
71520SOL    HW116457   1.467   8.645   7.209
71520SOL    HW216458   1.603   8.595   7.164
71521SOL     OW16459   9.106   0.434   3.886
71521SOL    HW116460   9.143   0.400   3.968
71521SOL    HW216461   9.011   0.425   3.898
71522SOL     OW16462  14.382   3.580   8.623
71522SOL    HW116463  14.311   3.517   8.616
71522SOL    HW216464  14.341   3.664   8.602
71523SOL     OW16465   5.447  12.529   4.471
71523SOL    HW116466   5.515  12.558   4.410
71523SOL    HW216467   5.410  12.610   4.505
71524SOL     OW16468   6.155   6.016  14.226
71524SOL    HW116469   6.134   6.082  14.160
71524SOL    HW216470   6.089   5.947  14.213
71525SOL     OW16471   8.763   3.932   1.295
71525SOL    HW116472   8.767   4.003   1.230
71525SOL    HW216473   8.679   3.889   1.278
71526SOL     OW16474   2.592   5.127   2.507
71526SOL    HW116475   2.603   5.135   2.601
71526SOL    HW216476   2.648   5.054   2.482
71527SOL     OW16477   7.667   2.569   8.963
71527SOL    HW116478   7.629   2.540   8.880
71527SOL    HW216479   7.592   2.594   9.017
71528SOL     OW16480  10.426   2.939   0.493
71528SOL    HW116481  10.440   3.019   0.544
71528SOL    HW216482  10.342   2.954   0.448
71529SOL     OW16483   3.230   4.912  10.145
71529SOL    HW116484   3.239   4.948  10.057
71529SOL    HW216485   3.225   4.989  10.202
71530SOL     OW16486   9.716  12.154   0.514
71530SOL    HW116487   9.631  12.164   0.471
71530SOL    HW216488   9.777  12.141   0.442
71531SOL     OW16489   0.722   2.712   3.137
71531SOL    HW116490   0.656   2.663   3.088
71531SOL    HW216491   0.775   2.755   3.071
71532SOL     OW16492   2.803   7.671   8.426
71532SOL    HW116493   2.841   7.713   8.503
71532SOL    HW216494   2.871   7.678   8.359
71533SOL     OW16495  13.317   7.053   3.316
71533SOL    HW116496  13.379   7.114   3.278
71533SOL    HW216497  13.358   6.967   3.306
71534SOL     OW16498   2.927   8.431   9.291
71534SOL    HW116499   2.894   8.431   9.381
71534SOL    HW216500   2.918   8.522   9.263
71535SOL     OW16501   9.265   8.960   3.643
71535SOL    HW116502   9.193   8.911   3.605
71535SOL    HW216503   9.261   8.940   3.737
71536SOL     OW16504   2.347   5.766  13.715
71536SOL    HW116505   2.311   5.845  13.754
71536SOL    HW216506   2.307   5.762  13.628
71537SOL     OW16507   8.077   4.545  14.657
71537SOL    HW116508   8.042   4.521  14.571
71537SOL    HW216509   8.103   4.461  14.696
71538SOL     OW16510   9.678   8.000   4.617
71538SOL    HW116511   9.587   8.031   4.609
71538SOL    HW216512   9.669   7.912   4.654
71539SOL     OW16513   4.239  10.228   4.241
71539SOL    HW116514   4.296  10.306   4.247
71539SOL    HW216515   4.183  10.234   4.318
71540SOL     OW16516   3.664  14.749  13.016
71540SOL    HW116517   3.687  14.839  12.996
71540SOL    HW216518   3.571  14.742  12.998
71541SOL     OW16519   7.287   4.530   0.463
71541SOL    HW116520   7.258   4.575   0.543
71541SOL    HW216521   7.205   4.504   0.419
71542SOL     OW16522  11.712   8.557   0.099
71542SOL    HW116523  11.647   8.612   0.143
71542SOL    HW216524  11.791   8.568   0.151
71543SOL     OW16525   9.892   1.315  10.550
71543SOL    HW116526   9.839   1.249  10.507
71543SOL    HW216527   9.903   1.284  10.639
71544SOL     OW16528   6.258   1.582   7.057
71544SOL    HW116529   6.212   1.647   7.110
71544SOL    HW216530   6.330   1.631   7.017
71545SOL     OW16531  11.587  11.523  14.638
71545SOL    HW116532  11.616  11.557  14.723
71545SOL    HW216533  11.654  11.551  14.577
71546SOL     OW16534  14.037   1.447   0.544
71546SOL    HW116535  14.002   1.486   0.624
71546SOL    HW216536  14.131   1.443   0.558
71547SOL     OW16537  13.400   6.420  10.261
71547SOL    HW116538  13.337   6.363  10.304
71547SOL    HW216539  13.347   6.479  10.208
71548SOL     OW16540  14.491   3.047  12.613
71548SOL    HW116541  14.576   3.050  12.569
71548SOL    HW216542  14.511   3.018  12.702
71549SOL     OW16543   8.534  14.704   2.901
71549SOL    HW116544   8.447  14.711   2.940
71549SOL    HW216545   8.593  14.737   2.969
71550SOL     OW16546   1.176  10.980   1.144
71550SOL    HW116547   1.122  10.937   1.210
71550SOL    HW216548   1.152  10.937   1.062
71551SOL     OW16549  13.000   3.472   3.614
71551SOL    HW116550  12.993   3.485   3.709
71551SOL    HW216551  13.060   3.397   3.605
71552SOL     OW16552   0.698  11.665   9.371
71552SOL    HW116553   0.773  11.652   9.313
71552SOL    HW216554   0.730  11.639   9.457
71553SOL     OW16555   5.681   0.364  13.358
71553SOL    HW116556   5.715   0.343  13.445
71553SOL    HW216557   5.634   0.285  13.331
71554SOL     OW16558   8.207  14.565  10.958
71554SOL    HW116559   8.227  14.472  10.972
71554SOL    HW216560   8.217  14.578  10.864
71555SOL     OW16561   5.502  13.107   3.498
71555SOL    HW116562   5.545  13.174   3.551
71555SOL    HW216563   5.456  13.155   3.429
71556SOL     OW16564   8.234   1.382  12.401
71556SOL    HW116565   8.185   1.305  12.428
71556SOL    HW216566   8.176   1.456  12.422
71557SOL     OW16567  11.169   1.681   4.064
71557SOL    HW116568  11.260   1.654   4.060
71557SOL    HW216569  11.127   1.616   4.121
71558SOL     OW16570   1.188   7.034   1.860
71558SOL    HW116571   1.238   7.020   1.779
71558SOL    HW216572   1.097   7.033   1.831
71559SOL     OW16573   5.978   0.713   7.170
71559SOL    HW116574   5.949   0.802   7.153
71559SOL    HW216575   6.006   0.680   7.084
71560SOL     OW16576   4.213   0.496   9.142
71560SOL    HW116577   4.163   0.474   9.221
71560SOL    HW216578   4.256   0.579   9.162
71561SOL     OW16579   4.884   4.390   3.180
71561SOL    HW116580   4.859   4.364   3.269
71561SOL    HW216581   4.815   4.356   3.124
71562SOL     OW16582   5.066   0.008   3.487
71562SOL    HW116583   5.055   0.100   3.513
71562SOL    HW216584   4.983  14.838   3.510
71563SOL     OW16585   4.768   2.735   5.364
71563SOL    HW116586   4.839   2.739   5.427
71563SOL    HW216587   4.810   2.745   5.279
71564SOL     OW16588   3.275   8.980  14.716
71564SOL    HW116589   3.340   8.924  14.760
71564SOL    HW216590   3.320   9.064  14.705
71565SOL     OW16591   1.499   6.576   3.528
71565SOL    HW116592   1.478   6.490   3.566
71565SOL    HW216593   1.574   6.558   3.471
71566SOL     OW16594  12.608   5.659   1.770
71566SOL    HW116595  12.579   5.735   1.720
71566SOL    HW216596  12.541   5.647   1.837
71567SOL     OW16597  11.700  13.588  13.817
71567SOL    HW116598  11.745  13.560  13.897
71567SOL    HW216599  11.607  13.588  13.840
71568SOL     OW16600  11.015   4.006   9.124
71568SOL    HW116601  11.102   3.988   9.090
71568SOL    HW216602  10.978   3.920   9.145
71569SOL     OW16603   6.330  10.890  12.397
71569SOL    HW116604   6.315  10.847  12.481
71569SOL    HW216605   6.293  10.978  12.408
71570SOL     OW16606  12.247   1.271   2.685
71570SOL    HW116607  12.258   1.195   2.627
71570SOL    HW216608  12.336   1.296   2.708
71571SOL     OW16609   5.849  11.442   8.794
71571SOL    HW116610   5.837  11.350   8.815
71571SOL    HW216611   5.814  11.452   8.705
71572SOL     OW16612   9.301   4.124  13.435
71572SOL    HW116613   9.268   4.213  13.446
71572SOL    HW216614   9.377   4.120  13.493
71573SOL     OW16615   4.869  13.732   2.693
71573SOL    HW116616   4.804  13.797   2.668
71573SOL    HW216617   4.853  13.658   2.635
71574SOL     OW16618   7.613  13.833   6.012
71574SOL    HW116619   7.654  13.894   6.073
71574SOL    HW216620   7.639  13.746   6.044
71575SOL     OW16621   4.900   7.419   9.369
71575SOL    HW116622   4.828   7.470   9.332
71575SOL    HW216623   4.918   7.462   9.453
71576SOL     OW16624   0.196   9.444   0.284
71576SOL    HW116625   0.132   9.514   0.295
71576SOL    HW216626   0.198   9.427   0.190
71577SOL     OW16627   5.961  14.526   1.700
71577SOL    HW116628   5.989  14.616   1.714
71577SOL    HW216629   6.042  14.475   1.699
71578SOL     OW16630   0.329   2.023   9.722
71578SOL    HW116631   0.249   2.044   9.770
71578SOL    HW216632   0.383   2.101   9.728
71579SOL     OW16633   3.084  12.679  14.424
71579SOL    HW116634   3.034  12.706  14.501
71579SOL    HW216635   3.176  12.682  14.452
71580SOL     OW16636   5.301   0.907  11.743
71580SOL    HW116637   5.359   0.916  11.819
71580SOL    HW216638   5.358   0.878  11.672
71581SOL     OW16639  10.895  12.088  10.330
71581SOL    HW116640  10.909  12.045  10.246
71581SOL    HW216641  10.827  12.153  10.312
71582SOL     OW16642   6.321   0.071   0.203
71582SOL    HW116643   6.344   0.096   0.114
71582SOL    HW216644   6.337   0.151   0.254
71583SOL     OW16645   0.930   5.032  10.998
71583SOL    HW116646   0.889   5.027  10.912
71583SOL    HW216647   0.929   4.943  11.032
71584SOL     OW16648   4.243   3.595  13.530
71584SOL    HW116649   4.309   3.533  13.562
71584SOL    HW216650   4.288   3.642  13.460
71585SOL     OW16651   8.493  14.327   4.009
71585SOL    HW116652   8.423  14.392   4.006
71585SOL    HW216653   8.573  14.377   3.994
71586SOL     OW16654   1.468   8.669   6.371
71586SOL    HW116655   1.428   8.756   6.370
71586SOL    HW216656   1.562   8.686   6.376
71587SOL     OW16657  12.273   1.100  12.129
71587SOL    HW116658  12.227   1.178  12.097
71587SOL    HW216659  12.253   1.098  12.223
71588SOL     OW16660  13.581  10.602   6.724
71588SOL    HW116661  13.657  10.607   6.666
71588SOL    HW216662  13.552  10.511   6.718
71589SOL     OW16663   0.343  14.190  11.006
71589SOL    HW116664   0.343  14.135  10.927
71589SOL    HW216665   0.436  14.212  11.019
71590SOL     OW16666  14.007   6.062   0.815
71590SOL    HW116667  13.959   6.025   0.890
71590SOL    HW216668  13.976   6.013   0.740
71591SOL     OW16669  14.484   1.462   0.368
71591SOL    HW116670  14.508   1.526   0.301
71591SOL    HW216671  14.533   1.383   0.345
71592SOL     OW16672  13.233   2.304   1.962
71592SOL    HW116673  13.250   2.232   2.024
71592SOL    HW216674  13.159   2.351   1.999
71593SOL     OW16675   2.838  10.082   4.847
71593SOL    HW116676   2.779  10.089   4.923
71593SOL    HW216677   2.881  10.167   4.843
71594SOL     OW16678   9.800   2.974  13.498
71594SOL    HW116679   9.862   3.030  13.451
71594SOL    HW216680   9.723   3.029  13.512
71595SOL     OW16681  14.545  10.466   8.864
71595SOL    HW116682  14.567  10.461   8.771
71595SOL    HW216683  14.526  10.375   8.889
71596SOL     OW16684  10.791  14.437   3.151
71596SOL    HW116685  10.817  14.351   3.116
71596SOL    HW216686  10.867  14.465   3.202
71597SOL     OW16687   2.901   1.557   0.583
71597SOL    HW116688   2.835   1.594   0.642
71597SOL    HW216689   2.984   1.578   0.625
71598SOL     OW16690   6.493   1.227   4.474
71598SOL    HW116691   6.428   1.228   4.544
71598SOL    HW216692   6.443   1.243   4.394
71599SOL     OW16693  10.742  11.484   4.917
71599SOL    HW116694  10.820  11.525   4.953
71599SOL    HW216695  10.675  11.553   4.920
71600SOL     OW16696   0.937  14.840   3.104
71600SOL    HW116697   0.966   0.019   3.029
71600SOL    HW216698   0.879  14.773   3.067
71601SOL     OW16699   9.110   1.048  13.557
71601SOL    HW116700   9.107   1.141  13.577
71601SOL    HW216701   9.195   1.019  13.591
71602SOL     OW16702   5.691  13.013  12.035
71602SOL    HW116703   5.733  13.000  11.950
71602SOL    HW216704   5.740  12.956  12.094
71603SOL     OW16705  13.785  10.114  14.092
71603SOL    HW116706  13.856  10.177  14.080
71603SOL    HW216707  13.825  10.029  14.076
71604SOL     OW16708   0.770  10.869  11.982
71604SOL    HW116709   0.713  10.926  11.930
71604SOL    HW216710   0.805  10.926  12.050
71605SOL     OW16711   0.225  14.695   1.083
71605SOL    HW116712   0.186  14.755   1.146
71605SOL    HW216713   0.178  14.712   1.002
71606SOL     OW16714  10.270   3.536  13.186
71606SOL    HW116715  10.348   3.496  13.225
71606SOL    HW216716  10.304   3.597  13.121
71607SOL     OW16717   4.877   5.946   5.575
71607SOL    HW116718   4.969   5.922   5.583
71607SOL    HW216719   4.837   5.914   5.656
71608SOL     OW16720  12.655   3.975   3.715
71608SOL    HW116721  12.724   3.909   3.726
71608SOL    HW216722  12.649   3.987   3.621
71609SOL     OW16723   4.991   8.143   1.858
71609SOL    HW116724   4.994   8.191   1.775
71609SOL    HW216725   5.025   8.056   1.836
71610SOL     OW16726   8.527  11.475   7.974
71610SOL    HW116727   8.536  11.509   8.063
71610SOL    HW216728   8.436  11.492   7.951
71611SOL     OW16729   4.680   6.870   7.660
71611SOL    HW116730   4.687   6.937   7.728
71611SOL    HW216731   4.771   6.848   7.639
71612SOL     OW16732  12.569   5.277   4.684
71612SOL    HW116733  12.544   5.205   4.741
71612SOL    HW216734  12.658   5.255   4.656
71613SOL     OW16735  13.954   2.138   3.566
71613SOL    HW116736  13.943   2.233   3.560
71613SOL    HW216737  13.910   2.103   3.488
71614SOL     OW16738   7.578  11.329   3.904
71614SOL    HW116739   7.504  11.386   3.928
71614SOL    HW216740   7.644  11.345   3.971
71615SOL     OW16741  13.482  11.586   0.813
71615SOL    HW116742  13.486  11.553   0.903
71615SOL    HW216743  13.439  11.516   0.764
71616SOL     OW16744  10.558   7.316   2.319
71616SOL    HW116745  10.575   7.222   2.323
71616SOL    HW216746  10.583   7.341   2.230
71617SOL     OW16747   6.139   6.104   6.907
71617SOL    HW116748   6.110   6.095   6.998
71617SOL    HW216749   6.200   6.031   6.895
71618SOL     OW16750  12.925   3.028   8.759
71618SOL    HW116751  13.014   3.063   8.753
71618SOL    HW216752  12.929   2.944   8.713
71619SOL     OW16753  10.184  14.315  11.650
71619SOL    HW116754  10.137  14.244  11.606
71619SOL    HW216755  10.158  14.308  11.742
71620SOL     OW16756   0.836  10.370   4.336
71620SOL    HW116757   0.763  10.337   4.388
71620SOL    HW216758   0.913  10.326   4.374
71621SOL     OW16759   4.613   8.260   6.291
71621SOL    HW116760   4.661   8.325   6.240
71621SOL    HW216761   4.676   8.189   6.305
71622SOL     OW16762   3.421   5.959   5.734
71622SOL    HW116763   3.480   6.025   5.769
71622SOL    HW216764   3.480   5.889   5.704
71623SOL     OW16765   7.804   6.661   7.294
71623SOL    HW116766   7.870   6.593   7.290
71623SOL    HW216767   7.753   6.650   7.213
71624SOL     OW16768  11.051   0.813   4.265
71624SOL    HW116769  11.023   0.827   4.174
71624SOL    HW216770  11.025   0.723   4.284
71625SOL     OW16771   5.563  14.552   4.108
71625SOL    HW116772   5.565  14.577   4.200
71625SOL    HW216773   5.549  14.457   4.109
71626SOL     OW16774   2.651   2.296   7.974
71626SOL    HW116775   2.558   2.288   7.951
71626SOL    HW216776   2.692   2.221   7.931
71627SOL     OW16777  10.634  14.445   4.238
71627SOL    HW116778  10.562  14.504   4.215
71627SOL    HW216779  10.669  14.416   4.153
71628SOL     OW16780   2.527  12.961   8.144
71628SOL    HW116781   2.494  13.032   8.199
71628SOL    HW216782   2.613  12.989   8.116
71629SOL     OW16783   8.105  14.511  10.140
71629SOL    HW116784   8.105  14.513  10.044
71629SOL    HW216785   8.014  14.494  10.163
71630SOL     OW16786  13.032  10.870   4.263
71630SOL    HW116787  13.106  10.813   4.245
71630SOL    HW216788  13.009  10.851   4.354
71631SOL     OW16789   8.471  14.247   1.888
71631SOL    HW116790   8.423  14.214   1.812
71631SOL    HW216791   8.408  14.243   1.960
71632SOL     OW16792  12.127  12.787   1.174
71632SOL    HW116793  12.209  12.777   1.125
71632SOL    HW216794  12.151  12.765   1.264
71633SOL     OW16795  14.155   9.005  13.755
71633SOL    HW116796  14.076   9.016  13.808
71633SOL    HW216797  14.127   9.028  13.666
71634SOL     OW16798   3.795   3.130  13.069
71634SOL    HW116799   3.748   3.183  13.133
71634SOL    HW216800   3.870   3.184  13.044
71635SOL     OW16801  14.258  14.074  14.374
71635SOL    HW116802  14.315  14.027  14.435
71635SOL    HW216803  14.178  14.089  14.424
71636SOL     OW16804   5.637   5.040  11.505
71636SOL    HW116805   5.633   4.990  11.423
71636SOL    HW216806   5.715   5.095  11.496
71637SOL     OW16807   9.797   6.919   3.240
71637SOL    HW116808   9.892   6.916   3.243
71637SOL    HW216809   9.770   6.827   3.241
71638SOL     OW16810  13.048   4.816   1.283
71638SOL    HW116811  13.115   4.805   1.215
71638SOL    HW216812  12.969   4.843   1.235
71639SOL     OW16813   9.129   0.023   7.571
71639SOL    HW116814   9.186   0.042   7.646
71639SOL    HW216815   9.149   0.092   7.508
71640SOL     OW16816   8.854  12.822   9.562
71640SOL    HW116817   8.942  12.849   9.586
71640SOL    HW216818   8.864  12.778   9.478
71641SOL     OW16819   0.418  11.359  11.159
71641SOL    HW116820   0.486  11.365  11.092
71641SOL    HW216821   0.372  11.443  11.155
71642SOL     OW16822  12.599   9.304  10.804
71642SOL    HW116823  12.615   9.373  10.739
71642SOL    HW216824  12.560   9.233  10.753
71643SOL     OW16825  13.630   5.708   8.123
71643SOL    HW116826  13.654   5.655   8.199
71643SOL    HW216827  13.695   5.687   8.057
71644SOL     OW16828   8.172  14.415   7.296
71644SOL    HW116829   8.131  14.333   7.324
71644SOL    HW216830   8.204  14.455   7.376
71645SOL     OW16831   9.488  13.794   0.638
71645SOL    HW116832   9.526  13.789   0.550
71645SOL    HW216833   9.428  13.719   0.642
71646SOL     OW16834   6.228   5.740  11.724
71646SOL    HW116835   6.162   5.799  11.689
71646SOL    HW216836   6.309   5.765  11.678
71647SOL     OW16837   6.457   3.055  13.228
71647SOL    HW116838   6.398   2.983  13.206
71647SOL    HW216839   6.402   3.133  13.227
71648SOL     OW16840   4.958  10.606   0.261
71648SOL    HW116841   5.040  10.633   0.300
71648SOL    HW216842   4.891  10.626   0.327
71649SOL     OW16843   9.448  11.433   2.577
71649SOL    HW116844   9.490  11.373   2.516
71649SOL    HW216845   9.355  11.430   2.553
71650SOL     OW16846   7.712   8.467  14.262
71650SOL    HW116847   7.684   8.543  14.211
71650SOL    HW216848   7.668   8.392  14.221
71651SOL     OW16849   0.794  12.422   9.187
71651SOL    HW116850   0.764  12.415   9.097
71651SOL    HW216851   0.836  12.508   9.192
71652SOL     OW16852  10.046   6.397   7.440
71652SOL    HW116853  10.113   6.332   7.461
71652SOL    HW216854  10.094   6.472   7.405
71653SOL     OW16855  11.030  10.127   2.719
71653SOL    HW116856  10.981  10.065   2.665
71653SOL    HW216857  11.119  10.094   2.719
71654SOL     OW16858   0.111   3.005   1.353
71654SOL    HW116859   0.183   3.063   1.376
71654SOL    HW216860   0.111   2.939   1.422
71655SOL     OW16861   0.110  10.834   1.566
71655SOL    HW116862   0.020  10.827   1.534
71655SOL    HW216863   0.151  10.751   1.540
71656SOL     OW16864  10.471   6.532   6.783
71656SOL    HW116865  10.562   6.541   6.757
71656SOL    HW216866  10.424   6.512   6.701
71657SOL     OW16867   9.171  10.445  10.984
71657SOL    HW116868   9.180  10.455  10.889
71657SOL    HW216869   9.165  10.351  10.998
71658SOL     OW16870   1.876  10.338  10.974
71658SOL    HW116871   1.870  10.245  10.952
71658SOL    HW216872   1.931  10.341  11.052
71659SOL     OW16873   0.041  10.404  11.767
71659SOL    HW116874   0.059  10.482  11.715
71659SOL    HW216875   0.127  10.373  11.794
71660SOL     OW16876  14.722   5.904  10.627
71660SOL    HW116877  14.693   5.992  10.649
71660SOL    HW216878  14.800   5.890  10.680
71661SOL     OW16879   4.676   6.729  14.195
71661SOL    HW116880   4.661   6.638  14.168
71661SOL    HW216881   4.592   6.772  14.179
71662SOL     OW16882   6.193   4.003   2.356
71662SOL    HW116883   6.240   3.926   2.327
71662SOL    HW216884   6.258   4.074   2.353
71663SOL     OW16885  13.208   9.906  13.644
71663SOL    HW116886  13.159   9.986  13.663
71663SOL    HW216887  13.264   9.893  13.720
71664SOL     OW16888   2.485  12.708   8.561
71664SOL    HW116889   2.481  12.732   8.469
71664SOL    HW216890   2.423  12.766   8.605
71665SOL     OW16891   2.875  12.101   7.903
71665SOL    HW116892   2.862  12.010   7.875
71665SOL    HW216893   2.903  12.094   7.995
71666SOL     OW16894  10.899   1.109  12.948
71666SOL    HW116895  10.883   1.146  12.862
71666SOL    HW216896  10.993   1.121  12.963
71667SOL     OW16897   4.512   3.125   9.375
71667SOL    HW116898   4.444   3.078   9.423
71667SOL    HW216899   4.499   3.100   9.283
71668SOL     OW16900   6.005  13.512   3.332
71668SOL    HW116901   6.068  13.578   3.303
71668SOL    HW216902   5.921  13.542   3.297
71669SOL     OW16903  12.182   7.673   0.947
71669SOL    HW116904  12.171   7.694   1.040
71669SOL    HW216905  12.095   7.645   0.919
71670SOL     OW16906   6.895   7.241   2.892
71670SOL    HW116907   6.871   7.286   2.973
71670SOL    HW216908   6.850   7.157   2.898
71671SOL     OW16909   6.624   8.650   1.088
71671SOL    HW116910   6.658   8.715   1.149
71671SOL    HW216911   6.667   8.669   1.005
71672SOL     OW16912  10.258   3.945  11.662
71672SOL    HW116913  10.177   3.894  11.657
71672SOL    HW216914  10.321   3.885  11.702
71673SOL     OW16915   5.703   2.503   4.707
71673SOL    HW116916   5.664   2.532   4.625
71673SOL    HW216917   5.657   2.554   4.774
71674SOL     OW16918   4.670  11.325  11.956
71674SOL    HW116919   4.689  11.412  11.992
71674SOL    HW216920   4.701  11.329  11.866
71675SOL     OW16921   3.225  10.546  10.492
71675SOL    HW116922   3.181  10.505  10.566
71675SOL    HW216923   3.302  10.588  10.529
71676SOL     OW16924   3.555   8.376   9.256
71676SOL    HW116925   3.592   8.464   9.251
71676SOL    HW216926   3.508   8.365   9.174
71677SOL     OW16927  11.250   6.267  12.712
71677SOL    HW116928  11.274   6.238  12.624
71677SOL    HW216929  11.250   6.363  12.707
71678SOL     OW16930   7.000  14.151  14.834
71678SOL    HW116931   6.976  14.058  14.837
71678SOL    HW216932   6.998  14.174  14.741
71679SOL     OW16933   2.680   1.578   0.063
71679SOL    HW116934   2.725   1.497   0.036
71679SOL    HW216935   2.688   1.580   0.158
71680SOL     OW16936   7.827   2.519   4.826
71680SOL    HW116937   7.812   2.431   4.862
71680SOL    HW216938   7.820   2.507   4.731
71681SOL     OW16939  13.484  14.320   2.916
71681SOL    HW116940  13.526  14.287   2.836
71681SOL    HW216941  13.391  14.301   2.904
71682SOL     OW16942   1.260   5.724   5.413
71682SOL    HW116943   1.245   5.817   5.394
71682SOL    HW216944   1.338   5.723   5.468
71683SOL     OW16945   2.227   5.758  12.201
71683SOL    HW116946   2.159   5.822  12.178
71683SOL    HW216947   2.183   5.698  12.262
71684SOL     OW16948  14.271   5.202   9.152
71684SOL    HW116949  14.233   5.121   9.185
71684SOL    HW216950  14.273   5.260   9.228
71685SOL     OW16951  12.668  12.168   0.659
71685SOL    HW116952  12.734  12.237   0.656
71685SOL    HW216953  12.662  12.136   0.569
71686SOL     OW16954  14.579  11.437   8.593
71686SOL    HW116955  14.600  11.345   8.611
71686SOL    HW216956  14.484  11.442   8.601
71687SOL     OW16957  10.801   3.295  13.976
71687SOL    HW116958  10.896   3.301  13.989
71687SOL    HW216959  10.785   3.344  13.896
71688SOL     OW16960   0.471   4.533   2.642
71688SOL    HW116961   0.516   4.503   2.563
71688SOL    HW216962   0.410   4.600   2.611
71689SOL     OW16963   1.048  10.677   0.360
71689SOL    HW116964   1.024  10.759   0.403
71689SOL    HW216965   0.973  10.658   0.304
71690SOL     OW16966  12.096   6.231  14.318
71690SOL    HW116967  12.182   6.247  14.357
71690SOL    HW216968  12.057   6.317  14.308
71691SOL     OW16969   3.438   3.982   9.526
71691SOL    HW116970   3.500   4.023   9.466
71691SOL    HW216971   3.352   4.005   9.492
71692SOL     OW16972   0.238   4.064   1.383
71692SOL    HW116973   0.321   4.078   1.338
71692SOL    HW216974   0.255   4.094   1.472
71693SOL     OW16975   2.354   3.889  14.031
71693SOL    HW116976   2.323   3.947  13.961
71693SOL    HW216977   2.410   3.945  14.085
71694SOL     OW16978  14.816   4.251   9.621
71694SOL    HW116979  14.799   4.169   9.576
71694SOL    HW216980  14.764   4.316   9.574
71695SOL     OW16981   6.914   9.043   1.783
71695SOL    HW116982   6.964   8.962   1.770
71695SOL    HW216983   6.836   9.031   1.728
71696SOL     OW16984   9.699   8.815   1.461
71696SOL    HW116985   9.687   8.889   1.521
71696SOL    HW216986   9.632   8.752   1.487
71697SOL     OW16987   4.041  10.348   2.104
71697SOL    HW116988   3.991  10.285   2.053
71697SOL    HW216989   4.117  10.300   2.135
71698SOL     OW16990  13.255   2.442   7.420
71698SOL    HW116991  13.314   2.466   7.492
71698SOL    HW216992  13.168   2.469   7.451
71699SOL     OW16993  11.299   5.915   1.468
71699SOL    HW116994  11.376   5.971   1.474
71699SOL    HW216995  11.276   5.915   1.375
71700SOL     OW16996   5.682   2.388  12.548
71700SOL    HW116997   5.713   2.378  12.458
71700SOL    HW216998   5.717   2.313  12.594
71701SOL     OW16999  13.011   2.650  11.762
71701SOL    HW117000  13.021   2.745  11.752
71701SOL    HW217001  13.010   2.616  11.672
71702SOL     OW17002   5.671  13.164   4.779
71702SOL    HW117003   5.652  13.233   4.843
71702SOL    HW217004   5.635  13.198   4.697
71703SOL     OW17005  13.432   4.914   8.533
71703SOL    HW117006  13.387   4.832   8.513
71703SOL    HW217007  13.525   4.894   8.521
71704SOL     OW17008   5.045   2.601  13.859
71704SOL    HW117009   5.080   2.685  13.831
71704SOL    HW217010   5.050   2.603  13.954
71705SOL     OW17011  13.285   5.891   5.380
71705SOL    HW117012  13.340   5.841   5.320
71705SOL    HW217013  13.309   5.982   5.365
71706SOL     OW17014   3.055   3.304  11.701
71706SOL    HW117015   3.057   3.340  11.612
71706SOL    HW217016   3.087   3.214  11.691
71707SOL     OW17017   3.625   7.657   0.525
71707SOL    HW117018   3.633   7.568   0.559
71707SOL    HW217019   3.540   7.658   0.481
71708SOL     OW17020  11.774  10.341   9.812
71708SOL    HW117021  11.706  10.350   9.745
71708SOL    HW217022  11.734  10.374   9.892
71709SOL     OW17023  12.048   6.763   1.788
71709SOL    HW117024  12.081   6.852   1.778
71709SOL    HW217025  12.082   6.734   1.873
71710SOL     OW17026   0.439  13.993   8.624
71710SOL    HW117027   0.413  14.080   8.656
71710SOL    HW217028   0.530  13.984   8.653
71711SOL     OW17029  12.346   9.287  13.833
71711SOL    HW117030  12.296   9.212  13.802
71711SOL    HW217031  12.431   9.252  13.857
71712SOL     OW17032   8.478  12.512  10.515
71712SOL    HW117033   8.428  12.529  10.435
71712SOL    HW217034   8.524  12.430  10.497
71713SOL     OW17035  12.042   4.657   5.926
71713SOL    HW117036  11.997   4.734   5.960
71713SOL    HW217037  12.134   4.681   5.923
71714SOL     OW17038   1.808  13.344   7.940
71714SOL    HW117039   1.869  13.416   7.955
71714SOL    HW217040   1.836  13.305   7.857
71715SOL     OW17041  10.873  14.271   7.552
71715SOL    HW117042  10.912  14.258   7.465
71715SOL    HW217043  10.810  14.342   7.540
71716SOL     OW17044   0.355   7.921  12.848
71716SOL    HW117045   0.281   7.863  12.831
71716SOL    HW217046   0.322   7.984  12.913
71717SOL     OW17047   0.715   5.060  11.713
71717SOL    HW117048   0.791   5.014  11.748
71717SOL    HW217049   0.752   5.127  11.655
71718SOL     OW17050  13.053   0.217   5.914
71718SOL    HW117051  13.098   0.187   5.835
71718SOL    HW217052  13.082   0.156   5.982
71719SOL     OW17053  10.357  13.058   8.950
71719SOL    HW117054  10.320  13.118   8.885
71719SOL    HW217055  10.280  13.023   8.996
71720SOL     OW17056   5.923  12.954   1.120
71720SOL    HW117057   5.872  12.884   1.080
71720SOL    HW217058   5.910  13.029   1.062
71721SOL     OW17059  14.387  12.514   4.653
71721SOL    HW117060  14.435  12.585   4.696
71721SOL    HW217061  14.453  12.467   4.602
71722SOL     OW17062  14.560   4.587  11.889
71722SOL    HW117063  14.630   4.537  11.931
71722SOL    HW217064  14.570   4.567  11.796
71723SOL     OW17065  13.037   9.655   3.578
71723SOL    HW117066  13.114   9.710   3.595
71723SOL    HW217067  12.963   9.710   3.600
71724SOL     OW17068  12.515   0.331   1.320
71724SOL    HW117069  12.547   0.282   1.395
71724SOL    HW217070  12.474   0.409   1.358
71725SOL     OW17071   4.337  13.626   3.418
71725SOL    HW117072   4.372  13.563   3.355
71725SOL    HW217073   4.302  13.697   3.365
71726SOL     OW17074   1.087   4.488  10.006
71726SOL    HW117075   1.088   4.487   9.910
71726SOL    HW217076   1.085   4.395  10.031
71727SOL     OW17077   7.423   9.540  12.604
71727SOL    HW117078   7.341   9.492  12.589
71727SOL    HW217079   7.413   9.622  12.556
71728SOL     OW17080   7.357   8.322   5.728
71728SOL    HW117081   7.438   8.341   5.680
71728SOL    HW217082   7.384   8.259   5.795
71729SOL     OW17083  10.841  13.528   7.338
71729SOL    HW117084  10.851  13.594   7.407
71729SOL    HW217085  10.901  13.457   7.363
71730SOL     OW17086   6.799  10.238   1.337
71730SOL    HW117087   6.863  10.211   1.404
71730SOL    HW217088   6.721  10.263   1.386
71731SOL     OW17089  11.558   6.370   3.783
71731SOL    HW117090  11.481   6.381   3.727
71731SOL    HW217091  11.525   6.329   3.863
71732SOL     OW17092   3.754   7.753   4.918
71732SOL    HW117093   3.686   7.691   4.890
71732SOL    HW217094   3.797   7.709   4.992
71733SOL     OW17095  12.108   0.843   8.728
71733SOL    HW117096  12.169   0.892   8.782
71733SOL    HW217097  12.138   0.856   8.638
71734SOL     OW17098   4.182  14.511   6.652
71734SOL    HW117099   4.213  14.565   6.580
71734SOL    HW217100   4.102  14.470   6.619
71735SOL     OW17101   8.679  11.389  12.048
71735SOL    HW117102   8.685  11.483  12.065
71735SOL    HW217103   8.747  11.351  12.104
71736SOL     OW17104  10.746   8.942  13.957
71736SOL    HW117105  10.747   8.847  13.967
71736SOL    HW217106  10.797   8.958  13.878
71737SOL     OW17107   3.228   6.956   6.396
71737SOL    HW117108   3.224   6.861   6.393
71737SOL    HW217109   3.140   6.984   6.421
71738SOL     OW17110   2.564   7.538   5.507
71738SOL    HW117111   2.575   7.463   5.564
71738SOL    HW217112   2.652   7.576   5.500
71739SOL     OW17113   0.574   4.096   2.034
71739SOL    HW117114   0.645   4.031   2.036
71739SOL    HW217115   0.576   4.130   1.944
71740SOL     OW17116   1.811   2.526   8.159
71740SOL    HW117117   1.764   2.598   8.117
71740SOL    HW217118   1.865   2.489   8.089
71741SOL     OW17119  13.286  14.419   5.980
71741SOL    HW117120  13.351  14.483   6.009
71741SOL    HW217121  13.335  14.337   5.972
71742SOL     OW17122  11.092   7.486   7.369
71742SOL    HW117123  11.094   7.499   7.274
71742SOL    HW217124  11.000   7.469   7.389
71743SOL     OW17125   0.376   2.470   5.881
71743SOL    HW117126   0.377   2.379   5.850
71743SOL    HW217127   0.339   2.519   5.808
71744SOL     OW17128   1.860   5.745   8.216
71744SOL    HW117129   1.881   5.826   8.262
71744SOL    HW217130   1.944   5.715   8.181
71745SOL     OW17131  14.458  13.443   9.360
71745SOL    HW117132  14.548  13.452   9.329
71745SOL    HW217133  14.467  13.420   9.453
71746SOL     OW17134   0.558   8.510  11.338
71746SOL    HW117135   0.521   8.469  11.260
71746SOL    HW217136   0.614   8.580  11.304
71747SOL     OW17137   3.365   9.440   5.154
71747SOL    HW117138   3.415   9.359   5.141
71747SOL    HW217139   3.335   9.436   5.245
71748SOL     OW17140   7.769   2.881   6.114
71748SOL    HW117141   7.721   2.799   6.103
71748SOL    HW217142   7.706   2.949   6.089
71749SOL     OW17143   6.695   9.554   1.950
71749SOL    HW117144   6.621   9.532   1.893
71749SOL    HW217145   6.750   9.476   1.948
71750SOL     OW17146   5.688   2.469   7.123
71750SOL    HW117147   5.614   2.439   7.071
71750SOL    HW217148   5.765   2.443   7.073
71751SOL     OW17149   8.137  11.842   0.523
71751SOL    HW117150   8.140  11.926   0.569
71751SOL    HW217151   8.082  11.787   0.578
71752SOL     OW17152   6.676   9.768   3.623
71752SOL    HW117153   6.586   9.767   3.591
71752SOL    HW217154   6.722   9.707   3.565
71753SOL     OW17155   4.537   7.627  13.853
71753SOL    HW117156   4.567   7.718  13.852
71753SOL    HW217157   4.517   7.608  13.761
71754SOL     OW17158   0.438  13.445   3.558
71754SOL    HW117159   0.427  13.352   3.576
71754SOL    HW217160   0.525  13.451   3.518
71755SOL     OW17161  12.718  11.939   3.974
71755SOL    HW117162  12.656  12.011   3.967
71755SOL    HW217163  12.782  11.967   4.040
71756SOL     OW17164  11.361   2.763   0.557
71756SOL    HW117165  11.368   2.786   0.650
71756SOL    HW217166  11.332   2.844   0.515
71757SOL     OW17167  13.647   7.597   1.175
71757SOL    HW117168  13.598   7.593   1.093
71757SOL    HW217169  13.735   7.624   1.149
71758SOL     OW17170   9.041   9.075   2.414
71758SOL    HW117171   8.985   9.015   2.463
71758SOL    HW217172   8.986   9.151   2.396
71759SOL     OW17173   5.347   6.952   5.802
71759SOL    HW117174   5.409   7.019   5.829
71759SOL    HW217175   5.268   7.000   5.778
71760SOL     OW17176  10.523   0.775  11.573
71760SOL    HW117177  10.463   0.842  11.607
71760SOL    HW217178  10.545   0.805  11.485
71761SOL     OW17179   8.617   6.637   7.362
71761SOL    HW117180   8.683   6.599   7.419
71761SOL    HW217181   8.659   6.712   7.321
71762SOL     OW17182   1.213   6.378   5.079
71762SOL    HW117183   1.264   6.435   5.136
71762SOL    HW217184   1.128   6.421   5.071
71763SOL     OW17185   5.614  13.530   4.023
71763SOL    HW117186   5.527  13.493   4.013
71763SOL    HW217187   5.610  13.614   3.976
71764SOL     OW17188   0.635   4.195   7.276
71764SOL    HW117189   0.639   4.274   7.221
71764SOL    HW217190   0.555   4.206   7.327
71765SOL     OW17191   7.641   0.085   9.236
71765SOL    HW117192   7.624   0.048   9.149
71765SOL    HW217193   7.555   0.093   9.277
71766SOL     OW17194   9.731  13.998  14.735
71766SOL    HW117195   9.702  14.088  14.724
71766SOL    HW217196   9.662  13.957  14.788
71767SOL     OW17197   0.642   2.894   2.839
71767SOL    HW117198   0.719   2.838   2.848
71767SOL    HW217199   0.575   2.837   2.802
71768SOL     OW17200  12.168  11.333  13.344
71768SOL    HW117201  12.078  11.352  13.372
71768SOL    HW217202  12.215  11.416  13.354
71769SOL     OW17203  10.372   8.374   7.274
71769SOL    HW117204  10.423   8.438   7.323
71769SOL    HW217205  10.379   8.402   7.183
71770SOL     OW17206   7.933   6.720   9.746
71770SOL    HW117207   7.869   6.659   9.783
71770SOL    HW217208   7.921   6.800   9.797
71771SOL     OW17209   1.074   2.254  11.157
71771SOL    HW117210   1.073   2.342  11.117
71771SOL    HW217211   1.154   2.253  11.210
71772SOL     OW17212  14.295   4.743   3.207
71772SOL    HW117213  14.362   4.756   3.139
71772SOL    HW217214  14.235   4.816   3.196
71773SOL     OW17215   9.045  14.823  13.025
71773SOL    HW117216   9.102   0.013  12.979
71773SOL    HW217217   9.090  14.807  13.108
71774SOL     OW17218  10.536  12.995  13.401
71774SOL    HW117219  10.540  13.090  13.413
71774SOL    HW217220  10.574  12.980  13.315
71775SOL     OW17221  14.059   5.402  11.638
71775SOL    HW117222  14.047   5.452  11.719
71775SOL    HW217223  13.982   5.344  11.634
71776SOL     OW17224   8.911   6.979  12.106
71776SOL    HW117225   8.871   6.929  12.035
71776SOL    HW217226   8.882   7.069  12.092
71777SOL     OW17227  13.935   5.693  10.187
71777SOL    HW117228  13.872   5.718  10.254
71777SOL    HW217229  13.884   5.687  10.107
71778SOL     OW17230  14.024   9.303   5.847
71778SOL    HW117231  14.054   9.393   5.861
71778SOL    HW217232  13.957   9.310   5.778
71779SOL     OW17233   2.718   9.460   5.364
71779SOL    HW117234   2.770   9.540   5.375
71779SOL    HW217235   2.627   9.491   5.364
71780SOL     OW17236   1.512   3.291   4.472
71780SOL    HW117237   1.479   3.364   4.524
71780SOL    HW217238   1.578   3.250   4.529
71781SOL     OW17239   9.260  11.403   0.539
71781SOL    HW117240   9.317  11.354   0.480
71781SOL    HW217241   9.175  11.359   0.533
71782SOL     OW17242   5.547  14.119   8.359
71782SOL    HW117243   5.575  14.028   8.368
71782SOL    HW217244   5.453  14.114   8.339
71783SOL     OW17245  11.576   9.705  14.495
71783SOL    HW117246  11.519   9.647  14.444
71783SOL    HW217247  11.590   9.659  14.577
71784SOL     OW17248   4.407  13.230   7.361
71784SOL    HW117249   4.491  13.249   7.319
71784SOL    HW217250   4.426  13.232   7.455
71785SOL     OW17251  11.504   7.608   1.510
71785SOL    HW117252  11.446   7.679   1.538
71785SOL    HW217253  11.445   7.541   1.476
71786SOL     OW17254   2.301   1.570  12.126
71786SOL    HW117255   2.313   1.547  12.218
71786SOL    HW217256   2.207   1.587  12.117
71787SOL     OW17257   9.984  10.172   5.918
71787SOL    HW117258   9.966  10.188   6.010
71787SOL    HW217259  10.061  10.225   5.898
71788SOL     OW17260  13.478   3.349   9.723
71788SOL    HW117261  13.411   3.410   9.754
71788SOL    HW217262  13.432   3.292   9.662
71789SOL     OW17263   7.572   0.203   2.979
71789SOL    HW117264   7.547   0.134   2.918
71789SOL    HW217265   7.664   0.186   2.999
71790SOL     OW17266  10.432   7.874   6.907
71790SOL    HW117267  10.373   7.917   6.845
71790SOL    HW217268  10.415   7.916   6.991
71791SOL     OW17269  13.969   2.957   7.502
71791SOL    HW117270  13.978   2.876   7.452
71791SOL    HW217271  14.056   2.973   7.538
71792SOL     OW17272   7.446   8.107  10.952
71792SOL    HW117273   7.454   8.031  10.894
71792SOL    HW217274   7.456   8.182  10.893
71793SOL     OW17275   2.022   9.547   1.518
71793SOL    HW117276   2.085   9.552   1.590
71793SOL    HW217277   1.952   9.607   1.543
71794SOL     OW17278  10.272   6.209  10.323
71794SOL    HW117279  10.352   6.157  10.338
71794SOL    HW217280  10.286   6.290  10.372
71795SOL     OW17281   9.350  14.799  10.351
71795SOL    HW117282   9.273  14.840  10.391
71795SOL    HW217283   9.345  14.707  10.377
71796SOL     OW17284   0.227   4.121   7.525
71796SOL    HW117285   0.188   4.079   7.602
71796SOL    HW217286   0.179   4.084   7.451
71797SOL     OW17287   5.892   3.566   1.004
71797SOL    HW117288   5.975   3.608   1.026
71797SOL    HW217289   5.838   3.576   1.083
71798SOL     OW17290  11.870  11.355  11.783
71798SOL    HW117291  11.882  11.443  11.819
71798SOL    HW217292  11.776  11.350  11.763
71799SOL     OW17293  10.594   1.599   7.389
71799SOL    HW117294  10.503   1.624   7.374
71799SOL    HW217295  10.590   1.537   7.462
71800SOL     OW17296  12.600   2.185   3.750
71800SOL    HW117297  12.597   2.149   3.839
71800SOL    HW217298  12.563   2.273   3.758
71801SOL     OW17299   9.944   4.755  12.013
71801SOL    HW117300  10.040   4.755  12.011
71801SOL    HW217301   9.919   4.824  11.952
71802SOL     OW17302   2.524  11.384   3.029
71802SOL    HW117303   2.476  11.372   2.946
71802SOL    HW217304   2.608  11.341   3.015
71803SOL     OW17305   5.479   2.094  10.106
71803SOL    HW117306   5.504   2.186  10.120
71803SOL    HW217307   5.507   2.050  10.186
71804SOL     OW17308   4.235   3.474   9.817
71804SOL    HW117309   4.240   3.524   9.898
71804SOL    HW217310   4.221   3.539   9.749
71805SOL     OW17311   8.373   0.280   0.902
71805SOL    HW117312   8.414   0.196   0.883
71805SOL    HW217313   8.352   0.276   0.995
71806SOL     OW17314   8.316   6.222   6.160
71806SOL    HW117315   8.225   6.200   6.139
71806SOL    HW217316   8.339   6.159   6.229
71807SOL     OW17317  14.868   5.953   9.588
71807SOL    HW117318   0.003   5.948   9.493
71807SOL    HW217319  14.784   5.914   9.609
71808SOL     OW17320   1.378   8.028   3.422
71808SOL    HW117321   1.419   7.955   3.375
71808SOL    HW217322   1.296   8.044   3.376
71809SOL     OW17323   7.871   9.113  14.451
71809SOL    HW117324   7.904   9.191  14.495
71809SOL    HW217325   7.798   9.144  14.397
71810SOL     OW17326   4.854   9.717   5.824
71810SOL    HW117327   4.849   9.787   5.889
71810SOL    HW217328   4.917   9.748   5.759
71811SOL     OW17329  10.889   4.154   2.871
71811SOL    HW117330  10.904   4.188   2.959
71811SOL    HW217331  10.839   4.074   2.884
71812SOL     OW17332   7.377  13.894   8.965
71812SOL    HW117333   7.400  13.958   9.032
71812SOL    HW217334   7.453  13.891   8.907
71813SOL     OW17335   7.000   7.500   3.520
71813SOL    HW117336   7.059   7.471   3.451
71813SOL    HW217337   6.981   7.421   3.571
71814SOL     OW17338   7.095   0.539   6.895
71814SOL    HW117339   7.008   0.498   6.901
71814SOL    HW217340   7.082   0.612   6.834
71815SOL     OW17341  12.853  12.332   4.237
71815SOL    HW117342  12.836  12.334   4.331
71815SOL    HW217343  12.946  12.311   4.231
71816SOL     OW17344  13.475  13.931   3.658
71816SOL    HW117345  13.526  13.898   3.732
71816SOL    HW217346  13.539  13.941   3.588
71817SOL     OW17347  11.394   4.613  10.455
71817SOL    HW117348  11.344   4.689  10.484
71817SOL    HW217349  11.379   4.609  10.361
71818SOL     OW17350   3.942   1.459   5.193
71818SOL    HW117351   3.891   1.459   5.274
71818SOL    HW217352   3.987   1.374   5.193
71819SOL     OW17353   7.494   4.336   0.569
71819SOL    HW117354   7.444   4.381   0.501
71819SOL    HW217355   7.487   4.243   0.546
71820SOL     OW17356   9.099   9.895   3.004
71820SOL    HW117357   9.165   9.941   3.056
71820SOL    HW217358   9.060   9.963   2.949
71821SOL     OW17359  13.036   7.826   8.127
71821SOL    HW117360  12.951   7.844   8.167
71821SOL    HW217361  13.080   7.910   8.126
71822SOL     OW17362  12.343   8.876  14.278
71822SOL    HW117363  12.422   8.901  14.230
71822SOL    HW217364  12.315   8.956  14.321
71823SOL     OW17365   9.330   3.825   2.374
71823SOL    HW117366   9.304   3.733   2.368
71823SOL    HW217367   9.377   3.831   2.456
71824SOL     OW17368  10.771   4.110  12.408
71824SOL    HW117369  10.833   4.095  12.479
71824SOL    HW217370  10.734   4.023  12.391
71825SOL     OW17371  13.610  14.057  12.086
71825SOL    HW117372  13.590  14.004  12.164
71825SOL    HW217373  13.683  14.011  12.044
71826SOL     OW17374  10.634   6.636   7.011
71826SOL    HW117375  10.628   6.662   6.919
71826SOL    HW217376  10.566   6.687   7.055
71827SOL     OW17377  12.206  13.672   5.573
71827SOL    HW117378  12.158  13.613   5.515
71827SOL    HW217379  12.167  13.758   5.557
71828SOL     OW17380  10.112   2.616   0.156
71828SOL    HW117381  10.050   2.559   0.112
71828SOL    HW217382  10.065   2.647   0.234
71829SOL     OW17383   1.984  12.635  11.139
71829SOL    HW117384   1.965  12.571  11.071
71829SOL    HW217385   2.016  12.712  11.090
71830SOL     OW17386   9.206   1.710  11.478
71830SOL    HW117387   9.275   1.668  11.529
71830SOL    HW217388   9.250   1.780  11.430
71831SOL     OW17389   1.530   8.376   1.628
71831SOL    HW117390   1.449   8.404   1.672
71831SOL    HW217391   1.510   8.290   1.592
71832SOL     OW17392   2.254   6.811   4.014
71832SOL    HW117393   2.327   6.864   3.980
71832SOL    HW217394   2.215   6.772   3.936
71833SOL     OW17395   3.246   0.465   5.276
71833SOL    HW117396   3.212   0.405   5.342
71833SOL    HW217397   3.171   0.486   5.221
71834SOL     OW17398   6.418   7.148  12.417
71834SOL    HW117399   6.473   7.070  12.414
71834SOL    HW217400   6.381   7.155  12.329
71835SOL     OW17401   6.600  11.249   1.871
71835SOL    HW117402   6.648  11.329   1.851
71835SOL    HW217403   6.537  11.274   1.938
71836SOL     OW17404  11.736   0.533  13.928
71836SOL    HW117405  11.668   0.564  13.989
71836SOL    HW217406  11.702   0.449  13.896
71837SOL     OW17407   4.700   7.180   0.795
71837SOL    HW117408   4.784   7.210   0.762
71837SOL    HW217409   4.689   7.092   0.758
71838SOL     OW17410  11.730   7.460  13.745
71838SOL    HW117411  11.814   7.497  13.718
71838SOL    HW217412  11.716   7.495  13.833
71839SOL     OW17413   1.966  13.977   0.256
71839SOL    HW117414   2.026  13.970   0.183
71839SOL    HW217415   1.927  13.890   0.264
71840SOL     OW17416  12.367   7.652   2.384
71840SOL    HW117417  12.337   7.732   2.343
71840SOL    HW217418  12.357   7.667   2.478
71841SOL     OW17419   6.024  12.357  10.102
71841SOL    HW117420   5.948  12.366  10.160
71841SOL    HW217421   6.067  12.442  10.105
71842SOL     OW17422   6.799  14.447  11.977
71842SOL    HW117423   6.833  14.449  12.067
71842SOL    HW217424   6.787  14.354  11.958
71843SOL     OW17425  14.573   6.279   6.584
71843SOL    HW117426  14.524   6.197   6.585
71843SOL    HW217427  14.601   6.291   6.675
71844SOL     OW17428  13.187   0.474   3.903
71844SOL    HW117429  13.181   0.389   3.858
71844SOL    HW217430  13.138   0.461   3.984
71845SOL     OW17431  10.233   9.576  13.326
71845SOL    HW117432  10.246   9.569  13.231
71845SOL    HW217433  10.317   9.548  13.364
71846SOL     OW17434  13.852   7.081   2.612
71846SOL    HW117435  13.805   7.046   2.536
71846SOL    HW217436  13.840   7.176   2.606
71847SOL     OW17437   5.217   4.201   1.772
71847SOL    HW117438   5.233   4.209   1.678
71847SOL    HW217439   5.268   4.273   1.811
71848SOL     OW17440   4.866   8.837   8.041
71848SOL    HW117441   4.905   8.838   7.953
71848SOL    HW217442   4.940   8.850   8.100
71849SOL     OW17443   8.161  10.910   2.981
71849SOL    HW117444   8.223  10.837   2.983
71849SOL    HW217445   8.173  10.954   3.065
71850SOL     OW17446  11.796   6.874   7.724
71850SOL    HW117447  11.789   6.781   7.701
71850SOL    HW217448  11.734   6.918   7.665
71851SOL     OW17449   3.157   5.718   4.324
71851SOL    HW117450   3.109   5.726   4.241
71851SOL    HW217451   3.206   5.799   4.332
71852SOL     OW17452   3.416  12.884   3.178
71852SOL    HW117453   3.437  12.844   3.262
71852SOL    HW217454   3.482  12.953   3.167
71853SOL     OW17455   6.048   3.155  13.009
71853SOL    HW117456   6.044   3.231  13.067
71853SOL    HW217457   5.963   3.154  12.966
71854SOL     OW17458   9.308  12.452  13.817
71854SOL    HW117459   9.377  12.506  13.857
71854SOL    HW217460   9.329  12.363  13.844
71855SOL     OW17461   6.581  14.656   6.510
71855SOL    HW117462   6.669  14.684   6.487
71855SOL    HW217463   6.594  14.593   6.581
71856SOL     OW17464  11.626  11.842   3.820
71856SOL    HW117465  11.562  11.776   3.848
71856SOL    HW217466  11.710  11.810   3.854
71857SOL     OW17467   7.791   8.795   0.516
71857SOL    HW117468   7.725   8.802   0.586
71857SOL    HW217469   7.803   8.885   0.485
71858SOL     OW17470   7.508  13.020   8.219
71858SOL    HW117471   7.475  12.961   8.287
71858SOL    HW217472   7.602  13.003   8.216
71859SOL     OW17473   0.504   5.709   4.538
71859SOL    HW117474   0.530   5.751   4.620
71859SOL    HW217475   0.445   5.772   4.496
71860SOL     OW17476   0.605   9.510   4.658
71860SOL    HW117477   0.684   9.506   4.605
71860SOL    HW217478   0.567   9.423   4.652
71861SOL     OW17479   4.058   6.642  10.827
71861SOL    HW117480   3.975   6.689  10.834
71861SOL    HW217481   4.043   6.577  10.758
71862SOL     OW17482   9.901  13.701   3.186
71862SOL    HW117483   9.986  13.744   3.193
71862SOL    HW217484   9.853  13.751   3.120
71863SOL     OW17485   3.376   8.311   8.806
71863SOL    HW117486   3.380   8.383   8.743
71863SOL    HW217487   3.390   8.352   8.891
71864SOL     OW17488  14.721   3.467  12.132
71864SOL    HW117489  14.756   3.478  12.220
71864SOL    HW217490  14.656   3.398  12.140
71865SOL     OW17491   3.803   5.026   0.136
71865SOL    HW117492   3.877   4.969   0.116
71865SOL    HW217493   3.829   5.075   0.213
71866SOL     OW17494  14.185   1.101   8.128
71866SOL    HW117495  14.277   1.086   8.148
71866SOL    HW217496  14.140   1.088   8.211
71867SOL     OW17497  12.430   3.227  11.776
71867SOL    HW117498  12.519   3.234  11.809
71867SOL    HW217499  12.405   3.136  11.793
71868SOL     OW17500  10.287   0.477   3.764
71868SOL    HW117501  10.340   0.500   3.688
71868SOL    HW217502  10.199   0.462   3.729
71869SOL     OW17503  11.241  12.340   7.650
71869SOL    HW117504  11.156  12.349   7.608
71869SOL    HW217505  11.224  12.290   7.729
71870SOL     OW17506  10.631   4.867  14.409
71870SOL    HW117507  10.543   4.860  14.445
71870SOL    HW217508  10.621   4.853  14.315
71871SOL     OW17509   8.129   2.176  11.819
71871SOL    HW117510   8.180   2.168  11.900
71871SOL    HW217511   8.038   2.185  11.848
71872SOL     OW17512   8.603   2.452   7.669
71872SOL    HW117513   8.539   2.487   7.608
71872SOL    HW217514   8.552   2.410   7.738
71873SOL     OW17515   8.576   4.374   6.897
71873SOL    HW117516   8.497   4.428   6.901
71873SOL    HW217517   8.562   4.306   6.963
71874SOL     OW17518   3.021   0.589  11.455
71874SOL    HW117519   2.968   0.667  11.469
71874SOL    HW217520   3.037   0.555  11.543
71875SOL     OW17521   6.558   4.611   6.733
71875SOL    HW117522   6.618   4.628   6.661
71875SOL    HW217523   6.611   4.567   6.799
71876SOL     OW17524   1.107   4.542  10.494
71876SOL    HW117525   1.048   4.599  10.542
71876SOL    HW217526   1.102   4.573  10.403
71877SOL     OW17527  13.431   2.003   6.223
71877SOL    HW117528  13.337   1.992   6.240
71877SOL    HW217529  13.435   2.035   6.133
71878SOL     OW17530   3.490   8.479  11.180
71878SOL    HW117531   3.562   8.492  11.241
71878SOL    HW217532   3.522   8.516  11.097
71879SOL     OW17533   8.366  11.357   8.509
71879SOL    HW117534   8.343  11.284   8.566
71879SOL    HW217535   8.285  11.408   8.501
71880SOL     OW17536  11.377   9.061  11.021
71880SOL    HW117537  11.417   9.108  10.948
71880SOL    HW217538  11.327   8.991  10.979
71881SOL     OW17539   1.675   4.691   6.422
71881SOL    HW117540   1.621   4.614   6.441
71881SOL    HW217541   1.614   4.764   6.424
71882SOL     OW17542   9.115   3.915   1.623
71882SOL    HW117543   9.097   4.009   1.617
71882SOL    HW217544   9.137   3.901   1.715
71883SOL     OW17545   3.625  11.823   7.121
71883SOL    HW117546   3.661  11.912   7.123
71883SOL    HW217547   3.670  11.778   7.192
71884SOL     OW17548   2.730   7.697  13.379
71884SOL    HW117549   2.660   7.750  13.341
71884SOL    HW217550   2.811   7.737  13.346
71885SOL     OW17551   9.509  12.673   2.632
71885SOL    HW117552   9.516  12.730   2.709
71885SOL    HW217553   9.487  12.733   2.560
71886SOL     OW17554  11.474   9.760   8.930
71886SOL    HW117555  11.441   9.747   8.841
71886SOL    HW217556  11.439   9.845   8.956
71887SOL     OW17557  13.354   1.791  10.683
71887SOL    HW117558  13.311   1.843  10.615
71887SOL    HW217559  13.409   1.730  10.634
71888SOL     OW17560   3.570  13.944   2.565
71888SOL    HW117561   3.582  13.877   2.498
71888SOL    HW217562   3.605  14.024   2.526
71889SOL     OW17563   8.069  11.368   9.605
71889SOL    HW117564   7.977  11.347   9.588
71889SOL    HW217565   8.113  11.283   9.611
71890SOL     OW17566  12.287   0.645  13.577
71890SOL    HW117567  12.285   0.669  13.669
71890SOL    HW217568  12.311   0.553  13.576
71891SOL     OW17569   6.574   4.963   4.288
71891SOL    HW117570   6.571   4.923   4.202
71891SOL    HW217571   6.508   4.916   4.339
71892SOL     OW17572   4.211  14.255   8.896
71892SOL    HW117573   4.119  14.237   8.916
71892SOL    HW217574   4.214  14.259   8.800
71893SOL     OW17575  10.729   0.564   5.790
71893SOL    HW117576  10.793   0.633   5.770
71893SOL    HW217577  10.705   0.579   5.881
71894SOL     OW17578   5.668   4.465   4.284
71894SOL    HW117579   5.573   4.454   4.282
71894SOL    HW217580   5.702   4.380   4.310
71895SOL     OW17581  12.380   3.796  14.142
71895SOL    HW117582  12.318   3.843  14.197
71895SOL    HW217583  12.380   3.845  14.059
71896SOL     OW17584   3.863  12.048  12.646
71896SOL    HW117585   3.891  12.082  12.731
71896SOL    HW217586   3.945  12.032  12.599
71897SOL     OW17587   5.366  13.573   9.885
71897SOL    HW117588   5.352  13.496   9.829
71897SOL    HW217589   5.440  13.549   9.941
71898SOL     OW17590  10.456   5.799   3.917
71898SOL    HW117591  10.415   5.778   4.001
71898SOL    HW217592  10.428   5.728   3.859
71899SOL     OW17593  11.072   3.802   4.333
71899SOL    HW117594  11.057   3.895   4.344
71899SOL    HW217595  11.140   3.796   4.266
71900SOL     OW17596   8.027   9.805   2.931
71900SOL    HW117597   7.954   9.831   2.988
71900SOL    HW217598   8.094   9.773   2.992
71901SOL     OW17599   5.719   0.738  11.074
71901SOL    HW117600   5.755   0.825  11.087
71901SOL    HW217601   5.795   0.682  11.055
71902SOL     OW17602   3.488   6.386  10.507
71902SOL    HW117603   3.529   6.462  10.466
71902SOL    HW217604   3.396   6.391  10.483
71903SOL     OW17605   9.650   9.238  14.376
71903SOL    HW117606   9.716   9.306  14.391
71903SOL    HW217607   9.566   9.281  14.390
71904SOL     OW17608   1.107  10.551   0.590
71904SOL    HW117609   1.104  10.597   0.506
71904SOL    HW217610   1.102  10.458   0.565
71905SOL     OW17611  13.212   4.601  12.428
71905SOL    HW117612  13.275   4.578  12.360
71905SOL    HW217613  13.251   4.674  12.475
71906SOL     OW17614   3.914  12.695  12.335
71906SOL    HW117615   3.964  12.639  12.276
71906SOL    HW217616   3.852  12.741  12.278
71907SOL     OW17617  11.610   5.717   0.660
71907SOL    HW117618  11.697   5.676   0.661
71907SOL    HW217619  11.612   5.775   0.584
71908SOL     OW17620   0.050   6.327  11.427
71908SOL    HW117621   0.138   6.366  11.427
71908SOL    HW217622  14.867   6.392  11.383
71909SOL     OW17623   3.265   8.388   1.267
71909SOL    HW117624   3.328   8.455   1.295
71909SOL    HW217625   3.315   8.332   1.207
71910SOL     OW17626   7.750  11.090   5.650
71910SOL    HW117627   7.709  11.010   5.619
71910SOL    HW217628   7.677  11.148   5.670
71911SOL     OW17629  11.128  11.789   6.324
71911SOL    HW117630  11.060  11.740   6.369
71911SOL    HW217631  11.144  11.740   6.243
71912SOL     OW17632   9.265   8.150  11.220
71912SOL    HW117633   9.281   8.220  11.157
71912SOL    HW217634   9.271   8.070  11.168
71913SOL     OW17635   5.324   4.551  14.847
71913SOL    HW117636   5.257   4.545  14.778
71913SOL    HW217637   5.283   4.510   0.052
71914SOL     OW17638   2.709   4.521   4.506
71914SOL    HW117639   2.704   4.431   4.536
71914SOL    HW217640   2.760   4.566   4.574
71915SOL     OW17641   8.430  11.950   1.281
71915SOL    HW117642   8.346  11.906   1.287
71915SOL    HW217643   8.491  11.882   1.252
71916SOL     OW17644  11.467  10.690  13.797
71916SOL    HW117645  11.401  10.751  13.830
71916SOL    HW217646  11.425  10.645  13.724
71917SOL     OW17647  13.710   2.392   3.836
71917SOL    HW117648  13.692   2.452   3.909
71917SOL    HW217649  13.625   2.381   3.793
71918SOL     OW17650  14.768   1.248  11.192
71918SOL    HW117651  14.746   1.186  11.262
71918SOL    HW217652  14.734   1.332  11.222
71919SOL     OW17653   5.488   7.958  14.231
71919SOL    HW117654   5.395   7.935  14.240
71919SOL    HW217655   5.487   8.052  14.211
71920SOL     OW17656   7.781   0.183   3.863
71920SOL    HW117657   7.755   0.152   3.950
71920SOL    HW217658   7.828   0.109   3.824
71921SOL     OW17659  12.495   6.068   9.399
71921SOL    HW117660  12.524   5.996   9.455
71921SOL    HW217661  12.574   6.097   9.354
71922SOL     OW17662   2.229  12.670   0.404
71922SOL    HW117663   2.142  12.661   0.440
71922SOL    HW217664   2.219  12.731   0.330
71923SOL     OW17665  13.859   2.430   3.495
71923SOL    HW117666  13.865   2.507   3.551
71923SOL    HW217667  13.768   2.403   3.501
71924SOL     OW17668   4.224  11.007   8.949
71924SOL    HW117669   4.201  10.914   8.959
71924SOL    HW217670   4.310  11.015   8.989
71925SOL     OW17671  11.115   4.201  13.319
71925SOL    HW117672  11.179   4.213  13.390
71925SOL    HW217673  11.034   4.240  13.353
71926SOL     OW17674  10.538   5.507   2.325
71926SOL    HW117675  10.493   5.431   2.361
71926SOL    HW217676  10.467   5.563   2.292
71927SOL     OW17677   2.811  11.514  11.598
71927SOL    HW117678   2.847  11.460  11.528
71927SOL    HW217679   2.818  11.604  11.565
71928SOL     OW17680   8.644   1.491   6.703
71928SOL    HW117681   8.632   1.416   6.762
71928SOL    HW217682   8.647   1.567   6.760
71929SOL     OW17683   6.154  10.796   5.648
71929SOL    HW117684   6.079  10.794   5.707
71929SOL    HW217685   6.145  10.879   5.601
71930SOL     OW17686   3.862   1.523   9.778
71930SOL    HW117687   3.925   1.510   9.707
71930SOL    HW217688   3.824   1.436   9.792
71931SOL     OW17689   0.398   4.585   9.149
71931SOL    HW117690   0.325   4.536   9.111
71931SOL    HW217691   0.404   4.664   9.095
71932SOL     OW17692  14.335   5.483   4.911
71932SOL    HW117693  14.352   5.429   4.988
71932SOL    HW217694  14.376   5.436   4.839
71933SOL     OW17695   7.961  11.616   1.069
71933SOL    HW117696   8.009  11.546   1.025
71933SOL    HW217697   8.030  11.677   1.098
71934SOL     OW17698  12.190   6.597   0.554
71934SOL    HW117699  12.144   6.643   0.484
71934SOL    HW217700  12.128   6.530   0.584
71935SOL     OW17701   8.166   9.783   8.559
71935SOL    HW117702   8.200   9.746   8.640
71935SOL    HW217703   8.208   9.733   8.489
71936SOL     OW17704   8.226   4.344   9.121
71936SOL    HW117705   8.137   4.373   9.139
71936SOL    HW217706   8.261   4.411   9.062
71937SOL     OW17707  12.152  13.311   2.936
71937SOL    HW117708  12.121  13.387   2.985
71937SOL    HW217709  12.167  13.244   3.003
71938SOL     OW17710  12.058   9.142  11.128
71938SOL    HW117711  11.997   9.214  11.141
71938SOL    HW217712  12.061   9.130  11.033
71939SOL     OW17713   6.622   0.904   5.301
71939SOL    HW117714   6.711   0.936   5.319
71939SOL    HW217715   6.596   0.861   5.382
71940SOL     OW17716   9.385  11.801   6.658
71940SOL    HW117717   9.409  11.721   6.611
71940SOL    HW217718   9.451  11.810   6.727
71941SOL     OW17719   3.217  12.689   9.415
71941SOL    HW117720   3.310  12.692   9.394
71941SOL    HW217721   3.207  12.609   9.467
71942SOL     OW17722   7.663   3.014  13.364
71942SOL    HW117723   7.757   3.030  13.359
71942SOL    HW217724   7.650   2.980  13.453
71943SOL     OW17725   1.199  12.679   0.419
71943SOL    HW117726   1.186  12.597   0.372
71943SOL    HW217727   1.136  12.675   0.491
71944SOL     OW17728   2.862   2.037   0.762
71944SOL    HW117729   2.842   1.953   0.802
71944SOL    HW217730   2.782   2.089   0.775
71945SOL     OW17731   1.238   9.848   6.806
71945SOL    HW117732   1.260   9.810   6.721
71945SOL    HW217733   1.322   9.876   6.842
71946SOL     OW17734   2.612   1.031  10.611
71946SOL    HW117735   2.692   0.999  10.652
71946SOL    HW217736   2.641   1.074  10.530
71947SOL     OW17737  13.976   1.500   6.099
71947SOL    HW117738  14.005   1.438   6.165
71947SOL    HW217739  14.044   1.568   6.098
71948SOL     OW17740  13.122   4.303  12.166
71948SOL    HW117741  13.081   4.250  12.234
71948SOL    HW217742  13.060   4.376  12.153
71949SOL     OW17743   0.011   4.085  10.346
71949SOL    HW117744   0.011   3.999  10.303
71949SOL    HW217745  14.808   4.131  10.307
71950SOL     OW17746   3.453  10.290   9.473
71950SOL    HW117747   3.379  10.351   9.480
71950SOL    HW217748   3.460  10.251   9.560
71951SOL     OW17749  12.190  12.892  13.485
71951SOL    HW117750  12.141  12.973  13.483
71951SOL    HW217751  12.188  12.859  13.395
71952SOL     OW17752  12.443   8.047  10.525
71952SOL    HW117753  12.478   8.059  10.437
71952SOL    HW217754  12.372   7.983  10.515
71953SOL     OW17755   0.804   2.649   1.591
71953SOL    HW117756   0.874   2.629   1.653
71953SOL    HW217757   0.804   2.576   1.530
71954SOL     OW17758   3.794  13.591  10.398
71954SOL    HW117759   3.779  13.502  10.366
71954SOL    HW217760   3.772  13.647  10.324
71955SOL     OW17761   7.170  13.343   3.264
71955SOL    HW117762   7.138  13.387   3.343
71955SOL    HW217763   7.098  13.351   3.201
71956SOL     OW17764   9.632  13.083   8.467
71956SOL    HW117765   9.655  13.176   8.472
71956SOL    HW217766   9.547  13.082   8.424
71957SOL     OW17767   5.709   6.651   3.832
71957SOL    HW117768   5.649   6.720   3.861
71957SOL    HW217769   5.690   6.642   3.738
71958SOL     OW17770   7.839   1.708   9.976
71958SOL    HW117771   7.923   1.691   9.933
71958SOL    HW217772   7.846   1.798  10.007
71959SOL     OW17773   6.006  13.364   7.165
71959SOL    HW117774   6.034  13.373   7.256
71959SOL    HW217775   5.937  13.298   7.167
71960SOL     OW17776   4.692  11.033   6.338
71960SOL    HW117777   4.672  10.969   6.270
71960SOL    HW217778   4.782  11.061   6.320
71961SOL     OW17779   1.691   6.458   0.091
71961SOL    HW117780   1.774   6.410   0.087
71961SOL    HW217781   1.657   6.455   0.002
71962SOL     OW17782  12.261   4.503  14.202
71962SOL    HW117783  12.175   4.495  14.161
71962SOL    HW217784  12.322   4.510  14.129
71963SOL     OW17785  10.360   0.514   9.657
71963SOL    HW117786  10.376   0.607   9.667
71963SOL    HW217787  10.283   0.497   9.712
71964SOL     OW17788   0.220   1.829   0.089
71964SOL    HW117789   0.301   1.787   0.120
71964SOL    HW217790   0.188   1.772   0.020
71965SOL     OW17791   6.290   7.428   9.504
71965SOL    HW117792   6.370   7.401   9.549
71965SOL    HW217793   6.308   7.518   9.476
71966SOL     OW17794  14.286   4.267   0.565
71966SOL    HW117795  14.243   4.239   0.646
71966SOL    HW217796  14.249   4.211   0.497
71967SOL     OW17797  10.577   5.556  12.740
71967SOL    HW117798  10.522   5.623  12.779
71967SOL    HW217799  10.522   5.477  12.739
71968SOL     OW17800   1.016   2.424  13.069
71968SOL    HW117801   1.074   2.492  13.102
71968SOL    HW217802   1.020   2.434  12.974
71969SOL     OW17803   3.212   3.403   9.677
71969SOL    HW117804   3.129   3.433   9.639
71969SOL    HW217805   3.197   3.310   9.696
71970SOL     OW17806  12.320   7.801   4.954
71970SOL    HW117807  12.238   7.764   4.921
71970SOL    HW217808  12.297   7.841   5.037
71971SOL     OW17809  13.591   0.191   0.528
71971SOL    HW117810  13.584   0.213   0.435
71971SOL    HW217811  13.502   0.198   0.562
71972SOL     OW17812  11.532   0.185   4.854
71972SOL    HW117813  11.482   0.168   4.934
71972SOL    HW217814  11.619   0.149   4.872
71973SOL     OW17815   0.376   6.044   6.971
71973SOL    HW117816   0.462   6.003   6.979
71973SOL    HW217817   0.327   5.987   6.912
71974SOL     OW17818  13.801  10.076  10.484
71974SOL    HW117819  13.809  10.159  10.530
71974SOL    HW217820  13.843  10.091  10.399
71975SOL     OW17821   9.383  13.378   2.652
71975SOL    HW117822   9.374  13.319   2.727
71975SOL    HW217823   9.476  13.371   2.627
71976SOL     OW17824   2.721   4.768  12.554
71976SOL    HW117825   2.773   4.693  12.583
71976SOL    HW217826   2.770   4.844  12.587
71977SOL     OW17827  10.032  10.296  13.709
71977SOL    HW117828  10.032  10.245  13.628
71977SOL    HW217829  10.103  10.360  13.697
71978SOL     OW17830   9.854   0.529  11.609
71978SOL    HW117831   9.823   0.498  11.694
71978SOL    HW217832   9.779   0.519  11.551
71979SOL     OW17833  13.489   0.908  10.388
71979SOL    HW117834  13.564   0.856  10.416
71979SOL    HW217835  13.472   0.879  10.299
71980SOL     OW17836   1.788  10.923   7.692
71980SOL    HW117837   1.845  10.974   7.635
71980SOL    HW217838   1.833  10.839   7.703
71981SOL     OW17839   8.489   5.703   8.713
71981SOL    HW117840   8.537   5.633   8.669
71981SOL    HW217841   8.485   5.675   8.805
71982SOL     OW17842  13.316   5.205   7.906
71982SOL    HW117843  13.358   5.136   7.958
71982SOL    HW217844  13.346   5.287   7.945
71983SOL     OW17845   2.429   6.284   6.081
71983SOL    HW117846   2.368   6.317   6.148
71983SOL    HW217847   2.395   6.319   5.999
71984SOL     OW17848  14.419   0.206   9.655
71984SOL    HW117849  14.366   0.135   9.619
71984SOL    HW217850  14.501   0.163   9.680
71985SOL     OW17851  10.352   1.055   8.953
71985SOL    HW117852  10.354   1.047   9.048
71985SOL    HW217853  10.417   1.123   8.933
71986SOL     OW17854  11.899   2.679   9.213
71986SOL    HW117855  11.927   2.633   9.292
71986SOL    HW217856  11.964   2.748   9.201
71987SOL     OW17857  13.396  10.395  10.055
71987SOL    HW117858  13.414  10.375   9.963
71987SOL    HW217859  13.302  10.412  10.057
71988SOL     OW17860   8.729   7.351   6.727
71988SOL    HW117861   8.788   7.307   6.666
71988SOL    HW217862   8.674   7.406   6.671
71989SOL     OW17863   8.848   7.196   9.808
71989SOL    HW117864   8.811   7.255   9.873
71989SOL    HW217865   8.941   7.218   9.806
71990SOL     OW17866  10.718   6.627   2.780
71990SOL    HW117867  10.718   6.639   2.685
71990SOL    HW217868  10.640   6.574   2.798
71991SOL     OW17869  12.952   9.726  13.633
71991SOL    HW117870  13.020   9.793  13.638
71991SOL    HW217871  12.944   9.708  13.539
71992SOL     OW17872   6.359   2.163   7.664
71992SOL    HW117873   6.392   2.106   7.734
71992SOL    HW217874   6.432   2.173   7.604
71993SOL     OW17875  12.231   3.129   5.014
71993SOL    HW117876  12.158   3.186   4.990
71993SOL    HW217877  12.309   3.177   4.988
71994SOL     OW17878   1.148   9.094  14.325
71994SOL    HW117879   1.136   9.180  14.285
71994SOL    HW217880   1.084   9.039  14.281
71995SOL     OW17881   1.617   5.246   8.282
71995SOL    HW117882   1.604   5.169   8.227
71995SOL    HW217883   1.650   5.313   8.221
71996SOL     OW17884   6.702   4.751   2.582
71996SOL    HW117885   6.790   4.785   2.568
71996SOL    HW217886   6.714   4.678   2.643
71997SOL     OW17887   8.105   5.927   9.103
71997SOL    HW117888   8.026   5.956   9.058
71997SOL    HW217889   8.176   5.953   9.045
71998SOL     OW17890  12.736   7.742   7.947
71998SOL    HW117891  12.709   7.797   7.874
71998SOL    HW217892  12.684   7.662   7.938
71999SOL     OW17893   3.010  12.630  10.942
71999SOL    HW117894   3.093  12.619  10.988
71999SOL    HW217895   2.996  12.547  10.897
72000SOL     OW17896   2.948   1.461   9.073
72000SOL    HW117897   3.000   1.383   9.053
72000SOL    HW217898   2.972   1.524   9.005
72001SOL     OW17899   4.330  12.281   1.740
72001SOL    HW117900   4.305  12.281   1.832
72001SOL    HW217901   4.422  12.308   1.740
72002SOL     OW17902   6.328   2.123  13.698
72002SOL    HW117903   6.387   2.191  13.729
72002SOL    HW217904   6.340   2.051  13.759
72003SOL     OW17905  10.433  13.105   8.219
72003SOL    HW117906  10.504  13.166   8.241
72003SOL    HW217907  10.470  13.049   8.151
72004SOL     OW17908   4.817   5.848   2.606
72004SOL    HW117909   4.859   5.765   2.629
72004SOL    HW217910   4.872   5.915   2.646
72005SOL     OW17911   8.197   4.014   4.071
72005SOL    HW117912   8.217   3.922   4.089
72005SOL    HW217913   8.113   4.029   4.114
72006SOL     OW17914   2.817   3.391   8.581
72006SOL    HW117915   2.873   3.451   8.531
72006SOL    HW217916   2.877   3.323   8.613
72007SOL     OW17917  10.815  10.813   7.109
72007SOL    HW117918  10.859  10.800   7.192
72007SOL    HW217919  10.847  10.741   7.053
72008SOL     OW17920   2.824   1.960   7.019
72008SOL    HW117921   2.904   1.964   6.966
72008SOL    HW217922   2.756   1.996   6.962
72009SOL     OW17923   1.310   8.171  12.015
72009SOL    HW117924   1.349   8.195  12.099
72009SOL    HW217925   1.376   8.117  11.972
72010SOL     OW17926   4.307  12.234  10.049
72010SOL    HW117927   4.340  12.144  10.055
72010SOL    HW217928   4.229  12.234  10.105
72011SOL     OW17929   3.061   6.265  10.121
72011SOL    HW117930   2.978   6.304  10.147
72011SOL    HW217931   3.106   6.334  10.074
72012SOL     OW17932  10.418   3.288   0.818
72012SOL    HW117933  10.356   3.305   0.890
72012SOL    HW217934  10.455   3.202   0.839
72013SOL     OW17935   2.625   8.949  11.637
72013SOL    HW117936   2.579   9.033  11.626
72013SOL    HW217937   2.558   8.883  11.623
72014SOL     OW17938   9.738  11.308  11.462
72014SOL    HW117939   9.766  11.216  11.461
72014SOL    HW217940   9.711  11.326  11.372
72015SOL     OW17941   7.329   6.664  14.540
72015SOL    HW117942   7.359   6.698  14.625
72015SOL    HW217943   7.244   6.625  14.560
72016SOL     OW17944   9.779   0.187   9.162
72016SOL    HW117945   9.710   0.245   9.196
72016SOL    HW217946   9.737   0.137   9.093
72017SOL     OW17947   7.105   2.491  10.947
72017SOL    HW117948   7.157   2.475  11.025
72017SOL    HW217949   7.149   2.443  10.877
72018SOL     OW17950   5.113   6.695   3.287
72018SOL    HW117951   5.143   6.785   3.304
72018SOL    HW217952   5.020   6.705   3.265
72019SOL     OW17953  10.916  11.629   7.651
72019SOL    HW117954  10.833  11.612   7.606
72019SOL    HW217955  10.945  11.713   7.616
72020SOL     OW17956  13.538   3.972   5.918
72020SOL    HW117957  13.542   3.896   5.976
72020SOL    HW217958  13.533   3.935   5.830
72021SOL     OW17959   2.347   0.085  14.499
72021SOL    HW117960   2.329   0.179  14.500
72021SOL    HW217961   2.348   0.063  14.406
72022SOL     OW17962  11.274   0.046   1.162
72022SOL    HW117963  11.245   0.013   1.077
72022SOL    HW217964  11.234   0.133   1.169
72023SOL     OW17965   2.207   0.324   0.534
72023SOL    HW117966   2.195   0.390   0.466
72023SOL    HW217967   2.149   0.353   0.605
72024SOL     OW17968   7.625   3.240   9.508
72024SOL    HW117969   7.608   3.326   9.470
72024SOL    HW217970   7.672   3.258   9.589
72025SOL     OW17971  11.643   4.138   4.872
72025SOL    HW117972  11.673   4.095   4.792
72025SOL    HW217973  11.664   4.076   4.942
72026SOL     OW17974   9.499  11.289   5.574
72026SOL    HW117975   9.499  11.382   5.597
72026SOL    HW217976   9.469  11.245   5.654
72027SOL     OW17977   4.668   8.908   8.856
72027SOL    HW117978   4.606   8.968   8.898
72027SOL    HW217979   4.723   8.965   8.802
72028SOL     OW17980   8.582  10.494  13.227
72028SOL    HW117981   8.510  10.436  13.201
72028SOL    HW217982   8.633  10.507  13.147
72029SOL     OW17983  13.234   1.598   5.167
72029SOL    HW117984  13.267   1.570   5.253
72029SOL    HW217985  13.146   1.631   5.185
72030SOL     OW17986   6.027   4.465   7.690
72030SOL    HW117987   6.065   4.512   7.764
72030SOL    HW217988   6.100   4.452   7.630
72031SOL     OW17989   2.391  10.078   4.322
72031SOL    HW117990   2.460  10.017   4.349
72031SOL    HW217991   2.436  10.161   4.307
72032SOL     OW17992   5.576   4.136  10.891
72032SOL    HW117993   5.562   4.150  10.798
72032SOL    HW217994   5.547   4.047  10.908
72033SOL     OW17995   7.479   7.698   2.198
72033SOL    HW117996   7.566   7.738   2.197
72033SOL    HW217997   7.426   7.755   2.144
72034SOL     OW17998   7.648   4.397   2.499
72034SOL    HW117999   7.723   4.391   2.557
72034SOL    HW218000   7.685   4.405   2.412
72035SOL     OW18001   4.141   5.304   2.016
72035SOL    HW118002   4.100   5.225   1.981
72035SOL    HW218003   4.234   5.281   2.025
72036SOL     OW18004  10.561   2.948  10.305
72036SOL    HW118005  10.542   2.857  10.329
72036SOL    HW218006  10.580   2.991  10.389
72037SOL     OW18007   6.356   8.153  14.729
72037SOL    HW118008   6.337   8.239  14.691
72037SOL    HW218009   6.385   8.173  14.818
72038SOL     OW18010   5.432   0.747  13.847
72038SOL    HW118011   5.439   0.814  13.915
72038SOL    HW218012   5.347   0.764  13.806
72039SOL     OW18013  12.072  10.962   5.187
72039SOL    HW118014  12.027  10.972   5.272
72039SOL    HW218015  12.141  10.898   5.204
72040SOL     OW18016   0.569  11.147   9.834
72040SOL    HW118017   0.615  11.170   9.916
72040SOL    HW218018   0.478  11.172   9.850
72041SOL     OW18019   2.010  14.443  13.446
72041SOL    HW118020   2.078  14.422  13.510
72041SOL    HW218021   2.047  14.414  13.362
72042SOL     OW18022  10.958   2.759  13.620
72042SOL    HW118023  10.894   2.695  13.590
72042SOL    HW218024  11.043   2.719  13.601
72043SOL     OW18025   4.403  14.305  13.442
72043SOL    HW118026   4.470  14.325  13.377
72043SOL    HW218027   4.387  14.211  13.431
72044SOL     OW18028   3.024  13.965   5.189
72044SOL    HW118029   3.012  13.875   5.219
72044SOL    HW218030   3.068  13.957   5.104
72045SOL     OW18031   5.045   8.781   7.250
72045SOL    HW118032   4.978   8.768   7.316
72045SOL    HW218033   4.998   8.777   7.166
72046SOL     OW18034  13.485   4.329   0.213
72046SOL    HW118035  13.577   4.311   0.232
72046SOL    HW218036  13.465   4.407   0.265
72047SOL     OW18037  14.527  14.184   9.452
72047SOL    HW118038  14.493  14.104   9.412
72047SOL    HW218039  14.450  14.238   9.466
72048SOL     OW18040   7.148  13.729   0.930
72048SOL    HW118041   7.185  13.642   0.943
72048SOL    HW218042   7.204  13.788   0.981
72049SOL     OW18043   9.849  13.068   9.704
72049SOL    HW118044   9.802  13.036   9.627
72049SOL    HW218045   9.780  13.096   9.764
72050SOL     OW18046  13.349  13.830   8.477
72050SOL    HW118047  13.393  13.856   8.396
72050SOL    HW218048  13.255  13.835   8.457
72051SOL     OW18049   7.688   0.961   1.732
72051SOL    HW118050   7.689   1.034   1.795
72051SOL    HW218051   7.677   0.883   1.786
72052SOL     OW18052   7.544   2.990   9.011
72052SOL    HW118053   7.452   2.967   9.001
72052SOL    HW218054   7.543   3.068   9.067
72053SOL     OW18055   9.486   8.565   2.352
72053SOL    HW118056   9.453   8.475   2.355
72053SOL    HW218057   9.505   8.581   2.259
72054SOL     OW18058   8.786  13.836  12.533
72054SOL    HW118059   8.769  13.742  12.526
72054SOL    HW218060   8.790  13.867  12.443
72055SOL     OW18061  11.309   5.218   8.992
72055SOL    HW118062  11.305   5.151   9.060
72055SOL    HW218063  11.218   5.244   8.978
72056SOL     OW18064  14.056  14.833   8.357
72056SOL    HW118065  14.047  14.846   8.263
72056SOL    HW218066  13.992  14.765   8.378
72057SOL     OW18067   8.380   8.266  12.297
72057SOL    HW118068   8.439   8.329  12.339
72057SOL    HW218069   8.327   8.319  12.238
72058SOL     OW18070  10.559  14.667   5.809
72058SOL    HW118071  10.481  14.722   5.813
72058SOL    HW218072  10.564  14.626   5.896
72059SOL     OW18073  11.386   4.555   5.554
72059SOL    HW118074  11.359   4.581   5.642
72059SOL    HW218075  11.460   4.612   5.533
72060SOL     OW18076   2.825   1.237   9.351
72060SOL    HW118077   2.753   1.278   9.303
72060SOL    HW218078   2.877   1.311   9.384
72061SOL     OW18079  11.152   8.658   1.407
72061SOL    HW118080  11.210   8.704   1.467
72061SOL    HW218081  11.114   8.727   1.353
72062SOL     OW18082   8.188   3.915   1.669
72062SOL    HW118083   8.208   4.009   1.663
72062SOL    HW218084   8.239   3.875   1.600
72063SOL     OW18085  13.694   7.468  12.579
72063SOL    HW118086  13.667   7.479  12.487
72063SOL    HW218087  13.703   7.557  12.612
72064SOL     OW18088   0.052   4.209   2.570
72064SOL    HW118089  14.860   4.258   2.518
72064SOL    HW218090   0.125   4.269   2.581
72065SOL     OW18091   5.073   5.487  13.988
72065SOL    HW118092   5.047   5.579  13.997
72065SOL    HW218093   5.163   5.491  13.958
72066SOL     OW18094   0.740  14.823   5.139
72066SOL    HW118095   0.826  14.832   5.096
72066SOL    HW218096   0.745  14.739   5.184
72067SOL     OW18097  10.315   4.667   2.200
72067SOL    HW118098  10.369   4.734   2.241
72067SOL    HW218099  10.239   4.658   2.258
72068SOL     OW18100   3.693  12.745   0.111
72068SOL    HW118101   3.660  12.834   0.117
72068SOL    HW218102   3.742  12.743   0.029
72069SOL     OW18103   2.881   8.905   9.904
72069SOL    HW118104   2.885   8.845   9.829
72069SOL    HW218105   2.909   8.853   9.979
72070SOL     OW18106  10.913   0.367   3.264
72070SOL    HW118107  10.848   0.431   3.292
72070SOL    HW218108  10.978   0.365   3.335
72071SOL     OW18109  14.082  11.166   9.063
72071SOL    HW118110  14.073  11.211   9.147
72071SOL    HW218111  14.018  11.096   9.065
72072SOL     OW18112   7.379   7.706   4.054
72072SOL    HW118113   7.352   7.787   4.011
72072SOL    HW218114   7.308   7.645   4.036
72073SOL     OW18115   1.990   9.392  10.620
72073SOL    HW118116   1.896   9.377  10.619
72073SOL    HW218117   2.028   9.307  10.598
72074SOL     OW18118   7.506   8.798   7.977
72074SOL    HW118119   7.428   8.767   8.023
72074SOL    HW218120   7.567   8.824   8.047
72075SOL     OW18121   9.155   1.293  13.612
72075SOL    HW118122   9.181   1.377  13.573
72075SOL    HW218123   9.094   1.317  13.681
72076SOL     OW18124  11.585   9.131  11.917
72076SOL    HW118125  11.667   9.167  11.886
72076SOL    HW218126  11.520   9.159  11.852
72077SOL     OW18127   3.692  12.601   1.518
72077SOL    HW118128   3.770  12.581   1.465
72077SOL    HW218129   3.620  12.599   1.456
72078SOL     OW18130   5.842   4.226  10.275
72078SOL    HW118131   5.792   4.294  10.320
72078SOL    HW218132   5.868   4.267  10.193
72079SOL     OW18133   4.616  14.061   1.217
72079SOL    HW118134   4.587  14.105   1.138
72079SOL    HW218135   4.535  14.043   1.266
72080SOL     OW18136   3.275  12.218   3.041
72080SOL    HW118137   3.321  12.299   3.064
72080SOL    HW218138   3.342  12.150   3.043
72081SOL     OW18139   6.973  13.631   6.098
72081SOL    HW118140   6.998  13.542   6.124
72081SOL    HW218141   7.054  13.681   6.101
72082SOL     OW18142  14.303   2.844   5.704
72082SOL    HW118143  14.386   2.796   5.709
72082SOL    HW218144  14.293   2.865   5.611
72083SOL     OW18145   9.710  11.779   3.732
72083SOL    HW118146   9.636  11.719   3.746
72083SOL    HW218147   9.783  11.722   3.709
72084SOL     OW18148   5.233  14.102  14.685
72084SOL    HW118149   5.192  14.072  14.603
72084SOL    HW218150   5.185  14.057  14.754
72085SOL     OW18151  13.735   8.545   5.435
72085SOL    HW118152  13.663   8.604   5.458
72085SOL    HW218153  13.724   8.471   5.494
72086SOL     OW18154  14.417   3.093  13.951
72086SOL    HW118155  14.490   3.133  13.903
72086SOL    HW218156  14.357   3.063  13.882
72087SOL     OW18157   0.657  13.635  11.638
72087SOL    HW118158   0.620  13.576  11.704
72087SOL    HW218159   0.741  13.594  11.615
72088SOL     OW18160   5.669  11.532   1.902
72088SOL    HW118161   5.595  11.590   1.884
72088SOL    HW218162   5.630  11.445   1.912
72089SOL     OW18163  10.586   1.209   8.929
72089SOL    HW118164  10.614   1.174   9.014
72089SOL    HW218165  10.663   1.201   8.873
72090SOL     OW18166   5.207   0.960   1.142
72090SOL    HW118167   5.219   1.047   1.103
72090SOL    HW218168   5.126   0.927   1.102
72091SOL     OW18169   7.552   6.693   2.318
72091SOL    HW118170   7.465   6.657   2.335
72091SOL    HW218171   7.573   6.664   2.229
72092SOL     OW18172   5.830   3.288   8.547
72092SOL    HW118173   5.787   3.289   8.462
72092SOL    HW218174   5.797   3.210   8.590
72093SOL     OW18175   7.653   1.057   3.942
72093SOL    HW118176   7.645   0.973   3.898
72093SOL    HW218177   7.608   1.044   4.026
72094SOL     OW18178  13.658   3.983  10.371
72094SOL    HW118179  13.728   3.982  10.306
72094SOL    HW218180  13.585   3.939  10.328
72095SOL     OW18181   6.470   5.308   7.370
72095SOL    HW118182   6.425   5.392   7.374
72095SOL    HW218183   6.528   5.309   7.447
72096SOL     OW18184   6.516  12.856   3.382
72096SOL    HW118185   6.492  12.789   3.447
72096SOL    HW218186   6.546  12.806   3.306
72097SOL     OW18187   8.570   1.273   6.052
72097SOL    HW118188   8.529   1.354   6.083
72097SOL    HW218189   8.653   1.302   6.014
72098SOL     OW18190   2.309   9.253  13.538
72098SOL    HW118191   2.398   9.286  13.552
72098SOL    HW218192   2.302   9.179  13.598
72099SOL     OW18193  10.346   0.998  11.616
72099SOL    HW118194  10.363   1.062  11.685
72099SOL    HW218195  10.269   1.032  11.571
72100SOL     OW18196   9.474  12.784  14.073
72100SOL    HW118197   9.548  12.832  14.109
72100SOL    HW218198   9.512  12.734  14.000
72101SOL     OW18199  14.842  11.601   4.911
72101SOL    HW118200  14.786  11.661   4.863
72101SOL    HW218201   0.044  11.584   4.853
72102SOL     OW18202  12.074   1.891   8.211
72102SOL    HW118203  11.989   1.908   8.250
72102SOL    HW218204  12.135   1.945   8.261
72103SOL     OW18205  12.906  14.263  14.386
72103SOL    HW118206  12.866  14.305  14.462
72103SOL    HW218207  12.994  14.301  14.381
72104SOL     OW18208   8.380  14.347   9.723
72104SOL    HW118209   8.381  14.269   9.668
72104SOL    HW218210   8.420  14.318   9.805
72105SOL     OW18211  11.271  10.785   0.857
72105SOL    HW118212  11.244  10.782   0.765
72105SOL    HW218213  11.266  10.877   0.881
72106SOL     OW18214   1.177   9.053  11.440
72106SOL    HW118215   1.221   8.992  11.500
72106SOL    HW218216   1.086   9.054  11.470
72107SOL     OW18217   2.764   5.499   0.052
72107SOL    HW118218   2.838   5.474   0.108
72107SOL    HW218219   2.805   5.530  14.843
72108SOL     OW18220   3.864   8.085   7.331
72108SOL    HW118221   3.882   8.132   7.249
72108SOL    HW218222   3.946   8.038   7.349
72109SOL     OW18223   4.668   0.908   6.156
72109SOL    HW118224   4.615   0.836   6.121
72109SOL    HW218225   4.758   0.876   6.152
72110SOL     OW18226   9.371   1.548   4.589
72110SOL    HW118227   9.406   1.630   4.623
72110SOL    HW218228   9.441   1.483   4.603
72111SOL     OW18229   8.623   3.264   3.358
72111SOL    HW118230   8.673   3.311   3.424
72111SOL    HW218231   8.565   3.206   3.408
72112SOL     OW18232   3.226   5.160   4.972
72112SOL    HW118233   3.317   5.191   4.973
72112SOL    HW218234   3.214   5.125   4.884
72113SOL     OW18235  11.122   9.302   7.185
72113SOL    HW118236  11.181   9.243   7.232
72113SOL    HW218237  11.136   9.388   7.226
72114SOL     OW18238   4.797   1.952   7.932
72114SOL    HW118239   4.756   1.990   8.010
72114SOL    HW218240   4.793   2.021   7.866
72115SOL     OW18241   3.506   8.266  12.581
72115SOL    HW118242   3.462   8.337  12.627
72115SOL    HW218243   3.468   8.267  12.493
72116SOL     OW18244  10.046  14.456   9.665
72116SOL    HW118245   9.959  14.492   9.649
72116SOL    HW218246  10.034  14.362   9.661
72117SOL     OW18247   8.284  14.436   0.665
72117SOL    HW118248   8.363  14.391   0.638
72117SOL    HW218249   8.235  14.451   0.584
72118SOL     OW18250   0.015   0.278   0.820
72118SOL    HW118251  14.870   0.371   0.834
72118SOL    HW218252  14.800   0.241   0.802
72119SOL     OW18253  13.929   7.237   3.417
72119SOL    HW118254  13.921   7.142   3.426
72119SOL    HW218255  14.018   7.251   3.385
72120SOL     OW18256   4.784  10.176   9.469
72120SOL    HW118257   4.823  10.123   9.399
72120SOL    HW218258   4.763  10.114   9.538
72121SOL     OW18259   1.246   5.961   6.804
72121SOL    HW118260   1.322   6.013   6.830
72121SOL    HW218261   1.274   5.870   6.814
72122SOL     OW18262   9.734   1.946   1.229
72122SOL    HW118263   9.692   1.900   1.302
72122SOL    HW218264   9.662   1.986   1.181
72123SOL     OW18265   8.606   0.201  11.042
72123SOL    HW118266   8.513   0.188  11.026
72123SOL    HW218267   8.635   0.256  10.970
72124SOL     OW18268   2.164  14.119   1.778
72124SOL    HW118269   2.173  14.205   1.737
72124SOL    HW218270   2.077  14.120   1.819
72125SOL     OW18271   8.594   0.302   2.787
72125SOL    HW118272   8.547   0.260   2.716
72125SOL    HW218273   8.668   0.244   2.805
72126SOL     OW18274  11.845   6.454   8.352
72126SOL    HW118275  11.760   6.497   8.362
72126SOL    HW218276  11.849   6.391   8.423
72127SOL     OW18277   1.078  10.164   0.769
72127SOL    HW118278   1.119  10.080   0.791
72127SOL    HW218279   1.040  10.150   0.682
72128SOL     OW18280   6.313  13.813   1.347
72128SOL    HW118281   6.313  13.881   1.280
72128SOL    HW218282   6.254  13.746   1.313
72129SOL     OW18283   6.127  14.702  11.000
72129SOL    HW118284   6.047  14.669  10.958
72129SOL    HW218285   6.189  14.629  10.995
72130SOL     OW18286  11.674  14.576   8.252
72130SOL    HW118287  11.622  14.632   8.309
72130SOL    HW218288  11.706  14.506   8.310
72131SOL     OW18289   7.107  10.106   1.092
72131SOL    HW118290   7.104  10.012   1.106
72131SOL    HW218291   7.019  10.136   1.118
72132SOL     OW18292   0.385   3.560   9.329
72132SOL    HW118293   0.297   3.546   9.363
72132SOL    HW218294   0.430   3.610   9.397
72133SOL     OW18295   8.355   7.003  12.211
72133SOL    HW118296   8.286   6.952  12.169
72133SOL    HW218297   8.309   7.068  12.264
72134SOL     OW18298  12.794  13.376  13.183
72134SOL    HW118299  12.857  13.304  13.195
72134SOL    HW218300  12.721  13.337  13.136
72135SOL     OW18301   1.761   8.109   1.702
72135SOL    HW118302   1.831   8.061   1.749
72135SOL    HW218303   1.747   8.188   1.754
72136SOL     OW18304   6.495  14.730  11.763
72136SOL    HW118305   6.519  14.767  11.678
72136SOL    HW218306   6.465  14.805  11.814
72137SOL     OW18307   2.531  10.395  14.251
72137SOL    HW118308   2.589  10.322  14.231
72137SOL    HW218309   2.444  10.365  14.224
72138SOL     OW18310  11.254   9.395   0.680
72138SOL    HW118311  11.208   9.427   0.603
72138SOL    HW218312  11.221   9.450   0.752
72139SOL     OW18313  12.377  13.859   8.552
72139SOL    HW118314  12.434  13.930   8.580
72139SOL    HW218315  12.401  13.844   8.461
72140SOL     OW18316  10.887  11.967  10.088
72140SOL    HW118317  10.926  11.890  10.046
72140SOL    HW218318  10.800  11.973  10.049
72141SOL     OW18319   1.726  10.555  10.711
72141SOL    HW118320   1.714  10.572  10.804
72141SOL    HW218321   1.659  10.491  10.689
72142SOL     OW18322   5.892   6.663  10.498
72142SOL    HW118323   5.926   6.748  10.526
72142SOL    HW218324   5.807   6.656  10.541
72143SOL     OW18325   3.867  11.986  10.570
72143SOL    HW118326   3.804  11.947  10.631
72143SOL    HW218327   3.923  12.040  10.625
72144SOL     OW18328   6.846  12.850   5.190
72144SOL    HW118329   6.804  12.765   5.200
72144SOL    HW218330   6.774  12.914   5.197
72145SOL     OW18331  11.322   8.633   8.496
72145SOL    HW118332  11.351   8.609   8.408
72145SOL    HW218333  11.235   8.670   8.484
72146SOL     OW18334   7.763   7.045  14.495
72146SOL    HW118335   7.733   7.102  14.565
72146SOL    HW218336   7.857   7.033  14.511
72147SOL     OW18337   4.440  10.991   4.392
72147SOL    HW118338   4.350  10.982   4.423
72147SOL    HW218339   4.440  10.951   4.305
72148SOL     OW18340  11.125  13.453  13.654
72148SOL    HW118341  11.108  13.421  13.742
72148SOL    HW218342  11.164  13.378  13.608
72149SOL     OW18343   1.917  10.980   8.786
72149SOL    HW118344   1.963  11.057   8.752
72149SOL    HW218345   1.875  11.010   8.866
72150SOL     OW18346   4.360   9.259  10.229
72150SOL    HW118347   4.372   9.231  10.320
72150SOL    HW218348   4.269   9.287  10.224
72151SOL     OW18349   1.773  13.400   3.959
72151SOL    HW118350   1.818  13.468   3.909
72151SOL    HW218351   1.808  13.407   4.048
72152SOL     OW18352   0.048   7.164   3.193
72152SOL    HW118353   0.062   7.103   3.121
72152SOL    HW218354   0.135   7.175   3.232
72153SOL     OW18355  14.309   3.041   2.091
72153SOL    HW118356  14.334   2.950   2.080
72153SOL    HW218357  14.383   3.091   2.057
72154SOL     OW18358  11.363   0.694   7.905
72154SOL    HW118359  11.455   0.719   7.902
72154SOL    HW218360  11.363   0.599   7.896
72155SOL     OW18361   4.934   2.437   6.597
72155SOL    HW118362   4.937   2.523   6.557
72155SOL    HW218363   4.996   2.442   6.670
72156SOL     OW18364   4.066   9.969  13.080
72156SOL    HW118365   4.147   9.987  13.127
72156SOL    HW218366   4.084   9.999  12.990
72157SOL     OW18367   6.992  13.764  11.638
72157SOL    HW118368   7.076  13.789  11.677
72157SOL    HW218369   6.965  13.841  11.588
72158SOL     OW18370  13.151  10.988   5.652
72158SOL    HW118371  13.115  11.027   5.731
72158SOL    HW218372  13.204  11.057   5.613
72159SOL     OW18373   7.813   8.382   5.060
72159SOL    HW118374   7.724   8.374   5.025
72159SOL    HW218375   7.868   8.334   4.997
72160SOL     OW18376   9.338   0.948  14.548
72160SOL    HW118377   9.272   0.904  14.602
72160SOL    HW218378   9.387   1.003  14.610
72161SOL     OW18379   3.786   6.111  13.975
72161SOL    HW118380   3.718   6.130  13.911
72161SOL    HW218381   3.815   6.022  13.953
72162SOL     OW18382  10.792   8.960   4.826
72162SOL    HW118383  10.882   8.943   4.798
72162SOL    HW218384  10.758   9.020   4.759
72163SOL     OW18385  10.643  10.502   1.225
72163SOL    HW118386  10.636  10.588   1.183
72163SOL    HW218387  10.703  10.453   1.169
72164SOL     OW18388  12.386  10.862  13.201
72164SOL    HW118389  12.295  10.834  13.200
72164SOL    HW218390  12.383  10.956  13.218
72165SOL     OW18391  13.585   5.598  13.089
72165SOL    HW118392  13.502   5.613  13.134
72165SOL    HW218393  13.651   5.612  13.157
72166SOL     OW18394   1.411  13.295   2.123
72166SOL    HW118395   1.378  13.257   2.204
72166SOL    HW218396   1.398  13.227   2.056
72167SOL     OW18397   1.208   8.704   7.493
72167SOL    HW118398   1.274   8.771   7.512
72167SOL    HW218399   1.198   8.656   7.576
72168SOL     OW18400   7.678   2.216   2.687
72168SOL    HW118401   7.654   2.126   2.706
72168SOL    HW218402   7.603   2.252   2.639
72169SOL     OW18403   4.636  13.477   7.655
72169SOL    HW118404   4.668  13.566   7.668
72169SOL    HW218405   4.544  13.488   7.633
72170SOL     OW18406   1.053   2.622   2.686
72170SOL    HW118407   0.970   2.618   2.639
72170SOL    HW218408   1.067   2.716   2.701
72171SOL     OW18409   5.975  12.352   4.051
72171SOL    HW118410   6.056  12.316   4.088
72171SOL    HW218411   5.907  12.291   4.079
72172SOL     OW18412   5.081   1.591   8.332
72172SOL    HW118413   5.125   1.621   8.252
72172SOL    HW218414   5.134   1.626   8.403
72173SOL     OW18415   1.348   4.475   6.895
72173SOL    HW118416   1.295   4.517   6.963
72173SOL    HW218417   1.371   4.546   6.835
72174SOL     OW18418  13.107  13.323   4.935
72174SOL    HW118419  13.188  13.327   4.884
72174SOL    HW218420  13.106  13.234   4.971
72175SOL     OW18421  10.152   7.562   8.348
72175SOL    HW118422  10.118   7.480   8.314
72175SOL    HW218423  10.090   7.588   8.416
72176SOL     OW18424   8.307   6.185  12.856
72176SOL    HW118425   8.369   6.135  12.802
72176SOL    HW218426   8.348   6.271  12.866
72177SOL     OW18427  13.781   5.219   8.417
72177SOL    HW118428  13.844   5.152   8.446
72177SOL    HW218429  13.834   5.287   8.377
72178SOL     OW18430   5.558  13.095   5.073
72178SOL    HW118431   5.568  13.190   5.070
72178SOL    HW218432   5.647  13.062   5.080
72179SOL     OW18433  12.710   5.742   8.120
72179SOL    HW118434  12.689   5.652   8.147
72179SOL    HW218435  12.756   5.779   8.196
72180SOL     OW18436   1.016   8.328   2.776
72180SOL    HW118437   1.040   8.314   2.867
72180SOL    HW218438   0.994   8.241   2.742
72181SOL     OW18439   6.524  14.146  12.534
72181SOL    HW118440   6.481  14.187  12.458
72181SOL    HW218441   6.466  14.073  12.557
72182SOL     OW18442  10.214   1.250   6.156
72182SOL    HW118443  10.214   1.177   6.094
72182SOL    HW218444  10.301   1.250   6.195
72183SOL     OW18445   8.664   6.970   9.037
72183SOL    HW118446   8.718   6.891   9.036
72183SOL    HW218447   8.574   6.937   9.033
72184SOL     OW18448  10.192   7.829  11.440
72184SOL    HW118449  10.217   7.767  11.372
72184SOL    HW218450  10.132   7.890  11.397
72185SOL     OW18451  11.364   3.994   7.336
72185SOL    HW118452  11.322   4.034   7.260
72185SOL    HW218453  11.306   4.015   7.409
72186SOL     OW18454   5.370   2.075   2.353
72186SOL    HW118455   5.431   2.145   2.377
72186SOL    HW218456   5.346   2.034   2.436
72187SOL     OW18457   2.560   4.412  10.981
72187SOL    HW118458   2.633   4.358  11.012
72187SOL    HW218459   2.491   4.399  11.046
72188SOL     OW18460   1.705   3.180  11.038
72188SOL    HW118461   1.757   3.194  10.958
72188SOL    HW218462   1.713   3.262  11.086
72189SOL     OW18463   4.352   2.640   4.530
72189SOL    HW118464   4.312   2.580   4.467
72189SOL    HW218465   4.440   2.654   4.497
72190SOL     OW18466  10.240  11.714   9.935
72190SOL    HW118467  10.301  11.763   9.991
72190SOL    HW218468  10.286  11.705   9.852
72191SOL     OW18469  13.481  10.933   4.993
72191SOL    HW118470  13.418  10.867   4.963
72191SOL    HW218471  13.511  10.900   5.078
72192SOL     OW18472   4.991  12.952  13.005
72192SOL    HW118473   4.999  12.937  12.911
72192SOL    HW218474   4.992  12.865  13.043
72193SOL     OW18475   5.160   3.136  12.001
72193SOL    HW118476   5.090   3.166  12.060
72193SOL    HW218477   5.184   3.215  11.952
72194SOL     OW18478  13.259  10.753   4.873
72194SOL    HW118479  13.234  10.835   4.830
72194SOL    HW218480  13.230  10.763   4.964
72195SOL     OW18481  11.162   7.269   6.605
72195SOL    HW118482  11.125   7.335   6.663
72195SOL    HW218483  11.135   7.295   6.517
72196SOL     OW18484   0.960  10.434   9.134
72196SOL    HW118485   1.040  10.395   9.100
72196SOL    HW218486   0.974  10.440   9.228
72197SOL     OW18487   7.090   1.760   5.422
72197SOL    HW118488   7.180   1.772   5.390
72197SOL    HW218489   7.049   1.845   5.412
72198SOL     OW18490   4.879   5.892  12.888
72198SOL    HW118491   4.928   5.870  12.968
72198SOL    HW218492   4.854   5.808  12.851
72199SOL     OW18493  11.504   8.358  10.439
72199SOL    HW118494  11.490   8.302  10.515
72199SOL    HW218495  11.478   8.303  10.364
72200SOL     OW18496   9.551   0.768  12.916
72200SOL    HW118497   9.457   0.769  12.935
72200SOL    HW218498   9.564   0.840  12.855
72201SOL     OW18499  13.502   0.177  11.374
72201SOL    HW118500  13.420   0.205  11.415
72201SOL    HW218501  13.566   0.244  11.400
72202SOL     OW18502   2.685  10.132   7.467
72202SOL    HW118503   2.733  10.108   7.546
72202SOL    HW218504   2.665  10.048   7.424
72203SOL     OW18505   2.031  10.309  13.868
72203SOL    HW118506   1.960  10.250  13.895
72203SOL    HW218507   2.011  10.392  13.909
72204SOL     OW18508  12.971   9.278   3.904
72204SOL    HW118509  13.031   9.290   3.978
72204SOL    HW218510  13.028   9.282   3.827
72205SOL     OW18511   9.917   6.441   0.407
72205SOL    HW118512   9.942   6.502   0.337
72205SOL    HW218513   9.977   6.460   0.478
72206SOL     OW18514  12.037   8.623   3.341
72206SOL    HW118515  11.991   8.597   3.261
72206SOL    HW218516  12.006   8.712   3.358
72207SOL     OW18517   7.807   9.229   2.879
72207SOL    HW118518   7.777   9.268   2.961
72207SOL    HW218519   7.824   9.137   2.901
72208SOL     OW18520  14.012  12.064  14.159
72208SOL    HW118521  14.087  12.069  14.218
72208SOL    HW218522  13.936  12.057  14.217
72209SOL     OW18523  12.118  11.203   7.042
72209SOL    HW118524  12.094  11.137   6.977
72209SOL    HW218525  12.193  11.166   7.088
72210SOL     OW18526  10.324  12.696   8.047
72210SOL    HW118527  10.321  12.669   8.139
72210SOL    HW218528  10.397  12.647   8.010
72211SOL     OW18529   5.253   7.828   1.660
72211SOL    HW118530   5.172   7.818   1.709
72211SOL    HW218531   5.273   7.741   1.627
72212SOL     OW18532   5.993  10.625  11.211
72212SOL    HW118533   6.060  10.622  11.142
72212SOL    HW218534   6.041  10.604  11.292
72213SOL     OW18535   7.104   4.764   4.502
72213SOL    HW118536   7.060   4.697   4.553
72213SOL    HW218537   7.164   4.716   4.445
72214SOL     OW18538   7.342  13.202   1.781
72214SOL    HW118539   7.367  13.233   1.868
72214SOL    HW218540   7.277  13.265   1.750
72215SOL     OW18541   2.138   4.163   0.506
72215SOL    HW118542   2.177   4.179   0.593
72215SOL    HW218543   2.045   4.183   0.517
72216SOL     OW18544   4.994  10.430   4.428
72216SOL    HW118545   4.976  10.523   4.441
72216SOL    HW218546   4.937  10.404   4.356
72217SOL     OW18547  12.370  12.615   2.494
72217SOL    HW118548  12.390  12.706   2.472
72217SOL    HW218549  12.352  12.616   2.588
72218SOL     OW18550  10.284  13.962   7.883
72218SOL    HW118551  10.263  14.052   7.910
72218SOL    HW218552  10.280  13.911   7.964
72219SOL     OW18553   5.588  11.784   6.397
72219SOL    HW118554   5.523  11.792   6.327
72219SOL    HW218555   5.536  11.777   6.477
72220SOL     OW18556   1.252   7.224   4.425
72220SOL    HW118557   1.259   7.197   4.516
72220SOL    HW218558   1.189   7.162   4.387
72221SOL     OW18559   5.710   4.004   3.703
72221SOL    HW118560   5.622   4.040   3.701
72221SOL    HW218561   5.763   4.072   3.746
72222SOL     OW18562   3.599   5.426   2.839
72222SOL    HW118563   3.630   5.383   2.759
72222SOL    HW218564   3.582   5.353   2.899
72223SOL     OW18565  10.643   1.587   7.878
72223SOL    HW118566  10.637   1.547   7.965
72223SOL    HW218567  10.732   1.569   7.849
72224SOL     OW18568  13.305   5.108   6.606
72224SOL    HW118569  13.261   5.141   6.528
72224SOL    HW218570  13.375   5.052   6.572
72225SOL     OW18571   7.817   7.797   6.819
72225SOL    HW118572   7.803   7.807   6.725
72225SOL    HW218573   7.755   7.857   6.860
72226SOL     OW18574  11.400   1.216   5.847
72226SOL    HW118575  11.317   1.262   5.862
72226SOL    HW218576  11.422   1.179   5.933
72227SOL     OW18577   4.213   4.413   3.309
72227SOL    HW118578   4.128   4.400   3.349
72227SOL    HW218579   4.227   4.508   3.312
72228SOL     OW18580   4.246  10.046   9.106
72228SOL    HW118581   4.206  10.081   9.185
72228SOL    HW218582   4.224   9.953   9.106
72229SOL     OW18583  10.862   9.203   2.811
72229SOL    HW118584  10.777   9.201   2.767
72229SOL    HW218585  10.895   9.292   2.795
72230SOL     OW18586   5.363   4.671  11.884
72230SOL    HW118587   5.430   4.647  11.949
72230SOL    HW218588   5.330   4.755  11.913
72231SOL     OW18589   2.431  13.934   7.644
72231SOL    HW118590   2.453  14.022   7.614
72231SOL    HW218591   2.408  13.946   7.737
72232SOL     OW18592   7.666   5.418  13.086
72232SOL    HW118593   7.671   5.488  13.151
72232SOL    HW218594   7.715   5.450  13.011
72233SOL     OW18595   7.138   4.325   3.334
72233SOL    HW118596   7.207   4.347   3.396
72233SOL    HW218597   7.156   4.234   3.311
72234SOL     OW18598   9.546   7.938   8.086
72234SOL    HW118599   9.529   7.851   8.051
72234SOL    HW218600   9.602   7.922   8.162
72235SOL     OW18601  13.603  10.066  12.234
72235SOL    HW118602  13.655  10.094  12.309
72235SOL    HW218603  13.561  10.147  12.203
72236SOL     OW18604  11.454  10.156   4.069
72236SOL    HW118605  11.540  10.139   4.107
72236SOL    HW218606  11.405  10.197   4.140
72237SOL     OW18607   7.079   6.191  14.863
72237SOL    HW118608   7.140   6.123  14.835
72237SOL    HW218609   7.118   6.228   0.071
72238SOL     OW18610  10.693   8.896   6.666
72238SOL    HW118611  10.661   8.860   6.749
72238SOL    HW218612  10.690   8.822   6.605
72239SOL     OW18613   2.340   7.845   2.179
72239SOL    HW118614   2.305   7.878   2.096
72239SOL    HW218615   2.266   7.849   2.239
72240SOL     OW18616   8.206   5.185   9.089
72240SOL    HW118617   8.138   5.227   9.037
72240SOL    HW218618   8.190   5.091   9.078
72241SOL     OW18619   1.905   2.295  10.838
72241SOL    HW118620   1.823   2.286  10.886
72241SOL    HW218621   1.973   2.294  10.906
72242SOL     OW18622   4.890   2.534   4.423
72242SOL    HW118623   4.934   2.537   4.339
72242SOL    HW218624   4.866   2.625   4.441
72243SOL     OW18625   3.484   2.185   1.627
72243SOL    HW118626   3.493   2.185   1.722
72243SOL    HW218627   3.570   2.160   1.594
72244SOL     OW18628   6.937   8.318   5.101
72244SOL    HW118629   6.879   8.339   5.028
72244SOL    HW218630   6.912   8.229   5.126
72245SOL     OW18631   8.289   7.364   9.263
72245SOL    HW118632   8.263   7.423   9.333
72245SOL    HW218633   8.206   7.334   9.224
72246SOL     OW18634   8.716   0.452  11.442
72246SOL    HW118635   8.652   0.391  11.406
72246SOL    HW218636   8.670   0.494  11.515
72247SOL     OW18637   5.012   4.179   3.753
72247SOL    HW118638   4.966   4.148   3.675
72247SOL    HW218639   4.980   4.268   3.766
72248SOL     OW18640  10.861   5.341   6.026
72248SOL    HW118641  10.940   5.293   5.999
72248SOL    HW218642  10.863   5.421   5.974
72249SOL     OW18643   7.783   2.435   4.563
72249SOL    HW118644   7.828   2.355   4.536
72249SOL    HW218645   7.700   2.434   4.515
72250SOL     OW18646   4.645   8.066  10.989
72250SOL    HW118647   4.715   8.009  10.959
72250SOL    HW218648   4.569   8.041  10.936
72251SOL     OW18649  11.001   8.602   7.674
72251SOL    HW118650  10.950   8.540   7.727
72251SOL    HW218651  11.092   8.585   7.697
72252SOL     OW18652  11.294   3.019  13.205
72252SOL    HW118653  11.303   3.066  13.123
72252SOL    HW218654  11.249   2.938  13.181
72253SOL     OW18655   6.824   3.399   9.641
72253SOL    HW118656   6.779   3.316   9.627
72253SOL    HW218657   6.759   3.465   9.616
72254SOL     OW18658   7.346  13.810  12.036
72254SOL    HW118659   7.438  13.794  12.058
72254SOL    HW218660   7.343  13.902  12.011
72255SOL     OW18661  11.258   2.400  14.186
72255SOL    HW118662  11.273   2.472  14.124
72255SOL    HW218663  11.211   2.440  14.259
72256SOL     OW18664   5.203   9.019   4.299
72256SOL    HW118665   5.136   9.075   4.339
72256SOL    HW218666   5.159   8.981   4.223
72257SOL     OW18667   7.222   9.377   7.536
72257SOL    HW118668   7.276   9.447   7.498
72257SOL    HW218669   7.199   9.409   7.623
72258SOL     OW18670   0.410   4.258   6.001
72258SOL    HW118671   0.408   4.351   5.981
72258SOL    HW218672   0.395   4.253   6.095
72259SOL     OW18673   3.062   3.696   0.899
72259SOL    HW118674   3.045   3.789   0.908
72259SOL    HW218675   3.140   3.691   0.843
72260SOL     OW18676   0.818   7.192  13.388
72260SOL    HW118677   0.905   7.181  13.427
72260SOL    HW218678   0.794   7.104  13.358
72261SOL     OW18679   7.920  11.561   0.723
72261SOL    HW118680   7.863  11.594   0.654
72261SOL    HW218681   7.947  11.474   0.692
72262SOL     OW18682   6.064  13.337  10.715
72262SOL    HW118683   5.991  13.374  10.764
72262SOL    HW218684   6.030  13.324  10.627
72263SOL     OW18685  13.612  11.154   7.511
72263SOL    HW118686  13.658  11.179   7.431
72263SOL    HW218687  13.623  11.229   7.570
72264SOL     OW18688   4.553   7.501   5.501
72264SOL    HW118689   4.612   7.426   5.506
72264SOL    HW218690   4.562   7.533   5.411
72265SOL     OW18691   4.942  13.048   5.266
72265SOL    HW118692   4.923  13.142   5.269
72265SOL    HW218693   5.024  13.042   5.216
72266SOL     OW18694   4.944  10.628   3.471
72266SOL    HW118695   4.851  10.636   3.492
72266SOL    HW218696   4.968  10.541   3.505
72267SOL     OW18697   2.781  11.036   8.663
72267SOL    HW118698   2.850  11.091   8.626
72267SOL    HW218699   2.826  10.983   8.729
72268SOL     OW18700  12.335   5.182  13.309
72268SOL    HW118701  12.426   5.197  13.282
72268SOL    HW218702  12.284   5.241  13.253
72269SOL     OW18703   9.200  11.923  11.838
72269SOL    HW118704   9.185  11.998  11.895
72269SOL    HW218705   9.258  11.866  11.889
72270SOL     OW18706  12.894  12.150   1.352
72270SOL    HW118707  12.917  12.216   1.287
72270SOL    HW218708  12.818  12.187   1.398
72271SOL     OW18709   2.356   5.839  12.968
72271SOL    HW118710   2.386   5.807  12.882
72271SOL    HW218711   2.413   5.913  12.987
72272SOL     OW18712   9.753   1.026   7.056
72272SOL    HW118713   9.728   1.092   7.121
72272SOL    HW218714   9.844   1.005   7.077
72273SOL     OW18715  10.226  10.771  13.146
72273SOL    HW118716  10.237  10.827  13.223
72273SOL    HW218717  10.283  10.811  13.079
72274SOL     OW18718   6.661   7.648   2.392
72274SOL    HW118719   6.747   7.688   2.383
72274SOL    HW218720   6.678   7.559   2.425
72275SOL     OW18721   3.673  11.770   1.066
72275SOL    HW118722   3.709  11.857   1.051
72275SOL    HW218723   3.585  11.773   1.029
72276SOL     OW18724   4.722  12.577   9.138
72276SOL    HW118725   4.815  12.581   9.115
72276SOL    HW218726   4.721  12.558   9.232
72277SOL     OW18727   9.596   7.195   0.517
72277SOL    HW118728   9.602   7.224   0.426
72277SOL    HW218729   9.684   7.166   0.538
72278SOL     OW18730  10.523   1.363  12.595
72278SOL    HW118731  10.462   1.435  12.578
72278SOL    HW218732  10.596   1.403  12.641
72279SOL     OW18733   8.583   0.487   8.407
72279SOL    HW118734   8.593   0.582   8.406
72279SOL    HW218735   8.637   0.458   8.481
72280SOL     OW18736   0.257   5.164   1.134
72280SOL    HW118737   0.327   5.140   1.194
72280SOL    HW218738   0.281   5.251   1.102
72281SOL     OW18739   3.966  10.536   6.397
72281SOL    HW118740   4.031  10.574   6.456
72281SOL    HW218741   4.002  10.450   6.374
72282SOL     OW18742  10.272   6.952   1.416
72282SOL    HW118743  10.214   6.914   1.350
72282SOL    HW218744  10.243   7.043   1.425
72283SOL     OW18745   8.907   7.572  10.484
72283SOL    HW118746   8.965   7.642  10.454
72283SOL    HW218747   8.946   7.492  10.451
72284SOL     OW18748   0.591  12.202   9.803
72284SOL    HW118749   0.608  12.173   9.893
72284SOL    HW218750   0.668  12.253   9.779
72285SOL     OW18751   0.660   2.249  10.434
72285SOL    HW118752   0.697   2.302  10.504
72285SOL    HW218753   0.671   2.159  10.463
72286SOL     OW18754   6.254  10.346   6.604
72286SOL    HW118755   6.306  10.268   6.585
72286SOL    HW218756   6.169  10.328   6.564
72287SOL     OW18757  14.275   1.164  10.070
72287SOL    HW118758  14.243   1.246  10.032
72287SOL    HW218759  14.198   1.127  10.114
72288SOL     OW18760  10.643  11.349   5.137
72288SOL    HW118761  10.558  11.305   5.136
72288SOL    HW218762  10.645  11.400   5.057
72289SOL     OW18763  11.791   3.030  11.561
72289SOL    HW118764  11.874   3.075  11.547
72289SOL    HW218765  11.730   3.099  11.588
72290SOL     OW18766  13.443   8.871  12.566
72290SOL    HW118767  13.368   8.852  12.509
72290SOL    HW218768  13.429   8.817  12.644
72291SOL     OW18769   1.525   2.069  11.108
72291SOL    HW118770   1.485   1.993  11.066
72291SOL    HW218771   1.563   2.034  11.189
72292SOL     OW18772   6.339  11.255   4.484
72292SOL    HW118773   6.358  11.268   4.391
72292SOL    HW218774   6.325  11.343   4.519
72293SOL     OW18775   5.403   2.242  14.603
72293SOL    HW118776   5.388   2.287  14.520
72293SOL    HW218777   5.495   2.213  14.599
72294SOL     OW18778  10.867   5.672   6.402
72294SOL    HW118779  10.855   5.585   6.439
72294SOL    HW218780  10.781   5.697   6.370
72295SOL     OW18781   9.034   3.400  13.441
72295SOL    HW118782   9.034   3.492  13.468
72295SOL    HW218783   8.948   3.387  13.401
72296SOL     OW18784   8.472   7.876   1.576
72296SOL    HW118785   8.438   7.885   1.665
72296SOL    HW218786   8.567   7.889   1.586
72297SOL     OW18787   3.962   3.100  14.460
72297SOL    HW118788   3.997   3.066  14.543
72297SOL    HW218789   3.905   3.172  14.486
72298SOL     OW18790   4.503   8.738   3.341
72298SOL    HW118791   4.540   8.769   3.423
72298SOL    HW218792   4.428   8.685   3.367
72299SOL     OW18793   5.592  11.658  13.739
72299SOL    HW118794   5.592  11.720  13.812
72299SOL    HW218795   5.653  11.589  13.764
72300SOL     OW18796   1.824  12.777   7.522
72300SOL    HW118797   1.760  12.711   7.494
72300SOL    HW218798   1.792  12.807   7.607
72301SOL     OW18799  10.457   4.491   3.006
72301SOL    HW118800  10.402   4.532   2.940
72301SOL    HW218801  10.528   4.554   3.021
72302SOL     OW18802   8.315   2.302   9.058
72302SOL    HW118803   8.350   2.306   8.969
72302SOL    HW218804   8.387   2.265   9.110
72303SOL     OW18805   0.046   6.234   2.714
72303SOL    HW118806  14.862   6.311   2.726
72303SOL    HW218807   0.030   6.208   2.623
72304SOL     OW18808   1.537   1.372   4.028
72304SOL    HW118809   1.601   1.326   4.082
72304SOL    HW218810   1.465   1.393   4.088
72305SOL     OW18811  13.013   1.383   8.770
72305SOL    HW118812  12.930   1.348   8.802
72305SOL    HW218813  13.073   1.308   8.773
72306SOL     OW18814   3.360   7.860   9.525
72306SOL    HW118815   3.449   7.879   9.555
72306SOL    HW218816   3.311   7.941   9.542
72307SOL     OW18817   5.245   0.316   5.220
72307SOL    HW118818   5.231   0.326   5.126
72307SOL    HW218819   5.172   0.363   5.261
72308SOL     OW18820   0.573   8.445   0.431
72308SOL    HW118821   0.586   8.418   0.522
72308SOL    HW218822   0.559   8.363   0.383
72309SOL     OW18823  10.602  13.359  14.025
72309SOL    HW118824  10.572  13.278  13.983
72309SOL    HW218825  10.693  13.368  13.999
72310SOL     OW18826   8.528   3.524  12.481
72310SOL    HW118827   8.611   3.534  12.435
72310SOL    HW218828   8.508   3.612  12.514
72311SOL     OW18829  12.847   3.232   6.500
72311SOL    HW118830  12.787   3.207   6.429
72311SOL    HW218831  12.926   3.261   6.454
72312SOL     OW18832  12.269   0.134  10.424
72312SOL    HW118833  12.302   0.215  10.463
72312SOL    HW218834  12.341   0.072  10.434
72313SOL     OW18835   0.339  10.029   1.929
72313SOL    HW118836   0.332  10.059   1.839
72313SOL    HW218837   0.407   9.961   1.926
72314SOL     OW18838  10.343   8.418   7.989
72314SOL    HW118839  10.394   8.417   7.908
72314SOL    HW218840  10.390   8.480   8.045
72315SOL     OW18841  13.479   7.739   8.613
72315SOL    HW118842  13.560   7.691   8.599
72315SOL    HW218843  13.429   7.726   8.532
72316SOL     OW18844   9.415   8.897   8.111
72316SOL    HW118845   9.430   8.821   8.055
72316SOL    HW218846   9.469   8.966   8.072
72317SOL     OW18847   4.798   4.001   1.655
72317SOL    HW118848   4.853   4.030   1.728
72317SOL    HW218849   4.855   3.945   1.602
72318SOL     OW18850   2.963  12.775   2.671
72318SOL    HW118851   2.909  12.782   2.592
72318SOL    HW218852   3.051  12.757   2.638
72319SOL     OW18853   3.364   4.002  14.274
72319SOL    HW118854   3.369   4.044  14.188
72319SOL    HW218855   3.451   4.013  14.311
72320SOL     OW18856   0.783   1.014  14.259
72320SOL    HW118857   0.719   0.951  14.291
72320SOL    HW218858   0.819   1.055  14.338
72321SOL     OW18859   0.391  10.325  12.425
72321SOL    HW118860   0.434  10.241  12.442
72321SOL    HW218861   0.442  10.363  12.354
72322SOL     OW18862   4.613   1.758  11.108
72322SOL    HW118863   4.588   1.828  11.047
72322SOL    HW218864   4.666   1.802  11.174
72323SOL     OW18865  14.580   1.248   4.703
72323SOL    HW118866  14.505   1.188   4.698
72323SOL    HW218867  14.640   1.217   4.635
72324SOL     OW18868   6.994  13.098  11.622
72324SOL    HW118869   6.920  13.125  11.676
72324SOL    HW218870   6.957  13.033  11.562
72325SOL     OW18871  11.036  13.420  12.979
72325SOL    HW118872  11.046  13.510  12.947
72325SOL    HW218873  10.977  13.379  12.916
72326SOL     OW18874   2.390   4.300   9.607
72326SOL    HW118875   2.445   4.367   9.649
72326SOL    HW218876   2.330   4.274   9.677
72327SOL     OW18877   5.523  14.769   1.258
72327SOL    HW118878   5.608  14.809   1.241
72327SOL    HW218879   5.494  14.806   1.341
72328SOL     OW18880   9.828  11.034   4.209
72328SOL    HW118881   9.901  11.092   4.189
72328SOL    HW218882   9.867  10.946   4.211
72329SOL     OW18883   4.818   7.043   7.843
72329SOL    HW118884   4.828   6.958   7.885
72329SOL    HW218885   4.895   7.053   7.788
72330SOL     OW18886  13.590   5.998  11.060
72330SOL    HW118887  13.539   5.919  11.046
72330SOL    HW218888  13.681   5.968  11.067
72331SOL     OW18889  13.204   0.131  10.325
72331SOL    HW118890  13.174   0.167  10.242
72331SOL    HW218891  13.124   0.109  10.372
72332SOL     OW18892  14.156   2.395   8.845
72332SOL    HW118893  14.128   2.486   8.847
72332SOL    HW218894  14.145   2.365   8.936
72333SOL     OW18895   2.581  11.876  13.500
72333SOL    HW118896   2.567  11.849  13.409
72333SOL    HW218897   2.674  11.900  13.503
72334SOL     OW18898  10.780  12.846   1.943
72334SOL    HW118899  10.814  12.932   1.966
72334SOL    HW218900  10.853  12.786   1.959
72335SOL     OW18901   1.192   9.699   7.941
72335SOL    HW118902   1.282   9.730   7.930
72335SOL    HW218903   1.196   9.634   8.010
72336SOL     OW18904   4.775   9.018  10.465
72336SOL    HW118905   4.751   9.106  10.495
72336SOL    HW218906   4.787   8.968  10.546
72337SOL     OW18907   1.456   0.987   7.866
72337SOL    HW118908   1.482   1.006   7.776
72337SOL    HW218909   1.388   0.920   7.858
72338SOL     OW18910  10.952   1.061  14.800
72338SOL    HW118911  10.971   1.114  14.723
72338SOL    HW218912  10.925   0.976  14.765
72339SOL     OW18913   7.422   6.334   9.946
72339SOL    HW118914   7.360   6.407   9.955
72339SOL    HW218915   7.428   6.320   9.851
72340SOL     OW18916  12.427  14.817   4.883
72340SOL    HW118917  12.373  14.856   4.814
72340SOL    HW218918  12.413  14.723   4.874
72341SOL     OW18919  11.778   7.223   8.373
72341SOL    HW118920  11.740   7.136   8.359
72341SOL    HW218921  11.718   7.283   8.328
72342SOL     OW18922   1.720   0.052   1.114
72342SOL    HW118923   1.738   0.118   1.047
72342SOL    HW218924   1.710  14.842   1.064
72343SOL     OW18925   7.111  14.214   5.187
72343SOL    HW118926   7.129  14.120   5.187
72343SOL    HW218927   7.186  14.252   5.140
72344SOL     OW18928   9.160  11.409   5.116
72344SOL    HW118929   9.255  11.419   5.111
72344SOL    HW218930   9.131  11.413   5.025
72345SOL     OW18931   8.445   5.267   4.725
72345SOL    HW118932   8.399   5.265   4.810
72345SOL    HW218933   8.493   5.185   4.722
72346SOL     OW18934   5.611   8.595   3.669
72346SOL    HW118935   5.570   8.540   3.736
72346SOL    HW218936   5.705   8.587   3.686
72347SOL     OW18937  12.365   7.900   2.910
72347SOL    HW118938  12.305   7.926   2.840
72347SOL    HW218939  12.383   7.808   2.893
72348SOL     OW18940  10.134   0.226  11.065
72348SOL    HW118941  10.159   0.249  10.975
72348SOL    HW218942  10.150   0.132  11.070
72349SOL     OW18943   2.225   8.728   4.783
72349SOL    HW118944   2.235   8.751   4.691
72349SOL    HW218945   2.313   8.701   4.811
72350SOL     OW18946   2.374   0.005   4.358
72350SOL    HW118947   2.346   0.024   4.269
72350SOL    HW218948   2.428   0.080   4.383
72351SOL     OW18949   9.703  11.101  13.737
72351SOL    HW118950   9.648  11.034  13.777
72351SOL    HW218951   9.645  11.175  13.722
72352SOL     OW18952  13.912  14.157   2.787
72352SOL    HW118953  13.829  14.142   2.741
72352SOL    HW218954  13.893  14.136   2.879
72353SOL     OW18955   1.145   6.009   3.534
72353SOL    HW118956   1.240   6.012   3.535
72353SOL    HW218957   1.124   5.920   3.506
72354SOL     OW18958   4.906   4.840   8.867
72354SOL    HW118959   4.849   4.897   8.814
72354SOL    HW218960   4.962   4.900   8.916
72355SOL     OW18961   0.498  14.399   4.443
72355SOL    HW118962   0.460  14.379   4.357
72355SOL    HW218963   0.584  14.436   4.424
72356SOL     OW18964   3.899   8.321  14.364
72356SOL    HW118965   3.836   8.295  14.432
72356SOL    HW218966   3.850   8.315  14.282
72357SOL     OW18967   7.347  14.492  11.210
72357SOL    HW118968   7.363  14.408  11.253
72357SOL    HW218969   7.434  14.532  11.202
72358SOL     OW18970  10.836   1.425   8.709
72358SOL    HW118971  10.838   1.400   8.617
72358SOL    HW218972  10.779   1.502   8.713
72359SOL     OW18973   9.664  10.463  14.175
72359SOL    HW118974   9.578  10.471  14.217
72359SOL    HW218975   9.693  10.554  14.164
72360SOL     OW18976   3.656  13.217   2.589
72360SOL    HW118977   3.565  13.217   2.560
72360SOL    HW218978   3.664  13.297   2.641
72361SOL     OW18979  11.152   6.636   1.396
72361SOL    HW118980  11.064   6.656   1.362
72361SOL    HW218981  11.135   6.584   1.475
72362SOL     OW18982  14.125   6.383   6.836
72362SOL    HW118983  14.154   6.347   6.752
72362SOL    HW218984  14.165   6.327   6.902
72363SOL     OW18985  12.039   6.916   3.883
72363SOL    HW118986  12.077   6.985   3.830
72363SOL    HW218987  11.946   6.917   3.862
72364SOL     OW18988  12.424   6.236  12.662
72364SOL    HW118989  12.489   6.294  12.703
72364SOL    HW218990  12.347   6.244  12.717
72365SOL     OW18991  11.916   4.734   3.825
72365SOL    HW118992  11.917   4.793   3.901
72365SOL    HW218993  11.899   4.648   3.862
72366SOL     OW18994   7.272  14.638  13.398
72366SOL    HW118995   7.254  14.732  13.391
72366SOL    HW218996   7.187  14.597  13.384
72367SOL     OW18997   3.132   6.331   9.058
72367SOL    HW118998   3.180   6.396   9.006
72367SOL    HW218999   3.198   6.268   9.085
72368SOL     OW19000   7.249   2.242   3.494
72368SOL    HW119001   7.261   2.297   3.572
72368SOL    HW219002   7.329   2.254   3.443
72369SOL     OW19003   4.901   1.447   5.371
72369SOL    HW119004   4.984   1.424   5.412
72369SOL    HW219005   4.867   1.364   5.338
72370SOL     OW19006   4.136   4.665   3.538
72370SOL    HW119007   4.111   4.707   3.456
72370SOL    HW219008   4.231   4.654   3.532
72371SOL     OW19009  10.826  10.879  14.400
72371SOL    HW119010  10.746  10.840  14.362
72371SOL    HW219011  10.870  10.805  14.443
72372SOL     OW19012   5.144   6.353  10.061
72372SOL    HW119013   5.131   6.419  10.129
72372SOL    HW219014   5.210   6.294  10.096
72373SOL     OW19015   8.267  14.230   2.142
72373SOL    HW119016   8.193  14.177   2.172
72373SOL    HW219017   8.321  14.242   2.220
72374SOL     OW19018  13.579   8.127   7.086
72374SOL    HW119019  13.633   8.204   7.064
72374SOL    HW219020  13.522   8.157   7.156
72375SOL     OW19021  10.301  13.543   3.773
72375SOL    HW119022  10.270  13.550   3.863
72375SOL    HW219023  10.391  13.575   3.775
72376SOL     OW19024   6.420   0.051   1.694
72376SOL    HW119025   6.471   0.101   1.630
72376SOL    HW219026   6.329   0.065   1.669
72377SOL     OW19027   0.319   5.150   6.322
72377SOL    HW119028   0.233   5.186   6.342
72377SOL    HW219029   0.358   5.213   6.261
72378SOL     OW19030   3.471   6.689   6.050
72378SOL    HW119031   3.404   6.625   6.073
72378SOL    HW219032   3.534   6.684   6.122
72379SOL     OW19033   5.604  12.275   4.816
72379SOL    HW119034   5.582  12.267   4.724
72379SOL    HW219035   5.536  12.227   4.862
72380SOL     OW19036  12.285   8.989   4.660
72380SOL    HW119037  12.273   9.066   4.716
72380SOL    HW219038  12.378   8.967   4.668
72381SOL     OW19039   7.268  11.941   9.834
72381SOL    HW119040   7.273  12.005   9.763
72381SOL    HW219041   7.357  11.936   9.868
72382SOL     OW19042  12.253   8.261   0.686
72382SOL    HW119043  12.310   8.311   0.627
72382SOL    HW219044  12.186   8.224   0.629
72383SOL     OW19045   4.110  12.632  11.332
72383SOL    HW119046   4.073  12.620  11.419
72383SOL    HW219047   4.044  12.682  11.284
72384SOL     OW19048   9.912  11.070   1.003
72384SOL    HW119049   9.973  10.997   0.989
72384SOL    HW219050   9.964  11.149   0.987
72385SOL     OW19051   0.382   5.724   1.985
72385SOL    HW119052   0.419   5.644   2.023
72385SOL    HW219053   0.456   5.767   1.942
72386SOL     OW19054   7.523   2.956   0.913
72386SOL    HW119055   7.561   3.042   0.927
72386SOL    HW219056   7.447   2.954   0.972
72387SOL     OW19057   2.707   0.329   8.346
72387SOL    HW119058   2.694   0.373   8.430
72387SOL    HW219059   2.629   0.277   8.333
72388SOL     OW19060  12.620   4.951   2.420
72388SOL    HW119061  12.656   4.918   2.502
72388SOL    HW219062  12.643   4.885   2.354
72389SOL     OW19063   7.607  10.218   2.369
72389SOL    HW119064   7.681  10.161   2.350
72389SOL    HW219065   7.574  10.246   2.283
72390SOL     OW19066   0.511   8.008  12.614
72390SOL    HW119067   0.440   7.967  12.663
72390SOL    HW219068   0.526   8.092  12.659
72391SOL     OW19069   3.366  13.787   0.177
72391SOL    HW119070   3.311  13.813   0.102
72391SOL    HW219071   3.417  13.713   0.144
72392SOL     OW19072   3.026   1.081   4.453
72392SOL    HW119073   3.022   0.989   4.479
72392SOL    HW219074   3.109   1.112   4.489
72393SOL     OW19075   1.278   8.488   8.749
72393SOL    HW119076   1.276   8.392   8.749
72393SOL    HW219077   1.352   8.510   8.692
72394SOL     OW19078   8.567   0.248  14.534
72394SOL    HW119079   8.658   0.268  14.511
72394SOL    HW219080   8.534   0.328  14.575
72395SOL     OW19081   7.887   9.641   8.622
72395SOL    HW119082   7.978   9.617   8.637
72395SOL    HW219083   7.859   9.589   8.547
72396SOL     OW19084   8.967   2.980  12.218
72396SOL    HW119085   9.029   2.949  12.284
72396SOL    HW219086   8.888   3.000  12.267
72397SOL     OW19087   7.466   2.143  13.590
72397SOL    HW119088   7.517   2.062  13.596
72397SOL    HW219089   7.509   2.203  13.651
72398SOL     OW19090  12.441  12.582   4.436
72398SOL    HW119091  12.460  12.550   4.524
72398SOL    HW219092  12.527  12.590   4.394
72399SOL     OW19093  13.232   7.445  14.066
72399SOL    HW119094  13.275   7.492  14.138
72399SOL    HW219095  13.148   7.418  14.102
72400SOL     OW19096   7.677  14.152   7.335
72400SOL    HW119097   7.681  14.102   7.254
72400SOL    HW219098   7.591  14.194   7.334
72401SOL     OW19099   7.285   9.078  13.545
72401SOL    HW119100   7.367   9.037  13.516
72401SOL    HW219101   7.296   9.170  13.522
72402SOL     OW19102   2.164   9.477   2.608
72402SOL    HW119103   2.082   9.497   2.653
72402SOL    HW219104   2.205   9.563   2.593
72403SOL     OW19105   1.211  13.522   2.294
72403SOL    HW119106   1.245  13.610   2.313
72403SOL    HW219107   1.231  13.472   2.372
72404SOL     OW19108   6.748  12.847   1.035
72404SOL    HW119109   6.655  12.849   1.056
72404SOL    HW219110   6.779  12.935   1.053
72405SOL     OW19111   3.959  13.888   0.635
72405SOL    HW119112   3.963  13.849   0.722
72405SOL    HW219113   4.051  13.896   0.609
72406SOL     OW19114  14.372  14.522   9.215
72406SOL    HW119115  14.330  14.440   9.188
72406SOL    HW219116  14.395  14.565   9.133
72407SOL     OW19117   5.068  12.004  12.103
72407SOL    HW119118   5.150  11.996  12.151
72407SOL    HW219119   5.029  11.917  12.108
72408SOL     OW19120   0.690   6.624  10.600
72408SOL    HW119121   0.684   6.619  10.505
72408SOL    HW219122   0.702   6.533  10.629
72409SOL     OW19123  11.377  10.864   8.064
72409SOL    HW119124  11.285  10.845   8.045
72409SOL    HW219125  11.401  10.803   8.133
72410SOL     OW19126  12.731  13.826   7.296
72410SOL    HW119127  12.813  13.861   7.262
72410SOL    HW219128  12.742  13.731   7.292
72411SOL     OW19129  11.500   4.431   0.243
72411SOL    HW119130  11.538   4.347   0.215
72411SOL    HW219131  11.449   4.409   0.321
72412SOL     OW19132  12.303  13.677   1.209
72412SOL    HW119133  12.222  13.688   1.160
72412SOL    HW219134  12.372  13.700   1.147
72413SOL     OW19135   4.859   7.789  11.325
72413SOL    HW119136   4.809   7.773  11.405
72413SOL    HW219137   4.939   7.737  11.335
72414SOL     OW19138   4.275   7.944   3.901
72414SOL    HW119139   4.243   7.866   3.948
72414SOL    HW219140   4.229   8.017   3.943
72415SOL     OW19141   8.489  13.783  10.149
72415SOL    HW119142   8.416  13.721  10.145
72415SOL    HW219143   8.453  13.866  10.117
72416SOL     OW19144  10.625   6.699   8.879
72416SOL    HW119145  10.649   6.723   8.789
72416SOL    HW219146  10.543   6.650   8.869
72417SOL     OW19147  13.674  11.042   4.341
72417SOL    HW119148  13.748  11.085   4.299
72417SOL    HW219149  13.643  10.978   4.276
72418SOL     OW19150   3.396   3.673   1.047
72418SOL    HW119151   3.440   3.594   1.017
72418SOL    HW219152   3.464   3.740   1.047
72419SOL     OW19153   0.033  12.330  12.645
72419SOL    HW119154   0.099  12.263  12.661
72419SOL    HW219155   0.049  12.360  12.556
72420SOL     OW19156   3.653   9.902  13.700
72420SOL    HW119157   3.711   9.949  13.640
72420SOL    HW219158   3.597   9.849  13.644
72421SOL     OW19159  10.876   6.200   6.839
72421SOL    HW119160  10.918   6.188   6.754
72421SOL    HW219161  10.940   6.251   6.890
72422SOL     OW19162   9.013   2.114   0.113
72422SOL    HW119163   8.981   2.026   0.133
72422SOL    HW219164   9.101   2.117   0.151
72423SOL     OW19165   3.151   1.289   6.152
72423SOL    HW119166   3.069   1.296   6.201
72423SOL    HW219167   3.125   1.300   6.060
72424SOL     OW19168   7.257  11.228   0.636
72424SOL    HW119169   7.176  11.181   0.618
72424SOL    HW219170   7.323  11.159   0.643
72425SOL     OW19171   9.864  14.211   2.369
72425SOL    HW119172   9.837  14.274   2.303
72425SOL    HW219173   9.826  14.128   2.339
72426SOL     OW19174  12.131  10.916  11.248
72426SOL    HW119175  12.193  10.845  11.237
72426SOL    HW219176  12.074  10.888  11.320
72427SOL     OW19177  11.685   7.947  10.292
72427SOL    HW119178  11.591   7.962  10.282
72427SOL    HW219179  11.726   8.010  10.232
72428SOL     OW19180  11.385   3.350   0.227
72428SOL    HW119181  11.345   3.331   0.142
72428SOL    HW219182  11.394   3.446   0.228
72429SOL     OW19183   7.257  10.689   9.718
72429SOL    HW119184   7.172  10.676   9.760
72429SOL    HW219185   7.300  10.757   9.772
72430SOL     OW19186  14.453  10.287   1.656
72430SOL    HW119187  14.471  10.194   1.643
72430SOL    HW219188  14.473  10.302   1.748
72431SOL     OW19189   0.012   8.343   2.288
72431SOL    HW119190   0.072   8.411   2.255
72431SOL    HW219191  14.812   8.392   2.328
72432SOL     OW19192   6.226   9.299   1.136
72432SOL    HW119193   6.255   9.352   1.062
72432SOL    HW219194   6.181   9.225   1.096
72433SOL     OW19195  13.346   0.371  10.674
72433SOL    HW119196  13.409   0.310  10.712
72433SOL    HW219197  13.291   0.398  10.748
72434SOL     OW19198   6.132   0.684   8.690
72434SOL    HW119199   6.122   0.628   8.767
72434SOL    HW219200   6.096   0.632   8.618
72435SOL     OW19201   4.711  10.033   6.906
72435SOL    HW119202   4.755   9.954   6.875
72435SOL    HW219203   4.729  10.036   7.000
72436SOL     OW19204   6.809   7.954  14.153
72436SOL    HW119205   6.749   7.918  14.219
72436SOL    HW219206   6.758   8.021  14.108
72437SOL     OW19207   5.312  13.696   4.582
72437SOL    HW119208   5.272  13.764   4.529
72437SOL    HW219209   5.242  13.633   4.598
72438SOL     OW19210   1.824   7.094  13.784
72438SOL    HW119211   1.788   7.159  13.723
72438SOL    HW219212   1.808   7.131  13.870
72439SOL     OW19213   3.789   3.834   3.791
72439SOL    HW119214   3.740   3.808   3.713
72439SOL    HW219215   3.784   3.929   3.793
72440SOL     OW19216   0.644   1.131   7.918
72440SOL    HW119217   0.630   1.091   7.832
72440SOL    HW219218   0.611   1.220   7.909
72441SOL     OW19219  10.655   0.923   8.353
72441SOL    HW119220  10.570   0.887   8.329
72441SOL    HW219221  10.654   1.013   8.321
72442SOL     OW19222  10.835  13.104   5.267
72442SOL    HW119223  10.807  13.164   5.198
72442SOL    HW219224  10.910  13.147   5.307
72443SOL     OW19225   8.322   2.191  14.217
72443SOL    HW119226   8.274   2.121  14.261
72443SOL    HW219227   8.290   2.188  14.127
72444SOL     OW19228  12.470  14.128   4.398
72444SOL    HW119229  12.535  14.191   4.367
72444SOL    HW219230  12.446  14.159   4.485
72445SOL     OW19231   1.265   4.514   4.605
72445SOL    HW119232   1.318   4.587   4.572
72445SOL    HW219233   1.299   4.497   4.692
72446SOL     OW19234   7.889  11.983  14.388
72446SOL    HW119235   7.853  11.900  14.419
72446SOL    HW219236   7.972  11.992  14.434
72447SOL     OW19237  12.632  11.520   8.081
72447SOL    HW119238  12.563  11.580   8.056
72447SOL    HW219239  12.599  11.433   8.058
72448SOL     OW19240  13.367   1.312   2.714
72448SOL    HW119241  13.435   1.277   2.773
72448SOL    HW219242  13.369   1.406   2.729
72449SOL     OW19243   5.630   5.839   6.383
72449SOL    HW119244   5.599   5.769   6.326
72449SOL    HW219245   5.718   5.858   6.352
72450SOL     OW19246  13.443   8.195   1.320
72450SOL    HW119247  13.396   8.112   1.331
72450SOL    HW219248  13.385   8.248   1.266
72451SOL     OW19249   9.102  11.797   1.845
72451SOL    HW119250   9.056  11.880   1.857
72451SOL    HW219251   9.189  11.813   1.881
72452SOL     OW19252   2.826  14.095   1.323
72452SOL    HW119253   2.820  14.146   1.242
72452SOL    HW219254   2.839  14.161   1.392
72453SOL     OW19255   0.995   7.482  13.454
72453SOL    HW119256   0.954   7.402  13.422
72453SOL    HW219257   1.029   7.526  13.376
72454SOL     OW19258   3.694   7.182   3.032
72454SOL    HW119259   3.619   7.148   3.081
72454SOL    HW219260   3.655   7.232   2.960
72455SOL     OW19261   5.743   4.914   2.411
72455SOL    HW119262   5.759   4.883   2.500
72455SOL    HW219263   5.811   4.980   2.396
72456SOL     OW19264   0.271   4.933   7.097
72456SOL    HW119265   0.358   4.920   7.060
72456SOL    HW219266   0.288   4.964   7.186
72457SOL     OW19267   2.533   4.630   8.895
72457SOL    HW119268   2.618   4.671   8.911
72457SOL    HW219269   2.544   4.539   8.924
72458SOL     OW19270   7.974  10.024   4.849
72458SOL    HW119271   7.966   9.955   4.783
72458SOL    HW219272   7.903  10.006   4.911
72459SOL     OW19273  10.968   6.519  13.919
72459SOL    HW119274  11.061   6.537  13.908
72459SOL    HW219275  10.959   6.497  14.011
72460SOL     OW19276   1.564   3.364  12.398
72460SOL    HW119277   1.500   3.403  12.458
72460SOL    HW219278   1.597   3.437  12.347
72461SOL     OW19279   1.757  11.324   1.189
72461SOL    HW119280   1.690  11.274   1.143
72461SOL    HW219281   1.797  11.379   1.121
72462SOL     OW19282   5.188   0.984   9.816
72462SOL    HW119283   5.241   0.918   9.769
72462SOL    HW219284   5.169   1.051   9.750
72463SOL     OW19285   1.521   9.883   3.174
72463SOL    HW119286   1.522   9.803   3.228
72463SOL    HW219287   1.600   9.876   3.120
72464SOL     OW19288   0.192   1.653  13.285
72464SOL    HW119289   0.237   1.709  13.222
72464SOL    HW219290   0.160   1.713  13.352
72465SOL     OW19291   3.307   4.285  10.667
72465SOL    HW119292   3.328   4.332  10.586
72465SOL    HW219293   3.345   4.339  10.736
72466SOL     OW19294  11.048  13.837   9.370
72466SOL    HW119295  11.127  13.869   9.326
72466SOL    HW219296  10.976  13.885   9.328
72467SOL     OW19297  12.610   5.925   2.908
72467SOL    HW119298  12.534   5.867   2.916
72467SOL    HW219299  12.575   6.013   2.923
72468SOL     OW19300  13.275   0.772   0.131
72468SOL    HW119301  13.323   0.756   0.212
72468SOL    HW219302  13.183   0.763   0.155
72469SOL     OW19303   4.566   0.328   1.094
72469SOL    HW119304   4.594   0.405   1.045
72469SOL    HW219305   4.564   0.257   1.029
72470SOL     OW19306  11.401   6.652   6.976
72470SOL    HW119307  11.439   6.565   6.992
72470SOL    HW219308  11.358   6.675   7.058
72471SOL     OW19309   0.617   9.459   4.983
72471SOL    HW119310   0.603   9.488   4.893
72471SOL    HW219311   0.662   9.533   5.024
72472SOL     OW19312   1.276   4.209   6.823
72472SOL    HW119313   1.209   4.180   6.885
72472SOL    HW219314   1.284   4.303   6.838
72473SOL     OW19315  12.018   1.931   9.319
72473SOL    HW119316  11.932   1.902   9.349
72473SOL    HW219317  12.078   1.864   9.350
72474SOL     OW19318   8.257  13.796   1.640
72474SOL    HW119319   8.325  13.848   1.597
72474SOL    HW219320   8.293  13.707   1.642
72475SOL     OW19321  12.949   7.067   3.957
72475SOL    HW119322  12.895   7.005   4.006
72475SOL    HW219323  13.038   7.050   3.987
72476SOL     OW19324   2.042   9.972   7.831
72476SOL    HW119325   1.954   9.958   7.864
72476SOL    HW219326   2.038   9.948   7.739
72477SOL     OW19327   6.847   5.555   1.017
72477SOL    HW119328   6.873   5.644   0.997
72477SOL    HW219329   6.852   5.508   0.933
72478SOL     OW19330   4.236   9.766   1.199
72478SOL    HW119331   4.194   9.835   1.250
72478SOL    HW219332   4.309   9.810   1.155
72479SOL     OW19333   2.451   4.624   6.143
72479SOL    HW119334   2.387   4.556   6.119
72479SOL    HW219335   2.497   4.643   6.062
72480SOL     OW19336   4.796   0.396  12.185
72480SOL    HW119337   4.803   0.386  12.090
72480SOL    HW219338   4.819   0.488  12.202
72481SOL     OW19339  10.184   1.412   9.665
72481SOL    HW119340  10.231   1.487   9.629
72481SOL    HW219341  10.093   1.439   9.665
72482SOL     OW19342   5.291  10.184  13.389
72482SOL    HW119343   5.385  10.171  13.404
72482SOL    HW219344   5.251  10.172  13.475
72483SOL     OW19345   1.354  11.231   2.033
72483SOL    HW119346   1.398  11.182   1.963
72483SOL    HW219347   1.406  11.210   2.111
72484SOL     OW19348   9.250  12.988   0.970
72484SOL    HW119349   9.324  12.951   0.922
72484SOL    HW219350   9.255  12.949   1.057
72485SOL     OW19351  11.607   4.601   7.053
72485SOL    HW119352  11.569   4.519   7.023
72485SOL    HW219353  11.665   4.576   7.125
72486SOL     OW19354   2.695   5.595   6.160
72486SOL    HW119355   2.600   5.605   6.161
72486SOL    HW219356   2.726   5.658   6.095
72487SOL     OW19357   1.873   2.886   0.488
72487SOL    HW119358   1.787   2.911   0.522
72487SOL    HW219359   1.903   2.818   0.548
72488SOL     OW19360  12.820   6.337  12.097
72488SOL    HW119361  12.861   6.254  12.072
72488SOL    HW219362  12.860   6.359  12.181
72489SOL     OW19363   1.343  14.360  13.624
72489SOL    HW119364   1.366  14.453  13.626
72489SOL    HW219365   1.397  14.323  13.554
72490SOL     OW19366   7.076   3.348  10.765
72490SOL    HW119367   7.166   3.344  10.797
72490SOL    HW219368   7.043   3.258  10.776
72491SOL     OW19369  13.954  11.753   5.967
72491SOL    HW119370  14.039  11.790   5.989
72491SOL    HW219371  13.972  11.690   5.898
72492SOL     OW19372  14.379   8.091  13.424
72492SOL    HW119373  14.306   8.100  13.484
72492SOL    HW219374  14.380   7.999  13.400
72493SOL     OW19375   9.445   3.920   8.760
72493SOL    HW119376   9.366   3.950   8.806
72493SOL    HW219377   9.500   3.997   8.752
72494SOL     OW19378   0.023  13.111  12.067
72494SOL    HW119379   0.038  13.147  11.979
72494SOL    HW219380  14.807  13.143  12.090
72495SOL     OW19381  12.440   9.087  11.762
72495SOL    HW119382  12.391   9.106  11.843
72495SOL    HW219383  12.484   9.170  11.742
72496SOL     OW19384   8.350   5.192  11.888
72496SOL    HW119385   8.338   5.159  11.977
72496SOL    HW219386   8.444   5.191  11.874
72497SOL     OW19387   6.073  10.854  13.303
72497SOL    HW119388   6.091  10.810  13.386
72497SOL    HW219389   5.978  10.846  13.292
72498SOL     OW19390  10.895   8.498  10.538
72498SOL    HW119391  10.886   8.518  10.445
72498SOL    HW219392  10.969   8.552  10.567
72499SOL     OW19393   8.953   6.140   3.699
72499SOL    HW119394   8.926   6.075   3.765
72499SOL    HW219395   9.048   6.129   3.693
72500SOL     OW19396   7.934   2.324  11.968
72500SOL    HW119397   7.880   2.387  11.920
72500SOL    HW219398   7.878   2.294  12.040
72501SOL     OW19399   4.004  11.633   5.451
72501SOL    HW119400   4.038  11.711   5.406
72501SOL    HW219401   3.978  11.665   5.537
72502SOL     OW19402  14.240  11.529  11.479
72502SOL    HW119403  14.176  11.497  11.415
72502SOL    HW219404  14.195  11.599  11.525
72503SOL     OW19405   8.062   4.488   4.008
72503SOL    HW119406   8.154   4.485   4.036
72503SOL    HW219407   8.018   4.538   4.076
72504SOL     OW19408   4.977  13.109  11.328
72504SOL    HW119409   4.993  13.024  11.368
72504SOL    HW219410   5.009  13.172  11.393
72505SOL     OW19411   3.293  10.927   9.117
72505SOL    HW119412   3.256  10.966   9.196
72505SOL    HW219413   3.369  10.982   9.097
72506SOL     OW19414   0.078   6.020  14.361
72506SOL    HW119415   0.135   6.065  14.298
72506SOL    HW219416   0.003   6.079  14.371
72507SOL     OW19417  11.278   4.616  13.701
72507SOL    HW119418  11.183   4.612  13.716
72507SOL    HW219419  11.291   4.568  13.620
72508SOL     OW19420   1.466  14.495   5.382
72508SOL    HW119421   1.532  14.429   5.402
72508SOL    HW219422   1.483  14.518   5.290
72509SOL     OW19423   3.369   1.093   5.938
72509SOL    HW119424   3.408   1.163   5.991
72509SOL    HW219425   3.414   1.098   5.854
72510SOL     OW19426  14.842   3.254   1.794
72510SOL    HW119427   0.057   3.287   1.771
72510SOL    HW219428  14.783   3.297   1.733
72511SOL     OW19429  11.426   7.035   9.323
72511SOL    HW119430  11.506   7.027   9.376
72511SOL    HW219431  11.441   7.112   9.268
72512SOL     OW19432   5.864  12.536   5.063
72512SOL    HW119433   5.789  12.478   5.074
72512SOL    HW219434   5.830  12.624   5.082
72513SOL     OW19435   7.880   0.753   7.162
72513SOL    HW119436   7.900   0.805   7.084
72513SOL    HW219437   7.962   0.750   7.211
72514SOL     OW19438   4.119   5.325   8.844
72514SOL    HW119439   4.170   5.361   8.916
72514SOL    HW219440   4.029   5.321   8.877
72515SOL     OW19441   0.270  11.198  11.333
72515SOL    HW119442   0.189  11.180  11.286
72515SOL    HW219443   0.320  11.254  11.274
72516SOL     OW19444   1.438   3.435   2.110
72516SOL    HW119445   1.402   3.524   2.113
72516SOL    HW219446   1.468   3.418   2.199
72517SOL     OW19447  13.362   5.987   7.922
72517SOL    HW119448  13.300   6.056   7.944
72517SOL    HW219449  13.448   6.027   7.937
72518SOL     OW19450   1.297  10.165   4.854
72518SOL    HW119451   1.355  10.217   4.799
72518SOL    HW219452   1.337  10.169   4.941
72519SOL     OW19453   7.973  11.713   3.658
72519SOL    HW119454   8.007  11.636   3.704
72519SOL    HW219455   8.013  11.709   3.571
72520SOL     OW19456  14.283   4.386   6.778
72520SOL    HW119457  14.374   4.381   6.806
72520SOL    HW219458  14.235   4.334   6.843
72521SOL     OW19459   9.501   1.265   4.916
72521SOL    HW119460   9.590   1.257   4.949
72521SOL    HW219461   9.490   1.358   4.898
72522SOL     OW19462  10.425  11.112  13.427
72522SOL    HW119463  10.455  11.119  13.336
72522SOL    HW219464  10.348  11.055  13.423
72523SOL     OW19465   2.455   5.188   0.724
72523SOL    HW119466   2.380   5.129   0.724
72523SOL    HW219467   2.506   5.162   0.647
72524SOL     OW19468   5.465   8.459  12.230
72524SOL    HW119469   5.481   8.446  12.137
72524SOL    HW219470   5.532   8.522  12.257
72525SOL     OW19471   3.706   8.683   6.870
72525SOL    HW119472   3.775   8.734   6.826
72525SOL    HW219473   3.691   8.730   6.952
72526SOL     OW19474   8.558   0.453   4.216
72526SOL    HW119475   8.557   0.379   4.278
72526SOL    HW219476   8.651   0.476   4.209
72527SOL     OW19477   4.293   9.864   2.294
72527SOL    HW119478   4.345   9.800   2.246
72527SOL    HW219479   4.202   9.841   2.274
72528SOL     OW19480   6.490   9.091   3.425
72528SOL    HW119481   6.523   9.055   3.342
72528SOL    HW219482   6.514   9.024   3.490
72529SOL     OW19483   2.393   6.055   6.968
72529SOL    HW119484   2.352   6.017   6.891
72529SOL    HW219485   2.388   5.986   7.034
72530SOL     OW19486   8.429  10.880  13.386
72530SOL    HW119487   8.380  10.941  13.441
72530SOL    HW219488   8.397  10.896  13.297
72531SOL     OW19489   9.566   7.159   7.040
72531SOL    HW119490   9.559   7.254   7.026
72531SOL    HW219491   9.535   7.146   7.130
72532SOL     OW19492  12.436   1.156  10.852
72532SOL    HW119493  12.494   1.225  10.887
72532SOL    HW219494  12.475   1.133  10.768
72533SOL     OW19495   4.395   2.798   7.929
72533SOL    HW119496   4.370   2.721   7.877
72533SOL    HW219497   4.437   2.857   7.867
72534SOL     OW19498   2.588   9.515   7.486
72534SOL    HW119499   2.584   9.435   7.538
72534SOL    HW219500   2.667   9.505   7.434
72535SOL     OW19501   1.994   1.208   6.994
72535SOL    HW119502   1.902   1.196   6.970
72535SOL    HW219503   2.019   1.124   7.034
72536SOL     OW19504   9.673   1.255   1.974
72536SOL    HW119505   9.744   1.196   1.999
72536SOL    HW219506   9.711   1.309   1.904
72537SOL     OW19507  13.981  11.622   5.039
72537SOL    HW119508  13.961  11.661   4.954
72537SOL    HW219509  14.069  11.585   5.029
72538SOL     OW19510   1.846   1.903   7.778
72538SOL    HW119511   1.861   1.966   7.849
72538SOL    HW219512   1.810   1.826   7.822
72539SOL     OW19513  12.145   9.509  10.975
72539SOL    HW119514  12.191   9.429  10.951
72539SOL    HW219515  12.170   9.573  10.908
72540SOL     OW19516  12.222   3.910   1.453
72540SOL    HW119517  12.211   3.939   1.362
72540SOL    HW219518  12.194   3.818   1.452
72541SOL     OW19519  13.380   2.704   1.048
72541SOL    HW119520  13.303   2.694   1.104
72541SOL    HW219521  13.374   2.794   1.015
72542SOL     OW19522   1.721   0.659   2.416
72542SOL    HW119523   1.742   0.614   2.498
72542SOL    HW219524   1.770   0.741   2.421
72543SOL     OW19525   0.596  10.228  11.173
72543SOL    HW119526   0.650  10.260  11.100
72543SOL    HW219527   0.506  10.242  11.143
72544SOL     OW19528  12.401   8.860   3.281
72544SOL    HW119529  12.461   8.818   3.343
72544SOL    HW219530  12.386   8.947   3.318
72545SOL     OW19531   5.148   5.789   4.546
72545SOL    HW119532   5.123   5.839   4.624
72545SOL    HW219533   5.201   5.850   4.495
72546SOL     OW19534   7.649   1.749   6.421
72546SOL    HW119535   7.634   1.781   6.510
72546SOL    HW219536   7.660   1.828   6.369
72547SOL     OW19537  11.367   8.022   1.905
72547SOL    HW119538  11.334   7.962   1.971
72547SOL    HW219539  11.341   7.984   1.821
72548SOL     OW19540   2.199  14.718   5.004
72548SOL    HW119541   2.115  14.740   5.044
72548SOL    HW219542   2.233  14.802   4.971
72549SOL     OW19543   7.983   8.610  13.458
72549SOL    HW119544   7.995   8.548  13.530
72549SOL    HW219545   7.937   8.684  13.499
72550SOL     OW19546   0.433  12.789   9.086
72550SOL    HW119547   0.517  12.830   9.067
72550SOL    HW219548   0.455  12.708   9.131
72551SOL     OW19549  14.674   2.195   0.309
72551SOL    HW119550  14.693   2.102   0.295
72551SOL    HW219551  14.578   2.199   0.310
72552SOL     OW19552   9.332   6.455   4.673
72552SOL    HW119553   9.422   6.422   4.669
72552SOL    HW219554   9.278   6.377   4.657
72553SOL     OW19555  13.244   5.455   1.685
72553SOL    HW119556  13.196   5.483   1.607
72553SOL    HW219557  13.208   5.509   1.756
72554SOL     OW19558   5.224   6.234   4.052
72554SOL    HW119559   5.281   6.234   3.975
72554SOL    HW219560   5.252   6.311   4.102
72555SOL     OW19561  10.160   2.280   0.256
72555SOL    HW119562  10.247   2.273   0.217
72555SOL    HW219563  10.168   2.348   0.322
72556SOL     OW19564   1.994  12.711   1.303
72556SOL    HW119565   1.946  12.748   1.377
72556SOL    HW219566   2.065  12.662   1.342
72557SOL     OW19567   9.817  12.808  12.592
72557SOL    HW119568   9.745  12.791  12.531
72557SOL    HW219569   9.896  12.786  12.544
72558SOL     OW19570   1.016   2.373   4.243
72558SOL    HW119571   1.005   2.315   4.168
72558SOL    HW219572   1.083   2.436   4.215
72559SOL     OW19573   7.556   0.554   5.807
72559SOL    HW119574   7.641   0.511   5.804
72559SOL    HW219575   7.522   0.535   5.894
72560SOL     OW19576   8.171  13.502  12.034
72560SOL    HW119577   8.225  13.441  11.983
72560SOL    HW219578   8.082  13.473  12.017
72561SOL     OW19579   6.905  10.670   1.248
72561SOL    HW119580   6.810  10.681   1.254
72561SOL    HW219581   6.922  10.588   1.294
72562SOL     OW19582   4.066  10.461   8.356
72562SOL    HW119583   4.101  10.375   8.375
72562SOL    HW219584   3.971  10.452   8.368
72563SOL     OW19585  14.549  14.362   8.532
72563SOL    HW119586  14.524  14.403   8.615
72563SOL    HW219587  14.468  14.358   8.482
72564SOL     OW19588  11.924   9.538  12.934
72564SOL    HW119589  11.919   9.559  12.841
72564SOL    HW219590  11.932   9.622  12.978
72565SOL     OW19591  11.328   2.468   0.146
72565SOL    HW119592  11.385   2.455   0.222
72565SOL    HW219593  11.384   2.451   0.071
72566SOL     OW19594   3.143   4.098  12.345
72566SOL    HW119595   3.184   4.122  12.428
72566SOL    HW219596   3.051   4.083  12.368
72567SOL     OW19597   3.615   2.801  10.747
72567SOL    HW119598   3.549   2.841  10.803
72567SOL    HW219599   3.602   2.707  10.756
72568SOL     OW19600   6.680   4.273   5.993
72568SOL    HW119601   6.723   4.327   6.060
72568SOL    HW219602   6.752   4.243   5.937
72569SOL     OW19603   9.451  10.097  12.457
72569SOL    HW119604   9.500  10.119  12.536
72569SOL    HW219605   9.487  10.155  12.389
72570SOL     OW19606   5.062   4.875   0.297
72570SOL    HW119607   5.038   4.850   0.208
72570SOL    HW219608   5.145   4.830   0.313
72571SOL     OW19609   5.425   3.242  12.677
72571SOL    HW119610   5.399   3.321  12.629
72571SOL    HW219611   5.389   3.255  12.764
72572SOL     OW19612   1.018   3.486  10.832
72572SOL    HW119613   0.933   3.442  10.836
72572SOL    HW219614   1.059   3.452  10.752
72573SOL     OW19615   0.368  14.144  10.035
72573SOL    HW119616   0.351  14.146   9.941
72573SOL    HW219617   0.341  14.230  10.066
72574SOL     OW19618  12.091  11.923  11.198
72574SOL    HW119619  12.046  11.945  11.280
72574SOL    HW219620  12.073  11.829  11.187
72575SOL     OW19621   1.835   7.059  11.930
72575SOL    HW119622   1.867   6.999  11.998
72575SOL    HW219623   1.849   7.146  11.967
72576SOL     OW19624   5.895  10.145   5.260
72576SOL    HW119625   5.835  10.098   5.318
72576SOL    HW219626   5.882  10.237   5.280
72577SOL     OW19627   5.912   7.479  13.886
72577SOL    HW119628   5.840   7.492  13.825
72577SOL    HW219629   5.870   7.467  13.971
72578SOL     OW19630  11.180  14.282   9.402
72578SOL    HW119631  11.190  14.230   9.482
72578SOL    HW219632  11.123  14.229   9.346
72579SOL     OW19633  12.356   4.473   6.076
72579SOL    HW119634  12.311   4.440   5.999
72579SOL    HW219635  12.428   4.526   6.041
72580SOL     OW19636   6.581  11.738   5.471
72580SOL    HW119637   6.666  11.761   5.433
72580SOL    HW219638   6.590  11.756   5.565
72581SOL     OW19639   1.855   1.314   4.411
72581SOL    HW119640   1.851   1.389   4.470
72581SOL    HW219641   1.926   1.260   4.446
72582SOL     OW19642   4.397  11.713  10.128
72582SOL    HW119643   4.416  11.804  10.106
72582SOL    HW219644   4.302  11.710  10.142
72583SOL     OW19645   2.236   3.933   2.049
72583SOL    HW119646   2.264   3.841   2.055
72583SOL    HW219647   2.191   3.939   1.965
72584SOL     OW19648   0.308   6.745  10.425
72584SOL    HW119649   0.343   6.659  10.402
72584SOL    HW219650   0.214   6.738  10.409
72585SOL     OW19651  14.770   2.064  14.785
72585SOL    HW119652  14.841   2.042  14.845
72585SOL    HW219653  14.691   2.032  14.829
72586SOL     OW19654   9.240  12.980  13.798
72586SOL    HW119655   9.206  12.952  13.883
72586SOL    HW219656   9.319  13.028  13.818
72587SOL     OW19657  13.016   5.008  13.719
72587SOL    HW119658  13.056   5.087  13.681
72587SOL    HW219659  13.067   4.936  13.683
72588SOL     OW19660   9.372   1.365   7.523
72588SOL    HW119661   9.404   1.379   7.612
72588SOL    HW219662   9.283   1.400   7.523
72589SOL     OW19663  11.640   7.395  10.974
72589SOL    HW119664  11.647   7.382  10.880
72589SOL    HW219665  11.678   7.482  10.989
72590SOL     OW19666  11.965   8.896  13.268
72590SOL    HW119667  12.015   8.875  13.189
72590SOL    HW219668  11.907   8.967  13.243
72591SOL     OW19669  12.717  12.616  10.728
72591SOL    HW119670  12.686  12.560  10.799
72591SOL    HW219671  12.791  12.568  10.691
72592SOL     OW19672   6.653   9.858  14.209
72592SOL    HW119673   6.569   9.850  14.163
72592SOL    HW219674   6.658   9.778  14.262
72593SOL     OW19675  11.464   4.195   9.074
72593SOL    HW119676  11.546   4.229   9.037
72593SOL    HW219677  11.422   4.272   9.113
72594SOL     OW19678   2.619   4.432   8.470
72594SOL    HW119679   2.634   4.339   8.490
72594SOL    HW219680   2.545   4.433   8.410
72595SOL     OW19681   7.366   7.391  12.416
72595SOL    HW119682   7.369   7.301  12.384
72595SOL    HW219683   7.337   7.442  12.341
72596SOL     OW19684   8.427   0.062  14.831
72596SOL    HW119685   8.403   0.154  14.821
72596SOL    HW219686   8.408   0.022  14.746
72597SOL     OW19687  12.591   1.525  13.277
72597SOL    HW119688  12.631   1.612  13.284
72597SOL    HW219689  12.665   1.467  13.255
72598SOL     OW19690  12.097   2.511   6.161
72598SOL    HW119691  12.109   2.563   6.082
72598SOL    HW219692  12.135   2.565   6.231
72599SOL     OW19693  10.003   2.327  14.640
72599SOL    HW119694  10.046   2.257  14.691
72599SOL    HW219695   9.910   2.308  14.647
72600SOL     OW19696  13.714   6.333   5.498
72600SOL    HW119697  13.773   6.342   5.424
72600SOL    HW219698  13.735   6.407   5.555
72601SOL     OW19699   4.049   2.858   5.478
72601SOL    HW119700   4.086   2.799   5.411
72601SOL    HW219701   4.014   2.931   5.428
72602SOL     OW19702   2.239   8.466  14.685
72602SOL    HW119703   2.155   8.460  14.640
72602SOL    HW219704   2.303   8.476  14.614
72603SOL     OW19705   7.200  14.650   6.445
72603SOL    HW119706   7.189  14.576   6.504
72603SOL    HW219707   7.113  14.668   6.411
72604SOL     OW19708   6.016   7.769  13.957
72604SOL    HW119709   6.099   7.790  14.001
72604SOL    HW219710   5.971   7.711  14.018
72605SOL     OW19711   0.522   7.237  11.410
72605SOL    HW119712   0.567   7.229  11.325
72605SOL    HW219713   0.567   7.175  11.467
72606SOL     OW19714  10.444  10.267   2.788
72606SOL    HW119715  10.530  10.226   2.794
72606SOL    HW219716  10.442  10.330   2.860
72607SOL     OW19717  14.253   2.638  10.650
72607SOL    HW119718  14.157   2.641  10.659
72607SOL    HW219719  14.279   2.559  10.698
72608SOL     OW19720  13.339   7.969  12.890
72608SOL    HW119721  13.269   7.970  12.824
72608SOL    HW219722  13.293   7.952  12.972
72609SOL     OW19723   3.804   1.512   8.379
72609SOL    HW119724   3.853   1.510   8.297
72609SOL    HW219725   3.762   1.426   8.385
72610SOL     OW19726  12.987  12.144   2.417
72610SOL    HW119727  12.916  12.085   2.392
72610SOL    HW219728  13.056  12.126   2.354
72611SOL     OW19729   1.569  13.219   5.282
72611SOL    HW119730   1.507  13.197   5.351
72611SOL    HW219731   1.605  13.304   5.308
72612SOL     OW19732   4.941   4.803   0.756
72612SOL    HW119733   4.956   4.836   0.667
72612SOL    HW219734   4.894   4.873   0.800
72613SOL     OW19735   9.977  10.023  13.769
72613SOL    HW119736  10.061   9.981  13.752
72613SOL    HW219737   9.998  10.116  13.775
72614SOL     OW19738   0.168   2.301   0.581
72614SOL    HW119739   0.171   2.397   0.584
72614SOL    HW219740   0.257   2.274   0.602
72615SOL     OW19741   6.493  12.385  10.677
72615SOL    HW119742   6.473  12.477  10.659
72615SOL    HW219743   6.588  12.379  10.669
72616SOL     OW19744  10.804   5.673   9.163
72616SOL    HW119745  10.722   5.664   9.115
72616SOL    HW219746  10.817   5.587   9.205
72617SOL     OW19747   1.446  12.629  14.016
72617SOL    HW119748   1.450  12.673  14.100
72617SOL    HW219749   1.502  12.680  13.958
72618SOL     OW19750   9.418  13.259   3.358
72618SOL    HW119751   9.378  13.195   3.417
72618SOL    HW219752   9.356  13.266   3.285
72619SOL     OW19753   2.390   7.627   3.958
72619SOL    HW119754   2.388   7.536   3.927
72619SOL    HW219755   2.331   7.628   4.034
72620SOL     OW19756  11.583  13.773  13.619
72620SOL    HW119757  11.492  13.742  13.622
72620SOL    HW219758  11.630  13.715  13.680
72621SOL     OW19759   2.689  12.830  14.347
72621SOL    HW119760   2.702  12.738  14.373
72621SOL    HW219761   2.616  12.827  14.286
72622SOL     OW19762   9.283   5.754   3.523
72622SOL    HW119763   9.280   5.678   3.580
72622SOL    HW219764   9.376   5.774   3.513
72623SOL     OW19765  13.735   7.077   0.876
72623SOL    HW119766  13.661   7.038   0.829
72623SOL    HW219767  13.756   7.013   0.944
72624SOL     OW19768  14.720   4.814   4.603
72624SOL    HW119769  14.657   4.742   4.600
72624SOL    HW219770  14.747   4.826   4.512
72625SOL     OW19771   9.253  13.324   6.071
72625SOL    HW119772   9.195  13.368   6.134
72625SOL    HW219773   9.333  13.306   6.121
72626SOL     OW19774   2.359   4.449   3.071
72626SOL    HW119775   2.414   4.526   3.086
72626SOL    HW219776   2.310   4.439   3.153
72627SOL     OW19777   8.485   4.037  12.178
72627SOL    HW119778   8.445   4.054  12.263
72627SOL    HW219779   8.463   3.945  12.160
72628SOL     OW19780   7.343  12.428   5.996
72628SOL    HW119781   7.279  12.477   6.047
72628SOL    HW219782   7.290  12.374   5.937
72629SOL     OW19783   2.753  10.886  14.468
72629SOL    HW119784   2.839  10.886  14.509
72629SOL    HW219785   2.702  10.823  14.520
72630SOL     OW19786  13.658   9.151   6.760
72630SOL    HW119787  13.688   9.210   6.829
72630SOL    HW219788  13.712   9.173   6.684
72631SOL     OW19789   9.407  14.636  13.698
72631SOL    HW119790   9.487  14.632  13.645
72631SOL    HW219791   9.336  14.634  13.634
72632SOL     OW19792  10.762  10.783   2.464
72632SOL    HW119793  10.798  10.746   2.545
72632SOL    HW219794  10.669  10.761   2.467
72633SOL     OW19795   0.306  13.938   2.906
72633SOL    HW119796   0.211  13.948   2.902
72633SOL    HW219797   0.322  13.896   2.990
72634SOL     OW19798   4.552   8.196   2.507
72634SOL    HW119799   4.464   8.159   2.498
72634SOL    HW219800   4.579   8.214   2.417
72635SOL     OW19801   1.315  11.350   8.523
72635SOL    HW119802   1.312  11.349   8.619
72635SOL    HW219803   1.327  11.258   8.498
72636SOL     OW19804   4.939   1.157   7.556
72636SOL    HW119805   5.018   1.123   7.516
72636SOL    HW219806   4.910   1.087   7.616
72637SOL     OW19807  12.141   7.874   5.168
72637SOL    HW119808  12.130   7.845   5.259
72637SOL    HW219809  12.186   7.959   5.175
72638SOL     OW19810   5.977   0.275  13.245
72638SOL    HW119811   5.945   0.199  13.294
72638SOL    HW219812   5.954   0.350  13.300
72639SOL     OW19813   5.078   1.408   6.497
72639SOL    HW119814   5.120   1.460   6.428
72639SOL    HW219815   5.150   1.363   6.540
72640SOL     OW19816   7.635   5.203   4.417
72640SOL    HW119817   7.664   5.175   4.503
72640SOL    HW219818   7.540   5.207   4.423
72641SOL     OW19819   7.827   3.401  14.496
72641SOL    HW119820   7.827   3.341  14.422
72641SOL    HW219821   7.738   3.437  14.498
72642SOL     OW19822  11.184   2.747  10.095
72642SOL    HW119823  11.098   2.706  10.096
72642SOL    HW219824  11.187   2.798  10.176
72643SOL     OW19825   4.630  12.107   9.313
72643SOL    HW119826   4.567  12.041   9.285
72643SOL    HW219827   4.662  12.076   9.397
72644SOL     OW19828  14.020   3.017   1.591
72644SOL    HW119829  13.967   2.939   1.577
72644SOL    HW219830  13.956   3.087   1.606
72645SOL     OW19831   0.405   9.958   5.304
72645SOL    HW119832   0.444   9.912   5.230
72645SOL    HW219833   0.469  10.025   5.328
72646SOL     OW19834   6.023  12.236  11.554
72646SOL    HW119835   6.079  12.269  11.484
72646SOL    HW219836   5.999  12.148  11.527
72647SOL     OW19837   1.758   8.043  12.748
72647SOL    HW119838   1.820   8.078  12.685
72647SOL    HW219839   1.812   7.996  12.812
72648SOL     OW19840   4.881   4.673   4.216
72648SOL    HW119841   4.855   4.732   4.287
72648SOL    HW219842   4.969   4.644   4.241
72649SOL     OW19843   8.603  10.960   0.451
72649SOL    HW119844   8.598  11.046   0.492
72649SOL    HW219845   8.609  10.979   0.357
72650SOL     OW19846   6.055  10.003  10.867
72650SOL    HW119847   6.092  10.061  10.799
72650SOL    HW219848   6.129   9.953  10.899
72651SOL     OW19849   4.921   5.017   8.193
72651SOL    HW119850   4.867   5.075   8.139
72651SOL    HW219851   4.892   5.032   8.282
72652SOL     OW19852   0.453  13.719  12.234
72652SOL    HW119853   0.405  13.757  12.307
72652SOL    HW219854   0.384  13.688  12.174
72653SOL     OW19855  10.544  13.454   8.308
72653SOL    HW119856  10.579  13.508   8.379
72653SOL    HW219857  10.534  13.515   8.235
72654SOL     OW19858   3.865   8.705   7.140
72654SOL    HW119859   3.923   8.666   7.205
72654SOL    HW219860   3.808   8.763   7.190
72655SOL     OW19861   1.607  14.172  11.778
72655SOL    HW119862   1.679  14.191  11.838
72655SOL    HW219863   1.649  14.134  11.701
72656SOL     OW19864   9.658   5.790  12.983
72656SOL    HW119865   9.715   5.744  13.044
72656SOL    HW219866   9.577   5.739  12.980
72657SOL     OW19867   5.537   8.983   4.528
72657SOL    HW119868   5.619   8.947   4.493
72657SOL    HW219869   5.477   8.908   4.529
72658SOL     OW19870  10.702   0.952  11.807
72658SOL    HW119871  10.701   1.018  11.876
72658SOL    HW219872  10.621   0.902  11.821
72659SOL     OW19873   3.650   2.388  12.659
72659SOL    HW119874   3.588   2.405  12.588
72659SOL    HW219875   3.653   2.470  12.708
72660SOL     OW19876  14.240   7.226   9.961
72660SOL    HW119877  14.333   7.227   9.939
72660SOL    HW219878  14.196   7.210   9.878
72661SOL     OW19879   2.816   8.416  13.180
72661SOL    HW119880   2.795   8.324  13.195
72661SOL    HW219881   2.755   8.464  13.236
72662SOL     OW19882   3.529   7.443   6.846
72662SOL    HW119883   3.439   7.470   6.827
72662SOL    HW219884   3.537   7.356   6.807
72663SOL     OW19885   1.626  14.448   9.732
72663SOL    HW119886   1.616  14.353   9.730
72663SOL    HW219887   1.665  14.470   9.648
72664SOL     OW19888   1.420   5.118   5.938
72664SOL    HW119889   1.401   5.190   5.877
72664SOL    HW219890   1.401   5.155   6.025
72665SOL     OW19891   5.961   2.495   1.378
72665SOL    HW119892   6.050   2.504   1.343
72665SOL    HW219893   5.973   2.491   1.473
72666SOL     OW19894   6.784   3.636   6.906
72666SOL    HW119895   6.723   3.563   6.904
72666SOL    HW219896   6.869   3.598   6.886
72667SOL     OW19897   1.482   0.575   3.391
72667SOL    HW119898   1.485   0.497   3.335
72667SOL    HW219899   1.401   0.565   3.442
72668SOL     OW19900   3.182   2.431   5.694
72668SOL    HW119901   3.250   2.369   5.668
72668SOL    HW219902   3.155   2.472   5.612
72669SOL     OW19903   9.633   0.105   1.796
72669SOL    HW119904   9.544   0.133   1.818
72669SOL    HW219905   9.681   0.110   1.879
72670SOL     OW19906   8.396   7.100   8.800
72670SOL    HW119907   8.353   7.179   8.832
72670SOL    HW219908   8.403   7.044   8.878
72671SOL     OW19909  13.469   9.288   1.036
72671SOL    HW119910  13.416   9.297   1.115
72671SOL    HW219911  13.465   9.374   0.995
72672SOL     OW19912   6.854  14.604   3.961
72672SOL    HW119913   6.835  14.516   3.928
72672SOL    HW219914   6.929  14.633   3.910
72673SOL     OW19915   1.629   7.084  13.300
72673SOL    HW119916   1.677   7.148  13.248
72673SOL    HW219917   1.628   7.120  13.388
72674SOL     OW19918  14.638  14.606   6.915
72674SOL    HW119919  14.559  14.655   6.939
72674SOL    HW219920  14.693  14.611   6.993
72675SOL     OW19921  10.903   2.502  13.492
72675SOL    HW119922  10.824   2.496  13.439
72675SOL    HW219923  10.975   2.490  13.431
72676SOL     OW19924   6.835  12.730   2.947
72676SOL    HW119925   6.839  12.666   3.018
72676SOL    HW219926   6.884  12.805   2.980
72677SOL     OW19927   1.744  13.425   5.115
72677SOL    HW119928   1.699  13.417   5.030
72677SOL    HW219929   1.768  13.518   5.120
72678SOL     OW19930  14.439  12.313   1.260
72678SOL    HW119931  14.375  12.251   1.293
72678SOL    HW219932  14.408  12.334   1.171
72679SOL     OW19933   0.391   4.134   6.259
72679SOL    HW119934   0.302   4.142   6.292
72679SOL    HW219935   0.443   4.189   6.318
72680SOL     OW19936   8.363   2.151   9.337
72680SOL    HW119937   8.273   2.122   9.352
72680SOL    HW219938   8.415   2.071   9.340
72681SOL     OW19939   9.717  13.980  12.625
72681SOL    HW119940   9.641  13.951  12.574
72681SOL    HW219941   9.784  13.997  12.559
72682SOL     OW19942   4.539  13.809  13.419
72682SOL    HW119943   4.596  13.812  13.495
72682SOL    HW219944   4.515  13.716  13.411
72683SOL     OW19945  11.455   9.531  10.909
72683SOL    HW119946  11.386   9.590  10.938
72683SOL    HW219947  11.535   9.583  10.917
72684SOL     OW19948   3.363  11.476   0.833
72684SOL    HW119949   3.340  11.406   0.894
72684SOL    HW219950   3.379  11.552   0.888
72685SOL     OW19951  14.463   8.790   7.336
72685SOL    HW119952  14.384   8.739   7.321
72685SOL    HW219953  14.433   8.871   7.378
72686SOL     OW19954  10.722   4.113   7.404
72686SOL    HW119955  10.706   4.200   7.441
72686SOL    HW219956  10.656   4.057   7.445
72687SOL     OW19957   4.179   4.809  11.839
72687SOL    HW119958   4.245   4.751  11.876
72687SOL    HW219959   4.227   4.864  11.776
72688SOL     OW19960   9.670   7.055   9.465
72688SOL    HW119961   9.740   7.011   9.514
72688SOL    HW219962   9.667   7.008   9.382
72689SOL     OW19963  13.270   8.836   6.310
72689SOL    HW119964  13.351   8.860   6.265
72689SOL    HW219965  13.257   8.907   6.374
72690SOL     OW19966  12.680  11.221   4.567
72690SOL    HW119967  12.704  11.312   4.583
72690SOL    HW219968  12.606  11.226   4.506
72691SOL     OW19969  12.619   6.116   5.804
72691SOL    HW119970  12.640   6.209   5.802
72691SOL    HW219971  12.670   6.082   5.878
72692SOL     OW19972  13.816   5.942   7.173
72692SOL    HW119973  13.743   5.965   7.230
72692SOL    HW219974  13.780   5.878   7.112
72693SOL     OW19975  10.832  12.878  12.603
72693SOL    HW119976  10.877  12.908  12.682
72693SOL    HW219977  10.797  12.958  12.564
72694SOL     OW19978   0.820  14.155   4.491
72694SOL    HW119979   0.858  14.238   4.519
72694SOL    HW219980   0.871  14.088   4.538
72695SOL     OW19981   9.410  12.090   7.951
72695SOL    HW119982   9.380  12.056   7.867
72695SOL    HW219983   9.498  12.055   7.961
72696SOL     OW19984   9.856   7.670  11.810
72696SOL    HW119985   9.949   7.692  11.802
72696SOL    HW219986   9.812   7.736  11.757
72697SOL     OW19987   6.156   6.566   0.509
72697SOL    HW119988   6.247   6.547   0.530
72697SOL    HW219989   6.137   6.510   0.433
72698SOL     OW19990  12.944   7.047   6.370
72698SOL    HW119991  12.853   7.074   6.361
72698SOL    HW219992  12.980   7.056   6.281
72699SOL     OW19993   0.672   6.147   5.779
72699SOL    HW119994   0.661   6.100   5.862
72699SOL    HW219995   0.610   6.104   5.720
72700SOL     OW19996   4.249  10.398   0.495
72700SOL    HW119997   4.326  10.444   0.530
72700SOL    HW219998   4.285  10.330   0.439
72701SOL     OW19999   5.575  12.394   7.592
72701SOL    HW120000   5.605  12.349   7.513
72701SOL    HW220001   5.625  12.353   7.663
72702SOL     OW20002   0.475   1.360   1.302
72702SOL    HW120003   0.479   1.395   1.391
72702SOL    HW220004   0.514   1.428   1.247
72703SOL     OW20005   6.913   7.489   1.131
72703SOL    HW120006   6.930   7.544   1.207
72703SOL    HW220007   6.891   7.404   1.167
72704SOL     OW20008  11.984  14.151  12.862
72704SOL    HW120009  12.065  14.116  12.826
72704SOL    HW220010  12.003  14.167  12.954
72705SOL     OW20011   7.117   4.057  11.103
72705SOL    HW120012   7.049   4.032  11.040
72705SOL    HW220013   7.175   3.981  11.107
72706SOL     OW20014   5.379   8.205   1.138
72706SOL    HW120015   5.418   8.199   1.050
72706SOL    HW220016   5.294   8.247   1.123
72707SOL     OW20017  13.334   4.972   2.129
72707SOL    HW120018  13.382   5.041   2.083
72707SOL    HW220019  13.329   5.003   2.220
72708SOL     OW20020   6.392   8.050   5.940
72708SOL    HW120021   6.312   8.013   5.976
72708SOL    HW220022   6.456   8.043   6.011
72709SOL     OW20023   3.294   7.536   8.069
72709SOL    HW120024   3.336   7.478   8.132
72709SOL    HW220025   3.364   7.590   8.035
72710SOL     OW20026   8.221  10.763   6.324
72710SOL    HW120027   8.252  10.739   6.412
72710SOL    HW220028   8.250  10.692   6.268
72711SOL     OW20029   4.694  13.874   7.327
72711SOL    HW120030   4.615  13.892   7.276
72711SOL    HW220031   4.681  13.921   7.409
72712SOL     OW20032   3.231   7.256   4.715
72712SOL    HW120033   3.303   7.206   4.677
72712SOL    HW220034   3.173   7.277   4.642
72713SOL     OW20035   7.212   8.907   2.751
72713SOL    HW120036   7.267   8.846   2.701
72713SOL    HW220037   7.160   8.851   2.808
72714SOL     OW20038  10.032   0.797   8.790
72714SOL    HW120039  10.080   0.744   8.854
72714SOL    HW220040  10.028   0.742   8.711
72715SOL     OW20041   0.735   8.207   7.573
72715SOL    HW120042   0.675   8.183   7.503
72715SOL    HW220043   0.821   8.177   7.543
72716SOL     OW20044   7.786  13.741   9.407
72716SOL    HW120045   7.706  13.793   9.410
72716SOL    HW220046   7.830  13.758   9.491
72717SOL     OW20047  10.831  11.660  14.836
72717SOL    HW120048  10.864  11.600   0.031
72717SOL    HW220049  10.762  11.611  14.791
72718SOL     OW20050   1.656   3.257  10.309
72718SOL    HW120051   1.697   3.323  10.253
72718SOL    HW220052   1.642   3.182  10.251
72719SOL     OW20053   9.914   1.197  13.495
72719SOL    HW120054   9.993   1.153  13.528
72719SOL    HW220055   9.926   1.289  13.519
72720SOL     OW20056   5.380  11.310  11.953
72720SOL    HW120057   5.405  11.390  11.908
72720SOL    HW220058   5.362  11.247  11.883
72721SOL     OW20059   2.264   1.773  10.507
72721SOL    HW120060   2.202   1.733  10.447
72721SOL    HW220061   2.300   1.699  10.556
72722SOL     OW20062   4.462   3.462  11.258
72722SOL    HW120063   4.443   3.544  11.212
72722SOL    HW220064   4.427   3.475  11.345
72723SOL     OW20065   1.916  12.779  10.855
72723SOL    HW120066   1.902  12.832  10.934
72723SOL    HW220067   1.842  12.718  10.854
72724SOL     OW20068   9.745  11.374   7.824
72724SOL    HW120069   9.661  11.329   7.822
72724SOL    HW220070   9.809  11.307   7.801
72725SOL     OW20071   9.495   5.749   7.113
72725SOL    HW120072   9.489   5.754   7.017
72725SOL    HW220073   9.409   5.780   7.143
72726SOL     OW20074   3.595   3.822   8.577
72726SOL    HW120075   3.642   3.905   8.585
72726SOL    HW220076   3.659   3.761   8.540
72727SOL     OW20077   6.037   9.070   6.629
72727SOL    HW120078   5.977   8.997   6.615
72727SOL    HW220079   6.013   9.105   6.715
72728SOL     OW20080   1.858  13.847   4.310
72728SOL    HW120081   1.867  13.839   4.215
72728SOL    HW220082   1.794  13.917   4.322
72729SOL     OW20083   1.230   1.942   9.049
72729SOL    HW120084   1.236   1.996   8.971
72729SOL    HW220085   1.152   1.887   9.035
72730SOL     OW20086   2.298   3.867  10.534
72730SOL    HW120087   2.323   3.929  10.602
72730SOL    HW220088   2.342   3.786  10.558
72731SOL     OW20089   3.389   2.817   8.526
72731SOL    HW120090   3.400   2.862   8.442
72731SOL    HW220091   3.295   2.806   8.535
72732SOL     OW20092   9.964  13.973   4.127
72732SOL    HW120093   9.962  13.987   4.033
72732SOL    HW220094   9.947  13.880   4.138
72733SOL     OW20095   6.325   8.186  10.095
72733SOL    HW120096   6.391   8.122  10.068
72733SOL    HW220097   6.346   8.265  10.045
72734SOL     OW20098   2.093  13.705   9.808
72734SOL    HW120099   2.033  13.632   9.792
72734SOL    HW220100   2.090  13.756   9.727
72735SOL     OW20101  11.573   7.914   7.429
72735SOL    HW120102  11.570   7.844   7.494
72735SOL    HW220103  11.568   7.995   7.481
72736SOL     OW20104   7.733  11.696   6.594
72736SOL    HW120105   7.768  11.747   6.666
72736SOL    HW220106   7.791  11.619   6.589
72737SOL     OW20107   2.973   8.657   9.766
72737SOL    HW120108   3.045   8.595   9.779
72737SOL    HW220109   2.981   8.683   9.674
72738SOL     OW20110  14.717   9.259   3.121
72738SOL    HW120111  14.683   9.344   3.094
72738SOL    HW220112  14.740   9.271   3.213
72739SOL     OW20113   8.892   3.435  14.570
72739SOL    HW120114   8.957   3.404  14.506
72739SOL    HW220115   8.859   3.355  14.611
72740SOL     OW20116   8.673   4.391   4.454
72740SOL    HW120117   8.671   4.475   4.408
72740SOL    HW220118   8.618   4.406   4.532
72741SOL     OW20119   2.907   8.368   0.107
72741SOL    HW120120   2.862   8.388   0.025
72741SOL    HW220121   2.837   8.349   0.169
72742SOL     OW20122  13.193  13.024   4.217
72742SOL    HW120123  13.113  13.076   4.228
72742SOL    HW220124  13.195  12.966   4.293
72743SOL     OW20125   0.035   2.449  11.945
72743SOL    HW120126   0.004   2.393  11.874
72743SOL    HW220127   0.127   2.425  11.956
72744SOL     OW20128  10.909   6.195  12.405
72744SOL    HW120129  10.970   6.265  12.381
72744SOL    HW220130  10.861   6.176  12.324
72745SOL     OW20131  10.316   8.019   8.677
72745SOL    HW120132  10.386   8.048   8.619
72745SOL    HW220133  10.280   7.941   8.635
72746SOL     OW20134   4.264  14.023  13.499
72746SOL    HW120135   4.222  13.949  13.455
72746SOL    HW220136   4.225  14.023  13.587
72747SOL     OW20137   0.825   9.859  14.773
72747SOL    HW120138   0.833   9.947  14.811
72747SOL    HW220139   0.751   9.820  14.819
72748SOL     OW20140  10.275   2.053   4.512
72748SOL    HW120141  10.263   1.970   4.467
72748SOL    HW220142  10.274   2.030   4.605
72749SOL     OW20143  10.539   2.959   8.187
72749SOL    HW120144  10.619   3.004   8.161
72749SOL    HW220145  10.487   3.026   8.232
72750SOL     OW20146   9.382   8.744   6.721
72750SOL    HW120147   9.449   8.735   6.654
72750SOL    HW220148   9.301   8.761   6.673
72751SOL     OW20149   5.086  14.345   2.806
72751SOL    HW120150   5.004  14.395   2.802
72751SOL    HW220151   5.059  14.254   2.800
72752SOL     OW20152   3.140   0.384   7.429
72752SOL    HW120153   3.150   0.478   7.421
72752SOL    HW220154   3.078   0.360   7.359
72753SOL     OW20155   2.674   7.590  10.876
72753SOL    HW120156   2.751   7.603  10.821
72753SOL    HW220157   2.709   7.567  10.962
72754SOL     OW20158  13.898  14.735   2.885
72754SOL    HW120159  13.822  14.783   2.917
72754SOL    HW220160  13.962  14.742   2.956
72755SOL     OW20161  11.444   8.246  10.190
72755SOL    HW120162  11.483   8.178  10.135
72755SOL    HW220163  11.352   8.249  10.164
72756SOL     OW20164   0.257  14.626   1.747
72756SOL    HW120165   0.195  14.686   1.705
72756SOL    HW220166   0.312  14.594   1.675
72757SOL     OW20167   1.500   7.994  11.950
72757SOL    HW120168   1.455   7.943  11.883
72757SOL    HW220169   1.526   7.929  12.016
72758SOL     OW20170   7.865   8.842  10.270
72758SOL    HW120171   7.932   8.774  10.267
72758SOL    HW220172   7.846   8.860  10.178
72759SOL     OW20173  14.088  11.712   3.218
72759SOL    HW120174  14.148  11.712   3.143
72759SOL    HW220175  14.009  11.669   3.185
72760SOL     OW20176   9.789   8.693   9.878
72760SOL    HW120177   9.710   8.745   9.860
72760SOL    HW220178   9.780   8.668   9.970
72761SOL     OW20179  13.099   2.907  11.276
72761SOL    HW120180  13.085   3.001  11.260
72761SOL    HW220181  13.131   2.902  11.366
72762SOL     OW20182  12.624   8.082   5.635
72762SOL    HW120183  12.562   8.098   5.706
72762SOL    HW220184  12.686   8.018   5.671
72763SOL     OW20185  13.500  10.230  13.990
72763SOL    HW120186  13.560  10.220  14.064
72763SOL    HW220187  13.422  10.271  14.028
72764SOL     OW20188   1.887  10.557   4.904
72764SOL    HW120189   1.917  10.645   4.927
72764SOL    HW220190   1.832  10.571   4.826
72765SOL     OW20191   1.965   5.890   5.323
72765SOL    HW120192   2.003   5.973   5.296
72765SOL    HW220193   1.871   5.905   5.327
72766SOL     OW20194   4.350   1.128   9.183
72766SOL    HW120195   4.356   1.216   9.221
72766SOL    HW220196   4.260   1.100   9.202
72767SOL     OW20197   3.186   3.847   4.566
72767SOL    HW120198   3.243   3.848   4.489
72767SOL    HW220199   3.098   3.864   4.531
72768SOL     OW20200   0.662  10.459  12.633
72768SOL    HW120201   0.589  10.402  12.658
72768SOL    HW220202   0.737  10.400  12.624
72769SOL     OW20203   8.414   6.124   8.820
72769SOL    HW120204   8.411   6.066   8.897
72769SOL    HW220205   8.344   6.187   8.835
72770SOL     OW20206   1.529   1.465   8.881
72770SOL    HW120207   1.531   1.485   8.788
72770SOL    HW220208   1.438   1.441   8.898
72771SOL     OW20209  13.653   5.260   6.362
72771SOL    HW120210  13.632   5.185   6.306
72771SOL    HW220211  13.580   5.321   6.349
72772SOL     OW20212   8.200   1.102   4.330
72772SOL    HW120213   8.182   1.027   4.273
72772SOL    HW220214   8.211   1.064   4.417
72773SOL     OW20215   5.869   1.227   9.496
72773SOL    HW120216   5.886   1.200   9.406
72773SOL    HW220217   5.921   1.167   9.550
72774SOL     OW20218   5.970   9.134  10.182
72774SOL    HW120219   6.005   9.222  10.191
72774SOL    HW220220   5.914   9.122  10.259
72775SOL     OW20221   0.210   6.125  13.163
72775SOL    HW120222   0.153   6.186  13.210
72775SOL    HW220223   0.267   6.089  13.231
72776SOL     OW20224  12.053  13.119   4.490
72776SOL    HW120225  11.987  13.058   4.523
72776SOL    HW220226  12.009  13.165   4.419
72777SOL     OW20227   7.772   0.565   1.617
72777SOL    HW120228   7.813   0.481   1.597
72777SOL    HW220229   7.819   0.628   1.563
72778SOL     OW20230  13.913  13.847   6.079
72778SOL    HW120231  14.000  13.884   6.092
72778SOL    HW220232  13.920  13.795   5.999
72779SOL     OW20233   0.303  13.137  10.394
72779SOL    HW120234   0.290  13.069  10.461
72779SOL    HW220235   0.391  13.121  10.361
72780SOL     OW20236  11.319  11.780  13.445
72780SOL    HW120237  11.226  11.797  13.457
72780SOL    HW220238  11.323  11.702  13.390
72781SOL     OW20239   9.717   6.817   4.256
72781SOL    HW120240   9.804   6.819   4.295
72781SOL    HW220241   9.733   6.817   4.161
72782SOL     OW20242   3.310  12.455   2.111
72782SOL    HW120243   3.368  12.379   2.112
72782SOL    HW220244   3.257  12.447   2.190
72783SOL     OW20245   9.379   1.941   9.124
72783SOL    HW120246   9.291   1.978   9.130
72783SOL    HW220247   9.425   1.975   9.201
72784SOL     OW20248   7.166  12.934   4.198
72784SOL    HW120249   7.242  12.966   4.246
72784SOL    HW220250   7.179  12.839   4.192
72785SOL     OW20251  13.701   1.883  12.365
72785SOL    HW120252  13.742   1.836  12.293
72785SOL    HW220253  13.757   1.866  12.441
72786SOL     OW20254   5.514  11.743   4.911
72786SOL    HW120255   5.502  11.763   4.818
72786SOL    HW220256   5.426  11.726   4.944
72787SOL     OW20257   2.487   7.714   2.723
72787SOL    HW120258   2.393   7.697   2.716
72787SOL    HW220259   2.528   7.639   2.681
72788SOL     OW20260  10.104   3.274  10.012
72788SOL    HW120261  10.122   3.283  10.106
72788SOL    HW220262  10.115   3.180   9.995
72789SOL     OW20263   0.616   1.881   3.918
72789SOL    HW120264   0.527   1.904   3.889
72789SOL    HW220265   0.611   1.883   4.013
72790SOL     OW20266   1.143  14.288   4.437
72790SOL    HW120267   1.237  14.300   4.427
72790SOL    HW220268   1.121  14.218   4.375
72791SOL     OW20269   1.105   7.665  12.578
72791SOL    HW120270   1.084   7.727  12.649
72791SOL    HW220271   1.192   7.691  12.549
72792SOL     OW20272   5.571  14.458   3.602
72792SOL    HW120273   5.592  14.521   3.670
72792SOL    HW220274   5.498  14.407   3.637
72793SOL     OW20275  14.227  14.864   2.172
72793SOL    HW120276  14.248   0.085   2.180
72793SOL    HW220277  14.202  14.853   2.080
72794SOL     OW20278  14.520   1.638   0.078
72794SOL    HW120279  14.600   1.662   0.125
72794SOL    HW220280  14.450   1.657   0.140
72795SOL     OW20281   2.825   8.928   9.065
72795SOL    HW120282   2.829   8.925   9.160
72795SOL    HW220283   2.807   9.019   9.044
72796SOL     OW20284   6.446   0.277   0.375
72796SOL    HW120285   6.465   0.357   0.423
72796SOL    HW220286   6.421   0.214   0.442
72797SOL     OW20287   7.597   7.538   8.261
72797SOL    HW120288   7.564   7.615   8.215
72797SOL    HW220289   7.645   7.489   8.194
72798SOL     OW20290  12.861  14.408   5.505
72798SOL    HW120291  12.807  14.353   5.561
72798SOL    HW220292  12.951  14.381   5.524
72799SOL     OW20293  14.585   1.270   2.855
72799SOL    HW120294  14.650   1.201   2.869
72799SOL    HW220295  14.517   1.252   2.920
72800SOL     OW20296  10.839  11.425   4.651
72800SOL    HW120297  10.807  11.423   4.741
72800SOL    HW220298  10.778  11.368   4.602
72801SOL     OW20299   5.295  11.441  11.396
72801SOL    HW120300   5.369  11.428  11.456
72801SOL    HW220301   5.308  11.528  11.360
72802SOL     OW20302   8.340   4.363   1.875
72802SOL    HW120303   8.401   4.391   1.806
72802SOL    HW220304   8.387   4.380   1.957
72803SOL     OW20305  12.994   0.862  13.364
72803SOL    HW120306  12.988   0.854  13.269
72803SOL    HW220307  12.998   0.957  13.379
72804SOL     OW20308   8.010  10.556   2.112
72804SOL    HW120309   8.104  10.540   2.119
72804SOL    HW220310   8.002  10.651   2.118
72805SOL     OW20311  12.589   7.403   2.746
72805SOL    HW120312  12.648   7.444   2.810
72805SOL    HW220313  12.512   7.378   2.797
72806SOL     OW20314  13.641  11.104  10.553
72806SOL    HW120315  13.621  11.198  10.562
72806SOL    HW220316  13.568  11.070  10.501
72807SOL     OW20317   8.128   6.848   3.843
72807SOL    HW120318   8.179   6.779   3.884
72807SOL    HW220319   8.191   6.920   3.832
72808SOL     OW20320   4.103   3.940   9.580
72808SOL    HW120321   4.161   3.995   9.632
72808SOL    HW220322   4.130   3.956   9.489
72809SOL     OW20323   3.012  11.757   2.353
72809SOL    HW120324   2.918  11.739   2.350
72809SOL    HW220325   3.051  11.695   2.291
72810SOL     OW20326  11.230   3.796  10.812
72810SOL    HW120327  11.269   3.884  10.808
72810SOL    HW220328  11.140   3.810  10.840
72811SOL     OW20329   5.711   5.349   2.719
72811SOL    HW120330   5.783   5.287   2.730
72811SOL    HW220331   5.725   5.414   2.787
72812SOL     OW20332  12.333   6.404  14.365
72812SOL    HW120333  12.329   6.498  14.350
72812SOL    HW220334  12.345   6.395  14.460
72813SOL     OW20335  13.541   0.320   0.294
72813SOL    HW120336  13.447   0.336   0.303
72813SOL    HW220337  13.564   0.356   0.209
72814SOL     OW20338   8.369   9.824  11.172
72814SOL    HW120339   8.315   9.780  11.238
72814SOL    HW220340   8.373   9.761  11.100
72815SOL     OW20341   1.609  10.629   1.198
72815SOL    HW120342   1.656  10.704   1.162
72815SOL    HW220343   1.558  10.664   1.270
72816SOL     OW20344   9.995  13.610   2.829
72816SOL    HW120345   9.993  13.543   2.898
72816SOL    HW220346  10.083  13.604   2.792
72817SOL     OW20347   5.678   1.552   3.664
72817SOL    HW120348   5.720   1.635   3.686
72817SOL    HW220349   5.585   1.572   3.661
72818SOL     OW20350   3.619   4.936   5.270
72818SOL    HW120351   3.570   4.982   5.339
72818SOL    HW220352   3.582   4.970   5.188
72819SOL     OW20353   4.979   5.135   9.265
72819SOL    HW120354   5.027   5.213   9.235
72819SOL    HW220355   4.997   5.132   9.359
72820SOL     OW20356  12.098  14.251  13.533
72820SOL    HW120357  12.145  14.333  13.518
72820SOL    HW220358  12.009  14.279  13.557
72821SOL     OW20359  13.717  11.688   6.778
72821SOL    HW120360  13.777  11.714   6.847
72821SOL    HW220361  13.728  11.593   6.770
72822SOL     OW20362   0.824   9.711   5.401
72822SOL    HW120363   0.780   9.634   5.437
72822SOL    HW220364   0.895   9.729   5.464
72823SOL     OW20365  12.074   5.545   4.145
72823SOL    HW120366  12.028   5.570   4.065
72823SOL    HW220367  12.075   5.449   4.144
72824SOL     OW20368   5.334  13.348  13.311
72824SOL    HW120369   5.304  13.291  13.239
72824SOL    HW220370   5.308  13.301  13.390
72825SOL     OW20371  11.323  11.109   6.678
72825SOL    HW120372  11.407  11.154   6.684
72825SOL    HW220373  11.307  11.075   6.766
72826SOL     OW20374   9.800   4.614   2.402
72826SOL    HW120375   9.740   4.558   2.452
72826SOL    HW220376   9.793   4.582   2.312
72827SOL     OW20377   8.845   0.207   7.390
72827SOL    HW120378   8.939   0.192   7.402
72827SOL    HW220379   8.839   0.260   7.311
72828SOL     OW20380   8.095   6.050   6.041
72828SOL    HW120381   8.147   6.094   5.973
72828SOL    HW220382   8.026   6.111   6.062
72829SOL     OW20383   9.585   1.078   5.546
72829SOL    HW120384   9.630   1.049   5.467
72829SOL    HW220385   9.615   1.018   5.615
72830SOL     OW20386  13.006  12.151  13.843
72830SOL    HW120387  12.929  12.148  13.786
72830SOL    HW220388  12.970  12.147  13.932
72831SOL     OW20389   3.156   8.063   3.580
72831SOL    HW120390   3.067   8.027   3.589
72831SOL    HW220391   3.154   8.107   3.495
72832SOL     OW20392   4.433   2.651  13.425
72832SOL    HW120393   4.452   2.708  13.500
72832SOL    HW220394   4.396   2.572  13.463
72833SOL     OW20395   6.766   2.795   1.677
72833SOL    HW120396   6.784   2.887   1.660
72833SOL    HW220397   6.689   2.776   1.624
72834SOL     OW20398   9.343  13.156  10.587
72834SOL    HW120399   9.282  13.142  10.659
72834SOL    HW220400   9.389  13.238  10.610
72835SOL     OW20401   6.368   7.098   3.067
72835SOL    HW120402   6.384   7.014   3.110
72835SOL    HW220403   6.332   7.074   2.981
72836SOL     OW20404   8.255  13.166   9.863
72836SOL    HW120405   8.162  13.162   9.842
72836SOL    HW220406   8.273  13.084   9.908
72837SOL     OW20407  10.059  10.338   4.216
72837SOL    HW120408  10.145  10.302   4.195
72837SOL    HW220409  10.065  10.430   4.189
72838SOL     OW20410  11.617  12.288  12.028
72838SOL    HW120411  11.590  12.265  12.117
72838SOL    HW220412  11.627  12.204  11.984
72839SOL     OW20413  10.275   0.552  12.958
72839SOL    HW120414  10.290   0.644  12.982
72839SOL    HW220415  10.339   0.504  13.010
72840SOL     OW20416   8.125   4.167   6.917
72840SOL    HW120417   8.204   4.132   6.876
72840SOL    HW220418   8.071   4.090   6.935
72841SOL     OW20419  12.706   0.403  10.484
72841SOL    HW120420  12.775   0.446  10.433
72841SOL    HW220421  12.750   0.372  10.563
72842SOL     OW20422   4.757  11.916   9.063
72842SOL    HW120423   4.720  11.975   8.998
72842SOL    HW220424   4.682  11.865   9.095
72843SOL     OW20425  12.577   4.096   5.675
72843SOL    HW120426  12.550   4.187   5.661
72843SOL    HW220427  12.530   4.070   5.754
72844SOL     OW20428   6.213  12.378  13.444
72844SOL    HW120429   6.189  12.369  13.351
72844SOL    HW220430   6.290  12.322  13.454
72845SOL     OW20431   4.674   1.842   1.611
72845SOL    HW120432   4.693   1.754   1.644
72845SOL    HW220433   4.611   1.828   1.541
72846SOL     OW20434  12.220  13.382   1.917
72846SOL    HW120435  12.172  13.358   1.838
72846SOL    HW220436  12.312  13.367   1.895
72847SOL     OW20437   5.624   7.875   7.219
72847SOL    HW120438   5.553   7.877   7.154
72847SOL    HW220439   5.633   7.782   7.241
72848SOL     OW20440   1.239   1.771  14.525
72848SOL    HW120441   1.252   1.747  14.616
72848SOL    HW220442   1.285   1.703  14.475
72849SOL     OW20443   8.984   4.642  10.911
72849SOL    HW120444   9.033   4.560  10.902
72849SOL    HW220445   8.896   4.620  10.879
72850SOL     OW20446   4.919  12.447   0.548
72850SOL    HW120447   4.991  12.418   0.492
72850SOL    HW220448   4.845  12.393   0.520
72851SOL     OW20449   5.748  12.562   6.857
72851SOL    HW120450   5.724  12.602   6.774
72851SOL    HW220451   5.674  12.506   6.879
72852SOL     OW20452   0.590   6.248   9.430
72852SOL    HW120453   0.557   6.330   9.393
72852SOL    HW220454   0.646   6.212   9.361
72853SOL     OW20455  11.726   8.850   0.954
72853SOL    HW120456  11.638   8.887   0.961
72853SOL    HW220457  11.783   8.925   0.943
72854SOL     OW20458   0.388   5.613   8.802
72854SOL    HW120459   0.365   5.688   8.747
72854SOL    HW220460   0.425   5.651   8.881
72855SOL     OW20461   4.483   6.718   2.461
72855SOL    HW120462   4.447   6.705   2.549
72855SOL    HW220463   4.484   6.813   2.449
72856SOL     OW20464   4.377  12.004   9.043
72856SOL    HW120465   4.297  11.960   9.013
72856SOL    HW220466   4.397  11.962   9.127
72857SOL     OW20467   9.830   5.869  11.852
72857SOL    HW120468   9.758   5.879  11.915
72857SOL    HW220469   9.786   5.847  11.769
72858SOL     OW20470   6.236  11.456   1.687
72858SOL    HW120471   6.326  11.470   1.660
72858SOL    HW220472   6.205  11.542   1.714
72859SOL     OW20473   7.247   9.771   8.628
72859SOL    HW120474   7.216   9.681   8.639
72859SOL    HW220475   7.338   9.769   8.656
72860SOL     OW20476   9.708   7.097   4.932
72860SOL    HW120477   9.679   7.188   4.933
72860SOL    HW220478   9.694   7.066   5.021
72861SOL     OW20479   8.291  11.702   9.817
72861SOL    HW120480   8.327  11.627   9.769
72861SOL    HW220481   8.368  11.750   9.847
72862SOL     OW20482   5.327   4.836  10.821
72862SOL    HW120483   5.382   4.767  10.783
72862SOL    HW220484   5.339   4.911  10.762
72863SOL     OW20485   4.481   0.437  13.503
72863SOL    HW120486   4.420   0.374  13.543
72863SOL    HW220487   4.425   0.507  13.470
72864SOL     OW20488  13.346   5.825   3.869
72864SOL    HW120489  13.251   5.819   3.856
72864SOL    HW220490  13.377   5.876   3.794
72865SOL     OW20491   5.051  10.276  10.910
72865SOL    HW120492   5.131  10.270  10.963
72865SOL    HW220493   5.004  10.195  10.926
72866SOL     OW20494   5.506  11.425  10.311
72866SOL    HW120495   5.598  11.451  10.305
72866SOL    HW220496   5.498  11.386  10.398
72867SOL     OW20497  12.235   4.581  11.603
72867SOL    HW120498  12.190   4.498  11.612
72867SOL    HW220499  12.170   4.647  11.629
72868SOL     OW20500  11.341  14.831  11.294
72868SOL    HW120501  11.295  14.822  11.211
72868SOL    HW220502  11.273  14.821  11.361
72869SOL     OW20503   0.831   4.712   4.020
72869SOL    HW120504   0.872   4.653   3.957
72869SOL    HW220505   0.770   4.657   4.069
72870SOL     OW20506  13.646   7.130  13.146
72870SOL    HW120507  13.560   7.123  13.186
72870SOL    HW220508  13.676   7.040  13.137
72871SOL     OW20509  10.824  13.013   7.534
72871SOL    HW120510  10.772  12.967   7.600
72871SOL    HW220511  10.913  13.010   7.568
72872SOL     OW20512  10.066   6.349   0.862
72872SOL    HW120513  10.113   6.403   0.800
72872SOL    HW220514   9.975   6.349   0.831
72873SOL     OW20515   5.394   4.432  11.773
72873SOL    HW120516   5.385   4.527  11.782
72873SOL    HW220517   5.390   4.417  11.678
72874SOL     OW20518   8.266  10.049   0.534
72874SOL    HW120519   8.197  10.114   0.549
72874SOL    HW220520   8.226   9.965   0.554
72875SOL     OW20521   8.443  11.801   8.974
72875SOL    HW120522   8.474  11.844   9.053
72875SOL    HW220523   8.360  11.761   8.999
72876SOL     OW20524   1.921   7.053   1.138
72876SOL    HW120525   1.878   6.968   1.127
72876SOL    HW220526   1.941   7.081   1.048
72877SOL     OW20527   9.698   6.002  12.510
72877SOL    HW120528   9.729   5.951  12.585
72877SOL    HW220529   9.698   6.092  12.541
72878SOL     OW20530  14.250   3.878   1.399
72878SOL    HW120531  14.287   3.957   1.439
72878SOL    HW220532  14.219   3.906   1.314
72879SOL     OW20533  13.590  11.886   3.072
72879SOL    HW120534  13.599  11.876   3.167
72879SOL    HW220535  13.514  11.833   3.050
72880SOL     OW20536   7.963   6.416   7.209
72880SOL    HW120537   7.942   6.373   7.126
72880SOL    HW220538   7.961   6.345   7.274
72881SOL     OW20539  14.107  13.642   8.821
72881SOL    HW120540  14.084  13.597   8.902
72881SOL    HW220541  14.197  13.616   8.802
72882SOL     OW20542   8.742  13.450   7.785
72882SOL    HW120543   8.653  13.428   7.813
72882SOL    HW220544   8.731  13.488   7.698
72883SOL     OW20545  12.691   0.134   3.168
72883SOL    HW120546  12.755   0.117   3.237
72883SOL    HW220547  12.623   0.187   3.210
72884SOL     OW20548   4.507   5.993   4.904
72884SOL    HW120549   4.462   6.074   4.929
72884SOL    HW220550   4.477   5.928   4.969
72885SOL     OW20551   2.446   8.821   7.781
72885SOL    HW120552   2.522   8.796   7.728
72885SOL    HW220553   2.432   8.747   7.840
72886SOL     OW20554  10.067   3.085  12.870
72886SOL    HW120555   9.999   3.024  12.844
72886SOL    HW220556  10.079   3.069  12.964
72887SOL     OW20557   5.002   7.101  14.553
72887SOL    HW120558   4.986   7.140  14.467
72887SOL    HW220559   5.086   7.057  14.545
72888SOL     OW20560   5.273   2.948  12.940
72888SOL    HW120561   5.302   3.038  12.952
72888SOL    HW220562   5.328   2.914  12.869
72889SOL     OW20563   2.551   4.035  14.206
72889SOL    HW120564   2.530   4.098  14.275
72889SOL    HW220565   2.618   4.079  14.154
72890SOL     OW20566   0.217   4.124  10.520
72890SOL    HW120567   0.151   4.098  10.456
72890SOL    HW220568   0.284   4.169  10.468
72891SOL     OW20569  13.855   7.475   6.495
72891SOL    HW120570  13.903   7.478   6.578
72891SOL    HW220571  13.868   7.561   6.457
72892SOL     OW20572   2.074   1.726  11.110
72892SOL    HW120573   2.085   1.713  11.205
72892SOL    HW220574   2.150   1.777  11.084
72893SOL     OW20575   2.339  13.703  14.631
72893SOL    HW120576   2.410  13.695  14.568
72893SOL    HW220577   2.290  13.622  14.622
72894SOL     OW20578  12.247   8.218   3.861
72894SOL    HW120579  12.231   8.123   3.867
72894SOL    HW220580  12.218   8.253   3.945
72895SOL     OW20581   2.276  10.471   8.895
72895SOL    HW120582   2.268  10.521   8.814
72895SOL    HW220583   2.336  10.522   8.949
72896SOL     OW20584   1.348  11.642   2.453
72896SOL    HW120585   1.381  11.697   2.382
72896SOL    HW220586   1.271  11.598   2.416
72897SOL     OW20587  13.921  13.796   2.487
72897SOL    HW120588  13.938  13.886   2.512
72897SOL    HW220589  13.832  13.797   2.451
72898SOL     OW20590  10.280   9.249  11.284
72898SOL    HW120591  10.302   9.157  11.293
72898SOL    HW220592  10.360   9.296  11.306
72899SOL     OW20593   3.421   7.241   7.957
72899SOL    HW120594   3.360   7.259   8.027
72899SOL    HW220595   3.416   7.318   7.899
72900SOL     OW20596   0.601   2.447   0.230
72900SOL    HW120597   0.609   2.354   0.249
72900SOL    HW220598   0.542   2.451   0.154
72901SOL     OW20599  12.792   1.602   8.627
72901SOL    HW120600  12.824   1.677   8.677
72901SOL    HW220601  12.837   1.527   8.665
72902SOL     OW20602  13.677   2.295   6.039
72902SOL    HW120603  13.701   2.275   6.130
72902SOL    HW220604  13.636   2.382   6.044
72903SOL     OW20605   4.175  14.426   3.110
72903SOL    HW120606   4.205  14.383   3.030
72903SOL    HW220607   4.253  14.470   3.144
72904SOL     OW20608  10.989  10.481   4.729
72904SOL    HW120609  11.024  10.550   4.673
72904SOL    HW220610  11.021  10.400   4.690
72905SOL     OW20611   3.468   7.558   9.311
72905SOL    HW120612   3.539   7.620   9.294
72905SOL    HW220613   3.474   7.495   9.238
72906SOL     OW20614   8.827   4.045  11.399
72906SOL    HW120615   8.848   3.959  11.434
72906SOL    HW220616   8.744   4.069  11.442
72907SOL     OW20617   7.795   2.461  13.504
72907SOL    HW120618   7.873   2.406  13.493
72907SOL    HW220619   7.744   2.446  13.424
72908SOL     OW20620   5.357   9.074   1.723
72908SOL    HW120621   5.335   9.139   1.790
72908SOL    HW220622   5.294   9.003   1.737
72909SOL     OW20623   9.047   5.480   8.793
72909SOL    HW120624   8.954   5.458   8.800
72909SOL    HW220625   9.082   5.460   8.880
72910SOL     OW20626  13.389   7.465   0.550
72910SOL    HW120627  13.432   7.403   0.609
72910SOL    HW220628  13.342   7.525   0.607
72911SOL     OW20629  14.116   8.889   8.776
72911SOL    HW120630  14.156   8.812   8.736
72911SOL    HW220631  14.093   8.945   8.703
72912SOL     OW20632   6.535   5.137   1.309
72912SOL    HW120633   6.491   5.090   1.379
72912SOL    HW220634   6.628   5.134   1.331
72913SOL     OW20635   6.937   1.915   9.908
72913SOL    HW120636   6.860   1.871   9.944
72913SOL    HW220637   7.011   1.858   9.931
72914SOL     OW20638   9.664   0.324   5.200
72914SOL    HW120639   9.631   0.361   5.119
72914SOL    HW220640   9.599   0.258   5.225
72915SOL     OW20641  13.815  11.981   5.417
72915SOL    HW120642  13.778  11.904   5.462
72915SOL    HW220643  13.873  11.944   5.350
72916SOL     OW20644   8.323   9.658  10.946
72916SOL    HW120645   8.253   9.692  10.890
72916SOL    HW220646   8.403   9.671  10.895
72917SOL     OW20647   5.782  13.547   2.606
72917SOL    HW120648   5.746  13.464   2.636
72917SOL    HW220649   5.823  13.527   2.522
72918SOL     OW20650  12.673   8.211  13.221
72918SOL    HW120651  12.758   8.222  13.263
72918SOL    HW220652  12.682   8.134  13.166
72919SOL     OW20653   6.184   0.383   4.566
72919SOL    HW120654   6.228   0.382   4.482
72919SOL    HW220655   6.219   0.307   4.613
72920SOL     OW20656  11.067   3.656  10.597
72920SOL    HW120657  11.062   3.564  10.571
72920SOL    HW220658  11.109   3.654  10.683
72921SOL     OW20659   9.219   6.571   7.489
72921SOL    HW120660   9.135   6.614   7.502
72921SOL    HW220661   9.265   6.626   7.425
72922SOL     OW20662  12.328  11.772   5.670
72922SOL    HW120663  12.359  11.851   5.625
72922SOL    HW220664  12.402  11.712   5.667
72923SOL     OW20665   7.923   0.608  11.136
72923SOL    HW120666   7.859   0.626  11.067
72923SOL    HW220667   7.978   0.539  11.100
72924SOL     OW20668   2.114  11.405   4.619
72924SOL    HW120669   2.097  11.453   4.699
72924SOL    HW220670   2.143  11.471   4.556
72925SOL     OW20671   9.057   2.651   2.742
72925SOL    HW120672   9.057   2.679   2.834
72925SOL    HW220673   9.097   2.725   2.695
72926SOL     OW20674  10.009   6.159  12.658
72926SOL    HW120675  10.061   6.236  12.632
72926SOL    HW220676   9.921   6.193  12.673
72927SOL     OW20677  13.844  14.618  13.740
72927SOL    HW120678  13.909  14.565  13.695
72927SOL    HW220679  13.873  14.708  13.726
72928SOL     OW20680  13.900  10.745   0.385
72928SOL    HW120681  13.980  10.773   0.429
72928SOL    HW220682  13.874  10.821   0.333
72929SOL     OW20683   5.711  12.759  11.533
72929SOL    HW120684   5.668  12.775  11.617
72929SOL    HW220685   5.771  12.686  11.550
72930SOL     OW20686   8.361  10.687   1.513
72930SOL    HW120687   8.362  10.773   1.471
72930SOL    HW220688   8.386  10.626   1.445
72931SOL     OW20689   4.297  13.647   6.649
72931SOL    HW120690   4.212  13.692   6.648
72931SOL    HW220691   4.340  13.675   6.569
72932SOL     OW20692   8.344   4.851  12.315
72932SOL    HW120693   8.333   4.757  12.328
72932SOL    HW220694   8.344   4.888  12.403
72933SOL     OW20695   6.915   4.417   1.194
72933SOL    HW120696   6.842   4.440   1.252
72933SOL    HW220697   6.887   4.339   1.148
72934SOL     OW20698   2.120   8.095   5.197
72934SOL    HW120699   2.207   8.087   5.237
72934SOL    HW220700   2.132   8.063   5.108
72935SOL     OW20701   2.850   7.781   5.309
72935SOL    HW120702   2.848   7.767   5.404
72935SOL    HW220703   2.942   7.791   5.287
72936SOL     OW20704  12.716  13.370   4.312
72936SOL    HW120705  12.768  13.291   4.327
72936SOL    HW220706  12.771  13.424   4.255
72937SOL     OW20707   4.341  12.616   9.837
72937SOL    HW120708   4.378  12.671   9.767
72937SOL    HW220709   4.378  12.529   9.821
72938SOL     OW20710   9.398   8.187   4.873
72938SOL    HW120711   9.396   8.202   4.778
72938SOL    HW220712   9.463   8.249   4.906
72939SOL     OW20713   6.847   5.830  14.525
72939SOL    HW120714   6.844   5.765  14.594
72939SOL    HW220715   6.766   5.816  14.475
72940SOL     OW20716   3.666   2.173  13.605
72940SOL    HW120717   3.607   2.201  13.676
72940SOL    HW220718   3.750   2.213  13.627
72941SOL     OW20719   1.784  11.063   8.041
72941SOL    HW120720   1.737  11.089   7.962
72941SOL    HW220721   1.876  11.069   8.018
72942SOL     OW20722   4.333   5.201   3.387
72942SOL    HW120723   4.294   5.113   3.392
72942SOL    HW220724   4.366   5.207   3.298
72943SOL     OW20725  13.646  14.734   5.435
72943SOL    HW120726  13.646  14.797   5.507
72943SOL    HW220727  13.614  14.652   5.475
72944SOL     OW20728  13.249  14.777  11.757
72944SOL    HW120729  13.256  14.689  11.795
72944SOL    HW220730  13.292  14.770  11.671
72945SOL     OW20731   7.941   6.404   6.566
72945SOL    HW120732   7.944   6.309   6.563
72945SOL    HW220733   7.851   6.426   6.541
72946SOL     OW20734   2.079  14.711   1.536
72946SOL    HW120735   2.065  14.719   1.442
72946SOL    HW220736   1.993  14.729   1.575
72947SOL     OW20737   1.701   0.309   2.241
72947SOL    HW120738   1.652   0.316   2.323
72947SOL    HW220739   1.635   0.322   2.173
72948SOL     OW20740   0.275  12.932  13.532
72948SOL    HW120741   0.272  13.008  13.590
72948SOL    HW220742   0.183  12.912  13.515
72949SOL     OW20743   4.773   6.401   1.081
72949SOL    HW120744   4.840   6.464   1.106
72949SOL    HW220745   4.774   6.401   0.985
72950SOL     OW20746   0.645  13.839  10.000
72950SOL    HW120747   0.601  13.840   9.915
72950SOL    HW220748   0.728  13.795   9.982
72951SOL     OW20749  11.852  12.968   2.415
72951SOL    HW120750  11.779  12.917   2.379
72951SOL    HW220751  11.917  12.902   2.438
72952SOL     OW20752   8.807   0.832   6.732
72952SOL    HW120753   8.752   0.770   6.684
72952SOL    HW220754   8.748   0.905   6.754
72953SOL     OW20755  11.931  13.352  14.210
72953SOL    HW120756  11.861  13.291  14.234
72953SOL    HW220757  12.003  13.330  14.269
72954SOL     OW20758   2.010  10.909   6.798
72954SOL    HW120759   2.039  10.959   6.722
72954SOL    HW220760   2.072  10.836   6.805
72955SOL     OW20761  13.134   5.067   9.849
72955SOL    HW120762  13.065   5.129   9.870
72955SOL    HW220763  13.088   4.983   9.838
72956SOL     OW20764  11.157   1.121   0.086
72956SOL    HW120765  11.063   1.137   0.079
72956SOL    HW220766  11.169   1.032   0.052
72957SOL     OW20767   5.240   2.988   0.135
72957SOL    HW120768   5.147   3.010   0.124
72957SOL    HW220769   5.239   2.911   0.192
72958SOL     OW20770  13.192  10.410  10.867
72958SOL    HW120771  13.188  10.505  10.865
72958SOL    HW220772  13.286  10.390  10.875
72959SOL     OW20773   5.184   9.970   4.212
72959SOL    HW120774   5.226  10.014   4.138
72959SOL    HW220775   5.202   9.877   4.199
72960SOL     OW20776   1.149   9.481  10.738
72960SOL    HW120777   1.170   9.518  10.824
72960SOL    HW220778   1.204   9.403  10.732
72961SOL     OW20779   4.900   9.703   9.069
72961SOL    HW120780   4.831   9.759   9.033
72961SOL    HW220781   4.946   9.669   8.992
72962SOL     OW20782  13.047   1.523  11.226
72962SOL    HW120783  13.049   1.531  11.321
72962SOL    HW220784  13.044   1.613  11.194
72963SOL     OW20785   7.074  12.895   5.030
72963SOL    HW120786   7.120  12.842   5.095
72963SOL    HW220787   6.984  12.864   5.033
72964SOL     OW20788  14.396  14.069   2.696
72964SOL    HW120789  14.340  14.092   2.769
72964SOL    HW220790  14.416  14.153   2.653
72965SOL     OW20791  11.515  10.232   0.534
72965SOL    HW120792  11.505  10.165   0.602
72965SOL    HW220793  11.514  10.184   0.452
72966SOL     OW20794   6.793   2.512   1.645
72966SOL    HW120795   6.747   2.510   1.561
72966SOL    HW220796   6.791   2.604   1.672
72967SOL     OW20797   2.173  12.099   6.243
72967SOL    HW120798   2.182  12.118   6.337
72967SOL    HW220799   2.079  12.111   6.226
72968SOL     OW20800  10.336   6.848   2.371
72968SOL    HW120801  10.392   6.875   2.444
72968SOL    HW220802  10.295   6.929   2.341
72969SOL     OW20803   0.180   7.194   0.176
72969SOL    HW120804   0.272   7.201   0.201
72969SOL    HW220805   0.180   7.198   0.080
72970SOL     OW20806   8.799   1.929   9.982
72970SOL    HW120807   8.869   1.965   9.928
72970SOL    HW220808   8.842   1.863  10.036
72971SOL     OW20809   7.688  13.490   4.117
72971SOL    HW120810   7.632  13.456   4.048
72971SOL    HW220811   7.677  13.585   4.113
72972SOL     OW20812   8.005   7.812   4.263
72972SOL    HW120813   7.929   7.755   4.252
72972SOL    HW220814   8.034   7.797   4.353
72973SOL     OW20815   3.073   4.201   8.805
72973SOL    HW120816   3.043   4.118   8.767
72973SOL    HW220817   2.995   4.257   8.804
72974SOL     OW20818   9.449  11.950  14.666
72974SOL    HW120819   9.479  11.914  14.583
72974SOL    HW220820   9.527  11.993  14.702
72975SOL     OW20821  13.747  13.900   3.810
72975SOL    HW120822  13.793  13.845   3.746
72975SOL    HW220823  13.767  13.860   3.894
72976SOL     OW20824   8.560  13.514   9.739
72976SOL    HW120825   8.609  13.549   9.665
72976SOL    HW220826   8.626  13.498   9.807
72977SOL     OW20827   3.769  11.731   8.483
72977SOL    HW120828   3.772  11.639   8.458
72977SOL    HW220829   3.718  11.733   8.564
72978SOL     OW20830  14.778   9.269   4.549
72978SOL    HW120831  14.813   9.240   4.465
72978SOL    HW220832  14.829   9.347   4.571
72979SOL     OW20833  14.769   5.907   3.321
72979SOL    HW120834  14.753   5.813   3.308
72979SOL    HW220835  14.695   5.937   3.375
72980SOL     OW20836  12.407   1.640   0.681
72980SOL    HW120837  12.401   1.736   0.681
72980SOL    HW220838  12.357   1.613   0.604
72981SOL     OW20839   4.649   9.161   2.684
72981SOL    HW120840   4.672   9.093   2.748
72981SOL    HW220841   4.600   9.114   2.617
72982SOL     OW20842   5.201   4.375  10.490
72982SOL    HW120843   5.230   4.345  10.577
72982SOL    HW220844   5.263   4.335  10.429
72983SOL     OW20845   0.660  13.645   0.821
72983SOL    HW120846   0.620  13.558   0.817
72983SOL    HW220847   0.621  13.686   0.898
72984SOL     OW20848   2.310   7.586  13.271
72984SOL    HW120849   2.346   7.561  13.186
72984SOL    HW220850   2.362   7.538  13.335
72985SOL     OW20851   2.694   2.651   8.355
72985SOL    HW120852   2.761   2.621   8.293
72985SOL    HW220853   2.744   2.698   8.422
72986SOL     OW20854  12.564  12.081  14.601
72986SOL    HW120855  12.517  11.998  14.604
72986SOL    HW220856  12.532  12.123  14.521
72987SOL     OW20857  12.559   4.538  14.129
72987SOL    HW120858  12.609   4.619  14.125
72987SOL    HW220859  12.591   4.493  14.208
72988SOL     OW20860  14.486  10.491  13.243
72988SOL    HW120861  14.397  10.503  13.276
72988SOL    HW220862  14.508  10.575  13.204
72989SOL     OW20863  11.290   0.679   8.440
72989SOL    HW120864  11.326   0.717   8.521
72989SOL    HW220865  11.366   0.642   8.396
72990SOL     OW20866   9.598   4.392   7.814
72990SOL    HW120867   9.593   4.443   7.895
72990SOL    HW220868   9.507   4.374   7.791
72991SOL     OW20869   5.157  11.638  12.823
72991SOL    HW120870   5.233  11.584  12.845
72991SOL    HW220871   5.169  11.656  12.729
72992SOL     OW20872  12.346   3.337   5.527
72992SOL    HW120873  12.284   3.308   5.459
72992SOL    HW220874  12.318   3.290   5.606
72993SOL     OW20875  11.977  14.211   6.211
72993SOL    HW120876  11.930  14.189   6.131
72993SOL    HW220877  11.981  14.129   6.259
72994SOL     OW20878   9.055   9.105   0.982
72994SOL    HW120879   8.973   9.143   1.015
72994SOL    HW220880   9.115   9.179   0.976
72995SOL     OW20881  10.677  11.737   9.153
72995SOL    HW120882  10.683  11.662   9.212
72995SOL    HW220883  10.585  11.766   9.161
72996SOL     OW20884   4.753   7.307   8.371
72996SOL    HW120885   4.836   7.275   8.335
72996SOL    HW220886   4.730   7.242   8.437
72997SOL     OW20887  11.556   6.960  12.240
72997SOL    HW120888  11.563   6.925  12.329
72997SOL    HW220889  11.501   6.897  12.194
72998SOL     OW20890  11.894   6.420   9.880
72998SOL    HW120891  11.981   6.380   9.867
72998SOL    HW220892  11.853   6.417   9.794
72999SOL     OW20893   7.205   6.557  14.064
72999SOL    HW120894   7.215   6.462  14.076
72999SOL    HW220895   7.155   6.586  14.140
73000SOL     OW20896   3.811   5.881  10.556
73000SOL    HW120897   3.906   5.895  10.565
73000SOL    HW220898   3.777   5.893  10.644
73001SOL     OW20899   3.003   9.843  10.269
73001SOL    HW120900   3.013   9.930  10.231
73001SOL    HW220901   2.924   9.808  10.229
73002SOL     OW20902   8.851  13.555   7.454
73002SOL    HW120903   8.779  13.497   7.430
73002SOL    HW220904   8.809  13.633   7.489
73003SOL     OW20905   3.145  13.665  13.756
73003SOL    HW120906   3.105  13.601  13.815
73003SOL    HW220907   3.092  13.661  13.676
73004SOL     OW20908   6.510   9.521   1.687
73004SOL    HW120909   6.547   9.609   1.690
73004SOL    HW220910   6.437   9.527   1.626
73005SOL     OW20911  11.598   5.061   0.815
73005SOL    HW120912  11.684   5.032   0.784
73005SOL    HW220913  11.547   5.072   0.735
73006SOL     OW20914   9.984   1.916  13.334
73006SOL    HW120915   9.997   1.914  13.429
73006SOL    HW220916   9.966   2.008  13.314
73007SOL     OW20917   1.784   3.271   4.344
73007SOL    HW120918   1.698   3.289   4.383
73007SOL    HW220919   1.822   3.204   4.401
73008SOL     OW20920   8.601   8.926   6.226
73008SOL    HW120921   8.598   8.916   6.321
73008SOL    HW220922   8.666   8.995   6.211
73009SOL     OW20923   7.270   4.687   7.941
73009SOL    HW120924   7.202   4.647   7.996
73009SOL    HW220925   7.236   4.774   7.920
73010SOL     OW20926   8.647  10.933   1.500
73010SOL    HW120927   8.637  10.862   1.438
73010SOL    HW220928   8.604  11.008   1.459
73011SOL     OW20929  10.688  14.094  10.539
73011SOL    HW120930  10.659  14.122  10.452
73011SOL    HW220931  10.658  14.164  10.597
73012SOL     OW20932  13.485   7.689   1.447
73012SOL    HW120933  13.492   7.594   1.449
73012SOL    HW220934  13.394   7.706   1.423
73013SOL     OW20935   2.038  13.031   4.698
73013SOL    HW120936   2.127  13.014   4.669
73013SOL    HW220937   2.041  13.018   4.793
73014SOL     OW20938   1.607   6.727   5.220
73014SOL    HW120939   1.587   6.821   5.220
73014SOL    HW220940   1.698   6.721   5.248
73015SOL     OW20941  14.062   8.904   1.146
73015SOL    HW120942  14.097   8.869   1.064
73015SOL    HW220943  13.967   8.903   1.135
73016SOL     OW20944   0.471  14.263   4.189
73016SOL    HW120945   0.562  14.257   4.160
73016SOL    HW220946   0.419  14.255   4.109
73017SOL     OW20947   4.086  13.427  10.085
73017SOL    HW120948   4.167  13.406  10.131
73017SOL    HW220949   4.091  13.522  10.069
73018SOL     OW20950  13.054   5.422   6.814
73018SOL    HW120951  12.976   5.391   6.769
73018SOL    HW220952  13.110   5.457   6.745
73019SOL     OW20953   8.461   3.788   0.709
73019SOL    HW120954   8.377   3.787   0.754
73019SOL    HW220955   8.475   3.881   0.687
73020SOL     OW20956   9.642  14.621  13.574
73020SOL    HW120957   9.666  14.567  13.499
73020SOL    HW220958   9.713  14.607  13.637
73021SOL     OW20959   9.065  10.657   4.505
73021SOL    HW120960   9.102  10.601   4.574
73021SOL    HW220961   8.988  10.697   4.546
73022SOL     OW20962  11.121   7.106  14.576
73022SOL    HW120963  11.135   7.079  14.667
73022SOL    HW220964  11.187   7.060  14.526
73023SOL     OW20965  13.678   4.260  11.707
73023SOL    HW120966  13.586   4.279  11.687
73023SOL    HW220967  13.679   4.167  11.728
73024SOL     OW20968   0.586   3.547   7.974
73024SOL    HW120969   0.543   3.603   7.910
73024SOL    HW220970   0.662   3.511   7.929
73025SOL     OW20971  12.007   7.074  11.071
73025SOL    HW120972  12.070   7.136  11.108
73025SOL    HW220973  12.044   6.988  11.090
73026SOL     OW20974   6.088   2.661   9.893
73026SOL    HW120975   6.036   2.739   9.872
73026SOL    HW220976   6.177   2.685   9.868
73027SOL     OW20977   3.383   9.893  12.807
73027SOL    HW120978   3.346   9.925  12.724
73027SOL    HW220979   3.316   9.833  12.841
73028SOL     OW20980  10.498  11.218  11.859
73028SOL    HW120981  10.458  11.155  11.918
73028SOL    HW220982  10.587  11.186  11.846
73029SOL     OW20983   8.784   5.297   8.709
73029SOL    HW120984   8.807   5.245   8.632
73029SOL    HW220985   8.818   5.248   8.783
73030SOL     OW20986   9.357   3.023   2.245
73030SOL    HW120987   9.415   3.081   2.294
73030SOL    HW220988   9.381   3.037   2.153
73031SOL     OW20989  10.128   0.876   0.657
73031SOL    HW120990  10.122   0.909   0.746
73031SOL    HW220991  10.220   0.889   0.633
73032SOL     OW20992   1.777   4.661  14.793
73032SOL    HW120993   1.834   4.626  14.862
73032SOL    HW220994   1.821   4.636  14.712
73033SOL     OW20995  10.836   1.518   1.572
73033SOL    HW120996  10.776   1.454   1.611
73033SOL    HW220997  10.891   1.466   1.513
73034SOL     OW20998   1.739  13.005   2.934
73034SOL    HW120999   1.783  13.083   2.970
73034SOL    HW221000   1.811  12.945   2.915
73035SOL     OW21001  11.518   2.526   3.095
73035SOL    HW121002  11.424   2.546   3.096
73035SOL    HW221003  11.555   2.592   3.036
73036SOL     OW21004   7.890   3.555   4.186
73036SOL    HW121005   7.822   3.554   4.118
73036SOL    HW221006   7.913   3.463   4.199
73037SOL     OW21007  10.924   4.242  11.707
73037SOL    HW121008  10.941   4.239  11.801
73037SOL    HW221009  10.937   4.334  11.683
73038SOL     OW21010  11.541   1.680  11.302
73038SOL    HW121011  11.559   1.595  11.342
73038SOL    HW221012  11.627   1.712  11.274
73039SOL     OW21013   4.339   6.142   4.269
73039SOL    HW121014   4.306   6.205   4.333
73039SOL    HW221015   4.400   6.087   4.319
73040SOL     OW21016   2.726  13.799   2.343
73040SOL    HW121017   2.706  13.882   2.385
73040SOL    HW221018   2.774  13.750   2.409
73041SOL     OW21019  12.547  11.450  11.776
73041SOL    HW121020  12.588  11.435  11.861
73041SOL    HW221021  12.511  11.538  11.782
73042SOL     OW21022  11.830  12.561   4.848
73042SOL    HW121023  11.817  12.656   4.848
73042SOL    HW221024  11.880  12.543   4.769
73043SOL     OW21025  13.133  14.135  11.362
73043SOL    HW121026  13.143  14.125  11.457
73043SOL    HW221027  13.073  14.066  11.337
73044SOL     OW21028  11.109  13.522   2.298
73044SOL    HW121029  11.158  13.531   2.216
73044SOL    HW221030  11.022  13.558   2.278
73045SOL     OW21031  12.720  10.563   2.921
73045SOL    HW121032  12.752  10.628   2.858
73045SOL    HW221033  12.781  10.569   2.995
73046SOL     OW21034   6.479  12.179   4.259
73046SOL    HW121035   6.526  12.151   4.337
73046SOL    HW221036   6.471  12.274   4.268
73047SOL     OW21037  13.719   8.357   7.046
73047SOL    HW121038  13.727   8.417   7.120
73047SOL    HW221039  13.711   8.414   6.970
73048SOL     OW21040   1.644   7.628  10.110
73048SOL    HW121041   1.706   7.699  10.096
73048SOL    HW221042   1.561   7.662  10.077
73049SOL     OW21043   4.161  12.128   8.398
73049SOL    HW121044   4.240  12.138   8.452
73049SOL    HW221045   4.102  12.197   8.428
73050SOL     OW21046  14.542  10.610  11.677
73050SOL    HW121047  14.578  10.525  11.703
73050SOL    HW221048  14.526  10.601  11.583
73051SOL     OW21049  11.931   6.536   7.885
73051SOL    HW121050  11.944   6.590   7.963
73051SOL    HW221051  11.882   6.461   7.916
73052SOL     OW21052   8.410   4.016   5.932
73052SOL    HW121053   8.473   3.996   6.001
73052SOL    HW221054   8.338   3.955   5.947
73053SOL     OW21055   6.954   4.807   2.566
73053SOL    HW121056   6.998   4.873   2.618
73053SOL    HW221057   7.023   4.768   2.512
73054SOL     OW21058  12.193   8.039   6.160
73054SOL    HW121059  12.100   8.024   6.179
73054SOL    HW221060  12.201   8.134   6.155
73055SOL     OW21061   5.502   8.964   8.940
73055SOL    HW121062   5.596   8.979   8.935
73055SOL    HW221063   5.464   9.052   8.952
73056SOL     OW21064   4.529   2.591   4.948
73056SOL    HW121065   4.478   2.552   5.019
73056SOL    HW221066   4.515   2.532   4.873
73057SOL     OW21067  12.021   7.089  10.713
73057SOL    HW121068  11.947   7.034  10.740
73057SOL    HW221069  12.096   7.030  10.712
73058SOL     OW21070   9.783   0.208  11.722
73058SOL    HW121071   9.774   0.284  11.780
73058SOL    HW221072   9.869   0.219  11.681
73059SOL     OW21073   7.912   4.690   4.546
73059SOL    HW121074   7.891   4.781   4.567
73059SOL    HW221075   7.835   4.641   4.573
73060SOL     OW21076  10.133   9.814   8.814
73060SOL    HW121077  10.211   9.791   8.763
73060SOL    HW221078  10.068   9.839   8.749
73061SOL     OW21079  13.679   0.003   1.021
73061SOL    HW121080  13.654   0.066   0.954
73061SOL    HW221081  13.760   0.038   1.059
73062SOL     OW21082  13.021  12.214   9.163
73062SOL    HW121083  13.054  12.302   9.180
73062SOL    HW221084  12.997  12.214   9.071
73063SOL     OW21085   4.668   3.896  10.948
73063SOL    HW121086   4.710   3.973  10.910
73063SOL    HW221087   4.708   3.886  11.034
73064SOL     OW21088   2.945  10.517   7.138
73064SOL    HW121089   2.915  10.570   7.064
73064SOL    HW221090   2.871  10.462   7.160
73065SOL     OW21091   9.514   4.446   4.984
73065SOL    HW121092   9.588   4.458   4.925
73065SOL    HW221093   9.440   4.428   4.926
73066SOL     OW21094   2.088   5.487   8.729
73066SOL    HW121095   2.080   5.391   8.729
73066SOL    HW221096   2.062   5.513   8.641
73067SOL     OW21097   0.571  12.117   2.028
73067SOL    HW121098   0.589  12.074   2.112
73067SOL    HW221099   0.556  12.208   2.052
73068SOL     OW21100  10.883   9.799   8.487
73068SOL    HW121101  10.935   9.719   8.484
73068SOL    HW221102  10.893   9.831   8.577
73069SOL     OW21103  14.341  13.842   9.598
73069SOL    HW121104  14.309  13.753   9.580
73069SOL    HW221105  14.417  13.829   9.655
73070SOL     OW21106   4.552   1.294  13.120
73070SOL    HW121107   4.513   1.296  13.207
73070SOL    HW221108   4.477   1.300  13.060
73071SOL     OW21109  13.032   4.774   3.584
73071SOL    HW121110  12.970   4.753   3.653
73071SOL    HW221111  13.027   4.869   3.574
73072SOL     OW21112  14.506   7.462   2.973
73072SOL    HW121113  14.493   7.433   2.883
73072SOL    HW221114  14.576   7.406   3.006
73073SOL     OW21115   3.332  14.008   2.057
73073SOL    HW121116   3.285  13.934   2.018
73073SOL    HW221117   3.340  13.985   2.150
73074SOL     OW21118  12.923   0.992   6.444
73074SOL    HW121119  12.843   0.977   6.393
73074SOL    HW221120  12.968   0.908   6.443
73075SOL     OW21121   6.577   5.258   4.255
73075SOL    HW121122   6.487   5.287   4.266
73075SOL    HW221123   6.573   5.163   4.260
73076SOL     OW21124   7.972   2.687  13.948
73076SOL    HW121125   7.915   2.644  13.885
73076SOL    HW221126   7.933   2.667  14.033
73077SOL     OW21127   5.205   6.565   2.368
73077SOL    HW121128   5.203   6.652   2.329
73077SOL    HW221129   5.114   6.535   2.366
73078SOL     OW21130  14.203   2.558   8.335
73078SOL    HW121131  14.208   2.468   8.305
73078SOL    HW221132  14.157   2.554   8.419
73079SOL     OW21133   7.525   3.120   6.976
73079SOL    HW121134   7.596   3.184   6.980
73079SOL    HW221135   7.566   3.038   7.004
73080SOL     OW21136   5.680   4.249   9.399
73080SOL    HW121137   5.758   4.202   9.369
73080SOL    HW221138   5.649   4.198   9.474
73081SOL     OW21139   2.636  13.897   5.602
73081SOL    HW121140   2.690  13.959   5.653
73081SOL    HW221141   2.568  13.869   5.663
73082SOL     OW21142   0.083   3.799   4.465
73082SOL    HW121143   0.091   3.708   4.435
73082SOL    HW221144   0.068   3.849   4.386
73083SOL     OW21145   2.256   1.003   7.111
73083SOL    HW121146   2.325   1.018   7.046
73083SOL    HW221147   2.200   0.937   7.071
73084SOL     OW21148   5.809   7.397   1.086
73084SOL    HW121149   5.864   7.330   1.045
73084SOL    HW221150   5.743   7.417   1.020
73085SOL     OW21151   9.692   7.898  11.217
73085SOL    HW121152   9.723   7.966  11.157
73085SOL    HW221153   9.616   7.937  11.260
73086SOL     OW21154  13.644   4.702   2.692
73086SOL    HW121155  13.722   4.746   2.658
73086SOL    HW221156  13.599   4.671   2.613
73087SOL     OW21157   5.903  10.802   6.838
73087SOL    HW121158   5.849  10.751   6.899
73087SOL    HW221159   5.984  10.819   6.887
73088SOL     OW21160   0.971   2.145  14.338
73088SOL    HW121161   0.983   2.084  14.266
73088SOL    HW221162   0.925   2.094  14.405
73089SOL     OW21163   2.519   1.053   9.523
73089SOL    HW121164   2.580   0.992   9.480
73089SOL    HW221165   2.459   1.079   9.453
73090SOL     OW21166   5.913   0.762  12.769
73090SOL    HW121167   5.887   0.718  12.689
73090SOL    HW221168   5.878   0.707  12.839
73091SOL     OW21169   2.392   1.092   8.718
73091SOL    HW121170   2.436   1.152   8.657
73091SOL    HW221171   2.309   1.072   8.675
73092SOL     OW21172   0.039   2.139   8.075
73092SOL    HW121173   0.016   2.167   8.163
73092SOL    HW221174   0.008   2.210   8.018
73093SOL     OW21175  14.171   9.289   0.307
73093SOL    HW121176  14.140   9.202   0.330
73093SOL    HW221177  14.265   9.279   0.297
73094SOL     OW21178  10.957  10.167   0.190
73094SOL    HW121179  10.909  10.213   0.122
73094SOL    HW221180  10.889  10.127   0.245
73095SOL     OW21181   8.418   4.372  11.573
73095SOL    HW121182   8.421   4.467  11.556
73095SOL    HW221183   8.325   4.351  11.576
73096SOL     OW21184   7.137   7.841   2.812
73096SOL    HW121185   7.225   7.878   2.804
73096SOL    HW221186   7.120   7.841   2.907
73097SOL     OW21187   9.496   2.621   2.348
73097SOL    HW121188   9.581   2.656   2.376
73097SOL    HW221189   9.443   2.699   2.331
73098SOL     OW21190   5.333  13.954  13.536
73098SOL    HW121191   5.351  14.005  13.615
73098SOL    HW221192   5.266  13.891  13.562
73099SOL     OW21193  11.054  10.032   7.701
73099SOL    HW121194  11.058  10.047   7.607
73099SOL    HW221195  10.966  10.058   7.727
73100SOL     OW21196  14.622   7.441   1.570
73100SOL    HW121197  14.666   7.363   1.603
73100SOL    HW221198  14.674   7.468   1.495
73101SOL     OW21199  12.843   3.519   2.179
73101SOL    HW121200  12.927   3.472   2.174
73101SOL    HW221201  12.785   3.460   2.226
73102SOL     OW21202   8.943   9.281   7.492
73102SOL    HW121203   8.983   9.204   7.532
73102SOL    HW221204   8.893   9.321   7.563
73103SOL     OW21205   1.675   2.045   2.569
73103SOL    HW121206   1.632   2.110   2.513
73103SOL    HW221207   1.668   2.081   2.657
73104SOL     OW21208   1.654   0.193  12.346
73104SOL    HW121209   1.603   0.113  12.362
73104SOL    HW221210   1.606   0.237  12.275
73105SOL     OW21211   3.776   1.592  11.163
73105SOL    HW121212   3.753   1.685  11.167
73105SOL    HW221213   3.837   1.579  11.235
73106SOL     OW21214  13.207  14.473  11.111
73106SOL    HW121215  13.161  14.423  11.043
73106SOL    HW221216  13.136  14.510  11.165
73107SOL     OW21217  12.352   0.530   0.486
73107SOL    HW121218  12.390   0.618   0.485
73107SOL    HW221219  12.383   0.489   0.405
73108SOL     OW21220   3.112   1.299   3.218
73108SOL    HW121221   3.122   1.293   3.313
73108SOL    HW221222   3.115   1.208   3.188
73109SOL     OW21223   4.527   4.063  14.786
73109SOL    HW121224   4.611   4.018  14.778
73109SOL    HW221225   4.538   4.122  14.860
73110SOL     OW21226   2.694   5.378  11.474
73110SOL    HW121227   2.614   5.353  11.429
73110SOL    HW221228   2.680   5.468  11.501
73111SOL     OW21229  12.618  12.121  10.232
73111SOL    HW121230  12.626  12.097  10.140
73111SOL    HW221231  12.688  12.184  10.247
73112SOL     OW21232   4.967  10.178   1.713
73112SOL    HW121233   4.992  10.249   1.772
73112SOL    HW221234   4.952  10.103   1.770
73113SOL     OW21235   8.939  11.588  13.201
73113SOL    HW121236   8.931  11.594  13.106
73113SOL    HW221237   8.922  11.676  13.233
73114SOL     OW21238  13.791   3.102   9.741
73114SOL    HW121239  13.792   3.154   9.821
73114SOL    HW221240  13.715   3.044   9.750
73115SOL     OW21241   5.389   6.336  12.010
73115SOL    HW121242   5.461   6.297  12.059
73115SOL    HW221243   5.330   6.371  12.077
73116SOL     OW21244  14.868   5.774   5.364
73116SOL    HW121245  14.774   5.775   5.383
73116SOL    HW221246   0.006   5.829   5.286
73117SOL     OW21247   1.416   4.668  10.312
73117SOL    HW121248   1.371   4.752  10.314
73117SOL    HW221249   1.480   4.673  10.383
73118SOL     OW21250  14.340   7.473  11.080
73118SOL    HW121251  14.291   7.479  10.998
73118SOL    HW221252  14.360   7.380  11.090
73119SOL     OW21253  13.372  14.065   9.663
73119SOL    HW121254  13.415  14.028   9.741
73119SOL    HW221255  13.280  14.043   9.673
73120SOL     OW21256   9.463   9.078  13.637
73120SOL    HW121257   9.488   9.147  13.576
73120SOL    HW221258   9.376   9.051  13.608
73121SOL     OW21259  10.133   9.732   6.165
73121SOL    HW121260  10.084   9.710   6.244
73121SOL    HW221261  10.110   9.664   6.102
73122SOL     OW21262   2.702   2.813  10.711
73122SOL    HW121263   2.783   2.765  10.695
73122SOL    HW221264   2.635   2.745  10.718
73123SOL     OW21265   3.275   6.711  10.647
73123SOL    HW121266   3.271   6.807  10.652
73123SOL    HW221267   3.206   6.688  10.585
73124SOL     OW21268   0.027   8.401   0.034
73124SOL    HW121269   0.079   8.481   0.040
73124SOL    HW221270   0.049   8.351   0.112
73125SOL     OW21271   2.493   6.340   0.231
73125SOL    HW121272   2.423   6.355   0.294
73125SOL    HW221273   2.456   6.280   0.167
73126SOL     OW21274   8.703   9.792   9.403
73126SOL    HW121275   8.691   9.801   9.308
73126SOL    HW221276   8.703   9.882   9.435
73127SOL     OW21277   8.422   5.198  10.197
73127SOL    HW121278   8.381   5.270  10.246
73127SOL    HW221279   8.353   5.166  10.139
73128SOL     OW21280   2.593   6.493  14.353
73128SOL    HW121281   2.601   6.516  14.260
73128SOL    HW221282   2.646   6.558  14.398
73129SOL     OW21283   1.780   2.232   3.100
73129SOL    HW121284   1.759   2.307   3.156
73129SOL    HW221285   1.713   2.167   3.120
73130SOL     OW21286  11.171   6.908   8.802
73130SOL    HW121287  11.258   6.922   8.765
73130SOL    HW221288  11.184   6.918   8.896
73131SOL     OW21289   5.921   7.701   2.790
73131SOL    HW121290   5.850   7.646   2.758
73131SOL    HW221291   5.915   7.695   2.886
73132SOL     OW21292  14.173  12.816   3.692
73132SOL    HW121293  14.125  12.813   3.610
73132SOL    HW221294  14.215  12.902   3.693
73133SOL     OW21295   9.620   3.983   3.193
73133SOL    HW121296   9.579   4.040   3.258
73133SOL    HW221297   9.594   3.895   3.220
73134SOL     OW21298  11.252   8.253   9.259
73134SOL    HW121299  11.321   8.254   9.192
73134SOL    HW221300  11.298   8.236   9.341
73135SOL     OW21301   2.976   7.409   0.382
73135SOL    HW121302   2.940   7.344   0.443
73135SOL    HW221303   3.050   7.364   0.340
73136SOL     OW21304   6.264  11.970  13.671
73136SOL    HW121305   6.355  11.998  13.660
73136SOL    HW221306   6.255  11.893  13.614
73137SOL     OW21307   6.743   5.984   1.599
73137SOL    HW121308   6.648   5.988   1.583
73137SOL    HW221309   6.780   5.963   1.513
73138SOL     OW21310   9.203  14.398   6.072
73138SOL    HW121311   9.168  14.486   6.087
73138SOL    HW221312   9.237  14.371   6.157
73139SOL     OW21313   0.028   4.027   0.249
73139SOL    HW121314   0.047   4.109   0.294
73139SOL    HW221315  14.806   4.031   0.230
73140SOL     OW21316  11.219   3.108   2.721
73140SOL    HW121317  11.140   3.081   2.769
73140SOL    HW221318  11.274   3.149   2.788
73141SOL     OW21319   2.393   3.048  12.286
73141SOL    HW121320   2.304   3.021  12.310
73141SOL    HW221321   2.438   3.060  12.369
73142SOL     OW21322  11.386   2.637  12.593
73142SOL    HW121323  11.411   2.686  12.672
73142SOL    HW221324  11.298   2.668  12.572
73143SOL     OW21325   2.843   8.669   5.284
73143SOL    HW121326   2.810   8.730   5.349
73143SOL    HW221327   2.937   8.663   5.300
73144SOL     OW21328   4.422   5.830   0.667
73144SOL    HW121329   4.453   5.870   0.748
73144SOL    HW221330   4.470   5.748   0.661
73145SOL     OW21331   2.745  14.143  14.337
73145SOL    HW121332   2.672  14.199  14.362
73145SOL    HW221333   2.818  14.203  14.324
73146SOL     OW21334   6.959   1.401   2.125
73146SOL    HW121335   6.996   1.316   2.103
73146SOL    HW221336   7.020   1.437   2.190
73147SOL     OW21337   9.367   2.736   0.695
73147SOL    HW121338   9.428   2.765   0.762
73147SOL    HW221339   9.363   2.808   0.632
73148SOL     OW21340   4.785   0.946   2.111
73148SOL    HW121341   4.746   0.880   2.167
73148SOL    HW221342   4.852   0.988   2.165
73149SOL     OW21343  11.115  10.910   0.222
73149SOL    HW121344  11.165  10.986   0.194
73149SOL    HW221345  11.118  10.850   0.148
73150SOL     OW21346  13.895   9.198   1.263
73150SOL    HW121347  13.833   9.170   1.330
73150SOL    HW221348  13.852   9.176   1.180
73151SOL     OW21349   7.999   5.602  14.197
73151SOL    HW121350   8.058   5.601  14.272
73151SOL    HW221351   8.024   5.526  14.145
73152SOL     OW21352  14.637   7.598   5.524
73152SOL    HW121353  14.576   7.557   5.462
73152SOL    HW221354  14.722   7.561   5.502
73153SOL     OW21355   5.288   3.223  11.041
73153SOL    HW121356   5.301   3.278  11.118
73153SOL    HW221357   5.333   3.269  10.971
73154SOL     OW21358   5.045  13.986  14.834
73154SOL    HW121359   5.009  13.910  14.788
73154SOL    HW221360   4.968  14.031  14.869
73155SOL     OW21361   0.342   2.715   4.984
73155SOL    HW121362   0.350   2.799   5.030
73155SOL    HW221363   0.257   2.681   5.011
73156SOL     OW21364   6.972   8.181   2.647
73156SOL    HW121365   6.899   8.173   2.708
73156SOL    HW221366   6.977   8.275   2.628
73157SOL     OW21367   5.744   1.239   0.242
73157SOL    HW121368   5.834   1.272   0.234
73157SOL    HW221369   5.716   1.225   0.152
73158SOL     OW21370   2.197   9.573   1.195
73158SOL    HW121371   2.285   9.548   1.167
73158SOL    HW221372   2.211   9.645   1.257
73159SOL     OW21373  13.286   3.327  13.090
73159SOL    HW121374  13.361   3.326  13.150
73159SOL    HW221375  13.257   3.418  13.088
73160SOL     OW21376   3.033  10.051   7.135
73160SOL    HW121377   3.077  10.030   7.053
73160SOL    HW221378   2.965  10.114   7.111
73161SOL     OW21379   4.224   9.842  11.359
73161SOL    HW121380   4.219   9.749  11.338
73161SOL    HW221381   4.179   9.850  11.444
73162SOL     OW21382   7.502   0.037   6.788
73162SOL    HW121383   7.575   0.085   6.827
73162SOL    HW221384   7.543  14.835   6.743
73163SOL     OW21385  10.841  13.829  13.496
73163SOL    HW121386  10.834  13.734  13.487
73163SOL    HW221387  10.832  13.862  13.407
73164SOL     OW21388   6.890   6.375   4.297
73164SOL    HW121389   6.960   6.316   4.270
73164SOL    HW221390   6.923   6.415   4.377
73165SOL     OW21391   7.528  14.543  12.243
73165SOL    HW121392   7.606  14.492  12.265
73165SOL    HW221393   7.559  14.634  12.238
73166SOL     OW21394   7.479   5.884   4.854
73166SOL    HW121395   7.440   5.901   4.940
73166SOL    HW221396   7.502   5.791   4.856
73167SOL     OW21397   3.059   5.608   5.096
73167SOL    HW121398   3.119   5.651   5.158
73167SOL    HW221399   2.977   5.658   5.104
73168SOL     OW21400   9.637  10.601   8.920
73168SOL    HW121401   9.555  10.588   8.967
73168SOL    HW221402   9.610  10.631   8.833
73169SOL     OW21403  14.810   5.875   9.078
73169SOL    HW121404   0.024   5.839   9.054
73169SOL    HW221405  14.804   5.956   9.028
73170SOL     OW21406  12.285  10.442  11.720
73170SOL    HW121407  12.355  10.506  11.714
73170SOL    HW221408  12.279  10.404  11.632
73171SOL     OW21409   0.399   4.331   8.084
73171SOL    HW121410   0.363   4.289   8.162
73171SOL    HW221411   0.421   4.420   8.112
73172SOL     OW21412   3.881  11.621  10.656
73172SOL    HW121413   3.806  11.652  10.604
73172SOL    HW221414   3.920  11.552  10.602
73173SOL     OW21415   8.654  11.073  10.593
73173SOL    HW121416   8.646  11.052  10.686
73173SOL    HW221417   8.700  10.998  10.555
73174SOL     OW21418   2.901   5.338   9.090
73174SOL    HW121419   2.961   5.371   9.156
73174SOL    HW221420   2.857   5.264   9.132
73175SOL     OW21421   0.684   3.422  14.629
73175SOL    HW121422   0.674   3.411  14.535
73175SOL    HW221423   0.665   3.335  14.666
73176SOL     OW21424  10.323  13.174   2.967
73176SOL    HW121425  10.379  13.168   3.044
73176SOL    HW221426  10.234  13.161   3.000
73177SOL     OW21427   7.898   0.214   9.127
73177SOL    HW121428   7.803   0.202   9.127
73177SOL    HW221429   7.911   0.304   9.097
73178SOL     OW21430   4.016   6.405   2.184
73178SOL    HW121431   3.960   6.381   2.111
73178SOL    HW221432   3.964   6.386   2.262
73179SOL     OW21433   3.630   8.588  13.617
73179SOL    HW121434   3.725   8.580  13.610
73179SOL    HW221435   3.608   8.545  13.700
73180SOL     OW21436   5.529   6.382   9.800
73180SOL    HW121437   5.459   6.432   9.843
73180SOL    HW221438   5.589   6.449   9.767
73181SOL     OW21439  12.401   3.252   7.088
73181SOL    HW121440  12.362   3.242   7.175
73181SOL    HW221441  12.468   3.183   7.084
73182SOL     OW21442   0.826  10.677   9.113
73182SOL    HW121443   0.740  10.662   9.153
73182SOL    HW221444   0.868  10.591   9.115
73183SOL     OW21445   7.768   5.592  10.429
73183SOL    HW121446   7.802   5.677  10.458
73183SOL    HW221447   7.815   5.574  10.347
73184SOL     OW21448  11.409   0.855  14.492
73184SOL    HW121449  11.335   0.800  14.517
73184SOL    HW221450  11.421   0.914  14.567
73185SOL     OW21451   4.252   3.634   4.450
73185SOL    HW121452   4.215   3.704   4.396
73185SOL    HW221453   4.340   3.664   4.472
73186SOL     OW21454   3.383   3.687   2.633
73186SOL    HW121455   3.428   3.756   2.681
73186SOL    HW221456   3.452   3.623   2.615
73187SOL     OW21457  12.827  13.681  14.440
73187SOL    HW121458  12.822  13.774  14.419
73187SOL    HW221459  12.777  13.672  14.521
73188SOL     OW21460   5.253   9.246  11.616
73188SOL    HW121461   5.202   9.272  11.539
73188SOL    HW221462   5.344   9.241  11.584
73189SOL     OW21463  11.129   2.754   2.223
73189SOL    HW121464  11.043   2.784   2.253
73189SOL    HW221465  11.191   2.789   2.287
73190SOL     OW21466  12.909   9.061  10.551
73190SOL    HW121467  12.947   8.995  10.493
73190SOL    HW221468  12.820   9.030  10.567
73191SOL     OW21469   1.970   8.876   9.594
73191SOL    HW121470   2.064   8.882   9.608
73191SOL    HW221471   1.932   8.908   9.675
73192SOL     OW21472  10.510   7.281  13.380
73192SOL    HW121473  10.529   7.260  13.472
73192SOL    HW221474  10.569   7.354  13.359
73193SOL     OW21475  10.600   1.549   0.012
73193SOL    HW121476  10.622   1.457   0.029
73193SOL    HW221477  10.544   1.574   0.086
73194SOL     OW21478   3.972  11.956   5.095
73194SOL    HW121479   4.036  11.914   5.152
73194SOL    HW221480   4.024  12.008   5.034
73195SOL     OW21481  13.521   5.578   3.329
73195SOL    HW121482  13.592   5.569   3.266
73195SOL    HW221483  13.447   5.609   3.277
73196SOL     OW21484   8.437  10.386   8.796
73196SOL    HW121485   8.463  10.382   8.888
73196SOL    HW221486   8.400  10.473   8.785
73197SOL     OW21487   9.169   7.937   1.352
73197SOL    HW121488   9.192   7.958   1.262
73197SOL    HW221489   9.237   7.980   1.404
73198SOL     OW21490   8.955  10.769  11.492
73198SOL    HW121491   8.881  10.831  11.491
73198SOL    HW221492   8.939  10.715  11.570
73199SOL     OW21493  13.867   3.731   9.125
73199SOL    HW121494  13.805   3.803   9.115
73199SOL    HW221495  13.812   3.656   9.149
73200SOL     OW21496  13.734   2.110  10.268
73200SOL    HW121497  13.770   2.030  10.229
73200SOL    HW221498  13.802   2.177  10.253
73201SOL     OW21499   5.674   5.467   5.265
73201SOL    HW121500   5.767   5.483   5.279
73201SOL    HW221501   5.666   5.372   5.260
73202SOL     OW21502   7.261  10.489   8.968
73202SOL    HW121503   7.191  10.435   8.930
73202SOL    HW221504   7.295  10.437   9.040
73203SOL     OW21505   6.007  13.531   2.296
73203SOL    HW121506   5.979  13.466   2.231
73203SOL    HW221507   5.967  13.613   2.266
73204SOL     OW21508  10.239   3.217  14.313
73204SOL    HW121509  10.272   3.239  14.400
73204SOL    HW221510  10.146   3.198  14.327
73205SOL     OW21511  14.808   8.110   0.678
73205SOL    HW121512  14.833   8.202   0.669
73205SOL    HW221513  14.743   8.110   0.749
73206SOL     OW21514  10.034   0.814  11.544
73206SOL    HW121515  10.063   0.727  11.571
73206SOL    HW221516   9.948   0.799  11.503
73207SOL     OW21517  13.298   2.977   0.963
73207SOL    HW121518  13.204   2.961   0.971
73207SOL    HW221519  13.308   3.071   0.978
73208SOL     OW21520   2.619   2.417   3.812
73208SOL    HW121521   2.688   2.432   3.877
73208SOL    HW221522   2.665   2.396   3.732
73209SOL     OW21523   6.666   0.620   0.669
73209SOL    HW121524   6.617   0.701   0.683
73209SOL    HW221525   6.628   0.581   0.590
73210SOL     OW21526   7.901   8.866   1.287
73210SOL    HW121527   7.960   8.895   1.357
73210SOL    HW221528   7.945   8.790   1.248
73211SOL     OW21529   7.253   0.321   3.776
73211SOL    HW121530   7.312   0.290   3.845
73211SOL    HW221531   7.178   0.262   3.781
73212SOL     OW21532   7.581   2.336  14.708
73212SOL    HW121533   7.488   2.314  14.708
73212SOL    HW221534   7.592   2.392  14.632
73213SOL     OW21535   7.088  13.648   2.284
73213SOL    HW121536   7.174  13.682   2.305
73213SOL    HW221537   7.035  13.665   2.362
73214SOL     OW21538  14.134   9.809   7.395
73214SOL    HW121539  14.158   9.867   7.324
73214SOL    HW221540  14.126   9.723   7.354
73215SOL     OW21541  11.600   7.905   0.574
73215SOL    HW121542  11.572   7.984   0.621
73215SOL    HW221543  11.686   7.927   0.539
73216SOL     OW21544  12.058   5.332   7.571
73216SOL    HW121545  11.996   5.288   7.628
73216SOL    HW221546  12.109   5.388   7.629
73217SOL     OW21547   3.945   4.293  10.583
73217SOL    HW121548   3.849   4.300  10.586
73217SOL    HW221549   3.966   4.305  10.490
73218SOL     OW21550  12.179   7.975   2.711
73218SOL    HW121551  12.085   7.984   2.726
73218SOL    HW221552  12.203   8.049   2.656
73219SOL     OW21553   4.625   9.966  14.691
73219SOL    HW121554   4.633   9.892  14.631
73219SOL    HW221555   4.645   9.929  14.777
73220SOL     OW21556   9.686  10.518  11.146
73220SOL    HW121557   9.683  10.585  11.215
73220SOL    HW221558   9.704  10.437  11.193
73221SOL     OW21559   8.425   0.871  14.200
73221SOL    HW121560   8.470   0.935  14.255
73221SOL    HW221561   8.495   0.813  14.169
73222SOL     OW21562   1.742  11.201   8.881
73222SOL    HW121563   1.696  11.277   8.916
73222SOL    HW221564   1.738  11.212   8.786
73223SOL     OW21565   7.786   0.998   7.688
73223SOL    HW121566   7.705   0.972   7.732
73223SOL    HW221567   7.775   0.969   7.597
73224SOL     OW21568   0.599  12.041  13.900
73224SOL    HW121569   0.649  12.053  13.981
73224SOL    HW221570   0.646  11.972  13.853
73225SOL     OW21571   8.060   2.333  11.572
73225SOL    HW121572   8.046   2.314  11.665
73225SOL    HW221573   8.023   2.257  11.526
73226SOL     OW21574   8.783   2.925   4.403
73226SOL    HW121575   8.819   3.006   4.367
73226SOL    HW221576   8.828   2.856   4.354
73227SOL     OW21577   5.709  11.518   3.474
73227SOL    HW121578   5.768  11.540   3.401
73227SOL    HW221579   5.622  11.513   3.433
73228SOL     OW21580   7.013   1.927   6.303
73228SOL    HW121581   7.007   1.999   6.241
73228SOL    HW221582   7.069   1.960   6.373
73229SOL     OW21583   4.035   0.542  12.973
73229SOL    HW121584   4.009   0.598  12.900
73229SOL    HW221585   3.954   0.528  13.023
73230SOL     OW21586  11.147   4.003  11.337
73230SOL    HW121587  11.063   4.031  11.374
73230SOL    HW221588  11.173   4.074  11.278
73231SOL     OW21589   1.842   2.137   1.818
73231SOL    HW121590   1.829   2.078   1.743
73231SOL    HW221591   1.812   2.087   1.894
73232SOL     OW21592   3.042   3.091  14.853
73232SOL    HW121593   2.996   3.081   0.065
73232SOL    HW221594   3.107   3.159  14.870
73233SOL     OW21595   1.151   7.148   8.184
73233SOL    HW121596   1.213   7.166   8.114
73233SOL    HW221597   1.201   7.099   8.249
73234SOL     OW21598   0.692   8.836   0.908
73234SOL    HW121599   0.738   8.866   0.986
73234SOL    HW221600   0.687   8.741   0.916
73235SOL     OW21601  13.036   7.521  12.636
73235SOL    HW121602  13.122   7.542  12.673
73235SOL    HW221603  13.051   7.445  12.580
73236SOL     OW21604  10.502  10.618   7.279
73236SOL    HW121605  10.547  10.700   7.254
73236SOL    HW221606  10.571  10.552   7.278
73237SOL     OW21607   7.216   5.636   7.434
73237SOL    HW121608   7.137   5.660   7.387
73237SOL    HW221609   7.238   5.548   7.401
73238SOL     OW21610  10.615  14.051   6.570
73238SOL    HW121611  10.693  14.001   6.594
73238SOL    HW221612  10.544  14.011   6.621
73239SOL     OW21613   0.490   3.177   3.300
73239SOL    HW121614   0.436   3.129   3.363
73239SOL    HW221615   0.496   3.118   3.225
73240SOL     OW21616  12.512  13.338   2.494
73240SOL    HW121617  12.465  13.341   2.411
73240SOL    HW221618  12.451  13.294   2.554
73241SOL     OW21619   4.566   2.886  11.643
73241SOL    HW121620   4.536   2.949  11.577
73241SOL    HW221621   4.656   2.911  11.661
73242SOL     OW21622   8.155   4.856   4.575
73242SOL    HW121623   8.174   4.929   4.516
73242SOL    HW221624   8.080   4.887   4.627
73243SOL     OW21625  12.763  12.934  10.555
73243SOL    HW121626  12.687  12.991  10.539
73243SOL    HW221627  12.729  12.846  10.544
73244SOL     OW21628  13.213  13.170   2.371
73244SOL    HW121629  13.255  13.093   2.412
73244SOL    HW221630  13.142  13.193   2.431
73245SOL     OW21631   2.863  13.208  12.772
73245SOL    HW121632   2.799  13.237  12.708
73245SOL    HW221633   2.945  13.200  12.723
73246SOL     OW21634   9.790   7.280   5.804
73246SOL    HW121635   9.837   7.353   5.845
73246SOL    HW221636   9.714   7.266   5.861
73247SOL     OW21637   6.373   2.893   0.707
73247SOL    HW121638   6.459   2.934   0.712
73247SOL    HW221639   6.328   2.940   0.636
73248SOL     OW21640  12.246  14.300  13.938
73248SOL    HW121641  12.267  14.391  13.920
73248SOL    HW221642  12.310  14.273  14.004
73249SOL     OW21643   4.698   8.033   0.090
73249SOL    HW121644   4.715   7.961   0.150
73249SOL    HW221645   4.723   8.111   0.139
73250SOL     OW21646   0.985   2.208   0.859
73250SOL    HW121647   0.981   2.219   0.954
73250SOL    HW221648   0.975   2.296   0.823
73251SOL     OW21649   0.857   6.548   6.456
73251SOL    HW121650   0.867   6.577   6.366
73251SOL    HW221651   0.858   6.452   6.450
73252SOL     OW21652  14.531   2.380   1.133
73252SOL    HW121653  14.615   2.418   1.104
73252SOL    HW221654  14.500   2.440   1.201
73253SOL     OW21655  14.237   4.475   1.505
73253SOL    HW121656  14.255   4.385   1.478
73253SOL    HW221657  14.273   4.528   1.434
73254SOL     OW21658  10.938  13.600   7.075
73254SOL    HW121659  10.873  13.562   7.134
73254SOL    HW221660  10.907  13.689   7.058
73255SOL     OW21661   6.993   2.469   7.483
73255SOL    HW121662   6.958   2.544   7.435
73255SOL    HW221663   6.924   2.445   7.544
73256SOL     OW21664   5.941   2.074   8.182
73256SOL    HW121665   6.000   2.007   8.149
73256SOL    HW221666   5.978   2.097   8.268
73257SOL     OW21667  14.707  10.817  11.889
73257SOL    HW121668  14.797  10.789  11.906
73257SOL    HW221669  14.664  10.739  11.856
73258SOL     OW21670   3.233   6.210  13.809
73258SOL    HW121671   3.137   6.212  13.809
73258SOL    HW221672   3.259   6.300  13.788
73259SOL     OW21673   6.591   6.631  14.427
73259SOL    HW121674   6.655   6.583  14.373
73259SOL    HW221675   6.514   6.640  14.371
73260SOL     OW21676   2.100  14.536   0.510
73260SOL    HW121677   2.086  14.441   0.514
73260SOL    HW221678   2.170  14.552   0.573
73261SOL     OW21679   4.374  13.501   5.348
73261SOL    HW121680   4.336  13.539   5.269
73261SOL    HW221681   4.464  13.534   5.350
73262SOL     OW21682  13.945   4.435   4.424
73262SOL    HW121683  14.005   4.482   4.481
73262SOL    HW221684  13.950   4.344   4.453
73263SOL     OW21685  13.219  14.840  10.835
73263SOL    HW121686  13.280  14.817  10.765
73263SOL    HW221687  13.242  14.781  10.907
73264SOL     OW21688   1.593  11.707   9.695
73264SOL    HW121689   1.662  11.657   9.740
73264SOL    HW221690   1.512  11.661   9.716
73265SOL     OW21691  10.238   5.884   3.763
73265SOL    HW121692  10.249   5.974   3.734
73265SOL    HW221693  10.315   5.839   3.729
73266SOL     OW21694  12.515   2.432   1.094
73266SOL    HW121695  12.504   2.345   1.057
73266SOL    HW221696  12.610   2.442   1.103
73267SOL     OW21697   1.266   9.385   0.494
73267SOL    HW121698   1.273   9.445   0.420
73267SOL    HW221699   1.304   9.433   0.568
73268SOL     OW21700   6.383  12.910   7.506
73268SOL    HW121701   6.478  12.894   7.501
73268SOL    HW221702   6.356  12.867   7.587
73269SOL     OW21703  10.442   2.489   8.099
73269SOL    HW121704  10.472   2.579   8.084
73269SOL    HW221705  10.473   2.441   8.022
73270SOL     OW21706  10.138  10.958   1.807
73270SOL    HW121707  10.199  11.031   1.812
73270SOL    HW221708  10.053  10.999   1.788
73271SOL     OW21709   5.332   2.841   1.610
73271SOL    HW121710   5.247   2.799   1.594
73271SOL    HW221711   5.388   2.769   1.640
73272SOL     OW21712   4.795  11.213   9.148
73272SOL    HW121713   4.858  11.275   9.185
73272SOL    HW221714   4.844  11.130   9.142
73273SOL     OW21715   2.385   7.785   3.297
73273SOL    HW121716   2.363   7.813   3.208
73273SOL    HW221717   2.386   7.689   3.291
73274SOL     OW21718   6.465  11.167   0.643
73274SOL    HW121719   6.484  11.081   0.680
73274SOL    HW221720   6.522  11.172   0.566
73275SOL     OW21721   5.094  13.198   4.388
73275SOL    HW121722   5.101  13.160   4.475
73275SOL    HW221723   5.000  13.207   4.373
73276SOL     OW21724   8.637   7.490  10.585
73276SOL    HW121725   8.580   7.489  10.507
73276SOL    HW221726   8.726   7.494  10.549
73277SOL     OW21727   5.005   1.432   4.438
73277SOL    HW121728   5.051   1.495   4.383
73277SOL    HW221729   4.913   1.441   4.415
73278SOL     OW21730   5.627   3.365   5.945
73278SOL    HW121731   5.558   3.298   5.944
73278SOL    HW221732   5.617   3.410   5.861
73279SOL     OW21733  10.498   7.359  14.007
73279SOL    HW121734  10.565   7.412  14.051
73279SOL    HW221735  10.419   7.372  14.059
73280SOL     OW21736   3.309   3.578   6.005
73280SOL    HW121737   3.291   3.671   5.994
73280SOL    HW221738   3.319   3.545   5.915
73281SOL     OW21739  11.089   4.483  10.725
73281SOL    HW121740  11.172   4.443  10.699
73281SOL    HW221741  11.051   4.515  10.643
73282SOL     OW21742   8.867   3.472   2.612
73282SOL    HW121743   8.816   3.430   2.543
73282SOL    HW221744   8.821   3.554   2.630
73283SOL     OW21745  10.172   5.640   3.888
73283SOL    HW121746  10.195   5.726   3.851
73283SOL    HW221747  10.231   5.579   3.844
73284SOL     OW21748   0.326  10.486   9.252
73284SOL    HW121749   0.417  10.500   9.279
73284SOL    HW221750   0.315  10.391   9.254
73285SOL     OW21751   4.584   1.085  11.754
73285SOL    HW121752   4.604   1.015  11.692
73285SOL    HW221753   4.601   1.165  11.705
73286SOL     OW21754   9.808   3.292  10.187
73286SOL    HW121755   9.832   3.228  10.121
73286SOL    HW221756   9.713   3.284  10.195
73287SOL     OW21757  11.567   9.300   9.317
73287SOL    HW121758  11.492   9.275   9.264
73287SOL    HW221759  11.540   9.380   9.362
73288SOL     OW21760   4.083   9.552   1.572
73288SOL    HW121761   3.991   9.530   1.560
73288SOL    HW221762   4.083   9.620   1.640
73289SOL     OW21763   7.010   9.969   1.729
73289SOL    HW121764   7.051   9.912   1.664
73289SOL    HW221765   6.964   9.909   1.788
73290SOL     OW21766   3.060   3.379   2.668
73290SOL    HW121767   3.109   3.381   2.750
73290SOL    HW221768   2.989   3.441   2.681
73291SOL     OW21769  10.780  12.006   6.878
73291SOL    HW121770  10.795  11.920   6.839
73291SOL    HW221771  10.718  12.049   6.819
73292SOL     OW21772   1.300   6.183   1.986
73292SOL    HW121773   1.223   6.182   2.043
73292SOL    HW221774   1.265   6.199   1.899
73293SOL     OW21775   3.401   8.360   4.321
73293SOL    HW121776   3.372   8.451   4.330
73293SOL    HW221777   3.479   8.365   4.265
73294SOL     OW21778   7.195   3.663   7.951
73294SOL    HW121779   7.265   3.604   7.979
73294SOL    HW221780   7.209   3.675   7.857
73295SOL     OW21781   2.860   7.710   5.891
73295SOL    HW121782   2.769   7.685   5.873
73295SOL    HW221783   2.883   7.770   5.821
73296SOL     OW21784   4.975   6.200   6.079
73296SOL    HW121785   4.949   6.204   5.987
73296SOL    HW221786   5.064   6.165   6.078
73297SOL     OW21787   0.668   0.737   3.504
73297SOL    HW121788   0.668   0.829   3.481
73297SOL    HW221789   0.637   0.735   3.595
73298SOL     OW21790  12.051  10.701   2.909
73298SOL    HW121791  12.096  10.617   2.922
73298SOL    HW221792  12.063  10.720   2.816
73299SOL     OW21793  13.935   2.029   0.939
73299SOL    HW121794  13.969   2.089   0.872
73299SOL    HW221795  13.963   2.068   1.022
73300SOL     OW21796  10.630  12.456   3.377
73300SOL    HW121797  10.708  12.508   3.363
73300SOL    HW221798  10.619  12.453   3.472
73301SOL     OW21799   9.477   1.557  12.320
73301SOL    HW121800   9.555   1.590  12.365
73301SOL    HW221801   9.422   1.522  12.391
73302SOL     OW21802   5.597   2.914  13.283
73302SOL    HW121803   5.685   2.933  13.251
73302SOL    HW221804   5.607   2.903  13.377
73303SOL     OW21805   3.168   6.276   6.115
73303SOL    HW121806   3.195   6.263   6.206
73303SOL    HW221807   3.221   6.214   6.065
73304SOL     OW21808  14.143  12.786  11.578
73304SOL    HW121809  14.141  12.778  11.482
73304SOL    HW221810  14.097  12.869  11.595
73305SOL     OW21811   4.082   2.884   1.220
73305SOL    HW121812   4.064   2.976   1.202
73305SOL    HW221813   4.003   2.838   1.191
73306SOL     OW21814   6.264   6.556   6.813
73306SOL    HW121815   6.271   6.576   6.720
73306SOL    HW221816   6.328   6.613   6.855
73307SOL     OW21817   0.766   3.491  11.027
73307SOL    HW121818   0.741   3.411  10.981
73307SOL    HW221819   0.761   3.560  10.960
73308SOL     OW21820  12.978   5.355  13.846
73308SOL    HW121821  13.063   5.399  13.843
73308SOL    HW221822  12.928   5.392  13.774
73309SOL     OW21823  11.250   8.132   6.837
73309SOL    HW121824  11.181   8.159   6.898
73309SOL    HW221825  11.280   8.214   6.798
73310SOL     OW21826   4.397   7.832   8.753
73310SOL    HW121827   4.491   7.815   8.749
73310SOL    HW221828   4.390   7.926   8.769
73311SOL     OW21829   7.719   9.056  14.043
73311SOL    HW121830   7.697   9.041  14.135
73311SOL    HW221831   7.764   8.976  14.015
73312SOL     OW21832   1.639  13.460   0.680
73312SOL    HW121833   1.692  13.380   0.681
73312SOL    HW221834   1.651  13.497   0.768
73313SOL     OW21835   0.511   9.840  13.460
73313SOL    HW121836   0.596   9.883  13.467
73313SOL    HW221837   0.459   9.878  13.531
73314SOL     OW21838   8.280   4.592   8.994
73314SOL    HW121839   8.367   4.588   8.955
73314SOL    HW221840   8.224   4.625   8.924
73315SOL     OW21841   4.856  13.247   2.654
73315SOL    HW121842   4.814  13.191   2.588
73315SOL    HW221843   4.832  13.207   2.738
73316SOL     OW21844   4.766   7.945   1.114
73316SOL    HW121845   4.776   8.040   1.112
73316SOL    HW221846   4.762   7.923   1.208
73317SOL     OW21847   5.695  11.621   2.939
73317SOL    HW121848   5.682  11.611   3.034
73317SOL    HW221849   5.689  11.715   2.924
73318SOL     OW21850  13.122   3.347  11.030
73318SOL    HW121851  13.042   3.337  10.977
73318SOL    HW221852  13.089   3.367  11.117
73319SOL     OW21853   5.065   6.841   5.377
73319SOL    HW121854   5.048   6.775   5.445
73319SOL    HW221855   5.140   6.808   5.329
73320SOL     OW21856   0.571   2.369  11.922
73320SOL    HW121857   0.598   2.461  11.920
73320SOL    HW221858   0.627   2.325  11.858
73321SOL     OW21859  12.760   9.841  12.054
73321SOL    HW121860  12.757   9.853  12.149
73321SOL    HW221861  12.711   9.915  12.018
73322SOL     OW21862  14.084   7.150  13.835
73322SOL    HW121863  13.999   7.156  13.791
73322SOL    HW221864  14.125   7.235  13.819
73323SOL     OW21865   7.541  13.034  11.072
73323SOL    HW121866   7.535  13.013  10.978
73323SOL    HW221867   7.603  12.969  11.107
73324SOL     OW21868  11.421   1.211   8.902
73324SOL    HW121869  11.333   1.192   8.935
73324SOL    HW221870  11.440   1.299   8.934
73325SOL     OW21871  10.387   6.448  11.970
73325SOL    HW121872  10.337   6.440  11.888
73325SOL    HW221873  10.373   6.365  12.014
73326SOL     OW21874   0.764   0.678   9.497
73326SOL    HW121875   0.692   0.665   9.435
73326SOL    HW221876   0.815   0.598   9.493
73327SOL     OW21877   2.783   3.425  13.161
73327SOL    HW121878   2.771   3.447  13.069
73327SOL    HW221879   2.778   3.329  13.164
73328SOL     OW21880   3.067  13.009   7.961
73328SOL    HW121881   2.983  13.054   7.954
73328SOL    HW221882   3.076  12.961   7.879
73329SOL     OW21883   7.766  13.773  12.377
73329SOL    HW121884   7.676  13.782  12.344
73329SOL    HW221885   7.789  13.860  12.408
73330SOL     OW21886   9.229   9.013   5.604
73330SOL    HW121887   9.292   8.941   5.615
73330SOL    HW221888   9.254   9.076   5.672
73331SOL     OW21889  12.890   1.003   8.506
73331SOL    HW121890  12.976   1.038   8.482
73331SOL    HW221891  12.845   1.076   8.550
73332SOL     OW21892   9.216   1.719   7.698
73332SOL    HW121893   9.191   1.628   7.685
73332SOL    HW221894   9.312   1.716   7.707
73333SOL     OW21895  14.806  11.549   8.699
73333SOL    HW121896  14.718  11.533   8.665
73333SOL    HW221897  14.820  11.480   8.764
73334SOL     OW21898  10.902   8.776   3.812
73334SOL    HW121899  10.965   8.849   3.807
73334SOL    HW221900  10.949   8.702   3.775
73335SOL     OW21901   2.278   7.742  10.595
73335SOL    HW121902   2.338   7.687  10.645
73335SOL    HW221903   2.197   7.692  10.591
73336SOL     OW21904   4.112  13.206   7.700
73336SOL    HW121905   4.096  13.275   7.635
73336SOL    HW221906   4.061  13.132   7.670
73337SOL     OW21907  13.289   8.201   0.627
73337SOL    HW121908  13.257   8.131   0.571
73337SOL    HW221909  13.221   8.269   0.621
73338SOL     OW21910   5.366  12.350   8.705
73338SOL    HW121911   5.409  12.273   8.741
73338SOL    HW221912   5.311  12.383   8.776
73339SOL     OW21913  12.083   6.409   7.589
73339SOL    HW121914  12.014   6.352   7.625
73339SOL    HW221915  12.043   6.450   7.513
73340SOL     OW21916   4.812   3.547   7.988
73340SOL    HW121917   4.880   3.615   7.991
73340SOL    HW221918   4.734   3.594   7.958
73341SOL     OW21919  14.022   9.878   9.285
73341SOL    HW121920  13.960   9.808   9.263
73341SOL    HW221921  14.077   9.886   9.207
73342SOL     OW21922   4.758   0.398  13.602
73342SOL    HW121923   4.776   0.332  13.535
73342SOL    HW221924   4.667   0.423  13.587
73343SOL     OW21925  13.944   7.665  12.519
73343SOL    HW121926  13.898   7.735  12.473
73343SOL    HW221927  13.879   7.596  12.529
73344SOL     OW21928   1.218   5.723   0.993
73344SOL    HW121929   1.136   5.743   0.949
73344SOL    HW221930   1.216   5.628   1.007
73345SOL     OW21931   3.495   7.075  11.559
73345SOL    HW121932   3.452   7.134  11.497
73345SOL    HW221933   3.588   7.100  11.554
73346SOL     OW21934   1.955  13.959  13.169
73346SOL    HW121935   1.936  14.009  13.248
73346SOL    HW221936   1.869  13.929  13.139
73347SOL     OW21937   3.687  11.289   3.812
73347SOL    HW121938   3.781  11.274   3.822
73347SOL    HW221939   3.650  11.202   3.799
73348SOL     OW21940   7.623   9.302  10.452
73348SOL    HW121941   7.623   9.208  10.472
73348SOL    HW221942   7.540   9.317  10.408
73349SOL     OW21943  12.984  12.467   8.452
73349SOL    HW121944  12.975  12.489   8.359
73349SOL    HW221945  12.960  12.374   8.456
73350SOL     OW21946   8.599   4.973   9.758
73350SOL    HW121947   8.645   5.017   9.830
73350SOL    HW221948   8.509   4.965   9.789
73351SOL     OW21949   8.334   3.892  12.752
73351SOL    HW121950   8.314   3.974  12.798
73351SOL    HW221951   8.360   3.832  12.822
73352SOL     OW21952   7.655  11.323   6.755
73352SOL    HW121953   7.684  11.376   6.681
73352SOL    HW221954   7.678  11.374   6.832
73353SOL     OW21955   5.799   9.878   7.125
73353SOL    HW121956   5.832   9.818   7.058
73353SOL    HW221957   5.773   9.821   7.197
73354SOL     OW21958  13.885   1.116   0.653
73354SOL    HW121959  13.803   1.105   0.605
73354SOL    HW221960  13.940   1.167   0.594
73355SOL     OW21961   3.878   4.629  14.441
73355SOL    HW121962   3.878   4.621  14.536
73355SOL    HW221963   3.941   4.564  14.412
73356SOL     OW21964  10.463   8.169   1.409
73356SOL    HW121965  10.469   8.219   1.490
73356SOL    HW221966  10.461   8.235   1.340
73357SOL     OW21967  12.302   2.578   2.762
73357SOL    HW121968  12.306   2.573   2.858
73357SOL    HW221969  12.245   2.506   2.737
73358SOL     OW21970   6.578   5.736  11.305
73358SOL    HW121971   6.555   5.828  11.289
73358SOL    HW221972   6.655   5.739  11.361
73359SOL     OW21973   3.689  12.973  14.035
73359SOL    HW121974   3.615  12.950  13.979
73359SOL    HW221975   3.744  12.895  14.036
73360SOL     OW21976  10.433   7.850  12.106
73360SOL    HW121977  10.517   7.804  12.102
73360SOL    HW221978  10.426   7.878  12.197
73361SOL     OW21979  10.522   3.656  12.299
73361SOL    HW121980  10.446   3.608  12.333
73361SOL    HW221981  10.597   3.617  12.343
73362SOL     OW21982   0.797   7.642   9.879
73362SOL    HW121983   0.865   7.625   9.814
73362SOL    HW221984   0.844   7.646   9.963
73363SOL     OW21985   6.406  10.731   2.821
73363SOL    HW121986   6.310  10.737   2.823
73363SOL    HW221987   6.430  10.707   2.910
73364SOL     OW21988   4.242  12.184   2.842
73364SOL    HW121989   4.193  12.103   2.831
73364SOL    HW221990   4.310  12.163   2.906
73365SOL     OW21991   4.678  12.224   8.218
73365SOL    HW121992   4.637  12.246   8.301
73365SOL    HW221993   4.615  12.252   8.152
73366SOL     OW21994   1.094   6.962   5.831
73366SOL    HW121995   1.034   6.905   5.784
73366SOL    HW221996   1.039   7.010   5.893
73367SOL     OW21997  10.320  12.159  11.093
73367SOL    HW121998  10.352  12.249  11.101
73367SOL    HW221999  10.272  12.158  11.011
73368SOL     OW22000   1.072   3.100   7.590
73368SOL    HW122001   1.124   3.050   7.652
73368SOL    HW222002   1.135   3.156   7.545
73369SOL     OW22003   3.389   9.138   4.593
73369SOL    HW122004   3.404   9.186   4.674
73369SOL    HW222005   3.354   9.053   4.621
73370SOL     OW22006   5.346   7.515   2.029
73370SOL    HW122007   5.411   7.583   2.013
73370SOL    HW222008   5.264   7.552   1.999
73371SOL     OW22009   2.248   1.720  12.822
73371SOL    HW122010   2.165   1.763  12.805
73371SOL    HW222011   2.304   1.747  12.749
73372SOL     OW22012   7.783  11.867   2.217
73372SOL    HW122013   7.751  11.898   2.133
73372SOL    HW222014   7.777  11.771   2.211
73373SOL     OW22015  13.868   7.441  10.241
73373SOL    HW122016  13.807   7.391  10.187
73373SOL    HW222017  13.817   7.467  10.318
73374SOL     OW22018   9.707   0.225  14.184
73374SOL    HW122019   9.705   0.197  14.275
73374SOL    HW222020   9.632   0.180  14.143
73375SOL     OW22021  10.139   8.618   1.369
73375SOL    HW122022  10.157   8.528   1.398
73375SOL    HW222023  10.066   8.647   1.424
73376SOL     OW22024   2.185  14.394   7.132
73376SOL    HW122025   2.142  14.465   7.085
73376SOL    HW222026   2.203  14.328   7.065
73377SOL     OW22027   5.326   5.090  12.436
73377SOL    HW122028   5.287   5.147  12.369
73377SOL    HW222029   5.359   5.150  12.503
73378SOL     OW22030   7.155   8.005   0.359
73378SOL    HW122031   7.135   7.986   0.451
73378SOL    HW222032   7.094   7.951   0.309
73379SOL     OW22033   1.343   9.933  14.847
73379SOL    HW122034   1.332  10.027  14.864
73379SOL    HW222035   1.424   9.910   0.020
73380SOL     OW22036  13.162  13.973  14.271
73380SOL    HW122037  13.075  13.949  14.304
73380SOL    HW222038  13.152  13.972  14.175
73381SOL     OW22039  13.413  13.475  14.396
73381SOL    HW122040  13.435  13.428  14.477
73381SOL    HW222041  13.319  13.463  14.385
73382SOL     OW22042   0.529   0.695   1.484
73382SOL    HW122043   0.581   0.726   1.410
73382SOL    HW222044   0.466   0.766   1.500
73383SOL     OW22045   5.688   4.894  14.486
73383SOL    HW122046   5.650   4.935  14.408
73383SOL    HW222047   5.747   4.961  14.521
73384SOL     OW22048   7.355   1.351   5.206
73384SOL    HW122049   7.354   1.267   5.250
73384SOL    HW222050   7.357   1.416   5.276
73385SOL     OW22051   3.099   8.394   2.200
73385SOL    HW122052   3.093   8.489   2.197
73385SOL    HW222053   3.008   8.363   2.195
73386SOL     OW22054   6.089   5.486  10.320
73386SOL    HW122055   6.101   5.421  10.389
73386SOL    HW222056   6.168   5.479  10.266
73387SOL     OW22057  10.401   2.533   2.549
73387SOL    HW122058  10.327   2.547   2.490
73387SOL    HW222059  10.367   2.477   2.618
73388SOL     OW22060   0.459  12.413   6.649
73388SOL    HW122061   0.471  12.451   6.562
73388SOL    HW222062   0.489  12.323   6.640
73389SOL     OW22063   6.387   8.605   6.277
73389SOL    HW122064   6.427   8.536   6.224
73389SOL    HW222065   6.414   8.686   6.234
73390SOL     OW22066   4.915  14.713   8.520
73390SOL    HW122067   4.987  14.714   8.582
73390SOL    HW222068   4.876  14.626   8.530
73391SOL     OW22069  10.983  10.094   4.782
73391SOL    HW122070  11.039  10.151   4.730
73391SOL    HW222071  10.973  10.140   4.866
73392SOL     OW22072  10.755   1.658   9.753
73392SOL    HW122073  10.791   1.642   9.666
73392SOL    HW222074  10.693   1.587   9.767
73393SOL     OW22075   8.621  13.806   9.388
73393SOL    HW122076   8.701  13.770   9.425
73393SOL    HW222077   8.589  13.737   9.329
73394SOL     OW22078   3.521   1.500  11.328
73394SOL    HW122079   3.616   1.503  11.340
73394SOL    HW222080   3.497   1.409  11.345
73395SOL     OW22081   9.187   4.686   6.967
73395SOL    HW122082   9.169   4.771   7.006
73395SOL    HW222083   9.227   4.635   7.037
73396SOL     OW22084  13.889   8.385   0.776
73396SOL    HW122085  13.854   8.313   0.828
73396SOL    HW222086  13.905   8.455   0.839
73397SOL     OW22087   5.323  10.834  12.041
73397SOL    HW122088   5.301  10.746  12.072
73397SOL    HW222089   5.410  10.851  12.077
73398SOL     OW22090   1.151  13.859  14.701
73398SOL    HW122091   1.156  13.941  14.652
73398SOL    HW222092   1.220  13.866  14.767
73399SOL     OW22093  14.342   6.076   8.953
73399SOL    HW122094  14.322   6.038   8.868
73399SOL    HW222095  14.390   6.007   8.999
73400SOL     OW22096  13.211   0.634   7.416
73400SOL    HW122097  13.287   0.688   7.434
73400SOL    HW222098  13.145   0.695   7.382
73401SOL     OW22099   0.943   3.858   1.327
73401SOL    HW122100   1.008   3.906   1.379
73401SOL    HW222101   0.991   3.831   1.248
73402SOL     OW22102   5.760   0.375   2.495
73402SOL    HW122103   5.668   0.352   2.496
73402SOL    HW222104   5.787   0.375   2.587
73403SOL     OW22105   0.865   4.993   6.551
73403SOL    HW122106   0.814   5.071   6.529
73403SOL    HW222107   0.817   4.953   6.624
73404SOL     OW22108   5.308  10.480   5.058
73404SOL    HW122109   5.339  10.392   5.038
73404SOL    HW222110   5.325  10.530   4.979
73405SOL     OW22111  12.056   8.770   6.230
73405SOL    HW122112  11.994   8.810   6.170
73405SOL    HW222113  12.007   8.699   6.273
73406SOL     OW22114  14.039   6.961   5.314
73406SOL    HW122115  13.956   6.968   5.360
73406SOL    HW222116  14.023   6.900   5.243
73407SOL     OW22117   7.729   5.375  10.064
73407SOL    HW122118   7.655   5.431  10.087
73407SOL    HW222119   7.730   5.374   9.968
73408SOL     OW22120   1.939   3.013   4.770
73408SOL    HW122121   1.930   3.102   4.736
73408SOL    HW222122   1.886   3.011   4.849
73409SOL     OW22123  12.019  13.985   4.910
73409SOL    HW122124  11.991  14.005   4.820
73409SOL    HW222125  12.023  13.889   4.912
73410SOL     OW22126   1.125   5.313   7.805
73410SOL    HW122127   1.185   5.260   7.753
73410SOL    HW222128   1.038   5.281   7.783
73411SOL     OW22129  13.311   2.706   4.175
73411SOL    HW122130  13.228   2.729   4.218
73411SOL    HW222131  13.291   2.628   4.125
73412SOL     OW22132   0.855   7.869  13.228
73412SOL    HW122133   0.940   7.907  13.204
73412SOL    HW222134   0.877   7.799  13.289
73413SOL     OW22135  12.115  13.550  13.697
73413SOL    HW122136  12.022  13.567  13.714
73413SOL    HW222137  12.131  13.589  13.611
73414SOL     OW22138   1.105  10.940   1.724
73414SOL    HW122139   1.197  10.942   1.698
73414SOL    HW222140   1.069  10.863   1.681
73415SOL     OW22141  14.290   6.734   1.407
73415SOL    HW122142  14.223   6.669   1.385
73415SOL    HW222143  14.350   6.732   1.332
73416SOL     OW22144   4.526   9.790   9.845
73416SOL    HW122145   4.459   9.840   9.798
73416SOL    HW222146   4.572   9.854   9.899
73417SOL     OW22147   3.291   1.010   0.627
73417SOL    HW122148   3.338   1.042   0.551
73417SOL    HW222149   3.260   0.923   0.603
73418SOL     OW22150   7.108   1.471   7.997
73418SOL    HW122151   7.081   1.437   7.911
73418SOL    HW222152   7.095   1.397   8.057
73419SOL     OW22153   5.888  12.566   4.764
73419SOL    HW122154   5.793  12.562   4.765
73419SOL    HW222155   5.916  12.498   4.825
73420SOL     OW22156   9.150   0.330   9.422
73420SOL    HW122157   9.176   0.299   9.335
73420SOL    HW222158   9.118   0.252   9.467
73421SOL     OW22159   1.854  13.076  12.102
73421SOL    HW122160   1.887  13.009  12.161
73421SOL    HW222161   1.904  13.064  12.022
73422SOL     OW22162   3.845   0.628   8.223
73422SOL    HW122163   3.752   0.615   8.244
73422SOL    HW222164   3.888   0.631   8.309
73423SOL     OW22165  11.048  12.533   4.289
73423SOL    HW122166  10.960  12.501   4.307
73423SOL    HW222167  11.037  12.623   4.261
73424SOL     OW22168   6.254   8.938   9.734
73424SOL    HW122169   6.197   9.013   9.753
73424SOL    HW222170   6.336   8.977   9.706
73425SOL     OW22171  10.064  11.592   0.807
73425SOL    HW122172  10.052  11.676   0.851
73425SOL    HW222173   9.988  11.584   0.749
73426SOL     OW22174   7.462  10.346  10.005
73426SOL    HW122175   7.529  10.281   9.984
73426SOL    HW222176   7.449  10.395   9.923
73427SOL     OW22177   3.855   3.377   6.014
73427SOL    HW122178   3.831   3.422   5.933
73427SOL    HW222179   3.932   3.324   5.989
73428SOL     OW22180  11.446   6.290   1.107
73428SOL    HW122181  11.520   6.269   1.163
73428SOL    HW222182  11.397   6.356   1.156
73429SOL     OW22183   7.407  13.509   6.732
73429SOL    HW122184   7.480  13.457   6.699
73429SOL    HW222185   7.417  13.594   6.690
73430SOL     OW22186   9.191   2.003   7.254
73430SOL    HW122187   9.116   2.063   7.255
73430SOL    HW222188   9.250   2.040   7.189
73431SOL     OW22189  11.548   6.195   3.060
73431SOL    HW122190  11.452   6.200   3.057
73431SOL    HW222191  11.577   6.263   3.000
73432SOL     OW22192  10.207   0.453  14.443
73432SOL    HW122193  10.245   0.407  14.518
73432SOL    HW222194  10.145   0.515  14.483
73433SOL     OW22195   5.901   2.632   8.488
73433SOL    HW122196   5.853   2.668   8.413
73433SOL    HW222197   5.951   2.705   8.522
73434SOL     OW22198  12.535   2.395  13.142
73434SOL    HW122199  12.460   2.416  13.197
73434SOL    HW222200  12.505   2.322  13.087
73435SOL     OW22201   6.418  10.492   5.773
73435SOL    HW122202   6.323  10.482   5.764
73435SOL    HW222203   6.437  10.576   5.733
73436SOL     OW22204   9.705   3.228   7.984
73436SOL    HW122205   9.659   3.243   7.901
73436SOL    HW222206   9.672   3.144   8.015
73437SOL     OW22207  13.222  10.232  10.304
73437SOL    HW122208  13.179  10.204  10.224
73437SOL    HW222209  13.275  10.157  10.330
73438SOL     OW22210   9.180   0.037   0.417
73438SOL    HW122211   9.243   0.107   0.434
73438SOL    HW222212   9.209  14.869   0.335
73439SOL     OW22213   9.352  14.848  10.058
73439SOL    HW122214   9.259  14.841  10.039
73439SOL    HW222215   9.358  14.837  10.153
73440SOL     OW22216  14.542  14.712  12.823
73440SOL    HW122217  14.463  14.693  12.874
73440SOL    HW222218  14.613  14.708  12.887
73441SOL     OW22219   6.370   3.305   9.475
73441SOL    HW122220   6.401   3.356   9.400
73441SOL    HW222221   6.293   3.257   9.442
73442SOL     OW22222   4.651  14.186   2.383
73442SOL    HW122223   4.598  14.203   2.305
73442SOL    HW222224   4.612  14.242   2.451
73443SOL     OW22225  12.205  11.376  14.129
73443SOL    HW122226  12.234  11.329  14.051
73443SOL    HW222227  12.140  11.438  14.097
73444SOL     OW22228   0.181   9.541   7.663
73444SOL    HW122229   0.253   9.580   7.613
73444SOL    HW222230   0.203   9.448   7.668
73445SOL     OW22231   4.742  12.870   0.432
73445SOL    HW122232   4.810  12.937   0.437
73445SOL    HW222233   4.665  12.910   0.473
73446SOL     OW22234   4.135  10.107   9.365
73446SOL    HW122235   4.081  10.163   9.421
73446SOL    HW222236   4.164  10.037   9.423
73447SOL     OW22237  14.860  10.853   7.100
73447SOL    HW122238  14.833  10.764   7.125
73447SOL    HW222239  14.818  10.910   7.165
73448SOL     OW22240   2.844  14.697   8.041
73448SOL    HW122241   2.769  14.637   8.044
73448SOL    HW222242   2.812  14.772   7.990
73449SOL     OW22243  14.693   8.564   5.159
73449SOL    HW122244  14.623   8.578   5.096
73449SOL    HW222245  14.695   8.469   5.173
73450SOL     OW22246   9.466   0.057  13.453
73450SOL    HW122247   9.459   0.101  13.537
73450SOL    HW222248   9.500   0.123  13.393
73451SOL     OW22249   7.648   4.263   3.932
73451SOL    HW122250   7.655   4.356   3.952
73451SOL    HW222251   7.705   4.250   3.856
73452SOL     OW22252   1.529  12.178  10.526
73452SOL    HW122253   1.466  12.176  10.454
73452SOL    HW222254   1.515  12.264  10.567
73453SOL     OW22255   8.422   6.688   8.567
73453SOL    HW122256   8.397   6.596   8.577
73453SOL    HW222257   8.485   6.689   8.495
73454SOL     OW22258   8.691   3.501   4.038
73454SOL    HW122259   8.600   3.486   4.065
73454SOL    HW222260   8.685   3.556   3.961
73455SOL     OW22261  14.516  12.156   1.682
73455SOL    HW122262  14.469  12.230   1.643
73455SOL    HW222263  14.477  12.078   1.643
73456SOL     OW22264  12.313   9.792   5.906
73456SOL    HW122265  12.319   9.712   5.854
73456SOL    HW222266  12.403   9.826   5.909
73457SOL     OW22267   5.638   8.986   3.364
73457SOL    HW122268   5.562   8.928   3.376
73457SOL    HW222269   5.635   9.044   3.440
73458SOL     OW22270   0.144  14.396   0.310
73458SOL    HW122271   0.193  14.328   0.357
73458SOL    HW222272   0.148  14.369   0.218
73459SOL     OW22273   4.965   7.231   9.167
73459SOL    HW122274   4.951   7.291   9.094
73459SOL    HW222275   4.939   7.282   9.244
73460SOL     OW22276  12.711   7.353   1.174
73460SOL    HW122277  12.650   7.319   1.238
73460SOL    HW222278  12.715   7.285   1.106
73461SOL     OW22279   4.739   0.401   5.661
73461SOL    HW122280   4.783   0.320   5.686
73461SOL    HW222281   4.648   0.376   5.647
73462SOL     OW22282  11.589  10.979   5.868
73462SOL    HW122283  11.573  11.072   5.849
73462SOL    HW222284  11.546  10.932   5.796
73463SOL     OW22285  11.483   0.400  12.647
73463SOL    HW122286  11.450   0.438  12.729
73463SOL    HW222287  11.543   0.331  12.674
73464SOL     OW22288   9.644   9.767   1.906
73464SOL    HW122289   9.566   9.722   1.937
73464SOL    HW222290   9.691   9.793   1.985
73465SOL     OW22291  12.859   7.957   0.116
73465SOL    HW122292  12.892   7.889   0.057
73465SOL    HW222293  12.906   8.036   0.090
73466SOL     OW22294  12.750   4.777   9.506
73466SOL    HW122295  12.833   4.782   9.553
73466SOL    HW222296  12.690   4.833   9.555
73467SOL     OW22297   5.465   0.400  10.127
73467SOL    HW122298   5.464   0.388  10.222
73467SOL    HW222299   5.518   0.479  10.114
73468SOL     OW22300   2.842   8.146   4.957
73468SOL    HW122301   2.894   8.106   4.887
73468SOL    HW222302   2.835   8.077   5.023
73469SOL     OW22303   0.115   0.643  11.599
73469SOL    HW122304   0.167   0.597  11.665
73469SOL    HW222305   0.159   0.624  11.517
73470SOL     OW22306   1.819   7.644   4.239
73470SOL    HW122307   1.855   7.630   4.151
73470SOL    HW222308   1.724   7.646   4.226
73471SOL     OW22309   7.723   5.617   7.117
73471SOL    HW122310   7.688   5.534   7.087
73471SOL    HW222311   7.764   5.656   7.040
73472SOL     OW22312  14.750   0.381  10.046
73472SOL    HW122313  14.658   0.356  10.050
73472SOL    HW222314  14.753   0.450   9.979
73473SOL     OW22315   9.864   2.912   6.342
73473SOL    HW122316   9.807   2.924   6.418
73473SOL    HW222317   9.861   2.818   6.324
73474SOL     OW22318   6.078   1.192  10.122
73474SOL    HW122319   6.031   1.145  10.190
73474SOL    HW222320   6.132   1.256  10.169
73475SOL     OW22321  14.561   8.573   9.481
73475SOL    HW122322  14.468   8.550   9.489
73475SOL    HW222323  14.597   8.507   9.422
73476SOL     OW22324   9.425   1.740   9.727
73476SOL    HW122325   9.423   1.791   9.646
73476SOL    HW222326   9.358   1.673   9.714
73477SOL     OW22327  13.241  13.664  12.200
73477SOL    HW122328  13.312  13.625  12.252
73477SOL    HW222329  13.163  13.614  12.225
73478SOL     OW22330   5.078  14.077  14.190
73478SOL    HW122331   5.045  14.111  14.273
73478SOL    HW222332   5.169  14.055  14.208
73479SOL     OW22333   4.212  10.966   7.292
73479SOL    HW122334   4.180  10.903   7.228
73479SOL    HW222335   4.137  11.024   7.308
73480SOL     OW22336   1.926   1.495   9.709
73480SOL    HW122337   1.882   1.447   9.779
73480SOL    HW222338   1.984   1.556   9.755
73481SOL     OW22339  11.311   8.075   3.190
73481SOL    HW122340  11.324   7.988   3.154
73481SOL    HW222341  11.303   8.132   3.114
73482SOL     OW22342  12.372  13.182   3.630
73482SOL    HW122343  12.375  13.240   3.554
73482SOL    HW222344  12.453  13.201   3.678
73483SOL     OW22345   9.865   8.971   4.987
73483SOL    HW122346   9.841   8.925   4.907
73483SOL    HW222347   9.932   8.916   5.027
73484SOL     OW22348   6.060   5.104  11.848
73484SOL    HW122349   6.122   5.174  11.827
73484SOL    HW222350   6.067   5.042  11.775
73485SOL     OW22351   0.436   1.555  11.934
73485SOL    HW122352   0.479   1.629  11.977
73485SOL    HW222353   0.481   1.546  11.850
73486SOL     OW22354  12.453   1.140   2.216
73486SOL    HW122355  12.404   1.206   2.168
73486SOL    HW222356  12.461   1.066   2.156
73487SOL     OW22357  10.662  14.556   0.979
73487SOL    HW122358  10.688  14.642   1.013
73487SOL    HW222359  10.603  14.521   1.045
73488SOL     OW22360   4.393   1.372   6.283
73488SOL    HW122361   4.330   1.334   6.344
73488SOL    HW222362   4.478   1.340   6.314
73489SOL     OW22363   1.600  10.270  10.423
73489SOL    HW122364   1.694  10.254  10.435
73489SOL    HW222365   1.596  10.341  10.359
73490SOL     OW22366  13.787  10.091   2.069
73490SOL    HW122367  13.829  10.168   2.108
73490SOL    HW222368  13.811  10.095   1.977
73491SOL     OW22369   9.351   1.682   1.817
73491SOL    HW122370   9.309   1.596   1.818
73491SOL    HW222371   9.286   1.741   1.854
73492SOL     OW22372  12.166   1.238   5.872
73492SOL    HW122373  12.223   1.291   5.817
73492SOL    HW222374  12.092   1.214   5.816
73493SOL     OW22375  12.669   1.551   5.411
73493SOL    HW122376  12.637   1.475   5.363
73493SOL    HW222377  12.760   1.530   5.432
73494SOL     OW22378  12.903  12.661   3.688
73494SOL    HW122379  12.917  12.570   3.659
73494SOL    HW222380  12.811  12.678   3.668
73495SOL     OW22381  10.505   4.255  14.016
73495SOL    HW122382  10.572   4.268  13.949
73495SOL    HW222383  10.536   4.305  14.091
73496SOL     OW22384   6.142   2.481  14.530
73496SOL    HW122385   6.111   2.393  14.550
73496SOL    HW222386   6.232   2.483  14.563
73497SOL     OW22387   8.022  14.762  10.836
73497SOL    HW122388   8.018  14.711  10.917
73497SOL    HW222389   8.001  14.700  10.767
73498SOL     OW22390  10.920  14.195  11.476
73498SOL    HW122391  10.960  14.281  11.480
73498SOL    HW222392  10.956  14.156  11.396
73499SOL     OW22393  12.912  10.603   3.099
73499SOL    HW122394  12.927  10.681   3.153
73499SOL    HW222395  12.999  10.580   3.066
73500SOL     OW22396   8.456   3.697   0.443
73500SOL    HW122397   8.378   3.729   0.397
73500SOL    HW222398   8.441   3.723   0.534
73501SOL     OW22399   2.572  14.299   4.090
73501SOL    HW122400   2.540  14.367   4.031
73501SOL    HW222401   2.495  14.273   4.140
73502SOL     OW22402   8.321  10.605   7.929
73502SOL    HW122403   8.325  10.514   7.958
73502SOL    HW222404   8.347  10.602   7.837
73503SOL     OW22405   4.528   4.180  10.432
73503SOL    HW122406   4.598   4.120  10.459
73503SOL    HW222407   4.513   4.158  10.340
73504SOL     OW22408  13.569   3.773   1.051
73504SOL    HW122409  13.551   3.728   0.969
73504SOL    HW222410  13.611   3.707   1.106
73505SOL     OW22411   6.642   2.818   6.766
73505SOL    HW122412   6.592   2.803   6.686
73505SOL    HW222413   6.695   2.740   6.776
73506SOL     OW22414   2.486   8.688   3.598
73506SOL    HW122415   2.523   8.755   3.656
73506SOL    HW222416   2.415   8.732   3.553
73507SOL     OW22417  14.521   9.848  11.596
73507SOL    HW122418  14.579   9.772  11.603
73507SOL    HW222419  14.562   9.915  11.651
73508SOL     OW22420  12.129   8.502   4.000
73508SOL    HW122421  12.187   8.568   3.961
73508SOL    HW222422  12.045   8.515   3.956
73509SOL     OW22423  11.785   4.423   4.303
73509SOL    HW122424  11.869   4.447   4.264
73509SOL    HW222425  11.731   4.502   4.294
73510SOL     OW22426   4.774   3.827  11.241
73510SOL    HW122427   4.756   3.912  11.282
73510SOL    HW222428   4.732   3.763  11.298
73511SOL     OW22429   6.521   8.282  12.937
73511SOL    HW122430   6.521   8.342  12.863
73511SOL    HW222431   6.614   8.272  12.959
73512SOL     OW22432   8.135   0.504   8.541
73512SOL    HW122433   8.211   0.517   8.485
73512SOL    HW222434   8.146   0.416   8.577
73513SOL     OW22435   8.891   1.721  11.910
73513SOL    HW122436   8.962   1.658  11.923
73513SOL    HW222437   8.901   1.751  11.820
73514SOL     OW22438  12.596  13.151  10.532
73514SOL    HW122439  12.665  13.203  10.574
73514SOL    HW222440  12.585  13.193  10.446
73515SOL     OW22441   1.752   5.768  13.672
73515SOL    HW122442   1.779   5.704  13.737
73515SOL    HW222443   1.677   5.728  13.627
73516SOL     OW22444   9.863  14.462   6.215
73516SOL    HW122445   9.813  14.432   6.291
73516SOL    HW222446   9.925  14.526   6.252
73517SOL     OW22447   4.569  11.479   5.670
73517SOL    HW122448   4.543  11.416   5.737
73517SOL    HW222449   4.532  11.445   5.589
73518SOL     OW22450   7.170   8.560   1.106
73518SOL    HW122451   7.235   8.509   1.058
73518SOL    HW222452   7.210   8.645   1.120
73519SOL     OW22453   8.584   4.321  13.057
73519SOL    HW122454   8.558   4.404  13.097
73519SOL    HW222455   8.648   4.345  12.990
73520SOL     OW22456   5.957   5.362  10.698
73520SOL    HW122457   5.989   5.374  10.608
73520SOL    HW222458   6.035   5.376  10.753
73521SOL     OW22459   1.098  13.245  14.658
73521SOL    HW122460   1.175  13.293  14.687
73521SOL    HW222461   1.074  13.191  14.734
73522SOL     OW22462  10.459   0.624  10.307
73522SOL    HW122463  10.515   0.560  10.350
73522SOL    HW222464  10.406   0.572  10.245
73523SOL     OW22465  11.875   7.765   9.967
73523SOL    HW122466  11.955   7.714   9.979
73523SOL    HW222467  11.805   7.709  10.000
73524SOL     OW22468   8.573  12.490   3.891
73524SOL    HW122469   8.483  12.484   3.924
73524SOL    HW222470   8.571  12.446   3.806
73525SOL     OW22471   4.019  13.618  11.742
73525SOL    HW122472   4.038  13.539  11.792
73525SOL    HW222473   3.933  13.646  11.772
73526SOL     OW22474   2.568  12.566  13.187
73526SOL    HW122475   2.599  12.482  13.219
73526SOL    HW222476   2.618  12.581  13.107
73527SOL     OW22477   8.294   0.185   2.803
73527SOL    HW122478   8.387   0.207   2.799
73527SOL    HW222479   8.286   0.130   2.882
73528SOL     OW22480  10.003   8.689   7.576
73528SOL    HW122481   9.944   8.746   7.527
73528SOL    HW222482  10.012   8.611   7.521
73529SOL     OW22483   9.153   9.509   6.358
73529SOL    HW122484   9.191   9.554   6.433
73529SOL    HW222485   9.141   9.577   6.292
73530SOL     OW22486  10.190   9.672   1.203
73530SOL    HW122487  10.171   9.735   1.133
73530SOL    HW222488  10.285   9.675   1.213
73531SOL     OW22489   0.858  11.219   6.792
73531SOL    HW122490   0.935  11.179   6.752
73531SOL    HW222491   0.862  11.191   6.883
73532SOL     OW22492   6.161   9.814   1.714
73532SOL    HW122493   6.173   9.848   1.803
73532SOL    HW222494   6.071   9.837   1.691
73533SOL     OW22495   5.726   8.670   7.014
73533SOL    HW122496   5.767   8.599   6.964
73533SOL    HW222497   5.760   8.659   7.103
73534SOL     OW22498   3.519   5.662   9.788
73534SOL    HW122499   3.470   5.636   9.866
73534SOL    HW222500   3.459   5.719   9.740
73535SOL     OW22501   0.676   4.549   8.508
73535SOL    HW122502   0.703   4.547   8.416
73535SOL    HW222503   0.582   4.567   8.505
73536SOL     OW22504   6.128   7.758  11.813
73536SOL    HW122505   6.150   7.704  11.888
73536SOL    HW222506   6.093   7.838  11.851
73537SOL     OW22507   2.696   1.428   0.928
73537SOL    HW122508   2.730   1.496   0.988
73537SOL    HW222509   2.606   1.455   0.909
73538SOL     OW22510   4.506  13.305  10.019
73538SOL    HW122511   4.561  13.234  10.052
73538SOL    HW222512   4.474  13.274   9.935
73539SOL     OW22513  10.490   9.969  14.048
73539SOL    HW122514  10.476   9.942  14.139
73539SOL    HW222515  10.584   9.987  14.042
73540SOL     OW22516  14.092  13.809  10.646
73540SOL    HW122517  14.097  13.792  10.552
73540SOL    HW222518  14.079  13.722  10.685
73541SOL     OW22519   4.817  13.622  14.436
73541SOL    HW122520   4.823  13.701  14.382
73541SOL    HW222521   4.738  13.578  14.406
73542SOL     OW22522   8.162   2.585  12.675
73542SOL    HW122523   8.081   2.558  12.717
73542SOL    HW222524   8.162   2.681  12.681
73543SOL     OW22525  10.370   8.836   2.455
73543SOL    HW122526  10.367   8.757   2.401
73543SOL    HW222527  10.463   8.857   2.461
73544SOL     OW22528  13.112  14.112   5.918
73544SOL    HW122529  13.206  14.112   5.899
73544SOL    HW222530  13.107  14.107   6.013
73545SOL     OW22531   0.264   3.568  11.787
73545SOL    HW122532   0.236   3.591  11.698
73545SOL    HW222533   0.184   3.576  11.840
73546SOL     OW22534   9.449   1.778  12.150
73546SOL    HW122535   9.529   1.813  12.190
73546SOL    HW222536   9.432   1.697  12.198
73547SOL     OW22537   0.317   2.462  13.504
73547SOL    HW122538   0.317   2.367  13.515
73547SOL    HW222539   0.380   2.478  13.434
73548SOL     OW22540   4.637  13.707  13.151
73548SOL    HW122541   4.730  13.702  13.127
73548SOL    HW222542   4.637  13.702  13.246
73549SOL     OW22543   4.482   3.760   4.484
73549SOL    HW122544   4.520   3.707   4.414
73549SOL    HW222545   4.551   3.766   4.550
73550SOL     OW22546   2.182   0.667   1.994
73550SOL    HW122547   2.179   0.762   2.009
73550SOL    HW222548   2.124   0.653   1.919
73551SOL     OW22549  13.857  11.864  11.564
73551SOL    HW122550  13.814  11.823  11.640
73551SOL    HW222551  13.784  11.893  11.509
73552SOL     OW22552   2.984   5.364   4.652
73552SOL    HW122553   3.007   5.419   4.727
73552SOL    HW222554   2.966   5.278   4.689
73553SOL     OW22555  12.549  14.055   6.179
73553SOL    HW122556  12.573  13.995   6.109
73553SOL    HW222557  12.453  14.054   6.180
73554SOL     OW22558   4.215   0.378   4.153
73554SOL    HW122559   4.273   0.378   4.228
73554SOL    HW222560   4.140   0.324   4.180
73555SOL     OW22561  11.978   5.443   3.550
73555SOL    HW122562  11.918   5.457   3.622
73555SOL    HW222563  12.065   5.458   3.587
73556SOL     OW22564   2.287  12.384   8.035
73556SOL    HW122565   2.363  12.419   8.083
73556SOL    HW222566   2.272  12.299   8.075
73557SOL     OW22567   1.090  12.522   0.090
73557SOL    HW122568   1.067  12.615   0.092
73557SOL    HW222569   1.068  12.490   0.177
73558SOL     OW22570  14.346   8.513   8.694
73558SOL    HW122571  14.322   8.483   8.781
73558SOL    HW222572  14.280   8.476   8.636
73559SOL     OW22573  12.590   3.526  14.432
73559SOL    HW122574  12.666   3.525  14.490
73559SOL    HW222575  12.559   3.617  14.434
73560SOL     OW22576   5.807   9.634  10.506
73560SOL    HW122577   5.823   9.672  10.593
73560SOL    HW222578   5.857   9.552  10.506
73561SOL     OW22579   4.184   7.859   9.729
73561SOL    HW122580   4.273   7.838   9.699
73561SOL    HW222581   4.129   7.846   9.652
73562SOL     OW22582   7.771   3.846   4.194
73562SOL    HW122583   7.753   3.754   4.176
73562SOL    HW222584   7.750   3.891   4.112
73563SOL     OW22585   6.044  12.860   8.018
73563SOL    HW122586   6.082  12.867   8.105
73563SOL    HW222587   6.011  12.770   8.014
73564SOL     OW22588  13.092   6.715   7.048
73564SOL    HW122589  13.139   6.722   7.131
73564SOL    HW222590  13.145   6.765   6.986
73565SOL     OW22591   4.267  11.324  14.620
73565SOL    HW122592   4.205  11.326  14.693
73565SOL    HW222593   4.235  11.390  14.559
73566SOL     OW22594  10.015   2.633   4.739
73566SOL    HW122595  10.078   2.565   4.716
73566SOL    HW222596   9.934   2.607   4.695
73567SOL     OW22597   8.087   2.798  11.877
73567SOL    HW122598   8.069   2.704  11.888
73567SOL    HW222599   8.159   2.801  11.814
73568SOL     OW22600   3.884   7.944   3.734
73568SOL    HW122601   3.796   7.917   3.708
73568SOL    HW222602   3.876   8.037   3.756
73569SOL     OW22603   4.366  10.040   9.697
73569SOL    HW122604   4.425  10.093   9.751
73569SOL    HW222605   4.342  10.097   9.624
73570SOL     OW22606  12.683   8.580  13.493
73570SOL    HW122607  12.654   8.643  13.559
73570SOL    HW222608  12.702   8.500  13.543
73571SOL     OW22609   8.550   6.970   7.067
73571SOL    HW122610   8.618   6.944   7.129
73571SOL    HW222611   8.559   6.909   6.994
73572SOL     OW22612   7.448  10.695  10.461
73572SOL    HW122613   7.447  10.622  10.399
73572SOL    HW222614   7.532  10.739  10.445
73573SOL     OW22615  12.157  14.483  14.184
73573SOL    HW122616  12.136  14.525  14.100
73573SOL    HW222617  12.230  14.535  14.219
73574SOL     OW22618   4.354   1.022  14.690
73574SOL    HW122619   4.371   0.981  14.775
73574SOL    HW222620   4.396   0.965  14.626
73575SOL     OW22621  11.624   4.186  11.962
73575SOL    HW122622  11.665   4.183  12.048
73575SOL    HW222623  11.543   4.234  11.975
73576SOL     OW22624   1.833  14.415   2.484
73576SOL    HW122625   1.874  14.418   2.571
73576SOL    HW222626   1.781  14.334   2.485
73577SOL     OW22627   1.581   8.668  11.492
73577SOL    HW122628   1.524   8.634  11.423
73577SOL    HW222629   1.669   8.656  11.457
73578SOL     OW22630   4.552   5.824  11.086
73578SOL    HW122631   4.539   5.763  11.014
73578SOL    HW222632   4.517   5.907  11.054
73579SOL     OW22633   3.870  10.419   6.043
73579SOL    HW122634   3.809  10.360   5.998
73579SOL    HW222635   3.914  10.466   5.972
73580SOL     OW22636   1.208  13.429   5.414
73580SOL    HW122637   1.134  13.449   5.471
73580SOL    HW222638   1.285  13.452   5.466
73581SOL     OW22639  13.717  13.879  10.774
73581SOL    HW122640  13.644  13.941  10.778
73581SOL    HW222641  13.741  13.878  10.681
73582SOL     OW22642   8.139   3.375   9.886
73582SOL    HW122643   8.207   3.351   9.823
73582SOL    HW222644   8.072   3.308   9.876
73583SOL     OW22645  13.995  12.033  11.339
73583SOL    HW122646  14.076  11.983  11.327
73583SOL    HW222647  13.972  12.019  11.431
73584SOL     OW22648   8.413  13.056   8.848
73584SOL    HW122649   8.440  12.972   8.809
73584SOL    HW222650   8.462  13.122   8.798
73585SOL     OW22651   9.985   1.310   3.206
73585SOL    HW122652   9.975   1.348   3.119
73585SOL    HW222653  10.003   1.384   3.264
73586SOL     OW22654   8.726   3.101   3.091
73586SOL    HW122655   8.667   3.089   3.016
73586SOL    HW222656   8.768   3.016   3.102
73587SOL     OW22657  13.314  12.186   5.214
73587SOL    HW122658  13.285  12.275   5.193
73587SOL    HW222659  13.375  12.197   5.286
73588SOL     OW22660   2.823   9.512   9.187
73588SOL    HW122661   2.757   9.574   9.219
73588SOL    HW222662   2.856   9.553   9.107
73589SOL     OW22663   2.650   9.829   7.888
73589SOL    HW122664   2.685   9.754   7.841
73589SOL    HW222665   2.673   9.905   7.835
73590SOL     OW22666   6.284   2.953   4.907
73590SOL    HW122667   6.361   2.996   4.944
73590SOL    HW222668   6.215   3.019   4.916
73591SOL     OW22669   4.190   0.534   2.942
73591SOL    HW122670   4.134   0.467   2.903
73591SOL    HW222671   4.130   0.587   2.996
73592SOL     OW22672   5.869  10.084   3.871
73592SOL    HW122673   5.800  10.082   3.806
73592SOL    HW222674   5.837  10.142   3.939
73593SOL     OW22675  12.585  14.111  13.974
73593SOL    HW122676  12.635  14.100  13.893
73593SOL    HW222677  12.649  14.143  14.038
73594SOL     OW22678  12.244   0.521   1.140
73594SOL    HW122679  12.251   0.431   1.109
73594SOL    HW222680  12.150   0.538   1.144
73595SOL     OW22681  14.298   5.696   1.029
73595SOL    HW122682  14.365   5.764   1.031
73595SOL    HW222683  14.254   5.707   0.945
73596SOL     OW22684   1.621   7.589  11.876
73596SOL    HW122685   1.627   7.542  11.958
73596SOL    HW222686   1.534   7.628  11.876
73597SOL     OW22687   3.801   3.845  11.912
73597SOL    HW122688   3.811   3.757  11.876
73597SOL    HW222689   3.716   3.844  11.956
73598SOL     OW22690  14.455   3.968   4.529
73598SOL    HW122691  14.546   3.954   4.556
73598SOL    HW222692  14.459   4.041   4.468
73599SOL     OW22693   3.737   5.988  11.760
73599SOL    HW122694   3.808   5.950  11.709
73599SOL    HW222695   3.762   5.973  11.852
73600SOL     OW22696  10.079   2.156   6.089
73600SOL    HW122697  10.102   2.064   6.072
73600SOL    HW222698   9.996   2.151   6.136
73601SOL     OW22699   2.228   0.214  13.255
73601SOL    HW122700   2.323   0.226  13.264
73601SOL    HW222701   2.220   0.133  13.204
73602SOL     OW22702  10.075   9.944   5.792
73602SOL    HW122703  10.020  10.019   5.816
73602SOL    HW222704  10.164   9.976   5.803
73603SOL     OW22705   5.958   0.695   9.133
73603SOL    HW122706   5.951   0.601   9.145
73603SOL    HW222707   5.951   0.708   9.038
73604SOL     OW22708  11.253   5.268   2.318
73604SOL    HW122709  11.322   5.296   2.377
73604SOL    HW222710  11.290   5.191   2.274
73605SOL     OW22711   4.464  14.417  11.452
73605SOL    HW122712   4.479  14.506  11.484
73605SOL    HW222713   4.529  14.364  11.498
73606SOL     OW22714  11.056  13.154  14.444
73606SOL    HW122715  11.001  13.134  14.520
73606SOL    HW222716  11.134  13.099  14.457
73607SOL     OW22717  11.160   3.656   3.868
73607SOL    HW122718  11.156   3.704   3.785
73607SOL    HW222719  11.105   3.579   3.854
73608SOL     OW22720   6.525   9.418   8.050
73608SOL    HW122721   6.585   9.357   8.093
73608SOL    HW222722   6.537   9.403   7.957
73609SOL     OW22723  11.317  13.351   0.352
73609SOL    HW122724  11.295  13.429   0.301
73609SOL    HW222725  11.410  13.335   0.333
73610SOL     OW22726   1.897   9.276  13.512
73610SOL    HW122727   1.854   9.191  13.512
73610SOL    HW222728   1.971   9.265  13.572
73611SOL     OW22729  12.385   2.722  13.394
73611SOL    HW122730  12.382   2.793  13.329
73611SOL    HW222731  12.338   2.650  13.352
73612SOL     OW22732  10.610   0.605  11.944
73612SOL    HW122733  10.570   0.530  11.900
73612SOL    HW222734  10.554   0.679  11.919
73613SOL     OW22735   6.910   6.599  11.597
73613SOL    HW122736   6.864   6.632  11.520
73613SOL    HW222737   7.001   6.594  11.570
73614SOL     OW22738   9.174  13.773  10.239
73614SOL    HW122739   9.123  13.695  10.218
73614SOL    HW222740   9.254  13.764  10.188
73615SOL     OW22741  12.390   6.483  12.196
73615SOL    HW122742  12.441   6.402  12.194
73615SOL    HW222743  12.376   6.500  12.289
73616SOL     OW22744   4.469   9.688   2.198
73616SOL    HW122745   4.515   9.670   2.116
73616SOL    HW222746   4.411   9.613   2.210
73617SOL     OW22747   6.996  14.186  10.137
73617SOL    HW122748   6.945  14.113  10.102
73617SOL    HW222749   6.932  14.240  10.184
73618SOL     OW22750   7.394   3.816  12.444
73618SOL    HW122751   7.425   3.895  12.488
73618SOL    HW222752   7.448   3.810  12.365
73619SOL     OW22753   3.409  14.497  11.836
73619SOL    HW122754   3.315  14.510  11.845
73619SOL    HW222755   3.425  14.503  11.742
73620SOL     OW22756  14.814   1.164   1.733
73620SOL    HW122757  14.817   1.087   1.790
73620SOL    HW222758  14.847   1.235   1.788
73621SOL     OW22759   6.835   0.410   9.926
73621SOL    HW122760   6.769   0.378   9.986
73621SOL    HW222761   6.828   0.506   9.930
73622SOL     OW22762   2.054  10.719   4.396
73622SOL    HW122763   2.054  10.625   4.413
73622SOL    HW222764   2.049  10.759   4.483
73623SOL     OW22765   4.480   4.180   7.996
73623SOL    HW122766   4.452   4.182   8.088
73623SOL    HW222767   4.401   4.198   7.946
73624SOL     OW22768   2.579   6.347  13.063
73624SOL    HW122769   2.673   6.338  13.053
73624SOL    HW222770   2.569   6.405  13.139
73625SOL     OW22771   3.948   7.324   1.628
73625SOL    HW122772   3.862   7.296   1.660
73625SOL    HW222773   4.008   7.304   1.699
73626SOL     OW22774   4.167   1.228   5.515
73626SOL    HW122775   4.244   1.219   5.571
73626SOL    HW222776   4.100   1.173   5.556
73627SOL     OW22777   0.059   3.724   6.228
73627SOL    HW122778  14.841   3.760   6.223
73627SOL    HW222779   0.115   3.801   6.220
73628SOL     OW22780   2.671   2.187   6.261
73628SOL    HW122781   2.682   2.100   6.223
73628SOL    HW222782   2.665   2.245   6.185
73629SOL     OW22783   4.865  10.055  10.988
73629SOL    HW122784   4.850   9.973  11.034
73629SOL    HW222785   4.799  10.057  10.919
73630SOL     OW22786  13.306  12.206  14.141
73630SOL    HW122787  13.350  12.288  14.163
73630SOL    HW222788  13.238  12.231  14.079
73631SOL     OW22789  13.179  10.886   9.222
73631SOL    HW122790  13.207  10.978   9.223
73631SOL    HW222791  13.239  10.844   9.162
73632SOL     OW22792   2.302  12.356   2.392
73632SOL    HW122793   2.356  12.396   2.460
73632SOL    HW222794   2.212  12.372   2.422
73633SOL     OW22795  12.224   4.808   9.989
73633SOL    HW122796  12.143   4.846   9.955
73633SOL    HW222797  12.254   4.748   9.921
73634SOL     OW22798  10.314  10.904   1.134
73634SOL    HW122799  10.266  10.835   1.179
73634SOL    HW222800  10.347  10.960   1.205
73635SOL     OW22801  12.803   7.468   4.318
73635SOL    HW122802  12.762   7.550   4.291
73635SOL    HW222803  12.895   7.490   4.332
73636SOL     OW22804  14.833  10.386   5.723
73636SOL    HW122805   0.043  10.426   5.692
73636SOL    HW222806  14.786  10.457   5.767
73637SOL     OW22807  11.440   7.055  10.088
73637SOL    HW122808  11.527   7.021  10.110
73637SOL    HW222809  11.456   7.144  10.059
73638SOL     OW22810   9.569   6.517   3.671
73638SOL    HW122811   9.655   6.507   3.712
73638SOL    HW222812   9.587   6.513   3.577
73639SOL     OW22813  11.082  11.816   0.043
73639SOL    HW122814  10.987  11.823   0.032
73639SOL    HW222815  11.113  11.907   0.041
73640SOL     OW22816   8.561   3.295   9.647
73640SOL    HW122817   8.614   3.355   9.594
73640SOL    HW222818   8.623   3.259   9.711
73641SOL     OW22819   6.711   2.030   9.596
73641SOL    HW122820   6.678   1.963   9.537
73641SOL    HW222821   6.793   2.060   9.556
73642SOL     OW22822   5.986   1.399   0.291
73642SOL    HW122823   6.069   1.413   0.246
73642SOL    HW222824   6.000   1.431   0.380
73643SOL     OW22825  11.220   1.373  14.494
73643SOL    HW122826  11.242   1.463  14.468
73643SOL    HW222827  11.210   1.378  14.589
73644SOL     OW22828   6.118   1.369   8.566
73644SOL    HW122829   6.023   1.359   8.566
73644SOL    HW222830   6.148   1.313   8.638
73645SOL     OW22831   1.805   7.555  12.379
73645SOL    HW122832   1.737   7.523  12.438
73645SOL    HW222833   1.871   7.593  12.436
73646SOL     OW22834   0.811   9.588  13.266
73646SOL    HW122835   0.769   9.503  13.255
73646SOL    HW222836   0.905   9.567  13.272
73647SOL     OW22837   1.408  10.329   4.631
73647SOL    HW122838   1.375  10.289   4.551
73647SOL    HW222839   1.499  10.298   4.638
73648SOL     OW22840   1.390   6.060   8.677
73648SOL    HW122841   1.406   5.970   8.702
73648SOL    HW222842   1.295   6.066   8.667
73649SOL     OW22843   4.325  11.932   7.104
73649SOL    HW122844   4.361  11.868   7.042
73649SOL    HW222845   4.241  11.894   7.131
73650SOL     OW22846  13.890   2.335  13.376
73650SOL    HW122847  13.929   2.381  13.301
73650SOL    HW222848  13.823   2.279  13.337
73651SOL     OW22849   9.405   6.891   1.214
73651SOL    HW122850   9.447   6.953   1.274
73651SOL    HW222851   9.442   6.912   1.128
73652SOL     OW22852   1.070   7.510  12.958
73652SOL    HW122853   1.123   7.508  12.878
73652SOL    HW222854   1.100   7.434  13.009
73653SOL     OW22855  11.702  13.838   2.002
73653SOL    HW122856  11.660  13.888   2.072
73653SOL    HW222857  11.796  13.850   2.016
73654SOL     OW22858   3.774   4.119   4.882
73654SOL    HW122859   3.866   4.100   4.866
73654SOL    HW222860   3.774   4.210   4.913
73655SOL     OW22861   1.874  14.232   7.902
73655SOL    HW122862   1.911  14.143   7.898
73655SOL    HW222863   1.842  14.248   7.813
73656SOL     OW22864   3.540  12.115   5.348
73656SOL    HW122865   3.629  12.116   5.312
73656SOL    HW222866   3.512  12.206   5.344
73657SOL     OW22867   9.149   6.947   6.837
73657SOL    HW122868   9.122   6.875   6.779
73657SOL    HW222869   9.184   7.013   6.778
73658SOL     OW22870  13.074   7.840   5.861
73658SOL    HW122871  13.013   7.767   5.848
73658SOL    HW222872  13.157   7.798   5.882
73659SOL     OW22873   1.139   4.203   4.305
73659SOL    HW122874   1.053   4.195   4.347
73659SOL    HW222875   1.158   4.115   4.273
73660SOL     OW22876   6.862  12.517   3.140
73660SOL    HW122877   6.870  12.544   3.232
73660SOL    HW222878   6.928  12.448   3.130
73661SOL     OW22879   8.499   6.341   2.969
73661SOL    HW122880   8.474   6.256   2.933
73661SOL    HW222881   8.582   6.325   3.012
73662SOL     OW22882   3.129  13.134   4.468
73662SOL    HW122883   3.086  13.199   4.523
73662SOL    HW222884   3.190  13.184   4.414
73663SOL     OW22885   7.983   7.355   1.756
73663SOL    HW122886   7.982   7.426   1.693
73663SOL    HW222887   7.891   7.343   1.781
73664SOL     OW22888   0.034   1.554   5.315
73664SOL    HW122889   0.030   1.608   5.394
73664SOL    HW222890  14.821   1.509   5.311
73665SOL     OW22891   9.551   6.706   1.793
73665SOL    HW122892   9.533   6.751   1.710
73665SOL    HW222893   9.646   6.714   1.803
73666SOL     OW22894   4.929   7.615   6.695
73666SOL    HW122895   4.901   7.604   6.604
73666SOL    HW222896   4.878   7.691   6.726
73667SOL     OW22897   5.485   2.368   4.538
73667SOL    HW122898   5.425   2.423   4.489
73667SOL    HW222899   5.552   2.343   4.474
73668SOL     OW22900  11.718   0.047  10.365
73668SOL    HW122901  11.799   0.020  10.410
73668SOL    HW222902  11.658  14.846  10.379
73669SOL     OW22903   9.730  14.637   7.093
73669SOL    HW122904   9.777  14.679   7.165
73669SOL    HW222905   9.738  14.698   7.020
73670SOL     OW22906  10.409  10.264   6.911
73670SOL    HW122907  10.464  10.242   6.986
73670SOL    HW222908  10.447  10.345   6.876
73671SOL     OW22909   6.053   9.995   6.894
73671SOL    HW122910   6.072   9.904   6.917
73671SOL    HW222911   6.139  10.037   6.889
73672SOL     OW22912   5.994  10.891   3.548
73672SOL    HW122913   5.923  10.954   3.533
73672SOL    HW222914   6.030  10.916   3.634
73673SOL     OW22915   1.305   4.047   1.733
73673SOL    HW122916   1.383   4.101   1.726
73673SOL    HW222917   1.334   3.968   1.780
73674SOL     OW22918  10.541   5.688   4.643
73674SOL    HW122919  10.610   5.682   4.577
73674SOL    HW222920  10.461   5.701   4.593
73675SOL     OW22921  12.578   3.985  10.689
73675SOL    HW122922  12.524   4.064  10.685
73675SOL    HW222923  12.576   3.959  10.781
73676SOL     OW22924   7.773   9.253   4.386
73676SOL    HW122925   7.755   9.312   4.312
73676SOL    HW222926   7.739   9.168   4.358
73677SOL     OW22927   5.427  10.155   3.151
73677SOL    HW122928   5.355  10.210   3.120
73677SOL    HW222929   5.481  10.139   3.074
73678SOL     OW22930   2.771  14.847   4.474
73678SOL    HW122931   2.711   0.042   4.442
73678SOL    HW222932   2.723  14.765   4.466
73679SOL     OW22933  12.165   8.666   7.174
73679SOL    HW122934  12.075   8.698   7.186
73679SOL    HW222935  12.155   8.570   7.168
73680SOL     OW22936   7.143  13.989  11.829
73680SOL    HW122937   7.213  14.036  11.875
73680SOL    HW222938   7.070  13.988  11.891
73681SOL     OW22939   8.879   5.914   8.644
73681SOL    HW122940   8.798   5.962   8.626
73681SOL    HW222941   8.894   5.927   8.738
73682SOL     OW22942   3.286  11.308   1.547
73682SOL    HW122943   3.246  11.233   1.503
73682SOL    HW222944   3.298  11.280   1.637
73683SOL     OW22945   8.603   3.474   2.070
73683SOL    HW122946   8.673   3.507   2.013
73683SOL    HW222947   8.600   3.380   2.053
73684SOL     OW22948   5.893  12.754  10.466
73684SOL    HW122949   5.877  12.660  10.473
73684SOL    HW222950   5.807  12.791  10.442
73685SOL     OW22951   9.299   1.793  13.524
73685SOL    HW122952   9.395   1.794  13.532
73685SOL    HW222953   9.269   1.775  13.613
73686SOL     OW22954   9.367  12.332  14.473
73686SOL    HW122955   9.450  12.344  14.519
73686SOL    HW222956   9.375  12.384  14.393
73687SOL     OW22957  10.768  10.558   2.912
73687SOL    HW122958  10.811  10.475   2.893
73687SOL    HW222959  10.679  10.548   2.877
73688SOL     OW22960  12.786   6.920   0.044
73688SOL    HW122961  12.854   6.910   0.111
73688SOL    HW222962  12.818   6.868  14.842
73689SOL     OW22963   5.283   7.600   0.897
73689SOL    HW122964   5.313   7.657   0.826
73689SOL    HW222965   5.200   7.638   0.925
73690SOL     OW22966   1.262  13.970   2.362
73690SOL    HW122967   1.203  14.013   2.300
73690SOL    HW222968   1.343  13.956   2.312
73691SOL     OW22969   4.819  10.222  13.667
73691SOL    HW122970   4.786  10.187  13.749
73691SOL    HW222971   4.780  10.166  13.599
73692SOL     OW22972  13.443  14.054  14.624
73692SOL    HW122973  13.451  13.959  14.620
73692SOL    HW222974  13.533  14.086  14.614
73693SOL     OW22975   1.390   9.349  10.156
73693SOL    HW122976   1.395   9.355  10.252
73693SOL    HW222977   1.456   9.412  10.125
73694SOL     OW22978  13.214   9.436   4.826
73694SOL    HW122979  13.290   9.415   4.879
73694SOL    HW222980  13.199   9.530   4.840
73695SOL     OW22981   8.772  14.867  12.732
73695SOL    HW122982   8.804  14.824  12.812
73695SOL    HW222983   8.845  14.863  12.671
73696SOL     OW22984   5.144   6.450  12.129
73696SOL    HW122985   5.140   6.545  12.141
73696SOL    HW222986   5.103   6.414  12.207
73697SOL     OW22987  12.526   3.380  10.005
73697SOL    HW122988  12.527   3.397  10.099
73697SOL    HW222989  12.440   3.410   9.975
73698SOL     OW22990   1.623   3.668   6.488
73698SOL    HW122991   1.646   3.587   6.532
73698SOL    HW222992   1.528   3.674   6.496
73699SOL     OW22993   5.781  10.953   5.535
73699SOL    HW122994   5.749  10.867   5.508
73699SOL    HW222995   5.747  11.013   5.467
73700SOL     OW22996   7.758   8.562   9.886
73700SOL    HW122997   7.695   8.521   9.826
73700SOL    HW222998   7.825   8.495   9.898
73701SOL     OW22999   2.803   3.953   5.552
73701SOL    HW123000   2.719   3.918   5.522
73701SOL    HW223001   2.851   3.877   5.584
73702SOL     OW23002  10.883  13.198   2.309
73702SOL    HW123003  10.829  13.130   2.349
73702SOL    HW223004  10.895  13.263   2.378
73703SOL     OW23005   5.198   3.794   9.072
73703SOL    HW123006   5.206   3.805   9.167
73703SOL    HW223007   5.239   3.709   9.055
73704SOL     OW23008   8.840   2.830   7.149
73704SOL    HW123009   8.887   2.807   7.229
73704SOL    HW223010   8.832   2.926   7.152
73705SOL     OW23011   5.926  12.235   0.353
73705SOL    HW123012   5.882  12.188   0.283
73705SOL    HW223013   5.925  12.174   0.427
73706SOL     OW23014  12.047   1.278  12.267
73706SOL    HW123015  12.010   1.362  12.238
73706SOL    HW223016  12.064   1.231  12.186
73707SOL     OW23017  11.284   6.464  13.845
73707SOL    HW123018  11.341   6.513  13.905
73707SOL    HW223019  11.337   6.389  13.818
73708SOL     OW23020  10.961   5.073   7.013
73708SOL    HW123021  11.013   4.995   7.034
73708SOL    HW223022  11.020   5.146   7.031
73709SOL     OW23023   0.168   9.663  12.244
73709SOL    HW123024   0.098   9.726  12.226
73709SOL    HW223025   0.137   9.581  12.205
73710SOL     OW23026   7.727  11.781   5.959
73710SOL    HW123027   7.790  11.754   6.026
73710SOL    HW223028   7.642  11.777   6.004
73711SOL     OW23029   5.844   4.090  10.510
73711SOL    HW123030   5.876   4.001  10.493
73711SOL    HW223031   5.882   4.143  10.440
73712SOL     OW23032   1.696   1.627   1.830
73712SOL    HW123033   1.670   1.538   1.851
73712SOL    HW223034   1.614   1.672   1.809
73713SOL     OW23035   9.723   3.133  11.840
73713SOL    HW123036   9.667   3.208  11.856
73713SOL    HW223037   9.778   3.159  11.766
73714SOL     OW23038  10.399   3.947  10.792
73714SOL    HW123039  10.429   3.860  10.819
73714SOL    HW223040  10.336   3.972  10.860
73715SOL     OW23041  11.299   0.393   5.251
73715SOL    HW123042  11.340   0.408   5.336
73715SOL    HW223043  11.206   0.382   5.270
73716SOL     OW23044   2.908  14.246   4.775
73716SOL    HW123045   3.000  14.230   4.756
73716SOL    HW223046   2.908  14.318   4.837
73717SOL     OW23047  13.018   8.562  14.565
73717SOL    HW123048  12.930   8.527  14.578
73717SOL    HW223049  13.071   8.486  14.541
73718SOL     OW23050   7.395  13.513   0.271
73718SOL    HW123051   7.400  13.600   0.311
73718SOL    HW223052   7.301  13.496   0.265
73719SOL     OW23053   2.279   0.107   2.881
73719SOL    HW123054   2.284   0.202   2.890
73719SOL    HW223055   2.329   0.074   2.957
73720SOL     OW23056   0.454   8.817   1.028
73720SOL    HW123057   0.533   8.846   0.984
73720SOL    HW223058   0.414   8.897   1.062
73721SOL     OW23059  12.225   3.497   3.878
73721SOL    HW123060  12.315   3.530   3.876
73721SOL    HW223061  12.229   3.414   3.832
73722SOL     OW23062   6.724   1.397  11.023
73722SOL    HW123063   6.799   1.338  11.011
73722SOL    HW223064   6.764   1.481  11.044
73723SOL     OW23065   8.408  13.856  14.518
73723SOL    HW123066   8.470  13.905  14.573
73723SOL    HW223067   8.326  13.903  14.527
73724SOL     OW23068   0.885  14.573   5.991
73724SOL    HW123069   0.969  14.590   5.948
73724SOL    HW223070   0.905  14.573   6.084
73725SOL     OW23071   6.938   4.649   4.693
73725SOL    HW123072   6.952   4.708   4.766
73725SOL    HW223073   6.879   4.582   4.727
73726SOL     OW23074   7.604   6.936   2.200
73726SOL    HW123075   7.624   7.020   2.241
73726SOL    HW223076   7.609   6.872   2.272
73727SOL     OW23077  11.158   0.487   5.779
73727SOL    HW123078  11.128   0.406   5.738
73727SOL    HW223079  11.207   0.457   5.856
73728SOL     OW23080  12.078   0.570   4.708
73728SOL    HW123081  12.170   0.545   4.710
73728SOL    HW223082  12.076   0.657   4.748
73729SOL     OW23083   5.852   1.875   2.542
73729SOL    HW123084   5.917   1.805   2.534
73729SOL    HW223085   5.842   1.908   2.452
73730SOL     OW23086  11.325  10.660  14.406
73730SOL    HW123087  11.246  10.646  14.354
73730SOL    HW223088  11.294  10.667  14.496
73731SOL     OW23089  10.856   2.302   3.670
73731SOL    HW123090  10.771   2.258   3.669
73731SOL    HW223091  10.841   2.381   3.722
73732SOL     OW23092   4.549   1.709   7.840
73732SOL    HW123093   4.556   1.787   7.784
73732SOL    HW223094   4.511   1.642   7.783
73733SOL     OW23095   1.214   3.753   8.867
73733SOL    HW123096   1.182   3.841   8.849
73733SOL    HW223097   1.152   3.716   8.930
73734SOL     OW23098   7.957   1.026  10.357
73734SOL    HW123099   8.045   0.993  10.338
73734SOL    HW223100   7.903   0.947  10.368
73735SOL     OW23101   8.077   2.378  14.303
73735SOL    HW123102   8.093   2.284  14.291
73735SOL    HW223103   8.044   2.385  14.392
73736SOL     OW23104   5.920   7.442  12.842
73736SOL    HW123105   5.872   7.478  12.917
73736SOL    HW223106   6.007   7.482  12.847
73737SOL     OW23107  11.363   3.400   3.489
73737SOL    HW123108  11.293   3.424   3.428
73737SOL    HW223109  11.431   3.466   3.476
73738SOL     OW23110  13.587   5.937   5.393
73738SOL    HW123111  13.511   5.988   5.421
73738SOL    HW223112  13.597   5.870   5.459
73739SOL     OW23113   4.526  10.898   3.738
73739SOL    HW123114   4.599  10.953   3.767
73739SOL    HW223115   4.523  10.827   3.801
73740SOL     OW23116   4.950  11.046  10.905
73740SOL    HW123117   5.021  11.032  10.841
73740SOL    HW223118   4.913  10.959  10.919
73741SOL     OW23119   7.713   4.745   2.122
73741SOL    HW123120   7.793   4.795   2.111
73741SOL    HW223121   7.668   4.786   2.196
73742SOL     OW23122   7.540   7.522  11.343
73742SOL    HW123123   7.560   7.615  11.330
73742SOL    HW223124   7.534   7.512  11.438
73743SOL     OW23125   4.057   4.056  14.549
73743SOL    HW123126   4.077   3.976  14.500
73743SOL    HW223127   3.970   4.081  14.520
73744SOL     OW23128   8.724  10.140   4.962
73744SOL    HW123129   8.662  10.073   4.990
73744SOL    HW223130   8.810  10.104   4.985
73745SOL     OW23131   8.634   5.703   4.600
73745SOL    HW123132   8.723   5.732   4.621
73745SOL    HW223133   8.643   5.609   4.583
73746SOL     OW23134   5.623   4.362   7.064
73746SOL    HW123135   5.690   4.313   7.112
73746SOL    HW223136   5.597   4.303   6.993
73747SOL     OW23137   1.421   5.087   4.316
73747SOL    HW123138   1.402   5.115   4.226
73747SOL    HW223139   1.357   5.018   4.333
73748SOL     OW23140   5.643   5.294   0.541
73748SOL    HW123141   5.677   5.383   0.552
73748SOL    HW223142   5.590   5.298   0.461
73749SOL     OW23143  10.279   8.720   9.643
73749SOL    HW123144  10.258   8.630   9.618
73749SOL    HW223145  10.305   8.714   9.735
73750SOL     OW23146  11.127   1.832   5.086
73750SOL    HW123147  11.135   1.899   5.153
73750SOL    HW223148  11.085   1.758   5.131
73751SOL     OW23149  14.415  11.127   1.007
73751SOL    HW123150  14.384  11.048   0.962
73751SOL    HW223151  14.362  11.131   1.087
73752SOL     OW23152   1.281   5.874   0.201
73752SOL    HW123153   1.237   5.852   0.119
73752SOL    HW223154   1.316   5.962   0.186
73753SOL     OW23155  10.220   6.347   4.977
73753SOL    HW123156  10.227   6.435   5.014
73753SOL    HW223157  10.138   6.350   4.926
73754SOL     OW23158   4.849  13.657   5.613
73754SOL    HW123159   4.916  13.696   5.670
73754SOL    HW223160   4.862  13.563   5.622
73755SOL     OW23161   3.013  11.155   1.137
73755SOL    HW123162   3.104  11.136   1.156
73755SOL    HW223163   3.015  11.211   1.060
73756SOL     OW23164   5.883   5.733   9.849
73756SOL    HW123165   5.835   5.698   9.924
73756SOL    HW223166   5.967   5.759   9.884
73757SOL     OW23167   9.630   6.696   2.903
73757SOL    HW123168   9.537   6.716   2.916
73757SOL    HW223169   9.667   6.776   2.866
73758SOL     OW23170   0.767  10.078  11.384
73758SOL    HW123171   0.721   9.998  11.412
73758SOL    HW223172   0.729  10.098  11.298
73759SOL     OW23173   8.696   0.961   4.664
73759SOL    HW123174   8.677   0.876   4.626
73759SOL    HW223175   8.670   0.953   4.756
73760SOL     OW23176   6.614   3.024   1.853
73760SOL    HW123177   6.550   3.093   1.837
73760SOL    HW223178   6.678   3.033   1.782
73761SOL     OW23179   9.223   2.792  14.038
73761SOL    HW123180   9.266   2.760  14.117
73761SOL    HW223181   9.285   2.854  14.000
73762SOL     OW23182   9.431   4.895   4.569
73762SOL    HW123183   9.365   4.872   4.634
73762SOL    HW223184   9.493   4.822   4.572
73763SOL     OW23185   5.883  11.399  13.614
73763SOL    HW123186   5.945  11.434  13.550
73763SOL    HW223187   5.807  11.457  13.608
73764SOL     OW23188   6.709  13.765   4.153
73764SOL    HW123189   6.684  13.783   4.243
73764SOL    HW223190   6.789  13.815   4.139
73765SOL     OW23191   2.042   0.254   3.344
73765SOL    HW123192   1.993   0.300   3.413
73765SOL    HW223193   2.036   0.162   3.367
73766SOL     OW23194   5.193   7.155   6.013
73766SOL    HW123195   5.185   7.154   5.918
73766SOL    HW223196   5.173   7.246   6.038
73767SOL     OW23197   2.643   3.470   6.334
73767SOL    HW123198   2.595   3.404   6.385
73767SOL    HW223199   2.575   3.526   6.297
73768SOL     OW23200   6.701   1.923  11.536
73768SOL    HW123201   6.679   1.962  11.620
73768SOL    HW223202   6.795   1.939  11.527
73769SOL     OW23203   1.187   2.342  12.483
73769SOL    HW123204   1.268   2.293  12.479
73769SOL    HW223205   1.119   2.276  12.492
73770SOL     OW23206  14.552   8.333  12.203
73770SOL    HW123207  14.602   8.337  12.285
73770SOL    HW223208  14.477   8.278  12.223
73771SOL     OW23209   5.986   3.629   8.427
73771SOL    HW123210   5.989   3.722   8.448
73771SOL    HW223211   5.917   3.593   8.482
73772SOL     OW23212  10.812  14.649   9.663
73772SOL    HW123213  10.831  14.575   9.721
73772SOL    HW223214  10.896  14.670   9.623
73773SOL     OW23215   2.981   4.447   7.430
73773SOL    HW123216   3.040   4.387   7.384
73773SOL    HW223217   3.038   4.507   7.477
73774SOL     OW23218  11.021   1.699   7.337
73774SOL    HW123219  11.017   1.752   7.417
73774SOL    HW223220  11.063   1.756   7.273
73775SOL     OW23221   4.811  13.803   0.094
73775SOL    HW123222   4.805  13.751   0.174
73775SOL    HW223223   4.870  13.875   0.117
73776SOL     OW23224   8.663   8.477   1.122
73776SOL    HW123225   8.754   8.447   1.117
73776SOL    HW223226   8.640   8.469   1.214
73777SOL     OW23227   1.492   4.962   5.718
73777SOL    HW123228   1.441   5.004   5.787
73777SOL    HW223229   1.584   4.977   5.742
73778SOL     OW23230   3.477  13.662  13.029
73778SOL    HW123231   3.433  13.589  13.072
73778SOL    HW223232   3.565  13.663  13.067
73779SOL     OW23233  10.693   3.570   1.423
73779SOL    HW123234  10.703   3.640   1.358
73779SOL    HW223235  10.696   3.615   1.507
73780SOL     OW23236  13.805   9.856  10.216
73780SOL    HW123237  13.759   9.852  10.300
73780SOL    HW223238  13.761   9.789  10.162
73781SOL     OW23239   5.859   5.437   6.140
73781SOL    HW123240   5.939   5.470   6.181
73781SOL    HW223241   5.854   5.482   6.056
73782SOL     OW23242   8.198  12.079   4.537
73782SOL    HW123243   8.218  12.155   4.592
73782SOL    HW223244   8.102  12.076   4.535
73783SOL     OW23245   4.048   2.374   9.134
73783SOL    HW123246   3.980   2.392   9.199
73783SOL    HW223247   4.003   2.325   9.065
73784SOL     OW23248   5.220   3.750  10.303
73784SOL    HW123249   5.314   3.745  10.319
73784SOL    HW223250   5.188   3.661  10.318
73785SOL     OW23251   7.162   8.615   7.033
73785SOL    HW123252   7.220   8.552   6.990
73785SOL    HW223253   7.081   8.612   6.983
73786SOL     OW23254   6.296   9.916   2.885
73786SOL    HW123255   6.353   9.920   2.808
73786SOL    HW223256   6.212   9.884   2.852
73787SOL     OW23257   4.543   6.262   0.857
73787SOL    HW123258   4.498   6.272   0.941
73787SOL    HW223259   4.486   6.307   0.794
73788SOL     OW23260   1.697   8.999   8.522
73788SOL    HW123261   1.615   8.993   8.474
73788SOL    HW223262   1.671   9.007   8.614
73789SOL     OW23263   1.153   4.031  10.540
73789SOL    HW123264   1.072   4.017  10.589
73789SOL    HW223265   1.144   4.119  10.503
73790SOL     OW23266   6.697  14.712  10.628
73790SOL    HW123267   6.630  14.647  10.648
73790SOL    HW223268   6.708  14.761  10.710
73791SOL     OW23269   9.074   1.395   5.404
73791SOL    HW123270   9.031   1.370   5.322
73791SOL    HW223271   9.072   1.491   5.404
73792SOL     OW23272   5.450   3.480  12.526
73792SOL    HW123273   5.473   3.573  12.526
73792SOL    HW223274   5.485   3.447  12.443
73793SOL     OW23275   5.452   6.611   2.815
73793SOL    HW123276   5.369   6.615   2.768
73793SOL    HW223277   5.426   6.591   2.906
73794SOL     OW23278   7.319  10.482   4.776
73794SOL    HW123279   7.389  10.509   4.836
73794SOL    HW223280   7.267  10.419   4.826
73795SOL     OW23281  13.227   1.252   7.791
73795SOL    HW123282  13.254   1.240   7.700
73795SOL    HW223283  13.168   1.179   7.809
73796SOL     OW23284   4.642   0.936   0.702
73796SOL    HW123285   4.548   0.955   0.694
73796SOL    HW223286   4.675   0.938   0.612
73797SOL     OW23287   5.944   1.633  13.687
73797SOL    HW123288   5.982   1.563  13.740
73797SOL    HW223289   5.945   1.710  13.744
73798SOL     OW23290   7.197   3.580   4.114
73798SOL    HW123291   7.165   3.517   4.179
73798SOL    HW223292   7.192   3.533   4.031
73799SOL     OW23293   8.261   5.660   9.803
73799SOL    HW123294   8.346   5.691   9.834
73799SOL    HW223295   8.205   5.737   9.807
73800SOL     OW23296  12.510   2.149  13.993
73800SOL    HW123297  12.423   2.111  13.977
73800SOL    HW223298  12.507   2.235  13.951
73801SOL     OW23299  13.876   3.467   1.958
73801SOL    HW123300  13.942   3.485   1.891
73801SOL    HW223301  13.879   3.372   1.970
73802SOL     OW23302   0.592  12.785   6.216
73802SOL    HW123303   0.665  12.847   6.220
73802SOL    HW223304   0.531  12.824   6.154
73803SOL     OW23305   7.960   1.273  13.475
73803SOL    HW123306   8.055   1.257  13.476
73803SOL    HW223307   7.935   1.271  13.568
73804SOL     OW23308   2.467  14.268   8.202
73804SOL    HW123309   2.511  14.260   8.286
73804SOL    HW223310   2.405  14.340   8.214
73805SOL     OW23311  14.282  12.507  10.172
73805SOL    HW123312  14.374  12.494  10.193
73805SOL    HW223313  14.277  12.498  10.077
73806SOL     OW23314   0.337  14.098  13.482
73806SOL    HW123315   0.315  14.032  13.417
73806SOL    HW223316   0.431  14.086  13.499
73807SOL     OW23317   9.450   8.945   0.457
73807SOL    HW123318   9.358   8.917   0.451
73807SOL    HW223319   9.445   9.038   0.478
73808SOL     OW23320  10.112   6.398   1.649
73808SOL    HW123321  10.025   6.372   1.620
73808SOL    HW223322  10.169   6.326   1.621
73809SOL     OW23323  14.784  14.569   4.124
73809SOL    HW123324  14.747  14.552   4.037
73809SOL    HW223325  14.731  14.641   4.158
73810SOL     OW23326   9.116  14.591  14.228
73810SOL    HW123327   9.155  14.545  14.154
73810SOL    HW223328   9.157  14.677  14.229
73811SOL     OW23329   6.942   1.543   5.356
73811SOL    HW123330   6.997   1.465   5.367
73811SOL    HW223331   7.003   1.616   5.369
73812SOL     OW23332   3.092  11.851  11.115
73812SOL    HW123333   2.997  11.847  11.103
73812SOL    HW223334   3.111  11.784  11.180
73813SOL     OW23335   2.508   4.646  10.856
73813SOL    HW123336   2.426   4.618  10.816
73813SOL    HW223337   2.547   4.566  10.890
73814SOL     OW23338  11.551   2.334   3.517
73814SOL    HW123339  11.478   2.360   3.460
73814SOL    HW223340  11.575   2.246   3.487
73815SOL     OW23341   0.775  11.463  14.297
73815SOL    HW123342   0.775  11.557  14.314
73815SOL    HW223343   0.684  11.443  14.273
73816SOL     OW23344   6.406   2.170  10.202
73816SOL    HW123345   6.371   2.244  10.251
73816SOL    HW223346   6.464   2.211  10.137
73817SOL     OW23347  10.858  14.709   7.961
73817SOL    HW123348  10.855  14.682   8.053
73817SOL    HW223349  10.827  14.632   7.913
73818SOL     OW23350   4.781   6.882   4.594
73818SOL    HW123351   4.873   6.872   4.569
73818SOL    HW223352   4.767   6.813   4.659
73819SOL     OW23353   3.536  11.397   9.683
73819SOL    HW123354   3.559  11.456   9.755
73819SOL    HW223355   3.601  11.327   9.687
73820SOL     OW23356  12.783   3.639   3.238
73820SOL    HW123357  12.753   3.728   3.217
73820SOL    HW223358  12.838   3.651   3.316
73821SOL     OW23359   6.118   1.074  12.557
73821SOL    HW123360   6.153   1.023  12.631
73821SOL    HW223361   6.082   1.008  12.498
73822SOL     OW23362  12.541   2.103  11.769
73822SOL    HW123363  12.565   2.025  11.819
73822SOL    HW223364  12.558   2.079  11.678
73823SOL     OW23365  14.079   0.550  13.879
73823SOL    HW123366  14.028   0.469  13.873
73823SOL    HW223367  14.024   0.609  13.930
73824SOL     OW23368   8.273   2.746  12.941
73824SOL    HW123369   8.180   2.768  12.940
73824SOL    HW223370   8.287   2.701  13.024
73825SOL     OW23371  14.540  10.458   5.367
73825SOL    HW123372  14.511  10.530   5.311
73825SOL    HW223373  14.635  10.464   5.366
73826SOL     OW23374   4.864   1.528   5.890
73826SOL    HW123375   4.827   1.444   5.919
73826SOL    HW223376   4.822   1.593   5.946
73827SOL     OW23377  11.002   5.335   2.665
73827SOL    HW123378  10.963   5.372   2.586
73827SOL    HW223379  11.094   5.364   2.662
73828SOL     OW23380  13.550   1.475  13.779
73828SOL    HW123381  13.565   1.560  13.736
73828SOL    HW223382  13.616   1.470  13.847
73829SOL     OW23383   3.597   2.361   8.811
73829SOL    HW123384   3.677   2.350   8.759
73829SOL    HW223385   3.562   2.445   8.784
73830SOL     OW23386   7.600   6.298  11.422
73830SOL    HW123387   7.620   6.210  11.390
73830SOL    HW223388   7.680   6.348  11.408
73831SOL     OW23389  14.257   9.220  12.802
73831SOL    HW123390  14.268   9.133  12.762
73831SOL    HW223391  14.265   9.281  12.729
73832SOL     OW23392  14.317   9.872  12.852
73832SOL    HW123393  14.222   9.867  12.865
73832SOL    HW223394  14.341   9.959  12.884
73833SOL     OW23395  11.655   3.755   6.457
73833SOL    HW123396  11.742   3.750   6.418
73833SOL    HW223397  11.662   3.704   6.538
73834SOL     OW23398   6.934   1.118   9.582
73834SOL    HW123399   6.888   1.041   9.550
73834SOL    HW223400   6.914   1.120   9.676
73835SOL     OW23401  11.932  10.847  12.686
73835SOL    HW123402  11.942  10.871  12.594
73835SOL    HW223403  11.993  10.904  12.733
73836SOL     OW23404   1.131   6.798  11.132
73836SOL    HW123405   1.111   6.793  11.038
73836SOL    HW223406   1.139   6.707  11.159
73837SOL     OW23407   8.474   9.791   8.468
73837SOL    HW123408   8.521   9.797   8.551
73837SOL    HW223409   8.422   9.711   8.476
73838SOL     OW23410   4.556  14.267  14.377
73838SOL    HW123411   4.625  14.319  14.335
73838SOL    HW223412   4.537  14.197  14.314
73839SOL     OW23413  10.330  11.686  14.349
73839SOL    HW123414  10.345  11.642  14.433
73839SOL    HW223415  10.345  11.618  14.284
73840SOL     OW23416   7.240   2.634   2.940
73840SOL    HW123417   7.278   2.720   2.922
73840SOL    HW223418   7.185   2.616   2.863
73841SOL     OW23419   7.538  13.579  11.804
73841SOL    HW123420   7.588  13.660  11.799
73841SOL    HW223421   7.539  13.556  11.898
73842SOL     OW23422  11.510   7.287   4.825
73842SOL    HW123423  11.554   7.369   4.806
73842SOL    HW223424  11.538   7.228   4.754
73843SOL     OW23425  11.058   6.401  12.309
73843SOL    HW123426  11.136   6.449  12.282
73843SOL    HW223427  10.988   6.436  12.253
73844SOL     OW23428  10.084  10.725   2.485
73844SOL    HW123429  10.082  10.807   2.534
73844SOL    HW223430  10.112  10.659   2.549
73845SOL     OW23431   3.534  14.220  10.341
73845SOL    HW123432   3.492  14.153  10.395
73845SOL    HW223433   3.462  14.262  10.294
73846SOL     OW23434   4.106   9.971  11.857
73846SOL    HW123435   4.011   9.957  11.865
73846SOL    HW223436   4.120  10.059  11.890
73847SOL     OW23437   1.015   3.870   8.131
73847SOL    HW123438   0.972   3.797   8.087
73847SOL    HW223439   1.000   3.945   8.073
73848SOL     OW23440   4.571  12.963  11.964
73848SOL    HW123441   4.662  12.935  11.958
73848SOL    HW223442   4.530  12.931  11.884
73849SOL     OW23443  14.354   2.811   6.720
73849SOL    HW123444  14.293   2.876   6.753
73849SOL    HW223445  14.376   2.841   6.631
73850SOL     OW23446   4.612   1.565  13.481
73850SOL    HW123447   4.524   1.601  13.471
73850SOL    HW223448   4.668   1.640  13.497
73851SOL     OW23449  12.450   0.415   2.099
73851SOL    HW123450  12.419   0.402   2.189
73851SOL    HW223451  12.531   0.365   2.095
73852SOL     OW23452   7.322  11.658   3.375
73852SOL    HW123453   7.321  11.565   3.400
73852SOL    HW223454   7.272  11.702   3.443
73853SOL     OW23455  10.635  13.805   7.203
73853SOL    HW123456  10.568  13.752   7.247
73853SOL    HW223457  10.673  13.858   7.273
73854SOL     OW23458  13.826  11.395  11.858
73854SOL    HW123459  13.795  11.386  11.948
73854SOL    HW223460  13.911  11.438  11.867
73855SOL     OW23461   6.123  14.451   6.093
73855SOL    HW123462   6.145  14.473   6.184
73855SOL    HW223463   6.037  14.409   6.100
73856SOL     OW23464  13.101   4.638   4.879
73856SOL    HW123465  13.028   4.669   4.933
73856SOL    HW223466  13.094   4.687   4.797
73857SOL     OW23467  10.422  13.340  14.422
73857SOL    HW123468  10.498  13.376  14.376
73857SOL    HW223469  10.415  13.250  14.391
73858SOL     OW23470   5.259   2.472   9.142
73858SOL    HW123471   5.239   2.380   9.130
73858SOL    HW223472   5.232   2.491   9.232
73859SOL     OW23473  14.703   8.023   3.773
73859SOL    HW123474  14.784   8.065   3.801
73859SOL    HW223475  14.730   7.963   3.703
73860SOL     OW23476  13.968   8.288   6.962
73860SOL    HW123477  13.878   8.283   6.994
73860SOL    HW223478  13.977   8.212   6.904
73861SOL     OW23479   0.234   2.536   3.814
73861SOL    HW123480   0.208   2.599   3.747
73861SOL    HW223481   0.225   2.450   3.772
73862SOL     OW23482   1.695  14.156   7.159
73862SOL    HW123483   1.702  14.112   7.075
73862SOL    HW223484   1.785  14.162   7.191
73863SOL     OW23485  13.225  10.353   7.542
73863SOL    HW123486  13.184  10.431   7.578
73863SOL    HW223487  13.274  10.316   7.615
73864SOL     OW23488   8.337   6.531   5.689
73864SOL    HW123489   8.366   6.620   5.666
73864SOL    HW223490   8.249   6.525   5.652
73865SOL     OW23491  11.895   3.760   1.884
73865SOL    HW123492  11.813   3.716   1.862
73865SOL    HW223493  11.934   3.704   1.951
73866SOL     OW23494  10.486   4.833  11.900
73866SOL    HW123495  10.527   4.809  11.817
73866SOL    HW223496  10.508   4.925  11.912
73867SOL     OW23497   4.704  11.576   0.010
73867SOL    HW123498   4.761  11.505  14.852
73867SOL    HW223499   4.646  11.593  14.808
73868SOL     OW23500   6.319  13.511  13.861
73868SOL    HW123501   6.259  13.570  13.907
73868SOL    HW223502   6.318  13.541  13.771
73869SOL     OW23503  13.815  13.086  12.802
73869SOL    HW123504  13.739  13.095  12.859
73869SOL    HW223505  13.853  13.173  12.797
73870SOL     OW23506   0.546   1.088   1.662
73870SOL    HW123507   0.542   1.173   1.705
73870SOL    HW223508   0.472   1.039   1.699
73871SOL     OW23509   2.520   4.328  13.905
73871SOL    HW123510   2.555   4.281  13.829
73871SOL    HW223511   2.559   4.415  13.899
73872SOL     OW23512  10.103  11.251   0.822
73872SOL    HW123513  10.108  11.341   0.792
73872SOL    HW223514  10.025  11.215   0.779
73873SOL     OW23515   8.957   7.651   7.553
73873SOL    HW123516   9.008   7.712   7.606
73873SOL    HW223517   8.952   7.571   7.606
73874SOL     OW23518   2.043   1.194   0.472
73874SOL    HW123519   2.131   1.227   0.489
73874SOL    HW223520   1.987   1.273   0.472
73875SOL     OW23521  13.168   4.128   8.978
73875SOL    HW123522  13.092   4.164   9.024
73875SOL    HW223523  13.133   4.099   8.893
73876SOL     OW23524   3.403   5.120  13.387
73876SOL    HW123525   3.347   5.163  13.322
73876SOL    HW223526   3.365   5.033  13.398
73877SOL     OW23527   7.479   0.078   5.505
73877SOL    HW123528   7.386   0.071   5.483
73877SOL    HW223529   7.503   0.167   5.479
73878SOL     OW23530   5.521   9.927  14.702
73878SOL    HW123531   5.520   9.978  14.783
73878SOL    HW223532   5.613   9.928  14.674
73879SOL     OW23533   0.057   9.988  11.215
73879SOL    HW123534   0.142   9.946  11.228
73879SOL    HW223535   0.079  10.077  11.186
73880SOL     OW23536   1.158   7.208   0.196
73880SOL    HW123537   1.087   7.219   0.134
73880SOL    HW223538   1.224   7.273   0.169
73881SOL     OW23539   4.370  10.567   8.376
73881SOL    HW123540   4.291  10.620   8.389
73881SOL    HW223541   4.359  10.528   8.289
73882SOL     OW23542   1.981   0.864   8.676
73882SOL    HW123543   1.924   0.918   8.730
73882SOL    HW223544   2.039   0.820   8.739
73883SOL     OW23545   1.674   2.697   7.741
73883SOL    HW123546   1.587   2.703   7.782
73883SOL    HW223547   1.720   2.774   7.772
73884SOL     OW23548   0.082  13.678   8.975
73884SOL    HW123549   0.162  13.658   9.023
73884SOL    HW223550   0.066  13.599   8.922
73885SOL     OW23551   4.347   7.487   4.972
73885SOL    HW123552   4.422   7.431   4.986
73885SOL    HW223553   4.369   7.538   4.894
73886SOL     OW23554  14.459   2.267   3.277
73886SOL    HW123555  14.433   2.324   3.204
73886SOL    HW223556  14.508   2.325   3.336
73887SOL     OW23557  13.659   6.945  14.565
73887SOL    HW123558  13.670   6.850  14.567
73887SOL    HW223559  13.566   6.959  14.585
73888SOL     OW23560  10.535  13.356   9.622
73888SOL    HW123561  10.622  13.335   9.591
73888SOL    HW223562  10.477  13.293   9.579
73889SOL     OW23563  14.780   0.073   3.174
73889SOL    HW123564  14.782  14.870   3.234
73889SOL    HW223565  14.687   0.085   3.155
73890SOL     OW23566   3.128   4.950  10.914
73890SOL    HW123567   3.206   4.969  10.966
73890SOL    HW223568   3.132   4.856  10.898
73891SOL     OW23569   4.838   1.313   1.949
73891SOL    HW123570   4.781   1.291   2.022
73891SOL    HW223571   4.840   1.234   1.895
73892SOL     OW23572   2.398   0.914   4.637
73892SOL    HW123573   2.417   0.875   4.723
73892SOL    HW223574   2.484   0.941   4.604
73893SOL     OW23575   4.860  14.367   1.217
73893SOL    HW123576   4.882  14.357   1.310
73893SOL    HW223577   4.898  14.290   1.175
73894SOL     OW23578   9.080  11.976  11.238
73894SOL    HW123579   9.002  12.005  11.190
73894SOL    HW223580   9.116  11.905  11.184
73895SOL     OW23581   0.707  14.064   3.533
73895SOL    HW123582   0.770  14.066   3.604
73895SOL    HW223583   0.700  14.155   3.504
73896SOL     OW23584  10.996  13.309   3.917
73896SOL    HW123585  10.994  13.268   4.003
73896SOL    HW223586  11.083  13.348   3.910
73897SOL     OW23587   4.474   2.968  14.171
73897SOL    HW123588   4.504   2.958  14.080
73897SOL    HW223589   4.401   2.907  14.178
73898SOL     OW23590   7.446  13.678   5.187
73898SOL    HW123591   7.447  13.704   5.095
73898SOL    HW223592   7.389  13.742   5.230
73899SOL     OW23593   5.349   5.814  10.164
73899SOL    HW123594   5.356   5.719  10.157
73899SOL    HW223595   5.356   5.832  10.258
73900SOL     OW23596  12.998   1.211   5.787
73900SOL    HW123597  12.937   1.221   5.860
73900SOL    HW223598  13.020   1.301   5.762
73901SOL     OW23599  10.186   4.513   5.771
73901SOL    HW123600  10.123   4.485   5.837
73901SOL    HW223601  10.146   4.590   5.730
73902SOL     OW23602  13.211   0.861   2.905
73902SOL    HW123603  13.196   0.953   2.924
73902SOL    HW223604  13.300   0.844   2.935
73903SOL     OW23605  13.144  14.229  11.898
73903SOL    HW123606  13.065  14.181  11.925
73903SOL    HW223607  13.217  14.174  11.926
73904SOL     OW23608   5.344   8.925   3.209
73904SOL    HW123609   5.375   8.925   3.118
73904SOL    HW223610   5.287   9.002   3.215
73905SOL     OW23611   5.708  13.866   0.688
73905SOL    HW123612   5.716  13.800   0.619
73905SOL    HW223613   5.768  13.837   0.757
73906SOL     OW23614   6.723   1.214  10.322
73906SOL    HW123615   6.690   1.124  10.321
73906SOL    HW223616   6.793   1.214  10.256
73907SOL     OW23617   4.451  11.000   7.469
73907SOL    HW123618   4.366  10.998   7.426
73907SOL    HW223619   4.433  11.033   7.557
73908SOL     OW23620   3.564   6.133   8.631
73908SOL    HW123621   3.552   6.228   8.644
73908SOL    HW223622   3.573   6.123   8.536
73909SOL     OW23623  14.248  14.837  12.645
73909SOL    HW123624  14.238  14.768  12.579
73909SOL    HW223625  14.342  14.847  12.656
73910SOL     OW23626   5.685   4.366   3.562
73910SOL    HW123627   5.721   4.337   3.645
73910SOL    HW223628   5.684   4.462   3.568
73911SOL     OW23629   1.352  11.612   4.830
73911SOL    HW123630   1.433  11.643   4.871
73911SOL    HW223631   1.302  11.691   4.813
73912SOL     OW23632   0.157   7.224  14.058
73912SOL    HW123633   0.168   7.160  14.128
73912SOL    HW223634   0.200   7.303  14.091
73913SOL     OW23635   1.891   2.834  11.920
73913SOL    HW123636   1.905   2.741  11.936
73913SOL    HW223637   1.918   2.877  12.001
73914SOL     OW23638   2.308   8.795   9.383
73914SOL    HW123639   2.291   8.743   9.304
73914SOL    HW223640   2.401   8.818   9.376
73915SOL     OW23641   6.059   1.834   0.911
73915SOL    HW123642   6.032   1.923   0.888
73915SOL    HW223643   6.106   1.843   0.994
73916SOL     OW23644   7.924   4.698  14.133
73916SOL    HW123645   7.847   4.661  14.089
73916SOL    HW223646   7.960   4.625  14.183
73917SOL     OW23647   0.826   7.211  10.974
73917SOL    HW123648   0.756   7.191  11.036
73917SOL    HW223649   0.906   7.204  11.026
73918SOL     OW23650  14.592  12.633   6.761
73918SOL    HW123651  14.524  12.671   6.816
73918SOL    HW223652  14.669  12.628   6.818
73919SOL     OW23653  13.829  13.617   7.612
73919SOL    HW123654  13.842  13.547   7.676
73919SOL    HW223655  13.749  13.593   7.566
73920SOL     OW23656   2.550   7.841  13.228
73920SOL    HW123657   2.540   7.787  13.150
73920SOL    HW223658   2.488   7.913  13.216
73921SOL     OW23659  11.116   8.144   6.447
73921SOL    HW123660  11.201   8.183   6.424
73921SOL    HW223661  11.115   8.061   6.400
73922SOL     OW23662   1.282  12.537   5.547
73922SOL    HW123663   1.259  12.563   5.637
73922SOL    HW223664   1.249  12.608   5.492
73923SOL     OW23665  14.380   8.487  13.144
73923SOL    HW123666  14.421   8.401  13.142
73923SOL    HW223667  14.412   8.527  13.225
73924SOL     OW23668   0.159   9.302   1.613
73924SOL    HW123669   0.219   9.308   1.687
73924SOL    HW223670   0.073   9.326   1.650
73925SOL     OW23671  14.146   6.907  10.540
73925SOL    HW123672  14.069   6.884  10.592
73925SOL    HW223673  14.210   6.840  10.561
73926SOL     OW23674   9.191  12.752   0.741
73926SOL    HW123675   9.121  12.808   0.775
73926SOL    HW223676   9.269  12.780   0.788
73927SOL     OW23677   0.375   5.475   0.131
73927SOL    HW123678   0.420   5.527   0.197
73927SOL    HW223679   0.403   5.513   0.047
73928SOL     OW23680   8.415   5.666   3.575
73928SOL    HW123681   8.327   5.648   3.542
73928SOL    HW223682   8.411   5.756   3.608
73929SOL     OW23683  13.153   9.361  12.306
73929SOL    HW123684  13.146   9.352  12.211
73929SOL    HW223685  13.106   9.442  12.326
73930SOL     OW23686   8.946   1.068   9.042
73930SOL    HW123687   8.865   1.090   8.996
73930SOL    HW223688   8.995   1.150   9.044
73931SOL     OW23689   4.320   7.399   2.703
73931SOL    HW123690   4.225   7.395   2.700
73931SOL    HW223691   4.345   7.323   2.756
73932SOL     OW23692   9.335   6.135   2.753
73932SOL    HW123693   9.367   6.068   2.693
73932SOL    HW223694   9.413   6.185   2.778
73933SOL     OW23695  11.823   2.298   7.600
73933SOL    HW123696  11.783   2.339   7.524
73933SOL    HW223697  11.750   2.278   7.659
73934SOL     OW23698  10.484   3.107   5.667
73934SOL    HW123699  10.528   3.159   5.734
73934SOL    HW223700  10.553   3.053   5.629
73935SOL     OW23701  10.283   1.795  11.118
73935SOL    HW123702  10.350   1.792  11.186
73935SOL    HW223703  10.282   1.886  11.089
73936SOL     OW23704   0.760  12.621   6.836
73936SOL    HW123705   0.701  12.684   6.877
73936SOL    HW223706   0.707  12.543   6.824
73937SOL     OW23707   4.700   5.278   0.305
73937SOL    HW123708   4.767   5.346   0.291
73937SOL    HW223709   4.717   5.214   0.236
73938SOL     OW23710   9.995   2.494  11.210
73938SOL    HW123711   9.984   2.455  11.297
73938SOL    HW223712  10.000   2.588  11.227
73939SOL     OW23713  13.310   5.757  11.396
73939SOL    HW123714  13.297   5.811  11.474
73939SOL    HW223715  13.405   5.757  11.383
73940SOL     OW23716  11.696  14.703   2.203
73940SOL    HW123717  11.633  14.758   2.158
73940SOL    HW223718  11.779  14.719   2.157
73941SOL     OW23719  10.932   0.334   0.709
73941SOL    HW123720  10.870   0.369   0.772
73941SOL    HW223721  10.921   0.389   0.631
73942SOL     OW23722   1.636   2.328   5.532
73942SOL    HW123723   1.596   2.314   5.617
73942SOL    HW223724   1.700   2.398   5.548
73943SOL     OW23725   1.041   9.754  13.046
73943SOL    HW123726   1.005   9.781  13.130
73943SOL    HW223727   1.092   9.675  13.067
73944SOL     OW23728   1.636   0.674   5.613
73944SOL    HW123729   1.579   0.743   5.577
73944SOL    HW223730   1.605   0.594   5.571
73945SOL     OW23731  10.194   5.281  14.801
73945SOL    HW123732  10.217   5.364  14.759
73945SOL    HW223733  10.117   5.251  14.752
73946SOL     OW23734  10.069   7.864  14.224
73946SOL    HW123735  10.070   7.948  14.269
73946SOL    HW223736   9.977   7.847  14.206
73947SOL     OW23737   5.213   9.689   5.803
73947SOL    HW123738   5.305   9.696   5.777
73947SOL    HW223739   5.191   9.777   5.835
73948SOL     OW23740  10.192  12.786   6.453
73948SOL    HW123741  10.132  12.712   6.462
73948SOL    HW223742  10.273  12.747   6.420
73949SOL     OW23743   4.275   0.981   4.453
73949SOL    HW123744   4.368   0.965   4.465
73949SOL    HW223745   4.258   0.958   4.362
73950SOL     OW23746  10.935   3.144   8.415
73950SOL    HW123747  10.874   3.154   8.488
73950SOL    HW223748  10.880   3.140   8.337
73951SOL     OW23749  10.981  10.708  14.538
73951SOL    HW123750  10.938  10.632  14.577
73951SOL    HW223751  11.068  10.709  14.577
73952SOL     OW23752   9.359   2.517  14.154
73952SOL    HW123753   9.359   2.423  14.170
73952SOL    HW223754   9.404   2.527  14.070
73953SOL     OW23755   4.683   6.703   0.963
73953SOL    HW123756   4.737   6.745   1.030
73953SOL    HW223757   4.739   6.698   0.886
73954SOL     OW23758  14.153  11.603  10.342
73954SOL    HW123759  14.175  11.693  10.316
73954SOL    HW223760  14.075  11.613  10.396
73955SOL     OW23761  14.023   3.309  14.587
73955SOL    HW123762  14.093   3.363  14.548
73955SOL    HW223763  13.949   3.369  14.597
73956SOL     OW23764  11.087  10.363   7.737
73956SOL    HW123765  11.154  10.320   7.789
73956SOL    HW223766  11.087  10.316   7.654
73957SOL     OW23767   3.264   5.948  10.487
73957SOL    HW123768   3.205   5.878  10.516
73957SOL    HW223769   3.207   6.009  10.440
73958SOL     OW23770  13.244  13.812   6.948
73958SOL    HW123771  13.318  13.861   6.913
73958SOL    HW223772  13.195  13.875   7.000
73959SOL     OW23773   9.366   1.598   9.070
73959SOL    HW123774   9.291   1.624   9.016
73959SOL    HW223775   9.408   1.681   9.093
73960SOL     OW23776   8.187   2.127   8.464
73960SOL    HW123777   8.148   2.048   8.426
73960SOL    HW223778   8.225   2.097   8.547
73961SOL     OW23779   8.484  13.963  10.654
73961SOL    HW123780   8.547  14.012  10.708
73961SOL    HW223781   8.400  13.977  10.697
73962SOL     OW23782  13.407   2.811  13.457
73962SOL    HW123783  13.444   2.726  13.479
73962SOL    HW223784  13.316   2.807  13.488
73963SOL     OW23785  11.255   3.378  13.730
73963SOL    HW123786  11.184   3.330  13.688
73963SOL    HW223787  11.285   3.439  13.663
73964SOL     OW23788   8.482   3.180  12.296
73964SOL    HW123789   8.463   3.206  12.386
73964SOL    HW223790   8.543   3.246  12.263
73965SOL     OW23791   0.287   9.070   7.373
73965SOL    HW123792   0.199   9.101   7.394
73965SOL    HW223793   0.273   8.998   7.311
73966SOL     OW23794  13.887   7.926   7.831
73966SOL    HW123795  13.892   7.985   7.756
73966SOL    HW223796  13.974   7.887   7.837
73967SOL     OW23797   6.809   7.588   1.810
73967SOL    HW123798   6.879   7.523   1.810
73967SOL    HW223799   6.729   7.538   1.795
73968SOL     OW23800  11.103   4.512   4.054
73968SOL    HW123801  11.091   4.555   4.139
73968SOL    HW223802  11.162   4.439   4.073
73969SOL     OW23803   2.684   8.767  12.989
73969SOL    HW123804   2.775   8.780  13.016
73969SOL    HW223805   2.657   8.852  12.954
73970SOL     OW23806  14.559   5.674  10.682
73970SOL    HW123807  14.575   5.737  10.753
73970SOL    HW223808  14.639   5.621  10.679
73971SOL     OW23809   5.050   6.875   5.785
73971SOL    HW123810   5.092   6.958   5.761
73971SOL    HW223811   5.106   6.808   5.745
73972SOL     OW23812   2.962  13.166  10.107
73972SOL    HW123813   2.887  13.155  10.048
73972SOL    HW223814   3.038  13.148  10.053
73973SOL     OW23815  13.108  13.141   9.308
73973SOL    HW123816  13.081  13.067   9.363
73973SOL    HW223817  13.041  13.146   9.240
73974SOL     OW23818   6.726   8.291   2.144
73974SOL    HW123819   6.698   8.257   2.059
73974SOL    HW223820   6.663   8.255   2.206
73975SOL     OW23821   8.042   0.867   0.200
73975SOL    HW123822   8.021   0.774   0.191
73975SOL    HW223823   8.002   0.909   0.123
73976SOL     OW23824  13.490  10.268   8.270
73976SOL    HW123825  13.541  10.219   8.205
73976SOL    HW223826  13.499  10.359   8.244
73977SOL     OW23827   6.502  11.814   9.756
73977SOL    HW123828   6.529  11.750   9.690
73977SOL    HW223829   6.408  11.824   9.742
73978SOL     OW23830   1.660  10.586   7.343
73978SOL    HW123831   1.703  10.599   7.258
73978SOL    HW223832   1.598  10.659   7.349
73979SOL     OW23833   0.277  13.652  11.765
73979SOL    HW123834   0.181  13.649  11.771
73979SOL    HW223835   0.297  13.609  11.682
73980SOL     OW23836   0.951  13.058  12.697
73980SOL    HW123837   0.976  13.091  12.783
73980SOL    HW223838   0.857  13.042  12.704
73981SOL     OW23839   4.915   8.458  13.405
73981SOL    HW123840   4.924   8.474  13.311
73981SOL    HW223841   4.821   8.459  13.421
73982SOL     OW23842  12.037  14.853   8.582
73982SOL    HW123843  11.961   0.017   8.627
73982SOL    HW223844  12.033   0.020   8.494
73983SOL     OW23845  12.497   9.484   3.590
73983SOL    HW123846  12.473   9.467   3.680
73983SOL    HW223847  12.414   9.487   3.542
73984SOL     OW23848   6.821   5.273   8.860
73984SOL    HW123849   6.872   5.230   8.929
73984SOL    HW223850   6.798   5.201   8.800
73985SOL     OW23851   5.024   3.226  13.090
73985SOL    HW123852   5.024   3.134  13.116
73985SOL    HW223853   4.963   3.230  13.016
73986SOL     OW23854   4.159   9.674  14.024
73986SOL    HW123855   4.205   9.628  13.954
73986SOL    HW223856   4.095   9.611  14.056
73987SOL     OW23857  10.912   8.895  12.247
73987SOL    HW123858  10.974   8.848  12.192
73987SOL    HW223859  10.855   8.827  12.284
73988SOL     OW23860   0.454   3.071   4.896
73988SOL    HW123861   0.386   3.017   4.856
73988SOL    HW223862   0.413   3.105   4.976
73989SOL     OW23863   5.968  13.532   1.227
73989SOL    HW123864   5.921  13.544   1.309
73989SOL    HW223865   6.060  13.545   1.249
73990SOL     OW23866   6.528   5.105   0.556
73990SOL    HW123867   6.556   5.184   0.510
73990SOL    HW223868   6.530   5.036   0.490
73991SOL     OW23869   9.889  10.620   7.465
73991SOL    HW123870   9.840  10.616   7.383
73991SOL    HW223871   9.864  10.540   7.512
73992SOL     OW23872   5.803  10.610   0.410
73992SOL    HW123873   5.835  10.561   0.486
73992SOL    HW223874   5.712  10.583   0.401
73993SOL     OW23875   1.865   9.133   5.435
73993SOL    HW123876   1.885   9.053   5.485
73993SOL    HW223877   1.881   9.204   5.497
73994SOL     OW23878   2.527   8.588   5.785
73994SOL    HW123879   2.562   8.673   5.759
73994SOL    HW223880   2.439   8.608   5.816
73995SOL     OW23881  13.840  11.445   1.384
73995SOL    HW123882  13.905  11.374   1.387
73995SOL    HW223883  13.874  11.506   1.318
73996SOL     OW23884  10.370   1.163  13.818
73996SOL    HW123885  10.406   1.220  13.750
73996SOL    HW223886  10.447   1.122  13.857
73997SOL     OW23887   0.428  14.375  10.410
73997SOL    HW123888   0.376  14.416  10.341
73997SOL    HW223889   0.516  14.412  10.399
73998SOL     OW23890   3.898   6.393  13.403
73998SOL    HW123891   3.803   6.392  13.413
73998SOL    HW223892   3.915   6.453  13.331
73999SOL     OW23893   1.019   1.757   9.749
73999SOL    HW123894   1.080   1.774   9.820
73999SOL    HW223895   0.994   1.665   9.761
74000SOL     OW23896   7.511  13.141  11.641
74000SOL    HW123897   7.474  13.230  11.649
74000SOL    HW223898   7.556  13.141  11.557
74001SOL     OW23899   5.082   6.132   9.190
74001SOL    HW123900   5.062   6.207   9.134
74001SOL    HW223901   5.088   6.169   9.278
74002SOL     OW23902  14.298   8.125  12.293
74002SOL    HW123903  14.266   8.038  12.316
74002SOL    HW223904  14.241   8.153  12.221
74003SOL     OW23905   1.796  13.571  11.864
74003SOL    HW123906   1.855  13.612  11.802
74003SOL    HW223907   1.787  13.480  11.834
74004SOL     OW23908   3.622   2.102  11.795
74004SOL    HW123909   3.644   2.008  11.789
74004SOL    HW223910   3.527   2.104  11.797
74005SOL     OW23911   4.423   5.539  11.128
74005SOL    HW123912   4.390   5.558  11.040
74005SOL    HW223913   4.517   5.551  11.122
74006SOL     OW23914   6.101  14.778   7.765
74006SOL    HW123915   6.014  14.739   7.776
74006SOL    HW223916   6.123  14.764   7.673
74007SOL     OW23917  14.472   4.632  11.404
74007SOL    HW123918  14.521   4.552  11.384
74007SOL    HW223919  14.539   4.698  11.423
74008SOL     OW23920   3.007   2.690  13.866
74008SOL    HW123921   2.932   2.652  13.912
74008SOL    HW223922   3.025   2.628  13.795
74009SOL     OW23923  10.206  10.366   6.429
74009SOL    HW123924  10.215  10.311   6.351
74009SOL    HW223925  10.181  10.305   6.499
74010SOL     OW23926   8.147   6.207   2.389
74010SOL    HW123927   8.064   6.254   2.397
74010SOL    HW223928   8.180   6.230   2.302
74011SOL     OW23929   0.346   9.862   8.760
74011SOL    HW123930   0.283   9.811   8.811
74011SOL    HW223931   0.431   9.822   8.780
74012SOL     OW23932   5.612   1.132  10.364
74012SOL    HW123933   5.663   1.130  10.284
74012SOL    HW223934   5.664   1.184  10.425
74013SOL     OW23935   2.604   3.963   7.552
74013SOL    HW123936   2.517   3.995   7.575
74013SOL    HW223937   2.594   3.867   7.550
74014SOL     OW23938   9.554   3.284   1.714
74014SOL    HW123939   9.537   3.347   1.785
74014SOL    HW223940   9.568   3.338   1.637
74015SOL     OW23941  11.708   2.156  11.731
74015SOL    HW123942  11.737   2.067  11.712
74015SOL    HW223943  11.613   2.152  11.721
74016SOL     OW23944   2.918   8.316   6.782
74016SOL    HW123945   2.885   8.227   6.778
74016SOL    HW223946   2.869   8.358   6.853
74017SOL     OW23947   1.623   1.381   9.769
74017SOL    HW123948   1.647   1.463   9.725
74017SOL    HW223949   1.567   1.408   9.842
74018SOL     OW23950   0.733   7.449   4.333
74018SOL    HW123951   0.779   7.481   4.255
74018SOL    HW223952   0.658   7.401   4.299
74019SOL     OW23953   3.587   5.815  11.330
74019SOL    HW123954   3.610   5.788  11.242
74019SOL    HW223955   3.663   5.790  11.383
74020SOL     OW23956   1.281   3.481  13.227
74020SOL    HW123957   1.188   3.463  13.213
74020SOL    HW223958   1.303   3.546  13.160
74021SOL     OW23959   9.381  14.018   4.576
74021SOL    HW123960   9.468  14.017   4.536
74021SOL    HW223961   9.341  14.099   4.544
74022SOL     OW23962   0.154   1.444   9.680
74022SOL    HW123963   0.191   1.474   9.597
74022SOL    HW223964   0.123   1.523   9.724
74023SOL     OW23965   7.611   1.210   8.770
74023SOL    HW123966   7.610   1.303   8.747
74023SOL    HW223967   7.590   1.165   8.688
74024SOL     OW23968  10.507  10.722   4.973
74024SOL    HW123969  10.491  10.782   5.046
74024SOL    HW223970  10.603  10.723   4.963
74025SOL     OW23971   5.953   2.362   8.114
74025SOL    HW123972   5.858   2.367   8.105
74025SOL    HW223973   5.974   2.269   8.103
74026SOL     OW23974   5.182   4.703   5.054
74026SOL    HW123975   5.162   4.724   5.145
74026SOL    HW223976   5.097   4.697   5.011
74027SOL     OW23977   6.542  13.327  13.337
74027SOL    HW123978   6.449  13.331  13.360
74027SOL    HW223979   6.580  13.265  13.400
74028SOL     OW23980   3.712  11.286  12.420
74028SOL    HW123981   3.698  11.197  12.451
74028SOL    HW223982   3.660  11.340  12.480
74029SOL     OW23983  13.235   0.192  11.004
74029SOL    HW123984  13.232   0.156  11.092
74029SOL    HW223985  13.236   0.116  10.946
74030SOL     OW23986  14.105   9.466   5.159
74030SOL    HW123987  14.040   9.492   5.094
74030SOL    HW223988  14.105   9.537   5.224
74031SOL     OW23989  12.585   1.440   9.292
74031SOL    HW123990  12.605   1.452   9.199
74031SOL    HW223991  12.587   1.345   9.305
74032SOL     OW23992   1.065  14.807   3.892
74032SOL    HW123993   1.100   0.011   3.938
74032SOL    HW223994   1.143  14.758   3.865
74033SOL     OW23995   1.835   3.663  13.018
74033SOL    HW123996   1.777   3.611  12.962
74033SOL    HW223997   1.795   3.660  13.104
74034SOL     OW23998   5.919  10.453  14.171
74034SOL    HW123999   5.920  10.521  14.239
74034SOL    HW224000   6.000  10.404  14.185
74035SOL     OW24001   1.699   1.444   6.877
74035SOL    HW124002   1.726   1.354   6.856
74035SOL    HW224003   1.761   1.473   6.944
74036SOL     OW24004  12.904   9.853   7.198
74036SOL    HW124005  12.861   9.772   7.225
74036SOL    HW224006  12.866   9.872   7.112
74037SOL     OW24007  11.993   4.416   6.988
74037SOL    HW124008  11.927   4.367   6.940
74037SOL    HW224009  12.020   4.486   6.929
74038SOL     OW24010  11.763  12.834  12.398
74038SOL    HW124011  11.716  12.829  12.315
74038SOL    HW224012  11.798  12.923  12.401
74039SOL     OW24013   2.568   3.338   0.672
74039SOL    HW124014   2.520   3.379   0.744
74039SOL    HW224015   2.631   3.405   0.644
74040SOL     OW24016   4.955   2.550   8.435
74040SOL    HW124017   4.940   2.501   8.516
74040SOL    HW224018   4.962   2.641   8.464
74041SOL     OW24019   8.866   4.531   2.707
74041SOL    HW124020   8.852   4.624   2.689
74041SOL    HW224021   8.958   4.525   2.732
74042SOL     OW24022   4.572   9.608   6.305
74042SOL    HW124023   4.514   9.552   6.356
74042SOL    HW224024   4.609   9.669   6.368
74043SOL     OW24025   7.664  14.290   4.077
74043SOL    HW124026   7.741  14.346   4.069
74043SOL    HW224027   7.698  14.201   4.071
74044SOL     OW24028   4.825  11.720   3.473
74044SOL    HW124029   4.865  11.633   3.472
74044SOL    HW224030   4.899  11.780   3.476
74045SOL     OW24031   8.160   6.361   5.256
74045SOL    HW124032   8.153   6.276   5.212
74045SOL    HW224033   8.075   6.402   5.241
74046SOL     OW24034   8.660  10.308   2.458
74046SOL    HW124035   8.739  10.287   2.407
74046SOL    HW224036   8.686  10.295   2.549
74047SOL     OW24037  13.102   4.143   6.275
74047SOL    HW124038  13.087   4.183   6.361
74047SOL    HW224039  13.191   4.108   6.280
74048SOL     OW24040  13.443   9.002   1.100
74048SOL    HW124041  13.427   9.091   1.067
74048SOL    HW224042  13.356   8.968   1.120
74049SOL     OW24043  12.531  11.997   2.133
74049SOL    HW124044  12.464  12.008   2.066
74049SOL    HW224045  12.554  11.904   2.130
74050SOL     OW24046  11.121  10.758   8.469
74050SOL    HW124047  11.031  10.781   8.446
74050SOL    HW224048  11.129  10.784   8.561
74051SOL     OW24049  13.703  10.827  10.000
74051SOL    HW124050  13.700  10.809   9.906
74051SOL    HW224051  13.644  10.762  10.039
74052SOL     OW24052  11.574   4.428   1.582
74052SOL    HW124053  11.644   4.486   1.551
74052SOL    HW224054  11.603   4.400   1.669
74053SOL     OW24055   3.127   8.756   8.476
74053SOL    HW124056   3.212   8.781   8.440
74053SOL    HW224057   3.081   8.715   8.402
74054SOL     OW24058   2.273   2.616   8.333
74054SOL    HW124059   2.302   2.569   8.255
74054SOL    HW224060   2.255   2.705   8.303
74055SOL     OW24061  11.848   5.011   0.698
74055SOL    HW124062  11.938   5.026   0.670
74055SOL    HW224063  11.820   4.933   0.650
74056SOL     OW24064  10.194  13.336   5.002
74056SOL    HW124065  10.148  13.299   5.078
74056SOL    HW224066  10.283  13.352   5.034
74057SOL     OW24067   8.263  10.597   0.270
74057SOL    HW124068   8.305  10.627   0.351
74057SOL    HW224069   8.170  10.611   0.285
74058SOL     OW24070  13.433   9.050   2.186
74058SOL    HW124071  13.435   9.074   2.279
74058SOL    HW224072  13.416   9.132   2.141
74059SOL     OW24073   9.575   5.398  13.378
74059SOL    HW124074   9.648   5.457  13.355
74059SOL    HW224075   9.616   5.312  13.387
74060SOL     OW24076   3.144   1.092  14.359
74060SOL    HW124077   3.148   1.112  14.453
74060SOL    HW224078   3.079   1.021  14.353
74061SOL     OW24079   0.985   4.211   3.994
74061SOL    HW124080   0.910   4.271   3.988
74061SOL    HW224081   1.050   4.259   4.045
74062SOL     OW24082   9.308  14.299   2.436
74062SOL    HW124083   9.354  14.227   2.394
74062SOL    HW224084   9.257  14.339   2.365
74063SOL     OW24085  14.380   9.303  13.256
74063SOL    HW124086  14.388   9.231  13.194
74063SOL    HW224087  14.447   9.366  13.229
74064SOL     OW24088   8.560   7.127  11.028
74064SOL    HW124089   8.652   7.130  11.002
74064SOL    HW224090   8.551   7.196  11.093
74065SOL     OW24091   2.092   0.440   9.439
74065SOL    HW124092   2.156   0.428   9.510
74065SOL    HW224093   2.105   0.530   9.410
74066SOL     OW24094   2.016  11.663   6.497
74066SOL    HW124095   1.932  11.704   6.476
74066SOL    HW224096   2.009  11.574   6.462
74067SOL     OW24097  13.950  10.389  10.389
74067SOL    HW124098  13.919  10.479  10.388
74067SOL    HW224099  13.900  10.346  10.319
74068SOL     OW24100   3.216  10.658   0.977
74068SOL    HW124101   3.161  10.735   0.967
74068SOL    HW224102   3.290  10.687   1.030
74069SOL     OW24103  12.110   1.460   2.006
74069SOL    HW124104  12.075   1.532   2.058
74069SOL    HW224105  12.121   1.496   1.918
74070SOL     OW24106   9.669  13.746   2.300
74070SOL    HW124107   9.632  13.682   2.239
74070SOL    HW224108   9.611  13.741   2.377
74071SOL     OW24109  14.359  12.079   8.543
74071SOL    HW124110  14.439  12.057   8.496
74071SOL    HW224111  14.351  12.010   8.610
74072SOL     OW24112  13.447   4.349   8.390
74072SOL    HW124113  13.503   4.379   8.319
74072SOL    HW224114  13.503   4.352   8.468
74073SOL     OW24115   4.445  11.401   5.033
74073SOL    HW124116   4.446  11.347   4.954
74073SOL    HW224117   4.507  11.358   5.092
74074SOL     OW24118   4.049   9.743  11.562
74074SOL    HW124119   4.092   9.675  11.614
74074SOL    HW224120   3.966   9.757  11.606
74075SOL     OW24121  11.940   2.927   6.076
74075SOL    HW124122  12.029   2.961   6.079
74075SOL    HW224123  11.930   2.893   5.988
74076SOL     OW24124  12.372  11.732   3.184
74076SOL    HW124125  12.309  11.787   3.137
74076SOL    HW224126  12.394  11.783   3.263
74077SOL     OW24127   1.252  13.577  11.775
74077SOL    HW124128   1.244  13.586  11.680
74077SOL    HW224129   1.340  13.609  11.795
74078SOL     OW24130   8.134   6.751   2.562
74078SOL    HW124131   8.119   6.658   2.580
74078SOL    HW224132   8.196   6.779   2.629
74079SOL     OW24133   7.175   4.253   8.527
74079SOL    HW124134   7.144   4.211   8.607
74079SOL    HW224135   7.270   4.257   8.538
74080SOL     OW24136  10.886  11.051   4.526
74080SOL    HW124137  10.884  11.133   4.476
74080SOL    HW224138  10.978  11.038   4.548
74081SOL     OW24139   2.695   8.512   9.820
74081SOL    HW124140   2.686   8.434   9.875
74081SOL    HW224141   2.780   8.549   9.846
74082SOL     OW24142   2.248   5.643   3.161
74082SOL    HW124143   2.334   5.635   3.118
74082SOL    HW224144   2.251   5.579   3.231
74083SOL     OW24145   6.092   3.758   7.074
74083SOL    HW124146   6.092   3.788   6.983
74083SOL    HW224147   6.163   3.808   7.115
74084SOL     OW24148   8.809  11.281   7.010
74084SOL    HW124149   8.825  11.361   7.060
74084SOL    HW224150   8.892  11.263   6.965
74085SOL     OW24151   9.573  12.983  10.641
74085SOL    HW124152   9.530  13.048  10.585
74085SOL    HW224153   9.546  12.899  10.604
74086SOL     OW24154   2.455   9.155  11.643
74086SOL    HW124155   2.444   9.113  11.729
74086SOL    HW224156   2.478   9.245  11.664
74087SOL     OW24157   8.390   8.029   0.194
74087SOL    HW124158   8.315   8.072   0.153
74087SOL    HW224159   8.463   8.088   0.178
74088SOL     OW24160   6.161   6.331   8.992
74088SOL    HW124161   6.235   6.288   9.034
74088SOL    HW224162   6.191   6.421   8.976
74089SOL     OW24163  14.857   7.135   4.717
74089SOL    HW124164  14.773   7.099   4.746
74089SOL    HW224165   0.040   7.138   4.795
74090SOL     OW24166   8.200   7.126   9.005
74090SOL    HW124167   8.166   7.073   8.933
74090SOL    HW224168   8.292   7.099   9.014
74091SOL     OW24169   8.239  10.792  12.152
74091SOL    HW124170   8.314  10.851  12.144
74091SOL    HW224171   8.210  10.802  12.242
74092SOL     OW24172   1.684   3.396   6.517
74092SOL    HW124173   1.724   3.413   6.431
74092SOL    HW224174   1.660   3.304   6.515
74093SOL     OW24175   6.516   9.959   4.932
74093SOL    HW124176   6.484   9.998   5.013
74093SOL    HW224177   6.553  10.032   4.883
74094SOL     OW24178   9.629   4.569   5.979
74094SOL    HW124179   9.667   4.538   6.061
74094SOL    HW224180   9.571   4.641   6.006
74095SOL     OW24181   6.758   8.183   0.070
74095SOL    HW124182   6.841   8.165   0.026
74095SOL    HW224183   6.759   8.278   0.087
74096SOL     OW24184   0.485   4.561   7.484
74096SOL    HW124185   0.448   4.473   7.481
74096SOL    HW224186   0.562   4.553   7.540
74097SOL     OW24187   9.076   4.889   3.135
74097SOL    HW124188   9.073   4.968   3.189
74097SOL    HW224189   9.050   4.919   3.048
74098SOL     OW24190   9.568   2.839   6.804
74098SOL    HW124191   9.555   2.929   6.834
74098SOL    HW224192   9.487   2.818   6.757
74099SOL     OW24193   8.282  10.962  14.507
74099SOL    HW124194   8.193  10.968  14.472
74099SOL    HW224195   8.285  10.876  14.551
74100SOL     OW24196   8.508  14.766   4.239
74100SOL    HW124197   8.495  14.775   4.334
74100SOL    HW224198   8.599  14.737   4.230
74101SOL     OW24199   9.680   5.080  13.418
74101SOL    HW124200   9.725   5.090  13.334
74101SOL    HW224201   9.595   5.044  13.395
74102SOL     OW24202   7.923   9.792   6.147
74102SOL    HW124203   8.003   9.746   6.125
74102SOL    HW224204   7.862   9.771   6.075
74103SOL     OW24205   3.033  13.179  13.023
74103SOL    HW124206   3.049  13.270  13.048
74103SOL    HW224207   2.966  13.185  12.954
74104SOL     OW24208   8.830   5.494   7.919
74104SOL    HW124209   8.768   5.538   7.860
74104SOL    HW224210   8.796   5.512   8.007
74105SOL     OW24211   9.646  14.131   6.843
74105SOL    HW124212   9.712  14.063   6.856
74105SOL    HW224213   9.591  14.126   6.922
74106SOL     OW24214   8.504   7.634   5.644
74106SOL    HW124215   8.518   7.571   5.572
74106SOL    HW224216   8.524   7.584   5.723
74107SOL     OW24217   9.012  13.958  10.095
74107SOL    HW124218   9.069  13.912  10.156
74107SOL    HW224219   8.981  14.035  10.144
74108SOL     OW24220   1.312   1.480   7.366
74108SOL    HW124221   1.240   1.489   7.303
74108SOL    HW224222   1.391   1.490   7.314
74109SOL     OW24223   2.701   1.729   4.587
74109SOL    HW124224   2.766   1.682   4.639
74109SOL    HW224225   2.712   1.695   4.498
74110SOL     OW24226  13.138  12.092   0.592
74110SOL    HW124227  13.083  12.022   0.557
74110SOL    HW224228  13.177  12.133   0.515
74111SOL     OW24229   8.203   3.390   5.730
74111SOL    HW124230   8.150   3.457   5.775
74111SOL    HW224231   8.240   3.436   5.655
74112SOL     OW24232   1.513  11.522   8.451
74112SOL    HW124233   1.500  11.582   8.525
74112SOL    HW224234   1.452  11.450   8.468
74113SOL     OW24235   4.218  13.850  11.439
74113SOL    HW124236   4.299  13.881  11.399
74113SOL    HW224237   4.238  13.761  11.470
74114SOL     OW24238  13.546  12.646  10.797
74114SOL    HW124239  13.475  12.608  10.849
74114SOL    HW224240  13.526  12.619  10.707
74115SOL     OW24241  13.789   8.165  10.281
74115SOL    HW124242  13.696   8.175  10.300
74115SOL    HW224243  13.828   8.249  10.308
74116SOL     OW24244   5.958   5.890  11.824
74116SOL    HW124245   6.018   5.860  11.893
74116SOL    HW224246   5.871   5.886  11.864
74117SOL     OW24247   5.448   1.708   8.575
74117SOL    HW124248   5.381   1.774   8.558
74117SOL    HW224249   5.429   1.638   8.513
74118SOL     OW24250  10.904   6.403  12.633
74118SOL    HW124251  10.838   6.439  12.574
74118SOL    HW224252  10.900   6.308  12.618
74119SOL     OW24253   7.637   3.524   8.332
74119SOL    HW124254   7.676   3.539   8.418
74119SOL    HW224255   7.560   3.581   8.331
74120SOL     OW24256  10.474   9.098   1.857
74120SOL    HW124257  10.385   9.132   1.847
74120SOL    HW224258  10.464   9.003   1.863
74121SOL     OW24259  10.486  14.284  14.722
74121SOL    HW124260  10.499  14.373  14.688
74121SOL    HW224261  10.411  14.250  14.673
74122SOL     OW24262   6.821   9.668  14.498
74122SOL    HW124263   6.853   9.588  14.541
74122SOL    HW224264   6.847   9.658  14.407
74123SOL     OW24265   7.743   0.369  12.081
74123SOL    HW124266   7.687   0.351  12.156
74123SOL    HW224267   7.754   0.464  12.081
74124SOL     OW24268  10.616  11.271  14.391
74124SOL    HW124269  10.566  11.340  14.435
74124SOL    HW224270  10.665  11.228  14.461
74125SOL     OW24271   5.720   3.206   7.757
74125SOL    HW124272   5.653   3.223   7.824
74125SOL    HW224273   5.803   3.225   7.801
74126SOL     OW24274   2.520   9.554  14.360
74126SOL    HW124275   2.518   9.477  14.303
74126SOL    HW224276   2.603   9.547  14.407
74127SOL     OW24277   9.707   7.191  12.582
74127SOL    HW124278   9.650   7.129  12.537
74127SOL    HW224279   9.663   7.276  12.571
74128SOL     OW24280   5.071  11.276   3.835
74128SOL    HW124281   5.147  11.229   3.801
74128SOL    HW224282   5.081  11.272   3.931
74129SOL     OW24283  14.693  11.235  13.868
74129SOL    HW124284  14.772  11.207  13.823
74129SOL    HW224285  14.721  11.251  13.958
74130SOL     OW24286   8.679  11.252   3.055
74130SOL    HW124287   8.590  11.248   3.091
74130SOL    HW224288   8.716  11.332   3.092
74131SOL     OW24289   7.193   5.806   0.732
74131SOL    HW124290   7.252   5.879   0.747
74131SOL    HW224291   7.131   5.838   0.667
74132SOL     OW24292  12.648  14.798  12.974
74132SOL    HW124293  12.722  14.850  12.941
74132SOL    HW224294  12.690  14.726  13.022
74133SOL     OW24295   3.634   5.173   7.181
74133SOL    HW124296   3.722   5.163   7.145
74133SOL    HW224297   3.576   5.144   7.110
74134SOL     OW24298  13.600  11.631   5.766
74134SOL    HW124299  13.648  11.556   5.730
74134SOL    HW224300  13.665  11.701   5.772
74135SOL     OW24301   5.513   2.561  12.198
74135SOL    HW124302   5.430   2.596  12.228
74135SOL    HW224303   5.574   2.576  12.270
74136SOL     OW24304  11.572   9.445   8.509
74136SOL    HW124305  11.536   9.389   8.578
74136SOL    HW224306  11.500   9.502   8.484
74137SOL     OW24307   3.462   0.733   6.101
74137SOL    HW124308   3.529   0.801   6.088
74137SOL    HW224309   3.445   0.700   6.013
74138SOL     OW24310   5.507   2.797   8.008
74138SOL    HW124311   5.545   2.841   7.932
74138SOL    HW224312   5.523   2.704   7.993
74139SOL     OW24313  10.010   2.494   5.198
74139SOL    HW124314   9.970   2.516   5.282
74139SOL    HW224315   9.979   2.406   5.178
74140SOL     OW24316   8.915  10.790   2.304
74140SOL    HW124317   8.903  10.708   2.256
74140SOL    HW224318   8.936  10.854   2.236
74141SOL     OW24319   2.214   7.963   0.969
74141SOL    HW124320   2.168   8.042   0.998
74141SOL    HW224321   2.244   7.985   0.880
74142SOL     OW24322   7.392  10.508  10.712
74142SOL    HW124323   7.438  10.573  10.660
74142SOL    HW224324   7.413  10.424  10.671
74143SOL     OW24325   2.478   9.181   3.892
74143SOL    HW124326   2.570   9.160   3.910
74143SOL    HW224327   2.448   9.225   3.972
74144SOL     OW24328  14.364   0.024  10.825
74144SOL    HW124329  14.413  14.814  10.810
74144SOL    HW224330  14.356   0.064  10.739
74145SOL     OW24331   2.862   4.598  14.012
74145SOL    HW124332   2.920   4.523  13.998
74145SOL    HW224333   2.918   4.674  13.998
74146SOL     OW24334   3.250  14.865   6.677
74146SOL    HW124335   3.159   0.005   6.650
74146SOL    HW224336   3.298   0.061   6.630
74147SOL     OW24337   7.450  13.767  11.086
74147SOL    HW124338   7.368  13.762  11.135
74147SOL    HW224339   7.456  13.684  11.039
74148SOL     OW24340   6.341   9.155   2.481
74148SOL    HW124341   6.410   9.218   2.501
74148SOL    HW224342   6.351   9.137   2.388
74149SOL     OW24343  11.396   1.753   9.625
74149SOL    HW124344  11.382   1.660   9.607
74149SOL    HW224345  11.315   1.783   9.665
74150SOL     OW24346  10.983   9.529   7.823
74150SOL    HW124347  10.888   9.523   7.810
74150SOL    HW224348  11.015   9.576   7.745
74151SOL     OW24349   3.117   0.696   6.023
74151SOL    HW124350   3.027   0.697   5.991
74151SOL    HW224351   3.138   0.788   6.040
74152SOL     OW24352   0.638  14.774   4.800
74152SOL    HW124353   0.678  14.861   4.809
74152SOL    HW224354   0.644  14.754   4.707
74153SOL     OW24355  11.628  14.821   6.131
74153SOL    HW124356  11.638  14.845   6.223
74153SOL    HW224357  11.607  14.727   6.133
74154SOL     OW24358   0.897   5.392   0.564
74154SOL    HW124359   0.946   5.456   0.615
74154SOL    HW224360   0.920   5.410   0.473
74155SOL     OW24361  12.047   7.607   4.209
74155SOL    HW124362  12.091   7.558   4.140
74155SOL    HW224363  12.026   7.541   4.275
74156SOL     OW24364  12.416  13.902   3.068
74156SOL    HW124365  12.477  13.970   3.040
74156SOL    HW224366  12.436  13.827   3.013
74157SOL     OW24367   5.788  12.976   9.833
74157SOL    HW124368   5.727  12.903   9.838
74157SOL    HW224369   5.842  12.957   9.756
74158SOL     OW24370   5.516   9.541   0.479
74158SOL    HW124371   5.564   9.623   0.473
74158SOL    HW224372   5.467   9.547   0.561
74159SOL     OW24373   9.197   1.071   3.266
74159SOL    HW124374   9.115   1.027   3.243
74159SOL    HW224375   9.179   1.114   3.349
74160SOL     OW24376   6.683   3.332  14.349
74160SOL    HW124377   6.756   3.346  14.409
74160SOL    HW224378   6.639   3.253  14.382
74161SOL     OW24379   8.493  12.413   7.923
74161SOL    HW124380   8.466  12.323   7.905
74161SOL    HW224381   8.496  12.419   8.019
74162SOL     OW24382   7.518  12.404   1.009
74162SOL    HW124383   7.475  12.451   0.937
74162SOL    HW224384   7.549  12.323   0.970
74163SOL     OW24385  10.191   9.020   8.980
74163SOL    HW124386  10.107   9.065   8.971
74163SOL    HW224387  10.242   9.076   9.040
74164SOL     OW24388   1.522   2.990   9.849
74164SOL    HW124389   1.517   3.031   9.763
74164SOL    HW224390   1.586   2.920   9.839
74165SOL     OW24391  12.706   4.959   8.405
74165SOL    HW124392  12.741   4.895   8.467
74165SOL    HW224393  12.734   4.926   8.319
74166SOL     OW24394   5.038  14.149  12.960
74166SOL    HW124395   5.107  14.123  12.899
74166SOL    HW224396   5.074  14.130  13.047
74167SOL     OW24397   0.845  14.073   5.816
74167SOL    HW124398   0.753  14.080   5.792
74167SOL    HW224399   0.848  14.104   5.906
74168SOL     OW24400   4.571   5.579   3.713
74168SOL    HW124401   4.620   5.508   3.755
74168SOL    HW224402   4.534   5.629   3.786
74169SOL     OW24403   9.194   0.176  12.436
74169SOL    HW124404   9.279   0.204  12.402
74169SOL    HW224405   9.162   0.113  12.372
74170SOL     OW24406   6.507   6.990   7.129
74170SOL    HW124407   6.529   6.961   7.040
74170SOL    HW224408   6.591   6.993   7.175
74171SOL     OW24409   6.661   9.676   6.978
74171SOL    HW124410   6.724   9.625   7.030
74171SOL    HW224411   6.682   9.655   6.887
74172SOL     OW24412  14.361   4.976   3.625
74172SOL    HW124413  14.293   4.929   3.673
74172SOL    HW224414  14.385   4.917   3.553
74173SOL     OW24415   0.380  12.733   8.722
74173SOL    HW124416   0.344  12.670   8.660
74173SOL    HW224417   0.377  12.689   8.806
74174SOL     OW24418   9.244  10.700   8.197
74174SOL    HW124419   9.251  10.662   8.110
74174SOL    HW224420   9.331  10.735   8.215
74175SOL     OW24421   3.820   3.593   0.290
74175SOL    HW124422   3.826   3.648   0.212
74175SOL    HW224423   3.902   3.609   0.336
74176SOL     OW24424   9.551   9.178   2.518
74176SOL    HW124425   9.457   9.174   2.531
74176SOL    HW224426   9.576   9.266   2.545
74177SOL     OW24427   1.934   4.193  10.234
74177SOL    HW124428   1.892   4.118  10.192
74177SOL    HW224429   2.014   4.157  10.272
74178SOL     OW24430  14.019  12.594  10.984
74178SOL    HW124431  13.977  12.657  10.925
74178SOL    HW224432  14.005  12.631  11.071
74179SOL     OW24433   8.427  11.485  14.721
74179SOL    HW124434   8.503  11.433  14.695
74179SOL    HW224435   8.422  11.474  14.816
74180SOL     OW24436   3.691   4.682   7.626
74180SOL    HW124437   3.626   4.684   7.556
74180SOL    HW224438   3.711   4.589   7.637
74181SOL     OW24439   7.535   0.348   6.723
74181SOL    HW124440   7.444   0.364   6.697
74181SOL    HW224441   7.529   0.286   6.795
74182SOL     OW24442   7.111  12.593   7.983
74182SOL    HW124443   7.131  12.674   7.937
74182SOL    HW224444   7.070  12.537   7.917
74183SOL     OW24445   7.185   8.058   2.534
74183SOL    HW124446   7.105   8.082   2.581
74183SOL    HW224447   7.161   8.062   2.441
74184SOL     OW24448   0.711   6.272   0.628
74184SOL    HW124449   0.657   6.193   0.635
74184SOL    HW224450   0.774   6.264   0.700
74185SOL     OW24451  11.180   2.256   7.367
74185SOL    HW124452  11.106   2.199   7.347
74185SOL    HW224453  11.255   2.196   7.375
74186SOL     OW24454   5.610  14.848   4.330
74186SOL    HW124455   5.564  14.765   4.318
74186SOL    HW224456   5.581   0.008   4.416
74187SOL     OW24457   4.464   2.764   6.645
74187SOL    HW124458   4.527   2.698   6.615
74187SOL    HW224459   4.428   2.800   6.564
74188SOL     OW24460   4.660  11.438   4.760
74188SOL    HW124461   4.696  11.432   4.671
74188SOL    HW224462   4.587  11.377   4.761
74189SOL     OW24463   5.879  14.017  12.986
74189SOL    HW124464   5.915  14.020  13.074
74189SOL    HW224465   5.809  13.952  12.991
74190SOL     OW24466  10.616  13.106  12.270
74190SOL    HW124467  10.555  13.180  12.277
74190SOL    HW224468  10.627  13.076  12.360
74191SOL     OW24469   9.722   1.186   0.291
74191SOL    HW124470   9.760   1.245   0.357
74191SOL    HW224471   9.721   1.100   0.334
74192SOL     OW24472  14.402  10.019   6.779
74192SOL    HW124473  14.441   9.940   6.815
74192SOL    HW224474  14.477  10.072   6.752
74193SOL     OW24475   0.649   4.365  12.281
74193SOL    HW124476   0.685   4.417  12.209
74193SOL    HW224477   0.650   4.425  12.356
74194SOL     OW24478  12.207   4.765   7.417
74194SOL    HW124479  12.145   4.744   7.347
74194SOL    HW224480  12.241   4.851   7.393
74195SOL     OW24481  10.135   3.493   0.807
74195SOL    HW124482  10.210   3.551   0.806
74195SOL    HW224483  10.109   3.488   0.900
74196SOL     OW24484   1.181  11.477  10.441
74196SOL    HW124485   1.262  11.447  10.401
74196SOL    HW224486   1.202  11.486  10.534
74197SOL     OW24487  11.172   0.687   7.537
74197SOL    HW124488  11.153   0.616   7.599
74197SOL    HW224489  11.100   0.686   7.475
74198SOL     OW24490   4.553   5.790   7.661
74198SOL    HW124491   4.479   5.738   7.692
74198SOL    HW224492   4.547   5.871   7.711
74199SOL     OW24493   6.512  13.038  13.075
74199SOL    HW124494   6.515  13.076  12.987
74199SOL    HW224495   6.430  13.070  13.112
74200SOL     OW24496  12.329   6.949   2.029
74200SOL    HW124497  12.358   7.041   2.033
74200SOL    HW224498  12.269   6.947   1.954
74201SOL     OW24499   1.383   4.532  14.269
74201SOL    HW124500   1.383   4.553  14.176
74201SOL    HW224501   1.293   4.507  14.288
74202SOL     OW24502   8.934   5.273   1.861
74202SOL    HW124503   8.922   5.365   1.839
74202SOL    HW224504   8.924   5.270   1.957
74203SOL     OW24505  11.337  10.964   5.990
74203SOL    HW124506  11.429  10.956   5.968
74203SOL    HW224507  11.302  11.026   5.925
74204SOL     OW24508   7.875  11.583   3.169
74204SOL    HW124509   7.910  11.494   3.157
74204SOL    HW224510   7.784  11.569   3.195
74205SOL     OW24511  12.004   6.042   8.227
74205SOL    HW124512  12.026   5.991   8.148
74205SOL    HW224513  12.051   6.125   8.215
74206SOL     OW24514  12.128   5.985   8.476
74206SOL    HW124515  12.060   5.987   8.409
74206SOL    HW224516  12.192   6.050   8.446
74207SOL     OW24517   3.507  10.401   4.657
74207SOL    HW124518   3.555  10.324   4.685
74207SOL    HW224519   3.547  10.474   4.705
74208SOL     OW24520  14.196   2.803   4.784
74208SOL    HW124521  14.132   2.734   4.800
74208SOL    HW224522  14.270   2.759   4.742
74209SOL     OW24523  14.708   8.054   9.114
74209SOL    HW124524  14.624   8.027   9.151
74209SOL    HW224525  14.685   8.112   9.041
74210SOL     OW24526   2.209   6.310  11.201
74210SOL    HW124527   2.123   6.303  11.241
74210SOL    HW224528   2.206   6.393  11.153
74211SOL     OW24529   8.794   8.909  11.655
74211SOL    HW124530   8.715   8.956  11.626
74211SOL    HW224531   8.804   8.838  11.592
74212SOL     OW24532  11.756   3.121   1.515
74212SOL    HW124533  11.842   3.155   1.489
74212SOL    HW224534  11.776   3.044   1.569
74213SOL     OW24535  13.112   0.503   7.864
74213SOL    HW124536  13.058   0.462   7.796
74213SOL    HW224537  13.202   0.474   7.844
74214SOL     OW24538  10.921   3.087   5.870
74214SOL    HW124539  10.992   3.059   5.928
74214SOL    HW224540  10.860   3.013   5.868
74215SOL     OW24541   7.266   4.815   2.806
74215SOL    HW124542   7.300   4.785   2.722
74215SOL    HW224543   7.337   4.801   2.868
74216SOL     OW24544   3.132   2.458   5.158
74216SOL    HW124545   3.078   2.538   5.160
74216SOL    HW224546   3.125   2.427   5.068
74217SOL     OW24547   5.786  11.519   3.875
74217SOL    HW124548   5.762  11.575   3.801
74217SOL    HW224549   5.704  11.479   3.902
74218SOL     OW24550   8.909   1.052   8.055
74218SOL    HW124551   8.890   1.140   8.088
74218SOL    HW224552   8.830   1.002   8.073
74219SOL     OW24553  12.652   0.643   5.303
74219SOL    HW124554  12.663   0.680   5.390
74219SOL    HW224555  12.616   0.556   5.318
74220SOL     OW24556  11.043   1.779   6.607
74220SOL    HW124557  11.088   1.744   6.683
74220SOL    HW224558  10.952   1.790   6.636
74221SOL     OW24559   9.853   5.968  13.285
74221SOL    HW124560   9.805   5.889  13.307
74221SOL    HW224561   9.816   6.035  13.342
74222SOL     OW24562  12.234   5.760  11.178
74222SOL    HW124563  12.147   5.742  11.144
74222SOL    HW224564  12.271   5.673  11.196
74223SOL     OW24565   3.989  10.517  12.375
74223SOL    HW124566   4.033  10.449  12.323
74223SOL    HW224567   3.896  10.502  12.360
74224SOL     OW24568   8.231   3.895   6.412
74224SOL    HW124569   8.323   3.918   6.396
74224SOL    HW224570   8.235   3.833   6.484
74225SOL     OW24571   3.706   3.816  12.540
74225SOL    HW124572   3.789   3.775  12.519
74225SOL    HW224573   3.660   3.823  12.457
74226SOL     OW24574   2.958  14.734  14.503
74226SOL    HW124575   2.992  14.821  14.519
74226SOL    HW224576   3.032  14.685  14.465
74227SOL     OW24577   2.241  14.282  11.090
74227SOL    HW124578   2.256  14.224  11.016
74227SOL    HW224579   2.152  14.316  11.076
74228SOL     OW24580   4.920  14.265  14.063
74228SOL    HW124581   4.906  14.298  14.152
74228SOL    HW224582   4.985  14.196  14.073
74229SOL     OW24583  11.449   7.161   5.436
74229SOL    HW124584  11.364   7.182   5.475
74229SOL    HW224585  11.487   7.096   5.496
74230SOL     OW24586  11.821   1.349  14.166
74230SOL    HW124587  11.796   1.365  14.257
74230SOL    HW224588  11.741   1.362  14.116
74231SOL     OW24589   4.746   5.269  14.839
74231SOL    HW124590   4.748   5.176  14.861
74231SOL    HW224591   4.723   5.271  14.746
74232SOL     OW24592  14.360   0.812  10.408
74232SOL    HW124593  14.272   0.811  10.445
74232SOL    HW224594  14.418   0.829  10.482
74233SOL     OW24595   7.868   7.067  11.387
74233SOL    HW124596   7.916   7.026  11.314
74233SOL    HW224597   7.898   7.157  11.388
74234SOL     OW24598   2.943   0.582   0.359
74234SOL    HW124599   2.983   0.522   0.423
74234SOL    HW224600   2.893   0.525   0.301
74235SOL     OW24601  13.983   9.775   8.352
74235SOL    HW124602  14.041   9.765   8.427
74235SOL    HW224603  13.921   9.703   8.359
74236SOL     OW24604   3.240  10.638   9.156
74236SOL    HW124605   3.255  10.730   9.134
74236SOL    HW224606   3.328  10.602   9.171
74237SOL     OW24607  10.812  13.242  10.479
74237SOL    HW124608  10.737  13.276  10.527
74237SOL    HW224609  10.795  13.148  10.472
74238SOL     OW24610   5.800   9.646   9.362
74238SOL    HW124611   5.714   9.607   9.377
74238SOL    HW224612   5.862   9.581   9.397
74239SOL     OW24613   3.100   8.367   1.877
74239SOL    HW124614   3.138   8.420   1.948
74239SOL    HW224615   3.136   8.406   1.797
74240SOL     OW24616  10.926  10.950   5.497
74240SOL    HW124617  10.857  11.010   5.470
74240SOL    HW224618  10.981  10.939   5.419
74241SOL     OW24619   1.226   0.935   0.504
74241SOL    HW124620   1.193   1.002   0.443
74241SOL    HW224621   1.173   0.948   0.583
74242SOL     OW24622   4.287   9.518  13.454
74242SOL    HW124623   4.224   9.585  13.480
74242SOL    HW224624   4.259   9.439  13.500
74243SOL     OW24625   3.375   0.783   3.665
74243SOL    HW124626   3.454   0.744   3.704
74243SOL    HW224627   3.322   0.810   3.740
74244SOL     OW24628   3.148   1.133   4.993
74244SOL    HW124629   3.195   1.140   4.910
74244SOL    HW224630   3.162   1.042   5.021
74245SOL     OW24631  10.015  14.216   2.100
74245SOL    HW124632  10.009  14.120   2.107
74245SOL    HW224633  10.065  14.230   2.019
74246SOL     OW24634  11.919  10.507   4.147
74246SOL    HW124635  11.948  10.589   4.107
74246SOL    HW224636  11.987  10.488   4.212
74247SOL     OW24637   5.589   9.804  12.180
74247SOL    HW124638   5.669   9.793  12.127
74247SOL    HW224639   5.567   9.897  12.171
74248SOL     OW24640   8.596  11.629   6.889
74248SOL    HW124641   8.506  11.602   6.905
74248SOL    HW224642   8.630  11.651   6.975
74249SOL     OW24643   4.478   1.007   6.323
74249SOL    HW124644   4.554   0.973   6.277
74249SOL    HW224645   4.512   1.077   6.379
74250SOL     OW24646   3.741  14.640  11.079
74250SOL    HW124647   3.758  14.641  10.985
74250SOL    HW224648   3.645  14.637  11.086
74251SOL     OW24649  11.767   8.437   6.077
74251SOL    HW124650  11.784   8.473   5.990
74251SOL    HW224651  11.694   8.489   6.110
74252SOL     OW24652  11.806   6.192   6.350
74252SOL    HW124653  11.730   6.182   6.408
74252SOL    HW224654  11.801   6.116   6.291
74253SOL     OW24655   0.666   6.056   6.023
74253SOL    HW124656   0.702   5.972   6.051
74253SOL    HW224657   0.724   6.121   6.063
74254SOL     OW24658   2.610   4.551   0.032
74254SOL    HW124659   2.601   4.644   0.054
74254SOL    HW224660   2.704   4.540   0.015
74255SOL     OW24661  11.885  10.618   3.322
74255SOL    HW124662  11.848  10.706   3.315
74255SOL    HW224663  11.975  10.631   3.351
74256SOL     OW24664   3.779   3.669  14.051
74256SOL    HW124665   3.784   3.727  13.974
74256SOL    HW224666   3.803   3.583  14.018
74257SOL     OW24667   0.893   0.215  11.919
74257SOL    HW124668   0.908   0.293  11.972
74257SOL    HW224669   0.835   0.160  11.971
74258SOL     OW24670   2.833   2.888   8.516
74258SOL    HW124671   2.809   2.924   8.601
74258SOL    HW224672   2.927   2.905   8.508
74259SOL     OW24673  14.666  10.073   0.122
74259SOL    HW124674  14.704  10.149   0.080
74259SOL    HW224675  14.611  10.033   0.055
74260SOL     OW24676   7.110   0.598  11.451
74260SOL    HW124677   7.119   0.630  11.361
74260SOL    HW224678   7.183   0.638  11.498
74261SOL     OW24679   9.547   1.383   1.623
74261SOL    HW124680   9.455   1.382   1.597
74261SOL    HW224681   9.581   1.299   1.594
74262SOL     OW24682   8.039   9.232   9.034
74262SOL    HW124683   8.093   9.161   9.000
74262SOL    HW224684   7.962   9.189   9.071
74263SOL     OW24685   0.249  14.682  10.338
74263SOL    HW124686   0.228  14.720  10.423
74263SOL    HW224687   0.210  14.594  10.341
74264SOL     OW24688  13.363   5.212   3.108
74264SOL    HW124689  13.436   5.154   3.087
74264SOL    HW224690  13.287   5.154   3.118
74265SOL     OW24691  12.751   5.919  12.797
74265SOL    HW124692  12.841   5.892  12.814
74265SOL    HW224693  12.751   6.014  12.813
74266SOL     OW24694   8.971  14.288   4.630
74266SOL    HW124695   8.916  14.338   4.690
74266SOL    HW224696   8.912  14.226   4.589
74267SOL     OW24697   1.680   3.414   8.146
74267SOL    HW124698   1.745   3.429   8.078
74267SOL    HW224699   1.610   3.476   8.125
74268SOL     OW24700   2.692   9.552   8.603
74268SOL    HW124701   2.788   9.546   8.606
74268SOL    HW224702   2.672   9.577   8.513
74269SOL     OW24703   7.766   0.216   4.946
74269SOL    HW124704   7.795   0.272   5.018
74269SOL    HW224705   7.782   0.269   4.868
74270SOL     OW24706  12.810  10.918   8.730
74270SOL    HW124707  12.727  10.960   8.753
74270SOL    HW224708  12.869  10.942   8.802
74271SOL     OW24709   1.359   9.752   7.588
74271SOL    HW124710   1.400   9.756   7.501
74271SOL    HW224711   1.393   9.829   7.634
74272SOL     OW24712  10.364   4.383   4.460
74272SOL    HW124713  10.356   4.326   4.383
74272SOL    HW224714  10.285   4.438   4.457
74273SOL     OW24715   0.475   0.049   2.238
74273SOL    HW124716   0.444  14.835   2.206
74273SOL    HW224717   0.561   0.031   2.275
74274SOL     OW24718  10.564   8.789   9.866
74274SOL    HW124719  10.595   8.879   9.865
74274SOL    HW224720  10.575   8.759   9.776
74275SOL     OW24721  14.225   0.494  12.540
74275SOL    HW124722  14.253   0.414  12.584
74275SOL    HW224723  14.254   0.483  12.450
74276SOL     OW24724  14.095   9.259   4.800
74276SOL    HW124725  14.024   9.304   4.846
74276SOL    HW224726  14.172   9.275   4.854
74277SOL     OW24727   3.508   4.725   6.653
74277SOL    HW124728   3.474   4.653   6.600
74277SOL    HW224729   3.574   4.766   6.597
74278SOL     OW24730   3.738   7.102   9.766
74278SOL    HW124731   3.789   7.183   9.757
74278SOL    HW224732   3.744   7.061   9.680
74279SOL     OW24733   8.810  14.580  10.804
74279SOL    HW124734   8.881  14.569  10.868
74279SOL    HW224735   8.847  14.547  10.722
74280SOL     OW24736  13.687  12.944   0.251
74280SOL    HW124737  13.746  12.900   0.313
74280SOL    HW224738  13.643  13.011   0.303
74281SOL     OW24739   2.450  10.610   5.300
74281SOL    HW124740   2.397  10.572   5.370
74281SOL    HW224741   2.450  10.704   5.319
74282SOL     OW24742   0.719  10.011   2.018
74282SOL    HW124743   0.734  10.025   2.112
74282SOL    HW224744   0.807  10.003   1.981
74283SOL     OW24745   1.026  12.372   4.243
74283SOL    HW124746   1.031  12.434   4.316
74283SOL    HW224747   1.044  12.287   4.283
74284SOL     OW24748  12.967  10.580   4.104
74284SOL    HW124749  12.915  10.571   4.185
74284SOL    HW224750  12.930  10.656   4.060
74285SOL     OW24751   9.779   0.032   4.979
74285SOL    HW124752   9.746  14.860   5.057
74285SOL    HW224753   9.815   0.115   5.012
74286SOL     OW24754   3.608  10.742  13.226
74286SOL    HW124755   3.524  10.698  13.239
74286SOL    HW224756   3.590  10.811  13.162
74287SOL     OW24757  10.853   3.098   4.158
74287SOL    HW124758  10.835   3.007   4.133
74287SOL    HW224759  10.949   3.105   4.154
74288SOL     OW24760   2.816   1.302  10.176
74288SOL    HW124761   2.771   1.225  10.142
74288SOL    HW224762   2.766   1.376  10.143
74289SOL     OW24763   8.748  14.240   7.086
74289SOL    HW124764   8.734  14.148   7.110
74289SOL    HW224765   8.661  14.279   7.092
74290SOL     OW24766   6.356   7.981   2.138
74290SOL    HW124767   6.294   8.046   2.104
74290SOL    HW224768   6.302   7.907   2.166
74291SOL     OW24769   6.984  11.304   5.766
74291SOL    HW124770   6.951  11.320   5.677
74291SOL    HW224771   6.914  11.334   5.824
74292SOL     OW24772  11.513   7.731   6.924
74292SOL    HW124773  11.430   7.775   6.902
74292SOL    HW224774  11.491   7.638   6.922
74293SOL     OW24775   5.607  11.687   3.195
74293SOL    HW124776   5.641  11.752   3.256
74293SOL    HW224777   5.512  11.690   3.208
74294SOL     OW24778  12.445   1.425  14.323
74294SOL    HW124779  12.462   1.461  14.236
74294SOL    HW224780  12.532   1.415  14.362
74295SOL     OW24781   1.988  14.041  12.131
74295SOL    HW124782   2.082  14.029  12.149
74295SOL    HW224783   1.946  13.964  12.171
74296SOL     OW24784   8.775   5.773   2.516
74296SOL    HW124785   8.820   5.700   2.559
74296SOL    HW224786   8.754   5.740   2.428
74297SOL     OW24787   3.927   6.477  13.666
74297SOL    HW124788   3.921   6.497  13.573
74297SOL    HW224789   3.845   6.511  13.703
74298SOL     OW24790  11.539   1.855   5.203
74298SOL    HW124791  11.504   1.805   5.277
74298SOL    HW224792  11.574   1.788   5.144
74299SOL     OW24793   3.453   0.687   6.640
74299SOL    HW124794   3.530   0.629   6.641
74299SOL    HW224795   3.476   0.756   6.577
74300SOL     OW24796   3.595   2.252   9.254
74300SOL    HW124797   3.611   2.173   9.203
74300SOL    HW224798   3.677   2.302   9.248
74301SOL     OW24799  12.991   0.580   1.190
74301SOL    HW124800  12.953   0.497   1.160
74301SOL    HW224801  12.928   0.647   1.161
74302SOL     OW24802   8.496   6.697  10.215
74302SOL    HW124803   8.538   6.783  10.214
74302SOL    HW224804   8.478   6.678  10.123
74303SOL     OW24805  13.870   6.024  12.431
74303SOL    HW124806  13.840   6.041  12.520
74303SOL    HW224807  13.820   5.948  12.403
74304SOL     OW24808   0.297  10.904  10.218
74304SOL    HW124809   0.266  10.913  10.308
74304SOL    HW224810   0.218  10.913  10.164
74305SOL     OW24811   4.681   5.213   2.122
74305SOL    HW124812   4.733   5.188   2.199
74305SOL    HW224813   4.707   5.149   2.055
74306SOL     OW24814   0.143  12.934   0.299
74306SOL    HW124815   0.213  12.896   0.246
74306SOL    HW224816   0.079  12.965   0.236
74307SOL     OW24817   9.932   6.818   6.647
74307SOL    HW124818   9.844   6.802   6.682
74307SOL    HW224819   9.920   6.819   6.552
74308SOL     OW24820   0.623  13.671   8.005
74308SOL    HW124821   0.675  13.750   8.024
74308SOL    HW224822   0.679  13.599   8.034
74309SOL     OW24823   1.730   6.347  12.089
74309SOL    HW124824   1.689   6.421  12.043
74309SOL    HW224825   1.684   6.342  12.172
74310SOL     OW24826   3.140  10.584  14.813
74310SOL    HW124827   3.151  10.615  14.723
74310SOL    HW224828   3.211  10.522  14.825
74311SOL     OW24829  12.605  11.816   7.524
74311SOL    HW124830  12.701  11.817   7.519
74311SOL    HW224831  12.579  11.742   7.469
74312SOL     OW24832  10.613   7.529  14.552
74312SOL    HW124833  10.678   7.581  14.599
74312SOL    HW224834  10.658   7.446  14.534
74313SOL     OW24835  14.473  10.958   5.854
74313SOL    HW124836  14.419  11.006   5.791
74313SOL    HW224837  14.436  10.980   5.939
74314SOL     OW24838   8.625  10.649  10.959
74314SOL    HW124839   8.678  10.654  11.039
74314SOL    HW224840   8.624  10.556  10.937
74315SOL     OW24841   1.825  13.840  10.309
74315SOL    HW124842   1.880  13.862  10.384
74315SOL    HW224843   1.735  13.845  10.342
74316SOL     OW24844  13.833  14.324  14.837
74316SOL    HW124845  13.927  14.309  14.850
74316SOL    HW224846  13.822  14.418  14.848
74317SOL     OW24847   1.342  13.764   4.471
74317SOL    HW124848   1.253  13.729   4.478
74317SOL    HW224849   1.392  13.717   4.538
74318SOL     OW24850  12.546  10.483   0.938
74318SOL    HW124851  12.547  10.418   0.868
74318SOL    HW224852  12.635  10.482   0.974
74319SOL     OW24853   1.968   6.216   0.989
74319SOL    HW124854   1.896   6.215   1.052
74319SOL    HW224855   2.004   6.127   0.993
74320SOL     OW24856   6.263  14.715   6.090
74320SOL    HW124857   6.241  14.753   6.005
74320SOL    HW224858   6.208  14.637   6.096
74321SOL     OW24859  12.150   0.245   9.806
74321SOL    HW124860  12.094   0.322   9.812
74321SOL    HW224861  12.184   0.246   9.717
74322SOL     OW24862   6.723   3.036   3.078
74322SOL    HW124863   6.663   3.082   3.136
74322SOL    HW224864   6.810   3.050   3.116
74323SOL     OW24865   9.084   7.696   6.779
74323SOL    HW124866   9.011   7.666   6.725
74323SOL    HW224867   9.107   7.782   6.744
74324SOL     OW24868   9.834   9.088   2.911
74324SOL    HW124869   9.883   9.009   2.888
74324SOL    HW224870   9.746   9.072   2.878
74325SOL     OW24871   6.603   1.229   3.578
74325SOL    HW124872   6.551   1.192   3.507
74325SOL    HW224873   6.612   1.158   3.641
74326SOL     OW24874   3.071   1.884   0.288
74326SOL    HW124875   3.027   1.899   0.372
74326SOL    HW224876   3.001   1.867   0.226
74327SOL     OW24877  12.757   1.533   3.341
74327SOL    HW124878  12.700   1.608   3.357
74327SOL    HW224879  12.752   1.519   3.246
74328SOL     OW24880   6.766   4.687   5.406
74328SOL    HW124881   6.728   4.609   5.365
74328SOL    HW224882   6.802   4.654   5.489
74329SOL     OW24883  12.324   3.345  14.707
74329SOL    HW124884  12.241   3.298  14.694
74329SOL    HW224885  12.389   3.291  14.661
74330SOL     OW24886  11.931   4.776   1.084
74330SOL    HW124887  11.866   4.708   1.070
74330SOL    HW224888  11.886   4.844   1.134
74331SOL     OW24889   4.179   4.727   2.219
74331SOL    HW124890   4.261   4.703   2.175
74331SOL    HW224891   4.163   4.817   2.192
74332SOL     OW24892   9.176   4.534  11.745
74332SOL    HW124893   9.176   4.547  11.840
74332SOL    HW224894   9.137   4.614  11.710
74333SOL     OW24895   1.732  14.721   3.170
74333SOL    HW124896   1.680  14.790   3.128
74333SOL    HW224897   1.822  14.749   3.157
74334SOL     OW24898   6.430   4.621   1.359
74334SOL    HW124899   6.349   4.571   1.373
74334SOL    HW224900   6.416   4.666   1.275
74335SOL     OW24901   9.087  10.839   9.363
74335SOL    HW124902   9.001  10.878   9.348
74335SOL    HW224903   9.121  10.886   9.440
74336SOL     OW24904   0.680  14.776   6.530
74336SOL    HW124905   0.768  14.739   6.538
74336SOL    HW224906   0.671  14.799   6.438
74337SOL     OW24907   9.706   2.192   9.521
74337SOL    HW124908   9.773   2.181   9.588
74337SOL    HW224909   9.734   2.269   9.471
74338SOL     OW24910  13.113   5.792   3.350
74338SOL    HW124911  13.178   5.861   3.334
74338SOL    HW224912  13.084   5.807   3.439
74339SOL     OW24913  14.094   4.812  12.401
74339SOL    HW124914  14.160   4.743  12.392
74339SOL    HW224915  14.055   4.820  12.314
74340SOL     OW24916   4.114   4.513  11.178
74340SOL    HW124917   4.129   4.559  11.095
74340SOL    HW224918   4.201   4.493  11.211
74341SOL     OW24919  14.548   7.995  12.381
74341SOL    HW124920  14.588   8.050  12.448
74341SOL    HW224921  14.461   8.032  12.368
74342SOL     OW24922   8.233   0.326   4.912
74342SOL    HW124923   8.320   0.330   4.951
74342SOL    HW224924   8.231   0.397   4.848
74343SOL     OW24925  10.798   8.331  13.778
74343SOL    HW124926  10.781   8.417  13.739
74343SOL    HW224927  10.894   8.324  13.778
74344SOL     OW24928   4.616   2.733   8.466
74344SOL    HW124929   4.656   2.646   8.469
74344SOL    HW224930   4.657   2.780   8.539
74345SOL     OW24931  10.675   6.637   5.302
74345SOL    HW124932  10.708   6.549   5.286
74345SOL    HW224933  10.753   6.688   5.326
74346SOL     OW24934  11.177  12.173   3.386
74346SOL    HW124935  11.171  12.144   3.477
74346SOL    HW224936  11.188  12.268   3.392
74347SOL     OW24937  10.058   1.187  12.947
74347SOL    HW124938  10.036   1.186  13.041
74347SOL    HW224939  10.150   1.164  12.944
74348SOL     OW24940   7.260   7.384  12.121
74348SOL    HW124941   7.329   7.424  12.070
74348SOL    HW224942   7.195   7.453  12.132
74349SOL     OW24943  13.102   1.209   6.404
74349SOL    HW124944  13.058   1.124   6.402
74349SOL    HW224945  13.141   1.215   6.491
74350SOL     OW24946   7.935  13.757   4.825
74350SOL    HW124947   8.013  13.766   4.769
74350SOL    HW224948   7.960  13.691   4.890
74351SOL     OW24949   7.974   0.834  10.837
74351SOL    HW124950   7.989   0.844  10.931
74351SOL    HW224951   7.879   0.828  10.827
74352SOL     OW24952   4.710   0.092   0.359
74352SOL    HW124953   4.644   0.092   0.428
74352SOL    HW224954   4.731   0.185   0.345
74353SOL     OW24955  14.117   7.497  10.144
74353SOL    HW124956  14.172   7.446  10.203
74353SOL    HW224957  14.028   7.485  10.178
74354SOL     OW24958   2.299   8.325  12.431
74354SOL    HW124959   2.370   8.388  12.422
74354SOL    HW224960   2.227   8.376  12.469
74355SOL     OW24961   2.151  10.160   6.686
74355SOL    HW124962   2.064  10.126   6.665
74355SOL    HW224963   2.135  10.230   6.750
74356SOL     OW24964  11.583  13.139  10.116
74356SOL    HW124965  11.617  13.070  10.059
74356SOL    HW224966  11.490  13.119  10.126
74357SOL     OW24967   6.920   2.041   7.740
74357SOL    HW124968   7.012   2.015   7.732
74357SOL    HW224969   6.889   2.050   7.650
74358SOL     OW24970   8.412  10.603   4.005
74358SOL    HW124971   8.383  10.694   3.998
74358SOL    HW224972   8.507  10.608   3.997
74359SOL     OW24973  14.030  14.766   9.951
74359SOL    HW124974  13.942  14.804   9.947
74359SOL    HW224975  14.084  14.827   9.900
74360SOL     OW24976   1.199   6.912   4.493
74360SOL    HW124977   1.270   6.857   4.459
74360SOL    HW224978   1.239   6.960   4.565
74361SOL     OW24979  11.889  13.319   5.616
74361SOL    HW124980  11.830  13.386   5.581
74361SOL    HW224981  11.872  13.319   5.710
74362SOL     OW24982  14.755  11.705   9.790
74362SOL    HW124983  14.718  11.622   9.762
74362SOL    HW224984  14.793  11.743   9.711
74363SOL     OW24985   4.094  14.017  11.600
74363SOL    HW124986   4.137  13.959  11.538
74363SOL    HW224987   4.028  13.961  11.643
74364SOL     OW24988  10.552   7.858  11.096
74364SOL    HW124989  10.482   7.877  11.034
74364SOL    HW224990  10.561   7.763  11.094
74365SOL     OW24991   9.029   6.308   0.297
74365SOL    HW124992   9.008   6.232   0.243
74365SOL    HW224993   9.124   6.311   0.298
74366SOL     OW24994  11.776   9.675   0.205
74366SOL    HW124995  11.740   9.588   0.185
74366SOL    HW224996  11.812   9.666   0.294
74367SOL     OW24997  13.120  13.029   3.535
74367SOL    HW124998  13.103  13.024   3.441
74367SOL    HW224999  13.131  12.937   3.562
74368SOL     OW25000  12.462   3.895  13.700
74368SOL    HW125001  12.447   3.801  13.686
74368SOL    HW225002  12.502   3.900  13.787
74369SOL     OW25003   3.601   2.087   5.891
74369SOL    HW125004   3.521   2.092   5.944
74369SOL    HW225005   3.671   2.115   5.951
74370SOL     OW25006   8.072   8.348   6.293
74370SOL    HW125007   8.095   8.258   6.270
74370SOL    HW225008   8.013   8.340   6.368
74371SOL     OW25009   2.640  12.088   7.146
74371SOL    HW125010   2.548  12.079   7.121
74371SOL    HW225011   2.669  11.999   7.165
74372SOL     OW25012   0.195   5.561  11.088
74372SOL    HW125013   0.116   5.605  11.054
74372SOL    HW225014   0.169   5.469  11.098
74373SOL     OW25015   9.013  10.530  12.376
74373SOL    HW125016   8.958  10.562  12.305
74373SOL    HW225017   9.102  10.547  12.346
74374SOL     OW25018   7.704   4.358  14.585
74374SOL    HW125019   7.697   4.407  14.667
74374SOL    HW225020   7.709   4.426  14.518
74375SOL     OW25021   4.007   1.983   1.148
74375SOL    HW125022   3.913   1.994   1.159
74375SOL    HW225023   4.021   1.983   1.053
74376SOL     OW25024   3.956   0.547   8.456
74376SOL    HW125025   4.044   0.563   8.491
74376SOL    HW225026   3.899   0.549   8.533
74377SOL     OW25027   4.663   6.799   9.557
74377SOL    HW125028   4.746   6.756   9.534
74377SOL    HW225029   4.657   6.872   9.496
74378SOL     OW25030  10.629   7.482   4.724
74378SOL    HW125031  10.589   7.446   4.645
74378SOL    HW225032  10.706   7.428   4.739
74379SOL     OW25033   3.026  14.499   4.421
74379SOL    HW125034   2.992  14.578   4.463
74379SOL    HW225035   2.996  14.505   4.330
74380SOL     OW25036  12.847  14.042  10.629
74380SOL    HW125037  12.903  14.022  10.704
74380SOL    HW225038  12.781  14.102  10.664
74381SOL     OW25039   1.205   0.777   7.381
74381SOL    HW125040   1.213   0.796   7.287
74381SOL    HW225041   1.173   0.859   7.419
74382SOL     OW25042   7.380   0.800   8.803
74382SOL    HW125043   7.311   0.763   8.857
74382SOL    HW225044   7.373   0.895   8.817
74383SOL     OW25045   6.494  14.399   7.513
74383SOL    HW125046   6.571  14.454   7.525
74383SOL    HW225047   6.513  14.320   7.564
74384SOL     OW25048  14.492   4.918   6.660
74384SOL    HW125049  14.574   4.941   6.616
74384SOL    HW225050  14.444   5.000   6.665
74385SOL     OW25051   6.218   2.747   2.651
74385SOL    HW125052   6.271   2.794   2.716
74385SOL    HW225053   6.145   2.806   2.633
74386SOL     OW25054   3.847  14.132   8.722
74386SOL    HW125055   3.869  14.040   8.735
74386SOL    HW225056   3.870  14.149   8.631
74387SOL     OW25057   5.198   6.786   1.319
74387SOL    HW125058   5.274   6.758   1.370
74387SOL    HW225059   5.183   6.716   1.256
74388SOL     OW25060   7.206   2.300  10.783
74388SOL    HW125061   7.209   2.241  10.858
74388SOL    HW225062   7.149   2.256  10.720
74389SOL     OW25063  13.380  14.427  14.506
74389SOL    HW125064  13.349  14.466  14.424
74389SOL    HW225065  13.470  14.401  14.489
74390SOL     OW25066   9.765   4.429   2.131
74390SOL    HW125067   9.775   4.502   2.068
74390SOL    HW225068   9.799   4.353   2.084
74391SOL     OW25069   2.698   8.701   6.136
74391SOL    HW125070   2.794   8.694   6.128
74391SOL    HW225071   2.680   8.794   6.120
74392SOL     OW25072   6.239   6.664   2.029
74392SOL    HW125073   6.145   6.676   2.036
74392SOL    HW225074   6.276   6.751   2.045
74393SOL     OW25075   9.106  10.011   8.052
74393SOL    HW125076   9.140  10.100   8.054
74393SOL    HW225077   9.182   9.956   8.034
74394SOL     OW25078   8.668   3.829   4.494
74394SOL    HW125079   8.652   3.818   4.400
74394SOL    HW225080   8.753   3.788   4.509
74395SOL     OW25081  13.619   2.769   2.729
74395SOL    HW125082  13.565   2.795   2.804
74395SOL    HW225083  13.682   2.707   2.764
74396SOL     OW25084  10.776   7.188   2.728
74396SOL    HW125085  10.790   7.282   2.714
74396SOL    HW225086  10.703   7.184   2.789
74397SOL     OW25087   4.469  12.182   2.158
74397SOL    HW125088   4.446  12.090   2.167
74397SOL    HW225089   4.483  12.213   2.248
74398SOL     OW25090  14.519   3.357  11.816
74398SOL    HW125091  14.537   3.379  11.725
74398SOL    HW225092  14.429   3.386  11.831
74399SOL     OW25093   4.722   7.294  11.994
74399SOL    HW125094   4.781   7.233  12.039
74399SOL    HW225095   4.665   7.238  11.942
74400SOL     OW25096   8.749   7.459   8.458
74400SOL    HW125097   8.722   7.368   8.465
74400SOL    HW225098   8.831   7.464   8.507
74401SOL     OW25099  10.384   3.487  13.656
74401SOL    HW125100  10.359   3.446  13.574
74401SOL    HW225101  10.405   3.578  13.632
74402SOL     OW25102  12.598   7.051  12.808
74402SOL    HW125103  12.584   6.986  12.877
74402SOL    HW225104  12.523   7.039  12.749
74403SOL     OW25105  14.028   8.639   5.146
74403SOL    HW125106  14.096   8.572   5.132
74403SOL    HW225107  13.971   8.631   5.071
74404SOL     OW25108   1.613   4.868   5.220
74404SOL    HW125109   1.671   4.916   5.278
74404SOL    HW225110   1.529   4.865   5.267
74405SOL     OW25111   4.414   0.103  11.511
74405SOL    HW125112   4.466   0.183  11.523
74405SOL    HW225113   4.324   0.133  11.504
74406SOL     OW25114   3.304  11.619   2.388
74406SOL    HW125115   3.311  11.523   2.382
74406SOL    HW225116   3.273  11.635   2.477
74407SOL     OW25117   8.917   9.172  14.441
74407SOL    HW125118   8.831   9.203  14.413
74407SOL    HW225119   8.942   9.231  14.511
74408SOL     OW25120   3.006   5.105   9.964
74408SOL    HW125121   2.936   5.076  10.023
74408SOL    HW225122   3.041   5.023   9.928
74409SOL     OW25123   7.264  13.169   1.298
74409SOL    HW125124   7.267  13.079   1.330
74409SOL    HW225125   7.249  13.160   1.203
74410SOL     OW25126  14.236   7.625   6.812
74410SOL    HW125127  14.294   7.630   6.736
74410SOL    HW225128  14.148   7.636   6.775
74411SOL     OW25129   4.223   6.519  12.192
74411SOL    HW125130   4.196   6.570  12.268
74411SOL    HW225131   4.281   6.577  12.143
74412SOL     OW25132  13.632   2.493   7.337
74412SOL    HW125133  13.690   2.556   7.380
74412SOL    HW225134  13.599   2.438   7.408
74413SOL     OW25135   8.875   0.043   6.197
74413SOL    HW125136   8.839   0.084   6.118
74413SOL    HW225137   8.969   0.061   6.192
74414SOL     OW25138  14.733   0.292   1.842
74414SOL    HW125139  14.811   0.347   1.850
74414SOL    HW225140  14.665   0.351   1.808
74415SOL     OW25141   8.275  10.310  12.359
74415SOL    HW125142   8.192  10.297  12.314
74415SOL    HW225143   8.251  10.311  12.452
74416SOL     OW25144   0.497   7.104   2.701
74416SOL    HW125145   0.571   7.090   2.760
74416SOL    HW225146   0.420   7.103   2.759
74417SOL     OW25147  12.846   5.115  11.222
74417SOL    HW125148  12.844   5.125  11.127
74417SOL    HW225149  12.836   5.204  11.255
74418SOL     OW25150   8.158   7.956  11.502
74418SOL    HW125151   8.252   7.951  11.485
74418SOL    HW225152   8.138   7.876  11.549
74419SOL     OW25153   6.723  10.894  13.080
74419SOL    HW125154   6.682  10.808  13.072
74419SOL    HW225155   6.816  10.875  13.090
74420SOL     OW25156  10.027   4.940   6.175
74420SOL    HW125157   9.954   4.992   6.208
74420SOL    HW225158  10.011   4.934   6.080
74421SOL     OW25159   0.059   5.323   9.922
74421SOL    HW125160   0.028   5.252   9.865
74421SOL    HW225161   0.021   5.402   9.884
74422SOL     OW25162   6.886  10.177  14.485
74422SOL    HW125163   6.947  10.123  14.536
74422SOL    HW225164   6.799  10.146  14.512
74423SOL     OW25165  11.488   1.990  11.970
74423SOL    HW125166  11.478   2.074  12.014
74423SOL    HW225167  11.398   1.964  11.947
74424SOL     OW25168   1.054  12.289   4.808
74424SOL    HW125169   1.041  12.271   4.901
74424SOL    HW225170   0.968  12.275   4.768
74425SOL     OW25171   2.413   7.150   0.991
74425SOL    HW125172   2.401   7.173   1.084
74425SOL    HW225173   2.508   7.147   0.979
74426SOL     OW25174   2.218   5.454   0.251
74426SOL    HW125175   2.211   5.527   0.190
74426SOL    HW225176   2.149   5.393   0.224
74427SOL     OW25177   8.785   5.577  13.507
74427SOL    HW125178   8.762   5.599  13.417
74427SOL    HW225179   8.877   5.550  13.503
74428SOL     OW25180   7.894  13.644   2.650
74428SOL    HW125181   7.877  13.661   2.557
74428SOL    HW225182   7.984  13.614   2.653
74429SOL     OW25183  13.162  10.938   5.330
74429SOL    HW125184  13.087  10.909   5.382
74429SOL    HW225185  13.186  11.022   5.370
74430SOL     OW25186   2.105   0.800  12.876
74430SOL    HW125187   2.119   0.719  12.926
74430SOL    HW225188   2.154   0.867  12.925
74431SOL     OW25189   5.798  12.817  10.898
74431SOL    HW125190   5.886  12.853  10.900
74431SOL    HW225191   5.755  12.861  10.825
74432SOL     OW25192   5.553   1.436   4.437
74432SOL    HW125193   5.637   1.458   4.478
74432SOL    HW225194   5.554   1.341   4.429
74433SOL     OW25195   3.077   1.695  12.102
74433SOL    HW125196   3.151   1.748  12.132
74433SOL    HW225197   3.109   1.604  12.108
74434SOL     OW25198   5.020   5.384   4.153
74434SOL    HW125199   4.933   5.407   4.121
74434SOL    HW225200   5.073   5.375   4.074
74435SOL     OW25201   7.455  13.754  12.321
74435SOL    HW125202   7.406  13.790  12.248
74435SOL    HW225203   7.399  13.769  12.397
74436SOL     OW25204   9.624   4.806  14.101
74436SOL    HW125205   9.639   4.796  14.195
74436SOL    HW225206   9.643   4.898  14.084
74437SOL     OW25207  13.798  13.258   7.475
74437SOL    HW125208  13.848  13.289   7.550
74437SOL    HW225209  13.845  13.292   7.399
74438SOL     OW25210   3.278  10.415  12.479
74438SOL    HW125211   3.277  10.366  12.397
74438SOL    HW225212   3.234  10.358  12.542
74439SOL     OW25213   1.513  14.836   2.334
74439SOL    HW125214   1.565  14.757   2.349
74439SOL    HW225215   1.512   0.009   2.419
74440SOL     OW25216  12.012  12.920   8.905
74440SOL    HW125217  12.084  12.974   8.873
74440SOL    HW225218  11.941  12.981   8.921
74441SOL     OW25219  11.326  14.179   6.325
74441SOL    HW125220  11.405  14.128   6.342
74441SOL    HW225221  11.257  14.133   6.371
74442SOL     OW25222   9.392  13.735   2.376
74442SOL    HW125223   9.410  13.766   2.465
74442SOL    HW225224   9.302  13.761   2.359
74443SOL     OW25225   4.040   0.878  14.747
74443SOL    HW125226   4.045   0.951  14.809
74443SOL    HW225227   4.112   0.893  14.686
74444SOL     OW25228   3.108  11.500   4.631
74444SOL    HW125229   3.100  11.407   4.610
74444SOL    HW225230   3.094  11.545   4.548
74445SOL     OW25231  11.560  13.608   9.594
74445SOL    HW125232  11.468  13.587   9.575
74445SOL    HW225233  11.602  13.608   9.508
74446SOL     OW25234   7.347   9.973   3.788
74446SOL    HW125235   7.333  10.062   3.820
74446SOL    HW225236   7.319   9.917   3.861
74447SOL     OW25237   9.387  10.930   6.520
74447SOL    HW125238   9.314  10.913   6.461
74447SOL    HW225239   9.420  10.843   6.542
74448SOL     OW25240  10.588  14.180  12.052
74448SOL    HW125241  10.602  14.189  11.958
74448SOL    HW225242  10.647  14.109  12.079
74449SOL     OW25243   8.729   6.698  12.634
74449SOL    HW125244   8.736   6.751  12.713
74449SOL    HW225245   8.641   6.716  12.600
74450SOL     OW25246   1.696   0.761  14.570
74450SOL    HW125247   1.790   0.773  14.555
74450SOL    HW225248   1.674   0.682  14.521
74451SOL     OW25249  11.566  14.068   5.715
74451SOL    HW125250  11.579  14.161   5.695
74451SOL    HW225251  11.634  14.048   5.779
74452SOL     OW25252   3.501   4.402   4.768
74452SOL    HW125253   3.426   4.347   4.746
74452SOL    HW225254   3.505   4.401   4.864
74453SOL     OW25255   2.400   8.218   4.116
74453SOL    HW125256   2.420   8.124   4.111
74453SOL    HW225257   2.438   8.255   4.036
74454SOL     OW25258  12.374  10.815  11.991
74454SOL    HW125259  12.354  10.814  12.084
74454SOL    HW225260  12.326  10.889  11.956
74455SOL     OW25261   9.177   3.795  10.602
74455SOL    HW125262   9.159   3.875  10.553
74455SOL    HW225263   9.271   3.799  10.619
74456SOL     OW25264  14.132   4.295   3.374
74456SOL    HW125265  14.196   4.269   3.308
74456SOL    HW225266  14.128   4.390   3.367
74457SOL     OW25267   5.657   7.536  13.825
74457SOL    HW125268   5.633   7.590  13.900
74457SOL    HW225269   5.633   7.589  13.749
74458SOL     OW25270   0.673  14.102  13.499
74458SOL    HW125271   0.692  14.009  13.489
74458SOL    HW225272   0.740  14.146  13.447
74459SOL     OW25273  11.567  10.594   0.285
74459SOL    HW125274  11.569  10.513   0.234
74459SOL    HW225275  11.541  10.566   0.373
74460SOL     OW25276   9.828   9.587   7.750
74460SOL    HW125277   9.854   9.640   7.825
74460SOL    HW225278   9.846   9.643   7.674
74461SOL     OW25279   2.829   4.545   6.091
74461SOL    HW125280   2.814   4.597   6.170
74461SOL    HW225281   2.924   4.543   6.081
74462SOL     OW25282   9.778   7.219   8.534
74462SOL    HW125283   9.749   7.303   8.568
74462SOL    HW225284   9.745   7.154   8.596
74463SOL     OW25285   4.216   1.058   7.551
74463SOL    HW125286   4.287   1.000   7.525
74463SOL    HW225287   4.150   1.000   7.589
74464SOL     OW25288   2.954  14.624  11.429
74464SOL    HW125289   2.952  14.641  11.334
74464SOL    HW225290   3.047  14.615  11.449
74465SOL     OW25291   4.677   7.917   9.345
74465SOL    HW125292   4.713   7.992   9.298
74465SOL    HW225293   4.691   7.842   9.287
74466SOL     OW25294   5.222   4.312   0.666
74466SOL    HW125295   5.249   4.224   0.691
74466SOL    HW225296   5.226   4.362   0.748
74467SOL     OW25297   5.339   4.322  12.082
74467SOL    HW125298   5.427   4.306  12.049
74467SOL    HW225299   5.322   4.250  12.142
74468SOL     OW25300  13.127   8.958  10.239
74468SOL    HW125301  13.134   8.882  10.297
74468SOL    HW225302  13.035   8.957  10.211
74469SOL     OW25303  13.760  13.488  13.710
74469SOL    HW125304  13.827  13.429  13.677
74469SOL    HW225305  13.785  13.574  13.677
74470SOL     OW25306   2.855  11.578  14.619
74470SOL    HW125307   2.799  11.502  14.632
74470SOL    HW225308   2.821  11.619  14.539
74471SOL     OW25309  13.907  14.284   9.629
74471SOL    HW125310  13.894  14.197   9.593
74471SOL    HW225311  13.983  14.275   9.687
74472SOL     OW25312  14.197   5.735   6.148
74472SOL    HW125313  14.129   5.782   6.196
74472SOL    HW225314  14.236   5.677   6.214
74473SOL     OW25315  12.033   6.913   9.737
74473SOL    HW125316  12.034   6.923   9.833
74473SOL    HW225317  11.965   6.974   9.708
74474SOL     OW25318  13.491   7.814  14.441
74474SOL    HW125319  13.468   7.787  14.352
74474SOL    HW225320  13.569   7.869  14.430
74475SOL     OW25321  11.629   9.825   9.463
74475SOL    HW125322  11.713   9.797   9.426
74475SOL    HW225323  11.583   9.866   9.390
74476SOL     OW25324  10.877   4.519  11.654
74476SOL    HW125325  10.823   4.476  11.587
74476SOL    HW225326  10.939   4.572  11.605
74477SOL     OW25327  14.331  11.300  12.187
74477SOL    HW125328  14.242  11.264  12.192
74477SOL    HW225329  14.325  11.371  12.122
74478SOL     OW25330   1.277   3.629   3.451
74478SOL    HW125331   1.318   3.577   3.383
74478SOL    HW225332   1.346   3.689   3.480
74479SOL     OW25333   3.587   3.799   7.912
74479SOL    HW125334   3.579   3.796   8.008
74479SOL    HW225335   3.673   3.839   7.896
74480SOL     OW25336   5.800  10.345   5.013
74480SOL    HW125337   5.743  10.403   4.962
74480SOL    HW225338   5.765  10.349   5.102
74481SOL     OW25339   9.608   6.080   8.056
74481SOL    HW125340   9.635   6.098   7.966
74481SOL    HW225341   9.587   5.986   8.056
74482SOL     OW25342  14.696   7.569   7.957
74482SOL    HW125343  14.743   7.532   8.032
74482SOL    HW225344  14.751   7.641   7.927
74483SOL     OW25345   4.409  14.018   3.526
74483SOL    HW125346   4.370  13.941   3.484
74483SOL    HW225347   4.378  14.015   3.616
74484SOL     OW25348  10.052   4.673  14.305
74484SOL    HW125349  10.002   4.749  14.335
74484SOL    HW225350  10.004   4.643  14.227
74485SOL     OW25351   0.591  10.358  11.408
74485SOL    HW125352   0.607  10.305  11.330
74485SOL    HW225353   0.502  10.335  11.435
74486SOL     OW25354   6.319  13.050   3.794
74486SOL    HW125355   6.299  13.123   3.734
74486SOL    HW225356   6.323  13.091   3.880
74487SOL     OW25357   1.472   1.904   4.659
74487SOL    HW125358   1.397   1.938   4.707
74487SOL    HW225359   1.504   1.979   4.609
74488SOL     OW25360   6.762  10.019   3.661
74488SOL    HW125361   6.855  10.000   3.649
74488SOL    HW225362   6.718   9.936   3.643
74489SOL     OW25363  11.243   1.180   7.258
74489SOL    HW125364  11.253   1.169   7.164
74489SOL    HW225365  11.246   1.275   7.272
74490SOL     OW25366  11.411  12.928   7.845
74490SOL    HW125367  11.453  12.877   7.776
74490SOL    HW225368  11.463  13.009   7.850
74491SOL     OW25369  12.255  12.267  11.647
74491SOL    HW125370  12.171  12.242  11.607
74491SOL    HW225371  12.240  12.258  11.741
74492SOL     OW25372   7.221   9.788   8.349
74492SOL    HW125373   7.204   9.744   8.433
74492SOL    HW225374   7.293   9.738   8.310
74493SOL     OW25375   3.181   1.607   3.305
74493SOL    HW125376   3.127   1.686   3.309
74493SOL    HW225377   3.146   1.557   3.231
74494SOL     OW25378   0.391   3.940  12.259
74494SOL    HW125379   0.421   3.916  12.171
74494SOL    HW225380   0.331   4.013  12.245
74495SOL     OW25381  14.242  11.024   2.158
74495SOL    HW125382  14.172  10.962   2.181
74495SOL    HW225383  14.230  11.097   2.218
74496SOL     OW25384   7.053   2.236   4.903
74496SOL    HW125385   7.134   2.276   4.870
74496SOL    HW225386   7.052   2.148   4.865
74497SOL     OW25387  10.260   9.521   0.317
74497SOL    HW125388  10.246   9.504   0.224
74497SOL    HW225389  10.306   9.604   0.319
74498SOL     OW25390   6.014  12.626  13.215
74498SOL    HW125391   6.027  12.532  13.224
74498SOL    HW225392   6.075  12.665  13.278
74499SOL     OW25393   2.979   8.057  13.366
74499SOL    HW125394   3.016   7.968  13.365
74499SOL    HW225395   2.969   8.077  13.459
74500SOL     OW25396  12.281  10.367   3.076
74500SOL    HW125397  12.228  10.287   3.086
74500SOL    HW225398  12.366  10.343   3.114
74501SOL     OW25399  10.291   8.138   3.569
74501SOL    HW125400  10.258   8.205   3.510
74501SOL    HW225401  10.216   8.082   3.587
74502SOL     OW25402  11.840   5.656  10.546
74502SOL    HW125403  11.923   5.621  10.580
74502SOL    HW225404  11.773   5.608  10.594
74503SOL     OW25405  13.883   2.940   6.853
74503SOL    HW125406  13.895   2.919   6.946
74503SOL    HW225407  13.872   3.035   6.851
74504SOL     OW25408   6.448   1.742   1.087
74504SOL    HW125409   6.472   1.801   1.159
74504SOL    HW225410   6.511   1.671   1.092
74505SOL     OW25411   4.208   5.866   8.646
74505SOL    HW125412   4.298   5.890   8.626
74505SOL    HW225413   4.171   5.943   8.688
74506SOL     OW25414  12.830   1.270   0.664
74506SOL    HW125415  12.741   1.306   0.670
74506SOL    HW225416  12.858   1.262   0.755
74507SOL     OW25417  11.588   0.038   3.292
74507SOL    HW125418  11.658  14.847   3.280
74507SOL    HW225419  11.618   0.118   3.248
74508SOL     OW25420   9.338   3.997  12.571
74508SOL    HW125421   9.349   3.979  12.664
74508SOL    HW225422   9.353   4.091  12.563
74509SOL     OW25423  11.966  12.161   2.715
74509SOL    HW125424  11.903  12.223   2.678
74509SOL    HW225425  12.051  12.202   2.702
74510SOL     OW25426   5.154  11.460   1.843
74510SOL    HW125427   5.114  11.394   1.786
74510SOL    HW225428   5.101  11.538   1.830
74511SOL     OW25429  13.128   6.882   7.959
74511SOL    HW125430  13.121   6.880   8.054
74511SOL    HW225431  13.045   6.848   7.928
74512SOL     OW25432   9.027   5.804  10.482
74512SOL    HW125433   9.030   5.710  10.498
74512SOL    HW225434   8.937   5.829  10.503
74513SOL     OW25435   7.865   8.963   3.866
74513SOL    HW125436   7.948   8.959   3.915
74513SOL    HW225437   7.849   8.872   3.841
74514SOL     OW25438   3.866   3.482   3.413
74514SOL    HW125439   3.773   3.497   3.398
74514SOL    HW225440   3.910   3.551   3.363
74515SOL     OW25441  13.917   2.320  10.290
74515SOL    HW125442  13.961   2.360  10.365
74515SOL    HW225443  13.860   2.389  10.256
74516SOL     OW25444   7.855   2.153  11.714
74516SOL    HW125445   7.806   2.128  11.793
74516SOL    HW225446   7.808   2.110  11.642
74517SOL     OW25447   0.141  14.182   2.859
74517SOL    HW125448   0.090  14.104   2.835
74517SOL    HW225449   0.145  14.234   2.779
74518SOL     OW25450  13.096   9.579   6.232
74518SOL    HW125451  13.147   9.632   6.171
74518SOL    HW225452  13.145   9.497   6.238
74519SOL     OW25453   2.205  13.738   1.161
74519SOL    HW125454   2.179  13.745   1.069
74519SOL    HW225455   2.299  13.722   1.159
74520SOL     OW25456  12.711  13.706  10.354
74520SOL    HW125457  12.671  13.631  10.310
74520SOL    HW225458  12.650  13.728  10.424
74521SOL     OW25459   1.803   1.605   6.657
74521SOL    HW125460   1.867   1.663   6.697
74521SOL    HW225461   1.745   1.579   6.729
74522SOL     OW25462   3.214   0.274  14.701
74522SOL    HW125463   3.183   0.338  14.765
74522SOL    HW225464   3.252   0.203  14.754
74523SOL     OW25465   8.689  10.491  10.343
74523SOL    HW125466   8.678  10.438  10.422
74523SOL    HW225467   8.613  10.467  10.288
74524SOL     OW25468   0.291  14.210   6.172
74524SOL    HW125469   0.257  14.194   6.084
74524SOL    HW225470   0.268  14.132   6.222
74525SOL     OW25471   7.193   4.783   1.191
74525SOL    HW125472   7.248   4.793   1.113
74525SOL    HW225473   7.122   4.726   1.162
74526SOL     OW25474   3.138  11.829   1.167
74526SOL    HW125475   3.162  11.787   1.085
74526SOL    HW225476   3.181  11.915   1.164
74527SOL     OW25477   2.188   0.676   9.123
74527SOL    HW125478   2.148   0.590   9.107
74527SOL    HW225479   2.176   0.691   9.217
74528SOL     OW25480   2.624   2.675  14.242
74528SOL    HW125481   2.626   2.632  14.327
74528SOL    HW225482   2.539   2.653  14.204
74529SOL     OW25483  12.066   7.995  10.263
74529SOL    HW125484  12.151   7.966  10.229
74529SOL    HW225485  12.059   8.086  10.236
74530SOL     OW25486   5.445  12.235   0.549
74530SOL    HW125487   5.492  12.263   0.628
74530SOL    HW225488   5.365  12.194   0.581
74531SOL     OW25489   5.060  12.567  13.593
74531SOL    HW125490   5.042  12.656  13.561
74531SOL    HW225491   4.988  12.514  13.557
74532SOL     OW25492   3.304   3.839   4.317
74532SOL    HW125493   3.269   3.843   4.228
74532SOL    HW225494   3.395   3.868   4.308
74533SOL     OW25495   0.995  14.719   6.967
74533SOL    HW125496   0.916  14.670   6.944
74533SOL    HW225497   1.040  14.732   6.884
74534SOL     OW25498   1.234   7.879   4.839
74534SOL    HW125499   1.159   7.932   4.811
74534SOL    HW225500   1.288   7.872   4.760
74535SOL     OW25501   2.797   8.044   6.796
74535SOL    HW125502   2.714   8.032   6.750
74535SOL    HW225503   2.788   7.991   6.875
74536SOL     OW25504   1.754   1.110  10.050
74536SOL    HW125505   1.708   1.050  10.109
74536SOL    HW225506   1.689   1.132   9.983
74537SOL     OW25507   4.877  12.514   8.021
74537SOL    HW125508   4.938  12.518   8.095
74537SOL    HW225509   4.926  12.471   7.952
74538SOL     OW25510  12.709  11.070   7.592
74538SOL    HW125511  12.760  11.073   7.673
74538SOL    HW225512  12.772  11.091   7.524
74539SOL     OW25513  14.312   0.916  11.430
74539SOL    HW125514  14.231   0.928  11.380
74539SOL    HW225515  14.309   0.824  11.459
74540SOL     OW25516   7.927   6.224   0.413
74540SOL    HW125517   7.996   6.163   0.387
74540SOL    HW225518   7.965   6.311   0.399
74541SOL     OW25519   5.386   9.510   2.984
74541SOL    HW125520   5.314   9.523   3.047
74541SOL    HW225521   5.463   9.546   3.028
74542SOL     OW25522   7.057   5.212  10.276
74542SOL    HW125523   7.105   5.294  10.287
74542SOL    HW225524   6.979   5.222  10.330
74543SOL     OW25525  10.012   8.901   2.830
74543SOL    HW125526  10.008   8.860   2.744
74543SOL    HW225527  10.058   8.984   2.815
74544SOL     OW25528   7.057   8.173   5.440
74544SOL    HW125529   7.031   8.098   5.493
74544SOL    HW225530   7.153   8.175   5.446
74545SOL     OW25531  10.432  10.023   8.128
74545SOL    HW125532  10.474  10.005   8.213
74545SOL    HW225533  10.340  10.038   8.150
74546SOL     OW25534  12.633   3.048   9.423
74546SOL    HW125535  12.719   3.089   9.431
74546SOL    HW225536  12.577   3.117   9.386
74547SOL     OW25537  12.326   9.858  12.300
74547SOL    HW125538  12.303   9.860  12.392
74547SOL    HW225539  12.242   9.852  12.254
74548SOL     OW25540  14.435  13.474   0.043
74548SOL    HW125541  14.394  13.560   0.034
74548SOL    HW225542  14.525  13.488   0.013
74549SOL     OW25543  10.864  13.644   4.403
74549SOL    HW125544  10.921  13.633   4.479
74549SOL    HW225545  10.805  13.715   4.428
74550SOL     OW25546  13.633  14.428   4.940
74550SOL    HW125547  13.652  14.482   5.016
74550SOL    HW225548  13.552  14.382   4.963
74551SOL     OW25549   5.209   8.975   6.987
74551SOL    HW125550   5.284   9.032   6.970
74551SOL    HW225551   5.205   8.917   6.911
74552SOL     OW25552   8.139   2.088   0.075
74552SOL    HW125553   8.195   2.115   0.148
74552SOL    HW225554   8.176   2.135  14.871
74553SOL     OW25555   3.896   9.960  14.091
74553SOL    HW125556   3.923   9.868  14.095
74553SOL    HW225557   3.816   9.959  14.039
74554SOL     OW25558   7.783   0.379   2.022
74554SOL    HW125559   7.711   0.414   1.970
74554SOL    HW225560   7.829   0.320   1.961
74555SOL     OW25561   5.092   6.957   9.641
74555SOL    HW125562   5.160   7.023   9.651
74555SOL    HW225563   5.048   6.979   9.559
74556SOL     OW25564   3.282   8.394   9.586
74556SOL    HW125565   3.271   8.483   9.550
74556SOL    HW225566   3.362   8.362   9.544
74557SOL     OW25567   3.887   0.308   0.467
74557SOL    HW125568   3.843   0.362   0.531
74557SOL    HW225569   3.949   0.367   0.424
74558SOL     OW25570   5.076   5.534  11.488
74558SOL    HW125571   5.119   5.580  11.560
74558SOL    HW225572   5.081   5.441  11.512
74559SOL     OW25573  14.465   8.628   4.713
74559SOL    HW125574  14.503   8.572   4.646
74559SOL    HW225575  14.461   8.715   4.673
74560SOL     OW25576   5.025   5.353  13.349
74560SOL    HW125577   4.968   5.398  13.287
74560SOL    HW225578   5.085   5.302  13.294
74561SOL     OW25579  14.216   8.989   0.675
74561SOL    HW125580  14.207   9.071   0.724
74561SOL    HW225581  14.160   9.000   0.598
74562SOL     OW25582  11.812  11.820  10.996
74562SOL    HW125583  11.832  11.765  10.921
74562SOL    HW225584  11.825  11.910  10.964
74563SOL     OW25585   5.358  11.905   3.696
74563SOL    HW125586   5.294  11.880   3.763
74563SOL    HW225587   5.399  11.985   3.731
74564SOL     OW25588   7.935   9.360  13.017
74564SOL    HW125589   7.855   9.308  13.023
74564SOL    HW225590   7.986   9.317  12.949
74565SOL     OW25591  13.799   5.416   4.160
74565SOL    HW125592  13.756   5.442   4.079
74565SOL    HW225593  13.766   5.477   4.226
74566SOL     OW25594   6.155  14.178   0.492
74566SOL    HW125595   6.108  14.113   0.544
74566SOL    HW225596   6.243  14.140   0.481
74567SOL     OW25597  14.436   9.265   0.240
74567SOL    HW125598  14.510   9.219   0.278
74567SOL    HW225599  14.473   9.347   0.206
74568SOL     OW25600   4.142   8.913   7.271
74568SOL    HW125601   4.211   8.848   7.259
74568SOL    HW225602   4.185   8.987   7.315
74569SOL     OW25603   7.989  12.404   6.505
74569SOL    HW125604   8.005  12.310   6.509
74569SOL    HW225605   8.052  12.442   6.567
74570SOL     OW25606  12.501  13.381  13.773
74570SOL    HW125607  12.485  13.447  13.840
74570SOL    HW225608  12.419  13.333  13.766
74571SOL     OW25609   6.583   2.604   3.188
74571SOL    HW125610   6.677   2.587   3.181
74571SOL    HW225611   6.552   2.540   3.252
74572SOL     OW25612   2.876   0.025   7.015
74572SOL    HW125613   2.840   0.080   6.945
74572SOL    HW225614   2.806   0.020   7.079
74573SOL     OW25615  14.477   7.625   0.725
74573SOL    HW125616  14.536   7.572   0.779
74573SOL    HW225617  14.404   7.567   0.705
74574SOL     OW25618   6.751   6.763   3.836
74574SOL    HW125619   6.664   6.800   3.848
74574SOL    HW225620   6.735   6.672   3.809
74575SOL     OW25621  10.711   4.761   7.064
74575SOL    HW125622  10.667   4.681   7.036
74575SOL    HW225623  10.770   4.783   6.991
74576SOL     OW25624  10.611   2.331  10.665
74576SOL    HW125625  10.671   2.400  10.636
74576SOL    HW225626  10.668   2.261  10.698
74577SOL     OW25627  11.594   3.651   8.585
74577SOL    HW125628  11.592   3.636   8.490
74577SOL    HW225629  11.507   3.624   8.615
74578SOL     OW25630  12.364   7.504   4.164
74578SOL    HW125631  12.322   7.423   4.139
74578SOL    HW225632  12.332   7.522   4.253
74579SOL     OW25633   1.012  11.525   3.774
74579SOL    HW125634   1.042  11.435   3.783
74579SOL    HW225635   0.978  11.531   3.685
74580SOL     OW25636   2.975  14.498   2.518
74580SOL    HW125637   3.031  14.445   2.461
74580SOL    HW225638   2.887  14.486   2.482
74581SOL     OW25639  14.051  12.036   8.837
74581SOL    HW125640  14.129  12.089   8.853
74581SOL    HW225641  14.049  11.974   8.910
74582SOL     OW25642   8.969   0.420  14.829
74582SOL    HW125643   9.057   0.458  14.827
74582SOL    HW225644   8.968   0.358  14.755
74583SOL     OW25645  11.832   3.115  13.299
74583SOL    HW125646  11.853   3.096  13.391
74583SOL    HW225647  11.748   3.071  13.284
74584SOL     OW25648   1.666  13.785   4.947
74584SOL    HW125649   1.742  13.778   4.890
74584SOL    HW225650   1.702  13.773   5.035
74585SOL     OW25651   9.937   2.229  10.758
74585SOL    HW125652   9.990   2.241  10.679
74585SOL    HW225653   9.958   2.305  10.812
74586SOL     OW25654   6.753  11.415   2.243
74586SOL    HW125655   6.759  11.327   2.281
74586SOL    HW225656   6.667  11.416   2.201
74587SOL     OW25657   8.572   4.824   8.107
74587SOL    HW125658   8.500   4.885   8.125
74587SOL    HW225659   8.651   4.878   8.113
74588SOL     OW25660   5.689   4.528  14.309
74588SOL    HW125661   5.673   4.439  14.277
74588SOL    HW225662   5.776   4.524  14.348
74589SOL     OW25663  13.893  11.125   4.183
74589SOL    HW125664  13.880  11.104   4.091
74589SOL    HW225665  13.986  11.148   4.190
74590SOL     OW25666   2.366   1.416  10.404
74590SOL    HW125667   2.359   1.441  10.496
74590SOL    HW225668   2.342   1.495  10.356
74591SOL     OW25669  12.083   9.922  13.437
74591SOL    HW125670  12.069   9.829  13.453
74591SOL    HW225671  12.151   9.947  13.500
74592SOL     OW25672  12.537   2.895   6.340
74592SOL    HW125673  12.504   2.983   6.361
74592SOL    HW225674  12.631   2.901   6.356
74593SOL     OW25675   4.958   7.219  10.996
74593SOL    HW125676   5.019   7.177  10.935
74593SOL    HW225677   5.015   7.259  11.062
74594SOL     OW25678  13.753   0.979   4.629
74594SOL    HW125679  13.715   1.021   4.552
74594SOL    HW225680  13.701   1.012   4.702
74595SOL     OW25681   2.454  11.598  10.954
74595SOL    HW125682   2.373  11.637  10.921
74595SOL    HW225683   2.434  11.574  11.044
74596SOL     OW25684   3.134  11.018   3.670
74596SOL    HW125685   3.206  11.054   3.618
74596SOL    HW225686   3.062  11.008   3.608
74597SOL     OW25687   9.670   2.199   0.389
74597SOL    HW125688   9.752   2.248   0.393
74597SOL    HW225689   9.655   2.187   0.295
74598SOL     OW25690   4.560   0.316   7.152
74598SOL    HW125691   4.600   0.354   7.074
74598SOL    HW225692   4.564   0.222   7.139
74599SOL     OW25693   8.556   9.518   2.116
74599SOL    HW125694   8.544   9.596   2.062
74599SOL    HW225695   8.616   9.463   2.066
74600SOL     OW25696   4.864   6.246   2.297
74600SOL    HW125697   4.827   6.190   2.365
74600SOL    HW225698   4.913   6.313   2.346
74601SOL     OW25699   2.675   7.010   0.076
74601SOL    HW125700   2.718   7.033   0.159
74601SOL    HW225701   2.593   7.058   0.077
74602SOL     OW25702  12.165   5.533   7.757
74602SOL    HW125703  12.183   5.579   7.675
74602SOL    HW225704  12.215   5.581   7.823
74603SOL     OW25705  11.314   0.593  10.241
74603SOL    HW125706  11.289   0.587  10.149
74603SOL    HW225707  11.372   0.518  10.254
74604SOL     OW25708  10.950   3.072   5.112
74604SOL    HW125709  10.990   3.144   5.160
74604SOL    HW225710  10.867   3.108   5.079
74605SOL     OW25711   2.423  10.332   7.183
74605SOL    HW125712   2.515  10.312   7.165
74605SOL    HW225713   2.410  10.419   7.146
74606SOL     OW25714   6.062   2.984   6.649
74606SOL    HW125715   6.141   2.956   6.694
74606SOL    HW225716   6.085   2.984   6.557
74607SOL     OW25717   0.247  10.565  12.511
74607SOL    HW125718   0.338  10.537  12.502
74607SOL    HW225719   0.212  10.509  12.579
74608SOL     OW25720  11.023   3.007   3.892
74608SOL    HW125721  10.990   3.096   3.887
74608SOL    HW225722  10.944   2.953   3.899
74609SOL     OW25723   2.290  14.101   8.982
74609SOL    HW125724   2.276  14.176   9.039
74609SOL    HW225725   2.274  14.025   9.038
74610SOL     OW25726  10.365   9.411   8.408
74610SOL    HW125727  10.390   9.491   8.361
74610SOL    HW225728  10.387   9.340   8.347
74611SOL     OW25729   0.839   6.171   7.163
74611SOL    HW125730   0.789   6.090   7.162
74611SOL    HW225731   0.914   6.152   7.220
74612SOL     OW25732   0.577   5.161  12.647
74612SOL    HW125733   0.639   5.167  12.575
74612SOL    HW225734   0.495   5.192  12.611
74613SOL     OW25735  11.231   8.245   3.607
74613SOL    HW125736  11.288   8.234   3.531
74613SOL    HW225737  11.286   8.218   3.681
74614SOL     OW25738   2.902  14.210   3.632
74614SOL    HW125739   2.864  14.122   3.631
74614SOL    HW225740   2.827  14.268   3.621
74615SOL     OW25741  11.513   9.523  11.916
74615SOL    HW125742  11.587   9.509  11.858
74615SOL    HW225743  11.544   9.495  12.002
74616SOL     OW25744   5.581   3.709   1.712
74616SOL    HW125745   5.544   3.796   1.694
74616SOL    HW225746   5.587   3.704   1.807
74617SOL     OW25747   2.344   1.277   9.990
74617SOL    HW125748   2.275   1.337  10.017
74617SOL    HW225749   2.364   1.303   9.900
74618SOL     OW25750   9.810   2.481   8.445
74618SOL    HW125751   9.808   2.520   8.532
74618SOL    HW225752   9.726   2.436   8.437
74619SOL     OW25753  14.246  10.814   4.414
74619SOL    HW125754  14.273  10.902   4.442
74619SOL    HW225755  14.157  10.827   4.379
74620SOL     OW25756  12.948   0.683   8.032
74620SOL    HW125757  13.015   0.630   7.988
74620SOL    HW225758  12.970   0.774   8.009
74621SOL     OW25759   7.367   2.468   9.126
74621SOL    HW125760   7.308   2.408   9.171
74621SOL    HW225761   7.365   2.548   9.178
74622SOL     OW25762  11.470   9.733   9.687
74622SOL    HW125763  11.512   9.691   9.613
74622SOL    HW225764  11.455   9.823   9.659
74623SOL     OW25765  11.407   2.692   1.781
74623SOL    HW125766  11.378   2.728   1.866
74623SOL    HW225767  11.333   2.640   1.751
74624SOL     OW25768  10.564   8.735   7.729
74624SOL    HW125769  10.480   8.690   7.718
74624SOL    HW225770  10.556   8.781   7.812
74625SOL     OW25771   8.830  12.626  14.322
74625SOL    HW125772   8.820  12.665  14.409
74625SOL    HW225773   8.815  12.698  14.261
74626SOL     OW25774   2.504   1.629   9.701
74626SOL    HW125775   2.524   1.536   9.716
74626SOL    HW225776   2.419   1.629   9.657
74627SOL     OW25777   6.469   3.030  14.220
74627SOL    HW125778   6.515   3.063  14.297
74627SOL    HW225779   6.382   3.008  14.251
74628SOL     OW25780   9.693   3.419  12.219
74628SOL    HW125781   9.605   3.443  12.188
74628SOL    HW225782   9.750   3.438  12.145
74629SOL     OW25783  12.699   1.166   8.203
74629SOL    HW125784  12.654   1.100   8.151
74629SOL    HW225785  12.792   1.147   8.191
74630SOL     OW25786  11.486  13.488   8.989
74630SOL    HW125787  11.423  13.559   8.974
74630SOL    HW225788  11.482  13.474   9.084
74631SOL     OW25789  12.130  14.487  11.526
74631SOL    HW125790  12.167  14.401  11.503
74631SOL    HW225791  12.201  14.535  11.567
74632SOL     OW25792  11.834  13.444   8.675
74632SOL    HW125793  11.752  13.423   8.721
74632SOL    HW225794  11.882  13.361   8.673
74633SOL     OW25795   4.913  11.992   2.311
74633SOL    HW125796   4.871  11.998   2.225
74633SOL    HW225797   4.928  12.083   2.337
74634SOL     OW25798   7.216  13.079   0.055
74634SOL    HW125799   7.285  13.136   0.022
74634SOL    HW225800   7.139  13.100   0.001
74635SOL     OW25801   4.363   2.795   1.780
74635SOL    HW125802   4.378   2.750   1.698
74635SOL    HW225803   4.321   2.878   1.755
74636SOL     OW25804   7.171   9.856   0.323
74636SOL    HW125805   7.084   9.846   0.285
74636SOL    HW225806   7.159   9.921   0.393
74637SOL     OW25807   6.894   1.189   6.756
74637SOL    HW125808   6.800   1.204   6.768
74637SOL    HW225809   6.919   1.135   6.831
74638SOL     OW25810   3.692   8.571   3.803
74638SOL    HW125811   3.701   8.662   3.830
74638SOL    HW225812   3.637   8.575   3.725
74639SOL     OW25813   5.339  13.914   4.754
74639SOL    HW125814   5.285  13.906   4.832
74639SOL    HW225815   5.324  13.832   4.706
74640SOL     OW25816   1.489  12.208  13.571
74640SOL    HW125817   1.519  12.250  13.652
74640SOL    HW225818   1.552  12.238  13.505
74641SOL     OW25819   7.294  12.305   4.670
74641SOL    HW125820   7.200  12.302   4.651
74641SOL    HW225821   7.299  12.323   4.763
74642SOL     OW25822   4.770   5.562  12.485
74642SOL    HW125823   4.779   5.552  12.390
74642SOL    HW225824   4.804   5.479  12.521
74643SOL     OW25825   7.196   8.443  12.285
74643SOL    HW125826   7.223   8.525  12.328
74643SOL    HW225827   7.247   8.441  12.204
74644SOL     OW25828   7.923   6.225  13.201
74644SOL    HW125829   7.934   6.282  13.277
74644SOL    HW225830   7.991   6.159  13.210
74645SOL     OW25831  12.584   6.229  14.519
74645SOL    HW125832  12.524   6.162  14.488
74645SOL    HW225833  12.530   6.284  14.577
74646SOL     OW25834  10.742   0.087   1.966
74646SOL    HW125835  10.776   0.054   2.050
74646SOL    HW225836  10.757   0.015   1.905
74647SOL     OW25837   8.766   9.634  10.088
74647SOL    HW125838   8.858   9.608  10.086
74647SOL    HW225839   8.766   9.722  10.051
74648SOL     OW25840   1.749   6.024   8.622
74648SOL    HW125841   1.711   5.948   8.667
74648SOL    HW225842   1.786   6.077   8.693
74649SOL     OW25843   0.310   7.316   5.514
74649SOL    HW125844   0.365   7.263   5.456
74649SOL    HW225845   0.366   7.388   5.542
74650SOL     OW25846   0.863   1.136  11.116
74650SOL    HW125847   0.839   1.043  11.121
74650SOL    HW225848   0.787   1.182  11.149
74651SOL     OW25849   5.328   7.963  13.784
74651SOL    HW125850   5.406   8.013  13.760
74651SOL    HW225851   5.340   7.878  13.741
74652SOL     OW25852   1.435  10.770  13.368
74652SOL    HW125853   1.466  10.768  13.277
74652SOL    HW225854   1.502  10.720  13.416
74653SOL     OW25855  14.100   7.063   7.403
74653SOL    HW125856  14.101   6.986   7.346
74653SOL    HW225857  14.184   7.060   7.448
74654SOL     OW25858   5.780   4.605   6.675
74654SOL    HW125859   5.689   4.577   6.686
74654SOL    HW225860   5.829   4.552   6.738
74655SOL     OW25861  10.955   3.569   1.224
74655SOL    HW125862  10.972   3.476   1.207
74655SOL    HW225863  10.939   3.574   1.318
74656SOL     OW25864   7.338  10.197  11.580
74656SOL    HW125865   7.433  10.183  11.584
74656SOL    HW225866   7.325  10.284  11.619
74657SOL     OW25867  13.581   2.711   8.634
74657SOL    HW125868  13.566   2.804   8.618
74657SOL    HW225869  13.674   2.697   8.614
74658SOL     OW25870   5.012  11.395  11.424
74658SOL    HW125871   4.997  11.485  11.395
74658SOL    HW225872   5.101  11.375  11.395
74659SOL     OW25873  14.202   5.149  12.945
74659SOL    HW125874  14.254   5.168  12.867
74659SOL    HW225875  14.247   5.196  13.016
74660SOL     OW25876   0.595   4.509  13.600
74660SOL    HW125877   0.646   4.557  13.665
74660SOL    HW225878   0.656   4.443  13.566
74661SOL     OW25879  12.812   4.282   5.638
74661SOL    HW125880  12.742   4.218   5.648
74661SOL    HW225881  12.892   4.230   5.634
74662SOL     OW25882   4.830   5.481  13.855
74662SOL    HW125883   4.914   5.495  13.900
74662SOL    HW225884   4.769   5.539  13.901
74663SOL     OW25885  14.649   2.581  11.767
74663SOL    HW125886  14.601   2.517  11.715
74663SOL    HW225887  14.612   2.574  11.855
74664SOL     OW25888  13.538  13.303   6.298
74664SOL    HW125889  13.620  13.261   6.322
74664SOL    HW225890  13.514  13.263   6.215
74665SOL     OW25891  13.396   8.955   9.506
74665SOL    HW125892  13.481   8.999   9.513
74665SOL    HW225893  13.398   8.888   9.574
74666SOL     OW25894   7.629   2.032   1.008
74666SOL    HW125895   7.709   2.080   1.029
74666SOL    HW225896   7.595   2.004   1.093
74667SOL     OW25897   2.250   7.511   7.318
74667SOL    HW125898   2.280   7.514   7.227
74667SOL    HW225899   2.282   7.427   7.351
74668SOL     OW25900   8.452  11.542   2.103
74668SOL    HW125901   8.386  11.491   2.149
74668SOL    HW225902   8.403  11.616   2.065
74669SOL     OW25903   8.179   2.044  12.266
74669SOL    HW125904   8.157   1.952  12.251
74669SOL    HW225905   8.213   2.075  12.182
74670SOL     OW25906   4.208   4.831   5.763
74670SOL    HW125907   4.155   4.791   5.694
74670SOL    HW225908   4.280   4.873   5.715
74671SOL     OW25909   3.853   5.047   6.692
74671SOL    HW125910   3.837   4.961   6.652
74671SOL    HW225911   3.818   5.110   6.630
74672SOL     OW25912  10.540   3.118   1.976
74672SOL    HW125913  10.629   3.096   1.951
74672SOL    HW225914  10.507   3.173   1.905
74673SOL     OW25915   2.613   9.779  13.498
74673SOL    HW125916   2.669   9.733  13.436
74673SOL    HW225917   2.525   9.774  13.460
74674SOL     OW25918  12.630   5.309   1.796
74674SOL    HW125919  12.652   5.240   1.733
74674SOL    HW225920  12.619   5.263   1.879
74675SOL     OW25921  11.734   3.114  10.735
74675SOL    HW125922  11.708   3.206  10.727
74675SOL    HW225923  11.824   3.117  10.766
74676SOL     OW25924   7.443  14.386   8.352
74676SOL    HW125925   7.479  14.434   8.277
74676SOL    HW225926   7.520  14.347   8.394
74677SOL     OW25927  14.663   4.745   2.740
74677SOL    HW125928  14.637   4.759   2.649
74677SOL    HW225929  14.604   4.677   2.772
74678SOL     OW25930  10.208   4.479   0.985
74678SOL    HW125931  10.120   4.446   0.966
74678SOL    HW225932  10.264   4.437   0.919
74679SOL     OW25933   0.329   5.017   0.454
74679SOL    HW125934   0.420   5.046   0.449
74679SOL    HW225935   0.313   4.972   0.372
74680SOL     OW25936  10.230   2.839  14.397
74680SOL    HW125937  10.177   2.805  14.470
74680SOL    HW225938  10.166   2.864  14.331
74681SOL     OW25939   2.887   5.266   8.282
74681SOL    HW125940   2.861   5.357   8.269
74681SOL    HW225941   2.819   5.229   8.339
74682SOL     OW25942  11.873   2.573   8.293
74682SOL    HW125943  11.798   2.632   8.287
74682SOL    HW225944  11.867   2.536   8.382
74683SOL     OW25945   2.023   8.847   4.507
74683SOL    HW125946   2.117   8.864   4.507
74683SOL    HW225947   2.013   8.762   4.550
74684SOL     OW25948   4.980   4.106   4.777
74684SOL    HW125949   5.019   4.035   4.829
74684SOL    HW225950   4.890   4.076   4.761
74685SOL     OW25951   3.248   8.512  11.070
74685SOL    HW125952   3.210   8.427  11.093
74685SOL    HW225953   3.339   8.505  11.099
74686SOL     OW25954   4.662   2.438   8.526
74686SOL    HW125955   4.624   2.351   8.514
74686SOL    HW225956   4.691   2.439   8.617
74687SOL     OW25957  11.327   5.839   2.988
74687SOL    HW125958  11.318   5.923   2.942
74687SOL    HW225959  11.296   5.774   2.925
74688SOL     OW25960  13.165   7.079   7.575
74688SOL    HW125961  13.198   7.167   7.557
74688SOL    HW225962  13.192   7.061   7.666
74689SOL     OW25963   2.401   5.607   2.477
74689SOL    HW125964   2.456   5.535   2.509
74689SOL    HW225965   2.461   5.680   2.466
74690SOL     OW25966  11.728  14.817   3.639
74690SOL    HW125967  11.703  14.763   3.714
74690SOL    HW225968  11.696  14.769   3.562
74691SOL     OW25969   2.135   6.393  14.151
74691SOL    HW125970   2.187   6.335  14.207
74691SOL    HW225971   2.047   6.357  14.154
74692SOL     OW25972   8.850  14.764   8.462
74692SOL    HW125973   8.811  14.724   8.384
74692SOL    HW225974   8.851  14.858   8.443
74693SOL     OW25975   1.748  10.689   9.090
74693SOL    HW125976   1.754  10.674   8.996
74693SOL    HW225977   1.839  10.681   9.121
74694SOL     OW25978   2.508  12.154  14.207
74694SOL    HW125979   2.580  12.092  14.202
74694SOL    HW225980   2.549  12.239  14.191
74695SOL     OW25981  12.300   4.585  13.739
74695SOL    HW125982  12.395   4.576  13.751
74695SOL    HW225983  12.288   4.592  13.645
74696SOL     OW25984   7.159  10.276  14.468
74696SOL    HW125985   7.064  10.261  14.476
74696SOL    HW225986   7.194  10.190  14.443
74697SOL     OW25987   7.161   5.538   7.991
74697SOL    HW125988   7.145   5.581   7.906
74697SOL    HW225989   7.249   5.502   7.984
74698SOL     OW25990  12.970  13.545  13.628
74698SOL    HW125991  12.971  13.576  13.718
74698SOL    HW225992  13.011  13.459  13.632
74699SOL     OW25993   6.361   1.480   8.664
74699SOL    HW125994   6.278   1.449   8.627
74699SOL    HW225995   6.413   1.508   8.588
74700SOL     OW25996  10.979  14.740   7.129
74700SOL    HW125997  11.023  14.706   7.051
74700SOL    HW225998  11.035  14.714   7.202
74701SOL     OW25999   6.325   9.229   4.464
74701SOL    HW126000   6.237   9.218   4.428
74701SOL    HW226001   6.342   9.147   4.511
74702SOL     OW26002   1.264   1.252   9.460
74702SOL    HW126003   1.172   1.238   9.480
74702SOL    HW226004   1.284   1.187   9.393
74703SOL     OW26005   6.647   3.128  12.772
74703SOL    HW126006   6.609   3.040  12.771
74703SOL    HW226007   6.728   3.118  12.823
74704SOL     OW26008  12.736   2.101   4.752
74704SOL    HW126009  12.824   2.122   4.722
74704SOL    HW226010  12.695   2.058   4.678
74705SOL     OW26011   7.404  14.812   0.477
74705SOL    HW126012   7.415  14.742   0.541
74705SOL    HW226013   7.465  14.790   0.407
74706SOL     OW26014   3.844  13.085   3.466
74706SOL    HW126015   3.848  13.029   3.388
74706SOL    HW226016   3.838  13.024   3.539
74707SOL     OW26017  14.640   0.281  14.338
74707SOL    HW126018  14.561   0.230  14.323
74707SOL    HW226019  14.669   0.307  14.250
74708SOL     OW26020  14.448  11.472   9.021
74708SOL    HW126021  14.425  11.390   8.977
74708SOL    HW226022  14.540  11.486   8.997
74709SOL     OW26023   9.585   0.137  10.041
74709SOL    HW126024   9.563   0.218  10.087
74709SOL    HW226025   9.509   0.080  10.057
74710SOL     OW26026  14.247   7.295   7.991
74710SOL    HW126027  14.162   7.280   8.032
74710SOL    HW226028  14.258   7.222   7.931
74711SOL     OW26029   3.622   7.994   5.267
74711SOL    HW126030   3.558   8.048   5.314
74711SOL    HW226031   3.637   7.920   5.325
74712SOL     OW26032   2.911  12.116  13.257
74712SOL    HW126033   2.925  12.023  13.244
74712SOL    HW226034   2.911  12.153  13.169
74713SOL     OW26035   5.858   1.522   2.869
74713SOL    HW126036   5.945   1.538   2.835
74713SOL    HW226037   5.867   1.528   2.964
74714SOL     OW26038  14.727   8.688  14.222
74714SOL    HW126039  14.705   8.684  14.315
74714SOL    HW226040  14.711   8.779  14.197
74715SOL     OW26041   2.322  12.492  13.279
74715SOL    HW126042   2.414  12.515  13.285
74715SOL    HW226043   2.294  12.477  13.369
74716SOL     OW26044   0.212   3.621   0.963
74716SOL    HW126045   0.206   3.696   1.022
74716SOL    HW226046   0.195   3.545   1.018
74717SOL     OW26047   8.258   0.300   1.344
74717SOL    HW126048   8.171   0.266   1.323
74717SOL    HW226049   8.268   0.283   1.438
74718SOL     OW26050   1.491   9.426   6.025
74718SOL    HW126051   1.541   9.352   6.059
74718SOL    HW226052   1.494   9.414   5.930
74719SOL     OW26053   1.991   8.837  13.535
74719SOL    HW126054   1.979   8.929  13.512
74719SOL    HW226055   1.926   8.791  13.482
74720SOL     OW26056  14.146   7.305   5.126
74720SOL    HW126057  14.134   7.377   5.189
74720SOL    HW226058  14.058   7.272   5.110
74721SOL     OW26059   4.471   1.616   4.816
74721SOL    HW126060   4.424   1.550   4.866
74721SOL    HW226061   4.533   1.654   4.878
74722SOL     OW26062   5.942   0.130   9.150
74722SOL    HW126063   5.921   0.206   9.095
74722SOL    HW226064   6.037   0.134   9.161
74723SOL     OW26065   7.446  14.244  11.338
74723SOL    HW126066   7.429  14.208  11.250
74723SOL    HW226067   7.540  14.235  11.350
74724SOL     OW26068   9.809  12.398   4.302
74724SOL    HW126069   9.849  12.388   4.216
74724SOL    HW226070   9.717  12.419   4.284
74725SOL     OW26071   0.406  10.029   2.993
74725SOL    HW126072   0.389   9.946   3.037
74725SOL    HW226073   0.402  10.095   3.062
74726SOL     OW26074   9.122   7.573   1.181
74726SOL    HW126075   9.195   7.635   1.183
74726SOL    HW226076   9.152   7.502   1.124
74727SOL     OW26077  12.034   8.036  11.951
74727SOL    HW126078  11.994   8.059  11.867
74727SOL    HW226079  12.121   8.005  11.928
74728SOL     OW26080   6.408  14.691  10.467
74728SOL    HW126081   6.423  14.785  10.458
74728SOL    HW226082   6.325  14.676  10.421
74729SOL     OW26083   3.872  11.006  11.414
74729SOL    HW126084   3.879  11.014  11.319
74729SOL    HW226085   3.954  11.043  11.447
74730SOL     OW26086   7.492   2.190   1.367
74730SOL    HW126087   7.519   2.208   1.457
74730SOL    HW226088   7.396   2.192   1.369
74731SOL     OW26089  10.997   4.936   8.144
74731SOL    HW126090  10.959   4.949   8.057
74731SOL    HW226091  10.924   4.952   8.204
74732SOL     OW26092  12.182  13.448  11.925
74732SOL    HW126093  12.106  13.406  11.964
74732SOL    HW226094  12.257  13.396  11.955
74733SOL     OW26095   0.728   1.813  13.391
74733SOL    HW126096   0.640   1.783  13.413
74733SOL    HW226097   0.714   1.897  13.346
74734SOL     OW26098   5.912  14.554   5.832
74734SOL    HW126099   5.981  14.600   5.784
74734SOL    HW226100   5.920  14.585   5.922
74735SOL     OW26101  13.491   9.693   2.290
74735SOL    HW126102  13.399   9.709   2.312
74735SOL    HW226103  13.526   9.646   2.366
74736SOL     OW26104   8.545   2.255  12.139
74736SOL    HW126105   8.527   2.278  12.230
74736SOL    HW226106   8.608   2.183  12.144
74737SOL     OW26107  11.597   2.796   2.052
74737SOL    HW126108  11.502   2.785   2.050
74737SOL    HW226109  11.621   2.787   2.144
74738SOL     OW26110   1.229  10.892  10.089
74738SOL    HW126111   1.241  10.966  10.030
74738SOL    HW226112   1.168  10.924  10.156
74739SOL     OW26113   4.732  11.097   1.959
74739SOL    HW126114   4.778  11.165   2.010
74739SOL    HW226115   4.799  11.030   1.945
74740SOL     OW26116   6.351  13.726   9.543
74740SOL    HW126117   6.262  13.706   9.572
74740SOL    HW226118   6.366  13.669   9.467
74741SOL     OW26119   5.649   8.438   1.455
74741SOL    HW126120   5.642   8.468   1.546
74741SOL    HW226121   5.715   8.369   1.458
74742SOL     OW26122  13.906   4.433   3.449
74742SOL    HW126123  13.963   4.501   3.414
74742SOL    HW226124  13.944   4.409   3.533
74743SOL     OW26125   1.528   9.034   4.990
74743SOL    HW126126   1.587   9.034   5.065
74743SOL    HW226127   1.551   9.113   4.941
74744SOL     OW26128   5.337   0.534   9.577
74744SOL    HW126129   5.350   0.452   9.529
74744SOL    HW226130   5.422   0.578   9.571
74745SOL     OW26131   2.050   7.120   0.588
74745SOL    HW126132   2.062   7.183   0.518
74745SOL    HW226133   1.977   7.155   0.639
74746SOL     OW26134  10.613   8.143   9.652
74746SOL    HW126135  10.626   8.203   9.579
74746SOL    HW226136  10.686   8.081   9.645
74747SOL     OW26137  13.837  10.971   0.543
74747SOL    HW126138  13.892  11.033   0.494
74747SOL    HW226139  13.747  10.996   0.522
74748SOL     OW26140  14.777   4.514  14.026
74748SOL    HW126141  14.726   4.483  14.101
74748SOL    HW226142  14.722   4.581  13.986
74749SOL     OW26143   2.165   1.270  12.761
74749SOL    HW126144   2.074   1.301  12.765
74749SOL    HW226145   2.211   1.337  12.711
74750SOL     OW26146   3.936   8.690   2.997
74750SOL    HW126147   3.929   8.745   2.920
74750SOL    HW226148   3.855   8.707   3.046
74751SOL     OW26149   7.225  13.976  13.968
74751SOL    HW126150   7.256  13.897  14.012
74751SOL    HW226151   7.206  13.947  13.879
74752SOL     OW26152   9.040   9.999   7.194
74752SOL    HW126153   8.980  10.053   7.141
74752SOL    HW226154   9.124  10.043   7.186
74753SOL     OW26155  10.152   5.582   3.578
74753SOL    HW126156  10.156   5.675   3.556
74753SOL    HW226157  10.232   5.545   3.542
74754SOL     OW26158  13.660   9.299  14.550
74754SOL    HW126159  13.621   9.215  14.528
74754SOL    HW226160  13.589   9.347  14.593
74755SOL     OW26161   8.166   1.338   9.939
74755SOL    HW126162   8.246   1.370   9.981
74755SOL    HW226163   8.099   1.344  10.007
74756SOL     OW26164   9.905   0.475   7.212
74756SOL    HW126165   9.824   0.439   7.247
74756SOL    HW226166   9.876   0.533   7.141
74757SOL     OW26167   0.461   5.339   0.765
74757SOL    HW126168   0.519   5.308   0.696
74757SOL    HW226169   0.396   5.393   0.719
74758SOL     OW26170   9.312   9.949  12.690
74758SOL    HW126171   9.338  10.033  12.726
74758SOL    HW226172   9.353   9.884  12.748
74759SOL     OW26173   2.687  11.315   8.190
74759SOL    HW126174   2.707  11.225   8.163
74759SOL    HW226175   2.654  11.307   8.279
74760SOL     OW26176   9.799  11.854   3.415
74760SOL    HW126177   9.826  11.889   3.500
74760SOL    HW226178   9.706  11.831   3.426
74761SOL     OW26179   4.025   9.445   5.741
74761SOL    HW126180   4.003   9.423   5.831
74761SOL    HW226181   4.102   9.393   5.721
74762SOL     OW26182  10.143  11.935   1.954
74762SOL    HW126183  10.215  11.878   1.981
74762SOL    HW226184  10.074  11.918   2.018
74763SOL     OW26185   1.631   8.019  10.908
74763SOL    HW126186   1.668   8.055  10.828
74763SOL    HW226187   1.697   8.036  10.975
74764SOL     OW26188   6.562  12.350   9.233
74764SOL    HW126189   6.558  12.399   9.151
74764SOL    HW226190   6.507  12.273   9.217
74765SOL     OW26191   5.376   4.367   9.297
74765SOL    HW126192   5.373   4.436   9.231
74765SOL    HW226193   5.293   4.321   9.287
74766SOL     OW26194   8.851   6.709   8.622
74766SOL    HW126195   8.796   6.760   8.563
74766SOL    HW226196   8.910   6.661   8.564
74767SOL     OW26197   2.499  10.437   8.603
74767SOL    HW126198   2.518  10.437   8.697
74767SOL    HW226199   2.574  10.395   8.563
74768SOL     OW26200   1.051  13.086   9.658
74768SOL    HW126201   0.995  13.032   9.602
74768SOL    HW226202   0.994  13.157   9.688
74769SOL     OW26203   3.100  12.111  12.567
74769SOL    HW126204   3.098  12.198  12.527
74769SOL    HW226205   3.081  12.051  12.496
74770SOL     OW26206   3.225   2.661   9.308
74770SOL    HW126207   3.304   2.641   9.259
74770SOL    HW226208   3.251   2.729   9.370
74771SOL     OW26209   3.288   2.262  11.009
74771SOL    HW126210   3.278   2.180  10.961
74771SOL    HW226211   3.382   2.277  11.011
74772SOL     OW26212   5.124  11.315   2.283
74772SOL    HW126213   5.122  11.406   2.313
74772SOL    HW226214   5.169  11.319   2.198
74773SOL     OW26215   6.881   4.570   1.691
74773SOL    HW126216   6.975   4.559   1.707
74773SOL    HW226217   6.849   4.482   1.675
74774SOL     OW26218  13.381   5.679   5.845
74774SOL    HW126219  13.362   5.770   5.823
74774SOL    HW226220  13.438   5.648   5.776
74775SOL     OW26221  12.411  10.422  13.837
74775SOL    HW126222  12.419  10.476  13.759
74775SOL    HW226223  12.430  10.481  13.910
74776SOL     OW26224  11.302   1.852   7.481
74776SOL    HW126225  11.355   1.778   7.511
74776SOL    HW226226  11.216   1.838   7.520
74777SOL     OW26227  10.756   2.984  10.988
74777SOL    HW126228  10.838   3.025  10.960
74777SOL    HW226229  10.766   2.892  10.965
74778SOL     OW26230   0.951   0.841   8.577
74778SOL    HW126231   0.929   0.921   8.625
74778SOL    HW226232   0.888   0.776   8.609
74779SOL     OW26233   0.621   7.889   4.009
74779SOL    HW126234   0.567   7.956   3.967
74779SOL    HW226235   0.561   7.815   4.020
74780SOL     OW26236   6.556   8.558  13.481
74780SOL    HW126237   6.462   8.572  13.467
74780SOL    HW226238   6.583   8.503  13.408
74781SOL     OW26239   4.254  12.256   7.710
74781SOL    HW126240   4.254  12.327   7.646
74781SOL    HW226241   4.245  12.176   7.658
74782SOL     OW26242  14.829  14.324   0.485
74782SOL    HW126243   0.021  14.262   0.520
74782SOL    HW226244   0.004  14.370   0.415
74783SOL     OW26245  14.750   6.210  14.348
74783SOL    HW126246  14.766   6.238  14.438
74783SOL    HW226247  14.787   6.281  14.294
74784SOL     OW26248   9.495   5.623   3.995
74784SOL    HW126249   9.516   5.531   3.976
74784SOL    HW226250   9.425   5.618   4.060
74785SOL     OW26251  14.668  11.419   6.183
74785SOL    HW126252  14.656  11.513   6.193
74785SOL    HW226253  14.630  11.399   6.097
74786SOL     OW26254  11.511   4.399   0.523
74786SOL    HW126255  11.485   4.340   0.593
74786SOL    HW226256  11.606   4.387   0.515
74787SOL     OW26257   8.113   8.036   1.343
74787SOL    HW126258   8.206   8.013   1.338
74787SOL    HW226259   8.112   8.117   1.395
74788SOL     OW26260   5.159  11.077   8.430
74788SOL    HW126261   5.082  11.021   8.424
74788SOL    HW226262   5.127  11.157   8.473
74789SOL     OW26263  11.874   3.756  12.847
74789SOL    HW126264  11.888   3.664  12.870
74789SOL    HW226265  11.837   3.753  12.759
74790SOL     OW26266   3.601   6.964   2.137
74790SOL    HW126267   3.601   6.888   2.195
74790SOL    HW226268   3.628   6.928   2.052
74791SOL     OW26269  12.537  14.708   3.474
74791SOL    HW126270  12.584  14.731   3.554
74791SOL    HW226271  12.473  14.642   3.502
74792SOL     OW26272   6.909  10.805   4.747
74792SOL    HW126273   6.891  10.740   4.815
74792SOL    HW226274   6.835  10.798   4.687
74793SOL     OW26275   0.535   0.045  10.521
74793SOL    HW126276   0.467   0.096  10.478
74793SOL    HW226277   0.617   0.088  10.497
74794SOL     OW26278   7.434   2.898   7.389
74794SOL    HW126279   7.484   2.978   7.370
74794SOL    HW226280   7.421   2.857   7.304
74795SOL     OW26281   6.574   5.765  10.596
74795SOL    HW126282   6.663   5.758  10.629
74795SOL    HW226283   6.584   5.793  10.505
74796SOL     OW26284   7.983   3.717   3.578
74796SOL    HW126285   7.953   3.788   3.634
74796SOL    HW226286   8.068   3.747   3.545
74797SOL     OW26287  12.283   0.295   2.715
74797SOL    HW126288  12.312   0.303   2.806
74797SOL    HW226289  12.339   0.228   2.677
74798SOL     OW26290   2.628   8.328   0.525
74798SOL    HW126291   2.647   8.366   0.610
74798SOL    HW226292   2.533   8.328   0.519
74799SOL     OW26293   8.510   9.878   3.324
74799SOL    HW126294   8.518   9.798   3.376
74799SOL    HW226295   8.516   9.849   3.233
74800SOL     OW26296  12.128  14.723  13.974
74800SOL    HW126297  12.056  14.728  13.912
74800SOL    HW226298  12.107  14.788  14.042
74801SOL     OW26299   9.929   1.648   6.332
74801SOL    HW126300   9.856   1.679   6.279
74801SOL    HW226301   9.931   1.553   6.319
74802SOL     OW26302   0.554  11.033   3.129
74802SOL    HW126303   0.647  11.044   3.152
74802SOL    HW226304   0.552  11.033   3.034
74803SOL     OW26305   1.432   5.110   1.081
74803SOL    HW126306   1.407   5.182   1.025
74803SOL    HW226307   1.414   5.031   1.030
74804SOL     OW26308   1.563   0.970  12.767
74804SOL    HW126309   1.629   0.901  12.760
74804SOL    HW226310   1.608   1.041  12.813
74805SOL     OW26311  12.008   3.157  11.434
74805SOL    HW126312  12.014   3.234  11.490
74805SOL    HW226313  12.008   3.191  11.345
74806SOL     OW26314   6.663   6.482   8.135
74806SOL    HW126315   6.753   6.469   8.103
74806SOL    HW226316   6.666   6.566   8.181
74807SOL     OW26317   7.753  12.405   7.074
74807SOL    HW126318   7.798  12.489   7.084
74807SOL    HW226319   7.796  12.363   7.000
74808SOL     OW26320  12.904   4.822   4.990
74808SOL    HW126321  12.827   4.825   4.933
74808SOL    HW226322  12.955   4.898   4.966
74809SOL     OW26323  10.111   9.087   9.278
74809SOL    HW126324  10.174   9.159   9.285
74809SOL    HW226325  10.054   9.097   9.353
74810SOL     OW26326   0.631  14.734  13.184
74810SOL    HW126327   0.701  14.794  13.159
74810SOL    HW226328   0.656  14.703  13.271
74811SOL     OW26329   7.516  10.016   0.584
74811SOL    HW126330   7.507   9.960   0.507
74811SOL    HW226331   7.491  10.103   0.554
74812SOL     OW26332   3.519   7.863  12.091
74812SOL    HW126333   3.434   7.870  12.047
74812SOL    HW226334   3.501   7.809  12.168
74813SOL     OW26335  11.825  11.771  12.881
74813SOL    HW126336  11.799  11.860  12.905
74813SOL    HW226337  11.920  11.775  12.871
74814SOL     OW26338   8.120   9.765  13.713
74814SOL    HW126339   8.107   9.707  13.638
74814SOL    HW226340   8.141   9.850  13.674
74815SOL     OW26341   0.375   7.609   6.222
74815SOL    HW126342   0.419   7.684   6.183
74815SOL    HW226343   0.283   7.619   6.198
74816SOL     OW26344  14.545  12.977  12.068
74816SOL    HW126345  14.493  12.897  12.081
74816SOL    HW226346  14.636  12.946  12.065
74817SOL     OW26347   7.772   2.123   6.096
74817SOL    HW126348   7.822   2.201   6.068
74817SOL    HW226349   7.830   2.080   6.159
74818SOL     OW26350  10.469   6.334   2.487
74818SOL    HW126351  10.460   6.420   2.446
74818SOL    HW226352  10.386   6.320   2.533
74819SOL     OW26353  11.950  13.257   3.645
74819SOL    HW126354  11.895  13.302   3.710
74819SOL    HW226355  12.036  13.296   3.656
74820SOL     OW26356   2.112   8.250  11.606
74820SOL    HW126357   2.074   8.182  11.550
74820SOL    HW226358   2.036   8.300  11.638
74821SOL     OW26359   3.324  11.138   7.973
74821SOL    HW126360   3.248  11.161   8.027
74821SOL    HW226361   3.399  11.150   8.031
74822SOL     OW26362   9.120  13.793   2.677
74822SOL    HW126363   9.174  13.872   2.669
74822SOL    HW226364   9.147  13.755   2.761
74823SOL     OW26365  14.790   3.151   3.512
74823SOL    HW126366  14.849   3.211   3.558
74823SOL    HW226367  14.802   3.067   3.556
74824SOL     OW26368   4.779  14.685   3.994
74824SOL    HW126369   4.686  14.661   4.001
74824SOL    HW226370   4.808  14.644   3.913
74825SOL     OW26371  13.651   8.801   9.580
74825SOL    HW126372  13.702   8.844   9.511
74825SOL    HW226373  13.718   8.765   9.639
74826SOL     OW26374   5.549   5.587   5.645
74826SOL    HW126375   5.642   5.607   5.655
74826SOL    HW226376   5.506   5.672   5.646
74827SOL     OW26377   7.579  12.104   7.156
74827SOL    HW126378   7.643  12.146   7.213
74827SOL    HW226379   7.504  12.086   7.212
74828SOL     OW26380   2.766   1.919  12.621
74828SOL    HW126381   2.765   1.959  12.534
74828SOL    HW226382   2.836   1.854  12.617
74829SOL     OW26383   0.299   6.947  13.174
74829SOL    HW126384   0.394   6.951  13.159
74829SOL    HW226385   0.266   7.029  13.139
74830SOL     OW26386  11.215   7.636  10.109
74830SOL    HW126387  11.282   7.658  10.174
74830SOL    HW226388  11.160   7.714  10.102
74831SOL     OW26389   9.420  11.420   7.747
74831SOL    HW126390   9.425  11.351   7.813
74831SOL    HW226391   9.355  11.389   7.684
74832SOL     OW26392   4.168  11.152   1.785
74832SOL    HW126393   4.249  11.203   1.774
74832SOL    HW226394   4.114  11.178   1.711
74833SOL     OW26395  10.236   2.122  11.427
74833SOL    HW126396  10.145   2.136  11.398
74833SOL    HW226397  10.289   2.164  11.359
74834SOL     OW26398  12.064   3.429   4.117
74834SOL    HW126399  12.130   3.414   4.049
74834SOL    HW226400  12.030   3.516   4.097
74835SOL     OW26401   2.556  10.385  10.105
74835SOL    HW126402   2.477  10.436  10.083
74835SOL    HW226403   2.525  10.319  10.167
74836SOL     OW26404  12.090  11.604   5.921
74836SOL    HW126405  12.143  11.682   5.939
74836SOL    HW226406  12.080  11.602   5.826
74837SOL     OW26407  10.125  10.924  11.279
74837SOL    HW126408  10.197  10.987  11.271
74837SOL    HW226409  10.085  10.922  11.192
74838SOL     OW26410   8.968   3.341   8.817
74838SOL    HW126411   9.039   3.391   8.776
74838SOL    HW226412   8.889   3.393   8.799
74839SOL     OW26413   8.638   0.334   0.549
74839SOL    HW126414   8.667   0.405   0.606
74839SOL    HW226415   8.566   0.372   0.499
74840SOL     OW26416  14.081   2.318  11.586
74840SOL    HW126417  14.044   2.338  11.671
74840SOL    HW226418  14.159   2.266  11.605
74841SOL     OW26419   8.770   6.626   5.072
74841SOL    HW126420   8.747   6.715   5.045
74841SOL    HW226421   8.797   6.634   5.163
74842SOL     OW26422  12.233   8.663   8.873
74842SOL    HW126423  12.289   8.586   8.865
74842SOL    HW226424  12.292   8.737   8.858
74843SOL     OW26425  13.797   2.593   5.985
74843SOL    HW126426  13.795   2.570   5.892
74843SOL    HW226427  13.711   2.566   6.017
74844SOL     OW26428   9.085  14.225   7.675
74844SOL    HW126429   9.153  14.292   7.669
74844SOL    HW226430   9.085  14.198   7.767
74845SOL     OW26431   2.642   6.060   5.601
74845SOL    HW126432   2.582   6.079   5.530
74845SOL    HW226433   2.607   6.109   5.676
74846SOL     OW26434   1.384   2.289  12.856
74846SOL    HW126435   1.343   2.371  12.883
74846SOL    HW226436   1.461   2.281  12.913
74847SOL     OW26437  14.004   9.353   3.103
74847SOL    HW126438  14.018   9.385   3.014
74847SOL    HW226439  14.085   9.374   3.149
74848SOL     OW26440   9.395   0.392   3.443
74848SOL    HW126441   9.417   0.359   3.530
74848SOL    HW226442   9.475   0.437   3.415
74849SOL     OW26443   3.772   2.872   6.265
74849SOL    HW126444   3.759   2.805   6.198
74849SOL    HW226445   3.756   2.955   6.220
74850SOL     OW26446   2.303   4.604  11.293
74850SOL    HW126447   2.378   4.661  11.276
74850SOL    HW226448   2.335   4.540  11.357
74851SOL     OW26449   4.558   3.093   8.268
74851SOL    HW126450   4.531   3.001   8.262
74851SOL    HW226451   4.640   3.097   8.218
74852SOL     OW26452   3.598   4.598   0.664
74852SOL    HW126453   3.610   4.517   0.713
74852SOL    HW226454   3.507   4.622   0.679
74853SOL     OW26455   9.101   0.293  10.106
74853SOL    HW126456   9.117   0.316  10.198
74853SOL    HW226457   9.157   0.354  10.057
74854SOL     OW26458  14.802  13.665   4.056
74854SOL    HW126459   0.021  13.637   4.048
74854SOL    HW226460  14.793  13.690   4.148
74855SOL     OW26461  13.723   1.884   6.057
74855SOL    HW126462  13.703   1.868   6.149
74855SOL    HW226463  13.637   1.889   6.015
74856SOL     OW26464   0.042   6.863   9.456
74856SOL    HW126465  14.861   6.794   9.495
74856SOL    HW226466   0.044   6.932   9.522
74857SOL     OW26467   3.064  13.738   0.951
74857SOL    HW126468   3.010  13.764   0.876
74857SOL    HW226469   3.018  13.773   1.027
74858SOL     OW26470   0.108   7.676   1.135
74858SOL    HW126471   0.014   7.682   1.119
74858SOL    HW226472   0.148   7.686   1.049
74859SOL     OW26473   0.654   5.422   4.173
74859SOL    HW126474   0.588   5.470   4.122
74859SOL    HW226475   0.650   5.462   4.260
74860SOL     OW26476  11.808  10.504  12.915
74860SOL    HW126477  11.835  10.477  12.827
74860SOL    HW226478  11.754  10.432  12.947
74861SOL     OW26479   0.267  13.572   4.710
74861SOL    HW126480   0.267  13.644   4.647
74861SOL    HW226481   0.204  13.599   4.777
74862SOL     OW26482  14.296  12.357  13.050
74862SOL    HW126483  14.288  12.301  12.973
74862SOL    HW226484  14.221  12.332  13.105
74863SOL     OW26485  11.469   1.748   9.113
74863SOL    HW126486  11.380   1.752   9.147
74863SOL    HW226487  11.498   1.839   9.113
74864SOL     OW26488   7.479   4.936   8.192
74864SOL    HW126489   7.526   4.889   8.123
74864SOL    HW226490   7.387   4.912   8.178
74865SOL     OW26491   0.614   3.108   2.160
74865SOL    HW126492   0.604   3.013   2.167
74865SOL    HW226493   0.526   3.142   2.175
74866SOL     OW26494  14.225   0.839   1.565
74866SOL    HW126495  14.239   0.880   1.650
74866SOL    HW226496  14.266   0.753   1.573
74867SOL     OW26497  11.560   0.850   2.543
74867SOL    HW126498  11.629   0.861   2.477
74867SOL    HW226499  11.605   0.860   2.627
74868SOL     OW26500  12.295  12.824   2.109
74868SOL    HW126501  12.217  12.778   2.139
74868SOL    HW226502  12.362  12.756   2.104
74869SOL     OW26503  11.575  13.544   9.873
74869SOL    HW126504  11.549  13.558   9.782
74869SOL    HW226505  11.620  13.624   9.898
74870SOL     OW26506   9.828  11.604   6.604
74870SOL    HW126507   9.913  11.609   6.561
74870SOL    HW226508   9.810  11.510   6.611
74871SOL     OW26509   9.686   4.825   4.903
74871SOL    HW126510   9.749   4.886   4.941
74871SOL    HW226511   9.701   4.743   4.950
74872SOL     OW26512   0.344   9.536   1.482
74872SOL    HW126513   0.257   9.498   1.496
74872SOL    HW226514   0.384   9.483   1.413
74873SOL     OW26515   4.879  14.509   2.055
74873SOL    HW126516   4.925  14.495   1.973
74873SOL    HW226517   4.947  14.536   2.117
74874SOL     OW26518   7.518   3.234   9.166
74874SOL    HW126519   7.468   3.290   9.106
74874SOL    HW226520   7.558   3.294   9.228
74875SOL     OW26521   8.076  14.027   2.843
74875SOL    HW126522   8.087  14.116   2.808
74875SOL    HW226523   8.153  13.979   2.813
74876SOL     OW26524   1.714  10.949  12.220
74876SOL    HW126525   1.707  11.021  12.282
74876SOL    HW226526   1.791  10.969  12.168
74877SOL     OW26527   0.019   1.170  13.802
74877SOL    HW126528   0.092   1.224  13.773
74877SOL    HW226529   0.036   1.084  13.763
74878SOL     OW26530  10.553   7.469  10.483
74878SOL    HW126531  10.516   7.497  10.400
74878SOL    HW226532  10.611   7.541  10.508
74879SOL     OW26533   9.918   3.261   1.488
74879SOL    HW126534   9.935   3.241   1.396
74879SOL    HW226535   9.992   3.314   1.516
74880SOL     OW26536   5.210   3.256   7.514
74880SOL    HW126537   5.115   3.261   7.511
74880SOL    HW226538   5.230   3.235   7.606
74881SOL     OW26539   0.531  13.938   5.186
74881SOL    HW126540   0.575  13.857   5.158
74881SOL    HW226541   0.438  13.921   5.170
74882SOL     OW26542  14.065   3.829   7.928
74882SOL    HW126543  14.099   3.810   7.841
74882SOL    HW226544  13.980   3.786   7.931
74883SOL     OW26545   0.350   3.199   5.130
74883SOL    HW126546   0.430   3.250   5.132
74883SOL    HW226547   0.354   3.145   5.209
74884SOL     OW26548   5.573   7.771  14.024
74884SOL    HW126549   5.557   7.689  14.070
74884SOL    HW226550   5.525   7.836  14.076
74885SOL     OW26551   1.145   0.806   2.906
74885SOL    HW126552   1.094   0.726   2.911
74885SOL    HW226553   1.235   0.779   2.924
74886SOL     OW26554   5.416  10.583   7.512
74886SOL    HW126555   5.336  10.569   7.563
74886SOL    HW226556   5.385  10.603   7.424
74887SOL     OW26557   8.303   3.767   9.931
74887SOL    HW126558   8.312   3.857   9.962
74887SOL    HW226559   8.339   3.769   9.842
74888SOL     OW26560   2.464  10.004   5.503
74888SOL    HW126561   2.530  10.040   5.562
74888SOL    HW226562   2.502   9.921   5.474
74889SOL     OW26563  13.772   2.113   7.217
74889SOL    HW126564  13.826   2.084   7.291
74889SOL    HW226565  13.702   2.047   7.211
74890SOL     OW26566   9.538   4.595  13.394
74890SOL    HW126567   9.556   4.506  13.423
74890SOL    HW226568   9.445   4.594  13.372
74891SOL     OW26569   0.973  14.279   9.016
74891SOL    HW126570   0.979  14.298   9.110
74891SOL    HW226571   0.941  14.361   8.977
74892SOL     OW26572   5.831  14.023   5.871
74892SOL    HW126573   5.801  14.019   5.962
74892SOL    HW226574   5.833  14.117   5.851
74893SOL     OW26575   1.476  14.393  10.045
74893SOL    HW126576   1.458  14.347  10.128
74893SOL    HW226577   1.562  14.359  10.019
74894SOL     OW26578  14.391   1.579   3.624
74894SOL    HW126579  14.325   1.639   3.659
74894SOL    HW226580  14.387   1.591   3.530
74895SOL     OW26581   9.833   6.294  14.462
74895SOL    HW126582   9.761   6.357  14.460
74895SOL    HW226583   9.892   6.326  14.531
74896SOL     OW26584  11.474  14.718  13.871
74896SOL    HW126585  11.557  14.759  13.895
74896SOL    HW226586  11.495  14.625  13.864
74897SOL     OW26587   9.091   5.294   1.417
74897SOL    HW126588   9.159   5.283   1.350
74897SOL    HW226589   9.136   5.332   1.492
74898SOL     OW26590   3.587   5.499   7.833
74898SOL    HW126591   3.680   5.490   7.812
74898SOL    HW226592   3.552   5.411   7.825
74899SOL     OW26593   3.625  14.025   8.109
74899SOL    HW126594   3.575  14.106   8.119
74899SOL    HW226595   3.607  13.996   8.020
74900SOL     OW26596  13.019  12.409   0.500
74900SOL    HW126597  13.018  12.386   0.407
74900SOL    HW226598  13.107  12.443   0.515
74901SOL     OW26599  13.204  14.117   9.271
74901SOL    HW126600  13.182  14.151   9.357
74901SOL    HW226601  13.168  14.028   9.270
74902SOL     OW26602   8.151   3.812   3.159
74902SOL    HW126603   8.226   3.870   3.146
74902SOL    HW226604   8.118   3.795   3.070
74903SOL     OW26605   4.190   6.534  13.640
74903SOL    HW126606   4.232   6.457  13.677
74903SOL    HW226607   4.105   6.538  13.683
74904SOL     OW26608   1.550   6.266   1.529
74904SOL    HW126609   1.554   6.306   1.616
74904SOL    HW226610   1.618   6.312   1.479
74905SOL     OW26611   4.529   1.004  12.022
74905SOL    HW126612   4.541   1.029  11.930
74905SOL    HW226613   4.582   1.066  12.071
74906SOL     OW26614  11.413   8.201   3.786
74906SOL    HW126615  11.400   8.262   3.859
74906SOL    HW226616  11.433   8.117   3.828
74907SOL     OW26617  13.419   4.601  12.906
74907SOL    HW126618  13.427   4.578  12.998
74907SOL    HW226619  13.356   4.537  12.871
74908SOL     OW26620  12.562  10.416   8.533
74908SOL    HW126621  12.489  10.391   8.590
74908SOL    HW226622  12.581  10.507   8.557
74909SOL     OW26623  13.739  14.089  14.551
74909SOL    HW126624  13.805  14.115  14.615
74909SOL    HW226625  13.780  14.107  14.466
74910SOL     OW26626   0.015   6.120  13.546
74910SOL    HW126627   0.081   6.068  13.591
74910SOL    HW226628  14.865   6.069  13.468
74911SOL     OW26629   7.114  13.352  12.962
74911SOL    HW126630   7.090  13.325  13.051
74911SOL    HW226631   7.208  13.336  12.957
74912SOL     OW26632   3.828   5.834   4.486
74912SOL    HW126633   3.860   5.755   4.532
74912SOL    HW226634   3.754   5.803   4.434
74913SOL     OW26635   8.085   2.148   9.058
74913SOL    HW126636   8.166   2.198   9.062
74913SOL    HW226637   8.036   2.188   8.986
74914SOL     OW26638   8.532  12.031   4.545
74914SOL    HW126639   8.439  12.013   4.559
74914SOL    HW226640   8.569  11.948   4.516
74915SOL     OW26641  11.065   1.182   2.909
74915SOL    HW126642  11.017   1.264   2.895
74915SOL    HW226643  11.070   1.142   2.823
74916SOL     OW26644   0.321   9.208   6.835
74916SOL    HW126645   0.271   9.223   6.754
74916SOL    HW226646   0.280   9.266   6.899
74917SOL     OW26647   6.351   2.736  12.372
74917SOL    HW126648   6.349   2.643  12.350
74917SOL    HW226649   6.350   2.781  12.288
74918SOL     OW26650   5.898  12.925  14.355
74918SOL    HW126651   5.993  12.929  14.345
74918SOL    HW226652   5.872  12.843  14.312
74919SOL     OW26653  11.574  13.176  13.750
74919SOL    HW126654  11.500  13.232  13.775
74919SOL    HW226655  11.589  13.120  13.827
74920SOL     OW26656   2.444   2.394  12.548
74920SOL    HW126657   2.439   2.473  12.493
74920SOL    HW226658   2.510   2.415  12.614
74921SOL     OW26659  12.254   3.509   9.415
74921SOL    HW126660  12.225   3.419   9.406
74921SOL    HW226661  12.296   3.512   9.502
74922SOL     OW26662  13.518  10.744  10.724
74922SOL    HW126663  13.454  10.815  10.716
74922SOL    HW226664  13.470  10.665  10.697
74923SOL     OW26665   6.444   4.638   1.862
74923SOL    HW126666   6.351   4.631   1.841
74923SOL    HW226667   6.456   4.729   1.888
74924SOL     OW26668   6.574   4.849   0.633
74924SOL    HW126669   6.631   4.829   0.708
74924SOL    HW226670   6.559   4.943   0.639
74925SOL     OW26671   4.447   1.235   0.668
74925SOL    HW126672   4.495   1.282   0.600
74925SOL    HW226673   4.438   1.297   0.740
74926SOL     OW26674  10.279  13.365   6.420
74926SOL    HW126675  10.252  13.393   6.333
74926SOL    HW226676  10.372  13.343   6.410
74927SOL     OW26677   1.314   6.289  10.558
74927SOL    HW126678   1.353   6.202  10.550
74927SOL    HW226679   1.221   6.272  10.572
74928SOL     OW26680   1.001   1.146   1.338
74928SOL    HW126681   0.971   1.062   1.372
74928SOL    HW226682   1.093   1.132   1.316
74929SOL     OW26683   5.674  11.140   8.386
74929SOL    HW126684   5.761  11.165   8.418
74929SOL    HW226685   5.666  11.184   8.301
74930SOL     OW26686   3.562  10.260  12.985
74930SOL    HW126687   3.646  10.215  12.987
74930SOL    HW226688   3.548  10.283  12.893
74931SOL     OW26689  11.679  12.101  11.065
74931SOL    HW126690  11.606  12.102  11.004
74931SOL    HW226691  11.639  12.113  11.151
74932SOL     OW26692  12.480   9.835   7.520
74932SOL    HW126693  12.570   9.810   7.544
74932SOL    HW226694  12.476   9.929   7.536
74933SOL     OW26695  11.584   5.235   4.685
74933SOL    HW126696  11.673   5.214   4.657
74933SOL    HW226697  11.560   5.164   4.745
74934SOL     OW26698   4.124  14.764   1.582
74934SOL    HW126699   4.134  14.676   1.547
74934SOL    HW226700   4.110  14.820   1.506
74935SOL     OW26701  13.729   6.571   5.654
74935SOL    HW126702  13.688   6.601   5.735
74935SOL    HW226703  13.778   6.646   5.622
74936SOL     OW26704  10.791   4.339  13.962
74936SOL    HW126705  10.732   4.414  13.956
74936SOL    HW226706  10.833   4.335  13.876
74937SOL     OW26707  12.641  14.433   8.651
74937SOL    HW126708  12.569  14.421   8.589
74937SOL    HW226709  12.599  14.445   8.736
74938SOL     OW26710   3.634   1.604   7.060
74938SOL    HW126711   3.629   1.699   7.048
74938SOL    HW226712   3.580   1.587   7.137
74939SOL     OW26713   1.776  12.060   1.345
74939SOL    HW126714   1.693  12.017   1.326
74939SOL    HW226715   1.761  12.107   1.427
74940SOL     OW26716  12.168   8.374   0.936
74940SOL    HW126717  12.173   8.469   0.927
74940SOL    HW226718  12.206   8.339   0.855
74941SOL     OW26719  11.627  14.729   4.238
74941SOL    HW126720  11.697  14.793   4.225
74941SOL    HW226721  11.608  14.734   4.332
74942SOL     OW26722   6.966  14.359   0.148
74942SOL    HW126723   7.050  14.392   0.181
74942SOL    HW226724   6.986  14.325   0.061
74943SOL     OW26725  12.044  12.744   7.579
74943SOL    HW126726  12.096  12.678   7.625
74943SOL    HW226727  12.106  12.815   7.561
74944SOL     OW26728  12.614   0.404  11.849
74944SOL    HW126729  12.555   0.402  11.924
74944SOL    HW226730  12.695   0.365  11.882
74945SOL     OW26731   0.217   1.579  12.930
74945SOL    HW126732   0.218   1.494  12.973
74945SOL    HW226733   0.310   1.606  12.928
74946SOL     OW26734   4.146  12.541   6.304
74946SOL    HW126735   4.198  12.504   6.376
74946SOL    HW226736   4.057  12.511   6.321
74947SOL     OW26737   5.477  10.575  12.914
74947SOL    HW126738   5.492  10.669  12.929
74947SOL    HW226739   5.404  10.572  12.852
74948SOL     OW26740   1.825  12.646   2.659
74948SOL    HW126741   1.798  12.578   2.597
74948SOL    HW226742   1.897  12.691   2.614
74949SOL     OW26743  11.979  13.397   0.966
74949SOL    HW126744  11.944  13.382   0.879
74949SOL    HW226745  11.949  13.323   1.018
74950SOL     OW26746   2.558  13.726   9.240
74950SOL    HW126747   2.553  13.808   9.287
74950SOL    HW226748   2.648  13.696   9.252
74951SOL     OW26749   5.541   0.295  13.744
74951SOL    HW126750   5.522   0.214  13.698
74951SOL    HW226751   5.636   0.304  13.739
74952SOL     OW26752   0.709   3.454   4.441
74952SOL    HW126753   0.741   3.490   4.359
74952SOL    HW226754   0.626   3.499   4.457
74953SOL     OW26755  13.463   3.580   9.474
74953SOL    HW126756  13.430   3.661   9.514
74953SOL    HW226757  13.508   3.535   9.545
74954SOL     OW26758  13.088   7.583   7.157
74954SOL    HW126759  13.028   7.516   7.124
74954SOL    HW226760  13.111   7.634   7.079
74955SOL     OW26761   1.007   3.343   1.964
74955SOL    HW126762   1.054   3.355   1.882
74955SOL    HW226763   0.934   3.285   1.941
74956SOL     OW26764  10.879  14.178   8.274
74956SOL    HW126765  10.849  14.114   8.209
74956SOL    HW226766  10.932  14.240   8.224
74957SOL     OW26767   2.073   3.645   4.027
74957SOL    HW126768   2.024   3.723   4.054
74957SOL    HW226769   2.138   3.632   4.096
74958SOL     OW26770   1.771   6.364  13.497
74958SOL    HW126771   1.825   6.326  13.428
74958SOL    HW226772   1.822   6.439  13.528
74959SOL     OW26773  11.702   9.692   6.040
74959SOL    HW126774  11.753   9.630   6.092
74959SOL    HW226775  11.767   9.739   5.988
74960SOL     OW26776   2.923  14.595   4.200
74960SOL    HW126777   2.862  14.662   4.231
74960SOL    HW226778   2.883  14.560   4.121
74961SOL     OW26779   3.777   2.114  10.286
74961SOL    HW126780   3.697   2.067  10.309
74961SOL    HW226781   3.841   2.083  10.351
74962SOL     OW26782   8.672  13.369   8.249
74962SOL    HW126783   8.587  13.409   8.266
74962SOL    HW226784   8.713  13.425   8.183
74963SOL     OW26785   9.383   6.425   2.531
74963SOL    HW126786   9.468   6.448   2.494
74963SOL    HW226787   9.393   6.439   2.625
74964SOL     OW26788  13.825   7.032  14.764
74964SOL    HW126789  13.853   6.947  14.798
74964SOL    HW226790  13.768   7.011  14.690
74965SOL     OW26791  13.701   6.098  12.117
74965SOL    HW126792  13.733   6.188  12.128
74965SOL    HW226793  13.620   6.108  12.066
74966SOL     OW26794   6.047  12.371   2.729
74966SOL    HW126795   5.971  12.396   2.781
74966SOL    HW226796   6.112  12.438   2.749
74967SOL     OW26797   4.684  11.894   6.844
74967SOL    HW126798   4.779  11.890   6.832
74967SOL    HW226799   4.664  11.819   6.900
74968SOL     OW26800   8.757   9.354   7.278
74968SOL    HW126801   8.702   9.292   7.325
74968SOL    HW226802   8.846   9.317   7.285
74969SOL     OW26803   6.197   5.048  12.102
74969SOL    HW126804   6.174   5.139  12.123
74969SOL    HW226805   6.163   5.035  12.013
74970SOL     OW26806  11.081   4.493  12.330
74970SOL    HW126807  10.996   4.471  12.368
74970SOL    HW226808  11.144   4.481  12.401
74971SOL     OW26809   0.914   6.489   2.492
74971SOL    HW126810   0.914   6.533   2.408
74971SOL    HW226811   0.853   6.540   2.546
74972SOL     OW26812  14.572  11.258   4.525
74972SOL    HW126813  14.620  11.320   4.470
74972SOL    HW226814  14.620  11.259   4.608
74973SOL     OW26815   4.129   9.112   2.195
74973SOL    HW126816   4.034   9.111   2.188
74973SOL    HW226817   4.158   9.178   2.132
74974SOL     OW26818   0.261   2.659  10.383
74974SOL    HW126819   0.275   2.746  10.421
74974SOL    HW226820   0.250   2.675  10.290
74975SOL     OW26821  13.119   0.010   6.129
74975SOL    HW126822  13.070  14.819   6.076
74975SOL    HW226823  13.058   0.036   6.198
74976SOL     OW26824  14.080  11.608   8.762
74976SOL    HW126825  14.154  11.668   8.766
74976SOL    HW226826  14.081  11.563   8.846
74977SOL     OW26827   5.909   6.557   7.213
74977SOL    HW126828   5.972   6.617   7.174
74977SOL    HW226829   5.824   6.599   7.199
74978SOL     OW26830   0.136   3.486   8.161
74978SOL    HW126831   0.185   3.405   8.146
74978SOL    HW226832   0.094   3.473   8.246
74979SOL     OW26833  11.161   1.917   0.944
74979SOL    HW126834  11.250   1.883   0.931
74979SOL    HW226835  11.112   1.844   0.981
74980SOL     OW26836   5.234   7.750   5.914
74980SOL    HW126837   5.286   7.670   5.909
74980SOL    HW226838   5.248   7.782   6.004
74981SOL     OW26839  12.809  12.272  14.023
74981SOL    HW126840  12.824  12.366  14.015
74981SOL    HW226841  12.726  12.257  13.978
74982SOL     OW26842  12.291  12.596  10.306
74982SOL    HW126843  12.292  12.591  10.211
74982SOL    HW226844  12.340  12.519  10.335
74983SOL     OW26845   5.597  14.255   1.495
74983SOL    HW126846   5.528  14.189   1.499
74983SOL    HW226847   5.595  14.288   1.405
74984SOL     OW26848   6.307   0.811   7.827
74984SOL    HW126849   6.377   0.761   7.784
74984SOL    HW226850   6.283   0.878   7.764
74985SOL     OW26851  13.912   6.619   3.830
74985SOL    HW126852  13.930   6.711   3.812
74985SOL    HW226853  13.985   6.591   3.886
74986SOL     OW26854   8.005  10.946  13.082
74986SOL    HW126855   8.098  10.948  13.061
74986SOL    HW226856   8.001  10.964  13.176
74987SOL     OW26857  13.780   4.735   5.127
74987SOL    HW126858  13.849   4.789   5.167
74987SOL    HW226859  13.726   4.706   5.201
74988SOL     OW26860  11.822   4.400  10.444
74988SOL    HW126861  11.784   4.474  10.396
74988SOL    HW226862  11.902   4.379  10.395
74989SOL     OW26863  14.196   3.227   2.367
74989SOL    HW126864  14.252   3.197   2.295
74989SOL    HW226865  14.251   3.219   2.445
74990SOL     OW26866   0.712  10.479   2.018
74990SOL    HW126867   0.734  10.536   1.945
74990SOL    HW226868   0.763  10.399   2.004
74991SOL     OW26869  13.175   1.438   2.048
74991SOL    HW126870  13.265   1.460   2.025
74991SOL    HW226871  13.183   1.362   2.105
74992SOL     OW26872   8.120   9.788  11.984
74992SOL    HW126873   8.055   9.840  12.030
74992SOL    HW226874   8.076   9.758  11.905
74993SOL     OW26875   5.748  13.303   0.506
74993SOL    HW126876   5.696  13.268   0.578
74993SOL    HW226877   5.836  13.271   0.522
74994SOL     OW26878  10.510   9.884   8.531
74994SOL    HW126879  10.482   9.975   8.533
74994SOL    HW226880  10.595   9.886   8.486
74995SOL     OW26881   3.760   8.562  10.176
74995SOL    HW126882   3.696   8.604  10.118
74995SOL    HW226883   3.771   8.474  10.139
74996SOL     OW26884   0.756   0.252   8.922
74996SOL    HW126885   0.678   0.210   8.960
74996SOL    HW226886   0.829   0.211   8.969
74997SOL     OW26887  10.771  12.265   1.847
74997SOL    HW126888  10.686  12.275   1.802
74997SOL    HW226889  10.759  12.188   1.903
74998SOL     OW26890   2.760  11.791  10.208
74998SOL    HW126891   2.712  11.708  10.201
74998SOL    HW226892   2.797  11.790  10.296
74999SOL     OW26893   6.744  10.694   4.159
74999SOL    HW126894   6.664  10.664   4.201
74999SOL    HW226895   6.719  10.773   4.111
75000SOL     OW26896   3.616  12.208  13.400
75000SOL    HW126897   3.682  12.272  13.428
75000SOL    HW226898   3.579  12.247  13.320
75001SOL     OW26899   7.644   9.806   8.547
75001SOL    HW126900   7.598   9.755   8.613
75001SOL    HW226901   7.729   9.824   8.586
75002SOL     OW26902   0.509   7.780   9.644
75002SOL    HW126903   0.463   7.773   9.728
75002SOL    HW226904   0.452   7.735   9.582
75003SOL     OW26905   1.910   3.832   4.150
75003SOL    HW126906   1.938   3.906   4.203
75003SOL    HW226907   1.871   3.873   4.072
75004SOL     OW26908   1.854   2.185   6.483
75004SOL    HW126909   1.813   2.263   6.447
75004SOL    HW226910   1.819   2.179   6.572
75005SOL     OW26911   0.771   8.600   8.318
75005SOL    HW126912   0.730   8.550   8.389
75005SOL    HW226913   0.841   8.543   8.286
75006SOL     OW26914   5.719   3.647   7.514
75006SOL    HW126915   5.703   3.600   7.596
75006SOL    HW226916   5.632   3.664   7.479
75007SOL     OW26917   8.061   7.454   9.872
75007SOL    HW126918   8.020   7.498   9.798
75007SOL    HW226919   8.006   7.476   9.947
75008SOL     OW26920  13.041  13.033  12.390
75008SOL    HW126921  13.050  13.084  12.309
75008SOL    HW226922  13.079  12.948  12.369
75009SOL     OW26923  12.025   6.182   0.410
75009SOL    HW126924  11.962   6.112   0.428
75009SOL    HW226925  12.037   6.179   0.315
75010SOL     OW26926  14.043   1.244   6.255
75010SOL    HW126927  13.974   1.198   6.207
75010SOL    HW226928  14.121   1.232   6.201
75011SOL     OW26929   4.162   8.597  11.255
75011SOL    HW126930   4.181   8.679  11.211
75011SOL    HW226931   4.248   8.556  11.268
75012SOL     OW26932  10.433   1.876   1.641
75012SOL    HW126933  10.393   1.902   1.724
75012SOL    HW226934  10.367   1.896   1.575
75013SOL     OW26935   4.155  11.025   2.922
75013SOL    HW126936   4.174  10.945   2.873
75013SOL    HW226937   4.065  11.046   2.899
75014SOL     OW26938  12.310  12.852  12.702
75014SOL    HW126939  12.312  12.777  12.642
75014SOL    HW226940  12.300  12.928  12.645
75015SOL     OW26941   4.436   2.344  13.961
75015SOL    HW126942   4.480   2.312  13.883
75015SOL    HW226943   4.505   2.383  14.014
75016SOL     OW26944   2.392  14.670   1.847
75016SOL    HW126945   2.341  14.749   1.832
75016SOL    HW226946   2.477  14.702   1.879
75017SOL     OW26947   6.691   1.578   7.301
75017SOL    HW126948   6.634   1.611   7.371
75017SOL    HW226949   6.763   1.536   7.347
75018SOL     OW26950   4.628   2.172   8.545
75018SOL    HW126951   4.605   2.099   8.487
75018SOL    HW226952   4.601   2.143   8.632
75019SOL     OW26953   8.219   3.906   4.734
75019SOL    HW126954   8.306   3.872   4.712
75019SOL    HW226955   8.217   3.994   4.695
75020SOL     OW26956  11.005   7.977   4.156
75020SOL    HW126957  10.922   8.023   4.167
75020SOL    HW226958  11.070   8.046   4.144
75021SOL     OW26959   1.856   0.078  12.998
75021SOL    HW126960   1.761   0.085  13.003
75021SOL    HW226961   1.888   0.167  13.011
75022SOL     OW26962   0.076  14.110  14.746
75022SOL    HW126963   0.123  14.154  14.675
75022SOL    HW226964   0.135  14.038  14.772
75023SOL     OW26965   3.392   4.369  10.139
75023SOL    HW126966   3.443   4.437  10.095
75023SOL    HW226967   3.457   4.305  10.169
75024SOL     OW26968   8.773  13.588   8.457
75024SOL    HW126969   8.682  13.573   8.485
75024SOL    HW226970   8.765  13.644   8.380
75025SOL     OW26971   3.906   3.253   4.452
75025SOL    HW126972   3.880   3.223   4.540
75025SOL    HW226973   3.823   3.266   4.406
75026SOL     OW26974  12.046   4.491   9.074
75026SOL    HW126975  12.020   4.460   9.160
75026SOL    HW226976  12.058   4.586   9.085
75027SOL     OW26977  13.819   6.929   9.260
75027SOL    HW126978  13.856   6.975   9.335
75027SOL    HW226979  13.726   6.950   9.262
75028SOL     OW26980   0.745   0.245  10.539
75028SOL    HW126981   0.779   0.324  10.581
75028SOL    HW226982   0.682   0.277  10.474
75029SOL     OW26983  11.000   1.009   8.450
75029SOL    HW126984  10.982   0.917   8.430
75029SOL    HW226985  11.071   1.033   8.391
75030SOL     OW26986  13.589  13.866  12.368
75030SOL    HW126987  13.501  13.902  12.376
75030SOL    HW226988  13.605  13.823  12.452
75031SOL     OW26989   1.455   2.128   2.382
75031SOL    HW126990   1.505   2.061   2.335
75031SOL    HW226991   1.387   2.155   2.321
75032SOL     OW26992   1.583   2.440   3.182
75032SOL    HW126993   1.527   2.416   3.108
75032SOL    HW226994   1.529   2.428   3.259
75033SOL     OW26995   8.761   3.600  13.480
75033SOL    HW126996   8.683   3.651  13.503
75033SOL    HW226997   8.830   3.636  13.534
75034SOL     OW26998  14.803  11.688   1.158
75034SOL    HW126999  14.725  11.685   1.214
75034SOL    HW227000  14.867  11.634   1.203
75035SOL     OW27001  11.368   7.307  12.248
75035SOL    HW127002  11.434   7.271  12.307
75035SOL    HW227003  11.295   7.245  12.255
75036SOL     OW27004  10.691  11.003   4.712
75036SOL    HW127005  10.723  11.029   4.626
75036SOL    HW227006  10.759  10.946   4.747
75037SOL     OW27007   6.721  14.859   3.665
75037SOL    HW127008   6.701  14.768   3.641
75037SOL    HW227009   6.703  14.863   3.759
75038SOL     OW27010  11.824  12.320   6.591
75038SOL    HW127011  11.781  12.240   6.561
75038SOL    HW227012  11.872  12.293   6.669
75039SOL     OW27013   1.232   2.497  10.338
75039SOL    HW127014   1.225   2.587  10.370
75039SOL    HW227015   1.145   2.460  10.351
75040SOL     OW27016   2.047   6.933   3.427
75040SOL    HW127017   2.038   6.954   3.334
75040SOL    HW227018   2.114   6.994   3.458
75041SOL     OW27019  12.071   8.347   9.300
75041SOL    HW127020  12.121   8.267   9.315
75041SOL    HW227021  12.061   8.351   9.204
75042SOL     OW27022   3.705  12.317   1.575
75042SOL    HW127023   3.704  12.395   1.631
75042SOL    HW227024   3.753  12.346   1.497
75043SOL     OW27025  12.199   0.210   2.035
75043SOL    HW127026  12.291   0.189   2.046
75043SOL    HW227027  12.191   0.238   1.944
75044SOL     OW27028   6.085   5.200   7.920
75044SOL    HW127029   6.126   5.285   7.906
75044SOL    HW227030   6.064   5.168   7.832
75045SOL     OW27031  11.738   4.237   7.130
75045SOL    HW127032  11.821   4.243   7.177
75045SOL    HW227033  11.682   4.184   7.187
75046SOL     OW27034   0.613   2.827  10.064
75046SOL    HW127035   0.617   2.809   9.970
75046SOL    HW227036   0.622   2.922  10.071
75047SOL     OW27037   1.045  11.995   8.306
75047SOL    HW127038   1.099  12.073   8.290
75047SOL    HW227039   1.099  11.940   8.362
75048SOL     OW27040  14.755   1.161   7.499
75048SOL    HW127041  14.773   1.123   7.585
75048SOL    HW227042  14.840   1.195   7.470
75049SOL     OW27043   2.626   5.868   2.131
75049SOL    HW127044   2.647   5.806   2.201
75049SOL    HW227045   2.544   5.836   2.095
75050SOL     OW27046  12.281   2.187  11.460
75050SOL    HW127047  12.293   2.111  11.403
75050SOL    HW227048  12.224   2.246  11.410
75051SOL     OW27049   5.930  11.473   2.928
75051SOL    HW127050   5.874  11.550   2.933
75051SOL    HW227051   6.016  11.504   2.958
75052SOL     OW27052  11.479   3.688  11.897
75052SOL    HW127053  11.424   3.708  11.973
75052SOL    HW227054  11.419   3.650  11.833
75053SOL     OW27055   5.567   9.783   5.074
75053SOL    HW127056   5.472   9.798   5.082
75053SOL    HW227057   5.601   9.867   5.042
75054SOL     OW27058   9.405   8.339   4.070
75054SOL    HW127059   9.469   8.386   4.017
75054SOL    HW227060   9.339   8.309   4.007
75055SOL     OW27061  11.970   3.769  13.447
75055SOL    HW127062  11.986   3.792  13.538
75055SOL    HW227063  11.881   3.734  13.446
75056SOL     OW27064  14.411   8.953   0.296
75056SOL    HW127065  14.317   8.944   0.280
75056SOL    HW227066  14.417   9.020   0.365
75057SOL     OW27067   2.926   4.472   0.414
75057SOL    HW127068   3.012   4.454   0.376
75057SOL    HW227069   2.891   4.386   0.436
75058SOL     OW27070   8.663  10.407   1.833
75058SOL    HW127071   8.651  10.444   1.745
75058SOL    HW227072   8.618  10.322   1.830
75059SOL     OW27073  12.570   3.388   1.966
75059SOL    HW127074  12.503   3.422   1.906
75059SOL    HW227075  12.592   3.463   2.023
75060SOL     OW27076   3.064   1.961   2.553
75060SOL    HW127077   3.048   1.894   2.487
75060SOL    HW227078   2.978   1.980   2.589
75061SOL     OW27079   3.423  14.461   6.929
75061SOL    HW127080   3.477  14.536   6.907
75061SOL    HW227081   3.356  14.459   6.861
75062SOL     OW27082   2.186   4.376  10.874
75062SOL    HW127083   2.099   4.350  10.906
75062SOL    HW227084   2.220   4.435  10.941
75063SOL     OW27085   1.187   9.463   4.167
75063SOL    HW127086   1.207   9.491   4.078
75063SOL    HW227087   1.106   9.413   4.159
75064SOL     OW27088   6.921   5.141   6.084
75064SOL    HW127089   6.943   5.231   6.104
75064SOL    HW227090   6.828   5.133   6.107
75065SOL     OW27091  13.609  13.745   2.519
75065SOL    HW127092  13.602  13.822   2.575
75065SOL    HW227093  13.617  13.671   2.580
75066SOL     OW27094   9.635   0.540  11.158
75066SOL    HW127095   9.555   0.488  11.166
75066SOL    HW227096   9.609   0.615  11.105
75067SOL     OW27097  12.735   3.895   5.762
75067SOL    HW127098  12.774   3.929   5.843
75067SOL    HW227099  12.686   3.968   5.727
75068SOL     OW27100  13.713   1.160   2.410
75068SOL    HW127101  13.695   1.078   2.456
75068SOL    HW227102  13.801   1.148   2.374
75069SOL     OW27103   1.403   4.123   7.811
75069SOL    HW127104   1.454   4.185   7.759
75069SOL    HW227105   1.335   4.176   7.852
75070SOL     OW27106  14.245  13.784  13.610
75070SOL    HW127107  14.167  13.836  13.592
75070SOL    HW227108  14.298  13.793  13.530
75071SOL     OW27109  12.727   9.773   0.875
75071SOL    HW127110  12.768   9.687   0.875
75071SOL    HW227111  12.641   9.759   0.913
75072SOL     OW27112  13.948  11.196  13.016
75072SOL    HW127113  14.023  11.161  12.969
75072SOL    HW227114  13.978  11.280  13.052
75073SOL     OW27115  10.662   1.807  12.819
75073SOL    HW127116  10.656   1.855  12.737
75073SOL    HW227117  10.724   1.858  12.872
75074SOL     OW27118   3.892  14.347   0.814
75074SOL    HW127119   3.850  14.432   0.814
75074SOL    HW227120   3.986  14.366   0.809
75075SOL     OW27121  12.158   7.287   8.848
75075SOL    HW127122  12.138   7.231   8.773
75075SOL    HW227123  12.254   7.287   8.853
75076SOL     OW27124   0.447   1.168  10.616
75076SOL    HW127125   0.370   1.224  10.622
75076SOL    HW227126   0.514   1.211  10.669
75077SOL     OW27127  14.761   3.858   1.534
75077SOL    HW127128  14.692   3.794   1.517
75077SOL    HW227129  14.792   3.884   1.447
75078SOL     OW27130   3.467   5.543  11.488
75078SOL    HW127131   3.467   5.635  11.511
75078SOL    HW227132   3.416   5.500  11.557
75079SOL     OW27133   3.963   4.809   7.553
75079SOL    HW127134   3.921   4.742   7.499
75079SOL    HW227135   3.894   4.871   7.572
75080SOL     OW27136   5.081   7.123   5.297
75080SOL    HW127137   5.079   7.043   5.349
75080SOL    HW227138   5.166   7.121   5.253
75081SOL     OW27139  12.824   5.361   2.005
75081SOL    HW127140  12.821   5.321   1.918
75081SOL    HW227141  12.877   5.300   2.057
75082SOL     OW27142  10.219   0.198   7.314
75082SOL    HW127143  10.220   0.144   7.393
75082SOL    HW227144  10.309   0.196   7.282
75083SOL     OW27145   0.781   9.824  14.513
75083SOL    HW127146   0.795   9.835  14.607
75083SOL    HW227147   0.800   9.911  14.476
75084SOL     OW27148   8.518   2.646   4.686
75084SOL    HW127149   8.612   2.654   4.668
75084SOL    HW227150   8.488   2.735   4.699
75085SOL     OW27151  12.830  14.674   8.119
75085SOL    HW127152  12.769  14.606   8.147
75085SOL    HW227153  12.899  14.627   8.073
75086SOL     OW27154  13.354   3.057  14.439
75086SOL    HW127155  13.380   3.105  14.518
75086SOL    HW227156  13.434   3.014  14.409
75087SOL     OW27157   5.946   2.082   4.495
75087SOL    HW127158   6.011   2.095   4.565
75087SOL    HW227159   5.872   2.039   4.539
75088SOL     OW27160   6.127  13.553   4.277
75088SOL    HW127161   6.131  13.649   4.279
75088SOL    HW227162   6.214  13.526   4.308
75089SOL     OW27163   5.018   2.979   6.030
75089SOL    HW127164   5.060   2.932   5.958
75089SOL    HW227165   4.951   2.918   6.062
75090SOL     OW27166  13.906   6.030   4.734
75090SOL    HW127167  13.893   5.940   4.763
75090SOL    HW227168  13.850   6.039   4.656
75091SOL     OW27169   4.616   7.828   6.380
75091SOL    HW127170   4.596   7.735   6.388
75091SOL    HW227171   4.532   7.868   6.358
75092SOL     OW27172   7.565  13.340  11.209
75092SOL    HW127173   7.520  13.414  11.249
75092SOL    HW227174   7.496  13.292  11.163
75093SOL     OW27175  12.404  10.711   2.551
75093SOL    HW127176  12.311  10.710   2.529
75093SOL    HW227177  12.448  10.693   2.468
75094SOL     OW27178   8.811  13.339  14.367
75094SOL    HW127179   8.727  13.317  14.407
75094SOL    HW227180   8.875  13.328  14.438
75095SOL     OW27181   3.567  14.311  11.368
75095SOL    HW127182   3.575  14.341  11.277
75095SOL    HW227183   3.634  14.244  11.377
75096SOL     OW27184   3.431  14.094   5.650
75096SOL    HW127185   3.370  14.164   5.625
75096SOL    HW227186   3.412  14.078   5.742
75097SOL     OW27187  14.114  10.982   0.787
75097SOL    HW127188  14.115  11.046   0.859
75097SOL    HW227189  14.055  10.913   0.817
75098SOL     OW27190   7.488   2.859   6.395
75098SOL    HW127191   7.438   2.787   6.435
75098SOL    HW227192   7.464   2.857   6.303
75099SOL     OW27193   1.183   9.797   0.173
75099SOL    HW127194   1.210   9.841   0.092
75099SOL    HW227195   1.255   9.812   0.234
75100SOL     OW27196  14.311  10.725   5.083
75100SOL    HW127197  14.234  10.667   5.082
75100SOL    HW227198  14.377  10.677   5.033
75101SOL     OW27199   7.211   9.122   7.352
75101SOL    HW127200   7.157   9.072   7.292
75101SOL    HW227201   7.168   9.112   7.437
75102SOL     OW27202   0.150  14.727   6.724
75102SOL    HW127203   0.166  14.822   6.725
75102SOL    HW227204   0.131  14.706   6.815
75103SOL     OW27205   9.898  12.923  11.805
75103SOL    HW127206   9.867  13.010  11.831
75103SOL    HW227207   9.923  12.881  11.888
75104SOL     OW27208  13.300   5.611   3.157
75104SOL    HW127209  13.229   5.654   3.205
75104SOL    HW227210  13.297   5.650   3.069
75105SOL     OW27211   5.929  13.256  11.614
75105SOL    HW127212   5.866  13.326  11.595
75105SOL    HW227213   5.881  13.175  11.598
75106SOL     OW27214  12.511  10.656   4.291
75106SOL    HW127215  12.451  10.645   4.365
75106SOL    HW227216  12.551  10.570   4.281
75107SOL     OW27217  10.174   1.820   9.171
75107SOL    HW127218  10.251   1.869   9.199
75107SOL    HW227219  10.131   1.793   9.252
75108SOL     OW27220  11.724   7.420  11.576
75108SOL    HW127221  11.758   7.456  11.658
75108SOL    HW227222  11.769   7.470  11.508
75109SOL     OW27223   5.736   7.553  10.998
75109SOL    HW127224   5.640   7.555  10.994
75109SOL    HW227225   5.757   7.586  11.085
75110SOL     OW27226   5.066   4.511  11.044
75110SOL    HW127227   5.059   4.431  11.096
75110SOL    HW227228   5.153   4.545  11.065
75111SOL     OW27229   8.020   2.350  14.585
75111SOL    HW127230   7.945   2.292  14.598
75111SOL    HW227231   8.025   2.401  14.665
75112SOL     OW27232  13.231   0.415  13.435
75112SOL    HW127233  13.239   0.494  13.488
75112SOL    HW227234  13.195   0.445  13.351
75113SOL     OW27235   9.052  13.066  10.554
75113SOL    HW127236   8.961  13.095  10.549
75113SOL    HW227237   9.056  12.987  10.500
75114SOL     OW27238   5.524  13.263   4.551
75114SOL    HW127239   5.594  13.236   4.491
75114SOL    HW227240   5.489  13.344   4.512
75115SOL     OW27241   1.956   8.377   8.457
75115SOL    HW127242   1.960   8.384   8.362
75115SOL    HW227243   1.939   8.284   8.474
75116SOL     OW27244  12.018   9.056  11.630
75116SOL    HW127245  12.011   8.995  11.556
75116SOL    HW227246  12.072   9.127  11.599
75117SOL     OW27247  12.356   2.250  13.541
75117SOL    HW127248  12.359   2.329  13.595
75117SOL    HW227249  12.443   2.244  13.501
75118SOL     OW27250   7.365  13.929   9.657
75118SOL    HW127251   7.452  13.930   9.697
75118SOL    HW227252   7.348  13.836   9.641
75119SOL     OW27253   5.083   1.487   0.011
75119SOL    HW127254   5.050   1.576   0.001
75119SOL    HW227255   5.047   1.439  14.807
75120SOL     OW27256   7.903  13.263   8.393
75120SOL    HW127257   7.857  13.179   8.394
75120SOL    HW227258   7.995  13.240   8.382
75121SOL     OW27259   4.647   0.469  13.280
75121SOL    HW127260   4.594   0.467  13.360
75121SOL    HW227261   4.732   0.435  13.307
75122SOL     OW27262   1.584  13.969   3.603
75122SOL    HW127263   1.641  14.036   3.567
75122SOL    HW227264   1.505  13.972   3.548
75123SOL     OW27265  14.170   6.768   0.561
75123SOL    HW127266  14.082   6.797   0.538
75123SOL    HW227267  14.220   6.848   0.573
75124SOL     OW27268  11.603  12.412   7.161
75124SOL    HW127269  11.551  12.476   7.209
75124SOL    HW227270  11.579  12.424   7.070
75125SOL     OW27271  11.287   8.605  11.014
75125SOL    HW127272  11.302   8.646  10.929
75125SOL    HW227273  11.338   8.524  11.011
75126SOL     OW27274  14.577   7.033  13.163
75126SOL    HW127275  14.665   6.996  13.169
75126SOL    HW227276  14.581   7.093  13.088
75127SOL     OW27277  12.165   6.216   1.801
75127SOL    HW127278  12.078   6.237   1.767
75127SOL    HW227279  12.202   6.156   1.737
75128SOL     OW27280  14.488   1.860  10.823
75128SOL    HW127281  14.459   1.782  10.872
75128SOL    HW227282  14.531   1.914  10.889
75129SOL     OW27283   9.230   6.228  12.971
75129SOL    HW127284   9.219   6.186  12.886
75129SOL    HW227285   9.288   6.168  13.020
75130SOL     OW27286  14.658  10.841  13.321
75130SOL    HW127287  14.580  10.818  13.372
75130SOL    HW227288  14.635  10.820  13.231
75131SOL     OW27289   7.383   0.719   6.850
75131SOL    HW127290   7.428   0.781   6.792
75131SOL    HW227291   7.304   0.695   6.802
75132SOL     OW27292   2.741   0.067   7.874
75132SOL    HW127293   2.664   0.110   7.836
75132SOL    HW227294   2.814   0.127   7.854
75133SOL     OW27295   4.423   6.424   0.076
75133SOL    HW127296   4.361   6.455   0.010
75133SOL    HW227297   4.468   6.351   0.034
75134SOL     OW27298   2.514   0.491   9.682
75134SOL    HW127299   2.498   0.448   9.766
75134SOL    HW227300   2.594   0.542   9.696
75135SOL     OW27301  12.131  10.885   6.400
75135SOL    HW127302  12.189  10.883   6.476
75135SOL    HW227303  12.107  10.977   6.390
75136SOL     OW27304   6.673   6.375  13.831
75136SOL    HW127305   6.681   6.320  13.909
75136SOL    HW227306   6.741   6.442  13.842
75137SOL     OW27307   3.073   3.443   5.208
75137SOL    HW127308   3.054   3.438   5.114
75137SOL    HW227309   3.168   3.459   5.212
75138SOL     OW27310   5.736   3.749   2.332
75138SOL    HW127311   5.679   3.819   2.302
75138SOL    HW227312   5.811   3.751   2.273
75139SOL     OW27313   6.934   3.253   6.745
75139SOL    HW127314   6.890   3.216   6.822
75139SOL    HW227315   6.879   3.226   6.671
75140SOL     OW27316   8.857   0.626   7.369
75140SOL    HW127317   8.859   0.699   7.307
75140SOL    HW227318   8.860   0.668   7.455
75141SOL     OW27319  14.172  13.833   6.890
75141SOL    HW127320  14.129  13.902   6.941
75141SOL    HW227321  14.125  13.753   6.913
75142SOL     OW27322   5.226  10.734  14.468
75142SOL    HW127323   5.280  10.698  14.398
75142SOL    HW227324   5.173  10.661  14.498
75143SOL     OW27325   1.981  11.830  13.932
75143SOL    HW127326   1.993  11.761  13.998
75143SOL    HW227327   2.019  11.794  13.852
75144SOL     OW27328   4.918   3.148   7.890
75144SOL    HW127329   4.864   3.203   7.833
75144SOL    HW227330   4.858   3.081   7.923
75145SOL     OW27331   8.419   4.781   6.931
75145SOL    HW127332   8.369   4.862   6.938
75145SOL    HW227333   8.484   4.786   7.001
75146SOL     OW27334  10.298   3.794   2.745
75146SOL    HW127335  10.387   3.829   2.748
75146SOL    HW227336  10.275   3.795   2.653
75147SOL     OW27337   2.261  13.400   0.008
75147SOL    HW127338   2.252  13.458   0.084
75147SOL    HW227339   2.172  13.391  14.847
75148SOL     OW27340  11.631   4.956   3.425
75148SOL    HW127341  11.634   4.972   3.519
75148SOL    HW227342  11.662   5.038   3.386
75149SOL     OW27343   7.612   2.385   4.346
75149SOL    HW127344   7.641   2.449   4.282
75149SOL    HW227345   7.599   2.305   4.296
75150SOL     OW27346   9.944   7.630  11.496
75150SOL    HW127347   9.947   7.726  11.501
75150SOL    HW227348   9.852   7.609  11.508
75151SOL     OW27349  12.948   2.120  12.123
75151SOL    HW127350  13.030   2.108  12.075
75151SOL    HW227351  12.906   2.033  12.119
75152SOL     OW27352   9.453  12.303   9.766
75152SOL    HW127353   9.442  12.256   9.684
75152SOL    HW227354   9.502  12.243   9.822
75153SOL     OW27355  13.931   9.951  13.750
75153SOL    HW127356  13.885   9.892  13.810
75153SOL    HW227357  13.895  10.038  13.770
75154SOL     OW27358   2.192   6.198  10.450
75154SOL    HW127359   2.248   6.126  10.481
75154SOL    HW227360   2.104   6.161  10.448
75155SOL     OW27361  11.293   5.628  13.513
75155SOL    HW127362  11.270   5.540  13.481
75155SOL    HW227363  11.381   5.619  13.548
75156SOL     OW27364   3.429   4.757   9.965
75156SOL    HW127365   3.509   4.754  10.018
75156SOL    HW227366   3.386   4.838   9.991
75157SOL     OW27367   4.099   6.365   6.255
75157SOL    HW127368   4.191   6.363   6.282
75157SOL    HW227369   4.062   6.283   6.289
75158SOL     OW27370   2.121   8.506   9.398
75158SOL    HW127371   2.123   8.548   9.484
75158SOL    HW227372   2.056   8.436   9.407
75159SOL     OW27373   5.865   0.809   4.836
75159SOL    HW127374   5.853   0.752   4.761
75159SOL    HW227375   5.926   0.762   4.893
75160SOL     OW27376  10.848   1.292   6.344
75160SOL    HW127377  10.829   1.316   6.434
75160SOL    HW227378  10.924   1.234   6.350
75161SOL     OW27379   7.903  12.695   9.801
75161SOL    HW127380   7.853  12.761   9.847
75161SOL    HW227381   7.966  12.662   9.865
75162SOL     OW27382   7.499   6.479   2.906
75162SOL    HW127383   7.548   6.554   2.941
75162SOL    HW227384   7.489   6.420   2.981
75163SOL     OW27385   2.903   2.844   1.066
75163SOL    HW127386   2.914   2.766   1.011
75163SOL    HW227387   2.988   2.888   1.063
75164SOL     OW27388   4.259  11.748   0.433
75164SOL    HW127389   4.197  11.784   0.498
75164SOL    HW227390   4.212  11.755   0.350
75165SOL     OW27391  13.679   4.293   6.777
75165SOL    HW127392  13.666   4.306   6.683
75165SOL    HW227393  13.751   4.231   6.783
75166SOL     OW27394   4.549  13.997  10.197
75166SOL    HW127395   4.478  13.948  10.156
75166SOL    HW227396   4.538  14.086  10.165
75167SOL     OW27397  11.349   7.110  11.275
75167SOL    HW127398  11.394   7.179  11.228
75167SOL    HW227399  11.305   7.059  11.206
75168SOL     OW27400   2.339   1.535   4.327
75168SOL    HW127401   2.288   1.470   4.377
75168SOL    HW227402   2.402   1.570   4.391
75169SOL     OW27403  10.134   1.478   5.916
75169SOL    HW127404  10.165   1.411   5.854
75169SOL    HW227405  10.110   1.428   5.994
75170SOL     OW27406  12.132   1.470   9.381
75170SOL    HW127407  12.142   1.565   9.391
75170SOL    HW227408  12.127   1.456   9.287
75171SOL     OW27409   4.825  12.809  13.915
75171SOL    HW127410   4.912  12.834  13.883
75171SOL    HW227411   4.781  12.772  13.839
75172SOL     OW27412   0.997   2.464  12.789
75172SOL    HW127413   1.079   2.514  12.783
75172SOL    HW227414   0.928   2.528  12.772
75173SOL     OW27415   6.961   2.868   9.948
75173SOL    HW127416   7.049   2.904   9.956
75173SOL    HW227417   6.971   2.775   9.971
75174SOL     OW27418  14.147   7.891   4.197
75174SOL    HW127419  14.198   7.860   4.272
75174SOL    HW227420  14.181   7.841   4.123
75175SOL     OW27421   5.458   8.311   5.487
75175SOL    HW127422   5.536   8.362   5.467
75175SOL    HW227423   5.429   8.276   5.402
75176SOL     OW27424   3.789  11.574   0.893
75176SOL    HW127425   3.738  11.632   0.950
75176SOL    HW227426   3.880  11.591   0.917
75177SOL     OW27427  10.671   4.535  12.203
75177SOL    HW127428  10.716   4.451  12.205
75177SOL    HW227429  10.689   4.574  12.288
75178SOL     OW27430   4.277   6.838   8.097
75178SOL    HW127431   4.220   6.766   8.069
75178SOL    HW227432   4.346   6.841   8.031
75179SOL     OW27433  12.712  14.743  14.674
75179SOL    HW127434  12.806  14.749  14.689
75179SOL    HW227435  12.681  14.834  14.677
75180SOL     OW27436   2.124  12.014   8.752
75180SOL    HW127437   2.220  12.010   8.749
75180SOL    HW227438   2.096  11.955   8.682
75181SOL     OW27439   0.169   9.317   9.794
75181SOL    HW127440   0.247   9.272   9.762
75181SOL    HW227441   0.138   9.368   9.719
75182SOL     OW27442   2.933  13.473   3.100
75182SOL    HW127443   2.865  13.433   3.154
75182SOL    HW227444   3.000  13.406   3.092
75183SOL     OW27445   3.220   9.035  12.832
75183SOL    HW127446   3.262   8.951  12.852
75183SOL    HW227447   3.293   9.094  12.815
75184SOL     OW27448  11.684   6.592   9.773
75184SOL    HW127449  11.687   6.540   9.853
75184SOL    HW227450  11.757   6.560   9.720
75185SOL     OW27451   6.026   2.023   6.433
75185SOL    HW127452   6.018   2.062   6.520
75185SOL    HW227453   6.087   2.081   6.387
75186SOL     OW27454  13.346   7.334  11.764
75186SOL    HW127455  13.277   7.371  11.819
75186SOL    HW227456  13.333   7.375  11.679
75187SOL     OW27457   6.619   9.717   7.636
75187SOL    HW127458   6.543   9.749   7.588
75187SOL    HW227459   6.687   9.707   7.568
75188SOL     OW27460  10.034   0.873   6.385
75188SOL    HW127461  10.012   0.936   6.316
75188SOL    HW227462  10.096   0.920   6.441
75189SOL     OW27463   2.215  10.196  13.157
75189SOL    HW127464   2.306  10.218  13.139
75189SOL    HW227465   2.193  10.249  13.234
75190SOL     OW27466   6.318  13.322   7.631
75190SOL    HW127467   6.394  13.265   7.619
75190SOL    HW227468   6.286  13.338   7.542
75191SOL     OW27469   7.141   4.716  13.182
75191SOL    HW127470   7.060   4.667  13.172
75191SOL    HW227471   7.210   4.652  13.164
75192SOL     OW27472  11.573   4.837  14.830
75192SOL    HW127473  11.645   4.799   0.008
75192SOL    HW227474  11.591   4.931  14.829
75193SOL     OW27475   2.761   1.614   5.709
75193SOL    HW127476   2.809   1.664   5.643
75193SOL    HW227477   2.678   1.593   5.668
75194SOL     OW27478   6.499   8.954   1.044
75194SOL    HW127479   6.460   8.947   1.131
75194SOL    HW227480   6.442   8.901   0.988
75195SOL     OW27481   9.553   2.434   1.904
75195SOL    HW127482   9.636   2.472   1.933
75195SOL    HW227483   9.501   2.510   1.876
75196SOL     OW27484   7.357   6.190   2.000
75196SOL    HW127485   7.331   6.166   2.089
75196SOL    HW227486   7.321   6.278   1.987
75197SOL     OW27487   5.798  14.071  12.731
75197SOL    HW127488   5.816  14.042  12.820
75197SOL    HW227489   5.850  14.151  12.721
75198SOL     OW27490  11.901  12.903   4.605
75198SOL    HW127491  11.834  12.891   4.672
75198SOL    HW227492  11.861  12.869   4.525
75199SOL     OW27493  14.200  10.322   1.920
75199SOL    HW127494  14.257  10.388   1.881
75199SOL    HW227495  14.156  10.367   1.992
75200SOL     OW27496   2.401   9.630   0.561
75200SOL    HW127497   2.318   9.643   0.607
75200SOL    HW227498   2.441   9.717   0.559
75201SOL     OW27499   0.368  12.136   9.687
75201SOL    HW127500   0.454  12.143   9.729
75201SOL    HW227501   0.313  12.092   9.751
75202SOL     OW27502   5.588   4.379  13.293
75202SOL    HW127503   5.550   4.466  13.281
75202SOL    HW227504   5.610   4.374  13.386
75203SOL     OW27505   7.335   8.230   4.088
75203SOL    HW127506   7.262   8.248   4.029
75203SOL    HW227507   7.336   8.304   4.148
75204SOL     OW27508   8.088  14.081  13.009
75204SOL    HW127509   8.002  14.057  13.045
75204SOL    HW227510   8.148  14.067  13.082
75205SOL     OW27511   4.482  13.539   8.657
75205SOL    HW127512   4.537  13.565   8.731
75205SOL    HW227513   4.491  13.610   8.594
75206SOL     OW27514   6.658  13.986   8.789
75206SOL    HW127515   6.646  14.066   8.840
75206SOL    HW227516   6.752  13.970   8.790
75207SOL     OW27517   9.936   6.110   3.806
75207SOL    HW127518   9.989   6.129   3.728
75207SOL    HW227519   9.846   6.114   3.774
75208SOL     OW27520   3.856   3.524  14.676
75208SOL    HW127521   3.883   3.537  14.585
75208SOL    HW227522   3.826   3.433  14.679
75209SOL     OW27523   3.218   9.150   1.233
75209SOL    HW127524   3.229   9.244   1.217
75209SOL    HW227525   3.152   9.123   1.169
75210SOL     OW27526   8.377  13.887  11.942
75210SOL    HW127527   8.433  13.828  11.892
75210SOL    HW227528   8.362  13.841  12.025
75211SOL     OW27529   1.694   8.310   3.001
75211SOL    HW127530   1.640   8.276   3.072
75211SOL    HW227531   1.766   8.247   2.993
75212SOL     OW27532  14.139   4.782  10.147
75212SOL    HW127533  14.118   4.704  10.199
75212SOL    HW227534  14.153   4.851  10.211
75213SOL     OW27535   5.386   0.178   0.420
75213SOL    HW127536   5.346   0.170   0.334
75213SOL    HW227537   5.424   0.091   0.438
75214SOL     OW27538   7.240   9.365   2.124
75214SOL    HW127539   7.298   9.441   2.125
75214SOL    HW227540   7.257   9.324   2.038
75215SOL     OW27541  11.463  11.685  10.613
75215SOL    HW127542  11.530  11.740  10.572
75215SOL    HW227543  11.471  11.702  10.706
75216SOL     OW27544   1.075  12.542  10.362
75216SOL    HW127545   1.045  12.578  10.445
75216SOL    HW227546   1.165  12.572  10.354
75217SOL     OW27547   5.016   0.232   2.899
75217SOL    HW127548   4.968   0.182   2.966
75217SOL    HW227549   5.081   0.281   2.949
75218SOL     OW27550   8.839   7.121  10.997
75218SOL    HW127551   8.870   7.036  10.968
75218SOL    HW227552   8.863   7.126  11.089
75219SOL     OW27553  11.797   5.893   6.254
75219SOL    HW127554  11.806   5.887   6.349
75219SOL    HW227555  11.876   5.851   6.220
75220SOL     OW27556   9.414   7.856   7.232
75220SOL    HW127557   9.334   7.865   7.181
75220SOL    HW227558   9.383   7.837   7.321
75221SOL     OW27559   1.965   3.865   9.618
75221SOL    HW127560   1.892   3.874   9.556
75221SOL    HW227561   1.964   3.773   9.643
75222SOL     OW27562  12.308   9.620   6.990
75222SOL    HW127563  12.296   9.685   7.059
75222SOL    HW227564  12.393   9.643   6.951
75223SOL     OW27565   8.562   8.283  12.650
75223SOL    HW127566   8.651   8.271  12.619
75223SOL    HW227567   8.570   8.290  12.745
75224SOL     OW27568  14.468   0.822  12.266
75224SOL    HW127569  14.429   0.896  12.220
75224SOL    HW227570  14.540   0.860  12.316
75225SOL     OW27571  12.049  13.473   0.015
75225SOL    HW127572  12.106  13.526   0.071
75225SOL    HW227573  12.107  13.404  14.853
75226SOL     OW27574   0.141   4.317  10.238
75226SOL    HW127575   0.067   4.263  10.267
75226SOL    HW227576   0.195   4.257  10.186
75227SOL     OW27577   7.757  11.731   5.304
75227SOL    HW127578   7.679  11.691   5.341
75227SOL    HW227579   7.728  11.763   5.218
75228SOL     OW27580   1.395   6.228   5.997
75228SOL    HW127581   1.400   6.309   6.047
75228SOL    HW227582   1.449   6.166   6.046
75229SOL     OW27583   1.365   9.179  13.142
75229SOL    HW127584   1.273   9.200  13.156
75229SOL    HW227585   1.375   9.089  13.174
75230SOL     OW27586  12.877   5.145   9.847
75230SOL    HW127587  12.874   5.049   9.841
75230SOL    HW227588  12.799   5.168   9.897
75231SOL     OW27589  13.545   7.441  14.438
75231SOL    HW127590  13.575   7.361  14.480
75231SOL    HW227591  13.528   7.416  14.347
75232SOL     OW27592   3.474   2.130   4.603
75232SOL    HW127593   3.408   2.061   4.606
75232SOL    HW227594   3.454   2.179   4.523
75233SOL     OW27595  13.499   7.921   4.234
75233SOL    HW127596  13.418   7.875   4.216
75233SOL    HW227597  13.513   7.977   4.158
75234SOL     OW27598  14.045  11.487   5.806
75234SOL    HW127599  14.006  11.457   5.724
75234SOL    HW227600  14.139  11.489   5.789
75235SOL     OW27601   3.157   7.820  10.963
75235SOL    HW127602   3.123   7.882  11.027
75235SOL    HW227603   3.104   7.835  10.884
75236SOL     OW27604  10.066   9.742   2.084
75236SOL    HW127605  10.102   9.665   2.128
75236SOL    HW227606   9.973   9.741   2.105
75237SOL     OW27607   8.615   2.966  13.323
75237SOL    HW127608   8.519   2.957  13.325
75237SOL    HW227609   8.646   2.894  13.378
75238SOL     OW27610  13.543  11.289  11.518
75238SOL    HW127611  13.571  11.286  11.610
75238SOL    HW227612  13.522  11.198  11.496
75239SOL     OW27613   5.039   6.016   4.722
75239SOL    HW127614   5.058   6.107   4.745
75239SOL    HW227615   5.001   5.979   4.801
75240SOL     OW27616  10.076   9.976  10.136
75240SOL    HW127617  10.073   9.951  10.228
75240SOL    HW227618  10.061  10.071  10.136
75241SOL     OW27619  12.959  13.707   8.383
75241SOL    HW127620  12.868  13.702   8.357
75241SOL    HW227621  13.008  13.706   8.301
75242SOL     OW27622   0.676   5.401  13.322
75242SOL    HW127623   0.636   5.327  13.366
75242SOL    HW227624   0.622   5.476  13.346
75243SOL     OW27625   6.573  10.399   7.016
75243SOL    HW127626   6.618  10.369   7.095
75243SOL    HW227627   6.633  10.379   6.944
75244SOL     OW27628   5.921   8.407  10.788
75244SOL    HW127629   5.872   8.327  10.772
75244SOL    HW227630   5.873   8.475  10.741
75245SOL     OW27631   1.813   3.177   1.151
75245SOL    HW127632   1.772   3.189   1.237
75245SOL    HW227633   1.899   3.140   1.171
75246SOL     OW27634   8.467   7.859   3.988
75246SOL    HW127635   8.456   7.773   3.946
75246SOL    HW227636   8.542   7.898   3.943
75247SOL     OW27637   5.141   2.857  12.063
75247SOL    HW127638   5.169   2.948  12.051
75247SOL    HW227639   5.108   2.830  11.977
75248SOL     OW27640   7.893   9.453  14.841
75248SOL    HW127641   7.817   9.464   0.026
75248SOL    HW227642   7.968   9.446   0.029
75249SOL     OW27643   0.325   3.028  10.983
75249SOL    HW127644   0.393   3.069  11.036
75249SOL    HW227645   0.269   2.984  11.047
75250SOL     OW27646  14.182   8.921  13.324
75250SOL    HW127647  14.173   8.952  13.234
75250SOL    HW227648  14.276   8.904  13.334
75251SOL     OW27649   1.481   8.282  12.201
75251SOL    HW127650   1.502   8.370  12.169
75251SOL    HW227651   1.498   8.286  12.295
75252SOL     OW27652   7.576  14.340   9.071
75252SOL    HW127653   7.640  14.412   9.068
75252SOL    HW227654   7.544  14.339   9.161
75253SOL     OW27655  14.120   1.409   9.072
75253SOL    HW127656  14.174   1.356   9.131
75253SOL    HW227657  14.043   1.355   9.054
75254SOL     OW27658   8.554   7.448  12.334
75254SOL    HW127659   8.590   7.532  12.363
75254SOL    HW227660   8.511   7.468  12.251
75255SOL     OW27661   2.652  12.782   6.126
75255SOL    HW127662   2.689  12.805   6.211
75255SOL    HW227663   2.720  12.805   6.062
75256SOL     OW27664   1.472   2.949   6.038
75256SOL    HW127665   1.505   2.964   5.950
75256SOL    HW227666   1.467   3.036   6.077
75257SOL     OW27667   1.974  10.627   5.595
75257SOL    HW127668   2.060  10.641   5.555
75257SOL    HW227669   1.968  10.695   5.663
75258SOL     OW27670   6.290   0.654   2.874
75258SOL    HW127671   6.370   0.661   2.926
75258SOL    HW227672   6.252   0.741   2.876
75259SOL     OW27673  14.016   5.731   5.388
75259SOL    HW127674  14.087   5.693   5.336
75259SOL    HW227675  14.035   5.703   5.478
75260SOL     OW27676   3.883  10.084   5.970
75260SOL    HW127677   3.972  10.100   6.001
75260SOL    HW227678   3.851  10.012   6.025
75261SOL     OW27679   8.497   5.529  10.585
75261SOL    HW127680   8.426   5.465  10.572
75261SOL    HW227681   8.490   5.553  10.677
75262SOL     OW27682   1.294   9.613   9.409
75262SOL    HW127683   1.304   9.530   9.363
75262SOL    HW227684   1.381   9.631   9.446
75263SOL     OW27685   1.557  12.217   3.870
75263SOL    HW127686   1.638  12.267   3.878
75263SOL    HW227687   1.488  12.280   3.885
75264SOL     OW27688   0.638   5.672  11.882
75264SOL    HW127689   0.548   5.639  11.874
75264SOL    HW227690   0.693   5.593  11.873
75265SOL     OW27691   4.847   3.957  12.888
75265SOL    HW127692   4.820   4.036  12.842
75265SOL    HW227693   4.918   3.986  12.946
75266SOL     OW27694  11.903   4.126  14.085
75266SOL    HW127695  11.906   4.126  14.181
75266SOL    HW227696  11.853   4.048  14.062
75267SOL     OW27697   7.640  10.743   9.094
75267SOL    HW127698   7.555  10.707   9.068
75267SOL    HW227699   7.650  10.822   9.041
75268SOL     OW27700   3.879  10.251  14.741
75268SOL    HW127701   3.888  10.166  14.696
75268SOL    HW227702   3.892  10.316  14.672
75269SOL     OW27703   4.862  10.723   7.641
75269SOL    HW127704   4.885  10.786   7.709
75269SOL    HW227705   4.827  10.777   7.569
75270SOL     OW27706   8.628   7.549   0.469
75270SOL    HW127707   8.564   7.581   0.532
75270SOL    HW227708   8.659   7.466   0.507
75271SOL     OW27709   0.416  14.276   3.620
75271SOL    HW127710   0.343  14.214   3.615
75271SOL    HW227711   0.474  14.240   3.686
75272SOL     OW27712   6.976   8.272   4.726
75272SOL    HW127713   6.934   8.202   4.676
75272SOL    HW227714   7.043   8.228   4.778
75273SOL     OW27715   5.780   9.871  11.547
75273SOL    HW127716   5.831   9.801  11.507
75273SOL    HW227717   5.840   9.913  11.608
75274SOL     OW27718   3.166  12.081   7.382
75274SOL    HW127719   3.158  12.171   7.351
75274SOL    HW227720   3.260  12.067   7.392
75275SOL     OW27721  10.934  13.190   9.274
75275SOL    HW127722  10.897  13.194   9.362
75275SOL    HW227723  11.019  13.147   9.286
75276SOL     OW27724   7.447  13.792  13.017
75276SOL    HW127725   7.490  13.838  12.945
75276SOL    HW227726   7.353  13.798  12.997
75277SOL     OW27727  11.527  12.585  10.574
75277SOL    HW127728  11.574  12.596  10.656
75277SOL    HW227729  11.564  12.653  10.516
75278SOL     OW27730   8.804   3.468   1.356
75278SOL    HW127731   8.811   3.515   1.273
75278SOL    HW227732   8.739   3.517   1.406
75279SOL     OW27733   9.078  13.182   2.098
75279SOL    HW127734   8.996  13.161   2.054
75279SOL    HW227735   9.103  13.267   2.061
75280SOL     OW27736   5.179  12.173   2.482
75280SOL    HW127737   5.114  12.199   2.547
75280SOL    HW227738   5.144  12.206   2.399
75281SOL     OW27739   8.029  14.000   4.040
75281SOL    HW127740   8.014  13.920   3.990
75281SOL    HW227741   8.049  14.066   3.974
75282SOL     OW27742   3.345   4.457  10.437
75282SOL    HW127743   3.326   4.548  10.458
75282SOL    HW227744   3.376   4.460  10.346
75283SOL     OW27745  10.064   1.206   0.691
75283SOL    HW127746  10.110   1.153   0.755
75283SOL    HW227747   9.997   1.252   0.742
75284SOL     OW27748   4.714   9.741   3.307
75284SOL    HW127749   4.782   9.682   3.276
75284SOL    HW227750   4.742   9.767   3.394
75285SOL     OW27751   2.508  12.996   2.404
75285SOL    HW127752   2.566  13.020   2.331
75285SOL    HW227753   2.565  12.996   2.481
75286SOL     OW27754  10.369   3.276  14.639
75286SOL    HW127755  10.345   3.362  14.605
75286SOL    HW227756  10.463   3.269  14.624
75287SOL     OW27757   6.072   8.888   1.995
75287SOL    HW127758   6.133   8.839   2.050
75287SOL    HW227759   6.049   8.829   1.924
75288SOL     OW27760  14.589   1.534   4.664
75288SOL    HW127761  14.571   1.563   4.753
75288SOL    HW227762  14.583   1.439   4.668
75289SOL     OW27763  14.861   3.150   8.477
75289SOL    HW127764  14.782   3.189   8.515
75289SOL    HW227765  14.855   3.058   8.501
75290SOL     OW27766   4.960   3.971   3.928
75290SOL    HW127767   4.986   4.020   4.005
75290SOL    HW227768   4.951   4.036   3.859
75291SOL     OW27769   2.613   7.082  12.022
75291SOL    HW127770   2.619   7.015  12.090
75291SOL    HW227771   2.704   7.101  11.999
75292SOL     OW27772   9.094  12.959   5.737
75292SOL    HW127773   9.012  12.933   5.779
75292SOL    HW227774   9.129  13.029   5.792
75293SOL     OW27775   3.309  11.051  12.404
75293SOL    HW127776   3.390  11.004  12.421
75293SOL    HW227777   3.335  11.143  12.399
75294SOL     OW27778  14.364   3.343  11.334
75294SOL    HW127779  14.271   3.322  11.329
75294SOL    HW227780  14.407   3.282  11.274
75295SOL     OW27781   9.878   5.419  14.490
75295SOL    HW127782   9.946   5.434  14.424
75295SOL    HW227783   9.839   5.505  14.504
75296SOL     OW27784   2.020  13.121   0.947
75296SOL    HW127785   2.053  13.071   1.022
75296SOL    HW227786   2.094  13.124   0.886
75297SOL     OW27787   5.132  12.313  10.605
75297SOL    HW127788   5.151  12.404  10.584
75297SOL    HW227789   5.218  12.270  10.607
75298SOL     OW27790   7.266  10.306  10.233
75298SOL    HW127791   7.315  10.301  10.151
75298SOL    HW227792   7.195  10.368  10.215
75299SOL     OW27793   1.995   2.798   7.734
75299SOL    HW127794   2.013   2.713   7.694
75299SOL    HW227795   2.027   2.790   7.824
75300SOL     OW27796  10.257  13.810   9.294
75300SOL    HW127797  10.336  13.857   9.319
75300SOL    HW227798  10.202  13.875   9.250
75301SOL     OW27799  12.707  11.234   8.652
75301SOL    HW127800  12.709  11.320   8.694
75301SOL    HW227801  12.675  11.175   8.720
75302SOL     OW27802   3.654  10.177   3.338
75302SOL    HW127803   3.685  10.260   3.302
75302SOL    HW227804   3.689  10.174   3.427
75303SOL     OW27805   6.151   4.106   8.463
75303SOL    HW127806   6.230   4.109   8.516
75303SOL    HW227807   6.100   4.033   8.499
75304SOL     OW27808   1.951   9.597   8.899
75304SOL    HW127809   1.873   9.599   8.844
75304SOL    HW227810   2.003   9.524   8.865
75305SOL     OW27811  10.272   0.356   0.355
75305SOL    HW127812  10.309   0.272   0.383
75305SOL    HW227813  10.285   0.356   0.260
75306SOL     OW27814   7.620   1.444   6.937
75306SOL    HW127815   7.711   1.433   6.909
75306SOL    HW227816   7.570   1.448   6.855
75307SOL     OW27817   0.617  12.634  14.000
75307SOL    HW127818   0.599  12.603  13.911
75307SOL    HW227819   0.535  12.617  14.048
75308SOL     OW27820   5.395   7.530   5.978
75308SOL    HW127821   5.471   7.584   6.000
75308SOL    HW227822   5.426   7.470   5.911
75309SOL     OW27823  11.527   2.018   9.225
75309SOL    HW127824  11.605   2.064   9.256
75309SOL    HW227825  11.456   2.052   9.280
75310SOL     OW27826   9.558  10.123   3.208
75310SOL    HW127827   9.517  10.180   3.272
75310SOL    HW227828   9.582  10.180   3.135
75311SOL     OW27829   1.287   5.071  11.814
75311SOL    HW127830   1.298   4.992  11.760
75311SOL    HW227831   1.270   5.037  11.902
75312SOL     OW27832   5.013   5.646  13.557
75312SOL    HW127833   4.947   5.636  13.626
75312SOL    HW227834   5.016   5.560  13.515
75313SOL     OW27835   6.559  10.964   5.612
75313SOL    HW127836   6.604  10.897   5.664
75313SOL    HW227837   6.588  10.948   5.522
75314SOL     OW27838  13.019   8.642   0.376
75314SOL    HW127839  13.106   8.638   0.416
75314SOL    HW227840  13.017   8.568   0.315
75315SOL     OW27841   5.116   7.543   1.846
75315SOL    HW127842   5.074   7.577   1.767
75315SOL    HW227843   5.165   7.467   1.817
75316SOL     OW27844  13.868   2.479   5.322
75316SOL    HW127845  13.902   2.416   5.258
75316SOL    HW227846  13.886   2.439   5.407
75317SOL     OW27847   8.909   1.387   9.232
75317SOL    HW127848   8.825   1.403   9.275
75317SOL    HW227849   8.924   1.466   9.179
75318SOL     OW27850   5.716   4.542  10.532
75318SOL    HW127851   5.683   4.481  10.465
75318SOL    HW227852   5.739   4.621  10.483
75319SOL     OW27853   1.889   1.594   2.056
75319SOL    HW127854   1.897   1.647   1.977
75319SOL    HW227855   1.832   1.521   2.030
75320SOL     OW27856   0.401   0.914   7.414
75320SOL    HW127857   0.489   0.877   7.421
75320SOL    HW227858   0.350   0.847   7.369
75321SOL     OW27859  11.175   2.063   9.144
75321SOL    HW127860  11.204   2.084   9.055
75321SOL    HW227861  11.207   2.135   9.198
75322SOL     OW27862  12.243   8.341   5.488
75322SOL    HW127863  12.321   8.288   5.506
75322SOL    HW227864  12.272   8.431   5.500
75323SOL     OW27865   7.057   2.297   4.500
75323SOL    HW127866   7.053   2.216   4.550
75323SOL    HW227867   6.967   2.329   4.497
75324SOL     OW27868  11.982   0.583   5.180
75324SOL    HW127869  11.948   0.613   5.096
75324SOL    HW227870  11.909   0.535   5.220
75325SOL     OW27871   6.545  10.944   2.673
75325SOL    HW127872   6.629  10.914   2.639
75325SOL    HW227873   6.501  10.864   2.703
75326SOL     OW27874  13.126   2.795   2.518
75326SOL    HW127875  13.051   2.736   2.507
75326SOL    HW227876  13.198   2.749   2.476
75327SOL     OW27877   6.887  13.581   7.920
75327SOL    HW127878   6.934  13.498   7.927
75327SOL    HW227879   6.953  13.644   7.894
75328SOL     OW27880   6.837  10.809  10.901
75328SOL    HW127881   6.829  10.729  10.953
75328SOL    HW227882   6.925  10.803  10.862
75329SOL     OW27883   0.031  12.502   5.689
75329SOL    HW127884  14.869  12.588   5.665
75329SOL    HW227885  14.832  12.463   5.741
75330SOL     OW27886  13.477   2.618  13.092
75330SOL    HW127887  13.444   2.577  13.013
75330SOL    HW227888  13.399   2.635  13.145
75331SOL     OW27889  14.236   2.433   1.422
75331SOL    HW127890  14.207   2.342   1.425
75331SOL    HW227891  14.306   2.438   1.488
75332SOL     OW27892  14.565   6.536   0.521
75332SOL    HW127893  14.618   6.468   0.479
75332SOL    HW227894  14.543   6.500   0.607
75333SOL     OW27895   1.800   9.219   0.322
75333SOL    HW127896   1.728   9.274   0.290
75333SOL    HW227897   1.821   9.162   0.248
75334SOL     OW27898   9.835  12.393   0.398
75334SOL    HW127899   9.753  12.408   0.444
75334SOL    HW227900   9.832  12.301   0.373
75335SOL     OW27901   0.317   6.498  14.623
75335SOL    HW127902   0.358   6.584  14.614
75335SOL    HW227903   0.303   6.488  14.717
75336SOL     OW27904   1.387  11.064  14.209
75336SOL    HW127905   1.327  11.006  14.161
75336SOL    HW227906   1.383  11.033  14.300
75337SOL     OW27907   0.646   3.266   0.070
75337SOL    HW127908   0.615   3.210  14.871
75337SOL    HW227909   0.567   3.300   0.111
75338SOL     OW27910   6.381   6.839   8.845
75338SOL    HW127911   6.341   6.888   8.773
75338SOL    HW227912   6.473   6.866   8.844
75339SOL     OW27913   8.812   0.657   7.649
75339SOL    HW127914   8.885   0.639   7.708
75339SOL    HW227915   8.783   0.745   7.673
75340SOL     OW27916   0.445   6.081  14.557
75340SOL    HW127917   0.487   6.001  14.587
75340SOL    HW227918   0.460   6.144  14.628
75341SOL     OW27919   5.769   3.009   3.943
75341SOL    HW127920   5.807   3.095   3.961
75341SOL    HW227921   5.715   2.990   4.020
75342SOL     OW27922  10.518  13.633  10.479
75342SOL    HW127923  10.499  13.717  10.437
75342SOL    HW227924  10.560  13.581  10.410
75343SOL     OW27925   0.128  10.748  14.756
75343SOL    HW127926   0.176  10.721  14.678
75343SOL    HW227927   0.131  10.844  14.753
75344SOL     OW27928   9.948   9.667  12.325
75344SOL    HW127929   9.858   9.660  12.357
75344SOL    HW227930  10.000   9.615  12.387
75345SOL     OW27931  10.730  14.839   9.987
75345SOL    HW127932  10.801  14.777   9.969
75345SOL    HW227933  10.669  14.790  10.042
75346SOL     OW27934  10.420  14.410   5.833
75346SOL    HW127935  10.338  14.455   5.853
75346SOL    HW227936  10.418  14.332   5.889
75347SOL     OW27937   5.275   7.152   7.622
75347SOL    HW127938   5.330   7.225   7.650
75347SOL    HW227939   5.336   7.085   7.593
75348SOL     OW27940  12.321   9.718  10.045
75348SOL    HW127941  12.405   9.675  10.058
75348SOL    HW227942  12.343   9.806  10.014
75349SOL     OW27943   6.494   3.264   2.952
75349SOL    HW127944   6.494   3.221   3.038
75349SOL    HW227945   6.585   3.293   2.941
75350SOL     OW27946   1.574   8.738   8.121
75350SOL    HW127947   1.503   8.796   8.095
75350SOL    HW227948   1.636   8.794   8.167
75351SOL     OW27949  12.390   9.632   6.465
75351SOL    HW127950  12.310   9.675   6.496
75351SOL    HW227951  12.375   9.539   6.482
75352SOL     OW27952  14.410   8.377   4.854
75352SOL    HW127953  14.496   8.352   4.886
75352SOL    HW227954  14.426   8.449   4.794
75353SOL     OW27955   4.904  14.530   4.686
75353SOL    HW127956   4.873  14.564   4.770
75353SOL    HW227957   4.984  14.579   4.668
75354SOL     OW27958  14.497  10.617   2.072
75354SOL    HW127959  14.484  10.536   2.122
75354SOL    HW227960  14.426  10.674   2.101
75355SOL     OW27961  10.817   8.948  10.132
75355SOL    HW127962  10.906   8.980  10.142
75355SOL    HW227963  10.824   8.873  10.074
75356SOL     OW27964   5.506   8.322  14.332
75356SOL    HW127965   5.581   8.355  14.381
75356SOL    HW227966   5.544   8.284  14.253
75357SOL     OW27967  10.335  12.681   5.719
75357SOL    HW127968  10.399  12.679   5.790
75357SOL    HW227969  10.261  12.731   5.753
75358SOL     OW27970   4.872  10.833   4.458
75358SOL    HW127971   4.959  10.839   4.498
75358SOL    HW227972   4.890  10.830   4.364
75359SOL     OW27973   4.265  11.283  10.144
75359SOL    HW127974   4.349  11.312  10.108
75359SOL    HW227975   4.264  11.189  10.129
75360SOL     OW27976  12.020  10.493   5.440
75360SOL    HW127977  11.925  10.494   5.448
75360SOL    HW227978  12.051  10.534   5.521
75361SOL     OW27979   2.613   4.577  14.509
75361SOL    HW127980   2.636   4.662  14.548
75361SOL    HW227981   2.654   4.579  14.423
75362SOL     OW27982   7.428  10.081   8.780
75362SOL    HW127983   7.421  10.053   8.689
75362SOL    HW227984   7.361  10.148   8.790
75363SOL     OW27985   7.436   6.556   8.982
75363SOL    HW127986   7.467   6.615   8.913
75363SOL    HW227987   7.343   6.576   8.990
75364SOL     OW27988   2.437   1.267   7.842
75364SOL    HW127989   2.438   1.222   7.926
75364SOL    HW227990   2.387   1.347   7.858
75365SOL     OW27991  14.178   4.664   0.709
75365SOL    HW127992  14.178   4.629   0.620
75365SOL    HW227993  14.254   4.722   0.712
75366SOL     OW27994   4.247   3.732   6.793
75366SOL    HW127995   4.258   3.820   6.757
75366SOL    HW227996   4.189   3.744   6.868
75367SOL     OW27997   5.978   3.524   8.936
75367SOL    HW127998   5.949   3.596   8.991
75367SOL    HW227999   6.065   3.501   8.969
75368SOL     OW28000  14.075  14.753   4.412
75368SOL    HW128001  14.136  14.691   4.372
75368SOL    HW228002  14.000  14.699   4.438
75369SOL     OW28003  12.077   8.997   8.771
75369SOL    HW128004  12.055   9.013   8.863
75369SOL    HW228005  12.146   8.931   8.773
75370SOL     OW28006   3.046   3.008   4.181
75370SOL    HW128007   3.087   3.072   4.124
75370SOL    HW228008   3.105   2.932   4.179
75371SOL     OW28009   2.880   5.888  12.952
75371SOL    HW128010   2.902   5.859  13.041
75371SOL    HW228011   2.957   5.935  12.922
75372SOL     OW28012   9.120  11.283  11.593
75372SOL    HW128013   9.056  11.353  11.606
75372SOL    HW228014   9.203  11.319  11.624
75373SOL     OW28015  11.404   2.239   5.716
75373SOL    HW128016  11.422   2.266   5.626
75373SOL    HW228017  11.482   2.265   5.765
75374SOL     OW28018   7.277  14.446  10.136
75374SOL    HW128019   7.201  14.480  10.183
75374SOL    HW228020   7.248  14.437  10.046
75375SOL     OW28021   6.126   6.649   7.407
75375SOL    HW128022   6.114   6.695   7.490
75375SOL    HW228023   6.084   6.705   7.342
75376SOL     OW28024   9.938   3.992   1.181
75376SOL    HW128025  10.000   3.966   1.113
75376SOL    HW228026   9.928   4.087   1.169
75377SOL     OW28027   1.757   6.957   4.654
75377SOL    HW128028   1.682   6.995   4.610
75377SOL    HW228029   1.752   6.863   4.634
75378SOL     OW28030   8.059  13.531  11.263
75378SOL    HW128031   8.037  13.611  11.312
75378SOL    HW228032   7.978  13.480  11.264
75379SOL     OW28033   9.379  12.270   3.112
75379SOL    HW128034   9.459  12.255   3.162
75379SOL    HW228035   9.410  12.290   3.023
75380SOL     OW28036   7.945   2.038   1.975
75380SOL    HW128037   7.983   2.003   1.895
75380SOL    HW228038   7.924   1.961   2.028
75381SOL     OW28039  12.741   0.302  13.571
75381SOL    HW128040  12.760   0.228  13.627
75381SOL    HW228041  12.809   0.366  13.592
75382SOL     OW28042   5.467  10.884  11.804
75382SOL    HW128043   5.393  10.867  11.861
75382SOL    HW228044   5.487  10.800  11.764
75383SOL     OW28045   4.871   8.369   2.338
75383SOL    HW128046   4.791   8.340   2.382
75383SOL    HW228047   4.897   8.294   2.283
75384SOL     OW28048   2.735   9.251   8.693
75384SOL    HW128049   2.672   9.181   8.707
75384SOL    HW228050   2.693   9.329   8.732
75385SOL     OW28051  12.456  13.164  12.711
75385SOL    HW128052  12.361  13.161  12.725
75385SOL    HW228053  12.484  13.245  12.755
75386SOL     OW28054   7.642   5.573   5.392
75386SOL    HW128055   7.615   5.597   5.303
75386SOL    HW228056   7.699   5.646   5.419
75387SOL     OW28057  12.353  10.837   9.958
75387SOL    HW128058  12.348  10.754  10.005
75387SOL    HW228059  12.271  10.881   9.977
75388SOL     OW28060   6.458   2.281   5.931
75388SOL    HW128061   6.512   2.206   5.903
75388SOL    HW228062   6.491   2.302   6.018
75389SOL     OW28063   4.766   2.482   0.787
75389SOL    HW128064   4.735   2.573   0.781
75389SOL    HW228065   4.767   2.463   0.880
75390SOL     OW28066  10.248  13.057   3.746
75390SOL    HW128067  10.292  13.130   3.703
75390SOL    HW228068  10.165  13.048   3.699
75391SOL     OW28069  14.686   6.516   7.400
75391SOL    HW128070  14.762   6.485   7.351
75391SOL    HW228071  14.680   6.610   7.380
75392SOL     OW28072   3.059   3.304   0.678
75392SOL    HW128073   3.141   3.353   0.687
75392SOL    HW228074   3.010   3.326   0.758
75393SOL     OW28075   2.973   2.655   9.817
75393SOL    HW128076   2.909   2.701   9.872
75393SOL    HW228077   2.929   2.574   9.793
75394SOL     OW28078  10.964  11.341   5.539
75394SOL    HW128079  10.949  11.316   5.630
75394SOL    HW228080  10.898  11.291   5.490
75395SOL     OW28081  13.629   2.981   5.230
75395SOL    HW128082  13.606   3.073   5.217
75395SOL    HW228083  13.592   2.959   5.315
75396SOL     OW28084   9.562   8.681   5.367
75396SOL    HW128085   9.539   8.591   5.346
75396SOL    HW228086   9.479   8.723   5.391
75397SOL     OW28087   0.035   2.007   0.130
75397SOL    HW128088   0.072   2.067   0.195
75397SOL    HW228089   0.102   1.939   0.119
75398SOL     OW28090   3.688   7.158   9.179
75398SOL    HW128091   3.652   7.120   9.099
75398SOL    HW228092   3.673   7.252   9.169
75399SOL     OW28093   7.233  10.060   8.294
75399SOL    HW128094   7.215   9.968   8.310
75399SOL    HW228095   7.275  10.062   8.208
75400SOL     OW28096   7.699   1.421   2.618
75400SOL    HW128097   7.741   1.412   2.704
75400SOL    HW228098   7.619   1.472   2.635
75401SOL     OW28099   7.744  10.008   9.098
75401SOL    HW128100   7.742   9.988   9.192
75401SOL    HW228101   7.671   9.957   9.062
75402SOL     OW28102  10.561  13.146   5.017
75402SOL    HW128103  10.501  13.167   4.946
75402SOL    HW228104  10.533  13.060   5.048
75403SOL     OW28105   3.508  12.094   9.001
75403SOL    HW128106   3.466  12.022   8.955
75403SOL    HW228107   3.457  12.103   9.082
75404SOL     OW28108  11.977   8.994  14.080
75404SOL    HW128109  11.995   8.954  13.995
75404SOL    HW228110  12.055   9.047  14.098
75405SOL     OW28111   6.718   6.896   9.789
75405SOL    HW128112   6.794   6.902   9.846
75405SOL    HW228113   6.699   6.987   9.764
75406SOL     OW28114   5.862   9.983   3.246
75406SOL    HW128115   5.841   9.989   3.339
75406SOL    HW228116   5.801  10.043   3.204
75407SOL     OW28117   8.479   1.715  10.028
75407SOL    HW128118   8.500   1.751  10.114
75407SOL    HW228119   8.385   1.699  10.030
75408SOL     OW28120   9.892   2.752  14.233
75408SOL    HW128121   9.803   2.732  14.203
75408SOL    HW228122   9.901   2.703  14.315
75409SOL     OW28123   7.831   6.215   3.897
75409SOL    HW128124   7.793   6.304   3.899
75409SOL    HW228125   7.831   6.187   3.988
75410SOL     OW28126   5.319   4.649   1.712
75410SOL    HW128127   5.363   4.733   1.705
75410SOL    HW228128   5.226   4.671   1.718
75411SOL     OW28129   7.830  11.687  12.153
75411SOL    HW128130   7.903  11.625  12.157
75411SOL    HW228131   7.758  11.642  12.196
75412SOL     OW28132   6.462   8.690  13.806
75412SOL    HW128133   6.440   8.726  13.892
75412SOL    HW228134   6.408   8.741  13.745
75413SOL     OW28135   2.057   6.359  12.343
75413SOL    HW128136   1.987   6.410  12.303
75413SOL    HW228137   2.132   6.373  12.286
75414SOL     OW28138   5.143   2.306  13.867
75414SOL    HW128139   5.100   2.384  13.833
75414SOL    HW228140   5.134   2.241  13.797
75415SOL     OW28141   7.360   1.470  14.550
75415SOL    HW128142   7.436   1.522  14.578
75415SOL    HW228143   7.398   1.399  14.497
75416SOL     OW28144   7.762  10.224   4.627
75416SOL    HW128145   7.730  10.138   4.655
75416SOL    HW228146   7.734  10.284   4.696
75417SOL     OW28147   9.182   1.569  14.171
75417SOL    HW128148   9.218   1.632  14.233
75417SOL    HW228149   9.124   1.621  14.115
75418SOL     OW28150  13.714  13.194  14.006
75418SOL    HW128151  13.800  13.236  14.009
75418SOL    HW228152  13.660  13.245  14.067
75419SOL     OW28153   9.107  13.904   3.391
75419SOL    HW128154   9.079  13.829   3.339
75419SOL    HW228155   9.167  13.869   3.456
75420SOL     OW28156   9.619   1.519   5.271
75420SOL    HW128157   9.650   1.463   5.343
75420SOL    HW228158   9.599   1.603   5.313
75421SOL     OW28159   9.761   8.355  10.045
75421SOL    HW128160   9.772   8.448  10.065
75421SOL    HW228161   9.707   8.353   9.967
75422SOL     OW28162  11.725   7.985  12.488
75422SOL    HW128163  11.639   7.962  12.522
75422SOL    HW228164  11.753   7.907  12.439
75423SOL     OW28165   8.581   8.313   0.492
75423SOL    HW128166   8.598   8.234   0.544
75423SOL    HW228167   8.498   8.294   0.447
75424SOL     OW28168  10.505   9.803   3.592
75424SOL    HW128169  10.580   9.744   3.579
75424SOL    HW228170  10.469   9.814   3.504
75425SOL     OW28171   0.018   5.256   4.033
75425SOL    HW128172  14.824   5.325   4.044
75425SOL    HW228173  14.865   5.213   3.951
75426SOL     OW28174  11.373  14.076   9.939
75426SOL    HW128175  11.465  14.058   9.958
75426SOL    HW228176  11.374  14.161   9.895
75427SOL     OW28177   9.479   0.968   3.891
75427SOL    HW128178   9.505   0.879   3.864
75427SOL    HW228179   9.537   0.988   3.965
75428SOL     OW28180   2.327   3.318  11.554
75428SOL    HW128181   2.372   3.400  11.532
75428SOL    HW228182   2.234   3.339  11.546
75429SOL     OW28183   5.204   9.870   9.474
75429SOL    HW128184   5.210   9.792   9.529
75429SOL    HW228185   5.291   9.911   9.482
75430SOL     OW28186   7.748   5.737   0.041
75430SOL    HW128187   7.819   5.781  14.866
75430SOL    HW228188   7.760   5.763   0.133
75431SOL     OW28189   3.067   5.246  11.141
75431SOL    HW128190   3.111   5.236  11.057
75431SOL    HW228191   3.131   5.288  11.197
75432SOL     OW28192   5.448  13.725   5.864
75432SOL    HW128193   5.434  13.638   5.827
75432SOL    HW228194   5.526  13.715   5.920
75433SOL     OW28195   8.910  13.683   3.450
75433SOL    HW128196   8.972  13.616   3.420
75433SOL    HW228197   8.906  13.670   3.544
75434SOL     OW28198   7.454   4.279   8.008
75434SOL    HW128199   7.447   4.206   7.947
75434SOL    HW228200   7.366   4.289   8.044
75435SOL     OW28201   6.468   8.736   1.538
75435SOL    HW128202   6.531   8.730   1.609
75435SOL    HW228203   6.415   8.813   1.559
75436SOL     OW28204  13.383  11.052   7.634
75436SOL    HW128205  13.402  11.113   7.706
75436SOL    HW228206  13.460  11.056   7.578
75437SOL     OW28207   4.228   5.920   3.145
75437SOL    HW128208   4.262   5.888   3.062
75437SOL    HW228209   4.164   5.987   3.121
75438SOL     OW28210  10.461   2.876  14.556
75438SOL    HW128211  10.379   2.879  14.507
75438SOL    HW228212  10.521   2.827  14.498
75439SOL     OW28213   7.701  12.811  12.125
75439SOL    HW128214   7.712  12.891  12.074
75439SOL    HW228215   7.767  12.751  12.089
75440SOL     OW28216   1.641  10.926   9.275
75440SOL    HW128217   1.647  10.853   9.213
75440SOL    HW228218   1.585  10.989   9.231
75441SOL     OW28219  13.192   7.657   0.081
75441SOL    HW128220  13.243   7.712   0.021
75441SOL    HW228221  13.234   7.571   0.077
75442SOL     OW28222   3.961   2.667   0.929
75442SOL    HW128223   3.890   2.654   0.866
75442SOL    HW228224   3.918   2.695   1.009
75443SOL     OW28225  13.142  12.182  12.213
75443SOL    HW128226  13.113  12.214  12.127
75443SOL    HW228227  13.236  12.167  12.202
75444SOL     OW28228  12.298  13.504   1.600
75444SOL    HW128229  12.236  13.499   1.528
75444SOL    HW228230  12.289  13.419   1.645
75445SOL     OW28231  13.634   8.252   9.919
75445SOL    HW128232  13.648   8.344   9.939
75445SOL    HW228233  13.621   8.250   9.824
75446SOL     OW28234   5.321  14.045   1.031
75446SOL    HW128235   5.387  14.086   1.088
75446SOL    HW228236   5.326  14.095   0.949
75447SOL     OW28237   0.872  11.770  10.640
75447SOL    HW128238   0.898  11.840  10.700
75447SOL    HW228239   0.783  11.793  10.614
75448SOL     OW28240  11.939  12.260   3.775
75448SOL    HW128241  12.022  12.292   3.811
75448SOL    HW228242  11.965  12.195   3.711
75449SOL     OW28243   7.937   9.666  12.205
75449SOL    HW128244   8.009   9.728  12.193
75449SOL    HW228245   7.965   9.587  12.159
75450SOL     OW28246   1.376   7.166  14.357
75450SOL    HW128247   1.442   7.109  14.317
75450SOL    HW228248   1.310   7.106  14.392
75451SOL     OW28249   7.722   3.567  12.446
75451SOL    HW128250   7.813   3.595  12.458
75451SOL    HW228251   7.729   3.490  12.389
75452SOL     OW28252   7.032  14.091   6.120
75452SOL    HW128253   7.044  14.176   6.163
75452SOL    HW228254   6.971  14.044   6.177
75453SOL     OW28255   7.084   3.563  12.871
75453SOL    HW128256   7.134   3.509  12.810
75453SOL    HW228257   7.092   3.517  12.955
75454SOL     OW28258   9.796   4.301   4.607
75454SOL    HW128259   9.716   4.300   4.555
75454SOL    HW228260   9.780   4.237   4.677
75455SOL     OW28261  10.575  13.907   2.200
75455SOL    HW128262  10.611  13.838   2.258
75455SOL    HW228263  10.548  13.976   2.260
75456SOL     OW28264   5.725   3.387   6.397
75456SOL    HW128265   5.754   3.395   6.488
75456SOL    HW228266   5.800   3.347   6.352
75457SOL     OW28267   7.548   1.213  13.499
75457SOL    HW128268   7.619   1.149  13.490
75457SOL    HW228269   7.468   1.161  13.502
75458SOL     OW28270   2.165   3.547   9.799
75458SOL    HW128271   2.163   3.552   9.894
75458SOL    HW228272   2.230   3.612   9.772
75459SOL     OW28273  10.265  10.142   7.499
75459SOL    HW128274  10.274  10.191   7.417
75459SOL    HW228275  10.170  10.132   7.510
75460SOL     OW28276   0.311  11.917   4.719
75460SOL    HW128277   0.307  11.939   4.812
75460SOL    HW228278   0.398  11.947   4.692
75461SOL     OW28279  12.753   9.656  14.648
75461SOL    HW128280  12.662   9.645  14.620
75461SOL    HW228281  12.747   9.683  14.740
75462SOL     OW28282   2.457   9.806  13.265
75462SOL    HW128283   2.376   9.854  13.247
75462SOL    HW228284   2.429   9.715  13.274
75463SOL     OW28285   6.496   3.219  11.980
75463SOL    HW128286   6.558   3.162  12.026
75463SOL    HW228287   6.423   3.230  12.041
75464SOL     OW28288   5.732  13.034   8.221
75464SOL    HW128289   5.779  13.117   8.224
75464SOL    HW228290   5.748  13.001   8.133
75465SOL     OW28291   3.000  11.458  10.298
75465SOL    HW128292   3.020  11.400  10.371
75465SOL    HW228293   2.912  11.430  10.270
75466SOL     OW28294   1.992  11.869   6.899
75466SOL    HW128295   1.924  11.814   6.861
75466SOL    HW228296   2.000  11.838   6.989
75467SOL     OW28297  10.865   0.260  11.289
75467SOL    HW128298  10.847   0.325  11.357
75467SOL    HW228299  10.923   0.305  11.227
75468SOL     OW28300  13.686   1.543  10.234
75468SOL    HW128301  13.778   1.570  10.223
75468SOL    HW228302  13.661   1.509  10.148
75469SOL     OW28303  11.096   6.254   1.668
75469SOL    HW128304  11.088   6.277   1.761
75469SOL    HW228305  11.037   6.180   1.657
75470SOL     OW28306   7.974  10.292   4.867
75470SOL    HW128307   7.976  10.200   4.838
75470SOL    HW228308   8.066  10.314   4.882
75471SOL     OW28309   5.495  11.632   5.306
75471SOL    HW128310   5.404  11.646   5.332
75471SOL    HW228311   5.535  11.719   5.310
75472SOL     OW28312   7.680   8.078   3.515
75472SOL    HW128313   7.668   8.064   3.421
75472SOL    HW228314   7.719   8.165   3.522
75473SOL     OW28315   1.417   8.513   9.735
75473SOL    HW128316   1.511   8.530   9.726
75473SOL    HW228317   1.375   8.594   9.706
75474SOL     OW28318   0.685   8.746   5.680
75474SOL    HW128319   0.610   8.805   5.688
75474SOL    HW228320   0.649   8.668   5.637
75475SOL     OW28321   5.498   6.226  13.575
75475SOL    HW128322   5.558   6.288  13.616
75475SOL    HW228323   5.411   6.259  13.596
75476SOL     OW28324   7.284  11.595   8.922
75476SOL    HW128325   7.316  11.517   8.877
75476SOL    HW228326   7.246  11.563   9.004
75477SOL     OW28327  13.028   4.064   4.019
75477SOL    HW128328  13.050   4.013   3.941
75477SOL    HW228329  13.092   4.135   4.020
75478SOL     OW28330  13.023   9.365   2.705
75478SOL    HW128331  12.999   9.425   2.634
75478SOL    HW228332  13.056   9.287   2.660
75479SOL     OW28333   2.231  11.477  10.437
75479SOL    HW128334   2.200  11.431  10.515
75479SOL    HW228335   2.273  11.556  10.471
75480SOL     OW28336  12.375   0.178   9.234
75480SOL    HW128337  12.336   0.100   9.273
75480SOL    HW228338  12.439   0.208   9.298
75481SOL     OW28339   2.387   0.674  14.588
75481SOL    HW128340   2.405   0.717  14.504
75481SOL    HW228341   2.441   0.595  14.586
75482SOL     OW28342   9.937  11.693   1.959
75482SOL    HW128343  10.020  11.670   2.002
75482SOL    HW228344   9.872  11.638   2.001
75483SOL     OW28345  10.066   0.574   2.152
75483SOL    HW128346  10.011   0.586   2.229
75483SOL    HW228347  10.007   0.541   2.084
75484SOL     OW28348   7.558   5.878   7.431
75484SOL    HW128349   7.587   5.968   7.438
75484SOL    HW228350   7.514   5.872   7.346
75485SOL     OW28351   3.525  13.452   0.323
75485SOL    HW128352   3.570  13.412   0.397
75485SOL    HW228353   3.520  13.545   0.345
75486SOL     OW28354   2.684  12.090   3.634
75486SOL    HW128355   2.601  12.135   3.647
75486SOL    HW228356   2.666  12.026   3.564
75487SOL     OW28357   3.086   6.098   1.329
75487SOL    HW128358   3.005   6.135   1.365
75487SOL    HW228359   3.149   6.106   1.401
75488SOL     OW28360   5.774   0.754  13.965
75488SOL    HW128361   5.716   0.692  14.009
75488SOL    HW228362   5.716   0.818  13.925
75489SOL     OW28363   2.521  13.558   2.599
75489SOL    HW128364   2.600  13.520   2.559
75489SOL    HW228365   2.550  13.644   2.630
75490SOL     OW28366  11.843   9.416   9.735
75490SOL    HW128367  11.807   9.342   9.685
75490SOL    HW228368  11.871   9.377   9.818
75491SOL     OW28369   2.716   8.205   4.165
75491SOL    HW128370   2.716   8.281   4.106
75491SOL    HW228371   2.683   8.239   4.248
75492SOL     OW28372   3.080   7.197  13.115
75492SOL    HW128373   3.040   7.171  13.032
75492SOL    HW228374   3.047   7.134  13.179
75493SOL     OW28375   8.799   5.279   5.818
75493SOL    HW128376   8.715   5.232   5.813
75493SOL    HW228377   8.814   5.292   5.912
75494SOL     OW28378  10.500   0.655   8.579
75494SOL    HW128379  10.495   0.728   8.641
75494SOL    HW228380  10.537   0.692   8.500
75495SOL     OW28381   7.225   7.550  13.901
75495SOL    HW128382   7.265   7.475  13.857
75495SOL    HW228383   7.143   7.565  13.853
75496SOL     OW28384   9.098  11.386   6.053
75496SOL    HW128385   9.060  11.423   5.973
75496SOL    HW228386   9.030  11.328   6.087
75497SOL     OW28387  10.198   9.544   9.502
75497SOL    HW128388  10.290   9.533   9.478
75497SOL    HW228389  10.150   9.537   9.419
75498SOL     OW28390   1.431   2.201   6.592
75498SOL    HW128391   1.466   2.242   6.513
75498SOL    HW228392   1.507   2.160   6.633
75499SOL     OW28393  13.331   4.388   5.896
75499SOL    HW128394  13.369   4.367   5.811
75499SOL    HW228395  13.368   4.322   5.955
75500SOL     OW28396   4.324  14.797  14.209
75500SOL    HW128397   4.384  14.870  14.224
75500SOL    HW228398   4.264  14.799  14.283
75501SOL     OW28399   5.076   8.932   1.387
75501SOL    HW128400   4.989   8.893   1.395
75501SOL    HW228401   5.130   8.863   1.349
75502SOL     OW28402   5.217   2.235   8.988
75502SOL    HW128403   5.225   2.249   8.894
75502SOL    HW228404   5.283   2.170   9.010
75503SOL     OW28405   5.395   9.741  12.804
75503SOL    HW128406   5.454   9.800  12.758
75503SOL    HW228407   5.366   9.791  12.881
75504SOL     OW28408   2.518  13.031   2.930
75504SOL    HW128409   2.568  13.019   3.010
75504SOL    HW228410   2.557  12.971   2.867
75505SOL     OW28411   5.574   6.733   8.720
75505SOL    HW128412   5.607   6.789   8.650
75505SOL    HW228413   5.499   6.780   8.755
75506SOL     OW28414   1.280  12.647  11.359
75506SOL    HW128415   1.271  12.742  11.364
75506SOL    HW228416   1.196  12.617  11.323
75507SOL     OW28417  14.389  13.124  13.217
75507SOL    HW128418  14.338  13.150  13.140
75507SOL    HW228419  14.335  13.150  13.291
75508SOL     OW28420   2.949   7.300  11.321
75508SOL    HW128421   2.969   7.373  11.380
75508SOL    HW228422   2.973   7.332  11.234
75509SOL     OW28423  12.848   7.529   1.340
75509SOL    HW128424  12.839   7.493   1.429
75509SOL    HW228425  12.795   7.471   1.286
75510SOL     OW28426   1.580   4.751   9.959
75510SOL    HW128427   1.667   4.718   9.983
75510SOL    HW228428   1.519   4.683   9.988
75511SOL     OW28429  12.204   6.348   9.007
75511SOL    HW128430  12.156   6.363   8.926
75511SOL    HW228431  12.231   6.436   9.035
75512SOL     OW28432   2.084   0.994  14.211
75512SOL    HW128433   2.146   1.066  14.200
75512SOL    HW228434   2.015   1.030  14.267
75513SOL     OW28435   8.612   4.545  10.116
75513SOL    HW128436   8.649   4.594  10.190
75513SOL    HW228437   8.531   4.508  10.151
75514SOL     OW28438   8.776  14.266   2.678
75514SOL    HW128439   8.814  14.344   2.639
75514SOL    HW228440   8.745  14.214   2.603
75515SOL     OW28441  13.548   2.924  14.299
75515SOL    HW128442  13.532   2.830  14.306
75515SOL    HW228443  13.636   2.930  14.261
75516SOL     OW28444  14.544  14.734   7.446
75516SOL    HW128445  14.502  14.754   7.530
75516SOL    HW228446  14.590  14.815   7.423
75517SOL     OW28447  11.679   6.618   6.732
75517SOL    HW128448  11.744   6.584   6.794
75517SOL    HW228449  11.731   6.650   6.658
75518SOL     OW28450  12.200   1.959  12.330
75518SOL    HW128451  12.245   1.890  12.379
75518SOL    HW228452  12.264   2.029  12.323
75519SOL     OW28453  11.407  13.023   7.394
75519SOL    HW128454  11.336  13.070   7.351
75519SOL    HW228455  11.370  12.938   7.417
75520SOL     OW28456  11.753   5.302  12.000
75520SOL    HW128457  11.758   5.297  12.096
75520SOL    HW228458  11.716   5.388  11.982
75521SOL     OW28459  10.189   6.116   5.434
75521SOL    HW128460  10.274   6.077   5.450
75521SOL    HW228461  10.198   6.161   5.350
75522SOL     OW28462   4.227  13.661  12.047
75522SOL    HW128463   4.202  13.739  12.096
75522SOL    HW228464   4.205  13.588  12.104
75523SOL     OW28465   9.737   6.535  12.670
75523SOL    HW128466   9.823   6.559  12.638
75523SOL    HW228467   9.736   6.564  12.761
75524SOL     OW28468   4.299   3.800   3.750
75524SOL    HW128469   4.367   3.798   3.683
75524SOL    HW228470   4.322   3.728   3.809
75525SOL     OW28471   4.454  10.021   0.106
75525SOL    HW128472   4.455   9.987   0.196
75525SOL    HW228473   4.543  10.009   0.074
75526SOL     OW28474   1.170  14.257   9.856
75526SOL    HW128475   1.112  14.297   9.921
75526SOL    HW228476   1.147  14.165   9.856
75527SOL     OW28477   7.877   2.724   1.315
75527SOL    HW128478   7.848   2.696   1.401
75527SOL    HW228479   7.797   2.733   1.264
75528SOL     OW28480  11.256   9.223  11.208
75528SOL    HW128481  11.300   9.173  11.140
75528SOL    HW228482  11.209   9.158  11.260
75529SOL     OW28483  12.725   2.363   4.359
75529SOL    HW128484  12.693   2.333   4.444
75529SOL    HW228485  12.673   2.314   4.295
75530SOL     OW28486   2.409  11.656  12.415
75530SOL    HW128487   2.369  11.598  12.480
75530SOL    HW228488   2.492  11.614  12.393
75531SOL     OW28489   7.963   5.793   0.282
75531SOL    HW128490   7.952   5.744   0.363
75531SOL    HW228491   8.001   5.876   0.309
75532SOL     OW28492   4.192  14.545  10.746
75532SOL    HW128493   4.169  14.563  10.837
75532SOL    HW228494   4.274  14.591  10.731
75533SOL     OW28495  12.379   8.355  10.492
75533SOL    HW128496  12.423   8.271  10.491
75533SOL    HW228497  12.329   8.356  10.574
75534SOL     OW28498  12.704   3.553   5.894
75534SOL    HW128499  12.710   3.640   5.936
75534SOL    HW228500  12.648   3.567   5.818
75535SOL     OW28501   3.926   2.333   1.458
75535SOL    HW128502   3.995   2.278   1.421
75535SOL    HW228503   3.973   2.400   1.508
75536SOL     OW28504   2.658   3.124  11.401
75536SOL    HW128505   2.597   3.193  11.376
75536SOL    HW228506   2.623   3.091  11.484
75537SOL     OW28507   6.068  10.011  10.373
75537SOL    HW128508   6.070  10.107  10.370
75537SOL    HW228509   6.141   9.988  10.430
75538SOL     OW28510  14.439   7.958   9.208
75538SOL    HW128511  14.391   8.040   9.210
75538SOL    HW228512  14.378   7.895   9.169
75539SOL     OW28513  13.439  11.263  12.025
75539SOL    HW128514  13.403  11.331  12.082
75539SOL    HW228515  13.444  11.305  11.939
75540SOL     OW28516   8.250  13.240   3.341
75540SOL    HW128517   8.316  13.200   3.285
75540SOL    HW228518   8.219  13.315   3.291
75541SOL     OW28519   0.479   1.283   2.622
75541SOL    HW128520   0.539   1.295   2.696
75541SOL    HW228521   0.439   1.197   2.637
75542SOL     OW28522   3.193  10.777   7.020
75542SOL    HW128523   3.194  10.820   6.934
75542SOL    HW228524   3.198  10.849   7.083
75543SOL     OW28525  10.504  11.655   2.728
75543SOL    HW128526  10.434  11.712   2.760
75543SOL    HW228527  10.486  11.646   2.634
75544SOL     OW28528   7.439   6.728  12.986
75544SOL    HW128529   7.521   6.699  13.026
75544SOL    HW228530   7.427   6.818  13.017
75545SOL     OW28531  13.264   0.863   6.983
75545SOL    HW128532  13.222   0.854   6.897
75545SOL    HW228533  13.346   0.909   6.965
75546SOL     OW28534  12.464   7.453   4.694
75546SOL    HW128535  12.450   7.480   4.785
75546SOL    HW228536  12.557   7.428   4.691
75547SOL     OW28537   5.013   8.728   9.079
75547SOL    HW128538   4.975   8.757   9.162
75547SOL    HW228539   5.072   8.657   9.104
75548SOL     OW28540  11.450  13.668   6.475
75548SOL    HW128541  11.357  13.689   6.469
75548SOL    HW228542  11.474  13.641   6.386
75549SOL     OW28543  14.544   6.070   4.240
75549SOL    HW128544  14.499   6.139   4.289
75549SOL    HW228545  14.585   6.016   4.307
75550SOL     OW28546   7.849  10.990   1.409
75550SOL    HW128547   7.937  10.992   1.371
75550SOL    HW228548   7.843  10.906   1.454
75551SOL     OW28549   3.438   4.603   7.100
75551SOL    HW128550   3.459   4.696   7.089
75551SOL    HW228551   3.477   4.580   7.184
75552SOL     OW28552   9.963  10.144   5.442
75552SOL    HW128553   9.959  10.185   5.356
75552SOL    HW228554  10.004  10.059   5.427
75553SOL     OW28555   8.013  12.036   1.926
75553SOL    HW128556   8.073  12.100   1.964
75553SOL    HW228557   8.055  11.952   1.941
75554SOL     OW28558   8.750   3.535  12.310
75554SOL    HW128559   8.789   3.579  12.385
75554SOL    HW228560   8.765   3.595  12.237
75555SOL     OW28561  13.966   3.837  11.019
75555SOL    HW128562  13.873   3.849  11.003
75555SOL    HW228563  13.985   3.749  10.984
75556SOL     OW28564   5.039   8.310   5.908
75556SOL    HW128565   5.102   8.256   5.860
75556SOL    HW228566   5.018   8.259   5.986
75557SOL     OW28567   2.087  14.231   0.707
75557SOL    HW128568   2.032  14.204   0.633
75557SOL    HW228569   2.080  14.158   0.769
75558SOL     OW28570   4.306   4.625   4.800
75558SOL    HW128571   4.291   4.560   4.869
75558SOL    HW228572   4.222   4.670   4.790
75559SOL     OW28573   6.745  10.144   7.581
75559SOL    HW128574   6.650  10.136   7.585
75559SOL    HW228575   6.777  10.061   7.617
75560SOL     OW28576   5.153  11.085   3.256
75560SOL    HW128577   5.100  11.121   3.185
75560SOL    HW228578   5.202  11.013   3.215
75561SOL     OW28579   3.887  12.265   0.672
75561SOL    HW128580   3.941  12.210   0.615
75561SOL    HW228581   3.887  12.350   0.629
75562SOL     OW28582   6.757   9.740  11.715
75562SOL    HW128583   6.710   9.810  11.759
75562SOL    HW228584   6.689   9.685  11.676
75563SOL     OW28585   2.363  10.103   7.020
75563SOL    HW128586   2.352  10.174   7.082
75563SOL    HW228587   2.341  10.141   6.935
75564SOL     OW28588  13.817   0.543   0.506
75564SOL    HW128589  13.813   0.463   0.454
75564SOL    HW228590  13.741   0.539   0.563
75565SOL     OW28591   4.272   3.222  14.600
75565SOL    HW128592   4.244   3.307  14.568
75565SOL    HW228593   4.199   3.190  14.653
75566SOL     OW28594  10.364   7.137   5.618
75566SOL    HW128595  10.437   7.162   5.675
75566SOL    HW228596  10.315   7.218   5.605
75567SOL     OW28597   0.973  14.725  13.638
75567SOL    HW128598   0.944  14.711  13.548
75567SOL    HW228599   0.974  14.821  13.648
75568SOL     OW28600  10.583   0.714   3.227
75568SOL    HW128601  10.555   0.803   3.246
75568SOL    HW228602  10.503   0.662   3.229
75569SOL     OW28603   3.313  13.845   2.298
75569SOL    HW128604   3.359  13.774   2.342
75569SOL    HW228605   3.238  13.803   2.255
75570SOL     OW28606   0.903  11.362  12.775
75570SOL    HW128607   0.875  11.357  12.684
75570SOL    HW228608   0.821  11.372  12.825
75571SOL     OW28609   2.638  10.327  14.677
75571SOL    HW128610   2.654  10.316  14.770
75571SOL    HW228611   2.712  10.285  14.634
75572SOL     OW28612   4.344   1.528  13.103
75572SOL    HW128613   4.341   1.560  13.193
75572SOL    HW228614   4.325   1.435  13.110
75573SOL     OW28615  14.477   5.506  10.126
75573SOL    HW128616  14.565   5.472  10.138
75573SOL    HW228617  14.430   5.479  10.205
75574SOL     OW28618   7.066   3.271  11.854
75574SOL    HW128619   7.141   3.324  11.877
75574SOL    HW228620   7.000   3.292  11.920
75575SOL     OW28621  13.146   2.476   1.501
75575SOL    HW128622  13.168   2.383   1.506
75575SOL    HW228623  13.055   2.481   1.530
75576SOL     OW28624  14.424   9.806   8.437
75576SOL    HW128625  14.518   9.810   8.454
75576SOL    HW228626  14.411   9.861   8.359
75577SOL     OW28627  12.369   2.078   4.304
75577SOL    HW128628  12.341   1.989   4.325
75577SOL    HW228629  12.289   2.131   4.314
75578SOL     OW28630  11.119   5.991   0.021
75578SOL    HW128631  11.067   5.987  14.812
75578SOL    HW228632  11.209   6.001  14.862
75579SOL     OW28633   2.527  11.972   7.998
75579SOL    HW128634   2.558  12.022   7.923
75579SOL    HW228635   2.607  11.935   8.035
75580SOL     OW28636   6.052  14.569  14.084
75580SOL    HW128637   6.007  14.589  14.002
75580SOL    HW228638   6.139  14.608  14.074
75581SOL     OW28639  10.617  14.634  10.122
75581SOL    HW128640  10.704  14.641  10.161
75581SOL    HW228641  10.621  14.556  10.068
75582SOL     OW28642   8.197   3.107   5.418
75582SOL    HW128643   8.137   3.036   5.393
75582SOL    HW228644   8.188   3.172   5.348
75583SOL     OW28645   5.416   2.194  12.696
75583SOL    HW128646   5.479   2.142  12.646
75583SOL    HW228647   5.362   2.129  12.742
75584SOL     OW28648   6.736   0.288   3.927
75584SOL    HW128649   6.648   0.321   3.915
75584SOL    HW228650   6.789   0.365   3.948
75585SOL     OW28651  11.144   0.929   5.167
75585SOL    HW128652  11.143   0.931   5.071
75585SOL    HW228653  11.072   0.986   5.192
75586SOL     OW28654  13.362   1.292  10.880
75586SOL    HW128655  13.409   1.212  10.858
75586SOL    HW228656  13.277   1.262  10.912
75587SOL     OW28657  12.119   7.248   1.360
75587SOL    HW128658  12.091   7.322   1.307
75587SOL    HW228659  12.097   7.171   1.307
75588SOL     OW28660   2.154   0.328   8.544
75588SOL    HW128661   2.164   0.410   8.496
75588SOL    HW228662   2.180   0.261   8.480
75589SOL     OW28663   5.854   8.092   6.629
75589SOL    HW128664   5.840   8.050   6.714
75589SOL    HW228665   5.854   8.020   6.566
75590SOL     OW28666   5.856  12.945   0.494
75590SOL    HW128667   5.911  12.915   0.422
75590SOL    HW228668   5.767  12.945   0.458
75591SOL     OW28669  10.682   1.965   1.884
75591SOL    HW128670  10.776   1.986   1.883
75591SOL    HW228671  10.672   1.899   1.816
75592SOL     OW28672  11.373  11.633   4.769
75592SOL    HW128673  11.290  11.671   4.799
75592SOL    HW228674  11.411  11.700   4.712
75593SOL     OW28675   4.843   1.907   4.586
75593SOL    HW128676   4.777   1.972   4.613
75593SOL    HW228677   4.826   1.831   4.642
75594SOL     OW28678   5.729   8.299  11.930
75594SOL    HW128679   5.736   8.205  11.948
75594SOL    HW228680   5.807   8.337  11.970
75595SOL     OW28681   0.673   6.464  12.464
75595SOL    HW128682   0.703   6.380  12.429
75595SOL    HW228683   0.579   6.466  12.442
75596SOL     OW28684   2.784   7.660   6.932
75596SOL    HW128685   2.701   7.627   6.898
75596SOL    HW228686   2.775   7.657   7.027
75597SOL     OW28687  10.543   2.981  12.314
75597SOL    HW128688  10.500   2.914  12.367
75597SOL    HW228689  10.621   3.006  12.364
75598SOL     OW28690   6.760   4.254   7.916
75598SOL    HW128691   6.691   4.303   7.960
75598SOL    HW228692   6.718   4.219   7.837
75599SOL     OW28693  11.087  11.655   4.853
75599SOL    HW128694  11.024  11.721   4.823
75599SOL    HW228695  11.057  11.631   4.941
75600SOL     OW28696  12.909  10.855   4.028
75600SOL    HW128697  12.944  10.852   4.117
75600SOL    HW228698  12.823  10.813   4.035
75601SOL     OW28699  14.009  12.642   8.912
75601SOL    HW128700  13.995  12.720   8.858
75601SOL    HW228701  13.949  12.653   8.985
75602SOL     OW28702   4.500   8.958   2.499
75602SOL    HW128703   4.529   8.937   2.410
75602SOL    HW228704   4.406   8.976   2.490
75603SOL     OW28705  13.606   3.481   2.980
75603SOL    HW128706  13.587   3.575   2.973
75603SOL    HW228707  13.521   3.438   2.966
75604SOL     OW28708   1.055  14.391  11.671
75604SOL    HW128709   1.047  14.341  11.752
75604SOL    HW228710   1.045  14.326  11.601
75605SOL     OW28711  11.006   1.898   4.139
75605SOL    HW128712  11.060   1.861   4.070
75605SOL    HW228713  11.048   1.870   4.220
75606SOL     OW28714  13.420   0.319   9.571
75606SOL    HW128715  13.375   0.234   9.579
75606SOL    HW228716  13.474   0.309   9.492
75607SOL     OW28717   1.819   8.689  10.764
75607SOL    HW128718   1.746   8.627  10.764
75607SOL    HW228719   1.875   8.659  10.692
75608SOL     OW28720  12.890  12.338  14.570
75608SOL    HW128721  12.879  12.390  14.489
75608SOL    HW228722  12.800  12.325  14.601
75609SOL     OW28723  10.563   2.517   1.897
75609SOL    HW128724  10.502   2.450   1.867
75609SOL    HW228725  10.648   2.473   1.896
75610SOL     OW28726   7.539   0.019  12.690
75610SOL    HW128727   7.489   0.101  12.689
75610SOL    HW228728   7.474  14.822  12.673
75611SOL     OW28729   5.166   6.063  11.613
75611SOL    HW128730   5.098   6.092  11.674
75611SOL    HW228731   5.248   6.078  11.659
75612SOL     OW28732  12.373   2.161   1.080
75612SOL    HW128733  12.443   2.110   1.039
75612SOL    HW228734  12.296   2.104   1.075
75613SOL     OW28735   0.429   5.080  11.801
75613SOL    HW128736   0.456   5.020  11.870
75613SOL    HW228737   0.504   5.085  11.742
75614SOL     OW28738   6.865  12.044   7.874
75614SOL    HW128739   6.937  11.981   7.867
75614SOL    HW228740   6.827  12.028   7.960
75615SOL     OW28741   2.843  14.183  11.505
75615SOL    HW128742   2.902  14.209  11.576
75615SOL    HW228743   2.780  14.124  11.547
75616SOL     OW28744   6.190   5.182   2.992
75616SOL    HW128745   6.105   5.226   2.989
75616SOL    HW228746   6.201   5.158   3.084
75617SOL     OW28747   4.030   1.322   4.125
75617SOL    HW128748   3.962   1.389   4.110
75617SOL    HW228749   4.069   1.308   4.039
75618SOL     OW28750   3.719  10.588  10.072
75618SOL    HW128751   3.714  10.684  10.064
75618SOL    HW228752   3.781  10.562  10.004
75619SOL     OW28753  13.739  12.636   9.028
75619SOL    HW128754  13.669  12.695   9.057
75619SOL    HW228755  13.705  12.597   8.947
75620SOL     OW28756   2.545  10.187   4.669
75620SOL    HW128757   2.544  10.112   4.611
75620SOL    HW228758   2.618  10.241   4.638
75621SOL     OW28759  11.757  12.157   5.380
75621SOL    HW128760  11.723  12.247   5.387
75621SOL    HW228761  11.805  12.156   5.298
75622SOL     OW28762   1.199   6.994  14.497
75622SOL    HW128763   1.149   6.917  14.469
75622SOL    HW228764   1.228   6.974  14.586
75623SOL     OW28765   4.435   1.826   1.471
75623SOL    HW128766   4.369   1.822   1.540
75623SOL    HW228767   4.400   1.770   1.401
75624SOL     OW28768   7.423   5.696   9.581
75624SOL    HW128769   7.332   5.725   9.572
75624SOL    HW228770   7.456   5.694   9.491
75625SOL     OW28771   5.708  14.001   2.951
75625SOL    HW128772   5.760  13.991   2.871
75625SOL    HW228773   5.756  13.953   3.018
75626SOL     OW28774  13.850   1.585   6.594
75626SOL    HW128775  13.779   1.566   6.532
75626SOL    HW228776  13.898   1.657   6.554
75627SOL     OW28777   2.326  12.311  12.662
75627SOL    HW128778   2.318  12.397  12.703
75627SOL    HW228779   2.305  12.249  12.733
75628SOL     OW28780  11.561   8.918  13.312
75628SOL    HW128781  11.568   8.912  13.407
75628SOL    HW228782  11.584   8.830  13.281
75629SOL     OW28783   7.302   0.459   4.571
75629SOL    HW128784   7.218   0.465   4.616
75629SOL    HW228785   7.282   0.483   4.480
75630SOL     OW28786   6.379   4.997   8.113
75630SOL    HW128787   6.436   5.032   8.045
75630SOL    HW228788   6.396   5.053   8.189
75631SOL     OW28789   7.917  14.407   4.098
75631SOL    HW128790   7.964  14.489   4.110
75631SOL    HW228791   7.927  14.360   4.181
75632SOL     OW28792   5.870   2.915   9.955
75632SOL    HW128793   5.831   2.998   9.928
75632SOL    HW228794   5.873   2.862   9.876
75633SOL     OW28795   6.286   4.848   7.740
75633SOL    HW128796   6.257   4.841   7.649
75633SOL    HW228797   6.224   4.795   7.789
75634SOL     OW28798   3.894   7.101  13.061
75634SOL    HW128799   3.982   7.090  13.097
75634SOL    HW228800   3.837   7.101  13.137
75635SOL     OW28801   4.027   2.222   3.469
75635SOL    HW128802   4.052   2.135   3.438
75635SOL    HW228803   4.069   2.230   3.555
75636SOL     OW28804   7.572   7.473  13.455
75636SOL    HW128805   7.647   7.413  13.449
75636SOL    HW228806   7.563   7.508  13.366
75637SOL     OW28807   3.795  14.668  12.089
75637SOL    HW128808   3.743  14.692  12.012
75637SOL    HW228809   3.807  14.574  12.081
75638SOL     OW28810   5.824   6.831   9.153
75638SOL    HW128811   5.887   6.902   9.141
75638SOL    HW228812   5.820   6.819   9.248
75639SOL     OW28813  13.692   9.390  14.303
75639SOL    HW128814  13.612   9.386  14.250
75639SOL    HW228815  13.668   9.348  14.386
75640SOL     OW28816   6.198   9.408   6.952
75640SOL    HW128817   6.283   9.381   6.917
75640SOL    HW228818   6.194   9.368   7.038
75641SOL     OW28819  11.575   7.960  14.554
75641SOL    HW128820  11.567   8.040  14.607
75641SOL    HW228821  11.485   7.930  14.542
75642SOL     OW28822   5.056   4.259  11.186
75642SOL    HW128823   4.979   4.279  11.239
75642SOL    HW228824   5.057   4.164  11.179
75643SOL     OW28825  10.952   8.401   5.336
75643SOL    HW128826  10.948   8.466   5.407
75643SOL    HW228827  11.031   8.424   5.287
75644SOL     OW28828   4.907   8.089   2.593
75644SOL    HW128829   4.988   8.045   2.566
75644SOL    HW228830   4.840   8.050   2.537
75645SOL     OW28831   9.778  12.045   0.767
75645SOL    HW128832   9.697  11.997   0.788
75645SOL    HW228833   9.764  12.078   0.679
75646SOL     OW28834   2.116  14.128  11.632
75646SOL    HW128835   2.130  14.193  11.564
75646SOL    HW228836   2.027  14.096  11.618
75647SOL     OW28837   2.131  12.123   3.105
75647SOL    HW128838   2.105  12.214   3.091
75647SOL    HW228839   2.163  12.120   3.195
75648SOL     OW28840   4.553   1.397  10.870
75648SOL    HW128841   4.532   1.409  10.777
75648SOL    HW228842   4.639   1.436  10.880
75649SOL     OW28843   4.319   6.288   8.699
75649SOL    HW128844   4.329   6.203   8.741
75649SOL    HW228845   4.246   6.277   8.638
75650SOL     OW28846   6.392  14.748   3.685
75650SOL    HW128847   6.331  14.696   3.736
75650SOL    HW228848   6.407  14.698   3.605
75651SOL     OW28849   7.771   3.941   5.861
75651SOL    HW128850   7.692   3.960   5.810
75651SOL    HW228851   7.833   3.906   5.796
75652SOL     OW28852  10.280   7.974   1.408
75652SOL    HW128853  10.308   7.882   1.411
75652SOL    HW228854  10.362   8.023   1.402
75653SOL     OW28855   1.025  12.860   3.308
75653SOL    HW128856   1.036  12.815   3.392
75653SOL    HW228857   0.968  12.802   3.257
75654SOL     OW28858  11.955  12.313   1.993
75654SOL    HW128859  11.957  12.396   1.945
75654SOL    HW228860  11.895  12.258   1.942
75655SOL     OW28861   2.085  11.686   4.006
75655SOL    HW128862   2.147  11.649   3.943
75655SOL    HW228863   2.017  11.619   4.015
75656SOL     OW28864   2.704   0.835   6.541
75656SOL    HW128865   2.683   0.798   6.455
75656SOL    HW228866   2.619   0.843   6.585
75657SOL     OW28867   9.947  12.917  10.891
75657SOL    HW128868  10.041  12.902  10.905
75657SOL    HW228869   9.944  12.985  10.823
75658SOL     OW28870  10.250  14.163   0.630
75658SOL    HW128871  10.196  14.087   0.610
75658SOL    HW228872  10.188  14.235   0.643
75659SOL     OW28873   0.801   4.256   3.345
75659SOL    HW128874   0.730   4.297   3.395
75659SOL    HW228875   0.838   4.191   3.404
75660SOL     OW28876  10.053  10.296   8.847
75660SOL    HW128877  10.027  10.384   8.878
75660SOL    HW228878  10.016  10.237   8.912
75661SOL     OW28879   2.571   2.849   4.653
75661SOL    HW128880   2.495   2.811   4.607
75661SOL    HW228881   2.607   2.776   4.703
75662SOL     OW28882  13.361  12.753   3.057
75662SOL    HW128883  13.386  12.663   3.036
75662SOL    HW228884  13.444  12.800   3.065
75663SOL     OW28885   0.999   3.214  11.126
75663SOL    HW128886   1.038   3.142  11.175
75663SOL    HW228887   1.030   3.202  11.036
75664SOL     OW28888  11.365   2.747   0.845
75664SOL    HW128889  11.275   2.730   0.872
75664SOL    HW228890  11.409   2.663   0.853
75665SOL     OW28891   3.661   7.357   9.870
75665SOL    HW128892   3.686   7.264   9.870
75665SOL    HW228893   3.614   7.368   9.787
75666SOL     OW28894  14.647  10.678  10.148
75666SOL    HW128895  14.599  10.749  10.107
75666SOL    HW228896  14.670  10.710  10.235
75667SOL     OW28897   9.453  14.650   8.091
75667SOL    HW128898   9.365  14.676   8.066
75667SOL    HW228899   9.449  14.554   8.097
75668SOL     OW28900  14.065   2.680   7.671
75668SOL    HW128901  14.072   2.585   7.662
75668SOL    HW228902  14.155   2.712   7.668
75669SOL     OW28903  13.738   1.249   5.147
75669SOL    HW128904  13.817   1.199   5.129
75669SOL    HW228905  13.698   1.262   5.061
75670SOL     OW28906   1.915  12.009   7.299
75670SOL    HW128907   1.969  12.072   7.347
75670SOL    HW228908   1.976  11.938   7.276
75671SOL     OW28909   0.562   7.654   4.695
75671SOL    HW128910   0.547   7.677   4.787
75671SOL    HW228911   0.485   7.604   4.669
75672SOL     OW28912   6.795   9.472   5.524
75672SOL    HW128913   6.776   9.433   5.439
75672SOL    HW228914   6.801   9.398   5.584
75673SOL     OW28915   4.516   1.334   1.247
75673SOL    HW128916   4.438   1.278   1.245
75673SOL    HW228917   4.510   1.386   1.167
75674SOL     OW28918  10.031   2.424   9.060
75674SOL    HW128919   9.951   2.373   9.062
75674SOL    HW228920  10.058   2.429   9.152
75675SOL     OW28921   2.980   8.999   7.443
75675SOL    HW128922   2.928   8.919   7.447
75675SOL    HW228923   2.927   9.064   7.490
75676SOL     OW28924   3.867   5.713   3.255
75676SOL    HW128925   3.894   5.796   3.296
75676SOL    HW228926   3.845   5.737   3.165
75677SOL     OW28927  10.918  10.179   1.892
75677SOL    HW128928  10.896  10.227   1.812
75677SOL    HW228929  10.934  10.089   1.863
75678SOL     OW28930   7.577   6.978  11.991
75678SOL    HW128931   7.595   7.068  12.019
75678SOL    HW228932   7.568   6.928  12.072
75679SOL     OW28933   0.351   1.136   3.236
75679SOL    HW128934   0.414   1.114   3.167
75679SOL    HW228935   0.276   1.174   3.189
75680SOL     OW28936   5.508  13.597  12.061
75680SOL    HW128937   5.421  13.581  12.098
75680SOL    HW228938   5.534  13.682  12.095
75681SOL     OW28939   7.414   9.144   4.372
75681SOL    HW128940   7.321   9.152   4.393
75681SOL    HW228941   7.459   9.197   4.437
75682SOL     OW28942   7.312  10.922   7.864
75682SOL    HW128943   7.380  10.990   7.865
75682SOL    HW228944   7.320  10.880   7.950
75683SOL     OW28945   4.605   4.780  12.152
75683SOL    HW128946   4.509   4.774  12.155
75683SOL    HW228947   4.623   4.827  12.070
75684SOL     OW28948   7.643   1.317   4.393
75684SOL    HW128949   7.626   1.385   4.459
75684SOL    HW228950   7.705   1.358   4.332
75685SOL     OW28951  13.716   8.951   1.419
75685SOL    HW128952  13.703   8.925   1.328
75685SOL    HW228953  13.659   9.027   1.430
75686SOL     OW28954   9.841  13.622  13.220
75686SOL    HW128955   9.750  13.601  13.201
75686SOL    HW228956   9.863  13.691  13.157
75687SOL     OW28957   5.054  10.642   2.941
75687SOL    HW128958   5.117  10.713   2.924
75687SOL    HW228959   5.087  10.600   3.021
75688SOL     OW28960   8.437  10.350   0.551
75688SOL    HW128961   8.424  10.372   0.643
75688SOL    HW228962   8.414  10.257   0.545
75689SOL     OW28963  10.599   5.744   6.511
75689SOL    HW128964  10.541   5.729   6.585
75689SOL    HW228965  10.668   5.801   6.545
75690SOL     OW28966   9.818   4.199  11.186
75690SOL    HW128967   9.794   4.121  11.136
75690SOL    HW228968   9.812   4.172  11.278
75691SOL     OW28969   8.732  12.820   2.572
75691SOL    HW128970   8.685  12.805   2.489
75691SOL    HW228971   8.666  12.805   2.640
75692SOL     OW28972  12.298   5.594   0.177
75692SOL    HW128973  12.323   5.636   0.095
75692SOL    HW228974  12.313   5.500   0.163
75693SOL     OW28975   6.289   4.732   9.850
75693SOL    HW128976   6.239   4.651   9.858
75693SOL    HW228977   6.271   4.763   9.761
75694SOL     OW28978  14.636   2.194  11.090
75694SOL    HW128979  14.631   2.099  11.077
75694SOL    HW228980  14.580   2.231  11.022
75695SOL     OW28981  11.736  13.557   8.428
75695SOL    HW128982  11.653  13.581   8.468
75695SOL    HW228983  11.797  13.548   8.502
75696SOL     OW28984   6.291   6.192   1.702
75696SOL    HW128985   6.230   6.215   1.773
75696SOL    HW228986   6.361   6.145   1.746
75697SOL     OW28987   6.311   8.383  14.602
75697SOL    HW128988   6.382   8.413  14.544
75697SOL    HW228989   6.304   8.452  14.668
75698SOL     OW28990   8.301   8.569   3.444
75698SOL    HW128991   8.226   8.534   3.492
75698SOL    HW228992   8.361   8.599   3.512
75699SOL     OW28993   3.521   2.003  13.352
75699SOL    HW128994   3.547   2.075  13.409
75699SOL    HW228995   3.554   2.028  13.265
75700SOL     OW28996   5.744   2.404   5.394
75700SOL    HW128997   5.682   2.335   5.369
75700SOL    HW228998   5.758   2.391   5.488
75701SOL     OW28999   7.758   9.102  11.883
75701SOL    HW129000   7.701   9.178  11.896
75701SOL    HW229001   7.811   9.098  11.962
75702SOL     OW29002   6.618  12.113   3.744
75702SOL    HW129003   6.579  12.101   3.830
75702SOL    HW229004   6.683  12.043   3.737
75703SOL     OW29005   4.750   9.875   9.408
75703SOL    HW129006   4.687   9.805   9.391
75703SOL    HW229007   4.715   9.921   9.484
75704SOL     OW29008  11.186   8.219   1.807
75704SOL    HW129009  11.241   8.149   1.842
75704SOL    HW229010  11.241   8.262   1.741
75705SOL     OW29011  10.851   6.732   9.275
75705SOL    HW129012  10.916   6.766   9.337
75705SOL    HW229013  10.872   6.639   9.266
75706SOL     OW29014   5.462  11.292   7.528
75706SOL    HW129015   5.441  11.366   7.471
75706SOL    HW229016   5.407  11.221   7.496
75707SOL     OW29017   4.932   0.815   2.358
75707SOL    HW129018   4.937   0.909   2.372
75707SOL    HW229019   5.019   0.791   2.326
75708SOL     OW29020   3.030  12.443  13.067
75708SOL    HW129021   3.110  12.404  13.100
75708SOL    HW229022   2.996  12.380  13.003
75709SOL     OW29023  14.709  13.459   9.269
75709SOL    HW129024  14.731  13.551   9.253
75709SOL    HW229025  14.789  13.421   9.305
75710SOL     OW29026  11.432  14.511  11.394
75710SOL    HW129027  11.406  14.492  11.484
75710SOL    HW229028  11.476  14.596  11.400
75711SOL     OW29029   1.458   4.600   1.769
75711SOL    HW129030   1.527   4.567   1.711
75711SOL    HW229031   1.420   4.520   1.807
75712SOL     OW29032   3.694   3.487  11.561
75712SOL    HW129033   3.745   3.418  11.517
75712SOL    HW229034   3.642   3.525  11.491
75713SOL     OW29035   5.743   9.590  12.386
75713SOL    HW129036   5.713   9.556  12.302
75713SOL    HW229037   5.736   9.516  12.446
75714SOL     OW29038  10.268   6.499   7.007
75714SOL    HW129039  10.330   6.517   6.937
75714SOL    HW229040  10.264   6.404   7.013
75715SOL     OW29041   9.317   2.058   6.931
75715SOL    HW129042   9.391   2.045   6.991
75715SOL    HW229043   9.319   2.151   6.910
75716SOL     OW29044   9.564   6.582  11.770
75716SOL    HW129045   9.506   6.617  11.837
75716SOL    HW229046   9.611   6.511  11.814
75717SOL     OW29047   7.351   0.108  14.061
75717SOL    HW129048   7.441   0.109  14.092
75717SOL    HW229049   7.318   0.196  14.079
75718SOL     OW29050   7.535   1.247  14.423
75718SOL    HW129051   7.527   1.296  14.341
75718SOL    HW229052   7.460   1.187  14.422
75719SOL     OW29053   3.391  11.523   4.195
75719SOL    HW129054   3.466  11.482   4.152
75719SOL    HW229055   3.394  11.614   4.166
75720SOL     OW29056  13.457   4.515   3.941
75720SOL    HW129057  13.533   4.459   3.930
75720SOL    HW229058  13.458   4.539   4.034
75721SOL     OW29059   3.218   3.692   9.709
75721SOL    HW129060   3.281   3.653   9.648
75721SOL    HW229061   3.137   3.642   9.695
75722SOL     OW29062   9.248  12.926   8.999
75722SOL    HW129063   9.223  13.017   8.982
75722SOL    HW229064   9.324  12.912   8.943
75723SOL     OW29065   1.181   4.937   4.390
75723SOL    HW129066   1.111   4.974   4.336
75723SOL    HW229067   1.148   4.943   4.480
75724SOL     OW29068   6.210   3.481   8.103
75724SOL    HW129069   6.265   3.556   8.080
75724SOL    HW229070   6.123   3.518   8.117
75725SOL     OW29071  11.119   7.927   3.023
75725SOL    HW129072  11.195   7.880   3.058
75725SOL    HW229073  11.058   7.857   2.996
75726SOL     OW29074   9.765   9.762   6.837
75726SOL    HW129075   9.730   9.698   6.776
75726SOL    HW229076   9.800   9.710   6.909
75727SOL     OW29077   6.888   9.128  13.715
75727SOL    HW129078   6.913   9.098  13.628
75727SOL    HW229079   6.941   9.207  13.729
75728SOL     OW29080   3.099   3.182  12.092
75728SOL    HW129081   3.058   3.106  12.050
75728SOL    HW229082   3.068   3.257  12.041
75729SOL     OW29083   1.456   7.537   3.444
75729SOL    HW129084   1.494   7.455   3.413
75729SOL    HW229085   1.463   7.533   3.539
75730SOL     OW29086   4.016   5.129   0.321
75730SOL    HW129087   4.107   5.146   0.342
75730SOL    HW229088   3.971   5.212   0.341
75731SOL     OW29089   6.229   8.452   0.466
75731SOL    HW129090   6.162   8.384   0.464
75731SOL    HW229091   6.199   8.512   0.535
75732SOL     OW29092  14.193   4.609   4.155
75732SOL    HW129093  14.273   4.651   4.123
75732SOL    HW229094  14.164   4.554   4.082
75733SOL     OW29095  10.872   7.732   1.759
75733SOL    HW129096  10.921   7.815   1.758
75733SOL    HW229097  10.805   7.745   1.825
75734SOL     OW29098   8.636   6.461  14.184
75734SOL    HW129099   8.644   6.415  14.100
75734SOL    HW229100   8.559   6.517  14.174
75735SOL     OW29101   7.940   9.711  11.805
75735SOL    HW129102   7.951   9.742  11.715
75735SOL    HW229103   7.893   9.628  11.796
75736SOL     OW29104   1.500   5.595  14.393
75736SOL    HW129105   1.594   5.616  14.389
75736SOL    HW229106   1.490   5.519  14.336
75737SOL     OW29107   3.575  13.354  13.756
75737SOL    HW129108   3.664  13.356  13.790
75737SOL    HW229109   3.521  13.383  13.829
75738SOL     OW29110   9.141  10.110   9.102
75738SOL    HW129111   9.162  10.022   9.133
75738SOL    HW229112   9.151  10.166   9.179
75739SOL     OW29113   1.658   1.670   9.028
75739SOL    HW129114   1.620   1.597   8.980
75739SOL    HW229115   1.583   1.721   9.059
75740SOL     OW29116  14.696   8.910   3.936
75740SOL    HW129117  14.636   8.928   4.008
75740SOL    HW229118  14.670   8.970   3.867
75741SOL     OW29119  11.196   1.370   5.915
75741SOL    HW129120  11.140   1.428   5.967
75741SOL    HW229121  11.172   1.387   5.824
75742SOL     OW29122   9.946   4.911   8.421
75742SOL    HW129123   9.936   4.818   8.399
75742SOL    HW229124   9.887   4.924   8.496
75743SOL     OW29125   6.553   8.930   7.678
75743SOL    HW129126   6.551   8.836   7.659
75743SOL    HW229127   6.500   8.969   7.609
75744SOL     OW29128   7.417   4.161  14.374
75744SOL    HW129129   7.445   4.156  14.465
75744SOL    HW229130   7.337   4.214  14.377
75745SOL     OW29131   5.903   1.134  10.628
75745SOL    HW129132   5.894   1.229  10.616
75745SOL    HW229133   5.961   1.106  10.556
75746SOL     OW29134   8.133  11.904   9.714
75746SOL    HW129135   8.182  11.841   9.767
75746SOL    HW229136   8.135  11.985   9.765
75747SOL     OW29137   2.181   4.427   4.107
75747SOL    HW129138   2.250   4.382   4.156
75747SOL    HW229139   2.164   4.507   4.157
75748SOL     OW29140  13.688   7.291   6.551
75748SOL    HW129141  13.734   7.214   6.520
75748SOL    HW229142  13.723   7.363   6.499
75749SOL     OW29143  14.800   2.077   6.229
75749SOL    HW129144  14.784   2.089   6.322
75749SOL    HW229145  14.866   2.007   6.224
75750SOL     OW29146   3.069   6.098  14.478
75750SOL    HW129147   3.105   6.066  14.561
75750SOL    HW229148   3.101   6.188  14.472
75751SOL     OW29149  14.671  10.160  12.652
75751SOL    HW129150  14.653  10.121  12.566
75751SOL    HW229151  14.687  10.085  12.709
75752SOL     OW29152   4.962   6.591   5.257
75752SOL    HW129153   4.998   6.553   5.338
75752SOL    HW229154   5.006   6.544   5.187
75753SOL     OW29155  11.667   6.496   1.346
75753SOL    HW129156  11.574   6.473   1.354
75753SOL    HW229157  11.667   6.585   1.310
75754SOL     OW29158   0.374   8.304   6.530
75754SOL    HW129159   0.412   8.281   6.445
75754SOL    HW229160   0.327   8.386   6.514
75755SOL     OW29161   7.796   1.389   7.869
75755SOL    HW129162   7.817   1.481   7.854
75755SOL    HW229163   7.834   1.343   7.794
75756SOL     OW29164  13.739  10.065   4.924
75756SOL    HW129165  13.706  10.123   4.993
75756SOL    HW229166  13.816  10.023   4.962
75757SOL     OW29167  14.204   0.442   0.174
75757SOL    HW129168  14.167   0.519   0.215
75757SOL    HW229169  14.279   0.419   0.228
75758SOL     OW29170   9.849  10.041   5.062
75758SOL    HW129171   9.839  10.080   4.975
75758SOL    HW229172   9.883  10.112   5.117
75759SOL     OW29173   0.382   2.457   4.162
75759SOL    HW129174   0.347   2.436   4.248
75759SOL    HW229175   0.409   2.373   4.125
75760SOL     OW29176  11.423  13.127  14.735
75760SOL    HW129177  11.383  13.103  14.818
75760SOL    HW229178  11.370  13.082  14.669
75761SOL     OW29179   2.047   9.640  11.218
75761SOL    HW129180   2.039   9.679  11.131
75761SOL    HW229181   1.976   9.679  11.269
75762SOL     OW29182   4.760   9.958   1.205
75762SOL    HW129183   4.747   9.901   1.280
75762SOL    HW229184   4.672   9.988   1.182
75763SOL     OW29185  12.041   5.416   6.032
75763SOL    HW129186  11.977   5.452   6.094
75763SOL    HW229187  12.047   5.482   5.963
75764SOL     OW29188   5.618  11.498   7.966
75764SOL    HW129189   5.548  11.432   7.970
75764SOL    HW229190   5.652  11.502   8.055
75765SOL     OW29191   5.744   4.149   6.092
75765SOL    HW129192   5.668   4.141   6.034
75765SOL    HW229193   5.707   4.168   6.178
75766SOL     OW29194  12.147   1.949  10.348
75766SOL    HW129195  12.053   1.936  10.359
75766SOL    HW229196  12.186   1.862  10.362
75767SOL     OW29197  14.846   3.897   3.393
75767SOL    HW129198  14.808   3.809   3.397
75767SOL    HW229199  14.772   3.954   3.372
75768SOL     OW29200   6.845   2.947   7.176
75768SOL    HW129201   6.765   2.983   7.216
75768SOL    HW229202   6.915   3.004   7.206
75769SOL     OW29203  11.547   9.767  10.008
75769SOL    HW129204  11.579   9.849   9.970
75769SOL    HW229205  11.596   9.699   9.961
75770SOL     OW29206  14.129  11.101   3.771
75770SOL    HW129207  14.210  11.053   3.789
75770SOL    HW229208  14.134  11.124   3.679
75771SOL     OW29209   6.973  12.921   3.073
75771SOL    HW129210   7.034  12.864   3.120
75771SOL    HW229211   7.029  12.984   3.027
75772SOL     OW29212   2.077   1.236   3.454
75772SOL    HW129213   1.986   1.263   3.468
75772SOL    HW229214   2.107   1.290   3.382
75773SOL     OW29215  10.750  11.126  11.842
75773SOL    HW129216  10.760  11.069  11.918
75773SOL    HW229217  10.836  11.127  11.801
75774SOL     OW29218   4.855   7.774  12.781
75774SOL    HW129219   4.858   7.741  12.691
75774SOL    HW229220   4.944   7.802  12.800
75775SOL     OW29221  12.541   8.779  10.313
75775SOL    HW129222  12.499   8.694  10.299
75775SOL    HW229223  12.468   8.841  10.323
75776SOL     OW29224   0.769   3.454   3.593
75776SOL    HW129225   0.713   3.378   3.580
75776SOL    HW229226   0.786   3.487   3.504
75777SOL     OW29227   8.474   1.346  14.166
75777SOL    HW129228   8.456   1.412  14.232
75777SOL    HW229229   8.395   1.293  14.161
75778SOL     OW29230   3.126   8.020   0.339
75778SOL    HW129231   3.103   8.043   0.249
75778SOL    HW229232   3.050   8.044   0.391
75779SOL     OW29233  12.714   1.247  13.007
75779SOL    HW129234  12.668   1.320  12.965
75779SOL    HW229235  12.774   1.215  12.939
75780SOL     OW29236  11.578   2.951  13.212
75780SOL    HW129237  11.488   2.961  13.243
75780SOL    HW229238  11.572   2.957  13.117
75781SOL     OW29239   4.371   5.099  14.224
75781SOL    HW129240   4.458   5.124  14.194
75781SOL    HW229241   4.384   5.013  14.265
75782SOL     OW29242   1.999   0.186  12.312
75782SOL    HW129243   2.064   0.156  12.248
75782SOL    HW229244   1.930   0.120  12.309
75783SOL     OW29245  10.157   6.456   8.710
75783SOL    HW129246  10.125   6.526   8.653
75783SOL    HW229247  10.078   6.415   8.745
75784SOL     OW29248   8.549  11.529   8.645
75784SOL    HW129249   8.486  11.468   8.607
75784SOL    HW229250   8.550  11.603   8.585
75785SOL     OW29251   4.771  12.888   0.028
75785SOL    HW129252   4.857  12.901  14.859
75785SOL    HW229253   4.775  12.936   0.111
75786SOL     OW29254   1.011  14.428  10.042
75786SOL    HW129255   1.012  14.523  10.038
75786SOL    HW229256   1.036  14.408  10.133
75787SOL     OW29257  11.359   9.055   0.013
75787SOL    HW129258  11.265   9.054   0.031
75787SOL    HW229259  11.372   8.986  14.820
75788SOL     OW29260  10.843   1.226  12.668
75788SOL    HW129261  10.861   1.218  12.575
75788SOL    HW229262  10.882   1.310  12.693
75789SOL     OW29263   2.311   7.188   4.417
75789SOL    HW129264   2.269   7.122   4.472
75789SOL    HW229265   2.266   7.183   4.333
75790SOL     OW29266   8.993   1.590  12.180
75790SOL    HW129267   9.042   1.671  12.173
75790SOL    HW229268   9.052   1.529  12.223
75791SOL     OW29269  10.717   9.670   7.069
75791SOL    HW129270  10.667   9.607   7.122
75791SOL    HW229271  10.650   9.716   7.018
75792SOL     OW29272   0.650   3.932  14.670
75792SOL    HW129273   0.571   3.937  14.725
75792SOL    HW229274   0.624   3.971  14.587
75793SOL     OW29275  12.643   2.636   9.628
75793SOL    HW129276  12.574   2.695   9.597
75793SOL    HW229277  12.724   2.685   9.617
75794SOL     OW29278   6.015  13.147   7.590
75794SOL    HW129279   6.090  13.175   7.537
75794SOL    HW229280   6.047  13.071   7.639
75795SOL     OW29281   8.605  10.743   5.434
75795SOL    HW129282   8.605  10.655   5.396
75795SOL    HW229283   8.638  10.730   5.523
75796SOL     OW29284  12.459   5.155  10.182
75796SOL    HW129285  12.440   5.072  10.226
75796SOL    HW229286  12.451   5.221  10.251
75797SOL     OW29287  12.711   2.681   2.592
75797SOL    HW129288  12.794   2.671   2.546
75797SOL    HW229289  12.690   2.592   2.623
75798SOL     OW29290  12.900   5.423  14.615
75798SOL    HW129291  12.865   5.346  14.660
75798SOL    HW229292  12.995   5.414  14.622
75799SOL     OW29293   1.227  13.228   0.959
75799SOL    HW129294   1.267  13.305   0.918
75799SOL    HW229295   1.184  13.263   1.037
75800SOL     OW29296  12.881   4.834   4.086
75800SOL    HW129297  12.870   4.930   4.086
75800SOL    HW229298  12.839   4.805   4.167
75801SOL     OW29299   0.809   5.916   2.568
75801SOL    HW129300   0.798   6.011   2.578
75801SOL    HW229301   0.896   5.906   2.530
75802SOL     OW29302  12.299  10.429   4.861
75802SOL    HW129303  12.248  10.348   4.864
75802SOL    HW229304  12.388  10.402   4.886
75803SOL     OW29305   2.894   2.019  13.638
75803SOL    HW129306   2.900   2.048  13.547
75803SOL    HW229307   2.936   1.933  13.638
75804SOL     OW29308   0.764   4.564   7.629
75804SOL    HW129309   0.796   4.648   7.663
75804SOL    HW229310   0.761   4.507   7.705
75805SOL     OW29311  10.957  13.280   5.481
75805SOL    HW129312  11.047  13.261   5.506
75805SOL    HW229313  10.959  13.371   5.451
75806SOL     OW29314  11.286   7.711  10.919
75806SOL    HW129315  11.374   7.717  10.956
75806SOL    HW229316  11.240   7.651  10.977
75807SOL     OW29317  11.608  12.513  12.711
75807SOL    HW129318  11.566  12.457  12.777
75807SOL    HW229319  11.696  12.527  12.745
75808SOL     OW29320   0.483   3.723   9.540
75808SOL    HW129321   0.548   3.779   9.584
75808SOL    HW229322   0.416   3.708   9.607
75809SOL     OW29323   5.374   8.767  11.540
75809SOL    HW129324   5.319   8.766  11.462
75809SOL    HW229325   5.460   8.796  11.509
75810SOL     OW29326   6.613   5.967  14.159
75810SOL    HW129327   6.596   5.923  14.243
75810SOL    HW229328   6.688   6.023  14.175
75811SOL     OW29329   1.406   3.140   4.272
75811SOL    HW129330   1.459   3.201   4.324
75811SOL    HW229331   1.388   3.067   4.331
75812SOL     OW29332   5.110  13.094   4.630
75812SOL    HW129333   5.043  13.068   4.692
75812SOL    HW229334   5.182  13.125   4.685
75813SOL     OW29335   3.735  10.894  12.120
75813SOL    HW129336   3.830  10.880  12.112
75813SOL    HW229337   3.708  10.924  12.034
75814SOL     OW29338   8.195   6.888  12.522
75814SOL    HW129339   8.209   6.976  12.488
75814SOL    HW229340   8.178   6.900  12.615
75815SOL     OW29341   8.775   5.881  13.324
75815SOL    HW129342   8.866   5.871  13.297
75815SOL    HW229343   8.737   5.794  13.313
75816SOL     OW29344   7.490   5.365   3.681
75816SOL    HW129345   7.563   5.409   3.724
75816SOL    HW229346   7.498   5.389   3.589
75817SOL     OW29347  10.382   2.462   4.725
75817SOL    HW129348  10.344   2.528   4.784
75817SOL    HW229349  10.457   2.428   4.773
75818SOL     OW29350   4.267   9.107  14.339
75818SOL    HW129351   4.226   9.179  14.387
75818SOL    HW229352   4.361   9.120  14.353
75819SOL     OW29353   5.183  14.521   8.933
75819SOL    HW129354   5.177  14.532   9.028
75819SOL    HW229355   5.170  14.427   8.919
75820SOL     OW29356  11.219   6.960   9.075
75820SOL    HW129357  11.171   6.995   9.150
75820SOL    HW229358  11.281   6.898   9.113
75821SOL     OW29359   1.512   1.536  12.119
75821SOL    HW129360   1.526   1.572  12.207
75821SOL    HW229361   1.417   1.522  12.115
75822SOL     OW29362   3.288  12.373  13.102
75822SOL    HW129363   3.335  12.296  13.135
75822SOL    HW229364   3.293  12.365  13.007
75823SOL     OW29365  11.113   3.044   1.136
75823SOL    HW129366  11.181   2.984   1.165
75823SOL    HW229367  11.104   3.026   1.042
75824SOL     OW29368   3.299  13.104  10.706
75824SOL    HW129369   3.222  13.160  10.695
75824SOL    HW229370   3.267  13.016  10.688
75825SOL     OW29371  14.520   3.724   2.847
75825SOL    HW129372  14.590   3.783   2.819
75825SOL    HW229373  14.515   3.736   2.942
75826SOL     OW29374   2.518   8.513  12.960
75826SOL    HW129375   2.430   8.551  12.970
75826SOL    HW229376   2.576   8.589  12.950
75827SOL     OW29377   7.092  11.613  11.487
75827SOL    HW129378   7.006  11.572  11.474
75827SOL    HW229379   7.073  11.706  11.497
75828SOL     OW29380   5.227   3.853  10.786
75828SOL    HW129381   5.176   3.907  10.726
75828SOL    HW229382   5.167   3.833  10.858
75829SOL     OW29383   0.221   4.636   2.216
75829SOL    HW129384   0.232   4.731   2.205
75829SOL    HW229385   0.292   4.598   2.164
75830SOL     OW29386   0.274   5.388   2.383
75830SOL    HW129387   0.357   5.395   2.335
75830SOL    HW229388   0.215   5.344   2.321
75831SOL     OW29389   3.124  13.438   1.583
75831SOL    HW129390   3.191  13.457   1.517
75831SOL    HW229391   3.172  13.428   1.665
75832SOL     OW29392   3.841   9.098   2.334
75832SOL    HW129393   3.779   9.025   2.334
75832SOL    HW229394   3.800   9.165   2.389
75833SOL     OW29395   1.198  11.657   2.709
75833SOL    HW129396   1.254  11.599   2.759
75833SOL    HW229397   1.231  11.651   2.619
75834SOL     OW29398   2.687   4.031  13.445
75834SOL    HW129399   2.772   4.017  13.487
75834SOL    HW229400   2.661   4.119  13.474
75835SOL     OW29401  12.880   1.480   4.033
75835SOL    HW129402  12.842   1.452   4.116
75835SOL    HW229403  12.964   1.520   4.057
75836SOL     OW29404   9.315  11.712   1.004
75836SOL    HW129405   9.384  11.692   0.940
75836SOL    HW229406   9.295  11.805   0.990
75837SOL     OW29407  10.399   4.431   8.612
75837SOL    HW129408  10.464   4.367   8.583
75837SOL    HW229409  10.436   4.469   8.691
75838SOL     OW29410   6.684   0.638   9.598
75838SOL    HW129411   6.709   0.703   9.664
75838SOL    HW229412   6.603   0.599   9.631
75839SOL     OW29413   9.237  12.923   9.417
75839SOL    HW129414   9.325  12.953   9.439
75839SOL    HW229415   9.180  12.971   9.477
75840SOL     OW29416  10.505   5.168   0.447
75840SOL    HW129417  10.591   5.129   0.430
75840SOL    HW229418  10.525   5.256   0.479
75841SOL     OW29419   5.179   5.625   2.292
75841SOL    HW129420   5.169   5.697   2.354
75841SOL    HW229421   5.255   5.650   2.239
75842SOL     OW29422  12.255  14.818  11.735
75842SOL    HW129423  12.263   0.025  11.682
75842SOL    HW229424  12.275  14.746  11.676
75843SOL     OW29425   2.004   3.976   7.341
75843SOL    HW129426   1.913   3.991   7.313
75843SOL    HW229427   2.013   3.880   7.343
75844SOL     OW29428   8.850  13.239   0.138
75844SOL    HW129429   8.777  13.300   0.127
75844SOL    HW229430   8.831  13.195   0.221
75845SOL     OW29431   7.517   2.755   5.872
75845SOL    HW129432   7.514   2.837   5.822
75845SOL    HW229433   7.444   2.704   5.837
75846SOL     OW29434  12.315  11.182   2.483
75846SOL    HW129435  12.326  11.094   2.519
75846SOL    HW229436  12.285  11.235   2.557
75847SOL     OW29437  10.540  11.499  14.559
75847SOL    HW129438  10.574  11.587  14.543
75847SOL    HW229439  10.449  11.512  14.584
75848SOL     OW29440  14.383   2.386   9.387
75848SOL    HW129441  14.369   2.329   9.311
75848SOL    HW229442  14.379   2.475   9.352
75849SOL     OW29443   5.604   6.226  14.180
75849SOL    HW129444   5.694   6.231  14.211
75849SOL    HW229445   5.553   6.210  14.259
75850SOL     OW29446  14.815  12.112   6.301
75850SOL    HW129447  14.746  12.148   6.357
75850SOL    HW229448  14.822  12.020   6.328
75851SOL     OW29449  14.805  10.484   5.011
75851SOL    HW129450  14.846  10.430   5.079
75851SOL    HW229451  14.841  10.450   4.929
75852SOL     OW29452  14.494  14.596   3.336
75852SOL    HW129453  14.436  14.657   3.382
75852SOL    HW229454  14.447  14.576   3.255
75853SOL     OW29455  10.036  11.858   9.449
75853SOL    HW129456  10.057  11.791   9.384
75853SOL    HW229457  10.074  11.938   9.414
75854SOL     OW29458   4.555   6.751   5.212
75854SOL    HW129459   4.548   6.799   5.129
75854SOL    HW229460   4.494   6.678   5.203
75855SOL     OW29461   3.233   9.664  13.617
75855SOL    HW129462   3.163   9.650  13.680
75855SOL    HW229463   3.188   9.671  13.533
75856SOL     OW29464   9.351   5.880  12.606
75856SOL    HW129465   9.366   5.787  12.588
75856SOL    HW229466   9.412   5.926  12.547
75857SOL     OW29467   8.344  12.212   7.813
75857SOL    HW129468   8.258  12.253   7.803
75857SOL    HW229469   8.328  12.119   7.799
75858SOL     OW29470  12.080   2.060  11.709
75858SOL    HW129471  12.145   2.109  11.660
75858SOL    HW229472  12.069   1.979  11.660
75859SOL     OW29473  10.437  10.916   9.649
75859SOL    HW129474  10.467  10.919   9.739
75859SOL    HW229475  10.350  10.956   9.650
75860SOL     OW29476   9.486  12.202   5.225
75860SOL    HW129477   9.488  12.294   5.253
75860SOL    HW229478   9.393  12.182   5.213
75861SOL     OW29479   3.588   4.524   9.979
75861SOL    HW129480   3.552   4.600   9.933
75861SOL    HW229481   3.653   4.489   9.919
75862SOL     OW29482   9.199   5.409  11.872
75862SOL    HW129483   9.195   5.342  11.804
75862SOL    HW229484   9.255   5.478  11.836
75863SOL     OW29485   2.149   4.947  11.005
75863SOL    HW129486   2.066   4.995  11.004
75863SOL    HW229487   2.156   4.913  11.094
75864SOL     OW29488   4.920   8.474   0.951
75864SOL    HW129489   4.876   8.541   1.005
75864SOL    HW229490   4.863   8.464   0.875
75865SOL     OW29491   9.961  14.731   1.639
75865SOL    HW129492  10.055  14.725   1.625
75865SOL    HW229493   9.923  14.679   1.568
75866SOL     OW29494   2.501  11.293   4.478
75866SOL    HW129495   2.429  11.238   4.447
75866SOL    HW229496   2.462  11.344   4.549
75867SOL     OW29497  10.064   0.903   5.517
75867SOL    HW129498  10.061   0.807   5.522
75867SOL    HW229499  10.052   0.922   5.423
75868SOL     OW29500   4.970   1.945   4.132
75868SOL    HW129501   5.056   1.906   4.115
75868SOL    HW229502   4.920   1.876   4.176
75869SOL     OW29503  14.610   9.149  11.549
75869SOL    HW129504  14.552   9.194  11.488
75869SOL    HW229505  14.692   9.140  11.500
75870SOL     OW29506   2.282   3.521  13.391
75870SOL    HW129507   2.327   3.444  13.356
75870SOL    HW229508   2.235   3.557  13.316
75871SOL     OW29509   0.913   9.766  11.062
75871SOL    HW129510   0.883   9.765  10.971
75871SOL    HW229511   0.968   9.688  11.069
75872SOL     OW29512   3.615  12.566   9.067
75872SOL    HW129513   3.603  12.548   9.160
75872SOL    HW229514   3.663  12.648   9.064
75873SOL     OW29515   7.585   7.009   4.529
75873SOL    HW129516   7.569   6.919   4.501
75873SOL    HW229517   7.497   7.046   4.540
75874SOL     OW29518   3.626  13.456   8.813
75874SOL    HW129519   3.549  13.410   8.779
75874SOL    HW229520   3.700  13.404   8.782
75875SOL     OW29521  13.052  12.147   2.871
75875SOL    HW129522  13.061  12.207   2.797
75875SOL    HW229523  13.020  12.202   2.943
75876SOL     OW29524  12.412   5.781   8.283
75876SOL    HW129525  12.336   5.830   8.252
75876SOL    HW229526  12.480   5.799   8.217
75877SOL     OW29527   2.827  12.792   5.454
75877SOL    HW129528   2.744  12.789   5.502
75877SOL    HW229529   2.811  12.855   5.384
75878SOL     OW29530   3.991  13.492   1.531
75878SOL    HW129531   4.055  13.461   1.467
75878SOL    HW229532   4.039  13.497   1.614
75879SOL     OW29533   3.968  11.689  12.035
75879SOL    HW129534   3.981  11.630  11.961
75879SOL    HW229535   4.055  11.702  12.071
75880SOL     OW29536  10.117   7.526   9.003
75880SOL    HW129537  10.093   7.471   8.929
75880SOL    HW229538  10.170   7.470   9.059
75881SOL     OW29539   1.503   0.327   2.053
75881SOL    HW129540   1.409   0.321   2.032
75881SOL    HW229541   1.547   0.289   1.977
75882SOL     OW29542   6.226   9.395   3.896
75882SOL    HW129543   6.221   9.420   3.803
75882SOL    HW229544   6.285   9.320   3.897
75883SOL     OW29545   5.794  12.245  14.340
75883SOL    HW129546   5.810  12.226  14.247
75883SOL    HW229547   5.793  12.341  14.344
75884SOL     OW29548   0.830   7.417   3.767
75884SOL    HW129549   0.904   7.455   3.720
75884SOL    HW229550   0.760   7.412   3.702
75885SOL     OW29551  11.970   0.532   6.629
75885SOL    HW129552  12.022   0.541   6.709
75885SOL    HW229553  12.021   0.472   6.575
75886SOL     OW29554   0.672   0.102  14.464
75886SOL    HW129555   0.666   0.150  14.381
75886SOL    HW229556   0.727   0.157  14.519
75887SOL     OW29557  11.937   2.677   0.264
75887SOL    HW129558  11.926   2.589   0.300
75887SOL    HW229559  12.025   2.676   0.226
75888SOL     OW29560   4.944   8.316   0.045
75888SOL    HW129561   4.949   8.357  14.831
75888SOL    HW229562   4.993   8.233   0.036
75889SOL     OW29563  10.963  11.676   1.616
75889SOL    HW129564  11.052  11.705   1.596
75889SOL    HW229565  10.907  11.733   1.562
75890SOL     OW29566   9.270  11.413  13.813
75890SOL    HW129567   9.289  11.459  13.731
75890SOL    HW229568   9.247  11.482  13.875
75891SOL     OW29569   6.033   7.361   0.655
75891SOL    HW129570   6.093   7.354   0.729
75891SOL    HW229571   6.064   7.297   0.592
75892SOL     OW29572   7.804   0.676   9.296
75892SOL    HW129573   7.825   0.769   9.287
75892SOL    HW229574   7.882   0.631   9.265
75893SOL     OW29575   4.092   7.216   7.093
75893SOL    HW129576   4.013   7.267   7.079
75893SOL    HW229577   4.145   7.268   7.154
75894SOL     OW29578   9.213   0.013   6.795
75894SOL    HW129579   9.218  14.802   6.747
75894SOL    HW229580   9.287   0.010   6.856
75895SOL     OW29581   6.006  11.754   6.360
75895SOL    HW129582   6.039  11.667   6.338
75895SOL    HW229583   6.029  11.766   6.453
75896SOL     OW29584  13.761   6.375  12.049
75896SOL    HW129585  13.739   6.449  12.105
75896SOL    HW229586  13.852   6.355  12.070
75897SOL     OW29587  12.371  14.819   7.972
75897SOL    HW129588  12.418  14.857   7.898
75897SOL    HW229589  12.288  14.866   7.975
75898SOL     OW29590  13.049  11.397  13.803
75898SOL    HW129591  13.120  11.388  13.867
75898SOL    HW229592  13.030  11.307  13.777
75899SOL     OW29593   8.110   6.306  12.128
75899SOL    HW129594   8.092   6.359  12.050
75899SOL    HW229595   8.152   6.367  12.189
75900SOL     OW29596  11.319   1.082  10.512
75900SOL    HW129597  11.324   1.177  10.502
75900SOL    HW229598  11.346   1.047  10.427
75901SOL     OW29599   1.427   9.124   5.350
75901SOL    HW129600   1.461   9.118   5.439
75901SOL    HW229601   1.505   9.140   5.296
75902SOL     OW29602   8.799  13.100   3.047
75902SOL    HW129603   8.836  13.188   3.047
75902SOL    HW229604   8.838  13.057   2.971
75903SOL     OW29605   1.094   3.611   5.884
75903SOL    HW129606   1.026   3.556   5.845
75903SOL    HW229607   1.133   3.657   5.810
75904SOL     OW29608   2.434  14.801   5.224
75904SOL    HW129609   2.420  14.816   5.131
75904SOL    HW229610   2.348  14.817   5.264
75905SOL     OW29611   2.037   6.795  11.723
75905SOL    HW129612   1.976   6.854  11.677
75905SOL    HW229613   2.119   6.802  11.673
75906SOL     OW29614   9.627   1.613   4.478
75906SOL    HW129615   9.680   1.693   4.480
75906SOL    HW229616   9.539   1.643   4.454
75907SOL     OW29617   2.829  12.650   7.031
75907SOL    HW129618   2.814  12.734   7.074
75907SOL    HW229619   2.910  12.617   7.070
75908SOL     OW29620   6.167   1.760   6.150
75908SOL    HW129621   6.114   1.689   6.113
75908SOL    HW229622   6.124   1.840   6.119
75909SOL     OW29623   2.954   0.316   3.972
75909SOL    HW129624   2.947   0.315   3.877
75909SOL    HW229625   2.950   0.223   3.998
75910SOL     OW29626   0.035   5.535  14.305
75910SOL    HW129627  14.841   5.512  14.240
75910SOL    HW229628   0.090   5.601  14.263
75911SOL     OW29629  10.487  12.180  11.353
75911SOL    HW129630  10.445  12.266  11.351
75911SOL    HW229631  10.442  12.130  11.284
75912SOL     OW29632   2.320   0.556   0.820
75912SOL    HW129633   2.273   0.479   0.788
75912SOL    HW229634   2.259   0.599   0.879
75913SOL     OW29635   1.813   2.681  10.516
75913SOL    HW129636   1.862   2.729  10.583
75913SOL    HW229637   1.817   2.589  10.544
75914SOL     OW29638  11.726   4.258  12.836
75914SOL    HW129639  11.794   4.198  12.868
75914SOL    HW229640  11.736   4.336  12.891
75915SOL     OW29641  11.888   0.319   2.980
75915SOL    HW129642  11.809   0.270   2.955
75915SOL    HW229643  11.929   0.266   3.048
75916SOL     OW29644   4.820   7.129  12.246
75916SOL    HW129645   4.824   7.221  12.275
75916SOL    HW229646   4.747   7.092  12.294
75917SOL     OW29647   5.310  14.235  12.224
75917SOL    HW129648   5.316  14.330  12.218
75917SOL    HW229649   5.217  14.216  12.218
75918SOL     OW29650   4.389   7.711   0.994
75918SOL    HW129651   4.415   7.626   1.030
75918SOL    HW229652   4.296   7.700   0.973
75919SOL     OW29653   3.950   3.609  14.278
75919SOL    HW129654   4.002   3.536  14.245
75919SOL    HW229655   3.919   3.653  14.198
75920SOL     OW29656  12.480  13.557   3.734
75920SOL    HW129657  12.518  13.629   3.784
75920SOL    HW229658  12.459  13.595   3.649
75921SOL     OW29659  12.512   4.327   6.515
75921SOL    HW129660  12.483   4.246   6.557
75921SOL    HW229661  12.593   4.303   6.470
75922SOL     OW29662   1.646   9.984   8.352
75922SOL    HW129663   1.726   9.945   8.316
75922SOL    HW229664   1.662   9.989   8.446
75923SOL     OW29665  11.037  12.087  10.879
75923SOL    HW129666  11.030  12.083  10.784
75923SOL    HW229667  10.949  12.108  10.909
75924SOL     OW29668  11.876   6.498   9.588
75924SOL    HW129669  11.958   6.547   9.593
75924SOL    HW229670  11.893   6.427   9.527
75925SOL     OW29671   6.190   4.245   6.642
75925SOL    HW129672   6.223   4.201   6.564
75925SOL    HW229673   6.248   4.320   6.654
75926SOL     OW29674  11.470   7.216   3.899
75926SOL    HW129675  11.529   7.272   3.949
75926SOL    HW229676  11.392   7.270   3.886
75927SOL     OW29677  10.000  11.363  12.508
75927SOL    HW129678  10.073  11.424  12.506
75927SOL    HW229679   9.939  11.397  12.442
75928SOL     OW29680  14.224  12.074   8.087
75928SOL    HW129681  14.149  12.017   8.074
75928SOL    HW229682  14.296  12.015   8.109
75929SOL     OW29683   7.452  14.267   4.319
75929SOL    HW129684   7.377  14.212   4.298
75929SOL    HW229685   7.488  14.294   4.235
75930SOL     OW29686   3.129   8.776   6.524
75930SOL    HW129687   3.098   8.700   6.574
75930SOL    HW229688   3.139   8.845   6.590
75931SOL     OW29689   8.344   4.278   5.843
75931SOL    HW129690   8.272   4.304   5.901
75931SOL    HW229691   8.368   4.190   5.872
75932SOL     OW29692   8.193   1.164  10.495
75932SOL    HW129693   8.180   1.083  10.543
75932SOL    HW229694   8.128   1.225  10.530
75933SOL     OW29695   8.974   7.505   6.066
75933SOL    HW129696   8.970   7.597   6.040
75933SOL    HW229697   9.022   7.462   5.995
75934SOL     OW29698  11.831   9.185   8.041
75934SOL    HW129699  11.848   9.251   8.108
75934SOL    HW229700  11.743   9.153   8.061
75935SOL     OW29701   9.620  14.498   5.263
75935SOL    HW129702   9.604  14.493   5.357
75935SOL    HW229703   9.667  14.417   5.243
75936SOL     OW29704   4.300   1.591   2.454
75936SOL    HW129705   4.395   1.586   2.453
75936SOL    HW229706   4.272   1.504   2.483
75937SOL     OW29707   3.950  13.725   1.875
75937SOL    HW129708   3.912  13.748   1.790
75937SOL    HW229709   4.000  13.645   1.858
75938SOL     OW29710   4.086   6.051   9.667
75938SOL    HW129711   4.039   6.111   9.724
75938SOL    HW229712   4.081   6.092   9.580
75939SOL     OW29713   2.101   8.045   3.245
75939SOL    HW129714   2.106   7.977   3.313
75939SOL    HW229715   2.134   8.003   3.166
75940SOL     OW29716  11.406   4.689   8.906
75940SOL    HW129717  11.443   4.720   8.988
75940SOL    HW229718  11.420   4.594   8.908
75941SOL     OW29719   9.070  11.673   3.913
75941SOL    HW129720   9.067  11.626   3.997
75941SOL    HW229721   9.144  11.634   3.867
75942SOL     OW29722  14.216  12.599  13.188
75942SOL    HW129723  14.246  12.546  13.114
75942SOL    HW229724  14.128  12.627  13.163
75943SOL     OW29725   4.509  13.214  10.760
75943SOL    HW129726   4.465  13.298  10.746
75943SOL    HW229727   4.602  13.235  10.761
75944SOL     OW29728   7.618   8.305   5.620
75944SOL    HW129729   7.682   8.331   5.686
75944SOL    HW229730   7.658   8.332   5.537
75945SOL     OW29731  13.186   4.703   3.264
75945SOL    HW129732  13.263   4.669   3.218
75945SOL    HW229733  13.122   4.718   3.195
75946SOL     OW29734  10.793   2.430   2.673
75946SOL    HW129735  10.757   2.518   2.662
75946SOL    HW229736  10.724   2.372   2.643
75947SOL     OW29737  11.803  12.836  11.176
75947SOL    HW129738  11.762  12.916  11.209
75947SOL    HW229739  11.825  12.785  11.254
75948SOL     OW29740   0.390   1.435   6.101
75948SOL    HW129741   0.426   1.364   6.049
75948SOL    HW229742   0.305   1.403   6.133
75949SOL     OW29743   6.121   3.624  12.951
75949SOL    HW129744   6.104   3.706  12.905
75949SOL    HW229745   6.155   3.565  12.883
75950SOL     OW29746   9.277   0.975   1.449
75950SOL    HW129747   9.286   1.044   1.384
75950SOL    HW229748   9.323   1.007   1.526
75951SOL     OW29749  11.866  14.111  13.168
75951SOL    HW129750  11.957  14.112  13.199
75951SOL    HW229751  11.816  14.145  13.242
75952SOL     OW29752   9.754   8.488  12.417
75952SOL    HW129753   9.795   8.484  12.330
75952SOL    HW229754   9.814   8.441  12.474
75953SOL     OW29755   9.517   6.242  13.745
75953SOL    HW129756   9.467   6.306  13.795
75953SOL    HW229757   9.492   6.258  13.654
75954SOL     OW29758   7.853  12.914   5.301
75954SOL    HW129759   7.858  12.961   5.218
75954SOL    HW229760   7.944  12.894   5.323
75955SOL     OW29761   3.060  11.246  12.850
75955SOL    HW129762   3.084  11.278  12.763
75955SOL    HW229763   2.985  11.189  12.834
75956SOL     OW29764  14.509  10.669   5.569
75956SOL    HW129765  14.494  10.724   5.491
75956SOL    HW229766  14.514  10.580   5.534
75957SOL     OW29767  10.562   9.698  13.959
75957SOL    HW129768  10.596   9.785  13.939
75957SOL    HW229769  10.636   9.653  14.002
75958SOL     OW29770  14.494  11.500   2.862
75958SOL    HW129771  14.401  11.514   2.877
75958SOL    HW229772  14.526  11.584   2.829
75959SOL     OW29773  10.388   5.806   0.866
75959SOL    HW129774  10.346   5.732   0.821
75959SOL    HW229775  10.441   5.848   0.798
75960SOL     OW29776   8.876   6.356  11.578
75960SOL    HW129777   8.956   6.378  11.531
75960SOL    HW229778   8.906   6.305  11.653
75961SOL     OW29779   9.425   3.096   7.849
75961SOL    HW129780   9.438   3.006   7.879
75961SOL    HW229781   9.490   3.109   7.781
75962SOL     OW29782  14.053   8.635   3.825
75962SOL    HW129783  14.054   8.657   3.732
75962SOL    HW229784  13.973   8.674   3.858
75963SOL     OW29785  12.938   7.643   2.211
75963SOL    HW129786  12.907   7.730   2.185
75963SOL    HW229787  13.003   7.620   2.145
75964SOL     OW29788   8.211   8.275  13.974
75964SOL    HW129789   8.298   8.314  13.981
75964SOL    HW229790   8.226   8.183  13.957
75965SOL     OW29791   0.398   0.044   7.817
75965SOL    HW129792   0.378   0.114   7.756
75965SOL    HW229793   0.428   0.088   7.897
75966SOL     OW29794   8.176   1.439   2.996
75966SOL    HW129795   8.239   1.434   2.924
75966SOL    HW229796   8.103   1.384   2.968
75967SOL     OW29797   9.781  13.350   7.972
75967SOL    HW129798   9.698  13.304   7.985
75967SOL    HW229799   9.758  13.443   7.972
75968SOL     OW29800   7.404   5.377   0.395
75968SOL    HW129801   7.426   5.420   0.478
75968SOL    HW229802   7.463   5.416   0.331
75969SOL     OW29803  12.231   6.151   7.600
75969SOL    HW129804  12.262   6.146   7.691
75969SOL    HW229805  12.169   6.224   7.601
75970SOL     OW29806  13.120   5.562  10.640
75970SOL    HW129807  13.045   5.609  10.602
75970SOL    HW229808  13.109   5.472  10.609
75971SOL     OW29809  13.274  12.665  12.743
75971SOL    HW129810  13.273  12.680  12.649
75971SOL    HW229811  13.337  12.593  12.755
75972SOL     OW29812   5.352   5.668   1.746
75972SOL    HW129813   5.316   5.582   1.770
75972SOL    HW229814   5.400   5.652   1.665
75973SOL     OW29815   9.108   9.557  10.704
75973SOL    HW129816   9.111   9.509  10.787
75973SOL    HW229817   9.042   9.626  10.718
75974SOL     OW29818   6.422   8.475   4.504
75974SOL    HW129819   6.441   8.462   4.598
75974SOL    HW229820   6.459   8.398   4.462
75975SOL     OW29821   1.195   1.511   6.750
75975SOL    HW129822   1.260   1.546   6.811
75975SOL    HW229823   1.137   1.458   6.804
75976SOL     OW29824  13.170   6.917   0.441
75976SOL    HW129825  13.170   7.012   0.457
75976SOL    HW229826  13.252   6.886   0.479
75977SOL     OW29827   9.489  12.415   0.095
75977SOL    HW129828   9.440  12.335   0.079
75977SOL    HW229829   9.527  12.438   0.010
75978SOL     OW29830   4.155   4.898  10.412
75978SOL    HW129831   4.198   4.964  10.466
75978SOL    HW229832   4.185   4.917  10.323
75979SOL     OW29833   2.325   9.791   4.537
75979SOL    HW129834   2.381   9.860   4.574
75979SOL    HW229835   2.383   9.715   4.529
75980SOL     OW29836   5.923  13.419   4.173
75980SOL    HW129837   5.956  13.343   4.126
75980SOL    HW229838   6.002  13.466   4.201
75981SOL     OW29839   6.366   4.100   1.531
75981SOL    HW129840   6.354   4.180   1.582
75981SOL    HW229841   6.368   4.130   1.440
75982SOL     OW29842   8.889   1.141  13.041
75982SOL    HW129843   8.947   1.214  13.020
75982SOL    HW229844   8.805   1.181  13.061
75983SOL     OW29845   7.934   0.151   4.221
75983SOL    HW129846   7.920   0.232   4.170
75983SOL    HW229847   7.927   0.179   4.312
75984SOL     OW29848   1.961  10.576   7.839
75984SOL    HW129849   1.911  10.570   7.757
75984SOL    HW229850   1.952  10.490   7.879
75985SOL     OW29851   2.499  10.221   9.204
75985SOL    HW129852   2.510  10.142   9.152
75985SOL    HW229853   2.438  10.196   9.274
75986SOL     OW29854   8.420   9.790  11.568
75986SOL    HW129855   8.426   9.873  11.616
75986SOL    HW229856   8.352   9.741  11.615
75987SOL     OW29857   7.359   6.525  10.452
75987SOL    HW129858   7.279   6.481  10.481
75987SOL    HW229859   7.371   6.495  10.362
75988SOL     OW29860  12.778  12.643  10.178
75988SOL    HW129861  12.704  12.587  10.202
75988SOL    HW229862  12.808  12.608  10.094
75989SOL     OW29863   2.506   3.018  13.668
75989SOL    HW129864   2.519   3.046  13.578
75989SOL    HW229865   2.584   2.967  13.689
75990SOL     OW29866  10.201  12.580  10.560
75990SOL    HW129867  10.259  12.645  10.602
75990SOL    HW229868  10.116  12.594  10.601
75991SOL     OW29869  12.714   5.888   9.152
75991SOL    HW129870  12.678   5.960   9.099
75991SOL    HW229871  12.640   5.829   9.165
75992SOL     OW29872   4.203   5.993  11.218
75992SOL    HW129873   4.269   5.981  11.149
75992SOL    HW229874   4.179   5.904  11.245
75993SOL     OW29875   0.886   3.231   4.207
75993SOL    HW129876   0.804   3.198   4.243
75993SOL    HW229877   0.859   3.288   4.135
75994SOL     OW29878   6.836   9.698   0.658
75994SOL    HW129879   6.756   9.671   0.703
75994SOL    HW229880   6.879   9.759   0.719
75995SOL     OW29881   3.914   6.923   5.702
75995SOL    HW129882   3.824   6.893   5.690
75995SOL    HW229883   3.967   6.843   5.695
75996SOL     OW29884   9.646   9.729  13.179
75996SOL    HW129885   9.638   9.819  13.209
75996SOL    HW229886   9.723   9.729  13.122
75997SOL     OW29887   0.277   6.966   9.904
75997SOL    HW129888   0.279   6.908   9.980
75997SOL    HW229889   0.367   6.965   9.870
75998SOL     OW29890   4.569  12.453   8.069
75998SOL    HW129891   4.662  12.459   8.049
75998SOL    HW229892   4.535  12.390   8.006
75999SOL     OW29893  14.252  13.531   6.893
75999SOL    HW129894  14.191  13.589   6.938
75999SOL    HW229895  14.198  13.462   6.855
76000SOL     OW29896  11.502  10.381  13.510
76000SOL    HW129897  11.492  10.375  13.415
76000SOL    HW229898  11.464  10.466  13.532
76001SOL     OW29899   3.565   8.604   1.783
76001SOL    HW129900   3.619   8.593   1.705
76001SOL    HW229901   3.510   8.525   1.785
76002SOL     OW29902   4.652  14.072   2.029
76002SOL    HW129903   4.740  14.076   2.068
76002SOL    HW229904   4.650  14.146   1.969
76003SOL     OW29905   9.572  10.836   7.282
76003SOL    HW129906   9.630  10.880   7.343
76003SOL    HW229907   9.624  10.764   7.246
76004SOL     OW29908  11.651  10.733   4.697
76004SOL    HW129909  11.665  10.690   4.781
76004SOL    HW229910  11.632  10.824   4.719
76005SOL     OW29911   8.244   6.395  13.499
76005SOL    HW129912   8.184   6.322  13.517
76005SOL    HW229913   8.193   6.454  13.443
76006SOL     OW29914   4.542   2.343   4.757
76006SOL    HW129915   4.476   2.295   4.807
76006SOL    HW229916   4.501   2.357   4.671
76007SOL     OW29917   3.034  14.610   6.680
76007SOL    HW129918   3.005  14.701   6.684
76007SOL    HW229919   2.993  14.575   6.601
76008SOL     OW29920   4.752   0.532   6.443
76008SOL    HW129921   4.701   0.456   6.416
76008SOL    HW229922   4.817   0.544   6.373
76009SOL     OW29923  12.017  14.737   5.645
76009SOL    HW129924  12.021  14.653   5.600
76009SOL    HW229925  11.955  14.790   5.594
76010SOL     OW29926   2.741   5.938   7.714
76010SOL    HW129927   2.814   5.946   7.775
76010SOL    HW229928   2.706   6.027   7.707
76011SOL     OW29929   9.773  13.372   7.114
76011SOL    HW129930   9.688  13.400   7.148
76011SOL    HW229931   9.751  13.312   7.042
76012SOL     OW29932   5.977  12.576   5.364
76012SOL    HW129933   6.049  12.637   5.383
76012SOL    HW229934   6.016  12.512   5.304
76013SOL     OW29935   7.243   6.931   0.162
76013SOL    HW129936   7.303   6.863   0.132
76013SOL    HW229937   7.194   6.955   0.083
76014SOL     OW29938   7.890  11.739  11.906
76014SOL    HW129939   7.901  11.731  12.000
76014SOL    HW229940   7.838  11.663  11.881
76015SOL     OW29941   1.329  11.743   1.907
76015SOL    HW129942   1.395  11.694   1.956
76015SOL    HW229943   1.266  11.677   1.878
76016SOL     OW29944   1.083  11.312   9.378
76016SOL    HW129945   1.042  11.235   9.339
76016SOL    HW229946   1.018  11.345   9.439
76017SOL     OW29947   2.750  10.252   4.520
76017SOL    HW129948   2.773  10.165   4.487
76017SOL    HW229949   2.794  10.313   4.461
76018SOL     OW29950  12.212   2.114   8.715
76018SOL    HW129951  12.150   2.132   8.786
76018SOL    HW229952  12.197   2.185   8.652
76019SOL     OW29953  12.803  12.310  13.300
76019SOL    HW129954  12.846  12.376  13.245
76019SOL    HW229955  12.830  12.333  13.389
76020SOL     OW29956  10.148   1.336  11.068
76020SOL    HW129957  10.196   1.418  11.056
76020SOL    HW229958  10.187   1.297  11.146
76021SOL     OW29959  12.173   7.952  11.576
76021SOL    HW129960  12.119   7.981  11.502
76021SOL    HW229961  12.166   7.857  11.574
76022SOL     OW29962   1.337  13.137   3.560
76022SOL    HW129963   1.291  13.129   3.644
76022SOL    HW229964   1.299  13.215   3.519
76023SOL     OW29965  10.935  14.410   1.702
76023SOL    HW129966  11.030  14.407   1.706
76023SOL    HW229967  10.906  14.352   1.772
76024SOL     OW29968   5.135  12.116  13.959
76024SOL    HW129969   5.111  12.149  13.872
76024SOL    HW229970   5.178  12.032  13.941
76025SOL     OW29971  13.838   9.980   9.946
76025SOL    HW129972  13.824   9.929  10.026
76025SOL    HW229973  13.913   9.938   9.905
76026SOL     OW29974  11.908  11.421  12.934
76026SOL    HW129975  11.841  11.413  13.002
76026SOL    HW229976  11.989  11.391  12.975
76027SOL     OW29977  10.768  10.834  14.814
76027SOL    HW129978  10.716  10.878  14.747
76027SOL    HW229979  10.858  10.864  14.797
76028SOL     OW29980   4.781   4.191   4.090
76028SOL    HW129981   4.739   4.129   4.149
76028SOL    HW229982   4.872   4.194   4.119
76029SOL     OW29983  10.442   6.246   7.047
76029SOL    HW129984  10.407   6.160   7.024
76029SOL    HW229985  10.438   6.249   7.142
76030SOL     OW29986  10.500   7.774  10.441
76030SOL    HW129987  10.530   7.848  10.388
76030SOL    HW229988  10.483   7.704  10.377
76031SOL     OW29989   6.650  14.662  13.584
76031SOL    HW129990   6.699  14.610  13.520
76031SOL    HW229991   6.596  14.597  13.631
76032SOL     OW29992   7.411   4.726   7.059
76032SOL    HW129993   7.405   4.780   7.137
76032SOL    HW229994   7.344   4.761   7.000
76033SOL     OW29995   1.224   9.524  12.828
76033SOL    HW129996   1.235   9.521  12.733
76033SOL    HW229997   1.310   9.547  12.862
76034SOL     OW29998  11.933   6.273   4.486
76034SOL    HW129999  11.954   6.229   4.569
76034SOL    HW230000  11.867   6.217   4.445
76035SOL     OW30001  13.696   3.868  12.746
76035SOL    HW130002  13.673   3.895  12.657
76035SOL    HW230003  13.777   3.914  12.765
76036SOL     OW30004  14.144   6.099   8.506
76036SOL    HW130005  14.172   6.011   8.530
76036SOL    HW230006  14.207   6.157   8.547
76037SOL     OW30007  11.416  10.763  13.426
76037SOL    HW130008  11.467  10.725  13.355
76037SOL    HW230009  11.335  10.712  13.427
76038SOL     OW30010  12.928  13.617  13.929
76038SOL    HW130011  12.854  13.676  13.940
76038SOL    HW230012  12.905  13.540  13.981
76039SOL     OW30013  14.785  10.283  10.577
76039SOL    HW130014  14.726  10.214  10.545
76039SOL    HW230015  14.836  10.241  10.646
76040SOL     OW30016   1.782  10.864   2.635
76040SOL    HW130017   1.786  10.855   2.730
76040SOL    HW230018   1.690  10.849   2.614
76041SOL     OW30019   6.605  13.457   4.812
76041SOL    HW130020   6.566  13.378   4.850
76041SOL    HW230021   6.697  13.453   4.838
76042SOL     OW30022  12.350  14.098  10.693
76042SOL    HW130023  12.298  14.060  10.623
76042SOL    HW230024  12.401  14.025  10.728
76043SOL     OW30025  11.391   0.853   6.709
76043SOL    HW130026  11.349   0.817   6.787
76043SOL    HW230027  11.412   0.776   6.655
76044SOL     OW30028  11.209   4.918   0.080
76044SOL    HW130029  11.261   4.944   0.004
76044SOL    HW230030  11.151   4.849   0.047
76045SOL     OW30031  13.569  10.629   0.396
76045SOL    HW130032  13.649  10.680   0.384
76045SOL    HW230033  13.503  10.693   0.424
76046SOL     OW30034   4.897   1.658  12.827
76046SOL    HW130035   4.881   1.633  12.736
76046SOL    HW230036   4.906   1.575  12.874
76047SOL     OW30037  10.262  14.002   0.323
76047SOL    HW130038  10.277  14.097   0.317
76047SOL    HW230039  10.199  13.993   0.394
76048SOL     OW30040  12.724   8.152   8.129
76048SOL    HW130041  12.686   8.065   8.129
76048SOL    HW230042  12.817   8.138   8.151
76049SOL     OW30043   4.929   1.685   7.105
76049SOL    HW130044   4.992   1.629   7.151
76049SOL    HW230045   4.908   1.637   7.025
76050SOL     OW30046  14.050  12.837   1.991
76050SOL    HW130047  14.063  12.743   1.977
76050SOL    HW230048  14.073  12.851   2.083
76051SOL     OW30049   7.088   1.589   0.582
76051SOL    HW130050   7.019   1.575   0.647
76051SOL    HW230051   7.048   1.649   0.518
76052SOL     OW30052  10.323  14.462   5.469
76052SOL    HW130053  10.386  14.463   5.397
76052SOL    HW230054  10.250  14.409   5.436
76053SOL     OW30055   4.558   1.990  12.921
76053SOL    HW130056   4.541   1.898  12.942
76053SOL    HW230057   4.506   2.039  12.985
76054SOL     OW30058   9.456   6.768   7.085
76054SOL    HW130059   9.420   6.688   7.047
76054SOL    HW230060   9.547   6.771   7.054
76055SOL     OW30061   6.254   2.039   5.375
76055SOL    HW130062   6.175   1.998   5.338
76055SOL    HW230063   6.297   2.080   5.300
76056SOL     OW30064   3.889   1.726   9.286
76056SOL    HW130065   3.846   1.736   9.371
76056SOL    HW230066   3.983   1.727   9.305
76057SOL     OW30067   6.960  10.377   1.151
76057SOL    HW130068   7.002  10.420   1.225
76057SOL    HW230069   6.888  10.327   1.189
76058SOL     OW30070  14.247  11.159  11.064
76058SOL    HW130071  14.159  11.140  11.098
76058SOL    HW230072  14.246  11.253  11.049
76059SOL     OW30073   8.549  13.182  12.576
76059SOL    HW130074   8.508  13.268  12.573
76059SOL    HW230075   8.515  13.142  12.656
76060SOL     OW30076  12.480  10.963   2.632
76060SOL    HW130077  12.423  11.012   2.691
76060SOL    HW230078  12.439  10.877   2.625
76061SOL     OW30079   5.354   4.825  11.427
76061SOL    HW130080   5.430   4.779  11.392
76061SOL    HW230081   5.341   4.900  11.369
76062SOL     OW30082   2.685   9.575   8.326
76062SOL    HW130083   2.724   9.488   8.327
76062SOL    HW230084   2.664   9.591   8.235
76063SOL     OW30085   1.404  11.712   8.032
76063SOL    HW130086   1.323  11.762   8.021
76063SOL    HW230087   1.456  11.766   8.091
76064SOL     OW30088  13.264   5.509  11.290
76064SOL    HW130089  13.238   5.588  11.338
76064SOL    HW230090  13.351   5.529  11.257
76065SOL     OW30091   1.633   6.592   6.782
76065SOL    HW130092   1.727   6.592   6.763
76065SOL    HW230093   1.623   6.653   6.855
76066SOL     OW30094   9.903   1.715  10.125
76066SOL    HW130095   9.861   1.784  10.073
76066SOL    HW230096   9.835   1.685  10.185
76067SOL     OW30097   9.434   9.682   1.251
76067SOL    HW130098   9.367   9.682   1.319
76067SOL    HW230099   9.474   9.769   1.256
76068SOL     OW30100   0.591   9.576   8.162
76068SOL    HW130101   0.677   9.589   8.202
76068SOL    HW230102   0.593   9.485   8.132
76069SOL     OW30103   5.419  11.787   5.721
76069SOL    HW130104   5.514  11.798   5.712
76069SOL    HW230105   5.409  11.697   5.751
76070SOL     OW30106   0.011  13.044   7.538
76070SOL    HW130107   0.091  13.061   7.589
76070SOL    HW230108   0.010  13.112   7.471
76071SOL     OW30109   6.031   1.299   0.668
76071SOL    HW130110   5.951   1.257   0.700
76071SOL    HW230111   6.001   1.370   0.612
76072SOL     OW30112   9.878  10.779   3.716
76072SOL    HW130113   9.854  10.722   3.789
76072SOL    HW230114   9.794  10.810   3.682
76073SOL     OW30115  11.081   4.227   6.330
76073SOL    HW130116  11.050   4.175   6.256
76073SOL    HW230117  11.174   4.241   6.312
76074SOL     OW30118   5.002   1.302   7.250
76074SOL    HW130119   4.999   1.397   7.266
76074SOL    HW230120   5.088   1.275   7.282
76075SOL     OW30121   8.250   1.134   4.896
76075SOL    HW130122   8.256   1.204   4.962
76075SOL    HW230123   8.238   1.054   4.947
76076SOL     OW30124  11.918   2.589   6.931
76076SOL    HW130125  11.849   2.535   6.893
76076SOL    HW230126  11.956   2.535   7.000
76077SOL     OW30127  11.480   9.787  11.801
76077SOL    HW130128  11.479   9.694  11.824
76077SOL    HW230129  11.567   9.801  11.763
76078SOL     OW30130   7.057  10.485   0.679
76078SOL    HW130131   7.143  10.456   0.710
76078SOL    HW230132   6.996  10.454   0.746
76079SOL     OW30133   4.426   6.452   8.513
76079SOL    HW130134   4.398   6.413   8.596
76079SOL    HW230135   4.418   6.547   8.527
76080SOL     OW30136   6.187   8.421  10.674
76080SOL    HW130137   6.235   8.342  10.650
76080SOL    HW230138   6.148   8.400  10.759
76081SOL     OW30139   4.115  12.758  14.260
76081SOL    HW130140   4.167  12.682  14.234
76081SOL    HW230141   4.162  12.794  14.336
76082SOL     OW30142   3.075   3.504  10.075
76082SOL    HW130143   3.007   3.462  10.024
76082SOL    HW230144   3.071   3.597  10.051
76083SOL     OW30145   2.792   9.530   9.911
76083SOL    HW130146   2.869   9.530   9.968
76083SOL    HW230147   2.827   9.547   9.823
76084SOL     OW30148  12.374  13.334   6.543
76084SOL    HW130149  12.371  13.419   6.587
76084SOL    HW230150  12.375  13.355   6.450
76085SOL     OW30151  13.566   9.809  12.350
76085SOL    HW130152  13.537   9.900  12.338
76085SOL    HW230153  13.658   9.816  12.373
76086SOL     OW30154   6.981   9.867   7.107
76086SOL    HW130155   7.059   9.893   7.157
76086SOL    HW230156   7.011   9.795   7.052
76087SOL     OW30157   5.675   3.102  12.651
76087SOL    HW130158   5.712   3.188  12.633
76087SOL    HW230159   5.581   3.117  12.658
76088SOL     OW30160   8.724   7.329  11.856
76088SOL    HW130161   8.658   7.278  11.904
76088SOL    HW230162   8.690   7.333  11.766
76089SOL     OW30163   8.163  12.419  12.923
76089SOL    HW130164   8.085  12.369  12.946
76089SOL    HW230165   8.233  12.354  12.918
76090SOL     OW30166  11.194   9.067   4.685
76090SOL    HW130167  11.165   9.088   4.596
76090SOL    HW230168  11.281   9.106   4.692
76091SOL     OW30169   5.508   0.598   7.075
76091SOL    HW130170   5.579   0.618   7.015
76091SOL    HW230171   5.430   0.632   7.032
76092SOL     OW30172   1.731   9.387  14.542
76092SOL    HW130173   1.708   9.403  14.451
76092SOL    HW230174   1.678   9.449  14.592
76093SOL     OW30175  10.136   7.036  14.448
76093SOL    HW130176  10.177   7.098  14.387
76093SOL    HW230177  10.181   6.953  14.431
76094SOL     OW30178   3.703   9.093   2.902
76094SOL    HW130179   3.629   9.034   2.891
76094SOL    HW230180   3.665   9.181   2.895
76095SOL     OW30181  14.655   3.096  13.502
76095SOL    HW130182  14.671   3.038  13.576
76095SOL    HW230183  14.594   3.047  13.446
76096SOL     OW30184   7.930   6.369  10.241
76096SOL    HW130185   8.005   6.383  10.299
76096SOL    HW230186   7.962   6.305  10.177
76097SOL     OW30187  10.404   3.629   5.016
76097SOL    HW130188  10.492   3.660   5.038
76097SOL    HW230189  10.415   3.576   4.937
76098SOL     OW30190  13.712   8.538   7.269
76098SOL    HW130191  13.637   8.493   7.307
76098SOL    HW230192  13.684   8.629   7.260
76099SOL     OW30193   7.251   5.712   4.342
76099SOL    HW130194   7.225   5.795   4.381
76099SOL    HW230195   7.304   5.737   4.266
76100SOL     OW30196   0.934   4.698   2.785
76100SOL    HW130197   0.856   4.667   2.829
76100SOL    HW230198   0.975   4.619   2.749
76101SOL     OW30199  13.563   1.515  13.003
76101SOL    HW130200  13.613   1.580  13.052
76101SOL    HW230201  13.476   1.516  13.042
76102SOL     OW30202   0.826   4.025  10.091
76102SOL    HW130203   0.910   4.063  10.064
76102SOL    HW230204   0.800   4.077  10.167
76103SOL     OW30205   3.590   1.355  13.844
76103SOL    HW130206   3.637   1.438  13.844
76103SOL    HW230207   3.557   1.346  13.933
76104SOL     OW30208  11.359   0.112   7.433
76104SOL    HW130209  11.304   0.187   7.411
76104SOL    HW230210  11.408   0.141   7.510
76105SOL     OW30211   9.086  10.900   7.112
76105SOL    HW130212   9.052  10.886   7.200
76105SOL    HW230213   9.181  10.898   7.123
76106SOL     OW30214   7.448   5.562   9.100
76106SOL    HW130215   7.521   5.577   9.161
76106SOL    HW230216   7.372   5.598   9.145
76107SOL     OW30217  11.478   2.173   0.137
76107SOL    HW130218  11.536   2.174   0.061
76107SOL    HW230219  11.495   2.255   0.183
76108SOL     OW30220   0.487   4.885   6.924
76108SOL    HW130221   0.422   4.828   6.884
76108SOL    HW230222   0.537   4.828   6.983
76109SOL     OW30223   5.413   7.674  11.818
76109SOL    HW130224   5.484   7.739  11.826
76109SOL    HW230225   5.456   7.590  11.835
76110SOL     OW30226   1.135   3.788   0.337
76110SOL    HW130227   1.194   3.858   0.364
76110SOL    HW230228   1.065   3.789   0.402
76111SOL     OW30229  12.602  11.727   6.365
76111SOL    HW130230  12.576  11.693   6.451
76111SOL    HW230231  12.597  11.822   6.374
76112SOL     OW30232  12.327  11.546  12.529
76112SOL    HW130233  12.278  11.562  12.611
76112SOL    HW230234  12.259  11.535  12.463
76113SOL     OW30235   7.191   4.391  13.685
76113SOL    HW130236   7.100   4.384  13.655
76113SOL    HW230237   7.238   4.424  13.609
76114SOL     OW30238   3.111  10.868   7.497
76114SOL    HW130239   3.130  10.873   7.403
76114SOL    HW230240   3.172  10.802   7.530
76115SOL     OW30241  13.247   1.285   0.387
76115SOL    HW130242  13.341   1.275   0.369
76115SOL    HW230243  13.205   1.223   0.327
76116SOL     OW30244   2.311  11.639   8.059
76116SOL    HW130245   2.295  11.733   8.048
76116SOL    HW230246   2.378  11.633   8.126
76117SOL     OW30247   9.953   2.279   0.963
76117SOL    HW130248   9.955   2.216   1.035
76117SOL    HW230249  10.038   2.272   0.921
76118SOL     OW30250   3.551  11.473   9.409
76118SOL    HW130251   3.538  11.440   9.499
76118SOL    HW230252   3.623  11.535   9.416
76119SOL     OW30253  11.221  11.385   1.962
76119SOL    HW130254  11.237  11.395   2.056
76119SOL    HW230255  11.143  11.331   1.956
76120SOL     OW30256  14.234  12.255  10.653
76120SOL    HW130257  14.294  12.265  10.579
76120SOL    HW230258  14.261  12.324  10.714
76121SOL     OW30259   1.220  10.038  10.150
76121SOL    HW130260   1.175  10.055  10.233
76121SOL    HW230261   1.153  10.053  10.083
76122SOL     OW30262  11.884   4.605   4.866
76122SOL    HW130263  11.921   4.536   4.811
76122SOL    HW230264  11.933   4.600   4.948
76123SOL     OW30265   1.208  13.756   2.855
76123SOL    HW130266   1.151  13.797   2.920
76123SOL    HW230267   1.149  13.708   2.797
76124SOL     OW30268  11.161   7.611   9.285
76124SOL    HW130269  11.170   7.705   9.274
76124SOL    HW230270  11.182   7.574   9.200
76125SOL     OW30271   0.189   8.521  10.561
76125SOL    HW130272   0.152   8.472  10.488
76125SOL    HW230273   0.184   8.613  10.533
76126SOL     OW30274   0.246  10.567   8.210
76126SOL    HW130275   0.299  10.611   8.276
76126SOL    HW230276   0.155  10.584   8.236
76127SOL     OW30277   3.812   8.480   8.946
76127SOL    HW130278   3.738   8.541   8.948
76127SOL    HW230279   3.785   8.411   8.885
76128SOL     OW30280  12.860  12.251  12.053
76128SOL    HW130281  12.919  12.244  11.978
76128SOL    HW230282  12.790  12.309  12.023
76129SOL     OW30283   2.632   9.908   4.365
76129SOL    HW130284   2.662   9.823   4.399
76129SOL    HW230285   2.713   9.955   4.344
76130SOL     OW30286   5.915   8.908   0.070
76130SOL    HW130287   5.898   8.867  14.857
76130SOL    HW230288   5.889   9.000   0.058
76131SOL     OW30289   9.713   5.610   8.731
76131SOL    HW130290   9.785   5.548   8.737
76131SOL    HW230291   9.750   5.693   8.760
76132SOL     OW30292   6.366  13.669   5.819
76132SOL    HW130293   6.444  13.617   5.836
76132SOL    HW230294   6.370  13.687   5.725
76133SOL     OW30295   0.137   8.936   5.342
76133SOL    HW130296   0.124   8.987   5.262
76133SOL    HW230297   0.083   8.858   5.330
76134SOL     OW30298   9.220  12.768   1.883
76134SOL    HW130299   9.184  12.680   1.883
76134SOL    HW230300   9.203  12.801   1.971
76135SOL     OW30301   2.458   6.604   7.429
76135SOL    HW130302   2.407   6.540   7.380
76135SOL    HW230303   2.396   6.640   7.493
76136SOL     OW30304  10.694   9.637   2.238
76136SOL    HW130305  10.599   9.630   2.251
76136SOL    HW230306  10.727   9.551   2.267
76137SOL     OW30307   9.638  13.555   8.152
76137SOL    HW130308   9.545  13.534   8.150
76137SOL    HW230309   9.642  13.649   8.169
76138SOL     OW30310   4.317   3.758   1.292
76138SOL    HW130311   4.412   3.751   1.295
76138SOL    HW230312   4.300   3.852   1.286
76139SOL     OW30313   0.841  13.423   3.795
76139SOL    HW130314   0.922  13.462   3.827
76139SOL    HW230315   0.795  13.496   3.753
76140SOL     OW30316   6.866   3.198   6.308
76140SOL    HW130317   6.810   3.274   6.326
76140SOL    HW230318   6.947   3.237   6.274
76141SOL     OW30319   1.309   6.986   1.130
76141SOL    HW130320   1.248   6.940   1.072
76141SOL    HW230321   1.335   6.919   1.193
76142SOL     OW30322   4.468   9.387   2.767
76142SOL    HW130323   4.549   9.343   2.791
76142SOL    HW230324   4.439   9.429   2.848
76143SOL     OW30325   4.232   7.984   7.914
76143SOL    HW130326   4.249   7.971   7.821
76143SOL    HW230327   4.313   7.958   7.957
76144SOL     OW30328   8.501  12.209  11.614
76144SOL    HW130329   8.472  12.299  11.598
76144SOL    HW230330   8.423  12.155  11.602
76145SOL     OW30331   0.314   8.292  12.047
76145SOL    HW130332   0.365   8.280  12.127
76145SOL    HW230333   0.338   8.380  12.017
76146SOL     OW30334   0.536   1.041   0.148
76146SOL    HW130335   0.462   1.023   0.090
76146SOL    HW230336   0.516   1.125   0.188
76147SOL     OW30337  14.820   8.248   6.731
76147SOL    HW130338  14.858   8.163   6.708
76147SOL    HW230339  14.744   8.256   6.674
76148SOL     OW30340  11.421  14.702   4.943
76148SOL    HW130341  11.488  14.688   4.876
76148SOL    HW230342  11.343  14.728   4.894
76149SOL     OW30343   6.207   1.451   6.704
76149SOL    HW130344   6.281   1.394   6.727
76149SOL    HW230345   6.131   1.393   6.703
76150SOL     OW30346  12.051   9.664   5.991
76150SOL    HW130347  11.985   9.701   5.934
76150SOL    HW230348  12.121   9.730   5.993
76151SOL     OW30349   1.636   7.875   2.055
76151SOL    HW130350   1.595   7.790   2.035
76151SOL    HW230351   1.566   7.925   2.098
76152SOL     OW30352   8.569  11.990  14.358
76152SOL    HW130353   8.642  11.959  14.303
76152SOL    HW230354   8.494  11.937  14.331
76153SOL     OW30355   0.163  12.881  12.543
76153SOL    HW130356   0.120  12.948  12.490
76153SOL    HW230357   0.220  12.834  12.482
76154SOL     OW30358   1.784   9.904   3.428
76154SOL    HW130359   1.703   9.871   3.467
76154SOL    HW230360   1.755   9.974   3.370
76155SOL     OW30361  11.936   5.366   4.657
76155SOL    HW130362  12.008   5.390   4.715
76155SOL    HW230363  11.898   5.288   4.697
76156SOL     OW30364   3.533  12.152   3.817
76156SOL    HW130365   3.439  12.139   3.812
76156SOL    HW230366   3.559  12.107   3.898
76157SOL     OW30367   0.301   2.411   9.714
76157SOL    HW130368   0.379   2.364   9.684
76157SOL    HW230369   0.236   2.394   9.646
76158SOL     OW30370  11.552  11.226  13.765
76158SOL    HW130371  11.556  11.299  13.704
76158SOL    HW230372  11.640  11.221  13.802
76159SOL     OW30373   1.123   5.457   3.043
76159SOL    HW130374   1.031   5.463   3.069
76159SOL    HW230375   1.121   5.436   2.950
76160SOL     OW30376  14.705  12.455   3.603
76160SOL    HW130377  14.695  12.378   3.660
76160SOL    HW230378  14.712  12.529   3.664
76161SOL     OW30379   6.990  11.142   1.541
76161SOL    HW130380   6.997  11.053   1.576
76161SOL    HW230381   7.078  11.162   1.509
76162SOL     OW30382   3.411   0.200   6.597
76162SOL    HW130383   3.501   0.181   6.570
76162SOL    HW230384   3.412   0.293   6.619
76163SOL     OW30385   6.750   8.366   5.747
76163SOL    HW130386   6.753   8.277   5.712
76163SOL    HW230387   6.689   8.361   5.821
76164SOL     OW30388  14.839  10.539  14.725
76164SOL    HW130389   0.024  10.614  14.740
76164SOL    HW230390  14.782  10.565  14.653
76165SOL     OW30391   8.460  13.338  11.966
76165SOL    HW130392   8.436  13.273  12.033
76165SOL    HW230393   8.410  13.312  11.889
76166SOL     OW30394   6.994  12.549  10.553
76166SOL    HW130395   7.010  12.547  10.648
76166SOL    HW230396   6.936  12.475  10.537
76167SOL     OW30397   4.416   2.651   1.535
76167SOL    HW130398   4.352   2.627   1.468
76167SOL    HW230399   4.477   2.710   1.491
76168SOL     OW30400  13.864   1.451  14.266
76168SOL    HW130401  13.949   1.486  14.237
76168SOL    HW230402  13.886   1.367  14.306
76169SOL     OW30403   5.686   4.328   5.437
76169SOL    HW130404   5.665   4.304   5.527
76169SOL    HW230405   5.692   4.423   5.438
76170SOL     OW30406  10.294   4.785   4.704
76170SOL    HW130407  10.340   4.724   4.761
76170SOL    HW230408  10.322   4.872   4.734
76171SOL     OW30409   7.810  13.244   2.483
76171SOL    HW130410   7.893  13.268   2.441
76171SOL    HW230411   7.749  13.312   2.454
76172SOL     OW30412   3.657   9.576   8.774
76172SOL    HW130413   3.741   9.599   8.815
76172SOL    HW230414   3.593   9.633   8.818
76173SOL     OW30415  14.693   0.061   6.214
76173SOL    HW130416  14.706   0.144   6.169
76173SOL    HW230417  14.623   0.079   6.277
76174SOL     OW30418   0.038   8.169   4.621
76174SOL    HW130419   0.119   8.178   4.671
76174SOL    HW230420   0.035   8.246   4.564
76175SOL     OW30421   9.188  10.012   1.911
76175SOL    HW130422   9.205   9.952   1.984
76175SOL    HW230423   9.273  10.055   1.896
76176SOL     OW30424   1.296  10.202   1.478
76176SOL    HW130425   1.248  10.130   1.436
76176SOL    HW230426   1.261  10.281   1.438
76177SOL     OW30427  12.592   4.792   3.883
76177SOL    HW130428  12.513   4.792   3.936
76177SOL    HW230429  12.616   4.700   3.875
76178SOL     OW30430   5.860   1.092   9.166
76178SOL    HW130431   5.951   1.104   9.191
76178SOL    HW230432   5.833   1.012   9.212
76179SOL     OW30433   8.751   9.450   2.514
76179SOL    HW130434   8.716   9.519   2.457
76179SOL    HW230435   8.679   9.386   2.520
76180SOL     OW30436  11.828  12.370   3.098
76180SOL    HW130437  11.822  12.326   3.182
76180SOL    HW230438  11.817  12.301   3.033
76181SOL     OW30439  10.128  10.168  12.962
76181SOL    HW130440  10.212  10.215  12.959
76181SOL    HW230441  10.075  10.218  13.023
76182SOL     OW30442   4.091  14.267   0.516
76182SOL    HW130443   4.077  14.220   0.598
76182SOL    HW230444   4.007  14.263   0.471
76183SOL     OW30445   5.987   2.848   2.589
76183SOL    HW130446   5.967   2.937   2.561
76183SOL    HW230447   5.928   2.793   2.538
76184SOL     OW30448   3.079  14.133   3.849
76184SOL    HW130449   3.015  14.146   3.779
76184SOL    HW230450   3.068  14.210   3.906
76185SOL     OW30451  12.996  14.806   5.017
76185SOL    HW130452  13.082  14.773   4.992
76185SOL    HW230453  12.965  14.744   5.084
76186SOL     OW30454   2.279  11.932  14.815
76186SOL    HW130455   2.269  11.897  14.726
76186SOL    HW230456   2.203  11.897  14.862
76187SOL     OW30457   9.260  13.617   4.713
76187SOL    HW130458   9.300  13.647   4.794
76187SOL    HW230459   9.262  13.521   4.719
76188SOL     OW30460   8.478  13.512  14.744
76188SOL    HW130461   8.480  13.587  14.804
76188SOL    HW230462   8.455  13.549  14.659
76189SOL     OW30463  11.591  12.356   9.217
76189SOL    HW130464  11.537  12.277   9.226
76189SOL    HW230465  11.650  12.353   9.293
76190SOL     OW30466  13.307  13.137   9.969
76190SOL    HW130467  13.220  13.119  10.003
76190SOL    HW230468  13.336  13.215  10.017
76191SOL     OW30469   5.397  13.416   1.701
76191SOL    HW130470   5.425  13.469   1.627
76191SOL    HW230471   5.304  13.399   1.685
76192SOL     OW30472  12.964   6.699   1.476
76192SOL    HW130473  12.986   6.729   1.564
76192SOL    HW230474  13.029   6.632   1.457
76193SOL     OW30475   2.115  13.243  14.195
76193SOL    HW130476   2.129  13.277  14.284
76193SOL    HW230477   2.203  13.227  14.162
76194SOL     OW30478  10.779  14.825  11.677
76194SOL    HW130479  10.697  14.793  11.639
76194SOL    HW230480  10.786   0.044  11.648
76195SOL     OW30481   1.066  10.728   5.769
76195SOL    HW130482   1.078  10.764   5.682
76195SOL    HW230483   0.978  10.757   5.795
76196SOL     OW30484   3.539   1.930   8.124
76196SOL    HW130485   3.465   1.954   8.068
76196SOL    HW230486   3.512   1.953   8.212
76197SOL     OW30487   8.123   6.407   3.153
76197SOL    HW130488   8.048   6.430   3.098
76197SOL    HW230489   8.090   6.339   3.211
76198SOL     OW30490  12.192  13.973   9.743
76198SOL    HW130491  12.119  13.942   9.690
76198SOL    HW230492  12.220  13.896   9.793
76199SOL     OW30493   0.888   8.373   0.019
76199SOL    HW130494   0.890   8.326  14.807
76199SOL    HW230495   0.820   8.328   0.070
76200SOL     OW30496  14.478   9.383   6.712
76200SOL    HW130497  14.568   9.402   6.687
76200SOL    HW230498  14.481   9.373   6.807
76201SOL     OW30499  11.794   8.145  10.106
76201SOL    HW130500  11.713   8.153  10.056
76201SOL    HW230501  11.860   8.120  10.041
76202SOL     OW30502   3.418  14.410   0.419
76202SOL    HW130503   3.410  14.359   0.500
76202SOL    HW230504   3.430  14.344   0.351
76203SOL     OW30505  10.774  13.371   0.575
76203SOL    HW130506  10.771  13.455   0.620
76203SOL    HW230507  10.698  13.323   0.608
76204SOL     OW30508   6.398   8.582  10.748
76204SOL    HW130509   6.361   8.668  10.729
76204SOL    HW230510   6.329   8.520  10.724
76205SOL     OW30511   1.150   1.758   3.226
76205SOL    HW130512   1.197   1.676   3.212
76205SOL    HW230513   1.075   1.753   3.166
76206SOL     OW30514   0.408   2.458   5.272
76206SOL    HW130515   0.406   2.409   5.354
76206SOL    HW230516   0.318   2.457   5.241
76207SOL     OW30517  14.572   7.622  10.676
76207SOL    HW130518  14.591   7.715  10.686
76207SOL    HW230519  14.476   7.617  10.679
76208SOL     OW30520   7.690  12.599  13.435
76208SOL    HW130521   7.666  12.506  13.434
76208SOL    HW230522   7.722  12.616  13.346
76209SOL     OW30523  10.478   3.114  13.214
76209SOL    HW130524  10.443   3.174  13.279
76209SOL    HW230525  10.564   3.149  13.191
76210SOL     OW30526   6.730  13.599   7.520
76210SOL    HW130527   6.774  13.515   7.509
76210SOL    HW230528   6.661  13.582   7.585
76211SOL     OW30529   9.922  10.824  11.829
76211SOL    HW130530   9.865  10.836  11.753
76211SOL    HW230531   9.994  10.885  11.816
76212SOL     OW30532   3.003  14.222   4.402
76212SOL    HW130533   2.916  14.226   4.363
76212SOL    HW230534   3.030  14.314   4.411
76213SOL     OW30535   6.235   1.557   3.726
76213SOL    HW130536   6.298   1.505   3.676
76213SOL    HW230537   6.165   1.575   3.663
76214SOL     OW30538   6.061   3.530   6.134
76214SOL    HW130539   5.983   3.484   6.103
76214SOL    HW230540   6.103   3.468   6.194
76215SOL     OW30541   9.406   7.765   9.681
76215SOL    HW130542   9.328   7.811   9.713
76215SOL    HW230543   9.400   7.772   9.585
76216SOL     OW30544   0.446  12.423   0.258
76216SOL    HW130545   0.387  12.434   0.332
76216SOL    HW230546   0.426  12.497   0.201
76217SOL     OW30547   5.621   9.097   8.184
76217SOL    HW130548   5.641   9.052   8.266
76217SOL    HW230549   5.702   9.143   8.160
76218SOL     OW30550   2.543   7.846   0.904
76218SOL    HW130551   2.586   7.887   0.979
76218SOL    HW230552   2.510   7.920   0.853
76219SOL     OW30553   7.667  12.713   5.826
76219SOL    HW130554   7.744  12.728   5.880
76219SOL    HW230555   7.616  12.648   5.875
76220SOL     OW30556   8.046  12.790   9.307
76220SOL    HW130557   8.065  12.700   9.331
76220SOL    HW230558   8.108  12.810   9.237
76221SOL     OW30559   6.705   1.319   5.857
76221SOL    HW130560   6.727   1.369   5.778
76221SOL    HW230561   6.702   1.384   5.926
76222SOL     OW30562   9.983  11.208   8.055
76222SOL    HW130563   9.934  11.290   8.061
76222SOL    HW230564   9.950  11.155   8.128
76223SOL     OW30565  13.279   3.096   1.776
76223SOL    HW130566  13.252   3.005   1.784
76223SOL    HW230567  13.373   3.096   1.793
76224SOL     OW30568   5.100   9.627  12.668
76224SOL    HW130569   5.078   9.626  12.575
76224SOL    HW230570   5.185   9.582  12.673
76225SOL     OW30571   1.738   7.167   7.293
76225SOL    HW130572   1.741   7.211   7.378
76225SOL    HW230573   1.829   7.169   7.262
76226SOL     OW30574   0.733   9.644   1.407
76226SOL    HW130575   0.821   9.674   1.385
76226SOL    HW230576   0.698   9.711   1.466
76227SOL     OW30577   1.342  13.200   2.375
76227SOL    HW130578   1.308  13.110   2.371
76227SOL    HW230579   1.369  13.211   2.466
76228SOL     OW30580  14.820   8.146  14.093
76228SOL    HW130581  14.792   8.138  14.184
76228SOL    HW230582  14.773   8.224  14.061
76229SOL     OW30583   0.191   1.098   3.625
76229SOL    HW130584   0.165   1.122   3.714
76229SOL    HW230585   0.168   1.006   3.618
76230SOL     OW30586  12.617   3.686  10.100
76230SOL    HW130587  12.648   3.671  10.011
76230SOL    HW230588  12.522   3.670  10.096
76231SOL     OW30589   2.366   1.158   9.317
76231SOL    HW130590   2.273   1.137   9.304
76231SOL    HW230591   2.377   1.245   9.278
76232SOL     OW30592   3.482   9.272   5.635
76232SOL    HW130593   3.443   9.359   5.624
76232SOL    HW230594   3.570   9.289   5.667
76233SOL     OW30595   7.878   1.900   4.937
76233SOL    HW130596   7.797   1.942   4.964
76233SOL    HW230597   7.851   1.827   4.882
76234SOL     OW30598   4.821  13.900   1.219
76234SOL    HW130599   4.840  13.897   1.125
76234SOL    HW230600   4.759  13.973   1.229
76235SOL     OW30601  13.103  10.494   2.669
76235SOL    HW130602  13.049  10.564   2.633
76235SOL    HW230603  13.168  10.477   2.601
76236SOL     OW30604   7.069   3.760   0.787
76236SOL    HW130605   7.039   3.793   0.703
76236SOL    HW230606   7.162   3.783   0.790
76237SOL     OW30607   3.582  11.503   4.710
76237SOL    HW130608   3.569  11.443   4.637
76237SOL    HW230609   3.613  11.448   4.782
76238SOL     OW30610  12.106  14.058  13.349
76238SOL    HW130611  12.098  14.113  13.427
76238SOL    HW230612  12.170  14.104  13.294
76239SOL     OW30613   7.850   1.645   0.736
76239SOL    HW130614   7.811   1.674   0.819
76239SOL    HW230615   7.808   1.700   0.670
76240SOL     OW30616   6.479  11.533   3.117
76240SOL    HW130617   6.431  11.456   3.087
76240SOL    HW230618   6.412  11.592   3.150
76241SOL     OW30619   4.823  13.255   4.328
76241SOL    HW130620   4.821  13.261   4.232
76241SOL    HW230621   4.797  13.342   4.358
76242SOL     OW30622   3.838   6.341  14.146
76242SOL    HW130623   3.850   6.297  14.230
76242SOL    HW230624   3.833   6.270  14.082
76243SOL     OW30625   3.505   9.508   6.129
76243SOL    HW130626   3.501   9.563   6.208
76243SOL    HW230627   3.413   9.495   6.104
76244SOL     OW30628   3.634   0.056   7.300
76244SOL    HW130629   3.675   0.023   7.380
76244SOL    HW230630   3.604  14.850   7.254
76245SOL     OW30631  14.472   4.802   7.744
76245SOL    HW130632  14.434   4.835   7.826
76245SOL    HW230633  14.547   4.860   7.728
76246SOL     OW30634   9.074   1.246  10.342
76246SOL    HW130635   9.102   1.155  10.334
76246SOL    HW230636   8.984   1.242  10.373
76247SOL     OW30637   4.067   7.003   3.011
76247SOL    HW130638   4.060   7.004   3.106
76247SOL    HW230639   4.122   7.078   2.990
76248SOL     OW30640   0.736  14.825   2.266
76248SOL    HW130641   0.816  14.868   2.295
76248SOL    HW230642   0.757  14.732   2.266
76249SOL     OW30643  12.376  11.759   5.044
76249SOL    HW130644  12.324  11.743   5.123
76249SOL    HW230645  12.378  11.854   5.036
76250SOL     OW30646  11.103   8.018   7.420
76250SOL    HW130647  11.086   8.092   7.361
76250SOL    HW230648  11.016   7.992   7.450
76251SOL     OW30649  13.068   3.954  10.486
76251SOL    HW130650  13.139   4.015  10.505
76251SOL    HW230651  13.004   3.969  10.555
76252SOL     OW30652  14.669   2.656   0.434
76252SOL    HW130653  14.578   2.649   0.404
76252SOL    HW230654  14.720   2.648   0.353
76253SOL     OW30655  13.247   0.192  14.327
76253SOL    HW130656  13.207   0.243  14.398
76253SOL    HW230657  13.278   0.258  14.265
76254SOL     OW30658   6.438   7.265   5.120
76254SOL    HW130659   6.518   7.319   5.120
76254SOL    HW230660   6.409   7.266   5.211
76255SOL     OW30661   4.423  10.136  13.795
76255SOL    HW130662   4.419  10.045  13.825
76255SOL    HW230663   4.405  10.131  13.701
76256SOL     OW30664  11.936   8.957   7.735
76256SOL    HW130665  11.907   9.038   7.777
76256SOL    HW230666  11.952   8.897   7.808
76257SOL     OW30667   2.391   5.351   9.447
76257SOL    HW130668   2.342   5.390   9.375
76257SOL    HW230669   2.356   5.394   9.525
76258SOL     OW30670   1.763   4.739  14.163
76258SOL    HW130671   1.713   4.732  14.082
76258SOL    HW230672   1.812   4.657  14.168
76259SOL     OW30673   1.564  12.385   1.182
76259SOL    HW130674   1.577  12.303   1.136
76259SOL    HW230675   1.645  12.434   1.168
76260SOL     OW30676  10.887  14.550  10.185
76260SOL    HW130677  10.917  14.624  10.239
76260SOL    HW230678  10.853  14.486  10.248
76261SOL     OW30679   1.866  13.330  12.429
76261SOL    HW130680   1.864  13.371  12.516
76261SOL    HW230681   1.952  13.288  12.424
76262SOL     OW30682   4.885   5.964   3.244
76262SOL    HW130683   4.804   5.963   3.295
76262SOL    HW230684   4.934   5.888   3.275
76263SOL     OW30685  10.382   1.649   8.838
76263SOL    HW130686  10.296   1.634   8.877
76263SOL    HW230687  10.402   1.740   8.859
76264SOL     OW30688   8.700  12.791  12.303
76264SOL    HW130689   8.605  12.782  12.291
76264SOL    HW230690   8.737  12.763  12.220
76265SOL     OW30691   4.840  13.078   2.346
76265SOL    HW130692   4.792  13.061   2.265
76265SOL    HW230693   4.894  13.000   2.359
76266SOL     OW30694   7.522   1.427  10.985
76266SOL    HW130695   7.579   1.489  10.940
76266SOL    HW230696   7.496   1.473  11.065
76267SOL     OW30697   6.575   5.097   8.421
76267SOL    HW130698   6.488   5.136   8.410
76267SOL    HW230699   6.634   5.159   8.379
76268SOL     OW30700  10.958   7.589   1.135
76268SOL    HW130701  10.951   7.627   1.223
76268SOL    HW230702  10.946   7.663   1.076
76269SOL     OW30703   7.830  14.704  13.071
76269SOL    HW130704   7.749  14.749  13.045
76269SOL    HW230705   7.897  14.773  13.069
76270SOL     OW30706  10.304   3.075   9.388
76270SOL    HW130707  10.371   3.079   9.320
76270SOL    HW230708  10.265   3.162   9.389
76271SOL     OW30709   9.181   3.421   7.811
76271SOL    HW130710   9.157   3.328   7.819
76271SOL    HW230711   9.148   3.461   7.891
76272SOL     OW30712   5.350   9.190   7.198
76272SOL    HW130713   5.276   9.155   7.249
76272SOL    HW230714   5.392   9.112   7.161
76273SOL     OW30715   9.364  14.236   1.494
76273SOL    HW130716   9.300  14.164   1.498
76273SOL    HW230717   9.351  14.283   1.577
76274SOL     OW30718  14.655   7.202   2.583
76274SOL    HW130719  14.593   7.273   2.598
76274SOL    HW230720  14.645   7.181   2.490
76275SOL     OW30721  11.200   8.869  12.679
76275SOL    HW130722  11.199   8.837  12.769
76275SOL    HW230723  11.125   8.825  12.637
76276SOL     OW30724  12.578   5.058   6.898
76276SOL    HW130725  12.515   5.128   6.881
76276SOL    HW230726  12.538   5.006   6.969
76277SOL     OW30727  11.138   7.548   4.982
76277SOL    HW130728  11.109   7.631   5.020
76277SOL    HW230729  11.228   7.564   4.952
76278SOL     OW30730   0.240  13.123   3.134
76278SOL    HW130731   0.332  13.147   3.142
76278SOL    HW230732   0.214  13.156   3.048
76279SOL     OW30733   2.102   5.875   9.421
76279SOL    HW130734   2.145   5.883   9.335
76279SOL    HW230735   2.028   5.935   9.416
76280SOL     OW30736   7.347   1.037   6.186
76280SOL    HW130737   7.350   0.966   6.122
76280SOL    HW230738   7.414   1.016   6.250
76281SOL     OW30739   1.976  12.111   0.786
76281SOL    HW130740   1.965  12.073   0.698
76281SOL    HW230741   2.070  12.104   0.803
76282SOL     OW30742   5.000   6.841   8.320
76282SOL    HW130743   5.028   6.829   8.229
76282SOL    HW230744   5.058   6.784   8.370
76283SOL     OW30745  14.023   2.082   2.352
76283SOL    HW130746  14.014   2.002   2.404
76283SOL    HW230747  13.958   2.142   2.388
76284SOL     OW30748  12.913   4.214   0.627
76284SOL    HW130749  12.935   4.234   0.718
76284SOL    HW230750  12.966   4.276   0.576
76285SOL     OW30751   3.475   8.484  11.569
76285SOL    HW130752   3.480   8.389  11.574
76285SOL    HW230753   3.539   8.515  11.634
76286SOL     OW30754   2.973   4.983  11.834
76286SOL    HW130755   3.016   4.989  11.749
76286SOL    HW230756   3.035   5.023  11.895
76287SOL     OW30757  13.060   0.773   3.157
76287SOL    HW130758  13.062   0.748   3.065
76287SOL    HW230759  13.008   0.853   3.159
76288SOL     OW30760   5.493   2.681   6.867
76288SOL    HW130761   5.549   2.757   6.854
76288SOL    HW230762   5.409   2.706   6.828
76289SOL     OW30763   2.642   5.705   7.178
76289SOL    HW130764   2.598   5.650   7.113
76289SOL    HW230765   2.735   5.695   7.160
76290SOL     OW30766   7.356   9.017  10.917
76290SOL    HW130767   7.296   8.943  10.923
76290SOL    HW230768   7.311   9.089  10.961
76291SOL     OW30769  13.810  14.736  12.450
76291SOL    HW130770  13.744  14.799  12.478
76291SOL    HW230771  13.760  14.657  12.430
76292SOL     OW30772  13.744  12.080   1.111
76292SOL    HW130773  13.663  12.124   1.137
76292SOL    HW230774  13.721  11.988   1.104
76293SOL     OW30775   1.076  12.133  11.127
76293SOL    HW130776   0.997  12.099  11.170
76293SOL    HW230777   1.131  12.164  11.198
76294SOL     OW30778  10.700   1.940   9.498
76294SOL    HW130779  10.700   1.969   9.406
76294SOL    HW230780  10.667   2.015   9.547
76295SOL     OW30781   2.910  11.507   1.275
76295SOL    HW130782   2.892  11.417   1.302
76295SOL    HW230783   2.864  11.516   1.191
76296SOL     OW30784  10.313   5.007  10.436
76296SOL    HW130785  10.353   5.011  10.350
76296SOL    HW230786  10.344   4.924  10.473
76297SOL     OW30787  12.017  10.678   8.261
76297SOL    HW130788  12.048  10.628   8.185
76297SOL    HW230789  12.068  10.643   8.334
76298SOL     OW30790   2.094   4.062  11.542
76298SOL    HW130791   2.179   4.086  11.578
76298SOL    HW230792   2.060   4.143  11.504
76299SOL     OW30793   1.156   5.042   2.129
76299SOL    HW130794   1.146   5.131   2.097
76299SOL    HW230795   1.116   5.043   2.216
76300SOL     OW30796   0.237   5.734   8.327
76300SOL    HW130797   0.241   5.701   8.237
76300SOL    HW230798   0.318   5.784   8.338
76301SOL     OW30799  10.211   2.279  10.913
76301SOL    HW130800  10.237   2.363  10.952
76301SOL    HW230801  10.162   2.304  10.835
76302SOL     OW30802   0.250   4.147  14.669
76302SOL    HW130803   0.162   4.148  14.632
76302SOL    HW230804   0.259   4.233  14.711
76303SOL     OW30805   1.769  11.560  14.494
76303SOL    HW130806   1.836  11.536  14.558
76303SOL    HW230807   1.799  11.522  14.412
76304SOL     OW30808  13.564   7.536  10.264
76304SOL    HW130809  13.579   7.458  10.318
76304SOL    HW230810  13.554   7.607  10.327
76305SOL     OW30811   0.345   1.387  13.373
76305SOL    HW130812   0.305   1.428  13.450
76305SOL    HW230813   0.295   1.422  13.299
76306SOL     OW30814   5.413   5.239  14.367
76306SOL    HW130815   5.478   5.173  14.341
76306SOL    HW230816   5.420   5.306  14.299
76307SOL     OW30817   9.236  13.296   0.374
76307SOL    HW130818   9.271  13.210   0.396
76307SOL    HW230819   9.186  13.322   0.452
76308SOL     OW30820  13.360  12.799   4.543
76308SOL    HW130821  13.293  12.749   4.496
76308SOL    HW230822  13.433  12.806   4.482
76309SOL     OW30823   1.100   4.653   8.025
76309SOL    HW130824   1.029   4.599   7.989
76309SOL    HW230825   1.068   4.680   8.111
76310SOL     OW30826  10.971   3.074  14.274
76310SOL    HW130827  10.962   2.986  14.309
76310SOL    HW230828  10.890   3.119  14.301
76311SOL     OW30829   1.903   1.540   3.258
76311SOL    HW130830   1.910   1.581   3.172
76311SOL    HW230831   1.860   1.456   3.242
76312SOL     OW30832   1.280   4.239   6.565
76312SOL    HW130833   1.289   4.150   6.528
76312SOL    HW230834   1.284   4.226   6.659
76313SOL     OW30835   2.531   7.371   1.829
76313SOL    HW130836   2.530   7.467   1.829
76313SOL    HW230837   2.492   7.347   1.913
76314SOL     OW30838  12.690  13.220  10.181
76314SOL    HW130839  12.736  13.146  10.221
76314SOL    HW230840  12.689  13.201  10.088
76315SOL     OW30841  12.168  14.121   9.349
76315SOL    HW130842  12.222  14.167   9.285
76315SOL    HW230843  12.227  14.106   9.423
76316SOL     OW30844  13.821  14.671  14.259
76316SOL    HW130845  13.783  14.628  14.336
76316SOL    HW230846  13.914  14.679  14.279
76317SOL     OW30847   4.604  14.049   3.300
76317SOL    HW130848   4.603  13.999   3.218
76317SOL    HW230849   4.515  14.042   3.333
76318SOL     OW30850   0.073   6.259   4.390
76318SOL    HW130851   0.015   6.300   4.453
76318SOL    HW230852   0.160   6.296   4.409
76319SOL     OW30853   0.097   4.251   0.384
76319SOL    HW130854   0.169   4.220   0.438
76319SOL    HW230855   0.084   4.342   0.412
76320SOL     OW30856   2.589  13.313  11.404
76320SOL    HW130857   2.640  13.392  11.386
76320SOL    HW230858   2.618  13.251  11.337
76321SOL     OW30859   8.172   5.929   3.244
76321SOL    HW130860   8.096   5.966   3.198
76321SOL    HW230861   8.189   5.846   3.199
76322SOL     OW30862   5.577  10.853   4.223
76322SOL    HW130863   5.568  10.916   4.295
76322SOL    HW230864   5.555  10.904   4.145
76323SOL     OW30865  11.959  14.326  12.292
76323SOL    HW130866  11.930  14.281  12.212
76323SOL    HW230867  12.012  14.261  12.338
76324SOL     OW30868   4.173  11.344  13.142
76324SOL    HW130869   4.088  11.348  13.098
76324SOL    HW230870   4.170  11.263  13.193
76325SOL     OW30871  12.497   8.544  13.747
76325SOL    HW130872  12.413   8.531  13.704
76325SOL    HW230873  12.547   8.466  13.725
76326SOL     OW30874   2.855  12.839   4.119
76326SOL    HW130875   2.909  12.915   4.138
76326SOL    HW230876   2.917  12.772   4.090
76327SOL     OW30877   3.905   2.143   6.610
76327SOL    HW130878   3.881   2.183   6.693
76327SOL    HW230879   3.848   2.066   6.603
76328SOL     OW30880   0.503   0.024   5.466
76328SOL    HW130881   0.411   0.044   5.451
76328SOL    HW230882   0.518  14.812   5.422
76329SOL     OW30883   5.876   3.171   9.818
76329SOL    HW130884   5.792   3.183   9.861
76329SOL    HW230885   5.929   3.245   9.849
76330SOL     OW30886   0.115   8.299   7.305
76330SOL    HW130887   0.175   8.323   7.235
76330SOL    HW230888   0.171   8.273   7.378
76331SOL     OW30889  12.514   2.859   2.532
76331SOL    HW130890  12.508   2.929   2.597
76331SOL    HW230891  12.580   2.799   2.567
76332SOL     OW30892   3.255  13.658   3.081
76332SOL    HW130893   3.283  13.581   3.033
76332SOL    HW230894   3.195  13.703   3.023
76333SOL     OW30895  14.539   5.124   9.511
76333SOL    HW130896  14.476   5.158   9.575
76333SOL    HW230897  14.519   5.172   9.431
76334SOL     OW30898   8.897   2.722   6.314
76334SOL    HW130899   8.931   2.748   6.400
76334SOL    HW230900   8.881   2.805   6.269
76335SOL     OW30901   1.730   0.373   5.682
76335SOL    HW130902   1.737   0.320   5.602
76335SOL    HW230903   1.637   0.372   5.704
76336SOL     OW30904  11.433   7.378   2.384
76336SOL    HW130905  11.520   7.400   2.417
76336SOL    HW230906  11.447   7.296   2.335
76337SOL     OW30907   3.126   1.604   7.307
76337SOL    HW130908   3.122   1.608   7.212
76337SOL    HW230909   3.186   1.673   7.332
76338SOL     OW30910  14.058   8.843  11.656
76338SOL    HW130911  14.019   8.842  11.569
76338SOL    HW230912  13.986   8.817  11.714
76339SOL     OW30913   5.654  14.505   5.796
76339SOL    HW130914   5.729  14.554   5.829
76339SOL    HW230915   5.613  14.467   5.874
76340SOL     OW30916  11.401   5.630   7.461
76340SOL    HW130917  11.357   5.559   7.508
76340SOL    HW230918  11.405   5.701   7.525
76341SOL     OW30919   3.458  10.764   5.108
76341SOL    HW130920   3.536  10.719   5.141
76341SOL    HW230921   3.475  10.857   5.125
76342SOL     OW30922   2.138  11.451  13.667
76342SOL    HW130923   2.197  11.453  13.592
76342SOL    HW230924   2.073  11.519  13.649
76343SOL     OW30925   1.403   7.533  10.280
76343SOL    HW130926   1.342   7.467  10.314
76343SOL    HW230927   1.461   7.483  10.222
76344SOL     OW30928  14.446   9.092  13.061
76344SOL    HW130929  14.424   9.149  12.988
76344SOL    HW230930  14.420   9.004  13.031
76345SOL     OW30931   7.867   6.295   0.807
76345SOL    HW130932   7.946   6.251   0.837
76345SOL    HW230933   7.883   6.388   0.824
76346SOL     OW30934  13.627   1.820   2.392
76346SOL    HW130935  13.602   1.851   2.305
76346SOL    HW230936  13.682   1.743   2.375
76347SOL     OW30937   8.269  11.029   0.030
76347SOL    HW130938   8.343  10.990   0.076
76347SOL    HW230939   8.218  10.954  14.870
76348SOL     OW30940   1.174   0.517   2.134
76348SOL    HW130941   1.136   0.438   2.097
76348SOL    HW230942   1.125   0.589   2.093
76349SOL     OW30943   8.980   5.719   5.870
76349SOL    HW130944   9.058   5.775   5.876
76349SOL    HW230945   9.016   5.631   5.856
76350SOL     OW30946  11.105  11.460  14.630
76350SOL    HW130947  11.045  11.531  14.603
76350SOL    HW230948  11.124  11.413  14.549
76351SOL     OW30949  10.784   4.572   6.835
76351SOL    HW130950  10.734   4.558   6.755
76351SOL    HW230951  10.802   4.666   6.836
76352SOL     OW30952   1.698   2.566   1.129
76352SOL    HW130953   1.618   2.557   1.077
76352SOL    HW230954   1.719   2.477   1.157
76353SOL     OW30955   9.409  13.863   9.100
76353SOL    HW130956   9.339  13.927   9.093
76353SOL    HW230957   9.371  13.790   9.149
76354SOL     OW30958  10.458   0.945   5.953
76354SOL    HW130959  10.488   0.899   6.031
76354SOL    HW230960  10.386   0.891   5.920
76355SOL     OW30961   3.134   6.831   2.341
76355SOL    HW130962   3.123   6.925   2.326
76355SOL    HW230963   3.196   6.826   2.414
76356SOL     OW30964   6.478   6.850  13.845
76356SOL    HW130965   6.387   6.880  13.852
76356SOL    HW230966   6.489   6.790  13.919
76357SOL     OW30967   6.710   9.964   6.904
76357SOL    HW130968   6.801   9.966   6.874
76357SOL    HW230969   6.700   9.876   6.941
76358SOL     OW30970  13.155   9.932   1.243
76358SOL    HW130971  13.164   9.919   1.338
76358SOL    HW230972  13.244   9.950   1.213
76359SOL     OW30973   4.089   3.003   9.159
76359SOL    HW130974   4.064   3.093   9.136
76359SOL    HW230975   4.031   2.981   9.232
76360SOL     OW30976   3.020   2.628   6.702
76360SOL    HW130977   3.099   2.576   6.709
76360SOL    HW230978   2.949   2.565   6.714
76361SOL     OW30979  11.026   8.667   5.072
76361SOL    HW130980  11.098   8.726   5.048
76361SOL    HW230981  11.069   8.584   5.091
76362SOL     OW30982  11.295   6.497   1.604
76362SOL    HW130983  11.298   6.557   1.678
76362SOL    HW230984  11.296   6.410   1.643
76363SOL     OW30985   4.729   7.007   6.776
76363SOL    HW130986   4.795   7.065   6.812
76363SOL    HW230987   4.727   6.933   6.836
76364SOL     OW30988   9.149   1.918   6.425
76364SOL    HW130989   9.219   1.957   6.477
76364SOL    HW230990   9.086   1.887   6.491
76365SOL     OW30991   2.275   4.525  13.345
76365SOL    HW130992   2.270   4.607  13.394
76365SOL    HW230993   2.184   4.505  13.321
76366SOL     OW30994   5.284   4.048  12.907
76366SOL    HW130995   5.379   4.047  12.894
76366SOL    HW230996   5.255   3.962  12.876
76367SOL     OW30997   6.789   7.053   4.466
76367SOL    HW130998   6.796   7.110   4.390
76367SOL    HW230999   6.715   7.090   4.516
76368SOL     OW31000   9.141   6.274   4.569
76368SOL    HW131001   9.117   6.191   4.611
76368SOL    HW231002   9.179   6.249   4.485
76369SOL     OW31003   3.023  13.308  11.940
76369SOL    HW131004   3.025  13.261  12.024
76369SOL    HW231005   2.965  13.382  11.956
76370SOL     OW31006  13.303   4.235   5.355
76370SOL    HW131007  13.229   4.192   5.397
76370SOL    HW231008  13.263   4.301   5.298
76371SOL     OW31009   6.710  12.124   1.342
76371SOL    HW131010   6.776  12.150   1.406
76371SOL    HW231011   6.653  12.064   1.389
76372SOL     OW31012   8.662   0.763   2.337
76372SOL    HW131013   8.588   0.708   2.311
76372SOL    HW231014   8.658   0.766   2.432
76373SOL     OW31015   5.421   7.371   7.770
76373SOL    HW131016   5.412   7.460   7.738
76373SOL    HW231017   5.515   7.354   7.772
76374SOL     OW31018   0.957  10.057  14.426
76374SOL    HW131019   0.996  10.144  14.433
76374SOL    HW231020   1.029   9.997  14.445
76375SOL     OW31021   8.736  10.661  14.486
76375SOL    HW131022   8.784  10.713  14.551
76375SOL    HW231023   8.649  10.650  14.523
76376SOL     OW31024   4.998   7.676   0.949
76376SOL    HW131025   4.970   7.598   0.996
76376SOL    HW231026   4.918   7.711   0.910
76377SOL     OW31027   8.959  10.586   0.629
76377SOL    HW131028   8.980  10.506   0.678
76377SOL    HW231029   8.968  10.561   0.537
76378SOL     OW31030   3.657   2.224   8.162
76378SOL    HW131031   3.598   2.186   8.097
76378SOL    HW231032   3.744   2.194   8.138
76379SOL     OW31033   8.702   6.206   6.970
76379SOL    HW131034   8.751   6.171   6.896
76379SOL    HW231035   8.620   6.237   6.932
76380SOL     OW31036   2.150   5.165   4.371
76380SOL    HW131037   2.208   5.221   4.422
76380SOL    HW231038   2.082   5.138   4.433
76381SOL     OW31039   2.231   8.905  13.012
76381SOL    HW131040   2.169   8.875  12.945
76381SOL    HW231041   2.269   8.824  13.046
76382SOL     OW31042   8.643   4.473  14.021
76382SOL    HW131043   8.715   4.419  14.053
76382SOL    HW231044   8.609   4.424  13.945
76383SOL     OW31045  10.253   6.668   5.009
76383SOL    HW131046  10.332   6.680   5.062
76383SOL    HW231047  10.181   6.690   5.068
76384SOL     OW31048   1.908  12.465   4.903
76384SOL    HW131049   1.836  12.404   4.883
76384SOL    HW231050   1.971  12.451   4.833
76385SOL     OW31051   5.150  12.635   0.183
76385SOL    HW131052   5.064  12.599   0.161
76385SOL    HW231053   5.142  12.662   0.274
76386SOL     OW31054   1.743   6.916   1.861
76386SOL    HW131055   1.740   6.845   1.796
76386SOL    HW231056   1.715   6.994   1.812
76387SOL     OW31057   2.918   7.223   8.494
76387SOL    HW131058   2.828   7.208   8.525
76387SOL    HW231059   2.953   7.288   8.555
76388SOL     OW31060  14.307  13.481   3.814
76388SOL    HW131061  14.352  13.413   3.863
76388SOL    HW231062  14.283  13.440   3.731
76389SOL     OW31063   5.076   8.261  10.711
76389SOL    HW131064   5.157   8.311  10.724
76389SOL    HW231065   5.011   8.307  10.763
76390SOL     OW31066  13.633   7.859   2.186
76390SOL    HW131067  13.570   7.927   2.208
76390SOL    HW231068  13.671   7.887   2.102
76391SOL     OW31069   0.901  12.926   8.022
76391SOL    HW131070   0.926  12.980   7.947
76391SOL    HW231071   0.896  12.837   7.988
76392SOL     OW31072   5.557   4.925   4.802
76392SOL    HW131073   5.467   4.908   4.828
76392SOL    HW231074   5.552   4.951   4.710
76393SOL     OW31075   8.964   6.746   1.198
76393SOL    HW131076   9.053   6.771   1.222
76393SOL    HW231077   8.972   6.656   1.166
76394SOL     OW31078   8.893   8.930   5.119
76394SOL    HW131079   8.809   8.886   5.109
76394SOL    HW231080   8.889   8.970   5.206
76395SOL     OW31081   5.654   5.014  13.231
76395SOL    HW131082   5.723   5.079  13.218
76395SOL    HW231083   5.675   4.973  13.315
76396SOL     OW31084   3.710   9.244  10.192
76396SOL    HW131085   3.763   9.317  10.224
76396SOL    HW231086   3.640   9.285  10.142
76397SOL     OW31087   5.090   8.635   7.792
76397SOL    HW131088   5.145   8.557   7.799
76397SOL    HW231089   5.002   8.600   7.776
76398SOL     OW31090   7.174  11.278   4.034
76398SOL    HW131091   7.185  11.317   3.947
76398SOL    HW231092   7.261  11.283   4.074
76399SOL     OW31093   8.275   1.330  13.126
76399SOL    HW131094   8.190   1.302  13.092
76399SOL    HW231095   8.329   1.344  13.049
76400SOL     OW31096   5.659  12.246   6.921
76400SOL    HW131097   5.618  12.161   6.939
76400SOL    HW231098   5.665  12.251   6.826
76401SOL     OW31099  13.714   4.516   9.453
76401SOL    HW131100  13.736   4.539   9.544
76401SOL    HW231101  13.783   4.455   9.426
76402SOL     OW31102   7.611  13.966   1.260
76402SOL    HW131103   7.661  13.935   1.185
76402SOL    HW231104   7.649  13.919   1.335
76403SOL     OW31105   2.888   2.665   4.164
76403SOL    HW131106   2.970   2.673   4.214
76403SOL    HW231107   2.917   2.652   4.074
76404SOL     OW31108   7.204   1.954   5.924
76404SOL    HW131109   7.153   1.878   5.952
76404SOL    HW231110   7.213   2.008   6.003
76405SOL     OW31111   7.292  10.763  13.729
76405SOL    HW131112   7.295  10.859  13.726
76405SOL    HW231113   7.218  10.739  13.674
76406SOL     OW31114   8.884  14.560   0.959
76406SOL    HW131115   8.892  14.558   0.864
76406SOL    HW231116   8.802  14.606   0.975
76407SOL     OW31117  12.594   7.129   2.443
76407SOL    HW131118  12.540   7.207   2.445
76407SOL    HW231119  12.555   7.074   2.375
76408SOL     OW31120   9.861  13.307  10.806
76408SOL    HW131121   9.935  13.248  10.792
76408SOL    HW231122   9.886  13.360  10.882
76409SOL     OW31123   1.524  11.881   4.897
76409SOL    HW131124   1.562  11.872   4.810
76409SOL    HW231125   1.592  11.922   4.950
76410SOL     OW31126  10.307  13.971   3.512
76410SOL    HW131127  10.264  14.002   3.592
76410SOL    HW231128  10.394  14.009   3.515
76411SOL     OW31129  13.298  11.354   0.738
76411SOL    HW131130  13.212  11.318   0.716
76411SOL    HW231131  13.359  11.309   0.678
76412SOL     OW31132  13.127  13.015  13.437
76412SOL    HW131133  13.072  13.048  13.366
76412SOL    HW231134  13.064  12.978  13.500
76413SOL     OW31135   1.234  12.972   6.323
76413SOL    HW131136   1.138  12.969   6.330
76413SOL    HW231137   1.255  12.903   6.260
76414SOL     OW31138   6.373   8.560  11.020
76414SOL    HW131139   6.391   8.561  10.926
76414SOL    HW231140   6.425   8.633  11.054
76415SOL     OW31141   9.503   5.585   5.343
76415SOL    HW131142   9.563   5.547   5.278
76415SOL    HW231143   9.535   5.550   5.427
76416SOL     OW31144  14.854   0.347   6.659
76416SOL    HW131145  14.813   0.323   6.742
76416SOL    HW231146  14.864   0.264   6.613
76417SOL     OW31147   3.719   9.825   1.821
76417SOL    HW131148   3.803   9.870   1.807
76417SOL    HW231149   3.744   9.735   1.842
76418SOL     OW31150   4.148   4.820  13.560
76418SOL    HW131151   4.161   4.736  13.604
76418SOL    HW231152   4.213   4.879  13.600
76419SOL     OW31153   1.594   8.829   4.206
76419SOL    HW131154   1.618   8.755   4.261
76419SOL    HW231155   1.524   8.796   4.150
76420SOL     OW31156  11.128   7.891   7.870
76420SOL    HW131157  11.126   7.849   7.784
76420SOL    HW231158  11.213   7.867   7.906
76421SOL     OW31159   8.096   9.273   7.951
76421SOL    HW131160   8.012   9.254   7.911
76421SOL    HW231161   8.124   9.190   7.990
76422SOL     OW31162  13.557  14.694  13.470
76422SOL    HW131163  13.521  14.769  13.424
76422SOL    HW231164  13.604  14.732  13.545
76423SOL     OW31165   8.567  13.182  11.454
76423SOL    HW131166   8.575  13.107  11.514
76423SOL    HW231167   8.629  13.246  11.487
76424SOL     OW31168   8.709   2.598   2.951
76424SOL    HW131169   8.737   2.560   2.868
76424SOL    HW231170   8.754   2.683   2.955
76425SOL     OW31171  13.922   4.008   4.656
76425SOL    HW131172  13.957   3.979   4.740
76425SOL    HW231173  13.882   3.929   4.618
76426SOL     OW31174  11.839   6.545   2.708
76426SOL    HW131175  11.822   6.626   2.757
76426SOL    HW231176  11.755   6.523   2.669
76427SOL     OW31177  10.259  13.805   7.041
76427SOL    HW131178  10.348  13.814   7.005
76427SOL    HW231179  10.224  13.894   7.042
76428SOL     OW31180   1.538   9.040   5.892
76428SOL    HW131181   1.498   9.101   5.955
76428SOL    HW231182   1.489   8.959   5.903
76429SOL     OW31183   3.621   6.466   0.839
76429SOL    HW131184   3.618   6.417   0.757
76429SOL    HW231185   3.617   6.399   0.907
76430SOL     OW31186  12.587   3.410  13.812
76430SOL    HW131187  12.621   3.335  13.861
76430SOL    HW231188  12.492   3.398  13.812
76431SOL     OW31189   4.567   9.171   3.936
76431SOL    HW131190   4.527   9.171   4.022
76431SOL    HW231191   4.550   9.083   3.902
76432SOL     OW31192   2.863   3.220   4.789
76432SOL    HW131193   2.894   3.208   4.700
76432SOL    HW231194   2.925   3.282   4.828
76433SOL     OW31195   0.161   4.389   4.277
76433SOL    HW131196   0.249   4.422   4.295
76433SOL    HW231197   0.159   4.376   4.182
76434SOL     OW31198   7.064   3.291  10.148
76434SOL    HW131199   7.000   3.219  10.154
76434SOL    HW231200   7.023   3.363  10.195
76435SOL     OW31201   8.191  10.778   0.656
76435SOL    HW131202   8.212  10.740   0.741
76435SOL    HW231203   8.261  10.748   0.599
76436SOL     OW31204   1.684  12.306  10.884
76436SOL    HW131205   1.675  12.227  10.831
76436SOL    HW231206   1.674  12.276  10.974
76437SOL     OW31207   0.689   7.302   8.059
76437SOL    HW131208   0.768   7.301   8.006
76437SOL    HW231209   0.714   7.259   8.141
76438SOL     OW31210   6.343   7.362  12.194
76438SOL    HW131211   6.387   7.291  12.148
76438SOL    HW231212   6.369   7.441  12.147
76439SOL     OW31213   7.717   2.668   3.668
76439SOL    HW131214   7.781   2.646   3.735
76439SOL    HW231215   7.648   2.715   3.715
76440SOL     OW31216   1.619   1.710  13.605
76440SOL    HW131217   1.698   1.657  13.611
76440SOL    HW231218   1.616   1.757  13.689
76441SOL     OW31219   3.031  14.520  12.288
76441SOL    HW131220   3.117  14.494  12.256
76441SOL    HW231221   2.974  14.515  12.211
76442SOL     OW31222   2.500  12.250   0.777
76442SOL    HW131223   2.425  12.300   0.809
76442SOL    HW231224   2.552  12.232   0.856
76443SOL     OW31225   2.548   8.034   6.677
76443SOL    HW131226   2.458   8.064   6.666
76443SOL    HW231227   2.601   8.095   6.625
76444SOL     OW31228  14.465   8.137   3.847
76444SOL    HW131229  14.552   8.100   3.835
76444SOL    HW231230  14.479   8.231   3.857
76445SOL     OW31231   8.091   8.369   7.052
76445SOL    HW131232   7.996   8.381   7.047
76445SOL    HW231233   8.123   8.449   7.094
76446SOL     OW31234   7.920  11.084   4.388
76446SOL    HW131235   7.839  11.035   4.379
76446SOL    HW231236   7.892  11.175   4.398
76447SOL     OW31237  13.748   3.100  11.405
76447SOL    HW131238  13.812   3.092  11.476
76447SOL    HW231239  13.687   3.167  11.435
76448SOL     OW31240   6.851   2.454  11.817
76448SOL    HW131241   6.790   2.525  11.833
76448SOL    HW231242   6.815   2.379  11.866
76449SOL     OW31243   3.356  13.950  10.158
76449SOL    HW131244   3.435  13.920  10.202
76449SOL    HW231245   3.362  13.912  10.070
76450SOL     OW31246  12.280  11.063   9.569
76450SOL    HW131247  12.347  11.071   9.637
76450SOL    HW231248  12.198  11.081   9.614
76451SOL     OW31249  12.455   3.718   8.268
76451SOL    HW131250  12.427   3.633   8.234
76451SOL    HW231251  12.415   3.782   8.209
76452SOL     OW31252  10.829  11.773   6.683
76452SOL    HW131253  10.844  11.753   6.591
76452SOL    HW231254  10.917  11.775   6.721
76453SOL     OW31255   3.085   5.337   5.760
76453SOL    HW131256   3.043   5.258   5.726
76453SOL    HW231257   3.035   5.409   5.721
76454SOL     OW31258   5.907   1.798   6.563
76454SOL    HW131259   5.968   1.726   6.582
76454SOL    HW231260   5.961   1.863   6.518
76455SOL     OW31261  10.049  12.106   6.050
76455SOL    HW131262  10.012  12.022   6.022
76455SOL    HW231263  10.131  12.083   6.093
76456SOL     OW31264   2.413   1.815  12.638
76456SOL    HW131265   2.475   1.801  12.567
76456SOL    HW231266   2.423   1.907  12.661
76457SOL     OW31267   9.786   2.112  14.542
76457SOL    HW131268   9.827   2.118  14.456
76457SOL    HW231269   9.776   2.018  14.558
76458SOL     OW31270  11.326   2.559   5.753
76458SOL    HW131271  11.419   2.571   5.733
76458SOL    HW231272  11.321   2.567   5.848
76459SOL     OW31273   9.374   1.616   3.975
76459SOL    HW131274   9.444   1.671   4.010
76459SOL    HW231275   9.293   1.661   3.999
76460SOL     OW31276   1.424  10.141   5.080
76460SOL    HW131277   1.469  10.195   5.145
76460SOL    HW231278   1.387  10.069   5.131
76461SOL     OW31279  12.498   5.566   0.424
76461SOL    HW131280  12.444   5.590   0.348
76461SOL    HW231281  12.505   5.647   0.474
76462SOL     OW31282  14.414   4.597   2.662
76462SOL    HW131283  14.359   4.670   2.690
76462SOL    HW231284  14.425   4.543   2.740
76463SOL     OW31285   5.019   7.637   8.758
76463SOL    HW131286   4.952   7.628   8.826
76463SOL    HW231287   5.050   7.547   8.743
76464SOL     OW31288   6.395   3.117  11.113
76464SOL    HW131289   6.434   3.066  11.041
76464SOL    HW231290   6.353   3.191  11.070
76465SOL     OW31291   4.716   2.699   7.896
76465SOL    HW131292   4.796   2.715   7.945
76465SOL    HW231293   4.745   2.690   7.805
76466SOL     OW31294   9.223  14.472   2.175
76466SOL    HW131295   9.201  14.558   2.211
76466SOL    HW231296   9.148  14.448   2.121
76467SOL     OW31297   3.352  12.516   4.485
76467SOL    HW131298   3.266  12.478   4.503
76467SOL    HW231299   3.334  12.594   4.433
76468SOL     OW31300   0.416   1.872  14.102
76468SOL    HW131301   0.361   1.911  14.034
76468SOL    HW231302   0.504   1.902  14.081
76469SOL     OW31303   5.529  13.531   7.050
76469SOL    HW131304   5.467  13.588   7.095
76469SOL    HW231305   5.475  13.462   7.011
76470SOL     OW31306   6.251   2.260   7.023
76470SOL    HW131307   6.253   2.241   6.929
76470SOL    HW231308   6.261   2.175   7.065
76471SOL     OW31309   6.027  13.358   6.463
76471SOL    HW131310   6.075  13.399   6.391
76471SOL    HW231311   6.004  13.430   6.521
76472SOL     OW31312   0.166   4.555  14.153
76472SOL    HW131313   0.109   4.500  14.099
76472SOL    HW231314   0.116   4.635  14.167
76473SOL     OW31315   1.050   1.698   8.299
76473SOL    HW131316   0.986   1.766   8.317
76473SOL    HW231317   1.124   1.744   8.258
76474SOL     OW31318   0.414  14.722   6.921
76474SOL    HW131319   0.422  14.810   6.958
76474SOL    HW231320   0.350  14.678   6.978
76475SOL     OW31321   0.248   7.307  11.395
76475SOL    HW131322   0.217   7.217  11.397
76475SOL    HW231323   0.339   7.301  11.423
76476SOL     OW31324   4.809   5.560  14.206
76476SOL    HW131325   4.742   5.494  14.225
76476SOL    HW231326   4.859   5.567  14.288
76477SOL     OW31327  12.236   1.618  14.766
76477SOL    HW131328  12.297   1.687  14.790
76477SOL    HW231329  12.269   1.583  14.684
76478SOL     OW31330  14.078   8.127  10.374
76478SOL    HW131331  14.102   8.055  10.433
76478SOL    HW231332  13.986   8.112  10.354
76479SOL     OW31333   3.679  12.419  10.183
76479SOL    HW131334   3.680  12.513  10.163
76479SOL    HW231335   3.772  12.394  10.184
76480SOL     OW31336  13.324   3.928   6.220
76480SOL    HW131337  13.414   3.898   6.203
76480SOL    HW231338  13.295   3.874   6.294
76481SOL     OW31339   8.252   3.348   3.166
76481SOL    HW131340   8.323   3.284   3.173
76481SOL    HW231341   8.186   3.306   3.112
76482SOL     OW31342   4.638  12.217  14.851
76482SOL    HW131343   4.596  12.132  14.858
76482SOL    HW231344   4.566  12.280  14.846
76483SOL     OW31345   8.059  12.316  13.266
76483SOL    HW131346   8.043  12.364  13.347
76483SOL    HW231347   8.021  12.371  13.198
76484SOL     OW31348   6.898   4.981   2.998
76484SOL    HW131349   6.907   5.074   2.976
76484SOL    HW231350   6.978   4.960   3.047
76485SOL     OW31351   8.549   1.213   9.892
76485SOL    HW131352   8.522   1.279   9.955
76485SOL    HW231353   8.590   1.262   9.821
76486SOL     OW31354  14.296  11.201   6.069
76486SOL    HW131355  14.386  11.213   6.038
76486SOL    HW231356  14.290  11.258   6.145
76487SOL     OW31357  12.015   6.405   0.603
76487SOL    HW131358  12.031   6.357   0.521
76487SOL    HW231359  11.965   6.344   0.657
76488SOL     OW31360   9.823   8.200   4.862
76488SOL    HW131361   9.736   8.162   4.849
76488SOL    HW231362   9.815   8.251   4.943
76489SOL     OW31363   8.126   5.234  13.630
76489SOL    HW131364   8.097   5.150  13.665
76489SOL    HW231365   8.055   5.295  13.651
76490SOL     OW31366   3.780   8.080  10.176
76490SOL    HW131367   3.704   8.025  10.157
76490SOL    HW231368   3.841   8.021  10.220
76491SOL     OW31369   7.396   6.254   4.089
76491SOL    HW131370   7.414   6.348   4.096
76491SOL    HW231371   7.424   6.230   4.000
76492SOL     OW31372   3.792  12.605   5.104
76492SOL    HW131373   3.699  12.587   5.089
76492SOL    HW231374   3.837  12.530   5.066
76493SOL     OW31375   1.416   8.167   3.661
76493SOL    HW131376   1.358   8.113   3.715
76493SOL    HW231377   1.416   8.124   3.576
76494SOL     OW31378   8.720   5.725  10.342
76494SOL    HW131379   8.788   5.756  10.283
76494SOL    HW231380   8.745   5.760  10.428
76495SOL     OW31381   6.609   3.092   3.637
76495SOL    HW131382   6.675   3.158   3.658
76495SOL    HW231383   6.527   3.140   3.629
76496SOL     OW31384   5.534   1.737   5.351
76496SOL    HW131385   5.498   1.661   5.305
76496SOL    HW231386   5.465   1.764   5.411
76497SOL     OW31387   5.130   9.069   6.389
76497SOL    HW131388   5.079   9.029   6.459
76497SOL    HW231389   5.132   9.003   6.320
76498SOL     OW31390   2.385   3.751  13.708
76498SOL    HW131391   2.297   3.748  13.746
76498SOL    HW231392   2.444   3.731  13.781
76499SOL     OW31393   0.603   0.679   5.479
76499SOL    HW131394   0.565   0.621   5.545
76499SOL    HW231395   0.662   0.736   5.529
76500SOL     OW31396   1.420   0.863   4.697
76500SOL    HW131397   1.403   0.948   4.738
76500SOL    HW231398   1.418   0.880   4.603
76501SOL     OW31399   6.264  13.320  13.344
76501SOL    HW131400   6.230  13.409  13.356
76501SOL    HW231401   6.199  13.264  13.386
76502SOL     OW31402   8.846   0.791   9.703
76502SOL    HW131403   8.840   0.719   9.766
76502SOL    HW231404   8.915   0.848   9.738
76503SOL     OW31405   0.517  13.473  11.308
76503SOL    HW131406   0.592  13.469  11.367
76503SOL    HW231407   0.547  13.428  11.229
76504SOL     OW31408   0.990  11.107   5.430
76504SOL    HW131409   0.961  11.015   5.437
76504SOL    HW231410   1.085  11.102   5.434
76505SOL     OW31411  10.841   2.323   3.107
76505SOL    HW131412  10.808   2.242   3.068
76505SOL    HW231413  10.810   2.321   3.197
76506SOL     OW31414   4.631   5.694   1.145
76506SOL    HW131415   4.674   5.634   1.206
76506SOL    HW231416   4.538   5.679   1.157
76507SOL     OW31417   7.864   8.942   8.861
76507SOL    HW131418   7.777   8.931   8.823
76507SOL    HW231419   7.903   8.854   8.859
76508SOL     OW31420   6.306   9.973  10.501
76508SOL    HW131421   6.350  10.025  10.433
76508SOL    HW231422   6.373   9.913  10.533
76509SOL     OW31423   9.717   6.552  14.734
76509SOL    HW131424   9.733   6.645  14.716
76509SOL    HW231425   9.684   6.517  14.652
76510SOL     OW31426  14.131  10.712   8.252
76510SOL    HW131427  14.175  10.647   8.198
76510SOL    HW231428  14.131  10.792   8.199
76511SOL     OW31429  12.064   2.623   9.498
76511SOL    HW131430  12.085   2.535   9.530
76511SOL    HW231431  12.077   2.679   9.575
76512SOL     OW31432  11.602  14.117   4.224
76512SOL    HW131433  11.615  14.068   4.306
76512SOL    HW231434  11.514  14.153   4.232
76513SOL     OW31435  14.250  10.753   6.574
76513SOL    HW131436  14.169  10.805   6.570
76513SOL    HW231437  14.222  10.663   6.562
76514SOL     OW31438   0.584   1.338   2.339
76514SOL    HW131439   0.565   1.262   2.394
76514SOL    HW231440   0.621   1.403   2.399
76515SOL     OW31441   7.107   0.711   0.583
76515SOL    HW131442   7.148   0.777   0.527
76515SOL    HW231443   7.076   0.644   0.523
76516SOL     OW31444   9.376   1.279   2.299
76516SOL    HW131445   9.334   1.336   2.364
76516SOL    HW231446   9.393   1.336   2.224
76517SOL     OW31447   9.419  11.839  12.618
76517SOL    HW131448   9.329  11.865  12.602
76517SOL    HW231449   9.460  11.840  12.531
76518SOL     OW31450  13.990   6.888   6.853
76518SOL    HW131451  13.982   6.794   6.870
76518SOL    HW231452  14.070   6.914   6.899
76519SOL     OW31453   8.045   4.078   2.909
76519SOL    HW131454   8.036   4.065   2.815
76519SOL    HW231455   8.136   4.054   2.928
76520SOL     OW31456   8.672  10.159  14.288
76520SOL    HW131457   8.644  10.231  14.231
76520SOL    HW231458   8.673  10.197  14.376
76521SOL     OW31459   2.915   9.393   0.785
76521SOL    HW131460   2.837   9.448   0.785
76521SOL    HW231461   2.970   9.429   0.716
76522SOL     OW31462   0.072  11.155   9.417
76522SOL    HW131463   0.110  11.170   9.330
76522SOL    HW231464   0.129  11.090   9.457
76523SOL     OW31465  11.947  10.889  11.882
76523SOL    HW131466  11.872  10.840  11.915
76523SOL    HW231467  11.911  10.946  11.815
76524SOL     OW31468   2.128  13.901  14.375
76524SOL    HW131469   2.096  13.847  14.303
76524SOL    HW231470   2.210  13.860  14.401
76525SOL     OW31471   9.617   8.439   6.512
76525SOL    HW131472   9.659   8.432   6.597
76525SOL    HW231473   9.612   8.533   6.495
76526SOL     OW31474   6.680  13.954   1.641
76526SOL    HW131475   6.692  13.984   1.551
76526SOL    HW231476   6.596  13.908   1.639
76527SOL     OW31477   0.073  10.663   1.853
76527SOL    HW131478   0.046  10.755   1.856
76527SOL    HW231479   0.019  10.621   1.921
76528SOL     OW31480   0.166   4.537   6.797
76528SOL    HW131481   0.256   4.542   6.829
76528SOL    HW231482   0.155   4.616   6.744
76529SOL     OW31483  13.535   7.305   5.861
76529SOL    HW131484  13.455   7.303   5.808
76529SOL    HW231485  13.524   7.233   5.923
76530SOL     OW31486   6.714   7.281   0.341
76530SOL    HW131487   6.723   7.288   0.246
76530SOL    HW231488   6.789   7.329   0.377
76531SOL     OW31489   6.638   8.831  13.437
76531SOL    HW131490   6.577   8.758  13.449
76531SOL    HW231491   6.584   8.910  13.450
76532SOL     OW31492   0.707   5.566   1.301
76532SOL    HW131493   0.619   5.586   1.334
76532SOL    HW231494   0.763   5.568   1.378
76533SOL     OW31495   2.983   4.194   4.636
76533SOL    HW131496   2.996   4.113   4.685
76533SOL    HW231497   3.014   4.263   4.694
76534SOL     OW31498  10.387   3.294   6.204
76534SOL    HW131499  10.441   3.323   6.277
76534SOL    HW231500  10.341   3.373   6.175
76535SOL     OW31501   7.788   6.672   2.663
76535SOL    HW131502   7.785   6.615   2.740
76535SOL    HW231503   7.774   6.760   2.698
76536SOL     OW31504   3.549  10.194  12.178
76536SOL    HW131505   3.616  10.172  12.243
76536SOL    HW231506   3.544  10.117  12.122
76537SOL     OW31507   3.119  12.382   3.979
76537SOL    HW131508   3.136  12.428   3.896
76537SOL    HW231509   3.203  12.342   4.002
76538SOL     OW31510   1.124   6.404  12.406
76538SOL    HW131511   1.121   6.500  12.397
76538SOL    HW231512   1.119   6.371  12.317
76539SOL     OW31513   6.868   2.702   8.771
76539SOL    HW131514   6.803   2.652   8.723
76539SOL    HW231515   6.820   2.778   8.805
76540SOL     OW31516  11.703   5.356   1.407
76540SOL    HW131517  11.654   5.415   1.350
76540SOL    HW231518  11.727   5.410   1.483
76541SOL     OW31519  10.183   0.055   6.618
76541SOL    HW131520  10.147   0.097   6.696
76541SOL    HW231521  10.153   0.110   6.545
76542SOL     OW31522  11.164   5.274  12.358
76542SOL    HW131523  11.105   5.215  12.312
76542SOL    HW231524  11.109   5.317  12.424
76543SOL     OW31525  10.081   7.376   9.847
76543SOL    HW131526  10.026   7.362   9.770
76543SOL    HW231527  10.051   7.460   9.883
76544SOL     OW31528  10.604   3.955   2.444
76544SOL    HW131529  10.694   3.970   2.415
76544SOL    HW231530  10.552   4.022   2.401
76545SOL     OW31531  11.248   3.914   0.498
76545SOL    HW131532  11.327   3.940   0.545
76545SOL    HW231533  11.244   3.819   0.510
76546SOL     OW31534   0.039   0.052  11.408
76546SOL    HW131535  14.843   0.035  11.342
76546SOL    HW231536   0.049  14.841  11.455
76547SOL     OW31537  13.711   0.822   6.728
76547SOL    HW131538  13.764   0.744   6.715
76547SOL    HW231539  13.711   0.866   6.642
76548SOL     OW31540   3.759   2.877   4.422
76548SOL    HW131541   3.769   2.925   4.504
76548SOL    HW231542   3.832   2.905   4.368
76549SOL     OW31543   4.730   3.347   2.486
76549SOL    HW131544   4.686   3.338   2.401
76549SOL    HW231545   4.812   3.298   2.476
76550SOL     OW31546   9.878  13.219   9.253
76550SOL    HW131547   9.796  13.268   9.257
76550SOL    HW231548   9.855  13.131   9.281
76551SOL     OW31549  12.488   6.415   5.333
76551SOL    HW131550  12.432   6.354   5.286
76551SOL    HW231551  12.546   6.359   5.385
76552SOL     OW31552   2.445   9.484  12.357
76552SOL    HW131553   2.367   9.540  12.369
76552SOL    HW231554   2.480   9.509  12.272
76553SOL     OW31555   8.051  11.051   0.965
76553SOL    HW131556   8.029  11.012   0.881
76553SOL    HW231557   8.003  11.134   0.967
76554SOL     OW31558  11.266   1.916  12.546
76554SOL    HW131559  11.315   1.981  12.496
76554SOL    HW231560  11.315   1.834  12.532
76555SOL     OW31561  14.637  14.063   2.882
76555SOL    HW131562  14.567  14.008   2.847
76555SOL    HW231563  14.717  14.013   2.865
76556SOL     OW31564   0.908   7.793   3.292
76556SOL    HW131565   0.835   7.850   3.315
76556SOL    HW231566   0.893   7.713   3.341
76557SOL     OW31567   7.976  14.125   9.971
76557SOL    HW131568   8.005  14.104   9.882
76557SOL    HW231569   7.881  14.131   9.965
76558SOL     OW31570   1.344  14.104   2.719
76558SOL    HW131571   1.258  14.111   2.677
76558SOL    HW231572   1.373  14.015   2.701
76559SOL     OW31573   6.591   0.440   3.264
76559SOL    HW131574   6.525   0.392   3.314
76559SOL    HW231575   6.603   0.388   3.184
76560SOL     OW31576  12.503  10.912   3.377
76560SOL    HW131577  12.543  10.904   3.290
76560SOL    HW231578  12.575  10.901   3.438
76561SOL     OW31579   6.486  11.336   9.573
76561SOL    HW131580   6.412  11.306   9.520
76561SOL    HW231581   6.456  11.327   9.663
76562SOL     OW31582  14.337   6.663  10.509
76562SOL    HW131583  14.391   6.656  10.431
76562SOL    HW231584  14.386   6.616  10.577
76563SOL     OW31585   6.122   7.702  11.181
76563SOL    HW131586   6.195   7.761  11.163
76563SOL    HW231587   6.117   7.697  11.276
76564SOL     OW31588  12.302   3.737   7.468
76564SOL    HW131589  12.396   3.748   7.451
76564SOL    HW231590  12.264   3.822   7.446
76565SOL     OW31591   4.455   9.350   5.292
76565SOL    HW131592   4.361   9.335   5.287
76565SOL    HW231593   4.469   9.390   5.378
76566SOL     OW31594   8.454   3.685   3.113
76566SOL    HW131595   8.532   3.636   3.140
76566SOL    HW231596   8.449   3.758   3.174
76567SOL     OW31597   2.292   9.432   0.402
76567SOL    HW131598   2.320   9.509   0.452
76567SOL    HW231599   2.329   9.445   0.315
76568SOL     OW31600   6.556   8.307   9.615
76568SOL    HW131601   6.632   8.298   9.674
76568SOL    HW231602   6.553   8.400   9.594
76569SOL     OW31603   9.340  10.469   9.554
76569SOL    HW131604   9.263  10.491   9.606
76569SOL    HW231605   9.391  10.410   9.611
76570SOL     OW31606   9.691  13.909  14.029
76570SOL    HW131607   9.598  13.885  14.039
76570SOL    HW231608   9.689  13.994  13.986
76571SOL     OW31609   2.527   1.866  13.953
76571SOL    HW131610   2.516   1.953  13.993
76571SOL    HW231611   2.610   1.871  13.907
76572SOL     OW31612   5.109  12.197   4.209
76572SOL    HW131613   5.090  12.114   4.165
76572SOL    HW231614   5.043  12.204   4.277
76573SOL     OW31615   7.780  12.043  13.818
76573SOL    HW131616   7.796  11.973  13.881
76573SOL    HW231617   7.696  12.020  13.778
76574SOL     OW31618  13.278   1.350   4.091
76574SOL    HW131619  13.235   1.265   4.080
76574SOL    HW231620  13.367   1.337   4.058
76575SOL     OW31621   8.753   9.232  14.202
76575SOL    HW131622   8.678   9.225  14.260
76575SOL    HW231623   8.757   9.325  14.178
76576SOL     OW31624  10.555  11.811   5.168
76576SOL    HW131625  10.616  11.776   5.233
76576SOL    HW231626  10.575  11.905   5.166
76577SOL     OW31627  11.614   9.898   7.018
76577SOL    HW131628  11.624   9.820   7.073
76577SOL    HW231629  11.521   9.917   7.020
76578SOL     OW31630   1.369   4.832  14.125
76578SOL    HW131631   1.451   4.793  14.096
76578SOL    HW231632   1.392   4.882  14.203
76579SOL     OW31633   6.217  12.652  14.408
76579SOL    HW131634   6.128  12.659  14.441
76579SOL    HW231635   6.234  12.558  14.402
76580SOL     OW31636   3.019  11.420  11.723
76580SOL    HW131637   3.068  11.456  11.797
76580SOL    HW231638   2.937  11.469  11.723
76581SOL     OW31639  14.850  11.927   2.163
76581SOL    HW131640   0.069  11.949   2.141
76581SOL    HW231641  14.827  11.856   2.103
76582SOL     OW31642   7.084  11.528   7.134
76582SOL    HW131643   7.132  11.536   7.052
76582SOL    HW231644   7.014  11.466   7.115
76583SOL     OW31645   0.691  10.082   2.275
76583SOL    HW131646   0.602  10.057   2.252
76583SOL    HW231647   0.682  10.171   2.309
76584SOL     OW31648   7.896  13.174  12.542
76584SOL    HW131649   7.871  13.083  12.532
76584SOL    HW231650   7.915  13.203  12.452
76585SOL     OW31651  10.105   3.956   5.104
76585SOL    HW131652  10.121   4.030   5.045
76585SOL    HW231653  10.087   3.882   5.046
76586SOL     OW31654   0.558  14.102   5.694
76586SOL    HW131655   0.613  14.128   5.621
76586SOL    HW231656   0.470  14.092   5.656
76587SOL     OW31657   2.428   5.054  13.573
76587SOL    HW131658   2.463   5.132  13.531
76587SOL    HW231659   2.469   4.981  13.527
76588SOL     OW31660   0.534  13.997  12.050
76588SOL    HW131661   0.492  14.076  12.085
76588SOL    HW231662   0.463  13.953  12.003
76589SOL     OW31663   6.556   2.909   3.807
76589SOL    HW131664   6.646   2.903   3.840
76589SOL    HW231665   6.556   2.985   3.750
76590SOL     OW31666  12.782   6.769  13.611
76590SOL    HW131667  12.824   6.831  13.672
76590SOL    HW231668  12.704   6.740  13.658
76591SOL     OW31669   3.866  10.402  11.484
76591SOL    HW131670   3.859  10.377  11.392
76591SOL    HW231671   3.882  10.496  11.483
76592SOL     OW31672   2.177   3.809   4.999
76592SOL    HW131673   2.190   3.736   4.938
76592SOL    HW231674   2.166   3.885   4.942
76593SOL     OW31675  10.019   9.587   0.419
76593SOL    HW131676   9.990   9.517   0.478
76593SOL    HW231677  10.111   9.567   0.403
76594SOL     OW31678   9.133   8.800   8.345
76594SOL    HW131679   9.191   8.779   8.272
76594SOL    HW231680   9.133   8.720   8.399
76595SOL     OW31681  10.801  12.414  12.060
76595SOL    HW131682  10.816  12.458  12.144
76595SOL    HW231683  10.855  12.335  12.065
76596SOL     OW31684   3.996   5.516   7.144
76596SOL    HW131685   3.994   5.429   7.182
76596SOL    HW231686   4.036   5.571   7.212
76597SOL     OW31687   4.021   6.423   8.577
76597SOL    HW131688   4.051   6.332   8.580
76597SOL    HW231689   3.938   6.420   8.531
76598SOL     OW31690   4.872  12.169  12.071
76598SOL    HW131691   4.955  12.122  12.067
76598SOL    HW231692   4.826  12.130  12.145
76599SOL     OW31693   6.916   3.171   3.342
76599SOL    HW131694   6.997   3.146   3.386
76599SOL    HW231695   6.887   3.250   3.388
76600SOL     OW31696   7.932  13.757  12.144
76600SOL    HW131697   7.951  13.728  12.234
76600SOL    HW231698   7.973  13.843  12.138
76601SOL     OW31699   5.649   6.402   6.202
76601SOL    HW131700   5.736   6.370   6.180
76601SOL    HW231701   5.603   6.325   6.237
76602SOL     OW31702  11.751  11.747   1.814
76602SOL    HW131703  11.812  11.791   1.755
76602SOL    HW231704  11.736  11.811   1.885
76603SOL     OW31705   5.332  11.747   1.537
76603SOL    HW131706   5.324  11.652   1.549
76603SOL    HW231707   5.386  11.757   1.460
76604SOL     OW31708   8.650   0.091   1.677
76604SOL    HW131709   8.583   0.073   1.744
76604SOL    HW231710   8.629   0.031   1.605
76605SOL     OW31711   4.443   4.031   5.279
76605SOL    HW131712   4.526   4.074   5.299
76605SOL    HW231713   4.393   4.037   5.360
76606SOL     OW31714   8.941   7.505   8.969
76606SOL    HW131715   8.855   7.508   9.012
76606SOL    HW231716   8.992   7.574   9.012
76607SOL     OW31717  10.751  11.631   2.879
76607SOL    HW131718  10.667  11.661   2.846
76607SOL    HW231719  10.764  11.545   2.838
76608SOL     OW31720   2.512   6.846   2.341
76608SOL    HW131721   2.566   6.799   2.277
76608SOL    HW231722   2.458   6.778   2.381
76609SOL     OW31723   8.968   2.801   1.101
76609SOL    HW131724   8.942   2.893   1.092
76609SOL    HW231725   9.055   2.797   1.062
76610SOL     OW31726  13.828   0.271   4.556
76610SOL    HW131727  13.744   0.311   4.576
76610SOL    HW231728  13.824   0.184   4.597
76611SOL     OW31729  10.588  13.977   9.131
76611SOL    HW131730  10.539  13.975   9.049
76611SOL    HW231731  10.588  14.069   9.157
76612SOL     OW31732   5.156   2.978   4.545
76612SOL    HW131733   5.232   2.940   4.589
76612SOL    HW231734   5.091   2.988   4.614
76613SOL     OW31735  12.951   1.516   8.208
76613SOL    HW131736  13.005   1.558   8.141
76613SOL    HW231737  13.012   1.466   8.262
76614SOL     OW31738   0.045  12.006   8.384
76614SOL    HW131739   0.077  11.959   8.461
76614SOL    HW231740   0.113  12.073   8.368
76615SOL     OW31741  12.700   9.269   4.104
76615SOL    HW131742  12.755   9.192   4.087
76615SOL    HW231743  12.643   9.275   4.028
76616SOL     OW31744   8.831  13.075  14.793
76616SOL    HW131745   8.832  13.147  14.856
76616SOL    HW231746   8.891  13.010  14.830
76617SOL     OW31747  11.052   7.206   8.955
76617SOL    HW131748  11.023   7.131   9.007
76617SOL    HW231749  11.147   7.207   8.964
76618SOL     OW31750   9.838   5.891  13.696
76618SOL    HW131751   9.872   5.813  13.653
76618SOL    HW231752   9.908   5.918  13.756
76619SOL     OW31753  11.592   4.165  13.234
76619SOL    HW131754  11.687   4.176  13.238
76619SOL    HW231755  11.579   4.087  13.180
76620SOL     OW31756  12.392  11.120   7.365
76620SOL    HW131757  12.299  11.110   7.386
76620SOL    HW231758  12.430  11.034   7.385
76621SOL     OW31759   7.908   5.989  12.423
76621SOL    HW131760   7.910   6.037  12.340
76621SOL    HW231761   7.926   5.898  12.399
76622SOL     OW31762   2.523  11.911  14.398
76622SOL    HW131763   2.586  11.901  14.326
76622SOL    HW231764   2.567  11.967  14.461
76623SOL     OW31765   5.898  11.954  13.987
76623SOL    HW131766   5.894  11.885  14.052
76623SOL    HW231767   5.963  11.925  13.924
76624SOL     OW31768  13.643   2.382   4.931
76624SOL    HW131769  13.605   2.444   4.992
76624SOL    HW231770  13.568   2.342   4.888
76625SOL     OW31771  13.984   7.560   1.510
76625SOL    HW131772  13.968   7.471   1.541
76625SOL    HW231773  13.897   7.599   1.501
76626SOL     OW31774   5.838   4.149   9.875
76626SOL    HW131775   5.795   4.072   9.912
76626SOL    HW231776   5.768   4.197   9.831
76627SOL     OW31777   2.828  13.735   9.300
76627SOL    HW131778   2.832  13.713   9.394
76627SOL    HW231779   2.917  13.721   9.269
76628SOL     OW31780   2.288   1.183  10.265
76628SOL    HW131781   2.300   1.265  10.313
76628SOL    HW231782   2.328   1.200  10.179
76629SOL     OW31783  14.395  12.083   0.914
76629SOL    HW131784  14.413  12.168   0.873
76629SOL    HW231785  14.478  12.035   0.907
76630SOL     OW31786  13.056  11.527  10.866
76630SOL    HW131787  13.093  11.511  10.779
76630SOL    HW231788  13.024  11.442  10.895
76631SOL     OW31789  12.603   8.998  10.897
76631SOL    HW131790  12.692   8.989  10.932
76631SOL    HW231791  12.546   8.973  10.969
76632SOL     OW31792   5.832   3.441   2.975
76632SOL    HW131793   5.864   3.517   2.926
76632SOL    HW231794   5.880   3.367   2.938
76633SOL     OW31795   6.214  12.947  10.742
76633SOL    HW131796   6.134  12.930  10.792
76633SOL    HW231797   6.245  13.031  10.776
76634SOL     OW31798   0.432   2.646  11.077
76634SOL    HW131799   0.412   2.567  11.028
76634SOL    HW231800   0.359   2.655  11.139
76635SOL     OW31801   4.700   4.242   0.491
76635SOL    HW131802   4.662   4.252   0.579
76635SOL    HW231803   4.754   4.164   0.498
76636SOL     OW31804   5.347  14.454   3.357
76636SOL    HW131805   5.428  14.487   3.395
76636SOL    HW231806   5.375  14.379   3.304
76637SOL     OW31807   9.929   8.117   3.092
76637SOL    HW131808   9.883   8.114   3.175
76637SOL    HW231809   9.869   8.077   3.029
76638SOL     OW31810   0.319   9.794   0.828
76638SOL    HW131811   0.288   9.884   0.815
76638SOL    HW231812   0.401   9.789   0.779
76639SOL     OW31813  14.112   6.310   1.574
76639SOL    HW131814  14.041   6.267   1.526
76639SOL    HW231815  14.186   6.249   1.565
76640SOL     OW31816   8.993  12.899  13.323
76640SOL    HW131817   9.064  12.836  13.338
76640SOL    HW231818   9.018  12.944  13.242
76641SOL     OW31819   3.305   3.066  12.904
76641SOL    HW131820   3.229   3.100  12.858
76641SOL    HW231821   3.281   3.068  12.996
76642SOL     OW31822  10.003   7.538   0.135
76642SOL    HW131823  10.022   7.480   0.209
76642SOL    HW231824  10.053   7.618   0.154
76643SOL     OW31825   7.295   1.965   7.830
76643SOL    HW131826   7.234   1.923   7.770
76643SOL    HW231827   7.266   2.056   7.836
76644SOL     OW31828   5.370   6.996   0.800
76644SOL    HW131829   5.393   7.086   0.822
76644SOL    HW231830   5.361   6.952   0.884
76645SOL     OW31831   8.995   8.931   3.391
76645SOL    HW131832   8.972   8.877   3.316
76645SOL    HW231833   8.997   8.870   3.465
76646SOL     OW31834  11.375  13.330  10.725
76646SOL    HW131835  11.336  13.346  10.639
76646SOL    HW231836  11.412  13.414  10.751
76647SOL     OW31837  11.324  13.404  11.343
76647SOL    HW131838  11.325  13.483  11.288
76647SOL    HW231839  11.269  13.343  11.295
76648SOL     OW31840   3.556  10.691  14.211
76648SOL    HW131841   3.480  10.688  14.154
76648SOL    HW231842   3.629  10.660  14.156
76649SOL     OW31843   3.144   2.385  12.881
76649SOL    HW131844   3.181   2.305  12.844
76649SOL    HW231845   3.098   2.356  12.960
76650SOL     OW31846   1.331   6.541   6.830
76650SOL    HW131847   1.338   6.634   6.809
76650SOL    HW231848   1.241   6.518   6.807
76651SOL     OW31849   4.112  12.963   4.409
76651SOL    HW131850   4.176  13.030   4.433
76651SOL    HW231851   4.064  13.001   4.335
76652SOL     OW31852   9.476   2.807   7.226
76652SOL    HW131853   9.465   2.753   7.147
76652SOL    HW231854   9.387   2.836   7.248
76653SOL     OW31855   5.467   0.694   9.855
76653SOL    HW131856   5.443   0.666   9.767
76653SOL    HW231857   5.516   0.776   9.842
76654SOL     OW31858  11.396   2.991   5.550
76654SOL    HW131859  11.375   3.059   5.486
76654SOL    HW231860  11.312   2.970   5.591
76655SOL     OW31861   6.333   9.080   9.344
76655SOL    HW131862   6.341   9.031   9.426
76655SOL    HW231863   6.409   9.139   9.343
76656SOL     OW31864  10.008  11.224   3.276
76656SOL    HW131865  10.015  11.308   3.320
76656SOL    HW231866  10.098  11.191   3.271
76657SOL     OW31867   4.905  14.202   7.490
76657SOL    HW131868   4.964  14.152   7.433
76657SOL    HW231869   4.824  14.208   7.440
76658SOL     OW31870   3.610   2.932   0.414
76658SOL    HW131871   3.602   2.983   0.334
76658SOL    HW231872   3.542   2.866   0.408
76659SOL     OW31873   8.512   6.897   2.526
76659SOL    HW131874   8.578   6.857   2.469
76659SOL    HW231875   8.460   6.953   2.468
76660SOL     OW31876   3.148   9.934   9.916
76660SOL    HW131877   3.243   9.946   9.920
76660SOL    HW231878   3.112  10.015   9.953
76661SOL     OW31879   0.911   0.086   6.075
76661SOL    HW131880   0.839   0.137   6.113
76661SOL    HW231881   0.982   0.095   6.138
76662SOL     OW31882   2.998   2.092   9.964
76662SOL    HW131883   3.034   2.049   9.886
76662SOL    HW231884   2.949   2.167   9.930
76663SOL     OW31885   3.770   6.685   0.490
76663SOL    HW131886   3.741   6.740   0.563
76663SOL    HW231887   3.826   6.742   0.438
76664SOL     OW31888  13.430   8.630   9.555
76664SOL    HW131889  13.403   8.645   9.646
76664SOL    HW231890  13.508   8.685   9.544
76665SOL     OW31891   8.847   4.768   4.931
76665SOL    HW131892   8.754   4.744   4.934
76665SOL    HW231893   8.874   4.768   5.023
76666SOL     OW31894   4.371   2.634  13.831
76666SOL    HW131895   4.330   2.719  13.816
76666SOL    HW231896   4.304   2.570  13.806
76667SOL     OW31897   4.600   7.378   8.964
76667SOL    HW131898   4.527   7.438   8.949
76667SOL    HW231899   4.576   7.331   9.044
76668SOL     OW31900   2.886   4.516   3.973
76668SOL    HW131901   2.854   4.435   4.014
76668SOL    HW231902   2.950   4.486   3.908
76669SOL     OW31903  11.914   8.559   6.894
76669SOL    HW131904  11.877   8.636   6.853
76669SOL    HW231905  11.919   8.494   6.824
76670SOL     OW31906   0.670   6.293  11.871
76670SOL    HW131907   0.605   6.277  11.939
76670SOL    HW231908   0.642   6.237  11.798
76671SOL     OW31909   0.670   4.346   7.953
76671SOL    HW131910   0.614   4.341   7.875
76671SOL    HW231911   0.630   4.285   8.015
76672SOL     OW31912   2.018  13.456  13.762
76672SOL    HW131913   2.035  13.370  13.800
76672SOL    HW231914   2.103  13.501  13.765
76673SOL     OW31915   0.548  10.697   6.879
76673SOL    HW131916   0.487  10.710   6.952
76673SOL    HW231917   0.623  10.652   6.918
76674SOL     OW31918   2.619   7.361   5.754
76674SOL    HW131919   2.677   7.325   5.687
76674SOL    HW231920   2.542   7.303   5.751
76675SOL     OW31921  11.098  14.095   6.098
76675SOL    HW131922  11.110  14.130   6.010
76675SOL    HW231923  11.079  14.172   6.152
76676SOL     OW31924   7.460   0.924   0.845
76676SOL    HW131925   7.400   0.849   0.841
76676SOL    HW231926   7.441   0.974   0.765
76677SOL     OW31927  10.756   7.837   8.306
76677SOL    HW131928  10.669   7.836   8.346
76677SOL    HW231929  10.809   7.783   8.364
76678SOL     OW31930   3.808   3.833  10.827
76678SOL    HW131931   3.771   3.769  10.766
76678SOL    HW231932   3.900   3.806  10.837
76679SOL     OW31933   7.290   5.258   6.428
76679SOL    HW131934   7.238   5.326   6.471
76679SOL    HW231935   7.251   5.249   6.341
76680SOL     OW31936   5.930   6.794  11.132
76680SOL    HW131937   5.847   6.748  11.123
76680SOL    HW231938   5.962   6.769  11.219
76681SOL     OW31939   0.138  13.788   2.182
76681SOL    HW131940   0.177  13.727   2.119
76681SOL    HW231941   0.079  13.734   2.235
76682SOL     OW31942  14.051  13.342  10.894
76682SOL    HW131943  13.963  13.378  10.902
76682SOL    HW231944  14.100  13.381  10.966
76683SOL     OW31945  11.723  13.604   1.074
76683SOL    HW131946  11.696  13.673   1.014
76683SOL    HW231947  11.696  13.522   1.032
76684SOL     OW31948   6.935   7.931  11.170
76684SOL    HW131949   7.006   7.959  11.112
76684SOL    HW231950   6.855   7.963  11.128
76685SOL     OW31951   0.040  10.673   9.206
76685SOL    HW131952  14.829  10.641   9.241
76685SOL    HW231953   0.106  10.643   9.268
76686SOL     OW31954  12.673   8.947  10.633
76686SOL    HW131955  12.655   8.943  10.727
76686SOL    HW231956  12.609   9.010  10.599
76687SOL     OW31957  10.112   4.365  13.014
76687SOL    HW131958  10.018   4.378  13.026
76687SOL    HW231959  10.148   4.370  13.103
76688SOL     OW31960  10.320  11.354   9.873
76688SOL    HW131961  10.261  11.420   9.837
76688SOL    HW231962  10.341  11.386   9.961
76689SOL     OW31963  13.702  13.537  12.766
76689SOL    HW131964  13.706  13.592  12.687
76689SOL    HW231965  13.692  13.599  12.838
76690SOL     OW31966   0.406   9.705  12.794
76690SOL    HW131967   0.370   9.793  12.806
76690SOL    HW231968   0.501   9.716  12.796
76691SOL     OW31969   0.461   8.044   8.347
76691SOL    HW131970   0.534   8.084   8.396
76691SOL    HW231971   0.461   8.091   8.264
76692SOL     OW31972  13.676  11.682   3.519
76692SOL    HW131973  13.732  11.605   3.522
76692SOL    HW231974  13.613  11.669   3.590
76693SOL     OW31975  13.120   6.040   8.283
76693SOL    HW131976  13.133   6.044   8.188
76693SOL    HW231977  13.182   6.103   8.319
76694SOL     OW31978   3.563   4.018   0.932
76694SOL    HW131979   3.537   4.069   1.009
76694SOL    HW231980   3.485   4.017   0.877
76695SOL     OW31981  14.172  10.438   9.658
76695SOL    HW131982  14.098  10.489   9.689
76695SOL    HW231983  14.239  10.504   9.638
76696SOL     OW31984   4.732   0.699   8.253
76696SOL    HW131985   4.702   0.663   8.336
76696SOL    HW231986   4.714   0.630   8.189
76697SOL     OW31987   0.335   1.533   5.814
76697SOL    HW131988   0.372   1.462   5.865
76697SOL    HW231989   0.406   1.561   5.756
76698SOL     OW31990  11.367   1.480   6.419
76698SOL    HW131991  11.424   1.528   6.359
76698SOL    HW231992  11.395   1.508   6.506
76699SOL     OW31993  11.843  11.462  14.182
76699SOL    HW131994  11.928  11.505  14.167
76699SOL    HW231995  11.866  11.373  14.209
76700SOL     OW31996   1.429  13.361  11.911
76700SOL    HW131997   1.478  13.364  11.829
76700SOL    HW231998   1.420  13.267  11.929
76701SOL     OW31999  11.516   4.351   7.694
76701SOL    HW132000  11.539   4.442   7.712
76701SOL    HW232001  11.432   4.356   7.647
76702SOL     OW32002   5.026   6.794   6.496
76702SOL    HW132003   5.058   6.708   6.467
76702SOL    HW232004   5.090   6.822   6.561
76703SOL     OW32005  14.318  11.653   9.789
76703SOL    HW132006  14.358  11.673   9.705
76703SOL    HW232007  14.226  11.635   9.769
76704SOL     OW32008  11.876   6.057   3.339
76704SOL    HW132009  11.968   6.034   3.351
76704SOL    HW232010  11.857   6.033   3.249
76705SOL     OW32011   9.569   4.865  10.209
76705SOL    HW132012   9.477   4.887  10.196
76705SOL    HW232013   9.599   4.926  10.276
76706SOL     OW32014   8.542   7.706  13.337
76706SOL    HW132015   8.619   7.731  13.389
76706SOL    HW232016   8.495   7.788  13.322
76707SOL     OW32017   2.824   6.202   8.107
76707SOL    HW132018   2.790   6.265   8.043
76707SOL    HW232019   2.748   6.147   8.128
76708SOL     OW32020   1.206  10.050  11.056
76708SOL    HW132021   1.166  10.133  11.080
76708SOL    HW232022   1.296  10.056  11.089
76709SOL     OW32023   0.072   2.473  13.657
76709SOL    HW132024   0.026   2.449  13.576
76709SOL    HW232025   0.165   2.467  13.635
76710SOL     OW32026  13.839   9.395   7.825
76710SOL    HW132027  13.849   9.488   7.805
76710SOL    HW232028  13.751   9.373   7.794
76711SOL     OW32029   3.128  14.820  13.213
76711SOL    HW132030   3.075   0.024  13.190
76711SOL    HW232031   3.115  14.809  13.307
76712SOL     OW32032   5.662   0.674  14.835
76712SOL    HW132033   5.671   0.627   0.046
76712SOL    HW232034   5.621   0.611  14.776
76713SOL     OW32035   7.305   4.772  12.793
76713SOL    HW132036   7.368   4.830  12.836
76713SOL    HW232037   7.329   4.684  12.821
76714SOL     OW32038  10.143  10.209   0.852
76714SOL    HW132039  10.205  10.280   0.837
76714SOL    HW232040  10.197  10.133   0.872
76715SOL     OW32041  11.924   7.263   6.708
76715SOL    HW132042  11.882   7.180   6.685
76715SOL    HW232043  11.917   7.316   6.628
76716SOL     OW32044  11.652   7.106  14.345
76716SOL    HW132045  11.576   7.087  14.291
76716SOL    HW232046  11.727   7.083  14.290
76717SOL     OW32047   5.834  10.312  12.489
76717SOL    HW132048   5.742  10.338  12.498
76717SOL    HW232049   5.872  10.378  12.431
76718SOL     OW32050   1.963   9.785   5.030
76718SOL    HW132051   1.877   9.779   4.988
76718SOL    HW232052   2.018   9.832   4.967
76719SOL     OW32053  14.535   0.672   6.103
76719SOL    HW132054  14.550   0.606   6.036
76719SOL    HW232055  14.536   0.755   6.056
76720SOL     OW32056   2.294   8.290   5.012
76720SOL    HW132057   2.284   8.203   4.972
76720SOL    HW232058   2.322   8.272   5.102
76721SOL     OW32059   1.066   9.552   0.884
76721SOL    HW132060   1.065   9.597   0.799
76721SOL    HW232061   1.031   9.464   0.865
76722SOL     OW32062  11.550   9.743   6.444
76722SOL    HW132063  11.461   9.780   6.441
76722SOL    HW232064  11.537   9.649   6.432
76723SOL     OW32065   9.275   6.061   9.508
76723SOL    HW132066   9.343   6.016   9.457
76723SOL    HW232067   9.193   6.027   9.474
76724SOL     OW32068   3.473   9.597  11.778
76724SOL    HW132069   3.567   9.611  11.773
76724SOL    HW232070   3.435   9.685  11.776
76725SOL     OW32071   3.317   2.588   2.184
76725SOL    HW132072   3.338   2.577   2.277
76725SOL    HW232073   3.342   2.504   2.145
76726SOL     OW32074  11.577   0.284   0.075
76726SOL    HW132075  11.494   0.325   0.097
76726SOL    HW232076  11.582   0.287  14.851
76727SOL     OW32077   1.604  13.926  11.341
76727SOL    HW132078   1.678  13.916  11.282
76727SOL    HW232079   1.528  13.934  11.283
76728SOL     OW32080  10.481  14.705  12.864
76728SOL    HW132081  10.452  14.753  12.786
76728SOL    HW232082  10.575  14.691  12.850
76729SOL     OW32083  14.401   0.238   9.963
76729SOL    HW132084  14.448   0.177   9.907
76729SOL    HW232085  14.362   0.301   9.903
76730SOL     OW32086   6.341   4.353  12.078
76730SOL    HW132087   6.432   4.341  12.104
76730SOL    HW232088   6.299   4.394  12.153
76731SOL     OW32089   3.775   4.899  11.664
76731SOL    HW132090   3.756   4.848  11.585
76731SOL    HW232091   3.848   4.853  11.706
76732SOL     OW32092  11.329   1.470   8.695
76732SOL    HW132093  11.392   1.495   8.763
76732SOL    HW232094  11.253   1.438   8.744
76733SOL     OW32095   6.621   2.778  12.228
76733SOL    HW132096   6.562   2.765  12.154
76733SOL    HW232097   6.591   2.716  12.294
76734SOL     OW32098  11.294  13.022   6.755
76734SOL    HW132099  11.326  12.933   6.770
76734SOL    HW232100  11.373  13.073   6.736
76735SOL     OW32101  13.210  11.461   9.618
76735SOL    HW132102  13.223  11.386   9.677
76735SOL    HW232103  13.205  11.422   9.531
76736SOL     OW32104  10.182   9.274   0.867
76736SOL    HW132105  10.180   9.349   0.926
76736SOL    HW232106  10.257   9.292   0.810
76737SOL     OW32107  13.013   9.497   7.336
76737SOL    HW132108  13.025   9.543   7.419
76737SOL    HW232109  13.077   9.536   7.276
76738SOL     OW32110  10.348  11.802  13.831
76738SOL    HW132111  10.322  11.891  13.853
76738SOL    HW232112  10.294  11.779  13.755
76739SOL     OW32113   9.259   2.088   8.475
76739SOL    HW132114   9.221   2.006   8.505
76739SOL    HW232115   9.323   2.112   8.542
76740SOL     OW32116   9.427   7.703   6.118
76740SOL    HW132117   9.355   7.653   6.158
76740SOL    HW232118   9.455   7.763   6.187
76741SOL     OW32119   8.426   7.133   2.221
76741SOL    HW132120   8.506   7.082   2.203
76741SOL    HW232121   8.365   7.071   2.259
76742SOL     OW32122   3.198   9.376   3.824
76742SOL    HW132123   3.134   9.347   3.759
76742SOL    HW232124   3.282   9.348   3.789
76743SOL     OW32125   6.003  14.823   0.931
76743SOL    HW132126   6.003  14.770   1.011
76743SOL    HW232127   5.993  14.759   0.860
76744SOL     OW32128   8.472  14.857  13.467
76744SOL    HW132129   8.470  14.772  13.510
76744SOL    HW232130   8.564  14.871  13.445
76745SOL     OW32131   4.002   9.709  12.055
76745SOL    HW132132   4.004   9.671  12.143
76745SOL    HW232133   3.998   9.804  12.071
76746SOL     OW32134   3.935   8.209   0.109
76746SOL    HW132135   3.914   8.200   0.202
76746SOL    HW232136   3.888   8.138   0.066
76747SOL     OW32137   7.299   2.870   7.628
76747SOL    HW132138   7.321   2.870   7.535
76747SOL    HW232139   7.383   2.867   7.673
76748SOL     OW32140  11.803   0.653  12.989
76748SOL    HW132141  11.857   0.713  13.041
76748SOL    HW232142  11.864   0.586  12.959
76749SOL     OW32143   0.896   1.304   1.700
76749SOL    HW132144   0.846   1.251   1.638
76749SOL    HW232145   0.964   1.346   1.646
76750SOL     OW32146  13.454  10.296  11.622
76750SOL    HW132147  13.460  10.390  11.609
76750SOL    HW232148  13.516  10.277  11.692
76751SOL     OW32149   7.386   7.349  11.675
76751SOL    HW132150   7.370   7.379  11.764
76751SOL    HW232151   7.298   7.336  11.638
76752SOL     OW32152  10.790   0.180   9.823
76752SOL    HW132153  10.760   0.113   9.884
76752SOL    HW232154  10.861   0.225   9.869
76753SOL     OW32155   0.077   2.998  11.800
76753SOL    HW132156   0.033   3.083  11.795
76753SOL    HW232157   0.149   3.005  11.737
76754SOL     OW32158   6.423  10.732   6.053
76754SOL    HW132159   6.431  10.818   6.094
76754SOL    HW232160   6.330  10.710   6.060
76755SOL     OW32161  14.377  13.884  10.095
76755SOL    HW132162  14.325  13.962  10.116
76755SOL    HW232163  14.467  13.914  10.097
76756SOL     OW32164   5.559   4.022  14.463
76756SOL    HW132165   5.527   4.021  14.553
76756SOL    HW232166   5.527   4.104  14.426
76757SOL     OW32167   8.569   6.944  13.321
76757SOL    HW132168   8.477   6.940  13.293
76757SOL    HW232169   8.572   6.891  13.401
76758SOL     OW32170   6.815   4.496  11.557
76758SOL    HW132171   6.831   4.550  11.480
76758SOL    HW232172   6.888   4.516  11.616
76759SOL     OW32173  10.403   3.023   9.793
76759SOL    HW132174  10.346   3.087   9.750
76759SOL    HW232175  10.391   2.943   9.741
76760SOL     OW32176  13.335  13.228  14.130
76760SOL    HW132177  13.266  13.162  14.135
76760SOL    HW232178  13.290  13.306  14.096
76761SOL     OW32179  14.365  12.999  11.357
76761SOL    HW132180  14.398  13.074  11.309
76761SOL    HW232181  14.331  12.940  11.289
76762SOL     OW32182   1.661   4.138   3.795
76762SOL    HW132183   1.654   4.132   3.700
76762SOL    HW232184   1.753   4.154   3.811
76763SOL     OW32185  11.090  14.614   4.989
76763SOL    HW132186  11.106  14.678   4.919
76763SOL    HW232187  10.998  14.590   4.978
76764SOL     OW32188   9.547   0.875   2.535
76764SOL    HW132189   9.512   0.936   2.471
76764SOL    HW232190   9.537   0.920   2.619
76765SOL     OW32191   2.667  10.928   3.678
76765SOL    HW132192   2.693  10.841   3.706
76765SOL    HW232193   2.656  10.921   3.583
76766SOL     OW32194   1.790   3.380   6.237
76766SOL    HW132195   1.829   3.306   6.283
76766SOL    HW232196   1.860   3.413   6.180
76767SOL     OW32197   4.932   6.474   3.516
76767SOL    HW132198   5.015   6.506   3.480
76767SOL    HW232199   4.894   6.422   3.445
76768SOL     OW32200   6.897   9.975   2.619
76768SOL    HW132201   6.921  10.022   2.699
76768SOL    HW232202   6.910   9.882   2.640
76769SOL     OW32203   1.829   8.668  12.204
76769SOL    HW132204   1.805   8.761  12.206
76769SOL    HW232205   1.818   8.643  12.112
76770SOL     OW32206   6.455   7.572  10.391
76770SOL    HW132207   6.503   7.566  10.308
76770SOL    HW232208   6.372   7.526  10.374
76771SOL     OW32209  14.730   0.988   0.657
76771SOL    HW132210  14.788   1.052   0.697
76771SOL    HW232211  14.653   0.987   0.714
76772SOL     OW32212   1.781  11.939  11.393
76772SOL    HW132213   1.845  11.919  11.462
76772SOL    HW232214   1.781  12.035  11.388
76773SOL     OW32215  14.419   2.994   4.171
76773SOL    HW132216  14.356   2.922   4.170
76773SOL    HW232217  14.485   2.967   4.236
76774SOL     OW32218   5.928  12.010   2.050
76774SOL    HW132219   5.958  12.076   2.113
76774SOL    HW232220   5.845  11.980   2.086
76775SOL     OW32221  10.403  12.974   5.458
76775SOL    HW132222  10.422  13.067   5.444
76775SOL    HW232223  10.484  12.929   5.436
76776SOL     OW32224   2.633   3.821   2.386
76776SOL    HW132225   2.597   3.733   2.391
76776SOL    HW232226   2.727   3.807   2.375
76777SOL     OW32227   4.747   8.331  11.273
76777SOL    HW132228   4.678   8.267  11.253
76777SOL    HW232229   4.780   8.305  11.359
76778SOL     OW32230   8.149   0.096   9.009
76778SOL    HW132231   8.057   0.119   8.996
76778SOL    HW232232   8.151   0.049   9.092
76779SOL     OW32233   3.922  11.402   1.213
76779SOL    HW132234   3.936  11.335   1.279
76779SOL    HW232235   3.910  11.353   1.132
76780SOL     OW32236  12.750   4.360   1.177
76780SOL    HW132237  12.681   4.373   1.242
76780SOL    HW232238  12.722   4.283   1.127
76781SOL     OW32239  10.472  14.103   6.321
76781SOL    HW132240  10.477  14.012   6.292
76781SOL    HW232241  10.528  14.107   6.398
76782SOL     OW32242   0.639  12.852  10.086
76782SOL    HW132243   0.734  12.859  10.084
76782SOL    HW232244   0.613  12.848   9.994
76783SOL     OW32245   4.497   8.892  13.842
76783SOL    HW132246   4.529   8.878  13.931
76783SOL    HW232247   4.445   8.814  13.823
76784SOL     OW32248  10.553   2.290  12.778
76784SOL    HW132249  10.523   2.264  12.691
76784SOL    HW232250  10.537   2.384  12.782
76785SOL     OW32251   1.403  13.150   7.372
76785SOL    HW132252   1.358  13.126   7.291
76785SOL    HW232253   1.446  13.233   7.352
76786SOL     OW32254   7.593   8.031   6.192
76786SOL    HW132255   7.563   8.023   6.283
76786SOL    HW232256   7.521   7.995   6.140
76787SOL     OW32257   5.057   6.904   7.391
76787SOL    HW132258   5.067   6.970   7.322
76787SOL    HW232259   5.145   6.867   7.402
76788SOL     OW32260   6.233   2.389   0.948
76788SOL    HW132261   6.269   2.470   0.912
76788SOL    HW232262   6.138   2.397   0.935
76789SOL     OW32263   9.990   3.457   5.404
76789SOL    HW132264  10.038   3.375   5.398
76789SOL    HW232265  10.000   3.484   5.496
76790SOL     OW32266   1.934  10.010   6.532
76790SOL    HW132267   1.910   9.920   6.509
76790SOL    HW232268   1.932  10.057   6.448
76791SOL     OW32269   8.463   0.424   1.225
76791SOL    HW132270   8.524   0.353   1.207
76791SOL    HW232271   8.392   0.383   1.275
76792SOL     OW32272   3.497  12.279  10.308
76792SOL    HW132273   3.567  12.334  10.274
76792SOL    HW232274   3.540  12.221  10.370
76793SOL     OW32275   0.092  11.457   4.264
76793SOL    HW132276   0.061  11.497   4.182
76793SOL    HW232277   0.176  11.501   4.281
76794SOL     OW32278   4.874   2.960   2.912
76794SOL    HW132279   4.955   2.919   2.941
76794SOL    HW232280   4.812   2.944   2.983
76795SOL     OW32281   9.333   6.479   9.124
76795SOL    HW132282   9.355   6.528   9.203
76795SOL    HW232283   9.415   6.472   9.075
76796SOL     OW32284  12.132   5.990  14.634
76796SOL    HW132285  12.139   5.900  14.601
76796SOL    HW232286  12.078   6.035  14.569
76797SOL     OW32287  13.582  11.721   4.495
76797SOL    HW132288  13.603  11.661   4.566
76797SOL    HW232289  13.487  11.730   4.498
76798SOL     OW32290   3.488   8.079   4.344
76798SOL    HW132291   3.454   8.167   4.354
76798SOL    HW232292   3.416   8.030   4.305
76799SOL     OW32293   0.875   1.435  12.452
76799SOL    HW132294   0.966   1.416  12.474
76799SOL    HW232295   0.879   1.472  12.364
76800SOL     OW32296   5.409  14.273  10.925
76800SOL    HW132297   5.387  14.217  10.851
76800SOL    HW232298   5.423  14.212  10.998
76801SOL     OW32299   8.538   6.285   9.613
76801SOL    HW132300   8.468   6.275   9.676
76801SOL    HW232301   8.570   6.374   9.625
76802SOL     OW32302  13.094   6.116  10.596
76802SOL    HW132303  13.111   6.076  10.681
76802SOL    HW232304  13.000   6.103  10.581
76803SOL     OW32305   1.936   4.102   0.957
76803SOL    HW132306   1.910   4.087   1.048
76803SOL    HW232307   1.889   4.182   0.932
76804SOL     OW32308   6.671   3.943   1.319
76804SOL    HW132309   6.762   3.912   1.309
76804SOL    HW232310   6.618   3.865   1.305
76805SOL     OW32311   3.713   1.789   2.404
76805SOL    HW132312   3.677   1.773   2.317
76805SOL    HW232313   3.807   1.803   2.389
76806SOL     OW32314   5.160   8.501   9.118
76806SOL    HW132315   5.255   8.504   9.127
76806SOL    HW232316   5.145   8.468   9.029
76807SOL     OW32317  12.184   1.226   8.947
76807SOL    HW132318  12.189   1.141   8.902
76807SOL    HW232319  12.259   1.275   8.914
76808SOL     OW32320  14.600   6.473   5.900
76808SOL    HW132321  14.557   6.442   5.980
76808SOL    HW232322  14.628   6.562   5.920
76809SOL     OW32323   7.991  14.469   5.232
76809SOL    HW132324   8.050  14.394   5.223
76809SOL    HW232325   7.961  14.486   5.143
76810SOL     OW32326   3.320  11.151  11.419
76810SOL    HW132327   3.296  11.184  11.506
76810SOL    HW232328   3.243  11.100  11.392
76811SOL     OW32329  14.205  13.114   4.869
76811SOL    HW132330  14.178  13.188   4.815
76811SOL    HW232331  14.272  13.149   4.927
76812SOL     OW32332  12.952  13.210   5.181
76812SOL    HW132333  13.028  13.157   5.159
76812SOL    HW232334  12.898  13.208   5.102
76813SOL     OW32335   6.770   0.738   9.299
76813SOL    HW132336   6.809   0.757   9.384
76813SOL    HW232337   6.840   0.754   9.236
76814SOL     OW32338  12.200  11.239   5.196
76814SOL    HW132339  12.276  11.184   5.215
76814SOL    HW232340  12.128  11.176   5.183
76815SOL     OW32341  11.365   1.530   2.616
76815SOL    HW132342  11.339   1.522   2.524
76815SOL    HW232343  11.420   1.454   2.632
76816SOL     OW32344  11.503  12.997   5.837
76816SOL    HW132345  11.425  12.999   5.782
76816SOL    HW232346  11.483  12.934   5.905
76817SOL     OW32347   7.551  14.328   9.363
76817SOL    HW132348   7.596  14.265   9.420
76817SOL    HW232349   7.584  14.413   9.392
76818SOL     OW32350   7.746   8.012  11.535
76818SOL    HW132351   7.795   8.016  11.617
76818SOL    HW232352   7.688   8.088  11.538
76819SOL     OW32353  11.700   9.555   9.922
76819SOL    HW132354  11.722   9.502   9.845
76819SOL    HW232355  11.656   9.494   9.981
76820SOL     OW32356   4.121   7.281  12.830
76820SOL    HW132357   4.119   7.244  12.919
76820SOL    HW232358   4.153   7.370  12.842
76821SOL     OW32359   7.322   1.332   8.470
76821SOL    HW132360   7.342   1.359   8.380
76821SOL    HW232361   7.227   1.320   8.471
76822SOL     OW32362   7.773  11.387   1.421
76822SOL    HW132363   7.853  11.356   1.379
76822SOL    HW232364   7.717  11.415   1.348
76823SOL     OW32365  13.457   4.536   9.640
76823SOL    HW132366  13.549   4.562   9.649
76823SOL    HW232367  13.411   4.585   9.708
76824SOL     OW32368   4.906   6.748   7.543
76824SOL    HW132369   4.856   6.681   7.496
76824SOL    HW232370   4.937   6.807   7.475
76825SOL     OW32371  13.214   5.508   6.600
76825SOL    HW132372  13.231   5.581   6.541
76825SOL    HW232373  13.241   5.431   6.551
76826SOL     OW32374   5.454  12.253   9.572
76826SOL    HW132375   5.544  12.234   9.547
76826SOL    HW232376   5.461  12.290   9.660
76827SOL     OW32377   0.616  14.679   2.519
76827SOL    HW132378   0.693  14.681   2.575
76827SOL    HW232379   0.650  14.672   2.430
76828SOL     OW32380   4.814  13.455  11.468
76828SOL    HW132381   4.773  13.472  11.553
76828SOL    HW232382   4.743  13.423  11.413
76829SOL     OW32383   5.619   6.037   9.395
76829SOL    HW132384   5.709   6.005   9.400
76829SOL    HW232385   5.570   5.966   9.354
76830SOL     OW32386   6.050   3.755  11.525
76830SOL    HW132387   5.986   3.825  11.538
76830SOL    HW232388   6.029   3.691  11.593
76831SOL     OW32389  10.963   6.002  11.147
76831SOL    HW132390  10.877   5.961  11.155
76831SOL    HW232391  10.944   6.096  11.139
76832SOL     OW32392   4.493  12.522   6.599
76832SOL    HW132393   4.492  12.460   6.672
76832SOL    HW232394   4.474  12.469   6.522
76833SOL     OW32395   8.643   8.769   2.986
76833SOL    HW132396   8.587   8.694   3.007
76833SOL    HW232397   8.587   8.846   2.999
76834SOL     OW32398   3.457   3.356  12.112
76834SOL    HW132399   3.402   3.419  12.066
76834SOL    HW232400   3.532   3.408  12.141
76835SOL     OW32401   8.978  10.725  13.596
76835SOL    HW132402   8.945  10.757  13.680
76835SOL    HW232403   8.932  10.778  13.531
76836SOL     OW32404  13.993   3.417   9.815
76836SOL    HW132405  14.008   3.323   9.806
76836SOL    HW232406  13.899   3.425   9.828
76837SOL     OW32407  10.350   3.078  10.202
76837SOL    HW132408  10.411   3.021  10.248
76837SOL    HW232409  10.314   3.023  10.132
76838SOL     OW32410   2.691   8.097   2.908
76838SOL    HW132411   2.743   8.178   2.911
76838SOL    HW232412   2.624   8.115   2.842
76839SOL     OW32413   8.521   4.937   0.355
76839SOL    HW132414   8.576   4.955   0.431
76839SOL    HW232415   8.522   4.841   0.348
76840SOL     OW32416  13.737  10.215  14.477
76840SOL    HW132417  13.814  10.271  14.490
76840SOL    HW232418  13.764  10.130  14.511
76841SOL     OW32419   5.130  11.076   7.210
76841SOL    HW132420   5.122  11.026   7.129
76841SOL    HW232421   5.095  11.162   7.189
76842SOL     OW32422   0.849   6.441  10.155
76842SOL    HW132423   0.846   6.460  10.061
76842SOL    HW232424   0.942   6.442  10.177
76843SOL     OW32425  11.985  10.245   7.616
76843SOL    HW132426  12.041  10.306   7.568
76843SOL    HW232427  11.963  10.177   7.553
76844SOL     OW32428  11.989   8.190   4.123
76844SOL    HW132429  11.945   8.275   4.130
76844SOL    HW232430  11.985   8.168   4.029
76845SOL     OW32431  12.313  10.023   4.337
76845SOL    HW132432  12.250  10.080   4.293
76845SOL    HW232433  12.385  10.082   4.361
76846SOL     OW32434  11.432   3.981   6.937
76846SOL    HW132435  11.519   3.979   6.977
76846SOL    HW232436  11.444   4.027   6.855
76847SOL     OW32437   3.156   4.636   7.101
76847SOL    HW132438   3.105   4.555   7.109
76847SOL    HW232439   3.247   4.608   7.109
76848SOL     OW32440   2.217   7.132   8.070
76848SOL    HW132441   2.273   7.160   8.142
76848SOL    HW232442   2.128   7.149   8.101
76849SOL     OW32443  13.352   1.790   1.817
76849SOL    HW132444  13.298   1.870   1.819
76849SOL    HW232445  13.345   1.754   1.905
76850SOL     OW32446   4.663   3.977   4.225
76850SOL    HW132447   4.704   3.957   4.309
76850SOL    HW232448   4.681   3.900   4.171
76851SOL     OW32449   8.249  12.818  12.703
76851SOL    HW132450   8.222  12.904  12.670
76851SOL    HW232451   8.222  12.818  12.795
76852SOL     OW32452  13.451   6.719   7.620
76852SOL    HW132453  13.441   6.749   7.529
76852SOL    HW232454  13.541   6.688   7.625
76853SOL     OW32455   1.229  13.459   1.906
76853SOL    HW132456   1.299  13.399   1.881
76853SOL    HW232457   1.190  13.419   1.983
76854SOL     OW32458   2.313   4.887   3.430
76854SOL    HW132459   2.273   4.865   3.346
76854SOL    HW232460   2.274   4.826   3.492
76855SOL     OW32461  13.573  10.439  14.398
76855SOL    HW132462  13.621  10.356  14.393
76855SOL    HW232463  13.559  10.465  14.307
76856SOL     OW32464   2.504  14.222   7.047
76856SOL    HW132465   2.423  14.204   7.000
76856SOL    HW232466   2.511  14.151   7.111
76857SOL     OW32467  14.384  14.022  14.834
76857SOL    HW132468  14.330  13.985   0.032
76857SOL    HW232469  14.322  14.045  14.765
76858SOL     OW32470   8.064   6.762  11.395
76858SOL    HW132471   8.005   6.807  11.335
76858SOL    HW232472   8.151   6.793  11.370
76859SOL     OW32473  10.629  14.751   7.523
76859SOL    HW132474  10.678  14.810   7.580
76859SOL    HW232475  10.638  14.789   7.435
76860SOL     OW32476   0.758   3.939   7.822
76860SOL    HW132477   0.760   3.986   7.738
76860SOL    HW232478   0.785   3.849   7.799
76861SOL     OW32479  14.176   2.422   9.128
76861SOL    HW132480  14.113   2.494   9.128
76861SOL    HW232481  14.189   2.402   9.221
76862SOL     OW32482   8.556   7.916  12.967
76862SOL    HW132483   8.607   7.989  13.001
76862SOL    HW232484   8.475   7.918  13.019
76863SOL     OW32485  10.914  13.918  14.449
76863SOL    HW132486  10.837  13.932  14.393
76863SOL    HW232487  10.894  13.837  14.497
76864SOL     OW32488  12.277   0.187   5.626
76864SOL    HW132489  12.356   0.218   5.582
76864SOL    HW232490  12.272   0.094   5.605
76865SOL     OW32491   2.021   5.339   1.109
76865SOL    HW132492   1.989   5.403   1.045
76865SOL    HW232493   1.964   5.350   1.185
76866SOL     OW32494  10.295  12.655   7.005
76866SOL    HW132495  10.207  12.694   7.007
76866SOL    HW232496  10.353  12.725   7.034
76867SOL     OW32497   0.864  13.446   1.911
76867SOL    HW132498   0.902  13.388   1.977
76867SOL    HW232499   0.919  13.524   1.914
76868SOL     OW32500   5.479   6.272   5.977
76868SOL    HW132501   5.510   6.339   6.037
76868SOL    HW232502   5.557   6.248   5.926
76869SOL     OW32503   4.273   3.981   4.455
76869SOL    HW132504   4.297   4.066   4.491
76869SOL    HW232505   4.356   3.942   4.428
76870SOL     OW32506   4.186   5.146  11.642
76870SOL    HW132507   4.213   5.054  11.634
76870SOL    HW232508   4.265   5.191  11.673
76871SOL     OW32509   2.893  14.837   1.813
76871SOL    HW132510   2.939   0.040   1.773
76871SOL    HW232511   2.962  14.786   1.855
76872SOL     OW32512   7.167   5.309   3.128
76872SOL    HW132513   7.246   5.330   3.178
76872SOL    HW232514   7.103   5.284   3.194
76873SOL     OW32515   8.449   9.256   6.958
76873SOL    HW132516   8.474   9.277   6.868
76873SOL    HW232517   8.363   9.297   6.970
76874SOL     OW32518  13.363  11.901   5.391
76874SOL    HW132519  13.433  11.964   5.371
76874SOL    HW232520  13.319  11.937   5.468
76875SOL     OW32521   4.680   4.224  11.875
76875SOL    HW132522   4.719   4.311  11.879
76875SOL    HW232523   4.594   4.237  11.837
76876SOL     OW32524   1.134   7.255  12.661
76876SOL    HW132525   1.126   7.303  12.578
76876SOL    HW232526   1.058   7.196  12.661
76877SOL     OW32527   5.891   4.952   0.034
76877SOL    HW132528   5.910   4.872  14.857
76877SOL    HW232529   5.852   5.011  14.841
76878SOL     OW32530  13.251   8.798   7.280
76878SOL    HW132531  13.218   8.836   7.362
76878SOL    HW232532  13.303   8.868   7.241
76879SOL     OW32533   8.889  13.845  10.916
76879SOL    HW132534   8.845  13.763  10.892
76879SOL    HW232535   8.882  13.900  10.837
76880SOL     OW32536  12.913  13.477   2.550
76880SOL    HW132537  12.908  13.518   2.636
76880SOL    HW232538  12.903  13.550   2.488
76881SOL     OW32539   2.250   3.941   7.865
76881SOL    HW132540   2.167   3.906   7.832
76881SOL    HW232541   2.232   3.960   7.957
76882SOL     OW32542  14.106  10.909   5.500
76882SOL    HW132543  14.199  10.926   5.516
76882SOL    HW232544  14.104  10.865   5.415
76883SOL     OW32545   1.599  11.357   9.819
76883SOL    HW132546   1.647  11.434   9.850
76883SOL    HW232547   1.623  11.288   9.881
76884SOL     OW32548   7.337   8.229  10.623
76884SOL    HW132549   7.342   8.248  10.529
76884SOL    HW232550   7.265   8.285  10.654
76885SOL     OW32551  13.413   9.825  13.208
76885SOL    HW132552  13.351   9.863  13.145
76885SOL    HW232553  13.497   9.863  13.185
76886SOL     OW32554  13.042   9.452  12.585
76886SOL    HW132555  13.051   9.360  12.564
76886SOL    HW232556  12.973   9.455  12.651
76887SOL     OW32557  13.554  12.123   7.790
76887SOL    HW132558  13.518  12.183   7.855
76887SOL    HW232559  13.648  12.136   7.795
76888SOL     OW32560   0.849   0.658  10.926
76888SOL    HW132561   0.892   0.580  10.891
76888SOL    HW232562   0.910   0.729  10.909
76889SOL     OW32563   4.833   1.583   1.227
76889SOL    HW132564   4.836   1.678   1.216
76889SOL    HW232565   4.845   1.569   1.321
76890SOL     OW32566  11.481   6.414  14.064
76890SOL    HW132567  11.513   6.471  13.995
76890SOL    HW232568  11.555   6.406  14.125
76891SOL     OW32569  12.427   0.697   6.654
76891SOL    HW132570  12.363   0.626   6.642
76891SOL    HW232571  12.510   0.651   6.672
76892SOL     OW32572   5.711  12.168   1.758
76892SOL    HW132573   5.761  12.224   1.699
76892SOL    HW232574   5.751  12.081   1.749
76893SOL     OW32575   9.207  11.175   8.286
76893SOL    HW132576   9.284  11.153   8.338
76893SOL    HW232577   9.240  11.190   8.198
76894SOL     OW32578   0.601   0.412  12.057
76894SOL    HW132579   0.597   0.324  12.093
76894SOL    HW232580   0.585   0.401  11.963
76895SOL     OW32581   7.666   3.225  14.341
76895SOL    HW132582   7.602   3.223  14.413
76895SOL    HW232583   7.644   3.304  14.292
76896SOL     OW32584   7.911   3.817   9.634
76896SOL    HW132585   7.923   3.772   9.718
76896SOL    HW232586   7.967   3.770   9.573
76897SOL     OW32587  13.497  14.071   9.250
76897SOL    HW132588  13.413  14.088   9.207
76897SOL    HW232589  13.502  14.138   9.318
76898SOL     OW32590   8.358   9.435  14.317
76898SOL    HW132591   8.282   9.377  14.318
76898SOL    HW232592   8.322   9.523  14.307
76899SOL     OW32593   9.474  14.392   2.046
76899SOL    HW132594   9.518  14.475   2.062
76899SOL    HW232595   9.384  14.407   2.072
76900SOL     OW32596   7.943  13.419   1.011
76900SOL    HW132597   7.960  13.386   1.099
76900SOL    HW232598   7.913  13.342   0.962
76901SOL     OW32599  11.671   4.388  14.243
76901SOL    HW132600  11.672   4.482  14.262
76901SOL    HW232601  11.583   4.372  14.209
76902SOL     OW32602   2.161   0.820   8.871
76902SOL    HW132603   2.146   0.913   8.889
76902SOL    HW232604   2.157   0.778   8.957
76903SOL     OW32605   8.681   0.162   2.311
76903SOL    HW132606   8.754   0.146   2.250
76903SOL    HW232607   8.628   0.082   2.305
76904SOL     OW32608   2.893   4.042  12.406
76904SOL    HW132609   2.805   4.072  12.382
76904SOL    HW232610   2.889   3.947  12.400
76905SOL     OW32611   0.701   9.189   5.053
76905SOL    HW132612   0.747   9.271   5.035
76905SOL    HW232613   0.610   9.214   5.067
76906SOL     OW32614  14.441   1.975   4.813
76906SOL    HW132615  14.510   2.026   4.856
76906SOL    HW232616  14.486   1.931   4.740
76907SOL     OW32617   0.757  11.025   7.004
76907SOL    HW132618   0.664  11.047   7.011
76907SOL    HW232619   0.780  10.988   7.089
76908SOL     OW32620   9.390   8.855   8.807
76908SOL    HW132621   9.376   8.790   8.738
76908SOL    HW232622   9.375   8.939   8.763
76909SOL     OW32623  11.417   1.858   6.837
76909SOL    HW132624  11.378   1.822   6.917
76909SOL    HW232625  11.482   1.921   6.868
76910SOL     OW32626   8.650  10.338   0.388
76910SOL    HW132627   8.574  10.361   0.440
76910SOL    HW232628   8.625  10.361   0.298
76911SOL     OW32629  13.126  14.406   3.004
76911SOL    HW132630  13.076  14.487   3.010
76911SOL    HW232631  13.132  14.375   3.095
76912SOL     OW32632   8.910   8.309   3.218
76912SOL    HW132633   9.002   8.286   3.200
76912SOL    HW232634   8.889   8.375   3.152
76913SOL     OW32635   9.710   1.298   7.438
76913SOL    HW132636   9.703   1.252   7.354
76913SOL    HW232637   9.676   1.236   7.502
76914SOL     OW32638   4.602   9.673   9.577
76914SOL    HW132639   4.587   9.729   9.653
76914SOL    HW232640   4.697   9.677   9.563
76915SOL     OW32641   7.018   1.062   5.621
76915SOL    HW132642   7.058   0.987   5.578
76915SOL    HW232643   6.978   1.112   5.550
76916SOL     OW32644   0.367   9.174  10.020
76916SOL    HW132645   0.313   9.240  10.064
76916SOL    HW232646   0.309   9.138   9.952
76917SOL     OW32647  11.731  11.268   0.483
76917SOL    HW132648  11.756  11.195   0.427
76917SOL    HW232649  11.761  11.346   0.437
76918SOL     OW32650   8.514   9.126   2.780
76918SOL    HW132651   8.425   9.153   2.757
76918SOL    HW232652   8.509   9.105   2.873
76919SOL     OW32653   0.725   2.575   7.322
76919SOL    HW132654   0.696   2.487   7.349
76919SOL    HW232655   0.685   2.633   7.386
76920SOL     OW32656  14.305  14.627  11.061
76920SOL    HW132657  14.329  14.569  11.133
76920SOL    HW232658  14.359  14.705  11.075
76921SOL     OW32659  12.962  11.543  14.112
76921SOL    HW132660  13.045  11.513  14.076
76921SOL    HW232661  12.923  11.464  14.151
76922SOL     OW32662   9.199  13.873   8.258
76922SOL    HW132663   9.123  13.842   8.207
76922SOL    HW232664   9.181  13.966   8.273
76923SOL     OW32665   2.015  11.474   5.546
76923SOL    HW132666   2.079  11.408   5.571
76923SOL    HW232667   2.028  11.545   5.609
76924SOL     OW32668   6.627   8.482  12.721
76924SOL    HW132669   6.585   8.543  12.781
76924SOL    HW232670   6.720   8.488  12.742
76925SOL     OW32671   5.729  11.481  14.690
76925SOL    HW132672   5.705  11.407  14.634
76925SOL    HW232673   5.651  11.498  14.742
76926SOL     OW32674   3.884   8.794   9.726
76926SOL    HW132675   3.962   8.846   9.745
76926SOL    HW232676   3.896   8.766   9.635
76927SOL     OW32677   6.875   5.897   9.075
76927SOL    HW132678   6.902   5.977   9.030
76927SOL    HW232679   6.780   5.894   9.063
76928SOL     OW32680  13.898   0.107   5.259
76928SOL    HW132681  13.910   0.127   5.352
76928SOL    HW232682  13.808   0.075   5.252
76929SOL     OW32683   8.107   8.502   4.104
76929SOL    HW132684   8.062   8.572   4.057
76929SOL    HW232685   8.036   8.448   4.139
76930SOL     OW32686   9.931  13.481  10.993
76930SOL    HW132687   9.947  13.549  10.928
76930SOL    HW232688   9.852  13.511  11.039
76931SOL     OW32689   3.950   3.237  10.900
76931SOL    HW132690   3.953   3.273  10.988
76931SOL    HW232691   3.905   3.304  10.848
76932SOL     OW32692   5.753   8.186  14.385
76932SOL    HW132693   5.810   8.120  14.345
76932SOL    HW232694   5.707   8.140  14.455
76933SOL     OW32695   8.176   5.817  11.713
76933SOL    HW132696   8.121   5.740  11.703
76933SOL    HW232697   8.244   5.806  11.646
76934SOL     OW32698  14.432   9.887  14.269
76934SOL    HW132699  14.399   9.804  14.303
76934SOL    HW232700  14.458   9.868  14.179
76935SOL     OW32701   3.069   0.214  11.249
76935SOL    HW132702   3.035   0.303  11.238
76935SOL    HW232703   3.042   0.188  11.337
76936SOL     OW32704  12.183   6.155   2.775
76936SOL    HW132705  12.188   6.250   2.785
76936SOL    HW232706  12.255   6.133   2.715
76937SOL     OW32707  14.333  13.142   2.996
76937SOL    HW132708  14.400  13.202   3.030
76937SOL    HW232709  14.369  13.055   3.012
76938SOL     OW32710  14.486  10.476   2.490
76938SOL    HW132711  14.483  10.442   2.579
76938SOL    HW232712  14.565  10.530   2.487
76939SOL     OW32713   4.100  11.782  13.042
76939SOL    HW132714   4.139  11.865  13.072
76939SOL    HW232715   4.038  11.809  12.974
76940SOL     OW32716   5.846   9.324  10.716
76940SOL    HW132717   5.871   9.339  10.625
76940SOL    HW232718   5.926   9.338  10.766
76941SOL     OW32719   3.487   3.496   7.554
76941SOL    HW132720   3.455   3.542   7.632
76941SOL    HW232721   3.520   3.565   7.497
76942SOL     OW32722   1.388   7.177  10.364
76942SOL    HW132723   1.310   7.229  10.383
76942SOL    HW232724   1.435   7.174  10.448
76943SOL     OW32725  14.437   5.072   2.604
76943SOL    HW132726  14.485   5.011   2.549
76943SOL    HW232727  14.502   5.101   2.669
76944SOL     OW32728  12.701  13.344  12.053
76944SOL    HW132729  12.742  13.299  11.979
76944SOL    HW232730  12.725  13.292  12.129
76945SOL     OW32731   4.593   7.601   5.207
76945SOL    HW132732   4.593   7.527   5.147
76945SOL    HW232733   4.501   7.625   5.217
76946SOL     OW32734   8.791   1.367   7.187
76946SOL    HW132735   8.883   1.344   7.174
76946SOL    HW232736   8.774   1.345   7.279
76947SOL     OW32737  12.625   1.886  13.273
76947SOL    HW132738  12.599   1.888  13.181
76947SOL    HW232739  12.643   1.978  13.295
76948SOL     OW32740  11.962   7.651  13.214
76948SOL    HW132741  11.982   7.741  13.190
76948SOL    HW232742  11.926   7.613  13.134
76949SOL     OW32743   2.521   4.218  10.768
76949SOL    HW132744   2.528   4.282  10.697
76949SOL    HW232745   2.536   4.269  10.848
76950SOL     OW32746   1.323   4.148   0.247
76950SOL    HW132747   1.391   4.136   0.180
76950SOL    HW232748   1.249   4.185   0.199
76951SOL     OW32749   7.581  10.516  14.564
76951SOL    HW132750   7.501  10.519  14.617
76951SOL    HW232751   7.557  10.465  14.487
76952SOL     OW32752  14.273   8.858  10.599
76952SOL    HW132753  14.323   8.820  10.671
76952SOL    HW232754  14.211   8.918  10.642
76953SOL     OW32755   3.344   1.246   2.279
76953SOL    HW132756   3.302   1.253   2.193
76953SOL    HW232757   3.425   1.199   2.262
76954SOL     OW32758  11.578  11.100   6.157
76954SOL    HW132759  11.600  11.009   6.174
76954SOL    HW232760  11.491  11.111   6.195
76955SOL     OW32761   5.765   2.342  10.614
76955SOL    HW132762   5.825   2.327  10.541
76955SOL    HW232763   5.808   2.408  10.668
76956SOL     OW32764   1.338   6.805   5.589
76956SOL    HW132765   1.308   6.896   5.595
76956SOL    HW232766   1.294   6.770   5.511
76957SOL     OW32767   2.014   7.354  14.154
76957SOL    HW132768   2.012   7.401  14.238
76957SOL    HW232769   2.029   7.263  14.178
76958SOL     OW32770   8.835   0.386   8.912
76958SOL    HW132771   8.878   0.415   8.992
76958SOL    HW232772   8.747   0.361   8.940
76959SOL     OW32773  12.236   7.294   4.776
76959SOL    HW132774  12.168   7.358   4.758
76959SOL    HW232775  12.307   7.317   4.717
76960SOL     OW32776   3.036  12.109   5.278
76960SOL    HW132777   3.124  12.087   5.250
76960SOL    HW232778   2.982  12.037   5.246
76961SOL     OW32779  13.525   0.370  12.261
76961SOL    HW132780  13.485   0.309  12.200
76961SOL    HW232781  13.603   0.403  12.215
76962SOL     OW32782   8.665  14.429   2.349
76962SOL    HW132783   8.758  14.407   2.353
76962SOL    HW232784   8.649  14.482   2.427
76963SOL     OW32785   4.308  13.331  14.321
76963SOL    HW132786   4.283  13.404  14.264
76963SOL    HW232787   4.305  13.367  14.410
76964SOL     OW32788   6.602   8.262  14.412
76964SOL    HW132789   6.632   8.306  14.492
76964SOL    HW232790   6.617   8.169  14.429
76965SOL     OW32791  13.334   6.668   0.618
76965SOL    HW132792  13.326   6.651   0.712
76965SOL    HW232793  13.268   6.611   0.578
76966SOL     OW32794   5.685  10.010  14.420
76966SOL    HW132795   5.641  10.059  14.350
76966SOL    HW232796   5.767  10.057  14.432
76967SOL     OW32797   9.111  13.306   0.149
76967SOL    HW132798   9.156  13.303   0.233
76967SOL    HW232799   9.018  13.301   0.171
76968SOL     OW32800   8.522   8.849   2.677
76968SOL    HW132801   8.500   8.942   2.681
76968SOL    HW232802   8.580   8.835   2.751
76969SOL     OW32803  10.487  10.917   4.558
76969SOL    HW132804  10.558  10.933   4.620
76969SOL    HW232805  10.530  10.887   4.478
76970SOL     OW32806   6.841  10.973   5.157
76970SOL    HW132807   6.862  10.905   5.221
76970SOL    HW232808   6.798  11.042   5.209
76971SOL     OW32809   9.720  12.877  11.089
76971SOL    HW132810   9.645  12.934  11.079
76971SOL    HW232811   9.765  12.882  11.004
76972SOL     OW32812   7.320   4.558  10.016
76972SOL    HW132813   7.328   4.623  10.086
76972SOL    HW232814   7.406   4.516  10.012
76973SOL     OW32815  10.366   0.655   5.252
76973SOL    HW132816  10.380   0.569   5.213
76973SOL    HW232817  10.279   0.681   5.221
76974SOL     OW32818   0.120  11.376  10.586
76974SOL    HW132819   0.151  11.291  10.555
76974SOL    HW232820   0.032  11.358  10.621
76975SOL     OW32821   9.010   6.097  13.135
76975SOL    HW132822   9.051   6.174  13.095
76975SOL    HW232823   8.924   6.129  13.164
76976SOL     OW32824   5.617  10.346   6.225
76976SOL    HW132825   5.647  10.287   6.294
76976SOL    HW232826   5.695  10.393   6.197
76977SOL     OW32827   4.642   3.601   9.943
76977SOL    HW132828   4.592   3.584  10.023
76977SOL    HW232829   4.577   3.632   9.880
76978SOL     OW32830   5.379  11.288   7.028
76978SOL    HW132831   5.387  11.251   7.116
76978SOL    HW232832   5.316  11.230   6.984
76979SOL     OW32833   2.516  11.168   3.252
76979SOL    HW132834   2.489  11.124   3.171
76979SOL    HW232835   2.535  11.258   3.226
76980SOL     OW32836   8.158   7.745   5.440
76980SOL    HW132837   8.222   7.732   5.370
76980SOL    HW232838   8.200   7.807   5.500
76981SOL     OW32839   5.701  14.767  13.288
76981SOL    HW132840   5.669  14.744  13.375
76981SOL    HW232841   5.622  14.787  13.238
76982SOL     OW32842   0.848   6.368  13.558
76982SOL    HW132843   0.881   6.354  13.469
76982SOL    HW232844   0.821   6.460  13.559
76983SOL     OW32845  12.419   6.642  13.445
76983SOL    HW132846  12.338   6.593  13.429
76983SOL    HW232847  12.487   6.590  13.401
76984SOL     OW32848  10.145  11.682   6.663
76984SOL    HW132849  10.133  11.648   6.575
76984SOL    HW232850  10.153  11.777   6.653
76985SOL     OW32851   8.407   2.173   3.924
76985SOL    HW132852   8.357   2.176   3.843
76985SOL    HW232853   8.465   2.097   3.915
76986SOL     OW32854   1.020  13.620   6.265
76986SOL    HW132855   1.089  13.616   6.332
76986SOL    HW232856   1.005  13.713   6.251
76987SOL     OW32857   3.437   5.242   0.883
76987SOL    HW132858   3.357   5.258   0.931
76987SOL    HW232859   3.453   5.148   0.892
76988SOL     OW32860   0.560   0.499   1.127
76988SOL    HW132861   0.623   0.467   1.193
76988SOL    HW232862   0.475   0.490   1.169
76989SOL     OW32863  12.118   9.212  13.199
76989SOL    HW132864  12.204   9.241  13.227
76989SOL    HW232865  12.110   9.242  13.108
76990SOL     OW32866  10.639   7.219  10.467
76990SOL    HW132867  10.590   7.301  10.463
76990SOL    HW232868  10.727   7.241  10.437
76991SOL     OW32869  14.778  13.517   6.543
76991SOL    HW132870  14.738  13.439   6.504
76991SOL    HW232871  14.818  13.485   6.624
76992SOL     OW32872   2.070   8.105  13.757
76992SOL    HW132873   2.101   8.195  13.752
76992SOL    HW232874   2.019   8.101  13.838
76993SOL     OW32875  10.625  14.330   0.189
76993SOL    HW132876  10.544  14.283   0.170
76993SOL    HW232877  10.597  14.420   0.207
76994SOL     OW32878   4.198   7.811   0.284
76994SOL    HW132879   4.128   7.838   0.224
76994SOL    HW232880   4.265   7.774   0.226
76995SOL     OW32881  13.165   0.860   5.995
76995SOL    HW132882  13.070   0.849   5.991
76995SOL    HW232883  13.185   0.919   5.922
76996SOL     OW32884   9.405  14.049   7.066
76996SOL    HW132885   9.484  14.091   7.100
76996SOL    HW232886   9.368  14.003   7.141
76997SOL     OW32887   7.196   3.616   1.928
76997SOL    HW132888   7.263   3.550   1.942
76997SOL    HW232889   7.243   3.689   1.886
76998SOL     OW32890   8.783   2.897   3.295
76998SOL    HW132891   8.704   2.852   3.324
76998SOL    HW232892   8.793   2.970   3.356
76999SOL     OW32893  12.268  13.108  11.954
76999SOL    HW132894  12.304  13.039  12.009
76999SOL    HW232895  12.337  13.174  11.949
77000SOL     OW32896   3.087   3.303   7.066
77000SOL    HW132897   3.142   3.228   7.087
77000SOL    HW232898   3.007   3.289   7.118
77001SOL     OW32899  12.942   2.863  13.324
77001SOL    HW132900  12.936   2.902  13.237
77001SOL    HW232901  12.860   2.817  13.336
77002SOL     OW32902  13.761   1.016   3.383
77002SOL    HW132903  13.822   1.017   3.309
77002SOL    HW232904  13.677   1.043   3.346
77003SOL     OW32905   2.021  11.391   8.462
77003SOL    HW132906   2.112  11.417   8.470
77003SOL    HW232907   1.997  11.410   8.372
77004SOL     OW32908   3.476  10.664  12.690
77004SOL    HW132909   3.490  10.626  12.776
77004SOL    HW232910   3.387  10.699  12.693
77005SOL     OW32911   1.347  10.787   6.040
77005SOL    HW132912   1.414  10.738   5.993
77005SOL    HW232913   1.371  10.879   6.027
77006SOL     OW32914   7.593  10.289   5.358
77006SOL    HW132915   7.613  10.202   5.326
77006SOL    HW232916   7.529  10.275   5.428
77007SOL     OW32917   2.768  12.665   6.757
77007SOL    HW132918   2.735  12.648   6.845
77007SOL    HW232919   2.701  12.719   6.715
77008SOL     OW32920   1.096   1.005  14.105
77008SOL    HW132921   1.013   1.032  14.064
77008SOL    HW232922   1.148   0.971  14.032
77009SOL     OW32923   1.457   1.900   2.696
77009SOL    HW132924   1.496   1.813   2.702
77009SOL    HW232925   1.518   1.951   2.642
77010SOL     OW32926   1.372  10.136   8.846
77010SOL    HW132927   1.424  10.155   8.768
77010SOL    HW232928   1.396  10.206   8.908
77011SOL     OW32929   5.232   8.090  12.754
77011SOL    HW132930   5.294   8.081  12.682
77011SOL    HW232931   5.148   8.105  12.712
77012SOL     OW32932  10.875   5.597  13.999
77012SOL    HW132933  10.952   5.540  14.005
77012SOL    HW232934  10.904   5.669  13.942
77013SOL     OW32935  14.737   9.443   0.362
77013SOL    HW132936  14.804   9.512   0.367
77013SOL    HW232937  14.767   9.376   0.423
77014SOL     OW32938   7.353   4.301  10.747
77014SOL    HW132939   7.327   4.273  10.835
77014SOL    HW232940   7.279   4.351  10.714
77015SOL     OW32941   4.192  14.384   0.766
77015SOL    HW132942   4.208  14.411   0.676
77015SOL    HW232943   4.243  14.446   0.819
77016SOL     OW32944   1.904   1.468   7.801
77016SOL    HW132945   1.821   1.447   7.845
77016SOL    HW232946   1.957   1.510   7.869
77017SOL     OW32947  11.430  10.042   0.356
77017SOL    HW132948  11.477   9.982   0.298
77017SOL    HW232949  11.339  10.014   0.351
77018SOL     OW32950  10.562   2.838  13.445
77018SOL    HW132951  10.523   2.904  13.502
77018SOL    HW232952  10.651   2.870  13.429
77019SOL     OW32953   1.672  12.948   6.600
77019SOL    HW132954   1.704  12.866   6.637
77019SOL    HW232955   1.603  12.922   6.540
77020SOL     OW32956   8.185   1.211  10.991
77020SOL    HW132957   8.198   1.301  11.019
77020SOL    HW232958   8.206   1.158  11.068
77021SOL     OW32959   3.680  12.165   2.830
77021SOL    HW132960   3.644  12.077   2.843
77021SOL    HW232961   3.606  12.224   2.840
77022SOL     OW32962   1.085  12.916   5.047
77022SOL    HW132963   1.169  12.927   5.091
77022SOL    HW232964   1.048  13.005   5.044
77023SOL     OW32965   0.431   0.055  13.135
77023SOL    HW132966   0.492  14.853  13.126
77023SOL    HW232967   0.474   0.128  13.091
77024SOL     OW32968   9.865   8.447   3.686
77024SOL    HW132969   9.925   8.460   3.759
77024SOL    HW232970   9.804   8.521   3.691
77025SOL     OW32971   7.814  12.902   1.821
77025SOL    HW132972   7.782  12.822   1.779
77025SOL    HW232973   7.774  12.973   1.771
77026SOL     OW32974   3.161   6.852  13.378
77026SOL    HW132975   3.248   6.878  13.347
77026SOL    HW232976   3.101   6.907  13.328
77027SOL     OW32977   8.808   2.649  13.035
77027SOL    HW132978   8.831   2.712  13.104
77027SOL    HW232979   8.713   2.639  13.043
77028SOL     OW32980   0.534   7.575  13.906
77028SOL    HW132981   0.554   7.651  13.852
77028SOL    HW232982   0.578   7.594  13.990
77029SOL     OW32983   9.628   1.674   8.246
77029SOL    HW132984   9.602   1.737   8.313
77029SOL    HW232985   9.676   1.726   8.181
77030SOL     OW32986   0.501   6.217   6.724
77030SOL    HW132987   0.561   6.291   6.718
77030SOL    HW232988   0.535   6.164   6.796
77031SOL     OW32989   9.710   3.183  14.675
77031SOL    HW132990   9.631   3.231  14.701
77031SOL    HW232991   9.781   3.248  14.683
77032SOL     OW32992   0.354   2.123  10.461
77032SOL    HW132993   0.307   2.114  10.379
77032SOL    HW232994   0.362   2.217  10.475
77033SOL     OW32995   9.559  11.762  12.862
77033SOL    HW132996   9.541  11.669  12.862
77033SOL    HW232997   9.508  11.797  12.789
77034SOL     OW32998  14.510   7.957   1.515
77034SOL    HW132999  14.508   7.867   1.545
77034SOL    HW233000  14.442   8.001   1.567
77035SOL     OW33001   5.154   5.343   0.097
77035SOL    HW133002   5.183   5.385   0.016
77035SOL    HW233003   5.234   5.311   0.138
77036SOL     OW33004   8.110   0.843   3.424
77036SOL    HW133005   8.122   0.935   3.399
77036SOL    HW233006   8.195   0.815   3.456
77037SOL     OW33007  10.716   0.168   5.686
77037SOL    HW133008  10.780   0.227   5.647
77037SOL    HW233009  10.641   0.224   5.708
77038SOL     OW33010  13.220   1.521   7.866
77038SOL    HW133011  13.129   1.550   7.856
77038SOL    HW233012  13.216   1.427   7.850
77039SOL     OW33013  14.626  14.370   5.055
77039SOL    HW133014  14.607  14.276   5.047
77039SOL    HW233015  14.567  14.412   4.993
77040SOL     OW33016   3.015   5.490   7.290
77040SOL    HW133017   3.026   5.524   7.201
77040SOL    HW233018   2.958   5.414   7.280
77041SOL     OW33019   3.180  11.208   7.415
77041SOL    HW133020   3.212  11.197   7.505
77041SOL    HW233021   3.141  11.296   7.414
77042SOL     OW33022  13.992   8.117   6.198
77042SOL    HW133023  13.959   8.063   6.127
77042SOL    HW233024  14.086   8.125   6.181
77043SOL     OW33025  11.874   5.839  13.369
77043SOL    HW133026  11.905   5.791  13.446
77043SOL    HW233027  11.797   5.790  13.340
77044SOL     OW33028  13.090   5.435   4.375
77044SOL    HW133029  13.083   5.498   4.303
77044SOL    HW233030  13.153   5.370   4.343
77045SOL     OW33031  12.544  12.097  12.380
77045SOL    HW133032  12.636  12.090  12.406
77045SOL    HW233033  12.542  12.069  12.289
77046SOL     OW33034  10.656  12.608   1.891
77046SOL    HW133035  10.717  12.680   1.880
77046SOL    HW233036  10.660  12.588   1.985
77047SOL     OW33037  13.367  11.433   6.928
77047SOL    HW133038  13.281  11.393   6.941
77047SOL    HW233039  13.355  11.524   6.955
77048SOL     OW33040   3.708   5.452  13.137
77048SOL    HW133041   3.743   5.366  13.158
77048SOL    HW233042   3.761   5.482  13.063
77049SOL     OW33043   5.775  14.048   9.022
77049SOL    HW133044   5.783  13.990   8.946
77049SOL    HW233045   5.780  13.990   9.097
77050SOL     OW33046   4.697  10.412   9.808
77050SOL    HW133047   4.610  10.385   9.780
77050SOL    HW233048   4.741  10.440   9.728
77051SOL     OW33049   0.670   2.459   4.001
77051SOL    HW133050   0.734   2.528   4.016
77051SOL    HW233051   0.591   2.488   4.046
77052SOL     OW33052   2.741  11.543  11.279
77052SOL    HW133053   2.682  11.569  11.350
77052SOL    HW233054   2.690  11.479  11.228
77053SOL     OW33055  14.218   8.840  14.025
77053SOL    HW133056  14.299   8.789  14.015
77053SOL    HW233057  14.227   8.911  13.962
77054SOL     OW33058  12.492  14.576   2.758
77054SOL    HW133059  12.438  14.527   2.820
77054SOL    HW233060  12.433  14.639   2.718
77055SOL     OW33061   7.418   4.663   8.981
77055SOL    HW133062   7.408   4.586   9.038
77055SOL    HW233063   7.416   4.627   8.892
77056SOL     OW33064  10.106   5.796   6.250
77056SOL    HW133065  10.080   5.731   6.186
77056SOL    HW233066  10.036   5.861   6.248
77057SOL     OW33067   8.427   8.812   7.754
77057SOL    HW133068   8.467   8.777   7.833
77057SOL    HW233069   8.371   8.883   7.785
77058SOL     OW33070  11.359  13.680   1.917
77058SOL    HW133071  11.409  13.745   1.966
77058SOL    HW233072  11.277  13.672   1.964
77059SOL     OW33073   2.500   0.429   2.668
77059SOL    HW133074   2.449   0.393   2.596
77059SOL    HW233075   2.589   0.437   2.633
77060SOL     OW33076   3.746   1.383  10.113
77060SOL    HW133077   3.803   1.359  10.039
77060SOL    HW233078   3.777   1.329  10.185
77061SOL     OW33079   0.005   9.956  10.626
77061SOL    HW133080   0.011  10.022  10.696
77061SOL    HW233081   0.005  10.008  10.545
77062SOL     OW33082  13.858   6.562   1.394
77062SOL    HW133083  13.850   6.556   1.490
77062SOL    HW233084  13.806   6.489   1.361
77063SOL     OW33085  13.489  14.231   8.377
77063SOL    HW133086  13.549  14.162   8.404
77063SOL    HW233087  13.437  14.250   8.455
77064SOL     OW33088  12.083   7.013   9.004
77064SOL    HW133089  12.021   6.998   8.933
77064SOL    HW233090  12.160   7.051   8.961
77065SOL     OW33091  14.789   2.396  12.399
77065SOL    HW133092  14.785   2.354  12.314
77065SOL    HW233093   0.009   2.386  12.426
77066SOL     OW33094   9.588   3.001   4.738
77066SOL    HW133095   9.644   2.936   4.695
77066SOL    HW233096   9.628   3.085   4.718
77067SOL     OW33097   9.041   7.648   9.521
77067SOL    HW133098   8.957   7.635   9.563
77067SOL    HW233099   9.021   7.653   9.427
77068SOL     OW33100   2.912   8.159   9.958
77068SOL    HW133101   2.920   8.224   9.887
77068SOL    HW233102   2.973   8.189  10.025
77069SOL     OW33103   2.191  12.375  11.100
77069SOL    HW133104   2.276  12.389  11.059
77069SOL    HW233105   2.147  12.312  11.043
77070SOL     OW33106  11.226   7.282   6.897
77070SOL    HW133107  11.157   7.345   6.878
77070SOL    HW233108  11.203   7.204   6.846
77071SOL     OW33109  12.925   8.347  13.012
77071SOL    HW133110  12.939   8.259  12.976
77071SOL    HW233111  12.830   8.357  13.014
77072SOL     OW33112   9.462   1.264  13.352
77072SOL    HW133113   9.441   1.220  13.435
77072SOL    HW233114   9.504   1.346  13.379
77073SOL     OW33115   3.625   2.989   3.000
77073SOL    HW133116   3.673   3.008   3.081
77073SOL    HW233117   3.551   3.051   3.002
77074SOL     OW33118   7.437  11.199   7.583
77074SOL    HW133119   7.459  11.145   7.507
77074SOL    HW233120   7.452  11.289   7.554
77075SOL     OW33121  14.683   6.095   2.441
77075SOL    HW133122  14.616   6.026   2.441
77075SOL    HW233123  14.765   6.048   2.454
77076SOL     OW33124   3.326   3.282   6.130
77076SOL    HW133125   3.408   3.288   6.178
77076SOL    HW233126   3.306   3.372   6.105
77077SOL     OW33127   6.857   3.405   5.423
77077SOL    HW133128   6.852   3.427   5.516
77077SOL    HW233129   6.893   3.316   5.421
77078SOL     OW33130   8.084   2.310   5.022
77078SOL    HW133131   8.142   2.279   5.092
77078SOL    HW233132   8.081   2.405   5.033
77079SOL     OW33133  10.127   7.309  12.989
77079SOL    HW133134  10.147   7.219  12.962
77079SOL    HW233135  10.170   7.318  13.074
77080SOL     OW33136  14.018  10.884   2.209
77080SOL    HW133137  14.009  10.817   2.142
77080SOL    HW233138  14.016  10.837   2.292
77081SOL     OW33139   6.021   8.211   5.876
77081SOL    HW133140   6.048   8.131   5.922
77081SOL    HW233141   6.041   8.282   5.937
77082SOL     OW33142   0.293   7.804   7.663
77082SOL    HW133143   0.225   7.806   7.597
77082SOL    HW233144   0.289   7.890   7.706
77083SOL     OW33145   4.164   8.768  12.801
77083SOL    HW133146   4.102   8.747  12.870
77083SOL    HW233147   4.148   8.860  12.781
77084SOL     OW33148   8.213  10.050   4.306
77084SOL    HW133149   8.155  10.046   4.230
77084SOL    HW233150   8.175   9.989   4.369
77085SOL     OW33151   7.723   5.454  14.736
77085SOL    HW133152   7.754   5.370  14.770
77085SOL    HW233153   7.726   5.513  14.811
77086SOL     OW33154   3.130   6.516  11.352
77086SOL    HW133155   3.099   6.537  11.264
77086SOL    HW233156   3.222   6.491  11.340
77087SOL     OW33157   0.537   3.873   6.512
77087SOL    HW133158   0.513   3.821   6.589
77087SOL    HW233159   0.510   3.819   6.437
77088SOL     OW33160   7.684   1.349  10.046
77088SOL    HW133161   7.679   1.444  10.048
77088SOL    HW233162   7.594   1.320  10.034
77089SOL     OW33163   2.021   5.920  12.379
77089SOL    HW133164   2.103   5.957  12.413
77089SOL    HW233165   2.017   5.832  12.417
77090SOL     OW33166   8.697   4.837   1.420
77090SOL    HW133167   8.755   4.821   1.495
77090SOL    HW233168   8.622   4.883   1.457
77091SOL     OW33169   1.330   4.926  11.354
77091SOL    HW133170   1.299   4.866  11.286
77091SOL    HW233171   1.361   5.002  11.305
77092SOL     OW33172   0.408   4.516   3.163
77092SOL    HW133173   0.465   4.591   3.145
77092SOL    HW233174   0.413   4.462   3.085
77093SOL     OW33175   3.442  12.192  13.690
77093SOL    HW133176   3.467  12.274  13.733
77093SOL    HW233177   3.506  12.181  13.620
77094SOL     OW33178   6.013   5.993   2.657
77094SOL    HW133179   6.099   6.001   2.697
77094SOL    HW233180   6.000   5.899   2.647
77095SOL     OW33181  11.963   7.439   9.694
77095SOL    HW133182  12.041   7.387   9.713
77095SOL    HW233183  11.996   7.520   9.655
77096SOL     OW33184   4.592   4.784   2.560
77096SOL    HW133185   4.522   4.836   2.520
77096SOL    HW233186   4.546   4.718   2.612
77097SOL     OW33187  12.138  11.395   7.334
77097SOL    HW133188  12.048  11.427   7.332
77097SOL    HW233189  12.134  11.314   7.384
77098SOL     OW33190   3.704  13.004   9.685
77098SOL    HW133191   3.762  12.942   9.640
77098SOL    HW233192   3.760  13.044   9.752
77099SOL     OW33193   5.240   2.454   8.515
77099SOL    HW133194   5.226   2.528   8.456
77099SOL    HW233195   5.168   2.459   8.578
77100SOL     OW33196   4.411   6.631   0.922
77100SOL    HW133197   4.374   6.556   0.970
77100SOL    HW233198   4.503   6.633   0.950
77101SOL     OW33199   3.123   4.010  11.189
77101SOL    HW133200   3.126   3.920  11.158
77101SOL    HW233201   3.031   4.026  11.207
77102SOL     OW33202   1.232  10.042  12.669
77102SOL    HW133203   1.207  10.008  12.755
77102SOL    HW233204   1.154  10.030  12.615
77103SOL     OW33205   5.903   2.411  13.904
77103SOL    HW133206   5.928   2.426  13.995
77103SOL    HW233207   5.984   2.418  13.855
77104SOL     OW33208   7.277   2.989   7.006
77104SOL    HW133209   7.357   3.030   6.972
77104SOL    HW233210   7.307   2.903   7.037
77105SOL     OW33211   0.246  13.000  13.183
77105SOL    HW133212   0.207  13.027  13.266
77105SOL    HW233213   0.176  12.953  13.138
77106SOL     OW33214  12.154   2.536   6.760
77106SOL    HW133215  12.091   2.505   6.825
77106SOL    HW233216  12.136   2.482   6.683
77107SOL     OW33217   6.969   8.438  12.430
77107SOL    HW133218   6.980   8.510  12.493
77107SOL    HW233219   7.051   8.437  12.380
77108SOL     OW33220  11.517  12.058  12.669
77108SOL    HW133221  11.562  12.015  12.741
77108SOL    HW233222  11.588  12.091  12.613
77109SOL     OW33223  14.265   4.329   4.663
77109SOL    HW133224  14.298   4.250   4.704
77109SOL    HW233225  14.241   4.302   4.574
77110SOL     OW33226   6.456   4.382   1.952
77110SOL    HW133227   6.474   4.367   1.859
77110SOL    HW233228   6.439   4.476   1.957
77111SOL     OW33229   2.585   5.266  13.479
77111SOL    HW133230   2.571   5.306  13.393
77111SOL    HW233231   2.630   5.333  13.530
77112SOL     OW33232  12.439  14.731   1.918
77112SOL    HW133233  12.390  14.679   1.982
77112SOL    HW233234  12.530  14.703   1.930
77113SOL     OW33235   8.158   1.909   7.440
77113SOL    HW133236   8.083   1.852   7.456
77113SOL    HW233237   8.164   1.964   7.519
77114SOL     OW33238   2.251   3.675   4.264
77114SOL    HW133239   2.254   3.672   4.359
77114SOL    HW233240   2.252   3.768   4.243
77115SOL     OW33241   0.452   8.555   7.216
77115SOL    HW133242   0.436   8.574   7.124
77115SOL    HW233243   0.408   8.627   7.263
77116SOL     OW33244   5.487   5.440   0.012
77116SOL    HW133245   5.421   5.509   0.023
77116SOL    HW233246   5.534   5.465  14.805
77117SOL     OW33247   9.040   9.445   0.635
77117SOL    HW133248   9.031   9.463   0.542
77117SOL    HW233249   9.023   9.351   0.642
77118SOL     OW33250   8.379  13.197  10.937
77118SOL    HW133251   8.375  13.183  11.032
77118SOL    HW233252   8.298  13.160  10.904
77119SOL     OW33253   4.739  14.786   2.896
77119SOL    HW133254   4.744   0.010   2.898
77119SOL    HW233255   4.669  14.766   2.834
77120SOL     OW33256   7.854   8.672   8.444
77120SOL    HW133257   7.816   8.743   8.496
77120SOL    HW233258   7.782   8.640   8.390
77121SOL     OW33259   3.519   7.544  11.896
77121SOL    HW133260   3.572   7.510  11.825
77121SOL    HW233261   3.506   7.637  11.874
77122SOL     OW33262   5.575   0.951   1.501
77122SOL    HW133263   5.494   0.925   1.458
77122SOL    HW233264   5.600   0.875   1.554
77123SOL     OW33265   0.075  11.309   2.380
77123SOL    HW133266   0.170  11.309   2.394
77123SOL    HW233267   0.039  11.268   2.460
77124SOL     OW33268  11.893   9.525   6.156
77124SOL    HW133269  11.966   9.577   6.121
77124SOL    HW233270  11.888   9.549   6.248
77125SOL     OW33271   9.581  11.343   3.716
77125SOL    HW133272   9.591  11.366   3.808
77125SOL    HW233273   9.662  11.297   3.694
77126SOL     OW33274  12.272  11.417  11.809
77126SOL    HW133275  12.335  11.481  11.843
77126SOL    HW233276  12.219  11.466  11.746
77127SOL     OW33277   7.519  11.689   0.739
77127SOL    HW133278   7.589  11.650   0.792
77127SOL    HW233279   7.445  11.630   0.751
77128SOL     OW33280   3.638   9.838  12.870
77128SOL    HW133281   3.689   9.907  12.829
77128SOL    HW233282   3.547   9.858  12.848
77129SOL     OW33283  14.076  13.004   3.017
77129SOL    HW133284  14.161  13.044   2.998
77129SOL    HW233285  14.018  13.078   3.033
77130SOL     OW33286  13.551   9.674  13.937
77130SOL    HW133287  13.488   9.727  13.888
77130SOL    HW233288  13.555   9.715  14.024
77131SOL     OW33289   2.346   6.867   1.606
77131SOL    HW133290   2.350   6.854   1.511
77131SOL    HW233291   2.376   6.958   1.618
77132SOL     OW33292   0.023  14.101   4.129
77132SOL    HW133293   0.002  14.191   4.154
77132SOL    HW233294  14.821  14.049   4.162
77133SOL     OW33295   9.585   6.265   4.543
77133SOL    HW133296   9.539   6.312   4.474
77133SOL    HW233297   9.578   6.173   4.519
77134SOL     OW33298  14.349   1.820   5.148
77134SOL    HW133299  14.310   1.888   5.204
77134SOL    HW233300  14.440   1.848   5.137
77135SOL     OW33301  12.236   5.107   4.951
77135SOL    HW133302  12.188   5.033   4.915
77135SOL    HW233303  12.186   5.132   5.029
77136SOL     OW33304  12.233   9.506   9.230
77136SOL    HW133305  12.150   9.497   9.182
77136SOL    HW233306  12.287   9.433   9.198
77137SOL     OW33307   0.269  10.314   1.665
77137SOL    HW133308   0.192  10.306   1.609
77137SOL    HW233309   0.309  10.227   1.664
77138SOL     OW33310  11.101  12.454   4.583
77138SOL    HW133311  11.063  12.518   4.524
77138SOL    HW233312  11.047  12.376   4.573
77139SOL     OW33313   7.799   1.608   9.711
77139SOL    HW133314   7.814   1.644   9.798
77139SOL    HW233315   7.708   1.629   9.692
77140SOL     OW33316  11.091   2.737   6.657
77140SOL    HW133317  11.086   2.784   6.740
77140SOL    HW233318  11.085   2.645   6.682
77141SOL     OW33319   4.711   9.340  13.255
77141SOL    HW133320   4.788   9.370  13.304
77141SOL    HW233321   4.695   9.409  13.191
77142SOL     OW33322   6.442   9.109   4.865
77142SOL    HW133323   6.426   9.073   4.778
77142SOL    HW233324   6.516   9.059   4.899
77143SOL     OW33325   7.781   2.792   4.112
77143SOL    HW133326   7.732   2.827   4.038
77143SOL    HW233327   7.793   2.699   4.092
77144SOL     OW33328   6.204   8.335   9.513
77144SOL    HW133329   6.144   8.355   9.585
77144SOL    HW233330   6.270   8.404   9.516
77145SOL     OW33331  11.578  13.408   0.931
77145SOL    HW133332  11.508  13.344   0.944
77145SOL    HW233333  11.553  13.454   0.850
77146SOL     OW33334   7.447   5.017   2.455
77146SOL    HW133335   7.354   5.010   2.476
77146SOL    HW233336   7.464   5.111   2.455
77147SOL     OW33337  10.392   5.097  10.750
77147SOL    HW133338  10.366   5.009  10.721
77147SOL    HW233339  10.456   5.125  10.685
77148SOL     OW33340   8.958   0.040  13.563
77148SOL    HW133341   8.914   0.022  13.479
77148SOL    HW233342   9.031   0.097  13.539
77149SOL     OW33343   7.233   3.822   0.247
77149SOL    HW133344   7.146   3.791   0.222
77149SOL    HW233345   7.292   3.780   0.186
77150SOL     OW33346   9.285   3.476   3.340
77150SOL    HW133347   9.347   3.471   3.268
77150SOL    HW233348   9.220   3.540   3.312
77151SOL     OW33349   6.706   1.750   2.019
77151SOL    HW133350   6.734   1.727   2.108
77151SOL    HW233351   6.718   1.845   2.014
77152SOL     OW33352  12.073   5.485   4.454
77152SOL    HW133353  11.996   5.513   4.404
77152SOL    HW233354  12.037   5.436   4.528
77153SOL     OW33355  12.489   2.501  14.207
77153SOL    HW133356  12.552   2.550  14.154
77153SOL    HW233357  12.541   2.462  14.277
77154SOL     OW33358   9.279   1.708  13.825
77154SOL    HW133359   9.219   1.640  13.795
77154SOL    HW233360   9.223   1.786  13.835
77155SOL     OW33361  14.292   5.769   1.904
77155SOL    HW133362  14.323   5.857   1.883
77155SOL    HW233363  14.332   5.750   1.989
77156SOL     OW33364   7.330   9.226   3.329
77156SOL    HW133365   7.418   9.204   3.297
77156SOL    HW233366   7.270   9.182   3.269
77157SOL     OW33367   2.717   8.700  12.134
77157SOL    HW133368   2.801   8.724  12.173
77157SOL    HW233369   2.688   8.779  12.088
77158SOL     OW33370   0.444   2.815  14.058
77158SOL    HW133371   0.390   2.742  14.088
77158SOL    HW233372   0.453   2.801  13.964
77159SOL     OW33373  13.973   6.201  11.856
77159SOL    HW133374  13.985   6.277  11.913
77159SOL    HW233375  14.062   6.171  11.838
77160SOL     OW33376   5.969   6.106   6.068
77160SOL    HW133377   5.947   6.014   6.083
77160SOL    HW233378   5.963   6.147   6.154
77161SOL     OW33379  11.521   3.638   3.508
77161SOL    HW133380  11.608   3.603   3.486
77161SOL    HW233381  11.538   3.700   3.580
77162SOL     OW33382  13.205   6.828   3.895
77162SOL    HW133383  13.226   6.774   3.819
77162SOL    HW233384  13.251   6.911   3.880
77163SOL     OW33385   0.277  13.553   8.535
77163SOL    HW133386   0.301  13.616   8.603
77163SOL    HW233387   0.234  13.606   8.468
77164SOL     OW33388  11.982  12.146   0.983
77164SOL    HW133389  12.059  12.159   1.038
77164SOL    HW233390  11.959  12.053   0.995
77165SOL     OW33391   7.555   5.830  13.662
77165SOL    HW133392   7.641   5.867  13.683
77165SOL    HW233393   7.512   5.822  13.747
77166SOL     OW33394   3.107   7.379  12.103
77166SOL    HW133395   3.160   7.304  12.130
77166SOL    HW233396   3.144   7.406  12.019
77167SOL     OW33397   6.646   3.281   9.218
77167SOL    HW133398   6.561   3.319   9.196
77167SOL    HW233399   6.694   3.353   9.260
77168SOL     OW33400   4.209   6.429   2.535
77168SOL    HW133401   4.234   6.429   2.628
77168SOL    HW233402   4.291   6.417   2.488
77169SOL     OW33403   5.922   7.930   9.743
77169SOL    HW133404   5.893   7.979   9.666
77169SOL    HW233405   6.009   7.897   9.719
77170SOL     OW33406   4.466   3.506   3.352
77170SOL    HW133407   4.506   3.465   3.275
77170SOL    HW233408   4.424   3.434   3.399
77171SOL     OW33409  13.595  13.114   8.341
77171SOL    HW133410  13.639  13.033   8.366
77171SOL    HW233411  13.545  13.140   8.418
77172SOL     OW33412   6.950  10.741   8.688
77172SOL    HW133413   6.968  10.679   8.758
77172SOL    HW233414   6.859  10.725   8.665
77173SOL     OW33415   4.759   7.229   1.189
77173SOL    HW133416   4.699   7.185   1.128
77173SOL    HW233417   4.839   7.177   1.184
77174SOL     OW33418  12.202   4.497   9.343
77174SOL    HW133419  12.260   4.549   9.287
77174SOL    HW233420  12.116   4.539   9.334
77175SOL     OW33421   8.194   1.331   4.527
77175SOL    HW133422   8.240   1.247   4.520
77175SOL    HW233423   8.245   1.391   4.472
77176SOL     OW33424   1.399  12.818   6.519
77176SOL    HW133425   1.334  12.866   6.468
77176SOL    HW233426   1.462  12.786   6.454
77177SOL     OW33427   0.771   7.912   1.994
77177SOL    HW133428   0.750   7.825   1.959
77177SOL    HW233429   0.855   7.899   2.038
77178SOL     OW33430   3.218   1.929  13.967
77178SOL    HW133431   3.250   1.871  14.036
77178SOL    HW233432   3.145   1.977  14.007
77179SOL     OW33433  13.113  14.488   7.376
77179SOL    HW133434  13.079  14.577   7.387
77179SOL    HW233435  13.036  14.436   7.352
77180SOL     OW33436  12.953   4.211  12.421
77180SOL    HW133437  12.887   4.211  12.490
77180SOL    HW233438  13.009   4.136  12.441
77181SOL     OW33439   0.588   5.368  13.071
77181SOL    HW133440   0.641   5.398  13.145
77181SOL    HW233441   0.587   5.273  13.079
77182SOL     OW33442   9.601   7.498   3.996
77182SOL    HW133443   9.527   7.559   4.000
77182SOL    HW233444   9.596   7.449   4.078
77183SOL     OW33445   3.328  11.515  12.698
77183SOL    HW133446   3.233  11.519  12.687
77183SOL    HW233447   3.347  11.579  12.767
77184SOL     OW33448   1.065   8.769  13.624
77184SOL    HW133449   1.138   8.762  13.685
77184SOL    HW233450   0.999   8.708  13.659
77185SOL     OW33451   4.699   8.716   9.036
77185SOL    HW133452   4.742   8.756   9.111
77185SOL    HW233453   4.707   8.781   8.966
77186SOL     OW33454  12.970   1.286   3.853
77186SOL    HW133455  12.886   1.242   3.837
77186SOL    HW233456  12.955   1.338   3.932
77187SOL     OW33457  13.933   7.982   9.036
77187SOL    HW133458  13.955   7.923   9.108
77187SOL    HW233459  13.892   7.925   8.971
77188SOL     OW33460   3.304  12.870   4.934
77188SOL    HW133461   3.258  12.798   4.976
77188SOL    HW233462   3.256  12.887   4.853
77189SOL     OW33463  11.957   3.280   3.353
77189SOL    HW133464  12.002   3.338   3.415
77189SOL    HW233465  12.012   3.281   3.275
77190SOL     OW33466   3.292  11.695   4.699
77190SOL    HW133467   3.225  11.626   4.703
77190SOL    HW233468   3.336  11.681   4.616
77191SOL     OW33469   0.008   0.764   9.701
77191SOL    HW133470  14.819   0.830   9.737
77191SOL    HW233471   0.090   0.780   9.747
77192SOL     OW33472  13.702  10.364   8.653
77192SOL    HW133473  13.648  10.411   8.717
77192SOL    HW233474  13.639  10.315   8.600
77193SOL     OW33475   1.574   8.729  13.722
77193SOL    HW133476   1.595   8.638  13.746
77193SOL    HW233477   1.485   8.742  13.751
77194SOL     OW33478   2.102   6.094   6.931
77194SOL    HW133479   2.085   6.095   6.837
77194SOL    HW233480   2.163   6.021   6.944
77195SOL     OW33481  13.049  11.393   8.050
77195SOL    HW133482  13.010  11.365   8.133
77195SOL    HW233483  13.097  11.316   8.019
77196SOL     OW33484  14.789   5.003  11.491
77196SOL    HW133485  14.871   4.998  11.541
77196SOL    HW233486  14.778   4.915  11.455
77197SOL     OW33487  13.196   6.862   1.388
77197SOL    HW133488  13.120   6.805   1.403
77197SOL    HW233489  13.167   6.923   1.320
77198SOL     OW33490   2.276   7.805   0.324
77198SOL    HW133491   2.356   7.856   0.334
77198SOL    HW233492   2.224   7.827   0.401
77199SOL     OW33493   1.064  13.875  12.633
77199SOL    HW133494   1.137  13.821  12.603
77199SOL    HW233495   1.023  13.907  12.553
77200SOL     OW33496  12.443  13.563   9.459
77200SOL    HW133497  12.431  13.566   9.554
77200SOL    HW233498  12.430  13.654   9.431
77201SOL     OW33499  14.004   0.967   5.201
77201SOL    HW133500  14.077   1.004   5.251
77201SOL    HW233501  13.934   0.954   5.265
77202SOL     OW33502  14.678   7.310   0.280
77202SOL    HW133503  14.594   7.325   0.238
77202SOL    HW233504  14.723   7.247   0.223
77203SOL     OW33505  10.044   4.000   8.507
77203SOL    HW133506   9.986   4.016   8.433
77203SOL    HW233507  10.120   4.054   8.490
77204SOL     OW33508   0.941   3.268   2.839
77204SOL    HW133509   0.858   3.301   2.804
77204SOL    HW233510   0.917   3.190   2.890
77205SOL     OW33511  14.660  11.309   4.084
77205SOL    HW133512  14.742  11.263   4.065
77205SOL    HW233513  14.612  11.248   4.140
77206SOL     OW33514   4.719  10.833   9.779
77206SOL    HW133515   4.680  10.787   9.853
77206SOL    HW233516   4.645  10.873   9.733
77207SOL     OW33517  14.442   1.580   2.055
77207SOL    HW133518  14.535   1.598   2.073
77207SOL    HW233519  14.404   1.568   2.142
77208SOL     OW33520  10.269   2.384   2.709
77208SOL    HW133521  10.288   2.392   2.802
77208SOL    HW233522  10.178   2.355   2.705
77209SOL     OW33523   8.811   2.731   0.159
77209SOL    HW133524   8.804   2.663   0.225
77209SOL    HW233525   8.904   2.734   0.137
77210SOL     OW33526  13.058  10.195  12.172
77210SOL    HW133527  13.025  10.118  12.218
77210SOL    HW233528  13.069  10.166  12.082
77211SOL     OW33529  12.929   9.859   4.111
77211SOL    HW133530  13.002   9.821   4.063
77211SOL    HW233531  12.964   9.940   4.149
77212SOL     OW33532   6.224  11.019   8.334
77212SOL    HW133533   6.258  11.080   8.268
77212SOL    HW233534   6.130  11.036   8.335
77213SOL     OW33535  10.355   3.988   8.844
77213SOL    HW133536  10.301   4.041   8.786
77213SOL    HW233537  10.445   4.011   8.821
77214SOL     OW33538   5.521   1.767  13.156
77214SOL    HW133539   5.488   1.847  13.196
77214SOL    HW233540   5.453   1.702  13.173
77215SOL     OW33541   0.579  13.683   2.620
77215SOL    HW133542   0.509  13.680   2.555
77215SOL    HW233543   0.560  13.760   2.673
77216SOL     OW33544   8.837  12.700   0.098
77216SOL    HW133545   8.852  12.788   0.132
77216SOL    HW233546   8.789  12.714   0.016
77217SOL     OW33547  10.691   0.912   4.105
77217SOL    HW133548  10.776   0.907   4.061
77217SOL    HW233549  10.636   0.850   4.058
77218SOL     OW33550   5.134   7.841  12.769
77218SOL    HW133551   5.189   7.769  12.800
77218SOL    HW233552   5.195   7.911  12.748
77219SOL     OW33553   0.958   0.708  13.042
77219SOL    HW133554   0.998   0.727  13.127
77219SOL    HW233555   0.874   0.754  13.045
77220SOL     OW33556  12.458   5.907   3.535
77220SOL    HW133557  12.410   5.990   3.532
77220SOL    HW233558  12.472   5.884   3.444
77221SOL     OW33559   1.121   0.137  10.233
77221SOL    HW133560   1.109   0.062  10.174
77221SOL    HW233561   1.144   0.097  10.317
77222SOL     OW33562  14.422   2.934  12.911
77222SOL    HW133563  14.378   2.927  12.996
77222SOL    HW233564  14.433   2.844  12.881
77223SOL     OW33565  10.387  12.087   8.418
77223SOL    HW133566  10.424  12.005   8.450
77223SOL    HW233567  10.407  12.088   8.324
77224SOL     OW33568  11.129   8.847   4.310
77224SOL    HW133569  11.206   8.852   4.252
77224SOL    HW233570  11.091   8.761   4.293
77225SOL     OW33571   9.859   7.466  12.836
77225SOL    HW133572   9.914   7.389  12.821
77225SOL    HW233573   9.834   7.460  12.928
77226SOL     OW33574  13.149   9.326  14.284
77226SOL    HW133575  13.078   9.324  14.220
77226SOL    HW233576  13.144   9.241  14.328
77227SOL     OW33577   3.990   6.688  12.830
77227SOL    HW133578   3.938   6.617  12.794
77227SOL    HW233579   4.061   6.644  12.878
77228SOL     OW33580   4.442  13.268  13.901
77228SOL    HW133581   4.490  13.217  13.836
77228SOL    HW233582   4.446  13.215  13.980
77229SOL     OW33583   4.910  14.808   0.581
77229SOL    HW133584   4.885   0.029   0.580
77229SOL    HW233585   4.870  14.773   0.661
77230SOL     OW33586   7.591  13.567  10.577
77230SOL    HW133587   7.548  13.652  10.564
77230SOL    HW233588   7.616  13.567  10.669
77231SOL     OW33589  10.267   4.130  10.021
77231SOL    HW133590  10.238   4.090  10.103
77231SOL    HW233591  10.297   4.217  10.045
77232SOL     OW33592   2.845   6.904   7.131
77232SOL    HW133593   2.832   6.826   7.185
77232SOL    HW233594   2.808   6.880   7.046
77233SOL     OW33595  13.347   8.165   3.685
77233SOL    HW133596  13.314   8.087   3.730
77233SOL    HW233597  13.368   8.226   3.755
77234SOL     OW33598  13.922   5.929  14.802
77234SOL    HW133599  13.871   6.005  14.773
77234SOL    HW233600  13.960   5.893  14.722
77235SOL     OW33601   6.035  11.423   6.824
77235SOL    HW133602   5.978  11.369   6.769
77235SOL    HW233603   6.032  11.383   6.910
77236SOL     OW33604   7.877   6.827   3.243
77236SOL    HW133605   7.787   6.852   3.262
77236SOL    HW233606   7.906   6.890   3.177
77237SOL     OW33607   6.138   0.110   9.396
77237SOL    HW133608   6.159   0.097   9.303
77237SOL    HW233609   6.096   0.195   9.400
77238SOL     OW33610   1.465  13.789  14.830
77238SOL    HW133611   1.545  13.746  14.860
77238SOL    HW233612   1.449  13.858   0.022
77239SOL     OW33613   4.279  11.625   2.258
77239SOL    HW133614   4.203  11.594   2.208
77239SOL    HW233615   4.351  11.626   2.194
77240SOL     OW33616   9.438   7.681   5.396
77240SOL    HW133617   9.402   7.593   5.399
77240SOL    HW233618   9.402   7.724   5.473
77241SOL     OW33619   6.160   4.180   9.293
77241SOL    HW133620   6.169   4.170   9.387
77241SOL    HW233621   6.214   4.256   9.272
77242SOL     OW33622   1.236   4.013  13.241
77242SOL    HW133623   1.292   4.086  13.217
77242SOL    HW233624   1.147   4.047  13.234
77243SOL     OW33625  12.178   6.927  12.531
77243SOL    HW133626  12.147   6.836  12.525
77243SOL    HW233627  12.123   6.967  12.598
77244SOL     OW33628   5.229  13.254   2.473
77244SOL    HW133629   5.238  13.174   2.421
77244SOL    HW233630   5.298  13.247   2.539
77245SOL     OW33631   4.639   8.298   7.965
77245SOL    HW133632   4.624   8.211   7.930
77245SOL    HW233633   4.708   8.286   8.031
77246SOL     OW33634  12.912   5.695   3.960
77246SOL    HW133635  12.955   5.655   4.036
77246SOL    HW233636  12.841   5.746   3.997
77247SOL     OW33637  10.553   4.777   8.013
77247SOL    HW133638  10.605   4.828   8.075
77247SOL    HW233639  10.467   4.770   8.055
77248SOL     OW33640   2.322   8.864   3.109
77248SOL    HW133641   2.404   8.835   3.069
77248SOL    HW233642   2.257   8.854   3.039
77249SOL     OW33643  12.748   7.751   0.925
77249SOL    HW133644  12.739   7.832   0.975
77249SOL    HW233645  12.821   7.705   0.967
77250SOL     OW33646   4.944  12.868   7.722
77250SOL    HW133647   4.913  12.840   7.808
77250SOL    HW233648   4.920  12.961   7.717
77251SOL     OW33649   5.332   3.578   2.493
77251SOL    HW133650   5.329   3.482   2.494
77251SOL    HW233651   5.422   3.599   2.517
77252SOL     OW33652   5.622   6.549   2.264
77252SOL    HW133653   5.588   6.531   2.177
77252SOL    HW233654   5.668   6.632   2.255
77253SOL     OW33655   9.312   9.316   1.696
77253SOL    HW133656   9.351   9.404   1.695
77253SOL    HW233657   9.266   9.310   1.612
77254SOL     OW33658  12.904   6.951  13.787
77254SOL    HW133659  12.922   7.012  13.716
77254SOL    HW233660  12.900   7.006  13.865
77255SOL     OW33661   8.553   9.313   5.550
77255SOL    HW133662   8.551   9.234   5.496
77255SOL    HW233663   8.497   9.292   5.626
77256SOL     OW33664  12.184   6.653   6.666
77256SOL    HW133665  12.244   6.600   6.614
77256SOL    HW233666  12.154   6.721   6.606
77257SOL     OW33667   8.655   1.496   0.942
77257SOL    HW133668   8.652   1.458   1.029
77257SOL    HW233669   8.583   1.453   0.895
77258SOL     OW33670   9.640   8.915   9.906
77258SOL    HW133671   9.633   9.002   9.866
77258SOL    HW233672   9.583   8.919   9.982
77259SOL     OW33673   0.037  11.920   6.842
77259SOL    HW133674   0.103  11.955   6.902
77259SOL    HW233675   0.086  11.896   6.764
77260SOL     OW33676   2.460  12.185  14.783
77260SOL    HW133677   2.415  12.102  14.796
77260SOL    HW233678   2.393  12.252  14.796
77261SOL     OW33679  13.036   8.198   9.023
77261SOL    HW133680  13.063   8.134   8.957
77261SOL    HW233681  13.118   8.229   9.061
77262SOL     OW33682   4.748  13.595   6.098
77262SOL    HW133683   4.782  13.672   6.052
77262SOL    HW233684   4.719  13.536   6.028
77263SOL     OW33685   3.209   7.690   2.217
77263SOL    HW133686   3.270   7.734   2.276
77263SOL    HW233687   3.136   7.751   2.208
77264SOL     OW33688  13.215   2.884   1.333
77264SOL    HW133689  13.265   2.820   1.383
77264SOL    HW233690  13.264   2.966   1.344
77265SOL     OW33691   4.141  11.553   7.302
77265SOL    HW133692   4.161  11.496   7.377
77265SOL    HW233693   4.158  11.498   7.225
77266SOL     OW33694   2.290   3.350   2.089
77266SOL    HW133695   2.308   3.431   2.137
77266SOL    HW233696   2.200   3.328   2.113
77267SOL     OW33697   7.115   1.999   8.414
77267SOL    HW133698   7.177   2.029   8.347
77267SOL    HW233699   7.046   1.955   8.365
77268SOL     OW33700   4.139  10.742   2.047
77268SOL    HW133701   4.116  10.834   2.058
77268SOL    HW233702   4.096  10.697   2.119
77269SOL     OW33703   2.135   8.890  11.524
77269SOL    HW133704   2.076   8.862  11.454
77269SOL    HW233705   2.161   8.978  11.499
77270SOL     OW33706  12.075  11.517   8.712
77270SOL    HW133707  12.067  11.612   8.721
77270SOL    HW233708  12.166  11.502   8.687
77271SOL     OW33709   3.561   3.539   0.809
77271SOL    HW133710   3.648   3.529   0.771
77271SOL    HW233711   3.518   3.606   0.755
77272SOL     OW33712  12.590   2.467   0.183
77272SOL    HW133713  12.531   2.487   0.110
77272SOL    HW233714  12.648   2.542   0.188
77273SOL     OW33715   3.030  12.778  14.174
77273SOL    HW133716   3.046  12.731  14.256
77273SOL    HW233717   3.116  12.784  14.133
77274SOL     OW33718   9.395  14.015   3.762
77274SOL    HW133719   9.437  14.003   3.847
77274SOL    HW233720   9.306  13.981   3.775
77275SOL     OW33721   6.423  10.986   9.018
77275SOL    HW133722   6.476  11.056   9.056
77275SOL    HW233723   6.486  10.932   8.970
77276SOL     OW33724   7.659   5.996   2.151
77276SOL    HW133725   7.631   6.088   2.151
77276SOL    HW233726   7.754   6.000   2.143
77277SOL     OW33727   7.981  13.151   0.031
77277SOL    HW133728   7.984  13.081   0.095
77277SOL    HW233729   8.014  13.112  14.822
77278SOL     OW33730   4.755   2.284  10.181
77278SOL    HW133731   4.782   2.205  10.134
77278SOL    HW233732   4.735   2.253  10.270
77279SOL     OW33733  12.226   3.633  11.323
77279SOL    HW133734  12.150   3.670  11.279
77279SOL    HW233735  12.209   3.647  11.416
77280SOL     OW33736  10.814  10.812   0.509
77280SOL    HW133737  10.762  10.839   0.433
77280SOL    HW233738  10.753  10.815   0.582
77281SOL     OW33739  11.954   1.635   8.204
77281SOL    HW133740  11.866   1.657   8.174
77281SOL    HW233741  12.002   1.718   8.204
77282SOL     OW33742   0.584   6.012  10.104
77282SOL    HW133743   0.540   5.940  10.058
77282SOL    HW233744   0.617   6.069  10.034
77283SOL     OW33745   8.306   8.330   3.131
77283SOL    HW133746   8.317   8.285   3.215
77283SOL    HW233747   8.369   8.288   3.073
77284SOL     OW33748   8.250   4.831  13.451
77284SOL    HW133749   8.206   4.750  13.474
77284SOL    HW233750   8.256   4.830  13.355
77285SOL     OW33751  11.155   0.782  14.170
77285SOL    HW133752  11.124   0.704  14.124
77285SOL    HW233753  11.243   0.797  14.134
77286SOL     OW33754   1.279   5.743   0.647
77286SOL    HW133755   1.268   5.823   0.698
77286SOL    HW233756   1.223   5.755   0.571
77287SOL     OW33757  11.488   1.291  14.591
77287SOL    HW133758  11.404   1.290  14.545
77287SOL    HW233759  11.481   1.364  14.651
77288SOL     OW33760   5.302   9.686   8.998
77288SOL    HW133761   5.372   9.641   8.950
77288SOL    HW233762   5.321   9.779   8.987
77289SOL     OW33763   1.637   7.041   5.985
77289SOL    HW133764   1.624   7.130   5.952
77289SOL    HW233765   1.609   6.984   5.912
77290SOL     OW33766  12.923   0.819  11.771
77290SOL    HW133767  12.961   0.841  11.856
77290SOL    HW233768  12.829   0.811  11.788
77291SOL     OW33769  14.164  14.681   0.284
77291SOL    HW133770  14.225  14.732   0.230
77291SOL    HW233771  14.177  14.715   0.373
77292SOL     OW33772   1.301   9.520   3.910
77292SOL    HW133773   1.381   9.469   3.918
77292SOL    HW233774   1.330   9.611   3.910
77293SOL     OW33775   4.221   0.183   5.474
77293SOL    HW133776   4.128   0.192   5.451
77293SOL    HW233777   4.227   0.213   5.565
77294SOL     OW33778  14.681   6.715   1.403
77294SOL    HW133779  14.668   6.747   1.314
77294SOL    HW233780  14.659   6.790   1.459
77295SOL     OW33781   5.452   6.797   4.364
77295SOL    HW133782   5.539   6.810   4.328
77295SOL    HW233783   5.447   6.703   4.382
77296SOL     OW33784   2.954   5.701  11.943
77296SOL    HW133785   2.933   5.609  11.923
77296SOL    HW233786   2.873   5.736  11.981
77297SOL     OW33787   2.341   8.438   2.383
77297SOL    HW133788   2.258   8.483   2.393
77297SOL    HW233789   2.407   8.503   2.405
77298SOL     OW33790   6.208  10.350   1.115
77298SOL    HW133791   6.230  10.398   1.195
77298SOL    HW233792   6.205  10.258   1.142
77299SOL     OW33793  13.386   0.362  14.557
77299SOL    HW133794  13.395   0.396  14.468
77299SOL    HW233795  13.351   0.434  14.608
77300SOL     OW33796   3.840   2.783  11.362
77300SOL    HW133797   3.887   2.749  11.439
77300SOL    HW233798   3.748   2.762  11.379
77301SOL     OW33799  11.944  12.826   6.914
77301SOL    HW133800  12.022  12.792   6.957
77301SOL    HW233801  11.881  12.754   6.919
77302SOL     OW33802   1.346  11.588  14.250
77302SOL    HW133803   1.431  11.624  14.225
77302SOL    HW233804   1.347  11.498  14.217
77303SOL     OW33805  14.439   5.777  10.276
77303SOL    HW133806  14.495   5.832  10.221
77303SOL    HW233807  14.499   5.741  10.341
77304SOL     OW33808   9.402   9.712   2.251
77304SOL    HW133809   9.318   9.702   2.207
77304SOL    HW233810   9.453   9.770   2.194
77305SOL     OW33811   1.166   1.149   8.887
77305SOL    HW133812   1.202   1.185   8.968
77305SOL    HW233813   1.091   1.206   8.867
77306SOL     OW33814   0.481  14.410   2.329
77306SOL    HW133815   0.567  14.390   2.365
77306SOL    HW233816   0.483  14.374   2.240
77307SOL     OW33817  14.355   7.323   4.722
77307SOL    HW133818  14.395   7.269   4.654
77307SOL    HW233819  14.366   7.413   4.693
77308SOL     OW33820   5.787   8.360   1.051
77308SOL    HW133821   5.758   8.274   1.023
77308SOL    HW233822   5.750   8.420   0.986
77309SOL     OW33823  11.674   9.727  12.304
77309SOL    HW133824  11.702   9.672  12.231
77309SOL    HW233825  11.582   9.706  12.317
77310SOL     OW33826   9.425   2.459   1.628
77310SOL    HW133827   9.355   2.446   1.564
77310SOL    HW233828   9.478   2.380   1.623
77311SOL     OW33829  11.100  12.942  10.011
77311SOL    HW133830  11.179  12.953  10.065
77311SOL    HW233831  11.074  13.032   9.991
77312SOL     OW33832   0.082   7.342   7.462
77312SOL    HW133833   0.166   7.324   7.420
77312SOL    HW233834   0.025   7.271   7.434
77313SOL     OW33835   3.154   3.080   4.497
77313SOL    HW133836   3.190   3.050   4.581
77313SOL    HW233837   3.059   3.083   4.511
77314SOL     OW33838   3.681   3.542  13.347
77314SOL    HW133839   3.661   3.515  13.436
77314SOL    HW233840   3.768   3.582  13.353
77315SOL     OW33841  11.163  14.645   0.204
77315SOL    HW133842  11.168  14.698   0.283
77315SOL    HW233843  11.200  14.560   0.230
77316SOL     OW33844   8.549   6.318   8.472
77316SOL    HW133845   8.555   6.402   8.427
77316SOL    HW233846   8.640   6.289   8.481
77317SOL     OW33847   5.817  11.988   9.116
77317SOL    HW133848   5.742  11.953   9.068
77317SOL    HW233849   5.834  12.073   9.077
77318SOL     OW33850   5.149   7.167   9.443
77318SOL    HW133851   5.113   7.246   9.402
77318SOL    HW233852   5.236   7.157   9.403
77319SOL     OW33853   4.338   9.568   8.139
77319SOL    HW133854   4.378   9.480   8.137
77319SOL    HW233855   4.401   9.623   8.093
77320SOL     OW33856   1.657   5.579  11.706
77320SOL    HW133857   1.590   5.579  11.638
77320SOL    HW233858   1.611   5.610  11.785
77321SOL     OW33859  12.390   6.953   7.837
77321SOL    HW133860  12.463   7.001   7.797
77321SOL    HW233861  12.430   6.874   7.873
77322SOL     OW33862   1.627   0.025   6.629
77322SOL    HW133863   1.560   0.063   6.686
77322SOL    HW233864   1.618  14.802   6.641
77323SOL     OW33865   0.816   3.949   8.919
77323SOL    HW133866   0.819   3.872   8.976
77323SOL    HW233867   0.859   3.922   8.838
77324SOL     OW33868   5.675   8.243  14.129
77324SOL    HW133869   5.693   8.323  14.079
77324SOL    HW233870   5.739   8.245  14.201
77325SOL     OW33871   7.476   2.608  11.133
77325SOL    HW133872   7.459   2.644  11.046
77325SOL    HW233873   7.452   2.678  11.193
77326SOL     OW33874   3.641   5.604   5.901
77326SOL    HW133875   3.688   5.629   5.981
77326SOL    HW233876   3.637   5.509   5.904
77327SOL     OW33877   8.736  14.797   0.254
77327SOL    HW133878   8.788  14.864   0.298
77327SOL    HW233879   8.746  14.719   0.308
77328SOL     OW33880   7.328   1.562   1.714
77328SOL    HW133881   7.324   1.553   1.809
77328SOL    HW233882   7.239   1.543   1.685
77329SOL     OW33883   2.047   1.664   3.895
77329SOL    HW133884   2.046   1.717   3.975
77329SOL    HW233885   2.140   1.660   3.870
77330SOL     OW33886   4.883  11.712   7.069
77330SOL    HW133887   4.946  11.642   7.050
77330SOL    HW233888   4.802  11.683   7.027
77331SOL     OW33889  13.631   2.061   8.667
77331SOL    HW133890  13.605   2.151   8.685
77331SOL    HW233891  13.702   2.044   8.730
77332SOL     OW33892  11.504   6.398   7.026
77332SOL    HW133893  11.545   6.349   6.955
77332SOL    HW233894  11.516   6.343   7.103
77333SOL     OW33895   5.486  13.136   1.742
77333SOL    HW133896   5.416  13.183   1.788
77333SOL    HW233897   5.567  13.164   1.785
77334SOL     OW33898   8.795  13.528   9.013
77334SOL    HW133899   8.874  13.531   9.068
77334SOL    HW233900   8.796  13.610   8.965
77335SOL     OW33901  11.481   1.515   6.888
77335SOL    HW133902  11.457   1.582   6.823
77335SOL    HW233903  11.460   1.432   6.845
77336SOL     OW33904   6.012   9.380  13.987
77336SOL    HW133905   5.927   9.423  13.983
77336SOL    HW233906   6.041   9.393  14.077
77337SOL     OW33907  11.836   1.751  10.082
77337SOL    HW133908  11.764   1.784  10.135
77337SOL    HW233909  11.876   1.830  10.045
77338SOL     OW33910   8.874  14.018   3.826
77338SOL    HW133911   8.798  13.959   3.828
77338SOL    HW233912   8.950  13.961   3.824
77339SOL     OW33913  11.419   1.013  13.155
77339SOL    HW133914  11.383   0.925  13.148
77339SOL    HW233915  11.490   1.016  13.090
77340SOL     OW33916  14.458   3.043   4.494
77340SOL    HW133917  14.439   2.990   4.572
77340SOL    HW233918  14.550   3.027   4.477
77341SOL     OW33919  14.506   6.997  12.063
77341SOL    HW133920  14.553   7.076  12.087
77341SOL    HW233921  14.440   7.026  12.000
77342SOL     OW33922  11.643   2.530   1.901
77342SOL    HW133923  11.601   2.464   1.957
77342SOL    HW233924  11.570   2.583   1.868
77343SOL     OW33925  12.145   0.442   7.563
77343SOL    HW133926  12.064   0.489   7.547
77343SOL    HW233927  12.193   0.449   7.480
77344SOL     OW33928   8.392  13.702  11.005
77344SOL    HW133929   8.467  13.650  10.975
77344SOL    HW233930   8.418  13.793  10.990
77345SOL     OW33931   6.653   8.374  13.717
77345SOL    HW133932   6.623   8.439  13.654
77345SOL    HW233933   6.731   8.336  13.677
77346SOL     OW33934   9.595   0.140  10.900
77346SOL    HW133935   9.644   0.193  10.837
77346SOL    HW233936   9.617   0.178  10.985
77347SOL     OW33937   4.814   6.367   3.807
77347SOL    HW133938   4.767   6.396   3.885
77347SOL    HW233939   4.818   6.445   3.752
77348SOL     OW33940   1.634   8.385   6.277
77348SOL    HW133941   1.706   8.345   6.229
77348SOL    HW233942   1.658   8.478   6.283
77349SOL     OW33943   5.125  13.955   0.236
77349SOL    HW133944   5.152  14.046   0.251
77349SOL    HW233945   5.102  13.952   0.143
77350SOL     OW33946  12.560   8.232  11.266
77350SOL    HW133947  12.615   8.303  11.300
77350SOL    HW233948  12.600   8.210  11.182
77351SOL     OW33949  10.562  14.371  13.533
77351SOL    HW133950  10.533  14.440  13.473
77351SOL    HW233951  10.642  14.405  13.572
77352SOL     OW33952   2.407   9.233   5.491
77352SOL    HW133953   2.410   9.206   5.583
77352SOL    HW233954   2.392   9.152   5.443
77353SOL     OW33955   4.376   6.529  11.910
77353SOL    HW133956   4.431   6.599  11.945
77353SOL    HW233957   4.372   6.464  11.981
77354SOL     OW33958   7.836   8.611  11.432
77354SOL    HW133959   7.799   8.523  11.446
77354SOL    HW233960   7.765   8.661  11.393
77355SOL     OW33961  12.592  11.945   9.704
77355SOL    HW133962  12.620  11.857   9.730
77355SOL    HW233963  12.503  11.932   9.670
77356SOL     OW33964   8.722   9.135   4.283
77356SOL    HW133965   8.692   9.052   4.246
77356SOL    HW233966   8.662   9.200   4.247
77357SOL     OW33967   6.056   3.707   4.858
77357SOL    HW133968   6.046   3.761   4.936
77357SOL    HW233969   6.104   3.630   4.887
77358SOL     OW33970   3.152  14.269   1.206
77358SOL    HW133971   3.123  14.213   1.135
77358SOL    HW233972   3.081  14.333   1.217
77359SOL     OW33973   6.590  13.020   3.744
77359SOL    HW133974   6.615  13.059   3.828
77359SOL    HW233975   6.496  13.003   3.753
77360SOL     OW33976   9.715   0.812   9.600
77360SOL    HW133977   9.623   0.789   9.590
77360SOL    HW233978   9.755   0.737   9.642
77361SOL     OW33979   3.130   1.542   2.256
77361SOL    HW133980   3.087   1.523   2.173
77361SOL    HW233981   3.222   1.524   2.241
77362SOL     OW33982   3.844   9.456   9.773
77362SOL    HW133983   3.775   9.390   9.770
77362SOL    HW233984   3.908   9.420   9.835
77363SOL     OW33985   5.004   0.787   9.362
77363SOL    HW133986   5.030   0.847   9.292
77363SOL    HW233987   5.067   0.715   9.357
77364SOL     OW33988  10.009  12.596  14.441
77364SOL    HW133989  10.070  12.550  14.498
77364SOL    HW233990   9.941  12.629  14.500
77365SOL     OW33991   1.639  11.483   3.183
77365SOL    HW133992   1.665  11.494   3.091
77365SOL    HW233993   1.598  11.566   3.206
77366SOL     OW33994   2.240   8.713   8.816
77366SOL    HW133995   2.322   8.698   8.770
77366SOL    HW233996   2.172   8.697   8.751
77367SOL     OW33997  13.228   5.194  12.424
77367SOL    HW133998  13.158   5.202  12.360
77367SOL    HW233999  13.306   5.172  12.372
77368SOL     OW34000  12.675   0.879  10.038
77368SOL    HW134001  12.654   0.894   9.946
77368SOL    HW234002  12.753   0.823  10.037
77369SOL     OW34003   0.501   8.005  13.453
77369SOL    HW134004   0.583   8.014  13.406
77369SOL    HW234005   0.451   8.083  13.429
77370SOL     OW34006   9.908   5.205  10.043
77370SOL    HW134007   9.819   5.171  10.055
77370SOL    HW234008   9.897   5.281   9.986
77371SOL     OW34009  11.085   2.400  12.941
77371SOL    HW134010  11.056   2.483  12.978
77371SOL    HW234011  11.177   2.393  12.967
77372SOL     OW34012  12.616   7.790  10.413
77372SOL    HW134013  12.693   7.754  10.458
77372SOL    HW234014  12.642   7.879  10.390
77373SOL     OW34015   0.674   4.963   3.330
77373SOL    HW134016   0.741   4.977   3.398
77373SOL    HW234017   0.687   4.873   3.301
77374SOL     OW34018   7.017   9.344  12.244
77374SOL    HW134019   7.003   9.256  12.208
77374SOL    HW234020   7.104   9.369  12.212
77375SOL     OW34021   5.777   9.582  12.843
77375SOL    HW134022   5.806   9.593  12.752
77375SOL    HW234023   5.848   9.533  12.884
77376SOL     OW34024   3.224   5.755   5.635
77376SOL    HW134025   3.237   5.679   5.691
77376SOL    HW234026   3.216   5.719   5.547
77377SOL     OW34027   0.756   8.864  13.579
77377SOL    HW134028   0.799   8.808  13.514
77377SOL    HW234029   0.707   8.804  13.634
77378SOL     OW34030  10.362   8.150  12.952
77378SOL    HW134031  10.356   8.176  13.044
77378SOL    HW234032  10.284   8.188  12.911
77379SOL     OW34033   9.673  12.205  12.288
77379SOL    HW134034   9.611  12.257  12.337
77379SOL    HW234035   9.719  12.267  12.232
77380SOL     OW34036   4.080   2.058  10.195
77380SOL    HW134037   4.032   2.070  10.277
77380SOL    HW234038   4.073   1.964  10.177
77381SOL     OW34039   1.191   2.125   1.199
77381SOL    HW134040   1.143   2.207   1.204
77381SOL    HW234041   1.130   2.063   1.159
77382SOL     OW34042   3.780   2.631   8.283
77382SOL    HW134043   3.772   2.705   8.343
77382SOL    HW234044   3.830   2.566   8.332
77383SOL     OW34045   3.969  11.824   1.609
77383SOL    HW134046   4.055  11.806   1.646
77383SOL    HW234047   3.965  11.770   1.530
77384SOL     OW34048  13.687   8.542   6.112
77384SOL    HW134049  13.604   8.513   6.073
77384SOL    HW234050  13.754   8.489   6.069
77385SOL     OW34051   0.264   3.807  10.344
77385SOL    HW134052   0.170   3.798  10.325
77385SOL    HW234053   0.267   3.849  10.430
77386SOL     OW34054   4.448   9.270   4.857
77386SOL    HW134055   4.455   9.256   4.951
77386SOL    HW234056   4.362   9.310   4.844
77387SOL     OW34057   4.591  10.352   8.805
77387SOL    HW134058   4.536  10.371   8.729
77387SOL    HW234059   4.537  10.374   8.880
77388SOL     OW34060   0.530   6.144  13.794
77388SOL    HW134061   0.594   6.202  13.836
77388SOL    HW234062   0.582   6.072  13.759
77389SOL     OW34063   1.343  12.918   1.543
77389SOL    HW134064   1.306  12.909   1.631
77389SOL    HW234065   1.333  13.011   1.522
77390SOL     OW34066   8.001   1.661  14.866
77390SOL    HW134067   7.905   1.658  14.860
77390SOL    HW234068   8.028   1.569  14.863
77391SOL     OW34069   5.482   2.538   7.863
77391SOL    HW134070   5.557   2.479   7.874
77391SOL    HW234071   5.490   2.571   7.774
77392SOL     OW34072   2.785  10.217   6.052
77392SOL    HW134073   2.712  10.209   5.991
77392SOL    HW234074   2.763  10.160   6.125
77393SOL     OW34075  11.523   7.541   6.223
77393SOL    HW134076  11.582   7.560   6.296
77393SOL    HW234077  11.486   7.626   6.199
77394SOL     OW34078   6.129   2.863   8.541
77394SOL    HW134079   6.134   2.926   8.470
77394SOL    HW234080   6.121   2.916   8.620
77395SOL     OW34081   7.648   7.793  14.095
77395SOL    HW134082   7.630   7.810  14.188
77395SOL    HW234083   7.596   7.716  14.074
77396SOL     OW34084  10.049   9.074   3.964
77396SOL    HW134085  10.133   9.057   4.007
77396SOL    HW234086  10.069   9.072   3.870
77397SOL     OW34087  12.398  10.133   3.732
77397SOL    HW134088  12.309  10.144   3.699
77397SOL    HW234089  12.391  10.068   3.802
77398SOL     OW34090   2.925  14.205  11.052
77398SOL    HW134091   2.941  14.138  11.119
77398SOL    HW234092   3.004  14.259  11.053
77399SOL     OW34093  13.728   0.338  11.342
77399SOL    HW134094  13.757   0.284  11.269
77399SOL    HW234095  13.807   0.385  11.370
77400SOL     OW34096   9.737   7.182   5.528
77400SOL    HW134097   9.694   7.104   5.564
77400SOL    HW234098   9.723   7.250   5.594
77401SOL     OW34099   8.572  11.301   9.331
77401SOL    HW134100   8.566  11.229   9.268
77401SOL    HW234101   8.662  11.333   9.321
77402SOL     OW34102  11.556  12.811   0.155
77402SOL    HW134103  11.533  12.741   0.094
77402SOL    HW234104  11.562  12.890   0.101
77403SOL     OW34105  13.247  11.387   3.510
77403SOL    HW134106  13.172  11.345   3.467
77403SOL    HW234107  13.287  11.318   3.562
77404SOL     OW34108  14.232   5.204  10.069
77404SOL    HW134109  14.302   5.138  10.071
77404SOL    HW234110  14.195   5.203  10.157
77405SOL     OW34111   0.786   8.569  11.576
77405SOL    HW134112   0.847   8.587  11.648
77405SOL    HW234113   0.834   8.598  11.498
77406SOL     OW34114   6.123   3.424   1.618
77406SOL    HW134115   6.127   3.397   1.710
77406SOL    HW234116   6.215   3.438   1.593
77407SOL     OW34117   7.279   2.381   8.015
77407SOL    HW134118   7.369   2.356   7.998
77407SOL    HW234119   7.274   2.393   8.110
77408SOL     OW34120   8.102   3.029  10.728
77408SOL    HW134121   8.049   3.054  10.653
77408SOL    HW234122   8.045   3.041  10.804
77409SOL     OW34123   2.604  11.385   1.243
77409SOL    HW134124   2.583  11.478   1.239
77409SOL    HW234125   2.698  11.382   1.262
77410SOL     OW34126   1.454   4.032  12.054
77410SOL    HW134127   1.460   4.067  11.965
77410SOL    HW234128   1.529   3.974  12.063
77411SOL     OW34129  14.126   6.235   2.754
77411SOL    HW134130  14.064   6.176   2.710
77411SOL    HW234131  14.203   6.181   2.769
77412SOL     OW34132   3.757   7.080   7.173
77412SOL    HW134133   3.849   7.059   7.189
77412SOL    HW234134   3.759   7.164   7.127
77413SOL     OW34135  13.240   0.191   5.708
77413SOL    HW134136  13.281   0.177   5.622
77413SOL    HW234137  13.285   0.266   5.745
77414SOL     OW34138  11.529  12.404  13.736
77414SOL    HW134139  11.457  12.453  13.776
77414SOL    HW234140  11.604  12.421  13.793
77415SOL     OW34141  10.433  10.843   6.540
77415SOL    HW134142  10.405  10.913   6.600
77415SOL    HW234143  10.437  10.765   6.595
77416SOL     OW34144   5.157   4.578  14.385
77416SOL    HW134145   5.236   4.526  14.367
77416SOL    HW234146   5.119   4.593  14.298
77417SOL     OW34147  10.547   1.704   2.368
77417SOL    HW134148  10.640   1.704   2.345
77417SOL    HW234149  10.534   1.621   2.413
77418SOL     OW34150   1.710   0.927   0.391
77418SOL    HW134151   1.790   0.965   0.357
77418SOL    HW234152   1.668   0.997   0.441
77419SOL     OW34153   1.661   7.557  12.620
77419SOL    HW134154   1.716   7.623  12.576
77419SOL    HW234155   1.658   7.585  12.711
77420SOL     OW34156  10.509   4.291   1.561
77420SOL    HW134157  10.490   4.304   1.654
77420SOL    HW234158  10.581   4.352   1.543
77421SOL     OW34159   3.121   0.431  10.227
77421SOL    HW134160   3.038   0.430  10.275
77421SOL    HW234161   3.125   0.519  10.189
77422SOL     OW34162   6.638   2.153   0.912
77422SOL    HW134163   6.575   2.193   0.972
77422SOL    HW234164   6.673   2.078   0.960
77423SOL     OW34165   5.457  12.737   1.767
77423SOL    HW134166   5.447  12.653   1.723
77423SOL    HW234167   5.483  12.715   1.856
77424SOL     OW34168  11.356  10.949  13.125
77424SOL    HW134169  11.265  10.918  13.127
77424SOL    HW234170  11.395  10.903  13.050
77425SOL     OW34171   1.385  12.810   9.354
77425SOL    HW134172   1.427  12.738   9.306
77425SOL    HW234173   1.452  12.877   9.360
77426SOL     OW34174   2.302   0.433   8.940
77426SOL    HW134175   2.357   0.507   8.914
77426SOL    HW234176   2.218   0.450   8.898
77427SOL     OW34177  14.641   8.001   7.948
77427SOL    HW134178  14.624   7.912   7.917
77427SOL    HW234179  14.560   8.048   7.931
77428SOL     OW34180   3.404   0.443   4.526
77428SOL    HW134181   3.334   0.508   4.522
77428SOL    HW234182   3.483   0.492   4.500
77429SOL     OW34183   9.960   1.446   6.906
77429SOL    HW134184   9.922   1.358   6.896
77429SOL    HW234185  10.025   1.435   6.976
77430SOL     OW34186  11.431   3.864   4.659
77430SOL    HW134187  11.498   3.800   4.632
77430SOL    HW234188  11.460   3.946   4.621
77431SOL     OW34189   9.875  10.635  13.249
77431SOL    HW134190   9.957  10.621  13.295
77431SOL    HW234191   9.807  10.626  13.317
77432SOL     OW34192   7.006   4.466   7.892
77432SOL    HW134193   6.913   4.446   7.902
77432SOL    HW234194   7.008   4.540   7.831
77433SOL     OW34195   1.611   8.944   6.355
77433SOL    HW134196   1.625   8.874   6.292
77433SOL    HW234197   1.676   8.929   6.423
77434SOL     OW34198   3.108  10.310   3.304
77434SOL    HW134199   3.067  10.280   3.385
77434SOL    HW234200   3.141  10.398   3.325
77435SOL     OW34201   1.586  14.486   1.726
77435SOL    HW134202   1.510  14.500   1.783
77435SOL    HW234203   1.548  14.460   1.642
77436SOL     OW34204   5.163  10.380   6.650
77436SOL    HW134205   5.120  10.462   6.676
77436SOL    HW234206   5.105  10.312   6.685
77437SOL     OW34207   5.231   4.659  10.511
77437SOL    HW134208   5.183   4.576  10.517
77437SOL    HW234209   5.166   4.722  10.478
77438SOL     OW34210  13.233  12.592   4.384
77438SOL    HW134211  13.304  12.541   4.345
77438SOL    HW234212  13.204  12.650   4.314
77439SOL     OW34213  12.512   1.156  10.577
77439SOL    HW134214  12.505   1.062  10.592
77439SOL    HW234215  12.601   1.168  10.542
77440SOL     OW34216  13.236   7.194  12.064
77440SOL    HW134217  13.281   7.112  12.086
77440SOL    HW234218  13.158   7.165  12.017
77441SOL     OW34219  12.695  10.207   1.824
77441SOL    HW134220  12.679  10.129   1.876
77441SOL    HW234221  12.775  10.244   1.860
77442SOL     OW34222   4.403  11.131   8.159
77442SOL    HW134223   4.442  11.166   8.240
77442SOL    HW234224   4.318  11.176   8.153
77443SOL     OW34225  14.275  11.737   3.903
77443SOL    HW134226  14.219  11.787   3.963
77443SOL    HW234227  14.218  11.715   3.830
77444SOL     OW34228   0.576   7.917   7.352
77444SOL    HW134229   0.511   7.987   7.354
77444SOL    HW234230   0.619   7.926   7.267
77445SOL     OW34231   9.815   5.631   4.253
77445SOL    HW134232   9.778   5.707   4.208
77445SOL    HW234233   9.900   5.618   4.211
77446SOL     OW34234   9.033   7.762   9.899
77446SOL    HW134235   9.114   7.727   9.935
77446SOL    HW234236   9.059   7.809   9.820
77447SOL     OW34237   3.631  11.022  10.676
77447SOL    HW134238   3.597  10.996  10.762
77447SOL    HW234239   3.593  11.109  10.660
77448SOL     OW34240   2.665  12.734   0.101
77448SOL    HW134241   2.758  12.716   0.086
77448SOL    HW234242   2.663  12.827   0.126
77449SOL     OW34243  10.848   5.626   4.156
77449SOL    HW134244  10.794   5.675   4.094
77449SOL    HW234245  10.931   5.612   4.110
77450SOL     OW34246  14.042  13.625   4.905
77450SOL    HW134247  14.038  13.693   4.838
77450SOL    HW234248  14.033  13.672   4.988
77451SOL     OW34249   9.868  11.714   5.181
77451SOL    HW134250   9.924  11.788   5.158
77451SOL    HW234251   9.917  11.668   5.249
77452SOL     OW34252   0.960   4.763   0.998
77452SOL    HW134253   0.992   4.853   0.996
77452SOL    HW234254   0.886   4.766   1.059
77453SOL     OW34255   4.636  10.800  13.535
77453SOL    HW134256   4.554  10.847  13.548
77453SOL    HW234257   4.613  10.708  13.546
77454SOL     OW34258   2.391   5.414   0.589
77454SOL    HW134259   2.395   5.336   0.644
77454SOL    HW234260   2.461   5.401   0.524
77455SOL     OW34261   9.122   2.815   0.802
77455SOL    HW134262   9.075   2.861   0.732
77455SOL    HW234263   9.199   2.779   0.758
77456SOL     OW34264  13.178   6.745  10.328
77456SOL    HW134265  13.190   6.726  10.421
77456SOL    HW234266  13.199   6.663  10.283
77457SOL     OW34267   4.700   7.605   5.898
77457SOL    HW134268   4.615   7.642   5.919
77457SOL    HW234269   4.710   7.616   5.804
77458SOL     OW34270  10.036   8.111  11.270
77458SOL    HW134271   9.963   8.152  11.224
77458SOL    HW234272  10.114   8.139  11.222
77459SOL     OW34273  14.379   1.602   8.596
77459SOL    HW134274  14.289   1.589   8.627
77459SOL    HW234275  14.433   1.586   8.673
77460SOL     OW34276   5.810   6.888   7.022
77460SOL    HW134277   5.778   6.977   7.033
77460SOL    HW234278   5.821   6.877   6.927
77461SOL     OW34279   5.940   5.484   5.267
77461SOL    HW134280   6.014   5.534   5.302
77461SOL    HW234281   5.949   5.492   5.172
77462SOL     OW34282   9.509  12.438   4.258
77462SOL    HW134283   9.486  12.378   4.187
77462SOL    HW234284   9.430  12.444   4.312
77463SOL     OW34285   7.340   8.259  12.777
77463SOL    HW134286   7.387   8.260  12.694
77463SOL    HW234287   7.248   8.255  12.752
77464SOL     OW34288   7.892  14.736  13.763
77464SOL    HW134289   7.798  14.719  13.753
77464SOL    HW234290   7.920  14.767  13.677
77465SOL     OW34291   7.367  14.595   1.978
77465SOL    HW134292   7.401  14.683   1.993
77465SOL    HW234293   7.314  14.577   2.056
77466SOL     OW34294   9.916   1.017   5.140
77466SOL    HW134295   9.993   1.018   5.196
77466SOL    HW234296   9.944   1.061   5.060
77467SOL     OW34297  12.178  11.123  12.157
77467SOL    HW134298  12.236  11.189  12.195
77467SOL    HW234299  12.214  11.107  12.070
77468SOL     OW34300   9.801  13.873   7.710
77468SOL    HW134301   9.759  13.870   7.796
77468SOL    HW234302   9.742  13.925   7.656
77469SOL     OW34303   3.410   2.906  11.633
77469SOL    HW134304   3.457   2.990  11.627
77469SOL    HW234305   3.387   2.885  11.542
77470SOL     OW34306  14.493  14.556   5.533
77470SOL    HW134307  14.540  14.535   5.453
77470SOL    HW234308  14.431  14.624   5.508
77471SOL     OW34309  11.727  11.314   3.561
77471SOL    HW134310  11.693  11.379   3.622
77471SOL    HW234311  11.817  11.298   3.590
77472SOL     OW34312   3.430   0.799   1.823
77472SOL    HW134313   3.460   0.855   1.751
77472SOL    HW234314   3.373   0.855   1.875
77473SOL     OW34315   0.280   1.633   3.897
77473SOL    HW134316   0.329   1.567   3.945
77473SOL    HW234317   0.289   1.609   3.805
77474SOL     OW34318  10.084   2.010  10.005
77474SOL    HW134319  10.124   1.927  10.031
77474SOL    HW234320  10.158   2.071   9.997
77475SOL     OW34321   9.532  12.458   0.503
77475SOL    HW134322   9.548  12.531   0.444
77475SOL    HW234323   9.513  12.499   0.587
77476SOL     OW34324   0.738   1.887   0.634
77476SOL    HW134325   0.825   1.864   0.602
77476SOL    HW234326   0.715   1.968   0.587
77477SOL     OW34327  10.598  11.191   7.317
77477SOL    HW134328  10.682  11.221   7.282
77477SOL    HW234329  10.611  11.192   7.412
77478SOL     OW34330  12.868  14.376   7.382
77478SOL    HW134331  12.846  14.448   7.441
77478SOL    HW234332  12.783  14.348   7.346
77479SOL     OW34333  14.729   0.468   1.477
77479SOL    HW134334  14.811   0.513   1.495
77479SOL    HW234335  14.661   0.535   1.486
77480SOL     OW34336   3.538   0.377  13.060
77480SOL    HW134337   3.465   0.407  13.007
77480SOL    HW234338   3.537   0.282  13.052
77481SOL     OW34339   8.618   9.324   0.607
77481SOL    HW134340   8.634   9.400   0.662
77481SOL    HW234341   8.683   9.259   0.636
77482SOL     OW34342   4.000  12.186   4.705
77482SOL    HW134343   3.992  12.102   4.750
77482SOL    HW234344   4.068  12.233   4.753
77483SOL     OW34345   5.170  13.055  12.712
77483SOL    HW134346   5.252  13.104  12.710
77483SOL    HW234347   5.102  13.123  12.716
77484SOL     OW34348  10.038   9.770   0.212
77484SOL    HW134349  10.026   9.706   0.282
77484SOL    HW234350  10.011   9.724   0.132
77485SOL     OW34351  13.880   0.757   5.845
77485SOL    HW134352  13.835   0.685   5.801
77485SOL    HW234353  13.867   0.832   5.788
77486SOL     OW34354   0.673   8.034  14.745
77486SOL    HW134355   0.597   8.091  14.751
77486SOL    HW234356   0.735   8.069  14.810
77487SOL     OW34357  11.835  10.088  12.583
77487SOL    HW134358  11.759  10.031  12.580
77487SOL    HW234359  11.886  10.063  12.506
77488SOL     OW34360  12.001  12.402  14.831
77488SOL    HW134361  11.983  12.400  14.737
77488SOL    HW234362  12.041  12.487  14.846
77489SOL     OW34363   6.198  14.233  12.837
77489SOL    HW134364   6.231  14.248  12.749
77489SOL    HW234365   6.258  14.280  12.895
77490SOL     OW34366   3.757  11.863   3.966
77490SOL    HW134367   3.758  11.784   4.019
77490SOL    HW234368   3.794  11.931   4.023
77491SOL     OW34369   4.908   3.447   1.440
77491SOL    HW134370   4.963   3.504   1.387
77491SOL    HW234371   4.969   3.387   1.483
77492SOL     OW34372   4.217   3.985   6.745
77492SOL    HW134373   4.234   4.035   6.824
77492SOL    HW234374   4.125   3.958   6.752
77493SOL     OW34375   0.911  14.502  12.653
77493SOL    HW134376   0.917  14.418  12.697
77493SOL    HW234377   0.907  14.566  12.724
77494SOL     OW34378  10.659   6.135  10.699
77494SOL    HW134379  10.729   6.070  10.685
77494SOL    HW234380  10.580   6.082  10.711
77495SOL     OW34381   9.512  12.421   8.596
77495SOL    HW134382   9.570  12.405   8.670
77495SOL    HW234383   9.491  12.334   8.563
77496SOL     OW34384  11.209  14.126   7.899
77496SOL    HW134385  11.146  14.113   7.829
77496SOL    HW234386  11.216  14.221   7.908
77497SOL     OW34387   6.659   3.718  10.793
77497SOL    HW134388   6.622   3.649  10.738
77497SOL    HW234389   6.753   3.715  10.775
77498SOL     OW34390   6.299   3.846   0.302
77498SOL    HW134391   6.377   3.791   0.313
77498SOL    HW234392   6.234   3.808   0.360
77499SOL     OW34393  14.246  11.961  10.579
77499SOL    HW134394  14.260  11.940  10.487
77499SOL    HW234395  14.196  12.043  10.577
77500SOL     OW34396   0.189   5.095   9.255
77500SOL    HW134397   0.271   5.115   9.211
77500SOL    HW234398   0.192   5.001   9.271
77501SOL     OW34399   5.205   7.396   6.381
77501SOL    HW134400   5.196   7.439   6.466
77501SOL    HW234401   5.299   7.404   6.361
77502SOL     OW34402   7.906   9.820   2.318
77502SOL    HW134403   7.978   9.881   2.334
77502SOL    HW234404   7.924   9.746   2.376
77503SOL     OW34405  10.739  14.828   7.255
77503SOL    HW134406  10.805  14.776   7.302
77503SOL    HW234407  10.757  14.813   7.163
77504SOL     OW34408   7.669  11.923  10.228
77504SOL    HW134409   7.603  11.989  10.247
77504SOL    HW234410   7.653  11.854  10.293
77505SOL     OW34411  14.699   3.283  11.094
77505SOL    HW134412  14.705   3.299  11.000
77505SOL    HW234413  14.673   3.368  11.131
77506SOL     OW34414   9.317  11.916   1.996
77506SOL    HW134415   9.382  11.897   2.064
77506SOL    HW234416   9.365  11.966   1.930
77507SOL     OW34417   0.209   8.722   0.779
77507SOL    HW134418   0.287   8.675   0.808
77507SOL    HW234419   0.243   8.794   0.726
77508SOL     OW34420   0.533  13.714   1.035
77508SOL    HW134421   0.556  13.645   1.098
77508SOL    HW234422   0.462  13.763   1.077
77509SOL     OW34423   0.427  10.497  13.493
77509SOL    HW134424   0.369  10.564  13.457
77509SOL    HW234425   0.486  10.475  13.421
77510SOL     OW34426  14.407  10.323  14.380
77510SOL    HW134427  14.419  10.288  14.468
77510SOL    HW234428  14.355  10.402  14.392
77511SOL     OW34429   9.334   5.399   3.837
77511SOL    HW134430   9.294   5.484   3.821
77511SOL    HW234431   9.279   5.359   3.905
77512SOL     OW34432   9.771   9.383   8.473
77512SOL    HW134433   9.684   9.417   8.497
77512SOL    HW234434   9.832   9.450   8.502
77513SOL     OW34435   8.045   2.174   8.756
77513SOL    HW134436   7.960   2.178   8.799
77513SOL    HW234437   8.050   2.254   8.704
77514SOL     OW34438   7.275  12.001  14.361
77514SOL    HW134439   7.243  11.915  14.334
77514SOL    HW234440   7.307  12.041  14.280
77515SOL     OW34441  13.770   5.665   6.113
77515SOL    HW134442  13.755   5.606   6.187
77515SOL    HW234443  13.727   5.746   6.139
77516SOL     OW34444  14.166   5.732  13.071
77516SOL    HW134445  14.135   5.712  12.982
77516SOL    HW234446  14.106   5.798  13.104
77517SOL     OW34447   2.920  11.621   8.364
77517SOL    HW134448   2.945  11.682   8.434
77517SOL    HW234449   2.828  11.602   8.381
77518SOL     OW34450  13.485   7.993   8.459
77518SOL    HW134451  13.499   7.899   8.471
77518SOL    HW234452  13.494   8.006   8.364
77519SOL     OW34453   3.189  10.169  10.370
77519SOL    HW134454   3.264  10.225  10.349
77519SOL    HW234455   3.120  10.198  10.311
77520SOL     OW34456  10.908  12.536   2.636
77520SOL    HW134457  10.925  12.474   2.565
77520SOL    HW234458  10.931  12.488   2.715
77521SOL     OW34459  12.208   3.766   8.441
77521SOL    HW134460  12.208   3.681   8.484
77521SOL    HW234461  12.286   3.767   8.387
77522SOL     OW34462   4.144   5.605   9.679
77522SOL    HW134463   4.120   5.516   9.705
77522SOL    HW234464   4.068   5.658   9.704
77523SOL     OW34465   9.903  12.179   1.981
77523SOL    HW134466   9.886  12.271   1.964
77523SOL    HW234467   9.940  12.177   2.069
77524SOL     OW34468  13.262   8.341  10.969
77524SOL    HW134469  13.289   8.380  11.052
77524SOL    HW234470  13.288   8.249  10.976
77525SOL     OW34471   1.647   7.595   9.366
77525SOL    HW134472   1.564   7.642   9.372
77525SOL    HW234473   1.632   7.514   9.416
77526SOL     OW34474   5.185   1.983   0.904
77526SOL    HW134475   5.226   1.899   0.886
77526SOL    HW234476   5.093   1.961   0.922
77527SOL     OW34477   0.446  14.660   2.200
77527SOL    HW134478   0.465  14.593   2.266
77527SOL    HW234479   0.493  14.629   2.122
77528SOL     OW34480  11.730   8.745   2.259
77528SOL    HW134481  11.803   8.808   2.256
77528SOL    HW234482  11.693   8.746   2.170
77529SOL     OW34483   5.393  10.288  11.871
77529SOL    HW134484   5.413  10.197  11.852
77529SOL    HW234485   5.439  10.306  11.954
77530SOL     OW34486  14.108   1.663   9.955
77530SOL    HW134487  14.199   1.646   9.933
77530SOL    HW234488  14.105   1.757   9.973
77531SOL     OW34489   8.699   7.324   5.293
77531SOL    HW134490   8.747   7.259   5.345
77531SOL    HW234491   8.766   7.364   5.237
77532SOL     OW34492  12.819  14.750   2.426
77532SOL    HW134493  12.817  14.753   2.521
77532SOL    HW234494  12.756  14.817   2.398
77533SOL     OW34495   0.031  12.670  11.458
77533SOL    HW134496   0.052  12.754  11.499
77533SOL    HW234497   0.114  12.640  11.421
77534SOL     OW34498  12.534  13.047   6.326
77534SOL    HW134499  12.577  13.040   6.411
77534SOL    HW234500  12.587  12.993   6.268
77535SOL     OW34501   5.898  11.485  14.262
77535SOL    HW134502   5.879  11.392  14.250
77535SOL    HW234503   5.992  11.492  14.245
77536SOL     OW34504   0.311   1.557   8.733
77536SOL    HW134505   0.246   1.611   8.689
77536SOL    HW234506   0.394   1.603   8.719
77537SOL     OW34507   3.130   7.921   5.696
77537SOL    HW134508   3.199   7.913   5.762
77537SOL    HW234509   3.099   8.011   5.703
77538SOL     OW34510  13.601  12.084   8.155
77538SOL    HW134511  13.564  12.101   8.241
77538SOL    HW234512  13.540  12.126   8.094
77539SOL     OW34513   8.241   8.431   1.412
77539SOL    HW134514   8.301   8.434   1.337
77539SOL    HW234515   8.258   8.511   1.460
77540SOL     OW34516   8.766   1.770  12.588
77540SOL    HW134517   8.686   1.786  12.638
77540SOL    HW234518   8.835   1.763  12.654
77541SOL     OW34519   1.011   5.676   6.609
77541SOL    HW134520   1.072   5.720   6.550
77541SOL    HW234521   0.924   5.700   6.577
77542SOL     OW34522  11.412   7.526   0.898
77542SOL    HW134523  11.419   7.593   0.966
77542SOL    HW234524  11.360   7.567   0.829
77543SOL     OW34525   6.401   8.909   9.127
77543SOL    HW134526   6.377   8.957   9.206
77543SOL    HW234527   6.494   8.929   9.113
77544SOL     OW34528   9.924   4.641   5.494
77544SOL    HW134529   9.978   4.642   5.415
77544SOL    HW234530   9.901   4.549   5.506
77545SOL     OW34531   9.793  11.330  11.767
77545SOL    HW134532   9.743  11.297  11.692
77545SOL    HW234533   9.865  11.380  11.728
77546SOL     OW34534  13.544  10.181   8.962
77546SOL    HW134535  13.458  10.196   9.001
77546SOL    HW234536  13.529  10.114   8.896
77547SOL     OW34537   8.982  13.597   4.797
77547SOL    HW134538   9.009  13.627   4.884
77547SOL    HW234539   9.047  13.633   4.738
77548SOL     OW34540   0.953   0.136  13.673
77548SOL    HW134541   0.877   0.162  13.725
77548SOL    HW234542   1.026   0.185  13.711
77549SOL     OW34543  12.738   4.627  11.878
77549SOL    HW134544  12.750   4.720  11.898
77549SOL    HW234545  12.643   4.616  11.873
77550SOL     OW34546  13.797  12.289   7.596
77550SOL    HW134547  13.758  12.371   7.627
77550SOL    HW234548  13.767  12.281   7.505
77551SOL     OW34549   6.169  13.865   8.202
77551SOL    HW134550   6.083  13.886   8.166
77551SOL    HW234551   6.163  13.887   8.295
77552SOL     OW34552   2.287   0.549   7.866
77552SOL    HW134553   2.250   0.506   7.789
77552SOL    HW234554   2.377   0.519   7.870
77553SOL     OW34555   6.291   7.811  12.712
77553SOL    HW134556   6.284   7.838  12.804
77553SOL    HW234557   6.272   7.890  12.662
77554SOL     OW34558   6.903  12.990   2.593
77554SOL    HW134559   6.972  12.935   2.629
77554SOL    HW234560   6.881  12.950   2.509
77555SOL     OW34561   5.256   6.580   0.855
77555SOL    HW134562   5.275   6.506   0.914
77555SOL    HW234563   5.265   6.542   0.767
77556SOL     OW34564   0.227   9.181   4.062
77556SOL    HW134565   0.284   9.195   3.986
77556SOL    HW234566   0.275   9.219   4.135
77557SOL     OW34567  12.224  14.752  12.377
77557SOL    HW134568  12.270  14.670  12.394
77557SOL    HW234569  12.286  14.803  12.324
77558SOL     OW34570  11.682   5.466   5.735
77558SOL    HW134571  11.744   5.474   5.663
77558SOL    HW234572  11.704   5.383   5.777
77559SOL     OW34573  10.509  14.481  11.545
77559SOL    HW134574  10.537  14.390  11.541
77559SOL    HW234575  10.461  14.496  11.464
77560SOL     OW34576   4.046   8.246   9.014
77560SOL    HW134577   4.076   8.320   8.961
77560SOL    HW234578   4.115   8.180   9.006
77561SOL     OW34579  13.365   2.749   4.700
77561SOL    HW134580  13.320   2.772   4.781
77561SOL    HW234581  13.349   2.823   4.641
77562SOL     OW34582   9.954  12.688   8.390
77562SOL    HW134583   9.990  12.628   8.454
77562SOL    HW234584   9.867  12.711   8.424
77563SOL     OW34585  11.897   0.709   8.859
77563SOL    HW134586  11.903   0.614   8.852
77563SOL    HW234587  11.936   0.741   8.777
77564SOL     OW34588   2.286  13.042  13.285
77564SOL    HW134589   2.343  12.981  13.238
77564SOL    HW234590   2.203  12.994  13.295
77565SOL     OW34591   8.212   1.408   3.798
77565SOL    HW134592   8.124   1.377   3.775
77565SOL    HW234593   8.257   1.418   3.714
77566SOL     OW34594   1.658   5.494  10.250
77566SOL    HW134595   1.743   5.457  10.275
77566SOL    HW234596   1.594   5.429  10.279
77567SOL     OW34597   0.159   3.579  14.286
77567SOL    HW134598   0.163   3.632  14.366
77567SOL    HW234599   0.175   3.640  14.215
77568SOL     OW34600   6.860  12.572   3.993
77568SOL    HW134601   6.796  12.503   3.978
77568SOL    HW234602   6.825  12.623   4.066
77569SOL     OW34603  10.885   1.824  13.327
77569SOL    HW134604  10.884   1.796  13.236
77569SOL    HW234605  10.849   1.913  13.326
77570SOL     OW34606   8.469  10.925  12.261
77570SOL    HW134607   8.404  10.901  12.327
77570SOL    HW234608   8.545  10.872  12.283
77571SOL     OW34609  14.039   5.081   5.580
77571SOL    HW134610  14.057   4.987   5.579
77571SOL    HW234611  14.126   5.122   5.588
77572SOL     OW34612  13.704  11.980   3.537
77572SOL    HW134613  13.727  11.972   3.629
77572SOL    HW234614  13.751  11.908   3.494
77573SOL     OW34615   3.396  12.398   1.118
77573SOL    HW134616   3.365  12.479   1.079
77573SOL    HW234617   3.317  12.353   1.146
77574SOL     OW34618   9.820   3.982   1.880
77574SOL    HW134619   9.803   3.953   1.790
77574SOL    HW234620   9.750   3.941   1.931
77575SOL     OW34621   6.363   6.220  11.442
77575SOL    HW134622   6.317   6.289  11.393
77575SOL    HW234623   6.438   6.265  11.480
77576SOL     OW34624   5.143   4.855  10.095
77576SOL    HW134625   5.180   4.943  10.088
77576SOL    HW234626   5.087   4.845  10.018
77577SOL     OW34627  14.296   4.674   5.910
77577SOL    HW134628  14.377   4.695   5.865
77577SOL    HW234629  14.273   4.754   5.957
77578SOL     OW34630   5.086  11.322  13.529
77578SOL    HW134631   5.128  11.336  13.614
77578SOL    HW234632   5.077  11.227  13.523
77579SOL     OW34633  11.114   5.747  14.526
77579SOL    HW134634  11.060   5.822  14.500
77579SOL    HW234635  11.117   5.691  14.449
77580SOL     OW34636   0.713   7.144   8.815
77580SOL    HW134637   0.687   7.109   8.901
77580SOL    HW234638   0.807   7.129   8.811
77581SOL     OW34639   5.416   4.846   4.070
77581SOL    HW134640   5.507   4.826   4.092
77581SOL    HW234641   5.408   4.941   4.083
77582SOL     OW34642  14.539   6.588   2.458
77582SOL    HW134643  14.506   6.508   2.418
77582SOL    HW234644  14.605   6.620   2.396
77583SOL     OW34645   7.691   8.677  12.972
77583SOL    HW134646   7.681   8.735  12.897
77583SOL    HW234647   7.622   8.611  12.962
77584SOL     OW34648  13.364   0.980   0.532
77584SOL    HW134649  13.400   1.039   0.597
77584SOL    HW234650  13.270   0.996   0.534
77585SOL     OW34651  10.322   4.480   1.491
77585SOL    HW134652  10.291   4.491   1.581
77585SOL    HW234653  10.398   4.423   1.498
77586SOL     OW34654  10.120   8.944   8.036
77586SOL    HW134655  10.109   8.949   7.941
77586SOL    HW234656  10.066   8.870   8.063
77587SOL     OW34657  10.482   6.977   9.109
77587SOL    HW134658  10.577   6.973   9.104
77587SOL    HW234659  10.453   6.888   9.091
77588SOL     OW34660   4.304   4.567   3.055
77588SOL    HW134661   4.369   4.637   3.063
77588SOL    HW234662   4.222   4.612   3.034
77589SOL     OW34663   4.896   7.285  11.592
77589SOL    HW134664   4.936   7.230  11.525
77589SOL    HW234665   4.860   7.223  11.656
77590SOL     OW34666   4.785  11.141  11.314
77590SOL    HW134667   4.728  11.065  11.324
77590SOL    HW234668   4.862  11.121  11.366
77591SOL     OW34669   9.117   8.005   9.404
77591SOL    HW134670   9.161   7.947   9.342
77591SOL    HW234671   9.043   8.041   9.355
77592SOL     OW34672   9.887   2.159   6.273
77592SOL    HW134673   9.845   2.078   6.243
77592SOL    HW234674   9.814   2.218   6.291
77593SOL     OW34675  13.955   9.133   4.522
77593SOL    HW134676  13.925   9.124   4.612
77593SOL    HW234677  13.912   9.061   4.475
77594SOL     OW34678   9.214   6.181  10.693
77594SOL    HW134679   9.159   6.213  10.622
77594SOL    HW234680   9.196   6.087  10.696
77595SOL     OW34681   5.971   3.039   0.076
77595SOL    HW134682   5.891   3.049   0.127
77595SOL    HW234683   5.942   2.999  14.866
77596SOL     OW34684   8.587   8.451  10.072
77596SOL    HW134685   8.599   8.527  10.015
77596SOL    HW234686   8.494   8.432  10.066
77597SOL     OW34687   7.168  11.634   1.483
77597SOL    HW134688   7.078  11.664   1.493
77597SOL    HW234689   7.206  11.693   1.419
77598SOL     OW34690  14.356  11.205   5.752
77598SOL    HW134691  14.425  11.225   5.815
77598SOL    HW234692  14.286  11.167   5.805
77599SOL     OW34693  12.660   0.753  10.474
77599SOL    HW134694  12.573   0.790  10.485
77599SOL    HW234695  12.664   0.682  10.538
77600SOL     OW34696   3.851   3.905  10.393
77600SOL    HW134697   3.782   3.858  10.346
77600SOL    HW234698   3.912   3.932  10.324
77601SOL     OW34699   3.671   0.881   7.130
77601SOL    HW134700   3.654   0.793   7.095
77601SOL    HW234701   3.678   0.936   7.052
77602SOL     OW34702   3.614  14.159   2.897
77602SOL    HW134703   3.617  14.194   2.986
77602SOL    HW234704   3.522  14.164   2.873
77603SOL     OW34705   0.509   0.481   3.055
77603SOL    HW134706   0.499   0.390   3.083
77603SOL    HW234707   0.427   0.523   3.080
77604SOL     OW34708   7.010  13.830   1.487
77604SOL    HW134709   6.994  13.922   1.465
77604SOL    HW234710   6.924  13.789   1.483
77605SOL     OW34711   4.078   2.546  13.434
77605SOL    HW134712   4.090   2.616  13.370
77605SOL    HW234713   4.036   2.589  13.509
77606SOL     OW34714   6.106  14.221   4.808
77606SOL    HW134715   6.061  14.261   4.882
77606SOL    HW234716   6.076  14.131   4.807
77607SOL     OW34717  14.048  11.643   9.772
77607SOL    HW134718  14.042  11.645   9.867
77607SOL    HW234719  14.045  11.734   9.745
77608SOL     OW34720  12.784   3.393  10.621
77608SOL    HW134721  12.836   3.339  10.680
77608SOL    HW234722  12.810   3.483  10.640
77609SOL     OW34723   7.705   4.443   4.232
77609SOL    HW134724   7.763   4.367   4.239
77609SOL    HW234725   7.765   4.516   4.213
77610SOL     OW34726   5.390   8.203   5.910
77610SOL    HW134727   5.367   8.115   5.881
77610SOL    HW234728   5.389   8.197   6.006
77611SOL     OW34729   4.779   0.648   1.272
77611SOL    HW134730   4.803   0.557   1.287
77611SOL    HW234731   4.719   0.670   1.343
77612SOL     OW34732  11.783   8.854   3.763
77612SOL    HW134733  11.871   8.873   3.729
77612SOL    HW234734  11.799   8.817   3.850
77613SOL     OW34735  13.866   9.593  14.286
77613SOL    HW134736  13.916   9.593  14.367
77613SOL    HW234737  13.830   9.505  14.279
77614SOL     OW34738   6.955  12.532   5.518
77614SOL    HW134739   7.039  12.501   5.552
77614SOL    HW234740   6.896  12.530   5.593
77615SOL     OW34741  12.960   6.561  12.340
77615SOL    HW134742  13.011   6.486  12.309
77615SOL    HW234743  12.987   6.633  12.284
77616SOL     OW34744   7.308   4.560   3.023
77616SOL    HW134745   7.395   4.566   3.060
77616SOL    HW234746   7.254   4.616   3.078
77617SOL     OW34747  12.438   8.920   0.942
77617SOL    HW134748  12.405   8.863   1.011
77617SOL    HW234749  12.527   8.942   0.969
77618SOL     OW34750   3.572   7.032   8.960
77618SOL    HW134751   3.636   6.988   8.904
77618SOL    HW234752   3.488   6.990   8.939
77619SOL     OW34753   1.650  10.024   9.494
77619SOL    HW134754   1.575  10.079   9.471
77619SOL    HW234755   1.719  10.050   9.433
77620SOL     OW34756   5.508   7.956   6.273
77620SOL    HW134757   5.430   8.005   6.246
77620SOL    HW234758   5.477   7.897   6.342
77621SOL     OW34759  12.976   4.516  13.730
77621SOL    HW134760  12.970   4.603  13.691
77621SOL    HW234761  12.912   4.463  13.682
77622SOL     OW34762  13.206  10.579   5.105
77622SOL    HW134763  13.178  10.512   5.042
77622SOL    HW234764  13.131  10.588   5.164
77623SOL     OW34765  12.841   0.505   7.537
77623SOL    HW134766  12.843   0.452   7.616
77623SOL    HW234767  12.916   0.476   7.485
77624SOL     OW34768  12.770   5.879  10.007
77624SOL    HW134769  12.794   5.913   9.921
77624SOL    HW234770  12.688   5.833   9.993
77625SOL     OW34771  10.753   0.916  13.064
77625SOL    HW134772  10.823   0.852  13.073
77625SOL    HW234773  10.795   0.992  13.024
77626SOL     OW34774   5.889   8.044  14.160
77626SOL    HW134775   5.865   7.965  14.208
77626SOL    HW234776   5.838   8.039  14.079
77627SOL     OW34777   4.701  13.832   3.455
77627SOL    HW134778   4.702  13.917   3.411
77627SOL    HW234779   4.760  13.777   3.403
77628SOL     OW34780   6.069  14.125   5.420
77628SOL    HW134781   6.139  14.073   5.381
77628SOL    HW234782   6.009  14.061   5.456
77629SOL     OW34783  13.378  12.151  10.305
77629SOL    HW134784  13.302  12.182  10.353
77629SOL    HW234785  13.343  12.115  10.224
77630SOL     OW34786   2.365  14.392  13.289
77630SOL    HW134787   2.351  14.315  13.233
77630SOL    HW234788   2.398  14.356  13.371
77631SOL     OW34789   3.016   1.779  13.635
77631SOL    HW134790   2.952   1.708  13.623
77631SOL    HW234791   3.074   1.747  13.703
77632SOL     OW34792   4.469   6.664   4.535
77632SOL    HW134793   4.389   6.613   4.543
77632SOL    HW234794   4.525   6.632   4.605
77633SOL     OW34795   7.508   8.042   7.353
77633SOL    HW134796   7.452   8.000   7.288
77633SOL    HW234797   7.556   7.970   7.394
77634SOL     OW34798  12.214   1.054   5.166
77634SOL    HW134799  12.291   1.057   5.222
77634SOL    HW234800  12.164   0.978   5.197
77635SOL     OW34801  14.282  13.346   0.638
77635SOL    HW134802  14.316  13.435   0.649
77635SOL    HW234803  14.188  13.358   0.624
77636SOL     OW34804  11.781  12.401  10.381
77636SOL    HW134805  11.846  12.420  10.448
77636SOL    HW234806  11.703  12.374  10.431
77637SOL     OW34807   9.154  12.807  12.396
77637SOL    HW134808   9.081  12.868  12.409
77637SOL    HW234809   9.159  12.759  12.478
77638SOL     OW34810   0.452   0.745   9.612
77638SOL    HW134811   0.491   0.828   9.582
77638SOL    HW234812   0.527   0.687   9.627
77639SOL     OW34813   3.636  12.310   3.174
77639SOL    HW134814   3.690  12.242   3.214
77639SOL    HW234815   3.610  12.273   3.090
77640SOL     OW34816   4.934   9.991  10.470
77640SOL    HW134817   5.023  10.016  10.444
77640SOL    HW234818   4.907   9.927  10.404
77641SOL     OW34819   9.514   6.914  12.173
77641SOL    HW134820   9.464   6.995  12.162
77641SOL    HW234821   9.551   6.897  12.087
77642SOL     OW34822   9.706  12.426   3.977
77642SOL    HW134823   9.709  12.424   3.881
77642SOL    HW234824   9.763  12.499   4.002
77643SOL     OW34825   9.849   2.582   2.134
77643SOL    HW134826   9.820   2.670   2.109
77643SOL    HW234827   9.852   2.584   2.230
77644SOL     OW34828   7.365  14.769   8.318
77644SOL    HW134829   7.409  14.830   8.377
77644SOL    HW234830   7.295  14.821   8.277
77645SOL     OW34831  10.043  10.924  12.549
77645SOL    HW134832  10.040  10.978  12.470
77645SOL    HW234833   9.986  10.849  12.528
77646SOL     OW34834  14.049   5.006   7.964
77646SOL    HW134835  14.025   5.018   8.056
77646SOL    HW234836  13.967   5.019   7.916
77647SOL     OW34837   2.933   1.834   3.797
77647SOL    HW134838   2.992   1.784   3.741
77647SOL    HW234839   2.853   1.845   3.745
77648SOL     OW34840   0.101   5.253  12.518
77648SOL    HW134841   0.120   5.325  12.458
77648SOL    HW234842   0.022   5.211  12.481
77649SOL     OW34843   6.676  14.261   4.084
77649SOL    HW134844   6.736  14.202   4.131
77649SOL    HW234845   6.638  14.316   4.152
77650SOL     OW34846   3.072  10.617   6.220
77650SOL    HW134847   3.003  10.563   6.180
77650SOL    HW234848   3.148  10.604   6.163
77651SOL     OW34849  11.939  10.909   7.472
77651SOL    HW134850  12.011  10.894   7.533
77651SOL    HW234851  11.861  10.880   7.519
77652SOL     OW34852  13.558  11.123   5.290
77652SOL    HW134853  13.598  11.210   5.295
77652SOL    HW234854  13.482  11.136   5.233
77653SOL     OW34855   4.677   3.999  13.563
77653SOL    HW134856   4.597   3.952  13.541
77653SOL    HW234857   4.717   3.947  13.633
77654SOL     OW34858   2.775  12.362   2.350
77654SOL    HW134859   2.790  12.309   2.272
77654SOL    HW234860   2.769  12.299   2.422
77655SOL     OW34861  11.352   8.015  13.309
77655SOL    HW134862  11.403   7.973  13.378
77655SOL    HW234863  11.291   7.947  13.280
77656SOL     OW34864   6.595   5.635   4.039
77656SOL    HW134865   6.587   5.726   4.012
77656SOL    HW234866   6.629   5.639   4.128
77657SOL     OW34867   0.286   8.722   6.245
77657SOL    HW134868   0.280   8.767   6.161
77657SOL    HW234869   0.349   8.773   6.295
77658SOL     OW34870   3.934   1.854   3.719
77658SOL    HW134871   3.877   1.848   3.643
77658SOL    HW234872   3.943   1.763   3.750
77659SOL     OW34873   6.660   0.358   5.916
77659SOL    HW134874   6.728   0.381   5.853
77659SOL    HW234875   6.619   0.280   5.880
77660SOL     OW34876   9.386   6.951   3.376
77660SOL    HW134877   9.382   6.956   3.471
77660SOL    HW234878   9.447   7.019   3.350
77661SOL     OW34879   5.459   0.743   5.449
77661SOL    HW134880   5.528   0.742   5.382
77661SOL    HW234881   5.406   0.819   5.427
77662SOL     OW34882   3.837   7.222  14.666
77662SOL    HW134883   3.836   7.278  14.744
77662SOL    HW234884   3.776   7.151  14.687
77663SOL     OW34885  11.559  13.421   8.737
77663SOL    HW134886  11.548  13.505   8.692
77663SOL    HW234887  11.537  13.439   8.828
77664SOL     OW34888   3.006   9.340   3.187
77664SOL    HW134889   2.912   9.334   3.170
77664SOL    HW234890   3.017   9.419   3.239
77665SOL     OW34891   3.197   1.373   4.500
77665SOL    HW134892   3.132   1.443   4.487
77665SOL    HW234893   3.207   1.334   4.413
77666SOL     OW34894  13.435   4.440  11.318
77666SOL    HW134895  13.346   4.423  11.347
77666SOL    HW234896  13.435   4.531  11.289
77667SOL     OW34897   8.324  13.224   6.791
77667SOL    HW134898   8.233  13.198   6.803
77667SOL    HW234899   8.346  13.196   6.702
77668SOL     OW34900  14.034   5.167   7.357
77668SOL    HW134901  14.003   5.098   7.415
77668SOL    HW234902  14.114   5.199   7.399
77669SOL     OW34903   6.209  13.426   6.206
77669SOL    HW134904   6.290  13.378   6.216
77669SOL    HW234905   6.152  13.368   6.156
77670SOL     OW34906  10.686  13.099  12.550
77670SOL    HW134907  10.760  13.138  12.502
77670SOL    HW234908  10.631  13.174  12.573
77671SOL     OW34909   3.613   3.811   2.015
77671SOL    HW134910   3.519   3.790   2.012
77671SOL    HW234911   3.656   3.732   1.984
77672SOL     OW34912   2.470   2.288   1.118
77672SOL    HW134913   2.525   2.357   1.157
77672SOL    HW234914   2.527   2.211   1.116
77673SOL     OW34915   8.476   7.473   5.887
77673SOL    HW134916   8.396   7.439   5.927
77673SOL    HW234917   8.509   7.536   5.951
77674SOL     OW34918   3.757   1.358   9.467
77674SOL    HW134919   3.754   1.340   9.373
77674SOL    HW234920   3.822   1.297   9.501
77675SOL     OW34921   2.853  10.289   0.800
77675SOL    HW134922   2.804  10.223   0.847
77675SOL    HW234923   2.811  10.372   0.824
77676SOL     OW34924   0.048  14.775   2.759
77676SOL    HW134925   0.007  14.691   2.736
77676SOL    HW234926   0.110  14.791   2.688
77677SOL     OW34927  14.349  10.935   6.103
77677SOL    HW134928  14.294  11.010   6.124
77677SOL    HW234929  14.302  10.859   6.137
77678SOL     OW34930   5.493  14.249   9.100
77678SOL    HW134931   5.525  14.204   9.022
77678SOL    HW234932   5.485  14.340   9.073
77679SOL     OW34933  11.189   2.798   2.508
77679SOL    HW134934  11.258   2.821   2.570
77679SOL    HW234935  11.227   2.731   2.452
77680SOL     OW34936   2.830   7.667   1.081
77680SOL    HW134937   2.848   7.702   1.168
77680SOL    HW234938   2.910   7.686   1.031
77681SOL     OW34939  10.051  11.494   3.329
77681SOL    HW134940   9.986  11.522   3.265
77681SOL    HW234941  10.136  11.513   3.287
77682SOL     OW34942   8.736  11.370   4.411
77682SOL    HW134943   8.726  11.300   4.346
77682SOL    HW234944   8.649  11.377   4.452
77683SOL     OW34945   0.954  11.305  10.381
77683SOL    HW134946   1.024  11.240  10.383
77683SOL    HW234947   0.994  11.385  10.417
77684SOL     OW34948   5.065   0.932  10.376
77684SOL    HW134949   4.985   0.883  10.395
77684SOL    HW234950   5.078   0.921  10.282
77685SOL     OW34951   9.550  14.522  13.906
77685SOL    HW134952   9.482  14.539  13.840
77685SOL    HW234953   9.632  14.541  13.860
77686SOL     OW34954   8.081  14.757   8.142
77686SOL    HW134955   8.147  14.783   8.078
77686SOL    HW234956   8.132  14.723   8.216
77687SOL     OW34957   7.894   1.634  10.766
77687SOL    HW134958   7.844   1.653  10.686
77687SOL    HW234959   7.884   1.539  10.777
77688SOL     OW34960  14.312   4.203  12.202
77688SOL    HW134961  14.292   4.123  12.250
77688SOL    HW234962  14.406   4.216  12.214
77689SOL     OW34963   3.805   6.285  11.892
77689SOL    HW134964   3.881   6.323  11.849
77689SOL    HW234965   3.785   6.207  11.840
77690SOL     OW34966   8.820  13.916   2.592
77690SOL    HW134967   8.781  13.976   2.529
77690SOL    HW234968   8.874  13.857   2.540
77691SOL     OW34969   7.059   5.533   0.692
77691SOL    HW134970   7.070   5.461   0.630
77691SOL    HW234971   7.106   5.607   0.652
77692SOL     OW34972   7.775   2.078   8.546
77692SOL    HW134973   7.782   1.984   8.535
77692SOL    HW234974   7.796   2.115   8.460
77693SOL     OW34975   8.504   3.519  11.541
77693SOL    HW134976   8.560   3.445  11.517
77693SOL    HW234977   8.461   3.490  11.622
77694SOL     OW34978  12.906   1.899  12.277
77694SOL    HW134979  12.854   1.831  12.321
77694SOL    HW234980  12.994   1.862  12.271
77695SOL     OW34981  13.651   5.687   2.397
77695SOL    HW134982  13.651   5.752   2.467
77695SOL    HW234983  13.676   5.736   2.319
77696SOL     OW34984   6.090   8.051   5.516
77696SOL    HW134985   6.048   8.008   5.590
77696SOL    HW234986   6.178   8.072   5.547
77697SOL     OW34987   7.513   0.755   0.398
77697SOL    HW134988   7.424   0.729   0.375
77697SOL    HW234989   7.544   0.804   0.322
77698SOL     OW34990   6.900  12.480   4.261
77698SOL    HW134991   6.909  12.506   4.170
77698SOL    HW234992   6.990  12.465   4.290
77699SOL     OW34993   5.987   6.828   7.242
77699SOL    HW134994   6.012   6.900   7.301
77699SOL    HW234995   5.983   6.869   7.156
77700SOL     OW34996  11.017   1.826   2.739
77700SOL    HW134997  11.060   1.741   2.740
77700SOL    HW234998  10.947   1.818   2.675
77701SOL     OW34999   5.291   8.879   4.936
77701SOL    HW135000   5.309   8.785   4.941
77701SOL    HW235001   5.366   8.916   4.890
77702SOL     OW35002   2.468  13.589   5.929
77702SOL    HW135003   2.437  13.559   6.015
77702SOL    HW235004   2.502  13.509   5.887
77703SOL     OW35005  11.753  12.299   4.934
77703SOL    HW135006  11.763  12.246   4.855
77703SOL    HW235007  11.807  12.377   4.918
77704SOL     OW35008   2.721   8.675   1.643
77704SOL    HW135009   2.734   8.768   1.662
77704SOL    HW235010   2.650   8.673   1.578
77705SOL     OW35011  13.112   1.558   4.139
77705SOL    HW135012  13.109   1.586   4.230
77705SOL    HW235013  13.188   1.501   4.134
77706SOL     OW35014   0.179   9.714   9.505
77706SOL    HW135015   0.094   9.724   9.462
77706SOL    HW235016   0.243   9.731   9.435
77707SOL     OW35017   3.100   2.592  14.785
77707SOL    HW135018   3.195   2.588  14.784
77707SOL    HW235019   3.080   2.677  14.826
77708SOL     OW35020   2.342   1.859  13.192
77708SOL    HW135021   2.304   1.944  13.169
77708SOL    HW235022   2.435   1.878  13.205
77709SOL     OW35023   5.117  13.207   8.319
77709SOL    HW135024   5.041  13.153   8.339
77709SOL    HW235025   5.182  13.181   8.384
77710SOL     OW35026  12.160   1.702   1.089
77710SOL    HW135027  12.212   1.725   1.167
77710SOL    HW235028  12.115   1.784   1.066
77711SOL     OW35029   4.755   6.308   6.728
77711SOL    HW135030   4.767   6.231   6.784
77711SOL    HW235031   4.807   6.377   6.772
77712SOL     OW35032   3.532   7.858  12.413
77712SOL    HW135033   3.590   7.927  12.444
77712SOL    HW235034   3.545   7.786  12.475
77713SOL     OW35035  10.788   7.852   3.527
77713SOL    HW135036  10.700   7.889   3.525
77713SOL    HW235037  10.845   7.927   3.548
77714SOL     OW35038   0.651   4.410   7.090
77714SOL    HW135039   0.593   4.357   7.036
77714SOL    HW235040   0.592   4.466   7.141
77715SOL     OW35041   7.458  10.551   9.335
77715SOL    HW135042   7.402  10.478   9.359
77715SOL    HW235043   7.436  10.620   9.398
77716SOL     OW35044  10.524   2.107   2.246
77716SOL    HW135045  10.596   2.098   2.307
77716SOL    HW235046  10.445   2.091   2.298
77717SOL     OW35047   3.586  12.273   2.310
77717SOL    HW135048   3.668  12.252   2.355
77717SOL    HW235049   3.527  12.201   2.333
77718SOL     OW35050  12.640   3.263   2.626
77718SOL    HW135051  12.604   3.181   2.660
77718SOL    HW235052  12.577   3.330   2.653
77719SOL     OW35053   3.541   4.359   6.617
77719SOL    HW135054   3.564   4.414   6.692
77719SOL    HW235055   3.538   4.270   6.652
77720SOL     OW35056   0.855  14.697  10.359
77720SOL    HW135057   0.887  14.736  10.440
77720SOL    HW235058   0.933  14.671  10.311
77721SOL     OW35059   1.367  14.046  11.937
77721SOL    HW135060   1.401  14.124  11.894
77721SOL    HW235061   1.437  13.982  11.929
77722SOL     OW35062   8.240  14.424  13.267
77722SOL    HW135063   8.170  14.377  13.222
77722SOL    HW235064   8.204  14.445  13.353
77723SOL     OW35065   0.507  13.484   4.887
77723SOL    HW135066   0.444  13.548   4.852
77723SOL    HW235067   0.463  13.447   4.963
77724SOL     OW35068  14.229   0.899   1.104
77724SOL    HW135069  14.253   0.806   1.102
77724SOL    HW235070  14.306   0.945   1.072
77725SOL     OW35071   7.295   6.442   1.907
77725SOL    HW135072   7.285   6.491   1.988
77725SOL    HW235073   7.282   6.506   1.838
77726SOL     OW35074  10.585   8.093   8.286
77726SOL    HW135075  10.660   8.054   8.330
77726SOL    HW235076  10.513   8.031   8.301
77727SOL     OW35077   1.191   4.446  13.828
77727SOL    HW135078   1.177   4.428  13.921
77727SOL    HW235079   1.169   4.364  13.784
77728SOL     OW35080   1.519  10.172   9.806
77728SOL    HW135081   1.549  10.138   9.890
77728SOL    HW235082   1.584  10.141   9.743
77729SOL     OW35083   3.458   3.400   2.506
77729SOL    HW135084   3.432   3.401   2.598
77729SOL    HW235085   3.378   3.381   2.458
77730SOL     OW35086  13.740  13.941   5.065
77730SOL    HW135087  13.791  13.861   5.084
77730SOL    HW235088  13.802  13.998   5.020
77731SOL     OW35089  12.113   6.204   2.103
77731SOL    HW135090  12.112   6.114   2.070
77731SOL    HW235091  12.105   6.257   2.024
77732SOL     OW35092  14.468   3.524  13.690
77732SOL    HW135093  14.512   3.540  13.774
77732SOL    HW235094  14.375   3.537  13.708
77733SOL     OW35095   8.209   6.300   7.717
77733SOL    HW135096   8.287   6.258   7.680
77733SOL    HW235097   8.151   6.314   7.642
77734SOL     OW35098  10.614  14.209  10.298
77734SOL    HW135099  10.527  14.235  10.328
77734SOL    HW235100  10.598  14.167  10.213
77735SOL     OW35101   4.889   6.869   3.720
77735SOL    HW135102   4.818   6.811   3.694
77735SOL    HW235103   4.864   6.900   3.807
77736SOL     OW35104   4.109   3.119   7.457
77736SOL    HW135105   4.093   3.111   7.551
77736SOL    HW235106   4.042   3.063   7.417
77737SOL     OW35107   9.587  11.831  13.844
77737SOL    HW135108   9.557  11.897  13.781
77737SOL    HW235109   9.669  11.866  13.879
77738SOL     OW35110  13.781   7.296   3.806
77738SOL    HW135111  13.867   7.290   3.764
77738SOL    HW235112  13.727   7.342   3.742
77739SOL     OW35113  11.519   1.454   2.141
77739SOL    HW135114  11.522   1.392   2.068
77739SOL    HW235115  11.521   1.540   2.100
77740SOL     OW35116   5.683  10.666   6.486
77740SOL    HW135117   5.628  10.623   6.420
77740SOL    HW235118   5.661  10.758   6.480
77741SOL     OW35119   7.887  14.798   7.117
77741SOL    HW135120   7.832  14.828   7.189
77741SOL    HW235121   7.941   0.002   7.095
77742SOL     OW35122   0.729   9.345   8.685
77742SOL    HW135123   0.713   9.268   8.630
77742SOL    HW235124   0.795   9.396   8.637
77743SOL     OW35125  12.979   5.613  13.232
77743SOL    HW135126  13.029   5.685  13.193
77743SOL    HW235127  12.962   5.642  13.322
77744SOL     OW35128  11.515  13.921  12.347
77744SOL    HW135129  11.571  13.860  12.299
77744SOL    HW235130  11.573  13.995  12.368
77745SOL     OW35131   4.934   4.142  14.871
77745SOL    HW135132   5.027   4.132   0.017
77745SOL    HW235133   4.914   4.233   0.023
77746SOL     OW35134   3.057   9.589  10.074
77746SOL    HW135135   3.104   9.574   9.992
77746SOL    HW235136   3.120   9.635  10.130
77747SOL     OW35137   3.741  11.226  14.326
77747SOL    HW135138   3.815  11.175  14.292
77747SOL    HW235139   3.664  11.187  14.285
77748SOL     OW35140   4.351  12.580  11.439
77748SOL    HW135141   4.265  12.590  11.397
77748SOL    HW235142   4.409  12.552  11.368
77749SOL     OW35143   9.541  13.516   6.839
77749SOL    HW135144   9.565  13.445   6.899
77749SOL    HW235145   9.512  13.587   6.897
77750SOL     OW35146   5.704   9.909   2.929
77750SOL    HW135147   5.765   9.867   2.990
77750SOL    HW235148   5.732   9.879   2.843
77751SOL     OW35149   8.197   5.699  10.636
77751SOL    HW135150   8.209   5.788  10.668
77751SOL    HW235151   8.250   5.644  10.694
77752SOL     OW35152   3.220   1.486   2.804
77752SOL    HW135153   3.264   1.530   2.732
77752SOL    HW235154   3.287   1.481   2.873
77753SOL     OW35155   7.226  12.107  12.619
77753SOL    HW135156   7.147  12.087  12.570
77753SOL    HW235157   7.236  12.032  12.678
77754SOL     OW35158   8.574   2.084   1.358
77754SOL    HW135159   8.667   2.076   1.335
77754SOL    HW235160   8.543   1.994   1.367
77755SOL     OW35161   3.224   1.918   9.006
77755SOL    HW135162   3.185   1.958   8.928
77755SOL    HW235163   3.265   1.838   8.974
77756SOL     OW35164   1.944   1.213   1.662
77756SOL    HW135165   1.868   1.165   1.693
77756SOL    HW235166   1.962   1.177   1.575
77757SOL     OW35167   7.243   1.891  14.609
77757SOL    HW135168   7.334   1.863  14.602
77757SOL    HW235169   7.248   1.986  14.619
77758SOL     OW35170   2.367   9.620  10.378
77758SOL    HW135171   2.433   9.551  10.380
77758SOL    HW235172   2.327   9.618  10.465
77759SOL     OW35173   9.856  10.433  12.035
77759SOL    HW135174   9.890  10.497  12.096
77759SOL    HW235175   9.781  10.476  11.994
77760SOL     OW35176  14.440   2.345  14.613
77760SOL    HW135177  14.509   2.325  14.549
77760SOL    HW235178  14.487   2.382  14.687
77761SOL     OW35179   5.763   0.280   9.477
77761SOL    HW135180   5.701   0.272   9.404
77761SOL    HW235181   5.838   0.326   9.439
77762SOL     OW35182  14.547   5.438   9.480
77762SOL    HW135183  14.591   5.466   9.400
77762SOL    HW235184  14.614   5.446   9.548
77763SOL     OW35185  10.746  11.283  10.199
77763SOL    HW135186  10.665  11.237  10.224
77763SOL    HW235187  10.812  11.213  10.193
77764SOL     OW35188   7.698   3.662   3.243
77764SOL    HW135189   7.738   3.588   3.197
77764SOL    HW235190   7.608   3.666   3.210
77765SOL     OW35191   7.399   0.411  10.814
77765SOL    HW135192   7.428   0.364  10.892
77765SOL    HW235193   7.387   0.343  10.747
77766SOL     OW35194   5.609  10.897  10.434
77766SOL    HW135195   5.609  10.975  10.491
77766SOL    HW235196   5.632  10.825  10.493
77767SOL     OW35197   7.803   2.934   7.173
77767SOL    HW135198   7.755   2.945   7.091
77767SOL    HW235199   7.783   2.845   7.202
77768SOL     OW35200   8.394   7.626  11.761
77768SOL    HW135201   8.329   7.573  11.807
77768SOL    HW235202   8.425   7.688  11.828
77769SOL     OW35203  10.858  10.611  13.068
77769SOL    HW135204  10.831  10.703  13.069
77769SOL    HW235205  10.866  10.589  12.976
77770SOL     OW35206  12.840  11.114   5.835
77770SOL    HW135207  12.803  11.119   5.747
77770SOL    HW235208  12.827  11.023   5.862
77771SOL     OW35209  13.712  13.686  12.187
77771SOL    HW135210  13.679  13.753  12.247
77771SOL    HW235211  13.725  13.732  12.104
77772SOL     OW35212   1.452   3.003  14.805
77772SOL    HW135213   1.418   3.091  14.821
77772SOL    HW235214   1.513   2.987   0.006
77773SOL     OW35215  10.686   2.974   1.350
77773SOL    HW135216  10.624   2.963   1.422
77773SOL    HW235217  10.718   3.064   1.359
77774SOL     OW35218   5.121   0.679  13.464
77774SOL    HW135219   5.134   0.663  13.557
77774SOL    HW235220   5.030   0.655  13.448
77775SOL     OW35221  12.818   5.303   7.763
77775SOL    HW135222  12.800   5.243   7.835
77775SOL    HW235223  12.769   5.267   7.689
77776SOL     OW35224   8.918   1.065   5.562
77776SOL    HW135225   8.872   1.134   5.610
77776SOL    HW235226   9.004   1.103   5.543
77777SOL     OW35227   6.711  14.299  11.110
77777SOL    HW135228   6.654  14.296  11.186
77777SOL    HW235229   6.656  14.269  11.037
77778SOL     OW35230   5.045   0.160  12.450
77778SOL    HW135231   5.012   0.249  12.438
77778SOL    HW235232   4.985   0.105  12.399
77779SOL     OW35233   5.446   2.966   5.077
77779SOL    HW135234   5.511   2.897   5.061
77779SOL    HW235235   5.388   2.962   5.001
77780SOL     OW35236   4.056   6.811   0.543
77780SOL    HW135237   4.138   6.847   0.578
77780SOL    HW235238   4.074   6.719   0.529
77781SOL     OW35239   5.094  11.446   6.185
77781SOL    HW135240   5.077  11.367   6.133
77781SOL    HW235241   5.188  11.461   6.176
77782SOL     OW35242  12.246   9.052   3.662
77782SOL    HW135243  12.294   9.063   3.580
77782SOL    HW235244  12.312   9.025   3.726
77783SOL     OW35245  10.545   6.978   2.529
77783SOL    HW135246  10.634   6.948   2.546
77783SOL    HW235247  10.551   7.074   2.536
77784SOL     OW35248   7.471   9.626   8.686
77784SOL    HW135249   7.464   9.566   8.760
77784SOL    HW235250   7.442   9.574   8.610
77785SOL     OW35251   9.874   8.624  13.667
77785SOL    HW135252   9.875   8.535  13.704
77785SOL    HW235253   9.787   8.633  13.629
77786SOL     OW35254  13.997   0.901  12.563
77786SOL    HW135255  14.056   0.879  12.491
77786SOL    HW235256  14.020   0.839  12.633
77787SOL     OW35257   9.328  10.160   4.959
77787SOL    HW135258   9.262  10.149   4.890
77787SOL    HW235259   9.361  10.071   4.975
77788SOL     OW35260  12.502   9.741   1.007
77788SOL    HW135261  12.457   9.814   1.048
77788SOL    HW235262  12.511   9.676   1.077
77789SOL     OW35263   7.354   9.511   4.286
77789SOL    HW135264   7.421   9.540   4.224
77789SOL    HW235265   7.286   9.471   4.231
77790SOL     OW35266   7.907   5.005   0.924
77790SOL    HW135267   7.940   5.006   1.013
77790SOL    HW235268   7.983   5.023   0.869
77791SOL     OW35269   0.509   1.039   2.331
77791SOL    HW135270   0.419   1.035   2.364
77791SOL    HW235271   0.563   1.006   2.403
77792SOL     OW35272   4.899   7.364   4.869
77792SOL    HW135273   4.895   7.431   4.800
77792SOL    HW235274   4.948   7.292   4.830
77793SOL     OW35275   6.174   1.894   1.136
77793SOL    HW135276   6.238   1.911   1.206
77793SOL    HW235277   6.145   1.981   1.109
77794SOL     OW35278  14.621   0.095   2.706
77794SOL    HW135279  14.687   0.062   2.767
77794SOL    HW235280  14.623   0.190   2.719
77795SOL     OW35281   4.815   2.271   2.268
77795SOL    HW135282   4.737   2.241   2.314
77795SOL    HW235283   4.875   2.197   2.271
77796SOL     OW35284  13.822   9.094   6.045
77796SOL    HW135285  13.849   9.138   6.125
77796SOL    HW235286  13.774   9.161   5.996
77797SOL     OW35287   5.058  10.574   5.167
77797SOL    HW135288   5.153  10.561   5.161
77797SOL    HW235289   5.024  10.542   5.084
77798SOL     OW35290  10.998   0.967  12.607
77798SOL    HW135291  10.912   0.971  12.649
77798SOL    HW235292  10.981   0.933  12.520
77799SOL     OW35293   7.947   4.093   9.304
77799SOL    HW135294   7.909   4.010   9.277
77799SOL    HW235295   7.927   4.100   9.397
77800SOL     OW35296  13.369   3.009   6.724
77800SOL    HW135297  13.288   2.983   6.680
77800SOL    HW235298  13.368   3.105   6.720
77801SOL     OW35299  13.345   5.412  10.004
77801SOL    HW135300  13.275   5.478  10.006
77801SOL    HW235301  13.408   5.444  10.069
77802SOL     OW35302   0.542   5.254  10.303
77802SOL    HW135303   0.521   5.331  10.357
77802SOL    HW235304   0.627   5.276  10.263
77803SOL     OW35305   4.079   0.553  12.237
77803SOL    HW135306   4.086   0.502  12.318
77803SOL    HW235307   4.151   0.616  12.242
77804SOL     OW35308   5.050  13.554   2.983
77804SOL    HW135309   5.115  13.543   2.913
77804SOL    HW235310   5.023  13.645   2.977
77805SOL     OW35311   6.625   6.578  11.097
77805SOL    HW135312   6.604   6.494  11.057
77805SOL    HW235313   6.719   6.591  11.079
77806SOL     OW35314   3.168   0.035  12.349
77806SOL    HW135315   3.115  14.856  12.289
77806SOL    HW235316   3.146   0.001  12.436
77807SOL     OW35317   5.615   7.279  12.889
77807SOL    HW135318   5.669   7.357  12.900
77807SOL    HW235319   5.611   7.265  12.794
77808SOL     OW35320   4.962   6.395   1.666
77808SOL    HW135321   4.971   6.349   1.583
77808SOL    HW235322   4.979   6.329   1.732
77809SOL     OW35323   4.715   8.483   0.523
77809SOL    HW135324   4.654   8.410   0.521
77809SOL    HW235325   4.797   8.445   0.554
77810SOL     OW35326   2.548   1.817   0.511
77810SOL    HW135327   2.565   1.745   0.572
77810SOL    HW235328   2.476   1.786   0.457
77811SOL     OW35329   3.864  12.583   0.799
77811SOL    HW135330   3.887  12.674   0.816
77811SOL    HW235331   3.936  12.548   0.747
77812SOL     OW35332   1.901   4.587  14.537
77812SOL    HW135333   1.843   4.512  14.545
77812SOL    HW235334   1.843   4.661  14.519
77813SOL     OW35335   6.109   3.367  13.640
77813SOL    HW135336   6.013   3.369  13.646
77813SOL    HW235337   6.128   3.405  13.555
77814SOL     OW35338  12.865   6.952   1.112
77814SOL    HW135339  12.881   7.028   1.055
77814SOL    HW235340  12.769   6.943   1.112
77815SOL     OW35341   8.009  10.214   4.517
77815SOL    HW135342   7.997  10.212   4.422
77815SOL    HW235343   7.921  10.218   4.552
77816SOL     OW35344  12.068   7.683   8.335
77816SOL    HW135345  12.163   7.677   8.329
77816SOL    HW235346  12.037   7.593   8.325
77817SOL     OW35347   4.420  14.297  13.809
77817SOL    HW135348   4.435  14.376  13.757
77817SOL    HW235349   4.483  14.303  13.881
77818SOL     OW35350   4.499   1.467   9.177
77818SOL    HW135351   4.435   1.439   9.242
77818SOL    HW235352   4.490   1.563   9.175
77819SOL     OW35353   1.953  11.379  12.296
77819SOL    HW135354   2.000  11.403  12.375
77819SOL    HW235355   1.919  11.291  12.313
77820SOL     OW35356   9.796  10.731   0.676
77820SOL    HW135357   9.806  10.662   0.610
77820SOL    HW235358   9.858  10.799   0.649
77821SOL     OW35359  14.409  10.067   7.055
77821SOL    HW135360  14.405  10.071   6.959
77821SOL    HW235361  14.410  10.158   7.083
77822SOL     OW35362  14.660  14.708   4.355
77822SOL    HW135363  14.701  14.778   4.305
77822SOL    HW235364  14.585  14.749   4.397
77823SOL     OW35365   5.956   3.326   8.252
77823SOL    HW135366   6.014   3.330   8.328
77823SOL    HW235367   5.894   3.255   8.272
77824SOL     OW35368   7.467   8.579   5.902
77824SOL    HW135369   7.552   8.583   5.947
77824SOL    HW235370   7.450   8.485   5.893
77825SOL     OW35371  14.529   1.137   8.714
77825SOL    HW135372  14.450   1.090   8.686
77825SOL    HW235373  14.507   1.170   8.800
77826SOL     OW35374   8.545  12.258   7.002
77826SOL    HW135375   8.552  12.296   7.090
77826SOL    HW235376   8.604  12.312   6.949
77827SOL     OW35377  13.584   6.184   6.525
77827SOL    HW135378  13.650   6.243   6.562
77827SOL    HW235379  13.517   6.243   6.490
77828SOL     OW35380  10.269   3.945  13.399
77828SOL    HW135381  10.364   3.957  13.397
77828SOL    HW235382  10.249   3.933  13.492
77829SOL     OW35383   7.028   8.643   6.040
77829SOL    HW135384   7.064   8.654   5.952
77829SOL    HW235385   6.937   8.615   6.025
77830SOL     OW35386   5.526   1.851  14.760
77830SOL    HW135387   5.462   1.905  14.713
77830SOL    HW235388   5.473   1.797  14.819
77831SOL     OW35389   0.538   0.594   7.554
77831SOL    HW135390   0.454   0.625   7.588
77831SOL    HW235391   0.552   0.511   7.600
77832SOL     OW35392   4.519  11.936   0.014
77832SOL    HW135393   4.510  11.893   0.099
77832SOL    HW235394   4.556  11.869  14.828
77833SOL     OW35395   5.214   9.290  14.651
77833SOL    HW135396   5.216   9.313  14.744
77833SOL    HW235397   5.144   9.345  14.614
77834SOL     OW35398  14.490  14.721   1.038
77834SOL    HW135399  14.400  14.692   1.024
77834SOL    HW235400  14.482  14.803   1.086
77835SOL     OW35401   4.858   3.216   8.695
77835SOL    HW135402   4.824   3.147   8.638
77835SOL    HW235403   4.853   3.296   8.642
77836SOL     OW35404   6.274   8.807   0.527
77836SOL    HW135405   6.306   8.897   0.521
77836SOL    HW235406   6.310   8.763   0.450
77837SOL     OW35407  12.151  10.394   0.292
77837SOL    HW135408  12.156  10.461   0.361
77837SOL    HW235409  12.170  10.312   0.337
77838SOL     OW35410   4.562  14.399   6.984
77838SOL    HW135411   4.496  14.417   6.918
77838SOL    HW235412   4.551  14.470   7.048
77839SOL     OW35413   3.645   8.872   1.792
77839SOL    HW135414   3.677   8.908   1.709
77839SOL    HW235415   3.614   8.784   1.770
77840SOL     OW35416  10.362  13.265   0.884
77840SOL    HW135417  10.269  13.243   0.892
77840SOL    HW235418  10.407  13.196   0.932
77841SOL     OW35419   0.624   4.477   2.429
77841SOL    HW135420   0.564   4.409   2.399
77841SOL    HW235421   0.679   4.496   2.352
77842SOL     OW35422  11.776   7.490   3.448
77842SOL    HW135423  11.689   7.528   3.456
77842SOL    HW235424  11.763   7.410   3.397
77843SOL     OW35425   9.200   0.663   7.136
77843SOL    HW135426   9.233   0.635   7.050
77843SOL    HW235427   9.268   0.721   7.170
77844SOL     OW35428  10.555  10.597   4.223
77844SOL    HW135429  10.639  10.617   4.182
77844SOL    HW235430  10.527  10.680   4.263
77845SOL     OW35431   3.401  14.410   3.867
77845SOL    HW135432   3.419  14.486   3.812
77845SOL    HW235433   3.356  14.348   3.809
77846SOL     OW35434   0.420   4.105   5.463
77846SOL    HW135435   0.460   4.189   5.438
77846SOL    HW235436   0.331   4.128   5.490
77847SOL     OW35437   2.774   2.662   1.327
77847SOL    HW135438   2.846   2.712   1.290
77847SOL    HW235439   2.759   2.701   1.413
77848SOL     OW35440  10.300   0.527  13.622
77848SOL    HW135441  10.239   0.453  13.614
77848SOL    HW235442  10.370   0.506  13.560
77849SOL     OW35443   6.521  12.306   8.703
77849SOL    HW135444   6.594  12.246   8.686
77849SOL    HW235445   6.510  12.353   8.620
77850SOL     OW35446   0.681   8.165   1.829
77850SOL    HW135447   0.710   8.103   1.761
77850SOL    HW235448   0.661   8.109   1.905
77851SOL     OW35449  13.746   3.636  13.769
77851SOL    HW135450  13.696   3.717  13.760
77851SOL    HW235451  13.693   3.582  13.829
77852SOL     OW35452   9.188  11.445   7.329
77852SOL    HW135453   9.229  11.359   7.330
77852SOL    HW235454   9.161  11.458   7.238
77853SOL     OW35455   1.164   7.064   9.624
77853SOL    HW135456   1.198   7.139   9.674
77853SOL    HW235457   1.145   6.998   9.690
77854SOL     OW35458   7.891  12.642  13.633
77854SOL    HW135459   7.805  12.618  13.597
77854SOL    HW235460   7.889  12.610  13.723
77855SOL     OW35461  13.711  11.084  13.399
77855SOL    HW135462  13.765  11.160  13.419
77855SOL    HW235463  13.621  11.118  13.402
77856SOL     OW35464   8.436  10.459   3.720
77856SOL    HW135465   8.398  10.404   3.652
77856SOL    HW235466   8.505  10.406   3.758
77857SOL     OW35467   0.065   2.211   8.836
77857SOL    HW135468   0.113   2.233   8.916
77857SOL    HW235469   0.018   2.292   8.813
77858SOL     OW35470  13.501   2.661   8.336
77858SOL    HW135471  13.503   2.568   8.356
77858SOL    HW235472  13.505   2.704   8.421
77859SOL     OW35473   3.459  13.381   3.216
77859SOL    HW135474   3.425  13.434   3.288
77859SOL    HW235475   3.382  13.359   3.164
77860SOL     OW35476   7.409   5.247  11.377
77860SOL    HW135477   7.386   5.331  11.337
77860SOL    HW235478   7.491   5.223  11.335
77861SOL     OW35479   2.464   1.948   9.708
77861SOL    HW135480   2.552   1.983   9.689
77861SOL    HW235481   2.458   1.950   9.803
77862SOL     OW35482   1.530   3.803   4.668
77862SOL    HW135483   1.466   3.866   4.634
77862SOL    HW235484   1.612   3.852   4.674
77863SOL     OW35485   5.631  13.382   4.965
77863SOL    HW135486   5.627  13.444   4.892
77863SOL    HW235487   5.595  13.430   5.040
77864SOL     OW35488  10.176   4.602   9.099
77864SOL    HW135489  10.158   4.663   9.028
77864SOL    HW235490  10.204   4.522   9.055
77865SOL     OW35491   2.518  13.544  10.351
77865SOL    HW135492   2.530  13.584  10.265
77865SOL    HW235493   2.585  13.475  10.355
77866SOL     OW35494   9.554  10.105  14.346
77866SOL    HW135495   9.489  10.161  14.389
77866SOL    HW235496   9.503  10.047  14.290
77867SOL     OW35497  13.415   6.224   5.677
77867SOL    HW135498  13.358   6.230   5.755
77867SOL    HW235499  13.504   6.230   5.712
77868SOL     OW35500   5.669   3.610   9.591
77868SOL    HW135501   5.746   3.658   9.622
77868SOL    HW235502   5.669   3.529   9.642
77869SOL     OW35503   0.324  11.100  10.816
77869SOL    HW135504   0.377  11.066  10.888
77869SOL    HW235505   0.258  11.033  10.801
77870SOL     OW35506   6.551   4.605  13.161
77870SOL    HW135507   6.473   4.558  13.131
77870SOL    HW235508   6.516   4.674  13.218
77871SOL     OW35509   2.240   1.162   2.653
77871SOL    HW135510   2.242   1.241   2.598
77871SOL    HW235511   2.327   1.157   2.691
77872SOL     OW35512   9.055   9.443  13.002
77872SOL    HW135513   8.989   9.508  12.976
77872SOL    HW235514   9.009   9.360  13.001
77873SOL     OW35515   5.392   6.653   3.376
77873SOL    HW135516   5.445   6.581   3.410
77873SOL    HW235517   5.316   6.655   3.434
77874SOL     OW35518   8.362   5.070   3.273
77874SOL    HW135519   8.423   5.016   3.222
77874SOL    HW235520   8.331   5.136   3.212
77875SOL     OW35521   0.680   5.990  12.219
77875SOL    HW135522   0.608   5.962  12.275
77875SOL    HW235523   0.759   5.967  12.268
77876SOL     OW35524   0.369   3.110   3.723
77876SOL    HW135525   0.378   3.202   3.746
77876SOL    HW235526   0.405   3.063   3.797
77877SOL     OW35527   6.674   5.506  12.131
77877SOL    HW135528   6.763   5.482  12.105
77877SOL    HW235529   6.630   5.527  12.049
77878SOL     OW35530   0.797  11.877  13.830
77878SOL    HW135531   0.848  11.828  13.765
77878SOL    HW235532   0.862  11.903  13.896
77879SOL     OW35533   4.388   1.331   9.403
77879SOL    HW135534   4.420   1.410   9.446
77879SOL    HW235535   4.401   1.261   9.468
77880SOL     OW35536  10.415   7.192   1.901
77880SOL    HW135537  10.345   7.127   1.895
77880SOL    HW235538  10.496   7.141   1.891
77881SOL     OW35539   7.305   9.799   5.359
77881SOL    HW135540   7.302   9.725   5.299
77881SOL    HW235541   7.352   9.766   5.435
77882SOL     OW35542  13.874  12.110   0.709
77882SOL    HW135543  13.902  12.030   0.754
77882SOL    HW235544  13.805  12.146   0.763
77883SOL     OW35545   7.695   6.968  11.091
77883SOL    HW135546   7.627   7.033  11.107
77883SOL    HW235547   7.716   6.978  10.998
77884SOL     OW35548   0.283   1.318   9.234
77884SOL    HW135549   0.359   1.327   9.291
77884SOL    HW235550   0.280   1.401   9.185
77885SOL     OW35551   2.895   4.962   6.227
77885SOL    HW135552   2.861   4.875   6.250
77885SOL    HW235553   2.965   4.978   6.290
77886SOL     OW35554   8.860   7.039   5.154
77886SOL    HW135555   8.936   6.983   5.140
77886SOL    HW235556   8.848   7.039   5.249
77887SOL     OW35557  12.395   6.941   2.599
77887SOL    HW135558  12.475   6.933   2.547
77887SOL    HW235559  12.327   6.961   2.535
77888SOL     OW35560   2.098   3.895   9.895
77888SOL    HW135561   2.020   3.948   9.911
77888SOL    HW235562   2.079   3.850   9.812
77889SOL     OW35563   0.563   6.693   1.952
77889SOL    HW135564   0.518   6.615   1.921
77889SOL    HW235565   0.607   6.728   1.874
77890SOL     OW35566  14.061  14.780   7.353
77890SOL    HW135567  13.976  14.769   7.309
77890SOL    HW235568  14.038  14.816   7.439
77891SOL     OW35569  10.864   9.389   5.691
77891SOL    HW135570  10.925   9.324   5.724
77891SOL    HW235571  10.918   9.468   5.677
77892SOL     OW35572   8.173   6.382   9.210
77892SOL    HW135573   8.082   6.413   9.203
77892SOL    HW235574   8.220   6.431   9.143
77893SOL     OW35575   0.215   9.740   2.553
77893SOL    HW135576   0.298   9.728   2.600
77893SOL    HW235577   0.158   9.782   2.617
77894SOL     OW35578   5.756  13.349  12.804
77894SOL    HW135579   5.850  13.333  12.811
77894SOL    HW235580   5.719  13.308  12.882
77895SOL     OW35581   3.889   5.506   8.075
77895SOL    HW135582   3.804   5.463   8.069
77895SOL    HW235583   3.947   5.441   8.116
77896SOL     OW35584   9.478   9.627   5.285
77896SOL    HW135585   9.564   9.606   5.249
77896SOL    HW235586   9.491   9.627   5.380
77897SOL     OW35587  11.914   2.322   4.508
77897SOL    HW135588  11.828   2.293   4.478
77897SOL    HW235589  11.895   2.391   4.572
77898SOL     OW35590  12.675  12.417  12.572
77898SOL    HW135591  12.740  12.420  12.643
77898SOL    HW235592  12.726  12.396  12.494
77899SOL     OW35593   6.738  11.331   6.745
77899SOL    HW135594   6.780  11.248   6.770
77899SOL    HW235595   6.697  11.363   6.825
77900SOL     OW35596  10.451   0.216  11.290
77900SOL    HW135597  10.427   0.309  11.287
77900SOL    HW235598  10.502   0.207  11.370
77901SOL     OW35599   9.764   5.285   2.731
77901SOL    HW135600   9.855   5.277   2.702
77901SOL    HW235601   9.747   5.205   2.780
77902SOL     OW35602   2.363   7.244  12.716
77902SOL    HW135603   2.309   7.257  12.638
77902SOL    HW235604   2.339   7.157  12.748
77903SOL     OW35605  10.298   9.096   4.474
77903SOL    HW135606  10.266   9.179   4.439
77903SOL    HW235607  10.233   9.032   4.447
77904SOL     OW35608   3.497  12.246   2.051
77904SOL    HW135609   3.505  12.154   2.027
77904SOL    HW235610   3.553  12.256   2.128
77905SOL     OW35611   0.356   5.692   0.639
77905SOL    HW135612   0.372   5.687   0.734
77905SOL    HW235613   0.301   5.770   0.628
77906SOL     OW35614  10.421  14.165   5.617
77906SOL    HW135615  10.488  14.147   5.683
77906SOL    HW235616  10.380  14.246   5.648
77907SOL     OW35617   8.825   3.802  11.543
77907SOL    HW135618   8.899   3.806  11.604
77907SOL    HW235619   8.831   3.715  11.504
77908SOL     OW35620   6.763  13.925   0.776
77908SOL    HW135621   6.858  13.919   0.775
77908SOL    HW235622   6.744  13.988   0.845
77909SOL     OW35623  12.846   7.743   3.809
77909SOL    HW135624  12.827   7.834   3.834
77909SOL    HW235625  12.770   7.715   3.758
77910SOL     OW35626   4.595   6.001   1.997
77910SOL    HW135627   4.564   5.971   1.912
77910SOL    HW235628   4.664   5.939   2.021
77911SOL     OW35629   1.863   6.656   0.799
77911SOL    HW135630   1.862   6.618   0.887
77911SOL    HW235631   1.950   6.636   0.766
77912SOL     OW35632   6.422   2.354  11.773
77912SOL    HW135633   6.506   2.400  11.767
77912SOL    HW235634   6.416   2.304  11.692
77913SOL     OW35635  10.262  11.790   7.993
77913SOL    HW135636  10.205  11.864   7.973
77913SOL    HW235637  10.349  11.817   7.962
77914SOL     OW35638   7.895   1.422  12.602
77914SOL    HW135639   7.870   1.444  12.691
77914SOL    HW235640   7.814   1.433  12.551
77915SOL     OW35641   0.079   8.275   7.681
77915SOL    HW135642   0.037   8.355   7.650
77915SOL    HW235643   0.111   8.298   7.769
77916SOL     OW35644   9.514   2.219   0.142
77916SOL    HW135645   9.564   2.169   0.078
77916SOL    HW235646   9.528   2.310   0.118
77917SOL     OW35647   8.359   6.691   5.154
77917SOL    HW135648   8.373   6.625   5.221
77917SOL    HW235649   8.394   6.653   5.074
77918SOL     OW35650  14.084   0.202   0.062
77918SOL    HW135651  14.082   0.151   0.143
77918SOL    HW235652  14.142   0.275   0.081
77919SOL     OW35653   7.406   3.634   3.200
77919SOL    HW135654   7.394   3.723   3.234
77919SOL    HW235655   7.404   3.644   3.104
77920SOL     OW35656   6.411  11.495   3.390
77920SOL    HW135657   6.486  11.436   3.381
77920SOL    HW235658   6.441  11.578   3.355
77921SOL     OW35659   7.792   7.612   7.374
77921SOL    HW135660   7.807   7.618   7.280
77921SOL    HW235661   7.817   7.522   7.397
77922SOL     OW35662   9.762  13.651  12.810
77922SOL    HW135663   9.784  13.719  12.874
77922SOL    HW235664   9.686  13.607  12.847
77923SOL     OW35665   0.899   0.270   3.349
77923SOL    HW135666   0.853   0.187   3.360
77923SOL    HW235667   0.856   0.330   3.410
77924SOL     OW35668   4.917   0.955   7.737
77924SOL    HW135669   4.915   0.992   7.824
77924SOL    HW235670   4.946   0.865   7.750
77925SOL     OW35671   5.771  12.434  10.995
77925SOL    HW135672   5.705  12.495  11.029
77925SOL    HW235673   5.735  12.348  11.014
77926SOL     OW35674   0.163   2.702   1.163
77926SOL    HW135675   0.096   2.765   1.139
77926SOL    HW235676   0.239   2.725   1.110
77927SOL     OW35677   3.085   4.465  13.983
77927SOL    HW135678   3.169   4.500  13.954
77927SOL    HW235679   3.108   4.399  14.049
77928SOL     OW35680   0.962  13.005   6.787
77928SOL    HW135681   0.959  12.935   6.722
77928SOL    HW235682   0.887  13.060   6.767
77929SOL     OW35683   3.394   7.768  12.894
77929SOL    HW135684   3.387   7.825  12.970
77929SOL    HW235685   3.323   7.796  12.836
77930SOL     OW35686  11.521   8.599   5.347
77930SOL    HW135687  11.522   8.692   5.370
77930SOL    HW235688  11.610   8.568   5.365
77931SOL     OW35689   1.811   3.066   7.067
77931SOL    HW135690   1.740   3.110   7.019
77931SOL    HW235691   1.890   3.086   7.017
77932SOL     OW35692  12.844   2.798   6.709
77932SOL    HW135693  12.789   2.733   6.751
77932SOL    HW235694  12.789   2.876   6.703
77933SOL     OW35695   6.609   3.297   2.597
77933SOL    HW135696   6.647   3.383   2.615
77933SOL    HW235697   6.656   3.237   2.654
77934SOL     OW35698  13.788  13.043   6.685
77934SOL    HW135699  13.787  13.094   6.766
77934SOL    HW235700  13.856  12.978   6.698
77935SOL     OW35701  14.576  11.854   6.343
77935SOL    HW135702  14.665  11.822   6.361
77935SOL    HW235703  14.519  11.780   6.364
77936SOL     OW35704  13.009   2.362  12.892
77936SOL    HW135705  13.026   2.446  12.934
77936SOL    HW235706  13.084   2.307  12.915
77937SOL     OW35707  14.120  13.961  10.988
77937SOL    HW135708  14.136  13.995  10.900
77937SOL    HW235709  14.035  13.918  10.982
77938SOL     OW35710   7.228   4.078  12.846
77938SOL    HW135711   7.305   4.024  12.833
77938SOL    HW235712   7.263   4.165  12.866
77939SOL     OW35713  11.059  12.788   4.614
77939SOL    HW135714  11.006  12.712   4.638
77939SOL    HW235715  11.012  12.863   4.651
77940SOL     OW35716   9.133  12.124  13.504
77940SOL    HW135717   9.053  12.083  13.536
77940SOL    HW235718   9.122  12.129  13.409
77941SOL     OW35719   2.771  13.892  14.217
77941SOL    HW135720   2.863  13.878  14.194
77941SOL    HW235721   2.770  13.972  14.269
77942SOL     OW35722   7.657  12.576  11.646
77942SOL    HW135723   7.745  12.552  11.675
77942SOL    HW235724   7.601  12.562  11.723
77943SOL     OW35725   4.080   4.137   4.993
77943SOL    HW135726   4.104   4.212   4.938
77943SOL    HW235727   4.086   4.169   5.082
77944SOL     OW35728   0.320   6.507  13.140
77944SOL    HW135729   0.375   6.461  13.204
77944SOL    HW235730   0.364   6.492  13.056
77945SOL     OW35731   6.770   2.037  13.011
77945SOL    HW135732   6.726   2.025  13.095
77945SOL    HW235733   6.787   2.131  13.006
77946SOL     OW35734  14.635   2.997  14.313
77946SOL    HW135735  14.585   2.976  14.393
77946SOL    HW235736  14.585   2.955  14.243
77947SOL     OW35737   0.732   4.675   9.000
77947SOL    HW135738   0.741   4.654   8.907
77947SOL    HW235739   0.671   4.749   9.002
77948SOL     OW35740   4.314  13.058   8.357
77948SOL    HW135741   4.372  13.048   8.433
77948SOL    HW235742   4.303  12.969   8.323
77949SOL     OW35743   3.634   9.679   8.259
77949SOL    HW135744   3.589   9.749   8.211
77949SOL    HW235745   3.706   9.723   8.303
77950SOL     OW35746  12.507  13.551   8.485
77950SOL    HW135747  12.471  13.468   8.454
77950SOL    HW235748  12.438  13.588   8.540
77951SOL     OW35749   5.007   2.028   6.803
77951SOL    HW135750   4.984   1.935   6.804
77951SOL    HW235751   4.974   2.062   6.886
77952SOL     OW35752  12.256   6.503   3.267
77952SOL    HW135753  12.176   6.554   3.256
77952SOL    HW235754  12.225   6.413   3.280
77953SOL     OW35755   3.542  14.608   2.884
77953SOL    HW135756   3.609  14.564   2.937
77953SOL    HW235757   3.581  14.694   2.865
77954SOL     OW35758   8.186   6.571  13.282
77954SOL    HW135759   8.149   6.635  13.221
77954SOL    HW235760   8.273   6.606  13.303
77955SOL     OW35761   2.571   3.887  10.358
77955SOL    HW135762   2.565   3.833  10.279
77955SOL    HW235763   2.630   3.838  10.416
77956SOL     OW35764   0.906   6.035   4.952
77956SOL    HW135765   0.989   6.006   4.915
77956SOL    HW235766   0.884   6.114   4.903
77957SOL     OW35767   6.404  10.340   8.053
77957SOL    HW135768   6.315  10.350   8.088
77957SOL    HW235769   6.405  10.393   7.974
77958SOL     OW35770   3.562   2.261   2.516
77958SOL    HW135771   3.627   2.217   2.570
77958SOL    HW235772   3.495   2.291   2.579
77959SOL     OW35773   8.508   0.174   1.966
77959SOL    HW135774   8.533   0.087   1.935
77959SOL    HW235775   8.441   0.158   2.031
77960SOL     OW35776   8.562   0.490   3.869
77960SOL    HW135777   8.542   0.541   3.790
77960SOL    HW235778   8.648   0.522   3.897
77961SOL     OW35779   4.117  11.769  10.142
77961SOL    HW135780   4.041  11.738  10.191
77961SOL    HW235781   4.134  11.857  10.177
77962SOL     OW35782   0.496   2.779   2.460
77962SOL    HW135783   0.431   2.709   2.460
77962SOL    HW235784   0.486   2.821   2.546
77963SOL     OW35785   6.868   6.813   0.153
77963SOL    HW135786   6.922   6.735   0.137
77963SOL    HW235787   6.927   6.875   0.194
77964SOL     OW35788  11.068   2.863   6.205
77964SOL    HW135789  11.010   2.793   6.234
77964SOL    HW235790  11.045   2.877   6.113
77965SOL     OW35791   0.436   2.679   6.323
77965SOL    HW135792   0.386   2.660   6.244
77965SOL    HW235793   0.524   2.645   6.305
77966SOL     OW35794   3.024   4.385   7.081
77966SOL    HW135795   3.031   4.380   6.985
77966SOL    HW235796   2.985   4.301   7.106
77967SOL     OW35797   7.796  11.324   5.145
77967SOL    HW135798   7.775  11.345   5.236
77967SOL    HW235799   7.868  11.384   5.122
77968SOL     OW35800  12.465   0.922  10.201
77968SOL    HW135801  12.471   0.856  10.270
77968SOL    HW235802  12.540   0.904  10.144
77969SOL     OW35803  14.015   3.662  13.547
77969SOL    HW135804  14.051   3.634  13.631
77969SOL    HW235805  13.998   3.581  13.500
77970SOL     OW35806   4.854   6.585   6.360
77970SOL    HW135807   4.862   6.503   6.310
77970SOL    HW235808   4.782   6.569   6.421
77971SOL     OW35809  13.704   5.347   7.381
77971SOL    HW135810  13.785   5.398   7.377
77971SOL    HW235811  13.726   5.273   7.438
77972SOL     OW35812  14.501  12.371  10.226
77972SOL    HW135813  14.593  12.397  10.235
77972SOL    HW235814  14.502  12.301  10.161
77973SOL     OW35815   5.021   8.644   9.374
77973SOL    HW135816   5.108   8.605   9.386
77973SOL    HW235817   5.025   8.727   9.421
77974SOL     OW35818  14.818   9.721   9.373
77974SOL    HW135819  14.728   9.741   9.400
77974SOL    HW235820  14.846   9.800   9.327
77975SOL     OW35821   8.007   3.552  12.487
77975SOL    HW135822   8.015   3.634  12.437
77975SOL    HW235823   8.094   3.511  12.480
77976SOL     OW35824   1.857  11.975  10.354
77976SOL    HW135825   1.883  12.007  10.440
77976SOL    HW235826   1.926  12.005  10.295
77977SOL     OW35827   5.349  11.181  13.086
77977SOL    HW135828   5.336  11.231  13.167
77977SOL    HW235829   5.309  11.235  13.018
77978SOL     OW35830   3.244  12.117   3.328
77978SOL    HW135831   3.202  12.203   3.328
77978SOL    HW235832   3.336  12.135   3.348
77979SOL     OW35833  10.864  13.827  14.002
77979SOL    HW135834  10.837  13.820  13.910
77979SOL    HW235835  10.903  13.742  14.023
77980SOL     OW35836  11.507  12.259   4.642
77980SOL    HW135837  11.512  12.248   4.547
77980SOL    HW235838  11.448  12.333   4.655
77981SOL     OW35839   3.168   7.847  11.664
77981SOL    HW135840   3.076   7.852  11.641
77981SOL    HW235841   3.201   7.936  11.649
77982SOL     OW35842  12.527   0.057   6.781
77982SOL    HW135843  12.455   0.001   6.809
77982SOL    HW235844  12.600   0.035   6.840
77983SOL     OW35845  12.617   3.315   7.607
77983SOL    HW135846  12.632   3.331   7.700
77983SOL    HW235847  12.575   3.230   7.604
77984SOL     OW35848   2.617   8.328   4.410
77984SOL    HW135849   2.658   8.323   4.496
77984SOL    HW235850   2.600   8.421   4.396
77985SOL     OW35851   5.324   7.002   2.009
77985SOL    HW135852   5.335   7.061   2.084
77985SOL    HW235853   5.413   6.976   1.985
77986SOL     OW35854   6.959   8.684  11.605
77986SOL    HW135855   7.015   8.738  11.549
77986SOL    HW235856   6.932   8.743  11.675
77987SOL     OW35857   1.303   0.302  12.797
77987SOL    HW135858   1.350   0.318  12.715
77987SOL    HW235859   1.238   0.235  12.775
77988SOL     OW35860   4.367   8.938   2.835
77988SOL    HW135861   4.452   8.969   2.802
77988SOL    HW235862   4.390   8.874   2.902
77989SOL     OW35863  11.708   6.467   2.991
77989SOL    HW135864  11.705   6.551   3.037
77989SOL    HW235865  11.798   6.437   3.004
77990SOL     OW35866   2.963   9.332  14.814
77990SOL    HW135867   2.979   9.344   0.037
77990SOL    HW235868   2.871   9.309  14.808
77991SOL     OW35869   5.977  13.549   7.551
77991SOL    HW135870   6.042  13.610   7.516
77991SOL    HW235871   6.012  13.523   7.636
77992SOL     OW35872  12.807   4.744  13.694
77992SOL    HW135873  12.817   4.776  13.604
77992SOL    HW235874  12.840   4.816  13.748
77993SOL     OW35875   3.737   4.089   8.613
77993SOL    HW135876   3.695   4.175   8.609
77993SOL    HW235877   3.774   4.085   8.701
77994SOL     OW35878   8.056   8.073   1.996
77994SOL    HW135879   7.977   8.022   1.980
77994SOL    HW235880   8.127   8.008   1.999
77995SOL     OW35881   9.244   2.718   8.955
77995SOL    HW135882   9.166   2.772   8.948
77995SOL    HW235883   9.316   2.781   8.962
77996SOL     OW35884   9.978   5.391   9.038
77996SOL    HW135885   9.953   5.468   9.088
77996SOL    HW235886   9.997   5.424   8.951
77997SOL     OW35887   7.724   4.616   7.774
77997SOL    HW135888   7.687   4.528   7.779
77997SOL    HW235889   7.651   4.672   7.749
77998SOL     OW35890   9.929   6.549   4.065
77998SOL    HW135891   9.931   6.570   4.159
77998SOL    HW235892  10.004   6.596   4.029
77999SOL     OW35893   1.225   2.748   5.528
77999SOL    HW135894   1.250   2.787   5.444
77999SOL    HW235895   1.302   2.699   5.556
78000SOL     OW35896  14.574   0.449  10.381
78000SOL    HW135897  14.547   0.496  10.460
78000SOL    HW235898  14.614   0.515  10.326
78001SOL     OW35899   5.125   7.917   0.985
78001SOL    HW135900   5.142   7.898   0.893
78001SOL    HW235901   5.090   7.835   1.020
78002SOL     OW35902   3.805  10.892   4.827
78002SOL    HW135903   3.855  10.823   4.873
78002SOL    HW235904   3.793  10.960   4.893
78003SOL     OW35905  12.831   5.636   1.002
78003SOL    HW135906  12.923   5.631   1.028
78003SOL    HW235907  12.785   5.661   1.082
78004SOL     OW35908   3.741   3.193   0.391
78004SOL    HW135909   3.718   3.265   0.449
78004SOL    HW235910   3.725   3.114   0.443
78005SOL     OW35911  12.759  13.408   6.608
78005SOL    HW135912  12.765  13.423   6.514
78005SOL    HW235913  12.819  13.472   6.647
78006SOL     OW35914   4.675   6.922   0.740
78006SOL    HW135915   4.589   6.921   0.781
78006SOL    HW235916   4.684   6.834   0.702
78007SOL     OW35917  11.265  10.712   0.592
78007SOL    HW135918  11.177  10.676   0.584
78007SOL    HW235919  11.281  10.755   0.509
78008SOL     OW35920   0.263   1.467   8.099
78008SOL    HW135921   0.298   1.390   8.144
78008SOL    HW235922   0.279   1.539   8.160
78009SOL     OW35923   3.461  10.500   3.182
78009SOL    HW135924   3.408  10.472   3.256
78009SOL    HW235925   3.398  10.521   3.113
78010SOL     OW35926   8.303  13.423   7.705
78010SOL    HW135927   8.316  13.331   7.683
78010SOL    HW235928   8.263  13.422   7.792
78011SOL     OW35929   0.730   0.147  13.862
78011SOL    HW135930   0.737   0.215  13.930
78011SOL    HW235931   0.646   0.163  13.821
78012SOL     OW35932   8.543  14.405  12.737
78012SOL    HW135933   8.509  14.431  12.822
78012SOL    HW235934   8.549  14.488  12.688
78013SOL     OW35935   1.029   1.252   4.672
78013SOL    HW135936   0.960   1.301   4.717
78013SOL    HW235937   1.108   1.303   4.689
78014SOL     OW35938   0.539   9.678   8.762
78014SOL    HW135939   0.566   9.684   8.671
78014SOL    HW235940   0.528   9.584   8.777
78015SOL     OW35941   1.388   7.108   0.391
78015SOL    HW135942   1.372   7.177   0.327
78015SOL    HW235943   1.369   7.148   0.476
78016SOL     OW35944   1.439  14.555   6.368
78016SOL    HW135945   1.528  14.530   6.342
78016SOL    HW235946   1.386  14.540   6.290
78017SOL     OW35947   9.288  12.054  12.818
78017SOL    HW135948   9.278  12.013  12.904
78017SOL    HW235949   9.219  12.015  12.764
78018SOL     OW35950   9.045  12.527  11.252
78018SOL    HW135951   9.068  12.510  11.343
78018SOL    HW235952   9.012  12.443  11.220
78019SOL     OW35953  11.616   9.059   1.575
78019SOL    HW135954  11.662   8.975   1.571
78019SOL    HW235955  11.620   9.094   1.486
78020SOL     OW35956   2.419   5.378   5.934
78020SOL    HW135957   2.354   5.421   5.880
78020SOL    HW235958   2.374   5.302   5.970
78021SOL     OW35959  10.016  12.437   9.470
78021SOL    HW135960  10.104  12.454   9.501
78021SOL    HW235961   9.998  12.347   9.497
78022SOL     OW35962  13.702   6.412   2.946
78022SOL    HW135963  13.758   6.341   2.916
78022SOL    HW235964  13.760   6.488   2.950
78023SOL     OW35965   4.942   8.188  13.146
78023SOL    HW135966   4.919   8.277  13.174
78023SOL    HW235967   4.977   8.146  13.225
78024SOL     OW35968   8.850  10.106   9.234
78024SOL    HW135969   8.939  10.079   9.213
78024SOL    HW235970   8.860  10.185   9.288
78025SOL     OW35971  11.785  10.106   7.818
78025SOL    HW135972  11.762  10.014   7.804
78025SOL    HW235973  11.829  10.132   7.737
78026SOL     OW35974  13.218   7.170   6.340
78026SOL    HW135975  13.269   7.210   6.411
78026SOL    HW235976  13.131   7.156   6.378
78027SOL     OW35977   0.184   3.226   8.863
78027SOL    HW135978   0.095   3.221   8.898
78027SOL    HW235979   0.183   3.303   8.805
78028SOL     OW35980  12.161  10.824   3.309
78028SOL    HW135981  12.252  10.855   3.310
78028SOL    HW235982  12.167  10.735   3.274
78029SOL     OW35983   4.924  13.004   4.842
78029SOL    HW135984   4.880  12.948   4.778
78029SOL    HW235985   4.859  13.069   4.867
78030SOL     OW35986   8.503  14.611  10.437
78030SOL    HW135987   8.533  14.702  10.432
78030SOL    HW235988   8.444  14.601  10.362
78031SOL     OW35989   5.251  13.362   4.242
78031SOL    HW135990   5.187  13.311   4.292
78031SOL    HW235991   5.300  13.411   4.307
78032SOL     OW35992  12.706  12.637   4.813
78032SOL    HW135993  12.741  12.559   4.856
78032SOL    HW235994  12.627  12.606   4.769
78033SOL     OW35995   7.684   7.579   9.882
78033SOL    HW135996   7.620   7.527   9.834
78033SOL    HW235997   7.684   7.543   9.970
78034SOL     OW35998   9.320   1.525   9.602
78034SOL    HW135999   9.401   1.486   9.568
78034SOL    HW236000   9.264   1.533   9.525
78035SOL     OW36001  13.615   7.425  13.700
78035SOL    HW136002  13.685   7.407  13.762
78035SOL    HW236003  13.659   7.427  13.614
78036SOL     OW36004  13.964  14.377  14.104
78036SOL    HW136005  13.959  14.284  14.125
78036SOL    HW236006  13.878  14.397  14.066
78037SOL     OW36007  10.365   7.889   2.852
78037SOL    HW136008  10.325   7.912   2.936
78037SOL    HW236009  10.292   7.885   2.790
78038SOL     OW36010  10.941   6.582   3.824
78038SOL    HW136011  10.949   6.660   3.880
78038SOL    HW236012  10.865   6.599   3.769
78039SOL     OW36013   5.388   1.578   3.735
78039SOL    HW136014   5.338   1.509   3.692
78039SOL    HW236015   5.395   1.550   3.826
78040SOL     OW36016   0.793  11.029   6.250
78040SOL    HW136017   0.854  11.076   6.307
78040SOL    HW236018   0.790  10.940   6.286
78041SOL     OW36019   9.372   3.168   3.851
78041SOL    HW136020   9.279   3.188   3.847
78041SOL    HW236021   9.382   3.115   3.930
78042SOL     OW36022  14.213   3.940  12.513
78042SOL    HW136023  14.185   4.029  12.492
78042SOL    HW236024  14.132   3.896  12.540
78043SOL     OW36025   8.036  11.638   1.805
78043SOL    HW136026   8.031  11.614   1.712
78043SOL    HW236027   8.053  11.555   1.849
78044SOL     OW36028   2.010   5.649   7.574
78044SOL    HW136029   2.049   5.715   7.516
78044SOL    HW236030   2.013   5.568   7.523
78045SOL     OW36031   7.606   8.255  10.548
78045SOL    HW136032   7.559   8.257  10.632
78045SOL    HW236033   7.539   8.275  10.483
78046SOL     OW36034  10.298  10.728   8.029
78046SOL    HW136035  10.261  10.697   7.947
78046SOL    HW236036  10.227  10.718   8.093
78047SOL     OW36037  11.327   9.258   8.134
78047SOL    HW136038  11.414   9.243   8.098
78047SOL    HW236039  11.277   9.296   8.061
78048SOL     OW36040   9.285   4.376  13.148
78048SOL    HW136041   9.202   4.403  13.107
78048SOL    HW236042   9.262   4.361  13.240
78049SOL     OW36043   6.364   6.773   8.360
78049SOL    HW136044   6.391   6.789   8.450
78049SOL    HW236045   6.361   6.861   8.320
78050SOL     OW36046   3.309   4.832   3.145
78050SOL    HW136047   3.264   4.792   3.220
78050SOL    HW236048   3.310   4.925   3.164
78051SOL     OW36049  11.421  12.125   9.251
78051SOL    HW136050  11.460  12.077   9.178
78051SOL    HW236051  11.330  12.095   9.254
78052SOL     OW36052   7.224   0.152  13.392
78052SOL    HW136053   7.152   0.092  13.374
78052SOL    HW236054   7.299   0.114  13.346
78053SOL     OW36055   1.671  11.460   1.979
78053SOL    HW136056   1.690  11.553   1.983
78053SOL    HW236057   1.616  11.449   1.901
78054SOL     OW36058   0.864   5.025   2.574
78054SOL    HW136059   0.803   4.956   2.600
78054SOL    HW236060   0.870   5.082   2.650
78055SOL     OW36061  10.218   0.165   1.761
78055SOL    HW136062  10.291   0.122   1.806
78055SOL    HW236063  10.140   0.119   1.794
78056SOL     OW36064  14.044   2.002   8.620
78056SOL    HW136065  14.108   1.938   8.588
78056SOL    HW236066  14.040   2.069   8.552
78057SOL     OW36067   6.651   4.156  11.709
78057SOL    HW136068   6.699   4.178  11.629
78057SOL    HW236069   6.631   4.240  11.750
78058SOL     OW36070  11.009  10.922   9.789
78058SOL    HW136071  11.076  10.986   9.768
78058SOL    HW236072  10.970  10.898   9.705
78059SOL     OW36073  10.264  11.036   9.015
78059SOL    HW136074  10.316  11.005   8.941
78059SOL    HW236075  10.325  11.089   9.066
78060SOL     OW36076   3.947  10.668   7.947
78060SOL    HW136077   3.984  10.710   7.869
78060SOL    HW236078   3.853  10.688   7.942
78061SOL     OW36079   1.857   5.791  13.016
78061SOL    HW136080   1.828   5.704  12.992
78061SOL    HW236081   1.812   5.850  12.956
78062SOL     OW36082   0.733   3.092  11.065
78062SOL    HW136083   0.807   3.126  11.116
78062SOL    HW236084   0.748   2.997  11.061
78063SOL     OW36085   1.843  10.336  12.043
78063SOL    HW136086   1.875  10.424  12.019
78063SOL    HW236087   1.820  10.296  11.959
78064SOL     OW36088   5.468  13.299   0.974
78064SOL    HW136089   5.500  13.251   1.050
78064SOL    HW236090   5.412  13.368   1.011
78065SOL     OW36091   7.705   4.435   8.909
78065SOL    HW136092   7.639   4.398   8.849
78065SOL    HW236093   7.711   4.527   8.884
78066SOL     OW36094   0.778  12.616   3.062
78066SOL    HW136095   0.721  12.656   3.128
78066SOL    HW236096   0.788  12.683   2.995
78067SOL     OW36097   2.942   1.241   8.382
78067SOL    HW136098   2.861   1.215   8.426
78067SOL    HW236099   3.007   1.178   8.413
78068SOL     OW36100   1.615   9.992   4.161
78068SOL    HW136101   1.648   9.914   4.117
78068SOL    HW236102   1.678  10.010   4.230
78069SOL     OW36103  13.530   3.909   2.196
78069SOL    HW136104  13.613   3.867   2.217
78069SOL    HW236105  13.543   3.947   2.110
78070SOL     OW36106   8.566  13.060  14.413
78070SOL    HW136107   8.499  13.116  14.375
78070SOL    HW236108   8.562  13.076  14.507
78071SOL     OW36109   1.712   2.410  14.028
78071SOL    HW136110   1.778   2.476  14.047
78071SOL    HW236111   1.704   2.359  14.108
78072SOL     OW36112  11.108  12.829   9.754
78072SOL    HW136113  11.082  12.738   9.748
78072SOL    HW236114  11.146  12.837   9.842
78073SOL     OW36115  13.282   7.122   4.671
78073SOL    HW136116  13.212   7.187   4.677
78073SOL    HW236117  13.235   7.038   4.666
78074SOL     OW36118  10.918   1.329  11.343
78074SOL    HW136119  10.972   1.285  11.408
78074SOL    HW236120  10.955   1.302  11.259
78075SOL     OW36121   6.450   4.715  13.661
78075SOL    HW136122   6.527   4.664  13.636
78075SOL    HW236123   6.376   4.658  13.641
78076SOL     OW36124   0.413   5.042  13.264
78076SOL    HW136125   0.488   5.075  13.214
78076SOL    HW236126   0.405   4.951  13.236
78077SOL     OW36127  11.799   7.169  11.523
78077SOL    HW136128  11.769   7.259  11.535
78077SOL    HW236129  11.808   7.159  11.428
78078SOL     OW36130   5.551  14.053   5.647
78078SOL    HW136131   5.592  14.139   5.644
78078SOL    HW236132   5.502  14.052   5.729
78079SOL     OW36133  10.002   1.900  14.562
78079SOL    HW136134   9.996   1.815  14.606
78079SOL    HW236135   9.942   1.892  14.488
78080SOL     OW36136   8.196   3.796  10.772
78080SOL    HW136137   8.196   3.840  10.857
78080SOL    HW236138   8.266   3.731  10.778
78081SOL     OW36139  14.148   9.116   1.264
78081SOL    HW136140  14.059   9.151   1.278
78081SOL    HW236141  14.134   9.030   1.226
78082SOL     OW36142   0.645   3.864   9.219
78082SOL    HW136143   0.704   3.788   9.216
78082SOL    HW236144   0.703   3.939   9.232
78083SOL     OW36145   2.308   2.706  14.802
78083SOL    HW136146   2.303   2.765  14.726
78083SOL    HW236147   2.228   2.724  14.851
78084SOL     OW36148   2.404  10.148   6.186
78084SOL    HW136149   2.319  10.190   6.196
78084SOL    HW236150   2.463  10.218   6.158
78085SOL     OW36151   6.252   8.538   5.385
78085SOL    HW136152   6.169   8.552   5.339
78085SOL    HW236153   6.280   8.451   5.358
78086SOL     OW36154   0.394   4.581   4.782
78086SOL    HW136155   0.318   4.547   4.829
78086SOL    HW236156   0.428   4.506   4.733
78087SOL     OW36157  13.223  10.115   8.220
78087SOL    HW136158  13.279  10.192   8.207
78087SOL    HW236159  13.192  10.122   8.311
78088SOL     OW36160   7.397   2.268   1.023
78088SOL    HW136161   7.370   2.177   1.039
78088SOL    HW236162   7.334   2.321   1.072
78089SOL     OW36163   4.698  14.131   1.533
78089SOL    HW136164   4.771  14.186   1.504
78089SOL    HW236165   4.638  14.130   1.459
78090SOL     OW36166   1.005   9.994   3.378
78090SOL    HW136167   0.963  10.057   3.437
78090SOL    HW236168   1.098  10.000   3.399
78091SOL     OW36169  11.177   6.034   8.325
78091SOL    HW136170  11.150   6.124   8.304
78091SOL    HW236171  11.127   6.012   8.404
78092SOL     OW36172   5.148  11.530  10.916
78092SOL    HW136173   5.066  11.513  10.963
78092SOL    HW236174   5.124  11.590  10.846
78093SOL     OW36175   1.735  14.710   1.664
78093SOL    HW136176   1.665  14.769   1.688
78093SOL    HW236177   1.696  14.622   1.669
78094SOL     OW36178   3.891   9.859   4.806
78094SOL    HW136179   3.967   9.896   4.851
78094SOL    HW236180   3.921   9.844   4.717
78095SOL     OW36181   3.907  13.112  11.317
78095SOL    HW136182   3.971  13.158  11.371
78095SOL    HW236183   3.856  13.182  11.276
78096SOL     OW36184   5.662  10.624  10.900
78096SOL    HW136185   5.639  10.644  10.809
78096SOL    HW236186   5.594  10.667  10.951
78097SOL     OW36187   7.301  12.109  13.580
78097SOL    HW136188   7.261  12.179  13.633
78097SOL    HW236189   7.281  12.133  13.490
78098SOL     OW36190  10.621   9.455   1.986
78098SOL    HW136191  10.617   9.549   1.969
78098SOL    HW236192  10.530   9.427   1.993
78099SOL     OW36193  12.731   9.176   3.029
78099SOL    HW136194  12.729   9.212   2.940
78099SOL    HW236195  12.658   9.114   3.032
78100SOL     OW36196   6.963  13.520   7.064
78100SOL    HW136197   6.974  13.480   7.151
78100SOL    HW236198   6.881  13.483   7.031
78101SOL     OW36199  12.348  10.971   8.200
78101SOL    HW136200  12.299  11.016   8.268
78101SOL    HW236201  12.359  10.881   8.233
78102SOL     OW36202   6.298   4.505  13.570
78102SOL    HW136203   6.290   4.468  13.658
78102SOL    HW236204   6.296   4.429  13.512
78103SOL     OW36205   5.210   6.698   2.974
78103SOL    HW136206   5.132   6.715   3.027
78103SOL    HW236207   5.176   6.661   2.893
78104SOL     OW36208   4.224   0.477   8.590
78104SOL    HW136209   4.267   0.552   8.632
78104SOL    HW236210   4.286   0.449   8.523
78105SOL     OW36211   9.483  11.282   6.840
78105SOL    HW136212   9.389  11.264   6.839
78105SOL    HW236213   9.522  11.206   6.796
78106SOL     OW36214   5.246   5.580  14.582
78106SOL    HW136215   5.268   5.597  14.490
78106SOL    HW236216   5.268   5.488  14.595
78107SOL     OW36217  14.770   3.868  13.500
78107SOL    HW136218  14.798   3.875  13.409
78107SOL    HW236219  14.790   3.954  13.537
78108SOL     OW36220   1.846   3.561   1.354
78108SOL    HW136221   1.920   3.509   1.321
78108SOL    HW236222   1.858   3.647   1.314
78109SOL     OW36223   9.638   5.093  10.350
78109SOL    HW136224   9.733   5.099  10.361
78109SOL    HW236225   9.605   5.175  10.387
78110SOL     OW36226   8.266   3.768   3.542
78110SOL    HW136227   8.348   3.761   3.590
78110SOL    HW236228   8.269   3.696   3.478
78111SOL     OW36229   8.636   3.828  10.252
78111SOL    HW136230   8.650   3.861  10.164
78111SOL    HW236231   8.582   3.750  10.240
78112SOL     OW36232   6.712   7.070  10.446
78112SOL    HW136233   6.638   7.046  10.501
78112SOL    HW236234   6.732   6.990  10.397
78113SOL     OW36235   8.702  11.972  10.955
78113SOL    HW136236   8.684  12.045  10.896
78113SOL    HW236237   8.721  12.013  11.039
78114SOL     OW36238   0.783  12.393   8.618
78114SOL    HW136239   0.830  12.335   8.558
78114SOL    HW236240   0.852  12.441   8.664
78115SOL     OW36241   6.588   8.393   6.280
78115SOL    HW136242   6.609   8.485   6.294
78115SOL    HW236243   6.580   8.357   6.369
78116SOL     OW36244   3.040   2.985   3.164
78116SOL    HW136245   3.079   3.039   3.232
78116SOL    HW236246   2.974   2.932   3.209
78117SOL     OW36247  14.054  12.731  13.835
78117SOL    HW136248  14.113  12.804  13.855
78117SOL    HW236249  13.987  12.735  13.903
78118SOL     OW36250   7.152   3.126  12.978
78118SOL    HW136251   7.140   3.217  13.007
78118SOL    HW236252   7.231   3.097  13.023
78119SOL     OW36253   4.130  10.681  13.336
78119SOL    HW136254   4.152  10.763  13.380
78119SOL    HW236255   4.038  10.666  13.358
78120SOL     OW36256   9.380  11.215   3.015
78120SOL    HW136257   9.359  11.233   2.924
78120SOL    HW236258   9.307  11.252   3.064
78121SOL     OW36259  11.575   6.591   1.758
78121SOL    HW136260  11.558   6.515   1.702
78121SOL    HW236261  11.668   6.585   1.778
78122SOL     OW36262   3.001  14.403  12.556
78122SOL    HW136263   2.969  14.455  12.630
78122SOL    HW236264   2.999  14.463  12.482
78123SOL     OW36265  11.658   4.765   8.094
78123SOL    HW136266  11.716   4.800   8.027
78123SOL    HW236267  11.614   4.841   8.131
78124SOL     OW36268   4.209  14.483   4.998
78124SOL    HW136269   4.137  14.428   5.027
78124SOL    HW236270   4.195  14.566   5.043
78125SOL     OW36271  13.195   7.913   8.472
78125SOL    HW136272  13.281   7.934   8.435
78125SOL    HW236273  13.195   7.818   8.481
78126SOL     OW36274   8.067   0.163   5.731
78126SOL    HW136275   8.051   0.257   5.726
78126SOL    HW236276   8.142   0.149   5.674
78127SOL     OW36277  10.442   6.814   5.875
78127SOL    HW136278  10.505   6.831   5.945
78127SOL    HW236279  10.476   6.863   5.800
78128SOL     OW36280   8.869  10.741  13.023
78128SOL    HW136281   8.798  10.703  12.970
78128SOL    HW236282   8.885  10.826  12.982
78129SOL     OW36283   9.692  13.410   7.549
78129SOL    HW136284   9.672  13.503   7.552
78129SOL    HW236285   9.716  13.394   7.457
78130SOL     OW36286   7.781  13.018   4.846
78130SOL    HW136287   7.839  13.089   4.875
78130SOL    HW236288   7.774  13.031   4.751
78131SOL     OW36289   3.760  14.428  11.527
78131SOL    HW136290   3.684  14.394  11.479
78131SOL    HW236291   3.823  14.356  11.526
78132SOL     OW36292   1.379   5.342   6.833
78132SOL    HW136293   1.307   5.283   6.810
78132SOL    HW236294   1.353   5.378   6.918
78133SOL     OW36295   6.840   9.834  13.025
78133SOL    HW136296   6.830   9.863  12.934
78133SOL    HW236297   6.888   9.904  13.067
78134SOL     OW36298   3.450   5.190   1.387
78134SOL    HW136299   3.444   5.112   1.333
78134SOL    HW236300   3.359   5.212   1.408
78135SOL     OW36301   2.304  13.802   8.239
78135SOL    HW136302   2.336  13.783   8.327
78135SOL    HW236303   2.379  13.841   8.194
78136SOL     OW36304   7.754  14.359   2.169
78136SOL    HW136305   7.690  14.430   2.180
78136SOL    HW236306   7.783  14.367   2.078
78137SOL     OW36307   4.534   1.786  11.716
78137SOL    HW136308   4.451   1.749  11.687
78137SOL    HW236309   4.581   1.711  11.754
78138SOL     OW36310  10.520   0.134  11.564
78138SOL    HW136311  10.573   0.162  11.638
78138SOL    HW236312  10.515   0.039  11.573
78139SOL     OW36313  12.827  12.889   5.015
78139SOL    HW136314  12.759  12.832   5.053
78139SOL    HW236315  12.785  12.974   5.006
78140SOL     OW36316   1.930   4.504   3.923
78140SOL    HW136317   1.995   4.514   3.992
78140SOL    HW236318   1.850   4.477   3.968
78141SOL     OW36319   4.164   2.050   3.065
78141SOL    HW136320   4.247   2.041   3.018
78141SOL    HW236321   4.180   2.118   3.130
78142SOL     OW36322   3.846   5.487   1.618
78142SOL    HW136323   3.921   5.428   1.615
78142SOL    HW236324   3.872   5.556   1.679
78143SOL     OW36325   5.040   1.732   6.808
78143SOL    HW136326   5.113   1.700   6.860
78143SOL    HW236327   4.964   1.685   6.841
78144SOL     OW36328   7.761   8.635   2.431
78144SOL    HW136329   7.837   8.693   2.433
78144SOL    HW236330   7.757   8.599   2.520
78145SOL     OW36331   3.459  10.156   3.903
78145SOL    HW136332   3.539  10.107   3.926
78145SOL    HW236333   3.472  10.243   3.941
78146SOL     OW36334   8.714   9.557  11.743
78146SOL    HW136335   8.719   9.633  11.802
78146SOL    HW236336   8.633   9.514  11.768
78147SOL     OW36337  11.220   9.298   1.338
78147SOL    HW136338  11.247   9.390   1.329
78147SOL    HW236339  11.197   9.271   1.250
78148SOL     OW36340   7.368  12.330   7.733
78148SOL    HW136341   7.288  12.350   7.684
78148SOL    HW236342   7.349  12.358   7.823
78149SOL     OW36343   0.678   2.573   6.238
78149SOL    HW136344   0.680   2.535   6.150
78149SOL    HW236345   0.705   2.501   6.296
78150SOL     OW36346   0.042   2.299   8.299
78150SOL    HW136347   0.032   2.394   8.298
78150SOL    HW236348  14.851   2.269   8.365
78151SOL     OW36349  13.283   9.381  11.152
78151SOL    HW136350  13.221   9.321  11.195
78151SOL    HW236351  13.363   9.329  11.141
78152SOL     OW36352  14.010   7.109  14.416
78152SOL    HW136353  14.041   7.019  14.428
78152SOL    HW236354  14.071   7.162  14.467
78153SOL     OW36355   6.855   7.256  12.601
78153SOL    HW136356   6.773   7.211  12.623
78153SOL    HW236357   6.897   7.273  12.685
78154SOL     OW36358  10.284  10.591   3.533
78154SOL    HW136359  10.194  10.620   3.517
78154SOL    HW236360  10.295  10.515   3.474
78155SOL     OW36361  10.758   4.394   1.406
78155SOL    HW136362  10.817   4.335   1.452
78155SOL    HW236363  10.742   4.465   1.467
78156SOL     OW36364   9.200   3.616   2.001
78156SOL    HW136365   9.286   3.596   2.038
78156SOL    HW236366   9.167   3.532   1.969
78157SOL     OW36367   2.529  13.616   4.072
78157SOL    HW136368   2.561  13.613   3.982
78157SOL    HW236369   2.601  13.654   4.123
78158SOL     OW36370   7.132   1.206   7.546
78158SOL    HW136371   7.099   1.118   7.527
78158SOL    HW236372   7.116   1.255   7.465
78159SOL     OW36373   4.688  10.718   8.172
78159SOL    HW136374   4.648  10.733   8.258
78159SOL    HW236375   4.645  10.783   8.115
78160SOL     OW36376  13.812  14.638   3.743
78160SOL    HW136377  13.796  14.704   3.811
78160SOL    HW236378  13.725  14.618   3.708
78161SOL     OW36379  11.983   9.662   3.749
78161SOL    HW136380  12.019   9.623   3.828
78161SOL    HW236381  12.037   9.628   3.678
78162SOL     OW36382   0.217   5.827  10.303
78162SOL    HW136383   0.165   5.804  10.380
78162SOL    HW236384   0.282   5.889  10.336
78163SOL     OW36385   7.492   1.023   1.109
78163SOL    HW136386   7.584   1.025   1.135
78163SOL    HW236387   7.491   0.974   1.027
78164SOL     OW36388   0.196  13.779  10.384
78164SOL    HW136389   0.261  13.833  10.340
78164SOL    HW236390   0.116  13.791  10.332
78165SOL     OW36391   9.652  11.315   6.433
78165SOL    HW136392   9.646  11.230   6.389
78165SOL    HW236393   9.700  11.296   6.515
78166SOL     OW36394  11.284   2.846   3.258
78166SOL    HW136395  11.257   2.938   3.260
78166SOL    HW236396  11.370   2.846   3.300
78167SOL     OW36397   1.475   7.688   1.810
78167SOL    HW136398   1.479   7.783   1.802
78167SOL    HW236399   1.446   7.657   1.725
78168SOL     OW36400   1.718   8.772   8.965
78168SOL    HW136401   1.655   8.701   8.979
78168SOL    HW236402   1.770   8.743   8.889
78169SOL     OW36403   2.653  14.287  11.213
78169SOL    HW136404   2.746  14.293  11.191
78169SOL    HW236405   2.609  14.342  11.148
78170SOL     OW36406   7.893   1.949  10.799
78170SOL    HW136407   7.924   1.933  10.710
78170SOL    HW236408   7.923   1.873  10.849
78171SOL     OW36409   1.130   2.715   3.542
78171SOL    HW136410   1.170   2.783   3.597
78171SOL    HW236411   1.036   2.734   3.545
78172SOL     OW36412  12.125   4.528  12.926
78172SOL    HW136413  12.189   4.515  12.856
78172SOL    HW236414  12.147   4.461  12.991
78173SOL     OW36415   6.070   7.354   1.462
78173SOL    HW136416   6.112   7.415   1.522
78173SOL    HW236417   6.030   7.409   1.395
78174SOL     OW36418   3.484  11.817   5.193
78174SOL    HW136419   3.513  11.893   5.243
78174SOL    HW236420   3.535  11.744   5.229
78175SOL     OW36421   1.701  12.422   6.844
78175SOL    HW136422   1.710  12.338   6.889
78175SOL    HW236423   1.631  12.407   6.780
78176SOL     OW36424   0.017   6.821   4.987
78176SOL    HW136425   0.109   6.840   4.968
78176SOL    HW236426  14.851   6.793   4.904
78177SOL     OW36427  11.972   7.404   2.723
78177SOL    HW136428  11.992   7.331   2.664
78177SOL    HW236429  11.972   7.364   2.810
78178SOL     OW36430  12.847   2.141   1.044
78178SOL    HW136431  12.805   2.089   1.113
78178SOL    HW236432  12.940   2.122   1.054
78179SOL     OW36433   5.656   1.877   8.526
78179SOL    HW136434   5.618   1.946   8.472
78179SOL    HW236435   5.580   1.826   8.556
78180SOL     OW36436  13.161  12.727   9.325
78180SOL    HW136437  13.184  12.657   9.386
78180SOL    HW236438  13.166  12.807   9.377
78181SOL     OW36439   2.358   0.669  12.130
78181SOL    HW136440   2.438   0.722  12.138
78181SOL    HW236441   2.390   0.582  12.106
78182SOL     OW36442   5.114  13.060  11.746
78182SOL    HW136443   5.034  13.092  11.705
78182SOL    HW236444   5.151  13.136  11.792
78183SOL     OW36445  12.267   5.849   6.841
78183SOL    HW136446  12.182   5.887   6.863
78183SOL    HW236447  12.246   5.772   6.788
78184SOL     OW36448  13.288   3.169   7.348
78184SOL    HW136449  13.210   3.119   7.323
78184SOL    HW236450  13.256   3.260   7.353
78185SOL     OW36451  13.233   5.915   5.632
78185SOL    HW136452  13.187   5.999   5.628
78185SOL    HW236453  13.267   5.902   5.544
78186SOL     OW36454   8.973   7.965  11.728
78186SOL    HW136455   9.037   7.918  11.780
78186SOL    HW236456   8.999   7.949  11.637
78187SOL     OW36457  10.759   0.574  14.041
78187SOL    HW136458  10.713   0.587  13.958
78187SOL    HW236459  10.790   0.662  14.066
78188SOL     OW36460   4.153   3.118  11.800
78188SOL    HW136461   4.203   3.199  11.808
78188SOL    HW236462   4.218   3.049  11.794
78189SOL     OW36463   7.175   2.224   1.591
78189SOL    HW136464   7.237   2.261   1.653
78189SOL    HW236465   7.092   2.221   1.638
78190SOL     OW36466   6.090   6.322   2.949
78190SOL    HW136467   6.127   6.398   2.995
78190SOL    HW236468   6.050   6.359   2.870
78191SOL     OW36469  10.237  14.243   9.520
78191SOL    HW136470  10.302  14.181   9.554
78191SOL    HW236471  10.255  14.324   9.567
78192SOL     OW36472   9.307  12.768  13.608
78192SOL    HW136473   9.276  12.815  13.685
78192SOL    HW236474   9.401  12.787  13.603
78193SOL     OW36475   0.264  13.587  14.480
78193SOL    HW136476   0.244  13.551  14.394
78193SOL    HW236477   0.321  13.521  14.521
78194SOL     OW36478  11.014   8.132   4.727
78194SOL    HW136479  10.921   8.117   4.715
78194SOL    HW236480  11.022   8.225   4.745
78195SOL     OW36481   2.402   0.333   2.228
78195SOL    HW136482   2.427   0.425   2.238
78195SOL    HW236483   2.342   0.333   2.153
78196SOL     OW36484   7.650   1.755   6.740
78196SOL    HW136485   7.730   1.779   6.785
78196SOL    HW236486   7.579   1.787   6.796
78197SOL     OW36487   4.846  13.017   3.321
78197SOL    HW136488   4.834  13.105   3.358
78197SOL    HW236489   4.797  13.018   3.239
78198SOL     OW36490  10.116   8.423  12.271
78198SOL    HW136491  10.065   8.454  12.196
78198SOL    HW236492  10.124   8.329  12.256
78199SOL     OW36493   5.553  10.428  14.819
78199SOL    HW136494   5.609  10.353  14.803
78199SOL    HW236495   5.465  10.392  14.825
78200SOL     OW36496   3.594  14.065   4.805
78200SOL    HW136497   3.645  14.140   4.837
78200SOL    HW236498   3.525  14.105   4.752
78201SOL     OW36499   1.694   2.367   1.734
78201SOL    HW136500   1.744   2.286   1.725
78201SOL    HW236501   1.672   2.373   1.827
78202SOL     OW36502  13.963  10.867   3.775
78202SOL    HW136503  13.987  10.777   3.798
78202SOL    HW236504  14.041  10.919   3.795
78203SOL     OW36505  13.194   4.243   4.348
78203SOL    HW136506  13.263   4.273   4.407
78203SOL    HW236507  13.232   4.169   4.301
78204SOL     OW36508  12.445   4.474   8.000
78204SOL    HW136509  12.447   4.547   8.061
78204SOL    HW236510  12.363   4.485   7.953
78205SOL     OW36511  13.332   7.984   8.888
78205SOL    HW136512  13.353   8.043   8.960
78205SOL    HW236513  13.403   7.919   8.889
78206SOL     OW36514   1.332   4.497  13.500
78206SOL    HW136515   1.334   4.575  13.556
78206SOL    HW236516   1.252   4.507  13.448
78207SOL     OW36517   0.359   2.031   5.437
78207SOL    HW136518   0.367   1.945   5.478
78207SOL    HW236519   0.427   2.032   5.370
78208SOL     OW36520  14.549   9.962  13.849
78208SOL    HW136521  14.638   9.934  13.870
78208SOL    HW236522  14.551   9.981  13.756
78209SOL     OW36523  11.020   2.196   3.884
78209SOL    HW136524  10.989   2.252   3.813
78209SOL    HW236525  11.024   2.109   3.846
78210SOL     OW36526   6.213  11.768  14.143
78210SOL    HW136527   6.240  11.782  14.052
78210SOL    HW236528   6.255  11.686  14.169
78211SOL     OW36529   6.003   6.715   6.784
78211SOL    HW136530   6.088   6.683   6.815
78211SOL    HW236531   6.022   6.760   6.702
78212SOL     OW36532   9.364   0.254   0.502
78212SOL    HW136533   9.444   0.227   0.458
78212SOL    HW236534   9.379   0.346   0.525
78213SOL     OW36535   3.153   6.232  12.495
78213SOL    HW136536   3.167   6.247  12.401
78213SOL    HW236537   3.170   6.317  12.535
78214SOL     OW36538  12.057   3.092   7.474
78214SOL    HW136539  12.050   3.043   7.392
78214SOL    HW236540  12.080   3.027   7.539
78215SOL     OW36541   4.208   4.010  10.091
78215SOL    HW136542   4.275   4.011  10.022
78215SOL    HW236543   4.192   4.102  10.111
78216SOL     OW36544   2.487   2.527   5.878
78216SOL    HW136545   2.528   2.528   5.792
78216SOL    HW236546   2.528   2.601   5.925
78217SOL     OW36547  11.725   1.737   2.101
78217SOL    HW136548  11.683   1.716   2.185
78217SOL    HW236549  11.813   1.699   2.108
78218SOL     OW36550   3.906   7.820   4.356
78218SOL    HW136551   3.852   7.760   4.406
78218SOL    HW236552   3.855   7.840   4.277
78219SOL     OW36553  12.276   9.165   9.531
78219SOL    HW136554  12.242   9.248   9.565
78219SOL    HW236555  12.363   9.186   9.497
78220SOL     OW36556   7.409   7.070  14.072
78220SOL    HW136557   7.485   7.022  14.107
78220SOL    HW236558   7.360   7.098  14.150
78221SOL     OW36559   8.379   0.095   4.111
78221SOL    HW136560   8.430   0.035   4.165
78221SOL    HW236561   8.297   0.106   4.158
78222SOL     OW36562  14.084  12.724   5.733
78222SOL    HW136563  14.096  12.632   5.755
78222SOL    HW236564  14.140  12.737   5.656
78223SOL     OW36565   1.853   2.330  11.974
78223SOL    HW136566   1.899   2.263  11.925
78223SOL    HW236567   1.887   2.413  11.940
78224SOL     OW36568   0.103   9.384   6.975
78224SOL    HW136569   0.025   9.329   6.961
78224SOL    HW236570   0.125   9.370   7.067
78225SOL     OW36571   2.689   0.402  12.822
78225SOL    HW136572   2.735   0.373  12.744
78225SOL    HW236573   2.622   0.335  12.836
78226SOL     OW36574  10.652   0.174  11.040
78226SOL    HW136575  10.621   0.214  11.121
78226SOL    HW236576  10.640   0.080  11.053
78227SOL     OW36577   2.252   8.824   5.977
78227SOL    HW136578   2.315   8.752   5.980
78227SOL    HW236579   2.216   8.829   6.065
78228SOL     OW36580   5.471   3.608   8.854
78228SOL    HW136581   5.533   3.606   8.927
78228SOL    HW236582   5.424   3.524   8.861
78229SOL     OW36583  10.046  10.729   2.003
78229SOL    HW136584  10.108  10.743   2.075
78229SOL    HW236585  10.074  10.791   1.935
78230SOL     OW36586   6.710   1.899  10.649
78230SOL    HW136587   6.752   1.822  10.687
78230SOL    HW236588   6.746   1.972  10.698
78231SOL     OW36589   0.736   2.111   9.985
78231SOL    HW136590   0.809   2.150  10.032
78231SOL    HW236591   0.772   2.087   9.900
78232SOL     OW36592   9.865   4.430  11.441
78232SOL    HW136593   9.775   4.459  11.425
78232SOL    HW236594   9.914   4.511  11.457
78233SOL     OW36595   1.251   5.961  12.630
78233SOL    HW136596   1.197   5.902  12.683
78233SOL    HW236597   1.304   6.008  12.694
78234SOL     OW36598  11.390   0.794   6.390
78234SOL    HW136599  11.294   0.792   6.387
78234SOL    HW236600  11.412   0.766   6.479
78235SOL     OW36601  14.155   8.985   7.435
78235SOL    HW136602  14.167   9.051   7.503
78235SOL    HW236603  14.108   8.914   7.478
78236SOL     OW36604  10.706   6.365   4.976
78236SOL    HW136605  10.747   6.292   4.929
78236SOL    HW236606  10.768   6.437   4.967
78237SOL     OW36607   5.158   8.985  11.626
78237SOL    HW136608   5.249   8.957  11.615
78237SOL    HW236609   5.160   9.079  11.607
78238SOL     OW36610  11.782  12.176   7.534
78238SOL    HW136611  11.745  12.210   7.615
78238SOL    HW236612  11.779  12.250   7.473
78239SOL     OW36613   4.002   5.602  13.058
78239SOL    HW136614   3.954   5.682  13.037
78239SOL    HW236615   4.048   5.623  13.140
78240SOL     OW36616  11.071  12.216   4.934
78240SOL    HW136617  10.983  12.230   4.900
78240SOL    HW236618  11.126  12.273   4.880
78241SOL     OW36619   5.456   7.041   0.232
78241SOL    HW136620   5.452   6.948   0.254
78241SOL    HW236621   5.546   7.067   0.252
78242SOL     OW36622   5.429  14.027   1.497
78242SOL    HW136623   5.429  13.979   1.414
78242SOL    HW236624   5.364  13.983   1.550
78243SOL     OW36625  13.266   3.968   5.669
78243SOL    HW136626  13.289   3.877   5.649
78243SOL    HW236627  13.331   4.020   5.621
78244SOL     OW36628   5.995   4.987   1.798
78244SOL    HW136629   5.955   4.968   1.883
78244SOL    HW236630   5.992   5.082   1.790
78245SOL     OW36631   7.084   8.990   6.224
78245SOL    HW136632   7.140   8.916   6.200
78245SOL    HW236633   7.123   9.024   6.305
78246SOL     OW36634  14.046   1.393   9.843
78246SOL    HW136635  14.070   1.424   9.756
78246SOL    HW236636  14.044   1.472   9.897
78247SOL     OW36637   8.580   8.859   4.649
78247SOL    HW136638   8.504   8.825   4.696
78247SOL    HW236639   8.564   8.838   4.558
78248SOL     OW36640   7.433   9.394   6.918
78248SOL    HW136641   7.437   9.487   6.937
78248SOL    HW236642   7.371   9.359   6.983
78249SOL     OW36643  12.921   2.203   0.663
78249SOL    HW136644  12.897   2.270   0.599
78249SOL    HW236645  12.939   2.126   0.610
78250SOL     OW36646   5.399  11.610   4.251
78250SOL    HW136647   5.411  11.553   4.326
78250SOL    HW236648   5.487  11.624   4.216
78251SOL     OW36649   2.012  10.723   8.106
78251SOL    HW136650   1.961  10.801   8.087
78251SOL    HW236651   1.967  10.653   8.059
78252SOL     OW36652   5.019   3.389  14.865
78252SOL    HW136653   5.003   3.393   0.088
78252SOL    HW236654   5.057   3.474  14.844
78253SOL     OW36655   8.901   3.374   4.249
78253SOL    HW136656   8.922   3.283   4.271
78253SOL    HW236657   8.807   3.381   4.268
78254SOL     OW36658   9.795   4.094  13.192
78254SOL    HW136659   9.737   4.027  13.154
78254SOL    HW236660   9.882   4.054  13.188
78255SOL     OW36661   9.072   0.316   3.513
78255SOL    HW136662   8.994   0.368   3.534
78255SOL    HW236663   9.127   0.376   3.463
78256SOL     OW36664   9.191   8.603   8.894
78256SOL    HW136665   9.286   8.596   8.886
78256SOL    HW236666   9.174   8.597   8.988
78257SOL     OW36667   3.582   8.000   1.050
78257SOL    HW136668   3.676   8.000   1.066
78257SOL    HW236669   3.557   7.908   1.049
78258SOL     OW36670   8.054  10.765   8.248
78258SOL    HW136671   8.143  10.797   8.232
78258SOL    HW236672   8.051  10.750   8.343
78259SOL     OW36673   5.955  11.132   0.474
78259SOL    HW136674   5.883  11.183   0.511
78259SOL    HW236675   5.923  11.042   0.475
78260SOL     OW36676   1.642   1.960   6.136
78260SOL    HW136677   1.561   1.933   6.180
78260SOL    HW236678   1.711   1.939   6.199
78261SOL     OW36679   7.619   1.739  11.917
78261SOL    HW136680   7.623   1.649  11.949
78261SOL    HW236681   7.638   1.732  11.824
78262SOL     OW36682   1.567  10.105  10.716
78262SOL    HW136683   1.545  10.176  10.656
78262SOL    HW236684   1.620  10.147  10.784
78263SOL     OW36685   5.696   6.972   7.446
78263SOL    HW136686   5.608   6.990   7.412
78263SOL    HW236687   5.699   7.021   7.529
78264SOL     OW36688  11.195  12.410  11.598
78264SOL    HW136689  11.137  12.398  11.673
78264SOL    HW236690  11.167  12.493  11.559
78265SOL     OW36691   1.545   0.970  11.868
78265SOL    HW136692   1.506   0.883  11.881
78265SOL    HW236693   1.557   1.004  11.957
78266SOL     OW36694   7.110  10.818   7.705
78266SOL    HW136695   7.058  10.781   7.777
78266SOL    HW236696   7.188  10.854   7.748
78267SOL     OW36697   3.937  12.755   3.910
78267SOL    HW136698   3.927  12.849   3.894
78267SOL    HW236699   3.898  12.713   3.833
78268SOL     OW36700  13.559   9.696  14.466
78268SOL    HW136701  13.626   9.693  14.534
78268SOL    HW236702  13.520   9.609  14.467
78269SOL     OW36703  13.695  11.602   2.135
78269SOL    HW136704  13.634  11.528   2.141
78269SOL    HW236705  13.776  11.563   2.100
78270SOL     OW36706  10.570  12.942   4.277
78270SOL    HW136707  10.597  13.011   4.216
78270SOL    HW236708  10.508  12.889   4.226
78271SOL     OW36709   2.249   7.281   8.864
78271SOL    HW136710   2.181   7.264   8.930
78271SOL    HW236711   2.308   7.344   8.906
78272SOL     OW36712  12.630   2.494   7.624
78272SOL    HW136713  12.544   2.535   7.612
78272SOL    HW236714  12.618   2.404   7.595
78273SOL     OW36715  11.108  10.489   7.283
78273SOL    HW136716  11.041  10.476   7.216
78273SOL    HW236717  11.188  10.456   7.244
78274SOL     OW36718   8.124  11.923  13.862
78274SOL    HW136719   8.125  12.005  13.814
78274SOL    HW236720   8.216  11.902  13.876
78275SOL     OW36721   8.777   4.414   6.245
78275SOL    HW136722   8.716   4.341   6.235
78275SOL    HW236723   8.834   4.408   6.168
78276SOL     OW36724  13.433   1.941  10.906
78276SOL    HW136725  13.404   1.912  10.820
78276SOL    HW236726  13.515   1.987  10.890
78277SOL     OW36727   3.295   3.868   4.027
78277SOL    HW136728   3.301   3.776   3.999
78277SOL    HW236729   3.385   3.900   4.021
78278SOL     OW36730   2.072   8.337   4.658
78278SOL    HW136731   2.059   8.247   4.688
78278SOL    HW236732   2.149   8.332   4.601
78279SOL     OW36733   1.949  13.293  10.708
78279SOL    HW136734   1.886  13.357  10.676
78279SOL    HW236735   1.920  13.273  10.797
78280SOL     OW36736   0.089   4.942   0.096
78280SOL    HW136737   0.136   4.997   0.033
78280SOL    HW236738   0.154   4.921   0.163
78281SOL     OW36739  11.098  10.047   5.322
78281SOL    HW136740  11.188  10.044   5.356
78281SOL    HW236741  11.074   9.955   5.310
78282SOL     OW36742   2.836   4.071   5.304
78282SOL    HW136743   2.838   4.041   5.395
78282SOL    HW236744   2.746   4.054   5.275
78283SOL     OW36745   7.339   3.137   1.433
78283SOL    HW136746   7.310   3.123   1.343
78283SOL    HW236747   7.434   3.136   1.428
78284SOL     OW36748   0.202   6.688   9.751
78284SOL    HW136749   0.146   6.751   9.797
78284SOL    HW236750   0.151   6.608   9.748
78285SOL     OW36751   6.052  10.807  12.736
78285SOL    HW136752   6.141  10.826  12.705
78285SOL    HW236753   5.995  10.861  12.681
78286SOL     OW36754  13.425   9.053   5.277
78286SOL    HW136755  13.355   9.112   5.248
78286SOL    HW236756  13.462   9.096   5.354
78287SOL     OW36757   9.258   8.164   0.360
78287SOL    HW136758   9.289   8.149   0.270
78287SOL    HW236759   9.326   8.218   0.400
78288SOL     OW36760   7.149   9.585   2.995
78288SOL    HW136761   7.228   9.533   2.979
78288SOL    HW236762   7.102   9.536   3.063
78289SOL     OW36763  13.890  11.821   7.543
78289SOL    HW136764  13.911  11.911   7.518
78289SOL    HW236765  13.975  11.776   7.545
78290SOL     OW36766  14.656   0.324   1.243
78290SOL    HW136767  14.677   0.335   1.336
78290SOL    HW236768  14.735   0.353   1.197
78291SOL     OW36769   2.134   1.740   4.158
78291SOL    HW136770   2.222   1.713   4.186
78291SOL    HW236771   2.075   1.680   4.204
78292SOL     OW36772   3.376  11.748  10.792
78292SOL    HW136773   3.416  11.795  10.719
78292SOL    HW236774   3.304  11.699  10.753
78293SOL     OW36775   0.186   7.423   8.646
78293SOL    HW136776   0.123   7.387   8.583
78293SOL    HW236777   0.136   7.490   8.693
78294SOL     OW36778   4.299   2.396  13.018
78294SOL    HW136779   4.368   2.451  13.055
78294SOL    HW236780   4.278   2.438  12.934
78295SOL     OW36781   1.085   5.033   8.639
78295SOL    HW136782   1.049   5.027   8.727
78295SOL    HW236783   1.095   5.127   8.623
78296SOL     OW36784   1.870   3.042  13.218
78296SOL    HW136785   1.836   3.131  13.219
78296SOL    HW236786   1.872   3.018  13.125
78297SOL     OW36787   2.786   9.852   9.105
78297SOL    HW136788   2.711   9.839   9.163
78297SOL    HW236789   2.819   9.764   9.088
78298SOL     OW36790  14.723   0.704   7.503
78298SOL    HW136791  14.687   0.706   7.591
78298SOL    HW236792  14.649   0.681   7.447
78299SOL     OW36793   3.011   4.307   6.605
78299SOL    HW136794   2.974   4.227   6.568
78299SOL    HW236795   2.938   4.369   6.604
78300SOL     OW36796   0.117   6.399  13.690
78300SOL    HW136797   0.093   6.312  13.658
78300SOL    HW236798   0.039   6.431  13.734
78301SOL     OW36799   5.917   4.700  14.473
78301SOL    HW136800   5.828   4.721  14.445
78301SOL    HW236801   5.974   4.741  14.407
78302SOL     OW36802   8.000   2.931   7.665
78302SOL    HW136803   7.983   2.839   7.646
78302SOL    HW236804   8.003   2.936   7.761
78303SOL     OW36805   0.680  10.121   4.313
78303SOL    HW136806   0.759  10.101   4.363
78303SOL    HW236807   0.712  10.144   4.226
78304SOL     OW36808   9.689  10.783   6.749
78304SOL    HW136809   9.627  10.755   6.817
78304SOL    HW236810   9.726  10.701   6.716
78305SOL     OW36811   9.995  14.043   9.315
78305SOL    HW136812  10.013  14.046   9.409
78305SOL    HW236813   9.953  13.958   9.302
78306SOL     OW36814   6.342  12.081  13.282
78306SOL    HW136815   6.375  12.137  13.212
78306SOL    HW236816   6.420  12.038  13.318
78307SOL     OW36817  12.993  11.734  11.078
78307SOL    HW136818  12.995  11.660  11.017
78307SOL    HW236819  13.046  11.802  11.035
78308SOL     OW36820   7.472   2.242  12.592
78308SOL    HW136821   7.455   2.163  12.542
78308SOL    HW236822   7.386   2.278  12.612
78309SOL     OW36823  10.706   6.186  14.756
78309SOL    HW136824  10.646   6.211  14.686
78309SOL    HW236825  10.760   6.116  14.718
78310SOL     OW36826  14.844   0.034   4.241
78310SOL    HW136827  14.849   0.128   4.254
78310SOL    HW236828  14.827   0.023   4.147
78311SOL     OW36829   2.722   1.766   5.972
78311SOL    HW136830   2.723   1.724   5.886
78311SOL    HW236831   2.812   1.756   6.004
78312SOL     OW36832   6.719   6.696   7.107
78312SOL    HW136833   6.722   6.775   7.160
78312SOL    HW236834   6.810   6.676   7.088
78313SOL     OW36835  14.843   6.338   4.119
78313SOL    HW136836   0.022   6.412   4.153
78313SOL    HW236837   0.011   6.261   4.159
78314SOL     OW36838   5.545   8.153  11.382
78314SOL    HW136839   5.565   8.061  11.364
78314SOL    HW236840   5.451   8.154  11.401
78315SOL     OW36841   8.832  14.068  14.409
78315SOL    HW136842   8.809  14.077  14.316
78315SOL    HW236843   8.878  13.984  14.414
78316SOL     OW36844   3.311   8.792  13.369
78316SOL    HW136845   3.375   8.860  13.347
78316SOL    HW236846   3.264   8.827  13.445
78317SOL     OW36847  13.764   9.457   6.640
78317SOL    HW136848  13.748   9.417   6.554
78317SOL    HW236849  13.834   9.520   6.624
78318SOL     OW36850   5.747   6.576   9.018
78318SOL    HW136851   5.769   6.657   9.064
78318SOL    HW236852   5.804   6.576   8.941
78319SOL     OW36853   4.378   8.486   1.744
78319SOL    HW136854   4.401   8.483   1.837
78319SOL    HW236855   4.294   8.533   1.741
78320SOL     OW36856   7.746   1.106   1.314
78320SOL    HW136857   7.767   1.197   1.336
78320SOL    HW236858   7.719   1.067   1.397
78321SOL     OW36859   8.489  14.654   6.606
78321SOL    HW136860   8.490  14.729   6.665
78321SOL    HW236861   8.408  14.608   6.627
78322SOL     OW36862   1.993   8.125   2.640
78322SOL    HW136863   2.050   8.079   2.579
78322SOL    HW236864   1.912   8.074   2.641
78323SOL     OW36865  12.526   6.375   3.489
78323SOL    HW136866  12.585   6.373   3.414
78323SOL    HW236867  12.477   6.456   3.479
78324SOL     OW36868   1.196  12.856  12.021
78324SOL    HW136869   1.273  12.823  11.974
78324SOL    HW236870   1.215  12.949  12.036
78325SOL     OW36871  13.936  10.220  12.721
78325SOL    HW136872  13.875  10.275  12.671
78325SOL    HW236873  14.002  10.193  12.657
78326SOL     OW36874  13.047   5.393   5.481
78326SOL    HW136875  13.006   5.450   5.416
78326SOL    HW236876  13.075   5.453   5.550
78327SOL     OW36877   2.154  13.597   8.359
78327SOL    HW136878   2.130  13.644   8.279
78327SOL    HW236879   2.206  13.659   8.409
78328SOL     OW36880   8.823   7.030   0.771
78328SOL    HW136881   8.880   6.985   0.709
78328SOL    HW236882   8.873   7.031   0.853
78329SOL     OW36883   9.762  11.135   3.734
78329SOL    HW136884   9.770  11.096   3.821
78329SOL    HW236885   9.737  11.062   3.677
78330SOL     OW36886   0.749  14.183   9.180
78330SOL    HW136887   0.656  14.162   9.181
78330SOL    HW236888   0.766  14.212   9.090
78331SOL     OW36889  12.590   1.288   1.255
78331SOL    HW136890  12.500   1.273   1.227
78331SOL    HW236891  12.644   1.258   1.182
78332SOL     OW36892   4.161   7.467   2.165
78332SOL    HW136893   4.156   7.501   2.254
78332SOL    HW236894   4.077   7.422   2.152
78333SOL     OW36895   2.803  10.841   5.711
78333SOL    HW136896   2.872  10.849   5.644
78333SOL    HW236897   2.760  10.758   5.691
78334SOL     OW36898   9.676   9.419  14.854
78334SOL    HW136899   9.679   9.346   0.045
78334SOL    HW236900   9.743   9.396  14.789
78335SOL     OW36901  12.061   0.992   0.187
78335SOL    HW136902  12.156   1.004   0.192
78335SOL    HW236903  12.050   0.903   0.154
78336SOL     OW36904   8.064   5.649   2.635
78336SOL    HW136905   8.069   5.741   2.660
78336SOL    HW236906   8.046   5.603   2.717
78337SOL     OW36907   5.490   2.681   2.219
78337SOL    HW136908   5.466   2.758   2.168
78337SOL    HW236909   5.418   2.669   2.280
78338SOL     OW36910   8.388   6.960  11.399
78338SOL    HW136911   8.371   6.889  11.461
78338SOL    HW236912   8.391   6.917  11.313
78339SOL     OW36913   7.418   7.743  14.835
78339SOL    HW136914   7.344   7.763  14.778
78339SOL    HW236915   7.380   7.734   0.051
78340SOL     OW36916  11.203  12.967   9.526
78340SOL    HW136917  11.296  12.982   9.538
78340SOL    HW236918  11.177  12.912   9.600
78341SOL     OW36919   9.522   7.948   0.445
78341SOL    HW136920   9.451   7.962   0.382
78341SOL    HW236921   9.602   7.967   0.395
78342SOL     OW36922   3.555   8.450   8.664
78342SOL    HW136923   3.543   8.543   8.649
78342SOL    HW236924   3.555   8.411   8.576
78343SOL     OW36925   9.728  11.768   6.002
78343SOL    HW136926   9.664  11.826   6.043
78343SOL    HW236927   9.726  11.791   5.909
78344SOL     OW36928   3.360  13.036  11.573
78344SOL    HW136929   3.330  13.004  11.658
78344SOL    HW236930   3.279  13.051  11.523
78345SOL     OW36931   4.379   8.893   8.555
78345SOL    HW136932   4.438   8.949   8.504
78345SOL    HW236933   4.383   8.808   8.511
78346SOL     OW36934   8.193   9.686  11.319
78346SOL    HW136935   8.154   9.647  11.241
78346SOL    HW236936   8.164   9.631  11.392
78347SOL     OW36937   5.921  10.000  12.952
78347SOL    HW136938   5.998   9.955  12.918
78347SOL    HW236939   5.916  10.082  12.902
78348SOL     OW36940   3.585  13.317  12.747
78348SOL    HW136941   3.643  13.279  12.813
78348SOL    HW236942   3.596  13.412  12.756
78349SOL     OW36943   5.374   8.445   9.823
78349SOL    HW136944   5.337   8.481   9.742
78349SOL    HW236945   5.451   8.396   9.795
78350SOL     OW36946   4.883   7.983   1.563
78350SOL    HW136947   4.889   7.949   1.474
78350SOL    HW236948   4.869   8.077   1.553
78351SOL     OW36949   6.130   3.318   3.162
78351SOL    HW136950   6.207   3.277   3.201
78351SOL    HW236951   6.154   3.410   3.153
78352SOL     OW36952   5.247   5.297  14.600
78352SOL    HW136953   5.312   5.263  14.538
78352SOL    HW236954   5.222   5.220  14.652
78353SOL     OW36955  13.170  11.188  11.416
78353SOL    HW136956  13.212  11.266  11.453
78353SOL    HW236957  13.161  11.207  11.322
78354SOL     OW36958  10.039   1.256   6.560
78354SOL    HW136959  10.115   1.292   6.607
78354SOL    HW236960   9.975   1.237   6.628
78355SOL     OW36961  13.999  13.071  13.813
78355SOL    HW136962  14.085  13.047  13.848
78355SOL    HW236963  13.964  13.134  13.875
78356SOL     OW36964  13.436   4.551   0.397
78356SOL    HW136965  13.423   4.490   0.470
78356SOL    HW236966  13.525   4.585   0.410
78357SOL     OW36967   3.997   5.137   4.727
78357SOL    HW136968   3.951   5.206   4.679
78357SOL    HW236969   4.005   5.171   4.816
78358SOL     OW36970   7.963   7.612  11.996
78358SOL    HW136971   7.923   7.645  12.077
78358SOL    HW236972   8.035   7.673  11.979
78359SOL     OW36973   4.748   9.948  12.200
78359SOL    HW136974   4.791   9.988  12.124
78359SOL    HW236975   4.718   9.863  12.169
78360SOL     OW36976  13.870   0.429   0.168
78360SOL    HW136977  13.953   0.397   0.132
78360SOL    HW236978  13.867   0.521   0.141
78361SOL     OW36979   7.708   5.382  11.277
78361SOL    HW136980   7.707   5.287  11.275
78361SOL    HW236981   7.792   5.404  11.318
78362SOL     OW36982   1.733   6.067  10.206
78362SOL    HW136983   1.714   5.974  10.195
78362SOL    HW236984   1.774   6.094  10.124
78363SOL     OW36985   4.782   8.372   3.955
78363SOL    HW136986   4.861   8.339   3.997
78363SOL    HW236987   4.804   8.378   3.862
78364SOL     OW36988   9.941   9.087   9.840
78364SOL    HW136989   9.919   9.088   9.933
78364SOL    HW236990  10.028   9.048   9.836
78365SOL     OW36991   4.168  12.581   1.843
78365SOL    HW136992   4.095  12.642   1.835
78365SOL    HW236993   4.177  12.543   1.756
78366SOL     OW36994   4.138  11.481   4.744
78366SOL    HW136995   4.096  11.451   4.825
78366SOL    HW236996   4.087  11.557   4.718
78367SOL     OW36997   2.128  10.161   8.623
78367SOL    HW136998   2.087  10.075   8.629
78367SOL    HW236999   2.202  10.149   8.564
78368SOL     OW37000   0.567   1.813   6.559
78368SOL    HW137001   0.499   1.813   6.492
78368SOL    HW237002   0.551   1.892   6.610
78369SOL     OW37003   7.000   0.989   0.151
78369SOL    HW137004   6.934   1.013   0.085
78369SOL    HW237005   6.983   1.048   0.224
78370SOL     OW37006   6.972   7.458   4.987
78370SOL    HW137007   6.971   7.536   4.933
78370SOL    HW237008   6.970   7.385   4.924
78371SOL     OW37009   2.968   8.546   1.593
78371SOL    HW137010   2.985   8.562   1.500
78371SOL    HW237011   2.881   8.584   1.608
78372SOL     OW37012   7.171  13.086   3.666
78372SOL    HW137013   7.202  13.001   3.697
78372SOL    HW237014   7.077  13.085   3.682
78373SOL     OW37015   4.224   6.784  13.524
78373SOL    HW137016   4.217   6.690  13.541
78373SOL    HW237017   4.136   6.818  13.540
78374SOL     OW37018  12.744   1.131  10.430
78374SOL    HW137019  12.761   1.044  10.394
78374SOL    HW237020  12.830   1.173  10.435
78375SOL     OW37021  11.719  11.726   3.264
78375SOL    HW137022  11.798  11.692   3.224
78375SOL    HW237023  11.723  11.697   3.355
78376SOL     OW37024   1.927   3.771   1.087
78376SOL    HW137025   2.020   3.792   1.080
78376SOL    HW237026   1.921   3.679   1.060
78377SOL     OW37027   6.604   6.740   2.032
78377SOL    HW137028   6.562   6.821   2.004
78377SOL    HW237029   6.648   6.707   1.954
78378SOL     OW37030   8.576  13.582   9.212
78378SOL    HW137031   8.567  13.517   9.281
78378SOL    HW237032   8.659  13.562   9.170
78379SOL     OW37033  13.051   6.472   3.468
78379SOL    HW137034  13.146   6.472   3.473
78379SOL    HW237035  13.031   6.439   3.381
78380SOL     OW37036   9.863   7.672   9.071
78380SOL    HW137037   9.948   7.627   9.067
78380SOL    HW237038   9.824   7.641   9.153
78381SOL     OW37039   9.870  13.231  13.877
78381SOL    HW137040   9.813  13.271  13.811
78381SOL    HW237041   9.938  13.186  13.826
78382SOL     OW37042   4.606   1.042   5.842
78382SOL    HW137043   4.672   0.992   5.794
78382SOL    HW237044   4.529   0.985   5.842
78383SOL     OW37045   7.588  10.075   1.050
78383SOL    HW137046   7.594  10.133   1.125
78383SOL    HW237047   7.577  10.133   0.975
78384SOL     OW37048   8.588   6.038   2.198
78384SOL    HW137049   8.528   5.969   2.168
78384SOL    HW237050   8.532   6.113   2.214
78385SOL     OW37051  14.863   6.835   9.147
78385SOL    HW137052   0.008   6.848   9.241
78385SOL    HW237053  14.794   6.898   9.127
78386SOL     OW37054   3.231   1.424   7.055
78386SOL    HW137055   3.271   1.367   7.121
78386SOL    HW237056   3.225   1.369   6.977
78387SOL     OW37057   1.834   1.400  13.564
78387SOL    HW137058   1.834   1.450  13.483
78387SOL    HW237059   1.827   1.466  13.633
78388SOL     OW37060   2.147  12.828  13.009
78388SOL    HW137061   2.124  12.876  13.089
78388SOL    HW237062   2.069  12.777  12.988
78389SOL     OW37063   5.377   6.348   0.934
78389SOL    HW137064   5.438   6.394   0.992
78389SOL    HW237065   5.418   6.353   0.847
78390SOL     OW37066   4.598   6.538   4.734
78390SOL    HW137067   4.633   6.459   4.775
78390SOL    HW237068   4.662   6.606   4.753
78391SOL     OW37069   1.164   9.494  13.747
78391SOL    HW137070   1.227   9.548  13.700
78391SOL    HW237071   1.216   9.423  13.784
78392SOL     OW37072  13.077   0.705   3.739
78392SOL    HW137073  13.108   0.632   3.792
78392SOL    HW237074  12.993   0.728   3.778
78393SOL     OW37075   8.088  12.523   3.828
78393SOL    HW137076   8.084  12.588   3.898
78393SOL    HW237077   8.093  12.439   3.874
78394SOL     OW37078   7.839  14.616   6.212
78394SOL    HW137079   7.784  14.667   6.153
78394SOL    HW237080   7.876  14.547   6.157
78395SOL     OW37081  14.343  10.702   7.404
78395SOL    HW137082  14.269  10.715   7.462
78395SOL    HW237083  14.395  10.782   7.412
78396SOL     OW37084   6.970   9.814   9.216
78396SOL    HW137085   6.914   9.830   9.292
78396SOL    HW237086   7.021   9.737   9.240
78397SOL     OW37087  13.197   6.490  11.086
78397SOL    HW137088  13.173   6.522  11.173
78397SOL    HW237089  13.176   6.397  11.087
78398SOL     OW37090   0.776   5.948  11.339
78398SOL    HW137091   0.741   5.958  11.251
78398SOL    HW237092   0.761   5.856  11.361
78399SOL     OW37093   2.020   2.975   3.125
78399SOL    HW137094   2.091   3.039   3.113
78399SOL    HW237095   1.959   2.993   3.054
78400SOL     OW37096  13.457   6.106  13.592
78400SOL    HW137097  13.418   6.189  13.619
78400SOL    HW237098  13.391   6.065  13.535
78401SOL     OW37099   5.138  11.045  11.504
78401SOL    HW137100   5.222  11.000  11.493
78401SOL    HW237101   5.108  11.062  11.415
78402SOL     OW37102   9.985  11.689   7.210
78402SOL    HW137103   9.948  11.613   7.166
78402SOL    HW237104   9.932  11.699   7.290
78403SOL     OW37105   5.415   8.770  13.877
78403SOL    HW137106   5.360   8.713  13.823
78403SOL    HW237107   5.390   8.859  13.850
78404SOL     OW37108   8.849   3.635  11.296
78404SOL    HW137109   8.819   3.560  11.347
78404SOL    HW237110   8.771   3.667  11.250
78405SOL     OW37111   1.911   1.267  11.230
78405SOL    HW137112   1.875   1.354  11.251
78405SOL    HW237113   2.005   1.282  11.219
78406SOL     OW37114   2.571   8.531   9.276
78406SOL    HW137115   2.548   8.534   9.369
78406SOL    HW237116   2.624   8.452   9.267
78407SOL     OW37117  11.905  10.764   6.475
78407SOL    HW137118  11.906  10.767   6.570
78407SOL    HW237119  11.990  10.800   6.449
78408SOL     OW37120  12.395  11.081   4.875
78408SOL    HW137121  12.481  11.066   4.835
78408SOL    HW237122  12.347  10.999   4.860
78409SOL     OW37123   8.778  12.552   2.957
78409SOL    HW137124   8.832  12.564   2.879
78409SOL    HW237125   8.840  12.557   3.030
78410SOL     OW37126   1.496   4.637   4.480
78410SOL    HW137127   1.418   4.653   4.426
78410SOL    HW237128   1.569   4.666   4.425
78411SOL     OW37129   3.593  11.536   8.056
78411SOL    HW137130   3.498  11.544   8.043
78411SOL    HW237131   3.623  11.625   8.072
78412SOL     OW37132   0.969   5.139  12.586
78412SOL    HW137133   0.907   5.210  12.570
78412SOL    HW237134   0.925   5.082  12.650
78413SOL     OW37135   1.977   8.788  12.406
78413SOL    HW137136   1.980   8.883  12.398
78413SOL    HW237137   1.899   8.762  12.357
78414SOL     OW37138   1.567   0.569   9.907
78414SOL    HW137139   1.616   0.566   9.824
78414SOL    HW237140   1.512   0.646   9.899
78415SOL     OW37141  10.973   8.228   6.656
78415SOL    HW137142  11.011   8.190   6.576
78415SOL    HW237143  11.004   8.319   6.656
78416SOL     OW37144   3.658   9.613  11.494
78416SOL    HW137145   3.587   9.553  11.517
78416SOL    HW237146   3.616   9.681  11.441
78417SOL     OW37147   4.904   9.168  12.736
78417SOL    HW137148   4.936   9.157  12.825
78417SOL    HW237149   4.908   9.262  12.719
78418SOL     OW37150  10.174   5.783   6.979
78418SOL    HW137151  10.214   5.865   7.007
78418SOL    HW237152  10.086   5.808   6.949
78419SOL     OW37153  14.705   2.697  14.050
78419SOL    HW137154  14.693   2.630  13.982
78419SOL    HW237155  14.632   2.757  14.038
78420SOL     OW37156   1.693   1.880   1.424
78420SOL    HW137157   1.699   1.917   1.512
78420SOL    HW237158   1.750   1.803   1.426
78421SOL     OW37159   3.701  11.920   0.148
78421SOL    HW137160   3.749  11.923   0.065
78421SOL    HW237161   3.757  11.867   0.205
78422SOL     OW37162   1.380   5.295  10.328
78422SOL    HW137163   1.351   5.303  10.237
78422SOL    HW237164   1.324   5.355  10.377
78423SOL     OW37165   9.004  11.897   4.084
78423SOL    HW137166   9.024  11.875   4.175
78423SOL    HW237167   9.009  11.813   4.038
78424SOL     OW37168  10.288   5.768   8.340
78424SOL    HW137169  10.229   5.822   8.393
78424SOL    HW237170  10.237   5.744   8.263
78425SOL     OW37171   5.670   5.028   9.540
78425SOL    HW137172   5.654   5.059   9.629
78425SOL    HW237173   5.730   5.093   9.503
78426SOL     OW37174  13.326  12.140  12.747
78426SOL    HW137175  13.254  12.110  12.803
78426SOL    HW237176  13.394  12.073  12.758
78427SOL     OW37177   3.325   2.871   9.443
78427SOL    HW137178   3.271   2.867   9.522
78427SOL    HW237179   3.397   2.929   9.466
78428SOL     OW37180   7.530   5.158  13.101
78428SOL    HW137181   7.554   5.250  13.116
78428SOL    HW237182   7.605   5.108  13.134
78429SOL     OW37183   1.982  13.785   5.410
78429SOL    HW137184   2.031  13.829   5.480
78429SOL    HW237185   1.893  13.778   5.444
78430SOL     OW37186  12.862  14.557   4.605
78430SOL    HW137187  12.828  14.599   4.526
78430SOL    HW237188  12.953  14.586   4.610
78431SOL     OW37189   4.966  14.363   9.100
78431SOL    HW137190   4.986  14.443   9.149
78431SOL    HW237191   4.872  14.350   9.112
78432SOL     OW37192  13.336   9.793   7.308
78432SOL    HW137193  13.283   9.837   7.241
78432SOL    HW237194  13.381   9.723   7.262
78433SOL     OW37195   1.537   9.215  14.391
78433SOL    HW137196   1.499   9.252  14.312
78433SOL    HW237197   1.508   9.273  14.462
78434SOL     OW37198   9.042  11.104   1.170
78434SOL    HW137199   9.011  11.140   1.087
78434SOL    HW237200   9.127  11.066   1.149
78435SOL     OW37201   2.907  14.859  11.596
78435SOL    HW137202   2.908  14.774  11.553
78435SOL    HW237203   2.905   0.051  11.525
78436SOL     OW37204   5.511   8.106   0.898
78436SOL    HW137205   5.490   8.170   0.830
78436SOL    HW237206   5.541   8.029   0.849
78437SOL     OW37207   3.907   0.000  12.458
78437SOL    HW137208   3.845   0.007  12.385
78437SOL    HW237209   3.939  14.782  12.454
78438SOL     OW37210   2.393   0.367   5.670
78438SOL    HW137211   2.300   0.346   5.676
78438SOL    HW237212   2.395   0.455   5.631
78439SOL     OW37213  11.180   2.801  13.101
78439SOL    HW137214  11.086   2.816  13.107
78439SOL    HW237215  11.191   2.753  13.018
78440SOL     OW37216  14.528   4.808   1.815
78440SOL    HW137217  14.595   4.740   1.820
78440SOL    HW237218  14.572   4.882   1.772
78441SOL     OW37219   1.778   3.019  13.960
78441SOL    HW137220   1.693   2.997  13.922
78441SOL    HW237221   1.805   3.098  13.913
78442SOL     OW37222  11.453  12.692   4.902
78442SOL    HW137223  11.451  12.650   4.816
78442SOL    HW237224  11.392  12.765   4.894
78443SOL     OW37225   4.171  12.258   4.511
78443SOL    HW137226   4.243  12.197   4.525
78443SOL    HW237227   4.103  12.229   4.571
78444SOL     OW37228   6.398   6.971   0.185
78444SOL    HW137229   6.423   7.015   0.266
78444SOL    HW237230   6.359   7.039   0.131
78445SOL     OW37231  13.602  10.810   3.335
78445SOL    HW137232  13.595  10.747   3.407
78445SOL    HW237233  13.579  10.894   3.374
78446SOL     OW37234  14.303   2.081   0.804
78446SOL    HW137235  14.317   2.027   0.881
78446SOL    HW237236  14.330   2.169   0.831
78447SOL     OW37237   1.074  13.351   2.125
78447SOL    HW137238   1.097  13.259   2.110
78447SOL    HW237239   1.117  13.373   2.208
78448SOL     OW37240   5.571   0.409   6.846
78448SOL    HW137241   5.561   0.451   6.760
78448SOL    HW237242   5.663   0.418   6.867
78449SOL     OW37243  12.004   8.798  14.691
78449SOL    HW137244  11.910   8.799  14.673
78449SOL    HW237245  12.045   8.783  14.606
78450SOL     OW37246   3.623   7.530   4.845
78450SOL    HW137247   3.593   7.535   4.936
78450SOL    HW237248   3.712   7.495   4.850
78451SOL     OW37249   5.962   4.841   9.902
78451SOL    HW137250   5.974   4.860   9.810
78451SOL    HW237251   6.044   4.801   9.930
78452SOL     OW37252   0.719   9.169   0.037
78452SOL    HW137253   0.779   9.106  14.870
78452SOL    HW237254   0.687   9.127   0.117
78453SOL     OW37255   6.433  12.010   0.472
78453SOL    HW137256   6.410  12.090   0.518
78453SOL    HW237257   6.529  12.010   0.468
78454SOL     OW37258  13.898   0.033   5.786
78454SOL    HW137259  13.920   0.070   5.871
78454SOL    HW237260  13.972   0.058   5.730
78455SOL     OW37261   8.192   2.705   6.275
78455SOL    HW137262   8.239   2.721   6.194
78455SOL    HW237263   8.260   2.700   6.342
78456SOL     OW37264  13.571   9.701  12.078
78456SOL    HW137265  13.561   9.742  12.164
78456SOL    HW237266  13.526   9.617  12.086
78457SOL     OW37267   8.870  10.697   8.425
78457SOL    HW137268   8.798  10.638   8.402
78457SOL    HW237269   8.853  10.723   8.515
78458SOL     OW37270   2.547   7.737   2.407
78458SOL    HW137271   2.558   7.832   2.413
78458SOL    HW237272   2.456   7.725   2.382
78459SOL     OW37273   2.580   8.525  14.055
78459SOL    HW137274   2.558   8.616  14.074
78459SOL    HW237275   2.521   8.474  14.112
78460SOL     OW37276   3.615   1.584  10.934
78460SOL    HW137277   3.575   1.502  10.906
78460SOL    HW237278   3.643   1.568  11.024
78461SOL     OW37279   6.286   1.761  11.564
78461SOL    HW137280   6.368   1.730  11.525
78461SOL    HW237281   6.285   1.721  11.651
78462SOL     OW37282   1.865   9.539   6.073
78462SOL    HW137283   1.872   9.545   6.168
78462SOL    HW237284   1.801   9.606   6.049
78463SOL     OW37285   2.527  13.327   5.943
78463SOL    HW137286   2.533  13.275   6.023
78463SOL    HW237287   2.539  13.265   5.872
78464SOL     OW37288   7.854   8.304   3.754
78464SOL    HW137289   7.794   8.370   3.789
78464SOL    HW237290   7.853   8.233   3.818
78465SOL     OW37291   2.727   3.580   8.009
78465SOL    HW137292   2.793   3.615   8.070
78465SOL    HW237293   2.717   3.648   7.943
78466SOL     OW37294  12.649  14.651   4.204
78466SOL    HW137295  12.619  14.736   4.172
78466SOL    HW237296  12.659  14.664   4.299
78467SOL     OW37297  10.405   5.329   4.339
78467SOL    HW137298  10.364   5.409   4.306
78467SOL    HW237299  10.380   5.262   4.275
78468SOL     OW37300   4.308   1.897   4.026
78468SOL    HW137301   4.292   1.906   4.120
78468SOL    HW237302   4.342   1.982   4.000
78469SOL     OW37303   1.980  12.345  13.089
78469SOL    HW137304   1.950  12.345  13.180
78469SOL    HW237305   1.900  12.361  13.038
78470SOL     OW37306  11.103   6.256   9.029
78470SOL    HW137307  11.018   6.244   8.988
78470SOL    HW237308  11.162   6.199   8.979
78471SOL     OW37309  14.251   6.089   0.048
78471SOL    HW137310  14.296   6.168   0.016
78471SOL    HW237311  14.159   6.116   0.057
78472SOL     OW37312   0.508   7.119  12.166
78472SOL    HW137313   0.505   7.152  12.076
78472SOL    HW237314   0.425   7.071  12.177
78473SOL     OW37315  13.435  11.193   8.388
78473SOL    HW137316  13.505  11.151   8.438
78473SOL    HW237317  13.393  11.252   8.450
78474SOL     OW37318  12.006   5.580   9.879
78474SOL    HW137319  11.931   5.620   9.835
78474SOL    HW237320  11.994   5.486   9.866
78475SOL     OW37321   5.553   1.847   7.374
78475SOL    HW137322   5.547   1.940   7.394
78475SOL    HW237323   5.634   1.819   7.418
78476SOL     OW37324  13.906   3.833   5.531
78476SOL    HW137325  13.892   3.880   5.449
78476SOL    HW237326  13.869   3.889   5.598
78477SOL     OW37327  13.263   9.264  12.550
78477SOL    HW137328  13.222   9.281  12.465
78477SOL    HW237329  13.322   9.191  12.534
78478SOL     OW37330  11.592   2.810   1.635
78478SOL    HW137331  11.512   2.784   1.680
78478SOL    HW237332  11.658   2.816   1.705
78479SOL     OW37333   5.502   8.650   9.220
78479SOL    HW137334   5.579   8.702   9.242
78479SOL    HW237335   5.460   8.700   9.149
78480SOL     OW37336  13.971   2.349   5.551
78480SOL    HW137337  14.059   2.348   5.515
78480SOL    HW237338  13.973   2.284   5.622
78481SOL     OW37339   7.893   9.025  11.434
78481SOL    HW137340   7.803   9.052  11.412
78481SOL    HW237341   7.942   9.040  11.353
78482SOL     OW37342   1.059  14.618   8.407
78482SOL    HW137343   1.126  14.597   8.472
78482SOL    HW237344   1.075  14.556   8.335
78483SOL     OW37345   1.729   4.501   6.216
78483SOL    HW137346   1.726   4.571   6.281
78483SOL    HW237347   1.699   4.542   6.135
78484SOL     OW37348   5.355  12.586  10.671
78484SOL    HW137349   5.388  12.497  10.677
78484SOL    HW237350   5.420  12.633  10.619
78485SOL     OW37351  12.729   8.682  11.892
78485SOL    HW137352  12.670   8.705  11.963
78485SOL    HW237353  12.788   8.616  11.929
78486SOL     OW37354   7.107   7.146   8.128
78486SOL    HW137355   7.097   7.057   8.096
78486SOL    HW237356   7.077   7.142   8.219
78487SOL     OW37357   0.488  11.388  14.568
78487SOL    HW137358   0.475  11.462  14.509
78487SOL    HW237359   0.529  11.427  14.646
78488SOL     OW37360   0.068   4.191  11.813
78488SOL    HW137361   0.120   4.230  11.744
78488SOL    HW237362   0.124   4.122  11.849
78489SOL     OW37363  13.596  13.569   5.376
78489SOL    HW137364  13.667  13.572   5.311
78489SOL    HW237365  13.552  13.486   5.358
78490SOL     OW37366   8.032   9.535  13.198
78490SOL    HW137367   8.005   9.483  13.123
78490SOL    HW237368   8.110   9.490  13.231
78491SOL     OW37369  13.835   6.200   9.168
78491SOL    HW137370  13.815   6.112   9.136
78491SOL    HW237371  13.898   6.235   9.104
78492SOL     OW37372   5.994   8.714  11.766
78492SOL    HW137373   6.001   8.683  11.676
78492SOL    HW237374   6.076   8.761  11.782
78493SOL     OW37375   6.258   8.543  10.034
78493SOL    HW137376   6.314   8.598   9.979
78493SOL    HW237377   6.240   8.596  10.111
78494SOL     OW37378  12.487   3.809   3.437
78494SOL    HW137379  12.579   3.829   3.419
78494SOL    HW237380  12.447   3.799   3.351
78495SOL     OW37381   6.553   8.616   7.838
78495SOL    HW137382   6.462   8.631   7.863
78495SOL    HW237383   6.555   8.632   7.744
78496SOL     OW37384   2.441   8.743   0.679
78496SOL    HW137385   2.516   8.800   0.663
78496SOL    HW237386   2.390   8.788   0.745
78497SOL     OW37387   2.285  10.829   0.886
78497SOL    HW137388   2.218  10.895   0.904
78497SOL    HW237389   2.238  10.746   0.890
78498SOL     OW37390   7.971   5.873   7.333
78498SOL    HW137391   7.928   5.790   7.354
78498SOL    HW237392   7.900   5.937   7.330
78499SOL     OW37393   4.790  13.742   7.644
78499SOL    HW137394   4.742  13.822   7.624
78499SOL    HW237395   4.872  13.772   7.684
78500SOL     OW37396   0.361   9.450  13.838
78500SOL    HW137397   0.309   9.444  13.918
78500SOL    HW237398   0.443   9.492  13.865
78501SOL     OW37399   1.216  12.442  14.481
78501SOL    HW137400   1.309  12.433  14.504
78501SOL    HW237401   1.189  12.354  14.455
78502SOL     OW37402   2.004   0.496   3.480
78502SOL    HW137403   1.978   0.588   3.475
78502SOL    HW237404   2.099   0.498   3.479
78503SOL     OW37405  13.952   6.112   9.751
78503SOL    HW137406  14.018   6.126   9.684
78503SOL    HW237407  13.952   6.192   9.802
78504SOL     OW37408  13.680   3.920   8.478
78504SOL    HW137409  13.610   3.977   8.508
78504SOL    HW237410  13.737   3.910   8.554
78505SOL     OW37411   7.947   7.151   8.558
78505SOL    HW137412   7.924   7.205   8.633
78505SOL    HW237413   7.969   7.213   8.489
78506SOL     OW37414  12.196  10.432   5.225
78506SOL    HW137415  12.243  10.359   5.266
78506SOL    HW237416  12.126  10.453   5.286
78507SOL     OW37417  10.599   8.871   3.356
78507SOL    HW137418  10.531   8.938   3.362
78507SOL    HW237419  10.636   8.881   3.268
78508SOL     OW37420   6.209   1.287   3.464
78508SOL    HW137421   6.157   1.337   3.526
78508SOL    HW237422   6.147   1.258   3.397
78509SOL     OW37423   3.918   2.818  10.409
78509SOL    HW137424   3.889   2.851  10.494
78509SOL    HW237425   3.917   2.895  10.352
78510SOL     OW37426  10.697   7.636  14.302
78510SOL    HW137427  10.637   7.692  14.253
78510SOL    HW237428  10.645   7.606  14.378
78511SOL     OW37429   3.959   4.911   4.281
78511SOL    HW137430   4.003   4.834   4.316
78511SOL    HW237431   3.902   4.877   4.212
78512SOL     OW37432   1.720  12.939   2.428
78512SOL    HW137433   1.808  12.904   2.439
78512SOL    HW237434   1.720  13.022   2.475
78513SOL     OW37435   3.037   0.600   8.832
78513SOL    HW137436   3.065   0.509   8.838
78513SOL    HW237437   3.067   0.630   8.746
78514SOL     OW37438   1.377  10.449   7.680
78514SOL    HW137439   1.383  10.501   7.760
78514SOL    HW237440   1.347  10.511   7.614
78515SOL     OW37441  14.778   4.976  10.421
78515SOL    HW137442  14.721   5.006  10.493
78515SOL    HW237443  14.865   5.005  10.446
78516SOL     OW37444   9.575  14.394   0.386
78516SOL    HW137445   9.600  14.485   0.369
78516SOL    HW237446   9.485  14.388   0.355
78517SOL     OW37447   4.574  12.818   2.282
78517SOL    HW137448   4.631  12.865   2.221
78517SOL    HW237449   4.570  12.728   2.248
78518SOL     OW37450   2.392   4.191   8.194
78518SOL    HW137451   2.396   4.285   8.212
78518SOL    HW237452   2.455   4.178   8.124
78519SOL     OW37453  12.341   0.880  11.775
78519SOL    HW137454  12.432   0.868  11.747
78519SOL    HW237455  12.343   0.957  11.831
78520SOL     OW37456   0.580  13.013   6.529
78520SOL    HW137457   0.608  12.923   6.545
78520SOL    HW237458   0.491  13.017   6.564
78521SOL     OW37459  10.417  13.798   7.645
78521SOL    HW137460  10.351  13.862   7.669
78521SOL    HW237461  10.373  13.738   7.585
78522SOL     OW37462   1.943  12.259   6.694
78522SOL    HW137463   1.978  12.344   6.721
78522SOL    HW237464   1.858  12.279   6.656
78523SOL     OW37465   1.258   4.062  11.558
78523SOL    HW137466   1.201   3.985  11.571
78523SOL    HW237467   1.271   4.066  11.463
78524SOL     OW37468  12.324  10.701   4.085
78524SOL    HW137469  12.379  10.671   4.157
78524SOL    HW237470  12.316  10.795   4.099
78525SOL     OW37471   9.133   6.895   3.249
78525SOL    HW137472   9.137   6.837   3.173
78525SOL    HW237473   9.224   6.922   3.264
78526SOL     OW37474  14.813   1.839   8.091
78526SOL    HW137475  14.828   1.932   8.075
78526SOL    HW237476   0.020   1.796   8.058
78527SOL     OW37477  10.572  13.575  10.731
78527SOL    HW137478  10.556  13.602  10.640
78527SOL    HW237479  10.587  13.481  10.725
78528SOL     OW37480   5.223   5.669   2.900
78528SOL    HW137481   5.200   5.656   2.808
78528SOL    HW237482   5.142   5.698   2.942
78529SOL     OW37483   0.529  14.592   1.932
78529SOL    HW137484   0.439  14.603   1.902
78529SOL    HW237485   0.566  14.681   1.929
78530SOL     OW37486  10.014  12.639   9.034
78530SOL    HW137487   9.922  12.654   9.009
78530SOL    HW237488  10.013  12.636   9.129
78531SOL     OW37489  13.225   1.517   1.264
78531SOL    HW137490  13.292   1.456   1.296
78531SOL    HW237491  13.271   1.601   1.256
78532SOL     OW37492   7.328   0.149  14.846
78532SOL    HW137493   7.253   0.096  14.821
78532SOL    HW237494   7.358   0.189  14.765
78533SOL     OW37495  14.797   6.382   4.550
78533SOL    HW137496  14.860   6.446   4.582
78533SOL    HW237497  14.731   6.433   4.504
78534SOL     OW37498   1.489  14.835  12.321
78534SOL    HW137499   1.517  14.745  12.333
78534SOL    HW237500   1.423  14.831  12.251
78535SOL     OW37501   1.988   4.510   0.101
78535SOL    HW137502   2.034   4.534   0.181
78535SOL    HW237503   2.056   4.500   0.035
78536SOL     OW37504   2.488  10.402   3.916
78536SOL    HW137505   2.421  10.460   3.881
78536SOL    HW237506   2.568  10.426   3.869
78537SOL     OW37507  14.133  10.091   6.739
78537SOL    HW137508  14.227  10.078   6.753
78537SOL    HW237509  14.105  10.014   6.689
78538SOL     OW37510   1.282  13.805   5.410
78538SOL    HW137511   1.233  13.791   5.330
78538SOL    HW237512   1.325  13.722   5.428
78539SOL     OW37513   4.130   8.932  14.131
78539SOL    HW137514   4.048   8.952  14.177
78539SOL    HW237515   4.195   8.924  14.200
78540SOL     OW37516   9.108   4.196   5.312
78540SOL    HW137517   9.118   4.101   5.324
78540SOL    HW237518   9.013   4.208   5.300
78541SOL     OW37519   3.328   3.774   5.673
78541SOL    HW137520   3.403   3.731   5.715
78541SOL    HW237521   3.275   3.805   5.747
78542SOL     OW37522   0.389   5.724  12.171
78542SOL    HW137523   0.472   5.731  12.218
78542SOL    HW237524   0.392   5.637  12.131
78543SOL     OW37525  11.688  13.088   8.251
78543SOL    HW137526  11.724  13.067   8.165
78543SOL    HW237527  11.697  13.007   8.302
78544SOL     OW37528  13.155   3.382   4.430
78544SOL    HW137529  13.158   3.315   4.362
78544SOL    HW237530  13.135   3.463   4.382
78545SOL     OW37531   9.112   3.204   4.563
78545SOL    HW137532   9.076   3.129   4.610
78545SOL    HW237533   9.181   3.238   4.620
78546SOL     OW37534   8.672  13.878   2.009
78546SOL    HW137535   8.662  13.892   1.915
78546SOL    HW237536   8.720  13.795   2.016
78547SOL     OW37537  14.504   7.875  12.153
78547SOL    HW137538  14.509   7.890  12.247
78547SOL    HW237539  14.487   7.961  12.116
78548SOL     OW37540  11.622   8.275   8.475
78548SOL    HW137541  11.657   8.246   8.391
78548SOL    HW237542  11.530   8.247   8.474
78549SOL     OW37543   1.704   2.063   9.576
78549SOL    HW137544   1.781   2.106   9.613
78549SOL    HW237545   1.675   2.002   9.645
78550SOL     OW37546  14.225   3.448   2.019
78550SOL    HW137547  14.177   3.530   2.011
78550SOL    HW237548  14.282   3.460   2.095
78551SOL     OW37549   5.752   5.441   3.821
78551SOL    HW137550   5.717   5.380   3.886
78551SOL    HW237551   5.788   5.386   3.752
78552SOL     OW37552   5.406   7.143   9.051
78552SOL    HW137553   5.396   7.184   9.137
78552SOL    HW237554   5.319   7.109   9.031
78553SOL     OW37555  11.189   1.289   9.999
78553SOL    HW137556  11.205   1.242   9.917
78553SOL    HW237557  11.162   1.220  10.060
78554SOL     OW37558   4.576   9.073  10.774
78554SOL    HW137559   4.499   9.056  10.828
78554SOL    HW237560   4.598   8.987  10.737
78555SOL     OW37561  12.795   7.240   0.392
78555SOL    HW137562  12.876   7.247   0.442
78555SOL    HW237563  12.773   7.147   0.395
78556SOL     OW37564  14.467   9.025   9.873
78556SOL    HW137565  14.449   9.002   9.964
78556SOL    HW237566  14.550   9.073   9.876
78557SOL     OW37567   8.259  10.417  11.157
78557SOL    HW137568   8.185  10.358  11.171
78557SOL    HW237569   8.251  10.445  11.066
78558SOL     OW37570   6.718  12.074   8.747
78558SOL    HW137571   6.664  12.028   8.811
78558SOL    HW237572   6.789  12.112   8.798
78559SOL     OW37573   1.919   7.403   3.695
78559SOL    HW137574   1.983   7.378   3.629
78559SOL    HW237575   1.972   7.433   3.769
78560SOL     OW37576  10.284   5.825   4.804
78560SOL    HW137577  10.250   5.804   4.717
78560SOL    HW237578  10.280   5.742   4.852
78561SOL     OW37579   0.968  11.526  13.029
78561SOL    HW137580   1.018  11.451  12.996
78561SOL    HW237581   0.925  11.562  12.951
78562SOL     OW37582  13.307   7.836   0.567
78562SOL    HW137583  13.292   7.746   0.536
78562SOL    HW237584  13.293   7.890   0.489
78563SOL     OW37585  12.793   7.001  12.232
78563SOL    HW137586  12.756   7.023  12.147
78563SOL    HW237587  12.735   6.935  12.268
78564SOL     OW37588   5.669   6.678  10.637
78564SOL    HW137589   5.609   6.708  10.569
78564SOL    HW237590   5.640   6.724  10.716
78565SOL     OW37591   1.366   4.887   4.989
78565SOL    HW137592   1.341   4.950   4.921
78565SOL    HW237593   1.458   4.905   5.006
78566SOL     OW37594   8.189   8.440  10.409
78566SOL    HW137595   8.116   8.414  10.353
78566SOL    HW237596   8.217   8.359  10.452
78567SOL     OW37597  10.206   3.387   5.111
78567SOL    HW137598  10.177   3.296   5.101
78567SOL    HW237599  10.164   3.434   5.038
78568SOL     OW37600   9.326  13.693  12.647
78568SOL    HW137601   9.325  13.789  12.648
78568SOL    HW237602   9.235  13.668  12.665
78569SOL     OW37603   0.998  11.059  14.453
78569SOL    HW137604   0.949  11.140  14.445
78569SOL    HW237605   0.966  11.019  14.535
78570SOL     OW37606  10.210  10.779   2.217
78570SOL    HW137607  10.207  10.785   2.312
78570SOL    HW237608  10.302  10.791   2.194
78571SOL     OW37609  11.849   1.760   9.027
78571SOL    HW137610  11.822   1.694   9.091
78571SOL    HW237611  11.914   1.813   9.073
78572SOL     OW37612   9.138   5.003   7.944
78572SOL    HW137613   9.154   5.056   7.866
78572SOL    HW237614   9.054   4.961   7.927
78573SOL     OW37615   4.683   6.850   1.955
78573SOL    HW137616   4.734   6.876   1.878
78573SOL    HW237617   4.749   6.819   2.017
78574SOL     OW37618   3.508   6.587  11.042
78574SOL    HW137619   3.489   6.601  10.949
78574SOL    HW237620   3.461   6.657  11.087
78575SOL     OW37621   6.294  12.300   0.104
78575SOL    HW137622   6.266  12.268   0.190
78575SOL    HW237623   6.213  12.308   0.054
78576SOL     OW37624   6.264   1.944   1.610
78576SOL    HW137625   6.237   2.001   1.682
78576SOL    HW237626   6.332   1.888   1.648
78577SOL     OW37627   5.397   9.500   3.488
78577SOL    HW137628   5.402   9.549   3.570
78577SOL    HW237629   5.353   9.559   3.427
78578SOL     OW37630  10.770  11.558   0.912
78578SOL    HW137631  10.727  11.636   0.879
78578SOL    HW237632  10.710  11.523   0.978
78579SOL     OW37633  12.224  14.367  10.682
78579SOL    HW137634  12.156  14.355  10.748
78579SOL    HW237635  12.268  14.282  10.676
78580SOL     OW37636   7.484  13.768   7.311
78580SOL    HW137637   7.544  13.839   7.288
78580SOL    HW237638   7.518  13.735   7.394
78581SOL     OW37639  10.119   7.578   1.355
78581SOL    HW137640  10.117   7.642   1.284
78581SOL    HW237641  10.212   7.559   1.368
78582SOL     OW37642   9.597   8.750   4.447
78582SOL    HW137643   9.547   8.691   4.390
78582SOL    HW237644   9.538   8.823   4.463
78583SOL     OW37645  14.770  10.158   1.797
78583SOL    HW137646  14.855  10.192   1.825
78583SOL    HW237647  14.706  10.219   1.834
78584SOL     OW37648   1.341   8.755  13.491
78584SOL    HW137649   1.327   8.769  13.584
78584SOL    HW237650   1.416   8.695  13.487
78585SOL     OW37651  13.016   9.072   1.930
78585SOL    HW137652  13.058   9.150   1.967
78585SOL    HW237653  13.086   9.007   1.926
78586SOL     OW37654   7.777  12.859   6.928
78586SOL    HW137655   7.698  12.873   6.876
78586SOL    HW237656   7.842  12.827   6.865
78587SOL     OW37657  12.717   3.092   3.903
78587SOL    HW137658  12.646   3.114   3.963
78587SOL    HW237659  12.797   3.100   3.955
78588SOL     OW37660  13.833  14.171   8.477
78588SOL    HW137661  13.751  14.123   8.494
78588SOL    HW237662  13.881  14.167   8.560
78589SOL     OW37663   1.845  13.360   5.867
78589SOL    HW137664   1.885  13.328   5.947
78589SOL    HW237665   1.796  13.286   5.833
78590SOL     OW37666  12.350  14.634  12.756
78590SOL    HW137667  12.410  14.698  12.719
78590SOL    HW237668  12.345  14.565  12.691
78591SOL     OW37669   0.464  10.749   4.034
78591SOL    HW137670   0.472  10.670   4.088
78591SOL    HW237671   0.381  10.738   3.988
78592SOL     OW37672   4.556   9.986  14.236
78592SOL    HW137673   4.551   9.917  14.170
78592SOL    HW237674   4.479  10.041  14.220
78593SOL     OW37675  13.590   9.288  11.474
78593SOL    HW137676  13.596   9.355  11.407
78593SOL    HW237677  13.675   9.243  11.472
78594SOL     OW37678   8.009   1.345   1.091
78594SOL    HW137679   7.990   1.429   1.133
78594SOL    HW237680   7.994   1.361   0.998
78595SOL     OW37681   4.082   2.401   0.963
78595SOL    HW137682   4.058   2.492   0.946
78595SOL    HW237683   4.132   2.404   1.045
78596SOL     OW37684  10.047   3.419  10.968
78596SOL    HW137685  10.133   3.394  11.001
78596SOL    HW237686   9.991   3.419  11.046
78597SOL     OW37687  14.735   3.846  11.195
78597SOL    HW137688  14.828   3.862  11.179
78597SOL    HW237689  14.709   3.918  11.253
78598SOL     OW37690  12.181   4.152   9.712
78598SOL    HW137691  12.266   4.111   9.729
78598SOL    HW237692  12.161   4.128   9.621
78599SOL     OW37693   7.986   0.852  11.608
78599SOL    HW137694   8.039   0.815  11.537
78599SOL    HW237695   8.041   0.846  11.685
78600SOL     OW37696   9.344  10.670   0.273
78600SOL    HW137697   9.350  10.598   0.210
78600SOL    HW237698   9.434  10.703   0.279
78601SOL     OW37699  10.627  12.101   6.688
78601SOL    HW137700  10.564  12.030   6.704
78601SOL    HW237701  10.649  12.094   6.596
78602SOL     OW37702  10.640   4.168  11.633
78602SOL    HW137703  10.712   4.227  11.654
78602SOL    HW237704  10.569   4.195  11.690
78603SOL     OW37705  10.476   2.201   8.392
78603SOL    HW137706  10.403   2.209   8.330
78603SOL    HW237707  10.440   2.151   8.465
78604SOL     OW37708  12.769   1.604  11.460
78604SOL    HW137709  12.705   1.555  11.409
78604SOL    HW237710  12.794   1.544  11.531
78605SOL     OW37711   0.906   4.294   4.498
78605SOL    HW137712   0.891   4.217   4.551
78605SOL    HW237713   0.901   4.368   4.559
78606SOL     OW37714   8.484  11.139  11.763
78606SOL    HW137715   8.490  11.129  11.858
78606SOL    HW237716   8.562  11.190  11.739
78607SOL     OW37717   2.345   8.219  12.089
78607SOL    HW137718   2.412   8.242  12.153
78607SOL    HW237719   2.395   8.199  12.009
78608SOL     OW37720   5.282   2.955   7.471
78608SOL    HW137721   5.337   3.031   7.451
78608SOL    HW237722   5.344   2.888   7.502
78609SOL     OW37723   9.329  10.170   5.576
78609SOL    HW137724   9.245  10.124   5.567
78609SOL    HW237725   9.320  10.220   5.656
78610SOL     OW37726   7.639   5.354   7.066
78610SOL    HW137727   7.550   5.367   7.033
78610SOL    HW237728   7.693   5.352   6.988
78611SOL     OW37729   3.772  12.973   8.537
78611SOL    HW137730   3.755  12.880   8.522
78611SOL    HW237731   3.860  12.976   8.574
78612SOL     OW37732   7.027  12.957  13.672
78612SOL    HW137733   7.063  12.937  13.759
78612SOL    HW237734   6.976  12.880  13.649
78613SOL     OW37735   1.557   0.702   0.440
78613SOL    HW137736   1.597   0.777   0.396
78613SOL    HW237737   1.537   0.641   0.369
78614SOL     OW37738   3.534   3.641  11.066
78614SOL    HW137739   3.451   3.641  11.019
78614SOL    HW237740   3.543   3.731  11.098
78615SOL     OW37741   3.206   5.789  12.078
78615SOL    HW137742   3.202   5.806  11.984
78615SOL    HW237743   3.166   5.866  12.118
78616SOL     OW37744   0.495   0.712  12.518
78616SOL    HW137745   0.429   0.643  12.514
78616SOL    HW237746   0.501   0.745  12.428
78617SOL     OW37747   7.215  12.256   7.077
78617SOL    HW137748   7.168  12.305   7.009
78617SOL    HW237749   7.301  12.239   7.039
78618SOL     OW37750   7.507   3.603   5.724
78618SOL    HW137751   7.566   3.655   5.779
78618SOL    HW237752   7.481   3.663   5.655
78619SOL     OW37753   8.630   5.811   4.074
78619SOL    HW137754   8.626   5.735   4.133
78619SOL    HW237755   8.675   5.878   4.125
78620SOL     OW37756   2.881  13.618   1.972
78620SOL    HW137757   2.918  13.530   1.973
78620SOL    HW237758   2.809  13.614   1.909
78621SOL     OW37759   3.431   8.197  11.739
78621SOL    HW137760   3.518   8.172  11.768
78621SOL    HW237761   3.395   8.248  11.812
78622SOL     OW37762   9.272   9.702   9.711
78622SOL    HW137763   9.357   9.742   9.730
78622SOL    HW237764   9.269   9.697   9.615
78623SOL     OW37765   4.702   5.373   6.376
78623SOL    HW137766   4.644   5.297   6.368
78623SOL    HW237767   4.667   5.423   6.450
78624SOL     OW37768   3.410  13.563  10.058
78624SOL    HW137769   3.412  13.546  10.152
78624SOL    HW237770   3.373  13.483  10.020
78625SOL     OW37771   3.101  12.394   4.361
78625SOL    HW137772   3.076  12.484   4.341
78625SOL    HW237773   3.045  12.341   4.305
78626SOL     OW37774   0.866   3.654   9.160
78626SOL    HW137775   0.795   3.630   9.101
78626SOL    HW237776   0.942   3.605   9.127
78627SOL     OW37777  10.298  11.214   0.541
78627SOL    HW137778  10.367  11.167   0.588
78627SOL    HW237779  10.247  11.257   0.609
78628SOL     OW37780   7.052  14.645   1.566
78628SOL    HW137781   7.140  14.653   1.529
78628SOL    HW237782   6.993  14.666   1.494
78629SOL     OW37783   8.752   6.408  10.781
78629SOL    HW137784   8.701   6.468  10.726
78629SOL    HW237785   8.722   6.321  10.754
78630SOL     OW37786   9.938  14.632   0.992
78630SOL    HW137787   9.920  14.682   1.071
78630SOL    HW237788   9.853  14.596   0.967
78631SOL     OW37789   9.298   1.155   1.269
78631SOL    HW137790   9.221   1.177   1.218
78631SOL    HW237791   9.369   1.150   1.205
78632SOL     OW37792   0.730  10.157  14.588
78632SOL    HW137793   0.779  10.093  14.537
78632SOL    HW237794   0.717  10.231  14.529
78633SOL     OW37795   2.106   2.214  14.567
78633SOL    HW137796   2.060   2.244  14.645
78633SOL    HW237797   2.067   2.262  14.495
78634SOL     OW37798   3.250   9.317   5.947
78634SOL    HW137799   3.208   9.395   5.984
78634SOL    HW237800   3.300   9.280   6.019
78635SOL     OW37801   2.180  12.927  11.854
78635SOL    HW137802   2.240  13.002  11.851
78635SOL    HW237803   2.234  12.855  11.887
78636SOL     OW37804  13.507   7.889  12.647
78636SOL    HW137805  13.468   7.856  12.566
78636SOL    HW237806  13.436   7.938  12.690
78637SOL     OW37807  14.330   0.072  14.623
78637SOL    HW137808  14.349   0.166  14.629
78637SOL    HW237809  14.413   0.029  14.645
78638SOL     OW37810   8.365   2.929  11.999
78638SOL    HW137811   8.358   2.834  12.011
78638SOL    HW237812   8.452   2.951  12.030
78639SOL     OW37813   8.299   4.390   4.088
78639SOL    HW137814   8.356   4.353   4.021
78639SOL    HW237815   8.287   4.319   4.151
78640SOL     OW37816   4.315  14.299   2.398
78640SOL    HW137817   4.366  14.257   2.328
78640SOL    HW237818   4.237  14.243   2.407
78641SOL     OW37819  10.568  13.781  11.232
78641SOL    HW137820  10.531  13.801  11.146
78641SOL    HW237821  10.497  13.738  11.280
78642SOL     OW37822  10.518   9.205   5.995
78642SOL    HW137823  10.579   9.218   5.922
78642SOL    HW237824  10.539   9.119   6.029
78643SOL     OW37825   0.525  12.745   7.150
78643SOL    HW137826   0.511  12.653   7.129
78643SOL    HW237827   0.620  12.754   7.158
78644SOL     OW37828   2.528  10.630  14.094
78644SOL    HW137829   2.554  10.541  14.119
78644SOL    HW237830   2.504  10.623  14.002
78645SOL     OW37831  12.233   4.309   4.073
78645SOL    HW137832  12.243   4.387   4.019
78645SOL    HW237833  12.199   4.341   4.156
78646SOL     OW37834   9.809   0.323   2.491
78646SOL    HW137835   9.785   0.327   2.583
78646SOL    HW237836   9.825   0.230   2.474
78647SOL     OW37837  14.844  12.016  11.990
78647SOL    HW137838  14.837  12.033  12.084
78647SOL    HW237839  14.813  12.097  11.948
78648SOL     OW37840  12.931   5.959   0.321
78648SOL    HW137841  12.854   5.960   0.264
78648SOL    HW237842  12.962   5.869   0.319
78649SOL     OW37843   6.101   5.837   8.759
78649SOL    HW137844   6.176   5.896   8.764
78649SOL    HW237845   6.025   5.893   8.775
78650SOL     OW37846  14.642   3.136  11.778
78650SOL    HW137847  14.596   3.126  11.694
78650SOL    HW237848  14.586   3.194  11.829
78651SOL     OW37849   4.316   8.225   8.540
78651SOL    HW137850   4.365   8.164   8.595
78651SOL    HW237851   4.268   8.169   8.479
78652SOL     OW37852   5.033  13.067   1.981
78652SOL    HW137853   4.959  13.128   1.975
78652SOL    HW237854   5.019  13.007   1.908
78653SOL     OW37855   1.526   2.443   7.532
78653SOL    HW137856   1.477   2.520   7.504
78653SOL    HW237857   1.542   2.394   7.451
78654SOL     OW37858  13.890   3.223   4.173
78654SOL    HW137859  13.914   3.158   4.238
78654SOL    HW237860  13.971   3.269   4.153
78655SOL     OW37861   0.808  12.052   2.480
78655SOL    HW137862   0.811  12.081   2.571
78655SOL    HW237863   0.718  12.067   2.453
78656SOL     OW37864  10.731   0.627   9.856
78656SOL    HW137865  10.652   0.579   9.880
78656SOL    HW237866  10.770   0.652   9.940
78657SOL     OW37867   7.530   9.251  13.406
78657SOL    HW137868   7.599   9.297  13.453
78657SOL    HW237869   7.449   9.291  13.437
78658SOL     OW37870   3.074  11.424   8.452
78658SOL    HW137871   3.088  11.358   8.384
78658SOL    HW237872   3.022  11.492   8.408
78659SOL     OW37873   7.983  12.317  14.364
78659SOL    HW137874   7.967  12.297  14.272
78659SOL    HW237875   8.078  12.313  14.373
78660SOL     OW37876   6.180  12.759   2.911
78660SOL    HW137877   6.220  12.834   2.866
78660SOL    HW237878   6.180  12.689   2.846
78661SOL     OW37879  12.634   5.790  11.134
78661SOL    HW137880  12.617   5.773  11.041
78661SOL    HW237881  12.574   5.861  11.157
78662SOL     OW37882   7.671   3.988   9.737
78662SOL    HW137883   7.762   3.991   9.767
78662SOL    HW237884   7.642   3.899   9.756
78663SOL     OW37885  11.791  11.349  10.739
78663SOL    HW137886  11.877  11.360  10.698
78663SOL    HW237887  11.811  11.319  10.828
78664SOL     OW37888   6.186   6.858   3.258
78664SOL    HW137889   6.234   6.784   3.220
78664SOL    HW237890   6.107   6.818   3.294
78665SOL     OW37891   2.499  14.547  10.354
78665SOL    HW137892   2.417  14.576  10.395
78665SOL    HW237893   2.561  14.617  10.373
78666SOL     OW37894   2.290   0.287   1.976
78666SOL    HW137895   2.205   0.319   1.945
78666SOL    HW237896   2.308   0.210   1.921
78667SOL     OW37897   8.390   7.700  14.471
78667SOL    HW137898   8.333   7.631  14.437
78667SOL    HW237899   8.444   7.725  14.397
78668SOL     OW37900   5.196   8.934  13.173
78668SOL    HW137901   5.209   8.963  13.263
78668SOL    HW237902   5.101   8.926  13.163
78669SOL     OW37903   7.959   1.968  13.240
78669SOL    HW137904   8.011   1.902  13.287
78669SOL    HW237905   7.899   2.003  13.306
78670SOL     OW37906   9.533   7.732  10.249
78670SOL    HW137907   9.528   7.724  10.154
78670SOL    HW237908   9.457   7.784  10.273
78671SOL     OW37909  13.909   4.526   3.779
78671SOL    HW137910  13.904   4.562   3.867
78671SOL    HW237911  13.911   4.431   3.792
78672SOL     OW37912   4.671   9.987  10.594
78672SOL    HW137913   4.761   9.973  10.565
78672SOL    HW237914   4.621   9.996  10.512
78673SOL     OW37915   4.420  10.706  11.916
78673SOL    HW137916   4.465  10.773  11.968
78673SOL    HW237917   4.432  10.735  11.826
78674SOL     OW37918  11.924  10.135   1.912
78674SOL    HW137919  11.854  10.077   1.882
78674SOL    HW237920  11.879  10.217   1.936
78675SOL     OW37921   7.533   9.613   2.685
78675SOL    HW137922   7.482   9.535   2.660
78675SOL    HW237923   7.623   9.581   2.694
78676SOL     OW37924  11.433   4.778   7.208
78676SOL    HW137925  11.526   4.760   7.217
78676SOL    HW237926  11.422   4.867   7.242
78677SOL     OW37927   4.869  12.860  10.473
78677SOL    HW137928   4.888  12.942  10.520
78677SOL    HW237929   4.955  12.825  10.450
78678SOL     OW37930   2.434   9.308  14.609
78678SOL    HW137931   2.433   9.226  14.658
78678SOL    HW237932   2.353   9.308  14.559
78679SOL     OW37933  11.206  10.109   8.252
78679SOL    HW137934  11.198  10.022   8.291
78679SOL    HW237935  11.116  10.138   8.239
78680SOL     OW37936  10.910   4.506   2.091
78680SOL    HW137937  10.987   4.488   2.038
78680SOL    HW237938  10.912   4.440   2.160
78681SOL     OW37939   2.497  14.516   0.906
78681SOL    HW137940   2.544  14.455   0.850
78681SOL    HW237941   2.563  14.580   0.933
78682SOL     OW37942   3.815   9.436  11.153
78682SOL    HW137943   3.769   9.481  11.081
78682SOL    HW237944   3.846   9.507  11.209
78683SOL     OW37945   0.905   6.780  11.763
78683SOL    HW137946   0.855   6.824  11.832
78683SOL    HW237947   0.841   6.759  11.695
78684SOL     OW37948   7.517   9.356   5.802
78684SOL    HW137949   7.517   9.263   5.827
78684SOL    HW237950   7.479   9.401   5.878
78685SOL     OW37951   0.196   0.545   1.632
78685SOL    HW137952   0.152   0.578   1.553
78685SOL    HW237953   0.287   0.574   1.621
78686SOL     OW37954   0.727  13.846   9.365
78686SOL    HW137955   0.651  13.792   9.344
78686SOL    HW237956   0.765  13.866   9.279
78687SOL     OW37957  13.305   3.963  13.191
78687SOL    HW137958  13.392   3.986  13.223
78687SOL    HW237959  13.321   3.903  13.119
78688SOL     OW37960   0.758  14.807  10.811
78688SOL    HW137961   0.800   0.008  10.766
78688SOL    HW237962   0.669  14.805  10.776
78689SOL     OW37963  12.138  11.038  14.116
78689SOL    HW137964  12.178  11.096  14.050
78689SOL    HW237965  12.128  10.954  14.070
78690SOL     OW37966  14.649   5.634   2.286
78690SOL    HW137967  14.603   5.687   2.220
78690SOL    HW237968  14.713   5.584   2.235
78691SOL     OW37969   0.518   9.681   3.809
78691SOL    HW137970   0.560   9.610   3.857
78691SOL    HW237971   0.439   9.641   3.772
78692SOL     OW37972  11.624   3.371  10.712
78692SOL    HW137973  11.567   3.394  10.639
78692SOL    HW237974  11.573   3.391  10.790
78693SOL     OW37975   0.160  12.023  10.101
78693SOL    HW137976   0.206  11.950  10.143
78693SOL    HW237977   0.185  12.017  10.009
78694SOL     OW37978   4.253  10.003   9.946
78694SOL    HW137979   4.165  10.041   9.944
78694SOL    HW237980   4.285  10.011   9.856
78695SOL     OW37981   2.359  13.872  13.836
78695SOL    HW137982   2.426  13.891  13.771
78695SOL    HW237983   2.408  13.861  13.918
78696SOL     OW37984   5.587  11.964   9.834
78696SOL    HW137985   5.664  11.941   9.886
78696SOL    HW237986   5.521  11.989   9.898
78697SOL     OW37987  14.359   1.149   3.004
78697SOL    HW137988  14.376   1.054   3.006
78697SOL    HW237989  14.264   1.156   3.011
78698SOL     OW37990   4.521  12.328   6.769
78698SOL    HW137991   4.454  12.260   6.781
78698SOL    HW237992   4.603  12.284   6.794
78699SOL     OW37993   5.356  13.621   7.352
78699SOL    HW137994   5.328  13.533   7.377
78699SOL    HW237995   5.372  13.666   7.435
78700SOL     OW37996  10.274   5.527  12.553
78700SOL    HW137997  10.322   5.555  12.475
78700SOL    HW237998  10.193   5.488  12.519
78701SOL     OW37999   5.275  13.541  10.981
78701SOL    HW138000   5.319  13.491  10.912
78701SOL    HW238001   5.182  13.529  10.962
78702SOL     OW38002   3.853  10.844   8.909
78702SOL    HW138003   3.932  10.836   8.856
78702SOL    HW238004   3.807  10.919   8.873
78703SOL     OW38005   3.052   2.572   8.277
78703SOL    HW138006   2.967   2.535   8.255
78703SOL    HW238007   3.113   2.498   8.267
78704SOL     OW38008  14.565   0.044  12.637
78704SOL    HW138009  14.604   0.098  12.706
78704SOL    HW238010  14.559  14.828  12.675
78705SOL     OW38011   0.689   6.271   5.313
78705SOL    HW138012   0.652   6.184   5.297
78705SOL    HW238013   0.631   6.310   5.378
78706SOL     OW38014   8.310   2.629   5.786
78706SOL    HW138015   8.326   2.553   5.730
78706SOL    HW238016   8.229   2.666   5.751
78707SOL     OW38017  11.667   2.734   5.144
78707SOL    HW138018  11.573   2.734   5.164
78707SOL    HW238019  11.702   2.809   5.192
78708SOL     OW38020  12.607   4.738   4.919
78708SOL    HW138021  12.616   4.657   4.869
78708SOL    HW238022  12.625   4.808   4.857
78709SOL     OW38023   3.607  10.838   1.954
78709SOL    HW138024   3.642  10.916   1.909
78709SOL    HW238025   3.582  10.870   2.040
78710SOL     OW38026   9.884  10.375   7.670
78710SOL    HW138027   9.816  10.403   7.731
78710SOL    HW238028   9.965  10.413   7.706
78711SOL     OW38029  11.693  12.228   1.563
78711SOL    HW138030  11.729  12.306   1.520
78711SOL    HW238031  11.664  12.260   1.649
78712SOL     OW38032  14.666   2.100   4.003
78712SOL    HW138033  14.635   2.022   4.050
78712SOL    HW238034  14.666   2.073   3.911
78713SOL     OW38035   1.892   0.567   1.869
78713SOL    HW138036   1.948   0.490   1.859
78713SOL    HW238037   1.871   0.568   1.963
78714SOL     OW38038  13.224   7.765   3.615
78714SOL    HW138039  13.151   7.708   3.639
78714SOL    HW238040  13.213   7.779   3.521
78715SOL     OW38041   7.507  13.082   3.410
78715SOL    HW138042   7.587  13.045   3.372
78715SOL    HW238043   7.442  13.074   3.340
78716SOL     OW38044  12.302   1.482   8.539
78716SOL    HW138045  12.241   1.503   8.609
78716SOL    HW238046  12.246   1.461   8.464
78717SOL     OW38047  13.935   2.326  11.798
78717SOL    HW138048  13.878   2.277  11.856
78717SOL    HW238049  13.876   2.365  11.733
78718SOL     OW38050   6.986  13.119  14.758
78718SOL    HW138051   6.923  13.055  14.726
78718SOL    HW238052   7.003  13.176  14.683
78719SOL     OW38053  13.762   1.784   7.661
78719SOL    HW138054  13.730   1.852   7.601
78719SOL    HW238055  13.816   1.727   7.606
78720SOL     OW38056   7.266   7.356  10.139
78720SOL    HW138057   7.181   7.365  10.097
78720SOL    HW238058   7.286   7.263  10.133
78721SOL     OW38059  11.338  10.339   1.804
78721SOL    HW138060  11.340  10.385   1.720
78721SOL    HW238061  11.284  10.393   1.861
78722SOL     OW38062   4.838   4.683   2.891
78722SOL    HW138063   4.800   4.692   2.978
78722SOL    HW238064   4.772   4.634   2.841
78723SOL     OW38065   3.206   1.140   6.603
78723SOL    HW138066   3.217   1.051   6.637
78723SOL    HW238067   3.211   1.130   6.508
78724SOL     OW38068   2.619   6.712   8.987
78724SOL    HW138069   2.590   6.772   8.918
78724SOL    HW238070   2.648   6.634   8.940
78725SOL     OW38071  14.034  13.992   3.749
78725SOL    HW138072  13.974  14.057   3.787
78725SOL    HW238073  13.980  13.914   3.736
78726SOL     OW38074   1.896   0.314  11.434
78726SOL    HW138075   1.824   0.350  11.383
78726SOL    HW238076   1.881   0.345  11.523
78727SOL     OW38077   0.638   1.341   9.946
78727SOL    HW138078   0.672   1.251   9.950
78727SOL    HW238079   0.714   1.396   9.965
78728SOL     OW38080   5.519   8.032   4.975
78728SOL    HW138081   5.515   8.068   4.886
78728SOL    HW238082   5.430   8.045   5.009
78729SOL     OW38083   6.438   0.523   5.664
78729SOL    HW138084   6.437   0.434   5.698
78729SOL    HW238085   6.514   0.526   5.605
78730SOL     OW38086  13.301   4.777   8.223
78730SOL    HW138087  13.279   4.692   8.184
78730SOL    HW238088  13.271   4.769   8.314
78731SOL     OW38089  12.294   8.897  10.324
78731SOL    HW138090  12.235   8.909  10.397
78731SOL    HW238091  12.296   8.982  10.280
78732SOL     OW38092  11.866   3.306   7.498
78732SOL    HW138093  11.947   3.256   7.489
78732SOL    HW238094  11.892   3.397   7.479
78733SOL     OW38095   7.763   6.122   2.382
78733SOL    HW138096   7.815   6.192   2.423
78733SOL    HW238097   7.824   6.077   2.325
78734SOL     OW38098   5.867  12.006   0.886
78734SOL    HW138099   5.842  12.058   0.810
78734SOL    HW238100   5.817  12.044   0.958
78735SOL     OW38101  11.560   6.187   2.186
78735SOL    HW138102  11.563   6.237   2.267
78735SOL    HW238103  11.586   6.098   2.211
78736SOL     OW38104   7.431   0.027  14.467
78736SOL    HW138105   7.393  14.811  14.474
78736SOL    HW238106   7.484   0.024  14.387
78737SOL     OW38107   0.156  11.220   1.661
78737SOL    HW138108   0.215  11.267   1.602
78737SOL    HW238109   0.212  11.155   1.704
78738SOL     OW38110  13.932   1.772  13.496
78738SOL    HW138111  13.944   1.838  13.565
78738SOL    HW238112  13.839   1.778  13.474
78739SOL     OW38113  10.891   1.692  13.098
78739SOL    HW138114  10.914   1.708  13.006
78739SOL    HW238115  10.796   1.704  13.101
78740SOL     OW38116  11.580  14.166  11.495
78740SOL    HW138117  11.536  14.245  11.526
78740SOL    HW238118  11.522  14.095  11.521
78741SOL     OW38119   4.777  14.771   5.808
78741SOL    HW138120   4.684  14.755   5.825
78741SOL    HW238121   4.821  14.691   5.835
78742SOL     OW38122   4.028   8.096   5.832
78742SOL    HW138123   4.040   8.072   5.740
78742SOL    HW238124   3.954   8.043   5.861
78743SOL     OW38125   7.364   3.504  13.018
78743SOL    HW138126   7.309   3.581  13.035
78743SOL    HW238127   7.367   3.497  12.922
78744SOL     OW38128   9.374  11.100   5.139
78744SOL    HW138129   9.287  11.124   5.170
78744SOL    HW238130   9.431  11.172   5.167
78745SOL     OW38131  10.748   3.959   6.807
78745SOL    HW138132  10.780   3.991   6.723
78745SOL    HW238133  10.670   3.907   6.784
78746SOL     OW38134   0.781  10.104   3.162
78746SOL    HW138135   0.761  10.172   3.097
78746SOL    HW238136   0.836  10.041   3.115
78747SOL     OW38137   2.523   4.776   6.732
78747SOL    HW138138   2.498   4.741   6.818
78747SOL    HW238139   2.452   4.835   6.709
78748SOL     OW38140  11.948   1.165   6.419
78748SOL    HW138141  11.856   1.178   6.397
78748SOL    HW238142  11.973   1.086   6.371
78749SOL     OW38143   8.753   2.488   7.433
78749SOL    HW138144   8.778   2.419   7.495
78749SOL    HW238145   8.678   2.531   7.474
78750SOL     OW38146   2.524   7.040   4.987
78750SOL    HW138147   2.526   6.944   4.983
78750SOL    HW238148   2.478   7.066   4.907
78751SOL     OW38149  10.408  10.604  11.566
78751SOL    HW138150  10.463  10.578  11.640
78751SOL    HW238151  10.354  10.527  11.548
78752SOL     OW38152  11.435  10.366   2.799
78752SOL    HW138153  11.455  10.429   2.868
78752SOL    HW238154  11.339  10.365   2.794
78753SOL     OW38155  12.635   6.545  14.673
78753SOL    HW138156  12.663   6.462  14.712
78753SOL    HW238157  12.593   6.592  14.745
78754SOL     OW38158   9.157  14.174  11.392
78754SOL    HW138159   9.082  14.163  11.334
78754SOL    HW238160   9.126  14.229  11.463
78755SOL     OW38161   1.984   3.919   4.779
78755SOL    HW138162   1.889   3.931   4.784
78755SOL    HW238163   2.002   3.902   4.687
78756SOL     OW38164   2.827  10.859  13.425
78756SOL    HW138165   2.804  10.926  13.360
78756SOL    HW238166   2.749  10.851  13.480
78757SOL     OW38167   9.214  11.609  13.989
78757SOL    HW138168   9.122  11.634  13.992
78757SOL    HW238169   9.260  11.689  13.963
78758SOL     OW38170   1.534   2.195   6.335
78758SOL    HW138171   1.607   2.227   6.281
78758SOL    HW238172   1.456   2.209   6.281
78759SOL     OW38173  10.584   0.026   7.943
78759SOL    HW138174  10.544   0.019   8.030
78759SOL    HW238175  10.655  14.833   7.944
78760SOL     OW38176   4.078   4.051  10.890
78760SOL    HW138177   4.117   4.037  10.804
78760SOL    HW238178   4.149   4.088  10.943
78761SOL     OW38179   3.972  12.808   7.039
78761SOL    HW138180   3.960  12.718   7.066
78761SOL    HW238181   3.942  12.810   6.948
78762SOL     OW38182   7.629   8.220   2.377
78762SOL    HW138183   7.667   8.149   2.428
78762SOL    HW238184   7.572   8.177   2.314
78763SOL     OW38185   8.526  10.867   8.414
78763SOL    HW138186   8.458  10.808   8.384
78763SOL    HW238187   8.481  10.952   8.422
78764SOL     OW38188  13.730  11.115   9.672
78764SOL    HW138189  13.813  11.154   9.698
78764SOL    HW238190  13.679  11.188   9.635
78765SOL     OW38191   8.981   3.028   8.051
78765SOL    HW138192   8.948   2.962   8.112
78765SOL    HW238193   9.026   3.091   8.107
78766SOL     OW38194   2.384  10.297   7.774
78766SOL    HW138195   2.442  10.224   7.798
78766SOL    HW238196   2.307  10.286   7.830
78767SOL     OW38197   5.572   3.001   2.711
78767SOL    HW138198   5.650   3.032   2.759
78767SOL    HW238199   5.597   3.007   2.619
78768SOL     OW38200  14.613   1.727   7.807
78768SOL    HW138201  14.570   1.813   7.799
78768SOL    HW238202  14.627   1.717   7.901
78769SOL     OW38203  12.437   3.758   6.120
78769SOL    HW138204  12.449   3.677   6.071
78769SOL    HW238205  12.394   3.731   6.201
78770SOL     OW38206  11.652  10.523  12.078
78770SOL    HW138207  11.615  10.486  11.998
78770SOL    HW238208  11.746  10.519  12.064
78771SOL     OW38209   0.483   4.908  12.438
78771SOL    HW138210   0.533   4.983  12.407
78771SOL    HW238211   0.506   4.900  12.530
78772SOL     OW38212  11.191   8.460   3.348
78772SOL    HW138213  11.248   8.391   3.381
78772SOL    HW238214  11.111   8.415   3.322
78773SOL     OW38215   0.067   3.064   9.601
78773SOL    HW138216   0.085   2.994   9.538
78773SOL    HW238217   0.124   3.136   9.573
78774SOL     OW38218   8.176  10.843   8.975
78774SOL    HW138219   8.100  10.801   9.014
78774SOL    HW238220   8.150  10.934   8.964
78775SOL     OW38221  14.348   7.103   0.323
78775SOL    HW138222  14.281   7.170   0.330
78775SOL    HW238223  14.391   7.121   0.239
78776SOL     OW38224  11.621   7.950  14.216
78776SOL    HW138225  11.618   8.037  14.255
78776SOL    HW238226  11.667   7.897  14.281
78777SOL     OW38227   9.030   8.100  10.020
78777SOL    HW138228   9.028   8.192  10.044
78777SOL    HW238229   8.985   8.095   9.936
78778SOL     OW38230   4.763   9.526  10.058
78778SOL    HW138231   4.772   9.601  10.000
78778SOL    HW238232   4.686   9.546  10.112
78779SOL     OW38233  12.126  10.111   3.136
78779SOL    HW138234  12.074  10.185   3.165
78779SOL    HW238235  12.119  10.047   3.207
78780SOL     OW38236  13.245   9.071   9.826
78780SOL    HW138237  13.175   9.005   9.817
78780SOL    HW238238  13.220   9.140   9.765
78781SOL     OW38239   5.869  11.835  14.388
78781SOL    HW138240   5.809  11.767  14.418
78781SOL    HW238241   5.953  11.791  14.378
78782SOL     OW38242   9.595   8.356   9.844
78782SOL    HW138243   9.571   8.266   9.819
78782SOL    HW238244   9.520   8.409   9.816
78783SOL     OW38245   4.742  13.981   2.626
78783SOL    HW138246   4.746  13.943   2.539
78783SOL    HW238247   4.651  14.010   2.637
78784SOL     OW38248   0.404  12.525   9.446
78784SOL    HW138249   0.414  12.618   9.464
78784SOL    HW238250   0.386  12.485   9.531
78785SOL     OW38251   4.979  10.380   3.328
78785SOL    HW138252   4.914  10.448   3.312
78785SOL    HW238253   4.971  10.320   3.254
78786SOL     OW38254  11.438   2.108  12.419
78786SOL    HW138255  11.409   2.140  12.334
78786SOL    HW238256  11.473   2.186  12.463
78787SOL     OW38257   6.593  13.893   3.013
78787SOL    HW138258   6.655  13.827   3.043
78787SOL    HW238259   6.517  13.843   2.982
78788SOL     OW38260   3.373   2.338   0.891
78788SOL    HW138261   3.353   2.294   0.974
78788SOL    HW238262   3.288   2.371   0.861
78789SOL     OW38263   1.056   0.707   4.251
78789SOL    HW138264   1.120   0.703   4.322
78789SOL    HW238265   1.041   0.801   4.238
78790SOL     OW38266   0.070   1.265  12.228
78790SOL    HW138267   0.121   1.299  12.155
78790SOL    HW238268  14.853   1.297  12.213
78791SOL     OW38269   6.292   5.461  11.554
78791SOL    HW138270   6.365   5.406  11.525
78791SOL    HW238271   6.316   5.550  11.527
78792SOL     OW38272   0.229   2.755   0.337
78792SOL    HW138273   0.243   2.664   0.365
78792SOL    HW238274   0.164   2.789   0.398
78793SOL     OW38275  12.234   2.886  10.417
78793SOL    HW138276  12.228   2.981  10.424
78793SOL    HW238277  12.315   2.863  10.462
78794SOL     OW38278  14.275   1.952  12.945
78794SOL    HW138279  14.282   2.023  12.882
78794SOL    HW238280  14.318   1.985  13.024
78795SOL     OW38281   2.992  10.718   8.282
78795SOL    HW138282   3.005  10.738   8.375
78795SOL    HW238283   3.020  10.798   8.236
78796SOL     OW38284   4.075   2.943   8.317
78796SOL    HW138285   4.114   2.939   8.230
78796SOL    HW238286   4.113   2.869   8.364
78797SOL     OW38287   3.601   6.696  12.722
78797SOL    HW138288   3.621   6.776  12.769
78797SOL    HW238289   3.593   6.723  12.630
78798SOL     OW38290   1.117   1.720  11.942
78798SOL    HW138291   1.064   1.653  11.899
78798SOL    HW238292   1.146   1.777  11.870
78799SOL     OW38293   9.071  12.748   6.945
78799SOL    HW138294   9.043  12.687   6.877
78799SOL    HW238295   9.165  12.756   6.933
78800SOL     OW38296   9.639   5.839   7.760
78800SOL    HW138297   9.677   5.825   7.673
78800SOL    HW238298   9.639   5.934   7.770
78801SOL     OW38299   2.296   9.780   9.535
78801SOL    HW138300   2.230   9.804   9.600
78801SOL    HW238301   2.246   9.752   9.459
78802SOL     OW38302   3.324   6.096   8.993
78802SOL    HW138303   3.387   6.025   8.987
78802SOL    HW238304   3.366   6.169   8.947
78803SOL     OW38305   7.577   2.967   1.438
78803SOL    HW138306   7.523   2.925   1.370
78803SOL    HW238307   7.651   3.003   1.390
78804SOL     OW38308   4.207   4.274   3.070
78804SOL    HW138309   4.174   4.325   3.143
78804SOL    HW238310   4.302   4.277   3.079
78805SOL     OW38311  13.563   4.022  13.268
78805SOL    HW138312  13.592   4.095  13.322
78805SOL    HW238313  13.637   3.962  13.267
78806SOL     OW38314   9.788  12.476   9.655
78806SOL    HW138315   9.754  12.387   9.642
78806SOL    HW238316   9.849  12.488   9.582
78807SOL     OW38317  12.950   1.019   3.103
78807SOL    HW138318  12.908   1.006   3.018
78807SOL    HW238319  13.039   1.049   3.082
78808SOL     OW38320   1.336  11.636   9.598
78808SOL    HW138321   1.262  11.601   9.646
78808SOL    HW238322   1.354  11.571   9.530
78809SOL     OW38323  11.640   1.120  10.606
78809SOL    HW138324  11.578   1.108  10.677
78809SOL    HW238325  11.726   1.118  10.648
78810SOL     OW38326   1.203   6.950   0.119
78810SOL    HW138327   1.220   7.033   0.163
78810SOL    HW238328   1.109   6.935   0.132
78811SOL     OW38329   4.990   8.182  12.657
78811SOL    HW138330   4.915   8.211  12.708
78811SOL    HW238331   4.963   8.098  12.621
78812SOL     OW38332  13.731  10.707  13.506
78812SOL    HW138333  13.680  10.766  13.561
78812SOL    HW238334  13.717  10.739  13.417
78813SOL     OW38335   5.648  11.953   0.556
78813SOL    HW138336   5.707  11.878   0.563
78813SOL    HW238337   5.591  11.932   0.482
78814SOL     OW38338  14.419   3.430  12.865
78814SOL    HW138339  14.454   3.343  12.846
78814SOL    HW238340  14.341   3.413  12.918
78815SOL     OW38341   6.107  10.070   3.493
78815SOL    HW138342   6.122  10.152   3.446
78815SOL    HW238343   6.163  10.077   3.571
78816SOL     OW38344   7.274   3.924  14.274
78816SOL    HW138345   7.236   3.890  14.192
78816SOL    HW238346   7.301   4.013  14.252
78817SOL     OW38347   6.339  12.971   2.846
78817SOL    HW138348   6.422  12.984   2.801
78817SOL    HW238349   6.337  13.040   2.913
78818SOL     OW38350   2.037   0.285  10.482
78818SOL    HW138351   2.111   0.320  10.531
78818SOL    HW238352   1.984   0.362  10.460
78819SOL     OW38353  11.215   1.381   0.837
78819SOL    HW138354  11.283   1.346   0.781
78819SOL    HW238355  11.154   1.308   0.850
78820SOL     OW38356   8.893  11.679   8.154
78820SOL    HW138357   8.923  11.690   8.245
78820SOL    HW238358   8.840  11.757   8.137
78821SOL     OW38359   2.724  10.849   0.924
78821SOL    HW138360   2.698  10.935   0.959
78821SOL    HW238361   2.657  10.829   0.859
78822SOL     OW38362  13.094  10.860   5.079
78822SOL    HW138363  13.122  10.879   5.168
78822SOL    HW238364  13.080  10.946   5.039
78823SOL     OW38365   3.137  10.046   1.315
78823SOL    HW138366   3.209   9.983   1.320
78823SOL    HW238367   3.075  10.007   1.254
78824SOL     OW38368   6.898  10.391   5.528
78824SOL    HW138369   6.818  10.438   5.506
78824SOL    HW238370   6.899  10.316   5.469
78825SOL     OW38371   1.325   6.950   3.928
78825SOL    HW138372   1.400   6.996   3.892
78825SOL    HW238373   1.355   6.917   4.013
78826SOL     OW38374   1.746   8.264  12.047
78826SOL    HW138375   1.726   8.332  11.982
78826SOL    HW238376   1.661   8.224  12.066
78827SOL     OW38377   7.058  10.908   0.184
78827SOL    HW138378   6.993  10.969   0.150
78827SOL    HW238379   7.063  10.838   0.119
78828SOL     OW38380   9.576  11.046   6.707
78828SOL    HW138381   9.497  11.037   6.654
78828SOL    HW238382   9.624  10.964   6.693
78829SOL     OW38383   4.913   2.428  14.069
78829SOL    HW138384   4.991   2.482  14.084
78829SOL    HW238385   4.944   2.338  14.079
78830SOL     OW38386  11.449   3.351   8.798
78830SOL    HW138387  11.384   3.282   8.809
78830SOL    HW238388  11.533   3.305   8.792
78831SOL     OW38389  11.156   1.375  12.887
78831SOL    HW138390  11.209   1.380  12.808
78831SOL    HW238391  11.197   1.306  12.940
78832SOL     OW38392  12.570  13.940   1.572
78832SOL    HW138393  12.516  13.873   1.614
78832SOL    HW238394  12.509  13.989   1.516
78833SOL     OW38395  14.233  11.777   7.249
78833SOL    HW138396  14.204  11.864   7.277
78833SOL    HW238397  14.293  11.794   7.176
78834SOL     OW38398   0.493  13.043   1.631
78834SOL    HW138399   0.528  13.087   1.709
78834SOL    HW238400   0.454  13.114   1.579
78835SOL     OW38401   1.085   7.867   2.020
78835SOL    HW138402   1.066   7.807   1.947
78835SOL    HW238403   1.079   7.811   2.098
78836SOL     OW38404  10.780   3.205   6.704
78836SOL    HW138405  10.723   3.138   6.740
78836SOL    HW238406  10.782   3.188   6.610
78837SOL     OW38407   4.483   9.533  10.186
78837SOL    HW138408   4.442   9.448  10.200
78837SOL    HW238409   4.471   9.550  10.092
78838SOL     OW38410   4.028  13.702   1.244
78838SOL    HW138411   3.938  13.700   1.275
78838SOL    HW238412   4.069  13.773   1.293
78839SOL     OW38413  10.265   5.042   4.782
78839SOL    HW138414  10.258   5.101   4.857
78839SOL    HW238415  10.202   5.076   4.719
78840SOL     OW38416  12.938   1.878  12.701
78840SOL    HW138417  12.985   1.878  12.784
78840SOL    HW238418  12.876   1.950  12.709
78841SOL     OW38419   6.261   3.569   3.182
78841SOL    HW138420   6.343   3.584   3.136
78841SOL    HW238421   6.275   3.605   3.270
78842SOL     OW38422  13.301  13.023   0.958
78842SOL    HW138423  13.253  13.077   0.896
78842SOL    HW238424  13.248  12.943   0.966
78843SOL     OW38425   0.183   7.444   1.761
78843SOL    HW138426   0.145   7.405   1.683
78843SOL    HW238427   0.202   7.534   1.737
78844SOL     OW38428   7.690   8.185  13.635
78844SOL    HW138429   7.596   8.197  13.617
78844SOL    HW238430   7.710   8.249  13.703
78845SOL     OW38431   7.775   2.294   1.609
78845SOL    HW138432   7.835   2.228   1.575
78845SOL    HW238433   7.693   2.246   1.622
78846SOL     OW38434   3.422   4.990   7.570
78846SOL    HW138435   3.409   4.896   7.562
78846SOL    HW238436   3.334   5.027   7.561
78847SOL     OW38437  12.544  13.771   6.747
78847SOL    HW138438  12.634  13.797   6.766
78847SOL    HW238439  12.503  13.760   6.833
78848SOL     OW38440   3.445   1.199   4.689
78848SOL    HW138441   3.423   1.249   4.767
78848SOL    HW238442   3.407   1.113   4.704
78849SOL     OW38443  11.008  14.641   3.729
78849SOL    HW138444  11.063  14.718   3.713
78849SOL    HW238445  10.991  14.643   3.823
78850SOL     OW38446   4.969   7.645   5.051
78850SOL    HW138447   4.956   7.553   5.077
78850SOL    HW238448   4.896   7.664   4.992
78851SOL     OW38449  13.794  14.535   6.133
78851SOL    HW138450  13.815  14.538   6.039
78851SOL    HW238451  13.880  14.530   6.176
78852SOL     OW38452  13.348   2.356   6.016
78852SOL    HW138453  13.397   2.305   5.952
78852SOL    HW238454  13.405   2.430   6.037
78853SOL     OW38455   0.427   0.943  14.139
78853SOL    HW138456   0.436   0.950  14.234
78853SOL    HW238457   0.505   0.895  14.111
78854SOL     OW38458   4.464  10.833   0.887
78854SOL    HW138459   4.383  10.817   0.838
78854SOL    HW238460   4.460  10.925   0.911
78855SOL     OW38461  14.846  10.525  12.271
78855SOL    HW138462   0.036  10.564  12.334
78855SOL    HW238463  14.768  10.580  12.277
78856SOL     OW38464  11.602   9.267   4.576
78856SOL    HW138465  11.595   9.235   4.486
78856SOL    HW238466  11.694   9.253   4.599
78857SOL     OW38467   8.146   3.218   7.372
78857SOL    HW138468   8.065   3.167   7.376
78857SOL    HW238469   8.185   3.209   7.459
78858SOL     OW38470   1.035   2.948  12.709
78858SOL    HW138471   0.950   2.960  12.665
78858SOL    HW238472   1.012   2.928  12.799
78859SOL     OW38473  13.138   3.428   0.886
78859SOL    HW138474  13.187   3.362   0.837
78859SOL    HW238475  13.067   3.379   0.927
78860SOL     OW38476   6.959   4.103  12.835
78860SOL    HW138477   7.054   4.112  12.850
78860SOL    HW238478   6.950   4.015  12.798
78861SOL     OW38479   9.338   6.357   7.739
78861SOL    HW138480   9.284   6.406   7.676
78861SOL    HW238481   9.424   6.351   7.697
78862SOL     OW38482   9.492   7.846  14.618
78862SOL    HW138483   9.485   7.887  14.532
78862SOL    HW238484   9.404   7.852  14.654
78863SOL     OW38485   8.293  14.007  13.233
78863SOL    HW138486   8.302  14.042  13.322
78863SOL    HW238487   8.367  14.044  13.185
78864SOL     OW38488   9.587  10.144   8.635
78864SOL    HW138489   9.535  10.064   8.638
78864SOL    HW238490   9.557  10.189   8.556
78865SOL     OW38491   6.635   8.703   0.536
78865SOL    HW138492   6.714   8.670   0.579
78865SOL    HW238493   6.575   8.723   0.608
78866SOL     OW38494   1.894  13.093   6.048
78866SOL    HW138495   1.830  13.099   5.977
78866SOL    HW238496   1.954  13.023   6.021
78867SOL     OW38497  13.462   2.045   3.996
78867SOL    HW138498  13.540   2.013   4.042
78867SOL    HW238499  13.490   2.127   3.956
78868SOL     OW38500   9.753  10.802  11.292
78868SOL    HW138501   9.833  10.794  11.240
78868SOL    HW238502   9.716  10.887  11.266
78869SOL     OW38503  11.954   7.382   5.568
78869SOL    HW138504  11.915   7.432   5.497
78869SOL    HW238505  11.942   7.437   5.646
78870SOL     OW38506  14.341   7.411  14.190
78870SOL    HW138507  14.425   7.410  14.143
78870SOL    HW238508  14.284   7.355  14.137
78871SOL     OW38509   5.348   5.082   5.754
78871SOL    HW138510   5.409   5.056   5.823
78871SOL    HW238511   5.370   5.174   5.736
78872SOL     OW38512   5.702  13.215   6.996
78872SOL    HW138513   5.741  13.299   6.972
78872SOL    HW238514   5.776  13.162   7.025
78873SOL     OW38515   5.316   0.922  12.546
78873SOL    HW138516   5.399   0.927  12.592
78873SOL    HW238517   5.288   0.831  12.555
78874SOL     OW38518   9.244   9.382   5.598
78874SOL    HW138519   9.334   9.414   5.598
78874SOL    HW238520   9.222   9.373   5.506
78875SOL     OW38521   2.207   1.402   0.159
78875SOL    HW138522   2.196   1.409   0.254
78875SOL    HW238523   2.224   1.492   0.131
78876SOL     OW38524   5.810   8.883   0.967
78876SOL    HW138525   5.894   8.837   0.966
78876SOL    HW238526   5.798   8.913   0.877
78877SOL     OW38527   7.866   3.816   7.008
78877SOL    HW138528   7.783   3.793   7.051
78877SOL    HW238529   7.887   3.903   7.042
78878SOL     OW38530   1.235  10.673   2.427
78878SOL    HW138531   1.216  10.741   2.362
78878SOL    HW238532   1.152  10.657   2.471
78879SOL     OW38533   6.410   2.703  13.717
78879SOL    HW138534   6.456   2.745  13.645
78879SOL    HW238535   6.382   2.619  13.681
78880SOL     OW38536   5.644  11.862   6.026
78880SOL    HW138537   5.658  11.910   5.944
78880SOL    HW238538   5.701  11.786   6.020
78881SOL     OW38539   0.643  11.387   6.777
78881SOL    HW138540   0.731  11.349   6.772
78881SOL    HW238541   0.585  11.312   6.789
78882SOL     OW38542   2.792   7.635   2.347
78882SOL    HW138543   2.800   7.614   2.441
78882SOL    HW238544   2.698   7.649   2.334
78883SOL     OW38545   9.284  14.334   1.771
78883SOL    HW138546   9.197  14.371   1.758
78883SOL    HW238547   9.315  14.375   1.852
78884SOL     OW38548  14.561   2.234   9.607
78884SOL    HW138549  14.510   2.279   9.540
78884SOL    HW238550  14.644   2.282   9.611
78885SOL     OW38551   0.250  12.515  13.717
78885SOL    HW138552   0.203  12.552  13.643
78885SOL    HW238553   0.310  12.584  13.746
78886SOL     OW38554   3.652   0.873  12.670
78886SOL    HW138555   3.670   0.802  12.608
78886SOL    HW238556   3.593   0.932  12.622
78887SOL     OW38557   7.273   4.493   9.762
78887SOL    HW138558   7.343   4.535   9.713
78887SOL    HW238559   7.271   4.538   9.846
78888SOL     OW38560   5.307   7.707   4.391
78888SOL    HW138561   5.241   7.639   4.407
78888SOL    HW238562   5.384   7.659   4.360
78889SOL     OW38563   1.317  10.404   2.102
78889SOL    HW138564   1.259  10.363   2.165
78889SOL    HW238565   1.367  10.331   2.064
78890SOL     OW38566  12.865  13.388   6.344
78890SOL    HW138567  12.843  13.422   6.257
78890SOL    HW238568  12.935  13.447   6.375
78891SOL     OW38569  13.595   8.957   5.068
78891SOL    HW138570  13.519   8.975   5.124
78891SOL    HW238571  13.615   8.865   5.085
78892SOL     OW38572  13.743  12.276   9.943
78892SOL    HW138573  13.760  12.184   9.963
78892SOL    HW238574  13.828  12.310   9.913
78893SOL     OW38575  14.175   6.877  14.514
78893SOL    HW138576  14.268   6.883  14.532
78893SOL    HW238577  14.160   6.785  14.494
78894SOL     OW38578  13.475  14.266  10.966
78894SOL    HW138579  13.380  14.262  10.980
78894SOL    HW238580  13.491  14.355  10.935
78895SOL     OW38581  13.598  13.685  14.377
78895SOL    HW138582  13.516  13.641  14.399
78895SOL    HW238583  13.660  13.614  14.361
78896SOL     OW38584  13.814  11.081  12.111
78896SOL    HW138585  13.843  11.106  12.199
78896SOL    HW238586  13.859  11.141  12.052
78897SOL     OW38587   7.698  11.464  11.001
78897SOL    HW138588   7.775  11.493  11.049
78897SOL    HW238589   7.731  11.438  10.915
78898SOL     OW38590   2.732   1.997   7.505
78898SOL    HW138591   2.768   2.046   7.432
78898SOL    HW238592   2.808   1.954   7.544
78899SOL     OW38593   8.187   6.629  14.292
78899SOL    HW138594   8.256   6.693  14.275
78899SOL    HW238595   8.227   6.545  14.270
78900SOL     OW38596   4.996   0.185  14.287
78900SOL    HW138597   4.902   0.187  14.306
78900SOL    HW238598   5.019   0.277  14.272
78901SOL     OW38599  12.451   6.710  10.377
78901SOL    HW138600  12.403   6.630  10.396
78901SOL    HW238601  12.427   6.771  10.447
78902SOL     OW38602   2.078   6.313   9.747
78902SOL    HW138603   2.055   6.222   9.766
78902SOL    HW238604   1.997   6.353   9.717
78903SOL     OW38605  11.124   6.931   1.866
78903SOL    HW138606  11.128   6.900   1.776
78903SOL    HW238607  11.080   6.860   1.913
78904SOL     OW38608   5.865  10.417   7.215
78904SOL    HW138609   5.852  10.354   7.144
78904SOL    HW238610   5.951  10.394   7.252
78905SOL     OW38611   0.539   0.065  11.567
78905SOL    HW138612   0.487   0.002  11.617
78905SOL    HW238613   0.613   0.014  11.534
78906SOL     OW38614  13.356   6.463   1.597
78906SOL    HW138615  13.415   6.391   1.621
78906SOL    HW238616  13.305   6.429   1.523
78907SOL     OW38617   9.232  12.664   8.523
78907SOL    HW138618   9.195  12.576   8.515
78907SOL    HW238619   9.166  12.714   8.571
78908SOL     OW38620   5.071  13.965   1.302
78908SOL    HW138621   5.127  13.895   1.267
78908SOL    HW238622   4.989  13.956   1.253
78909SOL     OW38623   4.858   7.871   6.824
78909SOL    HW138624   4.854   7.889   6.918
78909SOL    HW238625   4.899   7.949   6.786
78910SOL     OW38626   0.740   6.820   9.350
78910SOL    HW138627   0.811   6.881   9.330
78910SOL    HW238628   0.732   6.766   9.271
78911SOL     OW38629  11.679   9.459  11.380
78911SOL    HW138630  11.591   9.433  11.353
78911SOL    HW238631  11.706   9.393  11.443
78912SOL     OW38632  14.452  10.524   7.692
78912SOL    HW138633  14.490  10.532   7.780
78912SOL    HW238634  14.401  10.444   7.696
78913SOL     OW38635   9.078   1.332   3.199
78913SOL    HW138636   9.120   1.249   3.173
78913SOL    HW238637   9.014   1.307   3.265
78914SOL     OW38638   3.797  10.999   8.579
78914SOL    HW138639   3.892  11.006   8.571
78914SOL    HW238640   3.763  11.075   8.532
78915SOL     OW38641   5.498   4.711  11.651
78915SOL    HW138642   5.455   4.702  11.736
78915SOL    HW238643   5.459   4.790  11.613
78916SOL     OW38644   1.653  10.335   2.466
78916SOL    HW138645   1.628  10.304   2.379
78916SOL    HW238646   1.732  10.387   2.451
78917SOL     OW38647  14.673  10.998   4.890
78917SOL    HW138648  14.761  10.969   4.912
78917SOL    HW238649  14.617  10.923   4.913
78918SOL     OW38650   7.091   6.458  11.232
78918SOL    HW138651   7.176   6.432  11.197
78918SOL    HW238652   7.083   6.408  11.314
78919SOL     OW38653   2.243  10.441  11.696
78919SOL    HW138654   2.290  10.454  11.613
78919SOL    HW238655   2.254  10.524  11.743
78920SOL     OW38656   8.357  11.775   6.047
78920SOL    HW138657   8.344  11.869   6.039
78920SOL    HW238658   8.447  11.765   6.076
78921SOL     OW38659   1.301   1.450   5.696
78921SOL    HW138660   1.336   1.515   5.756
78921SOL    HW238661   1.309   1.367   5.744
78922SOL     OW38662  12.489  13.654   5.461
78922SOL    HW138663  12.492  13.571   5.412
78922SOL    HW238664  12.403  13.654   5.503
78923SOL     OW38665   7.163  13.076   2.537
78923SOL    HW138666   7.162  13.172   2.530
78923SOL    HW238667   7.070  13.052   2.545
78924SOL     OW38668  12.880   3.419   8.244
78924SOL    HW138669  12.890   3.445   8.152
78924SOL    HW238670  12.877   3.502   8.292
78925SOL     OW38671   2.555   7.997   4.967
78925SOL    HW138672   2.572   7.981   4.874
78925SOL    HW238673   2.489   7.932   4.991
78926SOL     OW38674   8.732  14.460   4.027
78926SOL    HW138675   8.739  14.491   4.117
78926SOL    HW238676   8.762  14.533   3.973
78927SOL     OW38677   9.903  11.123   9.360
78927SOL    HW138678   9.895  11.035   9.397
78927SOL    HW238679   9.968  11.113   9.290
78928SOL     OW38680  11.261   8.534   4.515
78928SOL    HW138681  11.191   8.469   4.524
78928SOL    HW238682  11.289   8.527   4.424
78929SOL     OW38683   2.127   0.904  14.809
78929SOL    HW138684   2.154   0.958  14.735
78929SOL    HW238685   2.123   0.815  14.773
78930SOL     OW38686  14.749  13.697   9.138
78930SOL    HW138687  14.828  13.680   9.086
78930SOL    HW238688  14.681  13.715   9.074
78931SOL     OW38689   6.295  13.295  11.170
78931SOL    HW138690   6.252  13.311  11.254
78931SOL    HW238691   6.290  13.379  11.125
78932SOL     OW38692   0.917  11.825   4.427
78932SOL    HW138693   0.870  11.749   4.393
78932SOL    HW238694   0.905  11.893   4.361
78933SOL     OW38695  12.404   2.753  11.294
78933SOL    HW138696  12.442   2.797  11.370
78933SOL    HW238697  12.456   2.673  11.284
78934SOL     OW38698   0.174   9.419   0.003
78934SOL    HW138699   0.110   9.490   0.001
78934SOL    HW238700   0.122   9.340  14.855
78935SOL     OW38701  13.178   9.855   2.948
78935SOL    HW138702  13.154   9.762   2.949
78935SOL    HW238703  13.122   9.893   2.880
78936SOL     OW38704   1.689   2.747  14.709
78936SOL    HW138705   1.713   2.840  14.698
78936SOL    HW238706   1.597   2.743  14.681
78937SOL     OW38707  11.368  12.465   9.663
78937SOL    HW138708  11.287  12.496   9.704
78937SOL    HW238709  11.422  12.437   9.737
78938SOL     OW38710   9.763   5.665  14.556
78938SOL    HW138711   9.718   5.674  14.640
78938SOL    HW238712   9.702   5.703  14.492
78939SOL     OW38713   9.918   8.354   3.423
78939SOL    HW138714   9.912   8.388   3.512
78939SOL    HW238715   9.827   8.348   3.393
78940SOL     OW38716   8.855   1.311  10.147
78940SOL    HW138717   8.847   1.405  10.133
78940SOL    HW238718   8.835   1.299  10.240
78941SOL     OW38719  11.025   3.545   5.253
78941SOL    HW138720  10.935   3.574   5.269
78941SOL    HW238721  11.042   3.568   5.161
78942SOL     OW38722   5.246   5.864  12.870
78942SOL    HW138723   5.325   5.906  12.836
78942SOL    HW238724   5.220   5.918  12.944
78943SOL     OW38725  13.963  14.022   8.234
78943SOL    HW138726  14.004  13.971   8.304
78943SOL    HW238727  13.955  14.110   8.271
78944SOL     OW38728  10.814   0.586   7.182
78944SOL    HW138729  10.807   0.672   7.140
78944SOL    HW238730  10.725   0.550   7.177
78945SOL     OW38731   8.145   0.468  11.922
78945SOL    HW138732   8.226   0.417  11.924
78945SOL    HW238733   8.100   0.438  11.843
78946SOL     OW38734   9.666  14.679   2.742
78946SOL    HW138735   9.610  14.609   2.709
78946SOL    HW238736   9.754  14.645   2.734
78947SOL     OW38737  10.376  13.075  11.555
78947SOL    HW138738  10.459  13.113  11.584
78947SOL    HW238739  10.309  13.126  11.600
78948SOL     OW38740   6.647   7.565  14.181
78948SOL    HW138741   6.655   7.524  14.095
78948SOL    HW238742   6.555   7.555  14.205
78949SOL     OW38743   4.517  13.782   2.734
78949SOL    HW138744   4.544  13.816   2.820
78949SOL    HW238745   4.482  13.695   2.753
78950SOL     OW38746  14.487  10.623  12.197
78950SOL    HW138747  14.523  10.712  12.189
78950SOL    HW238748  14.534  10.572  12.132
78951SOL     OW38749   5.523   4.058  11.349
78951SOL    HW138750   5.460   4.002  11.304
78951SOL    HW238751   5.549   4.122  11.283
78952SOL     OW38752  12.253   0.679   3.155
78952SOL    HW138753  12.222   0.638   3.074
78952SOL    HW238754  12.233   0.615   3.223
78953SOL     OW38755   0.700   0.107  11.102
78953SOL    HW138756   0.649   0.026  11.110
78953SOL    HW238757   0.636   0.172  11.071
78954SOL     OW38758   8.307  14.457  11.932
78954SOL    HW138759   8.292  14.465  11.838
78954SOL    HW238760   8.316  14.363  11.947
78955SOL     OW38761   0.512  11.508  13.313
78955SOL    HW138762   0.491  11.484  13.222
78955SOL    HW238763   0.498  11.603  13.316
78956SOL     OW38764   3.368   5.482   6.539
78956SOL    HW138765   3.371   5.514   6.448
78956SOL    HW238766   3.396   5.391   6.532
78957SOL     OW38767  13.789   0.008   4.610
78957SOL    HW138768  13.801   0.033   4.702
78957SOL    HW238769  13.732  14.803   4.614
78958SOL     OW38770  13.764   4.577   7.408
78958SOL    HW138771  13.715   4.605   7.485
78958SOL    HW238772  13.774   4.482   7.419
78959SOL     OW38773   6.941  10.826  14.037
78959SOL    HW138774   6.955  10.732  14.038
78959SOL    HW238775   6.990  10.859  14.113
78960SOL     OW38776  10.314  10.115  10.022
78960SOL    HW138777  10.240  10.057  10.037
78960SOL    HW238778  10.275  10.203  10.023
78961SOL     OW38779   7.866   1.620   1.146
78961SOL    HW138780   7.781   1.652   1.118
78961SOL    HW238781   7.926   1.693   1.130
78962SOL     OW38782   9.661   0.515   9.954
78962SOL    HW138783   9.625   0.552  10.035
78962SOL    HW238784   9.584   0.492   9.902
78963SOL     OW38785   2.317   3.228   1.197
78963SOL    HW138786   2.369   3.179   1.134
78963SOL    HW238787   2.306   3.315   1.158
78964SOL     OW38788  13.604   5.792  10.664
78964SOL    HW138789  13.517   5.761  10.689
78964SOL    HW238790  13.590   5.881  10.631
78965SOL     OW38791   4.698   2.844   2.515
78965SOL    HW138792   4.731   2.765   2.559
78965SOL    HW238793   4.607   2.823   2.494
78966SOL     OW38794  11.585  13.160  10.778
78966SOL    HW138795  11.636  13.165  10.697
78966SOL    HW238796  11.524  13.234  10.771
78967SOL     OW38797   0.391   3.787   6.942
78967SOL    HW138798   0.375   3.774   6.848
78967SOL    HW238799   0.448   3.714   6.966
78968SOL     OW38800  10.172  11.412  12.924
78968SOL    HW138801  10.188  11.361  12.844
78968SOL    HW238802  10.082  11.442  12.915
78969SOL     OW38803   1.136   3.324   8.796
78969SOL    HW138804   1.176   3.337   8.710
78969SOL    HW238805   1.063   3.264   8.780
78970SOL     OW38806  10.366  13.307   2.469
78970SOL    HW138807  10.451  13.315   2.425
78970SOL    HW238808  10.303  13.341   2.406
78971SOL     OW38809   5.692   3.039   2.443
78971SOL    HW138810   5.714   2.946   2.440
78971SOL    HW238811   5.664   3.061   2.355
78972SOL     OW38812  13.587   8.544   8.128
78972SOL    HW138813  13.551   8.557   8.216
78972SOL    HW238814  13.627   8.627   8.106
78973SOL     OW38815  11.688   6.855  14.766
78973SOL    HW138816  11.611   6.908  14.744
78973SOL    HW238817  11.690   6.786  14.699
78974SOL     OW38818   1.454  13.515   2.761
78974SOL    HW138819   1.381  13.533   2.820
78974SOL    HW238820   1.440  13.575   2.687
78975SOL     OW38821  11.935  13.601   1.229
78975SOL    HW138822  11.868  13.580   1.164
78975SOL    HW238823  11.893  13.585   1.314
78976SOL     OW38824   6.481   2.740  14.747
78976SOL    HW138825   6.506   2.817  14.799
78976SOL    HW238826   6.409   2.770  14.692
78977SOL     OW38827   0.694   4.939   1.448
78977SOL    HW138828   0.640   4.986   1.511
78977SOL    HW238829   0.672   4.976   1.363
78978SOL     OW38830  12.888  11.000   0.818
78978SOL    HW138831  12.867  10.907   0.813
78978SOL    HW238832  12.811  11.040   0.860
78979SOL     OW38833   2.354   5.269  11.829
78979SOL    HW138834   2.321   5.324  11.758
78979SOL    HW238835   2.313   5.304  11.907
78980SOL     OW38836  13.082   7.651   1.972
78980SOL    HW138837  13.033   7.688   1.898
78980SOL    HW238838  13.042   7.565   1.986
78981SOL     OW38839   7.705  10.527  10.399
78981SOL    HW138840   7.632  10.470  10.375
78981SOL    HW238841   7.727  10.573  10.318
78982SOL     OW38842  11.348   5.860  12.048
78982SOL    HW138843  11.278   5.867  12.114
78982SOL    HW238844  11.347   5.768  12.021
78983SOL     OW38845   1.472   2.334   4.241
78983SOL    HW138846   1.547   2.276   4.257
78983SOL    HW238847   1.442   2.311   4.154
78984SOL     OW38848  12.222   1.682  10.819
78984SOL    HW138849  12.281   1.606  10.819
78984SOL    HW238850  12.149   1.655  10.764
78985SOL     OW38851   5.964  12.638  14.522
78985SOL    HW138852   5.904  12.572  14.557
78985SOL    HW238853   5.929  12.721  14.553
78986SOL     OW38854   8.851  14.387   5.827
78986SOL    HW138855   8.850  14.326   5.754
78986SOL    HW238856   8.766  14.375   5.870
78987SOL     OW38857   5.464   3.783   0.459
78987SOL    HW138858   5.559   3.795   0.463
78987SOL    HW238859   5.440   3.814   0.371
78988SOL     OW38860   6.523   3.528   4.991
78988SOL    HW138861   6.493   3.612   5.025
78988SOL    HW238862   6.579   3.492   5.060
78989SOL     OW38863  10.046  14.846   7.187
78989SOL    HW138864   9.987  14.787   7.234
78989SOL    HW238865  10.043   0.056   7.238
78990SOL     OW38866  11.875  11.053   8.883
78990SOL    HW138867  11.781  11.050   8.904
78990SOL    HW238868  11.886  11.136   8.837
78991SOL     OW38869   8.714   5.099   9.976
78991SOL    HW138870   8.773   5.174   9.966
78991SOL    HW238871   8.675   5.110  10.062
78992SOL     OW38872  12.447   9.535  14.303
78992SOL    HW138873  12.504   9.573  14.369
78992SOL    HW238874  12.388   9.478  14.352
78993SOL     OW38875   8.279   0.536  13.849
78993SOL    HW138876   8.242   0.521  13.936
78993SOL    HW238877   8.272   0.630  13.837
78994SOL     OW38878   8.402  12.590   7.286
78994SOL    HW138879   8.444  12.658   7.338
78994SOL    HW238880   8.316  12.578   7.326
78995SOL     OW38881   3.242   1.287   2.029
78995SOL    HW138882   3.201   1.349   1.969
78995SOL    HW238883   3.171   1.232   2.061
78996SOL     OW38884  11.751  10.556  14.423
78996SOL    HW138885  11.724  10.645  14.403
78996SOL    HW238886  11.796  10.563  14.507
78997SOL     OW38887  11.033   7.486   8.601
78997SOL    HW138888  10.984   7.406   8.617
78997SOL    HW238889  11.120   7.469   8.638
78998SOL     OW38890  13.239  10.165   7.330
78998SOL    HW138891  13.188  10.231   7.377
78998SOL    HW238892  13.254  10.203   7.244
78999SOL     OW38893  10.295   0.667   3.173
78999SOL    HW138894  10.327   0.603   3.110
78999SOL    HW238895  10.275   0.745   3.122
79000SOL     OW38896   0.471   7.758  13.702
79000SOL    HW138897   0.470   7.718  13.615
79000SOL    HW238898   0.553   7.806  13.706
79001SOL     OW38899   3.906   7.576  10.804
79001SOL    HW138900   4.000   7.592  10.806
79001SOL    HW238901   3.897   7.483  10.826
79002SOL     OW38902  12.359   1.300   0.474
79002SOL    HW138903  12.324   1.388   0.490
79002SOL    HW238904  12.343   1.284   0.381
79003SOL     OW38905   7.366  12.838   8.739
79003SOL    HW138906   7.388  12.839   8.833
79003SOL    HW238907   7.271  12.835   8.737
79004SOL     OW38908  11.239  10.217   9.152
79004SOL    HW138909  11.186  10.283   9.108
79004SOL    HW238910  11.253  10.251   9.240
79005SOL     OW38911  10.081   9.646  13.865
79005SOL    HW138912  10.124   9.649  13.951
79005SOL    HW238913  10.010   9.583  13.877
79006SOL     OW38914  11.707   6.323   6.652
79006SOL    HW138915  11.687   6.263   6.724
79006SOL    HW238916  11.641   6.304   6.586
79007SOL     OW38917   2.435  14.453   2.957
79007SOL    HW138918   2.443  14.462   2.862
79007SOL    HW238919   2.498  14.516   2.992
79008SOL     OW38920  10.322   5.391   8.921
79008SOL    HW138921  10.399   5.358   8.966
79008SOL    HW238922  10.257   5.322   8.929
79009SOL     OW38923  10.934   8.146   2.403
79009SOL    HW138924  10.921   8.052   2.415
79009SOL    HW238925  10.952   8.180   2.490
79010SOL     OW38926   9.843   2.737  10.939
79010SOL    HW138927   9.786   2.813  10.933
79010SOL    HW238928   9.916   2.757  10.880
79011SOL     OW38929  13.079   0.915   7.458
79011SOL    HW138930  13.129   0.965   7.394
79011SOL    HW238931  12.990   0.910   7.421
79012SOL     OW38932   1.779   8.984   1.047
79012SOL    HW138933   1.800   9.038   1.123
79012SOL    HW238934   1.703   9.026   1.008
79013SOL     OW38935   4.389  14.708  13.505
79013SOL    HW138936   4.357  14.660  13.582
79013SOL    HW238937   4.317  14.767  13.483
79014SOL     OW38938   1.212  14.722  10.363
79014SOL    HW138939   1.204  14.627  10.358
79014SOL    HW238940   1.295  14.742  10.320
79015SOL     OW38941   4.469   0.975   2.103
79015SOL    HW138942   4.445   0.952   2.192
79015SOL    HW238943   4.461   0.893   2.054
79016SOL     OW38944   5.597   7.722  12.154
79016SOL    HW138945   5.505   7.706  12.132
79016SOL    HW238946   5.593   7.772  12.236
79017SOL     OW38947   5.966  14.372   8.042
79017SOL    HW138948   5.898  14.329   7.990
79017SOL    HW238949   6.025  14.409   7.977
79018SOL     OW38950   8.693   1.779   1.909
79018SOL    HW138951   8.703   1.684   1.901
79018SOL    HW238952   8.724   1.814   1.826
79019SOL     OW38953  12.614  13.060  10.991
79019SOL    HW138954  12.538  13.068  11.047
79019SOL    HW238955  12.686  13.097  11.042
79020SOL     OW38956  10.097  11.789  14.264
79020SOL    HW138957  10.180  11.760  14.303
79020SOL    HW238958  10.099  11.753  14.175
79021SOL     OW38959   6.602  12.806  11.307
79021SOL    HW138960   6.591  12.792  11.401
79021SOL    HW238961   6.617  12.901  11.299
79022SOL     OW38962   9.150   6.965   2.943
79022SOL    HW138963   9.186   7.049   2.915
79022SOL    HW238964   9.068   6.956   2.894
79023SOL     OW38965   5.479  10.406   8.781
79023SOL    HW138966   5.455  10.337   8.720
79023SOL    HW238967   5.490  10.484   8.726
79024SOL     OW38968   1.374  13.645   3.909
79024SOL    HW138969   1.407  13.556   3.902
79024SOL    HW238970   1.424  13.683   3.981
79025SOL     OW38971   8.978   5.088  12.000
79025SOL    HW138972   9.072   5.068  12.001
79025SOL    HW238973   8.936   5.007  12.028
79026SOL     OW38974  10.272  12.159   4.504
79026SOL    HW138975  10.237  12.209   4.578
79026SOL    HW238976  10.306  12.078   4.543
79027SOL     OW38977   8.613   4.372   3.312
79027SOL    HW138978   8.679   4.421   3.264
79027SOL    HW238979   8.661   4.332   3.385
79028SOL     OW38980   5.767   1.694   5.484
79028SOL    HW138981   5.689   1.708   5.429
79028SOL    HW238982   5.821   1.772   5.467
79029SOL     OW38983  14.761  13.969   4.494
79029SOL    HW138984  14.798  13.913   4.563
79029SOL    HW238985  14.765  14.057   4.530
79030SOL     OW38986   3.260   5.067  10.578
79030SOL    HW138987   3.216   5.020  10.507
79030SOL    HW238988   3.333   5.011  10.603
79031SOL     OW38989   2.066   4.031   8.661
79031SOL    HW138990   1.981   4.075   8.669
79031SOL    HW238991   2.108   4.074   8.586
79032SOL     OW38992   4.151   8.263  12.216
79032SOL    HW138993   4.100   8.319  12.275
79032SOL    HW238994   4.201   8.207  12.275
79033SOL     OW38995  11.067   0.425   1.833
79033SOL    HW138996  11.034   0.369   1.903
79033SOL    HW238997  11.145   0.379   1.800
79034SOL     OW38998   7.317   4.625   5.037
79034SOL    HW138999   7.225   4.597   5.029
79034SOL    HW239000   7.324   4.700   4.978
79035SOL     OW39001   4.255   8.808  12.296
79035SOL    HW139002   4.333   8.855  12.265
79035SOL    HW239003   4.287   8.723  12.323
79036SOL     OW39004   0.809  14.363   5.094
79036SOL    HW139005   0.762  14.354   5.011
79036SOL    HW239006   0.899  14.337   5.072
79037SOL     OW39007   3.815  10.170  13.110
79037SOL    HW139008   3.876  10.097  13.099
79037SOL    HW239009   3.855  10.243  13.062
79038SOL     OW39010  14.668  13.231   8.231
79038SOL    HW139011  14.716  13.312   8.213
79038SOL    HW239012  14.734  13.162   8.226
79039SOL     OW39013  12.734  11.684  14.331
79039SOL    HW139014  12.805  11.632  14.368
79039SOL    HW239015  12.765  11.710  14.244
79040SOL     OW39016   5.755  14.846   2.642
79040SOL    HW139017   5.747  14.780   2.573
79040SOL    HW239018   5.725  14.802   2.721
79041SOL     OW39019   9.218   1.581   4.963
79041SOL    HW139020   9.182   1.532   5.037
79041SOL    HW239021   9.234   1.668   4.999
79042SOL     OW39022   5.833   2.237   6.268
79042SOL    HW139023   5.745   2.270   6.287
79042SOL    HW239024   5.843   2.160   6.323
79043SOL     OW39025   4.956   2.477   2.353
79043SOL    HW139026   4.989   2.495   2.265
79043SOL    HW239027   4.900   2.400   2.342
79044SOL     OW39028  12.156   8.571  10.153
79044SOL    HW139029  12.106   8.602  10.228
79044SOL    HW239030  12.154   8.475  10.161
79045SOL     OW39031   2.190   2.947  11.421
79045SOL    HW139032   2.099   2.941  11.391
79045SOL    HW239033   2.228   2.861  11.403
79046SOL     OW39034   4.657  14.339  12.540
79046SOL    HW139035   4.624  14.362  12.627
79046SOL    HW239036   4.687  14.248  12.549
79047SOL     OW39037   7.573   0.266   6.256
79047SOL    HW139038   7.665   0.274   6.282
79047SOL    HW239039   7.547   0.179   6.285
79048SOL     OW39040  12.667   8.653   7.653
79048SOL    HW139041  12.617   8.605   7.587
79048SOL    HW239042  12.734   8.699   7.604
79049SOL     OW39043   5.875  10.855  13.712
79049SOL    HW139044   5.780  10.847  13.721
79049SOL    HW239045   5.887  10.935  13.660
79050SOL     OW39046  11.469  12.542  14.586
79050SOL    HW139047  11.412  12.514  14.515
79050SOL    HW239048  11.552  12.561  14.544
79051SOL     OW39049   9.712  10.316   6.182
79051SOL    HW139050   9.691  10.225   6.203
79051SOL    HW239051   9.806  10.323   6.196
79052SOL     OW39052   1.574  14.111   0.686
79052SOL    HW139053   1.631  14.045   0.724
79052SOL    HW239054   1.566  14.179   0.753
79053SOL     OW39055   0.908   5.411   9.425
79053SOL    HW139056   0.937   5.389   9.337
79053SOL    HW239057   0.829   5.358   9.437
79054SOL     OW39058   6.307   4.543   8.435
79054SOL    HW139059   6.374   4.483   8.401
79054SOL    HW239060   6.231   4.487   8.451
79055SOL     OW39061  12.698   7.180   0.982
79055SOL    HW139062  12.788   7.164   0.954
79055SOL    HW239063  12.650   7.193   0.900
79056SOL     OW39064   0.921   6.998  12.648
79056SOL    HW139065   0.888   7.044  12.570
79056SOL    HW239066   0.981   6.932  12.612
79057SOL     OW39067   1.419   3.001   8.359
79057SOL    HW139068   1.351   3.000   8.426
79057SOL    HW239069   1.438   3.094   8.346
79058SOL     OW39070   2.857  11.237   4.250
79058SOL    HW139071   2.897  11.204   4.331
79058SOL    HW239072   2.909  11.198   4.180
79059SOL     OW39073   5.343   8.342  11.131
79059SOL    HW139074   5.255   8.338  11.093
79059SOL    HW239075   5.328   8.349  11.225
79060SOL     OW39076  13.414   1.335   8.277
79060SOL    HW139077  13.418   1.424   8.242
79060SOL    HW239078  13.503   1.317   8.304
79061SOL     OW39079   9.262   1.062   8.658
79061SOL    HW139080   9.294   1.058   8.568
79061SOL    HW239081   9.167   1.064   8.650
79062SOL     OW39082   9.395   6.088  10.275
79062SOL    HW139083   9.432   6.001  10.293
79062SOL    HW239084   9.302   6.078  10.292
79063SOL     OW39085   6.179   9.509   0.058
79063SOL    HW139086   6.234   9.570   0.007
79063SOL    HW239087   6.095   9.508   0.012
79064SOL     OW39088  10.647   2.879   5.658
79064SOL    HW139089  10.583   2.816   5.625
79064SOL    HW239090  10.632   2.881   5.753
79065SOL     OW39091  10.982   9.282  14.455
79065SOL    HW139092  11.059   9.300  14.509
79065SOL    HW239093  10.919   9.243  14.515
79066SOL     OW39094  13.567   4.622   5.272
79066SOL    HW139095  13.571   4.694   5.336
79066SOL    HW239096  13.511   4.655   5.202
79067SOL     OW39097   5.283  13.517   3.651
79067SOL    HW139098   5.379  13.518   3.650
79067SOL    HW239099   5.258  13.576   3.580
79068SOL     OW39100   4.731   3.210  11.786
79068SOL    HW139101   4.770   3.124  11.772
79068SOL    HW239102   4.710   3.241  11.697
79069SOL     OW39103   4.184   1.881  13.473
79069SOL    HW139104   4.250   1.950  13.487
79069SOL    HW239105   4.173   1.878  13.378
79070SOL     OW39106   7.386   0.483   9.401
79070SOL    HW139107   7.446   0.557   9.397
79070SOL    HW239108   7.440   0.410   9.430
79071SOL     OW39109   8.088   4.014   6.613
79071SOL    HW139110   8.133   3.983   6.535
79071SOL    HW239111   8.049   4.098   6.586
79072SOL     OW39112  10.181   1.588   0.182
79072SOL    HW139113  10.109   1.587   0.245
79072SOL    HW239114  10.138   1.586   0.097
79073SOL     OW39115   0.895   4.223   6.092
79073SOL    HW139116   0.970   4.281   6.083
79073SOL    HW239117   0.892   4.176   6.008
79074SOL     OW39118   3.415   7.049  14.222
79074SOL    HW139119   3.346   7.048  14.156
79074SOL    HW239120   3.495   7.033  14.172
79075SOL     OW39121   1.875   2.885   8.994
79075SOL    HW139122   1.786   2.918   8.983
79075SOL    HW239123   1.864   2.792   9.013
79076SOL     OW39124   8.170   0.449  12.726
79076SOL    HW139125   8.191   0.523  12.669
79076SOL    HW239126   8.254   0.424  12.764
79077SOL     OW39127   2.268  12.127   7.589
79077SOL    HW139128   2.266  12.191   7.660
79077SOL    HW239129   2.261  12.042   7.632
79078SOL     OW39130   7.009   0.840  12.210
79078SOL    HW139131   6.993   0.762  12.263
79078SOL    HW239132   7.104   0.840  12.196
79079SOL     OW39133  10.516   7.283   7.778
79079SOL    HW139134  10.572   7.358   7.795
79079SOL    HW239135  10.443   7.318   7.727
79080SOL     OW39136   5.593  10.885  14.709
79080SOL    HW139137   5.528  10.815  14.704
79080SOL    HW239138   5.670  10.848  14.664
79081SOL     OW39139   2.388   1.907   7.342
79081SOL    HW139140   2.437   1.985   7.316
79081SOL    HW239141   2.383   1.855   7.262
79082SOL     OW39142   1.773   8.050   5.458
79082SOL    HW139143   1.693   8.013   5.422
79082SOL    HW239144   1.755   8.061   5.551
79083SOL     OW39145   0.674  14.485  10.444
79083SOL    HW139146   0.718  14.568  10.430
79083SOL    HW239147   0.711  14.426  10.378
79084SOL     OW39148  10.360   2.724  10.288
79084SOL    HW139149  10.372   2.695  10.197
79084SOL    HW239150  10.384   2.648  10.341
79085SOL     OW39151   7.072   3.596   5.906
79085SOL    HW139152   7.055   3.601   6.000
79085SOL    HW239153   7.141   3.530   5.897
79086SOL     OW39154  14.715  10.616   1.181
79086SOL    HW139155  14.784  10.681   1.171
79086SOL    HW239156  14.634  10.664   1.168
79087SOL     OW39157  11.355   9.156  12.118
79087SOL    HW139158  11.341   9.091  12.188
79087SOL    HW239159  11.447   9.183  12.129
79088SOL     OW39160   9.648   5.353  10.445
79088SOL    HW139161   9.732   5.384  10.478
79088SOL    HW239162   9.628   5.412  10.372
79089SOL     OW39163   1.458   6.630  13.985
79089SOL    HW139164   1.420   6.542  13.987
79089SOL    HW239165   1.422   6.670  13.906
79090SOL     OW39166   8.864  10.597  12.139
79090SOL    HW139167   8.929  10.563  12.078
79090SOL    HW239168   8.790  10.537  12.131
79091SOL     OW39169   2.052   6.116  12.936
79091SOL    HW139170   2.039   6.034  12.888
79091SOL    HW239171   2.093   6.088  13.019
79092SOL     OW39172  10.625   8.286   7.489
79092SOL    HW139173  10.582   8.364   7.455
79092SOL    HW239174  10.710   8.318   7.522
79093SOL     OW39175   2.177   4.702  14.466
79093SOL    HW139176   2.179   4.705  14.561
79093SOL    HW239177   2.085   4.684  14.444
79094SOL     OW39178   0.473   1.943   9.107
79094SOL    HW139179   0.542   1.877   9.114
79094SOL    HW239180   0.479   1.976   9.017
79095SOL     OW39181  14.212   6.473   2.280
79095SOL    HW139182  14.219   6.568   2.270
79095SOL    HW239183  14.118   6.456   2.284
79096SOL     OW39184   3.276  10.413   0.260
79096SOL    HW139185   3.195  10.362   0.268
79096SOL    HW239186   3.337  10.354   0.217
79097SOL     OW39187   3.325  12.971   5.619
79097SOL    HW139188   3.339  12.968   5.525
79097SOL    HW239189   3.359  12.887   5.651
79098SOL     OW39190   9.290   2.208  13.986
79098SOL    HW139191   9.315   2.211  14.078
79098SOL    HW239192   9.224   2.277  13.977
79099SOL     OW39193  11.778  12.476   0.151
79099SOL    HW139194  11.805  12.566   0.130
79099SOL    HW239195  11.849  12.421   0.117
79100SOL     OW39196   9.912  13.746   0.232
79100SOL    HW139197   9.924  13.841   0.236
79100SOL    HW239198   9.884  13.729   0.142
79101SOL     OW39199   0.908   0.254   7.491
79101SOL    HW139200   0.899   0.215   7.578
79101SOL    HW239201   0.935   0.182   7.435
79102SOL     OW39202   3.302  11.588  11.098
79102SOL    HW139203   3.225  11.587  11.040
79102SOL    HW239204   3.276  11.534  11.173
79103SOL     OW39205  12.551   0.857   2.925
79103SOL    HW139206  12.614   0.929   2.929
79103SOL    HW239207  12.538   0.842   2.831
79104SOL     OW39208  14.112   4.720   8.212
79104SOL    HW139209  14.135   4.691   8.301
79104SOL    HW239210  14.175   4.675   8.156
79105SOL     OW39211  11.892   2.898   8.027
79105SOL    HW139212  11.955   2.925   8.094
79105SOL    HW239213  11.881   2.804   8.040
79106SOL     OW39214  13.061  11.900   7.811
79106SOL    HW139215  13.015  11.974   7.771
79106SOL    HW239216  13.058  11.831   7.744
79107SOL     OW39217   0.902   5.596   1.469
79107SOL    HW139218   0.863   5.563   1.550
79107SOL    HW239219   0.978   5.539   1.454
79108SOL     OW39220  12.654  10.373   2.632
79108SOL    HW139221  12.675  10.426   2.709
79108SOL    HW239222  12.671  10.431   2.558
79109SOL     OW39223  14.308  11.921   5.272
79109SOL    HW139224  14.311  11.864   5.348
79109SOL    HW239225  14.398  11.924   5.239
79110SOL     OW39226   7.541  14.261   1.294
79110SOL    HW139227   7.565  14.169   1.292
79110SOL    HW239228   7.625  14.307   1.302
79111SOL     OW39229  12.260  14.241   0.562
79111SOL    HW139230  12.335  14.297   0.583
79111SOL    HW239231  12.185  14.287   0.599
79112SOL     OW39232  14.571   8.826   5.746
79112SOL    HW139233  14.614   8.906   5.716
79112SOL    HW239234  14.606   8.811   5.834
79113SOL     OW39235  14.337  13.846  12.696
79113SOL    HW139236  14.255  13.846  12.745
79113SOL    HW239237  14.405  13.864  12.762
79114SOL     OW39238   1.748   2.121  14.817
79114SOL    HW139239   1.659   2.150  14.797
79114SOL    HW239240   1.738   2.033  14.852
79115SOL     OW39241   9.118   3.665   6.389
79115SOL    HW139242   9.187   3.729   6.411
79115SOL    HW239243   9.091   3.689   6.301
79116SOL     OW39244   7.269  13.573   1.672
79116SOL    HW139245   7.347  13.528   1.703
79116SOL    HW239246   7.199  13.539   1.728
79117SOL     OW39247   8.929  12.756   1.008
79117SOL    HW139248   8.958  12.666   0.994
79117SOL    HW239249   9.008  12.804   1.033
79118SOL     OW39250  10.075  10.487  12.666
79118SOL    HW139251  10.094  10.501  12.759
79118SOL    HW239252  10.091  10.393  12.653
79119SOL     OW39253  13.852  12.743   6.788
79119SOL    HW139254  13.816  12.695   6.863
79119SOL    HW239255  13.947  12.730   6.795
79120SOL     OW39256   7.785   8.093   3.979
79120SOL    HW139257   7.770   8.025   3.913
79120SOL    HW239258   7.725   8.071   4.050
79121SOL     OW39259   8.947  14.665   1.866
79121SOL    HW139260   8.946  14.739   1.926
79121SOL    HW239261   8.879  14.685   1.802
79122SOL     OW39262   2.136  12.758  14.736
79122SOL    HW139263   2.113  12.836  14.686
79122SOL    HW239264   2.200  12.789  14.801
79123SOL     OW39265   0.363   3.264   2.548
79123SOL    HW139266   0.437   3.204   2.546
79123SOL    HW239267   0.401   3.349   2.570
79124SOL     OW39268   9.567   2.599  10.872
79124SOL    HW139269   9.662   2.606  10.887
79124SOL    HW239270   9.559   2.567  10.782
79125SOL     OW39271  14.468  10.252  12.142
79125SOL    HW139272  14.469  10.270  12.048
79125SOL    HW239273  14.402  10.184  12.153
79126SOL     OW39274   2.829  11.007   9.725
79126SOL    HW139275   2.852  11.096   9.699
79126SOL    HW239276   2.913  10.964   9.740
79127SOL     OW39277   4.675  14.786  11.682
79127SOL    HW139278   4.752  14.737  11.653
79127SOL    HW239279   4.711  14.867  11.718
79128SOL     OW39280  13.705   4.620   3.605
79128SOL    HW139281  13.746   4.545   3.647
79128SOL    HW239282  13.762   4.694   3.627
79129SOL     OW39283  11.368   6.853  13.815
79129SOL    HW139284  11.396   6.761  13.813
79129SOL    HW239285  11.443   6.901  13.779
79130SOL     OW39286   6.733  11.223  10.672
79130SOL    HW139287   6.799  11.292  10.674
79130SOL    HW239288   6.734  11.190  10.583
79131SOL     OW39289   0.431   6.078   8.958
79131SOL    HW139290   0.501   6.143   8.959
79131SOL    HW239291   0.376   6.103   8.884
79132SOL     OW39292  11.796   3.106   9.836
79132SOL    HW139293  11.722   3.078   9.890
79132SOL    HW239294  11.822   3.028   9.788
79133SOL     OW39295   2.584   6.935   9.459
79133SOL    HW139296   2.678   6.945   9.474
79133SOL    HW239297   2.578   6.884   9.378
79134SOL     OW39298  14.008  12.608  14.696
79134SOL    HW139299  13.921  12.620  14.734
79134SOL    HW239300  13.994  12.614  14.601
79135SOL     OW39301  14.571  11.316  11.404
79135SOL    HW139302  14.571  11.233  11.357
79135SOL    HW239303  14.612  11.378  11.344
79136SOL     OW39304  12.110   2.688   6.366
79136SOL    HW139305  12.142   2.711   6.453
79136SOL    HW239306  12.103   2.772   6.320
79137SOL     OW39307   5.244  11.058   5.990
79137SOL    HW139308   5.281  11.025   5.908
79137SOL    HW239309   5.317  11.056   6.052
79138SOL     OW39310   5.611   6.107   3.143
79138SOL    HW139311   5.614   6.094   3.048
79138SOL    HW239312   5.702   6.122   3.168
79139SOL     OW39313   1.888   7.934   1.903
79139SOL    HW139314   1.928   7.857   1.863
79139SOL    HW239315   1.806   7.902   1.940
79140SOL     OW39316   4.762   5.817   8.948
79140SOL    HW139317   4.699   5.856   8.888
79140SOL    HW239318   4.841   5.870   8.938
79141SOL     OW39319   2.485  14.092  11.379
79141SOL    HW139320   2.502  14.162  11.442
79141SOL    HW239321   2.497  14.132  11.293
79142SOL     OW39322   2.542   3.424   2.704
79142SOL    HW139323   2.631   3.394   2.686
79142SOL    HW239324   2.508   3.362   2.768
79143SOL     OW39325   8.303   5.597  13.823
79143SOL    HW139326   8.333   5.510  13.795
79143SOL    HW239327   8.361   5.621  13.895
79144SOL     OW39328   0.753  14.860   8.767
79144SOL    HW139329   0.795  14.776   8.747
79144SOL    HW239330   0.659  14.843   8.754
79145SOL     OW39331  14.093   0.276   3.159
79145SOL    HW139332  14.109   0.268   3.253
79145SOL    HW239333  13.998   0.271   3.150
79146SOL     OW39334   2.984   0.397  14.296
79146SOL    HW139335   3.045   0.328  14.268
79146SOL    HW239336   3.036   0.477  14.295
79147SOL     OW39337   9.793   0.437   3.650
79147SOL    HW139338   9.781   0.517   3.598
79147SOL    HW239339   9.713   0.430   3.702
79148SOL     OW39340  10.803   4.332  10.451
79148SOL    HW139341  10.891   4.367  10.435
79148SOL    HW239342  10.818   4.254  10.504
79149SOL     OW39343   4.270  14.796   5.784
79149SOL    HW139344   4.189  14.795   5.732
79149SOL    HW239345   4.298   0.016   5.783
79150SOL     OW39346   2.956   1.626   8.053
79150SOL    HW139347   2.967   1.701   7.995
79150SOL    HW239348   2.986   1.551   8.001
79151SOL     OW39349  14.806   1.117   8.970
79151SOL    HW139350   0.023   1.089   8.993
79151SOL    HW239351  14.784   1.183   9.036
79152SOL     OW39352   0.023   8.569   4.119
79152SOL    HW139353   0.020   8.646   4.175
79152SOL    HW239354   0.048   8.602   4.033
79153SOL     OW39355   8.654   8.025   3.887
79153SOL    HW139356   8.625   8.115   3.904
79153SOL    HW239357   8.706   8.001   3.964
79154SOL     OW39358  12.983  13.637  10.456
79154SOL    HW139359  12.888  13.650  10.452
79154SOL    HW239360  13.019  13.704  10.398
79155SOL     OW39361   5.579  13.589   6.119
79155SOL    HW139362   5.649  13.576   6.183
79155SOL    HW239363   5.522  13.513   6.129
79156SOL     OW39364   7.481   9.727  10.277
79156SOL    HW139365   7.391   9.738  10.246
79156SOL    HW239366   7.493   9.632  10.284
79157SOL     OW39367   1.919   4.765   0.904
79157SOL    HW139368   1.910   4.677   0.941
79157SOL    HW239369   1.909   4.753   0.810
79158SOL     OW39370  12.761   2.931   3.675
79158SOL    HW139371  12.747   2.988   3.751
79158SOL    HW239372  12.785   2.846   3.712
79159SOL     OW39373   0.290   9.805  10.139
79159SOL    HW139374   0.299   9.803  10.234
79159SOL    HW239375   0.342   9.881  10.111
79160SOL     OW39376   4.048  13.987   1.303
79160SOL    HW139377   4.089  14.072   1.285
79160SOL    HW239378   3.961  13.993   1.263
79161SOL     OW39379   9.818   5.924   4.022
79161SOL    HW139380   9.850   5.959   3.939
79161SOL    HW239381   9.897   5.902   4.071
79162SOL     OW39382  11.295  10.436   4.468
79162SOL    HW139383  11.379  10.451   4.511
79162SOL    HW239384  11.247  10.517   4.480
79163SOL     OW39385   9.756  13.674   3.406
79163SOL    HW139386   9.837  13.684   3.355
79163SOL    HW239387   9.689  13.659   3.340
79164SOL     OW39388   1.452  13.604  11.116
79164SOL    HW139389   1.360  13.595  11.092
79164SOL    HW239390   1.451  13.616  11.211
79165SOL     OW39391  14.605   6.980   8.595
79165SOL    HW139392  14.693   6.987   8.557
79165SOL    HW239393  14.620   6.977   8.690
79166SOL     OW39394   3.138   5.955   3.160
79166SOL    HW139395   3.230   5.948   3.188
79166SOL    HW239396   3.090   5.974   3.241
79167SOL     OW39397   5.260   0.395  11.343
79167SOL    HW139398   5.243   0.431  11.430
79167SOL    HW239399   5.203   0.318  11.338
79168SOL     OW39400   7.204   7.517   1.403
79168SOL    HW139401   7.110   7.531   1.393
79168SOL    HW239402   7.222   7.536   1.495
79169SOL     OW39403  13.785   5.063   5.042
79169SOL    HW139404  13.699   5.087   5.007
79169SOL    HW239405  13.792   5.111   5.125
79170SOL     OW39406  14.861   1.989   0.711
79170SOL    HW139407  14.839   2.013   0.621
79170SOL    HW239408  14.777   1.981   0.755
79171SOL     OW39409  12.249   3.959  13.923
79171SOL    HW139410  12.312   3.962  13.851
79171SOL    HW239411  12.205   4.044  13.920
79172SOL     OW39412   9.266   7.354   0.661
79172SOL    HW139413   9.237   7.280   0.608
79172SOL    HW239414   9.186   7.401   0.684
79173SOL     OW39415  11.265  14.492   4.081
79173SOL    HW139416  11.199  14.546   4.125
79173SOL    HW239417  11.225  14.405   4.077
79174SOL     OW39418  12.337   6.666  10.955
79174SOL    HW139419  12.306   6.604  10.889
79174SOL    HW239420  12.429   6.644  10.967
79175SOL     OW39421  13.150   5.520   7.864
79175SOL    HW139422  13.122   5.513   7.773
79175SOL    HW239423  13.242   5.546   7.860
79176SOL     OW39424   4.820   0.421   3.281
79176SOL    HW139425   4.842   0.328   3.282
79176SOL    HW239426   4.742   0.428   3.337
79177SOL     OW39427  11.755   2.490   5.225
79177SOL    HW139428  11.742   2.469   5.317
79177SOL    HW239429  11.731   2.582   5.217
79178SOL     OW39430   2.898   0.017   7.559
79178SOL    HW139431   2.954   0.093   7.576
79178SOL    HW239432   2.948  14.835   7.497
79179SOL     OW39433  14.196   2.032   8.133
79179SOL    HW139434  14.106   2.041   8.100
79179SOL    HW239435  14.238   1.972   8.071
79180SOL     OW39436  14.643  14.372   2.892
79180SOL    HW139437  14.617  14.287   2.858
79180SOL    HW239438  14.560  14.420   2.901
79181SOL     OW39439  13.915  10.165   5.892
79181SOL    HW139440  13.975  10.130   5.957
79181SOL    HW239441  13.917  10.260   5.905
79182SOL     OW39442   3.829  10.748   2.994
79182SOL    HW139443   3.806  10.658   2.969
79182SOL    HW239444   3.908  10.768   2.944
79183SOL     OW39445   9.103   6.063   0.159
79183SOL    HW139446   9.142   5.989   0.113
79183SOL    HW239447   9.022   6.028   0.195
79184SOL     OW39448   1.672  13.081   1.638
79184SOL    HW139449   1.730  13.079   1.562
79184SOL    HW239450   1.730  13.102   1.712
79185SOL     OW39451   6.292  11.555   8.204
79185SOL    HW139452   6.371  11.603   8.226
79185SOL    HW239453   6.312  11.464   8.223
79186SOL     OW39454  14.440   7.005   5.008
79186SOL    HW139455  14.466   6.930   5.061
79186SOL    HW239456  14.413   7.071   5.071
79187SOL     OW39457  14.260   2.322   0.601
79187SOL    HW139458  14.243   2.292   0.511
79187SOL    HW239459  14.340   2.276   0.626
79188SOL     OW39460   8.862   3.697   6.257
79188SOL    HW139461   8.868   3.637   6.332
79188SOL    HW239462   8.836   3.781   6.295
79189SOL     OW39463   2.273  12.784  11.061
79189SOL    HW139464   2.256  12.835  10.982
79189SOL    HW239465   2.310  12.847  11.124
79190SOL     OW39466  14.045   8.036   5.535
79190SOL    HW139467  14.063   8.129   5.552
79190SOL    HW239468  13.951   8.027   5.550
79191SOL     OW39469   1.691   9.405  11.383
79191SOL    HW139470   1.771   9.391  11.332
79191SOL    HW239471   1.642   9.323  11.372
79192SOL     OW39472  12.898   7.659   5.842
79192SOL    HW139473  12.895   7.592   5.774
79192SOL    HW239474  12.806   7.682   5.857
79193SOL     OW39475   6.302  13.484  10.972
79193SOL    HW139476   6.286  13.577  10.957
79193SOL    HW239477   6.397  13.474  10.965
79194SOL     OW39478   2.140   0.510   2.434
79194SOL    HW139479   2.187   0.431   2.460
79194SOL    HW239480   2.067   0.478   2.381
79195SOL     OW39481   9.017   8.671   1.988
79195SOL    HW139482   8.968   8.728   2.047
79195SOL    HW239483   8.952   8.612   1.951
79196SOL     OW39484  12.401   8.706  13.956
79196SOL    HW139485  12.432   8.664  14.036
79196SOL    HW239486  12.430   8.648  13.886
79197SOL     OW39487  14.262   9.517   7.943
79197SOL    HW139488  14.239   9.554   8.028
79197SOL    HW239489  14.224   9.578   7.880
79198SOL     OW39490   1.789  11.534   0.354
79198SOL    HW139491   1.780  11.444   0.385
79198SOL    HW239492   1.703  11.555   0.317
79199SOL     OW39493   4.737   1.199   4.587
79199SOL    HW139494   4.760   1.107   4.598
79199SOL    HW239495   4.754   1.218   4.495
79200SOL     OW39496   2.755   5.186  12.575
79200SOL    HW139497   2.753   5.151  12.486
79200SOL    HW239498   2.665   5.178  12.606
79201SOL     OW39499  10.740   1.775   7.593
79201SOL    HW139500  10.704   1.724   7.520
79201SOL    HW239501  10.742   1.714   7.666
79202SOL     OW39502  10.515   8.285   8.688
79202SOL    HW139503  10.520   8.328   8.602
79202SOL    HW239504  10.581   8.216   8.683
79203SOL     OW39505   8.816   2.908  14.608
79203SOL    HW139506   8.896   2.862  14.586
79203SOL    HW239507   8.761   2.899  14.530
79204SOL     OW39508   8.163   4.460  10.417
79204SOL    HW139509   8.086   4.504  10.453
79204SOL    HW239510   8.235   4.523  10.430
79205SOL     OW39511  10.831   3.207  11.708
79205SOL    HW139512  10.819   3.172  11.619
79205SOL    HW239513  10.908   3.263  11.701
79206SOL     OW39514   6.336   9.388  13.804
79206SOL    HW139515   6.328   9.366  13.711
79206SOL    HW239516   6.248   9.373  13.839
79207SOL     OW39517   1.896   6.077   5.585
79207SOL    HW139518   1.903   5.982   5.596
79207SOL    HW239519   1.818   6.101   5.634
79208SOL     OW39520  13.413   5.777   9.862
79208SOL    HW139521  13.495   5.805   9.821
79208SOL    HW239522  13.379   5.709   9.803
79209SOL     OW39523   9.937   2.182  12.666
79209SOL    HW139524   9.890   2.195  12.584
79209SOL    HW239525   9.873   2.145  12.725
79210SOL     OW39526  10.012   3.627  12.380
79210SOL    HW139527  10.026   3.548  12.432
79210SOL    HW239528  10.061   3.612  12.299
79211SOL     OW39529   3.366   7.872   5.858
79211SOL    HW139530   3.400   7.783   5.858
79211SOL    HW239531   3.443   7.928   5.848
79212SOL     OW39532   6.209   1.206   5.649
79212SOL    HW139533   6.167   1.140   5.704
79212SOL    HW239534   6.295   1.219   5.688
79213SOL     OW39535   1.959   7.919  11.639
79213SOL    HW139536   1.982   7.848  11.579
79213SOL    HW239537   1.933   7.875  11.720
79214SOL     OW39538   2.244   8.818   5.214
79214SOL    HW139539   2.321   8.770   5.184
79214SOL    HW239540   2.171   8.759   5.196
79215SOL     OW39541  14.642  14.370  11.732
79215SOL    HW139542  14.686  14.431  11.792
79215SOL    HW239543  14.690  14.380  11.649
79216SOL     OW39544  11.370   8.282   3.374
79216SOL    HW139545  11.345   8.226   3.300
79216SOL    HW239546  11.465   8.292   3.366
79217SOL     OW39547  11.741   0.928   6.644
79217SOL    HW139548  11.739   1.010   6.594
79217SOL    HW239549  11.729   0.860   6.578
79218SOL     OW39550   3.395  11.298  12.386
79218SOL    HW139551   3.425  11.338  12.305
79218SOL    HW239552   3.425  11.357  12.455
79219SOL     OW39553   0.777   7.709   3.632
79219SOL    HW139554   0.717   7.784   3.627
79219SOL    HW239555   0.792   7.685   3.540
79220SOL     OW39556   2.783  12.812   0.977
79220SOL    HW139557   2.738  12.735   0.941
79220SOL    HW239558   2.870  12.779   1.001
79221SOL     OW39559   3.611   8.010   1.978
79221SOL    HW139560   3.614   8.049   1.891
79221SOL    HW239561   3.630   7.917   1.964
79222SOL     OW39562  13.452   1.577   2.836
79222SOL    HW139563  13.507   1.635   2.785
79222SOL    HW239564  13.382   1.633   2.870
79223SOL     OW39565   8.348  11.835  11.264
79223SOL    HW139566   8.377  11.768  11.327
79223SOL    HW239567   8.257  11.813  11.247
79224SOL     OW39568   2.974   9.748   1.246
79224SOL    HW139569   2.947   9.663   1.211
79224SOL    HW239570   3.050   9.773   1.192
79225SOL     OW39571   4.227   1.445   0.603
79225SOL    HW139572   4.208   1.355   0.577
79225SOL    HW239573   4.290   1.437   0.674
79226SOL     OW39574  11.520   3.017  12.957
79226SOL    HW139575  11.577   2.999  12.882
79226SOL    HW239576  11.446   3.064  12.921
79227SOL     OW39577  14.243   0.485   1.304
79227SOL    HW139578  14.182   0.517   1.237
79227SOL    HW239579  14.315   0.548   1.303
79228SOL     OW39580   5.071   1.061  14.194
79228SOL    HW139581   5.050   1.145  14.155
79228SOL    HW239582   5.149   1.079  14.247
79229SOL     OW39583   0.351  13.691   2.383
79229SOL    HW139584   0.286  13.649   2.441
79229SOL    HW239585   0.395  13.618   2.340
79230SOL     OW39586  12.593   8.095  10.022
79230SOL    HW139587  12.598   8.190  10.009
79230SOL    HW239588  12.683   8.065  10.012
79231SOL     OW39589   4.806   2.110   8.244
79231SOL    HW139590   4.711   2.108   8.256
79231SOL    HW239591   4.833   2.019   8.258
79232SOL     OW39592   4.945   6.154   2.019
79232SOL    HW139593   4.852   6.158   1.995
79232SOL    HW239594   4.947   6.193   2.107
79233SOL     OW39595   1.873  10.886   4.214
79233SOL    HW139596   1.928  10.819   4.256
79233SOL    HW239597   1.798  10.895   4.272
79234SOL     OW39598  10.318   9.416   5.911
79234SOL    HW139599  10.389   9.395   5.972
79234SOL    HW239600  10.267   9.483   5.955
79235SOL     OW39601   9.249   8.369   3.366
79235SOL    HW139602   9.245   8.322   3.283
79235SOL    HW239603   9.254   8.461   3.342
79236SOL     OW39604  14.446   9.649   5.532
79236SOL    HW139605  14.524   9.703   5.535
79236SOL    HW239606  14.459   9.583   5.600
79237SOL     OW39607   0.402  13.282  10.613
79237SOL    HW139608   0.335  13.225  10.573
79237SOL    HW239609   0.388  13.367  10.571
79238SOL     OW39610   0.443   6.664   4.545
79238SOL    HW139611   0.473   6.742   4.498
79238SOL    HW239612   0.415   6.605   4.476
79239SOL     OW39613   1.705  13.782   2.811
79239SOL    HW139614   1.681  13.701   2.856
79239SOL    HW239615   1.759  13.829   2.874
79240SOL     OW39616   8.609   4.251   9.637
79240SOL    HW139617   8.546   4.180   9.630
79240SOL    HW239618   8.584   4.312   9.568
79241SOL     OW39619  11.394  12.960   0.306
79241SOL    HW139620  11.435  12.891   0.254
79241SOL    HW239621  11.466  13.018   0.330
79242SOL     OW39622   4.118   0.808   9.403
79242SOL    HW139623   4.133   0.884   9.346
79242SOL    HW239624   4.205   0.771   9.418
79243SOL     OW39625  13.260   1.409   4.399
79243SOL    HW139626  13.332   1.347   4.417
79243SOL    HW239627  13.260   1.418   4.304
79244SOL     OW39628   2.006   0.231  11.194
79244SOL    HW139629   1.957   0.292  11.140
79244SOL    HW239630   1.987   0.257  11.284
79245SOL     OW39631   4.165   9.895   6.429
79245SOL    HW139632   4.182   9.877   6.521
79245SOL    HW239633   4.087   9.844   6.408
79246SOL     OW39634   4.242   9.396   1.758
79246SOL    HW139635   4.203   9.443   1.684
79246SOL    HW239636   4.334   9.423   1.757
79247SOL     OW39637   5.384   9.596   6.568
79247SOL    HW139638   5.382   9.520   6.509
79247SOL    HW239639   5.301   9.592   6.615
79248SOL     OW39640   4.361   2.592   9.584
79248SOL    HW139641   4.378   2.511   9.632
79248SOL    HW239642   4.275   2.620   9.614
79249SOL     OW39643  13.721   2.186   7.861
79249SOL    HW139644  13.628   2.196   7.843
79249SOL    HW239645  13.760   2.269   7.833
79250SOL     OW39646  10.958   8.759   2.679
79250SOL    HW139647  10.953   8.695   2.750
79250SOL    HW239648  10.922   8.712   2.603
79251SOL     OW39649   9.006   6.862   0.604
79251SOL    HW139650   9.085   6.851   0.656
79251SOL    HW239651   8.966   6.775   0.601
79252SOL     OW39652   2.459   4.138   1.795
79252SOL    HW139653   2.551   4.137   1.769
79252SOL    HW239654   2.422   4.058   1.757
79253SOL     OW39655  13.816   1.925  12.899
79253SOL    HW139656  13.833   1.831  12.907
79253SOL    HW239657  13.722   1.932  12.885
79254SOL     OW39658   5.672   1.311   9.641
79254SOL    HW139659   5.605   1.358   9.591
79254SOL    HW239660   5.733   1.278   9.575
79255SOL     OW39661  12.499   6.273  14.199
79255SOL    HW139662  12.444   6.321  14.260
79255SOL    HW239663  12.570   6.333  14.178
79256SOL     OW39664   1.869   4.177   2.795
79256SOL    HW139665   1.906   4.187   2.882
79256SOL    HW239666   1.829   4.263   2.776
79257SOL     OW39667   5.235   7.118   0.398
79257SOL    HW139668   5.210   7.167   0.319
79257SOL    HW239669   5.321   7.082   0.378
79258SOL     OW39670   5.861  11.487   1.476
79258SOL    HW139671   5.819  11.566   1.509
79258SOL    HW239672   5.814  11.415   1.518
79259SOL     OW39673  11.946   5.715  11.147
79259SOL    HW139674  11.887   5.717  11.071
79259SOL    HW239675  11.906   5.652  11.206
79260SOL     OW39676   3.316   9.427   1.227
79260SOL    HW139677   3.255   9.411   1.298
79260SOL    HW239678   3.403   9.425   1.268
79261SOL     OW39679   7.603   7.702  10.689
79261SOL    HW139680   7.640   7.619  10.721
79261SOL    HW239681   7.547   7.676  10.616
79262SOL     OW39682  14.793   2.516   4.121
79262SOL    HW139683  14.786   2.530   4.215
79262SOL    HW239684  14.716   2.463   4.099
79263SOL     OW39685   0.794   2.859  14.196
79263SOL    HW139686   0.829   2.773  14.220
79263SOL    HW239687   0.852   2.921  14.239
79264SOL     OW39688   5.527   2.522   8.234
79264SOL    HW139689   5.448   2.502   8.182
79264SOL    HW239690   5.557   2.437   8.265
79265SOL     OW39691   5.902   2.705   0.242
79265SOL    HW139692   5.880   2.635   0.303
79265SOL    HW239693   5.943   2.661   0.168
79266SOL     OW39694   5.804   7.866   0.512
79266SOL    HW139695   5.759   7.943   0.477
79266SOL    HW239696   5.876   7.903   0.565
79267SOL     OW39697   6.966   9.285   6.165
79267SOL    HW139698   6.999   9.198   6.145
79267SOL    HW239699   6.871   9.276   6.165
79268SOL     OW39700   7.502   3.021   5.773
79268SOL    HW139701   7.462   3.074   5.843
79268SOL    HW239702   7.489   3.073   5.694
79269SOL     OW39703   5.530   5.674   6.590
79269SOL    HW139704   5.599   5.610   6.576
79269SOL    HW239705   5.546   5.742   6.524
79270SOL     OW39706   8.656  10.992  11.058
79270SOL    HW139707   8.617  10.954  10.980
79270SOL    HW239708   8.604  10.957  11.130
79271SOL     OW39709   1.065   0.066   6.297
79271SOL    HW139710   1.159   0.053   6.299
79271SOL    HW239711   1.037   0.056   6.388
79272SOL     OW39712  12.361  14.376   1.440
79272SOL    HW139713  12.393  14.382   1.530
79272SOL    HW239714  12.319  14.290   1.436
79273SOL     OW39715   4.288  12.717  13.434
79273SOL    HW139716   4.248  12.664  13.365
79273SOL    HW239717   4.214  12.760  13.477
79274SOL     OW39718   8.196  14.192   9.277
79274SOL    HW139719   8.284  14.158   9.294
79274SOL    HW239720   8.147  14.170   9.356
79275SOL     OW39721  14.184   5.611  12.498
79275SOL    HW139722  14.092   5.585  12.506
79275SOL    HW239723  14.188   5.657  12.414
79276SOL     OW39724   6.012  13.205   2.701
79276SOL    HW139725   5.938  13.237   2.649
79276SOL    HW239726   5.973  13.157   2.773
79277SOL     OW39727  13.035  12.430  12.555
79277SOL    HW139728  12.984  12.399  12.479
79277SOL    HW239729  13.110  12.475  12.516
79278SOL     OW39730   3.558   1.512   5.940
79278SOL    HW139731   3.606   1.571   5.998
79278SOL    HW239732   3.578   1.544   5.852
79279SOL     OW39733   6.969   3.701  11.235
79279SOL    HW139734   6.986   3.697  11.141
79279SOL    HW239735   7.004   3.786  11.263
79280SOL     OW39736  11.237  10.385   5.351
79280SOL    HW139737  11.236  10.317   5.418
79280SOL    HW239738  11.204  10.463   5.397
79281SOL     OW39739  13.639  14.057  10.312
79281SOL    HW139740  13.556  14.101  10.332
79281SOL    HW239741  13.681  14.113  10.247
79282SOL     OW39742   4.196   8.237  11.363
79282SOL    HW139743   4.290   8.258  11.368
79282SOL    HW239744   4.184   8.167  11.428
79283SOL     OW39745   5.014  10.349   4.700
79283SOL    HW139746   4.921  10.337   4.721
79283SOL    HW239747   5.016  10.357   4.605
79284SOL     OW39748   5.712   3.737   0.874
79284SOL    HW139749   5.725   3.798   0.947
79284SOL    HW239750   5.786   3.676   0.881
79285SOL     OW39751   5.049   7.390   4.170
79285SOL    HW139752   5.090   7.445   4.103
79285SOL    HW239753   4.968   7.360   4.130
79286SOL     OW39754   9.937   5.260  14.695
79286SOL    HW139755   9.921   5.307  14.612
79286SOL    HW239756   9.850   5.235  14.725
79287SOL     OW39757  14.819   1.345   9.302
79287SOL    HW139758  14.804   1.378   9.391
79287SOL    HW239759  14.779   1.410   9.245
79288SOL     OW39760  13.520   3.655   1.845
79288SOL    HW139761  13.464   3.730   1.824
79288SOL    HW239762  13.474   3.580   1.809
79289SOL     OW39763   3.641  12.052  10.417
79289SOL    HW139764   3.627  11.985  10.350
79289SOL    HW239765   3.724  12.027  10.458
79290SOL     OW39766   1.207   1.526  12.630
79290SOL    HW139767   1.188   1.466  12.558
79290SOL    HW239768   1.197   1.613  12.592
79291SOL     OW39769   4.173   5.865  14.488
79291SOL    HW139770   4.087   5.834  14.457
79291SOL    HW239771   4.233   5.843  14.417
79292SOL     OW39772  12.016   8.270   6.376
79292SOL    HW139773  12.046   8.206   6.440
79292SOL    HW239774  12.093   8.287   6.321
79293SOL     OW39775   9.481   1.366  13.041
79293SOL    HW139776   9.395   1.374  13.000
79293SOL    HW239777   9.471   1.409  13.126
79294SOL     OW39778  11.023   2.203  10.162
79294SOL    HW139779  10.943   2.230  10.208
79294SOL    HW239780  11.081   2.279  10.168
79295SOL     OW39781   6.074   2.508   9.032
79295SOL    HW139782   6.144   2.542   9.087
79295SOL    HW239783   5.998   2.503   9.089
79296SOL     OW39784   8.616   6.806   1.598
79296SOL    HW139785   8.551   6.823   1.530
79296SOL    HW239786   8.664   6.729   1.567
79297SOL     OW39787  10.261   6.469   3.389
79297SOL    HW139788  10.266   6.485   3.483
79297SOL    HW239789  10.315   6.538   3.350
79298SOL     OW39790  10.282   7.603   7.415
79298SOL    HW139791  10.363   7.553   7.407
79298SOL    HW239792  10.226   7.569   7.346
79299SOL     OW39793  14.329   8.903  14.867
79299SOL    HW139794  14.259   8.864   0.048
79299SOL    HW239795  14.407   8.898   0.051
79300SOL     OW39796   4.841   8.913   0.536
79300SOL    HW139797   4.897   8.836   0.548
79300SOL    HW239798   4.752   8.879   0.539
79301SOL     OW39799   6.178   8.944  12.780
79301SOL    HW139800   6.251   8.983  12.732
79301SOL    HW239801   6.205   8.948  12.872
79302SOL     OW39802  13.934  14.741  14.568
79302SOL    HW139803  14.023  14.708  14.561
79302SOL    HW239804  13.939  14.807  14.638
79303SOL     OW39805   1.078   7.978   6.913
79303SOL    HW139806   1.140   8.000   6.982
79303SOL    HW239807   1.012   8.047   6.916
79304SOL     OW39808  10.911   6.717   8.100
79304SOL    HW139809  10.851   6.790   8.115
79304SOL    HW239810  10.855   6.645   8.072
79305SOL     OW39811   3.029  12.719   1.030
79305SOL    HW139812   3.100  12.681   0.977
79305SOL    HW239813   3.063  12.719   1.119
79306SOL     OW39814   3.483   3.202   7.181
79306SOL    HW139815   3.499   3.276   7.122
79306SOL    HW239816   3.406   3.228   7.231
79307SOL     OW39817   7.887  14.057  14.816
79307SOL    HW139818   7.948  14.122  14.781
79307SOL    HW239819   7.892  13.984  14.754
79308SOL     OW39820   1.490   3.006   7.325
79308SOL    HW139821   1.561   3.056   7.367
79308SOL    HW239822   1.480   2.929   7.380
79309SOL     OW39823  13.541   7.410   2.058
79309SOL    HW139824  13.588   7.472   2.114
79309SOL    HW239825  13.574   7.324   2.085
79310SOL     OW39826   0.873   5.964   3.276
79310SOL    HW139827   0.859   5.916   3.194
79310SOL    HW239828   0.948   6.021   3.257
79311SOL     OW39829   3.406   2.478  10.231
79311SOL    HW139830   3.343   2.415  10.267
79311SOL    HW239831   3.492   2.444  10.258
79312SOL     OW39832   8.862   9.489   6.415
79312SOL    HW139833   8.938   9.473   6.359
79312SOL    HW239834   8.891   9.464   6.503
79313SOL     OW39835   7.795   7.498  14.481
79313SOL    HW139836   7.715   7.546  14.502
79313SOL    HW239837   7.782   7.466  14.392
79314SOL     OW39838   3.978  14.688   9.536
79314SOL    HW139839   3.989  14.757   9.602
79314SOL    HW239840   3.922  14.623   9.579
79315SOL     OW39841   3.722   3.719   3.071
79315SOL    HW139842   3.810   3.739   3.101
79315SOL    HW239843   3.734   3.664   2.993
79316SOL     OW39844   9.423   9.489   2.406
79316SOL    HW139845   9.430   9.528   2.493
79316SOL    HW239846   9.403   9.563   2.348
79317SOL     OW39847   5.337   8.340   3.580
79317SOL    HW139848   5.299   8.383   3.503
79317SOL    HW239849   5.421   8.305   3.549
79318SOL     OW39850   3.812   1.214   6.319
79318SOL    HW139851   3.743   1.148   6.317
79318SOL    HW239852   3.836   1.221   6.412
79319SOL     OW39853  14.527   3.611   8.105
79319SOL    HW139854  14.501   3.702   8.120
79319SOL    HW239855  14.579   3.588   8.182
79320SOL     OW39856   5.610   0.081  12.486
79320SOL    HW139857   5.631   0.113  12.574
79320SOL    HW239858   5.518   0.104  12.473
79321SOL     OW39859   4.996   5.419  14.669
79321SOL    HW139860   5.081   5.382  14.644
79321SOL    HW239861   4.932   5.357  14.634
79322SOL     OW39862   6.152   8.826   4.355
79322SOL    HW139863   6.142   8.798   4.446
79322SOL    HW239864   6.116   8.915   4.353
79323SOL     OW39865   3.011   8.074   4.735
79323SOL    HW139866   3.036   8.158   4.696
79323SOL    HW239867   3.095   8.031   4.753
79324SOL     OW39868   4.969   6.062   0.842
79324SOL    HW139869   4.906   6.110   0.896
79324SOL    HW239870   4.917   5.992   0.802
79325SOL     OW39871  11.783  12.781   5.319
79325SOL    HW139872  11.814  12.692   5.303
79325SOL    HW239873  11.851  12.837   5.283
79326SOL     OW39874  11.597  14.128  10.308
79326SOL    HW139875  11.527  14.069  10.281
79326SOL    HW239876  11.582  14.208  10.258
79327SOL     OW39877  12.080   0.653   5.921
79327SOL    HW139878  12.156   0.693   5.963
79327SOL    HW239879  12.083   0.561   5.948
79328SOL     OW39880   6.892   8.972   4.585
79328SOL    HW139881   6.842   9.001   4.509
79328SOL    HW239882   6.863   8.882   4.599
79329SOL     OW39883   8.965   6.588   9.640
79329SOL    HW139884   8.951   6.500   9.677
79329SOL    HW239885   8.932   6.582   9.551
79330SOL     OW39886   8.753   2.478   1.611
79330SOL    HW139887   8.703   2.545   1.658
79330SOL    HW239888   8.719   2.395   1.644
79331SOL     OW39889   2.640  13.284  14.560
79331SOL    HW139890   2.709  13.350  14.573
79331SOL    HW239891   2.687  13.204  14.539
79332SOL     OW39892  10.908   5.439   0.417
79332SOL    HW139893  10.821   5.414   0.450
79332SOL    HW239894  10.904   5.423   0.323
79333SOL     OW39895   2.586  11.747   3.270
79333SOL    HW139896   2.587  11.652   3.285
79333SOL    HW239897   2.675  11.767   3.240
79334SOL     OW39898   8.025   6.770   7.057
79334SOL    HW139899   7.952   6.831   7.065
79334SOL    HW239900   8.018   6.735   6.968
79335SOL     OW39901  12.846   9.215  11.385
79335SOL    HW139902  12.941   9.219  11.398
79335SOL    HW239903  12.813   9.299  11.417
79336SOL     OW39904   9.016   9.042   7.606
79336SOL    HW139905   9.108   9.018   7.607
79336SOL    HW239906   8.969   8.959   7.597
79337SOL     OW39907  13.089   7.672  10.943
79337SOL    HW139908  13.076   7.670  11.038
79337SOL    HW239909  13.119   7.584  10.921
79338SOL     OW39910   5.539  11.980   4.073
79338SOL    HW139911   5.568  12.050   4.131
79338SOL    HW239912   5.521  12.023   3.990
79339SOL     OW39913  13.058   5.032   3.500
79339SOL    HW139914  13.047   5.089   3.424
79339SOL    HW239915  13.152   5.015   3.505
79340SOL     OW39916   4.290   0.601   7.704
79340SOL    HW139917   4.241   0.666   7.654
79340SOL    HW239918   4.262   0.516   7.669
79341SOL     OW39919   3.968  12.567   5.707
79341SOL    HW139920   3.956  12.529   5.620
79341SOL    HW239921   3.925  12.506   5.767
79342SOL     OW39922   1.127   6.905  10.454
79342SOL    HW139923   1.219   6.930  10.447
79342SOL    HW239924   1.117   6.832  10.393
79343SOL     OW39925   6.058   3.854  14.780
79343SOL    HW139926   6.063   3.950  14.789
79343SOL    HW239927   6.018   3.825  14.862
79344SOL     OW39928   3.188  12.862  10.645
79344SOL    HW139929   3.202  12.857  10.551
79344SOL    HW239930   3.092  12.858  10.655
79345SOL     OW39931   5.675  14.856   0.335
79345SOL    HW139932   5.656  14.767   0.307
79345SOL    HW239933   5.757   0.007   0.291
79346SOL     OW39934  10.648   0.712   8.949
79346SOL    HW139935  10.723   0.768   8.931
79346SOL    HW239936  10.686   0.624   8.958
79347SOL     OW39937   6.548   9.548  11.458
79347SOL    HW139938   6.621   9.488  11.474
79347SOL    HW239939   6.526   9.534  11.366
79348SOL     OW39940   2.438   2.616  11.905
79348SOL    HW139941   2.375   2.674  11.949
79348SOL    HW239942   2.441   2.649  11.815
79349SOL     OW39943   1.786   5.797   9.564
79349SOL    HW139944   1.782   5.795   9.660
79349SOL    HW239945   1.793   5.705   9.539
79350SOL     OW39946  12.775   8.676   2.676
79350SOL    HW139947  12.757   8.590   2.638
79350SOL    HW239948  12.689   8.716   2.686
79351SOL     OW39949  11.606   0.576   0.700
79351SOL    HW139950  11.590   0.483   0.681
79351SOL    HW239951  11.521   0.618   0.686
79352SOL     OW39952   2.120  10.292   3.778
79352SOL    HW139953   2.191  10.355   3.780
79352SOL    HW239954   2.106  10.268   3.870
79353SOL     OW39955  11.912  14.271   0.291
79353SOL    HW139956  11.877  14.188   0.258
79353SOL    HW239957  11.884  14.336   0.226
79354SOL     OW39958   5.669  14.837   6.843
79354SOL    HW139959   5.686   0.031   6.911
79354SOL    HW239960   5.741  14.774   6.852
79355SOL     OW39961  10.607   6.939   7.305
79355SOL    HW139962  10.533   6.926   7.246
79355SOL    HW239963  10.683   6.906   7.257
79356SOL     OW39964  13.425  12.273  13.083
79356SOL    HW139965  13.338  12.267  13.123
79356SOL    HW239966  13.484  12.283  13.158
79357SOL     OW39967   0.516  11.138   6.667
79357SOL    HW139968   0.513  11.126   6.572
79357SOL    HW239969   0.572  11.066   6.698
79358SOL     OW39970  10.071  10.510  12.932
79358SOL    HW139971  10.162  10.528  12.954
79358SOL    HW239972  10.021  10.579  12.976
79359SOL     OW39973   9.615   0.082   0.503
79359SOL    HW139974   9.600   0.098   0.410
79359SOL    HW239975   9.551   0.015   0.526
79360SOL     OW39976   3.798   4.689  12.310
79360SOL    HW139977   3.832   4.652  12.391
79360SOL    HW239978   3.727   4.747  12.337
79361SOL     OW39979  14.795   8.980   2.936
79361SOL    HW139980  14.763   8.895   2.905
79361SOL    HW239981  14.727   9.042   2.912
79362SOL     OW39982   9.059  14.664   9.099
79362SOL    HW139983   8.987  14.671   9.162
79362SOL    HW239984   9.116  14.596   9.134
79363SOL     OW39985   4.890   8.955  11.650
79363SOL    HW139986   4.850   9.016  11.588
79363SOL    HW239987   4.984   8.961  11.632
79364SOL     OW39988  10.714  14.711  10.501
79364SOL    HW139989  10.671  14.728  10.585
79364SOL    HW239990  10.797  14.758  10.507
79365SOL     OW39991   8.584   4.301   9.893
79365SOL    HW139992   8.651   4.366   9.915
79365SOL    HW239993   8.584   4.299   9.797
79366SOL     OW39994   7.465   7.215  11.370
79366SOL    HW139995   7.494   7.296  11.411
79366SOL    HW239996   7.547   7.170  11.346
79367SOL     OW39997  14.323   1.454   8.870
79367SOL    HW139998  14.259   1.492   8.810
79367SOL    HW239999  14.273   1.430   8.948
79368SOL     OW40000   2.730   2.061   9.706
79368SOL    HW140001   2.753   2.113   9.629
79368SOL    HW240002   2.795   1.991   9.708
79369SOL     OW40003   3.088  13.118   8.497
79369SOL    HW140004   3.027  13.081   8.434
79369SOL    HW240005   3.107  13.206   8.463
79370SOL     OW40006   0.636   6.603  14.585
79370SOL    HW140007   0.649   6.547  14.661
79370SOL    HW240008   0.635   6.543  14.511
79371SOL     OW40009   0.854   7.572   8.403
79371SOL    HW140010   0.913   7.598   8.475
79371SOL    HW240011   0.908   7.519   8.345
79372SOL     OW40012   8.630  11.974  10.519
79372SOL    HW140013   8.620  11.895  10.464
79372SOL    HW240014   8.693  12.028  10.471
79373SOL     OW40015  11.652   0.074   4.400
79373SOL    HW140016  11.743   0.046   4.415
79373SOL    HW240017  11.655   0.169   4.413
79374SOL     OW40018   2.660   1.358  10.790
79374SOL    HW140019   2.695   1.434  10.743
79374SOL    HW240020   2.727   1.337  10.854
79375SOL     OW40021   8.795   5.938   6.060
79375SOL    HW140022   8.830   5.966   5.976
79375SOL    HW240023   8.814   5.844   6.065
79376SOL     OW40024   6.335  13.030  13.930
79376SOL    HW140025   6.333  12.944  13.973
79376SOL    HW240026   6.247  13.065  13.944
79377SOL     OW40027   5.784   3.532   5.760
79377SOL    HW140028   5.810   3.623   5.749
79377SOL    HW240029   5.850   3.495   5.819
79378SOL     OW40030  12.384   3.276   3.283
79378SOL    HW140031  12.434   3.197   3.300
79378SOL    HW240032  12.450   3.341   3.257
79379SOL     OW40033  10.159   8.984   3.705
79379SOL    HW140034  10.208   8.907   3.677
79379SOL    HW240035  10.163   9.044   3.630
79380SOL     OW40036   5.531   3.580   4.970
79380SOL    HW140037   5.452   3.632   4.985
79380SOL    HW240038   5.534   3.519   5.044
79381SOL     OW40039  14.302  13.680   9.906
79381SOL    HW140040  14.209  13.692   9.924
79381SOL    HW240041  14.346  13.742   9.964
79382SOL     OW40042   7.646   7.790  11.246
79382SOL    HW140043   7.568   7.816  11.293
79382SOL    HW240044   7.683   7.872  11.213
79383SOL     OW40045  13.907   7.833   7.437
79383SOL    HW140046  13.816   7.830   7.465
79383SOL    HW240047  13.938   7.743   7.445
79384SOL     OW40048   2.522   0.095  10.307
79384SOL    HW140049   2.584   0.167  10.306
79384SOL    HW240050   2.566   0.026  10.357
79385SOL     OW40051   7.088   3.864   0.524
79385SOL    HW140052   7.024   3.892   0.458
79385SOL    HW240053   7.138   3.942   0.543
79386SOL     OW40054   9.463   9.541   7.384
79386SOL    HW140055   9.514   9.490   7.447
79386SOL    HW240056   9.373   9.537   7.417
79387SOL     OW40057   0.114   8.830  14.686
79387SOL    HW140058   0.173   8.863  14.619
79387SOL    HW240059   0.033   8.879  14.673
79388SOL     OW40060   8.181   5.803  12.813
79388SOL    HW140061   8.160   5.806  12.907
79388SOL    HW240062   8.251   5.738  12.806
79389SOL     OW40063   7.940  10.810   6.499
79389SOL    HW140064   7.969  10.724   6.470
79389SOL    HW240065   7.844  10.807   6.491
79390SOL     OW40066   4.652  12.587   5.306
79390SOL    HW140067   4.728  12.642   5.326
79390SOL    HW240068   4.581  12.624   5.359
79391SOL     OW40069   4.145  11.402   9.881
79391SOL    HW140070   4.187  11.348   9.814
79391SOL    HW240071   4.209  11.408   9.952
79392SOL     OW40072   6.063  11.786   3.804
79392SOL    HW140073   6.129  11.840   3.760
79392SOL    HW240074   5.980  11.815   3.766
79393SOL     OW40075   7.572   9.730   2.231
79393SOL    HW140076   7.655   9.723   2.279
79393SOL    HW240077   7.511   9.675   2.280
79394SOL     OW40078   5.923   0.209   1.015
79394SOL    HW140079   5.944   0.118   0.995
79394SOL    HW240080   5.828   0.214   1.007
79395SOL     OW40081   6.760  14.530   7.475
79395SOL    HW140082   6.753  14.612   7.523
79395SOL    HW240083   6.703  14.542   7.399
79396SOL     OW40084  14.483   8.067  10.921
79396SOL    HW140085  14.539   7.996  10.954
79396SOL    HW240086  14.536   8.110  10.855
79397SOL     OW40087   5.091   7.874   7.874
79397SOL    HW140088   5.059   7.808   7.935
79397SOL    HW240089   5.174   7.904   7.912
79398SOL     OW40090   0.358   8.393  11.653
79398SOL    HW140091   0.306   8.456  11.602
79398SOL    HW240092   0.426   8.447  11.695
79399SOL     OW40093   1.420   6.569   5.719
79399SOL    HW140094   1.398   6.636   5.655
79399SOL    HW240095   1.398   6.609   5.804
79400SOL     OW40096   3.250  12.126   4.297
79400SOL    HW140097   3.336  12.157   4.269
79400SOL    HW240098   3.205  12.204   4.329
79401SOL     OW40099   2.906  11.657   0.040
79401SOL    HW140100   2.858  11.719   0.095
79401SOL    HW240101   2.891  11.686  14.822
79402SOL     OW40102  10.703   5.157   5.134
79402SOL    HW140103  10.668   5.193   5.053
79402SOL    HW240104  10.626   5.126   5.182
79403SOL     OW40105  10.650   4.885   5.234
79403SOL    HW140106  10.669   4.797   5.201
79403SOL    HW240107  10.713   4.942   5.189
79404SOL     OW40108   6.231   6.422  12.516
79404SOL    HW140109   6.209   6.482  12.588
79404SOL    HW240110   6.166   6.352  12.522
79405SOL     OW40111   3.285   1.094   6.348
79405SOL    HW140112   3.232   1.147   6.288
79405SOL    HW240113   3.291   1.009   6.305
79406SOL     OW40114   4.129   1.247   5.241
79406SOL    HW140115   4.197   1.184   5.218
79406SOL    HW240116   4.121   1.240   5.336
79407SOL     OW40117   6.694   6.554  13.100
79407SOL    HW140118   6.698   6.606  13.180
79407SOL    HW240119   6.677   6.618  13.031
79408SOL     OW40120   7.365   5.675   5.086
79408SOL    HW140121   7.317   5.685   5.003
79408SOL    HW240122   7.321   5.602   5.130
79409SOL     OW40123  11.176  10.173   1.632
79409SOL    HW140124  11.104  10.110   1.625
79409SOL    HW240125  11.152  10.244   1.572
79410SOL     OW40126  11.555   1.945  13.122
79410SOL    HW140127  11.622   2.000  13.081
79410SOL    HW240128  11.604   1.888  13.181
79411SOL     OW40129   5.922   3.145   2.530
79411SOL    HW140130   5.832   3.124   2.502
79411SOL    HW240131   5.914   3.230   2.573
79412SOL     OW40132   7.255   1.264   2.368
79412SOL    HW140133   7.297   1.185   2.402
79412SOL    HW240134   7.312   1.292   2.296
79413SOL     OW40135   6.619  13.282   3.927
79413SOL    HW140136   6.702  13.238   3.944
79413SOL    HW240137   6.587  13.306   4.014
79414SOL     OW40138  12.650  12.096   0.397
79414SOL    HW140139  12.738  12.107   0.360
79414SOL    HW240140  12.623  12.009   0.369
79415SOL     OW40141   7.485   6.340  12.933
79415SOL    HW140142   7.569   6.373  12.901
79415SOL    HW240143   7.430   6.337  12.855
79416SOL     OW40144   8.028   1.616   5.778
79416SOL    HW140145   8.049   1.526   5.803
79416SOL    HW240146   7.943   1.610   5.735
79417SOL     OW40147   2.497   3.434   9.672
79417SOL    HW140148   2.429   3.376   9.638
79417SOL    HW240149   2.528   3.390   9.751
79418SOL     OW40150   4.970   1.045   6.326
79418SOL    HW140151   4.954   0.955   6.356
79418SOL    HW240152   5.062   1.046   6.301
79419SOL     OW40153   6.817   8.875   0.359
79419SOL    HW140154   6.750   8.829   0.307
79419SOL    HW240155   6.767   8.922   0.426
79420SOL     OW40156  12.577   8.792  10.011
79420SOL    HW140157  12.564   8.793  10.106
79420SOL    HW240158  12.669   8.771  10.000
79421SOL     OW40159   8.769  10.039   7.017
79421SOL    HW140160   8.770  10.025   6.922
79421SOL    HW240161   8.729   9.960   7.052
79422SOL     OW40162   9.243   4.904  10.635
79422SOL    HW140163   9.267   4.996  10.641
79422SOL    HW240164   9.169   4.902  10.575
79423SOL     OW40165  10.173   1.892  11.691
79423SOL    HW140166  10.185   1.956  11.620
79423SOL    HW240167  10.083   1.905  11.720
79424SOL     OW40168  13.926   2.775   1.509
79424SOL    HW140169  13.918   2.681   1.528
79424SOL    HW240170  14.018   2.786   1.485
79425SOL     OW40171  13.451   0.501  10.450
79425SOL    HW140172  13.381   0.492  10.385
79425SOL    HW240173  13.410   0.476  10.533
79426SOL     OW40174  13.752  12.183  12.335
79426SOL    HW140175  13.834  12.224  12.307
79426SOL    HW240176  13.761  12.172  12.430
79427SOL     OW40177   3.446   9.474   2.273
79427SOL    HW140178   3.365   9.440   2.312
79427SOL    HW240179   3.487   9.397   2.233
79428SOL     OW40180   1.525   1.642   2.609
79428SOL    HW140181   1.594   1.575   2.611
79428SOL    HW240182   1.552   1.702   2.539
79429SOL     OW40183  13.819   4.887   5.861
79429SOL    HW140184  13.744   4.848   5.906
79429SOL    HW240185  13.890   4.825   5.876
79430SOL     OW40186   3.690   3.705   5.504
79430SOL    HW140187   3.761   3.653   5.466
79430SOL    HW240188   3.733   3.762   5.567
79431SOL     OW40189  14.778  13.745  13.649
79431SOL    HW140190  14.772  13.831  13.692
79431SOL    HW240191  14.772  13.682  13.721
79432SOL     OW40192   7.571   3.446   2.205
79432SOL    HW140193   7.523   3.452   2.122
79432SOL    HW240194   7.610   3.358   2.203
79433SOL     OW40195   0.326   5.327   7.144
79433SOL    HW140196   0.371   5.264   7.087
79433SOL    HW240197   0.264   5.372   7.086
79434SOL     OW40198  12.558   0.018   5.107
79434SOL    HW140199  12.512  14.864   5.027
79434SOL    HW240200  12.488   0.035   5.171
79435SOL     OW40201  10.354   6.882   2.747
79435SOL    HW140202  10.319   6.796   2.724
79435SOL    HW240203  10.412   6.905   2.674
79436SOL     OW40204   4.482   2.243   9.912
79436SOL    HW140205   4.510   2.301   9.983
79436SOL    HW240206   4.505   2.291   9.832
79437SOL     OW40207  13.174  13.658   1.179
79437SOL    HW140208  13.146  13.749   1.166
79437SOL    HW240209  13.197  13.627   1.091
79438SOL     OW40210   7.907   7.903   5.188
79438SOL    HW140211   7.935   7.994   5.190
79438SOL    HW240212   7.929   7.869   5.275
79439SOL     OW40213  13.021  11.580   3.284
79439SOL    HW140214  13.098  11.581   3.227
79439SOL    HW240215  12.992  11.671   3.287
79440SOL     OW40216   7.109  13.162   7.047
79440SOL    HW140217   7.176  13.216   7.005
79440SOL    HW240218   7.033  13.168   6.989
79441SOL     OW40219   0.579  12.893   2.049
79441SOL    HW140220   0.522  12.842   1.991
79441SOL    HW240221   0.642  12.934   1.990
79442SOL     OW40222   6.702   8.854   8.226
79442SOL    HW140223   6.732   8.769   8.195
79442SOL    HW240224   6.679   8.839   8.318
79443SOL     OW40225   8.191  11.281  13.443
79443SOL    HW140226   8.102  11.297  13.476
79443SOL    HW240227   8.233  11.367  13.443
79444SOL     OW40228   4.847   2.688   5.977
79444SOL    HW140229   4.902   2.654   6.047
79444SOL    HW240230   4.884   2.652   5.897
79445SOL     OW40231   1.565   3.339   7.340
79445SOL    HW140232   1.615   3.266   7.377
79445SOL    HW240233   1.611   3.417   7.371
79446SOL     OW40234  14.429   8.079   0.408
79446SOL    HW140235  14.358   8.113   0.353
79446SOL    HW240236  14.411   8.115   0.495
79447SOL     OW40237   6.514  12.081   4.008
79447SOL    HW140238   6.437  12.024   4.014
79447SOL    HW240239   6.518  12.125   4.093
79448SOL     OW40240   2.214   0.202   8.037
79448SOL    HW140241   2.198   0.295   8.053
79448SOL    HW240242   2.139   0.174   7.984
79449SOL     OW40243   3.520   0.502   9.007
79449SOL    HW140244   3.500   0.444   8.933
79449SOL    HW240245   3.546   0.443   9.078
79450SOL     OW40246  13.987   2.831  12.495
79450SOL    HW140247  14.013   2.765  12.431
79450SOL    HW240248  13.918   2.789  12.546
79451SOL     OW40249   1.843   8.288   5.095
79451SOL    HW140250   1.911   8.227   5.124
79451SOL    HW240251   1.886   8.344   5.031
79452SOL     OW40252   6.835  12.126  12.835
79452SOL    HW140253   6.803  12.077  12.759
79452SOL    HW240254   6.835  12.218  12.806
79453SOL     OW40255  11.396  12.923  12.468
79453SOL    HW140256  11.447  12.847  12.497
79453SOL    HW240257  11.308  12.906  12.503
79454SOL     OW40258  13.977  14.009  12.491
79454SOL    HW140259  14.043  14.058  12.541
79454SOL    HW240260  14.025  13.938  12.450
79455SOL     OW40261   4.245  13.122  12.086
79455SOL    HW140262   4.246  13.078  12.000
79455SOL    HW240263   4.310  13.074  12.138
79456SOL     OW40264   2.512  11.537   4.299
79456SOL    HW140265   2.489  11.505   4.212
79456SOL    HW240266   2.535  11.459   4.349
79457SOL     OW40267   4.762   2.627   1.086
79457SOL    HW140268   4.699   2.607   1.156
79457SOL    HW240269   4.728   2.706   1.044
79458SOL     OW40270  13.798   1.549  11.531
79458SOL    HW140271  13.716   1.588  11.501
79458SOL    HW240272  13.813   1.477  11.470
79459SOL     OW40273   4.141   0.352   8.824
79459SOL    HW140274   4.145   0.400   8.742
79459SOL    HW240275   4.155   0.419   8.891
79460SOL     OW40276   4.828   7.491   3.914
79460SOL    HW140277   4.798   7.467   4.001
79460SOL    HW240278   4.800   7.418   3.858
79461SOL     OW40279   4.620   2.832  10.205
79461SOL    HW140280   4.704   2.792  10.183
79461SOL    HW240281   4.637   2.926  10.207
79462SOL     OW40282   2.244   3.081  11.642
79462SOL    HW140283   2.281   3.165  11.613
79462SOL    HW240284   2.235   3.030  11.562
79463SOL     OW40285   5.650   3.813  12.029
79463SOL    HW140286   5.582   3.880  12.018
79463SOL    HW240287   5.710   3.828  11.955
79464SOL     OW40288  14.434   7.879  13.630
79464SOL    HW140289  14.414   7.828  13.551
79464SOL    HW240290  14.432   7.814  13.701
79465SOL     OW40291  13.589   0.004  13.055
79465SOL    HW140292  13.516   0.013  12.994
79465SOL    HW240293  13.667   0.009  13.000
79466SOL     OW40294  12.814   7.295   3.906
79466SOL    HW140295  12.828   7.202   3.922
79466SOL    HW240296  12.900   7.328   3.881
79467SOL     OW40297   1.621  11.003   3.995
79467SOL    HW140298   1.692  10.938   3.992
79467SOL    HW240299   1.651  11.074   3.939
79468SOL     OW40300  12.672   6.792   2.593
79468SOL    HW140301  12.701   6.883   2.585
79468SOL    HW240302  12.738   6.752   2.650
79469SOL     OW40303   6.522   1.400   9.246
79469SOL    HW140304   6.429   1.393   9.270
79469SOL    HW240305   6.560   1.316   9.274
79470SOL     OW40306   6.267   5.396   9.430
79470SOL    HW140307   6.313   5.314   9.444
79470SOL    HW240308   6.193   5.393   9.491
79471SOL     OW40309   8.263   2.203   0.612
79471SOL    HW140310   8.294   2.287   0.646
79471SOL    HW240311   8.169   2.213   0.603
79472SOL     OW40312  13.659   5.736   8.888
79472SOL    HW140313  13.723   5.738   8.817
79472SOL    HW240314  13.650   5.644   8.909
79473SOL     OW40315   5.392  11.521   7.274
79473SOL    HW140316   5.470  11.484   7.231
79473SOL    HW240317   5.332  11.540   7.203
79474SOL     OW40318  13.116   8.715   4.606
79474SOL    HW140319  13.110   8.764   4.688
79474SOL    HW240320  13.060   8.639   4.619
79475SOL     OW40321   8.829   2.321  12.309
79475SOL    HW140322   8.899   2.352  12.252
79475SOL    HW240323   8.811   2.232  12.279
79476SOL     OW40324  11.996  12.037   4.399
79476SOL    HW140325  11.978  11.963   4.458
79476SOL    HW240326  12.092  12.040   4.393
79477SOL     OW40327  11.472   2.000   1.778
79477SOL    HW140328  11.472   1.927   1.840
79477SOL    HW240329  11.425   2.070   1.824
79478SOL     OW40330   4.598   2.813   8.201
79478SOL    HW140331   4.578   2.725   8.167
79478SOL    HW240332   4.600   2.803   8.296
79479SOL     OW40333  10.064   1.942  12.340
79479SOL    HW140334  10.041   2.034  12.324
79479SOL    HW240335  10.100   1.941  12.428
79480SOL     OW40336   7.029  10.354  13.415
79480SOL    HW140337   7.062  10.344  13.326
79480SOL    HW240338   7.101  10.325  13.471
79481SOL     OW40339   2.182   4.742   6.577
79481SOL    HW140340   2.247   4.696   6.524
79481SOL    HW240341   2.104   4.746   6.522
79482SOL     OW40342   9.115   8.824  12.043
79482SOL    HW140343   9.171   8.760  12.000
79482SOL    HW240344   9.034   8.823  11.992
79483SOL     OW40345   5.616  12.509   4.134
79483SOL    HW140346   5.584  12.586   4.180
79483SOL    HW240347   5.581  12.518   4.045
79484SOL     OW40348   5.237   2.250   5.564
79484SOL    HW140349   5.290   2.196   5.506
79484SOL    HW240350   5.179   2.188   5.608
79485SOL     OW40351  11.986   1.539   6.907
79485SOL    HW140352  12.040   1.551   6.829
79485SOL    HW240353  11.906   1.498   6.874
79486SOL     OW40354   6.121  11.698  11.333
79486SOL    HW140355   6.171  11.765  11.379
79486SOL    HW240356   6.187  11.650  11.283
79487SOL     OW40357   9.751  14.859   9.733
79487SOL    HW140358   9.663  14.830   9.756
79487SOL    HW240359   9.752   0.081   9.754
79488SOL     OW40360   6.089   6.551   9.963
79488SOL    HW140361   6.153   6.607   9.919
79488SOL    HW240362   6.090   6.469   9.913
79489SOL     OW40363  13.981   8.701  13.994
79489SOL    HW140364  14.044   8.772  13.981
79489SOL    HW240365  14.034   8.621  13.997
79490SOL     OW40366   5.986   1.218  12.991
79490SOL    HW140367   5.965   1.287  13.053
79490SOL    HW240368   5.948   1.248  12.908
79491SOL     OW40369   2.829   4.650   9.492
79491SOL    HW140370   2.802   4.741   9.481
79491SOL    HW240371   2.820   4.634   9.586
79492SOL     OW40372   1.511   9.844  12.910
79492SOL    HW140373   1.537   9.877  12.824
79492SOL    HW240374   1.562   9.896  12.972
79493SOL     OW40375   7.393  11.466   7.555
79493SOL    HW140376   7.464  11.496   7.611
79493SOL    HW240377   7.324  11.532   7.568
79494SOL     OW40378   6.515   3.913  10.045
79494SOL    HW140379   6.469   3.985  10.001
79494SOL    HW240380   6.486   3.917  10.136
79495SOL     OW40381   6.056   0.149   2.336
79495SOL    HW140382   6.063   0.107   2.421
79495SOL    HW240383   6.032   0.079   2.276
79496SOL     OW40384   2.325   1.157   4.314
79496SOL    HW140385   2.272   1.187   4.388
79496SOL    HW240386   2.403   1.119   4.354
79497SOL     OW40387   7.120   0.890   4.459
79497SOL    HW140388   7.208   0.915   4.489
79497SOL    HW240389   7.063   0.907   4.533
79498SOL     OW40390   6.941  10.987  11.057
79498SOL    HW140391   7.024  10.941  11.074
79498SOL    HW240392   6.902  10.938  10.984
79499SOL     OW40393   2.827   8.023   8.919
79499SOL    HW140394   2.841   7.989   9.007
79499SOL    HW240395   2.894   8.090   8.907
79500SOL     OW40396   3.213   0.687   7.591
79500SOL    HW140397   3.275   0.622   7.624
79500SOL    HW240398   3.250   0.772   7.617
79501SOL     OW40399   2.908  13.856   2.145
79501SOL    HW140400   2.833  13.858   2.204
79501SOL    HW240401   2.910  13.766   2.112
79502SOL     OW40402  12.934   0.053   6.316
79502SOL    HW140403  12.914  14.854   6.377
79502SOL    HW240404  12.852   0.068   6.269
79503SOL     OW40405   1.075   2.661  10.772
79503SOL    HW140406   1.100   2.651  10.680
79503SOL    HW240407   1.123   2.738  10.802
79504SOL     OW40408  11.783   4.411   0.542
79504SOL    HW140409  11.830   4.491   0.563
79504SOL    HW240410  11.845   4.341   0.562
79505SOL     OW40411   4.497   6.341  10.976
79505SOL    HW140412   4.434   6.403  11.012
79505SOL    HW240413   4.487   6.348  10.881
79506SOL     OW40414  10.907  13.324   7.518
79506SOL    HW140415  10.892  13.381   7.593
79506SOL    HW240416  10.843  13.253   7.528
79507SOL     OW40417   7.076   2.774   7.505
79507SOL    HW140418   7.146   2.813   7.556
79507SOL    HW240419   6.999   2.778   7.562
79508SOL     OW40420  14.337   3.228   6.398
79508SOL    HW140421  14.277   3.257   6.329
79508SOL    HW240422  14.364   3.309   6.442
79509SOL     OW40423   5.538   7.903  10.032
79509SOL    HW140424   5.547   7.944   9.946
79509SOL    HW240425   5.479   7.829  10.017
79510SOL     OW40426   9.473   2.355   2.538
79510SOL    HW140427   9.409   2.425   2.541
79510SOL    HW240428   9.511   2.359   2.450
79511SOL     OW40429   5.674   6.887  10.436
79511SOL    HW140430   5.766   6.915  10.434
79511SOL    HW240431   5.642   6.916  10.521
79512SOL     OW40432  11.065   8.938  14.636
79512SOL    HW140433  11.062   9.033  14.651
79512SOL    HW240434  11.070   8.929  14.541
79513SOL     OW40435   6.912  10.489   6.885
79513SOL    HW140436   6.867  10.454   6.808
79513SOL    HW240437   6.999  10.513   6.854
79514SOL     OW40438  10.020  14.786   2.679
79514SOL    HW140439  10.056  14.837   2.751
79514SOL    HW240440   9.978  14.712   2.721
79515SOL     OW40441   6.209   7.548  11.950
79515SOL    HW140442   6.234   7.471  11.898
79515SOL    HW240443   6.289   7.573  11.995
79516SOL     OW40444   1.926  13.387   7.240
79516SOL    HW140445   1.872  13.309   7.228
79516SOL    HW240446   1.928  13.401   7.335
79517SOL     OW40447   9.758   9.262   0.472
79517SOL    HW140448   9.772   9.194   0.537
79517SOL    HW240449   9.805   9.338   0.505
79518SOL     OW40450   2.312   3.573   0.646
79518SOL    HW140451   2.228   3.618   0.653
79518SOL    HW240452   2.311   3.509   0.718
79519SOL     OW40453   4.320   5.282   4.017
79519SOL    HW140454   4.311   5.220   3.945
79519SOL    HW240455   4.278   5.362   3.986
79520SOL     OW40456   2.876  11.390   6.289
79520SOL    HW140457   2.965  11.427   6.286
79520SOL    HW240458   2.839  11.425   6.370
79521SOL     OW40459   3.893  11.678   7.009
79521SOL    HW140460   3.941  11.614   6.957
79521SOL    HW240461   3.835  11.722   6.947
79522SOL     OW40462   7.637   3.129   4.194
79522SOL    HW140463   7.628   3.190   4.120
79522SOL    HW240464   7.691   3.176   4.257
79523SOL     OW40465   6.678   7.012   9.290
79523SOL    HW140466   6.767   7.044   9.279
79523SOL    HW240467   6.623   7.082   9.255
79524SOL     OW40468  10.313   3.249  10.661
79524SOL    HW140469  10.314   3.239  10.566
79524SOL    HW240470  10.244   3.190  10.690
79525SOL     OW40471   8.880   2.994   6.194
79525SOL    HW140472   8.858   3.001   6.101
79525SOL    HW240473   8.954   3.053   6.206
79526SOL     OW40474   1.795   0.870   7.728
79526SOL    HW140475   1.808   0.944   7.787
79526SOL    HW240476   1.784   0.910   7.641
79527SOL     OW40477   4.419  10.705   6.389
79527SOL    HW140478   4.417  10.614   6.420
79527SOL    HW240479   4.474  10.751   6.453
79528SOL     OW40480   5.691  14.251  13.752
79528SOL    HW140481   5.611  14.295  13.778
79528SOL    HW240482   5.720  14.297  13.673
79529SOL     OW40483  12.224   7.467   7.907
79529SOL    HW140484  12.292   7.402   7.888
79529SOL    HW240485  12.220   7.522   7.829
79530SOL     OW40486   9.361   8.523   3.596
79530SOL    HW140487   9.385   8.608   3.558
79530SOL    HW240488   9.358   8.463   3.521
79531SOL     OW40489  11.515   6.897  12.524
79531SOL    HW140490  11.493   6.939  12.607
79531SOL    HW240491  11.441   6.840  12.506
79532SOL     OW40492  13.014   3.859  12.552
79532SOL    HW140493  12.935   3.890  12.596
79532SOL    HW240494  13.050   3.793  12.611
79533SOL     OW40495  11.767   8.471   1.151
79533SOL    HW140496  11.735   8.381   1.141
79533SOL    HW240497  11.854   8.460   1.191
79534SOL     OW40498  10.074   4.735   7.120
79534SOL    HW140499  10.113   4.669   7.063
79534SOL    HW240500  10.104   4.711   7.208
79535SOL     OW40501  11.354  11.898   6.418
79535SOL    HW140502  11.286  11.848   6.374
79535SOL    HW240503  11.355  11.982   6.373
79536SOL     OW40504   2.556   7.744   6.599
79536SOL    HW140505   2.562   7.816   6.661
79536SOL    HW240506   2.623   7.763   6.533
79537SOL     OW40507  14.748  12.440  13.065
79537SOL    HW140508  14.822  12.502  13.067
79537SOL    HW240509  14.783  12.363  13.019
79538SOL     OW40510   4.755   4.525   5.479
79538SOL    HW140511   4.748   4.620   5.490
79538SOL    HW240512   4.677   4.501   5.428
79539SOL     OW40513   7.324   2.307   0.220
79539SOL    HW140514   7.295   2.395   0.244
79539SOL    HW240515   7.368   2.274   0.298
79540SOL     OW40516  13.112   8.092  10.653
79540SOL    HW140517  13.203   8.069  10.634
79540SOL    HW240518  13.087   8.153  10.583
79541SOL     OW40519   5.054  10.721   5.420
79541SOL    HW140520   5.147  10.740   5.434
79541SOL    HW240521   5.052  10.672   5.338
79542SOL     OW40522  13.057   1.148   3.626
79542SOL    HW140523  13.029   1.207   3.697
79542SOL    HW240524  12.984   1.149   3.564
79543SOL     OW40525  13.159   2.867  11.552
79543SOL    HW140526  13.126   2.778  11.535
79543SOL    HW240527  13.103   2.900  11.622
79544SOL     OW40528   8.738  11.617   9.850
79544SOL    HW140529   8.827  11.643   9.875
79544SOL    HW240530   8.738  11.522   9.861
79545SOL     OW40531   4.571   3.366   7.337
79545SOL    HW140532   4.505   3.433   7.318
79545SOL    HW240533   4.646   3.389   7.282
79546SOL     OW40534   0.875  14.222   1.311
79546SOL    HW140535   0.927  14.282   1.364
79546SOL    HW240536   0.877  14.139   1.358
79547SOL     OW40537   8.656  10.370   0.754
79547SOL    HW140538   8.631  10.442   0.811
79547SOL    HW240539   8.617  10.293   0.796
79548SOL     OW40540   3.568   8.401  13.826
79548SOL    HW140541   3.543   8.397  13.919
79548SOL    HW240542   3.640   8.339  13.818
79549SOL     OW40543   8.175   7.410  13.416
79549SOL    HW140544   8.259   7.439  13.450
79549SOL    HW240545   8.111   7.470  13.455
79550SOL     OW40546   8.724  11.016  12.800
79550SOL    HW140547   8.655  10.954  12.775
79550SOL    HW240548   8.804  10.965  12.797
79551SOL     OW40549   0.223   2.488  14.028
79551SOL    HW140550   0.302   2.466  13.978
79551SOL    HW240551   0.160   2.421  14.004
79552SOL     OW40552   5.817   2.565   0.684
79552SOL    HW140553   5.799   2.477   0.716
79552SOL    HW240554   5.838   2.615   0.763
79553SOL     OW40555   4.791   4.507  11.039
79553SOL    HW140556   4.730   4.580  11.048
79553SOL    HW240557   4.867   4.545  10.995
79554SOL     OW40558   6.138   5.807   3.071
79554SOL    HW140559   6.222   5.774   3.039
79554SOL    HW240560   6.137   5.899   3.046
79555SOL     OW40561   7.586   3.228   0.996
79555SOL    HW140562   7.643   3.224   1.073
79555SOL    HW240563   7.627   3.293   0.939
79556SOL     OW40564   1.963  11.475   5.884
79556SOL    HW140565   1.877  11.433   5.880
79556SOL    HW240566   1.945  11.567   5.905
79557SOL     OW40567  12.379  14.598  11.616
79557SOL    HW140568  12.427  14.646  11.550
79557SOL    HW240569  12.431  14.607  11.696
79558SOL     OW40570   9.145  13.838   6.947
79558SOL    HW140571   9.195  13.919   6.941
79558SOL    HW240572   9.186  13.780   6.882
79559SOL     OW40573   9.073   3.648  13.571
79559SOL    HW140574   9.146   3.622  13.627
79559SOL    HW240575   9.107   3.723  13.522
79560SOL     OW40576   2.378   9.748   6.420
79560SOL    HW140577   2.398   9.800   6.497
79560SOL    HW240578   2.411   9.660   6.440
79561SOL     OW40579   0.026   0.978   8.027
79561SOL    HW140580  14.866   0.972   8.117
79561SOL    HW240581   0.121   0.971   8.033
79562SOL     OW40582  12.059   4.772   7.151
79562SOL    HW140583  12.001   4.847   7.165
79562SOL    HW240584  12.100   4.789   7.066
79563SOL     OW40585   3.887   1.981  11.377
79563SOL    HW140586   3.973   1.950  11.347
79563SOL    HW240587   3.890   2.076  11.367
79564SOL     OW40588   3.221   7.604   7.680
79564SOL    HW140589   3.314   7.621   7.699
79564SOL    HW240590   3.214   7.509   7.684
79565SOL     OW40591   6.455   8.800  11.958
79565SOL    HW140592   6.466   8.895  11.962
79565SOL    HW240593   6.479   8.769  12.045
79566SOL     OW40594   3.521   7.908  14.496
79566SOL    HW140595   3.428   7.896  14.478
79566SOL    HW240596   3.554   7.959  14.422
79567SOL     OW40597   3.754  14.534   6.433
79567SOL    HW140598   3.668  14.576   6.424
79567SOL    HW240599   3.750  14.457   6.377
79568SOL     OW40600   9.419   7.201   2.553
79568SOL    HW140601   9.421   7.107   2.568
79568SOL    HW240602   9.370   7.212   2.472
79569SOL     OW40603  14.012   7.876  11.635
79569SOL    HW140604  14.076   7.919  11.692
79569SOL    HW240605  14.028   7.914  11.548
79570SOL     OW40606   6.515  14.479   2.203
79570SOL    HW140607   6.557  14.457   2.120
79570SOL    HW240608   6.467  14.400   2.228
79571SOL     OW40609  14.479   1.098  13.692
79571SOL    HW140610  14.443   1.184  13.672
79571SOL    HW240611  14.438   1.039  13.629
79572SOL     OW40612   2.271   2.982   8.014
79572SOL    HW140613   2.333   2.983   7.941
79572SOL    HW240614   2.326   2.981   8.093
79573SOL     OW40615   0.669   9.837   8.347
79573SOL    HW140616   0.599   9.784   8.308
79573SOL    HW240617   0.627   9.883   8.419
79574SOL     OW40618   7.330   4.838   5.923
79574SOL    HW140619   7.300   4.748   5.912
79574SOL    HW240620   7.252   4.891   5.905
79575SOL     OW40621   4.406   1.925   3.114
79575SOL    HW140622   4.406   1.830   3.100
79575SOL    HW240623   4.375   1.937   3.204
79576SOL     OW40624   5.038  10.683  14.840
79576SOL    HW140625   5.067  10.622  14.772
79576SOL    HW240626   5.009  10.627   0.040
79577SOL     OW40627  14.608  11.170   6.932
79577SOL    HW140628  14.685  11.154   6.876
79577SOL    HW240629  14.644  11.174   7.020
79578SOL     OW40630   8.120   5.044  14.529
79578SOL    HW140631   8.170   5.020  14.607
79578SOL    HW240632   8.121   4.965  14.474
79579SOL     OW40633   9.893   9.997   1.538
79579SOL    HW140634   9.978   9.956   1.555
79579SOL    HW240635   9.865  10.031   1.623
79580SOL     OW40636  12.922   1.864   7.813
79580SOL    HW140637  12.991   1.909   7.863
79580SOL    HW240638  12.841   1.902   7.846
79581SOL     OW40639  10.859  13.232  11.088
79581SOL    HW140640  10.895  13.145  11.107
79581SOL    HW240641  10.896  13.288  11.156
79582SOL     OW40642   4.433   4.531  14.508
79582SOL    HW140643   4.527   4.544  14.501
79582SOL    HW240644   4.423   4.449  14.557
79583SOL     OW40645   6.394  13.055   5.118
79583SOL    HW140646   6.394  12.989   5.187
79583SOL    HW240647   6.334  13.020   5.052
79584SOL     OW40648   6.868  14.312   5.368
79584SOL    HW140649   6.854  14.284   5.458
79584SOL    HW240650   6.951  14.271   5.342
79585SOL     OW40651  11.691   2.811   4.439
79585SOL    HW140652  11.781   2.836   4.417
79585SOL    HW240653  11.668   2.745   4.374
79586SOL     OW40654   4.129   1.112  14.558
79586SOL    HW140655   4.208   1.089  14.608
79586SOL    HW240656   4.120   1.206  14.568
79587SOL     OW40657  13.673   4.284   1.735
79587SOL    HW140658  13.609   4.314   1.799
79587SOL    HW240659  13.695   4.362   1.684
79588SOL     OW40660   2.871   5.483   4.271
79588SOL    HW140661   2.902   5.527   4.350
79588SOL    HW240662   2.879   5.390   4.290
79589SOL     OW40663   7.235   3.569   8.675
79589SOL    HW140664   7.223   3.577   8.580
79589SOL    HW240665   7.204   3.481   8.695
79590SOL     OW40666   2.641   1.953   3.164
79590SOL    HW140667   2.732   1.928   3.176
79590SOL    HW240668   2.617   1.921   3.077
79591SOL     OW40669   3.892   0.433  13.823
79591SOL    HW140670   3.874   0.507  13.764
79591SOL    HW240671   3.907   0.473  13.908
79592SOL     OW40672   9.785   0.086   2.032
79592SOL    HW140673   9.718   0.114   2.095
79592SOL    HW240674   9.848   0.038   2.085
79593SOL     OW40675   9.822   5.014  11.059
79593SOL    HW140676   9.917   5.013  11.050
79593SOL    HW240677   9.791   4.949  10.996
79594SOL     OW40678   8.878   1.008   5.300
79594SOL    HW140679   8.964   1.000   5.259
79594SOL    HW240680   8.897   1.026   5.392
79595SOL     OW40681   5.917   9.011  12.924
79595SOL    HW140682   5.949   8.922  12.922
79595SOL    HW240683   5.840   9.010  12.867
79596SOL     OW40684  13.959   4.992  12.761
79596SOL    HW140685  13.959   5.057  12.831
79596SOL    HW240686  13.931   4.911  12.803
79597SOL     OW40687  14.665   0.038  13.671
79597SOL    HW140688  14.746   0.089  13.677
79597SOL    HW240689  14.661   0.011  13.579
79598SOL     OW40690   9.761  14.798   7.574
79598SOL    HW140691   9.726   0.005   7.617
79598SOL    HW240692   9.798  14.746   7.646
79599SOL     OW40693   3.563  10.129   0.327
79599SOL    HW140694   3.493  10.133   0.393
79599SOL    HW240695   3.596  10.040   0.332
79600SOL     OW40696  13.715   8.423  12.225
79600SOL    HW140697  13.778   8.354  12.246
79600SOL    HW240698  13.682   8.452  12.310
79601SOL     OW40699   4.392   9.395   0.554
79601SOL    HW140700   4.452   9.327   0.522
79601SOL    HW240701   4.371   9.367   0.644
79602SOL     OW40702  14.794   1.807   1.848
79602SOL    HW140703  14.710   1.795   1.892
79602SOL    HW240704  14.854   1.747   1.893
79603SOL     OW40705  11.223   5.342   8.622
79603SOL    HW140706  11.148   5.381   8.668
79603SOL    HW240707  11.202   5.355   8.529
79604SOL     OW40708  13.173   9.646   8.142
79604SOL    HW140709  13.178   9.722   8.084
79604SOL    HW240710  13.166   9.682   8.230
79605SOL     OW40711   9.999   4.179   3.418
79605SOL    HW140712  10.067   4.202   3.482
79605SOL    HW240713  10.034   4.103   3.373
79606SOL     OW40714   2.289   8.429   6.676
79606SOL    HW140715   2.216   8.470   6.722
79606SOL    HW240716   2.366   8.477   6.707
79607SOL     OW40717   8.256   8.725   3.221
79607SOL    HW140718   8.280   8.685   3.304
79607SOL    HW240719   8.252   8.819   3.240
79608SOL     OW40720   9.124   3.537  10.555
79608SOL    HW140721   9.129   3.632  10.563
79608SOL    HW240722   9.120   3.505  10.645
79609SOL     OW40723   6.843  10.651  12.856
79609SOL    HW140724   6.857  10.587  12.786
79609SOL    HW240725   6.756  10.630  12.890
79610SOL     OW40726   2.018  12.933   3.353
79610SOL    HW140727   2.084  12.989   3.311
79610SOL    HW240728   1.947  12.992   3.377
79611SOL     OW40729   4.302   0.096   7.844
79611SOL    HW140730   4.213   0.110   7.879
79611SOL    HW240731   4.311   0.001   7.839
79612SOL     OW40732   4.133   8.289   2.693
79612SOL    HW140733   4.125   8.338   2.611
79612SOL    HW240734   4.092   8.345   2.759
79613SOL     OW40735  12.829  11.919   3.689
79613SOL    HW140736  12.764  11.849   3.691
79613SOL    HW240737  12.912  11.874   3.673
79614SOL     OW40738   4.600   4.715  10.976
79614SOL    HW140739   4.611   4.760  10.892
79614SOL    HW240740   4.514   4.743  11.008
79615SOL     OW40741   4.142   8.263   6.808
79615SOL    HW140742   4.211   8.224   6.862
79615SOL    HW240743   4.147   8.357   6.828
79616SOL     OW40744   7.965   8.369  11.161
79616SOL    HW140745   7.874   8.344  11.175
79616SOL    HW240746   8.008   8.289  11.130
79617SOL     OW40747  12.196   1.812   3.149
79617SOL    HW140748  12.100   1.806   3.142
79617SOL    HW240749  12.211   1.899   3.187
79618SOL     OW40750   4.266   5.879  12.365
79618SOL    HW140751   4.262   5.960  12.315
79618SOL    HW240752   4.320   5.820  12.312
79619SOL     OW40753   2.805  13.437  11.644
79619SOL    HW140754   2.792  13.469  11.555
79619SOL    HW240755   2.815  13.342  11.634
79620SOL     OW40756   0.265   0.586   3.141
79620SOL    HW140757   0.249   0.579   3.047
79620SOL    HW240758   0.195   0.535   3.181
79621SOL     OW40759  12.729  12.125   6.706
79621SOL    HW140760  12.661  12.179   6.665
79621SOL    HW240761  12.803  12.130   6.645
79622SOL     OW40762   2.821  13.124   2.375
79622SOL    HW140763   2.782  13.179   2.443
79622SOL    HW240764   2.755  13.120   2.306
79623SOL     OW40765  10.725   2.974   2.213
79623SOL    HW140766  10.723   3.063   2.247
79623SOL    HW240767  10.660   2.927   2.266
79624SOL     OW40768   2.278  10.946   3.497
79624SOL    HW140769   2.265  10.932   3.591
79624SOL    HW240770   2.371  10.928   3.482
79625SOL     OW40771   3.524   6.439   1.181
79625SOL    HW140772   3.434   6.454   1.152
79625SOL    HW240773   3.515   6.397   1.267
79626SOL     OW40774   7.589  11.348   4.264
79626SOL    HW140775   7.660  11.308   4.313
79626SOL    HW240776   7.632  11.387   4.188
79627SOL     OW40777  10.986   6.276   1.393
79627SOL    HW140778  11.068   6.304   1.432
79627SOL    HW240779  10.986   6.315   1.305
79628SOL     OW40780   8.941   4.773  13.317
79628SOL    HW140781   8.912   4.707  13.380
79628SOL    HW240782   8.958   4.724  13.237
79629SOL     OW40783   4.468  14.538   3.470
79629SOL    HW140784   4.380  14.575   3.481
79629SOL    HW240785   4.456  14.444   3.483
79630SOL     OW40786   2.498  14.123   8.508
79630SOL    HW140787   2.480  14.080   8.592
79630SOL    HW240788   2.483  14.216   8.526
79631SOL     OW40789   3.202  12.397   2.344
79631SOL    HW140790   3.114  12.425   2.368
79631SOL    HW240791   3.251  12.396   2.426
79632SOL     OW40792  14.504   2.238   1.671
79632SOL    HW140793  14.539   2.308   1.615
79632SOL    HW240794  14.498   2.162   1.612
79633SOL     OW40795   2.878  13.685   4.215
79633SOL    HW140796   2.919  13.758   4.261
79633SOL    HW240797   2.860  13.620   4.284
79634SOL     OW40798   8.110   0.264   2.069
79634SOL    HW140799   8.147   0.351   2.083
79634SOL    HW240800   8.067   0.270   1.984
79635SOL     OW40801   7.920   5.701  10.762
79635SOL    HW140802   7.891   5.771  10.702
79635SOL    HW240803   8.002   5.670  10.724
79636SOL     OW40804   3.599   8.304   2.088
79636SOL    HW140805   3.512   8.327   2.118
79636SOL    HW240806   3.597   8.209   2.077
79637SOL     OW40807  11.977   6.411  13.702
79637SOL    HW140808  12.006   6.347  13.766
79637SOL    HW240809  11.883   6.392  13.691
79638SOL     OW40810   8.835   1.319   6.594
79638SOL    HW140811   8.782   1.393   6.623
79638SOL    HW240812   8.772   1.248   6.579
79639SOL     OW40813  10.671   7.614   3.451
79639SOL    HW140814  10.704   7.702   3.432
79639SOL    HW240815  10.728   7.581   3.519
79640SOL     OW40816   8.546   4.439   7.919
79640SOL    HW140817   8.465   4.489   7.913
79640SOL    HW240818   8.610   4.489   7.868
79641SOL     OW40819  11.750   0.868  11.457
79641SOL    HW140820  11.784   0.951  11.490
79641SOL    HW240821  11.809   0.844  11.386
79642SOL     OW40822   6.150   2.486   4.635
79642SOL    HW140823   6.131   2.507   4.726
79642SOL    HW240824   6.236   2.444   4.637
79643SOL     OW40825  14.545  12.695   2.976
79643SOL    HW140826  14.586  12.644   3.045
79643SOL    HW240827  14.559  12.645   2.896
79644SOL     OW40828  14.069   8.308   5.636
79644SOL    HW140829  14.091   8.340   5.723
79644SOL    HW240830  14.067   8.386   5.581
79645SOL     OW40831  10.846  12.603   6.552
79645SOL    HW140832  10.840  12.530   6.491
79645SOL    HW240833  10.873  12.563   6.635
79646SOL     OW40834   7.988   6.492  14.095
79646SOL    HW140835   7.981   6.581  14.061
79646SOL    HW240836   8.057   6.497  14.161
79647SOL     OW40837  14.758   3.622  12.800
79647SOL    HW140838  14.831   3.561  12.807
79647SOL    HW240839  14.722   3.627  12.889
79648SOL     OW40840   5.584  10.679  12.241
79648SOL    HW140841   5.597  10.763  12.197
79648SOL    HW240842   5.635  10.685  12.321
79649SOL     OW40843   2.421   2.967  13.269
79649SOL    HW140844   2.382   2.913  13.337
79649SOL    HW240845   2.383   2.934  13.187
79650SOL     OW40846  14.496   7.780  14.839
79650SOL    HW140847  14.487   7.857   0.024
79650SOL    HW240848  14.426   7.791  14.774
79651SOL     OW40849   2.255   6.247  14.335
79651SOL    HW140850   2.220   6.273  14.421
79651SOL    HW240851   2.238   6.153  14.330
79652SOL     OW40852   9.704   3.306   6.945
79652SOL    HW140853   9.776   3.247   6.967
79652SOL    HW240854   9.721   3.385   6.995
79653SOL     OW40855   4.776  14.442   9.455
79653SOL    HW140856   4.720  14.449   9.377
79653SOL    HW240857   4.783  14.532   9.487
79654SOL     OW40858  10.910   8.529   2.492
79654SOL    HW140859  10.854   8.464   2.534
79654SOL    HW240860  10.978   8.478   2.448
79655SOL     OW40861   0.700  13.144   5.839
79655SOL    HW140862   0.673  13.053   5.851
79655SOL    HW240863   0.754  13.163   5.916
79656SOL     OW40864   8.962   6.680   2.373
79656SOL    HW140865   9.035   6.686   2.434
79656SOL    HW240866   9.000   6.694   2.287
79657SOL     OW40867   1.163   5.157  14.521
79657SOL    HW140868   1.131   5.248  14.516
79657SOL    HW240869   1.175   5.141  14.614
79658SOL     OW40870  10.210  14.435   0.416
79658SOL    HW140871  10.184  14.430   0.508
79658SOL    HW240872  10.242  14.525   0.405
79659SOL     OW40873   0.456  13.225  10.874
79659SOL    HW140874   0.365  13.195  10.882
79659SOL    HW240875   0.465  13.251  10.782
79660SOL     OW40876   4.692  12.976   5.338
79660SOL    HW140877   4.787  12.975   5.328
79660SOL    HW240878   4.670  12.886   5.364
79661SOL     OW40879   3.089   6.181   4.432
79661SOL    HW140880   3.014   6.240   4.439
79661SOL    HW240881   3.150   6.212   4.499
79662SOL     OW40882   0.121   4.493   5.569
79662SOL    HW140883   0.038   4.470   5.525
79662SOL    HW240884   0.101   4.488   5.662
79663SOL     OW40885  14.142  11.723   7.509
79663SOL    HW140886  14.177  11.773   7.435
79663SOL    HW240887  14.210  11.661   7.531
79664SOL     OW40888   4.970  11.028   9.854
79664SOL    HW140889   4.938  10.973   9.926
79664SOL    HW240890   5.065  11.018   9.857
79665SOL     OW40891   0.055   0.246  11.742
79665SOL    HW140892   0.025   0.169  11.790
79665SOL    HW240893   0.098   0.212  11.664
79666SOL     OW40894  14.738   1.111   6.975
79666SOL    HW140895  14.741   1.196   7.018
79666SOL    HW240896  14.804   1.059   7.020
79667SOL     OW40897   4.646  13.634   2.973
79667SOL    HW140898   4.631  13.582   2.894
79667SOL    HW240899   4.710  13.583   3.023
79668SOL     OW40900  11.170  13.166   7.354
79668SOL    HW140901  11.093  13.195   7.403
79668SOL    HW240902  11.185  13.237   7.291
79669SOL     OW40903   4.157  12.090   5.609
79669SOL    HW140904   4.062  12.092   5.599
79669SOL    HW240905   4.189  12.150   5.542
79670SOL     OW40906   6.782  10.753   8.223
79670SOL    HW140907   6.745  10.831   8.265
79670SOL    HW240908   6.732  10.680   8.259
79671SOL     OW40909   9.003   0.448   7.229
79671SOL    HW140910   9.069   0.502   7.186
79671SOL    HW240911   8.955   0.509   7.286
79672SOL     OW40912   7.915  12.033  13.546
79672SOL    HW140913   7.909  12.079  13.462
79672SOL    HW240914   7.872  12.092  13.608
79673SOL     OW40915   1.897   1.672   1.461
79673SOL    HW140916   1.877   1.582   1.434
79673SOL    HW240917   1.965   1.701   1.400
79674SOL     OW40918   2.010  12.733   0.867
79674SOL    HW140919   2.015  12.826   0.845
79674SOL    HW240920   2.101  12.703   0.866
79675SOL     OW40921   2.741  12.297  10.181
79675SOL    HW140922   2.729  12.203  10.166
79675SOL    HW240923   2.684  12.339  10.116
79676SOL     OW40924   0.250   1.544   1.016
79676SOL    HW140925   0.198   1.616   0.979
79676SOL    HW240926   0.308   1.586   1.079
79677SOL     OW40927   7.175  13.959   3.525
79677SOL    HW140928   7.091  13.930   3.560
79677SOL    HW240929   7.234  13.963   3.600
79678SOL     OW40930  13.725   1.470   6.168
79678SOL    HW140931  13.806   1.497   6.125
79678SOL    HW240932  13.753   1.401   6.230
79679SOL     OW40933   3.340   0.898   6.815
79679SOL    HW140934   3.420   0.949   6.825
79679SOL    HW240935   3.368   0.816   6.775
79680SOL     OW40936  11.535   4.707   0.744
79680SOL    HW140937  11.602   4.723   0.677
79680SOL    HW240938  11.550   4.775   0.809
79681SOL     OW40939  11.269  11.187   0.144
79681SOL    HW140940  11.309  11.182   0.231
79681SOL    HW240941  11.336  11.153   0.085
79682SOL     OW40942   9.954  14.373   8.681
79682SOL    HW140943   9.903  14.322   8.744
79682SOL    HW240944   9.891  14.397   8.613
79683SOL     OW40945   9.895   3.194   3.104
79683SOL    HW140946   9.965   3.135   3.132
79683SOL    HW240947   9.921   3.222   3.016
79684SOL     OW40948   5.384   2.211   4.774
79684SOL    HW140949   5.308   2.263   4.800
79684SOL    HW240950   5.426   2.263   4.706
79685SOL     OW40951   9.032  11.120  10.610
79685SOL    HW140952   9.020  11.044  10.666
79685SOL    HW240953   9.039  11.083  10.521
79686SOL     OW40954   8.463  12.901   4.726
79686SOL    HW140955   8.533  12.878   4.787
79686SOL    HW240956   8.508  12.941   4.652
79687SOL     OW40957   4.655   9.704   4.514
79687SOL    HW140958   4.741   9.662   4.511
79687SOL    HW240959   4.603   9.650   4.573
79688SOL     OW40960  11.343  10.670   2.445
79688SOL    HW140961  11.299  10.684   2.529
79688SOL    HW240962  11.275  10.684   2.380
79689SOL     OW40963   1.522   1.784  12.461
79689SOL    HW140964   1.612   1.760  12.437
79689SOL    HW240965   1.531   1.865  12.511
79690SOL     OW40966   5.096   1.660   5.545
79690SOL    HW140967   5.088   1.565   5.542
79690SOL    HW240968   5.077   1.683   5.636
79691SOL     OW40969   2.222   3.260  12.537
79691SOL    HW140970   2.180   3.347  12.533
79691SOL    HW240971   2.307   3.277  12.578
79692SOL     OW40972   9.792  14.287  12.561
79692SOL    HW140973   9.708  14.264  12.600
79692SOL    HW240974   9.856  14.273  12.630
79693SOL     OW40975   5.441   1.817   7.111
79693SOL    HW140976   5.482   1.832   7.196
79693SOL    HW240977   5.347   1.822   7.129
79694SOL     OW40978  10.341  10.476   1.013
79694SOL    HW140979  10.326  10.499   0.922
79694SOL    HW240980  10.423  10.427   1.013
79695SOL     OW40981  12.402   2.741   0.408
79695SOL    HW140982  12.348   2.710   0.336
79695SOL    HW240983  12.340   2.767   0.476
79696SOL     OW40984   9.189   7.842   7.018
79696SOL    HW140985   9.156   7.788   6.946
79696SOL    HW240986   9.270   7.880   6.984
79697SOL     OW40987   7.687  12.734   8.999
79697SOL    HW140988   7.742  12.778   9.063
79697SOL    HW240989   7.737  12.657   8.972
79698SOL     OW40990   9.341  12.496  10.510
79698SOL    HW140991   9.363  12.493  10.604
79698SOL    HW240992   9.370  12.582  10.481
79699SOL     OW40993   4.966   5.544   5.861
79699SOL    HW140994   5.042   5.486   5.869
79699SOL    HW240995   4.916   5.529   5.942
79700SOL     OW40996  13.022  11.105  13.237
79700SOL    HW140997  13.057  11.047  13.168
79700SOL    HW240998  13.073  11.185  13.228
79701SOL     OW40999   8.585  14.258   9.398
79701SOL    HW141000   8.674  14.290   9.390
79701SOL    HW241001   8.530  14.334   9.382
79702SOL     OW41002  11.914   6.158  13.499
79702SOL    HW141003  11.879   6.117  13.420
79702SOL    HW241004  11.915   6.252  13.479
79703SOL     OW41005  14.457  12.427   8.057
79703SOL    HW141006  14.498  12.365   8.118
79703SOL    HW241007  14.364  12.402   8.058
79704SOL     OW41008   8.184   4.558   1.291
79704SOL    HW141009   8.101   4.513   1.303
79704SOL    HW241010   8.243   4.518   1.355
79705SOL     OW41011   9.914   6.113   8.920
79705SOL    HW141012   9.861   6.181   8.962
79705SOL    HW241013   9.995   6.112   8.970
79706SOL     OW41014   4.235   8.762   6.157
79706SOL    HW141015   4.285   8.746   6.237
79706SOL    HW241016   4.145   8.774   6.188
79707SOL     OW41017  13.141   3.490  10.258
79707SOL    HW141018  13.178   3.577  10.270
79707SOL    HW241019  13.102   3.469  10.343
79708SOL     OW41020  12.821   0.919  11.408
79708SOL    HW141021  12.870   0.994  11.374
79708SOL    HW241022  12.753   0.904  11.342
79709SOL     OW41023  10.406  14.125   5.941
79709SOL    HW141024  10.342  14.078   5.888
79709SOL    HW241025  10.410  14.074   6.022
79710SOL     OW41026   5.456   2.915   2.102
79710SOL    HW141027   5.432   2.985   2.163
79710SOL    HW241028   5.389   2.920   2.033
79711SOL     OW41029   5.329   7.659   7.647
79711SOL    HW141030   5.257   7.712   7.612
79711SOL    HW241031   5.401   7.671   7.584
79712SOL     OW41032   8.747   7.526  14.633
79712SOL    HW141033   8.768   7.433  14.642
79712SOL    HW241034   8.708   7.550  14.717
79713SOL     OW41035  10.691   2.850  13.032
79713SOL    HW141036  10.605   2.825  13.065
79713SOL    HW241037  10.675   2.929  12.980
79714SOL     OW41038  12.276   9.044   9.768
79714SOL    HW141039  12.273   9.075   9.678
79714SOL    HW241040  12.369   9.040   9.790
79715SOL     OW41041   3.603   0.042  11.275
79715SOL    HW141042   3.588   0.136  11.264
79715SOL    HW241043   3.585   0.004  11.189
79716SOL     OW41044   9.178   1.978   4.705
79716SOL    HW141045   9.267   1.946   4.686
79716SOL    HW241046   9.178   1.994   4.800
79717SOL     OW41047  10.353   0.547   5.544
79717SOL    HW141048  10.371   0.554   5.451
79717SOL    HW241049  10.295   0.620   5.564
79718SOL     OW41050   8.073   3.663   9.490
79718SOL    HW141051   8.138   3.608   9.534
79718SOL    HW241052   8.044   3.612   9.415
79719SOL     OW41053   5.153  14.095  13.207
79719SOL    HW141054   5.123  14.006  13.227
79719SOL    HW241055   5.246  14.094  13.227
79720SOL     OW41056   7.436   6.750   3.186
79720SOL    HW141057   7.492   6.773   3.260
79720SOL    HW241058   7.495   6.753   3.110
79721SOL     OW41059   1.104   6.332   3.461
79721SOL    HW141060   1.155   6.281   3.398
79721SOL    HW241061   1.132   6.299   3.547
79722SOL     OW41062   0.234   4.777  11.999
79722SOL    HW141063   0.231   4.725  12.079
79722SOL    HW241064   0.314   4.829  12.007
79723SOL     OW41065  12.044  10.725  11.010
79723SOL    HW141066  12.115  10.675  10.970
79723SOL    HW241067  12.042  10.695  11.101
79724SOL     OW41068   1.302   5.670   6.757
79724SOL    HW141069   1.324   5.673   6.664
79724SOL    HW241070   1.387   5.672   6.802
79725SOL     OW41071   6.677   2.260  13.512
79725SOL    HW141072   6.606   2.311  13.553
79725SOL    HW241073   6.677   2.178  13.561
79726SOL     OW41074   8.711   1.493  12.665
79726SOL    HW141075   8.705   1.578  12.622
79726SOL    HW241076   8.695   1.512  12.758
79727SOL     OW41077  11.737  13.488   7.055
79727SOL    HW141078  11.799  13.551   7.092
79727SOL    HW241079  11.685  13.539   6.993
79728SOL     OW41080   8.761   3.081  12.902
79728SOL    HW141081   8.793   3.096  12.991
79728SOL    HW241082   8.813   3.007  12.870
79729SOL     OW41083  10.203   4.094  12.507
79729SOL    HW141084  10.117   4.111  12.545
79729SOL    HW241085  10.184   4.071  12.416
79730SOL     OW41086   8.820   4.695  14.015
79730SOL    HW141087   8.805   4.704  14.109
79730SOL    HW241088   8.760   4.625  13.988
79731SOL     OW41089   8.295   2.684   0.040
79731SOL    HW141090   8.249   2.607   0.075
79731SOL    HW241091   8.386   2.671   0.067
79732SOL     OW41092   9.006   6.912   7.751
79732SOL    HW141093   8.924   6.864   7.741
79732SOL    HW241094   9.051   6.867   7.823
79733SOL     OW41095   1.412   1.936  13.925
79733SOL    HW141096   1.371   2.022  13.929
79733SOL    HW241097   1.357   1.880  13.981
79734SOL     OW41098   0.541   5.316   2.361
79734SOL    HW141099   0.608   5.373   2.398
79734SOL    HW241100   0.581   5.229   2.363
79735SOL     OW41101   2.380   6.898   6.811
79735SOL    HW141102   2.419   6.834   6.752
79735SOL    HW241103   2.437   6.975   6.805
79736SOL     OW41104  10.697   5.775  14.136
79736SOL    HW141105  10.753   5.720  14.081
79736SOL    HW241106  10.609   5.740  14.121
79737SOL     OW41107  11.044   3.867   6.867
79737SOL    HW141108  11.098   3.863   6.946
79737SOL    HW241109  10.954   3.856   6.899
79738SOL     OW41110  10.551  12.706  12.834
79738SOL    HW141111  10.544  12.715  12.929
79738SOL    HW241112  10.644  12.693  12.817
79739SOL     OW41113   8.729  12.416  10.119
79739SOL    HW141114   8.673  12.491  10.100
79739SOL    HW241115   8.687  12.343  10.073
79740SOL     OW41116  11.839   2.643   7.364
79740SOL    HW141117  11.865   2.552   7.344
79740SOL    HW241118  11.789   2.636   7.445
79741SOL     OW41119   5.801   7.963   2.836
79741SOL    HW141120   5.831   7.879   2.803
79741SOL    HW241121   5.880   8.016   2.844
79742SOL     OW41122   3.017  10.226  11.612
79742SOL    HW141123   3.039  10.135  11.628
79742SOL    HW241124   3.081  10.256  11.548
79743SOL     OW41125  11.295   7.371  13.717
79743SOL    HW141126  11.277   7.462  13.695
79743SOL    HW241127  11.265   7.362  13.808
79744SOL     OW41128   2.861  14.008   8.817
79744SOL    HW141129   2.847  13.999   8.911
79744SOL    HW241130   2.834  13.924   8.780
79745SOL     OW41131   9.826  13.465   9.470
79745SOL    HW141132   9.905  13.457   9.523
79745SOL    HW241133   9.856  13.506   9.389
79746SOL     OW41134  11.856   9.425  10.937
79746SOL    HW141135  11.806   9.498  10.899
79746SOL    HW241136  11.935   9.419  10.883
79747SOL     OW41137  10.892   4.602  14.202
79747SOL    HW141138  10.834   4.580  14.129
79747SOL    HW241139  10.977   4.616  14.161
79748SOL     OW41140   3.403  13.781  13.842
79748SOL    HW141141   3.374  13.870  13.821
79748SOL    HW241142   3.332  13.725  13.810
79749SOL     OW41143  12.078   1.186   2.207
79749SOL    HW141144  12.160   1.234   2.201
79749SOL    HW241145  12.010   1.252   2.195
79750SOL     OW41146  11.924   0.981   3.342
79750SOL    HW141147  12.014   0.976   3.309
79750SOL    HW241148  11.933   1.016   3.430
79751SOL     OW41149   5.505   8.744   3.453
79751SOL    HW141150   5.546   8.674   3.504
79751SOL    HW241151   5.464   8.699   3.379
79752SOL     OW41152   6.126  11.944  14.346
79752SOL    HW141153   6.168  11.902  14.270
79752SOL    HW241154   6.100  11.871  14.402
79753SOL     OW41155   7.587   0.983   5.977
79753SOL    HW141156   7.622   0.951   5.893
79753SOL    HW241157   7.537   0.909   6.012
79754SOL     OW41158  10.484  14.631   9.316
79754SOL    HW141159  10.457  14.659   9.404
79754SOL    HW241160  10.402  14.611   9.271
79755SOL     OW41161  11.018  13.516   1.726
79755SOL    HW141162  11.030  13.433   1.770
79755SOL    HW241163  11.055  13.502   1.638
79756SOL     OW41164  13.513   9.486   5.205
79756SOL    HW141165  13.577   9.544   5.164
79756SOL    HW241166  13.561   9.407   5.225
79757SOL     OW41167   8.334  11.628   6.695
79757SOL    HW141168   8.335  11.637   6.790
79757SOL    HW241169   8.322  11.534   6.680
79758SOL     OW41170   6.840  14.780   6.560
79758SOL    HW141171   6.776  14.849   6.542
79758SOL    HW241172   6.872  14.755   6.474
79759SOL     OW41173   3.304   1.847   7.399
79759SOL    HW141174   3.271   1.840   7.489
79759SOL    HW241175   3.376   1.909   7.404
79760SOL     OW41176   7.955  13.793  11.761
79760SOL    HW141177   7.865  13.814  11.786
79760SOL    HW241178   8.009  13.854  11.811
79761SOL     OW41179   2.513  12.431   2.555
79761SOL    HW141180   2.561  12.373   2.614
79761SOL    HW241181   2.504  12.513   2.603
79762SOL     OW41182   4.711   7.732   1.851
79762SOL    HW141183   4.725   7.646   1.891
79762SOL    HW241184   4.616   7.741   1.845
79763SOL     OW41185  10.619   8.512   5.101
79763SOL    HW141186  10.614   8.483   5.192
79763SOL    HW241187  10.567   8.592   5.098
79764SOL     OW41188  11.910   9.013  10.357
79764SOL    HW141189  11.859   8.932  10.356
79764SOL    HW241190  11.848   9.080  10.388
79765SOL     OW41191  12.617  10.974   8.161
79765SOL    HW141192  12.640  10.957   8.253
79765SOL    HW241193  12.521  10.978   8.161
79766SOL     OW41194  14.253   9.821   4.541
79766SOL    HW141195  14.159   9.802   4.535
79766SOL    HW241196  14.291   9.776   4.465
79767SOL     OW41197   9.076   9.738   9.902
79767SOL    HW141198   9.007   9.708   9.843
79767SOL    HW241199   9.153   9.746   9.847
79768SOL     OW41200   2.521   4.415  10.562
79768SOL    HW141201   2.454   4.356  10.527
79768SOL    HW241202   2.481   4.502  10.561
79769SOL     OW41203  10.544  10.853   9.304
79769SOL    HW141204  10.494  10.931   9.326
79769SOL    HW241205  10.540  10.800   9.384
79770SOL     OW41206   9.916   7.958   4.475
79770SOL    HW141207   9.981   7.937   4.542
79770SOL    HW241208   9.831   7.949   4.520
79771SOL     OW41209   2.227  10.420   8.509
79771SOL    HW141210   2.210  10.339   8.557
79771SOL    HW241211   2.320  10.438   8.524
79772SOL     OW41212  14.627   9.247   0.999
79772SOL    HW141213  14.679   9.186   1.052
79772SOL    HW241214  14.536   9.229   1.025
79773SOL     OW41215   8.644  13.031  11.671
79773SOL    HW141216   8.714  12.969  11.652
79773SOL    HW241217   8.649  13.045  11.766
79774SOL     OW41218   3.529   1.852  10.768
79774SOL    HW141219   3.439   1.853  10.736
79774SOL    HW241220   3.549   1.760  10.780
79775SOL     OW41221   8.860  10.393  11.356
79775SOL    HW141222   8.864  10.418  11.264
79775SOL    HW241223   8.771  10.417  11.383
79776SOL     OW41224   9.143   2.454   4.707
79776SOL    HW141225   9.104   2.406   4.634
79776SOL    HW241226   9.225   2.489   4.672
79777SOL     OW41227  11.974  13.160   0.766
79777SOL    HW141228  11.929  13.115   0.837
79777SOL    HW241229  11.946  13.114   0.687
79778SOL     OW41230  10.545   3.826   3.355
79778SOL    HW141231  10.463   3.786   3.325
79778SOL    HW241232  10.549   3.804   3.448
79779SOL     OW41233   2.658   0.612  11.122
79779SOL    HW141234   2.594   0.541  11.117
79779SOL    HW241235   2.685   0.626  11.032
79780SOL     OW41236   7.261   0.512   3.101
79780SOL    HW141237   7.267   0.434   3.045
79780SOL    HW241238   7.176   0.502   3.146
79781SOL     OW41239   8.030  13.302   5.826
79781SOL    HW141240   8.084  13.375   5.796
79781SOL    HW241241   8.059  13.227   5.774
79782SOL     OW41242  12.221  11.862   1.815
79782SOL    HW141243  12.133  11.838   1.846
79782SOL    HW241244  12.235  11.806   1.739
79783SOL     OW41245  11.513  14.449   5.636
79783SOL    HW141246  11.520  14.413   5.548
79783SOL    HW241247  11.460  14.528   5.626
79784SOL     OW41248  14.614   9.562   1.836
79784SOL    HW141249  14.602   9.467   1.844
79784SOL    HW241250  14.603   9.595   1.925
79785SOL     OW41251  11.710   3.815   4.427
79785SOL    HW141252  11.664   3.894   4.456
79785SOL    HW241253  11.648   3.744   4.442
79786SOL     OW41254   0.802   6.682   4.242
79786SOL    HW141255   0.860   6.757   4.249
79786SOL    HW241256   0.853   6.609   4.276
79787SOL     OW41257  11.012  11.863   7.537
79787SOL    HW141258  11.069  11.880   7.462
79787SOL    HW241259  10.963  11.944   7.551
79788SOL     OW41260   7.883   7.092   2.000
79788SOL    HW141261   7.797   7.131   1.981
79788SOL    HW241262   7.884   7.010   1.951
79789SOL     OW41263   4.796   4.427  14.310
79789SOL    HW141264   4.736   4.397  14.241
79789SOL    HW241265   4.864   4.360  14.313
79790SOL     OW41266   6.907   0.166   9.800
79790SOL    HW141267   6.882   0.136   9.713
79790SOL    HW241268   6.876   0.257   9.805
79791SOL     OW41269   0.997   9.349   0.468
79791SOL    HW141270   0.970   9.360   0.377
79791SOL    HW241271   1.089   9.376   0.469
79792SOL     OW41272   6.458   0.673   6.282
79792SOL    HW141273   6.496   0.603   6.336
79792SOL    HW241274   6.485   0.754   6.326
79793SOL     OW41275   1.371   3.606   6.588
79793SOL    HW141276   1.320   3.560   6.521
79793SOL    HW241277   1.315   3.677   6.617
79794SOL     OW41278  13.471   8.932   5.885
79794SOL    HW141279  13.530   8.920   5.811
79794SOL    HW241280  13.396   8.978   5.849
79795SOL     OW41281   6.351  10.163  10.291
79795SOL    HW141282   6.401  10.222  10.348
79795SOL    HW241283   6.263  10.202  10.287
79796SOL     OW41284  11.303   6.947   3.673
79796SOL    HW141285  11.393   6.931   3.647
79796SOL    HW241286  11.270   7.012   3.611
79797SOL     OW41287  11.711   4.098   0.500
79797SOL    HW141288  11.753   4.165   0.446
79797SOL    HW241289  11.779   4.071   0.562
79798SOL     OW41290  14.436   6.287   4.358
79798SOL    HW141291  14.359   6.331   4.322
79798SOL    HW241292  14.503   6.355   4.364
79799SOL     OW41293   0.222  10.973   0.834
79799SOL    HW141294   0.223  11.068   0.846
79799SOL    HW241295   0.286  10.939   0.897
79800SOL     OW41296   8.778   1.405   1.615
79800SOL    HW141297   8.836   1.445   1.550
79800SOL    HW241298   8.759   1.318   1.580
79801SOL     OW41299   4.007   1.828   7.402
79801SOL    HW141300   3.990   1.905   7.455
79801SOL    HW241301   4.029   1.759   7.465
79802SOL     OW41302   2.489  13.838  13.118
79802SOL    HW141303   2.493  13.743  13.108
79802SOL    HW241304   2.450  13.851  13.204
79803SOL     OW41305   2.263   5.110   9.399
79803SOL    HW141306   2.322   5.181   9.425
79803SOL    HW241307   2.186   5.122   9.454
79804SOL     OW41308   5.912   9.130   7.177
79804SOL    HW141309   5.894   9.039   7.197
79804SOL    HW241310   5.941   9.130   7.085
79805SOL     OW41311   7.730  12.122   9.367
79805SOL    HW141312   7.740  12.184   9.295
79805SOL    HW241313   7.636  12.124   9.388
79806SOL     OW41314  14.212   0.356   9.744
79806SOL    HW141315  14.291   0.341   9.691
79806SOL    HW241316  14.183   0.444   9.718
79807SOL     OW41317  12.538  13.650   0.353
79807SOL    HW141318  12.595  13.623   0.426
79807SOL    HW241319  12.533  13.745   0.361
79808SOL     OW41320   7.469   5.862   1.159
79808SOL    HW141321   7.529   5.934   1.143
79808SOL    HW241322   7.522   5.783   1.145
79809SOL     OW41323  13.260   3.608   2.221
79809SOL    HW141324  13.205   3.546   2.173
79809SOL    HW241325  13.342   3.611   2.172
79810SOL     OW41326   3.891   3.618  10.116
79810SOL    HW141327   3.876   3.652  10.028
79810SOL    HW241328   3.846   3.680  10.174
79811SOL     OW41329   9.107   2.874  12.432
79811SOL    HW141330   9.173   2.881  12.501
79811SOL    HW241331   9.028   2.845  12.478
79812SOL     OW41332  12.080  10.653  11.905
79812SOL    HW141333  12.045  10.742  11.908
79812SOL    HW241334  12.174  10.664  11.919
79813SOL     OW41335   3.655   7.730   8.400
79813SOL    HW141336   3.572   7.711   8.444
79813SOL    HW241337   3.719   7.735   8.471
79814SOL     OW41338   8.516  11.801   4.776
79814SOL    HW141339   8.544  11.719   4.736
79814SOL    HW241340   8.429  11.818   4.739
79815SOL     OW41341   0.043  12.803   2.159
79815SOL    HW141342   0.031  12.844   2.245
79815SOL    HW241343   0.113  12.739   2.172
79816SOL     OW41344  13.078   6.760  14.545
79816SOL    HW141345  13.127   6.841  14.558
79816SOL    HW241346  13.095   6.735  14.454
79817SOL     OW41347   9.004   1.304   0.723
79817SOL    HW141348   9.061   1.278   0.796
79817SOL    HW241349   8.935   1.239   0.722
79818SOL     OW41350   1.744   7.228   2.124
79818SOL    HW141351   1.718   7.235   2.216
79818SOL    HW241352   1.837   7.207   2.126
79819SOL     OW41353   2.587   5.652   4.172
79819SOL    HW141354   2.648   5.646   4.099
79819SOL    HW241355   2.637   5.696   4.241
79820SOL     OW41356  11.289   0.608   1.603
79820SOL    HW141357  11.195   0.623   1.616
79820SOL    HW241358  11.324   0.598   1.692
79821SOL     OW41359  10.188   1.008   8.707
79821SOL    HW141360  10.131   0.931   8.714
79821SOL    HW241361  10.245   1.003   8.783
79822SOL     OW41362   5.088   0.497   5.054
79822SOL    HW141363   5.080   0.481   4.960
79822SOL    HW241364   4.998   0.500   5.085
79823SOL     OW41365  14.666  13.005  13.694
79823SOL    HW141366  14.570  13.003  13.696
79823SOL    HW241367  14.688  13.097  13.712
79824SOL     OW41368   6.293  11.650   4.869
79824SOL    HW141369   6.311  11.736   4.908
79824SOL    HW241370   6.375  11.627   4.825
79825SOL     OW41371  12.003   2.069  14.464
79825SOL    HW141372  12.059   2.014  14.408
79825SOL    HW241373  11.952   2.122  14.402
79826SOL     OW41374   6.220  13.549   9.328
79826SOL    HW141375   6.163  13.493   9.381
79826SOL    HW241376   6.165  13.624   9.306
79827SOL     OW41377  10.275  12.801  11.731
79827SOL    HW141378  10.318  12.756  11.659
79827SOL    HW241379  10.288  12.894  11.713
79828SOL     OW41380  10.433  13.399   1.297
79828SOL    HW141381  10.456  13.492   1.289
79828SOL    HW241382  10.391  13.392   1.383
79829SOL     OW41383   1.583  10.804  13.124
79829SOL    HW141384   1.540  10.785  13.041
79829SOL    HW241385   1.672  10.770  13.113
79830SOL     OW41386   9.334   3.801  11.167
79830SOL    HW141387   9.257   3.769  11.214
79830SOL    HW241388   9.320   3.774  11.076
79831SOL     OW41389   5.314  11.955   2.211
79831SOL    HW141390   5.316  12.021   2.141
79831SOL    HW241391   5.257  11.886   2.178
79832SOL     OW41392  12.181   1.414   5.127
79832SOL    HW141393  12.227   1.335   5.154
79832SOL    HW241394  12.248   1.468   5.085
79833SOL     OW41395  12.869   9.235   8.602
79833SOL    HW141396  12.954   9.277   8.590
79833SOL    HW241397  12.884   9.143   8.582
79834SOL     OW41398   4.626   2.847   3.045
79834SOL    HW141399   4.644   2.755   3.061
79834SOL    HW241400   4.602   2.850   2.952
79835SOL     OW41401   2.100  12.144   6.501
79835SOL    HW141402   2.131  12.058   6.530
79835SOL    HW241403   2.028  12.164   6.560
79836SOL     OW41404   8.445   1.884   9.346
79836SOL    HW141405   8.531   1.910   9.380
79836SOL    HW241406   8.413   1.821   9.410
79837SOL     OW41407  10.142   8.798   1.706
79837SOL    HW141408  10.075   8.767   1.645
79837SOL    HW241409  10.220   8.747   1.683
79838SOL     OW41410   5.627   6.148   3.954
79838SOL    HW141411   5.593   6.161   4.042
79838SOL    HW241412   5.689   6.219   3.941
79839SOL     OW41413   1.868   0.437   6.751
79839SOL    HW141414   1.855   0.344   6.732
79839SOL    HW241415   1.855   0.443   6.846
79840SOL     OW41416  12.411   7.240   8.893
79840SOL    HW141417  12.471   7.165   8.892
79840SOL    HW241418  12.468   7.316   8.905
79841SOL     OW41419   3.256   3.625   0.733
79841SOL    HW141420   3.335   3.670   0.705
79841SOL    HW241421   3.287   3.544   0.773
79842SOL     OW41422  14.352   7.691   2.593
79842SOL    HW141423  14.358   7.782   2.623
79842SOL    HW241424  14.388   7.693   2.505
79843SOL     OW41425   6.714  11.608   4.850
79843SOL    HW141426   6.694  11.597   4.942
79843SOL    HW241427   6.629  11.619   4.808
79844SOL     OW41428   7.266  12.655   1.525
79844SOL    HW141429   7.203  12.726   1.515
79844SOL    HW241430   7.238  12.609   1.604
79845SOL     OW41431   0.325   5.592  13.670
79845SOL    HW141432   0.401   5.541  13.696
79845SOL    HW241433   0.359   5.680  13.652
79846SOL     OW41434   7.091   0.081  14.173
79846SOL    HW141435   7.086   0.138  14.250
79846SOL    HW241436   7.184   0.073  14.154
79847SOL     OW41437  10.398   9.005  11.267
79847SOL    HW141438  10.396   8.915  11.233
79847SOL    HW241439  10.491   9.029  11.265
79848SOL     OW41440   7.056  13.697  11.278
79848SOL    HW141441   7.089  13.608  11.262
79848SOL    HW241442   6.967  13.696  11.243
79849SOL     OW41443   4.536   1.117  11.030
79849SOL    HW141444   4.546   1.195  10.975
79849SOL    HW241445   4.448   1.123  11.065
79850SOL     OW41446   4.122   2.199   4.883
79850SOL    HW141447   4.037   2.218   4.924
79850SOL    HW241448   4.132   2.104   4.893
79851SOL     OW41449   1.840   1.380   2.794
79851SOL    HW141450   1.875   1.293   2.778
79851SOL    HW241451   1.787   1.370   2.873
79852SOL     OW41452   0.342   7.772   3.424
79852SOL    HW141453   0.347   7.787   3.518
79852SOL    HW241454   0.356   7.678   3.413
79853SOL     OW41455  14.805   7.240   2.812
79853SOL    HW141456  14.750   7.208   2.740
79853SOL    HW241457  14.841   7.322   2.779
79854SOL     OW41458   4.273   9.106   1.746
79854SOL    HW141459   4.233   9.190   1.768
79854SOL    HW241460   4.358   9.107   1.791
79855SOL     OW41461   1.829   7.258   6.374
79855SOL    HW141462   1.807   7.221   6.459
79855SOL    HW241463   1.888   7.194   6.335
79856SOL     OW41464   5.442   9.294   3.661
79856SOL    HW141465   5.421   9.354   3.589
79856SOL    HW241466   5.437   9.349   3.740
79857SOL     OW41467   1.082   0.848   3.447
79857SOL    HW141468   1.053   0.824   3.359
79857SOL    HW241469   1.037   0.931   3.465
79858SOL     OW41470   9.871  13.823   2.511
79858SOL    HW141471   9.900  13.788   2.427
79858SOL    HW241472   9.839  13.746   2.559
79859SOL     OW41473   6.138   9.008   6.207
79859SOL    HW141474   6.104   9.081   6.260
79859SOL    HW241475   6.066   8.946   6.203
79860SOL     OW41476   6.817  10.105  13.421
79860SOL    HW141477   6.861  10.185  13.449
79860SOL    HW241478   6.875  10.068  13.354
79861SOL     OW41479   3.213   8.169   9.259
79861SOL    HW141480   3.278   8.162   9.329
79861SOL    HW241481   3.133   8.197   9.303
79862SOL     OW41482  11.664   8.066  12.927
79862SOL    HW141483  11.661   8.055  12.832
79862SOL    HW241484  11.750   8.104  12.944
79863SOL     OW41485   5.180  13.083   9.201
79863SOL    HW141486   5.118  13.032   9.254
79863SOL    HW241487   5.229  13.135   9.265
79864SOL     OW41488  13.464   7.752   9.216
79864SOL    HW141489  13.452   7.839   9.253
79864SOL    HW241490  13.539   7.761   9.157
79865SOL     OW41491   5.236   1.471   1.835
79865SOL    HW141492   5.199   1.383   1.841
79865SOL    HW241493   5.202   1.516   1.912
79866SOL     OW41494   1.661   6.821   6.981
79866SOL    HW141495   1.701   6.752   7.034
79866SOL    HW241496   1.612   6.874   7.044
79867SOL     OW41497  10.151   9.019   1.454
79867SOL    HW141498  10.062   9.051   1.471
79867SOL    HW241499  10.182   8.990   1.540
79868SOL     OW41500  13.294   6.656   9.431
79868SOL    HW141501  13.229   6.589   9.409
79868SOL    HW241502  13.348   6.663   9.353
79869SOL     OW41503   9.416  11.137   8.908
79869SOL    HW141504   9.466  11.212   8.875
79869SOL    HW241505   9.475  11.062   8.898
79870SOL     OW41506  12.590   0.145   9.412
79870SOL    HW141507  12.665   0.087   9.403
79870SOL    HW241508  12.552   0.123   9.497
79871SOL     OW41509  13.575  13.737   9.720
79871SOL    HW141510  13.666  13.757   9.742
79871SOL    HW241511  13.565  13.644   9.741
79872SOL     OW41512  11.262   2.336  14.579
79872SOL    HW141513  11.237   2.327  14.487
79872SOL    HW241514  11.228   2.256  14.621
79873SOL     OW41515  14.683   3.056   7.617
79873SOL    HW141516  14.778   3.047   7.610
79873SOL    HW241517  14.653   3.056   7.527
79874SOL     OW41518   7.848  12.108   9.941
79874SOL    HW141519   7.866  12.091   9.849
79874SOL    HW241520   7.764  12.154   9.941
79875SOL     OW41521   3.710   2.318   1.835
79875SOL    HW141522   3.706   2.360   1.921
79875SOL    HW241523   3.666   2.234   1.848
79876SOL     OW41524   9.215   1.394  10.524
79876SOL    HW141525   9.159   1.338  10.469
79876SOL    HW241526   9.304   1.365  10.505
79877SOL     OW41527   2.382   5.569   9.655
79877SOL    HW141528   2.303   5.590   9.605
79877SOL    HW241529   2.359   5.589   9.746
79878SOL     OW41530  13.826   3.621   1.148
79878SOL    HW141531  13.792   3.575   1.071
79878SOL    HW241532  13.900   3.567   1.177
79879SOL     OW41533   7.159   6.240  10.952
79879SOL    HW141534   7.222   6.303  10.987
79879SOL    HW241535   7.092   6.232  11.020
79880SOL     OW41536   9.407  10.846  10.281
79880SOL    HW141537   9.317  10.855  10.250
79880SOL    HW241538   9.461  10.871  10.207
79881SOL     OW41539   3.497   1.099   9.404
79881SOL    HW141540   3.540   1.056   9.330
79881SOL    HW241541   3.523   1.048   9.481
79882SOL     OW41542   5.240   4.285  10.762
79882SOL    HW141543   5.274   4.270  10.851
79882SOL    HW241544   5.150   4.313  10.775
79883SOL     OW41545   2.583  14.497  14.516
79883SOL    HW141546   2.520  14.520  14.584
79883SOL    HW241547   2.531  14.454  14.448
79884SOL     OW41548   6.574  12.751  11.560
79884SOL    HW141549   6.561  12.797  11.643
79884SOL    HW241550   6.559  12.658  11.581
79885SOL     OW41551  13.602   4.123  14.504
79885SOL    HW141552  13.545   4.174  14.562
79885SOL    HW241553  13.666   4.083  14.563
79886SOL     OW41554   3.023   1.092   1.901
79886SOL    HW141555   2.960   1.049   1.958
79886SOL    HW241556   2.994   1.184   1.898
79887SOL     OW41557   3.106   1.523   0.811
79887SOL    HW141558   3.071   1.442   0.847
79887SOL    HW241559   3.170   1.495   0.745
79888SOL     OW41560   8.751   2.678  14.770
79888SOL    HW141561   8.778   2.758  14.724
79888SOL    HW241562   8.757   2.701  14.863
79889SOL     OW41563   5.282   2.117   3.429
79889SOL    HW141564   5.223   2.192   3.433
79889SOL    HW241565   5.239   2.050   3.482
79890SOL     OW41566  12.645  13.668   7.697
79890SOL    HW141567  12.573  13.609   7.674
79890SOL    HW241568  12.699  13.670   7.618
79891SOL     OW41569  10.187   6.572   6.391
79891SOL    HW141570  10.127   6.639   6.359
79891SOL    HW241571  10.204   6.516   6.316
79892SOL     OW41572   3.891   8.768   7.729
79892SOL    HW141573   3.899   8.673   7.722
79892SOL    HW241574   3.911   8.800   7.641
79893SOL     OW41575   0.602  11.622   3.609
79893SOL    HW141576   0.580  11.698   3.661
79893SOL    HW241577   0.551  11.632   3.529
79894SOL     OW41578  11.456  14.509   4.318
79894SOL    HW141579  11.489  14.584   4.269
79894SOL    HW241580  11.387  14.473   4.263
79895SOL     OW41581  14.310   9.746  12.483
79895SOL    HW141582  14.367   9.744  12.406
79895SOL    HW241583  14.265   9.830  12.477
79896SOL     OW41584  10.082   3.195   3.444
79896SOL    HW141585  10.104   3.102   3.452
79896SOL    HW241586  10.112   3.219   3.356
79897SOL     OW41587   8.597   7.297  12.846
79897SOL    HW141588   8.641   7.264  12.768
79897SOL    HW241589   8.552   7.377  12.817
79898SOL     OW41590   6.436  11.164   1.453
79898SOL    HW141591   6.429  11.072   1.429
79898SOL    HW241592   6.387  11.210   1.385
79899SOL     OW41593   0.156   7.045   9.636
79899SOL    HW141594   0.233   7.090   9.600
79899SOL    HW241595   0.185   7.014   9.722
79900SOL     OW41596   2.315   3.756   5.565
79900SOL    HW141597   2.265   3.757   5.647
79900SOL    HW241598   2.270   3.818   5.508
79901SOL     OW41599   4.229   5.027  10.175
79901SOL    HW141600   4.175   5.032  10.096
79901SOL    HW241601   4.319   5.029  10.141
79902SOL     OW41602  14.611  13.277  13.176
79902SOL    HW141603  14.607  13.273  13.080
79902SOL    HW241604  14.548  13.212  13.206
79903SOL     OW41605   9.076  12.733   2.285
79903SOL    HW141606   9.112  12.789   2.216
79903SOL    HW241607   9.012  12.789   2.330
79904SOL     OW41608  10.976   2.655  10.389
79904SOL    HW141609  11.012   2.730  10.438
79904SOL    HW241610  10.898   2.690  10.345
79905SOL     OW41611  10.267   4.200   5.330
79905SOL    HW141612  10.255   4.244   5.414
79905SOL    HW241613  10.361   4.185   5.324
79906SOL     OW41614   8.679   1.005  14.451
79906SOL    HW141615   8.625   0.951  14.510
79906SOL    HW241616   8.768   0.991  14.482
79907SOL     OW41617   7.946   3.033   7.401
79907SOL    HW141618   7.979   2.984   7.476
79907SOL    HW241619   7.897   2.969   7.350
79908SOL     OW41620   3.464   6.486   6.990
79908SOL    HW141621   3.402   6.516   6.923
79908SOL    HW241622   3.516   6.564   7.010
79909SOL     OW41623   6.431   5.448   9.155
79909SOL    HW141624   6.364   5.432   9.221
79909SOL    HW241625   6.496   5.503   9.199
79910SOL     OW41626   2.491  13.009   9.067
79910SOL    HW141627   2.497  12.926   9.019
79910SOL    HW241628   2.580  13.024   9.099
79911SOL     OW41629   3.490   8.406   8.014
79911SOL    HW141630   3.485   8.420   7.920
79911SOL    HW241631   3.473   8.313   8.026
79912SOL     OW41632  10.548  11.969   2.947
79912SOL    HW141633  10.500  11.887   2.957
79912SOL    HW241634  10.485  12.030   2.909
79913SOL     OW41635   9.993   0.320   1.287
79913SOL    HW141636  10.002   0.248   1.349
79913SOL    HW241637   9.905   0.309   1.251
79914SOL     OW41638   3.401   9.785  14.174
79914SOL    HW141639   3.442   9.804  14.090
79914SOL    HW241640   3.402   9.868  14.221
79915SOL     OW41641  14.674  13.072   2.630
79915SOL    HW141642  14.632  13.016   2.695
79915SOL    HW241643  14.662  13.027   2.547
79916SOL     OW41644  12.087   2.912   7.721
79916SOL    HW141645  12.042   2.938   7.801
79916SOL    HW241646  12.085   2.817   7.722
79917SOL     OW41647   0.063   7.552   8.851
79917SOL    HW141648   0.084   7.641   8.821
79917SOL    HW241649   0.001   7.564   8.923
79918SOL     OW41650   2.940  14.334   0.160
79918SOL    HW141651   3.018  14.390   0.150
79918SOL    HW241652   2.872  14.378   0.110
79919SOL     OW41653  13.810   6.478   7.695
79919SOL    HW141654  13.728   6.466   7.648
79919SOL    HW241655  13.873   6.423   7.647
79920SOL     OW41656   5.122   9.065  11.903
79920SOL    HW141657   5.159   9.039  11.819
79920SOL    HW241658   5.094   8.982  11.943
79921SOL     OW41659   7.523   5.543   7.745
79921SOL    HW141660   7.539   5.606   7.815
79921SOL    HW241661   7.477   5.592   7.678
79922SOL     OW41662   7.629   9.905  11.692
79922SOL    HW141663   7.664   9.994  11.701
79922SOL    HW241664   7.667   9.872  11.610
79923SOL     OW41665  11.219   2.184  10.541
79923SOL    HW141666  11.311   2.208  10.555
79923SOL    HW241667  11.193   2.234  10.463
79924SOL     OW41668  12.919   7.774   8.747
79924SOL    HW141669  12.894   7.682   8.742
79924SOL    HW241670  12.994   7.781   8.687
79925SOL     OW41671   8.630   4.415   2.361
79925SOL    HW141672   8.538   4.441   2.366
79925SOL    HW241673   8.631   4.343   2.298
79926SOL     OW41674  10.344   7.028  14.047
79926SOL    HW141675  10.339   7.115  14.085
79926SOL    HW241676  10.264   6.984  14.077
79927SOL     OW41677   4.976   0.432  12.451
79927SOL    HW141678   4.950   0.519  12.482
79927SOL    HW241679   5.010   0.448  12.362
79928SOL     OW41680  12.645   0.458  10.156
79928SOL    HW141681  12.604   0.399  10.219
79928SOL    HW241682  12.737   0.463  10.184
79929SOL     OW41683   9.623  10.883   3.191
79929SOL    HW141684   9.603  10.833   3.112
79929SOL    HW241685   9.610  10.821   3.263
79930SOL     OW41686  11.358   3.948  14.738
79930SOL    HW141687  11.430   3.894  14.772
79930SOL    HW241688  11.386   4.038  14.758
79931SOL     OW41689  13.000   9.823  10.188
79931SOL    HW141690  12.954   9.783  10.115
79931SOL    HW241691  12.958   9.908  10.200
79932SOL     OW41692   1.604   4.535   1.165
79932SOL    HW141693   1.537   4.522   1.098
79932SOL    HW241694   1.568   4.493   1.243
79933SOL     OW41695   2.752   7.066   6.628
79933SOL    HW141696   2.669   7.036   6.590
79933SOL    HW241697   2.743   7.161   6.632
79934SOL     OW41698   1.928  14.770   5.107
79934SOL    HW141699   1.918  14.682   5.142
79934SOL    HW241700   1.851  14.783   5.051
79935SOL     OW41701   8.958   6.725  12.941
79935SOL    HW141702   8.990   6.637  12.959
79935SOL    HW241703   9.037   6.779  12.935
79936SOL     OW41704   0.410   6.076  13.347
79936SOL    HW141705   0.376   6.123  13.424
79936SOL    HW241706   0.503   6.100  13.345
79937SOL     OW41707   4.342   7.777   9.314
79937SOL    HW141708   4.355   7.806   9.223
79937SOL    HW241709   4.327   7.683   9.307
79938SOL     OW41710   7.861   9.915   1.135
79938SOL    HW141711   7.813   9.859   1.196
79938SOL    HW241712   7.877   9.860   1.059
79939SOL     OW41713   7.180  10.982   7.310
79939SOL    HW141714   7.098  10.944   7.277
79939SOL    HW241715   7.189  11.065   7.262
79940SOL     OW41716   9.433   7.580   1.380
79940SOL    HW141717   9.452   7.669   1.409
79940SOL    HW241718   9.412   7.590   1.287
79941SOL     OW41719  14.083   5.114   7.075
79941SOL    HW141720  14.089   5.128   7.170
79941SOL    HW241721  14.061   5.021   7.067
79942SOL     OW41722   9.146  10.907   3.252
79942SOL    HW141723   9.162  10.994   3.288
79942SOL    HW241724   9.183  10.910   3.163
79943SOL     OW41725  11.510   2.134   8.264
79943SOL    HW141726  11.472   2.109   8.180
79943SOL    HW241727  11.547   2.221   8.250
79944SOL     OW41728  12.576   8.207   1.465
79944SOL    HW141729  12.518   8.280   1.444
79944SOL    HW241730  12.518   8.134   1.484
79945SOL     OW41731  13.409  14.691  12.483
79945SOL    HW141732  13.459  14.612  12.503
79945SOL    HW241733  13.464  14.763  12.513
79946SOL     OW41734   8.621   1.892  11.343
79946SOL    HW141735   8.617   1.811  11.291
79946SOL    HW241736   8.529   1.908  11.367
79947SOL     OW41737  14.160   9.586   4.820
79947SOL    HW141738  14.082   9.554   4.867
79947SOL    HW241739  14.152   9.681   4.823
79948SOL     OW41740   8.528   5.728   0.929
79948SOL    HW141741   8.567   5.756   1.012
79948SOL    HW241742   8.528   5.806   0.875
79949SOL     OW41743   2.747  13.707   5.220
79949SOL    HW141744   2.735  13.796   5.253
79949SOL    HW241745   2.751  13.718   5.124
79950SOL     OW41746   7.023   0.220   6.966
79950SOL    HW141747   6.991   0.257   7.048
79950SOL    HW241748   7.117   0.233   6.969
79951SOL     OW41749   8.118   2.731  13.608
79951SOL    HW141750   8.118   2.662  13.675
79951SOL    HW241751   8.027   2.739  13.582
79952SOL     OW41752   4.073   8.078  12.997
79952SOL    HW141753   4.015   8.128  13.055
79952SOL    HW241754   4.148   8.056  13.051
79953SOL     OW41755  13.684  11.373   5.266
79953SOL    HW141756  13.758  11.371   5.205
79953SOL    HW241757  13.634  11.451   5.241
79954SOL     OW41758   6.441   8.415  12.350
79954SOL    HW141759   6.431   8.387  12.441
79954SOL    HW241760   6.424   8.509  12.352
79955SOL     OW41761  11.712   8.849  10.311
79955SOL    HW141762  11.665   8.774  10.348
79955SOL    HW241763  11.668   8.866  10.227
79956SOL     OW41764   4.106  10.975   9.886
79956SOL    HW141765   4.142  11.012   9.967
79956SOL    HW241766   4.154  11.020   9.816
79957SOL     OW41767   5.759   0.185   2.910
79957SOL    HW141768   5.806   0.193   2.993
79957SOL    HW241769   5.716   0.099   2.915
79958SOL     OW41770  14.223   9.566   7.276
79958SOL    HW141771  14.206   9.516   7.197
79958SOL    HW241772  14.317   9.580   7.276
79959SOL     OW41773  13.633  12.537   9.998
79959SOL    HW141774  13.684  12.475   9.945
79959SOL    HW241775  13.602  12.485  10.072
79960SOL     OW41776   1.453  14.813   8.977
79960SOL    HW141777   1.396  14.781   9.047
79960SOL    HW241778   1.465   0.034   8.997
79961SOL     OW41779   2.827   0.503   6.271
79961SOL    HW141780   2.805   0.479   6.361
79961SOL    HW241781   2.887   0.577   6.280
79962SOL     OW41782   2.764  11.520  11.929
79962SOL    HW141783   2.717  11.455  11.878
79962SOL    HW241784   2.836  11.471  11.970
79963SOL     OW41785   5.549   8.387   5.792
79963SOL    HW141786   5.499   8.335   5.854
79963SOL    HW241787   5.523   8.353   5.706
79964SOL     OW41788   5.971   4.606   1.330
79964SOL    HW141789   5.923   4.688   1.345
79964SOL    HW241790   5.905   4.545   1.299
79965SOL     OW41791   8.828   6.409   1.736
79965SOL    HW141792   8.876   6.490   1.718
79965SOL    HW241793   8.882   6.362   1.800
79966SOL     OW41794   9.381  10.450   0.113
79966SOL    HW141795   9.455  10.451   0.051
79966SOL    HW241796   9.414  10.401   0.188
79967SOL     OW41797   0.664   2.795   8.377
79967SOL    HW141798   0.598   2.726   8.375
79967SOL    HW241799   0.617   2.874   8.403
79968SOL     OW41800   0.839  11.279  10.775
79968SOL    HW141801   0.840  11.286  10.870
79968SOL    HW241802   0.880  11.360  10.744
79969SOL     OW41803   2.188   6.018  14.771
79969SOL    HW141804   2.109   5.985  14.814
79969SOL    HW241805   2.176   5.996  14.678
79970SOL     OW41806  14.537   3.893   1.157
79970SOL    HW141807  14.494   3.811   1.181
79970SOL    HW241808  14.631   3.874   1.166
79971SOL     OW41809   9.982   5.870   6.819
79971SOL    HW141810  10.018   5.958   6.827
79971SOL    HW241811   9.920   5.876   6.746
79972SOL     OW41812   9.898   9.273  14.734
79972SOL    HW141813   9.879   9.250  14.825
79972SOL    HW241814   9.988   9.243  14.720
79973SOL     OW41815   5.666   2.422   4.963
79973SOL    HW141816   5.690   2.380   4.880
79973SOL    HW241817   5.737   2.400   5.023
79974SOL     OW41818   6.639   2.991   9.792
79974SOL    HW141819   6.678   3.051   9.729
79974SOL    HW241820   6.634   2.907   9.746
79975SOL     OW41821  12.881   8.101   8.442
79975SOL    HW141822  12.917   8.137   8.361
79975SOL    HW241823  12.946   8.036   8.469
79976SOL     OW41824  14.176   7.183   2.932
79976SOL    HW141825  14.098   7.206   2.984
79976SOL    HW241826  14.248   7.225   2.977
79977SOL     OW41827   7.538  13.249   1.392
79977SOL    HW141828   7.445  13.235   1.375
79977SOL    HW241829   7.545  13.248   1.488
79978SOL     OW41830   4.969  13.831   7.836
79978SOL    HW141831   5.042  13.873   7.791
79978SOL    HW241832   4.942  13.894   7.902
79979SOL     OW41833   4.999   8.299   4.653
79979SOL    HW141834   5.025   8.371   4.595
79979SOL    HW241835   4.904   8.298   4.649
79980SOL     OW41836   6.226   0.521   2.352
79980SOL    HW141837   6.222   0.615   2.332
79980SOL    HW241838   6.134   0.495   2.358
79981SOL     OW41839   0.360   9.523  10.617
79981SOL    HW141840   0.400   9.436  10.612
79981SOL    HW241841   0.370   9.548  10.709
79982SOL     OW41842  14.681  12.924   7.172
79982SOL    HW141843  14.705  12.862   7.241
79982SOL    HW241844  14.704  12.879   7.091
79983SOL     OW41845  14.649  14.774   0.802
79983SOL    HW141846  14.598  14.735   0.731
79983SOL    HW241847  14.610  14.738   0.882
79984SOL     OW41848  10.589   1.618  13.784
79984SOL    HW141849  10.600   1.687  13.850
79984SOL    HW241850  10.525   1.653  13.723
79985SOL     OW41851   6.237   3.743   8.126
79985SOL    HW141852   6.268   3.834   8.134
79985SOL    HW241853   6.212   3.735   8.034
79986SOL     OW41854   6.018   7.470  10.626
79986SOL    HW141855   5.950   7.522  10.670
79986SOL    HW241856   5.993   7.379  10.644
79987SOL     OW41857  12.292   8.522   3.281
79987SOL    HW141858  12.318   8.569   3.202
79987SOL    HW241859  12.199   8.542   3.292
79988SOL     OW41860   1.575  11.884   1.289
79988SOL    HW141861   1.479  11.885   1.290
79988SOL    HW241862   1.598  11.795   1.262
79989SOL     OW41863   3.365   0.473   7.662
79989SOL    HW141864   3.418   0.499   7.738
79989SOL    HW241865   3.378   0.378   7.656
79990SOL     OW41866   4.697   0.649   5.555
79990SOL    HW141867   4.699   0.563   5.598
79990SOL    HW241868   4.634   0.639   5.484
79991SOL     OW41869   4.236   7.760  10.564
79991SOL    HW141870   4.246   7.668  10.539
79991SOL    HW241871   4.326   7.795  10.564
79992SOL     OW41872   1.007   8.842  14.554
79992SOL    HW141873   0.938   8.796  14.506
79992SOL    HW241874   0.961   8.892  14.622
79993SOL     OW41875   4.162  10.532   7.572
79993SOL    HW141876   4.257  10.531   7.581
79993SOL    HW241877   4.147  10.561   7.482
79994SOL     OW41878   1.793  10.532   7.605
79994SOL    HW141879   1.743  10.519   7.524
79994SOL    HW241880   1.860  10.596   7.581
79995SOL     OW41881  13.710   9.493   9.188
79995SOL    HW141882  13.625   9.491   9.144
79995SOL    HW241883  13.709   9.576   9.237
79996SOL     OW41884   4.601   0.864  10.947
79996SOL    HW141885   4.689   0.833  10.926
79996SOL    HW241886   4.607   0.959  10.939
79997SOL     OW41887  12.067   1.023  11.109
79997SOL    HW141888  12.063   1.115  11.081
79997SOL    HW241889  11.994   0.981  11.063
79998SOL     OW41890   0.463  10.584   5.111
79998SOL    HW141891   0.367  10.581   5.116
79998SOL    HW241892   0.483  10.677   5.107
79999SOL     OW41893  12.703   5.409  11.287
79999SOL    HW141894  12.630   5.354  11.256
79999SOL    HW241895  12.667   5.497  11.292
80000SOL     OW41896   1.642   5.233   6.901
80000SOL    HW141897   1.686   5.306   6.858
80000SOL    HW241898   1.549   5.246   6.882
80001SOL     OW41899   8.428   9.734   5.643
80001SOL    HW141900   8.436   9.819   5.599
80001SOL    HW241901   8.370   9.683   5.586
80002SOL     OW41902   3.551   9.494   7.082
80002SOL    HW141903   3.502   9.542   7.015
80002SOL    HW241904   3.528   9.403   7.069
80003SOL     OW41905   9.903  14.207   6.144
80003SOL    HW141906   9.994  14.185   6.165
80003SOL    HW241907   9.893  14.298   6.173
80004SOL     OW41908   6.795  11.524  10.373
80004SOL    HW141909   6.733  11.510  10.302
80004SOL    HW241910   6.743  11.560  10.444
80005SOL     OW41911   6.999  14.674   9.466
80005SOL    HW141912   7.053  14.744   9.429
80005SOL    HW241913   6.965  14.711   9.548
80006SOL     OW41914   1.771   7.960   6.962
80006SOL    HW141915   1.823   7.900   6.909
80006SOL    HW241916   1.835   8.010   7.013
80007SOL     OW41917   3.288   9.967   6.993
80007SOL    HW141918   3.315  10.042   7.046
80007SOL    HW241919   3.310   9.891   7.046
80008SOL     OW41920   6.329   3.001   0.451
80008SOL    HW141921   6.396   2.991   0.383
80008SOL    HW241922   6.257   2.945   0.422
80009SOL     OW41923  14.300  10.444   3.113
80009SOL    HW141924  14.213  10.480   3.129
80009SOL    HW241925  14.341  10.506   3.052
80010SOL     OW41926  11.961   9.825   9.044
80010SOL    HW141927  11.865   9.817   9.039
80010SOL    HW241928  11.975   9.901   9.100
80011SOL     OW41929   3.579  12.698   0.377
80011SOL    HW141930   3.635  12.740   0.312
80011SOL    HW241931   3.632  12.696   0.457
80012SOL     OW41932   6.772   6.334   0.599
80012SOL    HW141933   6.767   6.406   0.661
80012SOL    HW241934   6.799   6.259   0.652
80013SOL     OW41935   8.965  13.748   9.686
80013SOL    HW141936   9.043  13.781   9.643
80013SOL    HW241937   8.997  13.701   9.762
80014SOL     OW41938   5.484   3.367  10.363
80014SOL    HW141939   5.522   3.280  10.377
80014SOL    HW241940   5.529   3.423  10.426
80015SOL     OW41941   3.562   6.223  12.323
80015SOL    HW141942   3.605   6.280  12.260
80015SOL    HW241943   3.484   6.271  12.350
80016SOL     OW41944   9.007  10.895   4.417
80016SOL    HW141945   8.931  10.894   4.475
80016SOL    HW241946   9.047  10.809   4.428
80017SOL     OW41947  13.630   0.883   6.455
80017SOL    HW141948  13.564   0.925   6.400
80017SOL    HW241949  13.706   0.874   6.398
80018SOL     OW41950   9.089   2.246   4.260
80018SOL    HW141951   9.078   2.318   4.198
80018SOL    HW241952   9.121   2.173   4.207
80019SOL     OW41953   9.276  13.511  11.345
80019SOL    HW141954   9.256  13.481  11.434
80019SOL    HW241955   9.347  13.575  11.357
80020SOL     OW41956  10.146   0.396   5.657
80020SOL    HW141957  10.235   0.403   5.623
80020SOL    HW241958  10.103   0.476   5.628
80021SOL     OW41959  11.172  13.272   2.395
80021SOL    HW141960  11.107  13.340   2.382
80021SOL    HW241961  11.211  13.259   2.308
80022SOL     OW41962   7.996   7.609   8.187
80022SOL    HW141963   8.085   7.574   8.190
80022SOL    HW241964   7.993   7.659   8.105
80023SOL     OW41965  14.674   2.228   2.846
80023SOL    HW141966  14.717   2.162   2.792
80023SOL    HW241967  14.584   2.197   2.854
80024SOL     OW41968   4.142   9.394  14.044
80024SOL    HW141969   4.230   9.355  14.041
80024SOL    HW241970   4.101   9.357  14.122
80025SOL     OW41971  12.623   6.163  11.518
80025SOL    HW141972  12.628   6.082  11.568
80025SOL    HW241973  12.677   6.225  11.566
80026SOL     OW41974   3.488   9.526   0.850
80026SOL    HW141975   3.444   9.561   0.927
80026SOL    HW241976   3.459   9.436   0.844
80027SOL     OW41977   8.643   5.170   1.115
80027SOL    HW141978   8.595   5.241   1.073
80027SOL    HW241979   8.593   5.150   1.193
80028SOL     OW41980  10.132  10.383   9.420
80028SOL    HW141981  10.058  10.333   9.455
80028SOL    HW241982  10.105  10.474   9.428
80029SOL     OW41983   5.789   5.855   0.415
80029SOL    HW141984   5.838   5.803   0.479
80029SOL    HW241985   5.734   5.913   0.467
80030SOL     OW41986   8.874   1.565   6.884
80030SOL    HW141987   8.940   1.566   6.815
80030SOL    HW241988   8.901   1.634   6.944
80031SOL     OW41989   3.990  13.913   0.308
80031SOL    HW141990   4.026  14.002   0.307
80031SOL    HW241991   4.032  13.871   0.384
80032SOL     OW41992  10.349   4.994   0.323
80032SOL    HW141993  10.395   5.044   0.391
80032SOL    HW241994  10.316   5.060   0.263
80033SOL     OW41995   9.183   1.680  10.429
80033SOL    HW141996   9.208   1.588  10.432
80033SOL    HW241997   9.244   1.723  10.489
80034SOL     OW41998   9.133   4.078  12.824
80034SOL    HW141999   9.095   4.157  12.785
80034SOL    HW242000   9.225   4.100  12.838
80035SOL     OW42001   0.281  11.020   6.751
80035SOL    HW142002   0.289  11.020   6.846
80035SOL    HW242003   0.364  11.054   6.719
80036SOL     OW42004   2.091   9.902   8.729
80036SOL    HW142005   2.179   9.878   8.758
80036SOL    HW242006   2.035   9.879   8.803
80037SOL     OW42007   6.065   7.413   5.347
80037SOL    HW142008   5.976   7.377   5.356
80037SOL    HW242009   6.104   7.401   5.434
80038SOL     OW42010   1.761   3.760   4.877
80038SOL    HW142011   1.679   3.739   4.922
80038SOL    HW242012   1.764   3.699   4.803
80039SOL     OW42013   4.937   2.109  13.784
80039SOL    HW142014   4.876   2.183  13.778
80039SOL    HW242015   4.984   2.110  13.701
80040SOL     OW42016  11.248  10.591   2.898
80040SOL    HW142017  11.279  10.680   2.918
80040SOL    HW242018  11.226  10.554   2.983
80041SOL     OW42019   7.413  12.994  12.132
80041SOL    HW142020   7.432  12.900  12.137
80041SOL    HW242021   7.466  13.025  12.058
80042SOL     OW42022   8.741   9.370   1.965
80042SOL    HW142023   8.801   9.436   1.999
80042SOL    HW242024   8.756   9.293   2.019
80043SOL     OW42025   4.455   1.176   9.959
80043SOL    HW142026   4.451   1.110   9.889
80043SOL    HW242027   4.546   1.207   9.957
80044SOL     OW42028   6.551   3.341  10.850
80044SOL    HW142029   6.593   3.378  10.927
80044SOL    HW242030   6.574   3.248  10.852
80045SOL     OW42031  13.772   7.087   7.125
80045SOL    HW142032  13.698   7.147   7.117
80045SOL    HW242033  13.734   7.006   7.158
80046SOL     OW42034  12.726   8.061   6.089
80046SOL    HW142035  12.760   7.975   6.063
80046SOL    HW242036  12.633   8.044   6.109
80047SOL     OW42037   4.178   3.266   1.832
80047SOL    HW142038   4.115   3.194   1.829
80047SOL    HW242039   4.209   3.273   1.742
80048SOL     OW42040  11.031   2.613   0.668
80048SOL    HW142041  11.105   2.614   0.728
80048SOL    HW242042  10.961   2.570   0.716
80049SOL     OW42043  11.393  13.936   8.951
80049SOL    HW142044  11.476  13.966   8.989
80049SOL    HW242045  11.329  14.003   8.977
80050SOL     OW42046   0.888   5.890   4.622
80050SOL    HW142047   0.820   5.900   4.555
80050SOL    HW242048   0.870   5.805   4.662
80051SOL     OW42049   9.300   7.989  10.656
80051SOL    HW142050   9.264   7.901  10.642
80051SOL    HW242051   9.350   8.007  10.576
80052SOL     OW42052   2.405   8.657   0.216
80052SOL    HW142053   2.396   8.602   0.294
80052SOL    HW242054   2.468   8.610   0.161
80053SOL     OW42055   3.059   9.999   6.397
80053SOL    HW142056   3.069  10.063   6.468
80053SOL    HW242057   2.976   9.955   6.416
80054SOL     OW42058  12.779  11.668  11.990
80054SOL    HW142059  12.714  11.730  12.023
80054SOL    HW242060  12.854  11.722  11.967
80055SOL     OW42061  11.763   1.476   1.718
80055SOL    HW142062  11.784   1.569   1.720
80055SOL    HW242063  11.715   1.463   1.636
80056SOL     OW42064   0.122   9.030   3.807
80056SOL    HW142065   0.196   9.022   3.746
80056SOL    HW242066   0.059   8.965   3.776
80057SOL     OW42067   9.578   9.704  11.333
80057SOL    HW142068   9.607   9.617  11.362
80057SOL    HW242069   9.621   9.765  11.394
80058SOL     OW42070  14.175   2.611   5.374
80058SOL    HW142071  14.228   2.688   5.396
80058SOL    HW242072  14.108   2.646   5.314
80059SOL     OW42073   2.253   3.263   7.901
80059SOL    HW142074   2.179   3.264   7.840
80059SOL    HW242075   2.211   3.250   7.987
80060SOL     OW42076  10.453   1.548  11.431
80060SOL    HW142077  10.502   1.470  11.458
80060SOL    HW242078  10.464   1.610  11.504
80061SOL     OW42079  11.996  13.396   7.210
80061SOL    HW142080  11.989  13.488   7.185
80061SOL    HW242081  12.088  13.374   7.196
80062SOL     OW42082   8.595   0.402   5.912
80062SOL    HW142083   8.632   0.436   5.830
80062SOL    HW242084   8.504   0.381   5.891
80063SOL     OW42085   5.400  11.631  13.563
80063SOL    HW142086   5.476  11.635  13.622
80063SOL    HW242087   5.436  11.600  13.480
80064SOL     OW42088  12.143   0.202   6.983
80064SOL    HW142089  12.086   0.127   6.967
80064SOL    HW242090  12.083   0.273   7.004
80065SOL     OW42091  10.533   3.240  10.838
80065SOL    HW142092  10.561   3.157  10.875
80065SOL    HW242093  10.447   3.222  10.799
80066SOL     OW42094  11.478   9.761   4.137
80066SOL    HW142095  11.544   9.816   4.094
80066SOL    HW242096  11.419   9.734   4.066
80067SOL     OW42097   2.866   2.418   9.394
80067SOL    HW142098   2.960   2.408   9.408
80067SOL    HW242099   2.857   2.502   9.349
80068SOL     OW42100   3.751  11.950  13.430
80068SOL    HW142101   3.698  12.027  13.411
80068SOL    HW242102   3.827  11.983  13.476
80069SOL     OW42103  11.634   9.608   8.187
80069SOL    HW142104  11.706   9.618   8.250
80069SOL    HW242105  11.647   9.520   8.150
80070SOL     OW42106   7.911   8.300   4.149
80070SOL    HW142107   7.902   8.233   4.082
80070SOL    HW242108   7.824   8.340   4.156
80071SOL     OW42109   5.593   8.550  11.429
80071SOL    HW142110   5.520   8.492  11.410
80071SOL    HW242111   5.647   8.501  11.491
80072SOL     OW42112   4.798   8.787   3.462
80072SOL    HW142113   4.892   8.798   3.448
80072SOL    HW242114   4.789   8.780   3.557
80073SOL     OW42115   8.451   3.951   8.095
80073SOL    HW142116   8.530   3.921   8.049
80073SOL    HW242117   8.452   4.046   8.084
80074SOL     OW42118   9.386   5.056   3.836
80074SOL    HW142119   9.292   5.049   3.823
80074SOL    HW242120   9.397   5.070   3.930
80075SOL     OW42121   2.527   0.310   9.898
80075SOL    HW142122   2.456   0.245   9.899
80075SOL    HW242123   2.607   0.258   9.884
80076SOL     OW42124   4.999   8.766   4.335
80076SOL    HW142125   4.988   8.860   4.341
80076SOL    HW242126   4.958   8.741   4.252
80077SOL     OW42127   9.776   5.558   4.507
80077SOL    HW142128   9.704   5.494   4.511
80077SOL    HW242129   9.793   5.570   4.414
80078SOL     OW42130  11.906  11.422   0.760
80078SOL    HW142131  11.966  11.386   0.695
80078SOL    HW242132  11.819  11.394   0.731
80079SOL     OW42133   2.045   8.837   4.952
80079SOL    HW142134   2.111   8.800   4.893
80079SOL    HW242135   2.082   8.826   5.039
80080SOL     OW42136   6.192   3.931  11.410
80080SOL    HW142137   6.144   3.947  11.329
80080SOL    HW242138   6.157   3.848  11.443
80081SOL     OW42139   7.661   3.252   9.793
80081SOL    HW142140   7.572   3.288   9.787
80081SOL    HW242141   7.714   3.324   9.827
80082SOL     OW42142  11.407   9.266   9.064
80082SOL    HW142143  11.488   9.226   9.032
80082SOL    HW242144  11.428   9.359   9.073
80083SOL     OW42145   2.647  11.498   2.606
80083SOL    HW142146   2.582  11.532   2.667
80083SOL    HW242147   2.616  11.524   2.519
80084SOL     OW42148   9.560   1.837  13.510
80084SOL    HW142149   9.633   1.804  13.458
80084SOL    HW242150   9.592   1.835  13.600
80085SOL     OW42151   4.661   5.699   4.918
80085SOL    HW142152   4.641   5.687   4.825
80085SOL    HW242153   4.627   5.787   4.939
80086SOL     OW42154   9.599   9.958   5.407
80086SOL    HW142155   9.681   9.919   5.377
80086SOL    HW242156   9.599   9.945   5.502
80087SOL     OW42157   2.078   7.910  14.629
80087SOL    HW142158   2.019   7.977  14.593
80087SOL    HW242159   2.136   7.888  14.557
80088SOL     OW42160   8.832   8.846   4.517
80088SOL    HW142161   8.754   8.816   4.563
80088SOL    HW242162   8.899   8.781   4.539
80089SOL     OW42163   6.716   4.417   6.888
80089SOL    HW142164   6.703   4.410   6.983
80089SOL    HW242165   6.811   4.418   6.877
80090SOL     OW42166   1.492   1.498   4.858
80090SOL    HW142167   1.554   1.570   4.858
80090SOL    HW242168   1.414   1.532   4.902
80091SOL     OW42169   2.506   5.918   4.821
80091SOL    HW142170   2.542   5.868   4.894
80091SOL    HW242171   2.414   5.891   4.817
80092SOL     OW42172   2.860  12.734   3.488
80092SOL    HW142173   2.869  12.816   3.535
80092SOL    HW242174   2.889  12.667   3.550
80093SOL     OW42175   2.776   5.229   3.339
80093SOL    HW142176   2.797   5.278   3.419
80093SOL    HW242177   2.833   5.152   3.343
80094SOL     OW42178  13.532   0.220  10.796
80094SOL    HW142179  13.619   0.212  10.758
80094SOL    HW242180  13.548   0.252  10.885
80095SOL     OW42181   1.414  11.824  13.148
80095SOL    HW142182   1.389  11.899  13.202
80095SOL    HW242183   1.344  11.761  13.162
80096SOL     OW42184  12.401  13.146   4.599
80096SOL    HW142185  12.359  13.086   4.537
80096SOL    HW242186  12.328  13.184   4.648
80097SOL     OW42187   5.355   4.676   2.142
80097SOL    HW142188   5.433   4.685   2.087
80097SOL    HW242189   5.380   4.714   2.226
80098SOL     OW42190   3.905   6.469   6.052
80098SOL    HW142191   3.934   6.545   6.002
80098SOL    HW242192   3.974   6.455   6.117
80099SOL     OW42193   0.764   2.209  11.758
80099SOL    HW142194   0.748   2.184  11.666
80099SOL    HW242195   0.842   2.159  11.782
80100SOL     OW42196   5.324  13.802  10.996
80100SOL    HW142197   5.247  13.829  11.046
80100SOL    HW242198   5.329  13.707  11.009
80101SOL     OW42199   2.334   0.700   8.683
80101SOL    HW142200   2.279   0.743   8.748
80101SOL    HW242201   2.278   0.692   8.606
80102SOL     OW42202  10.287   8.554   5.286
80102SOL    HW142203  10.267   8.528   5.196
80102SOL    HW242204  10.336   8.636   5.278
80103SOL     OW42205   5.069   8.663  12.492
80103SOL    HW142206   5.007   8.713  12.438
80103SOL    HW242207   5.151   8.667  12.443
80104SOL     OW42208   3.122   0.717   0.200
80104SOL    HW142209   3.195   0.720   0.262
80104SOL    HW242210   3.053   0.671   0.246
80105SOL     OW42211   7.719  12.661   9.417
80105SOL    HW142212   7.732  12.613   9.498
80105SOL    HW242213   7.718  12.594   9.349
80106SOL     OW42214  10.697   2.604   1.573
80106SOL    HW142215  10.699   2.510   1.593
80106SOL    HW242216  10.752   2.613   1.495
80107SOL     OW42217   5.940  11.270   2.571
80107SOL    HW142218   5.881  11.324   2.623
80107SOL    HW242219   5.887  11.196   2.543
80108SOL     OW42220   7.809  11.736   7.628
80108SOL    HW142221   7.843  11.737   7.718
80108SOL    HW242222   7.834  11.649   7.595
80109SOL     OW42223   4.364  10.714  10.248
80109SOL    HW142224   4.321  10.716  10.333
80109SOL    HW242225   4.457  10.727  10.266
80110SOL     OW42226  13.648   5.159   9.808
80110SOL    HW142227  13.565   5.189   9.769
80110SOL    HW242228  13.623   5.120   9.891
80111SOL     OW42229  14.572   2.233   4.684
80111SOL    HW142230  14.595   2.293   4.754
80111SOL    HW242231  14.476   2.227   4.688
80112SOL     OW42232   9.724  10.442   5.894
80112SOL    HW142233   9.634  10.440   5.863
80112SOL    HW242234   9.725  10.385   5.971
80113SOL     OW42235   6.181   1.115  14.545
80113SOL    HW142236   6.246   1.142  14.611
80113SOL    HW242237   6.211   1.154  14.464
80114SOL     OW42238   6.156  12.633  13.467
80114SOL    HW142239   6.061  12.639  13.474
80114SOL    HW242240   6.173  12.539  13.464
80115SOL     OW42241  11.612   7.750  13.251
80115SOL    HW142242  11.621   7.830  13.304
80115SOL    HW242243  11.597   7.681  13.316
80116SOL     OW42244   4.100   8.793   7.916
80116SOL    HW142245   4.054   8.759   7.839
80116SOL    HW242246   4.187   8.754   7.911
80117SOL     OW42247   3.067   3.981   0.823
80117SOL    HW142248   2.974   3.969   0.839
80117SOL    HW242249   3.083   3.940   0.738
80118SOL     OW42250  13.220   9.583   9.635
80118SOL    HW142251  13.315   9.589   9.649
80118SOL    HW242252  13.204   9.489   9.621
80119SOL     OW42253   0.750   4.314   6.446
80119SOL    HW142254   0.719   4.347   6.362
80119SOL    HW242255   0.841   4.288   6.430
80120SOL     OW42256   7.788  13.357   8.974
80120SOL    HW142257   7.752  13.276   9.008
80120SOL    HW242258   7.786  13.346   8.879
80121SOL     OW42259   9.342   9.693   8.754
80121SOL    HW142260   9.301   9.779   8.753
80121SOL    HW242261   9.428   9.706   8.713
80122SOL     OW42262   2.688  14.230   9.502
80122SOL    HW142263   2.603  14.222   9.543
80122SOL    HW242264   2.746  14.175   9.555
80123SOL     OW42265   5.414   8.996  11.123
80123SOL    HW142266   5.493   9.005  11.069
80123SOL    HW242267   5.344   8.976  11.060
80124SOL     OW42268   8.558   5.393   3.482
80124SOL    HW142269   8.582   5.415   3.572
80124SOL    HW242270   8.582   5.471   3.432
80125SOL     OW42271   4.075  12.273  13.473
80125SOL    HW142272   4.164  12.259  13.441
80125SOL    HW242273   4.030  12.316  13.400
80126SOL     OW42274   8.404  11.337   8.234
80126SOL    HW142275   8.428  11.428   8.220
80126SOL    HW242276   8.410  11.324   8.328
80127SOL     OW42277   7.560  11.730  10.471
80127SOL    HW142278   7.471  11.761  10.483
80127SOL    HW242279   7.551  11.636  10.454
80128SOL     OW42280   7.859  10.312   7.136
80128SOL    HW142281   7.835  10.305   7.044
80128SOL    HW242282   7.925  10.244   7.149
80129SOL     OW42283   3.620   6.826   4.674
80129SOL    HW142284   3.715   6.841   4.665
80129SOL    HW242285   3.581   6.882   4.606
80130SOL     OW42286   1.743   6.657  12.425
80130SOL    HW142287   1.732   6.748  12.452
80130SOL    HW242288   1.795   6.662  12.345
80131SOL     OW42289   3.000   5.612  12.841
80131SOL    HW142290   2.909   5.582  12.840
80131SOL    HW242291   2.999   5.693  12.891
80132SOL     OW42292   2.738  14.570   3.458
80132SOL    HW142293   2.659  14.516   3.465
80132SOL    HW242294   2.774  14.548   3.373
80133SOL     OW42295   4.478  11.541   0.794
80133SOL    HW142296   4.568  11.573   0.796
80133SOL    HW242297   4.462  11.524   0.701
80134SOL     OW42298   9.531   0.694   2.337
80134SOL    HW142299   9.611   0.643   2.325
80134SOL    HW242300   9.539   0.731   2.425
80135SOL     OW42301   2.495   2.994   7.071
80135SOL    HW142302   2.474   2.984   7.164
80135SOL    HW242303   2.590   3.001   7.069
80136SOL     OW42304   1.461   7.693  14.076
80136SOL    HW142305   1.500   7.606  14.072
80136SOL    HW242306   1.382   7.686  14.023
80137SOL     OW42307   5.719  12.908   6.283
80137SOL    HW142308   5.756  12.833   6.329
80137SOL    HW242309   5.696  12.969   6.353
80138SOL     OW42310   4.834   3.114   8.976
80138SOL    HW142311   4.819   3.126   8.882
80138SOL    HW242312   4.809   3.023   8.992
80139SOL     OW42313   8.434  11.829  13.516
80139SOL    HW142314   8.374  11.898  13.542
80139SOL    HW242315   8.472  11.859  13.434
80140SOL     OW42316  11.264   2.813   2.879
80140SOL    HW142317  11.307   2.844   2.799
80140SOL    HW242318  11.176   2.849   2.874
80141SOL     OW42319   5.764   8.158  12.282
80141SOL    HW142320   5.811   8.240  12.302
80141SOL    HW242321   5.832   8.090  12.287
80142SOL     OW42322   9.747  12.268  12.882
80142SOL    HW142323   9.689  12.201  12.846
80142SOL    HW242324   9.829  12.258  12.834
80143SOL     OW42325   4.249  14.117   4.973
80143SOL    HW142326   4.202  14.194   4.940
80143SOL    HW242327   4.205  14.095   5.055
80144SOL     OW42328   4.342  14.015   9.247
80144SOL    HW142329   4.326  14.035   9.339
80144SOL    HW242330   4.363  13.921   9.246
80145SOL     OW42331  13.267  14.736  11.097
80145SOL    HW142332  13.309  14.748  11.183
80145SOL    HW242333  13.235  14.646  11.098
80146SOL     OW42334  12.014   7.095   6.409
80146SOL    HW142335  12.015   7.186   6.378
80146SOL    HW242336  11.961   7.049   6.344
80147SOL     OW42337   7.266   0.278   7.069
80147SOL    HW142338   7.266   0.235   7.155
80147SOL    HW242339   7.300   0.366   7.087
80148SOL     OW42340   8.891   3.879   8.106
80148SOL    HW142341   8.804   3.872   8.146
80148SOL    HW242342   8.884   3.830   8.024
80149SOL     OW42343   6.007   3.586  11.724
80149SOL    HW142344   6.051   3.586  11.809
80149SOL    HW242345   5.918   3.556  11.742
80150SOL     OW42346   0.246  14.451  14.790
80150SOL    HW142347   0.175  14.515  14.783
80150SOL    HW242348   0.231  14.406   0.001
80151SOL     OW42349   3.606   3.186  11.349
80151SOL    HW142350   3.550   3.189  11.271
80151SOL    HW242351   3.661   3.109  11.336
80152SOL     OW42352  12.385   6.808   8.983
80152SOL    HW142353  12.367   6.862   9.060
80152SOL    HW242354  12.350   6.859   8.910
80153SOL     OW42355   1.174   2.149  10.873
80153SOL    HW142356   1.262   2.136  10.838
80153SOL    HW242357   1.183   2.221  10.935
80154SOL     OW42358   7.633  13.822  12.067
80154SOL    HW142359   7.720  13.790  12.089
80154SOL    HW242360   7.630  13.911  12.102
80155SOL     OW42361  12.127  13.620   3.173
80155SOL    HW142362  12.122  13.698   3.118
80155SOL    HW242363  12.181  13.646   3.247
80156SOL     OW42364  11.614   9.100   5.475
80156SOL    HW142365  11.585   9.182   5.516
80156SOL    HW242366  11.656   9.052   5.546
80157SOL     OW42367  13.851   9.972  10.750
80157SOL    HW142368  13.822  10.013  10.669
80157SOL    HW242369  13.882   9.886  10.724
80158SOL     OW42370   0.501   7.094   9.779
80158SOL    HW142371   0.562   7.147   9.831
80158SOL    HW242372   0.551   7.070   9.700
80159SOL     OW42373   4.202  14.550  12.978
80159SOL    HW142374   4.191  14.501  13.060
80159SOL    HW242375   4.272  14.504  12.932
80160SOL     OW42376  14.414   2.632  11.069
80160SOL    HW142377  14.410   2.658  11.161
80160SOL    HW242378  14.350   2.689  11.026
80161SOL     OW42379   2.272   9.472   4.208
80161SOL    HW142380   2.211   9.451   4.137
80161SOL    HW242381   2.228   9.541   4.258
80162SOL     OW42382   3.293  12.063   5.189
80162SOL    HW142383   3.341  12.003   5.132
80162SOL    HW242384   3.351  12.078   5.264
80163SOL     OW42385   3.328   5.095  12.692
80163SOL    HW142386   3.359   5.106  12.602
80163SOL    HW242387   3.384   5.153  12.744
80164SOL     OW42388   7.167   8.598  12.884
80164SOL    HW142389   7.202   8.546  12.957
80164SOL    HW242390   7.243   8.647  12.852
80165SOL     OW42391   2.827   0.498  10.129
80165SOL    HW142392   2.825   0.403  10.125
80165SOL    HW242393   2.760   0.521  10.193
80166SOL     OW42394  10.818   6.014   5.661
80166SOL    HW142395  10.898   6.045   5.618
80166SOL    HW242396  10.756   6.087   5.651
80167SOL     OW42397   4.388   2.097   6.185
80167SOL    HW142398   4.433   2.157   6.126
80167SOL    HW242399   4.364   2.023   6.131
80168SOL     OW42400  11.264   4.000   6.194
80168SOL    HW142401  11.305   4.074   6.149
80168SOL    HW242402  11.331   3.966   6.253
80169SOL     OW42403   4.368   1.077   8.009
80169SOL    HW142404   4.342   1.125   7.931
80169SOL    HW242405   4.308   1.106   8.077
80170SOL     OW42406  12.420   8.295   7.155
80170SOL    HW142407  12.487   8.359   7.177
80170SOL    HW242408  12.383   8.326   7.072
80171SOL     OW42409  12.286   0.651   0.824
80171SOL    HW142410  12.354   0.704   0.781
80171SOL    HW242411  12.317   0.642   0.914
80172SOL     OW42412  14.746  13.093   6.115
80172SOL    HW142413  14.682  13.031   6.148
80172SOL    HW242414  14.716  13.114   6.027
80173SOL     OW42415   3.209   1.371   8.216
80173SOL    HW142416   3.120   1.339   8.203
80173SOL    HW242417   3.199   1.458   8.254
80174SOL     OW42418  10.902   9.305   1.498
80174SOL    HW142419  10.979   9.357   1.476
80174SOL    HW242420  10.851   9.302   1.417
80175SOL     OW42421   8.092   6.161  13.590
80175SOL    HW142422   8.046   6.212  13.656
80175SOL    HW242423   8.101   6.074  13.629
80176SOL     OW42424  13.417   9.214  10.851
80176SOL    HW142425  13.388   9.192  10.763
80176SOL    HW242426  13.496   9.267  10.838
80177SOL     OW42427   5.806   9.393   5.056
80177SOL    HW142428   5.765   9.378   5.141
80177SOL    HW242429   5.866   9.466   5.072
80178SOL     OW42430  13.987  10.379   3.877
80178SOL    HW142431  13.921  10.323   3.917
80178SOL    HW242432  14.026  10.324   3.808
80179SOL     OW42433   3.416   1.851   5.702
80179SOL    HW142434   3.447   1.861   5.792
80179SOL    HW242435   3.468   1.779   5.667
80180SOL     OW42436  10.141  11.506   9.714
80180SOL    HW142437  10.186  11.578   9.670
80180SOL    HW242438  10.065  11.547   9.755
80181SOL     OW42439   6.380   5.112  12.833
80181SOL    HW142440   6.382   5.090  12.739
80181SOL    HW242441   6.440   5.049  12.873
80182SOL     OW42442   8.877  10.379   3.571
80182SOL    HW142443   8.830  10.410   3.494
80182SOL    HW242444   8.820  10.312   3.609
80183SOL     OW42445   2.192   5.761   6.617
80183SOL    HW142446   2.097   5.770   6.622
80183SOL    HW242447   2.225   5.836   6.666
80184SOL     OW42448   6.358  14.481  12.970
80184SOL    HW142449   6.347  14.572  12.943
80184SOL    HW242450   6.421  14.444  12.908
80185SOL     OW42451   9.977   7.093   0.282
80185SOL    HW142452   9.938   7.105   0.195
80185SOL    HW242453  10.043   7.024   0.270
80186SOL     OW42454   3.789  14.487   9.613
80186SOL    HW142455   3.700  14.521   9.620
80186SOL    HW242456   3.795  14.453   9.523
80187SOL     OW42457   4.650   3.501   0.559
80187SOL    HW142458   4.581   3.437   0.545
80187SOL    HW242459   4.607   3.586   0.547
80188SOL     OW42460   8.012   8.020   6.414
80188SOL    HW142461   7.953   8.093   6.432
80188SOL    HW242462   8.044   7.994   6.501
80189SOL     OW42463  10.120   8.838   5.037
80189SOL    HW142464  10.117   8.870   4.947
80189SOL    HW242465  10.171   8.758   5.032
80190SOL     OW42466   2.027   3.382   1.277
80190SOL    HW142467   2.112   3.426   1.270
80190SOL    HW242468   2.048   3.290   1.296
80191SOL     OW42469   4.776   9.034   3.739
80191SOL    HW142470   4.848   8.976   3.764
80191SOL    HW242471   4.819   9.118   3.720
80192SOL     OW42472  14.250  13.952  13.888
80192SOL    HW142473  14.312  14.005  13.838
80192SOL    HW242474  14.276  13.861  13.870
80193SOL     OW42475   0.771   8.314  13.605
80193SOL    HW142476   0.768   8.274  13.518
80193SOL    HW242477   0.692   8.283  13.649
80194SOL     OW42478  14.278   1.677   0.635
80194SOL    HW142479  14.355   1.734   0.634
80194SOL    HW242480  14.208   1.733   0.602
80195SOL     OW42481   8.702   6.089  13.513
80195SOL    HW142482   8.758   6.153  13.470
80195SOL    HW242483   8.722   6.006  13.469
80196SOL     OW42484  10.363   0.457   0.871
80196SOL    HW142485  10.377   0.384   0.931
80196SOL    HW242486  10.423   0.440   0.798
80197SOL     OW42487  12.482  12.039  12.116
80197SOL    HW142488  12.465  12.050  12.023
80197SOL    HW242489  12.408  11.986  12.147
80198SOL     OW42490  13.152  11.914   3.892
80198SOL    HW142491  13.135  11.820   3.887
80198SOL    HW242492  13.187  11.927   3.981
80199SOL     OW42493   6.888   1.408   1.755
80199SOL    HW142494   6.928   1.416   1.841
80199SOL    HW242495   6.798   1.436   1.766
80200SOL     OW42496   6.132   9.016  11.086
80200SOL    HW142497   6.199   8.958  11.122
80200SOL    HW242498   6.089   9.053  11.164
80201SOL     OW42499   3.727   5.548   1.401
80201SOL    HW142500   3.786   5.613   1.363
80201SOL    HW242501   3.764   5.530   1.487
80202SOL     OW42502   1.100   3.889   3.150
80202SOL    HW142503   1.058   3.972   3.132
80202SOL    HW242504   1.113   3.849   3.064
80203SOL     OW42505   6.576  10.727   7.763
80203SOL    HW142506   6.653  10.687   7.802
80203SOL    HW242507   6.548  10.665   7.696
80204SOL     OW42508   2.475   6.709  12.925
80204SOL    HW142509   2.566   6.685  12.909
80204SOL    HW242510   2.424   6.644  12.878
80205SOL     OW42511  11.105  12.264   9.919
80205SOL    HW142512  11.052  12.307   9.986
80205SOL    HW242513  11.048  12.258   9.843
80206SOL     OW42514   7.416  14.576  13.610
80206SOL    HW142515   7.373  14.614  13.533
80206SOL    HW242516   7.350  14.519  13.649
80207SOL     OW42517   9.160   0.401   9.776
80207SOL    HW142518   9.083   0.365   9.822
80207SOL    HW242519   9.123   0.451   9.703
80208SOL     OW42520   4.799  14.577  12.478
80208SOL    HW142521   4.736  14.508  12.499
80208SOL    HW242522   4.836  14.601  12.563
80209SOL     OW42523   9.006   8.266   0.458
80209SOL    HW142524   9.005   8.181   0.502
80209SOL    HW242525   9.097   8.295   0.465
80210SOL     OW42526   4.989   2.380  13.203
80210SOL    HW142527   4.900   2.385  13.169
80210SOL    HW242528   4.980   2.342  13.291
80211SOL     OW42529  10.601  13.430   0.866
80211SOL    HW142530  10.635  13.471   0.787
80211SOL    HW242531  10.520  13.386   0.838
80212SOL     OW42532  10.833   5.786  12.083
80212SOL    HW142533  10.864   5.702  12.116
80212SOL    HW242534  10.769   5.763  12.015
80213SOL     OW42535  12.691   4.723   0.945
80213SOL    HW142536  12.602   4.727   0.981
80213SOL    HW242537  12.679   4.707   0.851
80214SOL     OW42538  10.289  10.856   6.331
80214SOL    HW142539  10.350  10.855   6.406
80214SOL    HW242540  10.220  10.794   6.356
80215SOL     OW42541  12.324   7.409   1.669
80215SOL    HW142542  12.359   7.319   1.669
80215SOL    HW242543  12.310   7.429   1.576
80216SOL     OW42544   3.519   2.320   8.361
80216SOL    HW142545   3.573   2.295   8.436
80216SOL    HW242546   3.570   2.291   8.285
80217SOL     OW42547   0.809   1.118   0.577
80217SOL    HW142548   0.800   1.028   0.546
80217SOL    HW242549   0.786   1.114   0.670
80218SOL     OW42550   4.304  13.941   1.658
80218SOL    HW142551   4.229  14.000   1.666
80218SOL    HW242552   4.344  13.939   1.745
80219SOL     OW42553   5.188   6.441   8.047
80219SOL    HW142554   5.207   6.527   8.010
80219SOL    HW242555   5.145   6.393   7.977
80220SOL     OW42556  12.664  14.727   4.452
80220SOL    HW142557  12.581  14.721   4.500
80220SOL    HW242558  12.674  14.821   4.435
80221SOL     OW42559   3.678  14.801   7.535
80221SOL    HW142560   3.667  14.834   7.624
80221SOL    HW242561   3.629  14.719   7.533
80222SOL     OW42562   7.141  13.739  10.974
80222SOL    HW142563   7.222  13.696  10.947
80222SOL    HW242564   7.133  13.814  10.915
80223SOL     OW42565  14.224  11.322   3.347
80223SOL    HW142566  14.298  11.318   3.287
80223SOL    HW242567  14.151  11.287   3.296
80224SOL     OW42568   8.642   9.337  11.060
80224SOL    HW142569   8.694   9.333  10.980
80224SOL    HW242570   8.551   9.339  11.030
80225SOL     OW42571  13.561   8.090   4.728
80225SOL    HW142572  13.600   8.087   4.815
80225SOL    HW242573  13.467   8.090   4.744
80226SOL     OW42574   2.317  13.557   9.856
80226SOL    HW142575   2.239  13.610   9.868
80226SOL    HW242576   2.312  13.526   9.765
80227SOL     OW42577   1.475   5.802   5.811
80227SOL    HW142578   1.407   5.849   5.761
80227SOL    HW242579   1.458   5.826   5.902
80228SOL     OW42580   6.945   7.249   8.990
80228SOL    HW142581   7.032   7.275   9.022
80228SOL    HW242582   6.886   7.275   9.060
80229SOL     OW42583   7.536   0.903   6.744
80229SOL    HW142584   7.485   0.976   6.779
80229SOL    HW242585   7.624   0.916   6.781
80230SOL     OW42586   6.544   3.477   3.683
80230SOL    HW142587   6.589   3.561   3.683
80230SOL    HW242588   6.483   3.483   3.756
80231SOL     OW42589   6.682   8.663  10.760
80231SOL    HW142590   6.598   8.630  10.793
80231SOL    HW242591   6.668   8.757  10.749
80232SOL     OW42592  13.045  10.353  14.434
80232SOL    HW142593  13.133  10.371  14.399
80232SOL    HW242594  13.003  10.301  14.366
80233SOL     OW42595   3.236   2.473   2.895
80233SOL    HW142596   3.236   2.568   2.897
80233SOL    HW242597   3.155   2.447   2.938
80234SOL     OW42598   4.396   9.196  11.201
80234SOL    HW142599   4.324   9.193  11.137
80234SOL    HW242600   4.468   9.239  11.155
80235SOL     OW42601   4.682   5.257  10.478
80235SOL    HW142602   4.678   5.294  10.566
80235SOL    HW242603   4.683   5.163  10.492
80236SOL     OW42604  12.246   9.473   5.772
80236SOL    HW142605  12.332   9.460   5.733
80236SOL    HW242606  12.250   9.428   5.856
80237SOL     OW42607   8.895   7.202   2.575
80237SOL    HW142608   8.803   7.223   2.558
80237SOL    HW242609   8.944   7.270   2.530
80238SOL     OW42610  13.800   6.076   2.083
80238SOL    HW142611  13.770   6.098   2.171
80238SOL    HW242612  13.753   6.136   2.026
80239SOL     OW42613   5.769  12.510  14.268
80239SOL    HW142614   5.710  12.577  14.303
80239SOL    HW242615   5.775  12.530  14.175
80240SOL     OW42616   9.905   1.870  11.712
80240SOL    HW142617   9.835   1.886  11.649
80240SOL    HW242618   9.887   1.930  11.784
80241SOL     OW42619   8.659  14.518   4.533
80241SOL    HW142620   8.602  14.589   4.563
80241SOL    HW242621   8.715  14.499   4.608
80242SOL     OW42622  12.242   8.797   8.457
80242SOL    HW142623  12.233   8.798   8.361
80242SOL    HW242624  12.163   8.754   8.488
80243SOL     OW42625   8.457   0.770   8.430
80243SOL    HW142626   8.492   0.859   8.424
80243SOL    HW242627   8.429   0.761   8.521
80244SOL     OW42628  13.944   7.532   2.807
80244SOL    HW142629  13.911   7.611   2.765
80244SOL    HW242630  13.987   7.563   2.886
80245SOL     OW42631   0.022   2.040  11.763
80245SOL    HW142632  14.843   2.041  11.681
80245SOL    HW242633   0.110   2.066  11.737
80246SOL     OW42634   9.173   6.491  12.032
80246SOL    HW142635   9.103   6.453  11.979
80246SOL    HW242636   9.151   6.466  12.122
80247SOL     OW42637  10.064  14.321  11.329
80247SOL    HW142638  10.029  14.290  11.412
80247SOL    HW242639  10.075  14.241  11.277
80248SOL     OW42640   3.345   4.758  10.416
80248SOL    HW142641   3.319   4.792  10.502
80248SOL    HW242642   3.275   4.786  10.357
80249SOL     OW42643  12.232   0.170   3.138
80249SOL    HW142644  12.225   0.191   3.231
80249SOL    HW242645  12.319   0.199   3.112
80250SOL     OW42646   8.866  14.180   5.629
80250SOL    HW142647   8.949  14.214   5.596
80250SOL    HW242648   8.839  14.115   5.564
80251SOL     OW42649  12.642   0.925  11.147
80251SOL    HW142650  12.552   0.923  11.115
80251SOL    HW242651  12.679   1.006  11.113
80252SOL     OW42652   0.053   4.436   5.821
80252SOL    HW142653   0.048   4.340   5.815
80252SOL    HW242654  14.852   4.459   5.879
80253SOL     OW42655   0.518  12.880  11.817
80253SOL    HW142656   0.498  12.949  11.753
80253SOL    HW242657   0.607  12.899  11.846
80254SOL     OW42658   6.196  13.243   1.039
80254SOL    HW142659   6.124  13.304   1.020
80254SOL    HW242660   6.178  13.167   0.984
80255SOL     OW42661  10.128  11.161   5.108
80255SOL    HW142662  10.096  11.109   5.034
80255SOL    HW242663  10.088  11.247   5.095
80256SOL     OW42664   0.490   9.950  11.630
80256SOL    HW142665   0.460   9.874  11.679
80256SOL    HW242666   0.510   9.917  11.542
80257SOL     OW42667   2.720  12.338  13.250
80257SOL    HW142668   2.654  12.287  13.296
80257SOL    HW242669   2.793  12.278  13.238
80258SOL     OW42670  13.041  10.436   5.758
80258SOL    HW142671  13.093  10.395   5.827
80258SOL    HW242672  13.048  10.530   5.775
80259SOL     OW42673  13.203   8.895  13.581
80259SOL    HW142674  13.108   8.900  13.566
80259SOL    HW242675  13.241   8.947  13.510
80260SOL     OW42676  11.391  12.803   6.018
80260SOL    HW142677  11.405  12.709   6.009
80260SOL    HW242678  11.303  12.810   6.056
80261SOL     OW42679   9.217   5.324   0.320
80261SOL    HW142680   9.135   5.281   0.296
80261SOL    HW242681   9.204   5.352   0.411
80262SOL     OW42682   0.881   1.221  13.213
80262SOL    HW142683   0.878   1.316  13.222
80262SOL    HW242684   0.949   1.204  13.148
80263SOL     OW42685   0.756   7.997   1.620
80263SOL    HW142686   0.703   7.941   1.562
80263SOL    HW242687   0.791   7.937   1.685
80264SOL     OW42688   2.211  10.698   5.467
80264SOL    HW142689   2.278  10.759   5.499
80264SOL    HW242690   2.187  10.731   5.381
80265SOL     OW42691  13.468   0.403   7.132
80265SOL    HW142692  13.408   0.340   7.172
80265SOL    HW242693  13.411   0.469   7.093
80266SOL     OW42694   7.417   6.117   6.574
80266SOL    HW142695   7.508   6.143   6.587
80266SOL    HW242696   7.374   6.137   6.658
80267SOL     OW42697   6.766   5.218  14.633
80267SOL    HW142698   6.763   5.230  14.728
80267SOL    HW242699   6.674   5.218  14.606
80268SOL     OW42700   8.041   5.586  12.925
80268SOL    HW142701   7.947   5.604  12.915
80268SOL    HW242702   8.069   5.560  12.837
80269SOL     OW42703   4.060   0.523   8.099
80269SOL    HW142704   4.125   0.540   8.167
80269SOL    HW242705   3.978   0.556   8.135
80270SOL     OW42706   2.231  14.040   5.964
80270SOL    HW142707   2.192  13.959   5.930
80270SOL    HW242708   2.290  14.011   6.034
80271SOL     OW42709   8.219   0.724   8.679
80271SOL    HW142710   8.201   0.640   8.637
80271SOL    HW242711   8.157   0.784   8.640
80272SOL     OW42712  11.874   1.931  10.404
80272SOL    HW142713  11.819   1.911  10.329
80272SOL    HW242714  11.813   1.937  10.478
80273SOL     OW42715   9.991   7.956   9.692
80273SOL    HW142716   9.938   7.987   9.765
80273SOL    HW242717   9.943   7.982   9.614
80274SOL     OW42718  13.823  14.814   8.968
80274SOL    HW142719  13.878  14.737   8.979
80274SOL    HW242720  13.758  14.788   8.903
80275SOL     OW42721   6.455   6.110   3.718
80275SOL    HW142722   6.452   6.188   3.775
80275SOL    HW242723   6.441   6.145   3.630
80276SOL     OW42724   8.316   0.367   9.728
80276SOL    HW142725   8.406   0.399   9.737
80276SOL    HW242726   8.264   0.447   9.718
80277SOL     OW42727  12.874   7.481   6.816
80277SOL    HW142728  12.949   7.422   6.811
80277SOL    HW242729  12.799   7.424   6.797
80278SOL     OW42730   5.431  12.674  13.670
80278SOL    HW142731   5.425  12.746  13.732
80278SOL    HW242732   5.421  12.595  13.724
80279SOL     OW42733   7.743   8.608   1.603
80279SOL    HW142734   7.831   8.606   1.565
80279SOL    HW242735   7.708   8.694   1.578
80280SOL     OW42736   4.967   1.058  12.600
80280SOL    HW142737   4.941   1.094  12.515
80280SOL    HW242738   4.977   0.964  12.583
80281SOL     OW42739   9.213  10.251  11.945
80281SOL    HW142740   9.127  10.210  11.957
80281SOL    HW242741   9.236  10.284  12.032
80282SOL     OW42742   0.115   3.289  11.323
80282SOL    HW142743   0.033   3.336  11.337
80282SOL    HW242744   0.127   3.288  11.228
80283SOL     OW42745   0.579  10.124  10.491
80283SOL    HW142746   0.609  10.209  10.521
80283SOL    HW242747   0.525  10.090  10.563
80284SOL     OW42748   5.828  13.414  13.100
80284SOL    HW142749   5.740  13.449  13.110
80284SOL    HW242750   5.816  13.328  13.058
80285SOL     OW42751   2.420  13.126   3.809
80285SOL    HW142752   2.488  13.061   3.800
80285SOL    HW242753   2.361  13.092   3.877
80286SOL     OW42754  10.603   8.644   9.652
80286SOL    HW142755  10.555   8.561   9.653
80286SOL    HW242756  10.679   8.626   9.597
80287SOL     OW42757   8.729  10.715   8.111
80287SOL    HW142758   8.759  10.632   8.075
80287SOL    HW242759   8.752  10.710   8.204
80288SOL     OW42760   9.098   2.531   5.482
80288SOL    HW142761   9.114   2.456   5.424
80288SOL    HW242762   9.111   2.496   5.570
80289SOL     OW42763   1.736  10.432  13.297
80289SOL    HW142764   1.805  10.441  13.231
80289SOL    HW242765   1.777  10.383  13.368
80290SOL     OW42766  13.330   3.782   6.444
80290SOL    HW142767  13.401   3.719   6.432
80290SOL    HW242768  13.251   3.729   6.449
80291SOL     OW42769   1.529   5.239   5.502
80291SOL    HW142770   1.550   5.266   5.412
80291SOL    HW242771   1.558   5.148   5.507
80292SOL     OW42772  10.985  11.561   6.102
80292SOL    HW142773  11.042  11.634   6.077
80292SOL    HW242774  10.958  11.582   6.192
80293SOL     OW42775  10.524  10.593   0.594
80293SOL    HW142776  10.486  10.513   0.632
80293SOL    HW242777  10.511  10.583   0.500
80294SOL     OW42778   4.277   2.394  13.542
80294SOL    HW142779   4.195   2.437  13.520
80294SOL    HW242780   4.251   2.312  13.584
80295SOL     OW42781   6.674   4.793   5.130
80295SOL    HW142782   6.669   4.888   5.138
80295SOL    HW242783   6.665   4.761   5.220
80296SOL     OW42784  14.094   5.433   4.632
80296SOL    HW142785  14.182   5.470   4.631
80296SOL    HW242786  14.050   5.473   4.556
80297SOL     OW42787   3.744   3.953   6.102
80297SOL    HW142788   3.701   3.972   6.019
80297SOL    HW242789   3.804   4.026   6.115
80298SOL     OW42790  12.048   1.295  11.046
80298SOL    HW142791  12.131   1.337  11.025
80298SOL    HW242792  11.990   1.318  10.975
80299SOL     OW42793  10.849   1.143   3.255
80299SOL    HW142794  10.878   1.052   3.252
80299SOL    HW242795  10.929   1.194   3.261
80300SOL     OW42796   6.479  10.824   0.377
80300SOL    HW142797   6.516  10.764   0.313
80300SOL    HW242798   6.481  10.776   0.459
80301SOL     OW42799   2.220  14.152   7.296
80301SOL    HW142800   2.285  14.189   7.356
80301SOL    HW242801   2.209  14.219   7.229
80302SOL     OW42802   3.709  14.140   2.451
80302SOL    HW142803   3.766  14.063   2.448
80302SOL    HW242804   3.682  14.154   2.360
80303SOL     OW42805   2.639  11.359   6.143
80303SOL    HW142806   2.722  11.340   6.186
80303SOL    HW242807   2.592  11.414   6.206
80304SOL     OW42808   0.223   3.517  10.974
80304SOL    HW142809   0.176   3.433  10.973
80304SOL    HW242810   0.271   3.516  11.057
80305SOL     OW42811   2.022   9.797  10.963
80305SOL    HW142812   2.112   9.828  10.961
80305SOL    HW242813   1.973   9.863  10.913
80306SOL     OW42814  14.287   3.642   1.510
80306SOL    HW142815  14.349   3.676   1.574
80306SOL    HW242816  14.265   3.718   1.455
80307SOL     OW42817   6.556   2.346   4.336
80307SOL    HW142818   6.520   2.323   4.250
80307SOL    HW242819   6.624   2.281   4.352
80308SOL     OW42820  10.042   2.633   4.100
80308SOL    HW142821   9.960   2.584   4.099
80308SOL    HW242822  10.023   2.713   4.051
80309SOL     OW42823  14.828   2.006  14.249
80309SOL    HW142824  14.786   1.988  14.333
80309SOL    HW242825  14.782   1.950  14.187
80310SOL     OW42826   3.320  13.428   2.679
80310SOL    HW142827   3.283  13.471   2.602
80310SOL    HW242828   3.329  13.336   2.652
80311SOL     OW42829   5.586   7.599  10.632
80311SOL    HW142830   5.491   7.591  10.636
80311SOL    HW242831   5.608   7.585  10.539
80312SOL     OW42832   1.746   4.949  11.415
80312SOL    HW142833   1.674   4.958  11.477
80312SOL    HW242834   1.825   4.953  11.469
80313SOL     OW42835   7.146  12.253   8.704
80313SOL    HW142836   7.122  12.229   8.615
80313SOL    HW242837   7.066  12.240   8.755
80314SOL     OW42838  13.341  13.050   9.667
80314SOL    HW142839  13.331  13.077   9.758
80314SOL    HW242840  13.308  13.124   9.616
80315SOL     OW42841  10.871   2.483   3.879
80315SOL    HW142842  10.835   2.485   3.968
80315SOL    HW242843  10.961   2.516   3.889
80316SOL     OW42844   9.541  11.830  14.441
80316SOL    HW142845   9.604  11.760  14.452
80316SOL    HW242846   9.488  11.804  14.366
80317SOL     OW42847   0.411  14.291   5.211
80317SOL    HW142848   0.419  14.383   5.183
80317SOL    HW242849   0.467  14.243   5.150
80318SOL     OW42850   4.385   2.348   0.826
80318SOL    HW142851   4.299   2.320   0.793
80318SOL    HW242852   4.389   2.314   0.915
80319SOL     OW42853  12.583  11.552   1.462
80319SOL    HW142854  12.555  11.641   1.439
80319SOL    HW242855  12.553  11.498   1.389
80320SOL     OW42856   3.058  12.006   4.947
80320SOL    HW142857   3.150  12.028   4.964
80320SOL    HW242858   3.038  11.939   5.013
80321SOL     OW42859   4.701  10.861  14.779
80321SOL    HW142860   4.622  10.907  14.806
80321SOL    HW242861   4.751  10.849  14.860
80322SOL     OW42862   3.657   0.857  10.770
80322SOL    HW142863   3.620   0.857  10.858
80322SOL    HW242864   3.708   0.938  10.765
80323SOL     OW42865  10.755   7.726  11.980
80323SOL    HW142866  10.789   7.777  12.054
80323SOL    HW242867  10.827   7.667  11.957
80324SOL     OW42868   0.769   5.066  10.766
80324SOL    HW142869   0.780   5.160  10.753
80324SOL    HW242870   0.818   5.026  10.694
80325SOL     OW42871   6.870   4.801   8.463
80325SOL    HW142872   6.940   4.799   8.528
80325SOL    HW242873   6.793   4.768   8.510
80326SOL     OW42874   3.858  13.416   0.804
80326SOL    HW142875   3.927  13.453   0.749
80326SOL    HW242876   3.845  13.480   0.873
80327SOL     OW42877  13.157   9.916  11.618
80327SOL    HW142878  13.191   9.998  11.583
80327SOL    HW242879  13.193   9.911  11.707
80328SOL     OW42880  10.381   2.731   3.410
80328SOL    HW142881  10.415   2.780   3.335
80328SOL    HW242882  10.410   2.781   3.486
80329SOL     OW42883  11.728   1.735   6.482
80329SOL    HW142884  11.723   1.823   6.443
80329SOL    HW242885  11.734   1.677   6.406
80330SOL     OW42886   9.244  12.525   4.103
80330SOL    HW142887   9.303  12.550   4.033
80330SOL    HW242888   9.246  12.598   4.165
80331SOL     OW42889   9.506   7.057   9.100
80331SOL    HW142890   9.553   7.139   9.118
80331SOL    HW242891   9.478   7.065   9.009
80332SOL     OW42892   0.235   5.217  11.961
80332SOL    HW142893   0.316   5.191  11.917
80332SOL    HW242894   0.178   5.140  11.954
80333SOL     OW42895   3.073  11.288   3.367
80333SOL    HW142896   3.134  11.359   3.390
80333SOL    HW242897   3.017  11.280   3.443
80334SOL     OW42898   2.766   2.461   4.303
80334SOL    HW142899   2.716   2.454   4.384
80334SOL    HW242900   2.761   2.554   4.280
80335SOL     OW42901   2.757  12.861   7.538
80335SOL    HW142902   2.847  12.843   7.567
80335SOL    HW242903   2.733  12.784   7.486
80336SOL     OW42904   5.564   5.440   0.308
80336SOL    HW142905   5.552   5.438   0.213
80336SOL    HW242906   5.518   5.519   0.337
80337SOL     OW42907   3.226   5.395  12.612
80337SOL    HW142908   3.277   5.324  12.573
80337SOL    HW242909   3.279   5.424  12.686
80338SOL     OW42910   9.941  13.887  14.272
80338SOL    HW142911   9.910  13.972  14.242
80338SOL    HW242912   9.944  13.894  14.367
80339SOL     OW42913   7.479  12.953   6.846
80339SOL    HW142914   7.470  13.039   6.805
80339SOL    HW242915   7.450  12.891   6.778
80340SOL     OW42916   1.241   1.025  14.718
80340SOL    HW142917   1.294   0.949  14.692
80340SOL    HW242918   1.179   1.037  14.646
80341SOL     OW42919   1.009   3.694  14.191
80341SOL    HW142920   0.943   3.757  14.163
80341SOL    HW242921   0.976   3.659  14.274
80342SOL     OW42922  11.356   2.835   6.125
80342SOL    HW142923  11.275   2.786   6.116
80342SOL    HW242924  11.407   2.786   6.190
80343SOL     OW42925   0.982   0.481   5.602
80343SOL    HW142926   0.961   0.512   5.514
80343SOL    HW242927   1.075   0.457   5.596
80344SOL     OW42928  14.351   4.601   7.225
80344SOL    HW142929  14.340   4.685   7.181
80344SOL    HW242930  14.416   4.618   7.293
80345SOL     OW42931   6.793  13.333   6.689
80345SOL    HW142932   6.734  13.288   6.629
80345SOL    HW242933   6.873  13.347   6.639
80346SOL     OW42934   0.178   2.764  13.462
80346SOL    HW142935   0.203   2.673  13.477
80346SOL    HW242936   0.098   2.777  13.513
80347SOL     OW42937   8.796   4.192   6.466
80347SOL    HW142938   8.759   4.206   6.554
80347SOL    HW242939   8.865   4.258   6.459
80348SOL     OW42940  12.013   0.476   4.232
80348SOL    HW142941  12.047   0.562   4.210
80348SOL    HW242942  12.010   0.475   4.328
80349SOL     OW42943   3.146  13.313   0.107
80349SOL    HW142944   3.100  13.283   0.028
80349SOL    HW242945   3.239  13.304   0.084
80350SOL     OW42946   1.395   0.658   2.920
80350SOL    HW142947   1.454   0.715   2.871
80350SOL    HW242948   1.451   0.586   2.951
80351SOL     OW42949  14.392   4.066  14.151
80351SOL    HW142950  14.342   4.024  14.081
80351SOL    HW242951  14.483   4.065  14.119
80352SOL     OW42952   5.478   5.754   7.184
80352SOL    HW142953   5.464   5.841   7.148
80352SOL    HW242954   5.397   5.733   7.229
80353SOL     OW42955  11.178   1.532   3.281
80353SOL    HW142956  11.259   1.514   3.232
80353SOL    HW242957  11.206   1.591   3.352
80354SOL     OW42958   1.759  12.104  11.131
80354SOL    HW142959   1.754  12.148  11.216
80354SOL    HW242960   1.693  12.035  11.136
80355SOL     OW42961   7.354  13.662   7.966
80355SOL    HW142962   7.309  13.747   7.967
80355SOL    HW242963   7.318  13.617   7.890
80356SOL     OW42964   7.144   4.071  13.628
80356SOL    HW142965   7.049   4.076  13.620
80356SOL    HW242966   7.169   4.154  13.668
80357SOL     OW42967   7.645   7.781   0.120
80357SOL    HW142968   7.570   7.772   0.062
80357SOL    HW242969   7.716   7.735   0.075
80358SOL     OW42970   2.397   2.555  13.089
80358SOL    HW142971   2.470   2.558  13.150
80358SOL    HW242972   2.378   2.646  13.068
80359SOL     OW42973   5.834  13.185  11.104
80359SOL    HW142974   5.908  13.134  11.136
80359SOL    HW242975   5.782  13.203  11.182
80360SOL     OW42976  13.713   9.396   4.522
80360SOL    HW142977  13.715   9.441   4.437
80360SOL    HW242978  13.805   9.375   4.540
80361SOL     OW42979   8.866   1.419  10.594
80361SOL    HW142980   8.920   1.383  10.664
80361SOL    HW242981   8.839   1.343  10.542
80362SOL     OW42982   7.792  10.753  11.729
80362SOL    HW142983   7.746  10.709  11.800
80362SOL    HW242984   7.723  10.778  11.668
80363SOL     OW42985   9.591   4.329  12.669
80363SOL    HW142986   9.561   4.412  12.707
80363SOL    HW242987   9.598   4.346  12.575
80364SOL     OW42988  13.269   9.550  10.042
80364SOL    HW142989  13.348   9.504  10.013
80364SOL    HW242990  13.240   9.503  10.120
80365SOL     OW42991  10.379   2.684   0.659
80365SOL    HW142992  10.406   2.770   0.628
80365SOL    HW242993  10.318   2.702   0.731
80366SOL     OW42994   4.017  13.509   8.308
80366SOL    HW142995   4.049  13.494   8.397
80366SOL    HW242996   4.020  13.423   8.266
80367SOL     OW42997   3.771   9.093   5.561
80367SOL    HW142998   3.795   9.003   5.584
80367SOL    HW242999   3.675   9.093   5.558
80368SOL     OW43000   8.570  13.996   0.456
80368SOL    HW143001   8.546  14.004   0.548
80368SOL    HW243002   8.497  14.035   0.408
80369SOL     OW43003  14.196   5.981   2.496
80369SOL    HW143004  14.107   5.948   2.482
80369SOL    HW243005  14.207   6.047   2.427
80370SOL     OW43006   3.222  14.477  13.279
80370SOL    HW143007   3.214  14.433  13.195
80370SOL    HW243008   3.270  14.415  13.334
80371SOL     OW43009  10.927   4.099   6.540
80371SOL    HW143010  10.990   4.081   6.609
80371SOL    HW243011  10.979   4.132   6.467
80372SOL     OW43012   9.849   6.987  10.834
80372SOL    HW143013   9.817   7.018  10.919
80372SOL    HW243014   9.772   6.948  10.792
80373SOL     OW43015   6.595  10.325  12.863
80373SOL    HW143016   6.676  10.374  12.877
80373SOL    HW243017   6.586  10.271  12.941
80374SOL     OW43018   2.239   6.882   2.671
80374SOL    HW143019   2.277   6.798   2.696
80374SOL    HW243020   2.313   6.934   2.641
80375SOL     OW43021  12.126   2.713   8.764
80375SOL    HW143022  12.148   2.805   8.752
80375SOL    HW243023  12.209   2.666   8.752
80376SOL     OW43024   7.728   1.251   9.041
80376SOL    HW143025   7.695   1.220   8.956
80376SOL    HW243026   7.823   1.243   9.034
80377SOL     OW43027  12.442   7.831  11.301
80377SOL    HW143028  12.500   7.813  11.228
80377SOL    HW243029  12.500   7.856  11.373
80378SOL     OW43030   2.682   6.748   7.389
80378SOL    HW143031   2.606   6.693   7.411
80378SOL    HW243032   2.649   6.837   7.396
80379SOL     OW43033   4.053   5.033   1.935
80379SOL    HW143034   4.133   4.990   1.963
80379SOL    HW243035   3.993   5.025   2.009
80380SOL     OW43036   9.925  13.929   2.084
80380SOL    HW143037   9.855  13.955   2.145
80380SOL    HW243038   9.879  13.909   2.002
80381SOL     OW43039   1.174   6.453   0.877
80381SOL    HW143040   1.157   6.535   0.831
80381SOL    HW243041   1.240   6.409   0.824
80382SOL     OW43042   5.646  10.295   8.983
80382SOL    HW143043   5.601  10.285   9.066
80382SOL    HW243044   5.584  10.342   8.927
80383SOL     OW43045   2.139   1.620   8.906
80383SOL    HW143046   2.167   1.584   8.991
80383SOL    HW243047   2.087   1.697   8.929
80384SOL     OW43048  13.352   9.994   7.855
80384SOL    HW143049  13.261   9.969   7.838
80384SOL    HW243050  13.393   9.914   7.887
80385SOL     OW43051   1.517  13.172  13.109
80385SOL    HW143052   1.440  13.137  13.063
80385SOL    HW243053   1.481  13.239  13.167
80386SOL     OW43054  10.433   3.174   3.583
80386SOL    HW143055  10.355   3.229   3.574
80386SOL    HW243056  10.494   3.209   3.519
80387SOL     OW43057  14.714  11.187   7.167
80387SOL    HW143058  14.808  11.169   7.173
80387SOL    HW243059  14.679  11.160   7.251
80388SOL     OW43060  14.639   3.497   8.339
80388SOL    HW143061  14.728   3.479   8.368
80388SOL    HW243062  14.601   3.411   8.320
80389SOL     OW43063  13.128   7.671   8.589
80389SOL    HW143064  13.162   7.650   8.675
80389SOL    HW243065  13.139   7.591   8.538
80390SOL     OW43066   7.987  13.265  13.398
80390SOL    HW143067   7.923  13.277  13.328
80390SOL    HW243068   8.071  13.286  13.358
80391SOL     OW43069   7.102   0.048   3.936
80391SOL    HW143070   7.028   0.020   3.990
80391SOL    HW243071   7.061   0.091   3.861
80392SOL     OW43072  12.712   6.588  14.129
80392SOL    HW143073  12.691   6.682  14.130
80392SOL    HW243074  12.682   6.556  14.214
80393SOL     OW43075   6.236  14.274   6.399
80393SOL    HW143076   6.180  14.348   6.421
80393SOL    HW243077   6.185  14.197   6.427
80394SOL     OW43078   4.452  10.343   3.888
80394SOL    HW143079   4.419  10.392   3.813
80394SOL    HW243080   4.378  10.289   3.916
80395SOL     OW43081   7.765  14.283   0.642
80395SOL    HW143082   7.714  14.328   0.709
80395SOL    HW243083   7.819  14.221   0.690
80396SOL     OW43084   1.430   3.601  13.608
80396SOL    HW143085   1.480   3.681  13.591
80396SOL    HW243086   1.343   3.620  13.574
80397SOL     OW43087  11.984   3.012   5.102
80397SOL    HW143088  12.028   3.086   5.059
80397SOL    HW243089  11.952   2.958   5.029
80398SOL     OW43090  11.205   6.806  12.885
80398SOL    HW143091  11.192   6.855  12.967
80398SOL    HW243092  11.192   6.871  12.816
80399SOL     OW43093  11.663   4.988  14.404
80399SOL    HW143094  11.610   4.961  14.479
80399SOL    HW243095  11.719   4.913  14.386
80400SOL     OW43096  11.248  12.372  12.102
80400SOL    HW143097  11.260  12.368  12.007
80400SOL    HW243098  11.165  12.327  12.117
80401SOL     OW43099   3.186   6.758   7.270
80401SOL    HW143100   3.275   6.746   7.304
80401SOL    HW243101   3.141   6.677   7.292
80402SOL     OW43102   1.466   8.156  13.407
80402SOL    HW143103   1.458   8.080  13.350
80402SOL    HW243104   1.502   8.225  13.350
80403SOL     OW43105  12.949   7.540   8.312
80403SOL    HW143106  12.889   7.602   8.353
80403SOL    HW243107  12.933   7.548   8.218
80404SOL     OW43108   5.697   6.137  12.542
80404SOL    HW143109   5.672   6.224  12.510
80404SOL    HW243110   5.748   6.098  12.470
80405SOL     OW43111  11.222   9.565   1.871
80405SOL    HW143112  11.197   9.500   1.938
80405SOL    HW243113  11.309   9.595   1.899
80406SOL     OW43114   9.570  12.073   2.442
80406SOL    HW143115   9.607  12.156   2.410
80406SOL    HW243116   9.475  12.086   2.439
80407SOL     OW43117   0.707   0.229  12.598
80407SOL    HW143118   0.744   0.155  12.551
80407SOL    HW243119   0.757   0.232  12.680
80408SOL     OW43120  10.440  14.196   0.924
80408SOL    HW143121  10.429  14.246   0.843
80408SOL    HW243122  10.511  14.241   0.970
80409SOL     OW43123   4.362  10.987  11.753
80409SOL    HW143124   4.435  10.987  11.691
80409SOL    HW243125   4.372  11.069  11.801
80410SOL     OW43126   9.026   2.464  12.200
80410SOL    HW143127   9.104   2.472  12.146
80410SOL    HW243128   8.977   2.544  12.184
80411SOL     OW43129  10.770   1.117  11.140
80411SOL    HW143130  10.786   1.127  11.046
80411SOL    HW243131  10.676   1.135  11.150
80412SOL     OW43132  11.427   8.341   1.001
80412SOL    HW143133  11.420   8.436   1.014
80412SOL    HW243134  11.515   8.319   1.029
80413SOL     OW43135   8.863  12.983   4.155
80413SOL    HW143136   8.884  12.977   4.062
80413SOL    HW243137   8.869  13.076   4.175
80414SOL     OW43138  10.050  11.849  11.978
80414SOL    HW143139  10.001  11.825  11.899
80414SOL    HW243140  10.034  11.942  11.989
80415SOL     OW43141  10.405   0.719   2.390
80415SOL    HW143142  10.491   0.741   2.354
80415SOL    HW243143  10.378   0.799   2.437
80416SOL     OW43144  14.703  12.989  10.811
80416SOL    HW143145  14.790  13.000  10.774
80416SOL    HW243146  14.651  12.954  10.739
80417SOL     OW43147   1.760   0.595   3.107
80417SOL    HW143148   1.681   0.563   3.063
80417SOL    HW243149   1.829   0.536   3.076
80418SOL     OW43150  13.126  12.685   0.633
80418SOL    HW143151  13.210  12.655   0.598
80418SOL    HW243152  13.123  12.649   0.721
80419SOL     OW43153   7.801   2.320   7.262
80419SOL    HW143154   7.784   2.328   7.356
80419SOL    HW243155   7.895   2.299   7.257
80420SOL     OW43156   3.956   9.597   2.653
80420SOL    HW143157   4.050   9.587   2.666
80420SOL    HW243158   3.922   9.619   2.740
80421SOL     OW43159   3.816  14.556   0.512
80421SOL    HW143160   3.777  14.532   0.596
80421SOL    HW243161   3.756  14.522   0.446
80422SOL     OW43162   1.168  10.831  13.462
80422SOL    HW143163   1.254  10.791  13.449
80422SOL    HW243164   1.181  10.895  13.531
80423SOL     OW43165  11.427   0.699   6.132
80423SOL    HW143166  11.430   0.737   6.219
80423SOL    HW243167  11.387   0.768   6.077
80424SOL     OW43168  13.102   5.147   7.597
80424SOL    HW143169  13.185   5.194   7.589
80424SOL    HW243170  13.102   5.115   7.687
80425SOL     OW43171   1.074   8.019  13.176
80425SOL    HW143172   1.125   8.091  13.214
80425SOL    HW243173   1.126   7.991  13.101
80426SOL     OW43174   6.137   9.725  10.577
80426SOL    HW143175   6.153   9.652  10.516
80426SOL    HW243176   6.201   9.792  10.552
80427SOL     OW43177   8.908   8.921   9.679
80427SOL    HW143178   8.925   9.015   9.671
80427SOL    HW243179   8.994   8.880   9.670
80428SOL     OW43180   7.155  14.820  13.207
80428SOL    HW143181   7.094  14.861  13.145
80428SOL    HW243182   7.207  14.760  13.153
80429SOL     OW43183   0.790   1.951   0.300
80429SOL    HW143184   0.770   1.867   0.342
80429SOL    HW243185   0.854   1.929   0.232
80430SOL     OW43186   8.074   7.139  11.976
80430SOL    HW143187   8.007   7.080  11.941
80430SOL    HW243188   8.157   7.100  11.947
80431SOL     OW43189   1.607  12.006  14.788
80431SOL    HW143190   1.522  12.041  14.760
80431SOL    HW243191   1.628  11.939  14.723
80432SOL     OW43192  13.431   3.168  12.617
80432SOL    HW143193  13.392   3.251  12.642
80432SOL    HW243194  13.526   3.183  12.620
80433SOL     OW43195   2.630   3.869   1.150
80433SOL    HW143196   2.577   3.937   1.110
80433SOL    HW243197   2.696   3.916   1.201
80434SOL     OW43198  12.349   7.476   8.526
80434SOL    HW143199  12.359   7.539   8.453
80434SOL    HW243200  12.346   7.391   8.483
80435SOL     OW43201   4.290   0.333  14.674
80435SOL    HW143202   4.309   0.427  14.674
80435SOL    HW243203   4.314   0.303  14.586
80436SOL     OW43204  10.727   4.409   4.725
80436SOL    HW143205  10.720   4.400   4.630
80436SOL    HW243206  10.643   4.378   4.759
80437SOL     OW43207   3.540   4.928   3.347
80437SOL    HW143208   3.471   4.967   3.292
80437SOL    HW243209   3.583   4.864   3.290
80438SOL     OW43210  11.291   6.223  14.111
80438SOL    HW143211  11.356   6.286  14.081
80438SOL    HW243212  11.340   6.141  14.121
80439SOL     OW43213  10.498  10.122  10.344
80439SOL    HW143214  10.516  10.213  10.321
80439SOL    HW243215  10.465  10.082  10.264
80440SOL     OW43216  10.714   2.637  12.634
80440SOL    HW143217  10.638   2.598  12.677
80440SOL    HW243218  10.709   2.730  12.657
80441SOL     OW43219   8.716  11.797   4.410
80441SOL    HW143220   8.630  11.759   4.428
80441SOL    HW243221   8.771  11.769   4.483
80442SOL     OW43222   5.261  12.350   9.423
80442SOL    HW143223   5.266  12.327   9.330
80442SOL    HW243224   5.344  12.321   9.460
80443SOL     OW43225   2.738  10.968   4.553
80443SOL    HW143226   2.753  10.938   4.643
80443SOL    HW243227   2.677  11.041   4.561
80444SOL     OW43228   1.484  12.912   9.879
80444SOL    HW143229   1.470  12.842   9.815
80444SOL    HW243230   1.436  12.986   9.843
80445SOL     OW43231   1.953  14.205   7.331
80445SOL    HW143232   1.933  14.116   7.359
80445SOL    HW243233   2.047  14.203   7.311
80446SOL     OW43234   3.486   9.084   9.933
80446SOL    HW143235   3.433   9.033   9.994
80446SOL    HW243236   3.477   9.038   9.849
80447SOL     OW43237   9.094  12.541  13.139
80447SOL    HW143238   9.108  12.605  13.208
80447SOL    HW243239   8.999  12.542  13.125
80448SOL     OW43240  12.779  12.819   6.840
80448SOL    HW143241  12.852  12.872   6.809
80448SOL    HW243242  12.814  12.769   6.913
80449SOL     OW43243   5.027   7.412   2.318
80449SOL    HW143244   4.974   7.413   2.398
80449SOL    HW243245   4.980   7.355   2.258
80450SOL     OW43246  14.047   4.249  12.141
80450SOL    HW143247  14.141   4.238  12.129
80450SOL    HW243248  14.023   4.320  12.081
80451SOL     OW43249   7.390   6.769   6.364
80451SOL    HW143250   7.388   6.864   6.354
80451SOL    HW243251   7.418   6.755   6.455
80452SOL     OW43252  14.812   4.774   5.838
80452SOL    HW143253  14.842   4.815   5.756
80452SOL    HW243254   0.021   4.760   5.888
80453SOL     OW43255   9.328  13.218   3.734
80453SOL    HW143256   9.267  13.291   3.726
80453SOL    HW243257   9.311  13.164   3.656
80454SOL     OW43258   7.495   3.497  14.561
80454SOL    HW143259   7.523   3.474  14.649
80454SOL    HW243260   7.470   3.590  14.568
80455SOL     OW43261  13.454  10.574   2.248
80455SOL    HW143262  13.368  10.582   2.207
80455SOL    HW243263  13.515  10.571   2.174
80456SOL     OW43264   4.313   4.812   2.474
80456SOL    HW143265   4.300   4.907   2.470
80456SOL    HW243266   4.273   4.779   2.394
80457SOL     OW43267  14.705   8.382   4.871
80457SOL    HW143268  14.773   8.448   4.861
80457SOL    HW243269  14.733   8.330   4.947
80458SOL     OW43270  13.999   7.127  11.499
80458SOL    HW143271  13.964   7.214  11.519
80458SOL    HW243272  13.922   7.070  11.496
80459SOL     OW43273   4.451   9.370  10.763
80459SOL    HW143274   4.495   9.288  10.740
80459SOL    HW243275   4.358   9.347  10.765
80460SOL     OW43276   5.430   2.398   2.058
80460SOL    HW143277   5.491   2.386   1.985
80460SOL    HW243278   5.430   2.492   2.074
80461SOL     OW43279  13.860   6.596  10.635
80461SOL    HW143280  13.833   6.510  10.665
80461SOL    HW243281  13.910   6.580  10.556
80462SOL     OW43282  14.272   5.329   1.693
80462SOL    HW143283  14.183   5.329   1.660
80462SOL    HW243284  14.262   5.328   1.789
80463SOL     OW43285   6.727   9.609   2.238
80463SOL    HW143286   6.685   9.633   2.156
80463SOL    HW243287   6.759   9.520   2.224
80464SOL     OW43288   7.843   8.144  14.579
80464SOL    HW143289   7.853   8.138  14.674
80464SOL    HW243290   7.903   8.079  14.544
80465SOL     OW43291   7.645   0.149   4.689
80465SOL    HW143292   7.602   0.221   4.736
80465SOL    HW243293   7.572   0.100   4.650
80466SOL     OW43294   3.496  12.147   1.049
80466SOL    HW143295   3.478  12.240   1.060
80466SOL    HW243296   3.588  12.137   1.074
80467SOL     OW43297  10.978  11.823  11.573
80467SOL    HW143298  10.915  11.819  11.645
80467SOL    HW243299  11.014  11.912  11.578
80468SOL     OW43300   2.044   4.010  14.810
80468SOL    HW143301   1.971   3.965  14.768
80468SOL    HW243302   2.114   3.945  14.815
80469SOL     OW43303   5.158   4.405   4.983
80469SOL    HW143304   5.162   4.483   5.038
80469SOL    HW243305   5.081   4.358   5.014
80470SOL     OW43306   1.589   7.235  11.445
80470SOL    HW143307   1.572   7.144  11.465
80470SOL    HW243308   1.639   7.267  11.521
80471SOL     OW43309   9.904   3.570   7.892
80471SOL    HW143310   9.964   3.507   7.933
80471SOL    HW243311   9.831   3.516   7.862
80472SOL     OW43312   9.052   0.333  11.228
80472SOL    HW143313   9.093   0.416  11.253
80472SOL    HW243314   9.122   0.268  11.238
80473SOL     OW43315  10.072   5.970  13.790
80473SOL    HW143316  10.085   6.041  13.728
80473SOL    HW243317  10.089   6.010  13.876
80474SOL     OW43318   5.264   7.147   1.258
80474SOL    HW143319   5.343   7.185   1.221
80474SOL    HW243320   5.267   7.171   1.351
80475SOL     OW43321   7.767  10.870  10.030
80475SOL    HW143322   7.713  10.834  10.100
80475SOL    HW243323   7.721  10.950  10.004
80476SOL     OW43324   1.022   4.920  14.455
80476SOL    HW143325   1.092   4.856  14.443
80476SOL    HW243326   1.065   5.005  14.451
80477SOL     OW43327  11.527  13.196   2.702
80477SOL    HW143328  11.607  13.183   2.753
80477SOL    HW243329  11.532  13.130   2.632
80478SOL     OW43330  14.428  13.076   4.575
80478SOL    HW143331  14.340  13.074   4.614
80478SOL    HW243332  14.435  12.993   4.528
80479SOL     OW43333   2.475   5.290   7.961
80479SOL    HW143334   2.414   5.363   7.970
80479SOL    HW243335   2.547   5.325   7.909
80480SOL     OW43336  12.399   5.482   4.115
80480SOL    HW143337  12.363   5.402   4.075
80480SOL    HW243338  12.491   5.482   4.089
80481SOL     OW43339   4.752  12.457  11.502
80481SOL    HW143340   4.735  12.393  11.571
80481SOL    HW243341   4.737  12.408  11.420
80482SOL     OW43342   9.551   6.225  14.166
80482SOL    HW143343   9.641   6.241  14.139
80482SOL    HW243344   9.518   6.160  14.104
80483SOL     OW43345   6.596   4.395   2.933
80483SOL    HW143346   6.659   4.339   2.980
80483SOL    HW243347   6.520   4.338   2.919
80484SOL     OW43348   5.939  11.115  13.632
80484SOL    HW143349   5.966  11.091  13.543
80484SOL    HW243350   5.936  11.211  13.630
80485SOL     OW43351   7.553   9.778   5.516
80485SOL    HW143352   7.600   9.858   5.537
80485SOL    HW243353   7.581   9.715   5.582
80486SOL     OW43354   2.111   0.259  10.029
80486SOL    HW143355   2.175   0.314  10.075
80486SOL    HW243356   2.119   0.285   9.937
80487SOL     OW43357  10.490  10.581  14.200
80487SOL    HW143358  10.398  10.608  14.198
80487SOL    HW243359  10.493  10.498  14.153
80488SOL     OW43360  13.415   9.310   2.792
80488SOL    HW143361  13.393   9.221   2.820
80488SOL    HW243362  13.395   9.365   2.867
80489SOL     OW43363   1.280   4.058  12.554
80489SOL    HW143364   1.274   4.150  12.528
80489SOL    HW243365   1.334   4.017  12.486
80490SOL     OW43366   2.240   0.527   9.707
80490SOL    HW143367   2.320   0.484   9.677
80490SOL    HW243368   2.253   0.619   9.684
80491SOL     OW43369  10.321   0.101   9.249
80491SOL    HW143370  10.286   0.060   9.329
80491SOL    HW243371  10.248   0.098   9.187
80492SOL     OW43372  14.608   4.346   3.126
80492SOL    HW143373  14.662   4.314   3.054
80492SOL    HW243374  14.544   4.276   3.141
80493SOL     OW43375   1.702   5.298   0.402
80493SOL    HW143376   1.682   5.380   0.357
80493SOL    HW243377   1.791   5.309   0.435
80494SOL     OW43378  13.642   6.934  10.296
80494SOL    HW143379  13.624   6.841  10.312
80494SOL    HW243380  13.730   6.935  10.259
80495SOL     OW43381   0.351   9.446   7.417
80495SOL    HW143382   0.345   9.541   7.417
80495SOL    HW243383   0.416   9.425   7.485
80496SOL     OW43384   8.966   9.688  14.575
80496SOL    HW143385   9.023   9.645  14.639
80496SOL    HW243386   9.004   9.775  14.565
80497SOL     OW43387   8.156   0.558   2.038
80497SOL    HW143388   8.177   0.651   2.037
80497SOL    HW243389   8.103   0.547   2.117
80498SOL     OW43390   8.331  12.246   2.846
80498SOL    HW143391   8.391  12.282   2.912
80498SOL    HW243392   8.246  12.244   2.890
80499SOL     OW43393   1.890  11.214   4.468
80499SOL    HW143394   1.941  11.237   4.546
80499SOL    HW243395   1.817  11.162   4.502
80500SOL     OW43396   2.532   4.385   0.220
80500SOL    HW143397   2.522   4.445   0.293
80500SOL    HW243398   2.573   4.437   0.151
80501SOL     OW43399  14.736   5.989   4.731
80501SOL    HW143400  14.681   6.055   4.687
80501SOL    HW243401  14.803   6.040   4.775
80502SOL     OW43402   7.950   2.488   2.784
80502SOL    HW143403   7.864   2.516   2.814
80502SOL    HW243404   7.982   2.562   2.731
80503SOL     OW43405  11.237   3.547   4.646
80503SOL    HW143406  11.166   3.611   4.640
80503SOL    HW243407  11.244   3.528   4.740
80504SOL     OW43408   0.882  11.829   9.200
80504SOL    HW143409   0.962  11.779   9.185
80504SOL    HW243410   0.913  11.919   9.214
80505SOL     OW43411   0.061   7.199   2.202
80505SOL    HW143412   0.068   7.264   2.132
80505SOL    HW243413  14.839   7.178   2.205
80506SOL     OW43414   5.528   8.577  12.843
80506SOL    HW143415   5.435   8.570  12.820
80506SOL    HW243416   5.574   8.572  12.759
80507SOL     OW43417  14.467  13.291   3.585
80507SOL    HW143418  14.480  13.313   3.678
80507SOL    HW243419  14.538  13.232   3.564
80508SOL     OW43420   7.970   4.173  13.311
80508SOL    HW143421   8.057   4.191  13.345
80508SOL    HW243422   7.931   4.259  13.298
80509SOL     OW43423  12.003   3.700   3.670
80509SOL    HW143424  11.992   3.768   3.737
80509SOL    HW243425  12.096   3.704   3.648
80510SOL     OW43426  13.289   7.366   2.150
80510SOL    HW143427  13.319   7.276   2.136
80510SOL    HW243428  13.365   7.420   2.130
80511SOL     OW43429   3.262  13.533   5.750
80511SOL    HW143430   3.246  13.588   5.673
80511SOL    HW243431   3.176  13.526   5.792
80512SOL     OW43432   6.507   5.660   7.507
80512SOL    HW143433   6.534   5.643   7.598
80512SOL    HW243434   6.418   5.695   7.515
80513SOL     OW43435   1.804   0.711  12.440
80513SOL    HW143436   1.891   0.672  12.447
80513SOL    HW243437   1.759   0.658  12.374
80514SOL     OW43438   3.577   0.064   8.765
80514SOL    HW143439   3.623  14.854   8.748
80514SOL    HW243440   3.616   0.127   8.704
80515SOL     OW43441  13.888   9.656   6.305
80515SOL    HW143442  13.888   9.619   6.217
80515SOL    HW243443  13.811   9.713   6.308
80516SOL     OW43444   0.384   8.317  10.019
80516SOL    HW143445   0.388   8.266  10.099
80516SOL    HW243446   0.315   8.382  10.035
80517SOL     OW43447   9.806   8.398   7.419
80517SOL    HW143448   9.801   8.303   7.410
80517SOL    HW243449   9.900   8.417   7.424
80518SOL     OW43450   9.268  13.982  11.670
80518SOL    HW143451   9.187  13.933  11.659
80518SOL    HW243452   9.313  13.973  11.586
80519SOL     OW43453  11.669   7.473  12.906
80519SOL    HW143454  11.694   7.558  12.942
80519SOL    HW243455  11.605   7.493  12.838
80520SOL     OW43456  10.046   0.496   4.729
80520SOL    HW143457   9.977   0.488   4.795
80520SOL    HW243458  10.049   0.589   4.708
80521SOL     OW43459   3.037  11.720  13.475
80521SOL    HW143460   3.127  11.720  13.441
80521SOL    HW243461   3.020  11.629  13.498
80522SOL     OW43462  13.940   9.276  14.007
80522SOL    HW143463  13.859   9.321  13.986
80522SOL    HW243464  14.005   9.316  13.949
80523SOL     OW43465   5.018  13.280   6.694
80523SOL    HW143466   4.959  13.252   6.763
80523SOL    HW243467   4.966  13.276   6.614
80524SOL     OW43468   5.683   4.085  14.829
80524SOL    HW143469   5.724   4.004  14.857
80524SOL    HW243470   5.596   4.058  14.798
80525SOL     OW43471  11.903  13.375  12.760
80525SOL    HW143472  11.912  13.392  12.854
80525SOL    HW243473  11.817  13.333  12.752
80526SOL     OW43474   5.374   6.333  10.507
80526SOL    HW143475   5.425   6.350  10.587
80526SOL    HW243476   5.348   6.419  10.476
80527SOL     OW43477   7.791  13.046  14.522
80527SOL    HW143478   7.704  13.007  14.517
80527SOL    HW243479   7.824  13.043  14.433
80528SOL     OW43480   6.678   3.786   7.115
80528SOL    HW143481   6.712   3.743   7.036
80528SOL    HW243482   6.595   3.742   7.133
80529SOL     OW43483   2.898  12.200  14.127
80529SOL    HW143484   2.955  12.272  14.155
80529SOL    HW243485   2.936  12.123  14.170
80530SOL     OW43486  14.634  14.758   8.811
80530SOL    HW143487  14.542  14.779   8.825
80530SOL    HW243488  14.651  14.685   8.870
80531SOL     OW43489   1.672  12.396  10.122
80531SOL    HW143490   1.619  12.425  10.196
80531SOL    HW243491   1.704  12.309  10.149
80532SOL     OW43492  12.235   2.985   9.363
80532SOL    HW143493  12.166   2.954   9.422
80532SOL    HW243494  12.214   2.943   9.279
80533SOL     OW43495   4.079   6.861   6.331
80533SOL    HW143496   4.040   6.776   6.347
80533SOL    HW243497   4.088   6.900   6.418
80534SOL     OW43498  13.222   5.977  11.973
80534SOL    HW143499  13.167   6.056  11.971
80534SOL    HW243500  13.311   6.011  11.983
80535SOL     OW43501   2.774   5.818  12.128
80535SOL    HW143502   2.678   5.815  12.121
80535SOL    HW243503   2.792   5.802  12.220
80536SOL     OW43504  11.573   9.763   2.349
80536SOL    HW143505  11.557   9.825   2.420
80536SOL    HW243506  11.620   9.814   2.283
80537SOL     OW43507  13.940   2.874   2.555
80537SOL    HW143508  13.912   2.953   2.602
80537SOL    HW243509  13.909   2.887   2.465
80538SOL     OW43510  13.336   8.544   6.310
80538SOL    HW143511  13.327   8.639   6.316
80538SOL    HW243512  13.333   8.513   6.400
80539SOL     OW43513   8.028  11.042   6.416
80539SOL    HW143514   7.996  10.954   6.435
80539SOL    HW243515   8.057  11.038   6.325
80540SOL     OW43516   3.107   4.466   1.349
80540SOL    HW143517   3.022   4.505   1.327
80540SOL    HW243518   3.091   4.421   1.432
80541SOL     OW43519   8.892   0.099   6.606
80541SOL    HW143520   8.817   0.057   6.563
80541SOL    HW243521   8.919   0.168   6.545
80542SOL     OW43522  11.377   9.171  10.525
80542SOL    HW143523  11.356   9.254  10.482
80542SOL    HW243524  11.463   9.147  10.489
80543SOL     OW43525   3.233   7.655   2.717
80543SOL    HW143526   3.186   7.571   2.716
80543SOL    HW243527   3.177   7.715   2.668
80544SOL     OW43528  14.862   0.197   7.883
80544SOL    HW143529  14.783   0.231   7.924
80544SOL    HW243530   0.024   0.132   7.945
80545SOL     OW43531  14.301   7.838  14.659
80545SOL    HW143532  14.216   7.877  14.642
80545SOL    HW243533  14.343   7.833  14.573
80546SOL     OW43534  14.003  12.168   1.017
80546SOL    HW143535  13.934  12.126   1.068
80546SOL    HW243536  14.085  12.131   1.051
80547SOL     OW43537   9.353   9.039   1.068
80547SOL    HW143538   9.366   9.093   0.990
80547SOL    HW243539   9.419   9.070   1.130
80548SOL     OW43540  13.065   1.707  12.541
80548SOL    HW143541  13.071   1.618  12.576
80548SOL    HW243542  13.023   1.757  12.611
80549SOL     OW43543  14.615   7.103   9.565
80549SOL    HW143544  14.623   7.023   9.618
80549SOL    HW243545  14.705   7.123   9.538
80550SOL     OW43546  14.165   6.817   6.579
80550SOL    HW143547  14.122   6.754   6.522
80550SOL    HW243548  14.167   6.775   6.665
80551SOL     OW43549   9.489  12.481  13.284
80551SOL    HW143550   9.438  12.488  13.365
80551SOL    HW243551   9.451  12.548  13.226
80552SOL     OW43552  14.863   0.306   3.817
80552SOL    HW143553   0.085   0.321   3.830
80552SOL    HW243554  14.846   0.340   3.729
80553SOL     OW43555   6.797   8.264  12.959
80553SOL    HW143556   6.827   8.253  13.049
80553SOL    HW243557   6.799   8.359  12.944
80554SOL     OW43558   0.171   5.473  12.999
80554SOL    HW143559   0.260   5.496  13.028
80554SOL    HW243560   0.131   5.432  13.077
80555SOL     OW43561   0.803  14.125   7.884
80555SOL    HW143562   0.851  14.053   7.845
80555SOL    HW243563   0.868  14.195   7.893
80556SOL     OW43564   5.848   5.436  14.150
80556SOL    HW143565   5.876   5.349  14.178
80556SOL    HW243566   5.926   5.491  14.158
80557SOL     OW43567   1.541  14.670  14.253
80557SOL    HW143568   1.540  14.588  14.303
80557SOL    HW243569   1.548  14.643  14.162
80558SOL     OW43570   6.357   1.772   5.186
80558SOL    HW143571   6.369   1.859   5.225
80558SOL    HW243572   6.428   1.764   5.123
80559SOL     OW43573  12.954   1.417   1.601
80559SOL    HW143574  12.955   1.350   1.533
80559SOL    HW243575  13.026   1.393   1.659
80560SOL     OW43576  14.729   2.106  10.788
80560SOL    HW143577  14.764   2.048  10.856
80560SOL    HW243578  14.807   2.146  10.749
80561SOL     OW43579  10.361   7.871  12.642
80561SOL    HW143580  10.361   7.967  12.641
80561SOL    HW243581  10.298   7.847  12.710
80562SOL     OW43582   1.172   9.975   4.022
80562SOL    HW143583   1.088  10.020   4.027
80562SOL    HW243584   1.233  10.042   3.991
80563SOL     OW43585   0.555   0.663   8.784
80563SOL    HW143586   0.516   0.712   8.857
80563SOL    HW243587   0.487   0.601   8.758
80564SOL     OW43588   3.100   4.516  10.079
80564SOL    HW143589   3.122   4.488   9.990
80564SOL    HW243590   3.184   4.516  10.126
80565SOL     OW43591   0.410   4.451   1.787
80565SOL    HW143592   0.403   4.366   1.744
80565SOL    HW243593   0.482   4.495   1.742
80566SOL     OW43594  13.554   3.091  14.662
80566SOL    HW143595  13.585   3.021  14.604
80566SOL    HW243596  13.633   3.124  14.705
80567SOL     OW43597   2.705  14.843   4.142
80567SOL    HW143598   2.676  14.824   4.231
80567SOL    HW243599   2.626  14.832   4.089
80568SOL     OW43600  12.686   0.905   3.366
80568SOL    HW143601  12.680   0.863   3.281
80568SOL    HW243602  12.642   0.844   3.426
80569SOL     OW43603   1.523   2.112   9.129
80569SOL    HW143604   1.498   2.133   9.219
80569SOL    HW243605   1.523   2.016   9.127
80570SOL     OW43606   2.405  12.656   0.098
80570SOL    HW143607   2.368  12.712   0.166
80570SOL    HW243608   2.487  12.699   0.074
80571SOL     OW43609   6.565   0.122   2.578
80571SOL    HW143610   6.496   0.188   2.587
80571SOL    HW243611   6.520   0.045   2.546
80572SOL     OW43612  14.479  13.860   2.529
80572SOL    HW143613  14.533  13.924   2.483
80572SOL    HW243614  14.436  13.910   2.599
80573SOL     OW43615   4.426  14.472  14.518
80573SOL    HW143616   4.470  14.396  14.479
80573SOL    HW243617   4.464  14.478  14.606
80574SOL     OW43618   8.567  13.968   0.041
80574SOL    HW143619   8.476  13.949   0.018
80574SOL    HW243620   8.608  13.882   0.050
80575SOL     OW43621   7.158  14.412  11.000
80575SOL    HW143622   7.241  14.430  11.044
80575SOL    HW243623   7.102  14.372  11.067
80576SOL     OW43624  12.958   0.146   7.401
80576SOL    HW143625  13.005   0.101   7.331
80576SOL    HW243626  12.989   0.236   7.397
80577SOL     OW43627  13.551  12.100  10.620
80577SOL    HW143628  13.491  12.085  10.548
80577SOL    HW243629  13.599  12.180  10.595
80578SOL     OW43630   0.380   1.736   6.328
80578SOL    HW143631   0.396   1.731   6.234
80578SOL    HW243632   0.372   1.644   6.356
80579SOL     OW43633  13.072   3.313   6.371
80579SOL    HW143634  13.086   3.379   6.438
80579SOL    HW243635  13.154   3.264   6.367
80580SOL     OW43636   2.835   9.260  11.353
80580SOL    HW143637   2.832   9.165  11.343
80580SOL    HW243638   2.899   9.290  11.289
80581SOL     OW43639   1.450  12.889   8.649
80581SOL    HW143640   1.535  12.883   8.605
80581SOL    HW243641   1.414  12.973   8.621
80582SOL     OW43642   3.422   2.714  14.189
80582SOL    HW143643   3.403   2.732  14.096
80582SOL    HW243644   3.348   2.752  14.236
80583SOL     OW43645  10.779  14.783   1.064
80583SOL    HW143646  10.860  14.734   1.051
80583SOL    HW243647  10.805   0.003   1.062
80584SOL     OW43648  13.750  14.614   1.586
80584SOL    HW143649  13.697  14.694   1.591
80584SOL    HW243650  13.707  14.561   1.520
80585SOL     OW43651  14.716  11.872  14.054
80585SOL    HW143652  14.742  11.952  14.009
80585SOL    HW243653  14.794  11.817  14.053
80586SOL     OW43654   1.005   3.466   3.255
80586SOL    HW143655   0.996   3.548   3.303
80586SOL    HW243656   0.932   3.465   3.194
80587SOL     OW43657   5.984   1.787   1.339
80587SOL    HW143658   5.992   1.867   1.287
80587SOL    HW243659   5.962   1.719   1.276
80588SOL     OW43660   5.744  11.874   4.271
80588SOL    HW143661   5.690  11.823   4.210
80588SOL    HW243662   5.808  11.812   4.304
80589SOL     OW43663   5.160   3.614   1.653
80589SOL    HW143664   5.084   3.657   1.692
80589SOL    HW243665   5.146   3.521   1.671
80590SOL     OW43666  11.968  13.629   1.696
80590SOL    HW143667  11.940  13.562   1.633
80590SOL    HW243668  11.906  13.622   1.768
80591SOL     OW43669  14.748   8.075  12.584
80591SOL    HW143670  14.816   8.079  12.515
80591SOL    HW243671  14.797   8.059  12.664
80592SOL     OW43672  13.392   4.933  12.305
80592SOL    HW143673  13.304   4.923  12.269
80592SOL    HW243674  13.385   4.905  12.396
80593SOL     OW43675  14.754   0.343   6.189
80593SOL    HW143676  14.812   0.364   6.262
80593SOL    HW243677  14.667   0.371   6.218
80594SOL     OW43678  11.418   4.804   3.382
80594SOL    HW143679  11.507   4.836   3.397
80594SOL    HW243680  11.418   4.773   3.292
80595SOL     OW43681   9.636  13.395   2.307
80595SOL    HW143682   9.547  13.413   2.336
80595SOL    HW243683   9.680  13.359   2.385
80596SOL     OW43684  13.766  11.359   7.340
80596SOL    HW143685  13.694  11.398   7.390
80596SOL    HW243686  13.775  11.414   7.263
80597SOL     OW43687  14.011   6.484   2.794
80597SOL    HW143688  14.037   6.486   2.886
80597SOL    HW243689  14.008   6.391   2.772
80598SOL     OW43690  10.902   4.087   6.991
80598SOL    HW143691  10.864   4.050   6.912
80598SOL    HW243692  10.993   4.105   6.968
80599SOL     OW43693   5.189  14.104   5.911
80599SOL    HW143694   5.179  14.023   5.961
80599SOL    HW243695   5.277  14.098   5.874
80600SOL     OW43696  13.402  13.182  10.972
80600SOL    HW143697  13.464  13.253  10.989
80600SOL    HW243698  13.363  13.164  11.057
80601SOL     OW43699  10.612  10.367   9.619
80601SOL    HW143700  10.534  10.405   9.576
80601SOL    HW243701  10.578  10.295   9.671
80602SOL     OW43702  13.163  11.452   2.046
80602SOL    HW143703  13.199  11.486   2.128
80602SOL    HW243704  13.073  11.485   2.044
80603SOL     OW43705   9.162   4.400  13.737
80603SOL    HW143706   9.152   4.337  13.808
80603SOL    HW243707   9.136   4.484  13.775
80604SOL     OW43708   7.494  13.653   5.657
80604SOL    HW143709   7.577  13.650   5.609
80604SOL    HW243710   7.427  13.657   5.589
80605SOL     OW43711  14.429   3.853  10.278
80605SOL    HW143712  14.341   3.883  10.302
80605SOL    HW243713  14.415   3.787  10.210
80606SOL     OW43714  11.189   8.398   0.505
80606SOL    HW143715  11.096   8.413   0.488
80606SOL    HW243716  11.210   8.321   0.453
80607SOL     OW43717   1.961   2.947   0.233
80607SOL    HW143718   2.056   2.944   0.244
80607SOL    HW243719   1.926   2.927   0.320
80608SOL     OW43720  14.745   7.170   3.822
80608SOL    HW143721  14.730   7.187   3.915
80608SOL    HW243722  14.829   7.124   3.820
80609SOL     OW43723  14.799   5.408   9.348
80609SOL    HW143724  14.826   5.486   9.397
80609SOL    HW243725  14.836   5.335   9.397
80610SOL     OW43726  10.838   5.975   2.259
80610SOL    HW143727  10.786   5.896   2.244
80610SOL    HW243728  10.903   5.949   2.324
80611SOL     OW43729  10.871  14.551   6.007
80611SOL    HW143730  10.892  14.640   6.034
80611SOL    HW243731  10.776  14.545   6.012
80612SOL     OW43732   4.944  12.119   5.829
80612SOL    HW143733   4.940  12.182   5.900
80612SOL    HW243734   4.885  12.049   5.856
80613SOL     OW43735  10.695   1.327   5.765
80613SOL    HW143736  10.725   1.251   5.714
80613SOL    HW243737  10.622   1.293   5.816
80614SOL     OW43738   1.578  10.384   0.530
80614SOL    HW143739   1.650  10.392   0.468
80614SOL    HW243740   1.614  10.334   0.603
80615SOL     OW43741   7.828   5.727   6.026
80615SOL    HW143742   7.762   5.791   5.998
80615SOL    HW243743   7.780   5.667   6.084
80616SOL     OW43744   9.363   7.573   8.323
80616SOL    HW143745   9.417   7.643   8.358
80616SOL    HW243746   9.275   7.593   8.353
80617SOL     OW43747   7.369   1.896   2.897
80617SOL    HW143748   7.434   1.826   2.889
80617SOL    HW243749   7.402   1.951   2.968
80618SOL     OW43750   7.333   5.137   6.782
80618SOL    HW143751   7.354   5.217   6.831
80618SOL    HW243752   7.238   5.138   6.775
80619SOL     OW43753   7.532  10.795   4.231
80619SOL    HW143754   7.518  10.702   4.244
80619SOL    HW243755   7.464  10.822   4.169
80620SOL     OW43756   1.132  13.109  14.419
80620SOL    HW143757   1.046  13.077  14.395
80620SOL    HW243758   1.116  13.175  14.486
80621SOL     OW43759   6.525   4.751  14.729
80621SOL    HW143760   6.474   4.687  14.680
80621SOL    HW243761   6.536   4.825  14.668
80622SOL     OW43762  13.138   5.564  11.877
80622SOL    HW143763  13.098   5.539  11.794
80622SOL    HW243764  13.144   5.483  11.926
80623SOL     OW43765   6.940   5.866   4.158
80623SOL    HW143766   6.891   5.792   4.122
80623SOL    HW243767   6.938   5.852   4.253
80624SOL     OW43768   0.848   8.128   1.012
80624SOL    HW143769   0.831   8.064   1.081
80624SOL    HW243770   0.763   8.167   0.993
80625SOL     OW43771   1.136   4.876  12.266
80625SOL    HW143772   1.208   4.859  12.327
80625SOL    HW243773   1.059   4.842  12.311
80626SOL     OW43774   6.770  14.656   0.406
80626SOL    HW143775   6.792  14.573   0.446
80626SOL    HW243776   6.803  14.722   0.467
80627SOL     OW43777   4.464  10.481   7.684
80627SOL    HW143778   4.542  10.500   7.737
80627SOL    HW243779   4.441  10.391   7.708
80628SOL     OW43780  12.965   4.344   1.345
80628SOL    HW143781  12.915   4.306   1.417
80628SOL    HW243782  12.899   4.371   1.281
80629SOL     OW43783   9.710  13.241   3.230
80629SOL    HW143784   9.790  13.238   3.281
80629SOL    HW243785   9.640  13.240   3.295
80630SOL     OW43786  11.698  14.682   9.514
80630SOL    HW143787  11.663  14.600   9.479
80630SOL    HW243788  11.793  14.674   9.504
80631SOL     OW43789   0.170   3.688   5.019
80631SOL    HW143790   0.122   3.769   5.000
80631SOL    HW243791   0.191   3.652   4.933
80632SOL     OW43792   4.113  11.665  10.820
80632SOL    HW143793   4.113  11.760  10.835
80632SOL    HW243794   4.032  11.649  10.771
80633SOL     OW43795  13.949  10.403   7.534
80633SOL    HW143796  13.899  10.357   7.602
80633SOL    HW243797  13.962  10.491   7.569
80634SOL     OW43798   7.808  12.477   0.876
80634SOL    HW143799   7.736  12.455   0.818
80634SOL    HW243800   7.773  12.548   0.931
80635SOL     OW43801  12.542   2.840   1.958
80635SOL    HW143802  12.548   2.814   1.866
80635SOL    HW243803  12.578   2.929   1.960
80636SOL     OW43804  13.389  10.492  12.009
80636SOL    HW143805  13.458  10.552  11.979
80636SOL    HW243806  13.308  10.530  11.974
80637SOL     OW43807   2.430  14.837   7.009
80637SOL    HW143808   2.341  14.869   6.992
80637SOL    HW243809   2.486   0.040   6.987
80638SOL     OW43810   7.614   1.804  12.189
80638SOL    HW143811   7.699   1.760  12.196
80638SOL    HW243812   7.586   1.788  12.099
80639SOL     OW43813   9.718   2.926  14.768
80639SOL    HW143814   9.693   3.017  14.754
80639SOL    HW243815   9.810   2.930  14.793
80640SOL     OW43816  13.199   2.825  13.103
80640SOL    HW143817  13.216   2.884  13.029
80640SOL    HW243818  13.233   2.873  13.179
80641SOL     OW43819   6.831   6.133   4.065
80641SOL    HW143820   6.851   6.139   4.158
80641SOL    HW243821   6.891   6.066   4.032
80642SOL     OW43822   8.956   2.849  11.063
80642SOL    HW143823   8.861   2.841  11.066
80642SOL    HW243824   8.976   2.918  11.125
80643SOL     OW43825   7.322  10.126  13.394
80643SOL    HW143826   7.415  10.144  13.385
80643SOL    HW243827   7.309  10.114  13.489
80644SOL     OW43828  13.074  13.776   9.608
80644SOL    HW143829  13.116  13.787   9.523
80644SOL    HW243830  13.041  13.863   9.630
80645SOL     OW43831   2.956   3.239   0.269
80645SOL    HW143832   3.005   3.292   0.207
80645SOL    HW243833   2.967   3.283   0.353
80646SOL     OW43834  11.357   3.635   2.656
80646SOL    HW143835  11.408   3.681   2.589
80646SOL    HW243836  11.415   3.632   2.733
80647SOL     OW43837  13.845  10.537   4.180
80647SOL    HW143838  13.899  10.609   4.147
80647SOL    HW243839  13.908  10.472   4.211
80648SOL     OW43840   1.962   5.032  12.887
80648SOL    HW143841   1.902   5.046  12.961
80648SOL    HW243842   2.024   4.966  12.919
80649SOL     OW43843   0.967   7.437   6.472
80649SOL    HW143844   0.893   7.496   6.487
80649SOL    HW243845   0.940   7.355   6.512
80650SOL     OW43846  10.266   7.559   7.987
80650SOL    HW143847  10.327   7.521   8.051
80650SOL    HW243848  10.323   7.600   7.922
80651SOL     OW43849  13.607   1.323   3.824
80651SOL    HW143850  13.599   1.376   3.903
80651SOL    HW243851  13.662   1.249   3.850
80652SOL     OW43852  11.453   0.595   6.636
80652SOL    HW143853  11.543   0.572   6.657
80652SOL    HW243854  11.404   0.514   6.650
80653SOL     OW43855   5.446  10.846   9.807
80653SOL    HW143856   5.397  10.765   9.817
80653SOL    HW243857   5.472  10.870   9.896
80654SOL     OW43858  13.138   0.025   3.248
80654SOL    HW143859  13.104   0.083   3.179
80654SOL    HW243860  13.213   0.072   3.284
80655SOL     OW43861  10.756  14.525   6.354
80655SOL    HW143862  10.726  14.449   6.404
80655SOL    HW243863  10.692  14.593   6.373
80656SOL     OW43864   7.392   6.321   0.517
80656SOL    HW143865   7.466   6.338   0.575
80656SOL    HW243866   7.409   6.375   0.440
80657SOL     OW43867   9.267   5.175  10.341
80657SOL    HW143868   9.323   5.251  10.327
80657SOL    HW243869   9.189   5.193  10.290
80658SOL     OW43870   8.893   6.321   0.822
80658SOL    HW143871   8.849   6.262   0.761
80658SOL    HW243872   8.985   6.316   0.798
80659SOL     OW43873  13.333   8.057  11.344
80659SOL    HW143874  13.406   8.014  11.298
80659SOL    HW243875  13.359   8.149  11.349
80660SOL     OW43876   8.023   3.886  13.578
80660SOL    HW143877   7.969   3.813  13.609
80660SOL    HW243878   7.960   3.954  13.555
80661SOL     OW43879   8.455   7.933  11.408
80661SOL    HW143880   8.535   7.968  11.446
80661SOL    HW243881   8.462   7.838  11.420
80662SOL     OW43882   3.255   9.396   2.482
80662SOL    HW143883   3.249   9.306   2.512
80662SOL    HW243884   3.300   9.442   2.553
80663SOL     OW43885  14.551   5.431   6.327
80663SOL    HW143886  14.600   5.414   6.247
80663SOL    HW243887  14.573   5.522   6.349
80664SOL     OW43888  12.919   9.651  10.592
80664SOL    HW143889  12.964   9.629  10.511
80664SOL    HW243890  12.975   9.615  10.661
80665SOL     OW43891   1.017   9.567   9.869
80665SOL    HW143892   0.944   9.629   9.875
80665SOL    HW243893   0.976   9.481   9.872
80666SOL     OW43894   3.018   6.240  13.675
80666SOL    HW143895   2.982   6.305  13.614
80666SOL    HW243896   3.034   6.163  13.620
80667SOL     OW43897   7.511   4.772   2.939
80667SOL    HW143898   7.576   4.804   2.877
80667SOL    HW243899   7.563   4.724   3.005
80668SOL     OW43900   0.982   9.303   4.113
80668SOL    HW143901   0.938   9.322   4.195
80668SOL    HW243902   0.960   9.212   4.094
80669SOL     OW43903   0.401   0.469   2.466
80669SOL    HW143904   0.456   0.390   2.467
80669SOL    HW243905   0.314   0.437   2.488
80670SOL     OW43906   1.138  13.601   4.506
80670SOL    HW143907   1.204  13.540   4.538
80670SOL    HW243908   1.055  13.554   4.517
80671SOL     OW43909   9.669   3.936   1.121
80671SOL    HW143910   9.664   3.859   1.064
80671SOL    HW243911   9.763   3.944   1.141
80672SOL     OW43912  11.453  10.300  10.703
80672SOL    HW143913  11.510  10.361  10.749
80672SOL    HW243914  11.433  10.233  10.767
80673SOL     OW43915  12.482   6.952   8.566
80673SOL    HW143916  12.542   6.918   8.632
80673SOL    HW243917  12.517   7.038   8.544
80674SOL     OW43918   3.355   8.424   5.968
80674SOL    HW143919   3.431   8.384   6.010
80674SOL    HW243920   3.317   8.480   6.036
80675SOL     OW43921   2.672  13.671  11.751
80675SOL    HW143922   2.702  13.585  11.723
80675SOL    HW243923   2.685  13.727  11.674
80676SOL     OW43924   9.707  12.349   9.265
80676SOL    HW143925   9.758  12.371   9.187
80676SOL    HW243926   9.753  12.274   9.303
80677SOL     OW43927  12.115   5.450  13.773
80677SOL    HW143928  12.142   5.358  13.773
80677SOL    HW243929  12.181   5.494  13.719
80678SOL     OW43930   0.059   2.969   7.596
80678SOL    HW143931   0.089   2.965   7.506
80678SOL    HW243932   0.121   3.028   7.640
80679SOL     OW43933   8.083   0.177   5.324
80679SOL    HW143934   8.002   0.206   5.281
80679SOL    HW243935   8.140   0.254   5.324
80680SOL     OW43936   9.807   5.216   8.783
80680SOL    HW143937   9.872   5.254   8.842
80680SOL    HW243938   9.814   5.269   8.703
80681SOL     OW43939   0.543   6.257  11.614
80681SOL    HW143940   0.506   6.175  11.648
80681SOL    HW243941   0.579   6.234  11.529
80682SOL     OW43942   1.033   4.083   7.665
80682SOL    HW143943   1.092   4.075   7.590
80682SOL    HW243944   0.964   4.142   7.636
80683SOL     OW43945  10.003   3.894   3.557
80683SOL    HW143946   9.908   3.896   3.552
80683SOL    HW243947  10.023   3.906   3.650
80684SOL     OW43948  14.657   8.423   3.846
80684SOL    HW143949  14.613   8.507   3.857
80684SOL    HW243950  14.699   8.428   3.760
80685SOL     OW43951   2.095  11.344   0.229
80685SOL    HW143952   2.169  11.386   0.273
80685SOL    HW243953   2.135  11.285   0.166
80686SOL     OW43954  11.778   3.983   3.661
80686SOL    HW143955  11.778   4.060   3.718
80686SOL    HW243956  11.870   3.957   3.656
80687SOL     OW43957   4.484  14.519  10.938
80687SOL    HW143958   4.492  14.587  10.871
80687SOL    HW243959   4.390  14.507  10.948
80688SOL     OW43960  10.044  10.052   9.853
80688SOL    HW143961   9.984  10.127   9.853
80688SOL    HW243962   9.986   9.976   9.847
80689SOL     OW43963   2.238   7.717   7.497
80689SOL    HW143964   2.257   7.674   7.414
80689SOL    HW243965   2.242   7.810   7.477
80690SOL     OW43966  13.543  11.729  13.506
80690SOL    HW143967  13.520  11.637  13.519
80690SOL    HW243968  13.461  11.770  13.478
80691SOL     OW43969   0.324   0.115  10.349
80691SOL    HW143970   0.267   0.085  10.278
80691SOL    HW243971   0.277   0.190  10.387
80692SOL     OW43972   7.418  12.061   2.504
80692SOL    HW143973   7.434  11.976   2.544
80692SOL    HW243974   7.373  12.041   2.422
80693SOL     OW43975   8.640  13.985  13.450
80693SOL    HW143976   8.685  14.044  13.389
80693SOL    HW243977   8.613  13.911  13.396
80694SOL     OW43978   8.950  11.856  13.284
80694SOL    HW143979   8.926  11.927  13.343
80694SOL    HW243980   8.937  11.892  13.197
80695SOL     OW43981   2.106   1.033   9.315
80695SOL    HW143982   2.034   0.971   9.305
80695SOL    HW243983   2.092   1.072   9.402
80696SOL     OW43984  13.935  11.906   6.973
80696SOL    HW143985  13.901  11.881   7.059
80696SOL    HW243986  13.952  11.824   6.928
80697SOL     OW43987   9.351   5.302   2.263
80697SOL    HW143988   9.315   5.379   2.219
80697SOL    HW243989   9.356   5.328   2.355
80698SOL     OW43990   2.350  10.668  11.124
80698SOL    HW143991   2.433  10.689  11.080
80698SOL    HW243992   2.372  10.594  11.181
80699SOL     OW43993   3.078  10.426   2.577
80699SOL    HW143994   3.017  10.467   2.639
80699SOL    HW243995   3.095  10.339   2.614
80700SOL     OW43996   4.665  10.676   1.023
80700SOL    HW143997   4.601  10.736   0.984
80700SOL    HW243998   4.654  10.689   1.118
80701SOL     OW43999  14.747  13.085  10.500
80701SOL    HW144000  14.743  13.117  10.410
80701SOL    HW244001  14.724  13.161  10.553
80702SOL     OW44002   0.882   3.644  10.583
80702SOL    HW144003   0.791   3.617  10.585
80702SOL    HW244004   0.931   3.567  10.612
80703SOL     OW44005  14.746   0.416   8.635
80703SOL    HW144006  14.836   0.395   8.609
80703SOL    HW244007  14.756   0.474   8.710
80704SOL     OW44008   1.021  14.587   0.756
80704SOL    HW144009   0.940  14.603   0.708
80704SOL    HW244010   1.048  14.499   0.730
80705SOL     OW44011   1.785   4.283   5.149
80705SOL    HW144012   1.793   4.349   5.080
80705SOL    HW244013   1.793   4.200   5.103
80706SOL     OW44014  11.248   5.394  11.595
80706SOL    HW144015  11.234   5.397  11.501
80706SOL    HW244016  11.326   5.340  11.607
80707SOL     OW44017  13.009   2.724   9.351
80707SOL    HW144018  12.941   2.767   9.298
80707SOL    HW244019  13.035   2.648   9.299
80708SOL     OW44020   9.227   2.312   0.778
80708SOL    HW144021   9.211   2.388   0.834
80708SOL    HW244022   9.254   2.350   0.694
80709SOL     OW44023   2.182   2.845  12.380
80709SOL    HW144024   2.216   2.759  12.404
80709SOL    HW244025   2.152   2.883  12.463
80710SOL     OW44026  12.492  13.431   4.752
80710SOL    HW144027  12.536  13.350   4.779
80710SOL    HW244028  12.412  13.401   4.709
80711SOL     OW44029   8.124   6.639   0.574
80711SOL    HW144030   8.169   6.646   0.658
80711SOL    HW244031   8.036   6.675   0.590
80712SOL     OW44032   7.096  12.876   1.517
80712SOL    HW144033   7.050  12.956   1.493
80712SOL    HW244034   7.153  12.902   1.589
80713SOL     OW44035   1.744   8.117  11.560
80713SOL    HW144036   1.818   8.118  11.499
80713SOL    HW244037   1.747   8.030  11.600
80714SOL     OW44038  14.721   3.941   4.591
80714SOL    HW144039  14.790   3.881   4.561
80714SOL    HW244040  14.756   4.028   4.574
80715SOL     OW44041   7.342   0.683  13.193
80715SOL    HW144042   7.341   0.745  13.120
80715SOL    HW244043   7.430   0.645  13.190
80716SOL     OW44044   2.525  10.369   5.695
80716SOL    HW144045   2.448  10.385   5.749
80716SOL    HW244046   2.539  10.275   5.700
80717SOL     OW44047   2.372   8.734   8.512
80717SOL    HW144048   2.441   8.720   8.577
80717SOL    HW244049   2.412   8.791   8.447
80718SOL     OW44050  11.277   5.801   4.142
80718SOL    HW144051  11.333   5.852   4.200
80718SOL    HW244052  11.250   5.862   4.074
80719SOL     OW44053  10.550   8.284   1.651
80719SOL    HW144054  10.609   8.211   1.631
80719SOL    HW244055  10.608   8.358   1.666
80720SOL     OW44056  14.856   7.196   4.407
80720SOL    HW144057   0.010   7.217   4.496
80720SOL    HW244058  14.812   7.275   4.375
80721SOL     OW44059  11.734  12.066  13.548
80721SOL    HW144060  11.772  11.991  13.594
80721SOL    HW244061  11.652  12.032  13.511
80722SOL     OW44062   3.816   6.388  11.462
80722SOL    HW144063   3.809   6.312  11.519
80722SOL    HW244064   3.838   6.352  11.376
80723SOL     OW44065   2.115   1.620   7.705
80723SOL    HW144066   2.025   1.587   7.700
80723SOL    HW244067   2.128   1.669   7.624
80724SOL     OW44068   1.181   4.432   5.775
80724SOL    HW144069   1.099   4.431   5.725
80724SOL    HW244070   1.225   4.512   5.747
80725SOL     OW44071   9.585  11.591   0.496
80725SOL    HW144072   9.512  11.649   0.518
80725SOL    HW244073   9.549  11.503   0.507
80726SOL     OW44074   4.128  13.271   1.386
80726SOL    HW144075   4.118  13.260   1.291
80726SOL    HW244076   4.222  13.280   1.399
80727SOL     OW44077  12.013  14.364   8.391
80727SOL    HW144078  12.030  14.445   8.438
80727SOL    HW244079  12.018  14.388   8.298
80728SOL     OW44080   4.352   4.512   7.070
80728SOL    HW144081   4.390   4.599   7.063
80728SOL    HW244082   4.372   4.483   7.159
80729SOL     OW44083   9.788   0.231   4.630
80729SOL    HW144084   9.864   0.222   4.687
80729SOL    HW244085   9.765   0.141   4.606
80730SOL     OW44086   3.737   0.552  11.108
80730SOL    HW144087   3.760   0.644  11.114
80730SOL    HW244088   3.813   0.506  11.143
80731SOL     OW44089   5.782   4.079   8.347
80731SOL    HW144090   5.843   4.043   8.412
80731SOL    HW244091   5.795   4.025   8.269
80732SOL     OW44092   3.002  13.374   1.261
80732SOL    HW144093   2.963  13.333   1.183
80732SOL    HW244094   2.929  13.420   1.302
80733SOL     OW44095  10.869  13.075  13.801
80733SOL    HW144096  10.824  13.051  13.882
80733SOL    HW244097  10.821  13.029  13.732
80734SOL     OW44098  12.181  14.459  14.467
80734SOL    HW144099  12.169  14.432  14.375
80734SOL    HW244100  12.103  14.510  14.487
80735SOL     OW44101  11.424   2.347   6.044
80735SOL    HW144102  11.495   2.353   5.979
80735SOL    HW244103  11.466   2.309   6.121
80736SOL     OW44104   4.933   9.255   1.983
80736SOL    HW144105   4.974   9.297   1.908
80736SOL    HW244106   4.975   9.296   2.059
80737SOL     OW44107   2.491   9.296   8.246
80737SOL    HW144108   2.454   9.272   8.331
80737SOL    HW244109   2.585   9.280   8.255
80738SOL     OW44110  13.167   2.629   5.383
80738SOL    HW144111  13.170   2.718   5.418
80738SOL    HW244112  13.097   2.631   5.318
80739SOL     OW44113  14.427   7.587  13.082
80739SOL    HW144114  14.368   7.661  13.072
80739SOL    HW244115  14.449   7.587  13.176
80740SOL     OW44116   3.714   1.958   4.636
80740SOL    HW144117   3.647   2.013   4.595
80740SOL    HW244118   3.664   1.897   4.691
80741SOL     OW44119  13.585   4.033   0.696
80741SOL    HW144120  13.507   4.038   0.751
80741SOL    HW244121  13.648   4.091   0.738
80742SOL     OW44122   2.280   7.541   5.996
80742SOL    HW144123   2.363   7.494   6.007
80742SOL    HW244124   2.305   7.633   5.992
80743SOL     OW44125   6.448  14.415   3.706
80743SOL    HW144126   6.386  14.456   3.766
80743SOL    HW244127   6.397  14.347   3.662
80744SOL     OW44128   5.776   1.549   1.625
80744SOL    HW144129   5.844   1.614   1.640
80744SOL    HW244130   5.798   1.477   1.685
80745SOL     OW44131  14.520   8.493   0.360
80745SOL    HW144132  14.498   8.400   0.353
80745SOL    HW244133  14.537   8.506   0.453
80746SOL     OW44134   0.704  11.360  10.546
80746SOL    HW144135   0.768  11.353  10.476
80746SOL    HW244136   0.753  11.339  10.626
80747SOL     OW44137   5.264   5.980   3.249
80747SOL    HW144138   5.314   5.965   3.169
80747SOL    HW244139   5.330   6.000   3.315
80748SOL     OW44140  13.322   8.084  13.997
80748SOL    HW144141  13.345   7.992  13.981
80748SOL    HW244142  13.396   8.133  13.961
80749SOL     OW44143  13.863   2.514  13.863
80749SOL    HW144144  13.820   2.465  13.793
80749SOL    HW244145  13.839   2.468  13.943
80750SOL     OW44146  10.646   7.965   3.861
80750SOL    HW144147  10.626   7.878   3.827
80750SOL    HW244148  10.607   7.967   3.948
80751SOL     OW44149  10.523  11.019  14.283
80751SOL    HW144150  10.530  11.077  14.207
80751SOL    HW244151  10.503  11.077  14.356
80752SOL     OW44152   3.251   0.832   9.735
80752SOL    HW144153   3.253   0.894   9.807
80752SOL    HW244154   3.342   0.807   9.721
80753SOL     OW44155   2.906   6.087   5.879
80753SOL    HW144156   2.815   6.113   5.893
80753SOL    HW244157   2.936   6.057   5.965
80754SOL     OW44158  14.272   0.774  14.441
80754SOL    HW144159  14.225   0.851  14.474
80754SOL    HW244160  14.203   0.711  14.419
80755SOL     OW44161  12.567  14.365   6.299
80755SOL    HW144162  12.554  14.271   6.287
80755SOL    HW244163  12.547  14.381   6.391
80756SOL     OW44164   3.186   6.453   3.839
80756SOL    HW144165   3.170   6.525   3.900
80756SOL    HW244166   3.236   6.389   3.890
80757SOL     OW44167  14.238   1.516  14.434
80757SOL    HW144168  14.298   1.498  14.506
80757SOL    HW244169  14.232   1.433  14.386
80758SOL     OW44170  11.807   1.926   8.305
80758SOL    HW144171  11.717   1.911   8.275
80758SOL    HW244172  11.798   1.943   8.399
80759SOL     OW44173   2.937   0.259  11.688
80759SOL    HW144174   2.913   0.298  11.604
80759SOL    HW244175   2.948   0.166  11.670
80760SOL     OW44176  13.505  13.252   3.532
80760SOL    HW144177  13.495  13.244   3.627
80760SOL    HW244178  13.528  13.344   3.519
80761SOL     OW44179   0.442  12.673   5.623
80761SOL    HW144180   0.507  12.637   5.563
80761SOL    HW244181   0.392  12.735   5.570
80762SOL     OW44182  12.934   1.465   4.602
80762SOL    HW144183  12.904   1.555   4.590
80762SOL    HW244184  12.984   1.468   4.684
80763SOL     OW44185   2.860   8.551  14.541
80763SOL    HW144186   2.851   8.457  14.558
80763SOL    HW244187   2.876   8.589  14.628
80764SOL     OW44188  10.649   3.839   9.362
80764SOL    HW144189  10.555   3.850   9.381
80764SOL    HW244190  10.684   3.928   9.365
80765SOL     OW44191   1.804   1.791   3.850
80765SOL    HW144192   1.894   1.759   3.849
80765SOL    HW244193   1.750   1.712   3.862
80766SOL     OW44194  12.154   1.124   2.969
80766SOL    HW144195  12.210   1.199   2.949
80766SOL    HW244196  12.134   1.086   2.884
80767SOL     OW44197  13.572   3.879  10.623
80767SOL    HW144198  13.594   3.899  10.532
80767SOL    HW244199  13.657   3.873  10.667
80768SOL     OW44200  14.197   2.469   3.704
80768SOL    HW144201  14.202   2.527   3.628
80768SOL    HW244202  14.159   2.388   3.669
80769SOL     OW44203  10.661   7.829   6.150
80769SOL    HW144204  10.612   7.847   6.070
80769SOL    HW244205  10.686   7.915   6.183
80770SOL     OW44206   5.173  10.859  10.030
80770SOL    HW144207   5.106  10.811  10.078
80770SOL    HW244208   5.187  10.938  10.082
80771SOL     OW44209  10.975   8.817   6.071
80771SOL    HW144210  11.026   8.848   6.146
80771SOL    HW244211  10.893   8.866   6.077
80772SOL     OW44212  10.176   9.227   7.330
80772SOL    HW144213  10.131   9.303   7.294
80772SOL    HW244214  10.211   9.181   7.254
80773SOL     OW44215   7.795   3.317   5.855
80773SOL    HW144216   7.847   3.398   5.852
80773SOL    HW244217   7.833   3.262   5.787
80774SOL     OW44218   8.535   7.191  10.710
80774SOL    HW144219   8.568   7.138  10.783
80774SOL    HW244220   8.600   7.260  10.700
80775SOL     OW44221  13.717   8.974   7.064
80775SOL    HW144222  13.742   9.052   7.113
80775SOL    HW244223  13.703   9.005   6.974
80776SOL     OW44224  10.411   9.577   1.747
80776SOL    HW144225  10.504   9.579   1.721
80776SOL    HW244226  10.369   9.637   1.686
80777SOL     OW44227   7.520   0.249   4.289
80777SOL    HW144228   7.571   0.303   4.350
80777SOL    HW244229   7.430   0.279   4.302
80778SOL     OW44230   6.472  14.586   4.792
80778SOL    HW144231   6.518  14.620   4.715
80778SOL    HW244232   6.501  14.495   4.798
80779SOL     OW44233   9.344   1.417   8.652
80779SOL    HW144234   9.311   1.506   8.667
80779SOL    HW244235   9.417   1.408   8.713
80780SOL     OW44236   4.966  13.604  10.706
80780SOL    HW144237   5.003  13.542  10.769
80780SOL    HW244238   4.872  13.588  10.710
80781SOL     OW44239   4.539   4.988  11.241
80781SOL    HW144240   4.579   4.941  11.314
80781SOL    HW244241   4.506   5.069  11.279
80782SOL     OW44242   1.767   6.936   0.800
80782SOL    HW144243   1.698   6.956   0.736
80782SOL    HW244244   1.808   6.856   0.766
80783SOL     OW44245  11.285   6.109   7.645
80783SOL    HW144246  11.210   6.083   7.700
80783SOL    HW244247  11.350   6.141   7.707
80784SOL     OW44248  12.220   5.308   7.264
80784SOL    HW144249  12.216   5.356   7.182
80784SOL    HW244250  12.129   5.301   7.294
80785SOL     OW44251   4.057  12.262   8.067
80785SOL    HW144252   4.079  12.336   8.010
80785SOL    HW244253   4.038  12.302   8.152
80786SOL     OW44254   5.513   1.597   1.282
80786SOL    HW144255   5.520   1.611   1.376
80786SOL    HW244256   5.591   1.547   1.259
80787SOL     OW44257   0.052   1.693  11.516
80787SOL    HW144258  14.849   1.748  11.537
80787SOL    HW244259   0.047   1.620  11.578
80788SOL     OW44260   9.892   3.685  14.354
80788SOL    HW144261   9.918   3.763  14.402
80788SOL    HW244262   9.842   3.633  14.417
80789SOL     OW44263   9.783   1.757   9.601
80789SOL    HW144264   9.754   1.732   9.513
80789SOL    HW244265   9.729   1.833   9.623
80790SOL     OW44266   2.656   8.878  14.343
80790SOL    HW144267   2.593   8.950  14.342
80790SOL    HW244268   2.731   8.912  14.392
80791SOL     OW44269   4.457   9.522  11.202
80791SOL    HW144270   4.437   9.472  11.282
80791SOL    HW244271   4.385   9.500  11.143
80792SOL     OW44272   4.790   3.459   7.208
80792SOL    HW144273   4.883   3.435   7.215
80792SOL    HW244274   4.768   3.441   7.117
80793SOL     OW44275  12.074   8.810   4.926
80793SOL    HW144276  12.109   8.782   5.011
80793SOL    HW244277  12.119   8.755   4.862
80794SOL     OW44278  13.173   5.578  12.882
80794SOL    HW144279  13.145   5.496  12.841
80794SOL    HW244280  13.268   5.577  12.875
80795SOL     OW44281   1.883   9.568   5.184
80795SOL    HW144282   1.909   9.647   5.136
80795SOL    HW244283   1.960   9.510   5.177
80796SOL     OW44284   5.695   9.227   2.238
80796SOL    HW144285   5.784   9.246   2.268
80796SOL    HW244286   5.642   9.229   2.318
80797SOL     OW44287   2.987   5.122  13.038
80797SOL    HW144288   2.892   5.135  13.043
80797SOL    HW244289   3.015   5.182  12.968
80798SOL     OW44290  10.644  11.435   1.160
80798SOL    HW144291  10.641  11.340   1.152
80798SOL    HW244292  10.560  11.459   1.198
80799SOL     OW44293  10.180   1.790   9.776
80799SOL    HW144294  10.251   1.771   9.715
80799SOL    HW244295  10.224   1.823   9.855
80800SOL     OW44296   0.855  13.065   8.448
80800SOL    HW144297   0.803  13.021   8.515
80800SOL    HW244298   0.945  13.037   8.465
80801SOL     OW44299   1.775   1.060   1.022
80801SOL    HW144300   1.700   1.116   1.043
80801SOL    HW244301   1.744   0.971   1.039
80802SOL     OW44302  10.596  11.515  12.952
80802SOL    HW144303  10.513  11.558  12.929
80802SOL    HW244304  10.596  11.512  13.047
80803SOL     OW44305   8.942   2.884   7.418
80803SOL    HW144306   9.002   2.958   7.411
80803SOL    HW244307   8.859   2.922   7.444
80804SOL     OW44308   8.591   1.384   4.520
80804SOL    HW144309   8.626   1.296   4.508
80804SOL    HW244310   8.581   1.420   4.432
80805SOL     OW44311   1.366   8.425   4.837
80805SOL    HW144312   1.375   8.336   4.871
80805SOL    HW244313   1.355   8.479   4.916
80806SOL     OW44314   5.628  12.881   4.749
80806SOL    HW144315   5.638  12.973   4.770
80806SOL    HW244316   5.627  12.837   4.834
80807SOL     OW44317  10.585   0.022   5.040
80807SOL    HW144318  10.567   0.035   4.947
80807SOL    HW244319  10.503  14.859   5.076
80808SOL     OW44320   5.770   8.768   9.817
80808SOL    HW144321   5.686   8.747   9.778
80808SOL    HW244322   5.797   8.849   9.775
80809SOL     OW44323   1.772   3.309  14.657
80809SOL    HW144324   1.766   3.391  14.608
80809SOL    HW244325   1.864   3.302  14.681
80810SOL     OW44326   2.982  11.871  14.747
80810SOL    HW144327   3.015  11.956  14.777
80810SOL    HW244328   3.032  11.853  14.667
80811SOL     OW44329   9.794  11.149   5.188
80811SOL    HW144330   9.863  11.184   5.244
80811SOL    HW244331   9.723  11.127   5.248
80812SOL     OW44332  12.297   3.444   0.734
80812SOL    HW144333  12.205   3.419   0.743
80812SOL    HW244334  12.345   3.382   0.788
80813SOL     OW44335   8.435   8.983  12.753
80813SOL    HW144336   8.500   9.042  12.714
80813SOL    HW244337   8.400   9.032  12.827
80814SOL     OW44338  12.189   9.510  13.979
80814SOL    HW144339  12.142   9.582  13.937
80814SOL    HW244340  12.257   9.486  13.916
80815SOL     OW44341  10.293   2.024   0.125
80815SOL    HW144342  10.355   1.991   0.060
80815SOL    HW244343  10.220   2.058   0.073
80816SOL     OW44344   4.077   2.015   5.660
80816SOL    HW144345   4.058   1.923   5.677
80816SOL    HW244346   4.102   2.051   5.745
80817SOL     OW44347  12.470   4.200   3.780
80817SOL    HW144348  12.485   4.147   3.701
80817SOL    HW244349  12.547   4.184   3.834
80818SOL     OW44350  12.711  12.191  10.977
80818SOL    HW144351  12.628  12.207  10.933
80818SOL    HW244352  12.688  12.135  11.052
80819SOL     OW44353   2.750  11.738   2.776
80819SOL    HW144354   2.740  11.665   2.836
80819SOL    HW244355   2.797  11.702   2.701
80820SOL     OW44356   0.286   8.043   5.587
80820SOL    HW144357   0.208   8.064   5.639
80820SOL    HW244358   0.347   8.005   5.650
80821SOL     OW44359   2.983  11.370   6.933
80821SOL    HW144360   2.987  11.425   7.011
80821SOL    HW244361   2.895  11.331   6.935
80822SOL     OW44362   8.682   4.756   8.568
80822SOL    HW144363   8.764   4.806   8.565
80822SOL    HW244364   8.628   4.804   8.631
80823SOL     OW44365   0.686  11.066  11.805
80823SOL    HW144366   0.668  11.160  11.805
80823SOL    HW244367   0.603  11.025  11.779
80824SOL     OW44368   0.607   2.692  11.910
80824SOL    HW144369   0.662   2.679  11.987
80824SOL    HW244370   0.598   2.787  11.902
80825SOL     OW44371   3.332   7.346  11.932
80825SOL    HW144372   3.389   7.423  11.924
80825SOL    HW244373   3.382   7.275  11.890
80826SOL     OW44374  13.737  12.407   1.253
80826SOL    HW144375  13.661  12.359   1.220
80826SOL    HW244376  13.758  12.363   1.336
80827SOL     OW44377   9.630  10.433   3.363
80827SOL    HW144378   9.668  10.392   3.286
80827SOL    HW244379   9.563  10.371   3.393
80828SOL     OW44380  14.848  12.021   7.766
80828SOL    HW144381  14.870  11.969   7.689
80828SOL    HW244382   0.061  12.053   7.799
80829SOL     OW44383   5.034   7.864  11.546
80829SOL    HW144384   5.114   7.863  11.493
80829SOL    HW244385   5.046   7.937  11.606
80830SOL     OW44386   4.549   8.407  14.707
80830SOL    HW144387   4.534   8.318  14.740
80830SOL    HW244388   4.492   8.415  14.631
80831SOL     OW44389   6.126   4.520   7.127
80831SOL    HW144390   6.079   4.496   7.047
80831SOL    HW244391   6.117   4.615   7.133
80832SOL     OW44392  13.009  14.872  11.126
80832SOL    HW144393  13.065   0.041  11.192
80832SOL    HW244394  13.068  14.814  11.078
80833SOL     OW44395  12.047   4.970   9.844
80833SOL    HW144396  12.134   4.974   9.804
80833SOL    HW244397  11.986   4.969   9.770
80834SOL     OW44398   2.110  12.075   3.857
80834SOL    HW144399   2.153  12.141   3.802
80834SOL    HW244400   2.017  12.097   3.852
80835SOL     OW44401   6.001   6.847   3.929
80835SOL    HW144402   5.967   6.766   3.891
80835SOL    HW244403   6.096   6.837   3.926
80836SOL     OW44404   6.472  10.859   7.002
80836SOL    HW144405   6.417  10.832   7.077
80836SOL    HW244406   6.539  10.791   6.996
80837SOL     OW44407   8.080   5.097   6.266
80837SOL    HW144408   8.040   5.025   6.218
80837SOL    HW244409   8.086   5.067   6.356
80838SOL     OW44410   8.412   7.881   2.521
80838SOL    HW144411   8.469   7.864   2.596
80838SOL    HW244412   8.330   7.912   2.560
80839SOL     OW44413  11.597   2.299   4.157
80839SOL    HW144414  11.519   2.260   4.119
80839SOL    HW244415  11.661   2.227   4.158
80840SOL     OW44416   3.289   6.495   6.535
80840SOL    HW144417   3.302   6.538   6.619
80840SOL    HW244418   3.374   6.499   6.492
80841SOL     OW44419  10.699  10.536   0.812
80841SOL    HW144420  10.720  10.516   0.721
80841SOL    HW244421  10.724  10.628   0.822
80842SOL     OW44422  12.070   7.112  14.835
80842SOL    HW144423  12.158   7.087  14.865
80842SOL    HW244424  12.024   7.136   0.043
80843SOL     OW44425   8.589   1.981   6.780
80843SOL    HW144426   8.535   2.057   6.801
80843SOL    HW244427   8.618   1.996   6.691
80844SOL     OW44428   7.533   1.456   0.123
80844SOL    HW144429   7.615   1.424   0.086
80844SOL    HW244430   7.559   1.530   0.178
80845SOL     OW44431   6.100   0.431   3.381
80845SOL    HW144432   6.113   0.412   3.473
80845SOL    HW244433   6.005   0.435   3.370
80846SOL     OW44434   7.842   0.504  10.296
80846SOL    HW144435   7.871   0.419  10.329
80846SOL    HW244436   7.749   0.494  10.279
80847SOL     OW44437   2.926  11.415   8.823
80847SOL    HW144438   2.961  11.375   8.744
80847SOL    HW244439   2.838  11.378   8.833
80848SOL     OW44440  13.244   5.984   9.486
80848SOL    HW144441  13.282   5.998   9.399
80848SOL    HW244442  13.210   5.894   9.483
80849SOL     OW44443   8.079   5.312  11.647
80849SOL    HW144444   8.148   5.249  11.625
80849SOL    HW244445   8.022   5.265  11.708
80850SOL     OW44446   9.900  14.302   2.657
80850SOL    HW144447   9.812  14.306   2.695
80850SOL    HW244448   9.886  14.265   2.570
80851SOL     OW44449   0.856   7.264  12.151
80851SOL    HW144450   0.818   7.339  12.197
80851SOL    HW244451   0.842   7.282  12.058
80852SOL     OW44452   8.279   7.352   5.385
80852SOL    HW144453   8.214   7.335   5.454
80852SOL    HW244454   8.240   7.423   5.333
80853SOL     OW44455   1.253   7.810  12.147
80853SOL    HW144456   1.340   7.775  12.130
80853SOL    HW244457   1.253   7.832  12.240
80854SOL     OW44458  14.538   8.650   3.898
80854SOL    HW144459  14.603   8.719   3.886
80854SOL    HW244460  14.457   8.697   3.918
80855SOL     OW44461  10.144   1.180   7.456
80855SOL    HW144462  10.203   1.108   7.438
80855SOL    HW244463  10.056   1.141   7.452
80856SOL     OW44464  14.285   4.870   1.303
80856SOL    HW144465  14.306   4.958   1.333
80856SOL    HW244466  14.190   4.863   1.315
80857SOL     OW44467   6.214   1.558   1.583
80857SOL    HW144468   6.219   1.507   1.502
80857SOL    HW244469   6.301   1.599   1.590
80858SOL     OW44470   7.688  10.817   5.503
80858SOL    HW144471   7.609  10.789   5.456
80858SOL    HW244472   7.751  10.839   5.434
80859SOL     OW44473   0.593   6.198   7.449
80859SOL    HW144474   0.610   6.292   7.458
80859SOL    HW244475   0.679   6.160   7.432
80860SOL     OW44476   6.620  13.457   4.540
80860SOL    HW144477   6.681  13.385   4.528
80860SOL    HW244478   6.629  13.482   4.632
80861SOL     OW44479   0.405  14.299  12.993
80861SOL    HW144480   0.459  14.262  12.923
80861SOL    HW244481   0.451  14.276  13.073
80862SOL     OW44482  11.905   9.255   1.660
80862SOL    HW144483  11.913   9.178   1.716
80862SOL    HW244484  11.816   9.288   1.677
80863SOL     OW44485   7.411   4.578   0.836
80863SOL    HW144486   7.496   4.622   0.831
80863SOL    HW244487   7.381   4.572   0.745
80864SOL     OW44488  14.368   1.546   5.168
80864SOL    HW144489  14.343   1.637   5.185
80864SOL    HW244490  14.457   1.539   5.199
80865SOL     OW44491  14.229   2.095   3.529
80865SOL    HW144492  14.140   2.098   3.563
80865SOL    HW244493  14.240   2.178   3.482
80866SOL     OW44494  10.003  12.186  14.126
80866SOL    HW144495   9.962  12.249  14.185
80866SOL    HW244496  10.080  12.155  14.174
80867SOL     OW44497   6.989  14.262  11.184
80867SOL    HW144498   6.895  14.250  11.177
80867SOL    HW244499   7.000  14.326  11.255
80868SOL     OW44500  10.999   3.738  14.775
80868SOL    HW144501  10.974   3.648  14.759
80868SOL    HW244502  10.929   3.790  14.735
80869SOL     OW44503  14.083   8.968   5.219
80869SOL    HW144504  14.145   8.962   5.291
80869SOL    HW244505  14.047   9.056   5.225
80870SOL     OW44506  10.584   9.248   9.799
80870SOL    HW144507  10.523   9.289   9.860
80870SOL    HW244508  10.627   9.180   9.850
80871SOL     OW44509  12.682   1.940   1.209
80871SOL    HW144510  12.622   1.930   1.282
80871SOL    HW244511  12.716   1.852   1.193
80872SOL     OW44512   0.475  11.065   6.396
80872SOL    HW144513   0.569  11.054   6.381
80872SOL    HW244514   0.435  10.993   6.347
80873SOL     OW44515   3.870  12.479   9.653
80873SOL    HW144516   3.860  12.515   9.565
80873SOL    HW244517   3.924  12.401   9.642
80874SOL     OW44518  12.036  13.647  11.421
80874SOL    HW144519  11.976  13.721  11.418
80874SOL    HW244520  12.047  13.621  11.330
80875SOL     OW44521   0.578  14.556   1.216
80875SOL    HW144522   0.576  14.571   1.121
80875SOL    HW244523   0.543  14.637   1.254
80876SOL     OW44524  10.048   9.169   3.516
80876SOL    HW144525   9.988   9.218   3.573
80876SOL    HW244526   9.993   9.139   3.444
80877SOL     OW44527   8.817   3.142   0.620
80877SOL    HW144528   8.825   3.185   0.705
80877SOL    HW244529   8.804   3.214   0.558
80878SOL     OW44530  11.096  11.076   9.200
80878SOL    HW144531  11.104  11.091   9.294
80878SOL    HW244532  11.165  11.013   9.180
80879SOL     OW44533   1.271  11.046   7.956
80879SOL    HW144534   1.344  11.045   7.894
80879SOL    HW244535   1.200  11.001   7.911
80880SOL     OW44536   6.853   2.690   5.685
80880SOL    HW144537   6.848   2.733   5.770
80880SOL    HW244538   6.838   2.761   5.622
80881SOL     OW44539  13.923  14.057   7.327
80881SOL    HW144540  13.963  14.042   7.241
80881SOL    HW244541  13.894  13.970   7.355
80882SOL     OW44542   6.578   5.676   9.282
80882SOL    HW144543   6.514   5.740   9.313
80882SOL    HW244544   6.610   5.713   9.200
80883SOL     OW44545   3.549   1.859   7.049
80883SOL    HW144546   3.620   1.922   7.058
80883SOL    HW244547   3.470   1.909   7.068
80884SOL     OW44548  11.965   1.653   2.186
80884SOL    HW144549  11.975   1.673   2.280
80884SOL    HW244550  12.018   1.719   2.142
80885SOL     OW44551   0.063  10.025  13.965
80885SOL    HW144552   0.131  10.066  13.911
80885SOL    HW244553   0.021   9.961  13.907
80886SOL     OW44554  10.014   2.092   6.932
80886SOL    HW144555  10.008   2.146   7.011
80886SOL    HW244556   9.968   2.011   6.954
80887SOL     OW44557  10.579   4.573   2.700
80887SOL    HW144558  10.625   4.538   2.624
80887SOL    HW244559  10.567   4.497   2.757
80888SOL     OW44560   0.561   5.779  10.391
80888SOL    HW144561   0.498   5.750  10.325
80888SOL    HW244562   0.555   5.874  10.391
80889SOL     OW44563  10.694   7.728   0.889
80889SOL    HW144564  10.664   7.674   0.963
80889SOL    HW244565  10.619   7.782   0.866
80890SOL     OW44566   0.997  14.615   7.954
80890SOL    HW144567   1.080  14.646   7.990
80890SOL    HW244568   1.001  14.637   7.861
80891SOL     OW44569   2.288  12.040   7.235
80891SOL    HW144570   2.259  12.121   7.277
80891SOL    HW244571   2.279  12.058   7.141
80892SOL     OW44572  14.702   0.026  10.115
80892SOL    HW144573  14.712  14.811  10.153
80892SOL    HW244574  14.712   0.086  10.189
80893SOL     OW44575  13.439   2.188  14.296
80893SOL    HW144576  13.522   2.231  14.316
80893SOL    HW244577  13.448   2.162  14.204
80894SOL     OW44578   6.691   2.957  13.088
80894SOL    HW144579   6.610   2.990  13.127
80894SOL    HW244580   6.704   3.011  13.010
80895SOL     OW44581  14.496  13.702   8.288
80895SOL    HW144582  14.521  13.794   8.286
80895SOL    HW244583  14.410  13.700   8.329
80896SOL     OW44584   3.784   4.435   2.533
80896SOL    HW144585   3.737   4.377   2.474
80896SOL    HW244586   3.717   4.493   2.569
80897SOL     OW44587  13.316   5.084   1.329
80897SOL    HW144588  13.253   5.090   1.257
80897SOL    HW244589  13.269   5.118   1.405
80898SOL     OW44590   5.950   7.967  13.086
80898SOL    HW144591   6.013   8.013  13.140
80898SOL    HW244592   5.912   8.036  13.031
80899SOL     OW44593   4.231   1.542  10.694
80899SOL    HW144594   4.310   1.505  10.656
80899SOL    HW244595   4.202   1.476  10.757
80900SOL     OW44596   3.120  12.372  11.233
80900SOL    HW144597   3.111  12.334  11.146
80900SOL    HW244598   3.074  12.312  11.290
80901SOL     OW44599  12.094   8.090   6.550
80901SOL    HW144600  12.056   8.004   6.528
80901SOL    HW244601  12.086   8.096   6.645
80902SOL     OW44602  11.852   6.121   1.893
80902SOL    HW144603  11.845   6.138   1.799
80902SOL    HW244604  11.772   6.158   1.930
80903SOL     OW44605   7.604  12.877   3.037
80903SOL    HW144606   7.595  12.798   3.089
80903SOL    HW244607   7.604  12.948   3.101
80904SOL     OW44608  14.328   7.126   7.526
80904SOL    HW144609  14.389   7.112   7.599
80904SOL    HW244610  14.382   7.167   7.458
80905SOL     OW44611   2.799   2.982   7.306
80905SOL    HW144612   2.840   2.973   7.392
80905SOL    HW244613   2.705   2.969   7.323
80906SOL     OW44614   1.831   8.247  13.177
80906SOL    HW144615   1.922   8.216  13.180
80906SOL    HW244616   1.779   8.171  13.205
80907SOL     OW44617  14.758  12.353   1.155
80907SOL    HW144618  14.784  12.438   1.189
80907SOL    HW244619  14.682  12.329   1.207
80908SOL     OW44620   9.978   8.744   8.131
80908SOL    HW144621  10.009   8.662   8.093
80908SOL    HW244622   9.959   8.722   8.222
80909SOL     OW44623   9.837   2.018   5.468
80909SOL    HW144624   9.844   1.984   5.557
80909SOL    HW244625   9.756   2.070   5.469
80910SOL     OW44626   7.905   7.686   4.805
80910SOL    HW144627   7.945   7.706   4.889
80910SOL    HW244628   7.821   7.732   4.806
80911SOL     OW44629   7.286   3.986   5.179
80911SOL    HW144630   7.348   4.053   5.151
80911SOL    HW244631   7.211   3.997   5.121
80912SOL     OW44632  13.817  10.364  12.502
80912SOL    HW144633  13.838  10.294  12.440
80912SOL    HW244634  13.774  10.431  12.450
80913SOL     OW44635  11.333   9.134  13.868
80913SOL    HW144636  11.250   9.087  13.872
80913SOL    HW244637  11.358   9.130  13.776
80914SOL     OW44638   0.671  14.663   3.473
80914SOL    HW144639   0.747  14.639   3.421
80914SOL    HW244640   0.598  14.618   3.431
80915SOL     OW44641   8.414   3.704   5.982
80915SOL    HW144642   8.450   3.616   5.971
80915SOL    HW244643   8.466   3.743   6.051
80916SOL     OW44644   2.766   8.967   8.576
80916SOL    HW144645   2.791   8.875   8.586
80916SOL    HW244646   2.713   8.986   8.653
80917SOL     OW44647  13.428  12.090  13.913
80917SOL    HW144648  13.395  12.144  13.985
80917SOL    HW244649  13.393  12.003  13.931
80918SOL     OW44650   7.551  14.272   0.470
80918SOL    HW144651   7.491  14.198   0.479
80918SOL    HW244652   7.622  14.254   0.533
80919SOL     OW44653   2.699   0.764   3.998
80919SOL    HW144654   2.696   0.728   3.910
80919SOL    HW244655   2.623   0.822   4.004
80920SOL     OW44656  13.644  13.469   5.081
80920SOL    HW144657  13.676  13.406   5.145
80920SOL    HW244658  13.684  13.442   4.998
80921SOL     OW44659   4.307   1.435   1.096
80921SOL    HW144660   4.255   1.357   1.116
80921SOL    HW244661   4.262   1.506   1.141
80922SOL     OW44662   5.325   5.404   6.148
80922SOL    HW144663   5.405   5.394   6.096
80922SOL    HW244664   5.329   5.332   6.212
80923SOL     OW44665   1.742  13.179   0.695
80923SOL    HW144666   1.674  13.147   0.635
80923SOL    HW244667   1.731  13.127   0.774
80924SOL     OW44668   5.494   3.889  10.867
80924SOL    HW144669   5.501   3.818  10.931
80924SOL    HW244670   5.408   3.876  10.827
80925SOL     OW44671   9.346   6.984   4.180
80925SOL    HW144672   9.387   6.917   4.235
80925SOL    HW244673   9.351   7.064   4.232
80926SOL     OW44674   7.229   7.952  10.289
80926SOL    HW144675   7.249   8.007  10.364
80926SOL    HW244676   7.258   7.865  10.314
80927SOL     OW44677  12.305  12.880   6.848
80927SOL    HW144678  12.377  12.895   6.909
80927SOL    HW244679  12.255  12.808   6.886
80928SOL     OW44680  10.583   4.822  13.466
80928SOL    HW144681  10.548   4.739  13.498
80928SOL    HW244682  10.511   4.861  13.417
80929SOL     OW44683  10.411   7.160  10.845
80929SOL    HW144684  10.361   7.149  10.926
80929SOL    HW244685  10.414   7.255  10.831
80930SOL     OW44686   6.412   1.659   4.830
80930SOL    HW144687   6.481   1.634   4.892
80930SOL    HW244688   6.344   1.699   4.885
80931SOL     OW44689   5.957  11.437   1.229
80931SOL    HW144690   5.911  11.357   1.201
80931SOL    HW244691   5.931  11.449   1.320
80932SOL     OW44692   6.066   2.062   9.181
80932SOL    HW144693   6.134   2.124   9.208
80932SOL    HW244694   5.997   2.073   9.246
80933SOL     OW44695  12.608   9.182   4.748
80933SOL    HW144696  12.678   9.208   4.688
80933SOL    HW244697  12.529   9.221   4.713
80934SOL     OW44698  10.663  10.631   9.909
80934SOL    HW144699  10.629  10.685   9.980
80934SOL    HW244700  10.684  10.547   9.949
80935SOL     OW44701  13.308   3.286  10.145
80935SOL    HW144702  13.401   3.302  10.157
80935SOL    HW244703  13.268   3.313  10.228
80936SOL     OW44704   7.702   6.340   1.062
80936SOL    HW144705   7.784   6.336   1.012
80936SOL    HW244706   7.730   6.363   1.151
80937SOL     OW44707   6.669  10.732   4.472
80937SOL    HW144708   6.629  10.740   4.559
80937SOL    HW244709   6.719  10.814   4.462
80938SOL     OW44710   0.164   8.769  10.454
80938SOL    HW144711   0.111   8.800  10.528
80938SOL    HW244712   0.181   8.847  10.402
80939SOL     OW44713  14.822   9.198   6.044
80939SOL    HW144714  14.863   9.275   6.083
80939SOL    HW244715  14.852   9.198   5.953
80940SOL     OW44716   2.404   3.254   9.354
80940SOL    HW144717   2.475   3.318   9.343
80940SOL    HW244718   2.366   3.246   9.266
80941SOL     OW44719   6.710   4.172   3.039
80941SOL    HW144720   6.631   4.129   3.072
80941SOL    HW244721   6.764   4.100   3.006
80942SOL     OW44722  10.904   6.978   6.581
80942SOL    HW144723  10.995   6.965   6.554
80942SOL    HW244724  10.886   7.070   6.557
80943SOL     OW44725   3.820   4.525   5.224
80943SOL    HW144726   3.837   4.618   5.208
80943SOL    HW244727   3.745   4.524   5.283
80944SOL     OW44728  10.235   3.509   6.076
80944SOL    HW144729  10.144   3.490   6.097
80944SOL    HW244730  10.238   3.511   5.981
80945SOL     OW44731   5.510   3.470  14.267
80945SOL    HW144732   5.478   3.557  14.289
80945SOL    HW244733   5.596   3.485  14.228
80946SOL     OW44734   2.490   5.385   4.127
80946SOL    HW144735   2.492   5.342   4.212
80946SOL    HW244736   2.528   5.471   4.142
80947SOL     OW44737  13.383   6.019  14.475
80947SOL    HW144738  13.329   5.955  14.520
80947SOL    HW244739  13.335   6.101  14.481
80948SOL     OW44740   9.370   4.777  11.615
80948SOL    HW144741   9.319   4.718  11.559
80948SOL    HW244742   9.441   4.807  11.558
80949SOL     OW44743   7.658   4.458   9.193
80949SOL    HW144744   7.642   4.547   9.222
80949SOL    HW244745   7.702   4.467   9.108
80950SOL     OW44746  13.268   8.723  10.893
80950SOL    HW144747  13.285   8.753  10.983
80950SOL    HW244748  13.191   8.773  10.866
80951SOL     OW44749   4.212   2.508  12.017
80951SOL    HW144750   4.207   2.516  12.112
80951SOL    HW244751   4.247   2.421  12.002
80952SOL     OW44752   1.905   5.579  14.780
80952SOL    HW144753   1.894   5.487  14.756
80952SOL    HW244754   1.816   5.615  14.781
80953SOL     OW44755   6.073   6.859  12.051
80953SOL    HW144756   6.098   6.951  12.042
80953SOL    HW244757   6.140   6.811  12.003
80954SOL     OW44758  12.664   3.628   7.946
80954SOL    HW144759  12.667   3.620   7.851
80954SOL    HW244760  12.573   3.653   7.965
80955SOL     OW44761   3.935  12.884   6.783
80955SOL    HW144762   3.893  12.938   6.716
80955SOL    HW244763   4.029  12.897   6.769
80956SOL     OW44764   2.825   2.181   4.411
80956SOL    HW144765   2.904   2.132   4.391
80956SOL    HW244766   2.849   2.272   4.394
80957SOL     OW44767  13.639   5.987   8.023
80957SOL    HW144768  13.647   5.892   8.035
80957SOL    HW244769  13.581   6.015   8.094
80958SOL     OW44770   8.125   8.157   9.954
80958SOL    HW144771   8.097   8.102  10.027
80958SOL    HW244772   8.195   8.108   9.911
80959SOL     OW44773   8.941   8.442   0.762
80959SOL    HW144774   8.851   8.474   0.761
80959SOL    HW244775   8.933   8.349   0.741
80960SOL     OW44776  12.638   2.022  12.169
80960SOL    HW144777  12.722   2.010  12.214
80960SOL    HW244778  12.616   2.114  12.185
80961SOL     OW44779   5.781   4.504  10.797
80961SOL    HW144780   5.750   4.491  10.708
80961SOL    HW244781   5.768   4.597  10.814
80962SOL     OW44782   4.608   0.475  10.712
80962SOL    HW144783   4.548   0.413  10.753
80962SOL    HW244784   4.676   0.491  10.778
80963SOL     OW44785   8.588   7.488   0.777
80963SOL    HW144786   8.606   7.452   0.863
80963SOL    HW244787   8.508   7.444   0.749
80964SOL     OW44788  14.099   7.973   2.346
80964SOL    HW144789  14.099   7.914   2.271
80964SOL    HW244790  14.116   7.917   2.421
80965SOL     OW44791   5.832  11.483   5.149
80965SOL    HW144792   5.867  11.547   5.211
80965SOL    HW244793   5.881  11.500   5.068
80966SOL     OW44794   0.429  13.422  13.043
80966SOL    HW144795   0.407  13.506  13.082
80966SOL    HW244796   0.437  13.362  13.118
80967SOL     OW44797  10.239   3.755   2.426
80967SOL    HW144798  10.331   3.729   2.433
80967SOL    HW244799  10.189   3.675   2.441
80968SOL     OW44800  14.769  13.672   2.269
80968SOL    HW144801  14.803  13.637   2.352
80968SOL    HW244802  14.751  13.595   2.216
80969SOL     OW44803   6.208  12.948   4.932
80969SOL    HW144804   6.254  12.907   4.859
80969SOL    HW244805   6.115  12.946   4.907
80970SOL     OW44806  14.823   3.357   1.088
80970SOL    HW144807  14.789   3.396   1.168
80970SOL    HW244808   0.045   3.344   1.105
80971SOL     OW44809   1.060   8.239   3.920
80971SOL    HW144810   1.062   8.295   3.998
80971SOL    HW244811   1.107   8.288   3.853
80972SOL     OW44812   3.332   5.886  11.610
80972SOL    HW144813   3.394   5.845  11.669
80972SOL    HW244814   3.246   5.863  11.645
80973SOL     OW44815   9.661   8.550   2.588
80973SOL    HW144816   9.589   8.551   2.526
80973SOL    HW244817   9.620   8.566   2.673
80974SOL     OW44818   7.309  12.094   3.637
80974SOL    HW144819   7.371  12.126   3.572
80974SOL    HW244820   7.346  12.121   3.721
80975SOL     OW44821   5.523   8.337  10.956
80975SOL    HW144822   5.455   8.344  11.022
80975SOL    HW244823   5.596   8.388  10.992
80976SOL     OW44824   8.266   4.596   8.107
80976SOL    HW144825   8.220   4.610   8.024
80976SOL    HW244826   8.205   4.545   8.160
80977SOL     OW44827   6.771   4.784   0.814
80977SOL    HW144828   6.859   4.813   0.839
80977SOL    HW244829   6.727   4.767   0.898
80978SOL     OW44830   6.357  12.818   1.463
80978SOL    HW144831   6.444  12.821   1.424
80978SOL    HW244832   6.306  12.883   1.414
80979SOL     OW44833  14.151  10.182   4.150
80979SOL    HW144834  14.170  10.145   4.063
80979SOL    HW244835  14.233  10.172   4.198
80980SOL     OW44836   5.353   8.474   2.314
80980SOL    HW144837   5.261   8.498   2.331
80980SOL    HW244838   5.390   8.550   2.269
80981SOL     OW44839  12.233   7.401  13.664
80981SOL    HW144840  12.228   7.472  13.600
80981SOL    HW244841  12.246   7.322  13.612
80982SOL     OW44842   0.145   8.267  13.961
80982SOL    HW144843   0.084   8.284  13.890
80982SOL    HW244844   0.096   8.215  14.024
80983SOL     OW44845  11.890   5.740   7.851
80983SOL    HW144846  11.876   5.655   7.893
80983SOL    HW244847  11.979   5.734   7.815
80984SOL     OW44848   0.770  11.022  14.818
80984SOL    HW144849   0.675  11.030  14.824
80984SOL    HW244850   0.801  11.034   0.036
80985SOL     OW44851   6.842   8.467   0.287
80985SOL    HW144852   6.858   8.480   0.193
80985SOL    HW244853   6.772   8.530   0.307
80986SOL     OW44854   9.297   9.490   5.114
80986SOL    HW144855   9.366   9.524   5.170
80986SOL    HW244856   9.252   9.425   5.168
80987SOL     OW44857   3.456  12.229   8.235
80987SOL    HW144858   3.544  12.235   8.271
80987SOL    HW244859   3.398  12.241   8.310
80988SOL     OW44860   4.816   5.273   7.556
80988SOL    HW144861   4.906   5.254   7.584
80988SOL    HW244862   4.777   5.186   7.543
80989SOL     OW44863   9.902   5.857   6.549
80989SOL    HW144864   9.844   5.902   6.487
80989SOL    HW244865   9.906   5.767   6.517
80990SOL     OW44866   7.445   6.529   1.121
80990SOL    HW144867   7.382   6.478   1.171
80990SOL    HW244868   7.529   6.484   1.134
80991SOL     OW44869  10.195   3.319   0.561
80991SOL    HW144870  10.229   3.390   0.507
80991SOL    HW244871  10.194   3.354   0.650
80992SOL     OW44872  11.871   2.801   6.615
80992SOL    HW144873  11.898   2.732   6.676
80992SOL    HW244874  11.854   2.877   6.671
80993SOL     OW44875   5.661   0.082   5.834
80993SOL    HW144876   5.641   0.132   5.754
80993SOL    HW244877   5.728   0.135   5.879
80994SOL     OW44878  10.183   1.928   0.808
80994SOL    HW144879  10.186   1.897   0.717
80994SOL    HW244880  10.102   1.892   0.843
80995SOL     OW44881  12.507  12.697   3.218
80995SOL    HW144882  12.427  12.709   3.268
80995SOL    HW244883  12.576  12.694   3.285
80996SOL     OW44884   2.940   3.044  11.922
80996SOL    HW144885   2.912   2.963  11.881
80996SOL    HW244886   2.870   3.106  11.903
80997SOL     OW44887   0.803   3.418  12.600
80997SOL    HW144888   0.737   3.366  12.554
80997SOL    HW244889   0.754   3.466  12.666
80998SOL     OW44890   6.602   2.191   0.480
80998SOL    HW144891   6.656   2.113   0.480
80998SOL    HW244892   6.535   2.174   0.546
80999SOL     OW44893  14.866   1.020   2.536
80999SOL    HW144894   0.057   1.019   2.463
80999SOL    HW244895  14.821   1.104   2.528
81000SOL     OW44896   9.266   8.143   0.701
81000SOL    HW144897   9.189   8.104   0.660
81000SOL    HW244898   9.280   8.225   0.653
81001SOL     OW44899   3.629   8.643  11.883
81001SOL    HW144900   3.594   8.731  11.894
81001SOL    HW244901   3.563   8.586  11.923
81002SOL     OW44902   1.593   7.934   2.363
81002SOL    HW144903   1.562   7.847   2.339
81002SOL    HW244904   1.540   7.958   2.439
81003SOL     OW44905   9.814  10.866   9.462
81003SOL    HW144906   9.758  10.897   9.533
81003SOL    HW244907   9.768  10.790   9.426
81004SOL     OW44908  11.669   2.378   2.782
81004SOL    HW144909  11.708   2.404   2.698
81004SOL    HW244910  11.612   2.452   2.806
81005SOL     OW44911   7.547  13.920  12.796
81005SOL    HW144912   7.536  13.998  12.742
81005SOL    HW244913   7.533  13.847  12.735
81006SOL     OW44914   1.410   2.413  11.445
81006SOL    HW144915   1.340   2.355  11.475
81006SOL    HW244916   1.445   2.370  11.367
81007SOL     OW44917   7.345   1.668   1.142
81007SOL    HW144918   7.308   1.604   1.081
81007SOL    HW244919   7.313   1.640   1.228
81008SOL     OW44920   4.926  14.646   7.746
81008SOL    HW144921   5.010  14.602   7.755
81008SOL    HW244922   4.869  14.581   7.703
81009SOL     OW44923   7.453   3.150   5.526
81009SOL    HW144924   7.468   3.107   5.442
81009SOL    HW244925   7.493   3.236   5.517
81010SOL     OW44926  13.704   4.047  11.410
81010SOL    HW144927  13.664   4.025  11.494
81010SOL    HW244928  13.637   4.096  11.363
81011SOL     OW44929   8.038   3.208  11.777
81011SOL    HW144930   8.065   3.298  11.760
81011SOL    HW244931   8.115   3.155  11.754
81012SOL     OW44932   5.905   0.166  14.438
81012SOL    HW144933   5.935   0.097  14.379
81012SOL    HW244934   5.913   0.247  14.388
81013SOL     OW44935   9.146   5.374  12.714
81013SOL    HW144936   9.082   5.346  12.649
81013SOL    HW244937   9.123   5.465  12.734
81014SOL     OW44938   0.488  12.057  10.288
81014SOL    HW144939   0.537  12.099  10.217
81014SOL    HW244940   0.445  12.129  10.334
81015SOL     OW44941   2.271   6.765   3.113
81015SOL    HW144942   2.228   6.714   3.181
81015SOL    HW244943   2.342   6.708   3.082
81016SOL     OW44944   2.064   9.101   0.523
81016SOL    HW144945   2.084   9.093   0.430
81016SOL    HW244946   2.104   9.024   0.563
81017SOL     OW44947  10.241   1.179   9.432
81017SOL    HW144948  10.210   1.102   9.479
81017SOL    HW244949  10.308   1.217   9.490
81018SOL     OW44950   1.977   2.341   6.037
81018SOL    HW144951   1.932   2.426   6.029
81018SOL    HW244952   2.064   2.363   6.071
81019SOL     OW44953   7.777  11.692   0.531
81019SOL    HW144954   7.783  11.786   0.519
81019SOL    HW244955   7.690  11.678   0.569
81020SOL     OW44956   4.028   3.951  13.405
81020SOL    HW144957   3.976   3.976  13.329
81020SOL    HW244958   3.978   3.983  13.480
81021SOL     OW44959   1.355   0.187   0.323
81021SOL    HW144960   1.434   0.222   0.281
81021SOL    HW244961   1.308   0.143   0.252
81022SOL     OW44962   7.660   3.920  13.094
81022SOL    HW144963   7.649   3.861  13.168
81022SOL    HW244964   7.594   3.988  13.108
81023SOL     OW44965   7.173   0.015   7.803
81023SOL    HW144966   7.146  14.816   7.862
81023SOL    HW244967   7.102   0.021   7.738
81024SOL     OW44968  14.831   5.468   7.969
81024SOL    HW144969  14.758   5.524   7.944
81024SOL    HW244970   0.037   5.520   7.948
81025SOL     OW44971   8.457   2.650   4.399
81025SOL    HW144972   8.526   2.587   4.422
81025SOL    HW244973   8.383   2.626   4.455
81026SOL     OW44974   7.645  11.590   5.785
81026SOL    HW144975   7.692  11.644   5.849
81026SOL    HW244976   7.557  11.628   5.781
81027SOL     OW44977   4.186   7.519   2.963
81027SOL    HW144978   4.182   7.433   3.003
81027SOL    HW244979   4.271   7.522   2.919
81028SOL     OW44980   3.479   8.462  12.014
81028SOL    HW144981   3.498   8.488  12.104
81028SOL    HW244982   3.405   8.402  12.022
81029SOL     OW44983   5.420   9.585   8.206
81029SOL    HW144984   5.452   9.651   8.267
81029SOL    HW244985   5.429   9.626   8.120
81030SOL     OW44986   1.236   0.243   3.204
81030SOL    HW144987   1.195   0.162   3.232
81030SOL    HW244988   1.192   0.311   3.256
81031SOL     OW44989  12.554   2.270   7.177
81031SOL    HW144990  12.559   2.358   7.215
81031SOL    HW244991  12.497   2.221   7.236
81032SOL     OW44992   6.265   5.689   6.735
81032SOL    HW144993   6.185   5.742   6.734
81032SOL    HW244994   6.303   5.706   6.822
81033SOL     OW44995   6.440   7.966  12.529
81033SOL    HW144996   6.421   7.872  12.528
81033SOL    HW244997   6.517   7.975  12.585
81034SOL     OW44998  12.780   2.465  10.467
81034SOL    HW144999  12.790   2.390  10.526
81034SOL    HW245000  12.817   2.435  10.384
81035SOL     OW45001   4.858   1.955   5.295
81035SOL    HW145002   4.827   1.892   5.229
81035SOL    HW245003   4.868   2.037   5.248
81036SOL     OW45004   3.667  12.563  13.861
81036SOL    HW145005   3.725  12.631  13.898
81036SOL    HW245006   3.675  12.489  13.921
81037SOL     OW45007   2.558  10.223   6.522
81037SOL    HW145008   2.596  10.159   6.582
81037SOL    HW245009   2.615  10.221   6.445
81038SOL     OW45010   6.147  12.028   5.711
81038SOL    HW145011   6.101  12.010   5.793
81038SOL    HW245012   6.077  12.053   5.650
81039SOL     OW45013  11.356  10.888   0.075
81039SOL    HW145014  11.376  10.803   0.035
81039SOL    HW245015  11.387  10.952   0.011
81040SOL     OW45016   9.028   6.807   9.854
81040SOL    HW145017   8.947   6.784   9.808
81040SOL    HW245018   9.087   6.834   9.784
81041SOL     OW45019  10.042   7.314   8.357
81041SOL    HW145020   9.972   7.266   8.311
81041SOL    HW245021  10.055   7.265   8.438
81042SOL     OW45022  12.926   5.782   4.609
81042SOL    HW145023  12.886   5.761   4.524
81042SOL    HW245024  12.937   5.697   4.651
81043SOL     OW45025   9.337   8.307   9.065
81043SOL    HW145026   9.416   8.289   9.116
81043SOL    HW245027   9.349   8.256   8.985
81044SOL     OW45028   0.886  14.135   1.937
81044SOL    HW145029   0.933  14.160   1.858
81044SOL    HW245030   0.794  14.145   1.915
81045SOL     OW45031   5.627   2.310   1.125
81045SOL    HW145032   5.648   2.306   1.031
81045SOL    HW245033   5.540   2.350   1.129
81046SOL     OW45034   5.650   3.621  10.985
81046SOL    HW145035   5.682   3.610  10.896
81046SOL    HW245036   5.708   3.566  11.038
81047SOL     OW45037   0.267  13.513  14.225
81047SOL    HW145038   0.338  13.539  14.166
81047SOL    HW245039   0.190  13.557  14.189
81048SOL     OW45040   5.345  13.852   9.267
81048SOL    HW145041   5.401  13.929   9.270
81048SOL    HW245042   5.354  13.819   9.177
81049SOL     OW45043   4.255   4.214   7.858
81049SOL    HW145044   4.259   4.241   7.767
81049SOL    HW245045   4.189   4.144   7.860
81050SOL     OW45046   9.357   4.213   7.498
81050SOL    HW145047   9.377   4.121   7.478
81050SOL    HW245048   9.364   4.219   7.593
81051SOL     OW45049  10.758  11.343   8.627
81051SOL    HW145050  10.837  11.379   8.587
81051SOL    HW245051  10.688  11.402   8.598
81052SOL     OW45052   7.362   3.382   0.598
81052SOL    HW145053   7.441   3.420   0.560
81052SOL    HW245054   7.293   3.447   0.579
81053SOL     OW45055  14.852   5.564   6.230
81053SOL    HW145056   0.070   5.597   6.236
81053SOL    HW245057  14.808   5.599   6.307
81054SOL     OW45058   8.885   8.149   1.401
81054SOL    HW145059   8.809   8.093   1.384
81054SOL    HW245060   8.960   8.089   1.402
81055SOL     OW45061   2.976   1.052   6.178
81055SOL    HW145062   3.044   1.020   6.118
81055SOL    HW245063   2.960   1.142   6.150
81056SOL     OW45064  11.632   6.546   2.082
81056SOL    HW145065  11.601   6.509   2.165
81056SOL    HW245066  11.602   6.637   2.084
81057SOL     OW45067   1.839   7.471   2.458
81057SOL    HW145068   1.761   7.522   2.477
81057SOL    HW245069   1.815   7.419   2.380
81058SOL     OW45070  14.799   5.320   9.099
81058SOL    HW145071  14.800   5.408   9.062
81058SOL    HW245072  14.795   5.333   9.193
81059SOL     OW45073  12.738   8.948  12.962
81059SOL    HW145074  12.686   8.891  12.906
81059SOL    HW245075  12.806   8.984  12.905
81060SOL     OW45076   6.711   9.220   6.119
81060SOL    HW145077   6.706   9.129   6.149
81060SOL    HW245078   6.625   9.239   6.082
81061SOL     OW45079   5.062   9.727   9.934
81061SOL    HW145080   5.116   9.797   9.972
81061SOL    HW245081   5.068   9.656   9.998
81062SOL     OW45082  13.503   2.768   0.346
81062SOL    HW145083  13.413   2.737   0.334
81062SOL    HW245084  13.552   2.689   0.369
81063SOL     OW45085   5.842   3.683   3.338
81063SOL    HW145086   5.900   3.720   3.271
81063SOL    HW245087   5.838   3.590   3.318
81064SOL     OW45088   2.526  13.901   6.397
81064SOL    HW145089   2.480  13.859   6.470
81064SOL    HW245090   2.613  13.922   6.433
81065SOL     OW45091   1.705   9.822   9.657
81065SOL    HW145092   1.619   9.810   9.698
81065SOL    HW245093   1.690   9.885   9.587
81066SOL     OW45094   2.065   1.212  13.908
81066SOL    HW145095   2.062   1.229  14.003
81066SOL    HW245096   2.061   1.299  13.869
81067SOL     OW45097  12.638   0.745  12.434
81067SOL    HW145098  12.550   0.733  12.470
81067SOL    HW245099  12.653   0.667  12.381
81068SOL     OW45100   1.043  10.092   9.934
81068SOL    HW145101   1.041  10.163   9.870
81068SOL    HW245102   1.052  10.012   9.882
81069SOL     OW45103   5.208   1.200  10.924
81069SOL    HW145104   5.234   1.109  10.912
81069SOL    HW245105   5.224   1.242  10.839
81070SOL     OW45106   2.131   3.082  14.505
81070SOL    HW145107   2.116   3.147  14.574
81070SOL    HW245108   2.155   3.133  14.428
81071SOL     OW45109   0.561  14.147   4.587
81071SOL    HW145110   0.652  14.160   4.563
81071SOL    HW245111   0.515  14.219   4.543
81072SOL     OW45112   2.932  13.929   4.697
81072SOL    HW145113   2.899  14.018   4.691
81072SOL    HW245114   3.017  13.932   4.653
81073SOL     OW45115  13.656   9.947   7.633
81073SOL    HW145116  13.663  10.032   7.677
81073SOL    HW245117  13.582   9.958   7.573
81074SOL     OW45118   1.334   1.408  11.152
81074SOL    HW145119   1.336   1.345  11.224
81074SOL    HW245120   1.241   1.427  11.139
81075SOL     OW45121   5.871   9.643   6.821
81075SOL    HW145122   5.903   9.568   6.772
81075SOL    HW245123   5.783   9.659   6.787
81076SOL     OW45124  12.712   8.074  14.311
81076SOL    HW145125  12.724   8.169  14.319
81076SOL    HW245126  12.640   8.054  14.370
81077SOL     OW45127  12.851   9.167   6.091
81077SOL    HW145128  12.802   9.085   6.089
81077SOL    HW245129  12.917   9.157   6.022
81078SOL     OW45130   2.072   4.160   1.884
81078SOL    HW145131   2.114   4.204   1.957
81078SOL    HW245132   2.106   4.203   1.806
81079SOL     OW45133  10.663   8.383  11.384
81079SOL    HW145134  10.752   8.406  11.411
81079SOL    HW245135  10.613   8.379  11.465
81080SOL     OW45136   0.028   4.979   1.568
81080SOL    HW145137   0.063   5.051   1.517
81080SOL    HW245138   0.063   4.900   1.526
81081SOL     OW45139   3.965   5.540   6.016
81081SOL    HW145140   3.980   5.596   5.939
81081SOL    HW245141   3.975   5.451   5.982
81082SOL     OW45142   1.848   3.104   9.417
81082SOL    HW145143   1.900   3.073   9.343
81082SOL    HW245144   1.890   3.066   9.493
81083SOL     OW45145   1.762  13.016  14.818
81083SOL    HW145146   1.786  12.942  14.763
81083SOL    HW245147   1.845  13.059  14.838
81084SOL     OW45148  12.126   1.324   7.316
81084SOL    HW145149  12.194   1.263   7.290
81084SOL    HW245150  12.071   1.275   7.377
81085SOL     OW45151  13.351   4.427   3.644
81085SOL    HW145152  13.343   4.515   3.609
81085SOL    HW245153  13.293   4.426   3.720
81086SOL     OW45154   5.762   4.743   5.245
81086SOL    HW145155   5.715   4.825   5.229
81086SOL    HW245156   5.736   4.687   5.172
81087SOL     OW45157   8.700   9.052   7.192
81087SOL    HW145158   8.722   9.010   7.109
81087SOL    HW245159   8.771   9.026   7.251
81088SOL     OW45160  11.525  11.380   2.436
81088SOL    HW145161  11.510  11.291   2.466
81088SOL    HW245162  11.589  11.416   2.497
81089SOL     OW45163  11.204   8.830  13.621
81089SOL    HW145164  11.209   8.756  13.681
81089SOL    HW245165  11.233   8.905  13.673
81090SOL     OW45166   7.128   9.261   5.387
81090SOL    HW145167   7.185   9.221   5.453
81090SOL    HW245168   7.137   9.355   5.400
81091SOL     OW45169   3.991   2.748   4.984
81091SOL    HW145170   3.898   2.767   4.980
81091SOL    HW245171   3.997   2.653   4.987
81092SOL     OW45172  11.542   9.137   0.573
81092SOL    HW145173  11.511   9.228   0.576
81092SOL    HW245174  11.492   9.097   0.502
81093SOL     OW45175   4.387   2.785  10.695
81093SOL    HW145176   4.296   2.769  10.671
81093SOL    HW245177   4.413   2.860  10.642
81094SOL     OW45178  13.759   6.869   1.240
81094SOL    HW145179  13.801   6.812   1.176
81094SOL    HW245180  13.715   6.809   1.301
81095SOL     OW45181   9.737  12.807  14.197
81095SOL    HW145182   9.780  12.886  14.231
81095SOL    HW245183   9.809  12.754  14.162
81096SOL     OW45184   1.448  11.035   5.937
81096SOL    HW145185   1.402  11.033   5.853
81096SOL    HW245186   1.411  11.110   5.983
81097SOL     OW45187  12.352   0.674   3.556
81097SOL    HW145188  12.442   0.668   3.525
81097SOL    HW245189  12.350   0.619   3.634
81098SOL     OW45190   1.532  10.619   3.485
81098SOL    HW145191   1.522  10.594   3.577
81098SOL    HW245192   1.471  10.692   3.473
81099SOL     OW45193   2.203   7.205   9.544
81099SOL    HW145194   2.188   7.299   9.546
81099SOL    HW245195   2.160   7.172   9.622
81100SOL     OW45196  10.932  14.315   4.852
81100SOL    HW145197  10.881  14.344   4.928
81100SOL    HW245198  10.871  14.263   4.800
81101SOL     OW45199   2.863   1.573  13.656
81101SOL    HW145200   2.799   1.524  13.606
81101SOL    HW245201   2.816   1.601  13.735
81102SOL     OW45202   5.278   5.977   7.673
81102SOL    HW145203   5.200   5.932   7.641
81102SOL    HW245204   5.350   5.916   7.656
81103SOL     OW45205  11.735   9.922   8.575
81103SOL    HW145206  11.642   9.919   8.554
81103SOL    HW245207  11.739   9.970   8.658
81104SOL     OW45208   7.920   1.257  10.529
81104SOL    HW145209   7.906   1.170  10.492
81104SOL    HW245210   7.849   1.310  10.494
81105SOL     OW45211  10.025   7.669  14.646
81105SOL    HW145212  10.021   7.592  14.589
81105SOL    HW245213   9.953   7.724  14.616
81106SOL     OW45214  14.871   3.445  13.546
81106SOL    HW145215  14.779   3.418  13.548
81106SOL    HW245216   0.047   3.367  13.575
81107SOL     OW45217   5.063  12.907   9.697
81107SOL    HW145218   5.056  12.864   9.783
81107SOL    HW245219   4.999  12.862   9.643
81108SOL     OW45220   4.697  10.483  12.652
81108SOL    HW145221   4.692  10.402  12.603
81108SOL    HW245222   4.695  10.552  12.585
81109SOL     OW45223  13.270   1.220  12.286
81109SOL    HW145224  13.231   1.247  12.203
81109SOL    HW245225  13.200   1.229  12.351
81110SOL     OW45226  11.472  12.583   5.567
81110SOL    HW145227  11.503  12.519   5.631
81110SOL    HW245228  11.390  12.616   5.602
81111SOL     OW45229  10.291   0.344   1.562
81111SOL    HW145230  10.324   0.276   1.502
81111SOL    HW245231  10.264   0.296   1.640
81112SOL     OW45232   8.573   1.866   8.042
81112SOL    HW145233   8.585   1.927   8.115
81112SOL    HW245234   8.559   1.923   7.966
81113SOL     OW45235   1.211   8.368   9.330
81113SOL    HW145236   1.228   8.384   9.423
81113SOL    HW245237   1.126   8.408   9.313
81114SOL     OW45238   2.123   7.603  11.011
81114SOL    HW145239   2.089   7.536  10.952
81114SOL    HW245240   2.167   7.553  11.081
81115SOL     OW45241   4.708   7.897   1.364
81115SOL    HW145242   4.663   7.975   1.397
81115SOL    HW245243   4.686   7.829   1.427
81116SOL     OW45244  14.387  14.684   2.273
81116SOL    HW145245  14.332  14.753   2.235
81116SOL    HW245246  14.438  14.729   2.340
81117SOL     OW45247   3.367  11.316   8.247
81117SOL    HW145248   3.444  11.365   8.275
81117SOL    HW245249   3.311  11.382   8.205
81118SOL     OW45250   2.617   0.028   0.083
81118SOL    HW145251   2.656   0.063   0.003
81118SOL    HW245252   2.618  14.804   0.070
81119SOL     OW45253   3.461   7.028   3.022
81119SOL    HW145254   3.368   7.013   3.038
81119SOL    HW245255   3.494   6.945   2.989
81120SOL     OW45256   9.403   7.216  10.318
81120SOL    HW145257   9.402   7.206  10.413
81120SOL    HW245258   9.440   7.303  10.304
81121SOL     OW45259   4.206   0.191  10.229
81121SOL    HW145260   4.190   0.173  10.137
81121SOL    HW245261   4.166   0.277  10.245
81122SOL     OW45262   1.871  10.707  14.509
81122SOL    HW145263   1.891  10.696  14.416
81122SOL    HW245264   1.792  10.760  14.510
81123SOL     OW45265   7.453   1.519  10.323
81123SOL    HW145266   7.439   1.602  10.368
81123SOL    HW245267   7.519   1.538  10.257
81124SOL     OW45268   4.526   3.961   7.342
81124SOL    HW145269   4.518   3.990   7.433
81124SOL    HW245270   4.597   3.896   7.344
81125SOL     OW45271  14.309   6.522   9.491
81125SOL    HW145272  14.217   6.522   9.517
81125SOL    HW245273  14.344   6.604   9.527
81126SOL     OW45274   8.904  10.259  12.347
81126SOL    HW145275   8.984  10.206  12.357
81126SOL    HW245276   8.924  10.341  12.392
81127SOL     OW45277   9.564   5.168   8.914
81127SOL    HW145278   9.640   5.190   8.860
81127SOL    HW245279   9.597   5.172   9.004
81128SOL     OW45280  11.348   6.719  11.300
81128SOL    HW145281  11.328   6.704  11.207
81128SOL    HW245282  11.427   6.772  11.299
81129SOL     OW45283   8.673  13.102   2.419
81129SOL    HW145284   8.620  13.067   2.490
81129SOL    HW245285   8.718  13.026   2.383
81130SOL     OW45286   4.544  12.250  14.572
81130SOL    HW145287   4.458  12.241  14.614
81130SOL    HW245288   4.526  12.293  14.489
81131SOL     OW45289   3.898   0.460  10.581
81131SOL    HW145290   3.936   0.515  10.650
81131SOL    HW245291   3.960   0.467  10.509
81132SOL     OW45292   6.733   0.862  12.204
81132SOL    HW145293   6.748   0.770  12.183
81132SOL    HW245294   6.821   0.899  12.212
81133SOL     OW45295   8.059   5.097   4.404
81133SOL    HW145296   8.154   5.089   4.397
81133SOL    HW245297   8.026   5.069   4.319
81134SOL     OW45298   0.600   0.716   4.347
81134SOL    HW145299   0.511   0.695   4.318
81134SOL    HW245300   0.632   0.780   4.283
81135SOL     OW45301  13.678   8.005   9.548
81135SOL    HW145302  13.638   8.027   9.632
81135SOL    HW245303  13.697   7.912   9.553
81136SOL     OW45304  14.671   6.634  10.393
81136SOL    HW145305  14.762   6.663  10.385
81136SOL    HW245306  14.675   6.556  10.448
81137SOL     OW45307  10.952   2.690  11.234
81137SOL    HW145308  11.031   2.636  11.242
81137SOL    HW245309  10.954   2.723  11.144
81138SOL     OW45310   2.075   5.983   8.450
81138SOL    HW145311   2.062   5.889   8.458
81138SOL    HW245312   2.091   6.013   8.539
81139SOL     OW45313  13.322  12.012   1.952
81139SOL    HW145314  13.262  11.939   1.941
81139SOL    HW245315  13.287  12.061   2.026
81140SOL     OW45316   2.606   7.677  10.538
81140SOL    HW145317   2.683   7.622  10.552
81140SOL    HW245318   2.543   7.647  10.604
81141SOL     OW45319  10.628  10.288   8.720
81141SOL    HW145320  10.700  10.224   8.724
81141SOL    HW245321  10.564  10.248   8.660
81142SOL     OW45322   8.327   8.127   8.506
81142SOL    HW145323   8.244   8.087   8.478
81142SOL    HW245324   8.394   8.075   8.462
81143SOL     OW45325   8.608   9.172  12.655
81143SOL    HW145326   8.699   9.145  12.649
81143SOL    HW245327   8.610   9.258  12.696
81144SOL     OW45328   4.803   4.015   7.169
81144SOL    HW145329   4.735   3.966   7.215
81144SOL    HW245330   4.827   3.960   7.095
81145SOL     OW45331   7.523   6.679   3.786
81145SOL    HW145332   7.521   6.709   3.877
81145SOL    HW245333   7.544   6.758   3.735
81146SOL     OW45334  12.889   3.235  10.864
81146SOL    HW145335  12.954   3.165  10.860
81146SOL    HW245336  12.809   3.191  10.893
81147SOL     OW45337   5.341   6.847   4.940
81147SOL    HW145338   5.433   6.823   4.932
81147SOL    HW245339   5.293   6.771   4.906
81148SOL     OW45340   2.676   9.651   4.474
81148SOL    HW145341   2.680   9.611   4.386
81148SOL    HW245342   2.764   9.638   4.510
81149SOL     OW45343  13.938   7.148  10.310
81149SOL    HW145344  14.033   7.162  10.312
81149SOL    HW245345  13.917   7.147  10.217
81150SOL     OW45346   5.843   3.169   1.895
81150SOL    HW145347   5.916   3.172   1.832
81150SOL    HW245348   5.775   3.119   1.850
81151SOL     OW45349  11.799   7.120  12.328
81151SOL    HW145350  11.721   7.091  12.281
81151SOL    HW245351  11.841   7.040  12.359
81152SOL     OW45352   2.708  11.335  10.261
81152SOL    HW145353   2.693  11.397  10.189
81152SOL    HW245354   2.692  11.249  10.222
81153SOL     OW45355  10.911  10.627  13.344
81153SOL    HW145356  10.914  10.551  13.402
81153SOL    HW245357  10.887  10.592  13.258
81154SOL     OW45358   9.410  14.507   1.146
81154SOL    HW145359   9.410  14.411   1.152
81154SOL    HW245360   9.448  14.525   1.060
81155SOL     OW45361  13.376  12.035   6.711
81155SOL    HW145362  13.365  11.943   6.736
81155SOL    HW245363  13.468  12.043   6.689
81156SOL     OW45364   0.406  12.150   5.299
81156SOL    HW145365   0.423  12.170   5.391
81156SOL    HW245366   0.419  12.055   5.292
81157SOL     OW45367   1.094   6.302   8.015
81157SOL    HW145368   1.083   6.391   7.982
81157SOL    HW245369   1.182   6.302   8.054
81158SOL     OW45370   5.402  11.885   9.201
81158SOL    HW145371   5.433  11.956   9.257
81158SOL    HW245372   5.476  11.824   9.196
81159SOL     OW45373  11.136   7.361   7.633
81159SOL    HW145374  11.134   7.426   7.563
81159SOL    HW245375  11.044   7.338   7.647
81160SOL     OW45376  11.641   8.415  11.239
81160SOL    HW145377  11.682   8.444  11.320
81160SOL    HW245378  11.627   8.495  11.188
81161SOL     OW45379   5.475   0.356   3.764
81161SOL    HW145380   5.427   0.353   3.681
81161SOL    HW245381   5.542   0.424   3.750
81162SOL     OW45382   5.868   0.426   9.128
81162SOL    HW145383   5.873   0.366   9.053
81162SOL    HW245384   5.775   0.444   9.138
81163SOL     OW45385   7.449   9.504   8.942
81163SOL    HW145386   7.399   9.567   8.995
81163SOL    HW245387   7.419   9.419   8.972
81164SOL     OW45388  12.368  11.006   5.659
81164SOL    HW145389  12.455  11.047   5.662
81164SOL    HW245390  12.343  10.997   5.750
81165SOL     OW45391   4.890   6.715   9.391
81165SOL    HW145392   4.879   6.787   9.329
81165SOL    HW245393   4.968   6.668   9.359
81166SOL     OW45394   7.548   6.098   3.419
81166SOL    HW145395   7.611   6.051   3.473
81166SOL    HW245396   7.491   6.143   3.482
81167SOL     OW45397  14.478  14.548   4.905
81167SOL    HW145398  14.494  14.635   4.942
81167SOL    HW245399  14.536  14.543   4.830
81168SOL     OW45400   6.610  14.390   1.922
81168SOL    HW145401   6.606  14.329   1.848
81168SOL    HW245402   6.528  14.439   1.917
81169SOL     OW45403   6.878  11.845   7.496
81169SOL    HW145404   6.850  11.798   7.574
81169SOL    HW245405   6.958  11.800   7.467
81170SOL     OW45406   4.358   3.272   0.898
81170SOL    HW145407   4.350   3.317   0.814
81170SOL    HW245408   4.346   3.341   0.963
81171SOL     OW45409   1.652  13.468  11.466
81171SOL    HW145410   1.745  13.455  11.485
81171SOL    HW245411   1.607  13.407  11.523
81172SOL     OW45412   4.345   7.848  11.254
81172SOL    HW145413   4.391   7.903  11.318
81172SOL    HW245414   4.338   7.763  11.298
81173SOL     OW45415   7.605   9.837   7.877
81173SOL    HW145416   7.554   9.788   7.940
81173SOL    HW245417   7.652   9.770   7.827
81174SOL     OW45418   1.276   5.468   0.754
81174SOL    HW145419   1.272   5.553   0.711
81174SOL    HW245420   1.222   5.477   0.832
81175SOL     OW45421  11.669   6.222   0.340
81175SOL    HW145422  11.668   6.211   0.245
81175SOL    HW245423  11.718   6.303   0.355
81176SOL     OW45424  13.787   7.901  13.550
81176SOL    HW145425  13.795   7.995  13.534
81176SOL    HW245426  13.804   7.891  13.644
81177SOL     OW45427  13.620   7.844   0.064
81177SOL    HW145428  13.607   7.813  14.846
81177SOL    HW245429  13.605   7.766   0.118
81178SOL     OW45430   1.960   5.348  11.280
81178SOL    HW145431   2.032   5.288  11.262
81178SOL    HW245432   1.945   5.340  11.374
81179SOL     OW45433   1.928  14.495  14.631
81179SOL    HW145434   1.905  14.431  14.563
81179SOL    HW245435   1.868  14.568  14.615
81180SOL     OW45436  14.777   5.060   9.189
81180SOL    HW145437  14.827   4.981   9.208
81180SOL    HW245438  14.843   5.128   9.175
81181SOL     OW45439   5.296   7.969  14.814
81181SOL    HW145440   5.249   7.967   0.026
81181SOL    HW245441   5.229   7.986  14.748
81182SOL     OW45442  13.033   7.256   6.773
81182SOL    HW145443  13.111   7.298   6.738
81182SOL    HW245444  13.021   7.178   6.718
81183SOL     OW45445  13.003   2.961   3.355
81183SOL    HW145446  12.987   2.877   3.311
81183SOL    HW245447  13.034   3.019   3.285
81184SOL     OW45448   2.902   2.362   1.032
81184SOL    HW145449   2.874   2.336   1.119
81184SOL    HW245450   2.984   2.410   1.046
81185SOL     OW45451   6.793   9.000  11.002
81185SOL    HW145452   6.745   9.029  10.924
81185SOL    HW245453   6.761   9.057  11.072
81186SOL     OW45454   2.929   4.779  11.107
81186SOL    HW145455   2.838   4.768  11.080
81186SOL    HW245456   2.951   4.869  11.083
81187SOL     OW45457  14.861  13.918  14.335
81187SOL    HW145458   0.065  13.965  14.298
81187SOL    HW245459   0.019  13.889  14.422
81188SOL     OW45460   6.246   2.604   4.184
81188SOL    HW145461   6.303   2.645   4.119
81188SOL    HW245462   6.265   2.652   4.265
81189SOL     OW45463  10.952   6.443  10.740
81189SOL    HW145464  10.890   6.414  10.806
81189SOL    HW245465  10.922   6.531  10.715
81190SOL     OW45466   7.316   9.015   6.466
81190SOL    HW145467   7.232   9.031   6.508
81190SOL    HW245468   7.342   8.929   6.497
81191SOL     OW45469   1.856   0.219   7.372
81191SOL    HW145470   1.858   0.142   7.316
81191SOL    HW245471   1.906   0.194   7.450
81192SOL     OW45472  14.282   7.657   1.718
81192SOL    HW145473  14.216   7.692   1.657
81192SOL    HW245474  14.318   7.735   1.760
81193SOL     OW45475   9.920   4.359   4.113
81193SOL    HW145476   9.827   4.364   4.131
81193SOL    HW245477   9.927   4.364   4.017
81194SOL     OW45478   7.049  14.681   2.016
81194SOL    HW145479   7.094  14.665   2.099
81194SOL    HW245480   6.957  14.664   2.035
81195SOL     OW45481   6.315   9.440   5.592
81195SOL    HW145482   6.346   9.362   5.638
81195SOL    HW245483   6.239   9.469   5.641
81196SOL     OW45484  10.646   7.949   1.717
81196SOL    HW145485  10.660   7.949   1.812
81196SOL    HW245486  10.721   7.996   1.681
81197SOL     OW45487   6.381   3.224   4.951
81197SOL    HW145488   6.464   3.269   4.968
81197SOL    HW245489   6.384   3.202   4.858
81198SOL     OW45490   2.779   8.332   7.544
81198SOL    HW145491   2.716   8.260   7.548
81198SOL    HW245492   2.820   8.332   7.631
81199SOL     OW45493  11.039   6.868  10.803
81199SOL    HW145494  11.097   6.858  10.728
81199SOL    HW245495  11.097   6.894  10.875
81200SOL     OW45496  11.835   6.210  13.232
81200SOL    HW145497  11.772   6.148  13.194
81200SOL    HW245498  11.824   6.290  13.181
81201SOL     OW45499  13.288   0.597   7.065
81201SOL    HW145500  13.287   0.693   7.069
81201SOL    HW245501  13.206   0.574   7.023
81202SOL     OW45502   3.862   9.518   5.074
81202SOL    HW145503   3.795   9.582   5.097
81202SOL    HW245504   3.814   9.447   5.031
81203SOL     OW45505   8.803   3.597   9.276
81203SOL    HW145506   8.721   3.620   9.233
81203SOL    HW245507   8.787   3.511   9.315
81204SOL     OW45508  13.740   0.276   6.867
81204SOL    HW145509  13.754   0.307   6.957
81204SOL    HW245510  13.772   0.349   6.813
81205SOL     OW45511   4.326   0.006   3.717
81205SOL    HW145512   4.326   0.016   3.812
81205SOL    HW245513   4.294   0.089   3.684
81206SOL     OW45514   5.343   7.372  12.823
81206SOL    HW145515   5.300   7.304  12.876
81206SOL    HW245516   5.434   7.371  12.851
81207SOL     OW45517   5.814   9.470  13.846
81207SOL    HW145518   5.859   9.518  13.777
81207SOL    HW245519   5.726   9.453  13.811
81208SOL     OW45520  13.974  13.674   8.608
81208SOL    HW145521  13.929  13.591   8.592
81208SOL    HW245522  14.024  13.658   8.688
81209SOL     OW45523  10.120   6.836   1.219
81209SOL    HW145524  10.117   6.752   1.174
81209SOL    HW245525  10.029   6.859   1.234
81210SOL     OW45526   1.098  10.693   6.055
81210SOL    HW145527   1.062  10.696   5.967
81210SOL    HW245528   1.185  10.732   6.047
81211SOL     OW45529   6.572   7.074  14.321
81211SOL    HW145530   6.636   7.007  14.345
81211SOL    HW245531   6.490   7.043  14.358
81212SOL     OW45532  12.163   5.786   7.632
81212SOL    HW145533  12.212   5.845   7.689
81212SOL    HW245534  12.209   5.789   7.549
81213SOL     OW45535   9.874  13.144   4.228
81213SOL    HW145536   9.813  13.213   4.253
81213SOL    HW245537   9.908  13.111   4.311
81214SOL     OW45538   2.377   3.416  11.922
81214SOL    HW145539   2.304   3.416  11.860
81214SOL    HW245540   2.374   3.329  11.962
81215SOL     OW45541   1.456   5.176   3.980
81215SOL    HW145542   1.424   5.259   3.945
81215SOL    HW245543   1.522   5.146   3.917
81216SOL     OW45544  11.512  11.698   0.829
81216SOL    HW145545  11.504  11.631   0.897
81216SOL    HW245546  11.475  11.658   0.751
81217SOL     OW45547  13.056   7.930   2.128
81217SOL    HW145548  12.961   7.926   2.113
81217SOL    HW245549  13.093   7.873   2.061
81218SOL     OW45550  12.939  11.184   9.505
81218SOL    HW145551  12.898  11.235   9.435
81218SOL    HW245552  12.925  11.235   9.584
81219SOL     OW45553  10.198   5.325  10.806
81219SOL    HW145554  10.224   5.254  10.747
81219SOL    HW245555  10.109   5.347  10.779
81220SOL     OW45556  11.605   2.700  14.616
81220SOL    HW145557  11.680   2.755  14.641
81220SOL    HW245558  11.553   2.693  14.696
81221SOL     OW45559   7.101  12.278   6.446
81221SOL    HW145560   7.167  12.305   6.509
81221SOL    HW245561   7.044  12.354   6.435
81222SOL     OW45562  14.154   5.852   0.472
81222SOL    HW145563  14.136   5.927   0.529
81222SOL    HW245564  14.241   5.822   0.497
81223SOL     OW45565  12.358   5.981   5.891
81223SOL    HW145566  12.426   5.994   5.825
81223SOL    HW245567  12.375   6.049   5.957
81224SOL     OW45568   7.901   9.244  11.590
81224SOL    HW145569   7.912   9.157  11.551
81224SOL    HW245570   7.807   9.260  11.585
81225SOL     OW45571   7.422   0.037   4.591
81225SOL    HW145572   7.389   0.090   4.519
81225SOL    HW245573   7.344   0.018   4.644
81226SOL     OW45574   3.241  11.904  11.622
81226SOL    HW145575   3.248  11.835  11.556
81226SOL    HW245576   3.266  11.984  11.575
81227SOL     OW45577   6.229   8.123  10.343
81227SOL    HW145578   6.319   8.114  10.373
81227SOL    HW245579   6.233   8.107  10.249
81228SOL     OW45580  14.222   3.140  14.499
81228SOL    HW145581  14.191   3.137  14.409
81228SOL    HW245582  14.161   3.198  14.544
81229SOL     OW45583  13.922   8.129   9.563
81229SOL    HW145584  13.906   8.194   9.495
81229SOL    HW245585  13.842   8.076   9.564
81230SOL     OW45586   9.533  13.424   7.272
81230SOL    HW145587   9.504  13.337   7.245
81230SOL    HW245588   9.482  13.485   7.218
81231SOL     OW45589   2.272  11.423   0.425
81231SOL    HW145590   2.359  11.404   0.389
81231SOL    HW245591   2.288  11.487   0.494
81232SOL     OW45592   1.512  13.059  10.308
81232SOL    HW145593   1.597  13.067  10.265
81232SOL    HW245594   1.532  13.047  10.400
81233SOL     OW45595  13.054  12.810  10.268
81233SOL    HW145596  13.038  12.725  10.227
81233SOL    HW245597  13.061  12.791  10.362
81234SOL     OW45598   9.037  14.488   4.380
81234SOL    HW145599   8.965  14.425   4.374
81234SOL    HW245600   9.112  14.440   4.343
81235SOL     OW45601  11.754   2.746   0.102
81235SOL    HW145602  11.738   2.835   0.133
81235SOL    HW245603  11.825   2.714   0.158
81236SOL     OW45604  11.992  14.426   2.987
81236SOL    HW145605  11.928  14.423   2.916
81236SOL    HW245606  12.045  14.504   2.969
81237SOL     OW45607   4.802   5.413   7.813
81237SOL    HW145608   4.881   5.424   7.761
81237SOL    HW245609   4.773   5.323   7.794
81238SOL     OW45610  14.662  11.754  13.644
81238SOL    HW145611  14.729  11.693  13.675
81238SOL    HW245612  14.596  11.699  13.602
81239SOL     OW45613   2.608  10.560   6.765
81239SOL    HW145614   2.591  10.644   6.809
81239SOL    HW245615   2.594  10.579   6.672
81240SOL     OW45616  13.601  14.325  10.577
81240SOL    HW145617  13.650  14.263  10.632
81240SOL    HW245618  13.665  14.359  10.516
81241SOL     OW45619  11.405  10.534  11.022
81241SOL    HW145620  11.441  10.531  10.933
81241SOL    HW245621  11.450  10.608  11.063
81242SOL     OW45622   9.952   8.331   5.335
81242SOL    HW145623   9.923   8.300   5.249
81242SOL    HW245624   9.870   8.352   5.381
81243SOL     OW45625  11.589   5.745  11.756
81243SOL    HW145626  11.513   5.720  11.703
81243SOL    HW245627  11.562   5.827  11.799
81244SOL     OW45628   3.636  14.279   2.185
81244SOL    HW145629   3.717  14.329   2.181
81244SOL    HW245630   3.575  14.335   2.233
81245SOL     OW45631   8.334  10.314   0.806
81245SOL    HW145632   8.329  10.220   0.790
81245SOL    HW245633   8.299  10.325   0.895
81246SOL     OW45634  12.192   2.986   2.613
81246SOL    HW145635  12.235   3.043   2.677
81246SOL    HW245636  12.127   2.938   2.664
81247SOL     OW45637   2.866  11.127   5.457
81247SOL    HW145638   2.910  11.207   5.483
81247SOL    HW245639   2.903  11.059   5.514
81248SOL     OW45640  12.707   7.726   2.715
81248SOL    HW145641  12.695   7.772   2.798
81248SOL    HW245642  12.784   7.671   2.729
81249SOL     OW45643   2.637   9.801   7.126
81249SOL    HW145644   2.608   9.712   7.109
81249SOL    HW245645   2.729   9.792   7.153
81250SOL     OW45646   3.204   1.280   0.719
81250SOL    HW145647   3.134   1.269   0.783
81250SOL    HW245648   3.197   1.204   0.662
81251SOL     OW45649   1.220   8.128   8.025
81251SOL    HW145650   1.300   8.076   8.022
81251SOL    HW245651   1.151   8.069   7.994
81252SOL     OW45652   2.459   9.702   8.197
81252SOL    HW145653   2.488   9.674   8.110
81252SOL    HW245654   2.402   9.777   8.180
81253SOL     OW45655   1.366   9.520   8.152
81253SOL    HW145656   1.438   9.553   8.207
81253SOL    HW245657   1.291   9.515   8.211
81254SOL     OW45658   8.599  13.820   5.929
81254SOL    HW145659   8.658  13.789   5.861
81254SOL    HW245660   8.654  13.873   5.987
81255SOL     OW45661  13.802   0.538   3.460
81255SOL    HW145662  13.872   0.586   3.505
81255SOL    HW245663  13.721   0.579   3.490
81256SOL     OW45664   7.322   8.837  11.177
81256SOL    HW145665   7.323   8.927  11.208
81256SOL    HW245666   7.255   8.835  11.109
81257SOL     OW45667  10.483  10.842   7.810
81257SOL    HW145668  10.511  10.930   7.834
81257SOL    HW245669  10.410  10.822   7.869
81258SOL     OW45670   0.607  11.851   7.181
81258SOL    HW145671   0.691  11.837   7.223
81258SOL    HW245672   0.589  11.944   7.192
81259SOL     OW45673   8.922  10.886   7.600
81259SOL    HW145674   8.942  10.949   7.669
81259SOL    HW245675   8.875  10.938   7.534
81260SOL     OW45676   0.010   9.071   5.141
81260SOL    HW145677   0.033   9.162   5.118
81260SOL    HW245678  14.863   9.030   5.057
81261SOL     OW45679   2.071   0.809   9.764
81261SOL    HW145680   2.052   0.879   9.827
81261SOL    HW245681   2.044   0.729   9.809
81262SOL     OW45682   4.470   2.825   0.477
81262SOL    HW145683   4.420   2.769   0.535
81262SOL    HW245684   4.449   2.914   0.504
81263SOL     OW45685   0.471   8.726   5.375
81263SOL    HW145686   0.381   8.703   5.351
81263SOL    HW245687   0.492   8.666   5.446
81264SOL     OW45688  10.501   3.751  14.774
81264SOL    HW145689  10.520   3.791  14.859
81264SOL    HW245690  10.442   3.678  14.794
81265SOL     OW45691   6.731  14.538   1.522
81265SOL    HW145692   6.785  14.597   1.469
81265SOL    HW245693   6.648  14.532   1.474
81266SOL     OW45694   4.301  11.895   5.942
81266SOL    HW145695   4.300  11.800   5.930
81266SOL    HW245696   4.381  11.924   5.897
81267SOL     OW45697   9.820   6.451   8.429
81267SOL    HW145698   9.866   6.523   8.384
81267SOL    HW245699   9.804   6.387   8.360
81268SOL     OW45700  10.507   1.602   9.239
81268SOL    HW145701  10.537   1.659   9.310
81268SOL    HW245702  10.425   1.565   9.272
81269SOL     OW45703  14.081   7.308   9.734
81269SOL    HW145704  14.079   7.349   9.647
81269SOL    HW245705  13.992   7.276   9.748
81270SOL     OW45706   3.943  12.868   4.649
81270SOL    HW145707   3.942  12.846   4.742
81270SOL    HW245708   4.036  12.881   4.628
81271SOL     OW45709   7.164   9.861   6.611
81271SOL    HW145710   7.180   9.785   6.668
81271SOL    HW245711   7.247   9.908   6.611
81272SOL     OW45712   8.780  12.838   9.992
81272SOL    HW145713   8.721  12.777  10.036
81272SOL    HW245714   8.816  12.892  10.062
81273SOL     OW45715   0.710   9.783  12.689
81273SOL    HW145716   0.743   9.871  12.671
81273SOL    HW245717   0.784   9.736  12.727
81274SOL     OW45718  12.940   7.751  10.631
81274SOL    HW145719  12.968   7.694  10.702
81274SOL    HW245720  12.933   7.694  10.555
81275SOL     OW45721  14.752   9.911   4.834
81275SOL    HW145722  14.826   9.943   4.884
81275SOL    HW245723  14.692   9.876   4.900
81276SOL     OW45724  10.890   8.708  12.881
81276SOL    HW145725  10.879   8.726  12.787
81276SOL    HW245726  10.974   8.663  12.888
81277SOL     OW45727   1.063   8.585  11.402
81277SOL    HW145728   1.139   8.553  11.451
81277SOL    HW245729   1.070   8.542  11.317
81278SOL     OW45730   7.874   5.100   1.838
81278SOL    HW145731   7.896   5.193   1.839
81278SOL    HW245732   7.784   5.097   1.805
81279SOL     OW45733   0.153   3.517  10.284
81279SOL    HW145734   0.162   3.428  10.318
81279SOL    HW245735   0.160   3.573  10.361
81280SOL     OW45736   8.397   9.901   1.382
81280SOL    HW145737   8.489   9.892   1.405
81280SOL    HW245738   8.391   9.985   1.337
81281SOL     OW45739  12.732   2.862  14.772
81281SOL    HW145740  12.701   2.913  14.847
81281SOL    HW245741  12.817   2.828  14.801
81282SOL     OW45742   1.797   6.249   6.398
81282SOL    HW145743   1.833   6.161   6.411
81282SOL    HW245744   1.874   6.306   6.405
81283SOL     OW45745  11.754  12.986   7.715
81283SOL    HW145746  11.769  12.962   7.623
81283SOL    HW245747  11.717  12.907   7.754
81284SOL     OW45748   5.904   5.842  12.763
81284SOL    HW145749   5.998   5.843  12.745
81284SOL    HW245750   5.894   5.899  12.839
81285SOL     OW45751   9.746   4.324  14.770
81285SOL    HW145752   9.660   4.347  14.804
81285SOL    HW245753   9.786   4.270  14.838
81286SOL     OW45754   2.651  10.664   9.248
81286SOL    HW145755   2.644  10.702   9.335
81286SOL    HW245756   2.663  10.570   9.264
81287SOL     OW45757   3.856   0.970   9.984
81287SOL    HW145758   3.869   0.969  10.079
81287SOL    HW245759   3.942   0.946   9.948
81288SOL     OW45760  11.319   7.356  11.948
81288SOL    HW145761  11.375   7.284  11.976
81288SOL    HW245762  11.379   7.420  11.909
81289SOL     OW45763   0.252  14.044   4.856
81289SOL    HW145764   0.163  14.029   4.824
81289SOL    HW245765   0.257  14.138   4.871
81290SOL     OW45766   9.918   5.219  13.973
81290SOL    HW145767   9.999   5.179  13.939
81290SOL    HW245768   9.924   5.207  14.068
81291SOL     OW45769   8.479   6.213   7.416
81291SOL    HW145770   8.488   6.123   7.383
81291SOL    HW245771   8.416   6.254   7.357
81292SOL     OW45772   1.017   5.518   4.959
81292SOL    HW145773   0.948   5.489   5.019
81292SOL    HW245774   1.063   5.587   5.007
81293SOL     OW45775  13.491  14.602   6.048
81293SOL    HW145776  13.467  14.695   6.039
81293SOL    HW245777  13.583  14.599   6.024
81294SOL     OW45778   9.830  13.311   8.777
81294SOL    HW145779   9.831  13.342   8.686
81294SOL    HW245780   9.865  13.222   8.771
81295SOL     OW45781   3.427   0.598  11.967
81295SOL    HW145782   3.497   0.661  11.982
81295SOL    HW245783   3.467   0.513  11.985
81296SOL     OW45784   6.238   4.547  12.965
81296SOL    HW145785   6.315   4.494  12.943
81296SOL    HW245786   6.274   4.632  12.990
81297SOL     OW45787   0.840   6.161  14.721
81297SOL    HW145788   0.775   6.091  14.723
81297SOL    HW245789   0.790   6.240  14.744
81298SOL     OW45790   1.085  14.562  12.444
81298SOL    HW145791   1.046  14.527  12.524
81298SOL    HW245792   1.011  14.568  12.383
81299SOL     OW45793  13.871  12.991   7.141
81299SOL    HW145794  13.899  12.907   7.176
81299SOL    HW245795  13.780  13.000   7.169
81300SOL     OW45796   3.549   8.385   6.599
81300SOL    HW145797   3.547   8.350   6.510
81300SOL    HW245798   3.465   8.361   6.637
81301SOL     OW45799   4.234  10.576   1.846
81301SOL    HW145800   4.227  10.657   1.795
81301SOL    HW245801   4.208  10.602   1.935
81302SOL     OW45802   6.079  11.069   8.036
81302SOL    HW145803   6.047  11.013   8.107
81302SOL    HW245804   6.168  11.092   8.061
81303SOL     OW45805  13.872   7.159   8.383
81303SOL    HW145806  13.786   7.168   8.422
81303SOL    HW245807  13.883   7.065   8.369
81304SOL     OW45808  10.955   7.070   9.645
81304SOL    HW145809  10.903   7.147   9.622
81304SOL    HW245810  11.027   7.105   9.698
81305SOL     OW45811  14.417  14.383  10.384
81305SOL    HW145812  14.414  14.409  10.292
81305SOL    HW245813  14.502  14.339  10.394
81306SOL     OW45814  12.895   7.286   8.128
81306SOL    HW145815  12.874   7.377   8.108
81306SOL    HW245816  12.987   7.276   8.101
81307SOL     OW45817  10.777   3.937  12.764
81307SOL    HW145818  10.842   3.956  12.832
81307SOL    HW245819  10.714   4.009  12.769
81308SOL     OW45820   3.772   1.649  13.242
81308SOL    HW145821   3.728   1.715  13.188
81308SOL    HW245822   3.780   1.572  13.185
81309SOL     OW45823   7.328  10.917   6.253
81309SOL    HW145824   7.331  10.870   6.336
81309SOL    HW245825   7.357  10.852   6.188
81310SOL     OW45826  11.008  10.495   8.739
81310SOL    HW145827  11.062  10.574   8.746
81310SOL    HW245828  10.939  10.507   8.804
81311SOL     OW45829  13.969  10.076   1.559
81311SOL    HW145830  14.037  10.144   1.564
81311SOL    HW245831  14.018   9.995   1.545
81312SOL     OW45832   4.472   6.338  12.096
81312SOL    HW145833   4.447   6.356  12.187
81312SOL    HW245834   4.522   6.257  12.101
81313SOL     OW45835   9.368   0.956   9.260
81313SOL    HW145836   9.445   0.915   9.297
81313SOL    HW245837   9.294   0.913   9.302
81314SOL     OW45838  14.792   2.371   9.613
81314SOL    HW145839  14.812   2.370   9.707
81314SOL    HW245840  14.871   2.405   9.572
81315SOL     OW45841   2.404   6.813  14.585
81315SOL    HW145842   2.308   6.811  14.587
81315SOL    HW245843   2.430   6.816  14.677
81316SOL     OW45844  13.649   9.959   7.173
81316SOL    HW145845  13.715  10.023   7.199
81316SOL    HW245846  13.609   9.932   7.256
81317SOL     OW45847  12.665  12.984  11.788
81317SOL    HW145848  12.695  13.074  11.802
81317SOL    HW245849  12.737  12.930  11.820
81318SOL     OW45850  14.672  14.679   9.390
81318SOL    HW145851  14.625  14.706   9.311
81318SOL    HW245852  14.643  14.590   9.407
81319SOL     OW45853   1.990   7.549   6.400
81319SOL    HW145854   1.905   7.524   6.366
81319SOL    HW245855   2.030   7.601   6.330
81320SOL     OW45856  13.977   5.201   9.195
81320SOL    HW145857  13.969   5.164   9.107
81320SOL    HW245858  14.034   5.140   9.242
81321SOL     OW45859   4.101   7.924   1.066
81321SOL    HW145860   4.121   7.840   1.024
81321SOL    HW245861   4.173   7.938   1.127
81322SOL     OW45862  12.679  11.418   9.756
81322SOL    HW145863  12.768  11.437   9.786
81322SOL    HW245864  12.639  11.372   9.829
81323SOL     OW45865   3.684   3.537  13.685
81323SOL    HW145866   3.660   3.507  13.773
81323SOL    HW245867   3.779   3.526  13.681
81324SOL     OW45868   6.871   0.084   2.884
81324SOL    HW145869   6.842   0.165   2.926
81324SOL    HW245870   6.877   0.106   2.791
81325SOL     OW45871   6.437  11.135  14.252
81325SOL    HW145872   6.482  11.160  14.172
81325SOL    HW245873   6.494  11.167  14.322
81326SOL     OW45874   9.841   7.309   5.138
81326SOL    HW145875   9.764   7.353   5.175
81326SOL    HW245876   9.868   7.247   5.205
81327SOL     OW45877  12.757   5.697  10.782
81327SOL    HW145878  12.787   5.786  10.762
81327SOL    HW245879  12.674   5.710  10.829
81328SOL     OW45880   7.066   7.434  13.503
81328SOL    HW145881   6.985   7.472  13.537
81328SOL    HW245882   7.053   7.432  13.408
81329SOL     OW45883   9.227   5.263  10.725
81329SOL    HW145884   9.303   5.216  10.690
81329SOL    HW245885   9.248   5.276  10.818
81330SOL     OW45886  13.360  13.559   4.589
81330SOL    HW145887  13.428  13.493   4.604
81330SOL    HW245888  13.387  13.633   4.643
81331SOL     OW45889   8.851   7.217   3.983
81331SOL    HW145890   8.941   7.207   4.016
81331SOL    HW245891   8.830   7.131   3.946
81332SOL     OW45892   4.354  12.309   3.210
81332SOL    HW145893   4.391  12.261   3.136
81332SOL    HW245894   4.294  12.247   3.252
81333SOL     OW45895  12.488  10.101   7.816
81333SOL    HW145896  12.548  10.098   7.890
81333SOL    HW245897  12.543  10.124   7.741
81334SOL     OW45898   9.653   7.059  14.045
81334SOL    HW145899   9.571   7.092  14.007
81334SOL    HW245900   9.707   7.138  14.054
81335SOL     OW45901   7.493   3.738   8.025
81335SOL    HW145902   7.586   3.752   8.043
81335SOL    HW245903   7.481   3.644   8.034
81336SOL     OW45904   4.374  12.053   9.510
81336SOL    HW145905   4.447  12.066   9.571
81336SOL    HW245906   4.399  11.976   9.459
81337SOL     OW45907  12.637  12.387   0.362
81337SOL    HW145908  12.679  12.428   0.437
81337SOL    HW245909  12.634  12.294   0.383
81338SOL     OW45910  13.144  14.652   7.104
81338SOL    HW145911  13.188  14.606   7.175
81338SOL    HW245912  13.151  14.594   7.029
81339SOL     OW45913   6.618  13.706  11.307
81339SOL    HW145914   6.624  13.765  11.382
81339SOL    HW245915   6.545  13.741  11.256
81340SOL     OW45916   5.140   9.404   9.483
81340SOL    HW145917   5.089   9.337   9.528
81340SOL    HW245918   5.089   9.425   9.405
81341SOL     OW45919   4.697  12.770   4.291
81341SOL    HW145920   4.639  12.845   4.275
81341SOL    HW245921   4.648  12.714   4.351
81342SOL     OW45922   1.099   2.323   4.813
81342SOL    HW145923   1.132   2.412   4.805
81342SOL    HW245924   1.055   2.306   4.730
81343SOL     OW45925  13.228   8.722   5.250
81343SOL    HW145926  13.266   8.634   5.250
81343SOL    HW245927  13.263   8.763   5.330
81344SOL     OW45928   8.620   4.894   3.674
81344SOL    HW145929   8.661   4.941   3.601
81344SOL    HW245930   8.580   4.963   3.727
81345SOL     OW45931  14.671   3.671   3.420
81345SOL    HW145932  14.630   3.656   3.505
81345SOL    HW245933  14.642   3.598   3.366
81346SOL     OW45934   7.297  11.809   2.132
81346SOL    HW145935   7.362  11.805   2.061
81346SOL    HW245936   7.289  11.718   2.161
81347SOL     OW45937  13.122  12.580  14.730
81347SOL    HW145938  13.094  12.626  14.809
81347SOL    HW245939  13.176  12.508  14.762
81348SOL     OW45940   0.366   7.529   0.114
81348SOL    HW145941   0.281   7.530   0.158
81348SOL    HW245942   0.350   7.484   0.031
81349SOL     OW45943   6.258  12.988  14.640
81349SOL    HW145944   6.316  12.923  14.600
81349SOL    HW245945   6.316  13.042  14.694
81350SOL     OW45946   2.522   9.334  14.216
81350SOL    HW145947   2.555   9.353  14.129
81350SOL    HW245948   2.443   9.282  14.201
81351SOL     OW45949  11.209  11.870   8.660
81351SOL    HW145950  11.159  11.930   8.717
81351SOL    HW245951  11.301  11.888   8.681
81352SOL     OW45952   4.118   8.941   6.567
81352SOL    HW145953   4.207   8.918   6.596
81352SOL    HW245954   4.068   8.861   6.579
81353SOL     OW45955  11.862   9.077   0.955
81353SOL    HW145956  11.938   9.108   0.906
81353SOL    HW245957  11.881   9.099   1.046
81354SOL     OW45958   6.786  11.468   1.243
81354SOL    HW145959   6.734  11.395   1.276
81354SOL    HW245960   6.758  11.544   1.295
81355SOL     OW45961  13.793   0.116  12.673
81355SOL    HW145962  13.861   0.135  12.608
81355SOL    HW245963  13.826   0.153  12.754
81356SOL     OW45964  11.252   1.238   8.410
81356SOL    HW145965  11.332   1.238   8.462
81356SOL    HW245966  11.255   1.156   8.361
81357SOL     OW45967   8.448  10.314  12.977
81357SOL    HW145968   8.476  10.223  12.988
81357SOL    HW245969   8.355  10.313  13.001
81358SOL     OW45970  11.148   0.547   4.798
81358SOL    HW145971  11.216   0.487   4.766
81358SOL    HW245972  11.168   0.557   4.891
81359SOL     OW45973  13.432   2.806   2.964
81359SOL    HW145974  13.387   2.870   3.020
81359SOL    HW245975  13.362   2.758   2.920
81360SOL     OW45976  14.282   9.996  12.598
81360SOL    HW145977  14.306   9.943  12.674
81360SOL    HW245978  14.210  10.051  12.630
81361SOL     OW45979   9.728   9.280  12.266
81361SOL    HW145980   9.764   9.295  12.353
81361SOL    HW245981   9.636   9.259  12.283
81362SOL     OW45982   9.204   5.780  13.100
81362SOL    HW145983   9.182   5.725  13.175
81362SOL    HW245984   9.274   5.732  13.055
81363SOL     OW45985   5.911   2.846   7.815
81363SOL    HW145986   5.953   2.855   7.901
81363SOL    HW245987   5.938   2.924   7.767
81364SOL     OW45988   7.931   8.838   2.549
81364SOL    HW145989   7.994   8.857   2.619
81364SOL    HW245990   7.957   8.896   2.478
81365SOL     OW45991   4.300   3.516   8.952
81365SOL    HW145992   4.388   3.534   8.919
81365SOL    HW245993   4.309   3.520   9.047
81366SOL     OW45994   2.819  10.944   2.598
81366SOL    HW145995   2.824  10.999   2.519
81366SOL    HW245996   2.840  10.856   2.566
81367SOL     OW45997   2.703  11.621  12.181
81367SOL    HW145998   2.730  11.600  12.092
81367SOL    HW245999   2.649  11.700  12.173
81368SOL     OW46000  10.628   3.572  10.048
81368SOL    HW146001  10.555   3.622  10.010
81368SOL    HW246002  10.586   3.511  10.108
81369SOL     OW46003   5.045   0.561  13.180
81369SOL    HW146004   5.046   0.468  13.159
81369SOL    HW246005   5.016   0.565  13.271
81370SOL     OW46006  10.214  12.080  10.147
81370SOL    HW146007  10.125  12.052  10.125
81370SOL    HW246008  10.216  12.081  10.243
81371SOL     OW46009   5.741   1.341   6.849
81371SOL    HW146010   5.788   1.303   6.924
81371SOL    HW246011   5.809   1.386   6.799
81372SOL     OW46012   0.294   2.212   1.290
81372SOL    HW146013   0.343   2.146   1.242
81372SOL    HW246014   0.282   2.283   1.226
81373SOL     OW46015  11.963   8.125  11.703
81373SOL    HW146016  12.026   8.119  11.631
81373SOL    HW246017  11.974   8.214  11.737
81374SOL     OW46018  10.936   7.952   6.965
81374SOL    HW146019  11.029   7.974   6.956
81374SOL    HW246020  10.904   7.947   6.875
81375SOL     OW46021   3.870   2.547   8.051
81375SOL    HW146022   3.892   2.632   8.012
81375SOL    HW246023   3.837   2.569   8.138
81376SOL     OW46024   4.207   4.451   4.528
81376SOL    HW146025   4.210   4.539   4.489
81376SOL    HW246026   4.114   4.429   4.531
81377SOL     OW46027   6.391   9.383   4.989
81377SOL    HW146028   6.382   9.324   5.064
81377SOL    HW246029   6.406   9.324   4.915
81378SOL     OW46030  11.829   3.546   7.670
81378SOL    HW146031  11.786   3.461   7.673
81378SOL    HW246032  11.803   3.584   7.587
81379SOL     OW46033   3.929   4.994   2.177
81379SOL    HW146034   3.934   5.045   2.258
81379SOL    HW246035   3.836   4.982   2.161
81380SOL     OW46036   0.028   4.449  11.504
81380SOL    HW146037   0.118   4.464  11.532
81380SOL    HW246038   0.031   4.365  11.458
81381SOL     OW46039   4.584   3.513  14.676
81381SOL    HW146040   4.517   3.570  14.715
81381SOL    HW246041   4.557   3.504  14.585
81382SOL     OW46042   9.519   8.739  14.648
81382SOL    HW146043   9.453   8.703  14.589
81382SOL    HW246044   9.481   8.821  14.679
81383SOL     OW46045   1.630   5.942   5.458
81383SOL    HW146046   1.636   5.915   5.366
81383SOL    HW246047   1.617   6.037   5.454
81384SOL     OW46048   9.477   1.014   2.747
81384SOL    HW146049   9.470   0.956   2.824
81384SOL    HW246050   9.412   1.082   2.762
81385SOL     OW46051   6.383  11.541   5.138
81385SOL    HW146052   6.309  11.602   5.139
81385SOL    HW246053   6.378  11.499   5.052
81386SOL     OW46054   4.338   0.729   6.117
81386SOL    HW146055   4.402   0.704   6.183
81386SOL    HW246056   4.300   0.811   6.149
81387SOL     OW46057  12.203  12.454   4.959
81387SOL    HW146058  12.216  12.534   4.908
81387SOL    HW246059  12.230  12.383   4.901
81388SOL     OW46060   0.806   6.824   2.029
81388SOL    HW146061   0.838   6.830   2.119
81388SOL    HW246062   0.715   6.851   2.033
81389SOL     OW46063  10.893   7.243  13.997
81389SOL    HW146064  10.926   7.242  13.907
81389SOL    HW246065  10.807   7.202  13.991
81390SOL     OW46066  12.324   7.806  13.039
81390SOL    HW146067  12.337   7.773  12.950
81390SOL    HW246068  12.306   7.900  13.027
81391SOL     OW46069   6.804   0.780   4.210
81391SOL    HW146070   6.782   0.755   4.299
81391SOL    HW246071   6.740   0.734   4.155
81392SOL     OW46072   4.637   3.172   1.952
81392SOL    HW146073   4.702   3.112   1.916
81392SOL    HW246074   4.609   3.225   1.878
81393SOL     OW46075   6.512   1.410   0.197
81393SOL    HW146076   6.503   1.484   0.257
81393SOL    HW246077   6.590   1.431   0.145
81394SOL     OW46078   8.244   8.163  12.892
81394SOL    HW146079   8.172   8.130  12.838
81394SOL    HW246080   8.234   8.118  12.975
81395SOL     OW46081   8.340   0.221   4.348
81395SOL    HW146082   8.312   0.167   4.422
81395SOL    HW246083   8.429   0.191   4.329
81396SOL     OW46084  13.620   1.768  10.488
81396SOL    HW146085  13.592   1.688  10.443
81396SOL    HW246086  13.673   1.737  10.561
81397SOL     OW46087   4.322   8.514   2.854
81397SOL    HW146088   4.394   8.562   2.813
81397SOL    HW246089   4.250   8.519   2.791
81398SOL     OW46090   0.338   6.404   0.917
81398SOL    HW146091   0.260   6.403   0.862
81398SOL    HW246092   0.318   6.467   0.986
81399SOL     OW46093   7.219   6.186  12.880
81399SOL    HW146094   7.197   6.160  12.791
81399SOL    HW246095   7.190   6.113  12.935
81400SOL     OW46096   2.607  13.769   1.887
81400SOL    HW146097   2.626  13.694   1.831
81400SOL    HW246098   2.547  13.824   1.837
81401SOL     OW46099   7.816   6.589   2.386
81401SOL    HW146100   7.729   6.614   2.355
81401SOL    HW246101   7.822   6.628   2.473
81402SOL     OW46102   1.340   0.048   6.286
81402SOL    HW146103   1.372  14.860   6.218
81402SOL    HW246104   1.419   0.079   6.330
81403SOL     OW46105   0.614   0.822   8.557
81403SOL    HW146106   0.635   0.816   8.650
81403SOL    HW246107   0.526   0.861   8.555
81404SOL     OW46108   9.874  10.971   6.128
81404SOL    HW146109   9.830  10.950   6.046
81404SOL    HW246110   9.804  11.002   6.186
81405SOL     OW46111  10.598   9.676  10.436
81405SOL    HW146112  10.510   9.710  10.455
81405SOL    HW246113  10.641   9.671  10.521
81406SOL     OW46114   9.603   6.083  12.970
81406SOL    HW146115   9.520   6.102  12.926
81406SOL    HW246116   9.603   5.987  12.979
81407SOL     OW46117   5.887  10.089  13.579
81407SOL    HW146118   5.945  10.147  13.529
81407SOL    HW246119   5.856  10.025  13.516
81408SOL     OW46120   4.342  14.608   8.726
81408SOL    HW146121   4.321  14.638   8.814
81408SOL    HW246122   4.414  14.663   8.698
81409SOL     OW46123   0.464   8.229  12.782
81409SOL    HW146124   0.469   8.153  12.840
81409SOL    HW246125   0.382   8.271  12.805
81410SOL     OW46126   2.297   5.481   6.524
81410SOL    HW146127   2.263   5.393   6.542
81410SOL    HW246128   2.232   5.540   6.562
81411SOL     OW46129  10.838   3.735  13.844
81411SOL    HW146130  10.865   3.733  13.936
81411SOL    HW246131  10.918   3.759  13.796
81412SOL     OW46132   9.923  14.486   8.204
81412SOL    HW146133   9.916  14.487   8.108
81412SOL    HW246134   9.987  14.554   8.224
81413SOL     OW46135  10.945   5.351   2.403
81413SOL    HW146136  10.966   5.444   2.393
81413SOL    HW246137  11.028   5.306   2.387
81414SOL     OW46138  11.912   0.349   7.014
81414SOL    HW146139  11.882   0.439   7.006
81414SOL    HW246140  11.832   0.297   7.010
81415SOL     OW46141   3.056   3.226  14.391
81415SOL    HW146142   3.089   3.139  14.370
81415SOL    HW246143   2.966   3.212  14.417
81416SOL     OW46144  14.031   5.388   0.262
81416SOL    HW146145  14.023   5.471   0.309
81416SOL    HW246146  14.066   5.327   0.327
81417SOL     OW46147   9.767   8.925  10.822
81417SOL    HW146148   9.735   8.844  10.783
81417SOL    HW246149   9.796   8.978  10.748
81418SOL     OW46150   4.396  14.537   0.165
81418SOL    HW146151   4.345  14.480   0.107
81418SOL    HW246152   4.333  14.571   0.228
81419SOL     OW46153   2.176  14.753   0.086
81419SOL    HW146154   2.191  14.739   0.180
81419SOL    HW246155   2.109  14.821   0.082
81420SOL     OW46156   5.308   3.312  12.936
81420SOL    HW146157   5.276   3.397  12.907
81420SOL    HW246158   5.248   3.287  13.006
81421SOL     OW46159   6.530  11.280   3.909
81421SOL    HW146160   6.528  11.206   3.970
81421SOL    HW246161   6.482  11.250   3.832
81422SOL     OW46162  11.842   8.309   9.843
81422SOL    HW146163  11.879   8.374   9.783
81422SOL    HW246164  11.818   8.359   9.921
81423SOL     OW46165   5.165   1.708   1.297
81423SOL    HW146166   5.203   1.633   1.250
81423SOL    HW246167   5.149   1.675   1.385
81424SOL     OW46168  11.574   3.280  13.046
81424SOL    HW146169  11.511   3.331  12.994
81424SOL    HW246170  11.566   3.191  13.012
81425SOL     OW46171   7.767  13.163  12.081
81425SOL    HW146172   7.812  13.203  12.006
81425SOL    HW246173   7.680  13.142  12.048
81426SOL     OW46174   4.944   0.097   6.158
81426SOL    HW146175   4.910   0.103   6.069
81426SOL    HW246176   5.035   0.126   6.151
81427SOL     OW46177  13.459  14.241   3.476
81427SOL    HW146178  13.430  14.152   3.495
81427SOL    HW246179  13.506  14.269   3.555
81428SOL     OW46180  10.973  10.365  13.497
81428SOL    HW146181  10.975  10.269  13.497
81428SOL    HW246182  10.934  10.388  13.581
81429SOL     OW46183  11.773   5.760  13.778
81429SOL    HW146184  11.758   5.676  13.821
81429SOL    HW246185  11.816   5.737  13.695
81430SOL     OW46186   3.111   7.323   1.098
81430SOL    HW146187   3.090   7.400   1.044
81430SOL    HW246188   3.131   7.254   1.035
81431SOL     OW46189   6.182   2.522   2.038
81431SOL    HW146190   6.236   2.587   1.993
81431SOL    HW246191   6.149   2.466   1.968
81432SOL     OW46192   4.825  13.653   7.962
81432SOL    HW146193   4.737  13.650   7.924
81432SOL    HW246194   4.877  13.701   7.897
81433SOL     OW46195   2.458   7.282   1.237
81433SOL    HW146196   2.389   7.348   1.243
81433SOL    HW246197   2.537   7.326   1.268
81434SOL     OW46198   8.576  14.533   0.154
81434SOL    HW146199   8.655  14.556   0.202
81434SOL    HW246200   8.533  14.616   0.136
81435SOL     OW46201   1.179   1.750  12.211
81435SOL    HW146202   1.141   1.752  12.123
81435SOL    HW246203   1.214   1.661  12.219
81436SOL     OW46204  13.055  13.606   0.750
81436SOL    HW146205  13.013  13.605   0.836
81436SOL    HW246206  12.996  13.657   0.695
81437SOL     OW46207   5.095  14.415   8.602
81437SOL    HW146208   5.164  14.416   8.536
81437SOL    HW246209   5.112  14.492   8.656
81438SOL     OW46210  13.697   0.814   2.369
81438SOL    HW146211  13.631   0.876   2.336
81438SOL    HW246212  13.649   0.760   2.432
81439SOL     OW46213   3.242   6.054   2.134
81439SOL    HW146214   3.333   6.071   2.157
81439SOL    HW246215   3.246   5.995   2.059
81440SOL     OW46216   5.967   4.834   4.072
81440SOL    HW146217   5.935   4.752   4.109
81440SOL    HW246218   5.888   4.881   4.044
81441SOL     OW46219   0.653   2.860   2.237
81441SOL    HW146220   0.610   2.818   2.312
81441SOL    HW246221   0.594   2.841   2.163
81442SOL     OW46222   6.283   2.493   5.256
81442SOL    HW146223   6.193   2.524   5.246
81442SOL    HW246224   6.337   2.563   5.219
81443SOL     OW46225   9.438   4.312   8.716
81443SOL    HW146226   9.434   4.405   8.737
81443SOL    HW246227   9.515   4.279   8.763
81444SOL     OW46228  11.410  11.286   3.706
81444SOL    HW146229  11.440  11.320   3.622
81444SOL    HW246230  11.368  11.203   3.684
81445SOL     OW46231   9.265   1.585   5.844
81445SOL    HW146232   9.239   1.663   5.796
81445SOL    HW246233   9.219   1.513   5.802
81446SOL     OW46234   0.141   1.639  10.277
81446SOL    HW146235   0.119   1.724  10.315
81446SOL    HW246236   0.065   1.584  10.297
81447SOL     OW46237   7.552   8.203   0.137
81447SOL    HW146238   7.599   8.130   0.177
81447SOL    HW246239   7.471   8.164   0.104
81448SOL     OW46240   5.727   0.599   8.482
81448SOL    HW146241   5.777   0.589   8.401
81448SOL    HW246242   5.657   0.534   8.475
81449SOL     OW46243   2.982   3.306   1.975
81449SOL    HW146244   2.965   3.278   2.065
81449SOL    HW246245   3.069   3.272   1.955
81450SOL     OW46246   9.254   9.510   0.144
81450SOL    HW146247   9.310   9.471   0.077
81450SOL    HW246248   9.223   9.436   0.195
81451SOL     OW46249   9.184   0.172  12.915
81451SOL    HW146250   9.124   0.205  12.847
81451SOL    HW246251   9.271   0.189  12.880
81452SOL     OW46252   6.676   1.967   0.713
81452SOL    HW146253   6.677   1.957   0.808
81452SOL    HW246254   6.607   2.031   0.696
81453SOL     OW46255  12.608  11.845   0.314
81453SOL    HW146256  12.551  11.817   0.242
81453SOL    HW246257  12.573  11.801   0.391
81454SOL     OW46258   9.018  12.384  13.823
81454SOL    HW146259   8.993  12.475  13.836
81454SOL    HW246260   9.113  12.386  13.813
81455SOL     OW46261  11.156   2.782  12.610
81455SOL    HW146262  11.155   2.813  12.519
81455SOL    HW246263  11.065   2.790  12.639
81456SOL     OW46264   5.195   5.480  12.069
81456SOL    HW146265   5.223   5.571  12.079
81456SOL    HW246266   5.146   5.478  11.987
81457SOL     OW46267  13.099   5.615   4.158
81457SOL    HW146268  13.176   5.672   4.164
81457SOL    HW246269  13.132   5.536   4.115
81458SOL     OW46270  11.256   3.835   0.209
81458SOL    HW146271  11.176   3.865   0.166
81458SOL    HW246272  11.251   3.872   0.297
81459SOL     OW46273   4.064  12.563   1.588
81459SOL    HW146274   4.092  12.643   1.545
81459SOL    HW246275   3.984  12.588   1.635
81460SOL     OW46276  10.806   7.398   5.601
81460SOL    HW146277  10.876   7.462   5.614
81460SOL    HW246278  10.733   7.449   5.566
81461SOL     OW46279   1.882  13.020   7.431
81461SOL    HW146280   1.832  12.944   7.459
81461SOL    HW246281   1.855  13.035   7.340
81462SOL     OW46282   4.492   7.542   0.086
81462SOL    HW146283   4.517   7.542  14.865
81462SOL    HW246284   4.465   7.452   0.104
81463SOL     OW46285   9.591  12.094  11.885
81463SOL    HW146286   9.602  12.048  11.968
81463SOL    HW246287   9.573  12.025  11.821
81464SOL     OW46288   9.293   7.662   9.432
81464SOL    HW146289   9.292   7.710   9.349
81464SOL    HW246290   9.204   7.671   9.466
81465SOL     OW46291   6.667  13.825   1.196
81465SOL    HW146292   6.594  13.821   1.135
81465SOL    HW246293   6.745  13.825   1.140
81466SOL     OW46294   0.966   2.637   0.703
81466SOL    HW146295   0.944   2.722   0.666
81466SOL    HW246296   0.981   2.654   0.796
81467SOL     OW46297  13.395  13.857  10.401
81467SOL    HW146298  13.307  13.873  10.368
81467SOL    HW246299  13.449  13.926  10.362
81468SOL     OW46300   1.594   5.451   2.468
81468SOL    HW146301   1.654   5.483   2.400
81468SOL    HW246302   1.549   5.377   2.428
81469SOL     OW46303   9.418  11.266   1.086
81469SOL    HW146304   9.339  11.281   1.137
81469SOL    HW246305   9.398  11.302   1.000
81470SOL     OW46306   1.384  13.783   3.128
81470SOL    HW146307   1.410  13.719   3.194
81470SOL    HW246308   1.377  13.733   3.047
81471SOL     OW46309   0.558   6.915   3.955
81471SOL    HW146310   0.537   6.872   3.872
81471SOL    HW246311   0.650   6.941   3.946
81472SOL     OW46312   1.400   6.056   2.485
81472SOL    HW146313   1.408   6.100   2.400
81472SOL    HW246314   1.467   6.097   2.540
81473SOL     OW46315  12.753   6.510   2.765
81473SOL    HW146316  12.679   6.451   2.754
81473SOL    HW246317  12.829   6.458   2.739
81474SOL     OW46318  13.346   7.760   7.141
81474SOL    HW146319  13.314   7.790   7.056
81474SOL    HW246320  13.314   7.826   7.203
81475SOL     OW46321   0.653   8.979   0.668
81475SOL    HW146322   0.670   8.908   0.606
81475SOL    HW246323   0.664   8.939   0.754
81476SOL     OW46324   2.757   8.820   8.812
81476SOL    HW146325   2.769   8.842   8.904
81476SOL    HW246326   2.844   8.832   8.773
81477SOL     OW46327   6.257  11.579   3.798
81477SOL    HW146328   6.228  11.491   3.824
81477SOL    HW246329   6.195  11.638   3.840
81478SOL     OW46330  14.803   7.925   3.504
81478SOL    HW146331   0.026   7.936   3.497
81478SOL    HW246332  14.779   7.874   3.426
81479SOL     OW46333   3.945   1.211   8.474
81479SOL    HW146334   3.881   1.235   8.407
81479SOL    HW246335   3.921   1.122   8.499
81480SOL     OW46336   2.345   8.837   4.009
81480SOL    HW146337   2.351   8.915   4.065
81480SOL    HW246338   2.265   8.794   4.038
81481SOL     OW46339   5.029  13.816   2.887
81481SOL    HW146340   4.982  13.881   2.940
81481SOL    HW246341   4.966  13.791   2.819
81482SOL     OW46342   4.813   8.885   1.623
81482SOL    HW146343   4.852   8.813   1.574
81482SOL    HW246344   4.719   8.880   1.603
81483SOL     OW46345   3.898   5.849  11.574
81483SOL    HW146346   3.984   5.807  11.573
81483SOL    HW246347   3.838   5.781  11.546
81484SOL     OW46348   3.581  13.702   8.901
81484SOL    HW146349   3.501  13.700   8.953
81484SOL    HW246350   3.589  13.613   8.867
81485SOL     OW46351   1.744   2.915   1.371
81485SOL    HW146352   1.761   2.891   1.280
81485SOL    HW246353   1.831   2.920   1.411
81486SOL     OW46354  12.591  11.201  13.707
81486SOL    HW146355  12.681  11.172  13.697
81486SOL    HW246356  12.555  11.199  13.619
81487SOL     OW46357   9.349   2.527  13.580
81487SOL    HW146358   9.285   2.570  13.637
81487SOL    HW246359   9.298   2.461  13.533
81488SOL     OW46360   3.254  12.754   2.602
81488SOL    HW146361   3.276  12.676   2.551
81488SOL    HW246362   3.296  12.826   2.554
81489SOL     OW46363   6.003  11.503   4.594
81489SOL    HW146364   6.093  11.524   4.570
81489SOL    HW246365   5.958  11.587   4.598
81490SOL     OW46366   7.954   8.920  12.506
81490SOL    HW146367   7.923   8.926  12.596
81490SOL    HW246368   8.048   8.936  12.511
81491SOL     OW46369   6.758   6.516  14.266
81491SOL    HW146370   6.844   6.513  14.225
81491SOL    HW246371   6.722   6.427  14.255
81492SOL     OW46372   7.792   5.215  14.831
81492SOL    HW146373   7.741   5.134  14.820
81492SOL    HW246374   7.868   5.188   0.011
81493SOL     OW46375  11.564   7.107   2.360
81493SOL    HW146376  11.659   7.101   2.365
81493SOL    HW246377  11.535   7.109   2.451
81494SOL     OW46378   8.287   5.762   1.098
81494SOL    HW146379   8.360   5.793   1.045
81494SOL    HW246380   8.304   5.669   1.112
81495SOL     OW46381  11.912   6.405   1.428
81495SOL    HW146382  11.825   6.423   1.391
81495SOL    HW246383  11.951   6.491   1.442
81496SOL     OW46384   1.598   3.108  14.154
81496SOL    HW146385   1.691   3.099  14.134
81496SOL    HW246386   1.595   3.166  14.230
81497SOL     OW46387  10.368   1.644  12.203
81497SOL    HW146388  10.275   1.636  12.226
81497SOL    HW246389  10.393   1.556  12.176
81498SOL     OW46390  13.084  14.252   5.569
81498SOL    HW146391  13.054  14.169   5.607
81498SOL    HW246392  13.132  14.295   5.640
81499SOL     OW46393   0.533   9.545   1.251
81499SOL    HW146394   0.571   9.538   1.163
81499SOL    HW246395   0.601   9.589   1.303
81500SOL     OW46396   6.450   4.396   2.617
81500SOL    HW146397   6.494   4.318   2.650
81500SOL    HW246398   6.508   4.468   2.641
81501SOL     OW46399  12.586   9.933   2.872
81501SOL    HW146400  12.643  10.005   2.845
81501SOL    HW246401  12.500   9.973   2.885
81502SOL     OW46402   1.714   8.784  11.720
81502SOL    HW146403   1.654   8.720  11.683
81502SOL    HW246404   1.785   8.790  11.656
81503SOL     OW46405   2.951   1.084  11.228
81503SOL    HW146406   3.028   1.046  11.185
81503SOL    HW246407   2.982   1.104  11.316
81504SOL     OW46408   1.272   9.904   3.401
81504SOL    HW146409   1.288   9.959   3.325
81504SOL    HW246410   1.359   9.875   3.429
81505SOL     OW46411   4.944  12.628  11.602
81505SOL    HW146412   4.871  12.583  11.559
81505SOL    HW246413   4.923  12.624  11.696
81506SOL     OW46414   0.877  10.394   0.930
81506SOL    HW146415   0.787  10.375   0.958
81506SOL    HW246416   0.874  10.383   0.835
81507SOL     OW46417   4.475   5.872  11.350
81507SOL    HW146418   4.507   5.962  11.352
81507SOL    HW246419   4.495   5.841  11.261
81508SOL     OW46420  12.683   9.911   9.115
81508SOL    HW146421  12.765   9.864   9.132
81508SOL    HW246422  12.616   9.843   9.115
81509SOL     OW46423   3.710   3.542   6.722
81509SOL    HW146424   3.745   3.529   6.634
81509SOL    HW246425   3.779   3.590   6.768
81510SOL     OW46426   9.793   4.739   3.799
81510SOL    HW146427   9.758   4.695   3.876
81510SOL    HW246428   9.719   4.786   3.763
81511SOL     OW46429   6.861   2.796   2.359
81511SOL    HW146430   6.782   2.812   2.410
81511SOL    HW246431   6.872   2.701   2.359
81512SOL     OW46432  13.203   7.696  11.526
81512SOL    HW146433  13.146   7.771  11.507
81512SOL    HW246434  13.144   7.620  11.521
81513SOL     OW46435  11.413  14.379   8.537
81513SOL    HW146436  11.339  14.424   8.578
81513SOL    HW246437  11.379  14.293   8.514
81514SOL     OW46438   3.090   5.597  12.482
81514SOL    HW146439   3.007   5.559  12.510
81514SOL    HW246440   3.157   5.538  12.518
81515SOL     OW46441  12.713   6.300   9.887
81515SOL    HW146442  12.803   6.327   9.866
81515SOL    HW246443  12.658   6.365   9.843
81516SOL     OW46444   5.686   0.529   9.698
81516SOL    HW146445   5.766   0.505   9.746
81516SOL    HW246446   5.636   0.448   9.694
81517SOL     OW46447   6.956   1.009  12.603
81517SOL    HW146448   6.870   1.050  12.615
81517SOL    HW246449   6.939   0.915  12.611
81518SOL     OW46450  11.374  12.826   4.237
81518SOL    HW146451  11.296  12.840   4.183
81518SOL    HW246452  11.401  12.914   4.264
81519SOL     OW46453   1.496   7.512   0.176
81519SOL    HW146454   1.402   7.524   0.158
81519SOL    HW246455   1.521   7.590   0.225
81520SOL     OW46456   9.728   4.374   3.702
81520SOL    HW146457   9.797   4.350   3.764
81520SOL    HW246458   9.775   4.405   3.625
81521SOL     OW46459  13.146  13.421  10.142
81521SOL    HW146460  13.177  13.479  10.212
81521SOL    HW246461  13.147  13.334  10.182
81522SOL     OW46462   0.308  14.163   5.590
81522SOL    HW146463   0.253  14.089   5.614
81522SOL    HW246464   0.247  14.230   5.560
81523SOL     OW46465   0.775   0.668   9.882
81523SOL    HW146466   0.705   0.623   9.835
81523SOL    HW246467   0.853   0.616   9.865
81524SOL     OW46468  11.977   2.731  13.810
81524SOL    HW146469  11.950   2.641  13.827
81524SOL    HW246470  11.988   2.736  13.715
81525SOL     OW46471   1.045   5.908   5.617
81525SOL    HW146472   1.134   5.913   5.652
81525SOL    HW246473   1.041   5.981   5.554
81526SOL     OW46474   8.425   9.919   4.421
81526SOL    HW146475   8.341   9.959   4.400
81526SOL    HW246476   8.437   9.852   4.354
81527SOL     OW46477   8.252  11.362   3.329
81527SOL    HW146478   8.190  11.337   3.397
81527SOL    HW246479   8.205  11.350   3.247
81528SOL     OW46480   0.371   2.678   0.097
81528SOL    HW146481   0.309   2.700   0.167
81528SOL    HW246482   0.428   2.754   0.091
81529SOL     OW46483  14.329  13.577   1.745
81529SOL    HW146484  14.240  13.605   1.727
81529SOL    HW246485  14.345  13.604   1.836
81530SOL     OW46486   2.457  11.622   2.067
81530SOL    HW146487   2.379  11.599   2.118
81530SOL    HW246488   2.470  11.715   2.083
81531SOL     OW46489  10.695  10.915   6.068
81531SOL    HW146490  10.601  10.925   6.057
81531SOL    HW246491  10.711  10.821   6.052
81532SOL     OW46492   4.020   0.708   3.114
81532SOL    HW146493   4.046   0.698   3.206
81532SOL    HW246494   4.057   0.792   3.088
81533SOL     OW46495   4.793  13.647   3.860
81533SOL    HW146496   4.826  13.700   3.788
81533SOL    HW246497   4.722  13.596   3.821
81534SOL     OW46498  10.123  11.500   2.854
81534SOL    HW146499  10.208  11.488   2.897
81534SOL    HW246500  10.132  11.583   2.807
81535SOL     OW46501  14.642   4.660   8.280
81535SOL    HW146502  14.606   4.572   8.284
81535SOL    HW246503  14.655   4.686   8.372
81536SOL     OW46504  11.181   4.563  13.194
81536SOL    HW146505  11.183   4.586  13.287
81536SOL    HW246506  11.138   4.637  13.152
81537SOL     OW46507  13.908  11.750  12.270
81537SOL    HW146508  13.932  11.838  12.241
81537SOL    HW246509  13.968  11.692  12.223
81538SOL     OW46510   4.676   9.848  11.868
81538SOL    HW146511   4.621   9.909  11.818
81538SOL    HW246512   4.752   9.899  11.893
81539SOL     OW46513  10.952  13.175  10.017
81539SOL    HW146514  10.862  13.203   9.998
81539SOL    HW246515  10.976  13.223  10.095
81540SOL     OW46516  13.446   8.308   0.860
81540SOL    HW146517  13.489   8.351   0.786
81540SOL    HW246518  13.378   8.254   0.820
81541SOL     OW46519   3.076   9.806  14.588
81541SOL    HW146520   3.163   9.771  14.568
81541SOL    HW246521   3.042   9.748  14.656
81542SOL     OW46522  12.836   6.970   2.457
81542SOL    HW146523  12.752   7.014   2.444
81542SOL    HW246524  12.838   6.902   2.389
81543SOL     OW46525  14.202   8.093  14.329
81543SOL    HW146526  14.237   8.173  14.367
81543SOL    HW246527  14.215   8.026  14.397
81544SOL     OW46528   6.676   3.909   6.439
81544SOL    HW146529   6.734   3.905   6.363
81544SOL    HW246530   6.730   3.947   6.508
81545SOL     OW46531   4.718   1.471  13.886
81545SOL    HW146532   4.796   1.425  13.857
81545SOL    HW246533   4.712   1.451  13.980
81546SOL     OW46534  12.171   4.719   1.222
81546SOL    HW146535  12.155   4.805   1.261
81546SOL    HW246536  12.098   4.707   1.161
81547SOL     OW46537   5.642  14.582  12.286
81547SOL    HW146538   5.584  14.609  12.358
81547SOL    HW246539   5.730  14.603  12.317
81548SOL     OW46540   8.471   3.091  12.826
81548SOL    HW146541   8.471   3.148  12.904
81548SOL    HW246542   8.535   3.023  12.847
81549SOL     OW46543  11.210  14.831  11.066
81549SOL    HW146544  11.118  14.845  11.092
81549SOL    HW246545  11.206  14.818  10.971
81550SOL     OW46546  11.901  11.425   2.280
81550SOL    HW146547  11.841  11.499   2.284
81550SOL    HW246548  11.856  11.362   2.223
81551SOL     OW46549  11.607   1.675  14.560
81551SOL    HW146550  11.691   1.629  14.564
81551SOL    HW246551  11.601   1.721  14.644
81552SOL     OW46552  11.732   1.289   4.868
81552SOL    HW146553  11.805   1.328   4.917
81552SOL    HW246554  11.661   1.282   4.933
81553SOL     OW46555  14.433   5.639  13.607
81553SOL    HW146556  14.443   5.710  13.543
81553SOL    HW246557  14.519   5.633  13.648
81554SOL     OW46558   0.760  14.571   5.257
81554SOL    HW146559   0.778  14.495   5.202
81554SOL    HW246560   0.682  14.546   5.307
81555SOL     OW46561  12.756  13.807   8.842
81555SOL    HW146562  12.712  13.750   8.780
81555SOL    HW246563  12.687  13.838   8.900
81556SOL     OW46564  11.254   7.700   8.851
81556SOL    HW146565  11.241   7.620   8.800
81556SOL    HW246566  11.347   7.722   8.838
81557SOL     OW46567   0.882   4.838   0.546
81557SOL    HW146568   0.943   4.777   0.588
81557SOL    HW246569   0.850   4.893   0.617
81558SOL     OW46570   1.123  10.856  10.405
81558SOL    HW146571   1.039  10.875  10.446
81558SOL    HW246572   1.101  10.820  10.320
81559SOL     OW46573   2.788   8.693   6.944
81559SOL    HW146574   2.798   8.600   6.962
81559SOL    HW246575   2.871   8.719   6.905
81560SOL     OW46576   8.772  13.498  13.162
81560SOL    HW146577   8.803  13.556  13.232
81560SOL    HW246578   8.697  13.452  13.200
81561SOL     OW46579   2.369   2.082   2.383
81561SOL    HW146580   2.290   2.030   2.363
81561SOL    HW246581   2.344   2.172   2.363
81562SOL     OW46582  11.126   1.732   7.821
81562SOL    HW146583  11.136   1.791   7.896
81562SOL    HW246584  11.178   1.655   7.844
81563SOL     OW46585   8.225  11.338  10.763
81563SOL    HW146586   8.143  11.333  10.813
81563SOL    HW246587   8.230  11.253  10.719
81564SOL     OW46588   7.052  14.777  12.743
81564SOL    HW146589   7.106  14.856  12.740
81564SOL    HW246590   7.024  14.764  12.652
81565SOL     OW46591   4.319   9.798   8.736
81565SOL    HW146592   4.344   9.866   8.673
81565SOL    HW246593   4.397   9.783   8.788
81566SOL     OW46594  13.963   4.731  13.484
81566SOL    HW146595  13.945   4.821  13.507
81566SOL    HW246596  14.045   4.734  13.434
81567SOL     OW46597   4.444  13.551   1.055
81567SOL    HW146598   4.352  13.552   1.081
81567SOL    HW246599   4.486  13.618   1.108
81568SOL     OW46600  12.211  13.163   3.166
81568SOL    HW146601  12.166  13.164   3.250
81568SOL    HW246602  12.297  13.125   3.185
81569SOL     OW46603   9.393   2.818   4.821
81569SOL    HW146604   9.468   2.878   4.828
81569SOL    HW246605   9.362   2.829   4.731
81570SOL     OW46606   9.187   5.897  10.699
81570SOL    HW146607   9.253   5.837  10.664
81570SOL    HW246608   9.116   5.894  10.635
81571SOL     OW46609  10.843   2.608   8.581
81571SOL    HW146610  10.890   2.526   8.566
81571SOL    HW246611  10.762   2.599   8.530
81572SOL     OW46612  10.492   6.321  12.807
81572SOL    HW146613  10.433   6.379  12.757
81572SOL    HW246614  10.435   6.251  12.838
81573SOL     OW46615   0.476  11.700   3.362
81573SOL    HW146616   0.512  11.789   3.371
81573SOL    HW246617   0.382  11.713   3.354
81574SOL     OW46618  12.383   3.090   0.597
81574SOL    HW146619  12.321   3.071   0.668
81574SOL    HW246620  12.440   3.157   0.633
81575SOL     OW46621  11.937   3.084  13.019
81575SOL    HW146622  11.910   2.997  12.987
81575SOL    HW246623  11.909   3.086  13.110
81576SOL     OW46624   5.921   6.401  11.273
81576SOL    HW146625   5.937   6.460  11.347
81576SOL    HW246626   5.853   6.445  11.222
81577SOL     OW46627   1.615   2.513  10.176
81577SOL    HW146628   1.680   2.467  10.229
81577SOL    HW246629   1.666   2.558  10.109
81578SOL     OW46630   6.861   9.601  12.233
81578SOL    HW146631   6.916   9.523  12.235
81578SOL    HW246632   6.822   9.602  12.146
81579SOL     OW46633  11.819  12.287   4.270
81579SOL    HW146634  11.890  12.244   4.317
81579SOL    HW246635  11.839  12.380   4.275
81580SOL     OW46636  11.229  14.689  14.824
81580SOL    HW146637  11.182  14.617  14.781
81580SOL    HW246638  11.217  14.674   0.046
81581SOL     OW46639   7.576  12.287   3.087
81581SOL    HW146640   7.553  12.342   3.013
81581SOL    HW246641   7.540  12.201   3.066
81582SOL     OW46642  10.498   0.588   5.959
81582SOL    HW146643  10.412   0.624   5.941
81582SOL    HW246644  10.543   0.656   6.008
81583SOL     OW46645   8.396   8.808   4.854
81583SOL    HW146646   8.340   8.767   4.921
81583SOL    HW246647   8.351   8.889   4.832
81584SOL     OW46648   8.019  14.251   8.915
81584SOL    HW146649   7.963  14.173   8.911
81584SOL    HW246650   7.970  14.312   8.970
81585SOL     OW46651   0.177  13.248   0.616
81585SOL    HW146652   0.105  13.186   0.624
81585SOL    HW246653   0.249  13.208   0.665
81586SOL     OW46654   3.681   8.839   9.890
81586SOL    HW146655   3.756   8.811   9.838
81586SOL    HW246656   3.633   8.898   9.833
81587SOL     OW46657   1.328   0.585   5.859
81587SOL    HW146658   1.378   0.621   5.932
81587SOL    HW246659   1.314   0.659   5.800
81588SOL     OW46660   1.334   2.820   2.487
81588SOL    HW146661   1.390   2.781   2.554
81588SOL    HW246662   1.343   2.762   2.412
81589SOL     OW46663   8.584   4.661  11.246
81589SOL    HW146664   8.538   4.744  11.234
81589SOL    HW246665   8.526   4.609  11.301
81590SOL     OW46666   3.604   9.978  11.152
81590SOL    HW146667   3.699   9.968  11.148
81590SOL    HW246668   3.572   9.892  11.178
81591SOL     OW46669  14.506   9.108   2.763
81591SOL    HW146670  14.451   9.157   2.824
81591SOL    HW246671  14.480   9.017   2.776
81592SOL     OW46672   5.646  14.772   2.155
81592SOL    HW146673   5.626  14.684   2.188
81592SOL    HW246674   5.570  14.796   2.102
81593SOL     OW46675  11.073  10.331  13.828
81593SOL    HW146676  11.023  10.410  13.847
81593SOL    HW246677  11.075  10.284  13.912
81594SOL     OW46678  11.469  10.693  10.553
81594SOL    HW146679  11.553  10.731  10.578
81594SOL    HW246680  11.460  10.715  10.460
81595SOL     OW46681   5.991   5.331   8.893
81595SOL    HW146682   5.992   5.364   8.803
81595SOL    HW246683   6.056   5.384   8.939
81596SOL     OW46684  12.968   7.272   8.470
81596SOL    HW146685  12.903   7.337   8.444
81596SOL    HW246686  13.046   7.294   8.420
81597SOL     OW46687   6.356  12.543   2.294
81597SOL    HW146688   6.296  12.544   2.370
81597SOL    HW246689   6.351  12.454   2.261
81598SOL     OW46690  11.856  13.847  10.938
81598SOL    HW146691  11.795  13.881  11.004
81598SOL    HW246692  11.820  13.761  10.914
81599SOL     OW46693   9.748   8.606  10.632
81599SOL    HW146694   9.734   8.576  10.542
81599SOL    HW246695   9.667   8.650  10.655
81600SOL     OW46696  13.601   9.390  10.785
81600SOL    HW146697  13.673   9.389  10.721
81600SOL    HW246698  13.643   9.370  10.868
81601SOL     OW46699   2.197   9.523   8.149
81601SOL    HW146700   2.149   9.442   8.165
81601SOL    HW246701   2.283   9.509   8.189
81602SOL     OW46702  11.828   4.291  14.486
81602SOL    HW146703  11.769   4.316  14.416
81602SOL    HW246704  11.798   4.205  14.515
81603SOL     OW46705   7.607   3.151   0.395
81603SOL    HW146706   7.701   3.154   0.376
81603SOL    HW246707   7.603   3.151   0.491
81604SOL     OW46708  13.779   6.974   6.714
81604SOL    HW146709  13.855   6.927   6.749
81604SOL    HW246710  13.704   6.916   6.734
81605SOL     OW46711   2.780   3.530   4.656
81605SOL    HW146712   2.756   3.588   4.584
81605SOL    HW246713   2.728   3.451   4.642
81606SOL     OW46714   9.227   5.198   6.301
81606SOL    HW146715   9.248   5.278   6.253
81606SOL    HW246716   9.208   5.228   6.390
81607SOL     OW46717   2.494   8.692  13.775
81607SOL    HW146718   2.461   8.603  13.785
81607SOL    HW246719   2.514   8.720  13.864
81608SOL     OW46720   8.395   4.289   4.954
81608SOL    HW146721   8.440   4.207   4.935
81608SOL    HW246722   8.430   4.351   4.890
81609SOL     OW46723  14.567  11.240   2.963
81609SOL    HW146724  14.660  11.256   2.945
81609SOL    HW246725  14.523  11.321   2.936
81610SOL     OW46726   0.923   4.233  14.408
81610SOL    HW146727   0.949   4.179  14.333
81610SOL    HW246728   0.836   4.265  14.385
81611SOL     OW46729  13.800   4.453  10.201
81611SOL    HW146730  13.878   4.396  10.205
81611SOL    HW246731  13.736   4.410  10.258
81612SOL     OW46732   4.365   2.377   5.562
81612SOL    HW146733   4.367   2.282   5.561
81612SOL    HW246734   4.274   2.400   5.581
81613SOL     OW46735   0.712   2.640   6.582
81613SOL    HW146736   0.688   2.579   6.513
81613SOL    HW246737   0.751   2.585   6.650
81614SOL     OW46738   2.751  12.819  11.922
81614SOL    HW146739   2.736  12.907  11.959
81614SOL    HW246740   2.774  12.765  11.998
81615SOL     OW46741   4.396  13.332   3.607
81615SOL    HW146742   4.340  13.258   3.582
81615SOL    HW246743   4.353  13.369   3.684
81616SOL     OW46744   7.407   0.157  11.077
81616SOL    HW146745   7.353   0.219  11.126
81616SOL    HW246746   7.345   0.095  11.040
81617SOL     OW46747  10.514   4.535   3.883
81617SOL    HW146748  10.558   4.541   3.967
81617SOL    HW246749  10.456   4.611   3.880
81618SOL     OW46750  14.337  12.482   6.949
81618SOL    HW146751  14.269  12.541   6.916
81618SOL    HW246752  14.289  12.405   6.980
81619SOL     OW46753   4.362   5.626   5.109
81619SOL    HW146754   4.426   5.577   5.057
81619SOL    HW246755   4.280   5.619   5.060
81620SOL     OW46756   3.975  13.722   4.406
81620SOL    HW146757   3.957  13.815   4.390
81620SOL    HW246758   4.000  13.719   4.499
81621SOL     OW46759   8.786   7.233   0.017
81621SOL    HW146760   8.858   7.272  14.839
81621SOL    HW246761   8.707   7.269  14.848
81622SOL     OW46762   8.462   0.559   9.223
81622SOL    HW146763   8.522   0.490   9.254
81622SOL    HW246764   8.441   0.609   9.301
81623SOL     OW46765   1.003   9.784   2.240
81623SOL    HW146766   1.068   9.789   2.310
81623SOL    HW246767   1.053   9.786   2.159
81624SOL     OW46768   4.169  11.319   3.549
81624SOL    HW146769   4.225  11.382   3.594
81624SOL    HW246770   4.223  11.286   3.477
81625SOL     OW46771  10.045  10.763   8.922
81625SOL    HW146772  10.110  10.730   8.984
81625SOL    HW246773  10.097  10.800   8.851
81626SOL     OW46774   5.154   3.533  12.544
81626SOL    HW146775   5.144   3.461  12.606
81626SOL    HW246776   5.247   3.531  12.521
81627SOL     OW46777   1.980   3.791   8.547
81627SOL    HW146778   2.041   3.849   8.594
81627SOL    HW246779   1.893   3.828   8.565
81628SOL     OW46780   2.036  13.006   8.652
81628SOL    HW146781   1.944  13.023   8.674
81628SOL    HW246782   2.085  13.067   8.705
81629SOL     OW46783   7.065   7.674   3.728
81629SOL    HW146784   7.051   7.630   3.644
81629SOL    HW246785   7.122   7.748   3.707
81630SOL     OW46786   6.559   5.119   3.025
81630SOL    HW146787   6.578   5.033   2.989
81630SOL    HW246788   6.595   5.181   2.961
81631SOL     OW46789   0.575   1.487   1.574
81631SOL    HW146790   0.650   1.538   1.544
81631SOL    HW246791   0.597   1.461   1.663
81632SOL     OW46792   7.982   4.911   6.099
81632SOL    HW146793   7.890   4.917   6.125
81632SOL    HW246794   8.002   4.818   6.107
81633SOL     OW46795  14.637  12.285   6.410
81633SOL    HW146796  14.672  12.324   6.490
81633SOL    HW246797  14.653  12.350   6.342
81634SOL     OW46798  12.492   1.475   3.152
81634SOL    HW146799  12.409   1.489   3.106
81634SOL    HW246800  12.479   1.517   3.237
81635SOL     OW46801  10.152   8.018   3.182
81635SOL    HW146802  10.192   8.087   3.236
81635SOL    HW246803  10.075   8.059   3.143
81636SOL     OW46804   2.802  13.446   6.557
81636SOL    HW146805   2.731  13.449   6.493
81636SOL    HW246806   2.878  13.420   6.506
81637SOL     OW46807   2.904  14.659   0.075
81637SOL    HW146808   2.834  14.600   0.045
81637SOL    HW246809   2.872  14.694   0.158
81638SOL     OW46810   9.276  14.325   3.208
81638SOL    HW146811   9.204  14.345   3.269
81638SOL    HW246812   9.233  14.285   3.133
81639SOL     OW46813   1.071   9.507  13.303
81639SOL    HW146814   1.080   9.483  13.210
81639SOL    HW246815   1.131   9.580  13.314
81640SOL     OW46816   0.913   9.055  10.203
81640SOL    HW146817   0.962   9.088  10.278
81640SOL    HW246818   0.830   9.102  10.205
81641SOL     OW46819  14.554   0.684   7.721
81641SOL    HW146820  14.588   0.759   7.771
81641SOL    HW246821  14.537   0.617   7.786
81642SOL     OW46822   3.712   6.309  12.725
81642SOL    HW146823   3.790   6.280  12.771
81642SOL    HW246824   3.666   6.229  12.700
81643SOL     OW46825   5.902   4.137   2.930
81643SOL    HW146826   5.814   4.143   2.891
81643SOL    HW246827   5.940   4.059   2.890
81644SOL     OW46828   9.184   5.847   1.636
81644SOL    HW146829   9.245   5.801   1.578
81644SOL    HW246830   9.133   5.903   1.578
81645SOL     OW46831  14.793   7.855  10.265
81645SOL    HW146832  14.729   7.841  10.336
81645SOL    HW246833  14.847   7.927  10.297
81646SOL     OW46834   3.086   2.969  10.288
81646SOL    HW146835   3.101   3.038  10.353
81646SOL    HW246836   3.174   2.937  10.267
81647SOL     OW46837   4.158  12.737  10.371
81647SOL    HW146838   4.099  12.809  10.392
81647SOL    HW246839   4.228  12.777  10.320
81648SOL     OW46840   9.231  12.780  13.331
81648SOL    HW146841   9.259  12.787  13.423
81648SOL    HW246842   9.312  12.760  13.284
81649SOL     OW46843  10.104   0.113   5.094
81649SOL    HW146844  10.188   0.149   5.065
81649SOL    HW246845  10.052   0.190   5.117
81650SOL     OW46846  11.656  11.518   2.885
81650SOL    HW146847  11.640  11.440   2.937
81650SOL    HW246848  11.706  11.575   2.944
81651SOL     OW46849   5.964   2.103  13.190
81651SOL    HW146850   5.967   2.191  13.154
81651SOL    HW246851   5.883   2.100  13.241
81652SOL     OW46852   8.685   6.279   9.977
81652SOL    HW146853   8.741   6.246  10.047
81652SOL    HW246854   8.663   6.201   9.926
81653SOL     OW46855   8.918   8.517   5.345
81653SOL    HW146856   8.860   8.441   5.337
81653SOL    HW246857   9.006   8.479   5.349
81654SOL     OW46858   3.664  12.753   3.158
81654SOL    HW146859   3.721  12.787   3.090
81654SOL    HW246860   3.714  12.762   3.239
81655SOL     OW46861  12.031   2.744  13.469
81655SOL    HW146862  12.100   2.710  13.526
81655SOL    HW246863  11.994   2.667  13.427
81656SOL     OW46864   1.834   8.305   4.538
81656SOL    HW146865   1.770   8.362   4.581
81656SOL    HW246866   1.914   8.317   4.590
81657SOL     OW46867   9.397  11.989   5.577
81657SOL    HW146868   9.403  11.955   5.488
81657SOL    HW246869   9.449  12.069   5.576
81658SOL     OW46870   5.149   9.051   7.327
81658SOL    HW146871   5.127   9.012   7.412
81658SOL    HW246872   5.155   8.976   7.268
81659SOL     OW46873   1.052   5.692   9.627
81659SOL    HW146874   1.136   5.731   9.605
81659SOL    HW246875   1.022   5.742   9.704
81660SOL     OW46876   8.255   9.986   5.403
81660SOL    HW146877   8.177  10.032   5.373
81660SOL    HW246878   8.250   9.989   5.498
81661SOL     OW46879   1.864   4.362  11.213
81661SOL    HW146880   1.822   4.448  11.207
81661SOL    HW246881   1.833   4.315  11.136
81662SOL     OW46882   2.365  12.252   9.814
81662SOL    HW146883   2.285  12.301   9.833
81662SOL    HW246884   2.354  12.170   9.863
81663SOL     OW46885  13.567   7.214  10.368
81663SOL    HW146886  13.527   7.219  10.455
81663SOL    HW246887  13.605   7.126  10.365
81664SOL     OW46888   6.096   5.185   2.174
81664SOL    HW146889   6.189   5.188   2.154
81664SOL    HW246890   6.060   5.265   2.135
81665SOL     OW46891   1.332   9.071   1.809
81665SOL    HW146892   1.402   9.045   1.750
81665SOL    HW246893   1.255   9.024   1.778
81666SOL     OW46894  11.365  13.143   0.699
81666SOL    HW146895  11.319  13.068   0.660
81666SOL    HW246896  11.312  13.219   0.676
81667SOL     OW46897   1.205   3.411  14.043
81667SOL    HW146898   1.284   3.418  13.990
81667SOL    HW246899   1.178   3.319  14.033
81668SOL     OW46900   9.268  13.715   1.926
81668SOL    HW146901   9.255  13.643   1.865
81668SOL    HW246902   9.323  13.679   1.996
81669SOL     OW46903   7.793  12.347   3.686
81669SOL    HW146904   7.878  12.309   3.663
81669SOL    HW246905   7.803  12.373   3.778
81670SOL     OW46906   5.460   5.502   7.495
81670SOL    HW146907   5.537   5.470   7.449
81670SOL    HW246908   5.483   5.497   7.588
81671SOL     OW46909  10.323   2.623   1.012
81671SOL    HW146910  10.319   2.622   1.108
81671SOL    HW246911  10.409   2.659   0.992
81672SOL     OW46912   1.043   9.753  14.218
81672SOL    HW146913   0.994   9.688  14.168
81672SOL    HW246914   1.132   9.746  14.186
81673SOL     OW46915   9.563   8.363  13.796
81673SOL    HW146916   9.535   8.398  13.881
81673SOL    HW246917   9.659   8.362  13.801
81674SOL     OW46918   0.053  11.047   8.677
81674SOL    HW146919   0.092  11.037   8.590
81674SOL    HW246920  14.831  11.057   8.660
81675SOL     OW46921   9.206   4.337   7.024
81675SOL    HW146922   9.200   4.241   7.031
81675SOL    HW246923   9.116   4.367   7.037
81676SOL     OW46924   8.144   4.562  11.778
81676SOL    HW146925   8.105   4.642  11.741
81676SOL    HW246926   8.161   4.506  11.702
81677SOL     OW46927   9.483   4.627   3.607
81677SOL    HW146928   9.502   4.719   3.627
81677SOL    HW246929   9.543   4.578   3.663
81678SOL     OW46930   5.247   7.997   5.790
81678SOL    HW146931   5.160   7.987   5.753
81678SOL    HW246932   5.261   7.918   5.842
81679SOL     OW46933  10.532   0.743   3.990
81679SOL    HW146934  10.561   0.665   3.941
81679SOL    HW246935  10.459   0.777   3.939
81680SOL     OW46936   2.093   0.766   0.446
81680SOL    HW146937   2.184   0.755   0.472
81680SOL    HW246938   2.094   0.761   0.350
81681SOL     OW46939  13.390  12.669  13.752
81681SOL    HW146940  13.328  12.660  13.825
81681SOL    HW246941  13.360  12.747  13.705
81682SOL     OW46942  11.160   7.199   1.913
81682SOL    HW146943  11.145   7.105   1.925
81682SOL    HW246944  11.119   7.219   1.828
81683SOL     OW46945   1.479   9.219   4.635
81683SOL    HW146946   1.551   9.194   4.693
81683SOL    HW246947   1.433   9.137   4.617
81684SOL     OW46948   5.745   7.909   6.162
81684SOL    HW146949   5.662   7.913   6.210
81684SOL    HW246950   5.809   7.882   6.228
81685SOL     OW46951   9.069  13.920   4.590
81685SOL    HW146952   8.984  13.895   4.625
81685SOL    HW246953   9.107  13.977   4.657
81686SOL     OW46954   9.625   4.830   5.365
81686SOL    HW146955   9.672   4.885   5.426
81686SOL    HW246956   9.572   4.891   5.313
81687SOL     OW46957   1.733   9.482   6.406
81687SOL    HW146958   1.694   9.540   6.341
81687SOL    HW246959   1.690   9.397   6.392
81688SOL     OW46960   7.103   8.185   9.030
81688SOL    HW146961   7.119   8.246   8.957
81688SOL    HW246962   7.084   8.242   9.104
81689SOL     OW46963  12.283   1.631  11.522
81689SOL    HW146964  12.240   1.559  11.476
81689SOL    HW246965  12.364   1.593  11.555
81690SOL     OW46966   9.097   0.197  10.674
81690SOL    HW146967   9.038   0.203  10.749
81690SOL    HW246968   9.183   0.221  10.708
81691SOL     OW46969  12.308   0.859   1.764
81691SOL    HW146970  12.299   0.789   1.699
81691SOL    HW246971  12.225   0.857   1.812
81692SOL     OW46972  13.411   2.872  12.451
81692SOL    HW146973  13.387   2.888  12.542
81692SOL    HW246974  13.352   2.801  12.423
81693SOL     OW46975   0.366   5.854  11.923
81693SOL    HW146976   0.386   5.826  12.013
81693SOL    HW246977   0.308   5.930  11.934
81694SOL     OW46978   7.711   9.206   6.171
81694SOL    HW146979   7.715   9.223   6.077
81694SOL    HW246980   7.621   9.228   6.195
81695SOL     OW46981  11.176  14.260  13.599
81695SOL    HW146982  11.199  14.192  13.536
81695SOL    HW246983  11.088  14.237  13.629
81696SOL     OW46984   1.615  14.461   3.031
81696SOL    HW146985   1.689  14.505   3.074
81696SOL    HW246986   1.655  14.412   2.959
81697SOL     OW46987   2.980  11.687   5.702
81697SOL    HW146988   2.928  11.718   5.628
81697SOL    HW246989   3.050  11.751   5.712
81698SOL     OW46990   3.173   5.515   6.800
81698SOL    HW146991   3.248   5.485   6.749
81698SOL    HW246992   3.111   5.547   6.735
81699SOL     OW46993   4.468  14.075  12.785
81699SOL    HW146994   4.545  14.039  12.829
81699SOL    HW246995   4.479  14.051  12.693
81700SOL     OW46996   9.002   7.471   9.263
81700SOL    HW146997   8.997   7.558   9.225
81700SOL    HW246998   8.925   7.425   9.228
81701SOL     OW46999  13.254  13.645   7.525
81701SOL    HW147000  13.278  13.615   7.613
81701SOL    HW247001  13.248  13.564   7.473
81702SOL     OW47002   7.293  10.101   7.048
81702SOL    HW147003   7.261  10.061   7.129
81702SOL    HW247004   7.356  10.166   7.077
81703SOL     OW47005   1.216   3.471  14.856
81703SOL    HW147006   1.162   3.419   0.043
81703SOL    HW247007   1.185   3.561  14.868
81704SOL     OW47008  10.759   4.096   9.164
81704SOL    HW147009  10.853   4.110   9.175
81704SOL    HW247010  10.747   4.079   9.071
81705SOL     OW47011   3.138  12.895   3.152
81705SOL    HW147012   3.150  12.859   3.064
81705SOL    HW247013   3.226  12.898   3.189
81706SOL     OW47014   2.520  14.066   3.730
81706SOL    HW147015   2.553  14.147   3.770
81706SOL    HW247016   2.590  14.002   3.743
81707SOL     OW47017   0.906   2.145   6.502
81707SOL    HW147018   0.959   2.222   6.483
81707SOL    HW247019   0.965   2.085   6.547
81708SOL     OW47020  11.909   8.923   9.238
81708SOL    HW147021  11.838   8.864   9.262
81708SOL    HW247022  11.959   8.935   9.318
81709SOL     OW47023   3.110   6.896   5.832
81709SOL    HW147024   3.201   6.924   5.821
81709SOL    HW247025   3.089   6.851   5.751
81710SOL     OW47026   1.933   2.410  13.871
81710SOL    HW147027   1.849   2.422  13.915
81710SOL    HW247028   1.920   2.332  13.817
81711SOL     OW47029   7.287   7.047  11.255
81711SOL    HW147030   7.343   7.108  11.304
81711SOL    HW247031   7.228   7.012  11.321
81712SOL     OW47032   5.182  14.105  10.208
81712SOL    HW147033   5.201  14.019  10.169
81712SOL    HW247034   5.130  14.085  10.286
81713SOL     OW47035   3.177   1.438   9.310
81713SOL    HW147036   3.255   1.488   9.337
81713SOL    HW247037   3.213   1.360   9.269
81714SOL     OW47038   2.815   6.995  12.354
81714SOL    HW147039   2.784   6.932  12.289
81714SOL    HW247040   2.910   6.998  12.342
81715SOL     OW47041  10.019  13.107  10.672
81715SOL    HW147042   9.956  13.044  10.637
81715SOL    HW247043  10.104  13.063  10.665
81716SOL     OW47044   4.059   3.423   7.439
81716SOL    HW147045   3.974   3.412   7.481
81716SOL    HW247046   4.114   3.355   7.477
81717SOL     OW47047   2.370   3.688   9.698
81717SOL    HW147048   2.414   3.605   9.677
81717SOL    HW247049   2.341   3.721   9.613
81718SOL     OW47050   6.556   3.788   2.521
81718SOL    HW147051   6.650   3.774   2.523
81718SOL    HW247052   6.518   3.700   2.526
81719SOL     OW47053  14.682   8.746  14.489
81719SOL    HW147054  14.700   8.824  14.542
81719SOL    HW247055  14.702   8.673  14.548
81720SOL     OW47056  13.411  14.493   2.550
81720SOL    HW147057  13.414  14.417   2.492
81720SOL    HW247058  13.344  14.471   2.615
81721SOL     OW47059   2.272  12.585   9.021
81721SOL    HW147060   2.365  12.578   9.042
81721SOL    HW247061   2.269  12.619   8.932
81722SOL     OW47062   0.548   3.107   6.251
81722SOL    HW147063   0.505   3.178   6.298
81722SOL    HW247064   0.476   3.060   6.209
81723SOL     OW47065   8.395   8.456   4.838
81723SOL    HW147066   8.456   8.400   4.791
81723SOL    HW247067   8.319   8.464   4.780
81724SOL     OW47068  10.478   3.392   3.813
81724SOL    HW147069  10.571   3.384   3.792
81724SOL    HW247070  10.434   3.383   3.728
81725SOL     OW47071  11.906   9.147   7.260
81725SOL    HW147072  11.933   9.141   7.352
81725SOL    HW247073  11.934   9.064   7.221
81726SOL     OW47074   7.062   8.447  10.162
81726SOL    HW147075   7.103   8.418  10.080
81726SOL    HW247076   7.079   8.541  10.165
81727SOL     OW47077   9.676  14.860  11.474
81727SOL    HW147078   9.756  14.813  11.450
81727SOL    HW247079   9.606  14.799  11.450
81728SOL     OW47080  12.397  11.331   8.273
81728SOL    HW147081  12.492  11.326   8.260
81728SOL    HW247082  12.360  11.306   8.189
81729SOL     OW47083   8.164   7.547   9.474
81729SOL    HW147084   8.076   7.509   9.481
81729SOL    HW247085   8.203   7.533   9.560
81730SOL     OW47086   8.650   8.380   5.692
81730SOL    HW147087   8.606   8.399   5.774
81730SOL    HW247088   8.640   8.286   5.680
81731SOL     OW47089  12.255   1.818   0.364
81731SOL    HW147090  12.305   1.883   0.315
81731SOL    HW247091  12.207   1.769   0.297
81732SOL     OW47092  13.083  10.671   5.874
81732SOL    HW147093  13.168  10.714   5.859
81732SOL    HW247094  13.044  10.720   5.946
81733SOL     OW47095   5.697  13.524   4.279
81733SOL    HW147096   5.659  13.554   4.196
81733SOL    HW247097   5.781  13.484   4.254
81734SOL     OW47098   7.952  13.777  10.107
81734SOL    HW147099   8.024  13.799  10.048
81734SOL    HW247100   7.920  13.862  10.139
81735SOL     OW47101   6.734   9.368   0.933
81735SOL    HW147102   6.716   9.283   0.893
81735SOL    HW247103   6.830   9.375   0.934
81736SOL     OW47104  12.421  12.113   5.857
81736SOL    HW147105  12.479  12.047   5.818
81736SOL    HW247106  12.358  12.133   5.788
81737SOL     OW47107   0.256   5.166   9.678
81737SOL    HW147108   0.229   5.192   9.766
81737SOL    HW247109   0.307   5.087   9.691
81738SOL     OW47110   3.224  14.136  13.525
81738SOL    HW147111   3.144  14.179  13.493
81738SOL    HW247112   3.282  14.135  13.448
81739SOL     OW47113  10.828   0.851   1.834
81739SOL    HW147114  10.738   0.873   1.812
81739SOL    HW247115  10.862   0.809   1.755
81740SOL     OW47116   0.333   6.649  10.029
81740SOL    HW147117   0.378   6.617   9.950
81740SOL    HW247118   0.404   6.682  10.085
81741SOL     OW47119   8.835   5.248   4.675
81741SOL    HW147120   8.828   5.155   4.696
81741SOL    HW247121   8.858   5.250   4.582
81742SOL     OW47122  11.474   3.466  12.881
81742SOL    HW147123  11.379   3.473  12.893
81742SOL    HW247124  11.492   3.518  12.803
81743SOL     OW47125   9.286   3.940   5.116
81743SOL    HW147126   9.213   3.890   5.080
81743SOL    HW247127   9.304   3.899   5.201
81744SOL     OW47128   7.293   9.994   5.858
81744SOL    HW147129   7.239   9.996   5.937
81744SOL    HW247130   7.310  10.086   5.838
81745SOL     OW47131  12.781  10.577   5.963
81745SOL    HW147132  12.848  10.513   5.987
81745SOL    HW247133  12.703  10.525   5.944
81746SOL     OW47134   8.668  12.832   2.868
81746SOL    HW147135   8.755  12.843   2.905
81746SOL    HW247136   8.625  12.769   2.926
81747SOL     OW47137   1.715   6.904   4.922
81747SOL    HW147138   1.684   6.815   4.903
81747SOL    HW247139   1.724   6.945   4.836
81748SOL     OW47140   8.759  14.616   4.251
81748SOL    HW147141   8.799  14.687   4.301
81748SOL    HW247142   8.718  14.560   4.317
81749SOL     OW47143  13.989  11.225   2.533
81749SOL    HW147144  13.907  11.221   2.485
81749SOL    HW247145  13.969  11.184   2.618
81750SOL     OW47146   3.466  14.440   3.350
81750SOL    HW147147   3.413  14.505   3.396
81750SOL    HW247148   3.453  14.460   3.257
81751SOL     OW47149  10.164  13.344  12.631
81751SOL    HW147150  10.095  13.278  12.641
81751SOL    HW247151  10.133  13.400  12.560
81752SOL     OW47152   8.340   6.939   5.028
81752SOL    HW147153   8.347   6.851   5.066
81752SOL    HW247154   8.298   6.991   5.097
81753SOL     OW47155   0.887   8.712   8.532
81753SOL    HW147156   0.935   8.684   8.453
81753SOL    HW247157   0.945   8.690   8.604
81754SOL     OW47158   4.289   9.643   0.437
81754SOL    HW147159   4.292   9.701   0.513
81754SOL    HW247160   4.255   9.560   0.471
81755SOL     OW47161   2.859  11.006   0.381
81755SOL    HW147162   2.935  10.954   0.406
81755SOL    HW247163   2.785  10.966   0.426
81756SOL     OW47164   7.873   6.801   1.226
81756SOL    HW147165   7.928   6.789   1.148
81756SOL    HW247166   7.784   6.807   1.193
81757SOL     OW47167   5.159  14.567  10.792
81757SOL    HW147168   5.200  14.495  10.840
81757SOL    HW247169   5.227  14.633  10.785
81758SOL     OW47170   5.653   1.471  13.281
81758SOL    HW147171   5.562   1.470  13.310
81758SOL    HW247172   5.688   1.386  13.308
81759SOL     OW47173   4.537  14.125   4.960
81759SOL    HW147174   4.442  14.134   4.956
81759SOL    HW247175   4.551  14.032   4.977
81760SOL     OW47176  12.133  14.866   9.889
81760SOL    HW147177  12.138   0.084   9.857
81760SOL    HW247178  12.049  14.861   9.934
81761SOL     OW47179   3.123  13.274  12.647
81761SOL    HW147180   3.188  13.220  12.692
81761SOL    HW247181   3.138  13.362  12.681
81762SOL     OW47182   7.581   7.919   1.308
81762SOL    HW147183   7.611   7.982   1.374
81762SOL    HW247184   7.660   7.899   1.257
81763SOL     OW47185   1.573   0.820   2.766
81763SOL    HW147186   1.659   0.840   2.803
81763SOL    HW247187   1.591   0.756   2.697
81764SOL     OW47188   2.404   8.423  14.415
81764SOL    HW147189   2.385   8.400  14.324
81764SOL    HW247190   2.472   8.491  14.408
81765SOL     OW47191   6.651  11.047   2.245
81765SOL    HW147192   6.714  11.095   2.300
81765SOL    HW247193   6.593  11.114   2.211
81766SOL     OW47194  11.766   9.265   8.556
81766SOL    HW147195  11.714   9.328   8.507
81766SOL    HW247196  11.713   9.185   8.557
81767SOL     OW47197  13.750   4.453   5.015
81767SOL    HW147198  13.772   4.545   5.025
81767SOL    HW247199  13.788   4.428   4.931
81768SOL     OW47200   8.692   6.096   4.125
81768SOL    HW147201   8.600   6.098   4.100
81768SOL    HW247202   8.696   6.146   4.206
81769SOL     OW47203   8.145   8.220   1.559
81769SOL    HW147204   8.219   8.265   1.516
81769SOL    HW247205   8.115   8.281   1.626
81770SOL     OW47206   2.104  10.116   9.397
81770SOL    HW147207   2.009  10.108   9.385
81770SOL    HW247208   2.142  10.084   9.315
81771SOL     OW47209   4.225   7.519   3.650
81771SOL    HW147210   4.319   7.531   3.657
81771SOL    HW247211   4.188   7.596   3.692
81772SOL     OW47212  14.248   3.997   6.055
81772SOL    HW147213  14.229   3.904   6.044
81772SOL    HW247214  14.162   4.038   6.069
81773SOL     OW47215   5.995   8.928   1.631
81773SOL    HW147216   5.973   9.021   1.642
81773SOL    HW247217   5.911   8.883   1.639
81774SOL     OW47218  11.363  12.850  10.849
81774SOL    HW147219  11.458  12.857  10.860
81774SOL    HW247220  11.338  12.774  10.901
81775SOL     OW47221   1.059   7.534   1.301
81775SOL    HW147222   1.053   7.588   1.222
81775SOL    HW247223   1.152   7.536   1.324
81776SOL     OW47224   8.707   5.718   3.804
81776SOL    HW147225   8.670   5.758   3.882
81776SOL    HW247226   8.716   5.790   3.742
81777SOL     OW47227   9.166   0.627   0.488
81777SOL    HW147228   9.247   0.677   0.503
81777SOL    HW247229   9.096   0.687   0.513
81778SOL     OW47230   3.872   5.283   4.511
81778SOL    HW147231   3.897   5.371   4.537
81778SOL    HW247232   3.865   5.287   4.416
81779SOL     OW47233   8.719   6.343   5.656
81779SOL    HW147234   8.643   6.290   5.633
81779SOL    HW247235   8.703   6.372   5.746
81780SOL     OW47236   3.855   0.820  11.136
81780SOL    HW147237   3.774   0.869  11.148
81780SOL    HW247238   3.912   0.849  11.207
81781SOL     OW47239   8.965   7.303  11.634
81781SOL    HW147240   8.977   7.209  11.621
81781SOL    HW247241   8.911   7.310  11.712
81782SOL     OW47242   6.895   6.046  10.152
81782SOL    HW147243   6.958   5.976  10.136
81782SOL    HW247244   6.824   6.030  10.090
81783SOL     OW47245   6.973   3.655  14.074
81783SOL    HW147246   7.005   3.575  14.116
81783SOL    HW247247   6.947   3.627  13.986
81784SOL     OW47248  14.760   4.219   4.620
81784SOL    HW147249  14.803   4.301   4.597
81784SOL    HW247250  14.681   4.216   4.565
81785SOL     OW47251   2.509  14.341  14.032
81785SOL    HW147252   2.434  14.339  13.972
81785SOL    HW247253   2.567  14.272  14.000
81786SOL     OW47254   6.421   8.831   4.008
81786SOL    HW147255   6.361   8.906   4.013
81786SOL    HW247256   6.449   8.828   3.917
81787SOL     OW47257  13.632   8.319   5.121
81787SOL    HW147258  13.560   8.280   5.072
81787SOL    HW247259  13.669   8.247   5.172
81788SOL     OW47260  10.819   6.424  12.905
81788SOL    HW147261  10.885   6.467  12.959
81788SOL    HW247262  10.869   6.373  12.841
81789SOL     OW47263  14.018  12.221   2.840
81789SOL    HW147264  14.069  12.186   2.913
81789SOL    HW247265  13.931  12.237   2.877
81790SOL     OW47266  13.472  12.518   7.301
81790SOL    HW147267  13.439  12.552   7.384
81790SOL    HW247268  13.397  12.472   7.263
81791SOL     OW47269  13.294   1.030  11.147
81791SOL    HW147270  13.297   1.126  11.153
81791SOL    HW247271  13.217   1.012  11.093
81792SOL     OW47272   6.006   4.060   3.852
81792SOL    HW147273   6.013   4.118   3.928
81792SOL    HW247274   6.008   3.972   3.889
81793SOL     OW47275   6.602   2.596   2.367
81793SOL    HW147276   6.630   2.668   2.310
81793SOL    HW247277   6.613   2.629   2.455
81794SOL     OW47278   9.042   8.138   5.243
81794SOL    HW147279   9.015   8.046   5.245
81794SOL    HW247280   9.068   8.154   5.152
81795SOL     OW47281   4.417   9.006  11.395
81795SOL    HW147282   4.336   8.989  11.442
81795SOL    HW247283   4.389   9.042  11.310
81796SOL     OW47284   5.047  10.742   9.516
81796SOL    HW147285   5.122  10.686   9.497
81796SOL    HW247286   4.989  10.732   9.441
81797SOL     OW47287  14.296   1.428   4.522
81797SOL    HW147288  14.302   1.359   4.588
81797SOL    HW247289  14.246   1.498   4.565
81798SOL     OW47290  11.680   9.533  11.663
81798SOL    HW147291  11.592   9.503  11.639
81798SOL    HW247292  11.730   9.529  11.581
81799SOL     OW47293  10.820   7.402   7.383
81799SOL    HW147294  10.798   7.362   7.299
81799SOL    HW247295  10.813   7.331   7.447
81800SOL     OW47296   7.652  11.542   6.924
81800SOL    HW147297   7.629  11.634   6.936
81800SOL    HW247298   7.747  11.541   6.917
81801SOL     OW47299   8.909   0.323   5.798
81801SOL    HW147300   8.931   0.256   5.733
81801SOL    HW247301   8.944   0.404   5.761
81802SOL     OW47302  13.155   3.292  10.469
81802SOL    HW147303  13.233   3.348  10.470
81802SOL    HW247304  13.085   3.347  10.502
81803SOL     OW47305   2.902   3.197  11.322
81803SOL    HW147306   2.814   3.177  11.354
81803SOL    HW247307   2.933   3.268  11.378
81804SOL     OW47308   4.684   4.474  14.684
81804SOL    HW147309   4.747   4.407  14.659
81804SOL    HW247310   4.736   4.537  14.734
81805SOL     OW47311   3.664   0.934   7.640
81805SOL    HW147312   3.574   0.967   7.651
81805SOL    HW247313   3.673   0.918   7.546
81806SOL     OW47314  12.269   5.825   8.655
81806SOL    HW147315  12.280   5.764   8.582
81806SOL    HW247316  12.212   5.894   8.621
81807SOL     OW47317  14.086   8.195  11.444
81807SOL    HW147318  14.159   8.246  11.481
81807SOL    HW247319  14.066   8.239  11.362
81808SOL     OW47320   1.757   2.432  13.609
81808SOL    HW147321   1.767   2.506  13.670
81808SOL    HW247322   1.780   2.355  13.661
81809SOL     OW47323   8.409   5.554   6.514
81809SOL    HW147324   8.356   5.565   6.435
81809SOL    HW247325   8.411   5.641   6.554
81810SOL     OW47326  10.892  12.212   9.754
81810SOL    HW147327  10.949  12.233   9.680
81810SOL    HW247328  10.872  12.119   9.744
81811SOL     OW47329   9.747  14.206   5.221
81811SOL    HW147330   9.801  14.272   5.179
81811SOL    HW247331   9.693  14.170   5.151
81812SOL     OW47332  12.084   6.213   0.123
81812SOL    HW147333  12.023   6.208   0.049
81812SOL    HW247334  12.076   6.304   0.153
81813SOL     OW47335  14.757  10.937   9.834
81813SOL    HW147336  14.799  10.866   9.786
81813SOL    HW247337  14.683  10.963   9.780
81814SOL     OW47338  14.324  14.045  11.806
81814SOL    HW147339  14.344  14.004  11.721
81814SOL    HW247340  14.335  13.975  11.870
81815SOL     OW47341  14.033  14.791   8.080
81815SOL    HW147342  14.075  14.716   8.038
81815SOL    HW247343  13.940  14.782   8.056
81816SOL     OW47344  12.604  11.727   3.697
81816SOL    HW147345  12.659  11.648   3.701
81816SOL    HW247346  12.520  11.700   3.734
81817SOL     OW47347   7.608   1.835   4.114
81817SOL    HW147348   7.674   1.772   4.144
81817SOL    HW247349   7.643   1.870   4.033
81818SOL     OW47350   7.479  12.770  14.184
81818SOL    HW147351   7.489  12.704  14.253
81818SOL    HW247352   7.399  12.817  14.208
81819SOL     OW47353  13.443   8.192   4.997
81819SOL    HW147354  13.396   8.196   4.914
81819SOL    HW247355  13.392   8.130   5.050
81820SOL     OW47356   1.562   2.802  10.177
81820SOL    HW147357   1.525   2.714  10.181
81820SOL    HW247358   1.645   2.796  10.224
81821SOL     OW47359   8.926   7.540   4.089
81821SOL    HW147360   8.957   7.560   4.178
81821SOL    HW247361   8.893   7.450   4.096
81822SOL     OW47362  12.294   6.326   0.795
81822SOL    HW147363  12.303   6.301   0.703
81822SOL    HW247364  12.233   6.400   0.794
81823SOL     OW47365   6.082   7.764  14.335
81823SOL    HW147366   6.122   7.684  14.368
81823SOL    HW247367   6.001   7.735  14.293
81824SOL     OW47368   5.373   1.970   4.119
81824SOL    HW147369   5.297   2.024   4.138
81824SOL    HW247370   5.410   2.007   4.039
81825SOL     OW47371  13.727  11.249   4.601
81825SOL    HW147372  13.662  11.207   4.657
81825SOL    HW247373  13.798  11.274   4.661
81826SOL     OW47374  12.505   0.648   1.121
81826SOL    HW147375  12.511   0.688   1.208
81826SOL    HW247376  12.417   0.610   1.118
81827SOL     OW47377  13.387   3.639   5.819
81827SOL    HW147378  13.314   3.638   5.757
81827SOL    HW247379  13.389   3.550   5.855
81828SOL     OW47380   6.468   4.668  11.761
81828SOL    HW147381   6.480   4.672  11.856
81828SOL    HW247382   6.379   4.701  11.746
81829SOL     OW47383   9.984   3.650   7.343
81829SOL    HW147384   9.904   3.681   7.385
81829SOL    HW247385  10.003   3.566   7.386
81830SOL     OW47386   6.688   0.035   1.458
81830SOL    HW147387   6.778   0.031   1.490
81830SOL    HW247388   6.648   0.108   1.506
81831SOL     OW47389   1.388   7.927   2.567
81831SOL    HW147390   1.390   7.940   2.662
81831SOL    HW247391   1.336   7.848   2.555
81832SOL     OW47392   6.609  12.550   9.449
81832SOL    HW147393   6.601  12.463   9.410
81832SOL    HW247394   6.539  12.601   9.407
81833SOL     OW47395   4.690  10.352   8.406
81833SOL    HW147396   4.614  10.368   8.461
81833SOL    HW247397   4.716  10.262   8.425
81834SOL     OW47398   6.965   0.188   4.442
81834SOL    HW147399   6.917   0.269   4.459
81834SOL    HW247400   6.997   0.161   4.529
81835SOL     OW47401   5.133  12.185  13.428
81835SOL    HW147402   5.052  12.225  13.397
81835SOL    HW247403   5.141  12.105  13.376
81836SOL     OW47404   6.579  11.195  14.469
81836SOL    HW147405   6.574  11.259  14.540
81836SOL    HW247406   6.609  11.114  14.511
81837SOL     OW47407   1.073  10.678   0.017
81837SOL    HW147408   1.007  10.699  14.822
81837SOL    HW247409   1.034  10.608   0.069
81838SOL     OW47410   3.351   6.575   4.844
81838SOL    HW147411   3.340   6.669   4.829
81838SOL    HW247412   3.409   6.570   4.920
81839SOL     OW47413   2.681   6.420   1.419
81839SOL    HW147414   2.596   6.376   1.413
81839SOL    HW247415   2.672   6.498   1.364
81840SOL     OW47416   8.553   6.751   1.860
81840SOL    HW147417   8.473   6.799   1.881
81840SOL    HW247418   8.576   6.779   1.771
81841SOL     OW47419  13.338   7.208   1.181
81841SOL    HW147420  13.414   7.211   1.239
81841SOL    HW247421  13.281   7.141   1.219
81842SOL     OW47422  12.013  12.569  13.803
81842SOL    HW147423  12.085  12.506  13.813
81842SOL    HW247424  12.056  12.655  13.802
81843SOL     OW47425  11.447   4.585  13.203
81843SOL    HW147426  11.357   4.562  13.179
81843SOL    HW247427  11.438   4.668  13.250
81844SOL     OW47428   7.007   5.304  12.852
81844SOL    HW147429   7.036   5.244  12.920
81844SOL    HW247430   6.986   5.385  12.898
81845SOL     OW47431   3.015   6.903  12.958
81845SOL    HW147432   2.968   6.935  13.035
81845SOL    HW247433   2.969   6.942  12.884
81846SOL     OW47434   4.290   7.355  13.896
81846SOL    HW147435   4.310   7.410  13.972
81846SOL    HW247436   4.376   7.321  13.869
81847SOL     OW47437   5.404   9.430   5.576
81847SOL    HW147438   5.356   9.349   5.559
81847SOL    HW247439   5.373   9.459   5.663
81848SOL     OW47440  13.380   7.250   1.842
81848SOL    HW147441  13.471   7.222   1.843
81848SOL    HW247442  13.380   7.332   1.891
81849SOL     OW47443   1.894  13.253   8.836
81849SOL    HW147444   1.975  13.250   8.887
81849SOL    HW247445   1.835  13.308   8.887
81850SOL     OW47446   1.195  14.527   7.032
81850SOL    HW147447   1.128  14.592   7.015
81850SOL    HW247448   1.215  14.535   7.125
81851SOL     OW47449   0.107  13.712   9.345
81851SOL    HW147450   0.143  13.653   9.411
81851SOL    HW247451   0.161  13.697   9.267
81852SOL     OW47452  10.770   5.148   5.740
81852SOL    HW147453  10.833   5.147   5.812
81852SOL    HW247454  10.821   5.122   5.663
81853SOL     OW47455  13.155   5.713   2.491
81853SOL    HW147456  13.218   5.706   2.419
81853SOL    HW247457  13.087   5.772   2.457
81854SOL     OW47458   3.478   1.252   6.505
81854SOL    HW147459   3.429   1.187   6.456
81854SOL    HW247460   3.569   1.222   6.501
81855SOL     OW47461   1.322  12.114   0.108
81855SOL    HW147462   1.352  12.197   0.071
81855SOL    HW247463   1.228  12.113   0.091
81856SOL     OW47464   8.331   8.427  10.660
81856SOL    HW147465   8.299   8.463  10.578
81856SOL    HW247466   8.361   8.339  10.638
81857SOL     OW47467   7.610   0.005   5.261
81857SOL    HW147468   7.569   0.004   5.348
81857SOL    HW247469   7.677  14.809   5.265
81858SOL     OW47470   8.619   9.456  13.333
81858SOL    HW147471   8.630   9.511  13.255
81858SOL    HW247472   8.625   9.367  13.300
81859SOL     OW47473   1.350  14.529   9.663
81859SOL    HW147474   1.429  14.485   9.697
81859SOL    HW247475   1.357  14.618   9.695
81860SOL     OW47476   2.693  14.355   4.578
81860SOL    HW147477   2.723  14.357   4.487
81860SOL    HW247478   2.758  14.301   4.623
81861SOL     OW47479  10.578   6.027   1.826
81861SOL    HW147480  10.629   6.013   1.906
81861SOL    HW247481  10.490   6.048   1.857
81862SOL     OW47482   5.734   1.996   4.191
81862SOL    HW147483   5.826   2.016   4.207
81862SOL    HW247484   5.713   2.043   4.110
81863SOL     OW47485  10.157   2.489   9.839
81863SOL    HW147486  10.109   2.526   9.765
81863SOL    HW247487  10.192   2.407   9.806
81864SOL     OW47488   8.781  11.998  12.474
81864SOL    HW147489   8.741  11.955  12.398
81864SOL    HW247490   8.819  12.078  12.440
81865SOL     OW47491   3.616  14.360  13.867
81865SOL    HW147492   3.684  14.383  13.804
81865SOL    HW247493   3.660  14.307  13.933
81866SOL     OW47494  13.018   6.424   0.218
81866SOL    HW147495  12.977   6.448   0.135
81866SOL    HW247496  12.969   6.347   0.247
81867SOL     OW47497   2.255  12.286  13.143
81867SOL    HW147498   2.174  12.308  13.098
81867SOL    HW247499   2.277  12.363  13.194
81868SOL     OW47500   4.435   1.234   3.737
81868SOL    HW147501   4.372   1.263   3.671
81868SOL    HW247502   4.473   1.315   3.771
81869SOL     OW47503   0.970   7.158   4.451
81869SOL    HW147504   1.044   7.150   4.512
81869SOL    HW247505   0.892   7.147   4.506
81870SOL     OW47506   7.813   2.839  14.328
81870SOL    HW147507   7.893   2.803  14.365
81870SOL    HW247508   7.762   2.762  14.301
81871SOL     OW47509   6.825  13.952  10.901
81871SOL    HW147510   6.769  14.011  10.951
81871SOL    HW247511   6.914  13.971  10.932
81872SOL     OW47512  13.707   2.062   0.215
81872SOL    HW147513  13.731   2.114   0.138
81872SOL    HW247514  13.639   2.002   0.183
81873SOL     OW47515  12.879  10.681   8.396
81873SOL    HW147516  12.826  10.761   8.391
81873SOL    HW247517  12.955  10.707   8.450
81874SOL     OW47518   2.098   0.884  12.261
81874SOL    HW147519   2.076   0.806  12.311
81874SOL    HW247520   2.016   0.912  12.221
81875SOL     OW47521   8.665   7.082   0.380
81875SOL    HW147522   8.596   7.136   0.343
81875SOL    HW247523   8.620   7.004   0.414
81876SOL     OW47524   3.446   4.687   5.328
81876SOL    HW147525   3.524   4.644   5.365
81876SOL    HW247526   3.469   4.703   5.237
81877SOL     OW47527  13.350   3.386  12.851
81877SOL    HW147528  13.418   3.444  12.884
81877SOL    HW247529  13.310   3.348  12.930
81878SOL     OW47530   7.181   9.932   1.412
81878SOL    HW147531   7.264   9.904   1.372
81878SOL    HW247532   7.157   9.860   1.470
81879SOL     OW47533   4.505   0.845   2.368
81879SOL    HW147534   4.504   0.752   2.346
81879SOL    HW247535   4.418   0.862   2.405
81880SOL     OW47536   1.297   4.930   3.351
81880SOL    HW147537   1.230   4.924   3.418
81880SOL    HW247538   1.366   4.871   3.380
81881SOL     OW47539  13.460  11.887   8.689
81881SOL    HW147540  13.490  11.829   8.620
81881SOL    HW247541  13.365  11.880   8.688
81882SOL     OW47542   6.768   2.424   7.648
81882SOL    HW147543   6.691   2.478   7.630
81882SOL    HW247544   6.738   2.334   7.638
81883SOL     OW47545   2.757   7.938  12.810
81883SOL    HW147546   2.761   8.004  12.741
81883SOL    HW247547   2.830   7.878  12.791
81884SOL     OW47548   1.363   6.630  13.743
81884SOL    HW147549   1.290   6.575  13.713
81884SOL    HW247550   1.441   6.585  13.710
81885SOL     OW47551  10.175   7.790  12.042
81885SOL    HW147552  10.265   7.819  12.054
81885SOL    HW247553  10.156   7.808  11.950
81886SOL     OW47554  12.688   7.418   3.302
81886SOL    HW147555  12.605   7.414   3.350
81886SOL    HW247556  12.755   7.405   3.369
81887SOL     OW47557   2.994   0.337  10.717
81887SOL    HW147558   2.965   0.343  10.808
81887SOL    HW247559   3.080   0.379  10.716
81888SOL     OW47560   7.571  14.566  14.663
81888SOL    HW147561   7.486  14.531  14.688
81888SOL    HW247562   7.631  14.492  14.675
81889SOL     OW47563   5.431  14.701  11.723
81889SOL    HW147564   5.450  14.696  11.630
81889SOL    HW247565   5.410  14.611  11.748
81890SOL     OW47566   0.331   2.124   3.511
81890SOL    HW147567   0.382   2.203   3.494
81890SOL    HW247568   0.394   2.063   3.550
81891SOL     OW47569   4.230   6.794   9.841
81891SOL    HW147570   4.236   6.700   9.857
81891SOL    HW247571   4.267   6.834   9.919
81892SOL     OW47572  14.770   0.947   4.563
81892SOL    HW147573  14.742   1.029   4.522
81892SOL    HW247574  14.827   0.906   4.497
81893SOL     OW47575   3.494  10.806   3.272
81893SOL    HW147576   3.511  10.713   3.261
81893SOL    HW247577   3.536  10.847   3.196
81894SOL     OW47578   0.942   7.935  11.776
81894SOL    HW147579   0.912   8.025  11.764
81894SOL    HW247580   1.004   7.939  11.848
81895SOL     OW47581  11.205   8.493   3.975
81895SOL    HW147582  11.139   8.545   3.928
81895SOL    HW247583  11.286   8.506   3.925
81896SOL     OW47584   6.148  13.688  14.011
81896SOL    HW147585   6.116  13.640  14.088
81896SOL    HW247586   6.172  13.774  14.045
81897SOL     OW47587   9.233  14.224   4.519
81897SOL    HW147588   9.165  14.245   4.582
81897SOL    HW247589   9.195  14.246   4.434
81898SOL     OW47590   3.818   2.427   7.344
81898SOL    HW147591   3.875   2.502   7.354
81898SOL    HW247592   3.746   2.459   7.289
81899SOL     OW47593   5.462   7.458   1.029
81899SOL    HW147594   5.396   7.501   0.975
81899SOL    HW247595   5.475   7.517   1.104
81900SOL     OW47596  11.983   4.879   6.074
81900SOL    HW147597  11.899   4.875   6.119
81900SOL    HW247598  12.048   4.889   6.143
81901SOL     OW47599   2.654   1.483   7.135
81901SOL    HW147600   2.703   1.419   7.084
81901SOL    HW247601   2.706   1.564   7.129
81902SOL     OW47602   4.267   0.042   9.941
81902SOL    HW147603   4.248  14.820   9.932
81902SOL    HW247604   4.183   0.085   9.924
81903SOL     OW47605  10.542   9.461   7.148
81903SOL    HW147606  10.499   9.470   7.233
81903SOL    HW247607  10.474   9.427   7.090
81904SOL     OW47608   4.556   5.526   3.070
81904SOL    HW147609   4.632   5.496   3.121
81904SOL    HW247610   4.580   5.615   3.042
81905SOL     OW47611   8.334   2.667  12.062
81905SOL    HW147612   8.253   2.624  12.035
81905SOL    HW247613   8.403   2.619  12.015
81906SOL     OW47614   7.458  11.932   6.316
81906SOL    HW147615   7.368  11.963   6.309
81906SOL    HW247616   7.478  11.938   6.410
81907SOL     OW47617   6.132   7.461  13.110
81907SOL    HW147618   6.128   7.502  13.023
81907SOL    HW247619   6.060   7.399  13.110
81908SOL     OW47620   2.255  12.399   5.603
81908SOL    HW147621   2.272  12.410   5.696
81908SOL    HW247622   2.294  12.476   5.562
81909SOL     OW47623  12.146  10.540  12.525
81909SOL    HW147624  12.069  10.588  12.495
81909SOL    HW247625  12.110  10.470  12.579
81910SOL     OW47626   5.812   2.794  11.076
81910SOL    HW147627   5.732   2.809  11.127
81910SOL    HW247628   5.797   2.840  10.993
81911SOL     OW47629   1.679   6.414  12.339
81911SOL    HW147630   1.636   6.358  12.404
81911SOL    HW247631   1.699   6.494  12.387
81912SOL     OW47632   4.813   3.540   9.228
81912SOL    HW147633   4.834   3.632   9.214
81912SOL    HW247634   4.891   3.503   9.268
81913SOL     OW47635  14.846   5.339   7.072
81913SOL    HW147636  14.789   5.347   6.996
81913SOL    HW247637  14.787   5.312   7.143
81914SOL     OW47638   7.339   0.562   2.718
81914SOL    HW147639   7.332   0.473   2.685
81914SOL    HW247640   7.409   0.558   2.784
81915SOL     OW47641  10.061   3.424   6.745
81915SOL    HW147642  10.093   3.344   6.788
81915SOL    HW247643  10.039   3.395   6.657
81916SOL     OW47644   1.606   7.893   6.181
81916SOL    HW147645   1.697   7.874   6.159
81916SOL    HW247646   1.600   7.989   6.176
81917SOL     OW47647   8.041   7.581   2.651
81917SOL    HW147648   8.134   7.603   2.651
81917SOL    HW247649   8.039   7.487   2.633
81918SOL     OW47650   3.561   1.966   2.835
81918SOL    HW147651   3.597   1.988   2.749
81918SOL    HW247652   3.590   1.876   2.850
81919SOL     OW47653   5.919   6.616   1.352
81919SOL    HW147654   5.858   6.666   1.298
81919SOL    HW247655   5.965   6.559   1.290
81920SOL     OW47656   6.224   7.925   0.256
81920SOL    HW147657   6.188   7.967   0.334
81920SOL    HW247658   6.296   7.982   0.229
81921SOL     OW47659   0.941  13.041   7.761
81921SOL    HW147660   0.898  13.039   7.676
81921SOL    HW247661   1.035  13.038   7.740
81922SOL     OW47662   0.752   6.672   0.982
81922SOL    HW147663   0.785   6.704   0.898
81922SOL    HW247664   0.678   6.616   0.958
81923SOL     OW47665  12.965  14.472  10.370
81923SOL    HW147666  12.950  14.531  10.296
81923SOL    HW247667  12.877  14.449  10.401
81924SOL     OW47668   2.403   4.823   9.942
81924SOL    HW147669   2.433   4.854  10.028
81924SOL    HW247670   2.483   4.796   9.897
81925SOL     OW47671   1.124   1.042   5.134
81925SOL    HW147672   1.109   1.017   5.043
81925SOL    HW247673   1.084   1.129   5.141
81926SOL     OW47674   5.995   4.634   8.511
81926SOL    HW147675   6.008   4.554   8.460
81926SOL    HW247676   6.076   4.683   8.499
81927SOL     OW47677  10.212   2.546   7.888
81927SOL    HW147678  10.288   2.604   7.881
81927SOL    HW247679  10.224   2.481   7.820
81928SOL     OW47680   2.801  14.684   0.338
81928SOL    HW147681   2.804  14.624   0.413
81928SOL    HW247682   2.845  14.763   0.368
81929SOL     OW47683   4.624   1.608   2.155
81929SOL    HW147684   4.577   1.653   2.084
81929SOL    HW247685   4.587   1.520   2.157
81930SOL     OW47686   4.906   6.751  14.514
81930SOL    HW147687   4.919   6.841  14.544
81930SOL    HW247688   4.934   6.752  14.422
81931SOL     OW47689  13.945  13.782   6.499
81931SOL    HW147690  13.939  13.732   6.580
81931SOL    HW247691  13.876  13.746   6.443
81932SOL     OW47692  12.891   4.800   3.811
81932SOL    HW147693  12.878   4.793   3.906
81932SOL    HW247694  12.898   4.894   3.795
81933SOL     OW47695   3.276   2.818   6.285
81933SOL    HW147696   3.181   2.826   6.297
81933SOL    HW247697   3.286   2.738   6.233
81934SOL     OW47698   2.364  12.650  12.982
81934SOL    HW147699   2.352  12.580  13.046
81934SOL    HW247700   2.285  12.704  12.990
81935SOL     OW47701   3.492  11.468   8.734
81935SOL    HW147702   3.452  11.534   8.678
81935SOL    HW247703   3.522  11.399   8.674
81936SOL     OW47704  11.963   8.777   2.600
81936SOL    HW147705  11.959   8.697   2.547
81936SOL    HW247706  11.992   8.845   2.540
81937SOL     OW47707  14.068   8.929   6.088
81937SOL    HW147708  14.060   8.858   6.152
81937SOL    HW247709  13.978   8.958   6.074
81938SOL     OW47710   5.846   0.866   8.573
81938SOL    HW147711   5.832   0.775   8.547
81938SOL    HW247712   5.763   0.892   8.614
81939SOL     OW47713   2.849   0.429   9.324
81939SOL    HW147714   2.758   0.449   9.344
81939SOL    HW247715   2.862   0.464   9.235
81940SOL     OW47716  14.854  10.891   0.646
81940SOL    HW147717  14.814  10.843   0.719
81940SOL    HW247718   0.073  10.859   0.644
81941SOL     OW47719   8.768   8.461   0.331
81941SOL    HW147720   8.729   8.399   0.392
81941SOL    HW247721   8.855   8.480   0.368
81942SOL     OW47722  12.395  10.372  11.445
81942SOL    HW147723  12.475  10.319  11.438
81942SOL    HW247724  12.356  10.368  11.357
81943SOL     OW47725   0.334  12.416   5.575
81943SOL    HW147726   0.274  12.412   5.501
81943SOL    HW247727   0.379  12.500   5.565
81944SOL     OW47728   9.976  12.054   1.717
81944SOL    HW147729   9.882  12.062   1.731
81944SOL    HW247730  10.015  12.076   1.802
81945SOL     OW47731   0.953  12.085   5.284
81945SOL    HW147732   0.981  11.997   5.308
81945SOL    HW247733   0.890  12.072   5.213
81946SOL     OW47734  13.841  13.000   2.853
81946SOL    HW147735  13.920  12.992   2.906
81946SOL    HW247736  13.871  13.040   2.771
81947SOL     OW47737  13.514   8.311  12.050
81947SOL    HW147738  13.449   8.317  12.121
81947SOL    HW247739  13.594   8.346  12.088
81948SOL     OW47740   1.406   8.950   9.329
81948SOL    HW147741   1.495   8.968   9.362
81948SOL    HW247742   1.348   8.981   9.399
81949SOL     OW47743  14.005   4.147   3.047
81949SOL    HW147744  13.936   4.081   3.040
81949SOL    HW247745  13.978   4.202   3.120
81950SOL     OW47746   5.480   9.325   4.891
81950SOL    HW147747   5.516   9.250   4.940
81950SOL    HW247748   5.517   9.401   4.935
81951SOL     OW47749  13.666   4.529  12.799
81951SOL    HW147750  13.592   4.568  12.846
81951SOL    HW247751  13.649   4.550  12.707
81952SOL     OW47752   8.772   3.327  13.373
81952SOL    HW147753   8.743   3.254  13.428
81952SOL    HW247754   8.721   3.402  13.403
81953SOL     OW47755   4.037   3.773   0.866
81953SOL    HW147756   3.949   3.808   0.857
81953SOL    HW247757   4.034   3.720   0.946
81954SOL     OW47758  10.919  12.235   4.543
81954SOL    HW147759  10.938  12.144   4.522
81954SOL    HW247760  10.896  12.234   4.636
81955SOL     OW47761   4.339   6.495   4.829
81955SOL    HW147762   4.415   6.493   4.771
81955SOL    HW247763   4.368   6.545   4.906
81956SOL     OW47764   8.486   3.230   5.168
81956SOL    HW147765   8.522   3.307   5.123
81956SOL    HW247766   8.539   3.157   5.137
81957SOL     OW47767   6.460   1.446   0.622
81957SOL    HW147768   6.506   1.382   0.676
81957SOL    HW247769   6.408   1.393   0.561
81958SOL     OW47770  14.646  11.243   4.781
81958SOL    HW147771  14.635  11.151   4.805
81958SOL    HW247772  14.668  11.286   4.863
81959SOL     OW47773  14.299   8.515  12.529
81959SOL    HW147774  14.368   8.581  12.520
81959SOL    HW247775  14.234   8.537  12.463
81960SOL     OW47776   0.914   6.803   8.794
81960SOL    HW147777   0.995   6.846   8.822
81960SOL    HW247778   0.914   6.719   8.839
81961SOL     OW47779  13.761   3.146  11.143
81961SOL    HW147780  13.832   3.207  11.163
81961SOL    HW247781  13.743   3.103  11.226
81962SOL     OW47782  14.492  10.999   2.018
81962SOL    HW147783  14.547  11.029   2.090
81962SOL    HW247784  14.403  11.002   2.052
81963SOL     OW47785   5.656   0.364   5.182
81963SOL    HW147786   5.590   0.419   5.140
81963SOL    HW247787   5.606   0.287   5.212
81964SOL     OW47788   4.666  13.223   7.604
81964SOL    HW147789   4.576  13.197   7.627
81964SOL    HW247790   4.675  13.311   7.639
81965SOL     OW47791   3.666  13.228   6.773
81965SOL    HW147792   3.667  13.145   6.726
81965SOL    HW247793   3.637  13.205   6.862
81966SOL     OW47794   7.791  11.248  14.488
81966SOL    HW147795   7.745  11.171  14.522
81966SOL    HW247796   7.798  11.231  14.394
81967SOL     OW47797   4.890   6.476  12.841
81967SOL    HW147798   4.931   6.531  12.907
81967SOL    HW247799   4.890   6.388  12.880
81968SOL     OW47800   1.052  14.066   0.163
81968SOL    HW147801   1.023  14.101   0.248
81968SOL    HW247802   1.072  13.974   0.182
81969SOL     OW47803   6.000   1.467   6.343
81969SOL    HW147804   6.042   1.530   6.401
81969SOL    HW247805   6.049   1.473   6.261
81970SOL     OW47806   5.864   8.607   1.443
81970SOL    HW147807   5.873   8.680   1.383
81970SOL    HW247808   5.772   8.580   1.434
81971SOL     OW47809   2.080   4.730  10.314
81971SOL    HW147810   2.151   4.792  10.323
81971SOL    HW247811   2.092   4.692  10.226
81972SOL     OW47812  14.857   3.650   9.859
81972SOL    HW147813   0.049   3.579   9.851
81972SOL    HW247814  14.822   3.640   9.948
81973SOL     OW47815   9.066   8.745   4.627
81973SOL    HW147816   9.042   8.829   4.665
81973SOL    HW247817   9.155   8.729   4.660
81974SOL     OW47818  10.321   2.033   2.978
81974SOL    HW147819  10.384   2.069   3.041
81974SOL    HW247820  10.375   1.990   2.912
81975SOL     OW47821  11.164  11.185   6.495
81975SOL    HW147822  11.073  11.160   6.513
81975SOL    HW247823  11.216  11.126   6.549
81976SOL     OW47824   8.447   8.975   6.956
81976SOL    HW147825   8.446   9.070   6.957
81976SOL    HW247826   8.441   8.950   7.049
81977SOL     OW47827  14.393  12.058   4.840
81977SOL    HW147828  14.315  12.027   4.885
81977SOL    HW247829  14.363  12.135   4.790
81978SOL     OW47830   2.321  13.056  11.170
81978SOL    HW147831   2.364  13.093  11.092
81978SOL    HW247832   2.387  13.063  11.239
81979SOL     OW47833   7.353  13.389   2.262
81979SOL    HW147834   7.290  13.362   2.329
81979SOL    HW247835   7.378  13.478   2.287
81980SOL     OW47836  11.828  10.377   6.353
81980SOL    HW147837  11.815  10.451   6.293
81980SOL    HW247838  11.783  10.402   6.433
81981SOL     OW47839   0.514   1.299   5.334
81981SOL    HW147840   0.429   1.319   5.372
81981SOL    HW247841   0.562   1.255   5.404
81982SOL     OW47842   5.141  10.461   6.122
81982SOL    HW147843   5.171  10.460   6.213
81982SOL    HW247844   5.216  10.493   6.072
81983SOL     OW47845  11.115  13.589   2.020
81983SOL    HW147846  11.042  13.530   2.003
81983SOL    HW247847  11.078  13.676   2.011
81984SOL     OW47848   5.273   2.397  12.764
81984SOL    HW147849   5.318   2.320  12.729
81984SOL    HW247850   5.240   2.368  12.849
81985SOL     OW47851  14.541   6.708  14.504
81985SOL    HW147852  14.507   6.757  14.579
81985SOL    HW247853  14.516   6.761  14.428
81986SOL     OW47854   1.390   3.075   9.464
81986SOL    HW147855   1.426   2.987   9.451
81986SOL    HW247856   1.304   3.072   9.421
81987SOL     OW47857   8.428   4.975  12.877
81987SOL    HW147858   8.497   4.911  12.895
81987SOL    HW247859   8.412   5.017  12.962
81988SOL     OW47860   7.498   3.423  14.299
81988SOL    HW147861   7.552   3.492  14.261
81988SOL    HW247862   7.488   3.448  14.391
81989SOL     OW47863   5.807   5.245  11.546
81989SOL    HW147864   5.813   5.274  11.637
81989SOL    HW247865   5.890   5.272  11.507
81990SOL     OW47866   6.212  14.496   2.797
81990SOL    HW147867   6.233  14.449   2.878
81990SOL    HW247868   6.296  14.531   2.768
81991SOL     OW47869   0.623   0.971   8.135
81991SOL    HW147870   0.549   0.986   8.194
81991SOL    HW247871   0.608   1.029   8.061
81992SOL     OW47872   1.993   6.317   2.076
81992SOL    HW147873   2.029   6.349   2.158
81992SOL    HW247874   2.070   6.289   2.025
81993SOL     OW47875   9.589  11.089   8.669
81993SOL    HW147876   9.619  11.127   8.586
81993SOL    HW247877   9.641  11.133   8.736
81994SOL     OW47878   5.837   8.300   0.112
81994SOL    HW147879   5.858   8.378   0.163
81994SOL    HW247880   5.921   8.254   0.104
81995SOL     OW47881   1.364   6.903   7.953
81995SOL    HW147882   1.313   6.871   8.028
81995SOL    HW247883   1.454   6.878   7.974
81996SOL     OW47884   3.552   4.943   1.929
81996SOL    HW147885   3.541   4.930   1.835
81996SOL    HW247886   3.497   5.019   1.949
81997SOL     OW47887  10.003   4.561   6.699
81997SOL    HW147888  10.043   4.552   6.613
81997SOL    HW247889  10.029   4.649   6.728
81998SOL     OW47890  10.382   4.548   0.444
81998SOL    HW147891  10.466   4.583   0.416
81998SOL    HW247892  10.400   4.456   0.466
81999SOL     OW47893  10.467   1.636   4.313
81999SOL    HW147894  10.523   1.599   4.381
81999SOL    HW247895  10.421   1.561   4.275
82000SOL     OW47896   9.720   8.698   9.254
82000SOL    HW147897   9.721   8.736   9.342
82000SOL    HW247898   9.627   8.686   9.235
82001SOL     OW47899   5.527   7.780  10.317
82001SOL    HW147900   5.620   7.761  10.308
82001SOL    HW247901   5.521   7.874  10.302
82002SOL     OW47902   8.262   1.164   1.072
82002SOL    HW147903   8.309   1.081   1.065
82002SOL    HW247904   8.189   1.146   1.131
82003SOL     OW47905   8.386   7.048   4.503
82003SOL    HW147906   8.327   7.014   4.570
82003SOL    HW247907   8.402   6.973   4.446
82004SOL     OW47908   4.034   1.433   4.647
82004SOL    HW147909   4.120   1.391   4.657
82004SOL    HW247910   3.990   1.417   4.730
82005SOL     OW47911   0.778   4.526  11.566
82005SOL    HW147912   0.828   4.579  11.504
82005SOL    HW247913   0.844   4.496  11.630
82006SOL     OW47914   9.535   4.303   0.422
82006SOL    HW147915   9.454   4.260   0.449
82006SOL    HW247916   9.507   4.389   0.391
82007SOL     OW47917  14.661   3.566   7.055
82007SOL    HW147918  14.739   3.587   7.106
82007SOL    HW247919  14.588   3.583   7.115
82008SOL     OW47920  10.874  13.774  11.036
82008SOL    HW147921  10.848  13.762  11.127
82008SOL    HW247922  10.866  13.868  11.021
82009SOL     OW47923   1.816   5.691   9.832
82009SOL    HW147924   1.739   5.664   9.881
82009SOL    HW247925   1.876   5.617   9.837
82010SOL     OW47926   7.150   9.075  12.539
82010SOL    HW147927   7.199   9.008  12.588
82010SOL    HW247928   7.111   9.026  12.466
82011SOL     OW47929   3.228   2.128   5.420
82011SOL    HW147930   3.297   2.192   5.402
82011SOL    HW247931   3.227   2.119   5.515
82012SOL     OW47932   0.905  13.476  11.034
82012SOL    HW147933   0.837  13.425  11.077
82012SOL    HW247934   0.906  13.559  11.080
82013SOL     OW47935  12.211   8.990   7.299
82013SOL    HW147936  12.285   8.930   7.304
82013SOL    HW247937  12.198   9.020   7.388
82014SOL     OW47938   9.558   7.333  11.281
82014SOL    HW147939   9.624   7.388  11.238
82014SOL    HW247940   9.527   7.274  11.213
82015SOL     OW47941   4.551   4.271   2.216
82015SOL    HW147942   4.624   4.210   2.208
82015SOL    HW247943   4.592   4.355   2.239
82016SOL     OW47944  10.578  12.798  13.116
82016SOL    HW147945  10.577  12.726  13.180
82016SOL    HW247946  10.664  12.839  13.129
82017SOL     OW47947  13.579   9.579   2.525
82017SOL    HW147948  13.572   9.611   2.615
82017SOL    HW247949  13.494   9.537   2.508
82018SOL     OW47950   2.078  11.351   2.075
82018SOL    HW147951   2.131  11.272   2.082
82018SOL    HW247952   2.046  11.366   2.165
82019SOL     OW47953  10.166  14.462  12.901
82019SOL    HW147954  10.247  14.473  12.851
82019SOL    HW247955  10.191  14.409  12.976
82020SOL     OW47956   6.248  11.581   4.499
82020SOL    HW147957   6.314  11.624   4.554
82020SOL    HW247958   6.286  11.584   4.411
82021SOL     OW47959   9.083   0.381   9.119
82021SOL    HW147960   9.035   0.311   9.163
82021SOL    HW247961   9.151   0.336   9.069
82022SOL     OW47962   1.648  12.040  11.911
82022SOL    HW147963   1.625  12.000  11.995
82022SOL    HW247964   1.743  12.051  11.916
82023SOL     OW47965   4.253   8.294   4.545
82023SOL    HW147966   4.243   8.385   4.517
82023SOL    HW247967   4.174   8.276   4.597
82024SOL     OW47968   9.228   4.532  12.810
82024SOL    HW147969   9.222   4.628  12.813
82024SOL    HW247970   9.160   4.505  12.749
82025SOL     OW47971   6.649  11.731   0.016
82025SOL    HW147972   6.580  11.786   0.053
82025SOL    HW247973   6.606  11.648  14.867
82026SOL     OW47974  14.615   6.240  13.157
82026SOL    HW147975  14.536   6.190  13.135
82026SOL    HW247976  14.629   6.298  13.083
82027SOL     OW47977   7.724  11.797   6.332
82027SOL    HW147978   7.719  11.758   6.419
82027SOL    HW247979   7.647  11.765   6.287
82028SOL     OW47980  12.085   3.730   0.641
82028SOL    HW147981  12.142   3.659   0.611
82028SOL    HW247982  12.028   3.688   0.705
82029SOL     OW47983   5.392   9.702  12.372
82029SOL    HW147984   5.462   9.723  12.310
82029SOL    HW247985   5.368   9.786  12.411
82030SOL     OW47986  10.790  10.232  14.324
82030SOL    HW147987  10.748  10.146  14.325
82030SOL    HW247988  10.880  10.214  14.351
82031SOL     OW47989   7.097   8.710  10.163
82031SOL    HW147990   7.178   8.688  10.208
82031SOL    HW247991   7.109   8.800  10.133
82032SOL     OW47992  13.334  10.053   5.607
82032SOL    HW147993  13.267  10.006   5.657
82032SOL    HW247994  13.292  10.136   5.584
82033SOL     OW47995   1.181   5.733   4.057
82033SOL    HW147996   1.145   5.774   3.979
82033SOL    HW247997   1.108   5.732   4.119
82034SOL     OW47998  10.437   7.895  10.082
82034SOL    HW147999  10.371   7.945  10.129
82034SOL    HW248000  10.471   7.955  10.016
82035SOL     OW48001   9.787  11.940  13.627
82035SOL    HW148002   9.769  11.847  13.614
82035SOL    HW248003   9.707  11.975  13.666
82036SOL     OW48004   8.996   4.505   6.884
82036SOL    HW148005   9.066   4.567   6.905
82036SOL    HW248006   8.918   4.559   6.877
82037SOL     OW48007  12.360   9.623   5.243
82037SOL    HW148008  12.433   9.678   5.215
82037SOL    HW248009  12.392   9.577   5.321
82038SOL     OW48010  10.321   5.718   6.647
82038SOL    HW148011  10.300   5.663   6.571
82038SOL    HW248012  10.280   5.802   6.628
82039SOL     OW48013  14.710   4.133   7.667
82039SOL    HW148014  14.781   4.133   7.603
82039SOL    HW248015  14.754   4.135   7.752
82040SOL     OW48016   4.963  10.279   6.153
82040SOL    HW148017   4.885  10.308   6.105
82040SOL    HW248018   5.031  10.341   6.126
82041SOL     OW48019  11.809   4.014  14.530
82041SOL    HW148020  11.853   3.949  14.475
82041SOL    HW248021  11.807   3.975  14.617
82042SOL     OW48022  13.196  10.988  13.040
82042SOL    HW148023  13.179  10.918  12.977
82042SOL    HW248024  13.230  11.060  12.988
82043SOL     OW48025   3.231   9.344  12.612
82043SOL    HW148026   3.146   9.325  12.651
82043SOL    HW248027   3.243   9.275  12.546
82044SOL     OW48028   6.757  14.274  13.549
82044SOL    HW148029   6.769  14.324  13.469
82044SOL    HW248030   6.705  14.332  13.606
82045SOL     OW48031   8.824   5.899  12.580
82045SOL    HW148032   8.868   5.977  12.612
82045SOL    HW248033   8.832   5.836  12.651
82046SOL     OW48034  11.049   0.678  11.985
82046SOL    HW148035  10.963   0.648  12.014
82046SOL    HW248036  11.111   0.621  12.030
82047SOL     OW48037   0.519   5.381  13.771
82047SOL    HW148038   0.525   5.289  13.743
82047SOL    HW248039   0.572   5.429  13.708
82048SOL     OW48040   9.053   5.649   7.379
82048SOL    HW148041   8.963   5.670   7.355
82048SOL    HW248042   9.056   5.656   7.474
82049SOL     OW48043  10.850   2.619   0.255
82049SOL    HW148044  10.863   2.714   0.258
82049SOL    HW248045  10.858   2.597   0.162
82050SOL     OW48046   0.281  13.008  10.640
82050SOL    HW148047   0.256  13.018  10.732
82050SOL    HW248048   0.371  12.976  10.642
82051SOL     OW48049   1.364   4.221  13.132
82051SOL    HW148050   1.410   4.288  13.183
82051SOL    HW248051   1.296   4.270  13.086
82052SOL     OW48052   9.334   0.673   2.654
82052SOL    HW148053   9.289   0.681   2.570
82052SOL    HW248054   9.419   0.714   2.639
82053SOL     OW48055   7.339   9.960   2.702
82053SOL    HW148056   7.421   9.950   2.751
82053SOL    HW248057   7.289   9.881   2.723
82054SOL     OW48058  13.710   6.349   8.176
82054SOL    HW148059  13.761   6.279   8.218
82054SOL    HW248060  13.776   6.405   8.135
82055SOL     OW48061  10.185   4.668  11.473
82055SOL    HW148062  10.278   4.654  11.453
82055SOL    HW248063  10.140   4.649  11.391
82056SOL     OW48064   3.681   9.017  13.964
82056SOL    HW148065   3.727   9.012  14.047
82056SOL    HW248066   3.674   9.110  13.945
82057SOL     OW48067   3.012   0.539   6.814
82057SOL    HW148068   3.042   0.605   6.877
82057SOL    HW248069   2.933   0.578   6.775
82058SOL     OW48070  11.956  13.660   7.091
82058SOL    HW148071  12.007  13.616   7.023
82058SOL    HW248072  11.970  13.753   7.075
82059SOL     OW48073   1.665  11.077   1.533
82059SOL    HW148074   1.689  11.053   1.444
82059SOL    HW248075   1.654  10.993   1.578
82060SOL     OW48076   8.554   6.632  11.434
82060SOL    HW148077   8.542   6.545  11.470
82060SOL    HW248078   8.484   6.684  11.471
82061SOL     OW48079  13.123   0.174  12.354
82061SOL    HW148080  13.145   0.081  12.361
82061SOL    HW248081  13.194   0.219  12.400
82062SOL     OW48082   7.563  14.416   5.319
82062SOL    HW148083   7.621  14.349   5.284
82062SOL    HW248084   7.548  14.476   5.246
82063SOL     OW48085  13.761   3.207   7.174
82063SOL    HW148086  13.846   3.201   7.217
82063SOL    HW248087  13.748   3.121   7.135
82064SOL     OW48088   1.967   9.496   2.251
82064SOL    HW148089   1.974   9.566   2.316
82064SOL    HW248090   1.891   9.444   2.280
82065SOL     OW48091   2.117  12.187  10.892
82065SOL    HW148092   2.195  12.132  10.888
82065SOL    HW248093   2.124  12.245  10.816
82066SOL     OW48094   1.024   6.310   6.949
82066SOL    HW148095   0.989   6.346   7.030
82066SOL    HW248096   0.985   6.223   6.942
82067SOL     OW48097   0.666  11.893   5.571
82067SOL    HW148098   0.679  11.799   5.581
82067SOL    HW248099   0.587  11.912   5.621
82068SOL     OW48100   0.069  14.840   9.162
82068SOL    HW148101   0.138   0.024   9.126
82068SOL    HW248102  14.869   0.029   9.181
82069SOL     OW48103   0.145  13.387  12.283
82069SOL    HW148104   0.201  13.316  12.316
82069SOL    HW248105   0.128  13.442  12.360
82070SOL     OW48106   8.468  12.127   0.800
82070SOL    HW148107   8.428  12.200   0.753
82070SOL    HW248108   8.408  12.110   0.873
82071SOL     OW48109  14.741   1.910  11.527
82071SOL    HW148110  14.712   1.991  11.485
82071SOL    HW248111  14.660   1.866  11.553
82072SOL     OW48112   2.727   0.665   4.902
82072SOL    HW148113   2.660   0.732   4.892
82072SOL    HW248114   2.682   0.593   4.947
82073SOL     OW48115   2.247  11.322   5.672
82073SOL    HW148116   2.227  11.319   5.765
82073SOL    HW248117   2.322  11.381   5.665
82074SOL     OW48118   7.244   1.426   3.368
82074SOL    HW148119   7.234   1.382   3.284
82074SOL    HW248120   7.338   1.440   3.377
82075SOL     OW48121  10.208  10.008  12.406
82075SOL    HW148122  10.271  10.079  12.393
82075SOL    HW248123  10.139  10.024  12.340
82076SOL     OW48124   8.347   7.996   9.860
82076SOL    HW148125   8.293   7.922   9.887
82076SOL    HW248126   8.372   7.977   9.770
82077SOL     OW48127   2.727  12.690   5.799
82077SOL    HW148128   2.670  12.633   5.746
82077SOL    HW248129   2.801  12.635   5.822
82078SOL     OW48130   5.179   9.655  13.334
82078SOL    HW148131   5.236   9.610  13.271
82078SOL    HW248132   5.196   9.748  13.319
82079SOL     OW48133   0.679   3.170   1.021
82079SOL    HW148134   0.602   3.226   1.028
82079SOL    HW248135   0.718   3.194   0.937
82080SOL     OW48136   4.539  14.198   0.983
82080SOL    HW148137   4.568  14.250   0.909
82080SOL    HW248138   4.475  14.136   0.947
82081SOL     OW48139   2.075  10.880   9.557
82081SOL    HW148140   2.152  10.912   9.510
82081SOL    HW248141   2.103  10.795   9.593
82082SOL     OW48142   4.202   6.067   3.571
82082SOL    HW148143   4.201   6.019   3.488
82082SOL    HW248144   4.294   6.084   3.588
82083SOL     OW48145   2.133  14.141   1.465
82083SOL    HW148146   2.203  14.193   1.504
82083SOL    HW248147   2.171  14.054   1.454
82084SOL     OW48148   8.530   0.724  13.527
82084SOL    HW148149   8.609   0.674  13.506
82084SOL    HW248150   8.510   0.773  13.447
82085SOL     OW48151  10.817   2.307  10.281
82085SOL    HW148152  10.789   2.241  10.344
82085SOL    HW248153  10.736   2.340  10.243
82086SOL     OW48154   0.395   0.538   9.155
82086SOL    HW148155   0.353   0.494   9.229
82086SOL    HW248156   0.323   0.582   9.110
82087SOL     OW48157   6.343   2.535   1.540
82087SOL    HW148158   6.285   2.527   1.616
82087SOL    HW248159   6.424   2.572   1.576
82088SOL     OW48160   2.305   5.887   0.192
82088SOL    HW148161   2.384   5.842   0.163
82088SOL    HW248162   2.325   5.980   0.179
82089SOL     OW48163   1.601  13.945   2.095
82089SOL    HW148164   1.681  13.896   2.077
82089SOL    HW248165   1.563  13.961   2.009
82090SOL     OW48166   5.436  12.886  14.357
82090SOL    HW148167   5.367  12.947  14.384
82090SOL    HW248168   5.506  12.943  14.325
82091SOL     OW48169   0.463   1.481   5.123
82091SOL    HW148170   0.383   1.511   5.166
82091SOL    HW248171   0.510   1.432   5.191
82092SOL     OW48172   1.190   2.938   5.036
82092SOL    HW148173   1.243   2.859   5.026
82092SOL    HW248174   1.238   3.005   4.988
82093SOL     OW48175   1.632   9.773   0.962
82093SOL    HW148176   1.581   9.840   0.917
82093SOL    HW248177   1.596   9.690   0.931
82094SOL     OW48178   9.835   2.746   5.448
82094SOL    HW148179   9.782   2.677   5.409
82094SOL    HW248180   9.829   2.732   5.542
82095SOL     OW48181  14.055   7.377   4.054
82095SOL    HW148182  14.053   7.470   4.075
82095SOL    HW248183  14.146   7.351   4.069
82096SOL     OW48184   0.376   5.278   3.328
82096SOL    HW148185   0.464   5.275   3.290
82096SOL    HW248186   0.387   5.245   3.417
82097SOL     OW48187   6.194   0.932   3.907
82097SOL    HW148188   6.238   1.016   3.903
82097SOL    HW248189   6.100   0.953   3.903
82098SOL     OW48190   7.080   0.513   0.389
82098SOL    HW148191   7.170   0.508   0.421
82098SOL    HW248192   7.061   0.424   0.360
82099SOL     OW48193  12.010  12.656  14.229
82099SOL    HW148194  12.099  12.653  14.193
82099SOL    HW248195  12.007  12.736  14.281
82100SOL     OW48196   8.265   6.531   2.857
82100SOL    HW148197   8.289   6.607   2.803
82100SOL    HW248198   8.304   6.548   2.942
82101SOL     OW48199  11.189   3.120  13.900
82101SOL    HW148200  11.212   3.035  13.861
82101SOL    HW248201  11.153   3.171  13.827
82102SOL     OW48202   3.985   1.063   3.251
82102SOL    HW148203   4.003   1.094   3.340
82102SOL    HW248204   4.059   1.007   3.230
82103SOL     OW48205  10.620   4.949   7.249
82103SOL    HW148206  10.629   4.865   7.203
82103SOL    HW248207  10.527   4.953   7.273
82104SOL     OW48208  11.330   3.328  11.543
82104SOL    HW148209  11.330   3.232  11.544
82104SOL    HW248210  11.421   3.352  11.525
82105SOL     OW48211   5.607   4.856   6.791
82105SOL    HW148212   5.567   4.828   6.873
82105SOL    HW248213   5.680   4.795   6.778
82106SOL     OW48214   0.772  14.164   6.526
82106SOL    HW148215   0.697  14.212   6.490
82106SOL    HW248216   0.754  14.072   6.506
82107SOL     OW48217  13.025   3.226   1.200
82107SOL    HW148218  12.963   3.157   1.221
82107SOL    HW248219  13.003   3.298   1.259
82108SOL     OW48220  12.862  12.869   8.272
82108SOL    HW148221  12.769  12.884   8.255
82108SOL    HW248222  12.876  12.777   8.250
82109SOL     OW48223   0.647   8.776   8.675
82109SOL    HW148224   0.735   8.749   8.649
82109SOL    HW248225   0.661   8.859   8.722
82110SOL     OW48226   9.424   6.364   4.092
82110SOL    HW148227   9.432   6.324   4.005
82110SOL    HW248228   9.356   6.431   4.081
82111SOL     OW48229   1.675  10.367   6.748
82111SOL    HW148230   1.659  10.317   6.669
82111SOL    HW248231   1.732  10.439   6.721
82112SOL     OW48232  11.645   6.583   7.971
82112SOL    HW148233  11.558   6.600   8.007
82112SOL    HW248234  11.639   6.612   7.880
82113SOL     OW48235   6.088   8.190   0.130
82113SOL    HW148236   6.097   8.118   0.068
82113SOL    HW248237   6.090   8.148   0.216
82114SOL     OW48238   1.273   7.313  13.328
82114SOL    HW148239   1.254   7.406  13.332
82114SOL    HW248240   1.201   7.272  13.377
82115SOL     OW48241   0.783   1.395   6.764
82115SOL    HW148242   0.842   1.424   6.695
82115SOL    HW248243   0.719   1.466   6.772
82116SOL     OW48244   2.229  14.307  13.874
82116SOL    HW148245   2.143  14.349  13.861
82116SOL    HW248246   2.271  14.313  13.788
82117SOL     OW48247   9.131   6.261   3.916
82117SOL    HW148248   9.125   6.347   3.874
82117SOL    HW248249   9.184   6.209   3.856
82118SOL     OW48250   0.681   4.090   4.285
82118SOL    HW148251   0.674   4.042   4.203
82118SOL    HW248252   0.652   4.179   4.263
82119SOL     OW48253   9.970  13.959   0.844
82119SOL    HW148254  10.042  13.927   0.899
82119SOL    HW248255   9.987  14.052   0.834
82120SOL     OW48256  10.295   7.730  13.231
82120SOL    HW148257  10.216   7.758  13.276
82120SOL    HW248258  10.336   7.811  13.200
82121SOL     OW48259  13.092  10.539   6.517
82121SOL    HW148260  13.132  10.615   6.475
82121SOL    HW248261  13.008  10.528   6.473
82122SOL     OW48262  14.021  11.599   4.461
82122SOL    HW148263  14.044  11.692   4.457
82122SOL    HW248264  13.947  11.590   4.401
82123SOL     OW48265  13.351   7.994   5.184
82123SOL    HW148266  13.347   7.938   5.107
82123SOL    HW248267  13.297   7.950   5.249
82124SOL     OW48268   9.687  14.397  10.399
82124SOL    HW148269   9.749  14.346  10.451
82124SOL    HW248270   9.741  14.464  10.357
82125SOL     OW48271  12.404  13.721   7.035
82125SOL    HW148272  12.432  13.792   7.093
82125SOL    HW248273  12.475  13.657   7.039
82126SOL     OW48274   5.841   5.740  13.031
82126SOL    HW148275   5.861   5.831  13.050
82126SOL    HW248276   5.753   5.743  12.992
82127SOL     OW48277   4.985  11.368  14.337
82127SOL    HW148278   5.037  11.438  14.296
82127SOL    HW248279   5.043  11.292  14.336
82128SOL     OW48280   4.959   7.441   0.497
82128SOL    HW148281   5.028   7.459   0.433
82128SOL    HW248282   4.955   7.519   0.551
82129SOL     OW48283   4.670  14.206  11.472
82129SOL    HW148284   4.670  14.129  11.416
82129SOL    HW248285   4.762  14.221  11.494
82130SOL     OW48286   5.087  12.070  11.821
82130SOL    HW148287   5.086  12.055  11.916
82130SOL    HW248288   5.101  12.164  11.812
82131SOL     OW48289   2.155  10.327  10.036
82131SOL    HW148290   2.136  10.392  10.104
82131SOL    HW248291   2.083  10.265  10.041
82132SOL     OW48292   3.243   0.514   7.125
82132SOL    HW148293   3.180   0.442   7.115
82132SOL    HW248294   3.214   0.561   7.203
82133SOL     OW48295   6.768  10.649   1.741
82133SOL    HW148296   6.775  10.554   1.740
82133SOL    HW248297   6.824  10.676   1.815
82134SOL     OW48298   3.984   4.181   6.806
82134SOL    HW148299   4.057   4.227   6.764
82134SOL    HW248300   4.019   4.152   6.890
82135SOL     OW48301  14.643   3.937   9.641
82135SOL    HW148302  14.641   3.907   9.732
82135SOL    HW248303  14.737   3.949   9.622
82136SOL     OW48304  10.799   0.184   4.699
82136SOL    HW148305  10.795   0.271   4.740
82136SOL    HW248306  10.724   0.137   4.734
82137SOL     OW48307   3.977   4.327  14.058
82137SOL    HW148308   3.944   4.414  14.035
82137SOL    HW248309   4.067   4.326  14.026
82138SOL     OW48310  10.606   9.108   7.940
82138SOL    HW148311  10.663   9.150   8.004
82138SOL    HW248312  10.541   9.175   7.919
82139SOL     OW48313   8.792   1.591  10.207
82139SOL    HW148314   8.853   1.600  10.280
82139SOL    HW248315   8.741   1.673  10.207
82140SOL     OW48316  10.739   4.585   8.145
82140SOL    HW148317  10.684   4.631   8.209
82140SOL    HW248318  10.826   4.624   8.157
82141SOL     OW48319   4.118   7.056   0.134
82141SOL    HW148320   4.042   7.037   0.078
82141SOL    HW248321   4.140   6.972   0.175
82142SOL     OW48322   2.821   7.494   1.990
82142SOL    HW148323   2.781   7.467   2.073
82142SOL    HW248324   2.859   7.413   1.955
82143SOL     OW48325   8.686  13.647   9.998
82143SOL    HW148326   8.765  13.700  10.003
82143SOL    HW248327   8.624  13.690  10.057
82144SOL     OW48328   8.634   5.204   1.588
82144SOL    HW148329   8.707   5.194   1.527
82144SOL    HW248330   8.576   5.130   1.567
82145SOL     OW48331   1.114   8.543  10.515
82145SOL    HW148332   1.104   8.592  10.434
82145SOL    HW248333   1.193   8.490  10.502
82146SOL     OW48334   3.975   3.588   4.140
82146SOL    HW148335   3.891   3.547   4.160
82146SOL    HW248336   4.007   3.619   4.224
82147SOL     OW48337   4.318  12.710  10.099
82147SOL    HW148338   4.337  12.692  10.007
82147SOL    HW248339   4.388  12.770  10.126
82148SOL     OW48340   9.816   5.340   1.233
82148SOL    HW148341   9.781   5.309   1.316
82148SOL    HW248342   9.781   5.280   1.168
82149SOL     OW48343   7.548   9.972   3.299
82149SOL    HW148344   7.495  10.018   3.364
82149SOL    HW248345   7.637  10.004   3.314
82150SOL     OW48346   3.080   0.025   9.278
82150SOL    HW148347   3.106   0.092   9.341
82150SOL    HW248348   3.008   0.065   9.229
82151SOL     OW48349   7.232   2.778  10.725
82151SOL    HW148350   7.328   2.773  10.716
82151SOL    HW248351   7.199   2.728  10.650
82152SOL     OW48352  12.268   9.833  13.706
82152SOL    HW148353  12.298   9.884  13.781
82152SOL    HW248354  12.317   9.751  13.711
82153SOL     OW48355   6.494  11.647   7.617
82153SOL    HW148356   6.483  11.647   7.522
82153SOL    HW248357   6.587  11.626   7.631
82154SOL     OW48358   1.284   5.810  10.749
82154SOL    HW148359   1.350   5.878  10.760
82154SOL    HW248360   1.283   5.791  10.655
82155SOL     OW48361   5.048   8.857   8.650
82155SOL    HW148362   5.078   8.917   8.718
82155SOL    HW248363   5.039   8.773   8.695
82156SOL     OW48364   0.643   5.302   5.659
82156SOL    HW148365   0.592   5.227   5.689
82156SOL    HW248366   0.589   5.343   5.592
82157SOL     OW48367  14.714  13.439   0.414
82157SOL    HW148368  14.751  13.437   0.325
82157SOL    HW248369  14.622  13.461   0.401
82158SOL     OW48370   5.494   6.009   3.407
82158SOL    HW148371   5.556   6.047   3.345
82158SOL    HW248372   5.543   5.941   3.453
82159SOL     OW48373   0.066   5.522  12.046
82159SOL    HW148374   0.062   5.605  12.093
82159SOL    HW248375   0.138   5.534  11.984
82160SOL     OW48376   0.703  14.694  14.467
82160SOL    HW148377   0.746  14.687  14.552
82160SOL    HW248378   0.693  14.788  14.453
82161SOL     OW48379   1.569   6.071   0.290
82161SOL    HW148380   1.539   6.136   0.227
82161SOL    HW248381   1.574   5.989   0.241
82162SOL     OW48382  11.368   5.100   4.002
82162SOL    HW148383  11.394   5.037   4.069
82162SOL    HW248384  11.450   5.127   3.961
82163SOL     OW48385  11.460  11.366   6.311
82163SOL    HW148386  11.529  11.383   6.247
82163SOL    HW248387  11.408  11.297   6.272
82164SOL     OW48388   6.679   7.123   2.422
82164SOL    HW148389   6.618   7.051   2.405
82164SOL    HW248390   6.756   7.101   2.369
82165SOL     OW48391  14.229   1.594  11.507
82165SOL    HW148392  14.184   1.630  11.431
82165SOL    HW248393  14.163   1.592  11.576
82166SOL     OW48394   8.865   7.873   3.291
82166SOL    HW148395   8.802   7.944   3.302
82166SOL    HW248396   8.848   7.815   3.366
82167SOL     OW48397   8.523  12.490   1.503
82167SOL    HW148398   8.579  12.493   1.426
82167SOL    HW248399   8.498  12.581   1.518
82168SOL     OW48400   8.560  13.929   1.347
82168SOL    HW148401   8.611  14.000   1.309
82168SOL    HW248402   8.511  13.971   1.418
82169SOL     OW48403  10.836  10.643  14.075
82169SOL    HW148404  10.819  10.592  14.155
82169SOL    HW248405  10.771  10.713  14.077
82170SOL     OW48406   6.809   6.844  10.314
82170SOL    HW148407   6.902   6.853  10.337
82170SOL    HW248408   6.810   6.801  10.228
82171SOL     OW48409   3.218   3.512   1.707
82171SOL    HW148410   3.166   3.442   1.667
82171SOL    HW248411   3.154   3.577   1.735
82172SOL     OW48412   1.104  14.251  10.721
82172SOL    HW148413   1.028  14.302  10.692
82172SOL    HW248414   1.084  14.227  10.811
82173SOL     OW48415   2.588   2.684   1.103
82173SOL    HW148416   2.522   2.643   1.159
82173SOL    HW248417   2.671   2.670   1.151
82174SOL     OW48418   7.222  11.634   0.344
82174SOL    HW148419   7.191  11.574   0.276
82174SOL    HW248420   7.229  11.719   0.301
82175SOL     OW48421  11.884  10.294  14.417
82175SOL    HW148422  11.821  10.366  14.412
82175SOL    HW248423  11.888  10.260  14.327
82176SOL     OW48424   1.195   8.541   8.152
82176SOL    HW148425   1.156   8.488   8.082
82176SOL    HW248426   1.287   8.515   8.151
82177SOL     OW48427   9.111   2.230   6.407
82177SOL    HW148428   9.185   2.261   6.355
82177SOL    HW248429   9.151   2.188   6.483
82178SOL     OW48430   8.431   7.564  13.792
82178SOL    HW148431   8.523   7.545  13.812
82178SOL    HW248432   8.427   7.659  13.780
82179SOL     OW48433   3.256   3.388  13.654
82179SOL    HW148434   3.287   3.354  13.738
82179SOL    HW248435   3.168   3.421  13.672
82180SOL     OW48436   9.604   1.936  10.393
82180SOL    HW148437   9.660   1.973  10.325
82180SOL    HW248438   9.608   1.841  10.378
82181SOL     OW48439   8.579   5.467   8.638
82181SOL    HW148440   8.535   5.394   8.595
82181SOL    HW248441   8.661   5.431   8.671
82182SOL     OW48442  10.341   0.341  14.656
82182SOL    HW148443  10.268   0.282  14.674
82182SOL    HW248444  10.410   0.314  14.715
82183SOL     OW48445   4.367   9.981   2.865
82183SOL    HW148446   4.353   9.887   2.860
82183SOL    HW248447   4.288  10.019   2.826
82184SOL     OW48448   2.864   8.508  13.941
82184SOL    HW148449   2.924   8.552  14.001
82184SOL    HW248450   2.778   8.514  13.983
82185SOL     OW48451  14.287  14.308  11.731
82185SOL    HW148452  14.294  14.216  11.758
82185SOL    HW248453  14.378  14.336  11.720
82186SOL     OW48454  14.580   3.626  11.918
82186SOL    HW148455  14.584   3.649  12.011
82186SOL    HW248456  14.550   3.535  11.917
82187SOL     OW48457   4.582   7.533   6.679
82187SOL    HW148458   4.651   7.486   6.634
82187SOL    HW248459   4.515   7.548   6.612
82188SOL     OW48460   4.092  14.790   8.904
82188SOL    HW148461   4.124  14.764   8.990
82188SOL    HW248462   4.034  14.719   8.878
82189SOL     OW48463   6.437   7.133  12.068
82189SOL    HW148464   6.435   7.051  12.118
82189SOL    HW248465   6.487   7.111  11.989
82190SOL     OW48466   5.356   2.838   3.776
82190SOL    HW148467   5.428   2.894   3.748
82190SOL    HW248468   5.278   2.893   3.769
82191SOL     OW48469  14.676   6.377  10.580
82191SOL    HW148470  14.769   6.397  10.570
82191SOL    HW248471  14.673   6.314  10.652
82192SOL     OW48472   7.703   0.777   5.122
82192SOL    HW148473   7.650   0.800   5.198
82192SOL    HW248474   7.680   0.843   5.056
82193SOL     OW48475   1.304   2.387  10.766
82193SOL    HW148476   1.374   2.437  10.725
82193SOL    HW248477   1.228   2.400  10.709
82194SOL     OW48478   4.133   7.972   7.374
82194SOL    HW148479   4.228   7.974   7.388
82194SOL    HW248480   4.105   7.891   7.416
82195SOL     OW48481   6.651  11.437   3.657
82195SOL    HW148482   6.601  11.519   3.656
82195SOL    HW248483   6.644  11.406   3.747
82196SOL     OW48484   0.165   0.628   4.459
82196SOL    HW148485   0.079   0.637   4.417
82196SOL    HW248486   0.225   0.677   4.403
82197SOL     OW48487   0.047  13.746   3.482
82197SOL    HW148488   0.098  13.674   3.445
82197SOL    HW248489   0.049  13.731   3.576
82198SOL     OW48490   6.762   7.995   4.165
82198SOL    HW148491   6.679   8.028   4.198
82198SOL    HW248492   6.809   8.072   4.134
82199SOL     OW48493   5.547  14.145  14.731
82199SOL    HW148494   5.576  14.073  14.675
82199SOL    HW248495   5.452  14.145  14.724
82200SOL     OW48496   2.710   2.226   0.408
82200SOL    HW148497   2.771   2.164   0.368
82200SOL    HW248498   2.732   2.311   0.369
82201SOL     OW48499  10.166   5.070  14.543
82201SOL    HW148500  10.225   5.016  14.595
82201SOL    HW248501  10.223   5.130  14.496
82202SOL     OW48502  12.817   6.582   9.344
82202SOL    HW148503  12.823   6.509   9.282
82202SOL    HW248504  12.853   6.656   9.296
82203SOL     OW48505   0.926  12.598  10.600
82203SOL    HW148506   0.923  12.527  10.664
82203SOL    HW248507   0.895  12.675  10.647
82204SOL     OW48508   9.146  14.761   1.447
82204SOL    HW148509   9.193  14.753   1.364
82204SOL    HW248510   9.067  14.709   1.435
82205SOL     OW48511   3.791   6.206   8.941
82205SOL    HW148512   3.751   6.273   8.996
82205SOL    HW248513   3.717   6.165   8.895
82206SOL     OW48514  12.435  12.333  12.463
82206SOL    HW148515  12.470  12.246  12.444
82206SOL    HW248516  12.502  12.374  12.518
82207SOL     OW48517   9.837   2.113   8.143
82207SOL    HW148518   9.870   2.186   8.196
82207SOL    HW248519   9.817   2.152   8.058
82208SOL     OW48520   8.607   5.957   8.572
82208SOL    HW148521   8.581   5.947   8.664
82208SOL    HW248522   8.561   5.885   8.527
82209SOL     OW48523  14.434   2.239   0.049
82209SOL    HW148524  14.467   2.149   0.047
82209SOL    HW248525  14.512   2.293   0.043
82210SOL     OW48526   8.981   1.073  10.019
82210SOL    HW148527   9.050   1.063  10.085
82210SOL    HW248528   8.934   1.152  10.046
82211SOL     OW48529  13.524  13.175   8.104
82211SOL    HW148530  13.609  13.149   8.068
82211SOL    HW248531  13.532  13.158   8.198
82212SOL     OW48532  12.340   1.664   2.172
82212SOL    HW148533  12.292   1.671   2.255
82212SOL    HW248534  12.288   1.714   2.110
82213SOL     OW48535   1.751  11.215   6.312
82213SOL    HW148536   1.662  11.249   6.319
82213SOL    HW248537   1.789  11.228   6.399
82214SOL     OW48538   0.409   5.253   3.807
82214SOL    HW148539   0.391   5.261   3.901
82214SOL    HW248540   0.322   5.257   3.766
82215SOL     OW48541   5.879   6.171  10.009
82215SOL    HW148542   5.805   6.147   9.952
82215SOL    HW248543   5.931   6.231   9.956
82216SOL     OW48544   1.440  14.254  11.440
82216SOL    HW148545   1.448  14.323  11.506
82216SOL    HW248546   1.522  14.205  11.446
82217SOL     OW48547   2.417  11.418   4.731
82217SOL    HW148548   2.462  11.429   4.814
82217SOL    HW248549   2.325  11.430   4.752
82218SOL     OW48550   5.436   4.680   3.855
82218SOL    HW148551   5.489   4.608   3.890
82218SOL    HW248552   5.428   4.741   3.928
82219SOL     OW48553   9.957   5.627   7.826
82219SOL    HW148554   9.893   5.569   7.867
82219SOL    HW248555   9.966   5.595   7.736
82220SOL     OW48556  14.153   6.709   5.466
82220SOL    HW148557  14.164   6.655   5.388
82220SOL    HW248558  14.224   6.774   5.461
82221SOL     OW48559  10.889   5.284  13.622
82221SOL    HW148560  10.828   5.318  13.557
82221SOL    HW248561  10.883   5.189  13.614
82222SOL     OW48562  11.931  12.535   5.254
82222SOL    HW148563  11.991  12.596   5.211
82222SOL    HW248564  11.988  12.470   5.295
82223SOL     OW48565   7.120   8.706   5.362
82223SOL    HW148566   7.148   8.662   5.282
82223SOL    HW248567   7.048   8.763   5.335
82224SOL     OW48568   7.230   3.759  13.126
82224SOL    HW148569   7.205   3.779  13.036
82224SOL    HW248570   7.223   3.843  13.172
82225SOL     OW48571  11.865   3.447  10.849
82225SOL    HW148572  11.794   3.407  10.798
82225SOL    HW248573  11.905   3.510  10.789
82226SOL     OW48574  11.469   1.077   9.176
82226SOL    HW148575  11.492   1.089   9.084
82226SOL    HW248576  11.441   1.164   9.205
82227SOL     OW48577   6.855   4.451  12.488
82227SOL    HW148578   6.852   4.355  12.480
82227SOL    HW248579   6.796   4.483  12.420
82228SOL     OW48580  11.548  10.803   3.454
82228SOL    HW148581  11.642  10.811   3.441
82228SOL    HW248582  11.515  10.774   3.368
82229SOL     OW48583   7.940   4.366   0.978
82229SOL    HW148584   7.897   4.448   1.001
82229SOL    HW248585   8.009   4.393   0.917
82230SOL     OW48586   0.208   5.813   6.851
82230SOL    HW148587   0.159   5.787   6.929
82230SOL    HW248588   0.282   5.752   6.848
82231SOL     OW48589   5.817   1.717   8.280
82231SOL    HW148590   5.797   1.750   8.368
82231SOL    HW248591   5.741   1.743   8.228
82232SOL     OW48592   8.330   0.474   8.112
82232SOL    HW148593   8.426   0.483   8.111
82232SOL    HW248594   8.300   0.551   8.160
82233SOL     OW48595   4.755  13.901   6.354
82233SOL    HW148596   4.674  13.884   6.306
82233SOL    HW248597   4.770  13.994   6.342
82234SOL     OW48598   4.253   8.420   8.880
82234SOL    HW148599   4.196   8.491   8.910
82234SOL    HW248600   4.293   8.454   8.800
82235SOL     OW48601   5.555   7.518  14.103
82235SOL    HW148602   5.636   7.469  14.087
82235SOL    HW248603   5.496   7.455  14.144
82236SOL     OW48604   9.134   0.671   2.473
82236SOL    HW148605   9.173   0.748   2.431
82236SOL    HW248606   9.045   0.699   2.496
82237SOL     OW48607   3.158   0.896   9.092
82237SOL    HW148608   3.179   0.880   9.000
82237SOL    HW248609   3.079   0.950   9.090
82238SOL     OW48610   0.978  13.089   6.444
82238SOL    HW148611   0.918  13.142   6.496
82238SOL    HW248612   1.065  13.112   6.476
82239SOL     OW48613  12.850   3.784   2.197
82239SOL    HW148614  12.851   3.691   2.178
82239SOL    HW248615  12.905   3.823   2.129
82240SOL     OW48616   1.028  10.431   1.146
82240SOL    HW148617   1.077  10.349   1.135
82240SOL    HW248618   0.973  10.436   1.069
82241SOL     OW48619   7.234   3.101   9.123
82241SOL    HW148620   7.184   3.115   9.042
82241SOL    HW248621   7.296   3.174   9.125
82242SOL     OW48622  10.595  10.178   3.230
82242SOL    HW148623  10.628  10.150   3.316
82242SOL    HW248624  10.533  10.110   3.205
82243SOL     OW48625   9.683  13.203   3.533
82243SOL    HW148626   9.662  13.295   3.517
82243SOL    HW248627   9.640  13.183   3.617
82244SOL     OW48628  14.480  12.531   9.224
82244SOL    HW148629  14.557  12.582   9.246
82244SOL    HW248630  14.461  12.554   9.133
82245SOL     OW48631   0.169  12.733   0.490
82245SOL    HW148632   0.081  12.728   0.527
82245SOL    HW248633   0.167  12.809   0.432
82246SOL     OW48634   2.607  14.865  12.624
82246SOL    HW148635   2.571   0.073  12.584
82246SOL    HW248636   2.529  14.817  12.655
82247SOL     OW48637   3.028  11.783   4.592
82247SOL    HW148638   3.069  11.808   4.509
82247SOL    HW248639   3.102  11.761   4.649
82248SOL     OW48640  10.326   7.883  10.928
82248SOL    HW148641  10.347   7.910  10.839
82248SOL    HW248642  10.322   7.787  10.923
82249SOL     OW48643   7.523   6.986   9.991
82249SOL    HW148644   7.434   6.965  10.018
82249SOL    HW248645   7.524   6.970   9.896
82250SOL     OW48646   2.566  10.764   3.485
82250SOL    HW148647   2.586  10.842   3.433
82250SOL    HW248648   2.605  10.691   3.437
82251SOL     OW48649   3.485  12.131  12.672
82251SOL    HW148650   3.529  12.128  12.586
82251SOL    HW248651   3.499  12.044  12.709
82252SOL     OW48652  14.420   5.369  11.349
82252SOL    HW148653  14.325   5.366  11.361
82252SOL    HW248654  14.455   5.307  11.413
82253SOL     OW48655  11.945   6.574   7.428
82253SOL    HW148656  11.894   6.602   7.504
82253SOL    HW248657  11.974   6.655   7.387
82254SOL     OW48658  14.100  14.650   9.245
82254SOL    HW148659  14.074  14.597   9.320
82254SOL    HW248660  14.195  14.640   9.239
82255SOL     OW48661  13.726  14.202   1.033
82255SOL    HW148662  13.632  14.220   1.029
82255SOL    HW248663  13.759  14.229   0.948
82256SOL     OW48664   2.078  12.130  14.631
82256SOL    HW148665   2.146  12.063  14.621
82256SOL    HW248666   2.015  12.092  14.692
82257SOL     OW48667   4.256   7.910   6.862
82257SOL    HW148668   4.311   7.921   6.940
82257SOL    HW248669   4.227   7.999   6.841
82258SOL     OW48670  11.232   2.105   6.029
82258SOL    HW148671  11.261   2.195   6.039
82258SOL    HW248672  11.217   2.074   6.119
82259SOL     OW48673   7.887   7.817  13.909
82259SOL    HW148674   7.848   7.750  13.852
82259SOL    HW248675   7.814   7.850  13.961
82260SOL     OW48676   6.951  13.194   8.228
82260SOL    HW148677   6.932  13.189   8.135
82260SOL    HW248678   6.866  13.183   8.271
82261SOL     OW48679  13.584   4.457  10.568
82261SOL    HW148680  13.582   4.426  10.477
82261SOL    HW248681  13.676   4.473  10.585
82262SOL     OW48682  10.258   7.318   1.153
82262SOL    HW148683  10.171   7.314   1.114
82262SOL    HW248684  10.303   7.241   1.119
82263SOL     OW48685   2.665   7.350   6.624
82263SOL    HW148686   2.635   7.376   6.537
82263SOL    HW248687   2.621   7.410   6.684
82264SOL     OW48688  12.972  10.006   4.704
82264SOL    HW148689  12.981   9.916   4.675
82264SOL    HW248690  12.920  10.001   4.784
82265SOL     OW48691   6.728   3.260   0.845
82265SOL    HW148692   6.806   3.288   0.892
82265SOL    HW248693   6.662   3.326   0.869
82266SOL     OW48694   4.210  12.088  14.153
82266SOL    HW148695   4.118  12.114  14.154
82266SOL    HW248696   4.218  12.026  14.225
82267SOL     OW48697  13.566  10.484   2.949
82267SOL    HW148698  13.645  10.537   2.937
82267SOL    HW248699  13.525  10.519   3.028
82268SOL     OW48700  13.483   8.625   9.267
82268SOL    HW148701  13.456   8.612   9.358
82268SOL    HW248702  13.516   8.539   9.240
82269SOL     OW48703  14.694  14.195  14.454
82269SOL    HW148704  14.605  14.227  14.437
82269SOL    HW248705  14.683  14.104  14.481
82270SOL     OW48706   5.818   0.557   8.194
82270SOL    HW148707   5.732   0.596   8.179
82270SOL    HW248708   5.879   0.621   8.158
82271SOL     OW48709   8.587   0.844  12.690
82271SOL    HW148710   8.606   0.928  12.730
82271SOL    HW248711   8.598   0.780  12.761
82272SOL     OW48712  13.934   9.527   6.065
82272SOL    HW148713  13.878   9.473   6.009
82272SOL    HW248714  13.995   9.570   6.006
82273SOL     OW48715   3.892  11.643  10.232
82273SOL    HW148716   3.823  11.667  10.171
82273SOL    HW248717   3.870  11.554  10.261
82274SOL     OW48718  11.380  10.264   4.872
82274SOL    HW148719  11.374  10.294   4.962
82274SOL    HW248720  11.474  10.260   4.853
82275SOL     OW48721  13.108   6.795  11.204
82275SOL    HW148722  13.080   6.740  11.278
82275SOL    HW248723  13.050   6.770  11.132
82276SOL     OW48724  10.659  10.230   7.399
82276SOL    HW148725  10.682  10.317   7.366
82276SOL    HW248726  10.585  10.245   7.458
82277SOL     OW48727   9.672  11.370  10.970
82277SOL    HW148728   9.677  11.318  10.890
82277SOL    HW248729   9.580  11.365  10.996
82278SOL     OW48730  14.261   0.455   5.792
82278SOL    HW148731  14.194   0.453   5.860
82278SOL    HW248732  14.226   0.402   5.721
82279SOL     OW48733   6.372  12.305   9.572
82279SOL    HW148734   6.298  12.250   9.547
82279SOL    HW248735   6.449  12.254   9.547
82280SOL     OW48736  10.658  13.502   2.767
82280SOL    HW148737  10.577  13.456   2.789
82280SOL    HW248738  10.649  13.523   2.674
82281SOL     OW48739   3.055   7.787  14.109
82281SOL    HW148740   3.051   7.692  14.123
82281SOL    HW248741   3.015   7.824  14.187
82282SOL     OW48742   1.576   7.955   5.274
82282SOL    HW148743   1.492   7.914   5.293
82282SOL    HW248744   1.554   8.044   5.245
82283SOL     OW48745  10.240   3.505   9.548
82283SOL    HW148746  10.191   3.585   9.568
82283SOL    HW248747  10.332   3.531   9.556
82284SOL     OW48748   6.468   0.392   2.862
82284SOL    HW148749   6.425   0.476   2.879
82284SOL    HW248750   6.448   0.372   2.771
82285SOL     OW48751  10.182   5.996  10.615
82285SOL    HW148752  10.206   6.024  10.526
82285SOL    HW248753  10.129   6.068  10.649
82286SOL     OW48754   5.629  14.685   3.779
82286SOL    HW148755   5.680  14.671   3.859
82286SOL    HW248756   5.566  14.754   3.803
82287SOL     OW48757  13.333  11.705  12.357
82287SOL    HW148758  13.405  11.700  12.293
82287SOL    HW248759  13.352  11.784  12.408
82288SOL     OW48760   9.967  12.595  11.634
82288SOL    HW148761  10.029  12.542  11.584
82288SOL    HW248762  10.014  12.615  11.716
82289SOL     OW48763   8.540   3.253   3.781
82289SOL    HW148764   8.547   3.192   3.854
82289SOL    HW248765   8.471   3.217   3.726
82290SOL     OW48766   0.152  13.882   6.678
82290SOL    HW148767   0.111  13.886   6.592
82290SOL    HW248768   0.080  13.862   6.738
82291SOL     OW48769   8.352   6.192   0.774
82291SOL    HW148770   8.380   6.219   0.687
82291SOL    HW248771   8.431   6.200   0.828
82292SOL     OW48772   8.109   8.810   4.659
82292SOL    HW148773   8.174   8.881   4.660
82292SOL    HW248774   8.028   8.850   4.691
82293SOL     OW48775   1.075   7.690   5.827
82293SOL    HW148776   1.154   7.668   5.876
82293SOL    HW248777   1.081   7.785   5.815
82294SOL     OW48778  11.889   0.614  14.324
82294SOL    HW148779  11.798   0.642  14.326
82294SOL    HW248780  11.892   0.535  14.378
82295SOL     OW48781  11.524  13.987   9.619
82295SOL    HW148782  11.561  14.063   9.574
82295SOL    HW248783  11.593  13.957   9.678
82296SOL     OW48784   4.702   5.771   3.036
82296SOL    HW148785   4.652   5.817   3.103
82296SOL    HW248786   4.794   5.790   3.057
82297SOL     OW48787   0.348   6.433   7.386
82297SOL    HW148788   0.363   6.443   7.292
82297SOL    HW248789   0.432   6.454   7.427
82298SOL     OW48790   7.984   9.663  14.272
82298SOL    HW148791   8.077   9.668  14.248
82298SOL    HW248792   7.941   9.630  14.193
82299SOL     OW48793   5.544   7.707  13.299
82299SOL    HW148794   5.524   7.789  13.343
82299SOL    HW248795   5.619   7.728  13.243
82300SOL     OW48796  12.299  10.560  10.320
82300SOL    HW148797  12.214  10.524  10.292
82300SOL    HW248798  12.276  10.641  10.366
82301SOL     OW48799   9.383   2.865   4.531
82301SOL    HW148800   9.434   2.805   4.478
82301SOL    HW248801   9.427   2.950   4.521
82302SOL     OW48802  13.543   2.425   9.764
82302SOL    HW148803  13.450   2.445   9.763
82302SOL    HW248804  13.558   2.383   9.849
82303SOL     OW48805  11.613   2.200   1.326
82303SOL    HW148806  11.569   2.154   1.398
82303SOL    HW248807  11.568   2.169   1.247
82304SOL     OW48808  10.037  14.867   1.869
82304SOL    HW148809  10.016  14.852   1.962
82304SOL    HW248810   9.954  14.854   1.824
82305SOL     OW48811   3.326   7.826  14.038
82305SOL    HW148812   3.234   7.827  14.063
82305SOL    HW248813   3.359   7.742  14.073
82306SOL     OW48814   1.148  11.843   5.297
82306SOL    HW148815   1.235  11.849   5.338
82306SOL    HW248816   1.161  11.787   5.221
82307SOL     OW48817   8.979  14.785   2.827
82307SOL    HW148818   8.991  14.838   2.907
82307SOL    HW248819   9.005  14.697   2.853
82308SOL     OW48820   5.885   3.193  14.169
82308SOL    HW148821   5.867   3.202  14.262
82308SOL    HW248822   5.798   3.187  14.128
82309SOL     OW48823   7.214  14.490   9.868
82309SOL    HW148824   7.154  14.416   9.860
82309SOL    HW248825   7.270  14.484   9.790
82310SOL     OW48826  14.431   9.462   0.614
82310SOL    HW148827  14.371   9.456   0.688
82310SOL    HW248828  14.513   9.425   0.646
82311SOL     OW48829  12.392  10.696   1.350
82311SOL    HW148830  12.485  10.692   1.375
82311SOL    HW248831  12.375  10.788   1.334
82312SOL     OW48832   6.079   5.973   0.746
82312SOL    HW148833   6.049   6.039   0.685
82312SOL    HW248834   6.102   6.022   0.825
82313SOL     OW48835   1.909   6.300   7.554
82313SOL    HW148836   2.000   6.325   7.538
82313SOL    HW248837   1.912   6.246   7.632
82314SOL     OW48838   7.257   5.222   9.184
82314SOL    HW148839   7.252   5.228   9.279
82314SOL    HW248840   7.323   5.286   9.160
82315SOL     OW48841   6.548  11.618   6.110
82315SOL    HW148842   6.493  11.593   6.184
82315SOL    HW248843   6.584  11.703   6.133
82316SOL     OW48844  11.826   6.705   5.009
82316SOL    HW148845  11.863   6.656   4.935
82316SOL    HW248846  11.797   6.637   5.070
82317SOL     OW48847   6.436   9.652   3.531
82317SOL    HW148848   6.356   9.697   3.505
82317SOL    HW248849   6.413   9.607   3.612
82318SOL     OW48850   6.692   1.595   4.741
82318SOL    HW148851   6.627   1.633   4.682
82318SOL    HW248852   6.771   1.586   4.688
82319SOL     OW48853   9.231  11.427   9.093
82319SOL    HW148854   9.231  11.331   9.091
82319SOL    HW248855   9.162  11.450   9.155
82320SOL     OW48856   8.566  12.557   6.784
82320SOL    HW148857   8.648  12.606   6.777
82320SOL    HW248858   8.581  12.477   6.734
82321SOL     OW48859   8.826   8.134  14.189
82321SOL    HW148860   8.877   8.118  14.268
82321SOL    HW248861   8.806   8.227  14.191
82322SOL     OW48862  11.150  13.487   1.458
82322SOL    HW148863  11.194  13.446   1.384
82322SOL    HW248864  11.076  13.533   1.420
82323SOL     OW48865   2.251  14.038  10.436
82323SOL    HW148866   2.229  14.130  10.450
82323SOL    HW248867   2.198  13.990  10.500
82324SOL     OW48868  13.950   9.978   8.673
82324SOL    HW148869  13.946  10.041   8.601
82324SOL    HW248870  13.892   9.907   8.644
82325SOL     OW48871   1.074   2.811   7.520
82325SOL    HW148872   1.034   2.805   7.607
82325SOL    HW248873   1.007   2.777   7.461
82326SOL     OW48874   8.937   5.181   2.161
82326SOL    HW148875   9.017   5.183   2.213
82326SOL    HW248876   8.890   5.104   2.192
82327SOL     OW48877   1.976   0.058   0.060
82327SOL    HW148878   1.913  14.863   0.032
82327SOL    HW248879   1.937   0.097   0.139
82328SOL     OW48880  13.051  13.289  13.662
82328SOL    HW148881  13.130  13.310  13.712
82328SOL    HW248882  13.041  13.194  13.672
82329SOL     OW48883   0.722  14.227   6.797
82329SOL    HW148884   0.763  14.177   6.727
82329SOL    HW248885   0.786  14.295   6.819
82330SOL     OW48886   9.939   5.817   2.469
82330SOL    HW148887   9.887   5.761   2.526
82330SOL    HW248888   9.908   5.797   2.380
82331SOL     OW48889  13.566   2.297   9.010
82331SOL    HW148890  13.545   2.385   9.043
82331SOL    HW248891  13.514   2.238   9.064
82332SOL     OW48892  12.512   8.106   1.013
82332SOL    HW148893  12.554   8.191   0.998
82332SOL    HW248894  12.564   8.066   1.083
82333SOL     OW48895   8.663  14.480   5.191
82333SOL    HW148896   8.738  14.438   5.234
82333SOL    HW248897   8.596  14.483   5.259
82334SOL     OW48898   2.981   3.564  13.279
82334SOL    HW148899   2.910   3.510  13.244
82334SOL    HW248900   2.952   3.587  13.367
82335SOL     OW48901  13.181  11.346  10.698
82335SOL    HW148902  13.236  11.272  10.726
82335SOL    HW248903  13.187  11.345  10.603
82336SOL     OW48904   6.304   0.337   0.078
82336SOL    HW148905   6.381   0.390   0.094
82336SOL    HW248906   6.281   0.355  14.858
82337SOL     OW48907   0.442   8.040   1.089
82337SOL    HW148908   0.363   8.016   1.136
82337SOL    HW248909   0.439   7.987   1.009
82338SOL     OW48910   7.729  14.335   8.416
82338SOL    HW148911   7.768  14.285   8.487
82338SOL    HW248912   7.758  14.290   8.336
82339SOL     OW48913   7.313   4.966   9.114
82339SOL    HW148914   7.247   4.921   9.061
82339SOL    HW248915   7.276   5.053   9.129
82340SOL     OW48916   1.036  12.482   9.780
82340SOL    HW148917   1.067  12.486   9.689
82340SOL    HW248918   1.109  12.517   9.831
82341SOL     OW48919  14.375  11.823   5.523
82341SOL    HW148920  14.445  11.761   5.501
82341SOL    HW248921  14.422  11.900   5.557
82342SOL     OW48922  14.277   8.647   4.383
82342SOL    HW148923  14.364   8.639   4.421
82342SOL    HW248924  14.265   8.567   4.331
82343SOL     OW48925  12.240  14.252  11.465
82343SOL    HW148926  12.245  14.177  11.404
82343SOL    HW248927  12.321  14.246  11.516
82344SOL     OW48928   9.300   2.803   6.690
82344SOL    HW148929   9.296   2.829   6.598
82344SOL    HW248930   9.242   2.864   6.735
82345SOL     OW48931   0.424   0.324  10.726
82345SOL    HW148932   0.370   0.246  10.737
82345SOL    HW248933   0.512   0.290  10.708
82346SOL     OW48934  10.919   0.673  10.668
82346SOL    HW148935  10.876   0.628  10.595
82346SOL    HW248936  10.967   0.604  10.714
82347SOL     OW48937   9.137  11.366  12.907
82347SOL    HW148938   9.158  11.459  12.917
82347SOL    HW248939   9.219  11.321  12.928
82348SOL     OW48940   0.353   8.633   0.073
82348SOL    HW148941   0.279   8.692   0.085
82348SOL    HW248942   0.405   8.643   0.153
82349SOL     OW48943   2.384   8.312   6.128
82349SOL    HW148944   2.462   8.256   6.134
82349SOL    HW248945   2.364   8.335   6.218
82350SOL     OW48946   2.154  11.124   0.052
82350SOL    HW148947   2.216  11.084  14.863
82350SOL    HW248948   2.137  11.056   0.117
82351SOL     OW48949   0.631  14.189   2.701
82351SOL    HW148950   0.713  14.221   2.737
82351SOL    HW248951   0.593  14.135   2.770
82352SOL     OW48952   5.075  12.829  12.347
82352SOL    HW148953   5.143  12.888  12.379
82352SOL    HW248954   5.116  12.780  12.276
82353SOL     OW48955   9.799  12.013  13.045
82353SOL    HW148956   9.789  12.106  13.025
82353SOL    HW248957   9.712  11.985  13.073
82354SOL     OW48958   1.099  12.836  13.488
82354SOL    HW148959   1.193  12.817  13.489
82354SOL    HW248960   1.060  12.768  13.542
82355SOL     OW48961  10.990   7.644  12.357
82355SOL    HW148962  11.061   7.580  12.360
82355SOL    HW248963  10.956   7.645  12.447
82356SOL     OW48964   1.437  13.918   3.942
82356SOL    HW148965   1.397  13.844   3.896
82356SOL    HW248966   1.443  13.987   3.876
82357SOL     OW48967   1.218   4.709   3.692
82357SOL    HW148968   1.168   4.768   3.748
82357SOL    HW248969   1.278   4.766   3.645
82358SOL     OW48970  11.008   2.796  10.986
82358SOL    HW148971  10.993   2.813  10.893
82358SOL    HW248972  11.053   2.874  11.018
82359SOL     OW48973   6.102  14.311   5.657
82359SOL    HW148974   6.172  14.376   5.649
82359SOL    HW248975   6.118  14.250   5.584
82360SOL     OW48976   0.882  13.561  12.054
82360SOL    HW148977   0.932  13.594  11.980
82360SOL    HW248978   0.794  13.596  12.041
82361SOL     OW48979   0.608  14.509  11.812
82361SOL    HW148980   0.538  14.452  11.843
82361SOL    HW248981   0.676  14.504  11.880
82362SOL     OW48982   2.195  11.401  10.180
82362SOL    HW148983   2.226  11.317  10.147
82362SOL    HW248984   2.220  11.401  10.273
82363SOL     OW48985  13.924  14.685   1.318
82363SOL    HW148986  13.933  14.595   1.347
82363SOL    HW248987  13.833  14.693   1.290
82364SOL     OW48988   9.876  12.153   0.297
82364SOL    HW148989   9.876  12.092   0.223
82364SOL    HW248990   9.969  12.163   0.319
82365SOL     OW48991  13.078   7.057   9.348
82365SOL    HW148992  13.027   7.119   9.399
82365SOL    HW248993  13.158   7.105   9.325
82366SOL     OW48994   5.236   6.145   6.077
82366SOL    HW148995   5.275   6.061   6.053
82366SOL    HW248996   5.301   6.210   6.052
82367SOL     OW48997  14.494   4.780  14.595
82367SOL    HW148998  14.421   4.736  14.640
82367SOL    HW248999  14.467   4.784  14.503
82368SOL     OW49000   5.001   9.274  10.735
82368SOL    HW149001   5.011   9.184  10.705
82368SOL    HW249002   5.071   9.322  10.691
82369SOL     OW49003  14.170  12.439   6.205
82369SOL    HW149004  14.171  12.356   6.253
82369SOL    HW249005  14.077  12.458   6.192
82370SOL     OW49006   6.726   0.804   3.753
82370SOL    HW149007   6.821   0.795   3.759
82370SOL    HW249008   6.709   0.892   3.786
82371SOL     OW49009   0.667   8.328   6.599
82371SOL    HW149010   0.696   8.237   6.609
82371SOL    HW249011   0.579   8.321   6.564
82372SOL     OW49012   4.958   1.838   3.431
82372SOL    HW149013   5.013   1.880   3.497
82372SOL    HW249014   4.939   1.908   3.368
82373SOL     OW49015  11.668   2.708   2.302
82373SOL    HW149016  11.738   2.751   2.351
82373SOL    HW249017  11.667   2.618   2.334
82374SOL     OW49018   0.385  14.549   7.179
82374SOL    HW149019   0.399  14.643   7.194
82374SOL    HW249020   0.368  14.513   7.265
82375SOL     OW49021  10.995  10.314   5.973
82375SOL    HW149022  10.922  10.255   5.992
82375SOL    HW249023  10.954  10.392   5.935
82376SOL     OW49024   1.438  10.192   1.973
82376SOL    HW149025   1.372  10.159   1.912
82376SOL    HW249026   1.518  10.143   1.951
82377SOL     OW49027   8.636   3.523   3.215
82377SOL    HW149028   8.612   3.434   3.243
82377SOL    HW249029   8.729   3.530   3.235
82378SOL     OW49030   6.696   2.935   0.435
82378SOL    HW149031   6.695   3.020   0.391
82378SOL    HW249032   6.690   2.871   0.363
82379SOL     OW49033  11.207  13.444   9.369
82379SOL    HW149034  11.127  13.480   9.331
82379SOL    HW249035  11.190  13.350   9.377
82380SOL     OW49036  11.825  12.730  14.567
82380SOL    HW149037  11.894  12.739  14.633
82380SOL    HW249038  11.755  12.787  14.598
82381SOL     OW49039  12.094   4.901   0.905
82381SOL    HW149040  12.018   4.879   0.959
82381SOL    HW249041  12.074   4.864   0.820
82382SOL     OW49042  11.325  11.282  14.218
82382SOL    HW149043  11.398  11.238  14.175
82382SOL    HW249044  11.346  11.279  14.311
82383SOL     OW49045  12.530   7.807  11.779
82383SOL    HW149046  12.502   7.770  11.863
82383SOL    HW249047  12.449   7.822  11.731
82384SOL     OW49048   5.778  13.107   7.469
82384SOL    HW149049   5.751  13.189   7.428
82384SOL    HW249050   5.865  13.127   7.506
82385SOL     OW49051   0.514   4.585  12.894
82385SOL    HW149052   0.473   4.535  12.824
82385SOL    HW249053   0.466   4.667  12.898
82386SOL     OW49054   9.154   7.030   3.996
82386SOL    HW149055   9.114   6.944   3.981
82386SOL    HW249056   9.228   7.012   4.054
82387SOL     OW49057   0.057  12.920   6.239
82387SOL    HW149058   0.014  12.912   6.324
82387SOL    HW249059   0.009  12.990   6.194
82388SOL     OW49060  11.505   2.491   9.184
82388SOL    HW149061  11.564   2.532   9.121
82388SOL    HW249062  11.505   2.551   9.259
82389SOL     OW49063   1.439   5.863   4.018
82389SOL    HW149064   1.353   5.826   4.037
82389SOL    HW249065   1.501   5.795   4.042
82390SOL     OW49066   6.367   5.485  12.339
82390SOL    HW149067   6.299   5.551  12.346
82390SOL    HW249068   6.370   5.462  12.246
82391SOL     OW49069   7.033  10.566   5.866
82391SOL    HW149070   6.992  10.641   5.822
82391SOL    HW249071   7.090  10.528   5.799
82392SOL     OW49072  14.573  13.448   5.096
82392SOL    HW149073  14.606  13.537   5.083
82392SOL    HW249074  14.648  13.392   5.078
82393SOL     OW49075  13.228   2.600   0.671
82393SOL    HW149076  13.273   2.681   0.696
82393SOL    HW249077  13.267   2.533   0.726
82394SOL     OW49078   1.781  12.542   6.479
82394SOL    HW149079   1.839  12.544   6.403
82394SOL    HW249080   1.744  12.454   6.479
82395SOL     OW49081   1.719  13.354   9.036
82395SOL    HW149082   1.627  13.331   9.045
82395SOL    HW249083   1.724  13.446   9.063
82396SOL     OW49084   6.497   8.113  10.367
82396SOL    HW149085   6.517   8.201  10.337
82396SOL    HW249086   6.515   8.057  10.291
82397SOL     OW49087   3.946   8.798  10.577
82397SOL    HW149088   4.013   8.739  10.611
82397SOL    HW249089   3.946   8.784  10.482
82398SOL     OW49090  10.624   6.139   2.561
82398SOL    HW149091  10.654   6.169   2.646
82398SOL    HW249092  10.563   6.206   2.531
82399SOL     OW49093   0.351  13.903  11.902
82399SOL    HW149094   0.403  13.907  11.822
82399SOL    HW249095   0.296  13.826  11.891
82400SOL     OW49096   0.352   4.836  13.777
82400SOL    HW149097   0.373   4.780  13.703
82400SOL    HW249098   0.257   4.844  13.775
82401SOL     OW49099   7.839   7.701   3.517
82401SOL    HW149100   7.910   7.757   3.487
82401SOL    HW249101   7.855   7.617   3.474
82402SOL     OW49102   0.046  14.181  12.712
82402SOL    HW149103   0.084  14.160  12.797
82402SOL    HW249104   0.104  14.139  12.648
82403SOL     OW49105  12.422   8.727   0.365
82403SOL    HW149106  12.500   8.673   0.357
82403SOL    HW249107  12.351   8.672   0.334
82404SOL     OW49108  12.581   6.975   7.122
82404SOL    HW149109  12.516   6.919   7.164
82404SOL    HW249110  12.533   7.019   7.051
82405SOL     OW49111   5.704   9.916  10.140
82405SOL    HW149112   5.755   9.903  10.220
82405SOL    HW249113   5.765   9.896  10.070
82406SOL     OW49114  13.132   4.600   1.096
82406SOL    HW149115  13.165   4.511   1.103
82406SOL    HW249116  13.045   4.591   1.057
82407SOL     OW49117  10.561  14.037   2.691
82407SOL    HW149118  10.541  14.130   2.687
82407SOL    HW249119  10.478  13.993   2.671
82408SOL     OW49120  14.208  14.792   3.508
82408SOL    HW149121  14.141  14.728   3.485
82408SOL    HW249122  14.203  14.800   3.603
82409SOL     OW49123   8.810   4.577   3.194
82409SOL    HW149124   8.878   4.613   3.137
82409SOL    HW249125   8.813   4.631   3.273
82410SOL     OW49126   9.796   9.355  12.514
82410SOL    HW149127   9.717   9.342  12.567
82410SOL    HW249128   9.831   9.439  12.545
82411SOL     OW49129   8.653  14.181   1.205
82411SOL    HW149130   8.742  14.192   1.238
82411SOL    HW249131   8.648  14.237   1.128
82412SOL     OW49132  12.709  11.874   8.533
82412SOL    HW149133  12.793  11.865   8.488
82412SOL    HW249134  12.677  11.785   8.542
82413SOL     OW49135   8.604   4.853   0.017
82413SOL    HW149136   8.652   4.852   0.100
82413SOL    HW249137   8.658   4.906  14.831
82414SOL     OW49138   7.762   3.204   6.923
82414SOL    HW149139   7.741   3.183   6.832
82414SOL    HW249140   7.832   3.269   6.917
82415SOL     OW49141  10.762  12.580   8.836
82415SOL    HW149142  10.842  12.573   8.888
82415SOL    HW249143  10.711  12.503   8.860
82416SOL     OW49144  12.901   5.297   2.424
82416SOL    HW149145  12.930   5.214   2.461
82416SOL    HW249146  12.978   5.332   2.379
82417SOL     OW49147   5.674   8.416   4.387
82417SOL    HW149148   5.613   8.355   4.427
82417SOL    HW249149   5.689   8.382   4.299
82418SOL     OW49150   0.914   0.444   9.658
82418SOL    HW149151   0.906   0.353   9.629
82418SOL    HW249152   0.966   0.439   9.738
82419SOL     OW49153   8.948  14.821  14.354
82419SOL    HW149154   8.913  14.733  14.341
82419SOL    HW249155   8.952  14.859  14.266
82420SOL     OW49156   6.405  13.076   0.479
82420SOL    HW149157   6.368  13.086   0.391
82420SOL    HW249158   6.361  13.143   0.531
82421SOL     OW49159   4.425   8.064  10.539
82421SOL    HW149160   4.445   8.031  10.452
82421SOL    HW249161   4.452   8.155  10.537
82422SOL     OW49162  11.030   1.875  14.745
82422SOL    HW149163  10.939   1.897  14.727
82422SOL    HW249164  11.036   1.781  14.732
82423SOL     OW49165   4.600   1.021  14.342
82423SOL    HW149166   4.564   0.959  14.405
82423SOL    HW249167   4.590   0.978  14.257
82424SOL     OW49168   0.254   4.295   4.562
82424SOL    HW149169   0.173   4.329   4.525
82424SOL    HW249170   0.286   4.233   4.497
82425SOL     OW49171   3.941  13.192   2.656
82425SOL    HW149172   3.996  13.121   2.624
82425SOL    HW249173   3.862  13.186   2.602
82426SOL     OW49174  11.649   9.556   9.570
82426SOL    HW149175  11.678   9.593   9.487
82426SOL    HW249176  11.729   9.539   9.620
82427SOL     OW49177   9.730   8.565   8.179
82427SOL    HW149178   9.694   8.610   8.256
82427SOL    HW249179   9.823   8.555   8.199
82428SOL     OW49180   1.071   8.875  13.964
82428SOL    HW149181   0.999   8.910  13.911
82428SOL    HW249182   1.050   8.782  13.975
82429SOL     OW49183   4.886   2.209   4.211
82429SOL    HW149184   4.964   2.244   4.254
82429SOL    HW249185   4.915   2.125   4.173
82430SOL     OW49186   6.941   1.754  11.889
82430SOL    HW149187   6.915   1.669  11.853
82430SOL    HW249188   6.877   1.771  11.958
82431SOL     OW49189   5.868   5.014   5.826
82431SOL    HW149190   5.773   5.006   5.833
82431SOL    HW249191   5.885   5.108   5.829
82432SOL     OW49192  13.573   1.301  11.095
82432SOL    HW149193  13.649   1.277  11.042
82432SOL    HW249194  13.498   1.279  11.041
82433SOL     OW49195   2.297   6.977  12.734
82433SOL    HW149196   2.231   6.960  12.666
82433SOL    HW249197   2.251   6.961  12.816
82434SOL     OW49198   8.451   5.747   9.456
82434SOL    HW149199   8.375   5.802   9.435
82434SOL    HW249200   8.414   5.671   9.501
82435SOL     OW49201   4.310  12.049   1.017
82435SOL    HW149202   4.396  12.077   0.986
82435SOL    HW249203   4.302  11.959   0.986
82436SOL     OW49204   6.201   7.583   8.131
82436SOL    HW149205   6.217   7.564   8.038
82436SOL    HW249206   6.283   7.618   8.164
82437SOL     OW49207   6.188  10.491  11.796
82437SOL    HW149208   6.187  10.460  11.705
82437SOL    HW249209   6.258  10.557  11.797
82438SOL     OW49210   5.006   3.724  12.439
82438SOL    HW149211   4.969   3.741  12.526
82438SOL    HW249212   5.071   3.656  12.453
82439SOL     OW49213  11.074  12.800  13.946
82439SOL    HW149214  11.132  12.876  13.955
82439SOL    HW249215  11.084  12.752  14.027
82440SOL     OW49216  11.313   0.844   2.908
82440SOL    HW149217  11.384   0.835   2.971
82440SOL    HW249218  11.325   0.932   2.871
82441SOL     OW49219  14.212  12.779  10.785
82441SOL    HW149220  14.244  12.703  10.834
82441SOL    HW249221  14.129  12.801  10.828
82442SOL     OW49222   3.126  13.759  10.481
82442SOL    HW149223   3.084  13.675  10.468
82442SOL    HW249224   3.085  13.795  10.560
82443SOL     OW49225   7.230  13.887   6.892
82443SOL    HW149226   7.190  13.801   6.893
82443SOL    HW249227   7.193  13.932   6.968
82444SOL     OW49228   1.489   9.725   8.830
82444SOL    HW149229   1.467   9.789   8.762
82444SOL    HW249230   1.451   9.762   8.910
82445SOL     OW49231   4.948  10.870   3.344
82445SOL    HW149232   5.032  10.895   3.385
82445SOL    HW249233   4.916  10.798   3.398
82446SOL     OW49234  12.888   8.795  10.639
82446SOL    HW149235  12.802   8.835  10.649
82446SOL    HW249236  12.871   8.707  10.606
82447SOL     OW49237  10.481   9.088   8.599
82447SOL    HW149238  10.478   9.162   8.660
82447SOL    HW249239  10.419   9.025   8.635
82448SOL     OW49240   0.921   6.837  11.323
82448SOL    HW149241   0.969   6.804  11.247
82448SOL    HW249242   0.849   6.887  11.286
82449SOL     OW49243   0.009   9.096  13.639
82449SOL    HW149244  14.818   9.139  13.697
82449SOL    HW249245  14.834   9.084  13.557
82450SOL     OW49246   5.792  12.969   2.068
82450SOL    HW149247   5.790  13.062   2.093
82450SOL    HW249248   5.729  12.927   2.126
82451SOL     OW49249   7.981   5.888  13.056
82451SOL    HW149250   7.982   5.957  12.990
82451SOL    HW249251   7.898   5.900  13.102
82452SOL     OW49252  12.248  12.963   7.185
82452SOL    HW149253  12.166  12.923   7.212
82452SOL    HW249254  12.312  12.892   7.191
82453SOL     OW49255   4.156   5.285   3.784
82453SOL    HW149256   4.070   5.325   3.795
82453SOL    HW249257   4.140   5.206   3.732
82454SOL     OW49258   8.754  10.229   7.719
82454SOL    HW149259   8.845  10.202   7.735
82454SOL    HW249260   8.706  10.195   7.794
82455SOL     OW49261   3.464  12.373   0.300
82455SOL    HW149262   3.526  12.307   0.271
82455SOL    HW249263   3.453  12.430   0.225
82456SOL     OW49264   6.293  14.721   6.543
82456SOL    HW149265   6.386  14.713   6.520
82456SOL    HW249266   6.287  14.804   6.590
82457SOL     OW49267  10.343   0.659   0.531
82457SOL    HW149268  10.409   0.726   0.514
82457SOL    HW249269  10.269   0.684   0.476
82458SOL     OW49270   2.821   5.749   6.653
82458SOL    HW149271   2.903   5.700   6.655
82458SOL    HW249272   2.763   5.697   6.597
82459SOL     OW49273   3.162  12.973   6.988
82459SOL    HW149274   3.075  12.934   6.987
82459SOL    HW249275   3.166  13.023   6.906
82460SOL     OW49276   8.330  11.165  14.675
82460SOL    HW149277   8.304  11.123  14.757
82460SOL    HW249278   8.301  11.105  14.606
82461SOL     OW49279   3.067   8.398   5.914
82461SOL    HW149280   3.160   8.401   5.936
82461SOL    HW249281   3.062   8.337   5.840
82462SOL     OW49282   2.665   5.989   7.229
82462SOL    HW149283   2.672   5.974   7.323
82462SOL    HW249284   2.629   5.908   7.193
82463SOL     OW49285   5.296   5.534   9.043
82463SOL    HW149286   5.311   5.628   9.053
82463SOL    HW249287   5.262   5.525   8.954
82464SOL     OW49288   1.500  10.912   6.664
82464SOL    HW149289   1.450  10.831   6.663
82464SOL    HW249290   1.575  10.893   6.721
82465SOL     OW49291   2.580   0.394   0.960
82465SOL    HW149292   2.580   0.317   0.903
82465SOL    HW249293   2.571   0.468   0.900
82466SOL     OW49294  14.645  12.577   8.237
82466SOL    HW149295  14.623  12.610   8.324
82466SOL    HW249296  14.581  12.617   8.179
82467SOL     OW49297  14.055   7.331   9.293
82467SOL    HW149298  14.087   7.256   9.244
82467SOL    HW249299  13.972   7.354   9.250
82468SOL     OW49300   9.807   4.052   7.547
82468SOL    HW149301   9.794   4.081   7.638
82468SOL    HW249302   9.786   4.130   7.495
82469SOL     OW49303   1.435   1.518  12.403
82469SOL    HW149304   1.435   1.607  12.440
82469SOL    HW249305   1.526   1.490  12.408
82470SOL     OW49306   0.964   9.190  10.435
82470SOL    HW149307   0.876   9.189  10.397
82470SOL    HW249308   0.981   9.282  10.455
82471SOL     OW49309   1.620  10.038   7.451
82471SOL    HW149310   1.565  10.016   7.376
82471SOL    HW249311   1.577   9.997   7.526
82472SOL     OW49312  11.319  12.992   3.575
82472SOL    HW149313  11.321  12.897   3.580
82472SOL    HW249314  11.259  13.019   3.645
82473SOL     OW49315   5.665   7.345  11.357
82473SOL    HW149316   5.748   7.340  11.404
82473SOL    HW249317   5.602   7.375  11.422
82474SOL     OW49318  10.532  12.767  14.817
82474SOL    HW149319  10.602  12.805  14.870
82474SOL    HW249320  10.460  12.756   0.007
82475SOL     OW49321   7.907  13.771   4.400
82475SOL    HW149322   7.977  13.736   4.345
82475SOL    HW249323   7.953  13.816   4.471
82476SOL     OW49324  12.182   3.153  13.862
82476SOL    HW149325  12.090   3.133  13.849
82476SOL    HW249326  12.208   3.101  13.938
82477SOL     OW49327   9.971   8.517   6.475
82477SOL    HW149328   9.977   8.425   6.449
82477SOL    HW249329   9.948   8.564   6.395
82478SOL     OW49330   2.881  11.389  10.731
82478SOL    HW149331   2.814  11.349  10.787
82478SOL    HW249332   2.867  11.483  10.741
82479SOL     OW49333  10.848   9.251   8.034
82479SOL    HW149334  10.870   9.209   8.117
82479SOL    HW249335  10.916   9.317   8.020
82480SOL     OW49336   2.675   4.802  10.993
82480SOL    HW149337   2.609   4.750  10.949
82480SOL    HW249338   2.724   4.844  10.922
82481SOL     OW49339   5.878   0.844   5.182
82481SOL    HW149340   5.939   0.797   5.124
82481SOL    HW249341   5.792   0.804   5.164
82482SOL     OW49342  11.563  11.466   4.463
82482SOL    HW149343  11.561  11.556   4.496
82482SOL    HW249344  11.472  11.438   4.465
82483SOL     OW49345   2.370  12.832   7.946
82483SOL    HW149346   2.320  12.760   7.985
82483SOL    HW249347   2.401  12.884   8.021
82484SOL     OW49348   2.241   8.060   0.689
82484SOL    HW149349   2.268   7.968   0.695
82484SOL    HW249350   2.147   8.058   0.703
82485SOL     OW49351   8.046  13.331   2.352
82485SOL    HW149352   7.991  13.344   2.275
82485SOL    HW249353   8.136  13.340   2.320
82486SOL     OW49354   0.335   9.484   5.199
82486SOL    HW149355   0.292   9.544   5.137
82486SOL    HW249356   0.385   9.424   5.143
82487SOL     OW49357   5.716   0.288   1.299
82487SOL    HW149358   5.647   0.304   1.235
82487SOL    HW249359   5.740   0.375   1.332
82488SOL     OW49360  14.745  10.969   5.723
82488SOL    HW149361  14.805  10.916   5.774
82488SOL    HW249362  14.659  10.954   5.764
82489SOL     OW49363   8.019   5.080   7.008
82489SOL    HW149364   7.998   5.100   7.099
82489SOL    HW249365   7.954   5.014   6.982
82490SOL     OW49366   5.272   3.088   1.480
82490SOL    HW149367   5.243   3.055   1.396
82490SOL    HW249368   5.301   3.011   1.528
82491SOL     OW49369  12.381   4.469   3.789
82491SOL    HW149370  12.395   4.520   3.710
82491SOL    HW249371  12.399   4.379   3.763
82492SOL     OW49372   9.015   2.977   0.580
82492SOL    HW149373   8.988   2.898   0.532
82492SOL    HW249374   8.936   3.031   0.583
82493SOL     OW49375  10.310   8.654   3.178
82493SOL    HW149376  10.319   8.691   3.090
82493SOL    HW249377  10.400   8.649   3.211
82494SOL     OW49378   0.517   6.625   5.311
82494SOL    HW149379   0.433   6.649   5.351
82494SOL    HW249380   0.543   6.545   5.357
82495SOL     OW49381  13.900   0.346   9.159
82495SOL    HW149382  13.958   0.384   9.225
82495SOL    HW249383  13.814   0.380   9.180
82496SOL     OW49384  13.096  10.287  13.562
82496SOL    HW149385  13.007  10.260  13.542
82496SOL    HW249386  13.123  10.231  13.634
82497SOL     OW49387  10.404  12.709   1.773
82497SOL    HW149388  10.436  12.682   1.687
82497SOL    HW249389  10.443  12.646   1.834
82498SOL     OW49390   1.195  12.728   5.359
82498SOL    HW149391   1.179  12.670   5.285
82498SOL    HW249392   1.132  12.799   5.348
82499SOL     OW49393   5.170  10.658  10.907
82499SOL    HW149394   5.104  10.642  10.975
82499SOL    HW249395   5.217  10.736  10.937
82500SOL     OW49396  11.944   1.154   2.457
82500SOL    HW149397  12.034   1.124   2.447
82500SOL    HW249398  11.935   1.226   2.395
82501SOL     OW49399   2.520   7.291  14.100
82501SOL    HW149400   2.520   7.195  14.092
82501SOL    HW249401   2.541   7.307  14.192
82502SOL     OW49402   9.937   2.429  10.967
82502SOL    HW149403   9.954   2.463  11.054
82502SOL    HW249404   9.951   2.503  10.908
82503SOL     OW49405   2.770   8.098  11.955
82503SOL    HW149406   2.772   8.111  11.861
82503SOL    HW249407   2.711   8.165  11.988
82504SOL     OW49408   8.669   1.076   8.676
82504SOL    HW149409   8.591   1.022   8.663
82504SOL    HW249410   8.659   1.148   8.614
82505SOL     OW49411   4.176   8.602   5.935
82505SOL    HW149412   4.187   8.649   6.017
82505SOL    HW249413   4.257   8.550   5.926
82506SOL     OW49414  10.069   2.734  10.090
82506SOL    HW149415  10.123   2.767  10.161
82506SOL    HW249416   9.988   2.705  10.132
82507SOL     OW49417  12.106   0.484   0.625
82507SOL    HW149418  12.154   0.518   0.701
82507SOL    HW249419  12.169   0.487   0.554
82508SOL     OW49420  11.855   2.368   2.586
82508SOL    HW149421  11.939   2.331   2.611
82508SOL    HW249422  11.871   2.408   2.500
82509SOL     OW49423  12.235   9.739  11.624
82509SOL    HW149424  12.231   9.803  11.695
82509SOL    HW249425  12.315   9.688  11.642
82510SOL     OW49426   9.240  10.134  14.838
82510SOL    HW149427   9.165  10.157   0.022
82510SOL    HW249428   9.264  10.046  14.865
82511SOL     OW49429  13.204   4.934  13.039
82511SOL    HW149430  13.296   4.914  13.019
82511SOL    HW249431  13.190   5.021  13.001
82512SOL     OW49432  14.607   2.434   0.755
82512SOL    HW149433  14.603   2.528   0.736
82512SOL    HW249434  14.664   2.398   0.688
82513SOL     OW49435   6.630   1.730   5.921
82513SOL    HW149436   6.566   1.760   5.857
82513SOL    HW249437   6.714   1.764   5.889
82514SOL     OW49438   7.353  10.579   5.037
82514SOL    HW149439   7.262  10.607   5.040
82514SOL    HW249440   7.365  10.528   5.117
82515SOL     OW49441   9.611   6.688  13.347
82515SOL    HW149442   9.658   6.613  13.311
82515SOL    HW249443   9.615   6.754  13.277
82516SOL     OW49444   4.046   4.517  11.585
82516SOL    HW149445   4.113   4.515  11.517
82516SOL    HW249446   4.052   4.431  11.628
82517SOL     OW49447  11.557   8.188  12.091
82517SOL    HW149448  11.525   8.208  12.003
82517SOL    HW249449  11.652   8.190  12.082
82518SOL     OW49450   3.169   5.601   9.574
82518SOL    HW149451   3.150   5.632   9.486
82518SOL    HW249452   3.234   5.662   9.608
82519SOL     OW49453   9.031   7.460   0.464
82519SOL    HW149454   9.015   7.405   0.388
82519SOL    HW249455   8.979   7.420   0.534
82520SOL     OW49456   3.356   7.262   0.099
82520SOL    HW149457   3.287   7.293   0.041
82520SOL    HW249458   3.399   7.341   0.130
82521SOL     OW49459   7.667   0.036  13.748
82521SOL    HW149460   7.609   0.110  13.765
82521SOL    HW249461   7.620  14.832  13.785
82522SOL     OW49462   4.113   8.506  14.380
82522SOL    HW149463   4.097   8.540  14.468
82522SOL    HW249464   4.053   8.432  14.371
82523SOL     OW49465  13.304  11.576  14.871
82523SOL    HW149466  13.221  11.604   0.039
82523SOL    HW249467  13.279  11.531  14.790
82524SOL     OW49468   4.498   4.218  13.297
82524SOL    HW149469   4.567   4.154  13.283
82524SOL    HW249470   4.424   4.167  13.329
82525SOL     OW49471  13.928   8.123   5.837
82525SOL    HW149472  13.967   8.156   5.755
82525SOL    HW249473  13.986   8.052   5.863
82526SOL     OW49474   5.443   1.926  11.267
82526SOL    HW149475   5.537   1.938  11.251
82526SOL    HW249476   5.406   2.013  11.254
82527SOL     OW49477   6.865   1.752  12.498
82527SOL    HW149478   6.915   1.826  12.464
82527SOL    HW249479   6.914   1.724  12.576
82528SOL     OW49480  13.523   8.537   8.417
82528SOL    HW149481  13.475   8.455   8.408
82528SOL    HW249482  13.549   8.540   8.509
82529SOL     OW49483  11.048   6.766   2.675
82529SOL    HW149484  11.024   6.742   2.764
82529SOL    HW249485  11.034   6.687   2.624
82530SOL     OW49486   3.882   6.986  14.283
82530SOL    HW149487   3.958   6.986  14.226
82530SOL    HW249488   3.915   6.960  14.369
82531SOL     OW49489   1.218   5.277   7.364
82531SOL    HW149490   1.298   5.327   7.350
82531SOL    HW249491   1.157   5.340   7.402
82532SOL     OW49492   5.807   0.659   1.681
82532SOL    HW149493   5.859   0.602   1.737
82532SOL    HW249494   5.716   0.636   1.702
82533SOL     OW49495  11.094   1.605   0.688
82533SOL    HW149496  11.134   1.521   0.710
82533SOL    HW249497  11.061   1.593   0.598
82534SOL     OW49498   2.607   8.647   1.132
82534SOL    HW149499   2.702   8.645   1.122
82534SOL    HW249500   2.591   8.712   1.201
82535SOL     OW49501  12.806   1.634   0.856
82535SOL    HW149502  12.745   1.639   0.929
82535SOL    HW249503  12.886   1.597   0.895
82536SOL     OW49504  12.718   4.581   2.861
82536SOL    HW149505  12.808   4.569   2.830
82536SOL    HW249506  12.688   4.493   2.884
82537SOL     OW49507   3.789   0.935   9.543
82537SOL    HW149508   3.720   0.953   9.607
82537SOL    HW249509   3.770   0.847   9.512
82538SOL     OW49510   8.635  10.906   3.219
82538SOL    HW149511   8.587  10.981   3.253
82538SOL    HW249512   8.653  10.852   3.296
82539SOL     OW49513  11.078   2.418   8.599
82539SOL    HW149514  11.126   2.376   8.528
82539SOL    HW249515  10.991   2.377   8.598
82540SOL     OW49516   5.940   6.357  12.892
82540SOL    HW149517   5.871   6.292  12.883
82540SOL    HW249518   5.894   6.438  12.915
82541SOL     OW49519  11.244   4.413   8.303
82541SOL    HW149520  11.321   4.447   8.348
82541SOL    HW249521  11.272   4.326   8.272
82542SOL     OW49522   3.461   5.950   2.836
82542SOL    HW149523   3.455   5.994   2.751
82542SOL    HW249524   3.470   5.857   2.814
82543SOL     OW49525   7.186   9.393   6.279
82543SOL    HW149526   7.170   9.383   6.373
82543SOL    HW249527   7.100   9.379   6.238
82544SOL     OW49528   4.905  10.729   6.545
82544SOL    HW149529   4.892  10.723   6.451
82544SOL    HW249530   4.885  10.641   6.577
82545SOL     OW49531  14.160   3.967   4.328
82545SOL    HW149532  14.136   3.953   4.236
82545SOL    HW249533  14.232   4.029   4.325
82546SOL     OW49534   5.967  14.337  14.205
82546SOL    HW149535   5.883  14.337  14.159
82546SOL    HW249536   6.004  14.424  14.187
82547SOL     OW49537   2.349  10.698   0.497
82547SOL    HW149538   2.374  10.750   0.421
82547SOL    HW249539   2.282  10.750   0.541
82548SOL     OW49540   7.713   5.604  11.512
82548SOL    HW149541   7.749   5.673  11.457
82548SOL    HW249542   7.632   5.578  11.469
82549SOL     OW49543   7.546   5.260  13.459
82549SOL    HW149544   7.562   5.180  13.509
82549SOL    HW249545   7.633   5.291  13.435
82550SOL     OW49546   8.674   9.464   7.034
82550SOL    HW149547   8.725   9.409   7.093
82550SOL    HW249548   8.583   9.440   7.050
82551SOL     OW49549   1.059  12.047  13.225
82551SOL    HW149550   1.004  11.996  13.166
82551SOL    HW249551   1.090  11.984  13.289
82552SOL     OW49552   3.167   2.241   6.868
82552SOL    HW149553   3.228   2.302   6.909
82552SOL    HW249554   3.163   2.268   6.777
82553SOL     OW49555  13.491   2.006  14.833
82553SOL    HW149556  13.564   2.053  14.792
82553SOL    HW249557  13.506   1.914  14.811
82554SOL     OW49558   1.242  10.825   8.623
82554SOL    HW149559   1.337  10.823   8.612
82554SOL    HW249560   1.223  10.748   8.677
82555SOL     OW49561   2.407  11.077   0.990
82555SOL    HW149562   2.346  11.149   0.970
82555SOL    HW249563   2.353  10.999   0.994
82556SOL     OW49564   5.804  12.748   2.910
82556SOL    HW149565   5.812  12.749   3.005
82556SOL    HW249566   5.719  12.787   2.893
82557SOL     OW49567   8.638  12.829  14.813
82557SOL    HW149568   8.555  12.793  14.783
82557SOL    HW249569   8.618  12.872   0.024
82558SOL     OW49570   3.510   7.526  10.013
82558SOL    HW149571   3.511   7.607   9.962
82558SOL    HW249572   3.577   7.471   9.972
82559SOL     OW49573   3.905   3.884   5.815
82559SOL    HW149574   3.822   3.915   5.777
82559SOL    HW249575   3.967   3.953   5.795
82560SOL     OW49576   8.782   4.843   0.786
82560SOL    HW149577   8.809   4.757   0.756
82560SOL    HW249578   8.863   4.885   0.816
82561SOL     OW49579   3.874  13.039   7.165
82561SOL    HW149580   3.926  12.973   7.119
82561SOL    HW249581   3.801  13.057   7.106
82562SOL     OW49582   2.925   6.656   7.552
82562SOL    HW149583   2.931   6.665   7.647
82562SOL    HW249584   2.847   6.707   7.528
82563SOL     OW49585  13.645  11.787   4.904
82563SOL    HW149586  13.700  11.864   4.913
82563SOL    HW249587  13.629  11.758   4.994
82564SOL     OW49588   5.346   7.283  14.666
82564SOL    HW149589   5.392   7.250  14.743
82564SOL    HW249590   5.385   7.233  14.593
82565SOL     OW49591   1.359   4.752  10.744
82565SOL    HW149592   1.388   4.811  10.675
82565SOL    HW249593   1.264   4.759  10.743
82566SOL     OW49594   0.304  10.834   2.951
82566SOL    HW149595   0.353  10.906   2.912
82566SOL    HW249596   0.333  10.757   2.902
82567SOL     OW49597  11.342   9.321  10.071
82567SOL    HW149598  11.402   9.248  10.058
82567SOL    HW249599  11.385   9.395  10.028
82568SOL     OW49600   8.259  12.455   2.465
82568SOL    HW149601   8.327  12.452   2.532
82568SOL    HW249602   8.261  12.367   2.426
82569SOL     OW49603  13.515   0.148   4.944
82569SOL    HW149604  13.447   0.129   4.879
82569SOL    HW249605  13.499   0.085   5.014
82570SOL     OW49606   7.972   5.874   6.232
82570SOL    HW149607   7.936   5.810   6.170
82570SOL    HW249608   8.015   5.940   6.176
82571SOL     OW49609   9.651   6.101   5.003
82571SOL    HW149610   9.564   6.063   4.993
82571SOL    HW249611   9.705   6.053   4.940
82572SOL     OW49612   0.919  14.289   8.692
82572SOL    HW149613   0.987  14.227   8.666
82572SOL    HW249614   0.968  14.365   8.723
82573SOL     OW49615   2.653  10.017  14.384
82573SOL    HW149616   2.705   9.939  14.367
82573SOL    HW249617   2.680  10.044  14.472
82574SOL     OW49618   8.357   7.446  13.095
82574SOL    HW149619   8.447   7.475  13.105
82574SOL    HW249620   8.355   7.359  13.136
82575SOL     OW49621  10.253   2.503  12.436
82575SOL    HW149622  10.159   2.489  12.423
82575SOL    HW249623  10.257   2.581  12.491
82576SOL     OW49624   4.665   6.324   4.887
82576SOL    HW149625   4.581   6.291   4.919
82576SOL    HW249626   4.727   6.300   4.956
82577SOL     OW49627   7.637  10.250   8.794
82577SOL    HW149628   7.557  10.199   8.801
82577SOL    HW249629   7.630  10.295   8.710
82578SOL     OW49630  13.768  11.711   7.798
82578SOL    HW149631  13.850  11.663   7.807
82578SOL    HW249632  13.786  11.777   7.730
82579SOL     OW49633  14.870   1.129  12.835
82579SOL    HW149634   0.040   1.109  12.751
82579SOL    HW249635   0.051   1.081  12.900
82580SOL     OW49636   4.966  10.607  11.141
82580SOL    HW149637   4.898  10.665  11.178
82580SOL    HW249638   5.010  10.571  11.218
82581SOL     OW49639  14.725   0.942   8.759
82581SOL    HW149640  14.647   0.981   8.721
82581SOL    HW249641  14.738   0.989   8.841
82582SOL     OW49642   8.734   7.003   9.309
82582SOL    HW149643   8.703   7.007   9.218
82582SOL    HW249644   8.667   7.050   9.359
82583SOL     OW49645   3.474   8.235   7.235
82583SOL    HW149646   3.494   8.204   7.323
82583SOL    HW249647   3.526   8.179   7.177
82584SOL     OW49648  10.826  10.088   8.704
82584SOL    HW149649  10.874  10.148   8.647
82584SOL    HW249650  10.890  10.060   8.770
82585SOL     OW49651  14.117   1.693  11.876
82585SOL    HW149652  14.082   1.657  11.958
82585SOL    HW249653  14.057   1.661  11.808
82586SOL     OW49654   2.492   3.702   0.416
82586SOL    HW149655   2.563   3.654   0.376
82586SOL    HW249656   2.439   3.635   0.460
82587SOL     OW49657   1.454   9.129  12.155
82587SOL    HW149658   1.390   9.082  12.208
82587SOL    HW249659   1.404   9.157  12.078
82588SOL     OW49660  13.650  11.476  12.982
82588SOL    HW149661  13.558  11.495  13.001
82588SOL    HW249662  13.660  11.383  13.001
82589SOL     OW49663   6.478  14.034  10.762
82589SOL    HW149664   6.420  13.964  10.790
82589SOL    HW249665   6.424  14.091  10.708
82590SOL     OW49666   0.655   0.812   7.458
82590SOL    HW149667   0.692   0.786   7.373
82590SOL    HW249668   0.619   0.732   7.494
82591SOL     OW49669   3.909   2.801   2.872
82591SOL    HW149670   3.853   2.791   2.949
82591SOL    HW249671   3.853   2.777   2.799
82592SOL     OW49672  12.108   3.846  10.246
82592SOL    HW149673  12.082   3.812  10.332
82592SOL    HW249674  12.029   3.838  10.193
82593SOL     OW49675   1.173   1.223   7.231
82593SOL    HW149676   1.196   1.219   7.324
82593SOL    HW249677   1.253   1.251   7.187
82594SOL     OW49678   9.052   7.637   2.676
82594SOL    HW149679   9.080   7.726   2.656
82594SOL    HW249680   8.974   7.647   2.729
82595SOL     OW49681  14.214   8.375  11.594
82595SOL    HW149682  14.280   8.332  11.648
82595SOL    HW249683  14.168   8.433  11.655
82596SOL     OW49684  13.418   6.934   1.049
82596SOL    HW149685  13.407   7.024   1.078
82596SOL    HW249686  13.418   6.883   1.130
82597SOL     OW49687  14.441  10.981   2.509
82597SOL    HW149688  14.521  11.016   2.471
82597SOL    HW249689  14.454  10.991   2.604
82598SOL     OW49690   8.160   6.534   7.060
82598SOL    HW149691   8.092   6.484   7.104
82598SOL    HW249692   8.121   6.620   7.045
82599SOL     OW49693   3.828  13.502  14.309
82599SOL    HW149694   3.864  13.454  14.234
82599SOL    HW249695   3.771  13.439  14.353
82600SOL     OW49696  13.626   8.169   1.070
82600SOL    HW149697  13.622   8.158   1.165
82600SOL    HW249698  13.536   8.159   1.041
82601SOL     OW49699   8.953   0.785   0.509
82601SOL    HW149700   8.937   0.870   0.469
82601SOL    HW249701   8.884   0.776   0.575
82602SOL     OW49702  12.773   5.916   1.205
82602SOL    HW149703  12.695   5.971   1.200
82602SOL    HW249704  12.740   5.830   1.233
82603SOL     OW49705   5.541   5.191  10.692
82603SOL    HW149706   5.533   5.165  10.784
82603SOL    HW249707   5.589   5.273  10.694
82604SOL     OW49708   5.161   6.945  10.096
82604SOL    HW149709   5.150   7.025  10.044
82604SOL    HW249710   5.239   6.963  10.149
82605SOL     OW49711  13.895   9.575  11.671
82605SOL    HW149712  13.943   9.509  11.723
82605SOL    HW249713  13.920   9.555  11.581
82606SOL     OW49714   7.450   1.708   8.272
82606SOL    HW149715   7.432   1.784   8.217
82606SOL    HW249716   7.461   1.745   8.360
82607SOL     OW49717   6.808   8.842   1.985
82607SOL    HW149718   6.885   8.796   1.952
82607SOL    HW249719   6.833   8.935   1.982
82608SOL     OW49720  12.027   6.096   9.596
82608SOL    HW149721  11.989   6.009   9.605
82608SOL    HW249722  11.961   6.146   9.549
82609SOL     OW49723  12.839   2.383   9.956
82609SOL    HW149724  12.753   2.400   9.917
82609SOL    HW249725  12.897   2.447   9.916
82610SOL     OW49726   8.236   4.295   9.575
82610SOL    HW149727   8.227   4.389   9.557
82610SOL    HW249728   8.231   4.254   9.488
82611SOL     OW49729   0.241  10.878   8.207
82611SOL    HW149730   0.187  10.800   8.194
82611SOL    HW249731   0.204  10.944   8.148
82612SOL     OW49732  12.859   0.522  13.801
82612SOL    HW149733  12.827   0.589  13.740
82612SOL    HW249734  12.868   0.569  13.884
82613SOL     OW49735   3.991  12.221  10.627
82613SOL    HW149736   3.953  12.271  10.699
82613SOL    HW249737   3.938  12.244  10.551
82614SOL     OW49738  14.719  14.753   6.007
82614SOL    HW149739  14.724  14.801   6.089
82614SOL    HW249740  14.743  14.816   5.940
82615SOL     OW49741  10.953  12.862  11.580
82615SOL    HW149742  10.975  12.946  11.540
82615SOL    HW249743  10.917  12.884  11.666
82616SOL     OW49744   6.213   1.761   5.803
82616SOL    HW149745   6.258   1.833   5.759
82616SOL    HW249746   6.283   1.699   5.826
82617SOL     OW49747   9.547   0.451   2.788
82617SOL    HW149748   9.488   0.455   2.713
82617SOL    HW249749   9.551   0.541   2.820
82618SOL     OW49750  11.011   8.526   8.740
82618SOL    HW149751  10.986   8.610   8.777
82618SOL    HW249752  10.937   8.468   8.759
82619SOL     OW49753  13.623   7.091   1.863
82619SOL    HW149754  13.574   7.024   1.912
82619SOL    HW249755  13.667   7.143   1.931
82620SOL     OW49756   7.829   0.203   3.063
82620SOL    HW149757   7.905   0.262   3.062
82620SOL    HW249758   7.867   0.115   3.071
82621SOL     OW49759   6.520   9.911  12.832
82621SOL    HW149760   6.491   9.924  12.742
82621SOL    HW249761   6.610   9.879  12.824
82622SOL     OW49762   8.783  14.812   7.837
82622SOL    HW149763   8.789   0.033   7.814
82622SOL    HW249764   8.789  14.766   7.753
82623SOL     OW49765   7.490  12.935  12.854
82623SOL    HW149766   7.472  12.844  12.829
82623SOL    HW249767   7.451  12.988  12.785
82624SOL     OW49768  12.205   3.693   5.233
82624SOL    HW149769  12.164   3.764   5.184
82624SOL    HW249770  12.299   3.703   5.216
82625SOL     OW49771  12.826  11.461   4.535
82625SOL    HW149772  12.775  11.536   4.506
82625SOL    HW249773  12.893  11.499   4.592
82626SOL     OW49774  14.534   5.654   1.327
82626SOL    HW149775  14.462   5.712   1.351
82626SOL    HW249776  14.525   5.579   1.386
82627SOL     OW49777   3.640   1.351   2.890
82627SOL    HW149778   3.703   1.406   2.935
82627SOL    HW249779   3.642   1.268   2.937
82628SOL     OW49780   2.375  10.166   3.971
82628SOL    HW149781   2.429  10.098   4.012
82628SOL    HW249782   2.419  10.248   3.994
82629SOL     OW49783   2.573   9.359  11.249
82629SOL    HW149784   2.644   9.315  11.297
82629SOL    HW249785   2.606   9.365  11.160
82630SOL     OW49786   1.702   4.970   3.158
82630SOL    HW149787   1.624   5.015   3.188
82630SOL    HW249788   1.704   4.986   3.063
82631SOL     OW49789   5.330   9.168   5.542
82631SOL    HW149790   5.303   9.171   5.634
82631SOL    HW249791   5.393   9.096   5.538
82632SOL     OW49792   8.999   7.369  14.807
82632SOL    HW149793   9.055   7.300  14.843
82632SOL    HW249794   9.058   7.443  14.794
82633SOL     OW49795   2.135  12.070   4.655
82633SOL    HW149796   2.162  12.105   4.570
82633SOL    HW249797   2.067  12.005   4.633
82634SOL     OW49798   9.022   9.431   3.528
82634SOL    HW149799   9.007   9.410   3.620
82634SOL    HW249800   9.116   9.445   3.522
82635SOL     OW49801   6.551   7.601  11.162
82635SOL    HW149802   6.575   7.681  11.115
82635SOL    HW249803   6.634   7.568  11.197
82636SOL     OW49804   0.044   2.704   3.396
82636SOL    HW149805  14.857   2.759   3.449
82636SOL    HW249806  14.864   2.682   3.319
82637SOL     OW49807  14.636  14.052  11.673
82637SOL    HW149808  14.573  14.081  11.607
82637SOL    HW249809  14.720  14.054  11.629
82638SOL     OW49810   9.878   1.810   6.000
82638SOL    HW149811   9.837   1.849   6.077
82638SOL    HW249812   9.969   1.841   6.003
82639SOL     OW49813   9.025   8.369   1.288
82639SOL    HW149814   8.984   8.373   1.202
82639SOL    HW249815   8.984   8.294   1.331
82640SOL     OW49816  12.801   3.369   8.622
82640SOL    HW149817  12.884   3.377   8.667
82640SOL    HW249818  12.743   3.325   8.685
82641SOL     OW49819  14.121   2.758  11.975
82641SOL    HW149820  14.204   2.785  12.014
82641SOL    HW249821  14.131   2.664  11.960
82642SOL     OW49822   1.479   8.547  14.630
82642SOL    HW149823   1.399   8.598  14.618
82642SOL    HW249824   1.465   8.468  14.579
82643SOL     OW49825   3.306  11.954  13.269
82643SOL    HW149826   3.233  11.983  13.323
82643SOL    HW249827   3.355  11.894  13.325
82644SOL     OW49828   6.368   0.329   5.386
82644SOL    HW149829   6.341   0.416   5.357
82644SOL    HW249830   6.349   0.328   5.480
82645SOL     OW49831   0.233   9.680  13.516
82645SOL    HW149832   0.219   9.734  13.594
82645SOL    HW249833   0.313   9.631  13.535
82646SOL     OW49834   2.853   2.501   3.273
82646SOL    HW149835   2.885   2.493   3.363
82646SOL    HW249836   2.763   2.534   3.283
82647SOL     OW49837   2.359  14.400   3.223
82647SOL    HW149838   2.361  14.427   3.132
82647SOL    HW249839   2.429  14.335   3.231
82648SOL     OW49840  10.053  10.549  13.495
82648SOL    HW149841  10.118  10.613  13.524
82648SOL    HW249842   9.985  10.551  13.562
82649SOL     OW49843   9.067   1.130   6.613
82649SOL    HW149844   9.034   1.219   6.598
82649SOL    HW249845   9.161   1.137   6.598
82650SOL     OW49846  12.089  13.697  14.019
82650SOL    HW149847  12.128  13.783  14.035
82650SOL    HW249848  12.134  13.639  14.081
82651SOL     OW49849   3.938   1.389   7.722
82651SOL    HW149850   3.906   1.299   7.720
82651SOL    HW249851   3.870   1.440   7.679
82652SOL     OW49852   3.536   1.745   4.759
82652SOL    HW149853   3.476   1.680   4.796
82652SOL    HW249854   3.623   1.718   4.789
82653SOL     OW49855  13.046  13.476   7.251
82653SOL    HW149856  13.089  13.403   7.207
82653SOL    HW249857  13.111  13.546   7.252
82654SOL     OW49858   8.559   2.211  14.355
82654SOL    HW149859   8.517   2.198  14.440
82654SOL    HW249860   8.487   2.213  14.293
82655SOL     OW49861   8.736   0.862   4.043
82655SOL    HW149862   8.653   0.842   4.000
82655SOL    HW249863   8.713   0.921   4.114
82656SOL     OW49864   2.799   2.459   0.344
82656SOL    HW149865   2.873   2.466   0.284
82656SOL    HW249866   2.771   2.550   0.359
82657SOL     OW49867   6.811  14.364   8.562
82657SOL    HW149868   6.857  14.448   8.561
82657SOL    HW249869   6.780  14.354   8.652
82658SOL     OW49870  12.107   0.382   9.320
82658SOL    HW149871  12.132   0.471   9.341
82658SOL    HW249872  12.135   0.370   9.229
82659SOL     OW49873   7.024  10.715   3.933
82659SOL    HW149874   7.006  10.779   4.002
82659SOL    HW249875   7.033  10.768   3.854
82660SOL     OW49876   8.831   8.478   1.904
82660SOL    HW149877   8.736   8.482   1.915
82660SOL    HW249878   8.860   8.416   1.970
82661SOL     OW49879   3.348  13.170   7.069
82661SOL    HW149880   3.279  13.106   7.054
82661SOL    HW249881   3.314  13.227   7.138
82662SOL     OW49882   7.923   6.936   3.687
82662SOL    HW149883   7.946   6.941   3.595
82662SOL    HW249884   8.002   6.903   3.730
82663SOL     OW49885   6.405   0.390   3.635
82663SOL    HW149886   6.411   0.483   3.613
82663SOL    HW249887   6.470   0.348   3.579
82664SOL     OW49888   5.377   5.280   3.112
82664SOL    HW149889   5.427   5.336   3.052
82664SOL    HW249890   5.375   5.329   3.195
82665SOL     OW49891   4.065   2.729  14.788
82665SOL    HW149892   4.077   2.787  14.863
82665SOL    HW249893   4.154   2.700  14.767
82666SOL     OW49894   9.286   8.247   6.754
82666SOL    HW149895   9.358   8.300   6.788
82666SOL    HW249896   9.301   8.245   6.659
82667SOL     OW49897   8.649   8.231  13.342
82667SOL    HW149898   8.573   8.289  13.349
82667SOL    HW249899   8.703   8.255  13.417
82668SOL     OW49900   3.681   6.413   9.094
82668SOL    HW149901   3.657   6.384   9.182
82668SOL    HW249902   3.717   6.501   9.107
82669SOL     OW49903  14.628   5.604  11.977
82669SOL    HW149904  14.694   5.663  12.012
82669SOL    HW249905  14.676   5.545  11.919
82670SOL     OW49906  12.829  14.679  13.158
82670SOL    HW149907  12.912  14.633  13.170
82670SOL    HW249908  12.850  14.771  13.175
82671SOL     OW49909   0.234   3.204   6.729
82671SOL    HW149910   0.183   3.253   6.664
82671SOL    HW249911   0.209   3.243   6.813
82672SOL     OW49912   4.265   0.400   2.431
82672SOL    HW149913   4.294   0.446   2.352
82672SOL    HW249914   4.212   0.327   2.398
82673SOL     OW49915   1.086   0.178  10.695
82673SOL    HW149916   1.013   0.193  10.755
82673SOL    HW249917   1.095   0.261  10.648
82674SOL     OW49918  11.320  13.232   7.583
82674SOL    HW149919  11.406  13.200   7.556
82674SOL    HW249920  11.263  13.212   7.509
82675SOL     OW49921  13.554   2.590   3.403
82675SOL    HW149922  13.567   2.496   3.396
82675SOL    HW249923  13.541   2.606   3.497
82676SOL     OW49924  13.493   4.421  11.035
82676SOL    HW149925  13.441   4.349  10.999
82676SOL    HW249926  13.485   4.410  11.130
82677SOL     OW49927   0.391  12.043   5.925
82677SOL    HW149928   0.448  11.973   5.957
82677SOL    HW249929   0.314  12.038   5.982
82678SOL     OW49930   7.482   5.588   4.833
82678SOL    HW149931   7.478   5.570   4.927
82678SOL    HW249932   7.413   5.533   4.796
82679SOL     OW49933  11.069   6.460   3.266
82679SOL    HW149934  11.019   6.456   3.348
82679SOL    HW249935  11.099   6.551   3.261
82680SOL     OW49936  11.612   5.199  11.056
82680SOL    HW149937  11.556   5.140  11.006
82680SOL    HW249938  11.675   5.142  11.100
82681SOL     OW49939   8.299   9.876   5.900
82681SOL    HW149940   8.374   9.821   5.920
82681SOL    HW249941   8.223   9.825   5.930
82682SOL     OW49942   9.319   6.389   8.413
82682SOL    HW149943   9.357   6.454   8.471
82682SOL    HW249944   9.388   6.370   8.349
82683SOL     OW49945   4.775   9.870   3.574
82683SOL    HW149946   4.780   9.962   3.549
82683SOL    HW249947   4.739   9.871   3.662
82684SOL     OW49948   9.338   7.719   1.176
82684SOL    HW149949   9.304   7.808   1.165
82684SOL    HW249950   9.390   7.704   1.097
82685SOL     OW49951  13.076  14.521   8.059
82685SOL    HW149952  13.059  14.430   8.085
82685SOL    HW249953  13.102  14.565   8.140
82686SOL     OW49954   9.632  14.501   6.036
82686SOL    HW149955   9.609  14.412   6.008
82686SOL    HW249956   9.717  14.492   6.079
82687SOL     OW49957   9.777   5.321   0.445
82687SOL    HW149958   9.682   5.328   0.434
82687SOL    HW249959   9.788   5.273   0.527
82688SOL     OW49960   3.266   9.164  10.701
82688SOL    HW149961   3.323   9.094  10.667
82688SOL    HW249962   3.307   9.244  10.669
82689SOL     OW49963   5.780   3.813   3.020
82689SOL    HW149964   5.852   3.768   3.064
82689SOL    HW249965   5.803   3.809   2.927
82690SOL     OW49966   5.796   7.548  13.088
82690SOL    HW149967   5.797   7.636  13.126
82690SOL    HW249968   5.715   7.509  13.122
82691SOL     OW49969   0.203  10.460   5.648
82691SOL    HW149970   0.253  10.530   5.605
82691SOL    HW249971   0.251  10.380   5.626
82692SOL     OW49972  13.663  12.004   0.424
82692SOL    HW149973  13.583  11.952   0.430
82692SOL    HW249974  13.646  12.081   0.479
82693SOL     OW49975  13.073  12.550   9.116
82693SOL    HW149976  13.084  12.610   9.189
82693SOL    HW249977  13.145  12.488   9.124
82694SOL     OW49978   4.814   1.112   7.291
82694SOL    HW149979   4.839   1.176   7.224
82694SOL    HW249980   4.847   1.149   7.373
82695SOL     OW49981   0.748   5.413  14.118
82695SOL    HW149982   0.735   5.483  14.054
82695SOL    HW249983   0.661   5.375  14.129
82696SOL     OW49984  13.324  10.445   3.633
82696SOL    HW149985  13.393  10.388   3.599
82696SOL    HW249986  13.369  10.503   3.694
82697SOL     OW49987   3.573   1.947   8.417
82697SOL    HW149988   3.639   1.899   8.468
82697SOL    HW249989   3.591   2.039   8.436
82698SOL     OW49990   1.513   2.853  12.906
82698SOL    HW149991   1.563   2.856  12.825
82698SOL    HW249992   1.550   2.922  12.961
82699SOL     OW49993  11.224   4.288   7.633
82699SOL    HW149994  11.145   4.329   7.598
82699SOL    HW249995  11.225   4.200   7.596
82700SOL     OW49996   1.204   9.252  12.625
82700SOL    HW149997   1.265   9.317  12.593
82700SOL    HW249998   1.127   9.302  12.652
82701SOL     OW49999   4.441  12.860   7.851
82701SOL    HW150000   4.469  12.863   7.943
82701SOL    HW250001   4.519  12.885   7.801
82702SOL     OW50002   3.538   7.359  14.619
82702SOL    HW150003   3.592   7.434  14.593
82702SOL    HW250004   3.450   7.395  14.629
82703SOL     OW50005   7.371  10.872   9.885
82703SOL    HW150006   7.354  10.965   9.900
82703SOL    HW250007   7.318  10.827   9.951
82704SOL     OW50008   3.602   2.302  13.383
82704SOL    HW150009   3.680   2.357  13.374
82704SOL    HW250010   3.613   2.259  13.468
82705SOL     OW50011   5.424  10.837   3.665
82705SOL    HW150012   5.459  10.819   3.752
82705SOL    HW250013   5.501  10.848   3.610
82706SOL     OW50014  14.070   8.112   4.599
82706SOL    HW150015  14.110   8.108   4.511
82706SOL    HW250016  14.016   8.034   4.604
82707SOL     OW50017  10.202   0.748  13.515
82707SOL    HW150018  10.220   0.662  13.553
82707SOL    HW250019  10.145   0.791  13.579
82708SOL     OW50020   1.318   6.281   8.985
82708SOL    HW150021   1.332   6.375   8.991
82708SOL    HW250022   1.403   6.246   8.960
82709SOL     OW50023   8.950   3.509   3.837
82709SOL    HW150024   8.997   3.516   3.754
82709SOL    HW250025   8.870   3.560   3.823
82710SOL     OW50026  11.441   0.502   2.472
82710SOL    HW150027  11.480   0.449   2.403
82710SOL    HW250028  11.511   0.563   2.498
82711SOL     OW50029  13.137   8.483  12.875
82711SOL    HW150030  13.205   8.417  12.863
82711SOL    HW250031  13.078   8.445  12.940
82712SOL     OW50032  13.125   7.921   6.654
82712SOL    HW150033  13.179   8.000   6.645
82712SOL    HW250034  13.049   7.949   6.703
82713SOL     OW50035  10.000   2.330   2.749
82713SOL    HW150036  10.000   2.269   2.822
82713SOL    HW250037   9.908   2.352   2.737
82714SOL     OW50038   2.272   4.540  14.007
82714SOL    HW150039   2.260   4.445  14.010
82714SOL    HW250040   2.331   4.558  14.081
82715SOL     OW50041   3.334   6.613   6.760
82715SOL    HW150042   3.389   6.691   6.772
82715SOL    HW250043   3.248   6.640   6.790
82716SOL     OW50044  10.886   7.826  13.445
82716SOL    HW150045  10.948   7.753  13.453
82716SOL    HW250046  10.852   7.818  13.356
82717SOL     OW50047  10.806  13.324  14.666
82717SOL    HW150048  10.837  13.345  14.754
82717SOL    HW250049  10.742  13.253  14.680
82718SOL     OW50050   9.059   2.207  12.599
82718SOL    HW150051   8.965   2.207  12.582
82718SOL    HW250052   9.083   2.300  12.597
82719SOL     OW50053   8.404   0.813   5.753
82719SOL    HW150054   8.452   0.895   5.746
82719SOL    HW250055   8.426   0.779   5.840
82720SOL     OW50056   4.291  11.477   3.891
82720SOL    HW150057   4.344  11.528   3.830
82720SOL    HW250058   4.322  11.504   3.977
82721SOL     OW50059  13.689   2.653   0.017
82721SOL    HW150060  13.628   2.649  14.814
82721SOL    HW250061  13.651   2.594   0.082
82722SOL     OW50062  13.608  11.547  14.814
82722SOL    HW150063  13.661  11.476  14.849
82722SOL    HW250064  13.535  11.555   0.004
82723SOL     OW50065  10.556   6.926   1.041
82723SOL    HW150066  10.592   6.914   0.953
82723SOL    HW250067  10.557   6.838   1.079
82724SOL     OW50068   7.718   5.013   5.002
82724SOL    HW150069   7.673   4.929   5.014
82724SOL    HW250070   7.648   5.075   4.980
82725SOL     OW50071   4.986   7.242   8.229
82725SOL    HW150072   4.986   7.165   8.172
82725SOL    HW250073   5.063   7.291   8.202
82726SOL     OW50074   0.435  14.182  14.209
82726SOL    HW150075   0.383  14.145  14.138
82726SOL    HW250076   0.490  14.248  14.166
82727SOL     OW50077   8.239  10.292   9.279
82727SOL    HW150078   8.323  10.278   9.324
82727SOL    HW250079   8.198  10.363   9.329
82728SOL     OW50080  10.652  10.374   6.380
82728SOL    HW150081  10.732  10.357   6.430
82728SOL    HW250082  10.588  10.313   6.416
82729SOL     OW50083   9.509   5.524  12.784
82729SOL    HW150084   9.448   5.568  12.725
82729SOL    HW250085   9.592   5.521  12.736
82730SOL     OW50086  12.262   8.576  13.216
82730SOL    HW150087  12.332   8.512  13.230
82730SOL    HW250088  12.246   8.574  13.122
82731SOL     OW50089   6.488  14.083   6.539
82731SOL    HW150090   6.452  14.024   6.472
82731SOL    HW250091   6.493  14.168   6.495
82732SOL     OW50092  10.624   3.765   4.598
82732SOL    HW150093  10.631   3.790   4.506
82732SOL    HW250094  10.533   3.785   4.621
82733SOL     OW50095   5.821  11.226   9.475
82733SOL    HW150096   5.726  11.228   9.483
82733SOL    HW250097   5.846  11.137   9.499
82734SOL     OW50098   1.559   9.359   7.896
82734SOL    HW150099   1.479   9.312   7.915
82734SOL    HW250100   1.530   9.442   7.857
82735SOL     OW50101   0.659   5.452   9.808
82735SOL    HW150102   0.663   5.506   9.729
82735SOL    HW250103   0.566   5.429   9.817
82736SOL     OW50104  10.222   8.409  14.547
82736SOL    HW150105  10.213   8.455  14.463
82736SOL    HW250106  10.132   8.397  14.577
82737SOL     OW50107  12.770   5.906   8.402
82737SOL    HW150108  12.847   5.961   8.416
82737SOL    HW250109  12.696   5.962   8.421
82738SOL     OW50110  10.856  13.682  10.097
82738SOL    HW150111  10.938  13.658  10.140
82738SOL    HW250112  10.868  13.774  10.074
82739SOL     OW50113   4.138   3.752  10.359
82739SOL    HW150114   4.204   3.818  10.378
82739SOL    HW250115   4.153   3.684  10.425
82740SOL     OW50116  10.743   9.165   2.535
82740SOL    HW150117  10.681   9.147   2.465
82740SOL    HW250118  10.691   9.158   2.615
82741SOL     OW50119   5.350   8.474   0.070
82741SOL    HW150120   5.371   8.394   0.023
82741SOL    HW250121   5.417   8.481   0.138
82742SOL     OW50122   7.577   9.473   4.474
82742SOL    HW150123   7.494   9.478   4.428
82742SOL    HW250124   7.643   9.464   4.405
82743SOL     OW50125   0.581   0.762  13.954
82743SOL    HW150126   0.528   0.748  13.875
82743SOL    HW250127   0.567   0.683  14.006
82744SOL     OW50128   2.380   5.373   6.297
82744SOL    HW150129   2.455   5.316   6.313
82744SOL    HW250130   2.354   5.404   6.383
82745SOL     OW50131   8.341  10.226   5.592
82745SOL    HW150132   8.268  10.176   5.628
82745SOL    HW250133   8.404  10.160   5.563
82746SOL     OW50134  12.014   6.865   7.395
82746SOL    HW150135  11.987   6.957   7.392
82746SOL    HW250136  12.051   6.853   7.482
82747SOL     OW50137  13.283   9.096   1.624
82747SOL    HW150138  13.217   9.148   1.578
82747SOL    HW250139  13.246   9.008   1.626
82748SOL     OW50140  10.160   2.940   1.603
82748SOL    HW150141  10.231   2.881   1.578
82748SOL    HW250142  10.186   2.975   1.688
82749SOL     OW50143  12.648  13.373   0.281
82749SOL    HW150144  12.609  13.456   0.308
82749SOL    HW250145  12.589  13.340   0.213
82750SOL     OW50146   1.267  13.282  11.433
82750SOL    HW150147   1.227  13.226  11.367
82750SOL    HW250148   1.340  13.231  11.467
82751SOL     OW50149   6.970  14.002  12.012
82751SOL    HW150150   6.905  13.934  12.033
82751SOL    HW250151   6.921  14.084  12.022
82752SOL     OW50152   5.736   5.521   6.522
82752SOL    HW150153   5.817   5.481   6.555
82752SOL    HW250154   5.766   5.597   6.472
82753SOL     OW50155  11.987   6.501  14.308
82753SOL    HW150156  12.078   6.520  14.328
82753SOL    HW250157  11.942   6.508  14.392
82754SOL     OW50158   3.743   6.242   6.537
82754SOL    HW150159   3.656   6.277   6.521
82754SOL    HW250160   3.749   6.166   6.479
82755SOL     OW50161  10.858   7.756   5.147
82755SOL    HW150162  10.818   7.736   5.063
82755SOL    HW250163  10.790   7.805   5.194
82756SOL     OW50164   9.061   7.159  12.307
82756SOL    HW150165   9.017   7.242  12.325
82756SOL    HW250166   8.996   7.108  12.257
82757SOL     OW50167  13.657   2.780   7.903
82757SOL    HW150168  13.732   2.826   7.864
82757SOL    HW250169  13.581   2.812   7.854
82758SOL     OW50170   3.461  10.490   6.318
82758SOL    HW150171   3.482  10.556   6.252
82758SOL    HW250172   3.511  10.412   6.292
82759SOL     OW50173   5.761  12.605  10.138
82759SOL    HW150174   5.803  12.691  10.144
82759SOL    HW250175   5.818  12.554  10.081
82760SOL     OW50176   5.945  12.732   6.973
82760SOL    HW150177   5.875  12.669   6.958
82760SOL    HW250178   5.963  12.726   7.067
82761SOL     OW50179  13.172   9.572   7.098
82761SOL    HW150180  13.122   9.498   7.064
82761SOL    HW250181  13.263   9.549   7.081
82762SOL     OW50182  12.212   2.637  13.628
82762SOL    HW150183  12.288   2.684  13.594
82762SOL    HW250184  12.211   2.658  13.721
82763SOL     OW50185   8.099  10.147  12.513
82763SOL    HW150186   8.037  10.183  12.449
82763SOL    HW250187   8.048  10.137  12.593
82764SOL     OW50188   3.067  14.072   3.052
82764SOL    HW150189   3.015  14.146   3.020
82764SOL    HW250190   3.031  14.054   3.139
82765SOL     OW50191   5.831   6.470   6.520
82765SOL    HW150192   5.818   6.547   6.576
82765SOL    HW250193   5.904   6.495   6.462
82766SOL     OW50194   9.548  10.394  11.594
82766SOL    HW150195   9.477  10.395  11.658
82766SOL    HW250196   9.600  10.472  11.614
82767SOL     OW50197   5.203   3.810   0.581
82767SOL    HW150198   5.295   3.789   0.561
82767SOL    HW250199   5.158   3.801   0.497
82768SOL     OW50200  13.276  13.473   0.665
82768SOL    HW150201  13.196  13.514   0.696
82768SOL    HW250202  13.284  13.393   0.717
82769SOL     OW50203   6.386  11.952   5.912
82769SOL    HW150204   6.302  11.906   5.918
82769SOL    HW250205   6.449  11.885   5.886
82770SOL     OW50206  13.887   2.942   6.279
82770SOL    HW150207  13.851   2.925   6.192
82770SOL    HW250208  13.949   2.871   6.294
82771SOL     OW50209   4.337   7.721   8.223
82771SOL    HW150210   4.366   7.812   8.224
82771SOL    HW250211   4.293   7.709   8.307
82772SOL     OW50212  10.889   6.769   4.487
82772SOL    HW150213  10.843   6.690   4.460
82772SOL    HW250214  10.866   6.779   4.580
82773SOL     OW50215  10.235   7.152  14.803
82773SOL    HW150216  10.171   7.102  14.753
82773SOL    HW250217  10.320   7.125  14.767
82774SOL     OW50218  11.588  12.625  10.210
82774SOL    HW150219  11.498  12.608  10.181
82774SOL    HW250220  11.613  12.546  10.258
82775SOL     OW50221   0.014   6.991   8.549
82775SOL    HW150222   0.056   6.987   8.635
82775SOL    HW250223  14.848   6.904   8.537
82776SOL     OW50224  11.504   6.472   2.302
82776SOL    HW150225  11.509   6.409   2.374
82776SOL    HW250226  11.419   6.514   2.313
82777SOL     OW50227   7.532   4.913   8.610
82777SOL    HW150228   7.483   4.848   8.559
82777SOL    HW250229   7.569   4.864   8.683
82778SOL     OW50230  10.224   2.800   2.434
82778SOL    HW150231  10.172   2.770   2.360
82778SOL    HW250232  10.175   2.770   2.511
82779SOL     OW50233   8.548   0.855  10.588
82779SOL    HW150234   8.482   0.800  10.630
82779SOL    HW250235   8.509   0.879  10.504
82780SOL     OW50236   6.558   0.131  11.473
82780SOL    HW150237   6.567   0.148  11.566
82780SOL    HW250238   6.643   0.152  11.436
82781SOL     OW50239  13.815  12.043  10.538
82781SOL    HW150240  13.729  12.049  10.580
82781SOL    HW250241  13.876  12.080  10.602
82782SOL     OW50242  13.963  13.088   1.942
82782SOL    HW150243  14.036  13.127   1.893
82782SOL    HW250244  13.999  13.008   1.980
82783SOL     OW50245  12.428   4.916  13.584
82783SOL    HW150246  12.446   4.995  13.635
82783SOL    HW250247  12.486   4.922  13.509
82784SOL     OW50248  11.190  14.187  14.020
82784SOL    HW150249  11.223  14.248  14.086
82784SOL    HW250250  11.196  14.101  14.062
82785SOL     OW50251   8.354   9.406   8.002
82785SOL    HW150252   8.433   9.353   8.001
82785SOL    HW250253   8.284   9.345   7.977
82786SOL     OW50254   4.648   2.038   0.963
82786SOL    HW150255   4.588   2.001   0.899
82786SOL    HW250256   4.735   2.021   0.926
82787SOL     OW50257   4.273  12.982   1.751
82787SOL    HW150258   4.214  13.041   1.703
82787SOL    HW250259   4.242  12.987   1.841
82788SOL     OW50260   0.504   7.827   8.126
82788SOL    HW150261   0.508   7.737   8.094
82788SOL    HW250262   0.427   7.830   8.182
82789SOL     OW50263   0.721   2.927   9.329
82789SOL    HW150264   0.711   2.864   9.258
82789SOL    HW250265   0.739   2.873   9.406
82790SOL     OW50266   5.777  14.210   2.543
82790SOL    HW150267   5.772  14.208   2.639
82790SOL    HW250268   5.732  14.130   2.515
82791SOL     OW50269   5.879   7.374   9.336
82791SOL    HW150270   5.837   7.459   9.339
82791SOL    HW250271   5.896   7.352   9.428
82792SOL     OW50272  10.733  13.915  14.854
82792SOL    HW150273  10.783  13.859   0.042
82792SOL    HW250274  10.651  13.867  14.839
82793SOL     OW50275  11.231   7.907  12.541
82793SOL    HW150276  11.284   7.860  12.476
82793SOL    HW250277  11.189   7.977  12.492
82794SOL     OW50278  11.973  14.323  11.248
82794SOL    HW150279  12.028  14.273  11.187
82794SOL    HW250280  11.945  14.399  11.198
82795SOL     OW50281   8.971  11.612   0.506
82795SOL    HW150282   8.960  11.517   0.509
82795SOL    HW250283   8.920  11.645   0.581
82796SOL     OW50284   0.368  14.036   7.382
82796SOL    HW150285   0.373  14.099   7.310
82796SOL    HW250286   0.275  14.031   7.403
82797SOL     OW50287  10.823  10.114  12.497
82797SOL    HW150288  10.911  10.078  12.502
82797SOL    HW250289  10.765  10.038  12.492
82798SOL     OW50290  11.173  11.333   5.893
82798SOL    HW150291  11.116  11.295   5.826
82798SOL    HW250292  11.142  11.295   5.975
82799SOL     OW50293  12.474   4.504  10.030
82799SOL    HW150294  12.490   4.564   9.957
82799SOL    HW250295  12.538   4.530  10.097
82800SOL     OW50296  10.036   1.828   3.123
82800SOL    HW150297  10.131   1.825   3.114
82800SOL    HW250298  10.020   1.810   3.215
82801SOL     OW50299  13.903   8.794   0.193
82801SOL    HW150300  13.844   8.869   0.199
82801SOL    HW250301  13.855   8.730   0.140
82802SOL     OW50302   4.394  13.246   1.505
82802SOL    HW150303   4.441  13.284   1.431
82802SOL    HW250304   4.437  13.161   1.520
82803SOL     OW50305   4.621   8.825   4.634
82803SOL    HW150306   4.578   8.851   4.553
82803SOL    HW250307   4.574   8.873   4.703
82804SOL     OW50308   6.555   0.144   3.520
82804SOL    HW150309   6.604   0.081   3.572
82804SOL    HW250310   6.619   0.212   3.498
82805SOL     OW50311   3.750  14.045  13.012
82805SOL    HW150312   3.671  14.056  12.959
82805SOL    HW250313   3.767  14.132  13.048
82806SOL     OW50314  10.596  13.031  12.809
82806SOL    HW150315  10.639  12.988  12.735
82806SOL    HW250316  10.657  13.100  12.835
82807SOL     OW50317   8.008  12.602   3.551
82807SOL    HW150318   7.942  12.550   3.506
82807SOL    HW250319   8.018  12.558   3.636
82808SOL     OW50320  13.563   8.920   8.412
82808SOL    HW150321  13.593   8.958   8.495
82808SOL    HW250322  13.640   8.873   8.379
82809SOL     OW50323   7.830   9.129   4.889
82809SOL    HW150324   7.874   9.151   4.807
82809SOL    HW250325   7.776   9.206   4.909
82810SOL     OW50326   5.529  13.143  12.207
82810SOL    HW150327   5.586  13.107  12.139
82810SOL    HW250328   5.581  13.136  12.288
82811SOL     OW50329   6.503   9.276   7.415
82811SOL    HW150330   6.471   9.322   7.493
82811SOL    HW250331   6.460   9.190   7.418
82812SOL     OW50332   2.696   2.460  14.617
82812SOL    HW150333   2.719   2.476  14.709
82812SOL    HW250334   2.622   2.518  14.601
82813SOL     OW50335   0.705  10.483   5.728
82813SOL    HW150336   0.787  10.434   5.721
82813SOL    HW250337   0.731  10.571   5.756
82814SOL     OW50338  10.871   2.776   1.761
82814SOL    HW150339  10.823   2.746   1.684
82814SOL    HW250340  10.810   2.761   1.834
82815SOL     OW50341  13.828   1.879   9.859
82815SOL    HW150342  13.904   1.921   9.899
82815SOL    HW250343  13.763   1.948   9.852
82816SOL     OW50344   0.238   8.457   6.190
82816SOL    HW150345   0.297   8.398   6.237
82816SOL    HW250346   0.264   8.544   6.218
82817SOL     OW50347  11.311   6.355  13.403
82817SOL    HW150348  11.396   6.332  13.439
82817SOL    HW250349  11.313   6.451  13.398
82818SOL     OW50350   9.010  13.806   6.571
82818SOL    HW150351   9.104  13.792   6.569
82818SOL    HW250352   8.973  13.728   6.530
82819SOL     OW50353   9.021   4.929  13.873
82819SOL    HW150354   8.944   4.913  13.818
82819SOL    HW250355   9.029   5.024  13.874
82820SOL     OW50356   0.328   0.532  10.577
82820SOL    HW150357   0.365   0.467  10.636
82820SOL    HW250358   0.314   0.485  10.495
82821SOL     OW50359   8.087  14.579   6.463
82821SOL    HW150360   8.028  14.531   6.520
82821SOL    HW250361   8.044  14.663   6.448
82822SOL     OW50362   8.059   2.946  13.816
82822SOL    HW150363   8.125   2.934  13.885
82822SOL    HW250364   8.064   2.866  13.764
82823SOL     OW50365   3.421  13.334   0.090
82823SOL    HW150366   3.496  13.318   0.032
82823SOL    HW250367   3.456  13.390   0.160
82824SOL     OW50368   1.721   0.098   6.135
82824SOL    HW150369   1.815   0.116   6.132
82824SOL    HW250370   1.697   0.113   6.226
82825SOL     OW50371   9.378   3.637   6.952
82825SOL    HW150372   9.320   3.572   6.912
82825SOL    HW250373   9.403   3.598   7.036
82826SOL     OW50374  12.839  12.843  13.153
82826SOL    HW150375  12.792  12.797  13.083
82826SOL    HW250376  12.931  12.831  13.130
82827SOL     OW50377   3.291   9.984   7.416
82827SOL    HW150378   3.195   9.981   7.421
82827SOL    HW250379   3.318  10.011   7.504
82828SOL     OW50380   5.649   8.899  13.929
82828SOL    HW150381   5.708   8.843  13.979
82828SOL    HW250382   5.575   8.842  13.908
82829SOL     OW50383  10.981   8.262   1.584
82829SOL    HW150384  10.990   8.338   1.527
82829SOL    HW250385  10.975   8.300   1.672
82830SOL     OW50386   2.625   1.220   1.575
82830SOL    HW150387   2.610   1.142   1.523
82830SOL    HW250388   2.675   1.190   1.651
82831SOL     OW50389   9.176   7.947   0.084
82831SOL    HW150390   9.083   7.935   0.105
82831SOL    HW250391   9.222   7.897   0.152
82832SOL     OW50392   9.328   0.046  11.591
82832SOL    HW150393   9.376  14.861  11.529
82832SOL    HW250394   9.238   0.014  11.586
82833SOL     OW50395  10.183   2.836  11.185
82833SOL    HW150396  10.224   2.803  11.264
82833SOL    HW250397  10.101   2.876  11.214
82834SOL     OW50398   2.336   5.857   6.113
82834SOL    HW150399   2.391   5.924   6.153
82834SOL    HW250400   2.366   5.775   6.153
82835SOL     OW50401   9.183  10.116  10.876
82835SOL    HW150402   9.264  10.065  10.879
82835SOL    HW250403   9.163  10.134  10.968
82836SOL     OW50404  14.518  12.275  13.832
82836SOL    HW150405  14.424  12.257  13.821
82836SOL    HW250406  14.560  12.190  13.826
82837SOL     OW50407  11.063   3.256   0.042
82837SOL    HW150408  11.125   3.187   0.017
82837SOL    HW250409  11.040   3.235   0.132
82838SOL     OW50410   4.046  11.104   6.633
82838SOL    HW150411   4.129  11.149   6.620
82838SOL    HW250412   4.045  11.034   6.568
82839SOL     OW50413  10.831  13.724  12.435
82839SOL    HW150414  10.916  13.719  12.391
82839SOL    HW250415  10.828  13.644  12.488
82840SOL     OW50416   8.025   4.208   5.664
82840SOL    HW150417   8.015   4.301   5.644
82840SOL    HW250418   8.103   4.203   5.719
82841SOL     OW50419   2.255   3.162   0.269
82841SOL    HW150420   2.298   3.198   0.346
82841SOL    HW250421   2.260   3.067   0.281
82842SOL     OW50422   6.909   7.454   4.306
82842SOL    HW150423   6.993   7.437   4.263
82842SOL    HW250424   6.861   7.509   4.245
82843SOL     OW50425  13.675   2.675   5.422
82843SOL    HW150426  13.586   2.641   5.428
82843SOL    HW250427  13.731   2.599   5.440
82844SOL     OW50428   4.580   3.453  10.753
82844SOL    HW150429   4.663   3.421  10.788
82844SOL    HW250430   4.582   3.431  10.660
82845SOL     OW50431   0.956   8.618  13.938
82845SOL    HW150432   1.010   8.540  13.948
82845SOL    HW250433   0.883   8.590  13.882
82846SOL     OW50434   7.380   5.877   8.946
82846SOL    HW150435   7.454   5.839   8.993
82846SOL    HW250436   7.413   5.960   8.912
82847SOL     OW50437  13.399  10.079   3.911
82847SOL    HW150438  13.368  10.135   3.982
82847SOL    HW250439  13.348   9.998   3.921
82848SOL     OW50440   6.879   3.155  10.808
82848SOL    HW150441   6.884   3.123  10.898
82848SOL    HW250442   6.911   3.083  10.754
82849SOL     OW50443   0.600   2.117   5.058
82849SOL    HW150444   0.593   2.059   5.133
82849SOL    HW250445   0.689   2.153   5.063
82850SOL     OW50446   6.048   3.810   0.889
82850SOL    HW150447   6.096   3.771   0.962
82850SOL    HW250448   5.994   3.877   0.928
82851SOL     OW50449  12.888   5.203  12.033
82851SOL    HW150450  12.960   5.238  12.085
82851SOL    HW250451  12.922   5.199  11.944
82852SOL     OW50452   7.027   1.649   5.697
82852SOL    HW150453   7.056   1.698   5.620
82852SOL    HW250454   7.092   1.579   5.707
82853SOL     OW50455  10.737  13.096  11.477
82853SOL    HW150456  10.742  13.105  11.572
82853SOL    HW250457  10.704  13.180  11.447
82854SOL     OW50458  10.387  12.751   8.918
82854SOL    HW150459  10.393  12.842   8.945
82854SOL    HW250460  10.477  12.726   8.894
82855SOL     OW50461  14.637   6.807  13.439
82855SOL    HW150462  14.569   6.813  13.506
82855SOL    HW250463  14.608   6.736  13.381
82856SOL     OW50464   5.675   3.466  10.556
82856SOL    HW150465   5.733   3.507  10.492
82856SOL    HW250466   5.633   3.539  10.602
82857SOL     OW50467   5.515   0.661   4.517
82857SOL    HW150468   5.445   0.651   4.581
82857SOL    HW250469   5.508   0.752   4.488
82858SOL     OW50470   9.528   0.896  12.051
82858SOL    HW150471   9.449   0.884  12.105
82858SOL    HW250472   9.600   0.892  12.114
82859SOL     OW50473   8.511   0.389  12.134
82859SOL    HW150474   8.431   0.365  12.181
82859SOL    HW250475   8.572   0.419  12.201
82860SOL     OW50476  13.453  11.470  11.204
82860SOL    HW150477  13.418  11.554  11.175
82860SOL    HW250478  13.523  11.492  11.265
82861SOL     OW50479   8.052   3.804  12.272
82861SOL    HW150480   8.129   3.756  12.240
82861SOL    HW250481   7.993   3.806  12.196
82862SOL     OW50482  13.482  14.776  14.421
82862SOL    HW150483  13.492  14.832  14.498
82862SOL    HW250484  13.562  14.724  14.418
82863SOL     OW50485   6.857   1.175   4.749
82863SOL    HW150486   6.777   1.164   4.801
82863SOL    HW250487   6.864   1.094   4.698
82864SOL     OW50488  10.161   5.605   1.271
82864SOL    HW150489  10.255   5.619   1.273
82864SOL    HW250490  10.149   5.514   1.297
82865SOL     OW50491  12.036  14.566   7.367
82865SOL    HW150492  12.058  14.477   7.395
82865SOL    HW250493  12.054  14.621   7.443
82866SOL     OW50494   5.279   2.544   8.866
82866SOL    HW150495   5.236   2.481   8.925
82866SOL    HW250496   5.346   2.585   8.921
82867SOL     OW50497   6.899   7.828   1.708
82867SOL    HW150498   6.873   7.752   1.760
82867SOL    HW250499   6.827   7.839   1.645
82868SOL     OW50500   3.695   9.678   9.166
82868SOL    HW150501   3.621   9.725   9.204
82868SOL    HW250502   3.697   9.594   9.212
82869SOL     OW50503   1.712  11.438  13.582
82869SOL    HW150504   1.744  11.419  13.670
82869SOL    HW250505   1.619  11.459  13.595
82870SOL     OW50506   4.590   0.039   2.579
82870SOL    HW150507   4.538  14.836   2.608
82870SOL    HW250508   4.612   0.019   2.488
82871SOL     OW50509   0.438  13.673   4.389
82871SOL    HW150510   0.445  13.679   4.294
82871SOL    HW250511   0.437  13.764   4.418
82872SOL     OW50512  13.128   0.170  10.648
82872SOL    HW150513  13.218   0.194  10.627
82872SOL    HW250514  13.136   0.098  10.710
82873SOL     OW50515   6.774  12.985   4.010
82873SOL    HW150516   6.829  13.056   4.043
82873SOL    HW250517   6.799  12.977   3.918
82874SOL     OW50518   9.692   8.679  12.612
82874SOL    HW150519   9.662   8.624  12.539
82874SOL    HW250520   9.701   8.766  12.574
82875SOL     OW50521   0.216   0.742   7.261
82875SOL    HW150522   0.229   0.653   7.293
82875SOL    HW250523   0.139   0.774   7.308
82876SOL     OW50524   6.821   8.068   1.824
82876SOL    HW150525   6.798   8.009   1.752
82876SOL    HW250526   6.737   8.088   1.867
82877SOL     OW50527   1.333   0.739  14.073
82877SOL    HW150528   1.253   0.686  14.069
82877SOL    HW250529   1.394   0.694  14.015
82878SOL     OW50530  12.534   7.750  10.849
82878SOL    HW150531  12.522   7.832  10.801
82878SOL    HW250532  12.628   7.747  10.869
82879SOL     OW50533  12.908   5.084   3.720
82879SOL    HW150534  12.977   5.129   3.769
82879SOL    HW250535  12.942   5.076   3.631
82880SOL     OW50536  11.192   1.761  13.781
82880SOL    HW150537  11.205   1.804  13.865
82880SOL    HW250538  11.269   1.786  13.729
82881SOL     OW50539  14.609  14.338   6.759
82881SOL    HW150540  14.602  14.433   6.760
82881SOL    HW250541  14.554  14.310   6.686
82882SOL     OW50542  13.535  12.157  13.510
82882SOL    HW150543  13.454  12.146  13.559
82882SOL    HW250544  13.548  12.072  13.467
82883SOL     OW50545   1.363   7.035  11.003
82883SOL    HW150546   1.452   7.067  10.990
82883SOL    HW250547   1.353   6.965  10.938
82884SOL     OW50548  10.861   0.630   6.062
82884SOL    HW150549  10.820   0.713   6.085
82884SOL    HW250550  10.917   0.651   5.988
82885SOL     OW50551  11.238   7.298   7.884
82885SOL    HW150552  11.216   7.328   7.795
82885SOL    HW250553  11.333   7.303   7.888
82886SOL     OW50554   9.015  12.592  12.256
82886SOL    HW150555   9.040  12.600  12.164
82886SOL    HW250556   9.094  12.616  12.305
82887SOL     OW50557  10.467   5.041   2.956
82887SOL    HW150558  10.373   5.032   2.946
82887SOL    HW250559  10.503   5.009   2.873
82888SOL     OW50560   2.444   9.300   4.137
82888SOL    HW150561   2.413   9.219   4.179
82888SOL    HW250562   2.381   9.367   4.165
82889SOL     OW50563  11.064   7.905   3.880
82889SOL    HW150564  11.032   7.934   3.966
82889SOL    HW250565  11.018   7.962   3.818
82890SOL     OW50566  13.389  14.793   8.268
82890SOL    HW150567  13.358  14.768   8.355
82890SOL    HW250568  13.450  14.723   8.243
82891SOL     OW50569  13.420   7.671   9.816
82891SOL    HW150570  13.513   7.655   9.803
82891SOL    HW250571  13.377   7.625   9.744
82892SOL     OW50572   7.020  13.549   4.011
82892SOL    HW150573   7.113  13.566   3.996
82892SOL    HW250574   7.018  13.463   4.055
82893SOL     OW50575  12.388   5.077  14.382
82893SOL    HW150576  12.387   5.149  14.446
82893SOL    HW250577  12.481   5.061  14.366
82894SOL     OW50578   5.851   9.843   9.017
82894SOL    HW150579   5.851   9.748   9.008
82894SOL    HW250580   5.916   9.861   9.085
82895SOL     OW50581   6.206   2.083  13.325
82895SOL    HW150582   6.114   2.078  13.300
82895SOL    HW250583   6.236   2.166  13.288
82896SOL     OW50584   3.982   2.844  14.278
82896SOL    HW150585   3.970   2.937  14.296
82896SOL    HW250586   3.971   2.802  14.363
82897SOL     OW50587   9.987  13.187  14.509
82897SOL    HW150588   9.914  13.232  14.465
82897SOL    HW250589  10.058  13.189  14.445
82898SOL     OW50590   7.753   9.166  12.512
82898SOL    HW150591   7.820   9.168  12.444
82898SOL    HW250592   7.685   9.227  12.481
82899SOL     OW50593   2.712   4.729   3.275
82899SOL    HW150594   2.716   4.691   3.187
82899SOL    HW250595   2.628   4.700   3.309
82900SOL     OW50596   7.138  13.359  10.208
82900SOL    HW150597   7.184  13.288  10.162
82900SOL    HW250598   7.208  13.417  10.238
82901SOL     OW50599   8.245   3.389  13.585
82901SOL    HW150600   8.273   3.444  13.658
82901SOL    HW250601   8.154   3.413  13.570
82902SOL     OW50602  13.090  12.996   3.263
82902SOL    HW150603  13.076  12.981   3.169
82902SOL    HW250604  13.182  12.974   3.277
82903SOL     OW50605   7.617  13.136   7.639
82903SOL    HW150606   7.614  13.063   7.701
82903SOL    HW250607   7.545  13.120   7.579
82904SOL     OW50608  14.521   9.906  14.763
82904SOL    HW150609  14.566   9.911  14.678
82904SOL    HW250610  14.443   9.854  14.746
82905SOL     OW50611   0.770  11.242   7.239
82905SOL    HW150612   0.681  11.242   7.204
82905SOL    HW250613   0.783  11.153   7.273
82906SOL     OW50614  10.542   9.982   4.723
82906SOL    HW150615  10.607  10.050   4.711
82906SOL    HW250616  10.556   9.922   4.650
82907SOL     OW50617  12.751  14.389  12.411
82907SOL    HW150618  12.720  14.415  12.498
82907SOL    HW250619  12.762  14.472  12.364
82908SOL     OW50620   6.459   7.614   8.221
82908SOL    HW150621   6.524   7.606   8.151
82908SOL    HW250622   6.506   7.656   8.293
82909SOL     OW50623  12.508   7.114   0.216
82909SOL    HW150624  12.461   7.150   0.291
82909SOL    HW250625  12.590   7.082   0.253
82910SOL     OW50626   8.684   4.027  14.445
82910SOL    HW150627   8.741   4.097  14.413
82910SOL    HW250628   8.738   3.948  14.442
82911SOL     OW50629   1.453   3.207  11.380
82911SOL    HW150630   1.476   3.121  11.416
82911SOL    HW250631   1.523   3.265  11.408
82912SOL     OW50632   5.768  10.523   1.653
82912SOL    HW150633   5.733  10.543   1.740
82912SOL    HW250634   5.810  10.604   1.625
82913SOL     OW50635   0.304   4.677   5.347
82913SOL    HW150636   0.359   4.675   5.269
82913SOL    HW250637   0.367   4.677   5.420
82914SOL     OW50638  14.833  12.345   2.960
82914SOL    HW150639   0.008  12.416   2.917
82914SOL    HW250640   0.028  12.277   2.973
82915SOL     OW50641   8.589   2.677   1.074
82915SOL    HW150642   8.531   2.613   1.116
82915SOL    HW250643   8.634   2.627   1.005
82916SOL     OW50644  13.761   6.748   3.268
82916SOL    HW150645  13.723   6.758   3.356
82916SOL    HW250646  13.734   6.827   3.221
82917SOL     OW50647  10.483  11.470  12.454
82917SOL    HW150648  10.525  11.444  12.536
82917SOL    HW250649  10.451  11.559  12.470
82918SOL     OW50650  12.515   7.950   8.298
82918SOL    HW150651  12.587   8.012   8.311
82918SOL    HW250652  12.439   7.991   8.340
82919SOL     OW50653  13.988  12.730   2.800
82919SOL    HW150654  14.005  12.740   2.707
82919SOL    HW250655  14.073  12.741   2.842
82920SOL     OW50656   7.665  14.444   6.958
82920SOL    HW150657   7.645  14.470   6.869
82920SOL    HW250658   7.669  14.348   6.954
82921SOL     OW50659  11.414   1.728  12.429
82921SOL    HW150660  11.384   1.737  12.339
82921SOL    HW250661  11.500   1.771  12.431
82922SOL     OW50662   4.719  11.770   2.433
82922SOL    HW150663   4.659  11.774   2.508
82922SOL    HW250664   4.705  11.683   2.395
82923SOL     OW50665   3.789  11.391   1.896
82923SOL    HW150666   3.851  11.385   1.824
82923SOL    HW250667   3.707  11.417   1.854
82924SOL     OW50668  14.015  12.534   6.435
82924SOL    HW150669  13.965  12.471   6.383
82924SOL    HW250670  14.087  12.483   6.472
82925SOL     OW50671   0.788   9.471   5.534
82925SOL    HW150672   0.710   9.442   5.582
82925SOL    HW250673   0.830   9.391   5.505
82926SOL     OW50674   9.517  11.942   6.068
82926SOL    HW150675   9.470  11.948   6.151
82926SOL    HW250676   9.449  11.954   6.001
82927SOL     OW50677  14.173   2.990   6.824
82927SOL    HW150678  14.170   3.027   6.912
82927SOL    HW250679  14.087   2.948   6.813
82928SOL     OW50680   6.373   3.105   5.870
82928SOL    HW150681   6.304   3.171   5.878
82928SOL    HW250682   6.328   3.030   5.829
82929SOL     OW50683  12.340   5.389   1.004
82929SOL    HW150684  12.346   5.357   1.094
82929SOL    HW250685  12.270   5.455   1.008
82930SOL     OW50686   7.036   0.705   8.406
82930SOL    HW150687   7.124   0.666   8.397
82930SOL    HW250688   7.040   0.753   8.489
82931SOL     OW50689   5.804  11.166   1.341
82931SOL    HW150690   5.791  11.088   1.394
82931SOL    HW250691   5.867  11.139   1.274
82932SOL     OW50692  12.351   4.896  10.251
82932SOL    HW150693  12.391   4.820  10.293
82932SOL    HW250694  12.308   4.859  10.173
82933SOL     OW50695   8.982   5.397   5.280
82933SOL    HW150696   9.071   5.427   5.296
82933SOL    HW250697   8.933   5.478   5.262
82934SOL     OW50698   6.758   1.156   7.264
82934SOL    HW150699   6.743   1.067   7.296
82934SOL    HW250700   6.681   1.175   7.209
82935SOL     OW50701   1.444   5.165  11.309
82935SOL    HW150702   1.374   5.220  11.345
82935SOL    HW250703   1.509   5.227  11.275
82936SOL     OW50704  13.364  13.072   9.147
82936SOL    HW150705  13.376  12.979   9.127
82936SOL    HW250706  13.271  13.079   9.172
82937SOL     OW50707   2.724   1.028   1.775
82937SOL    HW150708   2.801   0.971   1.770
82937SOL    HW250709   2.713   1.047   1.868
82938SOL     OW50710   8.519   0.888  12.425
82938SOL    HW150711   8.491   0.796  12.417
82938SOL    HW250712   8.558   0.893  12.512
82939SOL     OW50713   5.758  11.157  10.917
82939SOL    HW150714   5.847  11.123  10.925
82939SOL    HW250715   5.705  11.097  10.970
82940SOL     OW50716   9.018   2.437   9.416
82940SOL    HW150717   9.029   2.402   9.504
82940SOL    HW250718   9.107   2.452   9.384
82941SOL     OW50719   4.346   0.759   1.900
82941SOL    HW150720   4.259   0.757   1.860
82941SOL    HW250721   4.395   0.824   1.849
82942SOL     OW50722  10.743   4.001  10.834
82942SOL    HW150723  10.715   3.964  10.918
82942SOL    HW250724  10.705   4.089  10.833
82943SOL     OW50725   4.184  11.846   8.905
82943SOL    HW150726   4.143  11.763   8.927
82943SOL    HW250727   4.112  11.901   8.873
82944SOL     OW50728   3.533  10.966   2.663
82944SOL    HW150729   3.627  10.964   2.681
82944SOL    HW250730   3.492  10.947   2.748
82945SOL     OW50731   7.014  11.038  13.595
82945SOL    HW150732   7.087  11.015  13.653
82945SOL    HW250733   7.055  11.051  13.510
82946SOL     OW50734  10.584   6.884  12.748
82946SOL    HW150735  10.499   6.927  12.735
82946SOL    HW250736  10.592   6.875  12.843
82947SOL     OW50737   6.784   5.762   4.692
82947SOL    HW150738   6.777   5.677   4.648
82947SOL    HW250739   6.718   5.759   4.761
82948SOL     OW50740   3.168   9.628   7.381
82948SOL    HW150741   3.170   9.665   7.469
82948SOL    HW250742   3.148   9.702   7.324
82949SOL     OW50743   5.932   2.166   6.667
82949SOL    HW150744   5.848   2.131   6.697
82949SOL    HW250745   5.916   2.259   6.652
82950SOL     OW50746   2.676   9.560   8.037
82950SOL    HW150747   2.711   9.478   8.003
82950SOL    HW250748   2.706   9.627   7.975
82951SOL     OW50749   9.484  11.584   6.069
82951SOL    HW150750   9.411  11.638   6.099
82951SOL    HW250751   9.542  11.577   6.145
82952SOL     OW50752  14.825   4.325   7.441
82952SOL    HW150753  14.750   4.358   7.392
82952SOL    HW250754   0.028   4.372   7.404
82953SOL     OW50755  11.627  13.842   3.750
82953SOL    HW150756  11.698  13.907   3.752
82953SOL    HW250757  11.590  13.845   3.838
82954SOL     OW50758   7.249   5.501   3.373
82954SOL    HW150759   7.334   5.467   3.401
82954SOL    HW250760   7.186   5.452   3.426
82955SOL     OW50761   7.434   9.336   6.202
82955SOL    HW150762   7.342   9.357   6.220
82955SOL    HW250763   7.430   9.274   6.129
82956SOL     OW50764   6.336   2.759  10.007
82956SOL    HW150765   6.362   2.844   9.970
82956SOL    HW250766   6.249   2.775  10.043
82957SOL     OW50767  12.071   5.566   5.373
82957SOL    HW150768  11.989   5.575   5.326
82957SOL    HW250769  12.134   5.616   5.321
82958SOL     OW50770   8.331  14.004  12.430
82958SOL    HW150771   8.259  13.942  12.442
82958SOL    HW250772   8.329  14.057  12.510
82959SOL     OW50773  12.384  12.653  11.095
82959SOL    HW150774  12.337  12.573  11.073
82959SOL    HW250775  12.448  12.662  11.024
82960SOL     OW50776  14.035   8.462   1.956
82960SOL    HW150777  14.067   8.531   2.013
82960SOL    HW250778  14.032   8.501   1.868
82961SOL     OW50779   3.474   3.686   0.064
82961SOL    HW150780   3.544   3.748   0.085
82961SOL    HW250781   3.461   3.637   0.146
82962SOL     OW50782   5.792   1.740   6.900
82962SOL    HW150783   5.851   1.672   6.865
82962SOL    HW250784   5.851   1.802   6.944
82963SOL     OW50785   2.331   9.513   0.090
82963SOL    HW150786   2.325   9.470   0.005
82963SOL    HW250787   2.423   9.541   0.096
82964SOL     OW50788   5.253   1.851  10.559
82964SOL    HW150789   5.337   1.807  10.575
82964SOL    HW250790   5.266   1.896  10.475
82965SOL     OW50791  13.827   6.489  12.932
82965SOL    HW150792  13.745   6.445  12.954
82965SOL    HW250793  13.800   6.577  12.903
82966SOL     OW50794  12.060  14.557   9.782
82966SOL    HW150795  12.055  14.645   9.820
82966SOL    HW250796  12.125  14.512   9.835
82967SOL     OW50797   7.751   5.631  13.544
82967SOL    HW150798   7.682   5.688  13.578
82967SOL    HW250799   7.825   5.644  13.604
82968SOL     OW50800  12.168  12.210   3.118
82968SOL    HW150801  12.209  12.292   3.090
82968SOL    HW250802  12.127  12.232   3.202
82969SOL     OW50803  11.494   8.641   9.065
82969SOL    HW150804  11.430   8.667   9.132
82969SOL    HW250805  11.448   8.576   9.012
82970SOL     OW50806  11.747  10.893   9.657
82970SOL    HW150807  11.690  10.849   9.719
82970SOL    HW250808  11.695  10.965   9.623
82971SOL     OW50809   4.643   5.971   0.437
82971SOL    HW150810   4.632   5.991   0.530
82971SOL    HW250811   4.652   6.057   0.395
82972SOL     OW50812   9.887   2.670   9.004
82972SOL    HW150813   9.911   2.729   9.076
82972SOL    HW250814   9.921   2.584   9.031
82973SOL     OW50815  11.390   1.013   7.999
82973SOL    HW150816  11.360   1.048   7.915
82973SOL    HW250817  11.434   0.931   7.977
82974SOL     OW50818   0.983   8.376   2.407
82974SOL    HW150819   1.047   8.439   2.373
82974SOL    HW250820   0.967   8.404   2.497
82975SOL     OW50821   7.996  13.433   7.682
82975SOL    HW150822   7.905  13.421   7.709
82975SOL    HW250823   8.044  13.444   7.764
82976SOL     OW50824  12.549   4.394   2.226
82976SOL    HW150825  12.640   4.387   2.198
82976SOL    HW250826  12.548   4.356   2.314
82977SOL     OW50827  12.306   7.031   4.791
82977SOL    HW150828  12.400   7.048   4.783
82977SOL    HW250829  12.266   7.118   4.789
82978SOL     OW50830  11.731   8.366   9.143
82978SOL    HW150831  11.689   8.391   9.225
82978SOL    HW250832  11.674   8.403   9.075
82979SOL     OW50833   4.618   2.600  14.316
82979SOL    HW150834   4.673   2.547  14.374
82979SOL    HW250835   4.535   2.608  14.362
82980SOL     OW50836   0.666  13.911   4.265
82980SOL    HW150837   0.581  13.900   4.309
82980SOL    HW250838   0.697  13.996   4.294
82981SOL     OW50839   4.110   5.482   7.634
82981SOL    HW150840   4.169   5.533   7.579
82981SOL    HW250841   4.099   5.399   7.588
82982SOL     OW50842   9.813   5.990   1.929
82982SOL    HW150843   9.848   5.908   1.894
82982SOL    HW250844   9.886   6.051   1.926
82983SOL     OW50845   0.575   0.192   8.296
82983SOL    HW150846   0.658   0.175   8.340
82983SOL    HW250847   0.514   0.212   8.367
82984SOL     OW50848   7.525   1.433  12.922
82984SOL    HW150849   7.451   1.386  12.884
82984SOL    HW250850   7.534   1.397  13.010
82985SOL     OW50851   4.820   8.114  13.749
82985SOL    HW150852   4.748   8.176  13.738
82985SOL    HW250853   4.820   8.094  13.843
82986SOL     OW50854   7.958   0.385   7.476
82986SOL    HW150855   7.956   0.370   7.381
82986SOL    HW250856   7.910   0.311   7.512
82987SOL     OW50857   5.741   0.967   3.663
82987SOL    HW150858   5.650   0.943   3.651
82987SOL    HW250859   5.746   1.058   3.635
82988SOL     OW50860   8.958   8.064   8.607
82988SOL    HW150861   8.935   8.008   8.533
82988SOL    HW250862   8.897   8.138   8.601
82989SOL     OW50863   1.910   3.884  10.573
82989SOL    HW150864   1.966   3.939  10.628
82989SOL    HW250865   1.860   3.946  10.521
82990SOL     OW50866  11.175   4.372   5.500
82990SOL    HW150867  11.123   4.372   5.580
82990SOL    HW250868  11.240   4.441   5.513
82991SOL     OW50869   1.196  14.446   8.228
82991SOL    HW150870   1.230  14.362   8.197
82991SOL    HW250871   1.271  14.505   8.226
82992SOL     OW50872  10.077   6.250   3.595
82992SOL    HW150873  10.158   6.220   3.634
82992SOL    HW250874  10.075   6.345   3.610
82993SOL     OW50875   0.832   3.824   5.835
82993SOL    HW150876   0.824   3.834   5.930
82993SOL    HW250877   0.849   3.731   5.821
82994SOL     OW50878   2.908   2.991  12.488
82994SOL    HW150879   2.921   2.927  12.418
82994SOL    HW250880   2.945   3.072  12.453
82995SOL     OW50881   8.418   6.661   6.675
82995SOL    HW150882   8.422   6.636   6.583
82995SOL    HW250883   8.374   6.746   6.674
82996SOL     OW50884  10.754   1.700   3.217
82996SOL    HW150885  10.788   1.710   3.128
82996SOL    HW250886  10.803   1.626   3.253
82997SOL     OW50887  10.878   8.529  10.256
82997SOL    HW150888  10.827   8.597  10.213
82997SOL    HW250889  10.843   8.447  10.221
82998SOL     OW50890  10.151  14.437   6.679
82998SOL    HW150891  10.087  14.367   6.692
82998SOL    HW250892  10.188  14.451   6.766
82999SOL     OW50893   4.398   9.683  14.666
82999SOL    HW150894   4.467   9.708  14.606
82999SOL    HW250895   4.318   9.688  14.614
83000SOL     OW50896   6.164   9.846  12.275
83000SOL    HW150897   6.161   9.911  12.204
83000SOL    HW250898   6.218   9.775  12.240
83001SOL     OW50899  14.227  14.279  13.045
83001SOL    HW150900  14.164  14.346  13.073
83001SOL    HW250901  14.232  14.290  12.950
83002SOL     OW50902   5.404   9.443  13.499
83002SOL    HW150903   5.421   9.504  13.427
83002SOL    HW250904   5.340   9.381  13.463
83003SOL     OW50905   3.248   2.401   5.960
83003SOL    HW150906   3.229   2.392   5.867
83003SOL    HW250907   3.168   2.372   6.004
83004SOL     OW50908   1.938   0.375   0.248
83004SOL    HW150909   1.927   0.290   0.292
83004SOL    HW250910   1.948   0.438   0.320
83005SOL     OW50911   5.717  13.970   9.339
83005SOL    HW150912   5.713  13.971   9.435
83005SOL    HW250913   5.628  13.989   9.311
83006SOL     OW50914   5.903  11.949  10.618
83006SOL    HW150915   5.912  11.901  10.535
83006SOL    HW250916   5.928  11.885  10.685
83007SOL     OW50917   3.382  13.876  13.247
83007SOL    HW150918   3.293  13.887  13.280
83007SOL    HW250919   3.371  13.841  13.159
83008SOL     OW50920   1.371   7.799   4.618
83008SOL    HW150921   1.375   7.859   4.543
83008SOL    HW250922   1.322   7.724   4.585
83009SOL     OW50923  12.057   6.882  14.290
83009SOL    HW150924  11.994   6.934  14.239
83009SOL    HW250925  12.090   6.943  14.356
83010SOL     OW50926   4.625   6.267   2.115
83010SOL    HW150927   4.679   6.203   2.161
83010SOL    HW250928   4.676   6.348   2.118
83011SOL     OW50929   4.911  14.712  10.635
83011SOL    HW150930   4.899  14.751  10.721
83011SOL    HW250931   4.897  14.618  10.649
83012SOL     OW50932  12.612  12.019   4.369
83012SOL    HW150933  12.546  11.953   4.390
83012SOL    HW250934  12.687  11.969   4.335
83013SOL     OW50935  14.419  10.871  13.465
83013SOL    HW150936  14.329  10.903  13.471
83013SOL    HW250937  14.426  10.806  13.536
83014SOL     OW50938   5.596   4.269   5.708
83014SOL    HW150939   5.591   4.183   5.748
83014SOL    HW250940   5.649   4.321   5.769
83015SOL     OW50941  13.947   4.508   6.888
83015SOL    HW150942  13.877   4.568   6.865
83015SOL    HW250943  13.977   4.472   6.805
83016SOL     OW50944   8.297   4.929   7.294
83016SOL    HW150945   8.312   4.939   7.200
83016SOL    HW250946   8.313   5.016   7.331
83017SOL     OW50947   6.690   2.698   5.314
83017SOL    HW150948   6.613   2.752   5.298
83017SOL    HW250949   6.720   2.671   5.227
83018SOL     OW50950  11.925   1.774  13.371
83018SOL    HW150951  11.918   1.849  13.312
83018SOL    HW250952  11.984   1.802  13.440
83019SOL     OW50953   5.036   1.158   4.485
83019SOL    HW150954   4.972   1.166   4.414
83019SOL    HW250955   5.063   1.248   4.504
83020SOL     OW50956   5.699   7.218   2.463
83020SOL    HW150957   5.614   7.229   2.505
83020SOL    HW250958   5.738   7.141   2.505
83021SOL     OW50959   0.421   2.214   4.035
83021SOL    HW150960   0.376   2.130   4.027
83021SOL    HW250961   0.430   2.246   3.946
83022SOL     OW50962   0.615   7.134   1.088
83022SOL    HW150963   0.538   7.082   1.064
83022SOL    HW250964   0.607   7.145   1.183
83023SOL     OW50965  12.055   4.138   9.473
83023SOL    HW150966  12.041   4.231   9.456
83023SOL    HW250967  12.003   4.093   9.406
83024SOL     OW50968   5.602   0.859  13.327
83024SOL    HW150969   5.570   0.831  13.413
83024SOL    HW250970   5.691   0.889  13.343
83025SOL     OW50971   0.193   2.836  12.350
83025SOL    HW150972   0.115   2.781  12.348
83025SOL    HW250973   0.193   2.881  12.266
83026SOL     OW50974   1.507   3.903   8.705
83026SOL    HW150975   1.515   3.995   8.727
83026SOL    HW250976   1.501   3.858   8.789
83027SOL     OW50977   2.174   4.912   5.897
83027SOL    HW150978   2.146   4.915   5.805
83027SOL    HW250979   2.094   4.895   5.946
83028SOL     OW50980   0.528   9.409   5.646
83028SOL    HW150981   0.454   9.384   5.702
83028SOL    HW250982   0.530   9.341   5.579
83029SOL     OW50983  11.765  12.141  14.822
83029SOL    HW150984  11.858  12.148  14.847
83029SOL    HW250985  11.720  12.121   0.032
83030SOL     OW50986   1.291  12.694  14.413
83030SOL    HW150987   1.267  12.718  14.503
83030SOL    HW250988   1.266  12.602  14.406
83031SOL     OW50989   3.366   9.172   6.146
83031SOL    HW150990   3.451   9.133   6.168
83031SOL    HW250991   3.332   9.204   6.230
83032SOL     OW50992   1.933   1.532  12.651
83032SOL    HW150993   1.954   1.618  12.689
83032SOL    HW250994   1.880   1.489  12.719
83033SOL     OW50995   2.002   9.488  14.295
83033SOL    HW150996   1.946   9.546  14.347
83033SOL    HW250997   1.958   9.480  14.211
83034SOL     OW50998   8.796   1.514   7.602
83034SOL    HW150999   8.868   1.526   7.539
83034SOL    HW251000   8.760   1.428   7.581
83035SOL     OW51001  13.881   5.665   3.464
83035SOL    HW151002  13.796   5.686   3.502
83035SOL    HW251003  13.942   5.669   3.538
83036SOL     OW51004   3.719  13.295  14.493
83036SOL    HW151005   3.674  13.365  14.539
83036SOL    HW251006   3.812  13.306  14.516
83037SOL     OW51007   8.771   3.765   7.459
83037SOL    HW151008   8.818   3.681   7.453
83037SOL    HW251009   8.679   3.741   7.453
83038SOL     OW51010   8.623   7.191   1.731
83038SOL    HW151011   8.640   7.267   1.787
83038SOL    HW251012   8.528   7.192   1.719
83039SOL     OW51013   0.536   1.505  11.076
83039SOL    HW151014   0.454   1.535  11.117
83039SOL    HW251015   0.536   1.547  10.990
83040SOL     OW51016   9.704   6.985   5.195
83040SOL    HW151017   9.780   7.034   5.227
83040SOL    HW251018   9.736   6.896   5.182
83041SOL     OW51019  11.072   3.134  11.857
83041SOL    HW151020  10.987   3.093  11.839
83041SOL    HW251021  11.083   3.198  11.786
83042SOL     OW51022   2.242  13.496   6.579
83042SOL    HW151023   2.160  13.455   6.607
83042SOL    HW251024   2.224  13.530   6.491
83043SOL     OW51025   5.102   1.350  11.806
83043SOL    HW151026   5.094   1.271  11.751
83043SOL    HW251027   5.186   1.388  11.780
83044SOL     OW51028  12.624   6.168   5.462
83044SOL    HW151029  12.584   6.146   5.546
83044SOL    HW251030  12.714   6.194   5.485
83045SOL     OW51031   8.742   5.381   9.529
83045SOL    HW151032   8.712   5.469   9.552
83045SOL    HW251033   8.699   5.324   9.593
83046SOL     OW51034  14.134  10.899  11.503
83046SOL    HW151035  14.196  10.912  11.431
83046SOL    HW251036  14.146  10.808  11.530
83047SOL     OW51037   3.452   4.360   3.372
83047SOL    HW151038   3.524   4.298   3.381
83047SOL    HW251039   3.464   4.421   3.446
83048SOL     OW51040   8.982  13.718   7.864
83048SOL    HW151041   8.910  13.775   7.838
83048SOL    HW251042   9.020  13.687   7.782
83049SOL     OW51043  10.390   2.119  10.481
83049SOL    HW151044  10.447   2.192  10.457
83049SOL    HW251045  10.402   2.110  10.576
83050SOL     OW51046   4.268   4.636   0.207
83050SOL    HW151047   4.192   4.611   0.260
83050SOL    HW251048   4.297   4.553   0.168
83051SOL     OW51049  13.117   4.767  11.169
83051SOL    HW151050  13.082   4.733  11.086
83051SOL    HW251051  13.158   4.850  11.145
83052SOL     OW51052   8.877   5.776   4.723
83052SOL    HW151053   8.849   5.733   4.804
83052SOL    HW251054   8.903   5.864   4.751
83053SOL     OW51055  13.214   9.600   2.608
83053SOL    HW151056  13.119   9.616   2.604
83053SOL    HW251057  13.250   9.683   2.641
83054SOL     OW51058  14.364  13.241  12.770
83054SOL    HW151059  14.320  13.283  12.696
83054SOL    HW251060  14.302  13.175  12.801
83055SOL     OW51061  11.036  12.272   9.535
83055SOL    HW151062  11.129  12.277   9.512
83055SOL    HW251063  11.004  12.197   9.484
83056SOL     OW51064   5.617   5.051   7.945
83056SOL    HW151065   5.682   5.031   8.012
83056SOL    HW251066   5.540   5.082   7.993
83057SOL     OW51067   2.596   4.075   3.028
83057SOL    HW151068   2.683   4.048   2.997
83057SOL    HW251069   2.608   4.094   3.121
83058SOL     OW51070   7.175  14.509   1.788
83058SOL    HW151071   7.108  14.536   1.725
83058SOL    HW251072   7.164  14.568   1.862
83059SOL     OW51073  12.602  10.551   1.241
83059SOL    HW151074  12.568  10.630   1.199
83059SOL    HW251075  12.671  10.520   1.182
83060SOL     OW51076   1.983  12.827  14.412
83060SOL    HW151077   1.964  12.734  14.412
83060SOL    HW251078   2.063  12.835  14.359
83061SOL     OW51079   9.317  11.203   2.750
83061SOL    HW151080   9.240  11.147   2.755
83061SOL    HW251081   9.334  11.212   2.656
83062SOL     OW51082   6.111   5.466  11.198
83062SOL    HW151083   6.190   5.431  11.156
83062SOL    HW251084   6.126   5.560  11.204
83063SOL     OW51085   1.661   7.560   3.187
83063SOL    HW151086   1.626   7.550   3.099
83063SOL    HW251087   1.693   7.473   3.211
83064SOL     OW51088  10.658   9.539   7.445
83064SOL    HW151089  10.565   9.532   7.424
83064SOL    HW251090  10.669   9.486   7.524
83065SOL     OW51091  11.354   0.784  11.581
83065SOL    HW151092  11.384   0.852  11.520
83065SOL    HW251093  11.310   0.832  11.651
83066SOL     OW51094   6.130   0.535  12.450
83066SOL    HW151095   6.222   0.549  12.471
83066SOL    HW251096   6.125   0.544  12.355
83067SOL     OW51097  11.964   6.410   5.863
83067SOL    HW151098  12.023   6.335   5.876
83067SOL    HW251099  11.878   6.371   5.849
83068SOL     OW51100   9.495  10.123  11.806
83068SOL    HW151101   9.416  10.070  11.820
83068SOL    HW251102   9.462  10.213  11.801
83069SOL     OW51103   8.014   8.004  10.536
83069SOL    HW151104   8.078   8.075  10.539
83069SOL    HW251105   7.934   8.042  10.572
83070SOL     OW51106  14.847  12.321   5.989
83070SOL    HW151107   0.055  12.294   5.943
83070SOL    HW251108  14.864  12.412   6.015
83071SOL     OW51109   1.223   2.950  13.902
83071SOL    HW151110   1.212   2.855  13.909
83071SOL    HW251111   1.198   2.970  13.812
83072SOL     OW51112   5.647   5.300   6.746
83072SOL    HW151113   5.591   5.222   6.745
83072SOL    HW251114   5.720   5.277   6.688
83073SOL     OW51115   8.048  12.100   7.209
83073SOL    HW151116   8.076  12.180   7.253
83073SOL    HW251117   7.991  12.130   7.138
83074SOL     OW51118   3.306   4.549   3.019
83074SOL    HW151119   3.385   4.504   3.050
83074SOL    HW251120   3.318   4.640   3.048
83075SOL     OW51121   0.621   3.209  11.438
83075SOL    HW151122   0.620   3.289  11.491
83075SOL    HW251123   0.672   3.147  11.489
83076SOL     OW51124   7.326   2.087   6.366
83076SOL    HW151125   7.299   2.081   6.457
83076SOL    HW251126   7.407   2.137   6.367
83077SOL     OW51127   6.590  12.514  12.942
83077SOL    HW151128   6.658  12.548  12.885
83077SOL    HW251129   6.535  12.591  12.961
83078SOL     OW51130   5.404   9.040   1.015
83078SOL    HW151131   5.458   9.093   0.957
83078SOL    HW251132   5.439   8.951   1.006
83079SOL     OW51133   5.416  13.074  11.361
83079SOL    HW151134   5.362  13.014  11.310
83079SOL    HW251135   5.354  13.126  11.411
83080SOL     OW51136   4.499  13.670   2.469
83080SOL    HW151137   4.584  13.642   2.433
83080SOL    HW251138   4.519  13.698   2.558
83081SOL     OW51139   5.667   0.768  12.243
83081SOL    HW151140   5.669   0.800  12.333
83081SOL    HW251141   5.723   0.828  12.194
83082SOL     OW51142   5.884   0.627   0.750
83082SOL    HW151143   5.792   0.600   0.747
83082SOL    HW251144   5.933   0.545   0.741
83083SOL     OW51145   7.156   4.759  10.422
83083SOL    HW151146   7.112   4.750  10.338
83083SOL    HW251147   7.229   4.697  10.418
83084SOL     OW51148  12.728  13.916   8.311
83084SOL    HW151149  12.743  13.896   8.218
83084SOL    HW251150  12.642  13.878   8.329
83085SOL     OW51151   9.324   2.799   3.404
83085SOL    HW151152   9.334   2.782   3.310
83085SOL    HW251153   9.299   2.891   3.409
83086SOL     OW51154   5.672   0.579  12.835
83086SOL    HW151155   5.732   0.544  12.769
83086SOL    HW251156   5.587   0.542  12.813
83087SOL     OW51157   1.990   5.499   9.780
83087SOL    HW151158   1.946   5.424   9.741
83087SOL    HW251159   2.079   5.497   9.743
83088SOL     OW51160   5.643  12.148   0.784
83088SOL    HW151161   5.674  12.231   0.746
83088SOL    HW251162   5.657  12.083   0.715
83089SOL     OW51163   2.958   7.820  10.429
83089SOL    HW151164   2.998   7.802  10.343
83089SOL    HW251165   3.021   7.784  10.492
83090SOL     OW51166   1.391   1.165   5.451
83090SOL    HW151167   1.438   1.134   5.374
83090SOL    HW251168   1.356   1.250   5.425
83091SOL     OW51169   5.088  12.050  10.129
83091SOL    HW151170   5.157  12.116  10.130
83091SOL    HW251171   5.134  11.966  10.134
83092SOL     OW51172  10.587  13.396   6.364
83092SOL    HW151173  10.584  13.445   6.282
83092SOL    HW251174  10.679  13.397   6.389
83093SOL     OW51175   6.302   3.492  10.864
83093SOL    HW151176   6.266   3.523  10.781
83093SOL    HW251177   6.385   3.450  10.839
83094SOL     OW51178  11.990   9.005   1.751
83094SOL    HW151179  12.061   9.039   1.698
83094SOL    HW251180  12.024   8.925   1.791
83095SOL     OW51181   4.762   8.375   5.805
83095SOL    HW151182   4.752   8.312   5.734
83095SOL    HW251183   4.848   8.355   5.842
83096SOL     OW51184  12.806   3.413   2.915
83096SOL    HW151185  12.796   3.489   2.858
83096SOL    HW251186  12.821   3.340   2.855
83097SOL     OW51187  11.115   1.968   6.942
83097SOL    HW151188  11.148   2.011   6.864
83097SOL    HW251189  11.053   2.030   6.980
83098SOL     OW51190   9.758  13.191  13.176
83098SOL    HW151191   9.831  13.241  13.139
83098SOL    HW251192   9.681  13.225  13.132
83099SOL     OW51193   3.143   5.130  10.280
83099SOL    HW151194   3.090   5.083  10.344
83099SOL    HW251195   3.112   5.221  10.285
83100SOL     OW51196   2.801   0.689   2.047
83100SOL    HW151197   2.884   0.655   2.079
83100SOL    HW251198   2.745   0.694   2.125
83101SOL     OW51199  10.848  10.324   6.599
83101SOL    HW151200  10.902  10.403   6.597
83101SOL    HW251201  10.762  10.354   6.628
83102SOL     OW51202   4.255   9.311  13.615
83102SOL    HW151203   4.332   9.278  13.661
83102SOL    HW251204   4.205   9.357  13.683
83103SOL     OW51205  13.399   2.837   3.458
83103SOL    HW151206  13.475   2.894   3.458
83103SOL    HW251207  13.425   2.762   3.512
83104SOL     OW51208   1.867   9.253   4.675
83104SOL    HW151209   1.932   9.288   4.614
83104SOL    HW251210   1.786   9.300   4.654
83105SOL     OW51211   3.474   1.028   8.959
83105SOL    HW151212   3.394   1.061   8.917
83105SOL    HW251213   3.541   1.032   8.891
83106SOL     OW51214  10.600   0.876   1.728
83106SOL    HW151215  10.546   0.845   1.655
83106SOL    HW251216  10.542   0.935   1.776
83107SOL     OW51217   2.425   9.848   6.674
83107SOL    HW151218   2.332   9.870   6.680
83107SOL    HW251219   2.438   9.779   6.739
83108SOL     OW51220   4.267   3.714   5.130
83108SOL    HW151221   4.219   3.757   5.201
83108SOL    HW251222   4.216   3.635   5.110
83109SOL     OW51223  13.379   9.418  14.243
83109SOL    HW151224  13.299   9.371  14.266
83109SOL    HW251225  13.349   9.494  14.194
83110SOL     OW51226  13.647   1.764   7.216
83110SOL    HW151227  13.707   1.689   7.212
83110SOL    HW251228  13.619   1.777   7.125
83111SOL     OW51229   1.270  11.197   8.193
83111SOL    HW151230   1.284  11.148   8.112
83111SOL    HW251231   1.317  11.280   8.179
83112SOL     OW51232  13.372   3.045   6.316
83112SOL    HW151233  13.390   3.139   6.316
83112SOL    HW251234  13.455   3.005   6.344
83113SOL     OW51235   3.187   1.683   6.359
83113SOL    HW151236   3.248   1.609   6.359
83113SOL    HW251237   3.217   1.738   6.430
83114SOL     OW51238  13.510   9.589   9.799
83114SOL    HW151239  13.522   9.582   9.704
83114SOL    HW251240  13.548   9.508   9.834
83115SOL     OW51241   5.922   2.037   3.820
83115SOL    HW151242   5.862   2.055   3.893
83115SOL    HW251243   5.995   2.097   3.835
83116SOL     OW51244   5.100   1.938  13.576
83116SOL    HW151245   5.124   1.906  13.489
83116SOL    HW251246   5.065   1.861  13.621
83117SOL     OW51247   4.850   4.012   0.417
83117SOL    HW151248   4.846   4.010   0.321
83117SOL    HW251249   4.943   4.018   0.437
83118SOL     OW51250  13.710   0.619   7.928
83118SOL    HW151251  13.699   0.528   7.900
83118SOL    HW251252  13.764   0.658   7.859
83119SOL     OW51253  13.871   3.601   4.296
83119SOL    HW151254  13.912   3.584   4.381
83119SOL    HW251255  13.938   3.574   4.232
83120SOL     OW51256   5.273  10.526  11.800
83120SOL    HW151257   5.314  10.445  11.831
83120SOL    HW251258   5.249  10.508  11.710
83121SOL     OW51259   8.363   8.164   4.711
83121SOL    HW151260   8.452   8.169   4.744
83121SOL    HW251261   8.355   8.077   4.673
83122SOL     OW51262   1.577   2.841  11.901
83122SOL    HW151263   1.661   2.885  11.890
83122SOL    HW251264   1.599   2.755  11.937
83123SOL     OW51265   3.851  12.143   9.383
83123SOL    HW151266   3.895  12.170   9.302
83123SOL    HW251267   3.765  12.185   9.379
83124SOL     OW51268   8.459  10.137   3.405
83124SOL    HW151269   8.442  10.129   3.499
83124SOL    HW251270   8.464  10.047   3.373
83125SOL     OW51271   0.634   6.791   1.384
83125SOL    HW151272   0.547   6.752   1.380
83125SOL    HW251273   0.643   6.838   1.301
83126SOL     OW51274  11.043   7.380   9.693
83126SOL    HW151275  11.077   7.461   9.654
83126SOL    HW251276  10.992   7.339   9.623
83127SOL     OW51277   4.240   0.181  10.500
83127SOL    HW151278   4.225   0.177  10.406
83127SOL    HW251279   4.198   0.262  10.528
83128SOL     OW51280  10.211  10.881   5.278
83128SOL    HW151281  10.259  10.925   5.208
83128SOL    HW251282  10.134  10.843   5.235
83129SOL     OW51283   9.497  11.933   8.782
83129SOL    HW151284   9.548  11.914   8.703
83129SOL    HW251285   9.444  12.009   8.758
83130SOL     OW51286   5.280  10.551  12.717
83130SOL    HW151287   5.296  10.601  12.637
83130SOL    HW251288   5.230  10.474  12.688
83131SOL     OW51289  12.709  13.362   8.755
83131SOL    HW151290  12.719  13.406   8.839
83131SOL    HW251291  12.799  13.347   8.725
83132SOL     OW51292   3.608  13.595   4.911
83132SOL    HW151293   3.659  13.522   4.876
83132SOL    HW251294   3.658  13.673   4.885
83133SOL     OW51295  10.083   4.602  10.662
83133SOL    HW151296  10.080   4.681  10.717
83133SOL    HW251297  10.022   4.542  10.705
83134SOL     OW51298   4.981   2.593   2.619
83134SOL    HW151299   4.954   2.613   2.529
83134SOL    HW251300   4.907   2.623   2.673
83135SOL     OW51301   3.421   0.392  14.559
83135SOL    HW151302   3.342   0.340  14.576
83135SOL    HW251303   3.443   0.430  14.644
83136SOL     OW51304   9.097   1.979   2.324
83136SOL    HW151305   9.110   1.952   2.414
83136SOL    HW251306   9.163   1.930   2.274
83137SOL     OW51307   6.741   3.026   2.090
83137SOL    HW151308   6.719   3.053   2.001
83137SOL    HW251309   6.699   3.092   2.146
83138SOL     OW51310   4.132  13.505   1.839
83138SOL    HW151311   4.137  13.485   1.933
83138SOL    HW251312   4.212  13.467   1.802
83139SOL     OW51313   5.090   0.440   7.117
83139SOL    HW151314   5.161   0.409   7.062
83139SOL    HW251315   5.115   0.415   7.206
83140SOL     OW51316   5.485   9.352   8.058
83140SOL    HW151317   5.493   9.296   8.135
83140SOL    HW251318   5.520   9.437   8.087
83141SOL     OW51319  12.459   9.798   6.222
83141SOL    HW151320  12.529   9.761   6.168
83141SOL    HW251321  12.450   9.738   6.295
83142SOL     OW51322   3.924   1.980  11.785
83142SOL    HW151323   3.916   1.977  11.881
83142SOL    HW251324   3.909   2.072  11.762
83143SOL     OW51325   9.690   1.945  12.256
83143SOL    HW151326   9.747   2.021  12.258
83143SOL    HW251327   9.648   1.943  12.342
83144SOL     OW51328   2.117  14.058   2.934
83144SOL    HW151329   2.164  14.127   2.888
83144SOL    HW251330   2.142  13.977   2.890
83145SOL     OW51331   1.574   3.064  13.072
83145SOL    HW151332   1.604   3.135  13.015
83145SOL    HW251333   1.516   3.106  13.134
83146SOL     OW51334   9.357   8.632   3.273
83146SOL    HW151335   9.316   8.696   3.215
83146SOL    HW251336   9.448   8.661   3.281
83147SOL     OW51337   9.542   7.658  11.556
83147SOL    HW151338   9.551   7.584  11.617
83147SOL    HW251339   9.495   7.621  11.481
83148SOL     OW51340  14.816   9.375   8.085
83148SOL    HW151341   0.005   9.336   8.021
83148SOL    HW251342  14.752   9.422   8.032
83149SOL     OW51343  10.226   7.039   9.489
83149SOL    HW151344  10.158   7.106   9.502
83149SOL    HW251345  10.249   7.011   9.577
83150SOL     OW51346  10.646   9.521   3.118
83150SOL    HW151347  10.643   9.559   3.030
83150SOL    HW251348  10.559   9.536   3.154
83151SOL     OW51349   7.717   7.986   9.579
83151SOL    HW151350   7.747   8.055   9.520
83151SOL    HW251351   7.667   8.033   9.646
83152SOL     OW51352  10.523  10.542   6.920
83152SOL    HW151353  10.470  10.618   6.895
83152SOL    HW251354  10.545  10.558   7.012
83153SOL     OW51355  11.941   4.511  10.753
83153SOL    HW151356  11.936   4.587  10.696
83153SOL    HW251357  12.025   4.471  10.732
83154SOL     OW51358   4.669   2.113   4.655
83154SOL    HW151359   4.676   2.194   4.603
83154SOL    HW251360   4.584   2.121   4.699
83155SOL     OW51361   8.957   7.420   8.691
83155SOL    HW151362   8.920   7.334   8.709
83155SOL    HW251363   8.934   7.472   8.768
83156SOL     OW51364   9.033   8.503   3.640
83156SOL    HW151365   9.077   8.524   3.722
83156SOL    HW251366   9.066   8.416   3.617
83157SOL     OW51367   1.855   2.553   7.297
83157SOL    HW151368   1.851   2.521   7.207
83157SOL    HW251369   1.860   2.649   7.288
83158SOL     OW51370   1.423   3.021   9.077
83158SOL    HW151371   1.494   3.039   9.138
83158SOL    HW251372   1.345   3.056   9.120
83159SOL     OW51373  12.905   4.201   1.588
83159SOL    HW151374  12.872   4.231   1.672
83159SOL    HW251375  12.996   4.230   1.585
83160SOL     OW51376   1.973  11.793  14.420
83160SOL    HW151377   2.019  11.851  14.359
83160SOL    HW251378   1.892  11.769  14.375
83161SOL     OW51379   2.402   8.186   2.495
83161SOL    HW151380   2.420   8.182   2.589
83161SOL    HW251381   2.392   8.279   2.476
83162SOL     OW51382   2.009  12.846  10.600
83162SOL    HW151383   1.931  12.872  10.551
83162SOL    HW251384   1.975  12.805  10.679
83163SOL     OW51385   0.614  14.291  14.058
83163SOL    HW151386   0.605  14.317  13.967
83163SOL    HW251387   0.709  14.286  14.072
83164SOL     OW51388   7.081  14.339  10.720
83164SOL    HW151389   7.123  14.353  10.805
83164SOL    HW251390   6.988  14.357  10.737
83165SOL     OW51391   4.581   6.252   3.396
83165SOL    HW151392   4.569   6.200   3.476
83165SOL    HW251393   4.506   6.229   3.341
83166SOL     OW51394   2.514   0.143   3.590
83166SOL    HW151395   2.492   0.158   3.682
83166SOL    HW251396   2.448   0.082   3.559
83167SOL     OW51397  14.713   9.745  10.694
83167SOL    HW151398  14.767   9.824  10.688
83167SOL    HW251399  14.625   9.775  10.674
83168SOL     OW51400   8.173  12.909   6.068
83168SOL    HW151401   8.168  12.875   6.157
83168SOL    HW251402   8.145  13.000   6.074
83169SOL     OW51403   8.847   9.641  10.482
83169SOL    HW151404   8.891   9.612  10.562
83169SOL    HW251405   8.803   9.563  10.449
83170SOL     OW51406   5.762   6.639   6.774
83170SOL    HW151407   5.738   6.703   6.707
83170SOL    HW251408   5.856   6.652   6.786
83171SOL     OW51409   7.521  14.345   2.991
83171SOL    HW151410   7.583  14.398   2.942
83171SOL    HW251411   7.506  14.268   2.937
83172SOL     OW51412   5.724  14.191   2.148
83172SOL    HW151413   5.716  14.286   2.154
83172SOL    HW251414   5.634  14.159   2.142
83173SOL     OW51415  13.905  10.964  11.397
83173SOL    HW151416  13.851  10.884  11.393
83173SOL    HW251417  13.978  10.941  11.453
83174SOL     OW51418   8.123   4.899   3.303
83174SOL    HW151419   8.164   4.827   3.255
83174SOL    HW251420   8.171   4.977   3.275
83175SOL     OW51421  10.842   1.671   4.338
83175SOL    HW151422  10.793   1.716   4.407
83175SOL    HW251423  10.785   1.600   4.310
83176SOL     OW51424   3.391   5.154  14.826
83176SOL    HW151425   3.296   5.152  14.813
83176SOL    HW251426   3.427   5.176  14.740
83177SOL     OW51427   2.123   3.748   5.754
83177SOL    HW151428   2.066   3.673   5.739
83177SOL    HW251429   2.063   3.823   5.757
83178SOL     OW51430  14.527   9.607   3.814
83178SOL    HW151431  14.603   9.666   3.815
83178SOL    HW251432  14.565   9.519   3.823
83179SOL     OW51433  12.812   7.280   2.323
83179SOL    HW151434  12.893   7.281   2.374
83179SOL    HW251435  12.744   7.254   2.385
83180SOL     OW51436   1.693  14.643   4.366
83180SOL    HW151437   1.646  14.641   4.449
83180SOL    HW251438   1.729  14.555   4.356
83181SOL     OW51439  13.834   6.974   3.499
83181SOL    HW151440  13.848   6.881   3.518
83181SOL    HW251441  13.756   6.998   3.550
83182SOL     OW51442  14.837   4.560   6.972
83182SOL    HW151443  14.808   4.475   7.003
83182SOL    HW251444   0.024   4.540   6.899
83183SOL     OW51445  13.397   1.874   1.510
83183SOL    HW151446  13.376   1.822   1.588
83183SOL    HW251447  13.468   1.826   1.469
83184SOL     OW51448  13.974  10.383   9.174
83184SOL    HW151449  13.983  10.389   9.079
83184SOL    HW251450  14.057  10.415   9.209
83185SOL     OW51451  12.901  13.211  12.529
83185SOL    HW151452  12.821  13.169  12.560
83185SOL    HW251453  12.951  13.141  12.488
83186SOL     OW51454  12.167  12.902  12.946
83186SOL    HW151455  12.096  12.856  12.902
83186SOL    HW251456  12.245  12.880  12.896
83187SOL     OW51457   0.879   2.614  14.275
83187SOL    HW151458   0.845   2.557  14.344
83187SOL    HW251459   0.972   2.594  14.270
83188SOL     OW51460  12.334   5.484   2.845
83188SOL    HW151461  12.241   5.464   2.834
83188SOL    HW251462  12.378   5.431   2.778
83189SOL     OW51463  13.365   5.167   2.317
83189SOL    HW151464  13.315   5.229   2.370
83189SOL    HW251465  13.434   5.135   2.376
83190SOL     OW51466   6.631   6.482   5.148
83190SOL    HW151467   6.702   6.443   5.199
83190SOL    HW251468   6.620   6.570   5.185
83191SOL     OW51469   8.394  10.439   4.537
83191SOL    HW151470   8.458  10.504   4.567
83191SOL    HW251471   8.444  10.359   4.526
83192SOL     OW51472   5.181  10.371   8.239
83192SOL    HW151473   5.156  10.279   8.228
83192SOL    HW251474   5.098  10.419   8.233
83193SOL     OW51475   6.750   7.058  14.092
83193SOL    HW151476   6.838   7.071  14.126
83193SOL    HW251477   6.692   7.087  14.163
83194SOL     OW51478   1.408  11.004   3.031
83194SOL    HW151479   1.342  11.058   3.073
83194SOL    HW251480   1.491  11.046   3.054
83195SOL     OW51481   8.918   0.933   6.019
83195SOL    HW151482   8.829   0.906   6.040
83195SOL    HW251483   8.917   1.028   6.029
83196SOL     OW51484   0.204   4.638   9.457
83196SOL    HW151485   0.141   4.672   9.520
83196SOL    HW251486   0.207   4.544   9.475
83197SOL     OW51487   9.190   0.464  14.621
83197SOL    HW151488   9.119   0.407  14.592
83197SOL    HW251489   9.267   0.432  14.573
83198SOL     OW51490   3.639   4.141  14.215
83198SOL    HW151491   3.706   4.157  14.282
83198SOL    HW251492   3.561   4.186  14.248
83199SOL     OW51493   7.728   8.614   4.653
83199SOL    HW151494   7.668   8.595   4.725
83199SOL    HW251495   7.716   8.707   4.635
83200SOL     OW51496   1.239   2.415   8.916
83200SOL    HW151497   1.168   2.479   8.913
83200SOL    HW251498   1.296   2.439   8.842
83201SOL     OW51499  14.796   9.646   6.719
83201SOL    HW151500  14.847   9.652   6.800
83201SOL    HW251501  14.770   9.554   6.714
83202SOL     OW51502   4.799   9.776   9.997
83202SOL    HW151503   4.883   9.747   9.961
83202SOL    HW251504   4.787   9.863   9.961
83203SOL     OW51505   9.846   1.641   2.340
83203SOL    HW151506   9.870   1.631   2.248
83203SOL    HW251507   9.824   1.552   2.369
83204SOL     OW51508  14.702   8.977   0.091
83204SOL    HW151509  14.764   8.953   0.160
83204SOL    HW251510  14.627   9.012   0.138
83205SOL     OW51511  10.914   7.792   2.766
83205SOL    HW151512  10.863   7.869   2.741
83205SOL    HW251513  10.888   7.774   2.857
83206SOL     OW51514   8.628   3.654   7.870
83206SOL    HW151515   8.720   3.673   7.851
83206SOL    HW251516   8.580   3.727   7.831
83207SOL     OW51517   1.962  13.887   4.044
83207SOL    HW151518   1.985  13.970   4.003
83207SOL    HW251519   1.875  13.866   4.009
83208SOL     OW51520   1.117   1.234  13.059
83208SOL    HW151521   1.167   1.154  13.044
83208SOL    HW251522   1.103   1.271  12.972
83209SOL     OW51523   9.960   3.378  12.762
83209SOL    HW151524   9.929   3.438  12.830
83209SOL    HW251525   9.956   3.291  12.802
83210SOL     OW51526  11.754  10.761   1.927
83210SOL    HW151527  11.717  10.730   1.844
83210SOL    HW251528  11.678  10.777   1.983
83211SOL     OW51529   0.715   8.234  12.597
83211SOL    HW151530   0.681   8.194  12.517
83211SOL    HW251531   0.685   8.324  12.594
83212SOL     OW51532   3.603   5.086   6.344
83212SOL    HW151533   3.550   5.121   6.272
83212SOL    HW251534   3.547   5.097   6.421
83213SOL     OW51535   9.750   0.417   0.995
83213SOL    HW151536   9.735   0.399   1.088
83213SOL    HW251537   9.748   0.331   0.954
83214SOL     OW51538   5.927  12.906   1.621
83214SOL    HW151539   5.965  12.888   1.536
83214SOL    HW251540   5.833  12.918   1.604
83215SOL     OW51541   5.982   2.598   4.419
83215SOL    HW151542   6.063   2.632   4.381
83215SOL    HW251543   6.009   2.563   4.504
83216SOL     OW51544   9.467  11.080  11.236
83216SOL    HW151545   9.409  11.029  11.293
83216SOL    HW251546   9.408  11.117  11.170
83217SOL     OW51547   7.397   8.912  14.574
83217SOL    HW151548   7.366   8.857  14.502
83217SOL    HW251549   7.482   8.874  14.599
83218SOL     OW51550  10.980   4.675   9.726
83218SOL    HW151551  10.910   4.669   9.791
83218SOL    HW251552  10.936   4.660   9.642
83219SOL     OW51553   9.486   0.561   7.324
83219SOL    HW151554   9.540   0.577   7.246
83219SOL    HW251555   9.544   0.583   7.398
83220SOL     OW51556   2.981  11.239   8.623
83220SOL    HW151557   3.024  11.303   8.567
83220SOL    HW251558   3.045  11.170   8.634
83221SOL     OW51559   1.254   9.766  11.627
83221SOL    HW151560   1.174   9.801  11.667
83221SOL    HW251561   1.313   9.841  11.624
83222SOL     OW51562   5.412   7.014  13.412
83222SOL    HW151563   5.505   7.017  13.389
83222SOL    HW251564   5.396   7.094  13.463
83223SOL     OW51565   4.989   4.465  12.151
83223SOL    HW151566   4.896   4.481  12.140
83223SOL    HW251567   4.994   4.376  12.188
83224SOL     OW51568   1.265  11.767   8.832
83224SOL    HW151569   1.261  11.850   8.878
83224SOL    HW251570   1.176  11.754   8.798
83225SOL     OW51571   2.462  14.029  14.227
83225SOL    HW151572   2.403  13.957  14.245
83225SOL    HW251573   2.537  14.014  14.284
83226SOL     OW51574  11.137  14.036   0.566
83226SOL    HW151575  11.124  14.023   0.660
83226SOL    HW251576  11.091  14.118   0.547
83227SOL     OW51577  11.410   6.258  14.828
83227SOL    HW151578  11.364   6.198  14.769
83227SOL    HW251579  11.340   6.308  14.871
83228SOL     OW51580   6.082   7.509   9.217
83228SOL    HW151581   6.006   7.451   9.212
83228SOL    HW251582   6.063   7.567   9.290
83229SOL     OW51583  11.899  13.903   5.915
83229SOL    HW151584  11.896  13.823   5.863
83229SOL    HW251585  11.951  13.879   5.992
83230SOL     OW51586   8.994  13.112   1.008
83230SOL    HW151587   9.003  13.186   1.069
83230SOL    HW251588   9.078  13.066   1.014
83231SOL     OW51589   1.783  10.628   8.830
83231SOL    HW151590   1.733  10.556   8.792
83231SOL    HW251591   1.842  10.657   8.760
83232SOL     OW51592   9.070   5.908   8.008
83232SOL    HW151593   8.976   5.889   8.008
83232SOL    HW251594   9.098   5.887   7.919
83233SOL     OW51595   1.364   2.319   0.173
83233SOL    HW151596   1.386   2.403   0.134
83233SOL    HW251597   1.289   2.288   0.123
83234SOL     OW51598   5.029   2.640   1.689
83234SOL    HW151599   5.101   2.606   1.742
83234SOL    HW251600   4.951   2.601   1.728
83235SOL     OW51601   9.640   1.151   1.210
83235SOL    HW151602   9.645   1.057   1.197
83235SOL    HW251603   9.665   1.164   1.302
83236SOL     OW51604   3.184  14.476   7.089
83236SOL    HW151605   3.175  14.571   7.081
83236SOL    HW251606   3.259  14.454   7.033
83237SOL     OW51607   1.403   0.331   4.210
83237SOL    HW151608   1.345   0.347   4.284
83237SOL    HW251609   1.387   0.404   4.150
83238SOL     OW51610   0.027   8.920  10.667
83238SOL    HW151611  14.830   8.880  10.720
83238SOL    HW251612  14.852   8.965  10.597
83239SOL     OW51613   6.076   4.101  13.000
83239SOL    HW151614   6.001   4.141  12.955
83239SOL    HW251615   6.107   4.034  12.939
83240SOL     OW51616   2.021   9.458   7.503
83240SOL    HW151617   1.986   9.402   7.572
83240SOL    HW251618   2.000   9.547   7.531
83241SOL     OW51619   4.908   3.666  12.195
83241SOL    HW151620   4.815   3.689  12.188
83241SOL    HW251621   4.930   3.685  12.286
83242SOL     OW51622   9.757   5.250   5.275
83242SOL    HW151623   9.755   5.336   5.232
83242SOL    HW251624   9.675   5.245   5.323
83243SOL     OW51625  13.409   5.444   4.112
83243SOL    HW151626  13.427   5.537   4.099
83243SOL    HW251627  13.474   5.399   4.058
83244SOL     OW51628  12.540  11.546  10.762
83244SOL    HW151629  12.523  11.608  10.690
83244SOL    HW251630  12.555  11.462  10.718
83245SOL     OW51631   2.700   4.035   1.632
83245SOL    HW151632   2.764   4.101   1.659
83245SOL    HW251633   2.648   4.078   1.563
83246SOL     OW51634  11.884  13.364   1.643
83246SOL    HW151635  11.826  13.395   1.574
83246SOL    HW251636  11.825  13.343   1.716
83247SOL     OW51637   5.985   7.687   3.578
83247SOL    HW151638   5.928   7.731   3.642
83247SOL    HW251639   5.964   7.594   3.588
83248SOL     OW51640   9.533   1.751   8.762
83248SOL    HW151641   9.557   1.658   8.752
83248SOL    HW251642   9.566   1.775   8.848
83249SOL     OW51643   8.841   3.859  10.757
83249SOL    HW151644   8.813   3.780  10.712
83249SOL    HW251645   8.916   3.832  10.811
83250SOL     OW51646   4.232  11.463   7.037
83250SOL    HW151647   4.301  11.398   7.023
83250SOL    HW251648   4.157  11.413   7.066
83251SOL     OW51649   0.169   0.030   1.984
83251SOL    HW151650   0.161  14.839   2.056
83251SOL    HW251651   0.092   0.014   1.929
83252SOL     OW51652   8.379   4.849   3.510
83252SOL    HW151653   8.346   4.938   3.495
83252SOL    HW251654   8.404   4.848   3.602
83253SOL     OW51655   8.607   8.365  13.600
83253SOL    HW151656   8.564   8.415  13.670
83253SOL    HW251657   8.696   8.400  13.597
83254SOL     OW51658  13.127   2.206   0.860
83254SOL    HW151659  13.083   2.237   0.781
83254SOL    HW251660  13.201   2.155   0.827
83255SOL     OW51661   3.252   7.506   6.014
83255SOL    HW151662   3.341   7.470   6.009
83255SOL    HW251663   3.257   7.576   6.079
83256SOL     OW51664  13.364  12.060  14.394
83256SOL    HW151665  13.293  12.117  14.423
83256SOL    HW251666  13.358  12.060  14.299
83257SOL     OW51667  12.784   1.923   9.671
83257SOL    HW151668  12.778   1.881   9.585
83257SOL    HW251669  12.842   1.998   9.657
83258SOL     OW51670   9.999   9.948  13.067
83258SOL    HW151671  10.079   9.989  13.034
83258SOL    HW251672  10.010   9.950  13.162
83259SOL     OW51673   1.823  14.310  14.435
83259SOL    HW151674   1.839  14.217  14.449
83259SOL    HW251675   1.830  14.322  14.340
83260SOL     OW51676  12.032   6.712   7.168
83260SOL    HW151677  12.087   6.683   7.241
83260SOL    HW251678  12.001   6.799   7.193
83261SOL     OW51679   9.521  14.479   4.518
83261SOL    HW151680   9.603  14.434   4.540
83261SOL    HW251681   9.521  14.558   4.574
83262SOL     OW51682   6.735   6.690   0.398
83262SOL    HW151683   6.737   6.728   0.310
83262SOL    HW251684   6.820   6.716   0.436
83263SOL     OW51685   8.106  13.118  10.496
83263SOL    HW151686   8.041  13.093  10.430
83263SOL    HW251687   8.083  13.208  10.519
83264SOL     OW51688   2.621   0.653  12.088
83264SOL    HW151689   2.700   0.684  12.133
83264SOL    HW251690   2.651   0.628  12.001
83265SOL     OW51691  11.079  11.052   8.346
83265SOL    HW151692  11.137  11.120   8.312
83265SOL    HW251693  11.118  10.970   8.318
83266SOL     OW51694   8.067  14.818   7.342
83266SOL    HW151695   8.098  14.743   7.292
83266SOL    HW251696   8.068   0.019   7.279
83267SOL     OW51697   1.187   2.380   6.730
83267SOL    HW151698   1.242   2.418   6.662
83267SOL    HW251699   1.246   2.328   6.784
83268SOL     OW51700  11.638  14.028   0.273
83268SOL    HW151701  11.569  13.971   0.307
83268SOL    HW251702  11.595  14.111   0.255
83269SOL     OW51703   9.268   3.195  10.230
83269SOL    HW151704   9.363   3.190  10.223
83269SOL    HW251705   9.245   3.138  10.303
83270SOL     OW51706   9.427   6.003  14.016
83270SOL    HW151707   9.379   5.952  13.950
83270SOL    HW251708   9.382   5.985  14.098
83271SOL     OW51709  13.140   7.891   2.397
83271SOL    HW151710  13.061   7.874   2.447
83271SOL    HW251711  13.114   7.881   2.306
83272SOL     OW51712   9.725   9.473   1.996
83272SOL    HW151713   9.758   9.463   1.907
83272SOL    HW251714   9.762   9.400   2.045
83273SOL     OW51715   3.690   0.235  13.956
83273SOL    HW151716   3.743   0.267  13.883
83273SOL    HW251717   3.628   0.174  13.917
83274SOL     OW51718   6.477  13.483   1.583
83274SOL    HW151719   6.562  13.495   1.625
83274SOL    HW251720   6.485  13.400   1.535
83275SOL     OW51721   3.033  12.369   8.265
83275SOL    HW151722   3.070  12.437   8.321
83275SOL    HW251723   2.961  12.413   8.219
83276SOL     OW51724   8.783  13.294   5.432
83276SOL    HW151725   8.838  13.326   5.361
83276SOL    HW251726   8.836  13.307   5.511
83277SOL     OW51727   9.548  10.253  10.481
83277SOL    HW151728   9.594  10.194  10.542
83277SOL    HW251729   9.494  10.307  10.538
83278SOL     OW51730   3.735   7.206  14.417
83278SOL    HW151731   3.783   7.130  14.384
83278SOL    HW251732   3.774   7.224  14.503
83279SOL     OW51733   8.453  14.794   0.185
83279SOL    HW151734   8.546  14.811   0.196
83279SOL    HW251735   8.429  14.840   0.105
83280SOL     OW51736   4.538   1.975   5.714
83280SOL    HW151737   4.597   1.922   5.767
83280SOL    HW251738   4.595   2.038   5.670
83281SOL     OW51739  13.514   9.926  11.666
83281SOL    HW151740  13.481   9.974  11.742
83281SOL    HW251741  13.596   9.887  11.696
83282SOL     OW51742   8.661   5.112  11.137
83282SOL    HW151743   8.653   5.088  11.045
83282SOL    HW251744   8.745   5.074  11.163
83283SOL     OW51745  11.327   2.778   2.046
83283SOL    HW151746  11.272   2.755   2.121
83283SOL    HW251747  11.289   2.859   2.012
83284SOL     OW51748   2.445   6.901  10.832
83284SOL    HW151749   2.421   6.893  10.924
83284SOL    HW251750   2.365   6.882  10.784
83285SOL     OW51751  10.515   6.646   0.438
83285SOL    HW151752  10.571   6.574   0.407
83285SOL    HW251753  10.552   6.670   0.523
83286SOL     OW51754   0.898   5.927  12.358
83286SOL    HW151755   0.956   5.993  12.396
83286SOL    HW251756   0.947   5.845  12.366
83287SOL     OW51757  13.559   3.371   7.235
83287SOL    HW151758  13.480   3.332   7.273
83287SOL    HW251759  13.610   3.295   7.204
83288SOL     OW51760   8.943   5.258   9.885
83288SOL    HW151761   8.999   5.269   9.809
83288SOL    HW251762   8.981   5.316   9.951
83289SOL     OW51763  13.313  14.191   8.126
83289SOL    HW151764  13.385  14.232   8.175
83289SOL    HW251765  13.235  14.210   8.177
83290SOL     OW51766   1.667   8.942  12.256
83290SOL    HW151767   1.716   8.953  12.175
83290SOL    HW251768   1.618   9.024  12.265
83291SOL     OW51769   8.126   3.042   5.153
83291SOL    HW151770   8.096   2.994   5.076
83291SOL    HW251771   8.179   3.113   5.117
83292SOL     OW51772  12.091   1.322   6.623
83292SOL    HW151773  12.075   1.262   6.550
83292SOL    HW251774  12.016   1.380   6.623
83293SOL     OW51775   9.001   1.170  11.871
83293SOL    HW151776   8.976   1.079  11.857
83293SOL    HW251777   9.010   1.178  11.966
83294SOL     OW51778   3.693   6.297  10.130
83294SOL    HW151779   3.652   6.220  10.168
83294SOL    HW251780   3.744   6.335  10.202
83295SOL     OW51781  13.949   7.851   8.444
83295SOL    HW151782  14.037   7.825   8.474
83295SOL    HW251783  13.964   7.892   8.359
83296SOL     OW51784   2.998   6.388   4.181
83296SOL    HW151785   3.092   6.385   4.199
83296SOL    HW251786   2.985   6.324   4.112
83297SOL     OW51787   1.310   9.778   3.889
83297SOL    HW151788   1.270   9.825   3.961
83297SOL    HW251789   1.292   9.832   3.812
83298SOL     OW51790   6.013   4.237  12.220
83298SOL    HW151791   6.038   4.262  12.131
83298SOL    HW251792   5.933   4.185  12.209
83299SOL     OW51793   0.563   8.985   2.019
83299SOL    HW151794   0.549   8.980   1.925
83299SOL    HW251795   0.482   8.951   2.058
83300SOL     OW51796   9.146   4.460   7.968
83300SOL    HW151797   9.085   4.480   7.898
83300SOL    HW251798   9.216   4.525   7.960
83301SOL     OW51799   9.098   4.005  13.743
83301SOL    HW151800   9.024   4.043  13.696
83301SOL    HW251801   9.066   3.919  13.773
83302SOL     OW51802   0.955   4.832  11.643
83302SOL    HW151803   1.045   4.799  11.635
83302SOL    HW251804   0.921   4.833  11.554
83303SOL     OW51805  10.245   6.051   7.251
83303SOL    HW151806  10.223   5.965   7.287
83303SOL    HW251807  10.339   6.059   7.266
83304SOL     OW51808   8.342   1.994   9.991
83304SOL    HW151809   8.426   2.038   9.979
83304SOL    HW251810   8.330   1.944   9.910
83305SOL     OW51811   4.314  14.073   0.527
83305SOL    HW151812   4.274  13.996   0.568
83305SOL    HW251813   4.241  14.133   0.513
83306SOL     OW51814   5.150  10.888   9.020
83306SOL    HW151815   5.153  10.983   9.008
83306SOL    HW251816   5.241  10.862   9.033
83307SOL     OW51817  14.472   2.114   7.372
83307SOL    HW151818  14.539   2.046   7.370
83307SOL    HW251819  14.397   2.072   7.414
83308SOL     OW51820   6.798   9.041   7.642
83308SOL    HW151821   6.716   8.992   7.656
83308SOL    HW251822   6.786   9.121   7.693
83309SOL     OW51823   2.506   6.885  13.359
83309SOL    HW151824   2.541   6.974  13.358
83309SOL    HW251825   2.450   6.882  13.437
83310SOL     OW51826  10.939   8.538   6.482
83310SOL    HW151827  10.970   8.540   6.572
83310SOL    HW251828  10.845   8.551   6.488
83311SOL     OW51829  10.355   1.368   0.609
83311SOL    HW151830  10.296   1.318   0.553
83311SOL    HW251831  10.312   1.453   0.619
83312SOL     OW51832  12.796   7.189  10.673
83312SOL    HW151833  12.718   7.228  10.713
83312SOL    HW251834  12.821   7.119  10.733
83313SOL     OW51835   3.632   0.811   7.406
83313SOL    HW151836   3.584   0.851   7.333
83313SOL    HW251837   3.582   0.733   7.429
83314SOL     OW51838   6.443   9.094   6.761
83314SOL    HW151839   6.398   9.026   6.710
83314SOL    HW251840   6.532   9.059   6.773
83315SOL     OW51841   7.668   3.187   0.655
83315SOL    HW151842   7.761   3.193   0.673
83315SOL    HW251843   7.636   3.277   0.662
83316SOL     OW51844   8.500   0.077  12.265
83316SOL    HW151845   8.478   0.167  12.241
83316SOL    HW251846   8.424   0.047  12.315
83317SOL     OW51847  14.865   0.991   3.258
83317SOL    HW151848  14.826   1.041   3.187
83317SOL    HW251849  14.809   0.915   3.268
83318SOL     OW51850   6.740  11.778   7.734
83318SOL    HW151851   6.644  11.779   7.728
83318SOL    HW251852   6.759  11.716   7.805
83319SOL     OW51853   3.474   5.148  13.873
83319SOL    HW151854   3.382   5.142  13.848
83319SOL    HW251855   3.473   5.140  13.968
83320SOL     OW51856  14.130  11.729   2.578
83320SOL    HW151857  14.196  11.661   2.567
83320SOL    HW251858  14.055  11.683   2.616
83321SOL     OW51859  12.126  10.761  14.527
83321SOL    HW151860  12.190  10.747  14.597
83321SOL    HW251861  12.178  10.785  14.450
83322SOL     OW51862  12.246  11.521   4.265
83322SOL    HW151863  12.221  11.501   4.356
83322SOL    HW251864  12.339  11.545   4.271
83323SOL     OW51865   7.252   6.714   0.950
83323SOL    HW151866   7.338   6.752   0.971
83323SOL    HW251867   7.255   6.626   0.988
83324SOL     OW51868  13.187   9.805   9.297
83324SOL    HW151869  13.226   9.879   9.342
83324SOL    HW251870  13.149   9.752   9.367
83325SOL     OW51871   4.148   0.650   4.113
83325SOL    HW151872   4.169   0.558   4.095
83325SOL    HW251873   4.206   0.700   4.056
83326SOL     OW51874   8.458  11.115   5.957
83326SOL    HW151875   8.409  11.198   5.952
83326SOL    HW251876   8.405  11.060   6.015
83327SOL     OW51877  12.386   6.383  13.828
83327SOL    HW151878  12.477   6.400  13.803
83327SOL    HW251879  12.338   6.459  13.796
83328SOL     OW51880   1.681   5.199   1.033
83328SOL    HW151881   1.605   5.142   1.026
83328SOL    HW251882   1.658   5.263   1.100
83329SOL     OW51883  10.765   1.932   4.061
83329SOL    HW151884  10.859   1.914   4.059
83329SOL    HW251885  10.735   1.897   4.145
83330SOL     OW51886   5.908  12.872  10.128
83330SOL    HW151887   5.838  12.911  10.181
83330SOL    HW251888   5.976  12.939  10.126
83331SOL     OW51889   6.944   4.024  14.289
83331SOL    HW151890   6.967   3.995  14.200
83331SOL    HW251891   7.016   4.081  14.315
83332SOL     OW51892   7.388   8.744   2.637
83332SOL    HW151893   7.481   8.769   2.634
83332SOL    HW251894   7.367   8.717   2.548
83333SOL     OW51895  11.613   0.162   8.463
83333SOL    HW151896  11.598   0.148   8.369
83333SOL    HW251897  11.633   0.255   8.470
83334SOL     OW51898   5.625   6.927   6.295
83334SOL    HW151899   5.690   6.888   6.238
83334SOL    HW251900   5.544   6.881   6.275
83335SOL     OW51901  10.520   6.110   7.318
83335SOL    HW151902  10.513   6.086   7.410
83335SOL    HW251903  10.610   6.141   7.308
83336SOL     OW51904   7.666   2.060  14.734
83336SOL    HW151905   7.634   2.146  14.762
83336SOL    HW251906   7.616   1.997  14.787
83337SOL     OW51907   1.032  12.626   3.794
83337SOL    HW151908   1.091  12.570   3.744
83337SOL    HW251909   1.041  12.596   3.884
83338SOL     OW51910  10.745   9.377  11.312
83338SOL    HW151911  10.795   9.442  11.362
83338SOL    HW251912  10.676   9.427  11.269
83339SOL     OW51913   6.880   9.603   4.609
83339SOL    HW151914   6.836   9.649   4.537
83339SOL    HW251915   6.967   9.583   4.574
83340SOL     OW51916  12.045   6.976  12.760
83340SOL    HW151917  11.959   6.936  12.750
83340SOL    HW251918  12.087   6.925  12.829
83341SOL     OW51919  12.561   0.772   4.200
83341SOL    HW151920  12.547   0.826   4.277
83341SOL    HW251921  12.638   0.720   4.220
83342SOL     OW51922   1.776   4.273   7.868
83342SOL    HW151923   1.745   4.199   7.921
83342SOL    HW251924   1.725   4.347   7.898
83343SOL     OW51925   4.290   8.581   7.936
83343SOL    HW151926   4.254   8.537   8.012
83343SOL    HW251927   4.372   8.620   7.967
83344SOL     OW51928   8.543   0.028  10.423
83344SOL    HW151929   8.583   0.038  10.336
83344SOL    HW251930   8.615   0.041  10.484
83345SOL     OW51931   5.597   6.193   2.302
83345SOL    HW151932   5.674   6.239   2.267
83345SOL    HW251933   5.536   6.263   2.323
83346SOL     OW51934  11.709  10.466   6.571
83346SOL    HW151935  11.662  10.397   6.617
83346SOL    HW251936  11.730  10.530   6.640
83347SOL     OW51937   0.104   1.068  14.413
83347SOL    HW151938   0.082   0.975  14.410
83347SOL    HW251939   0.136   1.088  14.325
83348SOL     OW51940   2.773   1.621   2.246
83348SOL    HW151941   2.844   1.604   2.183
83348SOL    HW251942   2.714   1.546   2.236
83349SOL     OW51943   7.187  12.464   1.205
83349SOL    HW151944   7.126  12.452   1.277
83349SOL    HW251945   7.244  12.387   1.208
83350SOL     OW51946  14.642   0.134  11.316
83350SOL    HW151947  14.679   0.167  11.397
83350SOL    HW251948  14.586   0.205  11.284
83351SOL     OW51949   3.500   4.443   8.858
83351SOL    HW151950   3.496   4.386   8.935
83351SOL    HW251951   3.436   4.406   8.797
83352SOL     OW51952  14.680  14.766   5.154
83352SOL    HW151953  14.738  14.737   5.083
83352SOL    HW251954  14.696  14.861   5.160
83353SOL     OW51955   3.128   5.703   8.558
83353SOL    HW151956   3.200   5.722   8.498
83353SOL    HW251957   3.085   5.627   8.521
83354SOL     OW51958   7.633   3.466   0.638
83354SOL    HW151959   7.639   3.497   0.547
83354SOL    HW251960   7.576   3.530   0.681
83355SOL     OW51961   5.422   6.260   8.761
83355SOL    HW151962   5.482   6.335   8.760
83355SOL    HW251963   5.415   6.237   8.854
83356SOL     OW51964  12.527  14.410   4.089
83356SOL    HW151965  12.554  14.500   4.110
83356SOL    HW251966  12.556  14.358   4.163
83357SOL     OW51967  12.589   7.385   0.476
83357SOL    HW151968  12.657   7.328   0.440
83357SOL    HW251969  12.637   7.449   0.529
83358SOL     OW51970   3.881   6.011  13.616
83358SOL    HW151971   3.876   5.944  13.548
83358SOL    HW251972   3.790   6.028  13.640
83359SOL     OW51973   0.228  11.992  14.568
83359SOL    HW151974   0.174  11.940  14.508
83359SOL    HW251975   0.198  11.967  14.655
83360SOL     OW51976   3.838   6.243   5.306
83360SOL    HW151977   3.886   6.301   5.365
83360SOL    HW251978   3.804   6.301   5.238
83361SOL     OW51979   5.329   5.774  11.884
83361SOL    HW151980   5.327   5.739  11.973
83361SOL    HW251981   5.290   5.861  11.892
83362SOL     OW51982   9.563   3.633   0.182
83362SOL    HW151983   9.594   3.543   0.171
83362SOL    HW251984   9.496   3.627   0.250
83363SOL     OW51985  12.448   6.706   9.691
83363SOL    HW151986  12.522   6.664   9.647
83363SOL    HW251987  12.403   6.635   9.736
83364SOL     OW51988   5.542   2.472  14.809
83364SOL    HW151989   5.451   2.493  14.829
83364SOL    HW251990   5.560   2.393  14.859
83365SOL     OW51991   9.031   4.515  10.250
83365SOL    HW151992   9.053   4.579  10.182
83365SOL    HW251993   9.114   4.471  10.270
83366SOL     OW51994   9.759  13.552   4.632
83366SOL    HW151995   9.824  13.495   4.592
83366SOL    HW251996   9.807  13.599   4.700
83367SOL     OW51997  13.297  13.995   5.587
83367SOL    HW151998  13.359  14.060   5.621
83367SOL    HW251999  13.348  13.914   5.583
83368SOL     OW52000   8.602   0.389   9.726
83368SOL    HW152001   8.617   0.440   9.646
83368SOL    HW252002   8.640   0.443   9.796
83369SOL     OW52003  10.693   9.378   0.164
83369SOL    HW152004  10.760   9.328   0.117
83369SOL    HW252005  10.698   9.347   0.254
83370SOL     OW52006  13.112   0.827  10.480
83370SOL    HW152007  13.071   0.767  10.542
83370SOL    HW252008  13.042   0.852  10.420
83371SOL     OW52009   6.614   2.155   5.345
83371SOL    HW152010   6.594   2.200   5.427
83371SOL    HW252011   6.547   2.185   5.284
83372SOL     OW52012   2.184   1.765   7.966
83372SOL    HW152013   2.173   1.743   7.874
83372SOL    HW252014   2.254   1.831   7.967
83373SOL     OW52015   3.298  12.671  12.093
83373SOL    HW152016   3.288  12.729  12.169
83373SOL    HW252017   3.277  12.727  12.018
83374SOL     OW52018  14.764  13.683  14.257
83374SOL    HW152019  14.814  13.760  14.285
83374SOL    HW252020  14.674  13.701  14.285
83375SOL     OW52021   6.354   6.737  13.568
83375SOL    HW152022   6.393   6.651  13.553
83375SOL    HW252023   6.387   6.763  13.654
83376SOL     OW52024   8.147  12.649   7.407
83376SOL    HW152025   8.093  12.727   7.401
83376SOL    HW252026   8.125  12.610   7.492
83377SOL     OW52027   9.639  11.064   0.285
83377SOL    HW152028   9.562  11.089   0.233
83377SOL    HW252029   9.703  11.035   0.219
83378SOL     OW52030   5.568  10.684  12.587
83378SOL    HW152031   5.557  10.740  12.663
83378SOL    HW252032   5.661  10.692  12.564
83379SOL     OW52033   4.488   7.520   7.263
83379SOL    HW152034   4.539   7.446   7.295
83379SOL    HW252035   4.553   7.584   7.234
83380SOL     OW52036   4.098  13.376   9.814
83380SOL    HW152037   4.102  13.371   9.909
83380SOL    HW252038   4.006  13.394   9.794
83381SOL     OW52039   9.393  10.790  14.087
83381SOL    HW152040   9.316  10.799  14.031
83381SOL    HW252041   9.378  10.709  14.135
83382SOL     OW52042   9.257  14.607   1.826
83382SOL    HW152043   9.182  14.665   1.840
83382SOL    HW252044   9.267  14.603   1.731
83383SOL     OW52045   3.659   0.968   6.322
83383SOL    HW152046   3.572   0.952   6.358
83383SOL    HW252047   3.644   0.985   6.229
83384SOL     OW52048  14.462   7.465   1.865
83384SOL    HW152049  14.499   7.416   1.793
83384SOL    HW252050  14.381   7.503   1.829
83385SOL     OW52051   8.081  14.780  12.035
83385SOL    HW152052   8.010  14.839  12.061
83385SOL    HW252053   8.088  14.791  11.940
83386SOL     OW52054   2.080   9.521   5.507
83386SOL    HW152055   2.154   9.522   5.569
83386SOL    HW252056   2.120   9.503   5.422
83387SOL     OW52057   0.232   1.890   8.276
83387SOL    HW152058   0.282   1.826   8.326
83387SOL    HW252059   0.267   1.883   8.187
83388SOL     OW52060   9.713   9.265   1.501
83388SOL    HW152061   9.620   9.245   1.495
83388SOL    HW252062   9.716   9.358   1.527
83389SOL     OW52063   6.524   9.296  14.594
83389SOL    HW152064   6.487   9.305  14.506
83389SOL    HW252065   6.617   9.282  14.579
83390SOL     OW52066   0.561   8.528   5.531
83390SOL    HW152067   0.651   8.501   5.511
83390SOL    HW252068   0.512   8.446   5.534
83391SOL     OW52069  12.658   9.744   2.646
83391SOL    HW152070  12.602   9.793   2.707
83391SOL    HW252071  12.677   9.662   2.692
83392SOL     OW52072  14.340   9.498   0.891
83392SOL    HW152073  14.416   9.556   0.884
83392SOL    HW252074  14.274   9.549   0.937
83393SOL     OW52075   1.170   2.075  10.434
83393SOL    HW152076   1.219   2.013  10.487
83393SOL    HW252077   1.236   2.138  10.403
83394SOL     OW52078   8.546   2.803   5.712
83394SOL    HW152079   8.518   2.749   5.787
83394SOL    HW252080   8.481   2.786   5.644
83395SOL     OW52081   3.130  13.983  10.291
83395SOL    HW152082   3.207  13.968  10.237
83395SOL    HW252083   3.137  13.919  10.362
83396SOL     OW52084  10.007   6.063   1.120
83396SOL    HW152085   9.994   6.072   1.025
83396SOL    HW252086  10.088   6.013   1.128
83397SOL     OW52087  11.680   1.263   7.961
83397SOL    HW152088  11.623   1.236   7.889
83397SOL    HW252089  11.638   1.229   8.040
83398SOL     OW52090  10.358  14.606  11.341
83398SOL    HW152091  10.268  14.588  11.315
83398SOL    HW252092  10.375  14.695  11.307
83399SOL     OW52093   5.399   1.470   3.973
83399SOL    HW152094   5.417   1.525   4.049
83399SOL    HW252095   5.360   1.390   4.011
83400SOL     OW52096   8.149  14.614  10.491
83400SOL    HW152097   8.066  14.658  10.508
83400SOL    HW252098   8.173  14.640  10.403
83401SOL     OW52099  12.758   6.028   3.532
83401SOL    HW152100  12.734   6.095   3.595
83401SOL    HW252101  12.679   5.974   3.523
83402SOL     OW52102   4.985   4.854   8.555
83402SOL    HW152103   4.960   4.772   8.596
83402SOL    HW252104   4.906   4.885   8.511
83403SOL     OW52105   2.064  12.645   2.906
83403SOL    HW152106   2.067  12.679   2.816
83403SOL    HW252107   2.097  12.716   2.960
83404SOL     OW52108  10.137   1.738   9.422
83404SOL    HW152109  10.183   1.660   9.392
83404SOL    HW252110  10.064   1.704   9.475
83405SOL     OW52111   3.153   4.716   3.336
83405SOL    HW152112   3.161   4.623   3.353
83405SOL    HW252113   3.089   4.722   3.265
83406SOL     OW52114  11.415  12.605   4.060
83406SOL    HW152115  11.441  12.671   4.125
83406SOL    HW252116  11.496  12.558   4.040
83407SOL     OW52117   4.850   4.448   7.171
83407SOL    HW152118   4.781   4.500   7.130
83407SOL    HW252119   4.890   4.507   7.235
83408SOL     OW52120   4.515   5.286   9.349
83408SOL    HW152121   4.443   5.341   9.379
83408SOL    HW252122   4.577   5.285   9.422
83409SOL     OW52123   8.101   3.514  14.595
83409SOL    HW152124   8.031   3.466  14.549
83409SOL    HW252125   8.141   3.448  14.652
83410SOL     OW52126  13.639   2.365  10.811
83410SOL    HW152127  13.651   2.363  10.906
83410SOL    HW252128  13.661   2.276  10.782
83411SOL     OW52129   5.184  10.513  14.650
83411SOL    HW152130   5.194  10.478  14.561
83411SOL    HW252131   5.227  10.449  14.706
83412SOL     OW52132   0.266   5.322   5.835
83412SOL    HW152133   0.199   5.343   5.771
83412SOL    HW252134   0.248   5.232   5.861
83413SOL     OW52135  13.565   0.574   1.614
83413SOL    HW152136  13.655   0.581   1.581
83413SOL    HW252137  13.557   0.484   1.645
83414SOL     OW52138   3.194   1.713  12.849
83414SOL    HW152139   3.289   1.708  12.863
83414SOL    HW252140   3.170   1.801  12.878
83415SOL     OW52141   3.405   4.108   6.706
83415SOL    HW152142   3.472   4.077   6.765
83415SOL    HW252143   3.391   4.035   6.645
83416SOL     OW52144   8.437   6.299   5.776
83416SOL    HW152145   8.421   6.316   5.869
83416SOL    HW252146   8.405   6.378   5.732
83417SOL     OW52147   6.867   0.445   5.754
83417SOL    HW152148   6.926   0.380   5.792
83417SOL    HW252149   6.925   0.514   5.721
83418SOL     OW52150  11.166   9.697   3.556
83418SOL    HW152151  11.102   9.657   3.497
83418SOL    HW252152  11.113   9.740   3.623
83419SOL     OW52153  13.277   7.892   5.591
83419SOL    HW152154  13.305   7.870   5.680
83419SOL    HW252155  13.200   7.948   5.604
83420SOL     OW52156  11.769   6.056   0.522
83420SOL    HW152157  11.757   6.125   0.457
83420SOL    HW252158  11.711   5.986   0.493
83421SOL     OW52159   3.028   0.673  13.028
83421SOL    HW152160   3.095   0.678  13.096
83421SOL    HW252161   3.073   0.631  12.954
83422SOL     OW52162   2.278   7.506   1.255
83422SOL    HW152163   2.187   7.477   1.245
83422SOL    HW252164   2.290   7.571   1.186
83423SOL     OW52165   2.206  14.834   5.340
83423SOL    HW152166   2.140   0.027   5.314
83423SOL    HW252167   2.158  14.770   5.393
83424SOL     OW52168   9.641   2.975  11.306
83424SOL    HW152169   9.692   2.949  11.383
83424SOL    HW252170   9.599   2.894  11.277
83425SOL     OW52171  11.862   1.422  12.025
83425SOL    HW152172  11.854   1.515  12.046
83425SOL    HW252173  11.948   1.413  11.984
83426SOL     OW52174   5.109  13.860   0.884
83426SOL    HW152175   5.179  13.893   0.827
83426SOL    HW252176   5.077  13.781   0.840
83427SOL     OW52177   7.474   0.968  10.882
83427SOL    HW152178   7.554   0.924  10.851
83427SOL    HW252179   7.477   1.054  10.842
83428SOL     OW52180  11.783  13.635  14.291
83428SOL    HW152181  11.855  13.607  14.347
83428SOL    HW252182  11.818  13.631  14.202
83429SOL     OW52183  13.210   2.989   8.702
83429SOL    HW152184  13.248   3.033   8.625
83429SOL    HW252185  13.183   2.904   8.669
83430SOL     OW52186   7.736  14.237  13.184
83430SOL    HW152187   7.742  14.256  13.277
83430SOL    HW252188   7.788  14.157  13.172
83431SOL     OW52189   1.889  11.361  12.722
83431SOL    HW152190   1.976  11.357  12.762
83431SOL    HW252191   1.830  11.376  12.796
83432SOL     OW52192   5.773   0.846   9.297
83432SOL    HW152193   5.820   0.805   9.224
83432SOL    HW252194   5.792   0.791   9.372
83433SOL     OW52195  11.448   4.016   0.644
83433SOL    HW152196  11.536   4.046   0.622
83433SOL    HW252197  11.409   4.089   0.691
83434SOL     OW52198   0.772   7.838   1.122
83434SOL    HW152199   0.679   7.836   1.101
83434SOL    HW252200   0.793   7.747   1.146
83435SOL     OW52201  10.238  14.298   5.001
83435SOL    HW152202  10.259  14.292   4.908
83435SOL    HW252203  10.166  14.360   5.005
83436SOL     OW52204  13.400   3.194   5.648
83436SOL    HW152205  13.322   3.139   5.642
83436SOL    HW252206  13.469   3.143   5.606
83437SOL     OW52207  10.194   6.589  11.541
83437SOL    HW152208  10.185   6.550  11.454
83437SOL    HW252209  10.142   6.670  11.536
83438SOL     OW52210   8.832   8.704   9.100
83438SOL    HW152211   8.802   8.690   9.010
83438SOL    HW252212   8.752   8.701   9.152
83439SOL     OW52213   6.913  11.953   5.078
83439SOL    HW152214   6.871  11.920   5.157
83439SOL    HW252215   6.932  12.045   5.097
83440SOL     OW52216   8.243   8.570   7.229
83440SOL    HW152217   8.239   8.665   7.240
83440SOL    HW252218   8.334   8.552   7.206
83441SOL     OW52219   9.406  13.534   0.726
83441SOL    HW152220   9.498  13.510   0.718
83441SOL    HW252221   9.358  13.455   0.700
83442SOL     OW52222  12.095   3.537   0.319
83442SOL    HW152223  12.140   3.465   0.362
83442SOL    HW252224  12.163   3.602   0.304
83443SOL     OW52225   5.382   3.572  12.837
83443SOL    HW152226   5.416   3.558  12.749
83443SOL    HW252227   5.460   3.589  12.890
83444SOL     OW52228  13.327   5.324  12.883
83444SOL    HW152229  13.248   5.276  12.909
83444SOL    HW252230  13.376   5.262  12.829
83445SOL     OW52231   9.087   9.066   2.972
83445SOL    HW152232   9.123   9.094   3.056
83445SOL    HW252233   8.992   9.072   2.984
83446SOL     OW52234  14.268   9.153  12.326
83446SOL    HW152235  14.270   9.065  12.290
83446SOL    HW252236  14.347   9.158  12.380
83447SOL     OW52237   3.962   9.385   9.416
83447SOL    HW152238   4.018   9.367   9.341
83447SOL    HW252239   3.993   9.325   9.484
83448SOL     OW52240   1.433   2.316   6.876
83448SOL    HW152241   1.479   2.265   6.942
83448SOL    HW252242   1.466   2.283   6.793
83449SOL     OW52243   3.975   8.125   8.542
83449SOL    HW152244   4.033   8.061   8.502
83449SOL    HW252245   4.000   8.208   8.503
83450SOL     OW52246   6.181   3.640  10.176
83450SOL    HW152247   6.192   3.648  10.271
83450SOL    HW252248   6.148   3.726  10.149
83451SOL     OW52249   9.753   8.480  10.383
83451SOL    HW152250   9.835   8.432  10.368
83451SOL    HW252251   9.695   8.416  10.424
83452SOL     OW52252  12.227   4.322   3.393
83452SOL    HW152253  12.200   4.247   3.445
83452SOL    HW252254  12.284   4.286   3.325
83453SOL     OW52255   3.786  14.360  13.642
83453SOL    HW152256   3.718  14.293  13.630
83453SOL    HW252257   3.781  14.414  13.563
83454SOL     OW52258  10.242  11.738   5.124
83454SOL    HW152259  10.336  11.746   5.141
83454SOL    HW252260  10.202  11.808   5.176
83455SOL     OW52261   4.044   8.544   1.614
83455SOL    HW152262   3.992   8.508   1.685
83455SOL    HW252263   4.060   8.635   1.640
83456SOL     OW52264  11.197   9.294  12.840
83456SOL    HW152265  11.228   9.379  12.873
83456SOL    HW252266  11.102   9.303  12.840
83457SOL     OW52267   0.761   2.795   1.846
83457SOL    HW152268   0.804   2.879   1.831
83457SOL    HW252269   0.770   2.748   1.762
83458SOL     OW52270   3.910   4.180  12.788
83458SOL    HW152271   3.961   4.242  12.735
83458SOL    HW252272   3.820   4.191  12.756
83459SOL     OW52273  13.934  11.894  13.078
83459SOL    HW152274  13.947  11.934  13.164
83459SOL    HW252275  14.016  11.909  13.032
83460SOL     OW52276   0.148   0.982  13.032
83460SOL    HW152277   0.155   0.888  13.015
83460SOL    HW252278   0.239   1.013  13.034
83461SOL     OW52279   4.682   5.274   3.731
83461SOL    HW152280   4.597   5.231   3.738
83461SOL    HW252281   4.737   5.230   3.796
83462SOL     OW52282   3.949  12.906   3.272
83462SOL    HW152283   3.930  12.968   3.201
83462SOL    HW252284   3.918  12.822   3.239
83463SOL     OW52285  12.438   7.358   7.642
83463SOL    HW152286  12.397   7.439   7.610
83463SOL    HW252287  12.382   7.288   7.608
83464SOL     OW52288  10.684   5.519   5.620
83464SOL    HW152289  10.706   5.458   5.550
83464SOL    HW252290  10.598   5.490   5.651
83465SOL     OW52291   9.702  10.962   3.973
83465SOL    HW152292   9.631  10.906   4.003
83465SOL    HW252293   9.766  10.960   4.044
83466SOL     OW52294   0.687   1.867  10.347
83466SOL    HW152295   0.643   1.935  10.296
83466SOL    HW252296   0.689   1.901  10.436
83467SOL     OW52297   1.728  11.841   2.474
83467SOL    HW152298   1.733  11.916   2.532
83467SOL    HW252299   1.770  11.770   2.522
83468SOL     OW52300   0.016   8.241  13.214
83468SOL    HW152301  14.864   8.304  13.145
83468SOL    HW252302   0.038   8.161  13.166
83469SOL     OW52303   6.302   3.130   1.591
83469SOL    HW152304   6.285   3.047   1.634
83469SOL    HW252305   6.376   3.167   1.640
83470SOL     OW52306  11.505   5.391   8.925
83470SOL    HW152307  11.578   5.386   8.987
83470SOL    HW252308  11.453   5.313   8.943
83471SOL     OW52309   8.764   1.051  12.065
83471SOL    HW152310   8.716   1.080  11.987
83471SOL    HW252311   8.825   1.122  12.084
83472SOL     OW52312   0.804   9.677  13.540
83472SOL    HW152313   0.782   9.649  13.451
83472SOL    HW252314   0.838   9.599  13.583
83473SOL     OW52315   1.745   7.067   3.404
83473SOL    HW152316   1.805   7.043   3.332
83473SOL    HW252317   1.731   6.985   3.451
83474SOL     OW52318   8.746   2.311   5.192
83474SOL    HW152319   8.709   2.392   5.228
83474SOL    HW252320   8.674   2.269   5.146
83475SOL     OW52321  13.493   8.284   8.629
83475SOL    HW152322  13.555   8.212   8.636
83475SOL    HW252323  13.408   8.244   8.651
83476SOL     OW52324  14.229   5.615   9.694
83476SOL    HW152325  14.305   5.652   9.649
83476SOL    HW252326  14.266   5.554   9.758
83477SOL     OW52327   9.120   1.987   5.863
83477SOL    HW152328   9.085   2.043   5.793
83477SOL    HW252329   9.066   2.007   5.939
83478SOL     OW52330   8.882  12.345  11.094
83478SOL    HW152331   8.802  12.396  11.107
83478SOL    HW252332   8.908  12.365  11.004
83479SOL     OW52333   5.677  14.023   6.852
83479SOL    HW152334   5.620  14.096   6.877
83479SOL    HW252335   5.687  13.972   6.932
83480SOL     OW52336  10.060   2.789   5.301
83480SOL    HW152337   9.979   2.783   5.351
83480SOL    HW252338  10.031   2.811   5.212
83481SOL     OW52339  12.233   1.262  13.059
83481SOL    HW152340  12.177   1.219  12.994
83481SOL    HW252341  12.310   1.205  13.066
83482SOL     OW52342  10.838   5.089   1.670
83482SOL    HW152343  10.790   5.144   1.608
83482SOL    HW252344  10.914   5.058   1.621
83483SOL     OW52345  10.220   7.377  12.715
83483SOL    HW152346  10.212   7.384  12.810
83483SOL    HW252347  10.159   7.308  12.690
83484SOL     OW52348   8.968  14.655   2.295
83484SOL    HW152349   8.884  14.695   2.272
83484SOL    HW252350   8.947  14.563   2.311
83485SOL     OW52351   2.217  12.327   3.704
83485SOL    HW152352   2.147  12.368   3.754
83485SOL    HW252353   2.290  12.321   3.766
83486SOL     OW52354   7.670  10.659   8.104
83486SOL    HW152355   7.616  10.588   8.071
83486SOL    HW252356   7.616  10.702   8.170
83487SOL     OW52357  12.094   5.017  14.355
83487SOL    HW152358  12.046   5.054  14.281
83487SOL    HW252359  12.182   5.053  14.347
83488SOL     OW52360   3.320  10.544   4.464
83488SOL    HW152361   3.354  10.465   4.506
83488SOL    HW252362   3.300  10.603   4.537
83489SOL     OW52363   9.345   8.228  13.723
83489SOL    HW152364   9.337   8.133  13.738
83489SOL    HW252365   9.439   8.243  13.716
83490SOL     OW52366   6.209   2.624   0.515
83490SOL    HW152367   6.166   2.709   0.504
83490SOL    HW252368   6.145   2.560   0.482
83491SOL     OW52369  10.804   3.670  14.103
83491SOL    HW152370  10.720   3.637  14.071
83491SOL    HW252371  10.784   3.758  14.136
83492SOL     OW52372  13.667  14.831   3.021
83492SOL    HW152373  13.633  14.746   3.046
83492SOL    HW252374  13.610   0.022   3.066
83493SOL     OW52375  13.135   4.837  11.839
83493SOL    HW152376  13.114   4.858  11.748
83493SOL    HW252377  13.068   4.773  11.865
83494SOL     OW52378  11.986  13.986  14.375
83494SOL    HW152379  11.902  14.001  14.418
83494SOL    HW252380  11.997  14.060  14.315
83495SOL     OW52381   9.745  10.796   2.451
83495SOL    HW152382   9.809  10.839   2.508
83495SOL    HW252383   9.783  10.801   2.363
83496SOL     OW52384  13.784   7.845   2.418
83496SOL    HW152385  13.727   7.891   2.357
83496SOL    HW252386  13.813   7.768   2.369
83497SOL     OW52387   8.794   1.149  13.798
83497SOL    HW152388   8.752   1.161  13.712
83497SOL    HW252389   8.721   1.133  13.858
83498SOL     OW52390   0.635   8.755   1.336
83498SOL    HW152391   0.576   8.824   1.367
83498SOL    HW252392   0.679   8.793   1.260
83499SOL     OW52393  11.565   7.268   9.181
83499SOL    HW152394  11.516   7.325   9.240
83499SOL    HW252395  11.634   7.231   9.235
83500SOL     OW52396   4.863   4.313  13.940
83500SOL    HW152397   4.887   4.404  13.922
83500SOL    HW252398   4.945   4.265  13.930
83501SOL     OW52399   1.935   7.747   1.169
83501SOL    HW152400   1.966   7.747   1.079
83501SOL    HW252401   1.984   7.817   1.212
83502SOL     OW52402  14.392  13.072   8.948
83502SOL    HW152403  14.344  12.990   8.939
83502SOL    HW252404  14.414  13.097   8.858
83503SOL     OW52405  10.484   9.521  12.552
83503SOL    HW152406  10.481   9.451  12.617
83503SOL    HW252407  10.435   9.593  12.590
83504SOL     OW52408   2.240   6.162   0.599
83504SOL    HW152409   2.153   6.180   0.636
83504SOL    HW252410   2.233   6.072   0.566
83505SOL     OW52411   3.023   7.041  14.512
83505SOL    HW152412   2.991   7.024  14.601
83505SOL    HW252413   3.118   7.049  14.522
83506SOL     OW52414   3.117   0.576  14.829
83506SOL    HW152415   3.060   0.500  14.843
83506SOL    HW252416   3.137   0.607   0.046
83507SOL     OW52417   2.564  14.279  10.032
83507SOL    HW152418   2.603  14.304  10.116
83507SOL    HW252419   2.493  14.219  10.056
83508SOL     OW52420   0.700   6.453  14.375
83508SOL    HW152421   0.735   6.450  14.287
83508SOL    HW252422   0.625   6.394  14.374
83509SOL     OW52423   4.786  13.164   2.893
83509SOL    HW152424   4.708  13.194   2.940
83509SOL    HW252425   4.859  13.190   2.949
83510SOL     OW52426  14.755  12.953   1.091
83510SOL    HW152427  14.763  12.862   1.120
83510SOL    HW252428  14.662  12.962   1.068
83511SOL     OW52429   9.539   3.705   3.169
83511SOL    HW152430   9.473   3.773   3.156
83511SOL    HW252431   9.494   3.623   3.149
83512SOL     OW52432  12.899   8.843   1.031
83512SOL    HW152433  12.903   8.872   0.939
83512SOL    HW252434  12.977   8.789   1.042
83513SOL     OW52435   9.352  11.916  11.340
83513SOL    HW152436   9.299  11.864  11.279
83513SOL    HW252437   9.401  11.851  11.390
83514SOL     OW52438  12.608   7.894   7.731
83514SOL    HW152439  12.611   7.980   7.773
83514SOL    HW252440  12.656   7.906   7.649
83515SOL     OW52441   2.176   4.963   8.363
83515SOL    HW152442   2.231   4.974   8.285
83515SOL    HW252443   2.227   4.908   8.421
83516SOL     OW52444   0.248   1.960  14.305
83516SOL    HW152445   0.310   1.915  14.247
83516SOL    HW252446   0.162   1.940  14.268
83517SOL     OW52447  11.764  14.319   4.130
83517SOL    HW152448  11.807  14.315   4.216
83517SOL    HW252449  11.701  14.247   4.131
83518SOL     OW52450  10.029   5.577  11.653
83518SOL    HW152451   9.941   5.572  11.616
83518SOL    HW252452  10.087   5.558  11.580
83519SOL     OW52453  11.128   6.983  13.818
83519SOL    HW152454  11.217   6.959  13.843
83519SOL    HW252455  11.126   6.970  13.723
83520SOL     OW52456   2.093  11.676   5.697
83520SOL    HW152457   2.184  11.674   5.726
83520SOL    HW252458   2.046  11.718   5.769
83521SOL     OW52459   3.363   4.444   7.734
83521SOL    HW152460   3.426   4.383   7.696
83521SOL    HW252461   3.362   4.423   7.827
83522SOL     OW52462   5.529  11.359   0.039
83522SOL    HW152463   5.467  11.295   0.075
83522SOL    HW252464   5.474  11.431   0.008
83523SOL     OW52465   4.970   8.035  10.068
83523SOL    HW152466   4.915   8.111  10.049
83523SOL    HW252467   4.959   7.977   9.992
83524SOL     OW52468   0.873   6.417   3.357
83524SOL    HW152469   0.962   6.408   3.391
83524SOL    HW252470   0.826   6.462   3.427
83525SOL     OW52471  13.796  10.479   1.554
83525SOL    HW152472  13.739  10.541   1.509
83525SOL    HW252473  13.869  10.531   1.587
83526SOL     OW52474   0.309   2.623   6.100
83526SOL    HW152475   0.303   2.586   6.011
83526SOL    HW252476   0.219   2.625   6.132
83527SOL     OW52477   2.101   1.664   9.833
83527SOL    HW152478   2.094   1.759   9.848
83527SOL    HW252479   2.160   1.657   9.758
83528SOL     OW52480  12.230   1.507   3.289
83528SOL    HW152481  12.176   1.514   3.210
83528SOL    HW252482  12.218   1.592   3.333
83529SOL     OW52483  13.395   9.114   3.163
83529SOL    HW152484  13.369   9.027   3.134
83529SOL    HW252485  13.324   9.171   3.136
83530SOL     OW52486   7.926  11.810   6.151
83530SOL    HW152487   7.869  11.768   6.216
83530SOL    HW252488   8.013  11.811   6.193
83531SOL     OW52489   0.515   6.421  12.945
83531SOL    HW152490   0.522   6.338  12.992
83531SOL    HW252491   0.605   6.441  12.920
83532SOL     OW52492  10.821   6.739  13.183
83532SOL    HW152493  10.776   6.785  13.113
83532SOL    HW252494  10.867   6.667  13.140
83533SOL     OW52495  10.351  11.510   8.053
83533SOL    HW152496  10.446  11.497   8.050
83533SOL    HW252497  10.340  11.604   8.064
83534SOL     OW52498   8.522  13.515   5.197
83534SOL    HW152499   8.449  13.462   5.228
83534SOL    HW252500   8.490  13.605   5.199
83535SOL     OW52501   8.660   5.103   5.351
83535SOL    HW152502   8.670   5.060   5.437
83535SOL    HW252503   8.573   5.077   5.322
83536SOL     OW52504  11.481   9.947   4.489
83536SOL    HW152505  11.403   9.903   4.455
83536SOL    HW252506  11.455   9.975   4.577
83537SOL     OW52507  14.126   1.732  13.008
83537SOL    HW152508  14.193   1.664  13.003
83537SOL    HW252509  14.173   1.813  12.993
83538SOL     OW52510  11.734  10.938  13.948
83538SOL    HW152511  11.687  10.872  13.999
83538SOL    HW252512  11.730  10.906  13.858
83539SOL     OW52513   3.269   8.945   3.005
83539SOL    HW152514   3.185   8.990   3.015
83539SOL    HW252515   3.246   8.852   3.003
83540SOL     OW52516  11.992   0.513  12.295
83540SOL    HW152517  11.919   0.573  12.309
83540SOL    HW252518  11.955   0.426  12.311
83541SOL     OW52519  14.033   2.586  13.652
83541SOL    HW152520  13.993   2.551  13.732
83541SOL    HW252521  13.962   2.588  13.588
83542SOL     OW52522   0.613   8.400  13.021
83542SOL    HW152523   0.693   8.439  12.984
83542SOL    HW252524   0.565   8.369  12.944
83543SOL     OW52525   1.180  12.205   8.269
83543SOL    HW152526   1.242  12.166   8.207
83543SOL    HW252527   1.137  12.275   8.219
83544SOL     OW52528  11.058   1.662   5.514
83544SOL    HW152529  10.972   1.703   5.511
83544SOL    HW252530  11.099   1.698   5.593
83545SOL     OW52531   4.811  12.212   3.571
83545SOL    HW152532   4.886  12.153   3.582
83545SOL    HW252533   4.841  12.296   3.608
83546SOL     OW52534   0.719   8.252   8.303
83546SOL    HW152535   0.776   8.186   8.265
83546SOL    HW252536   0.724   8.237   8.397
83547SOL     OW52537   7.696   3.752   3.754
83547SOL    HW152538   7.666   3.703   3.678
83547SOL    HW252539   7.618   3.758   3.810
83548SOL     OW52540  14.630   1.753  13.337
83548SOL    HW152541  14.606   1.757  13.429
83548SOL    HW252542  14.711   1.702  13.335
83549SOL     OW52543   3.310   7.698   1.608
83549SOL    HW152544   3.395   7.741   1.606
83549SOL    HW252545   3.307   7.653   1.692
83550SOL     OW52546   5.543   5.386   9.121
83550SOL    HW152547   5.479   5.339   9.175
83550SOL    HW252548   5.497   5.404   9.039
83551SOL     OW52549   9.004   8.576   9.662
83551SOL    HW152550   9.043   8.662   9.643
83551SOL    HW252551   9.073   8.513   9.642
83552SOL     OW52552   3.649   6.853   7.257
83552SOL    HW152553   3.735   6.823   7.287
83552SOL    HW252554   3.663   6.944   7.230
83553SOL     OW52555  14.429   0.132   5.922
83553SOL    HW152556  14.426   0.194   5.995
83553SOL    HW252557  14.488   0.172   5.859
83554SOL     OW52558  12.684   4.979   0.538
83554SOL    HW152559  12.627   4.959   0.613
83554SOL    HW252560  12.627   5.021   0.475
83555SOL     OW52561   3.456   3.688  10.333
83555SOL    HW152562   3.468   3.603  10.291
83555SOL    HW252563   3.369   3.683  10.373
83556SOL     OW52564  12.474   2.325  11.277
83556SOL    HW152565  12.442   2.403  11.231
83556SOL    HW252566  12.413   2.256  11.250
83557SOL     OW52567   3.672   8.219   0.325
83557SOL    HW152568   3.631   8.239   0.241
83557SOL    HW252569   3.704   8.129   0.315
83558SOL     OW52570   7.181  14.136   9.631
83558SOL    HW152571   7.242  14.063   9.624
83558SOL    HW252572   7.135  14.121   9.714
83559SOL     OW52573   9.495  13.996   1.067
83559SOL    HW152574   9.464  14.063   1.007
83559SOL    HW252575   9.559  13.946   1.016
83560SOL     OW52576   2.821   1.296   9.811
83560SOL    HW152577   2.843   1.211   9.847
83560SOL    HW252578   2.733   1.286   9.775
83561SOL     OW52579   5.950  10.988   8.262
83561SOL    HW152580   5.859  11.010   8.283
83561SOL    HW252581   5.956  10.894   8.279
83562SOL     OW52582   3.146  12.211   6.483
83562SOL    HW152583   3.091  12.133   6.497
83562SOL    HW252584   3.189  12.225   6.567
83563SOL     OW52585  11.583   9.025   8.086
83563SOL    HW152586  11.502   8.975   8.092
83563SOL    HW252587  11.607   9.042   8.177
83564SOL     OW52588   0.680   1.503   1.156
83564SOL    HW152589   0.726   1.477   1.236
83564SOL    HW252590   0.750   1.532   1.097
83565SOL     OW52591   1.727  10.821   2.226
83565SOL    HW152592   1.725  10.890   2.161
83565SOL    HW252593   1.734  10.867   2.310
83566SOL     OW52594   7.096  10.051   5.077
83566SOL    HW152595   7.107   9.956   5.084
83566SOL    HW252596   7.048  10.064   4.996
83567SOL     OW52597  10.900   8.952   6.841
83567SOL    HW152598  10.905   9.043   6.812
83567SOL    HW252599  10.863   8.905   6.767
83568SOL     OW52600  11.874   1.110   1.056
83568SOL    HW152601  11.839   1.109   1.146
83568SOL    HW252602  11.900   1.019   1.041
83569SOL     OW52603  10.877  12.234   9.281
83569SOL    HW152604  10.829  12.294   9.337
83569SOL    HW252605  10.812  12.168   9.255
83570SOL     OW52606   6.061  10.220   9.602
83570SOL    HW152607   5.992  10.164   9.566
83570SOL    HW252608   6.028  10.247   9.688
83571SOL     OW52609   0.759   2.236   5.682
83571SOL    HW152610   0.758   2.206   5.773
83571SOL    HW252611   0.717   2.322   5.685
83572SOL     OW52612   6.097   9.154   9.817
83572SOL    HW152613   6.011   9.156   9.857
83572SOL    HW252614   6.101   9.234   9.765
83573SOL     OW52615  10.356  10.212   3.790
83573SOL    HW152616  10.380  10.301   3.765
83573SOL    HW252617  10.405  10.156   3.730
83574SOL     OW52618  12.331  11.510   6.377
83574SOL    HW152619  12.359  11.426   6.343
83574SOL    HW252620  12.370  11.574   6.318
83575SOL     OW52621  13.297   7.961   6.938
83575SOL    HW152622  13.211   7.990   6.969
83575SOL    HW252623  13.354   8.036   6.950
83576SOL     OW52624  13.870   8.350   4.198
83576SOL    HW152625  13.873   8.293   4.275
83576SOL    HW252626  13.940   8.414   4.213
83577SOL     OW52627   1.403   8.439   0.124
83577SOL    HW152628   1.420   8.530   0.148
83577SOL    HW252629   1.330   8.444   0.062
83578SOL     OW52630   6.090   6.975   0.694
83578SOL    HW152631   6.162   6.957   0.634
83578SOL    HW252632   6.122   6.944   0.779
83579SOL     OW52633   8.698   3.457   0.125
83579SOL    HW152634   8.716   3.539   0.079
83579SOL    HW252635   8.672   3.483   0.213
83580SOL     OW52636   3.342  10.403  14.518
83580SOL    HW152637   3.428  10.418  14.479
83580SOL    HW252638   3.358  10.400  14.612
83581SOL     OW52639   6.911   6.860   2.630
83581SOL    HW152640   6.819   6.843   2.611
83581SOL    HW252641   6.924   6.824   2.718
83582SOL     OW52642   9.623   5.192   3.346
83582SOL    HW152643   9.712   5.200   3.382
83582SOL    HW252644   9.566   5.220   3.418
83583SOL     OW52645   6.627  12.632   7.079
83583SOL    HW152646   6.592  12.543   7.075
83583SOL    HW252647   6.653  12.643   7.170
83584SOL     OW52648   2.834   9.207   0.981
83584SOL    HW152649   2.853   9.269   0.911
83584SOL    HW252650   2.751   9.238   1.018
83585SOL     OW52651   9.912  13.971   5.473
83585SOL    HW152652   9.872  13.885   5.467
83585SOL    HW252653   9.997  13.961   5.429
83586SOL     OW52654  14.740   2.638   3.187
83586SOL    HW152655  14.763   2.582   3.113
83586SOL    HW252656  14.733   2.726   3.149
83587SOL     OW52657   4.381  14.020   1.392
83587SOL    HW152658   4.330  13.977   1.460
83587SOL    HW252659   4.323  14.089   1.358
83588SOL     OW52660  11.625   8.189  14.298
83588SOL    HW152661  11.596   8.279  14.284
83588SOL    HW252662  11.720   8.192  14.284
83589SOL     OW52663   0.523  13.605   7.422
83589SOL    HW152664   0.433  13.574   7.409
83589SOL    HW252665   0.555  13.555   7.498
83590SOL     OW52666  13.244  13.311   3.225
83590SOL    HW152667  13.304  13.351   3.288
83590SOL    HW252668  13.176  13.378   3.212
83591SOL     OW52669   0.268  10.322   4.288
83591SOL    HW152670   0.242  10.368   4.368
83591SOL    HW252671   0.289  10.233   4.318
83592SOL     OW52672   7.558   6.494   2.617
83592SOL    HW152673   7.641   6.541   2.626
83592SOL    HW252674   7.494   6.551   2.659
83593SOL     OW52675   3.749   6.955   9.332
83593SOL    HW152676   3.827   6.933   9.281
83593SOL    HW252677   3.709   7.029   9.284
83594SOL     OW52678   3.006  13.358   5.364
83594SOL    HW152679   2.980  13.288   5.304
83594SOL    HW252680   3.085  13.395   5.324
83595SOL     OW52681  12.954  11.035  11.158
83595SOL    HW152682  12.975  11.124  11.185
83595SOL    HW252683  12.871  11.016  11.202
83596SOL     OW52684   4.942   1.482  14.637
83596SOL    HW152685   4.898   1.565  14.655
83596SOL    HW252686   4.899   1.419  14.695
83597SOL     OW52687  10.148   9.196  14.679
83597SOL    HW152688  10.146   9.142  14.599
83597SOL    HW252689  10.178   9.136  14.747
83598SOL     OW52690   3.969   1.907   0.056
83598SOL    HW152691   3.923   1.986   0.025
83598SOL    HW252692   4.032   1.940   0.119
83599SOL     OW52693   1.351   6.526   6.165
83599SOL    HW152694   1.407   6.537   6.088
83599SOL    HW252695   1.397   6.574   6.235
83600SOL     OW52696   5.289   7.220   1.514
83600SOL    HW152697   5.345   7.266   1.577
83600SOL    HW252698   5.244   7.153   1.567
83601SOL     OW52699   0.189   7.328   3.640
83601SOL    HW152700   0.239   7.249   3.619
83601SOL    HW252701   0.140   7.348   3.560
83602SOL     OW52702   3.039   1.253   7.277
83602SOL    HW152703   2.996   1.327   7.234
83602SOL    HW252704   3.016   1.262   7.369
83603SOL     OW52705  11.303  14.214   5.441
83603SOL    HW152706  11.365  14.287   5.444
83603SOL    HW252707  11.287  14.201   5.348
83604SOL     OW52708  12.838   7.043  12.696
83604SOL    HW152709  12.755   7.082  12.725
83604SOL    HW252710  12.905   7.094  12.742
83605SOL     OW52711   5.649  13.657  14.624
83605SOL    HW152712   5.732  13.655  14.672
83605SOL    HW252713   5.584  13.628  14.688
83606SOL     OW52714   0.693   8.344  10.139
83606SOL    HW152715   0.604   8.317  10.115
83606SOL    HW252716   0.739   8.352  10.056
83607SOL     OW52717  10.537  11.714   1.197
83607SOL    HW152718  10.488  11.772   1.255
83607SOL    HW252719  10.475  11.690   1.129
83608SOL     OW52720  11.340  11.752   9.877
83608SOL    HW152721  11.334  11.786   9.788
83608SOL    HW252722  11.404  11.809   9.920
83609SOL     OW52723  12.208   7.701  11.297
83609SOL    HW152724  12.277   7.766  11.286
83609SOL    HW252725  12.231   7.631  11.236
83610SOL     OW52726  10.548   4.007   0.426
83610SOL    HW152727  10.632   4.039   0.458
83610SOL    HW252728  10.507   4.083   0.383
83611SOL     OW52729   4.297  11.918   6.219
83611SOL    HW152730   4.308  11.888   6.129
83611SOL    HW252731   4.219  11.974   6.216
83612SOL     OW52732  10.565  12.510   4.548
83612SOL    HW152733  10.476  12.528   4.517
83612SOL    HW252734  10.611  12.593   4.536
83613SOL     OW52735   1.365   5.353   8.398
83613SOL    HW152736   1.383   5.395   8.481
83613SOL    HW252737   1.450   5.350   8.354
83614SOL     OW52738  10.150   2.669   2.217
83614SOL    HW152739  10.102   2.587   2.206
83614SOL    HW252740  10.207   2.673   2.140
83615SOL     OW52741   6.230   0.247  13.158
83615SOL    HW152742   6.144   0.265  13.195
83615SOL    HW252743   6.237   0.151  13.159
83616SOL     OW52744  10.739   2.829   7.719
83616SOL    HW152745  10.730   2.925   7.719
83616SOL    HW252746  10.650   2.798   7.736
83617SOL     OW52747   5.240   1.378   2.544
83617SOL    HW152748   5.222   1.342   2.631
83617SOL    HW252749   5.319   1.430   2.555
83618SOL     OW52750   6.748   4.902   7.652
83618SOL    HW152751   6.727   4.870   7.565
83618SOL    HW252752   6.819   4.965   7.638
83619SOL     OW52753   8.174   2.277   1.213
83619SOL    HW152754   8.247   2.299   1.155
83619SOL    HW252755   8.192   2.187   1.242
83620SOL     OW52756  12.256  11.730   0.640
83620SOL    HW152757  12.225  11.812   0.600
83620SOL    HW252758  12.312  11.759   0.713
83621SOL     OW52759   3.868   7.618  13.133
83621SOL    HW152760   3.853   7.698  13.083
83621SOL    HW252761   3.799   7.618  13.199
83622SOL     OW52762  11.106   5.246   4.035
83622SOL    HW152763  11.157   5.310   4.084
83622SOL    HW252764  11.170   5.181   4.007
83623SOL     OW52765  13.115   5.330   4.612
83623SOL    HW152766  13.111   5.373   4.527
83623SOL    HW252767  13.208   5.314   4.627
83624SOL     OW52768  10.261   5.739  12.313
83624SOL    HW152769  10.231   5.710  12.227
83624SOL    HW252770  10.354   5.714  12.316
83625SOL     OW52771   8.085  13.547   3.443
83625SOL    HW152772   8.020  13.510   3.502
83625SOL    HW252773   8.169  13.533   3.487
83626SOL     OW52774  12.297   7.449   4.450
83626SOL    HW152775  12.338   7.495   4.523
83626SOL    HW252776  12.325   7.358   4.459
83627SOL     OW52777   2.022   7.503   4.331
83627SOL    HW152778   1.944   7.555   4.311
83627SOL    HW252779   2.043   7.527   4.421
83628SOL     OW52780  14.138   9.317   6.388
83628SOL    HW152781  14.143   9.360   6.473
83628SOL    HW252782  14.225   9.328   6.350
83629SOL     OW52783  11.297   3.418  10.247
83629SOL    HW152784  11.380   3.461  10.223
83629SOL    HW252785  11.231   3.485  10.233
83630SOL     OW52786   8.243  12.371  13.894
83630SOL    HW152787   8.295  12.428  13.836
83630SOL    HW252788   8.290  12.374  13.978
83631SOL     OW52789   8.939   6.622   0.029
83631SOL    HW152790   8.937   6.609   0.124
83631SOL    HW252791   8.918   6.714   0.017
83632SOL     OW52792  13.478   4.161  11.288
83632SOL    HW152793  13.412   4.155  11.219
83632SOL    HW252794  13.466   4.248  11.326
83633SOL     OW52795   0.841   3.574   2.041
83633SOL    HW152796   0.904   3.631   2.086
83633SOL    HW252797   0.894   3.501   2.009
83634SOL     OW52798   6.278   5.477   6.542
83634SOL    HW152799   6.305   5.517   6.460
83634SOL    HW252800   6.277   5.549   6.605
83635SOL     OW52801  10.747   8.257   1.264
83635SOL    HW152802  10.685   8.236   1.194
83635SOL    HW252803  10.740   8.351   1.276
83636SOL     OW52804  10.623   4.307  10.851
83636SOL    HW152805  10.596   4.389  10.810
83636SOL    HW252806  10.639   4.331  10.943
83637SOL     OW52807   8.968   2.155   4.738
83637SOL    HW152808   9.036   2.096   4.770
83637SOL    HW252809   9.004   2.242   4.752
83638SOL     OW52810  12.975  14.367   0.942
83638SOL    HW152811  12.894  14.365   0.993
83638SOL    HW252812  12.947  14.356   0.851
83639SOL     OW52813  14.500   3.215   3.937
83639SOL    HW152814  14.594   3.229   3.922
83639SOL    HW252815  14.495   3.176   4.024
83640SOL     OW52816   5.264   7.371  10.394
83640SOL    HW152817   5.288   7.279  10.406
83640SOL    HW252818   5.222   7.396  10.477
83641SOL     OW52819   2.169   2.691   7.304
83641SOL    HW152820   2.146   2.782   7.282
83641SOL    HW252821   2.264   2.688   7.297
83642SOL     OW52822   4.863   2.231  13.394
83642SOL    HW152823   4.776   2.263  13.417
83642SOL    HW252824   4.851   2.183  13.313
83643SOL     OW52825  13.582   8.333   7.713
83643SOL    HW152826  13.545   8.245   7.717
83643SOL    HW252827  13.564   8.364   7.625
83644SOL     OW52828  11.785  12.805   7.502
83644SOL    HW152829  11.880  12.804   7.514
83644SOL    HW252830  11.773  12.814   7.407
83645SOL     OW52831   7.013   2.283   2.174
83645SOL    HW152832   7.063   2.221   2.121
83645SOL    HW252833   6.922   2.261   2.157
83646SOL     OW52834   2.959   8.392  11.388
83646SOL    HW152835   3.028   8.459  11.381
83646SOL    HW252836   2.921   8.406  11.475
83647SOL     OW52837  13.947   3.153   0.023
83647SOL    HW152838  14.031   3.146   0.069
83647SOL    HW252839  13.915   3.063   0.019
83648SOL     OW52840  13.922   1.331   6.684
83648SOL    HW152841  13.889   1.419   6.664
83648SOL    HW252842  14.002   1.323   6.632
83649SOL     OW52843   3.585   9.863  14.780
83649SOL    HW152844   3.655   9.837  14.840
83649SOL    HW252845   3.607   9.818  14.698
83650SOL     OW52846   0.472  10.609  10.646
83650SOL    HW152847   0.517  10.525  10.638
83650SOL    HW252848   0.405  10.608  10.577
83651SOL     OW52849   6.183   6.666  13.000
83651SOL    HW152850   6.213   6.675  13.091
83651SOL    HW252851   6.173   6.756  12.970
83652SOL     OW52852   8.386   2.808  10.125
83652SOL    HW152853   8.297   2.835  10.103
83652SOL    HW252854   8.374   2.732  10.182
83653SOL     OW52855   9.349   9.065   0.780
83653SOL    HW152856   9.444   9.053   0.773
83653SOL    HW252857   9.330   9.138   0.722
83654SOL     OW52858   0.437   7.231   0.270
83654SOL    HW152859   0.427   7.287   0.347
83654SOL    HW252860   0.496   7.161   0.299
83655SOL     OW52861   8.987   8.645   5.124
83655SOL    HW152862   8.935   8.722   5.106
83655SOL    HW252863   8.932   8.591   5.181
83656SOL     OW52864   1.224   7.916   8.279
83656SOL    HW152865   1.210   7.984   8.212
83656SOL    HW252866   1.281   7.852   8.236
83657SOL     OW52867  12.778   3.673   0.522
83657SOL    HW152868  12.781   3.624   0.604
83657SOL    HW252869  12.803   3.609   0.455
83658SOL     OW52870   5.077   6.338   4.362
83658SOL    HW152871   5.018   6.412   4.379
83658SOL    HW252872   5.018   6.265   4.344
83659SOL     OW52873   6.322   7.909  14.360
83659SOL    HW152874   6.249   7.847  14.358
83659SOL    HW252875   6.286   7.990  14.324
83660SOL     OW52876  14.861   6.053  10.969
83660SOL    HW152877  14.836   6.046  11.061
83660SOL    HW252878   0.083   6.074  10.972
83661SOL     OW52879  10.588  12.924   4.700
83661SOL    HW152880  10.540  12.846   4.670
83661SOL    HW252881  10.673  12.918   4.657
83662SOL     OW52882   8.348  10.095   8.843
83662SOL    HW152883   8.434  10.135   8.829
83662SOL    HW252884   8.292  10.167   8.871
83663SOL     OW52885  12.621  13.895   4.285
83663SOL    HW152886  12.672  13.945   4.221
83663SOL    HW252887  12.559  13.958   4.321
83664SOL     OW52888   1.846   6.875   0.128
83664SOL    HW152889   1.878   6.797   0.174
83664SOL    HW252890   1.791   6.920   0.192
83665SOL     OW52891   8.483  14.232   3.740
83665SOL    HW152892   8.492  14.299   3.673
83665SOL    HW252893   8.501  14.278   3.823
83666SOL     OW52894   4.278   5.069   2.422
83666SOL    HW152895   4.283   5.119   2.503
83666SOL    HW252896   4.337   5.114   2.362
83667SOL     OW52897  12.153   1.351  10.097
83667SOL    HW152898  12.118   1.365  10.185
83667SOL    HW252899  12.240   1.392  10.099
83668SOL     OW52900   4.799  10.237   2.933
83668SOL    HW152901   4.770  10.292   3.006
83668SOL    HW252902   4.720  10.223   2.881
83669SOL     OW52903   4.829  12.798   7.964
83669SOL    HW152904   4.837  12.704   7.950
83669SOL    HW252905   4.765  12.806   8.035
83670SOL     OW52906   4.808   0.191   5.023
83670SOL    HW152907   4.814   0.284   5.043
83670SOL    HW252908   4.863   0.148   5.089
83671SOL     OW52909   9.103  10.100   8.375
83671SOL    HW152910   9.092  10.162   8.303
83671SOL    HW252911   9.076  10.015   8.338
83672SOL     OW52912  14.102  14.050   1.509
83672SOL    HW152913  14.150  13.981   1.463
83672SOL    HW252914  14.151  14.064   1.590
83673SOL     OW52915   0.743   4.510   8.253
83673SOL    HW152916   0.788   4.428   8.232
83673SOL    HW252917   0.655   4.499   8.219
83674SOL     OW52918  11.345   7.300   1.696
83674SOL    HW152919  11.386   7.291   1.782
83674SOL    HW252920  11.408   7.263   1.635
83675SOL     OW52921   8.040   5.281   9.756
83675SOL    HW152922   7.989   5.360   9.734
83675SOL    HW252923   8.118   5.315   9.800
83676SOL     OW52924  13.723   3.816   1.744
83676SOL    HW152925  13.722   3.821   1.648
83676SOL    HW252926  13.658   3.750   1.766
83677SOL     OW52927  12.371   8.739  13.426
83677SOL    HW152928  12.460   8.768  13.405
83677SOL    HW252929  12.343   8.691  13.348
83678SOL     OW52930   5.572   2.146   3.560
83678SOL    HW152931   5.543   2.147   3.468
83678SOL    HW252932   5.589   2.054   3.579
83679SOL     OW52933  14.651   7.699  11.976
83679SOL    HW152934  14.587   7.737  12.036
83679SOL    HW252935  14.602   7.632  11.928
83680SOL     OW52936   1.124   7.135  12.044
83680SOL    HW152937   1.086   7.123  11.957
83680SOL    HW252938   1.062   7.191  12.090
83681SOL     OW52939  10.559  13.664   3.211
83681SOL    HW152940  10.635  13.611   3.187
83681SOL    HW252941  10.558  13.735   3.147
83682SOL     OW52942   6.026   4.144  14.819
83682SOL    HW152943   5.974   4.216  14.856
83682SOL    HW252944   6.004   4.145  14.726
83683SOL     OW52945   3.561   0.806   8.047
83683SOL    HW152946   3.483   0.784   7.996
83683SOL    HW252947   3.634   0.779   7.992
83684SOL     OW52948   1.239   1.003  12.196
83684SOL    HW152949   1.182   1.032  12.125
83684SOL    HW252950   1.204   0.918  12.223
83685SOL     OW52951   2.103   6.828   5.973
83685SOL    HW152952   2.027   6.807   6.028
83685SOL    HW252953   2.073   6.812   5.883
83686SOL     OW52954   2.754   9.655   0.288
83686SOL    HW152955   2.839   9.621   0.317
83686SOL    HW252956   2.739   9.731   0.344
83687SOL     OW52957  12.483   3.123   4.789
83687SOL    HW152958  12.562   3.074   4.768
83687SOL    HW252959  12.457   3.162   4.706
83688SOL     OW52960   7.453  11.814   8.831
83688SOL    HW152961   7.525  11.751   8.840
83688SOL    HW252962   7.373  11.761   8.840
83689SOL     OW52963   6.186   9.614   0.560
83689SOL    HW152964   6.233   9.545   0.606
83689SOL    HW252965   6.201   9.692   0.614
83690SOL     OW52966   5.300   5.219   8.545
83690SOL    HW152967   5.274   5.143   8.596
83690SOL    HW252968   5.218   5.266   8.528
83691SOL     OW52969   5.035   9.968   1.222
83691SOL    HW152970   5.047   9.977   1.316
83691SOL    HW252971   4.941   9.955   1.211
83692SOL     OW52972   0.455   0.638   5.719
83692SOL    HW152973   0.517   0.570   5.745
83692SOL    HW252974   0.489   0.718   5.759
83693SOL     OW52975   9.004   5.154  13.219
83693SOL    HW152976   9.065   5.219  13.185
83693SOL    HW252977   8.985   5.182  13.308
83694SOL     OW52978   0.537   3.895   0.947
83694SOL    HW152979   0.492   3.850   0.875
83694SOL    HW252980   0.615   3.933   0.906
83695SOL     OW52981   7.351  12.316   4.929
83695SOL    HW152982   7.429  12.286   4.976
83695SOL    HW252983   7.311  12.381   4.988
83696SOL     OW52984  12.052   5.126  11.140
83696SOL    HW152985  11.984   5.095  11.079
83696SOL    HW252986  12.030   5.085  11.223
83697SOL     OW52987   6.507  11.145   3.278
83697SOL    HW152988   6.557  11.198   3.216
83697SOL    HW252989   6.541  11.171   3.364
83698SOL     OW52990   6.867   0.826   6.252
83698SOL    HW152991   6.911   0.887   6.192
83698SOL    HW252992   6.774   0.844   6.240
83699SOL     OW52993   5.446   8.221  14.747
83699SOL    HW152994   5.406   8.139  14.774
83699SOL    HW252995   5.540   8.203  14.744
83700SOL     OW52996  13.804  11.017   3.257
83700SOL    HW152997  13.738  10.949   3.267
83700SOL    HW252998  13.819  11.049   3.346
83701SOL     OW52999   0.834  12.690  11.156
83701SOL    HW153000   0.890  12.674  11.080
83701SOL    HW253001   0.745  12.679  11.124
83702SOL     OW53002   0.321   1.082   2.737
83702SOL    HW153003   0.297   1.017   2.670
83702SOL    HW253004   0.238   1.103   2.779
83703SOL     OW53005   6.845   9.099   2.130
83703SOL    HW153006   6.933   9.065   2.143
83703SOL    HW253007   6.795   9.066   2.205
83704SOL     OW53008   8.188  10.822  12.829
83704SOL    HW153009   8.177  10.727  12.836
83704SOL    HW253010   8.155  10.844  12.742
83705SOL     OW53011   2.182   8.525   8.589
83705SOL    HW153012   2.150   8.472   8.516
83705SOL    HW253013   2.231   8.596   8.548
83706SOL     OW53014  12.103   2.823  14.605
83706SOL    HW153015  12.061   2.759  14.663
83706SOL    HW253016  12.063   2.907  14.627
83707SOL     OW53017   1.384  14.354   4.308
83707SOL    HW153018   1.380  14.299   4.230
83707SOL    HW253019   1.341  14.435   4.282
83708SOL     OW53020   1.231  10.880  14.455
83708SOL    HW153021   1.160  10.929  14.413
83708SOL    HW253022   1.220  10.898  14.548
83709SOL     OW53023   7.571   7.550   4.185
83709SOL    HW153024   7.508   7.605   4.137
83709SOL    HW253025   7.594   7.480   4.123
83710SOL     OW53026   0.039   5.851   9.333
83710SOL    HW153027  14.844   5.849   9.264
83710SOL    HW253028   0.113   5.896   9.294
83711SOL     OW53029  10.326   7.065  10.313
83711SOL    HW153030  10.356   7.142  10.264
83711SOL    HW253031  10.324   7.094  10.404
83712SOL     OW53032   2.461   3.777   8.126
83712SOL    HW153033   2.537   3.803   8.178
83712SOL    HW253034   2.466   3.829   8.046
83713SOL     OW53035   1.191  11.247   7.453
83713SOL    HW153036   1.284  11.268   7.464
83713SOL    HW253037   1.167  11.203   7.535
83714SOL     OW53038  14.182   9.439   2.831
83714SOL    HW153039  14.156   9.477   2.747
83714SOL    HW253040  14.267   9.478   2.851
83715SOL     OW53041   0.957  10.263   7.761
83715SOL    HW153042   0.885  10.289   7.819
83715SOL    HW253043   0.995  10.186   7.803
83716SOL     OW53044   9.266   1.061  11.226
83716SOL    HW153045   9.321   1.128  11.185
83716SOL    HW253046   9.268   0.987  11.165
83717SOL     OW53047   1.203   1.334   4.322
83717SOL    HW153048   1.280   1.381   4.353
83717SOL    HW253049   1.166   1.390   4.254
83718SOL     OW53050   4.337   9.894   9.428
83718SOL    HW153051   4.345   9.816   9.372
83718SOL    HW253052   4.426   9.911   9.457
83719SOL     OW53053   2.157   0.645   6.924
83719SOL    HW153054   2.118   0.558   6.914
83719SOL    HW253055   2.097   0.704   6.878
83720SOL     OW53056  14.571  10.768   9.097
83720SOL    HW153057  14.479  10.792   9.090
83720SOL    HW253058  14.574  10.704   9.169
83721SOL     OW53059   7.798   8.243   6.414
83721SOL    HW153060   7.712   8.202   6.426
83721SOL    HW253061   7.841   8.234   6.499
83722SOL     OW53062   4.760  13.010  12.222
83722SOL    HW153063   4.815  12.937  12.252
83722SOL    HW253064   4.785  13.023  12.131
83723SOL     OW53065  14.862   6.456   6.239
83723SOL    HW153066  14.774   6.486   6.260
83723SOL    HW253067   0.035   6.451   6.323
83724SOL     OW53068   2.936   4.143  14.419
83724SOL    HW153069   2.936   4.202  14.344
83724SOL    HW253070   2.934   4.201  14.496
83725SOL     OW53071   0.215   8.022   5.114
83725SOL    HW153072   0.243   8.099   5.163
83725SOL    HW253073   0.253   8.034   5.027
83726SOL     OW53074  11.078   9.207   7.821
83726SOL    HW153075  11.138   9.133   7.819
83726SOL    HW253076  11.123   9.272   7.876
83727SOL     OW53077   1.801   6.830   6.020
83727SOL    HW153078   1.724   6.863   5.975
83727SOL    HW253079   1.843   6.772   5.956
83728SOL     OW53080   1.169   4.415  12.961
83728SOL    HW153081   1.077   4.412  12.985
83728SOL    HW253082   1.169   4.398  12.866
83729SOL     OW53083   6.856   4.375   3.530
83729SOL    HW153084   6.859   4.367   3.435
83729SOL    HW253085   6.922   4.441   3.551
83730SOL     OW53086  14.365   7.567  12.106
83730SOL    HW153087  14.351   7.630  12.177
83730SOL    HW253088  14.305   7.595  12.037
83731SOL     OW53089   9.838  13.279   4.999
83731SOL    HW153090   9.854  13.236   4.915
83731SOL    HW253091   9.812  13.209   5.058
83732SOL     OW53092   6.534   1.931   4.177
83732SOL    HW153093   6.598   1.980   4.228
83732SOL    HW253094   6.580   1.912   4.094
83733SOL     OW53095   2.772   0.584   1.811
83733SOL    HW153096   2.783   0.639   1.889
83733SOL    HW253097   2.770   0.495   1.845
83734SOL     OW53098  10.174   3.662  14.288
83734SOL    HW153099  10.213   3.744  14.320
83734SOL    HW253100  10.081   3.671  14.308
83735SOL     OW53101   4.703   8.758   7.723
83735SOL    HW153102   4.636   8.763   7.791
83735SOL    HW253103   4.690   8.837   7.671
83736SOL     OW53104  13.189   2.696   3.136
83736SOL    HW153105  13.226   2.781   3.158
83736SOL    HW253106  13.202   2.688   3.042
83737SOL     OW53107   2.226   4.664   5.587
83737SOL    HW153108   2.285   4.656   5.662
83737SOL    HW253109   2.209   4.758   5.580
83738SOL     OW53110  10.303   4.711   3.883
83738SOL    HW153111  10.218   4.746   3.912
83738SOL    HW253112  10.363   4.786   3.890
83739SOL     OW53113  14.176   9.570   6.749
83739SOL    HW153114  14.208   9.489   6.708
83739SOL    HW253115  14.084   9.575   6.721
83740SOL     OW53116   0.246   6.438   3.460
83740SOL    HW153117   0.247   6.344   3.442
83740SOL    HW253118   0.259   6.444   3.555
83741SOL     OW53119  10.550   7.805  14.137
83741SOL    HW153120  10.485   7.794  14.068
83741SOL    HW253121  10.540   7.896  14.165
83742SOL     OW53122  10.360  12.157   2.828
83742SOL    HW153123  10.341  12.206   2.908
83742SOL    HW253124  10.275  12.144   2.786
83743SOL     OW53125  14.669   7.072   3.258
83743SOL    HW153126  14.755   7.082   3.219
83743SOL    HW253127  14.650   7.158   3.297
83744SOL     OW53128   3.304   4.486  14.733
83744SOL    HW153129   3.389   4.477  14.690
83744SOL    HW253130   3.288   4.401  14.774
83745SOL     OW53131   8.574   3.664   9.135
83745SOL    HW153132   8.630   3.598   9.093
83745SOL    HW253133   8.561   3.731   9.068
83746SOL     OW53134   7.893   2.989  11.662
83746SOL    HW153135   7.969   2.941  11.631
83746SOL    HW253136   7.926   3.077  11.681
83747SOL     OW53137   3.748   3.960   5.218
83747SOL    HW153138   3.727   4.042   5.173
83747SOL    HW253139   3.728   3.978   5.310
83748SOL     OW53140  13.080   1.866   1.753
83748SOL    HW153141  13.020   1.792   1.742
83748SOL    HW253142  13.140   1.859   1.678
83749SOL     OW53143  10.438  10.148   8.500
83749SOL    HW153144  10.404  10.128   8.587
83749SOL    HW253145  10.380  10.216   8.466
83750SOL     OW53146   2.108  14.074   6.562
83750SOL    HW153147   2.090  14.034   6.477
83750SOL    HW253148   2.203  14.076   6.568
83751SOL     OW53149  12.191   5.221  11.981
83751SOL    HW153150  12.233   5.290  12.032
83751SOL    HW253151  12.218   5.239  11.891
83752SOL     OW53152   8.367  13.888   6.625
83752SOL    HW153153   8.334  13.817   6.570
83752SOL    HW253154   8.374  13.850   6.712
83753SOL     OW53155  12.372   9.215   2.086
83753SOL    HW153156  12.285   9.255   2.078
83753SOL    HW253157  12.431   9.290   2.093
83754SOL     OW53158   5.515  12.415   1.651
83754SOL    HW153159   5.602  12.424   1.689
83754SOL    HW253160   5.531  12.396   1.558
83755SOL     OW53161   4.247  11.384   7.474
83755SOL    HW153162   4.306  11.426   7.535
83755SOL    HW253163   4.190  11.330   7.528
83756SOL     OW53164   3.854   1.201  11.659
83756SOL    HW153165   3.936   1.195  11.609
83756SOL    HW253166   3.853   1.291  11.692
83757SOL     OW53167  13.174  12.241  13.202
83757SOL    HW153168  13.132  12.320  13.237
83757SOL    HW253169  13.111  12.206  13.139
83758SOL     OW53170  14.339  12.400   2.900
83758SOL    HW153171  14.332  12.316   2.945
83758SOL    HW253172  14.289  12.461   2.953
83759SOL     OW53173   1.669   5.145  13.356
83759SOL    HW153174   1.643   5.053  13.356
83759SOL    HW253175   1.749   5.148  13.408
83760SOL     OW53176   1.326   4.703   3.171
83760SOL    HW153177   1.344   4.752   3.251
83760SOL    HW253178   1.329   4.768   3.101
83761SOL     OW53179   0.222  11.682  12.391
83761SOL    HW153180   0.229  11.652  12.301
83761SOL    HW253181   0.183  11.609  12.439
83762SOL     OW53182   5.699   3.896   1.112
83762SOL    HW153183   5.606   3.920   1.114
83762SOL    HW253184   5.720   3.872   1.202
83763SOL     OW53185  13.841  12.448  13.297
83763SOL    HW153186  13.930  12.424  13.323
83763SOL    HW253187  13.852  12.491  13.212
83764SOL     OW53188   8.296   6.465   6.835
83764SOL    HW153189   8.262   6.502   6.916
83764SOL    HW253190   8.326   6.540   6.785
83765SOL     OW53191   6.774  10.229   4.090
83765SOL    HW153192   6.756  10.260   4.179
83765SOL    HW253193   6.826  10.300   4.051
83766SOL     OW53194   9.035   9.872  12.020
83766SOL    HW153195   8.950   9.828  12.022
83766SOL    HW253196   9.030   9.930  11.945
83767SOL     OW53197   8.199  12.872   6.849
83767SOL    HW153198   8.250  12.819   6.910
83767SOL    HW253199   8.114  12.828   6.843
83768SOL     OW53200   5.795   2.085  13.905
83768SOL    HW153201   5.797   2.137  13.824
83768SOL    HW253202   5.725   2.125  13.957
83769SOL     OW53203  11.700  13.050   7.352
83769SOL    HW153204  11.634  13.051   7.421
83769SOL    HW253205  11.657  13.006   7.279
83770SOL     OW53206   4.142   2.699  10.581
83770SOL    HW153207   4.155   2.612  10.542
83770SOL    HW253208   4.071   2.738  10.531
83771SOL     OW53209  12.246   8.547   1.472
83771SOL    HW153210  12.167   8.601   1.463
83771SOL    HW253211  12.225   8.484   1.541
83772SOL     OW53212   9.808   5.348   5.757
83772SOL    HW153213   9.778   5.259   5.775
83772SOL    HW253214   9.816   5.389   5.843
83773SOL     OW53215   1.932   2.715  12.771
83773SOL    HW153216   1.902   2.806  12.779
83773SOL    HW253217   2.005   2.720  12.709
83774SOL     OW53218  12.647   7.250   8.000
83774SOL    HW153219  12.661   7.253   7.906
83774SOL    HW253220  12.725   7.292   8.037
83775SOL     OW53221   4.009  12.640   8.906
83775SOL    HW153222   3.933  12.665   8.854
83775SOL    HW253223   4.008  12.545   8.907
83776SOL     OW53224   7.278   3.168   8.450
83776SOL    HW153225   7.299   3.095   8.392
83776SOL    HW253226   7.224   3.227   8.396
83777SOL     OW53227   0.514   8.410   4.227
83777SOL    HW153228   0.507   8.410   4.323
83777SOL    HW253229   0.426   8.431   4.196
83778SOL     OW53230  11.970   9.322   4.356
83778SOL    HW153231  11.913   9.399   4.357
83778SOL    HW253232  11.974   9.294   4.447
83779SOL     OW53233   2.118   0.424  14.535
83779SOL    HW153234   2.119   0.513  14.570
83779SOL    HW253235   2.197   0.419  14.480
83780SOL     OW53236   7.803   0.380   5.740
83780SOL    HW153237   7.844   0.459   5.775
83780SOL    HW253238   7.832   0.310   5.799
83781SOL     OW53239  14.770   5.585   1.703
83781SOL    HW153240  14.818   5.528   1.642
83781SOL    HW253241  14.679   5.578   1.675
83782SOL     OW53242  11.560   7.364   8.287
83782SOL    HW153243  11.571   7.424   8.361
83782SOL    HW253244  11.466   7.345   8.285
83783SOL     OW53245   9.793  10.467  10.385
83783SOL    HW153246   9.780  10.418  10.465
83783SOL    HW253247   9.869  10.523  10.403
83784SOL     OW53248   8.567  14.656  12.617
83784SOL    HW153249   8.637  14.698  12.567
83784SOL    HW253250   8.542  14.721  12.681
83785SOL     OW53251   7.449   3.902   1.215
83785SOL    HW153252   7.369   3.853   1.236
83785SOL    HW253253   7.423   3.962   1.145
83786SOL     OW53254  12.838   6.059   9.814
83786SOL    HW153255  12.794   6.142   9.834
83786SOL    HW253256  12.927   6.084   9.789
83787SOL     OW53257   2.041   4.183   6.457
83787SOL    HW153258   2.060   4.200   6.365
83787SOL    HW253259   2.126   4.185   6.500
83788SOL     OW53260   7.618  12.221   7.730
83788SOL    HW153261   7.529  12.256   7.721
83788SOL    HW253262   7.606  12.126   7.738
83789SOL     OW53263  10.015   8.368   2.991
83789SOL    HW153264  10.081   8.342   3.056
83789SOL    HW253265   9.964   8.289   2.975
83790SOL     OW53266   3.726  13.195  12.938
83790SOL    HW153267   3.815  13.163  12.944
83790SOL    HW253268   3.716  13.251  13.015
83791SOL     OW53269  10.383   9.145   9.142
83791SOL    HW153270  10.380   9.079   9.212
83791SOL    HW253271  10.379   9.229   9.187
83792SOL     OW53272   1.617   6.011  11.423
83792SOL    HW153273   1.558   5.975  11.489
83792SOL    HW253274   1.702   5.969  11.441
83793SOL     OW53275   3.605   7.770   9.214
83793SOL    HW153276   3.574   7.812   9.134
83793SOL    HW253277   3.578   7.829   9.284
83794SOL     OW53278  13.196  13.593   4.401
83794SOL    HW153279  13.171  13.502   4.386
83794SOL    HW253280  13.256  13.589   4.476
83795SOL     OW53281   5.201   4.429  14.101
83795SOL    HW153282   5.157   4.512  14.119
83795SOL    HW253283   5.256   4.447  14.024
83796SOL     OW53284   3.094   4.483   6.393
83796SOL    HW153285   3.059   4.422   6.457
83796SOL    HW253286   3.041   4.562   6.404
83797SOL     OW53287   4.741   7.457   1.453
83797SOL    HW153288   4.702   7.476   1.368
83797SOL    HW253289   4.669   7.470   1.515
83798SOL     OW53290   2.136   1.921   3.369
83798SOL    HW153291   2.141   1.903   3.275
83798SOL    HW253292   2.221   1.894   3.403
83799SOL     OW53293  10.246  11.154   6.907
83799SOL    HW153294  10.309  11.190   6.969
83799SOL    HW253295  10.295  11.086   6.861
83800SOL     OW53296   9.528   4.196   4.188
83800SOL    HW153297   9.517   4.150   4.272
83800SOL    HW253298   9.443   4.237   4.172
83801SOL     OW53299  13.815   3.966   3.047
83801SOL    HW153300  13.721   3.953   3.063
83801SOL    HW253301  13.844   3.884   3.007
83802SOL     OW53302  10.692   8.727  10.982
83802SOL    HW153303  10.636   8.741  10.905
83802SOL    HW253304  10.760   8.794  10.974
83803SOL     OW53305   1.588   6.866  13.095
83803SOL    HW153306   1.608   6.928  13.165
83803SOL    HW253307   1.537   6.916  13.032
83804SOL     OW53308   1.830   6.438   2.449
83804SOL    HW153309   1.844   6.516   2.394
83804SOL    HW253310   1.914   6.394   2.449
83805SOL     OW53311   0.994   4.499   6.266
83805SOL    HW153312   1.023   4.489   6.356
83805SOL    HW253313   1.067   4.466   6.213
83806SOL     OW53314  11.907  13.223   5.868
83806SOL    HW153315  11.931  13.136   5.836
83806SOL    HW253316  11.865  13.207   5.952
83807SOL     OW53317   7.261   8.381   6.931
83807SOL    HW153318   7.185   8.323   6.932
83807SOL    HW253319   7.300   8.368   6.844
83808SOL     OW53320   4.405  13.603  14.606
83808SOL    HW153321   4.439  13.656  14.533
83808SOL    HW253322   4.373  13.667  14.670
83809SOL     OW53323  11.768   0.495   0.101
83809SOL    HW153324  11.684   0.540   0.110
83809SOL    HW253325  11.760   0.419   0.159
83810SOL     OW53326  10.156   0.685   9.025
83810SOL    HW153327  10.166   0.719   9.114
83810SOL    HW253328  10.068   0.648   9.023
83811SOL     OW53329   4.092   7.675  14.157
83811SOL    HW153330   4.018   7.630  14.117
83811SOL    HW253331   4.165   7.659  14.097
83812SOL     OW53332   9.024  11.301  12.122
83812SOL    HW153333   8.989  11.387  12.144
83812SOL    HW253334   8.954  11.240  12.144
83813SOL     OW53335   0.356  10.569   5.454
83813SOL    HW153336   0.358  10.665   5.455
83813SOL    HW253337   0.427  10.545   5.393
83814SOL     OW53338   3.008   3.810  10.065
83814SOL    HW153339   2.991   3.859   9.985
83814SOL    HW253340   3.092   3.843  10.096
83815SOL     OW53341   2.383   3.400   0.858
83815SOL    HW153342   2.423   3.400   0.945
83815SOL    HW253343   2.297   3.361   0.871
83816SOL     OW53344  10.793   8.170   4.161
83816SOL    HW153345  10.816   8.262   4.147
83816SOL    HW253346  10.709   8.159   4.117
83817SOL     OW53347   4.207   8.052   0.034
83817SOL    HW153348   4.123   8.008   0.049
83817SOL    HW253349   4.198   8.093  14.819
83818SOL     OW53350  11.740  11.796   0.535
83818SOL    HW153351  11.679  11.748   0.479
83818SOL    HW253352  11.766  11.871   0.482
83819SOL     OW53353  13.157   3.746  14.577
83819SOL    HW153354  13.094   3.819  14.579
83819SOL    HW253355  13.239   3.786  14.551
83820SOL     OW53356   4.230   5.843   3.396
83820SOL    HW153357   4.201   5.839   3.304
83820SOL    HW253358   4.282   5.764   3.408
83821SOL     OW53359  10.844   9.228   3.797
83821SOL    HW153360  10.852   9.274   3.881
83821SOL    HW253361  10.777   9.162   3.813
83822SOL     OW53362   4.244   1.118   8.258
83822SOL    HW153363   4.211   1.032   8.284
83822SOL    HW253364   4.307   1.141   8.327
83823SOL     OW53365   2.592  12.594  13.836
83823SOL    HW153366   2.554  12.516  13.797
83823SOL    HW253367   2.519  12.655  13.847
83824SOL     OW53368   2.753   8.880  14.715
83824SOL    HW153369   2.682   8.944  14.707
83824SOL    HW253370   2.832   8.933  14.724
83825SOL     OW53371   1.117   3.039   0.413
83825SOL    HW153372   1.089   3.130   0.412
83825SOL    HW253373   1.087   3.006   0.498
83826SOL     OW53374  11.863  11.263   8.453
83826SOL    HW153375  11.913  11.263   8.371
83826SOL    HW253376  11.772  11.280   8.426
83827SOL     OW53377  10.429  14.131   1.961
83827SOL    HW153378  10.341  14.168   1.961
83827SOL    HW253379  10.458  14.138   2.052
83828SOL     OW53380   7.924   8.482  14.431
83828SOL    HW153381   7.846   8.483  14.375
83828SOL    HW253382   7.973   8.405  14.402
83829SOL     OW53383   5.899   0.773   8.878
83829SOL    HW153384   5.899   0.685   8.841
83829SOL    HW253385   5.946   0.826   8.813
83830SOL     OW53386  11.070   1.449  11.625
83830SOL    HW153387  11.134   1.485  11.686
83830SOL    HW253388  10.988   1.492  11.649
83831SOL     OW53389   7.512  10.690   5.340
83831SOL    HW153390   7.503  10.729   5.253
83831SOL    HW253391   7.466  10.606   5.333
83832SOL     OW53392   4.391   1.850   0.524
83832SOL    HW153393   4.418   1.919   0.464
83832SOL    HW253394   4.446   1.775   0.501
83833SOL     OW53395   5.401  14.809  14.569
83833SOL    HW153396   5.488  14.848  14.561
83833SOL    HW253397   5.351  14.850  14.499
83834SOL     OW53398   9.335  14.371  14.644
83834SOL    HW153399   9.292  14.407  14.567
83834SOL    HW253400   9.390  14.300  14.610
83835SOL     OW53401   4.779   7.802   0.222
83835SOL    HW153402   4.719   7.735   0.254
83835SOL    HW253403   4.836   7.820   0.297
83836SOL     OW53404   3.453   1.945   1.479
83836SOL    HW153405   3.386   1.921   1.415
83836SOL    HW253406   3.436   2.037   1.499
83837SOL     OW53407   5.855   9.903   9.301
83837SOL    HW153408   5.941   9.868   9.281
83837SOL    HW253409   5.803   9.826   9.324
83838SOL     OW53410   2.259   7.465   1.528
83838SOL    HW153411   2.264   7.489   1.435
83838SOL    HW253412   2.235   7.372   1.528
83839SOL     OW53413   5.743   8.033  10.963
83839SOL    HW153414   5.768   7.983  10.885
83839SOL    HW253415   5.787   7.988  11.035
83840SOL     OW53416  11.764  13.034   3.256
83840SOL    HW153417  11.683  12.987   3.273
83840SOL    HW253418  11.736  13.123   3.235
83841SOL     OW53419  14.254   9.395   4.051
83841SOL    HW153420  14.179   9.357   4.096
83841SOL    HW253421  14.329   9.344   4.083
83842SOL     OW53422   1.083  13.624   8.666
83842SOL    HW153423   1.152  13.569   8.628
83842SOL    HW253424   1.031  13.564   8.719
83843SOL     OW53425   8.179   5.394  10.819
83843SOL    HW153426   8.190   5.304  10.848
83843SOL    HW253427   8.194   5.447  10.897
83844SOL     OW53428  11.040  10.911   5.810
83844SOL    HW153429  11.111  10.966   5.778
83844SOL    HW253430  10.982  10.899   5.735
83845SOL     OW53431   3.630   4.915  13.038
83845SOL    HW153432   3.576   4.898  12.961
83845SOL    HW253433   3.621   5.010  13.052
83846SOL     OW53434   5.382   0.270   9.915
83846SOL    HW153435   5.460   0.286   9.861
83846SOL    HW253436   5.398   0.319   9.995
83847SOL     OW53437   8.699   2.599   5.922
83847SOL    HW153438   8.734   2.512   5.937
83847SOL    HW253439   8.740   2.628   5.841
83848SOL     OW53440  11.504   1.542  13.555
83848SOL    HW153441  11.442   1.601  13.597
83848SOL    HW253442  11.452   1.468  13.526
83849SOL     OW53443   7.189  12.099   6.271
83849SOL    HW153444   7.138  12.018   6.279
83849SOL    HW253445   7.145  12.161   6.328
83850SOL     OW53446  12.210   4.937  12.725
83850SOL    HW153447  12.180   5.003  12.662
83850SOL    HW253448  12.238   4.864  12.671
83851SOL     OW53449   9.828   7.860   7.426
83851SOL    HW153450   9.910   7.898   7.456
83851SOL    HW253451   9.760   7.917   7.462
83852SOL     OW53452   9.858   6.899  12.948
83852SOL    HW153453   9.833   6.989  12.931
83852SOL    HW253454   9.912   6.903  13.027
83853SOL     OW53455   6.277  10.858   6.598
83853SOL    HW153456   6.252  10.833   6.509
83853SOL    HW253457   6.312  10.778   6.637
83854SOL     OW53458  12.025  14.847  11.017
83854SOL    HW153459  12.005  14.871  11.108
83854SOL    HW253460  12.054   0.057  10.977
83855SOL     OW53461   0.019   4.474   7.662
83855SOL    HW153462   0.099   4.501   7.617
83855SOL    HW253463  14.855   4.404   7.607
83856SOL     OW53464  11.099   1.999   0.562
83856SOL    HW153465  11.151   2.079   0.557
83856SOL    HW253466  11.040   2.013   0.636
83857SOL     OW53467   5.436  11.748   3.459
83857SOL    HW153468   5.372  11.808   3.421
83857SOL    HW253469   5.428  11.762   3.553
83858SOL     OW53470  13.216   4.981   3.115
83858SOL    HW153471  13.160   4.904   3.105
83858SOL    HW253472  13.305   4.947   3.107
83859SOL     OW53473   9.204   3.309   9.873
83859SOL    HW153474   9.221   3.374   9.942
83859SOL    HW253475   9.165   3.235   9.920
83860SOL     OW53476   5.586   1.777  12.722
83860SOL    HW153477   5.574   1.846  12.787
83860SOL    HW253478   5.500   1.737  12.713
83861SOL     OW53479   7.411   7.149  12.704
83861SOL    HW153480   7.471   7.077  12.723
83861SOL    HW253481   7.385   7.135  12.613
83862SOL     OW53482   4.974   7.819   8.239
83862SOL    HW153483   4.917   7.791   8.168
83862SOL    HW253484   4.976   7.744   8.299
83863SOL     OW53485  14.466   0.363  10.803
83863SOL    HW153486  14.403   0.422  10.761
83863SOL    HW253487  14.418   0.281  10.814
83864SOL     OW53488   7.497  12.966  14.477
83864SOL    HW153489   7.425  13.017  14.515
83864SOL    HW253490   7.483  12.877  14.511
83865SOL     OW53491   3.701   4.420   4.593
83865SOL    HW153492   3.661   4.506   4.582
83865SOL    HW253493   3.652   4.380   4.665
83866SOL     OW53494  13.919  14.128  14.333
83866SOL    HW153495  13.912  14.036  14.359
83866SOL    HW253496  13.876  14.132  14.247
83867SOL     OW53497   8.526  11.590  11.848
83867SOL    HW153498   8.431  11.594  11.838
83867SOL    HW253499   8.540  11.558  11.937
83868SOL     OW53500  10.492   2.192   3.126
83868SOL    HW153501  10.577   2.154   3.146
83868SOL    HW253502  10.444   2.188   3.209
83869SOL     OW53503   1.428  12.235  12.326
83869SOL    HW153504   1.386  12.260  12.408
83869SOL    HW253505   1.385  12.290  12.260
83870SOL     OW53506   5.298  14.375  12.788
83870SOL    HW153507   5.366  14.391  12.722
83870SOL    HW253508   5.295  14.280  12.798
83871SOL     OW53509   9.980  12.376   3.188
83871SOL    HW153510  10.002  12.289   3.219
83871SOL    HW253511   9.986  12.432   3.266
83872SOL     OW53512  14.348   3.836   1.920
83872SOL    HW153513  14.389   3.874   1.997
83872SOL    HW253514  14.271   3.790   1.953
83873SOL     OW53515  13.575  11.992  12.720
83873SOL    HW153516  13.644  11.970  12.782
83873SOL    HW253517  13.618  11.988  12.634
83874SOL     OW53518   7.697  11.734   4.117
83874SOL    HW153519   7.745  11.816   4.125
83874SOL    HW253520   7.606  11.760   4.108
83875SOL     OW53521   4.075   9.903   0.903
83875SOL    HW153522   4.068   9.916   0.997
83875SOL    HW253523   4.022   9.974   0.866
83876SOL     OW53524   2.346  13.027   6.552
83876SOL    HW153525   2.433  13.062   6.533
83876SOL    HW253526   2.337  13.037   6.647
83877SOL     OW53527   0.269  10.016   5.935
83877SOL    HW153528   0.199  10.034   5.872
83877SOL    HW253529   0.344   9.992   5.881
83878SOL     OW53530   6.264  13.263   1.905
83878SOL    HW153531   6.264  13.247   2.000
83878SOL    HW253532   6.350  13.301   1.888
83879SOL     OW53533  10.789   7.729   4.730
83879SOL    HW153534  10.851   7.786   4.776
83879SOL    HW253535  10.790   7.648   4.780
83880SOL     OW53536   6.223   1.554  13.994
83880SOL    HW153537   6.301   1.515  14.035
83880SOL    HW253538   6.184   1.607  14.064
83881SOL     OW53539   2.467  12.583   3.691
83881SOL    HW153540   2.506  12.571   3.605
83881SOL    HW253541   2.377  12.610   3.674
83882SOL     OW53542  11.990  12.124  14.125
83882SOL    HW153543  12.068  12.069  14.134
83882SOL    HW253544  12.024  12.213  14.120
83883SOL     OW53545   6.573  13.517  11.004
83883SOL    HW153546   6.600  13.430  11.032
83883SOL    HW253547   6.637  13.542  10.937
83884SOL     OW53548  13.161   6.585   1.208
83884SOL    HW153549  13.162   6.542   1.122
83884SOL    HW253550  13.244   6.633   1.211
83885SOL     OW53551   7.255   3.905   3.805
83885SOL    HW153552   7.286   3.919   3.716
83885SOL    HW253553   7.225   3.992   3.834
83886SOL     OW53554   7.469   6.851   9.736
83886SOL    HW153555   7.545   6.793   9.726
83886SOL    HW253556   7.423   6.844   9.652
83887SOL     OW53557   5.769   7.910  13.931
83887SOL    HW153558   5.714   7.846  13.976
83887SOL    HW253559   5.851   7.864  13.913
83888SOL     OW53560  13.284  14.848  13.955
83888SOL    HW153561  13.324  14.767  13.923
83888SOL    HW253562  13.350   0.015  14.013
83889SOL     OW53563   4.828  12.488   4.276
83889SOL    HW153564   4.831  12.583   4.282
83889SOL    HW253565   4.917  12.463   4.252
83890SOL     OW53566   6.069   8.246   4.341
83890SOL    HW153567   6.042   8.336   4.326
83890SOL    HW253568   5.988   8.202   4.370
83891SOL     OW53569  11.432  10.425  12.392
83891SOL    HW153570  11.512  10.399  12.346
83891SOL    HW253571  11.363  10.414  12.326
83892SOL     OW53572  12.014  13.531   8.971
83892SOL    HW153573  12.027  13.614   8.926
83892SOL    HW253574  12.042  13.547   9.061
83893SOL     OW53575  14.817   4.246   4.876
83893SOL    HW153576  14.744   4.221   4.932
83893SOL    HW253577  14.787   4.228   4.787
83894SOL     OW53578   9.958  10.567   2.319
83894SOL    HW153579  10.014  10.629   2.364
83894SOL    HW253580   9.931  10.613   2.239
83895SOL     OW53581  12.401  11.682  11.793
83895SOL    HW153582  12.336  11.732  11.744
83895SOL    HW253583  12.477  11.740  11.797
83896SOL     OW53584   7.716   1.004   0.886
83896SOL    HW153585   7.627   0.978   0.864
83896SOL    HW253586   7.763   0.922   0.898
83897SOL     OW53587   1.513   6.470   3.161
83897SOL    HW153588   1.549   6.466   3.250
83897SOL    HW253589   1.443   6.535   3.167
83898SOL     OW53590  10.968   8.012   9.201
83898SOL    HW153591  10.977   8.048   9.113
83898SOL    HW253592  10.881   8.039   9.229
83899SOL     OW53593   4.010  14.670  13.307
83899SOL    HW153594   4.044  14.754  13.279
83899SOL    HW253595   4.076  14.637  13.369
83900SOL     OW53596   1.330   1.740   9.364
83900SOL    HW153597   1.281   1.816   9.395
83900SOL    HW253598   1.267   1.668   9.368
83901SOL     OW53599  12.887   6.220   3.330
83901SOL    HW153600  12.824   6.288   3.305
83901SOL    HW253601  12.845   6.174   3.403
83902SOL     OW53602   5.144   6.540   6.394
83902SOL    HW153603   5.181   6.549   6.306
83902SOL    HW253604   5.087   6.463   6.389
83903SOL     OW53605  12.102   1.475   2.858
83903SOL    HW153606  12.114   1.393   2.811
83903SOL    HW253607  12.126   1.543   2.795
83904SOL     OW53608   0.980   5.278   0.133
83904SOL    HW153609   1.005   5.187   0.146
83904SOL    HW253610   0.886   5.275   0.115
83905SOL     OW53611  10.995  11.695   2.563
83905SOL    HW153612  11.052  11.660   2.632
83905SOL    HW253613  10.976  11.620   2.507
83906SOL     OW53614   4.167   2.037  13.018
83906SOL    HW153615   4.260   2.031  13.039
83906SOL    HW253616   4.123   2.048  13.103
83907SOL     OW53617  11.970  13.827  13.809
83907SOL    HW153618  12.021  13.775  13.870
83907SOL    HW253619  12.004  13.804  13.723
83908SOL     OW53620  12.201   9.446  12.233
83908SOL    HW153621  12.186   9.475  12.143
83908SOL    HW253622  12.118   9.407  12.260
83909SOL     OW53623   8.774  14.671   1.627
83909SOL    HW153624   8.697  14.615   1.611
83909SOL    HW253625   8.846  14.626   1.582
83910SOL     OW53626   5.237  13.689   3.447
83910SOL    HW153627   5.295  13.663   3.376
83910SOL    HW253628   5.175  13.750   3.407
83911SOL     OW53629   6.960   6.372  13.139
83911SOL    HW153630   6.963   6.326  13.223
83911SOL    HW253631   6.914   6.313  13.081
83912SOL     OW53632   8.034   0.977   7.751
83912SOL    HW153633   7.938   0.981   7.744
83912SOL    HW253634   8.064   1.044   7.691
83913SOL     OW53635   9.378   4.197   2.322
83913SOL    HW153636   9.363   4.133   2.253
83913SOL    HW253637   9.405   4.276   2.276
83914SOL     OW53638   5.241   9.753  14.297
83914SOL    HW153639   5.195   9.800  14.366
83914SOL    HW253640   5.333   9.759  14.321
83915SOL     OW53641   6.284   4.216   1.032
83915SOL    HW153642   6.257   4.287   0.973
83915SOL    HW253643   6.269   4.136   0.982
83916SOL     OW53644   2.356  12.253  11.862
83916SOL    HW153645   2.284  12.312  11.885
83916SOL    HW253646   2.365  12.264  11.767
83917SOL     OW53647  11.822   2.501   4.709
83917SOL    HW153648  11.809   2.596   4.702
83917SOL    HW253649  11.733   2.465   4.717
83918SOL     OW53650  13.655   5.522   0.504
83918SOL    HW153651  13.720   5.555   0.566
83918SOL    HW253652  13.683   5.432   0.487
83919SOL     OW53653  12.002  11.022   9.622
83919SOL    HW153654  12.031  11.001   9.533
83919SOL    HW253655  11.919  10.974   9.632
83920SOL     OW53656  13.609  10.303   3.838
83920SOL    HW153657  13.514  10.312   3.844
83920SOL    HW253658  13.636  10.281   3.927
83921SOL     OW53659   2.546   7.556   1.573
83921SOL    HW153660   2.461   7.513   1.569
83921SOL    HW253661   2.555   7.583   1.665
83922SOL     OW53662   4.492   0.005   6.632
83922SOL    HW153663   4.402   0.003   6.601
83922SOL    HW253664   4.502  14.798   6.685
83923SOL     OW53665   2.449   9.925  10.563
83923SOL    HW153666   2.492   9.845  10.595
83923SOL    HW253667   2.512   9.964  10.503
83924SOL     OW53668  13.987   2.430  13.110
83924SOL    HW153669  13.919   2.407  13.047
83924SOL    HW253670  14.048   2.484  13.060
83925SOL     OW53671   6.043   0.206   1.320
83925SOL    HW153672   5.952   0.233   1.325
83925SOL    HW253673   6.084   0.268   1.259
83926SOL     OW53674   0.568   0.988   6.788
83926SOL    HW153675   0.647   1.022   6.746
83926SOL    HW253676   0.552   0.904   6.745
83927SOL     OW53677  10.781  10.888  12.360
83927SOL    HW153678  10.858  10.865  12.413
83927SOL    HW253679  10.708  10.881  12.421
83928SOL     OW53680   1.750  10.674   0.556
83928SOL    HW153681   1.836  10.636   0.537
83928SOL    HW253682   1.736  10.737   0.484
83929SOL     OW53683   4.627  10.760  10.252
83929SOL    HW153684   4.673  10.705  10.316
83929SOL    HW253685   4.676  10.842  10.251
83930SOL     OW53686  13.306   2.417   6.985
83930SOL    HW153687  13.326   2.345   7.046
83930SOL    HW253688  13.391   2.438   6.945
83931SOL     OW53689  11.620  13.295   3.530
83931SOL    HW153690  11.623  13.206   3.566
83931SOL    HW253691  11.673  13.347   3.590
83932SOL     OW53692  12.999   0.561  12.054
83932SOL    HW153693  13.034   0.549  12.142
83932SOL    HW253694  13.003   0.655  12.038
83933SOL     OW53695   0.447  13.460   8.159
83933SOL    HW153696   0.489  13.423   8.082
83933SOL    HW253697   0.443  13.554   8.142
83934SOL     OW53698   8.205   4.399   7.840
83934SOL    HW153699   8.152   4.328   7.875
83934SOL    HW253700   8.185   4.474   7.898
83935SOL     OW53701   8.327   8.327   9.344
83935SOL    HW153702   8.411   8.363   9.315
83935SOL    HW253703   8.327   8.238   9.310
83936SOL     OW53704  13.741   6.587   9.100
83936SOL    HW153705  13.712   6.570   9.010
83936SOL    HW253706  13.721   6.679   9.114
83937SOL     OW53707  11.179   9.020   1.473
83937SOL    HW153708  11.222   9.093   1.428
83937SOL    HW253709  11.099   9.057   1.508
83938SOL     OW53710  13.892  11.314  11.039
83938SOL    HW153711  13.916  11.343  10.951
83938SOL    HW253712  13.797  11.308  11.038
83939SOL     OW53713   2.323  10.920   5.973
83939SOL    HW153714   2.259  10.991   5.983
83939SOL    HW253715   2.278  10.842   6.007
83940SOL     OW53716   2.764   7.121   0.386
83940SOL    HW153717   2.691   7.085   0.436
83940SOL    HW253718   2.741   7.213   0.372
83941SOL     OW53719   1.200   1.027   9.874
83941SOL    HW153720   1.229   0.953   9.927
83941SOL    HW253721   1.271   1.040   9.811
83942SOL     OW53722   6.525   3.392  12.825
83942SOL    HW153723   6.513   3.313  12.877
83942SOL    HW253724   6.587   3.367  12.756
83943SOL     OW53725   8.302   9.489   2.237
83943SOL    HW153726   8.242   9.537   2.179
83943SOL    HW253727   8.388   9.498   2.196
83944SOL     OW53728  11.982  11.807   8.936
83944SOL    HW153729  11.916  11.790   9.003
83944SOL    HW253730  12.037  11.876   8.974
83945SOL     OW53731   4.361   0.358   2.154
83945SOL    HW153732   4.380   0.442   2.114
83945SOL    HW253733   4.320   0.306   2.085
83946SOL     OW53734   6.641   2.575  14.136
83946SOL    HW153735   6.556   2.555  14.097
83946SOL    HW253736   6.620   2.603  14.225
83947SOL     OW53737   7.645   8.162   2.779
83947SOL    HW153738   7.702   8.142   2.705
83947SOL    HW253739   7.561   8.185   2.740
83948SOL     OW53740   6.626   2.070  10.441
83948SOL    HW153741   6.679   1.995  10.469
83948SOL    HW253742   6.649   2.083  10.349
83949SOL     OW53743   0.758  11.640   6.095
83949SOL    HW153744   0.805  11.657   6.177
83949SOL    HW253745   0.667  11.631   6.121
83950SOL     OW53746   9.794   9.633   5.213
83950SOL    HW153747   9.865   9.634   5.277
83950SOL    HW253748   9.801   9.548   5.170
83951SOL     OW53749   0.990  13.386   0.170
83951SOL    HW153750   0.915  13.345   0.214
83951SOL    HW253751   1.034  13.313   0.126
83952SOL     OW53752   4.563  14.278  12.272
83952SOL    HW153753   4.528  14.358  12.232
83952SOL    HW253754   4.576  14.301  12.364
83953SOL     OW53755   9.779   7.363  12.268
83953SOL    HW153756   9.743   7.369  12.357
83953SOL    HW253757   9.779   7.270  12.249
83954SOL     OW53758  13.079  12.067   1.069
83954SOL    HW153759  12.986  12.086   1.060
83954SOL    HW253760  13.097  12.000   1.002
83955SOL     OW53761   9.009  10.253   7.011
83955SOL    HW153762   9.018  10.200   6.932
83955SOL    HW253763   8.915  10.270   7.017
83956SOL     OW53764   3.659  13.334   9.792
83956SOL    HW153765   3.710  13.265   9.834
83956SOL    HW253766   3.585  13.288   9.752
83957SOL     OW53767   0.491   8.991   1.409
83957SOL    HW153768   0.502   9.048   1.485
83957SOL    HW253769   0.498   9.050   1.334
83958SOL     OW53770   0.754  12.494  11.680
83958SOL    HW153771   0.662  12.518  11.668
83958SOL    HW253772   0.793  12.569  11.724
83959SOL     OW53773   2.323  13.406  14.339
83959SOL    HW153774   2.382  13.369  14.274
83959SOL    HW253775   2.366  13.389  14.423
83960SOL     OW53776   5.120   0.337   0.758
83960SOL    HW153777   5.079   0.257   0.791
83960SOL    HW253778   5.144   0.317   0.668
83961SOL     OW53779  10.060  13.306  11.154
83961SOL    HW153780  10.018  13.364  11.092
83961SOL    HW253781  10.009  13.315  11.235
83962SOL     OW53782  12.837   1.558   9.676
83962SOL    HW153783  12.829   1.651   9.699
83962SOL    HW253784  12.753   1.520   9.702
83963SOL     OW53785   2.038  14.655  12.388
83963SOL    HW153786   2.117  14.626  12.343
83963SOL    HW253787   2.066  14.730  12.440
83964SOL     OW53788  13.314  14.362  11.346
83964SOL    HW153789  13.300  14.400  11.260
83964SOL    HW253790  13.240  14.301  11.358
83965SOL     OW53791   6.780   3.404   3.427
83965SOL    HW153792   6.779   3.500   3.429
83965SOL    HW253793   6.688   3.379   3.440
83966SOL     OW53794  12.678   7.082   8.266
83966SOL    HW153795  12.719   7.142   8.204
83966SOL    HW253796  12.616   7.137   8.314
83967SOL     OW53797   9.831   6.718   9.808
83967SOL    HW153798   9.770   6.771   9.861
83967SOL    HW253799   9.780   6.641   9.783
83968SOL     OW53800  10.567  13.232  11.191
83968SOL    HW153801  10.656  13.232  11.156
83968SOL    HW253802  10.556  13.319  11.228
83969SOL     OW53803   5.281   0.255   1.521
83969SOL    HW153804   5.222   0.311   1.471
83969SOL    HW253805   5.361   0.308   1.531
83970SOL     OW53806  12.602   2.793   3.917
83970SOL    HW153807  12.653   2.874   3.915
83970SOL    HW253808  12.666   2.724   3.899
83971SOL     OW53809  14.255   6.019   1.001
83971SOL    HW153810  14.315   5.990   0.932
83971SOL    HW253811  14.180   6.056   0.954
83972SOL     OW53812   3.906  13.004   7.623
83972SOL    HW153813   3.969  12.943   7.662
83972SOL    HW253814   3.839  12.948   7.585
83973SOL     OW53815  13.103  10.890  14.515
83973SOL    HW153816  13.022  10.924  14.553
83973SOL    HW253817  13.080  10.804  14.481
83974SOL     OW53818   1.800   1.347  11.584
83974SOL    HW153819   1.863   1.304  11.642
83974SOL    HW253820   1.770   1.277  11.525
83975SOL     OW53821  11.770   0.172  11.556
83975SOL    HW153822  11.685   0.146  11.522
83975SOL    HW253823  11.803   0.095  11.602
83976SOL     OW53824   3.078   1.021   8.442
83976SOL    HW153825   3.166   0.983   8.444
83976SOL    HW253826   3.022   0.950   8.410
83977SOL     OW53827  13.709   9.136   2.988
83977SOL    HW153828  13.705   9.181   3.072
83977SOL    HW253829  13.770   9.188   2.936
83978SOL     OW53830   3.991  12.531  12.125
83978SOL    HW153831   3.969  12.566  12.039
83978SOL    HW253832   3.925  12.464  12.142
83979SOL     OW53833   3.564  12.583   7.625
83979SOL    HW153834   3.510  12.547   7.694
83979SOL    HW253835   3.626  12.513   7.604
83980SOL     OW53836   5.037   5.200  11.172
83980SOL    HW153837   5.081   5.154  11.243
83980SOL    HW253838   5.105   5.257  11.135
83981SOL     OW53839   6.233   9.859  11.615
83981SOL    HW153840   6.198   9.947  11.599
83981SOL    HW253841   6.242   9.854  11.710
83982SOL     OW53842   9.666   8.755  10.372
83982SOL    HW153843   9.681   8.661  10.378
83982SOL    HW253844   9.739   8.794  10.420
83983SOL     OW53845   4.554  13.097   2.690
83983SOL    HW153846   4.552  13.192   2.686
83983SOL    HW253847   4.538  13.069   2.600
83984SOL     OW53848  13.175   5.026   4.204
83984SOL    HW153849  13.084   5.046   4.182
83984SOL    HW253850  13.218   5.111   4.210
83985SOL     OW53851  13.689   6.643  12.590
83985SOL    HW153852  13.673   6.550  12.605
83985SOL    HW253853  13.615   6.671  12.535
83986SOL     OW53854   6.036  11.930   1.468
83986SOL    HW153855   6.015  11.881   1.389
83986SOL    HW253856   5.998  11.878   1.539
83987SOL     OW53857   3.732   0.555  13.017
83987SOL    HW153858   3.661   0.501  13.053
83987SOL    HW253859   3.741   0.526  12.926
83988SOL     OW53860  14.654   0.314   7.169
83988SOL    HW153861  14.618   0.248   7.110
83988SOL    HW253862  14.743   0.330   7.135
83989SOL     OW53863   9.834  13.664  11.983
83989SOL    HW153864   9.768  13.726  11.954
83989SOL    HW253865   9.785  13.596  12.028
83990SOL     OW53866  13.961   0.685  11.604
83990SOL    HW153867  14.045   0.719  11.634
83990SOL    HW253868  13.903   0.697  11.679
83991SOL     OW53869   8.062   1.724   1.940
83991SOL    HW153870   8.112   1.769   2.008
83991SOL    HW253871   8.040   1.639   1.978
83992SOL     OW53872  10.122   3.503  14.705
83992SOL    HW153873  10.152   3.517  14.615
83992SOL    HW253874  10.197   3.462  14.749
83993SOL     OW53875   8.991   7.487   5.597
83993SOL    HW153876   8.902   7.455   5.612
83993SOL    HW253877   9.033   7.483   5.683
83994SOL     OW53878   0.321   7.384   5.992
83994SOL    HW153879   0.387   7.433   5.943
83994SOL    HW253880   0.366   7.357   6.072
83995SOL     OW53881   9.608  11.222   9.624
83995SOL    HW153882   9.607  11.128   9.609
83995SOL    HW253883   9.601  11.232   9.719
83996SOL     OW53884   7.741   7.290   3.008
83996SOL    HW153885   7.700   7.250   3.085
83996SOL    HW253886   7.673   7.347   2.971
83997SOL     OW53887   5.046   3.737  13.179
83997SOL    HW153888   5.067   3.648  13.208
83997SOL    HW253889   5.116   3.791  13.216
83998SOL     OW53890  10.456   8.312   5.580
83998SOL    HW153891  10.447   8.388   5.522
83998SOL    HW253892  10.549   8.309   5.601
83999SOL     OW53893   4.751   0.900   8.063
83999SOL    HW153894   4.694   0.973   8.086
83999SOL    HW253895   4.748   0.842   8.140
84000SOL     OW53896  14.762   0.827   1.489
84000SOL    HW153897  14.732   0.755   1.544
84000SOL    HW253898  14.695   0.895   1.501
84001SOL     OW53899   7.100   5.778   0.224
84001SOL    HW153900   7.057   5.757   0.141
84001SOL    HW253901   7.117   5.693   0.265
84002SOL     OW53902  10.913   9.590   6.877
84002SOL    HW153903  10.859   9.581   6.955
84002SOL    HW253904  10.995   9.548   6.899
84003SOL     OW53905   7.333   5.599   0.548
84003SOL    HW153906   7.363   5.614   0.637
84003SOL    HW253907   7.292   5.682   0.522
84004SOL     OW53908   3.557   0.282   0.042
84004SOL    HW153909   3.526   0.367   0.011
84004SOL    HW253910   3.506   0.265   0.121
84005SOL     OW53911   8.778   4.215   1.173
84005SOL    HW153912   8.869   4.244   1.185
84005SOL    HW253913   8.768   4.204   1.079
84006SOL     OW53914   7.991   3.298  13.425
84006SOL    HW153915   8.012   3.253  13.507
84006SOL    HW253916   7.935   3.237  13.377
84007SOL     OW53917  10.326  11.815   2.822
84007SOL    HW153918  10.279  11.828   2.905
84007SOL    HW253919  10.290  11.882   2.764
84008SOL     OW53920   7.142   8.672  14.714
84008SOL    HW153921   7.222   8.620  14.720
84008SOL    HW253922   7.124   8.701  14.803
84009SOL     OW53923   9.272  11.577  11.054
84009SOL    HW153924   9.303  11.490  11.029
84009SOL    HW253925   9.193  11.590  11.002
84010SOL     OW53926   2.007   8.657   1.570
84010SOL    HW153927   1.939   8.690   1.629
84010SOL    HW253928   1.971   8.668   1.482
84011SOL     OW53929   2.231  14.066   4.946
84011SOL    HW153930   2.279  14.147   4.965
84011SOL    HW253931   2.246  14.012   5.023
84012SOL     OW53932  12.043  10.369   3.775
84012SOL    HW153933  12.121  10.392   3.826
84012SOL    HW253934  12.003  10.454   3.754
84013SOL     OW53935  12.574  12.891   8.278
84013SOL    HW153936  12.519  12.966   8.255
84013SOL    HW253937  12.554  12.874   8.370
84014SOL     OW53938   9.669  11.062   2.640
84014SOL    HW153939   9.757  11.031   2.621
84014SOL    HW253940   9.681  11.145   2.686
84015SOL     OW53941  10.651   6.866   8.147
84015SOL    HW153942  10.635   6.926   8.074
84015SOL    HW253943  10.618   6.782   8.116
84016SOL     OW53944   5.365   2.675   4.013
84016SOL    HW153945   5.285   2.705   4.055
84016SOL    HW253946   5.369   2.725   3.931
84017SOL     OW53947   2.678  14.500   2.343
84017SOL    HW153948   2.645  14.502   2.433
84017SOL    HW253949   2.605  14.532   2.291
84018SOL     OW53950  11.253   3.717   3.594
84018SOL    HW153951  11.186   3.687   3.532
84018SOL    HW253952  11.319   3.648   3.593
84019SOL     OW53953  12.289  13.968   6.073
84019SOL    HW153954  12.294  13.938   6.164
84019SOL    HW253955  12.223  13.912   6.034
84020SOL     OW53956  13.628   2.939   6.373
84020SOL    HW153957  13.723   2.940   6.361
84020SOL    HW253958  13.602   2.849   6.351
84021SOL     OW53959  13.224  11.523   7.483
84021SOL    HW153960  13.277  11.508   7.561
84021SOL    HW253961  13.218  11.438   7.441
84022SOL     OW53962  11.316   1.146   1.108
84022SOL    HW153963  11.318   1.242   1.114
84022SOL    HW253964  11.308   1.128   1.014
84023SOL     OW53965  14.543   6.072  12.445
84023SOL    HW153966  14.588   6.105  12.368
84023SOL    HW253967  14.451   6.095  12.430
84024SOL     OW53968   9.048   4.972   0.877
84024SOL    HW153969   9.006   5.016   0.950
84024SOL    HW253970   9.027   5.027   0.801
84025SOL     OW53971   1.095  10.855   3.592
84025SOL    HW153972   1.180  10.885   3.626
84025SOL    HW253973   1.032  10.880   3.659
84026SOL     OW53974  14.614  11.993   1.193
84026SOL    HW153975  14.646  12.021   1.107
84026SOL    HW253976  14.662  12.047   1.255
84027SOL     OW53977   1.418   6.237   3.382
84027SOL    HW153978   1.411   6.287   3.464
84027SOL    HW253979   1.428   6.146   3.410
84028SOL     OW53980   9.692  12.941   3.374
84028SOL    HW153981   9.650  12.968   3.456
84028SOL    HW253982   9.619  12.931   3.313
84029SOL     OW53983   2.593   7.696  12.379
84029SOL    HW153984   2.580   7.602  12.373
84029SOL    HW253985   2.633   7.721  12.296
84030SOL     OW53986   9.775  12.023   3.645
84030SOL    HW153987   9.744  11.941   3.682
84030SOL    HW253988   9.852  12.046   3.697
84031SOL     OW53989  10.921   8.675  12.610
84031SOL    HW153990  10.864   8.689  12.535
84031SOL    HW253991  10.980   8.604  12.583
84032SOL     OW53992   5.371   5.023   3.119
84032SOL    HW153993   5.319   5.002   3.041
84032SOL    HW253994   5.383   5.118   3.115
84033SOL     OW53995   0.029   0.442  10.977
84033SOL    HW153996   0.055   0.487  10.896
84033SOL    HW253997  14.810   0.470  10.992
84034SOL     OW53998   3.246   4.864   8.846
84034SOL    HW153999   3.294   4.910   8.916
84034SOL    HW254000   3.307   4.796   8.817
84035SOL     OW54001   5.169  14.504   1.438
84035SOL    HW154002   5.158  14.599   1.442
84035SOL    HW254003   5.135  14.472   1.521
84036SOL     OW54004  12.586   0.796   0.133
84036SOL    HW154005  12.604   0.702   0.135
84036SOL    HW254006  12.602   0.822   0.043
84037SOL     OW54007   2.098  14.132   6.268
84037SOL    HW154008   2.158  14.064   6.236
84037SOL    HW254009   2.032  14.141   6.199
84038SOL     OW54010  14.374  13.178   7.694
84038SOL    HW154011  14.333  13.119   7.757
84038SOL    HW254012  14.421  13.242   7.748
84039SOL     OW54013   3.710   7.217   2.092
84039SOL    HW154014   3.668   7.131   2.093
84039SOL    HW254015   3.644   7.277   2.126
84040SOL     OW54016   6.823  12.425   1.994
84040SOL    HW154017   6.733  12.451   1.974
84040SOL    HW254018   6.813  12.342   2.041
84041SOL     OW54019   4.619  13.083  11.569
84041SOL    HW154020   4.530  13.061  11.544
84041SOL    HW254021   4.671  13.063  11.491
84042SOL     OW54022   6.022   0.533   8.507
84042SOL    HW154023   6.052   0.442   8.499
84042SOL    HW254024   6.061   0.576   8.431
84043SOL     OW54025  10.395   5.658   6.077
84043SOL    HW154026  10.440   5.714   6.014
84043SOL    HW254027  10.320   5.623   6.029
84044SOL     OW54028   8.903  10.778   3.318
84044SOL    HW154029   8.861  10.738   3.241
84044SOL    HW254030   8.985  10.814   3.285
84045SOL     OW54031   1.176   7.414   2.396
84045SOL    HW154032   1.242   7.345   2.397
84045SOL    HW254033   1.132   7.405   2.312
84046SOL     OW54034  14.666   8.993  14.201
84046SOL    HW154035  14.582   8.948  14.203
84046SOL    HW254036  14.644   9.085  14.217
84047SOL     OW54037  11.868  14.497   6.247
84047SOL    HW154038  11.785  14.449   6.252
84047SOL    HW254039  11.935  14.429   6.242
84048SOL     OW54040   9.623   6.460   8.070
84048SOL    HW154041   9.536   6.420   8.065
84048SOL    HW254042   9.628   6.516   7.992
84049SOL     OW54043   0.903   8.040   8.220
84049SOL    HW154044   0.937   8.030   8.309
84049SOL    HW254045   0.855   7.958   8.203
84050SOL     OW54046  13.790  10.984   0.259
84050SOL    HW154047  13.883  11.005   0.268
84050SOL    HW254048  13.778  10.971   0.165
84051SOL     OW54049   2.922   3.962   1.168
84051SOL    HW154050   2.948   3.898   1.234
84051SOL    HW254051   2.964   4.043   1.195
84052SOL     OW54052  11.425   3.641   0.277
84052SOL    HW154053  11.428   3.661   0.370
84052SOL    HW254054  11.364   3.705   0.240
84053SOL     OW54055   7.172   0.220  10.247
84053SOL    HW154056   7.131   0.191  10.165
84053SOL    HW254057   7.266   0.208  10.233
84054SOL     OW54058   7.182   2.804   3.788
84054SOL    HW154059   7.148   2.836   3.704
84054SOL    HW254060   7.115   2.742   3.817
84055SOL     OW54061   6.439  13.537   9.829
84055SOL    HW154062   6.502  13.604   9.805
84055SOL    HW254063   6.356  13.584   9.839
84056SOL     OW54064   4.359   1.426   5.863
84056SOL    HW154065   4.369   1.352   5.924
84056SOL    HW254066   4.338   1.385   5.779
84057SOL     OW54067   5.892   1.403   8.254
84057SOL    HW154068   5.901   1.356   8.337
84057SOL    HW254069   5.875   1.494   8.279
84058SOL     OW54070   5.284  13.968   7.099
84058SOL    HW154071   5.345  14.030   7.062
84058SOL    HW254072   5.247  14.012   7.176
84059SOL     OW54073   4.859   2.537  10.461
84059SOL    HW154074   4.871   2.444  10.447
84059SOL    HW254075   4.767   2.553  10.440
84060SOL     OW54076   6.581  12.455  12.100
84060SOL    HW154077   6.662  12.494  12.135
84060SOL    HW254078   6.611  12.392  12.036
84061SOL     OW54079   2.217   9.258   2.441
84061SOL    HW154080   2.141   9.207   2.468
84061SOL    HW254081   2.211   9.338   2.492
84062SOL     OW54082   0.939   7.464   0.853
84062SOL    HW154083   0.949   7.429   0.941
84062SOL    HW254084   1.024   7.451   0.812
84063SOL     OW54085   8.718  11.700   3.506
84063SOL    HW154086   8.666  11.777   3.482
84063SOL    HW254087   8.735  11.710   3.599
84064SOL     OW54088   9.778   2.288   0.711
84064SOL    HW154089   9.816   2.302   0.797
84064SOL    HW254090   9.697   2.239   0.728
84065SOL     OW54091   4.930  12.423   0.217
84065SOL    HW154092   4.872  12.463   0.282
84065SOL    HW254093   4.911  12.329   0.222
84066SOL     OW54094   7.592   8.079   3.247
84066SOL    HW154095   7.665   8.018   3.255
84066SOL    HW254096   7.617   8.137   3.175
84067SOL     OW54097   5.358  12.894   8.825
84067SOL    HW154098   5.427  12.951   8.790
84067SOL    HW254099   5.300  12.953   8.873
84068SOL     OW54100   9.555   7.405  14.423
84068SOL    HW154101   9.598   7.465  14.362
84068SOL    HW254102   9.558   7.320  14.379
84069SOL     OW54103  11.919   6.110  14.481
84069SOL    HW154104  11.990   6.152  14.433
84069SOL    HW254105  11.848   6.103  14.418
84070SOL     OW54106  12.490   0.240   8.100
84070SOL    HW154107  12.475   0.239   8.006
84070SOL    HW254108  12.439   0.165   8.133
84071SOL     OW54109   2.365   1.421   1.819
84071SOL    HW154110   2.410   1.411   1.734
84071SOL    HW254111   2.272   1.422   1.796
84072SOL     OW54112   4.452   9.752   3.987
84072SOL    HW154113   4.412   9.690   4.048
84072SOL    HW254114   4.455   9.834   4.035
84073SOL     OW54115   7.608   2.226   4.906
84073SOL    HW154116   7.694   2.249   4.870
84073SOL    HW254117   7.603   2.131   4.895
84074SOL     OW54118   3.581  14.854   2.605
84074SOL    HW154119   3.532  14.804   2.540
84074SOL    HW254120   3.532  14.841   2.687
84075SOL     OW54121   9.869   7.728  10.661
84075SOL    HW154122   9.936   7.795  10.649
84075SOL    HW254123   9.800   7.751  10.599
84076SOL     OW54124   6.960   4.978   7.469
84076SOL    HW154125   6.949   5.059   7.419
84076SOL    HW254126   6.890   4.920   7.436
84077SOL     OW54127   4.169   0.115   9.491
84077SOL    HW154128   4.244   0.153   9.446
84077SOL    HW254129   4.153   0.175   9.564
84078SOL     OW54130   0.564   5.742   2.230
84078SOL    HW154131   0.560   5.781   2.143
84078SOL    HW254132   0.514   5.802   2.285
84079SOL     OW54133  10.663   2.480   7.080
84079SOL    HW154134  10.569   2.499   7.092
84079SOL    HW254135  10.698   2.561   7.042
84080SOL     OW54136   6.181  10.243   8.657
84080SOL    HW154137   6.248  10.302   8.691
84080SOL    HW254138   6.164  10.182   8.728
84081SOL     OW54139   1.207   3.734   4.052
84081SOL    HW154140   1.134   3.675   4.033
84081SOL    HW254141   1.285   3.683   4.030
84082SOL     OW54142   8.788   9.155   3.031
84082SOL    HW154143   8.727   9.199   2.972
84082SOL    HW254144   8.762   9.182   3.119
84083SOL     OW54145   8.657  11.401   2.809
84083SOL    HW154146   8.611  11.367   2.885
84083SOL    HW254147   8.665  11.326   2.750
84084SOL     OW54148  11.832   7.679   0.673
84084SOL    HW154149  11.746   7.703   0.640
84084SOL    HW254150  11.879   7.762   0.682
84085SOL     OW54151  12.410   1.240  14.656
84085SOL    HW154152  12.391   1.329  14.685
84085SOL    HW254153  12.501   1.225  14.683
84086SOL     OW54154   3.604   4.562   9.445
84086SOL    HW154155   3.564   4.647   9.427
84086SOL    HW254156   3.592   4.549   9.539
84087SOL     OW54157  11.303   3.785   1.980
84087SOL    HW154158  11.256   3.797   2.063
84087SOL    HW254159  11.307   3.872   1.941
84088SOL     OW54160   6.160   3.260   0.131
84088SOL    HW154161   6.101   3.186   0.119
84088SOL    HW254162   6.243   3.221   0.159
84089SOL     OW54163   6.598   9.424   6.537
84089SOL    HW154164   6.556   9.347   6.498
84089SOL    HW254165   6.660   9.454   6.470
84090SOL     OW54166   8.148   0.678   5.326
84090SOL    HW154167   8.102   0.751   5.284
84090SOL    HW254168   8.135   0.604   5.266
84091SOL     OW54169  10.999  12.165   0.571
84091SOL    HW154170  11.015  12.098   0.504
84091SOL    HW254171  10.972  12.115   0.648
84092SOL     OW54172   7.297   6.518   8.133
84092SOL    HW154173   7.255   6.562   8.059
84092SOL    HW254174   7.352   6.451   8.093
84093SOL     OW54175   9.811   9.418  14.521
84093SOL    HW154176   9.824   9.365  14.599
84093SOL    HW254177   9.863   9.497  14.536
84094SOL     OW54178  11.642   7.363   7.035
84094SOL    HW154179  11.549   7.381   7.016
84094SOL    HW254180  11.641   7.324   7.122
84095SOL     OW54181   4.088  11.663  12.468
84095SOL    HW154182   4.038  11.587  12.498
84095SOL    HW254183   4.105  11.713  12.547
84096SOL     OW54184  10.412   1.978   6.445
84096SOL    HW154185  10.352   1.956   6.516
84096SOL    HW254186  10.361   2.034   6.387
84097SOL     OW54187  13.167   6.026  10.844
84097SOL    HW154188  13.162   6.055  10.935
84097SOL    HW254189  13.257   6.048  10.818
84098SOL     OW54190   6.777   7.081  11.671
84098SOL    HW154191   6.724   7.031  11.610
84098SOL    HW254192   6.803   7.159  11.622
84099SOL     OW54193   5.375  13.516   1.129
84099SOL    HW154194   5.317  13.592   1.123
84099SOL    HW254195   5.319  13.446   1.164
84100SOL     OW54196   3.385  13.296   9.972
84100SOL    HW154197   3.318  13.228   9.962
84100SOL    HW254198   3.441  13.285   9.895
84101SOL     OW54199   3.589   5.332   9.383
84101SOL    HW154200   3.507   5.300   9.347
84101SOL    HW254201   3.619   5.398   9.321
84102SOL     OW54202  12.969  14.521   0.469
84102SOL    HW154203  12.966  14.506   0.375
84102SOL    HW254204  12.880  14.505   0.499
84103SOL     OW54205   0.486   1.558  12.247
84103SOL    HW154206   0.464   1.465  12.241
84103SOL    HW254207   0.581   1.560  12.254
84104SOL     OW54208   6.076  13.324   5.471
84104SOL    HW154209   6.108  13.410   5.500
84104SOL    HW254210   5.984  13.323   5.496
84105SOL     OW54211   3.273   8.113  10.175
84105SOL    HW154212   3.239   8.086  10.260
84105SOL    HW254213   3.285   8.031  10.126
84106SOL     OW54214  13.921   3.812   3.925
84106SOL    HW154215  13.881   3.740   3.876
84106SOL    HW254216  13.861   3.828   3.998
84107SOL     OW54217   8.223  12.421  12.652
84107SOL    HW154218   8.145  12.377  12.617
84107SOL    HW254219   8.200  12.439  12.744
84108SOL     OW54220   2.345   0.807  11.668
84108SOL    HW154221   2.366   0.758  11.589
84108SOL    HW254222   2.425   0.857  11.687
84109SOL     OW54223  11.927   7.287  10.262
84109SOL    HW154224  11.987   7.239  10.319
84109SOL    HW254225  11.895   7.359  10.316
84110SOL     OW54226   6.481   5.209   3.792
84110SOL    HW154227   6.567   5.250   3.799
84110SOL    HW254228   6.438   5.229   3.876
84111SOL     OW54229   7.751   9.115   6.836
84111SOL    HW154230   7.709   9.171   6.771
84111SOL    HW254231   7.720   9.027   6.814
84112SOL     OW54232   2.537  11.426   9.236
84112SOL    HW154233   2.624  11.464   9.238
84112SOL    HW254234   2.543  11.348   9.293
84113SOL     OW54235  13.220   7.469  10.259
84113SOL    HW154236  13.211   7.545  10.202
84113SOL    HW254237  13.292   7.419  10.221
84114SOL     OW54238   5.246   7.276  11.832
84114SOL    HW154239   5.161   7.236  11.848
84114SOL    HW254240   5.245   7.299  11.739
84115SOL     OW54241  12.474   6.366   4.573
84115SOL    HW154242  12.392   6.318   4.563
84115SOL    HW254243  12.536   6.320   4.517
84116SOL     OW54244   5.835  13.606  12.720
84116SOL    HW154245   5.824  13.674  12.787
84116SOL    HW254246   5.801  13.526  12.762
84117SOL     OW54247  13.765  13.519   3.196
84117SOL    HW154248  13.838  13.543   3.252
84117SOL    HW254249  13.757  13.592   3.133
84118SOL     OW54250  11.728   5.905  10.170
84118SOL    HW154251  11.735   5.944  10.082
84118SOL    HW254252  11.636   5.916  10.193
84119SOL     OW54253   7.210   3.337  14.494
84119SOL    HW154254   7.221   3.413  14.437
84119SOL    HW254255   7.116   3.322  14.497
84120SOL     OW54256   8.913  12.453   5.075
84120SOL    HW154257   8.865  12.396   5.015
84120SOL    HW254258   8.857  12.459   5.152
84121SOL     OW54259   8.270  10.016   0.848
84121SOL    HW154260   8.188  10.065   0.840
84121SOL    HW254261   8.282  10.005   0.942
84122SOL     OW54262  13.510   7.079   6.024
84122SOL    HW154263  13.594   7.033   6.023
84122SOL    HW254264  13.454   7.025   6.081
84123SOL     OW54265   9.215   8.164  14.637
84123SOL    HW154266   9.299   8.197  14.670
84123SOL    HW254267   9.208   8.200  14.549
84124SOL     OW54268   1.476   5.484   6.278
84124SOL    HW154269   1.557   5.467   6.327
84124SOL    HW254270   1.410   5.429   6.322
84125SOL     OW54271   4.687   3.982  12.008
84125SOL    HW154272   4.679   4.059  11.952
84125SOL    HW254273   4.743   3.922  11.958
84126SOL     OW54274   0.009  11.788  12.682
84126SOL    HW154275  14.840  11.703  12.699
84126SOL    HW254276  14.816  11.852  12.713
84127SOL     OW54277   0.831   9.883  13.227
84127SOL    HW154278   0.912   9.863  13.274
84127SOL    HW254279   0.770   9.815  13.256
84128SOL     OW54280   7.388  11.462   0.033
84128SOL    HW154281   7.293  11.468   0.024
84128SOL    HW254282   7.402  11.437   0.124
84129SOL     OW54283  12.407   1.791   3.723
84129SOL    HW154284  12.378   1.814   3.812
84129SOL    HW254285  12.419   1.876   3.680
84130SOL     OW54286   3.173   3.870   7.530
84130SOL    HW154287   3.191   3.851   7.622
84130SOL    HW254288   3.134   3.957   7.531
84131SOL     OW54289  12.063   5.713   8.855
84131SOL    HW154290  12.057   5.807   8.834
84131SOL    HW254291  12.127   5.679   8.792
84132SOL     OW54292  14.300  10.963  11.289
84132SOL    HW154293  14.264  10.997  11.207
84132SOL    HW254294  14.340  10.880  11.265
84133SOL     OW54295   0.842  12.407  13.258
84133SOL    HW154296   0.929  12.373  13.234
84133SOL    HW254297   0.850  12.429  13.351
84134SOL     OW54298   9.976   1.685   4.226
84134SOL    HW154299   9.987   1.727   4.141
84134SOL    HW254300   9.958   1.593   4.205
84135SOL     OW54301  11.120   0.277   4.181
84135SOL    HW154302  11.205   0.286   4.137
84135SOL    HW254303  11.131   0.324   4.264
84136SOL     OW54304  14.830  11.580   0.619
84136SOL    HW154305   0.052  11.601   0.619
84136SOL    HW254306  14.791  11.644   0.678
84137SOL     OW54307   7.354   5.585  13.675
84137SOL    HW154308   7.399   5.521  13.730
84137SOL    HW254309   7.390   5.571  13.588
84138SOL     OW54310  10.940  10.903   2.016
84138SOL    HW154311  10.868  10.843   1.994
84138SOL    HW254312  10.922  10.929   2.106
84139SOL     OW54313   3.637   6.132  13.728
84139SOL    HW154314   3.602   6.207  13.681
84139SOL    HW254315   3.560   6.088  13.764
84140SOL     OW54316  13.742   1.225  11.695
84140SOL    HW154317  13.753   1.320  11.703
84140SOL    HW254318  13.667   1.214  11.636
84141SOL     OW54319   0.879   1.405   9.418
84141SOL    HW154320   0.794   1.448   9.407
84141SOL    HW254321   0.868   1.319   9.377
84142SOL     OW54322   9.418   8.963  10.084
84142SOL    HW154323   9.378   9.048  10.066
84142SOL    HW254324   9.345   8.901  10.083
84143SOL     OW54325  12.601  11.321  10.637
84143SOL    HW154326  12.670  11.328  10.571
84143SOL    HW254327  12.613  11.235  10.676
84144SOL     OW54328  10.159   7.570   0.609
84144SOL    HW154329  10.250   7.590   0.586
84144SOL    HW254330  10.106   7.629   0.556
84145SOL     OW54331  13.612   0.463   3.036
84145SOL    HW154332  13.687   0.512   3.070
84145SOL    HW254333  13.585   0.408   3.110
84146SOL     OW54334   9.657   8.739  13.519
84146SOL    HW154335   9.657   8.648  13.492
84146SOL    HW254336   9.660   8.789  13.438
84147SOL     OW54337   2.864  12.632   3.754
84147SOL    HW154338   2.899  12.636   3.843
84147SOL    HW254339   2.798  12.702   3.751
84148SOL     OW54340  12.747   0.070  11.151
84148SOL    HW154341  12.741  14.869  11.214
84148SOL    HW254342  12.838   0.070  11.122
84149SOL     OW54343  12.999  11.788   7.117
84149SOL    HW154344  13.020  11.846   7.044
84149SOL    HW254345  12.987  11.702   7.077
84150SOL     OW54346   4.905  12.088   8.228
84150SOL    HW154347   4.821  12.133   8.226
84150SOL    HW254348   4.914  12.049   8.141
84151SOL     OW54349   7.611   7.566   7.928
84151SOL    HW154350   7.640   7.656   7.941
84151SOL    HW254351   7.684   7.512   7.960
84152SOL     OW54352   8.365  10.013   2.650
84152SOL    HW154353   8.433   9.946   2.657
84152SOL    HW254354   8.299   9.987   2.713
84153SOL     OW54355   1.397   0.641   2.386
84153SOL    HW154356   1.401   0.589   2.305
84153SOL    HW254357   1.487   0.639   2.419
84154SOL     OW54358  14.232  10.266   6.453
84154SOL    HW154359  14.168  10.197   6.467
84154SOL    HW254360  14.269  10.283   6.540
84155SOL     OW54361   7.439  11.472   8.446
84155SOL    HW154362   7.386  11.408   8.492
84155SOL    HW254363   7.389  11.554   8.450
84156SOL     OW54364   5.806   1.702  12.028
84156SOL    HW154365   5.837   1.681  12.117
84156SOL    HW254366   5.721   1.744  12.041
84157SOL     OW54367  14.168   1.096  13.001
84157SOL    HW154368  14.191   1.006  12.978
84157SOL    HW254369  14.134   1.090  13.090
84158SOL     OW54370   8.298  11.087  10.652
84158SOL    HW154371   8.258  11.019  10.706
84158SOL    HW254372   8.331  11.040  10.575
84159SOL     OW54373   0.519   1.569   0.107
84159SOL    HW154374   0.488   1.617   0.183
84159SOL    HW254375   0.537   1.636   0.041
84160SOL     OW54376   9.320   8.765  10.352
84160SOL    HW154377   9.333   8.827  10.424
84160SOL    HW254378   9.291   8.820  10.278
84161SOL     OW54379  14.289  10.448   6.215
84161SOL    HW154380  14.361  10.498   6.175
84161SOL    HW254381  14.322  10.424   6.302
84162SOL     OW54382  11.458   3.175  12.559
84162SOL    HW154383  11.404   3.115  12.610
84162SOL    HW254384  11.432   3.262  12.590
84163SOL     OW54385  13.682  14.788   5.921
84163SOL    HW154386  13.685  14.863   5.980
84163SOL    HW254387  13.767  14.789   5.876
84164SOL     OW54388   4.483   5.183  13.022
84164SOL    HW154389   4.466   5.158  12.931
84164SOL    HW254390   4.567   5.142  13.042
84165SOL     OW54391   1.361   4.310   8.774
84165SOL    HW154392   1.424   4.364   8.726
84165SOL    HW254393   1.279   4.359   8.771
84166SOL     OW54394   2.005  13.431   2.407
84166SOL    HW154395   2.043  13.490   2.342
84166SOL    HW254396   1.940  13.380   2.358
84167SOL     OW54397   6.174   4.186   8.193
84167SOL    HW154398   6.093   4.137   8.179
84167SOL    HW254399   6.202   4.161   8.281
84168SOL     OW54400  14.266  11.089   8.388
84168SOL    HW154401  14.269  11.091   8.484
84168SOL    HW254402  14.293  10.999   8.366
84169SOL     OW54403   6.844  13.874   5.355
84169SOL    HW154404   6.913  13.863   5.421
84169SOL    HW254405   6.852  13.797   5.298
84170SOL     OW54406   7.452   4.634   3.992
84170SOL    HW154407   7.409   4.551   4.011
84170SOL    HW254408   7.543   4.610   3.973
84171SOL     OW54409   1.652  11.146   4.825
84171SOL    HW154410   1.596  11.135   4.902
84171SOL    HW254411   1.613  11.219   4.778
84172SOL     OW54412   4.154   5.995   5.087
84172SOL    HW154413   4.142   6.085   5.119
84172SOL    HW254414   4.126   5.999   4.996
84173SOL     OW54415   8.377   7.933   8.975
84173SOL    HW154416   8.298   7.911   9.025
84173SOL    HW254417   8.345   7.989   8.904
84174SOL     OW54418   9.324   5.678  10.578
84174SOL    HW154419   9.243   5.631  10.560
84174SOL    HW254420   9.377   5.616  10.630
84175SOL     OW54421  10.160  12.302  12.341
84175SOL    HW154422  10.075  12.344  12.355
84175SOL    HW254423  10.140  12.209  12.333
84176SOL     OW54424   8.572  13.676   0.075
84176SOL    HW154425   8.571  13.683   0.171
84176SOL    HW254426   8.661  13.700   0.050
84177SOL     OW54427   8.605   6.383   5.164
84177SOL    HW154428   8.571   6.320   5.100
84177SOL    HW254429   8.631   6.458   5.112
84178SOL     OW54430   1.744  14.599  13.249
84178SOL    HW154431   1.754  14.584  13.155
84178SOL    HW254432   1.828  14.637  13.275
84179SOL     OW54433   3.352   5.314  12.054
84179SOL    HW154434   3.351   5.403  12.018
84179SOL    HW254435   3.444   5.287  12.049
84180SOL     OW54436   6.377   2.914   2.257
84180SOL    HW154437   6.332   2.890   2.176
84180SOL    HW254438   6.466   2.883   2.245
84181SOL     OW54439   8.125   2.915   8.240
84181SOL    HW154440   8.104   2.916   8.333
84181SOL    HW254441   8.127   3.007   8.214
84182SOL     OW54442   7.891   5.545   9.791
84182SOL    HW154443   7.810   5.506   9.758
84182SOL    HW254444   7.929   5.589   9.715
84183SOL     OW54445  13.543  12.390   5.350
84183SOL    HW154446  13.607  12.449   5.389
84183SOL    HW254447  13.582  12.364   5.267
84184SOL     OW54448   8.674   3.893   9.991
84184SOL    HW154449   8.595   3.923   9.945
84184SOL    HW254450   8.723   3.973  10.009
84185SOL     OW54451   3.689  12.431  13.606
84185SOL    HW154452   3.669  12.500  13.543
84185SOL    HW254453   3.705  12.478  13.688
84186SOL     OW54454  13.863   9.469  13.520
84186SOL    HW154455  13.913   9.504  13.594
84186SOL    HW254456  13.809   9.400  13.558
84187SOL     OW54457  10.857   0.586  13.360
84187SOL    HW154458  10.826   0.663  13.407
84187SOL    HW254459  10.933   0.616  13.310
84188SOL     OW54460   9.319  10.845   6.928
84188SOL    HW154461   9.318  10.843   7.024
84188SOL    HW254462   9.384  10.779   6.903
84189SOL     OW54463  10.334   0.440  10.093
84189SOL    HW154464  10.269   0.509  10.080
84189SOL    HW254465  10.290   0.360  10.065
84190SOL     OW54466   2.232   9.862   4.217
84190SOL    HW154467   2.206   9.814   4.296
84190SOL    HW254468   2.289   9.932   4.249
84191SOL     OW54469  10.855   7.027  13.477
84191SOL    HW154470  10.765   7.026  13.444
84191SOL    HW254471  10.901   6.962  13.425
84192SOL     OW54472  11.094   8.525  13.052
84192SOL    HW154473  11.147   8.474  12.991
84192SOL    HW254474  11.149   8.600  13.074
84193SOL     OW54475   1.083   0.323   7.933
84193SOL    HW154476   1.118   0.381   8.001
84193SOL    HW254477   1.103   0.369   7.851
84194SOL     OW54478   3.471   8.442   7.726
84194SOL    HW154479   3.555   8.482   7.705
84194SOL    HW254480   3.433   8.419   7.641
84195SOL     OW54481  10.405   6.427  10.430
84195SOL    HW154482  10.475   6.472  10.476
84195SOL    HW254483  10.434   6.422  10.339
84196SOL     OW54484  10.659   2.490   8.942
84196SOL    HW154485  10.751   2.471   8.961
84196SOL    HW254486  10.619   2.505   9.028
84197SOL     OW54487   8.981   8.009  14.403
84197SOL    HW154488   9.000   7.927  14.358
84197SOL    HW254489   8.937   7.982  14.484
84198SOL     OW54490  14.770   8.339  12.385
84198SOL    HW154491  14.806   8.426  12.370
84198SOL    HW254492  14.826   8.281  12.334
84199SOL     OW54493  11.925   5.056  11.634
84199SOL    HW154494  11.915   5.079  11.726
84199SOL    HW254495  11.958   5.135  11.593
84200SOL     OW54496  14.085   0.115   3.922
84200SOL    HW154497  14.020   0.131   3.991
84200SOL    HW254498  14.077   0.190   3.864
84201SOL     OW54499   1.935  14.483   0.218
84201SOL    HW154500   1.859  14.429   0.243
84201SOL    HW254501   1.930  14.488   0.123
84202SOL     OW54502   0.898  12.712   4.960
84202SOL    HW154503   0.973  12.767   4.980
84202SOL    HW254504   0.823  12.772   4.958
84203SOL     OW54505   8.546  14.202   9.902
84203SOL    HW154506   8.630  14.245   9.916
84203SOL    HW254507   8.569  14.111   9.883
84204SOL     OW54508   0.493  10.920   3.447
84204SOL    HW154509   0.475  10.848   3.387
84204SOL    HW254510   0.520  10.992   3.391
84205SOL     OW54511   4.842  13.009  13.600
84205SOL    HW154512   4.811  12.999  13.510
84205SOL    HW254513   4.882  12.924  13.621
84206SOL     OW54514   8.193   6.451  14.798
84206SOL    HW154515   8.102   6.423  14.811
84206SOL    HW254516   8.216   6.418  14.712
84207SOL     OW54517  13.692   4.236   0.840
84207SOL    HW154518  13.707   4.166   0.904
84207SOL    HW254519  13.746   4.309   0.870
84208SOL     OW54520   8.409  10.735   0.501
84208SOL    HW154521   8.486  10.678   0.495
84208SOL    HW254522   8.440  10.821   0.475
84209SOL     OW54523   7.430  13.031   9.631
84209SOL    HW154524   7.520  13.001   9.646
84209SOL    HW254525   7.379  12.951   9.623
84210SOL     OW54526   6.802   6.179   9.167
84210SOL    HW154527   6.838   6.268   9.166
84210SOL    HW254528   6.765   6.169   9.254
84211SOL     OW54529  11.584  10.784  12.886
84211SOL    HW154530  11.676  10.766  12.905
84211SOL    HW254531  11.538  10.703  12.910
84212SOL     OW54532  12.726   4.619   4.619
84212SOL    HW154533  12.742   4.544   4.562
84212SOL    HW254534  12.704   4.580   4.704
84213SOL     OW54535   1.987   2.584   8.391
84213SOL    HW154536   1.961   2.506   8.343
84213SOL    HW254537   2.081   2.593   8.373
84214SOL     OW54538  10.517   3.033   6.697
84214SOL    HW154539  10.546   2.953   6.653
84214SOL    HW254540  10.454   3.003   6.762
84215SOL     OW54541  11.958   3.204  14.123
84215SOL    HW154542  11.863   3.192  14.131
84215SOL    HW254543  11.967   3.277  14.061
84216SOL     OW54544  10.498  12.418   9.682
84216SOL    HW154545  10.530  12.444   9.768
84216SOL    HW254546  10.576  12.393   9.633
84217SOL     OW54547   6.547   8.773  11.121
84217SOL    HW154548   6.482   8.821  11.172
84217SOL    HW254549   6.622   8.765  11.180
84218SOL     OW54550   8.944  14.852   7.239
84218SOL    HW154551   8.885   0.042   7.283
84218SOL    HW254552   8.886  14.794   7.189
84219SOL     OW54553  10.898   8.927   7.592
84219SOL    HW154554  10.948   8.880   7.659
84219SOL    HW254555  10.887   9.015   7.628
84220SOL     OW54556  11.413   1.176   3.367
84220SOL    HW154557  11.415   1.242   3.436
84220SOL    HW254558  11.503   1.173   3.334
84221SOL     OW54559   5.704   6.396  10.392
84221SOL    HW154560   5.799   6.384  10.397
84221SOL    HW254561   5.683   6.379  10.299
84222SOL     OW54562  11.858   5.594   7.411
84222SOL    HW154563  11.904   5.564   7.489
84222SOL    HW254564  11.797   5.523   7.390
84223SOL     OW54565   6.606  10.337   8.463
84223SOL    HW154566   6.626  10.258   8.513
84223SOL    HW254567   6.581  10.305   8.376
84224SOL     OW54568   2.738  10.807  12.671
84224SOL    HW154569   2.787  10.884  12.640
84224SOL    HW254570   2.799  10.734  12.660
84225SOL     OW54571  13.488   8.440  14.197
84225SOL    HW154572  13.461   8.532  14.202
84225SOL    HW254573  13.582   8.443  14.180
84226SOL     OW54574   4.040   5.954   4.121
84226SOL    HW154575   3.956   5.908   4.121
84226SOL    HW254576   4.022   6.037   4.077
84227SOL     OW54577   6.203   9.356   8.607
84227SOL    HW154578   6.259   9.283   8.633
84227SOL    HW254579   6.247   9.433   8.643
84228SOL     OW54580   1.159  11.137  10.415
84228SOL    HW154581   1.160  11.041  10.414
84228SOL    HW254582   1.161  11.160  10.508
84229SOL     OW54583   5.712   4.157   4.876
84229SOL    HW154584   5.748   4.069   4.889
84229SOL    HW254585   5.657   4.150   4.798
84230SOL     OW54586   3.807   7.675   8.163
84230SOL    HW154587   3.778   7.698   8.251
84230SOL    HW254588   3.902   7.667   8.170
84231SOL     OW54589   7.235   9.690  14.661
84231SOL    HW154590   7.247   9.735  14.745
84231SOL    HW254591   7.176   9.617  14.682
84232SOL     OW54592   8.114   2.400   0.395
84232SOL    HW154593   8.126   2.477   0.451
84232SOL    HW254594   8.072   2.335   0.452
84233SOL     OW54595   0.881   1.492   8.493
84233SOL    HW154596   0.825   1.414   8.484
84233SOL    HW254597   0.871   1.538   8.410
84234SOL     OW54598  14.476   9.257   4.094
84234SOL    HW154599  14.486   9.234   4.186
84234SOL    HW254600  14.537   9.329   4.080
84235SOL     OW54601  12.434  14.778  10.478
84235SOL    HW154602  12.390  14.722  10.541
84235SOL    HW254603  12.525  14.748  10.479
84236SOL     OW54604  13.898   1.407  12.758
84236SOL    HW154605  13.989   1.436  12.768
84236SOL    HW254606  13.869   1.448  12.677
84237SOL     OW54607   6.411   8.673   9.829
84237SOL    HW154608   6.370   8.759   9.832
84237SOL    HW254609   6.475   8.674   9.900
84238SOL     OW54610   0.891   9.719   0.567
84238SOL    HW154611   0.935   9.710   0.483
84238SOL    HW254612   0.840   9.639   0.576
84239SOL     OW54613  11.511   2.079   6.475
84239SOL    HW154614  11.559   2.011   6.427
84239SOL    HW254615  11.452   2.030   6.533
84240SOL     OW54616   3.679  10.651  11.282
84240SOL    HW154617   3.651  10.707  11.355
84240SOL    HW254618   3.666  10.705  11.204
84241SOL     OW54619   3.545   9.993   3.648
84241SOL    HW154620   3.457  10.017   3.620
84241SOL    HW254621   3.531   9.941   3.728
84242SOL     OW54622  10.643   2.502   8.376
84242SOL    HW154623  10.667   2.524   8.286
84242SOL    HW254624  10.563   2.450   8.368
84243SOL     OW54625   8.510  10.803   7.964
84243SOL    HW154626   8.436  10.742   7.963
84243SOL    HW254627   8.568  10.769   8.032
84244SOL     OW54628  11.376   0.008   0.432
84244SOL    HW154629  11.432   0.086   0.434
84244SOL    HW254630  11.427  14.812   0.476
84245SOL     OW54631   0.274   4.231  11.624
84245SOL    HW154632   0.305   4.316  11.596
84245SOL    HW254633   0.329   4.210  11.701
84246SOL     OW54634   9.967   2.444   5.874
84246SOL    HW154635   9.941   2.452   5.966
84246SOL    HW254636   9.931   2.522   5.831
84247SOL     OW54637   9.564   6.516   8.963
84247SOL    HW154638   9.573   6.609   8.984
84247SOL    HW254639   9.533   6.516   8.872
84248SOL     OW54640  12.199   2.448  12.198
84248SOL    HW154641  12.179   2.366  12.153
84248SOL    HW254642  12.218   2.510  12.128
84249SOL     OW54643   3.602   6.543   4.647
84249SOL    HW154644   3.565   6.489   4.717
84249SOL    HW254645   3.617   6.629   4.688
84250SOL     OW54646   4.954   1.136   1.719
84250SOL    HW154647   4.861   1.115   1.715
84250SOL    HW254648   4.997   1.063   1.674
84251SOL     OW54649   2.188   7.758   2.610
84251SOL    HW154650   2.148   7.796   2.532
84251SOL    HW254651   2.160   7.666   2.609
84252SOL     OW54652   4.132   9.591   7.171
84252SOL    HW154653   4.171   9.667   7.215
84252SOL    HW254654   4.056   9.569   7.224
84253SOL     OW54655   2.910  10.450   1.082
84253SOL    HW154656   2.819  10.422   1.096
84253SOL    HW254657   2.909  10.491   0.996
84254SOL     OW54658   2.631   7.963  11.627
84254SOL    HW154659   2.570   7.966  11.553
84254SOL    HW254660   2.590   7.904  11.690
84255SOL     OW54661   4.547  12.374  14.330
84255SOL    HW154662   4.533  12.349  14.239
84255SOL    HW254663   4.634  12.416  14.329
84256SOL     OW54664   5.738   7.360   3.229
84256SOL    HW154665   5.807   7.407   3.182
84256SOL    HW254666   5.758   7.267   3.216
84257SOL     OW54667  11.535   5.054  10.122
84257SOL    HW154668  11.462   5.022  10.070
84257SOL    HW254669  11.593   5.097  10.059
84258SOL     OW54670   4.411   9.869   1.822
84258SOL    HW154671   4.366   9.874   1.737
84258SOL    HW254672   4.355   9.918   1.882
84259SOL     OW54673  11.692  12.788  13.395
84259SOL    HW154674  11.706  12.701  13.432
84259SOL    HW254675  11.604  12.813  13.424
84260SOL     OW54676  13.751   5.848  12.240
84260SOL    HW154677  13.707   5.903  12.176
84260SOL    HW254678  13.680   5.802  12.286
84261SOL     OW54679  14.298   7.245  10.240
84261SOL    HW154680  14.296   7.250  10.145
84261SOL    HW254681  14.276   7.154  10.260
84262SOL     OW54682   9.403   2.476   5.216
84262SOL    HW154683   9.399   2.457   5.309
84262SOL    HW254684   9.495   2.500   5.201
84263SOL     OW54685  10.758   0.683  12.623
84263SOL    HW154686  10.740   0.777  12.629
84263SOL    HW254687  10.715   0.645  12.699
84264SOL     OW54688   3.812   1.646  12.317
84264SOL    HW154689   3.727   1.676  12.348
84264SOL    HW254690   3.797   1.556  12.288
84265SOL     OW54691  10.775  11.622   3.337
84265SOL    HW154692  10.768  11.575   3.420
84265SOL    HW254693  10.864  11.606   3.307
84266SOL     OW54694   2.673   5.261  10.424
84266SOL    HW154695   2.749   5.287  10.477
84266SOL    HW254696   2.656   5.170  10.448
84267SOL     OW54697   0.028   4.134  13.049
84267SOL    HW154698   0.092   4.161  12.982
84267SOL    HW254699  14.832   4.202  13.046
84268SOL     OW54700   8.642   5.874   7.537
84268SOL    HW154701   8.679   5.905   7.620
84268SOL    HW254702   8.656   5.779   7.538
84269SOL     OW54703   0.393   2.405   6.724
84269SOL    HW154704   0.381   2.493   6.688
84269SOL    HW254705   0.306   2.379   6.753
84270SOL     OW54706   0.825  13.300   5.391
84270SOL    HW154707   0.742  13.339   5.364
84270SOL    HW254708   0.876  13.374   5.425
84271SOL     OW54709   2.936   1.857  10.966
84271SOL    HW154710   2.946   1.914  10.890
84271SOL    HW254711   2.993   1.782  10.947
84272SOL     OW54712  10.616   0.639  14.334
84272SOL    HW154713  10.704   0.606  14.350
84272SOL    HW254714  10.558   0.568  14.362
84273SOL     OW54715  13.109   7.018  10.462
84273SOL    HW154716  13.032   6.965  10.485
84273SOL    HW254717  13.155   6.965  10.396
84274SOL     OW54718  14.460   8.891   4.661
84274SOL    HW154719  14.380   8.917   4.616
84274SOL    HW254720  14.497   8.973   4.694
84275SOL     OW54721   2.989  11.939   0.237
84275SOL    HW154722   3.030  12.020   0.209
84275SOL    HW254723   3.032  11.917   0.320
84276SOL     OW54724  10.397   4.789   6.417
84276SOL    HW154725  10.482   4.829   6.404
84276SOL    HW254726  10.381   4.796   6.511
84277SOL     OW54727  14.803   0.832   6.071
84277SOL    HW154728  14.788   0.799   5.982
84277SOL    HW254729   0.009   0.784   6.101
84278SOL     OW54730  11.454  12.155   1.981
84278SOL    HW154731  11.398  12.078   1.986
84278SOL    HW254732  11.466  12.182   2.072
84279SOL     OW54733   3.063  13.816  12.708
84279SOL    HW154734   3.022  13.859  12.784
84279SOL    HW254735   3.152  13.851  12.707
84280SOL     OW54736   0.094   3.356   6.507
84280SOL    HW154737   0.114   3.442   6.470
84280SOL    HW254738   0.022   3.372   6.568
84281SOL     OW54739  12.962   8.308   3.054
84281SOL    HW154740  13.017   8.264   3.119
84281SOL    HW254741  13.001   8.395   3.045
84282SOL     OW54742  10.359   2.153   7.104
84282SOL    HW154743  10.354   2.098   7.183
84282SOL    HW254744  10.453   2.159   7.086
84283SOL     OW54745   9.999  13.675  10.810
84283SOL    HW154746   9.979  13.768  10.797
84283SOL    HW254747  10.089  13.675  10.843
84284SOL     OW54748   0.895   7.699  12.343
84284SOL    HW154749   0.967   7.671  12.400
84284SOL    HW254750   0.917   7.660  12.258
84285SOL     OW54751  11.124   1.773   1.885
84285SOL    HW154752  11.116   1.860   1.845
84285SOL    HW254753  11.087   1.713   1.820
84286SOL     OW54754   0.994   3.658   6.833
84286SOL    HW154755   0.922   3.638   6.773
84286SOL    HW254756   0.952   3.696   6.910
84287SOL     OW54757  14.720   4.748   7.113
84287SOL    HW154758  14.779   4.771   7.185
84287SOL    HW254759  14.759   4.670   7.074
84288SOL     OW54760  11.264  13.294   1.259
84288SOL    HW154761  11.321  13.288   1.182
84288SOL    HW254762  11.189  13.239   1.238
84289SOL     OW54763   6.319   1.634   0.758
84289SOL    HW154764   6.356   1.619   0.845
84289SOL    HW254765   6.352   1.560   0.706
84290SOL     OW54766  10.014   5.366   5.314
84290SOL    HW154767   9.945   5.303   5.291
84290SOL    HW254768  10.017   5.363   5.410
84291SOL     OW54769  12.393   7.163  11.324
84291SOL    HW154770  12.367   7.199  11.240
84291SOL    HW254771  12.313   7.127  11.361
84292SOL     OW54772  13.133  14.478  13.039
84292SOL    HW154773  13.134  14.430  13.122
84292SOL    HW254774  13.153  14.568  13.064
84293SOL     OW54775   9.474  10.644   6.855
84293SOL    HW154776   9.477  10.583   6.782
84293SOL    HW254777   9.481  10.588   6.933
84294SOL     OW54778   3.723  11.444   0.543
84294SOL    HW154779   3.627  11.454   0.546
84294SOL    HW254780   3.748  11.428   0.634
84295SOL     OW54781   8.875   5.738   1.956
84295SOL    HW154782   8.964   5.771   1.943
84295SOL    HW254783   8.882   5.678   2.031
84296SOL     OW54784   5.207   9.769   3.735
84296SOL    HW154785   5.135   9.802   3.790
84296SOL    HW254786   5.213   9.833   3.664
84297SOL     OW54787   4.433  13.338   6.465
84297SOL    HW154788   4.382  13.257   6.465
84297SOL    HW254789   4.373  13.404   6.429
84298SOL     OW54790   6.790  12.632   9.616
84298SOL    HW154791   6.725  12.624   9.546
84298SOL    HW254792   6.810  12.542   9.641
84299SOL     OW54793  12.508  10.790   8.773
84299SOL    HW154794  12.589  10.739   8.763
84299SOL    HW254795  12.516  10.829   8.861
84300SOL     OW54796   3.379   9.399   0.166
84300SOL    HW154797   3.349   9.476   0.118
84300SOL    HW254798   3.368   9.421   0.258
84301SOL     OW54799   5.729  10.825   1.994
84301SOL    HW154800   5.721  10.798   2.086
84301SOL    HW254801   5.648  10.873   1.977
84302SOL     OW54802  14.661   3.374  14.002
84302SOL    HW154803  14.717   3.451  14.004
84302SOL    HW254804  14.658   3.343  14.092
84303SOL     OW54805   1.701   7.588   7.195
84303SOL    HW154806   1.619   7.594   7.243
84303SOL    HW254807   1.756   7.656   7.234
84304SOL     OW54808   1.995   1.396   5.350
84304SOL    HW154809   1.947   1.441   5.419
84304SOL    HW254810   2.084   1.388   5.384
84305SOL     OW54811   5.939   8.561   4.982
84305SOL    HW154812   5.891   8.643   4.971
84305SOL    HW254813   5.871   8.495   4.994
84306SOL     OW54814   8.177  12.341   6.979
84306SOL    HW154815   8.165  12.358   7.073
84306SOL    HW254816   8.242  12.405   6.951
84307SOL     OW54817  10.358   8.367   5.998
84307SOL    HW154818  10.284   8.385   5.940
84307SOL    HW254819  10.371   8.272   5.991
84308SOL     OW54820   0.282  13.234   8.109
84308SOL    HW154821   0.339  13.295   8.156
84308SOL    HW254822   0.341  13.173   8.065
84309SOL     OW54823   5.189  11.756   8.822
84309SOL    HW154824   5.283  11.742   8.834
84309SOL    HW254825   5.181  11.848   8.796
84310SOL     OW54826   2.356   7.278   2.020
84310SOL    HW154827   2.317   7.212   2.078
84310SOL    HW254828   2.371   7.353   2.078
84311SOL     OW54829   3.027  14.063   0.545
84311SOL    HW154830   2.946  14.109   0.524
84311SOL    HW254831   3.092  14.098   0.484
84312SOL     OW54832   3.847   3.746   7.244
84312SOL    HW154833   3.797   3.823   7.216
84312SOL    HW254834   3.782   3.677   7.253
84313SOL     OW54835   7.496   4.402   5.035
84313SOL    HW154836   7.437   4.478   5.032
84313SOL    HW254837   7.530   4.395   4.946
84314SOL     OW54838  11.017   9.532   5.247
84314SOL    HW154839  11.003   9.625   5.261
84314SOL    HW254840  11.111   9.520   5.256
84315SOL     OW54841   4.701  10.427  11.632
84315SOL    HW154842   4.625  10.378  11.665
84315SOL    HW254843   4.696  10.416  11.537
84316SOL     OW54844  13.208  14.296  12.318
84316SOL    HW154845  13.117  14.283  12.289
84316SOL    HW254846  13.250  14.341  12.245
84317SOL     OW54847  12.046   3.290   2.604
84317SOL    HW154848  12.064   3.259   2.516
84317SOL    HW254849  12.113   3.249   2.659
84318SOL     OW54850   4.297   7.804  12.878
84318SOL    HW154851   4.386   7.812  12.844
84318SOL    HW254852   4.240   7.831  12.806
84319SOL     OW54853   6.702   8.637  11.814
84319SOL    HW154854   6.743   8.719  11.787
84319SOL    HW254855   6.630   8.664  11.871
84320SOL     OW54856   6.160   2.214   3.492
84320SOL    HW154857   6.097   2.201   3.420
84320SOL    HW254858   6.114   2.182   3.570
84321SOL     OW54859  14.473  10.696  13.689
84321SOL    HW154860  14.549  10.716  13.743
84321SOL    HW254861  14.481  10.603  13.669
84322SOL     OW54862   8.797   9.662   6.888
84322SOL    HW154863   8.735   9.608   6.936
84322SOL    HW254864   8.863   9.687   6.953
84323SOL     OW54865   6.102  11.801   1.202
84323SOL    HW154866   6.008  11.787   1.212
84323SOL    HW254867   6.120  11.785   1.110
84324SOL     OW54868   4.348   4.363   5.399
84324SOL    HW154869   4.336   4.418   5.476
84324SOL    HW254870   4.421   4.402   5.351
84325SOL     OW54871   4.299   8.367   7.382
84325SOL    HW154872   4.364   8.428   7.418
84325SOL    HW254873   4.252   8.334   7.459
84326SOL     OW54874   3.929   6.759   3.380
84326SOL    HW154875   3.881   6.746   3.461
84326SOL    HW254876   3.862   6.775   3.314
84327SOL     OW54877   3.103   0.315   5.423
84327SOL    HW154878   3.083   0.232   5.465
84327SOL    HW254879   3.019   0.346   5.389
84328SOL     OW54880  11.231  10.465   9.452
84328SOL    HW154881  11.283  10.532   9.408
84328SOL    HW254882  11.161  10.514   9.495
84329SOL     OW54883  12.303   4.283  10.090
84329SOL    HW154884  12.347   4.332  10.020
84329SOL    HW254885  12.210   4.306  10.081
84330SOL     OW54886   4.246  14.653  11.652
84330SOL    HW154887   4.332  14.661  11.611
84330SOL    HW254888   4.266  14.638  11.745
84331SOL     OW54889   6.434   7.641   4.838
84331SOL    HW154890   6.442   7.638   4.934
84331SOL    HW254891   6.395   7.727   4.821
84332SOL     OW54892  14.859  12.839   5.206
84332SOL    HW154893   0.044  12.914   5.222
84332SOL    HW254894  14.780  12.856   5.257
84333SOL     OW54895  10.080   4.301  13.512
84333SOL    HW154896  10.115   4.232  13.568
84333SOL    HW254897   9.987   4.279  13.503
84334SOL     OW54898   4.852   2.851   1.615
84334SOL    HW154899   4.897   2.878   1.536
84334SOL    HW254900   4.888   2.765   1.636
84335SOL     OW54901  10.823   3.939   4.057
84335SOL    HW154902  10.823   3.847   4.084
84335SOL    HW254903  10.882   3.982   4.118
84336SOL     OW54904   7.162   3.122   3.467
84336SOL    HW154905   7.153   3.152   3.557
84336SOL    HW254906   7.188   3.030   3.475
84337SOL     OW54907   7.082   4.028   3.270
84337SOL    HW154908   7.000   4.056   3.311
84337SOL    HW254909   7.063   4.022   3.177
84338SOL     OW54910   7.832   2.568   8.479
84338SOL    HW154911   7.874   2.516   8.410
84338SOL    HW254912   7.739   2.552   8.468
84339SOL     OW54913   8.946  12.174  14.823
84339SOL    HW154914   9.037  12.183  14.795
84339SOL    HW254915   8.944  12.212   0.039
84340SOL     OW54916   6.637   9.294  13.986
84340SOL    HW154917   6.646   9.388  13.974
84340SOL    HW254918   6.681   9.276  14.069
84341SOL     OW54919   1.991  11.907   8.294
84341SOL    HW154920   1.934  11.914   8.371
84341SOL    HW254921   2.079  11.896   8.330
84342SOL     OW54922   2.748  14.604   3.759
84342SOL    HW154923   2.723  14.696   3.765
84342SOL    HW254924   2.776  14.592   3.668
84343SOL     OW54925   4.020  12.547  11.861
84343SOL    HW154926   4.056  12.627  11.821
84343SOL    HW254927   3.955  12.516  11.797
84344SOL     OW54928   1.737   3.425  11.640
84344SOL    HW154929   1.795   3.351  11.621
84344SOL    HW254930   1.757   3.449  11.730
84345SOL     OW54931   3.769   3.303   9.089
84345SOL    HW154932   3.695   3.324   9.146
84345SOL    HW254933   3.730   3.254   9.016
84346SOL     OW54934   2.620   0.729   2.230
84346SOL    HW154935   2.579   0.816   2.227
84346SOL    HW254936   2.554   0.670   2.194
84347SOL     OW54937  14.783  10.081  14.706
84347SOL    HW154938  14.765  10.166  14.747
84347SOL    HW254939  14.696  10.045  14.687
84348SOL     OW54940  14.435   3.918   0.662
84348SOL    HW154941  14.397   3.848   0.714
84348SOL    HW254942  14.362   3.976   0.641
84349SOL     OW54943   2.534   4.077   0.730
84349SOL    HW154944   2.515   3.984   0.734
84349SOL    HW254945   2.601   4.085   0.662
84350SOL     OW54946   2.306   1.397   7.497
84350SOL    HW154947   2.388   1.411   7.450
84350SOL    HW254948   2.318   1.442   7.580
84351SOL     OW54949   2.540  13.670   6.606
84351SOL    HW154950   2.472  13.681   6.673
84351SOL    HW254951   2.617  13.713   6.643
84352SOL     OW54952   1.353   6.669   4.349
84352SOL    HW154953   1.279   6.667   4.409
84352SOL    HW254954   1.365   6.578   4.323
84353SOL     OW54955  10.606   0.920  14.299
84353SOL    HW154956  10.533   0.962  14.253
84353SOL    HW254957  10.591   0.827  14.287
84354SOL     OW54958   4.259   7.467  13.150
84354SOL    HW154959   4.172   7.498  13.178
84354SOL    HW254960   4.318   7.538  13.174
84355SOL     OW54961   1.589   7.335   5.969
84355SOL    HW154962   1.607   7.410   5.912
84355SOL    HW254963   1.630   7.359   6.053
84356SOL     OW54964  10.529  12.292   1.455
84356SOL    HW154965  10.552  12.361   1.517
84356SOL    HW254966  10.613  12.258   1.424
84357SOL     OW54967   3.876  13.726   2.257
84357SOL    HW154968   3.946  13.689   2.311
84357SOL    HW254969   3.879  13.675   2.176
84358SOL     OW54970   2.232   4.985   9.755
84358SOL    HW154971   2.275   4.900   9.751
84358SOL    HW254972   2.250   5.017   9.843
84359SOL     OW54973  13.543  11.416   1.777
84359SOL    HW154974  13.638  11.425   1.770
84359SOL    HW254975  13.514  11.497   1.819
84360SOL     OW54976   8.082   1.955   5.117
84360SOL    HW154977   8.022   1.947   5.042
84360SOL    HW254978   8.167   1.973   5.078
84361SOL     OW54979   3.881   7.513   0.343
84361SOL    HW154980   3.947   7.531   0.411
84361SOL    HW254981   3.868   7.418   0.348
84362SOL     OW54982   9.527   5.682   1.820
84362SOL    HW154983   9.493   5.597   1.792
84362SOL    HW254984   9.580   5.662   1.897
84363SOL     OW54985   2.616   5.505   2.828
84363SOL    HW154986   2.658   5.544   2.905
84363SOL    HW254987   2.535   5.466   2.861
84364SOL     OW54988   0.801   6.270   1.395
84364SOL    HW154989   0.791   6.365   1.390
84364SOL    HW254990   0.855   6.256   1.473
84365SOL     OW54991  13.606   9.190   4.046
84365SOL    HW154992  13.624   9.096   4.043
84365SOL    HW254993  13.689   9.232   4.022
84366SOL     OW54994  10.319   1.338  14.729
84366SOL    HW154995  10.320   1.245  14.704
84366SOL    HW254996  10.399   1.374  14.690
84367SOL     OW54997   5.744   7.965  11.608
84367SOL    HW154998   5.805   8.004  11.545
84367SOL    HW254999   5.756   7.871  11.597
84368SOL     OW55000   7.179  13.817   7.293
84368SOL    HW155001   7.227  13.883   7.244
84368SOL    HW255002   7.225  13.735   7.273
84369SOL     OW55003  10.697   8.247   4.982
84369SOL    HW155004  10.692   8.342   4.991
84369SOL    HW255005  10.767   8.220   5.041
84370SOL     OW55006   2.978   1.102  13.365
84370SOL    HW155007   2.968   1.028  13.305
84370SOL    HW255008   3.058   1.082  13.414
84371SOL     OW55009   5.111  11.663  14.693
84371SOL    HW155010   5.132  11.735  14.633
84371SOL    HW255011   5.049  11.608  14.645
84372SOL     OW55012  10.391   3.577   9.913
84372SOL    HW155013  10.342   3.636   9.971
84372SOL    HW255014  10.405   3.628   9.833
84373SOL     OW55015   9.196   6.547   0.596
84373SOL    HW155016   9.197   6.619   0.533
84373SOL    HW255017   9.162   6.586   0.677
84374SOL     OW55018   0.819  11.500   4.525
84374SOL    HW155019   0.764  11.578   4.529
84374SOL    HW255020   0.821  11.476   4.433
84375SOL     OW55021   1.748   6.353  13.910
84375SOL    HW155022   1.774   6.382  13.997
84375SOL    HW255023   1.789   6.415  13.850
84376SOL     OW55024   2.169   5.646  12.639
84376SOL    HW155025   2.112   5.683  12.706
84376SOL    HW255026   2.251   5.696  12.648
84377SOL     OW55027   5.149  11.452  10.276
84377SOL    HW155028   5.189  11.373  10.312
84377SOL    HW255029   5.210  11.482  10.209
84378SOL     OW55030   3.721   4.414  13.326
84378SOL    HW155031   3.741   4.345  13.390
84378SOL    HW255032   3.708   4.366  13.243
84379SOL     OW55033  11.970   5.024  13.087
84379SOL    HW155034  12.041   5.006  13.025
84379SOL    HW255035  12.013   5.026  13.172
84380SOL     OW55036  13.787  14.285   8.214
84380SOL    HW155037  13.876  14.320   8.208
84380SOL    HW255038  13.769  14.283   8.308
84381SOL     OW55039  10.405   0.631   7.374
84381SOL    HW155040  10.393   0.623   7.469
84381SOL    HW255041  10.326   0.676   7.344
84382SOL     OW55042  10.740   6.241   1.003
84382SOL    HW155043  10.662   6.287   1.034
84382SOL    HW255044  10.802   6.248   1.076
84383SOL     OW55045  11.176  14.098  10.989
84383SOL    HW155046  11.199  14.048  10.911
84383SOL    HW255047  11.126  14.173  10.956
84384SOL     OW55048   0.450  11.668   7.315
84384SOL    HW155049   0.516  11.721   7.270
84384SOL    HW255050   0.435  11.594   7.256
84385SOL     OW55051  13.934   0.872   6.412
84385SOL    HW155052  13.920   0.944   6.473
84385SOL    HW255053  14.028   0.874   6.394
84386SOL     OW55054   2.066   5.520   1.900
84386SOL    HW155055   2.052   5.485   1.988
84386SOL    HW255056   2.040   5.450   1.841
84387SOL     OW55057  12.435   2.765   0.792
84387SOL    HW155058  12.442   2.719   0.876
84387SOL    HW255059  12.418   2.696   0.728
84388SOL     OW55060   7.996  13.983   5.701
84388SOL    HW155061   8.006  14.044   5.774
84388SOL    HW255062   7.932  13.919   5.731
84389SOL     OW55063   8.655   6.372  11.900
84389SOL    HW155064   8.565   6.390  11.926
84389SOL    HW255065   8.657   6.278  11.883
84390SOL     OW55066  12.098  10.452   8.906
84390SOL    HW155067  12.032  10.486   8.967
84390SOL    HW255068  12.097  10.513   8.833
84391SOL     OW55069   5.402  10.730   8.071
84391SOL    HW155070   5.326  10.678   8.044
84391SOL    HW255071   5.384  10.818   8.038
84392SOL     OW55072  10.861   9.979  10.589
84392SOL    HW155073  10.792  10.036  10.554
84392SOL    HW255074  10.823   9.891  10.589
84393SOL     OW55075   9.317  10.179  14.456
84393SOL    HW155076   9.226  10.173  14.426
84393SOL    HW255077   9.324  10.114  14.525
84394SOL     OW55078   4.843   4.598  13.486
84394SOL    HW155079   4.806   4.592  13.575
84394SOL    HW255080   4.809   4.521  13.441
84395SOL     OW55081   8.070   7.834   8.819
84395SOL    HW155082   8.025   7.902   8.869
84395SOL    HW255083   8.077   7.870   8.730
84396SOL     OW55084   8.267   2.456  10.294
84396SOL    HW155085   8.333   2.402  10.250
84396SOL    HW255086   8.196   2.461  10.231
84397SOL     OW55087   8.905  10.352   9.338
84397SOL    HW155088   8.862  10.406   9.405
84397SOL    HW255089   8.863  10.377   9.256
84398SOL     OW55090   3.831  14.681  10.803
84398SOL    HW155091   3.757  14.688  10.743
84398SOL    HW255092   3.908  14.690  10.748
84399SOL     OW55093   4.101   5.722   1.458
84399SOL    HW155094   4.091   5.811   1.424
84399SOL    HW255095   4.085   5.730   1.552
84400SOL     OW55096   0.972  11.019   1.396
84400SOL    HW155097   1.004  10.931   1.376
84400SOL    HW255098   0.897  11.031   1.338
84401SOL     OW55099   8.790  11.110  12.134
84401SOL    HW155100   8.828  11.023  12.146
84401SOL    HW255101   8.714  11.095  12.078
84402SOL     OW55102   4.896  14.010   4.519
84402SOL    HW155103   4.870  14.097   4.551
84402SOL    HW255104   4.884  13.953   4.595
84403SOL     OW55105   7.350   8.697   4.657
84403SOL    HW155106   7.278   8.761   4.654
84403SOL    HW255107   7.374   8.684   4.565
84404SOL     OW55108   1.559   3.338   2.330
84404SOL    HW155109   1.650   3.368   2.327
84404SOL    HW255110   1.518   3.391   2.398
84405SOL     OW55111  10.259  14.569   9.535
84405SOL    HW155112  10.256  14.520   9.452
84405SOL    HW255113  10.172  14.558   9.572
84406SOL     OW55114   5.529  10.380  10.978
84406SOL    HW155115   5.548  10.469  10.951
84406SOL    HW255116   5.554  10.326  10.903
84407SOL     OW55117   7.944   4.510  11.077
84407SOL    HW155118   7.964   4.417  11.072
84407SOL    HW255119   7.889   4.519  11.154
84408SOL     OW55120  12.935   5.514   6.461
84408SOL    HW155121  12.996   5.546   6.528
84408SOL    HW255122  12.949   5.573   6.387
84409SOL     OW55123   8.187   9.675  13.453
84409SOL    HW155124   8.128   9.690  13.379
84409SOL    HW255125   8.266   9.725  13.432
84410SOL     OW55126   0.420   3.835  12.500
84410SOL    HW155127   0.488   3.773  12.474
84410SOL    HW255128   0.411   3.893  12.424
84411SOL     OW55129   0.204  11.819   5.894
84411SOL    HW155130   0.226  11.877   5.820
84411SOL    HW255131   0.224  11.731   5.862
84412SOL     OW55132   2.126   8.273  11.239
84412SOL    HW155133   2.099   8.364  11.254
84412SOL    HW255134   2.083   8.224  11.310
84413SOL     OW55135  12.930   7.782   5.422
84413SOL    HW155136  12.919   7.774   5.517
84413SOL    HW255137  12.854   7.737   5.385
84414SOL     OW55138  11.790   7.971   2.563
84414SOL    HW155139  11.838   7.981   2.646
84414SOL    HW255140  11.699   7.988   2.586
84415SOL     OW55141  12.623   0.645   3.529
84415SOL    HW155142  12.712   0.632   3.495
84415SOL    HW255143  12.603   0.563   3.575
84416SOL     OW55144   8.974   0.048  10.930
84416SOL    HW155145   8.907  14.870  10.883
84416SOL    HW255146   9.047  14.858  10.938
84417SOL     OW55147  13.349  12.254  11.250
84417SOL    HW155148  13.413  12.249  11.179
84417SOL    HW255149  13.322  12.346  11.250
84418SOL     OW55150  10.577   1.222   0.641
84418SOL    HW155151  10.500   1.277   0.625
84418SOL    HW255152  10.639   1.280   0.685
84419SOL     OW55153   4.625  12.361   3.242
84419SOL    HW155154   4.542  12.317   3.221
84419SOL    HW255155   4.604  12.454   3.241
84420SOL     OW55156   3.742  10.567   6.958
84420SOL    HW155157   3.744  10.528   6.871
84420SOL    HW255158   3.834  10.583   6.979
84421SOL     OW55159   7.115  13.960   5.234
84421SOL    HW155160   7.027  13.975   5.269
84421SOL    HW255161   7.153  13.894   5.293
84422SOL     OW55162  13.340  13.206   4.433
84422SOL    HW155163  13.260  13.250   4.407
84422SOL    HW255164  13.311  13.132   4.486
84423SOL     OW55165   0.867   6.208  10.284
84423SOL    HW155166   0.879   6.285  10.229
84423SOL    HW255167   0.852   6.136  10.223
84424SOL     OW55168   4.184  12.154   6.487
84424SOL    HW155169   4.144  12.146   6.401
84424SOL    HW255170   4.135  12.093   6.543
84425SOL     OW55171   8.155   4.394   0.111
84425SOL    HW155172   8.143   4.340   0.034
84425SOL    HW255173   8.172   4.482   0.077
84426SOL     OW55174  14.774  12.841   1.924
84426SOL    HW155175  14.837  12.818   1.993
84426SOL    HW255176  14.694  12.863   1.971
84427SOL     OW55177   4.518  10.718   5.944
84427SOL    HW155178   4.438  10.666   5.944
84427SOL    HW255179   4.570  10.683   5.872
84428SOL     OW55180   0.992   5.672   6.183
84428SOL    HW155181   1.054   5.627   6.126
84428SOL    HW255182   1.041   5.687   6.264
84429SOL     OW55183  14.257   2.883  11.249
84429SOL    HW155184  14.224   2.825  11.318
84429SOL    HW255185  14.300   2.954  11.296
84430SOL     OW55186   4.043   8.777   4.568
84430SOL    HW155187   3.990   8.729   4.632
84430SOL    HW255188   3.998   8.763   4.485
84431SOL     OW55189   6.040   2.064  14.038
84431SOL    HW155190   6.001   2.021  14.114
84431SOL    HW255191   5.967   2.077  13.978
84432SOL     OW55192  13.112   9.931   5.750
84432SOL    HW155193  13.062   9.933   5.831
84432SOL    HW255194  13.055   9.887   5.687
84433SOL     OW55195  10.589  14.680   2.969
84433SOL    HW155196  10.655  14.612   2.968
84433SOL    HW255197  10.536  14.664   2.891
84434SOL     OW55198   7.523   4.881  11.421
84434SOL    HW155199   7.431   4.859  11.434
84434SOL    HW255200   7.563   4.871  11.507
84435SOL     OW55201   5.528   8.495   0.460
84435SOL    HW155202   5.545   8.466   0.370
84435SOL    HW255203   5.490   8.582   0.451
84436SOL     OW55204   6.825   5.093   4.960
84436SOL    HW155205   6.798   5.075   5.050
84436SOL    HW255206   6.743   5.103   4.912
84437SOL     OW55207   0.627  14.082   3.200
84437SOL    HW155208   0.631  14.147   3.130
84437SOL    HW255209   0.550  14.106   3.251
84438SOL     OW55210  11.089   9.504   2.525
84438SOL    HW155211  11.175   9.534   2.493
84438SOL    HW255212  11.070   9.427   2.471
84439SOL     OW55213  10.411   0.469   8.325
84439SOL    HW155214  10.485   0.432   8.374
84439SOL    HW255215  10.447   0.547   8.282
84440SOL     OW55216  11.930   9.671  10.731
84440SOL    HW155217  12.004   9.701  10.677
84440SOL    HW255218  11.944   9.577  10.740
84441SOL     OW55219  11.517  12.483  13.275
84441SOL    HW155220  11.595  12.490  13.331
84441SOL    HW255221  11.533  12.405  13.221
84442SOL     OW55222   9.977   0.610  14.499
84442SOL    HW155223   9.940   0.589  14.413
84442SOL    HW255224   9.992   0.704  14.497
84443SOL     OW55225   1.233  13.320   6.190
84443SOL    HW155226   1.269  13.251   6.135
84443SOL    HW255227   1.283  13.316   6.271
84444SOL     OW55228  12.537  13.822   3.325
84444SOL    HW155229  12.618  13.791   3.284
84444SOL    HW255230  12.482  13.851   3.252
84445SOL     OW55231  12.044   3.599  14.293
84445SOL    HW155232  12.135   3.574  14.308
84445SOL    HW255233  12.045   3.649  14.212
84446SOL     OW55234  12.233   7.964  14.368
84446SOL    HW155235  12.287   7.887  14.387
84446SOL    HW255236  12.183   7.979  14.448
84447SOL     OW55237   2.977   5.493   7.020
84447SOL    HW155238   2.966   5.587   7.029
84447SOL    HW255239   3.041   5.482   6.950
84448SOL     OW55240   5.502   4.389   8.532
84448SOL    HW155241   5.591   4.423   8.520
84448SOL    HW255242   5.513   4.294   8.540
84449SOL     OW55243  14.804  14.546   2.697
84449SOL    HW155244  14.726  14.496   2.723
84449SOL    HW255245   0.003  14.481   2.694
84450SOL     OW55246  10.296   7.795  14.398
84450SOL    HW155247  10.324   7.883  14.371
84450SOL    HW255248  10.208   7.785  14.360
84451SOL     OW55249  10.839   8.866  14.834
84451SOL    HW155250  10.748   8.881  14.859
84451SOL    HW255251  10.842   8.887  14.741
84452SOL     OW55252  12.469  11.016  11.113
84452SOL    HW155253  12.550  11.006  11.063
84452SOL    HW255254  12.420  10.936  11.097
84453SOL     OW55255  12.574   6.091   6.241
84453SOL    HW155256  12.632   6.015   6.243
84453SOL    HW255257  12.559   6.112   6.333
84454SOL     OW55258   4.535  11.377  12.397
84454SOL    HW155259   4.456  11.397  12.446
84454SOL    HW255260   4.605  11.378  12.462
84455SOL     OW55261   4.559   6.158   7.423
84455SOL    HW155262   4.533   6.205   7.344
84455SOL    HW255263   4.622   6.216   7.467
84456SOL     OW55264   9.581   6.972   5.659
84456SOL    HW155265   9.555   6.903   5.598
84456SOL    HW255266   9.649   6.931   5.713
84457SOL     OW55267   4.340   5.416   2.277
84457SOL    HW155268   4.319   5.493   2.224
84457SOL    HW255269   4.269   5.411   2.341
84458SOL     OW55270   5.487   6.602  10.426
84458SOL    HW155271   5.523   6.639  10.346
84458SOL    HW255272   5.538   6.522  10.440
84459SOL     OW55273   7.481   0.061   7.993
84459SOL    HW155274   7.450   0.116   8.066
84459SOL    HW255275   7.400   0.031   7.950
84460SOL     OW55276  10.497   4.772   5.473
84460SOL    HW155277  10.433   4.838   5.500
84460SOL    HW255278  10.551   4.817   5.408
84461SOL     OW55279   2.010   6.111  10.900
84461SOL    HW155280   1.997   6.194  10.946
84461SOL    HW255281   2.099   6.116  10.865
84462SOL     OW55282   5.598   8.134  10.562
84462SOL    HW155283   5.679   8.149  10.610
84462SOL    HW255284   5.551   8.068  10.613
84463SOL     OW55285   3.759  11.391   9.228
84463SOL    HW155286   3.780  11.460   9.165
84463SOL    HW255287   3.667  11.407   9.250
84464SOL     OW55288   3.456  10.893   5.956
84464SOL    HW155289   3.463  10.970   5.899
84464SOL    HW255290   3.514  10.829   5.915
84465SOL     OW55291  10.786   4.905  11.672
84465SOL    HW155292  10.727   4.968  11.714
84465SOL    HW255293  10.743   4.821  11.684
84466SOL     OW55294   1.155   6.856  10.076
84466SOL    HW155295   1.246   6.827  10.067
84466SOL    HW255296   1.108   6.779  10.106
84467SOL     OW55297   1.223   4.391   2.459
84467SOL    HW155298   1.253   4.411   2.548
84467SOL    HW255299   1.235   4.296   2.451
84468SOL     OW55300   9.571  11.467  13.096
84468SOL    HW155301   9.550  11.486  13.004
84468SOL    HW255302   9.651  11.416  13.092
84469SOL     OW55303   4.962   8.848  13.836
84469SOL    HW155304   5.015   8.857  13.756
84469SOL    HW255305   4.874   8.875  13.809
84470SOL     OW55306  14.675  10.102   3.290
84470SOL    HW155307  14.652  10.149   3.210
84470SOL    HW255308  14.756  10.145   3.320
84471SOL     OW55309  14.710   7.243  11.074
84471SOL    HW155310  14.694   7.316  11.015
84471SOL    HW255311  14.672   7.269  11.157
84472SOL     OW55312  12.857   7.308   2.726
84472SOL    HW155313  12.859   7.282   2.819
84472SOL    HW255314  12.767   7.292   2.698
84473SOL     OW55315   7.725   4.871   6.174
84473SOL    HW155316   7.694   4.782   6.188
84473SOL    HW255317   7.650   4.927   6.192
84474SOL     OW55318   8.045   8.316   4.607
84474SOL    HW155319   8.124   8.363   4.629
84474SOL    HW255320   8.002   8.370   4.540
84475SOL     OW55321  11.366   5.000  13.095
84475SOL    HW155322  11.441   4.989  13.036
84475SOL    HW255323  11.290   4.992  13.038
84476SOL     OW55324   2.418   1.784   9.220
84476SOL    HW155325   2.400   1.830   9.139
84476SOL    HW255326   2.405   1.849   9.289
84477SOL     OW55327  10.355   5.573   7.955
84477SOL    HW155328  10.280   5.587   8.012
84477SOL    HW255329  10.331   5.617   7.873
84478SOL     OW55330   1.820   2.279  11.563
84478SOL    HW155331   1.816   2.331  11.482
84478SOL    HW255332   1.805   2.342  11.633
84479SOL     OW55333   6.903   0.215  14.790
84479SOL    HW155334   6.824   0.210  14.736
84479SOL    HW255335   6.917   0.309  14.803
84480SOL     OW55336   6.895   2.391  10.409
84480SOL    HW155337   6.872   2.410  10.318
84480SOL    HW255338   6.930   2.302  10.407
84481SOL     OW55339   1.512   4.337  11.985
84481SOL    HW155340   1.495   4.301  12.072
84481SOL    HW255341   1.471   4.276  11.925
84482SOL     OW55342   4.086  13.389   5.851
84482SOL    HW155343   4.066  13.439   5.930
84482SOL    HW255344   4.101  13.455   5.783
84483SOL     OW55345  12.519   0.103   2.710
84483SOL    HW155346  12.478   0.034   2.659
84483SOL    HW255347  12.538   0.062   2.795
84484SOL     OW55348   8.216  10.238   1.286
84484SOL    HW155349   8.158  10.180   1.236
84484SOL    HW255350   8.186  10.326   1.264
84485SOL     OW55351   6.942  10.372   2.977
84485SOL    HW155352   6.992  10.433   2.923
84485SOL    HW255353   6.895  10.428   3.039
84486SOL     OW55354   7.285  13.308   6.877
84486SOL    HW155355   7.304  13.394   6.838
84486SOL    HW255356   7.273  13.250   6.801
84487SOL     OW55357   5.689  12.113   9.517
84487SOL    HW155358   5.773  12.146   9.547
84487SOL    HW255359   5.685  12.023   9.551
84488SOL     OW55360  11.446  12.542   5.962
84488SOL    HW155361  11.488  12.479   5.903
84488SOL    HW255362  11.365  12.499   5.989
84489SOL     OW55363   4.719   0.466  10.124
84489SOL    HW155364   4.743   0.379  10.154
84489SOL    HW255365   4.654   0.452  10.055
84490SOL     OW55366  10.264   7.721   6.626
84490SOL    HW155367  10.267   7.807   6.669
84490SOL    HW255368  10.171   7.705   6.610
84491SOL     OW55369   9.653   2.464   1.432
84491SOL    HW155370   9.687   2.552   1.420
84491SOL    HW255371   9.718   2.421   1.488
84492SOL     OW55372   8.245   5.127  10.876
84492SOL    HW155373   8.322   5.079  10.905
84492SOL    HW255374   8.175   5.099  10.935
84493SOL     OW55375  11.877   9.790  11.100
84493SOL    HW155376  11.925   9.712  11.125
84493SOL    HW255377  11.822   9.809  11.177
84494SOL     OW55378   5.239   1.044   6.228
84494SOL    HW155379   5.297   1.088   6.290
84494SOL    HW255380   5.298   0.989   6.176
84495SOL     OW55381   9.345   0.509   0.004
84495SOL    HW155382   9.428   0.466   0.023
84495SOL    HW255383   9.312   0.465  14.798
84496SOL     OW55384  10.452   7.539  10.252
84496SOL    HW155385  10.528   7.501  10.209
84496SOL    HW255386  10.402   7.579  10.180
84497SOL     OW55387   6.345   2.481  10.065
84497SOL    HW155388   6.262   2.465  10.111
84497SOL    HW255389   6.351   2.576  10.059
84498SOL     OW55390   7.774   3.082   8.478
84498SOL    HW155391   7.733   3.116   8.558
84498SOL    HW255392   7.771   2.987   8.489
84499SOL     OW55393   0.038   7.981   1.884
84499SOL    HW155394   0.120   8.028   1.895
84499SOL    HW255395  14.845   8.034   1.930
84500SOL     OW55396  12.651  10.595   8.234
84500SOL    HW155397  12.735  10.624   8.269
84500SOL    HW255398  12.638  10.649   8.156
84501SOL     OW55399   7.630   6.888   7.222
84501SOL    HW155400   7.678   6.921   7.146
84501SOL    HW255401   7.646   6.793   7.221
84502SOL     OW55402   8.273  11.048   6.858
84502SOL    HW155403   8.365  11.023   6.855
84502SOL    HW255404   8.237  11.017   6.775
84503SOL     OW55405   7.847   3.123   2.000
84503SOL    HW155406   7.903   3.187   1.955
84503SOL    HW255407   7.828   3.163   2.084
84504SOL     OW55408  14.280  14.626  12.462
84504SOL    HW155409  14.282  14.532  12.444
84504SOL    HW255410  14.250  14.665  12.380
84505SOL     OW55411  11.569  12.741  12.578
84505SOL    HW155412  11.585  12.664  12.632
84505SOL    HW255413  11.650  12.753  12.528
84506SOL     OW55414   1.013   4.221   3.699
84506SOL    HW155415   1.072   4.293   3.720
84506SOL    HW255416   0.946   4.223   3.767
84507SOL     OW55417  12.362  10.575  10.041
84507SOL    HW155418  12.368  10.560  10.136
84507SOL    HW255419  12.444  10.539  10.007
84508SOL     OW55420   9.511   5.032   9.829
84508SOL    HW155421   9.470   5.087   9.896
84508SOL    HW255422   9.441   5.013   9.767
84509SOL     OW55423   6.785   0.650   6.433
84509SOL    HW155424   6.843   0.703   6.378
84509SOL    HW255425   6.844   0.600   6.489
84510SOL     OW55426   4.245   9.303   5.655
84510SOL    HW155427   4.314   9.247   5.691
84510SOL    HW255428   4.175   9.242   5.632
84511SOL     OW55429  11.523  10.582  13.229
84511SOL    HW155430  11.499  10.556  13.140
84511SOL    HW255431  11.592  10.647  13.217
84512SOL     OW55432  10.875   4.798   5.072
84512SOL    HW155433  10.834   4.739   5.009
84512SOL    HW255434  10.962   4.761   5.087
84513SOL     OW55435   0.917  13.561   2.234
84513SOL    HW155436   1.013  13.566   2.234
84513SOL    HW255437   0.898  13.471   2.208
84514SOL     OW55438   0.321   5.402  12.772
84514SOL    HW155439   0.256   5.431  12.836
84514SOL    HW255440   0.388   5.471  12.773
84515SOL     OW55441   3.144   8.854   3.618
84515SOL    HW155442   3.112   8.944   3.618
84515SOL    HW255443   3.159   8.833   3.710
84516SOL     OW55444  14.380  14.517   3.094
84516SOL    HW155445  14.417  14.529   3.007
84516SOL    HW255446  14.296  14.474   3.079
84517SOL     OW55447   2.972   3.587  14.208
84517SOL    HW155448   3.035   3.646  14.166
84517SOL    HW255449   2.889   3.633  14.204
84518SOL     OW55450  14.586  13.363  11.747
84518SOL    HW155451  14.639  13.374  11.668
84518SOL    HW255452  14.605  13.273  11.776
84519SOL     OW55453  10.725   2.765   0.554
84519SOL    HW155454  10.705   2.842   0.606
84519SOL    HW255455  10.689   2.785   0.467
84520SOL     OW55456  13.633  10.093   3.219
84520SOL    HW155457  13.651  10.182   3.188
84520SOL    HW255458  13.576  10.105   3.294
84521SOL     OW55459  10.189   0.287   3.066
84521SOL    HW155460  10.278   0.258   3.087
84521SOL    HW255461  10.148   0.305   3.151
84522SOL     OW55462   2.410   4.855   4.318
84522SOL    HW155463   2.433   4.768   4.351
84522SOL    HW255464   2.323   4.873   4.355
84523SOL     OW55465  12.611   0.124   0.295
84523SOL    HW155466  12.636   0.150   0.384
84523SOL    HW255467  12.603   0.029   0.300
84524SOL     OW55468   7.630   7.478  12.232
84524SOL    HW155469   7.712   7.483  12.182
84524SOL    HW255470   7.658   7.478  12.323
84525SOL     OW55471  11.511   7.315   7.795
84525SOL    HW155472  11.534   7.350   7.881
84525SOL    HW255473  11.585   7.338   7.739
84526SOL     OW55474   8.072  14.796   6.753
84526SOL    HW155475   8.155  14.842   6.744
84526SOL    HW255476   8.097  14.706   6.776
84527SOL     OW55477   8.850  14.557   0.670
84527SOL    HW155478   8.884  14.606   0.595
84527SOL    HW255479   8.874  14.466   0.652
84528SOL     OW55480   1.563  11.628  12.384
84528SOL    HW155481   1.609  11.684  12.446
84528SOL    HW255482   1.601  11.541  12.397
84529SOL     OW55483   6.148   9.457   5.369
84529SOL    HW155484   6.108   9.394   5.428
84529SOL    HW255485   6.223   9.491   5.417
84530SOL     OW55486  10.361   1.244   9.858
84530SOL    HW155487  10.319   1.330   9.856
84530SOL    HW255488  10.291   1.182   9.876
84531SOL     OW55489   9.094  13.604   9.909
84531SOL    HW155490   9.039  13.632   9.982
84531SOL    HW255491   9.095  13.509   9.913
84532SOL     OW55492   3.020   7.652  12.404
84532SOL    HW155493   3.107   7.641  12.366
84532SOL    HW255494   2.975   7.569  12.385
84533SOL     OW55495   5.659   7.068  11.323
84533SOL    HW155496   5.732   7.044  11.380
84533SOL    HW255497   5.654   7.164  11.329
84534SOL     OW55498  11.775   4.085   8.376
84534SOL    HW155499  11.806   4.154   8.436
84534SOL    HW255500  11.777   4.005   8.429
84535SOL     OW55501  11.011  12.672  11.857
84535SOL    HW155502  11.015  12.585  11.816
84535SOL    HW255503  11.094  12.714  11.831
84536SOL     OW55504  14.317   7.035  12.897
84536SOL    HW155505  14.240   7.069  12.851
84536SOL    HW255506  14.293   7.037  12.989
84537SOL     OW55507   6.941   3.197   1.058
84537SOL    HW155508   6.948   3.106   1.029
84537SOL    HW255509   6.930   3.190   1.153
84538SOL     OW55510  10.501   2.290   5.174
84538SOL    HW155511  10.582   2.325   5.211
84538SOL    HW255512  10.436   2.359   5.189
84539SOL     OW55513  11.311   0.813   8.680
84539SOL    HW155514  11.230   0.845   8.720
84539SOL    HW255515  11.380   0.868   8.718
84540SOL     OW55516   0.301   4.894   6.179
84540SOL    HW155517   0.287   4.972   6.233
84540SOL    HW255518   0.368   4.844   6.226
84541SOL     OW55519  12.255   9.500  13.360
84541SOL    HW155520  12.271   9.408  13.382
84541SOL    HW255521  12.295   9.512  13.274
84542SOL     OW55522  13.357   1.552   9.860
84542SOL    HW155523  13.324   1.505   9.937
84542SOL    HW255524  13.287   1.544   9.795
84543SOL     OW55525  13.487  10.147   2.066
84543SOL    HW155526  13.434  10.085   2.116
84543SOL    HW255527  13.577  10.116   2.075
84544SOL     OW55528   7.291   6.980  14.444
84544SOL    HW155529   7.274   7.024  14.361
84544SOL    HW255530   7.288   6.886  14.422
84545SOL     OW55531   7.263   4.000   4.530
84545SOL    HW155532   7.258   3.938   4.458
84545SOL    HW255533   7.340   4.053   4.510
84546SOL     OW55534  14.352   6.433   3.998
84546SOL    HW155535  14.423   6.392   4.046
84546SOL    HW255536  14.286   6.364   3.989
84547SOL     OW55537  10.464  13.355  12.351
84547SOL    HW155538  10.528  13.420  12.320
84547SOL    HW255539  10.381  13.402  12.355
84548SOL     OW55540   0.015   6.535  14.715
84548SOL    HW155541   0.107   6.557  14.701
84548SOL    HW255542  14.865   6.575  14.799
84549SOL     OW55543  14.023  13.053  13.276
84549SOL    HW155544  14.046  13.075  13.366
84549SOL    HW255545  13.937  13.012  13.283
84550SOL     OW55546   9.624   6.321  11.917
84550SOL    HW155547   9.559   6.323  11.986
84550SOL    HW255548   9.687   6.390  11.941
84551SOL     OW55549   8.339   3.006   6.910
84551SOL    HW155550   8.271   3.052   6.860
84551SOL    HW255551   8.341   2.918   6.873
84552SOL     OW55552   2.159   1.586   4.844
84552SOL    HW155553   2.083   1.537   4.875
84552SOL    HW255554   2.122   1.666   4.807
84553SOL     OW55555   7.332   5.217  14.079
84553SOL    HW155556   7.243   5.232  14.046
84553SOL    HW255557   7.337   5.268  14.159
84554SOL     OW55558   8.171  12.925   4.245
84554SOL    HW155559   8.225  12.911   4.168
84554SOL    HW255560   8.120  12.845   4.255
84555SOL     OW55561  14.578   9.215  10.298
84555SOL    HW155562  14.657   9.178  10.257
84555SOL    HW255563  14.611   9.272  10.367
84556SOL     OW55564   1.279  12.846   5.801
84556SOL    HW155565   1.225  12.870   5.726
84556SOL    HW255566   1.282  12.751   5.800
84557SOL     OW55567   0.215   1.139   0.421
84557SOL    HW155568   0.287   1.195   0.393
84557SOL    HW255569   0.146   1.200   0.447
84558SOL     OW55570   9.898   9.766   7.926
84558SOL    HW155571   9.836   9.798   7.991
84558SOL    HW255572   9.923   9.843   7.876
84559SOL     OW55573   0.542   6.685   4.133
84559SOL    HW155574   0.550   6.758   4.071
84559SOL    HW255575   0.610   6.702   4.199
84560SOL     OW55576   9.691  13.540  11.106
84560SOL    HW155577   9.632  13.471  11.137
84560SOL    HW255578   9.690  13.605  11.176
84561SOL     OW55579  11.144   9.975   0.311
84561SOL    HW155580  11.087  10.034   0.263
84561SOL    HW255581  11.134  10.000   0.403
84562SOL     OW55582  10.840   2.352   6.024
84562SOL    HW155583  10.763   2.394   5.984
84562SOL    HW255584  10.884   2.310   5.951
84563SOL     OW55585  12.039   2.099   4.302
84563SOL    HW155586  12.072   2.009   4.298
84563SOL    HW255587  11.984   2.101   4.380
84564SOL     OW55588  13.113   7.093  11.532
84564SOL    HW155589  13.145   7.020  11.586
84564SOL    HW255590  13.018   7.085  11.535
84565SOL     OW55591  12.695   7.760   3.386
84565SOL    HW155592  12.626   7.730   3.327
84565SOL    HW255593  12.687   7.855   3.387
84566SOL     OW55594   0.822   3.499   0.510
84566SOL    HW155595   0.852   3.548   0.587
84566SOL    HW255596   0.731   3.478   0.530
84567SOL     OW55597   7.342   4.494  14.700
84567SOL    HW155598   7.335   4.432  14.773
84567SOL    HW255599   7.306   4.576  14.734
84568SOL     OW55600   0.318  14.067   0.217
84568SOL    HW155601   0.374  14.117   0.158
84568SOL    HW255602   0.342  13.976   0.200
84569SOL     OW55603   9.872   1.942   0.128
84569SOL    HW155604   9.863   1.853   0.094
84569SOL    HW255605   9.938   1.935   0.196
84570SOL     OW55606   1.782  13.042  13.057
84570SOL    HW155607   1.778  12.953  13.092
84570SOL    HW255608   1.708  13.087  13.098
84571SOL     OW55609  10.781  14.582   0.251
84571SOL    HW155610  10.808  14.671   0.274
84571SOL    HW255611  10.735  14.590   0.168
84572SOL     OW55612  13.600   3.878  13.763
84572SOL    HW155613  13.552   3.898  13.843
84572SOL    HW255614  13.598   3.959  13.713
84573SOL     OW55615   8.601   0.245   4.014
84573SOL    HW155616   8.532   0.190   4.052
84573SOL    HW255617   8.558   0.329   3.995
84574SOL     OW55618   0.014   3.185  13.395
84574SOL    HW155619  14.812   3.139  13.436
84574SOL    HW255620   0.068   3.214  13.469
84575SOL     OW55621   2.240   7.150   3.335
84575SOL    HW155622   2.330   7.163   3.366
84575SOL    HW255623   2.249   7.136   3.240
84576SOL     OW55624   8.804  13.258   9.791
84576SOL    HW155625   8.793  13.304   9.874
84576SOL    HW255626   8.765  13.171   9.807
84577SOL     OW55627   6.960   0.790   9.115
84577SOL    HW155628   6.989   0.880   9.125
84577SOL    HW255629   7.041   0.739   9.108
84578SOL     OW55630   8.434  13.110  12.834
84578SOL    HW155631   8.451  13.025  12.875
84578SOL    HW255632   8.354  13.141  12.876
84579SOL     OW55633   6.801  14.028  13.287
84579SOL    HW155634   6.873  14.087  13.311
84579SOL    HW255635   6.820  13.946  13.333
84580SOL     OW55636   0.685   3.361   6.173
84580SOL    HW155637   0.726   3.344   6.088
84580SOL    HW255638   0.678   3.275   6.214
84581SOL     OW55639  12.480  10.571   2.754
84581SOL    HW155640  12.469  10.616   2.671
84581SOL    HW255641  12.532  10.631   2.808
84582SOL     OW55642   6.840  12.754   7.918
84582SOL    HW155643   6.798  12.718   7.840
84582SOL    HW255644   6.932  12.727   7.911
84583SOL     OW55645   1.446  12.908   4.092
84583SOL    HW155646   1.520  12.863   4.132
84583SOL    HW255647   1.369  12.866   4.130
84584SOL     OW55648  11.848   2.455   8.537
84584SOL    HW155649  11.844   2.489   8.627
84584SOL    HW255650  11.845   2.360   8.547
84585SOL     OW55651  13.751   1.113   5.821
84585SOL    HW155652  13.763   1.088   5.730
84585SOL    HW255653  13.657   1.127   5.830
84586SOL     OW55654   0.056  11.086   6.001
84586SOL    HW155655   0.078  11.037   6.081
84586SOL    HW255656  14.835  11.107   6.010
84587SOL     OW55657  14.629   9.252   1.889
84587SOL    HW155658  14.619   9.180   1.827
84587SOL    HW255659  14.598   9.217   1.972
84588SOL     OW55660   5.869   8.086   9.526
84588SOL    HW155661   5.947   8.091   9.471
84588SOL    HW255662   5.809   8.030   9.476
84589SOL     OW55663   6.445  11.083   1.730
84589SOL    HW155664   6.500  11.151   1.770
84589SOL    HW255665   6.443  11.106   1.637
84590SOL     OW55666   7.776   2.560  11.199
84590SOL    HW155667   7.803   2.469  11.187
84590SOL    HW255668   7.680   2.557  11.200
84591SOL     OW55669   5.282  14.813   5.195
84591SOL    HW155670   5.295   0.035   5.182
84591SOL    HW255671   5.345  14.772   5.135
84592SOL     OW55672   8.818   0.597   9.875
84592SOL    HW155673   8.775   0.632   9.953
84592SOL    HW255674   8.835   0.505   9.895
84593SOL     OW55675   5.255   5.079   0.874
84593SOL    HW155676   5.315   5.145   0.909
84593SOL    HW255677   5.289   4.996   0.907
84594SOL     OW55678  10.931  10.515   3.745
84594SOL    HW155679  10.932  10.611   3.748
84594SOL    HW255680  10.965  10.487   3.829
84595SOL     OW55681  14.254  11.388  12.758
84595SOL    HW155682  14.174  11.367  12.709
84595SOL    HW255683  14.247  11.482  12.775
84596SOL     OW55684   3.442   4.868  10.667
84596SOL    HW155685   3.411   4.827  10.748
84596SOL    HW255686   3.537   4.860  10.672
84597SOL     OW55687  13.201   7.666   6.620
84597SOL    HW155688  13.270   7.663   6.554
84597SOL    HW255689  13.176   7.759   6.625
84598SOL     OW55690  12.933   9.085   9.199
84598SOL    HW155691  12.931   9.161   9.140
84598SOL    HW255692  12.997   9.026   9.160
84599SOL     OW55693  11.399   8.221   9.528
84599SOL    HW155694  11.322   8.164   9.527
84599SOL    HW255695  11.428   8.220   9.619
84600SOL     OW55696  13.827   5.774   1.722
84600SOL    HW155697  13.841   5.833   1.795
84600SOL    HW255698  13.907   5.721   1.717
84601SOL     OW55699  10.034   9.620   5.380
84601SOL    HW155700  10.108   9.667   5.343
84601SOL    HW255701  10.040   9.635   5.474
84602SOL     OW55702   4.328   4.860   0.064
84602SOL    HW155703   4.348   4.810  14.856
84602SOL    HW255704   4.293   4.795   0.125
84603SOL     OW55705  14.036   8.078   3.564
84603SOL    HW155706  14.090   8.093   3.486
84603SOL    HW255707  14.092   8.100   3.638
84604SOL     OW55708  14.745   0.125  12.850
84604SOL    HW155709  14.809   0.054  12.857
84604SOL    HW255710  14.676   0.101  12.911
84605SOL     OW55711   3.802   3.949  13.577
84605SOL    HW155712   3.709   3.925  13.580
84605SOL    HW255713   3.838   3.916  13.659
84606SOL     OW55714   9.974   0.045   4.801
84606SOL    HW155715   9.899   0.019   4.855
84606SOL    HW255716  10.041   0.070   4.865
84607SOL     OW55717   4.400   5.005   4.783
84607SOL    HW155718   4.374   4.973   4.696
84607SOL    HW255719   4.378   5.098   4.781
84608SOL     OW55720   7.638   1.538   3.908
84608SOL    HW155721   7.610   1.505   3.822
84608SOL    HW255722   7.581   1.492   3.970
84609SOL     OW55723   9.819   2.719   1.434
84609SOL    HW155724   9.823   2.798   1.488
84609SOL    HW255725   9.884   2.660   1.474
84610SOL     OW55726   6.122  14.027   6.490
84610SOL    HW155727   6.061  14.039   6.563
84610SOL    HW255728   6.066  14.012   6.414
84611SOL     OW55729   9.735   4.553   0.838
84611SOL    HW155730   9.656   4.502   0.852
84611SOL    HW255731   9.733   4.620   0.906
84612SOL     OW55732   8.233   9.913   3.245
84612SOL    HW155733   8.226   9.818   3.238
84612SOL    HW255734   8.317   9.928   3.289
84613SOL     OW55735  12.429  12.997   1.962
84613SOL    HW155736  12.385  13.077   1.933
84613SOL    HW255737  12.364  12.952   2.015
84614SOL     OW55738   5.274   9.073  10.875
84614SOL    HW155739   5.266   9.168  10.865
84614SOL    HW255740   5.222   9.037  10.803
84615SOL     OW55741   9.225   9.496   0.840
84615SOL    HW155742   9.309   9.505   0.795
84615SOL    HW255743   9.163   9.473   0.771
84616SOL     OW55744   6.358   5.693  14.280
84616SOL    HW155745   6.308   5.687  14.198
84616SOL    HW255746   6.447   5.714  14.252
84617SOL     OW55747  14.395   9.487   2.411
84617SOL    HW155748  14.487   9.473   2.433
84617SOL    HW255749  14.392   9.477   2.316
84618SOL     OW55750  13.768   9.809  11.720
84618SOL    HW155751  13.778   9.714  11.719
84618SOL    HW255752  13.858   9.842  11.719
84619SOL     OW55753   7.433   8.065   5.500
84619SOL    HW155754   7.502   8.002   5.478
84619SOL    HW255755   7.478   8.149   5.507
84620SOL     OW55756   8.966   2.795  11.569
84620SOL    HW155757   9.025   2.735  11.523
84620SOL    HW255758   8.980   2.776  11.662
84621SOL     OW55759  10.257   8.982   5.525
84621SOL    HW155760  10.291   9.071   5.536
84621SOL    HW255761  10.213   8.983   5.440
84622SOL     OW55762   1.353  11.518   4.314
84622SOL    HW155763   1.353  11.517   4.410
84622SOL    HW255764   1.266  11.548   4.290
84623SOL     OW55765   4.795   0.044   7.242
84623SOL    HW155766   4.849  14.855   7.293
84623SOL    HW255767   4.858   0.094   7.190
84624SOL     OW55768   0.723  11.133  14.236
84624SOL    HW155769   0.815  11.114  14.253
84624SOL    HW255770   0.691  11.057  14.188
84625SOL     OW55771  12.830  13.656  12.026
84625SOL    HW155772  12.735  13.667  12.016
84625SOL    HW255773  12.843  13.561  12.026
84626SOL     OW55774   5.449   1.082   5.747
84626SOL    HW155775   5.390   1.112   5.816
84626SOL    HW255776   5.392   1.042   5.681
84627SOL     OW55777   3.012  10.877   0.924
84627SOL    HW155778   2.998  10.970   0.905
84627SOL    HW255779   2.924  10.840   0.932
84628SOL     OW55780   6.144  14.198   1.907
84628SOL    HW155781   6.052  14.175   1.912
84628SOL    HW255782   6.154  14.243   1.823
84629SOL     OW55783   2.803   8.502   8.798
84629SOL    HW155784   2.785   8.537   8.885
84629SOL    HW255785   2.734   8.437   8.784
84630SOL     OW55786   4.534   8.273  14.190
84630SOL    HW155787   4.562   8.184  14.212
84630SOL    HW255788   4.597   8.330  14.235
84631SOL     OW55789   3.870   2.628   0.445
84631SOL    HW155790   3.886   2.709   0.493
84631SOL    HW255791   3.774   2.621   0.443
84632SOL     OW55792   5.812   8.790  13.532
84632SOL    HW155793   5.818   8.828  13.444
84632SOL    HW255794   5.775   8.860  13.586
84633SOL     OW55795  13.656   3.463  13.388
84633SOL    HW155796  13.590   3.424  13.330
84633SOL    HW255797  13.620   3.549  13.409
84634SOL     OW55798   4.467  10.789   2.135
84634SOL    HW155799   4.401  10.842   2.179
84634SOL    HW255800   4.421  10.750   2.060
84635SOL     OW55801  10.361   7.723   1.554
84635SOL    HW155802  10.374   7.650   1.494
84635SOL    HW255803  10.390   7.689   1.639
84636SOL     OW55804   8.831   5.435  11.388
84636SOL    HW155805   8.917   5.434  11.431
84636SOL    HW255806   8.799   5.524  11.403
84637SOL     OW55807   3.865  10.149  12.638
84637SOL    HW155808   3.772  10.125  12.639
84637SOL    HW255809   3.865  10.243  12.624
84638SOL     OW55810   7.077  12.711   9.819
84638SOL    HW155811   6.988  12.726   9.788
84638SOL    HW255812   7.067  12.681   9.910
84639SOL     OW55813   6.961  13.834   8.436
84639SOL    HW155814   6.867  13.824   8.422
84639SOL    HW255815   7.001  13.779   8.368
84640SOL     OW55816   1.585   8.765   6.935
84640SOL    HW155817   1.553   8.772   7.025
84640SOL    HW255818   1.511   8.728   6.886
84641SOL     OW55819   8.886   5.371   9.091
84641SOL    HW155820   8.852   5.313   9.159
84641SOL    HW255821   8.981   5.370   9.104
84642SOL     OW55822   5.059   0.515   8.361
84642SOL    HW155823   5.087   0.542   8.449
84642SOL    HW255824   5.035   0.423   8.371
84643SOL     OW55825   2.651  10.183   0.980
84643SOL    HW155826   2.586  10.189   0.910
84643SOL    HW255827   2.640  10.264   1.030
84644SOL     OW55828   6.837   2.389   6.555
84644SOL    HW155829   6.850   2.459   6.620
84644SOL    HW255830   6.907   2.403   6.491
84645SOL     OW55831   7.624  13.640   9.138
84645SOL    HW155832   7.547  13.628   9.194
84645SOL    HW255833   7.691  13.583   9.176
84646SOL     OW55834  11.282   0.118   4.460
84646SOL    HW155835  11.331   0.088   4.383
84646SOL    HW255836  11.336   0.090   4.534
84647SOL     OW55837   9.650  14.530  14.862
84647SOL    HW155838   9.633  14.593  14.792
84647SOL    HW255839   9.588  14.554   0.059
84648SOL     OW55840   2.528  13.750  12.744
84648SOL    HW155841   2.464  13.693  12.786
84648SOL    HW255842   2.609  13.736  12.794
84649SOL     OW55843   0.277  10.369   2.626
84649SOL    HW155844   0.214  10.300   2.646
84649SOL    HW255845   0.342  10.326   2.571
84650SOL     OW55846  12.287  11.077   2.816
84650SOL    HW155847  12.248  11.021   2.883
84650SOL    HW255848  12.229  11.153   2.812
84651SOL     OW55849   5.822   7.513  12.201
84651SOL    HW155850   5.754   7.579  12.188
84651SOL    HW255851   5.858   7.497  12.114
84652SOL     OW55852  11.833   6.885   1.522
84652SOL    HW155853  11.843   6.980   1.520
84652SOL    HW255854  11.760   6.870   1.583
84653SOL     OW55855   7.730  13.012   3.276
84653SOL    HW155856   7.803  13.064   3.242
84653SOL    HW255857   7.771  12.953   3.340
84654SOL     OW55858  10.764   2.857  14.748
84654SOL    HW155859  10.714   2.920  14.799
84654SOL    HW255860  10.732   2.771  14.777
84655SOL     OW55861  14.798  11.591  14.232
84655SOL    HW155862  14.773  11.683  14.230
84655SOL    HW255863  14.754  11.556  14.309
84656SOL     OW55864  10.343   9.919   7.304
84656SOL    HW155865  10.299   9.997   7.336
84656SOL    HW255866  10.430   9.923   7.342
84657SOL     OW55867   6.385   0.780   6.948
84657SOL    HW155868   6.441   0.827   6.886
84657SOL    HW255869   6.352   0.705   6.899
84658SOL     OW55870   6.815   5.727  11.804
84658SOL    HW155871   6.822   5.810  11.853
84658SOL    HW255872   6.885   5.673  11.839
84659SOL     OW55873  14.224   1.705   7.670
84659SOL    HW155874  14.184   1.718   7.755
84659SOL    HW255875  14.231   1.610   7.661
84660SOL     OW55876   1.447   1.525   9.497
84660SOL    HW155877   1.373   1.471   9.469
84660SOL    HW255878   1.434   1.608   9.451
84661SOL     OW55879   5.339   9.719  14.752
84661SOL    HW155880   5.406   9.654  14.772
84661SOL    HW255881   5.389   9.797  14.725
84662SOL     OW55882  11.179   1.589   8.980
84662SOL    HW155883  11.247   1.558   9.039
84662SOL    HW255884  11.219   1.662   8.932
84663SOL     OW55885   3.844   4.600  13.733
84663SOL    HW155886   3.929   4.579  13.694
84663SOL    HW255887   3.866   4.643  13.816
84664SOL     OW55888   4.383   6.656   2.744
84664SOL    HW155889   4.341   6.572   2.728
84664SOL    HW255890   4.336   6.693   2.819
84665SOL     OW55891  11.080   9.648   8.801
84665SOL    HW155892  11.026   9.586   8.753
84665SOL    HW255893  11.020   9.690   8.863
84666SOL     OW55894   4.582  13.886   1.599
84666SOL    HW155895   4.611  13.977   1.588
84666SOL    HW255896   4.488  13.893   1.617
84667SOL     OW55897   8.520   9.427  11.863
84667SOL    HW155898   8.446   9.385  11.819
84667SOL    HW255899   8.538   9.371  11.938
84668SOL     OW55900   9.730   2.257   3.624
84668SOL    HW155901   9.634   2.260   3.630
84668SOL    HW255902   9.751   2.307   3.546
84669SOL     OW55903   2.724   3.244   2.189
84669SOL    HW155904   2.670   3.288   2.255
84669SOL    HW255905   2.691   3.276   2.105
84670SOL     OW55906   7.050  13.303  13.885
84670SOL    HW155907   6.958  13.329  13.900
84670SOL    HW255908   7.054  13.280  13.793
84671SOL     OW55909   8.250  10.322  13.892
84671SOL    HW155910   8.219  10.265  13.963
84671SOL    HW255911   8.343  10.336  13.911
84672SOL     OW55912  10.586   1.484   5.055
84672SOL    HW155913  10.553   1.468   5.144
84672SOL    HW255914  10.598   1.578   5.050
84673SOL     OW55915   5.074   0.492  14.248
84673SOL    HW155916   5.137   0.533  14.307
84673SOL    HW255917   5.113   0.501  14.161
84674SOL     OW55918  10.914  12.390   6.382
84674SOL    HW155919  10.885  12.329   6.315
84674SOL    HW255920  11.005  12.411   6.359
84675SOL     OW55921   3.899  10.034  14.567
84675SOL    HW155922   3.943   9.949  14.559
84675SOL    HW255923   3.866  10.052  14.479
84676SOL     OW55924   6.604  11.995   1.009
84676SOL    HW155925   6.584  12.022   0.919
84676SOL    HW255926   6.675  12.053   1.036
84677SOL     OW55927   7.513  11.635   5.132
84677SOL    HW155928   7.551  11.590   5.056
84677SOL    HW255929   7.506  11.567   5.199
84678SOL     OW55930  13.290   1.789   0.602
84678SOL    HW155931  13.296   1.701   0.566
84678SOL    HW255932  13.295   1.778   0.697
84679SOL     OW55933   8.992   1.878   5.495
84679SOL    HW155934   8.937   1.912   5.566
84679SOL    HW255935   8.976   1.938   5.422
84680SOL     OW55936  12.436   1.923   8.767
84680SOL    HW155937  12.399   1.996   8.717
84680SOL    HW255938  12.506   1.890   8.712
84681SOL     OW55939   9.494   4.839   7.565
84681SOL    HW155940   9.399   4.851   7.554
84681SOL    HW255941   9.525   4.816   7.478
84682SOL     OW55942  10.862   1.940   8.531
84682SOL    HW155943  10.871   1.850   8.501
84682SOL    HW255944  10.827   1.988   8.456
84683SOL     OW55945  12.930   8.610  11.509
84683SOL    HW155946  13.005   8.646  11.462
84683SOL    HW255947  12.913   8.672  11.580
84684SOL     OW55948   4.787  13.242  10.758
84684SOL    HW155949   4.851  13.200  10.701
84684SOL    HW255950   4.819  13.225  10.846
84685SOL     OW55951   7.345  12.403   6.564
84685SOL    HW155952   7.404  12.465   6.607
84685SOL    HW255953   7.380  12.317   6.585
84686SOL     OW55954   6.645  12.352   2.820
84686SOL    HW155955   6.692  12.273   2.791
84686SOL    HW255956   6.625  12.399   2.740
84687SOL     OW55957   6.883  13.576   1.786
84687SOL    HW155958   6.950  13.634   1.821
84687SOL    HW255959   6.808  13.633   1.768
84688SOL     OW55960  11.889   2.590   2.775
84688SOL    HW155961  11.882   2.511   2.721
84688SOL    HW255962  11.885   2.559   2.865
84689SOL     OW55963   3.984   2.770  12.246
84689SOL    HW155964   3.968   2.734  12.333
84689SOL    HW255965   3.898   2.797  12.214
84690SOL     OW55966   7.708   6.544   0.249
84690SOL    HW155967   7.701   6.525   0.156
84690SOL    HW255968   7.797   6.578   0.261
84691SOL     OW55969   2.464  13.191   0.442
84691SOL    HW155970   2.406  13.125   0.480
84691SOL    HW255971   2.547  13.180   0.489
84692SOL     OW55972  11.275   8.702  13.352
84692SOL    HW155973  11.228   8.631  13.396
84692SOL    HW255974  11.299   8.762  13.423
84693SOL     OW55975  10.062   4.182   2.679
84693SOL    HW155976  10.075   4.260   2.624
84693SOL    HW255977  10.058   4.109   2.617
84694SOL     OW55978   9.436   6.816  11.529
84694SOL    HW155979   9.426   6.805  11.624
84694SOL    HW255980   9.346   6.810  11.495
84695SOL     OW55981   1.601  13.495  10.901
84695SOL    HW155982   1.538  13.432  10.866
84695SOL    HW255983   1.555  13.537  10.974
84696SOL     OW55984  12.444   9.377  11.231
84696SOL    HW155985  12.531   9.371  11.193
84696SOL    HW255986  12.400   9.297  11.203
84697SOL     OW55987   0.876   1.618  12.946
84697SOL    HW155988   0.804   1.679  12.958
84697SOL    HW255989   0.848   1.538  12.991
84698SOL     OW55990   5.612   2.907   7.805
84698SOL    HW155991   5.698   2.898   7.764
84698SOL    HW255992   5.600   3.001   7.818
84699SOL     OW55993   5.361  12.599   0.043
84699SOL    HW155994   5.280  12.601   0.095
84699SOL    HW255995   5.405  12.682   0.064
84700SOL     OW55996  14.590   0.667   4.706
84700SOL    HW155997  14.612   0.758   4.729
84700SOL    HW255998  14.504   0.673   4.665
84701SOL     OW55999  12.850   0.789  10.739
84701SOL    HW156000  12.924   0.736  10.709
84701SOL    HW256001  12.775   0.755  10.691
84702SOL     OW56002  12.626   0.592  10.739
84702SOL    HW156003  12.616   0.597  10.834
84702SOL    HW256004  12.568   0.521  10.712
84703SOL     OW56005   8.506   2.206  13.391
84703SOL    HW156006   8.551   2.211  13.475
84703SOL    HW256007   8.575   2.220  13.326
84704SOL     OW56008   6.710   9.048   6.745
84704SOL    HW156009   6.798   9.059   6.782
84704SOL    HW256010   6.726   9.009   6.659
84705SOL     OW56011   3.327   7.830  10.111
84705SOL    HW156012   3.324   7.795  10.199
84705SOL    HW256013   3.281   7.766  10.057
84706SOL     OW56014   6.393  13.785   1.789
84706SOL    HW156015   6.343  13.801   1.870
84706SOL    HW256016   6.326  13.777   1.721
84707SOL     OW56017  11.726  10.537   6.115
84707SOL    HW156018  11.732  10.489   6.032
84707SOL    HW256019  11.632  10.553   6.126
84708SOL     OW56020   5.010   4.069   1.904
84708SOL    HW156021   4.993   4.142   1.962
84708SOL    HW256022   5.073   4.103   1.840
84709SOL     OW56023   6.830   8.453  10.272
84709SOL    HW156024   6.874   8.422  10.352
84709SOL    HW256025   6.898   8.447  10.204
84710SOL     OW56026   9.032  12.005   2.382
84710SOL    HW156027   8.954  11.956   2.408
84710SOL    HW256028   9.004  12.057   2.307
84711SOL     OW56029   1.347   6.609   7.344
84711SOL    HW156030   1.299   6.653   7.415
84711SOL    HW256031   1.313   6.649   7.264
84712SOL     OW56032   6.520   8.001   1.764
84712SOL    HW156033   6.550   8.025   1.676
84712SOL    HW256034   6.427   7.984   1.754
84713SOL     OW56035  13.776   0.770   6.237
84713SOL    HW156036  13.788   0.807   6.150
84713SOL    HW256037  13.835   0.819   6.293
84714SOL     OW56038   3.608   0.258   5.336
84714SOL    HW156039   3.703   0.254   5.342
84714SOL    HW256040   3.577   0.250   5.426
84715SOL     OW56041  13.486   7.181   2.453
84715SOL    HW156042  13.532   7.265   2.447
84715SOL    HW256043  13.416   7.196   2.516
84716SOL     OW56044   4.867  11.353   7.381
84716SOL    HW156045   4.880  11.448   7.383
84716SOL    HW256046   4.789  11.338   7.433
84717SOL     OW56047   7.460   7.725   5.256
84717SOL    HW156048   7.454   7.629   5.249
84717SOL    HW256049   7.461   7.755   5.165
84718SOL     OW56050  13.682   1.605   4.903
84718SOL    HW156051  13.766   1.648   4.887
84718SOL    HW256052  13.703   1.512   4.911
84719SOL     OW56053  14.595   0.601   8.905
84719SOL    HW156054  14.647   0.577   8.982
84719SOL    HW256055  14.659   0.604   8.834
84720SOL     OW56056  10.504   2.205  14.671
84720SOL    HW156057  10.418   2.164  14.655
84720SOL    HW256058  10.502   2.284  14.617
84721SOL     OW56059   5.537   2.510  13.280
84721SOL    HW156060   5.515   2.603  13.278
84721SOL    HW256061   5.470   2.471  13.335
84722SOL     OW56062  12.300  14.610  10.641
84722SOL    HW156063  12.251  14.665  10.702
84722SOL    HW256064  12.258  14.524  10.646
84723SOL     OW56065   1.795   0.073  11.505
84723SOL    HW156066   1.704   0.101  11.515
84723SOL    HW256067   1.841   0.152  11.477
84724SOL     OW56068   2.996   9.558   2.309
84724SOL    HW156069   2.958   9.645   2.327
84724SOL    HW256070   3.000   9.517   2.395
84725SOL     OW56071  13.415  10.932   2.701
84725SOL    HW156072  13.430  11.015   2.655
84725SOL    HW256073  13.367  10.957   2.780
84726SOL     OW56074   4.340   5.105   7.835
84726SOL    HW156075   4.262   5.160   7.821
84726SOL    HW256076   4.312   5.017   7.811
84727SOL     OW56077  13.945  12.458   9.900
84727SOL    HW156078  13.921  12.457   9.993
84727SOL    HW256079  14.039  12.440   9.900
84728SOL     OW56080   0.797   8.413  14.256
84728SOL    HW156081   0.813   8.344  14.192
84728SOL    HW256082   0.874   8.411  14.313
84729SOL     OW56083  11.793   0.737  14.716
84729SOL    HW156084  11.864   0.679  14.743
84729SOL    HW256085  11.714   0.684  14.722
84730SOL     OW56086   0.229  13.015   1.900
84730SOL    HW156087   0.175  12.952   1.947
84730SOL    HW256088   0.225  12.987   1.809
84731SOL     OW56089  14.741  10.012  12.911
84731SOL    HW156090  14.817   9.971  12.953
84731SOL    HW256091  14.673   9.944  12.912
84732SOL     OW56092  13.193   0.932  12.717
84732SOL    HW156093  13.099   0.933  12.702
84732SOL    HW256094  13.203   0.893  12.804
84733SOL     OW56095   9.502   1.609   1.214
84733SOL    HW156096   9.554   1.627   1.292
84733SOL    HW256097   9.539   1.527   1.180
84734SOL     OW56098   2.166   8.343  10.309
84734SOL    HW156099   2.106   8.329  10.382
84734SOL    HW256100   2.230   8.272  10.317
84735SOL     OW56101   3.028   0.689  10.087
84735SOL    HW156102   2.963   0.619  10.093
84735SOL    HW256103   2.989   0.763  10.134
84736SOL     OW56104   2.742   1.252   2.465
84736SOL    HW156105   2.695   1.335   2.472
84736SOL    HW256106   2.825   1.275   2.423
84737SOL     OW56107   5.364   0.791   3.052
84737SOL    HW156108   5.376   0.766   2.960
84737SOL    HW256109   5.446   0.765   3.095
84738SOL     OW56110   1.829   1.462   4.634
84738SOL    HW156111   1.832   1.512   4.715
84738SOL    HW256112   1.779   1.383   4.655
84739SOL     OW56113   4.094  10.344   2.555
84739SOL    HW156114   4.164  10.300   2.505
84739SOL    HW256115   4.135  10.367   2.638
84740SOL     OW56116   7.883   3.313  12.024
84740SOL    HW156117   7.930   3.308  11.940
84740SOL    HW256118   7.820   3.241  12.020
84741SOL     OW56119   4.027  11.793  10.447
84741SOL    HW156120   3.956  11.752  10.398
84741SOL    HW256121   3.983  11.857  10.503
84742SOL     OW56122  10.078   8.221   4.793
84742SOL    HW156123   9.983   8.212   4.788
84742SOL    HW256124  10.098   8.219   4.886
84743SOL     OW56125  13.498   0.068   1.927
84743SOL    HW156126  13.538  14.867   1.974
84743SOL    HW256127  13.477   0.033   1.840
84744SOL     OW56128   2.988   3.416  11.448
84744SOL    HW156129   2.953   3.485  11.391
84744SOL    HW256130   3.066   3.456  11.488
84745SOL     OW56131   7.271  12.882   7.936
84745SOL    HW156132   7.365  12.869   7.925
84745SOL    HW256133   7.259  12.884   8.031
84746SOL     OW56134  13.409  13.900  11.753
84746SOL    HW156135  13.385  13.834  11.818
84746SOL    HW256136  13.475  13.856  11.698
84747SOL     OW56137  11.112   0.157   4.742
84747SOL    HW156138  11.090   0.178   4.833
84747SOL    HW256139  11.034   0.180   4.692
84748SOL     OW56140   5.304   0.111   7.606
84748SOL    HW156141   5.230   0.143   7.658
84748SOL    HW256142   5.272   0.032   7.563
84749SOL     OW56143   0.317   0.464   1.273
84749SOL    HW156144   0.361   0.443   1.355
84749SOL    HW256145   0.230   0.425   1.282
84750SOL     OW56146   4.706  14.075  12.155
84750SOL    HW156147   4.682  14.156  12.199
84750SOL    HW256148   4.639  14.012  12.183
84751SOL     OW56149  13.582  13.421   7.928
84751SOL    HW156150  13.574  13.361   8.003
84751SOL    HW256151  13.672  13.411   7.899
84752SOL     OW56152  12.882   8.485  12.521
84752SOL    HW156153  12.894   8.551  12.589
84752SOL    HW256154  12.787   8.476  12.513
84753SOL     OW56155   5.843   0.537   5.888
84753SOL    HW156156   5.908   0.607   5.897
84753SOL    HW256157   5.789   0.565   5.814
84754SOL     OW56158   9.976   9.499   4.132
84754SOL    HW156159  10.022   9.526   4.211
84754SOL    HW256160  10.006   9.560   4.064
84755SOL     OW56161   7.245   9.077  10.629
84755SOL    HW156162   7.195   9.157  10.643
84755SOL    HW256163   7.259   9.042  10.717
84756SOL     OW56164   4.100   3.430  12.409
84756SOL    HW156165   4.115   3.354  12.466
84756SOL    HW256166   4.185   3.447  12.369
84757SOL     OW56167   6.694   2.505   6.170
84757SOL    HW156168   6.654   2.529   6.086
84757SOL    HW256169   6.694   2.409   6.170
84758SOL     OW56170  12.602  11.875   1.347
84758SOL    HW156171  12.510  11.866   1.322
84758SOL    HW256172  12.618  11.969   1.347
84759SOL     OW56173  12.467   0.287   2.934
84759SOL    HW156174  12.523   0.290   3.012
84759SOL    HW256175  12.518   0.334   2.867
84760SOL     OW56176  14.626  10.722   3.476
84760SOL    HW156177  14.679  10.751   3.401
84760SOL    HW256178  14.569  10.796   3.495
84761SOL     OW56179  12.300   2.907   5.470
84761SOL    HW156180  12.301   2.899   5.375
84761SOL    HW256181  12.385   2.947   5.492
84762SOL     OW56182   8.855   8.338   4.441
84762SOL    HW156183   8.856   8.426   4.480
84762SOL    HW256184   8.893   8.350   4.354
84763SOL     OW56185   3.040   3.499   0.418
84763SOL    HW156186   3.061   3.576   0.365
84763SOL    HW256187   3.123   3.452   0.427
84764SOL     OW56188  11.060   9.754   2.737
84764SOL    HW156189  11.133   9.812   2.715
84764SOL    HW256190  11.100   9.667   2.744
84765SOL     OW56191   8.012  11.159   3.075
84765SOL    HW156192   8.079  11.110   3.122
84765SOL    HW256193   7.930  11.113   3.094
84766SOL     OW56194   9.403   1.856  14.603
84766SOL    HW156195   9.338   1.791  14.629
84766SOL    HW256196   9.392   1.928  14.665
84767SOL     OW56197   0.950   8.967   8.348
84767SOL    HW156198   0.948   8.872   8.336
84767SOL    HW256199   1.020   8.982   8.411
84768SOL     OW56200  12.956   2.936  13.603
84768SOL    HW156201  13.006   2.910  13.681
84768SOL    HW256202  12.996   2.888  13.531
84769SOL     OW56203   0.375   4.526   6.009
84769SOL    HW156204   0.370   4.527   5.913
84769SOL    HW256205   0.286   4.504   6.037
84770SOL     OW56206   3.427  11.257   2.598
84770SOL    HW156207   3.395  11.173   2.629
84770SOL    HW256208   3.361  11.288   2.537
84771SOL     OW56209   8.530   1.178   1.803
84771SOL    HW156210   8.575   1.097   1.779
84771SOL    HW256211   8.580   1.212   1.878
84772SOL     OW56212   9.684   6.969  10.153
84772SOL    HW156213   9.768   6.924  10.145
84772SOL    HW256214   9.657   6.954  10.243
84773SOL     OW56215   2.932  12.762   7.280
84773SOL    HW156216   2.886  12.696   7.332
84773SOL    HW256217   3.024  12.736   7.284
84774SOL     OW56218  14.157   7.535   9.879
84774SOL    HW156219  14.153   7.449   9.838
84774SOL    HW256220  14.156   7.517   9.973
84775SOL     OW56221   7.990   9.287   2.652
84775SOL    HW156222   7.900   9.321   2.650
84775SOL    HW256223   8.044   9.361   2.623
84776SOL     OW56224   3.578  10.311  13.497
84776SOL    HW156225   3.603  10.232  13.451
84776SOL    HW256226   3.544  10.280  13.581
84777SOL     OW56227  11.991   6.054  10.732
84777SOL    HW156228  12.027   6.112  10.800
84777SOL    HW256229  11.910   6.098  10.704
84778SOL     OW56230  10.200  13.002   5.621
84778SOL    HW156231  10.198  13.095   5.601
84778SOL    HW256232  10.280  12.970   5.580
84779SOL     OW56233  10.552   6.251   1.688
84779SOL    HW156234  10.622   6.261   1.624
84779SOL    HW256235  10.568   6.165   1.727
84780SOL     OW56236   7.119  12.604   8.573
84780SOL    HW156237   7.206  12.602   8.613
84780SOL    HW256238   7.129  12.555   8.491
84781SOL     OW56239   3.205   9.331  13.853
84781SOL    HW156240   3.143   9.403  13.841
84781SOL    HW256241   3.192   9.274  13.777
84782SOL     OW56242  14.278   9.758   0.611
84782SOL    HW156243  14.347   9.756   0.544
84782SOL    HW256244  14.211   9.698   0.578
84783SOL     OW56245   0.646   1.431   8.110
84783SOL    HW156246   0.623   1.376   8.185
84783SOL    HW256247   0.728   1.473   8.136
84784SOL     OW56248   7.221  11.848   2.562
84784SOL    HW156249   7.147  11.818   2.615
84784SOL    HW256250   7.238  11.775   2.503
84785SOL     OW56251  11.792   9.841   3.671
84785SOL    HW156252  11.828   9.766   3.717
84785SOL    HW256253  11.858   9.910   3.680
84786SOL     OW56254  10.121  12.241   1.579
84786SOL    HW156255  10.067  12.273   1.507
84786SOL    HW256256  10.068  12.174   1.622
84787SOL     OW56257   0.100   7.921   9.402
84787SOL    HW156258   0.114   7.868   9.480
84787SOL    HW256259   0.042   7.991   9.431
84788SOL     OW56260   9.529   9.945   6.529
84788SOL    HW156261   9.451   9.901   6.561
84788SOL    HW256262   9.566   9.989   6.606
84789SOL     OW56263   6.743   1.682   1.624
84789SOL    HW156264   6.748   1.683   1.529
84789SOL    HW256265   6.814   1.740   1.653
84790SOL     OW56266   9.274  11.550   5.419
84790SOL    HW156267   9.305  11.467   5.381
84790SOL    HW256268   9.179  11.541   5.421
84791SOL     OW56269  12.069   9.505   0.138
84791SOL    HW156270  12.046   9.502   0.045
84791SOL    HW256271  12.052   9.417   0.170
84792SOL     OW56272   4.836   1.984   0.283
84792SOL    HW156273   4.775   1.941   0.343
84792SOL    HW256274   4.834   2.076   0.308
84793SOL     OW56275  12.246   1.216   3.335
84793SOL    HW156276  12.241   1.290   3.274
84793SOL    HW256277  12.224   1.140   3.282
84794SOL     OW56278   3.594  11.423  10.494
84794SOL    HW156279   3.514  11.370  10.507
84794SOL    HW256280   3.637  11.383  10.418
84795SOL     OW56281   3.784   5.162  11.546
84795SOL    HW156282   3.817   5.079  11.581
84795SOL    HW256283   3.862   5.209  11.517
84796SOL     OW56284   7.264   6.779  12.065
84796SOL    HW156285   7.247   6.704  12.008
84796SOL    HW256286   7.178   6.803  12.099
84797SOL     OW56287   0.864   9.322  12.991
84797SOL    HW156288   0.845   9.344  12.900
84797SOL    HW256289   0.898   9.232  12.987
84798SOL     OW56290  13.638   9.112   9.556
84798SOL    HW156291  13.718   9.146   9.597
84798SOL    HW256292  13.611   9.040   9.613
84799SOL     OW56293   7.507   5.038  12.658
84799SOL    HW156294   7.434   5.097  12.672
84799SOL    HW256295   7.481   4.986  12.582
84800SOL     OW56296   3.477  12.050   3.103
84800SOL    HW156297   3.487  11.955   3.111
84800SOL    HW256298   3.503  12.083   3.189
84801SOL     OW56299  13.474  10.775   9.598
84801SOL    HW156300  13.399  10.814   9.554
84801SOL    HW256301  13.455  10.681   9.599
84802SOL     OW56302   3.315  12.696   6.849
84802SOL    HW156303   3.354  12.724   6.932
84802SOL    HW256304   3.237  12.751   6.840
84803SOL     OW56305  14.604   8.307   9.054
84803SOL    HW156306  14.699   8.320   9.064
84803SOL    HW256307  14.574   8.386   9.011
84804SOL     OW56308   4.585   3.482   8.766
84804SOL    HW156309   4.639   3.455   8.840
84804SOL    HW256310   4.635   3.457   8.688
84805SOL     OW56311  14.264   9.609   9.633
84805SOL    HW156312  14.213   9.686   9.609
84805SOL    HW256313  14.227   9.538   9.582
84806SOL     OW56314   7.430   2.744  10.919
84806SOL    HW156315   7.480   2.822  10.944
84806SOL    HW256316   7.352   2.778  10.875
84807SOL     OW56317  10.493   1.804   7.841
84807SOL    HW156318  10.549   1.729   7.862
84807SOL    HW256319  10.404   1.774   7.859
84808SOL     OW56320   4.704   4.483   7.759
84808SOL    HW156321   4.773   4.423   7.786
84808SOL    HW256322   4.626   4.455   7.807
84809SOL     OW56323   8.597  14.058  14.654
84809SOL    HW156324   8.692  14.052  14.652
84809SOL    HW256325   8.575  14.068  14.747
84810SOL     OW56326   3.121   2.222  10.559
84810SOL    HW156327   3.209   2.231  10.522
84810SOL    HW256328   3.120   2.280  10.634
84811SOL     OW56329   4.258   4.503   4.201
84811SOL    HW156330   4.260   4.443   4.126
84811SOL    HW256331   4.334   4.478   4.254
84812SOL     OW56332  10.488   5.640   5.304
84812SOL    HW156333  10.439   5.578   5.251
84812SOL    HW256334  10.464   5.726   5.270
84813SOL     OW56335   9.224   8.250   3.844
84813SOL    HW156336   9.129   8.264   3.843
84813SOL    HW256337   9.247   8.239   3.752
84814SOL     OW56338   6.132  10.604  11.479
84814SOL    HW156339   6.222  10.632  11.498
84814SOL    HW256340   6.129  10.512  11.505
84815SOL     OW56341   2.041   8.101   8.533
84815SOL    HW156342   2.068   8.058   8.452
84815SOL    HW256343   2.122   8.114   8.582
84816SOL     OW56344   0.399  14.690   4.414
84816SOL    HW156345   0.385  14.708   4.321
84816SOL    HW256346   0.357  14.606   4.429
84817SOL     OW56347   9.788  11.018  10.590
84817SOL    HW156348   9.775  10.926  10.612
84817SOL    HW256349   9.843  11.017  10.512
84818SOL     OW56350  12.317   8.959  10.764
84818SOL    HW156351  12.259   8.924  10.697
84818SOL    HW256352  12.394   8.902  10.762
84819SOL     OW56353   6.309  10.205  12.642
84819SOL    HW156354   6.368  10.280  12.649
84819SOL    HW256355   6.264  10.218  12.559
84820SOL     OW56356   5.307   9.395   4.714
84820SOL    HW156357   5.379   9.367   4.770
84820SOL    HW256358   5.349   9.441   4.641
84821SOL     OW56359   5.122   4.157  13.391
84821SOL    HW156360   5.062   4.173  13.318
84821SOL    HW256361   5.080   4.087  13.441
84822SOL     OW56362  12.609  10.427  10.284
84822SOL    HW156363  12.567  10.380  10.356
84822SOL    HW256364  12.702  10.427  10.306
84823SOL     OW56365   3.589  13.854  10.996
84823SOL    HW156366   3.627  13.941  10.991
84823SOL    HW256367   3.654  13.802  11.042
84824SOL     OW56368   0.387   7.157   9.534
84824SOL    HW156369   0.440   7.223   9.489
84824SOL    HW256370   0.418   7.161   9.625
84825SOL     OW56371   7.325  10.770   6.619
84825SOL    HW156372   7.410  10.775   6.661
84825SOL    HW256373   7.319  10.681   6.585
84826SOL     OW56374  12.586   7.502  12.003
84826SOL    HW156375  12.508   7.554  12.021
84826SOL    HW256376  12.659   7.563  12.014
84827SOL     OW56377  11.227  10.963   8.929
84827SOL    HW156378  11.314  10.924   8.927
84827SOL    HW256379  11.172  10.898   8.972
84828SOL     OW56380   0.079   9.938   7.149
84828SOL    HW156381   0.095   9.963   7.240
84828SOL    HW256382   0.112  10.012   7.098
84829SOL     OW56383   2.124   1.234   3.721
84829SOL    HW156384   2.199   1.289   3.743
84829SOL    HW256385   2.125   1.230   3.625
84830SOL     OW56386  11.753   5.365   3.078
84830SOL    HW156387  11.806   5.363   3.158
84830SOL    HW256388  11.792   5.298   3.022
84831SOL     OW56389   3.547   7.460  11.608
84831SOL    HW156390   3.524   7.552  11.602
84831SOL    HW256391   3.553   7.431  11.517
84832SOL     OW56392  10.079   1.444  10.329
84832SOL    HW156393  10.109   1.535  10.328
84832SOL    HW256394  10.033   1.435  10.413
84833SOL     OW56395   9.389  11.848   4.099
84833SOL    HW156396   9.312  11.850   4.155
84833SOL    HW256397   9.355  11.854   4.010
84834SOL     OW56398   0.561   7.905   1.465
84834SOL    HW156399   0.507   7.826   1.475
84834SOL    HW256400   0.517   7.972   1.518
84835SOL     OW56401   4.905   9.602  11.343
84835SOL    HW156402   4.835   9.601  11.277
84835SOL    HW256403   4.978   9.556  11.301
84836SOL     OW56404   3.216  11.872   4.408
84836SOL    HW156405   3.306  11.895   4.430
84836SOL    HW256406   3.175  11.956   4.385
84837SOL     OW56407   5.756   6.811   0.339
84837SOL    HW156408   5.663   6.790   0.335
84837SOL    HW256409   5.760   6.901   0.371
84838SOL     OW56410   5.108   4.328   7.516
84838SOL    HW156411   5.197   4.294   7.524
84838SOL    HW256412   5.055   4.251   7.494
84839SOL     OW56413   8.858   6.863   4.312
84839SOL    HW156414   8.845   6.836   4.403
84839SOL    HW256415   8.948   6.895   4.310
84840SOL     OW56416   5.075   8.746   0.287
84840SOL    HW156417   5.073   8.722   0.380
84840SOL    HW256418   5.080   8.663   0.241
84841SOL     OW56419   6.689   0.697   4.455
84841SOL    HW156420   6.707   0.691   4.549
84841SOL    HW256421   6.639   0.777   4.445
84842SOL     OW56422   4.251   6.371   6.598
84842SOL    HW156423   4.299   6.370   6.516
84842SOL    HW256424   4.295   6.438   6.651
84843SOL     OW56425   8.308   4.220   7.262
84843SOL    HW156426   8.217   4.248   7.266
84843SOL    HW256427   8.321   4.168   7.341
84844SOL     OW56428  13.974  14.447   9.422
84844SOL    HW156429  13.921  14.412   9.493
84844SOL    HW256430  14.002  14.370   9.372
84845SOL     OW56431   8.214  12.645  14.197
84845SOL    HW156432   8.281  12.602  14.250
84845SOL    HW256433   8.254  12.728  14.170
84846SOL     OW56434  13.310   3.880  12.922
84846SOL    HW156435  13.313   3.911  12.831
84846SOL    HW256436  13.234   3.822  12.925
84847SOL     OW56437   2.047   9.114   3.964
84847SOL    HW156438   1.986   9.051   3.924
84847SOL    HW256439   2.078   9.167   3.891
84848SOL     OW56440  14.308  14.824   0.035
84848SOL    HW156441  14.375  14.756   0.028
84848SOL    HW256442  14.302  14.861  14.819
84849SOL     OW56443   6.054  14.118   7.754
84849SOL    HW156444   6.072  14.145   7.844
84849SOL    HW256445   6.124  14.159   7.703
84850SOL     OW56446   3.859   6.068   8.590
84850SOL    HW156447   3.950   6.095   8.581
84850SOL    HW256448   3.809   6.150   8.579
84851SOL     OW56449   9.149  12.220   1.955
84851SOL    HW156450   9.215  12.151   1.954
84851SOL    HW256451   9.076  12.185   1.905
84852SOL     OW56452   5.397  10.264   1.766
84852SOL    HW156453   5.338  10.293   1.696
84852SOL    HW256454   5.485  10.283   1.732
84853SOL     OW56455   2.194   7.123  11.088
84853SOL    HW156456   2.159   7.079  11.166
84853SOL    HW256457   2.131   7.103  11.019
84854SOL     OW56458  10.781   2.481   4.769
84854SOL    HW156459  10.812   2.402   4.725
84854SOL    HW256460  10.720   2.449   4.836
84855SOL     OW56461  14.571   9.504  14.367
84855SOL    HW156462  14.626   9.554  14.428
84855SOL    HW256463  14.482   9.523  14.394
84856SOL     OW56464  12.098   0.231   0.966
84856SOL    HW156465  12.017   0.180   0.952
84856SOL    HW256466  12.122   0.212   1.057
84857SOL     OW56467  13.614   6.907  10.710
84857SOL    HW156468  13.541   6.866  10.757
84857SOL    HW256469  13.575   6.936  10.627
84858SOL     OW56470   5.637   1.166   8.799
84858SOL    HW156471   5.589   1.241   8.763
84858SOL    HW256472   5.729   1.194   8.798
84859SOL     OW56473   3.250  11.034   9.624
84859SOL    HW156474   3.330  11.072   9.588
84859SOL    HW256475   3.191  11.027   9.549
84860SOL     OW56476   6.631   5.497  10.352
84860SOL    HW156477   6.662   5.494  10.442
84860SOL    HW256478   6.611   5.406  10.330
84861SOL     OW56479   2.235   1.955   8.696
84861SOL    HW156480   2.231   2.050   8.703
84861SOL    HW256481   2.173   1.933   8.627
84862SOL     OW56482   7.725   2.988  11.420
84862SOL    HW156483   7.749   2.983  11.513
84862SOL    HW256484   7.649   3.045  11.418
84863SOL     OW56485  12.255   0.486   5.138
84863SOL    HW156486  12.164   0.510   5.155
84863SOL    HW256487  12.284   0.443   5.219
84864SOL     OW56488   5.019   4.936   6.824
84864SOL    HW156489   5.064   4.869   6.877
84864SOL    HW256490   4.995   4.889   6.744
84865SOL     OW56491   9.981  13.616   6.784
84865SOL    HW156492   9.900  13.570   6.806
84865SOL    HW256493  10.050  13.569   6.831
84866SOL     OW56494  10.890  13.016   8.337
84866SOL    HW156495  10.982  13.044   8.336
84866SOL    HW256496  10.845  13.076   8.279
84867SOL     OW56497   7.841   3.797  12.719
84867SOL    HW156498   7.904   3.831  12.656
84867SOL    HW256499   7.887   3.798  12.803
84868SOL     OW56500   3.908   9.569   7.757
84868SOL    HW156501   3.949   9.494   7.714
84868SOL    HW256502   3.952   9.575   7.842
84869SOL     OW56503   8.173  11.895   6.807
84869SOL    HW156504   8.189  11.917   6.716
84869SOL    HW256505   8.216  11.964   6.857
84870SOL     OW56506   3.209   8.603  12.000
84870SOL    HW156507   3.292   8.609  11.953
84870SOL    HW256508   3.230   8.622  12.091
84871SOL     OW56509   3.454   9.603   4.866
84871SOL    HW156510   3.527   9.646   4.823
84871SOL    HW256511   3.436   9.657   4.943
84872SOL     OW56512   9.224   2.999   5.294
84872SOL    HW156513   9.227   3.092   5.318
84872SOL    HW256514   9.146   2.991   5.239
84873SOL     OW56515   3.704   1.963  10.078
84873SOL    HW156516   3.732   2.016  10.153
84873SOL    HW256517   3.779   1.962  10.019
84874SOL     OW56518   5.843  14.450   6.568
84874SOL    HW156519   5.864  14.404   6.486
84874SOL    HW256520   5.848  14.543   6.544
84875SOL     OW56521  11.074   1.200  11.505
84875SOL    HW156522  11.115   1.132  11.558
84875SOL    HW256523  11.098   1.282  11.548
84876SOL     OW56524   5.054   9.870   7.791
84876SOL    HW156525   5.087   9.906   7.708
84876SOL    HW256526   5.128   9.878   7.851
84877SOL     OW56527   2.299   3.348  10.196
84877SOL    HW156528   2.294   3.293  10.117
84877SOL    HW256529   2.348   3.294  10.259
84878SOL     OW56530  12.576   6.443   1.368
84878SOL    HW156531  12.508   6.382   1.340
84878SOL    HW256532  12.631   6.454   1.290
84879SOL     OW56533   2.706  13.752  11.200
84879SOL    HW156534   2.618  13.775  11.231
84879SOL    HW256535   2.698  13.749  11.105
84880SOL     OW56536  14.219   2.837   9.822
84880SOL    HW156537  14.283   2.800   9.883
84880SOL    HW256538  14.136   2.799   9.849
84881SOL     OW56539  10.539   8.326  10.485
84881SOL    HW156540  10.564   8.293  10.571
84881SOL    HW256541  10.522   8.420  10.499
84882SOL     OW56542  11.747   0.646  12.268
84882SOL    HW156543  11.724   0.737  12.251
84882SOL    HW256544  11.689   0.619  12.340
84883SOL     OW56545   3.808   1.235   9.876
84883SOL    HW156546   3.713   1.237   9.868
84883SOL    HW256547   3.827   1.155   9.925
84884SOL     OW56548   5.334  13.760   8.976
84884SOL    HW156549   5.338  13.703   8.900
84884SOL    HW256550   5.425  13.777   9.000
84885SOL     OW56551  14.351   9.662  13.818
84885SOL    HW156552  14.306   9.742  13.791
84885SOL    HW256553  14.389   9.628  13.737
84886SOL     OW56554   1.429   3.546   7.199
84886SOL    HW156555   1.479   3.468   7.226
84886SOL    HW256556   1.422   3.537   7.104
84887SOL     OW56557  14.173   8.537  12.272
84887SOL    HW156558  14.120   8.617  12.272
84887SOL    HW256559  14.183   8.516  12.179
84888SOL     OW56560  11.764   0.833   9.631
84888SOL    HW156561  11.733   0.749   9.597
84888SOL    HW256562  11.842   0.811   9.682
84889SOL     OW56563   0.501   0.079   0.752
84889SOL    HW156564   0.516   0.123   0.836
84889SOL    HW256565   0.406   0.066   0.749
84890SOL     OW56566   4.765   1.973   9.182
84890SOL    HW156567   4.701   1.997   9.114
84890SOL    HW256568   4.744   2.030   9.256
84891SOL     OW56569   3.042   3.096   3.490
84891SOL    HW156570   2.958   3.052   3.501
84891SOL    HW256571   3.077   3.102   3.579
84892SOL     OW56572   9.795   9.078   5.918
84892SOL    HW156573   9.730   9.011   5.894
84892SOL    HW256574   9.854   9.033   5.978
84893SOL     OW56575   0.710   3.227   8.274
84893SOL    HW156576   0.739   3.231   8.365
84893SOL    HW256577   0.650   3.301   8.264
84894SOL     OW56578   1.049  14.548   4.411
84894SOL    HW156579   1.125  14.565   4.356
84894SOL    HW256580   1.068  14.463   4.452
84895SOL     OW56581   5.934   1.243   5.559
84895SOL    HW156582   6.024   1.267   5.582
84895SOL    HW256583   5.943   1.179   5.488
84896SOL     OW56584  14.001   0.011   2.333
84896SOL    HW156585  13.977   0.101   2.310
84896SOL    HW256586  14.094   0.004   2.310
84897SOL     OW56587   3.290  10.386   6.540
84897SOL    HW156588   3.314  10.389   6.448
84897SOL    HW256589   3.373  10.393   6.587
84898SOL     OW56590  11.164   6.015  10.255
84898SOL    HW156591  11.101   6.036  10.186
84898SOL    HW256592  11.160   6.090  10.314
84899SOL     OW56593   7.679   0.706   4.238
84899SOL    HW156594   7.714   0.791   4.264
84899SOL    HW256595   7.588   0.724   4.213
84900SOL     OW56596   6.384  11.095   6.682
84900SOL    HW156597   6.377  11.175   6.630
84900SOL    HW256598   6.358  11.025   6.622
84901SOL     OW56599  11.292  14.382   7.992
84901SOL    HW156600  11.346  14.387   8.071
84901SOL    HW256601  11.285  14.472   7.962
84902SOL     OW56602   0.685   2.560  10.751
84902SOL    HW156603   0.696   2.610  10.670
84902SOL    HW256604   0.729   2.477  10.734
84903SOL     OW56605   8.616   8.604   7.093
84903SOL    HW156606   8.685   8.575   7.153
84903SOL    HW256607   8.564   8.667   7.144
84904SOL     OW56608   2.834   6.016   7.024
84904SOL    HW156609   2.788   5.994   7.106
84904SOL    HW256610   2.908   6.070   7.053
84905SOL     OW56611   2.859   3.332   7.993
84905SOL    HW156612   2.808   3.413   8.000
84905SOL    HW256613   2.949   3.358   8.010
84906SOL     OW56614   1.374   4.560   0.999
84906SOL    HW156615   1.282   4.538   1.012
84906SOL    HW256616   1.401   4.507   0.924
84907SOL     OW56617   9.899   2.450   9.968
84907SOL    HW156618   9.892   2.368   9.920
84907SOL    HW256619   9.992   2.471   9.966
84908SOL     OW56620   1.923   5.536   3.118
84908SOL    HW156621   1.936   5.515   3.026
84908SOL    HW256622   1.864   5.468   3.150
84909SOL     OW56623   3.637   7.056  14.721
84909SOL    HW156624   3.570   7.039  14.788
84909SOL    HW256625   3.587   7.079  14.643
84910SOL     OW56626   1.126   9.308   2.700
84910SOL    HW156627   1.185   9.325   2.773
84910SOL    HW256628   1.140   9.382   2.640
84911SOL     OW56629   2.992   5.695  10.051
84911SOL    HW156630   2.900   5.723  10.044
84911SOL    HW256631   3.017   5.675   9.961
84912SOL     OW56632  10.225  11.434   6.016
84912SOL    HW156633  10.292  11.384   5.969
84912SOL    HW256634  10.146  11.381   6.009
84913SOL     OW56635  13.161   1.722  13.551
84913SOL    HW156636  13.153   1.758  13.640
84913SOL    HW256637  13.077   1.679  13.535
84914SOL     OW56638   9.469   5.995   6.563
84914SOL    HW156639   9.405   6.051   6.519
84914SOL    HW256640   9.554   6.022   6.526
84915SOL     OW56641  10.067   9.500  11.430
84915SOL    HW156642  10.010   9.551  11.488
84915SOL    HW256643  10.019   9.496  11.347
84916SOL     OW56644   0.716   6.381   5.608
84916SOL    HW156645   0.712   6.326   5.686
84916SOL    HW256646   0.626   6.384   5.575
84917SOL     OW56647   4.927  12.919   6.833
84917SOL    HW156648   4.862  12.980   6.798
84917SOL    HW256649   4.982  12.897   6.757
84918SOL     OW56650  11.231  11.091   7.672
84918SOL    HW156651  11.279  11.092   7.589
84918SOL    HW256652  11.268  11.164   7.722
84919SOL     OW56653   4.824   1.154   4.302
84919SOL    HW156654   4.828   1.188   4.213
84919SOL    HW256655   4.845   1.061   4.293
84920SOL     OW56656   3.698  14.457   0.287
84920SOL    HW156657   3.720  14.519   0.218
84920SOL    HW256658   3.608  14.429   0.267
84921SOL     OW56659  10.529   3.755   4.154
84921SOL    HW156660  10.457   3.728   4.212
84921SOL    HW256661  10.557   3.674   4.112
84922SOL     OW56662   3.319  12.712   5.737
84922SOL    HW156663   3.281  12.625   5.729
84922SOL    HW256664   3.280  12.749   5.816
84923SOL     OW56665  12.154   4.859   7.883
84923SOL    HW156666  12.145   4.802   7.807
84923SOL    HW256667  12.104   4.938   7.859
84924SOL     OW56668   4.850  10.227  14.697
84924SOL    HW156669   4.861  10.256  14.606
84924SOL    HW256670   4.870  10.133  14.694
84925SOL     OW56671  12.438   7.657   7.566
84925SOL    HW156672  12.349   7.660   7.530
84925SOL    HW256673  12.436   7.719   7.639
84926SOL     OW56674   1.265   1.337  14.637
84926SOL    HW156675   1.266   1.243  14.654
84926SOL    HW256676   1.350   1.369  14.666
84927SOL     OW56677   8.890  12.461   1.084
84927SOL    HW156678   8.836  12.382   1.096
84927SOL    HW256679   8.975  12.427   1.056
84928SOL     OW56680   2.663   0.555   9.029
84928SOL    HW156681   2.748   0.573   9.069
84928SOL    HW256682   2.683   0.537   8.937
84929SOL     OW56683   4.691   4.139  12.710
84929SOL    HW156684   4.616   4.081  12.722
84929SOL    HW256685   4.663   4.223  12.746
84930SOL     OW56686   4.972  11.244   2.752
84930SOL    HW156687   4.926  11.328   2.742
84930SOL    HW256688   5.000  11.222   2.663
84931SOL     OW56689  10.348  11.152   5.676
84931SOL    HW156690  10.374  11.209   5.748
84931SOL    HW256691  10.346  11.208   5.599
84932SOL     OW56692  10.174   5.725   5.276
84932SOL    HW156693  10.219   5.659   5.223
84932SOL    HW256694  10.232   5.801   5.273
84933SOL     OW56695   5.380   5.803   5.623
84933SOL    HW156696   5.288   5.788   5.643
84933SOL    HW256697   5.379   5.841   5.535
84934SOL     OW56698   0.816   3.067   5.684
84934SOL    HW156699   0.824   3.099   5.773
84934SOL    HW256700   0.895   3.099   5.639
84935SOL     OW56701   3.297   8.800   6.296
84935SOL    HW156702   3.235   8.780   6.367
84935SOL    HW256703   3.352   8.869   6.332
84936SOL     OW56704  14.629   2.179  10.135
84936SOL    HW156705  14.565   2.207  10.069
84936SOL    HW256706  14.634   2.084  10.125
84937SOL     OW56707   5.858   0.994  13.414
84937SOL    HW156708   5.902   1.079  13.409
84937SOL    HW256709   5.887   0.957  13.497
84938SOL     OW56710   0.360   8.173   3.231
84938SOL    HW156711   0.279   8.188   3.183
84938SOL    HW256712   0.413   8.119   3.174
84939SOL     OW56713   2.210   2.888   0.583
84939SOL    HW156714   2.249   2.831   0.650
84939SOL    HW256715   2.116   2.875   0.592
84940SOL     OW56716   8.960  12.917   2.429
84940SOL    HW156717   9.023  12.880   2.490
84940SOL    HW256718   8.876  12.913   2.475
84941SOL     OW56719   4.120  14.162  13.055
84941SOL    HW156720   4.112  14.117  13.139
84941SOL    HW256721   4.088  14.250  13.072
84942SOL     OW56722   5.724   6.047   7.872
84942SOL    HW156723   5.693   6.048   7.781
84942SOL    HW256724   5.648   6.075   7.924
84943SOL     OW56725  11.720   5.917   1.176
84943SOL    HW156726  11.681   5.992   1.221
84943SOL    HW256727  11.646   5.860   1.156
84944SOL     OW56728   8.832   6.683  10.330
84944SOL    HW156729   8.835   6.694  10.235
84944SOL    HW256730   8.879   6.602  10.347
84945SOL     OW56731   8.420  14.011   1.553
84945SOL    HW156732   8.409  14.050   1.639
84945SOL    HW256733   8.363  14.063   1.496
84946SOL     OW56734   5.139   3.340   1.780
84946SOL    HW156735   5.086   3.294   1.845
84946SOL    HW256736   5.123   3.293   1.698
84947SOL     OW56737   5.590   5.802   3.199
84947SOL    HW156738   5.601   5.897   3.203
84947SOL    HW256739   5.541   5.786   3.118
84948SOL     OW56740   7.853   7.805   0.797
84948SOL    HW156741   7.830   7.898   0.804
84948SOL    HW256742   7.948   7.803   0.811
84949SOL     OW56743   3.739  12.627   6.797
84949SOL    HW156744   3.649  12.611   6.772
84949SOL    HW256745   3.742  12.722   6.815
84950SOL     OW56746  14.683   8.104   7.317
84950SOL    HW156747  14.702   8.136   7.405
84950SOL    HW256748  14.767   8.108   7.271
84951SOL     OW56749   6.091   0.857   0.520
84951SOL    HW156750   6.093   0.870   0.425
84951SOL    HW256751   6.031   0.924   0.552
84952SOL     OW56752   4.616  12.768   6.808
84952SOL    HW156753   4.690  12.753   6.750
84952SOL    HW256754   4.642  12.726   6.891
84953SOL     OW56755   9.613  12.959  13.078
84953SOL    HW156756   9.666  12.938  13.001
84953SOL    HW256757   9.670  13.013  13.132
84954SOL     OW56758   9.172  14.814  14.067
84954SOL    HW156759   9.090  14.855  14.095
84954SOL    HW256760   9.165  14.809  13.971
84955SOL     OW56761   7.262  11.087  13.991
84955SOL    HW156762   7.203  11.115  14.062
84955SOL    HW256763   7.287  10.998  14.014
84956SOL     OW56764   4.743  10.596  13.842
84956SOL    HW156765   4.762  10.570  13.752
84956SOL    HW256766   4.650  10.618  13.842
84957SOL     OW56767   2.941   6.534   0.464
84957SOL    HW156768   2.863   6.543   0.408
84957SOL    HW256769   3.013   6.559   0.406
84958SOL     OW56770   9.476   9.138   5.036
84958SOL    HW156771   9.553   9.134   5.092
84958SOL    HW256772   9.474   9.229   5.005
84959SOL     OW56773   1.948   5.821   6.670
84959SOL    HW156774   1.891   5.763   6.620
84959SOL    HW256775   1.960   5.776   6.754
84960SOL     OW56776  10.066   0.457   1.761
84960SOL    HW156777  10.030   0.410   1.686
84960SOL    HW256778  10.005   0.438   1.833
84961SOL     OW56779   1.890  13.888  10.961
84961SOL    HW156780   1.827  13.866  10.893
84961SOL    HW256781   1.976  13.881  10.918
84962SOL     OW56782  13.177   9.825   6.376
84962SOL    HW156783  13.149   9.825   6.285
84962SOL    HW256784  13.153   9.738   6.409
84963SOL     OW56785  12.319   0.650   7.275
84963SOL    HW156786  12.258   0.594   7.227
84963SOL    HW256787  12.403   0.637   7.231
84964SOL     OW56788   1.299   8.479   4.586
84964SOL    HW156789   1.343   8.426   4.653
84964SOL    HW256790   1.246   8.541   4.636
84965SOL     OW56791   9.512  11.646   1.651
84965SOL    HW156792   9.607  11.646   1.638
84965SOL    HW256793   9.483  11.729   1.614
84966SOL     OW56794   6.531  14.157   2.020
84966SOL    HW156795   6.607  14.099   2.012
84966SOL    HW256796   6.565  14.244   1.999
84967SOL     OW56797   0.385  12.323   4.897
84967SOL    HW156798   0.308  12.271   4.921
84967SOL    HW256799   0.405  12.374   4.975
84968SOL     OW56800  14.549  12.320   9.007
84968SOL    HW156801  14.527  12.317   9.100
84968SOL    HW256802  14.643  12.304   9.003
84969SOL     OW56803   9.696   5.228  12.983
84969SOL    HW156804   9.760   5.265  12.922
84969SOL    HW256805   9.740   5.228  13.068
84970SOL     OW56806  10.890  11.596   9.076
84970SOL    HW156807  10.818  11.657   9.089
84970SOL    HW256808  10.859  11.536   9.009
84971SOL     OW56809   8.119   8.918   9.125
84971SOL    HW156810   8.174   8.846   9.158
84971SOL    HW256811   8.160   8.943   9.042
84972SOL     OW56812  14.740   8.475   7.601
84972SOL    HW156813  14.688   8.408   7.556
84972SOL    HW256814  14.709   8.473   7.692
84973SOL     OW56815  12.799   3.202   1.522
84973SOL    HW156816  12.765   3.122   1.483
84973SOL    HW256817  12.892   3.185   1.535
84974SOL     OW56818   9.765   9.445   9.890
84974SOL    HW156819   9.753   9.383   9.818
84974SOL    HW256820   9.686   9.437   9.943
84975SOL     OW56821   8.634  13.317   1.815
84975SOL    HW156822   8.718  13.276   1.797
84975SOL    HW256823   8.573  13.270   1.757
84976SOL     OW56824   8.848   4.405  10.400
84976SOL    HW156825   8.903   4.457  10.341
84976SOL    HW256826   8.848   4.317  10.361
84977SOL     OW56827   5.284   3.521   7.482
84977SOL    HW156828   5.288   3.559   7.570
84977SOL    HW256829   5.268   3.428   7.497
84978SOL     OW56830   2.532   0.059  14.107
84978SOL    HW156831   2.471   0.059  14.034
84978SOL    HW256832   2.479   0.033  14.183
84979SOL     OW56833  11.374   7.590   4.627
84979SOL    HW156834  11.417   7.554   4.549
84979SOL    HW256835  11.302   7.644   4.591
84980SOL     OW56836   9.973  12.690  11.142
84980SOL    HW156837   9.890  12.716  11.182
84980SOL    HW256838  10.039  12.739  11.190
84981SOL     OW56839  13.322   2.504   6.380
84981SOL    HW156840  13.236   2.472   6.353
84981SOL    HW256841  13.362   2.431   6.427
84982SOL     OW56842   5.815  13.942  13.559
84982SOL    HW156843   5.806  13.993  13.640
84982SOL    HW256844   5.734  13.891  13.553
84983SOL     OW56845   2.630   2.328   2.044
84983SOL    HW156846   2.689   2.326   1.969
84983SOL    HW256847   2.665   2.261   2.103
84984SOL     OW56848  14.726  10.448  13.365
84984SOL    HW156849  14.631  10.441  13.353
84984SOL    HW256850  14.749  10.533  13.328
84985SOL     OW56851  12.449   3.865   3.850
84985SOL    HW156852  12.397   3.938   3.885
84985SOL    HW256853  12.524   3.907   3.808
84986SOL     OW56854   5.129   7.627   9.892
84986SOL    HW156855   5.139   7.611   9.798
84986SOL    HW256856   5.073   7.556   9.923
84987SOL     OW56857   0.529   2.262   2.885
84987SOL    HW156858   0.469   2.188   2.882
84987SOL    HW256859   0.604   2.231   2.935
84988SOL     OW56860   4.439  10.282   6.900
84988SOL    HW156861   4.441  10.229   6.980
84988SOL    HW256862   4.348  10.309   6.891
84989SOL     OW56863   3.476   4.347   0.771
84989SOL    HW156864   3.415   4.327   0.841
84989SOL    HW256865   3.435   4.314   0.691
84990SOL     OW56866   9.496   2.287  13.742
84990SOL    HW156867   9.441   2.224  13.788
84990SOL    HW256868   9.510   2.249  13.655
84991SOL     OW56869  12.640   6.771   8.752
84991SOL    HW156870  12.588   6.694   8.773
84991SOL    HW256871  12.730   6.739   8.746
84992SOL     OW56872   0.734   4.012   2.661
84992SOL    HW156873   0.802   4.011   2.594
84992SOL    HW256874   0.660   4.056   2.620
84993SOL     OW56875   8.958   7.938  13.605
84993SOL    HW156876   8.928   7.925  13.515
84993SOL    HW256877   9.018   8.013  13.599
84994SOL     OW56878  13.540  12.488  14.419
84994SOL    HW156879  13.460  12.455  14.377
84994SOL    HW256880  13.605  12.419  14.404
84995SOL     OW56881   7.960   5.365  11.413
84995SOL    HW156882   7.993   5.352  11.502
84995SOL    HW256883   7.996   5.292  11.363
84996SOL     OW56884   5.485   1.654  10.699
84996SOL    HW156885   5.457   1.714  10.768
84996SOL    HW256886   5.521   1.579  10.746
84997SOL     OW56887  14.768  13.311   0.984
84997SOL    HW156888  14.776  13.226   0.941
84997SOL    HW256889  14.675  13.332   0.978
84998SOL     OW56890  14.643   7.308   5.620
84998SOL    HW156891  14.632   7.352   5.536
84998SOL    HW256892  14.736   7.284   5.623
84999SOL     OW56893   3.214   4.327   6.191
84999SOL    HW156894   3.269   4.254   6.217
84999SOL    HW256895   3.176   4.361   6.272
85000SOL     OW56896   1.250   3.988  10.804
85000SOL    HW156897   1.227   3.936  10.727
85000SOL    HW256898   1.176   4.048  10.814
85001SOL     OW56899  13.613   1.027   7.747
85001SOL    HW156900  13.573   1.082   7.680
85001SOL    HW256901  13.563   1.046   7.826
85002SOL     OW56902  13.311   3.915   1.055
85002SOL    HW156903  13.308   3.943   0.964
85002SOL    HW256904  13.378   3.848   1.058
85003SOL     OW56905   8.683  12.398   3.361
85003SOL    HW156906   8.691  12.397   3.457
85003SOL    HW256907   8.709  12.310   3.334
85004SOL     OW56908   0.897   1.598   1.006
85004SOL    HW156909   0.980   1.644   1.014
85004SOL    HW256910   0.876   1.603   0.913
85005SOL     OW56911   7.317   2.563   2.335
85005SOL    HW156912   7.277   2.478   2.352
85005SOL    HW256913   7.408   2.543   2.313
85006SOL     OW56914   6.785  11.827   7.038
85006SOL    HW156915   6.758  11.796   6.952
85006SOL    HW256916   6.878  11.806   7.043
85007SOL     OW56917   7.213   7.698   2.287
85007SOL    HW156918   7.268   7.740   2.354
85007SOL    HW256919   7.275   7.650   2.232
85008SOL     OW56920   7.662  14.339   3.239
85008SOL    HW156921   7.612  14.363   3.160
85008SOL    HW256922   7.615  14.381   3.311
85009SOL     OW56923   5.275   5.665   9.416
85009SOL    HW156924   5.286   5.672   9.511
85009SOL    HW256925   5.182   5.644   9.404
85010SOL     OW56926   0.268   9.040   2.241
85010SOL    HW156927   0.303   8.970   2.186
85010SOL    HW256928   0.294   9.121   2.196
85011SOL     OW56929   2.893   1.495   3.921
85011SOL    HW156930   2.827   1.549   3.879
85011SOL    HW256931   2.938   1.450   3.849
85012SOL     OW56932   0.637  12.393   4.261
85012SOL    HW156933   0.704  12.414   4.196
85012SOL    HW256934   0.654  12.453   4.333
85013SOL     OW56935  10.586  11.112   8.730
85013SOL    HW156936  10.613  11.052   8.800
85013SOL    HW256937  10.636  11.083   8.654
85014SOL     OW56938   7.985   2.017   6.558
85014SOL    HW156939   8.072   2.046   6.584
85014SOL    HW256940   7.985   1.923   6.576
85015SOL     OW56941  12.400   2.018   5.470
85015SOL    HW156942  12.316   1.992   5.508
85015SOL    HW256943  12.385   2.016   5.375
85016SOL     OW56944   4.534  14.594  11.861
85016SOL    HW156945   4.440  14.614  11.867
85016SOL    HW256946   4.569  14.659  11.801
85017SOL     OW56947   5.649   1.207   4.216
85017SOL    HW156948   5.729   1.171   4.178
85017SOL    HW256949   5.665   1.206   4.311
85018SOL     OW56950   1.449   1.829   6.297
85018SOL    HW156951   1.383   1.858   6.360
85018SOL    HW256952   1.477   1.743   6.328
85019SOL     OW56953   9.894   4.506  11.908
85019SOL    HW156954   9.900   4.598  11.934
85019SOL    HW256955   9.977   4.489  11.863
85020SOL     OW56956   4.798   0.000  10.426
85020SOL    HW156957   4.816  14.849  10.517
85020SOL    HW256958   4.770  14.789  10.386
85021SOL     OW56959  10.553  13.608   9.365
85021SOL    HW156960  10.527  13.569   9.281
85021SOL    HW256961  10.629  13.557   9.393
85022SOL     OW56962   1.489   2.152  13.586
85022SOL    HW156963   1.442   2.223  13.630
85022SOL    HW256964   1.532   2.194  13.512
85023SOL     OW56965   0.634   2.133  12.675
85023SOL    HW156966   0.689   2.069  12.722
85023SOL    HW256967   0.609   2.196  12.743
85024SOL     OW56968  11.650   2.266  11.038
85024SOL    HW156969  11.740   2.291  11.017
85024SOL    HW256970  11.614   2.341  11.086
85025SOL     OW56971   3.678   0.124  12.928
85025SOL    HW156972   3.597   0.150  12.885
85025SOL    HW256973   3.748   0.160  12.873
85026SOL     OW56974  10.135   8.747   8.947
85026SOL    HW156975  10.154   8.838   8.966
85026SOL    HW256976  10.039   8.744   8.938
85027SOL     OW56977   9.430   1.869   5.277
85027SOL    HW156978   9.510   1.817   5.287
85027SOL    HW256979   9.420   1.912   5.362
85028SOL     OW56980  11.945   0.727   0.147
85028SOL    HW156981  11.914   0.652   0.096
85028SOL    HW256982  11.867   0.782   0.158
85029SOL     OW56983   5.097   1.645  10.649
85029SOL    HW156984   5.174   1.699  10.632
85029SOL    HW256985   5.084   1.650  10.744
85030SOL     OW56986   9.685   2.844   0.315
85030SOL    HW156987   9.736   2.767   0.289
85030SOL    HW256988   9.663   2.828   0.406
85031SOL     OW56989  14.468  13.185   7.458
85031SOL    HW156990  14.425  13.178   7.543
85031SOL    HW256991  14.549  13.232   7.477
85032SOL     OW56992   7.288   3.321   2.392
85032SOL    HW156993   7.299   3.311   2.297
85032SOL    HW256994   7.270   3.232   2.423
85033SOL     OW56995  11.181   3.821   5.988
85033SOL    HW156996  11.187   3.890   6.054
85033SOL    HW256997  11.171   3.868   5.905
85034SOL     OW56998  13.010   2.681  12.207
85034SOL    HW156999  12.921   2.665  12.178
85034SOL    HW257000  13.054   2.596  12.198
85035SOL     OW57001  14.132  10.865  12.308
85035SOL    HW157002  14.087  10.888  12.389
85035SOL    HW257003  14.066  10.821  12.255
85036SOL     OW57004  10.810   6.378   6.255
85036SOL    HW157005  10.887   6.370   6.312
85036SOL    HW257006  10.809   6.296   6.206
85037SOL     OW57007   9.557  12.607   6.420
85037SOL    HW157008   9.557  12.691   6.466
85037SOL    HW257009   9.484  12.559   6.459
85038SOL     OW57010  11.567   2.079   6.977
85038SOL    HW157011  11.516   2.135   7.036
85038SOL    HW257012  11.658   2.096   7.001
85039SOL     OW57013  14.215   2.936   3.722
85039SOL    HW157014  14.157   2.963   3.651
85039SOL    HW257015  14.292   2.900   3.678
85040SOL     OW57016   8.940   1.416  12.984
85040SOL    HW157017   8.846   1.400  12.989
85040SOL    HW257018   8.967   1.433  13.074
85041SOL     OW57019  11.461  12.214   1.230
85041SOL    HW157020  11.493  12.230   1.141
85041SOL    HW257021  11.499  12.285   1.282
85042SOL     OW57022   0.011   2.913  12.885
85042SOL    HW157023  14.840   2.998  12.897
85042SOL    HW257024  14.868   2.891  12.793
85043SOL     OW57025  10.338  12.568   2.210
85043SOL    HW157026  10.422  12.536   2.244
85043SOL    HW257027  10.306  12.496   2.155
85044SOL     OW57028  13.260   6.029   0.937
85044SOL    HW157029  13.167   6.034   0.959
85044SOL    HW257030  13.262   6.022   0.842
85045SOL     OW57031   7.798  12.052  11.220
85045SOL    HW157032   7.889  12.032  11.242
85045SOL    HW257033   7.750  12.037  11.302
85046SOL     OW57034   0.436   8.885   8.070
85046SOL    HW157035   0.485   8.949   8.017
85046SOL    HW257036   0.427   8.928   8.155
85047SOL     OW57037   1.215  11.486   2.050
85047SOL    HW157038   1.209  11.497   2.145
85047SOL    HW257039   1.263  11.404   2.039
85048SOL     OW57040  10.855   7.282   2.019
85048SOL    HW157041  10.883   7.359   1.968
85048SOL    HW257042  10.935   7.253   2.064
85049SOL     OW57043   7.292   5.930  10.253
85049SOL    HW157044   7.387   5.923  10.262
85049SOL    HW257045   7.258   5.911  10.340
85050SOL     OW57046  13.487   1.144   5.847
85050SOL    HW157047  13.418   1.077   5.853
85050SOL    HW257048  13.480   1.193   5.929
85051SOL     OW57049   7.209   3.871   6.584
85051SOL    HW157050   7.217   3.841   6.675
85051SOL    HW257051   7.255   3.805   6.532
85052SOL     OW57052   8.060  11.146   2.036
85052SOL    HW157053   8.073  11.062   1.992
85052SOL    HW257054   8.005  11.125   2.112
85053SOL     OW57055   2.984   8.655  13.214
85053SOL    HW157056   2.954   8.577  13.168
85053SOL    HW257057   3.067   8.678  13.172
85054SOL     OW57058  12.958   0.812   4.888
85054SOL    HW157059  12.969   0.738   4.947
85054SOL    HW257060  12.927   0.774   4.806
85055SOL     OW57061   1.388   3.191   4.989
85055SOL    HW157062   1.469   3.234   4.962
85055SOL    HW257063   1.328   3.204   4.915
85056SOL     OW57064   8.622   8.364   2.763
85056SOL    HW157065   8.562   8.433   2.734
85056SOL    HW257066   8.575   8.319   2.832
85057SOL     OW57067  12.569   0.033  12.355
85057SOL    HW157068  12.604   0.103  12.299
85057SOL    HW257069  12.493   0.072  12.398
85058SOL     OW57070   5.542   0.860  10.201
85058SOL    HW157071   5.506   0.916  10.133
85058SOL    HW257072   5.491   0.880  10.279
85059SOL     OW57073   2.632   8.868   3.227
85059SOL    HW157074   2.726   8.884   3.238
85059SOL    HW257075   2.590   8.946   3.265
85060SOL     OW57076  11.657  13.899  14.647
85060SOL    HW157077  11.563  13.915  14.652
85060SOL    HW257078  11.665  13.804  14.642
85061SOL     OW57079  14.764   6.595   2.273
85061SOL    HW157080  14.836   6.555   2.322
85061SOL    HW257081  14.713   6.521   2.240
85062SOL     OW57082  14.671   9.206  13.793
85062SOL    HW157083  14.646   9.150  13.866
85062SOL    HW257084  14.603   9.193  13.727
85063SOL     OW57085   0.096   3.608  11.476
85063SOL    HW157086   0.182   3.614  11.435
85063SOL    HW257087   0.059   3.526  11.442
85064SOL     OW57088  14.008   1.493   9.589
85064SOL    HW157089  13.969   1.462   9.507
85064SOL    HW257090  13.955   1.569   9.614
85065SOL     OW57091   8.910  12.204   0.403
85065SOL    HW157092   8.830  12.229   0.358
85065SOL    HW257093   8.978  12.212   0.337
85066SOL     OW57094   5.399   4.462   7.463
85066SOL    HW157095   5.481   4.510   7.451
85066SOL    HW257096   5.349   4.514   7.525
85067SOL     OW57097   0.612  14.014   6.954
85067SOL    HW157098   0.549  13.977   6.892
85067SOL    HW257099   0.623  14.105   6.926
85068SOL     OW57100  11.816   0.145   0.119
85068SOL    HW157101  11.734   0.193   0.107
85068SOL    HW257102  11.852   0.179   0.201
85069SOL     OW57103   1.828   0.739   0.794
85069SOL    HW157104   1.875   0.792   0.731
85069SOL    HW257105   1.755   0.702   0.745
85070SOL     OW57106   1.012  11.853   1.012
85070SOL    HW157107   1.089  11.812   1.051
85070SOL    HW257108   1.031  11.854   0.918
85071SOL     OW57109  13.955  14.791   8.647
85071SOL    HW157110  13.943  14.702   8.682
85071SOL    HW257111  13.876  14.807   8.596
85072SOL     OW57112   3.205  11.204  10.903
85072SOL    HW157113   3.184  11.111  10.896
85072SOL    HW257114   3.240  11.214  10.992
85073SOL     OW57115  11.635   9.534   6.994
85073SOL    HW157116  11.716   9.492   7.024
85073SOL    HW257117  11.569   9.465   6.997
85074SOL     OW57118   2.559   8.818   7.095
85074SOL    HW157119   2.632   8.801   7.035
85074SOL    HW257120   2.580   8.767   7.173
85075SOL     OW57121  10.843   1.536   9.495
85075SOL    HW157122  10.881   1.490   9.570
85075SOL    HW257123  10.870   1.483   9.419
85076SOL     OW57124   9.813   7.390   3.791
85076SOL    HW157125   9.737   7.411   3.845
85076SOL    HW257126   9.779   7.332   3.722
85077SOL     OW57127   8.695  13.044   8.609
85077SOL    HW157128   8.775  13.055   8.558
85077SOL    HW257129   8.721  13.065   8.699
85078SOL     OW57130   4.975  11.250   8.012
85078SOL    HW157131   5.029  11.201   7.950
85078SOL    HW257132   4.932  11.317   7.959
85079SOL     OW57133  11.699   9.763   4.487
85079SOL    HW157134  11.751   9.794   4.561
85079SOL    HW257135  11.618   9.815   4.491
85080SOL     OW57136   8.249   8.678  10.756
85080SOL    HW157137   8.193   8.673  10.834
85080SOL    HW257138   8.282   8.589  10.744
85081SOL     OW57139   1.403   6.937   6.441
85081SOL    HW157140   1.461   6.988   6.384
85081SOL    HW257141   1.320   6.932   6.392
85082SOL     OW57142   1.856   5.165   3.469
85082SOL    HW157143   1.946   5.166   3.435
85082SOL    HW257144   1.863   5.202   3.556
85083SOL     OW57145  11.753   8.275   2.471
85083SOL    HW157146  11.672   8.325   2.482
85083SOL    HW257147  11.802   8.292   2.552
85084SOL     OW57148  11.595   7.537   3.770
85084SOL    HW157149  11.630   7.622   3.742
85084SOL    HW257150  11.505   7.536   3.737
85085SOL     OW57151   4.566  13.291   3.036
85085SOL    HW157152   4.496  13.312   2.974
85085SOL    HW257153   4.563  13.362   3.100
85086SOL     OW57154  13.148  12.747   3.697
85086SOL    HW157155  13.184  12.673   3.648
85086SOL    HW257156  13.053  12.731   3.697
85087SOL     OW57157   5.605   1.957   3.255
85087SOL    HW157158   5.550   1.892   3.212
85087SOL    HW257159   5.688   1.913   3.271
85088SOL     OW57160   6.490   7.680   4.435
85088SOL    HW157161   6.576   7.646   4.459
85088SOL    HW257162   6.498   7.704   4.343
85089SOL     OW57163   7.417   6.529   1.539
85089SOL    HW157164   7.420   6.465   1.468
85089SOL    HW257165   7.479   6.495   1.604
85090SOL     OW57166   7.352   7.010   0.925
85090SOL    HW157167   7.279   7.058   0.964
85090SOL    HW257168   7.393   6.964   0.998
85091SOL     OW57169  13.470  14.767   5.714
85091SOL    HW157170  13.417  14.844   5.735
85091SOL    HW257171  13.551  14.779   5.764
85092SOL     OW57172  14.560   4.625  13.876
85092SOL    HW157173  14.590   4.663  13.793
85092SOL    HW257174  14.468   4.607  13.862
85093SOL     OW57175  14.360   9.606   9.325
85093SOL    HW157176  14.281   9.636   9.280
85093SOL    HW257177  14.404   9.686   9.353
85094SOL     OW57178   2.897   4.290   9.753
85094SOL    HW157179   2.806   4.263   9.763
85094SOL    HW257180   2.917   4.275   9.660
85095SOL     OW57181   8.749   9.959  11.781
85095SOL    HW157182   8.844   9.969  11.782
85095SOL    HW257183   8.718  10.018  11.850
85096SOL     OW57184   3.432   0.682   5.315
85096SOL    HW157185   3.496   0.630   5.364
85096SOL    HW257186   3.365   0.618   5.290
85097SOL     OW57187  12.219   2.468   4.670
85097SOL    HW157188  12.151   2.465   4.737
85097SOL    HW257189  12.301   2.461   4.719
85098SOL     OW57190   1.242   6.015   8.295
85098SOL    HW157191   1.148   6.013   8.314
85098SOL    HW257192   1.280   6.063   8.369
85099SOL     OW57193  12.955   0.590   8.770
85099SOL    HW157194  12.904   0.672   8.768
85099SOL    HW257195  13.034   0.610   8.720
85100SOL     OW57196  13.403  10.861   0.769
85100SOL    HW157197  13.474  10.895   0.823
85100SOL    HW257198  13.323  10.888   0.814
85101SOL     OW57199  12.783   0.623   1.749
85101SOL    HW157200  12.841   0.629   1.825
85101SOL    HW257201  12.700   0.592   1.784
85102SOL     OW57202  10.313   4.500  12.021
85102SOL    HW157203  10.248   4.435  11.997
85102SOL    HW257204  10.338   4.477  12.111
85103SOL     OW57205   2.099   7.884   2.373
85103SOL    HW157206   2.122   7.977   2.375
85103SOL    HW257207   2.009   7.883   2.340
85104SOL     OW57208   7.588   5.793  14.684
85104SOL    HW157209   7.639   5.748  14.617
85104SOL    HW257210   7.629   5.767  14.767
85105SOL     OW57211   7.047   4.636   5.676
85105SOL    HW157212   7.095   4.687   5.611
85105SOL    HW257213   6.956   4.663   5.666
85106SOL     OW57214   0.881  12.193   0.228
85106SOL    HW157215   0.845  12.278   0.254
85106SOL    HW257216   0.916  12.157   0.309
85107SOL     OW57217   2.124   3.793   0.585
85107SOL    HW157218   2.062   3.793   0.513
85107SOL    HW257219   2.091   3.858   0.646
85108SOL     OW57220  10.749   0.585  11.209
85108SOL    HW157221  10.842   0.565  11.205
85108SOL    HW257222  10.738   0.665  11.158
85109SOL     OW57223   1.873   6.559  13.777
85109SOL    HW157224   1.806   6.621  13.807
85109SOL    HW257225   1.943   6.567  13.842
85110SOL     OW57226   5.960  14.267   8.935
85110SOL    HW157227   5.964  14.193   8.874
85110SOL    HW257228   5.885  14.249   8.991
85111SOL     OW57229  13.266  11.964   3.377
85111SOL    HW157230  13.308  11.976   3.462
85111SOL    HW257231  13.322  11.902   3.330
85112SOL     OW57232   6.035   8.367  13.542
85112SOL    HW157233   5.972   8.312  13.589
85112SOL    HW257234   6.019   8.455  13.577
85113SOL     OW57235   5.347  10.294   7.284
85113SOL    HW157236   5.408  10.363   7.261
85113SOL    HW257237   5.388  10.248   7.357
85114SOL     OW57238  11.384  11.328   7.998
85114SOL    HW157239  11.374  11.337   7.903
85114SOL    HW257240  11.368  11.417   8.032
85115SOL     OW57241  12.664  12.414   7.880
85115SOL    HW157242  12.752  12.446   7.861
85115SOL    HW257243  12.675  12.320   7.894
85116SOL     OW57244  14.621   5.915   4.484
85116SOL    HW157245  14.616   5.974   4.559
85116SOL    HW257246  14.706   5.872   4.492
85117SOL     OW57247   7.181  10.922   9.028
85117SOL    HW157248   7.229  10.977   9.091
85117SOL    HW257249   7.090  10.950   9.037
85118SOL     OW57250  13.746  12.934   1.710
85118SOL    HW157251  13.671  12.988   1.682
85118SOL    HW257252  13.715  12.844   1.703
85119SOL     OW57253   6.720   5.844   9.960
85119SOL    HW157254   6.675   5.805  10.035
85119SOL    HW257255   6.699   5.785   9.887
85120SOL     OW57256   3.351   8.825  11.819
85120SOL    HW157257   3.347   8.919  11.835
85120SOL    HW257258   3.420   8.815  11.753
85121SOL     OW57259   7.358   5.786  11.398
85121SOL    HW157260   7.422   5.787  11.326
85121SOL    HW257261   7.371   5.702  11.441
85122SOL     OW57262   5.382  13.235   2.123
85122SOL    HW157263   5.306  13.279   2.159
85122SOL    HW257264   5.352  13.199   2.040
85123SOL     OW57265   0.307   8.058   7.827
85123SOL    HW157266   0.218   8.074   7.858
85123SOL    HW257267   0.327   8.134   7.773
85124SOL     OW57268   5.312  10.997   0.374
85124SOL    HW157269   5.402  10.966   0.383
85124SOL    HW257270   5.279  11.002   0.464
85125SOL     OW57271   6.239   8.484   1.030
85125SOL    HW157272   6.163   8.448   1.075
85125SOL    HW257273   6.287   8.407   0.999
85126SOL     OW57274   4.007  10.926   8.064
85126SOL    HW157275   4.014  10.852   8.124
85126SOL    HW257276   3.945  10.985   8.107
85127SOL     OW57277   7.577   6.001   6.904
85127SOL    HW157278   7.530   6.051   6.837
85127SOL    HW257279   7.537   5.914   6.900
85128SOL     OW57280   1.504  13.542   2.071
85128SOL    HW157281   1.462  13.457   2.059
85128SOL    HW257282   1.529  13.569   1.982
85129SOL     OW57283   1.174   2.081   6.831
85129SOL    HW157284   1.264   2.102   6.804
85129SOL    HW257285   1.137   2.033   6.757
85130SOL     OW57286  12.227   0.227   3.416
85130SOL    HW157287  12.272   0.160   3.467
85130SOL    HW257288  12.186   0.283   3.482
85131SOL     OW57289   3.231  11.528   3.022
85131SOL    HW157290   3.280  11.540   2.941
85131SOL    HW257291   3.299  11.521   3.090
85132SOL     OW57292   1.906   1.975   8.724
85132SOL    HW157293   1.830   1.919   8.735
85132SOL    HW257294   1.944   1.947   8.640
85133SOL     OW57295  11.250   6.360   6.936
85133SOL    HW157296  11.336   6.381   6.974
85133SOL    HW257297  11.260   6.271   6.902
85134SOL     OW57298  10.991   2.793  14.340
85134SOL    HW157299  11.031   2.707  14.346
85134SOL    HW257300  10.897   2.776  14.343
85135SOL     OW57301   0.333  13.737   8.725
85135SOL    HW157302   0.386  13.817   8.732
85135SOL    HW257303   0.246  13.768   8.700
85136SOL     OW57304  14.217  11.732   4.787
85136SOL    HW157305  14.229  11.706   4.879
85136SOL    HW257306  14.226  11.650   4.738
85137SOL     OW57307   8.942  14.033  14.726
85137SOL    HW157308   8.985  14.000  14.647
85137SOL    HW257309   9.011  14.034  14.792
85138SOL     OW57310  12.848  13.252   1.717
85138SOL    HW157311  12.929  13.295   1.744
85138SOL    HW257312  12.802  13.233   1.798
85139SOL     OW57313  13.568   6.658  10.511
85139SOL    HW157314  13.640   6.672  10.573
85139SOL    HW257315  13.575   6.565  10.488
85140SOL     OW57316   4.353   7.489   9.609
85140SOL    HW157317   4.387   7.578   9.616
85140SOL    HW257318   4.376   7.448   9.692
85141SOL     OW57319   4.697   2.076   9.432
85141SOL    HW157320   4.700   2.003   9.494
85141SOL    HW257321   4.715   2.154   9.485
85142SOL     OW57322   3.478  10.878   0.530
85142SOL    HW157323   3.447  10.792   0.502
85142SOL    HW257324   3.504  10.866   0.621
85143SOL     OW57325   4.708  10.137   2.283
85143SOL    HW157326   4.714  10.152   2.189
85143SOL    HW257327   4.756  10.210   2.322
85144SOL     OW57328   7.860   1.710  12.185
85144SOL    HW157329   7.856   1.647  12.112
85144SOL    HW257330   7.943   1.756  12.173
85145SOL     OW57331   8.366  14.197   0.376
85145SOL    HW157332   8.284  14.200   0.425
85145SOL    HW257333   8.418  14.269   0.412
85146SOL     OW57334  10.191  10.681  10.297
85146SOL    HW157335  10.189  10.644  10.208
85146SOL    HW257336  10.101  10.672  10.328
85147SOL     OW57337   1.750   2.493  12.171
85147SOL    HW157338   1.758   2.410  12.125
85147SOL    HW257339   1.665   2.488  12.216
85148SOL     OW57340   7.661   3.747   0.182
85148SOL    HW157341   7.697   3.733   0.095
85148SOL    HW257342   7.571   3.777   0.167
85149SOL     OW57343   4.373  12.498  13.129
85149SOL    HW157344   4.442  12.478  13.192
85149SOL    HW257345   4.411  12.475  13.044
85150SOL     OW57346  14.379   0.358   9.343
85150SOL    HW157347  14.355   0.401   9.261
85150SOL    HW257348  14.425   0.425   9.393
85151SOL     OW57349  13.011   5.976   3.598
85151SOL    HW157350  12.929   5.985   3.550
85151SOL    HW257351  13.057   6.059   3.581
85152SOL     OW57352   8.111   4.237   5.995
85152SOL    HW157353   8.020   4.214   5.975
85152SOL    HW257354   8.139   4.172   6.059
85153SOL     OW57355  11.301   8.012   9.745
85153SOL    HW157356  11.242   8.035   9.673
85153SOL    HW257357  11.333   7.924   9.722
85154SOL     OW57358   7.208  11.147   4.781
85154SOL    HW157359   7.175  11.110   4.863
85154SOL    HW257360   7.174  11.089   4.713
85155SOL     OW57361  10.379  14.268   3.317
85155SOL    HW157362  10.440  14.341   3.311
85155SOL    HW257363  10.293  14.308   3.314
85156SOL     OW57364   9.068  13.235   4.901
85156SOL    HW157365   8.993  13.269   4.853
85156SOL    HW257366   9.144  13.256   4.846
85157SOL     OW57367  13.476   4.758   2.902
85157SOL    HW157368  13.541   4.714   2.846
85157SOL    HW257369  13.411   4.791   2.841
85158SOL     OW57370   4.882   7.259   1.816
85158SOL    HW157371   4.934   7.302   1.884
85158SOL    HW257372   4.890   7.316   1.740
85159SOL     OW57373  13.170  11.360   0.978
85159SOL    HW157374  13.228  11.364   0.902
85159SOL    HW257375  13.149  11.452   0.996
85160SOL     OW57376  11.328   6.025  14.694
85160SOL    HW157377  11.347   5.938  14.660
85160SOL    HW257378  11.272   6.065  14.628
85161SOL     OW57379   7.441  10.412  14.139
85161SOL    HW157380   7.465  10.353  14.068
85161SOL    HW257381   7.390  10.481  14.098
85162SOL     OW57382  12.224  10.002  14.068
85162SOL    HW157383  12.274   9.923  14.088
85162SOL    HW257384  12.133   9.974  14.073
85163SOL     OW57385  13.453   9.492   9.132
85163SOL    HW157386  13.372   9.540   9.117
85163SOL    HW257387  13.427   9.413   9.179
85164SOL     OW57388   1.872   5.884   6.074
85164SOL    HW157389   1.864   5.802   6.026
85164SOL    HW257390   1.965   5.905   6.070
85165SOL     OW57391   3.271  11.463   0.191
85165SOL    HW157392   3.228  11.525   0.132
85165SOL    HW257393   3.364  11.482   0.182
85166SOL     OW57394  13.743   9.733  13.727
85166SOL    HW157395  13.690   9.759  13.803
85166SOL    HW257396  13.690   9.667  13.682
85167SOL     OW57397   2.685   6.428   4.589
85167SOL    HW157398   2.638   6.428   4.505
85167SOL    HW257399   2.655   6.507   4.633
85168SOL     OW57400   3.256   3.607  12.146
85168SOL    HW157401   3.246   3.702  12.142
85168SOL    HW257402   3.166   3.574  12.149
85169SOL     OW57403  12.947   4.004  11.509
85169SOL    HW157404  12.883   4.069  11.538
85169SOL    HW257405  12.894   3.933  11.473
85170SOL     OW57406  13.325  12.539   1.782
85170SOL    HW157407  13.357  12.495   1.703
85170SOL    HW257408  13.338  12.632   1.764
85171SOL     OW57409   9.670   7.152  11.434
85171SOL    HW157410   9.634   7.231  11.393
85171SOL    HW257411   9.698   7.182  11.521
85172SOL     OW57412   1.136   2.228   2.348
85172SOL    HW157413   1.102   2.241   2.436
85172SOL    HW257414   1.060   2.237   2.291
85173SOL     OW57415  10.762   9.812   7.349
85173SOL    HW157416  10.802   9.797   7.263
85173SOL    HW257417  10.771   9.727   7.394
85174SOL     OW57418   6.823   7.922   2.201
85174SOL    HW157419   6.809   7.881   2.286
85174SOL    HW257420   6.738   7.916   2.157
85175SOL     OW57421   2.845   3.561   5.373
85175SOL    HW157422   2.760   3.556   5.329
85175SOL    HW257423   2.900   3.499   5.324
85176SOL     OW57424   7.323   9.980   0.885
85176SOL    HW157425   7.373  10.038   0.943
85176SOL    HW257426   7.233   9.987   0.918
85177SOL     OW57427   0.254  14.341  11.318
85177SOL    HW157428   0.315  14.364  11.248
85177SOL    HW257429   0.206  14.421  11.337
85178SOL     OW57430   0.143  11.770  14.824
85178SOL    HW157431   0.227  11.806  14.854
85178SOL    HW257432   0.112  11.834  14.760
85179SOL     OW57433   6.454   7.812   1.121
85179SOL    HW157434   6.492   7.821   1.208
85179SOL    HW257435   6.390   7.741   1.129
85180SOL     OW57436   5.404   3.018  12.497
85180SOL    HW157437   5.356   3.048  12.420
85180SOL    HW257438   5.412   3.097  12.552
85181SOL     OW57439  13.899   3.614   4.882
85181SOL    HW157440  13.856   3.668   4.948
85181SOL    HW257441  13.961   3.672   4.839
85182SOL     OW57442   6.915   6.070   3.068
85182SOL    HW157443   6.861   6.078   3.147
85182SOL    HW257444   6.872   6.125   3.003
85183SOL     OW57445  11.433   8.077   8.325
85183SOL    HW157446  11.352   8.101   8.370
85183SOL    HW257447  11.437   7.981   8.333
85184SOL     OW57448   8.668   1.038   8.946
85184SOL    HW157449   8.574   1.024   8.941
85184SOL    HW257450   8.698   1.034   8.855
85185SOL     OW57451  10.676   3.356  14.427
85185SOL    HW157452  10.650   3.268  14.455
85185SOL    HW257453  10.657   3.358  14.333
85186SOL     OW57454   9.937   0.688   2.835
85186SOL    HW157455   9.993   0.621   2.874
85186SOL    HW257456   9.911   0.651   2.751
85187SOL     OW57457  14.210   0.504   6.109
85187SOL    HW157458  14.139   0.443   6.130
85187SOL    HW257459  14.167   0.589   6.101
85188SOL     OW57460   7.349   4.517   7.702
85188SOL    HW157461   7.362   4.587   7.767
85188SOL    HW257462   7.285   4.459   7.743
85189SOL     OW57463  11.205  12.119  12.850
85189SOL    HW157464  11.262  12.161  12.786
85189SOL    HW257465  11.204  12.179  12.925
85190SOL     OW57466  14.492   4.128   9.919
85190SOL    HW157467  14.573   4.123   9.970
85190SOL    HW257468  14.507   4.197   9.855
85191SOL     OW57469   8.722  10.479   5.764
85191SOL    HW157470   8.699  10.569   5.740
85191SOL    HW257471   8.811  10.467   5.731
85192SOL     OW57472  10.134   3.842   6.916
85192SOL    HW157473  10.071   3.884   6.858
85192SOL    HW257474  10.116   3.881   7.002
85193SOL     OW57475   6.981  12.427  11.982
85193SOL    HW157476   7.047  12.387  11.925
85193SOL    HW257477   6.898  12.416  11.935
85194SOL     OW57478  11.624   9.206  12.175
85194SOL    HW157479  11.703   9.260  12.172
85194SOL    HW257480  11.613   9.176  12.085
85195SOL     OW57481  14.344   2.369   2.690
85195SOL    HW157482  14.260   2.339   2.655
85195SOL    HW257483  14.408   2.310   2.652
85196SOL     OW57484  12.539  10.356   3.717
85196SOL    HW157485  12.487  10.278   3.737
85196SOL    HW257486  12.500  10.390   3.637
85197SOL     OW57487   7.973  12.852   7.344
85197SOL    HW157488   7.891  12.897   7.364
85197SOL    HW257489   8.021  12.914   7.288
85198SOL     OW57490   8.484   0.142   5.414
85198SOL    HW157491   8.576   0.154   5.388
85198SOL    HW257492   8.480   0.051   5.445
85199SOL     OW57493   2.585   7.164  11.552
85199SOL    HW157494   2.650   7.231  11.573
85199SOL    HW257495   2.535   7.152  11.633
85200SOL     OW57496   2.316   8.445   2.044
85200SOL    HW157497   2.280   8.357   2.058
85200SOL    HW257498   2.380   8.434   1.975
85201SOL     OW57499  12.089  12.407   8.492
85201SOL    HW157500  12.068  12.385   8.401
85201SOL    HW257501  12.184  12.421   8.491
85202SOL     OW57502   1.668   1.314   9.457
85202SOL    HW157503   1.758   1.348   9.457
85202SOL    HW257504   1.642   1.314   9.548
85203SOL     OW57505  13.765   4.247   9.302
85203SOL    HW157506  13.717   4.225   9.222
85203SOL    HW257507  13.828   4.175   9.312
85204SOL     OW57508  13.246  10.420   8.827
85204SOL    HW157509  13.254  10.348   8.889
85204SOL    HW257510  13.152  10.431   8.814
85205SOL     OW57511  13.444   7.166   2.160
85205SOL    HW157512  13.469   7.076   2.139
85205SOL    HW257513  13.447   7.170   2.255
85206SOL     OW57514   7.445   3.905   5.401
85206SOL    HW157515   7.441   3.811   5.417
85206SOL    HW257516   7.385   3.920   5.328
85207SOL     OW57517   3.290   6.991  11.317
85207SOL    HW157518   3.284   7.064  11.378
85207SOL    HW257519   3.296   6.914  11.373
85208SOL     OW57520   4.903  12.396   6.434
85208SOL    HW157521   4.861  12.437   6.510
85208SOL    HW257522   4.839  12.405   6.364
85209SOL     OW57523   8.545   8.067   2.097
85209SOL    HW157524   8.474   8.026   2.145
85209SOL    HW257525   8.503   8.134   2.044
85210SOL     OW57526  14.801  10.560   7.583
85210SOL    HW157527  14.856  10.639   7.577
85210SOL    HW257528  14.743  10.565   7.507
85211SOL     OW57529   4.585   8.539   9.581
85211SOL    HW157530   4.591   8.445   9.563
85211SOL    HW257531   4.582   8.546   9.676
85212SOL     OW57532  10.229   8.890   1.968
85212SOL    HW157533  10.310   8.855   1.931
85212SOL    HW257534  10.168   8.890   1.895
85213SOL     OW57535   6.035   4.046  13.538
85213SOL    HW157536   6.060   4.078  13.451
85213SOL    HW257537   5.991   3.963  13.521
85214SOL     OW57538  10.494  14.586   0.171
85214SOL    HW157539  10.402  14.589   0.144
85214SOL    HW257540  10.539  14.639   0.105
85215SOL     OW57541   3.586   4.962   1.659
85215SOL    HW157542   3.613   5.053   1.662
85215SOL    HW257543   3.615   4.930   1.574
85216SOL     OW57544   5.606   1.975   6.042
85216SOL    HW157545   5.658   1.896   6.051
85216SOL    HW257546   5.619   2.002   5.951
85217SOL     OW57547   1.844   5.297   3.730
85217SOL    HW157548   1.832   5.392   3.718
85217SOL    HW257549   1.916   5.291   3.793
85218SOL     OW57550   8.610   5.344  12.636
85218SOL    HW157551   8.549   5.397  12.584
85218SOL    HW257552   8.591   5.254  12.611
85219SOL     OW57553   3.743  12.616  14.489
85219SOL    HW157554   3.742  12.694  14.434
85219SOL    HW257555   3.735  12.543  14.427
85220SOL     OW57556  13.224   7.695   5.121
85220SOL    HW157557  13.150   7.660   5.072
85220SOL    HW257558  13.212   7.660   5.210
85221SOL     OW57559   4.529  13.682   1.895
85221SOL    HW157560   4.435  13.672   1.909
85221SOL    HW257561   4.558  13.739   1.967
85222SOL     OW57562   6.640  14.862  13.373
85222SOL    HW157563   6.585  14.813  13.434
85222SOL    HW257564   6.723   0.000  13.418
85223SOL     OW57565   4.961  12.634  11.885
85223SOL    HW157566   4.967  12.575  11.960
85223SOL    HW257567   5.031  12.698  11.899
85224SOL     OW57568  12.504  12.622  13.957
85224SOL    HW157569  12.511  12.689  14.025
85224SOL    HW257570  12.595  12.601  13.935
85225SOL     OW57571   9.698   6.823   8.130
85225SOL    HW157572   9.651   6.780   8.058
85225SOL    HW257573   9.642   6.810   8.206
85226SOL     OW57574   2.715   7.812  10.220
85226SOL    HW157575   2.792   7.791  10.167
85226SOL    HW257576   2.740   7.787  10.309
85227SOL     OW57577   2.986   6.369   1.169
85227SOL    HW157578   2.999   6.353   1.263
85227SOL    HW257579   2.907   6.320   1.148
85228SOL     OW57580   7.048  11.408   1.385
85228SOL    HW157581   7.080  11.497   1.396
85228SOL    HW257582   6.952  11.416   1.387
85229SOL     OW57583   1.047  12.918   1.054
85229SOL    HW157584   0.994  12.982   1.102
85229SOL    HW257585   1.134  12.924   1.094
85230SOL     OW57586   7.920  13.114   2.034
85230SOL    HW157587   7.872  13.116   1.951
85230SOL    HW257588   7.894  13.194   2.079
85231SOL     OW57589   6.685   2.631   0.462
85231SOL    HW157590   6.597   2.598   0.444
85231SOL    HW257591   6.713   2.672   0.380
85232SOL     OW57592   1.998  10.535   8.570
85232SOL    HW157593   2.009  10.611   8.512
85232SOL    HW257594   2.076  10.482   8.556
85233SOL     OW57595   4.091   0.470   6.452
85233SOL    HW157596   4.089   0.388   6.403
85233SOL    HW257597   4.093   0.443   6.544
85234SOL     OW57598  14.156   5.472  13.186
85234SOL    HW157599  14.160   5.563  13.157
85234SOL    HW257600  14.237   5.433  13.153
85235SOL     OW57601   5.166  13.428   7.073
85235SOL    HW157602   5.203  13.516   7.079
85235SOL    HW257603   5.219  13.384   7.006
85236SOL     OW57604   4.365   3.584   3.887
85236SOL    HW157605   4.331   3.505   3.845
85236SOL    HW257606   4.323   3.586   3.973
85237SOL     OW57607  13.728  12.632   8.029
85237SOL    HW157608  13.725  12.727   8.015
85237SOL    HW257609  13.802  12.619   8.088
85238SOL     OW57610  13.525  13.765   8.972
85238SOL    HW157611  13.486  13.698   9.029
85238SOL    HW257612  13.544  13.720   8.890
85239SOL     OW57613  12.072   1.929   7.931
85239SOL    HW157614  12.079   1.922   8.026
85239SOL    HW257615  12.022   1.851   7.905
85240SOL     OW57616   4.507  12.871  14.281
85240SOL    HW157617   4.560  12.851  14.358
85240SOL    HW257618   4.550  12.824  14.210
85241SOL     OW57619   0.553  13.996   2.479
85241SOL    HW157620   0.603  13.917   2.500
85241SOL    HW257621   0.585  14.062   2.541
85242SOL     OW57622   6.357   9.225  12.848
85242SOL    HW157623   6.287   9.263  12.794
85242SOL    HW257624   6.320   9.222  12.936
85243SOL     OW57625   3.060   1.362   5.487
85243SOL    HW157626   3.003   1.291   5.459
85243SOL    HW257627   3.102   1.330   5.567
85244SOL     OW57628   2.742   0.010  13.916
85244SOL    HW157629   2.825   0.039  13.954
85244SOL    HW257630   2.682   0.002  13.991
85245SOL     OW57631   4.919  13.866  10.984
85245SOL    HW157632   4.831  13.856  10.948
85245SOL    HW257633   4.977  13.862  10.908
85246SOL     OW57634   8.779  12.793  14.113
85246SOL    HW157635   8.707  12.781  14.052
85246SOL    HW257636   8.774  12.885  14.140
85247SOL     OW57637  13.596  11.492   8.678
85247SOL    HW157638  13.613  11.398   8.673
85247SOL    HW257639  13.618  11.515   8.769
85248SOL     OW57640  12.292  12.005  12.998
85248SOL    HW157641  12.339  12.037  13.075
85248SOL    HW257642  12.332  12.053  12.925
85249SOL     OW57643   4.002   5.298  11.503
85249SOL    HW157644   4.075   5.238  11.520
85249SOL    HW257645   4.036   5.359  11.438
85250SOL     OW57646   7.172  14.665   8.653
85250SOL    HW157647   7.228  14.732   8.692
85250SOL    HW257648   7.207  14.653   8.565
85251SOL     OW57649   5.711  14.433   0.948
85251SOL    HW157650   5.690  14.489   1.023
85251SOL    HW257651   5.689  14.486   0.872
85252SOL     OW57652   4.334   6.762   7.788
85252SOL    HW157653   4.259   6.703   7.791
85252SOL    HW257654   4.303   6.838   7.739
85253SOL     OW57655  14.372  14.104   1.146
85253SOL    HW157656  14.364  14.023   1.096
85253SOL    HW257657  14.420  14.164   1.087
85254SOL     OW57658   0.241   7.253   9.930
85254SOL    HW157659   0.250   7.158   9.921
85254SOL    HW257660   0.321   7.281   9.974
85255SOL     OW57661   6.531  11.699  10.250
85255SOL    HW157662   6.529  11.715  10.156
85255SOL    HW257663   6.460  11.637  10.266
85256SOL     OW57664  13.615  13.034   5.672
85256SOL    HW157665  13.693  13.059   5.722
85256SOL    HW257666  13.634  13.064   5.583
85257SOL     OW57667  11.307   2.591   4.812
85257SOL    HW157668  11.366   2.665   4.801
85257SOL    HW257669  11.332   2.528   4.744
85258SOL     OW57670  13.324   8.021  13.491
85258SOL    HW157671  13.365   8.008  13.406
85258SOL    HW257672  13.388   8.071  13.541
85259SOL     OW57673   2.414  10.377   3.459
85259SOL    HW157674   2.358  10.343   3.389
85259SOL    HW257675   2.408  10.311   3.528
85260SOL     OW57676  10.962  11.503  12.454
85260SOL    HW157677  10.990  11.513  12.363
85260SOL    HW257678  10.925  11.589  12.477
85261SOL     OW57679  10.656   7.224   0.909
85261SOL    HW157680  10.653   7.149   0.970
85261SOL    HW257681  10.750   7.243   0.901
85262SOL     OW57682   6.076  14.046  13.522
85262SOL    HW157683   6.129  14.007  13.592
85262SOL    HW257684   5.990  14.006  13.532
85263SOL     OW57685   2.163   1.335  11.211
85263SOL    HW157686   2.252   1.302  11.208
85263SOL    HW257687   2.149   1.359  11.303
85264SOL     OW57688   2.371   8.793  11.638
85264SOL    HW157689   2.306   8.838  11.583
85264SOL    HW257690   2.339   8.703  11.644
85265SOL     OW57691   5.031   8.861   5.006
85265SOL    HW157692   5.116   8.850   4.963
85265SOL    HW257693   4.967   8.853   4.935
85266SOL     OW57694   0.700   2.705  11.164
85266SOL    HW157695   0.608   2.680  11.157
85266SOL    HW257696   0.721   2.743  11.079
85267SOL     OW57697   6.806  11.576   2.451
85267SOL    HW157698   6.852  11.656   2.424
85267SOL    HW257699   6.774  11.538   2.370
85268SOL     OW57700   5.285  11.079  14.057
85268SOL    HW157701   5.381  11.083  14.051
85268SOL    HW257702   5.266  11.101  14.148
85269SOL     OW57703  14.807  10.330   5.445
85269SOL    HW157704  14.826  10.329   5.539
85269SOL    HW257705  14.815  10.422   5.420
85270SOL     OW57706   9.511  11.471   5.782
85270SOL    HW157707   9.517  11.562   5.813
85270SOL    HW257708   9.456  11.428   5.847
85271SOL     OW57709   2.789   2.428   4.022
85271SOL    HW157710   2.870   2.478   4.010
85271SOL    HW257711   2.766   2.442   4.114
85272SOL     OW57712   8.779   8.384   9.407
85272SOL    HW157713   8.873   8.375   9.395
85272SOL    HW257714   8.769   8.418   9.496
85273SOL     OW57715   0.104  11.803  12.093
85273SOL    HW157716   0.059  11.868  12.040
85273SOL    HW257717   0.034  11.752  12.134
85274SOL     OW57718   5.493   7.766   5.316
85274SOL    HW157719   5.416   7.709   5.306
85274SOL    HW257720   5.524   7.749   5.405
85275SOL     OW57721   2.614   4.591  13.908
85275SOL    HW157722   2.582   4.679  13.927
85275SOL    HW257723   2.707   4.594  13.927
85276SOL     OW57724  14.011  14.289  11.946
85276SOL    HW157725  13.996  14.374  11.988
85276SOL    HW257726  13.971  14.225  12.005
85277SOL     OW57727  12.376   7.255  12.545
85277SOL    HW157728  12.366   7.348  12.566
85277SOL    HW257729  12.333   7.245  12.460
85278SOL     OW57730  12.357   6.769  13.969
85278SOL    HW157731  12.423   6.834  13.994
85278SOL    HW257732  12.378   6.746  13.879
85279SOL     OW57733  13.384  14.040   5.927
85279SOL    HW157734  13.454  14.041   5.992
85279SOL    HW257735  13.414  14.100   5.859
85280SOL     OW57736   8.302  10.930  13.053
85280SOL    HW157737   8.397  10.942  13.047
85280SOL    HW257738   8.278  10.886  12.972
85281SOL     OW57739   2.110   9.873   6.857
85281SOL    HW157740   2.073   9.961   6.849
85281SOL    HW257741   2.123   9.844   6.767
85282SOL     OW57742  11.853  14.749   5.388
85282SOL    HW157743  11.762  14.777   5.380
85282SOL    HW257744  11.848  14.660   5.423
85283SOL     OW57745   4.924   4.933   2.079
85283SOL    HW157746   4.903   4.954   2.171
85283SOL    HW257747   5.017   4.911   2.080
85284SOL     OW57748   9.009   0.340   4.427
85284SOL    HW157749   9.065   0.417   4.416
85284SOL    HW257750   8.940   0.351   4.362
85285SOL     OW57751   9.357   7.759  14.166
85285SOL    HW157752   9.400   7.843  14.152
85285SOL    HW257753   9.429   7.700  14.190
85286SOL     OW57754   4.235   0.021   8.674
85286SOL    HW157755   4.255  14.820   8.616
85286SOL    HW257756   4.201  14.852   8.753
85287SOL     OW57757   7.884   8.204  12.941
85287SOL    HW157758   7.792   8.180  12.945
85287SOL    HW257759   7.917   8.189  13.030
85288SOL     OW57760   0.104   3.257  11.050
85288SOL    HW157761   0.015   3.231  11.026
85288SOL    HW257762   0.154   3.176  11.049
85289SOL     OW57763   6.395  14.013  11.240
85289SOL    HW157764   6.302  14.028  11.258
85289SOL    HW257765   6.434  14.100  11.238
85290SOL     OW57766   6.260   2.169   6.744
85290SOL    HW157767   6.351   2.198   6.748
85290SOL    HW257768   6.219   2.229   6.681
85291SOL     OW57769  13.048  11.937   8.088
85291SOL    HW157770  13.046  11.856   8.139
85291SOL    HW257771  13.052  11.907   7.997
85292SOL     OW57772   5.354   1.902   1.186
85292SOL    HW157773   5.276   1.949   1.157
85292SOL    HW257774   5.321   1.835   1.245
85293SOL     OW57775  13.809  12.904   0.991
85293SOL    HW157776  13.742  12.972   0.989
85293SOL    HW257777  13.761  12.823   0.973
85294SOL     OW57778  14.478   1.129   9.880
85294SOL    HW157779  14.548   1.132   9.946
85294SOL    HW257780  14.398   1.148   9.928
85295SOL     OW57781   1.800  11.433   7.328
85295SOL    HW157782   1.872  11.392   7.281
85295SOL    HW257783   1.745  11.471   7.259
85296SOL     OW57784  10.366   5.999   6.920
85296SOL    HW157785  10.420   6.048   6.857
85296SOL    HW257786  10.319   5.935   6.867
85297SOL     OW57787  13.137  13.475  12.465
85297SOL    HW157788  13.055  13.467  12.515
85297SOL    HW257789  13.192  13.533  12.518
85298SOL     OW57790  12.429   4.030   5.164
85298SOL    HW157791  12.451   4.077   5.244
85298SOL    HW257792  12.473   3.946   5.172
85299SOL     OW57793   4.573   6.741   7.246
85299SOL    HW157794   4.545   6.716   7.158
85299SOL    HW257795   4.622   6.665   7.278
85300SOL     OW57796   5.801   1.516  10.305
85300SOL    HW157797   5.897   1.525  10.297
85300SOL    HW257798   5.766   1.581  10.244
85301SOL     OW57799   1.721   8.354   1.847
85301SOL    HW157800   1.666   8.385   1.776
85301SOL    HW257801   1.800   8.409   1.843
85302SOL     OW57802   5.056  10.015   4.618
85302SOL    HW157803   4.964   9.998   4.639
85302SOL    HW257804   5.099   9.930   4.624
85303SOL     OW57805  10.003   7.441   6.461
85303SOL    HW157806   9.914   7.433   6.496
85303SOL    HW257807  10.059   7.404   6.530
85304SOL     OW57808   1.819   8.898  10.281
85304SOL    HW157809   1.832   8.947  10.362
85304SOL    HW257810   1.865   8.950  10.215
85305SOL     OW57811   1.548  11.977   9.764
85305SOL    HW157812   1.640  12.002   9.759
85305SOL    HW257813   1.549  11.882   9.777
85306SOL     OW57814  12.824   5.660   0.604
85306SOL    HW157815  12.816   5.602   0.680
85306SOL    HW257816  12.873   5.609   0.540
85307SOL     OW57817   6.747   1.572   9.503
85307SOL    HW157818   6.822   1.518   9.478
85307SOL    HW257819   6.778   1.621   9.579
85308SOL     OW57820  11.295  13.265   7.871
85308SOL    HW157821  11.282  13.258   7.776
85308SOL    HW257822  11.351  13.190   7.893
85309SOL     OW57823   1.869   0.201   1.953
85309SOL    HW157824   1.787   0.227   1.911
85309SOL    HW257825   1.884   0.112   1.922
85310SOL     OW57826  14.031  14.386   8.164
85310SOL    HW157827  14.112  14.338   8.148
85310SOL    HW257828  14.051  14.477   8.142
85311SOL     OW57829   6.004   4.642  12.354
85311SOL    HW157830   6.002   4.702  12.428
85311SOL    HW257831   5.915   4.609  12.347
85312SOL     OW57832   8.742   7.388   7.970
85312SOL    HW157833   8.799   7.313   7.985
85312SOL    HW257834   8.746   7.438   8.052
85313SOL     OW57835   2.510   8.177   3.390
85313SOL    HW157836   2.502   8.222   3.306
85313SOL    HW257837   2.593   8.208   3.426
85314SOL     OW57838   9.040  11.338   0.373
85314SOL    HW157839   9.081  11.391   0.305
85314SOL    HW257840   8.946  11.353   0.362
85315SOL     OW57841   6.251   3.883   6.527
85315SOL    HW157842   6.274   3.969   6.493
85315SOL    HW257843   6.157   3.886   6.541
85316SOL     OW57844   2.819   0.753  12.256
85316SOL    HW157845   2.750   0.810  12.291
85316SOL    HW257846   2.803   0.668  12.296
85317SOL     OW57847   8.348  14.753   0.443
85317SOL    HW157848   8.389  14.781   0.361
85317SOL    HW257849   8.392  14.805   0.511
85318SOL     OW57850   0.750  10.758   8.855
85318SOL    HW157851   0.665  10.801   8.847
85318SOL    HW257852   0.765  10.752   8.950
85319SOL     OW57853   2.158  10.314   4.261
85319SOL    HW157854   2.112  10.382   4.212
85319SOL    HW257855   2.236  10.295   4.208
85320SOL     OW57856   5.585   1.511   9.458
85320SOL    HW157857   5.498   1.507   9.419
85320SOL    HW257858   5.603   1.604   9.468
85321SOL     OW57859   9.695   3.252   9.383
85321SOL    HW157860   9.720   3.307   9.457
85321SOL    HW257861   9.600   3.262   9.377
85322SOL     OW57862   7.183   2.442   3.140
85322SOL    HW157863   7.133   2.504   3.194
85322SOL    HW257864   7.240   2.498   3.087
85323SOL     OW57865   2.741   2.883  13.783
85323SOL    HW157866   2.816   2.888  13.843
85323SOL    HW257867   2.721   2.789  13.779
85324SOL     OW57868  14.544   7.850   2.300
85324SOL    HW157869  14.559   7.792   2.375
85324SOL    HW257870  14.542   7.938   2.338
85325SOL     OW57871  11.219   8.453  10.117
85325SOL    HW157872  11.168   8.374  10.136
85325SOL    HW257873  11.241   8.488  10.204
85326SOL     OW57874   2.406  11.091   8.540
85326SOL    HW157875   2.339  11.119   8.478
85326SOL    HW257876   2.373  11.008   8.575
85327SOL     OW57877   0.308   6.232   2.727
85327SOL    HW157878   0.216   6.257   2.723
85327SOL    HW257879   0.352   6.307   2.768
85328SOL     OW57880   5.913   1.563   3.129
85328SOL    HW157881   6.008   1.554   3.133
85328SOL    HW257882   5.897   1.653   3.159
85329SOL     OW57883  12.638  10.995  11.807
85329SOL    HW157884  12.573  11.063  11.823
85329SOL    HW257885  12.656  10.959  11.894
85330SOL     OW57886  13.909   8.719   8.912
85330SOL    HW157887  13.910   8.803   8.866
85330SOL    HW257888  13.996   8.682   8.898
85331SOL     OW57889   0.429  10.775   9.564
85331SOL    HW157890   0.444  10.690   9.604
85331SOL    HW257891   0.507  10.827   9.588
85332SOL     OW57892   2.395  13.259   8.571
85332SOL    HW157893   2.438  13.345   8.566
85332SOL    HW257894   2.442  13.213   8.640
85333SOL     OW57895   9.378  14.867   1.584
85333SOL    HW157896   9.419  14.816   1.514
85333SOL    HW257897   9.284  14.854   1.571
85334SOL     OW57898   5.578   6.838   2.886
85334SOL    HW157899   5.527   6.757   2.892
85334SOL    HW257900   5.603   6.857   2.976
85335SOL     OW57901   4.791   3.539   9.609
85335SOL    HW157902   4.730   3.484   9.561
85335SOL    HW257903   4.852   3.478   9.650
85336SOL     OW57904   3.497  14.799  12.526
85336SOL    HW157905   3.471  14.818  12.436
85336SOL    HW257906   3.520   0.013  12.563
85337SOL     OW57907   9.035  11.891  13.992
85337SOL    HW157908   9.112  11.935  13.955
85337SOL    HW257909   9.024  11.931  14.078
85338SOL     OW57910   3.281  10.939   8.215
85338SOL    HW157911   3.186  10.926   8.206
85338SOL    HW257912   3.316  10.850   8.226
85339SOL     OW57913   2.977   4.160   2.644
85339SOL    HW157914   2.897   4.148   2.593
85339SOL    HW257915   3.034   4.213   2.588
85340SOL     OW57916  12.296  14.660   8.824
85340SOL    HW157917  12.362  14.705   8.877
85340SOL    HW257918  12.232  14.727   8.802
85341SOL     OW57919   7.741  14.707   4.258
85341SOL    HW157920   7.807  14.683   4.322
85341SOL    HW257921   7.666  14.652   4.278
85342SOL     OW57922  13.891   1.812   5.214
85342SOL    HW157923  13.968   1.774   5.256
85342SOL    HW257924  13.924   1.850   5.133
85343SOL     OW57925  13.605   9.825  14.824
85343SOL    HW157926  13.676   9.761  14.830
85343SOL    HW257927  13.562   9.822   0.038
85344SOL     OW57928   8.564   1.790  10.281
85344SOL    HW157929   8.622   1.830  10.345
85344SOL    HW257930   8.528   1.713  10.326
85345SOL     OW57931  11.365  14.378  11.632
85345SOL    HW157932  11.299  14.428  11.679
85345SOL    HW257933  11.316  14.312  11.583
85346SOL     OW57934   3.170   4.171  10.232
85346SOL    HW157935   3.244   4.228  10.252
85346SOL    HW257936   3.166   4.171  10.136
85347SOL     OW57937  14.191   0.642   3.183
85347SOL    HW157938  14.212   0.573   3.246
85347SOL    HW257939  14.138   0.597   3.116
85348SOL     OW57940   0.031   1.691   5.544
85348SOL    HW157941   0.048   1.783   5.562
85348SOL    HW257942   0.001   1.655   5.627
85349SOL     OW57943   6.991  12.577   7.724
85349SOL    HW157944   7.034  12.613   7.647
85349SOL    HW257945   6.898  12.575   7.701
85350SOL     OW57946   2.140   9.825   9.249
85350SOL    HW157947   2.123   9.890   9.181
85350SOL    HW257948   2.058   9.776   9.256
85351SOL     OW57949   1.594   7.256  12.365
85351SOL    HW157950   1.499   7.249  12.375
85351SOL    HW257951   1.607   7.281  12.274
85352SOL     OW57952  14.281   6.397   9.252
85352SOL    HW157953  14.357   6.340   9.249
85352SOL    HW257954  14.279   6.431   9.341
85353SOL     OW57955   2.991   1.326   0.195
85353SOL    HW157956   3.070   1.329   0.249
85353SOL    HW257957   2.933   1.390   0.236
85354SOL     OW57958  10.725  14.442   6.762
85354SOL    HW157959  10.721  14.537   6.774
85354SOL    HW257960  10.722  14.406   6.851
85355SOL     OW57961   8.838  14.290  14.563
85355SOL    HW157962   8.834  14.207  14.515
85355SOL    HW257963   8.874  14.266  14.649
85356SOL     OW57964   8.908   2.695   4.302
85356SOL    HW157965   8.921   2.613   4.254
85356SOL    HW257966   8.977   2.696   4.367
85357SOL     OW57967   8.601   0.772   5.532
85357SOL    HW157968   8.618   0.848   5.477
85357SOL    HW257969   8.516   0.789   5.572
85358SOL     OW57970   6.398   6.742  14.263
85358SOL    HW157971   6.386   6.834  14.289
85358SOL    HW257972   6.329   6.726  14.200
85359SOL     OW57973   1.774   6.434   3.093
85359SOL    HW157974   1.752   6.410   3.003
85359SOL    HW257975   1.698   6.484   3.124
85360SOL     OW57976  10.299  14.214  14.528
85360SOL    HW157977  10.263  14.126  14.539
85360SOL    HW257978  10.249  14.252  14.456
85361SOL     OW57979  10.594  13.285  10.655
85361SOL    HW157980  10.530  13.311  10.588
85361SOL    HW257981  10.540  13.255  10.728
85362SOL     OW57982   5.574   1.099   1.224
85362SOL    HW157983   5.540   1.185   1.197
85362SOL    HW257984   5.541   1.088   1.313
85363SOL     OW57985   1.598  12.717   1.113
85363SOL    HW157986   1.552  12.669   1.183
85363SOL    HW257987   1.682  12.672   1.105
85364SOL     OW57988  12.963   1.538   2.163
85364SOL    HW157989  12.913   1.457   2.175
85364SOL    HW257990  13.048   1.509   2.128
85365SOL     OW57991  12.402  11.641  14.058
85365SOL    HW157992  12.363  11.653  13.971
85365SOL    HW257993  12.329  11.613  14.113
85366SOL     OW57994   1.103   4.548  14.618
85366SOL    HW157995   1.176   4.525  14.676
85366SOL    HW257996   1.026   4.509  14.659
85367SOL     OW57997  14.142  11.238   4.603
85367SOL    HW157998  14.182  11.170   4.658
85367SOL    HW257999  14.061  11.261   4.649
85368SOL     OW58000   9.276   7.425  14.079
85368SOL    HW158001   9.218   7.446  14.151
85368SOL    HW258002   9.247   7.481  14.007
85369SOL     OW58003   2.596  10.855   5.951
85369SOL    HW158004   2.503  10.874   5.942
85369SOL    HW258005   2.633  10.878   5.866
85370SOL     OW58006   1.156  10.139  11.652
85370SOL    HW158007   1.143  10.148  11.558
85370SOL    HW258008   1.106  10.061  11.677
85371SOL     OW58009   1.382  12.440  11.121
85371SOL    HW158010   1.444  12.467  11.054
85371SOL    HW258011   1.300  12.483  11.096
85372SOL     OW58012   5.557   2.054   6.309
85372SOL    HW158013   5.581   1.980   6.363
85372SOL    HW258014   5.595   2.035   6.223
85373SOL     OW58015   0.654   5.045   1.201
85373SOL    HW158016   0.666   5.066   1.109
85373SOL    HW258017   0.561   5.060   1.217
85374SOL     OW58018  14.784   1.996   1.192
85374SOL    HW158019   0.005   1.991   1.215
85374SOL    HW258020  14.761   2.088   1.202
85375SOL     OW58021   6.279  13.247   4.283
85375SOL    HW158022   6.294  13.330   4.327
85375SOL    HW258023   6.221  13.199   4.342
85376SOL     OW58024  13.690   5.448   1.819
85376SOL    HW158025  13.604   5.448   1.778
85376SOL    HW258026  13.677   5.497   1.901
85377SOL     OW58027   3.644   5.062   2.494
85377SOL    HW158028   3.555   5.038   2.467
85377SOL    HW258029   3.696   5.053   2.414
85378SOL     OW58030  10.248  10.490  13.170
85378SOL    HW158031  10.222  10.581  13.185
85378SOL    HW258032  10.341  10.488  13.195
85379SOL     OW58033   8.463  12.251   8.828
85379SOL    HW158034   8.416  12.211   8.901
85379SOL    HW258035   8.541  12.290   8.868
85380SOL     OW58036   5.250   1.929   5.850
85380SOL    HW158037   5.261   1.931   5.945
85380SOL    HW258038   5.203   1.848   5.832
85381SOL     OW58039   9.188  10.978  11.841
85381SOL    HW158040   9.240  10.997  11.763
85381SOL    HW258041   9.156  11.064  11.870
85382SOL     OW58042   4.526  11.250   5.500
85382SOL    HW158043   4.537  11.243   5.405
85382SOL    HW258044   4.611  11.224   5.536
85383SOL     OW58045   8.925   4.457   7.803
85383SOL    HW158046   8.980   4.480   7.728
85383SOL    HW258047   8.943   4.364   7.819
85384SOL     OW58048   0.646   6.353   1.713
85384SOL    HW158049   0.650   6.428   1.652
85384SOL    HW258050   0.552   6.334   1.721
85385SOL     OW58051  11.031  10.215  11.606
85385SOL    HW158052  11.092  10.152  11.645
85385SOL    HW258053  10.973  10.239  11.678
85386SOL     OW58054   6.512  11.275  13.411
85386SOL    HW158055   6.473  11.345  13.463
85386SOL    HW258056   6.468  11.196  13.442
85387SOL     OW58057   4.289   1.472   1.818
85387SOL    HW158058   4.209   1.442   1.774
85387SOL    HW258059   4.356   1.409   1.791
85388SOL     OW58060  12.821  14.485   6.131
85388SOL    HW158061  12.781  14.485   6.218
85388SOL    HW258062  12.860  14.398   6.122
85389SOL     OW58063   2.819   0.925   5.247
85389SOL    HW158064   2.837   0.838   5.282
85389SOL    HW258065   2.742   0.955   5.294
85390SOL     OW58066  10.365   7.480   1.354
85390SOL    HW158067  10.457   7.453   1.356
85390SOL    HW258068  10.322   7.415   1.299
85391SOL     OW58069  11.374   8.656  11.596
85391SOL    HW158070  11.366   8.747  11.623
85391SOL    HW258071  11.344   8.605  11.671
85392SOL     OW58072  12.675   9.661   6.084
85392SOL    HW158073  12.669   9.567   6.098
85392SOL    HW258074  12.762   9.673   6.044
85393SOL     OW58075   7.382  12.589   0.285
85393SOL    HW158076   7.366  12.683   0.290
85393SOL    HW258077   7.294  12.550   0.278
85394SOL     OW58078   5.169   3.422   8.276
85394SOL    HW158079   5.237   3.368   8.316
85394SOL    HW258080   5.104   3.433   8.345
85395SOL     OW58081   0.124   2.614   2.065
85395SOL    HW158082   0.161   2.555   2.131
85395SOL    HW258083   0.034   2.630   2.094
85396SOL     OW58084   1.742  11.332   1.509
85396SOL    HW158085   1.719  11.240   1.523
85396SOL    HW258086   1.732  11.344   1.414
85397SOL     OW58087   9.440  10.235   3.410
85397SOL    HW158088   9.473  10.174   3.476
85397SOL    HW258089   9.345  10.229   3.417
85398SOL     OW58090   8.770  13.086   0.361
85398SOL    HW158091   8.825  13.068   0.437
85398SOL    HW258092   8.761  13.002   0.317
85399SOL     OW58093   0.732  10.151   6.925
85399SOL    HW158094   0.740  10.057   6.907
85399SOL    HW258095   0.755  10.193   6.842
85400SOL     OW58096  12.656   8.378   4.309
85400SOL    HW158097  12.592   8.310   4.289
85400SOL    HW258098  12.671   8.422   4.225
85401SOL     OW58099   9.581   2.553   4.848
85401SOL    HW158100   9.622   2.568   4.763
85401SOL    HW258101   9.493   2.589   4.839
85402SOL     OW58102   1.054  13.775  10.983
85402SOL    HW158103   1.090  13.840  10.924
85402SOL    HW258104   0.990  13.823  11.036
85403SOL     OW58105   0.667   4.256  10.255
85403SOL    HW158106   0.588   4.257  10.310
85403SOL    HW258107   0.736   4.230  10.315
85404SOL     OW58108  14.679   2.283  10.382
85404SOL    HW158109  14.772   2.301  10.367
85404SOL    HW258110  14.651   2.237  10.302
85405SOL     OW58111   8.506   2.577   9.693
85405SOL    HW158112   8.578   2.611   9.640
85405SOL    HW258113   8.443   2.649   9.695
85406SOL     OW58114   8.428  13.419   7.224
85406SOL    HW158115   8.412  13.325   7.232
85406SOL    HW258116   8.388  13.457   7.302
85407SOL     OW58117   8.339   9.846   7.339
85407SOL    HW158118   8.247   9.831   7.361
85407SOL    HW258119   8.341   9.846   7.243
85408SOL     OW58120   9.133  13.404   7.990
85408SOL    HW158121   9.118  13.395   7.896
85408SOL    HW258122   9.046  13.420   8.027
85409SOL     OW58123  13.055   4.752   4.638
85409SOL    HW158124  13.100   4.819   4.586
85409SOL    HW258125  12.962   4.776   4.633
85410SOL     OW58126   4.065   0.732   3.404
85410SOL    HW158127   4.157   0.752   3.420
85410SOL    HW258128   4.022   0.748   3.489
85411SOL     OW58129  14.616   0.911   8.411
85411SOL    HW158130  14.555   0.928   8.482
85411SOL    HW258131  14.648   0.822   8.427
85412SOL     OW58132   0.779  13.159   6.637
85412SOL    HW158133   0.725  13.096   6.589
85412SOL    HW258134   0.720  13.230   6.658
85413SOL     OW58135  13.044   4.702  14.842
85413SOL    HW158136  13.036   4.674  14.751
85413SOL    HW258137  13.134   4.683  14.865
85414SOL     OW58138   3.026   2.851   9.218
85414SOL    HW158139   3.059   2.851   9.128
85414SOL    HW258140   3.096   2.813   9.270
85415SOL     OW58141  11.823   1.200   7.232
85415SOL    HW158142  11.768   1.278   7.244
85415SOL    HW258143  11.854   1.178   7.319
85416SOL     OW58144   4.199   9.713   2.968
85416SOL    HW158145   4.237   9.638   2.923
85416SOL    HW258146   4.268   9.741   3.029
85417SOL     OW58147   5.519   0.396   1.142
85417SOL    HW158148   5.483   0.480   1.167
85417SOL    HW258149   5.490   0.382   1.052
85418SOL     OW58150   2.355   9.425  11.925
85418SOL    HW158151   2.304   9.405  11.846
85418SOL    HW258152   2.347   9.520  11.934
85419SOL     OW58153   0.444  11.858  12.362
85419SOL    HW158154   0.519  11.801  12.346
85419SOL    HW258155   0.369  11.799  12.365
85420SOL     OW58156   3.140   5.876   3.773
85420SOL    HW158157   3.073   5.865   3.841
85420SOL    HW258158   3.188   5.955   3.799
85421SOL     OW58159  13.694   5.260  14.062
85421SOL    HW158160  13.787   5.261  14.085
85421SOL    HW258161  13.691   5.219  13.975
85422SOL     OW58162   8.576   0.469   8.779
85422SOL    HW158163   8.549   0.550   8.822
85422SOL    HW258164   8.495   0.419   8.770
85423SOL     OW58165   4.098   5.128  13.385
85423SOL    HW158166   4.166   5.125  13.452
85423SOL    HW258167   4.033   5.064  13.413
85424SOL     OW58168  13.118  13.318  11.078
85424SOL    HW158169  13.183  13.384  11.055
85424SOL    HW258170  13.156  13.273  11.154
85425SOL     OW58171  12.538   3.276  12.500
85425SOL    HW158172  12.600   3.339  12.536
85425SOL    HW258173  12.593   3.202  12.473
85426SOL     OW58174   1.691   4.721   4.297
85426SOL    HW158175   1.694   4.816   4.285
85426SOL    HW258176   1.665   4.687   4.212
85427SOL     OW58177  12.369   6.149   3.456
85427SOL    HW158178  12.415   6.132   3.374
85427SOL    HW258179  12.404   6.232   3.487
85428SOL     OW58180   5.484  10.322  10.379
85428SOL    HW158181   5.479  10.228  10.364
85428SOL    HW258182   5.560  10.350  10.329
85429SOL     OW58183  12.497  12.778  11.780
85429SOL    HW158184  12.563  12.847  11.776
85429SOL    HW258185  12.424  12.811  11.728
85430SOL     OW58186  11.713   9.335   6.178
85430SOL    HW158187  11.795   9.383   6.190
85430SOL    HW258188  11.645   9.394   6.209
85431SOL     OW58189   2.030   7.585  14.377
85431SOL    HW158190   2.052   7.574  14.470
85431SOL    HW258191   1.989   7.671  14.372
85432SOL     OW58192   0.990   0.888  10.873
85432SOL    HW158193   0.905   0.928  10.852
85432SOL    HW258194   1.018   0.933  10.953
85433SOL     OW58195  14.026   7.291   8.793
85433SOL    HW158196  14.108   7.332   8.819
85433SOL    HW258197  14.038   7.198   8.813
85434SOL     OW58198  11.161   6.482   0.494
85434SOL    HW158199  11.158   6.446   0.583
85434SOL    HW258200  11.197   6.570   0.506
85435SOL     OW58201   3.795   6.384   6.921
85435SOL    HW158202   3.856   6.311   6.925
85435SOL    HW258203   3.803   6.427   7.006
85436SOL     OW58204  10.799  12.256  12.946
85436SOL    HW158205  10.873  12.208  12.983
85436SOL    HW258206  10.727  12.193  12.946
85437SOL     OW58207   7.017   8.932   7.972
85437SOL    HW158208   7.058   8.859   8.018
85437SOL    HW258209   7.091   8.987   7.946
85438SOL     OW58210   6.599  11.201   3.519
85438SOL    HW158211   6.675  11.149   3.545
85438SOL    HW258212   6.631  11.290   3.511
85439SOL     OW58213   3.392  10.759   7.366
85439SOL    HW158214   3.361  10.681   7.320
85439SOL    HW258215   3.487  10.757   7.353
85440SOL     OW58216   5.349  11.022   2.216
85440SOL    HW158217   5.396  11.085   2.270
85440SOL    HW258218   5.369  10.937   2.255
85441SOL     OW58219   3.287   1.255  10.759
85441SOL    HW158220   3.295   1.208  10.676
85441SOL    HW258221   3.223   1.205  10.809
85442SOL     OW58222   8.122   5.533  12.652
85442SOL    HW158223   8.198   5.555  12.599
85442SOL    HW258224   8.060   5.604  12.636
85443SOL     OW58225  13.617  10.659   3.564
85443SOL    HW158226  13.553  10.633   3.631
85443SOL    HW258227  13.694  10.607   3.584
85444SOL     OW58228   9.204   1.495   2.481
85444SOL    HW158229   9.247   1.556   2.541
85444SOL    HW258230   9.139   1.548   2.435
85445SOL     OW58231  10.043   7.341   5.653
85445SOL    HW158232  10.024   7.360   5.561
85445SOL    HW258233   9.958   7.318   5.691
85446SOL     OW58234  13.451   3.267  13.699
85446SOL    HW158235  13.496   3.186  13.675
85446SOL    HW258236  13.372   3.267  13.644
85447SOL     OW58237   6.504  12.972   6.462
85447SOL    HW158238   6.410  12.957   6.473
85447SOL    HW258239   6.541  12.885   6.450
85448SOL     OW58240  12.844  12.403  10.000
85448SOL    HW158241  12.849  12.392  10.095
85448SOL    HW258242  12.905  12.337   9.965
85449SOL     OW58243  13.247   6.726   2.400
85449SOL    HW158244  13.221   6.674   2.476
85449SOL    HW258245  13.224   6.816   2.423
85450SOL     OW58246   9.383   1.213   1.934
85450SOL    HW158247   9.478   1.206   1.949
85450SOL    HW258248   9.346   1.144   1.989
85451SOL     OW58249  12.841  12.813  11.910
85451SOL    HW158250  12.805  12.724  11.908
85451SOL    HW258251  12.936  12.800  11.909
85452SOL     OW58252   7.409  14.852  13.034
85452SOL    HW158253   7.421   0.005  13.126
85452SOL    HW258254   7.497  14.858  12.996
85453SOL     OW58255   2.136   3.985   6.809
85453SOL    HW158256   2.058   4.014   6.762
85453SOL    HW258257   2.206   3.989   6.744
85454SOL     OW58258   3.790   3.991   1.873
85454SOL    HW158259   3.831   4.065   1.917
85454SOL    HW258260   3.728   3.957   1.938
85455SOL     OW58261   1.421  11.848  12.491
85455SOL    HW158262   1.446  11.762  12.458
85455SOL    HW258263   1.418  11.904  12.414
85456SOL     OW58264   9.269  10.692   3.886
85456SOL    HW158265   9.208  10.700   3.812
85456SOL    HW258266   9.240  10.759   3.948
85457SOL     OW58267  13.216   7.954  11.708
85457SOL    HW158268  13.120   7.948  11.710
85457SOL    HW258269  13.234   8.014  11.635
85458SOL     OW58270   8.358  13.378  14.388
85458SOL    HW158271   8.295  13.343  14.451
85458SOL    HW258272   8.402  13.449  14.434
85459SOL     OW58273   4.166   5.335  11.289
85459SOL    HW158274   4.252   5.337  11.330
85459SOL    HW258275   4.156   5.244  11.260
85460SOL     OW58276  12.175   1.734   3.445
85460SOL    HW158277  12.093   1.720   3.397
85460SOL    HW258278  12.193   1.828   3.433
85461SOL     OW58279   6.769   4.357  11.187
85461SOL    HW158280   6.760   4.414  11.263
85461SOL    HW258281   6.713   4.396  11.120
85462SOL     OW58282   7.185   0.970  10.110
85462SOL    HW158283   7.121   0.906  10.080
85462SOL    HW258284   7.205   1.022  10.032
85463SOL     OW58285  12.278   8.511  13.583
85463SOL    HW158286  12.313   8.580  13.527
85463SOL    HW258287  12.190   8.542  13.606
85464SOL     OW58288  10.276   9.059   5.997
85464SOL    HW158289  10.200   9.073   5.940
85464SOL    HW258290  10.338   9.126   5.972
85465SOL     OW58291  12.110   5.352  14.534
85465SOL    HW158292  12.118   5.267  14.578
85465SOL    HW258293  12.150   5.338  14.448
85466SOL     OW58294   9.311  12.630   9.208
85466SOL    HW158295   9.389  12.680   9.230
85466SOL    HW258296   9.317  12.551   9.261
85467SOL     OW58297   5.269  11.092   3.765
85467SOL    HW158298   5.233  11.004   3.763
85467SOL    HW258299   5.275  11.118   3.673
85468SOL     OW58300   6.968   1.781   0.356
85468SOL    HW158301   6.906   1.751   0.289
85468SOL    HW258302   6.949   1.874   0.366
85469SOL     OW58303   8.107   4.684   8.821
85469SOL    HW158304   8.065   4.751   8.767
85469SOL    HW258305   8.059   4.603   8.802
85470SOL     OW58306   1.659   3.619   5.552
85470SOL    HW158307   1.669   3.595   5.460
85470SOL    HW258308   1.663   3.537   5.600
85471SOL     OW58309  13.828  13.334   4.301
85471SOL    HW158310  13.858  13.421   4.327
85471SOL    HW258311  13.776  13.350   4.221
85472SOL     OW58312   2.909   6.336  14.040
85472SOL    HW158313   2.914   6.383  13.957
85472SOL    HW258314   2.818   6.307  14.047
85473SOL     OW58315   5.294  10.250  11.031
85473SOL    HW158316   5.366  10.312  11.030
85473SOL    HW258317   5.323  10.178  10.975
85474SOL     OW58318   9.893   3.895  10.116
85474SOL    HW158319   9.896   3.859  10.027
85474SOL    HW258320   9.825   3.962  10.112
85475SOL     OW58321   3.374  14.376  13.655
85475SOL    HW158322   3.430  14.392  13.731
85475SOL    HW258323   3.408  14.295  13.617
85476SOL     OW58324   0.930  11.422   2.190
85476SOL    HW158325   0.946  11.387   2.102
85476SOL    HW258326   0.837  11.405   2.205
85477SOL     OW58327  12.925  11.618   2.014
85477SOL    HW158328  12.912  11.675   2.090
85477SOL    HW258329  12.854  11.554   2.019
85478SOL     OW58330   3.946   7.793  10.574
85478SOL    HW158331   4.039   7.810  10.559
85478SOL    HW258332   3.944   7.726  10.642
85479SOL     OW58333  11.119   8.644  11.227
85479SOL    HW158334  11.181   8.606  11.165
85479SOL    HW258335  11.042   8.666  11.174
85480SOL     OW58336   4.469   3.732   6.970
85480SOL    HW158337   4.507   3.644   6.965
85480SOL    HW258338   4.422   3.743   6.887
85481SOL     OW58339   4.871   0.733   5.335
85481SOL    HW158340   4.927   0.661   5.305
85481SOL    HW258341   4.826   0.698   5.412
85482SOL     OW58342   0.566   9.835  11.380
85482SOL    HW158343   0.589   9.850  11.288
85482SOL    HW258344   0.644   9.795  11.418
85483SOL     OW58345   2.114  13.372   9.022
85483SOL    HW158346   2.079  13.403   9.106
85483SOL    HW258347   2.108  13.447   8.964
85484SOL     OW58348   8.318  14.113  13.509
85484SOL    HW158349   8.369  14.051  13.560
85484SOL    HW258350   8.229  14.105  13.543
85485SOL     OW58351  12.471   9.025   7.637
85485SOL    HW158352  12.408   8.954   7.623
85485SOL    HW258353  12.520   9.000   7.714
85486SOL     OW58354  11.536   1.479  13.174
85486SOL    HW158355  11.474   1.447  13.240
85486SOL    HW258356  11.587   1.546  13.220
85487SOL     OW58357   8.875  11.343   9.799
85487SOL    HW158358   8.947  11.399   9.825
85487SOL    HW258359   8.917  11.261   9.771
85488SOL     OW58360   0.361   2.408   8.088
85488SOL    HW158361   0.325   2.336   8.140
85488SOL    HW258362   0.343   2.384   7.997
85489SOL     OW58363   3.399   9.234   9.426
85489SOL    HW158364   3.384   9.195   9.340
85489SOL    HW258365   3.490   9.212   9.447
85490SOL     OW58366   1.812   2.689   2.002
85490SOL    HW158367   1.765   2.754   1.950
85490SOL    HW258368   1.862   2.638   1.939
85491SOL     OW58369  12.991  10.624  14.491
85491SOL    HW158370  13.016  10.534  14.468
85491SOL    HW258371  12.989  10.625  14.586
85492SOL     OW58372   9.498  11.960   9.461
85492SOL    HW158373   9.500  11.895   9.531
85492SOL    HW258374   9.475  11.911   9.383
85493SOL     OW58375   3.104   9.100  14.207
85493SOL    HW158376   3.163   9.029  14.233
85493SOL    HW258377   3.138   9.128  14.122
85494SOL     OW58378   7.879   2.227   0.828
85494SOL    HW158379   7.892   2.188   0.915
85494SOL    HW258380   7.791   2.266   0.833
85495SOL     OW58381  14.732  13.030   1.502
85495SOL    HW158382  14.706  13.040   1.411
85495SOL    HW258383  14.725  13.118   1.539
85496SOL     OW58384   9.524   5.525   8.570
85496SOL    HW158385   9.586   5.545   8.640
85496SOL    HW258386   9.440   5.559   8.601
85497SOL     OW58387  12.070  13.043   1.221
85497SOL    HW158388  11.976  13.063   1.222
85497SOL    HW258389  12.075  12.948   1.219
85498SOL     OW58390   1.540   0.349  11.636
85498SOL    HW158391   1.562   0.281  11.572
85498SOL    HW258392   1.579   0.429  11.600
85499SOL     OW58393   1.539   3.695  11.054
85499SOL    HW158394   1.535   3.662  10.964
85499SOL    HW258395   1.548   3.790  11.043
85500SOL     OW58396   9.937   2.501   4.416
85500SOL    HW158397   9.955   2.407   4.413
85500SOL    HW258398  10.023   2.542   4.425
85501SOL     OW58399  11.864   5.228  14.850
85501SOL    HW158400  11.914   5.148  14.867
85501SOL    HW258401  11.925   5.299  14.871
85502SOL     OW58402   3.831   8.386  12.909
85502SOL    HW158403   3.756   8.346  12.866
85502SOL    HW258404   3.824   8.479  12.888
85503SOL     OW58405   9.577  11.918   0.153
85503SOL    HW158406   9.618  11.901   0.238
85503SOL    HW258407   9.620  11.856   0.094
85504SOL     OW58408   9.819   4.680  10.398
85504SOL    HW158409   9.777   4.597  10.421
85504SOL    HW258410   9.784   4.743  10.461
85505SOL     OW58411   3.509   5.795  13.629
85505SOL    HW158412   3.492   5.771  13.538
85505SOL    HW258413   3.453   5.870  13.645
85506SOL     OW58414   0.968   9.743   4.009
85506SOL    HW158415   1.038   9.803   4.037
85506SOL    HW258416   0.906   9.743   4.082
85507SOL     OW58417   9.841   2.676   5.789
85507SOL    HW158418   9.783   2.750   5.809
85507SOL    HW258419   9.911   2.713   5.736
85508SOL     OW58420  14.640  12.466   5.197
85508SOL    HW158421  14.582  12.414   5.252
85508SOL    HW258422  14.651  12.414   5.118
85509SOL     OW58423   9.814   3.564   1.801
85509SOL    HW158424   9.788   3.582   1.711
85509SOL    HW258425   9.887   3.623   1.818
85510SOL     OW58426   4.906  14.454   7.237
85510SOL    HW158427   4.924  14.528   7.179
85510SOL    HW258428   4.829  14.480   7.288
85511SOL     OW58429  14.287   5.435  10.311
85511SOL    HW158430  14.228   5.464  10.380
85511SOL    HW258431  14.236   5.443  10.231
85512SOL     OW58432   8.133  13.451   0.600
85512SOL    HW158433   8.149  13.390   0.672
85512SOL    HW258434   8.221  13.475   0.570
85513SOL     OW58435   3.825  13.054  14.306
85513SOL    HW158436   3.889  13.100  14.360
85513SOL    HW258437   3.795  13.119  14.243
85514SOL     OW58438  13.757   0.158   0.183
85514SOL    HW158439  13.755   0.253   0.197
85514SOL    HW258440  13.850   0.137   0.178
85515SOL     OW58441   6.596  14.685   1.255
85515SOL    HW158442   6.584  14.741   1.332
85515SOL    HW258443   6.602  14.746   1.182
85516SOL     OW58444   5.524  13.473   1.935
85516SOL    HW158445   5.436  13.468   1.972
85516SOL    HW258446   5.520  13.421   1.855
85517SOL     OW58447  12.356  14.615   7.464
85517SOL    HW158448  12.389  14.687   7.410
85517SOL    HW258449  12.361  14.538   7.408
85518SOL     OW58450  12.301   1.264   0.914
85518SOL    HW158451  12.288   1.359   0.906
85518SOL    HW258452  12.363   1.243   0.844
85519SOL     OW58453   1.045   3.541   9.560
85519SOL    HW158454   0.963   3.546   9.610
85519SOL    HW258455   1.092   3.621   9.584
85520SOL     OW58456   2.989  13.932  12.963
85520SOL    HW158457   3.029  13.994  13.024
85520SOL    HW258458   2.895  13.940  12.979
85521SOL     OW58459   5.233   5.014  12.976
85521SOL    HW158460   5.210   4.985  12.888
85521SOL    HW258461   5.286   4.943  13.012
85522SOL     OW58462  13.230   8.682   4.327
85522SOL    HW158463  13.283   8.712   4.401
85522SOL    HW258464  13.153   8.641   4.367
85523SOL     OW58465   9.776   7.813   6.937
85523SOL    HW158466   9.810   7.874   7.003
85523SOL    HW258467   9.725   7.750   6.987
85524SOL     OW58468   0.796  13.530   9.710
85524SOL    HW158469   0.810  13.610   9.759
85524SOL    HW258470   0.814  13.554   9.619
85525SOL     OW58471   4.517  13.783   5.048
85525SOL    HW158472   4.452  13.737   5.101
85525SOL    HW258473   4.560  13.842   5.109
85526SOL     OW58474   7.683   2.017   6.362
85526SOL    HW158475   7.734   2.001   6.283
85526SOL    HW258476   7.620   2.085   6.337
85527SOL     OW58477  13.018   1.989   0.527
85527SOL    HW158478  12.983   1.916   0.579
85527SOL    HW258479  13.109   1.997   0.557
85528SOL     OW58480   0.191   8.823  11.964
85528SOL    HW158481   0.098   8.846  11.963
85528SOL    HW258482   0.217   8.833  12.055
85529SOL     OW58483  12.988   8.851  14.280
85529SOL    HW158484  12.925   8.788  14.244
85529SOL    HW258485  12.955   8.936  14.251
85530SOL     OW58486   9.158   9.164   6.135
85530SOL    HW158487   9.205   9.212   6.066
85530SOL    HW258488   9.079   9.215   6.150
85531SOL     OW58489  11.927  10.921   4.943
85531SOL    HW158490  11.974  10.972   5.008
85531SOL    HW258491  11.929  10.831   4.977
85532SOL     OW58492   9.298  13.818  14.246
85532SOL    HW158493   9.347  13.736  14.255
85532SOL    HW258494   9.224  13.796  14.189
85533SOL     OW58495   7.033   0.652   4.271
85533SOL    HW158496   7.065   0.723   4.327
85533SOL    HW258497   7.000   0.695   4.192
85534SOL     OW58498   1.969   7.344   0.965
85534SOL    HW158499   1.975   7.381   1.054
85534SOL    HW258500   2.057   7.355   0.929
85535SOL     OW58501   8.997   2.804   7.815
85535SOL    HW158502   8.966   2.830   7.902
85535SOL    HW258503   9.092   2.799   7.824
85536SOL     OW58504   9.463   0.466   7.956
85536SOL    HW158505   9.508   0.541   7.995
85536SOL    HW258506   9.496   0.462   7.866
85537SOL     OW58507  13.549   7.566   4.506
85537SOL    HW158508  13.590   7.651   4.490
85537SOL    HW258509  13.498   7.549   4.427
85538SOL     OW58510  12.431   5.570   2.015
85538SOL    HW158511  12.413   5.638   2.080
85538SOL    HW258512  12.453   5.493   2.067
85539SOL     OW58513  12.758  12.102   7.008
85539SOL    HW158514  12.693  12.032   7.020
85539SOL    HW258515  12.745  12.131   6.918
85540SOL     OW58516   7.071   6.726   2.464
85540SOL    HW158517   7.014   6.764   2.531
85540SOL    HW258518   7.067   6.788   2.391
85541SOL     OW58519   3.738   6.807  11.622
85541SOL    HW158520   3.693   6.786  11.703
85541SOL    HW258521   3.815   6.750  11.622
85542SOL     OW58522  10.602   0.903  11.324
85542SOL    HW158523  10.634   0.874  11.239
85542SOL    HW258524  10.680   0.936  11.369
85543SOL     OW58525   7.768  11.549   1.902
85543SOL    HW158526   7.723  11.504   1.831
85543SOL    HW258527   7.858  11.558   1.872
85544SOL     OW58528   3.456   5.959   4.807
85544SOL    HW158529   3.531   5.959   4.867
85544SOL    HW258530   3.380   5.974   4.863
85545SOL     OW58531   3.734   8.307   3.731
85545SOL    HW158532   3.713   8.314   3.638
85545SOL    HW258533   3.726   8.396   3.765
85546SOL     OW58534   1.920   6.644   7.828
85546SOL    HW158535   1.978   6.721   7.831
85546SOL    HW258536   1.900   6.626   7.920
85547SOL     OW58537   2.559   7.532  10.008
85547SOL    HW158538   2.631   7.531  10.070
85547SOL    HW258539   2.595   7.496   9.927
85548SOL     OW58540  14.245   5.768   3.349
85548SOL    HW158541  14.158   5.743   3.320
85548SOL    HW258542  14.286   5.806   3.272
85549SOL     OW58543   0.499  11.450   7.966
85549SOL    HW158544   0.520  11.532   8.010
85549SOL    HW258545   0.559  11.446   7.892
85550SOL     OW58546   0.531   9.540   7.656
85550SOL    HW158547   0.481   9.561   7.735
85550SOL    HW258548   0.570   9.623   7.629
85551SOL     OW58549   2.634   4.128   0.341
85551SOL    HW158550   2.625   4.206   0.285
85551SOL    HW258551   2.548   4.118   0.382
85552SOL     OW58552   3.122   4.102  10.750
85552SOL    HW158553   3.184   4.033  10.775
85552SOL    HW258554   3.178   4.171  10.713
85553SOL     OW58555   3.920   4.606   7.381
85553SOL    HW158556   3.933   4.513   7.401
85553SOL    HW258557   3.978   4.622   7.307
85554SOL     OW58558   9.790   5.317   1.515
85554SOL    HW158559   9.795   5.327   1.610
85554SOL    HW258560   9.700   5.291   1.498
85555SOL     OW58561   2.986  12.484   2.762
85555SOL    HW158562   2.937  12.566   2.756
85555SOL    HW258563   2.936  12.430   2.823
85556SOL     OW58564   3.407  11.357  14.337
85556SOL    HW158565   3.482  11.351  14.396
85556SOL    HW258566   3.442  11.399  14.259
85557SOL     OW58567  14.213   0.509  12.278
85557SOL    HW158568  14.124   0.475  12.286
85557SOL    HW258569  14.245   0.474  12.195
85558SOL     OW58570   7.730  10.181   5.837
85558SOL    HW158571   7.694  10.199   5.924
85558SOL    HW258572   7.820  10.154   5.855
85559SOL     OW58573   4.286   9.901  13.948
85559SOL    HW158574   4.332   9.922  14.029
85559SOL    HW258575   4.244   9.816  13.965
85560SOL     OW58576   8.749   2.075  12.203
85560SOL    HW158577   8.778   2.066  12.112
85560SOL    HW258578   8.733   1.985  12.232
85561SOL     OW58579   6.923   4.724   7.822
85561SOL    HW158580   6.869   4.797   7.794
85561SOL    HW258581   7.013   4.751   7.802
85562SOL     OW58582   5.547  12.739   4.248
85562SOL    HW158583   5.527  12.825   4.213
85562SOL    HW258584   5.583  12.756   4.335
85563SOL     OW58585   3.836   1.392  13.177
85563SOL    HW158586   3.838   1.358  13.267
85563SOL    HW258587   3.926   1.420  13.159
85564SOL     OW58588   0.200  12.739   7.042
85564SOL    HW158589   0.240  12.825   7.056
85564SOL    HW258590   0.275  12.680   7.034
85565SOL     OW58591  14.288   5.760   3.629
85565SOL    HW158592  14.233   5.830   3.666
85565SOL    HW258593  14.284   5.774   3.535
85566SOL     OW58594  12.559  13.568  10.861
85566SOL    HW158595  12.468  13.540  10.866
85566SOL    HW258596  12.605  13.493  10.824
85567SOL     OW58597   6.597   2.230  14.296
85567SOL    HW158598   6.649   2.310  14.307
85567SOL    HW258599   6.655   2.160  14.327
85568SOL     OW58600  11.641   2.864  10.811
85568SOL    HW158601  11.640   2.953  10.776
85568SOL    HW258602  11.695   2.870  10.889
85569SOL     OW58603   2.430   4.510   1.694
85569SOL    HW158604   2.410   4.470   1.779
85569SOL    HW258605   2.522   4.489   1.679
85570SOL     OW58606   5.207  14.838   6.946
85570SOL    HW158607   5.258  14.845   7.027
85570SOL    HW258608   5.199   0.056   6.915
85571SOL     OW58609  11.296   7.600  11.708
85571SOL    HW158610  11.374   7.646  11.738
85571SOL    HW258611  11.291   7.619  11.614
85572SOL     OW58612   3.391  13.300   6.094
85572SOL    HW158613   3.302  13.267   6.106
85572SOL    HW258614   3.392  13.332   6.003
85573SOL     OW58615  14.179   0.692   9.266
85573SOL    HW158616  14.161   0.653   9.180
85573SOL    HW258617  14.274   0.705   9.268
85574SOL     OW58618  12.898   1.952  12.995
85574SOL    HW158619  12.883   1.935  13.088
85574SOL    HW258620  12.860   2.038  12.979
85575SOL     OW58621  13.743   8.154  12.934
85575SOL    HW158622  13.662   8.193  12.902
85575SOL    HW258623  13.810   8.188  12.874
85576SOL     OW58624   4.426   5.568  13.757
85576SOL    HW158625   4.368   5.580  13.682
85576SOL    HW258626   4.469   5.652  13.768
85577SOL     OW58627   3.665   9.695   4.748
85577SOL    HW158628   3.698   9.607   4.733
85577SOL    HW258629   3.744   9.748   4.762
85578SOL     OW58630   0.213  13.730   0.017
85578SOL    HW158631   0.285  13.733   0.081
85578SOL    HW258632   0.247  13.776  14.812
85579SOL     OW58633   1.895   3.469   5.388
85579SOL    HW158634   1.819   3.482   5.331
85579SOL    HW258635   1.971   3.486   5.332
85580SOL     OW58636   0.805  10.024   0.168
85580SOL    HW158637   0.838  10.064   0.248
85580SOL    HW258638   0.797   9.931   0.189
85581SOL     OW58639  10.033   1.645   0.907
85581SOL    HW158640   9.940   1.621   0.910
85581SOL    HW258641  10.072   1.595   0.978
85582SOL     OW58642   0.563  12.924  10.599
85582SOL    HW158643   0.639  12.929  10.541
85582SOL    HW258644   0.528  12.836  10.586
85583SOL     OW58645   6.394  10.489  12.755
85583SOL    HW158646   6.468  10.454  12.805
85583SOL    HW258647   6.411  10.583  12.750
85584SOL     OW58648   1.519   7.157   0.894
85584SOL    HW158649   1.457   7.101   0.940
85584SOL    HW258650   1.554   7.216   0.962
85585SOL     OW58651   4.144   3.066   6.889
85585SOL    HW158652   4.181   2.980   6.909
85585SOL    HW258653   4.076   3.078   6.955
85586SOL     OW58654   8.476   1.704  14.079
85586SOL    HW158655   8.472   1.631  14.140
85586SOL    HW258656   8.389   1.744  14.083
85587SOL     OW58657   7.913   4.496  11.918
85587SOL    HW158658   7.987   4.482  11.859
85587SOL    HW258659   7.847   4.434  11.888
85588SOL     OW58660   4.909  13.247  11.101
85588SOL    HW158661   4.869  13.173  11.055
85588SOL    HW258662   4.964  13.207  11.167
85589SOL     OW58663   4.973   9.579   2.318
85589SOL    HW158664   5.005   9.615   2.400
85589SOL    HW258665   4.933   9.653   2.272
85590SOL     OW58666   6.952   2.042  12.321
85590SOL    HW158667   6.994   2.009  12.242
85590SOL    HW258668   7.004   2.118  12.346
85591SOL     OW58669   4.803   4.095   5.473
85591SOL    HW158670   4.843   4.132   5.552
85591SOL    HW258671   4.796   4.169   5.413
85592SOL     OW58672   2.940   0.062  11.065
85592SOL    HW158673   2.989   0.120  11.123
85592SOL    HW258674   2.862   0.112  11.042
85593SOL     OW58675   4.748  14.699  12.075
85593SOL    HW158676   4.714  14.610  12.083
85593SOL    HW258677   4.841  14.688  12.059
85594SOL     OW58678  11.092  11.785   0.836
85594SOL    HW158679  11.107  11.693   0.859
85594SOL    HW258680  11.156  11.833   0.888
85595SOL     OW58681  14.703   4.850   0.759
85595SOL    HW158682  14.779   4.834   0.815
85595SOL    HW258683  14.674   4.938   0.784
85596SOL     OW58684   6.780  11.848   8.971
85596SOL    HW158685   6.761  11.870   9.062
85596SOL    HW258686   6.736  11.764   8.957
85597SOL     OW58687   3.895   1.286   3.125
85597SOL    HW158688   3.801   1.301   3.140
85597SOL    HW258689   3.914   1.205   3.172
85598SOL     OW58690  10.754   7.816  13.684
85598SOL    HW158691  10.703   7.736  13.696
85598SOL    HW258692  10.791   7.809  13.596
85599SOL     OW58693   3.000   6.608  10.205
85599SOL    HW158694   2.957   6.660  10.137
85599SOL    HW258695   2.928   6.576  10.260
85600SOL     OW58696  10.067   8.800   6.279
85600SOL    HW158697  10.154   8.774   6.250
85600SOL    HW258698  10.083   8.865   6.347
85601SOL     OW58699   7.988  10.637  13.580
85601SOL    HW158700   7.932  10.715  13.569
85601SOL    HW258701   7.982  10.617  13.673
85602SOL     OW58702   1.690   6.761  13.872
85602SOL    HW158703   1.599   6.749  13.897
85602SOL    HW258704   1.702   6.856  13.866
85603SOL     OW58705   6.931  11.338  10.072
85603SOL    HW158706   7.013  11.333  10.023
85603SOL    HW258707   6.863  11.330  10.005
85604SOL     OW58708   7.755   7.341  12.465
85604SOL    HW158709   7.759   7.248  12.442
85604SOL    HW258710   7.839   7.359  12.507
85605SOL     OW58711   7.484   1.715  11.671
85605SOL    HW158712   7.494   1.626  11.637
85605SOL    HW258713   7.412   1.709  11.733
85606SOL     OW58714  12.408  14.678  13.573
85606SOL    HW158715  12.378  14.758  13.616
85606SOL    HW258716  12.471  14.707  13.507
85607SOL     OW58717   4.446  13.765   9.183
85607SOL    HW158718   4.521  13.709   9.205
85607SOL    HW258719   4.381  13.705   9.147
85608SOL     OW58720  12.494   4.119   9.012
85608SOL    HW158721  12.412   4.114   9.061
85608SOL    HW258722  12.494   4.041   8.957
85609SOL     OW58723   1.224  14.183   2.109
85609SOL    HW158724   1.211  14.269   2.150
85609SOL    HW258725   1.152  14.130   2.142
85610SOL     OW58726   8.990  14.266   0.133
85610SOL    HW158727   8.904  14.228   0.116
85610SOL    HW258728   9.010  14.315   0.053
85611SOL     OW58729   8.859   2.258  13.901
85611SOL    HW158730   8.824   2.332  13.952
85611SOL    HW258731   8.877   2.295  13.815
85612SOL     OW58732  11.377   7.689  10.335
85612SOL    HW158733  11.356   7.781  10.316
85612SOL    HW258734  11.429   7.694  10.416
85613SOL     OW58735  10.511  10.288   1.359
85613SOL    HW158736  10.517  10.374   1.318
85613SOL    HW258737  10.420  10.262   1.349
85614SOL     OW58738  13.066   0.358   0.694
85614SOL    HW158739  13.021   0.434   0.731
85614SOL    HW258740  12.995   0.303   0.662
85615SOL     OW58741   3.808   2.085  14.588
85615SOL    HW158742   3.812   1.990  14.593
85615SOL    HW258743   3.779   2.103  14.498
85616SOL     OW58744   8.072  12.882   1.831
85616SOL    HW158745   8.099  12.904   1.920
85616SOL    HW258746   7.977  12.893   1.830
85617SOL     OW58747   6.939   5.899   1.316
85617SOL    HW158748   6.968   5.811   1.289
85617SOL    HW258749   7.007   5.928   1.376
85618SOL     OW58750  14.393  10.252   8.262
85618SOL    HW158751  14.301  10.255   8.236
85618SOL    HW258752  14.393  10.207   8.346
85619SOL     OW58753   9.039   6.449   5.784
85619SOL    HW158754   9.060   6.461   5.691
85619SOL    HW258755   9.073   6.362   5.806
85620SOL     OW58756   1.077   1.340   5.513
85620SOL    HW158757   1.082   1.259   5.565
85620SOL    HW258758   1.167   1.356   5.485
85621SOL     OW58759   3.023   9.626   0.361
85621SOL    HW158760   3.060   9.713   0.377
85621SOL    HW258761   3.034   9.580   0.444
85622SOL     OW58762  11.621   3.532   9.567
85622SOL    HW158763  11.667   3.513   9.485
85622SOL    HW258764  11.630   3.452   9.619
85623SOL     OW58765  14.798   5.856   3.877
85623SOL    HW158766  14.768   5.932   3.927
85623SOL    HW258767  14.727   5.839   3.815
85624SOL     OW58768   4.994  11.904   6.233
85624SOL    HW158769   5.067  11.921   6.291
85624SOL    HW258770   4.934  11.977   6.247
85625SOL     OW58771   8.460  10.034  10.071
85625SOL    HW158772   8.385  10.037  10.011
85625SOL    HW258773   8.420  10.034  10.158
85626SOL     OW58774   4.262   7.402   5.412
85626SOL    HW158775   4.339   7.409   5.469
85626SOL    HW258776   4.277   7.469   5.345
85627SOL     OW58777   6.013  12.996   2.906
85627SOL    HW158778   6.044  12.908   2.887
85627SOL    HW258779   6.073  13.029   2.973
85628SOL     OW58780  12.089   7.266  11.432
85628SOL    HW158781  12.029   7.315  11.377
85628SOL    HW258782  12.101   7.183  11.386
85629SOL     OW58783  12.045  13.793   6.105
85629SOL    HW158784  12.079  13.845   6.178
85629SOL    HW258785  12.028  13.707   6.143
85630SOL     OW58786   6.022  11.945  12.592
85630SOL    HW158787   5.967  12.006  12.642
85630SOL    HW258788   6.037  11.990  12.509
85631SOL     OW58789   8.880   7.967   2.580
85631SOL    HW158790   8.968   7.942   2.555
85631SOL    HW258791   8.872   8.058   2.551
85632SOL     OW58792   9.866   5.052   2.238
85632SOL    HW158793   9.831   5.061   2.326
85632SOL    HW258794   9.952   5.094   2.241
85633SOL     OW58795   3.810   5.144   9.253
85633SOL    HW158796   3.853   5.212   9.305
85633SOL    HW258797   3.867   5.132   9.177
85634SOL     OW58798   0.621  13.826   3.087
85634SOL    HW158799   0.648  13.909   3.127
85634SOL    HW258800   0.526  13.825   3.097
85635SOL     OW58801   5.717   2.912   0.252
85635SOL    HW158802   5.641   2.890   0.305
85635SOL    HW258803   5.786   2.852   0.282
85636SOL     OW58804  10.275   8.968   4.146
85636SOL    HW158805  10.311   8.893   4.097
85636SOL    HW258806  10.234   8.928   4.223
85637SOL     OW58807  12.381  14.553   7.731
85637SOL    HW158808  12.370  14.571   7.637
85637SOL    HW258809  12.449  14.613   7.759
85638SOL     OW58810   0.644   5.319   9.437
85638SOL    HW158811   0.572   5.257   9.425
85638SOL    HW258812   0.628   5.359   9.523
85639SOL     OW58813   6.563   5.085   4.651
85639SOL    HW158814   6.499   5.137   4.602
85639SOL    HW258815   6.553   5.113   4.742
85640SOL     OW58816   6.595  14.130  10.181
85640SOL    HW158817   6.659  14.061  10.165
85640SOL    HW258818   6.554  14.105  10.264
85641SOL     OW58819   2.926   9.322   4.087
85641SOL    HW158820   2.908   9.258   4.156
85641SOL    HW258821   3.008   9.363   4.114
85642SOL     OW58822   1.490   1.459  10.011
85642SOL    HW158823   1.421   1.439  10.074
85642SOL    HW258824   1.460   1.539   9.968
85643SOL     OW58825  11.481  11.728   1.753
85643SOL    HW158826  11.577  11.725   1.750
85643SOL    HW258827  11.460  11.753   1.843
85644SOL     OW58828  11.715  10.954  10.266
85644SOL    HW158829  11.697  10.951  10.360
85644SOL    HW258830  11.712  11.047  10.244
85645SOL     OW58831   5.396  12.461  10.012
85645SOL    HW158832   5.413  12.553  10.035
85645SOL    HW258833   5.400  12.459   9.916
85646SOL     OW58834  10.789   8.013  11.145
85646SOL    HW158835  10.701   7.979  11.128
85646SOL    HW258836  10.842   7.935  11.161
85647SOL     OW58837  10.014   7.126   1.540
85647SOL    HW158838  10.105   7.148   1.561
85647SOL    HW258839   9.988   7.192   1.475
85648SOL     OW58840  14.343   7.345   6.034
85648SOL    HW158841  14.255   7.383   6.027
85648SOL    HW258842  14.329   7.251   6.019
85649SOL     OW58843   2.797   8.962  10.585
85649SOL    HW158844   2.867   9.026  10.598
85649SOL    HW258845   2.818   8.891  10.645
85650SOL     OW58846   0.775   4.049   9.469
85650SOL    HW158847   0.839   3.978   9.471
85650SOL    HW258848   0.792   4.093   9.385
85651SOL     OW58849  12.769  12.518  11.810
85651SOL    HW158850  12.716  12.554  11.738
85651SOL    HW258851  12.708  12.514  11.884
85652SOL     OW58852  14.045   5.809   6.887
85652SOL    HW158853  14.014   5.737   6.941
85652SOL    HW258854  14.003   5.796   6.802
85653SOL     OW58855   6.218  13.102   7.394
85653SOL    HW158856   6.265  13.033   7.440
85653SOL    HW258857   6.209  13.069   7.305
85654SOL     OW58858  10.446   9.663   6.493
85654SOL    HW158859  10.394   9.607   6.436
85654SOL    HW258860  10.459   9.744   6.442
85655SOL     OW58861   4.348  14.405   7.763
85655SOL    HW158862   4.385  14.318   7.779
85655SOL    HW258863   4.262  14.403   7.806
85656SOL     OW58864   3.983   7.719   7.461
85656SOL    HW158865   3.957   7.661   7.532
85656SOL    HW258866   4.009   7.660   7.390
85657SOL     OW58867   8.065   1.583   3.427
85657SOL    HW158868   8.000   1.620   3.488
85657SOL    HW258869   8.014   1.562   3.348
85658SOL     OW58870   2.023   4.379  12.708
85658SOL    HW158871   1.969   4.452  12.736
85658SOL    HW258872   2.112   4.406  12.731
85659SOL     OW58873   3.951   0.687   2.045
85659SOL    HW158874   3.877   0.630   2.025
85659SOL    HW258875   4.028   0.639   2.017
85660SOL     OW58876  12.286   7.717   3.989
85660SOL    HW158877  12.379   7.726   3.967
85660SOL    HW258878  12.286   7.666   4.071
85661SOL     OW58879   0.902   4.412   0.137
85661SOL    HW158880   0.917   4.450   0.050
85661SOL    HW258881   0.863   4.483   0.188
85662SOL     OW58882   1.511   9.644   1.999
85662SOL    HW158883   1.601   9.676   1.986
85662SOL    HW258884   1.501   9.575   1.933
85663SOL     OW58885   9.075  10.842   8.402
85663SOL    HW158886   8.994  10.792   8.393
85663SOL    HW258887   9.129  10.815   8.327
85664SOL     OW58888   4.266   7.245  13.436
85664SOL    HW158889   4.332   7.176  13.431
85664SOL    HW258890   4.275   7.293  13.353
85665SOL     OW58891   2.818   4.558   0.779
85665SOL    HW158892   2.749   4.529   0.838
85665SOL    HW258893   2.868   4.478   0.760
85666SOL     OW58894   5.632   5.093  14.253
85666SOL    HW158895   5.720   5.119  14.282
85666SOL    HW258896   5.640   5.083  14.158
85667SOL     OW58897   1.245   6.060  12.200
85667SOL    HW158898   1.229   6.009  12.121
85667SOL    HW258899   1.160   6.062  12.244
85668SOL     OW58900   7.175  14.752   9.897
85668SOL    HW158901   7.188  14.796   9.813
85668SOL    HW258902   7.189  14.659   9.879
85669SOL     OW58903   5.281  13.578  12.206
85669SOL    HW158904   5.347  13.577  12.275
85669SOL    HW258905   5.203  13.615  12.248
85670SOL     OW58906   2.237   0.060  11.642
85670SOL    HW158907   2.262  14.841  11.659
85670SOL    HW258908   2.144   0.064  11.663
85671SOL     OW58909   2.121   9.251   4.821
85671SOL    HW158910   2.052   9.318   4.818
85671SOL    HW258911   2.081   9.174   4.781
85672SOL     OW58912  11.802  13.772   4.069
85672SOL    HW158913  11.836  13.732   3.988
85672SOL    HW258914  11.879  13.812   4.109
85673SOL     OW58915  12.110   3.642  12.692
85673SOL    HW158916  12.018   3.657  12.670
85673SOL    HW258917  12.151   3.620  12.608
85674SOL     OW58918  14.862   6.251   0.920
85674SOL    HW158919  14.784   6.196   0.914
85674SOL    HW258920   0.024   6.235   1.008
85675SOL     OW58921   1.904   8.125  10.305
85675SOL    HW158922   1.845   8.067  10.352
85675SOL    HW258923   1.865   8.212  10.315
85676SOL     OW58924  12.777  13.050   7.667
85676SOL    HW158925  12.779  12.999   7.586
85676SOL    HW258926  12.851  13.109   7.659
85677SOL     OW58927  12.097   5.958  13.489
85677SOL    HW158928  12.123   6.037  13.536
85677SOL    HW258929  12.037   5.989  13.421
85678SOL     OW58930  13.072   5.469   5.051
85678SOL    HW158931  13.113   5.547   5.090
85678SOL    HW258932  13.091   5.398   5.113
85679SOL     OW58933   4.598   0.847   4.759
85679SOL    HW158934   4.624   0.865   4.849
85679SOL    HW258935   4.679   0.853   4.709
85680SOL     OW58936   2.522   5.987  14.435
85680SOL    HW158937   2.432   5.976  14.405
85680SOL    HW258938   2.528   6.079  14.460
85681SOL     OW58939  11.175   0.892   3.227
85681SOL    HW158940  11.122   0.921   3.152
85681SOL    HW258941  11.145   0.948   3.299
85682SOL     OW58942   8.333  11.626   7.240
85682SOL    HW158943   8.373  11.708   7.212
85682SOL    HW258944   8.270  11.651   7.307
85683SOL     OW58945  12.335   8.607   9.246
85683SOL    HW158946  12.326   8.634   9.154
85683SOL    HW258947  12.369   8.518   9.242
85684SOL     OW58948   5.810  14.350   6.822
85684SOL    HW158949   5.835  14.371   6.731
85684SOL    HW258950   5.878  14.289   6.852
85685SOL     OW58951   9.895   8.507   3.183
85685SOL    HW158952   9.908   8.599   3.158
85685SOL    HW258953   9.943   8.457   3.117
85686SOL     OW58954   4.205   3.012   4.068
85686SOL    HW158955   4.156   3.089   4.097
85686SOL    HW258956   4.198   2.950   4.140
85687SOL     OW58957   8.483   8.797  14.673
85687SOL    HW158958   8.549   8.765  14.611
85687SOL    HW258959   8.401   8.796  14.623
85688SOL     OW58960   9.179   1.116  10.843
85688SOL    HW158961   9.162   1.209  10.825
85688SOL    HW258962   9.243   1.117  10.913
85689SOL     OW58963   3.425   8.968   1.184
85689SOL    HW158964   3.364   9.039   1.163
85689SOL    HW258965   3.510   8.999   1.153
85690SOL     OW58966   4.799   6.039   4.139
85690SOL    HW158967   4.737   6.079   4.077
85690SOL    HW258968   4.883   6.042   4.094
85691SOL     OW58969   9.211   6.246   4.320
85691SOL    HW158970   9.151   6.232   4.248
85691SOL    HW258971   9.298   6.248   4.279
85692SOL     OW58972   0.518   6.365  11.038
85692SOL    HW158973   0.594   6.419  11.063
85692SOL    HW258974   0.525   6.287  11.094
85693SOL     OW58975  13.642  14.283   7.580
85693SOL    HW158976  13.585  14.215   7.616
85693SOL    HW258977  13.724  14.273   7.628
85694SOL     OW58978  10.827   6.273   9.945
85694SOL    HW158979  10.903   6.331   9.937
85694SOL    HW258980  10.756   6.322   9.905
85695SOL     OW58981   5.712   7.262  10.764
85695SOL    HW158982   5.723   7.265  10.859
85695SOL    HW258983   5.646   7.328  10.745
85696SOL     OW58984   6.828  13.406   2.765
85696SOL    HW158985   6.844  13.463   2.690
85696SOL    HW258986   6.894  13.432   2.829
85697SOL     OW58987   7.795   0.804   8.997
85697SOL    HW158988   7.796   0.886   8.947
85697SOL    HW258989   7.702   0.780   9.002
85698SOL     OW58990   7.209  13.093   8.551
85698SOL    HW158991   7.237  13.150   8.480
85698SOL    HW258992   7.189  13.010   8.509
85699SOL     OW58993   9.141  10.555   9.750
85699SOL    HW158994   9.076  10.534   9.817
85699SOL    HW258995   9.128  10.649   9.732
85700SOL     OW58996  14.428  11.708   8.497
85700SOL    HW158997  14.487  11.726   8.569
85700SOL    HW258998  14.485  11.681   8.425
85701SOL     OW58999  14.549   8.525   0.643
85701SOL    HW159000  14.566   8.619   0.639
85701SOL    HW259001  14.520   8.510   0.733
85702SOL     OW59002  12.496  12.361  11.259
85702SOL    HW159003  12.443  12.439  11.277
85702SOL    HW259004  12.487  12.307  11.338
85703SOL     OW59005   8.096   5.309   1.414
85703SOL    HW159006   8.133   5.379   1.468
85703SOL    HW259007   8.007   5.338   1.395
85704SOL     OW59008  13.336   0.359   0.070
85704SOL    HW159009  13.282   0.395  14.872
85704SOL    HW259010  13.423   0.396   0.055
85705SOL     OW59011  14.796  10.920  13.767
85705SOL    HW159012  14.705  10.949  13.760
85705SOL    HW259013  14.828  10.923  13.677
85706SOL     OW59014   8.588  13.987   5.264
85706SOL    HW159015   8.548  14.031   5.339
85706SOL    HW259016   8.681  14.007   5.272
85707SOL     OW59017   1.199  11.785   8.403
85707SOL    HW159018   1.168  11.697   8.383
85707SOL    HW259019   1.293  11.783   8.383
85708SOL     OW59020  13.987   1.831   8.271
85708SOL    HW159021  14.074   1.793   8.283
85708SOL    HW259022  13.998   1.923   8.297
85709SOL     OW59023  12.062   4.126   4.892
85709SOL    HW159024  12.051   4.134   4.987
85709SOL    HW259025  11.996   4.062   4.866
85710SOL     OW59026  10.221   3.103   2.834
85710SOL    HW159027  10.231   3.183   2.885
85710SOL    HW259028  10.232   3.130   2.743
85711SOL     OW59029  11.310   1.784   2.254
85711SOL    HW159030  11.308   1.701   2.302
85711SOL    HW259031  11.261   1.845   2.310
85712SOL     OW59032   2.866   4.956   3.359
85712SOL    HW159033   2.801   4.886   3.350
85712SOL    HW259034   2.949   4.913   3.342
85713SOL     OW59035  13.764  11.017   7.717
85713SOL    HW159036  13.736  11.077   7.649
85713SOL    HW259037  13.761  11.068   7.798
85714SOL     OW59038   0.914   7.245  10.734
85714SOL    HW159039   0.885   7.214  10.819
85714SOL    HW259040   0.975   7.177  10.704
85715SOL     OW59041  12.642   5.355   8.314
85715SOL    HW159042  12.616   5.329   8.225
85715SOL    HW259043  12.565   5.400   8.349
85716SOL     OW59044  11.569   6.613  14.692
85716SOL    HW159045  11.602   6.595  14.780
85716SOL    HW259046  11.474   6.620  14.703
85717SOL     OW59047   5.200   3.064   6.783
85717SOL    HW159048   5.243   3.116   6.715
85717SOL    HW259049   5.269   3.049   6.848
85718SOL     OW59050   7.678   7.296   1.793
85718SOL    HW159051   7.619   7.252   1.854
85718SOL    HW259052   7.699   7.230   1.728
85719SOL     OW59053  11.854   8.497  10.639
85719SOL    HW159054  11.777   8.530  10.592
85719SOL    HW259055  11.824   8.415  10.679
85720SOL     OW59056   1.032   8.270   9.581
85720SOL    HW159057   1.120   8.296   9.609
85720SOL    HW259058   1.027   8.299   9.490
85721SOL     OW59059   3.455   5.265  10.693
85721SOL    HW159060   3.487   5.230  10.776
85721SOL    HW259061   3.387   5.203  10.665
85722SOL     OW59062   9.137   2.996  10.442
85722SOL    HW159063   9.158   2.967  10.530
85722SOL    HW259064   9.136   2.916  10.389
85723SOL     OW59065   2.259  10.320  10.829
85723SOL    HW159066   2.189  10.374  10.791
85723SOL    HW259067   2.277  10.360  10.914
85724SOL     OW59068   2.137   7.438   8.384
85724SOL    HW159069   2.170   7.414   8.470
85724SOL    HW259070   2.215   7.460   8.333
85725SOL     OW59071  11.229   2.709   5.047
85725SOL    HW159072  11.261   2.653   4.976
85725SOL    HW259073  11.134   2.715   5.032
85726SOL     OW59074   3.792   3.170   7.723
85726SOL    HW159075   3.822   3.253   7.686
85726SOL    HW259076   3.755   3.195   7.808
85727SOL     OW59077  12.976  12.730  13.420
85727SOL    HW159078  12.956  12.804  13.479
85727SOL    HW259079  12.957  12.764  13.333
85728SOL     OW59080  13.212   5.186   2.586
85728SOL    HW159081  13.174   5.267   2.554
85728SOL    HW259082  13.196   5.186   2.680
85729SOL     OW59083   1.953   3.982   0.714
85729SOL    HW159084   1.861   4.005   0.700
85729SOL    HW259085   1.972   4.010   0.803
85730SOL     OW59086  12.566   4.346   2.483
85730SOL    HW159087  12.556   4.314   2.573
85730SOL    HW259088  12.589   4.438   2.493
85731SOL     OW59089   7.725   0.337   9.838
85731SOL    HW159090   7.755   0.351   9.748
85731SOL    HW259091   7.639   0.296   9.830
85732SOL     OW59092   8.635   4.181   8.913
85732SOL    HW159093   8.554   4.224   8.886
85732SOL    HW259094   8.692   4.252   8.943
85733SOL     OW59095   4.989  11.940   7.104
85733SOL    HW159096   5.067  11.915   7.153
85733SOL    HW259097   4.938  11.859   7.098
85734SOL     OW59098  10.010   0.149   0.816
85734SOL    HW159099   9.920   0.137   0.848
85734SOL    HW259100  10.055   0.191   0.889
85735SOL     OW59101  14.555   2.120  12.599
85735SOL    HW159102  14.569   2.112  12.505
85735SOL    HW259103  14.634   2.083  12.639
85736SOL     OW59104   3.392   7.248   5.745
85736SOL    HW159105   3.421   7.170   5.791
85736SOL    HW259106   3.296   7.240   5.741
85737SOL     OW59107   8.836  12.744   9.022
85737SOL    HW159108   8.922  12.704   9.029
85737SOL    HW259109   8.832  12.804   9.097
85738SOL     OW59110  14.222   0.778   6.687
85738SOL    HW159111  14.254   0.832   6.614
85738SOL    HW259112  14.302   0.751   6.733
85739SOL     OW59113   3.988   9.664  10.651
85739SOL    HW159114   4.014   9.721  10.579
85739SOL    HW259115   3.966   9.724  10.722
85740SOL     OW59116   7.980   3.031  14.472
85740SOL    HW159117   7.887   3.007  14.473
85740SOL    HW259118   7.993   3.079  14.554
85741SOL     OW59119   2.290   9.712  12.101
85741SOL    HW159120   2.380   9.704  12.132
85741SOL    HW259121   2.239   9.660  12.163
85742SOL     OW59122  10.220   7.402  10.933
85742SOL    HW159123  10.198   7.315  10.899
85742SOL    HW259124  10.168   7.462  10.879
85743SOL     OW59125  11.442  10.935  12.248
85743SOL    HW159126  11.429  10.841  12.241
85743SOL    HW259127  11.409  10.958  12.334
85744SOL     OW59128  14.117  14.251   7.010
85744SOL    HW159129  14.073  14.198   6.944
85744SOL    HW259130  14.191  14.291   6.965
85745SOL     OW59131   0.831  11.926   6.230
85745SOL    HW159132   0.786  11.860   6.283
85745SOL    HW259133   0.768  11.950   6.163
85746SOL     OW59134   4.361   4.379  13.519
85746SOL    HW159135   4.315   4.304  13.556
85746SOL    HW259136   4.398   4.346  13.437
85747SOL     OW59137   5.146  13.073   0.698
85747SOL    HW159138   5.144  13.111   0.786
85747SOL    HW259139   5.230  13.026   0.695
85748SOL     OW59140   8.836   6.035   7.411
85748SOL    HW159141   8.796   6.121   7.422
85748SOL    HW259142   8.797   5.981   7.480
85749SOL     OW59143  10.239   0.810  13.069
85749SOL    HW159144  10.284   0.893  13.057
85749SOL    HW259145  10.196   0.817  13.155
85750SOL     OW59146  12.055   4.827  10.802
85750SOL    HW159147  12.112   4.750  10.812
85750SOL    HW259148  12.014   4.816  10.717
85751SOL     OW59149   9.553   3.003  11.635
85751SOL    HW159150   9.636   2.964  11.605
85751SOL    HW259151   9.559   2.999  11.731
85752SOL     OW59152  10.757  14.688   0.752
85752SOL    HW159153  10.736  14.646   0.835
85752SOL    HW259154  10.702  14.766   0.749
85753SOL     OW59155   1.066   1.271   1.933
85753SOL    HW159156   1.017   1.321   1.997
85753SOL    HW259157   1.035   1.303   1.848
85754SOL     OW59158  12.618   3.233   0.684
85754SOL    HW159159  12.576   3.199   0.763
85754SOL    HW259160  12.702   3.267   0.714
85755SOL     OW59161   8.921   6.085  12.165
85755SOL    HW159162   8.827   6.099  12.177
85755SOL    HW259163   8.930   5.991  12.154
85756SOL     OW59164   6.638  11.236   0.425
85756SOL    HW159165   6.582  11.206   0.354
85756SOL    HW259166   6.727  11.234   0.389
85757SOL     OW59167   7.785   2.577   0.676
85757SOL    HW159168   7.806   2.571   0.769
85757SOL    HW259169   7.729   2.501   0.659
85758SOL     OW59170   8.031  14.275  14.071
85758SOL    HW159171   8.056  14.206  14.133
85758SOL    HW259172   8.031  14.355  14.123
85759SOL     OW59173   5.367   3.586   7.768
85759SOL    HW159174   5.376   3.653   7.836
85759SOL    HW259175   5.457   3.571   7.738
85760SOL     OW59176   8.958   6.404  13.131
85760SOL    HW159177   8.878   6.414  13.079
85760SOL    HW259178   9.028   6.433  13.072
85761SOL     OW59179   2.443  13.133   3.334
85761SOL    HW159180   2.527  13.088   3.346
85761SOL    HW259181   2.464  13.226   3.345
85762SOL     OW59182   9.720   8.151  11.649
85762SOL    HW159183   9.626   8.150  11.669
85762SOL    HW259184   9.733   8.235  11.605
85763SOL     OW59185  11.431   0.279   2.280
85763SOL    HW159186  11.359   0.304   2.223
85763SOL    HW259187  11.390   0.252   2.362
85764SOL     OW59188  13.360  11.096  13.645
85764SOL    HW159189  13.447  11.088  13.685
85764SOL    HW259190  13.323  11.008  13.653
85765SOL     OW59191   3.252  12.106   3.816
85765SOL    HW159192   3.203  12.024   3.812
85765SOL    HW259193   3.233  12.150   3.733
85766SOL     OW59194   3.985  11.154   6.262
85766SOL    HW159195   3.922  11.088   6.233
85766SOL    HW259196   3.995  11.139   6.356
85767SOL     OW59197   0.178  12.838   9.589
85767SOL    HW159198   0.115  12.910   9.577
85767SOL    HW259199   0.262  12.875   9.563
85768SOL     OW59200  12.455   8.601   0.770
85768SOL    HW159201  12.393   8.625   0.839
85768SOL    HW259202  12.509   8.680   0.758
85769SOL     OW59203   2.443   9.482   6.224
85769SOL    HW159204   2.392   9.468   6.304
85769SOL    HW259205   2.484   9.397   6.208
85770SOL     OW59206   8.173   9.370   1.304
85770SOL    HW159207   8.088   9.360   1.262
85770SOL    HW259208   8.154   9.413   1.387
85771SOL     OW59209   2.377  14.658   6.505
85771SOL    HW159210   2.349  14.750   6.504
85771SOL    HW259211   2.472  14.662   6.492
85772SOL     OW59212   9.148   7.424  12.604
85772SOL    HW159213   9.150   7.444  12.510
85772SOL    HW259214   9.201   7.493  12.644
85773SOL     OW59215   9.239   3.857   6.848
85773SOL    HW159216   9.180   3.800   6.798
85773SOL    HW259217   9.300   3.797   6.891
85774SOL     OW59218   7.528   9.660  14.697
85774SOL    HW159219   7.538   9.565  14.703
85774SOL    HW259220   7.437   9.673  14.670
85775SOL     OW59221   4.851   4.937  12.645
85775SOL    HW159222   4.765   4.969  12.674
85775SOL    HW259223   4.845   4.934  12.550
85776SOL     OW59224   3.006   2.715  10.384
85776SOL    HW159225   2.988   2.808  10.368
85776SOL    HW259226   3.086   2.698  10.334
85777SOL     OW59227   9.865   6.894   2.890
85777SOL    HW159228   9.927   6.832   2.929
85777SOL    HW259229   9.873   6.973   2.944
85778SOL     OW59230  13.240   0.317   0.359
85778SOL    HW159231  13.252   0.295   0.267
85778SOL    HW259232  13.161   0.371   0.361
85779SOL     OW59233  10.606   1.826   4.934
85779SOL    HW159234  10.529   1.786   4.975
85779SOL    HW259235  10.631   1.895   4.995
85780SOL     OW59236  11.523   5.311   0.432
85780SOL    HW159237  11.603   5.311   0.379
85780SOL    HW259238  11.452   5.305   0.368
85781SOL     OW59239   4.386  11.270  14.297
85781SOL    HW159240   4.303  11.311  14.323
85781SOL    HW259241   4.397  11.294  14.205
85782SOL     OW59242  12.760   4.777   8.621
85782SOL    HW159243  12.683   4.790   8.676
85782SOL    HW259244  12.780   4.684   8.629
85783SOL     OW59245   4.933   6.027   7.809
85783SOL    HW159246   4.896   5.963   7.748
85783SOL    HW259247   4.886   6.013   7.891
85784SOL     OW59248  13.686   3.134   4.987
85784SOL    HW159249  13.710   3.201   4.923
85784SOL    HW259250  13.590   3.136   4.988
85785SOL     OW59251   0.897   4.737   8.248
85785SOL    HW159252   0.942   4.745   8.331
85785SOL    HW259253   0.835   4.665   8.261
85786SOL     OW59254   8.535  12.289   1.666
85786SOL    HW159255   8.453  12.240   1.667
85786SOL    HW259256   8.525  12.352   1.594
85787SOL     OW59257   6.502   1.349  10.410
85787SOL    HW159258   6.578   1.318  10.360
85787SOL    HW259259   6.476   1.429  10.366
85788SOL     OW59260  11.375  14.375   7.059
85788SOL    HW159261  11.428  14.369   7.138
85788SOL    HW259262  11.350  14.468   7.054
85789SOL     OW59263  11.961  14.541   4.482
85789SOL    HW159264  11.945  14.520   4.390
85789SOL    HW259265  11.889  14.501   4.529
85790SOL     OW59266   6.143  11.948   6.637
85790SOL    HW159267   6.061  11.986   6.668
85790SOL    HW259268   6.211  11.990   6.691
85791SOL     OW59269   7.624   7.330   4.983
85791SOL    HW159270   7.540   7.348   4.939
85791SOL    HW259271   7.671   7.413   4.979
85792SOL     OW59272   5.866   0.254   6.742
85792SOL    HW159273   5.777   0.235   6.713
85792SOL    HW259274   5.876   0.204   6.823
85793SOL     OW59275   9.209  10.032   3.824
85793SOL    HW159276   9.120  10.027   3.859
85793SOL    HW259277   9.265  10.028   3.901
85794SOL     OW59278  10.882  10.146  10.277
85794SOL    HW159279  10.956  10.197  10.245
85794SOL    HW259280  10.835  10.205  10.336
85795SOL     OW59281   2.790   7.671   1.414
85795SOL    HW159282   2.733   7.640   1.483
85795SOL    HW259283   2.731   7.704   1.346
85796SOL     OW59284   1.336   0.459  14.870
85796SOL    HW159285   1.391   0.381   0.002
85796SOL    HW259286   1.394   0.529  14.839
85797SOL     OW59287   1.136   5.755   0.417
85797SOL    HW159288   1.189   5.683   0.384
85797SOL    HW259289   1.151   5.826   0.354
85798SOL     OW59290  11.365  12.517   4.670
85798SOL    HW159291  11.410  12.581   4.614
85798SOL    HW259292  11.278  12.508   4.631
85799SOL     OW59293   5.363   1.866   5.108
85799SOL    HW159294   5.377   1.852   5.015
85799SOL    HW259295   5.388   1.958   5.122
85800SOL     OW59296  11.728  13.324   0.324
85800SOL    HW159297  11.808  13.297   0.368
85800SOL    HW259298  11.757  13.390   0.261
85801SOL     OW59299   0.901   5.760   3.099
85801SOL    HW159300   0.859   5.688   3.145
85801SOL    HW259301   0.910   5.730   3.009
85802SOL     OW59302  13.444   9.870   3.028
85802SOL    HW159303  13.351   9.873   3.004
85802SOL    HW259304  13.450   9.798   3.090
85803SOL     OW59305   7.079   8.526   6.429
85803SOL    HW159306   7.071   8.560   6.518
85803SOL    HW259307   7.001   8.473   6.416
85804SOL     OW59308  13.628   9.591   8.044
85804SOL    HW159309  13.582   9.647   7.982
85804SOL    HW259310  13.721   9.614   8.033
85805SOL     OW59311   3.794   6.666   8.371
85805SOL    HW159312   3.874   6.695   8.328
85805SOL    HW259313   3.789   6.572   8.351
85806SOL     OW59314   4.509   4.992   9.305
85806SOL    HW159315   4.547   5.079   9.295
85806SOL    HW259316   4.514   4.974   9.399
85807SOL     OW59317  12.814   1.421   9.406
85807SOL    HW159318  12.724   1.428   9.376
85807SOL    HW259319  12.817   1.474   9.486
85808SOL     OW59320   4.729   3.818   6.946
85808SOL    HW159321   4.781   3.738   6.952
85808SOL    HW259322   4.642   3.793   6.977
85809SOL     OW59323   8.839  12.467   2.047
85809SOL    HW159324   8.764  12.495   1.993
85809SOL    HW259325   8.800  12.438   2.129
85810SOL     OW59326  12.828  13.192  14.048
85810SOL    HW159327  12.893  13.262  14.055
85810SOL    HW259328  12.745  13.238  14.040
85811SOL     OW59329   7.995   0.127  11.855
85811SOL    HW159330   7.917   0.106  11.907
85811SOL    HW259331   7.988   0.070  11.779
85812SOL     OW59332  12.610   9.473   8.951
85812SOL    HW159333  12.595   9.438   8.863
85812SOL    HW259334  12.696   9.514   8.946
85813SOL     OW59335   9.789   0.267   0.595
85813SOL    HW159336   9.872   0.234   0.561
85813SOL    HW259337   9.723   0.211   0.556
85814SOL     OW59338  10.385   5.354  12.714
85814SOL    HW159339  10.344   5.409  12.647
85814SOL    HW259340  10.403   5.271  12.670
85815SOL     OW59341   1.090  13.839   1.108
85815SOL    HW159342   1.145  13.914   1.088
85815SOL    HW259343   1.063  13.805   1.022
85816SOL     OW59344  14.429   8.149  10.573
85816SOL    HW159345  14.501   8.123  10.515
85816SOL    HW259346  14.437   8.090  10.648
85817SOL     OW59347   9.159   4.154   2.888
85817SOL    HW159348   9.208   4.221   2.840
85817SOL    HW259349   9.071   4.190   2.897
85818SOL     OW59350  12.344   5.721   7.109
85818SOL    HW159351  12.421   5.761   7.150
85818SOL    HW259352  12.333   5.769   7.026
85819SOL     OW59353   7.143   5.939   4.475
85819SOL    HW159354   7.100   5.930   4.560
85819SOL    HW259355   7.084   5.993   4.423
85820SOL     OW59356   0.649  14.492   5.847
85820SOL    HW159357   0.733  14.521   5.883
85820SOL    HW259358   0.597  14.470   5.924
85821SOL     OW59359   6.528   4.802   4.699
85821SOL    HW159360   6.595   4.871   4.696
85821SOL    HW259361   6.458   4.839   4.754
85822SOL     OW59362   6.053  11.832  13.799
85822SOL    HW159363   6.123  11.879  13.755
85822SOL    HW259364   6.003  11.790  13.728
85823SOL     OW59365   9.808  12.136   7.008
85823SOL    HW159366   9.828  12.145   6.914
85823SOL    HW259367   9.882  12.087   7.044
85824SOL     OW59368  10.796   2.925   0.916
85824SOL    HW159369  10.885   2.908   0.947
85824SOL    HW259370  10.807   2.974   0.835
85825SOL     OW59371  13.348   2.410  14.694
85825SOL    HW159372  13.256   2.415  14.670
85825SOL    HW259373  13.351   2.441  14.784
85826SOL     OW59374   2.107  12.363   2.153
85826SOL    HW159375   2.198  12.340   2.134
85826SOL    HW259376   2.113  12.435   2.215
85827SOL     OW59377   2.552   8.787  14.095
85827SOL    HW159378   2.585   8.801  14.184
85827SOL    HW259379   2.591   8.859  14.044
85828SOL     OW59380  13.508   2.644  14.313
85828SOL    HW159381  13.413   2.637  14.318
85828SOL    HW259382  13.540   2.615  14.398
85829SOL     OW59383   9.070  12.018   8.533
85829SOL    HW159384   9.106  12.093   8.485
85829SOL    HW259385   8.999  11.986   8.478
85830SOL     OW59386  14.515  10.378   5.071
85830SOL    HW159387  14.542  10.450   5.129
85830SOL    HW259388  14.546  10.299   5.115
85831SOL     OW59389  14.718   1.707  12.545
85831SOL    HW159390  14.700   1.613  12.533
85831SOL    HW259391  14.802   1.721  12.502
85832SOL     OW59392   7.183   6.308   9.426
85832SOL    HW159393   7.150   6.360   9.353
85832SOL    HW259394   7.142   6.222   9.415
85833SOL     OW59395   6.831  11.891  14.473
85833SOL    HW159396   6.772  11.966  14.463
85833SOL    HW259397   6.846  11.886  14.567
85834SOL     OW59398  14.398   8.122   6.911
85834SOL    HW159399  14.405   8.200   6.966
85834SOL    HW259400  14.347   8.061   6.963
85835SOL     OW59401   7.144   7.268   6.212
85835SOL    HW159402   7.075   7.301   6.155
85835SOL    HW259403   7.206   7.225   6.152
85836SOL     OW59404   8.279  11.902   2.463
85836SOL    HW159405   8.288  11.832   2.528
85836SOL    HW259406   8.233  11.972   2.510
85837SOL     OW59407   0.447   8.352   2.352
85837SOL    HW159408   0.538   8.374   2.374
85837SOL    HW259409   0.416   8.300   2.426
85838SOL     OW59410   8.878  10.852  14.673
85838SOL    HW159411   8.925  10.820  14.750
85838SOL    HW259412   8.927  10.930  14.646
85839SOL     OW59413   6.700   1.086  12.603
85839SOL    HW159414   6.690   1.149  12.533
85839SOL    HW259415   6.612   1.052  12.618
85840SOL     OW59416   3.782   2.104   0.685
85840SOL    HW159417   3.798   2.199   0.684
85840SOL    HW259418   3.795   2.077   0.594
85841SOL     OW59419   2.959   2.174   9.226
85841SOL    HW159420   2.975   2.202   9.136
85841SOL    HW259421   2.956   2.256   9.276
85842SOL     OW59422   1.025   2.059  12.944
85842SOL    HW159423   0.930   2.065  12.953
85842SOL    HW259424   1.059   2.092  13.027
85843SOL     OW59425  12.278   9.278   6.763
85843SOL    HW159426  12.285   9.187   6.733
85843SOL    HW259427  12.345   9.324   6.713
85844SOL     OW59428   7.398   3.349   4.555
85844SOL    HW159429   7.419   3.261   4.523
85844SOL    HW259430   7.468   3.404   4.519
85845SOL     OW59431  12.752   8.883  12.318
85845SOL    HW159432  12.712   8.868  12.403
85845SOL    HW259433  12.778   8.975  12.319
85846SOL     OW59434   5.985   9.364   2.868
85846SOL    HW159435   6.029   9.352   2.953
85846SOL    HW259436   5.892   9.367   2.890
85847SOL     OW59437  10.979  10.669   9.886
85847SOL    HW159438  10.977  10.764   9.886
85847SOL    HW259439  10.897  10.643   9.928
85848SOL     OW59440   0.652   7.801  11.113
85848SOL    HW159441   0.694   7.878  11.150
85848SOL    HW259442   0.717   7.731  11.124
85849SOL     OW59443   8.696   0.855  11.216
85849SOL    HW159444   8.752   0.860  11.294
85849SOL    HW259445   8.654   0.769  11.223
85850SOL     OW59446   1.921   0.331  12.966
85850SOL    HW159447   1.981   0.395  13.004
85850SOL    HW259448   1.839   0.379  12.954
85851SOL     OW59449  12.047   7.728   4.946
85851SOL    HW159450  12.062   7.792   5.016
85851SOL    HW259451  11.991   7.661   4.986
85852SOL     OW59452   0.940  11.189  13.381
85852SOL    HW159453   0.967  11.111  13.331
85852SOL    HW259454   0.850  11.205  13.353
85853SOL     OW59455  10.876  14.249   9.706
85853SOL    HW159456  10.860  14.320   9.768
85853SOL    HW259457  10.800  14.191   9.716
85854SOL     OW59458   0.980   2.487   7.749
85854SOL    HW159459   1.022   2.414   7.794
85854SOL    HW259460   0.896   2.453   7.719
85855SOL     OW59461   1.929   1.137  10.867
85855SOL    HW159462   1.984   1.195  10.921
85855SOL    HW259463   1.948   1.162  10.777
85856SOL     OW59464   3.716  10.707  12.573
85856SOL    HW159465   3.685  10.715  12.483
85856SOL    HW259466   3.636  10.700  12.625
85857SOL     OW59467   9.793   7.294   4.568
85857SOL    HW159468   9.779   7.212   4.616
85857SOL    HW259469   9.823   7.266   4.481
85858SOL     OW59470  13.926   4.546  12.338
85858SOL    HW159471  13.951   4.618  12.281
85858SOL    HW259472  13.864   4.495  12.287
85859SOL     OW59473  10.679   7.697   0.474
85859SOL    HW159474  10.595   7.713   0.517
85859SOL    HW259475  10.732   7.653   0.540
85860SOL     OW59476   4.981  14.866   3.040
85860SOL    HW159477   5.041  14.845   2.969
85860SOL    HW259478   4.900  14.820   3.017
85861SOL     OW59479  14.367   0.914   2.413
85861SOL    HW159480  14.338   0.835   2.459
85861SOL    HW259481  14.454   0.932   2.449
85862SOL     OW59482   8.506   8.555   0.506
85862SOL    HW159483   8.505   8.582   0.414
85862SOL    HW259484   8.515   8.460   0.503
85863SOL     OW59485   6.983   5.072  12.674
85863SOL    HW159486   6.960   5.162  12.655
85863SOL    HW259487   6.921   5.045  12.742
85864SOL     OW59488   5.459  14.769   0.973
85864SOL    HW159489   5.367  14.741   0.972
85864SOL    HW259490   5.480  14.779   1.066
85865SOL     OW59491   0.412   8.652   6.979
85865SOL    HW159492   0.318   8.638   6.965
85865SOL    HW259493   0.425   8.744   6.959
85866SOL     OW59494   1.867   5.116   6.998
85866SOL    HW159495   1.791   5.152   6.953
85866SOL    HW259496   1.836   5.098   7.087
85867SOL     OW59497   4.487   0.934   7.551
85867SOL    HW159498   4.513   0.980   7.631
85867SOL    HW259499   4.532   0.982   7.481
85868SOL     OW59500  11.631  12.903  10.925
85868SOL    HW159501  11.689  12.936  10.994
85868SOL    HW259502  11.593  12.982  10.886
85869SOL     OW59503   0.972   2.191   3.769
85869SOL    HW159504   1.048   2.192   3.710
85869SOL    HW259505   0.930   2.107   3.752
85870SOL     OW59506   2.874  12.524   8.668
85870SOL    HW159507   2.963  12.551   8.687
85870SOL    HW259508   2.881  12.432   8.641
85871SOL     OW59509   6.335   6.446   0.233
85871SOL    HW159510   6.426   6.429   0.258
85871SOL    HW259511   6.327   6.541   0.235
85872SOL     OW59512  13.633   8.857   4.380
85872SOL    HW159513  13.559   8.805   4.409
85872SOL    HW259514  13.622   8.863   4.285
85873SOL     OW59515   1.697   5.679   9.094
85873SOL    HW159516   1.714   5.609   9.158
85873SOL    HW259517   1.765   5.668   9.028
85874SOL     OW59518   9.640   7.296   9.708
85874SOL    HW159519   9.582   7.363   9.746
85874SOL    HW259520   9.582   7.222   9.690
85875SOL     OW59521  13.575  11.536   9.890
85875SOL    HW159522  13.590  11.469   9.957
85875SOL    HW259523  13.609  11.616   9.929
85876SOL     OW59524   2.569  13.948   9.398
85876SOL    HW159525   2.646  14.002   9.379
85876SOL    HW259526   2.495  14.008   9.385
85877SOL     OW59527   6.913  13.460   3.783
85877SOL    HW159528   6.961  13.481   3.863
85877SOL    HW259529   6.886  13.545   3.748
85878SOL     OW59530  11.404   1.752  10.725
85878SOL    HW159531  11.346   1.790  10.658
85878SOL    HW259532  11.467   1.700  10.675
85879SOL     OW59533  14.001   6.013  13.881
85879SOL    HW159534  13.922   5.959  13.876
85879SOL    HW259535  14.060   5.975  13.816
85880SOL     OW59536  12.292   5.267  12.977
85880SOL    HW159537  12.270   5.295  12.888
85880SOL    HW259538  12.367   5.321  13.002
85881SOL     OW59539   4.433  10.196  13.496
85881SOL    HW159540   4.500  10.165  13.436
85881SOL    HW259541   4.432  10.291  13.484
85882SOL     OW59542   3.332   6.650  12.175
85882SOL    HW159543   3.301   6.713  12.240
85882SOL    HW259544   3.354   6.572  12.226
85883SOL     OW59545   4.542  10.918  11.561
85883SOL    HW159546   4.535  10.929  11.466
85883SOL    HW259547   4.559  10.825  11.573
85884SOL     OW59548  12.975  14.428  14.064
85884SOL    HW159549  13.049  14.370  14.082
85884SOL    HW259550  12.940  14.397  13.981
85885SOL     OW59551   2.921   7.908  11.565
85885SOL    HW159552   2.860   7.897  11.493
85885SOL    HW259553   2.872   7.958  11.631
85886SOL     OW59554   5.939   5.454   6.749
85886SOL    HW159555   5.856   5.489   6.782
85886SOL    HW259556   5.995   5.531   6.737
85887SOL     OW59557   4.944   2.344   5.778
85887SOL    HW159558   4.873   2.302   5.826
85887SOL    HW259559   5.016   2.282   5.783
85888SOL     OW59560  10.018  14.695   0.728
85888SOL    HW159561  10.011  14.673   0.821
85888SOL    HW259562   9.932  14.728   0.705
85889SOL     OW59563   8.046  11.398   5.062
85889SOL    HW159564   8.106  11.367   5.131
85889SOL    HW259565   8.101  11.406   4.984
85890SOL     OW59566   9.990  12.391   2.175
85890SOL    HW159567  10.034  12.426   2.252
85890SOL    HW259568  10.059  12.388   2.108
85891SOL     OW59569   1.246   1.586   0.280
85891SOL    HW159570   1.218   1.512   0.227
85891SOL    HW259571   1.203   1.572   0.365
85892SOL     OW59572  13.338  14.350   1.619
85892SOL    HW159573  13.416  14.300   1.593
85892SOL    HW259574  13.278  14.283   1.653
85893SOL     OW59575  12.942   8.625   8.942
85893SOL    HW159576  13.022   8.609   8.993
85893SOL    HW259577  12.910   8.538   8.919
85894SOL     OW59578   0.450  12.900   3.401
85894SOL    HW159579   0.495  12.957   3.463
85894SOL    HW259580   0.514  12.831   3.382
85895SOL     OW59581   5.281  12.964  12.479
85895SOL    HW159582   5.268  12.999  12.567
85895SOL    HW259583   5.376  12.957  12.471
85896SOL     OW59584  10.971   7.433  13.306
85896SOL    HW159585  10.926   7.410  13.387
85896SOL    HW259586  10.945   7.524  13.289
85897SOL     OW59587   8.852   6.286   2.380
85897SOL    HW159588   8.826   6.359   2.436
85897SOL    HW259589   8.824   6.208   2.428
85898SOL     OW59590   4.199   8.359   9.683
85898SOL    HW159591   4.189   8.448   9.649
85898SOL    HW259592   4.289   8.335   9.663
85899SOL     OW59593   9.607  10.803  13.777
85899SOL    HW159594   9.672  10.767  13.838
85899SOL    HW259595   9.565  10.873  13.827
85900SOL     OW59596   8.114   7.749   3.044
85900SOL    HW159597   8.179   7.749   2.973
85900SOL    HW259598   8.069   7.665   3.033
85901SOL     OW59599  14.350   6.451   3.637
85901SOL    HW159600  14.290   6.376   3.630
85901SOL    HW259601  14.380   6.466   3.547
85902SOL     OW59602  12.599   3.702  11.454
85902SOL    HW159603  12.600   3.690  11.359
85902SOL    HW259604  12.508   3.684  11.480
85903SOL     OW59605   0.675   1.831   5.879
85903SOL    HW159606   0.659   1.822   5.972
85903SOL    HW259607   0.770   1.841   5.871
85904SOL     OW59608   7.849  12.971  10.956
85904SOL    HW159609   7.908  13.021  10.900
85904SOL    HW259610   7.832  12.890  10.907
85905SOL     OW59611   5.716   6.998   8.671
85905SOL    HW159612   5.714   6.978   8.764
85905SOL    HW259613   5.646   7.062   8.659
85906SOL     OW59614   9.221   4.113   7.837
85906SOL    HW159615   9.215   4.152   7.924
85906SOL    HW259616   9.248   4.022   7.853
85907SOL     OW59617   4.303  11.245   3.138
85907SOL    HW159618   4.393  11.233   3.108
85907SOL    HW259619   4.251  11.191   3.079
85908SOL     OW59620  12.375   1.303   7.682
85908SOL    HW159621  12.325   1.356   7.621
85908SOL    HW259622  12.438   1.256   7.628
85909SOL     OW59623   7.060   7.426   0.916
85909SOL    HW159624   7.016   7.461   0.994
85909SOL    HW259625   6.989   7.405   0.856
85910SOL     OW59626  11.785  14.060   5.471
85910SOL    HW159627  11.690  14.052   5.474
85910SOL    HW259628  11.804  14.137   5.525
85911SOL     OW59629  11.825   0.139  14.543
85911SOL    HW159630  11.760   0.109  14.607
85911SOL    HW259631  11.839   0.063  14.486
85912SOL     OW59632  10.582  13.340   2.328
85912SOL    HW159633  10.638  13.354   2.405
85912SOL    HW259634  10.611  13.407   2.266
85913SOL     OW59635   4.961  12.358   9.394
85913SOL    HW159636   5.037  12.379   9.448
85913SOL    HW259637   4.953  12.263   9.399
85914SOL     OW59638  13.882   2.564   5.736
85914SOL    HW159639  13.973   2.593   5.748
85914SOL    HW259640  13.889   2.490   5.676
85915SOL     OW59641  11.128   6.271   2.715
85915SOL    HW159642  11.045   6.305   2.746
85915SOL    HW259643  11.186   6.347   2.711
85916SOL     OW59644   7.001   3.717  11.632
85916SOL    HW159645   7.018   3.735  11.724
85916SOL    HW259646   7.077   3.667  11.603
85917SOL     OW59647   3.562   1.278   3.800
85917SOL    HW159648   3.611   1.348   3.842
85917SOL    HW259649   3.480   1.320   3.771
85918SOL     OW59650  12.389   9.048  14.643
85918SOL    HW159651  12.466   9.103  14.654
85918SOL    HW259652  12.384   9.032  14.549
85919SOL     OW59653  13.818   5.304   0.646
85919SOL    HW159654  13.787   5.250   0.573
85919SOL    HW259655  13.743   5.311   0.705
85920SOL     OW59656  12.101   3.356  10.957
85920SOL    HW159657  12.147   3.381  10.877
85920SOL    HW259658  12.009   3.374  10.939
85921SOL     OW59659  14.171   7.602   3.298
85921SOL    HW159660  14.170   7.609   3.393
85921SOL    HW259661  14.138   7.686   3.267
85922SOL     OW59662   7.107   6.822  10.371
85922SOL    HW159663   7.126   6.876  10.448
85922SOL    HW259664   7.079   6.738  10.408
85923SOL     OW59665   1.785  10.479  13.711
85923SOL    HW159666   1.717  10.546  13.708
85923SOL    HW259667   1.836  10.500  13.789
85924SOL     OW59668   9.530  10.743   3.965
85924SOL    HW159669   9.454  10.749   3.907
85924SOL    HW259670   9.496  10.766   4.052
85925SOL     OW59671   3.323  10.392  10.301
85925SOL    HW159672   3.411  10.430  10.298
85925SOL    HW259673   3.284  10.429  10.380
85926SOL     OW59674   4.912   5.566   3.711
85926SOL    HW159675   5.004   5.590   3.726
85926SOL    HW259676   4.867   5.592   3.792
85927SOL     OW59677  13.678  10.292   1.342
85927SOL    HW159678  13.729  10.346   1.403
85927SOL    HW259679  13.742  10.234   1.302
85928SOL     OW59680   0.163   8.180   2.728
85928SOL    HW159681   0.093   8.131   2.687
85928SOL    HW259682   0.126   8.268   2.741
85929SOL     OW59683   6.867  11.677  10.014
85929SOL    HW159684   6.826  11.619   9.950
85929SOL    HW259685   6.961  11.673   9.993
85930SOL     OW59686  11.821  13.363   8.092
85930SOL    HW159687  11.840  13.419   8.167
85930SOL    HW259688  11.882  13.290   8.100
85931SOL     OW59689   3.510   2.381   6.499
85931SOL    HW159690   3.580   2.405   6.560
85931SOL    HW259691   3.468   2.464   6.477
85932SOL     OW59692  10.843  10.342   3.200
85932SOL    HW159693  10.920  10.386   3.237
85932SOL    HW259694  10.770  10.398   3.225
85933SOL     OW59695  11.116  11.026  14.129
85933SOL    HW159696  11.132  11.059  14.217
85933SOL    HW259697  11.024  11.044  14.113
85934SOL     OW59698  11.130  14.522   9.767
85934SOL    HW159699  11.190  14.511   9.693
85934SOL    HW259700  11.138  14.441   9.817
85935SOL     OW59701   2.442  13.410   7.243
85935SOL    HW159702   2.455  13.491   7.194
85935SOL    HW259703   2.355  13.379   7.218
85936SOL     OW59704   4.557  13.710  12.653
85936SOL    HW159705   4.534  13.699  12.745
85936SOL    HW259706   4.647  13.679  12.647
85937SOL     OW59707   5.064  13.837  13.218
85937SOL    HW159708   4.985  13.794  13.185
85937SOL    HW259709   5.136  13.788  13.178
85938SOL     OW59710   4.895   4.806  14.012
85938SOL    HW159711   4.954   4.869  14.054
85938SOL    HW259712   4.850   4.856  13.944
85939SOL     OW59713  10.087   7.460   4.716
85939SOL    HW159714  10.179   7.450   4.743
85939SOL    HW259715  10.037   7.446   4.797
85940SOL     OW59716   3.561  13.526  10.928
85940SOL    HW159717   3.649  13.526  10.968
85940SOL    HW259718   3.577  13.544  10.836
85941SOL     OW59719   7.060  11.268   4.470
85941SOL    HW159720   7.123  11.331   4.438
85941SOL    HW259721   7.058  11.281   4.565
85942SOL     OW59722   2.874  11.960   6.072
85942SOL    HW159723   2.847  11.877   6.112
85942SOL    HW259724   2.800  12.019   6.085
85943SOL     OW59725  10.526   3.408   9.257
85943SOL    HW159726  10.542   3.402   9.162
85943SOL    HW259727  10.603   3.455   9.290
85944SOL     OW59728   1.375   6.941   9.792
85944SOL    HW159729   1.423   6.910   9.869
85944SOL    HW259730   1.432   7.006   9.752
85945SOL     OW59731   6.978   5.134   4.322
85945SOL    HW159732   6.961   5.059   4.379
85945SOL    HW259733   6.962   5.210   4.377
85946SOL     OW59734  14.803   8.675   1.049
85946SOL    HW159735  14.826   8.590   1.011
85946SOL    HW259736   0.014   8.724   1.048
85947SOL     OW59737   3.666   4.081  12.642
85947SOL    HW159738   3.641   4.123  12.560
85947SOL    HW259739   3.638   3.990  12.632
85948SOL     OW59740   4.579   8.656  12.652
85948SOL    HW159741   4.672   8.635  12.647
85948SOL    HW259742   4.538   8.578  12.690
85949SOL     OW59743   8.404   0.343  12.836
85949SOL    HW159744   8.488   0.381  12.862
85949SOL    HW259745   8.371   0.302  12.916
85950SOL     OW59746   2.954  12.378   9.561
85950SOL    HW159747   2.928  12.412   9.647
85950SOL    HW259748   2.873  12.345   9.522
85951SOL     OW59749  12.252  13.384   7.446
85951SOL    HW159750  12.226  13.385   7.538
85951SOL    HW259751  12.194  13.319   7.406
85952SOL     OW59752   5.805   9.947   6.788
85952SOL    HW159753   5.746  10.013   6.824
85952SOL    HW259754   5.893   9.980   6.807
85953SOL     OW59755   8.533   1.606   7.957
85953SOL    HW159756   8.624   1.603   7.927
85953SOL    HW259757   8.522   1.696   7.990
85954SOL     OW59758   9.042  13.333   3.975
85954SOL    HW159759   9.121  13.299   4.016
85954SOL    HW259760   8.978  13.337   4.046
85955SOL     OW59761   5.604   9.835  12.670
85955SOL    HW159762   5.637   9.909  12.722
85955SOL    HW259763   5.655   9.837  12.589
85956SOL     OW59764  14.744   3.509  13.269
85956SOL    HW159765  14.794   3.434  13.300
85956SOL    HW259766  14.669   3.514  13.329
85957SOL     OW59767   2.593   0.139   5.282
85957SOL    HW159768   2.586   0.186   5.365
85957SOL    HW259769   2.530   0.067   5.291
85958SOL     OW59770   5.058   9.764   2.712
85958SOL    HW159771   4.963   9.772   2.717
85958SOL    HW259772   5.090   9.808   2.790
85959SOL     OW59773   1.749   2.146   2.182
85959SOL    HW159774   1.790   2.233   2.178
85959SOL    HW259775   1.667   2.156   2.134
85960SOL     OW59776   8.242   1.677   1.133
85960SOL    HW159777   8.213   1.674   1.042
85960SOL    HW259778   8.260   1.586   1.156
85961SOL     OW59779   6.422   7.459  13.062
85961SOL    HW159780   6.326   7.460  13.069
85961SOL    HW259781   6.444   7.546  13.029
85962SOL     OW59782   4.697   9.658   6.863
85962SOL    HW159783   4.680   9.664   6.957
85962SOL    HW259784   4.705   9.564   6.846
85963SOL     OW59785   7.222   6.558   0.507
85963SOL    HW159786   7.276   6.486   0.541
85963SOL    HW259787   7.285   6.615   0.462
85964SOL     OW59788   8.054   5.418  13.152
85964SOL    HW159789   8.004   5.470  13.089
85964SOL    HW259790   8.090   5.346  13.100
85965SOL     OW59791   3.173  11.743   7.258
85965SOL    HW159792   3.162  11.712   7.348
85965SOL    HW259793   3.242  11.809   7.264
85966SOL     OW59794   6.447   6.627   9.414
85966SOL    HW159795   6.458   6.719   9.440
85966SOL    HW259796   6.467   6.626   9.320
85967SOL     OW59797  10.641   0.613   5.035
85967SOL    HW159798  10.692   0.555   4.978
85967SOL    HW259799  10.696   0.624   5.113
85968SOL     OW59800   7.246   5.641   3.117
85968SOL    HW159801   7.284   5.596   3.192
85968SOL    HW259802   7.197   5.714   3.155
85969SOL     OW59803   0.247   6.722  13.504
85969SOL    HW159804   0.167   6.696  13.458
85969SOL    HW259805   0.307   6.749  13.435
85970SOL     OW59806   6.845   9.798   1.863
85970SOL    HW159807   6.858   9.867   1.928
85970SOL    HW259808   6.776   9.743   1.900
85971SOL     OW59809   0.059   7.345   6.799
85971SOL    HW159810   0.068   7.334   6.704
85971SOL    HW259811   0.013   7.428   6.809
85972SOL     OW59812   8.221   3.831   3.815
85972SOL    HW159813   8.215   3.809   3.722
85972SOL    HW259814   8.135   3.864   3.838
85973SOL     OW59815   3.570   5.657   0.757
85973SOL    HW159816   3.531   5.675   0.672
85973SOL    HW259817   3.496   5.646   0.817
85974SOL     OW59818   3.847  14.672  11.340
85974SOL    HW159819   3.870  14.581  11.358
85974SOL    HW259820   3.841  14.676  11.244
85975SOL     OW59821   8.122  12.612   9.952
85975SOL    HW159822   8.133  12.674  10.024
85975SOL    HW259823   8.205  12.567   9.945
85976SOL     OW59824   7.802   2.820   5.130
85976SOL    HW159825   7.886   2.818   5.084
85976SOL    HW259826   7.740   2.855   5.065
85977SOL     OW59827  11.300  11.561   6.177
85977SOL    HW159828  11.277  11.517   6.095
85977SOL    HW259829  11.287  11.494   6.245
85978SOL     OW59830   6.146  11.051   8.910
85978SOL    HW159831   6.086  10.977   8.909
85978SOL    HW259832   6.229  11.014   8.938
85979SOL     OW59833  14.058  14.592   7.098
85979SOL    HW159834  14.012  14.543   7.166
85979SOL    HW259835  14.139  14.621   7.140
85980SOL     OW59836   1.519  10.672  14.631
85980SOL    HW159837   1.483  10.714  14.709
85980SOL    HW259838   1.592  10.728  14.605
85981SOL     OW59839  13.976  13.995  13.858
85981SOL    HW159840  14.070  14.008  13.868
85981SOL    HW259841  13.967  13.901  13.842
85982SOL     OW59842   7.215   3.846  10.222
85982SOL    HW159843   7.266   3.803  10.291
85982SOL    HW259844   7.162   3.776  10.184
85983SOL     OW59845   5.492   4.033   3.386
85983SOL    HW159846   5.541   4.095   3.333
85983SOL    HW259847   5.535   3.949   3.369
85984SOL     OW59848   3.491   8.113   7.532
85984SOL    HW159849   3.585   8.114   7.550
85984SOL    HW259850   3.471   8.020   7.516
85985SOL     OW59851   2.512   8.842   9.767
85985SOL    HW159852   2.599   8.866   9.799
85985SOL    HW259853   2.486   8.915   9.710
85986SOL     OW59854  13.577   3.768   3.006
85986SOL    HW159855  13.512   3.801   2.945
85986SOL    HW259856  13.656   3.754   2.952
85987SOL     OW59857   1.294   3.470   6.363
85987SOL    HW159858   1.369   3.445   6.310
85987SOL    HW259859   1.218   3.449   6.309
85988SOL     OW59860   0.026   5.449   1.517
85988SOL    HW159861   0.099   5.502   1.485
85988SOL    HW259862  14.842   5.435   1.440
85989SOL     OW59863  14.126   1.489  13.691
85989SOL    HW159864  14.195   1.518  13.751
85989SOL    HW259865  14.111   1.398  13.714
85990SOL     OW59866  14.301   2.542   9.600
85990SOL    HW159867  14.317   2.488   9.522
85990SOL    HW259868  14.210   2.524   9.623
85991SOL     OW59869   3.744   4.605   3.534
85991SOL    HW159870   3.771   4.573   3.620
85991SOL    HW259871   3.778   4.541   3.472
85992SOL     OW59872   7.448  11.496   4.515
85992SOL    HW159873   7.521  11.517   4.574
85992SOL    HW259874   7.483  11.431   4.454
85993SOL     OW59875   3.243  11.148   5.113
85993SOL    HW159876   3.252  11.210   5.185
85993SOL    HW259877   3.179  11.188   5.055
85994SOL     OW59878   9.034   0.769  12.760
85994SOL    HW159879   8.990   0.817  12.690
85994SOL    HW259880   9.088   0.704  12.715
85995SOL     OW59881   8.210   8.919  12.556
85995SOL    HW159882   8.296   8.935  12.595
85995SOL    HW259883   8.228   8.889  12.468
85996SOL     OW59884  13.295   5.276   4.279
85996SOL    HW159885  13.362   5.276   4.348
85996SOL    HW259886  13.330   5.333   4.211
85997SOL     OW59887   8.018   4.994   5.226
85997SOL    HW159888   8.083   5.063   5.216
85997SOL    HW259889   7.948   5.033   5.277
85998SOL     OW59890  13.356  12.327   5.553
85998SOL    HW159891  13.270  12.364   5.532
85998SOL    HW259892  13.414  12.361   5.485
85999SOL     OW59893   0.091  12.321  14.710
85999SOL    HW159894   0.162  12.330  14.647
85999SOL    HW259895   0.121  12.371  14.786
86000SOL     OW59896  11.665   5.084   3.906
86000SOL    HW159897  11.741   5.142   3.906
86000SOL    HW259898  11.623   5.100   3.822
86001SOL     OW59899  11.628  11.877  13.255
86001SOL    HW159900  11.551  11.908  13.302
86001SOL    HW259901  11.614  11.904  13.165
86002SOL     OW59902   8.329   4.542   5.130
86002SOL    HW159903   8.370   4.480   5.069
86002SOL    HW259904   8.236   4.539   5.108
86003SOL     OW59905   9.613  14.618   8.337
86003SOL    HW159906   9.616  14.638   8.244
86003SOL    HW259907   9.525  14.644   8.365
86004SOL     OW59908  11.940   3.931   7.263
86004SOL    HW159909  11.939   3.849   7.311
86004SOL    HW259910  11.866   3.980   7.297
86005SOL     OW59911   6.386   8.307  11.560
86005SOL    HW159912   6.376   8.394  11.523
86005SOL    HW259913   6.345   8.249  11.495
86006SOL     OW59914   3.425   0.857  11.178
86006SOL    HW159915   3.506   0.893  11.213
86006SOL    HW259916   3.358   0.921  11.203
86007SOL     OW59917  14.018   8.303   5.318
86007SOL    HW159918  13.923   8.294   5.326
86007SOL    HW259919  14.042   8.241   5.250
86008SOL     OW59920   0.832   9.568   8.300
86008SOL    HW159921   0.801   9.504   8.364
86008SOL    HW259922   0.866   9.640   8.353
86009SOL     OW59923  10.640   9.575   0.900
86009SOL    HW159924  10.645   9.665   0.932
86009SOL    HW259925  10.708   9.570   0.832
86010SOL     OW59926   2.592  12.848  12.974
86010SOL    HW159927   2.662  12.815  13.029
86010SOL    HW259928   2.518  12.788  12.991
86011SOL     OW59929   0.040   5.817  11.227
86011SOL    HW159930  14.839   5.859  11.272
86011SOL    HW259931  14.871   5.753  11.169
86012SOL     OW59932   1.244   5.672  10.972
86012SOL    HW159933   1.337   5.683  10.992
86012SOL    HW259934   1.240   5.679  10.877
86013SOL     OW59935   3.136   1.446  11.620
86013SOL    HW159936   3.131   1.446  11.716
86013SOL    HW259937   3.171   1.533  11.598
86014SOL     OW59938  13.126  11.011  12.280
86014SOL    HW159939  13.106  11.091  12.328
86014SOL    HW259940  13.110  11.033  12.188
86015SOL     OW59941   1.233   8.365  10.117
86015SOL    HW159942   1.316   8.408  10.137
86015SOL    HW259943   1.252   8.311  10.040
86016SOL     OW59944   2.320  12.596   4.444
86016SOL    HW159945   2.315  12.543   4.524
86016SOL    HW259946   2.374  12.544   4.384
86017SOL     OW59947  14.525   7.263   0.960
86017SOL    HW159948  14.473   7.343   0.969
86017SOL    HW259949  14.615   7.293   0.955
86018SOL     OW59950   3.309  10.285  12.234
86018SOL    HW159951   3.276  10.314  12.149
86018SOL    HW259952   3.387  10.235  12.214
86019SOL     OW59953   1.685  12.259   6.513
86019SOL    HW159954   1.734  12.176   6.512
86019SOL    HW259955   1.595  12.234   6.532
86020SOL     OW59956  14.327   0.055   7.935
86020SOL    HW159957  14.331  14.838   7.899
86020SOL    HW259958  14.405   0.098   7.901
86021SOL     OW59959   4.064  12.363  11.262
86021SOL    HW159960   4.129  12.319  11.206
86021SOL    HW259961   4.099  12.452  11.272
86022SOL     OW59962  11.928  12.540   0.846
86022SOL    HW159963  11.977  12.556   0.765
86022SOL    HW259964  11.842  12.512   0.817
86023SOL     OW59965   4.269   2.994   2.497
86023SOL    HW159966   4.336   2.937   2.533
86023SOL    HW259967   4.296   3.082   2.522
86024SOL     OW59968   0.074   4.113   6.822
86024SOL    HW159969   0.139   4.154   6.765
86024SOL    HW259970  14.862   4.130   6.779
86025SOL     OW59971   6.449   3.424   9.736
86025SOL    HW159972   6.447   3.483   9.811
86025SOL    HW259973   6.488   3.344   9.769
86026SOL     OW59974   2.072  14.708   4.351
86026SOL    HW159975   2.007  14.688   4.284
86026SOL    HW259976   2.153  14.726   4.302
86027SOL     OW59977  12.029   0.166   1.478
86027SOL    HW159978  11.948   0.126   1.447
86027SOL    HW259979  12.015   0.177   1.572
86028SOL     OW59980   9.410   2.920   9.609
86028SOL    HW159981   9.404   2.960   9.523
86028SOL    HW259982   9.339   2.960   9.660
86029SOL     OW59983  13.577   7.690  12.088
86029SOL    HW159984  13.535   7.774  12.108
86029SOL    HW259985  13.560   7.677  11.995
86030SOL     OW59986  12.813  11.207  12.219
86030SOL    HW159987  12.791  11.281  12.162
86030SOL    HW259988  12.743  11.143  12.203
86031SOL     OW59989  12.749   3.127  13.552
86031SOL    HW159990  12.667   3.113  13.600
86031SOL    HW259991  12.805   3.054  13.578
86032SOL     OW59992   3.970   8.279  13.132
86032SOL    HW159993   3.907   8.273  13.204
86032SOL    HW259994   3.921   8.321  13.061
86033SOL     OW59995   5.444   5.441   8.419
86033SOL    HW159996   5.371   5.501   8.435
86033SOL    HW259997   5.416   5.358   8.457
86034SOL     OW59998   9.757   7.859  10.081
86034SOL    HW159999   9.833   7.860  10.140
86034SOL    HW260000   9.762   7.942  10.034
86035SOL     OW60001  14.732   3.541   1.285
86035SOL    HW160002  14.826   3.529   1.299
86035SOL    HW260003  14.696   3.557   1.373
86036SOL     OW60004   4.134  10.967  13.326
86036SOL    HW160005   4.167  11.057  13.325
86036SOL    HW260006   4.082  10.959  13.247
86037SOL     OW60007   4.339   3.443   5.699
86037SOL    HW160008   4.387   3.398   5.769
86037SOL    HW260009   4.248   3.440   5.729
86038SOL     OW60010  10.792   6.489   8.002
86038SOL    HW160011  10.832   6.408   8.032
86038SOL    HW260012  10.811   6.492   7.908
86039SOL     OW60013   1.280   3.293   0.477
86039SOL    HW160014   1.273   3.388   0.490
86039SOL    HW260015   1.291   3.283   0.382
86040SOL     OW60016   8.088   4.118   2.425
86040SOL    HW160017   8.089   4.050   2.493
86040SOL    HW260018   8.106   4.070   2.344
86041SOL     OW60019   4.299   4.971   2.013
86041SOL    HW160020   4.366   4.903   2.017
86041SOL    HW260021   4.329   5.039   2.074
86042SOL     OW60022   7.342  13.544  10.961
86042SOL    HW160023   7.332  13.546  10.866
86042SOL    HW260024   7.380  13.458  10.980
86043SOL     OW60025   3.152   9.101   6.957
86043SOL    HW160026   3.071   9.071   6.997
86043SOL    HW260027   3.158   9.193   6.981
86044SOL     OW60028  11.865   0.286  12.484
86044SOL    HW160029  11.827   0.370  12.510
86044SOL    HW260030  11.791   0.236  12.449
86045SOL     OW60031   1.388  13.523   0.100
86045SOL    HW160032   1.392  13.566   0.186
86045SOL    HW260033   1.409  13.592   0.037
86046SOL     OW60034   3.495   0.033  14.820
86046SOL    HW160035   3.506   0.117  14.864
86046SOL    HW260036   3.557  14.846  14.864
86047SOL     OW60037   0.597   5.295   8.969
86047SOL    HW160038   0.676   5.345   8.992
86047SOL    HW260039   0.628   5.231   8.906
86048SOL     OW60040   5.984   3.614  12.128
86048SOL    HW160041   5.985   3.562  12.047
86048SOL    HW260042   5.899   3.592  12.168
86049SOL     OW60043   1.586   4.171   0.086
86049SOL    HW160044   1.621   4.246   0.038
86049SOL    HW260045   1.603   4.096   0.029
86050SOL     OW60046  11.724   5.606   1.847
86050SOL    HW160047  11.804   5.658   1.857
86050SOL    HW260048  11.733   5.564   1.762
86051SOL     OW60049   9.768   6.840   9.288
86051SOL    HW160050   9.854   6.876   9.308
86051SOL    HW260051   9.783   6.746   9.279
86052SOL     OW60052   2.267   2.282  12.027
86052SOL    HW160053   2.229   2.238  12.104
86052SOL    HW260054   2.258   2.219  11.956
86053SOL     OW60055   5.014   0.228   9.063
86053SOL    HW160056   4.993   0.265   9.148
86053SOL    HW260057   5.106   0.202   9.070
86054SOL     OW60058  13.963   8.613   2.792
86054SOL    HW160059  13.876   8.595   2.829
86054SOL    HW260060  13.988   8.531   2.750
86055SOL     OW60061  10.681   9.559   2.810
86055SOL    HW160062  10.768   9.521   2.820
86055SOL    HW260063  10.687   9.611   2.730
86056SOL     OW60064   7.760  13.502   0.597
86056SOL    HW160065   7.840  13.452   0.612
86056SOL    HW260066   7.728  13.471   0.512
86057SOL     OW60067  10.001  14.011   7.457
86057SOL    HW160068  10.058  13.970   7.523
86057SOL    HW260069   9.917  14.021   7.502
86058SOL     OW60070  13.005   6.556  13.540
86058SOL    HW160071  13.052   6.515  13.612
86058SOL    HW260072  12.966   6.635  13.578
86059SOL     OW60073   0.144   2.927  12.602
86059SOL    HW160074   0.192   2.911  12.521
86059SOL    HW260075   0.175   2.860  12.663
86060SOL     OW60076   9.870   2.505  12.587
86060SOL    HW160077   9.797   2.444  12.589
86060SOL    HW260078   9.836   2.584  12.629
86061SOL     OW60079   1.354  12.041   1.349
86061SOL    HW160080   1.312  12.076   1.270
86061SOL    HW260081   1.396  12.117   1.389
86062SOL     OW60082   3.118   3.382   1.479
86062SOL    HW160083   3.127   3.409   1.387
86062SOL    HW260084   3.172   3.303   1.486
86063SOL     OW60085  14.525   2.058   5.760
86063SOL    HW160086  14.555   2.148   5.756
86063SOL    HW260087  14.602   2.008   5.787
86064SOL     OW60088   9.444  13.723  10.422
86064SOL    HW160089   9.529  13.725  10.378
86064SOL    HW260090   9.384  13.688  10.357
86065SOL     OW60091   6.850  14.622   0.140
86065SOL    HW160092   6.870  14.535   0.108
86065SOL    HW260093   6.813  14.608   0.227
86066SOL     OW60094   4.611  12.386   2.815
86066SOL    HW160095   4.669  12.429   2.877
86066SOL    HW260096   4.523  12.413   2.840
86067SOL     OW60097  11.015   2.159  13.090
86067SOL    HW160098  11.019   2.225  13.020
86067SOL    HW260099  11.098   2.112  13.083
86068SOL     OW60100   5.341   2.267   9.915
86068SOL    HW160101   5.332   2.191   9.859
86068SOL    HW260102   5.334   2.233  10.004
86069SOL     OW60103   2.280   8.419   3.863
86069SOL    HW160104   2.362   8.465   3.877
86069SOL    HW260105   2.218   8.487   3.837
86070SOL     OW60106   8.517  13.661   1.773
86070SOL    HW160107   8.553  13.587   1.724
86070SOL    HW260108   8.526  13.636   1.864
86071SOL     OW60109   5.669   8.656   8.195
86071SOL    HW160110   5.641   8.567   8.215
86071SOL    HW260111   5.589   8.701   8.169
86072SOL     OW60112  14.581   7.708   1.627
86072SOL    HW160113  14.521   7.719   1.701
86072SOL    HW260114  14.589   7.613   1.616
86073SOL     OW60115   8.270   2.999  14.282
86073SOL    HW160116   8.294   3.035  14.368
86073SOL    HW260117   8.179   3.026  14.271
86074SOL     OW60118   3.324  10.623   8.261
86074SOL    HW160119   3.359  10.661   8.342
86074SOL    HW260120   3.247  10.574   8.289
86075SOL     OW60121  14.216   6.924   1.941
86075SOL    HW160122  14.262   6.972   1.873
86075SOL    HW260123  14.135   6.895   1.900
86076SOL     OW60124  14.196   6.343   5.473
86076SOL    HW160125  14.196   6.352   5.568
86076SOL    HW260126  14.276   6.389   5.445
86077SOL     OW60127   6.196   1.402   5.168
86077SOL    HW160128   6.195   1.373   5.259
86077SOL    HW260129   6.289   1.411   5.147
86078SOL     OW60130   7.876   2.693  12.466
86078SOL    HW160131   7.915   2.638  12.534
86078SOL    HW260132   7.914   2.780  12.480
86079SOL     OW60133   7.947   5.215   5.701
86079SOL    HW160134   7.970   5.158   5.775
86079SOL    HW260135   7.856   5.192   5.682
86080SOL     OW60136   9.288  14.856   4.317
86080SOL    HW160137   9.343  14.777   4.316
86080SOL    HW260138   9.268   0.001   4.225
86081SOL     OW60139   6.988  14.257   2.039
86081SOL    HW160140   6.947  14.340   2.061
86081SOL    HW260141   6.983  14.253   1.943
86082SOL     OW60142   4.939   3.816   1.465
86082SOL    HW160143   4.990   3.888   1.429
86082SOL    HW260144   4.962   3.740   1.411
86083SOL     OW60145   5.948   4.959  13.193
86083SOL    HW160146   5.929   5.048  13.222
86083SOL    HW260147   6.006   4.971  13.117
86084SOL     OW60148  14.617   6.615  13.230
86084SOL    HW160149  14.576   6.660  13.156
86084SOL    HW260150  14.641   6.529  13.196
86085SOL     OW60151   2.482   3.860   5.025
86085SOL    HW160152   2.500   3.913   5.102
86085SOL    HW260153   2.566   3.851   4.981
86086SOL     OW60154  11.897  14.128  12.540
86086SOL    HW160155  11.967  14.160  12.596
86086SOL    HW260156  11.824  14.112  12.600
86087SOL     OW60157   8.043   8.629   1.526
86087SOL    HW160158   8.089   8.634   1.442
86087SOL    HW260159   8.045   8.718   1.560
86088SOL     OW60160   8.218  12.294   1.347
86088SOL    HW160161   8.160  12.237   1.399
86088SOL    HW260162   8.249  12.359   1.410
86089SOL     OW60163   6.573   4.419  11.792
86089SOL    HW160164   6.539   4.499  11.754
86089SOL    HW260165   6.591   4.442  11.884
86090SOL     OW60166   0.551   8.037  14.201
86090SOL    HW160167   0.539   8.131  14.210
86090SOL    HW260168   0.584   8.025  14.112
86091SOL     OW60169  11.143   6.455   1.953
86091SOL    HW160170  11.213   6.403   1.993
86091SOL    HW260171  11.185   6.539   1.932
86092SOL     OW60172  10.385  11.138  11.280
86092SOL    HW160173  10.443  11.080  11.230
86092SOL    HW260174  10.431  11.152  11.363
86093SOL     OW60175   3.182  13.659   0.529
86093SOL    HW160176   3.172  13.563   0.532
86093SOL    HW260177   3.268  13.675   0.567
86094SOL     OW60178  14.338   1.570   6.839
86094SOL    HW160179  14.313   1.530   6.922
86094SOL    HW260180  14.273   1.640   6.826
86095SOL     OW60181   7.456   6.541   5.063
86095SOL    HW160182   7.550   6.523   5.076
86095SOL    HW260183   7.436   6.609   5.128
86096SOL     OW60184   9.907   6.929   4.652
86096SOL    HW160185   9.924   6.836   4.666
86096SOL    HW260186   9.973   6.974   4.705
86097SOL     OW60187   2.858  13.993   9.101
86097SOL    HW160188   2.886  14.027   9.186
86097SOL    HW260189   2.923  13.927   9.079
86098SOL     OW60190   7.575   2.399  10.989
86098SOL    HW160191   7.536   2.463  11.048
86098SOL    HW260192   7.652   2.442  10.953
86099SOL     OW60193  12.035   8.609  13.609
86099SOL    HW160194  11.956   8.568  13.576
86099SOL    HW260195  12.038   8.694  13.566
86100SOL     OW60196   7.468   2.674  10.607
86100SOL    HW160197   7.501   2.669  10.517
86100SOL    HW260198   7.494   2.591  10.647
86101SOL     OW60199  14.657   8.125  10.426
86101SOL    HW160200  14.665   8.177  10.347
86101SOL    HW260201  14.716   8.050  10.411
86102SOL     OW60202   1.206  13.649  12.796
86102SOL    HW160203   1.205  13.602  12.713
86102SOL    HW260204   1.115  13.679  12.808
86103SOL     OW60205   2.089   3.021  11.001
86103SOL    HW160206   2.163   3.006  10.942
86103SOL    HW260207   2.032   3.082  10.954
86104SOL     OW60208   2.769   1.400   6.105
86104SOL    HW160209   2.827   1.367   6.173
86104SOL    HW260210   2.698   1.442   6.153
86105SOL     OW60211  10.197   3.962   0.726
86105SOL    HW160212  10.182   3.979   0.633
86105SOL    HW260213  10.276   4.012   0.747
86106SOL     OW60214   1.875   3.257  12.870
86106SOL    HW160215   1.831   3.244  12.786
86106SOL    HW260216   1.937   3.329  12.854
86107SOL     OW60217   6.316   6.903   5.707
86107SOL    HW160218   6.289   6.812   5.703
86107SOL    HW260219   6.383   6.912   5.639
86108SOL     OW60220   1.364  14.659   5.901
86108SOL    HW160221   1.280  14.690   5.936
86108SOL    HW260222   1.351  14.659   5.806
86109SOL     OW60223   2.935   1.083  12.132
86109SOL    HW160224   2.957   1.026  12.058
86109SOL    HW260225   2.839   1.084  12.134
86110SOL     OW60226   5.209   0.090   3.849
86110SOL    HW160227   5.184  14.869   3.839
86110SOL    HW260228   5.125   0.137   3.851
86111SOL     OW60229  10.676   9.282   5.024
86111SOL    HW160230  10.731   9.305   4.949
86111SOL    HW260231  10.690   9.353   5.086
86112SOL     OW60232   4.359  11.865  12.684
86112SOL    HW160233   4.360  11.859  12.588
86112SOL    HW260234   4.446  11.897  12.707
86113SOL     OW60235   5.768  11.855   3.336
86113SOL    HW160236   5.831  11.784   3.340
86113SOL    HW260237   5.745  11.872   3.428
86114SOL     OW60238  10.330   4.194   3.367
86114SOL    HW160239  10.373   4.115   3.400
86114SOL    HW260240  10.273   4.163   3.296
86115SOL     OW60241   8.600   9.079   3.364
86115SOL    HW160242   8.691   9.107   3.374
86115SOL    HW260243   8.561   9.091   3.450
86116SOL     OW60244   2.510   7.027   0.635
86116SOL    HW160245   2.564   6.948   0.627
86116SOL    HW260246   2.429   7.005   0.590
86117SOL     OW60247   2.374   7.969   3.509
86117SOL    HW160248   2.409   8.054   3.480
86117SOL    HW260249   2.365   7.918   3.428
86118SOL     OW60250  10.409   4.616   1.099
86118SOL    HW160251  10.441   4.543   1.152
86118SOL    HW260252  10.335   4.579   1.049
86119SOL     OW60253   7.910   2.560   3.833
86119SOL    HW160254   7.994   2.592   3.799
86119SOL    HW260255   7.933   2.479   3.879
86120SOL     OW60256  12.128   8.603   8.056
86120SOL    HW160257  12.190   8.671   8.080
86120SOL    HW260258  12.175   8.521   8.074
86121SOL     OW60259  10.657   0.164   7.396
86121SOL    HW160260  10.590   0.143   7.461
86121SOL    HW260261  10.637   0.107   7.322
86122SOL     OW60262   8.961   5.250   7.617
86122SOL    HW160263   9.033   5.288   7.566
86122SOL    HW260264   8.883   5.264   7.564
86123SOL     OW60265  10.440   9.666  11.019
86123SOL    HW160266  10.359   9.695  11.060
86123SOL    HW260267  10.476   9.746  10.978
86124SOL     OW60268   9.227   3.029  11.912
86124SOL    HW160269   9.170   3.087  11.861
86124SOL    HW260270   9.181   2.945  11.913
86125SOL     OW60271   0.328   9.822  12.460
86125SOL    HW160272   0.271   9.757  12.417
86125SOL    HW260273   0.364   9.873  12.387
86126SOL     OW60274   1.910   8.735   8.783
86126SOL    HW160275   1.955   8.787   8.717
86126SOL    HW260276   1.909   8.646   8.747
86127SOL     OW60277  12.551  13.803   9.007
86127SOL    HW160278  12.538  13.738   9.076
86127SOL    HW260279  12.463  13.825   8.977
86128SOL     OW60280   7.782  11.359   9.028
86128SOL    HW160281   7.725  11.284   9.042
86128SOL    HW260282   7.789  11.401   9.114
86129SOL     OW60283  12.259   9.688  14.660
86129SOL    HW160284  12.254   9.751  14.731
86129SOL    HW260285  12.192   9.717  14.597
86130SOL     OW60286   4.733   5.372  12.732
86130SOL    HW160287   4.792   5.347  12.661
86130SOL    HW260288   4.649   5.332  12.708
86131SOL     OW60289   8.737   3.624   1.093
86131SOL    HW160290   8.681   3.698   1.118
86131SOL    HW260291   8.724   3.616   0.998
86132SOL     OW60292   5.286   4.263   1.498
86132SOL    HW160293   5.337   4.240   1.421
86132SOL    HW260294   5.195   4.247   1.473
86133SOL     OW60295  14.576   2.148   5.341
86133SOL    HW160296  14.508   2.145   5.275
86133SOL    HW260297  14.643   2.207   5.305
86134SOL     OW60298  13.991   9.602  14.537
86134SOL    HW160299  13.939   9.682  14.537
86134SOL    HW260300  14.023   9.593  14.626
86135SOL     OW60301   0.426   6.506   2.428
86135SOL    HW160302   0.515   6.470   2.421
86135SOL    HW260303   0.412   6.517   2.522
86136SOL     OW60304   2.242   2.896  13.689
86136SOL    HW160305   2.230   2.866  13.779
86136SOL    HW260306   2.330   2.934  13.688
86137SOL     OW60307   9.929   0.779  12.573
86137SOL    HW160308   9.912   0.844  12.641
86137SOL    HW260309   9.996   0.722  12.611
86138SOL     OW60310   0.401  11.108   8.962
86138SOL    HW160311   0.388  11.198   8.931
86138SOL    HW260312   0.313  11.076   8.981
86139SOL     OW60313   5.403   8.686   7.154
86139SOL    HW160314   5.419   8.738   7.233
86139SOL    HW260315   5.443   8.601   7.174
86140SOL     OW60316   5.923   4.894   3.699
86140SOL    HW160317   5.994   4.837   3.727
86140SOL    HW260318   5.967   4.969   3.659
86141SOL     OW60319  11.901  13.277  10.292
86141SOL    HW160320  11.869  13.333  10.221
86141SOL    HW260321  11.951  13.335  10.348
86142SOL     OW60322  11.597  13.467  11.012
86142SOL    HW160323  11.533  13.400  11.036
86142SOL    HW260324  11.562  13.548  11.049
86143SOL     OW60325   1.922   6.238  10.060
86143SOL    HW160326   2.000   6.276  10.101
86143SOL    HW260327   1.886   6.308  10.005
86144SOL     OW60328   4.705  10.601  14.673
86144SOL    HW160329   4.735  10.540  14.741
86144SOL    HW260330   4.707  10.687  14.716
86145SOL     OW60331  11.645   6.632   9.439
86145SOL    HW160332  11.732   6.602   9.416
86145SOL    HW260333  11.636   6.613   9.532
86146SOL     OW60334   3.814   5.173   5.246
86146SOL    HW160335   3.786   5.113   5.316
86146SOL    HW260336   3.743   5.169   5.182
86147SOL     OW60337   8.225   9.953  14.692
86147SOL    HW160338   8.149   9.903  14.724
86147SOL    HW260339   8.272   9.978  14.772
86148SOL     OW60340  13.850   6.845   2.047
86148SOL    HW160341  13.818   6.933   2.025
86148SOL    HW260342  13.906   6.858   2.124
86149SOL     OW60343   7.686  13.860   2.141
86149SOL    HW160344   7.775  13.857   2.107
86149SOL    HW260345   7.680  13.945   2.185
86150SOL     OW60346  11.026   4.281   5.724
86150SOL    HW160347  11.024   4.225   5.647
86150SOL    HW260348  10.936   4.280   5.757
86151SOL     OW60349  13.390  10.259   7.726
86151SOL    HW160350  13.356  10.331   7.778
86151SOL    HW260351  13.413  10.191   7.789
86152SOL     OW60352   8.891   0.287   9.927
86152SOL    HW160353   8.960   0.277   9.992
86152SOL    HW260354   8.811   0.302   9.977
86153SOL     OW60355   1.757   1.844   5.348
86153SOL    HW160356   1.728   1.837   5.439
86153SOL    HW260357   1.745   1.936   5.326
86154SOL     OW60358   5.461   9.663   6.012
86154SOL    HW160359   5.494   9.659   5.923
86154SOL    HW260360   5.403   9.587   6.020
86155SOL     OW60361   9.753  14.373   6.797
86155SOL    HW160362   9.718  14.286   6.814
86155SOL    HW260363   9.803  14.395   6.875
86156SOL     OW60364   7.431   4.268   6.703
86156SOL    HW160365   7.439   4.195   6.642
86156SOL    HW260366   7.342   4.300   6.692
86157SOL     OW60367   2.122  14.379   8.756
86157SOL    HW160368   2.140  14.473   8.758
86157SOL    HW260369   2.208  14.339   8.771
86158SOL     OW60370   0.815   5.231   8.753
86158SOL    HW160371   0.795   5.245   8.661
86158SOL    HW260372   0.809   5.136   8.765
86159SOL     OW60373   9.005   2.460   6.168
86159SOL    HW160374   8.946   2.405   6.218
86159SOL    HW260375   9.003   2.545   6.213
86160SOL     OW60376   5.583  14.324  12.058
86160SOL    HW160377   5.638  14.310  12.135
86160SOL    HW260378   5.497  14.292  12.085
86161SOL     OW60379  14.016  10.735   5.280
86161SOL    HW160380  13.974  10.661   5.324
86161SOL    HW260381  14.024  10.707   5.188
86162SOL     OW60382   1.786  10.762  11.953
86162SOL    HW160383   1.696  10.794  11.961
86162SOL    HW260384   1.839  10.825  12.001
86163SOL     OW60385   8.586   3.733   6.797
86163SOL    HW160386   8.582   3.827   6.781
86163SOL    HW260387   8.670   3.720   6.841
86164SOL     OW60388  10.517  13.796   8.412
86164SOL    HW160389  10.476  13.750   8.485
86164SOL    HW260390  10.475  13.882   8.411
86165SOL     OW60391   2.398   1.932   8.077
86165SOL    HW160392   2.438   1.858   8.123
86165SOL    HW260393   2.428   2.009   8.125
86166SOL     OW60394   2.115   7.510   2.537
86166SOL    HW160395   2.165   7.446   2.486
86166SOL    HW260396   2.025   7.502   2.503
86167SOL     OW60397   1.346   6.661   9.426
86167SOL    HW160398   1.334   6.754   9.443
86167SOL    HW260399   1.441   6.648   9.433
86168SOL     OW60400   7.317  13.654   2.514
86168SOL    HW160401   7.339  13.657   2.608
86168SOL    HW260402   7.357  13.734   2.478
86169SOL     OW60403   5.909  12.912   9.335
86169SOL    HW160404   5.854  12.968   9.280
86169SOL    HW260405   5.882  12.823   9.313
86170SOL     OW60406   2.645  12.180  10.592
86170SOL    HW160407   2.630  12.264  10.549
86170SOL    HW260408   2.559  12.138  10.595
86171SOL     OW60409   9.844  14.436  11.781
86171SOL    HW160410   9.921  14.384  11.801
86171SOL    HW260411   9.770  14.380  11.801
86172SOL     OW60412   5.645  10.565   1.884
86172SOL    HW160413   5.695  10.608   1.954
86172SOL    HW260414   5.558  10.604   1.888
86173SOL     OW60415  14.431   8.785  13.277
86173SOL    HW160416  14.519   8.793  13.240
86173SOL    HW260417  14.446   8.756  13.367
86174SOL     OW60418   6.185   1.316   2.348
86174SOL    HW160419   6.118   1.378   2.376
86174SOL    HW260420   6.232   1.361   2.278
86175SOL     OW60421  11.341   8.455   8.923
86175SOL    HW160422  11.290   8.376   8.908
86175SOL    HW260423  11.429   8.433   8.894
86176SOL     OW60424  13.399  11.653  11.612
86176SOL    HW160425  13.477  11.601  11.591
86176SOL    HW260426  13.434  11.737  11.643
86177SOL     OW60427   6.115   4.486   1.528
86177SOL    HW160428   6.095   4.548   1.597
86177SOL    HW260429   6.058   4.510   1.455
86178SOL     OW60430   4.827  12.880   1.565
86178SOL    HW160431   4.733  12.880   1.581
86178SOL    HW260432   4.835  12.887   1.470
86179SOL     OW60433   3.255   0.631  13.176
86179SOL    HW160434   3.286   0.627  13.085
86179SOL    HW260435   3.293   0.555  13.218
86180SOL     OW60436  12.067   4.677   7.703
86180SOL    HW160437  12.057   4.704   7.612
86180SOL    HW260438  12.058   4.581   7.701
86181SOL     OW60439   0.207   3.580   6.408
86181SOL    HW160440   0.130   3.613   6.361
86181SOL    HW260441   0.279   3.634   6.377
86182SOL     OW60442  13.474   4.808   5.045
86182SOL    HW160443  13.491   4.839   4.955
86182SOL    HW260444  13.421   4.729   5.034
86183SOL     OW60445  11.739   4.823  13.428
86183SOL    HW160446  11.733   4.769  13.349
86183SOL    HW260447  11.817   4.792  13.473
86184SOL     OW60448  14.584  14.116  13.121
86184SOL    HW160449  14.592  14.101  13.215
86184SOL    HW260450  14.627  14.201  13.106
86185SOL     OW60451   1.857   8.488   7.337
86185SOL    HW160452   1.918   8.430   7.291
86185SOL    HW260453   1.895   8.575   7.327
86186SOL     OW60454  13.618   2.403  10.297
86186SOL    HW160455  13.597   2.310  10.304
86186SOL    HW260456  13.654   2.427  10.382
86187SOL     OW60457  12.994   6.168   3.090
86187SOL    HW160458  12.963   6.179   3.180
86187SOL    HW260459  13.086   6.144   3.099
86188SOL     OW60460   7.589  12.471   5.898
86188SOL    HW160461   7.573  12.423   5.817
86188SOL    HW260462   7.512  12.453   5.952
86189SOL     OW60463   6.252   9.038   4.056
86189SOL    HW160464   6.160   9.048   4.080
86189SOL    HW260465   6.295   9.115   4.094
86190SOL     OW60466   5.042  13.796   5.761
86190SOL    HW160467   5.041  13.777   5.855
86190SOL    HW260468   5.019  13.888   5.756
86191SOL     OW60469   2.195   9.307  14.439
86191SOL    HW160470   2.165   9.246  14.371
86191SOL    HW260471   2.152   9.390  14.418
86192SOL     OW60472   0.300  13.374   5.869
86192SOL    HW160473   0.386  13.353   5.904
86192SOL    HW260474   0.295  13.470   5.874
86193SOL     OW60475  12.561   0.972   3.687
86193SOL    HW160476  12.512   0.987   3.606
86193SOL    HW260477  12.621   0.901   3.666
86194SOL     OW60478   3.083   3.926  14.062
86194SOL    HW160479   3.172   3.892  14.053
86194SOL    HW260480   3.060   3.909  14.154
86195SOL     OW60481   4.656  11.769  10.914
86195SOL    HW160482   4.582  11.717  10.883
86195SOL    HW260483   4.673  11.737  11.002
86196SOL     OW60484   2.327   3.907   7.031
86196SOL    HW160485   2.258   3.925   6.967
86196SOL    HW260486   2.285   3.851   7.097
86197SOL     OW60487  11.597   1.777  12.801
86197SOL    HW160488  11.521   1.724  12.776
86197SOL    HW260489  11.612   1.834  12.726
86198SOL     OW60490   3.626   6.558   3.410
86198SOL    HW160491   3.696   6.567   3.474
86198SOL    HW260492   3.572   6.636   3.423
86199SOL     OW60493   1.195   6.674   4.964
86199SOL    HW160494   1.192   6.636   4.876
86199SOL    HW260495   1.129   6.625   5.014
86200SOL     OW60496  12.360  14.222   5.275
86200SOL    HW160497  12.453  14.204   5.263
86200SOL    HW260498  12.321  14.203   5.190
86201SOL     OW60499  13.350   0.489  13.137
86201SOL    HW160500  13.287   0.444  13.080
86201SOL    HW260501  13.323   0.581  13.134
86202SOL     OW60502  11.943   8.437   4.184
86202SOL    HW160503  11.963   8.512   4.239
86202SOL    HW260504  11.994   8.451   4.104
86203SOL     OW60505   1.849   6.679   0.344
86203SOL    HW160506   1.765   6.695   0.387
86203SOL    HW260507   1.909   6.738   0.388
86204SOL     OW60508   6.298  13.414   8.373
86204SOL    HW160509   6.362  13.422   8.303
86204SOL    HW260510   6.312  13.492   8.427
86205SOL     OW60511   8.761   2.295   8.137
86205SOL    HW160512   8.751   2.364   8.202
86205SOL    HW260513   8.772   2.342   8.054
86206SOL     OW60514   8.496   4.986   1.492
86206SOL    HW160515   8.432   5.012   1.426
86206SOL    HW260516   8.444   4.959   1.567
86207SOL     OW60517   5.749  14.582   2.529
86207SOL    HW160518   5.804  14.533   2.468
86207SOL    HW260519   5.766  14.542   2.614
86208SOL     OW60520   8.757  12.500   5.291
86208SOL    HW160521   8.750  12.593   5.270
86208SOL    HW260522   8.721  12.492   5.379
86209SOL     OW60523   7.493  11.443   5.310
86209SOL    HW160524   7.562  11.416   5.371
86209SOL    HW260525   7.459  11.362   5.274
86210SOL     OW60526   8.910   4.454   4.346
86210SOL    HW160527   8.842   4.412   4.399
86210SOL    HW260528   8.923   4.395   4.272
86211SOL     OW60529  11.743   2.670  12.287
86211SOL    HW160530  11.809   2.720  12.335
86211SOL    HW260531  11.660   2.712  12.310
86212SOL     OW60532  11.186   5.494  14.379
86212SOL    HW160533  11.255   5.522  14.440
86212SOL    HW260534  11.199   5.399  14.371
86213SOL     OW60535  13.105   6.686  14.286
86213SOL    HW160536  13.064   6.600  14.291
86213SOL    HW260537  13.099   6.709  14.193
86214SOL     OW60538  12.188  14.535   5.991
86214SOL    HW160539  12.268  14.531   6.043
86214SOL    HW260540  12.169  14.628   5.983
86215SOL     OW60541   7.721   5.498   0.644
86215SOL    HW160542   7.784   5.432   0.675
86215SOL    HW260543   7.745   5.512   0.552
86216SOL     OW60544   0.125  14.290   7.864
86216SOL    HW160545   0.041  14.281   7.818
86216SOL    HW260546   0.154  14.200   7.877
86217SOL     OW60547   6.144   5.604  13.188
86217SOL    HW160548   6.085   5.633  13.258
86217SOL    HW260549   6.184   5.524  13.223
86218SOL     OW60550  11.223   7.548   6.078
86218SOL    HW160551  11.221   7.559   6.173
86218SOL    HW260552  11.263   7.628   6.045
86219SOL     OW60553  12.114   4.682   3.130
86219SOL    HW160554  12.147   4.628   3.058
86219SOL    HW260555  12.023   4.654   3.141
86220SOL     OW60556  13.070   6.712  12.128
86220SOL    HW160557  13.131   6.638  12.124
86220SOL    HW260558  13.036   6.719  12.039
86221SOL     OW60559  13.923  12.787  14.060
86221SOL    HW160560  13.888  12.854  14.119
86221SOL    HW260561  13.846  12.736  14.033
86222SOL     OW60562  10.265   6.493   3.689
86222SOL    HW160563  10.248   6.473   3.781
86222SOL    HW260564  10.303   6.580   3.690
86223SOL     OW60565   3.105   4.584   7.883
86223SOL    HW160566   3.150   4.526   7.944
86223SOL    HW260567   3.169   4.603   7.815
86224SOL     OW60568   5.043   4.858   0.043
86224SOL    HW160569   4.991   4.815  14.846
86224SOL    HW260570   5.103   4.915  14.866
86225SOL     OW60571   8.744   9.285  13.841
86225SOL    HW160572   8.771   9.375  13.823
86225SOL    HW260573   8.825   9.240  13.862
86226SOL     OW60574   5.445  11.404   8.739
86226SOL    HW160575   5.482  11.317   8.722
86226SOL    HW260576   5.456  11.416   8.834
86227SOL     OW60577  14.016  14.783   1.050
86227SOL    HW160578  13.992  14.822   1.135
86227SOL    HW260579  14.028  14.690   1.069
86228SOL     OW60580  12.410  13.036  12.456
86228SOL    HW160581  12.435  13.103  12.393
86228SOL    HW260582  12.458  13.058  12.536
86229SOL     OW60583   6.040  13.811  14.282
86229SOL    HW160584   5.995  13.727  14.271
86229SOL    HW260585   5.989  13.872  14.229
86230SOL     OW60586   2.571   7.885  13.769
86230SOL    HW160587   2.537   7.879  13.680
86230SOL    HW260588   2.659   7.848  13.764
86231SOL     OW60589   4.874   9.654   7.776
86231SOL    HW160590   4.922   9.729   7.812
86231SOL    HW260591   4.943   9.592   7.751
86232SOL     OW60592   1.322  13.612   1.056
86232SOL    HW160593   1.300  13.665   1.132
86232SOL    HW260594   1.324  13.523   1.088
86233SOL     OW60595   9.763   9.461   4.545
86233SOL    HW160596   9.850   9.476   4.583
86233SOL    HW260597   9.735   9.548   4.515
86234SOL     OW60598   8.664   5.743   8.339
86234SOL    HW160599   8.750   5.763   8.375
86234SOL    HW260600   8.678   5.664   8.286
86235SOL     OW60601   0.555  11.065  10.980
86235SOL    HW160602   0.580  10.977  10.952
86235SOL    HW260603   0.612  11.085  11.054
86236SOL     OW60604   6.298   5.734  10.931
86236SOL    HW160605   6.328   5.667  10.869
86236SOL    HW260606   6.323   5.817  10.891
86237SOL     OW60607   2.661  11.290   7.230
86237SOL    HW160608   2.756  11.284   7.233
86237SOL    HW260609   2.641  11.377   7.263
86238SOL     OW60610   8.977   3.051   4.942
86238SOL    HW160611   8.954   3.046   4.849
86238SOL    HW260612   9.072   3.054   4.943
86239SOL     OW60613   6.955   7.167  13.137
86239SOL    HW160614   6.888   7.180  13.203
86239SOL    HW260615   6.990   7.080  13.155
86240SOL     OW60616  12.042  12.253   3.377
86240SOL    HW160617  12.036  12.173   3.429
86240SOL    HW260618  11.952  12.287   3.375
86241SOL     OW60619   4.275   6.449   8.297
86241SOL    HW160620   4.347   6.433   8.236
86241SOL    HW260621   4.317   6.455   8.382
86242SOL     OW60622   6.611  14.335   4.869
86242SOL    HW160623   6.544  14.331   4.937
86242SOL    HW260624   6.691  14.361   4.916
86243SOL     OW60625   8.433   9.566  10.316
86243SOL    HW160626   8.349   9.584  10.274
86243SOL    HW260627   8.477   9.651  10.316
86244SOL     OW60628   4.823   2.250   0.354
86244SOL    HW160629   4.866   2.310   0.415
86244SOL    HW260630   4.732   2.281   0.350
86245SOL     OW60631   3.073   5.040   4.675
86245SOL    HW160632   3.092   4.951   4.705
86245SOL    HW260633   3.000   5.030   4.614
86246SOL     OW60634   8.257   7.875   3.271
86246SOL    HW160635   8.207   7.827   3.205
86246SOL    HW260636   8.308   7.808   3.316
86247SOL     OW60637  11.087   5.348   4.417
86247SOL    HW160638  11.085   5.443   4.431
86247SOL    HW260639  11.169   5.333   4.369
86248SOL     OW60640   4.493  10.686   8.797
86248SOL    HW160641   4.585  10.659   8.790
86248SOL    HW260642   4.474  10.685   8.890
86249SOL     OW60643   8.730   1.128  10.817
86249SOL    HW160644   8.759   1.174  10.895
86249SOL    HW260645   8.646   1.168  10.795
86250SOL     OW60646   0.215   6.165   3.861
86250SOL    HW160647   0.192   6.109   3.786
86250SOL    HW260648   0.217   6.105   3.935
86251SOL     OW60649  14.037   2.535   1.885
86251SOL    HW160650  14.122   2.553   1.925
86251SOL    HW260651  14.003   2.621   1.862
86252SOL     OW60652   2.528   6.164  11.609
86252SOL    HW160653   2.475   6.243  11.598
86252SOL    HW260654   2.614   6.188  11.575
86253SOL     OW60655   7.877  12.649   2.614
86253SOL    HW160656   7.845  12.683   2.697
86253SOL    HW260657   7.822  12.691   2.548
86254SOL     OW60658  11.421   6.804   1.330
86254SOL    HW160659  11.423   6.717   1.292
86254SOL    HW260660  11.433   6.789   1.424
86255SOL     OW60661  13.502   1.301   0.058
86255SOL    HW160662  13.505   1.222   0.003
86255SOL    HW260663  13.420   1.343   0.035
86256SOL     OW60664   9.538   3.886  10.435
86256SOL    HW160665   9.478   3.901  10.362
86256SOL    HW260666   9.620   3.859  10.394
86257SOL     OW60667   1.455  12.774   0.774
86257SOL    HW160668   1.543  12.757   0.807
86257SOL    HW260669   1.431  12.859   0.812
86258SOL     OW60670   3.477   2.634   8.209
86258SOL    HW160671   3.458   2.726   8.227
86258SOL    HW260672   3.567   2.622   8.238
86259SOL     OW60673   1.588   0.195  13.721
86259SOL    HW160674   1.532   0.209  13.797
86259SOL    HW260675   1.629   0.280  13.705
86260SOL     OW60676   0.107  13.683   4.912
86260SOL    HW160677   0.142  13.718   4.994
86260SOL    HW260678   0.030  13.737   4.895
86261SOL     OW60679   2.427   7.459  14.711
86261SOL    HW160680   2.376   7.523  14.760
86261SOL    HW260681   2.367   7.424  14.646
86262SOL     OW60682   7.844   6.305   4.767
86262SOL    HW160683   7.875   6.322   4.856
86262SOL    HW260684   7.803   6.219   4.772
86263SOL     OW60685  10.880  11.866  14.051
86263SOL    HW160686  10.879  11.790  14.109
86263SOL    HW260687  10.935  11.838  13.977
86264SOL     OW60688   1.063  14.481   2.993
86264SOL    HW160689   1.059  14.405   3.051
86264SOL    HW260690   1.088  14.445   2.908
86265SOL     OW60691   8.594   1.176  11.564
86265SOL    HW160692   8.647   1.146  11.490
86265SOL    HW260693   8.569   1.265  11.542
86266SOL     OW60694  13.909   6.447   5.016
86266SOL    HW160695  13.949   6.525   4.978
86266SOL    HW260696  13.937   6.376   4.959
86267SOL     OW60697  14.825   6.941  11.902
86267SOL    HW160698  14.862   6.904  11.982
86267SOL    HW260699  14.769   7.013  11.932
86268SOL     OW60700  10.448   3.040   7.892
86268SOL    HW160701  10.391   3.065   7.965
86268SOL    HW260702  10.508   2.976   7.929
86269SOL     OW60703  13.094  14.027  13.156
86269SOL    HW160704  13.035  13.952  13.158
86269SOL    HW260705  13.059  14.087  13.222
86270SOL     OW60706   1.735  12.412   9.037
86270SOL    HW160707   1.788  12.381   9.111
86270SOL    HW260708   1.771  12.497   9.015
86271SOL     OW60709  13.227   8.754   3.901
86271SOL    HW160710  13.290   8.720   3.965
86271SOL    HW260711  13.221   8.684   3.835
86272SOL     OW60712  12.252   6.428   8.027
86272SOL    HW160713  12.200   6.489   7.973
86272SOL    HW260714  12.338   6.470   8.034
86273SOL     OW60715   6.428  12.751  14.015
86273SOL    HW160716   6.502  12.811  14.003
86273SOL    HW260717   6.403  12.726  13.926
86274SOL     OW60718   4.447  10.439   3.416
86274SOL    HW160719   4.407  10.352   3.420
86274SOL    HW260720   4.375  10.498   3.397
86275SOL     OW60721   4.741   9.982  13.546
86275SOL    HW160722   4.656   9.989  13.503
86275SOL    HW260723   4.797   9.940  13.480
86276SOL     OW60724   1.295   0.061   6.997
86276SOL    HW160725   1.332  14.850   6.966
86276SOL    HW260726   1.213   0.037   7.039
86277SOL     OW60727   7.851   3.741  10.838
86277SOL    HW160728   7.877   3.761  10.748
86277SOL    HW260729   7.770   3.790  10.852
86278SOL     OW60730   9.817  13.707   8.828
86278SOL    HW160731   9.816  13.774   8.759
86278SOL    HW260732   9.903  13.717   8.869
86279SOL     OW60733   3.523  12.633   8.138
86279SOL    HW160734   3.470  12.700   8.094
86279SOL    HW260735   3.608  12.674   8.151
86280SOL     OW60736   8.877   5.778   4.261
86280SOL    HW160737   8.902   5.846   4.324
86280SOL    HW260738   8.916   5.698   4.295
86281SOL     OW60739  12.473   8.929   4.129
86281SOL    HW160740  12.439   8.841   4.146
86281SOL    HW260741  12.465   8.974   4.213
86282SOL     OW60742  13.493  10.235  14.668
86282SOL    HW160743  13.560  10.302  14.655
86282SOL    HW260744  13.532  10.155  14.633
86283SOL     OW60745   5.228   5.615   2.623
86283SOL    HW160746   5.199   5.684   2.564
86283SOL    HW260747   5.309   5.583   2.583
86284SOL     OW60748   0.261   3.434   4.108
86284SOL    HW160749   0.224   3.441   4.020
86284SOL    HW260750   0.317   3.357   4.105
86285SOL     OW60751   3.687   6.102   7.620
86285SOL    HW160752   3.632   6.153   7.561
86285SOL    HW260753   3.647   6.015   7.621
86286SOL     OW60754  14.822  13.004   4.989
86286SOL    HW160755  14.833  12.943   5.061
86286SOL    HW260756  14.835  12.951   4.910
86287SOL     OW60757   9.391   4.906  14.298
86287SOL    HW160758   9.350   4.870  14.219
86287SOL    HW260759   9.393   5.000  14.283
86288SOL     OW60760   0.150  14.582  11.324
86288SOL    HW160761   0.106  14.657  11.364
86288SOL    HW260762   0.146  14.598  11.230
86289SOL     OW60763   8.521   4.660  10.976
86289SOL    HW160764   8.443   4.604  10.968
86289SOL    HW260765   8.538   4.664  11.070
86290SOL     OW60766   6.323   7.407   9.221
86290SOL    HW160767   6.242   7.455   9.238
86290SOL    HW260768   6.387   7.446   9.280
86291SOL     OW60769  13.434  13.924  11.223
86291SOL    HW160770  13.490  13.999  11.241
86291SOL    HW260771  13.488  13.866  11.168
86292SOL     OW60772   6.761   3.783   5.447
86292SOL    HW160773   6.841   3.799   5.397
86292SOL    HW260774   6.782   3.707   5.501
86293SOL     OW60775  12.284  12.145  11.219
86293SOL    HW160776  12.192  12.169  11.230
86293SOL    HW260777  12.287  12.053  11.244
86294SOL     OW60778   2.323   0.523   3.537
86294SOL    HW160779   2.304   0.613   3.561
86294SOL    HW260780   2.378   0.530   3.458
86295SOL     OW60781   7.627   8.571   6.480
86295SOL    HW160782   7.593   8.494   6.435
86295SOL    HW260783   7.645   8.541   6.569
86296SOL     OW60784   2.401  12.448  14.274
86296SOL    HW160785   2.492  12.459  14.305
86296SOL    HW260786   2.357  12.402  14.346
86297SOL     OW60787   0.109   7.334  10.956
86297SOL    HW160788   0.014   7.330  10.946
86297SOL    HW260789   0.122   7.356  11.048
86298SOL     OW60790  10.965   3.464   6.688
86298SOL    HW160791  10.882   3.426   6.719
86298SOL    HW260792  10.987   3.412   6.611
86299SOL     OW60793   3.652   5.979  13.350
86299SOL    HW160794   3.598   5.929  13.288
86299SOL    HW260795   3.737   5.936  13.348
86300SOL     OW60796   6.365   3.608   8.332
86300SOL    HW160797   6.320   3.662   8.267
86300SOL    HW260798   6.295   3.559   8.376
86301SOL     OW60799  12.350   6.323  14.642
86301SOL    HW160800  12.328   6.265  14.715
86301SOL    HW260801  12.296   6.401  14.658
86302SOL     OW60802  13.257  12.165   9.708
86302SOL    HW160803  13.309  12.096   9.749
86302SOL    HW260804  13.169  12.155   9.745
86303SOL     OW60805  12.168  12.274   5.161
86303SOL    HW160806  12.180  12.348   5.102
86303SOL    HW260807  12.075  12.255   5.156
86304SOL     OW60808   2.942   2.117  13.363
86304SOL    HW160809   2.906   2.206  13.366
86304SOL    HW260810   2.880   2.069  13.308
86305SOL     OW60811  14.191   9.530  10.373
86305SOL    HW160812  14.111   9.502  10.329
86305SOL    HW260813  14.256   9.536  10.304
86306SOL     OW60814   4.047  11.010  14.480
86306SOL    HW160815   4.005  11.063  14.548
86306SOL    HW260816   3.983  10.942  14.461
86307SOL     OW60817  12.286   7.463  11.661
86307SOL    HW160818  12.258   7.374  11.639
86307SOL    HW260819  12.301   7.460  11.756
86308SOL     OW60820  11.691   1.236   0.018
86308SOL    HW160821  11.781   1.214  14.866
86308SOL    HW260822  11.695   1.263   0.109
86309SOL     OW60823   3.603   0.710   4.857
86309SOL    HW160824   3.667   0.724   4.786
86309SOL    HW260825   3.643   0.643   4.912
86310SOL     OW60826   0.382   2.807   4.465
86310SOL    HW160827   0.359   2.858   4.542
86310SOL    HW260828   0.313   2.742   4.457
86311SOL     OW60829  12.994   2.345   4.352
86311SOL    HW160830  13.020   2.364   4.442
86311SOL    HW260831  12.900   2.364   4.350
86312SOL     OW60832   4.296   2.674   7.097
86312SOL    HW160833   4.304   2.703   7.006
86312SOL    HW260834   4.338   2.743   7.148
86313SOL     OW60835   7.136   9.300   6.542
86313SOL    HW160836   7.211   9.268   6.592
86313SOL    HW260837   7.093   9.221   6.510
86314SOL     OW60838  10.594  12.746   9.893
86314SOL    HW160839  10.514  12.794   9.914
86314SOL    HW260840  10.578  12.658   9.925
86315SOL     OW60841   6.757   9.348   0.215
86315SOL    HW160842   6.729   9.314   0.300
86315SOL    HW260843   6.690   9.413   0.191
86316SOL     OW60844  11.032  14.619  10.472
86316SOL    HW160845  10.958  14.566  10.501
86316SOL    HW260846  11.105  14.591  10.528
86317SOL     OW60847   3.214  10.567  13.826
86317SOL    HW160848   3.276  10.495  13.813
86317SOL    HW260849   3.134  10.537  13.783
86318SOL     OW60850   7.987  11.946   1.093
86318SOL    HW160851   7.994  12.040   1.111
86318SOL    HW260852   7.946  11.941   1.007
86319SOL     OW60853   1.724   8.977  13.815
86319SOL    HW160854   1.666   8.905  13.790
86319SOL    HW260855   1.666   9.050  13.837
86320SOL     OW60856   4.771   3.885  13.821
86320SOL    HW160857   4.724   3.948  13.876
86320SOL    HW260858   4.848   3.933  13.791
86321SOL     OW60859   4.917   7.240  10.133
86321SOL    HW160860   4.853   7.268  10.068
86321SOL    HW260861   4.978   7.313  10.140
86322SOL     OW60862   0.897  11.908   7.632
86322SOL    HW160863   0.877  11.889   7.724
86322SOL    HW260864   0.972  11.852   7.612
86323SOL     OW60865   8.435   1.639   8.877
86323SOL    HW160866   8.385   1.559   8.861
86323SOL    HW260867   8.518   1.625   8.832
86324SOL     OW60868   1.660   4.332   4.416
86324SOL    HW160869   1.580   4.381   4.398
86324SOL    HW260870   1.669   4.271   4.343
86325SOL     OW60871   7.512  12.395   5.370
86325SOL    HW160872   7.587  12.425   5.319
86325SOL    HW260873   7.543  12.317   5.416
86326SOL     OW60874   6.212   2.908   5.678
86326SOL    HW160875   6.294   2.880   5.638
86326SOL    HW260876   6.206   3.002   5.659
86327SOL     OW60877   7.277   3.058  11.849
86327SOL    HW160878   7.206   3.120  11.866
86327SOL    HW260879   7.338   3.070  11.922
86328SOL     OW60880   5.589   4.210   9.144
86328SOL    HW160881   5.524   4.140   9.149
86328SOL    HW260882   5.610   4.229   9.236
86329SOL     OW60883   9.785   5.875   8.829
86329SOL    HW160884   9.698   5.908   8.849
86329SOL    HW260885   9.844   5.945   8.856
86330SOL     OW60886  12.243  13.942  11.371
86330SOL    HW160887  12.228  13.931  11.465
86330SOL    HW260888  12.286  13.861  11.344
86331SOL     OW60889   0.054   7.189  11.638
86331SOL    HW160890   0.101   7.268  11.666
86331SOL    HW260891  14.865   7.219  11.570
86332SOL     OW60892   7.490   4.832  10.591
86332SOL    HW160893   7.410   4.866  10.551
86332SOL    HW260894   7.480   4.851  10.684
86333SOL     OW60895   6.483   8.942   7.943
86333SOL    HW160896   6.496   8.915   7.852
86333SOL    HW260897   6.560   8.994   7.963
86334SOL     OW60898  10.240   9.456  12.469
86334SOL    HW160899  10.328   9.434  12.500
86334SOL    HW260900  10.251   9.470  12.374
86335SOL     OW60901  14.477   4.385  10.548
86335SOL    HW160902  14.533   4.404  10.623
86335SOL    HW260903  14.473   4.290  10.544
86336SOL     OW60904   2.603   3.027   2.804
86336SOL    HW160905   2.592   2.989   2.717
86336SOL    HW260906   2.661   2.967   2.850
86337SOL     OW60907   5.700  10.682   9.051
86337SOL    HW160908   5.711  10.615   8.984
86337SOL    HW260909   5.698  10.634   9.134
86338SOL     OW60910   5.864  12.902   3.243
86338SOL    HW160911   5.867  12.958   3.320
86338SOL    HW260912   5.772  12.899   3.219
86339SOL     OW60913   4.217   0.062   3.336
86339SOL    HW160914   4.152   0.128   3.310
86339SOL    HW260915   4.289   0.112   3.374
86340SOL     OW60916  14.219   8.041   5.323
86340SOL    HW160917  14.152   8.082   5.378
86340SOL    HW260918  14.177   8.032   5.238
86341SOL     OW60919  14.834   4.071   9.420
86341SOL    HW160920   0.009   4.012   9.361
86341SOL    HW260921  14.752   4.092   9.375
86342SOL     OW60922   4.492   5.926  10.259
86342SOL    HW160923   4.505   5.833  10.242
86342SOL    HW260924   4.561   5.949  10.321
86343SOL     OW60925   9.186   2.413  12.981
86343SOL    HW160926   9.118   2.415  13.049
86343SOL    HW260927   9.199   2.504  12.957
86344SOL     OW60928   3.280   8.544   8.548
86344SOL    HW160929   3.224   8.621   8.536
86344SOL    HW260930   3.218   8.473   8.563
86345SOL     OW60931  11.534   7.360  13.110
86345SOL    HW160932  11.603   7.364  13.177
86345SOL    HW260933  11.576   7.394  13.031
86346SOL     OW60934  14.672   6.740   1.090
86346SOL    HW160935  14.717   6.657   1.107
86346SOL    HW260936  14.603   6.717   1.027
86347SOL     OW60937   6.041  12.763  12.224
86347SOL    HW160938   6.107  12.832  12.234
86347SOL    HW260939   6.045  12.740  12.131
86348SOL     OW60940   4.025   5.034   1.061
86348SOL    HW160941   4.076   5.102   1.018
86348SOL    HW260942   3.975   5.079   1.129
86349SOL     OW60943  12.830   2.671  11.144
86349SOL    HW160944  12.775   2.750  11.145
86349SOL    HW260945  12.917   2.703  11.123
86350SOL     OW60946   0.681   2.914   6.635
86350SOL    HW160947   0.686   2.823   6.604
86350SOL    HW260948   0.590   2.938   6.623
86351SOL     OW60949  11.690   2.315  14.606
86351SOL    HW160950  11.761   2.255  14.582
86351SOL    HW260951  11.730   2.374  14.670
86352SOL     OW60952   6.848   5.284  12.542
86352SOL    HW160953   6.768   5.302  12.493
86352SOL    HW260954   6.823   5.301  12.633
86353SOL     OW60955   1.393   6.119  13.420
86353SOL    HW160956   1.413   6.028  13.401
86353SOL    HW260957   1.320   6.115  13.483
86354SOL     OW60958  11.377   2.819   8.266
86354SOL    HW160959  11.363   2.879   8.193
86354SOL    HW260960  11.298   2.827   8.319
86355SOL     OW60961   8.052   6.612   6.458
86355SOL    HW160962   8.148   6.614   6.460
86355SOL    HW260963   8.028   6.536   6.511
86356SOL     OW60964  11.394   4.365   2.887
86356SOL    HW160965  11.338   4.329   2.819
86356SOL    HW260966  11.434   4.442   2.847
86357SOL     OW60967   7.011  11.798   4.234
86357SOL    HW160968   6.973  11.718   4.200
86357SOL    HW260969   7.061  11.771   4.311
86358SOL     OW60970  11.440   7.482  11.333
86358SOL    HW160971  11.510   7.543  11.360
86358SOL    HW260972  11.380   7.480  11.408
86359SOL     OW60973  13.380   9.877  13.852
86359SOL    HW160974  13.451   9.940  13.836
86359SOL    HW260975  13.350   9.897  13.940
86360SOL     OW60976  10.430   3.018   9.147
86360SOL    HW160977  10.403   3.050   9.061
86360SOL    HW260978  10.399   2.927   9.150
86361SOL     OW60979   3.845   1.534   9.118
86361SOL    HW160980   3.869   1.608   9.175
86361SOL    HW260981   3.803   1.575   9.042
86362SOL     OW60982   6.935   0.130  13.369
86362SOL    HW160983   6.926   0.114  13.275
86362SOL    HW260984   6.888   0.213  13.383
86363SOL     OW60985  10.482   9.496   5.667
86363SOL    HW160986  10.460   9.497   5.760
86363SOL    HW260987  10.416   9.440   5.627
86364SOL     OW60988  10.638   3.083   9.322
86364SOL    HW160989  10.591   3.097   9.240
86364SOL    HW260990  10.685   3.166   9.337
86365SOL     OW60991  12.197   7.994   4.744
86365SOL    HW160992  12.203   7.902   4.717
86365SOL    HW260993  12.105   8.016   4.733
86366SOL     OW60994   1.572  14.574  14.815
86366SOL    HW160995   1.535  14.516  14.749
86366SOL    HW260996   1.598  14.652  14.767
86367SOL     OW60997   2.520   6.814  14.820
86367SOL    HW160998   2.567   6.885  14.864
86367SOL    HW260999   2.454   6.786   0.012
86368SOL     OW61000  14.166   4.663  11.952
86368SOL    HW161001  14.209   4.614  12.022
86368SOL    HW261002  14.227   4.734  11.933
86369SOL     OW61003   4.023   0.646   6.029
86369SOL    HW161004   4.081   0.720   6.014
86369SOL    HW261005   4.081   0.572   6.043
86370SOL     OW61006   7.318   9.652   1.008
86370SOL    HW161007   7.396   9.628   1.058
86370SOL    HW261008   7.336   9.621   0.919
86371SOL     OW61009  11.854   3.534   7.369
86371SOL    HW161010  11.791   3.534   7.297
86371SOL    HW261011  11.854   3.624   7.402
86372SOL     OW61012   0.180  14.023   7.883
86372SOL    HW161013   0.263  14.048   7.924
86372SOL    HW261014   0.184  13.928   7.876
86373SOL     OW61015   8.495   7.815   3.445
86373SOL    HW161016   8.522   7.724   3.453
86373SOL    HW261017   8.545   7.861   3.512
86374SOL     OW61018   5.454  11.487   6.822
86374SOL    HW161019   5.538  11.501   6.866
86374SOL    HW261020   5.406  11.426   6.879
86375SOL     OW61021   7.679   9.903   1.517
86375SOL    HW161022   7.591   9.936   1.499
86375SOL    HW261023   7.737   9.978   1.505
86376SOL     OW61024   0.672   2.980   5.098
86376SOL    HW161025   0.610   2.972   5.025
86376SOL    HW261026   0.620   3.018   5.169
86377SOL     OW61027   9.927   2.820   8.765
86377SOL    HW161028   9.909   2.793   8.855
86377SOL    HW261029  10.015   2.859   8.768
86378SOL     OW61030  12.368   3.097   0.327
86378SOL    HW161031  12.371   3.075   0.420
86378SOL    HW261032  12.450   3.144   0.311
86379SOL     OW61033   6.316  10.704   4.413
86379SOL    HW161034   6.271  10.631   4.456
86379SOL    HW261035   6.339  10.764   4.484
86380SOL     OW61036   8.063   9.596   6.353
86380SOL    HW161037   7.973   9.574   6.329
86380SOL    HW261038   8.111   9.514   6.347
86381SOL     OW61039   9.482   1.597  14.140
86381SOL    HW161040   9.444   1.653  14.072
86381SOL    HW261041   9.440   1.626  14.221
86382SOL     OW61042   8.975   4.008   0.344
86382SOL    HW161043   8.985   4.097   0.312
86382SOL    HW261044   8.906   4.013   0.410
86383SOL     OW61045   9.883  10.684  12.989
86383SOL    HW161046   9.857  10.775  13.008
86383SOL    HW261047   9.898  10.646  13.075
86384SOL     OW61048  12.794   3.462  14.594
86384SOL    HW161049  12.775   3.458  14.687
86384SOL    HW261050  12.772   3.374  14.562
86385SOL     OW61051   9.596   8.002   3.144
86385SOL    HW161052   9.632   7.933   3.089
86385SOL    HW261053   9.592   8.079   3.086
86386SOL     OW61054   1.731   7.430   0.618
86386SOL    HW161055   1.790   7.368   0.660
86386SOL    HW261056   1.786   7.478   0.555
86387SOL     OW61057  14.538   2.532   9.757
86387SOL    HW161058  14.468   2.543   9.693
86387SOL    HW261059  14.612   2.498   9.706
86388SOL     OW61060  14.058   0.988   6.796
86388SOL    HW161061  14.079   1.016   6.885
86388SOL    HW261062  14.136   0.941   6.767
86389SOL     OW61063   9.528  11.687  10.920
86389SOL    HW161064   9.480  11.614  10.958
86389SOL    HW261065   9.601  11.646  10.874
86390SOL     OW61066   9.178  14.490  13.839
86390SOL    HW161067   9.175  14.397  13.861
86390SOL    HW261068   9.271  14.510  13.829
86391SOL     OW61069   6.883   6.360  14.722
86391SOL    HW161070   6.956   6.365  14.785
86391SOL    HW261071   6.805   6.370  14.776
86392SOL     OW61072   4.428  10.765  10.758
86392SOL    HW161073   4.458  10.675  10.771
86392SOL    HW261074   4.494  10.804  10.701
86393SOL     OW61075   1.717   7.792   3.804
86393SOL    HW161076   1.670   7.807   3.722
86393SOL    HW261077   1.808   7.812   3.783
86394SOL     OW61078   8.889   0.760   2.614
86394SOL    HW161079   8.914   0.750   2.706
86394SOL    HW261080   8.893   0.854   2.599
86395SOL     OW61081   4.442   0.401  10.221
86395SOL    HW161082   4.392   0.407  10.303
86395SOL    HW261083   4.529   0.434  10.244
86396SOL     OW61084   6.876   6.798   7.417
86396SOL    HW161085   6.928   6.862   7.465
86396SOL    HW261086   6.824   6.850   7.356
86397SOL     OW61087  14.047   0.792   8.131
86397SOL    HW161088  14.117   0.806   8.194
86397SOL    HW261089  14.034   0.697   8.130
86398SOL     OW61090   9.830   0.404   7.568
86398SOL    HW161091   9.776   0.366   7.500
86398SOL    HW261092   9.913   0.426   7.524
86399SOL     OW61093   2.127  13.796   9.531
86399SOL    HW161094   2.198  13.740   9.498
86399SOL    HW261095   2.059  13.792   9.463
86400SOL     OW61096  11.887  10.220  13.156
86400SOL    HW161097  11.865  10.235  13.064
86400SOL    HW261098  11.816  10.261  13.204
86401SOL     OW61099   9.280  12.953   2.824
86401SOL    HW161100   9.303  13.032   2.775
86401SOL    HW261101   9.362  12.923   2.862
86402SOL     OW61102   9.842   4.640   1.084
86402SOL    HW161103   9.870   4.717   1.034
86402SOL    HW261104   9.919   4.614   1.134
86403SOL     OW61105   7.189   7.280   5.046
86403SOL    HW161106   7.102   7.261   5.011
86403SOL    HW261107   7.174   7.352   5.108
86404SOL     OW61108   2.304   7.624   7.950
86404SOL    HW161109   2.328   7.584   7.866
86404SOL    HW261110   2.209   7.615   7.953
86405SOL     OW61111   5.400  12.993  10.310
86405SOL    HW161112   5.456  12.984  10.234
86405SOL    HW261113   5.413  13.083  10.340
86406SOL     OW61114   1.272   2.113   2.165
86406SOL    HW161115   1.242   2.176   2.231
86406SOL    HW261116   1.223   2.033   2.183
86407SOL     OW61117   8.567  11.828  12.985
86407SOL    HW161118   8.642  11.772  12.966
86407SOL    HW261119   8.491  11.772  12.970
86408SOL     OW61120   4.472   3.732   0.548
86408SOL    HW161121   4.397   3.744   0.606
86408SOL    HW261122   4.480   3.815   0.501
86409SOL     OW61123   2.246   9.557  14.161
86409SOL    HW161124   2.312   9.566  14.229
86409SOL    HW261125   2.164   9.546  14.208
86410SOL     OW61126  13.562   3.450   8.679
86410SOL    HW161127  13.497   3.517   8.698
86410SOL    HW261128  13.636   3.499   8.642
86411SOL     OW61129   1.656   2.475   2.435
86411SOL    HW161130   1.719   2.406   2.455
86411SOL    HW261131   1.578   2.451   2.486
86412SOL     OW61132   2.997  11.867   9.869
86412SOL    HW161133   2.944  11.916   9.806
86412SOL    HW261134   2.937  11.850   9.942
86413SOL     OW61135   1.290   6.373  12.636
86413SOL    HW161136   1.232   6.375  12.560
86413SOL    HW261137   1.284   6.461  12.673
86414SOL     OW61138   8.105   0.017  13.291
86414SOL    HW161139   8.086   0.105  13.259
86414SOL    HW261140   8.121  14.837  13.211
86415SOL     OW61141   3.878   0.831  11.764
86415SOL    HW161142   3.945   0.768  11.737
86415SOL    HW261143   3.928   0.909  11.790
86416SOL     OW61144   1.639   3.426   3.167
86416SOL    HW161145   1.679   3.449   3.251
86416SOL    HW261146   1.713   3.410   3.109
86417SOL     OW61147   4.900   6.973   9.248
86417SOL    HW161148   4.989   6.940   9.234
86417SOL    HW261149   4.908   7.067   9.235
86418SOL     OW61150  13.395   2.571  10.234
86418SOL    HW161151  13.443   2.488  10.233
86418SOL    HW261152  13.361   2.578  10.323
86419SOL     OW61153   2.340   9.270  10.937
86419SOL    HW161154   2.285   9.192  10.931
86419SOL    HW261155   2.342   9.291  11.031
86420SOL     OW61156   4.207   3.814  12.032
86420SOL    HW161157   4.149   3.771  12.094
86420SOL    HW261158   4.258   3.876  12.085
86421SOL     OW61159  11.596   7.544   1.192
86421SOL    HW161160  11.543   7.616   1.157
86421SOL    HW261161  11.683   7.583   1.204
86422SOL     OW61162   7.974   9.697   1.873
86422SOL    HW161163   7.895   9.726   1.917
86422SOL    HW261164   7.943   9.639   1.803
86423SOL     OW61165  10.404   6.333   6.363
86423SOL    HW161166  10.471   6.374   6.418
86423SOL    HW261167  10.396   6.391   6.287
86424SOL     OW61168  11.946   4.126  12.342
86424SOL    HW161169  12.037   4.112  12.315
86424SOL    HW261170  11.948   4.116  12.437
86425SOL     OW61171   6.813   8.062   6.169
86425SOL    HW161172   6.720   8.085   6.166
86425SOL    HW261173   6.841   8.066   6.077
86426SOL     OW61174   7.242  14.203   5.899
86426SOL    HW161175   7.179  14.152   5.948
86426SOL    HW261176   7.316  14.214   5.958
86427SOL     OW61177  13.950   4.163   9.894
86427SOL    HW161178  13.995   4.079   9.904
86427SOL    HW261179  13.862   4.147   9.928
86428SOL     OW61180   6.635  13.306  11.192
86428SOL    HW161181   6.600  13.220  11.168
86428SOL    HW261182   6.697  13.289  11.262
86429SOL     OW61183  14.017  13.653   7.026
86429SOL    HW161184  13.925  13.630   7.012
86429SOL    HW261185  14.019  13.690   7.114
86430SOL     OW61186   2.815  11.061   6.232
86430SOL    HW161187   2.778  11.056   6.320
86430SOL    HW261188   2.910  11.067   6.247
86431SOL     OW61189  13.001  13.348   0.577
86431SOL    HW161190  12.956  13.348   0.662
86431SOL    HW261191  12.939  13.307   0.517
86432SOL     OW61192   1.085  13.899   6.994
86432SOL    HW161193   1.072  13.816   7.039
86432SOL    HW261194   0.997  13.936   6.985
86433SOL     OW61195   1.882   7.191  12.405
86433SOL    HW161196   1.811   7.127  12.410
86433SOL    HW261197   1.872   7.230  12.318
86434SOL     OW61198  13.426   3.999   9.398
86434SOL    HW161199  13.363   3.999   9.325
86434SOL    HW261200  13.396   4.069   9.455
86435SOL     OW61201   5.514   0.017  13.738
86435SOL    HW161202   5.581   0.032  13.805
86435SOL    HW261203   5.444  14.842  13.785
86436SOL     OW61204   2.180  14.739   0.362
86436SOL    HW161205   2.140  14.814   0.405
86436SOL    HW261206   2.153  14.664   0.415
86437SOL     OW61207  12.337   3.579   2.935
86437SOL    HW161208  12.309   3.628   2.858
86437SOL    HW261209  12.264   3.587   2.997
86438SOL     OW61210   9.259  13.164   5.848
86438SOL    HW161211   9.258  13.206   5.934
86438SOL    HW261212   9.278  13.235   5.787
86439SOL     OW61213  12.273   8.946  11.419
86439SOL    HW161214  12.362   8.913  11.424
86439SOL    HW261215  12.282   9.041  11.411
86440SOL     OW61216   4.036  13.416   7.526
86440SOL    HW161217   3.947  13.391   7.501
86440SOL    HW261218   4.076  13.447   7.444
86441SOL     OW61219  14.531  10.066  10.533
86441SOL    HW161220  14.437  10.054  10.516
86441SOL    HW261221  14.559   9.984  10.573
86442SOL     OW61222   5.905   9.001   0.702
86442SOL    HW161223   5.832   9.006   0.640
86442SOL    HW261224   5.958   9.079   0.683
86443SOL     OW61225   9.770   7.926  13.179
86443SOL    HW161226   9.817   7.909  13.098
86443SOL    HW261227   9.833   7.973  13.234
86444SOL     OW61228   3.532   2.006   3.885
86444SOL    HW161229   3.562   2.052   3.963
86444SOL    HW261230   3.454   2.054   3.858
86445SOL     OW61231   0.169   1.347   4.089
86445SOL    HW161232   0.226   1.300   4.150
86445SOL    HW261233   0.195   1.439   4.098
86446SOL     OW61234  10.207   9.304  12.935
86446SOL    HW161235  10.257   9.299  13.016
86446SOL    HW261236  10.142   9.373  12.952
86447SOL     OW61237  10.496   9.612   2.489
86447SOL    HW161238  10.443   9.685   2.457
86447SOL    HW261239  10.464   9.597   2.578
86448SOL     OW61240  12.257  13.375   7.102
86448SOL    HW161241  12.257  13.306   7.036
86448SOL    HW261242  12.343  13.415   7.096
86449SOL     OW61243   7.894   0.644   2.586
86449SOL    HW161244   7.832   0.665   2.517
86449SOL    HW261245   7.964   0.708   2.576
86450SOL     OW61246   3.665  10.575   0.197
86450SOL    HW161247   3.680  10.489   0.236
86450SOL    HW261248   3.722  10.634   0.246
86451SOL     OW61249   6.916   7.307   9.440
86451SOL    HW161250   6.861   7.249   9.387
86451SOL    HW261251   6.972   7.351   9.376
86452SOL     OW61252   2.759  14.722   6.654
86452SOL    HW161253   2.826  14.786   6.677
86452SOL    HW261254   2.740  14.676   6.736
86453SOL     OW61255  12.937  13.199   5.980
86453SOL    HW161256  13.015  13.239   6.019
86453SOL    HW261257  12.882  13.176   6.054
86454SOL     OW61258  13.965   8.336  12.300
86454SOL    HW161259  13.979   8.321  12.393
86454SOL    HW261260  14.038   8.392  12.273
86455SOL     OW61261   4.810   4.712  13.078
86455SOL    HW161262   4.873   4.647  13.110
86455SOL    HW261263   4.763   4.740  13.156
86456SOL     OW61264   2.223  14.241  12.333
86456SOL    HW161265   2.142  14.287  12.313
86456SOL    HW261266   2.259  14.288  12.408
86457SOL     OW61267  11.164  10.679  12.711
86457SOL    HW161268  11.176  10.595  12.666
86457SOL    HW261269  11.143  10.654  12.801
86458SOL     OW61270  12.217  10.159  14.721
86458SOL    HW161271  12.308  10.188  14.716
86458SOL    HW261272  12.166  10.238  14.704
86459SOL     OW61273   9.051   3.218   3.525
86459SOL    HW161274   9.046   3.252   3.435
86459SOL    HW261275   9.120   3.151   3.520
86460SOL     OW61276   3.702   5.332   2.573
86460SOL    HW161277   3.622   5.380   2.553
86460SOL    HW261278   3.690   5.247   2.531
86461SOL     OW61279   3.551   5.920   4.296
86461SOL    HW161280   3.471   5.872   4.274
86461SOL    HW261281   3.521   5.988   4.357
86462SOL     OW61282  11.923   6.432   2.077
86462SOL    HW161283  11.940   6.354   2.130
86462SOL    HW261284  11.861   6.483   2.129
86463SOL     OW61285   7.673   6.402   1.962
86463SOL    HW161286   7.645   6.361   2.044
86463SOL    HW261287   7.593   6.410   1.911
86464SOL     OW61288   6.173  14.588   4.823
86464SOL    HW161289   6.268  14.584   4.836
86464SOL    HW261290   6.162  14.585   4.728
86465SOL     OW61291   9.109   6.227   8.011
86465SOL    HW161292   9.123   6.286   8.085
86465SOL    HW261293   9.018   6.200   8.017
86466SOL     OW61294  13.183  10.947   6.176
86466SOL    HW161295  13.277  10.958   6.188
86466SOL    HW261296  13.150  11.036   6.163
86467SOL     OW61297   8.246  13.836  13.830
86467SOL    HW161298   8.185  13.856  13.758
86467SOL    HW261299   8.328  13.877  13.803
86468SOL     OW61300   2.330   0.115   3.840
86468SOL    HW161301   2.298   0.202   3.814
86468SOL    HW261302   2.253   0.058   3.834
86469SOL     OW61303  11.542  13.109  12.154
86469SOL    HW161304  11.558  13.148  12.068
86469SOL    HW261305  11.625  13.119  12.201
86470SOL     OW61306   4.595   9.932  13.963
86470SOL    HW161307   4.644   9.877  13.902
86470SOL    HW261308   4.527   9.874  13.999
86471SOL     OW61309   7.922  10.567   7.167
86471SOL    HW161310   7.948  10.587   7.077
86471SOL    HW261311   7.883  10.479   7.162
86472SOL     OW61312  12.545   8.912   9.568
86472SOL    HW161313  12.508   8.826   9.548
86472SOL    HW261314  12.608   8.927   9.497
86473SOL     OW61315  12.949   5.127   0.288
86473SOL    HW161316  12.888   5.054   0.277
86473SOL    HW261317  13.034   5.090   0.267
86474SOL     OW61318  13.611   4.154  14.224
86474SOL    HW161319  13.683   4.092  14.210
86474SOL    HW261320  13.601   4.157  14.320
86475SOL     OW61321  13.601  12.735  12.864
86475SOL    HW161322  13.535  12.669  12.882
86475SOL    HW261323  13.643  12.751  12.948
86476SOL     OW61324   4.633   0.228   9.618
86476SOL    HW161325   4.704   0.289   9.635
86476SOL    HW261326   4.586   0.221   9.701
86477SOL     OW61327   8.948   4.059   0.993
86477SOL    HW161328   8.880   4.067   0.926
86477SOL    HW261329   9.023   4.019   0.948
86478SOL     OW61330  12.214  10.594   8.438
86478SOL    HW161331  12.283  10.638   8.388
86478SOL    HW261332  12.216  10.504   8.408
86479SOL     OW61333  10.507   3.897   0.122
86479SOL    HW161334  10.513   3.906   0.217
86479SOL    HW261335  10.520   3.985   0.087
86480SOL     OW61336   9.957   4.840   5.075
86480SOL    HW161337   9.902   4.919   5.068
86480SOL    HW261338   9.976   4.815   4.985
86481SOL     OW61339   1.062  11.331   4.514
86481SOL    HW161340   1.139  11.367   4.558
86481SOL    HW261341   1.002  11.406   4.505
86482SOL     OW61342   9.738   9.539  10.700
86482SOL    HW161343   9.771   9.528  10.789
86482SOL    HW261344   9.664   9.599  10.709
86483SOL     OW61345  14.819   2.904  14.776
86483SOL    HW161346   0.003   2.977  14.750
86483SOL    HW261347  14.749   2.944  14.827
86484SOL     OW61348  13.619  12.675   1.086
86484SOL    HW161349  13.677  12.618   1.137
86484SOL    HW261350  13.613  12.756   1.138
86485SOL     OW61351   2.254  10.312  13.731
86485SOL    HW161352   2.167  10.288  13.764
86485SOL    HW261353   2.315  10.262  13.785
86486SOL     OW61354   5.320   8.824   4.449
86486SOL    HW161355   5.324   8.747   4.393
86486SOL    HW261356   5.287   8.894   4.392
86487SOL     OW61357   3.367  14.738   2.467
86487SOL    HW161358   3.310  14.802   2.508
86487SOL    HW261359   3.367  14.664   2.528
86488SOL     OW61360   4.827  12.776  12.418
86488SOL    HW161361   4.922  12.780  12.423
86488SOL    HW261362   4.796  12.833  12.489
86489SOL     OW61363   7.106   3.104   8.868
86489SOL    HW161364   7.033   3.115   8.806
86489SOL    HW261365   7.177   3.155   8.830
86490SOL     OW61366   2.373   7.266  10.800
86490SOL    HW161367   2.303   7.215  10.759
86490SOL    HW261368   2.353   7.264  10.893
86491SOL     OW61369   8.388   5.831  11.123
86491SOL    HW161370   8.390   5.910  11.069
86491SOL    HW261371   8.403   5.861  11.212
86492SOL     OW61372   3.775  12.222   2.494
86492SOL    HW161373   3.864  12.253   2.510
86492SOL    HW261374   3.741  12.201   2.581
86493SOL     OW61375   3.866   8.610  11.573
86493SOL    HW161376   3.821   8.557  11.639
86493SOL    HW261377   3.939   8.556  11.544
86494SOL     OW61378   8.818   6.596   4.095
86494SOL    HW161379   8.829   6.686   4.125
86494SOL    HW261380   8.738   6.566   4.136
86495SOL     OW61381   0.377   6.524  12.534
86495SOL    HW161382   0.386   6.561  12.622
86495SOL    HW261383   0.363   6.430  12.548
86496SOL     OW61384   9.784   6.581   7.748
86496SOL    HW161385   9.838   6.533   7.811
86496SOL    HW261386   9.826   6.564   7.663
86497SOL     OW61387  13.665  14.573   5.164
86497SOL    HW161388  13.742  14.631   5.160
86497SOL    HW261389  13.604  14.619   5.221
86498SOL     OW61390  10.258   1.186   5.113
86498SOL    HW161391  10.353   1.174   5.115
86498SOL    HW261392  10.242   1.257   5.176
86499SOL     OW61393   9.137  14.647  10.920
86499SOL    HW161394   9.183  14.635  11.003
86499SOL    HW261395   9.191  14.602  10.855
86500SOL     OW61396   9.437   4.047   6.612
86500SOL    HW161397   9.430   4.044   6.707
86500SOL    HW261398   9.430   4.139   6.590
86501SOL     OW61399  13.846   2.433   4.255
86501SOL    HW161400  13.862   2.502   4.190
86501SOL    HW261401  13.758   2.402   4.235
86502SOL     OW61402   4.460  12.430  12.242
86502SOL    HW161403   4.550  12.428  12.273
86502SOL    HW261404   4.459  12.373  12.165
86503SOL     OW61405  12.049  11.545  12.671
86503SOL    HW161406  12.012  11.598  12.741
86503SOL    HW261407  12.005  11.575  12.592
86504SOL     OW61408  14.651  12.716  10.032
86504SOL    HW161409  14.666  12.669  10.114
86504SOL    HW261410  14.731  12.767  10.019
86505SOL     OW61411  13.517  13.531   7.442
86505SOL    HW161412  13.464  13.561   7.516
86505SOL    HW261413  13.524  13.436   7.454
86506SOL     OW61414   8.405   3.444   4.089
86506SOL    HW161415   8.318   3.461   4.052
86506SOL    HW261416   8.416   3.349   4.079
86507SOL     OW61417  11.066   4.129  14.688
86507SOL    HW161418  11.110   4.213  14.670
86507SOL    HW261419  11.057   4.088  14.602
86508SOL     OW61420   0.458   3.874   5.850
86508SOL    HW161421   0.396   3.850   5.781
86508SOL    HW261422   0.539   3.830   5.825
86509SOL     OW61423   1.277   4.143   2.465
86509SOL    HW161424   1.291   4.125   2.558
86509SOL    HW261425   1.350   4.098   2.421
86510SOL     OW61426   2.030   6.371  11.707
86510SOL    HW161427   1.965   6.307  11.679
86510SOL    HW261428   1.980   6.437  11.754
86511SOL     OW61429   4.162   4.405   6.763
86511SOL    HW161430   4.140   4.498   6.757
86511SOL    HW261431   4.246   4.403   6.808
86512SOL     OW61432   0.077   6.981   7.192
86512SOL    HW161433   0.087   6.953   7.101
86512SOL    HW261434   0.113   7.070   7.193
86513SOL     OW61435   7.423   0.844   7.370
86513SOL    HW161436   7.368   0.819   7.296
86513SOL    HW261437   7.511   0.819   7.345
86514SOL     OW61438   5.495   8.931   6.437
86514SOL    HW161439   5.590   8.937   6.451
86514SOL    HW261440   5.471   8.849   6.480
86515SOL     OW61441   5.564   3.642   3.956
86515SOL    HW161442   5.543   3.660   3.864
86515SOL    HW261443   5.487   3.670   4.005
86516SOL     OW61444   0.045  11.197   2.114
86516SOL    HW161445   0.073  11.203   2.205
86516SOL    HW261446   0.090  11.119   2.080
86517SOL     OW61447   0.821   2.192  12.445
86517SOL    HW161448   0.750   2.148  12.490
86517SOL    HW261449   0.891   2.197  12.510
86518SOL     OW61450   7.293   7.124   6.054
86518SOL    HW161451   7.347   7.146   5.978
86518SOL    HW261452   7.255   7.039   6.033
86519SOL     OW61453   0.325   7.102   3.601
86519SOL    HW161454   0.393   7.049   3.642
86519SOL    HW261455   0.335   7.086   3.507
86520SOL     OW61456  13.120  13.843   9.302
86520SOL    HW161457  13.029  13.812   9.303
86520SOL    HW261458  13.172  13.763   9.301
86521SOL     OW61459  14.112   4.480   2.861
86521SOL    HW161460  14.095   4.574   2.855
86521SOL    HW261461  14.030   4.443   2.894
86522SOL     OW61462  11.707   6.864   6.027
86522SOL    HW161463  11.762   6.935   5.995
86522SOL    HW261464  11.750   6.784   5.999
86523SOL     OW61465   0.754  13.717   1.795
86523SOL    HW161466   0.842  13.680   1.793
86523SOL    HW261467   0.702  13.661   1.737
86524SOL     OW61468   5.409   7.633   3.492
86524SOL    HW161469   5.489   7.601   3.451
86524SOL    HW261470   5.344   7.631   3.421
86525SOL     OW61471  11.575   3.537   1.504
86525SOL    HW161472  11.529   3.616   1.475
86525SOL    HW261473  11.577   3.544   1.599
86526SOL     OW61474   5.804   7.733  10.231
86526SOL    HW161475   5.803   7.806  10.169
86526SOL    HW261476   5.890   7.738  10.273
86527SOL     OW61477  10.030   9.535   0.840
86527SOL    HW161478  10.120   9.566   0.847
86527SOL    HW261479   9.978   9.600   0.888
86528SOL     OW61480   8.543  13.018   4.416
86528SOL    HW161481   8.464  13.070   4.429
86528SOL    HW261482   8.559  13.022   4.321
86529SOL     OW61483   3.782  12.802  13.722
86529SOL    HW161484   3.859  12.852  13.751
86529SOL    HW261485   3.815  12.714  13.707
86530SOL     OW61486   8.792   2.385   7.872
86530SOL    HW161487   8.838   2.462   7.905
86530SOL    HW261488   8.740   2.417   7.799
86531SOL     OW61489   1.267   2.478   2.345
86531SOL    HW161490   1.240   2.391   2.315
86531SOL    HW261491   1.185   2.523   2.365
86532SOL     OW61492   3.512  11.617   5.822
86532SOL    HW161493   3.447  11.551   5.844
86532SOL    HW261494   3.493  11.691   5.880
86533SOL     OW61495   7.193   1.936   1.795
86533SOL    HW161496   7.229   1.959   1.710
86533SOL    HW261497   7.264   1.892   1.841
86534SOL     OW61498  14.745   0.916  12.305
86534SOL    HW161499  14.740   0.837  12.360
86534SOL    HW261500  14.756   0.883  12.216
86535SOL     OW61501  13.791   1.038  10.602
86535SOL    HW161502  13.795   1.133  10.610
86535SOL    HW261503  13.734   1.010  10.673
86536SOL     OW61504  11.953   8.849   0.736
86536SOL    HW161505  11.990   8.933   0.764
86536SOL    HW261506  11.870   8.872   0.694
86537SOL     OW61507   1.989  12.580  14.172
86537SOL    HW161508   1.947  12.646  14.118
86537SOL    HW261509   1.917  12.531  14.211
86538SOL     OW61510   0.047   0.381   7.157
86538SOL    HW161511   0.114   0.356   7.093
86538SOL    HW261512   0.092   0.442   7.215
86539SOL     OW61513   6.900  10.449   2.192
86539SOL    HW161514   6.974  10.506   2.172
86539SOL    HW261515   6.939  10.372   2.233
86540SOL     OW61516   1.426   3.191  10.956
86540SOL    HW161517   1.401   3.281  10.937
86540SOL    HW261518   1.513   3.197  10.995
86541SOL     OW61519   6.041   4.351   0.653
86541SOL    HW161520   5.962   4.405   0.660
86541SOL    HW261521   6.036   4.314   0.565
86542SOL     OW61522   4.884  11.752  14.413
86542SOL    HW161523   4.825  11.737  14.339
86542SOL    HW261524   4.881  11.670  14.463
86543SOL     OW61525  14.280   2.747   4.152
86543SOL    HW161526  14.266   2.669   4.099
86543SOL    HW261527  14.209   2.806   4.128
86544SOL     OW61528   7.670   7.283  14.341
86544SOL    HW161529   7.624   7.331  14.410
86544SOL    HW261530   7.707   7.207  14.385
86545SOL     OW61531   6.479  11.583  11.649
86545SOL    HW161532   6.536  11.637  11.704
86545SOL    HW261533   6.505  11.605  11.559
86546SOL     OW61534  14.410  13.928  12.956
86546SOL    HW161535  14.476  13.975  13.007
86546SOL    HW261536  14.350  13.893  13.022
86547SOL     OW61537  11.063   8.984   3.829
86547SOL    HW161538  11.067   9.010   3.922
86547SOL    HW261539  11.013   9.054   3.787
86548SOL     OW61540  11.691   3.975  14.135
86548SOL    HW161541  11.695   4.002  14.227
86548SOL    HW261542  11.657   3.886  14.137
86549SOL     OW61543   8.487   3.464   8.889
86549SOL    HW161544   8.573   3.461   8.931
86549SOL    HW261545   8.494   3.403   8.816
86550SOL     OW61546   5.820  12.427   3.748
86550SOL    HW161547   5.845  12.350   3.799
86550SOL    HW261548   5.812  12.394   3.658
86551SOL     OW61549   7.178  11.908   8.727
86551SOL    HW161550   7.131  11.956   8.796
86551SOL    HW261551   7.262  11.953   8.719
86552SOL     OW61552   8.326  14.590   3.171
86552SOL    HW161553   8.262  14.586   3.242
86552SOL    HW261554   8.273  14.595   3.091
86553SOL     OW61555  12.158   0.611   9.959
86553SOL    HW161556  12.118   0.538   9.911
86553SOL    HW261557  12.195   0.571  10.038
86554SOL     OW61558  11.582   6.983  13.701
86554SOL    HW161559  11.644   6.965  13.630
86554SOL    HW261560  11.580   7.079  13.706
86555SOL     OW61561   0.193   1.698   1.306
86555SOL    HW161562   0.257   1.769   1.305
86555SOL    HW261563   0.108   1.743   1.302
86556SOL     OW61564   9.055   9.594   8.056
86556SOL    HW161565   9.087   9.575   8.145
86556SOL    HW261566   9.089   9.522   8.003
86557SOL     OW61567   4.971  12.395  12.768
86557SOL    HW161568   4.919  12.322  12.736
86557SOL    HW261569   4.982  12.452  12.692
86558SOL     OW61570  12.125   5.984   1.380
86558SOL    HW161571  12.079   6.066   1.363
86558SOL    HW261572  12.092   5.924   1.313
86559SOL     OW61573   9.748   2.569   6.583
86559SOL    HW161574   9.748   2.648   6.529
86559SOL    HW261575   9.840   2.547   6.593
86560SOL     OW61576  10.207  13.885  14.185
86560SOL    HW161577  10.159  13.951  14.134
86560SOL    HW261578  10.155  13.873  14.264
86561SOL     OW61579  14.320  10.663  12.424
86561SOL    HW161580  14.370  10.632  12.348
86561SOL    HW261581  14.258  10.726  12.388
86562SOL     OW61582  14.623   8.042  13.781
86562SOL    HW161583  14.587   7.974  13.723
86562SOL    HW261584  14.557   8.051  13.850
86563SOL     OW61585   6.605   5.752  12.254
86563SOL    HW161586   6.669   5.791  12.314
86563SOL    HW261587   6.630   5.660  12.248
86564SOL     OW61588   7.188  11.458   4.982
86564SOL    HW161589   7.239  11.448   4.902
86564SOL    HW261590   7.216  11.543   5.018
86565SOL     OW61591   8.987   6.837  12.528
86565SOL    HW161592   8.896   6.865  12.519
86565SOL    HW261593   8.983   6.742  12.514
86566SOL     OW61594   0.583  10.113  12.489
86566SOL    HW161595   0.660  10.149  12.445
86566SOL    HW261596   0.612  10.102  12.580
86567SOL     OW61597  14.726   6.508   1.805
86567SOL    HW161598  14.775   6.496   1.887
86567SOL    HW261599  14.696   6.599   1.808
86568SOL     OW61600   8.313  10.358   0.020
86568SOL    HW161601   8.268  10.308   0.089
86568SOL    HW261602   8.246  10.372  14.824
86569SOL     OW61603  12.286   5.816  11.443
86569SOL    HW161604  12.208   5.861  11.476
86569SOL    HW261605  12.262   5.787  11.355
86570SOL     OW61606   0.807   2.296  10.718
86570SOL    HW161607   0.835   2.230  10.655
86570SOL    HW261608   0.838   2.265  10.803
86571SOL     OW61609  14.012   3.782   0.419
86571SOL    HW161610  13.925   3.769   0.383
86571SOL    HW261611  14.072   3.751   0.351
86572SOL     OW61612  10.744   1.854   3.756
86572SOL    HW161613  10.834   1.873   3.727
86572SOL    HW261614  10.738   1.895   3.842
86573SOL     OW61615   3.972   2.467   6.500
86573SOL    HW161616   4.002   2.455   6.590
86573SOL    HW261617   4.051   2.467   6.447
86574SOL     OW61618  11.511   2.956   5.929
86574SOL    HW161619  11.447   2.903   5.976
86574SOL    HW261620  11.536   3.025   5.991
86575SOL     OW61621  12.400   6.550  12.473
86575SOL    HW161622  12.445   6.623  12.516
86575SOL    HW261623  12.310   6.556  12.504
86576SOL     OW61624  13.874   9.837  14.006
86576SOL    HW161625  13.889   9.747  13.975
86576SOL    HW261626  13.807   9.828  14.074
86577SOL     OW61627  13.112  11.207   6.417
86577SOL    HW161628  13.179  11.171   6.476
86577SOL    HW261629  13.104  11.299   6.443
86578SOL     OW61630   7.817  10.251  10.055
86578SOL    HW161631   7.742  10.229  10.112
86578SOL    HW261632   7.789  10.224   9.968
86579SOL     OW61633   9.452  10.682   6.491
86579SOL    HW161634   9.491  10.624   6.425
86579SOL    HW261635   9.386  10.628   6.535
86580SOL     OW61636  12.081   2.292  13.600
86580SOL    HW161637  12.155   2.268  13.545
86580SOL    HW261638  12.083   2.388  13.602
86581SOL     OW61639  11.754   9.946  10.581
86581SOL    HW161640  11.751   9.915  10.672
86581SOL    HW261641  11.825   9.896  10.541
86582SOL     OW61642  14.302   8.717   0.391
86582SOL    HW161643  14.295   8.680   0.479
86582SOL    HW261644  14.373   8.667   0.350
86583SOL     OW61645   9.146   3.760   8.855
86583SOL    HW161646   9.119   3.760   8.764
86583SOL    HW261647   9.085   3.819   8.899
86584SOL     OW61648   9.891  12.293   7.781
86584SOL    HW161649   9.920  12.384   7.792
86584SOL    HW261650   9.921  12.269   7.693
86585SOL     OW61651  12.443   0.625   7.520
86585SOL    HW161652  12.407   0.627   7.432
86585SOL    HW261653  12.393   0.691   7.568
86586SOL     OW61654   6.377  14.697   2.107
86586SOL    HW161655   6.304  14.713   2.166
86586SOL    HW261656   6.423  14.621   2.145
86587SOL     OW61657  12.551  11.319   9.962
86587SOL    HW161658  12.494  11.243   9.951
86587SOL    HW261659  12.584  11.312  10.051
86588SOL     OW61660  14.689  12.242   0.022
86588SOL    HW161661  14.765  12.268  14.842
86588SOL    HW261662  14.665  12.320   0.072
86589SOL     OW61663  12.773   4.571   6.821
86589SOL    HW161664  12.749   4.518   6.897
86589SOL    HW261665  12.867   4.557   6.812
86590SOL     OW61666   3.821   5.569  12.231
86590SOL    HW161667   3.851   5.658  12.247
86590SOL    HW261668   3.734   5.565  12.271
86591SOL     OW61669   1.053   3.139   8.282
86591SOL    HW161670   0.971   3.090   8.278
86591SOL    HW261671   1.085   3.127   8.372
86592SOL     OW61672   1.104  11.946   3.857
86592SOL    HW161673   1.181  11.985   3.815
86592SOL    HW261674   1.059  12.020   3.898
86593SOL     OW61675  12.143   0.069   7.944
86593SOL    HW161676  12.077   0.105   8.003
86593SOL    HW261677  12.183   0.146   7.903
86594SOL     OW61678   7.308   0.356   9.147
86594SOL    HW161679   7.358   0.377   9.226
86594SOL    HW261680   7.289   0.441   9.107
86595SOL     OW61681   2.114  10.959   6.365
86595SOL    HW161682   2.041  10.908   6.331
86595SOL    HW261683   2.080  10.998   6.446
86596SOL     OW61684   8.241   5.714   5.673
86596SOL    HW161685   8.182   5.722   5.747
86596SOL    HW261686   8.184   5.715   5.596
86597SOL     OW61687  13.219   3.708   5.602
86597SOL    HW161688  13.227   3.646   5.529
86597SOL    HW261689  13.125   3.721   5.612
86598SOL     OW61690  11.587   0.503   5.667
86598SOL    HW161691  11.668   0.523   5.620
86598SOL    HW261692  11.608   0.425   5.719
86599SOL     OW61693   5.690   8.978   1.204
86599SOL    HW161694   5.613   8.920   1.205
86599SOL    HW261695   5.725   8.969   1.115
86600SOL     OW61696   4.637  13.593   5.347
86600SOL    HW161697   4.655  13.551   5.431
86600SOL    HW261698   4.672  13.681   5.356
86601SOL     OW61699   4.563  12.634   9.619
86601SOL    HW161700   4.649  12.603   9.591
86601SOL    HW261701   4.507  12.621   9.542
86602SOL     OW61702  13.186   8.032   9.396
86602SOL    HW161703  13.114   8.093   9.414
86602SOL    HW261704  13.202   7.988   9.479
86603SOL     OW61705  10.933   1.412   4.525
86603SOL    HW161706  10.901   1.340   4.472
86603SOL    HW261707  10.878   1.487   4.500
86604SOL     OW61708  13.327  10.963   8.992
86604SOL    HW161709  13.310  11.049   9.029
86604SOL    HW261710  13.418  10.968   8.961
86605SOL     OW61711   3.698   5.412  14.334
86605SOL    HW161712   3.641   5.489  14.332
86605SOL    HW261713   3.743   5.417  14.418
86606SOL     OW61714   0.879   1.097   7.558
86606SOL    HW161715   0.967   1.068   7.583
86606SOL    HW261716   0.894   1.180   7.511
86607SOL     OW61717   3.846  14.792   2.246
86607SOL    HW161718   3.852  14.721   2.310
86607SOL    HW261719   3.753  14.800   2.227
86608SOL     OW61720  10.156   6.740   5.878
86608SOL    HW161721  10.119   6.806   5.819
86608SOL    HW261722  10.250   6.752   5.872
86609SOL     OW61723   3.882  14.345   6.582
86609SOL    HW161724   3.820  14.417   6.564
86609SOL    HW261725   3.939  14.343   6.505
86610SOL     OW61726  10.662   5.343   2.932
86610SOL    HW161727  10.666   5.438   2.916
86610SOL    HW261728  10.752   5.314   2.919
86611SOL     OW61729   1.181   3.752  14.627
86611SOL    HW161730   1.177   3.803  14.708
86611SOL    HW261731   1.091   3.748  14.597
86612SOL     OW61732   1.484   6.462   6.579
86612SOL    HW161733   1.482   6.497   6.668
86612SOL    HW261734   1.460   6.536   6.523
86613SOL     OW61735   2.615   2.918  12.488
86613SOL    HW161736   2.609   3.012  12.500
86613SOL    HW261737   2.691   2.905  12.431
86614SOL     OW61738   7.206  12.157  13.304
86614SOL    HW161739   7.115  12.156  13.276
86614SOL    HW261740   7.245  12.081  13.262
86615SOL     OW61741   1.707   6.296  11.638
86615SOL    HW161742   1.781   6.244  11.606
86615SOL    HW261743   1.645   6.231  11.672
86616SOL     OW61744   0.045   6.054  11.862
86616SOL    HW161745   0.052   6.101  11.945
86616SOL    HW261746  14.837   6.088  11.822
86617SOL     OW61747   3.688   2.456   1.241
86617SOL    HW161748   3.723   2.427   1.157
86617SOL    HW261749   3.747   2.419   1.306
86618SOL     OW61750   6.751   7.066  14.751
86618SOL    HW161751   6.657   7.058  14.736
86618SOL    HW261752   6.763   7.155  14.785
86619SOL     OW61753   4.300  10.323   1.818
86619SOL    HW161754   4.333  10.300   1.905
86619SOL    HW261755   4.280  10.417   1.825
86620SOL     OW61756   4.558   7.140   1.681
86620SOL    HW161757   4.585   7.104   1.596
86620SOL    HW261758   4.607   7.222   1.688
86621SOL     OW61759   7.558  14.650  13.804
86621SOL    HW161760   7.555  14.561  13.840
86621SOL    HW261761   7.509  14.645  13.723
86622SOL     OW61762  13.543  14.235  13.251
86622SOL    HW161763  13.489  14.312  13.235
86622SOL    HW261764  13.510  14.169  13.191
86623SOL     OW61765   1.836   7.451   8.926
86623SOL    HW161766   1.815   7.543   8.913
86623SOL    HW261767   1.752   7.409   8.942
86624SOL     OW61768   7.481   0.205   1.479
86624SOL    HW161769   7.512   0.245   1.560
86624SOL    HW261770   7.435   0.274   1.433
86625SOL     OW61771   0.948  11.265   5.835
86625SOL    HW161772   0.931  11.171   5.830
86625SOL    HW261773   1.022  11.272   5.895
86626SOL     OW61774   0.685   8.628  14.030
86626SOL    HW161775   0.666   8.628  14.124
86626SOL    HW261776   0.780   8.621  14.025
86627SOL     OW61777   7.648   7.627   5.979
86627SOL    HW161778   7.676   7.575   6.054
86627SOL    HW261779   7.688   7.713   5.993
86628SOL     OW61780   5.229  11.698   4.965
86628SOL    HW161781   5.165  11.769   4.953
86628SOL    HW261782   5.187  11.639   5.027
86629SOL     OW61783   8.347   0.739  14.794
86629SOL    HW161784   8.412   0.740  14.864
86629SOL    HW261785   8.287   0.669  14.819
86630SOL     OW61786   6.760   7.613   0.953
86630SOL    HW161787   6.830   7.580   1.009
86630SOL    HW261788   6.684   7.560   0.976
86631SOL     OW61789   0.624   5.725  12.336
86631SOL    HW161790   0.646   5.781  12.410
86631SOL    HW261791   0.708   5.704  12.295
86632SOL     OW61792  12.063   7.559  12.435
86632SOL    HW161793  12.032   7.470  12.450
86632SOL    HW261794  12.037   7.608  12.513
86633SOL     OW61795  11.547   0.587  14.763
86633SOL    HW161796  11.569   0.506  14.715
86633SOL    HW261797  11.506   0.556  14.843
86634SOL     OW61798   2.180   3.219   2.715
86634SOL    HW161799   2.092   3.249   2.737
86634SOL    HW261800   2.170   3.175   2.630
86635SOL     OW61801   8.909   8.161   2.853
86635SOL    HW161802   8.959   8.098   2.801
86635SOL    HW261803   8.924   8.134   2.944
86636SOL     OW61804   2.493   4.578  14.185
86636SOL    HW161805   2.504   4.647  14.120
86636SOL    HW261806   2.582   4.563  14.218
86637SOL     OW61807   1.805   4.664  10.910
86637SOL    HW161808   1.740   4.653  10.841
86637SOL    HW261809   1.889   4.666  10.864
86638SOL     OW61810  12.952   5.958   5.448
86638SOL    HW161811  13.018   5.981   5.383
86638SOL    HW261812  12.910   6.041   5.470
86639SOL     OW61813   9.729   6.896   0.905
86639SOL    HW161814   9.646   6.932   0.936
86639SOL    HW261815   9.794   6.962   0.928
86640SOL     OW61816   2.386   4.853  12.059
86640SOL    HW161817   2.425   4.919  12.001
86640SOL    HW261818   2.361   4.781  12.001
86641SOL     OW61819   8.673   4.268  14.632
86641SOL    HW161820   8.698   4.245  14.542
86641SOL    HW261821   8.754   4.297  14.673
86642SOL     OW61822  13.423   3.824  14.212
86642SOL    HW161823  13.490   3.756  14.216
86642SOL    HW261824  13.414   3.854  14.302
86643SOL     OW61825   8.061   2.315   7.245
86643SOL    HW161826   8.097   2.285   7.329
86643SOL    HW261827   8.116   2.272   7.179
86644SOL     OW61828   4.678   7.588   3.659
86644SOL    HW161829   4.733   7.579   3.737
86644SOL    HW261830   4.611   7.651   3.685
86645SOL     OW61831  12.414   2.291   5.095
86645SOL    HW161832  12.474   2.231   5.051
86645SOL    HW261833  12.327   2.254   5.080
86646SOL     OW61834  11.990   6.902   5.072
86646SOL    HW161835  12.003   6.908   5.167
86646SOL    HW261836  11.912   6.847   5.062
86647SOL     OW61837   6.959   0.996  14.657
86647SOL    HW161838   6.895   1.003  14.728
86647SOL    HW261839   6.980   1.086  14.634
86648SOL     OW61840   5.273   6.970   2.488
86648SOL    HW161841   5.289   6.953   2.580
86648SOL    HW261842   5.192   7.021   2.486
86649SOL     OW61843   1.025  12.628   7.266
86649SOL    HW161844   0.975  12.559   7.222
86649SOL    HW261845   1.065  12.678   7.194
86650SOL     OW61846   3.888   5.960  10.202
86650SOL    HW161847   3.803   6.003  10.213
86650SOL    HW261848   3.876   5.872  10.238
86651SOL     OW61849   9.112  14.325   2.644
86651SOL    HW161850   9.099  14.303   2.551
86651SOL    HW261851   9.192  14.279   2.668
86652SOL     OW61852   8.992  10.723   6.387
86652SOL    HW161853   8.909  10.709   6.342
86652SOL    HW261854   9.042  10.642   6.370
86653SOL     OW61855   4.967   7.631   7.539
86653SOL    HW161856   5.019   7.709   7.557
86653SOL    HW261857   4.940   7.640   7.448
86654SOL     OW61858  13.961   0.400   5.883
86654SOL    HW161859  13.902   0.454   5.936
86654SOL    HW261860  13.951   0.312   5.919
86655SOL     OW61861   2.273   9.945   1.132
86655SOL    HW161862   2.282   9.921   1.224
86655SOL    HW261863   2.343   9.898   1.087
86656SOL     OW61864  14.700  13.412  10.381
86656SOL    HW161865  14.717  13.355  10.457
86656SOL    HW261866  14.770  13.478  10.385
86657SOL     OW61867   5.326   5.197  10.521
86657SOL    HW161868   5.283   5.112  10.523
86657SOL    HW261869   5.404   5.186  10.576
86658SOL     OW61870   6.061  14.542   9.536
86658SOL    HW161871   6.047  14.466   9.480
86658SOL    HW261872   6.031  14.616   9.485
86659SOL     OW61873   4.319   2.831  13.215
86659SOL    HW161874   4.325   2.764  13.284
86659SOL    HW261875   4.227   2.832  13.190
86660SOL     OW61876   2.321   6.563  12.372
86660SOL    HW161877   2.302   6.520  12.289
86660SOL    HW261878   2.413   6.543  12.389
86661SOL     OW61879   7.530  10.807   0.040
86661SOL    HW161880   7.480  10.871   0.090
86661SOL    HW261881   7.464  10.751  14.871
86662SOL     OW61882   8.776  12.105  11.448
86662SOL    HW161883   8.827  12.096  11.528
86662SOL    HW261884   8.700  12.048  11.462
86663SOL     OW61885  12.907   5.748  11.433
86663SOL    HW161886  12.884   5.817  11.496
86663SOL    HW261887  12.858   5.671  11.463
86664SOL     OW61888   0.940   3.225   1.444
86664SOL    HW161889   0.859   3.243   1.491
86664SOL    HW261890   0.916   3.229   1.352
86665SOL     OW61891   9.007   5.260   2.694
86665SOL    HW161892   8.931   5.267   2.637
86665SOL    HW261893   9.014   5.347   2.735
86666SOL     OW61894   0.721   5.110   6.064
86666SOL    HW161895   0.645   5.067   6.025
86666SOL    HW261896   0.743   5.056   6.140
86667SOL     OW61897   0.918  11.611   3.516
86667SOL    HW161898   0.829  11.615   3.550
86667SOL    HW261899   0.943  11.702   3.499
86668SOL     OW61900   5.372  11.784   8.409
86668SOL    HW161901   5.349  11.788   8.502
86668SOL    HW261902   5.291  11.803   8.362
86669SOL     OW61903   1.630   2.972  11.399
86669SOL    HW161904   1.549   2.941  11.361
86669SOL    HW261905   1.697   2.912  11.366
86670SOL     OW61906   8.362   8.414   1.156
86670SOL    HW161907   8.444   8.456   1.184
86670SOL    HW261908   8.386   8.322   1.143
86671SOL     OW61909   9.603  11.067   7.952
86671SOL    HW161910   9.539  11.097   7.888
86671SOL    HW261911   9.671  11.024   7.901
86672SOL     OW61912   2.796   4.040  12.707
86672SOL    HW161913   2.754   4.010  12.788
86672SOL    HW261914   2.752   3.988  12.638
86673SOL     OW61915  11.886  12.589  12.462
86673SOL    HW161916  11.836  12.668  12.442
86673SOL    HW261917  11.955  12.618  12.522
86674SOL     OW61918  12.345  10.093   8.202
86674SOL    HW161919  12.282  10.063   8.268
86674SOL    HW261920  12.375  10.013   8.160
86675SOL     OW61921   1.827   9.814  11.328
86675SOL    HW161922   1.827   9.820  11.423
86675SOL    HW261923   1.857   9.899  11.298
86676SOL     OW61924   0.678  10.783  10.299
86676SOL    HW161925   0.630  10.836  10.362
86676SOL    HW261926   0.620  10.779  10.223
86677SOL     OW61927   3.270   4.819  11.805
86677SOL    HW161928   3.337   4.873  11.845
86677SOL    HW261929   3.223   4.780  11.880
86678SOL     OW61930   1.613   6.717   4.768
86678SOL    HW161931   1.610   6.627   4.736
86678SOL    HW261932   1.546   6.721   4.837
86679SOL     OW61933   3.126   7.841   6.476
86679SOL    HW161934   3.211   7.802   6.495
86679SOL    HW261935   3.063   7.772   6.495
86680SOL     OW61936   8.520  14.115   5.028
86680SOL    HW161937   8.523  14.083   5.118
86680SOL    HW261938   8.535  14.038   4.974
86681SOL     OW61939   4.749   5.877   7.458
86681SOL    HW161940   4.682   5.945   7.468
86681SOL    HW261941   4.722   5.807   7.517
86682SOL     OW61942   1.389  14.002   0.527
86682SOL    HW161943   1.449  14.050   0.584
86682SOL    HW261944   1.345  14.069   0.475
86683SOL     OW61945   6.392  10.125  12.237
86683SOL    HW161946   6.332  10.060  12.198
86683SOL    HW261947   6.476  10.108  12.194
86684SOL     OW61948   6.105   9.140   8.446
86684SOL    HW161949   6.119   9.219   8.394
86684SOL    HW261950   6.192   9.103   8.457
86685SOL     OW61951  11.276   7.972  10.761
86685SOL    HW161952  11.216   7.965  10.687
86685SOL    HW261953  11.278   7.884  10.799
86686SOL     OW61954   8.772   1.220   5.769
86686SOL    HW161955   8.830   1.221   5.845
86686SOL    HW261956   8.714   1.296   5.782
86687SOL     OW61957  10.857   3.894   4.695
86687SOL    HW161958  10.765   3.883   4.672
86687SOL    HW261959  10.863   3.983   4.729
86688SOL     OW61960   5.343   6.222  12.477
86688SOL    HW161961   5.335   6.181  12.563
86688SOL    HW261962   5.424   6.273  12.481
86689SOL     OW61963  10.434  14.045   8.361
86689SOL    HW161964  10.474  14.132   8.358
86689SOL    HW261965  10.355  14.057   8.413
86690SOL     OW61966   8.340  14.163  11.921
86690SOL    HW161967   8.410  14.192  11.862
86690SOL    HW261968   8.360  14.071  11.939
86691SOL     OW61969   5.923   5.298   6.963
86691SOL    HW161970   5.930   5.353   6.885
86691SOL    HW261971   5.935   5.209   6.931
86692SOL     OW61972   5.191   6.284  12.986
86692SOL    HW161973   5.155   6.341  13.053
86692SOL    HW261974   5.178   6.195  13.020
86693SOL     OW61975   8.930   1.300   4.684
86693SOL    HW161976   8.939   1.259   4.598
86693SOL    HW261977   8.906   1.391   4.665
86694SOL     OW61978  13.252  10.210   4.096
86694SOL    HW161979  13.203  10.173   4.022
86694SOL    HW261980  13.186  10.248   4.153
86695SOL     OW61981   2.932   7.253   3.626
86695SOL    HW161982   2.847   7.262   3.669
86695SOL    HW261983   2.993   7.302   3.681
86696SOL     OW61984   1.915   6.059   2.635
86696SOL    HW161985   1.878   6.009   2.563
86696SOL    HW261986   1.952   5.992   2.694
86697SOL     OW61987   6.391  10.509   2.325
86697SOL    HW161988   6.342  10.580   2.283
86697SOL    HW261989   6.368  10.516   2.418
86698SOL     OW61990   6.064   7.830  13.671
86698SOL    HW161991   6.140   7.786  13.710
86698SOL    HW261992   6.004   7.845  13.744
86699SOL     OW61993   5.612  12.501  11.341
86699SOL    HW161994   5.625  12.577  11.285
86699SOL    HW261995   5.692  12.496  11.394
86700SOL     OW61996   8.914  12.065   3.860
86700SOL    HW161997   8.819  12.052   3.864
86700SOL    HW261998   8.947  12.015   3.935
86701SOL     OW61999   0.220  14.179   0.922
86701SOL    HW162000   0.185  14.095   0.950
86701SOL    HW262001   0.303  14.188   0.969
86702SOL     OW62002  10.588   2.408  10.188
86702SOL    HW162003  10.503   2.420  10.231
86702SOL    HW262004  10.633   2.491  10.203
86703SOL     OW62005   6.160  14.022   3.859
86703SOL    HW162006   6.144  13.989   3.770
86703SOL    HW262007   6.096  14.093   3.870
86704SOL     OW62008   4.203   4.161   1.085
86704SOL    HW162009   4.260   4.231   1.055
86704SOL    HW262010   4.240   4.081   1.049
86705SOL     OW62011   6.949   2.859   6.939
86705SOL    HW162012   7.023   2.920   6.933
86705SOL    HW262013   6.895   2.893   7.010
86706SOL     OW62014   6.829  13.331   3.393
86706SOL    HW162015   6.828  13.362   3.303
86706SOL    HW262016   6.785  13.246   3.390
86707SOL     OW62017   1.870  12.319   0.936
86707SOL    HW162018   1.905  12.252   0.877
86707SOL    HW262019   1.934  12.325   1.007
86708SOL     OW62020   2.651  12.101  13.881
86708SOL    HW162021   2.688  12.163  13.944
86708SOL    HW262022   2.708  12.024  13.887
86709SOL     OW62023   2.147  10.426   5.211
86709SOL    HW162024   2.194  10.406   5.292
86709SOL    HW262025   2.213  10.416   5.142
86710SOL     OW62026   8.271   3.746   8.058
86710SOL    HW162027   8.351   3.799   8.057
86710SOL    HW262028   8.240   3.751   8.148
86711SOL     OW62029   8.161  14.650   7.131
86711SOL    HW162030   8.175  14.570   7.182
86711SOL    HW262031   8.073  14.641   7.095
86712SOL     OW62032   3.233   7.628   9.443
86712SOL    HW162033   3.305   7.582   9.401
86712SOL    HW262034   3.273   7.705   9.483
86713SOL     OW62035   5.358   1.691  11.376
86713SOL    HW162036   5.354   1.615  11.318
86713SOL    HW262037   5.386   1.763  11.319
86714SOL     OW62038   3.407  14.143  11.535
86714SOL    HW162039   3.454  14.131  11.618
86714SOL    HW262040   3.468  14.189  11.478
86715SOL     OW62041   1.233  12.191   4.632
86715SOL    HW162042   1.189  12.234   4.706
86715SOL    HW262043   1.326  12.207   4.647
86716SOL     OW62044  11.550   3.846   7.616
86716SOL    HW162045  11.515   3.934   7.628
86716SOL    HW262046  11.516   3.795   7.690
86717SOL     OW62047   5.559   7.428  11.862
86717SOL    HW162048   5.520   7.387  11.939
86717SOL    HW262049   5.572   7.356  11.801
86718SOL     OW62050  10.220  11.772   8.488
86718SOL    HW162051  10.164  11.793   8.412
86718SOL    HW262052  10.186  11.828   8.558
86719SOL     OW62053  14.235   4.493   9.077
86719SOL    HW162054  14.277   4.554   9.016
86719SOL    HW262055  14.167   4.545   9.119
86720SOL     OW62056   9.050   5.567   1.594
86720SOL    HW162057   8.970   5.573   1.542
86720SOL    HW262058   9.120   5.559   1.528
86721SOL     OW62059   2.999   7.530  14.146
86721SOL    HW162060   3.016   7.478  14.224
86721SOL    HW262061   2.909   7.507  14.122
86722SOL     OW62062  10.100  11.818   8.251
86722SOL    HW162063  10.118  11.768   8.171
86722SOL    HW262064  10.011  11.793   8.275
86723SOL     OW62065   9.012   0.221   1.046
86723SOL    HW162066   9.020   0.316   1.033
86723SOL    HW262067   9.028   0.208   1.139
86724SOL     OW62068  10.942   8.217   9.750
86724SOL    HW162069  10.874   8.267   9.797
86724SOL    HW262070  10.897   8.138   9.720
86725SOL     OW62071   4.109  13.337   7.107
86725SOL    HW162072   4.103  13.318   7.014
86725SOL    HW262073   4.121  13.251   7.148
86726SOL     OW62074   1.847  12.226   3.821
86726SOL    HW162075   1.887  12.309   3.794
86726SOL    HW262076   1.802  12.194   3.743
86727SOL     OW62077   7.586   1.683   7.974
86727SOL    HW162078   7.641   1.630   8.031
86727SOL    HW262079   7.523   1.724   8.032
86728SOL     OW62080   6.922  12.659   3.375
86728SOL    HW162081   6.970  12.730   3.417
86728SOL    HW262082   6.855  12.634   3.438
86729SOL     OW62083  10.172  12.879  10.602
86729SOL    HW162084  10.112  12.839  10.539
86729SOL    HW262085  10.259  12.855  10.570
86730SOL     OW62086  12.888   8.379   7.219
86730SOL    HW162087  12.917   8.288   7.218
86730SOL    HW262088  12.904   8.409   7.308
86731SOL     OW62089   9.821  12.225   2.616
86731SOL    HW162090   9.827  12.158   2.684
86731SOL    HW262091   9.747  12.280   2.641
86732SOL     OW62092   0.074  12.261  11.485
86732SOL    HW162093   0.133  12.275  11.559
86732SOL    HW262094   0.065  12.166  11.478
86733SOL     OW62095   8.575   0.314  10.797
86733SOL    HW162096   8.582   0.386  10.735
86733SOL    HW262097   8.489   0.326  10.838
86734SOL     OW62098   9.425   9.111  13.285
86734SOL    HW162099   9.425   9.167  13.363
86734SOL    HW262100   9.333   9.108  13.258
86735SOL     OW62101  11.992   5.853  10.343
86735SOL    HW162102  11.994   5.815  10.255
86735SOL    HW262103  11.899   5.869  10.360
86736SOL     OW62104   2.113   6.358  12.868
86736SOL    HW162105   2.093   6.374  12.775
86736SOL    HW262106   2.094   6.265  12.881
86737SOL     OW62107   9.075  14.526  11.469
86737SOL    HW162108   9.116  14.611  11.487
86737SOL    HW262109   8.984  14.536  11.498
86738SOL     OW62110   0.768   0.819   3.927
86738SOL    HW162111   0.749   0.851   4.015
86738SOL    HW262112   0.847   0.766   3.937
86739SOL     OW62113   9.791   2.914  12.580
86739SOL    HW162114   9.839   2.848  12.531
86739SOL    HW262115   9.699   2.902  12.554
86740SOL     OW62116   3.139   8.099  12.668
86740SOL    HW162117   3.076   8.055  12.725
86740SOL    HW262118   3.160   8.035  12.601
86741SOL     OW62119   1.262   7.049   2.134
86741SOL    HW162120   1.267   7.043   2.039
86741SOL    HW262121   1.288   6.962   2.165
86742SOL     OW62122   1.552   9.657  13.828
86742SOL    HW162123   1.618   9.590  13.812
86742SOL    HW262124   1.480   9.610  13.872
86743SOL     OW62125   0.963  13.902  12.374
86743SOL    HW162126   0.969  13.991  12.338
86743SOL    HW262127   1.040  13.857  12.340
86744SOL     OW62128  10.802  14.766  13.539
86744SOL    HW162129  10.820  14.856  13.566
86744SOL    HW262130  10.745  14.775  13.463
86745SOL     OW62131   5.452   1.758   6.855
86745SOL    HW162132   5.400   1.679   6.846
86745SOL    HW262133   5.436   1.788   6.945
86746SOL     OW62134   0.182   5.359  13.982
86746SOL    HW162135   0.129   5.308  13.921
86746SOL    HW262136   0.203   5.298  14.053
86747SOL     OW62137   9.606  12.211   7.469
86747SOL    HW162138   9.526  12.237   7.516
86747SOL    HW262139   9.574  12.160   7.395
86748SOL     OW62140   1.633   2.912   4.588
86748SOL    HW162141   1.632   2.937   4.495
86748SOL    HW262142   1.542   2.889   4.608
86749SOL     OW62143  13.531  12.895   6.044
86749SOL    HW162144  13.479  12.892   6.124
86749SOL    HW262145  13.567  12.806   6.036
86750SOL     OW62146   9.648  11.952   8.532
86750SOL    HW162147   9.718  12.008   8.498
86750SOL    HW262148   9.635  11.886   8.464
86751SOL     OW62149  12.401   8.255   3.292
86751SOL    HW162150  12.347   8.334   3.292
86751SOL    HW262151  12.491   8.288   3.296
86752SOL     OW62152   5.926  11.621   9.401
86752SOL    HW162153   5.966  11.706   9.387
86752SOL    HW262154   5.903  11.590   9.314
86753SOL     OW62155  12.354  12.601   9.537
86753SOL    HW162156  12.290  12.530   9.528
86753SOL    HW262157  12.414  12.588   9.463
86754SOL     OW62158   4.603   8.181   3.574
86754SOL    HW162159   4.611   8.273   3.549
86754SOL    HW262160   4.512   8.170   3.599
86755SOL     OW62161  13.099   0.760   4.109
86755SOL    HW162162  13.160   0.759   4.183
86755SOL    HW262163  13.140   0.819   4.046
86756SOL     OW62164  10.207   8.431   6.199
86756SOL    HW162165  10.262   8.404   6.126
86756SOL    HW262166  10.222   8.525   6.207
86757SOL     OW62167   8.689  11.837  13.896
86757SOL    HW162168   8.702  11.882  13.812
86757SOL    HW262169   8.708  11.745  13.877
86758SOL     OW62170   6.698  11.693   3.056
86758SOL    HW162171   6.745  11.652   2.983
86758SOL    HW262172   6.621  11.638   3.069
86759SOL     OW62173  10.151   6.690  10.367
86759SOL    HW162174  10.242   6.677  10.394
86759SOL    HW262175  10.147   6.658  10.277
86760SOL     OW62176   0.228  14.427  12.826
86760SOL    HW162177   0.279  14.381  12.892
86760SOL    HW262178   0.282  14.423  12.746
86761SOL     OW62179  13.349   9.760  14.304
86761SOL    HW162180  13.392   9.701  14.242
86761SOL    HW262181  13.411   9.767  14.376
86762SOL     OW62182   8.129  14.091   4.295
86762SOL    HW162183   8.215  14.069   4.331
86762SOL    HW262184   8.138  14.078   4.201
86763SOL     OW62185  14.455   6.940  14.287
86763SOL    HW162186  14.498   7.024  14.272
86763SOL    HW262187  14.424   6.914  14.200
86764SOL     OW62188   5.830   8.957  13.278
86764SOL    HW162189   5.853   8.977  13.188
86764SOL    HW262190   5.751   9.007  13.295
86765SOL     OW62191  12.945  13.106  10.419
86765SOL    HW162192  12.903  13.086  10.334
86765SOL    HW262193  12.886  13.068  10.484
86766SOL     OW62194  14.020  14.011   3.247
86766SOL    HW162195  13.955  14.078   3.223
86766SOL    HW262196  14.014  13.946   3.178
86767SOL     OW62197  12.979  10.437   5.371
86767SOL    HW162198  13.054  10.468   5.421
86767SOL    HW262199  12.954  10.512   5.316
86768SOL     OW62200   9.317   7.714   3.753
86768SOL    HW162201   9.315   7.622   3.725
86768SOL    HW262202   9.355   7.761   3.679
86769SOL     OW62203  12.834  11.983  12.111
86769SOL    HW162204  12.745  11.990  12.146
86769SOL    HW262205  12.857  12.073  12.087
86770SOL     OW62206   2.219  10.448  14.666
86770SOL    HW162207   2.285  10.425  14.600
86770SOL    HW262208   2.196  10.539  14.645
86771SOL     OW62209  13.957  14.389   3.700
86771SOL    HW162210  13.938  14.476   3.736
86771SOL    HW262211  13.890  14.332   3.737
86772SOL     OW62212   2.664   4.736   7.489
86772SOL    HW162213   2.719   4.794   7.542
86772SOL    HW262214   2.675   4.650   7.530
86773SOL     OW62215  11.808   4.947   8.728
86773SOL    HW162216  11.888   4.975   8.684
86773SOL    HW262217  11.748   5.020   8.717
86774SOL     OW62218  11.353  10.891  11.293
86774SOL    HW162219  11.385  10.832  11.224
86774SOL    HW262220  11.392  10.976  11.271
86775SOL     OW62221   0.468  11.511   0.094
86775SOL    HW162222   0.512  11.431   0.064
86775SOL    HW262223   0.393  11.479   0.145
86776SOL     OW62224   8.366   5.601  12.494
86776SOL    HW162225   8.407   5.546  12.428
86776SOL    HW262226   8.381   5.691  12.464
86777SOL     OW62227   5.551  11.135   9.091
86777SOL    HW162228   5.634  11.120   9.137
86777SOL    HW262229   5.540  11.057   9.036
86778SOL     OW62230  14.724   3.731   5.509
86778SOL    HW162231  14.755   3.803   5.454
86778SOL    HW262232  14.769   3.743   5.592
86779SOL     OW62233   7.032   8.660   6.659
86779SOL    HW162234   6.989   8.634   6.740
86779SOL    HW262235   6.964   8.706   6.610
86780SOL     OW62236  14.494  13.329   1.030
86780SOL    HW162237  14.431  13.257   1.033
86780SOL    HW262238  14.440  13.408   1.026
86781SOL     OW62239   4.740   0.945   0.185
86781SOL    HW162240   4.800   1.009   0.225
86781SOL    HW262241   4.697   0.904   0.260
86782SOL     OW62242  11.770  10.150  12.089
86782SOL    HW162243  11.817  10.068  12.107
86782SOL    HW262244  11.816  10.187  12.013
86783SOL     OW62245  12.190   3.399   5.276
86783SOL    HW162246  12.148   3.400   5.190
86783SOL    HW262247  12.229   3.486   5.284
86784SOL     OW62248   6.537  14.459   9.719
86784SOL    HW162249   6.511  14.414   9.800
86784SOL    HW262250   6.455  14.496   9.685
86785SOL     OW62251   3.815   1.913   8.714
86785SOL    HW162252   3.796   1.835   8.661
86785SOL    HW262253   3.731   1.938   8.751
86786SOL     OW62254   7.255  11.039  13.726
86786SOL    HW162255   7.221  11.048  13.815
86786SOL    HW262256   7.285  11.128  13.703
86787SOL     OW62257   0.004   4.368  14.389
86787SOL    HW162258  14.841   4.437  14.333
86787SOL    HW262259   0.069   4.324  14.334
86788SOL     OW62260  13.118   1.498   4.845
86788SOL    HW162261  13.113   1.529   4.935
86788SOL    HW262262  13.211   1.476   4.833
86789SOL     OW62263   1.309  12.924   2.387
86789SOL    HW162264   1.325  12.884   2.472
86789SOL    HW262265   1.219  12.900   2.364
86790SOL     OW62266   7.671   6.518  13.320
86790SOL    HW162267   7.694   6.476  13.237
86790SOL    HW262268   7.752   6.558  13.350
86791SOL     OW62269   7.881   2.297  11.171
86791SOL    HW162270   7.923   2.292  11.085
86791SOL    HW262271   7.824   2.220  11.175
86792SOL     OW62272  11.851  14.044   3.390
86792SOL    HW162273  11.793  14.002   3.327
86792SOL    HW262274  11.808  14.126   3.412
86793SOL     OW62275   4.501   1.499  11.143
86793SOL    HW162276   4.503   1.460  11.056
86793SOL    HW262277   4.545   1.583  11.133
86794SOL     OW62278   6.114  12.651   0.536
86794SOL    HW162279   6.116  12.733   0.488
86794SOL    HW262280   6.042  12.602   0.497
86795SOL     OW62281  14.699   6.184  10.012
86795SOL    HW162282  14.697   6.182   9.917
86795SOL    HW262283  14.645   6.110  10.040
86796SOL     OW62284   9.937   9.960   6.245
86796SOL    HW162285  10.031   9.943   6.255
86796SOL    HW262286   9.916   9.926   6.158
86797SOL     OW62287   4.015   3.798   6.607
86797SOL    HW162288   4.001   3.873   6.549
86797SOL    HW262289   4.099   3.762   6.580
86798SOL     OW62290  11.122   9.797   2.062
86798SOL    HW162291  11.099   9.721   2.115
86798SOL    HW262292  11.041   9.822   2.018
86799SOL     OW62293   4.721  11.034  12.652
86799SOL    HW162294   4.674  10.956  12.682
86799SOL    HW262295   4.666  11.108  12.678
86800SOL     OW62296   8.032   7.440   6.295
86800SOL    HW162297   8.009   7.392   6.375
86800SOL    HW262298   7.947   7.462   6.256
86801SOL     OW62299  13.262  13.193   5.615
86801SOL    HW162300  13.289  13.128   5.551
86801SOL    HW262301  13.283  13.155   5.700
86802SOL     OW62302   4.798   0.070   8.774
86802SOL    HW162303   4.843   0.014   8.837
86802SOL    HW262304   4.773   0.148   8.825
86803SOL     OW62305   4.137   5.694  11.173
86803SOL    HW162306   4.060   5.637  11.164
86803SOL    HW262307   4.210   5.638  11.147
86804SOL     OW62308  12.959   2.230   4.620
86804SOL    HW162309  13.052   2.219   4.599
86804SOL    HW262310  12.956   2.307   4.676
86805SOL     OW62311   6.663   9.828   5.394
86805SOL    HW162312   6.729   9.793   5.334
86805SOL    HW262313   6.582   9.785   5.368
86806SOL     OW62314  11.288   1.077   0.860
86806SOL    HW162315  11.210   1.084   0.805
86806SOL    HW262316  11.356   1.042   0.802
86807SOL     OW62317   0.382   6.311   4.046
86807SOL    HW162318   0.409   6.389   3.998
86807SOL    HW262319   0.331   6.260   3.983
86808SOL     OW62320   5.979   6.414   4.098
86808SOL    HW162321   5.953   6.404   4.190
86808SOL    HW262322   6.049   6.349   4.086
86809SOL     OW62323  11.074   7.458   8.092
86809SOL    HW162324  11.159   7.496   8.113
86809SOL    HW262325  11.095   7.374   8.051
86810SOL     OW62326   3.262   6.672   3.579
86810SOL    HW162327   3.350   6.701   3.598
86810SOL    HW262328   3.228   6.638   3.662
86811SOL     OW62329  11.877   3.117   6.276
86811SOL    HW162330  11.794   3.098   6.320
86811SOL    HW262331  11.885   3.048   6.210
86812SOL     OW62332  10.225   1.087   0.085
86812SOL    HW162333  10.261   1.024   0.148
86812SOL    HW262334  10.131   1.086   0.101
86813SOL     OW62335   5.934  11.746  13.575
86813SOL    HW162336   5.907  11.829  13.535
86813SOL    HW262337   5.913  11.680  13.509
86814SOL     OW62338  10.515   1.763   6.001
86814SOL    HW162339  10.492   1.853   5.980
86814SOL    HW262340  10.568   1.769   6.081
86815SOL     OW62341   6.401  13.480   4.361
86815SOL    HW162342   6.465  13.475   4.432
86815SOL    HW262343   6.428  13.555   4.309
86816SOL     OW62344   8.577   9.715  10.846
86816SOL    HW162345   8.594   9.775  10.919
86816SOL    HW262346   8.554   9.773  10.773
86817SOL     OW62347  10.182  14.367   8.528
86817SOL    HW162348  10.111  14.383   8.590
86817SOL    HW262349  10.144  14.308   8.463
86818SOL     OW62350  12.278   8.095   9.339
86818SOL    HW162351  12.224   8.033   9.388
86818SOL    HW262352  12.362   8.095   9.384
86819SOL     OW62353  14.578  14.808   2.439
86819SOL    HW162354  14.667  14.786   2.411
86819SOL    HW262355  14.587  14.832   2.531
86820SOL     OW62356  11.212   9.527   4.350
86820SOL    HW162357  11.296   9.508   4.391
86820SOL    HW262358  11.213   9.623   4.339
86821SOL     OW62359   4.303   6.347   7.002
86821SOL    HW162360   4.363   6.287   6.958
86821SOL    HW262361   4.302   6.425   6.946
86822SOL     OW62362   2.846  14.219   6.259
86822SOL    HW162363   2.808  14.230   6.346
86822SOL    HW262364   2.814  14.133   6.230
86823SOL     OW62365   1.488  14.481  13.136
86823SOL    HW162366   1.411  14.473  13.192
86823SOL    HW262367   1.512  14.574  13.141
86824SOL     OW62368  12.102   7.220  10.011
86824SOL    HW162369  12.037   7.236  10.079
86824SOL    HW262370  12.172   7.171  10.056
86825SOL     OW62371   6.881   5.715  12.988
86825SOL    HW162372   6.860   5.625  12.962
86825SOL    HW262373   6.887   5.712  13.083
86826SOL     OW62374   4.358   5.781   2.882
86826SOL    HW162375   4.436   5.734   2.854
86826SOL    HW262376   4.371   5.870   2.849
86827SOL     OW62377   4.870  12.703   2.082
86827SOL    HW162378   4.887  12.758   2.006
86827SOL    HW262379   4.782  12.667   2.067
86828SOL     OW62380   4.940  11.423   9.869
86828SOL    HW162381   4.957  11.515   9.850
86828SOL    HW262382   5.010  11.398   9.930
86829SOL     OW62383   2.328   2.873   5.860
86829SOL    HW162384   2.326   2.938   5.930
86829SOL    HW262385   2.275   2.800   5.894
86830SOL     OW62386  10.183  12.873   7.245
86830SOL    HW162387  10.129  12.796   7.265
86830SOL    HW262388  10.156  12.938   7.310
86831SOL     OW62389  14.182  10.931   8.103
86831SOL    HW162390  14.238  10.907   8.029
86831SOL    HW262391  14.109  10.979   8.063
86832SOL     OW62392   0.623   7.165   6.661
86832SOL    HW162393   0.648   7.182   6.571
86832SOL    HW262394   0.676   7.090   6.687
86833SOL     OW62395   7.985   2.525   6.015
86833SOL    HW162396   7.953   2.613   5.994
86833SOL    HW262397   8.035   2.498   5.937
86834SOL     OW62398  12.722   4.829   2.650
86834SOL    HW162399  12.682   4.836   2.737
86834SOL    HW262400  12.816   4.834   2.667
86835SOL     OW62401   0.166   1.349   3.457
86835SOL    HW162402   0.197   1.271   3.503
86835SOL    HW262403   0.092   1.380   3.508
86836SOL     OW62404   0.276  12.148   1.077
86836SOL    HW162405   0.271  12.060   1.114
86836SOL    HW262406   0.369  12.168   1.073
86837SOL     OW62407  11.961   4.056   9.047
86837SOL    HW162408  11.866   4.056   9.051
86837SOL    HW262409  11.982   4.110   8.971
86838SOL     OW62410  12.667   6.857   0.581
86838SOL    HW162411  12.668   6.923   0.651
86838SOL    HW262412  12.582   6.815   0.589
86839SOL     OW62413   0.666   5.405   4.876
86839SOL    HW162414   0.578   5.425   4.843
86839SOL    HW262415   0.716   5.382   4.798
86840SOL     OW62416  13.166  14.385  13.291
86840SOL    HW162417  13.101  14.453  13.311
86840SOL    HW262418  13.249  14.422  13.320
86841SOL     OW62419  10.029   2.041   7.809
86841SOL    HW162420  10.069   2.116   7.853
86841SOL    HW262421  10.068   2.041   7.721
86842SOL     OW62422  10.232   2.873   5.994
86842SOL    HW162423  10.221   2.945   5.931
86842SOL    HW262424  10.311   2.895   6.043
86843SOL     OW62425   2.521   2.287   6.470
86843SOL    HW162426   2.508   2.192   6.475
86843SOL    HW262427   2.509   2.308   6.378
86844SOL     OW62428  12.023   5.374  12.338
86844SOL    HW162429  12.081   5.321  12.283
86844SOL    HW262430  11.936   5.364  12.299
86845SOL     OW62431   7.134   9.128   3.928
86845SOL    HW162432   7.187   9.049   3.921
86845SOL    HW262433   7.183   9.194   3.879
86846SOL     OW62434   9.545  11.217   9.884
86846SOL    HW162435   9.604  11.271   9.937
86846SOL    HW262436   9.527  11.140   9.939
86847SOL     OW62437  13.923  13.716   5.807
86847SOL    HW162438  13.948  13.722   5.715
86847SOL    HW262439  13.917  13.622   5.824
86848SOL     OW62440   3.327   3.866   8.586
86848SOL    HW162441   3.409   3.848   8.541
86848SOL    HW262442   3.336   3.956   8.616
86849SOL     OW62443  11.417   2.875   2.654
86849SOL    HW162444  11.453   2.955   2.693
86849SOL    HW262445  11.450   2.875   2.564
86850SOL     OW62446   1.922   8.107   4.143
86850SOL    HW162447   2.008   8.139   4.169
86850SOL    HW262448   1.865   8.184   4.148
86851SOL     OW62449   8.482  12.816   7.012
86851SOL    HW162450   8.558  12.759   7.030
86851SOL    HW262451   8.489  12.885   7.078
86852SOL     OW62452  13.182   5.903   0.088
86852SOL    HW162453  13.189   5.992   0.124
86852SOL    HW262454  13.151   5.850   0.162
86853SOL     OW62455   4.135  13.443   5.489
86853SOL    HW162456   4.215  13.456   5.437
86853SOL    HW262457   4.152  13.493   5.569
86854SOL     OW62458   2.732  11.167  11.277
86854SOL    HW162459   2.814  11.195  11.317
86854SOL    HW262460   2.748  11.077  11.248
86855SOL     OW62461  11.872  10.881  14.254
86855SOL    HW162462  11.947  10.862  14.197
86855SOL    HW262463  11.796  10.849  14.206
86856SOL     OW62464  10.141   8.232  12.822
86856SOL    HW162465  10.051   8.261  12.840
86856SOL    HW262466  10.133   8.176  12.745
86857SOL     OW62467   0.139  13.245   6.997
86857SOL    HW162468   0.053  13.277   7.024
86857SOL    HW262469   0.200  13.289   7.057
86858SOL     OW62470   8.599  10.035   5.316
86858SOL    HW162471   8.653  10.103   5.358
86858SOL    HW262472   8.547  10.083   5.250
86859SOL     OW62473   0.742   8.239   0.180
86859SOL    HW162474   0.802   8.171   0.212
86859SOL    HW262475   0.661   8.225   0.228
86860SOL     OW62476   4.629   7.913  14.471
86860SOL    HW162477   4.681   7.989  14.445
86860SOL    HW262478   4.689   7.860  14.523
86861SOL     OW62479   0.790   0.606   7.872
86861SOL    HW162480   0.702   0.618   7.837
86861SOL    HW262481   0.832   0.544   7.813
86862SOL     OW62482   7.125   2.463   1.079
86862SOL    HW162483   7.170   2.532   1.128
86862SOL    HW262484   7.138   2.487   0.987
86863SOL     OW62485   7.749  14.597   8.411
86863SOL    HW162486   7.789  14.510   8.418
86863SOL    HW262487   7.675  14.585   8.351
86864SOL     OW62488   9.005  10.610   5.238
86864SOL    HW162489   8.959  10.541   5.287
86864SOL    HW262490   9.097  10.597   5.261
86865SOL     OW62491   9.209   3.247  13.261
86865SOL    HW162492   9.171   3.303  13.328
86865SOL    HW262493   9.301   3.274  13.256
86866SOL     OW62494  13.771  13.926   9.535
86866SOL    HW162495  13.863  13.920   9.559
86866SOL    HW262496  13.738  13.999   9.587
86867SOL     OW62497   8.797  13.198  12.486
86867SOL    HW162498   8.772  13.263  12.421
86867SOL    HW262499   8.718  13.184  12.539
86868SOL     OW62500   5.694   4.055   3.185
86868SOL    HW162501   5.737   3.993   3.126
86868SOL    HW262502   5.764   4.089   3.241
86869SOL     OW62503  11.424   4.268  11.286
86869SOL    HW162504  11.345   4.234  11.244
86869SOL    HW262505  11.391   4.331  11.351
86870SOL     OW62506   9.141   0.989  10.316
86870SOL    HW162507   9.167   0.941  10.238
86870SOL    HW262508   9.090   0.927  10.367
86871SOL     OW62509   7.354  12.724  11.651
86871SOL    HW162510   7.285  12.674  11.696
86871SOL    HW262511   7.399  12.659  11.598
86872SOL     OW62512   0.542  10.664   2.104
86872SOL    HW162513   0.569  10.755   2.096
86872SOL    HW262514   0.620  10.614   2.081
86873SOL     OW62515   1.364  10.530  12.584
86873SOL    HW162516   1.346  10.472  12.658
86873SOL    HW262517   1.423  10.597  12.619
86874SOL     OW62518   1.238  13.996  10.172
86874SOL    HW162519   1.250  13.941  10.250
86874SOL    HW262520   1.148  13.980  10.145
86875SOL     OW62521  14.002  13.310   3.354
86875SOL    HW162522  14.046  13.248   3.296
86875SOL    HW262523  13.914  13.273   3.366
86876SOL     OW62524   9.143   1.427   4.505
86876SOL    HW162525   9.225   1.471   4.528
86876SOL    HW262526   9.077   1.471   4.559
86877SOL     OW62527   5.811   7.025   3.256
86877SOL    HW162528   5.796   6.933   3.234
86877SOL    HW262529   5.821   7.025   3.352
86878SOL     OW62530   0.628   3.025   7.601
86878SOL    HW162531   0.602   2.949   7.654
86878SOL    HW262532   0.683   2.989   7.532
86879SOL     OW62533   0.238  12.270   6.952
86879SOL    HW162534   0.159  12.244   6.999
86879SOL    HW262535   0.276  12.187   6.922
86880SOL     OW62536   1.225  14.130   1.129
86880SOL    HW162537   1.209  14.124   1.223
86880SOL    HW262538   1.259  14.218   1.116
86881SOL     OW62539   7.925   7.982  11.048
86881SOL    HW162540   7.877   7.978  11.131
86881SOL    HW262541   7.894   7.905  10.999
86882SOL     OW62542   2.207   0.946   6.237
86882SOL    HW162543   2.274   0.959   6.304
86882SOL    HW262544   2.164   0.864   6.261
86883SOL     OW62545   1.719   4.175  11.471
86883SOL    HW162546   1.811   4.201  11.459
86883SOL    HW262547   1.722   4.107  11.538
86884SOL     OW62548   6.920   8.587   7.251
86884SOL    HW162549   6.886   8.662   7.300
86884SOL    HW262550   6.864   8.582   7.174
86885SOL     OW62551   8.650  11.965   1.860
86885SOL    HW162552   8.670  12.024   1.933
86885SOL    HW262553   8.690  12.006   1.784
86886SOL     OW62554  11.588   5.610   6.585
86886SOL    HW162555  11.682   5.619   6.567
86886SOL    HW262556  11.553   5.565   6.508
86887SOL     OW62557   3.748  12.382   4.719
86887SOL    HW162558   3.702  12.464   4.703
86887SOL    HW262559   3.816  12.405   4.783
86888SOL     OW62560   6.942   8.720  13.815
86888SOL    HW162561   6.878   8.650  13.827
86888SOL    HW262562   6.926   8.751  13.726
86889SOL     OW62563   1.171   0.277  12.397
86889SOL    HW162564   1.128   0.327  12.466
86889SOL    HW262565   1.130   0.191  12.399
86890SOL     OW62566   3.208   8.285   8.386
86890SOL    HW162567   3.179   8.214   8.330
86890SOL    HW262568   3.128   8.316   8.429
86891SOL     OW62569   9.546   5.935  13.646
86891SOL    HW162570   9.631   5.928  13.689
86891SOL    HW262571   9.517   6.025  13.664
86892SOL     OW62572   0.127  13.499   9.537
86892SOL    HW162573   0.090  13.455   9.460
86892SOL    HW262574   0.219  13.472   9.539
86893SOL     OW62575  11.407  13.276   9.504
86893SOL    HW162576  11.403  13.311   9.593
86893SOL    HW262577  11.335  13.213   9.499
86894SOL     OW62578   9.655   4.401  10.863
86894SOL    HW162579   9.671   4.439  10.949
86894SOL    HW262580   9.590   4.332  10.878
86895SOL     OW62581  11.063  11.177   4.781
86895SOL    HW162582  11.145  11.190   4.829
86895SOL    HW262583  11.046  11.261   4.739
86896SOL     OW62584  12.396   1.408   8.872
86896SOL    HW162585  12.453   1.408   8.949
86896SOL    HW262586  12.377   1.500   8.856
86897SOL     OW62587   6.972   5.928   2.069
86897SOL    HW162588   6.995   5.980   2.146
86897SOL    HW262589   7.016   5.844   2.083
86898SOL     OW62590  10.391  12.048   0.177
86898SOL    HW162591  10.477  12.036   0.217
86898SOL    HW262592  10.410  12.087   0.091
86899SOL     OW62593  13.723   3.614  10.375
86899SOL    HW162594  13.710   3.529  10.418
86899SOL    HW262595  13.736   3.676  10.446
86900SOL     OW62596   0.160  11.047   9.680
86900SOL    HW162597   0.144  10.961   9.720
86900SOL    HW262598   0.238  11.033   9.626
86901SOL     OW62599   2.841  13.179  11.490
86901SOL    HW162600   2.858  13.140  11.404
86901SOL    HW262601   2.921  13.165  11.539
86902SOL     OW62602   0.712  13.565   3.539
86902SOL    HW162603   0.807  13.559   3.545
86902SOL    HW262604   0.692  13.653   3.572
86903SOL     OW62605  11.762   6.670  12.940
86903SOL    HW162606  11.672   6.692  12.965
86903SOL    HW262607  11.815   6.740  12.978
86904SOL     OW62608  13.922   1.801   5.843
86904SOL    HW162609  13.891   1.845   5.922
86904SOL    HW262610  13.876   1.717   5.843
86905SOL     OW62611   0.436   9.037   8.306
86905SOL    HW162612   0.341   9.032   8.318
86905SOL    HW262613   0.472   8.977   8.371
86906SOL     OW62614  14.321   9.415  14.017
86906SOL    HW162615  14.338   9.463  13.935
86906SOL    HW262616  14.272   9.477  14.071
86907SOL     OW62617   4.923   4.223   7.051
86907SOL    HW162618   4.907   4.298   7.108
86907SOL    HW262619   4.899   4.147   7.103
86908SOL     OW62620   8.742   8.203  11.612
86908SOL    HW162621   8.777   8.114  11.605
86908SOL    HW262622   8.796   8.255  11.554
86909SOL     OW62623  10.253   0.135  13.450
86909SOL    HW162624  10.206   0.178  13.378
86909SOL    HW262625  10.205   0.159  13.529
86910SOL     OW62626   4.495   6.135   6.538
86910SOL    HW162627   4.442   6.063   6.571
86910SOL    HW262628   4.559   6.152   6.606
86911SOL     OW62629   7.032   4.515  12.048
86911SOL    HW162630   6.968   4.584  12.069
86911SOL    HW262631   7.049   4.473  12.132
86912SOL     OW62632   5.060   1.293   3.826
86912SOL    HW162633   5.074   1.200   3.843
86912SOL    HW262634   5.060   1.334   3.912
86913SOL     OW62635   9.567   9.175   1.188
86913SOL    HW162636   9.626   9.105   1.216
86913SOL    HW262637   9.607   9.255   1.222
86914SOL     OW62638   1.653  12.024   7.331
86914SOL    HW162639   1.744  11.999   7.313
86914SOL    HW262640   1.660  12.110   7.373
86915SOL     OW62641   7.386   7.460   8.443
86915SOL    HW162642   7.329   7.473   8.518
86915SOL    HW262643   7.345   7.389   8.394
86916SOL     OW62644   4.022   8.461   4.475
86916SOL    HW162645   4.008   8.499   4.389
86916SOL    HW262646   3.934   8.434   4.503
86917SOL     OW62647   6.547  10.550   9.438
86917SOL    HW162648   6.557  10.455   9.437
86917SOL    HW262649   6.455  10.565   9.414
86918SOL     OW62650   6.612   3.928   4.873
86918SOL    HW162651   6.645   3.903   4.786
86918SOL    HW262652   6.659   4.008   4.894
86919SOL     OW62653   3.080  14.029   2.358
86919SOL    HW162654   3.152  13.966   2.366
86919SOL    HW262655   3.035  14.003   2.277
86920SOL     OW62656   4.850   1.121  12.371
86920SOL    HW162657   4.793   1.177  12.425
86920SOL    HW262658   4.918   1.180  12.339
86921SOL     OW62659  10.026   4.523   7.998
86921SOL    HW162660   9.982   4.456   8.050
86921SOL    HW262661  10.003   4.501   7.908
86922SOL     OW62662   9.181   2.795   5.484
86922SOL    HW162663   9.148   2.707   5.466
86922SOL    HW262664   9.171   2.841   5.400
86923SOL     OW62665   7.850  14.656   8.011
86923SOL    HW162666   7.892  14.576   7.980
86923SOL    HW262667   7.922  14.712   8.040
86924SOL     OW62668   8.747   7.966  11.379
86924SOL    HW162669   8.833   7.928  11.392
86924SOL    HW262670   8.761   8.040  11.320
86925SOL     OW62671   3.896   3.376   7.184
86925SOL    HW162672   3.825   3.429   7.221
86925SOL    HW262673   3.963   3.375   7.252
86926SOL     OW62674  10.981  10.812  12.546
86926SOL    HW162675  11.033  10.755  12.604
86926SOL    HW262676  10.976  10.895  12.594
86927SOL     OW62677   9.280  14.123   0.499
86927SOL    HW162678   9.225  14.047   0.518
86927SOL    HW262679   9.338  14.094   0.428
86928SOL     OW62680   9.180   9.084   4.689
86928SOL    HW162681   9.113   9.021   4.716
86928SOL    HW262682   9.214   9.120   4.771
86929SOL     OW62683  11.006   6.799  13.399
86929SOL    HW162684  11.016   6.706  13.418
86929SOL    HW262685  10.986   6.803  13.306
86930SOL     OW62686   0.203  10.322  14.733
86930SOL    HW162687   0.186  10.255  14.667
86930SOL    HW262688   0.121  10.370  14.742
86931SOL     OW62689  13.209   4.681  10.307
86931SOL    HW162690  13.146   4.751  10.290
86931SOL    HW262691  13.250   4.706  10.390
86932SOL     OW62692   9.244   8.185   8.201
86932SOL    HW162693   9.313   8.212   8.140
86932SOL    HW262694   9.217   8.099   8.169
86933SOL     OW62695   9.312  14.308   6.620
86933SOL    HW162696   9.360  14.387   6.597
86933SOL    HW262697   9.377  14.250   6.660
86934SOL     OW62698  14.868  11.920   5.675
86934SOL    HW162699   0.090  11.932   5.659
86934SOL    HW262700  14.826  11.979   5.612
86935SOL     OW62701   7.885   4.566   2.923
86935SOL    HW162702   7.818   4.547   2.988
86935SOL    HW262703   7.964   4.524   2.958
86936SOL     OW62704   8.444  14.793   5.001
86936SOL    HW162705   8.421  14.708   5.041
86936SOL    HW262706   8.388  14.856   5.047
86937SOL     OW62707  10.280   5.870   2.070
86937SOL    HW162708  10.352   5.884   2.132
86937SOL    HW262709  10.288   5.778   2.044
86938SOL     OW62710   5.637  10.934   0.774
86938SOL    HW162711   5.678  11.013   0.739
86938SOL    HW262712   5.543  10.952   0.768
86939SOL     OW62713   9.570   1.572   3.760
86939SOL    HW162714   9.498   1.600   3.816
86939SOL    HW262715   9.528   1.531   3.685
86940SOL     OW62716   1.625   0.884   6.887
86940SOL    HW162717   1.656   0.803   6.927
86940SOL    HW262718   1.544   0.904   6.932
86941SOL     OW62719  13.219   1.825   4.684
86941SOL    HW162720  13.224   1.805   4.591
86941SOL    HW262721  13.295   1.781   4.722
86942SOL     OW62722   9.178   5.841   8.382
86942SOL    HW162723   9.235   5.849   8.459
86942SOL    HW262724   9.239   5.828   8.309
86943SOL     OW62725  13.142  10.780   7.274
86943SOL    HW162726  13.235  10.795   7.290
86943SOL    HW262727  13.103  10.776   7.362
86944SOL     OW62728   7.020  14.096   4.571
86944SOL    HW162729   7.044  14.083   4.479
86944SOL    HW262730   6.953  14.164   4.569
86945SOL     OW62731   2.545  10.547  13.512
86945SOL    HW162732   2.544  10.452  13.502
86945SOL    HW262733   2.632  10.566  13.549
86946SOL     OW62734   3.507   6.347  13.932
86946SOL    HW162735   3.439   6.388  13.986
86946SOL    HW262736   3.559   6.296  13.994
86947SOL     OW62737  14.461   3.504   9.269
86947SOL    HW162738  14.512   3.585   9.276
86947SOL    HW262739  14.510   3.451   9.206
86948SOL     OW62740   9.537   5.285   6.081
86948SOL    HW162741   9.584   5.202   6.075
86948SOL    HW262742   9.507   5.302   5.992
86949SOL     OW62743   2.136  13.250   8.502
86949SOL    HW162744   2.155  13.206   8.419
86949SOL    HW262745   2.219  13.250   8.549
86950SOL     OW62746   3.749   8.988  10.413
86950SOL    HW162747   3.768   8.972  10.321
86950SOL    HW262748   3.723   8.903  10.448
86951SOL     OW62749   5.182   7.744   5.608
86951SOL    HW162750   5.182   7.831   5.567
86951SOL    HW262751   5.228   7.756   5.691
86952SOL     OW62752   4.044   1.796  10.072
86952SOL    HW162753   4.095   1.755  10.143
86952SOL    HW262754   4.084   1.762   9.992
86953SOL     OW62755   2.147   5.164  13.302
86953SOL    HW162756   2.166   5.181  13.210
86953SOL    HW262757   2.184   5.078  13.320
86954SOL     OW62758   4.298   5.792   8.234
86954SOL    HW162759   4.363   5.817   8.300
86954SOL    HW262760   4.235   5.738   8.281
86955SOL     OW62761   8.610   3.942   5.715
86955SOL    HW162762   8.688   3.996   5.727
86955SOL    HW262763   8.555   3.961   5.792
86956SOL     OW62764   7.520  13.973  10.926
86956SOL    HW162765   7.508  13.902  10.989
86956SOL    HW262766   7.611  13.965  10.898
86957SOL     OW62767   3.595  10.816   8.522
86957SOL    HW162768   3.661  10.877   8.553
86957SOL    HW262769   3.604  10.816   8.427
86958SOL     OW62770  11.308   1.305   0.564
86958SOL    HW162771  11.266   1.312   0.478
86958SOL    HW262772  11.322   1.211   0.576
86959SOL     OW62773   5.461  11.684   8.785
86959SOL    HW162774   5.473  11.595   8.818
86959SOL    HW262775   5.518  11.690   8.709
86960SOL     OW62776   2.423   8.416  13.828
86960SOL    HW162777   2.399   8.347  13.766
86960SOL    HW262778   2.516   8.401  13.846
86961SOL     OW62779   0.984   7.175   3.612
86961SOL    HW162780   1.049   7.156   3.680
86961SOL    HW262781   0.996   7.268   3.593
86962SOL     OW62782   8.627  14.625   8.564
86962SOL    HW162783   8.547  14.676   8.550
86962SOL    HW262784   8.697  14.678   8.525
86963SOL     OW62785  14.253   9.398   3.220
86963SOL    HW162786  14.324   9.446   3.264
86963SOL    HW262787  14.212   9.348   3.290
86964SOL     OW62788   0.365   1.498   2.355
86964SOL    HW162789   0.432   1.434   2.334
86964SOL    HW262790   0.292   1.476   2.297
86965SOL     OW62791   0.245  13.249   4.909
86965SOL    HW162792   0.158  13.285   4.895
86965SOL    HW262793   0.302  13.300   4.850
86966SOL     OW62794  12.576   3.814   1.746
86966SOL    HW162795  12.496   3.859   1.718
86966SOL    HW262796  12.631   3.882   1.782
86967SOL     OW62797   4.272   3.970  14.763
86967SOL    HW162798   4.237   3.997  14.678
86967SOL    HW262799   4.358   4.012  14.768
86968SOL     OW62800  12.041  10.505   8.072
86968SOL    HW162801  11.986  10.477   7.999
86968SOL    HW262802  12.110  10.439   8.076
86969SOL     OW62803   3.008   9.788   7.196
86969SOL    HW162804   2.998   9.740   7.114
86969SOL    HW262805   3.042   9.874   7.170
86970SOL     OW62806  10.170   6.650   7.704
86970SOL    HW162807  10.083   6.691   7.704
86970SOL    HW262808  10.173   6.601   7.621
86971SOL     OW62809   5.690   9.176   7.050
86971SOL    HW162810   5.756   9.179   7.119
86971SOL    HW262811   5.634   9.101   7.073
86972SOL     OW62812   8.010  12.598   5.712
86972SOL    HW162813   8.037  12.590   5.804
86972SOL    HW262814   8.055  12.526   5.668
86973SOL     OW62815   2.244   5.344   2.675
86973SOL    HW162816   2.305   5.325   2.747
86973SOL    HW262817   2.300   5.365   2.601
86974SOL     OW62818   6.978  12.226  13.175
86974SOL    HW162819   7.011  12.151  13.125
86974SOL    HW262820   6.903  12.258  13.124
86975SOL     OW62821   6.000   1.812   0.367
86975SOL    HW162822   6.063   1.743   0.344
86975SOL    HW262823   6.053   1.882   0.404
86976SOL     OW62824   2.866   0.763   1.346
86976SOL    HW162825   2.951   0.755   1.391
86976SOL    HW262826   2.803   0.724   1.407
86977SOL     OW62827   0.774   2.169   2.232
86977SOL    HW162828   0.681   2.145   2.229
86977SOL    HW262829   0.820   2.087   2.214
86978SOL     OW62830  10.384  13.210  12.575
86978SOL    HW162831  10.408  13.261  12.498
86978SOL    HW262832  10.301  13.246  12.603
86979SOL     OW62833  11.259   8.155  12.025
86979SOL    HW162834  11.226   8.170  11.936
86979SOL    HW262835  11.288   8.241  12.054
86980SOL     OW62836  13.688  10.915  11.927
86980SOL    HW162837  13.780  10.907  11.904
86980SOL    HW262838  13.687  10.973  12.003
86981SOL     OW62839   8.709   6.312   3.698
86981SOL    HW162840   8.728   6.404   3.717
86981SOL    HW262841   8.794   6.268   3.703
86982SOL     OW62842  11.766   5.144   6.753
86982SOL    HW162843  11.835   5.080   6.770
86982SOL    HW262844  11.797   5.223   6.797
86983SOL     OW62845   4.833   7.799   5.659
86983SOL    HW162846   4.853   7.756   5.576
86983SOL    HW262847   4.896   7.870   5.666
86984SOL     OW62848  11.259   3.255   5.776
86984SOL    HW162849  11.189   3.208   5.730
86984SOL    HW262850  11.213   3.307   5.842
86985SOL     OW62851   2.542   3.696   8.836
86985SOL    HW162852   2.527   3.609   8.799
86985SOL    HW262853   2.479   3.752   8.791
86986SOL     OW62854  11.061  12.399  13.416
86986SOL    HW162855  10.971  12.386  13.386
86986SOL    HW262856  11.078  12.325  13.474
86987SOL     OW62857  14.231   9.022   3.473
86987SOL    HW162858  14.248   9.039   3.381
86987SOL    HW262859  14.160   9.082   3.497
86988SOL     OW62860   1.084   1.470   1.232
86988SOL    HW162861   1.088   1.561   1.204
86988SOL    HW262862   1.159   1.428   1.190
86989SOL     OW62863  12.280   5.314   5.285
86989SOL    HW162864  12.271   5.219   5.278
86989SOL    HW262865  12.194   5.348   5.259
86990SOL     OW62866   1.986  14.190  14.803
86990SOL    HW162867   2.046  14.224  14.737
86990SOL    HW262868   1.951  14.268  14.846
86991SOL     OW62869   0.426   6.629   8.541
86991SOL    HW162870   0.375   6.704   8.571
86991SOL    HW262871   0.503   6.628   8.598
86992SOL     OW62872   1.671   5.622   7.404
86992SOL    HW162873   1.607   5.653   7.340
86992SOL    HW262874   1.639   5.654   7.488
86993SOL     OW62875  10.183   0.186   2.627
86993SOL    HW162876  10.264   0.149   2.593
86993SOL    HW262877  10.154   0.246   2.559
86994SOL     OW62878  10.544   9.848   0.420
86994SOL    HW162879  10.463   9.830   0.373
86994SOL    HW262880  10.578   9.762   0.444
86995SOL     OW62881   2.576   7.174   4.301
86995SOL    HW162882   2.488   7.163   4.335
86995SOL    HW262883   2.616   7.241   4.356
86996SOL     OW62884   4.051   4.389  14.323
86996SOL    HW162885   4.083   4.305  14.356
86996SOL    HW262886   3.998   4.366  14.247
86997SOL     OW62887   3.786   4.109  14.543
86997SOL    HW162888   3.754   4.137  14.628
86997SOL    HW262889   3.708   4.099  14.489
86998SOL     OW62890  10.036   4.343   8.577
86998SOL    HW162891  10.035   4.404   8.503
86998SOL    HW262892   9.944   4.334   8.602
86999SOL     OW62893  13.107  13.174  12.167
86999SOL    HW162894  13.137  13.184  12.077
86999SOL    HW262895  13.111  13.262  12.204
87000SOL     OW62896   5.828   3.152   6.646
87000SOL    HW162897   5.914   3.112   6.634
87000SOL    HW262898   5.776   3.121   6.572
87001SOL     OW62899   4.400  13.006   0.235
87001SOL    HW162900   4.326  13.055   0.199
87001SOL    HW262901   4.410  12.931   0.176
87002SOL     OW62902   8.875   6.141   3.431
87002SOL    HW162903   8.858   6.143   3.525
87002SOL    HW262904   8.875   6.048   3.408
87003SOL     OW62905   3.725   8.485  11.307
87003SOL    HW162906   3.745   8.444  11.391
87003SOL    HW262907   3.700   8.574  11.329
87004SOL     OW62908   0.522   1.647   0.797
87004SOL    HW162909   0.518   1.561   0.840
87004SOL    HW262910   0.578   1.632   0.720
87005SOL     OW62911   1.530   8.309   0.357
87005SOL    HW162912   1.489   8.376   0.302
87005SOL    HW262913   1.503   8.332   0.446
87006SOL     OW62914  12.337   5.239   0.756
87006SOL    HW162915  12.316   5.155   0.797
87006SOL    HW262916  12.362   5.295   0.829
87007SOL     OW62917   8.466   1.305  14.673
87007SOL    HW162918   8.391   1.259  14.634
87007SOL    HW262919   8.540   1.246  14.660
87008SOL     OW62920   6.199   6.969   2.487
87008SOL    HW162921   6.164   6.947   2.573
87008SOL    HW262922   6.266   7.035   2.504
87009SOL     OW62923   1.093  12.996   3.065
87009SOL    HW162924   1.150  12.922   3.045
87009SOL    HW262925   1.096  13.004   3.160
87010SOL     OW62926   8.232   7.613  14.719
87010SOL    HW162927   8.210   7.687  14.775
87010SOL    HW262928   8.317   7.635  14.682
87011SOL     OW62929  13.053  10.098  13.738
87011SOL    HW162930  13.020  10.043  13.809
87011SOL    HW262931  12.975  10.141  13.702
87012SOL     OW62932   6.030   8.940   5.612
87012SOL    HW162933   6.076   8.885   5.676
87012SOL    HW262934   6.032   8.888   5.531
87013SOL     OW62935   3.544   1.643   9.582
87013SOL    HW162936   3.480   1.679   9.643
87013SOL    HW262937   3.501   1.647   9.496
87014SOL     OW62938   0.273  11.678   2.572
87014SOL    HW162939   0.210  11.715   2.509
87014SOL    HW262940   0.353  11.727   2.555
87015SOL     OW62941  12.118   7.592  14.571
87015SOL    HW162942  12.077   7.545  14.498
87015SOL    HW262943  12.211   7.592  14.550
87016SOL     OW62944  13.256  13.311   0.042
87016SOL    HW162945  13.275  13.217   0.047
87016SOL    HW262946  13.178  13.323   0.097
87017SOL     OW62947   1.708  11.518  11.961
87017SOL    HW162948   1.654  11.572  12.018
87017SOL    HW262949   1.651  11.498  11.887
87018SOL     OW62950  12.641   8.879  14.572
87018SOL    HW162951  12.669   8.883  14.663
87018SOL    HW262952  12.692   8.947  14.528
87019SOL     OW62953   4.429   0.573  14.526
87019SOL    HW162954   4.516   0.535  14.515
87019SOL    HW262955   4.375   0.530  14.460
87020SOL     OW62956  11.185  12.075  13.671
87020SOL    HW162957  11.271  12.098  13.637
87020SOL    HW262958  11.203  12.001  13.730
87021SOL     OW62959   8.047   2.399   7.907
87021SOL    HW162960   8.087   2.451   7.837
87021SOL    HW262961   7.995   2.461   7.957
87022SOL     OW62962  12.808  12.176   9.324
87022SOL    HW162963  12.779  12.086   9.340
87022SOL    HW262964  12.890  12.167   9.276
87023SOL     OW62965   8.253  11.698   3.972
87023SOL    HW162966   8.252  11.603   3.966
87023SOL    HW262967   8.325  11.725   3.914
87024SOL     OW62968   9.698   3.198  10.720
87024SOL    HW162969   9.700   3.293  10.709
87024SOL    HW262970   9.780   3.177  10.764
87025SOL     OW62971  12.040   6.377  13.028
87025SOL    HW162972  12.064   6.302  13.082
87025SOL    HW262973  11.952   6.358  12.997
87026SOL     OW62974  11.726  13.905  13.971
87026SOL    HW162975  11.666  13.945  13.909
87026SOL    HW262976  11.801  13.878  13.918
87027SOL     OW62977  12.161  11.038   9.988
87027SOL    HW162978  12.168  11.111  10.050
87027SOL    HW262979  12.071  11.007   9.999
87028SOL     OW62980  10.022  13.082   6.014
87028SOL    HW162981   9.975  13.023   6.074
87028SOL    HW262982  10.114  13.064   6.031
87029SOL     OW62983  14.186  12.579   1.975
87029SOL    HW162984  14.148  12.508   1.923
87029SOL    HW262985  14.279  12.580   1.949
87030SOL     OW62986   1.096  12.432   0.342
87030SOL    HW162987   1.148  12.352   0.335
87030SOL    HW262988   1.020  12.407   0.395
87031SOL     OW62989   6.385  11.645   6.348
87031SOL    HW162990   6.437  11.580   6.396
87031SOL    HW262991   6.331  11.687   6.415
87032SOL     OW62992  14.721   7.814   4.767
87032SOL    HW162993  14.630   7.842   4.777
87032SOL    HW262994  14.745   7.842   4.679
87033SOL     OW62995   1.054   8.545   1.134
87033SOL    HW162996   1.074   8.459   1.096
87033SOL    HW262997   0.992   8.525   1.205
87034SOL     OW62998  14.530   0.920   7.904
87034SOL    HW162999  14.520   1.005   7.862
87034SOL    HW263000  14.483   0.928   7.987
87035SOL     OW63001  11.461   1.864   3.484
87035SOL    HW163002  11.448   1.780   3.527
87035SOL    HW263003  11.442   1.847   3.392
87036SOL     OW63004   5.972   7.435   3.045
87036SOL    HW163005   6.048   7.471   3.001
87036SOL    HW263006   5.986   7.340   3.046
87037SOL     OW63007   2.764   7.776   6.449
87037SOL    HW163008   2.802   7.691   6.472
87037SOL    HW263009   2.817   7.807   6.376
87038SOL     OW63010   4.973   4.148  12.096
87038SOL    HW163011   4.961   4.071  12.151
87038SOL    HW263012   4.906   4.140  12.028
87039SOL     OW63013   2.679   4.898   5.155
87039SOL    HW163014   2.716   4.846   5.226
87039SOL    HW263015   2.586   4.904   5.176
87040SOL     OW63016   2.431   2.692  11.643
87040SOL    HW163017   2.375   2.657  11.574
87040SOL    HW263018   2.510   2.721  11.597
87041SOL     OW63019  14.460  10.807  13.127
87041SOL    HW163020  14.412  10.883  13.161
87041SOL    HW263021  14.405  10.775  13.055
87042SOL     OW63022   6.185   6.982   1.762
87042SOL    HW163023   6.241   6.951   1.833
87042SOL    HW263024   6.104   6.933   1.771
87043SOL     OW63025  12.957   7.709   4.044
87043SOL    HW163026  12.940   7.708   3.949
87043SOL    HW263027  12.873   7.685   4.083
87044SOL     OW63028   5.398   4.800  12.391
87044SOL    HW163029   5.446   4.717  12.390
87044SOL    HW263030   5.395   4.827  12.299
87045SOL     OW63031   4.056   5.571  11.796
87045SOL    HW163032   4.093   5.516  11.864
87045SOL    HW263033   4.131   5.599  11.745
87046SOL     OW63034  12.530   7.954   4.857
87046SOL    HW163035  12.537   8.023   4.923
87046SOL    HW263036  12.446   7.912   4.875
87047SOL     OW63037   3.343   4.672   0.674
87047SOL    HW163038   3.266   4.669   0.616
87047SOL    HW263039   3.350   4.764   0.699
87048SOL     OW63040  13.042  12.929   8.042
87048SOL    HW163041  13.096  13.008   8.032
87048SOL    HW263042  13.006  12.936   8.130
87049SOL     OW63043   2.786   4.767   8.889
87049SOL    HW163044   2.862   4.824   8.876
87049SOL    HW263045   2.770   4.729   8.803
87050SOL     OW63046  14.650  10.205   7.520
87050SOL    HW163047  14.735  10.165   7.500
87050SOL    HW263048  14.594  10.131   7.543
87051SOL     OW63049   0.861  11.813   5.318
87051SOL    HW163050   0.819  11.848   5.397
87051SOL    HW263051   0.954  11.816   5.337
87052SOL     OW63052   0.963   4.089   7.953
87052SOL    HW163053   0.893   4.056   7.897
87052SOL    HW263054   1.033   4.113   7.892
87053SOL     OW63055   2.991  13.601  10.868
87053SOL    HW163056   2.988  13.598  10.964
87053SOL    HW263057   2.914  13.551  10.841
87054SOL     OW63058  12.665  10.042   9.676
87054SOL    HW163059  12.722  10.033   9.753
87054SOL    HW263060  12.709   9.990   9.608
87055SOL     OW63061  11.120  10.702  12.261
87055SOL    HW163062  11.104  10.796  12.270
87055SOL    HW263063  11.075  10.663  12.336
87056SOL     OW63064  11.507  11.575   5.062
87056SOL    HW163065  11.441  11.528   5.112
87056SOL    HW263066  11.491  11.549   4.971
87057SOL     OW63067   0.091   1.260   8.646
87057SOL    HW163068   0.142   1.319   8.590
87057SOL    HW263069   0.144   1.251   8.726
87058SOL     OW63070   2.578   1.105  13.206
87058SOL    HW163071   2.543   1.017  13.193
87058SOL    HW263072   2.672   1.096  13.188
87059SOL     OW63073   6.958  11.777   1.783
87059SOL    HW163074   6.935  11.869   1.773
87059SOL    HW263075   7.045  11.779   1.822
87060SOL     OW63076   2.756  14.304   7.308
87060SOL    HW163077   2.804  14.327   7.228
87060SOL    HW263078   2.807  14.345   7.378
87061SOL     OW63079   0.378   6.534   1.596
87061SOL    HW163080   0.306   6.562   1.652
87061SOL    HW263081   0.343   6.460   1.546
87062SOL     OW63082  10.132   9.773   3.311
87062SOL    HW163083  10.076   9.843   3.345
87062SOL    HW263084  10.071   9.705   3.283
87063SOL     OW63085  11.670  10.361  12.301
87063SOL    HW163086  11.672  10.415  12.222
87063SOL    HW263087  11.688  10.272  12.269
87064SOL     OW63088  11.416   3.691   9.540
87064SOL    HW163089  11.428   3.719   9.631
87064SOL    HW263090  11.486   3.627   9.525
87065SOL     OW63091   0.444  12.298   2.724
87065SOL    HW163092   0.436  12.391   2.702
87065SOL    HW263093   0.387  12.254   2.661
87066SOL     OW63094   3.819  10.685   0.392
87066SOL    HW163095   3.801  10.667   0.484
87066SOL    HW263096   3.912  10.664   0.382
87067SOL     OW63097   1.860   2.456  12.825
87067SOL    HW163098   1.852   2.548  12.800
87067SOL    HW263099   1.864   2.456  12.920
87068SOL     OW63100  13.458   0.021   4.176
87068SOL    HW163101  13.430   0.111   4.159
87068SOL    HW263102  13.553   0.027   4.186
87069SOL     OW63103   7.234  11.050   6.892
87069SOL    HW163104   7.146  11.087   6.889
87069SOL    HW263105   7.247  11.013   6.805
87070SOL     OW63106   6.363   5.163   5.860
87070SOL    HW163107   6.403   5.246   5.887
87070SOL    HW263108   6.356   5.171   5.765
87071SOL     OW63109   3.205   3.529  11.561
87071SOL    HW163110   3.198   3.620  11.533
87071SOL    HW263111   3.255   3.532  11.642
87072SOL     OW63112   3.903   6.987   1.367
87072SOL    HW163113   3.902   6.981   1.272
87072SOL    HW263114   3.984   6.944   1.393
87073SOL     OW63115   6.730   0.545  14.543
87073SOL    HW163116   6.678   0.618  14.509
87073SOL    HW263117   6.701   0.533  14.633
87074SOL     OW63118   1.432   7.754   4.115
87074SOL    HW163119   1.359   7.705   4.152
87074SOL    HW263120   1.488   7.773   4.191
87075SOL     OW63121   7.119  12.767   0.541
87075SOL    HW163122   7.117  12.859   0.513
87075SOL    HW263123   7.043  12.727   0.497
87076SOL     OW63124  10.667   0.582   0.380
87076SOL    HW163125  10.684   0.658   0.324
87076SOL    HW263126  10.662   0.618   0.469
87077SOL     OW63127   8.529   2.980  11.680
87077SOL    HW163128   8.473   3.032  11.737
87077SOL    HW263129   8.537   3.031  11.599
87078SOL     OW63130   0.591   4.862   5.116
87078SOL    HW163131   0.674   4.906   5.129
87078SOL    HW263132   0.589   4.839   5.023
87079SOL     OW63133  12.585  12.089  11.184
87079SOL    HW163134  12.522  12.026  11.220
87079SOL    HW263135  12.548  12.174  11.206
87080SOL     OW63136  10.231  13.262   3.970
87080SOL    HW163137  10.144  13.243   4.003
87080SOL    HW263138  10.227  13.236   3.877
87081SOL     OW63139   7.989   3.710  10.603
87081SOL    HW163140   8.055   3.678  10.541
87081SOL    HW263141   8.040   3.739  10.678
87082SOL     OW63142   6.063   2.419   6.228
87082SOL    HW163143   5.989   2.372   6.267
87082SOL    HW263144   6.038   2.432   6.137
87083SOL     OW63145   8.582   3.859   6.130
87083SOL    HW163146   8.593   3.836   6.222
87083SOL    HW263147   8.671   3.862   6.095
87084SOL     OW63148   5.416   3.749  14.361
87084SOL    HW163149   5.403   3.828  14.413
87084SOL    HW263150   5.454   3.780  14.279
87085SOL     OW63151  13.661   5.856   0.007
87085SOL    HW163152  13.755   5.863   0.025
87085SOL    HW263153  13.654   5.862  14.783
87086SOL     OW63154   7.921   1.395   0.655
87086SOL    HW163155   7.915   1.333   0.728
87086SOL    HW263156   7.904   1.480   0.694
87087SOL     OW63157   5.144   4.863  12.501
87087SOL    HW163158   5.232   4.883  12.470
87087SOL    HW263159   5.158   4.814  12.582
87088SOL     OW63160   7.432   9.971  10.368
87088SOL    HW163161   7.469   9.887  10.343
87088SOL    HW263162   7.342   9.951  10.394
87089SOL     OW63163   3.045   4.672   4.464
87089SOL    HW163164   3.098   4.594   4.482
87089SOL    HW263165   3.010   4.697   4.549
87090SOL     OW63166   7.756  13.574   3.810
87090SOL    HW163167   7.732  13.666   3.820
87090SOL    HW263168   7.675  13.531   3.784
87091SOL     OW63169   5.047   9.281   4.668
87091SOL    HW163170   5.137   9.307   4.687
87091SOL    HW263171   5.027   9.324   4.585
87092SOL     OW63172  13.973   8.610   1.239
87092SOL    HW163173  14.061   8.575   1.234
87092SOL    HW263174  13.982   8.692   1.287
87093SOL     OW63175   0.497   7.669   0.422
87093SOL    HW163176   0.560   7.741   0.423
87093SOL    HW263177   0.417   7.708   0.388
87094SOL     OW63178   8.541   0.965   4.939
87094SOL    HW163179   8.487   1.014   5.002
87094SOL    HW263180   8.631   0.993   4.958
87095SOL     OW63181   4.035   9.158   3.073
87095SOL    HW163182   4.044   9.203   2.989
87095SOL    HW263183   4.122   9.165   3.114
87096SOL     OW63184  13.268   7.990  14.401
87096SOL    HW163185  13.325   7.924  14.442
87096SOL    HW263186  13.328   8.059  14.373
87097SOL     OW63187  12.312   7.201   0.988
87097SOL    HW163188  12.261   7.207   0.908
87097SOL    HW263189  12.330   7.293   1.011
87098SOL     OW63190  13.482   5.579   4.614
87098SOL    HW163191  13.557   5.629   4.579
87098SOL    HW263192  13.497   5.578   4.708
87099SOL     OW63193   3.187   8.304   2.628
87099SOL    HW163194   3.166   8.387   2.585
87099SOL    HW263195   3.220   8.330   2.714
87100SOL     OW63196   2.837   0.600   5.310
87100SOL    HW163197   2.779   0.592   5.386
87100SOL    HW263198   2.847   0.511   5.277
87101SOL     OW63199  10.125   4.168  11.742
87101SOL    HW163200  10.190   4.110  11.703
87101SOL    HW263201  10.110   4.235  11.676
87102SOL     OW63202   9.861   7.828   6.044
87102SOL    HW163203   9.871   7.888   6.119
87102SOL    HW263204   9.779   7.856   6.003
87103SOL     OW63205   5.040   4.360   8.404
87103SOL    HW163206   5.111   4.363   8.468
87103SOL    HW263207   5.039   4.447   8.364
87104SOL     OW63208  11.891   3.642   4.803
87104SOL    HW163209  11.820   3.578   4.809
87104SOL    HW263210  11.907   3.651   4.709
87105SOL     OW63211  10.405   9.329  12.711
87105SOL    HW163212  10.427   9.325  12.804
87105SOL    HW263213  10.324   9.278  12.704
87106SOL     OW63214  12.512   3.140  12.788
87106SOL    HW163215  12.591   3.189  12.768
87106SOL    HW263216  12.519   3.119  12.881
87107SOL     OW63217   0.843  12.293   4.594
87107SOL    HW163218   0.754  12.315   4.570
87107SOL    HW263219   0.894  12.371   4.571
87108SOL     OW63220   5.774   5.155   3.275
87108SOL    HW163221   5.700   5.212   3.294
87108SOL    HW263222   5.744   5.067   3.298
87109SOL     OW63223   8.504   4.184   6.167
87109SOL    HW163224   8.575   4.176   6.104
87109SOL    HW263225   8.487   4.278   6.174
87110SOL     OW63226   9.946  13.375   0.128
87110SOL    HW163227  10.041  13.388   0.137
87110SOL    HW263228   9.913  13.374   0.218
87111SOL     OW63229   7.009   0.120   1.796
87111SOL    HW163230   6.923   0.085   1.820
87111SOL    HW263231   7.012   0.206   1.838
87112SOL     OW63232  10.076   8.409   0.404
87112SOL    HW163233   9.982   8.413   0.386
87112SOL    HW263234  10.084   8.435   0.496
87113SOL     OW63235   7.210   7.767   7.258
87113SOL    HW163236   7.266   7.827   7.209
87113SOL    HW263237   7.121   7.786   7.227
87114SOL     OW63238   4.146   9.602  11.284
87114SOL    HW163239   4.194   9.528  11.246
87114SOL    HW263240   4.064   9.564  11.315
87115SOL     OW63241   9.312   9.883  11.844
87115SOL    HW163242   9.222   9.895  11.876
87115SOL    HW263243   9.303   9.822  11.771
87116SOL     OW63244   5.218   3.882   9.361
87116SOL    HW163245   5.123   3.897   9.369
87116SOL    HW263246   5.233   3.800   9.407
87117SOL     OW63247   1.103   0.879   7.670
87117SOL    HW163248   1.150   0.807   7.713
87117SOL    HW263249   1.030   0.835   7.624
87118SOL     OW63250  11.252   1.817   9.260
87118SOL    HW163251  11.209   1.896   9.226
87118SOL    HW263252  11.180   1.753   9.266
87119SOL     OW63253   5.036   1.062  11.336
87119SOL    HW163254   5.123   1.075  11.299
87119SOL    HW263255   5.040   0.977  11.379
87120SOL     OW63256  13.309   1.964   2.393
87120SOL    HW163257  13.259   1.897   2.439
87120SOL    HW263258  13.364   2.004   2.461
87121SOL     OW63259   6.636   8.336  10.773
87121SOL    HW163260   6.612   8.350  10.865
87121SOL    HW263261   6.554   8.321  10.728
87122SOL     OW63262   3.868  13.768   6.317
87122SOL    HW163263   3.875  13.676   6.344
87122SOL    HW263264   3.907  13.817   6.390
87123SOL     OW63265   1.229   7.388  10.476
87123SOL    HW163266   1.140   7.423  10.464
87123SOL    HW263267   1.268   7.445  10.542
87124SOL     OW63268   2.483   7.458   8.907
87124SOL    HW163269   2.497   7.545   8.943
87124SOL    HW263270   2.523   7.399   8.971
87125SOL     OW63271   4.276  12.337   2.021
87125SOL    HW163272   4.202  12.380   2.066
87125SOL    HW263273   4.315  12.282   2.089
87126SOL     OW63274  14.519   5.929   8.565
87126SOL    HW163275  14.565   5.851   8.533
87126SOL    HW263276  14.478   5.967   8.487
87127SOL     OW63277   9.430  13.372  13.770
87127SOL    HW163278   9.347  13.364  13.816
87127SOL    HW263279   9.466  13.456  13.800
87128SOL     OW63280   8.494   6.958   4.810
87128SOL    HW163281   8.443   6.938   4.889
87128SOL    HW263282   8.441   7.022   4.762
87129SOL     OW63283   9.700   7.005   8.673
87129SOL    HW163284   9.730   6.929   8.723
87129SOL    HW263285   9.629   7.042   8.726
87130SOL     OW63286   9.825   1.333   0.490
87130SOL    HW163287   9.765   1.399   0.525
87130SOL    HW263288   9.870   1.298   0.566
87131SOL     OW63289   2.092  14.868   1.233
87131SOL    HW163290   2.171   0.047   1.253
87131SOL    HW263291   2.069   0.022   1.144
87132SOL     OW63292   3.519   0.858  13.312
87132SOL    HW163293   3.454   0.822  13.372
87132SOL    HW263294   3.600   0.811  13.333
87133SOL     OW63295  11.534   6.811   2.072
87133SOL    HW163296  11.507   6.878   2.009
87133SOL    HW263297  11.614   6.845   2.111
87134SOL     OW63298   5.626   0.750   8.983
87134SOL    HW163299   5.575   0.732   8.904
87134SOL    HW263300   5.717   0.753   8.953
87135SOL     OW63301   3.310   5.739   8.309
87135SOL    HW163302   3.326   5.825   8.271
87135SOL    HW263303   3.393   5.714   8.350
87136SOL     OW63304   6.674   3.953  12.873
87136SOL    HW163305   6.742   3.917  12.815
87136SOL    HW263306   6.592   3.931  12.829
87137SOL     OW63307   7.889   4.764   4.991
87137SOL    HW163308   7.798   4.781   5.017
87137SOL    HW263309   7.920   4.847   4.958
87138SOL     OW63310   4.026   4.894  11.108
87138SOL    HW163311   3.993   4.838  11.178
87138SOL    HW263312   4.090   4.840  11.063
87139SOL     OW63313  11.128   6.803  14.274
87139SOL    HW163314  11.167   6.728  14.229
87139SOL    HW263315  11.148   6.877  14.218
87140SOL     OW63316   2.815  14.013   1.937
87140SOL    HW163317   2.734  13.983   1.895
87140SOL    HW263318   2.820  13.964   2.018
87141SOL     OW63319   0.015   5.772   1.348
87141SOL    HW163320  14.871   5.703   1.283
87141SOL    HW263321   0.024   5.852   1.296
87142SOL     OW63322   6.015   6.142  14.830
87142SOL    HW163323   5.923   6.124  14.846
87142SOL    HW263324   6.021   6.237  14.825
87143SOL     OW63325   0.590   8.705   1.940
87143SOL    HW163326   0.664   8.743   1.893
87143SOL    HW263327   0.562   8.774   2.000
87144SOL     OW63328  11.636   5.464   3.483
87144SOL    HW163329  11.626   5.551   3.523
87144SOL    HW263330  11.710   5.473   3.423
87145SOL     OW63331  12.325  12.129   5.353
87145SOL    HW163332  12.403  12.183   5.343
87145SOL    HW263333  12.269  12.153   5.280
87146SOL     OW63334   6.172   7.559  12.828
87146SOL    HW163335   6.194   7.642  12.785
87146SOL    HW263336   6.235   7.496  12.792
87147SOL     OW63337  13.424  13.106   3.185
87147SOL    HW163338  13.358  13.174   3.198
87147SOL    HW263339  13.495  13.149   3.139
87148SOL     OW63340  12.242   2.230   3.553
87148SOL    HW163341  12.200   2.227   3.639
87148SOL    HW263342  12.228   2.320   3.523
87149SOL     OW63343  12.855   3.370   4.773
87149SOL    HW163344  12.833   3.444   4.716
87149SOL    HW263345  12.912   3.407   4.840
87150SOL     OW63346  14.033  13.118   3.665
87150SOL    HW163347  13.977  13.108   3.743
87150SOL    HW263348  14.122  13.107   3.699
87151SOL     OW63349   8.074   2.152  14.046
87151SOL    HW163350   8.010   2.083  14.030
87151SOL    HW263351   8.048   2.222  13.986
87152SOL     OW63352   4.155   2.848   9.410
87152SOL    HW163353   4.179   2.938   9.431
87152SOL    HW263354   4.239   2.805   9.394
87153SOL     OW63355  13.166  10.108   6.181
87153SOL    HW163356  13.084  10.091   6.227
87153SOL    HW263357  13.218  10.159   6.244
87154SOL     OW63358  12.618   1.703  12.672
87154SOL    HW163359  12.661   1.720  12.756
87154SOL    HW263360  12.531   1.670  12.695
87155SOL     OW63361   3.691  14.325  13.072
87155SOL    HW163362   3.719  14.416  13.086
87155SOL    HW263363   3.601  14.332  13.042
87156SOL     OW63364   8.802   8.473   8.659
87156SOL    HW163365   8.895   8.465   8.679
87156SOL    HW263366   8.767   8.385   8.666
87157SOL     OW63367  12.734   8.491  14.514
87157SOL    HW163368  12.705   8.546  14.441
87157SOL    HW263369  12.671   8.420  14.516
87158SOL     OW63370  13.932   2.923   5.273
87158SOL    HW163371  13.941   2.833   5.241
87158SOL    HW263372  13.838   2.941   5.270
87159SOL     OW63373   9.740  10.859   4.688
87159SOL    HW163374   9.823  10.892   4.655
87159SOL    HW263375   9.722  10.782   4.633
87160SOL     OW63376   3.471   4.584  11.379
87160SOL    HW163377   3.385   4.621  11.361
87160SOL    HW263378   3.475   4.503  11.328
87161SOL     OW63379  11.704  12.268   2.672
87161SOL    HW163380  11.719  12.360   2.647
87161SOL    HW263381  11.613  12.266   2.700
87162SOL     OW63382   3.083  14.753   5.847
87162SOL    HW163383   3.170  14.745   5.886
87162SOL    HW263384   3.094  14.722   5.758
87163SOL     OW63385  11.091   3.918   5.757
87163SOL    HW163386  11.128   3.839   5.717
87163SOL    HW263387  11.126   3.990   5.704
87164SOL     OW63388  12.661   4.330   3.026
87164SOL    HW163389  12.607   4.252   3.018
87164SOL    HW263390  12.751   4.296   3.032
87165SOL     OW63391   0.084   7.554   4.972
87165SOL    HW163392   0.149   7.554   5.043
87165SOL    HW263393   0.069   7.462   4.953
87166SOL     OW63394   6.285  10.712   0.993
87166SOL    HW163395   6.212  10.665   0.953
87166SOL    HW263396   6.248  10.753   1.071
87167SOL     OW63397   9.059  11.442   4.823
87167SOL    HW163398   9.063  11.373   4.757
87167SOL    HW263399   9.140  11.492   4.810
87168SOL     OW63400   0.442   4.533   6.837
87168SOL    HW163401   0.526   4.568   6.809
87168SOL    HW263402   0.440   4.444   6.800
87169SOL     OW63403   8.209   9.474   8.219
87169SOL    HW163404   8.130   9.507   8.176
87169SOL    HW263405   8.264   9.442   8.148
87170SOL     OW63406   7.256   2.191  12.285
87170SOL    HW163407   7.346   2.220  12.271
87170SOL    HW263408   7.261   2.136  12.364
87171SOL     OW63409   6.526   6.838   1.732
87171SOL    HW163410   6.440   6.798   1.719
87171SOL    HW263411   6.588   6.779   1.689
87172SOL     OW63412   5.836   8.762   2.336
87172SOL    HW163413   5.928   8.749   2.314
87172SOL    HW263414   5.817   8.695   2.401
87173SOL     OW63415  11.374   7.244  14.230
87173SOL    HW163416  11.465   7.274  14.236
87173SOL    HW263417  11.327   7.298  14.294
87174SOL     OW63418   8.298   2.001   7.979
87174SOL    HW163419   8.390   2.002   7.950
87174SOL    HW263420   8.287   2.083   8.026
87175SOL     OW63421  11.911  10.653  11.535
87175SOL    HW163422  11.913  10.562  11.565
87175SOL    HW263423  11.834  10.690  11.578
87176SOL     OW63424  11.344  12.092   0.909
87176SOL    HW163425  11.409  12.026   0.886
87176SOL    HW263426  11.371  12.170   0.859
87177SOL     OW63427   1.035  14.077   5.397
87177SOL    HW163428   0.953  14.126   5.411
87177SOL    HW263429   1.099  14.123   5.451
87178SOL     OW63430   7.501   7.080  11.657
87178SOL    HW163431   7.424   7.024  11.660
87178SOL    HW263432   7.467   7.168  11.643
87179SOL     OW63433  12.897   2.126  10.765
87179SOL    HW163434  12.932   2.203  10.809
87179SOL    HW263435  12.823   2.098  10.819
87180SOL     OW63436   3.786   7.712   0.188
87180SOL    HW163437   3.827   7.647   0.245
87180SOL    HW263438   3.781   7.669   0.103
87181SOL     OW63439   8.961   7.930   4.799
87181SOL    HW163440   8.979   8.018   4.768
87181SOL    HW263441   8.970   7.874   4.721
87182SOL     OW63442   8.308  10.334   3.313
87182SOL    HW163443   8.377  10.269   3.330
87182SOL    HW263444   8.262  10.342   3.396
87183SOL     OW63445  12.800  11.977   5.017
87183SOL    HW163446  12.875  11.996   5.072
87183SOL    HW263447  12.804  11.882   5.003
87184SOL     OW63448  10.874   3.965   8.276
87184SOL    HW163449  10.785   3.955   8.310
87184SOL    HW263450  10.930   3.960   8.353
87185SOL     OW63451  10.895   4.254  12.783
87185SOL    HW163452  10.808   4.259  12.822
87185SOL    HW263453  10.942   4.192  12.839
87186SOL     OW63454  14.131   4.059   8.346
87186SOL    HW163455  14.038   4.069   8.325
87186SOL    HW263456  14.174   4.048   8.262
87187SOL     OW63457   5.980   6.161   0.592
87187SOL    HW163458   5.938   6.163   0.506
87187SOL    HW263459   5.946   6.238   0.637
87188SOL     OW63460   7.532   1.432   3.387
87188SOL    HW163461   7.554   1.509   3.334
87188SOL    HW263462   7.581   1.360   3.346
87189SOL     OW63463   1.603  14.215  13.126
87189SOL    HW163464   1.663  14.252  13.190
87189SOL    HW263465   1.538  14.283  13.110
87190SOL     OW63466  10.936   3.449  14.798
87190SOL    HW163467  11.017   3.439  14.848
87190SOL    HW263468  10.951   3.398  14.718
87191SOL     OW63469   8.636   2.936  12.091
87191SOL    HW163470   8.703   2.952  12.024
87191SOL    HW263471   8.668   2.981  12.169
87192SOL     OW63472  14.271  10.537   8.013
87192SOL    HW163473  14.229  10.555   7.929
87192SOL    HW263474  14.252  10.444   8.029
87193SOL     OW63475   2.254  13.295  13.167
87193SOL    HW163476   2.212  13.264  13.087
87193SOL    HW263477   2.241  13.223  13.229
87194SOL     OW63478   5.586  11.279   3.142
87194SOL    HW163479   5.501  11.304   3.105
87194SOL    HW263480   5.628  11.228   3.072
87195SOL     OW63481   6.143   5.108   8.590
87195SOL    HW163482   6.082   5.083   8.521
87195SOL    HW263483   6.194   5.029   8.607
87196SOL     OW63484   8.028  10.913   7.728
87196SOL    HW163485   8.046  10.883   7.817
87196SOL    HW263486   8.082  10.856   7.672
87197SOL     OW63487   7.197   6.220  13.716
87197SOL    HW163488   7.114   6.191  13.753
87197SOL    HW263489   7.179   6.308  13.684
87198SOL     OW63490   1.740   9.964   8.636
87198SOL    HW163491   1.805   9.914   8.587
87198SOL    HW263492   1.763  10.056   8.622
87199SOL     OW63493  14.359  13.975  12.095
87199SOL    HW163494  14.449  13.953  12.120
87199SOL    HW263495  14.353  14.070  12.105
87200SOL     OW63496  11.979   4.270   7.228
87200SOL    HW163497  12.055   4.263   7.284
87200SOL    HW263498  12.014   4.300   7.144
87201SOL     OW63499  12.986   3.200   4.570
87201SOL    HW163500  13.024   3.284   4.544
87201SOL    HW263501  12.947   3.217   4.655
87202SOL     OW63502   8.575   7.744   2.323
87202SOL    HW163503   8.489   7.768   2.359
87202SOL    HW263504   8.555   7.692   2.246
87203SOL     OW63505   1.706  12.239   2.315
87203SOL    HW163506   1.642  12.167   2.321
87203SOL    HW263507   1.788  12.201   2.347
87204SOL     OW63508   9.575   7.086   1.817
87204SOL    HW163509   9.533   7.149   1.758
87204SOL    HW263510   9.623   7.026   1.759
87205SOL     OW63511  10.976   2.092   7.286
87205SOL    HW163512  11.028   2.012   7.280
87205SOL    HW263513  10.949   2.109   7.196
87206SOL     OW63514  14.326   5.002  14.702
87206SOL    HW163515  14.414   5.041  14.703
87206SOL    HW263516  14.333   4.926  14.759
87207SOL     OW63517   9.702   0.431   7.802
87207SOL    HW163518   9.773   0.490   7.828
87207SOL    HW263519   9.693   0.445   7.708
87208SOL     OW63520   0.143   6.278   7.531
87208SOL    HW163521   0.202   6.335   7.481
87208SOL    HW263522   0.072   6.335   7.559
87209SOL     OW63523   8.297  11.569  10.906
87209SOL    HW163524   8.292  11.490  10.852
87209SOL    HW263525   8.287  11.538  10.995
87210SOL     OW63526   2.467  12.932   3.587
87210SOL    HW163527   2.438  12.987   3.515
87210SOL    HW263528   2.467  12.843   3.551
87211SOL     OW63529   1.146   0.161  13.335
87211SOL    HW163530   1.108   0.212  13.406
87211SOL    HW263531   1.112   0.072  13.348
87212SOL     OW63532   6.440  14.468   9.306
87212SOL    HW163533   6.456  14.534   9.239
87212SOL    HW263534   6.468  14.510   9.388
87213SOL     OW63535   3.511  11.086   5.123
87213SOL    HW163536   3.416  11.090   5.110
87213SOL    HW263537   3.547  11.134   5.049
87214SOL     OW63538   9.972  12.596  13.637
87214SOL    HW163539   9.961  12.689  13.661
87214SOL    HW263540   9.996  12.598  13.545
87215SOL     OW63541  13.983   0.286   5.062
87215SOL    HW163542  13.942   0.229   5.127
87215SOL    HW263543  14.075   0.293   5.090
87216SOL     OW63544   2.776  13.516   8.525
87216SOL    HW163545   2.815  13.479   8.445
87216SOL    HW263546   2.847  13.567   8.564
87217SOL     OW63547  14.576   6.222   2.656
87217SOL    HW163548  14.623   6.188   2.580
87217SOL    HW263549  14.489   6.243   2.624
87218SOL     OW63550   8.298   9.585   4.402
87218SOL    HW163551   8.322   9.662   4.453
87218SOL    HW263552   8.244   9.533   4.460
87219SOL     OW63553  14.389  11.268   7.133
87219SOL    HW163554  14.472  11.231   7.163
87219SOL    HW263555  14.411  11.357   7.104
87220SOL     OW63556   4.067   9.578   8.009
87220SOL    HW163557   4.020   9.507   8.054
87220SOL    HW263558   4.158   9.569   8.039
87221SOL     OW63559  14.144   7.720   6.141
87221SOL    HW163560  14.235   7.721   6.171
87221SOL    HW263561  14.124   7.628   6.126
87222SOL     OW63562  11.589  10.805   7.403
87222SOL    HW163563  11.600  10.716   7.371
87222SOL    HW263564  11.635  10.806   7.487
87223SOL     OW63565   3.741  11.482  10.888
87223SOL    HW163566   3.780  11.533  10.816
87223SOL    HW263567   3.647  11.494  10.877
87224SOL     OW63568   6.621  14.441   1.216
87224SOL    HW163569   6.616  14.534   1.237
87224SOL    HW263570   6.712  14.426   1.190
87225SOL     OW63571   4.860   1.993   2.398
87225SOL    HW163572   4.809   1.939   2.338
87225SOL    HW263573   4.819   1.979   2.483
87226SOL     OW63574   7.439   7.155  10.470
87226SOL    HW163575   7.454   7.205  10.550
87226SOL    HW263576   7.344   7.151  10.461
87227SOL     OW63577  12.065  10.534   4.386
87227SOL    HW163578  12.023  10.619   4.386
87227SOL    HW263579  12.132  10.540   4.453
87228SOL     OW63580  10.183   5.854   1.070
87228SOL    HW163581  10.236   5.859   1.149
87228SOL    HW263582  10.234   5.799   1.010
87229SOL     OW63583   7.419   1.686   4.253
87229SOL    HW163584   7.493   1.731   4.211
87229SOL    HW263585   7.415   1.601   4.209
87230SOL     OW63586  12.291   1.871  10.581
87230SOL    HW163587  12.231   1.830  10.643
87230SOL    HW263588  12.378   1.859  10.620
87231SOL     OW63589   8.272   7.421  11.177
87231SOL    HW163590   8.235   7.503  11.145
87231SOL    HW263591   8.367   7.434  11.170
87232SOL     OW63592  14.582   1.837   4.616
87232SOL    HW163593  14.661   1.852   4.564
87232SOL    HW263594  14.596   1.751   4.655
87233SOL     OW63595   0.239  14.739  14.523
87233SOL    HW163596   0.217  14.830  14.502
87233SOL    HW263597   0.280  14.743  14.609
87234SOL     OW63598   4.188   6.415  10.935
87234SOL    HW163599   4.263   6.413  10.875
87234SOL    HW263600   4.149   6.501  10.921
87235SOL     OW63601   9.850  14.244  13.733
87235SOL    HW163602   9.930  14.296  13.722
87235SOL    HW263603   9.805  14.252  13.649
87236SOL     OW63604   2.445   0.739   5.859
87236SOL    HW163605   2.491   0.808   5.908
87236SOL    HW263606   2.357   0.739   5.896
87237SOL     OW63607   4.552   1.155   4.803
87237SOL    HW163608   4.593   1.200   4.729
87237SOL    HW263609   4.472   1.116   4.766
87238SOL     OW63610   2.207   6.034   9.892
87238SOL    HW163611   2.148   5.967   9.858
87238SOL    HW263612   2.265   6.055   9.819
87239SOL     OW63613   5.053   2.819   3.626
87239SOL    HW163614   5.010   2.784   3.548
87239SOL    HW263615   5.117   2.881   3.592
87240SOL     OW63616  10.065   0.081   8.419
87240SOL    HW163617  10.123   0.125   8.481
87240SOL    HW263618   9.977   0.099   8.451
87241SOL     OW63619   4.001  14.561   4.383
87241SOL    HW163620   4.015  14.508   4.462
87241SOL    HW263621   4.034  14.648   4.406
87242SOL     OW63622   0.903   2.646   8.408
87242SOL    HW163623   0.832   2.710   8.406
87242SOL    HW263624   0.905   2.610   8.319
87243SOL     OW63625  13.410   2.498   4.584
87243SOL    HW163626  13.371   2.561   4.645
87243SOL    HW263627  13.462   2.551   4.525
87244SOL     OW63628   5.806   7.871   8.290
87244SOL    HW163629   5.764   7.841   8.370
87244SOL    HW263630   5.795   7.966   8.291
87245SOL     OW63631   1.441   8.834   7.542
87245SOL    HW163632   1.430   8.922   7.577
87245SOL    HW263633   1.519   8.800   7.586
87246SOL     OW63634   6.578   6.695   9.999
87246SOL    HW163635   6.567   6.731  10.087
87246SOL    HW263636   6.660   6.734   9.969
87247SOL     OW63637  11.710  11.075   2.356
87247SOL    HW163638  11.700  11.153   2.302
87247SOL    HW263639  11.624  11.063   2.397
87248SOL     OW63640   4.985  14.689  14.040
87248SOL    HW163641   5.009  14.666  13.951
87248SOL    HW263642   4.900  14.732  14.033
87249SOL     OW63643   1.466  12.267   4.735
87249SOL    HW163644   1.559  12.266   4.711
87249SOL    HW263645   1.465  12.307   4.822
87250SOL     OW63646  10.255   5.189   3.536
87250SOL    HW163647  10.291   5.102   3.516
87250SOL    HW263648  10.291   5.211   3.622
87251SOL     OW63649   2.039   9.418   8.560
87251SOL    HW163650   1.945   9.400   8.562
87251SOL    HW263651   2.071   9.368   8.484
87252SOL     OW63652   1.826  14.024   1.298
87252SOL    HW163653   1.811  13.954   1.362
87252SOL    HW263654   1.851  14.100   1.351
87253SOL     OW63655   1.794   9.236   0.581
87253SOL    HW163656   1.875   9.232   0.631
87253SOL    HW263657   1.822   9.224   0.490
87254SOL     OW63658   4.130   8.553  10.566
87254SOL    HW163659   4.101   8.462  10.564
87254SOL    HW263660   4.165   8.570  10.478
87255SOL     OW63661   9.110   7.679   1.729
87255SOL    HW163662   9.020   7.655   1.707
87255SOL    HW263663   9.135   7.616   1.797
87256SOL     OW63664   7.525   7.641   2.765
87256SOL    HW163665   7.529   7.611   2.856
87256SOL    HW263666   7.584   7.582   2.718
87257SOL     OW63667   0.886   0.210  10.871
87257SOL    HW163668   0.903   0.301  10.898
87257SOL    HW263669   0.820   0.179  10.933
87258SOL     OW63670   9.775  14.255   1.953
87258SOL    HW163671   9.850  14.240   2.011
87258SOL    HW263672   9.732  14.333   1.988
87259SOL     OW63673  13.498   2.081   2.539
87259SOL    HW163674  13.520   2.173   2.528
87259SOL    HW263675  13.579   2.034   2.518
87260SOL     OW63676   8.041   9.425   0.199
87260SOL    HW163677   8.060   9.398   0.289
87260SOL    HW263678   8.104   9.376   0.146
87261SOL     OW63679  14.434   1.578   4.292
87261SOL    HW163680  14.429   1.590   4.197
87261SOL    HW263681  14.353   1.532   4.314
87262SOL     OW63682  14.350   5.304   3.507
87262SOL    HW163683  14.288   5.346   3.566
87262SOL    HW263684  14.430   5.355   3.516
87263SOL     OW63685   6.041   5.130   9.154
87263SOL    HW163686   6.026   5.149   9.062
87263SOL    HW263687   6.094   5.203   9.186
87264SOL     OW63688   2.741   5.627  11.594
87264SOL    HW163689   2.696   5.706  11.625
87264SOL    HW263690   2.828   5.659  11.567
87265SOL     OW63691  11.138  14.204   1.276
87265SOL    HW163692  11.126  14.253   1.195
87265SOL    HW263693  11.078  14.129   1.268
87266SOL     OW63694  10.145   1.733   8.703
87266SOL    HW163695  10.064   1.781   8.722
87266SOL    HW263696  10.160   1.679   8.781
87267SOL     OW63697  11.331   0.931  10.746
87267SOL    HW163698  11.248   0.891  10.770
87267SOL    HW263699  11.316   0.967  10.658
87268SOL     OW63700   5.055   5.774   9.613
87268SOL    HW163701   5.026   5.837   9.547
87268SOL    HW263702   5.135   5.812   9.649
87269SOL     OW63703   4.688   3.729   7.270
87269SOL    HW163704   4.710   3.654   7.214
87269SOL    HW263705   4.738   3.714   7.350
87270SOL     OW63706   3.661  14.200  14.561
87270SOL    HW163707   3.595  14.248  14.510
87270SOL    HW263708   3.654  14.110  14.529
87271SOL     OW63709   3.563   4.324  11.940
87271SOL    HW163710   3.556   4.251  11.879
87271SOL    HW263711   3.657   4.338  11.950
87272SOL     OW63712  14.162   4.343   6.069
87272SOL    HW163713  14.257   4.347   6.058
87272SOL    HW263714  14.128   4.340   5.980
87273SOL     OW63715  13.095   9.111  14.457
87273SOL    HW163716  13.035   9.036  14.463
87273SOL    HW263717  13.100   9.145  14.546
87274SOL     OW63718   9.340   7.145  11.486
87274SOL    HW163719   9.422   7.169  11.444
87274SOL    HW263720   9.356   7.156  11.579
87275SOL     OW63721   5.423  12.102   2.571
87275SOL    HW163722   5.339  12.137   2.542
87275SOL    HW263723   5.433  12.137   2.660
87276SOL     OW63724   2.110   0.748  14.320
87276SOL    HW163725   2.103   0.830  14.271
87276SOL    HW263726   2.187   0.705  14.283
87277SOL     OW63727   1.984  12.936   3.888
87277SOL    HW163728   2.001  12.950   3.794
87277SOL    HW263729   2.061  12.888   3.919
87278SOL     OW63730   5.580   6.229   4.534
87278SOL    HW163731   5.496   6.235   4.580
87278SOL    HW263732   5.630   6.165   4.585
87279SOL     OW63733  10.056   9.078  14.425
87279SOL    HW163734   9.991   9.039  14.484
87279SOL    HW263735  10.011   9.083  14.341
87280SOL     OW63736   5.655   9.860   3.673
87280SOL    HW163737   5.640   9.766   3.675
87280SOL    HW263738   5.581   9.897   3.721
87281SOL     OW63739  11.739  10.616  10.438
87281SOL    HW163740  11.764  10.704  10.410
87281SOL    HW263741  11.769  10.611  10.529
87282SOL     OW63742  13.669   6.709  11.105
87282SOL    HW163743  13.668   6.791  11.056
87282SOL    HW263744  13.667   6.737  11.197
87283SOL     OW63745  13.392   4.769   9.817
87283SOL    HW163746  13.325   4.760   9.749
87283SOL    HW263747  13.343   4.768   9.899
87284SOL     OW63748   0.760   8.210   5.055
87284SOL    HW163749   0.726   8.220   4.967
87284SOL    HW263750   0.846   8.169   5.044
87285SOL     OW63751  13.065   4.964  13.303
87285SOL    HW163752  13.126   5.035  13.321
87285SOL    HW263753  13.080   4.941  13.211
87286SOL     OW63754   6.128   8.428   2.463
87286SOL    HW163755   6.121   8.491   2.535
87286SOL    HW263756   6.218   8.395   2.469
87287SOL     OW63757   8.970   3.191   5.701
87287SOL    HW163758   9.026   3.269   5.697
87287SOL    HW263759   8.914   3.197   5.624
87288SOL     OW63760   9.987  10.167   0.590
87288SOL    HW163761  10.040  10.179   0.670
87288SOL    HW263762   9.911  10.118   0.620
87289SOL     OW63763   0.290  13.678   7.260
87289SOL    HW163764   0.270  13.729   7.339
87289SOL    HW263765   0.310  13.743   7.193
87290SOL     OW63766   1.975   5.941  12.735
87290SOL    HW163767   2.033   5.874  12.771
87290SOL    HW263768   1.921   5.894  12.672
87291SOL     OW63769  12.182  13.258  11.343
87291SOL    HW163770  12.223  13.175  11.367
87291SOL    HW263771  12.193  13.313  11.421
87292SOL     OW63772  13.544  10.763  12.227
87292SOL    HW163773  13.565  10.721  12.144
87292SOL    HW263774  13.482  10.832  12.203
87293SOL     OW63775   6.929   1.551   4.611
87293SOL    HW163776   6.859   1.500   4.570
87293SOL    HW263777   6.984   1.485   4.654
87294SOL     OW63778   5.527   5.753  12.588
87294SOL    HW163779   5.615   5.759  12.551
87294SOL    HW263780   5.501   5.662  12.575
87295SOL     OW63781   1.046  10.173   1.048
87295SOL    HW163782   1.140  10.155   1.055
87295SOL    HW263783   1.033  10.202   0.958
87296SOL     OW63784   1.316   9.943   4.674
87296SOL    HW163785   1.266   9.998   4.734
87296SOL    HW263786   1.400   9.988   4.665
87297SOL     OW63787  14.153   3.168  14.216
87297SOL    HW163788  14.231   3.209  14.181
87297SOL    HW263789  14.112   3.125  14.141
87298SOL     OW63790   8.324  10.940   2.231
87298SOL    HW163791   8.361  11.006   2.173
87298SOL    HW263792   8.395  10.878   2.246
87299SOL     OW63793   0.025   8.951   9.216
87299SOL    HW163794   0.095   8.986   9.159
87299SOL    HW263795   0.059   8.964   9.305
87300SOL     OW63796   4.851   9.703  12.478
87300SOL    HW163797   4.941   9.684  12.452
87300SOL    HW263798   4.854   9.792  12.514
87301SOL     OW63799   7.580   0.432  10.245
87301SOL    HW163800   7.520   0.467  10.180
87301SOL    HW263801   7.524   0.400  10.316
87302SOL     OW63802  13.404  10.571  12.608
87302SOL    HW163803  13.340  10.613  12.666
87302SOL    HW263804  13.352  10.513  12.553
87303SOL     OW63805  12.709   7.275   6.797
87303SOL    HW163806  12.739   7.222   6.870
87303SOL    HW263807  12.674   7.213   6.734
87304SOL     OW63808  12.023  10.315  13.772
87304SOL    HW163809  12.094  10.271  13.818
87304SOL    HW263810  11.955  10.248  13.764
87305SOL     OW63811   2.056  11.600  14.063
87305SOL    HW163812   1.981  11.558  14.021
87305SOL    HW263813   2.128  11.540  14.048
87306SOL     OW63814  13.493   6.714   9.991
87306SOL    HW163815  13.561   6.667  10.039
87306SOL    HW263816  13.431   6.743  10.058
87307SOL     OW63817   5.565   6.526   0.123
87307SOL    HW163818   5.636   6.461   0.128
87307SOL    HW263819   5.521   6.507   0.040
87308SOL     OW63820   5.406   1.985  12.379
87308SOL    HW163821   5.358   1.931  12.317
87308SOL    HW263822   5.363   2.070  12.376
87309SOL     OW63823   5.576  13.390   9.469
87309SOL    HW163824   5.513  13.404   9.539
87309SOL    HW263825   5.577  13.473   9.421
87310SOL     OW63826  14.096   3.048   7.080
87310SOL    HW163827  14.162   3.046   7.149
87310SOL    HW263828  14.025   2.992   7.113
87311SOL     OW63829  11.774   4.411  13.957
87311SOL    HW163830  11.729   4.401  14.041
87311SOL    HW263831  11.721   4.360  13.896
87312SOL     OW63832   8.615   4.792   2.630
87312SOL    HW163833   8.568   4.738   2.567
87312SOL    HW263834   8.705   4.761   2.626
87313SOL     OW63835  10.055  13.222   6.560
87313SOL    HW163836  10.072  13.132   6.586
87313SOL    HW263837  10.137  13.250   6.519
87314SOL     OW63838  10.059  11.798   2.360
87314SOL    HW163839  10.070  11.704   2.376
87314SOL    HW263840  10.011  11.830   2.435
87315SOL     OW63841  14.723   9.890   9.164
87315SOL    HW163842  14.656   9.901   9.231
87315SOL    HW263843  14.675   9.890   9.081
87316SOL     OW63844  11.425  10.912  14.404
87316SOL    HW163845  11.404  10.953  14.320
87316SOL    HW263846  11.398  10.821  14.394
87317SOL     OW63847   2.544   2.013  11.366
87317SOL    HW163848   2.479   2.016  11.296
87317SOL    HW263849   2.533   2.095  11.413
87318SOL     OW63850  13.285   9.881   2.649
87318SOL    HW163851  13.309   9.868   2.740
87318SOL    HW263852  13.252   9.971   2.645
87319SOL     OW63853   5.419   7.794   0.385
87319SOL    HW163854   5.460   7.875   0.355
87319SOL    HW263855   5.463   7.725   0.335
87320SOL     OW63856   8.739   9.137  12.094
87320SOL    HW163857   8.695   9.141  12.009
87320SOL    HW263858   8.832   9.138  12.074
87321SOL     OW63859   9.239  14.703  11.167
87321SOL    HW163860   9.154  14.740  11.190
87321SOL    HW263861   9.251  14.630  11.227
87322SOL     OW63862   2.960  13.461  12.943
87322SOL    HW163863   3.022  13.463  12.870
87322SOL    HW263864   3.015  13.447  13.020
87323SOL     OW63865  10.886   8.327   0.117
87323SOL    HW163866  10.925   8.414   0.105
87323SOL    HW263867  10.960   8.271   0.142
87324SOL     OW63868  12.034   3.867   7.002
87324SOL    HW163869  11.997   3.779   7.013
87324SOL    HW263870  12.038   3.903   7.091
87325SOL     OW63871   8.734   7.417   9.951
87325SOL    HW163872   8.818   7.462   9.949
87325SOL    HW263873   8.712   7.411  10.044
87326SOL     OW63874  13.496  13.318   9.095
87326SOL    HW163875  13.444  13.238   9.101
87326SOL    HW263876  13.571  13.302   9.152
87327SOL     OW63877   9.315   3.663  14.215
87327SOL    HW163878   9.253   3.663  14.142
87327SOL    HW263879   9.276   3.604  14.280
87328SOL     OW63880   3.984   5.399   9.844
87328SOL    HW163881   3.918   5.382   9.912
87328SOL    HW263882   4.064   5.417   9.892
87329SOL     OW63883   8.757  13.635  10.753
87329SOL    HW163884   8.679  13.670  10.710
87329SOL    HW263885   8.761  13.544  10.723
87330SOL     OW63886   3.407   0.948   1.266
87330SOL    HW163887   3.438   0.999   1.191
87330SOL    HW263888   3.462   0.870   1.267
87331SOL     OW63889   4.420   5.657  12.746
87331SOL    HW163890   4.399   5.584  12.688
87331SOL    HW263891   4.507   5.685  12.718
87332SOL     OW63892   5.255  12.294  11.576
87332SOL    HW163893   5.187  12.311  11.511
87332SOL    HW263894   5.286  12.206  11.555
87333SOL     OW63895   7.079   1.347   9.673
87333SOL    HW163896   7.013   1.403   9.714
87333SOL    HW263897   7.036   1.262   9.664
87334SOL     OW63898   5.376  10.253   0.221
87334SOL    HW163899   5.291  10.214   0.200
87334SOL    HW263900   5.359  10.347   0.221
87335SOL     OW63901  13.499   4.541  13.184
87335SOL    HW163902  13.574   4.511  13.236
87335SOL    HW263903  13.477   4.627  13.221
87336SOL     OW63904   4.605   6.494   0.540
87336SOL    HW163905   4.658   6.551   0.597
87336SOL    HW263906   4.534   6.464   0.596
87337SOL     OW63907  14.311   1.942   5.968
87337SOL    HW163908  14.329   1.953   5.875
87337SOL    HW263909  14.383   1.986   6.012
87338SOL     OW63910   9.827   9.311  13.635
87338SOL    HW163911   9.774   9.358  13.570
87338SOL    HW263912   9.907   9.363  13.642
87339SOL     OW63913   3.323   0.444   6.725
87339SOL    HW163914   3.363   0.531   6.722
87339SOL    HW263915   3.249   0.450   6.664
87340SOL     OW63916   7.413   1.146   6.884
87340SOL    HW163917   7.462   1.176   6.960
87340SOL    HW263918   7.323   1.177   6.900
87341SOL     OW63919  10.802   7.629  11.297
87341SOL    HW163920  10.738   7.666  11.357
87341SOL    HW263921  10.754   7.565  11.246
87342SOL     OW63922   9.849   9.398   1.009
87342SOL    HW163923   9.916   9.447   1.056
87342SOL    HW263924   9.895   9.360   0.934
87343SOL     OW63925  14.794   5.501  10.677
87343SOL    HW163926  14.727   5.438  10.703
87343SOL    HW263927  14.829   5.467  10.596
87344SOL     OW63928  13.887  12.104  13.532
87344SOL    HW163929  13.818  12.089  13.597
87344SOL    HW263930  13.957  12.148  13.581
87345SOL     OW63931   8.501   2.563   3.856
87345SOL    HW163932   8.564   2.635   3.852
87345SOL    HW263933   8.508   2.529   3.945
87346SOL     OW63934  12.753   2.123   6.312
87346SOL    HW163935  12.668   2.160   6.286
87346SOL    HW263936  12.817   2.188   6.284
87347SOL     OW63937   5.841   2.086   5.457
87347SOL    HW163938   5.861   2.030   5.381
87347SOL    HW263939   5.885   2.042   5.530
87348SOL     OW63940  12.287   3.911   0.608
87348SOL    HW163941  12.257   3.824   0.635
87348SOL    HW263942  12.225   3.938   0.541
87349SOL     OW63943   4.269   3.970  13.709
87349SOL    HW163944   4.179   4.003  13.715
87349SOL    HW263945   4.272   3.899  13.774
87350SOL     OW63946   2.754  13.509   2.900
87350SOL    HW163947   2.836  13.527   2.945
87350SOL    HW263948   2.765  13.421   2.864
87351SOL     OW63949   2.649   7.206   3.072
87351SOL    HW163950   2.722   7.266   3.086
87351SOL    HW263951   2.582   7.235   3.134
87352SOL     OW63952   0.215   9.399   5.418
87352SOL    HW163953   0.190   9.483   5.456
87352SOL    HW263954   0.267   9.423   5.341
87353SOL     OW63955   5.858   0.931   1.677
87353SOL    HW163956   5.953   0.923   1.671
87353SOL    HW263957   5.827   0.841   1.684
87354SOL     OW63958  12.461   4.729   1.105
87354SOL    HW163959  12.399   4.733   1.178
87354SOL    HW263960  12.409   4.697   1.032
87355SOL     OW63961   2.869  14.233  12.107
87355SOL    HW163962   2.852  14.142  12.084
87355SOL    HW263963   2.860  14.236  12.203
87356SOL     OW63964   1.771   6.571   1.040
87356SOL    HW163965   1.711   6.563   1.114
87356SOL    HW263966   1.734   6.514   0.973
87357SOL     OW63967   5.945  13.875  11.214
87357SOL    HW163968   5.979  13.959  11.244
87357SOL    HW263969   5.854  13.874  11.242
87358SOL     OW63970  14.551   1.417   5.722
87358SOL    HW163971  14.457   1.432   5.727
87358SOL    HW263972  14.582   1.478   5.654
87359SOL     OW63973  13.277   1.908   0.354
87359SOL    HW163974  13.309   1.850   0.423
87359SOL    HW263975  13.182   1.891   0.351
87360SOL     OW63976  11.046  13.227  10.295
87360SOL    HW163977  11.124  13.261  10.338
87360SOL    HW263978  10.975  13.248  10.356
87361SOL     OW63979   9.417   8.150   2.440
87361SOL    HW163980   9.382   8.215   2.378
87361SOL    HW263981   9.442   8.076   2.385
87362SOL     OW63982   9.212   2.014   7.538
87362SOL    HW163983   9.205   1.993   7.445
87362SOL    HW263984   9.181   1.936   7.583
87363SOL     OW63985  13.398  12.533   6.195
87363SOL    HW163986  13.379  12.439   6.185
87363SOL    HW263987  13.414  12.563   6.105
87364SOL     OW63988  13.772  14.293   6.428
87364SOL    HW163989  13.743  14.384   6.435
87364SOL    HW263990  13.841  14.285   6.495
87365SOL     OW63991   8.335   7.517   9.690
87365SOL    HW163992   8.398   7.452   9.720
87365SOL    HW263993   8.311   7.566   9.769
87366SOL     OW63994   9.461   1.755  11.615
87366SOL    HW163995   9.513   1.750  11.695
87366SOL    HW263996   9.404   1.831  11.627
87367SOL     OW63997   7.266   0.526   1.655
87367SOL    HW163998   7.269   0.458   1.722
87367SOL    HW263999   7.174   0.552   1.651
87368SOL     OW64000   2.360   3.584   5.220
87368SOL    HW164001   2.381   3.670   5.186
87368SOL    HW264002   2.427   3.526   5.185
87369SOL     OW64003   3.736   1.736   9.882
87369SOL    HW164004   3.805   1.801   9.872
87369SOL    HW264005   3.777   1.652   9.862
87370SOL     OW64006  12.203   4.605  10.884
87370SOL    HW164007  12.167   4.538  10.942
87370SOL    HW264008  12.198   4.568  10.796
87371SOL     OW64009  13.181   5.855   1.447
87371SOL    HW164010  13.275   5.842   1.447
87371SOL    HW264011  13.146   5.775   1.487
87372SOL     OW64012  11.196   5.105   6.814
87372SOL    HW164013  11.131   5.154   6.763
87372SOL    HW264014  11.230   5.040   6.752
87373SOL     OW64015   9.658   3.918   7.973
87373SOL    HW164016   9.617   4.001   7.999
87373SOL    HW264017   9.727   3.944   7.911
87374SOL     OW64018   4.697   0.532   2.756
87374SOL    HW164019   4.603   0.522   2.766
87374SOL    HW264020   4.733   0.514   2.843
87375SOL     OW64021   5.792   5.391   0.880
87375SOL    HW164022   5.778   5.426   0.792
87375SOL    HW264023   5.733   5.315   0.884
87376SOL     OW64024   5.790  12.570   2.526
87376SOL    HW164025   5.782  12.475   2.532
87376SOL    HW264026   5.811  12.586   2.434
87377SOL     OW64027   2.291   6.820  13.836
87377SOL    HW164028   2.363   6.866  13.792
87377SOL    HW264029   2.212   6.865  13.805
87378SOL     OW64030  14.712   2.634  14.660
87378SOL    HW164031  14.752   2.652  14.575
87378SOL    HW264032  14.692   2.721  14.695
87379SOL     OW64033  11.202   6.566   3.029
87379SOL    HW164034  11.160   6.497   3.081
87379SOL    HW264035  11.139   6.585   2.959
87380SOL     OW64036   3.688  14.298   1.188
87380SOL    HW164037   3.680  14.393   1.199
87380SOL    HW264038   3.618  14.261   1.241
87381SOL     OW64039  13.950  10.192  11.147
87381SOL    HW164040  13.971  10.107  11.108
87381SOL    HW264041  13.889  10.173  11.217
87382SOL     OW64042  10.446   2.140   8.728
87382SOL    HW164043  10.359   2.132   8.768
87382SOL    HW264044  10.459   2.057   8.682
87383SOL     OW64045   5.718   3.061   8.667
87383SOL    HW164046   5.682   2.983   8.624
87383SOL    HW264047   5.646   3.094   8.722
87384SOL     OW64048   0.142   2.242   2.489
87384SOL    HW164049   0.058   2.280   2.513
87384SOL    HW264050   0.123   2.151   2.470
87385SOL     OW64051  14.676  11.812  14.461
87385SOL    HW164052  14.638  11.749  14.522
87385SOL    HW264053  14.610  11.820  14.391
87386SOL     OW64054   8.603   2.733   0.548
87386SOL    HW164055   8.609   2.762   0.639
87386SOL    HW264056   8.679   2.773   0.505
87387SOL     OW64057   5.604   9.083   3.642
87387SOL    HW164058   5.547   9.014   3.678
87387SOL    HW264059   5.544   9.155   3.622
87388SOL     OW64060   9.739   1.286   9.091
87388SOL    HW164061   9.661   1.231   9.095
87388SOL    HW264062   9.783   1.259   9.010
87389SOL     OW64063   0.662   7.977  13.037
87389SOL    HW164064   0.719   7.937  13.103
87389SOL    HW264065   0.637   8.061  13.075
87390SOL     OW64066   9.036   1.465  11.861
87390SOL    HW164067   9.014   1.374  11.876
87390SOL    HW264068   9.129   1.471  11.884
87391SOL     OW64069   9.660   1.987   4.859
87391SOL    HW164070   9.635   2.080   4.857
87391SOL    HW264071   9.735   1.981   4.801
87392SOL     OW64072  12.725  12.609   4.401
87392SOL    HW164073  12.798  12.658   4.440
87392SOL    HW264074  12.743  12.518   4.423
87393SOL     OW64075  12.027  13.592  12.469
87393SOL    HW164076  12.012  13.684  12.447
87393SOL    HW264077  12.047  13.593  12.563
87394SOL     OW64078  13.343   0.672   2.323
87394SOL    HW164079  13.374   0.648   2.411
87394SOL    HW264080  13.287   0.599   2.297
87395SOL     OW64081  11.265  11.369   3.919
87395SOL    HW164082  11.179  11.328   3.913
87395SOL    HW264083  11.291  11.384   3.827
87396SOL     OW64084  11.026   3.862   1.461
87396SOL    HW164085  11.052   3.829   1.375
87396SOL    HW264086  11.087   3.934   1.478
87397SOL     OW64087   9.782   8.839   1.856
87397SOL    HW164088   9.848   8.774   1.829
87397SOL    HW264089   9.735   8.796   1.927
87398SOL     OW64090   2.631   3.519   3.911
87398SOL    HW164091   2.547   3.550   3.945
87398SOL    HW264092   2.631   3.545   3.819
87399SOL     OW64093  12.407   0.707   8.220
87399SOL    HW164094  12.445   0.673   8.140
87399SOL    HW264095  12.419   0.638   8.285
87400SOL     OW64096   1.492  10.657   5.342
87400SOL    HW164097   1.475  10.598   5.268
87400SOL    HW264098   1.583  10.684   5.330
87401SOL     OW64099   8.912   5.088  11.387
87401SOL    HW164100   8.998   5.128  11.382
87401SOL    HW264101   8.900   5.045  11.303
87402SOL     OW64102   1.521   1.076   8.119
87402SOL    HW164103   1.468   1.145   8.159
87402SOL    HW264104   1.484   1.065   8.031
87403SOL     OW64105  12.955   2.104   9.576
87403SOL    HW164106  12.996   2.179   9.617
87403SOL    HW264107  12.907   2.140   9.502
87404SOL     OW64108  13.225  10.509   8.409
87404SOL    HW164109  13.291  10.524   8.342
87404SOL    HW264110  13.207  10.595   8.446
87405SOL     OW64111  14.326   8.278   7.562
87405SOL    HW164112  14.246   8.227   7.557
87405SOL    HW264113  14.331   8.324   7.479
87406SOL     OW64114   9.387  11.386  12.335
87406SOL    HW164115   9.346  11.300  12.326
87406SOL    HW264116   9.321  11.439  12.380
87407SOL     OW64117   1.056   9.309  11.467
87407SOL    HW164118   1.124   9.245  11.445
87407SOL    HW264119   1.102   9.376  11.519
87408SOL     OW64120  10.551  12.464   9.940
87408SOL    HW164121  10.465  12.425   9.953
87408SOL    HW264122  10.612  12.400   9.978
87409SOL     OW64123   7.117  13.401   1.397
87409SOL    HW164124   7.159  13.320   1.369
87409SOL    HW264125   7.178  13.470   1.371
87410SOL     OW64126   4.672   2.863   9.721
87410SOL    HW164127   4.614   2.883   9.795
87410SOL    HW264128   4.760   2.872   9.757
87411SOL     OW64129   8.856   4.027  13.560
87411SOL    HW164130   8.842   4.041  13.466
87411SOL    HW264131   8.816   3.942  13.578
87412SOL     OW64132   2.557   8.461   2.652
87412SOL    HW164133   2.593   8.373   2.654
87412SOL    HW264134   2.625   8.514   2.610
87413SOL     OW64135  12.255  10.401   1.877
87413SOL    HW164136  12.161  10.397   1.895
87413SOL    HW264137  12.261  10.414   1.783
87414SOL     OW64138   7.891  11.812   6.775
87414SOL    HW164139   7.986  11.825   6.782
87414SOL    HW264140   7.856  11.843   6.858
87415SOL     OW64141   2.557   1.164   2.680
87415SOL    HW164142   2.620   1.198   2.616
87415SOL    HW264143   2.558   1.069   2.668
87416SOL     OW64144   4.256   9.082  12.956
87416SOL    HW164145   4.330   9.064  12.899
87416SOL    HW264146   4.187   9.112  12.897
87417SOL     OW64147   5.105   7.440  10.897
87417SOL    HW164148   5.125   7.420  10.989
87417SOL    HW264149   5.041   7.511  10.902
87418SOL     OW64150   8.244   9.754   7.916
87418SOL    HW164151   8.272   9.786   8.002
87418SOL    HW264152   8.202   9.670   7.934
87419SOL     OW64153  12.862   9.963  12.690
87419SOL    HW164154  12.875   9.987  12.598
87419SOL    HW264155  12.794  10.023  12.721
87420SOL     OW64156   9.643   5.619  12.304
87420SOL    HW164157   9.737   5.614  12.317
87420SOL    HW264158   9.630   5.607  12.210
87421SOL     OW64159  11.511   2.040   1.511
87421SOL    HW164160  11.497   2.034   1.605
87421SOL    HW264161  11.424   2.033   1.473
87422SOL     OW64162   5.388   0.980   0.835
87422SOL    HW164163   5.407   0.930   0.914
87422SOL    HW264164   5.348   1.061   0.867
87423SOL     OW64165   1.816   6.027   7.411
87423SOL    HW164166   1.772   5.978   7.341
87423SOL    HW264167   1.876   6.085   7.365
87424SOL     OW64168   5.870  14.285   5.825
87424SOL    HW164169   5.937  14.275   5.758
87424SOL    HW264170   5.869  14.379   5.844
87425SOL     OW64171  12.061   2.493  11.562
87425SOL    HW164172  12.022   2.416  11.521
87425SOL    HW264173  12.041   2.483  11.655
87426SOL     OW64174  13.566   4.849   2.041
87426SOL    HW164175  13.578   4.775   2.101
87426SOL    HW264176  13.494   4.899   2.080
87427SOL     OW64177  10.552  10.071   2.358
87427SOL    HW164178  10.560  10.164   2.378
87427SOL    HW264179  10.458  10.053   2.358
87428SOL     OW64180  11.396   3.989   5.721
87428SOL    HW164181  11.345   4.040   5.659
87428SOL    HW264182  11.398   3.901   5.684
87429SOL     OW64183   5.601   7.591   0.297
87429SOL    HW164184   5.676   7.585   0.356
87429SOL    HW264185   5.593   7.504   0.259
87430SOL     OW64186   0.752  13.442  14.085
87430SOL    HW164187   0.782  13.533  14.083
87430SOL    HW264188   0.827  13.391  14.054
87431SOL     OW64189  14.539  11.451  11.049
87431SOL    HW164190  14.451  11.424  11.077
87431SOL    HW264191  14.555  11.532  11.098
87432SOL     OW64192   5.748   6.804  13.409
87432SOL    HW164193   5.784   6.717  13.394
87432SOL    HW264194   5.728   6.806  13.503
87433SOL     OW64195   9.760   2.857   4.592
87433SOL    HW164196   9.840   2.886   4.635
87433SOL    HW264197   9.781   2.855   4.499
87434SOL     OW64198   5.697  13.374  13.434
87434SOL    HW164199   5.644  13.340  13.506
87434SOL    HW264200   5.752  13.441  13.474
87435SOL     OW64201   4.338  13.935   5.303
87435SOL    HW164202   4.281  13.934   5.380
87435SOL    HW264203   4.344  13.843   5.277
87436SOL     OW64204   3.131   7.818   9.224
87436SOL    HW164205   3.140   7.780   9.311
87436SOL    HW264206   3.134   7.743   9.165
87437SOL     OW64207  13.827  10.232   4.016
87437SOL    HW164208  13.816  10.137   4.016
87437SOL    HW264209  13.801  10.260   4.104
87438SOL     OW64210   8.061   7.086   1.088
87438SOL    HW164211   7.967   7.100   1.082
87438SOL    HW264212   8.079   7.082   1.182
87439SOL     OW64213   7.973  13.264   1.538
87439SOL    HW164214   8.032  13.195   1.508
87439SOL    HW264215   7.921  13.286   1.461
87440SOL     OW64216   6.701  12.886  14.100
87440SOL    HW164217   6.765  12.901  14.170
87440SOL    HW264218   6.708  12.963  14.044
87441SOL     OW64219   7.081  12.534   9.402
87441SOL    HW164220   7.088  12.629   9.412
87441SOL    HW264221   7.172  12.505   9.391
87442SOL     OW64222  13.216   5.779  14.506
87442SOL    HW164223  13.130   5.778  14.463
87442SOL    HW264224  13.204   5.835  14.582
87443SOL     OW64225   4.848   3.627   8.851
87443SOL    HW164226   4.839   3.574   8.771
87443SOL    HW264227   4.779   3.595   8.908
87444SOL     OW64228   8.338   6.150  14.689
87444SOL    HW164229   8.371   6.062  14.672
87444SOL    HW264230   8.293   6.175  14.608
87445SOL     OW64231  12.621   5.113   6.180
87445SOL    HW164232  12.595   5.173   6.250
87445SOL    HW264233  12.541   5.065   6.158
87446SOL     OW64234   0.489  12.302   3.663
87446SOL    HW164235   0.503  12.207   3.660
87446SOL    HW264236   0.575  12.338   3.686
87447SOL     OW64237   6.855   8.710   4.704
87447SOL    HW164238   6.864   8.673   4.792
87447SOL    HW264239   6.902   8.648   4.647
87448SOL     OW64240   1.296   2.762   8.982
87448SOL    HW164241   1.235   2.805   8.923
87448SOL    HW264242   1.362   2.829   9.001
87449SOL     OW64243   6.033   8.622  13.286
87449SOL    HW164244   6.042   8.529  13.305
87449SOL    HW264245   5.939   8.637  13.284
87450SOL     OW64246  11.628   4.627   1.843
87450SOL    HW164247  11.661   4.537   1.839
87450SOL    HW264248  11.643   4.654   1.933
87451SOL     OW64249   6.347   7.487   5.446
87451SOL    HW164250   6.392   7.535   5.376
87451SOL    HW264251   6.358   7.541   5.524
87452SOL     OW64252   9.556   4.862  12.089
87452SOL    HW164253   9.486   4.818  12.041
87452SOL    HW264254   9.568   4.945  12.044
87453SOL     OW64255   8.619  13.867   6.316
87453SOL    HW164256   8.696  13.836   6.363
87453SOL    HW264257   8.560  13.791   6.314
87454SOL     OW64258   5.813   7.271   8.061
87454SOL    HW164259   5.843   7.286   7.971
87454SOL    HW264260   5.835   7.180   8.079
87455SOL     OW64261  12.836  14.661  10.160
87455SOL    HW164262  12.810  14.747  10.193
87455SOL    HW264263  12.833  14.670  10.064
87456SOL     OW64264  12.415  13.567   8.197
87456SOL    HW164265  12.326  13.548   8.168
87456SOL    HW264266  12.424  13.521   8.280
87457SOL     OW64267  10.112   3.430   1.576
87457SOL    HW164268  10.124   3.468   1.662
87457SOL    HW264269  10.201   3.418   1.542
87458SOL     OW64270   0.486   1.311   8.570
87458SOL    HW164271   0.508   1.369   8.643
87458SOL    HW264272   0.409   1.351   8.529
87459SOL     OW64273   2.885   4.526   2.322
87459SOL    HW164274   2.944   4.590   2.283
87459SOL    HW264275   2.927   4.442   2.305
87460SOL     OW64276   8.809  12.997   3.306
87460SOL    HW164277   8.824  13.027   3.217
87460SOL    HW264278   8.794  12.903   3.299
87461SOL     OW64279   2.260  10.228   1.092
87461SOL    HW164280   2.271  10.137   1.120
87461SOL    HW264281   2.287  10.227   1.000
87462SOL     OW64282   1.350   9.427   1.447
87462SOL    HW164283   1.358   9.519   1.470
87462SOL    HW264284   1.436   9.390   1.470
87463SOL     OW64285  14.600  14.494   3.619
87463SOL    HW164286  14.510  14.525   3.623
87463SOL    HW264287  14.645  14.558   3.564
87464SOL     OW64288   4.760  14.848   4.566
87464SOL    HW164289   4.829   0.035   4.535
87464SOL    HW264290   4.776  14.765   4.522
87465SOL     OW64291  12.374   9.275   7.981
87465SOL    HW164292  12.370   9.357   7.930
87465SOL    HW264293  12.465   9.269   8.010
87466SOL     OW64294   4.177  10.310  12.473
87466SOL    HW164295   4.187  10.215  12.480
87466SOL    HW264296   4.166  10.325  12.379
87467SOL     OW64297   6.582   6.064   6.969
87467SOL    HW164298   6.657   6.118   6.996
87467SOL    HW264299   6.606   6.032   6.882
87468SOL     OW64300  12.246  11.162  10.994
87468SOL    HW164301  12.286  11.158  10.907
87468SOL    HW264302  12.303  11.107  11.048
87469SOL     OW64303   6.932   3.874   7.833
87469SOL    HW164304   6.936   3.970   7.829
87469SOL    HW264305   6.961   3.846   7.746
87470SOL     OW64306  11.557  14.652  11.045
87470SOL    HW164307  11.631  14.681  10.991
87470SOL    HW264308  11.585  14.673  11.135
87471SOL     OW64309  12.400   4.064  12.555
87471SOL    HW164310  12.333   4.112  12.506
87471SOL    HW264311  12.474   4.057  12.494
87472SOL     OW64312   6.941   2.372   4.071
87472SOL    HW164313   7.033   2.399   4.067
87472SOL    HW264314   6.944   2.277   4.060
87473SOL     OW64315  11.704  13.042   4.215
87473SOL    HW164316  11.622  13.057   4.261
87473SOL    HW264317  11.681  13.045   4.122
87474SOL     OW64318   5.825  11.961  13.434
87474SOL    HW164319   5.882  11.924  13.367
87474SOL    HW264320   5.852  12.053  13.441
87475SOL     OW64321   2.252  14.700   9.418
87475SOL    HW164322   2.175  14.665   9.462
87475SOL    HW264323   2.294  14.756   9.484
87476SOL     OW64324  11.812   0.289   9.303
87476SOL    HW164325  11.893   0.340   9.317
87476SOL    HW264326  11.839   0.218   9.245
87477SOL     OW64327   6.880  10.788  13.459
87477SOL    HW164328   6.896  10.831  13.543
87477SOL    HW264329   6.805  10.835  13.422
87478SOL     OW64330   8.868  11.740  12.385
87478SOL    HW164331   8.772  11.744  12.390
87478SOL    HW264332   8.897  11.822  12.425
87479SOL     OW64333   8.818   5.489  10.661
87479SOL    HW164334   8.758   5.518  10.592
87479SOL    HW264335   8.794   5.543  10.736
87480SOL     OW64336   6.629  10.911  12.025
87480SOL    HW164337   6.572  10.922  12.101
87480SOL    HW264338   6.709  10.871  12.060
87481SOL     OW64339   8.730   6.560   8.795
87481SOL    HW164340   8.766   6.621   8.731
87481SOL    HW264341   8.784   6.481   8.786
87482SOL     OW64342   5.542   8.111   0.170
87482SOL    HW164343   5.563   8.159   0.090
87482SOL    HW264344   5.564   8.020   0.151
87483SOL     OW64345   4.248   9.530   8.763
87483SOL    HW164346   4.275   9.492   8.680
87483SOL    HW264347   4.268   9.623   8.754
87484SOL     OW64348   3.708   8.557   2.125
87484SOL    HW164349   3.673   8.473   2.154
87484SOL    HW264350   3.663   8.574   2.043
87485SOL     OW64351   8.485   2.945  13.915
87485SOL    HW164352   8.478   3.039  13.930
87485SOL    HW264353   8.404   2.909  13.952
87486SOL     OW64354   2.225   8.106   7.349
87486SOL    HW164355   2.190   8.111   7.438
87486SOL    HW264356   2.180   8.031   7.310
87487SOL     OW64357  12.856   0.507   6.776
87487SOL    HW164358  12.781   0.473   6.825
87487SOL    HW264359  12.901   0.429   6.744
87488SOL     OW64360  10.945   4.483   2.917
87488SOL    HW164361  10.914   4.523   2.836
87488SOL    HW264362  10.865   4.455   2.962
87489SOL     OW64363   4.754  11.725  11.444
87489SOL    HW164364   4.821  11.794  11.441
87489SOL    HW264365   4.740  11.710  11.537
87490SOL     OW64366   7.699   6.458   6.815
87490SOL    HW164367   7.679   6.524   6.750
87490SOL    HW264368   7.736   6.385   6.765
87491SOL     OW64369  12.806  11.771   4.304
87491SOL    HW164370  12.898  11.772   4.331
87491SOL    HW264371  12.808  11.737   4.215
87492SOL     OW64372  14.083  13.630  13.112
87492SOL    HW164373  14.017  13.637  13.180
87492SOL    HW264374  14.134  13.711  13.120
87493SOL     OW64375   2.357   6.194   8.716
87493SOL    HW164376   2.422   6.190   8.647
87493SOL    HW264377   2.336   6.102   8.735
87494SOL     OW64378  11.967  14.834  11.917
87494SOL    HW164379  11.961  14.740  11.933
87494SOL    HW264380  12.045  14.844  11.862
87495SOL     OW64381   9.177   9.708   9.425
87495SOL    HW164382   9.193   9.719   9.331
87495SOL    HW264383   9.128   9.626   9.432
87496SOL     OW64384   3.885   3.179  11.715
87496SOL    HW164385   3.814   3.132  11.759
87496SOL    HW264386   3.965   3.138  11.748
87497SOL     OW64387   8.751   7.334  12.610
87497SOL    HW164388   8.739   7.420  12.649
87497SOL    HW264389   8.806   7.350  12.533
87498SOL     OW64390   1.501   3.160   6.453
87498SOL    HW164391   1.469   3.248   6.471
87498SOL    HW264392   1.431   3.118   6.403
87499SOL     OW64393   1.611   3.864  13.822
87499SOL    HW164394   1.624   3.809  13.745
87499SOL    HW264395   1.695   3.908  13.833
87500SOL     OW64396  14.324   3.965  10.561
87500SOL    HW164397  14.345   3.873  10.542
87500SOL    HW264398  14.279   3.962  10.645
87501SOL     OW64399   6.823   9.782   3.854
87501SOL    HW164400   6.784   9.868   3.873
87501SOL    HW264401   6.775   9.752   3.777
87502SOL     OW64402  11.584   1.056  14.670
87502SOL    HW164403  11.633   1.051  14.753
87502SOL    HW264404  11.552   1.146  14.666
87503SOL     OW64405   1.742   9.923  14.126
87503SOL    HW164406   1.661   9.959  14.091
87503SOL    HW264407   1.793   9.898  14.049
87504SOL     OW64408   5.803   9.922   8.327
87504SOL    HW164409   5.811   9.834   8.363
87504SOL    HW264410   5.782   9.909   8.235
87505SOL     OW64411  13.037   9.706   3.193
87505SOL    HW164412  12.966   9.675   3.137
87505SOL    HW264413  12.994   9.737   3.272
87506SOL     OW64414   6.633   2.975  14.867
87506SOL    HW164415   6.657   3.034   0.067
87506SOL    HW264416   6.710   2.919  14.856
87507SOL     OW64417   9.414  14.554   3.095
87507SOL    HW164418   9.506  14.542   3.070
87507SOL    HW264419   9.387  14.468   3.127
87508SOL     OW64420   3.710   6.926   5.318
87508SOL    HW164421   3.657   7.001   5.344
87508SOL    HW264422   3.727   6.941   5.225
87509SOL     OW64423   3.701   8.245   2.622
87509SOL    HW164424   3.657   8.160   2.615
87509SOL    HW264425   3.720   8.255   2.715
87510SOL     OW64426   1.353   3.494  12.524
87510SOL    HW164427   1.339   3.456  12.611
87510SOL    HW264428   1.265   3.505  12.489
87511SOL     OW64429  14.791  14.082   1.460
87511SOL    HW164430  14.764  14.004   1.508
87511SOL    HW264431   0.003  14.107   1.500
87512SOL     OW64432  13.615   1.001   7.157
87512SOL    HW164433  13.620   0.940   7.230
87512SOL    HW264434  13.606   0.945   7.080
87513SOL     OW64435   0.027   9.330   1.978
87513SOL    HW164436   0.082   9.402   1.946
87513SOL    HW264437  14.829   9.323   1.913
87514SOL     OW64438   1.701   5.994   2.316
87514SOL    HW164439   1.752   6.015   2.237
87514SOL    HW264440   1.654   6.075   2.336
87515SOL     OW64441   4.996   7.616   5.823
87515SOL    HW164442   4.931   7.685   5.809
87515SOL    HW264443   5.079   7.662   5.830
87516SOL     OW64444   6.323   2.311   4.915
87516SOL    HW164445   6.273   2.267   4.846
87516SOL    HW264446   6.411   2.320   4.878
87517SOL     OW64447   1.258   4.819   1.120
87517SOL    HW164448   1.327   4.839   1.183
87517SOL    HW264449   1.294   4.747   1.067
87518SOL     OW64450   0.388   0.202   7.562
87518SOL    HW164451   0.297   0.175   7.547
87518SOL    HW264452   0.437   0.163   7.490
87519SOL     OW64453   6.798   3.808   2.178
87519SOL    HW164454   6.743   3.730   2.176
87519SOL    HW264455   6.843   3.809   2.093
87520SOL     OW64456   3.359   1.227   4.044
87520SOL    HW164457   3.446   1.265   4.054
87520SOL    HW264458   3.374   1.132   4.041
87521SOL     OW64459   2.417  10.923   4.841
87521SOL    HW164460   2.344  10.975   4.875
87521SOL    HW264461   2.465  10.982   4.783
87522SOL     OW64462   1.564   8.597   6.027
87522SOL    HW164463   1.611   8.663   6.079
87522SOL    HW264464   1.632   8.535   6.001
87523SOL     OW64465   8.979   2.564  11.130
87523SOL    HW164466   9.013   2.517  11.054
87523SOL    HW264467   8.953   2.649  11.096
87524SOL     OW64468   2.261  11.190  11.552
87524SOL    HW164469   2.251  11.097  11.569
87524SOL    HW264470   2.181  11.230  11.585
87525SOL     OW64471   1.246   8.377   7.425
87525SOL    HW164472   1.246   8.424   7.509
87525SOL    HW264473   1.168   8.410   7.380
87526SOL     OW64474   2.250  12.342   0.292
87526SOL    HW164475   2.345  12.353   0.289
87526SOL    HW264476   2.218  12.423   0.334
87527SOL     OW64477   7.952   7.556   1.575
87527SOL    HW164478   7.887   7.528   1.511
87527SOL    HW264479   8.033   7.565   1.525
87528SOL     OW64480   4.745  10.501   6.235
87528SOL    HW164481   4.722  10.456   6.317
87528SOL    HW264482   4.827  10.546   6.255
87529SOL     OW64483   2.123   3.529   5.992
87529SOL    HW164484   2.137   3.616   6.030
87529SOL    HW264485   2.175   3.529   5.911
87530SOL     OW64486   6.735   3.320   8.094
87530SOL    HW164487   6.750   3.266   8.171
87530SOL    HW264488   6.677   3.390   8.124
87531SOL     OW64489  13.816  11.315  13.435
87531SOL    HW164490  13.892  11.373  13.439
87531SOL    HW264491  13.743  11.371  13.461
87532SOL     OW64492   9.310   0.533  12.959
87532SOL    HW164493   9.287   0.462  12.899
87532SOL    HW264494   9.296   0.613  12.908
87533SOL     OW64495  14.389  12.998   1.445
87533SOL    HW164496  14.352  12.919   1.405
87533SOL    HW264497  14.467  13.017   1.392
87534SOL     OW64498   9.191   0.671   3.771
87534SOL    HW164499   9.176   0.684   3.678
87534SOL    HW264500   9.155   0.585   3.790
87535SOL     OW64501   2.130  14.149   8.430
87535SOL    HW164502   2.155  14.158   8.338
87535SOL    HW264503   2.186  14.078   8.463
87536SOL     OW64504   4.257   4.318  12.273
87536SOL    HW164505   4.208   4.245  12.235
87536SOL    HW264506   4.289   4.285  12.357
87537SOL     OW64507  13.480  13.685   5.022
87537SOL    HW164508  13.431  13.710   5.100
87537SOL    HW264509  13.538  13.615   5.051
87538SOL     OW64510   3.685   8.771   5.394
87538SOL    HW164511   3.725   8.689   5.362
87538SOL    HW264512   3.712   8.777   5.485
87539SOL     OW64513   1.668   7.885  13.985
87539SOL    HW164514   1.752   7.866  14.028
87539SOL    HW264515   1.615   7.807  13.999
87540SOL     OW64516   7.309   0.905   8.479
87540SOL    HW164517   7.259   0.877   8.555
87540SOL    HW264518   7.337   0.823   8.437
87541SOL     OW64519   6.237   1.055   1.422
87541SOL    HW164520   6.228   1.096   1.508
87541SOL    HW264521   6.155   1.075   1.378
87542SOL     OW64522   3.003   6.888   3.316
87542SOL    HW164523   2.941   6.857   3.383
87542SOL    HW264524   2.948   6.911   3.241
87543SOL     OW64525   4.628   2.670   6.130
87543SOL    HW164526   4.681   2.667   6.050
87543SOL    HW264527   4.623   2.579   6.160
87544SOL     OW64528  13.807   5.984   7.673
87544SOL    HW164529  13.899   6.010   7.665
87544SOL    HW264530  13.810   5.890   7.692
87545SOL     OW64531  12.301   9.271  10.918
87545SOL    HW164532  12.378   9.297  10.868
87545SOL    HW264533  12.336   9.221  10.992
87546SOL     OW64534  11.848   4.454   5.914
87546SOL    HW164535  11.785   4.457   5.986
87546SOL    HW264536  11.894   4.537   5.919
87547SOL     OW64537   8.499   3.157  14.296
87547SOL    HW164538   8.422   3.113  14.260
87547SOL    HW264539   8.463   3.226  14.351
87548SOL     OW64540   3.611   6.792   7.529
87548SOL    HW164541   3.557   6.861   7.568
87548SOL    HW264542   3.651   6.834   7.453
87549SOL     OW64543   7.761  12.903   6.661
87549SOL    HW164544   7.772  12.812   6.631
87549SOL    HW264545   7.685  12.934   6.613
87550SOL     OW64546  10.071  13.103   9.101
87550SOL    HW164547  10.000  13.096   9.166
87550SOL    HW264548  10.130  13.168   9.138
87551SOL     OW64549   6.177   3.805  10.708
87551SOL    HW164550   6.143   3.894  10.708
87551SOL    HW264551   6.105   3.752  10.742
87552SOL     OW64552   7.367   7.283   4.849
87552SOL    HW164553   7.393   7.191   4.853
87552SOL    HW264554   7.288   7.288   4.902
87553SOL     OW64555  14.802   8.231   3.406
87553SOL    HW164556  14.860   8.163   3.440
87553SOL    HW264557  14.854   8.277   3.341
87554SOL     OW64558  12.693   0.339   6.960
87554SOL    HW164559  12.734   0.394   7.027
87554SOL    HW264560  12.605   0.321   6.995
87555SOL     OW64561   3.220   9.367   2.096
87555SOL    HW164562   3.230   9.340   2.188
87555SOL    HW264563   3.276   9.307   2.047
87556SOL     OW64564   9.618  11.911   2.677
87556SOL    HW164565   9.582  11.968   2.609
87556SOL    HW264566   9.542  11.867   2.714
87557SOL     OW64567   9.595   0.395   6.945
87557SOL    HW164568   9.650   0.321   6.920
87557SOL    HW264569   9.650   0.472   6.931
87558SOL     OW64570   5.214  10.351  10.692
87558SOL    HW164571   5.159  10.359  10.770
87558SOL    HW264572   5.185  10.422  10.635
87559SOL     OW64573   3.120   5.157   8.681
87559SOL    HW164574   3.066   5.236   8.684
87559SOL    HW264575   3.166   5.155   8.765
87560SOL     OW64576   6.052  12.928  11.012
87560SOL    HW164577   6.096  13.001  10.969
87560SOL    HW264578   6.029  12.962  11.099
87561SOL     OW64579   2.679  12.647   7.377
87561SOL    HW164580   2.646  12.607   7.297
87561SOL    HW264581   2.713  12.574   7.428
87562SOL     OW64582  10.721   8.523   1.328
87562SOL    HW164583  10.734   8.585   1.255
87562SOL    HW264584  10.634   8.543   1.361
87563SOL     OW64585   5.037  14.430  14.562
87563SOL    HW164586   4.987  14.494  14.511
87563SOL    HW264587   4.977  14.401  14.631
87564SOL     OW64588   8.157  10.596  14.167
87564SOL    HW164589   8.099  10.667  14.194
87564SOL    HW264590   8.133  10.578  14.076
87565SOL     OW64591  13.568  13.774  11.033
87565SOL    HW164592  13.619  13.774  10.952
87565SOL    HW264593  13.626  13.732  11.097
87566SOL     OW64594   2.755   4.565   9.850
87566SOL    HW164595   2.799   4.484   9.826
87566SOL    HW264596   2.750   4.563   9.945
87567SOL     OW64597   6.137   9.228   0.096
87567SOL    HW164598   6.081   9.201   0.024
87567SOL    HW264599   6.137   9.323   0.093
87568SOL     OW64600   6.961  10.579  13.081
87568SOL    HW164601   6.905  10.589  13.004
87568SOL    HW264602   6.900  10.559  13.152
87569SOL     OW64603   3.054  11.192   6.532
87569SOL    HW164604   3.085  11.157   6.616
87569SOL    HW264605   3.097  11.277   6.525
87570SOL     OW64606  13.468   0.419   4.970
87570SOL    HW164607  13.373   0.427   4.960
87570SOL    HW264608  13.485   0.325   4.968
87571SOL     OW64609   2.421  10.091  10.824
87571SOL    HW164610   2.432  10.058  10.735
87571SOL    HW264611   2.372  10.173  10.813
87572SOL     OW64612   2.042  10.412   0.429
87572SOL    HW164613   2.021  10.501   0.401
87572SOL    HW264614   2.126  10.393   0.388
87573SOL     OW64615  14.183  14.551   3.345
87573SOL    HW164616  14.088  14.558   3.357
87573SOL    HW264617  14.197  14.459   3.320
87574SOL     OW64618   4.749   7.149  13.473
87574SOL    HW164619   4.737   7.124  13.382
87574SOL    HW264620   4.844   7.155  13.484
87575SOL     OW64621  14.608   0.396   2.797
87575SOL    HW164622  14.689   0.384   2.749
87575SOL    HW264623  14.635   0.406   2.888
87576SOL     OW64624   2.187  14.639   2.422
87576SOL    HW164625   2.171  14.641   2.516
87576SOL    HW264626   2.159  14.552   2.394
87577SOL     OW64627   7.060   2.456   6.398
87577SOL    HW164628   7.145   2.418   6.420
87577SOL    HW264629   7.063   2.469   6.303
87578SOL     OW64630   4.394  12.434   4.681
87578SOL    HW164631   4.389  12.511   4.625
87578SOL    HW264632   4.439  12.368   4.628
87579SOL     OW64633  12.372   0.321   2.372
87579SOL    HW164634  12.303   0.381   2.401
87579SOL    HW264635  12.332   0.235   2.373
87580SOL     OW64636  10.561  13.844   9.946
87580SOL    HW164637  10.472  13.816   9.925
87580SOL    HW264638  10.615  13.768   9.923
87581SOL     OW64639   0.894   9.321   0.207
87581SOL    HW164640   0.873   9.231   0.186
87581SOL    HW264641   0.898   9.366   0.122
87582SOL     OW64642   5.187   5.037   1.348
87582SOL    HW164643   5.156   4.978   1.279
87582SOL    HW264644   5.269   5.073   1.314
87583SOL     OW64645  13.500   1.084  14.771
87583SOL    HW164646  13.528   1.092  14.680
87583SOL    HW264647  13.502   0.990  14.789
87584SOL     OW64648   3.519  11.520  11.367
87584SOL    HW164649   3.548  11.554  11.283
87584SOL    HW264650   3.567  11.438  11.378
87585SOL     OW64651   9.232   0.925   2.422
87585SOL    HW164652   9.325   0.948   2.413
87585SOL    HW264653   9.189   1.008   2.441
87586SOL     OW64654   0.650  12.408   5.593
87586SOL    HW164655   0.628  12.323   5.632
87586SOL    HW264656   0.725  12.439   5.644
87587SOL     OW64657  13.623  13.589   1.465
87587SOL    HW164658  13.565  13.561   1.394
87587SOL    HW264659  13.631  13.512   1.522
87588SOL     OW64660  13.154   1.682   7.493
87588SOL    HW164661  13.244   1.668   7.463
87588SOL    HW264662  13.164   1.712   7.583
87589SOL     OW64663   5.426   9.689  11.788
87589SOL    HW164664   5.370   9.708  11.713
87589SOL    HW264665   5.382   9.732  11.862
87590SOL     OW64666  13.099   1.672   2.386
87590SOL    HW164667  13.194   1.666   2.385
87590SOL    HW264668  13.070   1.604   2.324
87591SOL     OW64669  10.053  10.650   3.090
87591SOL    HW164670   9.990  10.668   3.021
87591SOL    HW264671  10.001  10.636   3.168
87592SOL     OW64672   2.063  14.362  12.993
87592SOL    HW164673   2.137  14.340  12.937
87592SOL    HW264674   2.077  14.310  13.072
87593SOL     OW64675  11.938  11.893   2.712
87593SOL    HW164676  11.950  11.988   2.711
87593SOL    HW264677  11.946  11.867   2.620
87594SOL     OW64678  13.663   1.057   0.459
87594SOL    HW164679  13.641   1.149   0.473
87594SOL    HW264680  13.583   1.018   0.426
87595SOL     OW64681   6.330  11.028  13.191
87595SOL    HW164682   6.329  11.018  13.286
87595SOL    HW264683   6.286  10.949  13.158
87596SOL     OW64684   1.610  13.668   8.844
87596SOL    HW164685   1.665  13.658   8.767
87596SOL    HW264686   1.526  13.630   8.819
87597SOL     OW64687  12.602   4.290  10.471
87597SOL    HW164688  12.627   4.218  10.413
87597SOL    HW264689  12.678   4.302  10.528
87598SOL     OW64690  12.712  14.504   0.308
87598SOL    HW164691  12.742  14.559   0.235
87598SOL    HW264692  12.681  14.566   0.374
87599SOL     OW64693   8.361   3.504  13.837
87599SOL    HW164694   8.291   3.563  13.865
87599SOL    HW264695   8.393   3.464  13.918
87600SOL     OW64696   6.644   5.849   8.290
87600SOL    HW164697   6.665   5.913   8.359
87600SOL    HW264698   6.553   5.868   8.267
87601SOL     OW64699   8.448   8.570   3.084
87601SOL    HW164700   8.394   8.495   3.061
87601SOL    HW264701   8.387   8.631   3.127
87602SOL     OW64702   6.937   6.681  11.282
87602SOL    HW164703   7.008   6.627  11.247
87602SOL    HW264704   6.873   6.618  11.314
87603SOL     OW64705   9.070   2.464   3.743
87603SOL    HW164706   9.034   2.552   3.754
87603SOL    HW264707   9.155   2.477   3.702
87604SOL     OW64708   8.975   1.406   6.362
87604SOL    HW164709   8.930   1.395   6.445
87604SOL    HW264710   8.925   1.351   6.301
87605SOL     OW64711   7.554   7.818   9.840
87605SOL    HW164712   7.611   7.741   9.838
87605SOL    HW264713   7.512   7.818   9.754
87606SOL     OW64714  13.625   1.731   6.909
87606SOL    HW164715  13.637   1.719   6.815
87606SOL    HW264716  13.662   1.818   6.926
87607SOL     OW64717   5.868   8.345  13.066
87607SOL    HW164718   5.808   8.273  13.085
87607SOL    HW264719   5.934   8.341  13.135
87608SOL     OW64720   7.879   1.453   6.903
87608SOL    HW164721   7.938   1.478   6.832
87608SOL    HW264722   7.906   1.365   6.927
87609SOL     OW64723   7.028   9.597   3.837
87609SOL    HW164724   6.956   9.657   3.817
87609SOL    HW264725   7.107   9.650   3.829
87610SOL     OW64726   4.686  12.857   0.914
87610SOL    HW164727   4.685  12.923   0.846
87610SOL    HW264728   4.606  12.874   0.965
87611SOL     OW64729  13.333   6.333   2.483
87611SOL    HW164730  13.257   6.297   2.437
87611SOL    HW264731  13.296   6.375   2.561
87612SOL     OW64732   7.759   7.873   6.016
87612SOL    HW164733   7.711   7.944   5.974
87612SOL    HW264734   7.800   7.914   6.093
87613SOL     OW64735   4.446   2.266  13.345
87613SOL    HW164736   4.442   2.173  13.369
87613SOL    HW264737   4.357   2.298  13.359
87614SOL     OW64738  11.451  10.877   1.122
87614SOL    HW164739  11.467  10.918   1.207
87614SOL    HW264740  11.407  10.945   1.071
87615SOL     OW64741   5.419   2.134  11.502
87615SOL    HW164742   5.442   2.217  11.545
87615SOL    HW264743   5.501   2.085  11.500
87616SOL     OW64744   0.403   8.013   7.070
87616SOL    HW164745   0.386   7.957   6.994
87616SOL    HW264746   0.349   8.090   7.055
87617SOL     OW64747   8.009   5.431   0.980
87617SOL    HW164748   7.967   5.508   0.940
87617SOL    HW264749   7.941   5.395   1.037
87618SOL     OW64750  11.447   1.784   1.308
87618SOL    HW164751  11.401   1.708   1.271
87618SOL    HW264752  11.459   1.762   1.400
87619SOL     OW64753  12.970  13.238   5.720
87619SOL    HW164754  12.885  13.273   5.691
87619SOL    HW264755  12.966  13.242   5.815
87620SOL     OW64756   3.735  11.817   1.778
87620SOL    HW164757   3.817  11.807   1.730
87620SOL    HW264758   3.695  11.896   1.742
87621SOL     OW64759   5.407   0.540   6.212
87621SOL    HW164760   5.380   0.603   6.144
87621SOL    HW264761   5.495   0.569   6.237
87622SOL     OW64762   6.796   8.078  12.751
87622SOL    HW164763   6.806   8.133  12.829
87622SOL    HW264764   6.741   8.130  12.692
87623SOL     OW64765  12.267   6.539   1.379
87623SOL    HW164766  12.244   6.532   1.472
87623SOL    HW264767  12.266   6.633   1.362
87624SOL     OW64768   9.353  14.446   8.367
87624SOL    HW164769   9.374  14.528   8.322
87624SOL    HW264770   9.409  14.445   8.445
87625SOL     OW64771   9.477   9.844   0.700
87625SOL    HW164772   9.388   9.815   0.682
87625SOL    HW264773   9.491   9.824   0.793
87626SOL     OW64774   3.953   1.462  14.386
87626SOL    HW164775   3.860   1.444  14.370
87626SOL    HW264776   3.999   1.393  14.337
87627SOL     OW64777   0.320  10.388   7.053
87627SOL    HW164778   0.266  10.379   7.132
87627SOL    HW264779   0.258  10.378   6.981
87628SOL     OW64780  12.017   9.219   8.465
87628SOL    HW164781  12.008   9.134   8.422
87628SOL    HW264782  11.930   9.236   8.502
87629SOL     OW64783   5.203   7.754   7.049
87629SOL    HW164784   5.125   7.807   7.062
87629SOL    HW264785   5.169   7.665   7.039
87630SOL     OW64786   1.161   0.368   4.649
87630SOL    HW164787   1.154   0.360   4.744
87630SOL    HW264788   1.098   0.436   4.625
87631SOL     OW64789   0.038   2.713   7.758
87631SOL    HW164790   0.053   2.790   7.703
87631SOL    HW264791   0.080   2.734   7.841
87632SOL     OW64792  13.764   0.960   5.337
87632SOL    HW164793  13.726   1.043   5.366
87632SOL    HW264794  13.691   0.898   5.340
87633SOL     OW64795   1.793   8.806   1.971
87633SOL    HW164796   1.837   8.775   1.892
87633SOL    HW264797   1.700   8.808   1.948
87634SOL     OW64798  12.706   4.135   7.515
87634SOL    HW164799  12.684   4.221   7.480
87634SOL    HW264800  12.653   4.128   7.595
87635SOL     OW64801   2.953   5.803   8.990
87635SOL    HW164802   3.002   5.885   8.994
87635SOL    HW264803   3.012   5.741   8.947
87636SOL     OW64804   4.511  11.447  13.524
87636SOL    HW164805   4.537  11.377  13.585
87636SOL    HW264806   4.582  11.450  13.460
87637SOL     OW64807   8.754   4.287  10.695
87637SOL    HW164808   8.750   4.277  10.790
87637SOL    HW264809   8.847   4.294  10.675
87638SOL     OW64810   3.303   5.276   9.258
87638SOL    HW164811   3.220   5.306   9.296
87638SOL    HW264812   3.314   5.329   9.179
87639SOL     OW64813   4.451  12.753   2.563
87639SOL    HW164814   4.512  12.766   2.491
87639SOL    HW264815   4.418  12.840   2.584
87640SOL     OW64816   3.895   7.624  11.558
87640SOL    HW164817   3.845   7.612  11.639
87640SOL    HW264818   3.889   7.539  11.514
87641SOL     OW64819   2.347   6.753  11.627
87641SOL    HW164820   2.322   6.826  11.571
87641SOL    HW264821   2.418   6.788  11.682
87642SOL     OW64822   1.477   2.295   2.632
87642SOL    HW164823   1.414   2.357   2.671
87642SOL    HW264824   1.428   2.254   2.561
87643SOL     OW64825   0.259   0.338   0.658
87643SOL    HW164826   0.257   0.425   0.616
87643SOL    HW264827   0.177   0.334   0.707
87644SOL     OW64828   6.597   7.650  10.158
87644SOL    HW164829   6.657   7.713  10.196
87644SOL    HW264830   6.577   7.685  10.071
87645SOL     OW64831   7.635   4.077  11.877
87645SOL    HW164832   7.657   4.107  11.965
87645SOL    HW264833   7.541   4.056  11.882
87646SOL     OW64834   3.703  13.403   8.362
87646SOL    HW164835   3.750  13.360   8.433
87646SOL    HW264836   3.720  13.497   8.375
87647SOL     OW64837  10.020  13.478   7.143
87647SOL    HW164838   9.943  13.420   7.144
87647SOL    HW264839  10.058  13.465   7.056
87648SOL     OW64840   9.703  13.171  12.867
87648SOL    HW164841   9.649  13.101  12.830
87648SOL    HW264842   9.641  13.228  12.913
87649SOL     OW64843   9.534   0.723   4.510
87649SOL    HW164844   9.580   0.698   4.590
87649SOL    HW264845   9.565   0.662   4.444
87650SOL     OW64846   8.754   4.851   1.160
87650SOL    HW164847   8.721   4.830   1.247
87650SOL    HW264848   8.739   4.945   1.150
87651SOL     OW64849   7.121   3.893   4.046
87651SOL    HW164850   7.169   3.895   3.964
87651SOL    HW264851   7.167   3.956   4.102
87652SOL     OW64852   7.451   7.685  11.853
87652SOL    HW164853   7.445   7.661  11.945
87652SOL    HW264854   7.362   7.676  11.820
87653SOL     OW64855   2.114   9.938   0.897
87653SOL    HW164856   2.177   9.923   0.967
87653SOL    HW264857   2.062   9.858   0.894
87654SOL     OW64858  10.813   4.094   0.179
87654SOL    HW164859  10.794   4.093   0.273
87654SOL    HW264860  10.729   4.074   0.138
87655SOL     OW64861   0.076   0.698   3.402
87655SOL    HW164862   0.111   0.644   3.473
87655SOL    HW264863   0.147   0.759   3.381
87656SOL     OW64864   3.388  14.692   3.463
87656SOL    HW164865   3.411  14.784   3.477
87656SOL    HW264866   3.437  14.644   3.531
87657SOL     OW64867   7.811   1.154  13.293
87657SOL    HW164868   7.848   1.215  13.356
87657SOL    HW264869   7.814   1.069  13.338
87658SOL     OW64870   3.188   2.556   0.337
87658SOL    HW164871   3.272   2.543   0.292
87658SOL    HW264872   3.122   2.542   0.270
87659SOL     OW64873   9.198   8.442   0.108
87659SOL    HW164874   9.145   8.517   0.082
87659SOL    HW264875   9.134   8.377   0.138
87660SOL     OW64876   9.964   4.150  13.906
87660SOL    HW164877  10.047   4.193  13.887
87660SOL    HW264878   9.976   4.109  13.992
87661SOL     OW64879  12.506   9.096  13.069
87661SOL    HW164880  12.483   9.187  13.050
87661SOL    HW264881  12.597   9.088  13.041
87662SOL     OW64882   2.109   7.314   1.853
87662SOL    HW164883   2.095   7.260   1.931
87662SOL    HW264884   2.176   7.377   1.879
87663SOL     OW64885   7.787   8.100  10.667
87663SOL    HW164886   7.835   8.167  10.715
87663SOL    HW264887   7.716   8.147  10.623
87664SOL     OW64888  10.420   0.300   6.641
87664SOL    HW164889  10.339   0.287   6.691
87664SOL    HW264890  10.475   0.352   6.698
87665SOL     OW64891   7.358   7.941   7.122
87665SOL    HW164892   7.418   7.873   7.092
87665SOL    HW264893   7.345   7.998   7.046
87666SOL     OW64894   6.986  10.523   9.251
87666SOL    HW164895   7.046  10.462   9.295
87666SOL    HW264896   6.933  10.560   9.322
87667SOL     OW64897   6.677  14.269   7.714
87667SOL    HW164898   6.734  14.322   7.770
87667SOL    HW264899   6.687  14.180   7.747
87668SOL     OW64900   0.408  11.233  10.585
87668SOL    HW164901   0.492  11.278  10.582
87668SOL    HW264902   0.395  11.211  10.677
87669SOL     OW64903   7.164   7.419   4.181
87669SOL    HW164904   7.182   7.464   4.099
87669SOL    HW264905   7.163   7.326   4.158
87670SOL     OW64906  12.571   2.115   4.988
87670SOL    HW164907  12.619   2.044   5.031
87670SOL    HW264908  12.589   2.103   4.895
87671SOL     OW64909   4.271   4.076  12.111
87671SOL    HW164910   4.298   4.132  12.038
87671SOL    HW264911   4.352   4.051  12.154
87672SOL     OW64912   7.176   1.966  13.849
87672SOL    HW164913   7.194   2.051  13.889
87672SOL    HW264914   7.083   1.969  13.827
87673SOL     OW64915   0.143   8.314   7.943
87673SOL    HW164916   0.228   8.324   7.986
87673SOL    HW264917   0.093   8.257   8.001
87674SOL     OW64918   7.546  11.528   9.676
87674SOL    HW164919   7.520  11.556   9.764
87674SOL    HW264920   7.642  11.525   9.679
87675SOL     OW64921  12.966  11.358  10.284
87675SOL    HW164922  12.975  11.394  10.196
87675SOL    HW264923  12.969  11.434  10.342
87676SOL     OW64924   7.343   1.073   8.891
87676SOL    HW164925   7.349   1.166   8.913
87676SOL    HW264926   7.414   1.032   8.942
87677SOL     OW64927   1.743   0.383   3.783
87677SOL    HW164928   1.668   0.433   3.813
87677SOL    HW264929   1.737   0.386   3.687
87678SOL     OW64930   8.350   2.321  14.845
87678SOL    HW164931   8.409   2.340   0.047
87678SOL    HW264932   8.393   2.250  14.798
87679SOL     OW64933  14.533  13.394   6.810
87679SOL    HW164934  14.493  13.393   6.724
87679SOL    HW264935  14.460  13.402   6.871
87680SOL     OW64936   7.292   4.408   1.015
87680SOL    HW164937   7.267   4.324   0.977
87680SOL    HW264938   7.336   4.455   0.944
87681SOL     OW64939  14.777  13.158  10.230
87681SOL    HW164940  14.852  13.128  10.179
87681SOL    HW264941  14.797  13.250  10.250
87682SOL     OW64942   5.211   6.738  13.157
87682SOL    HW164943   5.235   6.798  13.087
87682SOL    HW264944   5.293   6.717  13.201
87683SOL     OW64945   4.054   0.227   6.321
87683SOL    HW164946   3.984   0.267   6.270
87683SOL    HW264947   4.024   0.138   6.339
87684SOL     OW64948   6.995   2.764   4.528
87684SOL    HW164949   7.062   2.696   4.522
87684SOL    HW264950   6.933   2.743   4.458
87685SOL     OW64951   2.388  10.634   1.208
87685SOL    HW164952   2.415  10.666   1.121
87685SOL    HW264953   2.382  10.713   1.261
87686SOL     OW64954   4.250   1.342  13.685
87686SOL    HW164955   4.280   1.254  13.707
87686SOL    HW264956   4.216   1.334  13.596
87687SOL     OW64957  11.909  12.815  13.568
87687SOL    HW164958  11.996  12.828  13.528
87687SOL    HW264959  11.848  12.821  13.494
87688SOL     OW64960  10.102  12.538   9.863
87688SOL    HW164961  10.128  12.544   9.955
87688SOL    HW264962  10.098  12.444   9.845
87689SOL     OW64963   3.134  11.413   1.032
87689SOL    HW164964   3.113  11.489   0.977
87689SOL    HW264965   3.157  11.451   1.117
87690SOL     OW64966  11.733  11.597  13.114
87690SOL    HW164967  11.789  11.638  13.048
87690SOL    HW264968  11.677  11.668  13.146
87691SOL     OW64969   9.185   7.138   5.925
87691SOL    HW164970   9.265   7.137   5.872
87691SOL    HW264971   9.207   7.090   6.004
87692SOL     OW64972   9.970   4.139   9.469
87692SOL    HW164973   9.900   4.077   9.487
87692SOL    HW264974  10.031   4.091   9.412
87693SOL     OW64975  10.314   0.326   8.067
87693SOL    HW164976  10.298   0.371   7.984
87693SOL    HW264977  10.373   0.384   8.114
87694SOL     OW64978   7.627   8.607  12.157
87694SOL    HW164979   7.671   8.688  12.184
87694SOL    HW264980   7.676   8.538  12.202
87695SOL     OW64981  13.512  11.710   6.600
87695SOL    HW164982  13.489  11.617   6.608
87695SOL    HW264983  13.584  11.722   6.662
87696SOL     OW64984   4.630  11.746   8.742
87696SOL    HW164985   4.562  11.812   8.754
87696SOL    HW264986   4.700  11.771   8.802
87697SOL     OW64987  14.539   3.119   0.547
87697SOL    HW164988  14.600   3.078   0.486
87697SOL    HW264989  14.541   3.212   0.524
87698SOL     OW64990  13.895   1.055   6.602
87698SOL    HW164991  13.952   1.035   6.677
87698SOL    HW264992  13.849   1.135   6.629
87699SOL     OW64993   2.718   1.816   9.867
87699SOL    HW164994   2.757   1.736   9.903
87699SOL    HW264995   2.646   1.785   9.813
87700SOL     OW64996  12.772  11.921   7.757
87700SOL    HW164997  12.819  11.838   7.766
87700SOL    HW264998  12.690  11.898   7.714
87701SOL     OW64999  14.367   0.068  13.447
87701SOL    HW165000  14.333   0.147  13.405
87701SOL    HW265001  14.417   0.101  13.522
87702SOL     OW65002   6.929   4.947  13.748
87702SOL    HW165003   7.009   4.902  13.774
87702SOL    HW265004   6.911   5.007  13.821
87703SOL     OW65005   0.465   3.380   3.728
87703SOL    HW165006   0.516   3.448   3.773
87703SOL    HW265007   0.438   3.421   3.646
87704SOL     OW65008   0.975  13.002   4.100
87704SOL    HW165009   0.920  13.069   4.141
87704SOL    HW265010   1.046  13.051   4.058
87705SOL     OW65011   3.524  11.003  13.457
87705SOL    HW165012   3.509  10.961  13.373
87705SOL    HW265013   3.487  11.091  13.447
87706SOL     OW65014   9.081   5.447  11.547
87706SOL    HW165015   9.047   5.389  11.615
87706SOL    HW265016   9.170   5.414  11.531
87707SOL     OW65017   0.340  10.334  11.148
87707SOL    HW165018   0.343  10.315  11.242
87707SOL    HW265019   0.321  10.428  11.143
87708SOL     OW65020  13.517   9.629   5.435
87708SOL    HW165021  13.496   9.718   5.407
87708SOL    HW265022  13.469   9.572   5.375
87709SOL     OW65023  10.363   9.512   3.849
87709SOL    HW165024  10.427   9.524   3.779
87709SOL    HW265025  10.279   9.512   3.805
87710SOL     OW65026   4.470  13.882   7.170
87710SOL    HW165027   4.449  13.965   7.127
87710SOL    HW265028   4.453  13.816   7.103
87711SOL     OW65029   1.689   6.443   9.932
87711SOL    HW165030   1.715   6.520   9.881
87711SOL    HW265031   1.670   6.376   9.867
87712SOL     OW65032  13.297   7.685  13.189
87712SOL    HW165033  13.255   7.648  13.267
87712SOL    HW265034  13.289   7.617  13.123
87713SOL     OW65035   7.496  11.259   1.815
87713SOL    HW165036   7.530  11.269   1.727
87713SOL    HW265037   7.574  11.242   1.869
87714SOL     OW65038   1.890   9.430   0.024
87714SOL    HW165039   1.806   9.384   0.020
87714SOL    HW265040   1.907   9.457  14.805
87715SOL     OW65041   5.989   6.027   1.397
87715SOL    HW165042   5.896   6.028   1.373
87715SOL    HW265043   5.992   6.067   1.484
87716SOL     OW65044  13.683   0.210  10.281
87716SOL    HW165045  13.605   0.167  10.317
87716SOL    HW265046  13.705   0.277  10.345
87717SOL     OW65047   9.478   4.402   0.856
87717SOL    HW165048   9.443   4.327   0.809
87717SOL    HW265049   9.416   4.417   0.928
87718SOL     OW65050   9.747  12.989   1.907
87718SOL    HW165051   9.759  13.069   1.856
87718SOL    HW265052   9.820  12.933   1.881
87719SOL     OW65053   0.537  14.405   8.857
87719SOL    HW165054   0.461  14.463   8.862
87719SOL    HW265055   0.605  14.449   8.908
87720SOL     OW65056   6.513   3.591   3.057
87720SOL    HW165057   6.521   3.657   2.988
87720SOL    HW265058   6.592   3.538   3.048
87721SOL     OW65059   2.976   9.991  13.299
87721SOL    HW165060   2.999   9.992  13.392
87721SOL    HW265061   2.881   9.995  13.297
87722SOL     OW65062   5.721   4.041   7.172
87722SOL    HW165063   5.639   4.069   7.213
87722SOL    HW265064   5.694   3.987   7.098
87723SOL     OW65065  11.953   4.962   6.859
87723SOL    HW165066  12.040   4.965   6.898
87723SOL    HW265067  11.900   4.912   6.921
87724SOL     OW65068   0.797   0.904  13.891
87724SOL    HW165069   0.722   0.851  13.919
87724SOL    HW265070   0.837   0.854  13.820
87725SOL     OW65071  14.594  10.908   6.664
87725SOL    HW165072  14.585  10.966   6.589
87725SOL    HW265073  14.686  10.916   6.690
87726SOL     OW65074  11.114   4.504  11.292
87726SOL    HW165075  11.084   4.547  11.372
87726SOL    HW265076  11.209   4.498  11.303
87727SOL     OW65077  10.531   5.519  11.201
87727SOL    HW165078  10.436   5.534  11.195
87727SOL    HW265079  10.560   5.578  11.271
87728SOL     OW65080   6.376   2.246   2.902
87728SOL    HW165081   6.437   2.216   2.969
87728SOL    HW265082   6.348   2.333   2.931
87729SOL     OW65083   1.281  13.111   9.809
87729SOL    HW165084   1.210  13.101   9.746
87729SOL    HW265085   1.264  13.197   9.850
87730SOL     OW65086   6.823   4.820  11.788
87730SOL    HW165087   6.773   4.902  11.788
87730SOL    HW265088   6.791   4.773  11.711
87731SOL     OW65089   6.702  10.391   2.488
87731SOL    HW165090   6.750  10.466   2.454
87731SOL    HW265091   6.611  10.419   2.487
87732SOL     OW65092   0.847   4.905   5.893
87732SOL    HW165093   0.924   4.904   5.950
87732SOL    HW265094   0.791   4.974   5.930
87733SOL     OW65095  12.495   5.672  12.049
87733SOL    HW165096  12.504   5.579  12.069
87733SOL    HW265097  12.466   5.674  11.957
87734SOL     OW65098   9.321  10.561  10.399
87734SOL    HW165099   9.357  10.638  10.354
87734SOL    HW265100   9.347  10.573  10.490
87735SOL     OW65101   2.601   1.961  13.139
87735SOL    HW165102   2.574   2.050  13.118
87735SOL    HW265103   2.696   1.965  13.147
87736SOL     OW65104   8.207  13.251   3.819
87736SOL    HW165105   8.223  13.281   3.730
87736SOL    HW265106   8.129  13.299   3.847
87737SOL     OW65107  10.736   6.514   6.731
87737SOL    HW165108  10.761   6.433   6.775
87737SOL    HW265109  10.819   6.554   6.706
87738SOL     OW65110   5.556   5.789   1.103
87738SOL    HW165111   5.491   5.845   1.144
87738SOL    HW265112   5.508   5.711   1.077
87739SOL     OW65113   6.586   8.716   8.440
87739SOL    HW165114   6.626   8.728   8.526
87739SOL    HW265115   6.565   8.623   8.436
87740SOL     OW65116   3.966   1.855   2.311
87740SOL    HW165117   4.055   1.864   2.345
87740SOL    HW265118   3.948   1.937   2.266
87741SOL     OW65119   2.827   6.933  13.505
87741SOL    HW165120   2.763   6.862  13.517
87741SOL    HW265121   2.801   6.999  13.570
87742SOL     OW65122   0.664   6.359   2.443
87742SOL    HW165123   0.740   6.413   2.464
87742SOL    HW265124   0.675   6.281   2.498
87743SOL     OW65125   0.951   7.237   1.699
87743SOL    HW165126   0.908   7.181   1.763
87743SOL    HW265127   0.881   7.296   1.668
87744SOL     OW65128   8.309  14.580  10.703
87744SOL    HW165129   8.253  14.585  10.626
87744SOL    HW265130   8.369  14.654  10.694
87745SOL     OW65131  12.469   3.241   1.447
87745SOL    HW165132  12.479   3.294   1.527
87745SOL    HW265133  12.555   3.244   1.406
87746SOL     OW65134   7.785  10.136   3.349
87746SOL    HW165135   7.800  10.154   3.442
87746SOL    HW265136   7.871  10.113   3.315
87747SOL     OW65137   0.557   7.186  11.130
87747SOL    HW165138   0.510   7.178  11.047
87747SOL    HW265139   0.581   7.279  11.134
87748SOL     OW65140  14.081  13.708  12.803
87748SOL    HW165141  14.035  13.786  12.833
87748SOL    HW265142  14.078  13.648  12.877
87749SOL     OW65143   9.685  13.877   8.192
87749SOL    HW165144   9.761  13.877   8.249
87749SOL    HW265145   9.611  13.860   8.251
87750SOL     OW65146   6.615   7.053   1.625
87750SOL    HW165147   6.665   7.019   1.551
87750SOL    HW265148   6.567   6.977   1.658
87751SOL     OW65149   4.656   5.826   6.453
87751SOL    HW165150   4.676   5.811   6.361
87751SOL    HW265151   4.684   5.917   6.469
87752SOL     OW65152   6.758  10.278   7.834
87752SOL    HW165153   6.765  10.253   7.742
87752SOL    HW265154   6.673  10.321   7.841
87753SOL     OW65155   9.590   0.006  12.494
87753SOL    HW165156   9.624   0.027  12.407
87753SOL    HW265157   9.570   0.090  12.534
87754SOL     OW65158   4.058  11.235   7.614
87754SOL    HW165159   4.068  11.302   7.682
87754SOL    HW265160   4.091  11.155   7.654
87755SOL     OW65161  11.808   9.836   2.929
87755SOL    HW165162  11.725   9.788   2.933
87755SOL    HW265163  11.782   9.928   2.920
87756SOL     OW65164   8.005  13.701  11.504
87756SOL    HW165165   7.970  13.766  11.444
87756SOL    HW265166   7.984  13.735  11.591
87757SOL     OW65167   7.010  10.476   8.654
87757SOL    HW165168   7.021  10.568   8.630
87757SOL    HW265169   6.946  10.442   8.591
87758SOL     OW65170   7.006   0.815   1.557
87758SOL    HW165171   7.007   0.739   1.616
87758SOL    HW265172   6.918   0.851   1.566
87759SOL     OW65173  14.326   5.853   5.445
87759SOL    HW165174  14.331   5.856   5.349
87759SOL    HW265175  14.270   5.927   5.468
87760SOL     OW65176   4.501   9.399   1.979
87760SOL    HW165177   4.422   9.402   2.034
87760SOL    HW265178   4.572   9.386   2.041
87761SOL     OW65179   0.849  12.497   5.762
87761SOL    HW165180   0.881  12.587   5.772
87761SOL    HW265181   0.834  12.466   5.851
87762SOL     OW65182   1.155   1.852   1.597
87762SOL    HW165183   1.097   1.869   1.672
87762SOL    HW265184   1.102   1.800   1.537
87763SOL     OW65185   1.596  14.596   0.973
87763SOL    HW165186   1.604  14.508   0.937
87763SOL    HW265187   1.580  14.652   0.896
87764SOL     OW65188  10.840  14.214  12.883
87764SOL    HW165189  10.843  14.136  12.938
87764SOL    HW265190  10.925  14.256  12.897
87765SOL     OW65191   1.339   1.057   3.609
87765SOL    HW165192   1.259   1.103   3.582
87765SOL    HW265193   1.375   1.022   3.527
87766SOL     OW65194   5.331  10.661  12.466
87766SOL    HW165195   5.333  10.640  12.373
87766SOL    HW265196   5.423  10.664  12.493
87767SOL     OW65197  14.282   5.978   6.012
87767SOL    HW165198  14.241   5.904   6.058
87767SOL    HW265199  14.355   5.939   5.964
87768SOL     OW65200  10.695  14.177   2.390
87768SOL    HW165201  10.670  14.227   2.312
87768SOL    HW265202  10.686  14.238   2.462
87769SOL     OW65203  13.491   4.850  13.558
87769SOL    HW165204  13.507   4.874  13.467
87769SOL    HW265205  13.572   4.809  13.587
87770SOL     OW65206  10.833   5.462  12.033
87770SOL    HW165207  10.797   5.510  11.958
87770SOL    HW265208  10.888   5.395  11.993
87771SOL     OW65209   8.830   9.269  11.837
87771SOL    HW165210   8.900   9.248  11.899
87771SOL    HW265211   8.835   9.364  11.827
87772SOL     OW65212   6.537   7.785   9.928
87772SOL    HW165213   6.548   7.719   9.859
87772SOL    HW265214   6.609   7.847   9.913
87773SOL     OW65215   0.293   0.220   3.183
87773SOL    HW165216   0.278   0.126   3.185
87773SOL    HW265217   0.249   0.253   3.262
87774SOL     OW65218   4.527   0.899   8.645
87774SOL    HW165219   4.489   0.835   8.585
87774SOL    HW265220   4.516   0.983   8.600
87775SOL     OW65221   0.320   2.357   4.398
87775SOL    HW165222   0.328   2.303   4.477
87775SOL    HW265223   0.227   2.376   4.391
87776SOL     OW65224  13.027  11.337  11.130
87776SOL    HW165225  13.121  11.332  11.115
87776SOL    HW265226  13.016  11.404  11.197
87777SOL     OW65227  11.028   2.575   6.010
87777SOL    HW165228  11.094   2.526   6.058
87777SOL    HW265229  10.945   2.542   6.043
87778SOL     OW65230   1.772  13.662   8.600
87778SOL    HW165231   1.812  13.746   8.576
87778SOL    HW265232   1.846  13.607   8.626
87779SOL     OW65233   2.975   0.145   0.941
87779SOL    HW165234   3.030   0.070   0.963
87779SOL    HW265235   2.990   0.207   1.012
87780SOL     OW65236   1.600   8.212   5.237
87780SOL    HW165237   1.676   8.256   5.198
87780SOL    HW265238   1.584   8.260   5.318
87781SOL     OW65239   0.337   0.360   6.053
87781SOL    HW165240   0.277   0.391   5.985
87781SOL    HW265241   0.344   0.266   6.037
87782SOL     OW65242   8.321  11.772  14.114
87782SOL    HW165243   8.356  11.850  14.072
87782SOL    HW265244   8.317  11.794  14.207
87783SOL     OW65245   6.055  14.754  12.933
87783SOL    HW165246   6.147  14.759  12.907
87783SOL    HW265247   6.017  14.691  12.872
87784SOL     OW65248   7.796   7.449   8.074
87784SOL    HW165249   7.817   7.356   8.065
87784SOL    HW265250   7.879   7.491   8.098
87785SOL     OW65251   6.194   3.106   2.730
87785SOL    HW165252   6.189   3.125   2.636
87785SOL    HW265253   6.281   3.068   2.742
87786SOL     OW65254  14.851   3.104   8.179
87786SOL    HW165255  14.848   3.128   8.271
87786SOL    HW265256  14.829   3.011   8.178
87787SOL     OW65257  12.524  12.381  10.018
87787SOL    HW165258  12.570  12.297  10.005
87787SOL    HW265259  12.544  12.431   9.939
87788SOL     OW65260   0.832  14.721  14.709
87788SOL    HW165261   0.773  14.682  14.774
87788SOL    HW265262   0.906  14.753  14.760
87789SOL     OW65263   5.505  13.886   4.295
87789SOL    HW165264   5.440  13.956   4.300
87789SOL    HW265265   5.571  13.919   4.234
87790SOL     OW65266   8.198   5.856  12.542
87790SOL    HW165267   8.115   5.807  12.541
87790SOL    HW265268   8.221   5.862  12.634
87791SOL     OW65269  13.059  10.433   6.793
87791SOL    HW165270  13.080  10.456   6.702
87791SOL    HW265271  13.142  10.442   6.840
87792SOL     OW65272   1.183   0.824  12.500
87792SOL    HW165273   1.258   0.883  12.499
87792SOL    HW265274   1.213   0.749  12.551
87793SOL     OW65275  11.014   4.313   8.910
87793SOL    HW165276  10.994   4.228   8.872
87793SOL    HW265277  11.076   4.353   8.849
87794SOL     OW65278   9.930   3.155   6.981
87794SOL    HW165279   9.983   3.090   6.934
87794SOL    HW265280   9.990   3.230   6.993
87795SOL     OW65281   9.606   0.475   8.930
87795SOL    HW165282   9.603   0.541   8.860
87795SOL    HW265283   9.558   0.516   9.002
87796SOL     OW65284   3.996  11.614   6.131
87796SOL    HW165285   4.062  11.575   6.189
87796SOL    HW265286   3.929  11.546   6.123
87797SOL     OW65287   8.050   7.721   7.963
87797SOL    HW165288   8.117   7.668   7.919
87797SOL    HW265289   8.079   7.811   7.950
87798SOL     OW65290   0.567  12.107   0.076
87798SOL    HW165291   0.574  12.130  14.855
87798SOL    HW265292   0.531  12.186   0.117
87799SOL     OW65293  10.807   3.565   8.541
87799SOL    HW165294  10.743   3.553   8.612
87799SOL    HW265295  10.829   3.658   8.544
87800SOL     OW65296   5.689  13.337  14.413
87800SOL    HW165297   5.718  13.325  14.503
87800SOL    HW265298   5.725  13.422  14.387
87801SOL     OW65299  12.908  10.680   1.418
87801SOL    HW165300  12.904  10.621   1.493
87801SOL    HW265301  12.925  10.622   1.344
87802SOL     OW65302  13.061   4.877   8.552
87802SOL    HW165303  13.089   4.967   8.569
87802SOL    HW265304  12.974   4.871   8.593
87803SOL     OW65305   2.820   8.395   1.050
87803SOL    HW165306   2.776   8.431   0.973
87803SOL    HW265307   2.851   8.472   1.098
87804SOL     OW65308   8.058   6.504   1.113
87804SOL    HW165309   8.129   6.549   1.158
87804SOL    HW265310   8.100   6.434   1.063
87805SOL     OW65311  11.464  12.009  13.446
87805SOL    HW165312  11.424  12.078  13.499
87805SOL    HW265313  11.433  11.927  13.485
87806SOL     OW65314   3.040   1.881  11.221
87806SOL    HW165315   2.955   1.901  11.260
87806SOL    HW265316   3.020   1.857  11.131
87807SOL     OW65317   7.976  12.748  13.179
87807SOL    HW165318   7.955  12.726  13.088
87807SOL    HW265319   8.071  12.735  13.185
87808SOL     OW65320   2.319   3.584   6.865
87808SOL    HW165321   2.377   3.514   6.893
87808SOL    HW265322   2.370   3.633   6.801
87809SOL     OW65323   6.231   8.589   9.118
87809SOL    HW165324   6.203   8.498   9.116
87809SOL    HW265325   6.154   8.637   9.147
87810SOL     OW65326   6.469   4.187  13.019
87810SOL    HW165327   6.427   4.131  12.954
87810SOL    HW265328   6.533   4.129  13.062
87811SOL     OW65329  14.575  12.907   2.429
87811SOL    HW165330  14.576  12.817   2.397
87811SOL    HW265331  14.542  12.958   2.355
87812SOL     OW65332  12.995  10.137  14.256
87812SOL    HW165333  13.033  10.050  14.242
87812SOL    HW265334  12.902  10.120  14.273
87813SOL     OW65335   2.708   0.034   3.799
87813SOL    HW165336   2.670   0.122   3.792
87813SOL    HW265337   2.791   0.040   3.752
87814SOL     OW65338   8.724  14.475  11.403
87814SOL    HW165339   8.739  14.425  11.483
87814SOL    HW265340   8.754  14.563  11.424
87815SOL     OW65341   0.195   8.856  13.585
87815SOL    HW165342   0.238   8.892  13.508
87815SOL    HW265343   0.259   8.863  13.655
87816SOL     OW65344   0.669  10.110  13.277
87816SOL    HW165345   0.601  10.112  13.209
87816SOL    HW265346   0.714  10.027  13.263
87817SOL     OW65347  11.769  10.104   5.809
87817SOL    HW165348  11.695  10.083   5.752
87817SOL    HW265349  11.769  10.200   5.813
87818SOL     OW65350  10.425   6.769  11.126
87818SOL    HW165351  10.347   6.735  11.080
87818SOL    HW265352  10.442   6.706  11.195
87819SOL     OW65353   7.140   3.696   5.677
87819SOL    HW165354   7.103   3.650   5.753
87819SOL    HW265355   7.123   3.637   5.603
87820SOL     OW65356  13.106   8.237  10.033
87820SOL    HW165357  13.063   8.204  10.112
87820SOL    HW265358  13.199   8.232  10.054
87821SOL     OW65359   3.829  10.961  11.875
87821SOL    HW165360   3.812  11.039  11.822
87821SOL    HW265361   3.912  10.927  11.842
87822SOL     OW65362   0.069   2.293   4.713
87822SOL    HW165363   0.159   2.273   4.688
87822SOL    HW265364   0.060   2.257   4.801
87823SOL     OW65365  12.241  10.769   0.878
87823SOL    HW165366  12.266  10.860   0.865
87823SOL    HW265367  12.224  10.762   0.972
87824SOL     OW65368   9.998   7.063  10.400
87824SOL    HW165369   9.903   7.070  10.409
87824SOL    HW265370  10.016   7.095  10.312
87825SOL     OW65371  10.408  12.285   4.066
87825SOL    HW165372  10.410  12.199   4.024
87825SOL    HW265373  10.431  12.267   4.157
87826SOL     OW65374   5.110   2.880   3.024
87826SOL    HW165375   5.083   2.789   3.011
87826SOL    HW265376   5.204   2.880   3.002
87827SOL     OW65377  12.297   2.887  13.175
87827SOL    HW165378  12.234   2.944  13.219
87827SOL    HW265379  12.276   2.895  13.082
87828SOL     OW65380  14.334   2.980  10.167
87828SOL    HW165381  14.412   3.036  10.160
87828SOL    HW265382  14.302   2.994  10.256
87829SOL     OW65383  11.901   1.452  10.861
87829SOL    HW165384  11.807   1.467  10.846
87829SOL    HW265385  11.945   1.503  10.793
87830SOL     OW65386  13.950   3.753  11.774
87830SOL    HW165387  13.922   3.836  11.812
87830SOL    HW265388  13.883   3.731  11.710
87831SOL     OW65389   1.133   2.034   4.556
87831SOL    HW165390   1.178   2.053   4.638
87831SOL    HW265391   1.102   2.119   4.525
87832SOL     OW65392   1.187   2.577   4.806
87832SOL    HW165393   1.250   2.595   4.736
87832SOL    HW265394   1.214   2.635   4.877
87833SOL     OW65395  10.968   4.568   3.831
87833SOL    HW165396  11.018   4.549   3.910
87833SOL    HW265397  10.901   4.631   3.859
87834SOL     OW65398   5.952  10.438   5.340
87834SOL    HW165399   6.001  10.473   5.266
87834SOL    HW265400   5.864  10.422   5.305
87835SOL     OW65401  11.989   5.864   4.140
87835SOL    HW165402  11.951   5.791   4.091
87835SOL    HW265403  12.084   5.853   4.130
87836SOL     OW65404   0.463   6.900   6.500
87836SOL    HW165405   0.531   6.872   6.438
87836SOL    HW265406   0.429   6.981   6.463
87837SOL     OW65407  13.061   3.835   5.835
87837SOL    HW165408  13.015   3.789   5.765
87837SOL    HW265409  13.089   3.917   5.795
87838SOL     OW65410   0.500  13.871   9.756
87838SOL    HW165411   0.423  13.928   9.750
87838SOL    HW265412   0.559  13.904   9.688
87839SOL     OW65413  11.904   5.069  10.113
87839SOL    HW165414  11.949   5.062  10.029
87839SOL    HW265415  11.917   4.984  10.155
87840SOL     OW65416   6.278  14.161   8.192
87840SOL    HW165417   6.198  14.207   8.163
87840SOL    HW265418   6.302  14.204   8.274
87841SOL     OW65419   0.628   0.864   1.300
87841SOL    HW165420   0.701   0.906   1.345
87841SOL    HW265421   0.664   0.837   1.215
87842SOL     OW65422   2.925   0.027   0.435
87842SOL    HW165423   2.931   0.079   0.515
87842SOL    HW265424   3.014   0.027   0.400
87843SOL     OW65425   6.028   7.670   2.490
87843SOL    HW165426   5.980   7.606   2.542
87843SOL    HW265427   6.088   7.618   2.437
87844SOL     OW65428  14.362  11.887   1.264
87844SOL    HW165429  14.353  11.792   1.272
87844SOL    HW265430  14.445  11.899   1.218
87845SOL     OW65431   5.398   6.269   3.859
87845SOL    HW165432   5.338   6.264   3.785
87845SOL    HW265433   5.475   6.220   3.831
87846SOL     OW65434  14.064  14.486  14.323
87846SOL    HW165435  14.043  14.449  14.237
87846SOL    HW265436  13.985  14.471  14.376
87847SOL     OW65437  10.049   5.086   1.203
87847SOL    HW165438  10.135   5.126   1.210
87847SOL    HW265439  10.007   5.104   1.287
87848SOL     OW65440  13.736  13.224   9.902
87848SOL    HW165441  13.772  13.219   9.814
87848SOL    HW265442  13.813  13.220   9.959
87849SOL     OW65443   0.949  11.310  14.141
87849SOL    HW165444   0.910  11.363  14.211
87849SOL    HW265445   1.042  11.331  14.144
87850SOL     OW65446   1.560   3.932   9.155
87850SOL    HW165447   1.562   3.904   9.064
87850SOL    HW265448   1.637   3.892   9.194
87851SOL     OW65449   8.142   1.670  14.366
87851SOL    HW165450   8.053   1.683  14.398
87851SOL    HW265451   8.197   1.719  14.429
87852SOL     OW65452   0.024  12.008   0.263
87852SOL    HW165453  14.872  11.921   0.232
87852SOL    HW265454   0.085  12.041   0.197
87853SOL     OW65455   0.177  12.528  10.086
87853SOL    HW165456   0.220  12.601  10.131
87853SOL    HW265457   0.222  12.450  10.118
87854SOL     OW65458   8.584  14.359   5.896
87854SOL    HW165459   8.552  14.436   5.944
87854SOL    HW265460   8.562  14.285   5.953
87855SOL     OW65461   8.229   5.858   8.751
87855SOL    HW165462   8.303   5.870   8.690
87855SOL    HW265463   8.270   5.856   8.837
87856SOL     OW65464  14.585   6.783   7.401
87856SOL    HW165465  14.493   6.783   7.427
87856SOL    HW265466  14.612   6.874   7.407
87857SOL     OW65467   6.173  14.764  13.486
87857SOL    HW165468   6.145  14.798  13.571
87857SOL    HW265469   6.214  14.839  13.443
87858SOL     OW65470  13.036   8.562  13.461
87858SOL    HW165471  13.118   8.538  13.504
87858SOL    HW265472  13.063   8.618  13.388
87859SOL     OW65473  13.322   8.232   9.712
87859SOL    HW165474  13.331   8.141   9.742
87859SOL    HW265475  13.325   8.284   9.792
87860SOL     OW65476  14.039  11.893   9.649
87860SOL    HW165477  13.972  11.897   9.581
87860SOL    HW265478  14.105  11.957   9.622
87861SOL     OW65479  13.738   2.751  12.898
87861SOL    HW165480  13.692   2.747  12.982
87861SOL    HW265481  13.827   2.779  12.920
87862SOL     OW65482   6.833   3.401   5.942
87862SOL    HW165483   6.822   3.468   6.009
87862SOL    HW265484   6.925   3.375   5.949
87863SOL     OW65485   9.184   9.479  13.504
87863SOL    HW165486   9.117   9.468  13.571
87863SOL    HW265487   9.210   9.571  13.511
87864SOL     OW65488   8.595   7.001  11.602
87864SOL    HW165489   8.516   7.049  11.628
87864SOL    HW265490   8.573   6.961  11.518
87865SOL     OW65491   6.381   4.980   3.637
87865SOL    HW165492   6.412   5.064   3.671
87865SOL    HW265493   6.285   4.990   3.633
87866SOL     OW65494   3.605   4.631   2.665
87866SOL    HW165495   3.564   4.714   2.691
87866SOL    HW265496   3.544   4.593   2.602
87867SOL     OW65497  11.504   4.172   4.012
87867SOL    HW165498  11.412   4.153   3.991
87867SOL    HW265499  11.536   4.221   3.937
87868SOL     OW65500  13.849   9.150   8.788
87868SOL    HW165501  13.777   9.088   8.778
87868SOL    HW265502  13.866   9.182   8.700
87869SOL     OW65503   5.633   3.935   6.916
87869SOL    HW165504   5.591   3.877   6.979
87869SOL    HW265505   5.669   3.875   6.850
87870SOL     OW65506   2.804   9.252  13.237
87870SOL    HW165507   2.886   9.223  13.197
87870SOL    HW265508   2.777   9.178  13.292
87871SOL     OW65509   3.326  13.069   6.347
87871SOL    HW165510   3.377  13.146   6.374
87871SOL    HW265511   3.370  12.995   6.390
87872SOL     OW65512   2.800   2.186  10.934
87872SOL    HW165513   2.837   2.183  11.022
87872SOL    HW265514   2.707   2.168  10.947
87873SOL     OW65515  14.112   8.100  11.804
87873SOL    HW165516  14.093   8.167  11.739
87873SOL    HW265517  14.188   8.054  11.769
87874SOL     OW65518  11.257   8.911   3.230
87874SOL    HW165519  11.171   8.953   3.240
87874SOL    HW265520  11.287   8.897   3.320
87875SOL     OW65521  11.880   1.452  13.435
87875SOL    HW165522  11.897   1.544  13.414
87875SOL    HW265523  11.819   1.455  13.508
87876SOL     OW65524   3.984   9.059   3.676
87876SOL    HW165525   4.050   9.031   3.613
87876SOL    HW265526   3.922   9.111   3.624
87877SOL     OW65527  10.921   1.854   3.463
87877SOL    HW165528  10.944   1.869   3.371
87877SOL    HW265529  10.999   1.811   3.500
87878SOL     OW65530   5.825   7.252   6.858
87878SOL    HW165531   5.779   7.169   6.842
87878SOL    HW265532   5.774   7.296   6.926
87879SOL     OW65533   3.336  14.393   6.013
87879SOL    HW165534   3.427  14.369   5.992
87879SOL    HW265535   3.340  14.486   6.034
87880SOL     OW65536   8.181   4.893   4.944
87880SOL    HW165537   8.127   4.910   4.866
87880SOL    HW265538   8.124   4.918   5.018
87881SOL     OW65539  13.464   6.199   9.313
87881SOL    HW165540  13.369   6.200   9.299
87881SOL    HW265541  13.495   6.281   9.275
87882SOL     OW65542  11.365   4.538  10.850
87882SOL    HW165543  11.435   4.569  10.906
87882SOL    HW265544  11.288   4.535  10.906
87883SOL     OW65545   1.543   1.349   9.214
87883SOL    HW165546   1.561   1.319   9.303
87883SOL    HW265547   1.580   1.438   9.211
87884SOL     OW65548  11.684   6.739   3.909
87884SOL    HW165549  11.715   6.824   3.877
87884SOL    HW265550  11.611   6.761   3.967
87885SOL     OW65551  10.649  11.061   9.617
87885SOL    HW165552  10.630  11.101   9.701
87885SOL    HW265553  10.596  10.982   9.615
87886SOL     OW65554   7.439   3.178  10.263
87886SOL    HW165555   7.429   3.273  10.255
87886SOL    HW265556   7.520   3.158  10.215
87887SOL     OW65557   9.442  13.150   9.276
87887SOL    HW165558   9.356  13.176   9.243
87887SOL    HW265559   9.435  13.162   9.371
87888SOL     OW65560  12.688   9.740  13.760
87888SOL    HW165561  12.779   9.761  13.737
87888SOL    HW265562  12.688   9.736  13.855
87889SOL     OW65563  13.868  14.206   7.723
87889SOL    HW165564  13.937  14.206   7.657
87889SOL    HW265565  13.902  14.150   7.793
87890SOL     OW65566   4.073   0.694  10.173
87890SOL    HW165567   4.036   0.780  10.187
87890SOL    HW265568   4.158   0.711  10.132
87891SOL     OW65569   7.144   9.990  13.776
87891SOL    HW165570   7.095   9.908  13.783
87891SOL    HW265571   7.219   9.977  13.834
87892SOL     OW65572   4.168  12.966   3.484
87892SOL    HW165573   4.158  12.873   3.463
87892SOL    HW265574   4.082  13.004   3.468
87893SOL     OW65575  13.241   4.356   6.689
87893SOL    HW165576  13.289   4.330   6.768
87893SOL    HW265577  13.302   4.339   6.618
87894SOL     OW65578  13.188  12.668   5.305
87894SOL    HW165579  13.174  12.574   5.313
87894SOL    HW265580  13.100  12.706   5.307
87895SOL     OW65581   7.658   8.353   5.355
87895SOL    HW165582   7.751   8.355   5.333
87895SOL    HW265583   7.637   8.443   5.379
87896SOL     OW65584   4.603   8.817   0.072
87896SOL    HW165585   4.611   8.891   0.011
87896SOL    HW265586   4.592   8.858   0.157
87897SOL     OW65587   0.343   1.923   3.852
87897SOL    HW165588   0.264   1.977   3.841
87897SOL    HW265589   0.309   1.839   3.884
87898SOL     OW65590   6.861   4.286   2.672
87898SOL    HW165591   6.911   4.314   2.749
87898SOL    HW265592   6.818   4.366   2.642
87899SOL     OW65593   6.291  14.228   6.737
87899SOL    HW165594   6.290  14.134   6.756
87899SOL    HW265595   6.349  14.236   6.661
87900SOL     OW65596   9.870   1.043  13.837
87900SOL    HW165597   9.830   1.053  13.750
87900SOL    HW265598   9.877   1.132  13.870
87901SOL     OW65599   8.285   9.527   5.482
87901SOL    HW165600   8.369   9.530   5.437
87901SOL    HW265601   8.302   9.477   5.562
87902SOL     OW65602   4.754   5.949  14.777
87902SOL    HW165603   4.659   5.956  14.778
87902SOL    HW265604   4.772   5.858  14.800
87903SOL     OW65605  11.256  12.857   4.774
87903SOL    HW165606  11.193  12.869   4.845
87903SOL    HW265607  11.203  12.839   4.697
87904SOL     OW65608  10.242   2.749   9.077
87904SOL    HW165609  10.177   2.799   9.028
87904SOL    HW265610  10.280   2.689   9.013
87905SOL     OW65611  13.617  11.597   8.944
87905SOL    HW165612  13.666  11.548   9.011
87905SOL    HW265613  13.669  11.675   8.929
87906SOL     OW65614   1.834   0.927   2.429
87906SOL    HW165615   1.905   0.936   2.492
87906SOL    HW265616   1.823   1.015   2.393
87907SOL     OW65617   6.144   4.314  11.823
87907SOL    HW165618   6.216   4.324  11.885
87907SOL    HW265619   6.186   4.279  11.743
87908SOL     OW65620   6.598   1.804   5.057
87908SOL    HW165621   6.649   1.742   5.109
87908SOL    HW265622   6.651   1.884   5.055
87909SOL     OW65623   9.422   2.036  11.779
87909SOL    HW165624   9.457   1.951  11.806
87909SOL    HW265625   9.419   2.087  11.860
87910SOL     OW65626   7.031   2.164  13.329
87910SOL    HW165627   6.970   2.183  13.401
87910SOL    HW265628   6.996   2.213  13.255
87911SOL     OW65629  14.747  11.555   3.137
87911SOL    HW165630  14.809  11.620   3.106
87911SOL    HW265631  14.662  11.600   3.136
87912SOL     OW65632   9.072   3.808   7.414
87912SOL    HW165633   9.011   3.872   7.378
87912SOL    HW265634   9.017   3.740   7.452
87913SOL     OW65635  10.966   9.746   9.874
87913SOL    HW165636  10.954   9.788   9.789
87913SOL    HW265637  11.041   9.792   9.913
87914SOL     OW65638   5.196  12.607   1.625
87914SOL    HW165639   5.147  12.538   1.668
87914SOL    HW265640   5.166  12.688   1.667
87915SOL     OW65641   4.900   2.400   3.925
87915SOL    HW165642   4.922   2.467   3.989
87915SOL    HW265643   4.859   2.330   3.977
87916SOL     OW65644  11.222  12.108   3.105
87916SOL    HW165645  11.302  12.155   3.082
87916SOL    HW265646  11.216  12.114   3.200
87917SOL     OW65647   2.060   7.721   0.923
87917SOL    HW165648   2.106   7.639   0.907
87917SOL    HW265649   2.126   7.789   0.909
87918SOL     OW65650   0.801   3.397  13.343
87918SOL    HW165651   0.767   3.331  13.283
87918SOL    HW265652   0.783   3.361  13.430
87919SOL     OW65653   3.626  12.530   2.267
87919SOL    HW165654   3.612  12.437   2.285
87919SOL    HW265655   3.597  12.540   2.176
87920SOL     OW65656  14.657  10.484   0.226
87920SOL    HW165657  14.581  10.507   0.278
87920SOL    HW265658  14.686  10.566   0.187
87921SOL     OW65659   8.410   7.975   9.454
87921SOL    HW165660   8.383   7.922   9.379
87921SOL    HW265661   8.335   7.976   9.512
87922SOL     OW65662   0.941   5.430  10.221
87922SOL    HW165663   0.856   5.417  10.181
87922SOL    HW265664   0.934   5.515  10.266
87923SOL     OW65665   0.905  12.299   1.157
87923SOL    HW165666   0.888  12.375   1.213
87923SOL    HW265667   0.953  12.335   1.083
87924SOL     OW65668  14.113   1.165  11.202
87924SOL    HW165669  14.073   1.110  11.270
87924SOL    HW265670  14.066   1.141  11.122
87925SOL     OW65671   3.125   9.873  12.324
87925SOL    HW165672   3.110   9.912  12.238
87925SOL    HW265673   3.108   9.779  12.312
87926SOL     OW65674   5.727  14.009  11.685
87926SOL    HW165675   5.731  14.103  11.702
87926SOL    HW265676   5.634  13.991  11.675
87927SOL     OW65677   2.424  14.108   2.928
87927SOL    HW165678   2.436  14.188   2.877
87927SOL    HW265679   2.428  14.037   2.864
87928SOL     OW65680   7.032   6.366   4.567
87928SOL    HW165681   7.049   6.289   4.623
87928SOL    HW265682   7.116   6.384   4.525
87929SOL     OW65683   2.617   2.085   6.884
87929SOL    HW165684   2.641   2.075   6.792
87929SOL    HW265685   2.550   2.017   6.898
87930SOL     OW65686  10.195  13.197  12.992
87930SOL    HW165687  10.118  13.171  12.941
87930SOL    HW265688  10.263  13.212  12.926
87931SOL     OW65689   0.193  11.667   8.206
87931SOL    HW165690   0.142  11.707   8.136
87931SOL    HW265691   0.136  11.669   8.282
87932SOL     OW65692  12.017  12.163   0.698
87932SOL    HW165693  11.990  12.176   0.789
87932SOL    HW265694  12.101  12.117   0.704
87933SOL     OW65695   4.230  10.439   7.258
87933SOL    HW165696   4.147  10.482   7.278
87933SOL    HW265697   4.247  10.462   7.166
87934SOL     OW65698   1.737   3.465  10.470
87934SOL    HW165699   1.707   3.375  10.460
87934SOL    HW265700   1.811   3.472  10.409
87935SOL     OW65701   7.340   7.806   0.738
87935SOL    HW165702   7.397   7.811   0.814
87935SOL    HW265703   7.262   7.760   0.769
87936SOL     OW65704   2.322   8.893   0.855
87936SOL    HW165705   2.384   8.940   0.911
87936SOL    HW265706   2.253   8.864   0.914
87937SOL     OW65707  11.699  10.018  13.462
87937SOL    HW165708  11.703  10.110  13.436
87937SOL    HW265709  11.735   9.971  13.387
87938SOL     OW65710  10.809  10.800   9.271
87938SOL    HW165711  10.719  10.816   9.242
87938SOL    HW265712  10.818  10.705   9.270
87939SOL     OW65713  12.712  10.629  14.555
87939SOL    HW165714  12.637  10.571  14.545
87939SOL    HW265715  12.788  10.570  14.552
87940SOL     OW65716   9.500  14.052  12.426
87940SOL    HW165717   9.494  14.144  12.399
87940SOL    HW265718   9.471  14.003  12.350
87941SOL     OW65719   5.796   6.218  14.567
87941SOL    HW165720   5.719   6.242  14.618
87941SOL    HW265721   5.786   6.263  14.484
87942SOL     OW65722   0.427  14.432  12.035
87942SOL    HW165723   0.368  14.356  12.031
87942SOL    HW265724   0.509  14.396  12.071
87943SOL     OW65725   6.676  10.499   3.573
87943SOL    HW165726   6.623  10.432   3.530
87943SOL    HW265727   6.766  10.480   3.544
87944SOL     OW65728   6.270   4.262   7.703
87944SOL    HW165729   6.208   4.232   7.770
87944SOL    HW265730   6.234   4.229   7.621
87945SOL     OW65731   2.266   4.475   2.483
87945SOL    HW165732   2.305   4.389   2.495
87945SOL    HW265733   2.221   4.470   2.398
87946SOL     OW65734   3.288  12.277   8.476
87946SOL    HW165735   3.240  12.355   8.501
87946SOL    HW265736   3.296  12.226   8.557
87947SOL     OW65737   7.010  14.115   7.929
87947SOL    HW165738   6.925  14.132   7.970
87947SOL    HW265739   6.990  14.058   7.855
87948SOL     OW65740  12.388  14.689   3.798
87948SOL    HW165741  12.423  14.601   3.813
87948SOL    HW265742  12.302  14.674   3.759
87949SOL     OW65743   8.765   0.869   7.241
87949SOL    HW165744   8.694   0.882   7.178
87949SOL    HW265745   8.845   0.870   7.188
87950SOL     OW65746   0.959  12.538  12.044
87950SOL    HW165747   0.989  12.534  12.134
87950SOL    HW265748   0.952  12.632  12.025
87951SOL     OW65749   4.107  10.214   4.472
87951SOL    HW165750   4.050  10.265   4.529
87951SOL    HW265751   4.104  10.125   4.507
87952SOL     OW65752  10.545  10.819   1.412
87952SOL    HW165753  10.582  10.791   1.329
87952SOL    HW265754  10.516  10.909   1.396
87953SOL     OW65755  13.018  14.870   0.163
87953SOL    HW165756  13.044  14.841   0.251
87953SOL    HW265757  13.090   0.054   0.134
87954SOL     OW65758   7.891   7.532   6.767
87954SOL    HW165759   7.847   7.617   6.774
87954SOL    HW265760   7.822   7.468   6.779
87955SOL     OW65761  14.626   3.445   3.228
87955SOL    HW165762  14.698   3.388   3.201
87955SOL    HW265763  14.547   3.395   3.208
87956SOL     OW65764  13.615  11.959   0.102
87956SOL    HW165765  13.676  11.886   0.095
87956SOL    HW265766  13.650  12.025   0.042
87957SOL     OW65767  14.737   7.427  10.833
87957SOL    HW165768  14.706   7.352  10.782
87957SOL    HW265769  14.702   7.504  10.787
87958SOL     OW65770   8.778   5.507   2.922
87958SOL    HW165771   8.808   5.589   2.883
87958SOL    HW265772   8.709   5.476   2.863
87959SOL     OW65773   8.558   7.332  11.217
87959SOL    HW165774   8.637   7.379  11.245
87959SOL    HW265775   8.513   7.310  11.299
87960SOL     OW65776   2.995  13.377  11.267
87960SOL    HW165777   3.048  13.443  11.222
87960SOL    HW265778   3.028  13.377  11.357
87961SOL     OW65779   0.752   0.332   4.560
87961SOL    HW165780   0.821   0.395   4.576
87961SOL    HW265781   0.773   0.257   4.616
87962SOL     OW65782   7.215   0.141   7.350
87962SOL    HW165783   7.143   0.087   7.381
87962SOL    HW265784   7.272   0.152   7.427
87963SOL     OW65785   4.401   5.213   1.230
87963SOL    HW165786   4.450   5.218   1.312
87963SOL    HW265787   4.317   5.253   1.250
87964SOL     OW65788   7.082   5.843  10.085
87964SOL    HW165789   7.161   5.874  10.130
87964SOL    HW265790   7.114   5.774  10.027
87965SOL     OW65791   7.806   3.877  14.561
87965SOL    HW165792   7.811   3.964  14.522
87965SOL    HW265793   7.833   3.817  14.491
87966SOL     OW65794  10.032  13.478   7.618
87966SOL    HW165795  10.001  13.412   7.556
87966SOL    HW265796  10.111  13.515   7.577
87967SOL     OW65797   5.672  10.094   3.525
87967SOL    HW165798   5.685  10.161   3.592
87967SOL    HW265799   5.668  10.012   3.573
87968SOL     OW65800  10.979   7.723  10.833
87968SOL    HW165801  10.952   7.722  10.924
87968SOL    HW265802  11.054   7.663  10.829
87969SOL     OW65803   0.274  12.284   1.906
87969SOL    HW165804   0.319  12.359   1.867
87969SOL    HW265805   0.304  12.282   1.997
87970SOL     OW65806  14.659  12.836  10.585
87970SOL    HW165807  14.580  12.888  10.601
87970SOL    HW265808  14.696  12.874  10.505
87971SOL     OW65809  14.546  11.936   2.952
87971SOL    HW165810  14.610  12.005   2.972
87971SOL    HW265811  14.481  11.979   2.896
87972SOL     OW65812   3.481   5.285   4.867
87972SOL    HW165813   3.489   5.380   4.869
87972SOL    HW265814   3.461   5.264   4.776
87973SOL     OW65815   2.490   6.989   3.978
87973SOL    HW165816   2.543   6.965   3.902
87973SOL    HW265817   2.553   7.025   4.041
87974SOL     OW65818   6.082   4.974   2.481
87974SOL    HW165819   6.176   4.991   2.481
87974SOL    HW265820   6.041   5.060   2.481
87975SOL     OW65821   5.006  11.488   5.805
87975SOL    HW165822   5.005  11.452   5.716
87975SOL    HW265823   5.074  11.437   5.850
87976SOL     OW65824   6.335   1.523   8.023
87976SOL    HW165825   6.254   1.476   8.041
87976SOL    HW265826   6.383   1.522   8.105
87977SOL     OW65827   0.584   4.650  10.015
87977SOL    HW165828   0.578   4.675  10.107
87977SOL    HW265829   0.630   4.566  10.015
87978SOL     OW65830  13.459  10.019   0.920
87978SOL    HW165831  13.414   9.952   0.972
87978SOL    HW265832  13.458   9.986   0.831
87979SOL     OW65833   7.301   8.301   4.551
87979SOL    HW165834   7.342   8.279   4.635
87979SOL    HW265835   7.214   8.333   4.575
87980SOL     OW65836   9.744   1.437   4.699
87980SOL    HW165837   9.679   1.503   4.676
87980SOL    HW265838   9.698   1.354   4.693
87981SOL     OW65839  10.979   5.079   3.359
87981SOL    HW165840  11.048   5.133   3.398
87981SOL    HW265841  10.949   5.130   3.284
87982SOL     OW65842   3.568   5.916   9.583
87982SOL    HW165843   3.637   5.850   9.573
87982SOL    HW265844   3.611   5.999   9.562
87983SOL     OW65845  12.274  12.309   1.737
87983SOL    HW165846  12.313  12.221   1.730
87983SOL    HW265847  12.336  12.358   1.791
87984SOL     OW65848   5.680   4.722   4.472
87984SOL    HW165849   5.714   4.633   4.462
87984SOL    HW265850   5.589   4.710   4.500
87985SOL     OW65851   6.506  13.022   4.724
87985SOL    HW165852   6.528  13.081   4.652
87985SOL    HW265853   6.580  12.962   4.731
87986SOL     OW65854   1.941  13.622   0.833
87986SOL    HW165855   1.849  13.646   0.822
87986SOL    HW265856   1.939  13.545   0.889
87987SOL     OW65857   9.485  11.804   9.250
87987SOL    HW165858   9.543  11.730   9.266
87987SOL    HW265859   9.450  11.789   9.162
87988SOL     OW65860   3.925   6.199  10.771
87988SOL    HW165861   3.909   6.288  10.802
87988SOL    HW265862   4.007   6.205  10.722
87989SOL     OW65863  12.559   6.604   2.230
87989SOL    HW165864  12.469   6.635   2.237
87989SOL    HW265865  12.593   6.649   2.153
87990SOL     OW65866   8.835   5.011  13.060
87990SOL    HW165867   8.843   5.062  12.979
87990SOL    HW265868   8.884   5.062  13.125
87991SOL     OW65869  14.558   5.149   8.575
87991SOL    HW165870  14.591   5.063   8.602
87991SOL    HW265871  14.560   5.201   8.655
87992SOL     OW65872   2.124   0.949   1.078
87992SOL    HW165873   2.207   0.994   1.091
87992SOL    HW265874   2.080   0.998   1.009
87993SOL     OW65875  11.543  10.910   1.373
87993SOL    HW165876  11.493  10.852   1.431
87993SOL    HW265877  11.543  10.994   1.418
87994SOL     OW65878  11.336   0.511  11.453
87994SOL    HW165879  11.387   0.583  11.489
87994SOL    HW265880  11.401   0.446  11.426
87995SOL     OW65881  10.674   1.982   9.224
87995SOL    HW165882  10.691   1.888   9.232
87995SOL    HW265883  10.657   1.995   9.131
87996SOL     OW65884  14.067  11.998  14.479
87996SOL    HW165885  14.071  12.063  14.548
87996SOL    HW265886  14.140  12.018  14.421
87997SOL     OW65887   0.700   3.647   2.594
87997SOL    HW165888   0.729   3.738   2.591
87997SOL    HW265889   0.734   3.608   2.513
87998SOL     OW65890   1.110   8.168   3.301
87998SOL    HW165891   1.017   8.159   3.323
87998SOL    HW265892   1.111   8.217   3.218
87999SOL     OW65893  13.262   6.222   6.698
87999SOL    HW165894  13.204   6.153   6.729
87999SOL    HW265895  13.340   6.215   6.752
88000SOL     OW65896  11.014   9.401  10.696
88000SOL    HW165897  10.973   9.328  10.649
88000SOL    HW265898  11.082   9.361  10.749
88001SOL     OW65899  13.188  11.716   6.451
88001SOL    HW165900  13.123  11.787   6.456
88001SOL    HW265901  13.268  11.756   6.485
88002SOL     OW65902  10.451   0.996  13.102
88002SOL    HW165903  10.446   0.973  13.195
88002SOL    HW265904  10.538   0.964  13.075
88003SOL     OW65905   1.083  11.255   3.749
88003SOL    HW165906   0.989  11.238   3.741
88003SOL    HW265907   1.124  11.170   3.728
88004SOL     OW65908   2.142   3.584   8.728
88004SOL    HW165909   2.206   3.559   8.794
88004SOL    HW265910   2.070   3.623   8.778
88005SOL     OW65911  10.056   8.984  11.231
88005SOL    HW165912  10.013   9.050  11.176
88005SOL    HW265913  10.025   8.901  11.196
88006SOL     OW65914  14.561  11.644  13.385
88006SOL    HW165915  14.470  11.657  13.359
88006SOL    HW265916  14.612  11.694  13.320
88007SOL     OW65917  10.944   2.844   2.395
88007SOL    HW165918  11.019   2.864   2.451
88007SOL    HW265919  10.892   2.924   2.393
88008SOL     OW65920  10.743   6.816  14.191
88008SOL    HW165921  10.804   6.864  14.136
88008SOL    HW265922  10.683   6.882  14.224
88009SOL     OW65923   6.485   6.814   9.663
88009SOL    HW165924   6.474   6.884   9.599
88009SOL    HW265925   6.564   6.839   9.712
88010SOL     OW65926   7.471   2.816   5.118
88010SOL    HW165927   7.379   2.833   5.141
88010SOL    HW265928   7.492   2.735   5.163
88011SOL     OW65929  13.746   3.834   7.166
88011SOL    HW165930  13.827   3.847   7.215
88011SOL    HW265931  13.692   3.911   7.187
88012SOL     OW65932  13.373  12.188   6.383
88012SOL    HW165933  13.463  12.217   6.372
88012SOL    HW265934  13.348  12.217   6.471
88013SOL     OW65935  13.798   3.275   9.521
88013SOL    HW165936  13.806   3.361   9.560
88013SOL    HW265937  13.786   3.215   9.595
88014SOL     OW65938   3.147   1.315   4.210
88014SOL    HW165939   3.237   1.301   4.182
88014SOL    HW265940   3.125   1.402   4.176
88015SOL     OW65941   7.301   3.861   9.351
88015SOL    HW165942   7.300   3.816   9.436
88015SOL    HW265943   7.305   3.954   9.374
88016SOL     OW65944  14.766   4.883   1.202
88016SOL    HW165945  14.683   4.906   1.243
88016SOL    HW265946  14.763   4.787   1.194
88017SOL     OW65947  10.322   4.454   3.257
88017SOL    HW165948  10.306   4.374   3.307
88017SOL    HW265949  10.375   4.425   3.182
88018SOL     OW65950   8.414   8.908  11.670
88018SOL    HW165951   8.395   8.824  11.629
88018SOL    HW265952   8.399   8.893  11.763
88019SOL     OW65953   2.012  12.328   4.672
88019SOL    HW165954   1.980  12.337   4.582
88019SOL    HW265955   2.027  12.234   4.682
88020SOL     OW65956   1.363   7.569  10.639
88020SOL    HW165957   1.427   7.547  10.708
88020SOL    HW265958   1.306   7.634  10.680
88021SOL     OW65959   4.947   4.969   0.521
88021SOL    HW165960   4.974   4.924   0.442
88021SOL    HW265961   5.019   5.030   0.540
88022SOL     OW65962   9.550   2.082   5.788
88022SOL    HW165963   9.623   2.144   5.780
88022SOL    HW265964   9.566   2.036   5.871
88023SOL     OW65965  13.984   4.748  13.964
88023SOL    HW165966  13.940   4.663  13.976
88023SOL    HW265967  14.027   4.765  14.048
88024SOL     OW65968   6.395   9.589   3.103
88024SOL    HW165969   6.436   9.567   3.019
88024SOL    HW265970   6.455   9.553   3.168
88025SOL     OW65971  13.938   0.473   4.898
88025SOL    HW165972  13.953   0.546   4.958
88025SOL    HW265973  13.954   0.394   4.951
88026SOL     OW65974   7.023   4.279   4.204
88026SOL    HW165975   6.943   4.275   4.151
88026SOL    HW265976   7.086   4.227   4.155
88027SOL     OW65977  14.616  11.540   7.964
88027SOL    HW165978  14.631  11.458   8.012
88027SOL    HW265979  14.533  11.573   7.998
88028SOL     OW65980   6.684   1.870   6.901
88028SOL    HW165981   6.775   1.852   6.924
88028SOL    HW265982   6.685   1.878   6.806
88029SOL     OW65983  12.674  13.053   7.399
88029SOL    HW165984  12.616  13.129   7.388
88029SOL    HW265985  12.756  13.079   7.356
88030SOL     OW65986   3.943   3.159   2.407
88030SOL    HW165987   3.874   3.223   2.421
88030SOL    HW265988   4.024   3.209   2.415
88031SOL     OW65989   9.502   0.823   2.081
88031SOL    HW165990   9.518   0.794   2.170
88031SOL    HW265991   9.507   0.743   2.028
88032SOL     OW65992   2.149   0.649  14.704
88032SOL    HW165993   2.240   0.662  14.676
88032SOL    HW265994   2.155   0.583  14.773
88033SOL     OW65995   7.311   0.510   7.598
88033SOL    HW165996   7.386   0.485   7.544
88033SOL    HW265997   7.256   0.563   7.540
88034SOL     OW65998   9.920  13.805   1.095
88034SOL    HW165999   9.903  13.861   1.019
88034SOL    HW266000   9.847  13.743   1.094
88035SOL     OW66001   5.019  14.373   0.866
88035SOL    HW166002   5.049  14.381   0.957
88035SOL    HW266003   5.099  14.363   0.815
88036SOL     OW66004  14.608   0.396   7.420
88036SOL    HW166005  14.605   0.346   7.339
88036SOL    HW266006  14.556   0.474   7.402
88037SOL     OW66007   8.936   2.768  13.282
88037SOL    HW166008   8.887   2.741  13.360
88037SOL    HW266009   8.973   2.853  13.306
88038SOL     OW66010   8.131   7.624   6.703
88038SOL    HW166011   8.185   7.549   6.681
88038SOL    HW266012   8.045   7.587   6.724
88039SOL     OW66013   8.526   7.266  14.804
88039SOL    HW166014   8.509   7.357  14.780
88039SOL    HW266015   8.487   7.256   0.019
88040SOL     OW66016   5.137   2.231  11.954
88040SOL    HW166017   5.077   2.229  11.879
88040SOL    HW266018   5.204   2.167  11.932
88041SOL     OW66019   1.472  11.135   1.773
88041SOL    HW166020   1.453  11.163   1.684
88041SOL    HW266021   1.546  11.075   1.765
88042SOL     OW66022   1.199  14.650  14.719
88042SOL    HW166023   1.186  14.562  14.684
88042SOL    HW266024   1.130  14.703  14.677
88043SOL     OW66025  11.564  13.208   1.723
88043SOL    HW166026  11.521  13.292   1.739
88043SOL    HW266027  11.619  13.194   1.800
88044SOL     OW66028   3.190   4.616   9.581
88044SOL    HW166029   3.142   4.556   9.524
88044SOL    HW266030   3.156   4.703   9.560
88045SOL     OW66031  14.300   2.818   7.929
88045SOL    HW166032  14.386   2.819   7.887
88045SOL    HW266033  14.267   2.908   7.920
88046SOL     OW66034   0.873   4.809   4.675
88046SOL    HW166035   0.924   4.752   4.617
88046SOL    HW266036   0.798   4.836   4.623
88047SOL     OW66037  11.137  10.981  13.705
88047SOL    HW166038  11.044  10.999  13.721
88047SOL    HW266039  11.151  11.012  13.615
88048SOL     OW66040  14.267  10.085  13.226
88048SOL    HW166041  14.251  10.105  13.134
88048SOL    HW266042  14.179  10.081  13.265
88049SOL     OW66043   8.728   9.500   4.602
88049SOL    HW166044   8.766   9.481   4.516
88049SOL    HW266045   8.801   9.490   4.663
88050SOL     OW66046   0.777   1.030   5.403
88050SOL    HW166047   0.752   1.100   5.463
88050SOL    HW266048   0.856   1.063   5.359
88051SOL     OW66049   4.486  13.229   6.164
88051SOL    HW166050   4.392  13.232   6.182
88051SOL    HW266051   4.516  13.318   6.180
88052SOL     OW66052  11.150   4.367  14.598
88052SOL    HW166053  11.214   4.343  14.531
88052SOL    HW266054  11.143   4.462  14.592
88053SOL     OW66055   4.785  12.186   5.587
88053SOL    HW166056   4.813  12.134   5.512
88053SOL    HW266057   4.819  12.139   5.663
88054SOL     OW66058   1.247   2.010  12.190
88054SOL    HW166059   1.181   2.016  12.260
88054SOL    HW266060   1.261   1.916  12.177
88055SOL     OW66061   0.140   0.288   9.871
88055SOL    HW166062   0.046   0.306   9.863
88055SOL    HW266063   0.161   0.236   9.793
88056SOL     OW66064  13.691   6.931   3.765
88056SOL    HW166065  13.664   6.994   3.831
88056SOL    HW266066  13.780   6.906   3.790
88057SOL     OW66067   3.727  11.420   6.858
88057SOL    HW166068   3.780  11.406   6.779
88057SOL    HW266069   3.791  11.439   6.927
88058SOL     OW66070  11.888   9.867   4.247
88058SOL    HW166071  11.810   9.854   4.300
88058SOL    HW266072  11.948   9.914   4.304
88059SOL     OW66073   3.767   0.039   9.961
88059SOL    HW166074   3.771   0.052  10.056
88059SOL    HW266075   3.851  14.871   9.938
88060SOL     OW66076  10.534   4.384  14.266
88060SOL    HW166077  10.596   4.407  14.335
88060SOL    HW266078  10.499   4.468  14.237
88061SOL     OW66079  11.379   4.840   4.166
88061SOL    HW166080  11.408   4.751   4.187
88061SOL    HW266081  11.307   4.828   4.105
88062SOL     OW66082  13.173   8.470  10.186
88062SOL    HW166083  13.082   8.440  10.188
88062SOL    HW266084  13.207   8.437  10.103
88063SOL     OW66085   4.709   2.596   2.648
88063SOL    HW166086   4.616   2.619   2.650
88063SOL    HW266087   4.715   2.517   2.702
88064SOL     OW66088   3.237   3.570   7.225
88064SOL    HW166089   3.289   3.650   7.218
88064SOL    HW266090   3.240   3.531   7.137
88065SOL     OW66091  13.138   0.412   9.711
88065SOL    HW166092  13.164   0.497   9.747
88065SOL    HW266093  13.184   0.349   9.765
88066SOL     OW66094  12.259   9.695   0.211
88066SOL    HW166095  12.210   9.617   0.186
88066SOL    HW266096  12.347   9.680   0.177
88067SOL     OW66097   1.859   8.772  11.477
88067SOL    HW166098   1.876   8.782  11.384
88067SOL    HW266099   1.930   8.717  11.509
88068SOL     OW66100   4.497   7.822   0.733
88068SOL    HW166101   4.453   7.773   0.803
88068SOL    HW266102   4.427   7.841   0.671
88069SOL     OW66103   4.885  12.933  14.378
88069SOL    HW166104   4.963  12.899  14.334
88069SOL    HW266105   4.918  13.004  14.433
88070SOL     OW66106   2.857  14.842  12.115
88070SOL    HW166107   2.877  14.804  12.029
88070SOL    HW266108   2.827  14.767  12.167
88071SOL     OW66109  14.696   2.440   5.555
88071SOL    HW166110  14.733   2.399   5.477
88071SOL    HW266111  14.770   2.480   5.600
88072SOL     OW66112  11.533  10.807   2.062
88072SOL    HW166113  11.570  10.788   2.149
88072SOL    HW266114  11.441  10.827   2.079
88073SOL     OW66115   9.359  11.148   7.514
88073SOL    HW166116   9.438  11.187   7.476
88073SOL    HW266117   9.296  11.145   7.441
88074SOL     OW66118   1.068   5.545  12.699
88074SOL    HW166119   1.150   5.566  12.654
88074SOL    HW266120   1.008   5.522  12.628
88075SOL     OW66121   1.559   8.945  13.232
88075SOL    HW166122   1.609   8.872  13.270
88075SOL    HW266123   1.532   8.998  13.307
88076SOL     OW66124  12.235   2.182   9.526
88076SOL    HW166125  12.225   2.214   9.436
88076SOL    HW266126  12.234   2.087   9.518
88077SOL     OW66127   1.299  13.483   5.042
88077SOL    HW166128   1.259  13.465   4.957
88077SOL    HW266129   1.277  13.406   5.095
88078SOL     OW66130   5.492  11.929   7.700
88078SOL    HW166131   5.531  11.842   7.705
88078SOL    HW266132   5.399  11.915   7.716
88079SOL     OW66133  13.363   4.447  10.717
88079SOL    HW166134  13.452   4.452  10.682
88079SOL    HW266135  13.340   4.354  10.712
88080SOL     OW66136  12.052   0.615   7.960
88080SOL    HW166137  12.095   0.554   7.901
88080SOL    HW266138  12.073   0.583   8.048
88081SOL     OW66139   7.331   6.010  13.825
88081SOL    HW166140   7.287   6.087  13.788
88081SOL    HW266141   7.281   5.935  13.792
88082SOL     OW66142   7.702   5.008   3.908
88082SOL    HW166143   7.701   4.978   3.999
88082SOL    HW266144   7.649   5.087   3.908
88083SOL     OW66145   4.131  12.450   1.006
88083SOL    HW166146   4.050  12.400   1.012
88083SOL    HW266147   4.143  12.468   0.913
88084SOL     OW66148   0.133   6.516   4.668
88084SOL    HW166149   0.202   6.460   4.634
88084SOL    HW266150   0.168   6.552   4.749
88085SOL     OW66151   4.947   8.859  13.275
88085SOL    HW166152   4.857   8.830  13.283
88085SOL    HW266153   5.000   8.784  13.302
88086SOL     OW66154   9.162   3.022   3.233
88086SOL    HW166155   9.112   3.103   3.220
88086SOL    HW266156   9.252   3.051   3.247
88087SOL     OW66157   9.416  11.110   0.772
88087SOL    HW166158   9.321  11.101   0.782
88087SOL    HW266159   9.452  11.065   0.849
88088SOL     OW66160   1.002  10.175   5.756
88088SOL    HW166161   1.046  10.116   5.817
88088SOL    HW266162   1.023  10.263   5.789
88089SOL     OW66163   7.140  11.466   9.874
88089SOL    HW166164   7.117  11.559   9.882
88089SOL    HW266165   7.187  11.446   9.955
88090SOL     OW66166   7.516   0.031   3.551
88090SOL    HW166167   7.529   0.057   3.642
88090SOL    HW266168   7.552   0.103   3.500
88091SOL     OW66169   8.761   5.030   8.108
88091SOL    HW166170   8.806   5.091   8.050
88091SOL    HW266171   8.832   4.982   8.152
88092SOL     OW66172  14.338  14.094   6.349
88092SOL    HW166173  14.389  14.016   6.372
88092SOL    HW266174  14.247  14.069   6.367
88093SOL     OW66175  11.649  10.254  12.914
88093SOL    HW166176  11.723  10.198  12.891
88093SOL    HW266177  11.602  10.266  12.832
88094SOL     OW66178  10.108  11.980   2.735
88094SOL    HW166179  10.126  12.071   2.712
88094SOL    HW266180  10.029  11.983   2.789
88095SOL     OW66181   4.915   3.211   4.848
88095SOL    HW166182   4.935   3.284   4.789
88095SOL    HW266183   4.961   3.136   4.810
88096SOL     OW66184   6.309   3.497   0.982
88096SOL    HW166185   6.365   3.434   1.027
88096SOL    HW266186   6.311   3.470   0.890
88097SOL     OW66187   2.946   4.773   0.248
88097SOL    HW166188   2.856   4.782   0.280
88097SOL    HW266189   2.994   4.732   0.319
88098SOL     OW66190  10.063   6.820  11.576
88098SOL    HW166191  10.071   6.915  11.580
88098SOL    HW266192  10.012   6.796  11.654
88099SOL     OW66193  14.639  11.918   7.933
88099SOL    HW166194  14.709  11.960   7.883
88099SOL    HW266195  14.574  11.893   7.867
88100SOL     OW66196   1.653   2.052   9.942
88100SOL    HW166197   1.726   2.063  10.003
88100SOL    HW266198   1.694   2.026   9.860
88101SOL     OW66199   2.952   3.783   4.385
88101SOL    HW166200   2.982   3.714   4.326
88101SOL    HW266201   2.884   3.829   4.337
88102SOL     OW66202  14.460   5.748   4.053
88102SOL    HW166203  14.485   5.765   4.144
88102SOL    HW266204  14.415   5.664   4.055
88103SOL     OW66205   8.469   4.290   9.364
88103SOL    HW166206   8.398   4.237   9.327
88103SOL    HW266207   8.423   4.357   9.417
88104SOL     OW66208   3.774   9.679  12.332
88104SOL    HW166209   3.776   9.768  12.366
88104SOL    HW266210   3.864   9.647  12.341
88105SOL     OW66211   0.595  11.219   3.451
88105SOL    HW166212   0.532  11.222   3.522
88105SOL    HW266213   0.681  11.223   3.494
88106SOL     OW66214   2.506   4.893   6.246
88106SOL    HW166215   2.502   4.800   6.224
88106SOL    HW266216   2.575   4.928   6.190
88107SOL     OW66217   9.349   0.618  10.309
88107SOL    HW166218   9.354   0.569  10.390
88107SOL    HW266219   9.272   0.674  10.320
88108SOL     OW66220   5.075   3.463   5.119
88108SOL    HW166221   5.148   3.437   5.062
88108SOL    HW266222   5.024   3.383   5.131
88109SOL     OW66223   0.407   1.921  14.526
88109SOL    HW166224   0.489   1.971  14.525
88109SOL    HW266225   0.348   1.970  14.469
88110SOL     OW66226   3.857  10.877   5.635
88110SOL    HW166227   3.862  10.921   5.720
88110SOL    HW266228   3.765  10.886   5.609
88111SOL     OW66229   7.335  11.594   9.505
88111SOL    HW166230   7.275  11.648   9.556
88111SOL    HW266231   7.406  11.572   9.565
88112SOL     OW66232   0.646  14.631   4.552
88112SOL    HW166233   0.561  14.674   4.549
88112SOL    HW266234   0.689  14.654   4.470
88113SOL     OW66235   3.530  10.657   5.407
88113SOL    HW166236   3.617  10.627   5.433
88113SOL    HW266237   3.488  10.580   5.368
88114SOL     OW66238   5.724   6.890   1.727
88114SOL    HW166239   5.692   6.814   1.678
88114SOL    HW266240   5.792   6.855   1.784
88115SOL     OW66241   1.034   4.628   4.190
88115SOL    HW166242   0.993   4.683   4.123
88115SOL    HW266243   0.980   4.548   4.190
88116SOL     OW66244   2.508   4.390   3.434
88116SOL    HW166245   2.412   4.386   3.433
88116SOL    HW266246   2.529   4.472   3.388
88117SOL     OW66247   8.081   7.043   6.331
88117SOL    HW166248   8.115   7.035   6.241
88117SOL    HW266249   8.115   7.126   6.362
88118SOL     OW66250  10.509   4.291   0.459
88118SOL    HW166251  10.590   4.341   0.449
88118SOL    HW266252  10.474   4.283   0.370
88119SOL     OW66253   6.404   3.155   5.433
88119SOL    HW166254   6.479   3.097   5.437
88119SOL    HW266255   6.419   3.221   5.501
88120SOL     OW66256   9.895   4.412   3.478
88120SOL    HW166257   9.978   4.453   3.502
88120SOL    HW266258   9.919   4.322   3.454
88121SOL     OW66259   0.513  12.621  11.696
88121SOL    HW166260   0.438  12.574  11.732
88121SOL    HW266261   0.506  12.709  11.734
88122SOL     OW66262   0.276  14.570  14.196
88122SOL    HW166263   0.263  14.647  14.140
88122SOL    HW266264   0.361  14.584  14.238
88123SOL     OW66265  13.069  13.249   8.909
88123SOL    HW166266  13.023  13.322   8.868
88123SOL    HW266267  13.162  13.270   8.898
88124SOL     OW66268  11.927  14.793  11.609
88124SOL    HW166269  11.884  14.709  11.625
88124SOL    HW266270  11.969  14.783  11.524
88125SOL     OW66271   0.356  14.754   4.163
88125SOL    HW166272   0.311  14.832   4.131
88125SOL    HW266273   0.408  14.725   4.088
88126SOL     OW66274   4.834   1.369  14.837
88126SOL    HW166275   4.790   1.422   0.031
88126SOL    HW266276   4.783   1.288  14.833
88127SOL     OW66277  12.106  12.080   2.070
88127SOL    HW166278  12.043  12.151   2.058
88127SOL    HW266279  12.053  12.000   2.062
88128SOL     OW66280  13.980  13.226   8.758
88128SOL    HW166281  13.971  13.130   8.758
88128SOL    HW266282  13.970  13.250   8.850
88129SOL     OW66283  10.774   3.546  12.380
88129SOL    HW166284  10.853   3.538  12.327
88129SOL    HW266285  10.790   3.623  12.435
88130SOL     OW66286   9.872  12.911  14.562
88130SOL    HW166287   9.794  12.956  14.596
88130SOL    HW266288   9.891  12.953  14.479
88131SOL     OW66289   5.464   0.873   1.071
88131SOL    HW166290   5.381   0.897   1.113
88131SOL    HW266291   5.530   0.924   1.116
88132SOL     OW66292  10.862   6.349   2.759
88132SOL    HW166293  10.822   6.277   2.808
88132SOL    HW266294  10.815   6.427   2.788
88133SOL     OW66295   5.564   1.408   7.546
88133SOL    HW166296   5.525   1.482   7.594
88133SOL    HW266297   5.583   1.344   7.614
88134SOL     OW66298   6.669   1.594   3.163
88134SOL    HW166299   6.633   1.613   3.076
88134SOL    HW266300   6.752   1.549   3.146
88135SOL     OW66301   8.077   0.136  12.544
88135SOL    HW166302   8.011   0.066  12.538
88135SOL    HW266303   8.025   0.216  12.556
88136SOL     OW66304   3.683   9.537  10.384
88136SOL    HW166305   3.661   9.550  10.292
88136SOL    HW266306   3.775   9.511  10.383
88137SOL     OW66307   1.631  13.013  13.952
88137SOL    HW166308   1.711  13.012  14.005
88137SOL    HW266309   1.596  12.924  13.960
88138SOL     OW66310   8.711   4.544   1.531
88138SOL    HW166311   8.726   4.623   1.583
88138SOL    HW266312   8.795   4.498   1.532
88139SOL     OW66313  11.823   9.407  13.148
88139SOL    HW166314  11.832   9.476  13.214
88139SOL    HW266315  11.851   9.448  13.066
88140SOL     OW66316   4.444   4.861   3.844
88140SOL    HW166317   4.537   4.883   3.852
88140SOL    HW266318   4.441   4.766   3.858
88141SOL     OW66319   9.557  11.960  10.682
88141SOL    HW166320   9.526  12.019  10.750
88141SOL    HW266321   9.587  12.017  10.611
88142SOL     OW66322  13.253   2.820   1.735
88142SOL    HW166323  13.245   2.820   1.639
88142SOL    HW266324  13.271   2.729   1.758
88143SOL     OW66325   6.985   3.322   2.450
88143SOL    HW166326   6.969   3.228   2.441
88143SOL    HW266327   7.078   3.333   2.433
88144SOL     OW66328   9.631   7.226  10.088
88144SOL    HW166329   9.650   7.143  10.131
88144SOL    HW266330   9.673   7.292  10.144
88145SOL     OW66331   6.317   1.088  10.030
88145SOL    HW166332   6.340   1.060  10.118
88145SOL    HW266333   6.224   1.110  10.035
88146SOL     OW66334  13.521   4.180  13.694
88146SOL    HW166335  13.544   4.199  13.785
88146SOL    HW266336  13.426   4.173  13.693
88147SOL     OW66337   9.798  11.399   8.154
88147SOL    HW166338   9.787  11.487   8.116
88147SOL    HW266339   9.714  11.356   8.139
88148SOL     OW66340   1.746  11.419  13.214
88148SOL    HW166341   1.667  11.465  13.244
88148SOL    HW266342   1.804  11.418  13.290
88149SOL     OW66343   9.807  10.393   5.407
88149SOL    HW166344   9.728  10.379   5.459
88149SOL    HW266345   9.876  10.349   5.457
88150SOL     OW66346   5.483   0.987  13.631
88150SOL    HW166347   5.485   0.894  13.610
88150SOL    HW266348   5.425   1.024  13.564
88151SOL     OW66349  14.680   0.959   9.729
88151SOL    HW166350  14.596   0.991   9.762
88151SOL    HW266351  14.710   1.027   9.669
88152SOL     OW66352   2.008   6.449   6.428
88152SOL    HW166353   1.992   6.544   6.420
88152SOL    HW266354   2.017   6.435   6.522
88153SOL     OW66355   0.716   9.597  12.265
88153SOL    HW166356   0.788   9.626  12.321
88153SOL    HW266357   0.639   9.602  12.321
88154SOL     OW66358   3.542   4.696   2.044
88154SOL    HW166359   3.562   4.773   1.990
88154SOL    HW266360   3.457   4.666   2.012
88155SOL     OW66361  11.845   5.920  12.911
88155SOL    HW166362  11.785   5.920  12.836
88155SOL    HW266363  11.878   6.009  12.915
88156SOL     OW66364  11.062   3.409  10.898
88156SOL    HW166365  11.095   3.394  10.809
88156SOL    HW266366  11.032   3.324  10.928
88157SOL     OW66367  13.735  13.706  10.428
88157SOL    HW166368  13.738  13.644  10.502
88157SOL    HW266369  13.711  13.652  10.353
88158SOL     OW66370   1.727   0.583   9.681
88158SOL    HW166371   1.701   0.605   9.591
88158SOL    HW266372   1.808   0.532   9.670
88159SOL     OW66373   2.994  13.568   7.489
88159SOL    HW166374   2.917  13.559   7.545
88159SOL    HW266375   3.008  13.663   7.483
88160SOL     OW66376   6.875   1.221   9.309
88160SOL    HW166377   6.897   1.206   9.401
88160SOL    HW266378   6.958   1.235   9.265
88161SOL     OW66379   5.428   0.498  13.332
88161SOL    HW166380   5.393   0.502  13.421
88161SOL    HW266381   5.507   0.444  13.340
88162SOL     OW66382   8.731   1.429   2.710
88162SOL    HW166383   8.810   1.408   2.759
88162SOL    HW266384   8.685   1.493   2.764
88163SOL     OW66385  10.190  14.798   9.847
88163SOL    HW166386  10.251  14.725   9.835
88163SOL    HW266387  10.117  14.761   9.897
88164SOL     OW66388   0.840   1.141   3.109
88164SOL    HW166389   0.774   1.109   3.170
88164SOL    HW266390   0.852   1.069   3.047
88165SOL     OW66391   2.698  14.602  13.818
88165SOL    HW166392   2.724  14.552  13.896
88165SOL    HW266393   2.735  14.689  13.832
88166SOL     OW66394   4.668   8.664  12.340
88166SOL    HW166395   4.648   8.675  12.433
88166SOL    HW266396   4.591   8.620  12.304
88167SOL     OW66397  10.901   1.791  14.097
88167SOL    HW166398  10.824   1.844  14.120
88167SOL    HW266399  10.885   1.765  14.007
88168SOL     OW66400   5.460   5.368   9.540
88168SOL    HW166401   5.431   5.329   9.458
88168SOL    HW266402   5.418   5.454   9.542
88169SOL     OW66403  10.217   8.236   8.389
88169SOL    HW166404  10.195   8.212   8.479
88169SOL    HW266405  10.187   8.327   8.380
88170SOL     OW66406   0.551  12.951   3.092
88170SOL    HW166407   0.536  12.924   3.182
88170SOL    HW266408   0.624  13.013   3.097
88171SOL     OW66409   5.150  13.792   5.442
88171SOL    HW166410   5.095  13.827   5.512
88171SOL    HW266411   5.237  13.784   5.481
88172SOL     OW66412  11.157   4.793  11.970
88172SOL    HW166413  11.099   4.721  11.944
88172SOL    HW266414  11.218   4.754  12.032
88173SOL     OW66415  14.408   6.519   9.826
88173SOL    HW166416  14.351   6.522   9.903
88173SOL    HW266417  14.375   6.589   9.769
88174SOL     OW66418  11.012  10.638   0.603
88174SOL    HW166419  10.960  10.703   0.556
88174SOL    HW266420  10.955  10.561   0.607
88175SOL     OW66421   7.167   3.089   7.776
88175SOL    HW166422   7.083   3.063   7.737
88175SOL    HW266423   7.228   3.020   7.751
88176SOL     OW66424   8.939  12.934  10.181
88176SOL    HW166425   8.994  12.919  10.258
88176SOL    HW266426   8.864  12.983  10.215
88177SOL     OW66427   4.578   5.870  13.115
88177SOL    HW166428   4.537   5.791  13.080
88177SOL    HW266429   4.598   5.922  13.037
88178SOL     OW66430  11.790   4.195  14.825
88178SOL    HW166431  11.698   4.194  14.853
88178SOL    HW266432  11.809   4.105  14.801
88179SOL     OW66433   5.850   4.612   4.697
88179SOL    HW166434   5.756   4.597   4.701
88179SOL    HW266435   5.858   4.705   4.673
88180SOL     OW66436  12.021   4.462   4.160
88180SOL    HW166437  11.954   4.438   4.096
88180SOL    HW266438  12.088   4.508   4.109
88181SOL     OW66439   6.203  13.598   5.286
88181SOL    HW166440   6.199  13.692   5.268
88181SOL    HW266441   6.221  13.558   5.201
88182SOL     OW66442   0.921  12.160  12.016
88182SOL    HW166443   0.954  12.215  11.945
88182SOL    HW266444   0.841  12.204  12.045
88183SOL     OW66445   5.568  10.949  10.059
88183SOL    HW166446   5.640  10.979  10.003
88183SOL    HW266447   5.521  11.029  10.082
88184SOL     OW66448  12.933   6.563   5.074
88184SOL    HW166449  13.002   6.621   5.106
88184SOL    HW266450  12.976   6.507   5.009
88185SOL     OW66451   9.366   0.409   8.301
88185SOL    HW166452   9.395   0.318   8.291
88185SOL    HW266453   9.294   0.418   8.238
88186SOL     OW66454  13.502   4.883   4.802
88186SOL    HW166455  13.477   4.875   4.710
88186SOL    HW266456  13.505   4.978   4.818
88187SOL     OW66457   6.067  14.572  12.737
88187SOL    HW166458   6.122  14.493  12.734
88187SOL    HW266459   6.063  14.600  12.645
88188SOL     OW66460   0.079   6.336  12.939
88188SOL    HW166461   0.119   6.303  13.020
88188SOL    HW266462   0.151   6.335  12.875
88189SOL     OW66463   7.225   9.110  12.202
88189SOL    HW166464   7.312   9.150  12.204
88189SOL    HW266465   7.202   9.108  12.109
88190SOL     OW66466   8.710  13.406   4.009
88190SOL    HW166467   8.699  13.380   3.918
88190SOL    HW266468   8.631  13.376   4.053
88191SOL     OW66469  14.460  11.811   7.737
88191SOL    HW166470  14.476  11.721   7.708
88191SOL    HW266471  14.368  11.812   7.764
88192SOL     OW66472  14.159  11.033  12.879
88192SOL    HW166473  14.217  11.057  12.951
88192SOL    HW266474  14.218  11.022  12.804
88193SOL     OW66475  14.131   7.816   1.575
88193SOL    HW166476  14.055   7.782   1.528
88193SOL    HW266477  14.098   7.891   1.623
88194SOL     OW66478   6.691   3.042  12.091
88194SOL    HW166479   6.681   2.969  12.152
88194SOL    HW266480   6.765   3.093  12.126
88195SOL     OW66481   7.575  12.149   5.473
88195SOL    HW166482   7.509  12.080   5.460
88195SOL    HW266483   7.656  12.111   5.440
88196SOL     OW66484  12.190   9.265   8.671
88196SOL    HW166485  12.142   9.199   8.721
88196SOL    HW266486  12.155   9.258   8.582
88197SOL     OW66487  10.055   3.298  10.310
88197SOL    HW166488  10.030   3.347  10.388
88197SOL    HW266489   9.974   3.289  10.260
88198SOL     OW66490   9.914   6.566  13.164
88198SOL    HW166491   9.945   6.655  13.182
88198SOL    HW266492   9.967   6.537  13.090
88199SOL     OW66493   6.454  13.653   4.161
88199SOL    HW166494   6.405  13.731   4.133
88199SOL    HW266495   6.543  13.669   4.130
88200SOL     OW66496   6.079   1.497   2.562
88200SOL    HW166497   6.087   1.538   2.647
88200SOL    HW266498   5.994   1.453   2.563
88201SOL     OW66499   9.177   4.610   2.557
88201SOL    HW166500   9.197   4.701   2.580
88201SOL    HW266501   9.184   4.563   2.640
88202SOL     OW66502   9.458  13.665   4.543
88202SOL    HW166503   9.385  13.660   4.605
88202SOL    HW266504   9.535  13.642   4.595
88203SOL     OW66505   3.413  11.566  10.312
88203SOL    HW166506   3.363  11.637  10.350
88203SOL    HW266507   3.481  11.546  10.377
88204SOL     OW66508   2.913  12.989  12.350
88204SOL    HW166509   2.974  13.007  12.421
88204SOL    HW266510   2.862  12.914  12.380
88205SOL     OW66511  14.375  13.776   1.956
88205SOL    HW166512  14.434  13.812   2.024
88205SOL    HW266513  14.297  13.749   2.004
88206SOL     OW66514   3.327  12.290  12.831
88206SOL    HW166515   3.389  12.246  12.773
88206SOL    HW266516   3.249  12.234  12.830
88207SOL     OW66517   9.500  10.834   8.142
88207SOL    HW166518   9.498  10.896   8.069
88207SOL    HW266519   9.506  10.889   8.220
88208SOL     OW66520   4.887   6.463   6.921
88208SOL    HW166521   4.939   6.415   6.986
88208SOL    HW266522   4.941   6.538   6.898
88209SOL     OW66523  14.332  10.102  11.733
88209SOL    HW166524  14.387  10.104  11.654
88209SOL    HW266525  14.243  10.113  11.700
88210SOL     OW66526   2.327   0.742   9.970
88210SOL    HW166527   2.238   0.762  10.000
88210SOL    HW266528   2.355   0.821   9.924
88211SOL     OW66529   2.698   9.364   3.930
88211SOL    HW166530   2.637   9.433   3.957
88211SOL    HW266531   2.765   9.364   3.998
88212SOL     OW66532   5.767  10.885  14.308
88212SOL    HW166533   5.830  10.908  14.240
88212SOL    HW266534   5.759  10.964  14.361
88213SOL     OW66535  10.369   3.478   4.511
88213SOL    HW166536  10.331   3.533   4.579
88213SOL    HW266537  10.463   3.478   4.531
88214SOL     OW66538   5.416   1.297   9.218
88214SOL    HW166539   5.505   1.329   9.215
88214SOL    HW266540   5.423   1.205   9.193
88215SOL     OW66541   4.469   7.786  12.555
88215SOL    HW166542   4.502   7.784  12.645
88215SOL    HW266543   4.473   7.695  12.527
88216SOL     OW66544  14.258  13.742   3.073
88216SOL    HW166545  14.163  13.754   3.076
88216SOL    HW266546  14.293  13.830   3.088
88217SOL     OW66547  12.108   9.671   4.307
88217SOL    HW166548  12.016   9.643   4.314
88217SOL    HW266549  12.106   9.763   4.334
88218SOL     OW66550  12.088  13.122   0.184
88218SOL    HW166551  12.040  13.060   0.129
88218SOL    HW266552  12.124  13.186   0.122
88219SOL     OW66553   2.209  14.116   2.647
88219SOL    HW166554   2.260  14.046   2.605
88219SOL    HW266555   2.237  14.196   2.602
88220SOL     OW66556  10.041   2.978   6.785
88220SOL    HW166557   9.961   2.927   6.799
88220SOL    HW266558  10.079   2.941   6.705
88221SOL     OW66559   7.451  10.453  14.864
88221SOL    HW166560   7.433  10.359  14.853
88221SOL    HW266561   7.378  10.497  14.821
88222SOL     OW66562   8.948   4.987   2.875
88222SOL    HW166563   8.970   5.080   2.870
88222SOL    HW266564   8.949   4.958   2.783
88223SOL     OW66565  11.509  10.454  14.379
88223SOL    HW166566  11.451  10.527  14.399
88223SOL    HW266567  11.597  10.490  14.383
88224SOL     OW66568   8.577  12.721   4.370
88224SOL    HW166569   8.558  12.814   4.377
88224SOL    HW266570   8.498  12.683   4.331
88225SOL     OW66571   3.797  10.612  14.639
88225SOL    HW166572   3.820  10.653  14.723
88225SOL    HW266573   3.704  10.592  14.647
88226SOL     OW66574   2.353   2.009  10.610
88226SOL    HW166575   2.417   1.994  10.680
88226SOL    HW266576   2.323   1.922  10.586
88227SOL     OW66577   4.459  12.856   1.300
88227SOL    HW166578   4.553  12.867   1.287
88227SOL    HW266579   4.438  12.911   1.376
88228SOL     OW66580   8.528   6.783   8.229
88228SOL    HW166581   8.432   6.791   8.231
88228SOL    HW266582   8.544   6.704   8.178
88229SOL     OW66583   8.346   9.580   0.012
88229SOL    HW166584   8.409   9.646  14.855
88229SOL    HW266585   8.360   9.506  14.825
88230SOL     OW66586   5.827   0.366   0.073
88230SOL    HW166587   5.798   0.335  14.859
88230SOL    HW266588   5.748   0.365   0.127
88231SOL     OW66589   6.220   5.957  11.503
88231SOL    HW166590   6.258   6.044  11.489
88231SOL    HW266591   6.127   5.974  11.516
88232SOL     OW66592   7.904   0.810   0.930
88232SOL    HW166593   7.989   0.768   0.919
88232SOL    HW266594   7.904   0.840   1.021
88233SOL     OW66595  14.669   4.918   8.967
88233SOL    HW166596  14.710   4.978   9.030
88233SOL    HW266597  14.632   4.848   9.021
88234SOL     OW66598   1.031   2.617   6.746
88234SOL    HW166599   0.949   2.574   6.772
88234SOL    HW266600   1.099   2.551   6.758
88235SOL     OW66601   7.703   5.596   4.292
88235SOL    HW166602   7.646   5.661   4.253
88235SOL    HW266603   7.665   5.578   4.378
88236SOL     OW66604   3.397   6.569   8.275
88236SOL    HW166605   3.407   6.606   8.362
88236SOL    HW266606   3.429   6.638   8.216
88237SOL     OW66607  13.117  11.926  10.915
88237SOL    HW166608  13.167  12.008  10.909
88237SOL    HW266609  13.026  11.952  10.898
88238SOL     OW66610  14.051   9.781   3.347
88238SOL    HW166611  14.115   9.765   3.416
88238SOL    HW266612  14.021   9.870   3.362
88239SOL     OW66613   2.687   6.121   2.536
88239SOL    HW166614   2.740   6.069   2.476
88239SOL    HW266615   2.685   6.070   2.617
88240SOL     OW66616   5.043   2.151  14.131
88240SOL    HW166617   5.055   2.074  14.075
88240SOL    HW266618   5.129   2.164  14.172
88241SOL     OW66619   8.465   1.502   3.604
88241SOL    HW166620   8.464   1.489   3.509
88241SOL    HW266621   8.549   1.544   3.622
88242SOL     OW66622   4.348  13.657   0.721
88242SOL    HW166623   4.302  13.656   0.804
88242SOL    HW266624   4.440  13.667   0.745
88243SOL     OW66625  11.570   2.632  13.418
88243SOL    HW166626  11.612   2.660  13.336
88243SOL    HW266627  11.479   2.661  13.410
88244SOL     OW66628   7.652   8.891  12.184
88244SOL    HW166629   7.593   8.965  12.188
88244SOL    HW266630   7.719   8.916  12.121
88245SOL     OW66631  12.039  14.639   0.891
88245SOL    HW166632  12.021  14.545   0.890
88245SOL    HW266633  12.036  14.665   0.799
88246SOL     OW66634   4.356   6.546   6.786
88246SOL    HW166635   4.424   6.500   6.737
88246SOL    HW266636   4.346   6.630   6.741
88247SOL     OW66637  10.994   3.208  10.233
88247SOL    HW166638  11.046   3.170  10.162
88247SOL    HW266639  10.913   3.157  10.234
88248SOL     OW66640   7.931   3.241   5.602
88248SOL    HW166641   7.913   3.336   5.600
88248SOL    HW266642   8.025   3.234   5.589
88249SOL     OW66643   2.483   3.519   7.199
88249SOL    HW166644   2.406   3.571   7.217
88249SOL    HW266645   2.469   3.484   7.111
88250SOL     OW66646   0.093   5.213   9.482
88250SOL    HW166647   0.128   5.177   9.401
88250SOL    HW266648   0.165   5.207   9.545
88251SOL     OW66649   2.091  12.124   0.341
88251SOL    HW166650   2.146  12.198   0.316
88251SOL    HW266651   2.005  12.162   0.356
88252SOL     OW66652   0.992   7.550  13.741
88252SOL    HW166653   0.962   7.469  13.783
88252SOL    HW266654   1.004   7.526  13.649
88253SOL     OW66655   3.760   9.377   6.211
88253SOL    HW166656   3.791   9.293   6.176
88253SOL    HW266657   3.675   9.391   6.169
88254SOL     OW66658   3.553  11.137   5.868
88254SOL    HW166659   3.476  11.147   5.925
88254SOL    HW266660   3.529  11.184   5.788
88255SOL     OW66661   8.321  10.596  10.934
88255SOL    HW166662   8.412  10.614  10.910
88255SOL    HW266663   8.296  10.671  10.989
88256SOL     OW66664   3.719   4.837   1.424
88256SOL    HW166665   3.814   4.830   1.433
88256SOL    HW266666   3.690   4.748   1.402
88257SOL     OW66667   9.417   5.156  14.544
88257SOL    HW166668   9.434   5.153  14.450
88257SOL    HW266669   9.452   5.241  14.571
88258SOL     OW66670   2.893  13.260  12.485
88258SOL    HW166671   2.907  13.352  12.464
88258SOL    HW266672   2.971  13.235  12.535
88259SOL     OW66673  14.061  11.468  14.786
88259SOL    HW166674  14.044  11.553  14.745
88259SOL    HW266675  14.094  11.413  14.715
88260SOL     OW66676   3.786  12.493   3.313
88260SOL    HW166677   3.847  12.538   3.254
88260SOL    HW266678   3.728  12.444   3.255
88261SOL     OW66679   7.054   6.587   4.806
88261SOL    HW166680   7.046   6.680   4.825
88261SOL    HW266681   7.096   6.550   4.884
88262SOL     OW66682   7.557   3.911   3.104
88262SOL    HW166683   7.639   3.885   3.147
88262SOL    HW266684   7.498   3.934   3.176
88263SOL     OW66685   8.963  12.080   7.230
88263SOL    HW166686   8.946  12.165   7.272
88263SOL    HW266687   9.028  12.038   7.286
88264SOL     OW66688  13.594  14.670   9.887
88264SOL    HW166689  13.603  14.731   9.813
88264SOL    HW266690  13.595  14.583   9.846
88265SOL     OW66691   0.854  14.078   3.763
88265SOL    HW166692   0.916  14.006   3.747
88265SOL    HW266693   0.802  14.049   3.838
88266SOL     OW66694   6.381  13.043   3.111
88266SOL    HW166695   6.422  13.068   3.194
88266SOL    HW266696   6.370  12.948   3.118
88267SOL     OW66697  14.192   5.408   2.682
88267SOL    HW166698  14.151   5.484   2.642
88267SOL    HW266699  14.272   5.443   2.722
88268SOL     OW66700   6.576   8.411   0.600
88268SOL    HW166701   6.568   8.505   0.583
88268SOL    HW266702   6.568   8.404   0.696
88269SOL     OW66703   7.157   6.188   2.589
88269SOL    HW166704   7.202   6.104   2.588
88269SOL    HW266705   7.204   6.240   2.654
88270SOL     OW66706  14.058  11.756   1.422
88270SOL    HW166707  13.969  11.775   1.454
88270SOL    HW266708  14.050  11.762   1.326
88271SOL     OW66709   8.049  13.716   1.028
88271SOL    HW166710   8.114  13.671   1.082
88271SOL    HW266711   8.046  13.665   0.947
88272SOL     OW66712   8.909   2.498   1.095
88272SOL    HW166713   8.912   2.454   1.180
88272SOL    HW266714   8.905   2.591   1.116
88273SOL     OW66715  12.859   8.278  14.694
88273SOL    HW166716  12.774   8.313  14.669
88273SOL    HW266717  12.857   8.274  14.789
88274SOL     OW66718  14.142  11.147   1.874
88274SOL    HW166719  14.169  11.114   1.960
88274SOL    HW266720  14.047  11.162   1.883
88275SOL     OW66721  12.412   8.575  14.226
88275SOL    HW166722  12.446   8.624  14.301
88275SOL    HW266723  12.319   8.598  14.223
88276SOL     OW66724  14.584   3.198   5.555
88276SOL    HW166725  14.566   3.291   5.560
88276SOL    HW266726  14.558   3.173   5.466
88277SOL     OW66727   6.837  10.484   4.521
88277SOL    HW166728   6.768  10.545   4.547
88277SOL    HW266729   6.888  10.532   4.455
88278SOL     OW66730   3.249   3.309  10.952
88278SOL    HW166731   3.241   3.269  10.865
88278SOL    HW266732   3.165   3.291  10.994
88279SOL     OW66733   3.517  13.717   3.125
88279SOL    HW166734   3.518  13.724   3.030
88279SOL    HW266735   3.435  13.672   3.146
88280SOL     OW66736   8.612   5.245  13.183
88280SOL    HW166737   8.613   5.295  13.264
88280SOL    HW266738   8.659   5.300  13.120
88281SOL     OW66739  12.677  13.165   8.002
88281SOL    HW166740  12.690  13.119   8.084
88281SOL    HW266741  12.664  13.257   8.027
88282SOL     OW66742   1.123   4.721   6.002
88282SOL    HW166743   1.148   4.727   6.094
88282SOL    HW266744   1.138   4.809   5.968
88283SOL     OW66745   0.654   8.308  13.981
88283SOL    HW166746   0.678   8.400  13.970
88283SOL    HW266747   0.576   8.296  13.926
88284SOL     OW66748   9.314  14.613   7.142
88284SOL    HW166749   9.277  14.701   7.132
88284SOL    HW266750   9.286  14.566   7.064
88285SOL     OW66751   2.908   5.260   2.237
88285SOL    HW166752   2.822   5.292   2.264
88285SOL    HW266753   2.970   5.316   2.283
88286SOL     OW66754  11.005   8.839   7.876
88286SOL    HW166755  11.013   8.746   7.895
88286SOL    HW266756  10.910   8.856   7.881
88287SOL     OW66757  14.670  13.976   5.387
88287SOL    HW166758  14.633  14.057   5.422
88287SOL    HW266759  14.675  13.917   5.462
88288SOL     OW66760   7.170  12.806   9.409
88288SOL    HW166761   7.239  12.799   9.344
88288SOL    HW266762   7.104  12.862   9.368
88289SOL     OW66763  12.422   5.216   8.796
88289SOL    HW166764  12.472   5.288   8.834
88289SOL    HW266765  12.478   5.182   8.726
88290SOL     OW66766  11.247   0.458  11.885
88290SOL    HW166767  11.177   0.472  11.821
88290SOL    HW266768  11.322   0.506  11.851
88291SOL     OW66769   3.131   4.132   9.923
88291SOL    HW166770   3.082   4.180   9.856
88291SOL    HW266771   3.111   4.040   9.905
88292SOL     OW66772  11.279   5.385   9.910
88292SOL    HW166773  11.283   5.341   9.994
88292SOL    HW266774  11.337   5.334   9.853
88293SOL     OW66775  10.406  10.554  13.835
88293SOL    HW166776  10.490  10.527  13.872
88293SOL    HW266777  10.372  10.475  13.794
88294SOL     OW66778   9.151  11.259  14.707
88294SOL    HW166779   9.184  11.227  14.623
88294SOL    HW266780   9.070  11.305  14.684
88295SOL     OW66781  10.279  13.954  13.261
88295SOL    HW166782  10.260  13.931  13.170
88295SOL    HW266783  10.291  14.049  13.260
88296SOL     OW66784   2.704   4.414   3.637
88296SOL    HW166785   2.657   4.362   3.573
88296SOL    HW266786   2.770   4.461   3.585
88297SOL     OW66787   0.379   8.743   9.288
88297SOL    HW166788   0.361   8.677   9.221
88297SOL    HW266789   0.364   8.698   9.371
88298SOL     OW66790  11.972  11.211   2.912
88298SOL    HW166791  12.056  11.249   2.940
88298SOL    HW266792  11.992  11.119   2.896
88299SOL     OW66793   2.563   7.897   6.234
88299SOL    HW166794   2.591   7.882   6.324
88299SOL    HW266795   2.558   7.993   6.226
88300SOL     OW66796  10.043   8.101  14.359
88300SOL    HW166797  10.086   8.110  14.444
88300SOL    HW266798  10.088   8.164  14.302
88301SOL     OW66799  10.965  13.107   9.752
88301SOL    HW166800  11.007  13.022   9.767
88301SOL    HW266801  10.951  13.143   9.840
88302SOL     OW66802   0.136   0.874   5.493
88302SOL    HW166803   0.149   0.829   5.576
88302SOL    HW266804   0.163   0.965   5.510
88303SOL     OW66805   9.457   2.103   8.671
88303SOL    HW166806   9.549   2.130   8.682
88303SOL    HW266807   9.421   2.107   8.760
88304SOL     OW66808   1.448  11.047   1.292
88304SOL    HW166809   1.361  11.050   1.252
88304SOL    HW266810   1.502  11.103   1.237
88305SOL     OW66811   9.701  14.363   6.413
88305SOL    HW166812   9.625  14.304   6.410
88305SOL    HW266813   9.684  14.420   6.487
88306SOL     OW66814   8.704   6.099  11.094
88306SOL    HW166815   8.679   6.191  11.108
88306SOL    HW266816   8.784   6.089  11.145
88307SOL     OW66817   6.014  13.965  11.553
88307SOL    HW166818   6.046  14.013  11.477
88307SOL    HW266819   5.935  14.011  11.581
88308SOL     OW66820  13.098   3.935   3.804
88308SOL    HW166821  13.163   3.892   3.748
88308SOL    HW266822  13.056   4.000   3.747
88309SOL     OW66823  14.753  10.426   2.787
88309SOL    HW166824  14.677  10.368   2.788
88309SOL    HW266825  14.715  10.514   2.785
88310SOL     OW66826   9.027  13.505  12.261
88310SOL    HW166827   9.081  13.580  12.287
88310SOL    HW266828   8.973  13.538  12.190
88311SOL     OW66829   9.155   7.598   7.374
88311SOL    HW166830   9.085   7.617   7.436
88311SOL    HW266831   9.225   7.658   7.397
88312SOL     OW66832  13.762  14.866   9.278
88312SOL    HW166833  13.809  14.863   9.361
88312SOL    HW266834  13.829  14.847   9.212
88313SOL     OW66835   9.999   2.961   5.577
88313SOL    HW166836  10.058   2.960   5.502
88313SOL    HW266837  10.013   2.877   5.620
88314SOL     OW66838   3.777   2.515   6.262
88314SOL    HW166839   3.736   2.480   6.342
88314SOL    HW266840   3.860   2.551   6.292
88315SOL     OW66841   5.723  10.106   5.874
88315SOL    HW166842   5.771  10.095   5.957
88315SOL    HW266843   5.717  10.017   5.839
88316SOL     OW66844   7.624  12.817   4.923
88316SOL    HW166845   7.688  12.887   4.912
88316SOL    HW266846   7.629  12.766   4.842
88317SOL     OW66847  10.926   5.763  12.524
88317SOL    HW166848  10.961   5.724  12.604
88317SOL    HW266849  10.868   5.696  12.488
88318SOL     OW66850   7.824   8.178  10.353
88318SOL    HW166851   7.790   8.092  10.328
88318SOL    HW266852   7.756   8.215  10.410
88319SOL     OW66853  11.775  11.329   1.347
88319SOL    HW166854  11.706  11.379   1.390
88319SOL    HW266855  11.729  11.268   1.290
88320SOL     OW66856   6.040   0.680  10.522
88320SOL    HW166857   6.084   0.595  10.535
88320SOL    HW266858   5.948   0.663  10.542
88321SOL     OW66859   1.808   1.815  13.904
88321SOL    HW166860   1.735   1.850  13.853
88321SOL    HW266861   1.869   1.887  13.912
88322SOL     OW66862  14.119  12.658   6.698
88322SOL    HW166863  14.073  12.601   6.637
88322SOL    HW266864  14.204  12.673   6.657
88323SOL     OW66865   4.562   3.624   2.310
88323SOL    HW166866   4.475   3.603   2.345
88323SOL    HW266867   4.590   3.545   2.264
88324SOL     OW66868   2.348  12.177   1.890
88324SOL    HW166869   2.401  12.098   1.894
88324SOL    HW266870   2.350  12.213   1.978
88325SOL     OW66871   1.728  11.354   8.577
88325SOL    HW166872   1.667  11.420   8.546
88325SOL    HW266873   1.720  11.282   8.515
88326SOL     OW66874   5.216   0.793   1.778
88326SOL    HW166875   5.173   0.808   1.862
88326SOL    HW266876   5.227   0.880   1.740
88327SOL     OW66877  14.314   7.842  13.364
88327SOL    HW166878  14.267   7.859  13.283
88327SOL    HW266879  14.248   7.804  13.423
88328SOL     OW66880   6.019   3.006   6.022
88328SOL    HW166881   5.945   2.953   5.992
88328SOL    HW266882   6.072   2.945   6.074
88329SOL     OW66883   0.735   7.852  12.784
88329SOL    HW166884   0.690   7.889  12.860
88329SOL    HW266885   0.666   7.835  12.721
88330SOL     OW66886   3.494   6.119  11.616
88330SOL    HW166887   3.461   6.032  11.593
88330SOL    HW266888   3.573   6.102  11.667
88331SOL     OW66889  12.549   6.289  10.835
88331SOL    HW166890  12.568   6.205  10.793
88331SOL    HW266891  12.627   6.342  10.820
88332SOL     OW66892   1.593  13.643  13.561
88332SOL    HW166893   1.549  13.706  13.618
88332SOL    HW266894   1.619  13.571  13.619
88333SOL     OW66895   3.173  14.337  12.929
88333SOL    HW166896   3.149  14.426  12.953
88333SOL    HW266897   3.175  14.336  12.834
88334SOL     OW66898  13.176  10.259   9.374
88334SOL    HW166899  13.127  10.201   9.316
88334SOL    HW266900  13.225  10.200   9.432
88335SOL     OW66901   2.052   2.152  11.631
88335SOL    HW166902   1.970   2.198  11.618
88335SOL    HW266903   2.058   2.140  11.726
88336SOL     OW66904   7.281  12.814   9.656
88336SOL    HW166905   7.243  12.787   9.572
88336SOL    HW266906   7.218  12.782   9.721
88337SOL     OW66907   5.342   4.421   0.259
88337SOL    HW166908   5.410   4.362   0.226
88337SOL    HW266909   5.370   4.442   0.348
88338SOL     OW66910   1.718  10.957   5.947
88338SOL    HW166911   1.778  10.929   5.878
88338SOL    HW266912   1.639  10.986   5.900
88339SOL     OW66913  13.052  14.054   9.682
88339SOL    HW166914  13.075  14.122   9.620
88339SOL    HW266915  13.004  14.101   9.751
88340SOL     OW66916   8.373   7.921  13.317
88340SOL    HW166917   8.302   7.928  13.381
88340SOL    HW266918   8.377   8.007  13.276
88341SOL     OW66919  12.380  13.771   1.639
88341SOL    HW166920  12.305  13.821   1.607
88341SOL    HW266921  12.361  13.680   1.616
88342SOL     OW66922   1.182   3.263   2.980
88342SOL    HW166923   1.174   3.170   3.001
88342SOL    HW266924   1.105   3.282   2.927
88343SOL     OW66925  13.459   8.563   3.585
88343SOL    HW166926  13.422   8.651   3.580
88343SOL    HW266927  13.531   8.571   3.648
88344SOL     OW66928   0.642   9.098   6.597
88344SOL    HW166929   0.565   9.122   6.545
88344SOL    HW266930   0.716   9.110   6.537
88345SOL     OW66931   4.438   8.059  11.704
88345SOL    HW166932   4.533   8.071  11.707
88345SOL    HW266933   4.403   8.148  11.709
88346SOL     OW66934   0.476  12.997  12.528
88346SOL    HW166935   0.550  13.044  12.566
88346SOL    HW266936   0.514  12.918  12.489
88347SOL     OW66937  12.251  10.271   9.041
88347SOL    HW166938  12.268  10.319   9.122
88347SOL    HW266939  12.204  10.333   8.985
88348SOL     OW66940   7.179   8.515   3.403
88348SOL    HW166941   7.220   8.477   3.481
88348SOL    HW266942   7.183   8.446   3.337
88349SOL     OW66943  11.226  13.154   8.112
88349SOL    HW166944  11.223  13.191   8.024
88349SOL    HW266945  11.271  13.220   8.165
88350SOL     OW66946   5.202  11.791  10.175
88350SOL    HW166947   5.251  11.729  10.122
88350SOL    HW266948   5.218  11.762  10.265
88351SOL     OW66949   3.051   2.440  10.150
88351SOL    HW166950   3.084   2.366  10.100
88351SOL    HW266951   2.956   2.432  10.144
88352SOL     OW66952   8.847   8.458   4.861
88352SOL    HW166953   8.809   8.537   4.900
88352SOL    HW266954   8.845   8.393   4.931
88353SOL     OW66955  12.424   1.383   4.602
88353SOL    HW166956  12.487   1.348   4.665
88353SOL    HW266957  12.465   1.366   4.517
88354SOL     OW66958   2.299   9.803  11.839
88354SOL    HW166959   2.277   9.781  11.929
88354SOL    HW266960   2.300   9.718  11.794
88355SOL     OW66961  14.117  10.046   7.244
88355SOL    HW166962  14.205  10.066   7.212
88355SOL    HW266963  14.065  10.033   7.165
88356SOL     OW66964   6.192   8.866   7.652
88356SOL    HW166965   6.246   8.828   7.583
88356SOL    HW266966   6.172   8.954   7.621
88357SOL     OW66967   8.884   1.996  13.827
88357SOL    HW166968   8.843   1.987  13.741
88357SOL    HW266969   8.860   2.084  13.855
88358SOL     OW66970   0.727  12.513   8.935
88358SOL    HW166971   0.686  12.429   8.912
88358SOL    HW266972   0.798  12.523   8.872
88359SOL     OW66973   5.468  12.063   8.847
88359SOL    HW166974   5.544  12.027   8.891
88359SOL    HW266975   5.483  12.045   8.754
88360SOL     OW66976  13.624   5.173   2.116
88360SOL    HW166977  13.701   5.123   2.141
88360SOL    HW266978  13.621   5.245   2.180
88361SOL     OW66979   7.465   2.133   9.213
88361SOL    HW166980   7.373   2.158   9.224
88361SOL    HW266981   7.513   2.215   9.224
88362SOL     OW66982   1.382  14.375  11.998
88362SOL    HW166983   1.472  14.405  11.993
88362SOL    HW266984   1.351  14.403  12.084
88363SOL     OW66985  12.518   7.993   9.521
88363SOL    HW166986  12.526   8.031   9.608
88363SOL    HW266987  12.588   7.929   9.515
88364SOL     OW66988   9.932   7.855  14.854
88364SOL    HW166989  10.008   7.818  14.809
88364SOL    HW266990   9.866   7.864  14.786
88365SOL     OW66991   3.969  10.136   2.774
88365SOL    HW166992   3.981  10.063   2.834
88365SOL    HW266993   4.054  10.146   2.731
88366SOL     OW66994   0.798   6.638  13.514
88366SOL    HW166995   0.753   6.711  13.471
88366SOL    HW266996   0.743   6.616  13.589
88367SOL     OW66997   1.474   4.811  12.798
88367SOL    HW166998   1.487   4.794  12.705
88367SOL    HW266999   1.418   4.889  12.801
88368SOL     OW67000  10.573  13.461   6.087
88368SOL    HW167001  10.583  13.549   6.049
88368SOL    HW267002  10.651  13.414   6.060
88369SOL     OW67003   8.101   3.991   2.182
88369SOL    HW167004   8.017   3.960   2.216
88369SOL    HW267005   8.126   3.926   2.117
88370SOL     OW67006  12.463   6.939   6.056
88370SOL    HW167007  12.404   6.918   5.983
88370SOL    HW267008  12.420   7.012   6.101
88371SOL     OW67009   7.453   2.323   2.117
88371SOL    HW167010   7.466   2.417   2.122
88371SOL    HW267011   7.534   2.286   2.153
88372SOL     OW67012   9.004   9.719   8.859
88372SOL    HW167013   8.988   9.660   8.786
88372SOL    HW267014   8.923   9.770   8.867
88373SOL     OW67015  11.740  13.315   3.162
88373SOL    HW167016  11.648  13.327   3.185
88373SOL    HW267017  11.787  13.373   3.222
88374SOL     OW67018   9.267   0.540  11.277
88374SOL    HW167019   9.267   0.487  11.356
88374SOL    HW267020   9.275   0.630  11.308
88375SOL     OW67021  14.496   0.575   4.159
88375SOL    HW167022  14.526   0.646   4.102
88375SOL    HW267023  14.419   0.540   4.114
88376SOL     OW67024  11.973   9.902  10.185
88376SOL    HW167025  11.986   9.823  10.132
88376SOL    HW267026  11.884   9.895  10.218
88377SOL     OW67027  11.706   1.846  11.847
88377SOL    HW167028  11.650   1.775  11.813
88377SOL    HW267029  11.647   1.898  11.901
88378SOL     OW67030   4.723   7.280   5.542
88378SOL    HW167031   4.808   7.323   5.550
88378SOL    HW267032   4.743   7.194   5.503
88379SOL     OW67033  13.058  12.486   2.384
88379SOL    HW167034  12.971  12.450   2.402
88379SOL    HW267035  13.049  12.580   2.399
88380SOL     OW67036  13.090  14.618  14.487
88380SOL    HW167037  13.126  14.563  14.417
88380SOL    HW267038  13.012  14.658  14.447
88381SOL     OW67039   1.842   7.161  10.983
88381SOL    HW167040   1.841   7.209  11.066
88381SOL    HW267041   1.800   7.220  10.921
88382SOL     OW67042   5.824  12.546  10.767
88382SOL    HW167043   5.825  12.639  10.793
88382SOL    HW267044   5.808  12.499  10.848
88383SOL     OW67045  14.255   8.609   2.600
88383SOL    HW167046  14.247   8.702   2.579
88383SOL    HW267047  14.250   8.605   2.695
88384SOL     OW67048  13.254  10.137  11.548
88384SOL    HW167049  13.271  10.135  11.453
88384SOL    HW267050  13.329  10.184  11.584
88385SOL     OW67051   5.174   2.886   1.291
88385SOL    HW167052   5.195   2.812   1.349
88385SOL    HW267053   5.116   2.849   1.225
88386SOL     OW67054   7.358  12.466   3.124
88386SOL    HW167055   7.302  12.467   3.202
88386SOL    HW267056   7.433  12.413   3.149
88387SOL     OW67057  10.550   1.252   6.944
88387SOL    HW167058  10.597   1.321   6.897
88387SOL    HW267059  10.581   1.258   7.034
88388SOL     OW67060   6.285  10.515  14.654
88388SOL    HW167061   6.277  10.600  14.698
88388SOL    HW267062   6.251  10.530  14.566
88389SOL     OW67063   0.714   2.526   9.819
88389SOL    HW167064   0.807   2.547   9.831
88389SOL    HW267065   0.687   2.488   9.902
88390SOL     OW67066  10.557   1.830  13.960
88390SOL    HW167067  10.466   1.862  13.956
88390SOL    HW267068  10.586   1.851  14.049
88391SOL     OW67069   5.416   2.900   9.341
88391SOL    HW167070   5.353   2.831   9.363
88391SOL    HW267071   5.490   2.885   9.400
88392SOL     OW67072   5.311   1.606  14.349
88392SOL    HW167073   5.268   1.547  14.410
88392SOL    HW267074   5.254   1.683  14.344
88393SOL     OW67075  13.826  12.775  12.194
88393SOL    HW167076  13.853  12.857  12.151
88393SOL    HW267077  13.803  12.801  12.283
88394SOL     OW67078  10.712   9.809   8.759
88394SOL    HW167079  10.686   9.888   8.712
88394SOL    HW267080  10.715   9.835   8.851
88395SOL     OW67081   9.800   5.254  12.409
88395SOL    HW167082   9.714   5.294  12.396
88395SOL    HW267083   9.787   5.162  12.387
88396SOL     OW67084   7.712   8.588  10.501
88396SOL    HW167085   7.796   8.556  10.535
88396SOL    HW267086   7.715   8.566  10.408
88397SOL     OW67087   5.559  14.301  13.359
88397SOL    HW167088   5.592  14.214  13.338
88397SOL    HW267089   5.474  14.285  13.402
88398SOL     OW67090   1.426   5.345  14.018
88398SOL    HW167091   1.349   5.298  13.986
88398SOL    HW267092   1.496   5.280  14.020
88399SOL     OW67093  14.584   9.270   5.763
88399SOL    HW167094  14.584   9.271   5.859
88399SOL    HW267095  14.583   9.363   5.739
88400SOL     OW67096   5.605   9.420  10.784
88400SOL    HW167097   5.629   9.508  10.813
88400SOL    HW267098   5.687   9.380  10.755
88401SOL     OW67099   8.254   6.261  14.437
88401SOL    HW167100   8.172   6.231  14.477
88401SOL    HW267101   8.231   6.279  14.346
88402SOL     OW67102   7.498  10.206   9.121
88402SOL    HW167103   7.404  10.224   9.117
88402SOL    HW267104   7.504  10.111   9.107
88403SOL     OW67105   1.822  12.957  13.454
88403SOL    HW167106   1.884  13.007  13.507
88403SOL    HW267107   1.761  13.022  13.419
88404SOL     OW67108   3.985   9.183  11.140
88404SOL    HW167109   4.024   9.220  11.219
88404SOL    HW267110   3.930   9.253  11.105
88405SOL     OW67111  10.142   3.584  12.131
88405SOL    HW167112  10.167   3.493  12.147
88405SOL    HW267113  10.218   3.622  12.086
88406SOL     OW67114   3.266   8.071   3.079
88406SOL    HW167115   3.346   8.043   3.036
88406SOL    HW267116   3.200   8.009   3.051
88407SOL     OW67117   1.219   8.225  13.817
88407SOL    HW167118   1.196   8.180  13.736
88407SOL    HW267119   1.261   8.158  13.871
88408SOL     OW67120  10.982   2.494   2.366
88408SOL    HW167121  11.054   2.536   2.319
88408SOL    HW267122  10.909   2.555   2.358
88409SOL     OW67123   5.069   8.520  10.118
88409SOL    HW167124   5.151   8.482  10.086
88409SOL    HW267125   5.027   8.557  10.040
88410SOL     OW67126   5.131   6.713   7.715
88410SOL    HW167127   5.048   6.751   7.687
88410SOL    HW267128   5.146   6.641   7.654
88411SOL     OW67129   2.857  12.295   3.886
88411SOL    HW167130   2.879  12.292   3.793
88411SOL    HW267131   2.939  12.323   3.928
88412SOL     OW67132   0.281   8.971  10.801
88412SOL    HW167133   0.208   8.957  10.741
88412SOL    HW267134   0.239   8.988  10.886
88413SOL     OW67135   9.864   7.148   0.510
88413SOL    HW167136   9.906   7.126   0.427
88413SOL    HW267137   9.907   7.229   0.537
88414SOL     OW67138   2.620   9.690   9.265
88414SOL    HW167139   2.539   9.683   9.215
88414SOL    HW267140   2.591   9.704   9.355
88415SOL     OW67141  11.408   6.642  14.418
88415SOL    HW167142  11.377   6.578  14.483
88415SOL    HW267143  11.504   6.639  14.426
88416SOL     OW67144  11.036   4.076   5.238
88416SOL    HW167145  11.044   4.164   5.201
88416SOL    HW267146  11.126   4.050   5.257
88417SOL     OW67147   1.204   2.029  13.595
88417SOL    HW167148   1.193   2.020  13.500
88417SOL    HW267149   1.298   2.046  13.606
88418SOL     OW67150  14.512   8.357  11.122
88418SOL    HW167151  14.447   8.289  11.135
88418SOL    HW267152  14.573   8.347  11.195
88419SOL     OW67153   2.858  14.000   0.809
88419SOL    HW167154   2.790  14.039   0.754
88419SOL    HW267155   2.896  13.931   0.756
88420SOL     OW67156   3.744   2.748   6.017
88420SOL    HW167157   3.648   2.752   6.022
88420SOL    HW267158   3.763   2.655   6.005
88421SOL     OW67159   5.392  10.601  13.183
88421SOL    HW167160   5.394  10.568  13.093
88421SOL    HW267161   5.399  10.522  13.238
88422SOL     OW67162   1.202   8.476  14.846
88422SOL    HW167163   1.222   8.516  14.761
88422SOL    HW267164   1.181   8.385  14.825
88423SOL     OW67165   5.581  10.299   0.612
88423SOL    HW167166   5.641  10.310   0.686
88423SOL    HW267167   5.632  10.252   0.547
88424SOL     OW67168   0.660   8.136   8.540
88424SOL    HW167169   0.741   8.137   8.592
88424SOL    HW267170   0.590   8.133   8.605
88425SOL     OW67171   9.165   0.339   0.838
88425SOL    HW167172   9.260   0.333   0.826
88425SOL    HW267173   9.129   0.325   0.751
88426SOL     OW67174   0.475   1.602  13.039
88426SOL    HW167175   0.528   1.682  13.041
88426SOL    HW267176   0.504   1.553  13.116
88427SOL     OW67177  11.938   0.628   1.965
88427SOL    HW167178  11.999   0.693   1.931
88427SOL    HW267179  11.927   0.651   2.057
88428SOL     OW67180   0.634  13.750  13.699
88428SOL    HW167181   0.694  13.693  13.747
88428SOL    HW267182   0.600  13.694  13.628
88429SOL     OW67183  11.486  11.353  10.433
88429SOL    HW167184  11.430  11.420  10.393
88429SOL    HW267185  11.504  11.387  10.520
88430SOL     OW67186   4.809  11.519   1.952
88430SOL    HW167187   4.760  11.563   2.022
88430SOL    HW267188   4.866  11.588   1.917
88431SOL     OW67189   7.997   9.142   0.516
88431SOL    HW167190   7.917   9.194   0.522
88431SOL    HW267191   7.968   9.055   0.490
88432SOL     OW67192   0.491  11.161  10.231
88432SOL    HW167193   0.438  11.085  10.256
88432SOL    HW267194   0.426  11.229  10.210
88433SOL     OW67195  14.236   5.713   2.302
88433SOL    HW167196  14.158   5.740   2.254
88433SOL    HW267197  14.308   5.754   2.255
88434SOL     OW67198   8.045   2.731   9.765
88434SOL    HW167199   8.013   2.745   9.855
88434SOL    HW267200   8.013   2.807   9.716
88435SOL     OW67201  14.325  10.989  12.651
88435SOL    HW167202  14.391  10.920  12.646
88435SOL    HW267203  14.301  11.006  12.560
88436SOL     OW67204  10.128  10.997   3.429
88436SOL    HW167205  10.080  10.927   3.474
88436SOL    HW267206  10.107  11.076   3.478
88437SOL     OW67207  12.354   5.696   6.509
88437SOL    HW167208  12.333   5.786   6.482
88437SOL    HW267209  12.343   5.644   6.430
88438SOL     OW67210   3.543   3.414   6.240
88438SOL    HW167211   3.604   3.402   6.312
88438SOL    HW267212   3.587   3.475   6.180
88439SOL     OW67213   1.203  11.158   3.156
88439SOL    HW167214   1.160  11.135   3.238
88439SOL    HW267215   1.132  11.188   3.099
88440SOL     OW67216   5.396   2.939   8.551
88440SOL    HW167217   5.375   3.032   8.557
88440SOL    HW267218   5.369   2.913   8.463
88441SOL     OW67219  12.996   8.390  11.679
88441SOL    HW167220  13.073   8.341  11.650
88441SOL    HW267221  12.980   8.453  11.608
88442SOL     OW67222  11.021   1.672  10.419
88442SOL    HW167223  11.112   1.655  10.398
88442SOL    HW267224  11.018   1.674  10.515
88443SOL     OW67225   3.496   4.423   5.038
88443SOL    HW167226   3.512   4.517   5.038
88443SOL    HW267227   3.442   4.408   5.116
88444SOL     OW67228   8.660  11.975   9.724
88444SOL    HW167229   8.582  12.017   9.763
88444SOL    HW267230   8.643  11.881   9.734
88445SOL     OW67231   4.920  13.705   1.943
88445SOL    HW167232   4.939  13.613   1.962
88445SOL    HW267233   4.834  13.720   1.982
88446SOL     OW67234   2.665  12.084  12.943
88446SOL    HW167235   2.674  12.054  12.852
88446SOL    HW267236   2.573  12.066  12.965
88447SOL     OW67237   7.811   6.181   4.172
88447SOL    HW167238   7.811   6.096   4.215
88447SOL    HW267239   7.756   6.236   4.228
88448SOL     OW67240   2.458   6.078   6.258
88448SOL    HW167241   2.545   6.079   6.298
88448SOL    HW267242   2.462   6.147   6.191
88449SOL     OW67243  14.241  13.742   8.353
88449SOL    HW167244  14.230  13.762   8.260
88449SOL    HW267245  14.175  13.796   8.396
88450SOL     OW67246  14.209   4.445  11.231
88450SOL    HW167247  14.124   4.423  11.192
88450SOL    HW267248  14.258   4.363  11.230
88451SOL     OW67249  10.575   1.729   8.168
88451SOL    HW167250  10.507   1.751   8.232
88451SOL    HW267251  10.528   1.686   8.097
88452SOL     OW67252  11.223  11.781  10.917
88452SOL    HW167253  11.302  11.753  10.871
88452SOL    HW267254  11.212  11.718  10.988
88453SOL     OW67255  12.239  12.947   4.420
88453SOL    HW167256  12.215  12.896   4.343
88453SOL    HW267257  12.175  13.018   4.423
88454SOL     OW67258   9.129   5.117  14.279
88454SOL    HW167259   9.206   5.169  14.254
88454SOL    HW267260   9.058   5.181  14.286
88455SOL     OW67261  12.270   4.379   1.559
88455SOL    HW167262  12.180   4.363   1.585
88455SOL    HW267263  12.273   4.472   1.536
88456SOL     OW67264   2.036   8.593  11.541
88456SOL    HW167265   2.131   8.594  11.558
88456SOL    HW267266   2.000   8.538  11.611
88457SOL     OW67267   5.316   7.449  13.712
88457SOL    HW167268   5.231   7.415  13.683
88457SOL    HW267269   5.377   7.378  13.695
88458SOL     OW67270   2.716  12.394   3.411
88458SOL    HW167271   2.711  12.412   3.317
88458SOL    HW267272   2.795  12.339   3.420
88459SOL     OW67273   1.137  12.464  12.287
88459SOL    HW167274   1.194  12.539  12.306
88459SOL    HW267275   1.131  12.417  12.370
88460SOL     OW67276   5.487  11.238   9.895
88460SOL    HW167277   5.582  11.229   9.895
88460SOL    HW267278   5.461  11.222   9.986
88461SOL     OW67279   3.594   0.521  13.644
88461SOL    HW167280   3.685   0.545  13.660
88461SOL    HW267281   3.543   0.584  13.695
88462SOL     OW67282   1.769  12.092   0.338
88462SOL    HW167283   1.702  12.050   0.393
88462SOL    HW267284   1.781  12.032   0.265
88463SOL     OW67285  11.893  12.060  14.379
88463SOL    HW167286  11.797  12.058  14.385
88463SOL    HW267287  11.911  12.073  14.286
88464SOL     OW67288   6.914  13.083   9.034
88464SOL    HW167289   6.957  13.067   8.950
88464SOL    HW267290   6.967  13.035   9.098
88465SOL     OW67291  10.280   3.615   7.492
88465SOL    HW167292  10.218   3.593   7.562
88465SOL    HW267293  10.234   3.591   7.412
88466SOL     OW67294   4.656   3.207   0.768
88466SOL    HW167295   4.645   3.299   0.791
88466SOL    HW267296   4.734   3.179   0.815
88467SOL     OW67297   8.566   1.805  13.760
88467SOL    HW167298   8.505   1.736  13.786
88467SOL    HW267299   8.546   1.877  13.820
88468SOL     OW67300   7.117   6.934   9.648
88468SOL    HW167301   7.186   7.000   9.652
88468SOL    HW267302   7.044   6.972   9.697
88469SOL     OW67303   7.675   1.477   8.142
88469SOL    HW167304   7.691   1.402   8.199
88469SOL    HW267305   7.718   1.454   8.060
88470SOL     OW67306   0.740   3.585  11.494
88470SOL    HW167307   0.798   3.539  11.433
88470SOL    HW267308   0.669   3.523  11.511
88471SOL     OW67309   0.158  12.319   7.413
88471SOL    HW167310   0.241  12.360   7.440
88471SOL    HW267311   0.117  12.293   7.495
88472SOL     OW67312   3.188   8.830   5.837
88472SOL    HW167313   3.276   8.866   5.838
88472SOL    HW267314   3.148   8.860   5.918
88473SOL     OW67315   0.764   9.457  11.052
88473SOL    HW167316   0.782   9.436  10.960
88473SOL    HW267317   0.847   9.493  11.084
88474SOL     OW67318   7.955  11.138  10.339
88474SOL    HW167319   7.926  11.126  10.429
88474SOL    HW267320   7.874  11.160  10.291
88475SOL     OW67321   5.126   2.595  14.132
88475SOL    HW167322   5.139   2.674  14.184
88475SOL    HW267323   5.215   2.560  14.119
88476SOL     OW67324  11.554   4.374  10.528
88476SOL    HW167325  11.639   4.359  10.487
88476SOL    HW267326  11.539   4.468  10.520
88477SOL     OW67327  14.332   1.338  10.898
88477SOL    HW167328  14.369   1.332  10.986
88477SOL    HW267329  14.352   1.428  10.870
88478SOL     OW67330   7.768   0.446   3.742
88478SOL    HW167331   7.705   0.401   3.686
88478SOL    HW267332   7.794   0.381   3.807
88479SOL     OW67333   9.289  13.484   1.758
88479SOL    HW167334   9.370  13.444   1.791
88479SOL    HW267335   9.319  13.559   1.707
88480SOL     OW67336   4.388   7.590   2.127
88480SOL    HW167337   4.324   7.527   2.159
88480SOL    HW267338   4.414   7.639   2.205
88481SOL     OW67339   9.085  13.021   9.648
88481SOL    HW167340   9.109  13.012   9.740
88481SOL    HW267341   9.054  13.111   9.640
88482SOL     OW67342   3.598   0.983   4.921
88482SOL    HW167343   3.607   0.888   4.918
88482SOL    HW267344   3.666   1.016   4.861
88483SOL     OW67345  11.528   0.462  11.117
88483SOL    HW167346  11.557   0.552  11.113
88483SOL    HW267347  11.509   0.439  11.026
88484SOL     OW67348  12.950   5.903   6.573
88484SOL    HW167349  13.013   5.957   6.621
88484SOL    HW267350  12.948   5.941   6.485
88485SOL     OW67351   9.212  11.477   2.948
88485SOL    HW167352   9.209  11.430   2.865
88485SOL    HW267353   9.235  11.567   2.925
88486SOL     OW67354   7.361   5.608   1.570
88486SOL    HW167355   7.388   5.533   1.517
88486SOL    HW267356   7.293   5.573   1.628
88487SOL     OW67357   3.573   5.191   9.027
88487SOL    HW167358   3.645   5.209   9.086
88487SOL    HW267359   3.585   5.252   8.954
88488SOL     OW67360   5.620  10.933   8.923
88488SOL    HW167361   5.633  10.908   8.831
88488SOL    HW267362   5.615  10.851   8.970
88489SOL     OW67363   8.131   8.380   6.008
88489SOL    HW167364   8.106   8.380   6.100
88489SOL    HW267365   8.150   8.288   5.989
88490SOL     OW67366   4.464   3.054   8.767
88490SOL    HW167367   4.513   2.979   8.799
88490SOL    HW267368   4.393   3.065   8.831
88491SOL     OW67369   3.141   2.435   1.835
88491SOL    HW167370   3.098   2.428   1.750
88491SOL    HW267371   3.070   2.433   1.898
88492SOL     OW67372   8.505  13.620  11.899
88492SOL    HW167373   8.541  13.604  11.812
88492SOL    HW267374   8.491  13.533  11.936
88493SOL     OW67375   4.345   9.081  14.728
88493SOL    HW167376   4.286   9.063  14.801
88493SOL    HW267377   4.428   9.042  14.755
88494SOL     OW67378   6.200   4.909   2.086
88494SOL    HW167379   6.142   4.953   2.149
88494SOL    HW267380   6.266   4.866   2.141
88495SOL     OW67381   3.399   9.657   0.067
88495SOL    HW167382   3.405   9.702  14.855
88495SOL    HW267383   3.382   9.726   0.131
88496SOL     OW67384  10.559   9.991   4.056
88496SOL    HW167385  10.644   9.956   4.029
88496SOL    HW267386  10.499   9.965   3.986
88497SOL     OW67387   3.871   2.908  10.688
88497SOL    HW167388   3.807   2.860  10.741
88497SOL    HW267389   3.939   2.935  10.750
88498SOL     OW67390  13.115  13.847  10.345
88498SOL    HW167391  13.077  13.929  10.375
88498SOL    HW267392  13.093  13.843  10.252
88499SOL     OW67393   7.172  12.206   1.516
88499SOL    HW167394   7.224  12.215   1.436
88499SOL    HW267395   7.234  12.170   1.580
88500SOL     OW67396   3.429   9.001   6.403
88500SOL    HW167397   3.357   9.064   6.402
88500SOL    HW267398   3.478   9.021   6.482
88501SOL     OW67399   2.607  12.376   2.864
88501SOL    HW167400   2.701  12.370   2.882
88501SOL    HW267401   2.578  12.451   2.916
88502SOL     OW67402  13.557   7.620   5.396
88502SOL    HW167403  13.594   7.698   5.437
88502SOL    HW267404  13.508   7.577   5.467
88503SOL     OW67405   1.568   3.837   1.684
88503SOL    HW167406   1.659   3.825   1.655
88503SOL    HW267407   1.544   3.924   1.651
88504SOL     OW67408  12.961   1.805  10.574
88504SOL    HW167409  13.042   1.856  10.584
88504SOL    HW267410  12.972   1.732  10.634
88505SOL     OW67411   4.254  10.963   7.962
88505SOL    HW167412   4.308  11.011   8.025
88505SOL    HW267413   4.167  10.964   8.000
88506SOL     OW67414   7.075   0.956   1.322
88506SOL    HW167415   7.059   0.913   1.406
88506SOL    HW267416   7.169   0.947   1.308
88507SOL     OW67417   5.325   9.216   6.536
88507SOL    HW167418   5.251   9.203   6.478
88507SOL    HW267419   5.379   9.138   6.524
88508SOL     OW67420  14.202  13.380   5.874
88508SOL    HW167421  14.213  13.313   5.807
88508SOL    HW267422  14.206  13.332   5.957
88509SOL     OW67423   2.790   0.318   1.906
88509SOL    HW167424   2.882   0.305   1.885
88509SOL    HW267425   2.742   0.275   1.835
88510SOL     OW67426   4.013   5.844   1.036
88510SOL    HW167427   3.972   5.896   0.967
88510SOL    HW267428   4.051   5.769   0.989
88511SOL     OW67429  13.671   9.291   5.277
88511SOL    HW167430  13.722   9.263   5.200
88511SOL    HW267431  13.694   9.228   5.345
88512SOL     OW67432   8.724   0.576   0.075
88512SOL    HW167433   8.799   0.566   0.015
88512SOL    HW267434   8.765   0.591   0.161
88513SOL     OW67435   3.747  12.627  10.706
88513SOL    HW167436   3.676  12.679  10.668
88513SOL    HW267437   3.824  12.683  10.699
88514SOL     OW67438   6.249   6.521   2.272
88514SOL    HW167439   6.299   6.574   2.210
88514SOL    HW267440   6.160   6.521   2.238
88515SOL     OW67441   3.982   4.376   3.441
88515SOL    HW167442   3.927   4.298   3.445
88515SOL    HW267443   4.004   4.394   3.533
88516SOL     OW67444   9.445   8.465   6.834
88516SOL    HW167445   9.431   8.496   6.923
88516SOL    HW267446   9.441   8.544   6.780
88517SOL     OW67447   6.507  11.347   7.227
88517SOL    HW167448   6.575  11.283   7.246
88517SOL    HW267449   6.426  11.297   7.223
88518SOL     OW67450  12.624  12.186  11.733
88518SOL    HW167451  12.572  12.205  11.655
88518SOL    HW267452  12.715  12.191  11.703
88519SOL     OW67453   5.810   6.232  10.718
88519SOL    HW167454   5.812   6.253  10.811
88519SOL    HW267455   5.902   6.217  10.695
88520SOL     OW67456   0.136   6.126   9.856
88520SOL    HW167457   0.119   6.119   9.950
88520SOL    HW267458   0.209   6.188   9.850
88521SOL     OW67459   2.959  11.234  13.757
88521SOL    HW167460   2.973  11.152  13.711
88521SOL    HW267461   3.028  11.237  13.822
88522SOL     OW67462   7.291   8.530   1.619
88522SOL    HW167463   7.372   8.479   1.619
88522SOL    HW267464   7.311   8.609   1.568
88523SOL     OW67465   6.520  13.493   8.237
88523SOL    HW167466   6.502  13.584   8.214
88523SOL    HW267467   6.594  13.468   8.181
88524SOL     OW67468   4.239   1.780  14.657
88524SOL    HW167469   4.155   1.763  14.614
88524SOL    HW267470   4.274   1.693  14.677
88525SOL     OW67471  11.589   6.297  12.591
88525SOL    HW167472  11.608   6.389  12.569
88525SOL    HW267473  11.503   6.282  12.552
88526SOL     OW67474   5.924   8.819   6.165
88526SOL    HW167475   5.942   8.752   6.099
88526SOL    HW267476   5.838   8.854   6.142
88527SOL     OW67477   9.908  12.472  12.295
88527SOL    HW167478   9.939  12.548  12.344
88527SOL    HW267479   9.908  12.500  12.204
88528SOL     OW67480  13.896   0.703   8.422
88528SOL    HW167481  13.803   0.683   8.410
88528SOL    HW267482  13.898   0.795   8.448
88529SOL     OW67483   4.639  13.600   9.304
88529SOL    HW167484   4.716  13.605   9.360
88529SOL    HW267485   4.592  13.523   9.335
88530SOL     OW67486   0.797   5.247  14.375
88530SOL    HW167487   0.807   5.339  14.349
88530SOL    HW267488   0.827   5.197  14.299
88531SOL     OW67489   7.588   7.372  11.097
88531SOL    HW167490   7.541   7.288  11.095
88531SOL    HW267491   7.550   7.419  11.171
88532SOL     OW67492   1.649  11.185  10.741
88532SOL    HW167493   1.720  11.208  10.801
88532SOL    HW267494   1.642  11.260  10.682
88533SOL     OW67495   1.301   4.041  11.289
88533SOL    HW167496   1.267   3.960  11.250
88533SOL    HW267497   1.385   4.055  11.247
88534SOL     OW67498  14.609   4.655   6.115
88534SOL    HW167499  14.570   4.728   6.066
88534SOL    HW267500  14.617   4.688   6.205
88535SOL     OW67501  13.246  12.026   1.278
88535SOL    HW167502  13.242  12.113   1.319
88535SOL    HW267503  13.191  12.034   1.200
88536SOL     OW67504   5.719   4.978  11.806
88536SOL    HW167505   5.798   4.972  11.752
88536SOL    HW267506   5.654   5.018  11.749
88537SOL     OW67507   7.316   7.820   3.709
88537SOL    HW167508   7.304   7.914   3.704
88537SOL    HW267509   7.378   7.808   3.781
88538SOL     OW67510   2.521   7.559   4.274
88538SOL    HW167511   2.600   7.584   4.323
88538SOL    HW267512   2.458   7.533   4.342
88539SOL     OW67513  13.933   8.821   1.508
88539SOL    HW167514  13.857   8.867   1.474
88539SOL    HW267515  14.008   8.867   1.470
88540SOL     OW67516   1.855   9.996   0.578
88540SOL    HW167517   1.765  10.000   0.548
88540SOL    HW267518   1.855   9.927   0.644
88541SOL     OW67519   8.730   2.234   2.937
88541SOL    HW167520   8.696   2.153   2.975
88541SOL    HW267521   8.788   2.205   2.866
88542SOL     OW67522   0.407   6.021  10.364
88542SOL    HW167523   0.411   6.093  10.426
88542SOL    HW267524   0.466   6.046  10.293
88543SOL     OW67525  14.217   3.364  13.308
88543SOL    HW167526  14.264   3.447  13.312
88543SOL    HW267527  14.127   3.385  13.332
88544SOL     OW67528   3.728   6.821   9.882
88544SOL    HW167529   3.818   6.839   9.852
88544SOL    HW267530   3.683   6.906   9.875
88545SOL     OW67531  13.366  14.227   1.324
88545SOL    HW167532  13.414  14.146   1.344
88545SOL    HW267533  13.274  14.204   1.336
88546SOL     OW67534  13.408   5.579  14.564
88546SOL    HW167535  13.395   5.533  14.481
88546SOL    HW267536  13.349   5.655  14.558
88547SOL     OW67537   0.555  13.399   0.840
88547SOL    HW167538   0.490  13.392   0.910
88547SOL    HW267539   0.535  13.327   0.781
88548SOL     OW67540   2.879  10.731  14.871
88548SOL    HW167541   2.826  10.674  14.815
88548SOL    HW267542   2.966  10.729  14.831
88549SOL     OW67543  12.079  11.124   2.094
88549SOL    HW167544  12.040  11.037   2.090
88549SOL    HW267545  12.148  11.122   2.027
88550SOL     OW67546   7.462   3.188  14.538
88550SOL    HW167547   7.450   3.151  14.625
88550SOL    HW267548   7.387   3.247  14.526
88551SOL     OW67549   3.998  14.192   9.049
88551SOL    HW167550   3.958  14.107   9.065
88551SOL    HW267551   4.017  14.227   9.136
88552SOL     OW67552  13.224  10.824   9.490
88552SOL    HW167553  13.204  10.825   9.396
88552SOL    HW267554  13.199  10.911   9.521
88553SOL     OW67555   9.218   7.132   5.187
88553SOL    HW167556   9.300   7.140   5.236
88553SOL    HW267557   9.151   7.163   5.248
88554SOL     OW67558   0.826   4.515   9.228
88554SOL    HW167559   0.895   4.461   9.190
88554SOL    HW267560   0.819   4.590   9.169
88555SOL     OW67561   6.555   3.693   3.297
88555SOL    HW167562   6.465   3.703   3.329
88555SOL    HW267563   6.546   3.646   3.214
88556SOL     OW67564   5.217   9.154   9.253
88556SOL    HW167565   5.280   9.163   9.324
88556SOL    HW267566   5.265   9.107   9.185
88557SOL     OW67567   2.447   4.549  11.936
88557SOL    HW167568   2.526   4.597  11.910
88557SOL    HW267569   2.446   4.472  11.880
88558SOL     OW67570  13.213  14.614   9.179
88558SOL    HW167571  13.217  14.524   9.147
88558SOL    HW267572  13.216  14.668   9.100
88559SOL     OW67573   9.143  11.711   4.609
88559SOL    HW167574   9.193  11.654   4.667
88559SOL    HW267575   9.059  11.723   4.653
88560SOL     OW67576   5.994   3.610   9.827
88560SOL    HW167577   6.031   3.534   9.872
88560SOL    HW267578   6.067   3.671   9.818
88561SOL     OW67579   5.544  13.174   6.384
88561SOL    HW167580   5.545  13.153   6.291
88561SOL    HW267581   5.483  13.248   6.392
88562SOL     OW67582   8.126   9.233   8.690
88562SOL    HW167583   8.053   9.171   8.681
88562SOL    HW267584   8.086   9.310   8.732
88563SOL     OW67585   6.557  14.389   5.937
88563SOL    HW167586   6.647  14.360   5.953
88563SOL    HW267587   6.515  14.314   5.895
88564SOL     OW67588  11.795   5.895   9.259
88564SOL    HW167589  11.869   5.835   9.259
88564SOL    HW267590  11.718   5.838   9.264
88565SOL     OW67591  12.629  13.078   0.020
88565SOL    HW167592  12.647  13.031  14.811
88565SOL    HW267593  12.620  13.170  14.865
88566SOL     OW67594  11.748  14.698  13.689
88566SOL    HW167595  11.841  14.695  13.665
88566SOL    HW267596  11.704  14.645  13.622
88567SOL     OW67597   3.368   6.541  12.810
88567SOL    HW167598   3.319   6.597  12.871
88567SOL    HW267599   3.438   6.597  12.777
88568SOL     OW67600   4.714   4.373  10.529
88568SOL    HW167601   4.646   4.314  10.495
88568SOL    HW267602   4.715   4.356  10.623
88569SOL     OW67603  11.727  13.120   7.033
88569SOL    HW167604  11.822  13.122   7.043
88569SOL    HW267605  11.694  13.173   7.106
88570SOL     OW67606   6.146   4.464   4.158
88570SOL    HW167607   6.166   4.550   4.121
88570SOL    HW267608   6.208   4.454   4.231
88571SOL     OW67609   5.045  13.996   4.943
88571SOL    HW167610   5.009  14.084   4.955
88571SOL    HW267611   5.092  13.978   5.024
88572SOL     OW67612   7.060   4.936   1.923
88572SOL    HW167613   6.974   4.910   1.956
88572SOL    HW267614   7.069   4.888   1.840
88573SOL     OW67615   7.686  13.570   3.455
88573SOL    HW167616   7.741  13.588   3.378
88573SOL    HW267617   7.749  13.553   3.525
88574SOL     OW67618  14.377   9.857   3.889
88574SOL    HW167619  14.432   9.781   3.872
88574SOL    HW267620  14.337   9.877   3.804
88575SOL     OW67621   0.414   5.898   9.691
88575SOL    HW167622   0.328   5.882   9.731
88575SOL    HW267623   0.427   5.823   9.632
88576SOL     OW67624   3.725  12.252   6.435
88576SOL    HW167625   3.673  12.302   6.497
88576SOL    HW267626   3.688  12.164   6.438
88577SOL     OW67627   5.642  13.820  14.217
88577SOL    HW167628   5.679  13.905  14.238
88577SOL    HW267629   5.600  13.832  14.131
88578SOL     OW67630  12.367   2.603   3.289
88578SOL    HW167631  12.377   2.685   3.338
88578SOL    HW267632  12.320   2.545   3.349
88579SOL     OW67633  13.894   6.496   8.401
88579SOL    HW167634  13.937   6.411   8.389
88579SOL    HW267635  13.898   6.538   8.316
88580SOL     OW67636   2.727   7.296  13.917
88580SOL    HW167637   2.656   7.303  13.980
88580SOL    HW267638   2.774   7.379  13.924
88581SOL     OW67639  10.681   1.352  10.944
88581SOL    HW167640  10.701   1.387  11.031
88581SOL    HW267641  10.593   1.317  10.953
88582SOL     OW67642   8.160   9.776  10.083
88582SOL    HW167643   8.173   9.706  10.019
88582SOL    HW267644   8.070   9.805  10.068
88583SOL     OW67645  14.043   5.051   5.916
88583SOL    HW167646  13.992   4.971   5.903
88583SOL    HW267647  13.978   5.117   5.940
88584SOL     OW67648   8.868   6.060   5.813
88584SOL    HW167649   8.963   6.057   5.799
88584SOL    HW267650   8.831   6.050   5.726
88585SOL     OW67651  11.608   0.717   4.009
88585SOL    HW167652  11.698   0.708   4.041
88585SOL    HW267653  11.561   0.758   4.082
88586SOL     OW67654  12.483   1.885  11.278
88586SOL    HW167655  12.398   1.857  11.311
88586SOL    HW267656  12.540   1.882  11.354
88587SOL     OW67657   3.640   8.220   5.655
88587SOL    HW167658   3.716   8.265   5.618
88587SOL    HW267659   3.581   8.207   5.581
88588SOL     OW67660   0.652   4.535   1.203
88588SOL    HW167661   0.739   4.519   1.240
88588SOL    HW267662   0.594   4.474   1.248
88589SOL     OW67663   5.147   2.326   1.441
88589SOL    HW167664   5.185   2.309   1.527
88589SOL    HW267665   5.053   2.316   1.453
88590SOL     OW67666   4.322  14.028  14.242
88590SOL    HW167667   4.284  13.973  14.173
88590SOL    HW267668   4.379  14.089  14.196
88591SOL     OW67669   8.347   0.274   5.196
88591SOL    HW167670   8.386   0.226   5.269
88591SOL    HW267671   8.417   0.280   5.131
88592SOL     OW67672   8.089   5.689   1.944
88592SOL    HW167673   8.071   5.782   1.937
88592SOL    HW267674   8.095   5.672   2.038
88593SOL     OW67675   8.349   0.088   5.766
88593SOL    HW167676   8.391   0.028   5.828
88593SOL    HW267677   8.268   0.114   5.810
88594SOL     OW67678   9.592  11.894   8.064
88594SOL    HW167679   9.540  11.867   8.139
88594SOL    HW267680   9.650  11.819   8.047
88595SOL     OW67681   3.515   8.917   5.192
88595SOL    HW167682   3.571   8.878   5.258
88595SOL    HW267683   3.502   8.849   5.126
88596SOL     OW67684   9.496   3.039   0.229
88596SOL    HW167685   9.422   3.024   0.287
88596SOL    HW267686   9.563   2.978   0.260
88597SOL     OW67687   9.697   1.639   9.365
88597SOL    HW167688   9.682   1.596   9.281
88597SOL    HW267689   9.612   1.676   9.389
88598SOL     OW67690   4.729  11.686   5.664
88598SOL    HW167691   4.764  11.681   5.754
88598SOL    HW267692   4.668  11.613   5.659
88599SOL     OW67693   1.043   7.360   8.313
88599SOL    HW167694   1.027   7.317   8.397
88599SOL    HW267695   1.069   7.289   8.255
88600SOL     OW67696   4.067   1.053   8.828
88600SOL    HW167697   4.011   1.124   8.859
88600SOL    HW267698   4.073   0.992   8.901
88601SOL     OW67699   0.672   9.005   7.982
88601SOL    HW167700   0.710   8.982   7.897
88601SOL    HW267701   0.696   8.932   8.039
88602SOL     OW67702   7.824  10.658   7.868
88602SOL    HW167703   7.740  10.688   7.833
88602SOL    HW267704   7.863  10.606   7.798
88603SOL     OW67705   7.578   1.532   1.592
88603SOL    HW167706   7.494   1.557   1.630
88603SOL    HW267707   7.641   1.545   1.662
88604SOL     OW67708   5.417   1.434  12.985
88604SOL    HW167709   5.490   1.478  12.942
88604SOL    HW267710   5.426   1.457  13.078
88605SOL     OW67711   4.620   8.349  13.735
88605SOL    HW167712   4.536   8.309  13.759
88605SOL    HW267713   4.631   8.422  13.796
88606SOL     OW67714  12.833   5.709   1.451
88606SOL    HW167715  12.781   5.644   1.497
88606SOL    HW267716  12.850   5.670   1.365
88607SOL     OW67717   2.627  13.765  14.800
88607SOL    HW167718   2.551  13.815  14.770
88607SOL    HW267719   2.595  13.718   0.006
88608SOL     OW67720  10.035   7.838   3.478
88608SOL    HW167721  10.030   7.819   3.572
88608SOL    HW267722   9.999   7.926   3.470
88609SOL     OW67723  11.160   5.049  12.001
88609SOL    HW167724  11.231   5.052  12.065
88609SOL    HW267725  11.137   4.956  11.995
88610SOL     OW67726   7.365   4.864   3.875
88610SOL    HW167727   7.431   4.919   3.916
88610SOL    HW267728   7.362   4.785   3.930
88611SOL     OW67729  11.265  12.779   6.530
88611SOL    HW167730  11.230  12.868   6.530
88611SOL    HW267731  11.359  12.791   6.520
88612SOL     OW67732  14.176  11.416   2.611
88612SOL    HW167733  14.085  11.389   2.604
88612SOL    HW267734  14.212  11.363   2.682
88613SOL     OW67735   7.932   9.160   1.553
88613SOL    HW167736   7.882   9.206   1.485
88613SOL    HW267737   7.866   9.112   1.603
88614SOL     OW67738   9.700   5.456   7.782
88614SOL    HW167739   9.641   5.385   7.756
88614SOL    HW267740   9.727   5.497   7.700
88615SOL     OW67741   9.535   4.238  12.280
88615SOL    HW167742   9.454   4.211  12.324
88615SOL    HW267743   9.595   4.164  12.293
88616SOL     OW67744   7.129   1.077  12.358
88616SOL    HW167745   7.065   1.031  12.412
88616SOL    HW267746   7.196   1.012  12.339
88617SOL     OW67747  12.123   2.207   0.792
88617SOL    HW167748  12.217   2.205   0.809
88617SOL    HW267749  12.115   2.203   0.697
88618SOL     OW67750  14.675   2.307   2.215
88618SOL    HW167751  14.582   2.324   2.199
88618SOL    HW267752  14.717   2.322   2.130
88619SOL     OW67753   1.555   9.250  13.390
88619SOL    HW167754   1.563   9.327  13.334
88619SOL    HW267755   1.461   9.232  13.394
88620SOL     OW67756   4.404  12.883  10.319
88620SOL    HW167757   4.426  12.972  10.347
88620SOL    HW267758   4.475  12.829  10.353
88621SOL     OW67759   9.710   9.870  12.463
88621SOL    HW167760   9.680   9.780  12.471
88621SOL    HW267761   9.677   9.913  12.542
88622SOL     OW67762   1.362  14.082   5.480
88622SOL    HW167763   1.311  14.002   5.489
88622SOL    HW267764   1.433  14.059   5.420
88623SOL     OW67765   3.691   8.331  10.406
88623SOL    HW167766   3.756   8.377  10.354
88623SOL    HW267767   3.625   8.303  10.343
88624SOL     OW67768  10.203  10.151  14.817
88624SOL    HW167769  10.299  10.145  14.821
88624SOL    HW267770  10.185  10.244  14.806
88625SOL     OW67771  10.919  12.765   7.470
88625SOL    HW167772  10.896  12.844   7.421
88625SOL    HW267773  10.837  12.716   7.476
88626SOL     OW67774  14.233   4.005   9.286
88626SOL    HW167775  14.230   4.077   9.222
88626SOL    HW267776  14.296   4.034   9.352
88627SOL     OW67777  14.068  11.265  13.761
88627SOL    HW167778  14.075  11.306  13.848
88627SOL    HW267779  13.989  11.211  13.766
88628SOL     OW67780   1.069   9.088   9.167
88628SOL    HW167781   1.124   9.035   9.109
88628SOL    HW267782   1.022   9.024   9.221
88629SOL     OW67783   3.542   0.702   1.232
88629SOL    HW167784   3.479   0.668   1.168
88629SOL    HW267785   3.628   0.690   1.190
88630SOL     OW67786   7.546  13.755  14.460
88630SOL    HW167787   7.517  13.683  14.405
88630SOL    HW267788   7.598  13.713  14.529
88631SOL     OW67789  10.643  12.970   8.076
88631SOL    HW167790  10.729  12.993   8.041
88631SOL    HW267791  10.655  12.884   8.116
88632SOL     OW67792   9.440   7.511   1.781
88632SOL    HW167793   9.523   7.525   1.826
88632SOL    HW267794   9.395   7.596   1.787
88633SOL     OW67795   8.409   5.553   5.865
88633SOL    HW167796   8.370   5.605   5.794
88633SOL    HW267797   8.391   5.462   5.841
88634SOL     OW67798   1.525  14.016   1.844
88634SOL    HW167799   1.433  14.034   1.827
88634SOL    HW267800   1.568  14.033   1.760
88635SOL     OW67801   8.196  11.730   5.833
88635SOL    HW167802   8.234  11.752   5.918
88635SOL    HW267803   8.261  11.674   5.791
88636SOL     OW67804   5.653  12.673  11.088
88636SOL    HW167805   5.715  12.718  11.031
88636SOL    HW267806   5.637  12.734  11.160
88637SOL     OW67807   6.934   1.692  14.297
88637SOL    HW167808   7.002   1.759  14.309
88637SOL    HW267809   6.911   1.698  14.204
88638SOL     OW67810  13.977   7.993   1.713
88638SOL    HW167811  14.007   8.084   1.707
88638SOL    HW267812  13.954   7.981   1.805
88639SOL     OW67813   9.907  12.302   4.831
88639SOL    HW167814   9.867  12.316   4.746
88639SOL    HW267815   9.947  12.215   4.825
88640SOL     OW67816   1.669  14.066   4.270
88640SOL    HW167817   1.575  14.049   4.276
88640SOL    HW267818   1.693  14.035   4.183
88641SOL     OW67819   6.659   5.607   6.645
88641SOL    HW167820   6.747   5.643   6.636
88641SOL    HW267821   6.601   5.681   6.632
88642SOL     OW67822   7.685   6.733   7.527
88642SOL    HW167823   7.592   6.710   7.524
88642SOL    HW267824   7.719   6.705   7.441
88643SOL     OW67825   4.742   1.861   2.695
88643SOL    HW167826   4.795   1.800   2.643
88643SOL    HW267827   4.664   1.811   2.719
88644SOL     OW67828   8.919   1.643  10.436
88644SOL    HW167829   9.014   1.649  10.422
88644SOL    HW267830   8.909   1.575  10.503
88645SOL     OW67831  11.308   9.037   2.331
88645SOL    HW167832  11.397   9.006   2.316
88645SOL    HW267833  11.308   9.068   2.421
88646SOL     OW67834   0.019   2.596   8.316
88646SOL    HW167835   0.097   2.622   8.366
88646SOL    HW267836  14.821   2.591   8.381
88647SOL     OW67837   7.486  12.545   6.715
88647SOL    HW167838   7.471  12.639   6.722
88647SOL    HW267839   7.488  12.514   6.805
88648SOL     OW67840  11.504   1.432   4.420
88648SOL    HW167841  11.579   1.486   4.394
88648SOL    HW267842  11.430   1.493   4.420
88649SOL     OW67843   6.244   4.902   5.508
88649SOL    HW167844   6.332   4.936   5.492
88649SOL    HW267845   6.205   4.893   5.421
88650SOL     OW67846  12.861   3.569   5.383
88650SOL    HW167847  12.771   3.540   5.370
88650SOL    HW267848  12.914   3.490   5.373
88651SOL     OW67849  13.311   0.899   7.283
88651SOL    HW167850  13.355   0.849   7.214
88651SOL    HW267851  13.383   0.944   7.328
88652SOL     OW67852  14.437   1.090   7.345
88652SOL    HW167853  14.404   1.112   7.432
88652SOL    HW267854  14.532   1.093   7.354
88653SOL     OW67855   6.531   7.827   3.210
88653SOL    HW167856   6.608   7.858   3.163
88653SOL    HW267857   6.486   7.770   3.148
88654SOL     OW67858   9.925   8.096   3.531
88654SOL    HW167859   9.876   8.081   3.450
88654SOL    HW267860   9.949   8.189   3.528
88655SOL     OW67861   4.528  13.683   3.637
88655SOL    HW167862   4.462  13.647   3.578
88655SOL    HW267863   4.580  13.742   3.581
88656SOL     OW67864   0.511   7.038   5.403
88656SOL    HW167865   0.454   6.989   5.461
88656SOL    HW267866   0.475   7.024   5.315
88657SOL     OW67867  11.768   1.078  14.423
88657SOL    HW167868  11.769   1.170  14.398
88657SOL    HW267869  11.706   1.074  14.497
88658SOL     OW67870   7.665   5.696   3.043
88658SOL    HW167871   7.580   5.701   2.999
88658SOL    HW267872   7.698   5.786   3.041
88659SOL     OW67873   1.999   4.554  12.479
88659SOL    HW167874   1.968   4.465  12.495
88659SOL    HW267875   2.094   4.545  12.467
88660SOL     OW67876   8.662   5.340   2.300
88660SOL    HW167877   8.615   5.260   2.321
88660SOL    HW267878   8.627   5.366   2.215
88661SOL     OW67879  13.985   1.357   2.850
88661SOL    HW167880  13.890   1.356   2.841
88661SOL    HW267881  14.017   1.333   2.763
88662SOL     OW67882  12.879   8.368   8.840
88662SOL    HW167883  12.953   8.402   8.791
88662SOL    HW267884  12.916   8.339   8.924
88663SOL     OW67885   1.692   3.680   0.620
88663SOL    HW167886   1.617   3.622   0.632
88663SOL    HW267887   1.769   3.625   0.636
88664SOL     OW67888   2.071   8.308   9.764
88664SOL    HW167889   2.039   8.267   9.844
88664SOL    HW267890   2.031   8.259   9.693
88665SOL     OW67891   4.898   5.399   0.154
88665SOL    HW167892   4.990   5.380   0.135
88665SOL    HW267893   4.849   5.338   0.098
88666SOL     OW67894   2.677   8.229  14.834
88666SOL    HW167895   2.598   8.284  14.831
88666SOL    HW267896   2.697   8.210  14.743
88667SOL     OW67897   3.338   0.635  11.483
88667SOL    HW167898   3.331   0.611  11.576
88667SOL    HW267899   3.419   0.685  11.477
88668SOL     OW67900   9.180   7.908   6.243
88668SOL    HW167901   9.234   7.903   6.164
88668SOL    HW267902   9.225   7.971   6.299
88669SOL     OW67903   2.662  13.089   2.141
88669SOL    HW167904   2.648  13.002   2.104
88669SOL    HW267905   2.577  13.133   2.133
88670SOL     OW67906   0.796   7.407  10.330
88670SOL    HW167907   0.713   7.454  10.339
88670SOL    HW267908   0.770   7.318  10.303
88671SOL     OW67909  14.395   1.313  12.357
88671SOL    HW167910  14.326   1.344  12.416
88671SOL    HW267911  14.355   1.313  12.270
88672SOL     OW67912   5.910   0.575   3.749
88672SOL    HW167913   5.985   0.624   3.782
88672SOL    HW267914   5.948   0.511   3.689
88673SOL     OW67915  10.168   4.750   9.532
88673SOL    HW167916  10.215   4.775   9.612
88673SOL    HW267917  10.143   4.659   9.546
88674SOL     OW67918   7.507   4.661   4.824
88674SOL    HW167919   7.433   4.605   4.798
88674SOL    HW267920   7.528   4.709   4.744
88675SOL     OW67921   4.681  14.580  13.668
88675SOL    HW167922   4.716  14.493  13.648
88675SOL    HW267923   4.601  14.586  13.616
88676SOL     OW67924  10.150  10.718  12.022
88676SOL    HW167925  10.192  10.781  11.964
88676SOL    HW267926  10.127  10.645  11.965
88677SOL     OW67927   5.987   3.231   9.056
88677SOL    HW167928   5.985   3.143   9.093
88677SOL    HW267929   5.901   3.243   9.017
88678SOL     OW67930   5.827   5.778   5.116
88678SOL    HW167931   5.871   5.825   5.186
88678SOL    HW267932   5.886   5.706   5.094
88679SOL     OW67933   6.960   4.252   8.771
88679SOL    HW167934   6.878   4.298   8.786
88679SOL    HW267935   6.934   4.164   8.743
88680SOL     OW67936   6.208   4.651   2.510
88680SOL    HW167937   6.189   4.557   2.510
88680SOL    HW267938   6.296   4.658   2.546
88681SOL     OW67939  11.558  11.385   8.623
88681SOL    HW167940  11.555  11.327   8.547
88681SOL    HW267941  11.643  11.428   8.617
88682SOL     OW67942  12.406  14.097   9.036
88682SOL    HW167943  12.369  14.182   9.011
88682SOL    HW267944  12.499  14.115   9.051
88683SOL     OW67945  12.923  12.925  13.592
88683SOL    HW167946  12.918  12.906  13.686
88683SOL    HW267947  12.849  12.982  13.574
88684SOL     OW67948   0.035  12.881   8.697
88684SOL    HW167949   0.099  12.869   8.767
88684SOL    HW267950  14.825  12.902   8.743
88685SOL     OW67951   3.874  10.459   1.879
88685SOL    HW167952   3.794  10.504   1.907
88685SOL    HW267953   3.930  10.459   1.956
88686SOL     OW67954   8.771  11.409   4.704
88686SOL    HW167955   8.855  11.425   4.745
88686SOL    HW267956   8.792  11.383   4.614
88687SOL     OW67957   8.820   2.428   3.573
88687SOL    HW167958   8.859   2.408   3.487
88687SOL    HW267959   8.893   2.462   3.625
88688SOL     OW67960   1.125  13.531   0.848
88688SOL    HW167961   1.062  13.603   0.849
88688SOL    HW267962   1.187  13.552   0.917
88689SOL     OW67963   9.469  14.412  13.343
88689SOL    HW167964   9.406  14.384  13.277
88689SOL    HW267965   9.439  14.372  13.424
88690SOL     OW67966   5.552  11.242  14.645
88690SOL    HW167967   5.510  11.239  14.731
88690SOL    HW267968   5.536  11.156  14.607
88691SOL     OW67969   7.400   9.939  13.899
88691SOL    HW167970   7.409   9.905  13.988
88691SOL    HW267971   7.466   9.891  13.848
88692SOL     OW67972   1.341   6.815   2.598
88692SOL    HW167973   1.423   6.810   2.548
88692SOL    HW267974   1.369   6.828   2.688
88693SOL     OW67975   5.073   8.055   6.091
88693SOL    HW167976   5.103   7.966   6.108
88693SOL    HW267977   4.985   8.058   6.129
88694SOL     OW67978  12.512  10.013  10.709
88694SOL    HW167979  12.518   9.984  10.617
88694SOL    HW267980  12.545  10.102  10.708
88695SOL     OW67981   7.009   7.206   4.593
88695SOL    HW167982   7.021   7.143   4.522
88695SOL    HW267983   6.915   7.223   4.594
88696SOL     OW67984   5.246   5.843   4.951
88696SOL    HW167985   5.163   5.890   4.943
88696SOL    HW267986   5.265   5.844   5.045
88697SOL     OW67987  13.904  11.884   5.174
88697SOL    HW167988  13.846  11.906   5.101
88697SOL    HW267989  13.919  11.790   5.165
88698SOL     OW67990   1.868  14.296   5.797
88698SOL    HW167991   1.902  14.362   5.858
88698SOL    HW267992   1.831  14.348   5.725
88699SOL     OW67993   9.433  12.525   8.098
88699SOL    HW167994   9.431  12.446   8.151
88699SOL    HW267995   9.467  12.496   8.013
88700SOL     OW67996  10.431   5.907   2.717
88700SOL    HW167997  10.512   5.910   2.666
88700SOL    HW267998  10.373   5.849   2.668
88701SOL     OW67999   7.981   7.144   9.490
88701SOL    HW168000   7.899   7.094   9.490
88701SOL    HW268001   8.045   7.087   9.448
88702SOL     OW68002  11.258   7.437   8.736
88702SOL    HW168003  11.346   7.440   8.774
88702SOL    HW268004  11.238   7.343   8.730
88703SOL     OW68005  10.616   6.524   4.746
88703SOL    HW168006  10.593   6.527   4.838
88703SOL    HW268007  10.648   6.612   4.725
88704SOL     OW68008   8.679   1.282   7.547
88704SOL    HW168009   8.744   1.228   7.500
88704SOL    HW268010   8.625   1.218   7.594
88705SOL     OW68011  13.500  14.597   7.030
88705SOL    HW168012  13.503  14.508   7.066
88705SOL    HW268013  13.488  14.654   7.106
88706SOL     OW68014   6.479  14.762   8.333
88706SOL    HW168015   6.534  14.754   8.411
88706SOL    HW268016   6.496  14.682   8.284
88707SOL     OW68017   1.605  12.228   9.399
88707SOL    HW168018   1.674  12.208   9.336
88707SOL    HW268019   1.652  12.252   9.479
88708SOL     OW68020  13.385  12.920  11.903
88708SOL    HW168021  13.354  12.831  11.883
88708SOL    HW268022  13.446  12.940  11.832
88709SOL     OW68023   0.181   4.510  13.116
88709SOL    HW168024   0.224   4.494  13.032
88709SOL    HW268025   0.091   4.480  13.102
88710SOL     OW68026   1.242   6.247   5.746
88710SOL    HW168027   1.298   6.243   5.824
88710SOL    HW268028   1.154   6.266   5.781
88711SOL     OW68029   2.497   4.036   9.620
88711SOL    HW168030   2.441   4.107   9.589
88711SOL    HW268031   2.508   4.053   9.713
88712SOL     OW68032   0.511   3.409   8.184
88712SOL    HW168033   0.522   3.449   8.098
88712SOL    HW268034   0.424   3.370   8.182
88713SOL     OW68035   0.103   9.844   8.563
88713SOL    HW168036   0.145   9.915   8.612
88713SOL    HW268037   0.142   9.765   8.598
88714SOL     OW68038   5.163   3.130   5.627
88714SOL    HW168039   5.078   3.088   5.615
88714SOL    HW268040   5.151   3.190   5.701
88715SOL     OW68041   9.640   8.618   5.642
88715SOL    HW168042   9.631   8.604   5.547
88715SOL    HW268043   9.583   8.693   5.660
88716SOL     OW68044  13.854   9.791   7.717
88716SOL    HW168045  13.943   9.825   7.705
88716SOL    HW268046  13.797   9.862   7.691
88717SOL     OW68047   8.239  14.681  13.591
88717SOL    HW168048   8.332  14.664  13.601
88717SOL    HW268049   8.198  14.595  13.595
88718SOL     OW68050   9.174   1.722   8.108
88718SOL    HW168051   9.229   1.720   8.186
88718SOL    HW268052   9.087   1.749   8.140
88719SOL     OW68053   3.730   5.854   9.880
88719SOL    HW168054   3.712   5.947   9.897
88719SOL    HW268055   3.647   5.810   9.898
88720SOL     OW68056  14.733  12.463  11.522
88720SOL    HW168057  14.791  12.536  11.501
88720SOL    HW268058  14.785  12.385  11.501
88721SOL     OW68059   7.771   9.125   5.915
88721SOL    HW168060   7.796   9.151   5.826
88721SOL    HW268061   7.808   9.037   5.926
88722SOL     OW68062   4.629   5.646   2.783
88722SOL    HW168063   4.682   5.709   2.832
88722SOL    HW268064   4.692   5.595   2.733
88723SOL     OW68065   1.599   3.600  12.244
88723SOL    HW168066   1.540   3.628  12.174
88723SOL    HW268067   1.685   3.631  12.217
88724SOL     OW68068  10.101   0.420  11.281
88724SOL    HW168069  10.127   0.501  11.237
88724SOL    HW268070  10.111   0.352  11.214
88725SOL     OW68071   8.573  10.206  13.283
88725SOL    HW168072   8.609  10.249  13.361
88725SOL    HW268073   8.479  10.224  13.288
88726SOL     OW68074   3.798   4.833  12.615
88726SOL    HW168075   3.740   4.790  12.677
88726SOL    HW268076   3.833   4.762  12.562
88727SOL     OW68077  11.772  13.487  10.577
88727SOL    HW168078  11.756  13.554  10.510
88727SOL    HW268079  11.857  13.450  10.553
88728SOL     OW68080  12.833  11.869   9.405
88728SOL    HW168081  12.826  11.777   9.427
88728SOL    HW268082  12.921  11.894   9.434
88729SOL     OW68083   1.187   8.226  14.435
88729SOL    HW168084   1.160   8.140  14.403
88729SOL    HW268085   1.186   8.218  14.531
88730SOL     OW68086  11.126  12.630   6.034
88730SOL    HW168087  11.052  12.611   5.978
88730SOL    HW268088  11.111  12.720   6.065
88731SOL     OW68089   5.173  11.782   3.853
88731SOL    HW168090   5.180  11.807   3.945
88731SOL    HW268091   5.115  11.705   3.854
88732SOL     OW68092  13.231   2.802   3.786
88732SOL    HW168093  13.211   2.810   3.693
88732SOL    HW268094  13.154   2.836   3.830
88733SOL     OW68095  11.692   5.072   1.473
88733SOL    HW168096  11.742   5.116   1.542
88733SOL    HW268097  11.609   5.120   1.469
88734SOL     OW68098   6.953   8.154  11.798
88734SOL    HW168099   6.979   8.073  11.754
88734SOL    HW268100   6.938   8.127  11.889
88735SOL     OW68101   8.850  12.603   6.827
88735SOL    HW168102   8.876  12.613   6.735
88735SOL    HW268103   8.887  12.519   6.853
88736SOL     OW68104   9.902   4.293   8.174
88736SOL    HW168105   9.849   4.277   8.252
88736SOL    HW268106   9.883   4.220   8.116
88737SOL     OW68107  10.912   5.923   9.860
88737SOL    HW168108  10.968   5.980   9.912
88737SOL    HW268109  10.827   5.967   9.858
88738SOL     OW68110  14.499   8.157   1.352
88738SOL    HW168111  14.410   8.186   1.330
88738SOL    HW268112  14.486   8.088   1.417
88739SOL     OW68113  10.530  12.416   2.750
88739SOL    HW168114  10.594  12.368   2.802
88739SOL    HW268115  10.455  12.357   2.745
88740SOL     OW68116   5.689   4.269   6.369
88740SOL    HW168117   5.744   4.344   6.392
88740SOL    HW268118   5.673   4.225   6.452
88741SOL     OW68119   8.427  10.846   2.990
88741SOL    HW168120   8.484  10.920   3.007
88741SOL    HW268121   8.474  10.770   3.024
88742SOL     OW68122   1.430   0.529  14.273
88742SOL    HW168123   1.389   0.584  14.340
88742SOL    HW268124   1.429   0.583  14.194
88743SOL     OW68125   4.908   3.731   0.151
88743SOL    HW168126   4.990   3.708   0.106
88743SOL    HW268127   4.853   3.653   0.141
88744SOL     OW68128  13.129   8.868   3.334
88744SOL    HW168129  13.097   8.950   3.372
88744SOL    HW268130  13.119   8.880   3.240
88745SOL     OW68131   4.602  10.188   3.229
88745SOL    HW168132   4.689  10.150   3.218
88745SOL    HW268133   4.553  10.121   3.277
88746SOL     OW68134  10.615   0.913   2.323
88746SOL    HW168135  10.691   0.958   2.362
88746SOL    HW268136  10.649   0.828   2.296
88747SOL     OW68137   7.359  11.286  13.664
88747SOL    HW168138   7.296  11.341  13.710
88747SOL    HW268139   7.319  11.272  13.578
88748SOL     OW68140   2.964  13.128   9.275
88748SOL    HW168141   2.873  13.124   9.248
88748SOL    HW268142   3.006  13.056   9.228
88749SOL     OW68143   0.147  13.595  13.778
88749SOL    HW168144   0.169  13.520  13.834
88749SOL    HW268145   0.209  13.589  13.705
88750SOL     OW68146   4.281  13.746   7.411
88750SOL    HW168147   4.367  13.769   7.374
88750SOL    HW268148   4.258  13.663   7.368
88751SOL     OW68149   6.162  11.885   3.408
88751SOL    HW168150   6.130  11.968   3.374
88751SOL    HW268151   6.190  11.905   3.498
88752SOL     OW68152  13.765   4.444  14.519
88752SOL    HW168153  13.780   4.505  14.447
88752SOL    HW268154  13.670   4.445  14.532
88753SOL     OW68155   7.242   0.257  11.716
88753SOL    HW168156   7.151   0.227  11.707
88753SOL    HW268157   7.293   0.176  11.716
88754SOL     OW68158  11.528   5.875  10.872
88754SOL    HW168159  11.508   5.968  10.882
88754SOL    HW268160  11.592   5.871  10.801
88755SOL     OW68161  12.171   1.080  11.378
88755SOL    HW168162  12.138   1.054  11.292
88755SOL    HW268163  12.254   1.033  11.387
88756SOL     OW68164   9.901   1.086   1.040
88756SOL    HW168165   9.908   1.155   0.975
88756SOL    HW268166   9.841   1.022   1.001
88757SOL     OW68167  13.956  11.156   6.616
88757SOL    HW168168  14.035  11.176   6.567
88757SOL    HW268169  13.987  11.117   6.698
88758SOL     OW68170  13.747  10.656   2.861
88758SOL    HW168171  13.716  10.735   2.817
88758SOL    HW268172  13.792  10.605   2.793
88759SOL     OW68173   8.577   5.532   6.092
88759SOL    HW168174   8.590   5.437   6.101
88759SOL    HW268175   8.520   5.541   6.016
88760SOL     OW68176   4.048   7.100   9.037
88760SOL    HW168177   4.133   7.070   9.005
88760SOL    HW268178   4.043   7.192   9.010
88761SOL     OW68179   5.403  10.945   4.008
88761SOL    HW168180   5.396  11.022   4.063
88761SOL    HW268181   5.371  10.974   3.922
88762SOL     OW68182  12.934   9.906   2.766
88762SOL    HW168183  12.858   9.850   2.751
88762SOL    HW268184  12.911   9.989   2.723
88763SOL     OW68185   3.658  12.169  14.516
88763SOL    HW168186   3.621  12.091  14.557
88763SOL    HW268187   3.741  12.184  14.562
88764SOL     OW68188  11.293  14.387  12.220
88764SOL    HW168189  11.384  14.357  12.217
88764SOL    HW268190  11.270  14.383  12.313
88765SOL     OW68191   6.968   9.442   1.790
88765SOL    HW168192   6.914   9.384   1.843
88765SOL    HW268193   6.963   9.527   1.834
88766SOL     OW68194   8.044   6.477   2.690
88766SOL    HW168195   8.111   6.425   2.734
88766SOL    HW268196   7.975   6.488   2.755
88767SOL     OW68197  14.164   2.500  11.945
88767SOL    HW168198  14.105   2.434  11.907
88767SOL    HW268199  14.226   2.449  11.997
88768SOL     OW68200   3.202  14.276   4.745
88768SOL    HW168201   3.210  14.370   4.732
88768SOL    HW268202   3.284  14.240   4.709
88769SOL     OW68203   3.234   9.772   6.786
88769SOL    HW168204   3.199   9.821   6.860
88769SOL    HW268205   3.294   9.833   6.744
88770SOL     OW68206  14.860   7.960   7.770
88770SOL    HW168207   0.005   8.041   7.722
88770SOL    HW268208  14.807   7.987   7.846
88771SOL     OW68209  10.748   8.607   0.435
88771SOL    HW168210  10.782   8.632   0.349
88771SOL    HW268211  10.673   8.551   0.416
88772SOL     OW68212  12.525   5.268  11.869
88772SOL    HW168213  12.567   5.183  11.878
88772SOL    HW268214  12.515   5.301  11.958
88773SOL     OW68215   3.442  12.168  13.159
88773SOL    HW168216   3.526  12.138  13.124
88773SOL    HW268217   3.397  12.087  13.185
88774SOL     OW68218  12.096  13.008   5.720
88774SOL    HW168219  12.151  12.992   5.797
88774SOL    HW268220  12.035  12.934   5.718
88775SOL     OW68221  14.238   0.257  12.780
88775SOL    HW168222  14.177   0.244  12.852
88775SOL    HW268223  14.235   0.175  12.730
88776SOL     OW68224   4.707   8.955   5.536
88776SOL    HW168225   4.735   8.881   5.484
88776SOL    HW268226   4.643   9.001   5.482
88777SOL     OW68227   7.535  10.836   4.812
88777SOL    HW168228   7.622  10.871   4.827
88777SOL    HW268229   7.482  10.912   4.789
88778SOL     OW68230   6.978   2.717  14.541
88778SOL    HW168231   7.042   2.780  14.574
88778SOL    HW268232   6.949   2.669  14.619
88779SOL     OW68233   2.086   7.554   5.772
88779SOL    HW168234   1.994   7.554   5.800
88779SOL    HW268235   2.135   7.575   5.851
88780SOL     OW68236   7.583   6.886   1.731
88780SOL    HW168237   7.623   6.843   1.656
88780SOL    HW268238   7.644   6.957   1.753
88781SOL     OW68239   8.626   9.726  14.854
88781SOL    HW168240   8.707   9.756   0.025
88781SOL    HW268241   8.654   9.697  14.767
88782SOL     OW68242  13.652   1.886   5.702
88782SOL    HW168243  13.664   1.912   5.611
88782SOL    HW268244  13.741   1.880   5.737
88783SOL     OW68245   8.703  10.652   4.249
88783SOL    HW168246   8.718  10.566   4.286
88783SOL    HW268247   8.756  10.654   4.169
88784SOL     OW68248   7.240   6.288   3.283
88784SOL    HW168249   7.149   6.289   3.313
88784SOL    HW268250   7.254   6.375   3.244
88785SOL     OW68251   2.242   3.953   5.220
88785SOL    HW168252   2.207   3.891   5.284
88785SOL    HW268253   2.226   3.911   5.135
88786SOL     OW68254   5.753   3.608   1.270
88786SOL    HW168255   5.739   3.690   1.316
88786SOL    HW268256   5.839   3.578   1.300
88787SOL     OW68257   2.962  12.144  14.813
88787SOL    HW168258   3.031  12.174   0.000
88787SOL    HW268259   2.885  12.196  14.837
88788SOL     OW68260   1.980  11.565   8.914
88788SOL    HW168261   1.938  11.567   9.000
88788SOL    HW268262   1.907  11.566   8.852
88789SOL     OW68263   0.004   5.452   8.617
88789SOL    HW168264  14.869   5.367   8.661
88789SOL    HW268265   0.035   5.511   8.685
88790SOL     OW68266   6.393   0.115  10.507
88790SOL    HW168267   6.315   0.147  10.552
88790SOL    HW268268   6.448   0.193  10.498
88791SOL     OW68269  12.370   0.841  14.538
88791SOL    HW168270  12.418   0.884  14.609
88791SOL    HW268271  12.368   0.905  14.468
88792SOL     OW68272   8.804   2.439   5.661
88792SOL    HW168273   8.760   2.355   5.646
88792SOL    HW268274   8.807   2.479   5.574
88793SOL     OW68275   9.391  13.801  13.149
88793SOL    HW168276   9.398  13.705  13.149
88793SOL    HW268277   9.298  13.818  13.134
88794SOL     OW68278  13.060   9.428   8.502
88794SOL    HW168279  13.154   9.414   8.506
88794SOL    HW268280  13.035   9.395   8.415
88795SOL     OW68281  12.954  14.290   7.783
88795SOL    HW168282  12.978  14.282   7.876
88795SOL    HW268283  12.865  14.256   7.779
88796SOL     OW68284  11.597  13.310   7.197
88796SOL    HW168285  11.650  13.378   7.157
88796SOL    HW268286  11.633  13.299   7.284
88797SOL     OW68287   0.120   7.769  10.061
88797SOL    HW168288   0.058   7.800  10.127
88797SOL    HW268289   0.172   7.703  10.107
88798SOL     OW68290  11.785   6.558   9.064
88798SOL    HW168291  11.720   6.617   9.101
88798SOL    HW268292  11.742   6.473   9.061
88799SOL     OW68293   0.766   6.916   8.434
88799SOL    HW168294   0.707   6.973   8.483
88799SOL    HW268295   0.711   6.842   8.407
88800SOL     OW68296   8.728  10.812   9.038
88800SOL    HW168297   8.763  10.734   8.996
88800SOL    HW268298   8.639  10.819   9.005
88801SOL     OW68299   2.156   0.333   4.837
88801SOL    HW168300   2.220   0.402   4.822
88801SOL    HW268301   2.104   0.331   4.757
88802SOL     OW68302   8.262   3.489   9.071
88802SOL    HW168303   8.344   3.521   9.033
88802SOL    HW268304   8.241   3.411   9.019
88803SOL     OW68305   1.433   5.939   1.871
88803SOL    HW168306   1.387   6.009   1.917
88803SOL    HW268307   1.382   5.925   1.792
88804SOL     OW68308   1.386   5.769   2.489
88804SOL    HW168309   1.430   5.747   2.406
88804SOL    HW268310   1.385   5.864   2.491
88805SOL     OW68311   6.736   1.362   4.543
88805SOL    HW168312   6.654   1.319   4.517
88805SOL    HW268313   6.778   1.299   4.602
88806SOL     OW68314   8.666  12.559  11.070
88806SOL    HW168315   8.693  12.515  10.989
88806SOL    HW268316   8.678  12.652  11.052
88807SOL     OW68317   4.918  12.797  11.064
88807SOL    HW168318   4.891  12.720  11.013
88807SOL    HW268319   4.943  12.761  11.149
88808SOL     OW68320  10.329   3.853   8.401
88808SOL    HW168321  10.316   3.948   8.408
88808SOL    HW268322  10.281   3.829   8.322
88809SOL     OW68323  13.004   8.522   5.124
88809SOL    HW168324  12.979   8.437   5.088
88809SOL    HW268325  13.099   8.515   5.135
88810SOL     OW68326   7.854   0.364   8.565
88810SOL    HW168327   7.803   0.288   8.538
88810SOL    HW268328   7.923   0.372   8.498
88811SOL     OW68329   6.942   7.272   1.512
88811SOL    HW168330   6.947   7.282   1.417
88811SOL    HW268331   6.953   7.179   1.528
88812SOL     OW68332   4.640   4.355   1.856
88812SOL    HW168333   4.707   4.295   1.889
88812SOL    HW268334   4.669   4.441   1.884
88813SOL     OW68335  11.535  13.776   6.789
88813SOL    HW168336  11.630  13.768   6.793
88813SOL    HW268337  11.507  13.703   6.734
88814SOL     OW68338  11.263   5.599   3.834
88814SOL    HW168339  11.192   5.615   3.896
88814SOL    HW268340  11.298   5.686   3.815
88815SOL     OW68341   8.796   0.602   7.026
88815SOL    HW168342   8.848   0.556   6.960
88815SOL    HW268343   8.835   0.689   7.032
88816SOL     OW68344  13.405   7.015  14.729
88816SOL    HW168345  13.324   7.035  14.682
88816SOL    HW268346  13.436   7.099  14.762
88817SOL     OW68347  12.590   6.536   5.865
88817SOL    HW168348  12.649   6.465   5.840
88817SOL    HW268349  12.545   6.560   5.784
88818SOL     OW68350   9.242   8.467   6.269
88818SOL    HW168351   9.174   8.432   6.212
88818SOL    HW268352   9.281   8.539   6.218
88819SOL     OW68353   6.308   1.545  12.282
88819SOL    HW168354   6.319   1.459  12.241
88819SOL    HW268355   6.255   1.528  12.360
88820SOL     OW68356   2.019  13.667  10.105
88820SOL    HW168357   2.040  13.760  10.096
88820SOL    HW268358   2.015  13.653  10.200
88821SOL     OW68359  13.718  12.637   4.461
88821SOL    HW168360  13.697  12.607   4.550
88821SOL    HW268361  13.813  12.650   4.462
88822SOL     OW68362   1.201   1.267   2.764
88822SOL    HW168363   1.248   1.197   2.811
88822SOL    HW268364   1.259   1.289   2.691
88823SOL     OW68365   0.039   8.797   9.562
88823SOL    HW168366  14.863   8.870   9.601
88823SOL    HW268367   0.117   8.837   9.523
88824SOL     OW68368   3.078   1.115   2.215
88824SOL    HW168369   3.059   1.193   2.267
88824SOL    HW268370   3.006   1.055   2.236
88825SOL     OW68371  11.911   5.262   0.512
88825SOL    HW168372  11.857   5.301   0.443
88825SOL    HW268373  11.849   5.240   0.581
88826SOL     OW68374   4.849   8.512  14.270
88826SOL    HW168375   4.889   8.536  14.186
88826SOL    HW268376   4.756   8.507  14.252
88827SOL     OW68377   2.619  11.067  14.215
88827SOL    HW168378   2.655  11.010  14.283
88827SOL    HW268379   2.584  11.007  14.149
88828SOL     OW68380   0.823   0.070   2.023
88828SOL    HW168381   0.769   0.063   2.102
88828SOL    HW268382   0.876   0.149   2.038
88829SOL     OW68383  12.238   6.000   3.002
88829SOL    HW168384  12.275   5.916   2.974
88829SOL    HW268385  12.243   6.055   2.924
88830SOL     OW68386   7.170   2.304  14.859
88830SOL    HW168387   7.174   2.394  14.828
88830SOL    HW268388   7.219   2.305   0.070
88831SOL     OW68389  11.688   3.676  10.011
88831SOL    HW168390  11.728   3.731  10.079
88831SOL    HW268391  11.664   3.738   9.941
88832SOL     OW68392   6.986   7.896   4.003
88832SOL    HW168393   6.911   7.945   4.038
88832SOL    HW268394   6.976   7.808   4.039
88833SOL     OW68395   2.755  14.269   8.533
88833SOL    HW168396   2.694  14.197   8.517
88833SOL    HW268397   2.837  14.240   8.493
88834SOL     OW68398   1.087  10.333   6.875
88834SOL    HW168399   1.156  10.269   6.859
88834SOL    HW268400   1.025  10.288   6.932
88835SOL     OW68401  14.481  12.764  11.474
88835SOL    HW168402  14.547  12.803  11.531
88835SOL    HW268403  14.434  12.838  11.437
88836SOL     OW68404  11.244   4.782   7.850
88836SOL    HW168405  11.159   4.759   7.811
88836SOL    HW268406  11.222   4.831   7.929
88837SOL     OW68407   5.000  14.573   1.802
88837SOL    HW168408   5.054  14.645   1.834
88837SOL    HW268409   4.949  14.612   1.730
88838SOL     OW68410  10.000  11.862  14.698
88838SOL    HW168411   9.962  11.797  14.757
88838SOL    HW268412   9.995  11.945  14.747
88839SOL     OW68413  14.284   7.439   0.709
88839SOL    HW168414  14.342   7.373   0.670
88839SOL    HW268415  14.223   7.389   0.763
88840SOL     OW68416   8.944  11.501   1.250
88840SOL    HW168417   8.969  11.535   1.336
88840SOL    HW268418   9.001  11.425   1.237
88841SOL     OW68419  14.752   5.463   4.874
88841SOL    HW168420  14.708   5.544   4.849
88841SOL    HW268421  14.779   5.478   4.964
88842SOL     OW68422   7.896   2.048   1.051
88842SOL    HW168423   7.986   2.059   1.019
88842SOL    HW268424   7.905   2.038   1.146
88843SOL     OW68425  10.054   4.352  11.158
88843SOL    HW168426   9.974   4.302  11.171
88843SOL    HW268427  10.111   4.295  11.106
88844SOL     OW68428   2.324  11.282  13.132
88844SOL    HW168429   2.243  11.278  13.183
88844SOL    HW268430   2.356  11.192  13.130
88845SOL     OW68431   7.555   0.692   9.365
88845SOL    HW168432   7.552   0.744   9.445
88845SOL    HW268433   7.648   0.683   9.345
88846SOL     OW68434   8.736   1.055   6.976
88846SOL    HW168435   8.692   1.024   6.897
88846SOL    HW268436   8.824   1.080   6.947
88847SOL     OW68437   5.384   4.359  14.440
88847SOL    HW168438   5.441   4.425  14.479
88847SOL    HW268439   5.329   4.329  14.512
88848SOL     OW68440   0.062   3.656   1.644
88848SOL    HW168441   0.051   3.653   1.739
88848SOL    HW268442  14.856   3.702   1.612
88849SOL     OW68443   5.806   9.158   5.403
88849SOL    HW168444   5.786   9.166   5.496
88849SOL    HW268445   5.895   9.192   5.394
88850SOL     OW68446   3.208  12.805   2.892
88850SOL    HW168447   3.212  12.779   2.800
88850SOL    HW268448   3.285  12.763   2.931
88851SOL     OW68449   3.155   7.980   5.044
88851SOL    HW168450   3.193   8.057   5.086
88851SOL    HW268451   3.184   7.986   4.952
88852SOL     OW68452  14.526   1.809   7.344
88852SOL    HW168453  14.502   1.743   7.409
88852SOL    HW268454  14.453   1.810   7.283
88853SOL     OW68455   2.433   8.604   6.117
88853SOL    HW168456   2.522   8.638   6.119
88853SOL    HW268457   2.443   8.509   6.112
88854SOL     OW68458   1.454  13.673  12.952
88854SOL    HW168459   1.501  13.755  12.968
88854SOL    HW268460   1.374  13.699  12.906
88855SOL     OW68461  10.579   6.130  13.260
88855SOL    HW168462  10.595   6.194  13.191
88855SOL    HW268463  10.496   6.157  13.299
88856SOL     OW68464  13.244   8.022   8.146
88856SOL    HW168465  13.321   7.978   8.182
88856SOL    HW268466  13.278   8.099   8.102
88857SOL     OW68467   7.672  10.510   2.851
88857SOL    HW168468   7.627  10.583   2.893
88857SOL    HW268469   7.614  10.483   2.780
88858SOL     OW68470  13.241   0.130   6.475
88858SOL    HW168471  13.250   0.109   6.568
88858SOL    HW268472  13.239   0.044   6.432
88859SOL     OW68473  12.871   5.413  10.795
88859SOL    HW168474  12.961   5.380  10.792
88859SOL    HW268475  12.881   5.508  10.806
88860SOL     OW68476   7.489   2.561   5.513
88860SOL    HW168477   7.576   2.600   5.514
88860SOL    HW268478   7.482   2.519   5.427
88861SOL     OW68479   7.032   1.751  12.725
88861SOL    HW168480   6.976   1.758  12.802
88861SOL    HW268481   7.054   1.842  12.704
88862SOL     OW68482   0.108   9.838   3.101
88862SOL    HW168483   0.198   9.816   3.126
88862SOL    HW268484   0.118   9.906   3.035
88863SOL     OW68485   8.265   6.107  12.466
88863SOL    HW168486   8.234   6.021  12.495
88863SOL    HW268487   8.204   6.169  12.505
88864SOL     OW68488   2.251  10.689  11.847
88864SOL    HW168489   2.176  10.746  11.829
88864SOL    HW268490   2.324  10.728  11.799
88865SOL     OW68491   3.201  12.768   5.992
88865SOL    HW168492   3.136  12.839   5.986
88865SOL    HW268493   3.269  12.804   6.049
88866SOL     OW68494  11.140   2.062   8.829
88866SOL    HW168495  11.129   2.154   8.854
88866SOL    HW268496  11.186   2.066   8.745
88867SOL     OW68497   5.240   0.931   2.509
88867SOL    HW168498   5.204   0.848   2.475
88867SOL    HW268499   5.334   0.922   2.498
88868SOL     OW68500   4.411   6.140   2.515
88868SOL    HW168501   4.374   6.083   2.448
88868SOL    HW268502   4.426   6.223   2.469
88869SOL     OW68503  10.661  11.925   9.952
88869SOL    HW168504  10.683  11.832   9.950
88869SOL    HW268505  10.574  11.928   9.993
88870SOL     OW68506   3.811   5.853  13.866
88870SOL    HW168507   3.820   5.759  13.878
88870SOL    HW268508   3.893   5.880  13.824
88871SOL     OW68509   3.434   8.891   9.240
88871SOL    HW168510   3.491   8.962   9.212
88871SOL    HW268511   3.477   8.854   9.317
88872SOL     OW68512  13.667   5.526  10.977
88872SOL    HW168513  13.627   5.561  11.057
88872SOL    HW268514  13.708   5.602  10.936
88873SOL     OW68515   8.133  11.482   9.250
88873SOL    HW168516   8.098  11.571   9.253
88873SOL    HW268517   8.211  11.485   9.305
88874SOL     OW68518  12.133   4.463  11.109
88874SOL    HW168519  12.097   4.377  11.092
88874SOL    HW268520  12.136   4.469  11.205
88875SOL     OW68521  10.658   6.699  12.131
88875SOL    HW168522  10.576   6.705  12.083
88875SOL    HW268523  10.652   6.768  12.197
88876SOL     OW68524   1.180   4.518   8.784
88876SOL    HW168525   1.241   4.590   8.796
88876SOL    HW268526   1.098   4.549   8.822
88877SOL     OW68527   3.527  11.427   1.457
88877SOL    HW168528   3.546  11.496   1.394
88877SOL    HW268529   3.484  11.471   1.530
88878SOL     OW68530  12.255   0.913   8.147
88878SOL    HW168531  12.279   0.990   8.198
88878SOL    HW268532  12.320   0.847   8.173
88879SOL     OW68533   2.723   9.045   7.066
88879SOL    HW168534   2.689   9.093   6.991
88879SOL    HW268535   2.659   8.975   7.081
88880SOL     OW68536   6.602  12.590  14.195
88880SOL    HW168537   6.545  12.646  14.141
88880SOL    HW268538   6.580  12.501  14.168
88881SOL     OW68539   2.664   6.209   8.844
88881SOL    HW168540   2.631   6.141   8.902
88881SOL    HW268541   2.589   6.268   8.832
88882SOL     OW68542  11.264   6.733   0.514
88882SOL    HW168543  11.356   6.707   0.508
88882SOL    HW268544  11.251   6.793   0.440
88883SOL     OW68545   7.387  13.041   4.308
88883SOL    HW168546   7.359  13.127   4.339
88883SOL    HW268547   7.463  13.059   4.253
88884SOL     OW68548   8.841   3.363   3.159
88884SOL    HW168549   8.921   3.322   3.192
88884SOL    HW268550   8.778   3.290   3.152
88885SOL     OW68551  10.190  11.516   3.607
88885SOL    HW168552  10.190  11.460   3.529
88885SOL    HW268553  10.116  11.574   3.594
88886SOL     OW68554   4.493   0.042   0.528
88886SOL    HW168555   4.461  14.871   0.608
88886SOL    HW268556   4.435   0.117   0.516
88887SOL     OW68557   9.134  13.430   8.646
88887SOL    HW168558   9.166  13.520   8.653
88887SOL    HW268559   9.202  13.377   8.687
88888SOL     OW68560   0.332   3.252  13.868
88888SOL    HW168561   0.342   3.210  13.954
88888SOL    HW268562   0.377   3.336  13.879
88889SOL     OW68563  12.508   4.389   8.908
88889SOL    HW168564  12.501   4.303   8.949
88889SOL    HW268565  12.602   4.408   8.908
88890SOL     OW68566  10.178  10.401   5.541
88890SOL    HW168567  10.208  10.315   5.510
88890SOL    HW268568  10.153  10.447   5.461
88891SOL     OW68569   0.489   0.059   8.947
88891SOL    HW168570   0.459  14.868   8.880
88891SOL    HW268571   0.501   0.005   9.026
88892SOL     OW68572   6.402   4.670   5.280
88892SOL    HW168573   6.420   4.663   5.187
88892SOL    HW268574   6.324   4.726   5.285
88893SOL     OW68575   9.031  12.312   1.588
88893SOL    HW168576   8.944  12.274   1.604
88893SOL    HW268577   9.092  12.241   1.607
88894SOL     OW68578   4.767   6.679  12.214
88894SOL    HW168579   4.681   6.688  12.174
88894SOL    HW268580   4.813   6.616  12.158
88895SOL     OW68581   4.051  11.409   9.232
88895SOL    HW168582   4.075  11.323   9.198
88895SOL    HW268583   3.955  11.410   9.229
88896SOL     OW68584   4.164   2.526   7.973
88896SOL    HW168585   4.221   2.579   8.028
88896SOL    HW268586   4.076   2.558   7.990
88897SOL     OW68587   6.780   7.747   5.430
88897SOL    HW168588   6.769   7.715   5.519
88897SOL    HW268589   6.875   7.759   5.419
88898SOL     OW68590   6.157   7.244   1.958
88898SOL    HW168591   6.249   7.239   1.930
88898SOL    HW268592   6.159   7.220   2.050
88899SOL     OW68593   6.831   0.439   6.806
88899SOL    HW168594   6.786   0.355   6.812
88899SOL    HW268595   6.866   0.441   6.717
88900SOL     OW68596   3.597  14.212   4.260
88900SOL    HW168597   3.620  14.230   4.169
88900SOL    HW268598   3.527  14.274   4.280
88901SOL     OW68599   2.894  11.042  12.599
88901SOL    HW168600   2.823  11.098  12.567
88901SOL    HW268601   2.968  11.101  12.611
88902SOL     OW68602  13.302   5.401   8.991
88902SOL    HW168603  13.359   5.472   8.962
88902SOL    HW268604  13.335   5.377   9.077
88903SOL     OW68605  14.426   8.472   3.657
88903SOL    HW168606  14.392   8.495   3.570
88903SOL    HW268607  14.457   8.554   3.693
88904SOL     OW68608   1.987   2.102   0.690
88904SOL    HW168609   2.080   2.123   0.684
88904SOL    HW268610   1.953   2.164   0.755
88905SOL     OW68611   2.451   3.408   0.134
88905SOL    HW168612   2.400   3.340   0.178
88905SOL    HW268613   2.493   3.456   0.205
88906SOL     OW68614   3.918   9.013   8.382
88906SOL    HW168615   3.931   9.107   8.369
88906SOL    HW268616   3.974   8.972   8.316
88907SOL     OW68617  10.683   0.297   1.450
88907SOL    HW168618  10.701   0.205   1.433
88907SOL    HW268619  10.755   0.325   1.507
88908SOL     OW68620  14.581   6.818   5.160
88908SOL    HW168621  14.664   6.815   5.112
88908SOL    HW268622  14.539   6.734   5.139
88909SOL     OW68623  14.111   9.158   2.137
88909SOL    HW168624  14.116   9.192   2.048
88909SOL    HW268625  14.150   9.071   2.131
88910SOL     OW68626   9.864   8.927   1.025
88910SOL    HW168627   9.960   8.923   1.017
88910SOL    HW268628   9.832   8.862   0.963
88911SOL     OW68629   0.114  11.246   7.177
88911SOL    HW168630   0.159  11.165   7.155
88911SOL    HW268631   0.167  11.285   7.246
88912SOL     OW68632   8.190  11.379   2.814
88912SOL    HW168633   8.184  11.423   2.730
88912SOL    HW268634   8.230  11.294   2.795
88913SOL     OW68635  13.255   6.222  10.405
88913SOL    HW168636  13.253   6.182  10.492
88913SOL    HW268637  13.169   6.262  10.394
88914SOL     OW68638   9.023   7.772   6.045
88914SOL    HW168639   8.992   7.796   5.957
88914SOL    HW268640   9.027   7.855   6.092
88915SOL     OW68641  10.368   3.528   0.527
88915SOL    HW168642  10.361   3.623   0.516
88915SOL    HW268643  10.412   3.498   0.447
88916SOL     OW68644   1.195   5.068  10.936
88916SOL    HW168645   1.214   5.130  11.007
88916SOL    HW268646   1.102   5.046  10.948
88917SOL     OW68647  10.389   3.992   5.029
88917SOL    HW168648  10.355   3.932   5.096
88917SOL    HW268649  10.392   4.077   5.072
88918SOL     OW68650   1.637  12.884  14.465
88918SOL    HW168651   1.606  12.939  14.537
88918SOL    HW268652   1.724  12.854  14.493
88919SOL     OW68653   6.405   5.095   0.055
88919SOL    HW168654   6.398   5.147   0.135
88919SOL    HW268655   6.388   5.005   0.084
88920SOL     OW68656   2.178   4.493  11.530
88920SOL    HW168657   2.235   4.467  11.603
88920SOL    HW268658   2.210   4.580  11.506
88921SOL     OW68659   3.486   1.607  12.776
88921SOL    HW168660   3.469   1.515  12.797
88921SOL    HW268661   3.573   1.623  12.812
88922SOL     OW68662   8.578   7.317  14.468
88922SOL    HW168663   8.630   7.253  14.516
88922SOL    HW268664   8.587   7.398  14.519
88923SOL     OW68665   4.111   5.149  13.121
88923SOL    HW168666   4.113   5.142  13.217
88923SOL    HW268667   4.025   5.114  13.096
88924SOL     OW68668  11.289   4.836  11.560
88924SOL    HW168669  11.339   4.917  11.557
88924SOL    HW268670  11.282   4.808  11.469
88925SOL     OW68671   1.238  11.027   9.513
88925SOL    HW168672   1.143  11.027   9.497
88925SOL    HW268673   1.253  11.103   9.569
88926SOL     OW68674   6.792   1.110   8.605
88926SOL    HW168675   6.755   1.082   8.689
88926SOL    HW268676   6.881   1.137   8.626
88927SOL     OW68677  14.842  11.752   0.162
88927SOL    HW168678  14.757  11.789   0.139
88927SOL    HW268679   0.021  11.757   0.081
88928SOL     OW68680   6.060   2.156  11.158
88928SOL    HW168681   6.096   2.174  11.071
88928SOL    HW268682   6.135   2.125  11.209
88929SOL     OW68683   1.199   8.363   5.341
88929SOL    HW168684   1.265   8.396   5.402
88929SOL    HW268685   1.130   8.429   5.343
88930SOL     OW68686   2.972   2.438  13.157
88930SOL    HW168687   2.892   2.409  13.112
88930SOL    HW268688   2.946   2.519  13.202
88931SOL     OW68689   8.596   0.312   0.081
88931SOL    HW168690   8.613   0.406   0.073
88931SOL    HW268691   8.514   0.298   0.035
88932SOL     OW68692  13.396   1.136   3.877
88932SOL    HW168693  13.478   1.141   3.926
88932SOL    HW268694  13.418   1.165   3.789
88933SOL     OW68695   8.348   4.077   6.736
88933SOL    HW168696   8.270   4.025   6.715
88933SOL    HW268697   8.365   4.129   6.657
88934SOL     OW68698   7.982   0.387   6.101
88934SOL    HW168699   8.063   0.423   6.066
88934SOL    HW268700   7.969   0.432   6.184
88935SOL     OW68701   1.164  11.470   2.311
88935SOL    HW168702   1.172  11.406   2.382
88935SOL    HW268703   1.073  11.464   2.283
88936SOL     OW68704   6.836   4.027   8.435
88936SOL    HW168705   6.850   4.016   8.341
88936SOL    HW268706   6.872   4.114   8.455
88937SOL     OW68707   0.281   4.889   2.090
88937SOL    HW168708   0.317   4.966   2.134
88937SOL    HW268709   0.223   4.924   2.022
88938SOL     OW68710  14.584   2.977   8.697
88938SOL    HW168711  14.488   2.978   8.692
88938SOL    HW268712  14.611   3.057   8.653
88939SOL     OW68713  12.677  11.008   5.192
88939SOL    HW168714  12.595  11.056   5.204
88939SOL    HW268715  12.713  11.000   5.280
88940SOL     OW68716   0.330  12.406   6.110
88940SOL    HW168717   0.303  12.487   6.066
88940SOL    HW268718   0.371  12.354   6.041
88941SOL     OW68719   6.012  11.102   9.928
88941SOL    HW168720   6.041  11.065  10.011
88941SOL    HW268721   6.072  11.066   9.863
88942SOL     OW68722   0.070   7.736  13.765
88942SOL    HW168723   0.063   7.790  13.844
88942SOL    HW268724   0.028   7.788  13.696
88943SOL     OW68725   9.231   5.579   6.395
88943SOL    HW168726   9.307   5.525   6.372
88943SOL    HW268727   9.269   5.657   6.435
88944SOL     OW68728   4.715   9.060  13.148
88944SOL    HW168729   4.748   9.041  13.235
88944SOL    HW268730   4.718   9.155  13.141
88945SOL     OW68731  13.789  12.443  13.762
88945SOL    HW168732  13.734  12.509  13.803
88945SOL    HW268733  13.731  12.369  13.746
88946SOL     OW68734  12.355   6.251  13.211
88946SOL    HW168735  12.261   6.232  13.206
88946SOL    HW268736  12.388   6.191  13.277
88947SOL     OW68737   0.607   0.014   0.028
88947SOL    HW168738   0.635   0.106   0.024
88947SOL    HW268739   0.598  14.867   0.121
88948SOL     OW68740   5.243   3.492  13.842
88948SOL    HW168741   5.267   3.409  13.885
88948SOL    HW268742   5.190   3.466  13.767
88949SOL     OW68743   5.656  13.526   2.162
88949SOL    HW168744   5.626  13.503   2.075
88949SOL    HW268745   5.725  13.590   2.148
88950SOL     OW68746   9.234   1.652  14.634
88950SOL    HW168747   9.218   1.572  14.583
88950SOL    HW268748   9.186   1.638  14.716
88951SOL     OW68749   6.786  14.601  14.342
88951SOL    HW168750   6.854  14.636  14.284
88951SOL    HW268751   6.827  14.523  14.381
88952SOL     OW68752   8.741   4.431   9.289
88952SOL    HW168753   8.650   4.408   9.309
88952SOL    HW268754   8.761   4.502   9.349
88953SOL     OW68755  14.542  14.753   3.067
88953SOL    HW168756  14.458  14.729   3.105
88953SOL    HW268757  14.604  14.744   3.139
88954SOL     OW68758   9.824   9.459   6.870
88954SOL    HW168759   9.788   9.469   6.959
88954SOL    HW268760   9.878   9.380   6.875
88955SOL     OW68761   4.254  13.182   5.951
88955SOL    HW168762   4.198  13.249   5.912
88955SOL    HW268763   4.343  13.214   5.936
88956SOL     OW68764  14.243   2.037   5.290
88956SOL    HW168765  14.222   2.120   5.247
88956SOL    HW268766  14.278   2.062   5.376
88957SOL     OW68767   4.205  12.923   3.140
88957SOL    HW168768   4.276  12.867   3.171
88957SOL    HW268769   4.138  12.916   3.209
88958SOL     OW68770  14.761  14.362   0.766
88958SOL    HW168771  14.852  14.384   0.785
88958SOL    HW268772  14.765  14.310   0.686
88959SOL     OW68773   8.530  12.970   7.933
88959SOL    HW168774   8.601  12.973   7.997
88959SOL    HW268775   8.556  13.033   7.866
88960SOL     OW68776   4.590   9.053   8.479
88960SOL    HW168777   4.651   9.123   8.502
88960SOL    HW268778   4.634   9.006   8.407
88961SOL     OW68779   5.903   8.387   2.045
88961SOL    HW168780   5.817   8.350   2.025
88961SOL    HW268781   5.911   8.381   2.140
88962SOL     OW68782   7.369  10.343   3.756
88962SOL    HW168783   7.304  10.413   3.756
88962SOL    HW268784   7.339  10.283   3.825
88963SOL     OW68785  10.274   3.413   1.062
88963SOL    HW168786  10.346   3.475   1.079
88963SOL    HW268787  10.303   3.331   1.103
88964SOL     OW68788   8.365   5.122   4.061
88964SOL    HW168789   8.355   5.033   4.097
88964SOL    HW268790   8.450   5.151   4.093
88965SOL     OW68791   2.562   6.346  10.411
88965SOL    HW168792   2.530   6.436  10.409
88965SOL    HW268793   2.507   6.299  10.348
88966SOL     OW68794  12.262   2.087   7.619
88966SOL    HW168795  12.169   2.072   7.605
88966SOL    HW268796  12.284   2.035   7.697
88967SOL     OW68797   7.088   1.080  11.240
88967SOL    HW168798   7.081   1.001  11.186
88967SOL    HW268799   7.081   1.049  11.330
88968SOL     OW68800  11.110   3.707   6.621
88968SOL    HW168801  11.061   3.625   6.630
88968SOL    HW268802  11.116   3.742   6.709
88969SOL     OW68803  11.481   4.954  11.910
88969SOL    HW168804  11.403   4.975  11.860
88969SOL    HW268805  11.548   5.015  11.877
88970SOL     OW68806   4.367  13.051   9.576
88970SOL    HW168807   4.440  13.101   9.539
88970SOL    HW268808   4.394  13.034   9.666
88971SOL     OW68809   4.495  12.462   7.700
88971SOL    HW168810   4.535  12.522   7.637
88971SOL    HW268811   4.475  12.384   7.648
88972SOL     OW68812   3.579  13.929   4.199
88972SOL    HW168813   3.537  14.015   4.193
88972SOL    HW268814   3.662  13.945   4.244
88973SOL     OW68815   6.706   7.742  13.174
88973SOL    HW168816   6.612   7.728  13.188
88973SOL    HW268817   6.712   7.827  13.131
88974SOL     OW68818   9.393   8.522   9.758
88974SOL    HW168819   9.459   8.584   9.727
88974SOL    HW268820   9.358   8.562   9.838
88975SOL     OW68821   8.265  14.172   6.839
88975SOL    HW168822   8.358  14.185   6.857
88975SOL    HW268823   8.221  14.224   6.907
88976SOL     OW68824  13.789   0.558  14.178
88976SOL    HW168825  13.752   0.576  14.091
88976SOL    HW268826  13.724   0.591  14.239
88977SOL     OW68827   9.952   8.435   8.985
88977SOL    HW168828  10.017   8.485   8.935
88977SOL    HW268829   9.915   8.374   8.921
88978SOL     OW68830   6.581   1.878   8.711
88978SOL    HW168831   6.578   1.795   8.758
88978SOL    HW268832   6.545   1.942   8.773
88979SOL     OW68833   3.195   8.559   9.072
88979SOL    HW168834   3.138   8.582   8.999
88979SOL    HW268835   3.139   8.569   9.149
88980SOL     OW68836  12.288   2.441   4.009
88980SOL    HW168837  12.323   2.482   4.088
88980SOL    HW268838  12.261   2.354   4.037
88981SOL     OW68839   7.284   9.739   9.033
88981SOL    HW168840   7.224   9.681   9.080
88981SOL    HW268841   7.229   9.812   9.005
88982SOL     OW68842   1.445   7.218   9.678
88982SOL    HW168843   1.505   7.201   9.606
88982SOL    HW268844   1.490   7.184   9.755
88983SOL     OW68845   2.457   2.016   6.512
88983SOL    HW168846   2.463   1.948   6.444
88983SOL    HW268847   2.381   1.991   6.564
88984SOL     OW68848  14.736   2.025   2.258
88984SOL    HW168849  14.675   1.979   2.201
88984SOL    HW268850  14.705   2.115   2.259
88985SOL     OW68851  14.537   7.595  13.670
88985SOL    HW168852  14.625   7.595  13.707
88985SOL    HW268853  14.483   7.639  13.735
88986SOL     OW68854   9.347  11.574  13.573
88986SOL    HW168855   9.269  11.576  13.518
88986SOL    HW268856   9.399  11.650  13.545
88987SOL     OW68857   7.578   3.121  10.733
88987SOL    HW168858   7.615   3.113  10.646
88987SOL    HW268859   7.494   3.165  10.720
88988SOL     OW68860   6.943   4.442   3.175
88988SOL    HW168861   7.014   4.421   3.236
88988SOL    HW268862   6.863   4.419   3.223
88989SOL     OW68863   9.009   6.874  10.140
88989SOL    HW168864   9.079   6.815  10.168
88989SOL    HW268865   8.990   6.849  10.050
88990SOL     OW68866   2.816  10.587  14.551
88990SOL    HW168867   2.845  10.496  14.561
88990SOL    HW268868   2.722  10.579  14.533
88991SOL     OW68869   9.497   6.474   4.359
88991SOL    HW168870   9.518   6.413   4.289
88991SOL    HW268871   9.442   6.541   4.318
88992SOL     OW68872   8.073  10.826   2.572
88992SOL    HW168873   8.100  10.776   2.495
88992SOL    HW268874   8.154  10.839   2.622
88993SOL     OW68875   7.025   9.325   7.728
88993SOL    HW168876   7.064   9.238   7.719
88993SOL    HW268877   6.931   9.309   7.733
88994SOL     OW68878   8.332   5.880   5.226
88994SOL    HW168879   8.304   5.799   5.182
88994SOL    HW268880   8.416   5.857   5.266
88995SOL     OW68881   4.249  14.020   4.230
88995SOL    HW168882   4.335  14.005   4.192
88995SOL    HW268883   4.212  13.933   4.242
88996SOL     OW68884   0.857   8.144   1.400
88996SOL    HW168885   0.776   8.144   1.349
88996SOL    HW268886   0.843   8.078   1.468
88997SOL     OW68887   7.869   0.925  12.310
88997SOL    HW168888   7.839   1.015  12.315
88997SOL    HW268889   7.854   0.899  12.219
88998SOL     OW68890   2.848   8.892  13.223
88998SOL    HW168891   2.911   8.957  13.252
88998SOL    HW268892   2.893   8.808  13.233
88999SOL     OW68893  11.110  12.266   4.176
88999SOL    HW168894  11.100  12.357   4.205
88999SOL    HW268895  11.114  12.271   4.081
89000SOL     OW68896   3.009   8.388   6.432
89000SOL    HW168897   2.936   8.407   6.374
89000SOL    HW268898   3.037   8.299   6.408
89001SOL     OW68899   9.530   5.212   3.620
89001SOL    HW168900   9.472   5.180   3.689
89001SOL    HW268901   9.582   5.280   3.662
89002SOL     OW68902   4.323   4.090   5.521
89002SOL    HW168903   4.373   4.172   5.530
89002SOL    HW268904   4.340   4.044   5.603
89003SOL     OW68905  10.477  12.258   4.329
89003SOL    HW168906  10.422  12.221   4.398
89003SOL    HW268907  10.566  12.250   4.363
89004SOL     OW68908   2.581   4.124   1.398
89004SOL    HW168909   2.505   4.143   1.344
89004SOL    HW268910   2.641   4.197   1.382
89005SOL     OW68911   7.241   6.583   3.283
89005SOL    HW168912   7.310   6.639   3.248
89005SOL    HW268913   7.263   6.572   3.375
89006SOL     OW68914  11.045  12.009   1.714
89006SOL    HW168915  11.102  11.979   1.644
89006SOL    HW268916  10.963  11.961   1.701
89007SOL     OW68917   1.564  12.689  11.144
89007SOL    HW168918   1.589  12.771  11.187
89007SOL    HW268919   1.496  12.653  11.202
89008SOL     OW68920   0.432  13.370  14.517
89008SOL    HW168921   0.451  13.277  14.517
89008SOL    HW268922   0.487  13.405  14.446
89009SOL     OW68923   4.490  12.243   7.911
89009SOL    HW168924   4.478  12.152   7.883
89009SOL    HW268925   4.413  12.289   7.879
89010SOL     OW68926  10.989   9.050   2.571
89010SOL    HW168927  10.913   9.104   2.593
89010SOL    HW268928  10.955   8.961   2.565
89011SOL     OW68929  12.988  12.573  11.239
89011SOL    HW168930  12.973  12.542  11.150
89011SOL    HW268931  12.927  12.646  11.250
89012SOL     OW68932   7.276  12.041   4.499
89012SOL    HW168933   7.215  12.087   4.442
89012SOL    HW268934   7.310  12.109   4.557
89013SOL     OW68935   1.502  12.657  13.374
89013SOL    HW168936   1.488  12.752  13.371
89013SOL    HW268937   1.450  12.628  13.449
89014SOL     OW68938  11.946   6.970  12.109
89014SOL    HW168939  11.904   7.023  12.176
89014SOL    HW268940  11.876   6.954  12.045
89015SOL     OW68941   4.122  13.659   7.088
89015SOL    HW168942   4.094  13.587   7.032
89015SOL    HW268943   4.058  13.729   7.071
89016SOL     OW68944  12.845   9.695   1.985
89016SOL    HW168945  12.752   9.681   2.002
89016SOL    HW268946  12.883   9.709   2.072
89017SOL     OW68947   4.284  12.227  14.643
89017SOL    HW168948   4.218  12.158  14.647
89017SOL    HW268949   4.238  12.302  14.604
89018SOL     OW68950   1.552   9.374   3.922
89018SOL    HW168951   1.591   9.376   4.009
89018SOL    HW268952   1.511   9.288   3.916
89019SOL     OW68953   2.162   8.142   1.482
89019SOL    HW168954   2.250   8.179   1.475
89019SOL    HW268955   2.134   8.163   1.571
89020SOL     OW68956   4.006   6.876   9.985
89020SOL    HW168957   4.027   6.820  10.060
89020SOL    HW268958   4.081   6.866   9.927
89021SOL     OW68959   4.450   1.921   7.273
89021SOL    HW168960   4.507   1.867   7.329
89021SOL    HW268961   4.389   1.858   7.235
89022SOL     OW68962   9.571   6.903  13.181
89022SOL    HW168963   9.534   6.856  13.107
89022SOL    HW268964   9.513   6.977  13.195
89023SOL     OW68965   8.454   5.631   1.893
89023SOL    HW168966   8.493   5.548   1.865
89023SOL    HW268967   8.408   5.663   1.816
89024SOL     OW68968   6.976  13.947   4.987
89024SOL    HW168969   6.930  13.864   4.974
89024SOL    HW268970   7.035  13.931   5.060
89025SOL     OW68971   1.775  10.074   2.440
89025SOL    HW168972   1.700  10.036   2.395
89025SOL    HW268973   1.755  10.168   2.444
89026SOL     OW68974   0.814   5.438   5.108
89026SOL    HW168975   0.757   5.415   5.035
89026SOL    HW268976   0.764   5.503   5.157
89027SOL     OW68977   9.531  10.874   6.164
89027SOL    HW168978   9.484  10.798   6.197
89027SOL    HW268979   9.564  10.847   6.078
89028SOL     OW68980  10.563   6.225  12.551
89028SOL    HW168981  10.549   6.250  12.643
89028SOL    HW268982  10.564   6.308  12.504
89029SOL     OW68983   7.833   5.626   0.860
89029SOL    HW168984   7.835   5.721   0.849
89029SOL    HW268985   7.812   5.593   0.772
89030SOL     OW68986   5.490   1.134  13.075
89030SOL    HW168987   5.540   1.148  13.156
89030SOL    HW268988   5.399   1.139  13.102
89031SOL     OW68989   6.871   0.745  11.332
89031SOL    HW168990   6.876   0.794  11.414
89031SOL    HW268991   6.947   0.774  11.282
89032SOL     OW68992   9.836  10.987   3.381
89032SOL    HW168993   9.790  10.994   3.298
89032SOL    HW268994   9.919  11.033   3.367
89033SOL     OW68995   2.429   5.401   1.730
89033SOL    HW168996   2.410   5.310   1.749
89033SOL    HW268997   2.524   5.404   1.717
89034SOL     OW68998   3.467   3.404   8.536
89034SOL    HW168999   3.475   3.310   8.523
89034SOL    HW269000   3.534   3.441   8.478
89035SOL     OW69001   6.364   3.166   3.768
89035SOL    HW169002   6.292   3.213   3.811
89035SOL    HW269003   6.321   3.092   3.726
89036SOL     OW69004  11.386   5.774   1.809
89036SOL    HW169005  11.312   5.792   1.750
89036SOL    HW269006  11.373   5.684   1.838
89037SOL     OW69007   5.389   7.199   9.960
89037SOL    HW169008   5.430   7.285   9.968
89037SOL    HW269009   5.448   7.140  10.007
89038SOL     OW69010   3.062   7.487  11.107
89038SOL    HW169011   3.099   7.533  11.182
89038SOL    HW269012   3.072   7.548  11.034
89039SOL     OW69013   6.874   1.572  13.650
89039SOL    HW169014   6.902   1.513  13.580
89039SOL    HW269015   6.948   1.572  13.712
89040SOL     OW69016  14.093   6.497   6.115
89040SOL    HW169017  14.166   6.543   6.075
89040SOL    HW269018  14.105   6.405   6.091
89041SOL     OW69019  10.296  11.383  11.191
89041SOL    HW169020  10.309  11.291  11.214
89041SOL    HW269021  10.214  11.408  11.233
89042SOL     OW69022   7.245   6.560  11.868
89042SOL    HW169023   7.193   6.604  11.799
89042SOL    HW269024   7.181   6.506  11.914
89043SOL     OW69025  13.119   2.920  14.426
89043SOL    HW169026  13.194   2.976  14.408
89043SOL    HW269027  13.066   2.969  14.488
89044SOL     OW69028   2.387   2.955  14.374
89044SOL    HW169029   2.310   2.913  14.411
89044SOL    HW269030   2.390   2.924  14.283
89045SOL     OW69031   9.375  11.874   3.832
89045SOL    HW169032   9.419  11.804   3.784
89045SOL    HW269033   9.299  11.896   3.779
89046SOL     OW69034   6.785   3.688   7.983
89046SOL    HW169035   6.834   3.741   7.920
89046SOL    HW269036   6.695   3.691   7.951
89047SOL     OW69037   1.114   5.433   9.761
89047SOL    HW169038   1.056   5.401   9.830
89047SOL    HW269039   1.074   5.515   9.733
89048SOL     OW69040  11.090   7.952   3.346
89048SOL    HW169041  11.068   7.859   3.340
89048SOL    HW269042  11.131   7.973   3.262
89049SOL     OW69043  10.086  10.081   8.486
89049SOL    HW169044  10.003  10.091   8.532
89049SOL    HW269045  10.146  10.139   8.534
89050SOL     OW69046   6.257   6.774   9.090
89050SOL    HW169047   6.205   6.717   9.034
89050SOL    HW269048   6.309   6.827   9.028
89051SOL     OW69049   3.219  11.876   0.380
89051SOL    HW169050   3.241  11.922   0.462
89051SOL    HW269051   3.271  11.795   0.384
89052SOL     OW69052   0.276   0.075   4.486
89052SOL    HW169053   0.330   0.021   4.428
89052SOL    HW269054   0.336   0.103   4.555
89053SOL     OW69055   0.926  11.172   7.581
89053SOL    HW169056   0.837  11.189   7.550
89053SOL    HW269057   0.943  11.082   7.556
89054SOL     OW69058   1.514  10.546   2.779
89054SOL    HW169059   1.535  10.520   2.690
89054SOL    HW269060   1.418  10.547   2.782
89055SOL     OW69061   4.425  11.904  13.095
89055SOL    HW169062   4.469  11.973  13.044
89055SOL    HW269063   4.360  11.951  13.147
89056SOL     OW69064   1.205   2.571  13.217
89056SOL    HW169065   1.201   2.495  13.276
89056SOL    HW269066   1.298   2.592  13.213
89057SOL     OW69067   3.799  14.378   6.975
89057SOL    HW169068   3.813  14.429   7.055
89057SOL    HW269069   3.739  14.308   7.001
89058SOL     OW69070   7.864   4.415  13.241
89058SOL    HW169071   7.902   4.450  13.160
89058SOL    HW269072   7.883   4.482  13.307
89059SOL     OW69073  10.997  11.192   2.233
89059SOL    HW169074  10.976  11.189   2.140
89059SOL    HW269075  10.939  11.128   2.273
89060SOL     OW69076  11.215   4.132   9.861
89060SOL    HW169077  11.237   4.079   9.784
89060SOL    HW269078  11.140   4.184   9.832
89061SOL     OW69079   5.065   2.760   2.211
89061SOL    HW169080   5.148   2.767   2.259
89061SOL    HW269081   5.014   2.836   2.241
89062SOL     OW69082   1.815   7.020  14.349
89062SOL    HW169083   1.802   7.024  14.444
89062SOL    HW269084   1.727   7.015  14.312
89063SOL     OW69085   2.687   9.155   2.740
89063SOL    HW169086   2.646   9.238   2.764
89063SOL    HW269087   2.761   9.179   2.684
89064SOL     OW69088   5.496   3.548   5.752
89064SOL    HW169089   5.591   3.542   5.741
89064SOL    HW269090   5.468   3.613   5.688
89065SOL     OW69091   9.092  10.711   1.432
89065SOL    HW169092   9.157  10.742   1.368
89065SOL    HW269093   9.047  10.791   1.460
89066SOL     OW69094   1.702   4.686   2.204
89066SOL    HW169095   1.641   4.668   2.276
89066SOL    HW269096   1.645   4.697   2.127
89067SOL     OW69097  12.499   2.572   1.482
89067SOL    HW169098  12.589   2.580   1.515
89067SOL    HW269099  12.490   2.643   1.419
89068SOL     OW69100  13.213   2.040  12.026
89068SOL    HW169101  13.260   2.084  11.956
89068SOL    HW269102  13.160   1.974  11.982
89069SOL     OW69103  13.656  13.639   8.180
89069SOL    HW169104  13.697  13.699   8.242
89069SOL    HW269105  13.727  13.578   8.156
89070SOL     OW69106  14.576  10.703   4.864
89070SOL    HW169107  14.565  10.749   4.781
89070SOL    HW269108  14.544  10.615   4.847
89071SOL     OW69109  13.267  12.077   8.559
89071SOL    HW169110  13.349  12.112   8.594
89071SOL    HW269111  13.293  12.025   8.484
89072SOL     OW69112   6.707   5.059   8.664
89072SOL    HW169113   6.662   5.089   8.584
89072SOL    HW269114   6.664   4.976   8.686
89073SOL     OW69115   3.742   8.758   7.956
89073SOL    HW169116   3.667   8.809   7.924
89073SOL    HW269117   3.808   8.767   7.887
89074SOL     OW69118   7.716   4.528   0.584
89074SOL    HW169119   7.662   4.449   0.585
89074SOL    HW269120   7.703   4.566   0.671
89075SOL     OW69121   2.298   3.330   8.221
89075SOL    HW169122   2.319   3.376   8.303
89075SOL    HW269123   2.322   3.391   8.152
89076SOL     OW69124  11.452  11.907   1.548
89076SOL    HW169125  11.364  11.872   1.534
89076SOL    HW269126  11.489  11.853   1.617
89077SOL     OW69127  10.707   6.004   3.746
89077SOL    HW169128  10.794   5.964   3.753
89077SOL    HW269129  10.694   6.015   3.651
89078SOL     OW69130  14.047   6.468  12.664
89078SOL    HW169131  14.117   6.403  12.659
89078SOL    HW269132  14.075   6.529  12.732
89079SOL     OW69133   4.838   5.436   3.489
89079SOL    HW169134   4.759   5.387   3.512
89079SOL    HW269135   4.858   5.488   3.567
89080SOL     OW69136   3.085  13.745  11.526
89080SOL    HW169137   3.170  13.735  11.485
89080SOL    HW269138   3.023  13.750  11.454
89081SOL     OW69139  14.476   3.206  13.247
89081SOL    HW169140  14.488   3.232  13.156
89081SOL    HW269141  14.460   3.288  13.294
89082SOL     OW69142   3.110  13.816   1.979
89082SOL    HW169143   3.033  13.818   2.037
89082SOL    HW269144   3.096  13.889   1.919
89083SOL     OW69145  13.207  11.576  14.385
89083SOL    HW169146  13.186  11.624  14.465
89083SOL    HW269147  13.190  11.639  14.314
89084SOL     OW69148   3.781  10.021  11.580
89084SOL    HW169149   3.781   9.935  11.623
89084SOL    HW269150   3.818  10.004  11.493
89085SOL     OW69151   4.297   6.227   0.392
89085SOL    HW169152   4.300   6.136   0.421
89085SOL    HW269153   4.214   6.260   0.425
89086SOL     OW69154   4.952  10.599   6.945
89086SOL    HW169155   4.867  10.577   6.906
89086SOL    HW269156   4.930  10.634   7.031
89087SOL     OW69157  10.355   9.017  10.071
89087SOL    HW169158  10.440   9.059  10.059
89087SOL    HW269159  10.310   9.030   9.988
89088SOL     OW69160   1.024   0.366   5.843
89088SOL    HW169161   1.033   0.300   5.775
89088SOL    HW269162   1.018   0.449   5.796
89089SOL     OW69163  14.463   5.665   9.243
89089SOL    HW169164  14.462   5.760   9.230
89089SOL    HW269165  14.399   5.631   9.180
89090SOL     OW69166  13.573   3.208   6.553
89090SOL    HW169167  13.659   3.227   6.590
89090SOL    HW269168  13.571   3.112   6.548
89091SOL     OW69169   1.116   2.037   0.694
89091SOL    HW169170   1.050   2.018   0.628
89091SOL    HW269171   1.069   2.085   0.762
89092SOL     OW69172   5.350   0.603   0.587
89092SOL    HW169173   5.303   0.527   0.624
89092SOL    HW269174   5.309   0.679   0.629
89093SOL     OW69175   6.159   8.686  12.312
89093SOL    HW169176   6.140   8.635  12.391
89093SOL    HW269177   6.073   8.701  12.272
89094SOL     OW69178   2.549   2.169   1.601
89094SOL    HW169179   2.585   2.085   1.629
89094SOL    HW269180   2.477   2.146   1.542
89095SOL     OW69181  13.524  10.630  10.091
89095SOL    HW169182  13.461  10.559  10.085
89095SOL    HW269183  13.602  10.597  10.048
89096SOL     OW69184  11.306   4.137  11.597
89096SOL    HW169185  11.385   4.104  11.554
89096SOL    HW269186  11.237   4.125  11.532
89097SOL     OW69187   9.789   2.952   5.255
89097SOL    HW169188   9.795   2.905   5.338
89097SOL    HW269189   9.702   2.992   5.256
89098SOL     OW69190   8.499   0.908  10.217
89098SOL    HW169191   8.526   0.949  10.135
89098SOL    HW269192   8.489   0.981  10.278
89099SOL     OW69193   5.202   4.500  13.825
89099SOL    HW169194   5.120   4.520  13.871
89099SOL    HW269195   5.246   4.585  13.818
89100SOL     OW69196  12.363   9.818   7.836
89100SOL    HW169197  12.362   9.800   7.742
89100SOL    HW269198  12.345   9.911   7.843
89101SOL     OW69199  12.791  12.920   7.925
89101SOL    HW169200  12.790  12.972   7.846
89101SOL    HW269201  12.877  12.936   7.965
89102SOL     OW69202   1.047   8.800   9.265
89102SOL    HW169203   1.135   8.775   9.237
89102SOL    HW269204   1.052   8.800   9.361
89103SOL     OW69205   0.964   6.313   3.120
89103SOL    HW169206   1.051   6.304   3.160
89103SOL    HW269207   0.913   6.364   3.183
89104SOL     OW69208   5.513   8.742   1.260
89104SOL    HW169209   5.465   8.736   1.343
89104SOL    HW269210   5.551   8.655   1.248
89105SOL     OW69211   7.358   3.089  13.182
89105SOL    HW169212   7.430   3.138  13.220
89105SOL    HW269213   7.376   2.997  13.203
89106SOL     OW69214   3.721   8.650   6.037
89106SOL    HW169215   3.718   8.565   6.082
89106SOL    HW269216   3.633   8.686   6.047
89107SOL     OW69217  13.718   9.926   2.833
89107SOL    HW169218  13.683   9.966   2.913
89107SOL    HW269219  13.808   9.902   2.856
89108SOL     OW69220   0.669   5.991   6.595
89108SOL    HW169221   0.673   6.006   6.690
89108SOL    HW269222   0.696   5.900   6.585
89109SOL     OW69223  11.118   3.394   4.119
89109SOL    HW169224  11.115   3.298   4.122
89109SOL    HW269225  11.104   3.421   4.210
89110SOL     OW69226  12.270   0.943  14.173
89110SOL    HW169227  12.313   0.991  14.244
89110SOL    HW269228  12.201   0.893  14.216
89111SOL     OW69229  12.493  12.148   8.776
89111SOL    HW169230  12.574  12.190   8.806
89111SOL    HW269231  12.486  12.068   8.827
89112SOL     OW69232  13.713   6.824  13.506
89112SOL    HW169233  13.742   6.856  13.420
89112SOL    HW269234  13.792   6.824  13.560
89113SOL     OW69235  12.306   6.937  12.242
89113SOL    HW169236  12.224   6.900  12.274
89113SOL    HW269237  12.363   6.861  12.228
89114SOL     OW69238  13.697   8.732   1.789
89114SOL    HW169239  13.786   8.767   1.797
89114SOL    HW269240  13.654   8.757   1.871
89115SOL     OW69241  13.240   5.138   5.802
89115SOL    HW169242  13.147   5.152   5.782
89115SOL    HW269243  13.286   5.202   5.750
89116SOL     OW69244  11.297  14.464   3.551
89116SOL    HW169245  11.249  14.540   3.518
89116SOL    HW269246  11.301  14.478   3.646
89117SOL     OW69247  13.972   4.795   8.947
89117SOL    HW169248  14.010   4.785   9.035
89117SOL    HW269249  13.902   4.730   8.944
89118SOL     OW69250   0.338   2.720   3.038
89118SOL    HW169251   0.364   2.770   3.115
89118SOL    HW269252   0.416   2.671   3.014
89119SOL     OW69253   8.368   2.168  10.656
89119SOL    HW169254   8.310   2.240  10.630
89119SOL    HW269255   8.335   2.139  10.741
89120SOL     OW69256   0.123  14.398  11.021
89120SOL    HW169257   0.192  14.334  11.039
89120SOL    HW269258   0.169  14.482  11.020
89121SOL     OW69259   1.487   9.164   8.158
89121SOL    HW169260   1.468   9.242   8.106
89121SOL    HW269261   1.401   9.133   8.187
89122SOL     OW69262   4.533  13.104   8.924
89122SOL    HW169263   4.544  13.012   8.901
89122SOL    HW269264   4.524  13.149   8.840
89123SOL     OW69265  13.895  14.063   9.893
89123SOL    HW169266  13.819  14.095   9.845
89123SOL    HW269267  13.970  14.109   9.853
89124SOL     OW69268  12.922  14.828   5.431
89124SOL    HW169269  12.972  14.856   5.508
89124SOL    HW269270  12.837  14.801   5.467
89125SOL     OW69271   9.356  13.519  10.963
89125SOL    HW169272   9.326  13.441  11.010
89125SOL    HW269273   9.451  13.512  10.962
89126SOL     OW69274  14.418  13.392   9.960
89126SOL    HW169275  14.380  13.479   9.950
89126SOL    HW269276  14.406  13.371  10.053
89127SOL     OW69277   7.558  11.992   0.679
89127SOL    HW169278   7.637  12.011   0.629
89127SOL    HW269279   7.557  11.896   0.687
89128SOL     OW69280   5.833  10.188  13.853
89128SOL    HW169281   5.830  10.185  13.757
89128SOL    HW269282   5.921  10.157  13.875
89129SOL     OW69283   1.810   2.535   9.676
89129SOL    HW169284   1.730   2.544   9.624
89129SOL    HW269285   1.877   2.509   9.613
89130SOL     OW69286  12.512   6.546   0.500
89130SOL    HW169287  12.417   6.543   0.512
89130SOL    HW269288  12.546   6.483   0.564
89131SOL     OW69289   6.278   6.123  11.003
89131SOL    HW169290   6.305   6.211  10.975
89131SOL    HW269291   6.257   6.078  10.921
89132SOL     OW69292   1.245  13.734  13.790
89132SOL    HW169293   1.325  13.786  13.798
89132SOL    HW269294   1.271  13.646  13.820
89133SOL     OW69295  14.511   5.576  12.220
89133SOL    HW169296  14.578   5.551  12.283
89133SOL    HW269297  14.553   5.567  12.135
89134SOL     OW69298   1.517   7.340   1.083
89134SOL    HW169299   1.583   7.385   1.030
89134SOL    HW269300   1.440   7.396   1.077
89135SOL     OW69301   1.756   8.294  14.585
89135SOL    HW169302   1.678   8.317  14.535
89135SOL    HW269303   1.731   8.307  14.677
89136SOL     OW69304   6.214   2.382   6.579
89136SOL    HW169305   6.197   2.464   6.533
89136SOL    HW269306   6.254   2.325   6.513
89137SOL     OW69307   9.564   8.605   1.178
89137SOL    HW169308   9.516   8.527   1.148
89137SOL    HW269309   9.542   8.672   1.114
89138SOL     OW69310   8.600  11.657   9.613
89138SOL    HW169311   8.614  11.572   9.572
89138SOL    HW269312   8.629  11.645   9.704
89139SOL     OW69313  11.806   0.504   2.789
89139SOL    HW169314  11.775   0.453   2.864
89139SOL    HW269315  11.780   0.452   2.712
89140SOL     OW69316  11.141   3.109   4.149
89140SOL    HW169317  11.210   3.121   4.214
89140SOL    HW269318  11.176   3.045   4.088
89141SOL     OW69319  11.132  13.547   8.408
89141SOL    HW169320  11.207  13.500   8.375
89141SOL    HW269321  11.077  13.480   8.448
89142SOL     OW69322   5.523   0.241   1.908
89142SOL    HW169323   5.604   0.201   1.875
89142SOL    HW269324   5.551   0.295   1.982
89143SOL     OW69325  10.315  12.192   8.873
89143SOL    HW169326  10.230  12.217   8.910
89143SOL    HW269327  10.295  12.168   8.782
89144SOL     OW69328   9.289  11.910   3.554
89144SOL    HW169329   9.311  11.999   3.583
89144SOL    HW269330   9.194  11.904   3.565
89145SOL     OW69331   8.400   6.483  10.695
89145SOL    HW169332   8.318   6.490  10.647
89145SOL    HW269333   8.467   6.473  10.628
89146SOL     OW69334  11.162   0.367   4.438
89146SOL    HW169335  11.200   0.279   4.438
89146SOL    HW269336  11.202   0.411   4.513
89147SOL     OW69337   4.270  10.997  10.127
89147SOL    HW169338   4.237  10.981  10.215
89147SOL    HW269339   4.326  10.921  10.108
89148SOL     OW69340  11.924   6.469   6.748
89148SOL    HW169341  11.850   6.424   6.708
89148SOL    HW269342  11.963   6.518   6.676
89149SOL     OW69343   4.826   0.280  10.318
89149SOL    HW169344   4.777   0.218  10.372
89149SOL    HW269345   4.900   0.307  10.373
89150SOL     OW69346   8.891   3.058   3.796
89150SOL    HW169347   8.848   3.081   3.879
89150SOL    HW269348   8.975   3.104   3.799
89151SOL     OW69349   4.171   6.592   5.943
89151SOL    HW169350   4.198   6.650   6.014
89151SOL    HW269351   4.242   6.528   5.935
89152SOL     OW69352   4.225  12.825  11.620
89152SOL    HW169353   4.231  12.739  11.578
89152SOL    HW269354   4.140  12.823  11.665
89153SOL     OW69355  12.658   6.250  12.466
89153SOL    HW169356  12.702   6.328  12.499
89153SOL    HW269357  12.575   6.247  12.514
89154SOL     OW69358  14.716   1.052  11.404
89154SOL    HW169359  14.647   1.111  11.435
89154SOL    HW269360  14.733   0.994  11.478
89155SOL     OW69361   2.269   9.048   5.343
89155SOL    HW169362   2.188   9.097   5.327
89155SOL    HW269363   2.261   8.969   5.290
89156SOL     OW69364  12.165  12.251  10.572
89156SOL    HW169365  12.178  12.234  10.666
89156SOL    HW269366  12.104  12.324  10.569
89157SOL     OW69367   1.305   1.371   1.089
89157SOL    HW169368   1.334   1.297   1.035
89157SOL    HW269369   1.351   1.446   1.053
89158SOL     OW69370  10.294  11.475   9.062
89158SOL    HW169371  10.229  11.546   9.065
89158SOL    HW269372  10.289  11.435   9.149
89159SOL     OW69373   8.595   4.990   7.542
89159SOL    HW169374   8.661   4.989   7.611
89159SOL    HW269375   8.571   4.898   7.531
89160SOL     OW69376   0.101  12.427  11.267
89160SOL    HW169377   0.186  12.466  11.289
89160SOL    HW269378   0.085  12.364  11.337
89161SOL     OW69379   8.158  11.084  14.169
89161SOL    HW169380   8.226  11.146  14.193
89161SOL    HW269381   8.120  11.056  14.252
89162SOL     OW69382  12.259   6.880   5.533
89162SOL    HW169383  12.297   6.817   5.471
89162SOL    HW269384  12.194   6.928   5.481
89163SOL     OW69385   5.861   0.497   8.793
89163SOL    HW169386   5.901   0.415   8.822
89163SOL    HW269387   5.840   0.482   8.700
89164SOL     OW69388  13.468   8.027   7.545
89164SOL    HW169389  13.375   8.008   7.537
89164SOL    HW269390  13.503   7.952   7.595
89165SOL     OW69391  12.862   5.880   3.001
89165SOL    HW169392  12.776   5.900   2.964
89165SOL    HW269393  12.913   5.960   2.989
89166SOL     OW69394   8.983  13.972   7.566
89166SOL    HW169395   8.964  13.986   7.473
89166SOL    HW269396   9.003  14.059   7.600
89167SOL     OW69397   2.601   3.169  13.183
89167SOL    HW169398   2.520   3.121  13.199
89167SOL    HW269399   2.586   3.214  13.100
89168SOL     OW69400   8.388  12.173   9.076
89168SOL    HW169401   8.456  12.106   9.082
89168SOL    HW269402   8.306  12.123   9.073
89169SOL     OW69403  10.700   2.908  12.518
89169SOL    HW169404  10.763   2.837  12.523
89169SOL    HW269405  10.749   2.986  12.545
89170SOL     OW69406   9.107   9.635   5.594
89170SOL    HW169407   9.126   9.542   5.608
89170SOL    HW269408   9.146   9.655   5.509
89171SOL     OW69409   9.715  12.235   8.744
89171SOL    HW169410   9.773  12.215   8.818
89171SOL    HW269411   9.648  12.167   8.747
89172SOL     OW69412   9.819   4.829   2.590
89172SOL    HW169413   9.785   4.782   2.666
89172SOL    HW269414   9.830   4.761   2.523
89173SOL     OW69415   0.709   0.551  11.252
89173SOL    HW169416   0.805   0.554  11.245
89173SOL    HW269417   0.679   0.548  11.161
89174SOL     OW69418  11.733   8.818  14.661
89174SOL    HW169419  11.715   8.853  14.574
89174SOL    HW269420  11.739   8.895  14.718
89175SOL     OW69421  14.782   0.438   3.560
89175SOL    HW169422  14.788   0.386   3.479
89175SOL    HW269423  14.689   0.444   3.578
89176SOL     OW69424  10.692   8.884   1.215
89176SOL    HW169425  10.603   8.859   1.190
89176SOL    HW269426  10.744   8.804   1.201
89177SOL     OW69427  12.753  13.736   4.561
89177SOL    HW169428  12.784  13.697   4.480
89177SOL    HW269429  12.702  13.812   4.534
89178SOL     OW69430   6.139  10.898   6.964
89178SOL    HW169431   6.098  10.894   7.051
89178SOL    HW269432   6.230  10.873   6.979
89179SOL     OW69433   8.011   2.640  12.158
89179SOL    HW169434   8.051   2.572  12.105
89179SOL    HW269435   7.919   2.642  12.130
89180SOL     OW69436   2.550  13.006   0.199
89180SOL    HW169437   2.487  12.989   0.269
89180SOL    HW269438   2.510  13.077   0.149
89181SOL     OW69439  13.115   3.939   6.698
89181SOL    HW169440  13.032   3.906   6.663
89181SOL    HW269441  13.098   4.031   6.718
89182SOL     OW69442   0.824   5.980  14.378
89182SOL    HW169443   0.842   5.915  14.445
89182SOL    HW269444   0.728   5.987  14.376
89183SOL     OW69445   0.350  11.956   6.259
89183SOL    HW169446   0.280  11.961   6.193
89183SOL    HW269447   0.355  12.045   6.295
89184SOL     OW69448  14.239   0.559   8.784
89184SOL    HW169449  14.313   0.518   8.737
89184SOL    HW269450  14.177   0.581   8.715
89185SOL     OW69451   0.602  14.270  13.280
89185SOL    HW169452   0.574  14.180  13.265
89185SOL    HW269453   0.566  14.292  13.366
89186SOL     OW69454   7.130   5.426  12.500
89186SOL    HW169455   7.039   5.395  12.498
89186SOL    HW269456   7.126   5.508  12.549
89187SOL     OW69457   9.455  13.475   0.407
89187SOL    HW169458   9.512  13.450   0.334
89187SOL    HW269459   9.385  13.410   0.406
89188SOL     OW69460   7.992  10.515   6.560
89188SOL    HW169461   8.040  10.449   6.510
89188SOL    HW269462   8.004  10.490   6.651
89189SOL     OW69463   5.190   3.204   7.785
89189SOL    HW169464   5.196   3.290   7.826
89189SOL    HW269465   5.101   3.174   7.805
89190SOL     OW69466  10.357  14.797   3.574
89190SOL    HW169467  10.296  14.743   3.524
89190SOL    HW269468  10.341   0.015   3.544
89191SOL     OW69469   7.986   2.620  10.341
89191SOL    HW169470   7.909   2.596  10.289
89191SOL    HW269471   8.059   2.577  10.297
89192SOL     OW69472   0.727  11.095   8.763
89192SOL    HW169473   0.710  11.014   8.716
89192SOL    HW269474   0.814  11.121   8.734
89193SOL     OW69475  14.465   0.791   9.267
89193SOL    HW169476  14.452   0.839   9.349
89193SOL    HW269477  14.512   0.853   9.211
89194SOL     OW69478   4.844   3.012  14.656
89194SOL    HW169479   4.787   3.089  14.661
89194SOL    HW269480   4.869   2.995  14.747
89195SOL     OW69481   8.569   0.758   2.603
89195SOL    HW169482   8.642   0.791   2.656
89195SOL    HW269483   8.492   0.803   2.639
89196SOL     OW69484   3.860   3.020   3.162
89196SOL    HW169485   3.869   2.936   3.116
89196SOL    HW269486   3.852   2.996   3.254
89197SOL     OW69487   9.274   5.579   9.046
89197SOL    HW169488   9.252   5.658   9.097
89197SOL    HW269489   9.341   5.608   8.985
89198SOL     OW69490   7.734   1.514   5.556
89198SOL    HW169491   7.671   1.444   5.540
89198SOL    HW269492   7.707   1.553   5.639
89199SOL     OW69493   6.921  12.926   7.556
89199SOL    HW169494   6.935  12.965   7.642
89199SOL    HW269495   6.975  12.847   7.556
89200SOL     OW69496  12.734   8.014   3.849
89200SOL    HW169497  12.710   8.078   3.781
89200SOL    HW269498  12.714   8.058   3.931
89201SOL     OW69499   2.885   6.007   5.491
89201SOL    HW169500   2.908   5.942   5.557
89201SOL    HW269501   2.793   6.028   5.509
89202SOL     OW69502   6.233  13.974   9.862
89202SOL    HW169503   6.284  13.983   9.942
89202SOL    HW269504   6.201  13.884   9.864
89203SOL     OW69505   1.674  11.843   9.201
89203SOL    HW169506   1.670  11.903   9.276
89203SOL    HW269507   1.629  11.764   9.231
89204SOL     OW69508   1.043   1.407   8.722
89204SOL    HW169509   1.136   1.415   8.701
89204SOL    HW269510   0.998   1.437   8.643
89205SOL     OW69511   3.104   9.381  10.856
89205SOL    HW169512   3.174   9.436  10.821
89205SOL    HW269513   3.148   9.301  10.885
89206SOL     OW69514  11.074   8.394   4.814
89206SOL    HW169515  11.020   8.465   4.851
89206SOL    HW269516  11.161   8.432   4.807
89207SOL     OW69517   6.866  11.144   0.758
89207SOL    HW169518   6.918  11.109   0.686
89207SOL    HW269519   6.812  11.070   0.786
89208SOL     OW69520   8.171   7.963   8.015
89208SOL    HW169521   8.258   8.002   8.003
89208SOL    HW269522   8.112   8.038   8.017
89209SOL     OW69523   4.279   2.665   7.586
89209SOL    HW169524   4.240   2.586   7.548
89209SOL    HW269525   4.360   2.634   7.627
89210SOL     OW69526  12.076  12.841  13.227
89210SOL    HW169527  11.989  12.880  13.229
89210SOL    HW269528  12.105  12.851  13.136
89211SOL     OW69529  12.232  14.269  11.031
89211SOL    HW169530  12.276  14.290  11.114
89211SOL    HW269531  12.301  14.236  10.975
89212SOL     OW69532  12.559   6.781   2.005
89212SOL    HW169533  12.597   6.763   1.919
89212SOL    HW269534  12.469   6.810   1.986
89213SOL     OW69535   6.895  14.551   3.550
89213SOL    HW169536   6.888  14.540   3.455
89213SOL    HW269537   6.806  14.542   3.581
89214SOL     OW69538   3.336   6.637   5.429
89214SOL    HW169539   3.251   6.622   5.387
89214SOL    HW269540   3.334   6.581   5.507
89215SOL     OW69541   3.687   9.397   5.817
89215SOL    HW169542   3.741   9.328   5.856
89215SOL    HW269543   3.715   9.477   5.861
89216SOL     OW69544   9.806   2.763  13.675
89216SOL    HW169545   9.813   2.854  13.648
89216SOL    HW269546   9.834   2.713  13.598
89217SOL     OW69547  14.724   3.594   4.594
89217SOL    HW169548  14.637   3.559   4.612
89217SOL    HW269549  14.731   3.671   4.650
89218SOL     OW69550   7.981   2.344   9.913
89218SOL    HW169551   7.964   2.404   9.840
89218SOL    HW269552   8.067   2.308   9.894
89219SOL     OW69553   1.317   9.497  14.590
89219SOL    HW169554   1.245   9.433  14.585
89219SOL    HW269555   1.345   9.495  14.681
89220SOL     OW69556   3.173   4.730  13.071
89220SOL    HW169557   3.183   4.685  13.156
89220SOL    HW269558   3.207   4.818  13.086
89221SOL     OW69559  14.215  12.800   6.248
89221SOL    HW169560  14.181  12.781   6.161
89221SOL    HW269561  14.141  12.786   6.307
89222SOL     OW69562   0.496  13.159   0.716
89222SOL    HW169563   0.559  13.147   0.645
89222SOL    HW269564   0.521  13.094   0.781
89223SOL     OW69565  13.430   4.470   7.637
89223SOL    HW169566  13.383   4.450   7.718
89223SOL    HW269567  13.362   4.473   7.570
89224SOL     OW69568  13.354   1.177   3.549
89224SOL    HW169569  13.265   1.174   3.584
89224SOL    HW269570  13.357   1.257   3.497
89225SOL     OW69571   2.249   3.274  10.705
89225SOL    HW169572   2.262   3.364  10.676
89225SOL    HW269573   2.200   3.282  10.787
89226SOL     OW69574   5.946   0.515   9.810
89226SOL    HW169575   6.025   0.477   9.772
89226SOL    HW269576   5.923   0.455   9.882
89227SOL     OW69577  13.945   7.660  14.003
89227SOL    HW169578  14.014   7.652  13.938
89227SOL    HW269579  13.868   7.686  13.953
89228SOL     OW69580  11.252   8.316  10.732
89228SOL    HW169581  11.198   8.354  10.662
89228SOL    HW269582  11.194   8.311  10.807
89229SOL     OW69583  13.482   1.515  10.454
89229SOL    HW169584  13.514   1.503  10.365
89229SOL    HW269585  13.388   1.530  10.444
89230SOL     OW69586  10.340   8.125  11.514
89230SOL    HW169587  10.247   8.131  11.491
89230SOL    HW269588  10.374   8.057  11.457
89231SOL     OW69589  11.917  11.204  11.309
89231SOL    HW169590  11.968  11.197  11.229
89231SOL    HW269591  11.983  11.206  11.379
89232SOL     OW69592   9.534   5.291   4.675
89232SOL    HW169593   9.545   5.334   4.590
89232SOL    HW269594   9.440   5.296   4.692
89233SOL     OW69595  11.342   8.360   1.614
89233SOL    HW169596  11.366   8.446   1.648
89233SOL    HW269597  11.332   8.373   1.519
89234SOL     OW69598   7.005   6.597  10.488
89234SOL    HW169599   7.062   6.587  10.565
89234SOL    HW269600   6.939   6.529  10.499
89235SOL     OW69601   5.322  14.693   4.081
89235SOL    HW169602   5.406  14.653   4.104
89235SOL    HW269603   5.290  14.640   4.008
89236SOL     OW69604   7.538   6.383   7.036
89236SOL    HW169605   7.586   6.399   6.954
89236SOL    HW269606   7.462   6.331   7.009
89237SOL     OW69607  13.206   6.125   0.251
89237SOL    HW169608  13.270   6.130   0.322
89237SOL    HW269609  13.122   6.113   0.295
89238SOL     OW69610  10.732  13.334   8.057
89238SOL    HW169611  10.706  13.317   8.148
89238SOL    HW269612  10.664  13.392   8.023
89239SOL     OW69613   5.855  10.200   5.563
89239SOL    HW169614   5.786  10.147   5.522
89239SOL    HW269615   5.810  10.279   5.593
89240SOL     OW69616   1.420   9.025   2.327
89240SOL    HW169617   1.455   9.036   2.239
89240SOL    HW269618   1.328   9.001   2.314
89241SOL     OW69619   9.174  10.733  12.900
89241SOL    HW169620   9.170  10.639  12.884
89241SOL    HW269621   9.202  10.741  12.991
89242SOL     OW69622   5.476  13.695  13.696
89242SOL    HW169623   5.515  13.685  13.609
89242SOL    HW269624   5.511  13.622  13.746
89243SOL     OW69625   9.111   3.579   4.696
89243SOL    HW169626   9.042   3.515   4.715
89243SOL    HW269627   9.166   3.579   4.775
89244SOL     OW69628  13.813  10.773  12.327
89244SOL    HW169629  13.847  10.708  12.265
89244SOL    HW269630  13.723  10.788  12.298
89245SOL     OW69631   7.321   1.765  11.344
89245SOL    HW169632   7.306   1.847  11.393
89245SOL    HW269633   7.235   1.723  11.343
89246SOL     OW69634   1.383  12.119   7.173
89246SOL    HW169635   1.426  12.110   7.088
89246SOL    HW269636   1.446  12.167   7.227
89247SOL     OW69637   8.620   9.555   9.037
89247SOL    HW169638   8.622   9.489   8.968
89247SOL    HW269639   8.610   9.505   9.118
89248SOL     OW69640   1.372   0.278  14.217
89248SOL    HW169641   1.399   0.236  14.298
89248SOL    HW269642   1.408   0.367  14.223
89249SOL     OW69643  13.792  13.521  11.515
89249SOL    HW169644  13.748  13.604  11.536
89249SOL    HW269645  13.885  13.543  11.515
89250SOL     OW69646  11.861  12.667  12.124
89250SOL    HW169647  11.772  12.701  12.118
89250SOL    HW269648  11.851  12.572  12.119
89251SOL     OW69649   9.668  13.736  10.820
89251SOL    HW169650   9.680  13.642  10.833
89251SOL    HW269651   9.576  13.745  10.795
89252SOL     OW69652   9.785   4.940  11.865
89252SOL    HW169653   9.782   4.951  11.770
89252SOL    HW269654   9.696   4.960  11.895
89253SOL     OW69655  10.896   4.332   2.401
89253SOL    HW169656  10.990   4.347   2.389
89253SOL    HW269657  10.891   4.259   2.463
89254SOL     OW69658  14.787   5.078  13.985
89254SOL    HW169659  14.770   5.133  14.062
89254SOL    HW269660  14.845   5.131  13.930
89255SOL     OW69661   5.847  14.249   0.821
89255SOL    HW169662   5.811  14.319   0.876
89255SOL    HW269663   5.774  14.222   0.766
89256SOL     OW69664   8.331  13.043   8.101
89256SOL    HW169665   8.313  12.992   8.179
89256SOL    HW269666   8.419  13.017   8.074
89257SOL     OW69667  10.192   6.109   9.017
89257SOL    HW169668  10.198   6.182   9.079
89257SOL    HW269669  10.266   6.053   9.039
89258SOL     OW69670   8.480   7.485  10.371
89258SOL    HW169671   8.396   7.464  10.412
89258SOL    HW269672   8.463   7.566  10.322
89259SOL     OW69673   0.691   0.837   1.023
89259SOL    HW169674   0.604   0.810   0.991
89259SOL    HW269675   0.710   0.917   0.975
89260SOL     OW69676  10.092   2.643  13.558
89260SOL    HW169677  10.139   2.643  13.642
89260SOL    HW269678  10.055   2.555  13.551
89261SOL     OW69679  12.873   6.836   9.637
89261SOL    HW169680  12.865   6.833   9.542
89261SOL    HW269681  12.823   6.914   9.662
89262SOL     OW69682   4.993   6.013  13.884
89262SOL    HW169683   5.061   6.081  13.884
89262SOL    HW269684   4.915   6.057  13.917
89263SOL     OW69685   6.630  12.713  11.928
89263SOL    HW169686   6.676  12.632  11.909
89263SOL    HW269687   6.622  12.715  12.024
89264SOL     OW69688   2.777  14.566   5.749
89264SOL    HW169689   2.738  14.541   5.665
89264SOL    HW269690   2.868  14.589   5.728
89265SOL     OW69691  10.536   4.008  13.476
89265SOL    HW169692  10.620   3.974  13.507
89265SOL    HW269693  10.492   4.037  13.556
89266SOL     OW69694   2.898   0.193   9.152
89266SOL    HW169695   2.885   0.245   9.232
89266SOL    HW269696   2.810   0.181   9.117
89267SOL     OW69697  10.298   3.271  11.438
89267SOL    HW169698  10.294   3.192  11.493
89267SOL    HW269699  10.319   3.238  11.351
89268SOL     OW69700   6.706  11.390   5.435
89268SOL    HW169701   6.753  11.333   5.374
89268SOL    HW269702   6.613  11.373   5.418
89269SOL     OW69703  14.272   7.899   7.248
89269SOL    HW169704  14.321   7.981   7.255
89269SOL    HW269705  14.272   7.880   7.154
89270SOL     OW69706   6.067   1.723  14.130
89270SOL    HW169707   5.996   1.689  14.184
89270SOL    HW269708   6.023   1.761  14.054
89271SOL     OW69709  11.524  14.312  14.528
89271SOL    HW169710  11.578  14.241  14.493
89271SOL    HW269711  11.548  14.389  14.477
89272SOL     OW69712   6.691  10.062   6.269
89272SOL    HW169713   6.651  10.013   6.342
89272SOL    HW269714   6.625  10.059   6.200
89273SOL     OW69715   5.244   4.341  12.708
89273SOL    HW169716   5.263   4.428  12.673
89273SOL    HW269717   5.231   4.355  12.802
89274SOL     OW69718  12.102  11.207   1.619
89274SOL    HW169719  12.100  11.278   1.683
89274SOL    HW269720  12.181  11.157   1.640
89275SOL     OW69721  11.294  12.782  11.690
89275SOL    HW169722  11.269  12.737  11.609
89275SOL    HW269723  11.242  12.862  11.689
89276SOL     OW69724   0.434   9.387  13.327
89276SOL    HW169725   0.442   9.392  13.422
89276SOL    HW269726   0.468   9.470  13.295
89277SOL     OW69727  12.004  12.143   8.307
89277SOL    HW169728  11.948  12.165   8.233
89277SOL    HW269729  12.093  12.147   8.272
89278SOL     OW69730   3.448   2.988   7.473
89278SOL    HW169731   3.511   3.049   7.512
89278SOL    HW269732   3.465   2.905   7.517
89279SOL     OW69733  11.304   2.895  13.782
89279SOL    HW169734  11.391   2.862  13.806
89279SOL    HW269735  11.253   2.816  13.766
89280SOL     OW69736   5.599  13.502   6.464
89280SOL    HW169737   5.656  13.452   6.523
89280SOL    HW269738   5.659  13.535   6.397
89281SOL     OW69739   8.035   2.648   0.542
89281SOL    HW169740   7.958   2.638   0.599
89281SOL    HW269741   8.098   2.584   0.576
89282SOL     OW69742   7.432  13.316   2.007
89282SOL    HW169743   7.458  13.406   1.990
89282SOL    HW269744   7.380  13.321   2.088
89283SOL     OW69745   7.844  10.727   1.177
89283SOL    HW169746   7.777  10.795   1.170
89283SOL    HW269747   7.801  10.647   1.147
89284SOL     OW69748   8.337  14.080   2.567
89284SOL    HW169749   8.359  14.094   2.659
89284SOL    HW269750   8.379  13.997   2.545
89285SOL     OW69751   4.084   6.275   5.002
89285SOL    HW169752   4.072   6.316   5.088
89285SOL    HW269753   4.069   6.345   4.939
89286SOL     OW69754   2.883   5.856   4.820
89286SOL    HW169755   2.978   5.845   4.820
89286SOL    HW269756   2.851   5.788   4.761
89287SOL     OW69757   3.151   5.651   8.839
89287SOL    HW169758   3.134   5.664   8.746
89287SOL    HW269759   3.144   5.557   8.852
89288SOL     OW69760   9.834  13.793   9.310
89288SOL    HW169761   9.782  13.829   9.238
89288SOL    HW269762   9.844  13.701   9.289
89289SOL     OW69763  12.458   6.563   8.614
89289SOL    HW169764  12.403   6.641   8.626
89289SOL    HW269765  12.465   6.525   8.701
89290SOL     OW69766   9.155   6.955   8.671
89290SOL    HW169767   9.087   6.917   8.726
89290SOL    HW269768   9.145   6.911   8.586
89291SOL     OW69769   9.669   6.259   1.874
89291SOL    HW169770   9.617   6.339   1.873
89291SOL    HW269771   9.759   6.289   1.889
89292SOL     OW69772   9.497  13.851   1.652
89292SOL    HW169773   9.550  13.930   1.649
89292SOL    HW269774   9.557  13.781   1.627
89293SOL     OW69775   2.935  14.106   3.302
89293SOL    HW169776   2.939  14.053   3.382
89293SOL    HW269777   2.993  14.180   3.320
89294SOL     OW69778   8.092   2.426   3.518
89294SOL    HW169779   8.056   2.403   3.604
89294SOL    HW269780   8.168   2.369   3.508
89295SOL     OW69781   5.824  12.898   0.036
89295SOL    HW169782   5.804  12.970   0.096
89295SOL    HW269783   5.834  12.822   0.092
89296SOL     OW69784  10.999   9.982   5.828
89296SOL    HW169785  11.079  10.035   5.834
89296SOL    HW269786  10.932  10.044   5.799
89297SOL     OW69787   4.220  10.605   3.330
89297SOL    HW169788   4.272  10.671   3.286
89297SOL    HW269789   4.177  10.652   3.401
89298SOL     OW69790   1.198   3.303   8.118
89298SOL    HW169791   1.151   3.255   8.186
89298SOL    HW269792   1.163   3.269   8.035
89299SOL     OW69793  13.348   1.765   1.203
89299SOL    HW169794  13.429   1.753   1.252
89299SOL    HW269795  13.358   1.851   1.161
89300SOL     OW69796  13.113   6.942   2.566
89300SOL    HW169797  13.178   6.913   2.629
89300SOL    HW269798  13.029   6.926   2.608
89301SOL     OW69799  10.330   5.959   8.652
89301SOL    HW169800  10.313   6.050   8.674
89301SOL    HW269801  10.417   5.959   8.613
89302SOL     OW69802   9.011   0.244   8.720
89302SOL    HW169803   9.079   0.299   8.682
89302SOL    HW269804   8.974   0.297   8.791
89303SOL     OW69805   0.827  11.494   0.985
89303SOL    HW169806   0.786  11.580   0.994
89303SOL    HW269807   0.761  11.440   0.942
89304SOL     OW69808  13.112  10.764   1.700
89304SOL    HW169809  13.047  10.818   1.654
89304SOL    HW269810  13.192  10.776   1.649
89305SOL     OW69811   5.269   9.502   0.240
89305SOL    HW169812   5.319   9.567   0.291
89305SOL    HW269813   5.321   9.488   0.161
89306SOL     OW69814   3.582   1.984   8.824
89306SOL    HW169815   3.513   2.012   8.764
89306SOL    HW269816   3.544   1.993   8.911
89307SOL     OW69817  11.395  10.617   7.130
89307SOL    HW169818  11.483  10.582   7.143
89307SOL    HW269819  11.354  10.611   7.217
89308SOL     OW69820  14.385  11.159   7.968
89308SOL    HW169821  14.465  11.109   7.953
89308SOL    HW269822  14.319  11.116   7.914
89309SOL     OW69823   0.392   3.582   5.455
89309SOL    HW169824   0.483   3.591   5.428
89309SOL    HW269825   0.392   3.510   5.518
89310SOL     OW69826  12.493   4.622   5.669
89310SOL    HW169827  12.422   4.661   5.618
89310SOL    HW269828  12.562   4.605   5.605
89311SOL     OW69829   2.776  10.692   2.198
89311SOL    HW169830   2.705  10.752   2.177
89311SOL    HW269831   2.855  10.739   2.175
89312SOL     OW69832   0.150   9.122   0.668
89312SOL    HW169833   0.144   9.124   0.764
89312SOL    HW269834   0.228   9.069   0.650
89313SOL     OW69835   6.405   4.185   2.848
89313SOL    HW169836   6.313   4.163   2.831
89313SOL    HW269837   6.453   4.148   2.774
89314SOL     OW69838  11.595   8.628   6.712
89314SOL    HW169839  11.521   8.634   6.651
89314SOL    HW269840  11.572   8.555   6.769
89315SOL     OW69841   6.836   7.650   8.963
89315SOL    HW169842   6.809   7.710   8.894
89315SOL    HW269843   6.762   7.590   8.974
89316SOL     OW69844   5.598   6.318   8.348
89316SOL    HW169845   5.533   6.387   8.337
89316SOL    HW269846   5.644   6.341   8.429
89317SOL     OW69847   2.450   3.077   0.993
89317SOL    HW169848   2.514   3.049   1.058
89317SOL    HW269849   2.486   3.050   0.909
89318SOL     OW69850   1.179   1.608  13.391
89318SOL    HW169851   1.271   1.620  13.417
89318SOL    HW269852   1.182   1.540  13.324
89319SOL     OW69853  11.822  11.655   1.045
89319SOL    HW169854  11.801  11.561   1.047
89319SOL    HW269855  11.885  11.664   0.973
89320SOL     OW69856  10.597   2.341  12.057
89320SOL    HW169857  10.527   2.315  11.998
89320SOL    HW269858  10.561   2.328  12.145
89321SOL     OW69859   9.237  14.348  13.191
89321SOL    HW169860   9.148  14.384  13.192
89321SOL    HW269861   9.255  14.331  13.098
89322SOL     OW69862   0.518   0.646  11.561
89322SOL    HW169863   0.481   0.732  11.543
89322SOL    HW269864   0.499   0.595  11.482
89323SOL     OW69865   1.624   3.647   2.026
89323SOL    HW169866   1.582   3.576   1.978
89323SOL    HW269867   1.717   3.630   2.018
89324SOL     OW69868   7.107   6.066   0.917
89324SOL    HW169869   7.157   6.002   0.968
89324SOL    HW269870   7.162   6.085   0.842
89325SOL     OW69871  10.142   0.531  11.543
89325SOL    HW169872  10.051   0.516  11.569
89325SOL    HW269873  10.143   0.513  11.449
89326SOL     OW69874   5.635   9.571  14.071
89326SOL    HW169875   5.685   9.552  13.992
89326SOL    HW269876   5.562   9.626  14.040
89327SOL     OW69877  14.682   0.681  10.213
89327SOL    HW169878  14.737   0.710  10.141
89327SOL    HW269879  14.594   0.675  10.175
89328SOL     OW69880   2.681   2.334   6.972
89328SOL    HW169881   2.756   2.306   7.025
89328SOL    HW269882   2.659   2.257   6.919
89329SOL     OW69883  11.579   6.529   8.414
89329SOL    HW169884  11.577   6.536   8.509
89329SOL    HW269885  11.492   6.494   8.391
89330SOL     OW69886   4.158  14.049  10.256
89330SOL    HW169887   4.155  14.092  10.342
89330SOL    HW269888   4.067  14.046  10.227
89331SOL     OW69889  14.258   7.886  12.416
89331SOL    HW169890  14.318   7.832  12.469
89331SOL    HW269891  14.233   7.829  12.343
89332SOL     OW69892   1.018   2.804  11.428
89332SOL    HW169893   0.991   2.739  11.364
89332SOL    HW269894   1.098   2.769  11.466
89333SOL     OW69895  10.265   9.649   0.836
89333SOL    HW169896  10.257   9.736   0.797
89333SOL    HW269897  10.321   9.663   0.913
89334SOL     OW69898   6.094  14.219  10.267
89334SOL    HW169899   6.022  14.282  10.272
89334SOL    HW269900   6.162  14.265  10.216
89335SOL     OW69901   0.489  13.829  14.111
89335SOL    HW169902   0.444  13.807  14.192
89335SOL    HW269903   0.552  13.897  14.136
89336SOL     OW69904   5.418  12.123   6.762
89336SOL    HW169905   5.460  12.057   6.708
89336SOL    HW269906   5.414  12.084   6.849
89337SOL     OW69907   6.058   9.493   6.435
89337SOL    HW169908   5.970   9.529   6.427
89337SOL    HW269909   6.097   9.541   6.508
89338SOL     OW69910  11.759   7.628   5.684
89338SOL    HW169911  11.769   7.565   5.755
89338SOL    HW269912  11.727   7.707   5.727
89339SOL     OW69913   2.715   4.939  11.781
89339SOL    HW169914   2.649   4.966  11.845
89339SOL    HW269915   2.794   4.985  11.806
89340SOL     OW69916   5.459  10.261  14.399
89340SOL    HW169917   5.401  10.212  14.458
89340SOL    HW269918   5.479  10.201  14.328
89341SOL     OW69919   1.441  12.920  13.700
89341SOL    HW169920   1.519  12.927  13.644
89341SOL    HW269921   1.427  13.009  13.732
89342SOL     OW69922  11.406  10.431   1.536
89342SOL    HW169923  11.393  10.476   1.453
89342SOL    HW269924  11.486  10.380   1.523
89343SOL     OW69925   1.458   2.598  14.300
89343SOL    HW169926   1.549   2.620  14.279
89343SOL    HW269927   1.454   2.503  14.290
89344SOL     OW69928  10.334   3.823   7.297
89344SOL    HW169929  10.259   3.847   7.244
89344SOL    HW269930  10.303   3.750   7.351
89345SOL     OW69931   8.786  12.466  13.459
89345SOL    HW169932   8.879  12.451  13.442
89345SOL    HW269933   8.750  12.496  13.376
89346SOL     OW69934   7.046   9.358   0.904
89346SOL    HW169935   7.138   9.333   0.897
89346SOL    HW269936   7.043   9.447   0.868
89347SOL     OW69937  10.665  10.171  10.553
89347SOL    HW169938  10.606  10.136  10.486
89347SOL    HW269939  10.612  10.234  10.602
89348SOL     OW69940  10.811  10.110   7.124
89348SOL    HW169941  10.849  10.037   7.172
89348SOL    HW269942  10.866  10.186   7.147
89349SOL     OW69943   5.877   5.181  13.325
89349SOL    HW169944   5.901   5.271  13.348
89349SOL    HW269945   5.836   5.146  13.404
89350SOL     OW69946  12.542  12.014   5.071
89350SOL    HW169947  12.630  12.020   5.033
89350SOL    HW269948  12.557  11.987   5.161
89351SOL     OW69949   4.986   6.902   4.292
89351SOL    HW169950   5.024   6.902   4.380
89351SOL    HW269951   4.947   6.816   4.282
89352SOL     OW69952   8.389   7.452   4.989
89352SOL    HW169953   8.313   7.462   5.046
89352SOL    HW269954   8.365   7.497   4.908
89353SOL     OW69955   5.862   6.284   7.252
89353SOL    HW169956   5.873   6.312   7.161
89353SOL    HW269957   5.779   6.323   7.280
89354SOL     OW69958   3.080   3.301   3.061
89354SOL    HW169959   3.041   3.375   3.108
89354SOL    HW269960   3.154   3.339   3.014
89355SOL     OW69961   4.584  13.041   3.186
89355SOL    HW169962   4.526  13.020   3.259
89355SOL    HW269963   4.557  13.129   3.158
89356SOL     OW69964   7.614   5.156   2.938
89356SOL    HW169965   7.692   5.199   2.902
89356SOL    HW269966   7.602   5.079   2.883
89357SOL     OW69967   0.770  12.794   1.044
89357SOL    HW169968   0.758  12.821   1.135
89357SOL    HW269969   0.865  12.796   1.031
89358SOL     OW69970   6.268   0.151   0.917
89358SOL    HW169971   6.302   0.240   0.915
89358SOL    HW269972   6.184   0.158   0.961
89359SOL     OW69973   6.654   5.157   6.157
89359SOL    HW169974   6.641   5.183   6.248
89359SOL    HW269975   6.608   5.223   6.106
89360SOL     OW69976   6.937   0.001   7.642
89360SOL    HW169977   6.900  14.790   7.674
89360SOL    HW269978   6.937  14.863   7.547
89361SOL     OW69979   7.876   5.580   2.462
89361SOL    HW169980   7.845   5.494   2.489
89361SOL    HW269981   7.961   5.590   2.504
89362SOL     OW69982  14.263   2.386   3.112
89362SOL    HW169983  14.266   2.386   3.016
89362SOL    HW269984  14.172   2.368   3.133
89363SOL     OW69985  13.520  12.690  11.529
89363SOL    HW169986  13.573  12.633  11.474
89363SOL    HW269987  13.457  12.632  11.571
89364SOL     OW69988   7.796   2.087   7.476
89364SOL    HW169989   7.703   2.104   7.459
89364SOL    HW269990   7.809   1.997   7.447
89365SOL     OW69991   1.885  12.192  14.415
89365SOL    HW169992   1.866  12.227  14.328
89365SOL    HW269993   1.981  12.188  14.419
89366SOL     OW69994   5.126   8.432   0.394
89366SOL    HW169995   5.166   8.399   0.474
89366SOL    HW269996   5.034   8.409   0.401
89367SOL     OW69997  14.020   3.545   2.795
89367SOL    HW169998  14.020   3.559   2.701
89367SOL    HW269999  14.112   3.541   2.819
89368SOL     OW70000   3.160   6.342   5.259
89368SOL    HW170001   3.250   6.368   5.239
89368SOL    HW270002   3.169   6.256   5.299
89369SOL     OW70003  12.778  13.880   1.927
89369SOL    HW170004  12.825  13.803   1.961
89369SOL    HW270005  12.693  13.877   1.970
89370SOL     OW70006   7.530   5.730   9.323
89370SOL    HW170007   7.486   5.811   9.298
89370SOL    HW270008   7.623   5.750   9.317
89371SOL     OW70009  13.993  14.607   8.993
89371SOL    HW170010  14.020  14.597   9.084
89371SOL    HW270011  14.054  14.671   8.957
89372SOL     OW70012   6.021   5.625   6.294
89372SOL    HW170013   6.117   5.626   6.301
89372SOL    HW270014   5.991   5.668   6.374
89373SOL     OW70015   6.650   8.732   2.647
89373SOL    HW170016   6.698   8.690   2.576
89373SOL    HW270017   6.698   8.813   2.663
89374SOL     OW70018   9.867  14.585   3.568
89374SOL    HW170019   9.829  14.610   3.652
89374SOL    HW270020   9.792  14.556   3.516
89375SOL     OW70021   8.169   8.916   3.869
89375SOL    HW170022   8.246   8.971   3.885
89375SOL    HW270023   8.205   8.830   3.848
89376SOL     OW70024   8.271   1.500  11.387
89376SOL    HW170025   8.285   1.570  11.451
89376SOL    HW270026   8.230   1.429  11.437
89377SOL     OW70027  11.077   9.884  10.816
89377SOL    HW170028  11.070   9.851  10.726
89377SOL    HW270029  10.987   9.897  10.843
89378SOL     OW70030   8.267   8.801   2.576
89378SOL    HW170031   8.347   8.835   2.616
89378SOL    HW270032   8.244   8.725   2.629
89379SOL     OW70033   9.990  10.093   2.851
89379SOL    HW170034   9.965  10.075   2.760
89379SOL    HW270035  10.011  10.008   2.888
89380SOL     OW70036   4.871   5.530   9.584
89380SOL    HW170037   4.941   5.538   9.519
89380SOL    HW270038   4.873   5.613   9.631
89381SOL     OW70039   2.055   7.834  11.167
89381SOL    HW170040   2.079   7.785  11.089
89381SOL    HW270041   2.047   7.767  11.236
89382SOL     OW70042   8.164   5.291   3.730
89382SOL    HW170043   8.235   5.282   3.667
89382SOL    HW270044   8.085   5.305   3.677
89383SOL     OW70045   5.097   8.340   9.595
89383SOL    HW170046   5.148   8.411   9.634
89383SOL    HW270047   5.083   8.369   9.504
89384SOL     OW70048   0.084  12.876  10.521
89384SOL    HW170049   0.147  12.936  10.561
89384SOL    HW270050  14.871  12.918  10.533
89385SOL     OW70051  13.433   4.649   3.140
89385SOL    HW170052  13.505   4.694   3.184
89385SOL    HW270053  13.439   4.678   3.049
89386SOL     OW70054   0.790  14.036  12.837
89386SOL    HW170055   0.734  14.027  12.914
89386SOL    HW270056   0.764  13.963  12.780
89387SOL     OW70057   6.168   7.151   4.098
89387SOL    HW170058   6.188   7.061   4.074
89387SOL    HW270059   6.076   7.162   4.075
89388SOL     OW70060   3.371  10.296  13.194
89388SOL    HW170061   3.417  10.347  13.260
89388SOL    HW270062   3.425  10.302  13.116
89389SOL     OW70063   0.995  13.118   0.027
89389SOL    HW170064   1.050  13.046  14.867
89389SOL    HW270065   0.992  13.106   0.121
89390SOL     OW70066  10.801   4.793   5.889
89390SOL    HW170067  10.724   4.826   5.844
89390SOL    HW270068  10.770   4.774   5.978
89391SOL     OW70069   0.732   6.433  14.781
89391SOL    HW170070   0.690   6.400  14.860
89391SOL    HW270071   0.786   6.506  14.811
89392SOL     OW70072   0.730   1.332   0.414
89392SOL    HW170073   0.748   1.253   0.466
89392SOL    HW270074   0.749   1.404   0.473
89393SOL     OW70075   6.609   0.423   4.799
89393SOL    HW170076   6.559   0.433   4.718
89393SOL    HW270077   6.587   0.335   4.829
89394SOL     OW70078   0.357   1.226  14.094
89394SOL    HW170079   0.449   1.241  14.115
89394SOL    HW270080   0.348   1.131  14.097
89395SOL     OW70081   5.367   2.343  14.349
89395SOL    HW170082   5.354   2.307  14.262
89395SOL    HW270083   5.383   2.436  14.335
89396SOL     OW70084   9.789  12.881   7.696
89396SOL    HW170085   9.784  12.970   7.661
89396SOL    HW270086   9.877  12.875   7.734
89397SOL     OW70087   6.234   5.323   7.037
89397SOL    HW170088   6.201   5.300   6.950
89397SOL    HW270089   6.182   5.270   7.098
89398SOL     OW70090   7.257  11.530   2.147
89398SOL    HW170091   7.285  11.462   2.208
89398SOL    HW270092   7.263  11.488   2.061
89399SOL     OW70093   2.317   1.457  12.377
89399SOL    HW170094   2.353   1.369  12.389
89399SOL    HW270095   2.301   1.490  12.466
89400SOL     OW70096   4.532  12.876   7.115
89400SOL    HW170097   4.580  12.941   7.166
89400SOL    HW270098   4.598  12.811   7.091
89401SOL     OW70099  13.039  10.317  10.644
89401SOL    HW170100  13.090  10.398  10.647
89401SOL    HW270101  13.080  10.261  10.710
89402SOL     OW70102   6.473  10.172   8.796
89402SOL    HW170103   6.409  10.115   8.840
89402SOL    HW270104   6.438  10.260   8.807
89403SOL     OW70105   9.216  11.630   6.169
89403SOL    HW170106   9.227  11.606   6.261
89403SOL    HW270107   9.197  11.548   6.124
89404SOL     OW70108   6.741  10.796   2.587
89404SOL    HW170109   6.724  10.729   2.654
89404SOL    HW270110   6.732  10.749   2.504
89405SOL     OW70111  12.795   3.214  12.784
89405SOL    HW170112  12.822   3.303  12.763
89405SOL    HW270113  12.846   3.191  12.862
89406SOL     OW70114  14.686   8.453  14.097
89406SOL    HW170115  14.608   8.484  14.050
89406SOL    HW270116  14.713   8.529  14.149
89407SOL     OW70117   3.942  13.327   4.418
89407SOL    HW170118   3.930  13.305   4.510
89407SOL    HW270119   3.968  13.245   4.376
89408SOL     OW70120   3.896   9.338  13.110
89408SOL    HW170121   3.913   9.374  13.197
89408SOL    HW270122   3.947   9.257  13.107
89409SOL     OW70123   8.342   9.557   6.630
89409SOL    HW170124   8.323   9.630   6.690
89409SOL    HW270125   8.284   9.487   6.659
89410SOL     OW70126   8.538   7.639   8.518
89410SOL    HW170127   8.609   7.602   8.464
89410SOL    HW270128   8.485   7.563   8.543
89411SOL     OW70129   8.673   6.677   6.497
89411SOL    HW170130   8.657   6.609   6.562
89411SOL    HW270131   8.716   6.632   6.424
89412SOL     OW70132   5.713   7.953   4.636
89412SOL    HW170133   5.670   8.028   4.678
89412SOL    HW270134   5.641   7.897   4.609
89413SOL     OW70135   6.285  11.927  10.684
89413SOL    HW170136   6.272  12.016  10.651
89413SOL    HW270137   6.224  11.920  10.758
89414SOL     OW70138  11.940  11.885   1.668
89414SOL    HW170139  11.913  11.877   1.577
89414SOL    HW270140  11.991  11.966   1.672
89415SOL     OW70141   2.878   5.588   1.538
89415SOL    HW170142   2.855   5.601   1.630
89415SOL    HW270143   2.865   5.673   1.497
89416SOL     OW70144   3.805  13.377   4.814
89416SOL    HW170145   3.872  13.315   4.786
89416SOL    HW270146   3.748  13.327   4.873
89417SOL     OW70147   8.058   4.735   6.743
89417SOL    HW170148   8.017   4.659   6.702
89417SOL    HW270149   8.149   4.732   6.714
89418SOL     OW70150  13.087   2.429  11.917
89418SOL    HW170151  13.057   2.519  11.906
89418SOL    HW270152  13.084   2.413  12.011
89419SOL     OW70153   7.423  10.558   7.511
89419SOL    HW170154   7.383  10.537   7.596
89419SOL    HW270155   7.381  10.640   7.485
89420SOL     OW70156  10.832   5.809   5.892
89420SOL    HW170157  10.903   5.848   5.943
89420SOL    HW270158  10.821   5.866   5.816
89421SOL     OW70159   9.817  13.958   6.018
89421SOL    HW170160   9.857  13.956   6.105
89421SOL    HW270161   9.840  14.045   5.984
89422SOL     OW70162   7.261  10.506   2.299
89422SOL    HW170163   7.349  10.514   2.336
89422SOL    HW270164   7.215  10.448   2.360
89423SOL     OW70165   3.547   7.355  13.300
89423SOL    HW170166   3.558   7.450  13.299
89423SOL    HW270167   3.453   7.341  13.295
89424SOL     OW70168   2.117   6.339   8.702
89424SOL    HW170169   2.188   6.282   8.732
89424SOL    HW270170   2.159   6.398   8.639
89425SOL     OW70171   4.329  10.997   8.551
89425SOL    HW170172   4.323  10.902   8.547
89425SOL    HW270173   4.410  11.015   8.598
89426SOL     OW70174  12.056   5.584   1.300
89426SOL    HW170175  11.982   5.643   1.284
89426SOL    HW270176  12.017   5.497   1.305
89427SOL     OW70177   3.646   1.224   1.989
89427SOL    HW170178   3.672   1.316   1.998
89427SOL    HW270179   3.572   1.227   1.928
89428SOL     OW70180  14.531   0.613  10.634
89428SOL    HW170181  14.438   0.600  10.617
89428SOL    HW270182  14.533   0.681  10.702
89429SOL     OW70183   3.791  10.459   9.130
89429SOL    HW170184   3.871  10.440   9.179
89429SOL    HW270185   3.727  10.398   9.165
89430SOL     OW70186   8.544   8.149   9.966
89430SOL    HW170187   8.473   8.089   9.943
89430SOL    HW270188   8.580   8.177   9.881
89431SOL     OW70189   1.986   3.347   9.488
89431SOL    HW170190   1.911   3.296   9.459
89431SOL    HW270191   2.036   3.287   9.543
89432SOL     OW70192   4.200   6.651   9.415
89432SOL    HW170193   4.241   6.688   9.336
89432SOL    HW270194   4.254   6.683   9.487
89433SOL     OW70195  13.914   6.123   2.599
89433SOL    HW170196  13.952   6.180   2.532
89433SOL    HW270197  13.909   6.037   2.557
89434SOL     OW70198   9.614  14.251  14.708
89434SOL    HW170199   9.571  14.330  14.741
89434SOL    HW270200   9.675  14.283  14.642
89435SOL     OW70201  11.153   0.246   3.103
89435SOL    HW170202  11.199   0.167   3.134
89435SOL    HW270203  11.079   0.255   3.163
89436SOL     OW70204  11.934  11.487   3.746
89436SOL    HW170205  11.842  11.493   3.773
89436SOL    HW270206  11.960  11.397   3.766
89437SOL     OW70207   4.007  11.853   1.938
89437SOL    HW170208   3.930  11.884   1.891
89437SOL    HW270209   3.982  11.855   2.030
89438SOL     OW70210  10.403   8.960   9.618
89438SOL    HW170211  10.494   8.966   9.649
89438SOL    HW270212  10.392   8.869   9.593
89439SOL     OW70213  12.129  14.201  10.208
89439SOL    HW170214  12.126  14.242  10.121
89439SOL    HW270215  12.072  14.254  10.262
89440SOL     OW70216   9.619  10.472   4.700
89440SOL    HW170217   9.693  10.504   4.649
89440SOL    HW270218   9.545  10.474   4.640
89441SOL     OW70219   3.863  11.767   0.284
89441SOL    HW170220   3.875  11.695   0.345
89441SOL    HW270221   3.949  11.779   0.244
89442SOL     OW70222   8.746   6.694   3.800
89442SOL    HW170223   8.792   6.618   3.835
89442SOL    HW270224   8.655   6.682   3.828
89443SOL     OW70225   8.835   8.780   9.936
89443SOL    HW170226   8.855   8.833   9.858
89443SOL    HW270227   8.819   8.845  10.005
89444SOL     OW70228  14.235  10.944   2.786
89444SOL    HW170229  14.328  10.964   2.772
89444SOL    HW270230  14.236  10.872   2.850
89445SOL     OW70231   3.735   2.976   6.706
89445SOL    HW170232   3.650   3.002   6.743
89445SOL    HW270233   3.783   3.058   6.696
89446SOL     OW70234  10.941   9.279   0.041
89446SOL    HW170235  10.977   9.310  14.830
89446SOL    HW270236  10.965   9.346   0.104
89447SOL     OW70237   9.733   8.558  13.085
89447SOL    HW170238   9.806   8.513  13.044
89447SOL    HW270239   9.682   8.592  13.012
89448SOL     OW70240   6.774   3.991   0.711
89448SOL    HW170241   6.690   4.026   0.740
89448SOL    HW270242   6.823   4.068   0.682
89449SOL     OW70243   0.956   4.575  11.953
89449SOL    HW170244   1.050   4.568  11.970
89449SOL    HW270245   0.937   4.504  11.892
89450SOL     OW70246  11.420   6.600  10.750
89450SOL    HW170247  11.399   6.512  10.782
89450SOL    HW270248  11.472   6.640  10.820
89451SOL     OW70249   1.110  14.096  14.526
89451SOL    HW170250   1.017  14.117  14.512
89451SOL    HW270251   1.141  14.062  14.443
89452SOL     OW70252   1.937   1.055   5.124
89452SOL    HW170253   1.862   1.096   5.081
89452SOL    HW270254   1.982   1.007   5.053
89453SOL     OW70255  10.828   7.522   6.911
89453SOL    HW170256  10.758   7.509   6.847
89453SOL    HW270257  10.797   7.595   6.965
89454SOL     OW70258  11.744  14.586   1.803
89454SOL    HW170259  11.704  14.597   1.717
89454SOL    HW270260  11.779  14.497   1.802
89455SOL     OW70261  10.077  13.168   8.482
89455SOL    HW170262  10.005  13.122   8.440
89455SOL    HW270263  10.154  13.115   8.463
89456SOL     OW70264   0.712   9.702   5.126
89456SOL    HW170265   0.801   9.724   5.154
89456SOL    HW270266   0.675   9.652   5.199
89457SOL     OW70267  14.750   4.182   3.771
89457SOL    HW170268  14.727   4.184   3.864
89457SOL    HW270269  14.817   4.113   3.765
89458SOL     OW70270   7.983  11.104   2.796
89458SOL    HW170271   7.981  11.010   2.816
89458SOL    HW270272   8.061  11.137   2.841
89459SOL     OW70273   0.291   8.322   5.478
89459SOL    HW170274   0.278   8.377   5.555
89459SOL    HW270275   0.265   8.234   5.507
89460SOL     OW70276   9.562   7.130   1.461
89460SOL    HW170277   9.520   7.185   1.527
89460SOL    HW270278   9.599   7.192   1.398
89461SOL     OW70279   5.831   9.071   9.284
89461SOL    HW170280   5.790   9.021   9.214
89461SOL    HW270281   5.778   9.053   9.361
89462SOL     OW70282  13.794   4.058   1.199
89462SOL    HW170283  13.840   3.985   1.241
89462SOL    HW270284  13.805   4.131   1.259
89463SOL     OW70285   0.911  12.760   5.841
89463SOL    HW170286   0.933  12.767   5.934
89463SOL    HW270287   0.948  12.839   5.801
89464SOL     OW70288  12.127  12.939  14.650
89464SOL    HW170289  12.173  13.021  14.670
89464SOL    HW270290  12.191  12.871  14.669
89465SOL     OW70291  13.160   8.318   8.487
89465SOL    HW170292  13.252   8.322   8.461
89465SOL    HW270293  13.158   8.255   8.559
89466SOL     OW70294   2.677  13.793  13.769
89466SOL    HW170295   2.644  13.833  13.849
89466SOL    HW270296   2.758  13.840  13.750
89467SOL     OW70297   8.797   7.924   4.091
89467SOL    HW170298   8.751   7.971   4.160
89467SOL    HW270299   8.880   7.971   4.081
89468SOL     OW70300   2.000   1.435  14.867
89468SOL    HW170301   1.954   1.352  14.854
89468SOL    HW270302   2.084   1.410   0.034
89469SOL     OW70303   5.266  11.351   2.057
89469SOL    HW170304   5.221  11.390   1.983
89469SOL    HW270305   5.353  11.393   2.057
89470SOL     OW70306  14.069   6.185   8.066
89470SOL    HW170307  14.130   6.205   7.995
89470SOL    HW270308  13.984   6.176   8.024
89471SOL     OW70309   2.599   2.838   1.944
89471SOL    HW170310   2.653   2.785   2.003
89471SOL    HW270311   2.538   2.775   1.904
89472SOL     OW70312  13.228  13.504  13.978
89472SOL    HW170313  13.240  13.598  13.972
89472SOL    HW270314  13.267  13.470  13.898
89473SOL     OW70315  11.700   7.548   2.118
89473SOL    HW170316  11.751   7.570   2.196
89473SOL    HW270317  11.671   7.632   2.083
89474SOL     OW70318  11.500   4.456   4.471
89474SOL    HW170319  11.593   4.433   4.460
89474SOL    HW270320  11.486   4.527   4.409
89475SOL     OW70321   3.123   6.661   8.286
89475SOL    HW170322   3.213   6.639   8.307
89475SOL    HW270323   3.077   6.660   8.371
89476SOL     OW70324   2.652   5.847   7.471
89476SOL    HW170325   2.677   5.885   7.556
89476SOL    HW270326   2.735   5.816   7.434
89477SOL     OW70327   4.061   1.050  12.674
89477SOL    HW170328   4.012   1.059  12.756
89477SOL    HW270329   4.017   0.978  12.628
89478SOL     OW70330   4.183   5.436   6.418
89478SOL    HW170331   4.264   5.443   6.369
89478SOL    HW270332   4.160   5.343   6.414
89479SOL     OW70333   3.054   3.710  12.453
89479SOL    HW170334   3.118   3.715  12.523
89479SOL    HW270335   2.970   3.727  12.495
89480SOL     OW70336   0.025   9.715   6.989
89480SOL    HW170337   0.098   9.654   7.002
89480SOL    HW270338   0.042   9.786   7.051
89481SOL     OW70339  12.921  13.288   1.445
89481SOL    HW170340  12.849  13.351   1.442
89481SOL    HW270341  12.928  13.265   1.538
89482SOL     OW70342   6.373  12.868   8.569
89482SOL    HW170343   6.329  12.935   8.517
89482SOL    HW270344   6.444  12.914   8.613
89483SOL     OW70345   9.339   2.220   2.732
89483SOL    HW170346   9.356   2.167   2.654
89483SOL    HW270347   9.343   2.310   2.701
89484SOL     OW70348   2.704   5.680  13.169
89484SOL    HW170349   2.796   5.674  13.197
89484SOL    HW270350   2.680   5.771  13.185
89485SOL     OW70351   0.427   2.957   0.044
89485SOL    HW170352   0.503   2.965   0.102
89485SOL    HW270353   0.442   3.020  14.846
89486SOL     OW70354   6.903   1.867   4.863
89486SOL    HW170355   6.883   1.940   4.804
89486SOL    HW270356   6.817   1.831   4.886
89487SOL     OW70357   8.660   7.017   5.972
89487SOL    HW170358   8.606   7.076   5.918
89487SOL    HW270359   8.658   7.056   6.059
89488SOL     OW70360  12.894  11.995   9.926
89488SOL    HW170361  12.942  11.954   9.998
89488SOL    HW270362  12.891  11.927   9.858
89489SOL     OW70363  12.617   8.787   5.360
89489SOL    HW170364  12.542   8.811   5.414
89489SOL    HW270365  12.644   8.869   5.319
89490SOL     OW70366  10.681   3.745   3.877
89490SOL    HW170367  10.719   3.791   3.952
89490SOL    HW270368  10.668   3.656   3.908
89491SOL     OW70369   2.743   4.869  10.011
89491SOL    HW170370   2.755   4.776   9.993
89491SOL    HW270371   2.673   4.872  10.076
89492SOL     OW70372   4.782   9.779   2.193
89492SOL    HW170373   4.787   9.851   2.256
89492SOL    HW270374   4.755   9.822   2.111
89493SOL     OW70375  14.824  13.301   5.094
89493SOL    HW170376   0.030  13.319   5.147
89493SOL    HW270377  14.811  13.206   5.100
89494SOL     OW70378   3.666   4.406   6.373
89494SOL    HW170379   3.589   4.446   6.333
89494SOL    HW270380   3.636   4.378   6.459
89495SOL     OW70381   8.540   8.015   4.438
89495SOL    HW170382   8.467   7.955   4.452
89495SOL    HW270383   8.576   7.990   4.353
89496SOL     OW70384   8.483   8.881  13.141
89496SOL    HW170385   8.391   8.878  13.116
89496SOL    HW270386   8.486   8.940  13.216
89497SOL     OW70387  12.584   7.178  11.539
89497SOL    HW170388  12.548   7.199  11.626
89497SOL    HW270389  12.509   7.147  11.489
89498SOL     OW70390   1.783   1.927   7.516
89498SOL    HW170391   1.798   1.911   7.609
89498SOL    HW270392   1.868   1.954   7.481
89499SOL     OW70393  12.248  10.493   2.831
89499SOL    HW170394  12.264  10.440   2.910
89499SOL    HW270395  12.335  10.505   2.794
89500SOL     OW70396   8.575   9.516  13.714
89500SOL    HW170397   8.668   9.515  13.691
89500SOL    HW270398   8.557   9.608  13.735
89501SOL     OW70399   7.147   2.951  13.933
89501SOL    HW170400   7.226   2.964  13.986
89501SOL    HW270401   7.082   3.008  13.973
89502SOL     OW70402  10.373   5.307   9.814
89502SOL    HW170403  10.349   5.239   9.752
89502SOL    HW270404  10.457   5.279   9.850
89503SOL     OW70405   4.098   0.291  10.780
89503SOL    HW170406   4.007   0.260  10.788
89503SOL    HW270407   4.150   0.224  10.825
89504SOL     OW70408   5.563   8.730  10.850
89504SOL    HW170409   5.522   8.807  10.811
89504SOL    HW270410   5.509   8.712  10.927
89505SOL     OW70411   3.839   5.281  10.055
89505SOL    HW170412   3.818   5.188  10.050
89505SOL    HW270413   3.908   5.286  10.121
89506SOL     OW70414  14.153   6.532   0.103
89506SOL    HW170415  14.193   6.619   0.111
89506SOL    HW270416  14.164   6.509   0.011
89507SOL     OW70417   0.686  14.704   3.765
89507SOL    HW170418   0.751  14.774   3.764
89507SOL    HW270419   0.672  14.683   3.672
89508SOL     OW70420  13.415   7.346  12.215
89508SOL    HW170421  13.442   7.408  12.147
89508SOL    HW270422  13.351   7.289  12.172
89509SOL     OW70423   5.786  12.089   0.174
89509SOL    HW170424   5.792  12.019   0.109
89509SOL    HW270425   5.786  12.169   0.122
89510SOL     OW70426   3.903   1.245  10.289
89510SOL    HW170427   3.886   1.167  10.341
89510SOL    HW270428   3.993   1.269  10.309
89511SOL     OW70429  13.410   9.339   2.071
89511SOL    HW170430  13.324   9.324   2.030
89511SOL    HW270431  13.444   9.418   2.028
89512SOL     OW70432   8.256   5.352   3.971
89512SOL    HW170433   8.219   5.336   3.884
89512SOL    HW270434   8.304   5.272   3.992
89513SOL     OW70435   8.323   9.206   1.925
89513SOL    HW170436   8.336   9.178   1.834
89513SOL    HW270437   8.394   9.163   1.973
89514SOL     OW70438   0.268  13.894   7.085
89514SOL    HW170439   0.326  13.936   7.020
89514SOL    HW270440   0.216  13.966   7.120
89515SOL     OW70441   1.767  12.849   9.781
89515SOL    HW170442   1.676  12.838   9.808
89515SOL    HW270443   1.790  12.938   9.806
89516SOL     OW70444  12.080   2.894   8.492
89516SOL    HW170445  12.091   2.803   8.463
89516SOL    HW270446  12.169   2.927   8.501
89517SOL     OW70447   3.992   4.805   1.382
89517SOL    HW170448   3.954   4.749   1.314
89517SOL    HW270449   4.028   4.744   1.446
89518SOL     OW70450   5.486   1.775   4.663
89518SOL    HW170451   5.448   1.705   4.611
89518SOL    HW270452   5.555   1.734   4.714
89519SOL     OW70453   6.429  11.757  13.943
89519SOL    HW170454   6.515  11.743  13.982
89519SOL    HW270455   6.441  11.735  13.850
89520SOL     OW70456  12.966  14.550   2.738
89520SOL    HW170457  12.970  14.595   2.654
89520SOL    HW270458  12.943  14.618   2.801
89521SOL     OW70459   9.802   5.458   9.891
89521SOL    HW170460   9.707   5.460   9.885
89521SOL    HW270461   9.831   5.542   9.856
89522SOL     OW70462   1.897   1.265  12.539
89522SOL    HW170463   1.883   1.179  12.579
89522SOL    HW270464   1.885   1.327  12.611
89523SOL     OW70465  11.383  14.189   4.894
89523SOL    HW170466  11.454  14.176   4.831
89523SOL    HW270467  11.361  14.282   4.885
89524SOL     OW70468  10.226   3.037   4.534
89524SOL    HW170469  10.307   2.988   4.521
89524SOL    HW270470  10.254   3.127   4.552
89525SOL     OW70471  10.058   4.053   7.443
89525SOL    HW170472   9.967   4.060   7.473
89525SOL    HW270473  10.071   4.131   7.389
89526SOL     OW70474   0.553  12.999   5.531
89526SOL    HW170475   0.612  12.953   5.590
89526SOL    HW270476   0.602  13.008   5.450
89527SOL     OW70477  10.489  12.969   1.776
89527SOL    HW170478  10.483  12.874   1.786
89527SOL    HW270479  10.420  12.991   1.712
89528SOL     OW70480   2.734   7.931  14.743
89528SOL    HW170481   2.693   8.017  14.755
89528SOL    HW270482   2.743   7.897  14.832
89529SOL     OW70483   0.252  11.535  13.468
89529SOL    HW170484   0.258  11.509  13.560
89529SOL    HW270485   0.244  11.452  13.420
89530SOL     OW70486  13.701   5.199  10.561
89530SOL    HW170487  13.699   5.287  10.523
89530SOL    HW270488  13.773   5.155  10.515
89531SOL     OW70489   8.185  14.440  11.656
89531SOL    HW170490   8.171  14.518  11.710
89531SOL    HW270491   8.218  14.474  11.573
89532SOL     OW70492   7.499  14.613  11.859
89532SOL    HW170493   7.430  14.670  11.825
89532SOL    HW270494   7.568  14.617  11.793
89533SOL     OW70495  11.960   1.304  14.607
89533SOL    HW170496  12.034   1.321  14.666
89533SOL    HW270497  11.924   1.221  14.638
89534SOL     OW70498   7.461   2.994  12.613
89534SOL    HW170499   7.422   2.981  12.527
89534SOL    HW270500   7.389   2.980  12.674
89535SOL     OW70501   6.740  13.555  10.785
89535SOL    HW170502   6.748  13.639  10.739
89535SOL    HW270503   6.793  13.495  10.732
89536SOL     OW70504  12.264   7.908  10.098
89536SOL    HW170505  12.249   7.874  10.010
89536SOL    HW270506  12.318   7.842  10.141
89537SOL     OW70507   3.374   7.141  10.156
89537SOL    HW170508   3.420   7.062  10.131
89537SOL    HW270509   3.281   7.119  10.147
89538SOL     OW70510   9.728  11.135   9.111
89538SOL    HW170511   9.745  11.127   9.205
89538SOL    HW270512   9.696  11.049   9.085
89539SOL     OW70513   6.494   4.786   6.034
89539SOL    HW170514   6.476   4.774   5.941
89539SOL    HW270515   6.454   4.870   6.055
89540SOL     OW70516  11.370   5.456   1.384
89540SOL    HW170517  11.424   5.534   1.390
89540SOL    HW270518  11.280   5.486   1.399
89541SOL     OW70519  11.883   2.110   6.953
89541SOL    HW170520  11.862   2.052   7.026
89541SOL    HW270521  11.932   2.056   6.892
89542SOL     OW70522   6.586   8.572  14.569
89542SOL    HW170523   6.606   8.597  14.479
89542SOL    HW270524   6.671   8.556  14.609
89543SOL     OW70525   4.963  14.303   1.766
89543SOL    HW170526   4.978  14.391   1.800
89543SOL    HW270527   5.046  14.257   1.779
89544SOL     OW70528   2.395  11.612   9.423
89544SOL    HW170529   2.386  11.686   9.362
89544SOL    HW270530   2.379  11.535   9.369
89545SOL     OW70531   6.078  10.087  14.845
89545SOL    HW170532   6.144  10.069  14.778
89545SOL    HW270533   6.125  10.136   0.041
89546SOL     OW70534  12.862   0.598   4.684
89546SOL    HW170535  12.884   0.551   4.764
89546SOL    HW270536  12.826   0.530   4.626
89547SOL     OW70537  10.880   9.879  12.915
89547SOL    HW170538  10.895   9.920  13.000
89547SOL    HW270539  10.967   9.859  12.882
89548SOL     OW70540   3.450   6.976   0.987
89548SOL    HW170541   3.413   7.039   1.049
89548SOL    HW270542   3.395   6.985   0.909
89549SOL     OW70543   2.258  10.932  11.572
89549SOL    HW170544   2.178  10.884  11.591
89549SOL    HW270545   2.313  10.869  11.525
89550SOL     OW70546   7.016  14.671  10.560
89550SOL    HW170547   7.015  14.625  10.475
89550SOL    HW270548   6.924  14.685  10.581
89551SOL     OW70549  13.385  11.716   4.778
89551SOL    HW170550  13.315  11.769   4.817
89551SOL    HW270551  13.466  11.753   4.814
89552SOL     OW70552   6.866  11.914   8.164
89552SOL    HW170553   6.804  11.937   8.234
89552SOL    HW270554   6.881  11.820   8.176
89553SOL     OW70555   9.293   0.811   4.380
89553SOL    HW170556   9.357   0.789   4.312
89553SOL    HW270557   9.336   0.783   4.462
89554SOL     OW70558   7.426   8.735   3.786
89554SOL    HW170559   7.491   8.668   3.766
89554SOL    HW270560   7.477   8.815   3.800
89555SOL     OW70561   9.198  10.430  11.285
89555SOL    HW170562   9.209  10.345  11.325
89555SOL    HW270563   9.182  10.411  11.192
89556SOL     OW70564  14.798   5.003  12.289
89556SOL    HW170565  14.869   4.944  12.313
89556SOL    HW270566  14.780   5.053  12.369
89557SOL     OW70567   8.979   6.903   1.510
89557SOL    HW170568   9.005   6.928   1.421
89557SOL    HW270569   8.919   6.972   1.538
89558SOL     OW70570   1.149   9.183   3.175
89558SOL    HW170571   1.102   9.164   3.256
89558SOL    HW270572   1.099   9.253   3.134
89559SOL     OW70573  12.883  11.045  14.821
89559SOL    HW170574  12.879  10.990  14.743
89559SOL    HW270575  12.902  11.133  14.788
89560SOL     OW70576   9.809   8.104   9.946
89560SOL    HW170577   9.828   8.188   9.987
89560SOL    HW270578   9.773   8.127   9.860
89561SOL     OW70579   4.061   8.028   3.542
89561SOL    HW170580   4.091   7.964   3.477
89561SOL    HW270581   3.997   7.980   3.595
89562SOL     OW70582   9.116  10.136   2.625
89562SOL    HW170583   9.181  10.089   2.573
89562SOL    HW270584   9.111  10.223   2.586
89563SOL     OW70585  13.111   9.938  12.489
89563SOL    HW170586  13.172  10.011  12.480
89563SOL    HW270587  13.109   9.919  12.582
89564SOL     OW70588   5.261   3.728  13.528
89564SOL    HW170589   5.323   3.737  13.455
89564SOL    HW270590   5.316   3.712  13.604
89565SOL     OW70591   0.848  14.778   7.198
89565SOL    HW170592   0.899  14.759   7.119
89565SOL    HW270593   0.793  14.700   7.210
89566SOL     OW70594  12.133   6.313   9.803
89566SOL    HW170595  12.146   6.257   9.880
89566SOL    HW270596  12.126   6.251   9.730
89567SOL     OW70597  10.182   4.219   4.919
89567SOL    HW170598  10.158   4.312   4.927
89567SOL    HW270599  10.272   4.214   4.953
89568SOL     OW70600   1.297  14.091  10.634
89568SOL    HW170601   1.249  14.166  10.669
89568SOL    HW270602   1.364  14.129  10.578
89569SOL     OW70603   8.529   4.473   4.746
89569SOL    HW170604   8.485   4.529   4.682
89569SOL    HW270605   8.545   4.530   4.821
89570SOL     OW70606  12.743  14.671   7.815
89570SOL    HW170607  12.837  14.653   7.806
89570SOL    HW270608  12.722  14.642   7.904
89571SOL     OW70609  11.151  10.643   4.146
89571SOL    HW170610  11.112  10.565   4.186
89571SOL    HW270611  11.156  10.622   4.053
89572SOL     OW70612   6.025   9.280   7.862
89572SOL    HW170613   5.947   9.327   7.831
89572SOL    HW270614   6.079   9.348   7.903
89573SOL     OW70615  11.476   7.973  14.847
89573SOL    HW170616  11.538   8.040  14.817
89573SOL    HW270617  11.523   7.891  14.839
89574SOL     OW70618   9.844  12.957   9.333
89574SOL    HW170619   9.827  12.891   9.265
89574SOL    HW270620   9.777  12.940   9.399
89575SOL     OW70621   0.129   3.158   5.001
89575SOL    HW170622   0.207   3.164   5.056
89575SOL    HW270623   0.085   3.242   5.012
89576SOL     OW70624  14.572   8.496   8.146
89576SOL    HW170625  14.660   8.525   8.122
89576SOL    HW270626  14.586   8.413   8.192
89577SOL     OW70627   4.474   8.092  10.267
89577SOL    HW170628   4.520   8.170  10.236
89577SOL    HW270629   4.514   8.020  10.218
89578SOL     OW70630  12.236  11.975  14.130
89578SOL    HW170631  12.311  11.936  14.174
89578SOL    HW270632  12.248  11.953  14.038
89579SOL     OW70633   3.286  14.251   8.026
89579SOL    HW170634   3.333  14.193   7.967
89579SOL    HW270635   3.350  14.319   8.049
89580SOL     OW70636   8.681   2.641   9.489
89580SOL    HW170637   8.747   2.655   9.421
89580SOL    HW270638   8.635   2.562   9.462
89581SOL     OW70639   6.721   4.138  14.449
89581SOL    HW170640   6.660   4.064  14.442
89581SOL    HW270641   6.787   4.122  14.381
89582SOL     OW70642   5.750   7.494  10.084
89582SOL    HW170643   5.735   7.571  10.140
89582SOL    HW270644   5.790   7.530  10.005
89583SOL     OW70645  10.498   4.136   2.286
89583SOL    HW170646  10.427   4.125   2.222
89583SOL    HW270647  10.481   4.221   2.326
89584SOL     OW70648   1.047   0.490   9.891
89584SOL    HW170649   1.096   0.567   9.860
89584SOL    HW270650   1.048   0.498   9.986
89585SOL     OW70651   1.738   9.440  13.812
89585SOL    HW170652   1.824   9.475  13.790
89585SOL    HW270653   1.754   9.384  13.888
89586SOL     OW70654  11.029  14.247   3.062
89586SOL    HW170655  11.117  14.219   3.036
89586SOL    HW270656  10.971  14.213   2.994
89587SOL     OW70657   3.364   0.703   3.121
89587SOL    HW170658   3.351   0.676   3.030
89587SOL    HW270659   3.456   0.730   3.125
89588SOL     OW70660   5.305  12.170   5.864
89588SOL    HW170661   5.249  12.246   5.881
89588SOL    HW270662   5.276  12.139   5.778
89589SOL     OW70663   6.765   3.619   3.749
89589SOL    HW170664   6.740   3.705   3.714
89589SOL    HW270665   6.831   3.639   3.815
89590SOL     OW70666  11.025  10.421   9.101
89590SOL    HW170667  10.948  10.418   9.044
89590SOL    HW270668  10.990  10.418   9.190
89591SOL     OW70669   5.419   4.960  12.135
89591SOL    HW170670   5.499   4.925  12.094
89591SOL    HW270671   5.408   5.046  12.095
89592SOL     OW70672   4.675   4.098   3.845
89592SOL    HW170673   4.593   4.068   3.884
89592SOL    HW270674   4.734   4.108   3.920
89593SOL     OW70675   6.503  10.707  12.903
89593SOL    HW170676   6.519  10.798  12.877
89593SOL    HW270677   6.429  10.712  12.963
89594SOL     OW70678   4.454  12.851   7.500
89594SOL    HW170679   4.506  12.871   7.423
89594SOL    HW270680   4.373  12.813   7.465
89595SOL     OW70681  13.417  14.587   8.791
89595SOL    HW170682  13.329  14.551   8.801
89595SOL    HW270683  13.468  14.545   8.860
89596SOL     OW70684  14.313   8.148   3.308
89596SOL    HW170685  14.328   8.075   3.368
89596SOL    HW270686  14.230   8.128   3.265
89597SOL     OW70687   1.123   0.658   3.627
89597SOL    HW170688   1.101   0.736   3.577
89597SOL    HW270689   1.173   0.604   3.566
89598SOL     OW70690   5.331  11.103   8.250
89598SOL    HW170691   5.414  11.095   8.298
89598SOL    HW270692   5.264  11.081   8.315
89599SOL     OW70693  14.866   7.006  13.930
89599SOL    HW170694   0.044   7.083  13.958
89599SOL    HW270695   0.047   6.967  13.860
89600SOL     OW70696  10.777   5.779  10.909
89600SOL    HW170697  10.785   5.716  10.837
89600SOL    HW270698  10.682   5.788  10.922
89601SOL     OW70699   3.421   9.453  13.311
89601SOL    HW170700   3.405   9.457  13.217
89601SOL    HW270701   3.500   9.400  13.320
89602SOL     OW70702   2.872  11.394   5.641
89602SOL    HW170703   2.907  11.484   5.646
89602SOL    HW270704   2.931  11.343   5.696
89603SOL     OW70705  13.295   1.956  13.395
89603SOL    HW170706  13.280   1.871  13.437
89603SOL    HW270707  13.275   1.940  13.302
89604SOL     OW70708   1.208   2.890   7.774
89604SOL    HW170709   1.138   2.868   7.836
89604SOL    HW270710   1.191   2.834   7.698
89605SOL     OW70711   3.377   9.859  14.540
89605SOL    HW170712   3.396   9.950  14.564
89605SOL    HW270713   3.463   9.821  14.523
89606SOL     OW70714  10.415  12.669   5.980
89606SOL    HW170715  10.330  12.703   6.008
89606SOL    HW270716  10.468  12.670   6.059
89607SOL     OW70717  14.010  12.463  14.179
89607SOL    HW170718  14.098  12.499  14.182
89607SOL    HW270719  14.003  12.424  14.092
89608SOL     OW70720  14.024  12.263   4.799
89608SOL    HW170721  14.052  12.328   4.864
89608SOL    HW270722  14.105  12.222   4.770
89609SOL     OW70723   9.608  10.839   5.223
89609SOL    HW170724   9.613  10.744   5.224
89609SOL    HW270725   9.529  10.859   5.172
89610SOL     OW70726   9.707  13.215   1.717
89610SOL    HW170727   9.738  13.178   1.635
89610SOL    HW270728   9.755  13.297   1.726
89611SOL     OW70729   7.115  14.016   9.849
89611SOL    HW170730   7.204  14.018   9.882
89611SOL    HW270731   7.089  13.924   9.858
89612SOL     OW70732  14.128  10.100   9.933
89612SOL    HW170733  14.124  10.031   9.998
89612SOL    HW270734  14.204  10.153   9.959
89613SOL     OW70735   3.016   1.362  13.438
89613SOL    HW170736   3.023   1.267  13.429
89613SOL    HW270737   3.006   1.376  13.532
89614SOL     OW70738   1.350   1.423   2.266
89614SOL    HW170739   1.442   1.412   2.241
89614SOL    HW270740   1.334   1.516   2.257
89615SOL     OW70741  14.863  14.223   1.945
89615SOL    HW170742   0.016  14.308   1.909
89615SOL    HW270743  14.774  14.207   1.912
89616SOL     OW70744   7.911   8.871  13.899
89616SOL    HW170745   7.937   8.788  13.940
89616SOL    HW270746   7.902   8.851  13.806
89617SOL     OW70747   5.850   6.772   0.765
89617SOL    HW170748   5.898   6.849   0.738
89617SOL    HW270749   5.852   6.774   0.861
89618SOL     OW70750   3.343   3.969  13.957
89618SOL    HW170751   3.349   3.931  13.870
89618SOL    HW270752   3.430   3.956  13.995
89619SOL     OW70753   8.520   0.185   8.476
89619SOL    HW170754   8.452   0.252   8.474
89619SOL    HW270755   8.601   0.232   8.454
89620SOL     OW70756  14.276   1.837  11.138
89620SOL    HW170757  14.190   1.848  11.097
89620SOL    HW270758  14.282   1.910  11.200
89621SOL     OW70759   1.044   2.768   7.994
89621SOL    HW170760   0.973   2.758   8.057
89621SOL    HW270761   1.115   2.808   8.043
89622SOL     OW70762  10.833  14.310   9.418
89622SOL    HW170763  10.911  14.277   9.374
89622SOL    HW270764  10.839  14.274   9.507
89623SOL     OW70765  11.394   4.578   9.469
89623SOL    HW170766  11.377   4.489   9.500
89623SOL    HW270767  11.308   4.618   9.463
89624SOL     OW70768   7.522   8.933   2.947
89624SOL    HW170769   7.575   8.926   3.026
89624SOL    HW270770   7.516   8.843   2.915
89625SOL     OW70771   5.657  12.343   2.574
89625SOL    HW170772   5.673  12.314   2.484
89625SOL    HW270773   5.562  12.339   2.583
89626SOL     OW70774   7.240  12.571   7.337
89626SOL    HW170775   7.235  12.476   7.350
89626SOL    HW270776   7.216  12.584   7.246
89627SOL     OW70777  13.943   9.573  12.722
89627SOL    HW170778  14.028   9.592  12.761
89627SOL    HW270779  13.882   9.573  12.796
89628SOL     OW70780   2.631   5.119   8.950
89628SOL    HW170781   2.605   5.035   8.988
89628SOL    HW270782   2.726   5.123   8.962
89629SOL     OW70783   8.659   8.518   7.978
89629SOL    HW170784   8.648   8.610   7.999
89629SOL    HW270785   8.752   8.500   7.992
89630SOL     OW70786  11.773   8.206   5.143
89630SOL    HW170787  11.857   8.224   5.184
89630SOL    HW270788  11.760   8.276   5.080
89631SOL     OW70789  11.183   3.164   2.125
89631SOL    HW170790  11.150   3.215   2.199
89631SOL    HW270791  11.115   3.099   2.108
89632SOL     OW70792  13.907   4.120   0.093
89632SOL    HW170793  13.821   4.110   0.053
89632SOL    HW270794  13.928   4.033   0.127
89633SOL     OW70795   6.560   6.963  11.248
89633SOL    HW170796   6.630   6.952  11.184
89633SOL    HW270797   6.496   7.020  11.204
89634SOL     OW70798  13.727   8.097   0.039
89634SOL    HW170799  13.699   8.006   0.054
89634SOL    HW270800  13.814   8.102   0.077
89635SOL     OW70801   6.705  10.009   4.599
89635SOL    HW170802   6.671  10.073   4.661
89635SOL    HW270803   6.706   9.926   4.648
89636SOL     OW70804   7.795   1.182  14.077
89636SOL    HW170805   7.818   1.100  14.121
89636SOL    HW270806   7.796   1.161  13.984
89637SOL     OW70807  14.177  11.982   6.630
89637SOL    HW170808  14.188  11.947   6.541
89637SOL    HW270809  14.086  12.013   6.632
89638SOL     OW70810   9.161   0.090  14.437
89638SOL    HW170811   9.088   0.030  14.422
89638SOL    HW270812   9.141   0.166  14.382
89639SOL     OW70813   9.651  13.674   6.649
89639SOL    HW170814   9.594  13.629   6.712
89639SOL    HW270815   9.702  13.604   6.609
89640SOL     OW70816   7.560  12.105  13.640
89640SOL    HW170817   7.468  12.103  13.612
89640SOL    HW270818   7.583  12.198  13.640
89641SOL     OW70819  10.830  11.950   9.674
89641SOL    HW170820  10.902  11.920   9.729
89641SOL    HW270821  10.751  11.914   9.716
89642SOL     OW70822   5.109  11.592   7.794
89642SOL    HW170823   5.083  11.630   7.710
89642SOL    HW270824   5.190  11.544   7.775
89643SOL     OW70825  14.428   6.676   2.705
89643SOL    HW170826  14.504   6.718   2.745
89643SOL    HW270827  14.463   6.631   2.628
89644SOL     OW70828  13.487   8.106   3.296
89644SOL    HW170829  13.551   8.072   3.358
89644SOL    HW270830  13.443   8.176   3.344
89645SOL     OW70831  14.075  12.105   0.249
89645SOL    HW170832  14.030  12.021   0.256
89645SOL    HW270833  14.038  12.158   0.319
89646SOL     OW70834   8.893   6.026   4.845
89646SOL    HW170835   8.798   6.036   4.851
89646SOL    HW270836   8.927   6.107   4.882
89647SOL     OW70837   8.575   9.106  11.862
89647SOL    HW170838   8.490   9.074  11.831
89647SOL    HW270839   8.610   9.155  11.787
89648SOL     OW70840   3.960  12.987   6.332
89648SOL    HW170841   4.025  12.918   6.339
89648SOL    HW270842   3.967  13.018   6.242
89649SOL     OW70843  11.282  13.039   9.098
89649SOL    HW170844  11.293  13.088   9.017
89649SOL    HW270845  11.209  12.980   9.081
89650SOL     OW70846   8.646   5.040  13.514
89650SOL    HW170847   8.575   5.104  13.507
89650SOL    HW270848   8.603   4.955  13.503
89651SOL     OW70849  13.935   3.402  11.186
89651SOL    HW170850  13.962   3.485  11.145
89651SOL    HW270851  13.917   3.426  11.277
89652SOL     OW70852   1.124  12.827   9.781
89652SOL    HW170853   1.130  12.922   9.777
89652SOL    HW270854   1.146  12.798   9.693
89653SOL     OW70855   1.245   1.761  12.477
89653SOL    HW170856   1.329   1.773  12.521
89653SOL    HW270857   1.260   1.789  12.387
89654SOL     OW70858  12.286   8.184  12.124
89654SOL    HW170859  12.344   8.222  12.190
89654SOL    HW270860  12.313   8.224  12.042
89655SOL     OW70861   6.643  11.654   6.823
89655SOL    HW170862   6.558  11.672   6.781
89655SOL    HW270863   6.622  11.591   6.892
89656SOL     OW70864   1.929   9.950   4.305
89656SOL    HW170865   1.958   9.947   4.396
89656SOL    HW270866   1.948   9.863   4.271
89657SOL     OW70867   7.759  13.223  13.152
89657SOL    HW170868   7.706  13.263  13.221
89657SOL    HW270869   7.775  13.294  13.090
89658SOL     OW70870   3.344  10.302   2.663
89658SOL    HW170871   3.259  10.259   2.669
89658SOL    HW270872   3.326  10.394   2.678
89659SOL     OW70873   0.575   0.277   4.874
89659SOL    HW170874   0.598   0.239   4.959
89659SOL    HW270875   0.656   0.272   4.823
89660SOL     OW70876   6.026   7.370   8.953
89660SOL    HW170877   6.100   7.424   8.925
89660SOL    HW270878   6.060   7.281   8.954
89661SOL     OW70879  12.076  10.834   2.415
89661SOL    HW170880  12.069  10.928   2.400
89661SOL    HW270881  12.033  10.820   2.499
89662SOL     OW70882   1.008   8.623   8.775
89662SOL    HW170883   1.101   8.600   8.772
89662SOL    HW270884   1.002   8.688   8.845
89663SOL     OW70885   7.951   5.702   2.927
89663SOL    HW170886   7.857   5.713   2.944
89663SOL    HW270887   7.985   5.791   2.917
89664SOL     OW70888   4.373  10.256  12.186
89664SOL    HW170889   4.393  10.235  12.095
89664SOL    HW270890   4.419  10.189  12.237
89665SOL     OW70891   9.501  14.068  10.174
89665SOL    HW170892   9.509  14.079  10.079
89665SOL    HW270893   9.590  14.045  10.202
89666SOL     OW70894  11.163   3.499  12.488
89666SOL    HW170895  11.111   3.524  12.565
89666SOL    HW270896  11.135   3.560  12.420
89667SOL     OW70897   5.789   7.785  13.225
89667SOL    HW170898   5.841   7.783  13.306
89667SOL    HW270899   5.836   7.845  13.168
89668SOL     OW70900   2.317   9.635   9.876
89668SOL    HW170901   2.332   9.712   9.823
89668SOL    HW270902   2.357   9.563   9.827
89669SOL     OW70903  12.428  11.240  11.667
89669SOL    HW170904  12.365  11.274  11.730
89669SOL    HW270905  12.490  11.312  11.655
89670SOL     OW70906  12.802  13.318   3.783
89670SOL    HW170907  12.806  13.413   3.786
89670SOL    HW270908  12.876  13.293   3.727
89671SOL     OW70909  10.217   5.187   3.976
89671SOL    HW170910  10.151   5.243   3.936
89671SOL    HW270911  10.299   5.237   3.968
89672SOL     OW70912  10.186   7.604  12.953
89672SOL    HW170913  10.238   7.631  13.029
89672SOL    HW270914  10.136   7.529  12.983
89673SOL     OW70915   1.273   9.692   4.334
89673SOL    HW170916   1.367   9.691   4.356
89673SOL    HW270917   1.261   9.614   4.280
89674SOL     OW70918   3.599   5.627   4.601
89674SOL    HW170919   3.641   5.644   4.516
89674SOL    HW270920   3.539   5.700   4.612
89675SOL     OW70921  14.505   2.838   2.050
89675SOL    HW170922  14.504   2.803   2.139
89675SOL    HW270923  14.576   2.902   2.050
89676SOL     OW70924  10.472   6.059   6.405
89676SOL    HW170925  10.424   5.989   6.362
89676SOL    HW270926  10.448   6.138   6.357
89677SOL     OW70927  13.690   4.657   0.436
89677SOL    HW170928  13.690   4.598   0.511
89677SOL    HW270929  13.743   4.732   0.464
89678SOL     OW70930   9.476   5.553   0.619
89678SOL    HW170931   9.507   5.523   0.704
89678SOL    HW270932   9.447   5.473   0.575
89679SOL     OW70933  13.056   5.967  10.344
89679SOL    HW170934  12.979   6.003  10.300
89679SOL    HW270935  13.085   6.037  10.402
89680SOL     OW70936   8.888   8.102   9.252
89680SOL    HW170937   8.831   8.128   9.324
89680SOL    HW270938   8.829   8.085   9.178
89681SOL     OW70939   2.285   2.575   6.409
89681SOL    HW170940   2.347   2.547   6.476
89681SOL    HW270941   2.336   2.579   6.329
89682SOL     OW70942   6.314  12.850   9.103
89682SOL    HW170943   6.341  12.762   9.077
89682SOL    HW270944   6.349  12.907   9.034
89683SOL     OW70945   4.669   3.251  11.535
89683SOL    HW170946   4.678   3.291  11.449
89683SOL    HW270947   4.609   3.178  11.521
89684SOL     OW70948  14.625  13.093   0.296
89684SOL    HW170949  14.606  13.135   0.212
89684SOL    HW270950  14.546  13.106   0.348
89685SOL     OW70951   1.809   4.369   7.105
89685SOL    HW170952   1.880   4.414   7.152
89685SOL    HW270953   1.848   4.345   7.021
89686SOL     OW70954   2.402   1.228  11.153
89686SOL    HW170955   2.486   1.273  11.159
89686SOL    HW270956   2.406   1.181  11.070
89687SOL     OW70957   5.042   5.358   8.918
89687SOL    HW170958   5.089   5.394   8.842
89687SOL    HW270959   4.972   5.421   8.934
89688SOL     OW70960   2.848   0.334  10.504
89688SOL    HW170961   2.792   0.408  10.527
89688SOL    HW270962   2.909   0.327  10.578
89689SOL     OW70963   2.308  14.194   4.198
89689SOL    HW170964   2.224  14.236   4.219
89689SOL    HW270965   2.342  14.165   4.283
89690SOL     OW70966   3.741  14.273   2.706
89690SOL    HW170967   3.730  14.222   2.625
89690SOL    HW270968   3.679  14.235   2.767
89691SOL     OW70969   0.040  11.177   7.710
89691SOL    HW170970   0.036  11.239   7.638
89691SOL    HW270971   0.037  11.231   7.789
89692SOL     OW70972  12.606   5.057   1.520
89692SOL    HW170973  12.615   4.975   1.471
89692SOL    HW270974  12.520   5.091   1.495
89693SOL     OW70975   8.062   7.444  14.595
89693SOL    HW170976   7.992   7.497  14.558
89693SOL    HW270977   8.115   7.505  14.646
89694SOL     OW70978   9.680  13.220   6.919
89694SOL    HW170979   9.715  13.246   6.834
89694SOL    HW270980   9.603  13.166   6.898
89695SOL     OW70981  12.017  13.517  10.427
89695SOL    HW170982  11.999  13.596  10.478
89695SOL    HW270983  12.091  13.476  10.472
89696SOL     OW70984  11.005   1.016   6.982
89696SOL    HW170985  11.100   1.013   6.991
89696SOL    HW270986  10.990   1.079   6.911
89697SOL     OW70987   5.496   8.502   9.449
89697SOL    HW170988   5.505   8.553   9.368
89697SOL    HW270989   5.504   8.411   9.422
89698SOL     OW70990  11.740   0.615   4.482
89698SOL    HW170991  11.781   0.698   4.508
89698SOL    HW270992  11.814   0.555   4.471
89699SOL     OW70993  14.454   8.898  12.262
89699SOL    HW170994  14.371   8.904  12.215
89699SOL    HW270995  14.514   8.859  12.199
89700SOL     OW70996   2.397   5.829  12.420
89700SOL    HW170997   2.487   5.842  12.391
89700SOL    HW270998   2.344   5.864  12.349
89701SOL     OW70999   1.212   6.212   3.195
89701SOL    HW171000   1.211   6.140   3.132
89701SOL    HW271001   1.301   6.211   3.231
89702SOL     OW71002  14.372  11.420  11.944
89702SOL    HW171003  14.341  11.411  11.854
89702SOL    HW271004  14.418  11.504  11.945
89703SOL     OW71005  13.713   2.851   1.735
89703SOL    HW171006  13.747   2.785   1.674
89703SOL    HW271007  13.684   2.800   1.811
89704SOL     OW71008  12.356  14.781   2.601
89704SOL    HW171009  12.279  14.763   2.654
89704SOL    HW271010  12.322  14.805   2.515
89705SOL     OW71011   3.568   8.292   6.070
89705SOL    HW171012   3.569   8.199   6.093
89705SOL    HW271013   3.645   8.304   6.015
89706SOL     OW71014   4.025   1.208   0.019
89706SOL    HW171015   4.050   1.255   0.099
89706SOL    HW271016   4.003   1.277  14.828
89707SOL     OW71017   5.633   0.151   0.928
89707SOL    HW171018   5.544   0.186   0.923
89707SOL    HW271019   5.623   0.057   0.912
89708SOL     OW71020   1.995  10.657  11.002
89708SOL    HW171021   2.034  10.690  10.920
89708SOL    HW271022   1.900  10.658  10.985
89709SOL     OW71023  13.717   6.231   3.554
89709SOL    HW171024  13.700   6.301   3.616
89709SOL    HW271025  13.702   6.270   3.468
89710SOL     OW71026   3.962   0.288   8.333
89710SOL    HW171027   3.944   0.375   8.367
89710SOL    HW271028   3.977   0.234   8.411
89711SOL     OW71029  14.756   9.042   9.571
89711SOL    HW171030  14.665   9.046   9.541
89711SOL    HW271031  14.782   9.133   9.580
89712SOL     OW71032   2.735   7.112  11.334
89712SOL    HW171033   2.727   7.098  11.429
89712SOL    HW271034   2.809   7.173  11.326
89713SOL     OW71035   2.031   9.695   2.457
89713SOL    HW171036   2.093   9.736   2.397
89713SOL    HW271037   2.029   9.754   2.533
89714SOL     OW71038   3.856  13.797  14.306
89714SOL    HW171039   3.866  13.702  14.315
89714SOL    HW271040   3.867  13.814  14.213
89715SOL     OW71041   5.328   5.962   4.125
89715SOL    HW171042   5.314   5.994   4.036
89715SOL    HW271043   5.240   5.950   4.161
89716SOL     OW71044  11.234   4.862   1.783
89716SOL    HW171045  11.177   4.924   1.828
89716SOL    HW271046  11.215   4.777   1.823
89717SOL     OW71047  10.998  10.594  13.885
89717SOL    HW171048  11.068  10.658  13.878
89717SOL    HW271049  10.949  10.621  13.963
89718SOL     OW71050   5.112  14.475   3.623
89718SOL    HW171051   5.146  14.446   3.708
89718SOL    HW271052   5.017  14.468   3.632
89719SOL     OW71053   9.144   3.172   7.848
89719SOL    HW171054   9.094   3.128   7.918
89719SOL    HW271055   9.232   3.136   7.855
89720SOL     OW71056   5.236  13.423  14.542
89720SOL    HW171057   5.218  13.510  14.506
89720SOL    HW271058   5.283  13.378  14.472
89721SOL     OW71059   1.441  10.075   5.762
89721SOL    HW171060   1.385  10.102   5.835
89721SOL    HW271061   1.470  10.157   5.722
89722SOL     OW71062   9.507   7.099  14.315
89722SOL    HW171063   9.534   7.077  14.226
89722SOL    HW271064   9.512   7.016  14.363
89723SOL     OW71065  13.497  13.476   2.149
89723SOL    HW171066  13.515  13.462   2.056
89723SOL    HW271067  13.431  13.410   2.171
89724SOL     OW71068  12.467  13.679   2.914
89724SOL    HW171069  12.486  13.660   2.822
89724SOL    HW271070  12.506  13.606   2.962
89725SOL     OW71071  14.160   9.389   9.520
89725SOL    HW171072  14.193   9.373   9.431
89725SOL    HW271073  14.101   9.316   9.537
89726SOL     OW71074   7.568  13.171   8.520
89726SOL    HW171075   7.604  13.083   8.528
89726SOL    HW271076   7.496  13.174   8.583
89727SOL     OW71077  11.875  11.565   5.331
89727SOL    HW171078  11.954  11.533   5.286
89727SOL    HW271079  11.849  11.642   5.280
89728SOL     OW71080   2.633   7.685  11.183
89728SOL    HW171081   2.637   7.592  11.161
89728SOL    HW271082   2.565   7.720  11.126
89729SOL     OW71083   4.226   6.207  14.709
89729SOL    HW171084   4.131   6.219  14.708
89729SOL    HW271085   4.245   6.173  14.797
89730SOL     OW71086   8.736   4.615   6.877
89730SOL    HW171087   8.660   4.558   6.871
89730SOL    HW271088   8.727   4.658   6.963
89731SOL     OW71089  12.337   1.704   7.033
89731SOL    HW171090  12.428   1.699   7.062
89731SOL    HW271091  12.322   1.621   6.988
89732SOL     OW71092   9.707   8.700   8.465
89732SOL    HW171093   9.651   8.767   8.424
89732SOL    HW271094   9.650   8.623   8.472
89733SOL     OW71095  14.223   3.613   9.889
89733SOL    HW171096  14.208   3.660   9.807
89733SOL    HW271097  14.228   3.521   9.864
89734SOL     OW71098   6.675   3.897   3.567
89734SOL    HW171099   6.645   3.921   3.655
89734SOL    HW271100   6.595   3.895   3.514
89735SOL     OW71101   8.554   8.829   7.995
89735SOL    HW171102   8.486   8.861   8.055
89735SOL    HW271103   8.562   8.899   7.930
89736SOL     OW71104   2.888   6.025   7.920
89736SOL    HW171105   2.917   6.088   7.853
89736SOL    HW271106   2.879   6.077   8.000
89737SOL     OW71107  12.543   3.604   6.609
89737SOL    HW171108  12.477   3.635   6.670
89737SOL    HW271109  12.540   3.509   6.616
89738SOL     OW71110  10.802   3.938   5.835
89738SOL    HW171111  10.800   3.907   5.925
89738SOL    HW271112  10.894   3.930   5.809
89739SOL     OW71113   0.440  13.191   0.130
89739SOL    HW171114   0.473  13.273   0.094
89739SOL    HW271115   0.377  13.217   0.197
89740SOL     OW71116   1.441  12.427  12.741
89740SOL    HW171117   1.443  12.455  12.832
89740SOL    HW271118   1.380  12.353  12.739
89741SOL     OW71119   0.727  13.292  11.420
89741SOL    HW171120   0.725  13.305  11.515
89741SOL    HW271121   0.759  13.202  11.409
89742SOL     OW71122  11.188   3.561   5.849
89742SOL    HW171123  11.110   3.556   5.905
89742SOL    HW271124  11.223   3.649   5.864
89743SOL     OW71125   6.323  11.107   5.496
89743SOL    HW171126   6.401  11.071   5.536
89743SOL    HW271127   6.273  11.144   5.568
89744SOL     OW71128   5.948   2.796   7.004
89744SOL    HW171129   5.897   2.777   7.083
89744SOL    HW271130   5.997   2.715   6.987
89745SOL     OW71131   4.438   7.108   3.121
89745SOL    HW171132   4.381   7.092   3.196
89745SOL    HW271133   4.490   7.028   3.113
89746SOL     OW71134   4.819   8.890  12.958
89746SOL    HW171135   4.841   8.933  12.875
89746SOL    HW271136   4.827   8.958  13.024
89747SOL     OW71137   7.365  12.436  14.583
89747SOL    HW171138   7.282  12.410  14.623
89747SOL    HW271139   7.398  12.356  14.542
89748SOL     OW71140   8.461   3.261   1.444
89748SOL    HW171141   8.544   3.306   1.462
89748SOL    HW271142   8.421   3.252   1.531
89749SOL     OW71143   0.405   0.320  11.604
89749SOL    HW171144   0.442   0.232  11.608
89749SOL    HW271145   0.400   0.340  11.511
89750SOL     OW71146   8.286  13.362   3.577
89750SOL    HW171147   8.369  13.410   3.581
89750SOL    HW271148   8.299  13.298   3.506
89751SOL     OW71149  12.818  14.637   3.295
89751SOL    HW171150  12.819  14.575   3.368
89751SOL    HW271151  12.725  14.649   3.275
89752SOL     OW71152   4.932   8.277  11.482
89752SOL    HW171153   4.967   8.247  11.398
89752SOL    HW271154   5.008   8.307  11.531
89753SOL     OW71155  14.762  10.897   7.680
89753SOL    HW171156  14.738  10.822   7.733
89753SOL    HW271157  14.839  10.868   7.630
89754SOL     OW71158  13.810  14.163  10.677
89754SOL    HW171159  13.892  14.119  10.699
89754SOL    HW271160  13.777  14.118  10.599
89755SOL     OW71161  11.793   5.206   5.822
89755SOL    HW171162  11.820   5.115   5.812
89755SOL    HW271163  11.783   5.218   5.917
89756SOL     OW71164   7.975   3.427  13.824
89756SOL    HW171165   7.941   3.452  13.738
89756SOL    HW271166   7.966   3.506  13.877
89757SOL     OW71167   6.233   8.374  14.096
89757SOL    HW171168   6.238   8.309  14.025
89757SOL    HW271169   6.311   8.357  14.149
89758SOL     OW71170   5.355   9.243   5.262
89758SOL    HW171171   5.298   9.237   5.338
89758SOL    HW271172   5.296   9.246   5.187
89759SOL     OW71173   0.102   7.215  14.778
89759SOL    HW171174   0.163   7.247  14.711
89759SOL    HW271175   0.021   7.263  14.762
89760SOL     OW71176  14.019  10.757  13.559
89760SOL    HW171177  14.056  10.735  13.473
89760SOL    HW271178  13.925  10.748  13.547
89761SOL     OW71179   5.167  14.571   3.206
89761SOL    HW171180   5.205  14.520   3.279
89761SOL    HW271181   5.200  14.660   3.219
89762SOL     OW71182  11.705   3.415  11.074
89762SOL    HW171183  11.730   3.474  11.145
89762SOL    HW271184  11.784   3.409  11.020
89763SOL     OW71185   8.724  10.398  12.565
89763SOL    HW171186   8.649  10.393  12.505
89763SOL    HW271187   8.718  10.318  12.618
89764SOL     OW71188   1.712  14.213   0.461
89764SOL    HW171189   1.673  14.184   0.544
89764SOL    HW271190   1.668  14.159   0.394
89765SOL     OW71191  11.432   3.551   2.188
89765SOL    HW171192  11.398   3.477   2.138
89765SOL    HW271193  11.486   3.600   2.126
89766SOL     OW71194  14.356  10.531   1.533
89766SOL    HW171195  14.397  10.456   1.576
89766SOL    HW271196  14.424  10.598   1.532
89767SOL     OW71197   1.382   5.398   9.674
89767SOL    HW171198   1.289   5.411   9.692
89767SOL    HW271199   1.389   5.401   9.579
89768SOL     OW71200   7.345   3.189   8.760
89768SOL    HW171201   7.361   3.099   8.788
89768SOL    HW271202   7.307   3.180   8.673
89769SOL     OW71203   8.125   3.234   9.467
89769SOL    HW171204   8.121   3.309   9.407
89769SOL    HW271205   8.034   3.210   9.482
89770SOL     OW71206   7.058  13.112  10.732
89770SOL    HW171207   6.972  13.077  10.706
89770SOL    HW271208   7.078  13.178  10.666
89771SOL     OW71209   6.647  11.089   6.100
89771SOL    HW171210   6.740  11.104   6.113
89771SOL    HW271211   6.625  11.018   6.159
89772SOL     OW71212   1.911   2.324  14.789
89772SOL    HW171213   1.866   2.240  14.788
89772SOL    HW271214   1.931   2.341   0.009
89773SOL     OW71215   7.493  13.663   9.821
89773SOL    HW171216   7.426  13.629   9.880
89773SOL    HW271217   7.534  13.734   9.871
89774SOL     OW71218  12.727   5.120   7.955
89774SOL    HW171219  12.716   5.054   8.024
89774SOL    HW271220  12.734   5.069   7.874
89775SOL     OW71221   0.338   5.669  10.560
89775SOL    HW171222   0.244   5.674  10.545
89775SOL    HW271223   0.356   5.737  10.624
89776SOL     OW71224  12.160   6.614   2.946
89776SOL    HW171225  12.087   6.552   2.951
89776SOL    HW271226  12.213   6.595   3.023
89777SOL     OW71227  10.762  10.820   4.445
89777SOL    HW171228  10.816  10.893   4.475
89777SOL    HW271229  10.776  10.817   4.351
89778SOL     OW71230   1.724   5.591  13.876
89778SOL    HW171231   1.760   5.537  13.947
89778SOL    HW271232   1.668   5.531  13.827
89779SOL     OW71233   9.529  14.640   2.378
89779SOL    HW171234   9.526  14.567   2.440
89779SOL    HW271235   9.438  14.668   2.370
89780SOL     OW71236   5.705   3.942   1.854
89780SOL    HW171237   5.797   3.943   1.880
89780SOL    HW271238   5.667   3.868   1.901
89781SOL     OW71239  12.717  11.475   3.693
89781SOL    HW171240  12.798  11.440   3.730
89781SOL    HW271241  12.656  11.401   3.696
89782SOL     OW71242  12.977   8.139   4.424
89782SOL    HW171243  12.984   8.111   4.515
89782SOL    HW271244  12.954   8.232   4.429
89783SOL     OW71245  14.849  10.918  13.490
89783SOL    HW171246  14.792  10.884  13.421
89783SOL    HW271247   0.064  10.923  13.450
89784SOL     OW71248  11.494   6.467   6.099
89784SOL    HW171249  11.464   6.388   6.144
89784SOL    HW271250  11.524   6.524   6.170
89785SOL     OW71251  13.292   4.420  13.704
89785SOL    HW171252  13.213   4.433  13.757
89785SOL    HW271253  13.261   4.420  13.614
89786SOL     OW71254   9.982   8.050  13.706
89786SOL    HW171255   9.974   8.129  13.653
89786SOL    HW271256  10.071   8.019  13.689
89787SOL     OW71257  14.581   5.899   9.421
89787SOL    HW171258  14.531   5.831   9.467
89787SOL    HW271259  14.545   5.982   9.454
89788SOL     OW71260  10.376   1.704   5.008
89788SOL    HW171261  10.306   1.717   5.072
89788SOL    HW271262  10.331   1.670   4.930
89789SOL     OW71263   7.016  10.890   1.637
89789SOL    HW171264   7.093  10.835   1.650
89789SOL    HW271265   6.943  10.838   1.673
89790SOL     OW71266   5.049   2.662   9.032
89790SOL    HW171267   5.118   2.606   9.068
89790SOL    HW271268   5.095   2.726   8.979
89791SOL     OW71269   6.065  10.213  13.414
89791SOL    HW171270   6.070  10.304  13.385
89791SOL    HW271271   6.155  10.191  13.441
89792SOL     OW71272  14.832   8.375   9.304
89792SOL    HW171273  14.743   8.341   9.302
89792SOL    HW271274  14.823   8.470   9.296
89793SOL     OW71275  11.842   7.445   8.708
89793SOL    HW171276  11.920   7.494   8.732
89793SOL    HW271277  11.773   7.478   8.766
89794SOL     OW71278  13.692   0.539   4.812
89794SOL    HW171279  13.625   0.521   4.878
89794SOL    HW271280  13.774   0.510   4.853
89795SOL     OW71281   9.807   7.630   2.827
89795SOL    HW171282   9.751   7.561   2.792
89795SOL    HW271283   9.839   7.595   2.910
89796SOL     OW71284   1.112   7.441   1.640
89796SOL    HW171285   1.069   7.359   1.664
89796SOL    HW271286   1.064   7.472   1.563
89797SOL     OW71287   9.592   0.487   0.144
89797SOL    HW171288   9.603   0.580   0.125
89797SOL    HW271289   9.677   0.460   0.181
89798SOL     OW71290  10.776   1.485   8.118
89798SOL    HW171291  10.681   1.468   8.119
89798SOL    HW271292  10.807   1.450   8.201
89799SOL     OW71293   0.717  13.238  12.978
89799SOL    HW171294   0.737  13.303  13.045
89799SOL    HW271295   0.639  13.192  13.010
89800SOL     OW71296  14.858  13.100  12.819
89800SOL    HW171297   0.039  13.025  12.793
89800SOL    HW271298  14.804  13.067  12.891
89801SOL     OW71299   9.566  12.584  13.905
89801SOL    HW171300   9.606  12.642  13.841
89801SOL    HW271301   9.634  12.519  13.925
89802SOL     OW71302  12.740  13.147   9.916
89802SOL    HW171303  12.719  13.130   9.824
89802SOL    HW271304  12.791  13.071   9.943
89803SOL     OW71305   8.886   3.839  12.845
89803SOL    HW171306   8.874   3.872  12.756
89803SOL    HW271307   8.909   3.917  12.896
89804SOL     OW71308   9.560   8.204  10.200
89804SOL    HW171309   9.556   8.283  10.254
89804SOL    HW271310   9.597   8.233  10.117
89805SOL     OW71311   4.574  13.980   7.623
89805SOL    HW171312   4.587  13.958   7.715
89805SOL    HW271313   4.479  13.977   7.611
89806SOL     OW71314  10.764   8.105  13.121
89806SOL    HW171315  10.858   8.122  13.124
89806SOL    HW271316  10.744   8.095  13.028
89807SOL     OW71317  14.768   7.411  12.130
89807SOL    HW171318  14.795   7.462  12.054
89807SOL    HW271319  14.711   7.471  12.180
89808SOL     OW71320  10.547  11.787   6.065
89808SOL    HW171321  10.537  11.770   5.972
89808SOL    HW271322  10.509  11.710   6.108
89809SOL     OW71323   5.671   0.351   4.621
89809SOL    HW171324   5.763   0.358   4.595
89809SOL    HW271325   5.623   0.361   4.539
89810SOL     OW71326   1.298   2.627  12.127
89810SOL    HW171327   1.343   2.708  12.103
89810SOL    HW271328   1.249   2.603  12.049
89811SOL     OW71329   5.813   7.281   0.183
89811SOL    HW171330   5.738   7.221   0.186
89811SOL    HW271331   5.782   7.354   0.130
89812SOL     OW71332   5.507   8.961  14.177
89812SOL    HW171333   5.455   9.041  14.176
89812SOL    HW271334   5.560   8.966  14.098
89813SOL     OW71335   9.511   5.569   2.138
89813SOL    HW171336   9.431   5.539   2.093
89813SOL    HW271337   9.515   5.662   2.120
89814SOL     OW71338  14.575  12.234   6.962
89814SOL    HW171339  14.654  12.250   6.909
89814SOL    HW271340  14.512  12.196   6.901
89815SOL     OW71341  10.953   9.510  14.305
89815SOL    HW171342  11.021   9.498  14.238
89815SOL    HW271343  10.969   9.441  14.369
89816SOL     OW71344  14.361   0.987   8.533
89816SOL    HW171345  14.295   0.972   8.465
89816SOL    HW271346  14.359   0.907   8.586
89817SOL     OW71347   6.937   5.168   0.349
89817SOL    HW171348   6.984   5.183   0.267
89817SOL    HW271349   6.936   5.073   0.360
89818SOL     OW71350   9.210   7.198  14.856
89818SOL    HW171351   9.289   7.144  14.857
89818SOL    HW271352   9.146   7.147  14.806
89819SOL     OW71353   5.707   6.371   5.841
89819SOL    HW171354   5.682   6.330   5.758
89819SOL    HW271355   5.797   6.343   5.856
89820SOL     OW71356   2.915  13.209   3.397
89820SOL    HW171357   2.999  13.241   3.362
89820SOL    HW271358   2.938  13.170   3.481
89821SOL     OW71359   8.913  10.062   2.127
89821SOL    HW171360   8.896  10.103   2.212
89821SOL    HW271361   8.884   9.971   2.138
89822SOL     OW71362   7.376   5.212   9.651
89822SOL    HW171363   7.338   5.168   9.727
89822SOL    HW271364   7.427   5.144   9.607
89823SOL     OW71365   3.935   5.567   4.624
89823SOL    HW171366   3.991   5.570   4.547
89823SOL    HW271367   3.972   5.632   4.684
89824SOL     OW71368  11.977  12.914   7.879
89824SOL    HW171369  12.065  12.953   7.872
89824SOL    HW271370  11.922  12.971   7.825
89825SOL     OW71371   2.052   4.634  13.892
89825SOL    HW171372   1.993   4.575  13.939
89825SOL    HW271373   2.138   4.620  13.932
89826SOL     OW71374   1.446   2.687  14.587
89826SOL    HW171375   1.397   2.762  14.622
89826SOL    HW271376   1.433   2.691  14.493
89827SOL     OW71377   3.796   4.260   2.022
89827SOL    HW171378   3.774   4.341   1.976
89827SOL    HW271379   3.807   4.287   2.113
89828SOL     OW71380   2.956   2.591  11.311
89828SOL    HW171381   3.034   2.538  11.303
89828SOL    HW271382   2.978   2.673  11.266
89829SOL     OW71383   2.786   2.730   7.182
89829SOL    HW171384   2.752   2.666   7.245
89829SOL    HW271385   2.790   2.812   7.232
89830SOL     OW71386   6.455   7.166   9.178
89830SOL    HW171387   6.386   7.102   9.160
89830SOL    HW271388   6.408   7.248   9.193
89831SOL     OW71389   8.016   4.187  10.679
89831SOL    HW171390   7.977   4.113  10.632
89831SOL    HW271391   8.105   4.158  10.700
89832SOL     OW71392   1.419   9.872  14.372
89832SOL    HW171393   1.419   9.933  14.298
89832SOL    HW271394   1.505   9.884  14.412
89833SOL     OW71395   2.943   0.005   5.423
89833SOL    HW171396   2.936   0.092   5.462
89833SOL    HW271397   2.861  14.832   5.448
89834SOL     OW71398   4.204   2.299   9.850
89834SOL    HW171399   4.292   2.264   9.861
89834SOL    HW271400   4.165   2.294   9.937
89835SOL     OW71401   0.370  14.710   8.341
89835SOL    HW171402   0.390  14.638   8.401
89835SOL    HW271403   0.280  14.693   8.312
89836SOL     OW71404   3.588  11.090   1.840
89836SOL    HW171405   3.639  11.169   1.821
89836SOL    HW271406   3.539  11.112   1.919
89837SOL     OW71407   2.804   6.675  12.483
89837SOL    HW171408   2.767   6.763  12.483
89837SOL    HW271409   2.729   6.617  12.495
89838SOL     OW71410   1.482   4.987  10.204
89838SOL    HW171411   1.492   4.961  10.112
89838SOL    HW271412   1.565   5.028  10.226
89839SOL     OW71413   3.337   3.520   5.193
89839SOL    HW171414   3.408   3.493   5.251
89839SOL    HW271415   3.321   3.612   5.217
89840SOL     OW71416   1.516   5.519  14.692
89840SOL    HW171417   1.550   5.468  14.619
89840SOL    HW271418   1.421   5.505  14.689
89841SOL     OW71419   0.054   1.988   2.466
89841SOL    HW171420   0.012   1.976   2.551
89841SOL    HW271421  14.854   1.980   2.402
89842SOL     OW71422   8.645  11.571   6.478
89842SOL    HW171423   8.581  11.516   6.433
89842SOL    HW271424   8.683  11.625   6.410
89843SOL     OW71425  12.220   3.487   7.452
89843SOL    HW171426  12.244   3.580   7.459
89843SOL    HW271427  12.203   3.460   7.542
89844SOL     OW71428  13.172   2.234  14.397
89844SOL    HW171429  13.165   2.179  14.475
89844SOL    HW271430  13.259   2.213  14.362
89845SOL     OW71431   8.312  12.036   1.008
89845SOL    HW171432   8.225  12.063   1.039
89845SOL    HW271433   8.362  12.021   1.088
89846SOL     OW71434   2.983   1.877  14.523
89846SOL    HW171435   2.935   1.858  14.604
89846SOL    HW271436   2.984   1.973  14.519
89847SOL     OW71437   3.446   8.075   6.649
89847SOL    HW171438   3.372   8.108   6.701
89847SOL    HW271439   3.519   8.071   6.711
89848SOL     OW71440  12.237   4.094   2.146
89848SOL    HW171441  12.267   4.104   2.236
89848SOL    HW271442  12.239   4.182   2.109
89849SOL     OW71443   6.127   4.039  11.902
89849SOL    HW171444   6.217   4.038  11.868
89849SOL    HW271445   6.090   4.121  11.868
89850SOL     OW71446   8.333  13.495  11.259
89850SOL    HW171447   8.372  13.543  11.186
89850SOL    HW271448   8.243  13.529  11.265
89851SOL     OW71449   8.510   5.231   5.019
89851SOL    HW171450   8.494   5.303   5.080
89851SOL    HW271451   8.575   5.265   4.958
89852SOL     OW71452  10.384   1.946   9.280
89852SOL    HW171453  10.469   1.986   9.260
89852SOL    HW271454  10.392   1.915   9.370
89853SOL     OW71455   3.109   9.699   5.310
89853SOL    HW171456   3.093   9.714   5.217
89853SOL    HW271457   3.155   9.615   5.313
89854SOL     OW71458   1.901   1.455   1.123
89854SOL    HW171459   1.865   1.544   1.125
89854SOL    HW271460   1.892   1.428   1.032
89855SOL     OW71461   4.235  10.342  11.527
89855SOL    HW171462   4.305  10.278  11.541
89855SOL    HW271463   4.171  10.296  11.474
89856SOL     OW71464   9.536   8.091  13.209
89856SOL    HW171465   9.465   8.032  13.185
89856SOL    HW271466   9.615   8.045  13.181
89857SOL     OW71467  14.382   4.584  13.072
89857SOL    HW171468  14.312   4.644  13.047
89857SOL    HW271469  14.460   4.639  13.079
89858SOL     OW71470   5.376  11.488  14.592
89858SOL    HW171471   5.295  11.438  14.587
89858SOL    HW271472   5.446  11.423  14.595
89859SOL     OW71473  12.464   6.682   6.241
89859SOL    HW171474  12.503   6.730   6.314
89859SOL    HW271475  12.434   6.750   6.181
89860SOL     OW71476  12.618   3.813  10.367
89860SOL    HW171477  12.525   3.832  10.361
89860SOL    HW271478  12.637   3.761  10.289
89861SOL     OW71479   3.030   6.110   1.624
89861SOL    HW171480   2.960   6.166   1.657
89861SOL    HW271481   3.016   6.025   1.667
89862SOL     OW71482   6.663   3.602  13.708
89862SOL    HW171483   6.601   3.610  13.636
89862SOL    HW271484   6.610   3.615  13.787
89863SOL     OW71485   4.177  12.804   6.344
89863SOL    HW171486   4.267  12.790   6.314
89863SOL    HW271487   4.138  12.716   6.343
89864SOL     OW71488  13.427   9.472  12.169
89864SOL    HW171489  13.372   9.394  12.182
89864SOL    HW271490  13.516   9.440  12.183
89865SOL     OW71491   2.592   7.432   2.639
89865SOL    HW171492   2.625   7.425   2.729
89865SOL    HW271493   2.497   7.426   2.648
89866SOL     OW71494   1.629  11.310  10.300
89866SOL    HW171495   1.633  11.367  10.377
89866SOL    HW271496   1.600  11.226  10.334
89867SOL     OW71497   3.824  13.106   8.306
89867SOL    HW171498   3.767  13.183   8.302
89867SOL    HW271499   3.809  13.069   8.393
89868SOL     OW71500   0.165  14.086   4.544
89868SOL    HW171501   0.187  14.073   4.452
89868SOL    HW271502   0.158  14.181   4.553
89869SOL     OW71503   4.416   6.444   1.574
89869SOL    HW171504   4.486   6.491   1.530
89869SOL    HW271505   4.444   6.439   1.665
89870SOL     OW71506   3.935  14.119   6.936
89870SOL    HW171507   3.927  14.143   7.028
89870SOL    HW271508   4.022  14.151   6.911
89871SOL     OW71509   6.335  14.629  14.019
89871SOL    HW171510   6.335  14.554  13.959
89871SOL    HW271511   6.411  14.615  14.076
89872SOL     OW71512   5.768   4.824  13.748
89872SOL    HW171513   5.780   4.747  13.805
89872SOL    HW271514   5.830   4.888  13.783
89873SOL     OW71515  12.555   4.620   5.958
89873SOL    HW171516  12.618   4.595   6.025
89873SOL    HW271517  12.598   4.596   5.875
89874SOL     OW71518  12.125   6.591   2.007
89874SOL    HW171519  12.062   6.523   2.032
89874SOL    HW271520  12.202   6.543   1.978
89875SOL     OW71521   9.591   7.695  13.675
89875SOL    HW171522   9.617   7.776  13.630
89875SOL    HW271523   9.621   7.625  13.617
89876SOL     OW71524   8.264  10.328   5.246
89876SOL    HW171525   8.176  10.344   5.212
89876SOL    HW271526   8.261  10.359   5.336
89877SOL     OW71527  14.268   1.830   8.470
89877SOL    HW171528  14.301   1.744   8.495
89877SOL    HW271529  14.336   1.867   8.414
89878SOL     OW71530   9.806  10.076  12.254
89878SOL    HW171531   9.843  10.122  12.330
89878SOL    HW271532   9.796   9.985  12.284
89879SOL     OW71533   1.921   7.163   2.543
89879SOL    HW171534   1.957   7.107   2.612
89879SOL    HW271535   1.988   7.162   2.474
89880SOL     OW71536  14.494   2.775   3.073
89880SOL    HW171537  14.474   2.869   3.074
89880SOL    HW271538  14.519   2.755   3.163
89881SOL     OW71539   0.144   3.544   4.777
89881SOL    HW171540   0.213   3.481   4.801
89881SOL    HW271541   0.102   3.505   4.701
89882SOL     OW71542   7.341   9.277   9.068
89882SOL    HW171543   7.254   9.261   9.033
89882SOL    HW271544   7.335   9.254   9.161
89883SOL     OW71545  11.045   0.638   0.427
89883SOL    HW171546  11.062   0.710   0.366
89883SOL    HW271547  10.992   0.678   0.496
89884SOL     OW71548  13.086   1.419   0.582
89884SOL    HW171549  13.134   1.370   0.515
89884SOL    HW271550  12.995   1.392   0.571
89885SOL     OW71551   3.150   2.043   3.491
89885SOL    HW171552   3.178   2.125   3.450
89885SOL    HW271553   3.092   2.070   3.562
89886SOL     OW71554  13.417   0.310   3.772
89886SOL    HW171555  13.460   0.323   3.687
89886SOL    HW271556  13.355   0.382   3.779
89887SOL     OW71557  12.381  11.277  10.367
89887SOL    HW171558  12.457  11.273  10.309
89887SOL    HW271559  12.364  11.370  10.377
89888SOL     OW71560   0.940  14.676   9.755
89888SOL    HW171561   1.007  14.610   9.741
89888SOL    HW271562   0.982  14.759   9.732
89889SOL     OW71563  13.168   2.095   4.008
89889SOL    HW171564  13.177   2.068   4.099
89889SOL    HW271565  13.256   2.087   3.971
89890SOL     OW71566   7.723  10.844   2.323
89890SOL    HW171567   7.691  10.792   2.250
89890SOL    HW271568   7.646  10.858   2.378
89891SOL     OW71569  13.118   2.171   1.493
89891SOL    HW171570  13.038   2.140   1.534
89891SOL    HW271571  13.148   2.098   1.439
89892SOL     OW71572  12.841   8.971  10.167
89892SOL    HW171573  12.850   9.018  10.084
89892SOL    HW271574  12.758   9.004  10.204
89893SOL     OW71575   8.450  12.481  14.032
89893SOL    HW171576   8.437  12.503  14.125
89893SOL    HW271577   8.530  12.429  14.031
89894SOL     OW71578   4.649   4.776  14.120
89894SOL    HW171579   4.728   4.813  14.081
89894SOL    HW271580   4.659   4.790  14.214
89895SOL     OW71581   4.873  14.122  11.164
89895SOL    HW171582   4.873  14.073  11.082
89895SOL    HW271583   4.901  14.210  11.139
89896SOL     OW71584   3.854  10.470  11.054
89896SOL    HW171585   3.807  10.552  11.036
89896SOL    HW271586   3.788  10.402  11.043
89897SOL     OW71587   7.305  12.433   2.259
89897SOL    HW171588   7.352  12.418   2.342
89897SOL    HW271589   7.356  12.386   2.194
89898SOL     OW71590   0.136  13.900   3.996
89898SOL    HW171591   0.088  13.877   3.917
89898SOL    HW271592   0.082  13.966   4.039
89899SOL     OW71593  14.331   5.254   0.153
89899SOL    HW171594  14.285   5.222   0.231
89899SOL    HW271595  14.424   5.239   0.172
89900SOL     OW71596  14.569   1.370  12.811
89900SOL    HW171597  14.507   1.332  12.873
89900SOL    HW271598  14.515   1.403  12.739
89901SOL     OW71599   8.100   3.230  12.984
89901SOL    HW171600   8.038   3.273  12.925
89901SOL    HW271601   8.149   3.170  12.928
89902SOL     OW71602   0.526   5.561   8.564
89902SOL    HW171603   0.507   5.572   8.658
89902SOL    HW271604   0.554   5.470   8.556
89903SOL     OW71605   3.765   7.259   4.170
89903SOL    HW171606   3.857   7.282   4.185
89903SOL    HW271607   3.716   7.310   4.234
89904SOL     OW71608   1.042   9.124   4.342
89904SOL    HW171609   1.113   9.100   4.282
89904SOL    HW271610   1.077   9.105   4.429
89905SOL     OW71611  10.020  10.752   0.268
89905SOL    HW171612   9.931  10.721   0.287
89905SOL    HW271613  10.066  10.673   0.238
89906SOL     OW71614  10.245   3.514   6.581
89906SOL    HW171615  10.190   3.477   6.649
89906SOL    HW271616  10.305   3.443   6.557
89907SOL     OW71617   1.953   1.974   2.180
89907SOL    HW171618   1.924   1.914   2.249
89907SOL    HW271619   1.881   2.035   2.168
89908SOL     OW71620   4.073  14.398  13.997
89908SOL    HW171621   4.015  14.470  14.023
89908SOL    HW271622   4.134  14.388  14.071
89909SOL     OW71623  12.022   1.287  10.559
89909SOL    HW171624  12.109   1.302  10.596
89909SOL    HW271625  12.007   1.362  10.502
89910SOL     OW71626  11.479   6.298   8.648
89910SOL    HW171627  11.527   6.377   8.673
89910SOL    HW271628  11.534   6.257   8.581
89911SOL     OW71629  14.569  11.994  11.682
89911SOL    HW171630  14.605  11.917  11.639
89911SOL    HW271631  14.561  12.060  11.613
89912SOL     OW71632   2.248  11.779  10.867
89912SOL    HW171633   2.288  11.810  10.949
89912SOL    HW271634   2.155  11.774  10.886
89913SOL     OW71635   9.700   2.226   7.443
89913SOL    HW171636   9.694   2.269   7.358
89913SOL    HW271637   9.661   2.140   7.430
89914SOL     OW71638   1.619   4.576   7.596
89914SOL    HW171639   1.527   4.578   7.624
89914SOL    HW271640   1.629   4.653   7.541
89915SOL     OW71641   5.700   0.972   9.581
89915SOL    HW171642   5.784   1.017   9.575
89915SOL    HW271643   5.659   0.985   9.495
89916SOL     OW71644   3.352   2.019   9.218
89916SOL    HW171645   3.345   2.112   9.198
89916SOL    HW271646   3.314   1.975   9.141
89917SOL     OW71647   5.432  10.457   3.494
89917SOL    HW171648   5.477  10.467   3.410
89917SOL    HW271649   5.499  10.481   3.559
89918SOL     OW71650  10.230   2.343   8.856
89918SOL    HW171651  10.207   2.251   8.855
89918SOL    HW271652  10.166   2.384   8.915
89919SOL     OW71653   0.556   4.721   3.086
89919SOL    HW171654   0.601   4.762   3.012
89919SOL    HW271655   0.623   4.716   3.155
89920SOL     OW71656   0.334  11.387  10.123
89920SOL    HW171657   0.283  11.463  10.151
89920SOL    HW271658   0.273  11.313  10.130
89921SOL     OW71659  11.590  12.839  14.648
89921SOL    HW171660  11.516  12.817  14.591
89921SOL    HW271661  11.577  12.931  14.670
89922SOL     OW71662   5.154   1.667   1.609
89922SOL    HW171663   5.181   1.601   1.673
89922SOL    HW271664   5.207   1.744   1.629
89923SOL     OW71665  12.060   0.146  13.302
89923SOL    HW171666  11.990   0.199  13.263
89923SOL    HW271667  12.140   0.194  13.283
89924SOL     OW71668   4.973   2.291  10.474
89924SOL    HW171669   5.043   2.238  10.513
89924SOL    HW271670   4.972   2.266  10.382
89925SOL     OW71671   9.183   2.253  14.703
89925SOL    HW171672   9.230   2.205  14.772
89925SOL    HW271673   9.221   2.221  14.621
89926SOL     OW71674  12.100   7.332   1.978
89926SOL    HW171675  12.055   7.416   1.979
89926SOL    HW271676  12.191   7.353   1.958
89927SOL     OW71677   4.101   1.085   9.307
89927SOL    HW171678   4.073   1.112   9.394
89927SOL    HW271679   4.020   1.060   9.262
89928SOL     OW71680  11.360   6.183  12.468
89928SOL    HW171681  11.371   6.228  12.384
89928SOL    HW271682  11.318   6.100  12.445
89929SOL     OW71683  14.505  12.234   9.759
89929SOL    HW171684  14.566  12.176   9.714
89929SOL    HW271685  14.438  12.254   9.694
89930SOL     OW71686  11.280   0.355  10.602
89930SOL    HW171687  11.275   0.446  10.574
89930SOL    HW271688  11.195   0.338  10.644
89931SOL     OW71689   0.846   8.177   3.316
89931SOL    HW171690   0.831   8.089   3.350
89931SOL    HW271691   0.822   8.171   3.223
89932SOL     OW71692   0.422   5.288  11.477
89932SOL    HW171693   0.452   5.197  11.470
89932SOL    HW271694   0.330   5.284  11.451
89933SOL     OW71695   3.438  11.160   4.755
89933SOL    HW171696   3.347  11.154   4.781
89933SOL    HW271697   3.483  11.196   4.832
89934SOL     OW71698   4.843  12.055   0.710
89934SOL    HW171699   4.892  11.982   0.747
89934SOL    HW271700   4.902  12.129   0.716
89935SOL     OW71701   5.333   6.952   2.748
89935SOL    HW171702   5.242   6.942   2.774
89935SOL    HW271703   5.381   6.965   2.830
89936SOL     OW71704  11.255   4.052   2.346
89936SOL    HW171705  11.221   4.003   2.420
89936SOL    HW271706  11.220   4.140   2.357
89937SOL     OW71707   5.844   2.504  11.932
89937SOL    HW171708   5.863   2.584  11.982
89937SOL    HW271709   5.883   2.520  11.846
89938SOL     OW71710  12.936  14.188  12.776
89938SOL    HW171711  12.860  14.143  12.812
89938SOL    HW271712  13.003  14.120  12.767
89939SOL     OW71713   6.652   9.615   0.851
89939SOL    HW171714   6.678   9.534   0.895
89939SOL    HW271715   6.584   9.652   0.907
89940SOL     OW71716   1.398   8.874   4.429
89940SOL    HW171717   1.437   8.849   4.512
89940SOL    HW271718   1.412   8.799   4.371
89941SOL     OW71719  14.103   8.725   5.679
89941SOL    HW171720  14.118   8.662   5.610
89941SOL    HW271721  14.154   8.802   5.654
89942SOL     OW71722   7.955   9.640  11.076
89942SOL    HW171723   7.867   9.669  11.099
89942SOL    HW271724   7.978   9.691  10.998
89943SOL     OW71725   3.646   3.402   5.074
89943SOL    HW171726   3.642   3.495   5.050
89943SOL    HW271727   3.728   3.393   5.122
89944SOL     OW71728   7.579   4.918   1.049
89944SOL    HW171729   7.641   4.849   1.072
89944SOL    HW271730   7.551   4.954   1.133
89945SOL     OW71731  14.544   6.271  11.131
89945SOL    HW171732  14.495   6.329  11.190
89945SOL    HW271733  14.623   6.248  11.179
89946SOL     OW71734   2.329   4.507   7.627
89946SOL    HW171735   2.317   4.412   7.615
89946SOL    HW271736   2.344   4.518   7.721
89947SOL     OW71737   8.860  12.015   8.376
89947SOL    HW171738   8.772  11.979   8.367
89947SOL    HW271739   8.857  12.098   8.329
89948SOL     OW71740   1.666   4.414  14.600
89948SOL    HW171741   1.700   4.423  14.689
89948SOL    HW271742   1.601   4.344  14.606
89949SOL     OW71743   4.333   7.039   6.271
89949SOL    HW171744   4.260   6.981   6.293
89949SOL    HW271745   4.368   7.068   6.356
89950SOL     OW71746   1.297  14.521  11.559
89950SOL    HW171747   1.203  14.505  11.565
89950SOL    HW271748   1.336  14.456  11.617
89951SOL     OW71749   8.258   1.806  13.649
89951SOL    HW171750   8.269   1.741  13.719
89951SOL    HW271751   8.165   1.800  13.626
89952SOL     OW71752   9.071  11.703   5.118
89952SOL    HW171753   9.098  11.630   5.173
89952SOL    HW271754   8.979  11.719   5.142
89953SOL     OW71755  12.163  10.175   8.680
89953SOL    HW171756  12.214  10.111   8.730
89953SOL    HW271757  12.080  10.181   8.727
89954SOL     OW71758   7.842   1.696   2.729
89954SOL    HW171759   7.828   1.603   2.748
89954SOL    HW271760   7.807   1.741   2.805
89955SOL     OW71761   6.919   9.850   0.877
89955SOL    HW171762   6.995   9.825   0.930
89955SOL    HW271763   6.849   9.864   0.940
89956SOL     OW71764   4.184  13.618   7.725
89956SOL    HW171765   4.155  13.653   7.809
89956SOL    HW271766   4.114  13.558   7.699
89957SOL     OW71767   9.331  10.055   8.890
89957SOL    HW171768   9.377  10.136   8.867
89957SOL    HW271769   9.280  10.079   8.967
89958SOL     OW71770   0.546   3.488   0.543
89958SOL    HW171771   0.493   3.563   0.519
89958SOL    HW271772   0.557   3.438   0.462
89959SOL     OW71773   0.878   5.235  13.901
89959SOL    HW171774   0.807   5.199  13.954
89959SOL    HW271775   0.951   5.174  13.914
89960SOL     OW71776   5.722   2.539   1.574
89960SOL    HW171777   5.795   2.477   1.574
89960SOL    HW271778   5.757   2.619   1.536
89961SOL     OW71779  12.829   9.745   9.900
89961SOL    HW171780  12.915   9.704   9.888
89961SOL    HW271781  12.767   9.679   9.868
89962SOL     OW71782   4.541   3.846   0.169
89962SOL    HW171783   4.614   3.902   0.194
89962SOL    HW271784   4.542   3.846   0.073
89963SOL     OW71785  10.629   6.076   9.225
89963SOL    HW171786  10.630   6.146   9.291
89963SOL    HW271787  10.691   6.012   9.258
89964SOL     OW71788   4.215  10.198   7.555
89964SOL    HW171789   4.187  10.125   7.611
89964SOL    HW271790   4.189  10.276   7.604
89965SOL     OW71791   2.849   9.214   0.236
89965SOL    HW171792   2.865   9.147   0.303
89965SOL    HW271793   2.931   9.263   0.231
89966SOL     OW71794  13.661   3.289   0.652
89966SOL    HW171795  13.716   3.365   0.635
89966SOL    HW271796  13.576   3.313   0.617
89967SOL     OW71797  11.221   8.982   7.779
89967SOL    HW171798  11.152   8.929   7.819
89967SOL    HW271799  11.295   8.922   7.770
89968SOL     OW71800  11.221  13.162   9.343
89968SOL    HW171801  11.241  13.121   9.258
89968SOL    HW271802  11.238  13.093   9.407
89969SOL     OW71803   5.248   9.676  11.537
89969SOL    HW171804   5.169   9.704  11.584
89969SOL    HW271805   5.222   9.676  11.445
89970SOL     OW71806  12.858   4.291   3.473
89970SOL    HW171807  12.782   4.349   3.467
89970SOL    HW271808  12.933   4.349   3.468
89971SOL     OW71809   6.185   6.145   1.220
89971SOL    HW171810   6.242   6.132   1.296
89971SOL    HW271811   6.097   6.124   1.252
89972SOL     OW71812   0.161   9.201   7.919
89972SOL    HW171813   0.153   9.233   7.830
89972SOL    HW271814   0.147   9.106   7.912
89973SOL     OW71815   1.317   3.072   8.759
89973SOL    HW171816   1.400   3.094   8.716
89973SOL    HW271817   1.335   3.084   8.852
89974SOL     OW71818   5.508  12.048   8.587
89974SOL    HW171819   5.603  12.039   8.583
89974SOL    HW271820   5.484  12.084   8.502
89975SOL     OW71821   0.491   0.360   2.760
89975SOL    HW171822   0.452   0.320   2.837
89975SOL    HW271823   0.422   0.358   2.694
89976SOL     OW71824  10.538   8.416   9.147
89976SOL    HW171825  10.486   8.475   9.202
89976SOL    HW271826  10.524   8.447   9.058
89977SOL     OW71827   8.002  13.367  10.554
89977SOL    HW171828   7.955  13.388  10.473
89977SOL    HW271829   7.934  13.337  10.614
89978SOL     OW71830   4.434   9.556   7.459
89978SOL    HW171831   4.398   9.639   7.489
89978SOL    HW271832   4.527   9.572   7.448
89979SOL     OW71833   6.929   6.268  14.258
89979SOL    HW171834   6.838   6.263  14.286
89979SOL    HW271835   6.980   6.245  14.336
89980SOL     OW71836  12.168   4.617   4.548
89980SOL    HW171837  12.260   4.592   4.543
89980SOL    HW271838  12.170   4.710   4.570
89981SOL     OW71839   0.532  10.023  13.707
89981SOL    HW171840   0.583   9.957  13.754
89981SOL    HW271841   0.443  10.014  13.742
89982SOL     OW71842   0.387   8.305  13.837
89982SOL    HW171843   0.297   8.286  13.862
89982SOL    HW271844   0.380   8.365  13.763
89983SOL     OW71845  11.755   2.130  12.717
89983SOL    HW171846  11.733   2.139  12.809
89983SOL    HW271847  11.673   2.103  12.675
89984SOL     OW71848   8.871   0.533   0.324
89984SOL    HW171849   8.896   0.444   0.352
89984SOL    HW271850   8.892   0.588   0.399
89985SOL     OW71851   1.628  14.476  11.954
89985SOL    HW171852   1.690  14.440  11.890
89985SOL    HW271853   1.683  14.511  12.024
89986SOL     OW71854   5.848   1.469  10.566
89986SOL    HW171855   5.836   1.447  10.474
89986SOL    HW271856   5.844   1.565  10.569
89987SOL     OW71857  11.996   1.419  13.831
89987SOL    HW171858  11.903   1.437  13.818
89987SOL    HW271859  12.029   1.396  13.744
89988SOL     OW71860   8.541   8.473   7.391
89988SOL    HW171861   8.542   8.425   7.308
89988SOL    HW271862   8.456   8.453   7.430
89989SOL     OW71863   5.658   7.016  13.286
89989SOL    HW171864   5.710   6.948  13.330
89989SOL    HW271865   5.722   7.086  13.268
89990SOL     OW71866   2.410   8.205  13.603
89990SOL    HW171867   2.418   8.120  13.560
89990SOL    HW271868   2.486   8.254  13.573
89991SOL     OW71869   2.225  10.721   6.803
89991SOL    HW171870   2.309  10.727   6.757
89991SOL    HW271871   2.237  10.777   6.880
89992SOL     OW71872   3.290   7.388   8.361
89992SOL    HW171873   3.382   7.404   8.340
89992SOL    HW271874   3.281   7.292   8.359
89993SOL     OW71875   7.401  10.445   3.275
89993SOL    HW171876   7.357  10.413   3.354
89993SOL    HW271877   7.329  10.473   3.218
89994SOL     OW71878   7.704   2.638   7.257
89994SOL    HW171879   7.677   2.553   7.223
89994SOL    HW271880   7.799   2.631   7.267
89995SOL     OW71881   9.658   8.052   4.025
89995SOL    HW171882   9.577   8.040   3.975
89995SOL    HW271883   9.701   8.127   3.984
89996SOL     OW71884   4.125   2.850   3.297
89996SOL    HW171885   4.062   2.879   3.362
89996SOL    HW271886   4.210   2.878   3.332
89997SOL     OW71887   4.470  11.527  14.424
89997SOL    HW171888   4.407  11.526  14.351
89997SOL    HW271889   4.522  11.448  14.411
89998SOL     OW71890   3.073  10.447   5.758
89998SOL    HW171891   3.048  10.537   5.779
89998SOL    HW271892   3.127  10.455   5.680
89999SOL     OW71893  14.856   2.252  11.429
89999SOL    HW171894  14.771   2.216  11.405
89999SOL    HW271895   0.012   2.302  11.352
90000SOL     OW71896   1.800  13.770   0.293
90000SOL    HW171897   1.772  13.832   0.360
90000SOL    HW271898   1.761  13.686   0.320
90001SOL     OW71899   2.648   1.426   8.018
90001SOL    HW171900   2.647   1.412   8.112
90001SOL    HW271901   2.672   1.341   7.981
90002SOL     OW71902   9.789   1.114  11.430
90002SOL    HW171903   9.751   1.174  11.366
90002SOL    HW271904   9.865   1.161  11.465
90003SOL     OW71905   7.101  11.138   8.263
90003SOL    HW171906   7.055  11.057   8.241
90003SOL    HW271907   7.130  11.172   8.179
90004SOL     OW71908  12.445  13.118   5.304
90004SOL    HW171909  12.483  13.183   5.363
90004SOL    HW271910  12.484  13.035   5.332
90005SOL     OW71911  11.739   4.361   5.012
90005SOL    HW171912  11.704   4.289   4.958
90005SOL    HW271913  11.812   4.395   4.961
90006SOL     OW71914  12.172   4.935   0.226
90006SOL    HW171915  12.148   4.981   0.307
90006SOL    HW271916  12.219   4.857   0.256
90007SOL     OW71917  13.936   2.583   6.723
90007SOL    HW171918  14.030   2.563   6.721
90007SOL    HW271919  13.915   2.587   6.816
90008SOL     OW71920   3.552   0.051   9.036
90008SOL    HW171921   3.492   0.125   9.025
90008SOL    HW271922   3.584   0.034   8.947
90009SOL     OW71923  10.130  11.228   2.212
90009SOL    HW171924  10.099  11.192   2.295
90009SOL    HW271925  10.224  11.207   2.210
90010SOL     OW71926   1.776   8.324   1.368
90010SOL    HW171927   1.763   8.364   1.454
90010SOL    HW271928   1.711   8.254   1.364
90011SOL     OW71929   2.241  13.868   9.967
90011SOL    HW171930   2.186  13.801   9.927
90011SOL    HW271931   2.181  13.920  10.020
90012SOL     OW71932  11.897  11.311   4.724
90012SOL    HW171933  11.944  11.230   4.706
90012SOL    HW271934  11.806  11.291   4.700
90013SOL     OW71935  10.091  12.195  13.855
90013SOL    HW171936  10.030  12.205  13.928
90013SOL    HW271937  10.094  12.282  13.814
90014SOL     OW71938  11.084   1.402  11.086
90014SOL    HW171939  11.119   1.489  11.069
90014SOL    HW271940  11.152   1.342  11.053
90015SOL     OW71941   1.575   5.738   2.265
90015SOL    HW171942   1.624   5.814   2.296
90015SOL    HW271943   1.635   5.664   2.280
90016SOL     OW71944  11.461   0.868   4.500
90016SOL    HW171945  11.475   0.948   4.549
90016SOL    HW271946  11.385   0.827   4.542
90017SOL     OW71947   4.140   9.486   9.977
90017SOL    HW171948   4.232   9.464   9.960
90017SOL    HW271949   4.139   9.517  10.068
90018SOL     OW71950  10.368  12.531  14.140
90018SOL    HW171951  10.402  12.609  14.096
90018SOL    HW271952  10.432  12.462  14.120
90019SOL     OW71953  10.905  11.487   2.378
90019SOL    HW171954  10.958  11.444   2.310
90019SOL    HW271955  10.921  11.434   2.456
90020SOL     OW71956   4.434   7.987   8.101
90020SOL    HW171957   4.413   8.080   8.110
90020SOL    HW271958   4.521   7.985   8.061
90021SOL     OW71959   1.124   9.271   6.656
90021SOL    HW171960   1.165   9.280   6.742
90021SOL    HW271961   1.030   9.280   6.673
90022SOL     OW71962   9.270   7.162   8.002
90022SOL    HW171963   9.199   7.114   8.044
90022SOL    HW271964   9.290   7.234   8.063
90023SOL     OW71965   3.265   9.565   3.278
90023SOL    HW171966   3.313   9.538   3.200
90023SOL    HW271967   3.246   9.658   3.263
90024SOL     OW71968  11.702  10.101   6.884
90024SOL    HW171969  11.682  10.015   6.920
90024SOL    HW271970  11.745  10.083   6.800
90025SOL     OW71971  10.310  11.618   4.571
90025SOL    HW171972  10.319  11.530   4.607
90025SOL    HW271973  10.352  11.614   4.485
90026SOL     OW71974   8.029   4.520  14.312
90026SOL    HW171975   8.004   4.428  14.316
90026SOL    HW271976   8.125   4.518  14.305
90027SOL     OW71977   6.563   7.165   4.882
90027SOL    HW171978   6.473   7.165   4.847
90027SOL    HW271979   6.555   7.207   4.967
90028SOL     OW71980   3.513  10.958   7.005
90028SOL    HW171981   3.499  10.864   6.994
90028SOL    HW271982   3.434  10.989   7.049
90029SOL     OW71983  10.687  11.802   1.782
90029SOL    HW171984  10.600  11.842   1.779
90029SOL    HW271985  10.734  11.840   1.708
90030SOL     OW71986  13.671   7.376   5.347
90030SOL    HW171987  13.734   7.391   5.276
90030SOL    HW271988  13.658   7.462   5.386
90031SOL     OW71989   3.318   1.498   1.878
90031SOL    HW171990   3.324   1.577   1.931
90031SOL    HW271991   3.401   1.494   1.831
90032SOL     OW71992   6.313   7.424  10.783
90032SOL    HW171993   6.238   7.460  10.829
90032SOL    HW271994   6.385   7.429  10.846
90033SOL     OW71995   6.021  13.955   5.677
90033SOL    HW171996   6.092  14.012   5.706
90033SOL    HW271997   5.947  13.976   5.734
90034SOL     OW71998  13.506   9.713   3.567
90034SOL    HW171999  13.429   9.663   3.540
90034SOL    HW272000  13.484   9.804   3.546
90035SOL     OW72001   9.017   6.099  14.757
90035SOL    HW172002   9.043   6.121  14.846
90035SOL    HW272003   9.096   6.063  14.716
90036SOL     OW72004  12.222   4.272  12.407
90036SOL    HW172005  12.280   4.344  12.383
90036SOL    HW272006  12.134   4.304  12.386
90037SOL     OW72007  10.348   6.139   1.191
90037SOL    HW172008  10.283   6.170   1.254
90037SOL    HW272009  10.302   6.141   1.107
90038SOL     OW72010   1.374   7.798   6.017
90038SOL    HW172011   1.307   7.864   6.032
90038SOL    HW272012   1.456   7.840   6.043
90039SOL     OW72013  12.525   7.647   0.986
90039SOL    HW172014  12.533   7.639   1.081
90039SOL    HW272015  12.610   7.683   0.958
90040SOL     OW72016   7.457   3.746   3.905
90040SOL    HW172017   7.381   3.789   3.865
90040SOL    HW272018   7.448   3.762   3.999
90041SOL     OW72019   5.443  10.658   4.546
90041SOL    HW172020   5.522  10.690   4.590
90041SOL    HW272021   5.473  10.582   4.497
90042SOL     OW72022   0.298  10.909   4.375
90042SOL    HW172023   0.310  10.929   4.282
90042SOL    HW272024   0.386  10.888   4.407
90043SOL     OW72025   6.957   5.168  11.902
90043SOL    HW172026   6.862   5.161  11.900
90043SOL    HW272027   6.987   5.081  11.926
90044SOL     OW72028  14.318  10.832   3.780
90044SOL    HW172029  14.317  10.762   3.715
90044SOL    HW272030  14.342  10.788   3.862
90045SOL     OW72031   5.616   4.654  13.019
90045SOL    HW172032   5.609   4.749  13.012
90045SOL    HW272033   5.708   4.639  13.044
90046SOL     OW72034  12.101  12.410   4.449
90046SOL    HW172035  12.172  12.353   4.419
90046SOL    HW272036  12.129  12.498   4.425
90047SOL     OW72037  14.203  11.653  10.844
90047SOL    HW172038  14.236  11.602  10.769
90047SOL    HW272039  14.134  11.708  10.807
90048SOL     OW72040  14.510   6.851   4.429
90048SOL    HW172041  14.435   6.836   4.372
90048SOL    HW272042  14.584   6.812   4.382
90049SOL     OW72043  12.300  14.477  12.546
90049SOL    HW172044  12.278  14.469  12.453
90049SOL    HW272045  12.376  14.420  12.557
90050SOL     OW72046   0.642   3.806   4.571
90050SOL    HW172047   0.653   3.800   4.476
90050SOL    HW272048   0.723   3.769   4.607
90051SOL     OW72049   1.239  12.063   3.246
90051SOL    HW172050   1.286  11.983   3.269
90051SOL    HW272051   1.299  12.134   3.268
90052SOL     OW72052   8.476   0.880  12.061
90052SOL    HW172053   8.401   0.823  12.081
90052SOL    HW272054   8.465   0.955  12.119
90053SOL     OW72055   1.492   4.171   4.621
90053SOL    HW172056   1.439   4.094   4.600
90053SOL    HW272057   1.503   4.216   4.538
90054SOL     OW72058   3.135   4.499   2.009
90054SOL    HW172059   3.171   4.486   2.097
90054SOL    HW272060   3.164   4.587   1.985
90055SOL     OW72061   6.471   8.315   5.636
90055SOL    HW172062   6.392   8.315   5.689
90055SOL    HW272063   6.534   8.367   5.687
90056SOL     OW72064   6.748   6.280   7.314
90056SOL    HW172065   6.715   6.268   7.403
90056SOL    HW272066   6.678   6.328   7.269
90057SOL     OW72067   2.548  10.524   7.414
90057SOL    HW172068   2.455  10.541   7.426
90057SOL    HW272069   2.569  10.458   7.481
90058SOL     OW72070  11.646  14.721   8.877
90058SOL    HW172071  11.670  14.800   8.829
90058SOL    HW272072  11.652  14.651   8.813
90059SOL     OW72073  10.574  11.175  11.473
90059SOL    HW172074  10.583  11.094  11.524
90059SOL    HW272075  10.662  11.194  11.443
90060SOL     OW72076   8.329   1.320   9.541
90060SOL    HW172077   8.337   1.247   9.603
90060SOL    HW272078   8.319   1.278   9.456
90061SOL     OW72079   9.552  13.687   8.637
90061SOL    HW172080   9.582  13.643   8.716
90061SOL    HW272081   9.625  13.679   8.576
90062SOL     OW72082   8.783   7.617   7.833
90062SOL    HW172083   8.702   7.666   7.817
90062SOL    HW272084   8.755   7.539   7.880
90063SOL     OW72085   6.311  14.085   8.727
90063SOL    HW172086   6.226  14.064   8.765
90063SOL    HW272087   6.372  14.026   8.771
90064SOL     OW72088   5.470   3.376  13.384
90064SOL    HW172089   5.480   3.389  13.290
90064SOL    HW272090   5.465   3.282  13.396
90065SOL     OW72091   0.121   2.613  10.115
90065SOL    HW172092   0.052   2.568  10.164
90065SOL    HW272093   0.164   2.544  10.065
90066SOL     OW72094   8.375  14.249  10.507
90066SOL    HW172095   8.426  14.168  10.509
90066SOL    HW272096   8.365  14.268  10.413
90067SOL     OW72097  14.039   7.822   3.137
90067SOL    HW172098  14.108   7.820   3.070
90067SOL    HW272099  13.958   7.806   3.089
90068SOL     OW72100   4.501   1.624   1.096
90068SOL    HW172101   4.485   1.718   1.084
90068SOL    HW272102   4.426   1.593   1.146
90069SOL     OW72103   3.429  11.887  14.385
90069SOL    HW172104   3.409  11.897  14.479
90069SOL    HW272105   3.493  11.817  14.381
90070SOL     OW72106   9.484  12.122   3.777
90070SOL    HW172107   9.433  12.175   3.839
90070SOL    HW272108   9.471  12.032   3.806
90071SOL     OW72109  13.978  13.822   7.489
90071SOL    HW172110  13.934  13.742   7.517
90071SOL    HW272111  14.058  13.826   7.541
90072SOL     OW72112   2.660   1.609   3.769
90072SOL    HW172113   2.626   1.692   3.803
90072SOL    HW272114   2.710   1.633   3.691
90073SOL     OW72115  14.679  10.124   5.067
90073SOL    HW172116  14.608  10.069   5.100
90073SOL    HW272117  14.725  10.068   5.005
90074SOL     OW72118   2.804  14.223   2.684
90074SOL    HW172119   2.828  14.276   2.760
90074SOL    HW272120   2.715  14.251   2.663
90075SOL     OW72121   7.843   3.449   6.373
90075SOL    HW172122   7.886   3.385   6.317
90075SOL    HW272123   7.769   3.481   6.321
90076SOL     OW72124   7.284  12.896  13.528
90076SOL    HW172125   7.236  12.958  13.583
90076SOL    HW272126   7.376  12.922  13.537
90077SOL     OW72127   5.990  11.653   1.814
90077SOL    HW172128   5.946  11.573   1.786
90077SOL    HW272129   6.032  11.630   1.897
90078SOL     OW72130  14.698   3.481  10.822
90078SOL    HW172131  14.750   3.402  10.835
90078SOL    HW272132  14.617   3.451  10.782
90079SOL     OW72133  14.626   5.718   2.011
90079SOL    HW172134  14.578   5.767   1.944
90079SOL    HW272135  14.718   5.737   1.993
90080SOL     OW72136   0.141   8.971  12.715
90080SOL    HW172137   0.190   8.990  12.795
90080SOL    HW272138   0.100   9.054  12.691
90081SOL     OW72139   5.409   8.678   7.827
90081SOL    HW172140   5.464   8.739   7.876
90081SOL    HW272141   5.405   8.600   7.882
90082SOL     OW72142  13.165   7.461   2.371
90082SOL    HW172143  13.119   7.532   2.325
90082SOL    HW272144  13.195   7.403   2.301
90083SOL     OW72145   9.664   6.358   8.634
90083SOL    HW172146   9.569   6.369   8.646
90083SOL    HW272147   9.678   6.375   8.541
90084SOL     OW72148   2.374  13.994   6.191
90084SOL    HW172149   2.406  13.946   6.268
90084SOL    HW272150   2.404  14.084   6.205
90085SOL     OW72151   2.495   2.589  13.517
90085SOL    HW172152   2.514   2.610  13.608
90085SOL    HW272153   2.450   2.667  13.483
90086SOL     OW72154   0.292  13.258   2.894
90086SOL    HW172155   0.346  13.180   2.879
90086SOL    HW272156   0.321  13.319   2.827
90087SOL     OW72157  12.144   4.860   3.714
90087SOL    HW172158  12.055   4.843   3.745
90087SOL    HW272159  12.152   4.808   3.634
90088SOL     OW72160   2.322  13.132   6.808
90088SOL    HW172161   2.317  13.121   6.903
90088SOL    HW272162   2.255  13.199   6.789
90089SOL     OW72163   7.869  12.582   0.067
90089SOL    HW172164   7.835  12.616   0.150
90089SOL    HW272165   7.899  12.494   0.087
90090SOL     OW72166   1.347   3.222   0.730
90090SOL    HW172167   1.312   3.235   0.642
90090SOL    HW272168   1.329   3.130   0.749
90091SOL     OW72169   7.429   0.308   0.177
90091SOL    HW172170   7.391   0.273   0.096
90091SOL    HW272171   7.524   0.302   0.164
90092SOL     OW72172   7.682   0.295   7.268
90092SOL    HW172173   7.622   0.348   7.321
90092SOL    HW272174   7.731   0.360   7.216
90093SOL     OW72175   8.373   7.706   0.102
90093SOL    HW172176   8.344   7.646   0.171
90093SOL    HW272177   8.362   7.793   0.140
90094SOL     OW72178   9.529   5.838   2.072
90094SOL    HW172179   9.487   5.906   2.124
90094SOL    HW272180   9.537   5.877   1.984
90095SOL     OW72181   4.829   0.460   5.112
90095SOL    HW172182   4.820   0.445   5.206
90095SOL    HW272183   4.755   0.516   5.088
90096SOL     OW72184   3.860   2.685   7.498
90096SOL    HW172185   3.875   2.749   7.568
90096SOL    HW272186   3.940   2.688   7.446
90097SOL     OW72187  13.427   4.903   6.208
90097SOL    HW172188  13.417   4.837   6.140
90097SOL    HW272189  13.340   4.911   6.247
90098SOL     OW72190   6.791   2.587   9.514
90098SOL    HW172191   6.886   2.584   9.504
90098SOL    HW272192   6.757   2.580   9.425
90099SOL     OW72193  11.047  11.909  12.468
90099SOL    HW172194  11.019  11.997  12.494
90099SOL    HW272195  11.141  11.908  12.485
90100SOL     OW72196   4.825  13.092   6.415
90100SOL    HW172197   4.831  13.016   6.472
90100SOL    HW272198   4.783  13.059   6.335
90101SOL     OW72199   1.523   1.032   7.580
90101SOL    HW172200   1.607   1.050   7.537
90101SOL    HW272201   1.497   0.946   7.546
90102SOL     OW72202   9.454   1.511   5.530
90102SOL    HW172203   9.483   1.575   5.595
90102SOL    HW272204   9.360   1.527   5.521
90103SOL     OW72205   8.866   5.969   0.244
90103SOL    HW172206   8.822   5.993   0.325
90103SOL    HW272207   8.899   5.880   0.260
90104SOL     OW72208   3.864   4.695   6.020
90104SOL    HW172209   3.958   4.699   6.039
90104SOL    HW272210   3.835   4.786   6.020
90105SOL     OW72211   0.384   6.248  13.575
90105SOL    HW172212   0.356   6.336  13.602
90105SOL    HW272213   0.434   6.215  13.650
90106SOL     OW72214   3.179  11.523   6.714
90106SOL    HW172215   3.187  11.601   6.770
90106SOL    HW272216   3.125  11.463   6.765
90107SOL     OW72217   4.546   0.560   5.317
90107SOL    HW172218   4.513   0.470   5.316
90107SOL    HW272219   4.560   0.581   5.225
90108SOL     OW72220  13.180   0.182  12.812
90108SOL    HW172221  13.164   0.256  12.871
90108SOL    HW272222  13.142   0.107  12.857
90109SOL     OW72223  12.430  11.756   5.977
90109SOL    HW172224  12.349  11.803   5.998
90109SOL    HW272225  12.451  11.784   5.888
90110SOL     OW72226   3.961   3.603   2.299
90110SOL    HW172227   3.904   3.680   2.307
90110SOL    HW272228   3.992   3.587   2.389
90111SOL     OW72229  12.900   9.916  10.578
90111SOL    HW172230  12.918   9.822  10.571
90111SOL    HW272231  12.939   9.942  10.661
90112SOL     OW72232   1.564   1.032   4.032
90112SOL    HW172233   1.615   1.093   4.086
90112SOL    HW272234   1.480   1.075   4.020
90113SOL     OW72235   8.348   9.305   5.729
90113SOL    HW172236   8.365   9.318   5.822
90113SOL    HW272237   8.252   9.299   5.723
90114SOL     OW72238   7.911   2.164   5.857
90114SOL    HW172239   7.884   2.232   5.795
90114SOL    HW272240   7.875   2.083   5.821
90115SOL     OW72241   2.689  13.770   0.930
90115SOL    HW172242   2.704  13.852   0.883
90115SOL    HW272243   2.653  13.711   0.865
90116SOL     OW72244  12.280   6.600   7.642
90116SOL    HW172245  12.223   6.668   7.679
90116SOL    HW272246  12.228   6.520   7.645
90117SOL     OW72247  10.193   9.686   8.097
90117SOL    HW172248  10.253   9.718   8.030
90117SOL    HW272249  10.184   9.759   8.158
90118SOL     OW72250   1.086   4.133   5.691
90118SOL    HW172251   1.006   4.115   5.741
90118SOL    HW272252   1.157   4.111   5.752
90119SOL     OW72253  10.222   5.306   6.703
90119SOL    HW172254  10.234   5.388   6.751
90119SOL    HW272255  10.285   5.312   6.631
90120SOL     OW72256  14.145   4.701   3.643
90120SOL    HW172257  14.081   4.753   3.692
90120SOL    HW272258  14.228   4.718   3.687
90121SOL     OW72259   0.342   7.543   5.043
90121SOL    HW172260   0.402   7.610   5.010
90121SOL    HW272261   0.399   7.472   5.073
90122SOL     OW72262  10.458   9.901  14.297
90122SOL    HW172263  10.389   9.892  14.364
90122SOL    HW272264  10.505   9.818  14.301
90123SOL     OW72265  11.228  14.453   2.312
90123SOL    HW172266  11.212  14.449   2.407
90123SOL    HW272267  11.293  14.522   2.301
90124SOL     OW72268   9.356   3.735   9.733
90124SOL    HW172269   9.335   3.781   9.652
90124SOL    HW272270   9.308   3.782   9.801
90125SOL     OW72271  14.401  12.912   7.500
90125SOL    HW172272  14.404  13.007   7.484
90125SOL    HW272273  14.338  12.879   7.436
90126SOL     OW72274  13.234   0.923   3.931
90126SOL    HW172275  13.257   1.013   3.908
90126SOL    HW272276  13.314   0.873   3.913
90127SOL     OW72277  12.032   3.549  10.651
90127SOL    HW172278  12.000   3.481  10.591
90127SOL    HW272279  12.066   3.618  10.594
90128SOL     OW72280   3.513  13.647   5.726
90128SOL    HW172281   3.565  13.567   5.734
90128SOL    HW272282   3.435  13.630   5.778
90129SOL     OW72283   5.429   9.713  13.932
90129SOL    HW172284   5.484   9.791  13.942
90129SOL    HW272285   5.345   9.737  13.970
90130SOL     OW72286   4.640   7.396   8.652
90130SOL    HW172287   4.611   7.412   8.741
90130SOL    HW272288   4.735   7.383   8.659
90131SOL     OW72289   7.920   2.560   5.150
90131SOL    HW172290   7.865   2.638   5.136
90131SOL    HW272291   7.861   2.486   5.132
90132SOL     OW72292  11.309  13.760  10.895
90132SOL    HW172293  11.354  13.741  10.813
90132SOL    HW272294  11.220  13.782  10.869
90133SOL     OW72295   5.628  11.721   4.068
90133SOL    HW172296   5.603  11.804   4.028
90133SOL    HW272297   5.634  11.660   3.995
90134SOL     OW72298   2.323   0.817   1.651
90134SOL    HW172299   2.266   0.759   1.702
90134SOL    HW272300   2.298   0.905   1.677
90135SOL     OW72301   0.099   6.663   7.119
90135SOL    HW172302   0.044   6.731   7.080
90135SOL    HW272303   0.151   6.630   7.045
90136SOL     OW72304   6.343   1.194   6.604
90136SOL    HW172305   6.414   1.243   6.564
90136SOL    HW272306   6.273   1.196   6.539
90137SOL     OW72307  13.636   8.817   9.998
90137SOL    HW172308  13.704   8.801  10.063
90137SOL    HW272309  13.568   8.865  10.046
90138SOL     OW72310   1.078   3.722   7.497
90138SOL    HW172311   1.159   3.735   7.546
90138SOL    HW272312   1.089   3.637   7.455
90139SOL     OW72313  10.018  12.445   7.178
90139SOL    HW172314  10.031  12.434   7.084
90139SOL    HW272315  10.088  12.393   7.218
90140SOL     OW72316   4.383   4.656   9.462
90140SOL    HW172317   4.326   4.728   9.489
90140SOL    HW272318   4.361   4.642   9.370
90141SOL     OW72319  11.659   2.548   4.326
90141SOL    HW172320  11.658   2.482   4.256
90141SOL    HW272321  11.629   2.500   4.403
90142SOL     OW72322   4.983   1.306  14.139
90142SOL    HW172323   4.941   1.281  14.057
90142SOL    HW272324   4.912   1.307  14.203
90143SOL     OW72325   4.172   0.681   8.851
90143SOL    HW172326   4.261   0.648   8.867
90143SOL    HW272327   4.157   0.745   8.920
90144SOL     OW72328   7.408   1.986  12.143
90144SOL    HW172329   7.477   1.941  12.191
90144SOL    HW272330   7.417   2.079  12.168
90145SOL     OW72331   4.825  11.254   5.905
90145SOL    HW172332   4.875  11.331   5.876
90145SOL    HW272333   4.881  11.213   5.971
90146SOL     OW72334  11.360   6.502  13.156
90146SOL    HW172335  11.275   6.474  13.124
90146SOL    HW272336  11.417   6.426  13.141
90147SOL     OW72337  14.049   1.880   0.146
90147SOL    HW172338  14.050   1.940   0.221
90147SOL    HW272339  13.976   1.821   0.164
90148SOL     OW72340   0.326   7.923   1.804
90148SOL    HW172341   0.264   7.871   1.753
90148SOL    HW272342   0.363   7.985   1.740
90149SOL     OW72343  13.562   1.708  11.458
90149SOL    HW172344  13.575   1.798  11.487
90149SOL    HW272345  13.474   1.706  11.421
90150SOL     OW72346   9.943   3.289   0.392
90150SOL    HW172347   9.933   3.201   0.356
90150SOL    HW272348   9.969   3.275   0.483
90151SOL     OW72349   5.470   1.012  10.011
90151SOL    HW172350   5.385   1.018   9.966
90151SOL    HW272351   5.533   0.994   9.942
90152SOL     OW72352   7.260   3.175  13.820
90152SOL    HW172353   7.325   3.200  13.885
90152SOL    HW272354   7.203   3.113  13.866
90153SOL     OW72355   0.520   9.385  11.273
90153SOL    HW172356   0.513   9.464  11.219
90153SOL    HW272357   0.610   9.355  11.261
90154SOL     OW72358   3.164  11.510  14.355
90154SOL    HW172359   3.146  11.533  14.264
90154SOL    HW272360   3.254  11.479  14.355
90155SOL     OW72361  13.566  14.820   9.652
90155SOL    HW172362  13.631   0.006   9.611
90155SOL    HW272363  13.566  14.741   9.598
90156SOL     OW72364   3.830  11.484   4.443
90156SOL    HW172365   3.806  11.498   4.352
90156SOL    HW272366   3.753  11.443   4.483
90157SOL     OW72367   5.476  11.804   1.310
90157SOL    HW172368   5.534  11.879   1.317
90157SOL    HW272369   5.443  11.807   1.220
90158SOL     OW72370  11.406  14.435   0.041
90158SOL    HW172371  11.332  14.427  14.852
90158SOL    HW272372  11.476  14.386  14.870
90159SOL     OW72373   3.546   0.805  12.240
90159SOL    HW172374   3.464   0.762  12.264
90159SOL    HW272375   3.607   0.733  12.224
90160SOL     OW72376   7.122   6.518   8.578
90160SOL    HW172377   7.142   6.598   8.528
90160SOL    HW272378   7.089   6.550   8.662
90161SOL     OW72379   2.290  11.706   4.231
90161SOL    HW172380   2.303  11.656   4.150
90161SOL    HW272381   2.378  11.732   4.257
90162SOL     OW72382   9.930   3.944   3.867
90162SOL    HW172383   9.913   3.856   3.901
90162SOL    HW272384   9.844   3.986   3.866
90163SOL     OW72385  10.463  13.069   5.780
90163SOL    HW172386  10.378  13.043   5.746
90163SOL    HW272387  10.524  13.053   5.707
90164SOL     OW72388   9.252   2.309   1.115
90164SOL    HW172389   9.233   2.375   1.048
90164SOL    HW272390   9.328   2.345   1.162
90165SOL     OW72391   1.562   2.265  10.612
90165SOL    HW172392   1.523   2.338  10.564
90165SOL    HW272393   1.488   2.222  10.655
90166SOL     OW72394   1.923   0.037   6.310
90166SOL    HW172395   1.998   0.008   6.258
90166SOL    HW272396   1.853  14.847   6.288
90167SOL     OW72397   8.269   1.412   1.209
90167SOL    HW172398   8.258   1.359   1.130
90167SOL    HW272399   8.185   1.408   1.253
90168SOL     OW72400   1.699  11.955   5.532
90168SOL    HW172401   1.646  11.995   5.601
90168SOL    HW272402   1.654  11.873   5.512
90169SOL     OW72403  12.833   8.171   2.161
90169SOL    HW172404  12.905   8.213   2.209
90169SOL    HW272405  12.834   8.215   2.076
90170SOL     OW72406   8.076   7.348  14.280
90170SOL    HW172407   8.163   7.374  14.311
90170SOL    HW272408   8.026   7.430  14.278
90171SOL     OW72409  13.303  14.262  14.720
90171SOL    HW172410  13.326  14.330  14.657
90171SOL    HW272411  13.340  14.182  14.682
90172SOL     OW72412  14.330  11.117   1.635
90172SOL    HW172413  14.326  11.175   1.711
90172SOL    HW272414  14.399  11.155   1.580
90173SOL     OW72415   7.526   0.348   3.609
90173SOL    HW172416   7.474   0.301   3.673
90173SOL    HW272417   7.463   0.403   3.562
90174SOL     OW72418   2.437  13.952   9.780
90174SOL    HW172419   2.415  13.899   9.703
90174SOL    HW272420   2.371  13.928   9.845
90175SOL     OW72421   5.744   6.176  12.848
90175SOL    HW172422   5.729   6.153  12.756
90175SOL    HW272423   5.657   6.197  12.881
90176SOL     OW72424   0.754   6.373   9.640
90176SOL    HW172425   0.827   6.396   9.583
90176SOL    HW272426   0.696   6.321   9.584
90177SOL     OW72427   0.445  11.976   0.291
90177SOL    HW172428   0.486  12.026   0.220
90177SOL    HW272429   0.516  11.925   0.329
90178SOL     OW72430   8.686  12.504  14.786
90178SOL    HW172431   8.710  12.594  14.764
90178SOL    HW272432   8.645  12.510   0.001
90179SOL     OW72433   3.816   2.127   7.316
90179SOL    HW172434   3.837   2.220   7.313
90179SOL    HW272435   3.881   2.090   7.377
90180SOL     OW72436  10.762   1.672   4.748
90180SOL    HW172437  10.706   1.727   4.802
90180SOL    HW272438  10.814   1.621   4.810
90181SOL     OW72439   1.580   9.618   4.621
90181SOL    HW172440   1.578   9.643   4.529
90181SOL    HW272441   1.502   9.657   4.659
90182SOL     OW72442   4.628   2.738   9.502
90182SOL    HW172443   4.651   2.797   9.574
90182SOL    HW272444   4.548   2.694   9.531
90183SOL     OW72445   0.007   4.802   7.349
90183SOL    HW172446   0.047   4.743   7.285
90183SOL    HW272447   0.082   4.840   7.396
90184SOL     OW72448   1.162  11.673  10.238
90184SOL    HW172449   1.075  11.681  10.276
90184SOL    HW272450   1.206  11.607  10.291
90185SOL     OW72451   7.125   1.769  14.830
90185SOL    HW172452   7.145   1.841   0.019
90185SOL    HW272453   7.143   1.806  14.743
90186SOL     OW72454   4.961  11.825   5.207
90186SOL    HW172455   5.002  11.749   5.248
90186SOL    HW272456   4.911  11.789   5.134
90187SOL     OW72457  13.440   0.445   5.709
90187SOL    HW172458  13.410   0.530   5.678
90187SOL    HW272459  13.521   0.429   5.662
90188SOL     OW72460   6.664   6.757  12.928
90188SOL    HW172461   6.578   6.765  12.886
90188SOL    HW272462   6.693   6.847  12.939
90189SOL     OW72463   5.409   7.108  14.853
90189SOL    HW172464   5.343   7.042  14.829
90189SOL    HW272465   5.406   7.110   0.077
90190SOL     OW72466   5.426   7.297   1.929
90190SOL    HW172467   5.357   7.280   1.864
90190SOL    HW272468   5.402   7.381   1.967
90191SOL     OW72469   3.522  12.053   7.503
90191SOL    HW172470   3.597  12.097   7.542
90191SOL    HW272471   3.463  12.035   7.577
90192SOL     OW72472  14.386   4.564   6.588
90192SOL    HW172473  14.325   4.511   6.639
90192SOL    HW272474  14.444   4.602   6.653
90193SOL     OW72475   3.501  10.412   3.519
90193SOL    HW172476   3.560  10.341   3.542
90193SOL    HW272477   3.558  10.490   3.516
90194SOL     OW72478   6.077  10.640   3.030
90194SOL    HW172479   6.109  10.702   3.095
90194SOL    HW272480   6.054  10.562   3.079
90195SOL     OW72481  10.406   7.613   7.680
90195SOL    HW172482  10.320   7.581   7.707
90195SOL    HW272483  10.398   7.624   7.585
90196SOL     OW72484  12.100   8.910   1.314
90196SOL    HW172485  12.125   8.961   1.391
90196SOL    HW272486  12.047   8.970   1.262
90197SOL     OW72487   2.701  10.788   6.272
90197SOL    HW172488   2.645  10.859   6.242
90197SOL    HW272489   2.788  10.826   6.277
90198SOL     OW72490   7.995   0.360  11.688
90198SOL    HW172491   7.956   0.326  11.607
90198SOL    HW272492   7.977   0.293  11.753
90199SOL     OW72493   3.833   5.710   7.050
90199SOL    HW172494   3.905   5.754   7.005
90199SOL    HW272495   3.873   5.635   7.092
90200SOL     OW72496   8.545  14.378   4.953
90200SOL    HW172497   8.568  14.411   5.040
90200SOL    HW272498   8.541  14.283   4.964
90201SOL     OW72499   2.579   0.474  14.558
90201SOL    HW172500   2.628   0.470  14.476
90201SOL    HW272501   2.645   0.494  14.624
90202SOL     OW72502   7.513   1.461  11.952
90202SOL    HW172503   7.602   1.426  11.955
90202SOL    HW272504   7.461   1.399  12.002
90203SOL     OW72505  12.460  10.711   9.718
90203SOL    HW172506  12.420  10.756   9.792
90203SOL    HW272507  12.447  10.770   9.644
90204SOL     OW72508   2.783   3.120   3.232
90204SOL    HW172509   2.769   3.025   3.234
90204SOL    HW272510   2.822   3.137   3.147
90205SOL     OW72511  12.894   8.277   0.097
90205SOL    HW172512  12.905   8.243   0.186
90205SOL    HW272513  12.825   8.343   0.104
90206SOL     OW72514  13.849   4.744   5.564
90206SOL    HW172515  13.812   4.831   5.582
90206SOL    HW272516  13.942   4.760   5.548
90207SOL     OW72517   0.488   0.896   9.182
90207SOL    HW172518   0.530   0.941   9.255
90207SOL    HW272519   0.560   0.871   9.124
90208SOL     OW72520   6.974   4.788  11.168
90208SOL    HW172521   7.064   4.766  11.194
90208SOL    HW272522   6.979   4.881  11.143
90209SOL     OW72523   7.497  12.157  10.165
90209SOL    HW172524   7.483  12.231  10.106
90209SOL    HW272525   7.418  12.155  10.219
90210SOL     OW72526   2.509   8.001   7.077
90210SOL    HW172527   2.588   7.954   7.051
90210SOL    HW272528   2.441   7.968   7.018
90211SOL     OW72529  12.007   6.058   4.740
90211SOL    HW172530  12.035   5.995   4.807
90211SOL    HW272531  11.978   6.004   4.667
90212SOL     OW72532   1.929   0.050   7.938
90212SOL    HW172533   1.853   0.013   7.893
90212SOL    HW272534   1.893   0.121   7.992
90213SOL     OW72535  14.470   3.106   5.308
90213SOL    HW172536  14.378   3.091   5.330
90213SOL    HW272537  14.469   3.180   5.247
90214SOL     OW72538  11.304   5.315  10.243
90214SOL    HW172539  11.357   5.248  10.286
90214SOL    HW272540  11.264   5.364  10.314
90215SOL     OW72541   8.286   4.772   1.929
90215SOL    HW172542   8.259   4.816   2.009
90215SOL    HW272543   8.328   4.840   1.877
90216SOL     OW72544   5.347   7.320   3.207
90216SOL    HW172545   5.426   7.266   3.218
90216SOL    HW272546   5.379   7.404   3.176
90217SOL     OW72547   8.891  11.419   3.498
90217SOL    HW172548   8.892  11.495   3.556
90217SOL    HW272549   8.952  11.357   3.539
90218SOL     OW72550  12.430   4.288  11.245
90218SOL    HW172551  12.372   4.217  11.273
90218SOL    HW272552  12.460   4.327  11.327
90219SOL     OW72553   3.258   3.791  11.439
90219SOL    HW172554   3.353   3.784  11.447
90219SOL    HW272555   3.242   3.787  11.345
90220SOL     OW72556   9.548   2.708   4.393
90220SOL    HW172557   9.639   2.734   4.381
90220SOL    HW272558   9.516   2.687   4.305
90221SOL     OW72559   2.470   3.233   6.175
90221SOL    HW172560   2.548   3.259   6.127
90221SOL    HW272561   2.482   3.270   6.262
90222SOL     OW72562   0.645   3.412   3.979
90222SOL    HW172563   0.568   3.362   4.007
90222SOL    HW272564   0.707   3.345   3.948
90223SOL     OW72565  10.447   0.418  14.336
90223SOL    HW172566  10.433   0.333  14.378
90223SOL    HW272567  10.361   0.459  14.335
90224SOL     OW72568  10.359   3.784   0.486
90224SOL    HW172569  10.435   3.841   0.474
90224SOL    HW272570  10.286   3.835   0.452
90225SOL     OW72571  11.440   3.202   3.190
90225SOL    HW172572  11.415   3.168   3.275
90225SOL    HW272573  11.382   3.158   3.128
90226SOL     OW72574  14.327   2.269   9.754
90226SOL    HW172575  14.417   2.255   9.726
90226SOL    HW272576  14.326   2.360   9.785
90227SOL     OW72577  12.575  11.404   8.841
90227SOL    HW172578  12.482  11.427   8.849
90227SOL    HW272579  12.594  11.352   8.919
90228SOL     OW72580   9.967   6.332   4.828
90228SOL    HW172581   9.936   6.365   4.743
90228SOL    HW272582   9.964   6.236   4.818
90229SOL     OW72583   0.947   0.169   9.600
90229SOL    HW172584   1.041   0.158   9.614
90229SOL    HW272585   0.920   0.090   9.555
90230SOL     OW72586   7.728   3.208  10.417
90230SOL    HW172587   7.729   3.298  10.383
90230SOL    HW272588   7.674   3.160  10.354
90231SOL     OW72589   4.890   6.786   2.976
90231SOL    HW172590   4.944   6.713   2.945
90231SOL    HW272591   4.800   6.761   2.952
90232SOL     OW72592   6.869  13.366   7.560
90232SOL    HW172593   6.954  13.407   7.578
90232SOL    HW272594   6.889  13.296   7.498
90233SOL     OW72595   3.066  13.201  11.686
90233SOL    HW172596   3.095  13.117  11.722
90233SOL    HW272597   3.059  13.259  11.762
90234SOL     OW72598   1.090  12.319   5.342
90234SOL    HW172599   1.043  12.328   5.425
90234SOL    HW272600   1.063  12.234   5.308
90235SOL     OW72601   2.584   6.503   5.093
90235SOL    HW172602   2.623   6.498   5.005
90235SOL    HW272603   2.653   6.471   5.151
90236SOL     OW72604   1.335   1.119   4.832
90236SOL    HW172605   1.248   1.078   4.824
90236SOL    HW272606   1.325   1.204   4.789
90237SOL     OW72607   5.052  13.463  13.185
90237SOL    HW172608   5.054  13.443  13.278
90237SOL    HW272609   5.101  13.391  13.144
90238SOL     OW72610   9.789   0.255   3.216
90238SOL    HW172611   9.744   0.220   3.293
90238SOL    HW272612   9.733   0.327   3.187
90239SOL     OW72613  14.385   0.184   6.289
90239SOL    HW172614  14.417   0.255   6.233
90239SOL    HW272615  14.387   0.221   6.378
90240SOL     OW72616   8.907  12.868   5.970
90240SOL    HW172617   8.892  12.872   6.065
90240SOL    HW272618   8.894  12.957   5.939
90241SOL     OW72619  12.099   9.522   8.819
90241SOL    HW172620  12.006   9.525   8.797
90241SOL    HW272621  12.126   9.431   8.804
90242SOL     OW72622  12.598  10.092   7.178
90242SOL    HW172623  12.581   9.998   7.177
90242SOL    HW272624  12.689  10.100   7.206
90243SOL     OW72625   2.363   7.440   6.383
90243SOL    HW172626   2.327   7.528   6.380
90243SOL    HW272627   2.458   7.452   6.374
90244SOL     OW72628  12.368  13.574   7.831
90244SOL    HW172629  12.282  13.553   7.794
90244SOL    HW272630  12.429  13.523   7.777
90245SOL     OW72631   1.665   4.051   5.328
90245SOL    HW172632   1.749   4.092   5.350
90245SOL    HW272633   1.599   4.113   5.361
90246SOL     OW72634   7.770   8.245   5.868
90246SOL    HW172635   7.789   8.241   5.961
90246SOL    HW272636   7.702   8.179   5.854
90247SOL     OW72637  11.405  13.594  11.616
90247SOL    HW172638  11.499  13.608  11.604
90247SOL    HW272639  11.380  13.536  11.544
90248SOL     OW72640   8.106   4.670   7.156
90248SOL    HW172641   8.108   4.726   7.078
90248SOL    HW272642   8.026   4.694   7.201
90249SOL     OW72643   3.390   7.788   3.974
90249SOL    HW172644   3.318   7.829   3.926
90249SOL    HW272645   3.395   7.699   3.937
90250SOL     OW72646   9.718   8.599   6.982
90250SOL    HW172647   9.731   8.694   6.977
90250SOL    HW272648   9.670   8.586   7.064
90251SOL     OW72649   1.969   5.054   5.425
90251SOL    HW172650   1.924   5.139   5.418
90251SOL    HW272651   2.024   5.050   5.347
90252SOL     OW72652   3.847   0.352   4.851
90252SOL    HW172653   3.920   0.298   4.820
90252SOL    HW272654   3.778   0.339   4.786
90253SOL     OW72655   8.606  11.215   4.045
90253SOL    HW172656   8.551  11.288   4.076
90253SOL    HW272657   8.656  11.188   4.122
90254SOL     OW72658   2.731   7.842  12.130
90254SOL    HW172659   2.824   7.826  12.145
90254SOL    HW272660   2.727   7.885  12.044
90255SOL     OW72661   0.534  11.606  10.848
90255SOL    HW172662   0.624  11.624  10.874
90255SOL    HW272663   0.530  11.511  10.838
90256SOL     OW72664   2.748   9.281   8.364
90256SOL    HW172665   2.750   9.288   8.459
90256SOL    HW272666   2.795   9.200   8.345
90257SOL     OW72667   0.203  14.028  12.525
90257SOL    HW172668   0.296  14.021  12.547
90257SOL    HW272669   0.172  13.937  12.525
90258SOL     OW72670   6.455   9.875  13.544
90258SOL    HW172671   6.460   9.968  13.566
90258SOL    HW272672   6.546   9.849  13.529
90259SOL     OW72673  10.816  10.197   1.453
90259SOL    HW172674  10.728  10.231   1.437
90259SOL    HW272675  10.805  10.103   1.459
90260SOL     OW72676   0.364   5.504   9.300
90260SOL    HW172677   0.299   5.533   9.236
90260SOL    HW272678   0.448   5.531   9.263
90261SOL     OW72679   5.753  11.117  14.438
90261SOL    HW172680   5.831  11.147  14.484
90261SOL    HW272681   5.694  11.193  14.440
90262SOL     OW72682   0.398   0.784  11.341
90262SOL    HW172683   0.379   0.739  11.259
90262SOL    HW272684   0.338   0.859  11.342
90263SOL     OW72685   7.575   0.475   4.622
90263SOL    HW172686   7.635   0.467   4.548
90263SOL    HW272687   7.490   0.492   4.582
90264SOL     OW72688  14.161  14.783   3.775
90264SOL    HW172689  14.220  14.720   3.818
90264SOL    HW272690  14.180  14.866   3.818
90265SOL     OW72691   3.810   0.759   4.668
90265SOL    HW172692   3.878   0.724   4.724
90265SOL    HW272693   3.857   0.818   4.608
90266SOL     OW72694   5.847   1.118   6.230
90266SOL    HW172695   5.826   1.197   6.181
90266SOL    HW272696   5.942   1.120   6.238
90267SOL     OW72697   6.541  13.198   7.475
90267SOL    HW172698   6.591  13.243   7.407
90267SOL    HW272699   6.462  13.167   7.431
90268SOL     OW72700   2.035   8.312   7.915
90268SOL    HW172701   2.008   8.396   7.877
90268SOL    HW272702   2.005   8.247   7.852
90269SOL     OW72703   3.362   8.679   0.674
90269SOL    HW172704   3.270   8.671   0.650
90269SOL    HW272705   3.375   8.612   0.741
90270SOL     OW72706  13.138  11.252   6.140
90270SOL    HW172707  13.169  11.342   6.155
90270SOL    HW272708  13.126  11.216   6.227
90271SOL     OW72709   9.672  10.952   0.890
90271SOL    HW172710   9.698  10.895   0.818
90271SOL    HW272711   9.745  11.013   0.900
90272SOL     OW72712   6.329  11.037   7.830
90272SOL    HW172713   6.310  11.127   7.805
90272SOL    HW272714   6.247  10.990   7.816
90273SOL     OW72715  14.055   5.558   5.599
90273SOL    HW172716  14.020   5.482   5.552
90273SOL    HW272717  13.988   5.577   5.665
90274SOL     OW72718  10.511   4.099   1.375
90274SOL    HW172719  10.502   4.143   1.460
90274SOL    HW272720  10.421   4.092   1.342
90275SOL     OW72721   4.574   4.997   1.102
90275SOL    HW172722   4.513   5.066   1.127
90275SOL    HW272723   4.628   4.984   1.180
90276SOL     OW72724   6.752  10.224   0.078
90276SOL    HW172725   6.691  10.248   0.007
90276SOL    HW272726   6.695  10.190   0.147
90277SOL     OW72727  10.900   6.793   1.370
90277SOL    HW172728  10.970   6.859   1.365
90277SOL    HW272729  10.824   6.841   1.402
90278SOL     OW72730   3.141  12.506   8.499
90278SOL    HW172731   3.086  12.555   8.438
90278SOL    HW272732   3.152  12.565   8.573
90279SOL     OW72733  12.734  13.463  10.620
90279SOL    HW172734  12.767  13.540  10.667
90279SOL    HW272735  12.813  13.414  10.596
90280SOL     OW72736   0.525   8.178   0.342
90280SOL    HW172737   0.522   8.142   0.254
90280SOL    HW272738   0.506   8.104   0.399
90281SOL     OW72739  13.626  13.759   3.135
90281SOL    HW172740  13.644  13.714   3.052
90281SOL    HW272741  13.531  13.755   3.144
90282SOL     OW72742   3.792   4.111  10.106
90282SOL    HW172743   3.855   4.040  10.099
90282SOL    HW272744   3.721   4.087  10.047
90283SOL     OW72745   0.300   5.181  14.178
90283SOL    HW172746   0.321   5.220  14.264
90283SOL    HW272747   0.229   5.120  14.197
90284SOL     OW72748   1.068  10.052  10.381
90284SOL    HW172749   1.055  10.146  10.392
90284SOL    HW272750   1.150  10.034  10.428
90285SOL     OW72751   0.196   9.897  10.794
90285SOL    HW172752   0.169   9.807  10.814
90285SOL    HW272753   0.126   9.931  10.738
90286SOL     OW72754   6.606  12.862   8.944
90286SOL    HW172755   6.610  12.778   8.898
90286SOL    HW272756   6.671  12.854   9.013
90287SOL     OW72757   9.160   1.190  11.615
90287SOL    HW172758   9.077   1.172  11.658
90287SOL    HW272759   9.220   1.211  11.686
90288SOL     OW72760   4.600   1.649   8.391
90288SOL    HW172761   4.545   1.621   8.318
90288SOL    HW272762   4.687   1.615   8.370
90289SOL     OW72763   4.608  11.734   1.013
90289SOL    HW172764   4.524  11.748   1.057
90289SOL    HW272765   4.665  11.803   1.046
90290SOL     OW72766   1.451   5.414   1.507
90290SOL    HW172767   1.513   5.351   1.544
90290SOL    HW272768   1.418   5.463   1.583
90291SOL     OW72769  10.370   6.545   8.855
90291SOL    HW172770  10.374   6.482   8.926
90291SOL    HW272771  10.293   6.519   8.803
90292SOL     OW72772  13.342  11.237   3.807
90292SOL    HW172773  13.260  11.188   3.803
90292SOL    HW272774  13.367  11.235   3.900
90293SOL     OW72775   9.092  10.383   3.974
90293SOL    HW172776   9.184  10.374   3.948
90293SOL    HW272777   9.072  10.303   4.021
90294SOL     OW72778  13.892   9.732   5.321
90294SOL    HW172779  13.863   9.800   5.382
90294SOL    HW272780  13.855   9.651   5.356
90295SOL     OW72781  13.319  14.667   2.912
90295SOL    HW172782  13.324  14.583   2.866
90295SOL    HW272783  13.305  14.644   3.004
90296SOL     OW72784  13.058  11.583   7.858
90296SOL    HW172785  13.047  11.533   7.939
90296SOL    HW272786  13.141  11.553   7.821
90297SOL     OW72787  11.383   8.367  11.049
90297SOL    HW172788  11.451   8.309  11.014
90297SOL    HW272789  11.392   8.359  11.144
90298SOL     OW72790   3.414   0.391  13.321
90298SOL    HW172791   3.449   0.397  13.232
90298SOL    HW272792   3.387   0.300  13.331
90299SOL     OW72793  11.526   2.164   0.510
90299SOL    HW172794  11.524   2.068   0.509
90299SOL    HW272795  11.620   2.186   0.508
90300SOL     OW72796   8.027  13.860   1.505
90300SOL    HW172797   7.944  13.829   1.543
90300SOL    HW272798   8.094  13.811   1.553
90301SOL     OW72799   7.338   6.068   0.708
90301SOL    HW172800   7.418   6.048   0.757
90301SOL    HW272801   7.362   6.144   0.654
90302SOL     OW72802   7.760   6.350   9.396
90302SOL    HW172803   7.829   6.415   9.413
90302SOL    HW272804   7.701   6.393   9.334
90303SOL     OW72805  10.076   0.583  10.821
90303SOL    HW172806  10.038   0.574  10.908
90303SOL    HW272807  10.143   0.651  10.831
90304SOL     OW72808  10.811  13.977   2.685
90304SOL    HW172809  10.817  13.986   2.781
90304SOL    HW272810  10.718  13.989   2.665
90305SOL     OW72811  12.541  11.431   1.218
90305SOL    HW172812  12.629  11.396   1.201
90305SOL    HW272813  12.487  11.396   1.147
90306SOL     OW72814   7.120   0.059  11.334
90306SOL    HW172815   7.100  14.849  11.287
90306SOL    HW272816   7.154   0.118  11.266
90307SOL     OW72817   8.694  14.266  12.095
90307SOL    HW172818   8.664  14.226  12.177
90307SOL    HW272819   8.787  14.243  12.090
90308SOL     OW72820   5.848   4.657   4.238
90308SOL    HW172821   5.770   4.601   4.241
90308SOL    HW272822   5.914   4.608   4.287
90309SOL     OW72823   5.751   1.723   4.212
90309SOL    HW172824   5.753   1.816   4.189
90309SOL    HW272825   5.662   1.695   4.192
90310SOL     OW72826  13.949  13.239   9.412
90310SOL    HW172827  13.975  13.174   9.348
90310SOL    HW272828  14.018  13.306   9.408
90311SOL     OW72829   5.789   9.669   8.429
90311SOL    HW172830   5.781   9.575   8.409
90311SOL    HW272831   5.714   9.688   8.485
90312SOL     OW72832   7.684  13.424  10.918
90312SOL    HW172833   7.745  13.488  10.954
90312SOL    HW272834   7.655  13.373  10.994
90313SOL     OW72835   0.683  10.946   7.575
90313SOL    HW172836   0.614  10.897   7.529
90313SOL    HW272837   0.655  10.947   7.666
90314SOL     OW72838   9.149  13.648   6.289
90314SOL    HW172839   9.078  13.606   6.337
90314SOL    HW272840   9.107  13.689   6.213
90315SOL     OW72841   3.338   6.607  14.468
90315SOL    HW172842   3.330   6.699  14.446
90315SOL    HW272843   3.255   6.568  14.440
90316SOL     OW72844   1.830   3.146  12.075
90316SOL    HW172845   1.745   3.116  12.107
90316SOL    HW272846   1.894   3.100  12.129
90317SOL     OW72847  10.173  11.921   0.108
90317SOL    HW172848  10.165  11.840   0.158
90317SOL    HW272849  10.247  11.967   0.148
90318SOL     OW72850   5.726   8.201  13.452
90318SOL    HW172851   5.706   8.283  13.408
90318SOL    HW272852   5.752   8.226  13.541
90319SOL     OW72853  13.226   1.199  12.978
90319SOL    HW172854  13.314   1.194  12.940
90319SOL    HW272855  13.194   1.109  12.974
90320SOL     OW72856  11.644   6.841  13.941
90320SOL    HW172857  11.731   6.808  13.964
90320SOL    HW272858  11.656   6.882  13.856
90321SOL     OW72859   8.129   2.729  11.093
90321SOL    HW172860   8.136   2.824  11.092
90321SOL    HW272861   8.043   2.712  11.133
90322SOL     OW72862   8.062  11.768  11.311
90322SOL    HW172863   8.054  11.779  11.216
90322SOL    HW272864   8.041  11.676  11.326
90323SOL     OW72865  13.739   2.397   6.369
90323SOL    HW172866  13.687   2.323   6.337
90323SOL    HW272867  13.742   2.384   6.464
90324SOL     OW72868   9.568   0.046   4.384
90324SOL    HW172869   9.478   0.015   4.373
90324SOL    HW272870   9.564   0.140   4.365
90325SOL     OW72871   8.118  14.407   9.849
90325SOL    HW172872   8.189  14.344   9.838
90325SOL    HW272873   8.138  14.477   9.787
90326SOL     OW72874  14.051   2.134   9.723
90326SOL    HW172875  14.127   2.191   9.734
90326SOL    HW272876  13.977   2.187   9.753
90327SOL     OW72877   4.485   1.693   8.845
90327SOL    HW172878   4.457   1.613   8.890
90327SOL    HW272879   4.425   1.701   8.771
90328SOL     OW72880   9.469  14.751   7.555
90328SOL    HW172881   9.453  14.657   7.541
90328SOL    HW272882   9.564  14.757   7.564
90329SOL     OW72883   9.150  10.787   7.465
90329SOL    HW172884   9.066  10.832   7.477
90329SOL    HW272885   9.201  10.810   7.543
90330SOL     OW72886   2.052   1.372   8.548
90330SOL    HW172887   2.142   1.376   8.515
90330SOL    HW272888   2.038   1.279   8.566
90331SOL     OW72889   6.462  11.538  14.837
90331SOL    HW172890   6.378  11.570  14.868
90331SOL    HW272891   6.449  11.443  14.827
90332SOL     OW72892   1.429  13.161   6.684
90332SOL    HW172893   1.495  13.092   6.690
90332SOL    HW272894   1.358  13.132   6.741
90333SOL     OW72895   1.933  11.888  11.600
90333SOL    HW172896   1.946  11.820  11.667
90333SOL    HW272897   1.970  11.967  11.638
90334SOL     OW72898   0.760   8.905  12.313
90334SOL    HW172899   0.685   8.851  12.340
90334SOL    HW272900   0.767   8.971  12.381
90335SOL     OW72901   7.945   7.596   5.487
90335SOL    HW172902   7.980   7.568   5.572
90335SOL    HW272903   8.017   7.647   5.448
90336SOL     OW72904   8.288  12.982   3.444
90336SOL    HW172905   8.271  13.072   3.415
90336SOL    HW272906   8.360  12.953   3.389
90337SOL     OW72907   4.713   6.494  11.298
90337SOL    HW172908   4.694   6.588  11.299
90337SOL    HW272909   4.635   6.453  11.336
90338SOL     OW72910   9.288   9.379   7.164
90338SOL    HW172911   9.196   9.379   7.192
90338SOL    HW272912   9.327   9.452   7.213
90339SOL     OW72913   0.621   1.789  12.018
90339SOL    HW172914   0.715   1.767  12.022
90339SOL    HW272915   0.618   1.884  12.019
90340SOL     OW72916   3.565   3.254   7.455
90340SOL    HW172917   3.538   3.328   7.509
90340SOL    HW272918   3.485   3.224   7.412
90341SOL     OW72919  10.632   3.389   4.507
90341SOL    HW172920  10.631   3.358   4.416
90341SOL    HW272921  10.612   3.312   4.559
90342SOL     OW72922   9.622  14.114   1.609
90342SOL    HW172923   9.636  14.104   1.515
90342SOL    HW272924   9.540  14.163   1.617
90343SOL     OW72925   0.495   6.138   8.121
90343SOL    HW172926   0.553   6.116   8.194
90343SOL    HW272927   0.449   6.056   8.101
90344SOL     OW72928  14.247  10.100   1.430
90344SOL    HW172929  14.339  10.116   1.406
90344SOL    HW272930  14.231  10.158   1.504
90345SOL     OW72931  10.647   7.770   8.778
90345SOL    HW172932  10.654   7.777   8.873
90345SOL    HW272933  10.700   7.693   8.755
90346SOL     OW72934  11.022  14.320   8.092
90346SOL    HW172935  11.107  14.313   8.137
90346SOL    HW272936  11.044  14.353   8.005
90347SOL     OW72937   2.484   9.079   7.765
90347SOL    HW172938   2.473   8.986   7.781
90347SOL    HW272939   2.484   9.119   7.853
90348SOL     OW72940   1.190   6.801  12.199
90348SOL    HW172941   1.248   6.850  12.140
90348SOL    HW272942   1.127   6.758  12.141
90349SOL     OW72943   2.489   1.555   5.593
90349SOL    HW172944   2.418   1.597   5.643
90349SOL    HW272945   2.521   1.625   5.535
90350SOL     OW72946   5.813   1.043  14.323
90350SOL    HW172947   5.873   0.988  14.272
90350SOL    HW272948   5.839   1.028  14.414
90351SOL     OW72949   8.315   6.296  10.921
90351SOL    HW172950   8.391   6.317  10.974
90351SOL    HW272951   8.325   6.348  10.842
90352SOL     OW72952   7.166   4.128   3.892
90352SOL    HW172953   7.202   4.216   3.903
90352SOL    HW272954   7.071   4.140   3.891
90353SOL     OW72955  14.727   3.358   0.832
90353SOL    HW172956  14.648   3.306   0.845
90353SOL    HW272957  14.767   3.363   0.919
90354SOL     OW72958   9.652   3.180   7.338
90354SOL    HW172959   9.573   3.222   7.304
90354SOL    HW272960   9.620   3.108   7.392
90355SOL     OW72961  12.873  10.242  14.647
90355SOL    HW172962  12.948  10.257  14.590
90355SOL    HW272963  12.876  10.149  14.668
90356SOL     OW72964   7.377   2.540   1.619
90356SOL    HW172965   7.338   2.560   1.704
90356SOL    HW272966   7.370   2.622   1.569
90357SOL     OW72967   1.441  12.324   4.177
90357SOL    HW172968   1.409  12.244   4.219
90357SOL    HW272969   1.410  12.318   4.087
90358SOL     OW72970  14.791  13.469   2.068
90358SOL    HW172971  14.829  13.382   2.054
90358SOL    HW272972  14.767  13.499   1.980
90359SOL     OW72973   4.763   4.190   9.189
90359SOL    HW172974   4.804   4.135   9.255
90359SOL    HW272975   4.814   4.271   9.190
90360SOL     OW72976   8.172  12.080   2.650
90360SOL    HW172977   8.096  12.137   2.644
90360SOL    HW272978   8.229  12.123   2.713
90361SOL     OW72979   7.868   8.211   2.228
90361SOL    HW172980   7.790   8.172   2.267
90361SOL    HW272981   7.854   8.202   2.134
90362SOL     OW72982   9.391   4.593  12.265
90362SOL    HW172983   9.414   4.652  12.338
90362SOL    HW272984   9.475   4.569  12.227
90363SOL     OW72985   6.123   1.637   6.516
90363SOL    HW172986   6.182   1.712   6.502
90363SOL    HW272987   6.172   1.580   6.576
90364SOL     OW72988  11.728  14.354   2.174
90364SOL    HW172989  11.670  14.390   2.108
90364SOL    HW272990  11.682  14.367   2.257
90365SOL     OW72991  11.780  12.145   1.873
90365SOL    HW172992  11.787  12.088   1.796
90365SOL    HW272993  11.694  12.187   1.863
90366SOL     OW72994   6.488   0.901   7.433
90366SOL    HW172995   6.399   0.886   7.402
90366SOL    HW272996   6.492   0.995   7.451
90367SOL     OW72997   2.144  14.822  14.333
90367SOL    HW172998   2.125  14.797  14.424
90367SOL    HW272999   2.235  14.797  14.320
90368SOL     OW73000   8.686   7.934  13.386
90368SOL    HW173001   8.682   8.029  13.381
90368SOL    HW273002   8.760   7.910  13.330
90369SOL     OW73003   4.427   4.819   6.043
90369SOL    HW173004   4.396   4.906   6.071
90369SOL    HW273005   4.479   4.836   5.965
90370SOL     OW73006  13.761   1.399   0.528
90370SOL    HW173007  13.842   1.349   0.518
90370SOL    HW273008  13.784   1.469   0.589
90371SOL     OW73009  12.351   7.567  13.202
90371SOL    HW173010  12.362   7.512  13.124
90371SOL    HW273011  12.309   7.647  13.168
90372SOL     OW73012   7.358   0.076   9.298
90372SOL    HW173013   7.282   0.030   9.333
90372SOL    HW273014   7.324   0.159   9.265
90373SOL     OW73015   5.549   1.922   2.240
90373SOL    HW173016   5.474   1.975   2.267
90373SOL    HW273017   5.510   1.844   2.201
90374SOL     OW73018  11.864  14.000   2.949
90374SOL    HW173019  11.912  13.932   2.901
90374SOL    HW273020  11.926  14.031   3.014
90375SOL     OW73021   7.265   3.529   6.802
90375SOL    HW173022   7.285   3.458   6.863
90375SOL    HW273023   7.310   3.505   6.722
90376SOL     OW73024  13.917  11.438   2.047
90376SOL    HW173025  13.926  11.370   1.980
90376SOL    HW273026  13.984  11.502   2.025
90377SOL     OW73027   7.879   8.425   0.541
90377SOL    HW173028   7.855   8.368   0.468
90377SOL    HW273029   7.795   8.445   0.583
90378SOL     OW73030   0.777   9.759   0.249
90378SOL    HW173031   0.693   9.723   0.279
90378SOL    HW273032   0.843   9.704   0.291
90379SOL     OW73033   9.660   8.129   6.254
90379SOL    HW173034   9.742   8.080   6.259
90379SOL    HW273035   9.688   8.220   6.243
90380SOL     OW73036   8.960  10.034   3.371
90380SOL    HW173037   8.936  10.039   3.464
90380SOL    HW273038   9.050  10.001   3.372
90381SOL     OW73039   0.515   7.908   2.577
90381SOL    HW173040   0.590   7.964   2.560
90381SOL    HW273041   0.479   7.940   2.659
90382SOL     OW73042   6.999  14.225   0.434
90382SOL    HW173043   7.023  14.221   0.341
90382SOL    HW273044   7.047  14.300   0.468
90383SOL     OW73045   7.535   8.435   1.629
90383SOL    HW173046   7.569   8.357   1.673
90383SOL    HW273047   7.608   8.496   1.627
90384SOL     OW73048   2.380   9.154   4.921
90384SOL    HW173049   2.429   9.143   4.840
90384SOL    HW273050   2.289   9.135   4.898
90385SOL     OW73051   8.533  13.621   6.396
90385SOL    HW173052   8.610  13.656   6.442
90385SOL    HW273053   8.495  13.559   6.458
90386SOL     OW73054   1.304  14.153   4.113
90386SOL    HW173055   1.216  14.123   4.136
90386SOL    HW273056   1.362  14.082   4.141
90387SOL     OW73057   4.368   0.801   3.964
90387SOL    HW173058   4.404   0.714   3.945
90387SOL    HW273059   4.419   0.860   3.908
90388SOL     OW73060  14.361  13.649   6.160
90388SOL    HW173061  14.394  13.583   6.220
90388SOL    HW273062  14.422  13.722   6.169
90389SOL     OW73063   0.092  12.419   5.447
90389SOL    HW173064   0.053  12.463   5.371
90389SOL    HW273065   0.049  12.460   5.522
90390SOL     OW73066  13.277   5.671   4.477
90390SOL    HW173067  13.211   5.605   4.457
90390SOL    HW273068  13.347   5.624   4.522
90391SOL     OW73069   4.503   5.648   3.972
90391SOL    HW173070   4.426   5.599   4.000
90391SOL    HW273071   4.555   5.657   4.051
90392SOL     OW73072   2.037   8.587   4.607
90392SOL    HW173073   2.049   8.622   4.695
90392SOL    HW273074   2.047   8.493   4.616
90393SOL     OW73075  11.744   7.979  13.970
90393SOL    HW173076  11.723   7.960  14.061
90393SOL    HW273077  11.726   8.073  13.961
90394SOL     OW73078   2.807   9.128  12.514
90394SOL    HW173079   2.828   9.035  12.514
90394SOL    HW273080   2.727   9.135  12.566
90395SOL     OW73081   9.611   1.894   3.259
90395SOL    HW173082   9.566   1.824   3.306
90395SOL    HW273083   9.699   1.896   3.295
90396SOL     OW73084   0.800   1.102   6.678
90396SOL    HW173085   0.886   1.091   6.639
90396SOL    HW273086   0.806   1.184   6.728
90397SOL     OW73087  10.632  13.779   1.427
90397SOL    HW173088  10.641  13.791   1.332
90397SOL    HW273089  10.675  13.856   1.465
90398SOL     OW73090   4.163  13.065  11.220
90398SOL    HW173091   4.071  13.043  11.235
90398SOL    HW273092   4.172  13.068  11.125
90399SOL     OW73093   9.630   4.858  12.364
90399SOL    HW173094   9.587   4.936  12.398
90399SOL    HW273095   9.603   4.854  12.272
90400SOL     OW73096   3.543   9.783  13.285
90400SOL    HW173097   3.624   9.747  13.250
90400SOL    HW273098   3.505   9.833  13.212
90401SOL     OW73099   0.379  11.364   1.464
90401SOL    HW173100   0.414  11.326   1.545
90401SOL    HW273101   0.414  11.309   1.394
90402SOL     OW73102   7.279   4.413   6.396
90402SOL    HW173103   7.364   4.387   6.361
90402SOL    HW273104   7.261   4.498   6.355
90403SOL     OW73105  10.890   1.299   7.880
90403SOL    HW173106  10.857   1.263   7.963
90403SOL    HW273107  10.853   1.388   7.877
90404SOL     OW73108   6.362   0.283   6.969
90404SOL    HW173109   6.366   0.365   6.921
90404SOL    HW273110   6.431   0.229   6.931
90405SOL     OW73111   7.845  11.120   9.307
90405SOL    HW173112   7.796  11.093   9.385
90405SOL    HW273113   7.778  11.132   9.240
90406SOL     OW73114   8.003   5.869  13.442
90406SOL    HW173115   8.053   5.792  13.468
90406SOL    HW273116   8.064   5.919  13.387
90407SOL     OW73117   8.163   8.096   6.196
90407SOL    HW173118   8.251   8.077   6.229
90407SOL    HW273119   8.106   8.041   6.249
90408SOL     OW73120  10.163   8.643  12.635
90408SOL    HW173121  10.205   8.725  12.659
90408SOL    HW273122  10.233   8.578  12.638
90409SOL     OW73123   0.382   3.426  11.210
90409SOL    HW173124   0.441   3.361  11.171
90409SOL    HW273125   0.335   3.378  11.278
90410SOL     OW73126  13.021   2.391   4.836
90410SOL    HW173127  13.053   2.481   4.825
90410SOL    HW273128  12.927   2.401   4.854
90411SOL     OW73129  11.904  11.587  12.436
90411SOL    HW173130  11.839  11.653  12.462
90411SOL    HW273131  11.853  11.506  12.428
90412SOL     OW73132   7.414  12.169  14.535
90412SOL    HW173133   7.506  12.157  14.514
90412SOL    HW273134   7.369  12.100  14.487
90413SOL     OW73135   7.610  12.810   4.360
90413SOL    HW173136   7.643  12.724   4.385
90413SOL    HW273137   7.560  12.794   4.280
90414SOL     OW73138   0.539   2.571   8.295
90414SOL    HW173139   0.492   2.519   8.230
90414SOL    HW273140   0.599   2.509   8.337
90415SOL     OW73141  11.704   9.405   0.154
90415SOL    HW173142  11.635   9.338   0.151
90415SOL    HW273143  11.757   9.387   0.076
90416SOL     OW73144   6.413   9.584   4.330
90416SOL    HW173145   6.469   9.529   4.275
90416SOL    HW273146   6.455   9.670   4.329
90417SOL     OW73147   2.498  12.847   6.844
90417SOL    HW173148   2.428  12.828   6.907
90417SOL    HW273149   2.576  12.860   6.897
90418SOL     OW73150   5.989   4.192   5.935
90418SOL    HW173151   5.908   4.171   5.982
90418SOL    HW273152   6.059   4.170   5.997
90419SOL     OW73153   5.288   7.579   5.365
90419SOL    HW173154   5.290   7.620   5.452
90419SOL    HW273155   5.251   7.492   5.380
90420SOL     OW73156  10.040  11.346   1.822
90420SOL    HW173157  10.116  11.363   1.878
90420SOL    HW273158   9.990  11.279   1.869
90421SOL     OW73159   0.060   4.058   2.817
90421SOL    HW173160   0.149   4.024   2.829
90421SOL    HW273161   0.062   4.099   2.731
90422SOL     OW73162  10.931   0.670   0.693
90422SOL    HW173163  10.931   0.583   0.733
90422SOL    HW273164  10.839   0.690   0.679
90423SOL     OW73165  14.092   1.206   3.038
90423SOL    HW173166  14.049   1.251   2.966
90423SOL    HW273167  14.067   1.256   3.116
90424SOL     OW73168  14.784   8.390  12.964
90424SOL    HW173169  14.750   8.392  12.875
90424SOL    HW273170  14.784   8.481  12.993
90425SOL     OW73171   7.320   8.306  14.094
90425SOL    HW173172   7.344   8.363  14.167
90425SOL    HW273173   7.336   8.218  14.126
90426SOL     OW73174   6.830  12.333   0.463
90426SOL    HW173175   6.915  12.289   0.470
90426SOL    HW273176   6.773  12.286   0.523
90427SOL     OW73177   9.305   6.490   5.389
90427SOL    HW173178   9.336   6.569   5.344
90427SOL    HW273179   9.219   6.516   5.424
90428SOL     OW73180   5.958   6.741   3.344
90428SOL    HW173181   5.873   6.727   3.303
90428SOL    HW273182   5.939   6.791   3.423
90429SOL     OW73183   4.018  13.407   2.344
90429SOL    HW173184   3.934  13.394   2.387
90429SOL    HW273185   4.039  13.322   2.305
90430SOL     OW73186   3.136   2.005   7.250
90430SOL    HW173187   3.181   1.940   7.304
90430SOL    HW273188   3.044   1.997   7.273
90431SOL     OW73189   0.539   2.472   3.659
90431SOL    HW173190   0.513   2.561   3.682
90431SOL    HW273191   0.634   2.471   3.669
90432SOL     OW73192   7.461  11.329   3.619
90432SOL    HW173193   7.482  11.386   3.693
90432SOL    HW273194   7.520  11.254   3.630
90433SOL     OW73195   1.805  12.948   9.145
90433SOL    HW173196   1.825  12.911   9.231
90433SOL    HW273197   1.847  13.035   9.147
90434SOL     OW73198   2.066  11.545   7.981
90434SOL    HW173199   2.142  11.547   8.039
90434SOL    HW273200   2.049  11.637   7.960
90435SOL     OW73201   0.570   0.482   9.794
90435SOL    HW173202   0.523   0.425   9.854
90435SOL    HW273203   0.607   0.423   9.729
90436SOL     OW73204   3.304  10.224  11.923
90436SOL    HW173205   3.321  10.131  11.939
90436SOL    HW273206   3.209  10.233  11.932
90437SOL     OW73207  11.957   4.010   2.546
90437SOL    HW173208  11.878   3.956   2.540
90437SOL    HW273209  11.938   4.086   2.491
90438SOL     OW73210   3.196   5.556  10.178
90438SOL    HW173211   3.141   5.632  10.161
90438SOL    HW273212   3.266   5.589  10.234
90439SOL     OW73213  11.305  10.031  11.822
90439SOL    HW173214  11.349   9.949  11.843
90439SOL    HW273215  11.370  10.084  11.777
90440SOL     OW73216   6.306  13.412   7.355
90440SOL    HW173217   6.273  13.361   7.281
90440SOL    HW273218   6.363  13.478   7.316
90441SOL     OW73219  14.825   0.870   2.766
90441SOL    HW173220  14.868   0.788   2.741
90441SOL    HW273221  14.847   0.931   2.695
90442SOL     OW73222   1.338   5.224   6.175
90442SOL    HW173223   1.264   5.187   6.224
90442SOL    HW273224   1.300   5.297   6.126
90443SOL     OW73225   4.322   8.310   5.294
90443SOL    HW173226   4.344   8.223   5.261
90443SOL    HW273227   4.312   8.364   5.215
90444SOL     OW73228  11.320   8.758  10.797
90444SOL    HW173229  11.276   8.823  10.852
90444SOL    HW273230  11.407   8.793  10.782
90445SOL     OW73231  11.606  10.570   2.941
90445SOL    HW173232  11.657  10.650   2.954
90445SOL    HW273233  11.657  10.517   2.880
90446SOL     OW73234   7.055  10.487   1.371
90446SOL    HW173235   7.070  10.476   1.464
90446SOL    HW273236   7.136  10.525   1.337
90447SOL     OW73237   4.652   4.827  14.544
90447SOL    HW173238   4.701   4.871  14.475
90447SOL    HW273239   4.562   4.828  14.513
90448SOL     OW73240  12.023   3.356   8.224
90448SOL    HW173241  12.000   3.300   8.299
90448SOL    HW273242  11.987   3.310   8.148
90449SOL     OW73243  10.536   2.824   3.903
90449SOL    HW173244  10.559   2.789   3.989
90449SOL    HW273245  10.575   2.762   3.841
90450SOL     OW73246   2.854   3.206   2.921
90450SOL    HW173247   2.781   3.258   2.955
90450SOL    HW273248   2.930   3.235   2.972
90451SOL     OW73249   9.746   1.935   2.228
90451SOL    HW173250   9.749   1.909   2.136
90451SOL    HW273251   9.673   1.885   2.265
90452SOL     OW73252   4.557  11.163  13.961
90452SOL    HW173253   4.465  11.174  13.985
90452SOL    HW273254   4.565  11.071  13.938
90453SOL     OW73255   1.370  13.359  10.838
90453SOL    HW173256   1.347  13.321  10.923
90453SOL    HW273257   1.305  13.428  10.824
90454SOL     OW73258  12.619   5.977   1.860
90454SOL    HW173259  12.541   6.010   1.905
90454SOL    HW273260  12.608   6.005   1.769
90455SOL     OW73261   6.588  11.228  13.730
90455SOL    HW173262   6.549  11.140  13.733
90455SOL    HW273263   6.669  11.215  13.679
90456SOL     OW73264   1.812   9.738  12.966
90456SOL    HW173265   1.787   9.792  13.041
90456SOL    HW273266   1.730   9.727  12.917
90457SOL     OW73267   3.957   5.766   4.819
90457SOL    HW173268   3.865   5.789   4.810
90457SOL    HW273269   4.002   5.850   4.825
90458SOL     OW73270  11.915  14.558  12.095
90458SOL    HW173271  11.845  14.600  12.144
90458SOL    HW273272  11.945  14.487  12.151
90459SOL     OW73273   5.340  11.566   9.498
90459SOL    HW173274   5.378  11.502   9.558
90459SOL    HW273275   5.350  11.650   9.543
90460SOL     OW73276   7.615   2.393   3.063
90460SOL    HW173277   7.637   2.300   3.056
90460SOL    HW273278   7.611   2.424   2.973
90461SOL     OW73279  13.885   5.553   6.808
90461SOL    HW173280  13.882   5.523   6.899
90461SOL    HW273281  13.795   5.546   6.776
90462SOL     OW73282   0.376   2.160  11.214
90462SOL    HW173283   0.348   2.148  11.305
90462SOL    HW273284   0.454   2.214  11.220
90463SOL     OW73285  13.849   1.633   8.812
90463SOL    HW173286  13.928   1.632   8.867
90463SOL    HW273287  13.792   1.697   8.854
90464SOL     OW73288  10.656  14.043  11.304
90464SOL    HW173289  10.669  14.030  11.398
90464SOL    HW273290  10.600  13.971  11.277
90465SOL     OW73291   7.675   6.548  10.250
90465SOL    HW173292   7.726   6.534  10.170
90465SOL    HW273293   7.617   6.472  10.255
90466SOL     OW73294  10.106   2.365   9.321
90466SOL    HW173295  10.148   2.414   9.392
90466SOL    HW273296  10.178   2.320   9.278
90467SOL     OW73297   3.043   6.686   9.753
90467SOL    HW173298   3.057   6.613   9.814
90467SOL    HW273299   3.115   6.678   9.690
90468SOL     OW73300   1.192   8.320   8.401
90468SOL    HW173301   1.251   8.360   8.466
90468SOL    HW273302   1.243   8.248   8.364
90469SOL     OW73303   5.976  12.520   0.294
90469SOL    HW173304   6.000  12.427   0.292
90469SOL    HW273305   6.059  12.566   0.291
90470SOL     OW73306  10.723   4.709  10.926
90470SOL    HW173307  10.675   4.765  10.865
90470SOL    HW273308  10.711   4.620  10.892
90471SOL     OW73309   4.751  11.359  10.083
90471SOL    HW173310   4.787  11.401  10.161
90471SOL    HW273311   4.820  11.370  10.017
90472SOL     OW73312   3.058   2.101   2.876
90472SOL    HW173313   3.039   2.175   2.819
90472SOL    HW273314   3.153   2.093   2.875
90473SOL     OW73315  10.968   0.999   2.017
90473SOL    HW173316  10.910   0.958   1.953
90473SOL    HW273317  10.924   1.081   2.041
90474SOL     OW73318  10.431   9.093   3.246
90474SOL    HW173319  10.336   9.098   3.230
90474SOL    HW273320  10.471   9.115   3.162
90475SOL     OW73321  10.445   1.576  11.902
90475SOL    HW173322  10.420   1.620  11.821
90475SOL    HW273323  10.396   1.494  11.901
90476SOL     OW73324   1.572   9.257   6.345
90476SOL    HW173325   1.561   9.162   6.355
90476SOL    HW273326   1.643   9.266   6.282
90477SOL     OW73327   5.674   6.670  14.268
90477SOL    HW173328   5.581   6.696  14.273
90477SOL    HW273329   5.719   6.736  14.320
90478SOL     OW73330  13.855   4.976   9.832
90478SOL    HW173331  13.803   4.992   9.753
90478SOL    HW273332  13.792   4.942   9.896
90479SOL     OW73333  14.436   7.522   7.033
90479SOL    HW173334  14.370   7.590   7.020
90479SOL    HW273335  14.387   7.440   7.022
90480SOL     OW73336  13.662   2.849  14.604
90480SOL    HW173337  13.728   2.827  14.539
90480SOL    HW273338  13.590   2.788  14.587
90481SOL     OW73339  11.910   7.286  14.653
90481SOL    HW173340  11.960   7.227  14.710
90481SOL    HW273341  11.973   7.313  14.585
90482SOL     OW73342   7.062   2.668   5.099
90482SOL    HW173343   7.087   2.586   5.143
90482SOL    HW273344   7.079   2.736   5.163
90483SOL     OW73345   0.567   1.446   6.333
90483SOL    HW173346   0.520   1.456   6.250
90483SOL    HW273347   0.498   1.441   6.399
90484SOL     OW73348  12.933   7.890   4.342
90484SOL    HW173349  12.939   7.980   4.374
90484SOL    HW273350  12.979   7.838   4.408
90485SOL     OW73351  11.606   7.415   4.014
90485SOL    HW173352  11.606   7.448   3.924
90485SOL    HW273353  11.616   7.493   4.068
90486SOL     OW73354  13.655   7.589   2.209
90486SOL    HW173355  13.745   7.607   2.235
90486SOL    HW273356  13.614   7.675   2.204
90487SOL     OW73357   6.437  10.458   0.571
90487SOL    HW173358   6.444  10.464   0.666
90487SOL    HW273359   6.476  10.539   0.539
90488SOL     OW73360   2.218  11.062   5.054
90488SOL    HW173361   2.138  11.049   5.004
90488SOL    HW273362   2.247  11.151   5.031
90489SOL     OW73363   2.436   6.907  10.446
90489SOL    HW173364   2.417   6.985  10.394
90489SOL    HW273365   2.507   6.934  10.505
90490SOL     OW73366   3.383   0.423   8.759
90490SOL    HW173367   3.371   0.337   8.718
90490SOL    HW273368   3.294   0.454   8.776
90491SOL     OW73369   3.059   9.670   6.967
90491SOL    HW173370   2.983   9.640   6.917
90491SOL    HW273371   3.132   9.667   6.905
90492SOL     OW73372   6.012   6.849   1.096
90492SOL    HW173373   6.043   6.771   1.143
90492SOL    HW273374   6.017   6.919   1.161
90493SOL     OW73375   3.254   6.012   0.834
90493SOL    HW173376   3.231   6.101   0.806
90493SOL    HW273377   3.211   6.002   0.919
90494SOL     OW73378  13.371  13.586   8.595
90494SOL    HW173379  13.382  13.675   8.561
90494SOL    HW273380  13.345  13.535   8.518
90495SOL     OW73381   6.069  12.058   2.607
90495SOL    HW173382   6.123  12.042   2.684
90495SOL    HW273383   5.985  12.087   2.641
90496SOL     OW73384  11.632   3.408   1.271
90496SOL    HW173385  11.588   3.454   1.199
90496SOL    HW273386  11.602   3.452   1.350
90497SOL     OW73387   2.158   1.965   1.611
90497SOL    HW173388   2.162   1.876   1.646
90497SOL    HW273389   2.170   2.022   1.687
90498SOL     OW73390  12.842  11.440   5.375
90498SOL    HW173391  12.754  11.407   5.394
90498SOL    HW273392  12.827  11.517   5.321
90499SOL     OW73393   9.382  14.761   8.417
90499SOL    HW173394   9.299  14.732   8.454
90499SOL    HW273395   9.425  14.810   8.487
90500SOL     OW73396   1.732   1.180  11.062
90500SOL    HW173397   1.788   1.136  10.999
90500SOL    HW273398   1.793   1.219  11.125
90501SOL     OW73399   5.140   7.319   7.451
90501SOL    HW173400   5.076   7.354   7.514
90501SOL    HW273401   5.159   7.231   7.484
90502SOL     OW73402   8.442   8.422  11.320
90502SOL    HW173403   8.349   8.422  11.342
90502SOL    HW273404   8.446   8.387  11.231
90503SOL     OW73405   0.812   5.982   1.636
90503SOL    HW173406   0.875   6.054   1.633
90503SOL    HW273407   0.728   6.022   1.613
90504SOL     OW73408  12.302  14.157  13.694
90504SOL    HW173409  12.221  14.172  13.644
90504SOL    HW273410  12.287  14.201  13.777
90505SOL     OW73411  13.746  11.529   0.577
90505SOL    HW173412  13.685  11.566   0.641
90505SOL    HW273413  13.712  11.560   0.492
90506SOL     OW73414  11.297  12.883   8.131
90506SOL    HW173415  11.317  12.888   8.038
90506SOL    HW273416  11.249  12.963   8.150
90507SOL     OW73417  10.693  10.116  13.380
90507SOL    HW173418  10.689  10.070  13.296
90507SOL    HW273419  10.777  10.089  13.417
90508SOL     OW73420  13.129  14.191   2.857
90508SOL    HW173421  13.123  14.219   2.766
90508SOL    HW273422  13.123  14.272   2.908
90509SOL     OW73423  10.799   8.340   9.960
90509SOL    HW173424  10.734   8.326  10.029
90509SOL    HW273425  10.771   8.422   9.918
90510SOL     OW73426   0.215  11.606  10.240
90510SOL    HW173427   0.149  11.607  10.171
90510SOL    HW273428   0.271  11.682  10.221
90511SOL     OW73429   1.275  10.545  13.519
90511SOL    HW173430   1.260  10.536  13.614
90511SOL    HW273431   1.361  10.504  13.505
90512SOL     OW73432   1.420   9.206   3.138
90512SOL    HW173433   1.406   9.299   3.124
90512SOL    HW273434   1.386   9.189   3.226
90513SOL     OW73435   8.721   0.480   4.597
90513SOL    HW173436   8.651   0.420   4.621
90513SOL    HW273437   8.797   0.451   4.647
90514SOL     OW73438   8.513  14.617  11.034
90514SOL    HW173439   8.461  14.537  11.027
90514SOL    HW273440   8.528  14.644  10.944
90515SOL     OW73441   3.658   8.902  12.249
90515SOL    HW173442   3.708   8.980  12.277
90515SOL    HW273443   3.653   8.910  12.154
90516SOL     OW73444   4.979  13.671   4.082
90516SOL    HW173445   4.888  13.659   4.058
90516SOL    HW273446   5.029  13.628   4.013
90517SOL     OW73447   1.884   4.988   1.087
90517SOL    HW173448   1.846   4.906   1.053
90517SOL    HW273449   1.816   5.054   1.072
90518SOL     OW73450   4.818   2.811  13.882
90518SOL    HW173451   4.750   2.779  13.942
90518SOL    HW273452   4.770   2.849  13.809
90519SOL     OW73453   0.390   9.425   7.874
90519SOL    HW173454   0.468   9.369   7.869
90519SOL    HW273455   0.318   9.367   7.849
90520SOL     OW73456   3.583   9.537   3.419
90520SOL    HW173457   3.514   9.601   3.433
90520SOL    HW273458   3.663   9.581   3.449
90521SOL     OW73459   3.203   7.656  10.383
90521SOL    HW173460   3.157   7.587  10.335
90521SOL    HW273461   3.293   7.624  10.392
90522SOL     OW73462   2.717   3.270   9.059
90522SOL    HW173463   2.800   3.316   9.069
90522SOL    HW273464   2.740   3.178   9.056
90523SOL     OW73465   8.687  11.859   3.785
90523SOL    HW173466   8.650  11.852   3.873
90523SOL    HW273467   8.621  11.906   3.734
90524SOL     OW73468  14.056   3.920  13.126
90524SOL    HW173469  13.993   3.973  13.176
90524SOL    HW273470  14.016   3.912  13.039
90525SOL     OW73471   1.556  14.276  10.753
90525SOL    HW173472   1.560  14.371  10.762
90525SOL    HW273473   1.561  14.243  10.843
90526SOL     OW73474   3.625  14.180  14.840
90526SOL    HW173475   3.705  14.128  14.848
90526SOL    HW273476   3.618  14.199  14.747
90527SOL     OW73477  10.405   5.936   1.560
90527SOL    HW173478  10.339   5.874   1.592
90527SOL    HW273479  10.489   5.895   1.579
90528SOL     OW73480   9.691  11.094   0.615
90528SOL    HW173481   9.635  11.062   0.685
90528SOL    HW273482   9.664  11.044   0.538
90529SOL     OW73483   8.195   5.238   1.125
90529SOL    HW173484   8.129   5.189   1.174
90529SOL    HW273485   8.145   5.300   1.072
90530SOL     OW73486   9.505   9.372   3.725
90530SOL    HW173487   9.459   9.454   3.707
90530SOL    HW273488   9.436   9.308   3.741
90531SOL     OW73489  10.635   8.356  10.966
90531SOL    HW173490  10.708   8.296  10.954
90531SOL    HW273491  10.673   8.443  10.955
90532SOL     OW73492   2.365   4.791   2.291
90532SOL    HW173493   2.270   4.799   2.303
90532SOL    HW273494   2.388   4.711   2.339
90533SOL     OW73495   3.718   1.236   5.452
90533SOL    HW173496   3.664   1.245   5.530
90533SOL    HW273497   3.760   1.321   5.441
90534SOL     OW73498  11.262   9.043   6.734
90534SOL    HW173499  11.216   9.121   6.765
90534SOL    HW273500  11.247   8.977   6.802
90535SOL     OW73501   2.464  10.818   8.041
90535SOL    HW173502   2.424  10.771   8.114
90535SOL    HW273503   2.547  10.774   8.027
90536SOL     OW73504   3.988   7.944  13.632
90536SOL    HW173505   4.052   7.908  13.693
90536SOL    HW273506   3.906   7.900  13.654
90537SOL     OW73507   4.813  13.332   1.652
90537SOL    HW173508   4.787  13.279   1.577
90537SOL    HW273509   4.749  13.404   1.654
90538SOL     OW73510   0.697   9.189  10.360
90538SOL    HW173511   0.678   9.217  10.271
90538SOL    HW273512   0.671   9.097  10.362
90539SOL     OW73513   7.010  10.989  14.242
90539SOL    HW173514   6.937  10.990  14.303
90539SOL    HW273515   7.067  11.059  14.272
90540SOL     OW73516  10.820   1.775   0.643
90540SOL    HW173517  10.914   1.773   0.626
90540SOL    HW273518  10.799   1.867   0.655
90541SOL     OW73519   7.780  11.959   0.493
90541SOL    HW173520   7.744  11.963   0.405
90541SOL    HW273521   7.853  12.021   0.492
90542SOL     OW73522   8.910   3.249   2.864
90542SOL    HW173523   8.851   3.207   2.801
90542SOL    HW273524   8.853   3.301   2.920
90543SOL     OW73525  11.361   2.630   8.888
90543SOL    HW173526  11.267   2.636   8.871
90543SOL    HW273527  11.372   2.550   8.939
90544SOL     OW73528  12.004  11.434   6.129
90544SOL    HW173529  11.960  11.481   6.200
90544SOL    HW273530  12.027  11.503   6.066
90545SOL     OW73531  12.798   0.048  12.620
90545SOL    HW173532  12.814   0.127  12.569
90545SOL    HW273533  12.837  14.849  12.568
90546SOL     OW73534   6.009   6.642   2.200
90546SOL    HW173535   5.947   6.570   2.193
90546SOL    HW273536   5.992   6.680   2.286
90547SOL     OW73537   8.100  11.179  10.973
90547SOL    HW173538   8.099  11.085  10.960
90547SOL    HW273539   8.018  11.198  11.020
90548SOL     OW73540   2.420   3.620  10.556
90548SOL    HW173541   2.402   3.622  10.462
90548SOL    HW273542   2.511   3.591  10.563
90549SOL     OW73543   7.157   5.064  10.883
90549SOL    HW173544   7.187   5.014  10.959
90549SOL    HW273545   7.200   5.149  10.891
90550SOL     OW73546   3.097   6.339   2.096
90550SOL    HW173547   3.150   6.315   2.020
90550SOL    HW273548   3.122   6.430   2.115
90551SOL     OW73549   5.832  10.307  12.805
90551SOL    HW173550   5.898  10.374  12.788
90551SOL    HW273551   5.821  10.263  12.720
90552SOL     OW73552   9.663   1.670   2.954
90552SOL    HW173553   9.688   1.583   2.986
90552SOL    HW273554   9.673   1.727   3.030
90553SOL     OW73555  14.103   3.920  14.801
90553SOL    HW173556  14.153   4.000  14.789
90553SOL    HW273557  14.015   3.951  14.825
90554SOL     OW73558  13.442  12.974  14.746
90554SOL    HW173559  13.418  13.027  14.670
90554SOL    HW273560  13.503  12.909  14.712
90555SOL     OW73561  11.273   9.184   2.034
90555SOL    HW173562  11.274   9.096   2.073
90555SOL    HW273563  11.275   9.168   1.940
90556SOL     OW73564   7.699   1.861   3.663
90556SOL    HW173565   7.755   1.921   3.614
90556SOL    HW273566   7.627   1.841   3.603
90557SOL     OW73567   3.954   9.065  10.792
90557SOL    HW173568   3.888   9.003  10.824
90557SOL    HW273569   4.036   9.016  10.795
90558SOL     OW73570  14.258   1.348  10.587
90558SOL    HW173571  14.323   1.328  10.521
90558SOL    HW273572  14.307   1.389  10.658
90559SOL     OW73573   4.966   6.563  10.491
90559SOL    HW173574   4.988   6.656  10.488
90559SOL    HW273575   4.880   6.560  10.533
90560SOL     OW73576  11.412   7.239   4.473
90560SOL    HW173577  11.412   7.335   4.482
90560SOL    HW273578  11.425   7.224   4.379
90561SOL     OW73579   8.941   2.549   0.791
90561SOL    HW173580   9.024   2.580   0.829
90561SOL    HW273581   8.883   2.538   0.867
90562SOL     OW73582   2.658   2.247   9.948
90562SOL    HW173583   2.694   2.173   9.900
90562SOL    HW273584   2.566   2.250   9.922
90563SOL     OW73585  14.776  10.225  13.101
90563SOL    HW173586  14.724  10.300  13.070
90563SOL    HW273587  14.750  10.153  13.044
90564SOL     OW73588   0.682   4.927  14.607
90564SOL    HW173589   0.616   4.949  14.674
90564SOL    HW273590   0.637   4.866  14.549
90565SOL     OW73591  10.178   4.252  12.003
90565SOL    HW173592  10.240   4.190  12.042
90565SOL    HW273593  10.136   4.202  11.933
90566SOL     OW73594   0.768   7.201   0.657
90566SOL    HW173595   0.766   7.233   0.567
90566SOL    HW273596   0.678   7.212   0.688
90567SOL     OW73597   4.395   4.945   2.766
90567SOL    HW173598   4.330   4.919   2.700
90567SOL    HW273599   4.343   4.964   2.844
90568SOL     OW73600   9.821   9.359   5.875
90568SOL    HW173601   9.778   9.374   5.791
90568SOL    HW273602   9.771   9.289   5.916
90569SOL     OW73603   5.832   0.964   1.384
90569SOL    HW173604   5.736   0.964   1.376
90569SOL    HW273605   5.848   0.956   1.478
90570SOL     OW73606   0.235  10.854  13.076
90570SOL    HW173607   0.142  10.862  13.055
90570SOL    HW273608   0.276  10.822  12.996
90571SOL     OW73609   1.807   2.135   5.716
90571SOL    HW173610   1.727   2.179   5.744
90571SOL    HW273611   1.835   2.085   5.792
90572SOL     OW73612   2.812   6.261  14.698
90572SOL    HW173613   2.814   6.166  14.690
90572SOL    HW273614   2.846   6.278  14.786
90573SOL     OW73615   9.878   2.178  13.279
90573SOL    HW173616   9.946   2.207  13.217
90573SOL    HW273617   9.835   2.259  13.307
90574SOL     OW73618   2.176   5.737   2.500
90574SOL    HW173619   2.257   5.686   2.490
90574SOL    HW273620   2.148   5.718   2.589
90575SOL     OW73621  12.774   3.529   0.767
90575SOL    HW173622  12.710   3.600   0.764
90575SOL    HW273623  12.847   3.566   0.818
90576SOL     OW73624  12.215   4.430   2.870
90576SOL    HW173625  12.171   4.381   2.939
90576SOL    HW273626  12.300   4.453   2.907
90577SOL     OW73627   9.034   0.537  12.215
90577SOL    HW173628   9.041   0.582  12.131
90577SOL    HW273629   9.053   0.446  12.194
90578SOL     OW73630  10.628   8.026   0.850
90578SOL    HW173631  10.686   8.006   0.776
90578SOL    HW273632  10.542   8.037   0.810
90579SOL     OW73633   4.984   7.007  10.678
90579SOL    HW173634   5.041   7.083  10.686
90579SOL    HW273635   5.023   6.955  10.608
90580SOL     OW73636  11.936   0.737  10.774
90580SOL    HW173637  12.018   0.781  10.753
90580SOL    HW273638  11.878   0.758  10.700
90581SOL     OW73639   5.007  12.126  14.294
90581SOL    HW173640   5.100  12.108  14.310
90581SOL    HW273641   4.986  12.199  14.353
90582SOL     OW73642  11.467  11.904  12.299
90582SOL    HW173643  11.447  11.995  12.279
90582SOL    HW273644  11.436  11.891  12.389
90583SOL     OW73645   7.946   0.093   9.681
90583SOL    HW173646   8.000   0.123   9.754
90583SOL    HW273647   7.943   0.167   9.621
90584SOL     OW73648  13.105   4.113  11.310
90584SOL    HW173649  13.074   4.092  11.398
90584SOL    HW273650  13.175   4.176  11.324
90585SOL     OW73651  12.295   7.172  11.072
90585SOL    HW173652  12.338   7.086  11.065
90585SOL    HW273653  12.314   7.215  10.989
90586SOL     OW73654   2.060  12.307  11.352
90586SOL    HW173655   2.115  12.312  11.274
90586SOL    HW273656   2.018  12.393  11.356
90587SOL     OW73657   6.724  14.580   8.336
90587SOL    HW173658   6.769  14.611   8.415
90587SOL    HW273659   6.762  14.493   8.320
90588SOL     OW73660   8.699   4.447  13.681
90588SOL    HW173661   8.717   4.526  13.629
90588SOL    HW273662   8.780   4.397  13.677
90589SOL     OW73663   2.551   7.181   7.795
90589SOL    HW173664   2.577   7.271   7.775
90589SOL    HW273665   2.564   7.172   7.889
90590SOL     OW73666   3.916   0.679   0.619
90590SOL    HW173667   3.925   0.711   0.529
90590SOL    HW273668   3.833   0.630   0.618
90591SOL     OW73669   9.739  12.590   7.641
90591SOL    HW173670   9.713  12.680   7.662
90591SOL    HW273671   9.737  12.586   7.545
90592SOL     OW73672  12.300   2.320   7.526
90592SOL    HW173673  12.293   2.235   7.568
90592SOL    HW273674  12.317   2.381   7.598
90593SOL     OW73675  10.742   9.490   5.179
90593SOL    HW173676  10.723   9.498   5.273
90593SOL    HW273677  10.836   9.506   5.172
90594SOL     OW73678  10.499   0.114   4.790
90594SOL    HW173679  10.421   0.061   4.771
90594SOL    HW273680  10.468   0.204   4.786
90595SOL     OW73681   2.032  10.179   0.803
90595SOL    HW173682   2.020  10.110   0.868
90595SOL    HW273683   2.063  10.134   0.725
90596SOL     OW73684   1.941   2.421  13.394
90596SOL    HW173685   1.988   2.342  13.418
90596SOL    HW273686   1.885   2.440  13.469
90597SOL     OW73687   1.889   7.343   1.701
90597SOL    HW173688   1.861   7.434   1.712
90597SOL    HW273689   1.957   7.331   1.767
90598SOL     OW73690   3.936  10.090   6.413
90598SOL    HW173691   4.028  10.110   6.398
90598SOL    HW273692   3.889  10.162   6.369
90599SOL     OW73693   9.299   3.374  14.751
90599SOL    HW173694   9.234   3.306  14.728
90599SOL    HW273695   9.360   3.329  14.809
90600SOL     OW73696   2.914   0.640  12.665
90600SOL    HW173697   2.822   0.662  12.654
90600SOL    HW273698   2.959   0.693  12.599
90601SOL     OW73699   4.994   7.217   6.420
90601SOL    HW173700   4.928   7.273   6.461
90601SOL    HW273701   5.066   7.276   6.399
90602SOL     OW73702  11.885   8.262  14.245
90602SOL    HW173703  11.868   8.269  14.151
90602SOL    HW273704  11.963   8.315  14.260
90603SOL     OW73705   0.535   0.375  13.474
90603SOL    HW173706   0.613   0.338  13.433
90603SOL    HW273707   0.566   0.454  13.518
90604SOL     OW73708   4.439  14.020   4.025
90604SOL    HW173709   4.383  14.027   3.948
90604SOL    HW273710   4.489  13.939   4.011
90605SOL     OW73711   7.762   2.056  11.234
90605SOL    HW173712   7.826   2.004  11.186
90605SOL    HW273713   7.777   2.033  11.326
90606SOL     OW73714   7.856  14.494   5.456
90606SOL    HW173715   7.799  14.417   5.461
90606SOL    HW273716   7.914  14.475   5.383
90607SOL     OW73717   7.123   3.375  13.375
90607SOL    HW173718   7.204   3.405  13.418
90607SOL    HW273719   7.120   3.281  13.394
90608SOL     OW73720   0.727   9.204   9.637
90608SOL    HW173721   0.815   9.165   9.635
90608SOL    HW273722   0.738   9.290   9.596
90609SOL     OW73723  12.379   6.056   1.949
90609SOL    HW173724  12.324   6.133   1.935
90609SOL    HW273725  12.320   5.981   1.933
90610SOL     OW73726  13.817   6.625   0.327
90610SOL    HW173727  13.885   6.588   0.384
90610SOL    HW273728  13.738   6.625   0.381
90611SOL     OW73729   0.800   3.631  12.185
90611SOL    HW173730   0.791   3.679  12.102
90611SOL    HW273731   0.889   3.596  12.182
90612SOL     OW73732   3.455   6.487  12.371
90612SOL    HW173733   3.401   6.470  12.448
90612SOL    HW273734   3.538   6.520  12.407
90613SOL     OW73735   4.504   6.837  10.336
90613SOL    HW173736   4.485   6.747  10.362
90613SOL    HW273737   4.592   6.854  10.370
90614SOL     OW73738   0.608   6.650  10.143
90614SOL    HW173739   0.573   6.668  10.230
90614SOL    HW273740   0.641   6.560  10.148
90615SOL     OW73741   6.776   6.457   1.139
90615SOL    HW173742   6.759   6.433   1.048
90615SOL    HW273743   6.764   6.376   1.188
90616SOL     OW73744   7.951   0.071  14.448
90616SOL    HW173745   7.870   0.087  14.496
90616SOL    HW273746   8.013   0.040  14.515
90617SOL     OW73747   2.466   3.479   5.765
90617SOL    HW173748   2.431   3.390   5.776
90617SOL    HW273749   2.549   3.467   5.719
90618SOL     OW73750   4.263   8.568  10.321
90618SOL    HW173751   4.177   8.561  10.278
90618SOL    HW273752   4.326   8.544  10.253
90619SOL     OW73753   4.838   0.732   7.553
90619SOL    HW173754   4.771   0.800   7.552
90619SOL    HW273755   4.803   0.664   7.611
90620SOL     OW73756   2.920   2.175  12.108
90620SOL    HW173757   2.848   2.201  12.166
90620SOL    HW273758   2.973   2.254  12.099
90621SOL     OW73759   4.395  10.011   4.101
90621SOL    HW173760   4.356  10.019   4.188
90621SOL    HW273761   4.472  10.068   4.104
90622SOL     OW73762   2.713   9.474  10.432
90622SOL    HW173763   2.725   9.442  10.343
90622SOL    HW273764   2.782   9.431  10.482
90623SOL     OW73765  14.016   2.029  10.525
90623SOL    HW173766  14.097   2.079  10.528
90623SOL    HW273767  14.013   1.992  10.437
90624SOL     OW73768   9.016  10.037  11.794
90624SOL    HW173769   9.057  10.000  11.716
90624SOL    HW273770   9.023  10.131  11.783
90625SOL     OW73771   1.314   9.135   8.463
90625SOL    HW173772   1.371   9.208   8.440
90625SOL    HW273773   1.366   9.057   8.443
90626SOL     OW73774   2.453  11.995  13.734
90626SOL    HW173775   2.532  12.028  13.777
90626SOL    HW273776   2.485  11.926  13.675
90627SOL     OW73777   9.679   6.013   3.346
90627SOL    HW173778   9.648   5.935   3.392
90627SOL    HW273779   9.732   6.059   3.411
90628SOL     OW73780  13.167   7.563   3.926
90628SOL    HW173781  13.131   7.625   3.990
90628SOL    HW273782  13.248   7.605   3.896
90629SOL     OW73783   8.094   6.124   0.802
90629SOL    HW173784   8.180   6.155   0.774
90629SOL    HW273785   8.113   6.064   0.874
90630SOL     OW73786   6.776  13.246   1.805
90630SOL    HW173787   6.830  13.306   1.754
90630SOL    HW273788   6.699  13.297   1.829
90631SOL     OW73789  11.824   2.129   9.642
90631SOL    HW173790  11.861   2.211   9.610
90631SOL    HW273791  11.730   2.147   9.648
90632SOL     OW73792  11.895   1.928  13.784
90632SOL    HW173793  11.935   1.963  13.864
90632SOL    HW273794  11.877   1.836  13.805
90633SOL     OW73795   0.080   7.459   1.285
90633SOL    HW173796   0.070   7.554   1.274
90633SOL    HW273797   0.155   7.437   1.230
90634SOL     OW73798   0.475   1.356   9.726
90634SOL    HW173799   0.518   1.334   9.808
90634SOL    HW273800   0.424   1.277   9.704
90635SOL     OW73801   9.906   2.473   1.589
90635SOL    HW173802   9.861   2.400   1.631
90635SOL    HW273803   9.972   2.431   1.533
90636SOL     OW73804   7.368  12.791   4.587
90636SOL    HW173805   7.385  12.877   4.548
90636SOL    HW273806   7.454  12.750   4.595
90637SOL     OW73807   3.035   1.427   5.176
90637SOL    HW173808   3.114   1.411   5.227
90637SOL    HW273809   2.976   1.355   5.201
90638SOL     OW73810  14.001   5.568  14.275
90638SOL    HW173811  14.048   5.578  14.192
90638SOL    HW273812  13.915   5.606  14.257
90639SOL     OW73813  11.894   8.724  13.972
90639SOL    HW173814  11.866   8.793  13.911
90639SOL    HW273815  11.855   8.644  13.937
90640SOL     OW73816   8.361  12.052   5.108
90640SOL    HW173817   8.287  12.108   5.132
90640SOL    HW273818   8.320  11.972   5.075
90641SOL     OW73819   5.921   4.031   6.301
90641SOL    HW173820   5.858   4.092   6.263
90641SOL    HW273821   5.996   4.034   6.241
90642SOL     OW73822   1.891   4.928   0.246
90642SOL    HW173823   1.869   4.883   0.327
90642SOL    HW273824   1.819   4.990   0.232
90643SOL     OW73825   3.530   9.820   1.648
90643SOL    HW173826   3.604   9.830   1.709
90643SOL    HW273827   3.459   9.869   1.689
90644SOL     OW73828   5.842  13.284   7.742
90644SOL    HW173829   5.904  13.317   7.807
90644SOL    HW273830   5.897  13.242   7.675
90645SOL     OW73831  12.218   6.595  13.755
90645SOL    HW173832  12.184   6.632  13.837
90645SOL    HW273833  12.145   6.544  13.720
90646SOL     OW73834   5.053   1.190   5.764
90646SOL    HW173835   5.118   1.223   5.826
90646SOL    HW273836   4.973   1.239   5.785
90647SOL     OW73837   7.244   4.481  14.199
90647SOL    HW173838   7.274   4.468  14.288
90647SOL    HW273839   7.201   4.398  14.175
90648SOL     OW73840   6.639  12.348  14.639
90648SOL    HW173841   6.698  12.349  14.714
90648SOL    HW273842   6.552  12.333  14.677
90649SOL     OW73843   0.442  13.421   1.808
90649SOL    HW173844   0.497  13.444   1.882
90649SOL    HW273845   0.377  13.361   1.845
90650SOL     OW73846   2.676   0.564  10.543
90650SOL    HW173847   2.653   0.599  10.457
90650SOL    HW273848   2.602   0.588  10.599
90651SOL     OW73849   7.004   8.899   0.856
90651SOL    HW173850   7.042   8.928   0.938
90651SOL    HW273851   6.937   8.965   0.836
90652SOL     OW73852   3.559   9.834   7.799
90652SOL    HW173853   3.563   9.843   7.703
90652SOL    HW273854   3.511   9.753   7.813
90653SOL     OW73855   0.875  11.409   6.524
90653SOL    HW173856   0.783  11.424   6.545
90653SOL    HW273857   0.918  11.397   6.608
90654SOL     OW73858   5.262  12.712   3.616
90654SOL    HW173859   5.319  12.748   3.549
90654SOL    HW273860   5.321  12.679   3.683
90655SOL     OW73861   5.889  14.192   2.826
90655SOL    HW173862   5.979  14.208   2.798
90655SOL    HW273863   5.893  14.191   2.921
90656SOL     OW73864   0.039   1.668  14.355
90656SOL    HW173865   0.128   1.662  14.322
90656SOL    HW273866  14.858   1.692  14.279
90657SOL     OW73867  10.106  12.894   8.915
90657SOL    HW173868  10.076  12.954   8.983
90657SOL    HW273869  10.104  12.808   8.956
90658SOL     OW73870  14.204   8.880   4.519
90658SOL    HW173871  14.181   8.806   4.464
90658SOL    HW273872  14.131   8.941   4.510
90659SOL     OW73873   4.148   3.084   0.998
90659SOL    HW173874   4.183   2.995   0.991
90659SOL    HW273875   4.224   3.140   1.011
90660SOL     OW73876   8.693   4.386  11.397
90660SOL    HW173877   8.631   4.452  11.428
90660SOL    HW273878   8.679   4.311  11.456
90661SOL     OW73879  10.241   7.394   3.742
90661SOL    HW173880  10.329   7.433   3.742
90661SOL    HW273881  10.190   7.449   3.801
90662SOL     OW73882  11.238  13.191   2.123
90662SOL    HW173883  11.216  13.099   2.143
90662SOL    HW273884  11.334  13.194   2.125
90663SOL     OW73885   5.923  12.841   8.306
90663SOL    HW173886   5.882  12.927   8.294
90663SOL    HW273887   5.854  12.778   8.285
90664SOL     OW73888   0.754  10.062   4.027
90664SOL    HW173889   0.700   9.985   4.009
90664SOL    HW273890   0.815  10.066   3.953
90665SOL     OW73891   0.656  11.762  14.121
90665SOL    HW173892   0.690  11.741  14.208
90665SOL    HW273893   0.658  11.679  14.074
90666SOL     OW73894   9.391  14.159   8.815
90666SOL    HW173895   9.311  14.195   8.852
90666SOL    HW273896   9.462  14.196   8.868
90667SOL     OW73897   5.689   4.376  11.570
90667SOL    HW173898   5.606   4.328  11.573
90667SOL    HW273899   5.753   4.311  11.544
90668SOL     OW73900   0.020   8.085  12.818
90668SOL    HW173901   0.105   8.118  12.845
90668SOL    HW273902  14.835   8.096  12.895
90669SOL     OW73903   1.390   8.663   2.222
90669SOL    HW173904   1.350   8.628   2.302
90669SOL    HW273905   1.481   8.633   2.225
90670SOL     OW73906   6.399   1.670   4.201
90670SOL    HW173907   6.442   1.756   4.199
90670SOL    HW273908   6.356   1.662   4.116
90671SOL     OW73909  11.382   5.486  11.103
90671SOL    HW173910  11.330   5.453  11.030
90671SOL    HW273911  11.336   5.456  11.181
90672SOL     OW73912  13.675  13.169   5.091
90672SOL    HW173913  13.764  13.175   5.126
90672SOL    HW273914  13.685  13.127   5.006
90673SOL     OW73915   9.689   2.988  11.025
90673SOL    HW173916   9.602   2.947  11.022
90673SOL    HW273917   9.699   3.013  11.117
90674SOL     OW73918   6.372   0.297   2.599
90674SOL    HW173919   6.391   0.356   2.526
90674SOL    HW273920   6.282   0.269   2.585
90675SOL     OW73921   5.902   4.304   1.970
90675SOL    HW173922   5.897   4.224   2.023
90675SOL    HW273923   5.991   4.304   1.935
90676SOL     OW73924  11.262   2.967   6.395
90676SOL    HW173925  11.337   2.990   6.342
90676SOL    HW273926  11.194   2.943   6.332
90677SOL     OW73927   5.846   6.754   6.201
90677SOL    HW173928   5.874   6.666   6.226
90677SOL    HW273929   5.919   6.789   6.150
90678SOL     OW73930   2.404   9.077  13.740
90678SOL    HW173931   2.495   9.054  13.719
90678SOL    HW273932   2.352   9.007  13.701
90679SOL     OW73933   4.213  14.764  14.486
90679SOL    HW173934   4.220  14.706  14.562
90679SOL    HW273935   4.143  14.725  14.433
90680SOL     OW73936  13.688   6.723  12.860
90680SOL    HW173937  13.711   6.816  12.854
90680SOL    HW273938  13.682   6.694  12.769
90681SOL     OW73939  11.135   4.211   4.827
90681SOL    HW173940  11.160   4.119   4.836
90681SOL    HW273941  11.186   4.242   4.751
90682SOL     OW73942  12.865  13.997  14.106
90682SOL    HW173943  12.869  13.953  14.191
90682SOL    HW273944  12.842  14.088  14.126
90683SOL     OW73945   7.121  12.922  14.424
90683SOL    HW173946   7.103  13.009  14.460
90683SOL    HW273947   7.200  12.892  14.470
90684SOL     OW73948   8.762  12.395   9.620
90684SOL    HW173949   8.774  12.364   9.531
90684SOL    HW273950   8.834  12.457   9.634
90685SOL     OW73951  13.249   3.570   0.669
90685SOL    HW173952  13.210   3.524   0.743
90685SOL    HW273953  13.235   3.511   0.595
90686SOL     OW73954  14.311  14.329   4.844
90686SOL    HW173955  14.352  14.413   4.866
90686SOL    HW273956  14.310  14.327   4.749
90687SOL     OW73957   6.443   7.403   4.683
90687SOL    HW173958   6.446   7.484   4.735
90687SOL    HW273959   6.359   7.363   4.705
90688SOL     OW73960  11.293   4.874  13.774
90688SOL    HW173961  11.305   4.791  13.729
90688SOL    HW273962  11.223   4.856  13.837
90689SOL     OW73963  13.143  11.422  13.034
90689SOL    HW173964  13.111  11.366  12.963
90689SOL    HW273965  13.111  11.510  13.011
90690SOL     OW73966   2.044   8.834  12.803
90690SOL    HW173967   2.072   8.744  12.786
90690SOL    HW273968   2.060   8.880  12.721
90691SOL     OW73969   9.476  11.481  14.404
90691SOL    HW173970   9.481  11.473  14.308
90691SOL    HW273971   9.407  11.420  14.429
90692SOL     OW73972   7.576  10.834  10.213
90692SOL    HW173973   7.527  10.911  10.183
90692SOL    HW273974   7.517  10.760  10.195
90693SOL     OW73975   8.315   5.980  13.869
90693SOL    HW173976   8.344   6.019  13.786
90693SOL    HW273977   8.391   5.933  13.901
90694SOL     OW73978   1.514  13.806   9.833
90694SOL    HW173979   1.593  13.844   9.794
90694SOL    HW273980   1.466  13.881   9.869
90695SOL     OW73981   2.341   4.636   8.709
90695SOL    HW173982   2.401   4.643   8.784
90695SOL    HW273983   2.312   4.545   8.711
90696SOL     OW73984  12.324   3.580   3.368
90696SOL    HW173985  12.384   3.650   3.394
90696SOL    HW273986  12.378   3.521   3.316
90697SOL     OW73987   3.859   0.978   0.148
90697SOL    HW173988   3.851   1.069   0.119
90697SOL    HW273989   3.952   0.958   0.140
90698SOL     OW73990   0.010   7.128   1.284
90698SOL    HW173991   0.056   7.065   1.340
90698SOL    HW273992   0.025   7.095   1.195
90699SOL     OW73993   7.966  11.068   9.621
90699SOL    HW173994   7.878  11.106   9.618
90699SOL    HW273995   7.964  10.998   9.556
90700SOL     OW73996  14.520  12.737   8.651
90700SOL    HW173997  14.553  12.789   8.725
90700SOL    HW273998  14.597  12.692   8.617
90701SOL     OW73999   2.737   7.793   7.745
90701SOL    HW174000   2.667   7.748   7.794
90701SOL    HW274001   2.707   7.884   7.738
90702SOL     OW74002   9.601   7.441  10.266
90702SOL    HW174003   9.617   7.450  10.360
90702SOL    HW274004   9.546   7.516  10.244
90703SOL     OW74005   4.373   0.544   7.392
90703SOL    HW174006   4.418   0.461   7.406
90703SOL    HW274007   4.389   0.565   7.300
90704SOL     OW74008   2.655  14.017   2.500
90704SOL    HW174009   2.656  14.085   2.432
90704SOL    HW274010   2.717  14.048   2.566
90705SOL     OW74011  12.716   7.071   9.718
90705SOL    HW174012  12.722   7.162   9.688
90705SOL    HW274013  12.625   7.061   9.745
90706SOL     OW74014   6.721   1.550   0.396
90706SOL    HW174015   6.702   1.601   0.474
90706SOL    HW274016   6.812   1.521   0.408
90707SOL     OW74017   4.099  14.805   0.073
90707SOL    HW174018   4.159  14.778   0.143
90707SOL    HW274019   4.102   0.029   0.075
90708SOL     OW74020   5.714   8.398   5.106
90708SOL    HW174021   5.698   8.388   5.200
90708SOL    HW274022   5.737   8.310   5.076
90709SOL     OW74023   5.351   3.091   2.275
90709SOL    HW174024   5.348   3.109   2.369
90709SOL    HW274025   5.333   3.176   2.234
90710SOL     OW74026   2.556   9.083  12.980
90710SOL    HW174027   2.519   9.032  13.053
90710SOL    HW274028   2.643   9.108  13.011
90711SOL     OW74029   3.283   0.677  12.266
90711SOL    HW174030   3.252   0.591  12.237
90711SOL    HW274031   3.222   0.739  12.225
90712SOL     OW74032   9.263   1.881   2.110
90712SOL    HW174033   9.198   1.848   2.048
90712SOL    HW274034   9.295   1.962   2.071
90713SOL     OW74035   6.006   8.514   8.813
90713SOL    HW174036   5.995   8.606   8.789
90713SOL    HW274037   5.997   8.512   8.908
90714SOL     OW74038   1.637   8.302   3.646
90714SOL    HW174039   1.680   8.264   3.722
90714SOL    HW274040   1.549   8.263   3.646
90715SOL     OW74041  10.335   4.418   9.342
90715SOL    HW174042  10.331   4.478   9.417
90715SOL    HW274043  10.403   4.455   9.286
90716SOL     OW74044   9.863   2.963   4.110
90716SOL    HW174045   9.797   3.032   4.103
90716SOL    HW274046   9.862   2.920   4.024
90717SOL     OW74047   7.763  12.330   2.195
90717SOL    HW174048   7.856  12.344   2.179
90717SOL    HW274049   7.758  12.242   2.234
90718SOL     OW74050  12.465   1.008   9.039
90718SOL    HW174051  12.435   1.014   9.130
90718SOL    HW274052  12.560   1.009   9.045
90719SOL     OW74053   7.753  12.793   3.771
90719SOL    HW174054   7.702  12.713   3.780
90719SOL    HW274055   7.742  12.838   3.854
90720SOL     OW74056   8.991   7.300   9.477
90720SOL    HW174057   9.012   7.353   9.401
90720SOL    HW274058   8.898   7.315   9.492
90721SOL     OW74059   9.972  10.213   0.263
90721SOL    HW174060   9.949  10.196   0.355
90721SOL    HW274061  10.050  10.160   0.248
90722SOL     OW74062   8.884   3.979   9.220
90722SOL    HW174063   8.802   4.007   9.262
90722SOL    HW274064   8.918   4.058   9.179
90723SOL     OW74065  14.336   8.968   9.431
90723SOL    HW174066  14.363   9.042   9.486
90723SOL    HW274067  14.413   8.946   9.380
90724SOL     OW74068   3.438   2.480   9.190
90724SOL    HW174069   3.485   2.409   9.234
90724SOL    HW274070   3.487   2.559   9.215
90725SOL     OW74071   5.981  10.296  13.045
90725SOL    HW174072   5.918  10.313  12.974
90725SOL    HW274073   6.057  10.259  13.000
90726SOL     OW74074  10.558  14.491   3.273
90726SOL    HW174075  10.566  14.586   3.267
90726SOL    HW274076  10.634  14.457   3.227
90727SOL     OW74077   9.831   3.722  11.190
90727SOL    HW174078   9.738   3.699  11.186
90727SOL    HW274079   9.872   3.649  11.236
90728SOL     OW74080   3.480   5.631   9.491
90728SOL    HW174081   3.436   5.678   9.561
90728SOL    HW274082   3.542   5.572   9.535
90729SOL     OW74083   9.826   9.269   4.033
90729SOL    HW174084   9.866   9.346   4.072
90729SOL    HW274085   9.892   9.201   4.041
90730SOL     OW74086   9.241   0.890  11.755
90730SOL    HW174087   9.254   0.818  11.693
90730SOL    HW274088   9.148   0.910  11.750
90731SOL     OW74089   0.065  13.254   6.208
90731SOL    HW174090   0.076  13.202   6.288
90731SOL    HW274091  14.867  13.209   6.160
90732SOL     OW74092   6.192   5.140  10.775
90732SOL    HW174093   6.249   5.065  10.761
90732SOL    HW274094   6.114   5.121  10.724
90733SOL     OW74095   9.136   2.066   0.788
90733SOL    HW174096   9.164   2.157   0.797
90733SOL    HW274097   9.182   2.034   0.710
90734SOL     OW74098   6.817   6.353  11.223
90734SOL    HW174099   6.899   6.399  11.205
90734SOL    HW274100   6.821   6.274  11.170
90735SOL     OW74101   4.757   6.701   4.843
90735SOL    HW174102   4.827   6.660   4.894
90735SOL    HW274103   4.742   6.785   4.886
90736SOL     OW74104   0.073  13.050   9.325
90736SOL    HW174105   0.020  12.996   9.266
90736SOL    HW274106   0.158  13.058   9.281
90737SOL     OW74107  11.931   8.573   3.090
90737SOL    HW174108  12.016   8.598   3.054
90737SOL    HW274109  11.878   8.550   3.014
90738SOL     OW74110  11.977   0.375   4.882
90738SOL    HW174111  12.015   0.437   4.820
90738SOL    HW274112  12.051   0.322   4.912
90739SOL     OW74113   8.916   3.358   6.429
90739SOL    HW174114   8.845   3.312   6.383
90739SOL    HW274115   8.880   3.445   6.448
90740SOL     OW74116   3.101   6.672   4.142
90740SOL    HW174117   3.109   6.736   4.212
90740SOL    HW274118   3.021   6.623   4.163
90741SOL     OW74119  11.079   7.404  12.115
90741SOL    HW174120  11.106   7.378  12.202
90741SOL    HW274121  11.159   7.404  12.063
90742SOL     OW74122   5.191  14.594   9.203
90742SOL    HW174123   5.277  14.634   9.204
90742SOL    HW274124   5.188  14.542   9.283
90743SOL     OW74125  10.084   5.641   3.103
90743SOL    HW174126  10.067   5.551   3.077
90743SOL    HW274127  10.081   5.691   3.022
90744SOL     OW74128   2.546   0.001  14.697
90744SOL    HW174129   2.483   0.027  14.629
90744SOL    HW274130   2.530  14.779  14.710
90745SOL     OW74131   2.124   4.033   2.271
90745SOL    HW174132   2.141   3.990   2.354
90745SOL    HW274133   2.168   3.978   2.206
90746SOL     OW74134  13.279   7.344   9.450
90746SOL    HW174135  13.273   7.268   9.508
90746SOL    HW274136  13.373   7.364   9.446
90747SOL     OW74137  11.754   4.535  14.570
90747SOL    HW174138  11.835   4.582  14.594
90747SOL    HW274139  11.783   4.446  14.551
90748SOL     OW74140   4.354   1.648   4.567
90748SOL    HW174141   4.348   1.559   4.531
90748SOL    HW274142   4.405   1.638   4.647
90749SOL     OW74143   6.003  14.658   5.097
90749SOL    HW174144   6.063  14.672   5.170
90749SOL    HW274145   6.057  14.669   5.019
90750SOL     OW74146  11.435   9.239  11.720
90750SOL    HW174147  11.408   9.318  11.671
90750SOL    HW274148  11.501   9.198  11.664
90751SOL     OW74149   3.135   7.859   2.941
90751SOL    HW174150   3.061   7.800   2.947
90751SOL    HW274151   3.109   7.923   2.874
90752SOL     OW74152  10.598   1.363   1.414
90752SOL    HW174153  10.629   1.431   1.475
90752SOL    HW274154  10.603   1.282   1.464
90753SOL     OW74155  12.807  11.053   5.443
90753SOL    HW174156  12.734  11.084   5.496
90753SOL    HW274157  12.882  11.105   5.472
90754SOL     OW74158   3.667   7.522   3.818
90754SOL    HW174159   3.654   7.592   3.882
90754SOL    HW274160   3.752   7.541   3.779
90755SOL     OW74161  14.104   1.032   5.964
90755SOL    HW174162  14.077   1.018   5.873
90755SOL    HW274163  14.027   1.072   6.005
90756SOL     OW74164   0.699   2.410   4.722
90756SOL    HW174165   0.653   2.431   4.803
90756SOL    HW274166   0.742   2.492   4.697
90757SOL     OW74167   2.538   6.492   2.444
90757SOL    HW174168   2.581   6.532   2.368
90757SOL    HW274169   2.455   6.539   2.452
90758SOL     OW74170   7.815   7.928   3.226
90758SOL    HW174171   7.862   7.874   3.289
90758SOL    HW274172   7.884   7.966   3.172
90759SOL     OW74173   8.232  11.497   6.089
90759SOL    HW174174   8.163  11.532   6.145
90759SOL    HW274175   8.289  11.572   6.072
90760SOL     OW74176   4.528   6.751   6.442
90760SOL    HW174177   4.601   6.761   6.503
90760SOL    HW274178   4.547   6.812   6.371
90761SOL     OW74179   4.632  14.870  10.683
90761SOL    HW174180   4.712   0.034  10.723
90761SOL    HW274181   4.607   0.064  10.618
90762SOL     OW74182  11.565  10.566   3.819
90762SOL    HW174183  11.572  10.635   3.885
90762SOL    HW274184  11.517  10.496   3.862
90763SOL     OW74185  14.848   5.210   7.726
90763SOL    HW174186  14.809   5.295   7.743
90763SOL    HW274187   0.061   5.213   7.771
90764SOL     OW74188   2.372   2.228   9.956
90764SOL    HW174189   2.334   2.300  10.006
90764SOL    HW274190   2.332   2.235   9.869
90765SOL     OW74191   0.287   2.735   0.630
90765SOL    HW174192   0.369   2.688   0.642
90765SOL    HW274193   0.226   2.669   0.597
90766SOL     OW74194   0.627   4.846  13.040
90766SOL    HW174195   0.603   4.774  13.098
90766SOL    HW274196   0.703   4.814  12.992
90767SOL     OW74197   3.546   5.646  14.417
90767SOL    HW174198   3.605   5.705  14.464
90767SOL    HW274199   3.501   5.702  14.353
90768SOL     OW74200   2.169   8.656   2.393
90768SOL    HW174201   2.086   8.619   2.361
90768SOL    HW274202   2.181   8.737   2.342
90769SOL     OW74203  14.832   6.903  13.139
90769SOL    HW174204  14.850   6.813  13.112
90769SOL    HW274205   0.003   6.911  13.225
90770SOL     OW74206  11.815  11.219   1.641
90770SOL    HW174207  11.805  11.312   1.618
90770SOL    HW274208  11.909  11.203   1.636
90771SOL     OW74209  10.216  13.963   9.868
90771SOL    HW174210  10.271  13.959   9.790
90771SOL    HW274211  10.163  13.883   9.864
90772SOL     OW74212  12.653   8.354   9.950
90772SOL    HW174213  12.590   8.422   9.929
90772SOL    HW274214  12.690   8.381  10.034
90773SOL     OW74215   0.700  13.121   0.015
90773SOL    HW174216   0.788  13.122   0.053
90773SOL    HW274217   0.642  13.145   0.087
90774SOL     OW74218   5.207   4.629  12.670
90774SOL    HW174219   5.158   4.638  12.752
90774SOL    HW274220   5.140   4.630  12.602
90775SOL     OW74221  11.994   9.496   4.731
90775SOL    HW174222  11.918   9.479   4.785
90775SOL    HW274223  11.993   9.427   4.665
90776SOL     OW74224   3.556   8.687  14.347
90776SOL    HW174225   3.586   8.760  14.292
90776SOL    HW274226   3.624   8.677  14.413
90777SOL     OW74227  13.659  14.302   4.507
90777SOL    HW174228  13.718  14.319   4.434
90777SOL    HW274229  13.702  14.232   4.557
90778SOL     OW74230   7.416   7.467   1.972
90778SOL    HW174231   7.349   7.526   1.938
90778SOL    HW274232   7.498   7.499   1.935
90779SOL     OW74233  10.005  12.656   9.303
90779SOL    HW174234  10.025  12.729   9.361
90779SOL    HW274235   9.991  12.581   9.362
90780SOL     OW74236   4.225   3.270   4.838
90780SOL    HW174237   4.268   3.240   4.918
90780SOL    HW274238   4.290   3.261   4.769
90781SOL     OW74239  10.628   9.860   9.690
90781SOL    HW174240  10.682   9.886   9.764
90781SOL    HW274241  10.539   9.859   9.725
90782SOL     OW74242  14.270  13.311  13.583
90782SOL    HW174243  14.363  13.294  13.595
90782SOL    HW274244  14.265  13.362  13.502
90783SOL     OW74245  10.543  13.066  10.127
90783SOL    HW174246  10.484  13.095  10.057
90783SOL    HW274247  10.484  13.039  10.198
90784SOL     OW74248  12.685   8.467   3.721
90784SOL    HW174249  12.728   8.540   3.765
90784SOL    HW274250  12.600   8.502   3.694
90785SOL     OW74251  14.179   4.630   8.454
90785SOL    HW174252  14.110   4.564   8.455
90785SOL    HW274253  14.150   4.696   8.517
90786SOL     OW74254  14.646   0.677   2.630
90786SOL    HW174255  14.629   0.748   2.692
90786SOL    HW274256  14.634   0.597   2.681
90787SOL     OW74257   3.440  12.030  10.016
90787SOL    HW174258   3.458  11.990   9.931
90787SOL    HW274259   3.386  11.966  10.062
90788SOL     OW74260   1.255   3.915   5.108
90788SOL    HW174261   1.264   3.852   5.180
90788SOL    HW274262   1.331   3.972   5.117
90789SOL     OW74263   3.586   4.177   9.326
90789SOL    HW174264   3.559   4.116   9.258
90789SOL    HW274265   3.550   4.261   9.298
90790SOL     OW74266   8.270   4.089  10.657
90790SOL    HW174267   8.358   4.095  10.619
90790SOL    HW274268   8.276   4.015  10.717
90791SOL     OW74269   6.238   4.992   1.658
90791SOL    HW174270   6.231   5.084   1.633
90791SOL    HW274271   6.159   4.975   1.710
90792SOL     OW74272   3.359  12.334  11.369
90792SOL    HW174273   3.300  12.326  11.294
90792SOL    HW274274   3.393  12.423  11.364
90793SOL     OW74275   5.933   8.814   6.844
90793SOL    HW174276   6.015   8.766   6.850
90793SOL    HW274277   5.873   8.754   6.800
90794SOL     OW74278   9.341   0.163   1.800
90794SOL    HW174279   9.257   0.182   1.758
90794SOL    HW274280   9.375   0.087   1.752
90795SOL     OW74281   6.425   8.077   6.761
90795SOL    HW174282   6.389   8.105   6.846
90795SOL    HW274283   6.353   8.032   6.718
90796SOL     OW74284   1.521  11.516  12.930
90796SOL    HW174285   1.486  11.496  13.017
90796SOL    HW274286   1.470  11.591  12.899
90797SOL     OW74287   6.455   2.911   8.992
90797SOL    HW174288   6.513   2.976   8.951
90797SOL    HW274289   6.486   2.827   8.960
90798SOL     OW74290  14.030  13.498   1.465
90798SOL    HW174291  14.008  13.409   1.493
90798SOL    HW274292  13.957  13.525   1.409
90799SOL     OW74293  14.357  10.553  10.667
90799SOL    HW174294  14.305  10.472  10.662
90799SOL    HW274295  14.303  10.613  10.718
90800SOL     OW74296   5.451   3.374   0.399
90800SOL    HW174297   5.417   3.288   0.376
90800SOL    HW274298   5.446   3.377   0.495
90801SOL     OW74299   2.730  10.366   4.260
90801SOL    HW174300   2.639  10.381   4.286
90801SOL    HW274301   2.723  10.329   4.172
90802SOL     OW74302  14.830  10.518   0.482
90802SOL    HW174303  14.870  10.586   0.427
90802SOL    HW274304  14.741  10.510   0.449
90803SOL     OW74305  14.170   0.865   2.172
90803SOL    HW174306  14.224   0.911   2.237
90803SOL    HW274307  14.101   0.822   2.224
90804SOL     OW74308   2.742   6.863   8.115
90804SOL    HW174309   2.690   6.865   8.195
90804SOL    HW274310   2.800   6.788   8.126
90805SOL     OW74311   3.103  13.906   6.532
90805SOL    HW174312   3.044  13.861   6.471
90805SOL    HW274313   3.190  13.894   6.494
90806SOL     OW74314   7.008  13.336   4.253
90806SOL    HW174315   6.962  13.254   4.275
90806SOL    HW274316   7.101  13.315   4.264
90807SOL     OW74317   6.572   7.593   2.680
90807SOL    HW174318   6.661   7.595   2.714
90807SOL    HW274319   6.577   7.537   2.602
90808SOL     OW74320   3.161   6.399  14.147
90808SOL    HW174321   3.199   6.407  14.060
90808SOL    HW274322   3.071   6.371  14.131
90809SOL     OW74323   1.558  14.202   7.564
90809SOL    HW174324   1.526  14.178   7.477
90809SOL    HW274325   1.586  14.119   7.602
90810SOL     OW74326   3.582   1.378   8.634
90810SOL    HW174327   3.614   1.369   8.724
90810SOL    HW274328   3.546   1.292   8.613
90811SOL     OW74329   9.955   2.257   7.176
90811SOL    HW174330   9.891   2.324   7.200
90811SOL    HW274331  10.040   2.299   7.191
90812SOL     OW74332  11.253   6.108   6.824
90812SOL    HW174333  11.282   6.021   6.852
90812SOL    HW274334  11.164   6.094   6.793
90813SOL     OW74335   4.613  12.648   7.524
90813SOL    HW174336   4.543  12.712   7.520
90813SOL    HW274337   4.690  12.694   7.492
90814SOL     OW74338  12.752  10.714   2.627
90814SOL    HW174339  12.753  10.656   2.551
90814SOL    HW274340  12.841  10.749   2.632
90815SOL     OW74341   8.429   1.636  10.733
90815SOL    HW174342   8.449   1.563  10.791
90815SOL    HW274343   8.342   1.616  10.698
90816SOL     OW74344   7.519  13.128   7.381
90816SOL    HW174345   7.493  13.124   7.289
90816SOL    HW274346   7.547  13.219   7.394
90817SOL     OW74347   6.510   2.628   7.246
90817SOL    HW174348   6.449   2.700   7.233
90817SOL    HW274349   6.574   2.661   7.309
90818SOL     OW74350   9.315   8.866   2.492
90818SOL    HW174351   9.256   8.869   2.567
90818SOL    HW274352   9.315   8.774   2.465
90819SOL     OW74353  12.238  14.094   5.044
90819SOL    HW174354  12.159  14.058   5.004
90819SOL    HW274355  12.285  14.134   4.971
90820SOL     OW74356   6.255  14.397  12.609
90820SOL    HW174357   6.320  14.467  12.612
90820SOL    HW274358   6.274  14.351  12.527
90821SOL     OW74359  10.954   1.298   9.637
90821SOL    HW174360  10.935   1.219   9.586
90821SOL    HW274361  10.873   1.317   9.684
90822SOL     OW74362   3.949   9.046  14.627
90822SOL    HW174363   4.016   9.065  14.693
90822SOL    HW274364   3.998   9.038  14.545
90823SOL     OW74365  13.214   8.512   2.328
90823SOL    HW174366  13.146   8.577   2.311
90823SOL    HW274367  13.293   8.564   2.347
90824SOL     OW74368  12.658   2.752   8.691
90824SOL    HW174369  12.662   2.834   8.641
90824SOL    HW274370  12.750   2.726   8.700
90825SOL     OW74371  14.361   3.251   9.338
90825SOL    HW174372  14.364   3.314   9.266
90825SOL    HW274373  14.304   3.181   9.306
90826SOL     OW74374   1.831   5.796   2.531
90826SOL    HW174375   1.876   5.712   2.541
90826SOL    HW274376   1.840   5.817   2.438
90827SOL     OW74377   7.587   1.390   9.220
90827SOL    HW174378   7.670   1.375   9.266
90827SOL    HW274379   7.587   1.325   9.149
90828SOL     OW74380  11.644  11.901   1.134
90828SOL    HW174381  11.613  11.811   1.134
90828SOL    HW274382  11.677  11.915   1.223
90829SOL     OW74383  13.837  13.682  14.714
90829SOL    HW174384  13.809  13.606  14.764
90829SOL    HW274385  13.756  13.720  14.681
90830SOL     OW74386   8.023   3.718   9.893
90830SOL    HW174387   7.978   3.676   9.967
90830SOL    HW274388   8.110   3.738   9.926
90831SOL     OW74389   3.864   1.914   5.195
90831SOL    HW174390   3.779   1.927   5.238
90831SOL    HW274391   3.928   1.917   5.266
90832SOL     OW74392   3.411   5.652   4.148
90832SOL    HW174393   3.331   5.645   4.200
90832SOL    HW274394   3.482   5.650   4.212
90833SOL     OW74395   0.882  12.411   2.519
90833SOL    HW174396   0.894  12.373   2.432
90833SOL    HW274397   0.948  12.368   2.573
90834SOL     OW74398  14.710   2.623   8.517
90834SOL    HW174399  14.626   2.668   8.507
90834SOL    HW274400  14.689   2.543   8.564
90835SOL     OW74401  12.001   8.060  13.916
90835SOL    HW174402  12.045   8.046  14.000
90835SOL    HW274403  11.912   8.029  13.930
90836SOL     OW74404   3.247   5.969   4.382
90836SOL    HW174405   3.166   6.020   4.387
90836SOL    HW274406   3.317   6.034   4.378
90837SOL     OW74407   8.079  12.070  10.664
90837SOL    HW174408   8.052  12.029  10.581
90837SOL    HW274409   8.004  12.123  10.690
90838SOL     OW74410   8.315   6.295   0.484
90838SOL    HW174411   8.391   6.347   0.457
90838SOL    HW274412   8.242   6.333   0.436
90839SOL     OW74413   6.282   2.338   0.315
90839SOL    HW174414   6.227   2.343   0.394
90839SOL    HW274415   6.219   2.329   0.244
90840SOL     OW74416   4.481   6.979  13.908
90840SOL    HW174417   4.406   6.937  13.866
90840SOL    HW274418   4.483   7.068  13.872
90841SOL     OW74419   7.810  10.570  13.822
90841SOL    HW174420   7.834  10.662  13.816
90841SOL    HW274421   7.730  10.562  13.769
90842SOL     OW74422   4.551   8.274   5.968
90842SOL    HW174423   4.625   8.326   5.937
90842SOL    HW274424   4.588   8.187   5.983
90843SOL     OW74425  10.233   9.110   5.091
90843SOL    HW174426  10.184   9.028   5.092
90843SOL    HW274427  10.183   9.167   5.032
90844SOL     OW74428  13.973   9.378   9.772
90844SOL    HW174429  13.931   9.458   9.741
90844SOL    HW274430  13.900   9.320   9.795
90845SOL     OW74431   7.846   4.134   2.662
90845SOL    HW174432   7.870   4.226   2.650
90845SOL    HW274433   7.768   4.136   2.717
90846SOL     OW74434   4.740   5.269   5.910
90846SOL    HW174435   4.762   5.340   5.970
90846SOL    HW274436   4.710   5.313   5.830
90847SOL     OW74437  12.032   9.760   8.079
90847SOL    HW174438  12.072   9.837   8.038
90847SOL    HW274439  12.098   9.729   8.140
90848SOL     OW74440  13.792  14.155   9.392
90848SOL    HW174441  13.788  14.066   9.428
90848SOL    HW274442  13.720  14.160   9.330
90849SOL     OW74443  14.236   5.638   0.155
90849SOL    HW174444  14.322   5.654   0.116
90849SOL    HW274445  14.199   5.568   0.102
90850SOL     OW74446   3.264  11.703  12.061
90850SOL    HW174447   3.174  11.728  12.082
90850SOL    HW274448   3.279  11.736  11.973
90851SOL     OW74449   5.648   0.707   7.849
90851SOL    HW174450   5.659   0.612   7.857
90851SOL    HW274451   5.704   0.743   7.918
90852SOL     OW74452   0.764   2.432  13.171
90852SOL    HW174453   0.727   2.502  13.117
90852SOL    HW274454   0.857   2.453  13.176
90853SOL     OW74455   9.883   9.411   6.426
90853SOL    HW174456   9.800   9.394   6.381
90853SOL    HW274457   9.938   9.335   6.406
90854SOL     OW74458   6.683   3.633   0.551
90854SOL    HW174459   6.732   3.551   0.543
90854SOL    HW274460   6.591   3.606   0.540
90855SOL     OW74461  14.658  14.235  14.181
90855SOL    HW174462  14.717  14.244  14.256
90855SOL    HW274463  14.593  14.303  14.194
90856SOL     OW74464   5.882   1.271   7.114
90856SOL    HW174465   5.951   1.338   7.123
90856SOL    HW274466   5.847   1.262   7.202
90857SOL     OW74467   3.661   8.510   0.730
90857SOL    HW174468   3.673   8.415   0.728
90857SOL    HW274469   3.583   8.523   0.784
90858SOL     OW74470   4.342   1.847   6.006
90858SOL    HW174471   4.348   1.786   6.079
90858SOL    HW274472   4.378   1.799   5.931
90859SOL     OW74473   1.683   5.433  10.854
90859SOL    HW174474   1.745   5.385  10.799
90859SOL    HW274475   1.657   5.508  10.800
90860SOL     OW74476   7.626   5.639   9.919
90860SOL    HW174477   7.682   5.636   9.841
90860SOL    HW274478   7.541   5.606   9.888
90861SOL     OW74479   0.161   9.865   2.114
90861SOL    HW174480   0.189   9.924   2.044
90861SOL    HW274481   0.231   9.800   2.118
90862SOL     OW74482   1.078   9.753   8.925
90862SOL    HW174483   1.172   9.742   8.938
90862SOL    HW274484   1.070   9.806   8.846
90863SOL     OW74485  11.729   9.861  13.231
90863SOL    HW174486  11.641   9.834  13.204
90863SOL    HW274487  11.737   9.951  13.200
90864SOL     OW74488   3.408   2.320   4.411
90864SOL    HW174489   3.503   2.319   4.400
90864SOL    HW274490   3.375   2.374   4.339
90865SOL     OW74491  11.436   1.647   3.651
90865SOL    HW174492  11.521   1.655   3.695
90865SOL    HW274493  11.402   1.563   3.682
90866SOL     OW74494   8.873   3.829  14.503
90866SOL    HW174495   8.858   3.736  14.520
90866SOL    HW274496   8.886   3.867  14.590
90867SOL     OW74497   4.078   4.474   5.200
90867SOL    HW174498   4.126   4.556   5.189
90867SOL    HW274499   3.990   4.502   5.225
90868SOL     OW74500  13.571   8.210   5.998
90868SOL    HW174501  13.535   8.296   6.021
90868SOL    HW274502  13.524   8.184   5.920
90869SOL     OW74503   8.786   7.453  11.340
90869SOL    HW174504   8.873   7.445  11.379
90869SOL    HW274505   8.758   7.541  11.362
90870SOL     OW74506   9.596   9.234   7.368
90870SOL    HW174507   9.653   9.164   7.336
90870SOL    HW274508   9.527   9.239   7.302
90871SOL     OW74509  14.560  14.602  10.078
90871SOL    HW174510  14.640  14.568  10.117
90871SOL    HW274511  14.520  14.656  10.146
90872SOL     OW74512   1.218   2.045  14.541
90872SOL    HW174513   1.285   2.100  14.501
90872SOL    HW274514   1.240   1.956  14.513
90873SOL     OW74515   9.398   4.568   0.397
90873SOL    HW174516   9.468   4.633   0.398
90873SOL    HW274517   9.366   4.567   0.307
90874SOL     OW74518  12.672   2.731  13.543
90874SOL    HW174519  12.583   2.716  13.510
90874SOL    HW274520  12.661   2.788  13.619
90875SOL     OW74521  13.271   4.101  13.852
90875SOL    HW174522  13.240   4.166  13.916
90875SOL    HW274523  13.325   4.041  13.904
90876SOL     OW74524   9.362   7.938  12.127
90876SOL    HW174525   9.300   7.989  12.074
90876SOL    HW274526   9.335   7.847  12.113
90877SOL     OW74527   8.474  12.902  12.985
90877SOL    HW174528   8.519  12.820  12.965
90877SOL    HW274529   8.506  12.928  13.071
90878SOL     OW74530  10.961  10.785   3.744
90878SOL    HW174531  10.962  10.820   3.833
90878SOL    HW274532  10.963  10.863   3.688
90879SOL     OW74533   2.685  11.684   8.760
90879SOL    HW174534   2.592  11.674   8.782
90879SOL    HW274535   2.730  11.619   8.813
90880SOL     OW74536   8.850   9.132   0.227
90880SOL    HW174537   8.834   9.163   0.138
90880SOL    HW274538   8.859   9.037   0.218
90881SOL     OW74539   5.819   3.513   4.880
90881SOL    HW174540   5.747   3.555   4.926
90881SOL    HW274541   5.892   3.575   4.888
90882SOL     OW74542   4.827   4.275   9.946
90882SOL    HW174543   4.866   4.336  10.009
90882SOL    HW274544   4.862   4.303   9.862
90883SOL     OW74545   1.053   8.601   0.831
90883SOL    HW174546   1.013   8.609   0.917
90883SOL    HW274547   1.146   8.617   0.846
90884SOL     OW74548   9.381   2.770   6.266
90884SOL    HW174549   9.437   2.847   6.263
90884SOL    HW274550   9.325   2.783   6.342
90885SOL     OW74551   0.964  11.372   6.149
90885SOL    HW174552   0.882  11.357   6.101
90885SOL    HW274553   0.976  11.293   6.201
90886SOL     OW74554  12.722   9.532   2.808
90886SOL    HW174555  12.787   9.463   2.812
90886SOL    HW274556  12.724   9.573   2.895
90887SOL     OW74557  10.626   2.067   1.543
90887SOL    HW174558  10.591   2.118   1.617
90887SOL    HW274559  10.591   1.979   1.556
90888SOL     OW74560   1.013  10.516  10.687
90888SOL    HW174561   0.970  10.540  10.605
90888SOL    HW274562   1.104  10.499  10.662
90889SOL     OW74563   4.392   8.448  11.296
90889SOL    HW174564   4.432   8.505  11.362
90889SOL    HW274565   4.463   8.429  11.235
90890SOL     OW74566   2.729  14.356   3.233
90890SOL    HW174567   2.820  14.328   3.245
90890SOL    HW274568   2.679  14.300   3.293
90891SOL     OW74569   8.243   4.749   6.299
90891SOL    HW174570   8.309   4.760   6.231
90891SOL    HW274571   8.163   4.727   6.251
90892SOL     OW74572  10.258   4.505  14.774
90892SOL    HW174573  10.230   4.419  14.742
90892SOL    HW274574  10.288   4.490  14.863
90893SOL     OW74575   2.292   7.845   1.565
90893SOL    HW174576   2.300   7.800   1.481
90893SOL    HW274577   2.253   7.930   1.543
90894SOL     OW74578   9.199   3.551   4.406
90894SOL    HW174579   9.152   3.621   4.361
90894SOL    HW274580   9.146   3.533   4.484
90895SOL     OW74581   4.046  10.977   9.453
90895SOL    HW174582   4.083  11.021   9.376
90895SOL    HW274583   3.965  11.024   9.471
90896SOL     OW74584   8.047  11.452   6.695
90896SOL    HW174585   8.070  11.536   6.653
90896SOL    HW274586   7.998  11.477   6.773
90897SOL     OW74587   9.200  14.060   4.782
90897SOL    HW174588   9.275  14.083   4.726
90897SOL    HW274589   9.237  14.056   4.870
90898SOL     OW74590   3.113  13.621   7.907
90898SOL    HW174591   3.048  13.677   7.864
90898SOL    HW274592   3.181  13.681   7.938
90899SOL     OW74593   9.790   9.685   7.123
90899SOL    HW174594   9.826   9.773   7.110
90899SOL    HW274595   9.829   9.655   7.205
90900SOL     OW74596   1.959   2.584  11.990
90900SOL    HW174597   1.933   2.553  12.076
90900SOL    HW274598   2.038   2.534  11.969
90901SOL     OW74599  14.437   3.529   0.657
90901SOL    HW174600  14.418   3.578   0.577
90901SOL    HW274601  14.371   3.560   0.720
90902SOL     OW74602   9.871   0.340  10.022
90902SOL    HW174603   9.918   0.286   9.958
90902SOL    HW274604   9.805   0.386   9.969
90903SOL     OW74605   6.083  10.800  13.913
90903SOL    HW174606   6.108  10.710  13.894
90903SOL    HW274607   6.018  10.821  13.846
90904SOL     OW74608   7.601  14.429   2.739
90904SOL    HW174609   7.571  14.339   2.727
90904SOL    HW274610   7.672  14.439   2.676
90905SOL     OW74611   9.807  11.951   2.265
90905SOL    HW174612   9.873  12.007   2.224
90905SOL    HW274613   9.748  12.012   2.310
90906SOL     OW74614   8.734  14.202  11.503
90906SOL    HW174615   8.789  14.242  11.570
90906SOL    HW274616   8.688  14.132  11.548
90907SOL     OW74617  10.845   8.741   1.673
90907SOL    HW174618  10.928   8.774   1.639
90907SOL    HW274619  10.778   8.791   1.624
90908SOL     OW74620   6.902  12.332   7.326
90908SOL    HW174621   6.925  12.241   7.306
90908SOL    HW274622   6.984  12.380   7.317
90909SOL     OW74623   7.390   1.613   8.963
90909SOL    HW174624   7.479   1.578   8.957
90909SOL    HW274625   7.391   1.690   8.906
90910SOL     OW74626  10.040   4.470   5.978
90910SOL    HW174627  10.075   4.405   6.039
90910SOL    HW274628  10.034   4.551   6.029
90911SOL     OW74629   5.769   6.165   0.045
90911SOL    HW174630   5.694   6.140   0.099
90911SOL    HW274631   5.730   6.187  14.831
90912SOL     OW74632   8.048   8.564   2.130
90912SOL    HW174633   8.118   8.589   2.191
90912SOL    HW274634   8.055   8.469   2.123
90913SOL     OW74635   1.065   7.894   7.465
90913SOL    HW174636   1.149   7.902   7.421
90913SOL    HW274637   1.029   7.983   7.464
90914SOL     OW74638  11.231   9.796   7.016
90914SOL    HW174639  11.236   9.715   6.966
90914SOL    HW274640  11.170   9.776   7.087
90915SOL     OW74641   2.489   7.878  10.378
90915SOL    HW174642   2.523   7.821  10.447
90915SOL    HW274643   2.557   7.879  10.311
90916SOL     OW74644  13.051   3.265   2.406
90916SOL    HW174645  13.054   3.171   2.390
90916SOL    HW274646  13.123   3.282   2.467
90917SOL     OW74647   9.073   6.470  12.884
90917SOL    HW174648   9.156   6.500  12.847
90917SOL    HW274649   9.028   6.425  12.812
90918SOL     OW74650  14.102   4.647   2.585
90918SOL    HW174651  14.017   4.687   2.604
90918SOL    HW274652  14.109   4.576   2.648
90919SOL     OW74653   5.347   4.726   2.613
90919SOL    HW174654   5.281   4.664   2.579
90919SOL    HW274655   5.361   4.698   2.704
90920SOL     OW74656  14.011   3.201   7.341
90920SOL    HW174657  14.008   3.224   7.434
90920SOL    HW274658  14.082   3.137   7.335
90921SOL     OW74659   2.452  10.552   1.818
90921SOL    HW174660   2.468  10.490   1.889
90921SOL    HW274661   2.375  10.517   1.773
90922SOL     OW74662   5.371   5.288  13.993
90922SOL    HW174663   5.441   5.232  13.961
90922SOL    HW274664   5.406   5.377  13.984
90923SOL     OW74665  13.360   1.377   2.438
90923SOL    HW174666  13.367   1.328   2.520
90923SOL    HW274667  13.401   1.321   2.372
90924SOL     OW74668   9.287   5.292   7.175
90924SOL    HW174669   9.381   5.306   7.186
90924SOL    HW274670   9.265   5.343   7.097
90925SOL     OW74671   4.651   5.711   0.535
90925SOL    HW174672   4.633   5.793   0.489
90925SOL    HW274673   4.639   5.644   0.468
90926SOL     OW74674   4.138  11.673   1.214
90926SOL    HW174675   4.171  11.744   1.269
90926SOL    HW274676   4.093  11.717   1.142
90927SOL     OW74677   0.966   3.886  10.721
90927SOL    HW174678   0.959   3.799  10.682
90927SOL    HW274679   0.875   3.913  10.736
90928SOL     OW74680   8.898   4.625  14.690
90928SOL    HW174681   8.919   4.702  14.744
90928SOL    HW274682   8.956   4.556  14.723
90929SOL     OW74683   4.729   4.382   3.407
90929SOL    HW174684   4.659   4.367   3.342
90929SOL    HW274685   4.689   4.358   3.490
90930SOL     OW74686   7.686   2.941  13.645
90930SOL    HW174687   7.718   3.015  13.696
90930SOL    HW274688   7.591   2.942  13.659
90931SOL     OW74689  11.187   6.466  10.966
90931SOL    HW174690  11.178   6.465  10.871
90931SOL    HW274691  11.194   6.374  10.991
90932SOL     OW74692   6.339   5.624   0.246
90932SOL    HW174693   6.277   5.688   0.282
90932SOL    HW274694   6.372   5.577   0.322
90933SOL     OW74695   4.905   2.239  14.558
90933SOL    HW174696   4.874   2.328  14.541
90933SOL    HW274697   4.828   2.192  14.589
90934SOL     OW74698   4.694  10.593   3.549
90934SOL    HW174699   4.606  10.561   3.527
90934SOL    HW274700   4.684  10.635   3.634
90935SOL     OW74701   6.717   1.937   5.481
90935SOL    HW174702   6.803   1.979   5.488
90935SOL    HW274703   6.661   2.004   5.441
90936SOL     OW74704   7.886  13.940   0.536
90936SOL    HW174705   7.971  13.897   0.543
90936SOL    HW274706   7.849  13.934   0.624
90937SOL     OW74707  12.083   9.891   2.242
90937SOL    HW174708  12.108   9.981   2.264
90937SOL    HW274709  12.079   9.891   2.147
90938SOL     OW74710   2.087   4.228  11.171
90938SOL    HW174711   2.026   4.302  11.166
90938SOL    HW274712   2.035   4.153  11.143
90939SOL     OW74713   9.922   7.597  10.020
90939SOL    HW174714   9.941   7.565  10.108
90939SOL    HW274715   9.858   7.667  10.033
90940SOL     OW74716  10.841   4.859  13.753
90940SOL    HW174717  10.857   4.797  13.682
90940SOL    HW274718  10.847   4.945  13.711
90941SOL     OW74719   1.563   7.918  11.318
90941SOL    HW174720   1.545   8.012  11.327
90941SOL    HW274721   1.614   7.896  11.396
90942SOL     OW74722   2.388  12.790  12.626
90942SOL    HW174723   2.440  12.722  12.669
90942SOL    HW274724   2.452  12.849  12.587
90943SOL     OW74725   1.751  10.607   4.661
90943SOL    HW174726   1.815  10.659   4.613
90943SOL    HW274727   1.694  10.673   4.702
90944SOL     OW74728   1.965   6.145   7.200
90944SOL    HW174729   1.875   6.121   7.179
90944SOL    HW274730   2.011   6.141   7.116
90945SOL     OW74731   5.937  10.180  14.460
90945SOL    HW174732   6.020  10.178  14.412
90945SOL    HW274733   5.908  10.271  14.455
90946SOL     OW74734   4.014   5.156   9.085
90946SOL    HW174735   4.017   5.251   9.089
90946SOL    HW274736   4.102   5.128   9.113
90947SOL     OW74737   1.225  12.871   6.064
90947SOL    HW174738   1.252  12.867   5.972
90947SOL    HW274739   1.143  12.920   6.063
90948SOL     OW74740   5.744   1.341  12.905
90948SOL    HW174741   5.672   1.301  12.953
90948SOL    HW274742   5.747   1.431  12.936
90949SOL     OW74743  11.002   7.570  13.575
90949SOL    HW174744  11.000   7.535  13.664
90949SOL    HW274745  11.095   7.584  13.556
90950SOL     OW74746   2.083   0.125   8.958
90950SOL    HW174747   2.108   0.052   9.015
90950SOL    HW274748   2.125   0.201   8.998
90951SOL     OW74749   4.500   2.905   7.573
90951SOL    HW174750   4.438   2.968   7.537
90951SOL    HW274751   4.448   2.828   7.592
90952SOL     OW74752  10.386  13.300  10.502
90952SOL    HW174753  10.408  13.334  10.415
90952SOL    HW274754  10.293  13.320  10.513
90953SOL     OW74755   7.966   3.719   6.469
90953SOL    HW174756   7.986   3.665   6.546
90953SOL    HW274757   7.871   3.729   6.471
90954SOL     OW74758  13.553   9.226   8.845
90954SOL    HW174759  13.464   9.193   8.832
90954SOL    HW274760  13.592   9.165   8.908
90955SOL     OW74761   9.447   8.616  10.178
90955SOL    HW174762   9.403   8.656  10.252
90955SOL    HW274763   9.389   8.634  10.103
90956SOL     OW74764   3.975   5.822  12.268
90956SOL    HW174765   4.067   5.804  12.250
90956SOL    HW274766   3.957   5.904  12.223
90957SOL     OW74767  13.453  10.452  10.580
90957SOL    HW174768  13.532  10.445  10.525
90957SOL    HW274769  13.386  10.487  10.521
90958SOL     OW74770  10.751  13.230   6.107
90958SOL    HW174771  10.736  13.165   6.039
90958SOL    HW274772  10.739  13.182   6.189
90959SOL     OW74773   6.797   6.392  10.500
90959SOL    HW174774   6.833   6.304  10.513
90959SOL    HW274775   6.725   6.380  10.439
90960SOL     OW74776   1.897  14.181   1.900
90960SOL    HW174777   1.813  14.199   1.858
90960SOL    HW274778   1.908  14.086   1.893
90961SOL     OW74779  13.064   2.038  11.070
90961SOL    HW174780  13.056   2.118  11.020
90961SOL    HW274781  12.980   2.029  11.115
90962SOL     OW74782   8.324  13.733  13.049
90962SOL    HW174783   8.274  13.731  13.130
90962SOL    HW274784   8.407  13.774  13.072
90963SOL     OW74785   0.408   5.504   4.768
90963SOL    HW174786   0.410   5.492   4.673
90963SOL    HW274787   0.318   5.481   4.793
90964SOL     OW74788   8.725   0.026  12.084
90964SOL    HW174789   8.800   0.082  12.108
90964SOL    HW274790   8.653   0.059  12.137
90965SOL     OW74791   4.535   3.132   7.158
90965SOL    HW174792   4.560   3.212   7.204
90965SOL    HW274793   4.439   3.133   7.159
90966SOL     OW74794   1.583   7.265   6.628
90966SOL    HW174795   1.655   7.207   6.602
90966SOL    HW274796   1.545   7.224   6.706
90967SOL     OW74797  13.956   2.389   8.285
90967SOL    HW174798  13.927   2.317   8.341
90967SOL    HW274799  14.030   2.353   8.236
90968SOL     OW74800  13.269   6.866  11.568
90968SOL    HW174801  13.329   6.932  11.532
90968SOL    HW274802  13.301   6.783  11.533
90969SOL     OW74803  11.981   0.487   9.765
90969SOL    HW174804  11.982   0.526   9.677
90969SOL    HW274805  11.895   0.510   9.800
90970SOL     OW74806   6.811  12.749   4.401
90970SOL    HW174807   6.815  12.685   4.330
90970SOL    HW274808   6.847  12.703   4.476
90971SOL     OW74809   7.784   2.551   0.987
90971SOL    HW174810   7.871   2.516   1.003
90971SOL    HW274811   7.730   2.474   0.967
90972SOL     OW74812   3.817   9.943  13.464
90972SOL    HW174813   3.751   9.996  13.419
90972SOL    HW274814   3.862  10.006  13.521
90973SOL     OW74815   4.134  10.199   6.036
90973SOL    HW174816   4.180  10.115   6.038
90973SOL    HW274817   4.183  10.251   5.972
90974SOL     OW74818   1.528  10.828   2.578
90974SOL    HW174819   1.462  10.867   2.636
90974SOL    HW274820   1.509  10.734   2.579
90975SOL     OW74821   1.592   5.488   7.769
90975SOL    HW174822   1.612   5.575   7.736
90975SOL    HW274823   1.674   5.458   7.810
90976SOL     OW74824   1.747   7.479   8.045
90976SOL    HW174825   1.676   7.462   7.983
90976SOL    HW274826   1.819   7.511   7.990
90977SOL     OW74827  11.230  11.711  14.077
90977SOL    HW174828  11.165  11.725  14.008
90977SOL    HW274829  11.272  11.627  14.054
90978SOL     OW74830   7.383   3.810   8.770
90978SOL    HW174831   7.358   3.718   8.761
90978SOL    HW274832   7.347   3.852   8.692
90979SOL     OW74833  10.313   7.577  13.679
90979SOL    HW174834  10.309   7.507  13.744
90979SOL    HW274835  10.277   7.538  13.599
90980SOL     OW74836  12.398   2.713   4.602
90980SOL    HW174837  12.346   2.782   4.644
90980SOL    HW274838  12.380   2.635   4.654
90981SOL     OW74839  13.498  12.745  14.478
90981SOL    HW174840  13.582  12.779  14.509
90981SOL    HW274841  13.517  12.653  14.456
90982SOL     OW74842   8.421   2.203   4.610
90982SOL    HW174843   8.416   2.275   4.673
90982SOL    HW274844   8.515   2.194   4.592
90983SOL     OW74845  10.384   9.388   9.987
90983SOL    HW174846  10.375   9.452  10.058
90983SOL    HW274847  10.309   9.405   9.929
90984SOL     OW74848   0.561   7.693  13.046
90984SOL    HW174849   0.565   7.786  13.025
90984SOL    HW274850   0.653   7.664  13.043
90985SOL     OW74851   4.203   8.061  11.552
90985SOL    HW174852   4.160   7.981  11.582
90985SOL    HW274853   4.290   8.058  11.592
90986SOL     OW74854   5.078   8.977   5.782
90986SOL    HW174855   5.038   9.047   5.730
90986SOL    HW274856   5.007   8.914   5.794
90987SOL     OW74857  12.415   8.825   7.236
90987SOL    HW174858  12.493   8.804   7.185
90987SOL    HW274859  12.346   8.771   7.197
90988SOL     OW74860   0.333   9.731   7.433
90988SOL    HW174861   0.400   9.776   7.382
90988SOL    HW274862   0.316   9.789   7.507
90989SOL     OW74863   6.479  11.300  14.009
90989SOL    HW174864   6.501  11.279  13.918
90989SOL    HW274865   6.385  11.319  14.006
90990SOL     OW74866  10.445  14.579   9.732
90990SOL    HW174867  10.492  14.662   9.730
90990SOL    HW274868  10.388  14.582   9.655
90991SOL     OW74869  12.321   4.623   4.944
90991SOL    HW174870  12.326   4.601   4.851
90991SOL    HW274871  12.411   4.642   4.969
90992SOL     OW74872  12.250  14.727   6.238
90992SOL    HW174873  12.190  14.696   6.306
90992SOL    HW274874  12.220  14.815   6.218
90993SOL     OW74875   8.322   0.111   2.143
90993SOL    HW174876   8.299   0.083   2.232
90993SOL    HW274877   8.248   0.165   2.115
90994SOL     OW74878  14.484   3.332   1.242
90994SOL    HW174879  14.571   3.293   1.246
90994SOL    HW274880  14.454   3.335   1.333
90995SOL     OW74881   6.375  10.411   8.772
90995SOL    HW174882   6.330  10.470   8.832
90995SOL    HW274883   6.448  10.463   8.738
90996SOL     OW74884  13.806  11.547   6.268
90996SOL    HW174885  13.790  11.622   6.325
90996SOL    HW274886  13.864  11.490   6.318
90997SOL     OW74887   3.794   8.113   4.505
90997SOL    HW174888   3.806   8.022   4.476
90997SOL    HW274889   3.730   8.107   4.576
90998SOL     OW74890  11.865  10.362   2.077
90998SOL    HW174891  11.880  10.315   2.159
90998SOL    HW274892  11.884  10.453   2.097
90999SOL     OW74893   1.446  13.593   5.213
90999SOL    HW174894   1.401  13.571   5.294
90999SOL    HW274895   1.397  13.547   5.145
91000SOL     OW74896   6.827   8.748   3.567
91000SOL    HW174897   6.883   8.777   3.495
91000SOL    HW274898   6.744   8.795   3.553
91001SOL     OW74899  13.051   2.091  14.186
91001SOL    HW174900  12.999   2.138  14.121
91001SOL    HW274901  13.076   2.158  14.250
91002SOL     OW74902   0.700   8.790   7.490
91002SOL    HW174903   0.615   8.752   7.469
91002SOL    HW274904   0.708   8.777   7.585
91003SOL     OW74905   0.858  11.052  13.764
91003SOL    HW174906   0.775  11.061  13.717
91003SOL    HW274907   0.906  11.132  13.744
91004SOL     OW74908   1.407   0.015  11.245
91004SOL    HW174909   1.477   0.024  11.180
91004SOL    HW274910   1.329  14.867  11.193
91005SOL     OW74911  10.823  12.930   8.890
91005SOL    HW174912  10.737  12.935   8.848
91005SOL    HW274913  10.811  12.869   8.962
91006SOL     OW74914   4.575  10.799   7.920
91006SOL    HW174915   4.488  10.806   7.879
91006SOL    HW274916   4.598  10.889   7.942
91007SOL     OW74917  13.074   3.581   3.873
91007SOL    HW174918  13.094   3.541   3.958
91007SOL    HW274919  13.134   3.655   3.867
91008SOL     OW74920  11.220   1.358  14.761
91008SOL    HW174921  11.314   1.372  14.772
91008SOL    HW274922  11.202   1.275  14.804
91009SOL     OW74923   6.181  14.837   1.303
91009SOL    HW174924   6.262   0.010   1.281
91009SOL    HW274925   6.119   0.035   1.324
91010SOL     OW74926  11.498   1.444  14.821
91010SOL    HW174927  11.570   1.388  14.850
91010SOL    HW274928  11.531   1.533  14.835
91011SOL     OW74929   7.956  10.379   0.981
91011SOL    HW174930   7.889  10.444   0.958
91011SOL    HW274931   7.947  10.311   0.913
91012SOL     OW74932  10.143  10.899  12.833
91012SOL    HW174933  10.092  10.942  12.763
91012SOL    HW274934  10.080  10.842  12.876
91013SOL     OW74935   1.906  11.819   4.799
91013SOL    HW174936   1.861  11.737   4.780
91013SOL    HW274937   1.962  11.800   4.874
91014SOL     OW74938   6.629   6.752   9.214
91014SOL    HW174939   6.663   6.725   9.129
91014SOL    HW274940   6.655   6.844   9.222
91015SOL     OW74941   7.146  10.068   0.507
91015SOL    HW174942   7.215  10.082   0.572
91015SOL    HW274943   7.129  10.155   0.470
91016SOL     OW74944  13.983   2.788   1.858
91016SOL    HW174945  14.042   2.845   1.906
91016SOL    HW274946  13.904   2.841   1.843
91017SOL     OW74947   1.889   1.939  11.457
91017SOL    HW174948   1.980   1.920  11.480
91017SOL    HW274949   1.862   2.007  11.519
91018SOL     OW74950   0.269   3.500   2.793
91018SOL    HW174951   0.206   3.571   2.781
91018SOL    HW274952   0.316   3.495   2.710
91019SOL     OW74953   2.328  13.551  12.417
91019SOL    HW174954   2.294  13.540  12.328
91019SOL    HW274955   2.251  13.541  12.473
91020SOL     OW74956   0.196   9.992  13.355
91020SOL    HW174957   0.142  10.000  13.434
91020SOL    HW274958   0.283   9.969  13.388
91021SOL     OW74959   3.568  12.762  11.286
91021SOL    HW174960   3.618  12.829  11.240
91021SOL    HW274961   3.608  12.679  11.259
91022SOL     OW74962  11.206  10.132  12.088
91022SOL    HW174963  11.208  10.092  12.002
91022SOL    HW274964  11.197  10.058  12.149
91023SOL     OW74965   9.154   7.969   8.052
91023SOL    HW174966   9.234   7.947   8.004
91023SOL    HW274967   9.083   7.955   7.989
91024SOL     OW74968   9.057  13.587   9.097
91024SOL    HW174969   9.141  13.551   9.124
91024SOL    HW274970   9.077  13.640   9.019
91025SOL     OW74971   6.803  12.911  12.910
91025SOL    HW174972   6.751  12.980  12.868
91025SOL    HW274973   6.864  12.958  12.967
91026SOL     OW74974   5.742  14.691  14.169
91026SOL    HW174975   5.695  14.651  14.096
91026SOL    HW274976   5.768  14.617  14.225
91027SOL     OW74977  14.650   5.872  13.138
91027SOL    HW174978  14.555   5.863  13.146
91027SOL    HW274979  14.682   5.783  13.124
91028SOL     OW74980   4.973  14.822   6.384
91028SOL    HW174981   4.965  14.865   6.298
91028SOL    HW274982   4.982   0.023   6.446
91029SOL     OW74983   7.072   0.519   4.689
91029SOL    HW174984   7.012   0.524   4.763
91029SOL    HW274985   7.016   0.491   4.615
91030SOL     OW74986   9.165   1.912   3.269
91030SOL    HW174987   9.180   1.971   3.343
91030SOL    HW274988   9.207   1.956   3.195
91031SOL     OW74989   7.171  11.796   4.449
91031SOL    HW174990   7.175  11.746   4.530
91031SOL    HW274991   7.191  11.886   4.475
91032SOL     OW74992  10.632  13.127   1.508
91032SOL    HW174993  10.715  13.172   1.524
91032SOL    HW274994  10.612  13.084   1.591
91033SOL     OW74995   2.903   2.593   4.994
91033SOL    HW174996   2.949   2.645   4.927
91033SOL    HW274997   2.910   2.646   5.073
91034SOL     OW74998   4.997  13.357   9.814
91034SOL    HW174999   4.976  13.277   9.767
91034SOL    HW275000   5.091  13.351   9.831
91035SOL     OW75001  10.993  11.343   9.822
91035SOL    HW175002  11.042  11.333   9.903
91035SOL    HW275003  11.056  11.320   9.753
91036SOL     OW75004   7.137   1.450  14.290
91036SOL    HW175005   7.067   1.515  14.283
91036SOL    HW275006   7.181   1.471  14.373
91037SOL     OW75007   6.556   7.740  13.880
91037SOL    HW175008   6.585   7.652  13.903
91037SOL    HW275009   6.627   7.775  13.825
91038SOL     OW75010  13.075   8.459   0.183
91038SOL    HW175011  13.129   8.511   0.123
91038SOL    HW275012  13.024   8.401   0.126
91039SOL     OW75013  11.775   5.764   6.875
91039SOL    HW175014  11.784   5.712   6.954
91039SOL    HW275015  11.695   5.732   6.834
91040SOL     OW75016  12.235   2.374   2.170
91040SOL    HW175017  12.208   2.320   2.096
91040SOL    HW275018  12.220   2.318   2.247
91041SOL     OW75019   0.341   4.914   9.704
91041SOL    HW175020   0.253   4.884   9.678
91041SOL    HW275021   0.388   4.833   9.724
91042SOL     OW75022   3.750   3.131   3.841
91042SOL    HW175023   3.809   3.184   3.894
91042SOL    HW275024   3.806   3.067   3.798
91043SOL     OW75025   5.621   7.827   2.547
91043SOL    HW175026   5.535   7.866   2.539
91043SOL    HW275027   5.677   7.898   2.578
91044SOL     OW75028   3.046   9.407   5.110
91044SOL    HW175029   3.004   9.359   5.181
91044SOL    HW275030   3.140   9.396   5.124
91045SOL     OW75031   4.468   4.789   3.147
91045SOL    HW175032   4.499   4.858   3.205
91045SOL    HW275033   4.538   4.778   3.082
91046SOL     OW75034  10.417   0.131   0.443
91046SOL    HW175035  10.468   0.049   0.447
91046SOL    HW275036  10.478   0.198   0.474
91047SOL     OW75037   8.198   3.020   9.608
91047SOL    HW175038   8.190   3.099   9.554
91047SOL    HW275039   8.112   2.978   9.601
91048SOL     OW75040   6.266   0.931   2.190
91048SOL    HW175041   6.330   0.973   2.133
91048SOL    HW275042   6.183   0.936   2.142
91049SOL     OW75043   7.349   7.453   7.550
91049SOL    HW175044   7.369   7.525   7.491
91049SOL    HW275045   7.270   7.413   7.514
91050SOL     OW75046  12.578  12.415  14.246
91050SOL    HW175047  12.528  12.366  14.311
91050SOL    HW275048  12.593  12.353  14.175
91051SOL     OW75049   0.934  13.373   1.407
91051SOL    HW175050   0.990  13.444   1.440
91051SOL    HW275051   0.880  13.349   1.482
91052SOL     OW75052   2.887  14.518   7.482
91052SOL    HW175053   2.829  14.531   7.557
91052SOL    HW275054   2.856  14.581   7.417
91053SOL     OW75055   7.978  11.702   9.198
91053SOL    HW175056   7.944  11.683   9.110
91053SOL    HW275057   7.911  11.758   9.237
91054SOL     OW75058   7.090   9.698   3.274
91054SOL    HW175059   7.041   9.776   3.249
91054SOL    HW275060   7.028   9.626   3.266
91055SOL     OW75061   6.265   8.459   3.959
91055SOL    HW175062   6.260   8.528   4.026
91055SOL    HW275063   6.192   8.400   3.980
91056SOL     OW75064  10.030  10.319   3.840
91056SOL    HW175065  10.062  10.405   3.814
91056SOL    HW275066   9.944  10.335   3.878
91057SOL     OW75067   0.172  11.907  10.538
91057SOL    HW175068   0.222  11.835  10.499
91057SOL    HW275069   0.101  11.864  10.585
91058SOL     OW75070   7.038  12.788   2.217
91058SOL    HW175071   7.045  12.878   2.185
91058SOL    HW275072   6.988  12.795   2.298
91059SOL     OW75073   3.097   7.217   7.250
91059SOL    HW175074   3.054   7.182   7.328
91059SOL    HW275075   3.075   7.155   7.180
91060SOL     OW75076   8.927   7.401  13.594
91060SOL    HW175077   8.954   7.425  13.682
91060SOL    HW275078   8.986   7.450  13.537
91061SOL     OW75079  13.933  13.195   0.897
91061SOL    HW175080  13.872  13.179   0.825
91061SOL    HW275081  14.012  13.146   0.873
91062SOL     OW75082  10.897  12.897   7.124
91062SOL    HW175083  10.895  12.981   7.079
91062SOL    HW275084  10.943  12.838   7.063
91063SOL     OW75085   3.446  10.635   6.542
91063SOL    HW175086   3.365  10.602   6.583
91063SOL    HW275087   3.460  10.577   6.467
91064SOL     OW75088   8.068   4.807  11.270
91064SOL    HW175089   8.019   4.827  11.350
91064SOL    HW275090   8.150   4.770  11.301
91065SOL     OW75091   1.720  12.310   2.713
91065SOL    HW175092   1.659  12.384   2.717
91065SOL    HW275093   1.767  12.313   2.796
91066SOL     OW75094   2.738   7.132  11.039
91066SOL    HW175095   2.760   7.079  11.116
91066SOL    HW275096   2.642   7.136  11.040
91067SOL     OW75097   7.846   4.260   4.644
91067SOL    HW175098   7.815   4.347   4.669
91067SOL    HW275099   7.841   4.208   4.724
91068SOL     OW75100   5.027  14.173  11.934
91068SOL    HW175101   4.959  14.107  11.923
91068SOL    HW275102   5.105  14.134  11.894
91069SOL     OW75103   5.946   7.866   1.910
91069SOL    HW175104   5.938   7.954   1.874
91069SOL    HW275105   5.930   7.877   2.004
91070SOL     OW75106   1.801  11.083  13.596
91070SOL    HW175107   1.779  11.058  13.506
91070SOL    HW275108   1.897  11.080  13.598
91071SOL     OW75109   2.471   1.649   1.103
91071SOL    HW175110   2.480   1.731   1.053
91071SOL    HW275111   2.554   1.641   1.151
91072SOL     OW75112  10.106   6.625   1.925
91072SOL    HW175113  10.115   6.591   2.014
91072SOL    HW275114  10.185   6.595   1.880
91073SOL     OW75115  12.723   3.340   2.348
91073SOL    HW175116  12.722   3.265   2.288
91073SOL    HW275117  12.681   3.308   2.428
91074SOL     OW75118   5.425  11.706   6.639
91074SOL    HW175119   5.360  11.670   6.578
91074SOL    HW275120   5.402  11.668   6.723
91075SOL     OW75121   2.883   1.298   1.486
91075SOL    HW175122   2.930   1.225   1.527
91075SOL    HW275123   2.801   1.260   1.455
91076SOL     OW75124  11.023  13.343  10.657
91076SOL    HW175125  10.988  13.293  10.730
91076SOL    HW275126  10.969  13.317  10.582
91077SOL     OW75127   8.265  12.770  13.718
91077SOL    HW175128   8.235  12.784  13.628
91077SOL    HW275129   8.268  12.858  13.756
91078SOL     OW75130   9.217  12.702   4.315
91078SOL    HW175131   9.227  12.641   4.388
91078SOL    HW275132   9.133  12.745   4.332
91079SOL     OW75133   6.153   5.800   9.955
91079SOL    HW175134   6.248   5.787   9.964
91079SOL    HW275135   6.116   5.760  10.033
91080SOL     OW75136  14.195   1.150   9.767
91080SOL    HW175137  14.137   1.204   9.822
91080SOL    HW275138  14.279   1.197   9.768
91081SOL     OW75139  11.196  12.183  10.266
91081SOL    HW175140  11.223  12.227  10.347
91081SOL    HW275141  11.101  12.189  10.265
91082SOL     OW75142   3.945   4.628   1.193
91082SOL    HW175143   3.945   4.651   1.100
91082SOL    HW275144   3.974   4.537   1.195
91083SOL     OW75145   3.249   3.600   8.478
91083SOL    HW175146   3.261   3.694   8.495
91083SOL    HW275147   3.338   3.564   8.482
91084SOL     OW75148   2.631   3.008   5.517
91084SOL    HW175149   2.724   2.986   5.525
91084SOL    HW275150   2.594   2.984   5.602
91085SOL     OW75151  11.338   6.286  10.806
91085SOL    HW175152  11.367   6.275  10.896
91085SOL    HW275153  11.243   6.270  10.809
91086SOL     OW75154   8.959  12.754   8.548
91086SOL    HW175155   9.000  12.824   8.497
91086SOL    HW275156   8.991  12.767   8.637
91087SOL     OW75157   7.600   4.783   5.077
91087SOL    HW175158   7.583   4.713   5.015
91087SOL    HW275159   7.595   4.741   5.163
91088SOL     OW75160  10.625   2.527   0.637
91088SOL    HW175161  10.531   2.541   0.648
91088SOL    HW275162  10.658   2.613   0.611
91089SOL     OW75163   4.407   0.400   8.371
91089SOL    HW175164   4.363   0.342   8.309
91089SOL    HW275165   4.497   0.407   8.337
91090SOL     OW75166   8.437  13.378  13.765
91090SOL    HW175167   8.421  13.324  13.842
91090SOL    HW275168   8.453  13.466  13.800
91091SOL     OW75169   5.229  12.418   0.462
91091SOL    HW175170   5.298  12.437   0.398
91091SOL    HW275171   5.253  12.333   0.499
91092SOL     OW75172   4.909   1.163   2.273
91092SOL    HW175173   4.945   1.251   2.283
91092SOL    HW275174   4.821   1.175   2.240
91093SOL     OW75175  12.468   8.061  14.463
91093SOL    HW175176  12.437   8.029  14.547
91093SOL    HW275177  12.415   8.015  14.398
91094SOL     OW75178   3.663  10.947   3.068
91094SOL    HW175179   3.726  10.880   3.042
91094SOL    HW275180   3.715  11.011   3.116
91095SOL     OW75181  10.736   0.910   7.571
91095SOL    HW175182  10.829   0.925   7.589
91095SOL    HW275183  10.723   0.817   7.590
91096SOL     OW75184  14.263  12.944   5.789
91096SOL    HW175185  14.223  13.025   5.821
91096SOL    HW275186  14.197  12.877   5.803
91097SOL     OW75187  14.430   3.744   5.755
91097SOL    HW175188  14.450   3.823   5.704
91097SOL    HW275189  14.347   3.763   5.798
91098SOL     OW75190   6.365  14.620   3.460
91098SOL    HW175191   6.395  14.532   3.435
91098SOL    HW275192   6.382  14.673   3.382
91099SOL     OW75193   6.030  11.516   4.968
91099SOL    HW175194   6.050  11.607   4.944
91099SOL    HW275195   6.104  11.466   4.936
91100SOL     OW75196  10.624   5.077   3.885
91100SOL    HW175197  10.716   5.098   3.869
91100SOL    HW275198  10.592   5.043   3.801
91101SOL     OW75199  14.465   3.871   8.178
91101SOL    HW175200  14.459   3.940   8.112
91101SOL    HW275201  14.380   3.828   8.176
91102SOL     OW75202   9.100  13.482   3.400
91102SOL    HW175203   9.136  13.486   3.489
91102SOL    HW275204   9.092  13.388   3.382
91103SOL     OW75205   7.119   4.945   5.013
91103SOL    HW175206   7.208   4.942   4.980
91103SOL    HW275207   7.126   4.989   5.098
91104SOL     OW75208  12.328   3.712   2.062
91104SOL    HW175209  12.372   3.644   2.113
91104SOL    HW275210  12.387   3.788   2.068
91105SOL     OW75211   9.266  10.277   7.458
91105SOL    HW175212   9.238  10.362   7.425
91105SOL    HW275213   9.185  10.237   7.492
91106SOL     OW75214   6.184   2.856   9.586
91106SOL    HW175215   6.164   2.915   9.659
91106SOL    HW275216   6.261   2.807   9.616
91107SOL     OW75217   5.155   7.079   6.613
91107SOL    HW175218   5.090   7.117   6.554
91107SOL    HW275219   5.198   7.155   6.653
91108SOL     OW75220  12.989  11.867   0.918
91108SOL    HW175221  12.904  11.883   0.876
91108SOL    HW275222  13.045  11.835   0.847
91109SOL     OW75223   1.291   1.806  14.171
91109SOL    HW175224   1.368   1.750  14.169
91109SOL    HW275225   1.217   1.745  14.180
91110SOL     OW75226   8.849   5.178   1.360
91110SOL    HW175227   8.827   5.187   1.267
91110SOL    HW275228   8.924   5.235   1.372
91111SOL     OW75229  13.003   5.797  12.870
91111SOL    HW175230  13.062   5.863  12.906
91111SOL    HW275231  13.058   5.721  12.856
91112SOL     OW75232   9.504  14.789  14.301
91112SOL    HW175233   9.451  14.713  14.277
91112SOL    HW275234   9.473  14.859  14.244
91113SOL     OW75235   7.537   4.778   4.584
91113SOL    HW175236   7.570   4.731   4.508
91113SOL    HW275237   7.466   4.833   4.549
91114SOL     OW75238  10.589   8.335  14.280
91114SOL    HW175239  10.646   8.258  14.279
91114SOL    HW275240  10.538   8.326  14.360
91115SOL     OW75241  12.493   1.591   5.738
91115SOL    HW175242  12.544   1.514   5.712
91115SOL    HW275243  12.436   1.609   5.664
91116SOL     OW75244   0.151   9.435   3.167
91116SOL    HW175245   0.074   9.491   3.165
91116SOL    HW275246   0.126   9.358   3.116
91117SOL     OW75247   1.505   8.167   6.740
91117SOL    HW175248   1.488   8.205   6.654
91117SOL    HW275249   1.525   8.075   6.723
91118SOL     OW75250   0.029   8.187   8.823
91118SOL    HW175251   0.102   8.178   8.762
91118SOL    HW275252  14.822   8.182   8.768
91119SOL     OW75253   9.191  11.340   1.310
91119SOL    HW175254   9.268  11.387   1.343
91119SOL    HW275255   9.169  11.277   1.379
91120SOL     OW75256   8.383  12.264  10.887
91120SOL    HW175257   8.453  12.234  10.829
91120SOL    HW275258   8.309  12.207  10.865
91121SOL     OW75259   6.804   1.898   8.549
91121SOL    HW175260   6.760   1.963   8.494
91121SOL    HW275261   6.739   1.876   8.616
91122SOL     OW75262   5.490   4.460   2.918
91122SOL    HW175263   5.409   4.501   2.887
91122SOL    HW275264   5.461   4.384   2.968
91123SOL     OW75265  13.094  13.586   9.143
91123SOL    HW175266  13.091  13.615   9.052
91123SOL    HW275267  13.187  13.575   9.162
91124SOL     OW75268   2.305   0.105   7.646
91124SOL    HW175269   2.284   0.014   7.626
91124SOL    HW275270   2.342   0.140   7.565
91125SOL     OW75271  14.083  10.466   6.973
91125SOL    HW175272  14.010  10.430   6.921
91125SOL    HW275273  14.046  10.476   7.061
91126SOL     OW75274   5.931   8.618   8.322
91126SOL    HW175275   5.852   8.634   8.270
91126SOL    HW275276   5.898   8.585   8.405
91127SOL     OW75277  12.162  11.585   3.994
91127SOL    HW175278  12.080  11.551   3.959
91127SOL    HW275279  12.175  11.537   4.076
91128SOL     OW75280  10.375   5.896   8.939
91128SOL    HW175281  10.377   5.801   8.941
91128SOL    HW275282  10.358   5.919   8.848
91129SOL     OW75283   4.454  11.957   1.587
91129SOL    HW175284   4.431  11.888   1.526
91129SOL    HW275285   4.376  11.968   1.642
91130SOL     OW75286  12.680  14.674   2.020
91130SOL    HW175287  12.714  14.745   1.966
91130SOL    HW275288  12.756  14.643   2.069
91131SOL     OW75289   2.509  11.270   0.277
91131SOL    HW175290   2.560  11.229   0.206
91131SOL    HW275291   2.451  11.332   0.232
91132SOL     OW75292   6.805   6.770  12.360
91132SOL    HW175293   6.896   6.791  12.378
91132SOL    HW275294   6.762   6.774  12.446
91133SOL     OW75295   8.290   0.075  10.517
91133SOL    HW175296   8.236   0.042  10.445
91133SOL    HW275297   8.380   0.055  10.490
91134SOL     OW75298   7.966   9.865   5.513
91134SOL    HW175299   7.914   9.895   5.588
91134SOL    HW275300   7.979   9.772   5.529
91135SOL     OW75301  11.699  13.945  13.035
91135SOL    HW175302  11.770  14.003  13.062
91135SOL    HW275303  11.690  13.961  12.941
91136SOL     OW75304  14.488   9.697   4.639
91136SOL    HW175305  14.550   9.757   4.597
91136SOL    HW275306  14.401   9.733   4.619
91137SOL     OW75307   2.067   8.054   6.819
91137SOL    HW175308   2.013   7.975   6.816
91137SOL    HW275309   2.005   8.125   6.837
91138SOL     OW75310   3.966  12.461   8.531
91138SOL    HW175311   3.997  12.550   8.518
91138SOL    HW275312   3.876  12.471   8.562
91139SOL     OW75313   1.889  13.595   3.801
91139SOL    HW175314   1.832  13.649   3.747
91139SOL    HW275315   1.965  13.651   3.819
91140SOL     OW75316  11.969   9.767   4.639
91140SOL    HW175317  11.981   9.681   4.678
91140SOL    HW275318  11.960   9.827   4.713
91141SOL     OW75319   4.079   6.487   9.606
91141SOL    HW175320   4.131   6.505   9.684
91141SOL    HW275321   4.116   6.543   9.538
91142SOL     OW75322   4.790  13.417   8.615
91142SOL    HW175323   4.765  13.507   8.595
91142SOL    HW275324   4.858  13.425   8.682
91143SOL     OW75325   8.582  13.008   3.819
91143SOL    HW175326   8.624  12.923   3.805
91143SOL    HW275327   8.492  12.996   3.788
91144SOL     OW75328   9.207   3.909  11.485
91144SOL    HW175329   9.144   3.955  11.540
91144SOL    HW275330   9.210   3.959  11.404
91145SOL     OW75331   5.993   9.400   6.794
91145SOL    HW175332   6.072   9.417   6.846
91145SOL    HW275333   5.961   9.316   6.825
91146SOL     OW75334   8.754   4.196   5.264
91146SOL    HW175335   8.699   4.141   5.320
91146SOL    HW275336   8.693   4.232   5.199
91147SOL     OW75337  12.672  14.826   5.582
91147SOL    HW175338  12.699  14.762   5.648
91147SOL    HW275339  12.646  14.773   5.506
91148SOL     OW75340   9.801  13.163  11.805
91148SOL    HW175341   9.713  13.177  11.770
91148SOL    HW275342   9.859  13.189  11.734
91149SOL     OW75343   8.103   3.404   3.739
91149SOL    HW175344   8.189   3.395   3.698
91149SOL    HW275345   8.045   3.350   3.684
91150SOL     OW75346   1.921   9.166   0.828
91150SOL    HW175347   1.896   9.210   0.910
91150SOL    HW275348   2.015   9.179   0.821
91151SOL     OW75349  10.174   6.288   9.247
91151SOL    HW175350  10.143   6.207   9.287
91151SOL    HW275351  10.140   6.357   9.303
91152SOL     OW75352   1.828   9.547  11.573
91152SOL    HW175353   1.776   9.485  11.522
91152SOL    HW275354   1.792   9.541  11.662
91153SOL     OW75355   5.300   2.637  14.841
91153SOL    HW175356   5.294   2.711  14.781
91153SOL    HW275357   5.292   2.676   0.057
91154SOL     OW75358  10.822   1.349   2.278
91154SOL    HW175359  10.826   1.315   2.188
91154SOL    HW275360  10.901   1.315   2.320
91155SOL     OW75361  14.620   4.476  14.259
91155SOL    HW175362  14.525   4.474  14.248
91155SOL    HW275363  14.633   4.479  14.354
91156SOL     OW75364  14.601   6.316   6.864
91156SOL    HW175365  14.547   6.238   6.853
91156SOL    HW275366  14.673   6.287   6.920
91157SOL     OW75367   0.661   5.748   1.058
91157SOL    HW175368   0.586   5.788   1.101
91157SOL    HW275369   0.670   5.663   1.101
91158SOL     OW75370   6.748   1.644   2.281
91158SOL    HW175371   6.691   1.567   2.283
91158SOL    HW275372   6.731   1.689   2.364
91159SOL     OW75373   8.501  10.744   0.807
91159SOL    HW175374   8.530  10.697   0.729
91159SOL    HW275375   8.548  10.827   0.804
91160SOL     OW75376  11.724   9.433   7.800
91160SOL    HW175377  11.787   9.466   7.865
91160SOL    HW275378  11.667   9.375   7.850
91161SOL     OW75379   5.825   8.276  13.686
91161SOL    HW175380   5.797   8.237  13.769
91161SOL    HW275381   5.788   8.364  13.687
91162SOL     OW75382  10.102  14.459  13.772
91162SOL    HW175383  10.191  14.424  13.774
91162SOL    HW275384  10.097  14.517  13.848
91163SOL     OW75385   2.221   1.399   6.306
91163SOL    HW175386   2.154   1.460   6.274
91163SOL    HW275387   2.197   1.315   6.267
91164SOL     OW75388  14.807  10.322   7.712
91164SOL    HW175389  14.744  10.272   7.660
91164SOL    HW275390  14.823  10.401   7.660
91165SOL     OW75391  11.605   5.217   3.608
91165SOL    HW175392  11.607   5.295   3.553
91165SOL    HW275393  11.524   5.226   3.658
91166SOL     OW75394  14.285   4.287   2.751
91166SOL    HW175395  14.376   4.294   2.780
91166SOL    HW275396  14.244   4.367   2.782
91167SOL     OW75397   0.689   4.255   5.618
91167SOL    HW175398   0.650   4.271   5.532
91167SOL    HW275399   0.624   4.203   5.665
91168SOL     OW75400   0.089   9.629   4.337
91168SOL    HW175401   0.152   9.701   4.337
91168SOL    HW275402   0.015   9.661   4.286
91169SOL     OW75403   4.101   7.113  10.915
91169SOL    HW175404   4.153   7.116  10.835
91169SOL    HW275405   4.091   7.019  10.934
91170SOL     OW75406   7.028   1.573   6.347
91170SOL    HW175407   7.039   1.478   6.350
91170SOL    HW275408   6.950   1.586   6.293
91171SOL     OW75409   6.520   2.303  12.473
91171SOL    HW175410   6.596   2.282  12.527
91171SOL    HW275411   6.497   2.221  12.430
91172SOL     OW75412  13.609  11.257   3.261
91172SOL    HW175413  13.650  11.262   3.347
91172SOL    HW275414  13.681  11.266   3.198
91173SOL     OW75415  12.483   8.382   2.665
91173SOL    HW175416  12.579   8.379   2.662
91173SOL    HW275417  12.461   8.356   2.754
91174SOL     OW75418   7.374  14.727   3.424
91174SOL    HW175419   7.281  14.742   3.437
91174SOL    HW275420   7.417  14.793   3.479
91175SOL     OW75421  14.636  12.952   0.729
91175SOL    HW175422  14.576  13.011   0.775
91175SOL    HW275423  14.704  13.009   0.695
91176SOL     OW75424   6.038  12.172  10.514
91176SOL    HW175425   6.003  12.099  10.564
91176SOL    HW275426   6.121  12.193  10.558
91177SOL     OW75427   9.277   0.823  12.896
91177SOL    HW175428   9.293   0.916  12.879
91177SOL    HW275429   9.187   0.809  12.866
91178SOL     OW75430   2.697   7.870   2.682
91178SOL    HW175431   2.685   7.952   2.730
91178SOL    HW275432   2.609   7.842   2.659
91179SOL     OW75433   9.542   1.259   8.508
91179SOL    HW175434   9.456   1.294   8.530
91179SOL    HW275435   9.545   1.175   8.553
91180SOL     OW75436  10.166   6.911   0.251
91180SOL    HW175437  10.254   6.940   0.229
91180SOL    HW275438  10.161   6.821   0.218
91181SOL     OW75439   9.271  11.231  14.452
91181SOL    HW175440   9.306  11.214  14.365
91181SOL    HW275441   9.201  11.294  14.438
91182SOL     OW75442   1.457  11.147  11.275
91182SOL    HW175443   1.481  11.195  11.354
91182SOL    HW275444   1.497  11.196  11.204
91183SOL     OW75445   2.331  10.981  12.439
91183SOL    HW175446   2.387  11.057  12.426
91183SOL    HW275447   2.376  10.910  12.394
91184SOL     OW75448   0.221   8.931   1.760
91184SOL    HW175449   0.153   8.864   1.762
91184SOL    HW275450   0.201   8.987   1.835
91185SOL     OW75451   4.367   6.999  13.404
91185SOL    HW175452   4.460   6.983  13.386
91185SOL    HW275453   4.332   6.914  13.428
91186SOL     OW75454   2.465  12.606   0.534
91186SOL    HW175455   2.475  12.520   0.494
91186SOL    HW275456   2.384  12.641   0.497
91187SOL     OW75457   7.650   5.667   1.094
91187SOL    HW175458   7.618   5.577   1.098
91187SOL    HW275459   7.718   5.665   1.027
91188SOL     OW75460   4.640   4.040   6.524
91188SOL    HW175461   4.596   4.122   6.546
91188SOL    HW275462   4.708   4.030   6.591
91189SOL     OW75463   0.165   7.489  14.378
91189SOL    HW175464   0.071   7.488  14.399
91189SOL    HW275465   0.192   7.579  14.393
91190SOL     OW75466   1.228  14.008   1.874
91190SOL    HW175467   1.218  14.060   1.954
91190SOL    HW275468   1.160  14.041   1.816
91191SOL     OW75469   8.913   9.836  13.227
91191SOL    HW175470   8.850   9.783  13.179
91191SOL    HW275471   8.994   9.829  13.175
91192SOL     OW75472   0.719   0.854  11.457
91192SOL    HW175473   0.661   0.930  11.453
91192SOL    HW275474   0.662   0.780  11.437
91193SOL     OW75475  13.290   0.914   8.649
91193SOL    HW175476  13.323   0.883   8.734
91193SOL    HW275477  13.256   0.836   8.606
91194SOL     OW75478   9.799   4.223   9.209
91194SOL    HW175479   9.807   4.143   9.158
91194SOL    HW275480   9.889   4.247   9.232
91195SOL     OW75481  10.776   3.095  13.667
91195SOL    HW175482  10.768   3.061  13.578
91195SOL    HW275483  10.740   3.026  13.722
91196SOL     OW75484   6.081  10.861   7.838
91196SOL    HW175485   6.014  10.838   7.902
91196SOL    HW275486   6.160  10.817   7.868
91197SOL     OW75487   6.142   4.677   4.375
91197SOL    HW175488   6.159   4.677   4.469
91197SOL    HW275489   6.139   4.770   4.351
91198SOL     OW75490   4.864   3.746  13.445
91198SOL    HW175491   4.826   3.658  13.442
91198SOL    HW275492   4.843   3.784  13.359
91199SOL     OW75493   7.562  13.394  11.605
91199SOL    HW175494   7.647  13.432  11.582
91199SOL    HW275495   7.534  13.442  11.683
91200SOL     OW75496   5.791   8.847  14.705
91200SOL    HW175497   5.790   8.923  14.648
91200SOL    HW275498   5.710   8.854  14.756
91201SOL     OW75499   9.174   7.333  11.284
91201SOL    HW175500   9.232   7.298  11.352
91201SOL    HW275501   9.233   7.358  11.213
91202SOL     OW75502   3.716   5.455   0.630
91202SOL    HW175503   3.691   5.531   0.682
91202SOL    HW275504   3.799   5.426   0.669
91203SOL     OW75505   8.219   8.192  10.532
91203SOL    HW175506   8.306   8.165  10.563
91203SOL    HW275507   8.180   8.234  10.609
91204SOL     OW75508   6.661   7.799  11.544
91204SOL    HW175509   6.723   7.794  11.471
91204SOL    HW275510   6.609   7.878  11.525
91205SOL     OW75511   7.166   6.813   2.039
91205SOL    HW175512   7.183   6.898   1.999
91205SOL    HW275513   7.181   6.750   1.968
91206SOL     OW75514   8.199   9.776   8.196
91206SOL    HW175515   8.162   9.696   8.233
91206SOL    HW275516   8.138   9.845   8.222
91207SOL     OW75517  10.090  14.024   2.436
91207SOL    HW175518  10.035  13.973   2.496
91207SOL    HW275519  10.029  14.084   2.393
91208SOL     OW75520   6.231   3.254   1.356
91208SOL    HW175521   6.213   3.169   1.398
91208SOL    HW275522   6.300   3.293   1.410
91209SOL     OW75523   0.299  11.616  11.240
91209SOL    HW175524   0.285  11.711  11.236
91209SOL    HW275525   0.348  11.602  11.321
91210SOL     OW75526  10.041   2.426   2.359
91210SOL    HW175527   9.992   2.359   2.406
91210SOL    HW275528   9.995   2.508   2.379
91211SOL     OW75529   3.521  10.696   6.939
91211SOL    HW175530   3.484  10.614   6.909
91211SOL    HW275531   3.613  10.676   6.956
91212SOL     OW75532   5.340  13.424  11.237
91212SOL    HW175533   5.314  13.466  11.155
91212SOL    HW275534   5.290  13.342  11.239
91213SOL     OW75535   3.914   9.374   5.326
91213SOL    HW175536   3.927   9.447   5.266
91213SOL    HW275537   3.893   9.415   5.410
91214SOL     OW75538   1.830  10.274   0.048
91214SOL    HW175539   1.886  10.197   0.064
91214SOL    HW275540   1.873  10.319  14.847
91215SOL     OW75541   3.106   8.582   3.607
91215SOL    HW175542   3.194   8.563   3.640
91215SOL    HW275543   3.057   8.610   3.684
91216SOL     OW75544   9.676   8.664  14.416
91216SOL    HW175545   9.595   8.667  14.366
91216SOL    HW275546   9.654   8.707  14.499
91217SOL     OW75547   5.341  13.516   5.134
91217SOL    HW175548   5.397  13.583   5.095
91217SOL    HW275549   5.382  13.497   5.219
91218SOL     OW75550  10.185   0.354   5.306
91218SOL    HW175551  10.218   0.313   5.386
91218SOL    HW275552  10.255   0.342   5.242
91219SOL     OW75553   9.472   2.653   5.526
91219SOL    HW175554   9.407   2.704   5.478
91219SOL    HW275555   9.478   2.570   5.478
91220SOL     OW75556   0.185   8.265   1.163
91220SOL    HW175557   0.243   8.240   1.092
91220SOL    HW275558   0.100   8.230   1.138
91221SOL     OW75559   0.583   9.639  11.762
91221SOL    HW175560   0.587   9.599  11.675
91221SOL    HW275561   0.630   9.577  11.819
91222SOL     OW75562   1.772   9.120  12.913
91222SOL    HW175563   1.793   9.032  12.944
91222SOL    HW275564   1.755   9.170  12.993
91223SOL     OW75565   2.511  11.907   0.719
91223SOL    HW175566   2.594  11.912   0.671
91223SOL    HW275567   2.444  11.916   0.653
91224SOL     OW75568   0.991   9.891   5.191
91224SOL    HW175569   1.002   9.976   5.147
91224SOL    HW275570   0.940   9.911   5.269
91225SOL     OW75571   5.309   6.361   0.225
91225SOL    HW175572   5.293   6.305   0.148
91225SOL    HW275573   5.266   6.444   0.203
91226SOL     OW75574   8.213   8.526   5.049
91226SOL    HW175575   8.281   8.494   4.991
91226SOL    HW275576   8.133   8.525   4.995
91227SOL     OW75577   2.287   4.885  10.457
91227SOL    HW175578   2.293   4.893  10.552
91227SOL    HW275579   2.333   4.962  10.423
91228SOL     OW75580   4.126   4.840   4.739
91228SOL    HW175581   4.078   4.922   4.741
91228SOL    HW275582   4.189   4.849   4.667
91229SOL     OW75583  12.560   1.717  10.883
91229SOL    HW175584  12.528   1.751  10.800
91229SOL    HW275585  12.528   1.778  10.949
91230SOL     OW75586   7.931   1.223  10.087
91230SOL    HW175587   7.845   1.262  10.077
91230SOL    HW275588   7.916   1.145  10.142
91231SOL     OW75589   5.577  12.381   0.981
91231SOL    HW175590   5.557  12.471   1.007
91231SOL    HW275591   5.593  12.387   0.887
91232SOL     OW75592   4.011   0.906   2.578
91232SOL    HW175593   4.030   0.963   2.652
91232SOL    HW275594   4.047   0.821   2.602
91233SOL     OW75595   7.260   7.434   3.006
91233SOL    HW175596   7.261   7.489   3.084
91233SOL    HW275597   7.207   7.481   2.943
91234SOL     OW75598  11.238   5.618   1.096
91234SOL    HW175599  11.254   5.555   1.025
91234SOL    HW275600  11.155   5.660   1.073
91235SOL     OW75601   3.504   4.940   6.024
91235SOL    HW175602   3.479   5.018   6.073
91235SOL    HW275603   3.427   4.883   6.029
91236SOL     OW75604  14.694  13.699   5.039
91236SOL    HW175605  14.763  13.689   5.105
91236SOL    HW275606  14.647  13.778   5.065
91237SOL     OW75607   5.657   9.403  10.284
91237SOL    HW175608   5.743   9.432  10.314
91237SOL    HW275609   5.612   9.374  10.364
91238SOL     OW75610  12.000  10.644   1.626
91238SOL    HW175611  12.065  10.610   1.564
91238SOL    HW275612  12.001  10.583   1.699
91239SOL     OW75613  13.666   2.876   0.844
91239SOL    HW175614  13.706   2.931   0.777
91239SOL    HW275615  13.741   2.838   0.891
91240SOL     OW75616   0.163   8.554   6.953
91240SOL    HW175617   0.146   8.546   6.860
91240SOL    HW275618   0.095   8.500   6.995
91241SOL     OW75619   8.580   2.348   3.695
91241SOL    HW175620   8.670   2.361   3.664
91241SOL    HW275621   8.549   2.436   3.716
91242SOL     OW75622   1.430   1.666   1.597
91242SOL    HW175623   1.422   1.738   1.535
91242SOL    HW275624   1.394   1.700   1.679
91243SOL     OW75625   4.131   6.336   1.168
91243SOL    HW175626   4.101   6.399   1.233
91243SOL    HW275627   4.056   6.324   1.110
91244SOL     OW75628   6.354  12.147   6.538
91244SOL    HW175629   6.333  12.134   6.631
91244SOL    HW275630   6.269  12.146   6.494
91245SOL     OW75631  12.060   0.044  13.558
91245SOL    HW175632  12.027  14.826  13.547
91245SOL    HW275633  12.056   0.082  13.471
91246SOL     OW75634  12.399   4.160  10.992
91246SOL    HW175635  12.426   4.217  11.064
91246SOL    HW275636  12.407   4.215  10.914
91247SOL     OW75637  12.325   7.547   9.126
91247SOL    HW175638  12.251   7.581   9.076
91247SOL    HW275639  12.370   7.625   9.160
91248SOL     OW75640   3.191   6.919   9.568
91248SOL    HW175641   3.253   6.849   9.591
91248SOL    HW275642   3.185   6.972   9.648
91249SOL     OW75643  14.172   5.893   5.722
91249SOL    HW175644  14.152   5.806   5.687
91249SOL    HW275645  14.249   5.880   5.778
91250SOL     OW75646   5.062   0.706   5.630
91250SOL    HW175647   5.034   0.796   5.616
91250SOL    HW275648   5.156   0.712   5.644
91251SOL     OW75649   0.301   3.791   1.585
91251SOL    HW175650   0.231   3.726   1.592
91251SOL    HW275651   0.296   3.841   1.666
91252SOL     OW75652  12.961   9.933   5.009
91252SOL    HW175653  12.939   9.861   5.068
91252SOL    HW275654  12.878   9.959   4.970
91253SOL     OW75655   5.954   7.067   7.399
91253SOL    HW175656   5.939   7.073   7.493
91253SOL    HW275657   5.867   7.058   7.361
91254SOL     OW75658   7.942   0.804   8.165
91254SOL    HW175659   7.848   0.823   8.172
91254SOL    HW275660   7.980   0.885   8.130
91255SOL     OW75661  10.782  14.330   5.080
91255SOL    HW175662  10.705  14.335   5.023
91255SOL    HW275663  10.768  14.251   5.133
91256SOL     OW75664  14.655  10.127   6.785
91256SOL    HW175665  14.707  10.189   6.734
91256SOL    HW275666  14.718  10.060   6.813
91257SOL     OW75667   4.789  13.437   2.155
91257SOL    HW175668   4.882  13.420   2.165
91257SOL    HW275669   4.779  13.530   2.177
91258SOL     OW75670   6.590  13.656   5.388
91258SOL    HW175671   6.516  13.630   5.443
91258SOL    HW275672   6.642  13.576   5.379
91259SOL     OW75673   7.141   8.870   4.586
91259SOL    HW175674   7.193   8.950   4.578
91259SOL    HW275675   7.053   8.900   4.607
91260SOL     OW75676   9.278   4.756   5.415
91260SOL    HW175677   9.196   4.735   5.371
91260SOL    HW275678   9.346   4.728   5.355
91261SOL     OW75679  12.471   2.390   6.027
91261SOL    HW175680  12.428   2.422   5.947
91261SOL    HW275681  12.401   2.351   6.079
91262SOL     OW75682   4.662   5.895   8.027
91262SOL    HW175683   4.696   5.807   8.011
91262SOL    HW275684   4.736   5.942   8.065
91263SOL     OW75685  12.430  14.094  13.139
91263SOL    HW175686  12.368  14.128  13.204
91263SOL    HW275687  12.516  14.108  13.179
91264SOL     OW75688   3.848   9.862   8.685
91264SOL    HW175689   3.793   9.892   8.756
91264SOL    HW275690   3.926   9.826   8.728
91265SOL     OW75691   4.610   6.416  14.743
91265SOL    HW175692   4.613   6.347  14.677
91265SOL    HW275693   4.672   6.388  14.810
91266SOL     OW75694   0.329  10.816   3.214
91266SOL    HW175695   0.327  10.831   3.119
91266SOL    HW275696   0.405  10.759   3.227
91267SOL     OW75697   8.551  10.371  11.086
91267SOL    HW175698   8.539  10.293  11.031
91267SOL    HW275699   8.462  10.399  11.107
91268SOL     OW75700   0.636   6.861   9.620
91268SOL    HW175701   0.671   6.944   9.589
91268SOL    HW275702   0.610   6.815   9.540
91269SOL     OW75703  11.366   0.364   2.708
91269SOL    HW175704  11.296   0.412   2.753
91269SOL    HW275705  11.367   0.401   2.620
91270SOL     OW75706   9.977   8.519   0.043
91270SOL    HW175707  10.044   8.467   0.088
91270SOL    HW275708   9.896   8.470   0.057
91271SOL     OW75709  14.614   7.559   4.475
91271SOL    HW175710  14.661   7.573   4.557
91271SOL    HW275711  14.683   7.534   4.413
91272SOL     OW75712   7.393  13.970   8.273
91272SOL    HW175713   7.366  14.040   8.213
91272SOL    HW275714   7.362  13.999   8.359
91273SOL     OW75715   9.292  11.586  11.579
91273SOL    HW175716   9.218  11.588  11.640
91273SOL    HW275717   9.256  11.615  11.496
91274SOL     OW75718   7.267   3.623   4.542
91274SOL    HW175719   7.252   3.680   4.618
91274SOL    HW275720   7.362   3.618   4.534
91275SOL     OW75721  14.371   4.534   0.244
91275SOL    HW175722  14.298   4.471   0.237
91275SOL    HW275723  14.350   4.588   0.320
91276SOL     OW75724  11.151   2.038   1.818
91276SOL    HW175725  11.096   2.111   1.789
91276SOL    HW275726  11.170   2.058   1.910
91277SOL     OW75727   5.389  13.880   6.789
91277SOL    HW175728   5.437  13.960   6.811
91277SOL    HW275729   5.445  13.836   6.724
91278SOL     OW75730  10.438   9.410   3.582
91278SOL    HW175731  10.441   9.358   3.663
91278SOL    HW275732  10.510   9.376   3.529
91279SOL     OW75733   0.661   4.136  13.967
91279SOL    HW175734   0.655   4.231  13.967
91279SOL    HW275735   0.643   4.111  13.876
91280SOL     OW75736   7.386  13.797   1.843
91280SOL    HW175737   7.446  13.785   1.770
91280SOL    HW275738   7.376  13.892   1.851
91281SOL     OW75739   2.761  12.957  13.984
91281SOL    HW175740   2.787  12.966  14.076
91281SOL    HW275741   2.843  12.949  13.936
91282SOL     OW75742  13.019   2.332   3.985
91282SOL    HW175743  12.927   2.313   3.967
91282SOL    HW275744  13.056   2.248   4.013
91283SOL     OW75745   5.502   6.192   7.968
91283SOL    HW175746   5.498   6.244   7.887
91283SOL    HW275747   5.411   6.172   7.988
91284SOL     OW75748  11.507  11.757  14.055
91284SOL    HW175749  11.502  11.804  13.972
91284SOL    HW275750  11.417  11.730  14.072
91285SOL     OW75751  12.877   7.123   6.944
91285SOL    HW175752  12.934   7.121   7.021
91285SOL    HW275753  12.919   7.184   6.884
91286SOL     OW75754  11.799  10.359   6.966
91286SOL    HW175755  11.879  10.368   6.914
91286SOL    HW275756  11.784  10.264   6.971
91287SOL     OW75757   4.232   2.535   6.046
91287SOL    HW175758   4.156   2.548   5.988
91287SOL    HW275759   4.276   2.458   6.009
91288SOL     OW75760   0.924  13.986   3.247
91288SOL    HW175761   0.831  14.007   3.252
91288SOL    HW275762   0.946  13.956   3.335
91289SOL     OW75763   0.279   9.698   3.424
91289SOL    HW175764   0.334   9.777   3.425
91289SOL    HW275765   0.192   9.729   3.399
91290SOL     OW75766  14.660   5.422   4.064
91290SOL    HW175767  14.650   5.495   4.125
91290SOL    HW275768  14.599   5.356   4.096
91291SOL     OW75769   5.689   6.114  11.454
91291SOL    HW175770   5.706   6.029  11.412
91291SOL    HW275771   5.645   6.165  11.386
91292SOL     OW75772   7.051   5.783   3.642
91292SOL    HW175773   7.099   5.851   3.595
91292SOL    HW275774   7.000   5.831   3.707
91293SOL     OW75775   8.650   2.813   6.858
91293SOL    HW175776   8.656   2.907   6.876
91293SOL    HW275777   8.718   2.774   6.912
91294SOL     OW75778   7.823  14.354   1.347
91294SOL    HW175779   7.792  14.410   1.418
91294SOL    HW275780   7.812  14.265   1.381
91295SOL     OW75781   2.812   0.716  13.552
91295SOL    HW175782   2.745   0.652  13.576
91295SOL    HW275783   2.859   0.675  13.479
91296SOL     OW75784   0.221  11.546  11.658
91296SOL    HW175785   0.310  11.546  11.622
91296SOL    HW275786   0.189  11.635  11.643
91297SOL     OW75787  13.069   9.939   0.739
91297SOL    HW175788  13.119   9.864   0.771
91297SOL    HW275789  13.136   9.998   0.704
91298SOL     OW75790   5.716   7.286   5.690
91298SOL    HW175791   5.807   7.296   5.662
91298SOL    HW275792   5.678   7.226   5.626
91299SOL     OW75793   0.897  13.895   9.578
91299SOL    HW175794   0.960  13.833   9.543
91299SOL    HW275795   0.825  13.896   9.515
91300SOL     OW75796  11.204   8.924   5.631
91300SOL    HW175797  11.148   8.847   5.637
91300SOL    HW275798  11.292   8.892   5.652
91301SOL     OW75799   0.307   0.453   6.311
91301SOL    HW175800   0.347   0.419   6.231
91301SOL    HW275801   0.306   0.379   6.371
91302SOL     OW75802   9.874   4.637   8.880
91302SOL    HW175803   9.841   4.563   8.930
91302SOL    HW275804   9.956   4.606   8.842
91303SOL     OW75805  13.194   7.334   8.007
91303SOL    HW175806  13.195   7.258   7.949
91303SOL    HW275807  13.133   7.395   7.966
91304SOL     OW75808   0.832   9.190   1.369
91304SOL    HW175809   0.888   9.115   1.393
91304SOL    HW275810   0.829   9.244   1.448
91305SOL     OW75811   0.447   9.260   4.712
91305SOL    HW175812   0.520   9.205   4.684
91305SOL    HW275813   0.440   9.246   4.806
91306SOL     OW75814   2.201  11.890  13.571
91306SOL    HW175815   2.230  11.961  13.628
91306SOL    HW275816   2.214  11.923  13.482
91307SOL     OW75817   8.513  13.472   4.773
91307SOL    HW175818   8.527  13.409   4.844
91307SOL    HW275819   8.586  13.456   4.713
91308SOL     OW75820   0.364  13.005   6.724
91308SOL    HW175821   0.400  12.987   6.811
91308SOL    HW275822   0.373  12.922   6.677
91309SOL     OW75823  14.569   3.189  12.953
91309SOL    HW175824  14.552   3.095  12.953
91309SOL    HW275825  14.639   3.200  12.889
91310SOL     OW75826  13.371   5.072   5.160
91310SOL    HW175827  13.429   4.997   5.142
91310SOL    HW275828  13.296   5.033   5.205
91311SOL     OW75829  12.417  13.854  10.251
91311SOL    HW175830  12.346  13.790  10.247
91311SOL    HW275831  12.486  13.810  10.303
91312SOL     OW75832  12.513  11.135   2.997
91312SOL    HW175833  12.433  11.137   2.945
91312SOL    HW275834  12.578  11.179   2.942
91313SOL     OW75835  13.170   2.300  11.473
91313SOL    HW175836  13.205   2.337  11.554
91313SOL    HW275837  13.243   2.304  11.411
91314SOL     OW75838   8.854   1.651   5.834
91314SOL    HW175839   8.923   1.588   5.814
91314SOL    HW275840   8.773   1.602   5.820
91315SOL     OW75841  11.583  14.851   5.417
91315SOL    HW175842  11.555   0.064   5.383
91315SOL    HW275843  11.501  14.804   5.434
91316SOL     OW75844  12.747   3.498  12.852
91316SOL    HW175845  12.690   3.438  12.900
91316SOL    HW275846  12.689   3.565  12.816
91317SOL     OW75847   9.941  11.337   5.467
91317SOL    HW175848   9.973  11.249   5.446
91317SOL    HW275849   9.930  11.337   5.562
91318SOL     OW75850   0.323   7.737   8.621
91318SOL    HW175851   0.276   7.731   8.538
91318SOL    HW275852   0.270   7.796   8.674
91319SOL     OW75853   0.409   2.070   7.408
91319SOL    HW175854   0.395   1.991   7.355
91319SOL    HW275855   0.393   2.142   7.346
91320SOL     OW75856   9.281   4.722   3.851
91320SOL    HW175857   9.350   4.767   3.802
91320SOL    HW275858   9.297   4.745   3.943
91321SOL     OW75859  11.758   0.656   6.182
91321SOL    HW175860  11.847   0.634   6.208
91321SOL    HW275861  11.749   0.623   6.093
91322SOL     OW75862   8.108   6.788   2.965
91322SOL    HW175863   8.103   6.876   2.929
91322SOL    HW275864   8.202   6.772   2.977
91323SOL     OW75865   9.690   6.939   2.024
91323SOL    HW175866   9.663   6.988   1.946
91323SOL    HW275867   9.637   6.859   2.021
91324SOL     OW75868   6.113   3.027   1.218
91324SOL    HW175869   6.034   2.976   1.234
91324SOL    HW275870   6.089   3.087   1.147
91325SOL     OW75871  11.377   0.758  12.369
91325SOL    HW175872  11.438   0.720  12.432
91325SOL    HW275873  11.300   0.779  12.422
91326SOL     OW75874  12.636   2.056   8.207
91326SOL    HW175875  12.696   2.040   8.134
91326SOL    HW275876  12.585   1.975   8.214
91327SOL     OW75877  13.214   7.026   1.847
91327SOL    HW175878  13.165   7.030   1.929
91327SOL    HW275879  13.264   7.107   1.844
91328SOL     OW75880   8.684   9.355   3.258
91328SOL    HW175881   8.699   9.315   3.344
91328SOL    HW275882   8.742   9.431   3.256
91329SOL     OW75883   5.280   9.523   6.292
91329SOL    HW175884   5.196   9.488   6.320
91329SOL    HW275885   5.265   9.552   6.202
91330SOL     OW75886   3.458   5.529  12.711
91330SOL    HW175887   3.402   5.604  12.693
91330SOL    HW275888   3.541   5.551  12.668
91331SOL     OW75889   6.377   6.362   9.795
91331SOL    HW175890   6.461   6.408   9.794
91331SOL    HW275891   6.399   6.272   9.819
91332SOL     OW75892   8.616   1.090   3.049
91332SOL    HW175893   8.562   1.070   3.125
91332SOL    HW275894   8.625   1.185   3.049
91333SOL     OW75895   2.774  12.835   0.483
91333SOL    HW175896   2.685  12.822   0.515
91333SOL    HW275897   2.772  12.919   0.436
91334SOL     OW75898   4.770   2.850   4.710
91334SOL    HW175899   4.684   2.867   4.672
91334SOL    HW275900   4.756   2.853   4.804
91335SOL     OW75901   9.043  12.454   0.033
91335SOL    HW175902   9.056  12.468  14.811
91335SOL    HW275903   8.982  12.523   0.059
91336SOL     OW75904   3.568   2.513   4.929
91336SOL    HW175905   3.654   2.524   4.968
91336SOL    HW275906   3.507   2.518   5.003
91337SOL     OW75907   9.529   0.678  10.129
91337SOL    HW175908   9.469   0.661  10.202
91337SOL    HW275909   9.472   0.701  10.056
91338SOL     OW75910  12.633   2.616   0.465
91338SOL    HW175911  12.659   2.663   0.545
91338SOL    HW275912  12.550   2.656   0.439
91339SOL     OW75913  11.573  12.749   8.770
91339SOL    HW175914  11.540  12.706   8.848
91339SOL    HW275915  11.543  12.840   8.778
91340SOL     OW75916   4.600  10.876  10.585
91340SOL    HW175917   4.679  10.859  10.535
91340SOL    HW275918   4.555  10.946  10.537
91341SOL     OW75919   9.427  11.418   5.087
91341SOL    HW175920   9.441  11.505   5.051
91341SOL    HW275921   9.509  11.371   5.071
91342SOL     OW75922  10.330   2.656  11.705
91342SOL    HW175923  10.410   2.604  11.692
91342SOL    HW275924  10.360   2.747  11.698
91343SOL     OW75925  10.043   5.648   5.538
91343SOL    HW175926  10.101   5.689   5.474
91343SOL    HW275927  10.063   5.693   5.620
91344SOL     OW75928   0.846  12.878   6.357
91344SOL    HW175929   0.815  12.848   6.443
91344SOL    HW275930   0.892  12.960   6.376
91345SOL     OW75931   9.575   4.889   3.693
91345SOL    HW175932   9.549   4.966   3.743
91345SOL    HW275933   9.548   4.909   3.603
91346SOL     OW75934   6.496   3.778  11.451
91346SOL    HW175935   6.413   3.782  11.404
91346SOL    HW275936   6.556   3.734  11.390
91347SOL     OW75937   7.273  14.467   3.058
91347SOL    HW175938   7.349  14.465   3.000
91347SOL    HW275939   7.310  14.467   3.146
91348SOL     OW75940  11.470   1.236   4.192
91348SOL    HW175941  11.465   1.146   4.224
91348SOL    HW275942  11.473   1.289   4.272
91349SOL     OW75943   9.709   0.502   0.748
91349SOL    HW175944   9.709   0.488   0.843
91349SOL    HW275945   9.743   0.420   0.712
91350SOL     OW75946   2.340   9.408   3.424
91350SOL    HW175947   2.391   9.376   3.499
91350SOL    HW275948   2.291   9.332   3.394
91351SOL     OW75949  10.817   7.242   5.238
91351SOL    HW175950  10.749   7.300   5.202
91351SOL    HW275951  10.782   7.215   5.323
91352SOL     OW75952   1.521   0.833   0.833
91352SOL    HW175953   1.537   0.742   0.809
91352SOL    HW275954   1.507   0.877   0.750
91353SOL     OW75955   1.126  11.663   9.139
91353SOL    HW175956   1.184  11.608   9.087
91353SOL    HW275957   1.180  11.695   9.211
91354SOL     OW75958   4.180  11.989   3.752
91354SOL    HW175959   4.138  12.072   3.776
91354SOL    HW275960   4.120  11.922   3.785
91355SOL     OW75961   3.034   4.961   0.611
91355SOL    HW175962   3.070   5.045   0.640
91355SOL    HW275963   3.097   4.930   0.546
91356SOL     OW75964  14.224  14.435   5.160
91356SOL    HW175965  14.156  14.372   5.134
91356SOL    HW275966  14.190  14.520   5.132
91357SOL     OW75967   2.831   4.262   1.632
91357SOL    HW175968   2.786   4.314   1.566
91357SOL    HW275969   2.841   4.322   1.707
91358SOL     OW75970  14.291   5.546   0.421
91358SOL    HW175971  14.270   5.453   0.430
91358SOL    HW275972  14.240   5.575   0.346
91359SOL     OW75973  13.930  11.801   0.841
91359SOL    HW175974  14.015  11.842   0.860
91359SOL    HW275975  13.931  11.787   0.746
91360SOL     OW75976   3.234   7.303   4.993
91360SOL    HW175977   3.176   7.245   5.041
91360SOL    HW275978   3.241   7.263   4.906
91361SOL     OW75979   2.928   1.972   3.092
91361SOL    HW175980   2.934   2.063   3.121
91361SOL    HW275981   2.974   1.971   3.008
91362SOL     OW75982   6.341   5.674   8.842
91362SOL    HW175983   6.308   5.585   8.834
91362SOL    HW275984   6.268   5.723   8.880
91363SOL     OW75985   7.814  11.307   9.536
91363SOL    HW175986   7.799  11.377   9.600
91363SOL    HW275987   7.734  11.254   9.539
91364SOL     OW75988   2.876  12.576   1.249
91364SOL    HW175989   2.790  12.587   1.206
91364SOL    HW275990   2.932  12.540   1.180
91365SOL     OW75991  10.573   9.233  12.979
91365SOL    HW175992  10.552   9.292  13.052
91365SOL    HW275993  10.503   9.168  12.981
91366SOL     OW75994   1.188  14.035  14.244
91366SOL    HW175995   1.220  13.959  14.292
91366SOL    HW275996   1.172  14.004  14.155
91367SOL     OW75997   9.950  12.854  13.665
91367SOL    HW175998   9.998  12.920  13.716
91367SOL    HW275999   9.969  12.876  13.574
91368SOL     OW76000   9.274   4.812  10.902
91368SOL    HW176001   9.253   4.819  10.809
91368SOL    HW276002   9.188   4.810  10.945
91369SOL     OW76003  11.283   2.602   8.569
91369SOL    HW176004  11.269   2.658   8.645
91369SOL    HW276005  11.200   2.556   8.558
91370SOL     OW76006   4.239   6.685  11.682
91370SOL    HW176007   4.143   6.696  11.686
91370SOL    HW276008   4.273   6.759  11.731
91371SOL     OW76009   6.194   5.213   7.404
91371SOL    HW176010   6.195   5.305   7.427
91371SOL    HW276011   6.254   5.206   7.329
91372SOL     OW76012   2.438   7.577  10.735
91372SOL    HW176013   2.516   7.601  10.785
91372SOL    HW276014   2.435   7.482  10.741
91373SOL     OW76015   3.252  11.462   3.434
91373SOL    HW176016   3.256  11.541   3.487
91373SOL    HW276017   3.320  11.405   3.470
91374SOL     OW76018  11.975  14.741   0.350
91374SOL    HW176019  12.024  14.819   0.326
91374SOL    HW276020  11.912  14.730   0.278
91375SOL     OW76021  12.216  10.211   2.787
91375SOL    HW176022  12.275  10.231   2.714
91375SOL    HW276023  12.184  10.296   2.817
91376SOL     OW76024  14.844  14.259  11.357
91376SOL    HW176025  14.854  14.165  11.343
91376SOL    HW276026   0.062  14.290  11.373
91377SOL     OW76027   5.019  13.699   6.649
91377SOL    HW176028   5.045  13.791   6.651
91377SOL    HW276029   4.941  13.695   6.704
91378SOL     OW76030   3.199  12.486   9.614
91378SOL    HW176031   3.117  12.442   9.591
91378SOL    HW276032   3.202  12.482   9.710
91379SOL     OW76033   4.653  14.696  13.152
91379SOL    HW176034   4.721  14.649  13.201
91379SOL    HW276035   4.694  14.715  13.068
91380SOL     OW76036   9.450   8.564   9.031
91380SOL    HW176037   9.511   8.563   8.958
91380SOL    HW276038   9.413   8.476   9.032
91381SOL     OW76039   5.748   8.843   4.199
91381SOL    HW176040   5.795   8.759   4.201
91381SOL    HW276041   5.666   8.823   4.154
91382SOL     OW76042  10.903  11.466   3.669
91382SOL    HW176043  10.811  11.464   3.695
91382SOL    HW276044  10.907  11.408   3.594
91383SOL     OW76045   6.108   9.456   7.362
91383SOL    HW176046   6.087   9.500   7.280
91383SOL    HW276047   6.188   9.407   7.344
91384SOL     OW76048   8.697   7.082  13.557
91384SOL    HW176049   8.618   7.078  13.504
91384SOL    HW276050   8.692   7.005  13.614
91385SOL     OW76051  14.235   2.920  10.662
91385SOL    HW176052  14.263   2.829  10.656
91385SOL    HW276053  14.149   2.917  10.702
91386SOL     OW76054   7.545   3.205  11.165
91386SOL    HW176055   7.635   3.188  11.193
91386SOL    HW276056   7.552   3.272  11.097
91387SOL     OW76057   4.665  11.482   1.107
91387SOL    HW176058   4.584  11.444   1.140
91387SOL    HW276059   4.637  11.554   1.051
91388SOL     OW76060   4.955   4.685   7.890
91388SOL    HW176061   4.907   4.629   7.951
91388SOL    HW276062   5.044   4.685   7.924
91389SOL     OW76063   7.991   6.321   3.685
91389SOL    HW176064   8.074   6.274   3.685
91389SOL    HW276065   7.953   6.303   3.771
91390SOL     OW76066   7.204   3.741  13.540
91390SOL    HW176067   7.148   3.685  13.593
91390SOL    HW276068   7.143   3.795  13.490
91391SOL     OW76069   1.974   9.913  14.538
91391SOL    HW176070   2.065   9.919  14.570
91391SOL    HW276071   1.936   9.999  14.558
91392SOL     OW76072   9.769   1.693  13.355
91392SOL    HW176073   9.786   1.605  13.322
91392SOL    HW276074   9.854   1.724  13.385
91393SOL     OW76075   9.342   0.531   1.145
91393SOL    HW176076   9.343   0.575   1.230
91393SOL    HW276077   9.331   0.602   1.081
91394SOL     OW76078   6.414   3.767  11.891
91394SOL    HW176079   6.385   3.852  11.857
91394SOL    HW276080   6.478   3.736  11.827
91395SOL     OW76081  10.119  12.181   3.559
91395SOL    HW176082  10.192  12.123   3.536
91395SOL    HW276083  10.147  12.267   3.528
91396SOL     OW76084  12.353   5.925   4.307
91396SOL    HW176085  12.292   5.998   4.320
91396SOL    HW276086  12.307   5.850   4.345
91397SOL     OW76087   5.807  10.545   8.801
91397SOL    HW176088   5.808  10.591   8.717
91397SOL    HW276089   5.810  10.452   8.778
91398SOL     OW76090   8.905  14.545   6.063
91398SOL    HW176091   8.899  14.470   6.003
91398SOL    HW276092   8.870  14.618   6.013
91399SOL     OW76093  10.039  11.174   4.081
91399SOL    HW176094  10.040  11.122   4.001
91399SOL    HW276095  10.077  11.258   4.056
91400SOL     OW76096   9.594   3.363   8.876
91400SOL    HW176097   9.555   3.323   8.953
91400SOL    HW276098   9.579   3.457   8.887
91401SOL     OW76099   6.667  12.673  10.461
91401SOL    HW176100   6.674  12.592  10.411
91401SOL    HW276101   6.579  12.670  10.499
91402SOL     OW76102  11.379  14.381   8.265
91402SOL    HW176103  11.415  14.401   8.351
91402SOL    HW276104  11.417  14.296   8.242
91403SOL     OW76105   6.568   3.633   8.565
91403SOL    HW176106   6.562   3.542   8.596
91403SOL    HW276107   6.511   3.635   8.488
91404SOL     OW76108   7.189   2.275  12.609
91404SOL    HW176109   7.164   2.343  12.671
91404SOL    HW276110   7.114   2.267  12.551
91405SOL     OW76111  13.326  12.072   7.226
91405SOL    HW176112  13.284  12.080   7.311
91405SOL    HW276113  13.325  11.978   7.208
91406SOL     OW76114  11.130  12.662   0.886
91406SOL    HW176115  11.132  12.628   0.796
91406SOL    HW276116  11.211  12.629   0.926
91407SOL     OW76117  14.176  12.855   8.255
91407SOL    HW176118  14.250  12.916   8.256
91407SOL    HW276119  14.118  12.887   8.324
91408SOL     OW76120   3.419   8.416   6.317
91408SOL    HW176121   3.481   8.371   6.259
91408SOL    HW276122   3.366   8.346   6.354
91409SOL     OW76123   0.994   2.051   3.093
91409SOL    HW176124   0.899   2.060   3.093
91409SOL    HW276125   1.009   1.960   3.067
91410SOL     OW76126   4.212   7.957   6.108
91410SOL    HW176127   4.240   8.032   6.159
91410SOL    HW276128   4.239   7.977   6.018
91411SOL     OW76129  14.101   9.037   6.430
91411SOL    HW176130  14.188   9.054   6.468
91411SOL    HW276131  14.090   9.104   6.363
91412SOL     OW76132   6.743   5.973   1.140
91412SOL    HW176133   6.764   5.922   1.062
91412SOL    HW276134   6.816   5.957   1.200
91413SOL     OW76135   9.767   0.825   1.031
91413SOL    HW176136   9.817   0.745   1.044
91413SOL    HW276137   9.680   0.805   1.065
91414SOL     OW76138   7.528   8.452  13.497
91414SOL    HW176139   7.495   8.369  13.532
91414SOL    HW276140   7.453   8.512  13.503
91415SOL     OW76141   8.029  11.691   9.978
91415SOL    HW176142   8.054  11.598   9.972
91415SOL    HW276143   8.109  11.739   9.957
91416SOL     OW76144   8.299   5.497   1.562
91416SOL    HW176145   8.326   5.583   1.594
91416SOL    HW276146   8.377   5.461   1.521
91417SOL     OW76147  12.752  14.226   2.307
91417SOL    HW176148  12.689  14.251   2.239
91417SOL    HW276149  12.735  14.287   2.379
91418SOL     OW76150   1.905  14.329   9.558
91418SOL    HW176151   1.982  14.385   9.545
91418SOL    HW276152   1.830  14.385   9.540
91419SOL     OW76153   7.879   6.678  14.666
91419SOL    HW176154   7.887   6.646  14.577
91419SOL    HW276155   7.896   6.602  14.721
91420SOL     OW76156   7.629  10.524  13.291
91420SOL    HW176157   7.585  10.472  13.224
91420SOL    HW276158   7.639  10.611  13.252
91421SOL     OW76159   2.422  11.060  10.423
91421SOL    HW176160   2.471  11.031  10.500
91421SOL    HW276161   2.467  11.140  10.395
91422SOL     OW76162   6.942   7.626   1.375
91422SOL    HW176163   6.857   7.611   1.416
91422SOL    HW276164   6.938   7.717   1.345
91423SOL     OW76165   4.275   9.067   9.876
91423SOL    HW176166   4.348   9.107   9.923
91423SOL    HW276167   4.199   9.122   9.897
91424SOL     OW76168   6.929  14.850   7.381
91424SOL    HW176169   6.846  14.868   7.337
91424SOL    HW276170   6.973  14.787   7.324
91425SOL     OW76171   4.980   7.680   3.472
91425SOL    HW176172   4.996   7.609   3.534
91425SOL    HW276173   5.000   7.643   3.387
91426SOL     OW76174   8.034   9.675   1.364
91426SOL    HW176175   8.111   9.643   1.410
91426SOL    HW276176   8.033   9.628   1.281
91427SOL     OW76177   0.872   4.253   8.247
91427SOL    HW176178   0.955   4.225   8.286
91427SOL    HW276179   0.819   4.173   8.245
91428SOL     OW76180   5.413   6.970   4.140
91428SOL    HW176181   5.356   7.044   4.162
91428SOL    HW276182   5.408   6.912   4.216
91429SOL     OW76183   6.310   6.715   9.863
91429SOL    HW176184   6.372   6.703   9.935
91429SOL    HW276185   6.362   6.753   9.792
91430SOL     OW76186  11.794   9.235  11.504
91430SOL    HW176187  11.822   9.175  11.435
91430SOL    HW276188  11.875   9.259  11.550
91431SOL     OW76189   7.805   6.278   3.128
91431SOL    HW176190   7.722   6.249   3.165
91431SOL    HW276191   7.806   6.243   3.039
91432SOL     OW76192   5.872  11.294   4.848
91432SOL    HW176193   5.945  11.240   4.820
91432SOL    HW276194   5.902  11.384   4.835
91433SOL     OW76195   7.394  13.281  10.972
91433SOL    HW176196   7.423  13.196  10.938
91433SOL    HW276197   7.300  13.270  10.986
91434SOL     OW76198  11.902  11.119   5.782
91434SOL    HW176199  11.902  11.212   5.805
91434SOL    HW276200  11.924  11.074   5.864
91435SOL     OW76201   7.415   1.212  10.830
91435SOL    HW176202   7.353   1.254  10.771
91435SOL    HW276203   7.442   1.280  10.891
91436SOL     OW76204  13.260   8.115   8.668
91436SOL    HW176205  13.250   8.054   8.594
91436SOL    HW276206  13.272   8.058   8.744
91437SOL     OW76207   6.680  10.635   9.204
91437SOL    HW176208   6.630  10.619   9.284
91437SOL    HW276209   6.725  10.718   9.220
91438SOL     OW76210   0.682   9.271  14.287
91438SOL    HW176211   0.740   9.319  14.347
91438SOL    HW276212   0.594   9.292  14.318
91439SOL     OW76213  14.344   4.900  12.089
91439SOL    HW176214  14.400   4.974  12.112
91439SOL    HW276215  14.368   4.879  11.998
91440SOL     OW76216   4.184   1.572  11.673
91440SOL    HW176217   4.249   1.611  11.615
91440SOL    HW276218   4.176   1.634  11.746
91441SOL     OW76219   0.872   9.578   6.617
91441SOL    HW176220   0.883   9.501   6.672
91441SOL    HW276221   0.801   9.555   6.558
91442SOL     OW76222   8.814   3.307   9.245
91442SOL    HW176223   8.771   3.228   9.278
91442SOL    HW276224   8.892   3.274   9.199
91443SOL     OW76225   0.102  14.520   5.115
91443SOL    HW176226   0.023  14.558   5.075
91443SOL    HW276227   0.072  14.484   5.199
91444SOL     OW76228   6.517  12.449   1.458
91444SOL    HW176229   6.512  12.355   1.470
91444SOL    HW276230   6.495  12.463   1.366
91445SOL     OW76231   2.750   8.788   5.763
91445SOL    HW176232   2.822   8.740   5.804
91445SOL    HW276233   2.750   8.874   5.805
91446SOL     OW76234  13.375  12.301   0.956
91446SOL    HW176235  13.380  12.216   0.912
91446SOL    HW276236  13.281  12.320   0.961
91447SOL     OW76237   2.775   0.398   0.261
91447SOL    HW176238   2.691   0.430   0.227
91447SOL    HW276239   2.783   0.309   0.227
91448SOL     OW76240   8.664   3.053   1.572
91448SOL    HW176241   8.740   3.035   1.626
91448SOL    HW276242   8.635   2.967   1.540
91449SOL     OW76243   5.661  12.432   0.728
91449SOL    HW176244   5.734  12.490   0.751
91449SOL    HW276245   5.585  12.490   0.724
91450SOL     OW76246   2.813   0.457  11.884
91450SOL    HW176247   2.785   0.368  11.905
91450SOL    HW276248   2.878   0.446  11.814
91451SOL     OW76249   4.720  11.122  11.735
91451SOL    HW176250   4.720  11.038  11.688
91451SOL    HW276251   4.760  11.102  11.819
91452SOL     OW76252   8.219   8.812   9.705
91452SOL    HW176253   8.140   8.764   9.682
91452SOL    HW276254   8.280   8.745   9.735
91453SOL     OW76255   2.204   1.718   1.754
91453SOL    HW176256   2.217   1.777   1.828
91453SOL    HW276257   2.117   1.681   1.768
91454SOL     OW76258   2.388  10.965  11.044
91454SOL    HW176259   2.474  11.007  11.042
91454SOL    HW276260   2.374  10.942  11.135
91455SOL     OW76261  10.009   6.524   3.297
91455SOL    HW176262   9.938   6.468   3.329
91455SOL    HW276263  10.086   6.494   3.345
91456SOL     OW76264  13.653   2.293  11.362
91456SOL    HW176265  13.621   2.290  11.452
91456SOL    HW276266  13.746   2.315  11.369
91457SOL     OW76267  13.548  14.815   8.875
91457SOL    HW176268  13.566   0.005   8.804
91457SOL    HW276269  13.514  14.737   8.832
91458SOL     OW76270   0.226   3.609  13.885
91458SOL    HW176271   0.131   3.605  13.884
91458SOL    HW276272   0.252   3.590  13.795
91459SOL     OW76273   7.239   3.488   1.210
91459SOL    HW176274   7.216   3.436   1.287
91459SOL    HW276275   7.330   3.464   1.191
91460SOL     OW76276   0.881  13.963  10.675
91460SOL    HW176277   0.861  14.034  10.736
91460SOL    HW276278   0.796  13.926  10.651
91461SOL     OW76279  10.605   2.997   1.629
91461SOL    HW176280  10.555   2.916   1.624
91461SOL    HW276281  10.539   3.066   1.631
91462SOL     OW76282  10.675  13.888  12.239
91462SOL    HW176283  10.748  13.942  12.209
91462SOL    HW276284  10.716  13.820  12.292
91463SOL     OW76285   6.999   7.273   3.692
91463SOL    HW176286   6.973   7.227   3.772
91463SOL    HW276287   6.998   7.207   3.624
91464SOL     OW76288  14.496   7.205   6.230
91464SOL    HW176289  14.532   7.117   6.244
91464SOL    HW276290  14.422   7.192   6.171
91465SOL     OW76291   9.447  12.869   8.824
91465SOL    HW176292   9.536  12.893   8.851
91465SOL    HW276293   9.459  12.825   8.739
91466SOL     OW76294   6.222  12.248   4.104
91466SOL    HW176295   6.269  12.194   4.041
91466SOL    HW276296   6.277  12.325   4.115
91467SOL     OW76297   4.045   9.146   5.558
91467SOL    HW176298   3.952   9.171   5.558
91467SOL    HW276299   4.050   9.074   5.621
91468SOL     OW76300   1.942  10.544  13.967
91468SOL    HW176301   1.970  10.631  13.938
91468SOL    HW276302   1.903  10.559  14.053
91469SOL     OW76303   9.327   3.036   2.618
91469SOL    HW176304   9.346   3.124   2.584
91469SOL    HW276305   9.232   3.030   2.617
91470SOL     OW76306  13.287   4.039  14.701
91470SOL    HW176307  13.339   4.120  14.700
91470SOL    HW276308  13.208   4.061  14.652
91471SOL     OW76309  12.519   6.729   1.445
91471SOL    HW176310  12.528   6.633   1.441
91471SOL    HW276311  12.450   6.749   1.381
91472SOL     OW76312   0.417  12.074   8.145
91472SOL    HW176313   0.324  12.068   8.124
91472SOL    HW276314   0.461  12.056   8.062
91473SOL     OW76315   6.046   9.221   6.406
91473SOL    HW176316   6.065   9.313   6.425
91473SOL    HW276317   6.053   9.178   6.491
91474SOL     OW76318   3.878   0.740   7.290
91474SOL    HW176319   3.920   0.824   7.305
91474SOL    HW276320   3.789   0.751   7.324
91475SOL     OW76321   2.226  13.259   0.735
91475SOL    HW176322   2.242  13.178   0.784
91475SOL    HW276323   2.185  13.230   0.653
91476SOL     OW76324   9.585  13.741   9.765
91476SOL    HW176325   9.493  13.714   9.772
91476SOL    HW276326   9.611  13.713   9.677
91477SOL     OW76327   8.642  10.106  13.946
91477SOL    HW176328   8.583  10.181  13.939
91477SOL    HW276329   8.672  10.090  13.857
91478SOL     OW76330   4.215  10.313   9.720
91478SOL    HW176331   4.133  10.302   9.670
91478SOL    HW276332   4.186  10.328   9.810
91479SOL     OW76333   9.137  10.867   9.772
91479SOL    HW176334   9.105  10.909   9.852
91479SOL    HW276335   9.088  10.910   9.702
91480SOL     OW76336  11.757   3.530   3.467
91480SOL    HW176337  11.751   3.436   3.450
91480SOL    HW276338  11.826   3.538   3.533
91481SOL     OW76339   0.845   7.032  12.326
91481SOL    HW176340   0.927   6.985  12.341
91481SOL    HW276341   0.870   7.111  12.279
91482SOL     OW76342   6.413   9.581  13.227
91482SOL    HW176343   6.424   9.488  13.209
91482SOL    HW276344   6.502   9.617  13.223
91483SOL     OW76345   4.090  12.031  10.256
91483SOL    HW176346   4.119  11.968  10.322
91483SOL    HW276347   4.116  12.116  10.292
91484SOL     OW76348   6.888   3.045  12.887
91484SOL    HW176349   6.926   3.081  12.808
91484SOL    HW276350   6.955   3.056  12.954
91485SOL     OW76351   9.727   7.713  10.921
91485SOL    HW176352   9.767   7.753  10.998
91485SOL    HW276353   9.797   7.711  10.856
91486SOL     OW76354  14.147  14.220   1.317
91486SOL    HW176355  14.134  14.158   1.390
91486SOL    HW276356  14.202  14.172   1.255
91487SOL     OW76357   7.397   2.694  14.049
91487SOL    HW176358   7.415   2.785  14.026
91487SOL    HW276359   7.435   2.644  13.976
91488SOL     OW76360  13.347   6.784   0.004
91488SOL    HW176361  13.253   6.791   0.017
91488SOL    HW276362  13.376   6.874  14.859
91489SOL     OW76363  10.092   6.537   8.114
91489SOL    HW176364  10.066   6.613   8.063
91489SOL    HW276365  10.093   6.568   8.205
91490SOL     OW76366   8.778  10.490   3.351
91490SOL    HW176367   8.739  10.565   3.395
91490SOL    HW276368   8.826  10.528   3.277
91491SOL     OW76369   0.193  11.432   7.838
91491SOL    HW176370   0.273  11.407   7.883
91491SOL    HW276371   0.123  11.387   7.886
91492SOL     OW76372   4.526   6.247   1.847
91492SOL    HW176373   4.559   6.329   1.810
91492SOL    HW276374   4.558   6.247   1.937
91493SOL     OW76375  10.590  13.949  14.497
91493SOL    HW176376  10.640  13.940  14.416
91493SOL    HW276377  10.521  13.884  14.490
91494SOL     OW76378  14.471   0.053  11.585
91494SOL    HW176379  14.383   0.054  11.548
91494SOL    HW276380  14.471   0.124  11.649
91495SOL     OW76381   6.539   4.330   5.163
91495SOL    HW176382   6.623   4.287   5.181
91495SOL    HW276383   6.504   4.351   5.249
91496SOL     OW76384  14.502  14.079  13.811
91496SOL    HW176385  14.524  14.171  13.825
91496SOL    HW276386  14.572  14.045  13.755
91497SOL     OW76387  14.774   0.610   9.493
91497SOL    HW176388  14.808   0.662   9.566
91497SOL    HW276389  14.801   0.658   9.415
91498SOL     OW76390   2.262   2.087   5.917
91498SOL    HW176391   2.255   2.169   5.868
91498SOL    HW276392   2.174   2.049   5.913
91499SOL     OW76393   3.280   8.362   7.051
91499SOL    HW176394   3.247   8.445   7.083
91499SOL    HW276395   3.360   8.346   7.101
91500SOL     OW76396  10.587  14.218  10.999
91500SOL    HW176397  10.533  14.297  11.012
91500SOL    HW276398  10.676  14.251  10.989
91501SOL     OW76399   9.483  13.547  12.841
91501SOL    HW176400   9.458  13.455  12.830
91501SOL    HW276401   9.425  13.595  12.782
91502SOL     OW76402   4.918   7.575   4.668
91502SOL    HW176403   4.934   7.588   4.575
91502SOL    HW276404   4.998   7.608   4.710
91503SOL     OW76405  12.027   9.816   0.310
91503SOL    HW176406  12.115   9.794   0.278
91503SOL    HW276407  11.998   9.738   0.356
91504SOL     OW76408  11.097   7.091   0.332
91504SOL    HW176409  11.029   7.058   0.391
91504SOL    HW276410  11.050   7.124   0.256
91505SOL     OW76411   7.060  11.808   6.985
91505SOL    HW176412   7.117  11.731   6.988
91505SOL    HW276413   7.039  11.818   6.892
91506SOL     OW76414   4.456  11.586   0.533
91506SOL    HW176415   4.379  11.640   0.515
91506SOL    HW276416   4.485  11.556   0.447
91507SOL     OW76417  10.681  10.687  10.398
91507SOL    HW176418  10.698  10.599  10.430
91507SOL    HW276419  10.671  10.740  10.476
91508SOL     OW76420   3.466   3.420  13.509
91508SOL    HW176421   3.383   3.395  13.549
91508SOL    HW276422   3.530   3.409  13.579
91509SOL     OW76423   6.545   1.252   2.114
91509SOL    HW176424   6.503   1.308   2.049
91509SOL    HW276425   6.611   1.307   2.155
91510SOL     OW76426  11.623   4.674  14.213
91510SOL    HW176427  11.685   4.708  14.278
91510SOL    HW276428  11.621   4.741  14.145
91511SOL     OW76429   8.841   8.774  13.605
91511SOL    HW176430   8.825   8.866  13.583
91511SOL    HW276431   8.861   8.775  13.698
91512SOL     OW76432   3.175   8.170   6.382
91512SOL    HW176433   3.198   8.119   6.460
91512SOL    HW276434   3.177   8.107   6.310
91513SOL     OW76435   9.480  11.005  13.918
91513SOL    HW176436   9.402  11.051  13.886
91513SOL    HW276437   9.456  10.974  14.005
91514SOL     OW76438   2.707   4.543   5.850
91514SOL    HW176439   2.777   4.531   5.916
91514SOL    HW276440   2.754   4.546   5.767
91515SOL     OW76441   4.356   6.274   6.351
91515SOL    HW176442   4.386   6.243   6.265
91515SOL    HW276443   4.411   6.228   6.414
91516SOL     OW76444  11.251  10.207   7.908
91516SOL    HW176445  11.213  10.228   7.994
91516SOL    HW276446  11.343  10.230   7.917
91517SOL     OW76447  10.590   3.052  14.841
91517SOL    HW176448  10.527   2.982  14.857
91517SOL    HW276449  10.537   3.132  14.844
91518SOL     OW76450   3.171   6.631   1.785
91518SOL    HW176451   3.163   6.564   1.717
91518SOL    HW276452   3.233   6.594   1.848
91519SOL     OW76453   4.014   3.214   8.349
91519SOL    HW176454   3.920   3.213   8.363
91519SOL    HW276455   4.034   3.129   8.309
91520SOL     OW76456  12.207  12.505  14.412
91520SOL    HW176457  12.297  12.481  14.436
91520SOL    HW276458  12.216  12.592  14.372
91521SOL     OW76459   3.772   9.863   3.584
91521SOL    HW176460   3.767   9.779   3.537
91521SOL    HW276461   3.683   9.897   3.581
91522SOL     OW76462   6.148  12.450   8.259
91522SOL    HW176463   6.075  12.390   8.244
91522SOL    HW276464   6.220  12.393   8.285
91523SOL     OW76465  10.370  11.791  11.950
91523SOL    HW176466  10.286  11.816  11.912
91523SOL    HW276467  10.436  11.827  11.890
91524SOL     OW76468  14.273   1.134   3.670
91524SOL    HW176469  14.287   1.163   3.580
91524SOL    HW276470  14.359   1.103   3.698
91525SOL     OW76471  10.129  12.368   0.138
91525SOL    HW176472  10.221  12.356   0.116
91525SOL    HW276473  10.119  12.326   0.223
91526SOL     OW76474   7.387   6.222   8.357
91526SOL    HW176475   7.479   6.249   8.357
91526SOL    HW276476   7.359   6.233   8.448
91527SOL     OW76477   7.826  14.077   2.493
91527SOL    HW176478   7.754  14.030   2.535
91527SOL    HW276479   7.899  14.015   2.495
91528SOL     OW76480  12.241   1.091   2.441
91528SOL    HW176481  12.267   1.000   2.454
91528SOL    HW276482  12.295   1.120   2.368
91529SOL     OW76483   3.395  13.798   9.933
91529SOL    HW176484   3.322  13.797   9.871
91529SOL    HW276485   3.394  13.710   9.972
91530SOL     OW76486   5.695  11.045  11.818
91530SOL    HW176487   5.625  10.982  11.800
91530SOL    HW276488   5.667  11.089  11.899
91531SOL     OW76489   3.673  10.160   8.579
91531SOL    HW176490   3.590  10.173   8.532
91531SOL    HW276491   3.659  10.080   8.629
91532SOL     OW76492   6.355  10.179   0.541
91532SOL    HW176493   6.401  10.263   0.543
91532SOL    HW276494   6.421  10.115   0.565
91533SOL     OW76495   1.231   3.886   7.031
91533SOL    HW176496   1.211   3.899   7.124
91533SOL    HW276497   1.313   3.837   7.031
91534SOL     OW76498  13.167   9.044   5.525
91534SOL    HW176499  13.100   9.050   5.457
91534SOL    HW276500  13.119   9.053   5.607
91535SOL     OW76501   6.158   9.530   4.816
91535SOL    HW176502   6.212   9.539   4.737
91535SOL    HW276503   6.209   9.575   4.884
91536SOL     OW76504  13.845   3.895   7.647
91536SOL    HW176505  13.934   3.905   7.613
91536SOL    HW276506  13.800   3.974   7.618
91537SOL     OW76507   9.738   0.893   3.275
91537SOL    HW176508   9.702   0.966   3.226
91537SOL    HW276509   9.681   0.819   3.254
91538SOL     OW76510   8.185   9.373  11.115
91538SOL    HW176511   8.250   9.380  11.045
91538SOL    HW276512   8.235   9.352  11.193
91539SOL     OW76513   6.396   3.120  11.636
91539SOL    HW176514   6.386   3.215  11.638
91539SOL    HW276515   6.440   3.098  11.718
91540SOL     OW76516  14.280  10.603   0.514
91540SOL    HW176517  14.242  10.689   0.495
91540SOL    HW276518  14.225  10.568   0.584
91541SOL     OW76519   9.636  11.581   6.821
91541SOL    HW176520   9.709  11.568   6.760
91541SOL    HW276521   9.664  11.539   6.902
91542SOL     OW76522   7.886   2.256   4.844
91542SOL    HW176523   7.953   2.279   4.908
91542SOL    HW276524   7.936   2.241   4.763
91543SOL     OW76525   1.987   5.207   8.682
91543SOL    HW176526   1.934   5.213   8.603
91543SOL    HW276527   1.998   5.113   8.696
91544SOL     OW76528   8.251  14.588   0.985
91544SOL    HW176529   8.275  14.519   0.923
91544SOL    HW276530   8.163  14.564   1.013
91545SOL     OW76531  14.657  11.575   4.167
91545SOL    HW176532  14.678  11.490   4.128
91545SOL    HW276533  14.582  11.556   4.224
91546SOL     OW76534  12.504   0.432   8.294
91546SOL    HW176535  12.584   0.410   8.342
91546SOL    HW276536  12.507   0.377   8.216
91547SOL     OW76537  12.373   8.003  14.067
91547SOL    HW176538  12.344   8.080  14.019
91547SOL    HW276539  12.293   7.958  14.093
91548SOL     OW76540  14.161   2.150   2.770
91548SOL    HW176541  14.248   2.160   2.808
91548SOL    HW276542  14.169   2.078   2.708
91549SOL     OW76543  11.691   6.721   6.288
91549SOL    HW176544  11.771   6.672   6.305
91549SOL    HW276545  11.710   6.770   6.208
91550SOL     OW76546   8.217   3.524   7.950
91550SOL    HW176547   8.217   3.610   7.991
91550SOL    HW276548   8.310   3.503   7.940
91551SOL     OW76549  13.418   6.557  13.126
91551SOL    HW176550  13.455   6.642  13.104
91551SOL    HW276551  13.495   6.501  13.140
91552SOL     OW76552  11.071  12.570   4.963
91552SOL    HW176553  11.129  12.504   4.925
91552SOL    HW276554  11.122  12.651   4.957
91553SOL     OW76555   6.953   2.282  11.467
91553SOL    HW176556   6.963   2.371  11.433
91553SOL    HW276557   6.866   2.281  11.505
91554SOL     OW76558   0.466   5.866   4.065
91554SOL    HW176559   0.453   5.866   3.970
91554SOL    HW276560   0.533   5.933   4.080
91555SOL     OW76561   5.642  10.933   7.158
91555SOL    HW176562   5.710  10.900   7.099
91555SOL    HW276563   5.681  10.927   7.245
91556SOL     OW76564   2.818  10.546  13.606
91556SOL    HW176565   2.909  10.571  13.590
91556SOL    HW276566   2.822  10.489  13.682
91557SOL     OW76567   7.190   4.927   7.613
91557SOL    HW176568   7.108   4.930   7.564
91557SOL    HW276569   7.164   4.921   7.704
91558SOL     OW76570  14.553   6.000   1.960
91558SOL    HW176571  14.483   6.055   1.924
91558SOL    HW276572  14.630   6.022   1.908
91559SOL     OW76573   3.524   1.688   4.168
91559SOL    HW176574   3.611   1.715   4.195
91559SOL    HW276575   3.525   1.695   4.072
91560SOL     OW76576   3.809   9.450   4.728
91560SOL    HW176577   3.894   9.443   4.686
91560SOL    HW276578   3.818   9.400   4.809
91561SOL     OW76579   6.055  12.627   7.249
91561SOL    HW176580   6.082  12.553   7.302
91561SOL    HW276581   6.137  12.665   7.218
91562SOL     OW76582  11.820  11.164   5.130
91562SOL    HW176583  11.885  11.215   5.082
91562SOL    HW276584  11.763  11.127   5.062
91563SOL     OW76585   2.639   9.271  10.956
91563SOL    HW176586   2.545   9.263  10.968
91563SOL    HW276587   2.656   9.238  10.868
91564SOL     OW76588   4.323   1.453   6.637
91564SOL    HW176589   4.338   1.386   6.704
91564SOL    HW276590   4.395   1.516   6.649
91565SOL     OW76591  12.160   0.252   1.771
91565SOL    HW176592  12.176   0.346   1.763
91565SOL    HW276593  12.230   0.211   1.720
91566SOL     OW76594  10.144   4.313   0.573
91566SOL    HW176595  10.059   4.333   0.613
91566SOL    HW276596  10.207   4.364   0.624
91567SOL     OW76597  14.588   8.668   1.919
91567SOL    HW176598  14.638   8.695   1.842
91567SOL    HW276599  14.650   8.619   1.973
91568SOL     OW76600   8.328  11.993  10.707
91568SOL    HW176601   8.240  12.028  10.694
91568SOL    HW276602   8.372  12.007  10.623
91569SOL     OW76603   2.975   9.870  14.305
91569SOL    HW176604   3.003   9.866  14.397
91569SOL    HW276605   2.894   9.818  14.303
91570SOL     OW76606  12.578   4.087   9.864
91570SOL    HW176607  12.648   4.023   9.878
91570SOL    HW276608  12.517   4.071   9.936
91571SOL     OW76609   7.099   9.574   7.303
91571SOL    HW176610   7.183   9.574   7.349
91571SOL    HW276611   7.055   9.494   7.333
91572SOL     OW76612   8.577   4.379   7.304
91572SOL    HW176613   8.570   4.283   7.313
91572SOL    HW276614   8.500   4.404   7.253
91573SOL     OW76615   1.842  11.259   5.511
91573SOL    HW176616   1.889  11.339   5.487
91573SOL    HW276617   1.798  11.280   5.593
91574SOL     OW76618   1.950  12.788  11.719
91574SOL    HW176619   2.032  12.837  11.723
91574SOL    HW276620   1.975  12.701  11.686
91575SOL     OW76621   7.411   0.734  14.444
91575SOL    HW176622   7.453   0.766  14.364
91575SOL    HW276623   7.325   0.775  14.444
91576SOL     OW76624  13.663  12.713  12.595
91576SOL    HW176625  13.713  12.792  12.573
91576SOL    HW276626  13.665  12.709  12.690
91577SOL     OW76627  10.140  14.776  11.704
91577SOL    HW176628  10.054  14.755  11.668
91577SOL    HW276629  10.174  14.692  11.735
91578SOL     OW76630   5.593   7.135   4.985
91578SOL    HW176631   5.507   7.132   4.943
91578SOL    HW276632   5.631   7.049   4.968
91579SOL     OW76633  10.179   1.071   0.901
91579SOL    HW176634  10.166   1.065   0.995
91579SOL    HW276635  10.240   1.145   0.890
91580SOL     OW76636   9.553  10.001  10.607
91580SOL    HW176637   9.479   9.960  10.562
91580SOL    HW276638   9.629   9.951  10.578
91581SOL     OW76639   7.781   1.451   2.885
91581SOL    HW176640   7.835   1.393   2.939
91581SOL    HW276641   7.723   1.494   2.947
91582SOL     OW76642   5.532   6.493   3.584
91582SOL    HW176643   5.547   6.400   3.603
91582SOL    HW276644   5.447   6.512   3.622
91583SOL     OW76645  13.357   3.409  11.468
91583SOL    HW176646  13.379   3.488  11.419
91583SOL    HW276647  13.279   3.432  11.518
91584SOL     OW76648   8.206  13.485   5.136
91584SOL    HW176649   8.261  13.542   5.082
91584SOL    HW276650   8.231  13.505   5.226
91585SOL     OW76651  13.042   2.052   7.365
91585SOL    HW176652  13.014   2.141   7.344
91585SOL    HW276653  12.988   2.027   7.440
91586SOL     OW76654   7.347   0.653   2.283
91586SOL    HW176655   7.347   0.689   2.372
91586SOL    HW276656   7.286   0.709   2.235
91587SOL     OW76657   1.129   3.324  10.570
91587SOL    HW176658   1.219   3.298  10.548
91587SOL    HW276659   1.092   3.352  10.486
91588SOL     OW76660   5.069   0.796   6.969
91588SOL    HW176661   5.040   0.805   7.060
91588SOL    HW276662   4.989   0.784   6.919
91589SOL     OW76663   8.798   9.830  12.636
91589SOL    HW176664   8.866   9.861  12.576
91589SOL    HW276665   8.723   9.813  12.580
91590SOL     OW76666   0.750   9.987   5.376
91590SOL    HW176667   0.737   9.892   5.377
91590SOL    HW276668   0.774  10.009   5.466
91591SOL     OW76669   2.292   3.151   6.944
91591SOL    HW176670   2.323   3.094   7.014
91591SOL    HW276671   2.357   3.140   6.874
91592SOL     OW76672  12.874   2.820  10.836
91592SOL    HW176673  12.821   2.890  10.797
91592SOL    HW276674  12.963   2.856  10.839
91593SOL     OW76675   7.138   5.479   6.444
91593SOL    HW176676   7.055   5.462   6.401
91593SOL    HW276677   7.136   5.572   6.465
91594SOL     OW76678  14.600  12.572  12.668
91594SOL    HW176679  14.679  12.613  12.701
91594SOL    HW276680  14.556  12.537  12.746
91595SOL     OW76681   8.168   4.820   1.369
91595SOL    HW176682   8.161   4.738   1.321
91595SOL    HW276683   8.262   4.836   1.376
91596SOL     OW76684  11.997  13.934  11.270
91596SOL    HW176685  12.084  13.951  11.304
91596SOL    HW276686  11.987  13.997  11.198
91597SOL     OW76687   3.298   7.481   5.394
91597SOL    HW176688   3.247   7.403   5.373
91597SOL    HW276689   3.263   7.511   5.477
91598SOL     OW76690  12.539   5.454   5.912
91598SOL    HW176691  12.461   5.413   5.948
91598SOL    HW276692  12.611   5.396   5.938
91599SOL     OW76693   0.868   9.306   6.729
91599SOL    HW176694   0.784   9.281   6.692
91599SOL    HW276695   0.851   9.316   6.823
91600SOL     OW76696   0.599  11.554   4.221
91600SOL    HW176697   0.548  11.579   4.298
91600SOL    HW276698   0.534  11.541   4.152
91601SOL     OW76699   7.404   1.278   9.966
91601SOL    HW176700   7.319   1.290  10.008
91601SOL    HW276701   7.403   1.187   9.935
91602SOL     OW76702  14.703   2.590  11.082
91602SOL    HW176703  14.717   2.607  10.988
91602SOL    HW276704  14.610   2.605  11.095
91603SOL     OW76705   4.729  10.643   0.426
91603SOL    HW176706   4.711  10.699   0.502
91603SOL    HW276707   4.721  10.554   0.460
91604SOL     OW76708   9.810   0.737   8.261
91604SOL    HW176709   9.901   0.739   8.292
91604SOL    HW276710   9.805   0.808   8.197
91605SOL     OW76711   0.310   1.299   8.850
91605SOL    HW176712   0.392   1.252   8.834
91605SOL    HW276713   0.323   1.386   8.812
91606SOL     OW76714   4.625   8.793   9.499
91606SOL    HW176715   4.638   8.700   9.518
91606SOL    HW276716   4.605   8.832   9.584
91607SOL     OW76717   1.263  11.964   4.905
91607SOL    HW176718   1.266  12.046   4.855
91607SOL    HW276719   1.354  11.933   4.904
91608SOL     OW76720   2.616   5.085   1.368
91608SOL    HW176721   2.701   5.112   1.334
91608SOL    HW276722   2.557   5.093   1.294
91609SOL     OW76723  13.800   9.452  10.619
91609SOL    HW176724  13.788   9.518  10.551
91609SOL    HW276725  13.885   9.411  10.599
91610SOL     OW76726  12.105   8.302  12.531
91610SOL    HW176727  12.017   8.269  12.515
91610SOL    HW276728  12.132   8.341  12.448
91611SOL     OW76729   2.649   3.006  13.395
91611SOL    HW176730   2.570   2.986  13.345
91611SOL    HW276731   2.693   3.073  13.345
91612SOL     OW76732   5.209   9.051  13.407
91612SOL    HW176733   5.131   9.103  13.429
91612SOL    HW276734   5.270   9.115  13.370
91613SOL     OW76735   1.772  13.084   5.154
91613SOL    HW176736   1.742  13.121   5.071
91613SOL    HW276737   1.709  13.116   5.219
91614SOL     OW76738   6.025   6.358   3.727
91614SOL    HW176739   6.044   6.429   3.788
91614SOL    HW276740   6.002   6.284   3.782
91615SOL     OW76741   7.827  11.172  11.704
91615SOL    HW176742   7.734  11.156  11.718
91615SOL    HW276743   7.838  11.166  11.609
91616SOL     OW76744   8.559   8.053   8.729
91616SOL    HW176745   8.578   7.980   8.789
91616SOL    HW276746   8.545   8.011   8.644
91617SOL     OW76747  12.134  10.336   1.009
91617SOL    HW176748  12.182  10.415   0.983
91617SOL    HW276749  12.153  10.273   0.940
91618SOL     OW76750   9.721   4.610  13.163
91618SOL    HW176751   9.720   4.517  13.141
91618SOL    HW276752   9.671   4.616  13.244
91619SOL     OW76753   9.005  11.321   1.813
91619SOL    HW176754   8.959  11.385   1.758
91619SOL    HW276755   9.058  11.375   1.872
91620SOL     OW76756   5.087   7.110   0.902
91620SOL    HW176757   5.072   7.200   0.872
91620SOL    HW276758   5.129   7.066   0.828
91621SOL     OW76759  10.071  13.952   9.046
91621SOL    HW176760  10.095  13.878   8.990
91621SOL    HW276761  10.110  14.028   9.003
91622SOL     OW76762   4.330  14.051  11.004
91622SOL    HW176763   4.352  14.045  11.097
91622SOL    HW276764   4.267  13.981  10.989
91623SOL     OW76765   2.533  10.055  11.651
91623SOL    HW176766   2.616  10.063  11.698
91623SOL    HW276767   2.477  10.121  11.690
91624SOL     OW76768   4.086  10.958   1.051
91624SOL    HW176769   4.016  10.937   0.990
91624SOL    HW276770   4.081  10.890   1.118
91625SOL     OW76771  13.174   0.535   0.946
91625SOL    HW176772  13.084   0.501   0.947
91625SOL    HW276773  13.192   0.557   1.037
91626SOL     OW76774  10.884  10.185  12.207
91626SOL    HW176775  10.950  10.116  12.220
91626SOL    HW276776  10.800  10.139  12.207
91627SOL     OW76777  13.085   0.485   5.337
91627SOL    HW176778  13.034   0.549   5.286
91627SOL    HW276779  13.039   0.480   5.421
91628SOL     OW76780   6.633   6.959  12.240
91628SOL    HW176781   6.639   6.868  12.212
91628SOL    HW276782   6.720   6.980  12.275
91629SOL     OW76783   2.816  12.445  13.615
91629SOL    HW176784   2.846  12.360  13.582
91629SOL    HW276785   2.863  12.509  13.561
91630SOL     OW76786   2.718   0.251   0.470
91630SOL    HW176787   2.764   0.305   0.406
91630SOL    HW276788   2.630   0.240   0.434
91631SOL     OW76789   7.317   5.404  13.410
91631SOL    HW176790   7.239   5.351  13.425
91631SOL    HW276791   7.390   5.346  13.431
91632SOL     OW76792   8.423   9.259   0.257
91632SOL    HW176793   8.427   9.194   0.327
91632SOL    HW276794   8.470   9.335   0.292
91633SOL     OW76795   4.093   3.004  11.471
91633SOL    HW176796   4.175   2.956  11.468
91633SOL    HW276797   4.034   2.949  11.523
91634SOL     OW76798   9.641  10.559   5.243
91634SOL    HW176799   9.712  10.520   5.293
91634SOL    HW276800   9.626  10.498   5.171
91635SOL     OW76801   9.879  11.819   0.452
91635SOL    HW176802   9.895  11.873   0.375
91635SOL    HW276803   9.788  11.791   0.443
91636SOL     OW76804   5.247   0.893   7.885
91636SOL    HW176805   5.230   0.947   7.808
91636SOL    HW276806   5.163   0.853   7.906
91637SOL     OW76807  10.401   1.848   8.623
91637SOL    HW176808  10.318   1.811   8.654
91637SOL    HW276809  10.405   1.823   8.530
91638SOL     OW76810   4.290   5.246   4.514
91638SOL    HW176811   4.203   5.210   4.496
91638SOL    HW276812   4.333   5.249   4.428
91639SOL     OW76813   8.353   8.835  11.077
91639SOL    HW176814   8.270   8.854  11.034
91639SOL    HW276815   8.392   8.921  11.094
91640SOL     OW76816   7.531   1.051  13.120
91640SOL    HW176817   7.563   1.032  13.208
91640SOL    HW276818   7.610   1.059  13.067
91641SOL     OW76819   5.600   2.482   3.650
91641SOL    HW176820   5.611   2.434   3.568
91641SOL    HW276821   5.521   2.534   3.636
91642SOL     OW76822   1.602  12.066  10.774
91642SOL    HW176823   1.594  12.093  10.682
91642SOL    HW276824   1.653  11.985  10.771
91643SOL     OW76825   5.093   6.816   8.682
91643SOL    HW176826   5.037   6.890   8.703
91643SOL    HW276827   5.149   6.805   8.759
91644SOL     OW76828  14.230  13.095  11.773
91644SOL    HW176829  14.279  13.177  11.775
91644SOL    HW276830  14.207  13.078  11.864
91645SOL     OW76831  11.553  10.898  12.624
91645SOL    HW176832  11.556  10.863  12.713
91645SOL    HW276833  11.572  10.823  12.568
91646SOL     OW76834  10.921  10.706   7.358
91646SOL    HW176835  10.977  10.628   7.360
91646SOL    HW276836  10.863  10.696   7.434
91647SOL     OW76837  14.451   3.403  10.363
91647SOL    HW176838  14.419   3.368  10.280
91647SOL    HW276839  14.493   3.486  10.341
91648SOL     OW76840   5.562  12.597  12.927
91648SOL    HW176841   5.651  12.632  12.932
91648SOL    HW276842   5.550  12.574  12.835
91649SOL     OW76843  11.077   8.387  14.033
91649SOL    HW176844  11.139   8.346  14.093
91649SOL    HW276845  11.096   8.349  13.948
91650SOL     OW76846   9.467   2.484  11.357
91650SOL    HW176847   9.423   2.401  11.376
91650SOL    HW276848   9.527   2.497  11.431
91651SOL     OW76849   5.156   8.429   8.868
91651SOL    HW176850   5.240   8.385   8.859
91651SOL    HW276851   5.161   8.504   8.808
91652SOL     OW76852   1.924  11.228   2.714
91652SOL    HW176853   1.831  11.226   2.691
91652SOL    HW276854   1.962  11.294   2.656
91653SOL     OW76855   9.425   7.942  13.747
91653SOL    HW176856   9.472   7.869  13.787
91653SOL    HW276857   9.466   7.952  13.661
91654SOL     OW76858  14.197   8.368   4.168
91654SOL    HW176859  14.196   8.278   4.137
91654SOL    HW276860  14.230   8.419   4.093
91655SOL     OW76861   9.202   4.177  10.136
91655SOL    HW176862   9.229   4.244  10.198
91655SOL    HW276863   9.143   4.223  10.076
91656SOL     OW76864   4.834   0.260   2.458
91656SOL    HW176865   4.749   0.291   2.488
91656SOL    HW276866   4.897   0.319   2.500
91657SOL     OW76867  12.397  13.247   2.734
91657SOL    HW176868  12.316  13.295   2.714
91657SOL    HW276869  12.423  13.279   2.821
91658SOL     OW76870  11.761   7.804  14.426
91658SOL    HW176871  11.700   7.867  14.466
91658SOL    HW276872  11.847   7.828  14.462
91659SOL     OW76873   6.387  12.798   0.409
91659SOL    HW176874   6.482  12.795   0.402
91659SOL    HW276875   6.369  12.881   0.454
91660SOL     OW76876   6.432   4.239   2.218
91660SOL    HW176877   6.458   4.283   2.137
91660SOL    HW276878   6.464   4.149   2.207
91661SOL     OW76879   9.461   7.072   8.774
91661SOL    HW176880   9.379   7.023   8.787
91661SOL    HW276881   9.442   7.132   8.702
91662SOL     OW76882  12.654   7.049  11.988
91662SOL    HW176883  12.599   7.124  12.008
91662SOL    HW276884  12.600   6.994  11.931
91663SOL     OW76885   9.535   6.547   6.106
91663SOL    HW176886   9.471   6.477   6.118
91663SOL    HW276887   9.482   6.626   6.099
91664SOL     OW76888   9.647   5.768  14.786
91664SOL    HW176889   9.702   5.841  14.759
91664SOL    HW276890   9.670   5.753   0.006
91665SOL     OW76891  13.710  13.472  10.273
91665SOL    HW176892  13.701  13.396  10.331
91665SOL    HW276893  13.754  13.438  10.195
91666SOL     OW76894  14.144   1.323   6.506
91666SOL    HW176895  14.229   1.280   6.499
91666SOL    HW276896  14.109   1.321   6.417
91667SOL     OW76897   7.118   6.496   6.362
91667SOL    HW176898   7.037   6.546   6.369
91667SOL    HW276899   7.174   6.532   6.431
91668SOL     OW76900   3.440  13.862   9.167
91668SOL    HW176901   3.458  13.926   9.099
91668SOL    HW276902   3.376  13.904   9.224
91669SOL     OW76903   7.091  13.938   6.467
91669SOL    HW176904   7.096  14.001   6.538
91669SOL    HW276905   7.031  13.978   6.404
91670SOL     OW76906   6.338   6.076   7.597
91670SOL    HW176907   6.306   6.060   7.686
91670SOL    HW276908   6.274   6.034   7.540
91671SOL     OW76909   3.864   8.156   5.190
91671SOL    HW176910   3.929   8.099   5.150
91671SOL    HW276911   3.781   8.109   5.178
91672SOL     OW76912   3.508   2.107   3.597
91672SOL    HW176913   3.425   2.113   3.645
91672SOL    HW276914   3.571   2.154   3.651
91673SOL     OW76915  11.121   7.523   3.988
91673SOL    HW176916  11.198   7.545   3.936
91673SOL    HW276917  11.074   7.459   3.936
91674SOL     OW76918   3.775   3.573   9.828
91674SOL    HW176919   3.830   3.581   9.750
91674SOL    HW276920   3.714   3.646   9.821
91675SOL     OW76921   6.923  12.160   2.752
91675SOL    HW176922   6.999  12.134   2.701
91675SOL    HW276923   6.937  12.253   2.770
91676SOL     OW76924   1.858   3.258  13.829
91676SOL    HW176925   1.837   3.232  13.740
91676SOL    HW276926   1.785   3.315  13.855
91677SOL     OW76927  14.148  12.420   5.764
91677SOL    HW176928  14.242  12.433   5.765
91677SOL    HW276929  14.126  12.392   5.853
91678SOL     OW76930   2.726   8.809   5.488
91678SOL    HW176931   2.720   8.813   5.584
91678SOL    HW276932   2.637   8.823   5.457
91679SOL     OW76933   5.200   0.843   7.356
91679SOL    HW176934   5.263   0.820   7.424
91679SOL    HW276935   5.141   0.768   7.350
91680SOL     OW76936   8.819  13.093  12.776
91680SOL    HW176937   8.760  13.161  12.809
91680SOL    HW276938   8.812  13.099  12.681
91681SOL     OW76939   8.087   3.198   8.231
91681SOL    HW176940   8.001   3.225   8.263
91681SOL    HW276941   8.136   3.279   8.221
91682SOL     OW76942   6.616   4.910  13.952
91682SOL    HW176943   6.637   4.833  13.901
91682SOL    HW276944   6.661   4.982  13.907
91683SOL     OW76945   8.596  14.280   1.462
91683SOL    HW176946   8.568  14.255   1.374
91683SOL    HW276947   8.691  14.274   1.460
91684SOL     OW76948  13.761   1.652   8.570
91684SOL    HW176949  13.681   1.705   8.569
91684SOL    HW276950  13.790   1.654   8.661
91685SOL     OW76951   2.553  10.291  13.448
91685SOL    HW176952   2.551  10.327  13.359
91685SOL    HW276953   2.643  10.261  13.460
91686SOL     OW76954  11.965   2.285   6.093
91686SOL    HW176955  12.047   2.329   6.116
91686SOL    HW276956  11.897   2.347   6.118
91687SOL     OW76957  14.240   6.120  11.858
91687SOL    HW176958  14.280   6.108  11.771
91687SOL    HW276959  14.315   6.125  11.918
91688SOL     OW76960   1.313  13.365  12.792
91688SOL    HW176961   1.235  13.411  12.825
91688SOL    HW276962   1.371  13.359  12.867
91689SOL     OW76963   5.776   3.924  12.281
91689SOL    HW176964   5.731   3.896  12.202
91689SOL    HW276965   5.868   3.927  12.256
91690SOL     OW76966   8.582   0.593  11.953
91690SOL    HW176967   8.564   0.513  12.002
91690SOL    HW276968   8.539   0.662  12.003
91691SOL     OW76969  13.085   8.167   5.901
91691SOL    HW176970  13.057   8.076   5.897
91691SOL    HW276971  13.055   8.198   5.987
91692SOL     OW76972   4.975   7.997   4.672
91692SOL    HW176973   5.045   7.932   4.663
91692SOL    HW276974   4.938   7.980   4.759
91693SOL     OW76975   5.997   9.299   5.543
91693SOL    HW176976   6.019   9.241   5.616
91693SOL    HW276977   5.987   9.385   5.584
91694SOL     OW76978   4.285   4.939  12.199
91694SOL    HW176979   4.225   5.013  12.199
91694SOL    HW276980   4.310   4.928  12.291
91695SOL     OW76981   7.204  11.195  14.314
91695SOL    HW176982   7.241  11.281  14.291
91695SOL    HW276983   7.281  11.138  14.321
91696SOL     OW76984   9.021   1.122   3.791
91696SOL    HW176985   9.037   1.214   3.807
91696SOL    HW276986   9.108   1.083   3.783
91697SOL     OW76987  14.463  11.627  14.608
91697SOL    HW176988  14.460  11.599  14.516
91697SOL    HW276989  14.402  11.700  14.612
91698SOL     OW76990   0.847   2.513  14.004
91698SOL    HW176991   0.788   2.559  13.945
91698SOL    HW276992   0.835   2.557  14.089
91699SOL     OW76993   0.136  10.024   6.285
91699SOL    HW176994   0.070  10.001   6.220
91699SOL    HW276995   0.089  10.019   6.369
91700SOL     OW76996   5.942   2.090  10.601
91700SOL    HW176997   5.945   2.164  10.540
91700SOL    HW276998   5.959   2.014  10.546
91701SOL     OW76999  13.087   9.590   1.596
91701SOL    HW177000  13.043   9.528   1.655
91701SOL    HW277001  13.177   9.559   1.592
91702SOL     OW77002   3.949  12.900  10.920
91702SOL    HW177003   4.021  12.949  10.960
91702SOL    HW277004   3.987  12.862  10.841
91703SOL     OW77005   2.215  11.347  14.105
91703SOL    HW177006   2.288  11.321  14.162
91703SOL    HW277007   2.242  11.319  14.018
91704SOL     OW77008   6.644   0.273  12.122
91704SOL    HW177009   6.591   0.215  12.068
91704SOL    HW277010   6.582   0.333  12.162
91705SOL     OW77011   9.795  10.681   6.388
91705SOL    HW177012   9.891  10.685   6.384
91705SOL    HW277013   9.776  10.660   6.479
91706SOL     OW77014   0.025  10.470  14.055
91706SOL    HW177015  14.847  10.541  14.013
91706SOL    HW277016   0.106  10.464  14.006
91707SOL     OW77017   5.722  13.804   3.922
91707SOL    HW177018   5.765  13.870   3.866
91707SOL    HW277019   5.783  13.730   3.923
91708SOL     OW77020  10.593   5.783   5.532
91708SOL    HW177021  10.545   5.724   5.474
91708SOL    HW277022  10.659   5.728   5.573
91709SOL     OW77023   6.417   1.514   6.269
91709SOL    HW177024   6.399   1.605   6.292
91709SOL    HW277025   6.446   1.473   6.350
91710SOL     OW77026  10.136   9.460   6.756
91710SOL    HW177027  10.116   9.500   6.672
91710SOL    HW277028  10.080   9.382   6.760
91711SOL     OW77029   4.572   7.078  14.324
91711SOL    HW177030   4.582   6.994  14.370
91711SOL    HW277031   4.482   7.077  14.292
91712SOL     OW77032   8.482   8.316   8.081
91712SOL    HW177033   8.546   8.388   8.081
91712SOL    HW277034   8.398   8.358   8.062
91713SOL     OW77035   5.037   2.647   2.904
91713SOL    HW177036   5.080   2.561   2.892
91713SOL    HW277037   4.945   2.631   2.883
91714SOL     OW77038   7.942   4.635   2.286
91714SOL    HW177039   7.882   4.561   2.293
91714SOL    HW277040   7.980   4.628   2.199
91715SOL     OW77041   1.153   6.963   7.490
91715SOL    HW177042   1.081   6.934   7.433
91715SOL    HW277043   1.144   6.908   7.568
91716SOL     OW77044  11.296   8.858   0.848
91716SOL    HW177045  11.280   8.794   0.917
91716SOL    HW277046  11.211   8.898   0.832
91717SOL     OW77047   7.266  13.062   9.876
91717SOL    HW177048   7.245  13.150   9.845
91717SOL    HW277049   7.328  13.028   9.813
91718SOL     OW77050   0.327   8.869  13.229
91718SOL    HW177051   0.338   8.961  13.203
91718SOL    HW277052   0.335   8.820  13.147
91719SOL     OW77053  13.648  14.607   9.473
91719SOL    HW177054  13.687  14.579   9.390
91719SOL    HW277055  13.709  14.575   9.540
91720SOL     OW77056   9.362  12.343   1.294
91720SOL    HW177057   9.383  12.424   1.246
91720SOL    HW277058   9.267  12.336   1.288
91721SOL     OW77059   9.838   9.747   1.416
91721SOL    HW177060   9.800   9.670   1.459
91721SOL    HW277061   9.820   9.819   1.476
91722SOL     OW77062   3.541  13.449   6.653
91722SOL    HW177063   3.603  13.384   6.687
91722SOL    HW277064   3.583  13.483   6.575
91723SOL     OW77065   2.392   4.006  13.586
91723SOL    HW177066   2.488   3.997  13.591
91723SOL    HW277067   2.359   3.917  13.602
91724SOL     OW77068   7.948  10.273   6.098
91724SOL    HW177069   7.957  10.249   6.006
91724SOL    HW277070   7.984  10.361   6.103
91725SOL     OW77071  12.659  12.700  10.435
91725SOL    HW177072  12.690  12.695  10.345
91725SOL    HW277073  12.565  12.679  10.430
91726SOL     OW77074  11.765   1.091   1.926
91726SOL    HW177075  11.832   1.158   1.915
91726SOL    HW277076  11.740   1.066   1.838
91727SOL     OW77077   2.863   2.226   6.736
91727SOL    HW177078   2.836   2.152   6.682
91727SOL    HW277079   2.903   2.186   6.813
91728SOL     OW77080  10.269   9.599  13.023
91728SOL    HW177081  10.330   9.543  12.976
91728SOL    HW277082  10.233   9.657  12.956
91729SOL     OW77083  12.818  11.567   1.608
91729SOL    HW177084  12.879  11.613   1.550
91729SOL    HW277085  12.740  11.554   1.554
91730SOL     OW77086   1.311   6.967  14.743
91730SOL    HW177087   1.401   6.962  14.775
91730SOL    HW277088   1.258   6.935  14.816
91731SOL     OW77089  11.857   0.545  10.939
91731SOL    HW177090  11.879   0.620  10.884
91731SOL    HW277091  11.798   0.493  10.884
91732SOL     OW77092  10.871   9.365   4.847
91732SOL    HW177093  10.888   9.393   4.757
91732SOL    HW277094  10.883   9.444   4.900
91733SOL     OW77095   3.672  12.968  14.560
91733SOL    HW177096   3.757  12.993  14.524
91733SOL    HW277097   3.608  13.009  14.501
91734SOL     OW77098   0.617   7.751   4.339
91734SOL    HW177099   0.590   7.660   4.335
91734SOL    HW277100   0.545   7.796   4.382
91735SOL     OW77101   9.959   5.145   4.488
91735SOL    HW177102   9.924   5.136   4.577
91735SOL    HW277103   9.907   5.083   4.436
91736SOL     OW77104   9.612  14.430   9.845
91736SOL    HW177105   9.626  14.487   9.769
91736SOL    HW277106   9.560  14.482   9.905
91737SOL     OW77107   6.459   3.178   9.867
91737SOL    HW177108   6.508   3.099   9.844
91737SOL    HW277109   6.371   3.163   9.833
91738SOL     OW77110  14.321   2.145  12.776
91738SOL    HW177111  14.388   2.152  12.708
91738SOL    HW277112  14.250   2.202  12.746
91739SOL     OW77113   9.656   2.074   8.386
91739SOL    HW177114   9.701   2.060   8.304
91739SOL    HW277115   9.723   2.108   8.445
91740SOL     OW77116  13.910  10.805   7.648
91740SOL    HW177117  13.854  10.746   7.598
91740SOL    HW277118  13.854  10.880   7.669
91741SOL     OW77119  12.346  13.123   8.564
91741SOL    HW177120  12.439  13.099   8.569
91741SOL    HW277121  12.322  13.148   8.653
91742SOL     OW77122  14.688   9.093   7.952
91742SOL    HW177123  14.768   9.110   8.003
91742SOL    HW277124  14.652   9.012   7.990
91743SOL     OW77125  14.121  12.577   2.239
91743SOL    HW177126  14.151  12.611   2.154
91743SOL    HW277127  14.044  12.524   2.217
91744SOL     OW77128   6.241   1.602   0.041
91744SOL    HW177129   6.199   1.533  14.861
91744SOL    HW277130   6.326   1.614  14.870
91745SOL     OW77131  11.852  14.539   6.985
91745SOL    HW177132  11.939  14.513   7.015
91745SOL    HW277133  11.819  14.463   6.937
91746SOL     OW77134   7.362   8.720   1.866
91746SOL    HW177135   7.298   8.667   1.914
91746SOL    HW277136   7.326   8.724   1.777
91747SOL     OW77137   5.276   9.834  11.265
91747SOL    HW177138   5.341   9.890  11.307
91747SOL    HW277139   5.302   9.745  11.288
91748SOL     OW77140   1.843   2.376  10.285
91748SOL    HW177141   1.920   2.427  10.258
91748SOL    HW277142   1.848   2.376  10.381
91749SOL     OW77143  10.500   3.434  13.309
91749SOL    HW177144  10.560   3.382  13.256
91749SOL    HW277145  10.468   3.372  13.375
91750SOL     OW77146  13.438  13.976   0.537
91750SOL    HW177147  13.396  14.032   0.472
91750SOL    HW277148  13.456  14.034   0.611
91751SOL     OW77149   9.343   1.397   2.864
91751SOL    HW177150   9.401   1.454   2.812
91751SOL    HW277151   9.262   1.446   2.871
91752SOL     OW77152   4.414   7.773   9.604
91752SOL    HW177153   4.409   7.783   9.509
91752SOL    HW277154   4.507   7.785   9.624
91753SOL     OW77155  13.162   8.546   9.196
91753SOL    HW177156  13.156   8.543   9.292
91753SOL    HW277157  13.205   8.464   9.172
91754SOL     OW77158   9.990   9.187  11.047
91754SOL    HW177159  10.032   9.260  11.091
91754SOL    HW277160  10.063   9.139  11.006
91755SOL     OW77161  13.012  10.833   7.549
91755SOL    HW177162  12.981  10.884   7.623
91755SOL    HW277163  12.958  10.754   7.550
91756SOL     OW77164   1.606  11.672   2.955
91756SOL    HW177165   1.554  11.751   2.943
91756SOL    HW277166   1.697  11.700   2.941
91757SOL     OW77167   9.319   7.419  14.573
91757SOL    HW177168   9.307   7.332  14.611
91757SOL    HW277169   9.409   7.418  14.540
91758SOL     OW77170   3.912  10.939  10.336
91758SOL    HW177171   3.972  10.874  10.371
91758SOL    HW277172   3.881  10.902  10.254
91759SOL     OW77173   0.961   0.363  10.261
91759SOL    HW177174   1.011   0.282  10.257
91759SOL    HW277175   0.874   0.339  10.227
91760SOL     OW77176   7.344   0.890  13.014
91760SOL    HW177177   7.335   0.926  12.926
91760SOL    HW277178   7.409   0.946  13.057
91761SOL     OW77179   0.144   3.203   3.354
91761SOL    HW177180   0.051   3.187   3.373
91761SOL    HW277181   0.150   3.299   3.346
91762SOL     OW77182  11.220   2.837   9.846
91762SOL    HW177183  11.223   2.805   9.936
91762SOL    HW277184  11.128   2.858   9.831
91763SOL     OW77185   4.194   4.901   7.692
91763SOL    HW177186   4.107   4.885   7.656
91763SOL    HW277187   4.212   4.824   7.746
91764SOL     OW77188  11.234  12.145   6.137
91764SOL    HW177189  11.243  12.234   6.102
91764SOL    HW277190  11.264  12.152   6.228
91765SOL     OW77191   9.550   2.739  13.835
91765SOL    HW177192   9.643   2.759  13.822
91765SOL    HW277193   9.526   2.788  13.914
91766SOL     OW77194  11.021   7.325  12.398
91766SOL    HW177195  11.047   7.303  12.487
91766SOL    HW277196  10.936   7.367  12.407
91767SOL     OW77197   8.946   4.182   7.842
91767SOL    HW177198   8.873   4.121   7.835
91767SOL    HW277199   9.022   4.131   7.813
91768SOL     OW77200   0.772   5.823  14.585
91768SOL    HW177201   0.745   5.817  14.676
91768SOL    HW277202   0.754   5.736  14.549
91769SOL     OW77203  11.190   8.376  12.332
91769SOL    HW177204  11.181   8.280  12.335
91769SOL    HW277205  11.241   8.393  12.253
91770SOL     OW77206  13.253  12.867  10.823
91770SOL    HW177207  13.215  12.833  10.904
91770SOL    HW277208  13.336  12.820  10.813
91771SOL     OW77209   6.003   0.070   6.937
91771SOL    HW177210   6.061   0.011   6.985
91771SOL    HW277211   6.022   0.156   6.973
91772SOL     OW77212   0.175   1.844  12.985
91772SOL    HW177213   0.190   1.749  12.989
91772SOL    HW277214   0.157   1.861  12.892
91773SOL     OW77215   2.146   1.925   2.351
91773SOL    HW177216   2.144   1.831   2.332
91773SOL    HW277217   2.084   1.964   2.290
91774SOL     OW77218   2.137   4.985  12.161
91774SOL    HW177219   2.195   4.910  12.146
91774SOL    HW277220   2.100   5.004  12.074
91775SOL     OW77221   3.982   2.459   5.359
91775SOL    HW177222   4.032   2.377   5.351
91775SOL    HW277223   4.049   2.527   5.365
91776SOL     OW77224  12.070   8.499   4.947
91776SOL    HW177225  12.155   8.463   4.924
91776SOL    HW277226  12.064   8.488   5.042
91777SOL     OW77227   9.655  11.569  13.790
91777SOL    HW177228   9.630  11.657  13.818
91777SOL    HW277229   9.713  11.583  13.715
91778SOL     OW77230  13.460   3.637  10.119
91778SOL    HW177231  13.466   3.725  10.157
91778SOL    HW277232  13.500   3.646  10.032
91779SOL     OW77233   5.880   8.653   5.935
91779SOL    HW177234   5.809   8.653   5.871
91779SOL    HW277235   5.959   8.663   5.881
91780SOL     OW77236   9.158  11.138   1.489
91780SOL    HW177237   9.076  11.089   1.493
91780SOL    HW277238   9.217  11.091   1.548
91781SOL     OW77239   9.790   5.217   9.100
91781SOL    HW177240   9.834   5.135   9.078
91781SOL    HW277241   9.859   5.283   9.100
91782SOL     OW77242  13.413   7.562   4.278
91782SOL    HW177243  13.432   7.544   4.186
91782SOL    HW277244  13.376   7.651   4.278
91783SOL     OW77245  14.815  14.491   9.943
91783SOL    HW177246   0.013  14.554   9.965
91783SOL    HW277247  14.738  14.546   9.925
91784SOL     OW77248   0.641   9.700  14.161
91784SOL    HW177249   0.702   9.773  14.168
91784SOL    HW277250   0.665   9.641  14.232
91785SOL     OW77251  12.107  10.188   1.658
91785SOL    HW177252  12.064  10.228   1.582
91785SOL    HW277253  12.070  10.233   1.734
91786SOL     OW77254   1.601  10.891   1.785
91786SOL    HW177255   1.614  10.922   1.875
91786SOL    HW277256   1.690  10.886   1.749
91787SOL     OW77257  13.417  10.052   1.204
91787SOL    HW177258  13.496  10.049   1.259
91787SOL    HW277259  13.446  10.094   1.123
91788SOL     OW77260  12.254  12.273   9.148
91788SOL    HW177261  12.340  12.293   9.111
91788SOL    HW277262  12.266  12.189   9.193
91789SOL     OW77263   8.004  13.551   7.410
91789SOL    HW177264   7.981  13.506   7.491
91789SOL    HW277265   8.077  13.500   7.374
91790SOL     OW77266   4.359   1.632   4.292
91790SOL    HW177267   4.321   1.544   4.297
91790SOL    HW277268   4.318   1.679   4.365
91791SOL     OW77269   5.067   0.859   6.119
91791SOL    HW177270   5.090   0.772   6.153
91791SOL    HW277271   5.140   0.915   6.147
91792SOL     OW77272  14.175   8.871  10.342
91792SOL    HW177273  14.204   8.897  10.429
91792SOL    HW277274  14.254   8.845  10.296
91793SOL     OW77275   6.739  12.722   6.565
91793SOL    HW177276   6.718  12.791   6.627
91793SOL    HW277277   6.773  12.651   6.619
91794SOL     OW77278   8.902   2.840   2.899
91794SOL    HW177279   8.911   2.935   2.889
91794SOL    HW277280   8.940   2.821   2.984
91795SOL     OW77281  12.978   9.697  11.723
91795SOL    HW177282  12.886   9.698  11.697
91795SOL    HW277283  13.020   9.762  11.666
91796SOL     OW77284   8.900  14.111   3.348
91796SOL    HW177285   8.867  14.145   3.265
91796SOL    HW277286   8.916  14.018   3.330
91797SOL     OW77287  10.015   9.533  12.612
91797SOL    HW177288  10.057   9.575  12.687
91797SOL    HW277289  10.087   9.511  12.553
91798SOL     OW77290  14.589   9.798   6.841
91798SOL    HW177291  14.650   9.731   6.810
91798SOL    HW277292  14.523   9.750   6.891
91799SOL     OW77293  11.909  13.198  11.724
91799SOL    HW177294  11.862  13.182  11.643
91799SOL    HW277295  11.968  13.123  11.733
91800SOL     OW77296  12.146   9.924   9.772
91800SOL    HW177297  12.167   9.833   9.794
91800SOL    HW277298  12.176   9.974   9.848
91801SOL     OW77299  10.675  13.888   8.172
91801SOL    HW177300  10.642  13.873   8.260
91801SOL    HW277301  10.623  13.831   8.116
91802SOL     OW77302  10.218  14.543   3.990
91802SOL    HW177303  10.207  14.638   3.987
91802SOL    HW277304  10.255  14.519   3.905
91803SOL     OW77305   8.398   4.118   8.605
91803SOL    HW177306   8.310   4.152   8.588
91803SOL    HW277307   8.440   4.116   8.518
91804SOL     OW77308   3.713   5.768  14.594
91804SOL    HW177309   3.767   5.763  14.673
91804SOL    HW277310   3.642   5.829  14.618
91805SOL     OW77311   4.259   1.192   3.092
91805SOL    HW177312   4.243   1.279   3.056
91805SOL    HW277313   4.338   1.202   3.146
91806SOL     OW77314  13.487   9.185  13.250
91806SOL    HW177315  13.551   9.118  13.228
91806SOL    HW277316  13.486   9.243  13.174
91807SOL     OW77317   8.269  12.467   5.509
91807SOL    HW177318   8.357  12.492   5.537
91807SOL    HW277319   8.247  12.391   5.564
91808SOL     OW77320   1.710   9.767   6.013
91808SOL    HW177321   1.638   9.775   5.949
91808SOL    HW277322   1.755   9.851   6.009
91809SOL     OW77323   8.419   8.899   5.576
91809SOL    HW177324   8.348   8.841   5.550
91809SOL    HW277325   8.494   8.841   5.590
91810SOL     OW77326   5.133   5.697   1.513
91810SOL    HW177327   5.172   5.610   1.517
91810SOL    HW277328   5.047   5.686   1.554
91811SOL     OW77329   5.024   8.242  13.624
91811SOL    HW177330   5.021   8.270  13.533
91811SOL    HW277331   4.942   8.193  13.637
91812SOL     OW77332   0.239   0.066   0.018
91812SOL    HW177333   0.152   0.104   0.011
91812SOL    HW277334   0.248   0.041   0.110
91813SOL     OW77335   0.353  10.230   1.119
91813SOL    HW177336   0.275  10.190   1.079
91813SOL    HW277337   0.369  10.177   1.197
91814SOL     OW77338  13.193   9.482  13.520
91814SOL    HW177339  13.201   9.551  13.454
91814SOL    HW277340  13.244   9.514  13.594
91815SOL     OW77341   2.265   7.419  12.905
91815SOL    HW177342   2.264   7.366  12.826
91815SOL    HW277343   2.276   7.509  12.874
91816SOL     OW77344   4.349  11.436   8.238
91816SOL    HW177345   4.323  11.507   8.297
91816SOL    HW277346   4.331  11.356   8.287
91817SOL     OW77347   4.183  12.193  11.589
91817SOL    HW177348   4.093  12.205  11.559
91817SOL    HW277349   4.226  12.276  11.570
91818SOL     OW77350   5.248   8.646   7.559
91818SOL    HW177351   5.183   8.665   7.627
91818SOL    HW277352   5.332   8.648   7.605
91819SOL     OW77353  12.920   8.012   4.671
91819SOL    HW177354  12.869   7.935   4.696
91819SOL    HW277355  12.995   8.011   4.731
91820SOL     OW77356   1.770   1.030   7.493
91820SOL    HW177357   1.801   1.108   7.539
91820SOL    HW277358   1.839   1.011   7.429
91821SOL     OW77359  13.835   3.846   4.400
91821SOL    HW177360  13.753   3.816   4.439
91821SOL    HW277361  13.855   3.779   4.334
91822SOL     OW77362   8.669  11.199   0.565
91822SOL    HW177363   8.684  11.209   0.659
91822SOL    HW277364   8.743  11.243   0.524
91823SOL     OW77365   7.073  11.948   8.992
91823SOL    HW177366   7.108  11.889   9.059
91823SOL    HW277367   6.991  11.982   9.029
91824SOL     OW77368  10.539   5.715  14.732
91824SOL    HW177369  10.474   5.662  14.686
91824SOL    HW277370  10.504   5.724  14.821
91825SOL     OW77371  10.412  10.233   0.672
91825SOL    HW177372  10.369  10.236   0.586
91825SOL    HW277373  10.447  10.145   0.678
91826SOL     OW77374  13.347   5.392  13.851
91826SOL    HW177375  13.395   5.442  13.785
91826SOL    HW277376  13.266   5.440  13.865
91827SOL     OW77377   4.739   6.276   3.002
91827SOL    HW177378   4.771   6.197   3.045
91827SOL    HW277379   4.647   6.257   2.981
91828SOL     OW77380   7.967   6.488  11.730
91828SOL    HW177381   7.949   6.578  11.703
91828SOL    HW277382   7.880   6.448  11.739
91829SOL     OW77383   0.912   1.335   7.395
91829SOL    HW177384   0.907   1.310   7.303
91829SOL    HW277385   0.860   1.415   7.401
91830SOL     OW77386   7.797  14.634   2.926
91830SOL    HW177387   7.837  14.714   2.891
91830SOL    HW277388   7.721  14.665   2.975
91831SOL     OW77389   2.663   2.123   3.965
91831SOL    HW177390   2.701   2.211   3.964
91831SOL    HW277391   2.670   2.095   4.057
91832SOL     OW77392   9.516   0.848   1.133
91832SOL    HW177393   9.468   0.835   1.215
91832SOL    HW277394   9.449   0.845   1.065
91833SOL     OW77395   5.457   3.726   5.567
91833SOL    HW177396   5.542   3.765   5.548
91833SOL    HW277397   5.397   3.800   5.572
91834SOL     OW77398  12.940  10.655  12.047
91834SOL    HW177399  12.914  10.627  12.134
91834SOL    HW277400  13.005  10.591  12.019
91835SOL     OW77401  12.263  11.504   0.816
91835SOL    HW177402  12.293  11.543   0.735
91835SOL    HW277403  12.181  11.550   0.837
91836SOL     OW77404   6.827  14.171   9.248
91836SOL    HW177405   6.758  14.188   9.312
91836SOL    HW277406   6.899  14.133   9.300
91837SOL     OW77407  12.428   9.764   1.479
91837SOL    HW177408  12.334   9.750   1.471
91837SOL    HW277409  12.467   9.682   1.450
91838SOL     OW77410  10.433  12.926   6.303
91838SOL    HW177411  10.405  13.016   6.286
91838SOL    HW277412  10.453  12.925   6.397
91839SOL     OW77413   6.021  12.109   8.838
91839SOL    HW177414   6.012  12.104   8.933
91839SOL    HW277415   6.027  12.203   8.819
91840SOL     OW77416   2.760   6.467  12.155
91840SOL    HW177417   2.825   6.406  12.120
91840SOL    HW277418   2.758   6.540  12.094
91841SOL     OW77419   4.573   7.043   5.991
91841SOL    HW177420   4.628   7.090   5.929
91841SOL    HW277421   4.521   7.112   6.033
91842SOL     OW77422  13.542   4.285   9.502
91842SOL    HW177423  13.499   4.369   9.516
91842SOL    HW277424  13.601   4.301   9.428
91843SOL     OW77425   6.566   0.469   6.433
91843SOL    HW177426   6.638   0.532   6.439
91843SOL    HW277427   6.600   0.399   6.378
91844SOL     OW77428   5.664   6.489  14.066
91844SOL    HW177429   5.670   6.554  14.136
91844SOL    HW277430   5.634   6.409  14.109
91845SOL     OW77431   9.948   3.839  10.535
91845SOL    HW177432   9.866   3.845  10.487
91845SOL    HW277433  10.001   3.777  10.484
91846SOL     OW77434  14.800  11.784   4.287
91846SOL    HW177435  14.815  11.755   4.377
91846SOL    HW277436  14.755  11.710   4.245
91847SOL     OW77437   1.140   9.605   8.271
91847SOL    HW177438   1.108   9.591   8.360
91847SOL    HW277439   1.110   9.694   8.249
91848SOL     OW77440  13.777   0.855  13.419
91848SOL    HW177441  13.757   0.946  13.396
91848SOL    HW277442  13.834   0.824  13.348
91849SOL     OW77443   7.140   7.649   0.775
91849SOL    HW177444   7.112   7.690   0.693
91849SOL    HW277445   7.113   7.558   0.767
91850SOL     OW77446   7.507   4.870  12.449
91850SOL    HW177447   7.547   4.835  12.370
91850SOL    HW277448   7.427   4.913  12.418
91851SOL     OW77449   8.019   3.809   1.383
91851SOL    HW177450   8.097   3.864   1.378
91851SOL    HW277451   7.957   3.859   1.436
91852SOL     OW77452   0.068  11.266   5.750
91852SOL    HW177453   0.115  11.186   5.773
91852SOL    HW277454   0.034  11.299   5.833
91853SOL     OW77455   5.469   0.324   0.643
91853SOL    HW177456   5.562   0.333   0.621
91853SOL    HW277457   5.428   0.295   0.562
91854SOL     OW77458  14.547   6.007   1.230
91854SOL    HW177459  14.540   5.948   1.155
91854SOL    HW277460  14.458   6.034   1.249
91855SOL     OW77461   4.608   4.387  12.791
91855SOL    HW177462   4.588   4.472  12.751
91855SOL    HW277463   4.580   4.397  12.882
91856SOL     OW77464  10.192   9.963  10.810
91856SOL    HW177465  10.252   9.963  10.736
91856SOL    HW277466  10.246   9.985  10.886
91857SOL     OW77467   1.646   7.603   4.016
91857SOL    HW177468   1.674   7.666   3.950
91857SOL    HW277469   1.564   7.638   4.049
91858SOL     OW77470   7.423  14.548   0.580
91858SOL    HW177471   7.338  14.504   0.569
91858SOL    HW277472   7.469  14.495   0.645
91859SOL     OW77473   3.656   7.750   5.520
91859SOL    HW177474   3.677   7.740   5.612
91859SOL    HW277475   3.735   7.722   5.474
91860SOL     OW77476   4.595   9.375   6.700
91860SOL    HW177477   4.516   9.339   6.739
91860SOL    HW277478   4.607   9.324   6.619
91861SOL     OW77479   6.796   5.811  11.529
91861SOL    HW177480   6.787   5.763  11.611
91861SOL    HW277481   6.864   5.765  11.481
91862SOL     OW77482   1.467  11.286   6.300
91862SOL    HW177483   1.421  11.290   6.216
91862SOL    HW277484   1.463  11.194   6.325
91863SOL     OW77485  12.403   8.623   4.495
91863SOL    HW177486  12.364   8.536   4.488
91863SOL    HW277487  12.496   8.606   4.510
91864SOL     OW77488   8.678   0.081  10.161
91864SOL    HW177489   8.591   0.103  10.128
91864SOL    HW277490   8.724   0.047  10.085
91865SOL     OW77491   8.784  12.521  13.171
91865SOL    HW177492   8.796  12.434  13.133
91865SOL    HW277493   8.796  12.582  13.097
91866SOL     OW77494  14.298   0.145  10.589
91866SOL    HW177495  14.305   0.211  10.520
91866SOL    HW277496  14.337   0.066  10.551
91867SOL     OW77497  11.657  13.515   5.070
91867SOL    HW177498  11.721  13.444   5.077
91867SOL    HW277499  11.658  13.557   5.155
91868SOL     OW77500   3.433   4.111   5.094
91868SOL    HW177501   3.383   4.050   5.148
91868SOL    HW277502   3.516   4.121   5.140
91869SOL     OW77503   8.353   6.124   8.549
91869SOL    HW177504   8.439   6.154   8.519
91869SOL    HW277505   8.372   6.071   8.626
91870SOL     OW77506   1.522   3.666  10.780
91870SOL    HW177507   1.496   3.737  10.721
91870SOL    HW277508   1.616   3.656  10.765
91871SOL     OW77509  14.288   5.599   6.866
91871SOL    HW177510  14.351   5.646   6.920
91871SOL    HW277511  14.220   5.571   6.927
91872SOL     OW77512  14.861  11.687  11.372
91872SOL    HW177513  14.867  11.698  11.277
91872SOL    HW277514   0.017  11.596  11.388
91873SOL     OW77515   8.183   9.163  12.735
91873SOL    HW177516   8.193   9.128  12.647
91873SOL    HW277517   8.116   9.230  12.727
91874SOL     OW77518   5.448   0.433  14.405
91874SOL    HW177519   5.386   0.505  14.391
91874SOL    HW277520   5.429   0.372  14.333
91875SOL     OW77521   2.887   1.985  14.748
91875SOL    HW177522   2.919   2.073  14.770
91875SOL    HW277523   2.886   1.938  14.832
91876SOL     OW77524   5.512  12.129   0.315
91876SOL    HW177525   5.495  12.169   0.401
91876SOL    HW277526   5.579  12.186   0.276
91877SOL     OW77527   8.041   6.349  10.932
91877SOL    HW177528   8.047   6.444  10.932
91877SOL    HW277529   8.131   6.319  10.940
91878SOL     OW77530   4.193   0.499   9.979
91878SOL    HW177531   4.149   0.554  10.044
91878SOL    HW277532   4.159   0.411   9.995
91879SOL     OW77533   1.819   0.056   9.116
91879SOL    HW177534   1.908   0.037   9.146
91879SOL    HW277535   1.818   0.029   9.024
91880SOL     OW77536  13.975   7.315   7.405
91880SOL    HW177537  13.893   7.294   7.360
91880SOL    HW277538  14.011   7.229   7.428
91881SOL     OW77539   7.468   8.469  12.969
91881SOL    HW177540   7.389   8.505  13.010
91881SOL    HW277541   7.436   8.421  12.893
91882SOL     OW77542   3.589  11.270   6.503
91882SOL    HW177543   3.534  11.312   6.569
91882SOL    HW277544   3.669  11.246   6.550
91883SOL     OW77545  11.347   0.592   9.041
91883SOL    HW177546  11.351   0.536   8.964
91883SOL    HW277547  11.396   0.544   9.109
91884SOL     OW77548   3.168   7.433   3.522
91884SOL    HW177549   3.090   7.378   3.507
91884SOL    HW277550   3.198   7.409   3.609
91885SOL     OW77551   4.348   6.399  13.979
91885SOL    HW177552   4.319   6.344  13.906
91885SOL    HW277553   4.289   6.377  14.051
91886SOL     OW77554   5.254   3.412  12.258
91886SOL    HW177555   5.194   3.447  12.192
91886SOL    HW277556   5.197   3.366  12.320
91887SOL     OW77557  11.232   1.123   4.711
91887SOL    HW177558  11.239   1.211   4.675
91887SOL    HW277559  11.207   1.069   4.636
91888SOL     OW77560  11.103   8.242  10.194
91888SOL    HW177561  11.116   8.231  10.288
91888SOL    HW277562  11.009   8.233  10.181
91889SOL     OW77563   5.018   2.250   7.511
91889SOL    HW177564   5.071   2.306   7.454
91889SOL    HW277565   5.029   2.287   7.598
91890SOL     OW77566  12.893  10.008   8.380
91890SOL    HW177567  12.804  10.012   8.416
91890SOL    HW277568  12.941   9.952   8.441
91891SOL     OW77569   8.441   2.598   1.562
91891SOL    HW177570   8.483   2.681   1.538
91891SOL    HW277571   8.365   2.625   1.614
91892SOL     OW77572   3.913   5.691  10.038
91892SOL    HW177573   3.857   5.753   9.992
91892SOL    HW277574   3.871   5.679  10.123
91893SOL     OW77575  14.509   9.916   2.177
91893SOL    HW177576  14.580   9.978   2.195
91893SOL    HW277577  14.504   9.862   2.256
91894SOL     OW77578  12.605  11.551  14.633
91894SOL    HW177579  12.592  11.488  14.704
91894SOL    HW277580  12.678  11.606  14.663
91895SOL     OW77581  11.180  11.452   1.123
91895SOL    HW177582  11.139  11.366   1.134
91895SOL    HW277583  11.127  11.496   1.057
91896SOL     OW77584   5.618   7.050   1.263
91896SOL    HW177585   5.705   7.089   1.276
91896SOL    HW277586   5.562   7.124   1.241
91897SOL     OW77587   5.742   3.733  11.283
91897SOL    HW177588   5.793   3.780  11.349
91897SOL    HW277589   5.804   3.717  11.212
91898SOL     OW77590   7.903   9.604   2.476
91898SOL    HW177591   7.868   9.521   2.443
91898SOL    HW277592   7.865   9.614   2.564
91899SOL     OW77593   6.890   0.518   3.927
91899SOL    HW177594   6.922   0.452   3.865
91899SOL    HW277595   6.968   0.568   3.951
91900SOL     OW77596   7.408  13.834  14.778
91900SOL    HW177597   7.316  13.818  14.799
91900SOL    HW277598   7.433  13.908  14.834
91901SOL     OW77599   6.031  11.158   7.761
91901SOL    HW177600   5.959  11.218   7.777
91901SOL    HW277601   6.033  11.101   7.838
91902SOL     OW77602   5.867   8.606  14.583
91902SOL    HW177603   5.830   8.685  14.624
91902SOL    HW277604   5.946   8.587  14.634
91903SOL     OW77605  10.510   9.002   6.249
91903SOL    HW177606  10.577   9.069   6.263
91903SOL    HW277607  10.518   8.978   6.157
91904SOL     OW77608  12.659   9.445   4.563
91904SOL    HW177609  12.731   9.449   4.500
91904SOL    HW277610  12.658   9.531   4.604
91905SOL     OW77611   1.000   0.014   7.414
91905SOL    HW177612   0.931  14.866   7.350
91905SOL    HW277613   1.078  14.842   7.380
91906SOL     OW77614   4.094  12.766   4.157
91906SOL    HW177615   4.062  12.845   4.200
91906SOL    HW277616   4.043  12.759   4.077
91907SOL     OW77617   8.916   2.756   1.393
91907SOL    HW177618   8.836   2.797   1.360
91907SOL    HW277619   8.967   2.737   1.315
91908SOL     OW77620  10.798  12.698   3.983
91908SOL    HW177621  10.749  12.636   3.930
91908SOL    HW277622  10.760  12.783   3.961
91909SOL     OW77623   1.961  11.243  14.706
91909SOL    HW177624   2.037  11.209  14.753
91909SOL    HW277625   1.887  11.191  14.739
91910SOL     OW77626   0.214   1.913   5.794
91910SOL    HW177627   0.306   1.913   5.769
91910SOL    HW277628   0.208   1.974   5.868
91911SOL     OW77629  12.203   7.442   6.469
91911SOL    HW177630  12.182   7.535   6.475
91911SOL    HW277631  12.122   7.401   6.438
91912SOL     OW77632   2.302   0.438   4.108
91912SOL    HW177633   2.333   0.469   4.024
91912SOL    HW277634   2.216   0.479   4.119
91913SOL     OW77635   8.908  14.371   3.667
91913SOL    HW177636   8.868  14.306   3.725
91913SOL    HW277637   9.001  14.371   3.691
91914SOL     OW77638   4.602   8.302   9.951
91914SOL    HW177639   4.696   8.302   9.930
91914SOL    HW277640   4.563   8.242   9.889
91915SOL     OW77641   8.833   5.204   7.846
91915SOL    HW177642   8.889   5.215   7.769
91915SOL    HW277643   8.818   5.293   7.877
91916SOL     OW77644   4.461   0.689   0.575
91916SOL    HW177645   4.464   0.782   0.598
91916SOL    HW277646   4.534   0.677   0.513
91917SOL     OW77647   4.945  11.405  13.048
91917SOL    HW177648   4.995  11.323  13.049
91917SOL    HW277649   4.990  11.461  13.111
91918SOL     OW77650   2.551  14.310   1.805
91918SOL    HW177651   2.633  14.357   1.790
91918SOL    HW277652   2.520  14.342   1.890
91919SOL     OW77653  10.485   3.665  10.799
91919SOL    HW177654  10.461   3.585  10.752
91919SOL    HW277655  10.466   3.645  10.891
91920SOL     OW77656  13.068   5.316  12.211
91920SOL    HW177657  13.153   5.319  12.168
91920SOL    HW277658  13.044   5.408  12.222
91921SOL     OW77659   1.439  14.508   3.641
91921SOL    HW177660   1.504  14.473   3.701
91921SOL    HW277661   1.463  14.472   3.555
91922SOL     OW77662   8.014   9.805   5.213
91922SOL    HW177663   8.098   9.800   5.168
91922SOL    HW277664   8.037   9.816   5.306
91923SOL     OW77665   1.192  11.802   4.080
91923SOL    HW177666   1.167  11.847   3.999
91923SOL    HW277667   1.287  11.806   4.081
91924SOL     OW77668  10.315   7.158   8.970
91924SOL    HW177669  10.234   7.201   8.997
91924SOL    HW277670  10.333   7.094   9.038
91925SOL     OW77671  10.572  14.275   9.587
91925SOL    HW177672  10.581  14.208   9.655
91925SOL    HW277673  10.571  14.227   9.505
91926SOL     OW77674  10.336   5.909   4.527
91926SOL    HW177675  10.241   5.911   4.518
91926SOL    HW277676  10.354   5.965   4.603
91927SOL     OW77677  12.807   3.838  11.810
91927SOL    HW177678  12.743   3.853  11.880
91927SOL    HW277679  12.888   3.877  11.843
91928SOL     OW77680   6.206   9.142  12.454
91928SOL    HW177681   6.177   9.181  12.371
91928SOL    HW277682   6.223   9.050  12.433
91929SOL     OW77683   1.030  14.711  14.503
91929SOL    HW177684   1.005  14.713  14.411
91929SOL    HW277685   0.986  14.634  14.538
91930SOL     OW77686   4.804  10.183   7.206
91930SOL    HW177687   4.843  10.269   7.192
91930SOL    HW277688   4.760  10.189   7.291
91931SOL     OW77689  12.088  10.013   1.241
91931SOL    HW177690  12.003   9.987   1.277
91931SOL    HW277691  12.106  10.098   1.282
91932SOL     OW77692   0.147   2.271  14.863
91932SOL    HW177693   0.148   2.262  14.768
91932SOL    HW277694   0.188   2.190   0.023
91933SOL     OW77695   3.658   0.498   8.362
91933SOL    HW177696   3.574   0.514   8.319
91933SOL    HW277697   3.641   0.514   8.455
91934SOL     OW77698  12.992  13.385   9.612
91934SOL    HW177699  12.926  13.447   9.579
91934SOL    HW277700  13.008  13.414   9.702
91935SOL     OW77701   6.691  10.440  13.649
91935SOL    HW177702   6.711  10.473  13.737
91935SOL    HW277703   6.665  10.519  13.601
91936SOL     OW77704  10.608   0.040   8.598
91936SOL    HW177705  10.559   0.008   8.674
91936SOL    HW277706  10.684   0.084   8.635
91937SOL     OW77707   1.338   1.252  11.384
91937SOL    HW177708   1.377   1.277  11.467
91937SOL    HW277709   1.268   1.191  11.407
91938SOL     OW77710  10.086   7.931  10.609
91938SOL    HW177711  10.039   7.972  10.681
91938SOL    HW277712  10.116   8.004  10.554
91939SOL     OW77713  13.819   7.141  10.558
91939SOL    HW177714  13.843   7.055  10.592
91939SOL    HW277715  13.864   7.147  10.474
91940SOL     OW77716   7.635   1.575  14.598
91940SOL    HW177717   7.703   1.531  14.549
91940SOL    HW277718   7.681   1.620  14.669
91941SOL     OW77719  13.087   4.362   9.462
91941SOL    HW177720  13.023   4.306   9.417
91941SOL    HW277721  13.051   4.374   9.550
91942SOL     OW77722  11.093   5.810  11.703
91942SOL    HW177723  11.129   5.750  11.768
91942SOL    HW277724  11.114   5.770  11.619
91943SOL     OW77725  12.331  11.220  11.404
91943SOL    HW177726  12.384  11.160  11.352
91943SOL    HW277727  12.359  11.205  11.494
91944SOL     OW77728   3.551   0.530  14.778
91944SOL    HW177729   3.510   0.603  14.825
91944SOL    HW277730   3.641   0.558  14.764
91945SOL     OW77731  10.949  10.568   6.563
91945SOL    HW177732  10.982  10.646   6.607
91945SOL    HW277733  10.960  10.586   6.470
91946SOL     OW77734   3.011  11.470  11.273
91946SOL    HW177735   2.920  11.496  11.282
91946SOL    HW277736   3.025  11.463  11.178
91947SOL     OW77737   9.336  13.802  13.910
91947SOL    HW177738   9.249  13.778  13.943
91947SOL    HW277739   9.332  13.783  13.817
91948SOL     OW77740   8.959  13.492  11.769
91948SOL    HW177741   8.890  13.426  11.778
91948SOL    HW277742   9.001  13.471  11.686
91949SOL     OW77743   5.131  10.227   9.294
91949SOL    HW177744   5.063  10.161   9.308
91949SOL    HW277745   5.189  10.219   9.370
91950SOL     OW77746  10.398   3.444   2.135
91950SOL    HW177747  10.475   3.428   2.189
91950SOL    HW277748  10.410   3.532   2.100
91951SOL     OW77749   8.955   6.462   2.739
91951SOL    HW177750   8.901   6.469   2.660
91951SOL    HW277751   8.998   6.376   2.730
91952SOL     OW77752   1.768   8.508  11.063
91952SOL    HW177753   1.862   8.495  11.048
91952SOL    HW277754   1.756   8.602  11.060
91953SOL     OW77755  10.175   7.020   5.777
91953SOL    HW177756  10.093   7.013   5.729
91953SOL    HW277757  10.240   7.044   5.711
91954SOL     OW77758   1.879   8.533   6.304
91954SOL    HW177759   1.959   8.532   6.356
91954SOL    HW277760   1.883   8.452   6.253
91955SOL     OW77761   9.270   8.585   5.555
91955SOL    HW177762   9.246   8.499   5.521
91955SOL    HW277763   9.228   8.647   5.495
91956SOL     OW77764   6.460   4.997  10.375
91956SOL    HW177765   6.405   4.938  10.323
91956SOL    HW277766   6.484   4.946  10.452
91957SOL     OW77767  10.768   9.464   9.733
91957SOL    HW177768  10.833   9.405   9.771
91957SOL    HW277769  10.684   9.421   9.750
91958SOL     OW77770   4.172   8.507   4.724
91958SOL    HW177771   4.108   8.471   4.662
91958SOL    HW277772   4.125   8.579   4.766
91959SOL     OW77773   3.717   1.563   7.683
91959SOL    HW177774   3.729   1.630   7.750
91959SOL    HW277775   3.654   1.502   7.722
91960SOL     OW77776   4.795  11.779   4.968
91960SOL    HW177777   4.756  11.764   4.882
91960SOL    HW277778   4.811  11.691   5.003
91961SOL     OW77779  12.327   5.500  14.498
91961SOL    HW177780  12.257   5.448  14.537
91961SOL    HW277781  12.301   5.510  14.406
91962SOL     OW77782  11.916   3.017  12.188
91962SOL    HW177783  11.829   3.020  12.227
91962SOL    HW277784  11.965   3.087  12.232
91963SOL     OW77785   5.075  13.756  11.179
91963SOL    HW177786   5.019  13.800  11.115
91963SOL    HW277787   5.041  13.666  11.182
91964SOL     OW77788   1.451  12.981   4.714
91964SOL    HW177789   1.418  12.898   4.748
91964SOL    HW277790   1.545  12.967   4.704
91965SOL     OW77791  11.847   4.877   2.240
91965SOL    HW177792  11.768   4.927   2.256
91965SOL    HW277793  11.818   4.785   2.240
91966SOL     OW77794   9.053   0.313  14.297
91966SOL    HW177795   9.030   0.315  14.204
91966SOL    HW277796   9.097   0.397  14.312
91967SOL     OW77797   2.022   6.907  12.128
91967SOL    HW177798   2.061   6.913  12.215
91967SOL    HW277799   2.090   6.868  12.074
91968SOL     OW77800   7.591   7.183   3.207
91968SOL    HW177801   7.499   7.185   3.182
91968SOL    HW277802   7.597   7.244   3.281
91969SOL     OW77803  11.526  10.095   2.778
91969SOL    HW177804  11.505  10.188   2.768
91969SOL    HW277805  11.599  10.094   2.840
91970SOL     OW77806  11.944   8.867   3.356
91970SOL    HW177807  11.861   8.915   3.359
91970SOL    HW277808  12.003   8.926   3.309
91971SOL     OW77809   0.891   7.923   4.996
91971SOL    HW177810   0.945   7.992   4.957
91971SOL    HW277811   0.893   7.852   4.931
91972SOL     OW77812   9.751   2.921   2.915
91972SOL    HW177813   9.842   2.902   2.889
91972SOL    HW277814   9.722   2.988   2.853
91973SOL     OW77815  13.988   4.013   9.031
91973SOL    HW177816  13.905   4.051   9.000
91973SOL    HW277817  14.046   4.089   9.041
91974SOL     OW77818   5.387   6.098   8.234
91974SOL    HW177819   5.401   6.093   8.328
91974SOL    HW277820   5.472   6.124   8.198
91975SOL     OW77821   9.477   1.399  10.138
91975SOL    HW177822   9.458   1.306  10.127
91975SOL    HW277823   9.501   1.408  10.230
91976SOL     OW77824   9.185   1.535  13.471
91976SOL    HW177825   9.236   1.616  13.473
91976SOL    HW277826   9.098   1.562  13.442
91977SOL     OW77827  11.875  14.668  12.716
91977SOL    HW177828  11.948  14.730  12.712
91977SOL    HW277829  11.916  14.583  12.730
91978SOL     OW77830  13.805  12.808   9.364
91978SOL    HW177831  13.739  12.849   9.307
91978SOL    HW277832  13.755  12.751   9.422
91979SOL     OW77833   1.933  10.813   5.791
91979SOL    HW177834   1.979  10.890   5.759
91979SOL    HW277835   1.941  10.819   5.886
91980SOL     OW77836  14.132  14.556   7.608
91980SOL    HW177837  14.116  14.463   7.598
91980SOL    HW277838  14.051  14.598   7.579
91981SOL     OW77839   8.979   0.194  13.172
91981SOL    HW177840   9.048   0.184  13.108
91981SOL    HW277841   8.921   0.119  13.157
91982SOL     OW77842   0.226  14.070   3.633
91982SOL    HW177843   0.295  14.020   3.590
91982SOL    HW277844   0.159  14.005   3.655
91983SOL     OW77845   4.561   1.394   8.579
91983SOL    HW177846   4.501   1.459   8.543
91983SOL    HW277847   4.615   1.368   8.505
91984SOL     OW77848   7.099  13.774  10.028
91984SOL    HW177849   7.046  13.701   9.996
91984SOL    HW277850   7.038  13.849  10.028
91985SOL     OW77851   0.017  10.671  13.865
91985SOL    HW177852  14.860  10.745  13.813
91985SOL    HW277853   0.082  10.626  13.811
91986SOL     OW77854   4.819  11.980  12.512
91986SOL    HW177855   4.771  11.983  12.429
91986SOL    HW277856   4.902  11.936  12.490
91987SOL     OW77857   8.803  10.017  12.925
91987SOL    HW177858   8.817  10.081  12.994
91987SOL    HW277859   8.888   9.975  12.913
91988SOL     OW77860  12.590   2.625   5.230
91988SOL    HW177861  12.513   2.616   5.175
91988SOL    HW277862  12.600   2.539   5.271
91989SOL     OW77863  14.454   7.575   8.995
91989SOL    HW177864  14.484   7.538   9.079
91989SOL    HW277865  14.510   7.651   8.982
91990SOL     OW77866   2.788  10.755  10.043
91990SOL    HW177867   2.789  10.670  10.088
91990SOL    HW277868   2.876  10.790  10.055
91991SOL     OW77869   9.908   2.849   7.095
91991SOL    HW177870   9.929   2.940   7.116
91991SOL    HW277871   9.875   2.852   7.005
91992SOL     OW77872   7.535   1.509  13.501
91992SOL    HW177873   7.538   1.418  13.473
91992SOL    HW277874   7.492   1.555  13.429
91993SOL     OW77875   3.864  14.141  10.884
91993SOL    HW177876   3.826  14.227  10.870
91993SOL    HW277877   3.902  14.146  10.972
91994SOL     OW77878   1.552   7.890   6.648
91994SOL    HW177879   1.591   7.846   6.724
91994SOL    HW277880   1.602   7.855   6.573
91995SOL     OW77881   5.711   6.674   5.805
91995SOL    HW177882   5.717   6.604   5.739
91995SOL    HW277883   5.733   6.631   5.888
91996SOL     OW77884  13.676   4.205  13.449
91996SOL    HW177885  13.622   4.185  13.525
91996SOL    HW277886  13.656   4.296  13.429
91997SOL     OW77887  10.899   4.734  12.548
91997SOL    HW177888  10.831   4.711  12.485
91997SOL    HW277889  10.921   4.651  12.591
91998SOL     OW77890   1.160  11.550   1.799
91998SOL    HW177891   1.155  11.485   1.730
91998SOL    HW277892   1.153  11.500   1.881
91999SOL     OW77893   0.317   3.259   6.349
91999SOL    HW177894   0.237   3.259   6.402
91999SOL    HW277895   0.342   3.351   6.344
92000SOL     OW77896   5.901   1.736   4.417
92000SOL    HW177897   5.979   1.712   4.367
92000SOL    HW277898   5.828   1.715   4.359
92001SOL     OW77899  11.374  12.390  10.067
92001SOL    HW177900  11.309  12.443  10.112
92001SOL    HW277901  11.323  12.331  10.012
92002SOL     OW77902  12.638  10.066  12.807
92002SOL    HW177903  12.547  10.066  12.778
92002SOL    HW277904  12.643  10.136  12.872
92003SOL     OW77905   0.831   1.568  12.185
92003SOL    HW177906   0.859   1.650  12.144
92003SOL    HW277907   0.840   1.502  12.116
92004SOL     OW77908   2.955   8.141  10.656
92004SOL    HW177909   2.935   8.230  10.625
92004SOL    HW277910   3.008   8.155  10.734
92005SOL     OW77911   0.995   9.065   5.531
92005SOL    HW177912   1.061   9.133   5.535
92005SOL    HW277913   0.938   9.090   5.458
92006SOL     OW77914  14.166   5.687   2.567
92006SOL    HW177915  14.216   5.706   2.487
92006SOL    HW277916  14.188   5.760   2.626
92007SOL     OW77917  11.133  12.131   5.327
92007SOL    HW177918  11.149  12.208   5.273
92007SOL    HW277919  11.048  12.149   5.368
92008SOL     OW77920   3.656  13.899   0.776
92008SOL    HW177921   3.594  13.934   0.839
92008SOL    HW277922   3.691  13.976   0.731
92009SOL     OW77923  10.722  12.908   7.786
92009SOL    HW177924  10.782  12.837   7.806
92009SOL    HW277925  10.758  12.983   7.833
92010SOL     OW77926  13.362   0.370   9.268
92010SOL    HW177927  13.335   0.439   9.329
92010SOL    HW277928  13.303   0.297   9.286
92011SOL     OW77929   5.189  13.477   6.666
92011SOL    HW177930   5.145  13.562   6.660
92011SOL    HW277931   5.125  13.421   6.710
92012SOL     OW77932  12.892   4.647  13.225
92012SOL    HW177933  12.887   4.551  13.218
92012SOL    HW277934  12.831   4.678  13.158
92013SOL     OW77935   5.399  10.744   0.501
92013SOL    HW177936   5.477  10.797   0.481
92013SOL    HW277937   5.348  10.799   0.561
92014SOL     OW77938   6.244  11.081  12.839
92014SOL    HW177939   6.268  11.108  12.928
92014SOL    HW277940   6.185  11.149  12.808
92015SOL     OW77941  12.148  14.659   1.901
92015SOL    HW177942  12.163  14.571   1.866
92015SOL    HW277943  12.214  14.714   1.860
92016SOL     OW77944   5.003   5.885   6.078
92016SOL    HW177945   4.935   5.924   6.023
92016SOL    HW277946   4.959   5.814   6.125
92017SOL     OW77947   2.148   9.887  13.765
92017SOL    HW177948   2.147   9.879  13.670
92017SOL    HW277949   2.142   9.797  13.797
92018SOL     OW77950   0.275   8.964   9.858
92018SOL    HW177951   0.237   8.902   9.920
92018SOL    HW277952   0.330   8.910   9.801
92019SOL     OW77953  12.482   9.700   0.448
92019SOL    HW177954  12.530   9.740   0.375
92019SOL    HW277955  12.452   9.775   0.500
92020SOL     OW77956   6.623  10.204   4.779
92020SOL    HW177957   6.642  10.254   4.859
92020SOL    HW277958   6.540  10.240   4.748
92021SOL     OW77959  13.337  14.749   0.552
92021SOL    HW177960  13.422  14.729   0.514
92021SOL    HW277961  13.298  14.664   0.571
92022SOL     OW77962  11.344   9.926   8.030
92022SOL    HW177963  11.424   9.971   8.002
92022SOL    HW277964  11.296   9.992   8.080
92023SOL     OW77965   5.126   8.644  13.227
92023SOL    HW177966   5.158   8.559  13.199
92023SOL    HW277967   5.073   8.676  13.154
92024SOL     OW77968  11.310   7.610   8.165
92024SOL    HW177969  11.256   7.689   8.153
92024SOL    HW277970  11.384   7.622   8.106
92025SOL     OW77971  12.136   2.636   7.695
92025SOL    HW177972  12.088   2.592   7.765
92025SOL    HW277973  12.119   2.582   7.618
92026SOL     OW77974  14.017   0.263  13.266
92026SOL    HW177975  14.035   0.204  13.338
92026SOL    HW277976  13.929   0.296  13.283
92027SOL     OW77977   0.265   9.147  13.458
92027SOL    HW177978   0.347   9.112  13.492
92027SOL    HW277979   0.219   9.180  13.535
92028SOL     OW77980  11.708  11.399   1.017
92028SOL    HW177981  11.619  11.430   1.031
92028SOL    HW277982  11.707  11.363   0.928
92029SOL     OW77983  14.362   5.404   5.757
92029SOL    HW177984  14.277   5.409   5.801
92029SOL    HW277985  14.359   5.475   5.693
92030SOL     OW77986   1.153  12.544   4.896
92030SOL    HW177987   1.076  12.598   4.880
92030SOL    HW277988   1.138  12.465   4.844
92031SOL     OW77989  11.303  11.310  11.581
92031SOL    HW177990  11.309  11.245  11.651
92031SOL    HW277991  11.229  11.365  11.605
92032SOL     OW77992   1.617   9.749   9.276
92032SOL    HW177993   1.579   9.765   9.363
92032SOL    HW277994   1.597   9.657   9.259
92033SOL     OW77995  10.822   7.496   1.421
92033SOL    HW177996  10.909   7.460   1.436
92033SOL    HW277997  10.831   7.590   1.440
92034SOL     OW77998   6.473  12.718   2.118
92034SOL    HW177999   6.459  12.675   2.202
92034SOL    HW278000   6.491  12.809   2.139
92035SOL     OW78001   7.108  14.117   6.675
92035SOL    HW178002   7.135  14.139   6.764
92035SOL    HW278003   7.146  14.186   6.620
92036SOL     OW78004  13.667   6.047  14.643
92036SOL    HW178005  13.720   6.026  14.566
92036SOL    HW278006  13.579   6.018  14.620
92037SOL     OW78007  12.586  14.524  13.985
92037SOL    HW178008  12.652  14.504  13.918
92037SOL    HW278009  12.505  14.538  13.935
92038SOL     OW78010  13.653   3.162   1.447
92038SOL    HW178011  13.697   3.102   1.386
92038SOL    HW278012  13.677   3.249   1.417
92039SOL     OW78013  10.514  11.699   4.919
92039SOL    HW178014  10.533  11.761   4.989
92039SOL    HW278015  10.440  11.737   4.872
92040SOL     OW78016  13.337   6.281   4.875
92040SOL    HW178017  13.301   6.362   4.840
92040SOL    HW278018  13.391   6.308   4.949
92041SOL     OW78019  14.750   6.495  13.518
92041SOL    HW178020  14.760   6.526  13.608
92041SOL    HW278021  14.820   6.538  13.470
92042SOL     OW78022   8.475   0.352  12.530
92042SOL    HW178023   8.460   0.293  12.604
92042SOL    HW278024   8.429   0.311  12.457
92043SOL     OW78025  13.271   9.799  10.153
92043SOL    HW178026  13.273   9.713  10.112
92043SOL    HW278027  13.180   9.809  10.184
92044SOL     OW78028  14.353   5.850   5.178
92044SOL    HW178029  14.423   5.909   5.149
92044SOL    HW278030  14.345   5.786   5.107
92045SOL     OW78031   0.849  13.156   8.162
92045SOL    HW178032   0.884  13.076   8.124
92045SOL    HW278033   0.870  13.151   8.255
92046SOL     OW78034   4.496   2.550  13.092
92046SOL    HW178035   4.554   2.598  13.151
92046SOL    HW278036   4.512   2.589  13.006
92047SOL     OW78037   9.622  14.194  10.847
92047SOL    HW178038   9.562  14.140  10.796
92047SOL    HW278039   9.589  14.283  10.837
92048SOL     OW78040  10.515   5.840  11.224
92048SOL    HW178041  10.603   5.808  11.206
92048SOL    HW278042  10.526   5.902  11.296
92049SOL     OW78043  14.445   2.576  10.324
92049SOL    HW178044  14.351   2.591  10.311
92049SOL    HW278045  14.483   2.664  10.320
92050SOL     OW78046   2.924   8.067   6.497
92050SOL    HW178047   2.982   8.044   6.423
92050SOL    HW278048   2.958   8.016   6.570
92051SOL     OW78049  13.125   3.439   0.461
92051SOL    HW178050  13.058   3.376   0.490
92051SOL    HW278051  13.133   3.424   0.367
92052SOL     OW78052   0.275   6.879   2.314
92052SOL    HW178053   0.349   6.923   2.356
92052SOL    HW278054   0.293   6.885   2.220
92053SOL     OW78055  14.609   7.881   6.510
92053SOL    HW178056  14.557   7.943   6.461
92053SOL    HW278057  14.668   7.842   6.446
92054SOL     OW78058   8.926   4.604  11.362
92054SOL    HW178059   8.941   4.582  11.270
92054SOL    HW278060   8.857   4.544  11.390
92055SOL     OW78061   9.363   8.556   7.326
92055SOL    HW178062   9.427   8.584   7.391
92055SOL    HW278063   9.313   8.487   7.369
92056SOL     OW78064  14.308   7.376   8.879
92056SOL    HW178065  14.367   7.302   8.870
92056SOL    HW278066  14.365   7.451   8.899
92057SOL     OW78067   5.017   1.533  11.971
92057SOL    HW178068   5.042   1.461  11.914
92057SOL    HW278069   5.071   1.607  11.943
92058SOL     OW78070  13.931   6.949  12.259
92058SOL    HW178071  14.012   6.904  12.285
92058SOL    HW278072  13.876   6.946  12.337
92059SOL     OW78073  11.284   4.382   4.636
92059SOL    HW178074  11.354   4.403   4.575
92059SOL    HW278075  11.252   4.468   4.666
92060SOL     OW78076  13.974   8.114   2.581
92060SOL    HW178077  14.043   8.115   2.514
92060SOL    HW278078  13.892   8.108   2.532
92061SOL     OW78079   3.214  13.806  10.969
92061SOL    HW178080   3.248  13.892  10.944
92061SOL    HW278081   3.166  13.776  10.893
92062SOL     OW78082   2.740   6.196  13.851
92062SOL    HW178083   2.742   6.102  13.868
92062SOL    HW278084   2.817   6.211  13.796
92063SOL     OW78085  13.830  12.496  12.287
92063SOL    HW178086  13.783  12.451  12.357
92063SOL    HW278087  13.915  12.517  12.325
92064SOL     OW78088   5.946   0.013   3.993
92064SOL    HW178089   5.969   0.047   4.080
92064SOL    HW278090   5.902  14.801   4.011
92065SOL     OW78091  12.471  11.145   7.062
92065SOL    HW178092  12.448  11.192   7.143
92065SOL    HW278093  12.483  11.214   6.997
92066SOL     OW78094   4.296   5.308   9.889
92066SOL    HW178095   4.232   5.349   9.947
92066SOL    HW278096   4.359   5.267   9.949
92067SOL     OW78097   5.029   9.474   6.414
92067SOL    HW178098   5.025   9.396   6.469
92067SOL    HW278099   4.971   9.537   6.457
92068SOL     OW78100   2.627   0.173   7.566
92068SOL    HW178101   2.605   0.265   7.559
92068SOL    HW278102   2.721   0.171   7.579
92069SOL     OW78103   5.863  12.477  12.762
92069SOL    HW178104   5.889  12.463  12.671
92069SOL    HW278105   5.856  12.572  12.771
92070SOL     OW78106   0.395   4.361  14.142
92070SOL    HW178107   0.438   4.350  14.057
92070SOL    HW278108   0.329   4.429  14.127
92071SOL     OW78109   1.529   3.777   8.431
92071SOL    HW178110   1.597   3.710   8.428
92071SOL    HW278111   1.566   3.847   8.484
92072SOL     OW78112   5.933   6.575  12.018
92072SOL    HW178113   6.000   6.560  12.084
92072SOL    HW278114   5.961   6.523  11.943
92073SOL     OW78115   2.968   5.823   1.307
92073SOL    HW178116   3.039   5.876   1.344
92073SOL    HW278117   2.898   5.886   1.290
92074SOL     OW78118   9.930  14.079   8.143
92074SOL    HW178119   9.906  14.016   8.074
92074SOL    HW278120   9.848  14.124   8.164
92075SOL     OW78121  12.728  10.516   9.579
92075SOL    HW178122  12.796  10.485   9.520
92075SOL    HW278123  12.695  10.436   9.622
92076SOL     OW78124   1.955  11.784   5.910
92076SOL    HW178125   2.024  11.819   5.967
92076SOL    HW278126   1.873  11.806   5.955
92077SOL     OW78127   4.301  11.614   5.519
92077SOL    HW178128   4.305  11.705   5.548
92077SOL    HW278129   4.390  11.594   5.490
92078SOL     OW78130   2.545   0.277   8.869
92078SOL    HW178131   2.514   0.327   8.792
92078SOL    HW278132   2.495   0.314   8.942
92079SOL     OW78133   7.918   0.652   7.514
92079SOL    HW178134   7.984   0.664   7.582
92079SOL    HW278135   7.934   0.563   7.481
92080SOL     OW78136   9.081  10.687  11.261
92080SOL    HW178137   9.123  10.605  11.288
92080SOL    HW278138   9.022  10.709  11.333
92081SOL     OW78139  10.147   8.094   9.101
92081SOL    HW178140  10.072   8.131   9.148
92081SOL    HW278141  10.123   8.003   9.087
92082SOL     OW78142  11.451   6.987   5.842
92082SOL    HW178143  11.395   6.936   5.784
92082SOL    HW278144  11.440   6.946   5.928
92083SOL     OW78145   0.712   6.455   5.128
92083SOL    HW178146   0.701   6.394   5.201
92083SOL    HW278147   0.693   6.403   5.050
92084SOL     OW78148   7.540   6.773   4.402
92084SOL    HW178149   7.601   6.746   4.334
92084SOL    HW278150   7.520   6.692   4.449
92085SOL     OW78151  12.618  14.868   2.946
92085SOL    HW178152  12.659   0.048   3.016
92085SOL    HW278153  12.593  14.786   2.988
92086SOL     OW78154   7.415   4.908  10.836
92086SOL    HW178155   7.454   4.995  10.832
92086SOL    HW278156   7.342   4.918  10.897
92087SOL     OW78157   8.110   7.558   5.826
92087SOL    HW178158   8.028   7.526   5.788
92087SOL    HW278159   8.123   7.506   5.905
92088SOL     OW78160   2.510  11.605  10.413
92088SOL    HW178161   2.445  11.626  10.480
92088SOL    HW278162   2.513  11.509  10.411
92089SOL     OW78163  10.033  12.113  12.012
92089SOL    HW178164   9.961  12.175  12.026
92089SOL    HW278165  10.109  12.167  11.992
92090SOL     OW78166   6.026  11.536  10.537
92090SOL    HW178167   6.010  11.614  10.590
92090SOL    HW278168   6.061  11.472  10.599
92091SOL     OW78169   1.479   2.637   5.480
92091SOL    HW178170   1.517   2.583   5.411
92091SOL    HW278171   1.483   2.583   5.558
92092SOL     OW78172  14.852  10.404  14.329
92092SOL    HW178173  14.811  10.483  14.365
92092SOL    HW278174  14.864  10.423  14.236
92093SOL     OW78175  13.974   0.960   3.983
92093SOL    HW178176  13.880   0.977   3.976
92093SOL    HW278177  14.007   0.970   3.894
92094SOL     OW78178   0.871   1.568   7.836
92094SOL    HW178179   0.963   1.591   7.849
92094SOL    HW278180   0.865   1.544   7.743
92095SOL     OW78181  11.052   4.850   5.670
92095SOL    HW178182  11.049   4.834   5.764
92095SOL    HW278183  11.125   4.910   5.658
92096SOL     OW78184   8.947  10.354   0.767
92096SOL    HW178185   8.855  10.326   0.774
92096SOL    HW278186   8.998  10.276   0.787
92097SOL     OW78187  11.047  14.036   9.977
92097SOL    HW178188  11.135  14.003   9.995
92097SOL    HW278189  11.011  13.975   9.913
92098SOL     OW78190  14.245  12.967  13.859
92098SOL    HW178191  14.252  12.917  13.778
92098SOL    HW278192  14.334  12.969  13.894
92099SOL     OW78193   9.218   8.143   8.678
92099SOL    HW178194   9.148   8.101   8.627
92099SOL    HW278195   9.223   8.092   8.759
92100SOL     OW78196  14.085  11.722  11.631
92100SOL    HW178197  14.161  11.780  11.624
92100SOL    HW278198  14.010  11.777  11.609
92101SOL     OW78199  10.368   9.850   9.775
92101SOL    HW178200  10.301   9.857   9.844
92101SOL    HW278201  10.321   9.813   9.701
92102SOL     OW78202   4.183  14.289   8.395
92102SOL    HW178203   4.252  14.336   8.350
92102SOL    HW278204   4.146  14.231   8.328
92103SOL     OW78205  13.053   6.440  10.363
92103SOL    HW178206  13.053   6.398  10.278
92103SOL    HW278207  13.011   6.525  10.347
92104SOL     OW78208   8.010   7.073  10.180
92104SOL    HW178209   7.938   7.115  10.134
92104SOL    HW278210   7.997   7.097  10.272
92105SOL     OW78211   8.906  13.218   1.751
92105SOL    HW178212   8.846  13.149   1.724
92105SOL    HW278213   8.985  13.172   1.777
92106SOL     OW78214  12.630   6.599  13.178
92106SOL    HW178215  12.573   6.602  13.101
92106SOL    HW278216  12.709   6.646  13.151
92107SOL     OW78217   5.153   6.803   3.701
92107SOL    HW178218   5.061   6.786   3.681
92107SOL    HW278219   5.157   6.896   3.722
92108SOL     OW78220   1.649   0.827   9.792
92108SOL    HW178221   1.699   0.891   9.842
92108SOL    HW278222   1.705   0.750   9.788
92109SOL     OW78223   9.535  11.412   4.756
92109SOL    HW178224   9.622  11.403   4.793
92109SOL    HW278225   9.545  11.390   4.664
92110SOL     OW78226   5.721  10.628   4.538
92110SOL    HW178227   5.722  10.533   4.522
92110SOL    HW278228   5.813  10.653   4.536
92111SOL     OW78229   8.364   2.419   5.581
92111SOL    HW178230   8.405   2.374   5.655
92111SOL    HW278231   8.322   2.349   5.531
92112SOL     OW78232   3.855  10.830  10.761
92112SOL    HW178233   3.822  10.919  10.763
92112SOL    HW278234   3.935  10.832  10.813
92113SOL     OW78235   8.007  12.311   5.577
92113SOL    HW178236   7.949  12.326   5.652
92113SOL    HW278237   8.001  12.217   5.561
92114SOL     OW78238   1.987  10.046  10.818
92114SOL    HW178239   2.062  10.015  10.768
92114SOL    HW278240   1.917  10.054  10.754
92115SOL     OW78241  13.667   3.018   3.645
92115SOL    HW178242  13.757   3.008   3.615
92115SOL    HW278243  13.675   3.039   3.738
92116SOL     OW78244   0.396   2.390  10.415
92116SOL    HW178245   0.487   2.383  10.386
92116SOL    HW278246   0.395   2.465  10.475
92117SOL     OW78247  12.913   3.422  13.234
92117SOL    HW178248  12.892   3.400  13.325
92117SOL    HW278249  12.981   3.489  13.242
92118SOL     OW78250  11.661   1.930  10.207
92118SOL    HW178251  11.661   2.007  10.149
92118SOL    HW278252  11.587   1.946  10.267
92119SOL     OW78253   5.263   0.796   9.625
92119SOL    HW178254   5.284   0.705   9.601
92119SOL    HW278255   5.291   0.848   9.550
92120SOL     OW78256   0.004  12.776   4.834
92120SOL    HW178257   0.051  12.709   4.784
92120SOL    HW278258  14.819  12.726   4.892
92121SOL     OW78259  14.839   3.494   0.500
92121SOL    HW178260  14.811   3.535   0.582
92121SOL    HW278261  14.854   3.568   0.441
92122SOL     OW78262  12.573   3.129  10.872
92122SOL    HW178263  12.541   3.053  10.919
92122SOL    HW278264  12.547   3.204  10.925
92123SOL     OW78265   4.691  14.523   7.356
92123SOL    HW178266   4.660  14.446   7.403
92123SOL    HW278267   4.626  14.535   7.286
92124SOL     OW78268  14.525   6.762  11.854
92124SOL    HW178269  14.472   6.815  11.796
92124SOL    HW278270  14.567   6.824  11.912
92125SOL     OW78271   0.096   1.365   3.194
92125SOL    HW178272   0.085   1.460   3.205
92125SOL    HW278273   0.128   1.334   3.279
92126SOL     OW78274  12.516  10.600  11.399
92126SOL    HW178275  12.474  10.517  11.420
92126SOL    HW278276  12.495  10.656  11.474
92127SOL     OW78277   1.653   2.709   4.780
92127SOL    HW178278   1.631   2.753   4.862
92127SOL    HW278279   1.645   2.777   4.713
92128SOL     OW78280   3.111  12.406  13.831
92128SOL    HW178281   3.016  12.414  13.840
92128SOL    HW278282   3.133  12.461  13.756
92129SOL     OW78283   6.363   0.935   0.971
92129SOL    HW178284   6.380   0.941   1.065
92129SOL    HW278285   6.302   0.861   0.963
92130SOL     OW78286  11.158   3.327   6.028
92130SOL    HW178287  11.126   3.303   6.115
92130SOL    HW278288  11.091   3.385   5.993
92131SOL     OW78289  14.815   0.712  13.326
92131SOL    HW178290   0.016   0.729  13.386
92131SOL    HW278291  14.836   0.628  13.286
92132SOL     OW78292   4.691   4.752  13.322
92132SOL    HW178293   4.752   4.694  13.367
92132SOL    HW278294   4.617   4.760  13.382
92133SOL     OW78295  10.846   8.178  10.930
92133SOL    HW178296  10.824   8.131  11.011
92133SOL    HW278297  10.938   8.202  10.941
92134SOL     OW78298  11.515  14.768   9.158
92134SOL    HW178299  11.490  14.765   9.251
92134SOL    HW278300  11.493  14.681   9.125
92135SOL     OW78301   7.629   5.929   1.883
92135SOL    HW178302   7.698   5.870   1.912
92135SOL    HW278303   7.555   5.872   1.861
92136SOL     OW78304  12.927   4.030  12.004
92136SOL    HW178305  12.855   4.051  11.945
92136SOL    HW278306  12.886   4.016  12.090
92137SOL     OW78307   0.257  14.196  11.900
92137SOL    HW178308   0.279  14.106  11.875
92137SOL    HW278309   0.206  14.187  11.980
92138SOL     OW78310   3.152   4.820   6.876
92138SOL    HW178311   3.084   4.869   6.923
92138SOL    HW278312   3.157   4.737   6.923
92139SOL     OW78313   9.222  12.289   7.928
92139SOL    HW178314   9.151  12.269   7.989
92139SOL    HW278315   9.288  12.223   7.945
92140SOL     OW78316   2.978   9.546   8.262
92140SOL    HW178317   2.954   9.516   8.350
92140SOL    HW278318   3.027   9.473   8.224
92141SOL     OW78319  13.431  14.214  10.404
92141SOL    HW178320  13.498  14.243  10.466
92141SOL    HW278321  13.369  14.287  10.400
92142SOL     OW78322   5.268   9.184   3.199
92142SOL    HW178323   5.335   9.235   3.244
92142SOL    HW278324   5.185   9.215   3.237
92143SOL     OW78325  10.279   6.419  10.846
92143SOL    HW178326  10.235   6.467  10.916
92143SOL    HW278327  10.222   6.427  10.770
92144SOL     OW78328  13.747   2.911   0.322
92144SOL    HW178329  13.768   3.005   0.323
92144SOL    HW278330  13.679   2.901   0.390
92145SOL     OW78331  10.563  14.311   6.089
92145SOL    HW178332  10.571  14.247   6.019
92145SOL    HW278333  10.612  14.273   6.162
92146SOL     OW78334   0.680   9.568  14.862
92146SOL    HW178335   0.679   9.556   0.085
92146SOL    HW278336   0.588   9.578  14.839
92147SOL     OW78337   7.156   4.985  12.043
92147SOL    HW178338   7.201   5.000  11.960
92147SOL    HW278339   7.180   4.896  12.068
92148SOL     OW78340   4.733   5.773  14.477
92148SOL    HW178341   4.691   5.738  14.555
92148SOL    HW278342   4.808   5.715  14.462
92149SOL     OW78343   4.191   3.623   9.551
92149SOL    HW178344   4.170   3.715   9.568
92149SOL    HW278345   4.106   3.578   9.552
92150SOL     OW78346   4.363   8.575  12.378
92150SOL    HW178347   4.333   8.561  12.468
92150SOL    HW278348   4.414   8.496  12.358
92151SOL     OW78349   8.932   0.384   7.865
92151SOL    HW178350   8.864   0.359   7.804
92151SOL    HW278351   9.013   0.352   7.825
92152SOL     OW78352   1.327  12.679  10.362
92152SOL    HW178353   1.339  12.719  10.276
92152SOL    HW278354   1.394  12.611  10.367
92153SOL     OW78355   5.613   1.079  11.129
92153SOL    HW178356   5.661   1.059  11.049
92153SOL    HW278357   5.575   1.166  11.114
92154SOL     OW78358  11.327  14.013  10.219
92154SOL    HW178359  11.324  13.922  10.188
92154SOL    HW278360  11.324  14.066  10.139
92155SOL     OW78361   2.835   2.435   8.171
92155SOL    HW178362   2.816   2.422   8.078
92155SOL    HW278363   2.778   2.372   8.216
92156SOL     OW78364  11.005   4.450   0.983
92156SOL    HW178365  11.093   4.436   1.017
92156SOL    HW278366  10.954   4.479   1.059
92157SOL     OW78367   2.415   7.282  13.763
92157SOL    HW178368   2.324   7.302  13.787
92157SOL    HW278369   2.466   7.352  13.805
92158SOL     OW78370   6.247  11.025   3.359
92158SOL    HW178371   6.328  11.073   3.344
92158SOL    HW278372   6.256  10.989   3.447
92159SOL     OW78373   9.486  11.008   8.350
92159SOL    HW178374   9.415  10.983   8.410
92159SOL    HW278375   9.521  11.089   8.388
92160SOL     OW78376  13.990   1.903  14.437
92160SOL    HW178377  13.941   1.937  14.362
92160SOL    HW278378  14.069   1.864  14.398
92161SOL     OW78379  11.551   5.281   7.594
92161SOL    HW178380  11.563   5.200   7.644
92161SOL    HW278381  11.456   5.286   7.580
92162SOL     OW78382   7.851   6.898   6.279
92162SOL    HW178383   7.890   6.823   6.234
92162SOL    HW278384   7.924   6.956   6.297
92163SOL     OW78385  11.277   2.558   6.165
92163SOL    HW178386  11.342   2.560   6.235
92163SOL    HW278387  11.311   2.495   6.102
92164SOL     OW78388   4.625  12.308   1.190
92164SOL    HW178389   4.657  12.275   1.106
92164SOL    HW278390   4.540  12.347   1.169
92165SOL     OW78391   8.829   6.546   0.956
92165SOL    HW178392   8.826   6.472   0.895
92165SOL    HW278393   8.922   6.558   0.974
92166SOL     OW78394  12.424   0.927  13.965
92166SOL    HW178395  12.367   0.931  13.888
92166SOL    HW278396  12.364   0.924  14.039
92167SOL     OW78397   8.514   7.006   8.582
92167SOL    HW178398   8.426   6.968   8.578
92167SOL    HW278399   8.511   7.066   8.656
92168SOL     OW78400  13.343   2.715   5.764
92168SOL    HW178401  13.367   2.786   5.824
92168SOL    HW278402  13.249   2.703   5.778
92169SOL     OW78403   0.886  10.571  10.440
92169SOL    HW178404   0.817  10.530  10.388
92169SOL    HW278405   0.881  10.664  10.417
92170SOL     OW78406   8.162   1.163   0.039
92170SOL    HW178407   8.124   1.118  14.836
92170SOL    HW278408   8.088   1.177   0.099
92171SOL     OW78409  12.688   2.063   9.403
92171SOL    HW178410  12.662   2.123   9.333
92171SOL    HW278411  12.624   2.079   9.473
92172SOL     OW78412  10.858   0.163   1.169
92172SOL    HW178413  10.806   0.243   1.180
92172SOL    HW278414  10.852   0.118   1.253
92173SOL     OW78415   5.464   9.897   5.486
92173SOL    HW178416   5.433   9.924   5.572
92173SOL    HW278417   5.420   9.814   5.469
92174SOL     OW78418  11.505   0.005   5.742
92174SOL    HW178419  11.506   0.077   5.805
92174SOL    HW278420  11.463   0.042   5.664
92175SOL     OW78421   5.263  11.055   7.555
92175SOL    HW178422   5.278  10.974   7.505
92175SOL    HW278423   5.170  11.073   7.544
92176SOL     OW78424   9.733   2.328   2.689
92176SOL    HW178425   9.678   2.359   2.617
92176SOL    HW278426   9.680   2.260   2.731
92177SOL     OW78427  13.508   5.758   0.784
92177SOL    HW178428  13.548   5.844   0.775
92177SOL    HW278429  13.484   5.734   0.694
92178SOL     OW78430   5.457   7.681   2.352
92178SOL    HW178431   5.523   7.694   2.420
92178SOL    HW278432   5.396   7.618   2.391
92179SOL     OW78433   7.596   9.211   0.157
92179SOL    HW178434   7.502   9.221   0.168
92179SOL    HW278435   7.628   9.300   0.138
92180SOL     OW78436  13.304   3.975   0.453
92180SOL    HW178437  13.254   3.925   0.517
92180SOL    HW278438  13.349   4.042   0.504
92181SOL     OW78439  11.220  12.345   6.550
92181SOL    HW178440  11.215  12.299   6.634
92181SOL    HW278441  11.256  12.431   6.571
92182SOL     OW78442   3.976  11.627   1.422
92182SOL    HW178443   3.887  11.627   1.388
92182SOL    HW278444   4.031  11.608   1.345
92183SOL     OW78445   2.597   0.632  10.280
92183SOL    HW178446   2.610   0.726  10.285
92183SOL    HW278447   2.555   0.618  10.196
92184SOL     OW78448   9.397  12.321  10.235
92184SOL    HW178449   9.377  12.347  10.325
92184SOL    HW278450   9.441  12.398  10.197
92185SOL     OW78451  12.617   4.985  13.344
92185SOL    HW178452  12.602   5.058  13.283
92185SOL    HW278453  12.669   5.023  13.415
92186SOL     OW78454   9.317  13.298   8.776
92186SOL    HW178455   9.382  13.320   8.842
92186SOL    HW278456   9.267  13.226   8.816
92187SOL     OW78457   0.476   7.876   3.191
92187SOL    HW178458   0.533   7.802   3.169
92187SOL    HW278459   0.412   7.839   3.252
92188SOL     OW78460   2.146  11.518   9.673
92188SOL    HW178461   2.062  11.486   9.706
92188SOL    HW278462   2.179  11.448   9.618
92189SOL     OW78463   5.504  14.828   7.407
92189SOL    HW178464   5.519  14.733   7.409
92189SOL    HW278465   5.591  14.866   7.421
92190SOL     OW78466  12.011   6.555  11.050
92190SOL    HW178467  12.081   6.492  11.030
92190SOL    HW278468  11.993   6.598  10.966
92191SOL     OW78469   3.073   8.067   2.756
92191SOL    HW178470   3.095   8.137   2.695
92191SOL    HW278471   3.043   8.113   2.834
92192SOL     OW78472   7.335  12.826   6.372
92192SOL    HW178473   7.364  12.736   6.386
92192SOL    HW278474   7.284  12.822   6.291
92193SOL     OW78475   8.773  13.130  13.241
92193SOL    HW178476   8.840  13.194  13.263
92193SOL    HW278477   8.700  13.149  13.299
92194SOL     OW78478   5.590   6.633   9.222
92194SOL    HW178479   5.636   6.593   9.148
92194SOL    HW278480   5.603   6.727   9.209
92195SOL     OW78481   4.934   7.177   0.590
92195SOL    HW178482   5.023   7.157   0.620
92195SOL    HW278483   4.931   7.272   0.585
92196SOL     OW78484   7.931   6.612   8.458
92196SOL    HW178485   7.848   6.605   8.412
92196SOL    HW278486   7.958   6.703   8.448
92197SOL     OW78487   6.186  10.743   0.336
92197SOL    HW178488   6.276  10.764   0.312
92197SOL    HW278489   6.188  10.649   0.356
92198SOL     OW78490   0.342   7.741  14.532
92198SOL    HW178491   0.427   7.741  14.576
92198SOL    HW278492   0.333   7.830  14.497
92199SOL     OW78493   3.437   8.997  13.235
92199SOL    HW178494   3.466   9.080  13.273
92199SOL    HW278495   3.491   8.987  13.157
92200SOL     OW78496   8.271   2.211  12.057
92200SOL    HW178497   8.352   2.204  12.106
92200SOL    HW278498   8.256   2.305  12.047
92201SOL     OW78499   7.219  14.622  11.512
92201SOL    HW178500   7.309  14.650  11.496
92201SOL    HW278501   7.177  14.698  11.552
92202SOL     OW78502  13.290  11.394  10.070
92202SOL    HW178503  13.287  11.490  10.078
92202SOL    HW278504  13.289  11.362  10.160
92203SOL     OW78505   6.841  13.706   3.655
92203SOL    HW178506   6.829  13.768   3.583
92203SOL    HW278507   6.774  13.729   3.719
92204SOL     OW78508   5.349  11.001   0.646
92204SOL    HW178509   5.330  11.088   0.680
92204SOL    HW278510   5.265  10.955   0.648
92205SOL     OW78511  11.369  12.097   7.575
92205SOL    HW178512  11.365  12.189   7.603
92205SOL    HW278513  11.302  12.090   7.507
92206SOL     OW78514   1.446  12.806  11.921
92206SOL    HW178515   1.505  12.730  11.917
92206SOL    HW278516   1.477  12.857  11.995
92207SOL     OW78517  14.235   0.632   7.817
92207SOL    HW178518  14.313   0.661   7.865
92207SOL    HW278519  14.227   0.539   7.838
92208SOL     OW78520  11.521   7.771   8.845
92208SOL    HW178521  11.551   7.740   8.931
92208SOL    HW278522  11.544   7.864   8.845
92209SOL     OW78523   3.324   8.140   2.409
92209SOL    HW178524   3.284   8.198   2.473
92209SOL    HW278525   3.253   8.119   2.348
92210SOL     OW78526   8.216   2.475  13.725
92210SOL    HW178527   8.237   2.434  13.641
92210SOL    HW278528   8.290   2.534  13.743
92211SOL     OW78529   9.374   6.676  12.010
92211SOL    HW178530   9.296   6.621  11.998
92211SOL    HW278531   9.407   6.651  12.097
92212SOL     OW78532   5.766   2.250   8.604
92212SOL    HW178533   5.833   2.287   8.660
92212SOL    HW278534   5.814   2.210   8.531
92213SOL     OW78535  12.510   2.138   4.061
92213SOL    HW178536  12.447   2.151   4.131
92213SOL    HW278537  12.557   2.058   4.085
92214SOL     OW78538  12.524  10.734  12.424
92214SOL    HW178539  12.448  10.782  12.458
92214SOL    HW278540  12.533  10.660  12.484
92215SOL     OW78541  14.652  13.371   9.028
92215SOL    HW178542  14.563  13.405   9.019
92215SOL    HW278543  14.692  13.423   9.098
92216SOL     OW78544   3.586  10.334  13.999
92216SOL    HW178545   3.622  10.270  13.938
92216SOL    HW278546   3.505  10.363  13.958
92217SOL     OW78547   9.946   0.746   3.409
92217SOL    HW178548   9.998   0.822   3.385
92217SOL    HW278549   9.856   0.774   3.399
92218SOL     OW78550   1.451   2.489  10.493
92218SOL    HW178551   1.460   2.581  10.516
92218SOL    HW278552   1.376   2.486  10.434
92219SOL     OW78553  11.868   5.011  12.574
92219SOL    HW178554  11.874   4.944  12.642
92219SOL    HW278555  11.799   5.070  12.604
92220SOL     OW78556   8.586  11.945  11.605
92220SOL    HW178557   8.586  12.040  11.598
92220SOL    HW278558   8.512  11.925  11.662
92221SOL     OW78559  13.879  10.244   9.872
92221SOL    HW178560  13.961  10.249   9.823
92221SOL    HW278561  13.858  10.151   9.876
92222SOL     OW78562   5.973   7.520   1.276
92222SOL    HW178563   5.979   7.615   1.263
92222SOL    HW278564   5.920   7.490   1.202
92223SOL     OW78565   3.297   9.498   5.392
92223SOL    HW178566   3.250   9.422   5.427
92223SOL    HW278567   3.315   9.553   5.468
92224SOL     OW78568  10.566   2.341   0.425
92224SOL    HW178569  10.627   2.384   0.485
92224SOL    HW278570  10.619   2.276   0.378
92225SOL     OW78571  12.752  12.694  12.954
92225SOL    HW178572  12.697  12.733  12.886
92225SOL    HW278573  12.756  12.601  12.932
92226SOL     OW78574   9.755   0.453   5.680
92226SOL    HW178575   9.768   0.360   5.698
92226SOL    HW278576   9.734   0.457   5.587
92227SOL     OW78577   7.322  12.069   2.220
92227SOL    HW178578   7.377  12.108   2.152
92227SOL    HW278579   7.319  11.976   2.198
92228SOL     OW78580   5.177   7.603   0.365
92228SOL    HW178581   5.119   7.679   0.374
92228SOL    HW278582   5.265   7.640   0.364
92229SOL     OW78583  12.903  13.763   4.062
92229SOL    HW178584  12.977  13.818   4.037
92229SOL    HW278585  12.826  13.818   4.046
92230SOL     OW78586   0.085   3.977   8.433
92230SOL    HW178587   0.073   3.938   8.520
92230SOL    HW278588  14.868   3.993   8.402
92231SOL     OW78589   1.620   8.763   4.979
92231SOL    HW178590   1.587   8.852   4.970
92231SOL    HW278591   1.683   8.768   5.051
92232SOL     OW78592   3.386   9.344   4.798
92232SOL    HW178593   3.294   9.331   4.822
92232SOL    HW278594   3.410   9.426   4.841
92233SOL     OW78595   4.860   1.648   2.540
92233SOL    HW178596   4.913   1.650   2.461
92233SOL    HW278597   4.882   1.564   2.581
92234SOL     OW78598   2.980  14.486   6.045
92234SOL    HW178599   2.968  14.561   5.987
92234SOL    HW278600   2.914  14.498   6.114
92235SOL     OW78601  10.573   2.936   2.571
92235SOL    HW178602  10.519   2.933   2.492
92235SOL    HW278603  10.512   2.959   2.640
92236SOL     OW78604  12.741  13.166   1.957
92236SOL    HW178605  12.651  13.153   1.928
92236SOL    HW278606  12.733  13.191   2.049
92237SOL     OW78607   5.770   1.452   3.937
92237SOL    HW178608   5.684   1.437   3.977
92237SOL    HW278609   5.750   1.480   3.847
92238SOL     OW78610  14.280   1.696   0.237
92238SOL    HW178611  14.232   1.633   0.290
92238SOL    HW278612  14.217   1.724   0.171
92239SOL     OW78613   4.244   2.913   4.497
92239SOL    HW178614   4.312   2.851   4.523
92239SOL    HW278615   4.168   2.888   4.549
92240SOL     OW78616   0.846  13.891  13.552
92240SOL    HW178617   0.789  13.838  13.607
92240SOL    HW278618   0.901  13.940  13.613
92241SOL     OW78619   6.445  13.490  14.089
92241SOL    HW178620   6.535  13.520  14.078
92241SOL    HW278621   6.407  13.495  14.001
92242SOL     OW78622   7.882   7.504   8.984
92242SOL    HW178623   7.825   7.562   8.933
92242SOL    HW278624   7.822   7.447   9.031
92243SOL     OW78625   5.645  11.140  10.578
92243SOL    HW178626   5.715  11.113  10.637
92243SOL    HW278627   5.631  11.233  10.598
92244SOL     OW78628  13.717   1.344   8.757
92244SOL    HW178629  13.788   1.408   8.769
92244SOL    HW278630  13.759   1.259   8.770
92245SOL     OW78631   2.227   6.730   2.145
92245SOL    HW178632   2.134   6.708   2.136
92245SOL    HW278633   2.267   6.696   2.065
92246SOL     OW78634  10.712  14.079  13.145
92246SOL    HW178635  10.786  14.135  13.171
92246SOL    HW278636  10.727  13.997  13.192
92247SOL     OW78637   5.764  14.069  10.018
92247SOL    HW178638   5.712  14.012   9.962
92247SOL    HW278639   5.799  14.135   9.958
92248SOL     OW78640   3.429   1.517  14.631
92248SOL    HW178641   3.421   1.602  14.675
92248SOL    HW278642   3.426   1.538  14.537
92249SOL     OW78643   6.478   5.503   0.459
92249SOL    HW178644   6.548   5.456   0.504
92249SOL    HW278645   6.479   5.591   0.498
92250SOL     OW78646   0.457  14.789  10.731
92250SOL    HW178647   0.396  14.850  10.772
92250SOL    HW278648   0.479  14.830  10.647
92251SOL     OW78649   2.569   8.828   2.315
92251SOL    HW178650   2.664   8.838   2.324
92251SOL    HW278651   2.559   8.750   2.260
92252SOL     OW78652   6.794   3.720   3.372
92252SOL    HW178653   6.703   3.705   3.349
92252SOL    HW278654   6.791   3.785   3.442
92253SOL     OW78655  11.805   2.179  12.005
92253SOL    HW178656  11.775   2.127  11.930
92253SOL    HW278657  11.888   2.138  12.031
92254SOL     OW78658  14.700   1.923  13.129
92254SOL    HW178659  14.667   1.872  13.204
92254SOL    HW278660  14.786   1.953  13.156
92255SOL     OW78661   8.879  14.011   1.793
92255SOL    HW178662   8.913  13.946   1.855
92255SOL    HW278663   8.793  13.978   1.769
92256SOL     OW78664  12.228   2.877   1.749
92256SOL    HW178665  12.228   2.912   1.660
92256SOL    HW278666  12.259   2.949   1.804
92257SOL     OW78667   3.618  11.756   9.667
92257SOL    HW178668   3.561  11.719   9.735
92257SOL    HW278669   3.614  11.851   9.682
92258SOL     OW78670   7.009   7.123   3.450
92258SOL    HW178671   6.981   7.035   3.426
92258SOL    HW278672   6.954   7.181   3.397
92259SOL     OW78673  11.369  14.691   5.416
92259SOL    HW178674  11.288  14.705   5.367
92259SOL    HW278675  11.340  14.671   5.505
92260SOL     OW78676   0.782  11.001  10.761
92260SOL    HW178677   0.769  11.093  10.783
92260SOL    HW278678   0.797  10.958  10.846
92261SOL     OW78679  13.372  14.552  11.579
92261SOL    HW178680  13.371  14.483  11.512
92261SOL    HW278681  13.339  14.510  11.658
92262SOL     OW78682   5.872   4.889   4.704
92262SOL    HW178683   5.907   4.951   4.766
92262SOL    HW278684   5.780   4.915   4.692
92263SOL     OW78685  11.979   8.380   9.598
92263SOL    HW178686  11.994   8.329   9.519
92263SOL    HW278687  12.067   8.400   9.631
92264SOL     OW78688   5.480   7.812   6.994
92264SOL    HW178689   5.389   7.785   7.009
92264SOL    HW278690   5.531   7.731   7.001
92265SOL     OW78691   3.552  12.949  13.776
92265SOL    HW178692   3.527  13.029  13.729
92265SOL    HW278693   3.620  12.909  13.722
92266SOL     OW78694  12.383   9.348   6.518
92266SOL    HW178695  12.467   9.360   6.475
92266SOL    HW278696  12.367   9.253   6.514
92267SOL     OW78697   8.044   2.531   7.000
92267SOL    HW178698   8.032   2.441   6.971
92267SOL    HW278699   8.079   2.577   6.924
92268SOL     OW78700  10.106   5.348   3.079
92268SOL    HW178701  10.109   5.342   3.175
92268SOL    HW278702  10.012   5.349   3.058
92269SOL     OW78703   7.808   6.655   5.386
92269SOL    HW178704   7.836   6.733   5.339
92269SOL    HW278705   7.719   6.674   5.415
92270SOL     OW78706   3.950   9.744  14.515
92270SOL    HW178707   3.936   9.739  14.421
92270SOL    HW278708   4.036   9.705  14.529
92271SOL     OW78709   1.801   9.659  12.580
92271SOL    HW178710   1.783   9.739  12.532
92271SOL    HW278711   1.882   9.677  12.628
92272SOL     OW78712  11.698   2.108  14.848
92272SOL    HW178713  11.648   2.073  14.774
92272SOL    HW278714  11.731   2.192  14.817
92273SOL     OW78715   0.405  13.435   2.745
92273SOL    HW178716   0.373  13.450   2.656
92273SOL    HW278717   0.400  13.521   2.787
92274SOL     OW78718   5.064  12.526  10.039
92274SOL    HW178719   5.159  12.514  10.043
92274SOL    HW278720   5.034  12.509  10.128
92275SOL     OW78721   4.235   1.266  12.738
92275SOL    HW178722   4.199   1.355  12.733
92275SOL    HW278723   4.175   1.213  12.685
92276SOL     OW78724  12.992   0.929   6.926
92276SOL    HW178725  13.003   0.838   6.900
92276SOL    HW278726  12.962   0.973   6.846
92277SOL     OW78727   8.015   3.089  12.236
92277SOL    HW178728   8.026   3.182  12.213
92277SOL    HW278729   8.097   3.065  12.278
92278SOL     OW78730   5.990   9.264   9.226
92278SOL    HW178731   5.924   9.199   9.250
92278SOL    HW278732   5.975   9.280   9.133
92279SOL     OW78733   6.686   1.678   7.854
92279SOL    HW178734   6.766   1.723   7.881
92279SOL    HW278735   6.626   1.690   7.927
92280SOL     OW78736   2.994  10.076   8.286
92280SOL    HW178737   2.931  10.094   8.356
92280SOL    HW278738   2.941  10.042   8.214
92281SOL     OW78739  10.387  12.930  14.501
92281SOL    HW178740  10.376  12.862  14.435
92281SOL    HW278741  10.298  12.956  14.524
92282SOL     OW78742   9.191  12.616   4.632
92282SOL    HW178743   9.117  12.564   4.664
92282SOL    HW278744   9.264  12.554   4.630
92283SOL     OW78745   6.785  12.537   5.740
92283SOL    HW178746   6.842  12.511   5.812
92283SOL    HW278747   6.698  12.509   5.767
92284SOL     OW78748   6.155   1.477   9.236
92284SOL    HW178749   6.182   1.454   9.148
92284SOL    HW278750   6.169   1.571   9.242
92285SOL     OW78751   5.305  10.835  12.884
92285SOL    HW178752   5.325  10.868  12.971
92285SOL    HW278753   5.252  10.757  12.898
92286SOL     OW78754   6.015   7.470  10.244
92286SOL    HW178755   6.010   7.548  10.300
92286SOL    HW278756   5.995   7.502  10.156
92287SOL     OW78757  10.894   3.083   4.762
92287SOL    HW178758  10.802   3.063   4.746
92287SOL    HW278759  10.933   2.998   4.786
92288SOL     OW78760  12.282   7.635   3.337
92288SOL    HW178761  12.266   7.720   3.378
92288SOL    HW278762  12.198   7.612   3.296
92289SOL     OW78763   5.251   0.739   9.246
92289SOL    HW178764   5.347   0.734   9.254
92289SOL    HW278765   5.234   0.717   9.154
92290SOL     OW78766   9.734   7.749   9.482
92290SOL    HW178767   9.781   7.825   9.446
92290SOL    HW278768   9.791   7.675   9.465
92291SOL     OW78769   5.071   2.373   9.516
92291SOL    HW178770   5.166   2.376   9.523
92291SOL    HW278771   5.046   2.459   9.482
92292SOL     OW78772   3.588   2.885   9.800
92292SOL    HW178773   3.506   2.904   9.844
92292SOL    HW278774   3.609   2.795   9.826
92293SOL     OW78775   4.654  11.504   6.796
92293SOL    HW178776   4.732  11.533   6.748
92293SOL    HW278777   4.598  11.465   6.728
92294SOL     OW78778  13.820  14.551   7.698
92294SOL    HW178779  13.822  14.551   7.603
92294SOL    HW278780  13.781  14.466   7.721
92295SOL     OW78781   3.729   1.316   8.045
92295SOL    HW178782   3.792   1.251   8.013
92295SOL    HW278783   3.720   1.295   8.138
92296SOL     OW78784  14.572   9.244  14.252
92296SOL    HW178785  14.478   9.228  14.255
92296SOL    HW278786  14.582   9.335  14.278
92297SOL     OW78787   4.658  12.166  13.070
92297SOL    HW178788   4.739  12.146  13.117
92297SOL    HW278789   4.646  12.260  13.082
92298SOL     OW78790   8.324   6.299   4.544
92298SOL    HW178791   8.241   6.273   4.504
92298SOL    HW278792   8.385   6.229   4.520
92299SOL     OW78793   1.391   7.035   6.920
92299SOL    HW178794   1.455   7.092   6.963
92299SOL    HW278795   1.341   6.997   6.992
92300SOL     OW78796  14.167  10.902   4.926
92300SOL    HW178797  14.205  10.833   4.981
92300SOL    HW278798  14.099  10.857   4.875
92301SOL     OW78799   7.931   0.912   5.928
92301SOL    HW178800   7.845   0.883   5.957
92301SOL    HW278801   7.992   0.849   5.964
92302SOL     OW78802  13.022  11.232   1.952
92302SOL    HW178803  12.986  11.280   1.878
92302SOL    HW278804  13.103  11.278   1.973
92303SOL     OW78805   8.605  10.517   7.129
92303SOL    HW178806   8.557  10.440   7.160
92303SOL    HW278807   8.655  10.485   7.053
92304SOL     OW78808   6.155   8.949   0.207
92304SOL    HW178809   6.060   8.943   0.200
92304SOL    HW278810   6.179   9.018   0.145
92305SOL     OW78811   6.842   7.229  13.719
92305SOL    HW178812   6.800   7.284  13.653
92305SOL    HW278813   6.776   7.220  13.788
92306SOL     OW78814  13.962   3.352   1.459
92306SOL    HW178815  13.869   3.359   1.440
92306SOL    HW278816  13.997   3.296   1.390
92307SOL     OW78817   3.868  10.317  14.044
92307SOL    HW178818   3.917  10.345  14.121
92307SOL    HW278819   3.779  10.348  14.059
92308SOL     OW78820   8.624   3.826   3.302
92308SOL    HW178821   8.620   3.842   3.396
92308SOL    HW278822   8.600   3.910   3.263
92309SOL     OW78823   8.164   2.031   3.402
92309SOL    HW178824   8.230   2.084   3.357
92309SOL    HW278825   8.200   1.942   3.401
92310SOL     OW78826   1.344  10.819   4.774
92310SOL    HW178827   1.327  10.737   4.727
92310SOL    HW278828   1.346  10.794   4.866
92311SOL     OW78829   9.494   3.244   2.353
92311SOL    HW178830   9.490   3.328   2.308
92311SOL    HW278831   9.442   3.258   2.433
92312SOL     OW78832   9.527  12.261   6.681
92312SOL    HW178833   9.463  12.190   6.689
92312SOL    HW278834   9.525  12.305   6.766
92313SOL     OW78835  14.829  14.679   4.939
92313SOL    HW178836  14.786  14.660   4.856
92313SOL    HW278837   0.050  14.662   4.923
92314SOL     OW78838   2.759   1.612   4.361
92314SOL    HW178839   2.743   1.537   4.303
92314SOL    HW278840   2.741   1.689   4.307
92315SOL     OW78841   6.399  12.250   8.325
92315SOL    HW178842   6.339  12.196   8.376
92315SOL    HW278843   6.423  12.196   8.250
92316SOL     OW78844   6.710  13.555   6.042
92316SOL    HW178845   6.671  13.537   6.127
92316SOL    HW278846   6.794  13.596   6.061
92317SOL     OW78847  10.517   9.906  10.887
92317SOL    HW178848  10.577   9.973  10.920
92317SOL    HW278849  10.487   9.940  10.803
92318SOL     OW78850   6.067   5.518  12.667
92318SOL    HW178851   6.140   5.469  12.704
92318SOL    HW278852   6.043   5.581  12.735
92319SOL     OW78853   5.982   0.523   6.548
92319SOL    HW178854   6.031   0.485   6.621
92319SOL    HW278855   6.048   0.543   6.482
92320SOL     OW78856  11.301  14.264   4.567
92320SOL    HW178857  11.273  14.175   4.588
92320SOL    HW278858  11.230  14.320   4.599
92321SOL     OW78859   1.579   4.185   5.892
92321SOL    HW178860   1.597   4.093   5.869
92321SOL    HW278861   1.631   4.200   5.972
92322SOL     OW78862  13.637  12.766   6.652
92322SOL    HW178863  13.711  12.781   6.712
92322SOL    HW278864  13.677  12.768   6.565
92323SOL     OW78865   0.134   5.821   3.425
92323SOL    HW178866   0.072   5.870   3.371
92323SOL    HW278867   0.083   5.747   3.458
92324SOL     OW78868   7.661  10.772  14.631
92324SOL    HW178869   7.614  10.689  14.642
92324SOL    HW278870   7.625  10.829  14.698
92325SOL     OW78871  12.150   5.543  12.527
92325SOL    HW178872  12.094   5.510  12.457
92325SOL    HW278873  12.124   5.635  12.537
92326SOL     OW78874   1.320  14.400  10.957
92326SOL    HW178875   1.350  14.439  10.875
92326SOL    HW278876   1.225  14.396  10.948
92327SOL     OW78877  13.540   8.057   8.196
92327SOL    HW178878  13.616   8.014   8.158
92327SOL    HW278879  13.530   8.138   8.146
92328SOL     OW78880   9.033   7.327  10.375
92328SOL    HW178881   8.946   7.301  10.407
92328SOL    HW278882   9.065   7.250  10.328
92329SOL     OW78883   8.848  11.044   9.017
92329SOL    HW178884   8.798  11.080   8.944
92329SOL    HW278885   8.810  10.957   9.031
92330SOL     OW78886   2.583   3.925   7.212
92330SOL    HW178887   2.517   3.920   7.142
92330SOL    HW278888   2.569   4.011   7.252
92331SOL     OW78889  11.538   6.230   7.220
92331SOL    HW178890  11.620   6.186   7.243
92331SOL    HW278891  11.487   6.229   7.302
92332SOL     OW78892  13.866   9.683   7.982
92332SOL    HW178893  13.879   9.702   7.889
92332SOL    HW278894  13.955   9.680   8.018
92333SOL     OW78895   2.353   3.677   7.736
92333SOL    HW178896   2.295   3.691   7.660
92333SOL    HW278897   2.440   3.668   7.698
92334SOL     OW78898  11.774   0.696   1.299
92334SOL    HW178899  11.688   0.715   1.335
92334SOL    HW278900  11.802   0.617   1.344
92335SOL     OW78901   9.071  12.432  10.485
92335SOL    HW178902   9.163  12.451  10.472
92335SOL    HW278903   9.040  12.400  10.400
92336SOL     OW78904   8.404   5.531  10.119
92336SOL    HW178905   8.355   5.533  10.201
92336SOL    HW278906   8.396   5.619  10.083
92337SOL     OW78907   6.424   7.998   1.450
92337SOL    HW178908   6.463   8.033   1.370
92337SOL    HW278909   6.460   7.909   1.457
92338SOL     OW78910   6.670  11.829  10.987
92338SOL    HW178911   6.761  11.803  10.971
92338SOL    HW278912   6.641  11.869  10.905
92339SOL     OW78913   4.036   3.722   7.413
92339SOL    HW178914   4.032   3.630   7.439
92339SOL    HW278915   3.972   3.731   7.343
92340SOL     OW78916  10.506   1.941   2.528
92340SOL    HW178917  10.419   1.962   2.495
92340SOL    HW278918  10.533   1.863   2.479
92341SOL     OW78919  14.428  10.775   0.242
92341SOL    HW178920  14.514  10.741   0.217
92341SOL    HW278921  14.446  10.836   0.314
92342SOL     OW78922  10.823  13.352  12.805
92342SOL    HW178923  10.791  13.442  12.795
92342SOL    HW278924  10.768  13.315  12.875
92343SOL     OW78925   6.671  12.808  10.814
92343SOL    HW178926   6.656  12.719  10.782
92343SOL    HW278927   6.606  12.821  10.883
92344SOL     OW78928   0.439   3.842  13.471
92344SOL    HW178929   0.402   3.909  13.529
92344SOL    HW278930   0.432   3.760  13.520
92345SOL     OW78931  10.952   7.709   0.211
92345SOL    HW178932  10.989   7.702   0.123
92345SOL    HW278933  10.996   7.641   0.262
92346SOL     OW78934   5.938  12.793   4.968
92346SOL    HW178935   5.933  12.843   4.886
92346SOL    HW278936   5.926  12.702   4.941
92347SOL     OW78937  11.675   8.725  13.132
92347SOL    HW178938  11.769   8.739  13.135
92347SOL    HW278939  11.648   8.760  13.047
92348SOL     OW78940   6.743   0.643  13.483
92348SOL    HW178941   6.653   0.656  13.511
92348SOL    HW278942   6.749   0.689  13.399
92349SOL     OW78943   8.060  10.803  10.381
92349SOL    HW178944   7.991  10.856  10.419
92349SOL    HW278945   8.112  10.865  10.328
92350SOL     OW78946   4.205   0.160   9.074
92350SOL    HW178947   4.245   0.217   9.008
92350SOL    HW278948   4.255   0.078   9.068
92351SOL     OW78949   6.900   1.806   5.873
92351SOL    HW178950   6.951   1.757   5.809
92351SOL    HW278951   6.922   1.766   5.957
92352SOL     OW78952   4.213   4.070   1.756
92352SOL    HW178953   4.197   3.981   1.790
92352SOL    HW278954   4.307   4.074   1.743
92353SOL     OW78955  11.302   8.672   1.049
92353SOL    HW178956  11.395   8.650   1.044
92353SOL    HW278957  11.292   8.714   1.135
92354SOL     OW78958   7.239   4.825   9.774
92354SOL    HW178959   7.216   4.842   9.682
92354SOL    HW278960   7.329   4.794   9.770
92355SOL     OW78961   9.719   8.139  12.888
92355SOL    HW178962   9.703   8.045  12.882
92355SOL    HW278963   9.748   8.164  12.800
92356SOL     OW78964   2.241   6.511   5.398
92356SOL    HW178965   2.213   6.533   5.309
92356SOL    HW278966   2.314   6.450   5.386
92357SOL     OW78967  12.559   6.794   6.791
92357SOL    HW178968  12.559   6.733   6.865
92357SOL    HW278969  12.649   6.792   6.758
92358SOL     OW78970  13.983   8.594   0.959
92358SOL    HW178971  13.977   8.603   1.054
92358SOL    HW278972  14.038   8.668   0.931
92359SOL     OW78973   2.321   1.120   1.558
92359SOL    HW178974   2.260   1.192   1.539
92359SOL    HW278975   2.314   1.062   1.482
92360SOL     OW78976   9.110   3.253   3.815
92360SOL    HW178977   9.030   3.288   3.854
92360SOL    HW278978   9.105   3.279   3.723
92361SOL     OW78979   4.411  11.618   4.826
92361SOL    HW178980   4.342  11.555   4.804
92361SOL    HW278981   4.485  11.564   4.853
92362SOL     OW78982   0.174  11.135   3.914
92362SOL    HW178983   0.103  11.186   3.874
92362SOL    HW278984   0.153  11.044   3.892
92363SOL     OW78985   8.182   3.354   1.391
92363SOL    HW178986   8.265   3.310   1.373
92363SOL    HW278987   8.162   3.333   1.482
92364SOL     OW78988  10.262  11.622   1.518
92364SOL    HW178989  10.251  11.535   1.557
92364SOL    HW278990  10.218  11.681   1.580
92365SOL     OW78991   7.856   9.059   0.116
92365SOL    HW178992   7.876   9.008   0.037
92365SOL    HW278993   7.808   9.135   0.083
92366SOL     OW78994   6.655   0.698   4.733
92366SOL    HW178995   6.593   0.651   4.789
92366SOL    HW278996   6.616   0.785   4.721
92367SOL     OW78997  14.790   0.020   1.822
92367SOL    HW178998  14.754   0.109   1.820
92367SOL    HW278999  14.740  14.848   1.890
92368SOL     OW79000   5.414   0.090   5.519
92368SOL    HW179001   5.403  14.867   5.526
92368SOL    HW279002   5.347   0.126   5.577
92369SOL     OW79003  12.622   9.819  12.979
92369SOL    HW179004  12.635   9.889  12.916
92369SOL    HW279005  12.698   9.763  12.969
92370SOL     OW79006   9.094   3.804   4.278
92370SOL    HW179007   9.017   3.786   4.223
92370SOL    HW279008   9.058   3.822   4.364
92371SOL     OW79009  14.619   7.722  12.468
92371SOL    HW179010  14.541   7.711  12.523
92371SOL    HW279011  14.620   7.816  12.448
92372SOL     OW79012  13.113   7.771   4.539
92372SOL    HW179013  13.100   7.692   4.592
92372SOL    HW279014  13.207   7.779   4.529
92373SOL     OW79015   9.151  10.276   8.607
92373SOL    HW179016   9.167  10.341   8.540
92373SOL    HW279017   9.144  10.193   8.560
92374SOL     OW79018  12.367   6.158   2.574
92374SOL    HW179019  12.328   6.194   2.494
92374SOL    HW279020  12.412   6.079   2.546
92375SOL     OW79021   8.722   2.479   6.248
92375SOL    HW179022   8.769   2.563   6.247
92375SOL    HW279023   8.762   2.430   6.319
92376SOL     OW79024   9.042  13.985   4.037
92376SOL    HW179025   8.991  14.065   4.024
92376SOL    HW279026   9.027  13.962   4.129
92377SOL     OW79027   6.560   7.432   0.114
92377SOL    HW179028   6.543   7.519   0.078
92377SOL    HW279029   6.506   7.428   0.193
92378SOL     OW79030   4.490   7.801  11.633
92378SOL    HW179031   4.467   7.894  11.647
92378SOL    HW279032   4.550   7.802  11.559
92379SOL     OW79033  11.911   2.968  13.542
92379SOL    HW179034  11.981   2.924  13.492
92379SOL    HW279035  11.854   2.896  13.570
92380SOL     OW79036   3.506  10.962  13.082
92380SOL    HW179037   3.443  11.006  13.025
92380SOL    HW279038   3.571  11.029  13.103
92381SOL     OW79039   9.031   2.422  11.773
92381SOL    HW179040   8.976   2.374  11.835
92381SOL    HW279041   9.001   2.392  11.687
92382SOL     OW79042  13.005   3.143   5.092
92382SOL    HW179043  13.018   3.084   5.017
92382SOL    HW279044  12.921   3.116   5.128
92383SOL     OW79045   5.115   1.820   4.431
92383SOL    HW179046   5.036   1.862   4.464
92383SOL    HW279047   5.187   1.872   4.469
92384SOL     OW79048  11.611   8.647   4.643
92384SOL    HW179049  11.548   8.719   4.645
92384SOL    HW279050  11.590   8.599   4.563
92385SOL     OW79051  10.098   2.762  11.511
92385SOL    HW179052  10.030   2.744  11.575
92385SOL    HW279053  10.054   2.812  11.442
92386SOL     OW79054   1.401   3.783  10.532
92386SOL    HW179055   1.324   3.813  10.484
92386SOL    HW279056   1.431   3.707  10.482
92387SOL     OW79057   6.523  11.951  11.669
92387SOL    HW179058   6.605  11.999  11.681
92387SOL    HW279059   6.550  11.866  11.633
92388SOL     OW79060   2.662   4.253   3.924
92388SOL    HW179061   2.699   4.278   3.840
92388SOL    HW279062   2.614   4.331   3.954
92389SOL     OW79063   2.158   5.595   8.988
92389SOL    HW179064   2.228   5.549   9.034
92389SOL    HW279065   2.157   5.556   8.901
92390SOL     OW79066   6.775  13.877   8.105
92390SOL    HW179067   6.802  13.786   8.116
92390SOL    HW279068   6.717  13.876   8.029
92391SOL     OW79069   8.278  12.210   4.029
92391SOL    HW179070   8.285  12.305   4.036
92391SOL    HW279071   8.364  12.177   4.055
92392SOL     OW79072   0.695   6.810   0.187
92392SOL    HW179073   0.741   6.728   0.168
92392SOL    HW279074   0.738   6.875   0.131
92393SOL     OW79075   1.282   2.798  14.862
92393SOL    HW179076   1.215   2.841   0.044
92393SOL    HW279077   1.334   2.870  14.826
92394SOL     OW79078  14.067   7.360  12.059
92394SOL    HW179079  13.996   7.371  11.996
92394SOL    HW279080  14.145   7.388  12.011
92395SOL     OW79081   4.511   8.823   3.058
92395SOL    HW179082   4.546   8.789   3.140
92395SOL    HW279083   4.556   8.907   3.046
92396SOL     OW79084  11.330   7.050   0.865
92396SOL    HW179085  11.289   7.088   0.787
92396SOL    HW279086  11.344   7.125   0.923
92397SOL     OW79087   7.266   1.505   3.812
92397SOL    HW179088   7.324   1.579   3.829
92397SOL    HW279089   7.242   1.474   3.899
92398SOL     OW79090  11.512   0.555  11.714
92398SOL    HW179091  11.468   0.639  11.700
92398SOL    HW279092  11.600   0.568  11.677
92399SOL     OW79093   2.801   5.801   8.730
92399SOL    HW179094   2.873   5.751   8.691
92399SOL    HW279095   2.826   5.812   8.822
92400SOL     OW79096   2.243   2.394   4.380
92400SOL    HW179097   2.326   2.424   4.417
92400SOL    HW279098   2.217   2.464   4.320
92401SOL     OW79099  11.264   1.230   9.498
92401SOL    HW179100  11.208   1.307   9.490
92401SOL    HW279101  11.244   1.195   9.585
92402SOL     OW79102  13.176  14.409   6.971
92402SOL    HW179103  13.233  14.375   6.903
92402SOL    HW279104  13.194  14.354   7.047
92403SOL     OW79105   0.165   4.051  12.581
92403SOL    HW179106   0.103   4.036  12.652
92403SOL    HW279107   0.110   4.068  12.504
92404SOL     OW79108   2.437   5.062   7.089
92404SOL    HW179109   2.417   5.129   7.024
92404SOL    HW279110   2.367   4.997   7.079
92405SOL     OW79111  13.762   7.708   1.473
92405SOL    HW179112  13.672   7.690   1.448
92405SOL    HW279113  13.794   7.770   1.407
92406SOL     OW79114   6.076   1.564  10.306
92406SOL    HW179115   6.129   1.487  10.283
92406SOL    HW279116   6.116   1.598  10.386
92407SOL     OW79117   3.327   5.993  13.652
92407SOL    HW179118   3.336   6.042  13.570
92407SOL    HW279119   3.290   6.056  13.714
92408SOL     OW79120   1.839   8.979  10.601
92408SOL    HW179121   1.800   8.894  10.622
92408SOL    HW279122   1.765   9.040  10.602
92409SOL     OW79123  11.867   3.044   4.794
92409SOL    HW179124  11.936   3.022   4.731
92409SOL    HW279125  11.791   2.996   4.763
92410SOL     OW79126   3.099   1.445  12.820
92410SOL    HW179127   3.140   1.521  12.860
92410SOL    HW279128   3.114   1.455  12.726
92411SOL     OW79129   0.220   6.318  10.325
92411SOL    HW179130   0.197   6.240  10.276
92411SOL    HW279131   0.313   6.306  10.347
92412SOL     OW79132   0.634   2.821  12.456
92412SOL    HW179133   0.578   2.850  12.528
92412SOL    HW279134   0.723   2.838  12.486
92413SOL     OW79135  13.196  12.066  14.826
92413SOL    HW179136  13.199  12.018   0.037
92413SOL    HW279137  13.287  12.075  14.800
92414SOL     OW79138  11.286   5.165   2.715
92414SOL    HW179139  11.214   5.117   2.675
92414SOL    HW279140  11.356   5.101   2.724
92415SOL     OW79141   8.748   3.203   0.879
92415SOL    HW179142   8.669   3.158   0.848
92415SOL    HW279143   8.718   3.256   0.953
92416SOL     OW79144   5.173   5.984  11.970
92416SOL    HW179145   5.209   6.024  12.049
92416SOL    HW279146   5.089   6.028  11.957
92417SOL     OW79147   6.307  10.636  14.115
92417SOL    HW179148   6.389  10.652  14.067
92417SOL    HW279149   6.249  10.706  14.086
92418SOL     OW79150   0.443   3.527  14.371
92418SOL    HW179151   0.375   3.583  14.335
92418SOL    HW279152   0.397   3.449  14.401
92419SOL     OW79153   2.661  14.482   4.831
92419SOL    HW179154   2.675  14.577   4.829
92419SOL    HW279155   2.672  14.454   4.741
92420SOL     OW79156   6.372   6.545  11.345
92420SOL    HW179157   6.304   6.486  11.314
92420SOL    HW279158   6.361   6.624  11.292
92421SOL     OW79159   7.552   0.914   7.864
92421SOL    HW179160   7.576   0.830   7.905
92421SOL    HW279161   7.519   0.889   7.778
92422SOL     OW79162  10.565   5.631   7.743
92422SOL    HW179163  10.607   5.584   7.672
92422SOL    HW279164  10.582   5.577   7.821
92423SOL     OW79165  12.879   6.820   5.350
92423SOL    HW179166  12.884   6.724   5.354
92423SOL    HW279167  12.856   6.839   5.259
92424SOL     OW79168  13.464   6.115  11.974
92424SOL    HW179169  13.442   6.207  11.992
92424SOL    HW279170  13.498   6.116  11.884
92425SOL     OW79171  11.004   4.898   9.345
92425SOL    HW179172  10.930   4.852   9.305
92425SOL    HW279173  11.059   4.925   9.271
92426SOL     OW79174   1.311   8.776  13.771
92426SOL    HW179175   1.302   8.860  13.817
92426SOL    HW279176   1.300   8.710  13.839
92427SOL     OW79177   6.197   3.671   7.869
92427SOL    HW179178   6.107   3.641   7.853
92427SOL    HW279179   6.210   3.742   7.806
92428SOL     OW79180  13.894   5.336  10.993
92428SOL    HW179181  13.858   5.262  10.944
92428SOL    HW279182  13.843   5.411  10.966
92429SOL     OW79183   0.092   8.700   3.888
92429SOL    HW179184   0.049   8.745   3.815
92429SOL    HW279185   0.136   8.770   3.936
92430SOL     OW79186   1.899   3.819   6.977
92430SOL    HW179187   1.885   3.906   6.940
92430SOL    HW279188   1.992   3.817   6.998
92431SOL     OW79189   5.985  12.030  14.657
92431SOL    HW179190   6.072  12.066  14.639
92431SOL    HW279191   5.959  11.988  14.575
92432SOL     OW79192   1.142   6.289   4.823
92432SOL    HW179193   1.083   6.359   4.798
92432SOL    HW279194   1.162   6.305   4.916
92433SOL     OW79195   3.875  14.388   5.648
92433SOL    HW179196   3.952  14.346   5.686
92433SOL    HW279197   3.810  14.317   5.641
92434SOL     OW79198  13.305  12.354   7.144
92434SOL    HW179199  13.250  12.352   7.066
92434SOL    HW279200  13.332  12.263   7.157
92435SOL     OW79201  14.114   0.523   9.050
92435SOL    HW179202  14.148   0.530   8.960
92435SOL    HW279203  14.025   0.489   9.039
92436SOL     OW79204  13.242   1.818  11.383
92436SOL    HW179205  13.153   1.799  11.414
92436SOL    HW279206  13.231   1.833  11.289
92437SOL     OW79207   8.228  14.642   2.919
92437SOL    HW179208   8.153  14.698   2.900
92437SOL    HW279209   8.270  14.627   2.834
92438SOL     OW79210   2.566  10.795   3.978
92438SOL    HW179211   2.605  10.780   3.893
92438SOL    HW279212   2.621  10.745   4.039
92439SOL     OW79213  11.970   5.332   1.287
92439SOL    HW179214  11.880   5.311   1.310
92439SOL    HW279215  11.999   5.260   1.231
92440SOL     OW79216   1.486   6.597  11.481
92440SOL    HW179217   1.577   6.581  11.459
92440SOL    HW279218   1.489   6.655  11.557
92441SOL     OW79219  10.161   2.914   3.985
92441SOL    HW179220  10.243   2.916   3.934
92441SOL    HW279221  10.102   2.971   3.937
92442SOL     OW79222   1.870  13.248   0.471
92442SOL    HW179223   1.823  13.184   0.418
92442SOL    HW279224   1.863  13.215   0.561
92443SOL     OW79225   0.735  14.158  12.525
92443SOL    HW179226   0.774  14.229  12.475
92443SOL    HW279227   0.745  14.081  12.469
92444SOL     OW79228  10.671   3.879  10.212
92444SOL    HW179229  10.743   3.864  10.150
92444SOL    HW279230  10.683   3.811  10.278
92445SOL     OW79231   1.026  10.612  14.521
92445SOL    HW179232   1.121  10.615  14.517
92445SOL    HW279233   1.002  10.689  14.574
92446SOL     OW79234   1.853   3.457  10.889
92446SOL    HW179235   1.868   3.485  10.799
92446SOL    HW279236   1.760   3.434  10.892
92447SOL     OW79237   4.758  12.665  13.698
92447SOL    HW179238   4.792  12.645  13.611
92447SOL    HW279239   4.759  12.581  13.744
92448SOL     OW79240  10.629   8.981  11.882
92448SOL    HW179241  10.610   9.048  11.948
92448SOL    HW279242  10.579   9.008  11.805
92449SOL     OW79243   8.339  10.124  10.646
92449SOL    HW179244   8.244  10.137  10.640
92449SOL    HW279245   8.376  10.205  10.611
92450SOL     OW79246   7.382  13.825   5.829
92450SOL    HW179247   7.423  13.755   5.778
92450SOL    HW279248   7.441  13.840   5.902
92451SOL     OW79249   0.291   2.583   2.518
92451SOL    HW179250   0.344   2.531   2.578
92451SOL    HW279251   0.245   2.518   2.465
92452SOL     OW79252   6.164   3.152   5.580
92452SOL    HW179253   6.199   3.236   5.551
92452SOL    HW279254   6.097   3.131   5.514
92453SOL     OW79255   1.410   7.305   6.316
92453SOL    HW179256   1.482   7.242   6.310
92453SOL    HW279257   1.383   7.320   6.225
92454SOL     OW79258   5.770  10.584  12.006
92454SOL    HW179259   5.841  10.520  12.009
92454SOL    HW279260   5.757  10.601  11.913
92455SOL     OW79261   0.871   3.547   5.716
92455SOL    HW179262   0.866   3.535   5.621
92455SOL    HW279263   0.780   3.558   5.744
92456SOL     OW79264   9.677   6.996  13.446
92456SOL    HW179265   9.730   6.939  13.390
92456SOL    HW279266   9.589   6.959  13.444
92457SOL     OW79267   9.936  10.455   1.170
92457SOL    HW179268   9.869  10.504   1.217
92457SOL    HW279269   9.971  10.393   1.234
92458SOL     OW79270   7.042  10.100  12.666
92458SOL    HW179271   7.126  10.125  12.626
92458SOL    HW279272   6.998  10.048  12.599
92459SOL     OW79273   0.050   2.519   6.186
92459SOL    HW179274   0.037   2.440   6.134
92459SOL    HW279275  14.845   2.573   6.168
92460SOL     OW79276  10.910   2.197   7.032
92460SOL    HW179277  10.934   2.279   6.989
92460SOL    HW279278  10.819   2.211   7.061
92461SOL     OW79279   1.057   1.905  11.529
92461SOL    HW179280   1.053   1.955  11.448
92461SOL    HW279281   1.056   1.813  11.501
92462SOL     OW79282  10.327  11.998   6.170
92462SOL    HW179283  10.318  11.919   6.224
92462SOL    HW279284  10.414  11.991   6.132
92463SOL     OW79285   8.874   7.242  14.588
92463SOL    HW179286   8.921   7.323  14.566
92463SOL    HW279287   8.943   7.177  14.598
92464SOL     OW79288   4.368   7.495  10.642
92464SOL    HW179289   4.364   7.399  10.639
92464SOL    HW279290   4.441   7.518  10.585
92465SOL     OW79291   0.165   9.407  13.628
92465SOL    HW179292   0.194   9.486  13.582
92465SOL    HW279293   0.211   9.410  13.711
92466SOL     OW79294   7.423   6.755   9.488
92466SOL    HW179295   7.361   6.695   9.447
92466SOL    HW279296   7.412   6.838   9.440
92467SOL     OW79297   5.258  11.596   1.221
92467SOL    HW179298   5.268  11.632   1.132
92467SOL    HW279299   5.343  11.558   1.241
92468SOL     OW79300   1.472   5.196   0.082
92468SOL    HW179301   1.503   5.134   0.148
92468SOL    HW279302   1.452   5.275   0.132
92469SOL     OW79303   2.603   9.313   4.347
92469SOL    HW179304   2.678   9.371   4.336
92469SOL    HW279305   2.558   9.314   4.263
92470SOL     OW79306  10.265   6.625   2.731
92470SOL    HW179307  10.335   6.560   2.727
92470SOL    HW279308  10.195   6.589   2.676
92471SOL     OW79309   3.074  14.228   9.668
92471SOL    HW179310   3.029  14.232   9.753
92471SOL    HW279311   3.045  14.146   9.630
92472SOL     OW79312   1.345  12.416   0.051
92472SOL    HW179313   1.274  12.473   0.080
92472SOL    HW279314   1.411  12.475   0.016
92473SOL     OW79315   5.972   7.919  10.556
92473SOL    HW179316   5.958   7.993  10.496
92473SOL    HW279317   5.885   7.899  10.590
92474SOL     OW79318   9.334   1.344  11.806
92474SOL    HW179319   9.341   1.259  11.849
92474SOL    HW279320   9.424   1.378  11.804
92475SOL     OW79321   5.769   8.967  12.330
92475SOL    HW179322   5.693   9.023  12.313
92475SOL    HW279323   5.745   8.916  12.407
92476SOL     OW79324   5.168   4.893   8.218
92476SOL    HW179325   5.120   4.959   8.269
92476SOL    HW279326   5.259   4.922   8.223
92477SOL     OW79327   4.693   4.802  11.873
92477SOL    HW179328   4.785   4.798  11.902
92477SOL    HW279329   4.689   4.882  11.820
92478SOL     OW79330  13.347  14.778   4.541
92478SOL    HW179331  13.380  14.740   4.623
92478SOL    HW279332  13.407  14.745   4.474
92479SOL     OW79333  10.631  14.072   5.071
92479SOL    HW179334  10.569  14.019   5.023
92479SOL    HW279335  10.667  14.013   5.138
92480SOL     OW79336  12.079  12.746   9.915
92480SOL    HW179337  12.084  12.832   9.872
92480SOL    HW279338  12.032  12.764   9.996
92481SOL     OW79339   8.379   2.121   3.263
92481SOL    HW179340   8.464   2.087   3.235
92481SOL    HW279341   8.326   2.124   3.184
92482SOL     OW79342  14.491  14.091   4.593
92482SOL    HW179343  14.576  14.134   4.604
92482SOL    HW279344  14.428  14.164   4.588
92483SOL     OW79345   3.271   9.465   5.678
92483SOL    HW179346   3.253   9.404   5.749
92483SOL    HW279347   3.190   9.468   5.628
92484SOL     OW79348  10.290   4.174   6.364
92484SOL    HW179349  10.311   4.086   6.397
92484SOL    HW279350  10.356   4.190   6.297
92485SOL     OW79351  14.616   6.175   9.500
92485SOL    HW179352  14.609   6.231   9.422
92485SOL    HW279353  14.570   6.224   9.568
92486SOL     OW79354  11.625  14.203   1.378
92486SOL    HW179355  11.532  14.211   1.400
92486SOL    HW279356  11.647  14.285   1.335
92487SOL     OW79357   5.447   3.970   4.237
92487SOL    HW179358   5.389   4.037   4.273
92487SOL    HW279359   5.457   3.906   4.307
92488SOL     OW79360   0.634   2.803   7.746
92488SOL    HW179361   0.726   2.815   7.768
92488SOL    HW279362   0.634   2.733   7.681
92489SOL     OW79363  14.028   7.764   9.484
92489SOL    HW179364  14.115   7.741   9.453
92489SOL    HW279365  14.044   7.817   9.563
92490SOL     OW79366  12.991   7.392  14.200
92490SOL    HW179367  12.923   7.325  14.194
92490SOL    HW279368  12.944   7.471  14.225
92491SOL     OW79369   1.033  13.507   0.586
92491SOL    HW179370   1.078  13.504   0.670
92491SOL    HW279371   0.950  13.551   0.604
92492SOL     OW79372   0.862   8.194  13.140
92492SOL    HW179373   0.899   8.107  13.149
92492SOL    HW279374   0.833   8.199  13.049
92493SOL     OW79375   6.189   6.234   2.256
92493SOL    HW179376   6.137   6.195   2.326
92493SOL    HW279377   6.177   6.328   2.266
92494SOL     OW79378   8.521   7.445   5.474
92494SOL    HW179379   8.586   7.406   5.415
92494SOL    HW279380   8.438   7.404   5.448
92495SOL     OW79381   3.700   1.991   3.150
92495SOL    HW179382   3.738   1.948   3.227
92495SOL    HW279383   3.732   1.940   3.075
92496SOL     OW79384   3.724   1.383  12.219
92496SOL    HW179385   3.647   1.386  12.276
92496SOL    HW279386   3.725   1.294  12.185
92497SOL     OW79387   9.828  11.796  12.214
92497SOL    HW179388   9.825  11.701  12.198
92497SOL    HW279389   9.883  11.805  12.291
92498SOL     OW79390  12.583  14.199   5.552
92498SOL    HW179391  12.499  14.216   5.595
92498SOL    HW279392  12.648  14.225   5.617
92499SOL     OW79393  10.590   6.680   4.138
92499SOL    HW179394  10.522   6.724   4.087
92499SOL    HW279395  10.615   6.604   4.085
92500SOL     OW79396   8.257   6.225   2.128
92500SOL    HW179397   8.271   6.183   2.043
92500SOL    HW279398   8.346   6.245   2.159
92501SOL     OW79399   6.839   3.772   5.806
92501SOL    HW179400   6.877   3.824   5.736
92501SOL    HW279401   6.913   3.751   5.863
92502SOL     OW79402   2.037  11.514   0.717
92502SOL    HW179403   2.019  11.604   0.740
92502SOL    HW279404   2.132  11.511   0.704
92503SOL     OW79405   1.146   3.738   0.070
92503SOL    HW179406   1.149   3.756   0.164
92503SOL    HW279407   1.077   3.795   0.037
92504SOL     OW79408   5.114  12.049   5.133
92504SOL    HW179409   5.069  12.133   5.139
92504SOL    HW279410   5.052  11.986   5.171
92505SOL     OW79411  10.499   2.996   5.212
92505SOL    HW179412  10.511   3.091   5.215
92505SOL    HW279413  10.439   2.982   5.138
92506SOL     OW79414   2.575  14.543   5.946
92506SOL    HW179415   2.644  14.550   5.880
92506SOL    HW279416   2.521  14.621   5.933
92507SOL     OW79417  12.323   5.701   3.663
92507SOL    HW179418  12.346   5.698   3.756
92507SOL    HW279419  12.378   5.771   3.627
92508SOL     OW79420  12.984  10.248   8.906
92508SOL    HW179421  12.920  10.250   8.835
92508SOL    HW279422  12.932  10.247   8.986
92509SOL     OW79423   5.089   0.428   1.433
92509SOL    HW179424   5.010   0.428   1.486
92509SOL    HW279425   5.144   0.496   1.471
92510SOL     OW79426   9.866   5.133   0.692
92510SOL    HW179427   9.929   5.154   0.623
92510SOL    HW279428   9.911   5.159   0.773
92511SOL     OW79429   8.864   4.828  11.538
92511SOL    HW179430   8.844   4.901  11.481
92511SOL    HW279431   8.902   4.762  11.481
92512SOL     OW79432   3.491  13.531  13.566
92512SOL    HW179433   3.566  13.591  13.567
92512SOL    HW279434   3.511  13.465  13.632
92513SOL     OW79435   8.936  10.437   6.670
92513SOL    HW179436   8.894  10.352   6.655
92513SOL    HW279437   8.931  10.481   6.585
92514SOL     OW79438   1.862  14.217   1.506
92514SOL    HW179439   1.876  14.311   1.500
92514SOL    HW279440   1.949  14.181   1.521
92515SOL     OW79441   3.477   4.027  13.364
92515SOL    HW179442   3.441   3.957  13.419
92515SOL    HW279443   3.465   4.107  13.416
92516SOL     OW79444   0.482   7.358   4.203
92516SOL    HW179445   0.396   7.363   4.246
92516SOL    HW279446   0.462   7.363   4.110
92517SOL     OW79447   0.780   5.171   4.084
92517SOL    HW179448   0.734   5.244   4.127
92517SOL    HW279449   0.844   5.213   4.027
92518SOL     OW79450   7.630  10.158  10.227
92518SOL    HW179451   7.606  10.220  10.296
92518SOL    HW279452   7.563  10.091  10.231
92519SOL     OW79453   6.310   0.181  11.245
92519SOL    HW179454   6.219   0.193  11.274
92519SOL    HW279455   6.360   0.176  11.327
92520SOL     OW79456   9.257   0.524   6.281
92520SOL    HW179457   9.272   0.435   6.249
92520SOL    HW279458   9.262   0.579   6.203
92521SOL     OW79459  11.634  14.509   0.694
92521SOL    HW179460  11.589  14.456   0.760
92521SOL    HW279461  11.672  14.445   0.634
92522SOL     OW79462   0.918   4.347  11.754
92522SOL    HW179463   0.891   4.263  11.790
92522SOL    HW279464   0.978   4.325  11.684
92523SOL     OW79465   7.877   1.472   4.316
92523SOL    HW179466   7.918   1.533   4.378
92523SOL    HW279467   7.852   1.527   4.242
92524SOL     OW79468  11.166   7.451   0.646
92524SOL    HW179469  11.098   7.442   0.713
92524SOL    HW279470  11.126   7.418   0.566
92525SOL     OW79471   2.082   8.116   9.519
92525SOL    HW179472   2.124   8.096   9.603
92525SOL    HW279473   2.099   8.039   9.465
92526SOL     OW79474   1.339  12.301   9.352
92526SOL    HW179475   1.434  12.301   9.355
92526SOL    HW279476   1.318  12.326   9.262
92527SOL     OW79477   5.076   3.521  14.079
92527SOL    HW179478   5.026   3.463  14.021
92527SOL    HW279479   5.129   3.574  14.020
92528SOL     OW79480   8.580   7.890  10.945
92528SOL    HW179481   8.509   7.825  10.942
92528SOL    HW279482   8.600   7.906  10.853
92529SOL     OW79483  13.965   1.762  11.613
92529SOL    HW179484  13.999   1.800  11.532
92529SOL    HW279485  13.879   1.728  11.588
92530SOL     OW79486   4.109   1.223   2.251
92530SOL    HW179487   4.167   1.243   2.325
92530SOL    HW279488   4.035   1.177   2.290
92531SOL     OW79489  12.770   1.325   2.150
92531SOL    HW179490  12.687   1.328   2.104
92531SOL    HW279491  12.778   1.234   2.180
92532SOL     OW79492   8.262  14.728   7.917
92532SOL    HW179493   8.296  14.753   7.831
92532SOL    HW279494   8.194  14.663   7.898
92533SOL     OW79495   8.552   8.442   5.944
92533SOL    HW179496   8.497   8.416   6.017
92533SOL    HW279497   8.545   8.537   5.941
92534SOL     OW79498  11.808  12.294  10.116
92534SOL    HW179499  11.807  12.329  10.205
92534SOL    HW279500  11.800  12.199  10.128
92535SOL     OW79501  10.533   7.976   3.516
92535SOL    HW179502  10.475   8.052   3.518
92535SOL    HW279503  10.477   7.902   3.538
92536SOL     OW79504   9.908   2.848   9.208
92536SOL    HW179505   9.846   2.918   9.189
92536SOL    HW279506   9.951   2.875   9.289
92537SOL     OW79507  10.237  14.636   1.079
92537SOL    HW179508  10.215  14.723   1.047
92537SOL    HW279509  10.171  14.579   1.042
92538SOL     OW79510  10.377   0.533   4.931
92538SOL    HW179511  10.388   0.502   4.841
92538SOL    HW279512  10.466   0.553   4.960
92539SOL     OW79513  10.241  10.344   8.449
92539SOL    HW179514  10.296  10.417   8.418
92539SOL    HW279515  10.167  10.387   8.491
92540SOL     OW79516  12.576   7.089  13.455
92540SOL    HW179517  12.576   7.016  13.394
92540SOL    HW279518  12.595   7.166  13.401
92541SOL     OW79519   0.390   3.031   4.297
92541SOL    HW179520   0.360   3.102   4.353
92541SOL    HW279521   0.409   2.959   4.357
92542SOL     OW79522  10.248  14.524  14.842
92542SOL    HW179523  10.247  14.429  14.859
92542SOL    HW279524  10.299  14.533  14.762
92543SOL     OW79525  11.419   8.349  13.831
92543SOL    HW179526  11.474   8.423  13.857
92543SOL    HW279527  11.423   8.349  13.735
92544SOL     OW79528   2.225  10.658   4.942
92544SOL    HW179529   2.166  10.681   5.014
92544SOL    HW279530   2.169  10.612   4.879
92545SOL     OW79531  12.588   9.230   7.284
92545SOL    HW179532  12.590   9.136   7.305
92545SOL    HW279533  12.590   9.273   7.369
92546SOL     OW79534  12.095   3.734   6.720
92546SOL    HW179535  12.040   3.669   6.676
92546SOL    HW279536  12.069   3.729   6.812
92547SOL     OW79537   4.869  13.825  14.665
92547SOL    HW179538   4.793  13.768  14.675
92547SOL    HW279539   4.847  13.881  14.590
92548SOL     OW79540   8.476   4.057   0.698
92548SOL    HW179541   8.539   4.111   0.747
92548SOL    HW279542   8.411   4.119   0.667
92549SOL     OW79543   8.470  13.165   1.277
92549SOL    HW179544   8.535  13.141   1.211
92549SOL    HW279545   8.522  13.194   1.352
92550SOL     OW79546   9.303  11.239  10.232
92550SOL    HW179547   9.292  11.321  10.184
92550SOL    HW279548   9.216  11.219  10.266
92551SOL     OW79549   7.798  12.444   8.493
92551SOL    HW179550   7.842  12.390   8.427
92551SOL    HW279551   7.759  12.380   8.553
92552SOL     OW79552   5.578  13.490  11.298
92552SOL    HW179553   5.607  13.427  11.365
92552SOL    HW279554   5.489  13.461  11.276
92553SOL     OW79555   9.229   5.789   4.364
92553SOL    HW179556   9.163   5.777   4.432
92553SOL    HW279557   9.187   5.847   4.300
92554SOL     OW79558   4.477   4.325   0.355
92554SOL    HW179559   4.548   4.280   0.401
92554SOL    HW279560   4.400   4.311   0.411
92555SOL     OW79561   3.994  11.075   6.907
92555SOL    HW179562   4.030  11.073   6.818
92555SOL    HW279563   3.900  11.079   6.895
92556SOL     OW79564  14.064  10.562   1.486
92556SOL    HW179565  14.066  10.486   1.427
92556SOL    HW279566  14.157  10.582   1.501
92557SOL     OW79567   2.971   4.990  10.488
92557SOL    HW179568   2.882   4.955  10.494
92557SOL    HW279569   3.002   4.991  10.578
92558SOL     OW79570   8.654   8.113  11.875
92558SOL    HW179571   8.667   8.159  11.792
92558SOL    HW279572   8.741   8.114  11.917
92559SOL     OW79573   1.893   6.269   0.220
92559SOL    HW179574   1.850   6.241   0.139
92559SOL    HW279575   1.978   6.301   0.193
92560SOL     OW79576   9.223  11.935   1.245
92560SOL    HW179577   9.305  11.898   1.213
92560SOL    HW279578   9.227  12.027   1.220
92561SOL     OW79579   7.210   5.720   9.179
92561SOL    HW179580   7.143   5.682   9.236
92561SOL    HW279581   7.182   5.695   9.091
92562SOL     OW79582   1.525   6.681   2.133
92562SOL    HW179583   1.535   6.591   2.161
92562SOL    HW279584   1.613   6.707   2.103
92563SOL     OW79585   6.475   7.539   1.913
92563SOL    HW179586   6.403   7.589   1.875
92563SOL    HW279587   6.469   7.558   2.007
92564SOL     OW79588   0.674  11.069  12.993
92564SOL    HW179589   0.746  11.132  13.000
92564SOL    HW279590   0.717  10.986  12.974
92565SOL     OW79591   1.413   8.492   1.142
92565SOL    HW179592   1.417   8.399   1.166
92565SOL    HW279593   1.505   8.521   1.143
92566SOL     OW79594  12.900  12.976   0.014
92566SOL    HW179595  12.871  13.065  14.864
92566SOL    HW279596  12.865  12.960   0.101
92567SOL     OW79597   7.562   3.646   6.454
92567SOL    HW179598   7.605   3.593   6.522
92567SOL    HW279599   7.595   3.734   6.469
92568SOL     OW79600  11.885   9.352  11.203
92568SOL    HW179601  11.830   9.401  11.264
92568SOL    HW279602  11.851   9.376  11.116
92569SOL     OW79603  11.888   6.824  13.137
92569SOL    HW179604  11.921   6.792  13.221
92569SOL    HW279605  11.834   6.899  13.159
92570SOL     OW79606   0.669   5.480   3.404
92570SOL    HW179607   0.760   5.475   3.374
92570SOL    HW279608   0.649   5.392   3.434
92571SOL     OW79609   6.232   6.259   0.617
92571SOL    HW179610   6.142   6.226   0.609
92571SOL    HW279611   6.264   6.263   0.527
92572SOL     OW79612  11.737  12.524   2.597
92572SOL    HW179613  11.697  12.597   2.645
92572SOL    HW279614  11.760  12.561   2.512
92573SOL     OW79615   4.941  14.741   7.021
92573SOL    HW179616   4.914  14.690   6.945
92573SOL    HW279617   5.034  14.760   7.006
92574SOL     OW79618  14.752   5.357   6.109
92574SOL    HW179619  14.680   5.404   6.065
92574SOL    HW279620  14.806   5.426   6.148
92575SOL     OW79621   1.279  11.600  11.548
92575SOL    HW179622   1.234  11.550  11.616
92575SOL    HW279623   1.247  11.690  11.558
92576SOL     OW79624   7.332   3.322   6.975
92576SOL    HW179625   7.403   3.257   6.973
92576SOL    HW279626   7.295   3.314   7.063
92577SOL     OW79627  13.917  11.380  10.774
92577SOL    HW179628  13.972  11.407  10.701
92577SOL    HW279629  13.911  11.285  10.766
92578SOL     OW79630  11.635   8.630   2.682
92578SOL    HW179631  11.542   8.650   2.692
92578SOL    HW279632  11.645   8.604   2.590
92579SOL     OW79633   1.320   4.740   8.898
92579SOL    HW179634   1.391   4.693   8.942
92579SOL    HW279635   1.354   4.828   8.885
92580SOL     OW79636   5.331   0.257   8.829
92580SOL    HW179637   5.261   0.257   8.763
92580SOL    HW279638   5.408   0.225   8.782
92581SOL     OW79639  13.527   5.507  11.916
92581SOL    HW179640  13.551   5.441  11.851
92581SOL    HW279641  13.504   5.584  11.864
92582SOL     OW79642   2.397   2.719   7.535
92582SOL    HW179643   2.322   2.695   7.589
92582SOL    HW279644   2.397   2.815   7.536
92583SOL     OW79645   7.575   9.220   5.312
92583SOL    HW179646   7.645   9.181   5.365
92583SOL    HW279647   7.505   9.238   5.375
92584SOL     OW79648  10.118  13.245   0.437
92584SOL    HW179649  10.130  13.240   0.343
92584SOL    HW279650  10.064  13.323   0.450
92585SOL     OW79651   9.323   0.769  11.393
92585SOL    HW179652   9.265   0.840  11.422
92585SOL    HW279653   9.404   0.783  11.442
92586SOL     OW79654  13.884   6.768  12.470
92586SOL    HW179655  13.804   6.753  12.520
92586SOL    HW279656  13.890   6.694  12.410
92587SOL     OW79657   0.498  12.053  10.697
92587SOL    HW179658   0.533  12.133  10.659
92587SOL    HW279659   0.526  11.983  10.637
92588SOL     OW79660  14.361   6.225  10.540
92588SOL    HW179661  14.438   6.214  10.484
92588SOL    HW279662  14.390   6.198  10.627
92589SOL     OW79663   8.243   8.005  13.904
92589SOL    HW179664   8.216   7.915  13.919
92589SOL    HW279665   8.333   7.998  13.870
92590SOL     OW79666  13.005  13.395  14.086
92590SOL    HW179667  13.024  13.394  14.180
92590SOL    HW279668  13.082  13.437  14.047
92591SOL     OW79669   9.464   6.323  12.142
92591SOL    HW179670   9.396   6.372  12.187
92591SOL    HW279671   9.458   6.234  12.178
92592SOL     OW79672  13.160   5.150   9.242
92592SOL    HW179673  13.235   5.209   9.244
92592SOL    HW279674  13.195   5.065   9.270
92593SOL     OW79675   8.242   6.477  13.880
92593SOL    HW179676   8.156   6.439  13.861
92593SOL    HW279677   8.299   6.443  13.811
92594SOL     OW79678   6.960   7.709   0.528
92594SOL    HW179679   7.022   7.767   0.485
92594SOL    HW279680   6.886   7.703   0.467
92595SOL     OW79681   2.194   5.762  13.494
92595SOL    HW179682   2.200   5.683  13.441
92595SOL    HW279683   2.111   5.803  13.468
92596SOL     OW79684  11.356  11.920   7.905
92596SOL    HW179685  11.428  11.970   7.866
92596SOL    HW279686  11.354  11.838   7.856
92597SOL     OW79687   2.993  11.714  12.177
92597SOL    HW179688   2.904  11.684  12.193
92597SOL    HW279689   2.984  11.796  12.130
92598SOL     OW79690   4.693  11.218   8.304
92598SOL    HW179691   4.669  11.274   8.230
92598SOL    HW279692   4.668  11.269   8.382
92599SOL     OW79693   7.031  12.927   6.634
92599SOL    HW179694   6.982  12.970   6.704
92599SOL    HW279695   7.025  12.833   6.654
92600SOL     OW79696   8.228  11.983  13.116
92600SOL    HW179697   8.135  11.974  13.095
92600SOL    HW279698   8.257  11.894  13.134
92601SOL     OW79699   7.270  13.453   1.011
92601SOL    HW179700   7.227  13.368   1.021
92601SOL    HW279701   7.356  13.442   1.052
92602SOL     OW79702   8.651   3.011   7.533
92602SOL    HW179703   8.623   2.993   7.623
92602SOL    HW279704   8.687   3.099   7.536
92603SOL     OW79705   3.758   3.506  10.922
92603SOL    HW179706   3.665   3.528  10.920
92603SOL    HW279707   3.784   3.522  11.013
92604SOL     OW79708   3.807  14.085   6.460
92604SOL    HW179709   3.812  14.144   6.536
92604SOL    HW279710   3.748  14.015   6.487
92605SOL     OW79711   6.408  10.223  10.006
92605SOL    HW179712   6.475  10.194   9.943
92605SOL    HW279713   6.452  10.290  10.058
92606SOL     OW79714   1.202   1.699   6.563
92606SOL    HW179715   1.295   1.719   6.565
92606SOL    HW279716   1.190   1.632   6.630
92607SOL     OW79717  12.616  10.779   0.708
92607SOL    HW179718  12.671  10.716   0.663
92607SOL    HW279719  12.644  10.775   0.800
92608SOL     OW79720   4.071   9.380   6.314
92608SOL    HW179721   4.083   9.306   6.373
92608SOL    HW279722   3.976   9.388   6.303
92609SOL     OW79723   3.630   0.020   3.840
92609SOL    HW179724   3.633   0.099   3.894
92609SOL    HW279725   3.713  14.847   3.858
92610SOL     OW79726  14.477  13.943   1.781
92610SOL    HW179727  14.405  13.989   1.738
92610SOL    HW279728  14.434  13.884   1.843
92611SOL     OW79729   8.628   2.951   1.054
92611SOL    HW179730   8.580   2.992   1.126
92611SOL    HW279731   8.600   2.860   1.055
92612SOL     OW79732   7.747  10.260   2.942
92612SOL    HW179733   7.728  10.343   2.898
92612SOL    HW279734   7.690  10.261   3.019
92613SOL     OW79735   2.234   0.310  11.733
92613SOL    HW179736   2.171   0.356  11.677
92613SOL    HW279737   2.248   0.226  11.691
92614SOL     OW79738   9.099   0.358  12.642
92614SOL    HW179739   9.142   0.290  12.590
92614SOL    HW279740   9.011   0.364  12.606
92615SOL     OW79741   7.532  12.959  12.542
92615SOL    HW179742   7.499  13.041  12.505
92615SOL    HW279743   7.455  12.904  12.553
92616SOL     OW79744   0.251   2.436   9.968
92616SOL    HW179745   0.344   2.435   9.993
92616SOL    HW279746   0.252   2.429   9.872
92617SOL     OW79747   8.454   0.681  10.800
92617SOL    HW179748   8.436   0.597  10.843
92617SOL    HW279749   8.448   0.745  10.871
92618SOL     OW79750  11.642   0.531  13.329
92618SOL    HW179751  11.558   0.530  13.375
92618SOL    HW279752  11.679   0.444  13.344
92619SOL     OW79753   7.422   9.384   2.618
92619SOL    HW179754   7.409   9.337   2.701
92619SOL    HW279755   7.445   9.315   2.556
92620SOL     OW79756   1.715  13.717   0.016
92620SOL    HW179757   1.759  13.756   0.091
92620SOL    HW279758   1.738  13.625   0.019
92621SOL     OW79759  11.511   8.263  11.797
92621SOL    HW179760  11.493   8.197  11.730
92621SOL    HW279761  11.600   8.293  11.778
92622SOL     OW79762  14.644   2.765  10.866
92622SOL    HW179763  14.566   2.730  10.824
92622SOL    HW279764  14.690   2.812  10.797
92623SOL     OW79765  14.045  13.957  13.547
92623SOL    HW179766  14.081  14.045  13.543
92623SOL    HW279767  14.000  13.945  13.464
92624SOL     OW79768  12.474   9.110   5.877
92624SOL    HW179769  12.420   9.067   5.943
92624SOL    HW279770  12.484   9.199   5.909
92625SOL     OW79771   3.032   7.465   5.640
92625SOL    HW179772   3.078   7.548   5.630
92625SOL    HW279773   3.009   7.462   5.733
92626SOL     OW79774  10.510  14.562  13.358
92626SOL    HW179775  10.422  14.598  13.370
92626SOL    HW279776  10.523  14.562  13.263
92627SOL     OW79777   2.768  10.247   3.003
92627SOL    HW179778   2.843  10.195   3.030
92627SOL    HW279779   2.732  10.200   2.927
92628SOL     OW79780   0.389   9.133  13.175
92628SOL    HW179781   0.381   9.185  13.255
92628SOL    HW279782   0.462   9.172  13.128
92629SOL     OW79783   5.516   0.358  10.699
92629SOL    HW179784   5.565   0.292  10.649
92629SOL    HW279785   5.573   0.380  10.773
92630SOL     OW79786   5.562   4.106   8.554
92630SOL    HW179787   5.578   4.064   8.638
92630SOL    HW279788   5.626   4.065   8.495
92631SOL     OW79789  13.813   8.696  14.778
92631SOL    HW179790  13.757   8.665  14.848
92631SOL    HW279791  13.761   8.763  14.733
92632SOL     OW79792   5.189   1.005   1.573
92632SOL    HW179793   5.234   0.950   1.509
92632SOL    HW279794   5.206   1.095   1.543
92633SOL     OW79795  13.189   3.046   5.783
92633SOL    HW179796  13.222   3.134   5.797
92633SOL    HW279797  13.117   3.037   5.845
92634SOL     OW79798   2.254  13.860   6.968
92634SOL    HW179799   2.317  13.838   7.036
92634SOL    HW279800   2.257  13.786   6.907
92635SOL     OW79801  10.930  10.265   0.712
92635SOL    HW179802  10.874  10.343   0.713
92635SOL    HW279803  11.012  10.294   0.753
92636SOL     OW79804  14.864   0.120  12.103
92636SOL    HW179805  14.845   0.199  12.153
92636SOL    HW279806   0.079   0.093  12.133
92637SOL     OW79807  13.201   6.339  11.755
92637SOL    HW179808  13.239   6.425  11.769
92637SOL    HW279809  13.229   6.314  11.667
92638SOL     OW79810   8.448   1.564   3.313
92638SOL    HW179811   8.392   1.641   3.304
92638SOL    HW279812   8.519   1.578   3.250
92639SOL     OW79813  13.683  11.266   3.925
92639SOL    HW179814  13.778  11.274   3.916
92639SOL    HW279815  13.670  11.233   4.014
92640SOL     OW79816   7.077   3.077  14.366
92640SOL    HW179817   7.033   3.034  14.439
92640SOL    HW279818   7.171   3.066  14.384
92641SOL     OW79819   5.565   4.621   3.588
92641SOL    HW179820   5.598   4.710   3.576
92641SOL    HW279821   5.496   4.628   3.653
92642SOL     OW79822   4.618   0.938  11.305
92642SOL    HW179823   4.672   1.010  11.337
92642SOL    HW279824   4.649   0.922  11.216
92643SOL     OW79825   9.839  10.865   8.620
92643SOL    HW179826   9.866  10.840   8.708
92643SOL    HW279827   9.878  10.951   8.606
92644SOL     OW79828  12.600   7.065   5.489
92644SOL    HW179829  12.579   7.032   5.402
92644SOL    HW279830  12.670   7.007   5.520
92645SOL     OW79831  12.583   0.567   4.528
92645SOL    HW179832  12.579   0.538   4.619
92645SOL    HW279833  12.609   0.489   4.479
92646SOL     OW79834  10.572   5.225   5.901
92646SOL    HW179835  10.631   5.195   5.832
92646SOL    HW279836  10.614   5.305   5.934
92647SOL     OW79837  12.792   8.781   8.038
92647SOL    HW179838  12.814   8.747   8.125
92647SOL    HW279839  12.779   8.703   7.984
92648SOL     OW79840   0.865  12.588   5.201
92648SOL    HW179841   0.895  12.593   5.111
92648SOL    HW279842   0.938  12.548   5.249
92649SOL     OW79843  14.379   0.232   0.666
92649SOL    HW179844  14.433   0.272   0.734
92649SOL    HW279845  14.299   0.285   0.664
92650SOL     OW79846  13.782  14.219  10.115
92650SOL    HW179847  13.833  14.161  10.058
92650SOL    HW279848  13.848  14.276  10.155
92651SOL     OW79849   5.674   1.554   8.663
92651SOL    HW179850   5.594   1.590   8.623
92651SOL    HW279851   5.671   1.585   8.754
92652SOL     OW79852  12.730  11.384   7.711
92652SOL    HW179853  12.663  11.369   7.644
92652SOL    HW279854  12.711  11.319   7.779
92653SOL     OW79855  13.485   9.420   6.574
92653SOL    HW179856  13.533   9.398   6.494
92653SOL    HW279857  13.552   9.446   6.636
92654SOL     OW79858   0.469  14.009   9.472
92654SOL    HW179859   0.381  14.018   9.435
92654SOL    HW279860   0.504  13.930   9.432
92655SOL     OW79861  11.870   7.017  14.144
92655SOL    HW179862  11.941   7.081  14.137
92655SOL    HW279863  11.853   6.990  14.054
92656SOL     OW79864  12.636   0.527  14.358
92656SOL    HW179865  12.623   0.472  14.280
92656SOL    HW279866  12.565   0.592  14.353
92657SOL     OW79867   9.122   3.462   7.194
92657SOL    HW179868   9.115   3.471   7.099
92657SOL    HW279869   9.204   3.506   7.216
92658SOL     OW79870   8.543   4.391   7.574
92658SOL    HW179871   8.459   4.437   7.574
92658SOL    HW279872   8.573   4.394   7.483
92659SOL     OW79873   6.281   5.220   0.860
92659SOL    HW179874   6.344   5.151   0.880
92659SOL    HW279875   6.264   5.262   0.944
92660SOL     OW79876   6.471   1.079  13.401
92660SOL    HW179877   6.498   0.988  13.393
92660SOL    HW279878   6.375   1.076  13.399
92661SOL     OW79879   8.921   1.676  12.812
92661SOL    HW179880   8.990   1.663  12.747
92661SOL    HW279881   8.938   1.611  12.879
92662SOL     OW79882   9.702   8.602  10.126
92662SOL    HW179883   9.711   8.668  10.195
92662SOL    HW279884   9.610   8.575  10.131
92663SOL     OW79885  10.278   9.533  14.243
92663SOL    HW179886  10.331   9.455  14.224
92663SOL    HW279887  10.190   9.499  14.257
92664SOL     OW79888  13.075   5.189  12.906
92664SOL    HW179889  13.028   5.140  12.838
92664SOL    HW279890  13.021   5.266  12.922
92665SOL     OW79891  13.523   2.992  12.836
92665SOL    HW179892  13.536   3.025  12.747
92665SOL    HW279893  13.606   2.950  12.858
92666SOL     OW79894  11.021  10.254  10.676
92666SOL    HW179895  11.002  10.279  10.766
92666SOL    HW279896  10.997  10.161  10.671
92667SOL     OW79897   6.407   3.105  10.643
92667SOL    HW179898   6.477   3.103  10.708
92667SOL    HW279899   6.330   3.071  10.690
92668SOL     OW79900   1.358  10.546   4.943
92668SOL    HW179901   1.358  10.470   4.883
92668SOL    HW279902   1.278  10.536   4.994
92669SOL     OW79903   8.249  11.791  12.149
92669SOL    HW179904   8.329  11.813  12.102
92669SOL    HW279905   8.279  11.748  12.229
92670SOL     OW79906   4.285   2.793   9.094
92670SOL    HW179907   4.231   2.854   9.144
92670SOL    HW279908   4.224   2.731   9.056
92671SOL     OW79909  11.285   6.604   3.829
92671SOL    HW179910  11.246   6.654   3.900
92671SOL    HW279911  11.233   6.627   3.752
92672SOL     OW79912   0.513  10.689  11.694
92672SOL    HW179913   0.509  10.611  11.749
92672SOL    HW279914   0.607  10.705  11.682
92673SOL     OW79915   1.390   7.916  10.841
92673SOL    HW179916   1.433   7.915  10.756
92673SOL    HW279917   1.454   7.955  10.900
92674SOL     OW79918   3.955  13.388   0.086
92674SOL    HW179919   3.922  13.311   0.039
92674SOL    HW279920   4.003  13.351   0.161
92675SOL     OW79921   0.370   8.951   0.318
92675SOL    HW179922   0.311   9.000   0.260
92675SOL    HW279923   0.345   8.860   0.305
92676SOL     OW79924   4.250   5.211   9.442
92676SOL    HW179925   4.169   5.244   9.482
92676SOL    HW279926   4.290   5.157   9.510
92677SOL     OW79927  13.324   7.142   3.588
92677SOL    HW179928  13.238   7.106   3.608
92677SOL    HW279929  13.338   7.122   3.495
92678SOL     OW79930   2.616   1.143  13.904
92678SOL    HW179931   2.686   1.203  13.879
92678SOL    HW279932   2.547   1.160  13.839
92679SOL     OW79933  12.494   3.600  12.840
92679SOL    HW179934  12.448   3.677  12.807
92679SOL    HW279935  12.428   3.531  12.843
92680SOL     OW79936  11.809  11.066   3.089
92680SOL    HW179937  11.831  11.120   3.012
92680SOL    HW279938  11.715  11.053   3.083
92681SOL     OW79939   8.733  12.159  12.686
92681SOL    HW179940   8.705  12.108  12.609
92681SOL    HW279941   8.659  12.153  12.746
92682SOL     OW79942  14.814   7.063   6.800
92682SOL    HW179943  14.835   7.156   6.799
92682SOL    HW279944  14.718   7.060   6.793
92683SOL     OW79945  12.837  12.899   0.279
92683SOL    HW179946  12.833  12.804   0.295
92683SOL    HW279947  12.746  12.927   0.275
92684SOL     OW79948   6.647   2.931   5.691
92684SOL    HW179949   6.735   2.931   5.728
92684SOL    HW279950   6.613   3.019   5.709
92685SOL     OW79951   6.959   3.508   0.745
92685SOL    HW179952   7.018   3.448   0.791
92685SOL    HW279953   6.997   3.595   0.760
92686SOL     OW79954   0.365  12.520   7.021
92686SOL    HW179955   0.317  12.439   7.000
92686SOL    HW279956   0.454  12.490   7.043
92687SOL     OW79957  12.300   9.245  13.445
92687SOL    HW179958  12.259   9.196  13.516
92687SOL    HW279959  12.342   9.179  13.391
92688SOL     OW79960   9.030   7.817  10.423
92688SOL    HW179961   9.108   7.816  10.478
92688SOL    HW279962   9.063   7.836  10.335
92689SOL     OW79963   7.732   2.671   0.424
92689SOL    HW179964   7.661   2.732   0.404
92689SOL    HW279965   7.752   2.687   0.517
92690SOL     OW79966   3.998  10.980   5.172
92690SOL    HW179967   4.083  10.981   5.217
92690SOL    HW279968   3.964  10.892   5.187
92691SOL     OW79969   9.412   9.185   1.420
92691SOL    HW179970   9.336   9.243   1.419
92691SOL    HW279971   9.454   9.199   1.335
92692SOL     OW79972  12.406   9.443   7.236
92692SOL    HW179973  12.445   9.362   7.269
92692SOL    HW279974  12.382   9.423   7.145
92693SOL     OW79975   3.576   0.487  12.367
92693SOL    HW179976   3.540   0.453  12.285
92693SOL    HW279977   3.667   0.457  12.368
92694SOL     OW79978   3.197  13.151   6.766
92694SOL    HW179979   3.161  13.192   6.688
92694SOL    HW279980   3.212  13.223   6.827
92695SOL     OW79981   2.831   3.534   2.718
92695SOL    HW179982   2.912   3.582   2.699
92695SOL    HW279983   2.808   3.561   2.808
92696SOL     OW79984  14.146   3.941   7.125
92696SOL    HW179985  14.163   3.960   7.217
92696SOL    HW279986  14.058   3.905   7.124
92697SOL     OW79987   3.340  11.607   8.202
92697SOL    HW179988   3.258  11.620   8.154
92697SOL    HW279989   3.359  11.692   8.241
92698SOL     OW79990   5.833  11.111   3.601
92698SOL    HW179991   5.869  11.170   3.667
92698SOL    HW279992   5.827  11.165   3.522
92699SOL     OW79993  12.183   9.131   4.152
92699SOL    HW179994  12.092   9.151   4.175
92699SOL    HW279995  12.177   9.051   4.100
92700SOL     OW79996   3.894   7.370  12.044
92700SOL    HW179997   3.958   7.299  12.040
92700SOL    HW279998   3.924   7.425  12.117
92701SOL     OW79999   0.527  10.018   7.606
92701SOL    HW180000   0.530  10.084   7.675
92701SOL    HW280001   0.487   9.941   7.647
92702SOL     OW80002   6.049  12.742   8.971
92702SOL    HW180003   6.071  12.829   9.002
92702SOL    HW280004   5.956  12.748   8.948
92703SOL     OW80005  12.635  11.037   4.754
92703SOL    HW180006  12.661  11.087   4.677
92703SOL    HW280007  12.701  11.056   4.820
92704SOL     OW80008  14.826   6.384   8.747
92704SOL    HW180009  14.803   6.299   8.710
92704SOL    HW280010   0.045   6.399   8.721
92705SOL     OW80011   8.717  12.432   4.888
92705SOL    HW180012   8.660  12.465   4.957
92705SOL    HW280013   8.667  12.363   4.845
92706SOL     OW80014  11.826   5.886   3.761
92706SOL    HW180015  11.852   5.976   3.781
92706SOL    HW280016  11.787   5.891   3.674
92707SOL     OW80017   6.697   0.168   9.292
92707SOL    HW180018   6.775   0.161   9.236
92707SOL    HW280019   6.708   0.252   9.336
92708SOL     OW80020  14.417   8.183   7.966
92708SOL    HW180021  14.329   8.190   7.927
92708SOL    HW280022  14.401   8.149   8.054
92709SOL     OW80023  11.987   2.696  11.772
92709SOL    HW180024  11.916   2.726  11.715
92709SOL    HW280025  12.064   2.742  11.741
92710SOL     OW80026   1.646  14.102  10.197
92710SOL    HW180027   1.645  14.166  10.126
92710SOL    HW280028   1.733  14.111  10.236
92711SOL     OW80029  10.554   3.522  11.671
92711SOL    HW180030  10.583   3.431  11.666
92711SOL    HW280031  10.523   3.543  11.583
92712SOL     OW80032  13.886   2.867  14.444
92712SOL    HW180033  13.866   2.956  14.476
92712SOL    HW280034  13.962   2.840  14.496
92713SOL     OW80035   1.879   9.191   9.410
92713SOL    HW180036   1.931   9.174   9.488
92713SOL    HW280037   1.941   9.229   9.347
92714SOL     OW80038   5.636   8.117   1.807
92714SOL    HW180039   5.547   8.141   1.783
92714SOL    HW280040   5.626   8.045   1.870
92715SOL     OW80041  12.957  12.832   5.289
92715SOL    HW180042  13.012  12.910   5.301
92715SOL    HW280043  12.938  12.831   5.196
92716SOL     OW80044   3.158   1.608   8.302
92716SOL    HW180045   3.186   1.666   8.373
92716SOL    HW280046   3.181   1.655   8.222
92717SOL     OW80047  10.813  13.604   2.945
92717SOL    HW180048  10.886  13.629   2.888
92717SOL    HW280049  10.744  13.576   2.885
92718SOL     OW80050   7.931   6.088   4.425
92718SOL    HW180051   7.989   6.021   4.460
92718SOL    HW280052   7.843   6.057   4.449
92719SOL     OW80053   2.968  10.284  13.145
92719SOL    HW180054   2.919  10.290  13.226
92719SOL    HW280055   3.023  10.206  13.156
92720SOL     OW80056   5.531  13.084   6.099
92720SOL    HW180057   5.465  13.016   6.112
92720SOL    HW280058   5.609  13.036   6.073
92721SOL     OW80059   3.126  10.366  14.145
92721SOL    HW180060   3.174  10.449  14.144
92721SOL    HW280061   3.182  10.305  14.097
92722SOL     OW80062   7.984   6.188  14.418
92722SOL    HW180063   7.927   6.117  14.447
92722SOL    HW280064   7.970   6.192  14.323
92723SOL     OW80065  14.580   5.322  10.713
92723SOL    HW180066  14.492   5.341  10.744
92723SOL    HW280067  14.609   5.249  10.769
92724SOL     OW80068   3.598   8.384   2.407
92724SOL    HW180069   3.644   8.324   2.466
92724SOL    HW280070   3.587   8.334   2.326
92725SOL     OW80071   2.207  11.374   0.948
92725SOL    HW180072   2.204  11.469   0.940
92725SOL    HW280073   2.118  11.345   0.930
92726SOL     OW80074   7.490   0.329  10.496
92726SOL    HW180075   7.568   0.275  10.508
92726SOL    HW280076   7.420   0.280  10.538
92727SOL     OW80077   6.456  10.517  14.335
92727SOL    HW180078   6.410  10.441  14.370
92727SOL    HW280079   6.399  10.551  14.266
92728SOL     OW80080   5.672   0.167  12.708
92728SOL    HW180081   5.739   0.114  12.752
92728SOL    HW280082   5.680   0.254  12.747
92729SOL     OW80083  10.216  11.532  12.515
92729SOL    HW180084  10.273  11.461  12.485
92729SOL    HW280085  10.274  11.591  12.562
92730SOL     OW80086   5.465   8.657  14.155
92730SOL    HW180087   5.421   8.652  14.070
92730SOL    HW280088   5.467   8.750  14.176
92731SOL     OW80089   5.660   7.284   2.207
92731SOL    HW180090   5.651   7.317   2.297
92731SOL    HW280091   5.595   7.214   2.201
92732SOL     OW80092  13.333   9.597   0.249
92732SOL    HW180093  13.301   9.507   0.242
92732SOL    HW280094  13.254   9.651   0.241
92733SOL     OW80095   6.198   4.482   7.394
92733SOL    HW180096   6.199   4.386   7.402
92733SOL    HW280097   6.186   4.499   7.301
92734SOL     OW80098   6.696  10.341   4.324
92734SOL    HW180099   6.756  10.382   4.385
92734SOL    HW280100   6.641  10.412   4.292
92735SOL     OW80101   5.394   2.534   2.820
92735SOL    HW180102   5.403   2.510   2.728
92735SOL    HW280103   5.330   2.472   2.855
92736SOL     OW80104   7.160   6.424  12.180
92736SOL    HW180105   7.070   6.439  12.208
92736SOL    HW280106   7.204   6.388  12.258
92737SOL     OW80107  12.729  10.676  13.897
92737SOL    HW180108  12.659  10.625  13.939
92737SOL    HW280109  12.717  10.765  13.930
92738SOL     OW80110   9.732  11.794   1.369
92738SOL    HW180111   9.731  11.890   1.364
92738SOL    HW280112   9.662  11.766   1.310
92739SOL     OW80113   4.617  12.131  13.739
92739SOL    HW180114   4.524  12.143  13.758
92739SOL    HW280115   4.624  12.147  13.644
92740SOL     OW80116   8.503  14.648  13.651
92740SOL    HW180117   8.543  14.697  13.723
92740SOL    HW280118   8.539  14.560  13.659
92741SOL     OW80119  14.204   8.546   6.557
92741SOL    HW180120  14.171   8.633   6.578
92741SOL    HW280121  14.249   8.517   6.636
92742SOL     OW80122   6.777   9.277   7.794
92742SOL    HW180123   6.825   9.281   7.877
92742SOL    HW280124   6.719   9.353   7.797
92743SOL     OW80125  11.149  13.605   7.377
92743SOL    HW180126  11.108  13.688   7.402
92743SOL    HW280127  11.132  13.547   7.452
92744SOL     OW80128   1.094   9.244  14.011
92744SOL    HW180129   1.004   9.227  14.038
92744SOL    HW280130   1.105   9.195  13.929
92745SOL     OW80131  12.995   3.126   5.421
92745SOL    HW180132  12.985   3.043   5.375
92745SOL    HW280133  12.952   3.112   5.506
92746SOL     OW80134   6.118  10.545   7.535
92746SOL    HW180135   6.185  10.529   7.603
92746SOL    HW280136   6.046  10.588   7.582
92747SOL     OW80137   9.393  12.525   2.893
92747SOL    HW180138   9.474  12.575   2.904
92747SOL    HW280139   9.422  12.441   2.858
92748SOL     OW80140   9.520  12.572   1.640
92748SOL    HW180141   9.425  12.563   1.636
92748SOL    HW280142   9.549  12.499   1.693
92749SOL     OW80143   5.472  13.946   7.675
92749SOL    HW180144   5.523  13.906   7.744
92749SOL    HW280145   5.515  14.030   7.658
92750SOL     OW80146  13.807   8.219  13.221
92750SOL    HW180147  13.798   8.231  13.126
92750SOL    HW280148  13.756   8.291  13.259
92751SOL     OW80149   4.652  14.866   2.216
92751SOL    HW180150   4.587  14.805   2.253
92751SOL    HW280151   4.606   0.078   2.210
92752SOL     OW80152   8.459   1.967  12.888
92752SOL    HW180153   8.436   1.957  12.796
92752SOL    HW280154   8.408   1.900  12.933
92753SOL     OW80155   0.083  10.023   5.010
92753SOL    HW180156   0.158  10.055   4.960
92753SOL    HW280157   0.121   9.972   5.081
92754SOL     OW80158  12.864   8.693   3.959
92754SOL    HW180159  12.865   8.598   3.967
92754SOL    HW280160  12.869   8.710   3.865
92755SOL     OW80161   0.905  13.809   8.071
92755SOL    HW180162   1.000  13.816   8.063
92755SOL    HW280163   0.880  13.883   8.127
92756SOL     OW80164   7.897   3.560  13.591
92756SOL    HW180165   7.884   3.538  13.498
92756SOL    HW280166   7.864   3.650  13.598
92757SOL     OW80167  11.064   0.520  12.475
92757SOL    HW180168  11.070   0.445  12.534
92757SOL    HW280169  10.972   0.523  12.450
92758SOL     OW80170  13.453  11.624   5.986
92758SOL    HW180171  13.370  11.621   5.938
92758SOL    HW280172  13.520  11.631   5.919
92759SOL     OW80173   9.643  11.764   8.924
92759SOL    HW180174   9.592  11.837   8.890
92759SOL    HW280175   9.647  11.779   9.019
92760SOL     OW80176   2.453   3.829  14.450
92760SOL    HW180177   2.392   3.843  14.378
92760SOL    HW280178   2.412   3.872  14.525
92761SOL     OW80179   1.092   8.604  11.991
92761SOL    HW180180   1.004   8.613  11.954
92761SOL    HW280181   1.131   8.530  11.945
92762SOL     OW80182   1.792   0.682  13.644
92762SOL    HW180183   1.885   0.674  13.666
92762SOL    HW280184   1.763   0.760  13.693
92763SOL     OW80185  13.032   1.195   9.513
92763SOL    HW180186  12.992   1.281   9.497
92763SOL    HW280187  13.123   1.215   9.537
92764SOL     OW80188  14.541  14.257   8.155
92764SOL    HW180189  14.583  14.338   8.128
92764SOL    HW280190  14.526  14.209   8.074
92765SOL     OW80191  11.791   9.493   5.497
92765SOL    HW180192  11.799   9.404   5.464
92765SOL    HW280193  11.761   9.483   5.588
92766SOL     OW80194   1.814   6.153  14.833
92766SOL    HW180195   1.726   6.139  14.798
92766SOL    HW280196   1.863   6.075  14.808
92767SOL     OW80197   3.339  14.480   8.580
92767SOL    HW180198   3.248  14.464   8.604
92767SOL    HW280199   3.386  14.483   8.663
92768SOL     OW80200   8.397   0.810   2.977
92768SOL    HW180201   8.468   0.810   3.041
92768SOL    HW280202   8.373   0.718   2.968
92769SOL     OW80203  10.960   0.530   4.402
92769SOL    HW180204  11.012   0.450   4.407
92769SOL    HW280205  10.937   0.551   4.492
92770SOL     OW80206  13.973   9.526   2.625
92770SOL    HW180207  13.925   9.505   2.705
92770SOL    HW280208  13.910   9.514   2.554
92771SOL     OW80209   9.906   1.924   4.677
92771SOL    HW180210   9.870   1.901   4.591
92771SOL    HW280211   9.962   1.850   4.700
92772SOL     OW80212   8.760  10.872   6.569
92772SOL    HW180213   8.847  10.834   6.580
92772SOL    HW280214   8.772  10.965   6.589
92773SOL     OW80215  12.825  10.006   0.788
92773SOL    HW180216  12.782   9.928   0.825
92773SOL    HW280217  12.917   9.982   0.783
92774SOL     OW80218  13.747   7.585  10.705
92774SOL    HW180219  13.679   7.647  10.677
92774SOL    HW280220  13.698   7.513  10.746
92775SOL     OW80221   1.495   1.945   4.263
92775SOL    HW180222   1.588   1.921   4.259
92775SOL    HW280223   1.489   2.008   4.334
92776SOL     OW80224   3.747   0.327   7.272
92776SOL    HW180225   3.704   0.242   7.271
92776SOL    HW280226   3.676   0.390   7.287
92777SOL     OW80227   0.141  14.779   7.912
92777SOL    HW180228   0.086  14.752   7.838
92777SOL    HW280229   0.220  14.726   7.904
92778SOL     OW80230   2.258  11.250   1.849
92778SOL    HW180231   2.326  11.316   1.862
92778SOL    HW280232   2.211  11.278   1.771
92779SOL     OW80233   3.204   5.108  13.914
92779SOL    HW180234   3.208   5.079  13.822
92779SOL    HW280235   3.131   5.169  13.916
92780SOL     OW80236   7.223   0.922   3.087
92780SOL    HW180237   7.274   0.871   3.024
92780SOL    HW280238   7.208   0.861   3.160
92781SOL     OW80239  11.537  12.483   9.878
92781SOL    HW180240  11.505  12.450   9.962
92781SOL    HW280241  11.539  12.578   9.889
92782SOL     OW80242   3.042   0.484   4.168
92782SOL    HW180243   3.039   0.573   4.134
92782SOL    HW280244   3.019   0.429   4.093
92783SOL     OW80245  10.611   4.898  10.676
92783SOL    HW180246  10.546   4.912  10.745
92783SOL    HW280247  10.644   4.986  10.657
92784SOL     OW80248  11.949  14.300   7.442
92784SOL    HW180249  11.975  14.301   7.534
92784SOL    HW280250  11.853  14.299   7.443
92785SOL     OW80251   4.384   7.008   5.210
92785SOL    HW180252   4.398   6.927   5.259
92785SOL    HW280253   4.470   7.050   5.207
92786SOL     OW80254  14.146  13.056   3.281
92786SOL    HW180255  14.148  12.990   3.349
92786SOL    HW280256  14.124  13.008   3.201
92787SOL     OW80257   5.831   8.736  14.064
92787SOL    HW180258   5.920   8.716  14.036
92787SOL    HW280259   5.818   8.682  14.143
92788SOL     OW80260   7.110   3.274  11.188
92788SOL    HW180261   7.071   3.314  11.266
92788SOL    HW280262   7.191   3.233  11.221
92789SOL     OW80263   4.406   0.237   3.446
92789SOL    HW180264   4.458   0.183   3.506
92789SOL    HW280265   4.418   0.326   3.479
92790SOL     OW80266   2.682   4.844   0.312
92790SOL    HW180267   2.676   4.940   0.314
92790SOL    HW280268   2.630   4.818   0.236
92791SOL     OW80269   9.066   0.454   5.384
92791SOL    HW180270   9.150   0.500   5.386
92791SOL    HW280271   9.013   0.504   5.321
92792SOL     OW80272   2.567  10.124   3.192
92792SOL    HW180273   2.634  10.061   3.164
92792SOL    HW280274   2.617  10.201   3.219
92793SOL     OW80275   9.360  11.224   4.867
92793SOL    HW180276   9.395  11.155   4.924
92793SOL    HW280277   9.437  11.261   4.824
92794SOL     OW80278  14.787   3.570   9.206
92794SOL    HW180279  14.734   3.525   9.140
92794SOL    HW280280  14.728   3.637   9.242
92795SOL     OW80281   3.874   2.323   4.646
92795SOL    HW180282   3.804   2.315   4.711
92795SOL    HW280283   3.929   2.246   4.660
92796SOL     OW80284  13.495  10.305   4.557
92796SOL    HW180285  13.485  10.380   4.617
92796SOL    HW280286  13.555  10.336   4.490
92797SOL     OW80287   3.714   5.588  13.665
92797SOL    HW180288   3.756   5.588  13.580
92797SOL    HW280289   3.660   5.668  13.665
92798SOL     OW80290  14.460   7.117   1.842
92798SOL    HW180291  14.409   7.135   1.921
92798SOL    HW280292  14.405   7.149   1.771
92799SOL     OW80293  12.133   9.305   3.638
92799SOL    HW180294  12.094   9.295   3.725
92799SOL    HW280295  12.177   9.222   3.622
92800SOL     OW80296   5.021  11.644   1.048
92800SOL    HW180297   5.006  11.738   1.048
92800SOL    HW280298   4.993  11.616   1.135
92801SOL     OW80299   2.223   5.838   7.471
92801SOL    HW180300   2.293   5.890   7.510
92801SOL    HW280301   2.195   5.889   7.395
92802SOL     OW80302  10.771  10.466   0.561
92802SOL    HW180303  10.845  10.432   0.511
92802SOL    HW280304  10.711  10.500   0.495
92803SOL     OW80305   9.280  13.665   8.714
92803SOL    HW180306   9.365  13.622   8.712
92803SOL    HW280307   9.297  13.755   8.686
92804SOL     OW80308  14.190   9.372   7.456
92804SOL    HW180309  14.103   9.379   7.495
92804SOL    HW280310  14.194   9.444   7.393
92805SOL     OW80311   1.333   8.191   8.678
92805SOL    HW180312   1.291   8.112   8.646
92805SOL    HW280313   1.419   8.192   8.635
92806SOL     OW80314   8.366  14.640  14.161
92806SOL    HW180315   8.350  14.611  14.072
92806SOL    HW280316   8.289  14.610  14.210
92807SOL     OW80317  12.344   9.266  11.494
92807SOL    HW180318  12.407   9.212  11.541
92807SOL    HW280319  12.394   9.302  11.421
92808SOL     OW80320   4.806   7.637  13.399
92808SOL    HW180321   4.797   7.724  13.436
92808SOL    HW280322   4.750   7.638  13.321
92809SOL     OW80323   6.143   9.867  12.907
92809SOL    HW180324   6.204   9.793  12.909
92809SOL    HW280325   6.148   9.905  12.995
92810SOL     OW80326  13.783   7.193  13.466
92810SOL    HW180327  13.819   7.170  13.551
92810SOL    HW280328  13.689   7.178  13.475
92811SOL     OW80329  14.779   7.985   4.975
92811SOL    HW180330  14.737   8.001   4.890
92811SOL    HW280331  14.841   7.914   4.958
92812SOL     OW80332  11.211   8.958  11.993
92812SOL    HW180333  11.259   9.036  12.022
92812SOL    HW280334  11.140   8.992  11.940
92813SOL     OW80335   3.952   1.676   7.152
92813SOL    HW180336   3.985   1.710   7.235
92813SOL    HW280337   3.935   1.584   7.168
92814SOL     OW80338   9.604   7.669   7.098
92814SOL    HW180339   9.664   7.645   7.169
92814SOL    HW280340   9.528   7.706   7.142
92815SOL     OW80341   2.150  10.259   6.225
92815SOL    HW180342   2.057  10.268   6.245
92815SOL    HW280343   2.191  10.242   6.309
92816SOL     OW80344   2.181   2.479  11.860
92816SOL    HW180345   2.215   2.402  11.906
92816SOL    HW280346   2.240   2.550  11.885
92817SOL     OW80347  10.458   7.378   8.112
92817SOL    HW180348  10.541   7.331   8.107
92817SOL    HW280349  10.391   7.310   8.103
92818SOL     OW80350  11.554  10.453   2.066
92818SOL    HW180351  11.462  10.478   2.059
92818SOL    HW280352  11.570  10.447   2.160
92819SOL     OW80353   9.742  11.204  12.886
92819SOL    HW180354   9.769  11.222  12.976
92819SOL    HW280355   9.684  11.128  12.894
92820SOL     OW80356   6.600   0.723   7.123
92820SOL    HW180357   6.529   0.713   7.059
92820SOL    HW280358   6.560   0.702   7.207
92821SOL     OW80359   8.512   8.152   7.424
92821SOL    HW180360   8.517   8.200   7.341
92821SOL    HW280361   8.460   8.075   7.405
92822SOL     OW80362   2.209   5.449   6.889
92822SOL    HW180363   2.197   5.361   6.923
92822SOL    HW280364   2.303   5.455   6.871
92823SOL     OW80365  10.326   1.055   2.876
92823SOL    HW180366  10.302   1.136   2.832
92823SOL    HW280367  10.344   1.081   2.967
92824SOL     OW80368   2.263   1.726   2.615
92824SOL    HW180369   2.335   1.718   2.553
92824SOL    HW280370   2.242   1.820   2.616
92825SOL     OW80371  14.128  13.994  14.658
92825SOL    HW180372  14.060  13.998  14.725
92825SOL    HW280373  14.137  13.901  14.637
92826SOL     OW80374   1.502  11.574  13.750
92826SOL    HW180375   1.498  11.491  13.797
92826SOL    HW280376   1.524  11.638  13.818
92827SOL     OW80377   2.553   2.374  10.660
92827SOL    HW180378   2.530   2.445  10.719
92827SOL    HW280379   2.470   2.328  10.645
92828SOL     OW80380   2.537  13.389  11.811
92828SOL    HW180381   2.612  13.394  11.870
92828SOL    HW280382   2.573  13.355  11.729
92829SOL     OW80383  11.198  11.619  11.814
92829SOL    HW180384  11.188  11.615  11.719
92829SOL    HW280385  11.128  11.678  11.843
92830SOL     OW80386  11.009  13.413   5.905
92830SOL    HW180387  10.952  13.483   5.936
92830SOL    HW280388  11.045  13.446   5.823
92831SOL     OW80389  13.707   7.405   8.221
92831SOL    HW180390  13.683   7.465   8.150
92831SOL    HW280391  13.741   7.462   8.290
92832SOL     OW80392  14.795  11.413   2.048
92832SOL    HW180393  14.799  11.410   1.952
92832SOL    HW280394  14.849  11.340   2.077
92833SOL     OW80395   4.953   6.484  10.989
92833SOL    HW180396   5.034   6.525  11.019
92833SOL    HW280397   4.891   6.557  10.982
92834SOL     OW80398   8.802   1.201   6.257
92834SOL    HW180399   8.827   1.160   6.340
92834SOL    HW280400   8.720   1.158   6.233
92835SOL     OW80401  11.472   2.799   4.823
92835SOL    HW180402  11.422   2.843   4.756
92835SOL    HW280403  11.487   2.865   4.891
92836SOL     OW80404   8.295   1.806   8.698
92836SOL    HW180405   8.374   1.770   8.737
92836SOL    HW280406   8.314   1.900   8.689
92837SOL     OW80407   7.003   1.073   0.403
92837SOL    HW180408   7.077   1.132   0.412
92837SOL    HW280409   6.939   1.105   0.466
92838SOL     OW80410   2.993  10.232  10.789
92838SOL    HW180411   3.026  10.144  10.768
92838SOL    HW280412   2.961  10.224  10.879
92839SOL     OW80413   2.034   2.807  13.083
92839SOL    HW180414   1.974   2.859  13.029
92839SOL    HW280415   1.979   2.775  13.154
92840SOL     OW80416   4.343  13.825   2.318
92840SOL    HW180417   4.255  13.787   2.321
92840SOL    HW280418   4.394  13.772   2.380
92841SOL     OW80419   5.766   8.542  10.281
92841SOL    HW180420   5.799   8.589  10.205
92841SOL    HW280421   5.673   8.530  10.264
92842SOL     OW80422  10.291   8.653   4.985
92842SOL    HW180423  10.324   8.620   4.901
92842SOL    HW280424  10.366   8.697   5.024
92843SOL     OW80425   3.910  13.839   4.103
92843SOL    HW180426   3.916  13.901   4.176
92843SOL    HW280427   3.869  13.889   4.033
92844SOL     OW80428  11.780  13.100  14.677
92844SOL    HW180429  11.809  13.108  14.586
92844SOL    HW280430  11.763  13.190  14.705
92845SOL     OW80431   4.843   6.240   7.401
92845SOL    HW180432   4.911   6.239   7.469
92845SOL    HW280433   4.852   6.155   7.358
92846SOL     OW80434   3.903  14.181   7.222
92846SOL    HW180435   3.875  14.127   7.296
92846SOL    HW280436   3.951  14.254   7.262
92847SOL     OW80437   1.240   7.618  13.931
92847SOL    HW180438   1.204   7.659  13.852
92847SOL    HW280439   1.206   7.528  13.928
92848SOL     OW80440  11.730  14.323   8.326
92848SOL    HW180441  11.707  14.233   8.303
92848SOL    HW280442  11.802  14.314   8.388
92849SOL     OW80443   0.678   5.837   2.791
92849SOL    HW180444   0.723   5.754   2.809
92849SOL    HW280445   0.704   5.860   2.702
92850SOL     OW80446   3.656   3.126  10.905
92850SOL    HW180447   3.751   3.119  10.906
92850SOL    HW280448   3.636   3.173  10.824
92851SOL     OW80449   6.440   9.962   2.345
92851SOL    HW180450   6.517   9.925   2.388
92851SOL    HW280451   6.448  10.056   2.360
92852SOL     OW80452  13.594   0.768   8.120
92852SOL    HW180453  13.664   0.827   8.145
92852SOL    HW280454  13.639   0.693   8.079
92853SOL     OW80455  10.295   1.124   5.682
92853SOL    HW180456  10.359   1.130   5.611
92853SOL    HW280457  10.234   1.195   5.665
92854SOL     OW80458   3.336   2.301   1.222
92854SOL    HW180459   3.273   2.237   1.255
92854SOL    HW280460   3.405   2.304   1.289
92855SOL     OW80461  12.602  13.491   1.799
92855SOL    HW180462  12.680  13.507   1.853
92855SOL    HW280463  12.564  13.577   1.784
92856SOL     OW80464  14.042   0.052  11.649
92856SOL    HW180465  14.024   0.145  11.662
92856SOL    HW280466  14.012   0.034  11.560
92857SOL     OW80467   3.561   2.311   6.232
92857SOL    HW180468   3.650   2.279   6.248
92857SOL    HW280469   3.524   2.322   6.319
92858SOL     OW80470   9.502   2.011   7.129
92858SOL    HW180471   9.478   1.920   7.146
92858SOL    HW280472   9.480   2.058   7.209
92859SOL     OW80473  11.143   9.211   5.641
92859SOL    HW180474  11.065   9.219   5.586
92859SOL    HW280475  11.160   9.117   5.645
92860SOL     OW80476   3.356  14.109   8.463
92860SOL    HW180477   3.419  14.080   8.529
92860SOL    HW280478   3.279  14.136   8.514
92861SOL     OW80479  14.596   5.565   4.265
92861SOL    HW180480  14.622   5.605   4.348
92861SOL    HW280481  14.505   5.539   4.278
92862SOL     OW80482   5.373  10.978   7.970
92862SOL    HW180483   5.394  11.014   8.056
92862SOL    HW280484   5.458  10.973   7.926
92863SOL     OW80485   4.202   7.118  12.613
92863SOL    HW180486   4.117   7.075  12.602
92863SOL    HW280487   4.193   7.170  12.693
92864SOL     OW80488   3.150  11.651   7.543
92864SOL    HW180489   3.143  11.578   7.604
92864SOL    HW280490   3.183  11.724   7.597
92865SOL     OW80491   5.657   2.055   4.608
92865SOL    HW180492   5.706   1.978   4.639
92865SOL    HW280493   5.566   2.033   4.623
92866SOL     OW80494  10.229  12.039  11.322
92866SOL    HW180495  10.221  12.054  11.228
92866SOL    HW280496  10.139  12.047  11.355
92867SOL     OW80497   3.640   2.296   4.793
92867SOL    HW180498   3.622   2.369   4.852
92867SOL    HW280499   3.558   2.282   4.747
92868SOL     OW80500   0.007  10.292   5.174
92868SOL    HW180501  14.867  10.275   5.268
92868SOL    HW280502  14.824  10.226   5.131
92869SOL     OW80503  14.238   0.695  10.866
92869SOL    HW180504  14.182   0.617  10.873
92869SOL    HW280505  14.180   0.763  10.832
92870SOL     OW80506  10.317  12.676   3.055
92870SOL    HW180507  10.293  12.631   2.974
92870SOL    HW280508  10.268  12.758   3.052
92871SOL     OW80509   1.945   9.838   8.512
92871SOL    HW180510   2.011   9.807   8.450
92871SOL    HW280511   1.994   9.859   8.591
92872SOL     OW80512   7.828  11.008  10.894
92872SOL    HW180513   7.905  10.976  10.942
92872SOL    HW280514   7.807  10.938  10.832
92873SOL     OW80515   6.883   7.215  11.315
92873SOL    HW180516   6.954   7.217  11.379
92873SOL    HW280517   6.923   7.185  11.234
92874SOL     OW80518  13.548   7.542   1.787
92874SOL    HW180519  13.539   7.492   1.868
92874SOL    HW280520  13.642   7.551   1.774
92875SOL     OW80521  14.666   9.115   2.559
92875SOL    HW180522  14.595   9.131   2.621
92875SOL    HW280523  14.737   9.171   2.589
92876SOL     OW80524   3.300   2.726   0.971
92876SOL    HW180525   3.289   2.790   1.041
92876SOL    HW280526   3.368   2.667   1.003
92877SOL     OW80527  11.025   5.932   6.008
92877SOL    HW180528  11.113   5.911   5.975
92877SOL    HW280529  11.038   6.007   6.066
92878SOL     OW80530   0.433  11.230   4.290
92878SOL    HW180531   0.472  11.265   4.210
92878SOL    HW280532   0.416  11.138   4.270
92879SOL     OW80533   4.281  13.297   7.874
92879SOL    HW180534   4.341  13.296   7.799
92879SOL    HW280535   4.199  13.263   7.838
92880SOL     OW80536   4.395   1.242   2.786
92880SOL    HW180537   4.429   1.160   2.821
92880SOL    HW280538   4.440   1.253   2.702
92881SOL     OW80539   9.986  11.389   7.203
92881SOL    HW180540  10.075  11.423   7.213
92881SOL    HW280541   9.968  11.346   7.286
92882SOL     OW80542  10.849  12.947  13.103
92882SOL    HW180543  10.869  12.918  13.014
92882SOL    HW280544  10.926  12.998  13.129
92883SOL     OW80545  10.088   4.071  10.505
92883SOL    HW180546  10.058   4.123  10.580
92883SOL    HW280547  10.046   3.985  10.518
92884SOL     OW80548  14.386   3.228   9.002
92884SOL    HW180549  14.315   3.290   8.983
92884SOL    HW280550  14.344   3.142   9.002
92885SOL     OW80551   9.498   9.481   0.723
92885SOL    HW180552   9.528   9.456   0.811
92885SOL    HW280553   9.540   9.565   0.706
92886SOL     OW80554   0.303  13.191   7.732
92886SOL    HW180555   0.381  13.202   7.786
92886SOL    HW280556   0.293  13.096   7.722
92887SOL     OW80557   5.603   8.088   2.708
92887SOL    HW180558   5.674   8.052   2.762
92887SOL    HW280559   5.546   8.013   2.691
92888SOL     OW80560  13.242  11.603  13.340
92888SOL    HW180561  13.267  11.674  13.281
92888SOL    HW280562  13.182  11.643  13.402
92889SOL     OW80563  12.263   0.866   4.530
92889SOL    HW180564  12.227   0.827   4.610
92889SOL    HW280565  12.357   0.867   4.544
92890SOL     OW80566   0.678   9.929  11.144
92890SOL    HW180567   0.668   9.970  11.057
92890SOL    HW280568   0.752   9.870  11.134
92891SOL     OW80569   8.296  11.247   7.051
92891SOL    HW180570   8.384  11.236   7.087
92891SOL    HW280571   8.280  11.166   7.003
92892SOL     OW80572   7.310  11.622   2.419
92892SOL    HW180573   7.319  11.627   2.324
92892SOL    HW280574   7.258  11.543   2.434
92893SOL     OW80575  11.754   1.089   9.273
92893SOL    HW180576  11.813   1.029   9.319
92893SOL    HW280577  11.667   1.052   9.287
92894SOL     OW80578   7.624  10.337   3.725
92894SOL    HW180579   7.532  10.322   3.746
92894SOL    HW280580   7.629  10.429   3.702
92895SOL     OW80581   3.116   1.879   0.846
92895SOL    HW180582   3.058   1.826   0.900
92895SOL    HW280583   3.086   1.969   0.858
92896SOL     OW80584   4.424   0.534   8.938
92896SOL    HW180585   4.519   0.531   8.950
92896SOL    HW280586   4.389   0.498   9.020
92897SOL     OW80587   5.830   3.468  14.677
92897SOL    HW180588   5.879   3.550  14.673
92897SOL    HW280589   5.804   3.450  14.587
92898SOL     OW80590   2.344   1.197  13.784
92898SOL    HW180591   2.341   1.253  13.706
92898SOL    HW280592   2.253   1.172  13.799
92899SOL     OW80593  11.036   7.953   6.228
92899SOL    HW180594  10.958   8.004   6.249
92899SOL    HW280595  11.067   7.988   6.145
92900SOL     OW80596   9.208   5.390   0.827
92900SOL    HW180597   9.304   5.386   0.831
92900SOL    HW280598   9.185   5.347   0.745
92901SOL     OW80599   0.004   1.902   8.454
92901SOL    HW180600   0.048   1.851   8.522
92901SOL    HW280601   0.060   1.893   8.377
92902SOL     OW80602   6.354   6.224  13.814
92902SOL    HW180603   6.406   6.198  13.737
92902SOL    HW280604   6.340   6.142  13.862
92903SOL     OW80605  10.484  10.122   9.781
92903SOL    HW180606  10.437  10.110   9.864
92903SOL    HW280607  10.443  10.060   9.722
92904SOL     OW80608   0.344   2.672  14.690
92904SOL    HW180609   0.285   2.600  14.669
92904SOL    HW280610   0.368   2.658  14.782
92905SOL     OW80611   6.129   0.193  10.029
92905SOL    HW180612   6.092   0.122  10.082
92905SOL    HW280613   6.149   0.262  10.092
92906SOL     OW80614  12.750   4.405   5.201
92906SOL    HW180615  12.682   4.371   5.143
92906SOL    HW280616  12.774   4.489   5.163
92907SOL     OW80617   8.569  11.552   8.919
92907SOL    HW180618   8.569  11.557   8.823
92907SOL    HW280619   8.532  11.635   8.947
92908SOL     OW80620   9.493   4.348   3.367
92908SOL    HW180621   9.477   4.372   3.276
92908SOL    HW280622   9.507   4.432   3.411
92909SOL     OW80623   9.779   8.983  14.158
92909SOL    HW180624   9.820   8.901  14.130
92909SOL    HW280625   9.734   9.014  14.079
92910SOL     OW80626  13.913   7.823  10.768
92910SOL    HW180627  13.882   7.833  10.858
92910SOL    HW280628  13.906   7.729  10.751
92911SOL     OW80629   0.055   1.068   1.223
92911SOL    HW180630   0.008   1.133   1.170
92911SOL    HW280631   0.048   1.100   1.312
92912SOL     OW80632  11.727  10.204  10.676
92912SOL    HW180633  11.663  10.233  10.612
92912SOL    HW280634  11.754  10.117  10.646
92913SOL     OW80635   1.120  14.085   2.592
92913SOL    HW180636   1.178  14.058   2.521
92913SOL    HW280637   1.041  14.032   2.580
92914SOL     OW80638  12.234   4.624  14.449
92914SOL    HW180639  12.298   4.694  14.458
92914SOL    HW280640  12.248   4.589  14.361
92915SOL     OW80641   4.318  12.209  13.360
92915SOL    HW180642   4.406  12.176  13.375
92915SOL    HW280643   4.273  12.139  13.313
92916SOL     OW80644   3.461  12.230   5.917
92916SOL    HW180645   3.472  12.303   5.978
92916SOL    HW280646   3.389  12.179   5.954
92917SOL     OW80647   8.440   7.786  12.058
92917SOL    HW180648   8.458   7.857  12.120
92917SOL    HW280649   8.448   7.706  12.110
92918SOL     OW80650   3.570  11.315  14.576
92918SOL    HW180651   3.612  11.232  14.551
92918SOL    HW280652   3.527  11.296  14.659
92919SOL     OW80653   5.573   6.543   0.986
92919SOL    HW180654   5.581   6.631   1.024
92919SOL    HW280655   5.527   6.557   0.903
92920SOL     OW80656  13.431   0.597   4.009
92920SOL    HW180657  13.423   0.515   4.058
92920SOL    HW280658  13.344   0.612   3.973
92921SOL     OW80659   1.874   4.079   7.703
92921SOL    HW180660   1.848   4.154   7.756
92921SOL    HW280661   1.933   4.116   7.637
92922SOL     OW80662   9.648   6.474   2.584
92922SOL    HW180663   9.700   6.550   2.558
92922SOL    HW280664   9.627   6.489   2.676
92923SOL     OW80665  12.651  10.114   8.056
92923SOL    HW180666  12.569  10.111   8.106
92923SOL    HW280667  12.692  10.195   8.084
92924SOL     OW80668   0.310   9.620   9.941
92924SOL    HW180669   0.215   9.623   9.932
92924SOL    HW280670   0.331   9.688  10.005
92925SOL     OW80671   7.704   2.935  12.962
92925SOL    HW180672   7.638   2.913  12.896
92925SOL    HW280673   7.699   3.030  12.969
92926SOL     OW80674  14.059  13.116   0.168
92926SOL    HW180675  14.108  13.196   0.149
92926SOL    HW280676  14.114  13.046   0.132
92927SOL     OW80677  14.750   4.803  12.102
92927SOL    HW180678  14.766   4.850  12.021
92927SOL    HW280679  14.730   4.871  12.166
92928SOL     OW80680   7.568   0.494   9.667
92928SOL    HW180681   7.507   0.424   9.687
92928SOL    HW280682   7.620   0.461   9.594
92929SOL     OW80683  13.182  13.006   1.668
92929SOL    HW180684  13.240  12.944   1.713
92929SOL    HW280685  13.094  12.977   1.692
92930SOL     OW80686   4.117   2.202   5.366
92930SOL    HW180687   4.190   2.186   5.306
92930SOL    HW280688   4.133   2.144   5.440
92931SOL     OW80689   1.625   6.462   4.282
92931SOL    HW180690   1.668   6.416   4.210
92931SOL    HW280691   1.694   6.516   4.321
92932SOL     OW80692   9.671   0.290   8.091
92932SOL    HW180693   9.702   0.365   8.142
92932SOL    HW280694   9.625   0.329   8.017
92933SOL     OW80695   5.120   5.949  11.013
92933SOL    HW180696   5.038   5.996  11.028
92933SOL    HW280697   5.160   5.945  11.100
92934SOL     OW80698   8.164   8.270  14.505
92934SOL    HW180699   8.092   8.230  14.554
92934SOL    HW280700   8.140   8.259  14.413
92935SOL     OW80701  11.040   7.717  14.797
92935SOL    HW180702  11.111   7.780  14.782
92935SOL    HW280703  11.009   7.695  14.709
92936SOL     OW80704   3.684   8.501   9.576
92936SOL    HW180705   3.685   8.473   9.668
92936SOL    HW280706   3.707   8.422   9.527
92937SOL     OW80707   9.186   6.849   8.428
92937SOL    HW180708   9.238   6.789   8.376
92937SOL    HW280709   9.098   6.844   8.390
92938SOL     OW80710   4.765   0.582   2.496
92938SOL    HW180711   4.733   0.561   2.584
92938SOL    HW280712   4.860   0.580   2.504
92939SOL     OW80713   0.303  11.983   0.009
92939SOL    HW180714   0.381  11.943   0.047
92939SOL    HW280715   0.299  12.070   0.047
92940SOL     OW80716  14.738  13.221  14.334
92940SOL    HW180717  14.749  13.311  14.365
92940SOL    HW280718  14.644  13.204  14.343
92941SOL     OW80719  12.308   0.851   7.606
92941SOL    HW180720  12.305   0.878   7.514
92941SOL    HW280721  12.245   0.909   7.650
92942SOL     OW80722   8.339  14.347   8.754
92942SOL    HW180723   8.391  14.392   8.821
92942SOL    HW280724   8.303  14.271   8.798
92943SOL     OW80725   9.769   5.278   6.859
92943SOL    HW180726   9.711   5.205   6.840
92943SOL    HW280727   9.853   5.237   6.881
92944SOL     OW80728   0.123   9.062  14.064
92944SOL    HW180729   0.198   9.044  14.120
92944SOL    HW280730   0.064   8.988  14.078
92945SOL     OW80731  13.012   9.293   2.270
92945SOL    HW180732  12.986   9.204   2.292
92945SOL    HW280733  13.080   9.315   2.334
92946SOL     OW80734   5.716   8.969   7.340
92946SOL    HW180735   5.752   9.010   7.419
92946SOL    HW280736   5.720   8.875   7.358
92947SOL     OW80737   0.548  10.293   6.365
92947SOL    HW180738   0.521  10.355   6.298
92947SOL    HW280739   0.509  10.210   6.338
92948SOL     OW80740   7.148  12.840   6.164
92948SOL    HW180741   7.090  12.870   6.234
92948SOL    HW280742   7.126  12.895   6.089
92949SOL     OW80743   1.707   1.833   8.814
92949SOL    HW180744   1.706   1.765   8.882
92949SOL    HW280745   1.624   1.821   8.767
92950SOL     OW80746   8.215   1.662  10.142
92950SOL    HW180747   8.181   1.668  10.053
92950SOL    HW280748   8.138   1.675  10.198
92951SOL     OW80749   9.231   3.282   4.781
92951SOL    HW180750   9.316   3.319   4.805
92951SOL    HW280751   9.234   3.192   4.812
92952SOL     OW80752  10.575  14.074   4.782
92952SOL    HW180753  10.671  14.073   4.776
92952SOL    HW280754  10.550  13.982   4.774
92953SOL     OW80755  13.533   1.772   8.571
92953SOL    HW180756  13.533   1.851   8.624
92953SOL    HW280757  13.441   1.757   8.550
92954SOL     OW80758  14.438  12.376   5.815
92954SOL    HW180759  14.472  12.465   5.828
92954SOL    HW280760  14.511  12.329   5.774
92955SOL     OW80761   2.515   2.670   8.129
92955SOL    HW180762   2.590   2.673   8.070
92955SOL    HW280763   2.552   2.684   8.216
92956SOL     OW80764   2.936   1.045   6.467
92956SOL    HW180765   2.944   1.013   6.377
92956SOL    HW280766   2.955   0.970   6.522
92957SOL     OW80767  10.893   0.252  10.930
92957SOL    HW180768  10.964   0.220  10.985
92957SOL    HW280769  10.815   0.205  10.963
92958SOL     OW80770   7.621   7.024   5.456
92958SOL    HW180771   7.555   7.033   5.525
92958SOL    HW280772   7.617   6.931   5.432
92959SOL     OW80773   6.609   5.214  13.488
92959SOL    HW180774   6.546   5.178  13.552
92959SOL    HW280775   6.574   5.187  13.403
92960SOL     OW80776   4.082   9.153   5.011
92960SOL    HW180777   4.123   9.229   4.969
92960SOL    HW280778   3.991   9.179   5.024
92961SOL     OW80779  11.083   1.486   6.476
92961SOL    HW180780  11.062   1.407   6.426
92961SOL    HW280781  11.176   1.501   6.460
92962SOL     OW80782   2.152   4.138   2.649
92962SOL    HW180783   2.137   4.157   2.742
92962SOL    HW280784   2.070   4.098   2.620
92963SOL     OW80785  11.879   1.387   2.220
92963SOL    HW180786  11.903   1.479   2.208
92963SOL    HW280787  11.803   1.390   2.278
92964SOL     OW80788  14.189   6.961  10.827
92964SOL    HW180789  14.274   7.001  10.844
92964SOL    HW280790  14.204   6.867  10.840
92965SOL     OW80791   4.438  10.794   3.313
92965SOL    HW180792   4.528  10.812   3.338
92965SOL    HW280793   4.416  10.863   3.250
92966SOL     OW80794   7.011   5.739   7.288
92966SOL    HW180795   6.966   5.817   7.322
92966SOL    HW280796   6.940   5.681   7.260
92967SOL     OW80797   3.207   1.962   6.506
92967SOL    HW180798   3.248   1.974   6.421
92967SOL    HW280799   3.247   2.029   6.562
92968SOL     OW80800   1.829  13.149  10.336
92968SOL    HW180801   1.918  13.160  10.369
92968SOL    HW280802   1.787  13.091  10.399
92969SOL     OW80803  12.713   4.216   6.360
92969SOL    HW180804  12.667   4.218   6.276
92969SOL    HW280805  12.758   4.131   6.360
92970SOL     OW80806   9.355  11.783   0.500
92970SOL    HW180807   9.295  11.829   0.441
92970SOL    HW280808   9.316  11.793   0.586
92971SOL     OW80809   9.919  11.205   0.624
92971SOL    HW180810   9.902  11.269   0.555
92971SOL    HW280811   9.837  11.156   0.631
92972SOL     OW80812   2.468   2.034  12.060
92972SOL    HW180813   2.396   2.047  11.998
92972SOL    HW280814   2.515   1.957  12.027
92973SOL     OW80815   8.313   7.881  10.679
92973SOL    HW180816   8.297   7.844  10.766
92973SOL    HW280817   8.406   7.864  10.663
92974SOL     OW80818   5.747   3.091   8.961
92974SOL    HW180819   5.659   3.063   8.988
92974SOL    HW280820   5.736   3.122   8.872
92975SOL     OW80821   9.391   3.619   3.754
92975SOL    HW180822   9.368   3.631   3.846
92975SOL    HW280823   9.401   3.708   3.720
92976SOL     OW80824  11.656   5.655   9.507
92976SOL    HW180825  11.581   5.612   9.547
92976SOL    HW280826  11.626   5.681   9.420
92977SOL     OW80827   1.909  14.231   1.035
92977SOL    HW180828   1.970  14.232   1.108
92977SOL    HW280829   1.931  14.309   0.984
92978SOL     OW80830   0.604   9.993   9.031
92978SOL    HW180831   0.671   9.961   8.971
92978SOL    HW280832   0.639  10.074   9.066
92979SOL     OW80833   7.200   1.371   1.519
92979SOL    HW180834   7.160   1.343   1.437
92979SOL    HW280835   7.134   1.426   1.561
92980SOL     OW80836   2.317   2.593   8.973
92980SOL    HW180837   2.412   2.589   8.962
92980SOL    HW280838   2.287   2.658   8.910
92981SOL     OW80839   3.513   8.245  11.044
92981SOL    HW180840   3.518   8.315  11.108
92981SOL    HW280841   3.590   8.257  10.988
92982SOL     OW80842   2.852   7.024   4.827
92982SOL    HW180843   2.840   6.933   4.851
92982SOL    HW280844   2.839   7.026   4.732
92983SOL     OW80845   3.897  11.595   3.258
92983SOL    HW180846   3.949  11.583   3.337
92983SOL    HW280847   3.938  11.537   3.193
92984SOL     OW80848   6.764   8.053  10.871
92984SOL    HW180849   6.690   8.105  10.901
92984SOL    HW280850   6.836   8.115  10.864
92985SOL     OW80851   5.499   7.984   4.340
92985SOL    HW180852   5.434   7.994   4.271
92985SOL    HW280853   5.503   7.890   4.358
92986SOL     OW80854   2.346   0.447  11.293
92986SOL    HW180855   2.298   0.476  11.215
92986SOL    HW280856   2.278   0.433  11.359
92987SOL     OW80857   8.095   3.536   0.356
92987SOL    HW180858   8.129   3.504   0.439
92987SOL    HW280859   8.008   3.496   0.348
92988SOL     OW80860   0.998   1.113  12.710
92988SOL    HW180861   1.000   1.019  12.690
92988SOL    HW280862   0.957   1.118  12.796
92989SOL     OW80863   6.223  14.590   1.452
92989SOL    HW180864   6.199  14.675   1.414
92989SOL    HW280865   6.301  14.608   1.505
92990SOL     OW80866   1.396   0.186   5.653
92990SOL    HW180867   1.326   0.231   5.699
92990SOL    HW280868   1.361   0.174   5.564
92991SOL     OW80869   7.543  13.025   0.234
92991SOL    HW180870   7.614  12.976   0.275
92991SOL    HW280871   7.491  13.059   0.307
92992SOL     OW80872   7.204   2.240   9.237
92992SOL    HW180873   7.132   2.227   9.175
92992SOL    HW280874   7.166   2.291   9.308
92993SOL     OW80875  13.791   9.632  10.011
92993SOL    HW180876  13.838   9.630   9.927
92993SOL    HW280877  13.814   9.550  10.054
92994SOL     OW80878   9.701   8.211   7.939
92994SOL    HW180879   9.770   8.211   7.873
92994SOL    HW280880   9.666   8.122   7.937
92995SOL     OW80881   4.876  14.037  10.724
92995SOL    HW180882   4.953  13.981  10.731
92995SOL    HW280883   4.832  14.008  10.644
92996SOL     OW80884  13.632   1.585   6.404
92996SOL    HW180885  13.647   1.551   6.316
92996SOL    HW280886  13.545   1.552   6.428
92997SOL     OW80887   9.205   0.516   2.253
92997SOL    HW180888   9.193   0.558   2.338
92997SOL    HW280889   9.231   0.426   2.274
92998SOL     OW80890   7.596  13.497   0.062
92998SOL    HW180891   7.634  13.584   0.065
92998SOL    HW280892   7.522  13.500   0.122
92999SOL     OW80893   7.520   6.176   1.785
92999SOL    HW180894   7.458   6.201   1.854
92999SOL    HW280895   7.553   6.091   1.812
93000SOL     OW80896   3.116   4.065   9.593
93000SOL    HW180897   3.074   4.143   9.559
93000SOL    HW280898   3.110   4.001   9.522
93001SOL     OW80899   1.821   5.995   8.368
93001SOL    HW180900   1.770   5.994   8.449
93001SOL    HW280901   1.912   5.996   8.398
93002SOL     OW80902  14.601   5.199  13.716
93002SOL    HW180903  14.651   5.133  13.668
93002SOL    HW280904  14.556   5.249  13.648
93003SOL     OW80905  14.011  12.622  14.406
93003SOL    HW180906  14.054  12.694  14.360
93003SOL    HW280907  14.010  12.550  14.343
93004SOL     OW80908  11.294   1.793   8.255
93004SOL    HW180909  11.277   1.764   8.345
93004SOL    HW280910  11.231   1.864   8.241
93005SOL     OW80911  11.398   6.341   4.465
93005SOL    HW180912  11.490   6.319   4.446
93005SOL    HW280913  11.397   6.437   4.469
93006SOL     OW80914   7.524  13.584   1.283
93006SOL    HW180915   7.433  13.597   1.311
93006SOL    HW280916   7.518  13.519   1.213
93007SOL     OW80917   1.895   2.385  12.451
93007SOL    HW180918   1.823   2.326  12.428
93007SOL    HW280919   1.948   2.335  12.512
93008SOL     OW80920   9.341   1.175  14.804
93008SOL    HW180921   9.341   1.254  14.859
93008SOL    HW280922   9.396   1.113  14.852
93009SOL     OW80923   6.235  12.963   5.918
93009SOL    HW180924   6.303  12.948   5.984
93009SOL    HW280925   6.191  13.043   5.947
93010SOL     OW80926   8.345   8.420  13.558
93010SOL    HW180927   8.272   8.364  13.532
93010SOL    HW280928   8.423   8.364  13.550
93011SOL     OW80929   6.514  14.078   8.128
93011SOL    HW180930   6.422  14.097   8.143
93011SOL    HW280931   6.557  14.095   8.212
93012SOL     OW80932  11.810   1.951  12.320
93012SOL    HW180933  11.826   2.045  12.308
93012SOL    HW280934  11.887   1.908  12.285
93013SOL     OW80935   1.027   9.749   6.017
93013SOL    HW180936   1.074   9.754   5.934
93013SOL    HW280937   1.088   9.783   6.081
93014SOL     OW80938  11.304   4.143   8.253
93014SOL    HW180939  11.384   4.103   8.286
93014SOL    HW280940  11.307   4.129   8.158
93015SOL     OW80941   3.511   9.002   5.609
93015SOL    HW180942   3.443   8.947   5.570
93015SOL    HW280943   3.475   9.090   5.609
93016SOL     OW80944   5.650   9.267  11.765
93016SOL    HW180945   5.726   9.271  11.824
93016SOL    HW280946   5.608   9.353  11.774
93017SOL     OW80947   3.679   3.863   0.108
93017SOL    HW180948   3.713   3.947   0.138
93017SOL    HW280949   3.756   3.814   0.082
93018SOL     OW80950   1.588  14.627   7.371
93018SOL    HW180951   1.607  14.556   7.310
93018SOL    HW280952   1.545  14.584   7.445
93019SOL     OW80953   6.706   2.520   4.132
93019SOL    HW180954   6.642   2.450   4.135
93019SOL    HW280955   6.790   2.476   4.119
93020SOL     OW80956  13.511   4.006  11.936
93020SOL    HW180957  13.451   3.931  11.932
93020SOL    HW280958  13.478   4.058  12.010
93021SOL     OW80959  13.359   8.506  13.466
93021SOL    HW180960  13.379   8.573  13.400
93021SOL    HW280961  13.375   8.550  13.550
93022SOL     OW80962   8.505   0.538   0.397
93022SOL    HW180963   8.433   0.587   0.438
93022SOL    HW280964   8.570   0.604   0.375
93023SOL     OW80965  10.315  10.674   7.486
93023SOL    HW180966  10.366  10.655   7.407
93023SOL    HW280967  10.316  10.592   7.536
93024SOL     OW80968   4.559   8.564  11.498
93024SOL    HW180969   4.633   8.507  11.518
93024SOL    HW280970   4.552   8.621  11.575
93025SOL     OW80971   3.639  10.336   7.970
93025SOL    HW180972   3.625  10.241   7.963
93025SOL    HW280973   3.713  10.345   8.030
93026SOL     OW80974   5.318  10.768   7.139
93026SOL    HW180975   5.405  10.790   7.104
93026SOL    HW280976   5.283  10.703   7.078
93027SOL     OW80977   1.609   2.547   9.372
93027SOL    HW180978   1.571   2.566   9.286
93027SOL    HW280979   1.600   2.452   9.381
93028SOL     OW80980   1.902   3.767  11.310
93028SOL    HW180981   1.814   3.803  11.319
93028SOL    HW280982   1.906   3.735  11.220
93029SOL     OW80983   8.856   2.182   3.202
93029SOL    HW180984   8.884   2.249   3.265
93029SOL    HW280985   8.898   2.207   3.120
93030SOL     OW80986   1.056  12.021  10.475
93030SOL    HW180987   1.099  11.937  10.491
93030SOL    HW280988   1.004  12.035  10.554
93031SOL     OW80989   3.054   7.105   4.110
93031SOL    HW180990   3.063   7.018   4.150
93031SOL    HW280991   3.001   7.155   4.173
93032SOL     OW80992   3.429   1.118   3.248
93032SOL    HW180993   3.368   1.087   3.315
93032SOL    HW280994   3.375   1.170   3.189
93033SOL     OW80995   9.504   7.317   4.499
93033SOL    HW180996   9.459   7.304   4.583
93033SOL    HW280997   9.596   7.303   4.520
93034SOL     OW80998   2.628  10.434   1.084
93034SOL    HW180999   2.615  10.522   1.120
93034SOL    HW281000   2.627  10.446   0.989
93035SOL     OW81001   5.170   2.991  13.415
93035SOL    HW181002   5.086   2.982  13.460
93035SOL    HW281003   5.152   2.967  13.324
93036SOL     OW81004   8.972   4.673  12.871
93036SOL    HW181005   8.929   4.702  12.790
93036SOL    HW281006   9.049   4.730  12.878
93037SOL     OW81007  12.196   5.607   4.975
93037SOL    HW181008  12.275   5.568   5.013
93037SOL    HW281009  12.193   5.696   5.010
93038SOL     OW81010   3.063   1.329   2.634
93038SOL    HW181011   3.104   1.386   2.699
93038SOL    HW281012   3.094   1.241   2.657
93039SOL     OW81013  11.721   2.998   1.072
93039SOL    HW181014  11.683   3.042   1.147
93039SOL    HW281015  11.652   3.000   1.005
93040SOL     OW81016  14.613   1.463   5.360
93040SOL    HW181017  14.626   1.473   5.266
93040SOL    HW281018  14.630   1.371   5.377
93041SOL     OW81019  12.945   5.666  11.022
93041SOL    HW181020  12.978   5.745  11.066
93041SOL    HW281021  12.856   5.689  10.995
93042SOL     OW81022   4.604   6.700   2.990
93042SOL    HW181023   4.509   6.687   2.990
93042SOL    HW281024   4.634   6.653   2.912
93043SOL     OW81025  12.263   4.852   4.647
93043SOL    HW181026  12.357   4.847   4.628
93043SOL    HW281027  12.234   4.933   4.605
93044SOL     OW81028  12.694   8.364  13.634
93044SOL    HW181029  12.640   8.312  13.693
93044SOL    HW281030  12.775   8.314  13.625
93045SOL     OW81031   3.749  11.571  12.291
93045SOL    HW181032   3.753  11.476  12.307
93045SOL    HW281033   3.778  11.581  12.200
93046SOL     OW81034   8.088  10.296   8.754
93046SOL    HW181035   8.089  10.336   8.841
93046SOL    HW281036   8.036  10.216   8.765
93047SOL     OW81037   6.506  10.947   0.032
93047SOL    HW181038   6.598  10.958   0.008
93047SOL    HW281039   6.505  10.953   0.128
93048SOL     OW81040   9.989   1.467   9.105
93048SOL    HW181041   9.927   1.414   9.154
93048SOL    HW281042  10.023   1.409   9.037
93049SOL     OW81043  12.832  11.319  14.183
93049SOL    HW181044  12.752  11.301  14.231
93049SOL    HW281045  12.867  11.233  14.160
93050SOL     OW81046   0.389   5.049   5.183
93050SOL    HW181047   0.459   4.984   5.184
93050SOL    HW281048   0.313   5.002   5.219
93051SOL     OW81049   3.810   0.170   1.278
93051SOL    HW181050   3.787   0.240   1.217
93051SOL    HW281051   3.896   0.140   1.249
93052SOL     OW81052   0.830  12.663   2.595
93052SOL    HW181053   0.874  12.587   2.557
93052SOL    HW281054   0.775  12.697   2.525
93053SOL     OW81055  10.810   8.815  10.712
93053SOL    HW181056  10.893   8.859  10.730
93053SOL    HW281057  10.821   8.780  10.624
93054SOL     OW81058  12.565  14.435   1.762
93054SOL    HW181059  12.612  14.472   1.687
93054SOL    HW281060  12.474  14.463   1.749
93055SOL     OW81061   8.771   1.670  14.490
93055SOL    HW181062   8.793   1.736  14.556
93055SOL    HW281063   8.751   1.721  14.411
93056SOL     OW81064   0.200   2.316   2.916
93056SOL    HW181065   0.122   2.262   2.905
93056SOL    HW281066   0.263   2.280   2.854
93057SOL     OW81067  12.861   9.034   0.128
93057SOL    HW181068  12.794   8.982   0.172
93057SOL    HW281069  12.847   9.123   0.160
93058SOL     OW81070   9.792   7.618  12.627
93058SOL    HW181071   9.884   7.620  12.601
93058SOL    HW281072   9.790   7.563  12.705
93059SOL     OW81073   9.018   3.383   2.201
93059SOL    HW181074   9.022   3.478   2.188
93059SOL    HW281075   9.069   3.347   2.128
93060SOL     OW81076   8.599   1.030   6.277
93060SOL    HW181077   8.612   0.990   6.191
93060SOL    HW281078   8.555   0.963   6.328
93061SOL     OW81079   4.435   0.767   3.285
93061SOL    HW181080   4.451   0.678   3.316
93061SOL    HW281081   4.422   0.757   3.191
93062SOL     OW81082  13.946   9.731  11.194
93062SOL    HW181083  13.852   9.748  11.197
93062SOL    HW281084  13.986   9.813  11.223
93063SOL     OW81085  13.552   0.160   2.820
93063SOL    HW181086  13.487   0.126   2.881
93063SOL    HW281087  13.636   0.138   2.860
93064SOL     OW81088   5.797  13.078   9.099
93064SOL    HW181089   5.707  13.098   9.075
93064SOL    HW281090   5.808  13.116   9.186
93065SOL     OW81091   9.522  13.218   4.044
93065SOL    HW181092   9.573  13.142   4.071
93065SOL    HW281093   9.565  13.248   3.963
93066SOL     OW81094  13.246   7.381   5.359
93066SOL    HW181095  13.277   7.442   5.426
93066SOL    HW281096  13.242   7.434   5.279
93067SOL     OW81097   2.027   5.126   7.696
93067SOL    HW181098   1.994   5.077   7.772
93067SOL    HW281099   2.050   5.212   7.732
93068SOL     OW81100   4.210   4.848   1.108
93068SOL    HW181101   4.158   4.782   1.154
93068SOL    HW281102   4.149   4.920   1.093
93069SOL     OW81103   5.895  14.383   2.371
93069SOL    HW181104   5.980  14.338   2.365
93069SOL    HW281105   5.845  14.329   2.432
93070SOL     OW81106  12.923  13.010  14.249
93070SOL    HW181107  13.019  13.005  14.249
93070SOL    HW281108  12.902  13.073  14.181
93071SOL     OW81109  13.128  11.850   9.758
93071SOL    HW181110  13.168  11.822   9.841
93071SOL    HW281111  13.066  11.781   9.737
93072SOL     OW81112   0.805  12.426   2.823
93072SOL    HW181113   0.807  12.470   2.738
93072SOL    HW281114   0.816  12.497   2.887
93073SOL     OW81115   3.518   4.316  11.216
93073SOL    HW181116   3.477   4.269  11.144
93073SOL    HW281117   3.612   4.310  11.200
93074SOL     OW81118  10.409   1.260   2.167
93074SOL    HW181119  10.401   1.270   2.072
93074SOL    HW281120  10.321   1.276   2.200
93075SOL     OW81121   6.940   0.068   1.519
93075SOL    HW181122   7.012   0.062   1.582
93075SOL    HW281123   6.980   0.099   1.439
93076SOL     OW81124   0.452   6.640  12.305
93076SOL    HW181125   0.495   6.725  12.312
93076SOL    HW281126   0.429   6.618  12.395
93077SOL     OW81127   3.464   2.462   3.038
93077SOL    HW181128   3.459   2.557   3.052
93077SOL    HW281129   3.379   2.438   3.001
93078SOL     OW81130   3.975  14.419  10.271
93078SOL    HW181131   3.957  14.502  10.227
93078SOL    HW281132   4.063  14.430  10.308
93079SOL     OW81133   8.426   0.896   1.569
93079SOL    HW181134   8.517   0.881   1.595
93079SOL    HW281135   8.374   0.839   1.626
93080SOL     OW81136  14.565   4.944  13.926
93080SOL    HW181137  14.638   5.005  13.932
93080SOL    HW281138  14.581   4.896  13.844
93081SOL     OW81139   3.040  12.917   1.463
93081SOL    HW181140   3.116  12.968   1.488
93081SOL    HW281141   2.992  12.903   1.544
93082SOL     OW81142   7.175   2.545  13.304
93082SOL    HW181143   7.200   2.615  13.365
93082SOL    HW281144   7.254   2.492  13.294
93083SOL     OW81145  11.295   5.392   7.551
93083SOL    HW181146  11.254   5.411   7.636
93083SOL    HW281147  11.228   5.343   7.503
93084SOL     OW81148   6.355   0.035   8.883
93084SOL    HW181149   6.391  14.840   8.825
93084SOL    HW281150   6.306   0.093   8.825
93085SOL     OW81151   5.674  13.194   6.645
93085SOL    HW181152   5.621  13.193   6.565
93085SOL    HW281153   5.706  13.284   6.652
93086SOL     OW81154  10.322   2.789   4.591
93086SOL    HW181155  10.283   2.812   4.675
93086SOL    HW281156  10.414   2.773   4.611
93087SOL     OW81157   5.663   6.089   0.809
93087SOL    HW181158   5.660   6.107   0.904
93087SOL    HW281159   5.624   6.167   0.769
93088SOL     OW81160   6.727  14.128   1.002
93088SOL    HW181161   6.645  14.129   1.051
93088SOL    HW281162   6.780  14.197   1.042
93089SOL     OW81163  10.365  14.203  10.007
93089SOL    HW181164  10.449  14.158   9.999
93089SOL    HW281165  10.314  14.172   9.932
93090SOL     OW81166   9.648   6.044   0.796
93090SOL    HW181167   9.570   6.011   0.751
93090SOL    HW281168   9.695   5.965   0.823
93091SOL     OW81169  12.742   7.896   5.116
93091SOL    HW181170  12.748   7.923   5.207
93091SOL    HW281171  12.706   7.973   5.070
93092SOL     OW81172  14.771   4.388   5.467
93092SOL    HW181173  14.815   4.323   5.412
93092SOL    HW281174  14.702   4.425   5.412
93093SOL     OW81175   4.011  11.275   5.390
93093SOL    HW181176   3.968  11.190   5.404
93093SOL    HW281177   4.070  11.259   5.316
93094SOL     OW81178   8.801  13.937   5.478
93094SOL    HW181179   8.821  13.847   5.452
93094SOL    HW281180   8.705  13.941   5.479
93095SOL     OW81181  10.618  12.399  13.144
93095SOL    HW181182  10.558  12.445  13.086
93095SOL    HW281183  10.679  12.355  13.086
93096SOL     OW81184   8.647   6.111   6.503
93096SOL    HW181185   8.560   6.148   6.519
93096SOL    HW281186   8.633   6.049   6.431
93097SOL     OW81187  13.635   4.831  12.246
93097SOL    HW181188  13.607   4.918  12.275
93097SOL    HW281189  13.687   4.847  12.168
93098SOL     OW81190  14.763   3.161   4.694
93098SOL    HW181191  14.694   3.095   4.683
93098SOL    HW281192  14.744   3.201   4.779
93099SOL     OW81193  13.173   4.376  11.415
93099SOL    HW181194  13.109   4.421  11.359
93099SOL    HW281195  13.155   4.410  11.503
93100SOL     OW81196  11.340   9.216  13.598
93100SOL    HW181197  11.267   9.219  13.536
93100SOL    HW281198  11.367   9.307  13.609
93101SOL     OW81199   0.485   3.678  10.234
93101SOL    HW181200   0.397   3.711  10.250
93101SOL    HW281201   0.533   3.753  10.200
93102SOL     OW81202   8.904  12.129   7.650
93102SOL    HW181203   8.994  12.107   7.626
93102SOL    HW281204   8.862  12.152   7.567
93103SOL     OW81205  13.268   0.115   0.148
93103SOL    HW181206  13.349   0.074   0.181
93103SOL    HW281207  13.296   0.199   0.112
93104SOL     OW81208  10.164  10.312  13.428
93104SOL    HW181209  10.140  10.400  13.459
93104SOL    HW281210  10.180  10.323  13.334
93105SOL     OW81211   7.823  12.980  13.859
93105SOL    HW181212   7.842  12.952  13.949
93105SOL    HW281213   7.747  13.039  13.868
93106SOL     OW81214  11.820  13.261   2.489
93106SOL    HW181215  11.803  13.265   2.583
93106SOL    HW281216  11.835  13.168   2.471
93107SOL     OW81217   7.538  12.165   4.658
93107SOL    HW181218   7.600  12.163   4.731
93107SOL    HW281219   7.470  12.226   4.686
93108SOL     OW81220   4.069   6.801  10.246
93108SOL    HW181221   4.146   6.751  10.274
93108SOL    HW281222   4.012   6.802  10.322
93109SOL     OW81223  12.353   9.737   4.915
93109SOL    HW181224  12.394   9.661   4.954
93109SOL    HW281225  12.319   9.705   4.831
93110SOL     OW81226   7.149   4.598   9.545
93110SOL    HW181227   7.168   4.546   9.623
93110SOL    HW281228   7.170   4.540   9.472
93111SOL     OW81229   8.003   4.438  12.649
93111SOL    HW181230   7.939   4.407  12.714
93111SOL    HW281231   7.979   4.529  12.633
93112SOL     OW81232  14.097   6.905   9.899
93112SOL    HW181233  14.084   6.907   9.805
93112SOL    HW281234  14.041   6.834   9.930
93113SOL     OW81235   5.900   3.991   5.003
93113SOL    HW181236   5.987   3.957   5.023
93113SOL    HW281237   5.888   4.065   5.062
93114SOL     OW81238   3.085   2.740  12.043
93114SOL    HW181239   3.027   2.721  11.969
93114SOL    HW281240   3.157   2.790  12.004
93115SOL     OW81241  11.189   2.331   5.279
93115SOL    HW181242  11.235   2.414   5.268
93115SOL    HW281243  11.191   2.315   5.373
93116SOL     OW81244  12.957   3.273   7.623
93116SOL    HW181245  12.930   3.320   7.544
93116SOL    HW281246  12.994   3.340   7.680
93117SOL     OW81247   3.887   0.143  10.173
93117SOL    HW181248   3.899   0.108  10.261
93117SOL    HW281249   3.806   0.194  10.178
93118SOL     OW81250   0.899   1.125  12.355
93118SOL    HW181251   0.826   1.186  12.352
93118SOL    HW281252   0.884   1.065  12.282
93119SOL     OW81253   7.368   0.615   0.191
93119SOL    HW181254   7.283   0.638   0.153
93119SOL    HW281255   7.376   0.521   0.175
93120SOL     OW81256   3.668   2.422  13.887
93120SOL    HW181257   3.656   2.511  13.921
93120SOL    HW281258   3.605   2.369  13.936
93121SOL     OW81259   6.185   0.643  10.039
93121SOL    HW181260   6.123   0.696  10.089
93121SOL    HW281261   6.251   0.706  10.009
93122SOL     OW81262  12.360   1.769  12.448
93122SOL    HW181263  12.329   1.679  12.439
93122SOL    HW281264  12.399   1.790  12.363
93123SOL     OW81265   9.274   2.238   8.941
93123SOL    HW181266   9.225   2.307   8.986
93123SOL    HW281267   9.206   2.183   8.901
93124SOL     OW81268   9.099  13.184   2.706
93124SOL    HW181269   9.103  13.245   2.633
93124SOL    HW281270   9.186  13.187   2.745
93125SOL     OW81271  13.819   0.836  11.844
93125SOL    HW181272  13.882   0.908  11.840
93125SOL    HW281273  13.805   0.821  11.937
93126SOL     OW81274  11.699   6.113  13.739
93126SOL    HW181275  11.681   6.035  13.687
93126SOL    HW281276  11.766   6.086  13.801
93127SOL     OW81277   0.070   9.394   0.577
93127SOL    HW181278   0.089   9.304   0.605
93127SOL    HW281279   0.154   9.425   0.542
93128SOL     OW81280   6.882   9.861  11.268
93128SOL    HW181281   6.790   9.889  11.269
93128SOL    HW281282   6.906   9.860  11.175
93129SOL     OW81283   5.082   7.489   2.932
93129SOL    HW181284   5.033   7.471   2.852
93129SOL    HW281285   5.139   7.562   2.909
93130SOL     OW81286   9.887   4.476   9.968
93130SOL    HW181287   9.901   4.568   9.989
93130SOL    HW281288   9.808   4.476   9.915
93131SOL     OW81289   1.849   7.891   2.288
93131SOL    HW181290   1.835   7.940   2.207
93131SOL    HW281291   1.761   7.867   2.318
93132SOL     OW81292   0.683   5.396   1.082
93132SOL    HW181293   0.720   5.451   1.151
93132SOL    HW281294   0.758   5.350   1.045
93133SOL     OW81295   2.330  11.996   5.886
93133SOL    HW181296   2.363  12.079   5.919
93133SOL    HW281297   2.249  12.018   5.840
93134SOL     OW81298   9.488  12.731  14.638
93134SOL    HW181299   9.429  12.805  14.623
93134SOL    HW281300   9.499  12.691  14.552
93135SOL     OW81301  12.135   5.646   8.152
93135SOL    HW181302  12.161   5.558   8.125
93135SOL    HW281303  12.043   5.639   8.175
93136SOL     OW81304   5.666   6.634   8.294
93136SOL    HW181305   5.581   6.596   8.317
93136SOL    HW281306   5.698   6.580   8.222
93137SOL     OW81307  14.200   8.365   6.801
93137SOL    HW181308  14.208   8.285   6.749
93137SOL    HW281309  14.124   8.349   6.858
93138SOL     OW81310   3.739   4.458  12.741
93138SOL    HW181311   3.660   4.406  12.755
93138SOL    HW281312   3.711   4.548  12.757
93139SOL     OW81313   7.952  10.199   3.966
93139SOL    HW181314   8.020  10.180   3.902
93139SOL    HW281315   7.936  10.115   4.010
93140SOL     OW81316   8.462   4.117  11.359
93140SOL    HW181317   8.372   4.107  11.390
93140SOL    HW281318   8.516   4.085  11.431
93141SOL     OW81319   7.306   4.101   6.916
93141SOL    HW181320   7.350   4.128   6.836
93141SOL    HW281321   7.263   4.019   6.893
93142SOL     OW81322   6.116   4.011   0.188
93142SOL    HW181323   6.140   4.072   0.118
93142SOL    HW281324   6.200   3.975   0.219
93143SOL     OW81325   3.147   9.162   5.328
93143SOL    HW181326   3.051   9.169   5.326
93143SOL    HW281327   3.166   9.119   5.411
93144SOL     OW81328  10.271  12.265   6.682
93144SOL    HW181329  10.244  12.195   6.742
93144SOL    HW281330  10.327  12.221   6.618
93145SOL     OW81331   4.040  12.083   1.380
93145SOL    HW181332   3.945  12.090   1.390
93145SOL    HW281333   4.075  12.160   1.426
93146SOL     OW81334   0.595   3.574   5.854
93146SOL    HW181335   0.501   3.556   5.862
93146SOL    HW281336   0.609   3.652   5.906
93147SOL     OW81337   6.507  11.880   3.084
93147SOL    HW181338   6.553  11.957   3.049
93147SOL    HW281339   6.573  11.812   3.088
93148SOL     OW81340  14.137   0.136   8.759
93148SOL    HW181341  14.092   0.057   8.728
93148SOL    HW281342  14.074   0.177   8.819
93149SOL     OW81343   9.787   0.316  13.365
93149SOL    HW181344   9.728   0.262  13.312
93149SOL    HW281345   9.838   0.253  13.417
93150SOL     OW81346  12.037  11.908   7.726
93150SOL    HW181347  12.115  11.854   7.712
93150SOL    HW281348  12.034  11.966   7.650
93151SOL     OW81349  10.241  11.327   1.624
93151SOL    HW181350  10.209  11.247   1.581
93151SOL    HW281351  10.180  11.341   1.697
93152SOL     OW81352   1.486  11.839   8.413
93152SOL    HW181353   1.540  11.788   8.473
93152SOL    HW281354   1.425  11.887   8.470
93153SOL     OW81355  11.384  12.035   0.319
93153SOL    HW181356  11.342  11.950   0.309
93153SOL    HW281357  11.404  12.040   0.413
93154SOL     OW81358  11.051   6.466   7.095
93154SOL    HW181359  11.113   6.426   7.034
93154SOL    HW281360  11.038   6.554   7.061
93155SOL     OW81361   8.159   3.303  14.757
93155SOL    HW181362   8.133   3.217  14.725
93155SOL    HW281363   8.219   3.284  14.830
93156SOL     OW81364   4.409   3.203   4.073
93156SOL    HW181365   4.332   3.147   4.082
93156SOL    HW281366   4.407   3.258   4.152
93157SOL     OW81367   0.576  10.423  13.290
93157SOL    HW181368   0.668  10.443  13.304
93157SOL    HW281369   0.575  10.330  13.264
93158SOL     OW81370   0.385   5.797   5.869
93158SOL    HW181371   0.347   5.885   5.866
93158SOL    HW281372   0.464   5.803   5.816
93159SOL     OW81373   8.830  13.348  10.732
93159SOL    HW181374   8.814  13.300  10.650
93159SOL    HW281375   8.772  13.307  10.796
93160SOL     OW81376  10.314   1.592   6.989
93160SOL    HW181377  10.268   1.508   6.983
93160SOL    HW281378  10.259   1.653   6.940
93161SOL     OW81379  12.722  11.059   0.177
93161SOL    HW181380  12.750  11.115   0.249
93161SOL    HW281381  12.763  11.098   0.099
93162SOL     OW81382   7.389   2.334   3.747
93162SOL    HW181383   7.444   2.340   3.825
93162SOL    HW281384   7.301   2.353   3.778
93163SOL     OW81385   5.899   3.557  13.887
93163SOL    HW181386   5.960   3.505  13.939
93163SOL    HW281387   5.868   3.497  13.819
93164SOL     OW81388   9.520  12.068   6.955
93164SOL    HW181389   9.568  11.993   6.920
93164SOL    HW281390   9.581  12.141   6.947
93165SOL     OW81391   1.947   7.684  12.539
93165SOL    HW181392   2.006   7.674  12.614
93165SOL    HW281393   1.995   7.740  12.478
93166SOL     OW81394   8.371  13.659   3.129
93166SOL    HW181395   8.403  13.749   3.129
93166SOL    HW281396   8.276  13.667   3.131
93167SOL     OW81397   3.331  14.069   5.930
93167SOL    HW181398   3.379  14.129   5.986
93167SOL    HW281399   3.239  14.097   5.938
93168SOL     OW81400   8.937  12.339   0.787
93168SOL    HW181401   9.024  12.378   0.799
93168SOL    HW281402   8.876  12.409   0.808
93169SOL     OW81403   1.794   8.610   8.045
93169SOL    HW181404   1.817   8.645   7.959
93169SOL    HW281405   1.715   8.658   8.070
93170SOL     OW81406   3.167   6.402  10.860
93170SOL    HW181407   3.149   6.441  10.775
93170SOL    HW281408   3.148   6.471  10.923
93171SOL     OW81409   3.670   1.328  10.625
93171SOL    HW181410   3.672   1.248  10.573
93171SOL    HW281411   3.609   1.385  10.579
93172SOL     OW81412  11.033   7.821  10.070
93172SOL    HW181413  10.938   7.827  10.065
93172SOL    HW281414  11.064   7.910  10.053
93173SOL     OW81415   2.511  10.784  13.321
93173SOL    HW181416   2.556  10.701  13.335
93173SOL    HW281417   2.503  10.822  13.408
93174SOL     OW81418   3.779   5.719  10.297
93174SOL    HW181419   3.782   5.775  10.375
93174SOL    HW281420   3.690   5.682  10.298
93175SOL     OW81421   5.359   9.550  12.591
93175SOL    HW181422   5.375   9.617  12.657
93175SOL    HW281423   5.358   9.598  12.508
93176SOL     OW81424  13.225  10.292  13.279
93176SOL    HW181425  13.144  10.259  13.239
93176SOL    HW281426  13.203  10.301  13.372
93177SOL     OW81427   6.366   0.585   9.042
93177SOL    HW181428   6.307   0.659   9.028
93177SOL    HW281429   6.439   0.621   9.092
93178SOL     OW81430   0.892  12.617   8.185
93178SOL    HW181431   0.876  12.667   8.264
93178SOL    HW281432   0.806  12.583   8.159
93179SOL     OW81433  10.548   2.149  13.266
93179SOL    HW181434  10.478   2.212  13.281
93179SOL    HW281435  10.548   2.135  13.171
93180SOL     OW81436  13.200   8.854  12.384
93180SOL    HW181437  13.191   8.917  12.312
93180SOL    HW281438  13.119   8.804  12.382
93181SOL     OW81439  10.581   0.722  10.085
93181SOL    HW181440  10.549   0.680  10.165
93181SOL    HW281441  10.674   0.737  10.101
93182SOL     OW81442   6.318  14.820   2.837
93182SOL    HW181443   6.303  14.811   2.743
93182SOL    HW281444   6.236  14.791   2.878
93183SOL     OW81445  10.675   6.818   4.735
93183SOL    HW181446  10.680   6.811   4.831
93183SOL    HW281447  10.719   6.900   4.714
93184SOL     OW81448   7.652   9.792   4.246
93184SOL    HW181449   7.632   9.768   4.156
93184SOL    HW281450   7.615   9.880   4.256
93185SOL     OW81451   4.448   3.882   6.645
93185SOL    HW181452   4.508   3.938   6.596
93185SOL    HW281453   4.375   3.939   6.669
93186SOL     OW81454  11.902   7.378   4.771
93186SOL    HW181455  11.965   7.450   4.773
93186SOL    HW281456  11.940   7.314   4.710
93187SOL     OW81457  11.632   2.384   8.311
93187SOL    HW181458  11.552   2.437   8.320
93187SOL    HW281459  11.685   2.408   8.387
93188SOL     OW81460   2.735   2.032   2.861
93188SOL    HW181461   2.822   2.038   2.900
93188SOL    HW281462   2.750   2.022   2.767
93189SOL     OW81463   0.414   4.712   8.796
93189SOL    HW181464   0.319   4.719   8.785
93189SOL    HW281465   0.440   4.795   8.836
93190SOL     OW81466  11.207   2.111   3.310
93190SOL    HW181467  11.244   2.104   3.398
93190SOL    HW281468  11.203   2.205   3.293
93191SOL     OW81469   9.294   4.790  13.905
93191SOL    HW181470   9.263   4.816  13.992
93191SOL    HW281471   9.217   4.755  13.861
93192SOL     OW81472   5.168   8.361   1.033
93192SOL    HW181473   5.235   8.429   1.036
93192SOL    HW281474   5.086   8.409   1.018
93193SOL     OW81475   4.934   9.368   7.126
93193SOL    HW181476   4.907   9.404   7.210
93193SOL    HW281477   4.970   9.443   7.078
93194SOL     OW81478   4.543   0.086   0.927
93194SOL    HW181479   4.630   0.109   0.896
93194SOL    HW281480   4.546  14.863   0.940
93195SOL     OW81481   7.385   6.172  10.542
93195SOL    HW181482   7.326   6.158  10.467
93195SOL    HW281483   7.328   6.164  10.619
93196SOL     OW81484   8.663   8.493   0.731
93196SOL    HW181485   8.678   8.572   0.782
93196SOL    HW281486   8.587   8.514   0.677
93197SOL     OW81487   5.676  10.543   2.455
93197SOL    HW181488   5.683  10.447   2.458
93197SOL    HW281489   5.598  10.562   2.508
93198SOL     OW81490  12.939  13.192   8.166
93198SOL    HW181491  13.034  13.185   8.166
93198SOL    HW281492  12.921  13.281   8.138
93199SOL     OW81493   8.345   2.450  12.846
93199SOL    HW181494   8.261   2.403  12.840
93199SOL    HW281495   8.333   2.528  12.792
93200SOL     OW81496   7.943  10.713   0.561
93200SOL    HW181497   7.895  10.789   0.530
93200SOL    HW281498   8.026  10.748   0.592
93201SOL     OW81499   4.704   1.287  12.573
93201SOL    HW181500   4.626   1.287  12.518
93201SOL    HW281501   4.672   1.266  12.660
93202SOL     OW81502   5.251  11.621   6.435
93202SOL    HW181503   5.270  11.643   6.344
93202SOL    HW281504   5.176  11.563   6.431
93203SOL     OW81505  13.215   2.180  12.990
93203SOL    HW181506  13.302   2.185  12.950
93203SOL    HW281507  13.191   2.087  12.982
93204SOL     OW81508   0.959  12.451   1.424
93204SOL    HW181509   0.878  12.496   1.447
93204SOL    HW281510   1.028  12.516   1.439
93205SOL     OW81511   7.073   8.262  12.654
93205SOL    HW181512   7.014   8.330  12.621
93205SOL    HW281513   7.020   8.183  12.655
93206SOL     OW81514   9.570   9.476  10.099
93206SOL    HW181515   9.597   9.546  10.159
93206SOL    HW281516   9.524   9.521  10.029
93207SOL     OW81517   0.849  12.183   8.903
93207SOL    HW181518   0.930  12.182   8.953
93207SOL    HW281519   0.804  12.102   8.928
93208SOL     OW81520   9.779   0.626   6.980
93208SOL    HW181521   9.740   0.654   6.897
93208SOL    HW281522   9.749   0.692   7.043
93209SOL     OW81523   1.493  10.763   8.033
93209SOL    HW181524   1.502  10.848   7.992
93209SOL    HW281525   1.565  10.759   8.097
93210SOL     OW81526   9.196   2.277   8.285
93210SOL    HW181527   9.206   2.225   8.365
93210SOL    HW281528   9.185   2.212   8.216
93211SOL     OW81529   0.458   3.240  13.490
93211SOL    HW181530   0.502   3.258  13.574
93211SOL    HW281531   0.454   3.325  13.447
93212SOL     OW81532   4.524  12.115  11.824
93212SOL    HW181533   4.560  12.039  11.870
93212SOL    HW281534   4.475  12.077  11.750
93213SOL     OW81535   9.628   1.437   2.169
93213SOL    HW181536   9.628   1.357   2.118
93213SOL    HW281537   9.600   1.505   2.107
93214SOL     OW81538  14.311   6.710   7.418
93214SOL    HW181539  14.301   6.615   7.415
93214SOL    HW281540  14.221   6.744   7.420
93215SOL     OW81541   0.106  10.643  11.626
93215SOL    HW181542   0.103  10.714  11.691
93215SOL    HW281543   0.197  10.641  11.597
93216SOL     OW81544  12.600   1.549   6.187
93216SOL    HW181545  12.552   1.623   6.150
93216SOL    HW281546  12.597   1.481   6.120
93217SOL     OW81547   2.622   6.134   9.576
93217SOL    HW181548   2.703   6.112   9.622
93217SOL    HW281549   2.637   6.104   9.486
93218SOL     OW81550   7.644   8.919  12.482
93218SOL    HW181551   7.676   9.009  12.485
93218SOL    HW281552   7.667   8.889  12.394
93219SOL     OW81553   8.481   6.661   3.911
93219SOL    HW181554   8.445   6.723   3.974
93219SOL    HW281555   8.432   6.580   3.926
93220SOL     OW81556  14.161  12.226  13.664
93220SOL    HW181557  14.143  12.234  13.757
93220SOL    HW281558  14.207  12.142  13.655
93221SOL     OW81559   3.749   0.319  11.897
93221SOL    HW181560   3.814   0.267  11.849
93221SOL    HW281561   3.758   0.408  11.862
93222SOL     OW81562   4.394  11.342   4.222
93222SOL    HW181563   4.309  11.299   4.213
93222SOL    HW281564   4.455  11.285   4.173
93223SOL     OW81565   2.675   4.678  11.913
93223SOL    HW181566   2.721   4.752  11.873
93223SOL    HW281567   2.692   4.688  12.007
93224SOL     OW81568   6.191   1.541   9.872
93224SOL    HW181569   6.178   1.485   9.796
93224SOL    HW281570   6.106   1.544   9.915
93225SOL     OW81571   1.978  12.613   6.293
93225SOL    HW181572   1.925  12.682   6.253
93225SOL    HW281573   2.014  12.653   6.372
93226SOL     OW81574   9.140   8.763   5.385
93226SOL    HW181575   9.078   8.745   5.314
93226SOL    HW281576   9.113   8.848   5.420
93227SOL     OW81577  14.495   6.830   1.622
93227SOL    HW181578  14.437   6.762   1.588
93227SOL    HW281579  14.439   6.906   1.636
93228SOL     OW81580  12.033   9.623   2.039
93228SOL    HW181581  12.085   9.666   2.106
93228SOL    HW281582  12.072   9.650   1.956
93229SOL     OW81583   4.491   1.744   9.194
93229SOL    HW181584   4.486   1.830   9.236
93229SOL    HW281585   4.561   1.753   9.129
93230SOL     OW81586  14.220  10.497   7.274
93230SOL    HW181587  14.245  10.576   7.322
93230SOL    HW281588  14.301  10.467   7.233
93231SOL     OW81589   7.257  11.722   5.090
93231SOL    HW181590   7.267  11.817   5.083
93231SOL    HW281591   7.343  11.691   5.117
93232SOL     OW81592   6.430   8.111   0.202
93232SOL    HW181593   6.480   8.031   0.184
93232SOL    HW281594   6.487   8.163   0.259
93233SOL     OW81595  10.757   4.201   3.284
93233SOL    HW181596  10.808   4.123   3.263
93233SOL    HW281597  10.673   4.167   3.313
93234SOL     OW81598   5.605   2.840  11.262
93234SOL    HW181599   5.662   2.784  11.315
93234SOL    HW281600   5.526   2.850  11.314
93235SOL     OW81601   7.202  10.142  14.797
93235SOL    HW181602   7.297  10.158  14.800
93235SOL    HW281603   7.173  10.151   0.016
93236SOL     OW81604  11.390   3.784   3.325
93236SOL    HW181605  11.411   3.728   3.250
93236SOL    HW281606  11.416   3.732   3.401
93237SOL     OW81607   1.441   0.222   9.065
93237SOL    HW181608   1.464   0.307   9.028
93237SOL    HW281609   1.358   0.237   9.110
93238SOL     OW81610   1.838  14.800   4.691
93238SOL    HW181611   1.866  14.712   4.713
93238SOL    HW281612   1.882  14.819   4.608
93239SOL     OW81613   8.267   1.805   2.111
93239SOL    HW181614   8.310   1.759   2.183
93239SOL    HW281615   8.334   1.863   2.075
93240SOL     OW81616   3.803   2.348  11.220
93240SOL    HW181617   3.822   2.361  11.313
93240SOL    HW281618   3.761   2.262  11.216
93241SOL     OW81619  11.039  10.478   1.090
93241SOL    HW181620  11.101  10.476   1.017
93241SOL    HW281621  11.066  10.554   1.142
93242SOL     OW81622   0.529   5.749  13.310
93242SOL    HW181623   0.477   5.812  13.259
93242SOL    HW281624   0.482   5.666  13.300
93243SOL     OW81625   4.309   7.583   7.580
93243SOL    HW181626   4.368   7.511   7.605
93243SOL    HW281627   4.300   7.575   7.485
93244SOL     OW81628  12.747   7.459   3.020
93244SOL    HW181629  12.738   7.435   3.112
93244SOL    HW281630  12.837   7.492   3.013
93245SOL     OW81631   4.778  10.146   3.575
93245SOL    HW181632   4.765  10.240   3.585
93245SOL    HW281633   4.840  10.138   3.503
93246SOL     OW81634  13.940  13.416   6.519
93246SOL    HW181635  14.013  13.455   6.473
93246SOL    HW281636  13.896  13.361   6.453
93247SOL     OW81637   0.027  10.651   4.163
93247SOL    HW181638  14.804  10.636   4.167
93247SOL    HW281639   0.061  10.604   4.238
93248SOL     OW81640   6.593  10.954  12.820
93248SOL    HW181641   6.627  11.006  12.747
93248SOL    HW281642   6.665  10.950  12.883
93249SOL     OW81643  10.311   7.027   0.548
93249SOL    HW181644  10.230   6.978   0.560
93249SOL    HW281645  10.301   7.104   0.605
93250SOL     OW81646  14.237   6.130   9.624
93250SOL    HW181647  14.237   6.106   9.531
93250SOL    HW281648  14.302   6.200   9.631
93251SOL     OW81649   7.040   4.445  11.104
93251SOL    HW181650   7.076   4.412  11.187
93251SOL    HW281651   6.964   4.389  11.087
93252SOL     OW81652  12.121   6.582   0.914
93252SOL    HW181653  12.206   6.625   0.906
93252SOL    HW281654  12.093   6.600   1.004
93253SOL     OW81655   8.148   3.381   6.169
93253SOL    HW181656   8.124   3.352   6.258
93253SOL    HW281657   8.162   3.299   6.121
93254SOL     OW81658   6.454  11.043  10.979
93254SOL    HW181659   6.452  11.134  11.008
93254SOL    HW281660   6.533  11.035  10.926
93255SOL     OW81661   9.616   1.507  11.296
93255SOL    HW181662   9.570   1.485  11.377
93255SOL    HW281663   9.705   1.474  11.310
93256SOL     OW81664   1.064   5.439  14.058
93256SOL    HW181665   1.053   5.530  14.031
93256SOL    HW281666   0.976   5.402  14.054
93257SOL     OW81667   2.621  10.610   6.078
93257SOL    HW181668   2.627  10.688   6.023
93257SOL    HW281669   2.636  10.642   6.167
93258SOL     OW81670   3.685   9.416   0.681
93258SOL    HW181671   3.609   9.441   0.734
93258SOL    HW281672   3.746   9.489   0.691
93259SOL     OW81673  10.004  11.899  10.355
93259SOL    HW181674   9.981  11.806  10.353
93259SOL    HW281675  10.063  11.907  10.430
93260SOL     OW81676   7.702  10.348   4.854
93260SOL    HW181677   7.787  10.322   4.889
93260SOL    HW281678   7.696  10.442   4.874
93261SOL     OW81679   0.791   5.451  11.992
93261SOL    HW181680   0.858   5.519  11.989
93261SOL    HW281681   0.821   5.386  11.929
93262SOL     OW81682   4.524   0.446   9.928
93262SOL    HW181683   4.523   0.372   9.868
93262SOL    HW281684   4.447   0.432   9.984
93263SOL     OW81685   0.509  13.760  11.464
93263SOL    HW181686   0.559  13.708  11.401
93263SOL    HW281687   0.525  13.717  11.548
93264SOL     OW81688   8.977  12.115   0.650
93264SOL    HW181689   8.957  12.201   0.689
93264SOL    HW281690   8.965  12.129   0.556
93265SOL     OW81691  10.222  10.217   9.722
93265SOL    HW181692  10.272  10.197   9.643
93265SOL    HW281693  10.190  10.132   9.752
93266SOL     OW81694   9.434   6.268   3.823
93266SOL    HW181695   9.357   6.324   3.819
93266SOL    HW281696   9.493   6.304   3.757
93267SOL     OW81697  12.417  14.715   0.859
93267SOL    HW181698  12.370  14.640   0.896
93267SOL    HW281699  12.502  14.715   0.905
93268SOL     OW81700   1.073  11.599   3.270
93268SOL    HW181701   1.146  11.561   3.318
93268SOL    HW281702   1.005  11.612   3.336
93269SOL     OW81703  14.300   0.611  11.124
93269SOL    HW181704  14.365   0.666  11.169
93269SOL    HW281705  14.291   0.651  11.037
93270SOL     OW81706  10.647  12.632  13.830
93270SOL    HW181707  10.733  12.592  13.819
93270SOL    HW281708  10.601  12.573  13.890
93271SOL     OW81709   4.613   0.004   9.133
93271SOL    HW181710   4.584  14.857   9.222
93271SOL    HW281711   4.611  14.790   9.089
93272SOL     OW81712  11.287   4.362  10.499
93272SOL    HW181713  11.295   4.456  10.483
93272SOL    HW281714  11.377   4.329  10.493
93273SOL     OW81715   8.483   8.295  12.929
93273SOL    HW181716   8.392   8.266  12.930
93273SOL    HW281717   8.531   8.227  12.976
93274SOL     OW81718   1.629   3.278   7.690
93274SOL    HW181719   1.548   3.244   7.651
93274SOL    HW281720   1.606   3.298   7.780
93275SOL     OW81721   8.278   6.578   6.215
93275SOL    HW181722   8.239   6.651   6.262
93275SOL    HW281723   8.231   6.575   6.131
93276SOL     OW81724   8.398   1.413   7.830
93276SOL    HW181725   8.355   1.343   7.878
93276SOL    HW281726   8.411   1.482   7.894
93277SOL     OW81727   9.816   6.224   2.588
93277SOL    HW181728   9.766   6.179   2.520
93277SOL    HW281729   9.779   6.312   2.591
93278SOL     OW81730   3.287   4.916   6.642
93278SOL    HW181731   3.337   4.835   6.631
93278SOL    HW281732   3.242   4.905   6.725
93279SOL     OW81733  13.034   0.861  14.745
93279SOL    HW181734  13.032   0.795  14.676
93279SOL    HW281735  13.009   0.813  14.824
93280SOL     OW81736  11.734   6.287   3.325
93280SOL    HW181737  11.784   6.211   3.354
93280SOL    HW281738  11.717   6.270   3.232
93281SOL     OW81739  13.281  14.786   7.665
93281SOL    HW181740  13.277  14.691   7.670
93281SOL    HW281741  13.358  14.809   7.718
93282SOL     OW81742  11.628   1.546  12.343
93282SOL    HW181743  11.668   1.522  12.427
93282SOL    HW281744  11.550   1.596  12.367
93283SOL     OW81745   2.745  11.162   5.733
93283SOL    HW181746   2.729  11.090   5.672
93283SOL    HW281747   2.766  11.237   5.677
93284SOL     OW81748   1.051   8.119  12.857
93284SOL    HW181749   1.081   8.209  12.845
93284SOL    HW281750   0.956   8.123  12.845
93285SOL     OW81751   8.353   7.256   8.317
93285SOL    HW181752   8.419   7.246   8.247
93285SOL    HW281753   8.296   7.180   8.307
93286SOL     OW81754   3.266   6.576   0.702
93286SOL    HW181755   3.295   6.584   0.793
93286SOL    HW281756   3.194   6.513   0.705
93287SOL     OW81757  13.716  10.648   5.815
93287SOL    HW181758  13.793  10.679   5.863
93287SOL    HW281759  13.681  10.727   5.773
93288SOL     OW81760   4.564  12.538   4.840
93288SOL    HW181761   4.536  12.529   4.931
93288SOL    HW281762   4.497  12.491   4.790
93289SOL     OW81763  12.247   2.526   9.921
93289SOL    HW181764  12.321   2.585   9.934
93289SOL    HW281765  12.227   2.492  10.008
93290SOL     OW81766   8.758   4.862   6.414
93290SOL    HW181767   8.817   4.839   6.486
93290SOL    HW281768   8.779   4.799   6.345
93291SOL     OW81769   9.735  10.058  12.935
93291SOL    HW181770   9.822  10.032  12.962
93291SOL    HW281771   9.685  10.064  13.016
93292SOL     OW81772   3.846   1.231  13.825
93292SOL    HW181773   3.750   1.230  13.821
93292SOL    HW281774   3.869   1.322  13.803
93293SOL     OW81775   5.078   8.508   6.121
93293SOL    HW181776   5.053   8.600   6.112
93293SOL    HW281777   5.044   8.466   6.043
93294SOL     OW81778  10.270   2.967  11.932
93294SOL    HW181779  10.276   2.881  11.975
93294SOL    HW281780  10.295   3.030  12.000
93295SOL     OW81781   3.713   7.336   4.432
93295SOL    HW181782   3.804   7.313   4.416
93295SOL    HW281783   3.696   7.308   4.522
93296SOL     OW81784  14.786   1.495  12.081
93296SOL    HW181785  14.749   1.409  12.065
93296SOL    HW281786  14.718   1.542  12.128
93297SOL     OW81787   9.243  13.687   6.762
93297SOL    HW181788   9.283  13.696   6.676
93297SOL    HW281789   9.192  13.606   6.756
93298SOL     OW81790   0.540   7.323  12.701
93298SOL    HW181791   0.494   7.347  12.782
93298SOL    HW281792   0.605   7.392  12.689
93299SOL     OW81793  10.266   6.306   8.112
93299SOL    HW181794  10.228   6.266   8.191
93299SOL    HW281795  10.248   6.399   8.121
93300SOL     OW81796  14.109   4.363   9.921
93300SOL    HW181797  14.055   4.285   9.907
93300SOL    HW281798  14.195   4.339   9.887
93301SOL     OW81799   4.337   0.722   9.732
93301SOL    HW181800   4.359   0.653   9.670
93301SOL    HW281801   4.400   0.710   9.804
93302SOL     OW81802   9.833   4.314   6.415
93302SOL    HW181803   9.853   4.308   6.509
93302SOL    HW281804   9.792   4.229   6.394
93303SOL     OW81805   2.925   9.843   0.848
93303SOL    HW181806   2.862   9.886   0.907
93303SOL    HW281807   2.883   9.761   0.824
93304SOL     OW81808   9.364  11.488  10.028
93304SOL    HW181809   9.450  11.503   9.988
93304SOL    HW281810   9.366  11.540  10.108
93305SOL     OW81811  11.721   8.720   0.379
93305SOL    HW181812  11.658   8.779   0.339
93305SOL    HW281813  11.697   8.719   0.472
93306SOL     OW81814   7.567   3.396   5.526
93306SOL    HW181815   7.540   3.432   5.611
93306SOL    HW281816   7.661   3.413   5.522
93307SOL     OW81817  10.470   7.117   4.325
93307SOL    HW181818  10.450   7.024   4.329
93307SOL    HW281819  10.553   7.126   4.372
93308SOL     OW81820   3.834   6.823  10.439
93308SOL    HW181821   3.751   6.863  10.465
93308SOL    HW281822   3.901   6.880  10.476
93309SOL     OW81823   7.951   8.789   4.392
93309SOL    HW181824   7.961   8.818   4.482
93309SOL    HW281825   8.037   8.804   4.351
93310SOL     OW81826   7.770  11.818  13.649
93310SOL    HW181827   7.805  11.904  13.624
93310SOL    HW281828   7.759  11.772  13.566
93311SOL     OW81829   7.065   4.044   2.973
93311SOL    HW181830   7.150   4.037   2.929
93311SOL    HW281831   7.022   4.119   2.930
93312SOL     OW81832   6.637  13.219   1.244
93312SOL    HW181833   6.618  13.283   1.175
93312SOL    HW281834   6.553  13.177   1.261
93313SOL     OW81835   8.837   1.881   2.691
93313SOL    HW181836   8.799   1.903   2.605
93313SOL    HW281837   8.865   1.790   2.681
93314SOL     OW81838   3.426   3.789   8.283
93314SOL    HW181839   3.383   3.873   8.266
93314SOL    HW281840   3.516   3.802   8.253
93315SOL     OW81841   9.915   6.820  10.167
93315SOL    HW181842   9.986   6.881  10.184
93315SOL    HW281843   9.956   6.747  10.121
93316SOL     OW81844   1.914   4.392  10.901
93316SOL    HW181845   1.845   4.325  10.904
93316SOL    HW281846   1.873   4.470  10.938
93317SOL     OW81847  12.935  11.557   8.844
93317SOL    HW181848  12.980  11.481   8.881
93317SOL    HW281849  12.930  11.538   8.751
93318SOL     OW81850   1.824   7.895  13.445
93318SOL    HW181851   1.806   7.893  13.539
93318SOL    HW281852   1.738   7.899  13.404
93319SOL     OW81853  13.048   2.867  14.818
93319SOL    HW181854  13.029   2.937  14.756
93319SOL    HW281855  13.069   2.791  14.763
93320SOL     OW81856   6.672   1.933   6.108
93320SOL    HW181857   6.664   1.906   6.200
93320SOL    HW281858   6.659   1.852   6.058
93321SOL     OW81859   0.896  11.696   6.951
93321SOL    HW181860   0.952  11.706   7.028
93321SOL    HW281861   0.855  11.782   6.940
93322SOL     OW81862  12.318  13.521   4.243
93322SOL    HW181863  12.382  13.591   4.228
93322SOL    HW281864  12.370  13.449   4.278
93323SOL     OW81865  11.912   3.764  14.620
93323SOL    HW181866  11.880   3.690  14.568
93323SOL    HW281867  11.982   3.802  14.568
93324SOL     OW81868  12.637   8.055   8.542
93324SOL    HW181869  12.725   8.087   8.521
93324SOL    HW281870  12.602   8.121   8.603
93325SOL     OW81871  10.467   6.401  10.168
93325SOL    HW181872  10.453   6.311  10.142
93325SOL    HW281873  10.453   6.452  10.089
93326SOL     OW81874   3.903   9.366   3.369
93326SOL    HW181875   3.993   9.368   3.338
93326SOL    HW281876   3.871   9.279   3.345
93327SOL     OW81877  12.140   7.894  13.737
93327SOL    HW181878  12.122   7.932  13.651
93327SOL    HW281879  12.103   7.957  13.799
93328SOL     OW81880   1.509   9.697  12.455
93328SOL    HW181881   1.556   9.626  12.411
93328SOL    HW281882   1.501   9.765  12.389
93329SOL     OW81883  10.060  11.487  13.864
93329SOL    HW181884  10.148  11.453  13.852
93329SOL    HW281885  10.071  11.568  13.914
93330SOL     OW81886  10.537  12.033  12.476
93330SOL    HW181887  10.508  12.083  12.400
93330SOL    HW281888  10.477  12.060  12.546
93331SOL     OW81889   4.262   8.145  14.279
93331SOL    HW181890   4.283   8.086  14.351
93331SOL    HW281891   4.344   8.191  14.261
93332SOL     OW81892   5.185   6.658   5.698
93332SOL    HW181893   5.183   6.585   5.636
93332SOL    HW281894   5.274   6.694   5.690
93333SOL     OW81895   4.885   0.593   2.188
93333SOL    HW181896   4.887   0.674   2.238
93333SOL    HW281897   4.977   0.569   2.177
93334SOL     OW81898  10.101   5.903   8.522
93334SOL    HW181899  10.159   5.958   8.575
93334SOL    HW281900  10.047   5.966   8.473
93335SOL     OW81901   7.980  12.246  12.974
93335SOL    HW181902   7.959  12.212  12.888
93335SOL    HW281903   7.933  12.189  13.035
93336SOL     OW81904   3.499  13.530   5.374
93336SOL    HW181905   3.499  13.589   5.300
93336SOL    HW281906   3.528  13.446   5.338
93337SOL     OW81907  11.667   7.844   9.752
93337SOL    HW181908  11.747   7.802   9.786
93337SOL    HW281909  11.699   7.917   9.699
93338SOL     OW81910   5.478   1.587   4.248
93338SOL    HW181911   5.522   1.529   4.310
93338SOL    HW281912   5.410   1.630   4.299
93339SOL     OW81913   5.464   0.729   0.311
93339SOL    HW181914   5.525   0.798   0.340
93339SOL    HW281915   5.380   0.774   0.300
93340SOL     OW81916   8.397  12.532  13.711
93340SOL    HW181917   8.492  12.541  13.724
93340SOL    HW281918   8.365  12.621  13.705
93341SOL     OW81919   5.019   5.312   9.733
93341SOL    HW181920   4.982   5.372   9.667
93341SOL    HW281921   5.050   5.370   9.803
93342SOL     OW81922  14.246   5.267   7.515
93342SOL    HW181923  14.256   5.204   7.586
93342SOL    HW281924  14.335   5.291   7.491
93343SOL     OW81925  11.437   8.917  14.472
93343SOL    HW181926  11.371   8.939  14.406
93343SOL    HW281927  11.521   8.926  14.426
93344SOL     OW81928   5.488   6.168  14.417
93344SOL    HW181929   5.535   6.244  14.452
93344SOL    HW281930   5.510   6.096  14.477
93345SOL     OW81931   9.971   7.420  14.519
93345SOL    HW181932  10.039   7.354  14.533
93345SOL    HW281933   9.946   7.408  14.427
93346SOL     OW81934  12.852  14.128   6.943
93346SOL    HW181935  12.760  14.109   6.925
93346SOL    HW281936  12.858  14.223   6.943
93347SOL     OW81937   2.403  11.189   2.493
93347SOL    HW181938   2.466  11.215   2.425
93347SOL    HW281939   2.367  11.106   2.462
93348SOL     OW81940   2.007   1.568  12.113
93348SOL    HW181941   1.970   1.484  12.089
93348SOL    HW281942   2.004   1.570  12.208
93349SOL     OW81943   0.251   5.350   8.659
93349SOL    HW181944   0.275   5.376   8.748
93349SOL    HW281945   0.192   5.418   8.628
93350SOL     OW81946  11.969  12.071  12.736
93350SOL    HW181947  11.989  12.042  12.647
93350SOL    HW281948  12.026  12.147  12.750
93351SOL     OW81949   4.120   6.149  11.679
93351SOL    HW181950   4.148   6.061  11.704
93351SOL    HW281951   4.170   6.168  11.600
93352SOL     OW81952   0.392   5.783  14.247
93352SOL    HW181953   0.440   5.701  14.259
93352SOL    HW281954   0.303   5.755  14.223
93353SOL     OW81955   1.325   8.828   7.064
93353SOL    HW181956   1.233   8.828   7.035
93353SOL    HW281957   1.333   8.749   7.117
93354SOL     OW81958   6.163   0.409   0.543
93354SOL    HW181959   6.204   0.322   0.543
93354SOL    HW281960   6.070   0.391   0.556
93355SOL     OW81961   6.757   6.617   9.015
93355SOL    HW181962   6.687   6.572   8.969
93355SOL    HW281963   6.797   6.549   9.070
93356SOL     OW81964   5.433   8.022  12.555
93356SOL    HW181965   5.477   8.103  12.530
93356SOL    HW281966   5.445   8.016  12.650
93357SOL     OW81967   9.982  12.025   0.982
93357SOL    HW181968   9.968  11.930   0.983
93357SOL    HW281969   9.936  12.055   0.903
93358SOL     OW81970  10.534   4.834   3.987
93358SOL    HW181971  10.549   4.922   3.953
93358SOL    HW281972  10.481   4.847   4.066
93359SOL     OW81973  13.209   7.750  10.420
93359SOL    HW181974  13.198   7.666  10.465
93359SOL    HW281975  13.296   7.745  10.380
93360SOL     OW81976   5.130   4.093   5.966
93360SOL    HW181977   5.153   4.174   5.922
93360SOL    HW281978   5.036   4.082   5.950
93361SOL     OW81979  11.515   1.141   2.487
93361SOL    HW181980  11.503   1.070   2.549
93361SOL    HW281981  11.565   1.103   2.415
93362SOL     OW81982  14.771   3.542   4.271
93362SOL    HW181983  14.804   3.476   4.210
93362SOL    HW281984  14.838   3.548   4.339
93363SOL     OW81985  10.790   2.184   4.204
93363SOL    HW181986  10.727   2.156   4.270
93363SOL    HW281987  10.770   2.132   4.127
93364SOL     OW81988   5.006   2.014  10.592
93364SOL    HW181989   4.982   2.008  10.684
93364SOL    HW281990   5.086   1.963  10.584
93365SOL     OW81991   3.753   1.174   2.595
93365SOL    HW181992   3.778   1.240   2.660
93365SOL    HW281993   3.673   1.134   2.631
93366SOL     OW81994  14.302  14.703   7.267
93366SOL    HW181995  14.363  14.701   7.341
93366SOL    HW281996  14.217  14.722   7.307
93367SOL     OW81997   0.582  14.517   2.915
93367SOL    HW181998   0.533  14.554   2.989
93367SOL    HW281999   0.521  14.521   2.842
93368SOL     OW82000   8.118   6.477   1.779
93368SOL    HW182001   8.213   6.480   1.790
93368SOL    HW282002   8.085   6.458   1.867
93369SOL     OW82003   2.177   4.081  10.342
93369SOL    HW182004   2.221   4.150  10.391
93369SOL    HW282005   2.189   4.002  10.394
93370SOL     OW82006  14.452   3.184   7.000
93370SOL    HW182007  14.442   3.228   7.085
93370SOL    HW282008  14.415   3.097   7.014
93371SOL     OW82009   7.692  11.612   0.919
93371SOL    HW182010   7.683  11.677   0.989
93371SOL    HW282011   7.784  11.586   0.922
93372SOL     OW82012   2.413   3.310   5.181
93372SOL    HW182013   2.478   3.290   5.249
93372SOL    HW282014   2.410   3.231   5.127
93373SOL     OW82015  11.024   5.436   9.738
93373SOL    HW182016  10.954   5.497   9.762
93373SOL    HW282017  11.036   5.381   9.816
93374SOL     OW82018   1.956  12.317  11.983
93374SOL    HW182019   1.925  12.344  12.070
93374SOL    HW282020   1.970  12.223  11.991
93375SOL     OW82021  12.381   1.630  12.774
93375SOL    HW182022  12.389   1.646  12.868
93375SOL    HW282023  12.300   1.674  12.748
93376SOL     OW82024  10.880   0.013   2.877
93376SOL    HW182025  10.947  14.817   2.888
93376SOL    HW282026  10.835   0.015   2.961
93377SOL     OW82027   6.635   0.822   1.492
93377SOL    HW182028   6.655   0.886   1.560
93377SOL    HW282029   6.665   0.863   1.410
93378SOL     OW82030   3.429   2.912   8.258
93378SOL    HW182031   3.500   2.973   8.240
93378SOL    HW282032   3.357   2.967   8.288
93379SOL     OW82033   4.065   3.232   5.872
93379SOL    HW182034   4.143   3.265   5.916
93379SOL    HW282035   4.095   3.151   5.830
93380SOL     OW82036   9.177   2.876   6.421
93380SOL    HW182037   9.099   2.851   6.470
93380SOL    HW282038   9.147   2.942   6.359
93381SOL     OW82039  12.569   7.201   1.344
93381SOL    HW182040  12.483   7.172   1.314
93381SOL    HW282041  12.600   7.129   1.400
93382SOL     OW82042   1.084  14.169   5.750
93382SOL    HW182043   1.076  14.255   5.708
93382SOL    HW282044   0.994  14.138   5.759
93383SOL     OW82045  13.510   1.239  11.526
93383SOL    HW182046  13.539   1.307  11.465
93383SOL    HW282047  13.416   1.256  11.538
93384SOL     OW82048   9.309   7.132   9.277
93384SOL    HW182049   9.353   7.217   9.286
93384SOL    HW282050   9.358   7.086   9.209
93385SOL     OW82051   9.107   4.444   6.463
93385SOL    HW182052   9.161   4.389   6.406
93385SOL    HW282053   9.126   4.413   6.551
93386SOL     OW82054  12.738   1.750  11.142
93386SOL    HW182055  12.673   1.688  11.174
93386SOL    HW282056  12.719   1.831  11.189
93387SOL     OW82057   7.785   5.374   3.758
93387SOL    HW182058   7.806   5.281   3.752
93387SOL    HW282059   7.817   5.400   3.845
93388SOL     OW82060  11.591   8.868   8.915
93388SOL    HW182061  11.572   8.821   8.834
93388SOL    HW282062  11.550   8.815   8.984
93389SOL     OW82063   8.311   9.773   6.799
93389SOL    HW182064   8.327   9.795   6.891
93389SOL    HW282065   8.374   9.826   6.751
93390SOL     OW82066  10.409   7.790  11.610
93390SOL    HW182067  10.380   7.827  11.694
93390SOL    HW282068  10.337   7.808  11.550
93391SOL     OW82069   6.418   3.929   7.726
93391SOL    HW182070   6.483   3.998   7.709
93391SOL    HW282071   6.398   3.894   7.639
93392SOL     OW82072   1.401  14.066  13.920
93392SOL    HW182073   1.374  13.982  13.958
93392SOL    HW282074   1.484  14.086  13.964
93393SOL     OW82075  10.144   0.653   5.034
93393SOL    HW182076  10.083   0.684   4.967
93393SOL    HW282077  10.221   0.624   4.984
93394SOL     OW82078   9.732   1.467   3.396
93394SOL    HW182079   9.689   1.383   3.412
93394SOL    HW282080   9.782   1.484   3.476
93395SOL     OW82081   5.758   8.296  11.264
93395SOL    HW182082   5.715   8.285  11.349
93395SOL    HW282083   5.688   8.287  11.200
93396SOL     OW82084   8.802  11.943  14.848
93396SOL    HW182085   8.867  12.006  14.817
93396SOL    HW282086   8.762  11.986   0.052
93397SOL     OW82087   7.325  13.813   6.659
93397SOL    HW182088   7.284  13.847   6.739
93397SOL    HW282089   7.419  13.823   6.674
93398SOL     OW82090  14.203  10.546  12.064
93398SOL    HW182091  14.215  10.498  11.982
93398SOL    HW282092  14.281  10.525  12.116
93399SOL     OW82093  14.600   1.022   6.221
93399SOL    HW182094  14.645   0.942   6.192
93399SOL    HW282095  14.507   1.003   6.208
93400SOL     OW82096  13.233  10.135   3.381
93400SOL    HW182097  13.268  10.213   3.337
93400SOL    HW282098  13.180  10.092   3.314
93401SOL     OW82099  13.810   5.394   2.585
93401SOL    HW182100  13.840   5.460   2.522
93401SOL    HW282101  13.879   5.391   2.651
93402SOL     OW82102   6.755  12.272  13.563
93402SOL    HW182103   6.786  12.306  13.647
93402SOL    HW282104   6.796  12.187  13.554
93403SOL     OW82105  12.571  12.625   5.823
93403SOL    HW182106  12.558  12.719   5.832
93403SOL    HW282107  12.555  12.589   5.910
93404SOL     OW82108  10.515  12.741   0.245
93404SOL    HW182109  10.517  12.691   0.327
93404SOL    HW282110  10.445  12.700   0.194
93405SOL     OW82111   7.198   8.053  12.963
93405SOL    HW182112   7.285   8.086  12.986
93405SOL    HW282113   7.196   8.054  12.868
93406SOL     OW82114   9.979  12.514   5.051
93406SOL    HW182115   9.911  12.480   5.110
93406SOL    HW282116   9.953  12.484   4.964
93407SOL     OW82117   9.031   2.185  14.315
93407SOL    HW182118   8.981   2.265  14.331
93407SOL    HW282119   9.008   2.160  14.225
93408SOL     OW82120  11.823   9.185  14.196
93408SOL    HW182121  11.848   9.103  14.154
93408SOL    HW282122  11.887   9.248  14.166
93409SOL     OW82123   5.395  10.820   5.057
93409SOL    HW182124   5.458  10.869   5.109
93409SOL    HW282125   5.445  10.786   4.984
93410SOL     OW82126   4.245   1.289   2.481
93410SOL    HW182127   4.332   1.254   2.498
93410SOL    HW282128   4.200   1.284   2.565
93411SOL     OW82129   7.245  14.471  11.976
93411SOL    HW182130   7.289  14.415  12.041
93411SOL    HW282131   7.317  14.506  11.923
93412SOL     OW82132   8.674   0.880   1.247
93412SOL    HW182133   8.593   0.929   1.260
93412SOL    HW282134   8.651   0.790   1.270
93413SOL     OW82135   9.226   7.160   1.713
93413SOL    HW182136   9.229   7.065   1.697
93413SOL    HW282137   9.264   7.171   1.800
93414SOL     OW82138  13.478   0.651   0.387
93414SOL    HW182139  13.449   0.563   0.409
93414SOL    HW282140  13.492   0.693   0.472
93415SOL     OW82141  10.437   3.614   8.193
93415SOL    HW182142  10.453   3.527   8.157
93415SOL    HW282143  10.353   3.605   8.238
93416SOL     OW82144   8.310   4.377   0.378
93416SOL    HW182145   8.263   4.444   0.429
93416SOL    HW282146   8.258   4.369   0.298
93417SOL     OW82147  11.545  14.681  14.791
93417SOL    HW182148  11.556  14.648   0.008
93417SOL    HW282149  11.451  14.678  14.775
93418SOL     OW82150   8.078   8.122   6.927
93418SOL    HW182151   8.082   8.213   6.954
93418SOL    HW282152   7.985   8.103   6.917
93419SOL     OW82153   6.994   2.345   0.695
93419SOL    HW182154   7.011   2.258   0.731
93419SOL    HW282155   6.899   2.348   0.684
93420SOL     OW82156  13.139  10.518   2.952
93420SOL    HW182157  13.162  10.428   2.975
93420SOL    HW282158  13.127  10.516   2.857
93421SOL     OW82159   6.853   5.080  14.367
93421SOL    HW182160   6.791   5.113  14.431
93421SOL    HW282161   6.815   4.997  14.337
93422SOL     OW82162   2.108   5.551   4.665
93422SOL    HW182163   2.148   5.468   4.692
93422SOL    HW282164   2.070   5.533   4.579
93423SOL     OW82165   8.524  14.519   1.371
93423SOL    HW182166   8.429  14.518   1.354
93423SOL    HW282167   8.541  14.435   1.413
93424SOL     OW82168   6.961   2.529   2.972
93424SOL    HW182169   7.048   2.517   3.010
93424SOL    HW282170   6.907   2.462   3.014
93425SOL     OW82171  11.250   7.160   6.046
93425SOL    HW182172  11.327   7.118   6.085
93425SOL    HW282173  11.178   7.136   6.104
93426SOL     OW82174   1.121  11.266   7.943
93426SOL    HW182175   1.169  11.186   7.922
93426SOL    HW282176   1.163  11.300   8.022
93427SOL     OW82177   2.657  12.630  10.717
93427SOL    HW182178   2.570  12.626  10.678
93427SOL    HW282179   2.640  12.649  10.810
93428SOL     OW82180   2.469   1.292  12.124
93428SOL    HW182181   2.449   1.271  12.215
93428SOL    HW282182   2.400   1.352  12.097
93429SOL     OW82183  10.215   3.195   6.825
93429SOL    HW182184  10.227   3.173   6.917
93429SOL    HW282185  10.165   3.121   6.789
93430SOL     OW82186   7.701   1.817   0.891
93430SOL    HW182187   7.688   1.897   0.942
93430SOL    HW282188   7.752   1.845   0.814
93431SOL     OW82189   1.582  11.072  10.433
93431SOL    HW182190   1.677  11.062  10.439
93431SOL    HW282191   1.548  11.035  10.514
93432SOL     OW82192  11.757   6.413  13.055
93432SOL    HW182193  11.670   6.389  13.086
93432SOL    HW282194  11.745   6.499  13.014
93433SOL     OW82195   4.602   6.005   8.817
93433SOL    HW182196   4.642   6.076   8.767
93433SOL    HW282197   4.518   6.040   8.845
93434SOL     OW82198  11.880   0.226   2.350
93434SOL    HW182199  11.955   0.284   2.335
93434SOL    HW282200  11.904   0.144   2.308
93435SOL     OW82201  10.607   7.131   1.534
93435SOL    HW182202  10.679   7.094   1.586
93435SOL    HW282203  10.570   7.199   1.590
93436SOL     OW82204  13.263  10.258   1.959
93436SOL    HW182205  13.284  10.244   1.867
93436SOL    HW282206  13.342  10.230   2.006
93437SOL     OW82207   2.573   8.322  12.226
93437SOL    HW182208   2.591   8.357  12.313
93437SOL    HW282209   2.655   8.334  12.178
93438SOL     OW82210   3.572   7.999   0.787
93438SOL    HW182211   3.568   7.999   0.883
93438SOL    HW282212   3.605   7.912   0.764
93439SOL     OW82213   7.324   8.723  10.656
93439SOL    HW182214   7.232   8.716  10.628
93439SOL    HW282215   7.319   8.764  10.742
93440SOL     OW82216  10.123   4.745   7.639
93440SOL    HW182217  10.111   4.654   7.610
93440SOL    HW282218  10.069   4.796   7.580
93441SOL     OW82219   4.532   5.509  10.772
93441SOL    HW182220   4.617   5.471  10.747
93441SOL    HW282221   4.532   5.506  10.868
93442SOL     OW82222  10.475  10.418   8.946
93442SOL    HW182223  10.381  10.403   8.953
93442SOL    HW282224  10.505  10.355   8.880
93443SOL     OW82225  13.657   2.354  13.801
93443SOL    HW182226  13.570   2.340  13.763
93443SOL    HW282227  13.674   2.274  13.851
93444SOL     OW82228   0.499   7.350   6.226
93444SOL    HW182229   0.467   7.439   6.241
93444SOL    HW282230   0.588   7.361   6.193
93445SOL     OW82231   0.971  11.208   1.712
93445SOL    HW182232   0.990  11.115   1.709
93445SOL    HW282233   1.055  11.250   1.690
93446SOL     OW82234  13.324   6.771  12.461
93446SOL    HW182235  13.252   6.830  12.438
93446SOL    HW282236  13.282   6.689  12.484
93447SOL     OW82237   8.453   2.117   1.054
93447SOL    HW182238   8.496   2.112   1.139
93447SOL    HW282239   8.493   2.048   1.002
93448SOL     OW82240  11.806   9.959   8.151
93448SOL    HW182241  11.858   9.882   8.127
93448SOL    HW282242  11.722   9.945   8.108
93449SOL     OW82243   9.903   1.170   2.770
93449SOL    HW182244   9.970   1.105   2.791
93449SOL    HW282245   9.951   1.243   2.730
93450SOL     OW82246   8.714   7.001   0.093
93450SOL    HW182247   8.742   7.068   0.031
93450SOL    HW282248   8.743   7.034   0.178
93451SOL     OW82249  13.838  14.597   3.182
93451SOL    HW182250  13.890  14.570   3.107
93451SOL    HW282251  13.747  14.589   3.153
93452SOL     OW82252   4.351  11.379  14.032
93452SOL    HW182253   4.278  11.441  14.041
93452SOL    HW282254   4.322  11.319  13.963
93453SOL     OW82255   2.807  11.545  14.296
93453SOL    HW182256   2.836  11.456  14.276
93453SOL    HW282257   2.717  11.534  14.326
93454SOL     OW82258   0.592  14.131   6.062
93454SOL    HW182259   0.540  14.203   6.097
93454SOL    HW282260   0.573  14.133   5.968
93455SOL     OW82261  13.254   3.118  14.186
93455SOL    HW182262  13.296   3.114  14.272
93455SOL    HW282263  13.320   3.156  14.128
93456SOL     OW82264   7.638  11.427  13.833
93456SOL    HW182265   7.667  11.464  13.917
93456SOL    HW282266   7.567  11.367  13.857
93457SOL     OW82267   0.870   7.585  11.032
93457SOL    HW182268   0.895   7.676  11.015
93457SOL    HW282269   0.950   7.535  11.019
93458SOL     OW82270  11.890   2.264   2.911
93458SOL    HW182271  11.871   2.324   2.983
93458SOL    HW282272  11.828   2.288   2.842
93459SOL     OW82273  13.405  11.663   0.304
93459SOL    HW182274  13.346  11.598   0.343
93459SOL    HW282275  13.355  11.699   0.231
93460SOL     OW82276   8.599   5.102  12.257
93460SOL    HW182277   8.680   5.077  12.213
93460SOL    HW282278   8.530   5.075  12.197
93461SOL     OW82279   8.632   2.243   5.640
93461SOL    HW182280   8.583   2.300   5.699
93461SOL    HW282281   8.565   2.198   5.589
93462SOL     OW82282  14.562   3.615  13.013
93462SOL    HW182283  14.538   3.577  13.098
93462SOL    HW282284  14.518   3.560  12.948
93463SOL     OW82285   0.202   7.673   8.344
93463SOL    HW182286   0.230   7.588   8.378
93463SOL    HW282287   0.173   7.654   8.254
93464SOL     OW82288  13.209   5.204  13.627
93464SOL    HW182289  13.211   5.185  13.533
93464SOL    HW282290  13.177   5.294  13.632
93465SOL     OW82291  13.786   7.639   9.268
93465SOL    HW182292  13.773   7.635   9.362
93465SOL    HW282293  13.723   7.576   9.233
93466SOL     OW82294   5.471   4.360  13.792
93466SOL    HW182295   5.378   4.375  13.771
93466SOL    HW282296   5.493   4.430  13.852
93467SOL     OW82297   9.125   6.297  10.215
93467SOL    HW182298   9.033   6.319  10.198
93467SOL    HW282299   9.131   6.203  10.197
93468SOL     OW82300   5.114   1.375   5.526
93468SOL    HW182301   5.203   1.365   5.492
93468SOL    HW282302   5.107   1.308   5.594
93469SOL     OW82303  10.565   8.701  10.346
93469SOL    HW182304  10.546   8.667  10.433
93469SOL    HW282305  10.484   8.690  10.298
93470SOL     OW82306   9.157  11.868   0.136
93470SOL    HW182307   9.227  11.807   0.110
93470SOL    HW282308   9.133  11.913   0.056
93471SOL     OW82309   8.230  12.558   4.808
93471SOL    HW182310   8.220  12.645   4.769
93471SOL    HW282311   8.312  12.525   4.771
93472SOL     OW82312   0.587   0.804  10.116
93472SOL    HW182313   0.494   0.794  10.093
93472SOL    HW282314   0.634   0.756  10.049
93473SOL     OW82315  13.878  14.395   2.936
93473SOL    HW182316  13.829  14.316   2.958
93473SOL    HW282317  13.824  14.439   2.869
93474SOL     OW82318   0.650  13.833  13.004
93474SOL    HW182319   0.679  13.851  13.093
93474SOL    HW282320   0.675  13.742  12.988
93475SOL     OW82321   2.363   8.312   1.389
93475SOL    HW182322   2.430   8.345   1.447
93475SOL    HW282323   2.333   8.388   1.340
93476SOL     OW82324   5.071   9.789   2.449
93476SOL    HW182325   5.043   9.880   2.432
93476SOL    HW282326   5.084   9.786   2.543
93477SOL     OW82327  14.345   4.510  12.093
93477SOL    HW182328  14.357   4.424  12.132
93477SOL    HW282329  14.416   4.519  12.030
93478SOL     OW82330   5.638   0.210   5.597
93478SOL    HW182331   5.566   0.159   5.561
93478SOL    HW282332   5.679   0.251   5.522
93479SOL     OW82333   5.729   2.207   3.252
93479SOL    HW182334   5.802   2.161   3.295
93479SOL    HW282335   5.674   2.137   3.218
93480SOL     OW82336   7.585   5.332   2.376
93480SOL    HW182337   7.560   5.424   2.364
93480SOL    HW282338   7.544   5.286   2.303
93481SOL     OW82339   7.935  12.453  12.506
93481SOL    HW182340   7.840  12.448  12.501
93481SOL    HW282341   7.963  12.363  12.527
93482SOL     OW82342   2.157   3.392  13.726
93482SOL    HW182343   2.103   3.336  13.670
93482SOL    HW282344   2.246   3.379  13.695
93483SOL     OW82345   3.868   0.734  14.304
93483SOL    HW182346   3.870   0.774  14.391
93483SOL    HW282347   3.829   0.648  14.318
93484SOL     OW82348  11.218   0.980   8.260
93484SOL    HW182349  11.286   0.943   8.316
93484SOL    HW282350  11.253   0.970   8.171
93485SOL     OW82351  13.346   6.963   6.194
93485SOL    HW182352  13.333   7.044   6.243
93485SOL    HW282353  13.292   6.898   6.238
93486SOL     OW82354   6.426   8.669   0.727
93486SOL    HW182355   6.358   8.727   0.692
93486SOL    HW282356   6.410   8.668   0.822
93487SOL     OW82357   1.720   0.024  10.664
93487SOL    HW182358   1.627   0.001  10.654
93487SOL    HW282359   1.749   0.046  10.575
93488SOL     OW82360  13.987   1.439   7.667
93488SOL    HW182361  13.938   1.364   7.700
93488SOL    HW282362  14.077   1.407   7.659
93489SOL     OW82363   3.450   0.233   1.077
93489SOL    HW182364   3.434   0.250   0.984
93489SOL    HW282365   3.412   0.146   1.092
93490SOL     OW82366   3.393   6.080   3.071
93490SOL    HW182367   3.351   6.166   3.079
93490SOL    HW282368   3.404   6.066   2.977
93491SOL     OW82369   9.254   0.167  11.291
93491SOL    HW182370   9.303   0.101  11.241
93491SOL    HW282371   9.255   0.135  11.381
93492SOL     OW82372  14.548   7.985  11.753
93492SOL    HW182373  14.582   7.924  11.819
93492SOL    HW282374  14.616   8.051  11.744
93493SOL     OW82375   4.397   6.899   5.826
93493SOL    HW182376   4.350   6.853   5.896
93493SOL    HW282377   4.480   6.925   5.866
93494SOL     OW82378   6.906  10.675   0.975
93494SOL    HW182379   6.890  10.583   0.954
93494SOL    HW282380   6.931  10.675   1.067
93495SOL     OW82381  11.082   3.203   8.124
93495SOL    HW182382  11.111   3.294   8.129
93495SOL    HW282383  11.045   3.194   8.036
93496SOL     OW82384   1.251   6.038   2.990
93496SOL    HW182385   1.345   6.022   2.994
93496SOL    HW282386   1.216   5.964   2.941
93497SOL     OW82387  12.508  12.285   2.186
93497SOL    HW182388  12.421  12.305   2.151
93497SOL    HW282389  12.514  12.190   2.181
93498SOL     OW82390  13.329  12.104   0.772
93498SOL    HW182391  13.365  12.021   0.804
93498SOL    HW282392  13.262  12.078   0.709
93499SOL     OW82393   2.231  10.529   3.819
93499SOL    HW182394   2.287  10.567   3.751
93499SOL    HW282395   2.243  10.586   3.895
93500SOL     OW82396  10.273  10.046   2.357
93500SOL    HW182397  10.263  10.032   2.263
93500SOL    HW282398  10.239  10.134   2.373
93501SOL     OW82399   2.465   0.160  13.148
93501SOL    HW182400   2.471   0.182  13.055
93501SOL    HW282401   2.462   0.064  13.149
93502SOL     OW82402   2.533  11.961   3.992
93502SOL    HW182403   2.553  11.903   4.066
93502SOL    HW282404   2.531  11.902   3.916
93503SOL     OW82405   0.477   3.954  10.548
93503SOL    HW182406   0.489   4.000  10.631
93503SOL    HW282407   0.430   4.016  10.493
93504SOL     OW82408   4.187   9.195   1.508
93504SOL    HW182409   4.244   9.264   1.473
93504SOL    HW282410   4.239   9.151   1.574
93505SOL     OW82411   2.682   2.525  10.486
93505SOL    HW182412   2.654   2.455  10.545
93505SOL    HW282413   2.770   2.547  10.516
93506SOL     OW82414   7.989   4.941  12.399
93506SOL    HW182415   7.948   4.872  12.346
93506SOL    HW282416   8.077   4.909  12.416
93507SOL     OW82417   2.299   5.456   4.996
93507SOL    HW182418   2.373   5.456   5.056
93507SOL    HW282419   2.240   5.523   5.030
93508SOL     OW82420   1.697   8.913   7.668
93508SOL    HW182421   1.668   8.944   7.754
93508SOL    HW282422   1.736   8.990   7.627
93509SOL     OW82423  14.383   3.026  14.799
93509SOL    HW182424  14.349   3.097  14.743
93509SOL    HW282425  14.313   2.960  14.798
93510SOL     OW82426  10.983   8.091   1.258
93510SOL    HW182427  10.909   8.151   1.246
93510SOL    HW282428  11.017   8.077   1.170
93511SOL     OW82429   1.362  12.037   9.443
93511SOL    HW182430   1.349  12.033   9.538
93511SOL    HW282431   1.348  12.129   9.420
93512SOL     OW82432  11.078  10.157   9.709
93512SOL    HW182433  11.053  10.065   9.718
93512SOL    HW282434  11.010  10.196   9.654
93513SOL     OW82435   8.941   7.790   3.621
93513SOL    HW182436   8.997   7.817   3.548
93513SOL    HW282437   8.891   7.716   3.585
93514SOL     OW82438   0.210   2.393   5.077
93514SOL    HW182439   0.254   2.392   4.992
93514SOL    HW282440   0.152   2.469   5.072
93515SOL     OW82441  12.467   2.913   6.062
93515SOL    HW182442  12.534   2.959   6.013
93515SOL    HW282443  12.512   2.883   6.142
93516SOL     OW82444   7.147  10.400   4.170
93516SOL    HW182445   7.166  10.427   4.260
93516SOL    HW282446   7.051  10.404   4.164
93517SOL     OW82447  10.549   4.800  13.835
93517SOL    HW182448  10.623   4.853  13.806
93517SOL    HW282449  10.472   4.852  13.812
93518SOL     OW82450   6.739   7.215  12.038
93518SOL    HW182451   6.708   7.288  11.985
93518SOL    HW282452   6.660   7.171  12.067
93519SOL     OW82453  13.668   1.252  12.079
93519SOL    HW182454  13.751   1.225  12.040
93519SOL    HW282455  13.602   1.227  12.015
93520SOL     OW82456  10.352   1.347   3.797
93520SOL    HW182457  10.335   1.410   3.727
93520SOL    HW282458  10.269   1.341   3.844
93521SOL     OW82459   5.607   3.725  10.626
93521SOL    HW182460   5.539   3.790  10.609
93521SOL    HW282461   5.686   3.776  10.645
93522SOL     OW82462  11.494  14.172  14.139
93522SOL    HW182463  11.577  14.151  14.096
93522SOL    HW282464  11.514  14.168  14.232
93523SOL     OW82465   8.513  12.838   8.659
93523SOL    HW182466   8.559  12.918   8.634
93523SOL    HW282467   8.578  12.768   8.645
93524SOL     OW82468   9.441   6.059   7.080
93524SOL    HW182469   9.441   6.086   6.988
93524SOL    HW282470   9.531   6.030   7.097
93525SOL     OW82471  12.971   9.785  14.507
93525SOL    HW182472  12.937   9.867  14.542
93525SOL    HW282473  12.925   9.717  14.557
93526SOL     OW82474   0.558   4.152  13.021
93526SOL    HW182475   0.641   4.130  13.064
93526SOL    HW282476   0.499   4.080  13.045
93527SOL     OW82477  13.609   9.418   0.330
93527SOL    HW182478  13.617   9.512   0.310
93527SOL    HW282479  13.517   9.406   0.353
93528SOL     OW82480   1.064   8.871   2.006
93528SOL    HW182481   0.999   8.802   2.018
93528SOL    HW282482   1.020   8.937   1.952
93529SOL     OW82483   9.320  12.230   2.431
93529SOL    HW182484   9.276  12.159   2.478
93529SOL    HW282485   9.254  12.264   2.370
93530SOL     OW82486   3.475  14.036   9.758
93530SOL    HW182487   3.434  14.064   9.676
93530SOL    HW282488   3.416  13.969   9.792
93531SOL     OW82489   9.331  13.592   0.995
93531SOL    HW182490   9.354  13.581   0.902
93531SOL    HW282491   9.405  13.640   1.032
93532SOL     OW82492   0.129   9.723  14.386
93532SOL    HW182493   0.173   9.692  14.465
93532SOL    HW282494   0.152   9.815  14.381
93533SOL     OW82495   7.952   5.002   7.514
93533SOL    HW182496   7.858   4.988   7.518
93533SOL    HW282497   7.971   5.058   7.589
93534SOL     OW82498   0.719   8.351  11.916
93534SOL    HW182499   0.663   8.293  11.967
93534SOL    HW282500   0.787   8.381  11.977
93535SOL     OW82501   4.630   8.459  13.479
93535SOL    HW182502   4.655   8.426  13.565
93535SOL    HW282503   4.596   8.382  13.432
93536SOL     OW82504  11.903  12.200   5.147
93536SOL    HW182505  11.853  12.217   5.068
93536SOL    HW282506  11.916  12.106   5.148
93537SOL     OW82507  12.336  11.292  12.784
93537SOL    HW182508  12.385  11.249  12.713
93537SOL    HW282509  12.244  11.276  12.762
93538SOL     OW82510   1.902  11.225   7.061
93538SOL    HW182511   1.949  11.240   7.143
93538SOL    HW282512   1.871  11.134   7.067
93539SOL     OW82513   8.222   2.596   4.006
93539SOL    HW182514   8.206   2.628   4.095
93539SOL    HW282515   8.225   2.675   3.952
93540SOL     OW82516   9.368   8.485  12.817
93540SOL    HW182517   9.292   8.515  12.867
93540SOL    HW282518   9.384   8.396  12.847
93541SOL     OW82519   1.531   1.843  14.412
93541SOL    HW182520   1.449   1.883  14.384
93541SOL    HW282521   1.598   1.892  14.364
93542SOL     OW82522  12.153   3.409   1.523
93542SOL    HW182523  12.073   3.396   1.573
93542SOL    HW282524  12.179   3.321   1.496
93543SOL     OW82525  13.894   5.124  14.501
93543SOL    HW182526  13.811   5.076  14.506
93543SOL    HW282527  13.870   5.214  14.524
93544SOL     OW82528  11.747   1.590   8.509
93544SOL    HW182529  11.744   1.556   8.598
93544SOL    HW282530  11.840   1.596   8.488
93545SOL     OW82531   1.045  10.406   7.549
93545SOL    HW182532   1.034  10.384   7.641
93545SOL    HW282533   0.971  10.365   7.505
93546SOL     OW82534   9.881   0.940   6.771
93546SOL    HW182535   9.967   0.934   6.811
93546SOL    HW282536   9.872   0.858   6.722
93547SOL     OW82537   2.701   6.784   9.234
93547SOL    HW182538   2.784   6.737   9.236
93547SOL    HW282539   2.650   6.740   9.166
93548SOL     OW82540   1.820   9.788   0.740
93548SOL    HW182541   1.757   9.790   0.813
93548SOL    HW282542   1.858   9.700   0.745
93549SOL     OW82543  14.731  10.759  10.390
93549SOL    HW182544  14.732  10.832  10.452
93549SOL    HW282545  14.802  10.702  10.419
93550SOL     OW82546  10.523  10.733   8.968
93550SOL    HW182547  10.464  10.764   9.037
93550SOL    HW282548  10.514  10.638   8.969
93551SOL     OW82549   7.198   5.373   0.919
93551SOL    HW182550   7.187   5.407   0.830
93551SOL    HW282551   7.143   5.294   0.921
93552SOL     OW82552  10.099  10.808   1.464
93552SOL    HW182553  10.053  10.777   1.542
93552SOL    HW282554  10.037  10.794   1.392
93553SOL     OW82555   9.551  11.835   2.167
93553SOL    HW182556   9.635  11.871   2.197
93553SOL    HW282557   9.512  11.797   2.246
93554SOL     OW82558   9.226  12.189   0.741
93554SOL    HW182559   9.137  12.170   0.711
93554SOL    HW282560   9.278  12.196   0.660
93555SOL     OW82561   6.441  13.400   0.441
93555SOL    HW182562   6.513  13.452   0.478
93555SOL    HW282563   6.420  13.336   0.509
93556SOL     OW82564   1.667  12.894   7.742
93556SOL    HW182565   1.633  12.982   7.726
93556SOL    HW282566   1.589  12.839   7.746
93557SOL     OW82567   1.749  14.451   4.551
93557SOL    HW182568   1.768  14.524   4.610
93557SOL    HW282569   1.702  14.388   4.605
93558SOL     OW82570  13.675   7.987   2.815
93558SOL    HW182571  13.657   8.067   2.865
93558SOL    HW282572  13.697   7.922   2.882
93559SOL     OW82573   9.647   7.844   5.397
93559SOL    HW182574   9.707   7.813   5.329
93559SOL    HW282575   9.568   7.792   5.384
93560SOL     OW82576   1.311   9.476   2.552
93560SOL    HW182577   1.352   9.397   2.518
93560SOL    HW282578   1.255   9.506   2.480
93561SOL     OW82579  11.530   2.764   2.928
93561SOL    HW182580  11.543   2.853   2.963
93561SOL    HW282581  11.438   2.760   2.904
93562SOL     OW82582   6.967   3.013  11.054
93562SOL    HW182583   6.973   2.919  11.036
93562SOL    HW282584   6.940   3.018  11.145
93563SOL     OW82585  13.196   2.084   4.745
93563SOL    HW182586  13.200   1.995   4.711
93563SOL    HW282587  13.237   2.078   4.832
93564SOL     OW82588   2.726  14.189  13.759
93564SOL    HW182589   2.710  14.176  13.853
93564SOL    HW282590   2.787  14.119  13.736
93565SOL     OW82591   9.522   0.720   7.784
93565SOL    HW182592   9.430   0.726   7.758
93565SOL    HW282593   9.522   0.747   7.876
93566SOL     OW82594  12.698   4.832  12.382
93566SOL    HW182595  12.637   4.777  12.333
93566SOL    HW282596  12.785   4.797  12.360
93567SOL     OW82597  13.076   8.258  10.454
93567SOL    HW182598  13.022   8.334  10.430
93567SOL    HW282599  13.165   8.284  10.432
93568SOL     OW82600  10.352   7.936  12.359
93568SOL    HW182601  10.264   7.918  12.323
93568SOL    HW282602  10.354   7.887  12.441
93569SOL     OW82603   1.247   1.264   0.322
93569SOL    HW182604   1.284   1.293   0.239
93569SOL    HW282605   1.191   1.190   0.300
93570SOL     OW82606   5.933   0.034  13.368
93570SOL    HW182607   5.979  14.822  13.364
93570SOL    HW282608   5.842   0.013  13.345
93571SOL     OW82609  10.786   0.135   8.768
93571SOL    HW182610  10.809   0.069   8.834
93571SOL    HW282611  10.737   0.201   8.817
93572SOL     OW82612   6.857  13.399  13.533
93572SOL    HW182613   6.792  13.444  13.588
93572SOL    HW282614   6.868  13.313  13.575
93573SOL     OW82615  10.315   8.629   8.758
93573SOL    HW182616  10.262   8.683   8.817
93573SOL    HW282617  10.251   8.572   8.714
93574SOL     OW82618  14.008   3.194   1.909
93574SOL    HW182619  13.982   3.148   1.829
93574SOL    HW282620  14.091   3.236   1.887
93575SOL     OW82621   7.595   7.939   6.869
93575SOL    HW182622   7.514   7.988   6.883
93575SOL    HW282623   7.587   7.863   6.927
93576SOL     OW82624   7.658  12.064  10.776
93576SOL    HW182625   7.731  12.125  10.778
93576SOL    HW282626   7.609  12.087  10.697
93577SOL     OW82627   7.606   0.753  14.605
93577SOL    HW182628   7.618   0.839  14.646
93577SOL    HW282629   7.518   0.756  14.568
93578SOL     OW82630   9.120   7.067   5.554
93578SOL    HW182631   9.177   7.143   5.561
93578SOL    HW282632   9.056   7.078   5.625
93579SOL     OW82633  12.384   5.740   0.898
93579SOL    HW182634  12.399   5.764   0.989
93579SOL    HW282635  12.307   5.684   0.900
93580SOL     OW82636   9.749   5.218   2.019
93580SOL    HW182637   9.662   5.193   2.050
93580SOL    HW282638   9.806   5.205   2.096
93581SOL     OW82639  11.814   0.840   0.661
93581SOL    HW182640  11.901   0.815   0.692
93581SOL    HW282641  11.763   0.760   0.664
93582SOL     OW82642   6.242  13.233  12.276
93582SOL    HW182643   6.170  13.283  12.238
93582SOL    HW282644   6.301  13.300  12.311
93583SOL     OW82645  13.638   9.167   3.287
93583SOL    HW182646  13.558   9.135   3.246
93583SOL    HW282647  13.699   9.093   3.282
93584SOL     OW82648  12.922  13.257   7.864
93584SOL    HW182649  12.966  13.319   7.923
93584SOL    HW282650  12.868  13.203   7.922
93585SOL     OW82651  14.412  12.895   3.139
93585SOL    HW182652  14.402  12.864   3.229
93585SOL    HW282653  14.467  12.828   3.097
93586SOL     OW82654   2.265   3.014   2.934
93586SOL    HW182655   2.288   2.962   2.857
93586SOL    HW282656   2.211   3.086   2.899
93587SOL     OW82657  13.286   4.435  14.307
93587SOL    HW182658  13.196   4.405  14.294
93587SOL    HW282659  13.318   4.455  14.219
93588SOL     OW82660   2.017   5.879   9.763
93588SOL    HW182661   1.957   5.831   9.820
93588SOL    HW282662   1.974   5.882   9.678
93589SOL     OW82663  11.030   1.636   8.541
93589SOL    HW182664  11.114   1.683   8.537
93589SOL    HW282665  11.012   1.628   8.635
93590SOL     OW82666   2.187   5.746  10.257
93590SOL    HW182667   2.204   5.837  10.233
93590SOL    HW282668   2.188   5.745  10.352
93591SOL     OW82669   0.244   4.727   2.992
93591SOL    HW182670   0.193   4.777   3.056
93591SOL    HW282671   0.334   4.729   3.026
93592SOL     OW82672  10.223   2.839   8.645
93592SOL    HW182673  10.254   2.813   8.558
93592SOL    HW282674  10.266   2.923   8.663
93593SOL     OW82675  10.157   5.464   2.756
93593SOL    HW182676  10.231   5.460   2.816
93593SOL    HW282677  10.081   5.474   2.812
93594SOL     OW82678  13.043  12.262   1.789
93594SOL    HW182679  12.957  12.266   1.832
93594SOL    HW282680  13.104  12.300   1.852
93595SOL     OW82681   6.083   0.390   5.452
93595SOL    HW182682   6.112   0.412   5.541
93595SOL    HW282683   5.987   0.398   5.456
93596SOL     OW82684   4.925   7.530  11.931
93596SOL    HW182685   4.916   7.565  11.842
93596SOL    HW282686   4.839   7.541  11.970
93597SOL     OW82687   6.206   6.260  10.450
93597SOL    HW182688   6.169   6.200  10.386
93597SOL    HW282689   6.296   6.273  10.421
93598SOL     OW82690  10.130   1.184  14.121
93598SOL    HW182691  10.123   1.246  14.048
93598SOL    HW282692  10.151   1.101  14.079
93599SOL     OW82693  11.633   3.034  14.758
93599SOL    HW182694  11.578   3.080  14.821
93599SOL    HW282695  11.586   3.041  14.675
93600SOL     OW82696  11.737   4.088   1.576
93600SOL    HW182697  11.756   4.130   1.660
93600SOL    HW282698  11.786   4.006   1.579
93601SOL     OW82699   6.291   1.327  13.680
93601SOL    HW182700   6.366   1.346  13.736
93601SOL    HW282701   6.258   1.412  13.653
93602SOL     OW82702   0.300   0.120  13.939
93602SOL    HW182703   0.244   0.183  13.894
93602SOL    HW282704   0.372   0.104  13.877
93603SOL     OW82705   7.364  14.071   0.534
93603SOL    HW182706   7.327  13.996   0.580
93603SOL    HW282707   7.329  14.066   0.446
93604SOL     OW82708   9.190  11.127   2.491
93604SOL    HW182709   9.238  11.109   2.410
93604SOL    HW282710   9.184  11.043   2.535
93605SOL     OW82711   5.535   3.275  14.454
93605SOL    HW182712   5.519   3.352  14.399
93605SOL    HW282713   5.482   3.206  14.414
93606SOL     OW82714  10.592  11.503   7.616
93606SOL    HW182715  10.550  11.560   7.551
93606SOL    HW282716  10.591  11.554   7.697
93607SOL     OW82717  11.691   7.363  13.333
93607SOL    HW182718  11.657   7.434  13.386
93607SOL    HW282719  11.751   7.316  13.391
93608SOL     OW82720   4.709   2.080  11.097
93608SOL    HW182721   4.693   2.143  11.167
93608SOL    HW282722   4.723   2.133  11.019
93609SOL     OW82723  11.070   7.367   1.356
93609SOL    HW182724  11.041   7.386   1.267
93609SOL    HW282725  11.165   7.384   1.354
93610SOL     OW82726  11.320   8.803   1.571
93610SOL    HW182727  11.399   8.823   1.520
93610SOL    HW282728  11.270   8.885   1.571
93611SOL     OW82729   5.101  12.587   7.595
93611SOL    HW182730   5.177  12.532   7.579
93611SOL    HW282731   5.131  12.652   7.659
93612SOL     OW82732  14.646   2.929   8.360
93612SOL    HW182733  14.707   2.930   8.434
93612SOL    HW282734  14.572   2.877   8.391
93613SOL     OW82735  12.721   7.293   7.691
93613SOL    HW182736  12.649   7.331   7.641
93613SOL    HW282737  12.774   7.246   7.625
93614SOL     OW82738   0.839  14.005   5.185
93614SOL    HW182739   0.816  13.914   5.205
93614SOL    HW282740   0.917  14.022   5.238
93615SOL     OW82741   7.225   9.083   3.113
93615SOL    HW182742   7.157   9.122   3.057
93615SOL    HW282743   7.307   9.103   3.068
93616SOL     OW82744  14.449  11.221   3.214
93616SOL    HW182745  14.531  11.243   3.259
93616SOL    HW282746  14.471  11.223   3.121
93617SOL     OW82747   2.672   2.431   0.680
93617SOL    HW182748   2.713   2.380   0.749
93617SOL    HW282749   2.702   2.390   0.598
93618SOL     OW82750  12.408  12.885   7.916
93618SOL    HW182751  12.409  12.796   7.881
93618SOL    HW282752  12.500  12.912   7.916
93619SOL     OW82753  11.207  11.660   4.037
93619SOL    HW182754  11.227  11.665   4.130
93619SOL    HW282755  11.156  11.579   4.028
93620SOL     OW82756  14.726  13.025   3.002
93620SOL    HW182757  14.777  13.102   2.975
93620SOL    HW282758  14.652  13.023   2.942
93621SOL     OW82759  10.121  11.653  12.158
93621SOL    HW182760  10.143  11.573  12.111
93621SOL    HW282761  10.049  11.691  12.108
93622SOL     OW82762   5.475   9.754   9.365
93622SOL    HW182763   5.513   9.679   9.410
93622SOL    HW282764   5.387   9.726   9.341
93623SOL     OW82765  11.003   5.336  12.587
93623SOL    HW182766  11.001   5.432  12.581
93623SOL    HW282767  11.003   5.318  12.681
93624SOL     OW82768   0.863   3.092   9.570
93624SOL    HW182769   0.915   3.044   9.505
93624SOL    HW282770   0.794   3.134   9.518
93625SOL     OW82771  14.665  14.035   0.952
93625SOL    HW182772  14.613  14.112   0.972
93625SOL    HW282773  14.736  14.036   1.017
93626SOL     OW82774   2.559  10.702   8.591
93626SOL    HW182775   2.653  10.692   8.604
93626SOL    HW282776   2.525  10.613   8.598
93627SOL     OW82777  10.092   7.082  14.152
93627SOL    HW182778  10.048   7.150  14.204
93627SOL    HW282779  10.021   7.038  14.105
93628SOL     OW82780   9.898   3.118  10.897
93628SOL    HW182781   9.843   3.058  10.947
93628SOL    HW282782   9.937   3.175  10.963
93629SOL     OW82783  14.625   1.053   1.570
93629SOL    HW182784  14.680   1.125   1.600
93629SOL    HW282785  14.569   1.031   1.645
93630SOL     OW82786  10.677  12.280  10.281
93630SOL    HW182787  10.633  12.206  10.325
93630SOL    HW282788  10.657  12.268  10.189
93631SOL     OW82789   5.199  14.330   7.129
93631SOL    HW182790   5.196  14.421   7.160
93631SOL    HW282791   5.218  14.338   7.035
93632SOL     OW82792   9.613  11.419  12.185
93632SOL    HW182793   9.529  11.420  12.232
93632SOL    HW282794   9.598  11.361  12.110
93633SOL     OW82795  11.505   2.175   5.020
93633SOL    HW182796  11.420   2.177   5.064
93633SOL    HW282797  11.499   2.101   4.959
93634SOL     OW82798   6.460   9.480   8.355
93634SOL    HW182799   6.541   9.530   8.352
93634SOL    HW282800   6.480   9.397   8.312
93635SOL     OW82801   1.670   2.806  13.194
93635SOL    HW182802   1.716   2.884  13.164
93635SOL    HW282803   1.737   2.754  13.238
93636SOL     OW82804   8.483  11.796   0.691
93636SOL    HW182805   8.411  11.738   0.718
93636SOL    HW282806   8.453  11.884   0.714
93637SOL     OW82807  10.293  10.838   4.771
93637SOL    HW182808  10.300  10.743   4.764
93637SOL    HW282809  10.369  10.872   4.724
93638SOL     OW82810   5.982   1.435   1.241
93638SOL    HW182811   5.894   1.415   1.274
93638SOL    HW282812   5.966   1.484   1.160
93639SOL     OW82813   5.709   3.804  13.788
93639SOL    HW182814   5.792   3.775  13.826
93639SOL    HW282815   5.734   3.857  13.713
93640SOL     OW82816   3.558   7.881   7.983
93640SOL    HW182817   3.590   7.952   8.040
93640SOL    HW282818   3.612   7.889   7.904
93641SOL     OW82819   5.537   7.102   5.948
93641SOL    HW182820   5.480   7.067   6.016
93641SOL    HW282821   5.542   7.196   5.966
93642SOL     OW82822   6.548  11.924  10.758
93642SOL    HW182823   6.588  11.964  10.681
93642SOL    HW282824   6.457  11.910  10.732
93643SOL     OW82825   9.578   4.166   2.492
93643SOL    HW182826   9.515   4.186   2.423
93643SOL    HW282827   9.661   4.198   2.459
93644SOL     OW82828  12.130  13.672   0.225
93644SOL    HW182829  12.123  13.761   0.189
93644SOL    HW282830  12.087  13.678   0.310
93645SOL     OW82831   9.095  13.983  10.398
93645SOL    HW182832   9.119  13.916  10.334
93645SOL    HW282833   9.014  13.951  10.436
93646SOL     OW82834   2.884  11.171  14.515
93646SOL    HW182835   2.873  11.197  14.424
93646SOL    HW282836   2.934  11.089  14.511
93647SOL     OW82837  12.011   1.628  12.457
93647SOL    HW182838  11.937   1.684  12.432
93647SOL    HW282839  12.076   1.642  12.388
93648SOL     OW82840   9.331   4.318   5.437
93648SOL    HW182841   9.247   4.276   5.417
93648SOL    HW282842   9.317   4.360   5.522
93649SOL     OW82843  13.328  11.788  10.595
93649SOL    HW182844  13.302  11.703  10.558
93649SOL    HW282845  13.397  11.767  10.658
93650SOL     OW82846   6.140  11.675   0.203
93650SOL    HW182847   6.050  11.704   0.190
93650SOL    HW282848   6.154  11.681   0.297
93651SOL     OW82849   5.039  14.206  12.213
93651SOL    HW182850   4.999  14.187  12.128
93651SOL    HW282851   5.034  14.301  12.221
93652SOL     OW82852   1.019   0.950   6.226
93652SOL    HW182853   0.982   0.872   6.185
93652SOL    HW282854   0.951   0.980   6.287
93653SOL     OW82855   3.749  10.342  12.355
93653SOL    HW182856   3.727  10.335  12.447
93653SOL    HW282857   3.690  10.408  12.320
93654SOL     OW82858   7.395   5.975  11.589
93654SOL    HW182859   7.412   5.918  11.664
93654SOL    HW282860   7.406   5.919  11.513
93655SOL     OW82861   8.681   3.385  12.078
93655SOL    HW182862   8.701   3.434  12.159
93655SOL    HW282863   8.764   3.380  12.032
93656SOL     OW82864   7.157   4.382   2.594
93656SOL    HW182865   7.223   4.413   2.532
93656SOL    HW282866   7.163   4.443   2.668
93657SOL     OW82867   3.750   0.702  12.461
93657SOL    HW182868   3.765   0.675  12.370
93657SOL    HW282869   3.663   0.668  12.482
93658SOL     OW82870   0.756   0.734   2.784
93658SOL    HW182871   0.724   0.650   2.751
93658SOL    HW282872   0.798   0.775   2.709
93659SOL     OW82873  13.470   8.744  11.522
93659SOL    HW182874  13.416   8.693  11.582
93659SOL    HW282875  13.408   8.801  11.476
93660SOL     OW82876   0.707  13.459   3.060
93660SOL    HW182877   0.794  13.451   3.098
93660SOL    HW282878   0.650  13.483   3.133
93661SOL     OW82879   0.857  14.429  11.374
93661SOL    HW182880   0.798  14.471  11.437
93661SOL    HW282881   0.869  14.340  11.407
93662SOL     OW82882   5.958   9.568   9.112
93662SOL    HW182883   5.997   9.643   9.156
93662SOL    HW282884   5.892   9.536   9.173
93663SOL     OW82885   1.222   5.473   8.223
93663SOL    HW182886   1.263   5.418   8.289
93663SOL    HW282887   1.294   5.524   8.187
93664SOL     OW82888  12.203   3.394   4.726
93664SOL    HW182889  12.242   3.471   4.686
93664SOL    HW282890  12.223   3.403   4.819
93665SOL     OW82891   7.517   3.064   5.266
93665SOL    HW182892   7.608   3.062   5.294
93665SOL    HW282893   7.507   2.986   5.211
93666SOL     OW82894   0.878   3.350   8.076
93666SOL    HW182895   0.957   3.300   8.057
93666SOL    HW282896   0.823   3.290   8.126
93667SOL     OW82897  10.267  14.360   1.457
93667SOL    HW182898  10.268  14.282   1.400
93667SOL    HW282899  10.204  14.418   1.416
93668SOL     OW82900  14.336   3.622   3.251
93668SOL    HW182901  14.259   3.588   3.206
93668SOL    HW282902  14.352   3.560   3.322
93669SOL     OW82903   1.477   4.981  14.327
93669SOL    HW182904   1.471   4.967  14.421
93669SOL    HW282905   1.570   4.986  14.308
93670SOL     OW82906   8.244   3.782   0.316
93670SOL    HW182907   8.239   3.808   0.224
93670SOL    HW282908   8.175   3.717   0.327
93671SOL     OW82909   3.556   1.273   6.061
93671SOL    HW182910   3.520   1.361   6.055
93671SOL    HW282911   3.613   1.265   5.984
93672SOL     OW82912   4.508   0.117  10.156
93672SOL    HW182913   4.491   0.211  10.165
93672SOL    HW282914   4.422   0.076  10.168
93673SOL     OW82915   5.326  13.091  14.717
93673SOL    HW182916   5.389  13.019  14.711
93673SOL    HW282917   5.264  13.063  14.784
93674SOL     OW82918  11.001   4.715  10.876
93674SOL    HW182919  11.039   4.652  10.814
93674SOL    HW282920  10.907   4.708  10.863
93675SOL     OW82921  11.261  11.578   5.263
93675SOL    HW182922  11.304  11.657   5.229
93675SOL    HW282923  11.302  11.564   5.348
93676SOL     OW82924   0.788   4.484   2.211
93676SOL    HW182925   0.798   4.450   2.122
93676SOL    HW282926   0.856   4.551   2.219
93677SOL     OW82927   7.812  11.525   7.396
93677SOL    HW182928   7.730  11.571   7.378
93677SOL    HW282929   7.816  11.456   7.329
93678SOL     OW82930  12.715   7.979  12.469
93678SOL    HW182931  12.693   8.012  12.556
93678SOL    HW282932  12.809   7.993  12.461
93679SOL     OW82933  12.405   4.537   9.592
93679SOL    HW182934  12.387   4.444   9.576
93679SOL    HW282935  12.469   4.561   9.525
93680SOL     OW82936  10.611   6.218   1.256
93680SOL    HW182937  10.517   6.204   1.253
93680SOL    HW282938  10.648   6.139   1.217
93681SOL     OW82939  12.887  11.043   9.791
93681SOL    HW182940  12.895  10.967   9.733
93681SOL    HW282941  12.915  11.011   9.877
93682SOL     OW82942  10.104  11.929   5.279
93682SOL    HW182943  10.013  11.931   5.307
93682SOL    HW282944  10.154  11.952   5.357
93683SOL     OW82945   0.595  10.669  12.843
93683SOL    HW182946   0.541  10.655  12.921
93683SOL    HW282947   0.644  10.587  12.833
93684SOL     OW82948   1.485  14.042   3.053
93684SOL    HW182949   1.546  14.062   2.981
93684SOL    HW282950   1.468  13.948   3.044
93685SOL     OW82951   4.301   7.971  14.061
93685SOL    HW182952   4.253   8.039  14.109
93685SOL    HW282953   4.390   7.976  14.096
93686SOL     OW82954  13.509   1.453  10.731
93686SOL    HW182955  13.445   1.396  10.774
93686SOL    HW282956  13.477   1.462  10.642
93687SOL     OW82957  14.414   6.401   2.041
93687SOL    HW182958  14.443   6.326   2.093
93687SOL    HW282959  14.491   6.427   1.991
93688SOL     OW82960  12.091   3.023   4.626
93688SOL    HW182961  12.149   2.976   4.686
93688SOL    HW282962  12.151   3.074   4.571
93689SOL     OW82963  10.661   8.844   0.821
93689SOL    HW182964  10.731   8.834   0.885
93689SOL    HW282965  10.707   8.852   0.737
93690SOL     OW82966  10.107   4.267   7.294
93690SOL    HW182967  10.153   4.346   7.323
93690SOL    HW282968  10.129   4.260   7.201
93691SOL     OW82969  11.920   3.985   9.305
93691SOL    HW182970  11.923   3.990   9.210
93691SOL    HW282971  11.849   3.923   9.324
93692SOL     OW82972  14.591   1.874   4.137
93692SOL    HW182973  14.543   1.864   4.219
93692SOL    HW282974  14.529   1.844   4.070
93693SOL     OW82975  11.128   7.059  12.015
93693SOL    HW182976  11.140   7.059  12.110
93693SOL    HW282977  11.061   7.125  11.999
93694SOL     OW82978   9.873  10.296  11.554
93694SOL    HW182979   9.804  10.272  11.492
93694SOL    HW282980   9.919  10.214  11.570
93695SOL     OW82981   9.336   7.607  13.394
93695SOL    HW182982   9.374   7.617  13.482
93695SOL    HW282983   9.275   7.680  13.386
93696SOL     OW82984   8.526   1.739   2.227
93696SOL    HW182985   8.540   1.806   2.160
93696SOL    HW282986   8.591   1.671   2.208
93697SOL     OW82987   4.449   0.257   8.661
93697SOL    HW182988   4.520   0.203   8.695
93697SOL    HW282989   4.375   0.241   8.720
93698SOL     OW82990   3.994   5.221   6.991
93698SOL    HW182991   3.986   5.291   6.927
93698SOL    HW282992   3.964   5.260   7.073
93699SOL     OW82993   0.992  14.762  11.574
93699SOL    HW182994   1.057  14.827  11.548
93699SOL    HW282995   1.023  14.728  11.657
93700SOL     OW82996  12.567   4.327  11.701
93700SOL    HW182997  12.480   4.287  11.693
93700SOL    HW282998  12.549   4.417  11.728
93701SOL     OW82999   2.746   3.884   6.850
93701SOL    HW183000   2.804   3.957   6.872
93701SOL    HW283001   2.774   3.813   6.908
93702SOL     OW83002   0.743  12.813   3.518
93702SOL    HW183003   0.703  12.899   3.505
93702SOL    HW283004   0.826  12.831   3.560
93703SOL     OW83005  10.394   6.800   7.480
93703SOL    HW183006  10.429   6.713   7.461
93703SOL    HW283007  10.301   6.795   7.456
93704SOL     OW83008   8.688  14.189  10.742
93704SOL    HW183009   8.634  14.170  10.819
93704SOL    HW283010   8.650  14.269  10.705
93705SOL     OW83011   0.384   3.657  11.350
93705SOL    HW183012   0.439   3.725  11.311
93705SOL    HW283013   0.381   3.587  11.284
93706SOL     OW83014  13.590   5.315  10.806
93706SOL    HW183015  13.630   5.331  10.720
93706SOL    HW283016  13.604   5.396  10.854
93707SOL     OW83017  10.519   6.693   1.223
93707SOL    HW183018  10.499   6.775   1.268
93707SOL    HW283019  10.435   6.647   1.218
93708SOL     OW83020   3.733   4.151   0.483
93708SOL    HW183021   3.643   4.121   0.470
93708SOL    HW283022   3.732   4.194   0.568
93709SOL     OW83023   1.940   7.587   2.761
93709SOL    HW183024   1.856   7.543   2.749
93709SOL    HW283025   1.998   7.545   2.697
93710SOL     OW83026  14.529   5.939   2.837
93710SOL    HW183027  14.587   6.015   2.832
93710SOL    HW283028  14.566   5.876   2.775
93711SOL     OW83029  13.443  14.354   9.796
93711SOL    HW183030  13.458  14.299   9.873
93711SOL    HW283031  13.528  14.394   9.778
93712SOL     OW83032   6.782   0.465  14.160
93712SOL    HW183033   6.800   0.552  14.197
93712SOL    HW283034   6.694   0.444  14.190
93713SOL     OW83035   9.685  11.823   5.734
93713SOL    HW183036   9.749  11.760   5.700
93713SOL    HW283037   9.645  11.861   5.656
93714SOL     OW83038   7.475   7.441   2.361
93714SOL    HW183039   7.486   7.510   2.296
93714SOL    HW283040   7.423   7.374   2.316
93715SOL     OW83041   2.274   9.071   2.731
93715SOL    HW183042   2.342   9.023   2.684
93715SOL    HW283043   2.202   9.078   2.668
93716SOL     OW83044   0.058   1.650   1.644
93716SOL    HW183045   0.143   1.608   1.659
93716SOL    HW283046   0.058   1.727   1.701
93717SOL     OW83047   8.323  12.874   4.038
93717SOL    HW183048   8.406  12.864   4.084
93717SOL    HW283049   8.340  12.943   3.973
93718SOL     OW83050   1.032   0.402  12.594
93718SOL    HW183051   0.971   0.354  12.650
93718SOL    HW283052   1.062   0.475  12.647
93719SOL     OW83053   5.170  10.226   5.341
93719SOL    HW183054   5.130  10.312   5.351
93719SOL    HW283055   5.121  10.168   5.399
93720SOL     OW83056   8.805   4.495   9.940
93720SOL    HW183057   8.737   4.522  10.002
93720SOL    HW283058   8.825   4.574   9.890
93721SOL     OW83059   9.198   3.838   3.324
93721SOL    HW183060   9.117   3.850   3.374
93721SOL    HW283061   9.265   3.884   3.375
93722SOL     OW83062   9.775   5.830   6.206
93722SOL    HW183063   9.732   5.821   6.121
93722SOL    HW283064   9.758   5.747   6.250
93723SOL     OW83065   7.379   1.803   1.953
93723SOL    HW183066   7.364   1.708   1.945
93723SOL    HW283067   7.467   1.811   1.990
93724SOL     OW83068   8.594   3.726  14.591
93724SOL    HW183069   8.525   3.793  14.586
93724SOL    HW283070   8.633   3.727  14.503
93725SOL     OW83071  11.268   1.197  11.021
93725SOL    HW183072  11.284   1.165  11.110
93725SOL    HW283073  11.200   1.139  10.987
93726SOL     OW83074   4.617   3.000   4.079
93726SOL    HW183075   4.572   3.082   4.097
93726SOL    HW283076   4.695   3.025   4.030
93727SOL     OW83077   0.899   5.176   7.626
93727SOL    HW183078   0.880   5.257   7.577
93727SOL    HW283079   0.823   5.120   7.609
93728SOL     OW83080   9.454   8.046  11.403
93728SOL    HW183081   9.437   8.093  11.321
93728SOL    HW283082   9.376   7.992  11.416
93729SOL     OW83083   3.127   1.275  13.071
93729SOL    HW183084   3.047   1.259  13.120
93729SOL    HW283085   3.098   1.304  12.985
93730SOL     OW83086   8.361   3.969  13.904
93730SOL    HW183087   8.453   3.972  13.930
93730SOL    HW283088   8.362   3.980  13.809
93731SOL     OW83089  13.040  11.639   9.220
93731SOL    HW183090  12.948  11.653   9.244
93731SOL    HW283091  13.070  11.724   9.187
93732SOL     OW83092   3.644   4.739   3.193
93732SOL    HW183093   3.737   4.721   3.208
93732SOL    HW283094   3.601   4.655   3.205
93733SOL     OW83095   8.277   0.641   7.513
93733SOL    HW183096   8.259   0.547   7.526
93733SOL    HW283097   8.234   0.683   7.588
93734SOL     OW83098   0.261   4.781   3.728
93734SOL    HW183099   0.306   4.736   3.800
93734SOL    HW283100   0.326   4.842   3.693
93735SOL     OW83101  13.293  13.180  11.231
93735SOL    HW183102  13.314  13.097  11.275
93735SOL    HW283103  13.255  13.235  11.300
93736SOL     OW83104   9.341   1.184  12.125
93736SOL    HW183105   9.313   1.098  12.157
93736SOL    HW283106   9.388   1.165  12.044
93737SOL     OW83107   9.252  10.719   1.219
93737SOL    HW183108   9.304  10.651   1.263
93737SOL    HW283109   9.224  10.679   1.138
93738SOL     OW83110   8.059  11.534   1.550
93738SOL    HW183111   7.989  11.506   1.491
93738SOL    HW283112   8.095  11.453   1.586
93739SOL     OW83113  11.204   1.530  11.843
93739SOL    HW183114  11.255   1.514  11.922
93739SOL    HW283115  11.113   1.522  11.870
93740SOL     OW83116  10.236  13.795   1.864
93740SOL    HW183117  10.303  13.731   1.837
93740SOL    HW283118  10.257  13.814   1.955
93741SOL     OW83119  11.010   6.930   4.048
93741SOL    HW183120  10.927   6.913   4.092
93741SOL    HW283121  11.021   6.857   3.987
93742SOL     OW83122  14.363   2.160   9.996
93742SOL    HW183123  14.286   2.193  10.043
93742SOL    HW283124  14.354   2.195   9.908
93743SOL     OW83125   5.266   3.796  13.853
93743SOL    HW183126   5.190   3.745  13.825
93743SOL    HW283127   5.341   3.738  13.838
93744SOL     OW83128   7.230   6.312   0.207
93744SOL    HW183129   7.304   6.253   0.222
93744SOL    HW283130   7.260   6.396   0.241
93745SOL     OW83131   4.962   0.888   7.201
93745SOL    HW183132   5.019   0.871   7.276
93745SOL    HW283133   4.915   0.968   7.224
93746SOL     OW83134   7.905   1.949  10.063
93746SOL    HW183135   7.956   1.976   9.987
93746SOL    HW283136   7.859   2.028  10.090
93747SOL     OW83137   6.871  10.493   3.956
93747SOL    HW183138   6.949  10.547   3.940
93747SOL    HW283139   6.804  10.556   3.984
93748SOL     OW83140   2.593   2.887   3.521
93748SOL    HW183141   2.552   2.963   3.479
93748SOL    HW283142   2.562   2.890   3.611
93749SOL     OW83143   0.800   2.740   9.489
93749SOL    HW183144   0.848   2.710   9.411
93749SOL    HW283145   0.866   2.743   9.558
93750SOL     OW83146   2.909  10.574   0.814
93750SOL    HW183147   2.846  10.612   0.753
93750SOL    HW283148   2.990  10.622   0.797
93751SOL     OW83149  13.411  11.680   9.390
93751SOL    HW183150  13.328  11.688   9.436
93751SOL    HW283151  13.397  11.725   9.307
93752SOL     OW83152  10.814   8.813   0.591
93752SOL    HW183153  10.764   8.752   0.538
93752SOL    HW283154  10.901   8.774   0.597
93753SOL     OW83155   6.864   5.776  12.372
93753SOL    HW183156   6.855   5.732  12.456
93753SOL    HW283157   6.945   5.741  12.335
93754SOL     OW83158   9.703  12.631   0.694
93754SOL    HW183159   9.730  12.540   0.705
93754SOL    HW283160   9.686  12.662   0.783
93755SOL     OW83161  12.911  11.141  10.683
93755SOL    HW183162  12.846  11.179  10.624
93755SOL    HW283163  12.880  11.164  10.770
93756SOL     OW83164  14.365  11.935  10.313
93756SOL    HW183165  14.439  11.880  10.286
93756SOL    HW283166  14.289  11.892  10.275
93757SOL     OW83167   1.159   3.154  12.517
93757SOL    HW183168   1.101   3.190  12.584
93757SOL    HW283169   1.209   3.086  12.563
93758SOL     OW83170   0.251  13.206   3.547
93758SOL    HW183171   0.168  13.163   3.566
93758SOL    HW283172   0.245  13.230   3.455
93759SOL     OW83173   8.860  10.620   7.201
93759SOL    HW183174   8.870  10.701   7.250
93759SOL    HW283175   8.769  10.618   7.173
93760SOL     OW83176  12.870   7.453   9.117
93760SOL    HW183177  12.904   7.538   9.087
93760SOL    HW283178  12.776   7.468   9.126
93761SOL     OW83179  12.220   1.152   8.260
93761SOL    HW183180  12.267   1.234   8.244
93761SOL    HW283181  12.157   1.146   8.188
93762SOL     OW83182   1.126   0.172   2.510
93762SOL    HW183183   1.160   0.217   2.587
93762SOL    HW283184   1.163   0.220   2.436
93763SOL     OW83185   1.330  11.515   3.405
93763SOL    HW183186   1.399  11.578   3.385
93763SOL    HW283187   1.356  11.435   3.359
93764SOL     OW83188   3.736   5.188   1.130
93764SOL    HW183189   3.697   5.254   1.072
93764SOL    HW283190   3.770   5.239   1.203
93765SOL     OW83191   7.101   5.502   5.768
93765SOL    HW183192   7.177   5.482   5.713
93765SOL    HW283193   7.053   5.419   5.774
93766SOL     OW83194   8.363   9.560  12.970
93766SOL    HW183195   8.310   9.620  12.918
93766SOL    HW283196   8.386   9.489  12.910
93767SOL     OW83197   8.469   2.169  12.634
93767SOL    HW183198   8.384   2.186  12.674
93767SOL    HW283199   8.531   2.223  12.683
93768SOL     OW83200   8.789   5.079   7.345
93768SOL    HW183201   8.727   5.070   7.418
93768SOL    HW283202   8.764   5.160   7.301
93769SOL     OW83203   6.392   5.286   0.265
93769SOL    HW183204   6.309   5.276   0.311
93769SOL    HW283205   6.453   5.318   0.332
93770SOL     OW83206   1.756   4.036   4.705
93770SOL    HW183207   1.790   4.085   4.630
93770SOL    HW283208   1.677   4.083   4.730
93771SOL     OW83209  10.811   6.149   4.820
93771SOL    HW183210  10.868   6.087   4.865
93771SOL    HW283211  10.795   6.109   4.734
93772SOL     OW83212  12.540   1.918   7.486
93772SOL    HW183213  12.512   1.939   7.575
93772SOL    HW283214  12.480   1.967   7.430
93773SOL     OW83215   1.926   6.330  11.051
93773SOL    HW183216   1.949   6.419  11.078
93773SOL    HW283217   1.836   6.338  11.019
93774SOL     OW83218  13.628   4.182  10.816
93774SOL    HW183219  13.625   4.266  10.862
93774SOL    HW283220  13.713   4.181  10.772
93775SOL     OW83221   6.561  12.300   4.902
93775SOL    HW183222   6.509  12.235   4.857
93775SOL    HW283223   6.511  12.381   4.894
93776SOL     OW83224   1.508   7.971   1.746
93776SOL    HW183225   1.452   8.038   1.708
93776SOL    HW283226   1.581   7.963   1.684
93777SOL     OW83227  14.234   8.581  10.760
93777SOL    HW183228  14.326   8.598  10.783
93777SOL    HW283229  14.230   8.599  10.666
93778SOL     OW83230   3.285  13.755   8.069
93778SOL    HW183231   3.334  13.780   8.148
93778SOL    HW283232   3.275  13.837   8.021
93779SOL     OW83233  14.220   5.381   8.552
93779SOL    HW183234  14.231   5.295   8.512
93779SOL    HW283235  14.288   5.436   8.511
93780SOL     OW83236  14.273   5.552   9.053
93780SOL    HW183237  14.184   5.525   9.078
93780SOL    HW283238  14.261   5.603   8.973
93781SOL     OW83239   4.745   6.520   2.860
93781SOL    HW183240   4.745   6.465   2.781
93781SOL    HW283241   4.761   6.458   2.932
93782SOL     OW83242   1.407  12.882   5.475
93782SOL    HW183243   1.444  12.871   5.387
93782SOL    HW283244   1.317  12.849   5.466
93783SOL     OW83245   4.076  11.802   7.177
93783SOL    HW183246   4.100  11.722   7.224
93783SOL    HW283247   4.008  11.773   7.115
93784SOL     OW83248   2.395   2.643   3.940
93784SOL    HW183249   2.459   2.605   3.880
93784SOL    HW283250   2.321   2.667   3.885
93785SOL     OW83251   6.940  12.782   8.704
93785SOL    HW183252   6.999  12.720   8.662
93785SOL    HW283253   6.921  12.846   8.635
93786SOL     OW83254   8.168   5.543   3.453
93786SOL    HW183255   8.115   5.464   3.462
93786SOL    HW283256   8.109   5.614   3.479
93787SOL     OW83257   0.049   8.119   8.159
93787SOL    HW183258  14.849   8.057   8.145
93787SOL    HW283259   0.124   8.064   8.182
93788SOL     OW83260   2.624  12.497   7.152
93788SOL    HW183261   2.694  12.433   7.138
93788SOL    HW283262   2.652  12.574   7.103
93789SOL     OW83263   8.399   8.113   1.169
93789SOL    HW183264   8.402   8.115   1.265
93789SOL    HW283265   8.341   8.039   1.148
93790SOL     OW83266  13.331   2.728   7.878
93790SOL    HW183267  13.311   2.820   7.861
93790SOL    HW283268  13.248   2.682   7.862
93791SOL     OW83269  14.064   5.382   6.181
93791SOL    HW183270  14.129   5.443   6.216
93791SOL    HW283271  13.987   5.395   6.236
93792SOL     OW83272  10.932   6.810   8.787
93792SOL    HW183273  11.024   6.836   8.783
93792SOL    HW283274  10.885   6.892   8.804
93793SOL     OW83275   9.071   7.458  11.987
93793SOL    HW183276   9.057   7.496  11.900
93793SOL    HW283277   9.119   7.377  11.970
93794SOL     OW83278   7.174   7.900   6.100
93794SOL    HW183279   7.098   7.899   6.042
93794SOL    HW283280   7.245   7.863   6.047
93795SOL     OW83281   9.182   2.333   5.289
93795SOL    HW183282   9.106   2.344   5.231
93795SOL    HW283283   9.250   2.388   5.249
93796SOL     OW83284  12.688   1.821   2.122
93796SOL    HW183285  12.684   1.770   2.202
93796SOL    HW283286  12.683   1.756   2.052
93797SOL     OW83287   7.215  14.863  10.936
93797SOL    HW183288   7.152  14.797  10.963
93797SOL    HW283289   7.229  14.846  10.842
93798SOL     OW83290   5.811   4.586   8.270
93798SOL    HW183291   5.773   4.499   8.279
93798SOL    HW283292   5.773   4.636   8.341
93799SOL     OW83293  13.395  11.262   9.024
93799SOL    HW183294  13.344  11.338   8.995
93799SOL    HW283295  13.430  11.288   9.110
93800SOL     OW83296   9.155   7.146  13.805
93800SOL    HW183297   9.209   7.146  13.884
93800SOL    HW283298   9.066   7.156  13.838
93801SOL     OW83299   8.848   9.150   3.438
93801SOL    HW183300   8.914   9.203   3.484
93801SOL    HW283301   8.896   9.072   3.409
93802SOL     OW83302   4.826  13.574   2.475
93802SOL    HW183303   4.850  13.620   2.395
93802SOL    HW283304   4.897  13.511   2.488
93803SOL     OW83305   9.083   8.645  11.396
93803SOL    HW183306   9.168   8.613  11.427
93803SOL    HW283307   9.082   8.624  11.303
93804SOL     OW83308   8.277  11.949   8.209
93804SOL    HW183309   8.217  11.931   8.282
93804SOL    HW283310   8.256  12.039   8.182
93805SOL     OW83311   9.570   8.960   4.046
93805SOL    HW183312   9.533   8.880   4.083
93805SOL    HW283313   9.660   8.938   4.024
93806SOL     OW83314  10.136   5.571   4.892
93806SOL    HW183315  10.169   5.510   4.827
93806SOL    HW283316  10.065   5.523   4.936
93807SOL     OW83317  14.782   1.724   3.693
93807SOL    HW183318  14.788   1.814   3.663
93807SOL    HW283319  14.781   1.672   3.612
93808SOL     OW83320   0.121   0.090   8.145
93808SOL    HW183321   0.138   0.047   8.062
93808SOL    HW283322   0.045   0.045   8.181
93809SOL     OW83323  11.959   4.666   9.947
93809SOL    HW183324  11.892   4.735   9.946
93809SOL    HW283325  11.949   4.622   9.862
93810SOL     OW83326  14.425   8.778  11.434
93810SOL    HW183327  14.416   8.815  11.346
93810SOL    HW283328  14.491   8.709  11.424
93811SOL     OW83329   4.708   0.266  14.246
93811SOL    HW183330   4.616   0.243  14.259
93811SOL    HW283331   4.717   0.353  14.286
93812SOL     OW83332  12.359   2.485   7.736
93812SOL    HW183333  12.368   2.469   7.830
93812SOL    HW283334  12.305   2.564   7.731
93813SOL     OW83335  13.440  12.673   5.404
93813SOL    HW183336  13.457  12.582   5.381
93813SOL    HW283337  13.353  12.691   5.368
93814SOL     OW83338  14.685  13.146   6.893
93814SOL    HW183339  14.704  13.240   6.889
93814SOL    HW283340  14.726  13.117   6.975
93815SOL     OW83341  12.884   0.266  14.098
93815SOL    HW183342  12.795   0.233  14.111
93815SOL    HW283343  12.941   0.200  14.138
93816SOL     OW83344   8.287  11.165   0.584
93816SOL    HW183345   8.362  11.122   0.625
93816SOL    HW283346   8.272  11.116   0.503
93817SOL     OW83347   4.375   6.380  10.732
93817SOL    HW183348   4.424   6.321  10.674
93817SOL    HW283349   4.348   6.452  10.675
93818SOL     OW83350   7.444   8.878   7.707
93818SOL    HW183351   7.490   8.833   7.778
93818SOL    HW283352   7.358   8.898   7.742
93819SOL     OW83353  14.480  12.092  10.679
93819SOL    HW183354  14.467  12.160  10.612
93819SOL    HW283355  14.439  12.014  10.642
93820SOL     OW83356   6.169   5.639   8.117
93820SOL    HW183357   6.228   5.593   8.057
93820SOL    HW283358   6.082   5.605   8.096
93821SOL     OW83359   3.334   2.510   0.600
93821SOL    HW183360   3.263   2.514   0.537
93821SOL    HW283361   3.291   2.491   0.683
93822SOL     OW83362   6.001  11.978  11.460
93822SOL    HW183363   6.086  11.943  11.432
93822SOL    HW283364   5.957  11.904  11.501
93823SOL     OW83365   6.827  10.550  13.347
93823SOL    HW183366   6.906  10.508  13.383
93823SOL    HW283367   6.819  10.632  13.397
93824SOL     OW83368   5.035   1.051   4.122
93824SOL    HW183369   5.100   1.086   4.061
93824SOL    HW283370   4.983   0.990   4.069
93825SOL     OW83371   6.755  10.866   2.097
93825SOL    HW183372   6.674  10.816   2.087
93825SOL    HW283373   6.735  10.929   2.166
93826SOL     OW83374  10.753   7.897  10.053
93826SOL    HW183375  10.681   7.892  10.116
93826SOL    HW283376  10.716   7.865   9.971
93827SOL     OW83377  11.998  14.054   2.544
93827SOL    HW183378  11.963  14.042   2.456
93827SOL    HW283379  11.954  14.132   2.577
93828SOL     OW83380   3.020   5.164   6.542
93828SOL    HW183381   3.038   5.076   6.510
93828SOL    HW283382   3.065   5.222   6.481
93829SOL     OW83383   4.906   6.581   1.235
93829SOL    HW183384   4.954   6.567   1.317
93829SOL    HW283385   4.883   6.674   1.237
93830SOL     OW83386   1.313   2.444   7.842
93830SOL    HW183387   1.330   2.499   7.918
93830SOL    HW283388   1.283   2.506   7.775
93831SOL     OW83389   1.139   7.306  14.251
93831SOL    HW183390   1.100   7.219  14.254
93831SOL    HW283391   1.225   7.295  14.293
93832SOL     OW83392   4.819   9.489   0.064
93832SOL    HW183393   4.852   9.455  14.853
93832SOL    HW283394   4.796   9.411   0.115
93833SOL     OW83395   7.815   3.229  10.896
93833SOL    HW183396   7.743   3.214  10.834
93833SOL    HW283397   7.829   3.324  10.894
93834SOL     OW83398  12.244  11.699   5.298
93834SOL    HW183399  12.177  11.762   5.327
93834SOL    HW283400  12.194  11.627   5.259
93835SOL     OW83401   8.796   0.091   1.334
93835SOL    HW183402   8.719   0.046   1.369
93835SOL    HW283403   8.846   0.022   1.291
93836SOL     OW83404  14.687  13.953   4.228
93836SOL    HW183405  14.640  13.872   4.246
93836SOL    HW283406  14.717  13.983   4.314
93837SOL     OW83407   2.418  13.406   2.795
93837SOL    HW183408   2.408  13.467   2.722
93837SOL    HW283409   2.444  13.461   2.869
93838SOL     OW83410   0.733  13.801  12.655
93838SOL    HW183411   0.667  13.759  12.600
93838SOL    HW283412   0.803  13.825  12.594
93839SOL     OW83413   1.846  13.530   1.647
93839SOL    HW183414   1.880  13.444   1.621
93839SOL    HW283415   1.849  13.529   1.742
93840SOL     OW83416   4.934   0.105   3.851
93840SOL    HW183417   4.898   0.028   3.808
93840SOL    HW283418   4.884   0.114   3.931
93841SOL     OW83419   0.813  12.438   0.814
93841SOL    HW183420   0.746  12.443   0.882
93841SOL    HW283421   0.896  12.440   0.861
93842SOL     OW83422   8.512   5.535   2.501
93842SOL    HW183423   8.543   5.487   2.423
93842SOL    HW283424   8.510   5.626   2.473
93843SOL     OW83425   0.254   2.420  10.998
93843SOL    HW183426   0.185   2.398  10.935
93843SOL    HW283427   0.208   2.423  11.082
93844SOL     OW83428   5.538   9.712   2.354
93844SOL    HW183429   5.479   9.663   2.297
93844SOL    HW283430   5.524   9.804   2.331
93845SOL     OW83431  13.954   9.760   2.201
93845SOL    HW183432  13.982   9.783   2.113
93845SOL    HW283433  13.881   9.819   2.219
93846SOL     OW83434   9.858   0.000  12.813
93846SOL    HW183435   9.817  14.835  12.735
93846SOL    HW283436   9.931  14.814  12.832
93847SOL     OW83437   6.578   7.884   2.028
93847SOL    HW183438   6.556   7.903   1.937
93847SOL    HW283439   6.504   7.917   2.079
93848SOL     OW83440   5.715   1.457   8.997
93848SOL    HW183441   5.621   1.466   9.014
93848SOL    HW283442   5.753   1.540   9.025
93849SOL     OW83443   2.474   9.243   6.504
93849SOL    HW183444   2.416   9.204   6.570
93849SOL    HW283445   2.480   9.176   6.435
93850SOL     OW83446   7.493   8.604  10.989
93850SOL    HW183447   7.488   8.645  11.075
93850SOL    HW283448   7.542   8.667  10.935
93851SOL     OW83449   9.547   0.910   1.636
93851SOL    HW183450   9.554   0.822   1.600
93851SOL    HW283451   9.595   0.906   1.719
93852SOL     OW83452   6.004   5.209  12.885
93852SOL    HW183453   6.006   5.304  12.871
93852SOL    HW283454   6.042   5.172  12.806
93853SOL     OW83455  10.157  12.574  11.836
93853SOL    HW183456  10.230  12.530  11.880
93853SOL    HW283457  10.199  12.647  11.789
93854SOL     OW83458   0.194  14.609   0.554
93854SOL    HW183459   0.184  14.559   0.473
93854SOL    HW283460   0.146  14.690   0.537
93855SOL     OW83461   4.534   3.572   5.013
93855SOL    HW183462   4.473   3.586   5.086
93855SOL    HW283463   4.621   3.588   5.050
93856SOL     OW83464   6.719  13.226   7.238
93856SOL    HW183465   6.729  13.276   7.158
93856SOL    HW283466   6.792  13.253   7.293
93857SOL     OW83467  10.319  14.489   3.732
93857SOL    HW183468  10.328  14.580   3.704
93857SOL    HW283469  10.381  14.440   3.678
93858SOL     OW83470   6.936   3.275   1.325
93858SOL    HW183471   7.030   3.277   1.342
93858SOL    HW283472   6.902   3.355   1.365
93859SOL     OW83473   7.912   3.427   8.831
93859SOL    HW183474   7.895   3.357   8.768
93859SOL    HW283475   7.985   3.475   8.793
93860SOL     OW83476   8.877  12.041   4.350
93860SOL    HW183477   8.845  12.001   4.269
93860SOL    HW283478   8.885  11.968   4.411
93861SOL     OW83479   5.027  12.018   1.751
93861SOL    HW183480   5.121  12.024   1.767
93861SOL    HW283481   5.019  12.008   1.657
93862SOL     OW83482   6.105   4.922  12.414
93862SOL    HW183483   6.019   4.909  12.453
93862SOL    HW283484   6.166   4.910  12.486
93863SOL     OW83485  12.531   0.960   1.059
93863SOL    HW183486  12.600   1.006   1.012
93863SOL    HW283487  12.530   1.000   1.146
93864SOL     OW83488   2.236   5.282   4.091
93864SOL    HW183489   2.326   5.310   4.074
93864SOL    HW283490   2.242   5.188   4.107
93865SOL     OW83491  13.126  12.731   0.080
93865SOL    HW183492  13.068  12.720   0.155
93865SOL    HW283493  13.089  12.805   0.032
93866SOL     OW83494  14.510  13.368   3.061
93866SOL    HW183495  14.493  13.442   3.119
93866SOL    HW283496  14.475  13.396   2.976
93867SOL     OW83497   0.878  10.620   1.872
93867SOL    HW183498   0.936  10.548   1.896
93867SOL    HW283499   0.926  10.699   1.895
93868SOL     OW83500  10.462   7.327   1.667
93868SOL    HW183501  10.449   7.296   1.756
93868SOL    HW283502  10.447   7.421   1.671
93869SOL     OW83503   0.299  14.474   7.790
93869SOL    HW183504   0.236  14.403   7.802
93869SOL    HW283505   0.322  14.501   7.879
93870SOL     OW83506   5.307   6.950  12.975
93870SOL    HW183507   5.398   6.980  12.979
93870SOL    HW283508   5.293   6.932  12.882
93871SOL     OW83509   9.311   6.749   5.742
93871SOL    HW183510   9.360   6.763   5.822
93871SOL    HW283511   9.220   6.768   5.766
93872SOL     OW83512   7.485   1.613  14.248
93872SOL    HW183513   7.466   1.671  14.175
93872SOL    HW283514   7.534   1.540  14.209
93873SOL     OW83515  14.642  10.588  10.837
93873SOL    HW183516  14.591  10.542  10.904
93873SOL    HW283517  14.595  10.670  10.823
93874SOL     OW83518   4.212  11.996   1.741
93874SOL    HW183519   4.128  11.982   1.784
93874SOL    HW283520   4.218  12.091   1.729
93875SOL     OW83521   7.286   9.548   6.583
93875SOL    HW183522   7.262   9.590   6.666
93875SOL    HW283523   7.206   9.502   6.556
93876SOL     OW83524   2.176   1.626  10.806
93876SOL    HW183525   2.120   1.560  10.847
93876SOL    HW283526   2.120   1.702  10.795
93877SOL     OW83527   5.692   1.364   0.510
93877SOL    HW183528   5.680   1.308   0.433
93877SOL    HW283529   5.777   1.406   0.497
93878SOL     OW83530   0.302   4.270   8.494
93878SOL    HW183531   0.280   4.297   8.583
93878SOL    HW283532   0.377   4.212   8.505
93879SOL     OW83533   6.259   3.409   5.550
93879SOL    HW183534   6.167   3.432   5.535
93879SOL    HW283535   6.289   3.472   5.616
93880SOL     OW83536   1.964   6.194  12.006
93880SOL    HW183537   2.044   6.238  11.977
93880SOL    HW283538   1.905   6.265  12.032
93881SOL     OW83539  11.707   3.111   5.167
93881SOL    HW183540  11.788   3.090   5.121
93881SOL    HW283541  11.722   3.081   5.257
93882SOL     OW83542   7.346   7.940   3.376
93882SOL    HW183543   7.433   7.966   3.405
93882SOL    HW283544   7.327   7.860   3.425
93883SOL     OW83545   3.390  12.873   1.346
93883SOL    HW183546   3.309  12.838   1.307
93883SOL    HW283547   3.414  12.808   1.412
93884SOL     OW83548   5.039   3.632   0.985
93884SOL    HW183549   5.121   3.637   1.033
93884SOL    HW283550   5.055   3.680   0.904
93885SOL     OW83551   4.278   7.052  14.277
93885SOL    HW183552   4.207   7.006  14.232
93885SOL    HW283553   4.242   7.138  14.298
93886SOL     OW83554   1.012   1.432   6.938
93886SOL    HW183555   0.929   1.407   6.897
93886SOL    HW283556   1.013   1.385   7.021
93887SOL     OW83557   0.220  13.056  10.923
93887SOL    HW183558   0.210  12.961  10.929
93887SOL    HW283559   0.152  13.090  10.981
93888SOL     OW83560  12.653   0.034   7.243
93888SOL    HW183561  12.678   0.059   7.332
93888SOL    HW283562  12.588  14.837   7.254
93889SOL     OW83563  13.832  13.883   0.970
93889SOL    HW183564  13.927  13.888   0.984
93889SOL    HW283565  13.802  13.974   0.973
93890SOL     OW83566   1.067   7.584   9.774
93890SOL    HW183567   1.092   7.664   9.727
93890SOL    HW283568   1.121   7.585   9.853
93891SOL     OW83569   4.473   4.502   2.408
93891SOL    HW183570   4.561   4.464   2.415
93891SOL    HW283571   4.447   4.520   2.498
93892SOL     OW83572   1.997  10.981   3.415
93892SOL    HW183573   1.950  10.908   3.453
93892SOL    HW283574   2.086  10.973   3.450
93893SOL     OW83575  14.736   3.907   6.759
93893SOL    HW183576  14.769   3.856   6.685
93893SOL    HW283577  14.753   3.998   6.735
93894SOL     OW83578   3.982   9.894   3.288
93894SOL    HW183579   3.981   9.939   3.373
93894SOL    HW283580   4.024   9.810   3.306
93895SOL     OW83581   0.205   5.829   0.246
93895SOL    HW183582   0.171   5.918   0.252
93895SOL    HW283583   0.166   5.793   0.167
93896SOL     OW83584   4.554   9.397   4.290
93896SOL    HW183585   4.569   9.306   4.266
93896SOL    HW283586   4.591   9.447   4.217
93897SOL     OW83587   8.504   2.746   2.219
93897SOL    HW183588   8.581   2.800   2.206
93897SOL    HW283589   8.448   2.764   2.144
93898SOL     OW83590   7.795   6.458   2.819
93898SOL    HW183591   7.846   6.484   2.896
93898SOL    HW283592   7.740   6.386   2.850
93899SOL     OW83593   3.512  10.351   7.419
93899SOL    HW183594   3.437  10.365   7.477
93899SOL    HW283595   3.588  10.347   7.478
93900SOL     OW83596  12.225   6.157  13.645
93900SOL    HW183597  12.308   6.147  13.598
93900SOL    HW283598  12.233   6.242  13.689
93901SOL     OW83599  10.704   4.015  14.523
93901SOL    HW183600  10.735   3.953  14.589
93901SOL    HW283601  10.611   4.024  14.540
93902SOL     OW83602   2.493   4.066   9.888
93902SOL    HW183603   2.409   4.057   9.932
93902SOL    HW283604   2.551   4.006   9.935
93903SOL     OW83605   3.430  12.865  13.436
93903SOL    HW183606   3.359  12.831  13.491
93903SOL    HW283607   3.461  12.943  13.481
93904SOL     OW83608  11.870   7.507  14.834
93904SOL    HW183609  11.892   7.460  14.754
93904SOL    HW283610  11.840   7.593  14.805
93905SOL     OW83611  14.119   3.640  11.960
93905SOL    HW183612  14.044   3.593  11.996
93905SOL    HW283613  14.082   3.693  11.889
93906SOL     OW83614  12.448   2.399  13.869
93906SOL    HW183615  12.360   2.362  13.871
93906SOL    HW283616  12.436   2.488  13.834
93907SOL     OW83617   8.737   3.678   3.753
93907SOL    HW183618   8.743   3.694   3.659
93907SOL    HW283619   8.648   3.646   3.767
93908SOL     OW83620  10.328  12.315   0.911
93908SOL    HW183621  10.332  12.230   0.956
93908SOL    HW283622  10.333  12.379   0.981
93909SOL     OW83623  14.763   9.424   7.789
93909SOL    HW183624  14.692   9.396   7.847
93909SOL    HW283625  14.719   9.443   7.706
93910SOL     OW83626  12.682   5.273   5.294
93910SOL    HW183627  12.737   5.350   5.278
93910SOL    HW283628  12.663   5.276   5.388
93911SOL     OW83629  10.014   8.943   6.054
93911SOL    HW183630  10.020   8.862   6.003
93911SOL    HW283631  10.026   8.915   6.144
93912SOL     OW83632   9.309   4.150   0.481
93912SOL    HW183633   9.332   4.059   0.503
93912SOL    HW283634   9.214   4.154   0.492
93913SOL     OW83635  11.776  13.259   6.782
93913SOL    HW183636  11.797  13.193   6.848
93913SOL    HW283637  11.788  13.343   6.826
93914SOL     OW83638   4.574   7.472   2.625
93914SOL    HW183639   4.484   7.452   2.652
93914SOL    HW283640   4.620   7.491   2.706
93915SOL     OW83641   7.848   6.695   0.634
93915SOL    HW183642   7.797   6.775   0.644
93915SOL    HW283643   7.784   6.629   0.609
93916SOL     OW83644   2.052   7.993  13.325
93916SOL    HW183645   1.962   7.966  13.347
93916SOL    HW283646   2.101   7.982  13.407
93917SOL     OW83647   2.692  11.222   2.038
93917SOL    HW183648   2.688  11.194   1.946
93917SOL    HW283649   2.747  11.300   2.036
93918SOL     OW83650   9.642  14.770   2.994
93918SOL    HW183651   9.569  14.831   2.983
93918SOL    HW283652   9.657  14.735   2.906
93919SOL     OW83653   4.487   3.724   1.036
93919SOL    HW183654   4.557   3.713   0.971
93919SOL    HW283655   4.531   3.759   1.113
93920SOL     OW83656   3.103  10.139   9.529
93920SOL    HW183657   3.030  10.120   9.588
93920SOL    HW283658   3.078  10.219   9.484
93921SOL     OW83659   6.873  10.896   4.431
93921SOL    HW183660   6.897  10.972   4.485
93921SOL    HW283661   6.951  10.841   4.432
93922SOL     OW83662   0.709   2.488   1.355
93922SOL    HW183663   0.750   2.452   1.277
93922SOL    HW283664   0.696   2.413   1.413
93923SOL     OW83665   7.255  11.290   5.909
93923SOL    HW183666   7.289  11.250   5.829
93923SOL    HW283667   7.160  11.284   5.900
93924SOL     OW83668   7.924   8.734  12.296
93924SOL    HW183669   7.893   8.646  12.320
93924SOL    HW283670   7.930   8.780  12.380
93925SOL     OW83671   4.450   1.108   8.909
93925SOL    HW183672   4.421   1.096   9.000
93925SOL    HW283673   4.383   1.164   8.870
93926SOL     OW83674   0.786  10.741   5.839
93926SOL    HW183675   0.787  10.835   5.822
93926SOL    HW283676   0.772  10.735   5.934
93927SOL     OW83677  12.604   3.127   0.947
93927SOL    HW183678  12.677   3.155   1.002
93927SOL    HW283679  12.623   3.035   0.928
93928SOL     OW83680   5.797  12.489   2.818
93928SOL    HW183681   5.758  12.466   2.734
93928SOL    HW283682   5.800  12.585   2.818
93929SOL     OW83683   0.696   2.614   0.397
93929SOL    HW183684   0.660   2.578   0.316
93929SOL    HW283685   0.783   2.574   0.404
93930SOL     OW83686  10.001   9.812   5.006
93930SOL    HW183687  10.040   9.854   4.929
93930SOL    HW283688   9.954   9.883   5.050
93931SOL     OW83689  13.746   6.213  11.206
93931SOL    HW183690  13.731   6.261  11.287
93931SOL    HW283691  13.722   6.123  11.226
93932SOL     OW83692  14.266   1.678   2.608
93932SOL    HW183693  14.223   1.638   2.683
93932SOL    HW283694  14.294   1.604   2.554
93933SOL     OW83695   7.075  14.469   8.168
93933SOL    HW183696   6.985  14.438   8.180
93933SOL    HW283697   7.111  14.470   8.257
93934SOL     OW83698   2.179   7.359   5.610
93934SOL    HW183699   2.146   7.443   5.642
93934SOL    HW283700   2.104   7.318   5.567
93935SOL     OW83701   3.943   6.068  12.161
93935SOL    HW183702   4.012   6.133  12.174
93935SOL    HW283703   3.888   6.105  12.092
93936SOL     OW83704   3.576   7.486   3.032
93936SOL    HW183705   3.525   7.518   2.958
93936SOL    HW283706   3.667   7.493   3.004
93937SOL     OW83707  10.365   7.944   9.311
93937SOL    HW183708  10.406   7.869   9.354
93937SOL    HW283709  10.384   7.930   9.218
93938SOL     OW83710  12.368  13.082  14.239
93938SOL    HW183711  12.416  13.014  14.192
93938SOL    HW283712  12.435  13.146  14.264
93939SOL     OW83713   5.792   4.251  13.159
93939SOL    HW183714   5.711   4.289  13.193
93939SOL    HW283715   5.799   4.286  13.070
93940SOL     OW83716  11.433   3.063   3.885
93940SOL    HW183717  11.407   3.132   3.946
93940SOL    HW283718  11.488   3.108   3.821
93941SOL     OW83719   0.398   8.018   2.800
93941SOL    HW183720   0.446   8.072   2.863
93941SOL    HW283721   0.324   8.073   2.773
93942SOL     OW83722  10.517   4.536  10.751
93942SOL    HW183723  10.468   4.566  10.675
93942SOL    HW283724  10.451   4.523  10.819
93943SOL     OW83725   6.528   3.406   5.461
93943SOL    HW183726   6.436   3.435   5.464
93943SOL    HW283727   6.578   3.484   5.487
93944SOL     OW83728   3.081   6.801   3.043
93944SOL    HW183729   3.085   6.893   3.015
93944SOL    HW283730   3.070   6.806   3.138
93945SOL     OW83731   5.345  13.187   7.797
93945SOL    HW183732   5.280  13.175   7.866
93945SOL    HW283733   5.418  13.232   7.840
93946SOL     OW83734  14.057  10.221  14.111
93946SOL    HW183735  14.068  10.315  14.095
93946SOL    HW283736  14.144  10.191  14.137
93947SOL     OW83737   4.546   9.340   9.765
93947SOL    HW183738   4.514   9.280   9.832
93947SOL    HW283739   4.540   9.290   9.683
93948SOL     OW83740   6.822   8.969   3.895
93948SOL    HW183741   6.785   8.924   3.971
93948SOL    HW283742   6.903   8.922   3.876
93949SOL     OW83743  14.771   0.494  13.861
93949SOL    HW183744  14.721   0.482  13.780
93949SOL    HW283745  14.833   0.565  13.840
93950SOL     OW83746   2.872   8.692   8.600
93950SOL    HW183747   2.929   8.648   8.537
93950SOL    HW283748   2.844   8.623   8.660
93951SOL     OW83749   7.713  12.671   1.730
93951SOL    HW183750   7.657  12.697   1.657
93951SOL    HW283751   7.717  12.575   1.724
93952SOL     OW83752   8.161   9.410  10.100
93952SOL    HW183753   8.174   9.315  10.102
93952SOL    HW283754   8.208   9.439  10.022
93953SOL     OW83755   4.330  11.001  13.987
93953SOL    HW183756   4.263  11.053  13.943
93953SOL    HW283757   4.295  10.988  14.075
93954SOL     OW83758   8.167   7.855   0.333
93954SOL    HW183759   8.234   7.918   0.306
93954SOL    HW283760   8.165   7.861   0.428
93955SOL     OW83761  12.616  14.408   1.326
93955SOL    HW183762  12.523  14.424   1.344
93955SOL    HW283763  12.632  14.319   1.358
93956SOL     OW83764  13.189  12.081   2.202
93956SOL    HW183765  13.265  12.130   2.234
93956SOL    HW283766  13.186  12.002   2.256
93957SOL     OW83767   8.046   9.842   6.482
93957SOL    HW183768   8.080   9.759   6.447
93957SOL    HW283769   8.029   9.895   6.404
93958SOL     OW83770   7.111  11.293   7.652
93958SOL    HW183771   7.036  11.244   7.619
93958SOL    HW283772   7.186  11.236   7.636
93959SOL     OW83773   0.487   0.377   1.764
93959SOL    HW183774   0.413   0.326   1.797
93959SOL    HW283775   0.561   0.352   1.820
93960SOL     OW83776   4.463   9.545   1.023
93960SOL    HW183777   4.522   9.508   0.957
93960SOL    HW283778   4.425   9.469   1.067
93961SOL     OW83779  11.757  10.382  10.908
93961SOL    HW183780  11.687  10.446  10.897
93961SOL    HW283781  11.754  10.329  10.829
93962SOL     OW83782  11.862  12.771   3.900
93962SOL    HW183783  11.900  12.717   3.969
93962SOL    HW283784  11.858  12.713   3.824
93963SOL     OW83785   6.084   5.145   1.149
93963SOL    HW183786   6.031   5.217   1.115
93963SOL    HW283787   6.175   5.175   1.140
93964SOL     OW83788   8.147   7.326  10.811
93964SOL    HW183789   8.074   7.383  10.785
93964SOL    HW283790   8.175   7.360  10.895
93965SOL     OW83791  14.532   1.636   7.538
93965SOL    HW183792  14.539   1.684   7.620
93965SOL    HW283793  14.543   1.544   7.563
93966SOL     OW83794   1.304  12.678   8.785
93966SOL    HW183795   1.345  12.754   8.744
93966SOL    HW283796   1.323  12.689   8.878
93967SOL     OW83797  10.058  12.872   9.496
93967SOL    HW183798   9.976  12.902   9.457
93967SOL    HW283799  10.033  12.841   9.583
93968SOL     OW83800   7.362   5.886   6.434
93968SOL    HW183801   7.317   5.829   6.497
93968SOL    HW283802   7.358   5.973   6.473
93969SOL     OW83803   4.599   8.934   5.063
93969SOL    HW183804   4.625   9.025   5.053
93969SOL    HW283805   4.546   8.933   5.143
93970SOL     OW83806   1.103  11.293   9.030
93970SOL    HW183807   1.103  11.202   8.999
93970SOL    HW283808   1.177  11.298   9.089
93971SOL     OW83809   2.505  14.659   9.330
93971SOL    HW183810   2.499  14.674   9.235
93971SOL    HW283811   2.415  14.647   9.358
93972SOL     OW83812  11.544  14.397   5.990
93972SOL    HW183813  11.600  14.443   5.928
93972SOL    HW283814  11.471  14.364   5.936
93973SOL     OW83815   1.064  12.897   8.269
93973SOL    HW183816   0.988  12.860   8.314
93973SOL    HW283817   1.040  12.897   8.176
93974SOL     OW83818   6.844   2.442  12.167
93974SOL    HW183819   6.871   2.533  12.181
93974SOL    HW283820   6.925   2.393  12.161
93975SOL     OW83821   3.837   9.576   1.948
93975SOL    HW183822   3.878   9.516   2.010
93975SOL    HW283823   3.744   9.576   1.971
93976SOL     OW83824  11.947  12.822   2.976
93976SOL    HW183825  12.036  12.833   3.011
93976SOL    HW283826  11.934  12.727   2.973
93977SOL     OW83827  14.779   5.850   7.692
93977SOL    HW183828  14.839   5.795   7.642
93977SOL    HW283829  14.815   5.938   7.685
93978SOL     OW83830   4.022   3.326   2.651
93978SOL    HW183831   4.004   3.233   2.662
93978SOL    HW283832   4.026   3.361   2.740
93979SOL     OW83833  10.066   0.295   3.296
93979SOL    HW183834   9.980   0.282   3.258
93979SOL    HW283835  10.077   0.390   3.300
93980SOL     OW83836   0.093   1.762  13.544
93980SOL    HW183837   0.016   1.705  13.545
93980SOL    HW283838   0.059   1.849  13.563
93981SOL     OW83839  12.157   3.881  14.532
93981SOL    HW183840  12.195   3.958  14.575
93981SOL    HW283841  12.219   3.860  14.462
93982SOL     OW83842   4.963  13.537   1.525
93982SOL    HW183843   4.898  13.607   1.535
93982SOL    HW283844   4.919  13.459   1.558
93983SOL     OW83845   9.942   0.048   6.449
93983SOL    HW183846   9.990  14.842   6.479
93983SOL    HW283847   9.996   0.083   6.378
93984SOL     OW83848  10.481   1.833  12.029
93984SOL    HW183849  10.433   1.810  12.109
93984SOL    HW283850  10.466   1.760  11.970
93985SOL     OW83851   1.690  12.283   8.788
93985SOL    HW183852   1.765  12.325   8.745
93985SOL    HW283853   1.694  12.313   8.878
93986SOL     OW83854   6.638   8.152   3.844
93986SOL    HW183855   6.623   8.181   3.754
93986SOL    HW283856   6.567   8.192   3.895
93987SOL     OW83857  10.049   5.013   9.103
93987SOL    HW183858  10.115   4.966   9.154
93987SOL    HW283859   9.983   4.948   9.081
93988SOL     OW83860  11.651   5.754  12.351
93988SOL    HW183861  11.661   5.709  12.267
93988SOL    HW283862  11.619   5.687  12.411
93989SOL     OW83863   7.406  13.285  14.219
93989SOL    HW183864   7.319  13.250  14.200
93989SOL    HW283865   7.435  13.237  14.297
93990SOL     OW83866   2.547   0.497   5.006
93990SOL    HW183867   2.512   0.411   4.984
93990SOL    HW283868   2.572   0.490   5.099
93991SOL     OW83869  13.349   7.029   6.638
93991SOL    HW183870  13.372   7.062   6.725
93991SOL    HW283871  13.392   7.089   6.577
93992SOL     OW83872  11.628  12.841   9.347
93992SOL    HW183873  11.712  12.832   9.393
93992SOL    HW283874  11.582  12.759   9.365
93993SOL     OW83875  14.082  12.707   6.953
93993SOL    HW183876  14.126  12.692   6.869
93993SOL    HW283877  14.135  12.774   6.996
93994SOL     OW83878   5.166  12.982   2.866
93994SOL    HW183879   5.103  13.022   2.927
93994SOL    HW283880   5.124  12.988   2.781
93995SOL     OW83881   0.872   3.543   2.358
93995SOL    HW183882   0.955   3.499   2.342
93995SOL    HW283883   0.808   3.472   2.368
93996SOL     OW83884  14.701  13.631  13.900
93996SOL    HW183885  14.667  13.710  13.942
93996SOL    HW283886  14.623  13.587  13.864
93997SOL     OW83887  12.581   2.102  14.259
93997SOL    HW183888  12.573   2.127  14.167
93997SOL    HW283889  12.490   2.093  14.289
93998SOL     OW83890  12.866  11.882   1.885
93998SOL    HW183891  12.890  11.935   1.961
93998SOL    HW283892  12.924  11.912   1.815
93999SOL     OW83893   7.789  14.737   1.787
93999SOL    HW183894   7.713  14.794   1.775
93999SOL    HW283895   7.768  14.658   1.738
94000SOL     OW83896   1.868  14.179  11.220
94000SOL    HW183897   1.899  14.220  11.139
94000SOL    HW283898   1.871  14.085  11.203
94001SOL     OW83899   4.084  11.067  13.071
94001SOL    HW183900   4.025  10.994  13.052
94001SOL    HW283901   4.030  11.145  13.064
94002SOL     OW83902   9.157  11.963   7.411
94002SOL    HW183903   9.248  11.934   7.419
94002SOL    HW283904   9.105  11.888   7.438
94003SOL     OW83905   2.386   4.805  14.333
94003SOL    HW183906   2.409   4.716  14.308
94003SOL    HW283907   2.297   4.798  14.367
94004SOL     OW83908   5.868  11.594  11.354
94004SOL    HW183909   5.860  11.527  11.286
94004SOL    HW283910   5.954  11.634  11.339
94005SOL     OW83911   5.591   1.954  10.302
94005SOL    HW183912   5.607   1.861  10.287
94005SOL    HW283913   5.541   1.957  10.383
94006SOL     OW83914   9.707   9.738   6.221
94006SOL    HW183915   9.739   9.738   6.311
94006SOL    HW283916   9.781   9.768   6.169
94007SOL     OW83917   8.568   2.362   9.446
94007SOL    HW183918   8.563   2.271   9.476
94007SOL    HW283919   8.480   2.397   9.458
94008SOL     OW83920  12.394  10.015   4.639
94008SOL    HW183921  12.415   9.922   4.628
94008SOL    HW283922  12.321  10.016   4.700
94009SOL     OW83923  10.744   2.094   2.983
94009SOL    HW183924  10.685   2.087   2.908
94009SOL    HW283925  10.825   2.052   2.953
94010SOL     OW83926   8.339  10.112   6.721
94010SOL    HW183927   8.280  10.121   6.646
94010SOL    HW283928   8.282  10.085   6.793
94011SOL     OW83929   1.404   8.370   9.120
94011SOL    HW183930   1.337   8.345   9.056
94011SOL    HW283931   1.358   8.368   9.204
94012SOL     OW83932   7.805  11.530  14.846
94012SOL    HW183933   7.762  11.508  14.764
94012SOL    HW283934   7.893  11.559  14.820
94013SOL     OW83935   0.276   0.374  14.469
94013SOL    HW183936   0.217   0.324  14.412
94013SOL    HW283937   0.338   0.309  14.501
94014SOL     OW83938   8.037  11.979  12.088
94014SOL    HW183939   8.001  12.048  12.144
94014SOL    HW283940   8.101  11.933  12.143
94015SOL     OW83941   6.681   3.096   6.840
94015SOL    HW183942   6.685   3.000   6.834
94015SOL    HW283943   6.668   3.125   6.750
94016SOL     OW83944   7.648   3.678   9.215
94016SOL    HW183945   7.589   3.617   9.259
94016SOL    HW283946   7.654   3.753   9.275
94017SOL     OW83947  10.955  12.627   1.954
94017SOL    HW183948  10.976  12.545   1.999
94017SOL    HW283949  10.929  12.600   1.866
94018SOL     OW83950   0.076   1.954   5.156
94018SOL    HW183951   0.140   2.021   5.130
94018SOL    HW283952   0.127   1.874   5.163
94019SOL     OW83953   4.847   0.186  11.552
94019SOL    HW183954   4.895   0.105  11.533
94019SOL    HW283955   4.864   0.241  11.476
94020SOL     OW83956   7.862   8.237  10.918
94020SOL    HW183957   7.844   8.158  10.969
94020SOL    HW283958   7.775   8.276  10.902
94021SOL     OW83959   0.204  12.873   8.445
94021SOL    HW183960   0.153  12.865   8.525
94021SOL    HW283961   0.143  12.849   8.375
94022SOL     OW83962   1.459   4.286  12.241
94022SOL    HW183963   1.474   4.343  12.316
94022SOL    HW283964   1.469   4.197  12.276
94023SOL     OW83965   4.265   2.262   9.443
94023SOL    HW183966   4.326   2.332   9.417
94023SOL    HW283967   4.209   2.250   9.366
94024SOL     OW83968   0.592   2.668   5.949
94024SOL    HW183969   0.561   2.749   5.909
94024SOL    HW283970   0.516   2.609   5.943
94025SOL     OW83971   8.637  11.394   6.065
94025SOL    HW183972   8.613  11.396   5.972
94025SOL    HW283973   8.596  11.313   6.098
94026SOL     OW83974  14.652   3.923  11.825
94026SOL    HW183975  14.673   3.935  11.733
94026SOL    HW283976  14.662   3.829  11.840
94027SOL     OW83977   7.852   4.846   6.884
94027SOL    HW183978   7.770   4.828   6.838
94027SOL    HW283979   7.919   4.806   6.830
94028SOL     OW83980  14.696   6.200   7.190
94028SOL    HW183981  14.760   6.268   7.213
94028SOL    HW283982  14.736   6.152   7.118
94029SOL     OW83983   2.012   9.364  11.273
94029SOL    HW183984   2.078   9.363  11.343
94029SOL    HW283985   2.011   9.455  11.243
94030SOL     OW83986   2.717   4.994  13.466
94030SOL    HW183987   2.643   5.022  13.413
94030SOL    HW283988   2.794   5.029  13.420
94031SOL     OW83989   0.972   7.103   6.009
94031SOL    HW183990   0.971   7.173   5.944
94031SOL    HW283991   0.994   7.146   6.091
94032SOL     OW83992   4.802   3.825   9.599
94032SOL    HW183993   4.809   3.731   9.612
94032SOL    HW283994   4.718   3.837   9.554
94033SOL     OW83995   0.373  11.292  12.483
94033SOL    HW183996   0.414  11.206  12.491
94033SOL    HW283997   0.336  11.309  12.570
94034SOL     OW83998  11.916   6.272  11.542
94034SOL    HW183999  11.969   6.248  11.466
94034SOL    HW284000  11.833   6.303  11.505
94035SOL     OW84001   7.463  14.197   2.765
94035SOL    HW184002   7.372  14.169   2.755
94035SOL    HW284003   7.511  14.116   2.783
94036SOL     OW84004   9.217   7.490   3.600
94036SOL    HW184005   9.252   7.544   3.530
94036SOL    HW284006   9.133   7.459   3.567
94037SOL     OW84007   3.581   0.405   6.426
94037SOL    HW184008   3.591   0.492   6.386
94037SOL    HW284009   3.486   0.389   6.425
94038SOL     OW84010  10.864   5.488   0.149
94038SOL    HW184011  10.949   5.504   0.109
94038SOL    HW284012  10.835   5.405   0.112
94039SOL     OW84013   0.132   5.037  10.740
94039SOL    HW184014   0.143   4.947  10.710
94039SOL    HW284015   0.212   5.082  10.712
94040SOL     OW84016   5.152  11.898   6.489
94040SOL    HW184017   5.210  11.825   6.511
94040SOL    HW284018   5.069  11.877   6.533
94041SOL     OW84019   3.235   9.684  13.336
94041SOL    HW184020   3.316   9.635  13.326
94041SOL    HW284021   3.168   9.628  13.296
94042SOL     OW84022   0.770   3.305   2.367
94042SOL    HW184023   0.728   3.254   2.297
94042SOL    HW284024   0.814   3.239   2.422
94043SOL     OW84025   7.717   9.920  12.228
94043SOL    HW184026   7.760   9.909  12.143
94043SOL    HW284027   7.624   9.910  12.210
94044SOL     OW84028  11.793  10.652   1.448
94044SOL    HW184029  11.866  10.634   1.507
94044SOL    HW284030  11.834  10.663   1.362
94045SOL     OW84031   2.047  13.826   4.814
94045SOL    HW184032   2.097  13.825   4.732
94045SOL    HW284033   2.109  13.794   4.880
94046SOL     OW84034   2.321   9.422   7.313
94046SOL    HW184035   2.310   9.332   7.282
94046SOL    HW284036   2.414   9.441   7.300
94047SOL     OW84037   4.926   0.358   6.276
94047SOL    HW184038   4.894   0.269   6.262
94047SOL    HW284039   4.949   0.390   6.189
94048SOL     OW84040   5.105   3.690   9.726
94048SOL    HW184041   5.082   3.782   9.714
94048SOL    HW284042   5.071   3.669   9.813
94049SOL     OW84043  10.087   7.668   3.235
94049SOL    HW184044  10.070   7.750   3.280
94049SOL    HW284045  10.001   7.634   3.212
94050SOL     OW84046   8.656  14.074   7.328
94050SOL    HW184047   8.567  14.108   7.337
94050SOL    HW284048   8.710  14.135   7.378
94051SOL     OW84049   3.047   6.374   5.901
94051SOL    HW184050   3.041   6.284   5.870
94051SOL    HW284051   3.106   6.371   5.976
94052SOL     OW84052   3.309   9.440   0.443
94052SOL    HW184053   3.307   9.352   0.482
94052SOL    HW284054   3.400   9.468   0.453
94053SOL     OW84055  12.708   2.343   8.981
94053SOL    HW184056  12.704   2.305   9.069
94053SOL    HW284057  12.651   2.419   8.985
94054SOL     OW84058   3.476   4.258  13.528
94054SOL    HW184059   3.492   4.205  13.606
94054SOL    HW284060   3.524   4.339  13.543
94055SOL     OW84061  14.659  10.803   6.178
94055SOL    HW184062  14.633  10.771   6.265
94055SOL    HW284063  14.598  10.761   6.117
94056SOL     OW84064  12.999  14.776   8.542
94056SOL    HW184065  12.960  14.731   8.617
94056SOL    HW284066  12.997  14.869   8.566
94057SOL     OW84067  10.320   6.909   1.910
94057SOL    HW184068  10.409   6.874   1.908
94057SOL    HW284069  10.266   6.835   1.941
94058SOL     OW84070   6.756  10.609   7.932
94058SOL    HW184071   6.737  10.522   7.896
94058SOL    HW284072   6.714  10.609   8.018
94059SOL     OW84073   8.370  12.762  14.774
94059SOL    HW184074   8.303  12.708  14.815
94059SOL    HW284075   8.342  12.852  14.792
94060SOL     OW84076  13.610   3.286  12.125
94060SOL    HW184077  13.560   3.303  12.205
94060SOL    HW284078  13.701   3.286  12.154
94061SOL     OW84079   5.940  12.228   9.535
94061SOL    HW184080   6.008  12.199   9.474
94061SOL    HW284081   5.975  12.207   9.621
94062SOL     OW84082   2.011  14.602  11.761
94062SOL    HW184083   2.091  14.591  11.710
94062SOL    HW284084   1.965  14.674  11.718
94063SOL     OW84085  12.710   7.875   1.465
94063SOL    HW184086  12.738   7.967   1.469
94063SOL    HW284087  12.658   7.863   1.545
94064SOL     OW84088   5.112   1.423  10.056
94064SOL    HW184089   5.173   1.407   9.985
94064SOL    HW284090   5.117   1.345  10.110
94065SOL     OW84091   4.054  10.899  10.909
94065SOL    HW184092   4.082  10.906  11.001
94065SOL    HW284093   4.087  10.979  10.868
94066SOL     OW84094   1.881   8.149   0.997
94066SOL    HW184095   1.890   8.107   1.083
94066SOL    HW284096   1.959   8.205   0.990
94067SOL     OW84097   5.349   9.663   5.448
94067SOL    HW184098   5.362   9.581   5.495
94067SOL    HW284099   5.361   9.640   5.356
94068SOL     OW84100  14.180   3.674  13.772
94068SOL    HW184101  14.192   3.762  13.806
94068SOL    HW284102  14.183   3.618  13.849
94069SOL     OW84103  11.577   0.786   0.423
94069SOL    HW184104  11.530   0.796   0.506
94069SOL    HW284105  11.600   0.876   0.398
94070SOL     OW84106  14.550  12.346  13.206
94070SOL    HW184107  14.619  12.375  13.146
94070SOL    HW284108  14.486  12.302  13.150
94071SOL     OW84109  13.571   2.920   4.619
94071SOL    HW184110  13.625   2.999   4.628
94071SOL    HW284111  13.567   2.885   4.708
94072SOL     OW84112   1.322   0.962   2.728
94072SOL    HW184113   1.393   0.904   2.753
94072SOL    HW284114   1.245   0.927   2.773
94073SOL     OW84115   3.507  12.314   4.370
94073SOL    HW184116   3.597  12.325   4.401
94073SOL    HW284117   3.460  12.389   4.406
94074SOL     OW84118   2.024  13.640  11.706
94074SOL    HW184119   2.085  13.575  11.742
94074SOL    HW284120   2.016  13.616  11.614
94075SOL     OW84121  11.056   5.767   8.779
94075SOL    HW184122  11.136   5.737   8.735
94075SOL    HW284123  11.006   5.811   8.710
94076SOL     OW84124  10.933   2.824  12.761
94076SOL    HW184125  10.867   2.778  12.813
94076SOL    HW284126  10.947   2.906  12.808
94077SOL     OW84127   8.507   5.291  14.171
94077SOL    HW184128   8.503   5.310  14.078
94077SOL    HW284129   8.554   5.208  14.177
94078SOL     OW84130   0.710   2.450   7.066
94078SOL    HW184131   0.729   2.436   7.159
94078SOL    HW284132   0.674   2.539   7.063
94079SOL     OW84133   2.999   0.268   5.972
94079SOL    HW184134   2.928   0.259   6.036
94079SOL    HW284135   3.000   0.185   5.925
94080SOL     OW84136   0.589  10.779  14.259
94080SOL    HW184137   0.664  10.754  14.204
94080SOL    HW284138   0.515  10.779  14.199
94081SOL     OW84139   0.083   7.666   8.097
94081SOL    HW184140   0.094   7.572   8.112
94081SOL    HW284141   0.069   7.674   8.002
94082SOL     OW84142  13.679   6.554   0.093
94082SOL    HW184143  13.725   6.584   0.171
94082SOL    HW284144  13.637   6.472   0.120
94083SOL     OW84145   4.281   0.444   4.579
94083SOL    HW184146   4.197   0.473   4.543
94083SOL    HW284147   4.292   0.497   4.658
94084SOL     OW84148  12.276   5.133   4.539
94084SOL    HW184149  12.302   5.105   4.451
94084SOL    HW284150  12.250   5.225   4.528
94085SOL     OW84151  10.712  13.140   3.077
94085SOL    HW184152  10.730  13.126   3.170
94085SOL    HW284153  10.639  13.082   3.057
94086SOL     OW84154  10.956   6.530   2.515
94086SOL    HW184155  10.861   6.520   2.511
94086SOL    HW284156  10.988   6.443   2.538
94087SOL     OW84157   7.586  11.720  11.048
94087SOL    HW184158   7.650  11.751  10.983
94087SOL    HW284159   7.609  11.628  11.062
94088SOL     OW84160   6.111   7.428   0.026
94088SOL    HW184161   6.044   7.480  14.852
94088SOL    HW284162   6.153   7.491   0.085
94089SOL     OW84163  14.676   0.718  12.493
94089SOL    HW184164  14.712   0.790  12.546
94089SOL    HW284165  14.590   0.701  12.531
94090SOL     OW84166   7.021   7.984   6.382
94090SOL    HW184167   6.957   8.017   6.319
94090SOL    HW284168   7.091   7.948   6.327
94091SOL     OW84169   2.507   9.963  13.736
94091SOL    HW184170   2.574   9.945  13.669
94091SOL    HW284171   2.425   9.970  13.686
94092SOL     OW84172  11.872   0.856   1.526
94092SOL    HW184173  11.802   0.919   1.545
94092SOL    HW284174  11.868   0.793   1.598
94093SOL     OW84175   1.321  10.754   4.147
94093SOL    HW184176   1.315  10.840   4.106
94093SOL    HW284177   1.333  10.773   4.241
94094SOL     OW84178  10.164   9.838  13.679
94094SOL    HW184179  10.251   9.861  13.711
94094SOL    HW284180  10.133   9.770  13.739
94095SOL     OW84181   5.267   8.276   7.219
94095SOL    HW184182   5.344   8.258   7.273
94095SOL    HW284183   5.248   8.369   7.235
94096SOL     OW84184  12.035   7.429   8.104
94096SOL    HW184185  12.115   7.430   8.050
94096SOL    HW284186  11.972   7.378   8.053
94097SOL     OW84187   6.102  10.741   4.793
94097SOL    HW184188   6.074  10.747   4.702
94097SOL    HW284189   6.094  10.648   4.814
94098SOL     OW84190  10.084   8.895   7.061
94098SOL    HW184191  10.103   8.854   6.976
94098SOL    HW284192  10.050   8.823   7.115
94099SOL     OW84193  12.571  12.551  11.602
94099SOL    HW184194  12.490  12.520  11.560
94099SOL    HW284195  12.549  12.638  11.634
94100SOL     OW84196  12.426  13.252   9.733
94100SOL    HW184197  12.498  13.292   9.685
94100SOL    HW284198  12.351  13.257   9.674
94101SOL     OW84199  11.762  11.688   4.759
94101SOL    HW184200  11.785  11.781   4.760
94101SOL    HW284201  11.720  11.673   4.844
94102SOL     OW84202  12.296   0.575  10.938
94102SOL    HW184203  12.327   0.516  10.869
94102SOL    HW284204  12.375   0.612  10.977
94103SOL     OW84205   1.433  14.360  11.737
94103SOL    HW184206   1.495  14.290  11.760
94103SOL    HW284207   1.397  14.389  11.821
94104SOL     OW84208   4.637   4.044   3.559
94104SOL    HW184209   4.690   3.966   3.544
94104SOL    HW284210   4.615   4.041   3.653
94105SOL     OW84211  14.725   3.490   6.537
94105SOL    HW184212  14.769   3.574   6.552
94105SOL    HW284213  14.680   3.472   6.620
94106SOL     OW84214   7.980  10.020  13.895
94106SOL    HW184215   7.972   9.957  13.823
94106SOL    HW284216   7.921  10.091  13.870
94107SOL     OW84217   1.248  10.512   7.002
94107SOL    HW184218   1.252  10.511   7.097
94107SOL    HW284219   1.187  10.441   6.980
94108SOL     OW84220  10.906   5.413   6.863
94108SOL    HW184221  10.910   5.404   6.958
94108SOL    HW284222  10.955   5.493   6.844
94109SOL     OW84223   7.251   4.262  11.008
94109SOL    HW184224   7.200   4.185  11.033
94109SOL    HW284225   7.186   4.324  10.975
94110SOL     OW84226   9.649  13.635   1.597
94110SOL    HW184227   9.648  13.565   1.532
94110SOL    HW284228   9.737  13.633   1.633
94111SOL     OW84229   4.584   1.279  13.684
94111SOL    HW184230   4.545   1.196  13.710
94111SOL    HW284231   4.583   1.332  13.764
94112SOL     OW84232   2.957  10.966  13.655
94112SOL    HW184233   2.913  10.927  13.731
94112SOL    HW284234   2.899  10.948  13.581
94113SOL     OW84235   8.855   0.033  13.830
94113SOL    HW184236   8.851  14.810  13.847
94113SOL    HW284237   8.882   0.040  13.739
94114SOL     OW84238  14.752   7.306   6.228
94114SOL    HW184239  14.803   7.230   6.258
94114SOL    HW284240  14.661   7.276   6.229
94115SOL     OW84241   1.467   0.007  12.839
94115SOL    HW184242   1.532  14.816  12.808
94115SOL    HW284243   1.436   0.051  12.759
94116SOL     OW84244   3.907   9.117   8.832
94116SOL    HW184245   3.884   9.117   8.739
94116SOL    HW284246   3.944   9.204   8.847
94117SOL     OW84247   8.300   9.210   9.127
94117SOL    HW184248   8.263   9.221   9.214
94117SOL    HW284249   8.245   9.264   9.070
94118SOL     OW84250   0.304   9.942   6.499
94118SOL    HW184251   0.279   9.990   6.419
94118SOL    HW284252   0.343  10.009   6.556
94119SOL     OW84253   8.831   7.929  10.216
94119SOL    HW184254   8.895   8.000  10.211
94119SOL    HW284255   8.827   7.895  10.126
94120SOL     OW84256   6.218   3.560  11.945
94120SOL    HW184257   6.244   3.532  12.033
94120SOL    HW284258   6.272   3.637  11.928
94121SOL     OW84259   4.021  13.990   4.688
94121SOL    HW184260   3.998  14.082   4.683
94121SOL    HW284261   4.080  13.975   4.614
94122SOL     OW84262   3.689   4.197   7.111
94122SOL    HW184263   3.673   4.277   7.061
94122SOL    HW284264   3.784   4.193   7.121
94123SOL     OW84265   1.253   7.486   0.973
94123SOL    HW184266   1.211   7.406   0.941
94123SOL    HW284267   1.308   7.515   0.900
94124SOL     OW84268   7.078   0.875  13.657
94124SOL    HW184269   7.173   0.866  13.650
94124SOL    HW284270   7.045   0.788  13.633
94125SOL     OW84271  13.770  12.027   4.969
94125SOL    HW184272  13.846  12.055   5.020
94125SOL    HW284273  13.701  12.089   4.993
94126SOL     OW84274   2.373   3.456   8.442
94126SOL    HW184275   2.392   3.512   8.517
94126SOL    HW284276   2.454   3.457   8.391
94127SOL     OW84277   0.047   8.429   2.816
94127SOL    HW184278  14.855   8.463   2.753
94127SOL    HW284279   0.081   8.506   2.860
94128SOL     OW84280   2.940  14.756  10.408
94128SOL    HW184281   2.960  14.666  10.382
94128SOL    HW284282   2.958  14.758  10.502
94129SOL     OW84283  10.254   8.828  12.280
94129SOL    HW184284  10.277   8.895  12.215
94129SOL    HW284285  10.200   8.765  12.231
94130SOL     OW84286   7.376   8.045  14.230
94130SOL    HW184287   7.307   7.995  14.187
94130SOL    HW284288   7.428   7.979  14.276
94131SOL     OW84289   7.526   8.865   0.597
94131SOL    HW184290   7.463   8.900   0.534
94131SOL    HW284291   7.492   8.778   0.619
94132SOL     OW84292   9.092   8.695   9.153
94132SOL    HW184293   9.122   8.781   9.182
94132SOL    HW284294   8.996   8.703   9.152
94133SOL     OW84295  13.984  11.212   8.763
94133SOL    HW184296  14.076  11.228   8.741
94133SOL    HW284297  13.984  11.127   8.807
94134SOL     OW84298  11.175  10.154   1.927
94134SOL    HW184299  11.085  10.186   1.935
94134SOL    HW284300  11.193  10.157   1.833
94135SOL     OW84301   9.126   0.090   5.390
94135SOL    HW184302   9.128   0.173   5.437
94135SOL    HW284303   9.130   0.023   5.458
94136SOL     OW84304  10.954   5.949   0.589
94136SOL    HW184305  10.866   5.983   0.575
94136SOL    HW284306  10.949   5.857   0.562
94137SOL     OW84307  10.729   4.898   1.437
94137SOL    HW184308  10.803   4.839   1.452
94137SOL    HW284309  10.653   4.839   1.428
94138SOL     OW84310   0.061   2.906   0.509
94138SOL    HW184311   0.112   2.981   0.536
94138SOL    HW284312   0.051   2.853   0.588
94139SOL     OW84313  12.713  13.593   9.984
94139SOL    HW184314  12.804  13.583   9.958
94139SOL    HW284315  12.711  13.567  10.076
94140SOL     OW84316   3.823   8.820   3.615
94140SOL    HW184317   3.854   8.903   3.649
94140SOL    HW284318   3.729   8.831   3.604
94141SOL     OW84319   8.486   4.609   8.256
94141SOL    HW184320   8.521   4.685   8.208
94141SOL    HW284321   8.403   4.589   8.213
94142SOL     OW84322   7.822  11.124  13.239
94142SOL    HW184323   7.770  11.204  13.249
94142SOL    HW284324   7.844  11.122  13.146
94143SOL     OW84325  13.275   0.293  11.510
94143SOL    HW184326  13.236   0.315  11.595
94143SOL    HW284327  13.296   0.378  11.472
94144SOL     OW84328  14.221   7.716  11.816
94144SOL    HW184329  14.230   7.643  11.756
94144SOL    HW284330  14.145   7.694  11.870
94145SOL     OW84331   0.300   7.338   3.026
94145SOL    HW184332   0.220   7.389   3.039
94145SOL    HW284333   0.360   7.398   2.982
94146SOL     OW84334  14.572   4.902   1.390
94146SOL    HW184335  14.481   4.930   1.381
94146SOL    HW284336  14.566   4.821   1.441
94147SOL     OW84337  13.934  12.020   2.452
94147SOL    HW184338  13.982  12.095   2.485
94147SOL    HW284339  13.902  11.975   2.530
94148SOL     OW84340  10.639  13.682  14.320
94148SOL    HW184341  10.617  13.596  14.283
94148SOL    HW284342  10.574  13.741  14.284
94149SOL     OW84343   6.461   5.789   8.621
94149SOL    HW184344   6.418   5.776   8.705
94149SOL    HW284345   6.549   5.821   8.644
94150SOL     OW84346   5.324   1.907  12.102
94150SOL    HW184347   5.420   1.907  12.103
94150SOL    HW284348   5.300   1.817  12.125
94151SOL     OW84349   4.812  10.991  10.104
94151SOL    HW184350   4.738  11.016  10.048
94151SOL    HW284351   4.824  11.066  10.162
94152SOL     OW84352   9.271   9.827   6.570
94152SOL    HW184353   9.192   9.774   6.575
94152SOL    HW284354   9.240   9.915   6.550
94153SOL     OW84355  12.947  11.302  14.701
94153SOL    HW184356  12.976  11.390  14.725
94153SOL    HW284357  12.978  11.291  14.611
94154SOL     OW84358   0.570   9.902   3.955
94154SOL    HW184359   0.561   9.984   3.907
94154SOL    HW284360   0.575   9.835   3.887
94155SOL     OW84361   8.198  13.792   7.995
94155SOL    HW184362   8.106  13.782   7.970
94155SOL    HW284363   8.206  13.743   8.077
94156SOL     OW84364   0.836  10.638   8.096
94156SOL    HW184365   0.825  10.708   8.161
94156SOL    HW284366   0.927  10.609   8.108
94157SOL     OW84367   3.567   1.101   9.934
94157SOL    HW184368   3.599   1.047  10.006
94157SOL    HW284369   3.522   1.174   9.977
94158SOL     OW84370   4.912  14.679  13.541
94158SOL    HW184371   4.823  14.700  13.569
94158SOL    HW284372   4.945  14.761  13.505
94159SOL     OW84373   7.849   5.138  12.882
94159SOL    HW184374   7.931   5.182  12.904
94159SOL    HW284375   7.811   5.113  12.966
94160SOL     OW84376  13.994  13.968   2.155
94160SOL    HW184377  13.938  14.043   2.175
94160SOL    HW284378  13.933  13.896   2.139
94161SOL     OW84379   3.355   0.579   1.072
94161SOL    HW184380   3.279   0.635   1.085
94161SOL    HW284381   3.332   0.496   1.115
94162SOL     OW84382   7.407  11.192   9.160
94162SOL    HW184383   7.393  11.271   9.212
94162SOL    HW284384   7.391  11.120   9.221
94163SOL     OW84385   5.495  14.327  14.528
94163SOL    HW184386   5.558  14.268  14.571
94163SOL    HW284387   5.476  14.393  14.595
94164SOL     OW84388   3.428  10.664   1.416
94164SOL    HW184389   3.448  10.598   1.482
94164SOL    HW284390   3.439  10.619   1.332
94165SOL     OW84391  14.759   2.387   3.621
94165SOL    HW184392  14.770   2.470   3.668
94165SOL    HW284393  14.705   2.409   3.546
94166SOL     OW84394   2.984  10.492   8.585
94166SOL    HW184395   3.074  10.526   8.584
94166SOL    HW284396   2.992  10.401   8.559
94167SOL     OW84397   5.998   2.861  10.587
94167SOL    HW184398   6.000   2.912  10.505
94167SOL    HW284399   6.089   2.857  10.614
94168SOL     OW84400  14.659  11.976  12.652
94168SOL    HW184401  14.641  12.069  12.639
94168SOL    HW284402  14.715  11.952  12.578
94169SOL     OW84403   6.837   5.189   7.371
94169SOL    HW184404   6.830   5.206   7.277
94169SOL    HW284405   6.888   5.263   7.405
94170SOL     OW84406  14.384   7.308  10.619
94170SOL    HW184407  14.299   7.265  10.615
94170SOL    HW284408  14.437   7.263  10.553
94171SOL     OW84409   8.390   5.085  13.134
94171SOL    HW184410   8.312   5.097  13.189
94171SOL    HW284411   8.459   5.133  13.180
94172SOL     OW84412   3.147   9.789   9.422
94172SOL    HW184413   3.086   9.716   9.432
94172SOL    HW284414   3.182   9.780   9.334
94173SOL     OW84415   3.968   4.956   5.421
94173SOL    HW184416   3.931   4.903   5.350
94173SOL    HW284417   3.893   5.000   5.460
94174SOL     OW84418  14.636  13.071   3.770
94174SOL    HW184419  14.610  12.981   3.789
94174SOL    HW284420  14.723  13.064   3.732
94175SOL     OW84421  13.316   4.857   6.985
94175SOL    HW184422  13.365   4.928   6.944
94175SOL    HW284423  13.243   4.841   6.924
94176SOL     OW84424  12.584   5.164  13.133
94176SOL    HW184425  12.553   5.104  13.065
94176SOL    HW284426  12.610   5.243  13.085
94177SOL     OW84427   1.305   4.496  11.675
94177SOL    HW184428   1.365   4.568  11.695
94177SOL    HW284429   1.357   4.434  11.625
94178SOL     OW84430  13.678  13.997  13.501
94178SOL    HW184431  13.716  14.056  13.566
94178SOL    HW284432  13.626  14.054  13.444
94179SOL     OW84433   1.494   1.091  11.636
94179SOL    HW184434   1.532   1.040  11.708
94179SOL    HW284435   1.461   1.170  11.678
94180SOL     OW84436   3.939  10.770  13.680
94180SOL    HW184437   3.935  10.807  13.768
94180SOL    HW284438   3.851  10.784  13.645
94181SOL     OW84439   5.523   3.837  13.474
94181SOL    HW184440   5.566   3.758  13.506
94181SOL    HW284441   5.594   3.886  13.432
94182SOL     OW84442  13.111   6.056   8.859
94182SOL    HW184443  13.157   6.029   8.779
94182SOL    HW284444  13.107   6.151   8.854
94183SOL     OW84445   5.554  10.706  14.337
94183SOL    HW184446   5.528  10.743  14.253
94183SOL    HW284447   5.629  10.758  14.364
94184SOL     OW84448   5.238  14.374   6.459
94184SOL    HW184449   5.194  14.448   6.417
94184SOL    HW284450   5.242  14.398   6.552
94185SOL     OW84451   6.936   1.230  11.052
94185SOL    HW184452   7.027   1.220  11.080
94185SOL    HW284453   6.885   1.193  11.124
94186SOL     OW84454   4.012   0.642  12.731
94186SOL    HW184455   3.921   0.619  12.711
94186SOL    HW284456   4.041   0.692  12.655
94187SOL     OW84457   2.562  11.967  11.853
94187SOL    HW184458   2.525  12.044  11.809
94187SOL    HW284459   2.491  11.936  11.910
94188SOL     OW84460  10.113   5.111   2.887
94188SOL    HW184461  10.104   5.156   2.972
94188SOL    HW284462  10.131   5.020   2.910
94189SOL     OW84463  14.317   7.315   4.160
94189SOL    HW184464  14.261   7.282   4.230
94189SOL    HW284465  14.353   7.397   4.194
94190SOL     OW84466   3.685  12.973   4.745
94190SOL    HW184467   3.635  12.923   4.809
94190SOL    HW284468   3.758  12.916   4.722
94191SOL     OW84469   3.817  13.981   2.921
94191SOL    HW184470   3.808  13.973   3.016
94191SOL    HW284471   3.756  14.051   2.896
94192SOL     OW84472   5.406   0.709   8.391
94192SOL    HW184473   5.441   0.622   8.410
94192SOL    HW284474   5.312   0.700   8.403
94193SOL     OW84475  13.509   2.292   5.756
94193SOL    HW184476  13.451   2.272   5.683
94193SOL    HW284477  13.597   2.279   5.720
94194SOL     OW84478  13.318   0.204   4.752
94194SOL    HW184479  13.234   0.200   4.797
94194SOL    HW284480  13.296   0.188   4.660
94195SOL     OW84481  10.194  13.459   3.510
94195SOL    HW184482  10.223  13.475   3.600
94195SOL    HW284483  10.251  13.514   3.456
94196SOL     OW84484   4.937  10.963   7.839
94196SOL    HW184485   5.025  10.998   7.829
94196SOL    HW284486   4.882  11.017   7.782
94197SOL     OW84487   4.790  13.750   9.074
94197SOL    HW184488   4.752  13.694   9.141
94197SOL    HW284489   4.863  13.700   9.039
94198SOL     OW84490  12.915   3.075   2.005
94198SOL    HW184491  12.990   3.133   2.018
94198SOL    HW284492  12.954   2.992   1.978
94199SOL     OW84493   0.157  12.599   7.433
94199SOL    HW184494   0.127  12.508   7.442
94199SOL    HW284495   0.118  12.629   7.351
94200SOL     OW84496   1.699   4.218   6.541
94200SOL    HW184497   1.715   4.204   6.448
94200SOL    HW284498   1.615   4.175   6.558
94201SOL     OW84499   5.913   6.232  13.748
94201SOL    HW184500   5.833   6.185  13.771
94201SOL    HW284501   5.973   6.213  13.820
94202SOL     OW84502   0.828   3.842   7.422
94202SOL    HW184503   0.916   3.804   7.429
94202SOL    HW284504   0.770   3.767   7.414
94203SOL     OW84505   3.946  13.516   0.550
94203SOL    HW184506   3.895  13.583   0.504
94203SOL    HW284507   4.037  13.537   0.529
94204SOL     OW84508   1.521  10.612  13.752
94204SOL    HW184509   1.428  10.587  13.758
94204SOL    HW284510   1.532  10.642  13.662
94205SOL     OW84511   8.466   4.369   1.035
94205SOL    HW184512   8.544   4.420   1.054
94205SOL    HW284513   8.407   4.388   1.108
94206SOL     OW84514   8.133  12.485   8.661
94206SOL    HW184515   8.062  12.505   8.721
94206SOL    HW284516   8.208  12.466   8.718
94207SOL     OW84517   9.230   7.882  13.401
94207SOL    HW184518   9.269   7.969  13.406
94207SOL    HW284519   9.139   7.897  13.377
94208SOL     OW84520   7.163  13.548   4.435
94208SOL    HW184521   7.235  13.507   4.387
94208SOL    HW284522   7.186  13.536   4.527
94209SOL     OW84523   8.314   4.780   3.836
94209SOL    HW184524   8.392   4.738   3.800
94209SOL    HW284525   8.297   4.732   3.917
94210SOL     OW84526  12.549  12.287   4.236
94210SOL    HW184527  12.588  12.202   4.256
94210SOL    HW284528  12.612  12.351   4.267
94211SOL     OW84529  12.991  10.253  13.134
94211SOL    HW184530  12.918  10.315  13.129
94211SOL    HW284531  13.009  10.229  13.043
94212SOL     OW84532   4.064   3.514   5.112
94212SOL    HW184533   4.010   3.477   5.043
94212SOL    HW284534   4.106   3.438   5.153
94213SOL     OW84535  12.943   8.879   0.757
94213SOL    HW184536  13.012   8.817   0.730
94213SOL    HW284537  12.872   8.864   0.695
94214SOL     OW84538   1.668   5.811  12.374
94214SOL    HW184539   1.693   5.861  12.296
94214SOL    HW284540   1.626   5.732  12.339
94215SOL     OW84541   0.767  10.287   8.548
94215SOL    HW184542   0.686  10.321   8.509
94215SOL    HW284543   0.782  10.342   8.625
94216SOL     OW84544  13.286   1.763   0.861
94216SOL    HW184545  13.206   1.726   0.897
94216SOL    HW284546  13.326   1.810   0.934
94217SOL     OW84547  10.891  12.241  12.408
94217SOL    HW184548  10.814  12.193  12.437
94217SOL    HW284549  10.958  12.221  12.473
94218SOL     OW84550  13.792   3.001   2.258
94218SOL    HW184551  13.856   2.992   2.187
94218SOL    HW284552  13.828   3.070   2.314
94219SOL     OW84553  10.954  12.817   6.353
94219SOL    HW184554  10.929  12.763   6.428
94219SOL    HW284555  10.891  12.794   6.285
94220SOL     OW84556   8.461  12.176  14.515
94220SOL    HW184557   8.521  12.106  14.490
94220SOL    HW284558   8.457  12.171  14.611
94221SOL     OW84559  14.687   9.960   2.610
94221SOL    HW184560  14.712  10.010   2.532
94221SOL    HW284561  14.615   9.904   2.581
94222SOL     OW84562   8.650  13.838  11.049
94222SOL    HW184563   8.739  13.865  11.023
94222SOL    HW284564   8.634  13.758  11.000
94223SOL     OW84565   0.359   9.006   2.693
94223SOL    HW184566   0.386   8.914   2.685
94223SOL    HW284567   0.431   9.055   2.656
94224SOL     OW84568  14.734   8.999  11.142
94224SOL    HW184569  14.643   8.968  11.150
94224SOL    HW284570  14.726   9.094  11.131
94225SOL     OW84571  11.397   6.251  11.867
94225SOL    HW184572  11.419   6.314  11.798
94225SOL    HW284573  11.333   6.297  11.922
94226SOL     OW84574   9.330  13.944   7.307
94226SOL    HW184575   9.357  13.892   7.382
94226SOL    HW284576   9.276  13.885   7.255
94227SOL     OW84577  11.627  11.064   8.951
94227SOL    HW184578  11.598  11.058   9.042
94227SOL    HW284579  11.583  10.990   8.908
94228SOL     OW84580  10.592  10.778  14.328
94228SOL    HW184581  10.552  10.860  14.300
94228SOL    HW284582  10.557  10.713  14.267
94229SOL     OW84583   5.425   7.218   8.011
94229SOL    HW184584   5.464   7.147   7.960
94229SOL    HW284585   5.395   7.281   7.945
94230SOL     OW84586   5.220   5.082   6.973
94230SOL    HW184587   5.174   5.068   6.890
94230SOL    HW284588   5.167   5.146   7.019
94231SOL     OW84589  10.863  10.903  13.077
94231SOL    HW184590  10.819  10.970  13.128
94231SOL    HW284591  10.828  10.913  12.989
94232SOL     OW84592   0.503   6.055   8.599
94232SOL    HW184593   0.489   6.099   8.515
94232SOL    HW284594   0.571   6.106   8.642
94233SOL     OW84595  10.089   8.770   9.946
94233SOL    HW184596  10.086   8.755  10.040
94233SOL    HW284597  10.006   8.733   9.913
94234SOL     OW84598  14.491   3.427   9.707
94234SOL    HW184599  14.550   3.498   9.684
94234SOL    HW284600  14.404   3.459   9.681
94235SOL     OW84601   2.711   9.808   9.692
94235SOL    HW184602   2.714   9.800   9.787
94235SOL    HW284603   2.792   9.854   9.669
94236SOL     OW84604   4.532   9.370  14.464
94236SOL    HW184605   4.544   9.281  14.431
94236SOL    HW284606   4.456   9.365  14.522
94237SOL     OW84607   7.540   2.509  12.115
94237SOL    HW184608   7.480   2.550  12.052
94237SOL    HW284609   7.567   2.580  12.172
94238SOL     OW84610   7.192  10.062   1.894
94238SOL    HW184611   7.131  10.021   1.833
94238SOL    HW284612   7.277  10.022   1.874
94239SOL     OW84613   4.600   7.936   5.623
94239SOL    HW184614   4.524   7.892   5.660
94239SOL    HW284615   4.669   7.869   5.623
94240SOL     OW84616   0.673   9.329   2.341
94240SOL    HW184617   0.649   9.304   2.252
94240SOL    HW284618   0.764   9.301   2.350
94241SOL     OW84619   4.735   0.183   2.877
94241SOL    HW184620   4.818   0.229   2.882
94241SOL    HW284621   4.689   0.225   2.804
94242SOL     OW84622   7.568   7.716   3.379
94242SOL    HW184623   7.641   7.752   3.431
94242SOL    HW284624   7.607   7.697   3.294
94243SOL     OW84625   8.055   5.755   5.455
94243SOL    HW184626   8.119   5.806   5.407
94243SOL    HW284627   7.970   5.782   5.419
94244SOL     OW84628  12.730   2.095  12.678
94244SOL    HW184629  12.688   2.077  12.594
94244SOL    HW284630  12.691   2.177  12.707
94245SOL     OW84631   4.621   8.334   3.137
94245SOL    HW184632   4.627   8.245   3.171
94245SOL    HW284633   4.649   8.327   3.046
94246SOL     OW84634   7.147   7.859  10.963
94246SOL    HW184635   7.105   7.886  10.882
94246SOL    HW284636   7.117   7.770  10.979
94247SOL     OW84637   7.561   9.306   3.055
94247SOL    HW184638   7.525   9.370   3.117
94247SOL    HW284639   7.580   9.230   3.109
94248SOL     OW84640   8.553   4.796  10.728
94248SOL    HW184641   8.478   4.773  10.673
94248SOL    HW284642   8.601   4.714  10.739
94249SOL     OW84643  10.855   7.062   1.661
94249SOL    HW184644  10.891   6.973   1.653
94249SOL    HW284645  10.921   7.119   1.623
94250SOL     OW84646   9.746  14.497  14.237
94250SOL    HW184647   9.717  14.568  14.179
94250SOL    HW284648   9.718  14.417  14.192
94251SOL     OW84649  13.437  14.452   4.454
94251SOL    HW184650  13.509  14.393   4.479
94251SOL    HW284651  13.381  14.456   4.532
94252SOL     OW84652   0.468  10.338   9.933
94252SOL    HW184653   0.497  10.260   9.980
94252SOL    HW284654   0.450  10.307   9.844
94253SOL     OW84655  13.794   8.780  13.369
94253SOL    HW184656  13.795   8.875  13.363
94253SOL    HW284657  13.760   8.761  13.457
94254SOL     OW84658  14.428  12.838   7.800
94254SOL    HW184659  14.403  12.917   7.847
94254SOL    HW284660  14.371  12.838   7.722
94255SOL     OW84661   2.624   0.185   4.357
94255SOL    HW184662   2.672   0.184   4.274
94255SOL    HW284663   2.588   0.273   4.363
94256SOL     OW84664  13.224   3.163  12.175
94256SOL    HW184665  13.159   3.152  12.244
94256SOL    HW284666  13.294   3.102  12.198
94257SOL     OW84667   1.061   0.870   2.386
94257SOL    HW184668   1.127   0.927   2.425
94257SOL    HW284669   0.996   0.930   2.349
94258SOL     OW84670  10.962   2.533   1.324
94258SOL    HW184671  11.024   2.569   1.388
94258SOL    HW284672  11.017   2.482   1.264
94259SOL     OW84673  10.587   6.786   6.089
94259SOL    HW184674  10.551   6.828   6.168
94259SOL    HW284675  10.625   6.705   6.122
94260SOL     OW84676   6.049   5.723  10.181
94260SOL    HW184677   6.052   5.668  10.259
94260SOL    HW284678   5.979   5.787  10.199
94261SOL     OW84679   2.615  11.047   5.424
94261SOL    HW184680   2.571  11.131   5.413
94261SOL    HW284681   2.708  11.070   5.430
94262SOL     OW84682  12.774   3.083   0.109
94262SOL    HW184683  12.827   3.016   0.152
94262SOL    HW284684  12.720   3.119   0.179
94263SOL     OW84685   2.376   8.395   9.474
94263SOL    HW184686   2.400   8.449   9.548
94263SOL    HW284687   2.285   8.419   9.454
94264SOL     OW84688  14.812   1.040   7.740
94264SOL    HW184689  14.735   1.033   7.797
94264SOL    HW284690   0.014   1.049   7.801
94265SOL     OW84691   5.981   0.114   6.418
94265SOL    HW184692   5.945   0.200   6.440
94265SOL    HW284693   5.970   0.061   6.497
94266SOL     OW84694  11.228  12.039   1.198
94266SOL    HW184695  11.237  12.091   1.119
94266SOL    HW284696  11.315  12.040   1.238
94267SOL     OW84697   2.582  14.508   2.608
94267SOL    HW184698   2.495  14.474   2.628
94267SOL    HW284699   2.574  14.603   2.616
94268SOL     OW84700   5.119   3.108  10.387
94268SOL    HW184701   5.162   3.189  10.361
94268SOL    HW284702   5.153   3.089  10.474
94269SOL     OW84703   8.527  11.397   7.619
94269SOL    HW184704   8.502  11.312   7.656
94269SOL    HW284705   8.615  11.413   7.653
94270SOL     OW84706   1.970   8.749   9.991
94270SOL    HW184707   2.043   8.732  10.051
94270SOL    HW284708   1.995   8.703   9.910
94271SOL     OW84709   6.307  11.975   1.269
94271SOL    HW184710   6.252  12.053   1.278
94271SOL    HW284711   6.246  11.905   1.246
94272SOL     OW84712  12.388   2.137   7.333
94272SOL    HW184713  12.368   2.185   7.414
94272SOL    HW284714  12.304   2.133   7.287
94273SOL     OW84715   8.646   2.529   4.187
94273SOL    HW184716   8.554   2.503   4.191
94273SOL    HW284717   8.644   2.624   4.184
94274SOL     OW84718   0.878  12.933  12.438
94274SOL    HW184719   0.928  12.965  12.363
94274SOL    HW284720   0.910  12.986  12.512
94275SOL     OW84721  12.736   7.719   4.210
94275SOL    HW184722  12.691   7.794   4.171
94275SOL    HW284723  12.809   7.758   4.259
94276SOL     OW84724   2.650   2.375  11.210
94276SOL    HW184725   2.609   2.321  11.142
94276SOL    HW284726   2.608   2.348  11.291
94277SOL     OW84727   9.142   3.467   2.677
94277SOL    HW184728   9.164   3.548   2.724
94277SOL    HW284729   9.048   3.473   2.662
94278SOL     OW84730   5.806   4.930  10.108
94278SOL    HW184731   5.878   4.916  10.047
94278SOL    HW284732   5.732   4.884  10.068
94279SOL     OW84733  13.725   6.939   4.125
94279SOL    HW184734  13.787   7.011   4.116
94279SOL    HW284735  13.776   6.860   4.108
94280SOL     OW84736  13.274  14.288   7.259
94280SOL    HW184737  13.367  14.308   7.251
94280SOL    HW284738  13.238  14.360   7.312
94281SOL     OW84739  13.160   7.814   0.344
94281SOL    HW184740  13.066   7.797   0.334
94281SOL    HW284741  13.199   7.776   0.265
94282SOL     OW84742   1.484   5.767   1.477
94282SOL    HW184743   1.531   5.848   1.498
94282SOL    HW284744   1.469   5.726   1.562
94283SOL     OW84745   6.606  10.940  10.485
94283SOL    HW184746   6.517  10.914  10.458
94283SOL    HW284747   6.605  10.931  10.580
94284SOL     OW84748  11.546   5.329   2.879
94284SOL    HW184749  11.490   5.264   2.920
94284SOL    HW284750  11.597   5.365   2.952
94285SOL     OW84751  11.920   8.259  13.291
94285SOL    HW184752  11.850   8.325  13.294
94285SOL    HW284753  11.994   8.305  13.251
94286SOL     OW84754  11.330   6.254  14.387
94286SOL    HW184755  11.304   6.241  14.296
94286SOL    HW284756  11.252   6.234  14.438
94287SOL     OW84757   3.056   8.631   8.861
94287SOL    HW184758   3.069   8.710   8.809
94287SOL    HW284759   2.968   8.600   8.837
94288SOL     OW84760  13.651   4.359   3.134
94288SOL    HW184761  13.556   4.347   3.136
94288SOL    HW284762  13.665   4.441   3.182
94289SOL     OW84763   9.407  13.628   3.815
94289SOL    HW184764   9.397  13.659   3.905
94289SOL    HW284765   9.501  13.613   3.804
94290SOL     OW84766   2.722  12.075   0.901
94290SOL    HW184767   2.663  12.005   0.927
94290SOL    HW284768   2.775  12.037   0.830
94291SOL     OW84769   5.098   7.312   2.057
94291SOL    HW184770   5.168   7.340   1.998
94291SOL    HW284771   5.108   7.217   2.063
94292SOL     OW84772  10.862  11.602  10.470
94292SOL    HW184773  10.951  11.587  10.439
94292SOL    HW284774  10.830  11.515  10.495
94293SOL     OW84775  11.303   2.054  13.056
94293SOL    HW184776  11.371   2.002  13.098
94293SOL    HW284777  11.277   2.002  12.979
94294SOL     OW84778   6.642   0.408   8.532
94294SOL    HW184779   6.618   0.375   8.445
94294SOL    HW284780   6.709   0.474   8.514
94295SOL     OW84781   9.221  14.615   6.671
94295SOL    HW184782   9.142  14.565   6.650
94295SOL    HW284783   9.268  14.621   6.589
94296SOL     OW84784   6.980   0.235   5.204
94296SOL    HW184785   6.903   0.183   5.181
94296SOL    HW284786   6.957   0.276   5.287
94297SOL     OW84787  12.982   6.677  10.790
94297SOL    HW184788  12.951   6.723  10.711
94297SOL    HW284789  13.076   6.666  10.775
94298SOL     OW84790   0.173  12.683   3.109
94298SOL    HW184791   0.088  12.704   3.069
94298SOL    HW284792   0.175  12.736   3.189
94299SOL     OW84793  14.398  13.010   3.992
94299SOL    HW184794  14.486  13.015   4.029
94299SOL    HW284795  14.371  12.919   4.006
94300SOL     OW84796   6.319   3.986  10.937
94300SOL    HW184797   6.410   3.961  10.954
94300SOL    HW284798   6.285   3.917  10.880
94301SOL     OW84799   3.796   6.531   9.482
94301SOL    HW184800   3.889   6.511   9.491
94301SOL    HW284801   3.757   6.450   9.449
94302SOL     OW84802   8.266   5.614   3.211
94302SOL    HW184803   8.173   5.635   3.206
94302SOL    HW284804   8.273   5.551   3.282
94303SOL     OW84805   5.846   0.065  12.161
94303SOL    HW184806   5.753   0.062  12.138
94303SOL    HW284807   5.892   0.076  12.078
94304SOL     OW84808   0.769   0.815  14.792
94304SOL    HW184809   0.760   0.874  14.867
94304SOL    HW284810   0.733   0.732  14.822
94305SOL     OW84811   5.270  11.874  12.209
94305SOL    HW184812   5.284  11.779  12.211
94305SOL    HW284813   5.328  11.906  12.140
94306SOL     OW84814  14.208   9.391  13.020
94306SOL    HW184815  14.208   9.312  12.965
94306SOL    HW284816  14.215   9.357  13.109
94307SOL     OW84817  10.522  11.009  12.058
94307SOL    HW184818  10.617  11.012  12.070
94307SOL    HW284819  10.486  11.020  12.146
94308SOL     OW84820  12.137   6.897   4.141
94308SOL    HW184821  12.096   6.919   4.058
94308SOL    HW284822  12.099   6.812   4.165
94309SOL     OW84823  11.602  12.248  13.168
94309SOL    HW184824  11.671  12.203  13.119
94309SOL    HW284825  11.579  12.187  13.238
94310SOL     OW84826   1.626   1.162   6.678
94310SOL    HW184827   1.629   1.154   6.774
94310SOL    HW284828   1.713   1.195   6.655
94311SOL     OW84829   2.748  10.397   0.553
94311SOL    HW184830   2.699  10.325   0.513
94311SOL    HW284831   2.790  10.358   0.629
94312SOL     OW84832  12.546   9.704   6.910
94312SOL    HW184833  12.528   9.791   6.946
94312SOL    HW284834  12.561   9.720   6.817
94313SOL     OW84835   4.126  11.019   7.748
94313SOL    HW184836   4.101  10.929   7.727
94313SOL    HW284837   4.181  11.011   7.826
94314SOL     OW84838   5.981   3.865   7.440
94314SOL    HW184839   5.959   3.838   7.529
94314SOL    HW284840   6.076   3.872   7.439
94315SOL     OW84841  10.745   7.989   5.270
94315SOL    HW184842  10.665   8.041   5.280
94315SOL    HW284843  10.799   8.041   5.209
94316SOL     OW84844   4.060   2.621   8.975
94316SOL    HW184845   4.049   2.539   9.023
94316SOL    HW284846   3.986   2.674   9.002
94317SOL     OW84847   9.759   3.779  14.832
94317SOL    HW184848   9.670   3.809  14.817
94317SOL    HW284849   9.814   3.850  14.797
94318SOL     OW84850   8.671   9.098   3.692
94318SOL    HW184851   8.680   9.158   3.766
94318SOL    HW284852   8.761   9.080   3.665
94319SOL     OW84853   5.776   0.359  11.400
94319SOL    HW184854   5.751   0.364  11.492
94319SOL    HW284855   5.825   0.439  11.384
94320SOL     OW84856   9.258   8.651   9.988
94320SOL    HW184857   9.213   8.702  10.055
94320SOL    HW284858   9.201   8.575   9.973
94321SOL     OW84859   4.862   4.082   3.217
94321SOL    HW184860   4.928   4.066   3.150
94321SOL    HW284861   4.786   4.113   3.169
94322SOL     OW84862   0.104   2.697  14.865
94322SOL    HW184863   0.193   2.709  14.831
94322SOL    HW284864   0.051   2.761  14.817
94323SOL     OW84865   7.866   2.539   4.110
94323SOL    HW184866   7.890   2.447   4.120
94323SOL    HW284867   7.950   2.584   4.098
94324SOL     OW84868   7.520   3.578  11.665
94324SOL    HW184869   7.560   3.665  11.660
94324SOL    HW284870   7.565   3.535  11.738
94325SOL     OW84871   3.648   5.216   1.563
94325SOL    HW184872   3.620   5.292   1.615
94325SOL    HW284873   3.588   5.215   1.489
94326SOL     OW84874  13.850   4.338   8.927
94326SOL    HW184875  13.788   4.272   8.959
94326SOL    HW284876  13.796   4.416   8.911
94327SOL     OW84877  10.087   7.621   5.822
94327SOL    HW184878  10.117   7.564   5.751
94327SOL    HW284879  10.046   7.562   5.885
94328SOL     OW84880  11.677   5.064   2.336
94328SOL    HW184881  11.675   5.041   2.429
94328SOL    HW284882  11.692   5.159   2.335
94329SOL     OW84883  12.781  12.833   2.719
94329SOL    HW184884  12.724  12.770   2.764
94329SOL    HW284885  12.805  12.897   2.787
94330SOL     OW84886   6.063   7.726  10.327
94330SOL    HW184887   6.119   7.747  10.402
94330SOL    HW284888   6.121   7.733  10.251
94331SOL     OW84889   0.123  10.228  11.008
94331SOL    HW184890   0.111  10.311  10.961
94331SOL    HW284891   0.215  10.230  11.035
94332SOL     OW84892   6.797   3.499  12.237
94332SOL    HW184893   6.707   3.479  12.265
94332SOL    HW284894   6.788   3.573  12.177
94333SOL     OW84895   5.013   5.261   1.874
94333SOL    HW184896   5.055   5.197   1.817
94333SOL    HW284897   4.922   5.231   1.881
94334SOL     OW84898   5.832   5.501  12.505
94334SOL    HW184899   5.795   5.569  12.560
94334SOL    HW284900   5.924   5.496  12.531
94335SOL     OW84901  11.768  14.244   1.094
94335SOL    HW184902  11.812  14.221   1.176
94335SOL    HW284903  11.750  14.160   1.052
94336SOL     OW84904   0.759   9.101   2.608
94336SOL    HW184905   0.813   9.170   2.570
94336SOL    HW284906   0.788   9.021   2.563
94337SOL     OW84907   6.044   8.636  10.920
94337SOL    HW184908   5.978   8.589  10.869
94337SOL    HW284909   6.099   8.679  10.855
94338SOL     OW84910   5.146   3.310   2.512
94338SOL    HW184911   5.111   3.328   2.425
94338SOL    HW284912   5.193   3.227   2.503
94339SOL     OW84913   0.606   5.425  12.182
94339SOL    HW184914   0.623   5.332  12.168
94339SOL    HW284915   0.668   5.470  12.124
94340SOL     OW84916   4.156   7.583  13.531
94340SOL    HW184917   4.091   7.513  13.526
94340SOL    HW284918   4.149   7.628  13.447
94341SOL     OW84919   5.160   6.606   9.370
94341SOL    HW184920   5.185   6.632   9.459
94341SOL    HW284921   5.237   6.561   9.336
94342SOL     OW84922   8.998   0.991   6.827
94342SOL    HW184923   9.042   1.048   6.764
94342SOL    HW284924   8.948   0.930   6.773
94343SOL     OW84925  12.237   5.089   8.435
94343SOL    HW184926  12.269   5.174   8.464
94343SOL    HW284927  12.277   5.077   8.349
94344SOL     OW84928   5.697   6.633  11.209
94344SOL    HW184929   5.622   6.691  11.219
94344SOL    HW284930   5.679   6.583  11.129
94345SOL     OW84931  13.597   8.715  12.074
94345SOL    HW184932  13.653   8.773  12.125
94345SOL    HW284933  13.658   8.659  12.025
94346SOL     OW84934   1.010   9.470  10.503
94346SOL    HW184935   1.068   9.504  10.572
94346SOL    HW284936   1.025   9.529  10.429
94347SOL     OW84937   4.722   5.572   5.158
94347SOL    HW184938   4.727   5.660   5.196
94347SOL    HW284939   4.688   5.587   5.069
94348SOL     OW84940  11.780   5.337  12.707
94348SOL    HW184941  11.794   5.288  12.787
94348SOL    HW284942  11.800   5.427  12.730
94349SOL     OW84943   8.274   4.211   4.292
94349SOL    HW184944   8.241   4.122   4.300
94349SOL    HW284945   8.345   4.217   4.356
94350SOL     OW84946  10.869   0.004   1.406
94350SOL    HW184947  10.954   0.016   1.449
94350SOL    HW284948  10.868  14.783   1.381
94351SOL     OW84949   0.159  11.210   9.177
94351SOL    HW184950   0.171  11.297   9.139
94351SOL    HW284951   0.160  11.151   9.101
94352SOL     OW84952  10.190   2.570  11.930
94352SOL    HW184953  10.114   2.624  11.952
94352SOL    HW284954  10.230   2.614  11.855
94353SOL     OW84955   1.705  14.444   5.612
94353SOL    HW184956   1.749  14.477   5.534
94353SOL    HW284957   1.675  14.356   5.588
94354SOL     OW84958   7.035   7.530   4.636
94354SOL    HW184959   7.063   7.579   4.559
94354SOL    HW284960   7.053   7.439   4.613
94355SOL     OW84961   6.002   3.881  12.154
94355SOL    HW184962   6.074   3.899  12.093
94355SOL    HW284963   5.985   3.787  12.145
94356SOL     OW84964   6.532   4.046   5.944
94356SOL    HW184965   6.559   4.131   5.978
94356SOL    HW284966   6.519   4.061   5.850
94357SOL     OW84967   1.186   4.408  10.726
94357SOL    HW184968   1.162   4.457  10.648
94357SOL    HW284969   1.122   4.336  10.730
94358SOL     OW84970   9.360   6.774   8.715
94358SOL    HW184971   9.399   6.845   8.664
94358SOL    HW284972   9.272   6.807   8.738
94359SOL     OW84973  11.621   2.478   2.432
94359SOL    HW184974  11.534   2.453   2.461
94359SOL    HW284975  11.663   2.396   2.406
94360SOL     OW84976  12.815   6.755   3.202
94360SOL    HW184977  12.910   6.752   3.206
94360SOL    HW284978  12.789   6.804   3.280
94361SOL     OW84979  10.340  12.086  13.932
94361SOL    HW184980  10.405  12.124  13.871
94361SOL    HW284981  10.258  12.128  13.908
94362SOL     OW84982  12.156  14.113  12.367
94362SOL    HW184983  12.112  14.050  12.310
94362SOL    HW284984  12.238  14.133  12.322
94363SOL     OW84985   0.161   5.062   0.876
94363SOL    HW184986   0.223   5.015   0.932
94363SOL    HW284987   0.158   5.010   0.796
94364SOL     OW84988  11.451   4.400   8.824
94364SOL    HW184989  11.520   4.384   8.888
94364SOL    HW284990  11.488   4.371   8.741
94365SOL     OW84991   1.046  12.494   8.468
94365SOL    HW184992   0.987  12.563   8.435
94365SOL    HW284993   1.032  12.420   8.409
94366SOL     OW84994   3.463   7.628   2.077
94366SOL    HW184995   3.374   7.653   2.102
94366SOL    HW284996   3.494   7.574   2.150
94367SOL     OW84997   4.982   5.390   6.766
94367SOL    HW184998   5.018   5.325   6.706
94367SOL    HW284999   4.929   5.446   6.710
94368SOL     OW85000   8.591   3.346   1.087
94368SOL    HW185001   8.642   3.404   1.143
94368SOL    HW285002   8.514   3.397   1.062
94369SOL     OW85003   6.454  10.809  11.826
94369SOL    HW185004   6.379  10.862  11.850
94369SOL    HW285005   6.511  10.811  11.903
94370SOL     OW85006   4.147  14.232   7.503
94370SOL    HW185007   4.178  14.214   7.592
94370SOL    HW285008   4.142  14.147   7.461
94371SOL     OW85009   2.644  14.338   3.690
94371SOL    HW185010   2.624  14.337   3.597
94371SOL    HW285011   2.652  14.431   3.711
94372SOL     OW85012   5.091  10.681   8.327
94372SOL    HW185013   5.053  10.730   8.254
94372SOL    HW285014   5.025  10.616   8.350
94373SOL     OW85015   5.828   0.368  14.658
94373SOL    HW185016   5.833   0.322  14.574
94373SOL    HW285017   5.735   0.374  14.676
94374SOL     OW85018  12.749  12.048   2.298
94374SOL    HW185019  12.667  12.023   2.254
94374SOL    HW285020  12.796  12.100   2.233
94375SOL     OW85021   0.902   2.039   3.415
94375SOL    HW185022   0.974   2.071   3.468
94375SOL    HW285023   0.913   1.944   3.413
94376SOL     OW85024   1.448  13.108   9.595
94376SOL    HW185025   1.480  13.196   9.614
94376SOL    HW285026   1.384  13.091   9.664
94377SOL     OW85027  13.722  14.374   7.946
94377SOL    HW185028  13.748  14.296   7.897
94377SOL    HW285029  13.733  14.350   8.038
94378SOL     OW85030   0.608   6.388   1.153
94378SOL    HW185031   0.657   6.433   1.084
94378SOL    HW285032   0.613   6.295   1.129
94379SOL     OW85033   2.555  14.842  11.543
94379SOL    HW185034   2.596  14.850  11.457
94379SOL    HW285035   2.471   0.014  11.533
94380SOL     OW85036   7.359   8.043   9.867
94380SOL    HW185037   7.297   8.018   9.799
94380SOL    HW285038   7.442   8.055   9.821
94381SOL     OW85039   5.349   1.875   3.734
94381SOL    HW185040   5.320   1.784   3.735
94381SOL    HW285041   5.390   1.887   3.649
94382SOL     OW85042   7.562   7.914   3.926
94382SOL    HW185043   7.571   7.830   3.972
94382SOL    HW285044   7.623   7.908   3.852
94383SOL     OW85045   3.945  13.317  14.139
94383SOL    HW185046   3.884  13.300  14.068
94383SOL    HW285047   4.031  13.293  14.103
94384SOL     OW85048   7.406   2.125   4.314
94384SOL    HW185049   7.389   2.043   4.360
94384SOL    HW285050   7.438   2.098   4.228
94385SOL     OW85051   2.097   3.514   5.201
94385SOL    HW185052   2.084   3.509   5.106
94385SOL    HW285053   2.192   3.522   5.212
94386SOL     OW85054   2.632  14.693   1.038
94386SOL    HW185055   2.650  14.779   0.999
94386SOL    HW285056   2.576  14.713   1.114
94387SOL     OW85057  13.869   4.236   3.708
94387SOL    HW185058  13.864   4.141   3.721
94387SOL    HW285059  13.801   4.255   3.644
94388SOL     OW85060  10.808   5.543  10.736
94388SOL    HW185061  10.714   5.543  10.717
94388SOL    HW285062  10.849   5.546  10.650
94389SOL     OW85063   6.473   1.788  13.101
94389SOL    HW185064   6.434   1.872  13.078
94389SOL    HW285065   6.447   1.774  13.192
94390SOL     OW85066   2.065   0.225   4.091
94390SOL    HW185067   2.086   0.284   4.019
94390SOL    HW285068   2.142   0.169   4.100
94391SOL     OW85069   6.948   0.494  10.954
94391SOL    HW185070   7.021   0.554  10.942
94391SOL    HW285071   6.988   0.407  10.952
94392SOL     OW85072   8.783   6.315   9.245
94392SOL    HW185073   8.840   6.269   9.183
94392SOL    HW285074   8.772   6.253   9.317
94393SOL     OW85075  10.787   1.688   9.099
94393SOL    HW185076  10.765   1.595   9.096
94393SOL    HW285077  10.797   1.714   9.007
94394SOL     OW85078   0.920   0.541   4.615
94394SOL    HW185079   0.906   0.592   4.695
94394SOL    HW285080   0.971   0.600   4.558
94395SOL     OW85081   7.099   6.141   4.735
94395SOL    HW185082   7.188   6.130   4.702
94395SOL    HW285083   7.056   6.057   4.717
94396SOL     OW85084   0.758   2.533   1.026
94396SOL    HW185085   0.705   2.607   1.056
94396SOL    HW285086   0.842   2.573   1.003
94397SOL     OW85087   7.318   8.621   6.679
94397SOL    HW185088   7.343   8.532   6.656
94397SOL    HW285089   7.223   8.620   6.679
94398SOL     OW85090   9.419   6.703   0.847
94398SOL    HW185091   9.476   6.653   0.906
94398SOL    HW285092   9.444   6.674   0.759
94399SOL     OW85093   7.000  10.106  11.509
94399SOL    HW185094   6.995  10.107  11.604
94399SOL    HW285095   7.007  10.199  11.484
94400SOL     OW85096   5.267  13.845  14.056
94400SOL    HW185097   5.264  13.749  14.054
94400SOL    HW285098   5.191  13.872  14.005
94401SOL     OW85099   3.095  11.882   9.283
94401SOL    HW185100   3.014  11.922   9.253
94401SOL    HW285101   3.086  11.789   9.263
94402SOL     OW85102  11.146  11.600   2.804
94402SOL    HW185103  11.224  11.602   2.859
94402SOL    HW285104  11.123  11.507   2.799
94403SOL     OW85105   9.605  13.930  11.503
94403SOL    HW185106   9.582  13.945  11.594
94403SOL    HW285107   9.523  13.940  11.455
94404SOL     OW85108  11.469   5.521   8.696
94404SOL    HW185109  11.411   5.446   8.692
94404SOL    HW285110  11.514   5.512   8.781
94405SOL     OW85111  12.849   8.225   6.392
94405SOL    HW185112  12.903   8.210   6.470
94405SOL    HW285113  12.767   8.178   6.411
94406SOL     OW85114   1.563   6.970  14.227
94406SOL    HW185115   1.517   6.886  14.222
94406SOL    HW285116   1.536   7.017  14.148
94407SOL     OW85117   2.351   9.159   7.260
94407SOL    HW185118   2.324   9.067   7.272
94407SOL    HW285119   2.445   9.154   7.246
94408SOL     OW85120  13.161   1.416   3.734
94408SOL    HW185121  13.188   1.488   3.791
94408SOL    HW285122  13.099   1.365   3.787
94409SOL     OW85123   9.988   5.907   7.541
94409SOL    HW185124  10.040   5.842   7.493
94409SOL    HW285125   9.898   5.875   7.533
94410SOL     OW85126  11.790  10.617   8.701
94410SOL    HW185127  11.714  10.651   8.653
94410SOL    HW285128  11.836  10.563   8.637
94411SOL     OW85129   1.928   5.317   1.615
94411SOL    HW185130   2.000   5.380   1.601
94411SOL    HW285131   1.967   5.248   1.667
94412SOL     OW85132   8.908   1.868   0.172
94412SOL    HW185133   8.971   1.800   0.199
94412SOL    HW285134   8.856   1.885   0.251
94413SOL     OW85135   9.930  11.669  12.965
94413SOL    HW185136   9.929  11.764  12.963
94413SOL    HW285137   9.921  11.643  12.873
94414SOL     OW85138  13.472   1.791   0.185
94414SOL    HW185139  13.384   1.819   0.210
94414SOL    HW285140  13.469   1.785   0.090
94415SOL     OW85141  14.808   0.580   4.843
94415SOL    HW185142  14.744   0.599   4.775
94415SOL    HW285143  14.855   0.503   4.812
94416SOL     OW85144   1.917  10.833   9.341
94416SOL    HW185145   1.824  10.853   9.345
94416SOL    HW285146   1.951  10.863   9.426
94417SOL     OW85147   8.887  14.331   8.573
94417SOL    HW185148   8.805  14.350   8.526
94417SOL    HW285149   8.951  14.389   8.534
94418SOL     OW85150   4.250  13.756   1.452
94418SOL    HW185151   4.243  13.801   1.536
94418SOL    HW285152   4.325  13.696   1.464
94419SOL     OW85153   0.220   3.798   5.394
94419SOL    HW185154   0.275   3.723   5.416
94419SOL    HW285155   0.244   3.820   5.304
94420SOL     OW85156  12.095  13.741   9.369
94420SOL    HW185157  12.112  13.650   9.343
94420SOL    HW285158  12.002  13.743   9.389
94421SOL     OW85159   9.449  10.540  10.935
94421SOL    HW185160   9.394  10.474  10.978
94421SOL    HW285161   9.447  10.615  10.993
94422SOL     OW85162  12.881  10.658   0.577
94422SOL    HW185163  12.975  10.645   0.587
94422SOL    HW285164  12.866  10.653   0.483
94423SOL     OW85165   0.285   3.056   9.984
94423SOL    HW185166   0.306   2.964  10.003
94423SOL    HW285167   0.189   3.059   9.985
94424SOL     OW85168  12.856   0.099   7.653
94424SOL    HW185169  12.923   0.062   7.710
94424SOL    HW285170  12.901   0.115   7.570
94425SOL     OW85171   3.673  12.634   7.079
94425SOL    HW185172   3.608  12.565   7.089
94425SOL    HW285173   3.622  12.713   7.059
94426SOL     OW85174  12.093   6.938   7.658
94426SOL    HW185175  12.113   6.860   7.709
94426SOL    HW285176  11.998   6.950   7.666
94427SOL     OW85177   2.995  14.293   5.099
94427SOL    HW185178   3.015  14.371   5.047
94427SOL    HW285179   3.078  14.272   5.142
94428SOL     OW85180   5.663  10.758   2.757
94428SOL    HW185181   5.607  10.798   2.690
94428SOL    HW285182   5.752  10.782   2.732
94429SOL     OW85183   0.369   1.650   8.330
94429SOL    HW185184   0.402   1.679   8.245
94429SOL    HW285185   0.448   1.638   8.383
94430SOL     OW85186   9.849  10.514   2.771
94430SOL    HW185187   9.834  10.590   2.827
94430SOL    HW285188   9.823  10.439   2.825
94431SOL     OW85189   0.472   8.859   7.267
94431SOL    HW185190   0.401   8.876   7.206
94431SOL    HW285191   0.452   8.914   7.343
94432SOL     OW85192  11.839   8.097  10.924
94432SOL    HW185193  11.848   8.065  11.014
94432SOL    HW285194  11.888   8.034  10.872
94433SOL     OW85195   4.540  14.335   3.203
94433SOL    HW185196   4.532  14.284   3.283
94433SOL    HW285197   4.628  14.316   3.170
94434SOL     OW85198   4.491  11.039   9.044
94434SOL    HW185199   4.492  11.097   9.120
94434SOL    HW285200   4.545  11.084   8.979
94435SOL     OW85201  12.981   4.540  11.241
94435SOL    HW185202  13.025   4.625  11.251
94435SOL    HW285203  13.032   4.496  11.172
94436SOL     OW85204   3.628  14.236   3.430
94436SOL    HW185205   3.558  14.298   3.409
94436SOL    HW285206   3.583  14.164   3.473
94437SOL     OW85207   3.562  14.783   0.841
94437SOL    HW185208   3.519  14.793   0.756
94437SOL    HW285209   3.502  14.826   0.902
94438SOL     OW85210   6.901  11.192   8.499
94438SOL    HW185211   6.808  11.196   8.522
94438SOL    HW285212   6.915  11.100   8.475
94439SOL     OW85213   4.845   3.692  14.175
94439SOL    HW185214   4.785   3.673  14.247
94439SOL    HW285215   4.907   3.619  14.175
94440SOL     OW85216   7.025   3.743   2.632
94440SOL    HW185217   7.054   3.834   2.626
94440SOL    HW285218   7.094   3.694   2.586
94441SOL     OW85219   7.856   1.492   4.934
94441SOL    HW185220   7.902   1.414   4.903
94441SOL    HW285221   7.798   1.516   4.862
94442SOL     OW85222   7.728  12.867   0.385
94442SOL    HW185223   7.677  12.853   0.465
94442SOL    HW285224   7.764  12.781   0.364
94443SOL     OW85225   0.996   9.921   3.116
94443SOL    HW185226   1.072   9.879   3.075
94443SOL    HW285227   1.028   9.954   3.200
94444SOL     OW85228  12.122  11.081   8.622
94444SOL    HW185229  12.070  11.005   8.647
94444SOL    HW285230  12.075  11.156   8.657
94445SOL     OW85231   2.248   9.716  11.375
94445SOL    HW185232   2.168   9.702  11.325
94445SOL    HW285233   2.221   9.709  11.467
94446SOL     OW85234   5.546  14.370   6.628
94446SOL    HW185235   5.615  14.407   6.682
94446SOL    HW285236   5.507  14.445   6.583
94447SOL     OW85237   3.666  11.904  12.328
94447SOL    HW185238   3.686  11.850  12.406
94447SOL    HW285239   3.642  11.840  12.261
94448SOL     OW85240   7.476   8.469   7.881
94448SOL    HW185241   7.504   8.540   7.939
94448SOL    HW285242   7.423   8.412   7.937
94449SOL     OW85243  14.485   3.364  10.637
94449SOL    HW185244  14.475   3.379  10.543
94449SOL    HW285245  14.395   3.360  10.670
94450SOL     OW85246   5.343   3.749   4.099
94450SOL    HW185247   5.376   3.825   4.146
94450SOL    HW285248   5.310   3.691   4.168
94451SOL     OW85249   8.565  14.512   9.602
94451SOL    HW185250   8.481  14.469   9.620
94451SOL    HW285251   8.605  14.522   9.688
94452SOL     OW85252   8.183   8.786   4.240
94452SOL    HW185253   8.113   8.772   4.175
94452SOL    HW285254   8.239   8.709   4.232
94453SOL     OW85255  10.819   6.414   9.120
94453SOL    HW185256  10.829   6.480   9.052
94453SOL    HW285257  10.875   6.444   9.192
94454SOL     OW85258   4.555   5.653   7.303
94454SOL    HW185259   4.578   5.596   7.376
94454SOL    HW285260   4.632   5.709   7.291
94455SOL     OW85261   9.959   0.902  12.336
94455SOL    HW185262   9.933   0.858  12.417
94455SOL    HW285263  10.038   0.951  12.359
94456SOL     OW85264  13.090   6.173   4.323
94456SOL    HW185265  13.110   6.192   4.415
94456SOL    HW285266  13.085   6.078   4.318
94457SOL     OW85267   5.893   2.941   4.808
94457SOL    HW185268   5.970   2.992   4.832
94457SOL    HW285269   5.924   2.851   4.801
94458SOL     OW85270   6.169  13.160  10.911
94458SOL    HW185271   6.137  13.236  10.862
94458SOL    HW285272   6.203  13.197  10.993
94459SOL     OW85273   2.839   6.920  14.707
94459SOL    HW185274   2.782   6.969  14.766
94459SOL    HW285275   2.892   6.866  14.765
94460SOL     OW85276   5.827   8.975   7.610
94460SOL    HW185277   5.893   9.007   7.671
94460SOL    HW285278   5.846   8.881   7.601
94461SOL     OW85279  14.474   6.426   4.592
94461SOL    HW185280  14.511   6.501   4.638
94461SOL    HW285281  14.385   6.452   4.570
94462SOL     OW85282  12.763   0.677   6.565
94462SOL    HW185283  12.803   0.610   6.621
94462SOL    HW285284  12.814   0.674   6.484
94463SOL     OW85285   9.637   1.426   6.517
94463SOL    HW185286   9.605   1.342   6.485
94463SOL    HW285287   9.722   1.406   6.557
94464SOL     OW85288   3.386   9.348  14.248
94464SOL    HW185289   3.395   9.426  14.303
94464SOL    HW285290   3.296   9.350  14.218
94465SOL     OW85291   0.107   7.304   2.479
94465SOL    HW185292   0.099   7.262   2.393
94465SOL    HW285293   0.200   7.299   2.500
94466SOL     OW85294   1.623  12.742  12.352
94466SOL    HW185295   1.539  12.780  12.380
94466SOL    HW285296   1.680  12.753  12.428
94467SOL     OW85297  14.255   5.434   5.335
94467SOL    HW185298  14.258   5.388   5.251
94467SOL    HW285299  14.174   5.402   5.376
94468SOL     OW85300   6.381  13.747  11.171
94468SOL    HW185301   6.291  13.716  11.180
94468SOL    HW285302   6.380  13.833  11.213
94469SOL     OW85303   2.236  13.214   8.020
94469SOL    HW185304   2.207  13.180   7.935
94469SOL    HW285305   2.331  13.226   8.009
94470SOL     OW85306   9.064  13.963   8.917
94470SOL    HW185307   9.065  14.021   8.841
94470SOL    HW285308   9.083  13.876   8.882
94471SOL     OW85309   3.003   6.100   9.205
94471SOL    HW185310   3.037   6.076   9.119
94471SOL    HW285311   3.071   6.072   9.266
94472SOL     OW85312  14.156   8.827   0.902
94472SOL    HW185313  14.145   8.878   0.822
94472SOL    HW285314  14.236   8.861   0.942
94473SOL     OW85315   9.646  12.321   1.753
94473SOL    HW185316   9.653  12.298   1.845
94473SOL    HW285317   9.736  12.320   1.721
94474SOL     OW85318   0.624   3.663   5.296
94474SOL    HW185319   0.571   3.664   5.217
94474SOL    HW285320   0.691   3.730   5.280
94475SOL     OW85321   1.169   6.540  11.224
94475SOL    HW185322   1.181   6.601  11.297
94475SOL    HW285323   1.149   6.457  11.265
94476SOL     OW85324  13.052  12.518  14.120
94476SOL    HW185325  13.129  12.538  14.173
94476SOL    HW285326  13.088  12.486  14.037
94477SOL     OW85327   4.745   0.916   5.613
94477SOL    HW185328   4.838   0.918   5.590
94477SOL    HW285329   4.721   0.823   5.607
94478SOL     OW85330  13.272  11.212  14.803
94478SOL    HW185331  13.251  11.281  14.740
94478SOL    HW285332  13.272  11.255   0.016
94479SOL     OW85333   0.533  11.895   2.759
94479SOL    HW185334   0.584  11.973   2.781
94479SOL    HW285335   0.516  11.853   2.844
94480SOL     OW85336   6.774   2.249   7.343
94480SOL    HW185337   6.832   2.325   7.344
94480SOL    HW285338   6.690   2.283   7.311
94481SOL     OW85339   7.665   8.853   1.481
94481SOL    HW185340   7.681   8.934   1.529
94481SOL    HW285341   7.676   8.876   1.389
94482SOL     OW85342   1.956   8.664   8.309
94482SOL    HW185343   1.897   8.652   8.235
94482SOL    HW285344   2.020   8.593   8.301
94483SOL     OW85345   5.323   1.153  10.459
94483SOL    HW185346   5.405   1.141  10.411
94483SOL    HW285347   5.346   1.216  10.528
94484SOL     OW85348   3.083  11.077  10.353
94484SOL    HW185349   3.072  11.159  10.400
94484SOL    HW285350   3.033  11.013  10.403
94485SOL     OW85351   4.422   2.756  10.954
94485SOL    HW185352   4.385   2.669  10.968
94485SOL    HW285353   4.417   2.768  10.859
94486SOL     OW85354   5.711  11.702   3.659
94486SOL    HW185355   5.622  11.690   3.692
94486SOL    HW285356   5.724  11.631   3.597
94487SOL     OW85357   6.750   5.319  13.167
94487SOL    HW185358   6.741   5.238  13.216
94487SOL    HW285359   6.660   5.348  13.152
94488SOL     OW85360   6.948   1.349  10.771
94488SOL    HW185361   6.900   1.321  10.849
94488SOL    HW285362   6.880   1.374  10.709
94489SOL     OW85363   6.347   6.535   8.157
94489SOL    HW185364   6.381   6.582   8.233
94489SOL    HW285365   6.403   6.457   8.151
94490SOL     OW85366  14.197  12.477   4.994
94490SOL    HW185367  14.243  12.560   4.982
94490SOL    HW285368  14.111  12.492   4.957
94491SOL     OW85369   7.821  12.281  11.065
94491SOL    HW185370   7.814  12.202  11.118
94491SOL    HW285371   7.901  12.324  11.094
94492SOL     OW85372   7.010  11.431   8.307
94492SOL    HW185373   6.995  11.339   8.287
94492SOL    HW285374   7.007  11.435   8.403
94493SOL     OW85375   8.819  10.481   6.247
94493SOL    HW185376   8.833  10.396   6.289
94493SOL    HW285377   8.745  10.467   6.188
94494SOL     OW85378   7.331   1.130   5.375
94494SOL    HW185379   7.246   1.174   5.372
94494SOL    HW285380   7.318   1.050   5.325
94495SOL     OW85381  14.019   8.462   4.885
94495SOL    HW185382  14.039   8.540   4.832
94495SOL    HW285383  14.100   8.445   4.933
94496SOL     OW85384   9.560   3.949   2.922
94496SOL    HW185385   9.550   4.025   2.865
94496SOL    HW285386   9.590   3.986   3.005
94497SOL     OW85387  11.146  14.463   1.350
94497SOL    HW185388  11.231  14.483   1.310
94497SOL    HW285389  11.140  14.367   1.346
94498SOL     OW85390   4.327   9.078   7.399
94498SOL    HW185391   4.418   9.049   7.402
94498SOL    HW285392   4.331   9.168   7.368
94499SOL     OW85393   5.452  14.080  11.137
94499SOL    HW185394   5.495  14.033  11.066
94499SOL    HW285395   5.424  14.012  11.198
94500SOL     OW85396   4.586   0.011  12.764
94500SOL    HW185397   4.612   0.019  12.672
94500SOL    HW285398   4.588   0.100  12.798
94501SOL     OW85399   8.670   3.319  12.825
94501SOL    HW185400   8.710   3.238  12.855
94501SOL    HW285401   8.611   3.345  12.895
94502SOL     OW85402  14.224   4.309   5.198
94502SOL    HW185403  14.159   4.378   5.212
94502SOL    HW285404  14.255   4.287   5.285
94503SOL     OW85405   0.917   0.717   7.578
94503SOL    HW185406   0.837   0.763   7.555
94503SOL    HW285407   0.890   0.626   7.590
94504SOL     OW85408  13.672   8.249  11.395
94504SOL    HW185409  13.716   8.164  11.384
94504SOL    HW285410  13.740   8.307  11.429
94505SOL     OW85411  13.542   4.291   1.301
94505SOL    HW185412  13.619   4.244   1.330
94505SOL    HW285413  13.576   4.359   1.242
94506SOL     OW85414   8.134  12.232   6.005
94506SOL    HW185415   8.060  12.173   5.994
94506SOL    HW285416   8.106  12.294   6.072
94507SOL     OW85417   4.190  12.520   3.121
94507SOL    HW185418   4.236  12.443   3.155
94507SOL    HW285419   4.232  12.594   3.165
94508SOL     OW85420  12.331  12.524   7.208
94508SOL    HW185421  12.269  12.541   7.279
94508SOL    HW285422  12.385  12.451   7.241
94509SOL     OW85423   0.075   8.810  12.996
94509SOL    HW185424   0.105   8.900  13.003
94509SOL    HW285425   0.007   8.802  13.063
94510SOL     OW85426   2.952  11.753   8.592
94510SOL    HW185427   2.997  11.836   8.578
94510SOL    HW285428   2.872  11.776   8.640
94511SOL     OW85429  13.796   5.719  10.840
94511SOL    HW185430  13.837   5.806  10.845
94511SOL    HW285431  13.740   5.723  10.763
94512SOL     OW85432  10.378   5.489  11.859
94512SOL    HW185433  10.356   5.396  11.867
94512SOL    HW285434  10.385   5.504  11.765
94513SOL     OW85435   3.213   1.022  13.552
94513SOL    HW185436   3.258   1.093  13.600
94513SOL    HW285437   3.196   0.956  13.619
94514SOL     OW85438   4.845   5.283  12.940
94514SOL    HW185439   4.798   5.310  12.861
94514SOL    HW285440   4.937   5.303  12.921
94515SOL     OW85441   3.427   0.023   6.296
94515SOL    HW185442   3.425   0.051   6.204
94515SOL    HW285443   3.489   0.082   6.338
94516SOL     OW85444  14.610   2.914  13.723
94516SOL    HW185445  14.627   2.965  13.802
94516SOL    HW285446  14.517   2.928  13.704
94517SOL     OW85447   9.905  11.886   0.191
94517SOL    HW185448   9.968  11.912   0.124
94517SOL    HW285449   9.850  11.821   0.148
94518SOL     OW85450  11.008  11.115  11.328
94518SOL    HW185451  11.088  11.164  11.342
94518SOL    HW285452  10.942  11.161  11.381
94519SOL     OW85453  12.624  14.365   3.684
94519SOL    HW185454  12.660  14.359   3.595
94519SOL    HW285455  12.701  14.374   3.740
94520SOL     OW85456   7.034  11.849   2.169
94520SOL    HW185457   6.970  11.800   2.117
94520SOL    HW285458   7.117  11.836   2.124
94521SOL     OW85459  13.428   4.203   9.916
94521SOL    HW185460  13.359   4.199   9.850
94521SOL    HW285461  13.402   4.277   9.972
94522SOL     OW85462   3.988   5.280   9.573
94522SOL    HW185463   3.971   5.330   9.653
94522SOL    HW285464   3.985   5.189   9.600
94523SOL     OW85465   9.207   3.720   6.113
94523SOL    HW185466   9.302   3.716   6.115
94523SOL    HW285467   9.186   3.728   6.020
94524SOL     OW85468  11.997   0.982   9.377
94524SOL    HW185469  12.022   0.891   9.361
94524SOL    HW285470  12.046   1.032   9.312
94525SOL     OW85471  13.887   1.866  12.620
94525SOL    HW185472  13.926   1.947  12.652
94525SOL    HW285473  13.901   1.803  12.691
94526SOL     OW85474   5.231   1.588   6.349
94526SOL    HW185475   5.322   1.561   6.360
94526SOL    HW285476   5.213   1.644   6.425
94527SOL     OW85477  10.008   0.202   1.559
94527SOL    HW185478   9.965   0.118   1.544
94527SOL    HW285479  10.077   0.183   1.623
94528SOL     OW85480   2.556  13.460   0.366
94528SOL    HW185481   2.501  13.499   0.434
94528SOL    HW285482   2.512  13.377   0.346
94529SOL     OW85483   3.649   6.523   6.734
94529SOL    HW185484   3.665   6.450   6.794
94529SOL    HW285485   3.733   6.569   6.730
94530SOL     OW85486   6.885   7.713  13.412
94530SOL    HW185487   6.837   7.714  13.329
94530SOL    HW285488   6.831   7.660  13.470
94531SOL     OW85489   0.976   6.288   0.713
94531SOL    HW185490   0.980   6.339   0.793
94531SOL    HW285491   1.035   6.333   0.652
94532SOL     OW85492   3.581   8.250   0.052
94532SOL    HW185493   3.495   8.211   0.069
94532SOL    HW285494   3.564   8.324  14.866
94533SOL     OW85495  14.121   7.549   0.002
94533SOL    HW185496  14.095   7.470   0.049
94533SOL    HW285497  14.151   7.517  14.788
94534SOL     OW85498   6.448  10.205   7.342
94534SOL    HW185499   6.522  10.192   7.282
94534SOL    HW285500   6.479  10.170   7.426
94535SOL     OW85501   1.505   0.990   9.221
94535SOL    HW185502   1.569   1.051   9.183
94535SOL    HW285503   1.528   0.905   9.184
94536SOL     OW85504   0.698   6.622   9.171
94536SOL    HW185505   0.648   6.576   9.239
94536SOL    HW285506   0.637   6.686   9.135
94537SOL     OW85507  11.771  12.817   4.378
94537SOL    HW185508  11.833  12.809   4.305
94537SOL    HW285509  11.713  12.889   4.352
94538SOL     OW85510   1.015  14.619   9.204
94538SOL    HW185511   1.103  14.598   9.174
94538SOL    HW285512   0.977  14.535   9.229
94539SOL     OW85513  13.678   9.011   2.398
94539SOL    HW185514  13.766   9.007   2.435
94539SOL    HW285515  13.620   9.019   2.474
94540SOL     OW85516   6.795   1.118   5.117
94540SOL    HW185517   6.830   1.035   5.084
94540SOL    HW285518   6.759   1.161   5.039
94541SOL     OW85519   7.209   5.435   4.743
94541SOL    HW185520   7.295   5.424   4.702
94541SOL    HW285521   7.181   5.346   4.763
94542SOL     OW85522   2.188   0.454   8.100
94542SOL    HW185523   2.122   0.499   8.153
94542SOL    HW285524   2.204   0.514   8.027
94543SOL     OW85525   1.869   4.507   8.058
94543SOL    HW185526   1.885   4.557   7.979
94543SOL    HW285527   1.774   4.513   8.072
94544SOL     OW85528  12.616  13.465  10.258
94544SOL    HW185529  12.529  13.437  10.289
94544SOL    HW285530  12.660  13.383  10.235
94545SOL     OW85531   4.049   3.569  11.332
94545SOL    HW185532   4.051   3.582  11.427
94545SOL    HW285533   4.127   3.614  11.300
94546SOL     OW85534   9.161   8.852   6.562
94546SOL    HW185535   9.072   8.857   6.527
94546SOL    HW285536   9.197   8.939   6.549
94547SOL     OW85537   3.827  12.554   7.950
94547SOL    HW185538   3.767  12.482   7.930
94547SOL    HW285539   3.912  12.524   7.919
94548SOL     OW85540   1.292   5.265   4.586
94548SOL    HW185541   1.249   5.249   4.502
94548SOL    HW285542   1.382   5.289   4.562
94549SOL     OW85543   4.209   9.280   5.329
94549SOL    HW185544   4.127   9.258   5.284
94549SOL    HW285545   4.202   9.237   5.414
94550SOL     OW85546   3.111  14.368   7.565
94550SOL    HW185547   3.070  14.449   7.535
94550SOL    HW285548   3.184  14.354   7.504
94551SOL     OW85549   7.072   2.672   9.574
94551SOL    HW185550   7.078   2.766   9.557
94551SOL    HW285551   7.161   2.645   9.597
94552SOL     OW85552  11.517   0.083  11.464
94552SOL    HW185553  11.439   0.069  11.410
94552SOL    HW285554  11.528   0.001  11.512
94553SOL     OW85555   8.248   0.263   6.646
94553SOL    HW185556   8.271   0.176   6.678
94553SOL    HW285557   8.233   0.314   6.726
94554SOL     OW85558   1.896   4.503   3.358
94554SOL    HW185559   1.820   4.491   3.300
94554SOL    HW285560   1.860   4.540   3.438
94555SOL     OW85561   3.077  11.572   6.298
94555SOL    HW185562   3.086  11.594   6.205
94555SOL    HW285563   3.022  11.643   6.334
94556SOL     OW85564   4.593   1.976   8.367
94556SOL    HW185565   4.562   1.991   8.278
94556SOL    HW285566   4.601   1.881   8.374
94557SOL     OW85567   1.027   1.940   9.315
94557SOL    HW185568   0.972   1.929   9.392
94557SOL    HW285569   1.113   1.963   9.350
94558SOL     OW85570   1.950   8.837   9.307
94558SOL    HW185571   1.939   8.932   9.311
94558SOL    HW285572   1.971   8.812   9.397
94559SOL     OW85573   2.538  13.596  13.376
94559SOL    HW185574   2.466  13.573  13.318
94559SOL    HW285575   2.599  13.523  13.368
94560SOL     OW85576   9.306   2.793  13.123
94560SOL    HW185577   9.233   2.763  13.070
94560SOL    HW285578   9.298   2.743  13.205
94561SOL     OW85579   0.222   5.726  11.691
94561SOL    HW185580   0.271   5.762  11.766
94561SOL    HW285581   0.289   5.711  11.624
94562SOL     OW85582   8.086  11.303  13.878
94562SOL    HW185583   8.154  11.358  13.915
94562SOL    HW285584   8.060  11.348  13.797
94563SOL     OW85585   4.404  13.164   5.430
94563SOL    HW185586   4.471  13.097   5.418
94563SOL    HW285587   4.408  13.185   5.523
94564SOL     OW85588   3.882   2.206   8.966
94564SOL    HW185589   3.881   2.210   8.870
94564SOL    HW285590   3.792   2.224   8.992
94565SOL     OW85591   9.940  11.642   3.519
94565SOL    HW185592   9.904  11.717   3.472
94565SOL    HW285593   9.973  11.584   3.451
94566SOL     OW85594   4.880   4.475   6.700
94566SOL    HW185595   4.943   4.545   6.682
94566SOL    HW285596   4.923   4.396   6.668
94567SOL     OW85597   0.701   6.370  10.467
94567SOL    HW185598   0.749   6.310  10.410
94567SOL    HW285599   0.685   6.320  10.547
94568SOL     OW85600  11.890  14.315  14.516
94568SOL    HW185601  11.830  14.337  14.445
94568SOL    HW285602  11.857  14.362  14.592
94569SOL     OW85603   1.112   1.397   7.578
94569SOL    HW185604   1.187   1.410   7.520
94569SOL    HW285605   1.036   1.398   7.520
94570SOL     OW85606  10.781  10.399  13.696
94570SOL    HW185607  10.724  10.477  13.699
94570SOL    HW285608  10.795  10.376  13.788
94571SOL     OW85609  13.810   0.331   6.483
94571SOL    HW185610  13.716   0.337   6.466
94571SOL    HW285611  13.815   0.277   6.563
94572SOL     OW85612   7.247   2.875   0.284
94572SOL    HW185613   7.239   2.860   0.378
94572SOL    HW285614   7.282   2.963   0.276
94573SOL     OW85615   5.627  14.463  10.884
94573SOL    HW185616   5.546  14.411  10.888
94573SOL    HW285617   5.597  14.552  10.866
94574SOL     OW85618   7.743   9.242   4.098
94574SOL    HW185619   7.746   9.324   4.049
94574SOL    HW285620   7.649   9.227   4.115
94575SOL     OW85621  12.936   6.506   7.075
94575SOL    HW185622  12.986   6.588   7.071
94575SOL    HW285623  12.856   6.530   7.121
94576SOL     OW85624   2.446   1.663   9.979
94576SOL    HW185625   2.465   1.647   9.886
94576SOL    HW285626   2.407   1.750   9.981
94577SOL     OW85627   3.041   1.780   2.370
94577SOL    HW185628   3.063   1.690   2.346
94577SOL    HW285629   3.009   1.819   2.289
94578SOL     OW85630  11.777   8.805   1.794
94578SOL    HW185631  11.803   8.888   1.755
94578SOL    HW285632  11.780   8.742   1.722
94579SOL     OW85633  11.834   8.903   1.476
94579SOL    HW185634  11.903   8.961   1.506
94579SOL    HW285635  11.878   8.820   1.456
94580SOL     OW85636   1.172   5.139   2.624
94580SOL    HW185637   1.182   5.118   2.531
94580SOL    HW285638   1.133   5.060   2.662
94581SOL     OW85639   5.155   8.551   7.335
94581SOL    HW185640   5.216   8.564   7.408
94581SOL    HW285641   5.129   8.639   7.308
94582SOL     OW85642  10.206   1.985   8.451
94582SOL    HW185643  10.190   2.059   8.392
94582SOL    HW285644  10.281   1.940   8.413
94583SOL     OW85645   0.626  11.892   7.522
94583SOL    HW185646   0.565  11.959   7.555
94583SOL    HW285647   0.709  11.913   7.563
94584SOL     OW85648   9.306   4.715   8.000
94584SOL    HW185649   9.395   4.710   8.034
94584SOL    HW285650   9.275   4.802   8.026
94585SOL     OW85651  12.567   6.148   0.479
94585SOL    HW185652  12.472   6.146   0.494
94585SOL    HW285653  12.596   6.231   0.515
94586SOL     OW85654   5.232   7.582   4.778
94586SOL    HW185655   5.255   7.490   4.769
94586SOL    HW285656   5.225   7.595   4.873
94587SOL     OW85657  10.335  14.365   6.468
94587SOL    HW185658  10.275  14.401   6.533
94587SOL    HW285659  10.351  14.275   6.497
94588SOL     OW85660  11.619  11.515  14.006
94588SOL    HW185661  11.703  11.488  14.045
94588SOL    HW285662  11.604  11.603  14.042
94589SOL     OW85663   1.699  12.474   1.875
94589SOL    HW185664   1.712  12.422   1.955
94589SOL    HW285665   1.661  12.556   1.905
94590SOL     OW85666  12.512  14.452  12.079
94590SOL    HW185667  12.525  14.536  12.123
94590SOL    HW285668  12.566  14.457  12.000
94591SOL     OW85669   0.856  13.987  12.031
94591SOL    HW185670   0.870  13.950  11.944
94591SOL    HW285671   0.767  14.023  12.027
94592SOL     OW85672   3.472   1.362   0.764
94592SOL    HW185673   3.399   1.344   0.824
94592SOL    HW285674   3.439   1.336   0.678
94593SOL     OW85675   2.285  13.424   5.062
94593SOL    HW185676   2.274  13.499   5.121
94593SOL    HW285677   2.195  13.396   5.043
94594SOL     OW85678  13.896  14.781  13.287
94594SOL    HW185679  13.849  14.764  13.205
94594SOL    HW285680  13.878  14.705  13.342
94595SOL     OW85681   2.144  14.642   8.719
94595SOL    HW185682   2.160  14.657   8.626
94595SOL    HW285683   2.197  14.708   8.763
94596SOL     OW85684  10.809   2.552   8.131
94596SOL    HW185685  10.767   2.494   8.067
94596SOL    HW285686  10.802   2.639   8.093
94597SOL     OW85687  10.342   6.951   2.999
94597SOL    HW185688  10.410   6.891   3.030
94597SOL    HW285689  10.326   6.924   2.908
94598SOL     OW85690   6.047  13.727  14.633
94598SOL    HW185691   5.980  13.731  14.702
94598SOL    HW285692   6.033  13.806  14.581
94599SOL     OW85693   1.756   7.460   8.312
94599SOL    HW185694   1.746   7.365   8.315
94599SOL    HW285695   1.777   7.479   8.221
94600SOL     OW85696  13.511  11.347   4.149
94600SOL    HW185697  13.542  11.380   4.233
94600SOL    HW285698  13.525  11.420   4.088
94601SOL     OW85699  13.584   2.068   4.703
94601SOL    HW185700  13.623   1.986   4.674
94601SOL    HW285701  13.574   2.057   4.798
94602SOL     OW85702  11.855   7.640   8.103
94602SOL    HW185703  11.925   7.575   8.116
94602SOL    HW285704  11.901   7.723   8.095
94603SOL     OW85705  11.968  12.978   5.271
94603SOL    HW185706  11.996  13.039   5.338
94603SOL    HW285707  12.050  12.948   5.231
94604SOL     OW85708  13.249   9.489   5.216
94604SOL    HW185709  13.344   9.488   5.220
94604SOL    HW285710  13.225   9.402   5.186
94605SOL     OW85711   1.425  14.832   1.489
94605SOL    HW185712   1.461   0.015   1.559
94605SOL    HW285713   1.344  14.796   1.526
94606SOL     OW85714  13.637  13.988   0.782
94606SOL    HW185715  13.607  13.967   0.871
94606SOL    HW285716  13.582  14.061   0.755
94607SOL     OW85717   2.561   7.704   7.979
94607SOL    HW185718   2.467   7.691   7.968
94607SOL    HW285719   2.589   7.633   8.037
94608SOL     OW85720   8.646   2.181  10.673
94608SOL    HW185721   8.555   2.203  10.653
94608SOL    HW285722   8.642   2.093  10.712
94609SOL     OW85723   2.035   8.177  10.929
94609SOL    HW185724   2.028   8.265  10.965
94609SOL    HW285725   2.129   8.159  10.928
94610SOL     OW85726   8.213   9.351  14.010
94610SOL    HW185727   8.195   9.302  14.090
94610SOL    HW285728   8.200   9.443  14.034
94611SOL     OW85729   8.478   4.382  12.678
94611SOL    HW185730   8.384   4.364  12.682
94611SOL    HW285731   8.516   4.303  12.639
94612SOL     OW85732   1.115   3.997   0.919
94612SOL    HW185733   1.119   4.092   0.915
94612SOL    HW285734   1.163   3.967   0.841
94613SOL     OW85735   9.085   2.499   9.977
94613SOL    HW185736   9.072   2.525  10.068
94613SOL    HW285737   9.179   2.489   9.968
94614SOL     OW85738   6.821   7.504   9.778
94614SOL    HW185739   6.771   7.442   9.830
94614SOL    HW285740   6.850   7.453   9.702
94615SOL     OW85741  12.769  13.576  11.697
94615SOL    HW185742  12.810  13.629  11.765
94615SOL    HW285743  12.676  13.598  11.702
94616SOL     OW85744  10.565   1.092   7.985
94616SOL    HW185745  10.567   1.032   7.910
94616SOL    HW285746  10.477   1.131   7.982
94617SOL     OW85747   7.248  13.975   2.853
94617SOL    HW185748   7.250  14.053   2.909
94617SOL    HW285749   7.309  13.915   2.896
94618SOL     OW85750   7.033  14.026  12.607
94618SOL    HW185751   6.943  14.049  12.628
94618SOL    HW285752   7.043  13.935  12.634
94619SOL     OW85753  13.857   3.537   0.758
94619SOL    HW185754  13.823   3.625   0.749
94619SOL    HW285755  13.942   3.539   0.714
94620SOL     OW85756   9.544  12.826  11.364
94620SOL    HW185757   9.620  12.774  11.338
94620SOL    HW285758   9.566  12.859  11.451
94621SOL     OW85759  14.159   3.154   3.014
94621SOL    HW185760  14.113   3.081   2.975
94621SOL    HW285761  14.096   3.226   3.013
94622SOL     OW85762   1.061   1.933   6.609
94622SOL    HW185763   0.969   1.909   6.594
94622SOL    HW285764   1.106   1.850   6.620
94623SOL     OW85765  12.717   5.688   5.849
94623SOL    HW185766  12.658   5.615   5.864
94623SOL    HW285767  12.692   5.721   5.762
94624SOL     OW85768   4.427   0.557  12.349
94624SOL    HW185769   4.418   0.472  12.392
94624SOL    HW285770   4.437   0.536  12.256
94625SOL     OW85771  11.849   3.845   5.139
94625SOL    HW185772  11.939   3.819   5.158
94625SOL    HW285773  11.850   3.940   5.147
94626SOL     OW85774   2.249  13.995  12.240
94626SOL    HW185775   2.244  13.960  12.328
94626SOL    HW285776   2.248  14.090  12.252
94627SOL     OW85777   0.311   1.536  10.074
94627SOL    HW185778   0.369   1.486  10.130
94627SOL    HW285779   0.271   1.601  10.132
94628SOL     OW85780  10.108   7.632   6.307
94628SOL    HW185781  10.185   7.580   6.286
94628SOL    HW285782  10.079   7.599   6.393
94629SOL     OW85783   1.108  13.918  12.955
94629SOL    HW185784   1.186  13.968  12.934
94629SOL    HW285785   1.080  13.881  12.872
94630SOL     OW85786  14.004   0.754  14.309
94630SOL    HW185787  13.950   0.743  14.388
94630SOL    HW285788  13.956   0.708  14.240
94631SOL     OW85789   6.968  12.756  12.565
94631SOL    HW185790   6.979  12.838  12.614
94631SOL    HW285791   6.896  12.773  12.505
94632SOL     OW85792  12.241  11.045   5.909
94632SOL    HW185793  12.282  11.094   5.981
94632SOL    HW285794  12.198  11.112   5.856
94633SOL     OW85795   2.811   1.225  12.448
94633SOL    HW185796   2.838   1.134  12.434
94633SOL    HW285797   2.788   1.230  12.540
94634SOL     OW85798   3.114   7.424  10.263
94634SOL    HW185799   3.062   7.420  10.183
94634SOL    HW285800   3.193   7.372  10.243
94635SOL     OW85801  11.106   3.123   4.539
94635SOL    HW185802  11.152   3.200   4.507
94635SOL    HW285803  11.013   3.147   4.539
94636SOL     OW85804   8.089   0.473   5.149
94636SOL    HW185805   7.997   0.497   5.142
94636SOL    HW285806   8.104   0.417   5.072
94637SOL     OW85807   8.171   7.183   0.863
94637SOL    HW185808   8.113   7.225   0.800
94637SOL    HW285809   8.114   7.158   0.936
94638SOL     OW85810  12.451   3.399  10.292
94638SOL    HW185811  12.363   3.366  10.309
94638SOL    HW285812  12.500   3.324  10.260
94639SOL     OW85813   5.748   4.213   5.182
94639SOL    HW185814   5.671   4.168   5.149
94639SOL    HW285815   5.720   4.254   5.264
94640SOL     OW85816   5.953   1.099   8.166
94640SOL    HW185817   5.880   1.081   8.226
94640SOL    HW285818   6.012   1.155   8.215
94641SOL     OW85819   5.031   9.343   2.226
94641SOL    HW185820   5.021   9.434   2.252
94641SOL    HW285821   5.123   9.322   2.242
94642SOL     OW85822  13.213   3.299  13.566
94642SOL    HW185823  13.199   3.393  13.550
94642SOL    HW285824  13.156   3.256  13.503
94643SOL     OW85825   7.944   9.437   1.146
94643SOL    HW185826   7.988   9.401   1.068
94643SOL    HW285827   7.878   9.497   1.111
94644SOL     OW85828   2.157   4.282  11.791
94644SOL    HW185829   2.213   4.274  11.867
94644SOL    HW285830   2.150   4.376  11.776
94645SOL     OW85831   3.263   6.252   6.370
94645SOL    HW185832   3.224   6.326   6.417
94645SOL    HW285833   3.309   6.203   6.437
94646SOL     OW85834  13.026   3.514   6.594
94646SOL    HW185835  13.025   3.449   6.664
94646SOL    HW285836  12.935   3.544   6.588
94647SOL     OW85837   4.734   0.914   2.511
94647SOL    HW185838   4.789   0.840   2.487
94647SOL    HW285839   4.661   0.911   2.449
94648SOL     OW85840   8.916   7.890  14.048
94648SOL    HW185841   8.874   7.969  14.081
94648SOL    HW285842   8.944   7.842  14.126
94649SOL     OW85843  11.585  10.091  13.114
94649SOL    HW185844  11.620  10.149  13.046
94649SOL    HW285845  11.536  10.149  13.173
94650SOL     OW85846   0.518   6.185   4.603
94650SOL    HW185847   0.501   6.233   4.522
94650SOL    HW285848   0.593   6.230   4.643
94651SOL     OW85849   0.311  12.436   9.711
94651SOL    HW185850   0.334  12.350   9.745
94651SOL    HW285851   0.220  12.449   9.736
94652SOL     OW85852   5.032  13.651   0.649
94652SOL    HW185853   5.122  13.620   0.633
94652SOL    HW285854   5.015  13.712   0.578
94653SOL     OW85855   6.343   5.654   9.461
94653SOL    HW185856   6.372   5.662   9.551
94653SOL    HW285857   6.342   5.560   9.443
94654SOL     OW85858   5.586   7.685   4.554
94654SOL    HW185859   5.663   7.681   4.612
94654SOL    HW285860   5.586   7.601   4.508
94655SOL     OW85861  13.778   5.076   5.651
94655SOL    HW185862  13.872   5.094   5.640
94655SOL    HW285863  13.773   5.018   5.727
94656SOL     OW85864  13.180  11.791   8.737
94656SOL    HW185865  13.252  11.764   8.794
94656SOL    HW285866  13.106  11.804   8.796
94657SOL     OW85867   5.685  10.615  13.517
94657SOL    HW185868   5.595  10.604  13.549
94657SOL    HW285869   5.677  10.602  13.422
94658SOL     OW85870  11.802  10.782   2.955
94658SOL    HW185871  11.805  10.862   3.008
94658SOL    HW285872  11.884  10.738   2.973
94659SOL     OW85873   0.935   6.822   5.434
94659SOL    HW185874   0.851   6.832   5.390
94659SOL    HW285875   0.996   6.875   5.382
94660SOL     OW85876  14.676   0.900   0.103
94660SOL    HW185877  14.618   0.974   0.117
94660SOL    HW285878  14.764   0.938   0.105
94661SOL     OW85879   3.395   8.661   5.365
94661SOL    HW185880   3.334   8.685   5.435
94661SOL    HW285881   3.480   8.693   5.395
94662SOL     OW85882   7.424   4.046   6.519
94662SOL    HW185883   7.330   4.031   6.527
94662SOL    HW285884   7.446   4.015   6.431
94663SOL     OW85885   5.035  10.290   1.031
94663SOL    HW185886   5.031  10.326   1.119
94663SOL    HW285887   4.989  10.207   1.036
94664SOL     OW85888  10.706   8.329  12.571
94664SOL    HW185889  10.670   8.310  12.485
94664SOL    HW285890  10.784   8.275  12.578
94665SOL     OW85891  10.087   1.970   5.312
94665SOL    HW185892  10.149   1.963   5.384
94665SOL    HW285893  10.001   1.969   5.354
94666SOL     OW85894   4.948   6.787  12.402
94666SOL    HW185895   4.985   6.722  12.461
94666SOL    HW285896   4.897   6.737  12.338
94667SOL     OW85897   2.557   0.016   5.742
94667SOL    HW185898   2.529  14.821   5.679
94667SOL    HW285899   2.643  14.859   5.771
94668SOL     OW85900   9.290   3.720   9.237
94668SOL    HW185901   9.274   3.665   9.160
94668SOL    HW285902   9.203   3.731   9.277
94669SOL     OW85903  14.645   1.010   0.400
94669SOL    HW185904  14.637   0.924   0.359
94669SOL    HW285905  14.691   0.994   0.482
94670SOL     OW85906   7.826  10.230   6.804
94670SOL    HW185907   7.890  10.299   6.818
94670SOL    HW285908   7.788  10.249   6.718
94671SOL     OW85909   8.193   2.157  12.784
94671SOL    HW185910   8.151   2.128  12.865
94671SOL    HW285911   8.134   2.128  12.715
94672SOL     OW85912   7.235   2.300  13.594
94672SOL    HW185913   7.289   2.221  13.602
94672SOL    HW285914   7.296   2.372  13.604
94673SOL     OW85915   2.619   1.042   5.008
94673SOL    HW185916   2.656   1.129   4.992
94673SOL    HW285917   2.629   1.028   5.102
94674SOL     OW85918   5.132   6.808   0.947
94674SOL    HW185919   5.056   6.830   0.894
94674SOL    HW285920   5.156   6.719   0.921
94675SOL     OW85921   4.453   2.951  12.060
94675SOL    HW185922   4.417   2.945  11.971
94675SOL    HW285923   4.383   2.920  12.117
94676SOL     OW85924   5.024  11.922   2.878
94676SOL    HW185925   4.985  12.006   2.854
94676SOL    HW285926   5.104  11.917   2.826
94677SOL     OW85927  11.442   7.101   2.606
94677SOL    HW185928  11.433   7.106   2.701
94677SOL    HW285929  11.360   7.060   2.577
94678SOL     OW85930   1.050  14.297   7.950
94678SOL    HW185931   1.023  14.384   7.980
94678SOL    HW285932   1.104  14.314   7.873
94679SOL     OW85933   6.074   2.353  12.041
94679SOL    HW185934   6.002   2.402  12.001
94679SOL    HW285935   6.046   2.262  12.036
94680SOL     OW85936   3.614  11.259   4.946
94680SOL    HW185937   3.705  11.265   4.974
94680SOL    HW285938   3.566  11.313   5.009
94681SOL     OW85939   1.651  14.449   8.413
94681SOL    HW185940   1.567  14.474   8.374
94681SOL    HW285941   1.671  14.364   8.374
94682SOL     OW85942  12.348  11.167  13.224
94682SOL    HW185943  12.280  11.201  13.283
94682SOL    HW285944  12.430  11.178  13.273
94683SOL     OW85945   1.796   5.493   8.623
94683SOL    HW185946   1.764   5.407   8.650
94683SOL    HW285947   1.758   5.506   8.536
94684SOL     OW85948  14.722  11.249  11.811
94684SOL    HW185949  14.632  11.246  11.777
94684SOL    HW285950  14.759  11.330  11.774
94685SOL     OW85951   1.245   7.487   8.197
94685SOL    HW185952   1.175   7.452   8.251
94685SOL    HW285953   1.322   7.433   8.220
94686SOL     OW85954   0.609   3.888   0.519
94686SOL    HW185955   0.549   3.840   0.461
94686SOL    HW285956   0.694   3.884   0.473
94687SOL     OW85957   6.489   0.076   9.743
94687SOL    HW185958   6.555   0.008   9.740
94687SOL    HW285959   6.437   0.063   9.663
94688SOL     OW85960   4.514  14.624  12.652
94688SOL    HW185961   4.556  14.702  12.688
94688SOL    HW285962   4.506  14.564  12.726
94689SOL     OW85963   8.762   9.451   5.211
94689SOL    HW185964   8.802   9.426   5.127
94689SOL    HW285965   8.797   9.387   5.274
94690SOL     OW85966  10.428   4.962   4.504
94690SOL    HW185967  10.349   5.015   4.502
94690SOL    HW285968  10.455   4.961   4.596
94691SOL     OW85969  13.856  14.273  12.785
94691SOL    HW185970  13.897  14.231  12.860
94691SOL    HW285971  13.784  14.324  12.823
94692SOL     OW85972  14.086  13.981   6.407
94692SOL    HW185973  14.057  13.995   6.317
94692SOL    HW285974  14.022  13.919   6.442
94693SOL     OW85975   9.342  12.661   9.531
94693SOL    HW185976   9.377  12.580   9.493
94693SOL    HW285977   9.291  12.701   9.461
94694SOL     OW85978   2.112  12.435   1.734
94694SOL    HW185979   2.037  12.462   1.681
94694SOL    HW285980   2.079  12.365   1.790
94695SOL     OW85981   7.277   2.164  14.639
94695SOL    HW185982   7.220   2.180  14.715
94695SOL    HW285983   7.300   2.251  14.607
94696SOL     OW85984   5.830   9.389   7.725
94696SOL    HW185985   5.741   9.376   7.756
94696SOL    HW285986   5.835   9.338   7.644
94697SOL     OW85987  10.561   3.345  12.282
94697SOL    HW185988  10.600   3.411  12.225
94697SOL    HW285989  10.493   3.305  12.228
94698SOL     OW85990   3.625  12.279  11.357
94698SOL    HW185991   3.530  12.290  11.352
94698SOL    HW285992   3.660  12.361  11.323
94699SOL     OW85993   7.820   1.759   4.727
94699SOL    HW185994   7.897   1.735   4.675
94699SOL    HW285995   7.756   1.690   4.708
94700SOL     OW85996  12.215   0.369  11.323
94700SOL    HW185997  12.174   0.390  11.406
94700SOL    HW285998  12.148   0.390  11.257
94701SOL     OW85999   7.893  10.674  12.684
94701SOL    HW186000   7.943  10.592  12.685
94701SOL    HW286001   7.957  10.740  12.657
94702SOL     OW86002  10.683  10.383   3.666
94702SOL    HW186003  10.763  10.405   3.715
94702SOL    HW286004  10.683  10.444   3.593
94703SOL     OW86005  13.023   7.531   3.680
94703SOL    HW186006  13.064   7.485   3.753
94703SOL    HW286007  12.975   7.603   3.722
94704SOL     OW86008   1.822  12.341   2.071
94704SOL    HW186009   1.778  12.296   2.143
94704SOL    HW286010   1.914  12.341   2.094
94705SOL     OW86011  13.048  14.030  10.886
94705SOL    HW186012  13.082  14.032  10.975
94705SOL    HW286013  12.953  14.022  10.896
94706SOL     OW86014  14.081  14.774  13.055
94706SOL    HW186015  14.025  14.743  13.127
94706SOL    HW286016  14.043  14.733  12.977
94707SOL     OW86017  14.523   8.625   5.554
94707SOL    HW186018  14.478   8.671   5.625
94707SOL    HW286019  14.586   8.688   5.520
94708SOL     OW86020  11.062   7.448   0.905
94708SOL    HW186021  11.020   7.513   0.961
94708SOL    HW286022  11.041   7.364   0.946
94709SOL     OW86023  12.189   4.186  11.864
94709SOL    HW186024  12.104   4.227  11.879
94709SOL    HW286025  12.168   4.095  11.841
94710SOL     OW86026   1.615  12.845   6.327
94710SOL    HW186027   1.590  12.757   6.297
94710SOL    HW286028   1.703  12.858   6.293
94711SOL     OW86029  11.881  14.398   0.862
94711SOL    HW186030  11.863  14.385   0.768
94711SOL    HW286031  11.896  14.310   0.895
94712SOL     OW86032   9.973   3.560  11.797
94712SOL    HW186033  10.045   3.522  11.747
94712SOL    HW286034   9.950   3.492  11.861
94713SOL     OW86035   7.869   0.631   8.757
94713SOL    HW186036   7.927   0.683   8.701
94713SOL    HW286037   7.803   0.693   8.787
94714SOL     OW86038   9.507   1.446  11.534
94714SOL    HW186039   9.515   1.528  11.584
94714SOL    HW286040   9.526   1.378  11.598
94715SOL     OW86041   4.360   5.880   7.992
94715SOL    HW186042   4.317   5.858   8.075
94715SOL    HW286043   4.452   5.858   8.007
94716SOL     OW86044   3.618   5.295  10.914
94716SOL    HW186045   3.591   5.384  10.940
94716SOL    HW286046   3.667   5.263  10.990
94717SOL     OW86047   7.175   5.342   8.354
94717SOL    HW186048   7.247   5.395   8.387
94717SOL    HW286049   7.098   5.371   8.404
94718SOL     OW86050  14.763   1.137  13.420
94718SOL    HW186051  14.767   1.230  13.396
94718SOL    HW286052  14.669   1.117  13.422
94719SOL     OW86053  10.977   3.536   0.405
94719SOL    HW186054  11.041   3.557   0.473
94719SOL    HW286055  10.946   3.448   0.427
94720SOL     OW86056   7.422   2.893   8.497
94720SOL    HW186057   7.359   2.893   8.425
94720SOL    HW286058   7.507   2.905   8.455
94721SOL     OW86059  12.875   7.655  13.870
94721SOL    HW186060  12.823   7.730  13.840
94721SOL    HW286061  12.877   7.665  13.965
94722SOL     OW86062  10.803   4.320   4.060
94722SOL    HW186063  10.739   4.389   4.041
94722SOL    HW286064  10.839   4.345   4.145
94723SOL     OW86065   2.926  12.026   3.499
94723SOL    HW186066   2.849  12.045   3.553
94723SOL    HW286067   3.000  12.051   3.553
94724SOL     OW86068   4.009  13.206  12.241
94724SOL    HW186069   4.026  13.300  12.247
94724SOL    HW286070   4.080  13.172  12.188
94725SOL     OW86071  10.129   8.816   4.626
94725SOL    HW186072  10.117   8.814   4.531
94725SOL    HW286073  10.104   8.904   4.652
94726SOL     OW86074  14.465  14.473   8.765
94726SOL    HW186075  14.475  14.529   8.842
94726SOL    HW286076  14.474  14.384   8.800
94727SOL     OW86077  12.596   3.571   0.280
94727SOL    HW186078  12.685   3.540   0.299
94727SOL    HW286079  12.539   3.518   0.335
94728SOL     OW86080   9.137   5.167   5.516
94728SOL    HW186081   9.174   5.229   5.578
94728SOL    HW286082   9.045   5.193   5.507
94729SOL     OW86083   4.857  11.179   6.527
94729SOL    HW186084   4.837  11.179   6.621
94729SOL    HW286085   4.778  11.213   6.485
94730SOL     OW86086   6.238   0.754  13.397
94730SOL    HW186087   6.321   0.727  13.437
94730SOL    HW286088   6.206   0.823  13.455
94731SOL     OW86089  10.781  11.664  11.032
94731SOL    HW186090  10.793  11.730  10.964
94731SOL    HW286091  10.750  11.712  11.108
94732SOL     OW86092   6.015   3.196  11.752
94732SOL    HW186093   6.088   3.253  11.729
94732SOL    HW286094   5.971   3.179  11.668
94733SOL     OW86095   2.532   3.615   1.253
94733SOL    HW186096   2.521   3.710   1.242
94733SOL    HW286097   2.608   3.605   1.310
94734SOL     OW86098   0.818  14.472  12.024
94734SOL    HW186099   0.905  14.495  11.991
94734SOL    HW286100   0.825  14.483  12.119
94735SOL     OW86101  13.136  10.387   2.304
94735SOL    HW186102  13.198  10.318   2.328
94735SOL    HW286103  13.172  10.424   2.224
94736SOL     OW86104  13.362  13.773   3.204
94736SOL    HW186105  13.314  13.856   3.214
94736SOL    HW286106  13.303  13.718   3.152
94737SOL     OW86107  11.686   6.145   0.899
94737SOL    HW186108  11.646   6.058   0.908
94737SOL    HW286109  11.615   6.202   0.870
94738SOL     OW86110  10.408  11.358   8.411
94738SOL    HW186111  10.470  11.316   8.352
94738SOL    HW286112  10.461  11.418   8.463
94739SOL     OW86113  11.411   3.424  12.578
94739SOL    HW186114  11.318   3.425  12.553
94739SOL    HW286115  11.441   3.513  12.564
94740SOL     OW86116   2.958   0.892  13.954
94740SOL    HW186117   2.921   0.879  13.866
94740SOL    HW286118   2.915   0.826  14.008
94741SOL     OW86119  11.340   8.047  12.991
94741SOL    HW186120  11.343   8.017  13.082
94741SOL    HW286121  11.398   7.986  12.944
94742SOL     OW86122   8.414  12.709   1.850
94742SOL    HW186123   8.319  12.704   1.859
94742SOL    HW286124   8.445  12.733   1.937
94743SOL     OW86125   5.375  10.485   0.651
94743SOL    HW186126   5.435  10.411   0.644
94743SOL    HW286127   5.379  10.511   0.743
94744SOL     OW86128   3.292  11.765  12.836
94744SOL    HW186129   3.225  11.801  12.895
94744SOL    HW286130   3.280  11.815  12.755
94745SOL     OW86131   6.522  10.355   5.554
94745SOL    HW186132   6.482  10.271   5.528
94745SOL    HW286133   6.471  10.382   5.630
94746SOL     OW86134  12.056   5.591   3.123
94746SOL    HW186135  12.065   5.521   3.058
94746SOL    HW286136  12.032   5.669   3.072
94747SOL     OW86137  12.947   3.874   7.266
94747SOL    HW186138  12.996   3.832   7.196
94747SOL    HW286139  12.858   3.882   7.231
94748SOL     OW86140  13.206  13.200   8.241
94748SOL    HW186141  13.183  13.114   8.277
94748SOL    HW286142  13.268  13.180   8.171
94749SOL     OW86143  13.760  13.582  12.449
94749SOL    HW186144  13.782  13.660  12.500
94749SOL    HW286145  13.733  13.616  12.364
94750SOL     OW86146   6.898   3.161   8.716
94750SOL    HW186147   6.810   3.155   8.755
94750SOL    HW286148   6.883   3.200   8.630
94751SOL     OW86149   0.418   5.632   6.886
94751SOL    HW186150   0.495   5.576   6.893
94751SOL    HW286151   0.344   5.571   6.887
94752SOL     OW86152   3.010   6.984   7.407
94752SOL    HW186153   3.053   6.944   7.332
94752SOL    HW286154   3.071   6.970   7.480
94753SOL     OW86155   9.372   9.296  10.365
94753SOL    HW186156   9.293   9.350  10.374
94753SOL    HW286157   9.365   9.257  10.278
94754SOL     OW86158  13.821   7.483  13.491
94754SOL    HW186159  13.840   7.412  13.429
94754SOL    HW286160  13.816   7.562  13.437
94755SOL     OW86161   5.498   3.057   3.306
94755SOL    HW186162   5.419   3.111   3.305
94755SOL    HW286163   5.550   3.092   3.379
94756SOL     OW86164  11.639   3.151  11.078
94756SOL    HW186165  11.579   3.147  11.152
94756SOL    HW286166  11.646   3.244  11.058
94757SOL     OW86167   2.441   6.107   0.890
94757SOL    HW186168   2.432   6.012   0.891
94757SOL    HW286169   2.440   6.131   0.797
94758SOL     OW86170  11.674  14.822  11.266
94758SOL    HW186171  11.707   0.001  11.192
94758SOL    HW286172  11.625   0.013  11.319
94759SOL     OW86173   5.789  13.852   6.675
94759SOL    HW186174   5.733  13.906   6.731
94759SOL    HW286175   5.749  13.765   6.678
94760SOL     OW86176  11.066   0.638   6.692
94760SOL    HW186177  11.106   0.567   6.642
94760SOL    HW286178  11.136   0.673   6.746
94761SOL     OW86179   0.976   5.796   0.888
94761SOL    HW186180   0.975   5.868   0.825
94761SOL    HW286181   0.918   5.825   0.959
94762SOL     OW86182  10.348  10.906   7.588
94762SOL    HW186183  10.320  10.823   7.551
94762SOL    HW286184  10.417  10.883   7.650
94763SOL     OW86185   7.618   1.334   5.896
94763SOL    HW186186   7.561   1.276   5.845
94763SOL    HW286187   7.618   1.297   5.984
94764SOL     OW86188   8.589   1.907  13.505
94764SOL    HW186189   8.569   1.998  13.527
94764SOL    HW286190   8.591   1.862  13.589
94765SOL     OW86191   1.194   8.917  12.908
94765SOL    HW186192   1.264   8.853  12.916
94765SOL    HW286193   1.238   8.996  12.876
94766SOL     OW86194  11.206  14.730  13.959
94766SOL    HW186195  11.292  14.725  13.917
94766SOL    HW286196  11.144  14.721  13.887
94767SOL     OW86197   5.000   2.803   8.510
94767SOL    HW186198   5.025   2.889   8.477
94767SOL    HW286199   5.069   2.780   8.573
94768SOL     OW86200   7.287   5.719  12.543
94768SOL    HW186201   7.338   5.783  12.592
94768SOL    HW286202   7.221   5.689  12.605
94769SOL     OW86203   4.159   6.753   3.865
94769SOL    HW186204   4.098   6.740   3.792
94769SOL    HW286205   4.103   6.780   3.938
94770SOL     OW86206  12.047  11.829  11.579
94770SOL    HW186207  12.122  11.851  11.633
94770SOL    HW286208  12.038  11.903  11.519
94771SOL     OW86209  13.748  14.353   0.796
94771SOL    HW186210  13.685  14.349   0.724
94771SOL    HW286211  13.743  14.443   0.827
94772SOL     OW86212   5.431   4.497  11.519
94772SOL    HW186213   5.471   4.563  11.575
94772SOL    HW286214   5.482   4.498  11.438
94773SOL     OW86215   7.934   0.229   6.783
94773SOL    HW186216   8.010   0.286   6.795
94773SOL    HW286217   7.968   0.153   6.735
94774SOL     OW86218   9.182   6.566   3.198
94774SOL    HW186219   9.095   6.541   3.227
94774SOL    HW286220   9.189   6.532   3.109
94775SOL     OW86221  14.747  10.160   0.595
94775SOL    HW186222  14.750  10.227   0.526
94775SOL    HW286223  14.696  10.088   0.556
94776SOL     OW86224   3.965  14.595   3.054
94776SOL    HW186225   4.034  14.547   3.100
94776SOL    HW286226   4.009  14.630   2.976
94777SOL     OW86227   0.797   6.851  12.902
94777SOL    HW186228   0.728   6.789  12.926
94777SOL    HW286229   0.778   6.875  12.812
94778SOL     OW86230   3.341   8.874   4.691
94778SOL    HW186231   3.264   8.864   4.748
94778SOL    HW286232   3.411   8.826   4.736
94779SOL     OW86233   8.448   0.630   1.711
94779SOL    HW186234   8.453   0.689   1.785
94779SOL    HW286235   8.419   0.547   1.748
94780SOL     OW86236   8.028   2.997   5.882
94780SOL    HW186237   7.948   2.997   5.830
94780SOL    HW286238   8.011   2.937   5.954
94781SOL     OW86239  12.299  11.083   3.805
94781SOL    HW186240  12.218  11.045   3.772
94781SOL    HW286241  12.366  11.018   3.783
94782SOL     OW86242  10.522   6.535   5.910
94782SOL    HW186243  10.532   6.629   5.920
94782SOL    HW286244  10.442   6.524   5.860
94783SOL     OW86245   1.038  10.117  11.982
94783SOL    HW186246   0.971  10.054  11.957
94783SOL    HW286247   1.104  10.064  12.027
94784SOL     OW86248  11.764   5.360   0.296
94784SOL    HW186249  11.792   5.450   0.313
94784SOL    HW286250  11.763   5.353   0.201
94785SOL     OW86251   5.943  10.624   6.327
94785SOL    HW186252   6.008  10.582   6.382
94785SOL    HW286253   5.898  10.685   6.386
94786SOL     OW86254  12.473   0.561   2.590
94786SOL    HW186255  12.499   0.505   2.517
94786SOL    HW286256  12.379   0.546   2.599
94787SOL     OW86257  13.782   7.415   6.043
94787SOL    HW186258  13.736   7.387   6.122
94787SOL    HW286259  13.769   7.510   6.041
94788SOL     OW86260   0.216   2.235  12.499
94788SOL    HW186261   0.259   2.149  12.503
94788SOL    HW286262   0.255   2.277  12.423
94789SOL     OW86263   7.224  14.188  12.741
94789SOL    HW186264   7.155  14.147  12.689
94789SOL    HW286265   7.182  14.206  12.826
94790SOL     OW86266   6.423   1.788   2.326
94790SOL    HW186267   6.353   1.830   2.375
94790SOL    HW286268   6.488   1.764   2.393
94791SOL     OW86269   7.495  10.011   5.305
94791SOL    HW186270   7.454   9.934   5.345
94791SOL    HW286271   7.461  10.012   5.215
94792SOL     OW86272  11.894  10.742   4.500
94792SOL    HW186273  11.896  10.713   4.591
94792SOL    HW286274  11.802  10.759   4.483
94793SOL     OW86275   6.665   1.687   0.614
94793SOL    HW186276   6.588   1.668   0.669
94793SOL    HW286277   6.693   1.774   0.641
94794SOL     OW86278  14.613  13.531   3.491
94794SOL    HW186279  14.567  13.447   3.501
94794SOL    HW286280  14.570  13.573   3.416
94795SOL     OW86281   0.789   8.163  12.844
94795SOL    HW186282   0.735   8.086  12.824
94795SOL    HW286283   0.764   8.227  12.777
94796SOL     OW86284   7.404   5.310  10.056
94796SOL    HW186285   7.376   5.263   9.978
94796SOL    HW286286   7.436   5.242  10.115
94797SOL     OW86287   9.805  14.178   3.034
94797SOL    HW186288   9.893  14.214   3.022
94797SOL    HW286289   9.817  14.083   3.028
94798SOL     OW86290  12.321   7.508  11.091
94798SOL    HW186291  12.337   7.550  11.006
94798SOL    HW286292  12.408   7.483  11.122
94799SOL     OW86293   8.403   2.589   1.242
94799SOL    HW186294   8.420   2.562   1.332
94799SOL    HW286295   8.313   2.621   1.244
94800SOL     OW86296  10.633  12.195  11.834
94800SOL    HW186297  10.547  12.197  11.793
94800SOL    HW286298  10.623  12.135  11.908
94801SOL     OW86299  11.509   6.137   8.884
94801SOL    HW186300  11.497   6.191   8.806
94801SOL    HW286301  11.557   6.060   8.853
94802SOL     OW86302   7.993   4.172  11.837
94802SOL    HW186303   8.065   4.176  11.901
94802SOL    HW286304   7.935   4.244  11.863
94803SOL     OW86305  10.202  14.167  13.031
94803SOL    HW186306  10.284  14.120  13.018
94803SOL    HW286307  10.213  14.211  13.116
94804SOL     OW86308   4.020  12.412  14.301
94804SOL    HW186309   3.925  12.405  14.307
94804SOL    HW286310   4.050  12.418  14.391
94805SOL     OW86311   4.959  14.199   6.168
94805SOL    HW186312   5.034  14.240   6.125
94805SOL    HW286313   4.985  14.191   6.260
94806SOL     OW86314   8.281  11.423  10.081
94806SOL    HW186315   8.228  11.389  10.009
94806SOL    HW286316   8.247  11.380  10.159
94807SOL     OW86317  13.794   8.296  12.704
94807SOL    HW186318  13.870   8.293  12.646
94807SOL    HW286319  13.802   8.379  12.750
94808SOL     OW86320   6.283   7.854   9.547
94808SOL    HW186321   6.358   7.810   9.508
94808SOL    HW286322   6.306   7.947   9.543
94809SOL     OW86323  12.096   5.053  14.052
94809SOL    HW186324  12.163   5.121  14.056
94809SOL    HW286325  12.017   5.099  14.024
94810SOL     OW86326  13.116   1.288  11.899
94810SOL    HW186327  13.146   1.370  11.858
94810SOL    HW286328  13.164   1.219  11.853
94811SOL     OW86329  11.217  13.037  11.786
94811SOL    HW186330  11.282  13.070  11.848
94811SOL    HW286331  11.185  13.115  11.741
94812SOL     OW86332  10.732   3.742  11.673
94812SOL    HW186333  10.770   3.770  11.756
94812SOL    HW286334  10.666   3.677  11.698
94813SOL     OW86335  11.469   2.366   5.474
94813SOL    HW186336  11.562   2.389   5.472
94813SOL    HW286337  11.428   2.427   5.412
94814SOL     OW86338   1.999  13.034   0.240
94814SOL    HW186339   1.906  13.056   0.234
94814SOL    HW286340   2.038  13.076   0.163
94815SOL     OW86341   6.180  10.128   0.345
94815SOL    HW186342   6.202  10.053   0.290
94815SOL    HW286343   6.258  10.142   0.399
94816SOL     OW86344  10.232   4.014   0.142
94816SOL    HW186345  10.157   4.041   0.195
94816SOL    HW286346  10.250   3.924   0.170
94817SOL     OW86347   3.014   4.975   1.657
94817SOL    HW186348   3.010   4.908   1.587
94817SOL    HW286349   2.923   5.003   1.668
94818SOL     OW86350   2.248   7.685  13.747
94818SOL    HW186351   2.326   7.656  13.699
94818SOL    HW286352   2.227   7.613  13.806
94819SOL     OW86353   9.681   3.571  11.984
94819SOL    HW186354   9.756   3.629  11.993
94819SOL    HW286355   9.605   3.630  11.983
94820SOL     OW86356   8.753  14.718  11.863
94820SOL    HW186357   8.777  14.659  11.934
94820SOL    HW286358   8.739  14.803  11.906
94821SOL     OW86359  13.319   3.861   2.339
94821SOL    HW186360  13.308   3.769   2.313
94821SOL    HW286361  13.395   3.891   2.289
94822SOL     OW86362   1.574   5.437   8.875
94822SOL    HW186363   1.612   5.506   8.928
94822SOL    HW286364   1.607   5.356   8.914
94823SOL     OW86365  10.784  13.855   8.522
94823SOL    HW186366  10.748  13.778   8.478
94823SOL    HW286367  10.708  13.908   8.544
94824SOL     OW86368   0.557   6.001  11.721
94824SOL    HW186369   0.626   5.958  11.772
94824SOL    HW286370   0.476   5.979  11.766
94825SOL     OW86371  11.588   4.021   3.442
94825SOL    HW186372  11.514   4.013   3.502
94825SOL    HW286373  11.664   4.027   3.499
94826SOL     OW86374  11.728   2.376   7.352
94826SOL    HW186375  11.674   2.428   7.292
94826SOL    HW286376  11.706   2.285   7.332
94827SOL     OW86377  14.197   8.810   8.439
94827SOL    HW186378  14.277   8.770   8.407
94827SOL    HW286379  14.127   8.765   8.392
94828SOL     OW86380  13.448   9.842   0.199
94828SOL    HW186381  13.415   9.755   0.175
94828SOL    HW286382  13.488   9.830   0.285
94829SOL     OW86383   4.408   8.420   9.176
94829SOL    HW186384   4.461   8.478   9.230
94829SOL    HW286385   4.390   8.469   9.097
94830SOL     OW86386   6.166   8.415   1.984
94830SOL    HW186387   6.071   8.401   1.986
94830SOL    HW286388   6.179   8.487   1.921
94831SOL     OW86389   5.010   3.089  12.525
94831SOL    HW186390   4.934   3.068  12.579
94831SOL    HW286391   5.064   3.010  12.527
94832SOL     OW86392   6.019   0.048  11.938
94832SOL    HW186393   5.949   0.082  11.882
94832SOL    HW286394   6.018  14.825  11.924
94833SOL     OW86395  14.562   0.794  11.681
94833SOL    HW186396  14.536   0.704  11.700
94833SOL    HW286397  14.656   0.790  11.665
94834SOL     OW86398  13.339  13.331   4.761
94834SOL    HW186399  13.422  13.376   4.747
94834SOL    HW286400  13.311  13.303   4.673
94835SOL     OW86401  12.033  11.423  14.518
94835SOL    HW186402  12.126  11.447  14.520
94835SOL    HW286403  12.030  11.335  14.555
94836SOL     OW86404  13.429   4.097   5.137
94836SOL    HW186405  13.388   4.144   5.211
94836SOL    HW286406  13.488   4.161   5.098
94837SOL     OW86407   5.965  11.187   2.932
94837SOL    HW186408   6.010  11.158   2.852
94837SOL    HW286409   5.954  11.281   2.920
94838SOL     OW86410  11.883  13.349   4.756
94838SOL    HW186411  11.805  13.339   4.703
94838SOL    HW286412  11.933  13.418   4.713
94839SOL     OW86413   3.960  11.568   4.086
94839SOL    HW186414   3.953  11.491   4.029
94839SOL    HW286415   3.872  11.579   4.122
94840SOL     OW86416   6.222  10.430   0.410
94840SOL    HW186417   6.294  10.441   0.472
94840SOL    HW286418   6.251  10.361   0.351
94841SOL     OW86419   1.657  12.486  11.533
94841SOL    HW186420   1.570  12.458  11.506
94841SOL    HW286421   1.690  12.413  11.586
94842SOL     OW86422   0.988   3.137   5.087
94842SOL    HW186423   1.045   3.060   5.090
94842SOL    HW286424   0.900   3.100   5.079
94843SOL     OW86425   6.558   5.878  14.409
94843SOL    HW186426   6.481   5.830  14.439
94843SOL    HW286427   6.562   5.956  14.465
94844SOL     OW86428   4.837   7.199  12.577
94844SOL    HW186429   4.896   7.124  12.573
94844SOL    HW286430   4.805   7.210  12.488
94845SOL     OW86431  13.460   6.357   5.379
94845SOL    HW186432  13.542   6.349   5.427
94845SOL    HW286433  13.401   6.403   5.439
94846SOL     OW86434   5.656   2.080   8.822
94846SOL    HW186435   5.696   2.103   8.739
94846SOL    HW286436   5.688   1.992   8.841
94847SOL     OW86437   0.340   7.159   5.803
94847SOL    HW186438   0.422   7.122   5.834
94847SOL    HW286439   0.340   7.249   5.836
94848SOL     OW86440   7.928   4.602  10.516
94848SOL    HW186441   7.871   4.582  10.441
94848SOL    HW286442   7.889   4.680  10.555
94849SOL     OW86443   7.643   8.645   0.320
94849SOL    HW186444   7.705   8.648   0.247
94849SOL    HW286445   7.690   8.688   0.392
94850SOL     OW86446   1.446   9.245   8.941
94850SOL    HW186447   1.382   9.292   8.887
94850SOL    HW286448   1.412   9.155   8.945
94851SOL     OW86449  12.528  10.007  12.195
94851SOL    HW186450  12.485  10.064  12.131
94851SOL    HW286451  12.457   9.958  12.235
94852SOL     OW86452   0.803  12.725   0.659
94852SOL    HW186453   0.840  12.663   0.721
94852SOL    HW286454   0.838  12.699   0.574
94853SOL     OW86455   9.551   5.555   2.456
94853SOL    HW186456   9.477   5.614   2.471
94853SOL    HW286457   9.571   5.565   2.363
94854SOL     OW86458   0.974   3.189   6.255
94854SOL    HW186459   0.980   3.205   6.349
94854SOL    HW286460   1.033   3.255   6.217
94855SOL     OW86461  14.412   1.054   4.699
94855SOL    HW186462  14.335   1.111   4.697
94855SOL    HW286463  14.412   1.016   4.787
94856SOL     OW86464  14.582   7.248   5.868
94856SOL    HW186465  14.507   7.299   5.900
94856SOL    HW286466  14.587   7.269   5.775
94857SOL     OW86467   0.895   2.210   7.742
94857SOL    HW186468   0.877   2.116   7.734
94857SOL    HW286469   0.979   2.214   7.788
94858SOL     OW86470   9.735   7.126   2.479
94858SOL    HW186471   9.827   7.139   2.456
94858SOL    HW286472   9.686   7.176   2.414
94859SOL     OW86473   1.974   0.215  12.712
94859SOL    HW186474   1.972   0.219  12.807
94859SOL    HW286475   2.035   0.284  12.686
94860SOL     OW86476  13.163  10.870   6.692
94860SOL    HW186477  13.248  10.846   6.730
94860SOL    HW286478  13.166  10.836   6.603
94861SOL     OW86479   2.171   8.423  12.004
94861SOL    HW186480   2.226   8.467  11.940
94861SOL    HW286481   2.231   8.373  12.059
94862SOL     OW86482   7.354   7.505  10.870
94862SOL    HW186483   7.407   7.579  10.900
94862SOL    HW286484   7.286   7.545  10.816
94863SOL     OW86485   8.146   7.891   6.622
94863SOL    HW186486   8.104   7.815   6.661
94863SOL    HW286487   8.205   7.923   6.690
94864SOL     OW86488  13.200  10.484   9.219
94864SOL    HW186489  13.135  10.554   9.223
94864SOL    HW286490  13.170  10.420   9.284
94865SOL     OW86491   7.236   4.831  11.444
94865SOL    HW186492   7.158   4.797  11.488
94865SOL    HW286493   7.255   4.913  11.490
94866SOL     OW86494   1.348   6.629  12.775
94866SOL    HW186495   1.262   6.664  12.797
94866SOL    HW286496   1.381   6.594  12.858
94867SOL     OW86497   7.752  14.232   4.678
94867SOL    HW186498   7.731  14.175   4.604
94867SOL    HW286499   7.847  14.221   4.690
94868SOL     OW86500  12.559   2.160   8.596
94868SOL    HW186501  12.499   2.150   8.522
94868SOL    HW286502  12.526   2.237   8.642
94869SOL     OW86503  10.042   9.159  12.430
94869SOL    HW186504  10.051   9.110  12.512
94869SOL    HW286505   9.960   9.208  12.441
94870SOL     OW86506  11.785   7.167   9.295
94870SOL    HW186507  11.834   7.086   9.282
94870SOL    HW286508  11.824   7.206   9.373
94871SOL     OW86509   2.437  14.559  12.812
94871SOL    HW186510   2.498  14.582  12.742
94871SOL    HW286511   2.351  14.564  12.770
94872SOL     OW86512   3.579   8.545   3.553
94872SOL    HW186513   3.666   8.576   3.526
94872SOL    HW286514   3.519   8.584   3.489
94873SOL     OW86515   2.775  14.856  10.092
94873SOL    HW186516   2.811  14.768  10.103
94873SOL    HW286517   2.683  14.848  10.119
94874SOL     OW86518  10.383  11.738  12.223
94874SOL    HW186519  10.395  11.755  12.130
94874SOL    HW286520  10.295  11.702  12.230
94875SOL     OW86521  11.227  13.476   5.710
94875SOL    HW186522  11.221  13.486   5.615
94875SOL    HW286523  11.254  13.385   5.723
94876SOL     OW86524  11.015  10.950   0.906
94876SOL    HW186525  11.002  10.868   0.859
94876SOL    HW286526  10.936  10.959   0.960
94877SOL     OW86527  13.830  13.322  12.413
94877SOL    HW186528  13.821  13.416  12.433
94877SOL    HW286529  13.804  13.278  12.493
94878SOL     OW86530  12.636   2.509   8.161
94878SOL    HW186531  12.566   2.534   8.221
94878SOL    HW286532  12.603   2.532   8.074
94879SOL     OW86533   1.601   6.912   7.624
94879SOL    HW186534   1.604   6.825   7.663
94879SOL    HW286535   1.677   6.916   7.567
94880SOL     OW86536  13.179   3.463   0.194
94880SOL    HW186537  13.166   3.387   0.137
94880SOL    HW286538  13.152   3.537   0.141
94881SOL     OW86539   3.256   3.181   3.243
94881SOL    HW186540   3.265   3.207   3.334
94881SOL    HW286541   3.179   3.228   3.212
94882SOL     OW86542  11.410   1.531   3.085
94882SOL    HW186543  11.368   1.457   3.041
94882SOL    HW286544  11.456   1.577   3.015
94883SOL     OW86545   1.675   8.538   1.185
94883SOL    HW186546   1.717   8.478   1.247
94883SOL    HW286547   1.745   8.563   1.124
94884SOL     OW86548  10.778  11.448   2.679
94884SOL    HW186549  10.727  11.390   2.623
94884SOL    HW286550  10.781  11.531   2.631
94885SOL     OW86551  13.908  13.797   4.553
94885SOL    HW186552  13.987  13.828   4.598
94885SOL    HW286553  13.853  13.761   4.622
94886SOL     OW86554   9.922  11.633   1.239
94886SOL    HW186555   9.876  11.709   1.276
94886SOL    HW286556   9.887  11.559   1.288
94887SOL     OW86557   8.059   5.687  14.670
94887SOL    HW186558   8.128   5.624  14.691
94887SOL    HW286559   8.056   5.745  14.746
94888SOL     OW86560  10.751  12.034   5.139
94888SOL    HW186561  10.744  12.038   5.044
94888SOL    HW286562  10.837  11.995   5.156
94889SOL     OW86563  14.120   8.147   0.837
94889SOL    HW186564  14.026   8.163   0.836
94889SOL    HW286565  14.129   8.060   0.874
94890SOL     OW86566   1.772  11.901   1.785
94890SOL    HW186567   1.811  11.988   1.782
94890SOL    HW286568   1.720  11.895   1.705
94891SOL     OW86569  11.849   6.678   5.897
94891SOL    HW186570  11.857   6.586   5.870
94891SOL    HW286571  11.939   6.706   5.911
94892SOL     OW86572  11.143   0.984   4.913
94892SOL    HW186573  11.190   1.041   4.853
94892SOL    HW286574  11.055   0.976   4.875
94893SOL     OW86575   6.085   2.117  10.840
94893SOL    HW186576   6.011   2.108  10.779
94893SOL    HW286577   6.084   2.036  10.890
94894SOL     OW86578   1.273   4.688   4.359
94894SOL    HW186579   1.241   4.778   4.364
94894SOL    HW286580   1.219   4.647   4.292
94895SOL     OW86581  14.107   3.581  10.635
94895SOL    HW186582  14.187   3.632  10.620
94895SOL    HW286583  14.060   3.586  10.552
94896SOL     OW86584   5.378   0.183   5.927
94896SOL    HW186585   5.473   0.175   5.930
94896SOL    HW286586   5.361   0.230   5.846
94897SOL     OW86587   2.496   3.964  10.726
94897SOL    HW186588   2.515   4.056  10.745
94897SOL    HW286589   2.544   3.945  10.646
94898SOL     OW86590  14.293   3.278   1.819
94898SOL    HW186591  14.283   3.350   1.881
94898SOL    HW286592  14.381   3.244   1.836
94899SOL     OW86593   0.800  13.312  12.435
94899SOL    HW186594   0.768  13.257  12.364
94899SOL    HW286595   0.730  13.310  12.500
94900SOL     OW86596   5.229   4.696   7.972
94900SOL    HW186597   5.193   4.776   8.012
94900SOL    HW286598   5.313   4.684   8.015
94901SOL     OW86599   0.820   8.730   2.336
94901SOL    HW186600   0.775   8.688   2.409
94901SOL    HW286601   0.833   8.820   2.364
94902SOL     OW86602   5.986  14.259   8.276
94902SOL    HW186603   5.985  14.165   8.255
94902SOL    HW286604   6.001  14.302   8.192
94903SOL     OW86605   8.688   3.633  11.872
94903SOL    HW186606   8.776   3.594  11.871
94903SOL    HW286607   8.632   3.564  11.908
94904SOL     OW86608  13.730  13.186  11.101
94904SOL    HW186609  13.744  13.250  11.172
94904SOL    HW286610  13.775  13.225  11.026
94905SOL     OW86611  12.667   4.188   4.312
94905SOL    HW186612  12.753   4.160   4.282
94905SOL    HW286613  12.642   4.123   4.377
94906SOL     OW86614  10.399  10.555   6.578
94906SOL    HW186615  10.316  10.578   6.619
94906SOL    HW286616  10.375  10.494   6.508
94907SOL     OW86617  13.555   6.942   9.275
94907SOL    HW186618  13.516   6.860   9.307
94907SOL    HW286619  13.562   6.997   9.353
94908SOL     OW86620   9.673   7.184   6.216
94908SOL    HW186621   9.619   7.190   6.295
94908SOL    HW286622   9.741   7.250   6.228
94909SOL     OW86623   1.154   9.812   2.454
94909SOL    HW186624   1.098   9.808   2.532
94909SOL    HW286625   1.233   9.857   2.484
94910SOL     OW86626  13.144   2.484   8.074
94910SOL    HW186627  13.211   2.418   8.089
94910SOL    HW286628  13.161   2.553   8.138
94911SOL     OW86629   2.449  12.650  10.198
94911SOL    HW186630   2.529  12.683  10.238
94911SOL    HW286631   2.392  12.628  10.271
94912SOL     OW86632  10.854   8.599  11.155
94912SOL    HW186633  10.801   8.643  11.088
94912SOL    HW286634  10.799   8.527  11.185
94913SOL     OW86635  14.187  11.944   2.758
94913SOL    HW186636  14.175  11.858   2.718
94913SOL    HW286637  14.222  11.999   2.688
94914SOL     OW86638   4.801   4.623  14.865
94914SOL    HW186639   4.848   4.687  14.811
94914SOL    HW286640   4.768   4.674   0.067
94915SOL     OW86641   3.659   3.842   8.172
94915SOL    HW186642   3.691   3.928   8.203
94915SOL    HW286643   3.739   3.792   8.156
94916SOL     OW86644   1.129   4.248   8.414
94916SOL    HW186645   1.118   4.213   8.502
94916SOL    HW286646   1.140   4.342   8.427
94917SOL     OW86647  13.145   2.329   5.530
94917SOL    HW186648  13.157   2.355   5.621
94917SOL    HW286649  13.124   2.410   5.484
94918SOL     OW86650   8.938   1.666   2.148
94918SOL    HW186651   8.870   1.612   2.189
94918SOL    HW286652   8.908   1.756   2.159
94919SOL     OW86653   9.051  13.182   2.428
94919SOL    HW186654   8.995  13.104   2.423
94919SOL    HW286655   9.112  13.172   2.356
94920SOL     OW86656   8.751   3.824  13.105
94920SOL    HW186657   8.769   3.887  13.035
94920SOL    HW286658   8.716   3.747  13.060
94921SOL     OW86659  13.017   0.014   7.144
94921SOL    HW186660  12.930   0.008   7.105
94921SOL    HW286661  13.062  14.807   7.113
94922SOL     OW86662   8.236   3.129   2.149
94922SOL    HW186663   8.168   3.067   2.176
94922SOL    HW286664   8.268   3.095   2.066
94923SOL     OW86665  14.463   6.426  10.182
94923SOL    HW186666  14.393   6.482  10.150
94923SOL    HW286667  14.535   6.439  10.120
94924SOL     OW86668  14.610   0.896   5.060
94924SOL    HW186669  14.674   0.880   5.129
94924SOL    HW286670  14.659   0.889   4.978
94925SOL     OW86671   4.074   5.137  10.600
94925SOL    HW186672   4.153   5.188  10.617
94925SOL    HW286673   4.001   5.197  10.617
94926SOL     OW86674  12.158   1.325   4.087
94926SOL    HW186675  12.126   1.395   4.030
94926SOL    HW286676  12.080   1.287   4.126
94927SOL     OW86677   9.636  11.698   4.589
94927SOL    HW186678   9.607  11.706   4.498
94927SOL    HW286679   9.714  11.644   4.584
94928SOL     OW86680   1.247   8.077   9.295
94928SOL    HW186681   1.247   8.171   9.278
94928SOL    HW286682   1.155   8.051   9.285
94929SOL     OW86683   8.048   7.416  12.394
94929SOL    HW186684   8.088   7.488  12.345
94929SOL    HW286685   8.010   7.360  12.326
94930SOL     OW86686   2.787  12.108   9.503
94930SOL    HW186687   2.709  12.101   9.558
94930SOL    HW286688   2.758  12.157   9.426
94931SOL     OW86689  13.385   8.294   3.460
94931SOL    HW186690  13.393   8.238   3.536
94931SOL    HW286691  13.385   8.383   3.495
94932SOL     OW86692   1.217   6.343   0.539
94932SOL    HW186693   1.294   6.392   0.510
94932SOL    HW286694   1.243   6.304   0.622
94933SOL     OW86695   5.087   1.768  12.312
94933SOL    HW186696   5.040   1.848  12.291
94933SOL    HW286697   5.115   1.733  12.227
94934SOL     OW86698   1.035   6.622  13.705
94934SOL    HW186699   1.014   6.538  13.664
94934SOL    HW286700   1.032   6.605  13.799
94935SOL     OW86701   7.768   1.217  12.003
94935SOL    HW186702   7.822   1.164  11.945
94935SOL    HW286703   7.699   1.157  12.033
94936SOL     OW86704   1.484  13.806   1.587
94936SOL    HW186705   1.477  13.893   1.547
94936SOL    HW286706   1.434  13.812   1.668
94937SOL     OW86707  13.189   0.934  13.007
94937SOL    HW186708  13.274   0.892  13.008
94937SOL    HW286709  13.130   0.873  13.051
94938SOL     OW86710  12.671   0.915   9.496
94938SOL    HW186711  12.667   0.895   9.589
94938SOL    HW286712  12.627   0.841   9.453
94939SOL     OW86713   6.316  13.208   4.020
94939SOL    HW186714   6.382  13.275   4.003
94939SOL    HW286715   6.322  13.191   4.114
94940SOL     OW86716   9.121   3.320  12.723
94940SOL    HW186717   9.127   3.368  12.806
94940SOL    HW286718   9.211   3.297  12.702
94941SOL     OW86719   3.522  13.031   4.526
94941SOL    HW186720   3.586  13.013   4.595
94941SOL    HW286721   3.521  13.127   4.520
94942SOL     OW86722   8.903   6.370  14.193
94942SOL    HW186723   8.954   6.450  14.203
94942SOL    HW286724   8.812   6.398  14.203
94943SOL     OW86725   4.918  11.007   0.493
94943SOL    HW186726   4.876  11.089   0.469
94943SOL    HW286727   4.934  10.962   0.410
94944SOL     OW86728   5.244   5.942  14.177
94944SOL    HW186729   5.183   5.892  14.230
94944SOL    HW286730   5.264   6.020  14.229
94945SOL     OW86731   4.642   7.505   9.274
94945SOL    HW186732   4.578   7.436   9.257
94945SOL    HW286733   4.624   7.571   9.208
94946SOL     OW86734   7.686  11.067   5.089
94946SOL    HW186735   7.754  11.034   5.030
94946SOL    HW286736   7.715  11.156   5.112
94947SOL     OW86737   0.573   6.038   3.757
94947SOL    HW186738   0.599   6.090   3.833
94947SOL    HW286739   0.596   6.092   3.681
94948SOL     OW86740   4.345  11.866   8.660
94948SOL    HW186741   4.313  11.954   8.637
94948SOL    HW286742   4.326  11.858   8.754
94949SOL     OW86743  13.341  12.286   6.646
94949SOL    HW186744  13.426  12.327   6.662
94949SOL    HW286745  13.353  12.195   6.675
94950SOL     OW86746   6.639   2.179   7.598
94950SOL    HW186747   6.648   2.089   7.629
94950SOL    HW286748   6.623   2.171   7.504
94951SOL     OW86749   1.621  11.337  14.720
94951SOL    HW186750   1.708  11.315  14.753
94951SOL    HW286751   1.572  11.368  14.796
94952SOL     OW86752   5.633   7.573   7.884
94952SOL    HW186753   5.715   7.610   7.915
94952SOL    HW286754   5.658   7.497   7.832
94953SOL     OW86755   9.669   8.954   3.190
94953SOL    HW186756   9.582   8.966   3.154
94953SOL    HW286757   9.663   8.872   3.240
94954SOL     OW86758   6.861   8.742   4.324
94954SOL    HW186759   6.792   8.770   4.265
94954SOL    HW286760   6.828   8.661   4.363
94955SOL     OW86761   9.174   9.931  11.575
94955SOL    HW186762   9.111   9.866  11.545
94955SOL    HW286763   9.259   9.893  11.557
94956SOL     OW86764   3.547   1.492   1.065
94956SOL    HW186765   3.520   1.505   0.974
94956SOL    HW286766   3.630   1.540   1.073
94957SOL     OW86767   5.682   0.177  11.246
94957SOL    HW186768   5.723   0.097  11.279
94957SOL    HW286769   5.729   0.248  11.290
94958SOL     OW86770   7.648  14.622   4.002
94958SOL    HW186771   7.602  14.693   4.047
94958SOL    HW286772   7.726  14.605   4.055
94959SOL     OW86773   3.353  14.144  13.306
94959SOL    HW186774   3.365  14.060  13.261
94959SOL    HW286775   3.441  14.180  13.314
94960SOL     OW86776   5.507   0.450   1.542
94960SOL    HW186777   5.569   0.377   1.544
94960SOL    HW286778   5.544   0.511   1.478
94961SOL     OW86779   7.983   9.677   9.572
94961SOL    HW186780   8.016   9.716   9.491
94961SOL    HW286781   7.895   9.714   9.582
94962SOL     OW86782   3.268  14.716   2.198
94962SOL    HW186783   3.327  14.780   2.158
94962SOL    HW286784   3.286  14.722   2.292
94963SOL     OW86785   8.520   4.427  10.723
94963SOL    HW186786   8.436   4.380  10.725
94963SOL    HW286787   8.586   4.358  10.716
94964SOL     OW86788   6.327  14.167   0.937
94964SOL    HW186789   6.288  14.156   1.023
94964SOL    HW286790   6.371  14.252   0.941
94965SOL     OW86791   8.483   6.148   8.101
94965SOL    HW186792   8.543   6.135   8.175
94965SOL    HW286793   8.529   6.109   8.026
94966SOL     OW86794   3.612  11.237  12.800
94966SOL    HW186795   3.555  11.245  12.724
94966SOL    HW286796   3.593  11.150  12.836
94967SOL     OW86797   4.612   3.630   4.269
94967SOL    HW186798   4.628   3.686   4.192
94967SOL    HW286799   4.631   3.542   4.238
94968SOL     OW86800  12.244   7.063   4.334
94968SOL    HW186801  12.208   7.049   4.421
94968SOL    HW286802  12.205   6.994   4.280
94969SOL     OW86803  10.915   0.614  10.355
94969SOL    HW186804  10.880   0.525  10.363
94969SOL    HW286805  10.877   0.647  10.274
94970SOL     OW86806   6.817   4.590   9.593
94970SOL    HW186807   6.909   4.595   9.567
94970SOL    HW286808   6.797   4.677   9.627
94971SOL     OW86809   9.352   8.734   2.973
94971SOL    HW186810   9.351   8.800   3.042
94971SOL    HW286811   9.436   8.747   2.928
94972SOL     OW86812   7.651   0.311   2.370
94972SOL    HW186813   7.658   0.386   2.430
94972SOL    HW286814   7.601   0.345   2.296
94973SOL     OW86815   8.381   0.473   6.457
94973SOL    HW186816   8.440   0.419   6.509
94973SOL    HW286817   8.403   0.453   6.366
94974SOL     OW86818   5.172   8.051   5.403
94974SOL    HW186819   5.256   8.087   5.374
94974SOL    HW286820   5.141   8.000   5.328
94975SOL     OW86821  14.143   1.995   7.765
94975SOL    HW186822  14.052   1.973   7.785
94975SOL    HW286823  14.145   2.091   7.766
94976SOL     OW86824  10.554   8.476   6.235
94976SOL    HW186825  10.631   8.448   6.184
94976SOL    HW286826  10.481   8.468   6.174
94977SOL     OW86827  11.178   4.342   2.418
94977SOL    HW186828  11.256   4.333   2.474
94977SOL    HW286829  11.188   4.428   2.377
94978SOL     OW86830   7.755  10.730   2.033
94978SOL    HW186831   7.747  10.639   2.061
94978SOL    HW286832   7.823  10.729   1.966
94979SOL     OW86833   4.334   4.717  13.720
94979SOL    HW186834   4.393   4.643  13.728
94979SOL    HW286835   4.340   4.762  13.804
94980SOL     OW86836  14.046   2.226   3.098
94980SOL    HW186837  13.978   2.246   3.162
94980SOL    HW286838  14.007   2.248   3.013
94981SOL     OW86839  10.007   5.552   7.585
94981SOL    HW186840  10.085   5.519   7.540
94981SOL    HW286841   9.935   5.533   7.525
94982SOL     OW86842   8.533   4.118  10.591
94982SOL    HW186843   8.618   4.161  10.580
94982SOL    HW286844   8.546   4.058  10.665
94983SOL     OW86845   2.022   0.411   3.122
94983SOL    HW186846   2.090   0.469   3.155
94983SOL    HW286847   1.991   0.363   3.199
94984SOL     OW86848   8.976   3.195   9.031
94984SOL    HW186849   9.021   3.114   9.008
94984SOL    HW286850   8.978   3.247   8.950
94985SOL     OW86851   7.716   3.365   2.718
94985SOL    HW186852   7.797   3.397   2.679
94985SOL    HW286853   7.648   3.388   2.654
94986SOL     OW86854   2.067   0.612  12.511
94986SOL    HW186855   2.085   0.527  12.473
94986SOL    HW286856   2.123   0.616  12.589
94987SOL     OW86857   8.543   3.872   8.979
94987SOL    HW186858   8.584   3.899   8.897
94987SOL    HW286859   8.449   3.878   8.962
94988SOL     OW86860  10.268   1.941   4.796
94988SOL    HW186861  10.242   1.850   4.784
94988SOL    HW286862  10.223   1.969   4.876
94989SOL     OW86863  10.055   8.538  13.084
94989SOL    HW186864  10.009   8.456  13.102
94989SOL    HW286865  10.125   8.513  13.023
94990SOL     OW86866   6.400   6.341   3.178
94990SOL    HW186867   6.477   6.381   3.218
94990SOL    HW286868   6.332   6.346   3.246
94991SOL     OW86869  12.647   2.361  12.662
94991SOL    HW186870  12.684   2.450  12.667
94991SOL    HW286871  12.553   2.375  12.649
94992SOL     OW86872   1.859  12.609  13.322
94992SOL    HW186873   1.946  12.627  13.356
94992SOL    HW286874   1.839  12.520  13.352
94993SOL     OW86875   3.977  11.657   4.601
94993SOL    HW186876   3.917  11.725   4.630
94993SOL    HW286877   3.924  11.599   4.546
94994SOL     OW86878   1.764   4.726   8.551
94994SOL    HW186879   1.707   4.657   8.518
94994SOL    HW286880   1.827   4.741   8.481
94995SOL     OW86881   0.946   3.116  12.373
94995SOL    HW186882   1.017   3.143  12.431
94995SOL    HW286883   0.906   3.041  12.418
94996SOL     OW86884   0.311  10.594   1.529
94996SOL    HW186885   0.264  10.517   1.561
94996SOL    HW286886   0.402  10.567   1.526
94997SOL     OW86887   4.737  11.936  13.900
94997SOL    HW186888   4.671  11.992  13.859
94997SOL    HW286889   4.789  11.996  13.954
94998SOL     OW86890  11.196  13.044   5.191
94998SOL    HW186891  11.210  13.070   5.282
94998SOL    HW286892  11.158  13.121   5.150
94999SOL     OW86893   7.064   4.870  12.948
94999SOL    HW186894   7.105   4.846  13.031
94999SOL    HW286895   7.126   4.841  12.881
95000SOL     OW86896  10.475   0.786   2.912
95000SOL    HW186897  10.501   0.877   2.899
95000SOL    HW286898  10.396   0.776   2.859
95001SOL     OW86899   3.599   3.682   8.796
95001SOL    HW186900   3.674   3.622   8.794
95001SOL    HW286901   3.602   3.727   8.712
95002SOL     OW86902  11.820   8.033   9.623
95002SOL    HW186903  11.776   8.068   9.545
95002SOL    HW286904  11.813   8.103   9.688
95003SOL     OW86905  11.111   8.743  11.795
95003SOL    HW186906  11.021   8.721  11.771
95003SOL    HW286907  11.120   8.836  11.772
95004SOL     OW86908  10.843   7.320  10.764
95004SOL    HW186909  10.881   7.373  10.835
95004SOL    HW286910  10.823   7.236  10.805
95005SOL     OW86911   4.200   7.039   0.872
95005SOL    HW186912   4.233   7.120   0.911
95005SOL    HW286913   4.109   7.057   0.852
95006SOL     OW86914  11.516   6.867   0.893
95006SOL    HW186915  11.581   6.876   0.822
95006SOL    HW286916  11.445   6.926   0.868
95007SOL     OW86917   8.890   1.542  11.625
95007SOL    HW186918   8.973   1.575  11.590
95007SOL    HW286919   8.912   1.512  11.713
95008SOL     OW86920   7.467   6.147   9.463
95008SOL    HW186921   7.461   6.228   9.413
95008SOL    HW286922   7.412   6.085   9.414
95009SOL     OW86923  12.898  11.264   4.229
95009SOL    HW186924  12.886  11.328   4.299
95009SOL    HW286925  12.830  11.199   4.245
95010SOL     OW86926   3.504   5.791  10.116
95010SOL    HW186927   3.510   5.707  10.161
95010SOL    HW286928   3.429   5.781  10.056
95011SOL     OW86929   0.177  13.984   6.277
95011SOL    HW186930   0.228  13.916   6.233
95011SOL    HW286931   0.113  13.936   6.329
95012SOL     OW86932  10.221   8.211   0.111
95012SOL    HW186933  10.304   8.163   0.105
95012SOL    HW286934  10.162   8.153   0.159
95013SOL     OW86935   6.814   0.198   0.187
95013SOL    HW186936   6.833   0.217   0.095
95013SOL    HW286937   6.723   0.225   0.199
95014SOL     OW86938  13.251  11.151   5.460
95014SOL    HW186939  13.332  11.103   5.476
95014SOL    HW286940  13.262  11.234   5.507
95015SOL     OW86941  11.390  12.961   1.694
95015SOL    HW186942  11.459  13.023   1.719
95015SOL    HW286943  11.355  12.996   1.612
95016SOL     OW86944   4.666   1.959   0.056
95016SOL    HW186945   4.672   1.964   0.151
95016SOL    HW286946   4.574   1.976   0.037
95017SOL     OW86947   9.694   3.227   4.600
95017SOL    HW186948   9.763   3.259   4.542
95017SOL    HW286949   9.651   3.306   4.631
95018SOL     OW86950  13.961   9.725   3.820
95018SOL    HW186951  14.034   9.666   3.799
95018SOL    HW286952  13.935   9.700   3.909
95019SOL     OW86953  14.621  11.088  13.187
95019SOL    HW186954  14.614  11.102  13.092
95019SOL    HW286955  14.584  11.001  13.201
95020SOL     OW86956   3.240   3.755  10.679
95020SOL    HW186957   3.302   3.716  10.741
95020SOL    HW286958   3.277   3.841  10.659
95021SOL     OW86959  13.508   3.992   9.751
95021SOL    HW186960  13.517   4.066   9.810
95021SOL    HW286961  13.567   4.011   9.679
95022SOL     OW86962  12.586   5.694   7.880
95022SOL    HW186963  12.612   5.731   7.795
95022SOL    HW286964  12.645   5.735   7.943
95023SOL     OW86965   5.247   6.095   2.597
95023SOL    HW186966   5.286   6.084   2.510
95023SOL    HW286967   5.241   6.190   2.608
95024SOL     OW86968   7.568   6.024  13.324
95024SOL    HW186969   7.508   5.962  13.365
95024SOL    HW286970   7.519   6.059  13.250
95025SOL     OW86971   8.749   2.414  10.917
95025SOL    HW186972   8.838   2.388  10.893
95025SOL    HW286973   8.692   2.354  10.868
95026SOL     OW86974   7.865   8.218   9.563
95026SOL    HW186975   7.815   8.300   9.568
95026SOL    HW286976   7.943   8.234   9.616
95027SOL     OW86977   0.663   3.270   4.848
95027SOL    HW186978   0.619   3.189   4.876
95027SOL    HW286979   0.751   3.242   4.824
95028SOL     OW86980   4.222   5.117   8.113
95028SOL    HW186981   4.271   5.081   8.040
95028SOL    HW286982   4.287   5.132   8.181
95029SOL     OW86983   6.225   1.502   4.668
95029SOL    HW186984   6.298   1.548   4.709
95029SOL    HW286985   6.177   1.462   4.742
95030SOL     OW86986   9.331  14.420   4.737
95030SOL    HW186987   9.324  14.378   4.651
95030SOL    HW286988   9.383  14.499   4.720
95031SOL     OW86989   3.907   0.874   3.658
95031SOL    HW186990   3.910   0.970   3.660
95031SOL    HW286991   3.952   0.846   3.737
95032SOL     OW86992   2.433  12.108  11.637
95032SOL    HW186993   2.377  12.034  11.614
95032SOL    HW286994   2.437  12.161  11.557
95033SOL     OW86995   2.060  12.151  13.447
95033SOL    HW186996   2.054  12.077  13.387
95033SOL    HW286997   1.991  12.136  13.511
95034SOL     OW86998  13.523   0.094   8.647
95034SOL    HW186999  13.429   0.106   8.657
95034SOL    HW287000  13.558   0.184   8.643
95035SOL     OW87001  13.169   5.417   9.485
95035SOL    HW187002  13.248   5.363   9.492
95035SOL    HW287003  13.103   5.370   9.537
95036SOL     OW87004   5.041   0.069   0.843
95036SOL    HW187005   5.096   0.031   0.774
95036SOL    HW287006   5.077   0.033   0.924
95037SOL     OW87007   4.275   0.090   2.369
95037SOL    HW187008   4.277   0.014   2.312
95037SOL    HW287009   4.364   0.125   2.367
95038SOL     OW87010   5.088  11.850  14.198
95038SOL    HW187011   5.014  11.893  14.240
95038SOL    HW287012   5.163  11.906  14.218
95039SOL     OW87013   3.169   2.630  12.469
95039SOL    HW187014   3.205   2.636  12.380
95039SOL    HW287015   3.243   2.649  12.526
95040SOL     OW87016   3.294  13.173   2.567
95040SOL    HW187017   3.213  13.174   2.618
95040SOL    HW287018   3.304  13.081   2.540
95041SOL     OW87019   6.465  11.151  11.748
95041SOL    HW187020   6.394  11.202  11.786
95041SOL    HW287021   6.545  11.192  11.780
95042SOL     OW87022   3.800   4.477  11.441
95042SOL    HW187023   3.711   4.490  11.476
95042SOL    HW287024   3.857   4.496  11.515
95043SOL     OW87025  11.612  12.364   3.615
95043SOL    HW187026  11.668  12.425   3.663
95043SOL    HW287027  11.631  12.279   3.653
95044SOL     OW87028   9.175   5.260   4.039
95044SOL    HW187029   9.247   5.205   4.072
95044SOL    HW287030   9.096   5.215   4.066
95045SOL     OW87031   7.365   4.024   0.979
95045SOL    HW187032   7.293   4.082   0.952
95045SOL    HW287033   7.359   3.950   0.918
95046SOL     OW87034   2.971  10.649   4.383
95046SOL    HW187035   2.956  10.669   4.475
95046SOL    HW287036   2.983  10.554   4.380
95047SOL     OW87037   4.955   5.291   0.852
95047SOL    HW187038   4.990   5.235   0.922
95047SOL    HW287039   4.861   5.295   0.870
95048SOL     OW87040   2.484   5.222  11.316
95048SOL    HW187041   2.491   5.244  11.223
95048SOL    HW287042   2.390   5.221  11.333
95049SOL     OW87043  12.793  11.179   3.313
95049SOL    HW187044  12.734  11.213   3.246
95049SOL    HW287045  12.829  11.258   3.355
95050SOL     OW87046   3.591   8.929   0.508
95050SOL    HW187047   3.521   8.943   0.444
95050SOL    HW287048   3.606   8.834   0.506
95051SOL     OW87049   6.583   4.930  12.859
95051SOL    HW187050   6.617   4.885  12.782
95051SOL    HW287051   6.655   4.986  12.887
95052SOL     OW87052  13.683   8.309   5.581
95052SOL    HW187053  13.608   8.280   5.530
95052SOL    HW287054  13.728   8.228   5.607
95053SOL     OW87055  10.215  14.000   4.803
95053SOL    HW187056  10.265  14.081   4.807
95053SOL    HW287057  10.229  13.967   4.714
95054SOL     OW87058   0.606  13.355   6.744
95054SOL    HW187059   0.662  13.419   6.788
95054SOL    HW287060   0.541  13.407   6.698
95055SOL     OW87061  12.703   8.204  11.036
95055SOL    HW187062  12.675   8.233  10.949
95055SOL    HW287063  12.768   8.269  11.063
95056SOL     OW87064   8.792   6.973   3.900
95056SOL    HW187065   8.732   6.955   3.972
95056SOL    HW287066   8.810   6.888   3.861
95057SOL     OW87067   8.567  14.309  11.287
95057SOL    HW187068   8.602  14.234  11.336
95057SOL    HW287069   8.622  14.382  11.313
95058SOL     OW87070  10.959   0.368   9.684
95058SOL    HW187071  10.889   0.406   9.737
95058SOL    HW287072  10.915   0.335   9.606
95059SOL     OW87073   5.215  13.567   0.263
95059SOL    HW187074   5.231  13.571   0.358
95059SOL    HW287075   5.279  13.627   0.225
95060SOL     OW87076   7.343  13.461   0.718
95060SOL    HW187077   7.402  13.390   0.694
95060SOL    HW287078   7.332  13.452   0.812
95061SOL     OW87079   8.179  12.111   8.525
95061SOL    HW187080   8.231  12.051   8.579
95061SOL    HW287081   8.114  12.054   8.483
95062SOL     OW87082   7.728   6.147  12.037
95062SOL    HW187083   7.779   6.126  11.959
95062SOL    HW287084   7.661   6.079  12.040
95063SOL     OW87085   8.943   5.532   4.396
95063SOL    HW187086   8.963   5.443   4.368
95063SOL    HW287087   9.011   5.553   4.460
95064SOL     OW87088  10.349   4.875   5.209
95064SOL    HW187089  10.433   4.833   5.189
95064SOL    HW287090  10.359   4.965   5.179
95065SOL     OW87091  12.816   3.263   4.337
95065SOL    HW187092  12.836   3.212   4.416
95065SOL    HW287093  12.850   3.350   4.356
95066SOL     OW87094   0.316   8.424   8.745
95066SOL    HW187095   0.363   8.492   8.795
95066SOL    HW287096   0.224   8.437   8.769
95067SOL     OW87097   2.029   0.578  10.120
95067SOL    HW187098   2.080   0.506  10.157
95067SOL    HW287099   2.011   0.551  10.030
95068SOL     OW87100   4.430   0.264   6.473
95068SOL    HW187101   4.361   0.206   6.505
95068SOL    HW287102   4.507   0.208   6.467
95069SOL     OW87103   1.465   7.637   1.527
95069SOL    HW187104   1.535   7.605   1.470
95069SOL    HW287105   1.385   7.597   1.492
95070SOL     OW87106   1.748   9.826   7.885
95070SOL    HW187107   1.762   9.742   7.841
95070SOL    HW287108   1.740   9.804   7.978
95071SOL     OW87109   1.176   3.409   6.127
95071SOL    HW187110   1.194   3.347   6.056
95071SOL    HW287111   1.125   3.479   6.085
95072SOL     OW87112  14.132   3.923   4.054
95072SOL    HW187113  14.063   3.890   3.997
95072SOL    HW287114  14.203   3.859   4.046
95073SOL     OW87115   1.010   6.177   0.042
95073SOL    HW187116   0.964   6.167  14.830
95073SOL    HW287117   0.943   6.155   0.108
95074SOL     OW87118  10.007   7.735   4.897
95074SOL    HW187119  10.081   7.730   4.957
95074SOL    HW287120   9.964   7.650   4.904
95075SOL     OW87121   7.506   3.895   2.578
95075SOL    HW187122   7.492   3.945   2.658
95075SOL    HW287123   7.496   3.804   2.605
95076SOL     OW87124   5.178  14.156   3.160
95076SOL    HW187125   5.261  14.201   3.142
95076SOL    HW287126   5.145  14.198   3.239
95077SOL     OW87127   0.358  10.075   4.928
95077SOL    HW187128   0.454  10.085   4.935
95077SOL    HW287129   0.324  10.156   4.967
95078SOL     OW87130  14.776   1.512   0.639
95078SOL    HW187131  14.719   1.580   0.672
95078SOL    HW287132  14.861   1.529   0.680
95079SOL     OW87133   7.578   8.856  10.868
95079SOL    HW187134   7.661   8.845  10.914
95079SOL    HW287135   7.529   8.919  10.920
95080SOL     OW87136   1.690   2.221   6.701
95080SOL    HW187137   1.713   2.312   6.722
95080SOL    HW287138   1.688   2.177   6.786
95081SOL     OW87139   1.886  13.329  11.573
95081SOL    HW187140   1.845  13.323  11.659
95081SOL    HW287141   1.963  13.271  11.579
95082SOL     OW87142  11.086  11.524   7.212
95082SOL    HW187143  11.149  11.595   7.202
95082SOL    HW287144  11.134  11.455   7.258
95083SOL     OW87145  11.599  11.352   8.928
95083SOL    HW187146  11.607  11.256   8.929
95083SOL    HW287147  11.548  11.371   8.849
95084SOL     OW87148   3.623   9.579   4.414
95084SOL    HW187149   3.597   9.666   4.445
95084SOL    HW287150   3.602   9.520   4.487
95085SOL     OW87151  10.746  13.114   3.339
95085SOL    HW187152  10.830  13.073   3.316
95085SOL    HW287153  10.715  13.064   3.415
95086SOL     OW87154   9.554   6.696  10.423
95086SOL    HW187155   9.636   6.679  10.377
95086SOL    HW287156   9.545   6.791  10.422
95087SOL     OW87157   6.774  12.903  12.344
95087SOL    HW187158   6.828  12.978  12.320
95087SOL    HW287159   6.717  12.936  12.413
95088SOL     OW87160  11.142   5.707  13.165
95088SOL    HW187161  11.217   5.767  13.170
95088SOL    HW287162  11.076   5.756  13.116
95089SOL     OW87163   4.395   6.344   1.065
95089SOL    HW187164   4.306   6.343   1.101
95089SOL    HW287165   4.451   6.342   1.143
95090SOL     OW87166   4.543   4.662  10.647
95090SOL    HW187167   4.488   4.740  10.658
95090SOL    HW287168   4.506   4.599  10.709
95091SOL     OW87169   6.373  12.303   6.238
95091SOL    HW187170   6.293  12.345   6.270
95091SOL    HW287171   6.424  12.284   6.317
95092SOL     OW87172   7.372   4.466  13.469
95092SOL    HW187173   7.342   4.557  13.467
95092SOL    HW287174   7.454   4.470  13.519
95093SOL     OW87175  14.629   1.596   1.591
95093SOL    HW187176  14.724   1.611   1.591
95093SOL    HW287177  14.596   1.650   1.662
95094SOL     OW87178   9.312   2.524   8.546
95094SOL    HW187179   9.381   2.547   8.608
95094SOL    HW287180   9.355   2.468   8.481
95095SOL     OW87181  11.184   2.571  10.974
95095SOL    HW187182  11.134   2.651  10.989
95095SOL    HW287183  11.276   2.599  10.978
95096SOL     OW87184   9.064   0.025  14.856
95096SOL    HW187185   8.984   0.064   0.021
95096SOL    HW287186   9.041   0.001  14.766
95097SOL     OW87187  14.273   4.001  11.723
95097SOL    HW187188  14.185   3.983  11.690
95097SOL    HW287189  14.261   4.015  11.817
95098SOL     OW87190   1.003  10.592   2.525
95098SOL    HW187191   0.958  10.607   2.442
95098SOL    HW287192   0.998  10.497   2.538
95099SOL     OW87193  11.267   8.592   9.868
95099SOL    HW187194  11.217   8.667   9.899
95099SOL    HW287195  11.265   8.530   9.940
95100SOL     OW87196   6.139  12.405   0.945
95100SOL    HW187197   6.169  12.484   0.901
95100SOL    HW287198   6.217  12.350   0.953
95101SOL     OW87199   9.892  11.915  12.794
95101SOL    HW187200   9.827  11.918  12.724
95101SOL    HW287201   9.849  11.958  12.869
95102SOL     OW87202   4.498  13.998   2.934
95102SOL    HW187203   4.439  14.015   3.006
95102SOL    HW287204   4.508  14.082   2.889
95103SOL     OW87205   2.549  13.992  10.341
95103SOL    HW187206   2.561  14.085  10.321
95103SOL    HW287207   2.473  13.989  10.400
95104SOL     OW87208   2.826   0.337   5.244
95104SOL    HW187209   2.879   0.277   5.191
95104SOL    HW287210   2.742   0.292   5.254
95105SOL     OW87211   0.707   4.439  10.962
95105SOL    HW187212   0.613   4.430  10.980
95105SOL    HW287213   0.744   4.472  11.045
95106SOL     OW87214   8.730   8.881  14.355
95106SOL    HW187215   8.732   8.964  14.307
95106SOL    HW287216   8.822   8.857  14.366
95107SOL     OW87217  11.035   3.141  10.979
95107SOL    HW187218  11.025   3.156  11.074
95107SOL    HW287219  11.130   3.143  10.965
95108SOL     OW87220   4.848   3.181   1.230
95108SOL    HW187221   4.762   3.223   1.222
95108SOL    HW287222   4.905   3.232   1.172
95109SOL     OW87223  13.875   6.207   8.594
95109SOL    HW187224  13.887   6.153   8.672
95109SOL    HW287225  13.943   6.178   8.534
95110SOL     OW87226   8.549  10.595   2.502
95110SOL    HW187227   8.523  10.607   2.411
95110SOL    HW287228   8.609  10.521   2.500
95111SOL     OW87229   6.033   4.501   9.376
95111SOL    HW187230   5.948   4.505   9.419
95111SOL    HW287231   6.058   4.593   9.364
95112SOL     OW87232   8.064  11.724  14.649
95112SOL    HW187233   8.029  11.639  14.622
95112SOL    HW287234   8.159  11.710  14.654
95113SOL     OW87235   4.657   2.422  14.103
95113SOL    HW187236   4.752   2.419  14.112
95113SOL    HW287237   4.628   2.480  14.173
95114SOL     OW87238   5.253   8.101   5.067
95114SOL    HW187239   5.179   8.047   5.094
95114SOL    HW287240   5.232   8.128   4.978
95115SOL     OW87241   2.913   0.229  12.182
95115SOL    HW187242   2.995   0.232  12.133
95115SOL    HW287243   2.869   0.150  12.151
95116SOL     OW87244   6.312  11.520  14.175
95116SOL    HW187245   6.386  11.471  14.210
95116SOL    HW287246   6.259  11.453  14.130
95117SOL     OW87247   5.701   3.973   6.577
95117SOL    HW187248   5.778   4.024   6.551
95117SOL    HW287249   5.730   3.882   6.572
95118SOL     OW87250   0.774   0.376   8.665
95118SOL    HW187251   0.773   0.334   8.751
95118SOL    HW287252   0.740   0.308   8.606
95119SOL     OW87253  13.399   4.315  13.258
95119SOL    HW187254  13.423   4.402  13.227
95119SOL    HW287255  13.370   4.268  13.180
95120SOL     OW87256  14.293   1.776   6.329
95120SOL    HW187257  14.249   1.719   6.265
95120SOL    HW287258  14.370   1.809   6.283
95121SOL     OW87259  10.465   0.475   4.691
95121SOL    HW187260  10.474   0.412   4.620
95121SOL    HW287261  10.437   0.556   4.647
95122SOL     OW87262   6.742  10.194  13.844
95122SOL    HW187263   6.799  10.233  13.778
95122SOL    HW287264   6.734  10.102  13.818
95123SOL     OW87265   8.788  11.363   9.154
95123SOL    HW187266   8.869  11.325   9.188
95123SOL    HW287267   8.775  11.320   9.069
95124SOL     OW87268   3.223  10.416   5.128
95124SOL    HW187269   3.166  10.342   5.147
95124SOL    HW287270   3.207  10.436   5.035
95125SOL     OW87271   0.515  10.991   8.063
95125SOL    HW187272   0.442  11.047   8.088
95125SOL    HW287273   0.510  10.917   8.125
95126SOL     OW87274   7.644  12.786   5.418
95126SOL    HW187275   7.631  12.739   5.336
95126SOL    HW287276   7.710  12.852   5.397
95127SOL     OW87277   0.788  10.605  11.133
95127SOL    HW187278   0.862  10.557  11.170
95127SOL    HW287279   0.719  10.597  11.200
95128SOL     OW87280   2.470   2.166   4.634
95128SOL    HW187281   2.532   2.101   4.601
95128SOL    HW287282   2.463   2.230   4.563
95129SOL     OW87283   6.552  10.547   7.565
95129SOL    HW187284   6.506  10.583   7.490
95129SOL    HW287285   6.639  10.525   7.531
95130SOL     OW87286  11.407  11.576   8.466
95130SOL    HW187287  11.438  11.562   8.556
95130SOL    HW287288  11.404  11.488   8.428
95131SOL     OW87289   9.666   3.336   3.205
95131SOL    HW187290   9.739   3.312   3.262
95131SOL    HW287291   9.706   3.349   3.119
95132SOL     OW87292   5.355  13.880  10.565
95132SOL    HW187293   5.412  13.870  10.641
95132SOL    HW287294   5.315  13.794  10.554
95133SOL     OW87295   3.550  12.854   6.938
95133SOL    HW187296   3.531  12.897   6.855
95133SOL    HW287297   3.590  12.922   6.993
95134SOL     OW87298   0.068   0.448   1.857
95134SOL    HW187299   0.083   0.493   1.774
95134SOL    HW287300   0.112   0.503   1.922
95135SOL     OW87301   8.389   3.292  11.709
95135SOL    HW187302   8.326   3.333  11.651
95135SOL    HW287303   8.352   3.206  11.728
95136SOL     OW87304   5.748  12.002   5.795
95136SOL    HW187305   5.731  11.947   5.718
95136SOL    HW287306   5.691  12.078   5.784
95137SOL     OW87307   9.241   0.875  11.018
95137SOL    HW187308   9.150   0.863  10.991
95137SOL    HW287309   9.284   0.912  10.941
95138SOL     OW87310   5.442   9.046   8.517
95138SOL    HW187311   5.521   9.056   8.463
95138SOL    HW287312   5.401   8.966   8.485
95139SOL     OW87313   1.268   3.269   7.466
95139SOL    HW187314   1.331   3.225   7.523
95139SOL    HW287315   1.305   3.261   7.379
95140SOL     OW87316  12.546   7.054   4.218
95140SOL    HW187317  12.481   7.071   4.286
95140SOL    HW287318  12.615   7.118   4.235
95141SOL     OW87319  14.787   5.571   9.022
95141SOL    HW187320  14.738   5.581   8.941
95141SOL    HW287321  14.743   5.628   9.084
95142SOL     OW87322   3.580   3.471   0.280
95142SOL    HW187323   3.666   3.509   0.298
95142SOL    HW287324   3.595   3.377   0.282
95143SOL     OW87325   2.492   1.606  13.853
95143SOL    HW187326   2.441   1.598  13.772
95143SOL    HW287327   2.480   1.698  13.879
95144SOL     OW87328   7.178  12.479   1.729
95144SOL    HW187329   7.173  12.551   1.792
95144SOL    HW287330   7.091  12.477   1.689
95145SOL     OW87331  10.925  13.978   2.967
95145SOL    HW187332  11.005  13.928   2.954
95145SOL    HW287333  10.875  13.927   3.032
95146SOL     OW87334   5.175  11.851   7.297
95146SOL    HW187335   5.139  11.923   7.349
95146SOL    HW287336   5.245  11.815   7.351
95147SOL     OW87337   4.791  12.549   3.476
95147SOL    HW187338   4.779  12.520   3.566
95147SOL    HW287339   4.879  12.587   3.475
95148SOL     OW87340   4.043   1.156   6.176
95148SOL    HW187341   4.077   1.243   6.159
95148SOL    HW287342   3.968   1.170   6.234
95149SOL     OW87343  12.418   8.980   6.148
95149SOL    HW187344  12.379   9.062   6.120
95149SOL    HW287345  12.345   8.918   6.153
95150SOL     OW87346   9.754  10.187  13.691
95150SOL    HW187347   9.824  10.123  13.701
95150SOL    HW287348   9.771  10.251  13.760
95151SOL     OW87349   8.860   4.748   4.382
95151SOL    HW187350   8.792   4.774   4.319
95151SOL    HW287351   8.865   4.653   4.373
95152SOL     OW87352   4.701   5.972   3.439
95152SOL    HW187353   4.704   6.029   3.516
95152SOL    HW287354   4.704   5.883   3.475
95153SOL     OW87355   7.434   2.302  11.468
95153SOL    HW187356   7.463   2.264  11.385
95153SOL    HW287357   7.415   2.227  11.523
95154SOL     OW87358  13.380   9.665   6.605
95154SOL    HW187359  13.310   9.665   6.670
95154SOL    HW287360  13.404   9.572   6.596
95155SOL     OW87361  11.378  13.819  13.373
95155SOL    HW187362  11.394  13.795  13.464
95155SOL    HW287363  11.333  13.743  13.336
95156SOL     OW87364  13.861   9.173   6.580
95156SOL    HW187365  13.883   9.171   6.487
95156SOL    HW287366  13.924   9.113   6.621
95157SOL     OW87367   7.669  13.161   2.722
95157SOL    HW187368   7.700  13.207   2.645
95157SOL    HW287369   7.576  13.146   2.705
95158SOL     OW87370   9.756   2.578   4.609
95158SOL    HW187371   9.747   2.671   4.592
95158SOL    HW287372   9.816   2.547   4.541
95159SOL     OW87373   5.539   7.724   5.600
95159SOL    HW187374   5.578   7.810   5.619
95159SOL    HW287375   5.576   7.667   5.667
95160SOL     OW87376  13.348  14.054  11.996
95160SOL    HW187377  13.433  14.075  12.034
95160SOL    HW287378  13.369  14.018  11.910
95161SOL     OW87379   2.035  12.365   9.677
95161SOL    HW187380   2.041  12.278   9.639
95161SOL    HW287381   2.078  12.356   9.763
95162SOL     OW87382  11.919   4.325   1.304
95162SOL    HW187383  11.970   4.377   1.241
95162SOL    HW287384  11.982   4.260   1.337
95163SOL     OW87385   6.944   0.159  11.710
95163SOL    HW187386   6.857   0.169  11.671
95163SOL    HW287387   6.940   0.211  11.790
95164SOL     OW87388   2.975   8.671   3.366
95164SOL    HW187389   2.899   8.624   3.401
95164SOL    HW287390   3.024   8.697   3.443
95165SOL     OW87391   7.230   2.923   8.307
95165SOL    HW187392   7.168   2.850   8.313
95165SOL    HW287393   7.250   2.929   8.213
95166SOL     OW87394   6.000   8.320   9.991
95166SOL    HW187395   5.978   8.378  10.064
95166SOL    HW287396   6.086   8.350   9.962
95167SOL     OW87397   5.050  13.296  11.515
95167SOL    HW187398   4.978  13.259  11.566
95167SOL    HW287399   5.028  13.389  11.507
95168SOL     OW87400  10.736   6.577   4.372
95168SOL    HW187401  10.709   6.622   4.292
95168SOL    HW287402  10.759   6.489   4.343
95169SOL     OW87403  14.534   8.252  12.998
95169SOL    HW187404  14.533   8.222  12.907
95169SOL    HW287405  14.625   8.241  13.025
95170SOL     OW87406   7.898   6.176   9.916
95170SOL    HW187407   7.941   6.210   9.838
95170SOL    HW287408   7.968   6.173   9.982
95171SOL     OW87409   7.345   6.952   8.029
95171SOL    HW187410   7.392   6.933   7.948
95171SOL    HW287411   7.255   6.969   8.000
95172SOL     OW87412  12.757   5.914   6.248
95172SOL    HW187413  12.785   5.845   6.189
95172SOL    HW287414  12.839   5.948   6.286
95173SOL     OW87415   0.783   9.996   7.188
95173SOL    HW187416   0.723   9.957   7.125
95173SOL    HW287417   0.796  10.085   7.157
95174SOL     OW87418   4.141  12.307  11.854
95174SOL    HW187419   4.061  12.358  11.862
95174SOL    HW287420   4.186  12.344  11.778
95175SOL     OW87421   9.924   0.871  10.007
95175SOL    HW187422   9.870   0.947   9.985
95175SOL    HW287423   9.895   0.847  10.096
95176SOL     OW87424   7.272  10.769   7.444
95176SOL    HW187425   7.203  10.735   7.501
95176SOL    HW287426   7.233  10.847   7.403
95177SOL     OW87427  11.644   0.249   6.944
95177SOL    HW187428  11.597   0.175   6.983
95177SOL    HW287429  11.586   0.324   6.956
95178SOL     OW87430   5.466   6.730   3.112
95178SOL    HW187431   5.446   6.694   3.198
95178SOL    HW287432   5.383   6.728   3.065
95179SOL     OW87433   8.428  13.579  13.440
95179SOL    HW187434   8.442  13.583  13.534
95179SOL    HW287435   8.333  13.579  13.429
95180SOL     OW87436  13.570  13.901   0.135
95180SOL    HW187437  13.531  13.930   0.218
95180SOL    HW287438  13.644  13.960   0.121
95181SOL     OW87439   0.548   4.959   8.543
95181SOL    HW187440   0.494   5.036   8.525
95181SOL    HW287441   0.599   4.947   8.463
95182SOL     OW87442   1.990   0.192  13.574
95182SOL    HW187443   2.016   0.108  13.612
95182SOL    HW287444   1.939   0.235  13.643
95183SOL     OW87445   8.311   1.085   6.654
95183SOL    HW187446   8.271   0.999   6.637
95183SOL    HW287447   8.343   1.079   6.744
95184SOL     OW87448   3.327  10.746   3.546
95184SOL    HW187449   3.402  10.695   3.578
95184SOL    HW287450   3.352  10.837   3.563
95185SOL     OW87451  12.115  11.153   4.561
95185SOL    HW187452  12.189  11.118   4.511
95185SOL    HW287453  12.131  11.247   4.564
95186SOL     OW87454   9.418   8.006  10.890
95186SOL    HW187455   9.366   7.955  10.951
95186SOL    HW287456   9.366   8.010  10.810
95187SOL     OW87457   4.855  13.354   6.445
95187SOL    HW187458   4.933  13.365   6.390
95187SOL    HW287459   4.842  13.259   6.450
95188SOL     OW87460   0.744   7.552  12.679
95188SOL    HW187461   0.759   7.611  12.605
95188SOL    HW287462   0.805   7.582  12.746
95189SOL     OW87463   3.192   6.807   3.925
95189SOL    HW187464   3.144   6.751   3.985
95189SOL    HW287465   3.284   6.784   3.939
95190SOL     OW87466  10.807   4.114   5.549
95190SOL    HW187467  10.768   4.193   5.585
95190SOL    HW287468  10.820   4.056   5.624
95191SOL     OW87469   9.879   4.352  10.229
95191SOL    HW187470   9.893   4.393  10.143
95191SOL    HW287471   9.967   4.344  10.267
95192SOL     OW87472  11.796   7.231  12.676
95192SOL    HW187473  11.715   7.208  12.722
95192SOL    HW287474  11.860   7.245  12.746
95193SOL     OW87475   8.486  14.315   7.181
95193SOL    HW187476   8.441  14.243   7.226
95193SOL    HW287477   8.436  14.327   7.100
95194SOL     OW87478   6.512   6.373   2.335
95194SOL    HW187479   6.555   6.408   2.256
95194SOL    HW287480   6.423   6.406   2.330
95195SOL     OW87481  10.872   6.632   0.692
95195SOL    HW187482  10.866   6.721   0.659
95195SOL    HW287483  10.956   6.629   0.738
95196SOL     OW87484   0.315   2.331   0.995
95196SOL    HW187485   0.397   2.282   0.983
95196SOL    HW287486   0.249   2.277   0.951
95197SOL     OW87487   3.696   0.801   8.833
95197SOL    HW187488   3.689   0.804   8.737
95197SOL    HW287489   3.709   0.892   8.859
95198SOL     OW87490   4.106   5.358   8.145
95198SOL    HW187491   4.139   5.270   8.129
95198SOL    HW287492   4.129   5.375   8.237
95199SOL     OW87493   5.293  13.219  11.571
95199SOL    HW187494   5.296  13.212  11.666
95199SOL    HW287495   5.211  13.266  11.553
95200SOL     OW87496  11.859   7.893   1.079
95200SOL    HW187497  11.905   7.853   1.005
95200SOL    HW287498  11.777   7.924   1.041
95201SOL     OW87499   9.527  13.356  13.468
95201SOL    HW187500   9.532  13.261  13.476
95201SOL    HW287501   9.618  13.385  13.476
95202SOL     OW87502  13.177  11.436   0.460
95202SOL    HW187503  13.264  11.408   0.491
95202SOL    HW287504  13.122  11.358   0.470
95203SOL     OW87505  11.693   4.675   4.318
95203SOL    HW187506  11.689   4.747   4.255
95203SOL    HW287507  11.665   4.713   4.401
95204SOL     OW87508  13.107  12.596  14.459
95204SOL    HW187509  13.107  12.576  14.553
95204SOL    HW287510  13.021  12.565  14.429
95205SOL     OW87511   1.314  13.257  13.609
95205SOL    HW187512   1.384  13.238  13.672
95205SOL    HW287513   1.274  13.171  13.592
95206SOL     OW87514   2.404   8.043   4.402
95206SOL    HW187515   2.360   8.107   4.458
95206SOL    HW287516   2.427   8.092   4.322
95207SOL     OW87517   5.067   0.208   4.175
95207SOL    HW187518   5.108   0.124   4.194
95207SOL    HW287519   4.989   0.186   4.123
95208SOL     OW87520   0.675   7.711   9.306
95208SOL    HW187521   0.762   7.691   9.272
95208SOL    HW287522   0.645   7.629   9.346
95209SOL     OW87523   3.644   8.598   7.551
95209SOL    HW187524   3.633   8.588   7.456
95209SOL    HW287525   3.737   8.580   7.566
95210SOL     OW87526   6.999   7.179   0.565
95210SOL    HW187527   6.922   7.205   0.614
95210SOL    HW287528   7.064   7.247   0.583
95211SOL     OW87529  14.590   8.015   5.581
95211SOL    HW187530  14.600   8.109   5.567
95211SOL    HW287531  14.591   7.977   5.493
95212SOL     OW87532   6.994   1.429   6.858
95212SOL    HW187533   7.058   1.468   6.798
95212SOL    HW287534   6.977   1.342   6.821
95213SOL     OW87535  12.484   1.560   7.514
95213SOL    HW187536  12.417   1.622   7.487
95213SOL    HW287537  12.486   1.567   7.609
95214SOL     OW87538   7.205   1.752   4.616
95214SOL    HW187539   7.144   1.692   4.660
95214SOL    HW287540   7.265   1.779   4.686
95215SOL     OW87541   1.908   6.622   6.735
95215SOL    HW187542   1.946   6.645   6.820
95215SOL    HW287543   1.964   6.552   6.702
95216SOL     OW87544   0.143  10.633  10.285
95216SOL    HW187545   0.094  10.552  10.272
95216SOL    HW287546   0.125  10.684  10.206
95217SOL     OW87547   8.277  11.524  11.313
95217SOL    HW187548   8.184  11.508  11.330
95217SOL    HW287549   8.293  11.481  11.229
95218SOL     OW87550   3.676   8.076  12.467
95218SOL    HW187551   3.767   8.107  12.466
95218SOL    HW287552   3.627   8.149  12.503
95219SOL     OW87553   6.045   3.015   7.573
95219SOL    HW187554   6.107   3.075   7.532
95219SOL    HW287555   6.027   2.950   7.506
95220SOL     OW87556   1.444   7.199  13.728
95220SOL    HW187557   1.377   7.264  13.706
95220SOL    HW287558   1.406   7.116  13.700
95221SOL     OW87559   9.329  10.401  12.639
95221SOL    HW187560   9.235  10.399  12.659
95221SOL    HW287561   9.337  10.350  12.558
95222SOL     OW87562   2.877  14.473  13.168
95222SOL    HW187563   2.875  14.491  13.262
95222SOL    HW287564   2.786  14.476  13.140
95223SOL     OW87565  10.463  11.591   2.407
95223SOL    HW187566  10.514  11.587   2.326
95223SOL    HW287567  10.403  11.516   2.402
95224SOL     OW87568   2.067   6.715   2.843
95224SOL    HW187569   2.042   6.718   2.935
95224SOL    HW287570   2.133   6.784   2.833
95225SOL     OW87571  11.587  11.077  10.908
95225SOL    HW187572  11.618  11.151  10.959
95225SOL    HW287573  11.639  11.003  10.939
95226SOL     OW87574  10.344  13.049   1.559
95226SOL    HW187575  10.412  13.092   1.509
95226SOL    HW287576  10.304  12.987   1.498
95227SOL     OW87577   8.118  14.451   5.829
95227SOL    HW187578   8.129  14.391   5.755
95227SOL    HW287579   8.043  14.506   5.804
95228SOL     OW87580   7.747   0.206  10.524
95228SOL    HW187581   7.705   0.120  10.520
95228SOL    HW287582   7.810   0.205  10.451
95229SOL     OW87583   3.542   9.953   8.195
95229SOL    HW187584   3.466   9.936   8.251
95229SOL    HW287585   3.605   9.996   8.253
95230SOL     OW87586   9.396   1.686   4.330
95230SOL    HW187587   9.323   1.748   4.328
95230SOL    HW287588   9.360   1.606   4.292
95231SOL     OW87589  10.481  12.397   5.296
95231SOL    HW187590  10.436  12.415   5.378
95231SOL    HW287591  10.416  12.355   5.240
95232SOL     OW87592   6.860  10.941   3.175
95232SOL    HW187593   6.868  10.979   3.263
95232SOL    HW287594   6.875  11.015   3.116
95233SOL     OW87595   1.635   5.217  12.577
95233SOL    HW187596   1.591   5.234  12.660
95233SOL    HW287597   1.702   5.152  12.597
95234SOL     OW87598   4.091  14.480   8.629
95234SOL    HW187599   4.111  14.455   8.539
95234SOL    HW287600   4.166  14.533   8.657
95235SOL     OW87601  12.834   8.794   1.537
95235SOL    HW187602  12.824   8.702   1.513
95235SOL    HW287603  12.745   8.821   1.562
95236SOL     OW87604   9.729  10.171   2.592
95236SOL    HW187605   9.821  10.145   2.586
95236SOL    HW287606   9.715  10.228   2.517
95237SOL     OW87607   1.274   3.949   3.367
95237SOL    HW187608   1.361   3.972   3.335
95237SOL    HW287609   1.224   3.929   3.288
95238SOL     OW87610   9.647   1.677   0.387
95238SOL    HW187611   9.654   1.629   0.470
95238SOL    HW287612   9.681   1.764   0.406
95239SOL     OW87613   4.733  12.595   0.378
95239SOL    HW187614   4.738  12.688   0.399
95239SOL    HW287615   4.755  12.551   0.460
95240SOL     OW87616  14.087  11.349  12.293
95240SOL    HW187617  14.031  11.396  12.231
95240SOL    HW287618  14.041  11.267  12.308
95241SOL     OW87619   0.481   9.216   7.561
95241SOL    HW187620   0.563   9.173   7.536
95241SOL    HW287621   0.419   9.190   7.493
95242SOL     OW87622  11.410   8.575   3.839
95242SOL    HW187623  11.381   8.666   3.845
95242SOL    HW287624  11.427   8.562   3.746
95243SOL     OW87625   7.384  14.442   6.356
95243SOL    HW187626   7.368  14.528   6.395
95243SOL    HW287627   7.382  14.457   6.262
95244SOL     OW87628   3.061   8.704   0.925
95244SOL    HW187629   3.091   8.762   0.855
95244SOL    HW287630   3.124   8.716   0.995
95245SOL     OW87631   4.138   2.354   6.976
95245SOL    HW187632   4.228   2.322   6.972
95245SOL    HW287633   4.134   2.404   7.058
95246SOL     OW87634   2.705   7.679   6.156
95246SOL    HW187635   2.798   7.700   6.146
95246SOL    HW287636   2.662   7.763   6.166
95247SOL     OW87637   4.007  11.273   8.345
95247SOL    HW187638   4.019  11.350   8.402
95247SOL    HW287639   4.006  11.199   8.406
95248SOL     OW87640  11.077   9.957  10.008
95248SOL    HW187641  11.052  10.049  10.001
95248SOL    HW287642  11.167   9.958  10.041
95249SOL     OW87643  11.624   9.900   0.211
95249SOL    HW187644  11.626   9.810   0.243
95249SOL    HW287645  11.715   9.930   0.215
95250SOL     OW87646   1.532   0.175   5.309
95250SOL    HW187647   1.551   0.082   5.309
95250SOL    HW287648   1.615   0.216   5.335
95251SOL     OW87649   8.136   6.932   6.081
95251SOL    HW187650   8.056   6.882   6.065
95251SOL    HW287651   8.148   6.983   6.001
95252SOL     OW87652   8.866   3.303   8.487
95252SOL    HW187653   8.875   3.393   8.453
95252SOL    HW287654   8.953   3.264   8.473
95253SOL     OW87655  11.600  14.035   9.315
95253SOL    HW187656  11.599  14.104   9.383
95253SOL    HW287657  11.570  13.957   9.361
95254SOL     OW87658   6.808   0.487  13.130
95254SOL    HW187659   6.746   0.559  13.140
95254SOL    HW287660   6.791   0.431  13.206
95255SOL     OW87661  10.446   3.971  12.500
95255SOL    HW187662  10.461   3.957  12.593
95255SOL    HW287663  10.361   4.014  12.495
95256SOL     OW87664   0.796   3.496   5.457
95256SOL    HW187665   0.748   3.554   5.399
95256SOL    HW287666   0.817   3.420   5.403
95257SOL     OW87667   7.195  11.402  10.346
95257SOL    HW187668   7.169  11.426  10.435
95257SOL    HW287669   7.125  11.437  10.291
95258SOL     OW87670   5.019  11.483   0.110
95258SOL    HW187671   4.991  11.451   0.195
95258SOL    HW287672   5.008  11.408   0.051
95259SOL     OW87673   2.525   5.545   7.416
95259SOL    HW187674   2.603   5.566   7.365
95259SOL    HW287675   2.455   5.538   7.351
95260SOL     OW87676  14.759   4.427   2.476
95260SOL    HW187677  14.671   4.402   2.503
95260SOL    HW287678  14.747   4.474   2.393
95261SOL     OW87679  10.644   0.220   2.406
95261SOL    HW187680  10.703   0.264   2.468
95261SOL    HW287681  10.581   0.287   2.381
95262SOL     OW87682   5.775   3.413   6.671
95262SOL    HW187683   5.679   3.417   6.671
95262SOL    HW287684   5.795   3.320   6.682
95263SOL     OW87685  13.369   4.728   2.352
95263SOL    HW187686  13.289   4.745   2.302
95263SOL    HW287687  13.374   4.800   2.414
95264SOL     OW87688  11.129   8.385   7.920
95264SOL    HW187689  11.205   8.395   7.862
95264SOL    HW287690  11.134   8.459   7.980
95265SOL     OW87691   0.220  13.258  13.626
95265SOL    HW187692   0.186  13.229  13.541
95265SOL    HW287693   0.142  13.283  13.676
95266SOL     OW87694   6.666   7.943   5.294
95266SOL    HW187695   6.709   7.867   5.333
95266SOL    HW287696   6.735   8.010   5.291
95267SOL     OW87697  10.575  13.000   9.667
95267SOL    HW187698  10.652  12.946   9.684
95267SOL    HW287699  10.509  12.939   9.635
95268SOL     OW87700   9.978   9.242   0.156
95268SOL    HW187701  10.022   9.170   0.201
95268SOL    HW287702   9.885   9.229   0.177
95269SOL     OW87703  14.128   1.750   4.982
95269SOL    HW187704  14.215   1.755   5.022
95269SOL    HW287705  14.126   1.823   4.920
95270SOL     OW87706   2.175  14.510   8.210
95270SOL    HW187707   2.152  14.584   8.154
95270SOL    HW287708   2.164  14.433   8.155
95271SOL     OW87709   1.619   2.146   8.687
95271SOL    HW187710   1.577   2.125   8.604
95271SOL    HW287711   1.710   2.166   8.664
95272SOL     OW87712  10.306   6.799  14.533
95272SOL    HW187713  10.336   6.804  14.623
95272SOL    HW287714  10.238   6.732  14.534
95273SOL     OW87715   5.662   4.564  11.373
95273SOL    HW187716   5.681   4.503  11.444
95273SOL    HW287717   5.654   4.508  11.296
95274SOL     OW87718   2.756   5.896  13.639
95274SOL    HW187719   2.773   5.970  13.580
95274SOL    HW287720   2.779   5.929  13.726
95275SOL     OW87721   7.263   8.901  13.001
95275SOL    HW187722   7.289   8.970  12.939
95275SOL    HW287723   7.304   8.822  12.967
95276SOL     OW87724   0.347  10.708   7.062
95276SOL    HW187725   0.365  10.690   7.154
95276SOL    HW287726   0.290  10.637   7.034
95277SOL     OW87727  13.719  12.911   8.518
95277SOL    HW187728  13.750  12.821   8.527
95277SOL    HW287729  13.624  12.905   8.524
95278SOL     OW87730   4.793  12.934  13.336
95278SOL    HW187731   4.736  12.945  13.260
95278SOL    HW287732   4.853  12.865  13.311
95279SOL     OW87733   9.831   1.781   3.374
95279SOL    HW187734   9.848   1.688   3.358
95279SOL    HW287735   9.897   1.807   3.438
95280SOL     OW87736   6.873  12.530   6.175
95280SOL    HW187737   6.781  12.554   6.162
95280SOL    HW287738   6.887  12.458   6.113
95281SOL     OW87739  12.753  10.137   2.918
95281SOL    HW187740  12.829  10.189   2.889
95281SOL    HW287741  12.784  10.092   2.996
95282SOL     OW87742   1.119   9.522   3.247
95282SOL    HW187743   1.085   9.601   3.289
95282SOL    HW287744   1.042   9.483   3.205
95283SOL     OW87745   9.091  14.561  12.126
95283SOL    HW187746   9.163  14.615  12.093
95283SOL    HW287747   9.116  14.471  12.105
95284SOL     OW87748  10.665  13.255   7.088
95284SOL    HW187749  10.654  13.208   7.170
95284SOL    HW287750  10.738  13.210   7.045
95285SOL     OW87751   7.002   0.543  12.962
95285SOL    HW187752   7.007   0.637  12.975
95285SOL    HW287753   6.934   0.514  13.023
95286SOL     OW87754   9.971   4.624   9.285
95286SOL    HW187755   9.946   4.534   9.304
95286SOL    HW287756  10.053   4.617   9.235
95287SOL     OW87757   7.744  14.306   7.734
95287SOL    HW187758   7.747  14.398   7.759
95287SOL    HW287759   7.810  14.297   7.665
95288SOL     OW87760  12.399   9.834   8.117
95288SOL    HW187761  12.412   9.826   8.023
95288SOL    HW287762  12.384   9.744   8.147
95289SOL     OW87763  10.056   3.185   5.395
95289SOL    HW187764  10.090   3.147   5.314
95289SOL    HW287765  10.129   3.179   5.457
95290SOL     OW87766   4.696   3.830   8.056
95290SOL    HW187767   4.736   3.890   8.119
95290SOL    HW287768   4.732   3.857   7.972
95291SOL     OW87769   3.586  11.948  14.658
95291SOL    HW187770   3.673  11.910  14.673
95291SOL    HW287771   3.525  11.882  14.692
95292SOL     OW87772   7.771   5.592   9.023
95292SOL    HW187773   7.759   5.538   8.945
95292SOL    HW287774   7.734   5.678   9.000
95293SOL     OW87775   0.678  12.455   0.420
95293SOL    HW187776   0.605  12.444   0.360
95293SOL    HW287777   0.663  12.389   0.488
95294SOL     OW87778  14.596   5.424   5.892
95294SOL    HW187779  14.628   5.506   5.855
95294SOL    HW287780  14.501   5.430   5.885
95295SOL     OW87781  14.322  14.118   1.656
95295SOL    HW187782  14.383  14.159   1.594
95295SOL    HW287783  14.311  14.183   1.726
95296SOL     OW87784   4.814  12.852   9.342
95296SOL    HW187785   4.735  12.810   9.375
95296SOL    HW287786   4.806  12.846   9.247
95297SOL     OW87787  13.845  12.021   4.690
95297SOL    HW187788  13.827  12.059   4.776
95297SOL    HW287789  13.905  12.083   4.649
95298SOL     OW87790  14.201  11.427   7.871
95298SOL    HW187791  14.275  11.457   7.924
95298SOL    HW287792  14.236  11.354   7.820
95299SOL     OW87793  11.210  10.616  10.624
95299SOL    HW187794  11.291  10.666  10.628
95299SOL    HW287795  11.237  10.526  10.611
95300SOL     OW87796   1.016   2.719  10.426
95300SOL    HW187797   1.061   2.799  10.397
95300SOL    HW287798   0.959   2.697  10.352
95301SOL     OW87799  13.619   4.325   5.754
95301SOL    HW187800  13.658   4.287   5.833
95301SOL    HW287801  13.665   4.408   5.743
95302SOL     OW87802  10.995  10.720   1.656
95302SOL    HW187803  11.048  10.793   1.688
95302SOL    HW287804  10.918  10.761   1.618
95303SOL     OW87805   9.742   4.523   6.236
95303SOL    HW187806   9.760   4.433   6.264
95303SOL    HW287807   9.827   4.567   6.241
95304SOL     OW87808  13.332   0.059   1.551
95304SOL    HW187809  13.244   0.042   1.516
95304SOL    HW287810  13.389   0.057   1.475
95305SOL     OW87811  14.301   2.652   3.527
95305SOL    HW187812  14.255   2.732   3.500
95305SOL    HW287813  14.321   2.607   3.445
95306SOL     OW87814   2.059   1.108   4.863
95306SOL    HW187815   2.149   1.090   4.892
95306SOL    HW287816   2.049   1.058   4.782
95307SOL     OW87817   4.764   9.245   8.530
95307SOL    HW187818   4.801   9.333   8.521
95307SOL    HW287819   4.835   9.187   8.501
95308SOL     OW87820   9.248   0.191   2.253
95308SOL    HW187821   9.322   0.178   2.313
95308SOL    HW287822   9.259   0.125   2.185
95309SOL     OW87823   1.262   2.973   9.678
95309SOL    HW187824   1.317   3.004   9.605
95309SOL    HW287825   1.252   3.050   9.734
95310SOL     OW87826   4.921   0.566  13.746
95310SOL    HW187827   4.884   0.584  13.832
95310SOL    HW287828   4.855   0.513  13.702
95311SOL     OW87829   6.978   7.063   1.010
95311SOL    HW187830   6.889   7.085   0.985
95311SOL    HW287831   7.010   7.009   0.938
95312SOL     OW87832   5.693   4.177   4.353
95312SOL    HW187833   5.769   4.135   4.394
95312SOL    HW287834   5.661   4.112   4.290
95313SOL     OW87835   0.380   6.231  12.520
95313SOL    HW187836   0.322   6.218  12.594
95313SOL    HW287837   0.395   6.143  12.485
95314SOL     OW87838   9.728  10.015  10.239
95314SOL    HW187839   9.764  10.104  10.240
95314SOL    HW287840   9.753   9.978  10.324
95315SOL     OW87841   9.951   6.145  13.564
95315SOL    HW187842   9.877   6.180  13.513
95315SOL    HW287843   9.912   6.080  13.622
95316SOL     OW87844   5.959   4.744  14.777
95316SOL    HW187845   5.941   4.680  14.845
95316SOL    HW287846   5.914   4.711  14.700
95317SOL     OW87847   2.525  14.632   8.983
95317SOL    HW187848   2.612  14.667   8.965
95317SOL    HW287849   2.536  14.537   8.979
95318SOL     OW87850   3.200   1.806   1.365
95318SOL    HW187851   3.122   1.751   1.377
95318SOL    HW287852   3.261   1.752   1.316
95319SOL     OW87853   7.440   5.535  11.529
95319SOL    HW187854   7.415   5.457  11.480
95319SOL    HW287855   7.398   5.525  11.614
95320SOL     OW87856   6.121   7.225  12.567
95320SOL    HW187857   6.198   7.188  12.611
95320SOL    HW287858   6.154   7.303  12.522
95321SOL     OW87859  14.487  12.561  10.648
95321SOL    HW187860  14.479  12.595  10.737
95321SOL    HW287861  14.501  12.639  10.594
95322SOL     OW87862  12.940   1.974   0.275
95322SOL    HW187863  12.928   1.880   0.262
95322SOL    HW287864  12.954   1.983   0.370
95323SOL     OW87865   4.800   7.933   4.900
95323SOL    HW187866   4.770   7.881   4.825
95323SOL    HW287867   4.734   7.917   4.967
95324SOL     OW87868   6.391   0.724   1.593
95324SOL    HW187869   6.468   0.764   1.555
95324SOL    HW287870   6.426   0.664   1.659
95325SOL     OW87871  14.408   2.747  10.014
95325SOL    HW187872  14.410   2.809  10.087
95325SOL    HW287873  14.487   2.766   9.964
95326SOL     OW87874   9.795  12.202  13.502
95326SOL    HW187875   9.721  12.185  13.444
95326SOL    HW287876   9.796  12.127  13.562
95327SOL     OW87877   2.963   6.134  13.197
95327SOL    HW187878   3.026   6.203  13.218
95327SOL    HW287879   2.927   6.159  13.112
95328SOL     OW87880   5.609  10.637  10.104
95328SOL    HW187881   5.630  10.712  10.048
95328SOL    HW287882   5.514  10.637  10.109
95329SOL     OW87883   6.452   2.260   1.107
95329SOL    HW187884   6.397   2.335   1.081
95329SOL    HW287885   6.466   2.273   1.200
95330SOL     OW87886  14.710   5.914   1.735
95330SOL    HW187887  14.788   5.908   1.681
95330SOL    HW287888  14.638   5.887   1.677
95331SOL     OW87889   3.195   8.885   3.890
95331SOL    HW187890   3.188   8.962   3.947
95331SOL    HW287891   3.253   8.826   3.937
95332SOL     OW87892   7.187   9.143   1.533
95332SOL    HW187893   7.194   9.216   1.594
95332SOL    HW287894   7.095   9.141   1.508
95333SOL     OW87895  12.350   7.650   8.304
95333SOL    HW187896  12.386   7.736   8.280
95333SOL    HW287897  12.396   7.588   8.247
95334SOL     OW87898   3.840   6.919   6.217
95334SOL    HW187899   3.864   6.932   6.125
95334SOL    HW287900   3.923   6.900   6.261
95335SOL     OW87901  14.519   3.897  14.836
95335SOL    HW187902  14.560   3.957   0.027
95335SOL    HW287903  14.589   3.838  14.810
95336SOL     OW87904  10.180   4.065   3.163
95336SOL    HW187905  10.180   4.049   3.068
95336SOL    HW287906  10.151   3.982   3.201
95337SOL     OW87907  12.912   0.259   1.353
95337SOL    HW187908  12.861   0.271   1.274
95337SOL    HW287909  12.907   0.343   1.398
95338SOL     OW87910   6.480   0.329  12.602
95338SOL    HW187911   6.434   0.285  12.530
95338SOL    HW287912   6.414   0.337  12.671
95339SOL     OW87913   6.925   5.735   4.392
95339SOL    HW187914   7.000   5.706   4.445
95339SOL    HW287915   6.903   5.659   4.338
95340SOL     OW87916   9.832   9.420   7.345
95340SOL    HW187917   9.744   9.423   7.382
95340SOL    HW287918   9.821   9.372   7.262
95341SOL     OW87919   3.667  13.857   0.063
95341SOL    HW187920   3.716  13.779   0.038
95341SOL    HW287921   3.576  13.830   0.063
95342SOL     OW87922   8.757   5.115   7.020
95342SOL    HW187923   8.756   5.023   7.048
95342SOL    HW287924   8.781   5.112   6.928
95343SOL     OW87925   0.441   6.882  11.621
95343SOL    HW187926   0.346   6.893  11.621
95343SOL    HW287927   0.471   6.933  11.546
95344SOL     OW87928   6.949  12.800  10.937
95344SOL    HW187929   6.922  12.851  11.013
95344SOL    HW287930   6.868  12.777  10.892
95345SOL     OW87931   3.827   7.543   6.612
95345SOL    HW187932   3.828   7.635   6.585
95345SOL    HW287933   3.762   7.502   6.556
95346SOL     OW87934   2.500   8.645   2.133
95346SOL    HW187935   2.532   8.646   2.043
95346SOL    HW287936   2.429   8.581   2.132
95347SOL     OW87937   7.057   8.031   1.983
95347SOL    HW187938   6.975   8.036   1.934
95347SOL    HW287939   7.065   7.938   2.006
95348SOL     OW87940   4.229   9.875   6.721
95348SOL    HW187941   4.323   9.860   6.726
95348SOL    HW287942   4.193   9.823   6.793
95349SOL     OW87943  12.160   4.894   6.271
95349SOL    HW187944  12.121   4.886   6.358
95349SOL    HW287945  12.220   4.969   6.278
95350SOL     OW87946   1.207   7.924   8.562
95350SOL    HW187947   1.122   7.960   8.584
95350SOL    HW287948   1.212   7.928   8.466
95351SOL     OW87949   9.969  12.483   3.486
95351SOL    HW187950  10.020  12.531   3.552
95351SOL    HW287951   9.919  12.551   3.441
95352SOL     OW87952   8.433   9.082  12.438
95352SOL    HW187953   8.493   9.082  12.363
95352SOL    HW287954   8.472   9.144  12.500
95353SOL     OW87955   5.127  12.756   9.071
95353SOL    HW187956   5.170  12.785   9.151
95353SOL    HW287957   5.085  12.673   9.095
95354SOL     OW87958  12.771  14.060  10.919
95354SOL    HW187959  12.807  14.062  11.007
95354SOL    HW287960  12.697  13.999  10.925
95355SOL     OW87961   0.933  14.350   2.133
95355SOL    HW187962   0.931  14.274   2.076
95355SOL    HW287963   1.027  14.365   2.149
95356SOL     OW87964  14.492   0.122   4.403
95356SOL    HW187965  14.560   0.185   4.381
95356SOL    HW287966  14.411   0.163   4.373
95357SOL     OW87967  14.752   4.351  14.766
95357SOL    HW187968  14.661   4.375  14.781
95357SOL    HW287969  14.801   4.398  14.833
95358SOL     OW87970   1.781   0.729   1.528
95358SOL    HW187971   1.747   0.793   1.466
95358SOL    HW287972   1.704   0.700   1.577
95359SOL     OW87973   2.505  12.579  12.761
95359SOL    HW187974   2.450  12.593  12.838
95359SOL    HW287975   2.563  12.507  12.785
95360SOL     OW87976   9.384   5.121   4.144
95360SOL    HW187977   9.354   5.054   4.205
95360SOL    HW287978   9.465   5.085   4.106
95361SOL     OW87979   6.669   5.198   0.045
95361SOL    HW187980   6.710   5.112   0.059
95361SOL    HW287981   6.578   5.178   0.023
95362SOL     OW87982   7.134   6.341   7.823
95362SOL    HW187983   7.042   6.318   7.835
95362SOL    HW287984   7.148   6.416   7.881
95363SOL     OW87985  11.675  12.268  11.365
95363SOL    HW187986  11.602  12.290  11.422
95363SOL    HW287987  11.692  12.347  11.314
95364SOL     OW87988  12.540   9.093   0.051
95364SOL    HW187989  12.507   9.003   0.044
95364SOL    HW287990  12.509   9.123   0.137
95365SOL     OW87991   7.923   6.489   8.008
95365SOL    HW187992   7.918   6.523   7.919
95365SOL    HW287993   7.931   6.394   7.997
95366SOL     OW87994   0.345   6.557  11.157
95366SOL    HW187995   0.348   6.651  11.139
95366SOL    HW287996   0.422   6.521  11.114
95367SOL     OW87997   3.376   2.525   3.475
95367SOL    HW187998   3.404   2.616   3.464
95367SOL    HW287999   3.458   2.476   3.484
95368SOL     OW88000  13.460  11.458   4.773
95368SOL    HW188001  13.552  11.483   4.777
95368SOL    HW288002  13.416  11.534   4.735
95369SOL     OW88003   7.930   8.082  13.951
95369SOL    HW188004   7.913   7.994  13.918
95369SOL    HW288005   8.010   8.110  13.905
95370SOL     OW88006  12.609   8.218   9.351
95370SOL    HW188007  12.684   8.188   9.299
95370SOL    HW288008  12.569   8.138   9.384
95371SOL     OW88009   5.231   8.469   2.635
95371SOL    HW188010   5.272   8.496   2.553
95371SOL    HW288011   5.260   8.379   2.647
95372SOL     OW88012  13.864   6.927   7.516
95372SOL    HW188013  13.928   6.987   7.477
95372SOL    HW288014  13.876   6.938   7.610
95373SOL     OW88015   8.993   0.655  11.930
95373SOL    HW188016   8.914   0.709  11.930
95373SOL    HW288017   9.016   0.645  11.838
95374SOL     OW88018   7.669   9.482  10.653
95374SOL    HW188019   7.634   9.475  10.742
95374SOL    HW288020   7.641   9.401  10.610
95375SOL     OW88021   3.708   8.208   0.681
95375SOL    HW188022   3.659   8.134   0.717
95375SOL    HW288023   3.794   8.172   0.659
95376SOL     OW88024   4.377  12.650   5.410
95376SOL    HW188025   4.310  12.661   5.342
95376SOL    HW288026   4.338  12.590   5.473
95377SOL     OW88027  14.822   5.666  13.106
95377SOL    HW188028  14.840   5.572  13.111
95377SOL    HW288029   0.036   5.706  13.090
95378SOL     OW88030   1.723  14.664   4.080
95378SOL    HW188031   1.690  14.671   4.170
95378SOL    HW288032   1.760  14.750   4.061
95379SOL     OW88033   9.268   1.383   1.537
95379SOL    HW188034   9.185   1.367   1.582
95379SOL    HW288035   9.258   1.341   1.452
95380SOL     OW88036  13.767   1.584   4.556
95380SOL    HW188037  13.804   1.629   4.631
95380SOL    HW288038  13.688   1.542   4.590
95381SOL     OW88039  11.886  12.774   9.434
95381SOL    HW188040  11.884  12.826   9.515
95381SOL    HW288041  11.919  12.833   9.368
95382SOL     OW88042   5.086   5.114   3.584
95382SOL    HW188043   4.993   5.102   3.566
95382SOL    HW288044   5.108   5.199   3.546
95383SOL     OW88045  12.755   6.342   8.644
95383SOL    HW188046  12.719   6.306   8.563
95383SOL    HW288047  12.715   6.429   8.652
95384SOL     OW88048   7.034   9.758   2.097
95384SOL    HW188049   6.996   9.703   2.165
95384SOL    HW288050   7.099   9.812   2.143
95385SOL     OW88051  10.895   7.960   6.706
95385SOL    HW188052  10.815   7.961   6.652
95385SOL    HW288053  10.922   8.052   6.709
95386SOL     OW88054   9.711   0.747  13.611
95386SOL    HW188055   9.632   0.709  13.649
95386SOL    HW288056   9.704   0.841  13.631
95387SOL     OW88057   7.345   9.416  13.736
95387SOL    HW188058   7.341   9.459  13.822
95387SOL    HW288059   7.419   9.459  13.692
95388SOL     OW88060  13.763   2.866   8.398
95388SOL    HW188061  13.828   2.807   8.359
95388SOL    HW288062  13.703   2.887   8.326
95389SOL     OW88063   7.724  10.316   6.573
95389SOL    HW188064   7.651  10.258   6.596
95389SOL    HW288065   7.746  10.291   6.483
95390SOL     OW88066  14.303   1.408   0.575
95390SOL    HW188067  14.310   1.499   0.603
95390SOL    HW288068  14.352   1.404   0.493
95391SOL     OW88069  10.476   0.401   7.672
95391SOL    HW188070  10.550   0.449   7.709
95391SOL    HW288071  10.413   0.469   7.647
95392SOL     OW88072  11.875   3.666   1.498
95392SOL    HW188073  11.781   3.667   1.486
95392SOL    HW288074  11.893   3.739   1.557
95393SOL     OW88075   8.567   8.277  14.761
95393SOL    HW188076   8.493   8.330  14.729
95393SOL    HW288077   8.603   8.236  14.682
95394SOL     OW88078  12.062   5.257  11.513
95394SOL    HW188079  12.046   5.319  11.442
95394SOL    HW288080  12.087   5.312  11.587
95395SOL     OW88081   1.907   8.625   9.148
95395SOL    HW188082   1.858   8.663   9.075
95395SOL    HW288083   1.909   8.694   9.214
95396SOL     OW88084   3.333   1.786   8.723
95396SOL    HW188085   3.325   1.738   8.805
95396SOL    HW288086   3.368   1.722   8.661
95397SOL     OW88087  12.851   5.677  13.443
95397SOL    HW188088  12.876   5.769  13.432
95397SOL    HW288089  12.757   5.676  13.427
95398SOL     OW88090   1.849   2.273   7.362
95398SOL    HW188091   1.794   2.261   7.439
95398SOL    HW288092   1.864   2.367   7.357
95399SOL     OW88093   1.056  11.077   4.045
95399SOL    HW188094   1.079  11.157   4.093
95399SOL    HW288095   1.140  11.045   4.012
95400SOL     OW88096   0.696  14.725   6.923
95400SOL    HW188097   0.730  14.814   6.935
95400SOL    HW288098   0.613  14.725   6.971
95401SOL     OW88099   4.836  10.924   8.452
95401SOL    HW188100   4.803  10.930   8.363
95401SOL    HW288101   4.819  10.834   8.479
95402SOL     OW88102   7.569  14.102  10.253
95402SOL    HW188103   7.490  14.066  10.211
95402SOL    HW288104   7.641  14.070  10.198
95403SOL     OW88105   5.562  13.207   3.064
95403SOL    HW188106   5.615  13.258   3.003
95403SOL    HW288107   5.507  13.152   3.007
95404SOL     OW88108   6.008   8.139   2.701
95404SOL    HW188109   6.043   8.124   2.788
95404SOL    HW288110   5.974   8.229   2.704
95405SOL     OW88111  13.760   4.488  13.305
95405SOL    HW188112  13.793   4.437  13.230
95405SOL    HW288113  13.797   4.575  13.291
95406SOL     OW88114  11.696   1.280   4.025
95406SOL    HW188115  11.639   1.307   4.097
95406SOL    HW288116  11.648   1.209   3.982
95407SOL     OW88117   5.575   6.078  11.045
95407SOL    HW188118   5.572   5.985  11.065
95407SOL    HW288119   5.557   6.121  11.128
95408SOL     OW88120  11.057   8.547   1.991
95408SOL    HW188121  10.987   8.559   2.055
95408SOL    HW288122  11.025   8.476   1.934
95409SOL     OW88123   8.602  10.843   7.713
95409SOL    HW188124   8.680  10.788   7.715
95409SOL    HW288125   8.557  10.824   7.795
95410SOL     OW88126  10.905   3.781  12.562
95410SOL    HW188127  10.844   3.822  12.623
95410SOL    HW288128  10.970   3.738  12.619
95411SOL     OW88129  12.938  12.396   8.921
95411SOL    HW188130  13.022  12.368   8.883
95411SOL    HW288131  12.962  12.462   8.985
95412SOL     OW88132   5.000  14.487  12.270
95412SOL    HW188133   5.036  14.535  12.196
95412SOL    HW288134   4.958  14.553  12.324
95413SOL     OW88135   7.652   0.856  13.709
95413SOL    HW188136   7.692   0.769  13.698
95413SOL    HW288137   7.621   0.878  13.621
95414SOL     OW88138   4.106   4.991   2.854
95414SOL    HW188139   4.120   5.047   2.777
95414SOL    HW288140   4.058   5.047   2.915
95415SOL     OW88141   5.973   0.274   8.889
95415SOL    HW188142   5.987   0.184   8.858
95415SOL    HW288143   6.052   0.321   8.861
95416SOL     OW88144   0.814  14.850   8.285
95416SOL    HW188145   0.818  14.759   8.256
95416SOL    HW288146   0.746   0.018   8.230
95417SOL     OW88147   7.477   6.984  13.647
95417SOL    HW188148   7.494   7.078  13.646
95417SOL    HW288149   7.553   6.945  13.603
95418SOL     OW88150   5.813   5.963  14.654
95418SOL    HW188151   5.856   5.920  14.579
95418SOL    HW288152   5.817   6.056  14.633
95419SOL     OW88153   0.094  13.854   8.630
95419SOL    HW188154   0.095  13.908   8.709
95419SOL    HW288155   0.095  13.916   8.558
95420SOL     OW88156  11.571   5.534   4.417
95420SOL    HW188157  11.529   5.517   4.501
95420SOL    HW288158  11.542   5.463   4.360
95421SOL     OW88159  14.258  11.229  14.383
95421SOL    HW188160  14.305  11.313  14.388
95421SOL    HW288161  14.255  11.210  14.289
95422SOL     OW88162  14.710   8.819   8.022
95422SOL    HW188163  14.627   8.794   7.980
95422SOL    HW288164  14.757   8.736   8.033
95423SOL     OW88165   0.324   5.025   7.361
95423SOL    HW188166   0.253   5.087   7.344
95423SOL    HW288167   0.400   5.081   7.380
95424SOL     OW88168  13.603   9.191   1.396
95424SOL    HW188169  13.603   9.200   1.491
95424SOL    HW288170  13.528   9.242   1.367
95425SOL     OW88171   8.997   4.782   5.331
95425SOL    HW188172   8.928   4.831   5.286
95425SOL    HW288173   8.954   4.741   5.405
95426SOL     OW88174   1.700   2.893   4.308
95426SOL    HW188175   1.668   2.881   4.219
95426SOL    HW288176   1.720   2.804   4.338
95427SOL     OW88177   0.244   8.560  12.463
95427SOL    HW188178   0.205   8.621  12.400
95427SOL    HW288179   0.264   8.482  12.411
95428SOL     OW88180  13.422  13.492  11.807
95428SOL    HW188181  13.418  13.405  11.767
95428SOL    HW288182  13.511  13.497  11.843
95429SOL     OW88183  14.823   2.616   3.810
95429SOL    HW188184  14.790   2.615   3.899
95429SOL    HW288185   0.037   2.574   3.815
95430SOL     OW88186   2.651   4.074   2.266
95430SOL    HW188187   2.593   4.067   2.191
95430SOL    HW288188   2.627   4.001   2.322
95431SOL     OW88189  14.343  14.570   4.527
95431SOL    HW188190  14.325  14.593   4.436
95431SOL    HW288191  14.259  14.538   4.561
95432SOL     OW88192  14.803   2.542   4.748
95432SOL    HW188193  14.716   2.532   4.787
95432SOL    HW288194  14.838   2.453   4.745
95433SOL     OW88195  10.009   8.740   5.882
95433SOL    HW188196   9.978   8.671   5.823
95433SOL    HW288197  10.057   8.800   5.825
95434SOL     OW88198   0.984  13.318  13.976
95434SOL    HW188199   1.020  13.248  14.030
95434SOL    HW288200   1.015  13.299  13.888
95435SOL     OW88201   3.286   0.718   0.642
95435SOL    HW188202   3.345   0.661   0.692
95435SOL    HW288203   3.200   0.702   0.680
95436SOL     OW88204   7.581   4.654  12.664
95436SOL    HW188205   7.572   4.730  12.606
95436SOL    HW288206   7.516   4.591  12.630
95437SOL     OW88207  13.152  13.940   0.697
95437SOL    HW188208  13.060  13.915   0.709
95437SOL    HW288209  13.184  13.883   0.627
95438SOL     OW88210  11.535  14.459  13.869
95438SOL    HW188211  11.628  14.439  13.856
95438SOL    HW288212  11.489  14.381  13.839
95439SOL     OW88213   5.982   1.128   8.930
95439SOL    HW188214   5.922   1.112   9.003
95439SOL    HW288215   5.953   1.211   8.893
95440SOL     OW88216   2.904   9.993   1.144
95440SOL    HW188217   2.828   9.990   1.085
95440SOL    HW288218   2.887   9.924   1.208
95441SOL     OW88219   0.362  14.162  13.876
95441SOL    HW188220   0.393  14.071  13.865
95441SOL    HW288221   0.431  14.215  13.836
95442SOL     OW88222  10.069   7.377   7.869
95442SOL    HW188223  10.035   7.303   7.920
95442SOL    HW288224  10.128   7.422   7.929
95443SOL     OW88225  12.982   5.687   8.678
95443SOL    HW188226  13.007   5.725   8.763
95443SOL    HW288227  13.037   5.732   8.614
95444SOL     OW88228   8.744  12.855  13.781
95444SOL    HW188229   8.804  12.927  13.801
95444SOL    HW288230   8.774  12.822  13.697
95445SOL     OW88231   7.834   0.398  14.325
95445SOL    HW188232   7.780   0.432  14.253
95445SOL    HW288233   7.902   0.347  14.281
95446SOL     OW88234  10.810   7.794  10.354
95446SOL    HW188235  10.814   7.883  10.389
95446SOL    HW288236  10.800   7.738  10.431
95447SOL     OW88237  12.483   3.353   2.835
95447SOL    HW188238  12.443   3.429   2.877
95447SOL    HW288239  12.546   3.320   2.900
95448SOL     OW88240  11.851   0.049   1.273
95448SOL    HW188241  11.798  14.847   1.302
95448SOL    HW288242  11.900   0.016   1.198
95449SOL     OW88243  11.973   1.938  13.166
95449SOL    HW188244  11.955   2.025  13.200
95449SOL    HW288245  12.068   1.938  13.148
95450SOL     OW88246   9.701   9.251   0.180
95450SOL    HW188247   9.733   9.263   0.269
95450SOL    HW288248   9.648   9.171   0.184
95451SOL     OW88249  11.088   0.837   0.249
95451SOL    HW188250  11.154   0.904   0.269
95451SOL    HW288251  11.006   0.875   0.278
95452SOL     OW88252   3.294   8.014   6.098
95452SOL    HW188253   3.376   8.047   6.136
95452SOL    HW288254   3.322   7.958   6.026
95453SOL     OW88255   4.625   7.712   2.840
95453SOL    HW188256   4.594   7.717   2.931
95453SOL    HW288257   4.581   7.784   2.795
95454SOL     OW88258   6.046  11.928   4.059
95454SOL    HW188259   5.984  11.996   4.085
95454SOL    HW288260   6.014  11.848   4.102
95455SOL     OW88261   6.750  10.251  12.253
95455SOL    HW188262   6.708  10.188  12.195
95455SOL    HW288263   6.686  10.268  12.322
95456SOL     OW88264   4.503   2.958   0.070
95456SOL    HW188265   4.543   3.041   0.095
95456SOL    HW288266   4.444   2.980  14.870
95457SOL     OW88267   5.355   8.111  14.446
95457SOL    HW188268   5.333   8.157  14.527
95457SOL    HW288269   5.372   8.180  14.382
95458SOL     OW88270   1.688   8.978  11.324
95458SOL    HW188271   1.618   9.039  11.345
95458SOL    HW288272   1.763   9.033  11.303
95459SOL     OW88273   6.627   2.082   9.958
95459SOL    HW188274   6.681   2.012   9.921
95459SOL    HW288275   6.617   2.145   9.886
95460SOL     OW88276   1.716  11.949  13.991
95460SOL    HW188277   1.783  11.905  13.938
95460SOL    HW288278   1.634  11.927  13.948
95461SOL     OW88279  11.606   6.456   0.040
95461SOL    HW188280  11.545   6.383   0.036
95461SOL    HW288281  11.676   6.426   0.098
95462SOL     OW88282   9.914  11.001   2.939
95462SOL    HW188283  10.009  10.994   2.954
95462SOL    HW288284   9.897  11.095   2.937
95463SOL     OW88285   4.031   9.269  10.223
95463SOL    HW188286   4.054   9.179  10.246
95463SOL    HW288287   3.950   9.286  10.270
95464SOL     OW88288   8.426  11.751   2.851
95464SOL    HW188289   8.332  11.765   2.853
95464SOL    HW288290   8.463  11.836   2.827
95465SOL     OW88291   8.178   7.554   8.580
95465SOL    HW188292   8.162   7.566   8.674
95465SOL    HW288293   8.232   7.476   8.576
95466SOL     OW88294  10.647   5.275  12.990
95466SOL    HW188295  10.561   5.234  12.990
95466SOL    HW288296  10.694   5.235  13.063
95467SOL     OW88297   7.191   9.235  10.980
95467SOL    HW188298   7.111   9.212  10.933
95467SOL    HW288299   7.164   9.241  11.072
95468SOL     OW88300  12.704   8.529   0.693
95468SOL    HW188301  12.774   8.486   0.742
95468SOL    HW288302  12.626   8.516   0.747
95469SOL     OW88303   6.232   3.102  14.627
95469SOL    HW188304   6.168   3.164  14.661
95469SOL    HW288305   6.185   3.019  14.622
95470SOL     OW88306  12.668   1.574  12.209
95470SOL    HW188307  12.705   1.617  12.286
95470SOL    HW288308  12.581   1.613  12.199
95471SOL     OW88309   8.249   2.878   0.774
95471SOL    HW188310   8.210   2.890   0.687
95471SOL    HW288311   8.239   2.963   0.817
95472SOL     OW88312   7.248   7.358  14.526
95472SOL    HW188313   7.203   7.283  14.565
95472SOL    HW288314   7.185   7.395  14.465
95473SOL     OW88315   4.859   1.660   5.213
95473SOL    HW188316   4.868   1.579   5.263
95473SOL    HW288317   4.943   1.705   5.224
95474SOL     OW88318  12.073  11.252  11.582
95474SOL    HW188319  12.150  11.201  11.607
95474SOL    HW288320  12.025  11.264  11.664
95475SOL     OW88321   9.016   8.091   4.042
95475SOL    HW188322   9.095   8.052   4.005
95475SOL    HW288323   8.976   8.140   3.970
95476SOL     OW88324   5.547   6.865   3.906
95476SOL    HW188325   5.488   6.877   3.981
95476SOL    HW288326   5.600   6.945   3.906
95477SOL     OW88327  14.662   8.230   2.960
95477SOL    HW188328  14.744   8.248   3.006
95477SOL    HW288329  14.594   8.251   3.024
95478SOL     OW88330   6.577  12.306   1.193
95478SOL    HW188331   6.622  12.236   1.240
95478SOL    HW288332   6.647  12.366   1.167
95479SOL     OW88333   4.405   5.205   2.137
95479SOL    HW188334   4.374   5.282   2.185
95479SOL    HW288335   4.500   5.207   2.148
95480SOL     OW88336   4.532   2.616  11.635
95480SOL    HW188337   4.538   2.602  11.730
95480SOL    HW288338   4.541   2.711  11.624
95481SOL     OW88339  13.374   3.776   9.636
95481SOL    HW188340  13.385   3.865   9.670
95481SOL    HW288341  13.449   3.728   9.672
95482SOL     OW88342   5.578  13.873   6.112
95482SOL    HW188343   5.537  13.913   6.188
95482SOL    HW288344   5.554  13.780   6.118
95483SOL     OW88345   3.560  14.317   1.903
95483SOL    HW188346   3.466  14.307   1.916
95483SOL    HW288347   3.600  14.268   1.975
95484SOL     OW88348   7.482   3.527   1.978
95484SOL    HW188349   7.479   3.616   1.944
95484SOL    HW288350   7.481   3.471   1.901
95485SOL     OW88351   8.134  10.215  14.622
95485SOL    HW188352   8.050  10.212  14.576
95485SOL    HW288353   8.143  10.129  14.662
95486SOL     OW88354   0.204   0.675  13.006
95486SOL    HW188355   0.292   0.659  12.971
95486SOL    HW288356   0.151   0.699  12.930
95487SOL     OW88357   0.746   3.045  11.638
95487SOL    HW188358   0.682   2.973  11.633
95487SOL    HW288359   0.743   3.072  11.730
95488SOL     OW88360   4.397   1.276   6.832
95488SOL    HW188361   4.323   1.320   6.875
95488SOL    HW288362   4.415   1.200   6.886
95489SOL     OW88363   5.205   8.897  10.111
95489SOL    HW188364   5.271   8.899  10.042
95489SOL    HW288365   5.251   8.927  10.189
95490SOL     OW88366   4.254   2.805   5.827
95490SOL    HW188367   4.236   2.792   5.920
95490SOL    HW288368   4.337   2.759   5.812
95491SOL     OW88369   6.661   1.684  12.876
95491SOL    HW188370   6.611   1.695  12.956
95491SOL    HW288371   6.745   1.726  12.893
95492SOL     OW88372  12.432   3.606   1.833
95492SOL    HW188373  12.397   3.644   1.913
95492SOL    HW288374  12.487   3.675   1.795
95493SOL     OW88375  11.585   9.450   7.426
95493SOL    HW188376  11.569   9.379   7.489
95493SOL    HW288377  11.678   9.469   7.435
95494SOL     OW88378  11.203   9.203   3.028
95494SOL    HW188379  11.230   9.180   2.939
95494SOL    HW288380  11.114   9.171   3.036
95495SOL     OW88381   6.421   8.424   2.610
95495SOL    HW188382   6.514   8.430   2.632
95495SOL    HW288383   6.387   8.355   2.669
95496SOL     OW88384   2.871   0.821   5.951
95496SOL    HW188385   2.867   0.834   6.046
95496SOL    HW288386   2.840   0.903   5.914
95497SOL     OW88387   8.313   8.599   6.099
95497SOL    HW188388   8.260   8.533   6.054
95497SOL    HW288389   8.337   8.557   6.181
95498SOL     OW88390   8.470  12.558  14.306
95498SOL    HW188391   8.554  12.515  14.318
95498SOL    HW288392   8.484  12.648  14.338
95499SOL     OW88393  12.541   6.443   6.115
95499SOL    HW188394  12.559   6.474   6.026
95499SOL    HW288395  12.520   6.522   6.164
95500SOL     OW88396   4.047   7.384   6.667
95500SOL    HW188397   3.982   7.447   6.636
95500SOL    HW288398   3.995   7.309   6.696
95501SOL     OW88399  13.454   1.525  11.972
95501SOL    HW188400  13.444   1.520  12.067
95501SOL    HW288401  13.468   1.434  11.945
95502SOL     OW88402  11.910   9.192   2.673
95502SOL    HW188403  11.953   9.124   2.622
95502SOL    HW288404  11.934   9.274   2.629
95503SOL     OW88405  12.461   5.832   0.027
95503SOL    HW188406  12.365   5.838   0.031
95503SOL    HW288407  12.481   5.839  14.806
95504SOL     OW88408   2.618   9.414  12.582
95504SOL    HW188409   2.597   9.324  12.605
95504SOL    HW288410   2.567   9.432  12.503
95505SOL     OW88411  10.037  10.089  11.635
95505SOL    HW188412  10.012  10.031  11.707
95505SOL    HW288413  10.076  10.031  11.570
95506SOL     OW88414   5.395   5.098   4.145
95506SOL    HW188415   5.324   5.119   4.206
95506SOL    HW288416   5.474   5.097   4.199
95507SOL     OW88417  14.273   2.630   2.741
95507SOL    HW188418  14.310   2.556   2.693
95507SOL    HW288419  14.180   2.631   2.716
95508SOL     OW88420   2.826   2.511  13.514
95508SOL    HW188421   2.921   2.527  13.515
95508SOL    HW288422   2.787   2.598  13.515
95509SOL     OW88423  10.788  10.392   5.141
95509SOL    HW188424  10.807  10.482   5.168
95509SOL    HW288425  10.802  10.341   5.221
95510SOL     OW88426   9.329   1.916   6.056
95510SOL    HW188427   9.264   1.974   6.096
95510SOL    HW288428   9.318   1.930   5.962
95511SOL     OW88429   7.528  13.159   5.243
95511SOL    HW188430   7.496  13.249   5.236
95511SOL    HW288431   7.531  13.126   5.153
95512SOL     OW88432  14.663   9.018   7.683
95512SOL    HW188433  14.646   9.061   7.767
95512SOL    HW288434  14.576   8.999   7.648
95513SOL     OW88435  14.244   9.957   5.333
95513SOL    HW188436  14.181  10.027   5.313
95513SOL    HW288437  14.232   9.941   5.427
95514SOL     OW88438   9.623  12.235   3.546
95514SOL    HW188439   9.672  12.162   3.507
95514SOL    HW288440   9.576  12.195   3.619
95515SOL     OW88441   9.719  13.986   3.289
95515SOL    HW188442   9.683  13.913   3.339
95515SOL    HW288443   9.672  14.062   3.320
95516SOL     OW88444   9.187   4.445   3.814
95516SOL    HW188445   9.279   4.437   3.839
95516SOL    HW288446   9.177   4.537   3.789
95517SOL     OW88447  11.008   5.545   5.363
95517SOL    HW188448  10.990   5.606   5.435
95517SOL    HW288449  10.922   5.525   5.327
95518SOL     OW88450  10.820  13.979   1.210
95518SOL    HW188451  10.786  14.048   1.267
95518SOL    HW288452  10.742  13.939   1.171
95519SOL     OW88453  11.748   3.641  13.468
95519SOL    HW188454  11.681   3.709  13.465
95519SOL    HW288455  11.728   3.583  13.395
95520SOL     OW88456   9.422   6.043   8.393
95520SOL    HW188457   9.380   6.024   8.309
95520SOL    HW288458   9.471   5.963   8.414
95521SOL     OW88459  12.582   1.693   3.485
95521SOL    HW188460  12.644   1.659   3.549
95521SOL    HW288461  12.507   1.721   3.538
95522SOL     OW88462   3.051   7.416   8.723
95522SOL    HW188463   3.087   7.478   8.659
95522SOL    HW288464   2.965   7.450   8.745
95523SOL     OW88465   1.812  11.012  14.842
95523SOL    HW188466   1.728  11.013   0.016
95523SOL    HW288467   1.852  10.928  14.867
95524SOL     OW88468   4.158   5.019   3.180
95524SOL    HW188469   4.195   5.068   3.107
95524SOL    HW288470   4.098   5.081   3.222
95525SOL     OW88471  10.196   1.741   5.225
95525SOL    HW188472  10.163   1.831   5.228
95525SOL    HW288473  10.162   1.701   5.305
95526SOL     OW88474   6.351  11.667   1.942
95526SOL    HW188475   6.307  11.750   1.961
95526SOL    HW288476   6.295  11.601   1.982
95527SOL     OW88477   6.964  14.327   6.236
95527SOL    HW188478   6.987  14.331   6.329
95527SOL    HW288479   6.912  14.406   6.221
95528SOL     OW88480   6.426   1.653  14.687
95528SOL    HW188481   6.382   1.684  14.608
95528SOL    HW288482   6.468   1.572  14.659
95529SOL     OW88483   1.745  10.882   6.789
95529SOL    HW188484   1.839  10.894   6.775
95529SOL    HW288485   1.732  10.900   6.882
95530SOL     OW88486   1.939   7.263   6.903
95530SOL    HW188487   1.943   7.168   6.894
95530SOL    HW288488   2.030   7.292   6.899
95531SOL     OW88489  12.670   9.510   3.285
95531SOL    HW188490  12.682   9.542   3.374
95531SOL    HW288491  12.619   9.579   3.241
95532SOL     OW88492   3.237  12.151   1.863
95532SOL    HW188493   3.189  12.203   1.927
95532SOL    HW288494   3.310  12.114   1.913
95533SOL     OW88495  10.035   2.098  14.789
95533SOL    HW188496  10.009   2.042  14.716
95533SOL    HW288497   9.979   2.071  14.862
95534SOL     OW88498   8.993  11.051   1.777
95534SOL    HW188499   8.910  11.037   1.821
95534SOL    HW288500   8.999  11.146   1.767
95535SOL     OW88501  11.261   3.696   7.476
95535SOL    HW188502  11.193   3.703   7.543
95535SOL    HW288503  11.338   3.736   7.515
95536SOL     OW88504   3.727   5.584   5.232
95536SOL    HW188505   3.809   5.632   5.224
95536SOL    HW288506   3.694   5.579   5.142
95537SOL     OW88507   6.246   5.815   3.895
95537SOL    HW188508   6.332   5.810   3.854
95537SOL    HW288509   6.258   5.879   3.966
95538SOL     OW88510   7.749   9.090   8.195
95538SOL    HW188511   7.708   9.005   8.210
95538SOL    HW288512   7.839   9.080   8.225
95539SOL     OW88513   9.258  13.084   3.509
95539SOL    HW188514   9.179  13.135   3.493
95539SOL    HW288515   9.233  12.994   3.491
95540SOL     OW88516   7.410   2.659   9.457
95540SOL    HW188517   7.491   2.710   9.456
95540SOL    HW288518   7.350   2.709   9.402
95541SOL     OW88519  11.003   8.589   4.232
95541SOL    HW188520  11.071   8.548   4.179
95541SOL    HW288521  10.936   8.614   4.169
95542SOL     OW88522   8.743   7.196   7.725
95542SOL    HW188523   8.816   7.184   7.786
95542SOL    HW288524   8.732   7.110   7.683
95543SOL     OW88525  10.334   9.105   0.653
95543SOL    HW188526  10.374   9.065   0.730
95543SOL    HW288527  10.408   9.124   0.595
95544SOL     OW88528   3.549  12.928   9.210
95544SOL    HW188529   3.577  12.998   9.269
95544SOL    HW288530   3.629  12.894   9.171
95545SOL     OW88531  14.670   6.131  10.773
95545SOL    HW188532  14.585   6.112  10.812
95545SOL    HW288533  14.733   6.100  10.838
95546SOL     OW88534   6.376   5.595  10.697
95546SOL    HW188535   6.379   5.500  10.685
95546SOL    HW288536   6.460   5.626  10.663
95547SOL     OW88537   8.533   7.744   4.267
95547SOL    HW188538   8.587   7.670   4.240
95547SOL    HW288539   8.511   7.788   4.185
95548SOL     OW88540   7.495   5.407   5.546
95548SOL    HW188541   7.436   5.364   5.485
95548SOL    HW288542   7.538   5.475   5.495
95549SOL     OW88543   8.388   1.672  12.881
95549SOL    HW188544   8.335   1.667  12.960
95549SOL    HW288545   8.477   1.686  12.912
95550SOL     OW88546  10.833   9.995   2.380
95550SOL    HW188547  10.754  10.049   2.379
95550SOL    HW288548  10.844   9.971   2.472
95551SOL     OW88549   6.091  11.548   8.542
95551SOL    HW188550   6.106  11.637   8.574
95551SOL    HW288551   6.176  11.504   8.550
95552SOL     OW88552  13.582  11.061   0.424
95552SOL    HW188553  13.505  11.046   0.370
95552SOL    HW288554  13.656  11.059   0.363
95553SOL     OW88555  12.456   2.214   4.602
95553SOL    HW188556  12.518   2.141   4.602
95553SOL    HW288557  12.371   2.173   4.589
95554SOL     OW88558   8.792  10.682   1.419
95554SOL    HW188559   8.880  10.646   1.408
95554SOL    HW288560   8.804  10.756   1.479
95555SOL     OW88561   6.853   5.540  13.993
95555SOL    HW188562   6.823   5.517  13.906
95555SOL    HW288563   6.910   5.616  13.980
95556SOL     OW88564  13.490   6.613   5.047
95556SOL    HW188565  13.558   6.636   4.984
95556SOL    HW288566  13.494   6.518   5.053
95557SOL     OW88567   1.430   4.009  12.328
95557SOL    HW188568   1.452   3.925  12.367
95557SOL    HW288569   1.441   3.996  12.234
95558SOL     OW88570   2.984   3.847  10.701
95558SOL    HW188571   3.004   3.939  10.683
95558SOL    HW288572   3.058   3.799  10.665
95559SOL     OW88573  12.552   3.889   6.769
95559SOL    HW188574  12.627   3.838   6.736
95559SOL    HW288575  12.493   3.823   6.806
95560SOL     OW88576   6.692   4.376   3.990
95560SOL    HW188577   6.692   4.383   3.895
95560SOL    HW288578   6.629   4.442   4.019
95561SOL     OW88579  12.021   8.057   7.879
95561SOL    HW188580  12.030   7.999   7.955
95561SOL    HW288581  12.012   7.997   7.804
95562SOL     OW88582  14.457   4.268   3.550
95562SOL    HW188583  14.461   4.202   3.480
95562SOL    HW288584  14.536   4.252   3.603
95563SOL     OW88585  11.834   2.476   9.500
95563SOL    HW188586  11.885   2.557   9.508
95563SOL    HW288587  11.744   2.503   9.519
95564SOL     OW88588   3.946   2.047  10.802
95564SOL    HW188589   4.015   1.999  10.755
95564SOL    HW288590   3.865   2.022  10.757
95565SOL     OW88591   7.297   6.782  13.699
95565SOL    HW188592   7.224   6.843  13.686
95565SOL    HW288593   7.375   6.835  13.684
95566SOL     OW88594   0.160   6.937   0.319
95566SOL    HW188595   0.064   6.936   0.328
95566SOL    HW288596   0.179   7.021   0.278
95567SOL     OW88597   3.731  13.659   7.715
95567SOL    HW188598   3.807  13.674   7.659
95567SOL    HW288599   3.732  13.564   7.731
95568SOL     OW88600   2.316   3.507   2.337
95568SOL    HW188601   2.304   3.494   2.432
95568SOL    HW288602   2.242   3.562   2.312
95569SOL     OW88603  10.366   0.039   6.943
95569SOL    HW188604  10.383  14.853   6.868
95569SOL    HW288605  10.338  14.851   7.013
95570SOL     OW88606  13.331   4.404   0.599
95570SOL    HW188607  13.282   4.485   0.616
95570SOL    HW288608  13.322   4.354   0.680
95571SOL     OW88609   5.859   8.437  12.788
95571SOL    HW188610   5.794   8.403  12.726
95571SOL    HW288611   5.829   8.405  12.873
95572SOL     OW88612  13.154   0.008   5.293
95572SOL    HW188613  13.204  14.858   5.372
95572SOL    HW288614  13.063   0.003   5.319
95573SOL     OW88615   3.057   9.091   9.437
95573SOL    HW188616   3.065   9.165   9.376
95573SOL    HW288617   3.083   9.128   9.522
95574SOL     OW88618  10.761   1.434   0.763
95574SOL    HW188619  10.721   1.520   0.751
95574SOL    HW288620  10.759   1.420   0.858
95575SOL     OW88621   5.759   6.095   8.332
95575SOL    HW188622   5.816   6.091   8.254
95575SOL    HW288623   5.719   6.182   8.327
95576SOL     OW88624  12.265   9.338   1.656
95576SOL    HW188625  12.324   9.287   1.711
95576SOL    HW288626  12.252   9.420   1.704
95577SOL     OW88627   1.021   7.170   4.191
95577SOL    HW188628   0.980   7.193   4.275
95577SOL    HW288629   0.990   7.238   4.131
95578SOL     OW88630   2.556   3.863   4.422
95578SOL    HW188631   2.504   3.909   4.488
95578SOL    HW288632   2.601   3.932   4.373
95579SOL     OW88633  10.608   0.272  12.029
95579SOL    HW188634  10.565   0.316  11.956
95579SOL    HW288635  10.638   0.189  11.992
95580SOL     OW88636  13.390   8.024   1.032
95580SOL    HW188637  13.406   7.949   1.090
95580SOL    HW288638  13.363   7.985   0.949
95581SOL     OW88639   7.592  13.897  11.290
95581SOL    HW188640   7.588  13.863  11.201
95581SOL    HW288641   7.525  13.848  11.338
95582SOL     OW88642   0.030   9.642   9.827
95582SOL    HW188643  14.816   9.680   9.850
95582SOL    HW288644   0.009   9.569   9.769
95583SOL     OW88645   6.905   6.238   1.451
95583SOL    HW188646   6.830   6.178   1.449
95583SOL    HW288647   6.934   6.244   1.360
95584SOL     OW88648   8.679   1.296  13.567
95584SOL    HW188649   8.605   1.252  13.524
95584SOL    HW288650   8.756   1.249  13.534
95585SOL     OW88651  10.688   4.571   1.597
95585SOL    HW188652  10.622   4.641   1.603
95585SOL    HW288653  10.717   4.558   1.687
95586SOL     OW88654   3.997  13.335  11.460
95586SOL    HW188655   3.924  13.375  11.508
95586SOL    HW288656   4.060  13.310  11.528
95587SOL     OW88657   1.830   7.528   7.703
95587SOL    HW188658   1.884   7.465   7.751
95587SOL    HW288659   1.883   7.607   7.698
95588SOL     OW88660   8.657   5.329   3.091
95588SOL    HW188661   8.718   5.362   3.024
95588SOL    HW288662   8.603   5.404   3.113
95589SOL     OW88663   5.035   8.763   6.072
95589SOL    HW188664   4.970   8.820   6.032
95589SOL    HW288665   5.028   8.780   6.166
95590SOL     OW88666   4.272   7.031   8.580
95590SOL    HW188667   4.344   7.014   8.641
95590SOL    HW288668   4.313   7.028   8.493
95591SOL     OW88669   1.128   5.842   1.943
95591SOL    HW188670   1.196   5.859   2.008
95591SOL    HW288671   1.164   5.877   1.861
95592SOL     OW88672   4.364   5.209   5.198
95592SOL    HW188673   4.291   5.223   5.258
95592SOL    HW288674   4.426   5.280   5.218
95593SOL     OW88675   5.349  14.289   7.593
95593SOL    HW188676   5.263  14.254   7.616
95593SOL    HW288677   5.351  14.289   7.498
95594SOL     OW88678   1.129   8.411   4.120
95594SOL    HW188679   1.100   8.426   4.210
95594SOL    HW288680   1.222   8.434   4.120
95595SOL     OW88681   6.567  14.712   7.579
95595SOL    HW188682   6.603  14.792   7.618
95595SOL    HW288683   6.525  14.666   7.652
95596SOL     OW88684   7.425  13.910   4.997
95596SOL    HW188685   7.418  14.005   5.006
95596SOL    HW288686   7.510  13.896   4.956
95597SOL     OW88687   0.923  12.727  12.619
95597SOL    HW188688   0.919  12.801  12.680
95597SOL    HW288689   0.914  12.766  12.532
95598SOL     OW88690   8.036  11.010   0.680
95598SOL    HW188691   8.038  11.082   0.617
95598SOL    HW288692   8.096  10.945   0.644
95599SOL     OW88693   1.624   7.637  13.586
95599SOL    HW188694   1.576   7.709  13.545
95599SOL    HW288695   1.559   7.568  13.596
95600SOL     OW88696   5.199   2.133   7.130
95600SOL    HW188697   5.187   2.038   7.129
95600SOL    HW288698   5.110   2.169   7.125
95601SOL     OW88699   7.634  10.364   5.634
95601SOL    HW188700   7.542  10.341   5.621
95601SOL    HW288701   7.665  10.302   5.700
95602SOL     OW88702   1.175  11.411   0.583
95602SOL    HW188703   1.079  11.416   0.579
95602SOL    HW288704   1.194  11.394   0.675
95603SOL     OW88705   6.845   4.418  10.216
95603SOL    HW188706   6.906   4.442  10.286
95603SOL    HW288707   6.885   4.454  10.136
95604SOL     OW88708  12.761  13.278   2.451
95604SOL    HW188709  12.670  13.303   2.463
95604SOL    HW288710  12.811  13.353   2.483
95605SOL     OW88711   3.795   8.636  12.769
95605SOL    HW188712   3.853   8.653  12.695
95605SOL    HW288713   3.792   8.720  12.817
95606SOL     OW88714  13.700   9.855   1.476
95606SOL    HW188715  13.762   9.913   1.432
95606SOL    HW288716  13.751   9.814   1.546
95607SOL     OW88717   4.367   6.584   5.102
95607SOL    HW188718   4.284   6.627   5.122
95607SOL    HW288719   4.348   6.491   5.108
95608SOL     OW88720  13.752   5.580  11.424
95608SOL    HW188721  13.691   5.572  11.497
95608SOL    HW288722  13.796   5.495  11.420
95609SOL     OW88723   0.326   1.517   1.660
95609SOL    HW188724   0.299   1.427   1.642
95609SOL    HW288725   0.411   1.525   1.617
95610SOL     OW88726  14.843   8.268  13.755
95610SOL    HW188727  14.786   8.196  13.781
95610SOL    HW288728  14.839   8.268  13.659
95611SOL     OW88729   3.769   9.460   6.883
95611SOL    HW188730   3.784   9.550   6.857
95611SOL    HW288731   3.723   9.466   6.968
95612SOL     OW88732   0.583  10.115   3.745
95612SOL    HW188733   0.547  10.058   3.677
95612SOL    HW288734   0.643  10.173   3.698
95613SOL     OW88735  14.802   3.251   3.145
95613SOL    HW188736  14.809   3.281   3.054
95613SOL    HW288737   0.018   3.218   3.166
95614SOL     OW88738   7.187  11.702   6.152
95614SOL    HW188739   7.094  11.681   6.143
95614SOL    HW288740   7.211  11.667   6.238
95615SOL     OW88741  13.498  11.844   2.437
95615SOL    HW188742  13.538  11.926   2.410
95615SOL    HW288743  13.405  11.854   2.415
95616SOL     OW88744   5.558   4.959  10.330
95616SOL    HW188745   5.618   4.929  10.262
95616SOL    HW288746   5.596   4.924  10.411
95617SOL     OW88747   2.992  13.848   7.463
95617SOL    HW188748   3.026  13.894   7.539
95617SOL    HW288749   2.938  13.913   7.417
95618SOL     OW88750  11.069   2.315   3.516
95618SOL    HW188751  11.144   2.272   3.558
95618SOL    HW288752  10.993   2.273   3.556
95619SOL     OW88753   4.513   3.663  11.017
95619SOL    HW188754   4.467   3.634  10.939
95619SOL    HW288755   4.521   3.758  11.006
95620SOL     OW88756  10.225  13.498  12.349
95620SOL    HW188757  10.220  13.517  12.255
95620SOL    HW288758  10.133  13.490  12.377
95621SOL     OW88759   0.454   0.118  11.308
95621SOL    HW188760   0.460   0.084  11.397
95621SOL    HW288761   0.520   0.187  11.304
95622SOL     OW88762   3.170   8.816   1.358
95622SOL    HW188763   3.079   8.846   1.355
95622SOL    HW288764   3.217   8.875   1.300
95623SOL     OW88765  10.461  14.328  12.671
95623SOL    HW188766  10.517  14.258  12.637
95623SOL    HW288767  10.479  14.330  12.765
95624SOL     OW88768  13.673   3.015   8.676
95624SOL    HW188769  13.644   2.995   8.765
95624SOL    HW288770  13.706   3.105   8.681
95625SOL     OW88771   2.859  10.081   4.281
95625SOL    HW188772   2.930  10.027   4.248
95625SOL    HW288773   2.836  10.139   4.208
95626SOL     OW88774  14.306   3.091   0.874
95626SOL    HW188775  14.284   3.165   0.818
95626SOL    HW288776  14.295   3.125   0.963
95627SOL     OW88777   0.717   3.328   1.558
95627SOL    HW188778   0.675   3.391   1.500
95627SOL    HW288779   0.687   3.352   1.645
95628SOL     OW88780  14.526   6.222  13.700
95628SOL    HW188781  14.515   6.276  13.621
95628SOL    HW288782  14.527   6.132  13.667
95629SOL     OW88783   8.375  11.532   5.000
95629SOL    HW188784   8.434  11.572   5.064
95629SOL    HW288785   8.313  11.602   4.978
95630SOL     OW88786   4.310  11.746   0.909
95630SOL    HW188787   4.266  11.685   0.968
95630SOL    HW288788   4.361  11.689   0.850
95631SOL     OW88789  11.458   1.640   7.844
95631SOL    HW188790  11.467   1.711   7.907
95631SOL    HW288791  11.387   1.586   7.878
95632SOL     OW88792   1.884   7.738   7.355
95632SOL    HW188793   1.856   7.776   7.438
95632SOL    HW288794   1.957   7.793   7.327
95633SOL     OW88795   7.210   2.769  10.420
95633SOL    HW188796   7.230   2.858  10.390
95633SOL    HW288797   7.117   2.773  10.445
95634SOL     OW88798   5.784  11.595   2.611
95634SOL    HW188799   5.796  11.588   2.517
95634SOL    HW288800   5.834  11.672   2.637
95635SOL     OW88801   8.474   3.386  13.407
95635SOL    HW188802   8.430   3.432  13.479
95635SOL    HW288803   8.535   3.327  13.451
95636SOL     OW88804   7.641   3.988   8.239
95636SOL    HW188805   7.687   3.931   8.177
95636SOL    HW288806   7.641   3.940   8.322
95637SOL     OW88807   6.501   9.065   0.757
95637SOL    HW188808   6.479   9.140   0.812
95637SOL    HW288809   6.417   9.023   0.738
95638SOL     OW88810   0.629   0.358  11.765
95638SOL    HW188811   0.676   0.425  11.715
95638SOL    HW288812   0.543   0.352  11.721
95639SOL     OW88813   7.492   6.628   5.966
95639SOL    HW188814   7.400   6.600   5.959
95639SOL    HW288815   7.533   6.595   5.886
95640SOL     OW88816  12.835   6.761   6.754
95640SOL    HW188817  12.813   6.780   6.845
95640SOL    HW288818  12.881   6.677   6.758
95641SOL     OW88819   9.098   9.321   1.216
95641SOL    HW188820   9.123   9.390   1.155
95641SOL    HW288821   9.012   9.293   1.186
95642SOL     OW88822   3.149   4.308  13.546
95642SOL    HW188823   3.184   4.273  13.463
95642SOL    HW288824   3.226   4.345  13.590
95643SOL     OW88825   7.033   1.402   7.730
95643SOL    HW188826   7.055   1.479   7.677
95643SOL    HW288827   7.066   1.328   7.680
95644SOL     OW88828   3.282   7.325   3.290
95644SOL    HW188829   3.368   7.365   3.279
95644SOL    HW288830   3.255   7.351   3.378
95645SOL     OW88831   8.407   2.718  12.534
95645SOL    HW188832   8.471   2.727  12.463
95645SOL    HW288833   8.322   2.727  12.491
95646SOL     OW88834  14.770   8.125   9.917
95646SOL    HW188835  14.677   8.104   9.906
95646SOL    HW288836  14.815   8.064   9.858
95647SOL     OW88837   4.386  12.164   2.443
95647SOL    HW188838   4.479  12.166   2.467
95647SOL    HW288839   4.348  12.098   2.500
95648SOL     OW88840   3.841  13.190   7.417
95648SOL    HW188841   3.874  13.159   7.333
95648SOL    HW288842   3.896  13.145   7.482
95649SOL     OW88843   4.460   4.458   7.324
95649SOL    HW188844   4.548   4.435   7.355
95649SOL    HW288845   4.410   4.377   7.332
95650SOL     OW88846   1.227  12.576   3.194
95650SOL    HW188847   1.209  12.645   3.130
95650SOL    HW288848   1.141  12.553   3.229
95651SOL     OW88849   3.608   8.120   6.986
95651SOL    HW188850   3.673   8.055   7.011
95651SOL    HW288851   3.657   8.187   6.939
95652SOL     OW88852  12.875   2.003   7.562
95652SOL    HW188853  12.852   1.935   7.626
95652SOL    HW288854  12.938   2.059   7.607
95653SOL     OW88855   1.421   8.609   5.028
95653SOL    HW188856   1.418   8.626   5.123
95653SOL    HW288857   1.500   8.655   4.998
95654SOL     OW88858   7.777   5.877  13.232
95654SOL    HW188859   7.692   5.906  13.267
95654SOL    HW288860   7.840   5.898  13.301
95655SOL     OW88861   0.503   8.974  12.660
95655SOL    HW188862   0.493   8.887  12.700
95655SOL    HW288863   0.563   9.020  12.719
95656SOL     OW88864   3.932   9.965   1.737
95656SOL    HW188865   3.974   9.906   1.800
95656SOL    HW288866   3.937  10.051   1.779
95657SOL     OW88867   4.610   4.386   4.093
95657SOL    HW188868   4.657   4.442   4.154
95657SOL    HW288869   4.680   4.337   4.048
95658SOL     OW88870   4.388   8.654  13.693
95658SOL    HW188871   4.408   8.563  13.672
95658SOL    HW288872   4.307   8.649  13.745
95659SOL     OW88873  10.621   6.745  13.005
95659SOL    HW188874  10.570   6.687  13.063
95659SOL    HW288875  10.639   6.691  12.928
95660SOL     OW88876  14.848   1.810   4.949
95660SOL    HW188877   0.062   1.783   4.918
95660SOL    HW288878  14.865   1.885   5.005
95661SOL     OW88879  12.247  12.588  12.256
95661SOL    HW188880  12.294  12.635  12.187
95661SOL    HW288881  12.174  12.645  12.278
95662SOL     OW88882  10.376  12.139   5.902
95662SOL    HW188883  10.342  12.057   5.864
95662SOL    HW288884  10.332  12.208   5.854
95663SOL     OW88885  14.595   4.541   4.529
95663SOL    HW188886  14.530   4.533   4.598
95663SOL    HW288887  14.547   4.580   4.455
95664SOL     OW88888  14.296   8.197   2.793
95664SOL    HW188889  14.336   8.202   2.880
95664SOL    HW288890  14.206   8.227   2.806
95665SOL     OW88891   6.497  13.087  12.446
95665SOL    HW188892   6.522  13.167  12.493
95665SOL    HW288893   6.424  13.052  12.497
95666SOL     OW88894  14.857   2.026  13.579
95666SOL    HW188895  14.808   2.100  13.543
95666SOL    HW288896   0.049   2.065  13.639
95667SOL     OW88897   4.574   9.096  11.754
95667SOL    HW188898   4.566   9.009  11.714
95667SOL    HW288899   4.668   9.117  11.749
95668SOL     OW88900   8.668   1.756  12.066
95668SOL    HW188901   8.759   1.772  12.040
95668SOL    HW288902   8.633   1.702  11.996
95669SOL     OW88903  14.059   2.589   1.259
95669SOL    HW188904  14.110   2.522   1.304
95669SOL    HW288905  14.088   2.671   1.297
95670SOL     OW88906   5.582  11.307   4.811
95670SOL    HW188907   5.588  11.401   4.798
95670SOL    HW288908   5.672  11.278   4.822
95671SOL     OW88909  10.938   2.782  12.407
95671SOL    HW188910  10.924   2.789  12.312
95671SOL    HW288911  10.932   2.689  12.425
95672SOL     OW88912  13.942  10.643  12.885
95672SOL    HW188913  13.896  10.561  12.904
95672SOL    HW288914  13.907  10.706  12.948
95673SOL     OW88915   0.062   4.612   9.785
95673SOL    HW188916   0.074   4.638   9.876
95673SOL    HW288917   0.121   4.538   9.772
95674SOL     OW88918  14.222  14.305   5.826
95674SOL    HW188919  14.200  14.325   5.736
95674SOL    HW288920  14.266  14.383   5.859
95675SOL     OW88921   5.806   4.116   0.438
95675SOL    HW188922   5.750   4.148   0.509
95675SOL    HW288923   5.789   4.021   0.437
95676SOL     OW88924  10.147  13.644   0.708
95676SOL    HW188925  10.230  13.626   0.663
95676SOL    HW288926  10.173  13.674   0.795
95677SOL     OW88927  12.370   5.530   5.698
95677SOL    HW188928  12.443   5.516   5.638
95677SOL    HW288929  12.409   5.521   5.785
95678SOL     OW88930   0.150   1.389  14.524
95678SOL    HW188931   0.239   1.364  14.498
95678SOL    HW288932   0.126   1.459  14.463
95679SOL     OW88933   8.285   4.233   0.631
95679SOL    HW188934   8.275   4.276   0.546
95679SOL    HW288935   8.207   4.180   0.641
95680SOL     OW88936   1.665  14.033   6.548
95680SOL    HW188937   1.747  14.003   6.587
95680SOL    HW288938   1.672  14.128   6.547
95681SOL     OW88939  14.296   4.402   2.134
95681SOL    HW188940  14.319   4.318   2.174
95681SOL    HW288941  14.259   4.453   2.206
95682SOL     OW88942   8.918   0.233   5.536
95682SOL    HW188943   8.963   0.307   5.494
95682SOL    HW288944   8.849   0.209   5.474
95683SOL     OW88945   8.974  12.690   7.532
95683SOL    HW188946   9.063  12.724   7.537
95683SOL    HW288947   8.986  12.596   7.519
95684SOL     OW88948   6.026   0.626  10.910
95684SOL    HW188949   5.954   0.644  10.850
95684SOL    HW288950   6.094   0.689  10.886
95685SOL     OW88951   0.057   1.917  10.867
95685SOL    HW188952   0.082   1.976  10.938
95685SOL    HW288953   0.126   1.927  10.802
95686SOL     OW88954   9.157  12.667   1.137
95686SOL    HW188955   9.110  12.662   1.220
95686SOL    HW288956   9.247  12.689   1.162
95687SOL     OW88957  10.271   3.953   5.665
95687SOL    HW188958  10.189   3.979   5.708
95687SOL    HW288959  10.340   3.977   5.727
95688SOL     OW88960   6.166  13.262   6.965
95688SOL    HW188961   6.141  13.253   6.873
95688SOL    HW288962   6.084  13.272   7.012
95689SOL     OW88963  13.575   2.127   4.388
95689SOL    HW188964  13.548   2.096   4.474
95689SOL    HW288965  13.618   2.211   4.405
95690SOL     OW88966   4.393   6.471  11.648
95690SOL    HW188967   4.323   6.535  11.662
95690SOL    HW288968   4.446   6.477  11.728
95691SOL     OW88969   0.739   5.038   0.727
95691SOL    HW188970   0.708   5.033   0.817
95691SOL    HW288971   0.682   5.102   0.685
95692SOL     OW88972   6.033  13.421   3.675
95692SOL    HW188973   6.082  13.382   3.747
95692SOL    HW288974   5.971  13.354   3.648
95693SOL     OW88975   9.739   9.150   0.905
95693SOL    HW188976   9.760   9.109   0.989
95693SOL    HW288977   9.706   9.237   0.928
95694SOL     OW88978  12.447   8.518   3.572
95694SOL    HW188979  12.365   8.556   3.603
95694SOL    HW288980  12.420   8.461   3.499
95695SOL     OW88981  13.530   3.050   7.355
95695SOL    HW188982  13.557   3.028   7.265
95695SOL    HW288983  13.451   3.102   7.344
95696SOL     OW88984  11.147  10.271   4.650
95696SOL    HW188985  11.187  10.312   4.573
95696SOL    HW288986  11.220  10.257   4.711
95697SOL     OW88987   4.945   8.609   3.049
95697SOL    HW188988   5.025   8.561   3.073
95697SOL    HW288989   4.889   8.602   3.126
95698SOL     OW88990  11.419   8.284   4.060
95698SOL    HW188991  11.431   8.205   4.113
95698SOL    HW288992  11.506   8.321   4.051
95699SOL     OW88993  14.791   8.560   8.497
95699SOL    HW188994  14.804   8.622   8.569
95699SOL    HW288995  14.749   8.484   8.537
95700SOL     OW88996  11.033   4.711   5.434
95700SOL    HW188997  10.994   4.623   5.427
95700SOL    HW288998  11.034   4.729   5.528
95701SOL     OW88999   2.419  10.741  11.467
95701SOL    HW189000   2.512  10.724  11.485
95701SOL    HW289001   2.388  10.662  11.423
95702SOL     OW89002   5.557   3.040  14.176
95702SOL    HW189003   5.493   3.037  14.247
95702SOL    HW289004   5.598   2.953  14.177
95703SOL     OW89005   8.546   0.042  11.590
95703SOL    HW189006   8.591   0.126  11.596
95703SOL    HW289007   8.606  14.858  11.541
95704SOL     OW89008   5.647  14.819   3.320
95704SOL    HW189009   5.687  14.733   3.335
95704SOL    HW289010   5.571  14.821   3.379
95705SOL     OW89011  14.571   0.053   5.419
95705SOL    HW189012  14.616   0.019   5.497
95705SOL    HW289013  14.637   0.107   5.375
95706SOL     OW89014   3.300  13.958  11.346
95706SOL    HW189015   3.303  13.870  11.383
95706SOL    HW289016   3.359  14.009  11.402
95707SOL     OW89017   8.004  12.336  14.739
95707SOL    HW189018   7.914  12.314  14.762
95707SOL    HW289019   8.051  12.253  14.741
95708SOL     OW89020   5.258  10.348   4.399
95708SOL    HW189021   5.270  10.255   4.416
95708SOL    HW289022   5.170  10.368   4.431
95709SOL     OW89023   8.273  10.644  14.532
95709SOL    HW189024   8.267  10.575  14.597
95709SOL    HW289025   8.330  10.609  14.464
95710SOL     OW89026   5.273   8.227  13.729
95710SOL    HW189027   5.188   8.248  13.691
95710SOL    HW289028   5.261   8.142  13.771
95711SOL     OW89029   6.813  11.501   6.343
95711SOL    HW189030   6.794  11.408   6.334
95711SOL    HW289031   6.770  11.527   6.425
95712SOL     OW89032   4.671   4.282   7.335
95712SOL    HW189033   4.634   4.211   7.282
95712SOL    HW289034   4.731   4.328   7.276
95713SOL     OW89035   9.953   3.424  13.913
95713SOL    HW189036  10.047   3.429  13.930
95713SOL    HW289037   9.913   3.453  13.995
95714SOL     OW89038   2.649  13.121   8.461
95714SOL    HW189039   2.584  13.148   8.396
95714SOL    HW289040   2.597  13.099   8.538
95715SOL     OW89041   6.452   0.788   5.151
95715SOL    HW189042   6.530   0.827   5.192
95715SOL    HW289043   6.429   0.850   5.081
95716SOL     OW89044   4.986   2.790   5.506
95716SOL    HW189045   4.968   2.861   5.568
95716SOL    HW289046   5.021   2.833   5.429
95717SOL     OW89047  10.418  13.969  12.777
95717SOL    HW189048  10.379  13.882  12.771
95717SOL    HW289049  10.474  13.976  12.700
95718SOL     OW89050   1.055  10.737   4.870
95718SOL    HW189051   1.028  10.694   4.789
95718SOL    HW289052   1.045  10.831   4.851
95719SOL     OW89053  12.639  14.697   9.553
95719SOL    HW189054  12.547  14.702   9.527
95719SOL    HW289055  12.688  14.718   9.473
95720SOL     OW89056   7.186  10.414   2.579
95720SOL    HW189057   7.234  10.331   2.584
95720SOL    HW289058   7.113  10.396   2.520
95721SOL     OW89059   4.954   4.466  11.472
95721SOL    HW189060   5.011   4.418  11.533
95721SOL    HW289061   5.001   4.465  11.389
95722SOL     OW89062   7.746   6.023   4.789
95722SOL    HW189063   7.814   5.956   4.795
95722SOL    HW289064   7.674   5.989   4.844
95723SOL     OW89065   0.294  11.520   8.678
95723SOL    HW189066   0.273  11.475   8.597
95723SOL    HW289067   0.345  11.597   8.650
95724SOL     OW89068   8.605  11.494  11.142
95724SOL    HW189069   8.594  11.406  11.105
95724SOL    HW289070   8.627  11.549  11.067
95725SOL     OW89071   5.496   3.371   4.251
95725SOL    HW189072   5.430   3.425   4.293
95725SOL    HW289073   5.579   3.398   4.292
95726SOL     OW89074   7.630   4.929   2.747
95726SOL    HW189075   7.712   4.967   2.715
95726SOL    HW289076   7.580   4.911   2.667
95727SOL     OW89077   9.372   6.079   5.371
95727SOL    HW189078   9.424   6.152   5.338
95727SOL    HW289079   9.281   6.107   5.361
95728SOL     OW89080   3.444  13.562  12.047
95728SOL    HW189081   3.422  13.512  11.968
95728SOL    HW289082   3.362  13.606  12.071
95729SOL     OW89083   7.109   8.388   5.298
95729SOL    HW189084   7.062   8.387   5.214
95729SOL    HW289085   7.084   8.306   5.340
95730SOL     OW89086   1.286  13.590   6.921
95730SOL    HW189087   1.327  13.565   6.838
95730SOL    HW289088   1.199  13.622   6.897
95731SOL     OW89089   6.976  12.520   5.041
95731SOL    HW189090   7.049  12.567   5.000
95731SOL    HW289091   6.959  12.568   5.122
95732SOL     OW89092  13.535   4.688   6.932
95732SOL    HW189093  13.520   4.662   6.841
95732SOL    HW289094  13.449   4.714   6.965
95733SOL     OW89095  13.233   3.966   8.242
95733SOL    HW189096  13.326   3.948   8.250
95733SOL    HW289097  13.196   3.940   8.327
95734SOL     OW89098  13.980   2.454   0.005
95734SOL    HW189099  14.048   2.387  14.870
95734SOL    HW289100  13.990   2.489   0.094
95735SOL     OW89101   7.078  14.431   1.328
95735SOL    HW189102   7.169  14.414   1.354
95735SOL    HW289103   7.032  14.350   1.349
95736SOL     OW89104   1.245   7.795   9.695
95736SOL    HW189105   1.337   7.771   9.710
95736SOL    HW289106   1.245   7.890   9.689
95737SOL     OW89107   0.106   1.657   1.982
95737SOL    HW189108   0.094   1.632   2.073
95737SOL    HW289109   0.200   1.666   1.971
95738SOL     OW89110  13.998   2.278   1.701
95738SOL    HW189111  13.939   2.342   1.739
95738SOL    HW289112  14.085   2.306   1.729
95739SOL     OW89113   0.733  12.099  14.123
95739SOL    HW189114   0.806  12.040  14.142
95739SOL    HW289115   0.657  12.058  14.165
95740SOL     OW89116   9.107  13.269  14.482
95740SOL    HW189117   9.081  13.187  14.442
95740SOL    HW289118   9.203  13.264  14.489
95741SOL     OW89119   9.268  11.101   6.826
95741SOL    HW189120   9.279  11.019   6.874
95741SOL    HW289121   9.277  11.076   6.734
95742SOL     OW89122   9.913  13.011   8.770
95742SOL    HW189123   9.988  12.994   8.826
95742SOL    HW289124   9.930  12.963   8.689
95743SOL     OW89125  14.844  12.594   6.893
95743SOL    HW189126   0.045  12.541   6.860
95743SOL    HW289127   0.003  12.685   6.886
95744SOL     OW89128   0.159   0.162  10.628
95744SOL    HW189129   0.131   0.207  10.549
95744SOL    HW289130   0.121   0.213  10.700
95745SOL     OW89131   1.538   7.171   4.100
95745SOL    HW189132   1.575   7.095   4.145
95745SOL    HW289133   1.569   7.246   4.150
95746SOL     OW89134   0.846   0.298   3.798
95746SOL    HW189135   0.788   0.322   3.871
95746SOL    HW289136   0.929   0.340   3.819
95747SOL     OW89137   7.592   6.116   5.734
95747SOL    HW189138   7.680   6.141   5.761
95747SOL    HW289139   7.599   6.099   5.640
95748SOL     OW89140  13.501  10.269  11.344
95748SOL    HW189141  13.484  10.280  11.437
95748SOL    HW289142  13.503  10.358  11.310
95749SOL     OW89143   8.555   8.235   3.052
95749SOL    HW189144   8.576   8.157   3.104
95749SOL    HW289145   8.630   8.292   3.062
95750SOL     OW89146   6.041  12.798   6.151
95750SOL    HW189147   5.970  12.735   6.153
95750SOL    HW289148   6.074  12.794   6.061
95751SOL     OW89149   2.465  10.570   0.237
95751SOL    HW189150   2.541  10.606   0.283
95751SOL    HW289151   2.408  10.646   0.223
95752SOL     OW89152   4.546   9.998  11.686
95752SOL    HW189153   4.452   9.995  11.665
95752SOL    HW289154   4.590   9.997  11.600
95753SOL     OW89155   3.925  14.638  14.322
95753SOL    HW189156   3.852  14.621  14.382
95753SOL    HW289157   3.908  14.580  14.247
95754SOL     OW89158  10.757   6.123  11.409
95754SOL    HW189159  10.832   6.106  11.466
95754SOL    HW289160  10.777   6.207  11.368
95755SOL     OW89161   8.562   6.136   4.463
95755SOL    HW189162   8.628   6.171   4.404
95755SOL    HW289163   8.611   6.104   4.539
95756SOL     OW89164  14.382   3.296  10.131
95756SOL    HW189165  14.445   3.295  10.059
95756SOL    HW289166  14.297   3.291  10.087
95757SOL     OW89167  13.051   8.698   2.255
95757SOL    HW189168  12.992   8.718   2.327
95757SOL    HW289169  13.093   8.782   2.234
95758SOL     OW89170   6.946   2.102  11.230
95758SOL    HW189171   6.956   2.081  11.323
95758SOL    HW289172   7.034   2.129  11.202
95759SOL     OW89173   8.268  10.457   5.478
95759SOL    HW189174   8.256  10.506   5.560
95759SOL    HW289175   8.289  10.368   5.507
95760SOL     OW89176  10.265   9.332   4.646
95760SOL    HW189177  10.325   9.301   4.714
95760SOL    HW289178  10.314   9.399   4.599
95761SOL     OW89179   8.452   3.080   2.362
95761SOL    HW189180   8.438   3.095   2.269
95761SOL    HW289181   8.364   3.072   2.399
95762SOL     OW89182   9.081   0.607  11.667
95762SOL    HW189183   9.157   0.553  11.686
95762SOL    HW289184   9.068   0.597  11.572
95763SOL     OW89185   8.594  11.585  14.106
95763SOL    HW189186   8.587  11.572  14.011
95763SOL    HW289187   8.670  11.642  14.117
95764SOL     OW89188  14.647  14.532   6.461
95764SOL    HW189189  14.672  14.569   6.546
95764SOL    HW289190  14.552  14.520   6.467
95765SOL     OW89191  13.307  12.297  11.912
95765SOL    HW189192  13.396  12.269  11.890
95765SOL    HW289193  13.319  12.369  11.974
95766SOL     OW89194   1.130   0.102   3.425
95766SOL    HW189195   1.172   0.115   3.510
95766SOL    HW289196   1.062   0.169   3.421
95767SOL     OW89197   2.514   3.886   7.874
95767SOL    HW189198   2.512   3.979   7.853
95767SOL    HW289199   2.427   3.854   7.851
95768SOL     OW89200   9.900   2.518  11.842
95768SOL    HW189201   9.939   2.482  11.921
95768SOL    HW289202   9.806   2.504  11.853
95769SOL     OW89203   3.926   2.165   8.047
95769SOL    HW189204   3.905   2.213   7.967
95769SOL    HW289205   4.001   2.110   8.023
95770SOL     OW89206  11.908  10.413   1.151
95770SOL    HW189207  11.953  10.339   1.110
95770SOL    HW289208  11.928  10.488   1.094
95771SOL     OW89209  11.717   8.464  13.243
95771SOL    HW189210  11.712   8.559  13.229
95771SOL    HW289211  11.703   8.426  13.157
95772SOL     OW89212   4.154  13.831  13.320
95772SOL    HW189213   4.199  13.806  13.239
95772SOL    HW289214   4.190  13.774  13.387
95773SOL     OW89215  11.829  11.322  11.004
95773SOL    HW189216  11.892  11.273  11.056
95773SOL    HW289217  11.771  11.362  11.069
95774SOL     OW89218   9.865   5.656  13.094
95774SOL    HW189219   9.942   5.711  13.079
95774SOL    HW289220   9.873   5.586  13.028
95775SOL     OW89221   4.436   0.544  13.096
95775SOL    HW189222   4.457   0.522  13.005
95775SOL    HW289223   4.493   0.488  13.148
95776SOL     OW89224   5.991   4.207   2.373
95776SOL    HW189225   6.077   4.170   2.392
95776SOL    HW289226   5.966   4.253   2.452
95777SOL     OW89227   3.737  11.064   6.854
95777SOL    HW189228   3.725  10.984   6.802
95777SOL    HW289229   3.661  11.065   6.912
95778SOL     OW89230   0.121   2.055   9.856
95778SOL    HW189231   0.085   1.972   9.888
95778SOL    HW289232   0.086   2.120   9.917
95779SOL     OW89233   2.136  13.698  13.242
95779SOL    HW189234   2.091  13.781  13.255
95779SOL    HW289235   2.150  13.664  13.330
95780SOL     OW89236  14.293  11.655  13.223
95780SOL    HW189237  14.259  11.741  13.197
95780SOL    HW289238  14.233  11.625  13.291
95781SOL     OW89239   4.500   5.429  12.014
95781SOL    HW189240   4.500   5.352  12.070
95781SOL    HW289241   4.533   5.500  12.070
95782SOL     OW89242  13.153  11.733  12.158
95782SOL    HW189243  13.092  11.663  12.181
95782SOL    HW289244  13.211  11.740  12.233
95783SOL     OW89245  12.794  10.217   5.338
95783SOL    HW189246  12.810  10.311   5.334
95783SOL    HW289247  12.878  10.180   5.367
95784SOL     OW89248  10.891   4.586   5.716
95784SOL    HW189249  10.825   4.618   5.654
95784SOL    HW289250  10.882   4.642   5.792
95785SOL     OW89251  12.422  13.615   5.765
95785SOL    HW189252  12.350  13.656   5.717
95785SOL    HW289253  12.501  13.652   5.727
95786SOL     OW89254   1.771   6.421   1.419
95786SOL    HW189255   1.830   6.369   1.364
95786SOL    HW289256   1.829   6.482   1.465
95787SOL     OW89257  14.259   7.791  11.448
95787SOL    HW189258  14.230   7.827  11.532
95787SOL    HW289259  14.227   7.853  11.382
95788SOL     OW89260   3.559   8.730   9.520
95788SOL    HW189261   3.594   8.654   9.565
95788SOL    HW289262   3.588   8.719   9.429
95789SOL     OW89263   0.226   1.901   8.923
95789SOL    HW189264   0.195   1.812   8.941
95789SOL    HW289265   0.205   1.950   9.003
95790SOL     OW89266   5.939   5.402   8.473
95790SOL    HW189267   5.997   5.392   8.398
95790SOL    HW289268   5.984   5.465   8.530
95791SOL     OW89269  11.778   4.560   5.485
95791SOL    HW189270  11.751   4.512   5.407
95791SOL    HW289271  11.708   4.624   5.499
95792SOL     OW89272   7.888  11.935   7.972
95792SOL    HW189273   7.942  11.884   7.912
95792SOL    HW289274   7.934  12.018   7.983
95793SOL     OW89275   1.768   1.623  14.133
95793SOL    HW189276   1.786   1.658  14.046
95793SOL    HW289277   1.828   1.669  14.191
95794SOL     OW89278   1.453   5.246   0.755
95794SOL    HW189279   1.391   5.314   0.727
95794SOL    HW289280   1.399   5.168   0.765
95795SOL     OW89281  14.327   1.249  12.088
95795SOL    HW189282  14.251   1.263  12.031
95795SOL    HW289283  14.395   1.217  12.029
95796SOL     OW89284   3.730  12.797   7.565
95796SOL    HW189285   3.659  12.733   7.571
95796SOL    HW289286   3.762  12.790   7.475
95797SOL     OW89287  12.011  12.039   4.017
95797SOL    HW189288  12.080  12.105   4.020
95797SOL    HW289289  12.031  11.986   3.940
95798SOL     OW89290  11.564   8.697   3.049
95798SOL    HW189291  11.542   8.788   3.029
95798SOL    HW289292  11.501   8.645   2.998
95799SOL     OW89293   2.294   7.170   7.341
95799SOL    HW189294   2.258   7.215   7.418
95799SOL    HW289295   2.227   7.180   7.274
95800SOL     OW89296   3.491  11.081   9.526
95800SOL    HW189297   3.583  11.107   9.535
95800SOL    HW289298   3.463  11.120   9.443
95801SOL     OW89299  12.807   6.585  11.691
95801SOL    HW189300  12.761   6.516  11.739
95801SOL    HW289301  12.876   6.540  11.643
95802SOL     OW89302   2.438   5.408   3.772
95802SOL    HW189303   2.479   5.419   3.858
95802SOL    HW289304   2.368   5.474   3.770
95803SOL     OW89305   2.934   8.343   3.199
95803SOL    HW189306   2.840   8.359   3.194
95803SOL    HW289307   2.952   8.337   3.293
95804SOL     OW89308   7.522   4.229   7.493
95804SOL    HW189309   7.448   4.216   7.434
95804SOL    HW289310   7.519   4.155   7.553
95805SOL     OW89311  11.221   6.210  11.123
95805SOL    HW189312  11.202   6.268  11.197
95805SOL    HW289313  11.245   6.126  11.164
95806SOL     OW89314  11.461   9.135  10.778
95806SOL    HW189315  11.512   9.054  10.775
95806SOL    HW289316  11.424   9.143  10.690
95807SOL     OW89317  10.194   0.127  14.707
95807SOL    HW189318  10.213   0.048  14.656
95807SOL    HW289319  10.101   0.143  14.692
95808SOL     OW89320   8.680  11.114   4.283
95808SOL    HW189321   8.754  11.078   4.234
95808SOL    HW289322   8.634  11.037   4.316
95809SOL     OW89323   2.317  11.894   7.732
95809SOL    HW189324   2.352  11.829   7.672
95809SOL    HW289325   2.394  11.931   7.775
95810SOL     OW89326   5.787  10.645   3.095
95810SOL    HW189327   5.761  10.737   3.089
95810SOL    HW289328   5.879  10.645   3.067
95811SOL     OW89329  12.905   5.768  14.273
95811SOL    HW189330  12.819   5.772  14.230
95811SOL    HW289331  12.888   5.724  14.356
95812SOL     OW89332   6.241   8.119   3.573
95812SOL    HW189333   6.295   8.075   3.507
95812SOL    HW289334   6.192   8.048   3.615
95813SOL     OW89335  10.140  14.830  11.028
95813SOL    HW189336  10.117  14.740  11.050
95813SOL    HW289337  10.099  14.845  10.942
95814SOL     OW89338   7.268   5.150   8.687
95814SOL    HW189339   7.215   5.211   8.738
95814SOL    HW289340   7.205   5.107   8.629
95815SOL     OW89341   8.291  11.910   1.834
95815SOL    HW189342   8.343  11.869   1.764
95815SOL    HW289343   8.291  12.003   1.812
95816SOL     OW89344  12.736  14.397   1.064
95816SOL    HW189345  12.717  14.364   1.152
95816SOL    HW289346  12.676  14.471   1.053
95817SOL     OW89347  10.342   0.849  10.453
95817SOL    HW189348  10.368   0.775  10.398
95817SOL    HW289349  10.410   0.915  10.438
95818SOL     OW89350   4.166   8.557   3.113
95818SOL    HW189351   4.228   8.555   3.040
95818SOL    HW289352   4.096   8.615   3.085
95819SOL     OW89353   2.676   9.287   5.038
95819SOL    HW189354   2.680   9.292   5.134
95819SOL    HW289355   2.603   9.343   5.014
95820SOL     OW89356   0.003  13.524  10.087
95820SOL    HW189357  14.786  13.553  10.063
95820SOL    HW289358   0.023  13.456  10.023
95821SOL     OW89359  11.534  12.262   6.793
95821SOL    HW189360  11.502  12.293   6.709
95821SOL    HW289361  11.488  12.180   6.808
95822SOL     OW89362  13.540  10.436   2.010
95822SOL    HW189363  13.544  10.343   2.033
95822SOL    HW289364  13.492  10.438   1.927
95823SOL     OW89365   6.435   5.965  12.371
95823SOL    HW189366   6.464   5.882  12.334
95823SOL    HW289367   6.481   5.973  12.454
95824SOL     OW89368  10.404   3.474   5.510
95824SOL    HW189369  10.335   3.541   5.505
95824SOL    HW289370  10.486   3.524   5.507
95825SOL     OW89371   9.792   5.354   1.778
95825SOL    HW189372   9.838   5.438   1.787
95825SOL    HW289373   9.816   5.306   1.857
95826SOL     OW89374   4.227   2.416   8.548
95826SOL    HW189375   4.199   2.374   8.629
95826SOL    HW289376   4.290   2.483   8.576
95827SOL     OW89377   8.319   6.733  11.555
95827SOL    HW189378   8.282   6.646  11.543
95827SOL    HW289379   8.274   6.768  11.632
95828SOL     OW89380   4.606  12.354   1.737
95828SOL    HW189381   4.635  12.392   1.655
95828SOL    HW289382   4.637  12.263   1.734
95829SOL     OW89383   4.419   3.935   7.894
95829SOL    HW189384   4.486   3.997   7.923
95829SOL    HW289385   4.407   3.876   7.969
95830SOL     OW89386   4.052   4.014   9.277
95830SOL    HW189387   4.135   4.026   9.231
95830SOL    HW289388   3.988   4.059   9.222
95831SOL     OW89389  10.133   3.642   5.262
95831SOL    HW189390  10.189   3.614   5.189
95831SOL    HW289391  10.089   3.561   5.290
95832SOL     OW89392   6.026   9.473  12.866
95832SOL    HW189393   6.090   9.403  12.873
95832SOL    HW289394   6.077   9.553  12.872
95833SOL     OW89395  13.138   1.618  12.071
95833SOL    HW189396  13.177   1.534  12.095
95833SOL    HW289397  13.117   1.660  12.154
95834SOL     OW89398   3.308  12.769   7.102
95834SOL    HW189399   3.215  12.787   7.115
95834SOL    HW289400   3.347  12.854   7.081
95835SOL     OW89401   1.070   6.992   5.265
95835SOL    HW189402   1.127   7.039   5.326
95835SOL    HW289403   1.103   7.017   5.178
95836SOL     OW89404   3.333  11.817   1.529
95836SOL    HW189405   3.319  11.876   1.604
95836SOL    HW289406   3.246  11.790   1.503
95837SOL     OW89407  12.236   0.200  10.716
95837SOL    HW189408  12.280   0.118  10.737
95837SOL    HW289409  12.170   0.210  10.785
95838SOL     OW89410   5.612   9.164  13.308
95838SOL    HW189411   5.536   9.188  13.361
95838SOL    HW289412   5.605   9.220  13.230
95839SOL     OW89413   7.566  10.670   1.584
95839SOL    HW189414   7.530  10.703   1.666
95839SOL    HW289415   7.520  10.588   1.568
95840SOL     OW89416   5.762   6.279  10.976
95840SOL    HW189417   5.675   6.239  10.968
95840SOL    HW289418   5.810   6.219  11.033
95841SOL     OW89419   2.477   4.165   7.306
95841SOL    HW189420   2.480   4.247   7.354
95841SOL    HW289421   2.385   4.141   7.305
95842SOL     OW89422  12.200   0.246   4.961
95842SOL    HW189423  12.245   0.300   5.027
95842SOL    HW289424  12.191   0.161   5.003
95843SOL     OW89425  12.764   0.956   6.073
95843SOL    HW189426  12.709   0.969   6.150
95843SOL    HW289427  12.785   0.863   6.074
95844SOL     OW89428  10.609  10.848   5.201
95844SOL    HW189429  10.572  10.786   5.263
95844SOL    HW289430  10.570  10.932   5.224
95845SOL     OW89431   5.129   9.593  14.688
95845SOL    HW189432   5.129   9.510  14.736
95845SOL    HW289433   5.203   9.642  14.723
95846SOL     OW89434  12.037   0.059   9.308
95846SOL    HW189435  12.082   0.042   9.391
95846SOL    HW289436  12.059   0.150   9.287
95847SOL     OW89437   9.095   8.933   0.750
95847SOL    HW189438   9.048   8.986   0.814
95847SOL    HW289439   9.187   8.955   0.763
95848SOL     OW89440  11.718   6.432  10.285
95848SOL    HW189441  11.746   6.349  10.247
95848SOL    HW289442  11.772   6.443  10.363
95849SOL     OW89443  14.088   4.978   0.210
95849SOL    HW189444  14.042   4.914   0.156
95849SOL    HW289445  14.032   5.056   0.209
95850SOL     OW89446  11.833   4.106  11.465
95850SOL    HW189447  11.817   4.173  11.531
95850SOL    HW289448  11.748   4.091  11.424
95851SOL     OW89449  14.039   4.734   7.604
95851SOL    HW189450  14.010   4.671   7.669
95851SOL    HW289451  14.134   4.736   7.611
95852SOL     OW89452  10.645  10.116  13.727
95852SOL    HW189453  10.621  10.171  13.653
95852SOL    HW289454  10.731  10.080  13.703
95853SOL     OW89455   2.756   3.573   1.555
95853SOL    HW189456   2.748   3.497   1.612
95853SOL    HW289457   2.769   3.536   1.467
95854SOL     OW89458   0.973   6.896   0.361
95854SOL    HW189459   0.933   6.978   0.390
95854SOL    HW289460   0.924   6.828   0.408
95855SOL     OW89461   0.596  10.077  14.845
95855SOL    HW189462   0.634  10.128  14.774
95855SOL    HW289463   0.670  10.057   0.031
95856SOL     OW89464   7.205   6.567   9.733
95856SOL    HW189465   7.265   6.498   9.704
95856SOL    HW289466   7.206   6.631   9.662
95857SOL     OW89467  11.489  12.617  11.882
95857SOL    HW189468  11.432  12.679  11.836
95857SOL    HW289469  11.457  12.616  11.972
95858SOL     OW89470   7.068  10.651   2.188
95858SOL    HW189471   7.149  10.609   2.217
95858SOL    HW289472   7.053  10.721   2.251
95859SOL     OW89473   2.512   1.171   7.126
95859SOL    HW189474   2.433   1.161   7.073
95859SOL    HW289475   2.584   1.170   7.063
95860SOL     OW89476   8.192   2.604   7.428
95860SOL    HW189477   8.120   2.590   7.366
95860SOL    HW289478   8.181   2.694   7.457
95861SOL     OW89479   8.613  10.456  12.113
95861SOL    HW189480   8.535  10.508  12.094
95861SOL    HW289481   8.630  10.408  12.032
95862SOL     OW89482  12.813   8.952   7.240
95862SOL    HW189483  12.807   9.011   7.164
95862SOL    HW289484  12.748   8.985   7.301
95863SOL     OW89485   3.615   4.586  10.559
95863SOL    HW189486   3.653   4.651  10.618
95863SOL    HW289487   3.599   4.634  10.477
95864SOL     OW89488   6.549   4.568   7.477
95864SOL    HW189489   6.611   4.628   7.519
95864SOL    HW289490   6.516   4.515   7.549
95865SOL     OW89491  13.313  10.421  14.382
95865SOL    HW189492  13.397  10.443  14.421
95865SOL    HW289493  13.320  10.451  14.291
95866SOL     OW89494   4.024   9.142   6.943
95866SOL    HW189495   4.091   9.209   6.956
95866SOL    HW289496   4.074   9.066   6.911
95867SOL     OW89497   6.092   7.553   9.880
95867SOL    HW189498   6.010   7.599   9.896
95867SOL    HW289499   6.156   7.623   9.866
95868SOL     OW89500   6.399   8.341   3.632
95868SOL    HW189501   6.400   8.342   3.728
95868SOL    HW289502   6.376   8.251   3.609
95869SOL     OW89503  14.813   9.567   7.519
95869SOL    HW189504  14.852   9.606   7.441
95869SOL    HW289505   0.014   9.559   7.581
95870SOL     OW89506   7.158  13.565  10.749
95870SOL    HW189507   7.089  13.600  10.693
95870SOL    HW289508   7.117  13.555  10.835
95871SOL     OW89509  12.809  12.893  12.658
95871SOL    HW189510  12.722  12.888  12.698
95871SOL    HW289511  12.851  12.811  12.682
95872SOL     OW89512   0.396  14.677  12.861
95872SOL    HW189513   0.320  14.634  12.898
95872SOL    HW289514   0.470  14.622  12.887
95873SOL     OW89515   9.901  12.273  10.596
95873SOL    HW189516   9.866  12.357  10.628
95873SOL    HW289517   9.930  12.228  10.675
95874SOL     OW89518   7.392   9.127   0.611
95874SOL    HW189519   7.378   9.105   0.519
95874SOL    HW289520   7.309   9.104   0.654
95875SOL     OW89521   3.875  10.842   7.478
95875SOL    HW189522   3.895  10.931   7.448
95875SOL    HW289523   3.781  10.832   7.461
95876SOL     OW89524   5.748   5.597   3.294
95876SOL    HW189525   5.826   5.607   3.240
95876SOL    HW289526   5.687   5.663   3.261
95877SOL     OW89527   6.142   5.517   3.941
95877SOL    HW189528   6.097   5.568   4.007
95877SOL    HW289529   6.219   5.569   3.918
95878SOL     OW89530   9.583   3.016  14.208
95878SOL    HW189531   9.521   3.075  14.251
95878SOL    HW289532   9.530   2.969  14.142
95879SOL     OW89533   0.616   4.114   8.831
95879SOL    HW189534   0.679   4.050   8.863
95879SOL    HW289535   0.668   4.188   8.801
95880SOL     OW89536  11.472  12.637  14.194
95880SOL    HW189537  11.507  12.633  14.105
95880SOL    HW289538  11.457  12.546  14.218
95881SOL     OW89539   8.829  10.315  14.810
95881SOL    HW189540   8.804  10.223  14.802
95881SOL    HW289541   8.890  10.318   0.011
95882SOL     OW89542  14.759   1.393   9.576
95882SOL    HW189543  14.817   1.443   9.633
95882SOL    HW289544  14.682   1.448   9.566
95883SOL     OW89545  14.346   8.225   9.109
95883SOL    HW189546  14.431   8.249   9.072
95883SOL    HW289547  14.298   8.186   9.036
95884SOL     OW89548   2.591   3.726   5.804
95884SOL    HW189549   2.603   3.742   5.710
95884SOL    HW289550   2.543   3.643   5.808
95885SOL     OW89551  12.577   6.063   8.992
95885SOL    HW189552  12.652   6.112   8.958
95885SOL    HW289553  12.545   6.012   8.918
95886SOL     OW89554  12.771   3.032   7.417
95886SOL    HW189555  12.806   3.096   7.479
95886SOL    HW289556  12.731   2.965   7.473
95887SOL     OW89557   6.569   1.424  14.625
95887SOL    HW189558   6.627   1.460  14.558
95887SOL    HW289559   6.582   1.330  14.620
95888SOL     OW89560  13.517   8.986   7.918
95888SOL    HW189561  13.574   9.021   7.850
95888SOL    HW289562  13.451   9.055   7.932
95889SOL     OW89563   6.861   6.040   9.843
95889SOL    HW189564   6.812   5.968   9.881
95889SOL    HW289565   6.796   6.107   9.824
95890SOL     OW89566   6.834  13.177  13.710
95890SOL    HW189567   6.794  13.143  13.790
95890SOL    HW289568   6.908  13.118  13.694
95891SOL     OW89569   5.415   6.531   8.280
95891SOL    HW189570   5.333   6.502   8.319
95891SOL    HW289571   5.392   6.556   8.190
95892SOL     OW89572  13.099  13.934   8.443
95892SOL    HW189573  13.070  13.976   8.524
95892SOL    HW289574  13.023  13.885   8.412
95893SOL     OW89575   9.626   0.019   8.991
95893SOL    HW189576   9.635  14.797   8.976
95893SOL    HW289577   9.548   0.028   9.046
95894SOL     OW89578   1.895   2.586   4.687
95894SOL    HW189579   1.817   2.626   4.726
95894SOL    HW289580   1.895   2.496   4.719
95895SOL     OW89581   8.168   1.912   8.269
95895SOL    HW189582   8.251   1.918   8.221
95895SOL    HW289583   8.162   1.820   8.296
95896SOL     OW89584  14.497   6.562   5.108
95896SOL    HW189585  14.548   6.508   5.169
95896SOL    HW289586  14.509   6.520   5.023
95897SOL     OW89587   6.319   1.212   2.545
95897SOL    HW189588   6.405   1.249   2.524
95897SOL    HW289589   6.264   1.233   2.469
95898SOL     OW89590  11.554  12.965   5.086
95898SOL    HW189591  11.540  12.871   5.090
95898SOL    HW289592  11.644  12.974   5.053
95899SOL     OW89593  12.745  11.448   2.651
95899SOL    HW189594  12.709  11.413   2.569
95899SOL    HW289595  12.731  11.542   2.645
95900SOL     OW89596   9.530   0.032  12.046
95900SOL    HW189597   9.588  14.858  11.985
95900SOL    HW289598   9.465   0.074  11.990
95901SOL     OW89599  13.746   5.036   0.920
95901SOL    HW189600  13.831   4.996   0.939
95901SOL    HW289601  13.683   4.965   0.929
95902SOL     OW89602   7.872   5.111   3.708
95902SOL    HW189603   7.823   5.079   3.784
95902SOL    HW289604   7.963   5.084   3.725
95903SOL     OW89605   5.914   3.673   4.270
95903SOL    HW189606   5.848   3.716   4.323
95903SOL    HW289607   5.897   3.705   4.181
95904SOL     OW89608   8.153   0.788  11.422
95904SOL    HW189609   8.212   0.850  11.381
95904SOL    HW289610   8.209   0.715  11.449
95905SOL     OW89611  12.082  14.347   1.786
95905SOL    HW189612  12.095  14.275   1.848
95905SOL    HW289613  11.989  14.341   1.763
95906SOL     OW89614   0.396  12.296  12.326
95906SOL    HW189615   0.468  12.282  12.266
95906SOL    HW289616   0.419  12.245  12.404
95907SOL     OW89617   8.221   6.343   4.798
95907SOL    HW189618   8.191   6.434   4.803
95907SOL    HW289619   8.244   6.331   4.706
95908SOL     OW89620   8.968  12.865  12.766
95908SOL    HW189621   8.924  12.809  12.701
95908SOL    HW289622   8.914  12.944  12.769
95909SOL     OW89623   6.586   7.344  14.654
95909SOL    HW189624   6.506   7.379  14.695
95909SOL    HW289625   6.642   7.421  14.642
95910SOL     OW89626  13.880  11.055   2.721
95910SOL    HW189627  13.884  11.060   2.817
95910SOL    HW289628  13.936  10.980   2.698
95911SOL     OW89629   5.705   5.006   9.114
95911SOL    HW189630   5.624   5.049   9.144
95911SOL    HW289631   5.775   5.052   9.160
95912SOL     OW89632   1.641   1.803   2.377
95912SOL    HW189633   1.711   1.752   2.338
95912SOL    HW289634   1.682   1.887   2.400
95913SOL     OW89635  11.681   2.410  10.120
95913SOL    HW189636  11.720   2.381  10.202
95913SOL    HW289637  11.682   2.506  10.125
95914SOL     OW89638   0.923   1.354   2.829
95914SOL    HW189639   1.007   1.329   2.789
95914SOL    HW289640   0.917   1.297   2.906
95915SOL     OW89641  11.953   3.509   6.663
95915SOL    HW189642  12.013   3.448   6.621
95915SOL    HW289643  11.868   3.490   6.624
95916SOL     OW89644  13.551  10.248  10.211
95916SOL    HW189645  13.487  10.290  10.154
95916SOL    HW289646  13.518  10.159  10.224
95917SOL     OW89647  11.731   4.118   1.304
95917SOL    HW189648  11.718   4.209   1.277
95917SOL    HW289649  11.715   4.119   1.398
95918SOL     OW89650   4.874  10.940   9.226
95918SOL    HW189651   4.883  10.976   9.315
95918SOL    HW289652   4.961  10.948   9.188
95919SOL     OW89653   4.512  10.385  14.003
95919SOL    HW189654   4.563  10.325  13.949
95919SOL    HW289655   4.421  10.370  13.976
95920SOL     OW89656  14.124  13.368   7.273
95920SOL    HW189657  14.164  13.317   7.203
95920SOL    HW289658  14.033  13.379   7.246
95921SOL     OW89659   8.602   9.084  14.621
95921SOL    HW189660   8.680   9.031  14.637
95921SOL    HW289661   8.531   9.037  14.664
95922SOL     OW89662  11.125   2.480  13.284
95922SOL    HW189663  11.058   2.509  13.222
95922SOL    HW289664  11.170   2.409  13.238
95923SOL     OW89665   4.682   3.013   3.254
95923SOL    HW189666   4.633   2.969   3.184
95923SOL    HW289667   4.650   3.103   3.252
95924SOL     OW89668   1.223   0.933  13.864
95924SOL    HW189669   1.152   0.961  13.807
95924SOL    HW289670   1.247   0.846  13.832
95925SOL     OW89671   5.093   3.779   0.345
95925SOL    HW189672   5.154   3.717   0.306
95925SOL    HW289673   5.007   3.753   0.310
95926SOL     OW89674   9.999   2.436  12.365
95926SOL    HW189675   9.941   2.457  12.438
95926SOL    HW289676   9.941   2.411  12.294
95927SOL     OW89677   4.248   6.309  10.091
95927SOL    HW189678   4.290   6.227  10.067
95927SOL    HW289679   4.166   6.309  10.042
95928SOL     OW89680   6.509   2.204   9.706
95928SOL    HW189681   6.422   2.167   9.693
95928SOL    HW289682   6.569   2.141   9.666
95929SOL     OW89683   1.576  13.141   8.280
95929SOL    HW189684   1.625  13.077   8.228
95929SOL    HW289685   1.485  13.117   8.269
95930SOL     OW89686   7.606   4.710   5.857
95930SOL    HW189687   7.522   4.748   5.882
95930SOL    HW289688   7.637   4.666   5.936
95931SOL     OW89689  12.478   1.293   2.459
95931SOL    HW189690  12.461   1.253   2.374
95931SOL    HW289691  12.559   1.252   2.489
95932SOL     OW89692  14.560  12.027   3.828
95932SOL    HW189693  14.467  12.043   3.811
95932SOL    HW289694  14.561  11.946   3.879
95933SOL     OW89695   0.698   2.245  14.306
95933SOL    HW189696   0.789   2.273  14.301
95933SOL    HW289697   0.697   2.178  14.374
95934SOL     OW89698   0.098  13.966   8.888
95934SOL    HW189699   0.169  13.995   8.946
95934SOL    HW289700   0.061  13.889   8.931
95935SOL     OW89701   4.598   6.539   0.255
95935SOL    HW189702   4.579   6.526   0.348
95935SOL    HW289703   4.518   6.510   0.210
95936SOL     OW89704   0.975  13.899  11.218
95936SOL    HW189705   1.019  13.981  11.238
95936SOL    HW289706   0.993  13.843  11.294
95937SOL     OW89707  10.526   5.080   2.126
95937SOL    HW189708  10.448   5.098   2.075
95937SOL    HW289709  10.554   5.166   2.159
95938SOL     OW89710   1.912   8.292   6.198
95938SOL    HW189711   1.931   8.236   6.274
95938SOL    HW289712   1.976   8.267   6.132
95939SOL     OW89713  14.518  14.258   5.797
95939SOL    HW189714  14.435  14.225   5.832
95939SOL    HW289715  14.528  14.344   5.838
95940SOL     OW89716   2.711   2.413   3.531
95940SOL    HW189717   2.626   2.453   3.513
95940SOL    HW289718   2.713   2.334   3.478
95941SOL     OW89719   1.084   6.411   6.711
95941SOL    HW189720   1.063   6.369   6.795
95941SOL    HW289721   1.053   6.349   6.645
95942SOL     OW89722  14.667  13.243   5.631
95942SOL    HW189723  14.740  13.293   5.668
95942SOL    HW289724  14.708  13.183   5.569
95943SOL     OW89725  12.760  13.921   7.818
95943SOL    HW189726  12.772  13.875   7.735
95943SOL    HW289727  12.762  14.013   7.795
95944SOL     OW89728   7.705   6.497  14.857
95944SOL    HW189729   7.684   6.427  14.796
95944SOL    HW289730   7.651   6.571  14.828
95945SOL     OW89731   1.242   1.950  12.835
95945SOL    HW189732   1.160   1.998  12.848
95945SOL    HW289733   1.214   1.859  12.823
95946SOL     OW89734  10.564  12.857   3.392
95946SOL    HW189735  10.528  12.944   3.412
95946SOL    HW289736  10.487  12.803   3.376
95947SOL     OW89737  12.407   0.419  10.724
95947SOL    HW189738  12.404   0.445  10.632
95947SOL    HW289739  12.344   0.347  10.731
95948SOL     OW89740   1.975   2.208   4.549
95948SOL    HW189741   1.986   2.251   4.634
95948SOL    HW289742   1.974   2.280   4.485
95949SOL     OW89743   3.347  14.585   3.135
95949SOL    HW189744   3.384  14.509   3.090
95949SOL    HW289745   3.324  14.646   3.065
95950SOL     OW89746   6.404  10.728   5.651
95950SOL    HW189747   6.431  10.713   5.560
95950SOL    HW289748   6.325  10.781   5.644
95951SOL     OW89749   4.219   4.438   0.494
95951SOL    HW189750   4.211   4.422   0.400
95951SOL    HW289751   4.130   4.430   0.528
95952SOL     OW89752   4.532   6.612  14.548
95952SOL    HW189753   4.543   6.545  14.481
95952SOL    HW289754   4.528   6.563  14.630
95953SOL     OW89755  13.269   7.108   7.904
95953SOL    HW189756  13.323   7.122   7.982
95953SOL    HW289757  13.230   7.022   7.918
95954SOL     OW89758   5.670  13.162  11.314
95954SOL    HW189759   5.654  13.242  11.364
95954SOL    HW289760   5.591  13.109  11.326
95955SOL     OW89761  11.484  13.557   5.878
95955SOL    HW189762  11.398  13.516   5.868
95955SOL    HW289763  11.536  13.492   5.925
95956SOL     OW89764   8.319  12.791  12.319
95956SOL    HW189765   8.288  12.709  12.358
95956SOL    HW289766   8.322  12.853  12.392
95957SOL     OW89767   5.904   2.052   2.740
95957SOL    HW189768   5.893   2.125   2.679
95957SOL    HW289769   5.888   1.974   2.688
95958SOL     OW89770   5.624  10.316   1.614
95958SOL    HW189771   5.543  10.337   1.569
95958SOL    HW289772   5.673  10.399   1.615
95959SOL     OW89773   7.070  12.131  10.792
95959SOL    HW189774   7.081  12.056  10.851
95959SOL    HW289775   7.129  12.198  10.826
95960SOL     OW89776   1.990   8.129   8.874
95960SOL    HW189777   2.045   8.062   8.915
95960SOL    HW289778   2.046   8.205   8.867
95961SOL     OW89779   9.801   1.641   5.036
95961SOL    HW189780   9.768   1.603   5.117
95961SOL    HW289781   9.724   1.647   4.979
95962SOL     OW89782   4.711   6.248  11.155
95962SOL    HW189783   4.649   6.266  11.084
95962SOL    HW289784   4.731   6.334  11.192
95963SOL     OW89785   9.484  10.015  11.523
95963SOL    HW189786   9.542   9.943  11.548
95963SOL    HW289787   9.467  10.062  11.605
95964SOL     OW89788   9.222  12.006   2.585
95964SOL    HW189789   9.155  11.981   2.521
95964SOL    HW289790   9.257  11.923   2.617
95965SOL     OW89791   4.401   3.164   7.453
95965SOL    HW189792   4.409   3.208   7.368
95965SOL    HW289793   4.308   3.145   7.462
95966SOL     OW89794   1.337   7.620   7.797
95966SOL    HW189795   1.303   7.534   7.822
95966SOL    HW289796   1.265   7.680   7.814
95967SOL     OW89797   9.442   4.529   6.347
95967SOL    HW189798   9.381   4.561   6.281
95967SOL    HW289799   9.528   4.539   6.307
95968SOL     OW89800   2.172   1.982   6.250
95968SOL    HW189801   2.202   1.917   6.187
95968SOL    HW289802   2.249   2.001   6.303
95969SOL     OW89803  10.190   1.720   5.502
95969SOL    HW189804  10.121   1.691   5.562
95969SOL    HW289805  10.254   1.763   5.559
95970SOL     OW89806   8.624  11.256  11.006
95970SOL    HW189807   8.603  11.272  10.914
95970SOL    HW289808   8.580  11.173  11.027
95971SOL     OW89809  11.727  10.295   4.623
95971SOL    HW189810  11.730  10.237   4.548
95971SOL    HW289811  11.744  10.238   4.698
95972SOL     OW89812   1.309   3.922  14.207
95972SOL    HW189813   1.393   3.962  14.187
95972SOL    HW289814   1.323   3.874  14.289
95973SOL     OW89815   3.100   8.644   5.313
95973SOL    HW189816   3.154   8.609   5.242
95973SOL    HW289817   3.143   8.615   5.393
95974SOL     OW89818  11.229  12.944   8.746
95974SOL    HW189819  11.165  12.908   8.807
95974SOL    HW289820  11.184  13.018   8.704
95975SOL     OW89821  13.539   2.177   1.615
95975SOL    HW189822  13.596   2.100   1.611
95975SOL    HW289823  13.458   2.145   1.653
95976SOL     OW89824   8.426   0.257  13.900
95976SOL    HW189825   8.415   0.351  13.912
95976SOL    HW289826   8.425   0.245  13.805
95977SOL     OW89827   2.573   8.904  10.430
95977SOL    HW189828   2.664   8.919  10.453
95977SOL    HW289829   2.569   8.926  10.336
95978SOL     OW89830   8.087   9.946   1.383
95978SOL    HW189831   8.046   9.863   1.356
95978SOL    HW289832   8.167   9.950   1.331
95979SOL     OW89833   3.008  12.225  11.720
95979SOL    HW189834   2.947  12.296  11.702
95979SOL    HW289835   3.095  12.263  11.705
95980SOL     OW89836  12.531   2.581  12.880
95980SOL    HW189837  12.601   2.645  12.891
95980SOL    HW289838  12.534   2.528  12.960
95981SOL     OW89839  10.671   1.875  14.217
95981SOL    HW189840  10.705   1.947  14.270
95981SOL    HW289841  10.631   1.816  14.280
95982SOL     OW89842  10.882   9.184   9.087
95982SOL    HW189843  10.974   9.160   9.095
95982SOL    HW289844  10.883   9.279   9.074
95983SOL     OW89845  12.646   1.159   1.574
95983SOL    HW189846  12.660   1.070   1.608
95983SOL    HW289847  12.637   1.213   1.652
95984SOL     OW89848  13.277  13.906   8.931
95984SOL    HW189849  13.239  13.838   8.876
95984SOL    HW289850  13.358  13.866   8.965
95985SOL     OW89851  13.964   3.047   4.957
95985SOL    HW189852  13.887   3.099   4.983
95985SOL    HW289853  13.979   2.988   5.031
95986SOL     OW89854   0.558   8.976  11.149
95986SOL    HW189855   0.539   8.887  11.119
95986SOL    HW289856   0.639   8.999  11.103
95987SOL     OW89857   7.709   0.408   1.043
95987SOL    HW189858   7.764   0.378   0.970
95987SOL    HW289859   7.687   0.329   1.092
95988SOL     OW89860  11.922  11.836   0.709
95988SOL    HW189861  11.850  11.825   0.646
95988SOL    HW289862  11.976  11.906   0.671
95989SOL     OW89863   9.496   3.713   4.855
95989SOL    HW189864   9.435   3.683   4.923
95989SOL    HW289865   9.564   3.760   4.904
95990SOL     OW89866  11.457  13.924   0.605
95990SOL    HW189867  11.412  13.941   0.688
95990SOL    HW289868  11.435  13.833   0.584
95991SOL     OW89869  14.743   2.475   2.955
95991SOL    HW189870  14.823   2.464   3.007
95991SOL    HW289871  14.737   2.396   2.903
95992SOL     OW89872   3.867   2.997   3.431
95992SOL    HW189873   3.837   3.076   3.476
95992SOL    HW289874   3.854   2.927   3.496
95993SOL     OW89875   9.994  14.141   4.364
95993SOL    HW189876   9.975  14.075   4.297
95993SOL    HW289877  10.058  14.199   4.322
95994SOL     OW89878   8.364  14.747  14.654
95994SOL    HW189879   8.311  14.693  14.712
95994SOL    HW289880   8.417  14.685  14.604
95995SOL     OW89881   4.865  10.422   2.140
95995SOL    HW189882   4.859  10.391   2.230
95995SOL    HW289883   4.778  10.406   2.103
95996SOL     OW89884   2.785   6.934   8.406
95996SOL    HW189885   2.861   6.953   8.350
95996SOL    HW289886   2.823   6.903   8.488
95997SOL     OW89887   7.306  13.900   4.053
95997SOL    HW189888   7.348  13.985   4.064
95997SOL    HW289889   7.215  13.921   4.033
95998SOL     OW89890   1.353   9.390  11.234
95998SOL    HW189891   1.383   9.473  11.271
95998SOL    HW289892   1.366   9.326  11.304
95999SOL     OW89893  12.805  11.891   2.766
95999SOL    HW189894  12.770  11.902   2.854
95999SOL    HW289895  12.770  11.965   2.716
96000SOL     OW89896   9.630   4.404   4.042
96000SOL    HW189897   9.569   4.415   3.969
96000SOL    HW289898   9.601   4.324   4.086
96001SOL     OW89899   2.388  12.701   9.648
96001SOL    HW189900   2.414  12.700   9.740
96001SOL    HW289901   2.369  12.610   9.627
96002SOL     OW89902   4.409   5.459   5.522
96002SOL    HW189903   4.353   5.534   5.501
96002SOL    HW289904   4.461   5.446   5.442
96003SOL     OW89905   9.889   8.288  13.117
96003SOL    HW189906   9.856   8.247  13.037
96003SOL    HW289907   9.811   8.323  13.161
96004SOL     OW89908  11.091  12.638  14.849
96004SOL    HW189909  11.147  12.708  14.814
96004SOL    HW289910  11.077  12.662   0.069
96005SOL     OW89911   9.255  10.545   4.339
96005SOL    HW189912   9.184  10.602   4.368
96005SOL    HW289913   9.264  10.481   4.409
96006SOL     OW89914  14.263   3.608   9.445
96006SOL    HW189915  14.319   3.546   9.399
96006SOL    HW289916  14.185   3.615   9.391
96007SOL     OW89917  12.849  11.566   6.448
96007SOL    HW189918  12.875  11.625   6.377
96007SOL    HW289919  12.850  11.479   6.408
96008SOL     OW89920   5.898   5.280   5.774
96008SOL    HW189921   5.860   5.357   5.816
96008SOL    HW289922   5.902   5.302   5.681
96009SOL     OW89923  11.863   7.201   4.043
96009SOL    HW189924  11.866   7.193   4.138
96009SOL    HW289925  11.831   7.290   4.027
96010SOL     OW89926   4.562  13.853   2.150
96010SOL    HW189927   4.489  13.868   2.209
96010SOL    HW289928   4.604  13.939   2.141
96011SOL     OW89929   9.544   3.359  10.168
96011SOL    HW189930   9.497   3.439  10.144
96011SOL    HW289931   9.544   3.359  10.263
96012SOL     OW89932   6.492   7.653  12.807
96012SOL    HW189933   6.425   7.691  12.750
96012SOL    HW289934   6.562   7.717  12.808
96013SOL     OW89935  11.690   5.064   8.003
96013SOL    HW189936  11.703   5.055   8.097
96013SOL    HW289937  11.599   5.094   7.994
96014SOL     OW89938   3.944  11.226   7.879
96014SOL    HW189939   3.915  11.313   7.853
96014SOL    HW289940   4.035  11.237   7.906
96015SOL     OW89941  14.745  12.851   0.173
96015SOL    HW189942  14.729  12.913   0.243
96015SOL    HW289943  14.662  12.805   0.162
96016SOL     OW89944   2.831   1.319  13.877
96016SOL    HW189945   2.892   1.268  13.929
96016SOL    HW289946   2.866   1.314  13.788
96017SOL     OW89947  11.152  13.767   3.242
96017SOL    HW189948  11.179  13.790   3.153
96017SOL    HW289949  11.075  13.711   3.230
96018SOL     OW89950   3.325   9.731  12.138
96018SOL    HW189951   3.252   9.723  12.076
96018SOL    HW289952   3.290   9.782  12.211
96019SOL     OW89953   9.407   9.879   5.011
96019SOL    HW189954   9.475   9.812   5.007
96019SOL    HW289955   9.364   9.864   5.095
96020SOL     OW89956  11.522  11.705   0.368
96020SOL    HW189957  11.495  11.762   0.295
96020SOL    HW289958  11.441  11.660   0.394
96021SOL     OW89959  13.195   8.364   1.560
96021SOL    HW189960  13.291   8.362   1.554
96021SOL    HW289961  13.175   8.449   1.600
96022SOL     OW89962   0.816  10.997   5.893
96022SOL    HW189963   0.747  11.064   5.895
96022SOL    HW289964   0.832  10.978   5.986
96023SOL     OW89965  11.809   1.727   1.371
96023SOL    HW189966  11.865   1.669   1.319
96023SOL    HW289967  11.743   1.669   1.409
96024SOL     OW89968   0.322  12.190  12.009
96024SOL    HW189969   0.355  12.252  12.074
96024SOL    HW289970   0.324  12.106  12.054
96025SOL     OW89971   4.573   9.382   7.172
96025SOL    HW189972   4.646   9.342   7.124
96025SOL    HW289973   4.607   9.393   7.261
96026SOL     OW89974  13.961   6.338   0.989
96026SOL    HW189975  13.989   6.264   0.935
96026SOL    HW289976  13.909   6.298   1.059
96027SOL     OW89977   7.145  10.926   2.119
96027SOL    HW189978   7.125  10.970   2.036
96027SOL    HW289979   7.096  10.844   2.115
96028SOL     OW89980   6.499   0.720  10.344
96028SOL    HW189981   6.496   0.692  10.436
96028SOL    HW289982   6.590   0.747  10.330
96029SOL     OW89983   7.051  14.664  10.958
96029SOL    HW189984   7.059  14.658  11.053
96029SOL    HW289985   7.047  14.573  10.929
96030SOL     OW89986   6.085  14.165  14.004
96030SOL    HW189987   6.031  14.228  14.052
96030SOL    HW289988   6.058  14.176  13.912
96031SOL     OW89989   6.262  14.068   9.292
96031SOL    HW189990   6.177  14.027   9.275
96031SOL    HW289991   6.257  14.152   9.246
96032SOL     OW89992  10.517   0.371  13.536
96032SOL    HW189993  10.545   0.392  13.625
96032SOL    HW289994  10.538   0.278  13.525
96033SOL     OW89995   4.697   0.189  11.760
96033SOL    HW189996   4.698   0.280  11.792
96033SOL    HW289997   4.744   0.192  11.677
96034SOL     OW89998  14.194   2.607   4.416
96034SOL    HW189999  14.105   2.580   4.438
96034SOL    HW290000  14.238   2.527   4.388
96035SOL     OW90001   9.874   2.417  11.446
96035SOL    HW190002   9.815   2.487  11.474
96035SOL    HW290003   9.815   2.344  11.423
96036SOL     OW90004   3.230  12.281   0.376
96036SOL    HW190005   3.217  12.312   0.466
96036SOL    HW290006   3.305  12.331   0.344
96037SOL     OW90007   8.472   5.783   2.142
96037SOL    HW190008   8.452   5.722   2.071
96037SOL    HW290009   8.394   5.780   2.199
96038SOL     OW90010   5.415  11.324   7.937
96038SOL    HW190011   5.377  11.363   7.859
96038SOL    HW290012   5.421  11.230   7.917
96039SOL     OW90013   8.525   6.334  13.328
96039SOL    HW190014   8.445   6.290  13.300
96039SOL    HW290015   8.519   6.421  13.289
96040SOL     OW90016   6.841   6.027  12.652
96040SOL    HW190017   6.852   5.969  12.727
96040SOL    HW290018   6.890   5.985  12.581
96041SOL     OW90019  13.427  10.949   4.467
96041SOL    HW190020  13.366  11.018   4.442
96041SOL    HW290021  13.512  10.979   4.435
96042SOL     OW90022   2.925  11.297  12.029
96042SOL    HW190023   2.917  11.217  11.977
96042SOL    HW290024   3.020  11.310  12.039
96043SOL     OW90025  10.711   6.560   3.725
96043SOL    HW190026  10.688   6.593   3.638
96043SOL    HW290027  10.700   6.465   3.718
96044SOL     OW90028   3.111   8.100   2.281
96044SOL    HW190029   3.074   8.012   2.277
96044SOL    HW290030   3.060   8.150   2.218
96045SOL     OW90031   1.492   9.475   5.760
96045SOL    HW190032   1.571   9.530   5.762
96045SOL    HW290033   1.477   9.458   5.667
96046SOL     OW90034   3.411   6.033   0.468
96046SOL    HW190035   3.392   6.097   0.536
96046SOL    HW290036   3.504   6.012   0.480
96047SOL     OW90037   4.998   6.760  11.905
96047SOL    HW190038   5.042   6.752  11.990
96047SOL    HW290039   4.923   6.816  11.922
96048SOL     OW90040  13.455   9.096   6.582
96048SOL    HW190041  13.500   9.156   6.641
96048SOL    HW290042  13.524   9.035   6.554
96049SOL     OW90043   6.523  13.338  12.641
96049SOL    HW190044   6.448  13.326  12.700
96049SOL    HW290045   6.597  13.351  12.699
96050SOL     OW90046  14.214   7.847  10.916
96050SOL    HW190047  14.234   7.940  10.910
96050SOL    HW290048  14.163   7.828  10.837
96051SOL     OW90049  13.872   4.008   0.546
96051SOL    HW190050  13.907   3.973   0.628
96051SOL    HW290051  13.866   3.931   0.488
96052SOL     OW90052  12.142  14.722   3.643
96052SOL    HW190053  12.161  14.634   3.610
96052SOL    HW290054  12.066  14.711   3.700
96053SOL     OW90055   6.370   2.938   7.522
96053SOL    HW190056   6.317   3.002   7.474
96053SOL    HW290057   6.417   2.890   7.454
96054SOL     OW90058  10.853   6.824  10.198
96054SOL    HW190059  10.820   6.785  10.279
96054SOL    HW290060  10.810   6.909  10.192
96055SOL     OW90061   3.917   9.888  11.347
96055SOL    HW190062   3.999   9.888  11.298
96055SOL    HW290063   3.917   9.805  11.394
96056SOL     OW90064  12.850  14.108  14.719
96056SOL    HW190065  12.795  14.185  14.733
96056SOL    HW290066  12.809  14.040  14.773
96057SOL     OW90067  14.810  14.293  10.163
96057SOL    HW190068  14.840  14.208  10.129
96057SOL    HW290069  14.798  14.347  10.085
96058SOL     OW90070   3.635  12.917   8.168
96058SOL    HW190071   3.712  12.958   8.207
96058SOL    HW290072   3.575  12.904   8.242
96059SOL     OW90073   1.572   9.211  11.760
96059SOL    HW190074   1.566   9.118  11.740
96059SOL    HW290075   1.504   9.226  11.825
96060SOL     OW90076   7.691   8.087   4.978
96060SOL    HW190077   7.702   8.080   5.073
96060SOL    HW290078   7.770   8.131   4.948
96061SOL     OW90079   3.033  13.019   6.038
96061SOL    HW190080   3.080  13.045   5.959
96061SOL    HW290081   2.941  13.029   6.015
96062SOL     OW90082   7.355   1.346   9.040
96062SOL    HW190083   7.386   1.352   9.130
96062SOL    HW290084   7.346   1.437   9.011
96063SOL     OW90085  13.531   7.744  13.307
96063SOL    HW190086  13.462   7.721  13.245
96063SOL    HW290087  13.556   7.660  13.347
96064SOL     OW90088  11.033  14.799  10.287
96064SOL    HW190089  11.032  14.737  10.360
96064SOL    HW290090  11.125  14.820  10.274
96065SOL     OW90091  14.692   2.682   5.055
96065SOL    HW190092  14.634   2.637   5.116
96065SOL    HW290093  14.663   2.773   5.057
96066SOL     OW90094   3.137   3.509  14.424
96066SOL    HW190095   3.118   3.417  14.442
96066SOL    HW290096   3.062   3.540  14.373
96067SOL     OW90097  14.858  10.751  10.743
96067SOL    HW190098  14.856  10.693  10.667
96067SOL    HW290099  14.773  10.737  10.785
96068SOL     OW90100  13.122  12.586   8.692
96068SOL    HW190101  13.206  12.540   8.689
96068SOL    HW290102  13.069  12.544   8.624
96069SOL     OW90103  13.360  11.762  10.900
96069SOL    HW190104  13.293  11.828  10.885
96069SOL    HW290105  13.424  11.776  10.831
96070SOL     OW90106  12.274   4.266   1.302
96070SOL    HW190107  12.287   4.291   1.393
96070SOL    HW290108  12.209   4.328   1.269
96071SOL     OW90109  13.349  10.466   5.738
96071SOL    HW190110  13.375  10.536   5.678
96071SOL    HW290111  13.423  10.406   5.739
96072SOL     OW90112   9.292   2.330   7.921
96072SOL    HW190113   9.208   2.332   7.875
96072SOL    HW290114   9.324   2.241   7.907
96073SOL     OW90115   2.266  11.032  10.754
96073SOL    HW190116   2.318  11.108  10.778
96073SOL    HW290117   2.318  10.957  10.781
96074SOL     OW90118   4.474   0.384   4.394
96074SOL    HW190119   4.397   0.433   4.424
96074SOL    HW290120   4.509   0.343   4.474
96075SOL     OW90121   2.842  10.694   3.405
96075SOL    HW190122   2.802  10.609   3.420
96075SOL    HW290123   2.912  10.700   3.470
96076SOL     OW90124   2.776   2.008   6.594
96076SOL    HW190125   2.825   1.993   6.513
96076SOL    HW290126   2.684   2.005   6.568
96077SOL     OW90127   1.658  13.950   6.291
96077SOL    HW190128   1.652  13.965   6.385
96077SOL    HW290129   1.698  13.864   6.283
96078SOL     OW90130   8.012   4.270  10.282
96078SOL    HW190131   8.071   4.318  10.340
96078SOL    HW290132   8.043   4.291  10.194
96079SOL     OW90133  10.707   5.789   3.979
96079SOL    HW190134  10.619   5.793   3.941
96079SOL    HW290135  10.764   5.827   3.911
96080SOL     OW90136   0.895  11.867  13.038
96080SOL    HW190137   0.880  11.836  13.128
96080SOL    HW290138   0.871  11.793  12.983
96081SOL     OW90139  12.867   0.660  10.038
96081SOL    HW190140  12.816   0.590   9.997
96081SOL    HW290141  12.911   0.617  10.112
96082SOL     OW90142   3.533  12.017   9.740
96082SOL    HW190143   3.455  12.060   9.706
96082SOL    HW290144   3.600  12.085   9.739
96083SOL     OW90145   8.733   6.681   0.746
96083SOL    HW190146   8.649   6.716   0.774
96083SOL    HW290147   8.770   6.641   0.825
96084SOL     OW90148   1.816   5.313  10.642
96084SOL    HW190149   1.835   5.406  10.631
96084SOL    HW290150   1.743   5.296  10.583
96085SOL     OW90151  10.028   3.132   4.818
96085SOL    HW190152  10.009   3.078   4.894
96085SOL    HW290153  10.049   3.069   4.749
96086SOL     OW90154  14.221  10.346   6.772
96086SOL    HW190155  14.178  10.261   6.763
96086SOL    HW290156  14.166  10.395   6.832
96087SOL     OW90157   8.625   9.799  10.379
96087SOL    HW190158   8.712   9.764  10.399
96087SOL    HW290159   8.639   9.856  10.303
96088SOL     OW90160   8.043   0.525  10.803
96088SOL    HW190161   8.034   0.620  10.788
96088SOL    HW290162   8.121   0.501  10.753
96089SOL     OW90163   2.573   0.356   6.646
96089SOL    HW190164   2.482   0.326   6.638
96089SOL    HW290165   2.567   0.451   6.636
96090SOL     OW90166   7.626  13.031  14.236
96090SOL    HW190167   7.562  13.023  14.165
96090SOL    HW290168   7.579  13.003  14.314
96091SOL     OW90169  10.733  14.150   6.918
96091SOL    HW190170  10.739  14.228   6.973
96091SOL    HW290171  10.759  14.180   6.831
96092SOL     OW90172   1.239  10.802   8.194
96092SOL    HW190173   1.286  10.777   8.115
96092SOL    HW290174   1.302  10.788   8.265
96093SOL     OW90175  10.137   5.541  13.390
96093SOL    HW190176  10.223   5.584  13.389
96093SOL    HW290177  10.147   5.466  13.330
96094SOL     OW90178   5.977   2.071  11.954
96094SOL    HW190179   5.950   2.059  12.045
96094SOL    HW290180   5.895   2.080  11.905
96095SOL     OW90181  14.150   8.684   4.789
96095SOL    HW190182  14.237   8.689   4.751
96095SOL    HW290183  14.142   8.765   4.841
96096SOL     OW90184  12.058  12.351  12.989
96096SOL    HW190185  12.137  12.313  13.028
96096SOL    HW290186  11.987  12.296  13.020
96097SOL     OW90187  11.829   2.177   3.910
96097SOL    HW190188  11.775   2.246   3.870
96097SOL    HW290189  11.799   2.173   4.001
96098SOL     OW90190   2.835   9.718   9.446
96098SOL    HW190191   2.758   9.699   9.392
96098SOL    HW290192   2.854   9.810   9.429
96099SOL     OW90193   3.831  13.304   8.648
96099SOL    HW190194   3.888  13.357   8.704
96099SOL    HW290195   3.890  13.240   8.608
96100SOL     OW90196   6.216  12.368  11.415
96100SOL    HW190197   6.301  12.370  11.458
96100SOL    HW290198   6.231  12.317  11.335
96101SOL     OW90199   8.208   4.552   9.486
96101SOL    HW190200   8.143   4.604   9.534
96101SOL    HW290201   8.194   4.575   9.394
96102SOL     OW90202   0.876  10.547   6.339
96102SOL    HW190203   0.904  10.604   6.410
96102SOL    HW290204   0.943  10.478   6.335
96103SOL     OW90205   1.597   9.711   2.634
96103SOL    HW190206   1.593   9.773   2.707
96103SOL    HW290207   1.510   9.713   2.595
96104SOL     OW90208   2.189   2.029   2.609
96104SOL    HW190209   2.110   2.048   2.659
96104SOL    HW290210   2.159   2.019   2.518
96105SOL     OW90211   7.369   4.914   4.917
96105SOL    HW190212   7.436   4.865   4.964
96105SOL    HW290213   7.399   5.005   4.920
96106SOL     OW90214  14.543   5.083   4.398
96106SOL    HW190215  14.581   5.106   4.483
96106SOL    HW290216  14.612   5.034   4.354
96107SOL     OW90217   0.125   4.091   7.245
96107SOL    HW190218   0.051   4.044   7.207
96107SOL    HW290219   0.200   4.033   7.231
96108SOL     OW90220   4.714  11.566   9.808
96108SOL    HW190221   4.694  11.604   9.894
96108SOL    HW290222   4.785  11.504   9.825
96109SOL     OW90223   3.819  14.663   2.727
96109SOL    HW190224   3.803  14.623   2.641
96109SOL    HW290225   3.739  14.712   2.746
96110SOL     OW90226   8.503  12.536   4.627
96110SOL    HW190227   8.563  12.555   4.700
96110SOL    HW290228   8.477  12.622   4.594
96111SOL     OW90229   8.618   7.888   5.653
96111SOL    HW190230   8.571   7.955   5.703
96111SOL    HW290231   8.557   7.814   5.651
96112SOL     OW90232   2.045  11.039   2.843
96112SOL    HW190233   1.974  10.983   2.874
96112SOL    HW290234   2.003  11.102   2.785
96113SOL     OW90235   4.337   5.830   5.603
96113SOL    HW190236   4.416   5.782   5.627
96113SOL    HW290237   4.290   5.771   5.545
96114SOL     OW90238  14.393  11.350   4.863
96114SOL    HW190239  14.336  11.387   4.795
96114SOL    HW290240  14.472  11.325   4.816
96115SOL     OW90241   1.530   9.631   9.531
96115SOL    HW190242   1.463   9.605   9.594
96115SOL    HW290243   1.610   9.642   9.583
96116SOL     OW90244  13.924   1.367  11.340
96116SOL    HW190245  13.987   1.416  11.286
96116SOL    HW290246  13.870   1.319  11.277
96117SOL     OW90247   8.715  13.384  11.565
96117SOL    HW190248   8.735  13.347  11.651
96117SOL    HW290249   8.682  13.472  11.584
96118SOL     OW90250  10.293   5.847   0.215
96118SOL    HW190251  10.274   5.757   0.186
96118SOL    HW290252  10.304   5.839   0.310
96119SOL     OW90253   5.408   3.719   0.096
96119SOL    HW190254   5.496   3.698   0.128
96119SOL    HW290255   5.383   3.797   0.146
96120SOL     OW90256  11.389  13.041   4.602
96120SOL    HW190257  11.380  12.950   4.631
96120SOL    HW290258  11.343  13.091   4.669
96121SOL     OW90259   3.252   1.103   9.235
96121SOL    HW190260   3.239   1.024   9.182
96121SOL    HW290261   3.341   1.095   9.268
96122SOL     OW90262   6.022   3.456   0.276
96122SOL    HW190263   6.038   3.416   0.362
96122SOL    HW290264   6.054   3.392   0.213
96123SOL     OW90265   4.151   5.912   2.257
96123SOL    HW190266   4.245   5.899   2.266
96123SOL    HW290267   4.131   5.986   2.314
96124SOL     OW90268   5.689   5.249  12.197
96124SOL    HW190269   5.773   5.209  12.173
96124SOL    HW290270   5.654   5.191  12.264
96125SOL     OW90271   8.856   6.229   7.815
96125SOL    HW190272   8.830   6.177   7.891
96125SOL    HW290273   8.798   6.306   7.818
96126SOL     OW90274   9.786   8.778   9.501
96126SOL    HW190275   9.768   8.811   9.589
96126SOL    HW290276   9.856   8.834   9.468
96127SOL     OW90277   3.836  14.736   7.949
96127SOL    HW190278   3.781  14.781   8.013
96127SOL    HW290279   3.786  14.657   7.927
96128SOL     OW90280   6.196   5.853   2.033
96128SOL    HW190281   6.240   5.938   2.033
96128SOL    HW290282   6.112   5.869   1.990
96129SOL     OW90283   5.914   1.920   5.653
96129SOL    HW190284   5.863   1.880   5.723
96129SOL    HW290285   5.990   1.959   5.697
96130SOL     OW90286   9.198  13.169   8.189
96130SOL    HW190287   9.111  13.207   8.199
96130SOL    HW290288   9.224  13.190   8.099
96131SOL     OW90289   9.988   7.255   3.966
96131SOL    HW190290   9.918   7.292   3.912
96131SOL    HW290291  10.050   7.327   3.977
96132SOL     OW90292  12.127   2.510  14.566
96132SOL    HW190293  12.222   2.505  14.552
96132SOL    HW290294  12.090   2.496  14.478
96133SOL     OW90295  13.336   7.964   9.838
96133SOL    HW190296  13.432   7.964   9.836
96133SOL    HW290297  13.310   7.900   9.771
96134SOL     OW90298  12.171   8.452   7.797
96134SOL    HW190299  12.205   8.540   7.814
96134SOL    HW290300  12.109   8.464   7.725
96135SOL     OW90301   3.277   5.341  10.496
96135SOL    HW190302   3.342   5.356  10.565
96135SOL    HW290303   3.207   5.293  10.539
96136SOL     OW90304   9.418   8.026   3.864
96136SOL    HW190305   9.358   8.099   3.875
96136SOL    HW290306   9.364   7.955   3.830
96137SOL     OW90307   5.542   3.195  11.260
96137SOL    HW190308   5.518   3.287  11.262
96137SOL    HW290309   5.461   3.148  11.281
96138SOL     OW90310   9.079  14.454   1.157
96138SOL    HW190311   9.028  14.487   1.083
96138SOL    HW290312   9.030  14.379   1.189
96139SOL     OW90313   3.336   9.370  12.277
96139SOL    HW190314   3.400   9.424  12.324
96139SOL    HW290315   3.347   9.282  12.313
96140SOL     OW90316   2.802   0.705   6.753
96140SOL    HW190317   2.767   0.759   6.682
96140SOL    HW290318   2.818   0.767   6.825
96141SOL     OW90319  11.791  14.463  12.460
96141SOL    HW190320  11.852  14.502  12.522
96141SOL    HW290321  11.843  14.401  12.411
96142SOL     OW90322   6.929   8.054  14.717
96142SOL    HW190323   6.876   8.001  14.659
96142SOL    HW290324   6.940   8.137  14.670
96143SOL     OW90325   5.987  13.554  14.253
96143SOL    HW190326   5.978  13.537  14.347
96143SOL    HW290327   6.016  13.471  14.216
96144SOL     OW90328  10.645   9.495   3.786
96144SOL    HW190329  10.726   9.497   3.837
96144SOL    HW290330  10.667   9.539   3.703
96145SOL     OW90331   6.865   1.657  12.247
96145SOL    HW190332   6.943   1.602  12.245
96145SOL    HW290333   6.847   1.670  12.341
96146SOL     OW90334  13.753  14.635   0.906
96146SOL    HW190335  13.816  14.610   0.974
96146SOL    HW290336  13.729  14.725   0.927
96147SOL     OW90337   7.988  13.428   6.247
96147SOL    HW190338   8.076  13.466   6.239
96147SOL    HW290339   7.979  13.373   6.169
96148SOL     OW90340   2.247  11.405   5.105
96148SOL    HW190341   2.317  11.471   5.108
96148SOL    HW290342   2.171  11.449   5.142
96149SOL     OW90343  12.908  12.987   2.937
96149SOL    HW190344  12.980  12.929   2.910
96149SOL    HW290345  12.951  13.067   2.966
96150SOL     OW90346   7.691   2.693   5.345
96150SOL    HW190347   7.631   2.640   5.292
96150SOL    HW290348   7.725   2.759   5.284
96151SOL     OW90349  13.417   0.780   5.891
96151SOL    HW190350  13.335   0.817   5.923
96151SOL    HW290351  13.485   0.828   5.939
96152SOL     OW90352   4.680   0.536   9.359
96152SOL    HW190353   4.723   0.616   9.332
96152SOL    HW290354   4.669   0.486   9.278
96153SOL     OW90355   7.104   5.127   5.252
96153SOL    HW190356   7.174   5.167   5.303
96153SOL    HW290357   7.050   5.082   5.317
96154SOL     OW90358   4.384   3.656   0.194
96154SOL    HW190359   4.449   3.595   0.229
96154SOL    HW290360   4.432   3.737   0.179
96155SOL     OW90361   9.543  12.888   2.932
96155SOL    HW190362   9.516  12.842   3.012
96155SOL    HW290363   9.633  12.915   2.948
96156SOL     OW90364   2.465   4.070   4.649
96156SOL    HW190365   2.384   4.073   4.699
96156SOL    HW290366   2.530   4.111   4.706
96157SOL     OW90367  11.326   0.602  12.798
96157SOL    HW190368  11.272   0.638  12.728
96157SOL    HW290369  11.371   0.678  12.835
96158SOL     OW90370   4.554  10.563   1.692
96158SOL    HW190371   4.590  10.492   1.745
96158SOL    HW290372   4.472  10.587   1.737
96159SOL     OW90373   0.515   2.285  12.410
96159SOL    HW190374   0.545   2.314  12.496
96159SOL    HW290375   0.537   2.192  12.407
96160SOL     OW90376   5.816   9.598   3.351
96160SOL    HW190377   5.822   9.509   3.385
96160SOL    HW290378   5.875   9.649   3.407
96161SOL     OW90379   5.536  13.220   8.406
96161SOL    HW190380   5.514  13.245   8.316
96161SOL    HW290381   5.555  13.127   8.401
96162SOL     OW90382   5.086  14.595   5.666
96162SOL    HW190383   5.134  14.530   5.615
96162SOL    HW290384   5.150  14.626   5.730
96163SOL     OW90385  14.843  14.451  11.562
96163SOL    HW190386  14.803  14.405  11.489
96163SOL    HW290387   0.026  14.386  11.605
96164SOL     OW90388   7.709  12.334   8.799
96164SOL    HW190389   7.704  12.277   8.875
96164SOL    HW290390   7.733  12.420   8.835
96165SOL     OW90391   3.820   2.803   8.981
96165SOL    HW190392   3.770   2.834   9.057
96165SOL    HW290393   3.845   2.884   8.935
96166SOL     OW90394   4.509  11.489  12.748
96166SOL    HW190395   4.418  11.493  12.719
96166SOL    HW290396   4.516  11.558  12.813
96167SOL     OW90397  13.763   6.676  13.828
96167SOL    HW190398  13.697   6.744  13.843
96167SOL    HW290399  13.752   6.615  13.901
96168SOL     OW90400   3.054   0.419   0.542
96168SOL    HW190401   3.112   0.407   0.618
96168SOL    HW290402   2.991   0.348   0.548
96169SOL     OW90403   7.896   7.393   7.470
96169SOL    HW190404   7.945   7.355   7.543
96169SOL    HW290405   7.963   7.412   7.404
96170SOL     OW90406  13.533   2.094   9.244
96170SOL    HW190407  13.461   2.035   9.268
96170SOL    HW290408  13.518   2.173   9.296
96171SOL     OW90409   3.523   4.020   7.336
96171SOL    HW190410   3.561   4.066   7.261
96171SOL    HW290411   3.437   4.059   7.347
96172SOL     OW90412   8.379   1.636   4.963
96172SOL    HW190413   8.438   1.684   4.904
96172SOL    HW290414   8.313   1.597   4.905
96173SOL     OW90415   0.432   3.433   9.724
96173SOL    HW190416   0.487   3.438   9.646
96173SOL    HW290417   0.471   3.364   9.777
96174SOL     OW90418   8.193   1.235   0.809
96174SOL    HW190419   8.199   1.229   0.905
96174SOL    HW290420   8.209   1.145   0.779
96175SOL     OW90421   2.512   2.992   7.336
96175SOL    HW190422   2.462   2.981   7.416
96175SOL    HW290423   2.544   3.082   7.340
96176SOL     OW90424  14.388  14.137  12.779
96176SOL    HW190425  14.468  14.121  12.728
96176SOL    HW290426  14.392  14.072  12.850
96177SOL     OW90427   6.197  13.182   4.541
96177SOL    HW190428   6.106  13.208   4.555
96177SOL    HW290429   6.247  13.238   4.600
96178SOL     OW90430   7.396  11.006   1.888
96178SOL    HW190431   7.326  11.036   1.946
96178SOL    HW290432   7.427  11.086   1.846
96179SOL     OW90433   5.151  10.473   9.631
96179SOL    HW190434   5.056  10.468   9.638
96179SOL    HW290435   5.178  10.384   9.608
96180SOL     OW90436   3.671   1.025  14.284
96180SOL    HW190437   3.679   0.930  14.295
96180SOL    HW290438   3.744   1.061  14.333
96181SOL     OW90439  14.723   5.445  10.104
96181SOL    HW190440  14.793   5.385  10.127
96181SOL    HW290441  14.721   5.443  10.008
96182SOL     OW90442   0.111   5.910   6.613
96182SOL    HW190443   0.198   5.949   6.617
96182SOL    HW290444   0.111   5.844   6.682
96183SOL     OW90445   4.637   6.987  13.222
96183SOL    HW190446   4.722   7.013  13.187
96183SOL    HW290447   4.640   6.891  13.225
96184SOL     OW90448   0.928  13.977  10.079
96184SOL    HW190449   0.917  13.885  10.104
96184SOL    HW290450   0.851  14.021  10.115
96185SOL     OW90451   5.691   3.387  12.690
96185SOL    HW190452   5.768   3.436  12.719
96185SOL    HW290453   5.620   3.452  12.691
96186SOL     OW90454   0.532   8.371  14.545
96186SOL    HW190455   0.484   8.440  14.592
96186SOL    HW290456   0.587   8.331  14.612
96187SOL     OW90457   1.769   4.956   0.724
96187SOL    HW190458   1.776   4.927   0.815
96187SOL    HW290459   1.742   5.048   0.731
96188SOL     OW90460  14.765  11.843   5.235
96188SOL    HW190461  14.847  11.815   5.195
96188SOL    HW290462  14.782  11.933   5.264
96189SOL     OW90463   7.966  11.330   6.349
96189SOL    HW190464   7.938  11.313   6.259
96189SOL    HW290465   8.036  11.267   6.365
96190SOL     OW90466  11.697   3.210   2.503
96190SOL    HW190467  11.691   3.115   2.492
96190SOL    HW290468  11.738   3.222   2.588
96191SOL     OW90469   1.235  10.508   2.824
96191SOL    HW190470   1.170  10.577   2.837
96191SOL    HW290471   1.225  10.451   2.900
96192SOL     OW90472   7.603   6.346  14.159
96192SOL    HW190473   7.555   6.341  14.076
96192SOL    HW290474   7.548   6.298  14.221
96193SOL     OW90475   8.555   4.229   2.944
96193SOL    HW190476   8.614   4.181   2.885
96193SOL    HW290477   8.570   4.321   2.924
96194SOL     OW90478  12.826   1.216   8.943
96194SOL    HW190479  12.872   1.250   9.019
96194SOL    HW290480  12.785   1.135   8.974
96195SOL     OW90481  10.005   3.184  13.673
96195SOL    HW190482  10.001   3.095  13.709
96195SOL    HW290483   9.967   3.240  13.741
96196SOL     OW90484   2.168  13.142   0.486
96196SOL    HW190485   2.095  13.189   0.447
96196SOL    HW290486   2.179  13.064   0.432
96197SOL     OW90487   0.987   9.730   3.369
96197SOL    HW190488   0.990   9.825   3.371
96197SOL    HW290489   0.943   9.705   3.450
96198SOL     OW90490   3.846   2.427   2.603
96198SOL    HW190491   3.814   2.495   2.543
96198SOL    HW290492   3.806   2.449   2.687
96199SOL     OW90493   1.115  12.288  11.838
96199SOL    HW190494   1.169  12.352  11.792
96199SOL    HW290495   1.048  12.262  11.775
96200SOL     OW90496   5.689   2.244   4.390
96200SOL    HW190497   5.756   2.198   4.341
96200SOL    HW290498   5.628   2.176   4.418
96201SOL     OW90499   5.203  10.463   4.154
96201SOL    HW190500   5.144  10.396   4.121
96201SOL    HW290501   5.213  10.442   4.247
96202SOL     OW90502   3.337  12.043   9.239
96202SOL    HW190503   3.269  11.981   9.214
96202SOL    HW290504   3.291  12.110   9.289
96203SOL     OW90505   6.014   8.903  13.784
96203SOL    HW190506   5.973   8.989  13.770
96203SOL    HW290507   6.100   8.924  13.821
96204SOL     OW90508  13.282  12.797  11.298
96204SOL    HW190509  13.360  12.851  11.310
96204SOL    HW290510  13.237  12.801  11.382
96205SOL     OW90511   4.274   9.279   3.943
96205SOL    HW190512   4.256   9.296   3.850
96205SOL    HW290513   4.366   9.300   3.954
96206SOL     OW90514   9.271  11.759   2.939
96206SOL    HW190515   9.348  11.757   2.995
96206SOL    HW290516   9.219  11.833   2.971
96207SOL     OW90517   4.344  10.605   9.514
96207SOL    HW190518   4.303  10.638   9.593
96207SOL    HW290519   4.389  10.525   9.541
96208SOL     OW90520  14.191   4.429   6.352
96208SOL    HW190521  14.155   4.405   6.267
96208SOL    HW290522  14.271   4.478   6.331
96209SOL     OW90523  13.439  13.783  10.660
96209SOL    HW190524  13.424  13.877  10.675
96209SOL    HW290525  13.434  13.773  10.565
96210SOL     OW90526  14.030   6.729   7.475
96210SOL    HW190527  13.976   6.808   7.468
96210SOL    HW290528  13.968   6.657   7.461
96211SOL     OW90529  10.204  14.088  10.467
96211SOL    HW190530  10.164  14.140  10.538
96211SOL    HW290531  10.269  14.147  10.429
96212SOL     OW90532   5.270   2.294   1.686
96212SOL    HW190533   5.243   2.204   1.705
96212SOL    HW290534   5.359   2.285   1.650
96213SOL     OW90535   6.501   5.614  11.076
96213SOL    HW190536   6.527   5.655  11.159
96213SOL    HW290537   6.416   5.654  11.056
96214SOL     OW90538   4.166   8.662  12.041
96214SOL    HW190539   4.075   8.686  12.028
96214SOL    HW290540   4.209   8.742  12.070
96215SOL     OW90541  14.314  10.910   7.156
96215SOL    HW190542  14.247  10.977   7.144
96215SOL    HW290543  14.345  10.922   7.246
96216SOL     OW90544   5.821   5.142   3.016
96216SOL    HW190545   5.792   5.146   3.107
96216SOL    HW290546   5.872   5.222   3.004
96217SOL     OW90547   0.458   5.262   8.053
96217SOL    HW190548   0.541   5.257   8.101
96217SOL    HW290549   0.410   5.184   8.080
96218SOL     OW90550   0.411   0.178  14.595
96218SOL    HW190551   0.486   0.120  14.579
96218SOL    HW290552   0.419   0.201  14.687
96219SOL     OW90553  12.248  13.722  13.477
96219SOL    HW190554  12.291  13.658  13.421
96219SOL    HW290555  12.313  13.793  13.486
96220SOL     OW90556  12.074   0.738  13.414
96220SOL    HW190557  12.143   0.689  13.459
96220SOL    HW290558  12.112   0.759  13.328
96221SOL     OW90559   0.142   1.607   6.842
96221SOL    HW190560   0.196   1.605   6.921
96221SOL    HW290561   0.189   1.665   6.782
96222SOL     OW90562  12.822   7.711   6.637
96222SOL    HW190563  12.818   7.626   6.680
96222SOL    HW290564  12.802   7.774   6.706
96223SOL     OW90565   5.291   7.149  11.463
96223SOL    HW190566   5.204   7.110  11.450
96223SOL    HW290567   5.313   7.187  11.378
96224SOL     OW90568   5.079   1.502  12.616
96224SOL    HW190569   5.130   1.440  12.564
96224SOL    HW290570   5.116   1.496  12.704
96225SOL     OW90571   2.003   6.617  14.841
96225SOL    HW190572   1.949   6.565  14.782
96225SOL    HW290573   1.977   6.707  14.824
96226SOL     OW90574  12.980   6.033   4.711
96226SOL    HW190575  12.959   6.082   4.632
96226SOL    HW290576  12.938   5.948   4.699
96227SOL     OW90577   5.798   4.284  14.581
96227SOL    HW190578   5.869   4.222  14.568
96227SOL    HW290579   5.732   4.234  14.630
96228SOL     OW90580   2.695  13.062   3.368
96228SOL    HW190581   2.768  13.121   3.349
96228SOL    HW290582   2.677  13.075   3.461
96229SOL     OW90583  14.145  11.126   3.520
96229SOL    HW190584  14.150  11.207   3.468
96229SOL    HW290585  14.221  11.076   3.492
96230SOL     OW90586   1.794   6.953  11.440
96230SOL    HW190587   1.827   6.995  11.520
96230SOL    HW290588   1.701   6.939  11.458
96231SOL     OW90589   3.897   7.310   3.145
96231SOL    HW190590   3.832   7.249   3.110
96231SOL    HW290591   3.880   7.312   3.239
96232SOL     OW90592   2.442   1.399   9.129
96232SOL    HW190593   2.437   1.316   9.083
96232SOL    HW290594   2.523   1.440   9.098
96233SOL     OW90595   6.607   8.257   4.650
96233SOL    HW190596   6.526   8.270   4.698
96233SOL    HW290597   6.587   8.187   4.587
96234SOL     OW90598   5.056   6.206   7.583
96234SOL    HW190599   5.081   6.243   7.668
96234SOL    HW290600   5.043   6.113   7.601
96235SOL     OW90601   9.713  10.592  13.471
96235SOL    HW190602   9.766  10.581  13.550
96235SOL    HW290603   9.663  10.510  13.464
96236SOL     OW90604   5.358   5.900   9.286
96236SOL    HW190605   5.355   5.976   9.345
96236SOL    HW290606   5.320   5.829   9.338
96237SOL     OW90607   4.216  12.354  14.081
96237SOL    HW190608   4.148  12.371  14.146
96237SOL    HW290609   4.223  12.259  14.077
96238SOL     OW90610  13.425  14.463   0.824
96238SOL    HW190611  13.485  14.492   0.756
96238SOL    HW290612  13.343  14.509   0.806
96239SOL     OW90613   7.551   5.233   3.926
96239SOL    HW190614   7.514   5.281   3.851
96239SOL    HW290615   7.478   5.226   3.987
96240SOL     OW90616  10.486  10.793  10.230
96240SOL    HW190617  10.536  10.758  10.304
96240SOL    HW290618  10.447  10.716  10.188
96241SOL     OW90619  11.665  13.315  13.464
96241SOL    HW190620  11.674  13.227  13.502
96241SOL    HW290621  11.740  13.364  13.497
96242SOL     OW90622  14.239   4.919   2.112
96242SOL    HW190623  14.218   4.965   2.193
96242SOL    HW290624  14.156   4.914   2.065
96243SOL     OW90625  11.661   9.200   7.198
96243SOL    HW190626  11.641   9.142   7.124
96243SOL    HW290627  11.756   9.194   7.209
96244SOL     OW90628   5.298   8.064   9.385
96244SOL    HW190629   5.229   8.124   9.357
96244SOL    HW290630   5.380   8.107   9.361
96245SOL     OW90631   2.857   6.223   0.509
96245SOL    HW190632   2.940   6.176   0.505
96245SOL    HW290633   2.881   6.315   0.503
96246SOL     OW90634   9.493   1.221  14.297
96246SOL    HW190635   9.586   1.214  14.320
96246SOL    HW290636   9.449   1.237  14.380
96247SOL     OW90637   5.164   9.377   0.010
96247SOL    HW190638   5.115   9.306   0.052
96247SOL    HW290639   5.255   9.360   0.031
96248SOL     OW90640   2.798  13.703   6.938
96248SOL    HW190641   2.828  13.648   7.010
96248SOL    HW290642   2.843  13.786   6.950
96249SOL     OW90643  14.634   6.677  13.990
96249SOL    HW190644  14.597   6.633  14.066
96249SOL    HW290645  14.602   6.767  13.997
96250SOL     OW90646  10.223   5.143   4.500
96250SOL    HW190647  10.127   5.139   4.497
96250SOL    HW290648  10.248   5.173   4.412
96251SOL     OW90649  14.615   9.435  12.844
96251SOL    HW190650  14.552   9.473  12.782
96251SOL    HW290651  14.700   9.450  12.803
96252SOL     OW90652   3.735   5.055   9.760
96252SOL    HW190653   3.703   5.053   9.850
96252SOL    HW290654   3.701   4.975   9.720
96253SOL     OW90655  13.074  14.859   8.101
96253SOL    HW190656  13.027   0.012   8.180
96253SOL    HW290657  13.096  14.767   8.114
96254SOL     OW90658  14.489   9.178   7.150
96254SOL    HW190659  14.464   9.195   7.241
96254SOL    HW290660  14.520   9.263   7.118
96255SOL     OW90661   4.442   0.757  10.728
96255SOL    HW190662   4.494   0.683  10.757
96255SOL    HW290663   4.485   0.834  10.766
96256SOL     OW90664   2.390   5.264  11.061
96256SOL    HW190665   2.451   5.325  11.021
96256SOL    HW290666   2.313   5.317  11.084
96257SOL     OW90667   4.704  11.454   9.402
96257SOL    HW190668   4.777  11.503   9.441
96257SOL    HW290669   4.715  11.365   9.435
96258SOL     OW90670  14.067   6.675   6.349
96258SOL    HW190671  14.125   6.632   6.412
96258SOL    HW290672  14.074   6.623   6.270
96259SOL     OW90673   4.843   2.339   1.447
96259SOL    HW190674   4.767   2.393   1.470
96259SOL    HW290675   4.806   2.261   1.406
96260SOL     OW90676   6.952   7.754  14.019
96260SOL    HW190677   6.893   7.826  14.043
96260SOL    HW290678   7.036   7.797  14.002
96261SOL     OW90679   2.800   8.954   7.766
96261SOL    HW190680   2.750   8.982   7.843
96261SOL    HW290681   2.814   9.034   7.716
96262SOL     OW90682  11.490   2.672   9.390
96262SOL    HW190683  11.462   2.759   9.417
96262SOL    HW290684  11.496   2.622   9.472
96263SOL     OW90685   3.310   8.539  14.400
96263SOL    HW190686   3.358   8.458  14.415
96263SOL    HW290687   3.376   8.601  14.370
96264SOL     OW90688   3.186   3.609   3.243
96264SOL    HW190689   3.109   3.553   3.235
96264SOL    HW290690   3.158   3.694   3.208
96265SOL     OW90691   5.672  11.544   6.969
96265SOL    HW190692   5.627  11.622   7.003
96265SOL    HW290693   5.748  11.580   6.923
96266SOL     OW90694  12.387   0.125  11.296
96266SOL    HW190695  12.397   0.112  11.201
96266SOL    HW290696  12.344   0.210  11.304
96267SOL     OW90697   8.532  10.842  11.882
96267SOL    HW190698   8.551  10.913  11.943
96267SOL    HW290699   8.502  10.770  11.938
96268SOL     OW90700   0.894  13.332  10.329
96268SOL    HW190701   0.814  13.335  10.381
96268SOL    HW290702   0.868  13.285  10.249
96269SOL     OW90703   5.307   0.980   3.939
96269SOL    HW190704   5.347   1.005   4.022
96269SOL    HW290705   5.348   0.896   3.916
96270SOL     OW90706   8.084   7.483  10.238
96270SOL    HW190707   8.157   7.422  10.249
96270SOL    HW290708   8.027   7.467  10.313
96271SOL     OW90709   2.995   2.433   6.095
96271SOL    HW190710   2.973   2.491   6.167
96271SOL    HW290711   2.912   2.394   6.068
96272SOL     OW90712  11.447   0.444   9.987
96272SOL    HW190713  11.421   0.401  10.069
96272SOL    HW290714  11.536   0.411   9.970
96273SOL     OW90715   3.769  14.371   8.204
96273SOL    HW190716   3.714  14.449   8.213
96273SOL    HW290717   3.708  14.298   8.212
96274SOL     OW90718  11.150   0.652  14.447
96274SOL    HW190719  11.130   0.563  14.419
96274SOL    HW290720  11.183   0.695  14.368
96275SOL     OW90721  13.174   6.119   2.853
96275SOL    HW190722  13.228   6.042   2.874
96275SOL    HW290723  13.212   6.190   2.905
96276SOL     OW90724   7.958  11.286   8.839
96276SOL    HW190725   7.948  11.339   8.760
96276SOL    HW290726   7.903  11.329   8.904
96277SOL     OW90727   4.117   6.248   8.278
96277SOL    HW190728   4.045   6.284   8.226
96277SOL    HW290729   4.179   6.320   8.287
96278SOL     OW90730  12.779   8.193  11.477
96278SOL    HW190731  12.769   8.258  11.408
96278SOL    HW290732  12.873   8.186  11.490
96279SOL     OW90733  11.717  12.109   0.658
96279SOL    HW190734  11.778  12.178   0.683
96279SOL    HW290735  11.664  12.094   0.736
96280SOL     OW90736   9.607   7.373   1.311
96280SOL    HW190737   9.678   7.434   1.292
96280SOL    HW290738   9.532   7.428   1.330
96281SOL     OW90739   3.425  11.673   0.406
96281SOL    HW190740   3.411  11.595   0.460
96281SOL    HW290741   3.467  11.640   0.327
96282SOL     OW90742  11.137   6.599   5.553
96282SOL    HW190743  11.084   6.583   5.475
96282SOL    HW290744  11.135   6.694   5.565
96283SOL     OW90745   0.989   6.537   7.147
96283SOL    HW190746   1.071   6.586   7.154
96283SOL    HW290747   0.921   6.604   7.136
96284SOL     OW90748   1.229   6.054   9.309
96284SOL    HW190749   1.304   6.025   9.256
96284SOL    HW290750   1.170   6.096   9.246
96285SOL     OW90751   1.389   4.724   9.541
96285SOL    HW190752   1.433   4.643   9.565
96285SOL    HW290753   1.455   4.774   9.494
96286SOL     OW90754  14.239  14.590   8.667
96286SOL    HW190755  14.323  14.562   8.702
96286SOL    HW290756  14.197  14.510   8.636
96287SOL     OW90757   5.731  12.516   1.286
96287SOL    HW190758   5.800  12.491   1.224
96287SOL    HW290759   5.776  12.525   1.370
96288SOL     OW90760   0.231   1.423   8.472
96288SOL    HW190761   0.170   1.491   8.445
96288SOL    HW290762   0.304   1.431   8.410
96289SOL     OW90763  14.712   8.409  12.682
96289SOL    HW190764  14.689   8.353  12.609
96289SOL    HW290765  14.803   8.433  12.667
96290SOL     OW90766  11.031   6.126   6.612
96290SOL    HW190767  11.067   6.048   6.568
96290SOL    HW290768  11.086   6.198   6.582
96291SOL     OW90769   7.662   3.890   6.590
96291SOL    HW190770   7.738   3.936   6.626
96291SOL    HW290771   7.597   3.959   6.577
96292SOL     OW90772  12.694   3.798  14.156
96292SOL    HW190773  12.789   3.796  14.147
96292SOL    HW290774  12.666   3.709  14.130
96293SOL     OW90775   9.861  13.748   1.703
96293SOL    HW190776   9.955  13.766   1.714
96293SOL    HW290777   9.818  13.825   1.740
96294SOL     OW90778   3.401  13.728   6.306
96294SOL    HW190779   3.369  13.666   6.371
96294SOL    HW290780   3.417  13.809   6.356
96295SOL     OW90781  13.203   1.506   8.979
96295SOL    HW190782  13.127   1.524   8.925
96295SOL    HW290783  13.258   1.449   8.926
96296SOL     OW90784  12.404   2.672   8.574
96296SOL    HW190785  12.344   2.746   8.571
96296SOL    HW290786  12.477   2.702   8.629
96297SOL     OW90787  12.390  14.407   7.308
96297SOL    HW190788  12.467  14.355   7.286
96297SOL    HW290789  12.316  14.355   7.277
96298SOL     OW90790   4.712   5.508   2.137
96298SOL    HW190791   4.674   5.514   2.225
96298SOL    HW290792   4.733   5.415   2.126
96299SOL     OW90793   5.602  12.951  10.121
96299SOL    HW190794   5.643  13.027  10.081
96299SOL    HW290795   5.564  12.902  10.048
96300SOL     OW90796   0.870  11.233   8.152
96300SOL    HW190797   0.907  11.321   8.153
96300SOL    HW290798   0.812  11.231   8.229
96301SOL     OW90799   0.725   9.079   8.575
96301SOL    HW190800   0.793   9.061   8.640
96301SOL    HW290801   0.747   9.022   8.501
96302SOL     OW90802  13.590   4.005   1.947
96302SOL    HW190803  13.677   4.044   1.940
96302SOL    HW290804  13.579   3.955   1.865
96303SOL     OW90805   3.598   1.712   7.891
96303SOL    HW190806   3.671   1.745   7.943
96303SOL    HW290807   3.550   1.655   7.952
96304SOL     OW90808   8.903   4.046   5.069
96304SOL    HW190809   8.853   3.981   5.119
96304SOL    HW290810   8.869   4.131   5.099
96305SOL     OW90811  13.711   3.234  12.623
96305SOL    HW190812  13.743   3.297  12.558
96305SOL    HW290813  13.781   3.168  12.629
96306SOL     OW90814   7.007  14.416   2.328
96306SOL    HW190815   7.019  14.484   2.394
96306SOL    HW290816   6.918  14.429   2.296
96307SOL     OW90817   5.189   4.896  11.984
96307SOL    HW190818   5.213   4.878  12.075
96307SOL    HW290819   5.097   4.872  11.978
96308SOL     OW90820   1.022   6.192   2.033
96308SOL    HW190821   1.020   6.228   2.121
96308SOL    HW290822   0.930   6.178   2.010
96309SOL     OW90823   7.542  14.487   6.641
96309SOL    HW190824   7.452  14.500   6.673
96309SOL    HW290825   7.537  14.408   6.587
96310SOL     OW90826   0.504   3.829  11.156
96310SOL    HW190827   0.493   3.817  11.061
96310SOL    HW290828   0.583   3.882  11.164
96311SOL     OW90829   9.968   0.691   7.606
96311SOL    HW190830  10.049   0.742   7.614
96311SOL    HW290831   9.998   0.600   7.598
96312SOL     OW90832   6.087   5.610  14.057
96312SOL    HW190833   6.056   5.566  13.977
96312SOL    HW290834   6.131   5.541  14.106
96313SOL     OW90835   9.623  12.178   9.947
96313SOL    HW190836   9.707  12.134   9.933
96313SOL    HW290837   9.595  12.148  10.034
96314SOL     OW90838  10.326   7.029   3.335
96314SOL    HW190839  10.307   7.114   3.374
96314SOL    HW290840  10.248   7.007   3.284
96315SOL     OW90841  13.728  10.691   4.397
96315SOL    HW190842  13.789  10.651   4.459
96315SOL    HW290843  13.754  10.656   4.312
96316SOL     OW90844  10.942   0.342  13.424
96316SOL    HW190845  10.946   0.438  13.419
96316SOL    HW290846  10.964   0.313  13.335
96317SOL     OW90847   2.021   1.901   0.897
96317SOL    HW190848   1.940   1.907   0.846
96317SOL    HW290849   2.023   1.811   0.928
96318SOL     OW90850  10.192   7.100  10.997
96318SOL    HW190851  10.121   7.130  11.054
96318SOL    HW290852  10.172   7.008  10.980
96319SOL     OW90853   0.503  11.715  10.584
96319SOL    HW190854   0.524  11.682  10.671
96319SOL    HW290855   0.411  11.693  10.571
96320SOL     OW90856  14.504   4.484   6.356
96320SOL    HW190857  14.462   4.507   6.439
96320SOL    HW290858  14.546   4.565   6.327
96321SOL     OW90859   6.058  13.337  11.834
96321SOL    HW190860   6.023  13.308  11.750
96321SOL    HW290861   6.136  13.387  11.812
96322SOL     OW90862   0.571   2.762   1.328
96322SOL    HW190863   0.618   2.679   1.337
96322SOL    HW290864   0.558   2.772   1.234
96323SOL     OW90865   1.971  13.145   8.157
96323SOL    HW190866   1.896  13.172   8.105
96323SOL    HW290867   2.044  13.142   8.094
96324SOL     OW90868  13.130  11.623   2.359
96324SOL    HW190869  13.091  11.537   2.375
96324SOL    HW290870  13.175  11.645   2.440
96325SOL     OW90871   3.272  13.412  10.977
96325SOL    HW190872   3.244  13.452  11.060
96325SOL    HW290873   3.367  13.420  10.979
96326SOL     OW90874  11.630   7.374  10.691
96326SOL    HW190875  11.568   7.447  10.694
96326SOL    HW290876  11.605   7.325  10.612
96327SOL     OW90877   0.272  10.087   0.304
96327SOL    HW190878   0.251  10.147   0.232
96327SOL    HW290879   0.228  10.125   0.380
96328SOL     OW90880   4.795   0.948   3.516
96328SOL    HW190881   4.883   0.980   3.534
96328SOL    HW290882   4.808   0.870   3.462
96329SOL     OW90883  13.668   1.892  11.972
96329SOL    HW190884  13.714   1.870  12.053
96329SOL    HW290885  13.735   1.929  11.915
96330SOL     OW90886   2.929   7.383  13.551
96330SOL    HW190887   2.926   7.395  13.456
96330SOL    HW290888   3.005   7.327  13.566
96331SOL     OW90889  13.574   1.119   4.823
96331SOL    HW190890  13.576   1.024   4.835
96331SOL    HW290891  13.494   1.147   4.867
96332SOL     OW90892  11.118   2.649   1.683
96332SOL    HW190893  11.027   2.677   1.697
96332SOL    HW290894  11.134   2.669   1.590
96333SOL     OW90895   5.686  10.277   2.448
96333SOL    HW190896   5.778  10.263   2.423
96333SOL    HW290897   5.636  10.243   2.375
96334SOL     OW90898  13.767   8.500   2.460
96334SOL    HW190899  13.719   8.512   2.378
96334SOL    HW290900  13.706   8.454   2.517
96335SOL     OW90901  10.594   1.014   4.364
96335SOL    HW190902  10.531   1.066   4.315
96335SOL    HW290903  10.621   0.946   4.303
96336SOL     OW90904  10.458   7.480  12.977
96336SOL    HW190905  10.385   7.508  12.923
96336SOL    HW290906  10.418   7.429  13.048
96337SOL     OW90907  11.042   2.359   0.149
96337SOL    HW190908  11.031   2.324   0.238
96337SOL    HW290909  11.134   2.384   0.145
96338SOL     OW90910   6.345  14.329   7.821
96338SOL    HW190911   6.314  14.294   7.737
96338SOL    HW290912   6.394  14.408   7.797
96339SOL     OW90913   6.584   9.524   3.296
96339SOL    HW190914   6.620   9.439   3.320
96339SOL    HW290915   6.548   9.559   3.378
96340SOL     OW90916  14.275   0.665   8.279
96340SOL    HW190917  14.194   0.614   8.285
96340SOL    HW290918  14.338   0.606   8.239
96341SOL     OW90919   8.773   4.651   7.412
96341SOL    HW190920   8.682   4.668   7.433
96341SOL    HW290921   8.808   4.606   7.489
96342SOL     OW90922   3.820   8.314  10.067
96342SOL    HW190923   3.809   8.230  10.112
96342SOL    HW290924   3.848   8.291   9.979
96343SOL     OW90925  11.486   1.251  10.027
96343SOL    HW190926  11.400   1.292  10.030
96343SOL    HW290927  11.504   1.238   9.934
96344SOL     OW90928   1.252   9.330   8.657
96344SOL    HW190929   1.312   9.401   8.635
96344SOL    HW290930   1.265   9.265   8.588
96345SOL     OW90931   3.281   6.535   8.854
96345SOL    HW190932   3.249   6.483   8.780
96345SOL    HW290933   3.205   6.586   8.883
96346SOL     OW90934  12.103   7.233   2.254
96346SOL    HW190935  12.128   7.259   2.165
96346SOL    HW290936  12.029   7.290   2.276
96347SOL     OW90937   6.402   7.671  14.647
96347SOL    HW190938   6.454   7.675  14.728
96347SOL    HW290939   6.336   7.739  14.657
96348SOL     OW90940  13.827   2.344  12.604
96348SOL    HW190941  13.834   2.399  12.526
96348SOL    HW290942  13.796   2.259  12.570
96349SOL     OW90943  13.070   1.556  14.461
96349SOL    HW190944  13.106   1.487  14.405
96349SOL    HW290945  13.004   1.512  14.514
96350SOL     OW90946   6.350   6.704  10.838
96350SOL    HW190947   6.344   6.692  10.933
96350SOL    HW290948   6.259   6.704  10.809
96351SOL     OW90949  10.573   0.612  13.341
96351SOL    HW190950  10.526   0.529  13.333
96351SOL    HW290951  10.662   0.591  13.312
96352SOL     OW90952  14.233   1.397   8.356
96352SOL    HW190953  14.302   1.360   8.302
96352SOL    HW290954  14.259   1.489   8.369
96353SOL     OW90955   9.572  10.959   9.584
96353SOL    HW190956   9.504  10.915   9.634
96353SOL    HW290957   9.535  10.967   9.496
96354SOL     OW90958  12.713   0.318   0.833
96354SOL    HW190959  12.621   0.305   0.813
96354SOL    HW290960  12.732   0.255   0.902
96355SOL     OW90961   9.839   6.837  13.677
96355SOL    HW190962   9.929   6.811  13.656
96355SOL    HW290963   9.785   6.776  13.626
96356SOL     OW90964   0.254   4.370   1.000
96356SOL    HW190965   0.261   4.433   1.071
96356SOL    HW290966   0.162   4.345   0.999
96357SOL     OW90967   6.050   1.062  10.349
96357SOL    HW190968   5.989   0.996  10.382
96357SOL    HW290969   6.137   1.029  10.375
96358SOL     OW90970   2.631  11.503   5.444
96358SOL    HW190971   2.678  11.441   5.499
96358SOL    HW290972   2.690  11.577   5.434
96359SOL     OW90973   4.047   9.600  12.334
96359SOL    HW190974   4.061   9.661  12.406
96359SOL    HW290975   4.090   9.520  12.362
96360SOL     OW90976   4.348   5.938   0.402
96360SOL    HW190977   4.435   5.940   0.363
96360SOL    HW290978   4.364   5.925   0.496
96361SOL     OW90979  11.843   0.320   1.254
96361SOL    HW190980  11.847   0.228   1.277
96361SOL    HW290981  11.828   0.365   1.337
96362SOL     OW90982  12.118   7.527   8.666
96362SOL    HW190983  12.127   7.455   8.729
96362SOL    HW290984  12.180   7.507   8.597
96363SOL     OW90985   5.070  14.832   9.910
96363SOL    HW190986   5.020  14.854   9.988
96363SOL    HW290987   5.018  14.766   9.865
96364SOL     OW90988   7.882   7.884   5.455
96364SOL    HW190989   7.903   7.794   5.480
96364SOL    HW290990   7.787   7.890   5.464
96365SOL     OW90991  12.838  13.351   0.842
96365SOL    HW190992  12.751  13.334   0.879
96365SOL    HW290993  12.898  13.321   0.910
96366SOL     OW90994  11.802   7.596   2.752
96366SOL    HW190995  11.864   7.525   2.736
96366SOL    HW290996  11.813   7.655   2.678
96367SOL     OW90997   8.057   5.496   8.247
96367SOL    HW190998   8.013   5.476   8.164
96367SOL    HW290999   8.146   5.519   8.222
96368SOL     OW91000   8.079   4.800  11.632
96368SOL    HW191001   8.001   4.841  11.597
96368SOL    HW291002   8.105   4.857  11.705
96369SOL     OW91003  13.424   6.892  14.322
96369SOL    HW191004  13.395   6.871  14.411
96369SOL    HW291005  13.343   6.899  14.272
96370SOL     OW91006   6.254   0.793  11.017
96370SOL    HW191007   6.331   0.826  11.064
96370SOL    HW291008   6.290   0.744  10.943
96371SOL     OW91009  13.843  12.144  12.608
96371SOL    HW191010  13.918  12.139  12.549
96371SOL    HW291011  13.880  12.132  12.696
96372SOL     OW91012  11.551   0.613  14.161
96372SOL    HW191013  11.588   0.695  14.194
96372SOL    HW291014  11.562   0.551  14.233
96373SOL     OW91015   2.339   4.269   4.269
96373SOL    HW191016   2.331   4.208   4.342
96373SOL    HW291017   2.385   4.220   4.201
96374SOL     OW91018   1.860   4.032  13.599
96374SOL    HW191019   1.922   3.969  13.562
96374SOL    HW291020   1.827   4.080  13.524
96375SOL     OW91021  11.413  10.213  11.018
96375SOL    HW191022  11.412  10.308  11.026
96375SOL    HW291023  11.398  10.181  11.107
96376SOL     OW91024   7.296   1.260  12.486
96376SOL    HW191025   7.217   1.216  12.454
96376SOL    HW291026   7.272   1.291  12.574
96377SOL     OW91027  12.679   5.714  10.345
96377SOL    HW191028  12.686   5.678  10.257
96377SOL    HW291029  12.592   5.753  10.349
96378SOL     OW91030  10.082   2.569   8.620
96378SOL    HW191031   9.987   2.574   8.634
96378SOL    HW291032  10.115   2.653   8.652
96379SOL     OW91033   9.106   5.190   6.924
96379SOL    HW191034   9.133   5.253   6.991
96379SOL    HW291035   9.053   5.242   6.863
96380SOL     OW91036   6.815   3.308  10.597
96380SOL    HW191037   6.821   3.238  10.662
96380SOL    HW291038   6.889   3.366  10.618
96381SOL     OW91039   2.110  11.265   7.777
96381SOL    HW191040   2.179  11.238   7.717
96381SOL    HW291041   2.130  11.355   7.799
96382SOL     OW91042  12.480  10.031   0.807
96382SOL    HW191043  12.437  10.028   0.892
96382SOL    HW291044  12.571  10.054   0.826
96383SOL     OW91045   1.977   6.501   9.350
96383SOL    HW191046   2.024   6.529   9.272
96383SOL    HW291047   1.896   6.552   9.349
96384SOL     OW91048   3.223   0.032   5.349
96384SOL    HW191049   3.243   0.009   5.258
96384SOL    HW291050   3.133   0.003   5.362
96385SOL     OW91051   0.277   2.000   9.443
96385SOL    HW191052   0.284   2.019   9.537
96385SOL    HW291053   0.310   2.079   9.401
96386SOL     OW91054   7.707  12.129   2.812
96386SOL    HW191055   7.715  12.038   2.783
96386SOL    HW291056   7.778  12.175   2.768
96387SOL     OW91057   3.433  10.657   7.694
96387SOL    HW191058   3.409  10.645   7.786
96387SOL    HW291059   3.399  10.579   7.651
96388SOL     OW91060  10.718  12.959   3.984
96388SOL    HW191061  10.628  12.988   3.970
96388SOL    HW291062  10.772  13.022   3.937
96389SOL     OW91063   4.238   4.672   0.867
96389SOL    HW191064   4.268   4.675   0.776
96389SOL    HW291065   4.299   4.728   0.914
96390SOL     OW91066  10.155   8.620   2.522
96390SOL    HW191067  10.084   8.638   2.583
96390SOL    HW291068  10.127   8.662   2.440
96391SOL     OW91069   8.909  12.080   7.922
96391SOL    HW191070   8.893  12.098   7.829
96391SOL    HW291071   8.864  12.152   7.968
96392SOL     OW91072   8.990  13.575   0.287
96392SOL    HW191073   8.986  13.563   0.192
96392SOL    HW291074   9.083  13.581   0.306
96393SOL     OW91075  13.721   3.448   1.689
96393SOL    HW191076  13.769   3.519   1.731
96393SOL    HW291077  13.659   3.418   1.756
96394SOL     OW91078   5.926  10.885   6.486
96394SOL    HW191079   5.834  10.905   6.469
96394SOL    HW291080   5.947  10.934   6.566
96395SOL     OW91081   3.181  13.749   8.778
96395SOL    HW191082   3.187  13.710   8.865
96395SOL    HW291083   3.226  13.834   8.787
96396SOL     OW91084   5.116   0.919   2.738
96396SOL    HW191085   5.164   0.958   2.665
96396SOL    HW291086   5.144   0.827   2.738
96397SOL     OW91087   9.427  13.805   7.519
96397SOL    HW191088   9.398  13.863   7.590
96397SOL    HW291089   9.488  13.745   7.561
96398SOL     OW91090   6.343   3.321  13.251
96398SOL    HW191091   6.336   3.331  13.346
96398SOL    HW291092   6.298   3.397  13.215
96399SOL     OW91093   6.131   8.391  12.843
96399SOL    HW191094   6.187   8.457  12.803
96399SOL    HW291095   6.042   8.421  12.823
96400SOL     OW91096   1.288  11.292  12.385
96400SOL    HW191097   1.223  11.363  12.382
96400SOL    HW291098   1.332  11.297  12.300
96401SOL     OW91099  14.372   8.680  10.281
96401SOL    HW191100  14.448   8.643  10.235
96401SOL    HW291101  14.389   8.662  10.374
96402SOL     OW91102  14.306   7.147  14.799
96402SOL    HW191103  14.251   7.078  14.835
96402SOL    HW291104  14.380   7.102  14.759
96403SOL     OW91105  11.799   1.300  13.040
96403SOL    HW191106  11.786   1.373  13.101
96403SOL    HW291107  11.838   1.341  12.963
96404SOL     OW91108   3.614   5.307  10.489
96404SOL    HW191109   3.549   5.300  10.559
96404SOL    HW291110   3.582   5.379  10.435
96405SOL     OW91111  11.496  13.505   2.973
96405SOL    HW191112  11.520  13.428   3.024
96405SOL    HW291113  11.462  13.567   3.037
96406SOL     OW91114   3.393  12.370   5.272
96406SOL    HW191115   3.450  12.337   5.203
96406SOL    HW291116   3.328  12.423   5.227
96407SOL     OW91117   9.560  11.633   7.258
96407SOL    HW191118   9.573  11.552   7.209
96407SOL    HW291119   9.466  11.649   7.255
96408SOL     OW91120   6.106  12.635   8.718
96408SOL    HW191121   6.057  12.707   8.679
96408SOL    HW291122   6.117  12.660   8.810
96409SOL     OW91123   4.913   1.929  11.801
96409SOL    HW191124   4.994   1.908  11.848
96409SOL    HW291125   4.924   2.021  11.777
96410SOL     OW91126  13.675  11.509  11.346
96410SOL    HW191127  13.642  11.464  11.424
96410SOL    HW291128  13.748  11.563  11.379
96411SOL     OW91129   3.152   2.210   2.225
96411SOL    HW191130   3.057   2.206   2.216
96411SOL    HW291131   3.166   2.245   2.313
96412SOL     OW91132   5.978  11.276  14.500
96412SOL    HW191133   6.013  11.213  14.563
96412SOL    HW291134   6.036  11.352  14.508
96413SOL     OW91135   0.675   4.895   2.934
96413SOL    HW191136   0.610   4.892   2.863
96413SOL    HW291137   0.716   4.981   2.924
96414SOL     OW91138   3.547  11.972  12.040
96414SOL    HW191139   3.536  11.982  11.945
96414SOL    HW291140   3.485  12.034  12.078
96415SOL     OW91141   6.156   2.681  13.028
96415SOL    HW191142   6.112   2.631  13.097
96415SOL    HW291143   6.207   2.616  12.980
96416SOL     OW91144  12.255  14.648   5.268
96416SOL    HW191145  12.267  14.635   5.362
96416SOL    HW291146  12.232  14.561   5.235
96417SOL     OW91147   3.636   4.112   4.630
96417SOL    HW191148   3.680   4.113   4.715
96417SOL    HW291149   3.643   4.021   4.600
96418SOL     OW91150  12.953   0.666   5.962
96418SOL    HW191151  13.015   0.603   5.926
96418SOL    HW291152  12.878   0.614   5.990
96419SOL     OW91153   2.668   1.960  10.597
96419SOL    HW191154   2.718   1.911  10.531
96419SOL    HW291155   2.723   2.035  10.619
96420SOL     OW91156  10.795   7.813   5.471
96420SOL    HW191157  10.721   7.753   5.472
96420SOL    HW291158  10.789   7.858   5.386
96421SOL     OW91159   0.806   7.588  13.020
96421SOL    HW191160   0.840   7.528  13.087
96421SOL    HW291161   0.872   7.586  12.951
96422SOL     OW91162   2.784   1.952   1.322
96422SOL    HW191163   2.740   2.018   1.268
96422SOL    HW291164   2.715   1.916   1.377
96423SOL     OW91165   4.931  10.658   2.331
96423SOL    HW191166   4.862  10.720   2.309
96423SOL    HW291167   4.917  10.638   2.424
96424SOL     OW91168   9.283   5.071   9.993
96424SOL    HW191169   9.298   4.982  10.026
96424SOL    HW291170   9.216   5.106  10.052
96425SOL     OW91171   0.273   6.718   2.819
96425SOL    HW191172   0.188   6.763   2.827
96425SOL    HW291173   0.261   6.636   2.866
96426SOL     OW91174   4.202   2.018   2.599
96426SOL    HW191175   4.181   2.110   2.617
96426SOL    HW291176   4.123   1.970   2.625
96427SOL     OW91177  10.916  11.313   1.310
96427SOL    HW191178  10.864  11.393   1.308
96427SOL    HW291179  10.876  11.260   1.379
96428SOL     OW91180  10.867  12.335  11.277
96428SOL    HW191181  10.850  12.242  11.287
96428SOL    HW291182  10.799  12.366  11.217
96429SOL     OW91183   7.800   1.854   2.952
96429SOL    HW191184   7.840   1.935   2.922
96429SOL    HW291185   7.802   1.859   3.047
96430SOL     OW91186   6.606  10.585   5.920
96430SOL    HW191187   6.564  10.651   5.976
96430SOL    HW291188   6.535  10.554   5.864
96431SOL     OW91189   4.056   3.258   9.878
96431SOL    HW191190   4.104   3.203   9.940
96431SOL    HW291191   4.122   3.320   9.846
96432SOL     OW91192  10.679   4.096   8.916
96432SOL    HW191193  10.754   4.050   8.877
96432SOL    HW291194  10.622   4.115   8.841
96433SOL     OW91195   3.083   6.903   5.291
96433SOL    HW191196   3.019   6.953   5.240
96433SOL    HW291197   3.059   6.812   5.275
96434SOL     OW91198   1.324   8.713   3.737
96434SOL    HW191199   1.279   8.774   3.679
96434SOL    HW291200   1.401   8.684   3.688
96435SOL     OW91201  11.208   8.217  13.417
96435SOL    HW191202  11.276   8.164  13.377
96435SOL    HW291203  11.133   8.158  13.425
96436SOL     OW91204  12.917   5.400  11.507
96436SOL    HW191205  12.864   5.432  11.433
96436SOL    HW291206  12.873   5.320  11.535
96437SOL     OW91207  10.189   2.627   4.417
96437SOL    HW191208  10.218   2.675   4.495
96437SOL    HW291209  10.243   2.548   4.415
96438SOL     OW91210   1.908   6.341  10.646
96438SOL    HW191211   1.830   6.314  10.695
96438SOL    HW291212   1.881   6.337  10.554
96439SOL     OW91213   6.538  10.941   0.794
96439SOL    HW191214   6.543  10.943   0.890
96439SOL    HW291215   6.627  10.919   0.767
96440SOL     OW91216   3.145   5.148   9.533
96440SOL    HW191217   3.187   5.205   9.596
96440SOL    HW291218   3.052   5.173   9.535
96441SOL     OW91219   5.176   9.397  10.533
96441SOL    HW191220   5.127   9.479  10.541
96441SOL    HW291221   5.263   9.418  10.568
96442SOL     OW91222  13.851  13.341  11.286
96442SOL    HW191223  13.939  13.318  11.317
96442SOL    HW291224  13.831  13.424  11.331
96443SOL     OW91225  11.939  13.671   5.720
96443SOL    HW191226  11.898  13.700   5.638
96443SOL    HW291227  12.025  13.637   5.693
96444SOL     OW91228   0.218  13.115   3.931
96444SOL    HW191229   0.307  13.097   3.902
96444SOL    HW291230   0.201  13.205   3.902
96445SOL     OW91231   5.385   5.080   1.989
96445SOL    HW191232   5.447   5.041   2.051
96445SOL    HW291233   5.413   5.171   1.981
96446SOL     OW91234   1.732   6.442   8.646
96446SOL    HW191235   1.765   6.363   8.687
96446SOL    HW291236   1.793   6.460   8.574
96447SOL     OW91237   4.365  13.702   6.023
96447SOL    HW191238   4.351  13.642   6.096
96447SOL    HW291239   4.460  13.716   6.020
96448SOL     OW91240  13.983   8.180   8.370
96448SOL    HW191241  13.896   8.214   8.348
96448SOL    HW291242  14.004   8.121   8.298
96449SOL     OW91243   8.413   2.389   8.827
96449SOL    HW191244   8.417   2.394   8.731
96449SOL    HW291245   8.383   2.476   8.854
96450SOL     OW91246   9.997   7.589  11.209
96450SOL    HW191247   9.981   7.661  11.147
96450SOL    HW291248   9.974   7.625  11.295
96451SOL     OW91249  11.551   1.597  10.561
96451SOL    HW191250  11.597   1.618  10.479
96451SOL    HW291251  11.528   1.505  10.553
96452SOL     OW91252   9.756   7.663   7.712
96452SOL    HW191253   9.763   7.568   7.723
96452SOL    HW291254   9.840   7.688   7.674
96453SOL     OW91255  13.764   1.050   3.656
96453SOL    HW191256  13.769   1.031   3.562
96453SOL    HW291257  13.700   0.987   3.689
96454SOL     OW91258  12.022   6.984   8.157
96454SOL    HW191259  12.085   6.913   8.145
96454SOL    HW291260  12.001   7.014   8.068
96455SOL     OW91261   1.897  10.229   9.111
96455SOL    HW191262   1.856  10.207   9.028
96455SOL    HW291263   1.943  10.311   9.095
96456SOL     OW91264   2.952   5.039   5.353
96456SOL    HW191265   2.895   5.069   5.282
96456SOL    HW291266   3.038   5.075   5.331
96457SOL     OW91267   9.604   0.492  14.197
96457SOL    HW191268   9.662   0.419  14.175
96457SOL    HW291269   9.516   0.453  14.199
96458SOL     OW91270  12.084   2.169   2.623
96458SOL    HW191271  12.167   2.148   2.667
96458SOL    HW291272  12.032   2.090   2.630
96459SOL     OW91273   7.982   8.512   7.407
96459SOL    HW191274   7.912   8.492   7.345
96459SOL    HW291275   7.959   8.599   7.441
96460SOL     OW91276   7.228   0.242   7.960
96460SOL    HW191277   7.199   0.173   7.900
96460SOL    HW291278   7.175   0.318   7.937
96461SOL     OW91279   2.896   2.144   0.205
96461SOL    HW191280   2.978   2.093   0.203
96461SOL    HW291281   2.882   2.171   0.115
96462SOL     OW91282  13.739   8.304   8.412
96462SOL    HW191283  13.685   8.376   8.379
96462SOL    HW291284  13.755   8.326   8.504
96463SOL     OW91285   7.472   8.328  13.201
96463SOL    HW191286   7.390   8.341  13.249
96463SOL    HW291287   7.470   8.393  13.131
96464SOL     OW91288  11.361   2.468   4.557
96464SOL    HW191289  11.303   2.414   4.503
96464SOL    HW291290  11.449   2.448   4.525
96465SOL     OW91291  12.125  13.503   9.258
96465SOL    HW191292  12.048  13.448   9.274
96465SOL    HW291293  12.199  13.442   9.262
96466SOL     OW91294   2.482   3.277   6.464
96466SOL    HW191295   2.397   3.248   6.497
96466SOL    HW291296   2.538   3.279   6.541
96467SOL     OW91297   6.162   9.746   3.901
96467SOL    HW191298   6.172   9.813   3.834
96467SOL    HW291299   6.232   9.764   3.964
96468SOL     OW91300   7.151   6.256   8.219
96468SOL    HW191301   7.104   6.300   8.290
96468SOL    HW291302   7.243   6.269   8.241
96469SOL     OW91303   4.761   2.078   5.585
96469SOL    HW191304   4.791   2.002   5.535
96469SOL    HW291305   4.826   2.146   5.565
96470SOL     OW91306   1.621   7.537   2.591
96470SOL    HW191307   1.634   7.610   2.652
96470SOL    HW291308   1.526   7.538   2.574
96471SOL     OW91309   5.016   6.008   3.004
96471SOL    HW191310   4.973   5.972   3.082
96471SOL    HW291311   5.054   6.090   3.034
96472SOL     OW91312   2.004   6.525  11.422
96472SOL    HW191313   1.983   6.436  11.395
96472SOL    HW291314   2.021   6.518  11.516
96473SOL     OW91315  10.919   2.041   7.911
96473SOL    HW191316  10.860   1.992   7.968
96473SOL    HW291317  11.006   2.006   7.929
96474SOL     OW91318   6.832   2.099   4.729
96474SOL    HW191319   6.802   2.067   4.644
96474SOL    HW291320   6.754   2.100   4.783
96475SOL     OW91321  13.241   4.462   6.274
96475SOL    HW191322  13.306   4.396   6.298
96475SOL    HW291323  13.211   4.497   6.358
96476SOL     OW91324   3.802   7.263   0.420
96476SOL    HW191325   3.765   7.262   0.331
96476SOL    HW291326   3.843   7.177   0.429
96477SOL     OW91327   1.576  12.856  10.785
96477SOL    HW191328   1.635  12.794  10.828
96477SOL    HW291329   1.501  12.802  10.758
96478SOL     OW91330  12.536   4.883   0.751
96478SOL    HW191331  12.493   4.925   0.826
96478SOL    HW291332  12.463   4.846   0.700
96479SOL     OW91333  11.935  12.443  10.625
96479SOL    HW191334  11.920  12.415  10.716
96479SOL    HW291335  11.959  12.536  10.633
96480SOL     OW91336   8.803   9.935  13.573
96480SOL    HW191337   8.708   9.935  13.559
96480SOL    HW291338   8.828   9.843  13.564
96481SOL     OW91339   6.175   7.744  11.548
96481SOL    HW191340   6.198   7.653  11.527
96481SOL    HW291341   6.156   7.743  11.642
96482SOL     OW91342   7.480   7.208   3.840
96482SOL    HW191343   7.425   7.274   3.798
96482SOL    HW291344   7.549   7.258   3.883
96483SOL     OW91345  11.102  14.345  10.336
96483SOL    HW191346  11.009  14.356  10.351
96483SOL    HW291347  11.144  14.388  10.411
96484SOL     OW91348   3.190  13.496   4.773
96484SOL    HW191349   3.191  13.584   4.736
96484SOL    HW291350   3.268  13.492   4.829
96485SOL     OW91351  14.620   3.486   5.623
96485SOL    HW191352  14.710   3.462   5.646
96485SOL    HW291353  14.628   3.569   5.577
96486SOL     OW91354   5.233  12.474  13.809
96486SOL    HW191355   5.176  12.510  13.741
96486SOL    HW291356   5.251  12.384  13.781
96487SOL     OW91357  13.991   6.172   5.142
96487SOL    HW191358  13.958   6.102   5.198
96487SOL    HW291359  13.919   6.191   5.082
96488SOL     OW91360   7.903  11.777   9.629
96488SOL    HW191361   7.860  11.816   9.553
96488SOL    HW291362   7.976  11.836   9.648
96489SOL     OW91363   5.493   5.493   7.754
96489SOL    HW191364   5.436   5.469   7.827
96489SOL    HW291365   5.552   5.559   7.791
96490SOL     OW91366   2.370  14.244   0.724
96490SOL    HW191367   2.390  14.153   0.747
96490SOL    HW291368   2.275  14.247   0.718
96491SOL     OW91369   3.883   2.221  12.779
96491SOL    HW191370   3.857   2.313  12.780
96491SOL    HW291371   3.874   2.192  12.870
96492SOL     OW91372  12.808   5.263   8.514
96492SOL    HW191373  12.762   5.316   8.449
96492SOL    HW291374  12.815   5.321   8.591
96493SOL     OW91375   4.209   2.440   1.190
96493SOL    HW191376   4.181   2.402   1.274
96493SOL    HW291377   4.239   2.528   1.212
96494SOL     OW91378   5.685   4.615   1.275
96494SOL    HW191379   5.660   4.638   1.364
96494SOL    HW291380   5.606   4.633   1.223
96495SOL     OW91381   6.858   7.429   5.473
96495SOL    HW191382   6.907   7.434   5.555
96495SOL    HW291383   6.779   7.481   5.489
96496SOL     OW91384   0.648   4.702  11.045
96496SOL    HW191385   0.561   4.735  11.026
96496SOL    HW291386   0.634   4.638  11.116
96497SOL     OW91387   8.287   1.142   9.080
96497SOL    HW191388   8.331   1.154   9.164
96497SOL    HW291389   8.305   1.223   9.032
96498SOL     OW91390  10.693   6.961   3.932
96498SOL    HW191391  10.676   7.019   4.006
96498SOL    HW291392  10.625   6.894   3.938
96499SOL     OW91393   3.131   7.504  13.730
96499SOL    HW191394   3.048   7.458  13.713
96499SOL    HW291395   3.179   7.496  13.648
96500SOL     OW91396   2.910  12.762  14.633
96500SOL    HW191397   2.855  12.835  14.662
96500SOL    HW291398   2.944  12.724  14.713
96501SOL     OW91399   4.491   9.487   8.480
96501SOL    HW191400   4.474   9.411   8.536
96501SOL    HW291401   4.546   9.453   8.410
96502SOL     OW91402   1.645   7.842  11.562
96502SOL    HW191403   1.670   7.843  11.654
96502SOL    HW291404   1.557   7.805  11.561
96503SOL     OW91405  12.101   8.430   5.226
96503SOL    HW191406  12.058   8.480   5.296
96503SOL    HW291407  12.091   8.339   5.254
96504SOL     OW91408  12.007  12.236   6.742
96504SOL    HW191409  12.059  12.287   6.804
96504SOL    HW291410  12.042  12.148   6.749
96505SOL     OW91411   6.188   3.645  11.234
96505SOL    HW191412   6.189   3.569  11.293
96505SOL    HW291413   6.275   3.645  11.194
96506SOL     OW91414   2.963  11.531   0.811
96506SOL    HW191415   2.998  11.578   0.735
96506SOL    HW291416   2.944  11.444   0.778
96507SOL     OW91417   5.570   1.154  14.234
96507SOL    HW191418   5.589   1.190  14.148
96507SOL    HW291419   5.656   1.142  14.275
96508SOL     OW91420   6.398  12.210  12.504
96508SOL    HW191421   6.404  12.213  12.409
96508SOL    HW291422   6.310  12.241  12.524
96509SOL     OW91423  14.391   7.313  13.126
96509SOL    HW191424  14.414   7.399  13.092
96509SOL    HW291425  14.457   7.294  13.192
96510SOL     OW91426   7.478  11.223   2.979
96510SOL    HW191427   7.571  11.242   2.969
96510SOL    HW291428   7.472  11.127   2.980
96511SOL     OW91429   1.060   2.001  14.097
96511SOL    HW191430   1.060   1.963  14.009
96511SOL    HW291431   1.148   1.984  14.131
96512SOL     OW91432   8.216   0.284   3.698
96512SOL    HW191433   8.167   0.213   3.739
96512SOL    HW291434   8.154   0.357   3.694
96513SOL     OW91435  14.364   0.342   4.930
96513SOL    HW191436  14.337   0.287   5.003
96513SOL    HW291437  14.343   0.291   4.852
96514SOL     OW91438   1.201  10.436   1.613
96514SOL    HW191439   1.294  10.422   1.625
96514SOL    HW291440   1.195  10.508   1.550
96515SOL     OW91441   6.466   6.560   2.974
96515SOL    HW191442   6.381   6.601   2.989
96515SOL    HW291443   6.458   6.473   3.013
96516SOL     OW91444   8.096  14.638   4.077
96516SOL    HW191445   8.135  14.695   4.143
96516SOL    HW291446   8.066  14.697   4.008
96517SOL     OW91447   2.227  10.370   2.835
96517SOL    HW191448   2.163  10.398   2.901
96517SOL    HW291449   2.258  10.285   2.866
96518SOL     OW91450   1.885   3.770   5.136
96518SOL    HW191451   1.979   3.775   5.121
96518SOL    HW291452   1.851   3.727   5.057
96519SOL     OW91453  13.630  11.407  10.982
96519SOL    HW191454  13.560  11.414  11.047
96519SOL    HW291455  13.590  11.438  10.900
96520SOL     OW91456  13.910   9.515   7.260
96520SOL    HW191457  13.837   9.475   7.211
96520SOL    HW291458  13.938   9.588   7.205
96521SOL     OW91459   5.856   3.822   9.663
96521SOL    HW191460   5.802   3.859   9.732
96521SOL    HW291461   5.903   3.750   9.705
96522SOL     OW91462  13.596  13.181   0.401
96522SOL    HW191463  13.518  13.193   0.348
96522SOL    HW291464  13.634  13.269   0.409
96523SOL     OW91465   2.103   7.040  13.788
96523SOL    HW191466   2.010   7.021  13.773
96523SOL    HW291467   2.125   7.103  13.719
96524SOL     OW91468   8.365   1.163   6.924
96524SOL    HW191469   8.350   1.256   6.935
96524SOL    HW291470   8.460   1.152   6.934
96525SOL     OW91471   9.286   1.554  10.934
96525SOL    HW191472   9.382   1.551  10.937
96525SOL    HW291473   9.259   1.567  11.025
96526SOL     OW91474   3.113  11.210   8.197
96526SOL    HW191475   3.084  11.121   8.178
96526SOL    HW291476   3.205  11.200   8.222
96527SOL     OW91477   9.815  14.329   4.477
96527SOL    HW191478   9.774  14.356   4.395
96527SOL    HW291479   9.904  14.305   4.453
96528SOL     OW91480  10.535   2.598  11.195
96528SOL    HW191481  10.613   2.550  11.167
96528SOL    HW291482  10.466   2.568  11.136
96529SOL     OW91483   3.008   7.076   9.442
96529SOL    HW191484   2.945   7.068   9.514
96529SOL    HW291485   3.077   7.013   9.463
96530SOL     OW91486   5.970   3.396  10.218
96530SOL    HW191487   6.062   3.378  10.199
96530SOL    HW291488   5.921   3.332  10.166
96531SOL     OW91489   3.864   7.554   2.979
96531SOL    HW191490   3.937   7.604   3.014
96531SOL    HW291491   3.876   7.466   3.015
96532SOL     OW91492  10.776   1.186   8.385
96532SOL    HW191493  10.849   1.126   8.399
96532SOL    HW291494  10.722   1.178   8.463
96533SOL     OW91495   7.428  13.878   1.589
96533SOL    HW191496   7.384  13.960   1.569
96533SOL    HW291497   7.375  13.811   1.546
96534SOL     OW91498   7.699  11.641   4.690
96534SOL    HW191499   7.744  11.636   4.774
96534SOL    HW291500   7.672  11.732   4.682
96535SOL     OW91501  12.006   6.317  10.860
96535SOL    HW191502  11.941   6.367  10.811
96535SOL    HW291503  12.088   6.328  10.811
96536SOL     OW91504   3.795  14.225   0.402
96536SOL    HW191505   3.784  14.319   0.391
96536SOL    HW291506   3.800  14.190   0.313
96537SOL     OW91507   3.286   0.815   6.274
96537SOL    HW191508   3.344   0.772   6.212
96537SOL    HW291509   3.221   0.747   6.295
96538SOL     OW91510   2.030  13.959   0.847
96538SOL    HW191511   1.981  13.989   0.924
96538SOL    HW291512   2.070  13.876   0.875
96539SOL     OW91513   2.460  13.192   6.197
96539SOL    HW191514   2.394  13.127   6.222
96539SOL    HW291515   2.528  13.185   6.264
96540SOL     OW91516  11.154   7.835  11.767
96540SOL    HW191517  11.171   7.791  11.850
96540SOL    HW291518  11.145   7.764  11.703
96541SOL     OW91519   1.416  11.729   5.202
96541SOL    HW191520   1.451  11.684   5.124
96541SOL    HW291521   1.435  11.822   5.186
96542SOL     OW91522   1.450   5.860  13.409
96542SOL    HW191523   1.532   5.868  13.362
96542SOL    HW291524   1.415   5.775  13.383
96543SOL     OW91525   9.603   3.771   3.426
96543SOL    HW191526   9.624   3.690   3.472
96543SOL    HW291527   9.571   3.743   3.340
96544SOL     OW91528  14.194   3.092  12.147
96544SOL    HW191529  14.218   3.017  12.092
96544SOL    HW291530  14.220   3.066  12.235
96545SOL     OW91531  12.175   2.425  13.959
96545SOL    HW191532  12.108   2.466  13.906
96545SOL    HW291533  12.190   2.486  14.031
96546SOL     OW91534   0.140  10.009  11.856
96546SOL    HW191535   0.169  10.033  11.944
96546SOL    HW291536   0.178   9.923  11.841
96547SOL     OW91537   7.245  11.801   1.289
96547SOL    HW191538   7.299  11.876   1.315
96547SOL    HW291539   7.297  11.755   1.224
96548SOL     OW91540   9.270  10.958   3.629
96548SOL    HW191541   9.259  11.009   3.548
96548SOL    HW291542   9.356  10.984   3.662
96549SOL     OW91543   7.551  12.607   8.571
96549SOL    HW191544   7.636  12.566   8.586
96549SOL    HW291545   7.492  12.534   8.551
96550SOL     OW91546  13.572   8.359   9.100
96550SOL    HW191547  13.647   8.300   9.113
96550SOL    HW291548  13.610   8.440   9.066
96551SOL     OW91549  14.402  11.011   4.537
96551SOL    HW191550  14.453  11.076   4.490
96551SOL    HW291551  14.387  11.050   4.624
96552SOL     OW91552   4.852   0.640  13.394
96552SOL    HW191553   4.803   0.677  13.468
96552SOL    HW291554   4.816   0.684  13.317
96553SOL     OW91555  10.274   4.013   9.640
96553SOL    HW191556  10.363   4.010   9.677
96553SOL    HW291557  10.282   4.070   9.563
96554SOL     OW91558   9.295   2.443   4.361
96554SOL    HW191559   9.259   2.355   4.359
96554SOL    HW291560   9.305   2.467   4.269
96555SOL     OW91561   6.744  14.570  12.449
96555SOL    HW191562   6.700  14.546  12.368
96555SOL    HW291563   6.792  14.491  12.474
96556SOL     OW91564   7.810  14.576  12.611
96556SOL    HW191565   7.812  14.562  12.517
96556SOL    HW291566   7.774  14.495  12.647
96557SOL     OW91567  14.736   8.979  10.156
96557SOL    HW191568  14.778   9.012  10.077
96557SOL    HW291569  14.690   8.900  10.127
96558SOL     OW91570   6.329   8.799  14.816
96558SOL    HW191571   6.410   8.832  14.777
96558SOL    HW291572   6.346   8.801   0.039
96559SOL     OW91573   4.230  10.961  10.390
96559SOL    HW191574   4.205  10.894  10.453
96559SOL    HW291575   4.294  11.015  10.436
96560SOL     OW91576   5.973   2.495   0.923
96560SOL    HW191577   5.884   2.506   0.957
96560SOL    HW291578   6.020   2.573   0.953
96561SOL     OW91579   5.247   6.768   8.907
96561SOL    HW191580   5.300   6.842   8.878
96561SOL    HW291581   5.234   6.782   9.000
96562SOL     OW91582  11.973  11.554   9.343
96562SOL    HW191583  12.011  11.637   9.373
96562SOL    HW291584  12.020  11.488   9.394
96563SOL     OW91585   2.285   0.923   2.133
96563SOL    HW191586   2.288   1.012   2.100
96563SOL    HW291587   2.361   0.880   2.093
96564SOL     OW91588   0.988   4.146   3.144
96564SOL    HW191589   0.916   4.188   3.097
96564SOL    HW291590   0.947   4.111   3.223
96565SOL     OW91591   1.769   1.154  13.897
96565SOL    HW191592   1.852   1.184  13.858
96565SOL    HW291593   1.701   1.188  13.839
96566SOL     OW91594  11.403   7.918  10.155
96566SOL    HW191595  11.456   7.873  10.090
96566SOL    HW291596  11.336   7.964  10.103
96567SOL     OW91597  12.303   7.808   9.833
96567SOL    HW191598  12.397   7.826   9.825
96567SOL    HW291599  12.298   7.714   9.846
96568SOL     OW91600   2.121   2.617   1.994
96568SOL    HW191601   2.165   2.535   2.012
96568SOL    HW291602   2.096   2.611   1.902
96569SOL     OW91603  12.779  12.416  12.926
96569SOL    HW191604  12.837  12.343  12.906
96569SOL    HW291605  12.730  12.388  13.003
96570SOL     OW91606   9.891  12.665  14.699
96570SOL    HW191607   9.939  12.684  14.780
96570SOL    HW291608   9.867  12.751  14.665
96571SOL     OW91609  11.182   5.455  10.475
96571SOL    HW191610  11.090   5.483  10.480
96571SOL    HW291611  11.231   5.527  10.516
96572SOL     OW91612   0.360  14.271   8.665
96572SOL    HW191613   0.270  14.286   8.691
96572SOL    HW291614   0.413  14.310   8.734
96573SOL     OW91615  11.372   7.985   6.613
96573SOL    HW191616  11.392   8.060   6.556
96573SOL    HW291617  11.292   8.011   6.659
96574SOL     OW91618   1.351  13.178   4.561
96574SOL    HW191619   1.276  13.138   4.516
96574SOL    HW291620   1.392  13.106   4.609
96575SOL     OW91621   5.440  14.475  10.595
96575SOL    HW191622   5.355  14.445  10.564
96575SOL    HW291623   5.421  14.544  10.659
96576SOL     OW91624   8.065   9.220  11.809
96576SOL    HW191625   8.078   9.125  11.821
96576SOL    HW291626   8.019   9.227  11.725
96577SOL     OW91627  10.246  12.260   8.569
96577SOL    HW191628  10.299  12.189   8.532
96577SOL    HW291629  10.155  12.232   8.555
96578SOL     OW91630   5.404  13.266  10.264
96578SOL    HW191631   5.345  13.337  10.238
96578SOL    HW291632   5.488  13.288  10.224
96579SOL     OW91633   0.993   7.457  11.548
96579SOL    HW191634   0.953   7.445  11.634
96579SOL    HW291635   0.933   7.514  11.501
96580SOL     OW91636   4.800   6.057   8.454
96580SOL    HW191637   4.858   6.111   8.401
96580SOL    HW291638   4.801   6.098   8.541
96581SOL     OW91639  14.064   0.891   9.386
96581SOL    HW191640  14.106   0.814   9.347
96581SOL    HW291641  14.085   0.962   9.326
96582SOL     OW91642   3.027  13.156  10.382
96582SOL    HW191643   3.003  13.159  10.289
96582SOL    HW291644   3.041  13.063  10.400
96583SOL     OW91645   9.772  14.678   3.206
96583SOL    HW191646   9.858  14.696   3.168
96583SOL    HW291647   9.710  14.727   3.151
96584SOL     OW91648   7.751   9.067   1.228
96584SOL    HW191649   7.770   9.095   1.138
96584SOL    HW291650   7.801   8.987   1.239
96585SOL     OW91651   1.337  10.238   8.235
96585SOL    HW191652   1.281  10.310   8.265
96585SOL    HW291653   1.295  10.206   8.156
96586SOL     OW91654   4.589   5.623   9.535
96586SOL    HW191655   4.527   5.560   9.571
96586SOL    HW291656   4.618   5.674   9.610
96587SOL     OW91657   0.457   7.940   5.767
96587SOL    HW191658   0.513   7.890   5.708
96587SOL    HW291659   0.518   7.989   5.823
96588SOL     OW91660  10.329  12.796  10.258
96588SOL    HW191661  10.337  12.815  10.351
96588SOL    HW291662  10.292  12.877  10.221
96589SOL     OW91663   7.712   4.040  12.716
96589SOL    HW191664   7.761   3.958  12.714
96589SOL    HW291665   7.685   4.054  12.625
96590SOL     OW91666  13.386  12.398  12.678
96590SOL    HW191667  13.391  12.303  12.665
96590SOL    HW291668  13.293  12.418  12.668
96591SOL     OW91669   0.929   2.129   1.703
96591SOL    HW191670   0.953   2.037   1.713
96591SOL    HW291671   0.868   2.146   1.774
96592SOL     OW91672   9.874  14.055  12.854
96592SOL    HW191673   9.857  14.001  12.777
96592SOL    HW291674   9.939  14.119  12.823
96593SOL     OW91675   3.389  12.822   6.490
96593SOL    HW191676   3.296  12.810   6.512
96593SOL    HW291677   3.432  12.742   6.522
96594SOL     OW91678   6.575  13.992  10.431
96594SOL    HW191679   6.600  14.043  10.508
96594SOL    HW291680   6.587  13.901  10.458
96595SOL     OW91681   6.163   3.167   7.781
96595SOL    HW191682   6.128   3.110   7.712
96595SOL    HW291683   6.097   3.236   7.790
96596SOL     OW91684   8.008  10.403  11.831
96596SOL    HW191685   8.023  10.482  11.882
96596SOL    HW291686   7.971  10.434  11.748
96597SOL     OW91687   1.773  10.845   7.084
96597SOL    HW191688   1.803  10.757   7.105
96597SOL    HW291689   1.847  10.902   7.106
96598SOL     OW91690   2.182   6.371   7.512
96598SOL    HW191691   2.228   6.372   7.595
96598SOL    HW291692   2.250   6.384   7.446
96599SOL     OW91693   9.533   3.870   1.352
96599SOL    HW191694   9.551   3.776   1.359
96599SOL    HW291695   9.591   3.900   1.282
96600SOL     OW91696   4.810   2.465   3.240
96600SOL    HW191697   4.872   2.535   3.222
96600SOL    HW291698   4.865   2.388   3.259
96601SOL     OW91699  10.404   6.404  13.958
96601SOL    HW191700  10.466   6.448  14.017
96601SOL    HW291701  10.456   6.380  13.882
96602SOL     OW91702   8.817  14.373  12.614
96602SOL    HW191703   8.800  14.296  12.560
96602SOL    HW291704   8.730  14.409  12.634
96603SOL     OW91705  10.798  13.335   2.574
96603SOL    HW191706  10.842  13.265   2.622
96603SOL    HW291707  10.765  13.394   2.642
96604SOL     OW91708   4.041   4.651   4.335
96604SOL    HW191709   3.985   4.591   4.383
96604SOL    HW291710   4.049   4.613   4.248
96605SOL     OW91711   8.682   0.560   5.701
96605SOL    HW191712   8.640   0.621   5.640
96605SOL    HW291713   8.770   0.548   5.665
96606SOL     OW91714   8.028  11.360   1.896
96606SOL    HW191715   7.998  11.311   1.819
96606SOL    HW291716   8.039  11.294   1.964
96607SOL     OW91717   7.448   9.854   0.370
96607SOL    HW191718   7.495   9.862   0.287
96607SOL    HW291719   7.357   9.838   0.344
96608SOL     OW91720  12.079  13.281   6.610
96608SOL    HW191721  12.152  13.226   6.583
96608SOL    HW291722  12.003  13.223   6.606
96609SOL     OW91723   1.111   4.495  14.367
96609SOL    HW191724   1.054   4.418  14.369
96609SOL    HW291725   1.107   4.529  14.456
96610SOL     OW91726  13.550   2.686   6.605
96610SOL    HW191727  13.614   2.752   6.631
96610SOL    HW291728  13.559   2.680   6.510
96611SOL     OW91729   2.338  11.944   0.534
96611SOL    HW191730   2.327  11.883   0.461
96611SOL    HW291731   2.248  11.966   0.560
96612SOL     OW91732   6.826   6.848   8.300
96612SOL    HW191733   6.910   6.803   8.293
96612SOL    HW291734   6.846   6.930   8.345
96613SOL     OW91735   8.070  10.983   3.791
96613SOL    HW191736   7.987  11.029   3.788
96613SOL    HW291737   8.064  10.926   3.868
96614SOL     OW91738   4.903  11.503  12.790
96614SOL    HW191739   4.985  11.551  12.782
96614SOL    HW291740   4.901  11.473  12.881
96615SOL     OW91741   1.974   8.567   9.754
96615SOL    HW191742   2.028   8.612   9.689
96615SOL    HW291743   2.007   8.477   9.755
96616SOL     OW91744   1.238   9.370   9.251
96616SOL    HW191745   1.181   9.366   9.174
96616SOL    HW291746   1.236   9.281   9.286
96617SOL     OW91747   6.717   6.406   0.095
96617SOL    HW191748   6.666   6.487   0.095
96617SOL    HW291749   6.760   6.405   0.181
96618SOL     OW91750   1.684   7.337  14.657
96618SOL    HW191751   1.608   7.300  14.702
96618SOL    HW291752   1.697   7.422  14.699
96619SOL     OW91753  14.560   4.329   8.317
96619SOL    HW191754  14.487   4.359   8.370
96619SOL    HW291755  14.607   4.267   8.374
96620SOL     OW91756   6.718   3.445   4.607
96620SOL    HW191757   6.767   3.406   4.535
96620SOL    HW291758   6.782   3.455   4.677
96621SOL     OW91759   9.606   1.819   9.030
96621SOL    HW191760   9.696   1.817   9.064
96621SOL    HW291761   9.554   1.854   9.103
96622SOL     OW91762   8.859   0.259   8.116
96622SOL    HW191763   8.904   0.277   8.033
96622SOL    HW291764   8.766   0.259   8.093
96623SOL     OW91765   8.200  11.210  13.033
96623SOL    HW191766   8.184  11.191  12.941
96623SOL    HW291767   8.231  11.127  13.070
96624SOL     OW91768  12.402  12.139   3.737
96624SOL    HW191769  12.376  12.076   3.669
96624SOL    HW291770  12.498  12.142   3.731
96625SOL     OW91771  14.375  14.244   4.241
96625SOL    HW191772  14.381  14.307   4.170
96625SOL    HW291773  14.436  14.275   4.308
96626SOL     OW91774  11.432  13.523  12.087
96626SOL    HW191775  11.398  13.510  11.999
96626SOL    HW291776  11.357  13.512  12.145
96627SOL     OW91777   6.919   9.246   1.418
96627SOL    HW191778   6.828   9.243   1.388
96627SOL    HW291779   6.968   9.273   1.340
96628SOL     OW91780  14.642   6.102  14.663
96628SOL    HW191781  14.720   6.153  14.644
96628SOL    HW291782  14.617   6.064  14.579
96629SOL     OW91783   7.704   6.564   9.803
96629SOL    HW191784   7.678   6.505   9.733
96629SOL    HW291785   7.676   6.520   9.883
96630SOL     OW91786   8.172  12.911  12.962
96630SOL    HW191787   8.097  12.955  13.002
96630SOL    HW291788   8.246  12.936  13.016
96631SOL     OW91789   2.111   9.895  14.162
96631SOL    HW191790   2.154   9.874  14.080
96631SOL    HW291791   2.044   9.827  14.172
96632SOL     OW91792   1.969  13.384  10.017
96632SOL    HW191793   1.950  13.443   9.943
96632SOL    HW291794   2.060  13.402  10.039
96633SOL     OW91795   0.609   9.810  12.060
96633SOL    HW191796   0.640   9.724  12.089
96633SOL    HW291797   0.579   9.853  12.140
96634SOL     OW91798   0.267   2.930   4.740
96634SOL    HW191799   0.181   2.959   4.707
96634SOL    HW291800   0.248   2.852   4.792
96635SOL     OW91801   7.477  13.775   3.014
96635SOL    HW191802   7.496  13.706   3.078
96635SOL    HW291803   7.489  13.856   3.062
96636SOL     OW91804  12.029   3.608   0.057
96636SOL    HW191805  12.122   3.610   0.034
96636SOL    HW291806  12.028   3.587   0.151
96637SOL     OW91807   3.962  14.007   1.763
96637SOL    HW191808   3.958  13.945   1.691
96637SOL    HW291809   4.026  14.072   1.736
96638SOL     OW91810   5.647   1.637   6.621
96638SOL    HW191811   5.567   1.591   6.647
96638SOL    HW291812   5.632   1.728   6.647
96639SOL     OW91813   6.260  11.613   1.000
96639SOL    HW191814   6.298  11.583   0.918
96639SOL    HW291815   6.319  11.683   1.029
96640SOL     OW91816   6.730  10.347   6.715
96640SOL    HW191817   6.769  10.279   6.660
96640SOL    HW291818   6.662  10.386   6.660
96641SOL     OW91819   1.334   8.225   3.004
96641SOL    HW191820   1.342   8.211   3.098
96641SOL    HW291821   1.391   8.299   2.985
96642SOL     OW91822   5.306  14.093   4.266
96642SOL    HW191823   5.263  14.168   4.308
96642SOL    HW291824   5.236  14.029   4.255
96643SOL     OW91825   0.096   7.328   1.526
96643SOL    HW191826   0.048   7.248   1.546
96643SOL    HW291827   0.087   7.338   1.431
96644SOL     OW91828  12.237   4.592   2.648
96644SOL    HW191829  12.203   4.549   2.726
96644SOL    HW291830  12.329   4.607   2.667
96645SOL     OW91831  13.883   8.878   4.442
96645SOL    HW191832  13.897   8.821   4.517
96645SOL    HW291833  13.789   8.877   4.428
96646SOL     OW91834   6.799   9.177   7.390
96646SOL    HW191835   6.714   9.209   7.420
96646SOL    HW291836   6.821   9.108   7.452
96647SOL     OW91837   0.963   4.484   7.005
96647SOL    HW191838   0.930   4.406   6.960
96647SOL    HW291839   1.006   4.535   6.936
96648SOL     OW91840   5.335  11.497  10.080
96648SOL    HW191841   5.380  11.539  10.007
96648SOL    HW291842   5.405  11.462  10.134
96649SOL     OW91843   6.059  12.368   8.736
96649SOL    HW191844   6.103  12.451   8.718
96649SOL    HW291845   5.980  12.371   8.680
96650SOL     OW91846  14.206  10.467   9.285
96650SOL    HW191847  14.173  10.542   9.335
96650SOL    HW291848  14.227  10.402   9.352
96651SOL     OW91849   9.242   0.961   3.778
96651SOL    HW191850   9.330   0.955   3.815
96651SOL    HW291851   9.200   0.878   3.801
96652SOL     OW91852   5.658  12.696  14.467
96652SOL    HW191853   5.712  12.752  14.523
96652SOL    HW291854   5.633  12.753  14.394
96653SOL     OW91855   7.565  11.899   4.654
96653SOL    HW191856   7.538  11.990   4.642
96653SOL    HW291857   7.538  11.877   4.744
96654SOL     OW91858   6.860  12.799   8.183
96654SOL    HW191859   6.778  12.848   8.189
96654SOL    HW291860   6.862  12.765   8.093
96655SOL     OW91861   6.859   0.315   1.607
96655SOL    HW191862   6.894   0.373   1.539
96655SOL    HW291863   6.876   0.227   1.573
96656SOL     OW91864   5.784  11.252  13.858
96656SOL    HW191865   5.768  11.346  13.849
96656SOL    HW291866   5.856  11.234  13.797
96657SOL     OW91867   8.255  10.275   1.976
96657SOL    HW191868   8.182  10.246   1.921
96657SOL    HW291869   8.224  10.357   2.015
96658SOL     OW91870   8.521  10.263   6.906
96658SOL    HW191871   8.428  10.250   6.888
96658SOL    HW291872   8.526  10.268   7.002
96659SOL     OW91873   4.425   2.298  11.015
96659SOL    HW191874   4.491   2.324  10.951
96659SOL    HW291875   4.390   2.216  10.982
96660SOL     OW91876   7.827   3.332  14.853
96660SOL    HW191877   7.799   3.292  14.770
96660SOL    HW291878   7.780   3.415  14.856
96661SOL     OW91879  10.611   0.972  12.282
96661SOL    HW191880  10.611   0.887  12.325
96661SOL    HW291881  10.519   0.987  12.258
96662SOL     OW91882   0.410  10.100   4.445
96662SOL    HW191883   0.497  10.116   4.409
96662SOL    HW291884   0.416  10.127   4.537
96663SOL     OW91885   5.982  13.964   9.283
96663SOL    HW191886   6.005  14.027   9.351
96663SOL    HW291887   5.887  13.957   9.287
96664SOL     OW91888   2.118  13.721   7.385
96664SOL    HW191889   2.075  13.688   7.464
96664SOL    HW291890   2.210  13.698   7.397
96665SOL     OW91891  10.862   1.847   0.115
96665SOL    HW191892  10.914   1.830   0.194
96665SOL    HW291893  10.922   1.894   0.057
96666SOL     OW91894  11.345  11.363   2.891
96666SOL    HW191895  11.315  11.378   2.801
96666SOL    HW291896  11.390  11.444   2.914
96667SOL     OW91897  13.213   4.578  10.893
96667SOL    HW191898  13.234   4.542  10.979
96667SOL    HW291899  13.268   4.529  10.832
96668SOL     OW91900  11.844   1.861   0.274
96668SOL    HW191901  11.764   1.864   0.221
96668SOL    HW291902  11.915   1.865   0.211
96669SOL     OW91903   4.496  10.953   5.805
96669SOL    HW191904   4.521  10.899   5.730
96669SOL    HW291905   4.486  10.892   5.877
96670SOL     OW91906   4.600  13.243  12.010
96670SOL    HW191907   4.563  13.156  12.019
96670SOL    HW291908   4.695  13.230  12.013
96671SOL     OW91909   2.349   1.587  11.036
96671SOL    HW191910   2.275   1.591  10.975
96671SOL    HW291911   2.385   1.499  11.024
96672SOL     OW91912   4.209   5.485  14.806
96672SOL    HW191913   4.158   5.406  14.819
96672SOL    HW291914   4.236   5.482  14.714
96673SOL     OW91915  13.658  11.900  11.354
96673SOL    HW191916  13.660  11.894  11.258
96673SOL    HW291917  13.568  11.924  11.374
96674SOL     OW91918   0.386   7.863  14.835
96674SOL    HW191919   0.314   7.808  14.865
96674SOL    HW291920   0.436   7.806  14.776
96675SOL     OW91921   6.369   0.126   4.671
96675SOL    HW191922   6.452   0.145   4.716
96675SOL    HW291923   6.395   0.082   4.590
96676SOL     OW91924   3.348   4.159   4.553
96676SOL    HW191925   3.387   4.160   4.640
96676SOL    HW291926   3.281   4.090   4.557
96677SOL     OW91927   8.466   9.047  13.401
96677SOL    HW191928   8.506   8.979  13.455
96677SOL    HW291929   8.390   9.076  13.453
96678SOL     OW91930  10.721   7.327  11.699
96678SOL    HW191931  10.789   7.353  11.637
96678SOL    HW291932  10.687   7.409  11.734
96679SOL     OW91933   6.669   5.434   1.743
96679SOL    HW191934   6.745   5.379   1.726
96679SOL    HW291935   6.690   5.478   1.825
96680SOL     OW91936   3.235   4.894   0.450
96680SOL    HW191937   3.280   4.860   0.373
96680SOL    HW291938   3.305   4.932   0.503
96681SOL     OW91939   3.980   6.466   1.354
96681SOL    HW191940   3.896   6.488   1.314
96681SOL    HW291941   4.002   6.542   1.408
96682SOL     OW91942  13.806   2.789  11.823
96682SOL    HW191943  13.856   2.750  11.894
96682SOL    HW291944  13.777   2.874  11.856
96683SOL     OW91945   4.389  13.409  12.673
96683SOL    HW191946   4.406  13.427  12.581
96683SOL    HW291947   4.345  13.488  12.705
96684SOL     OW91948   4.798   2.936   2.257
96684SOL    HW191949   4.719   2.937   2.203
96684SOL    HW291950   4.769   2.900   2.341
96685SOL     OW91951   9.411   5.598  13.044
96685SOL    HW191952   9.435   5.554  12.962
96685SOL    HW291953   9.405   5.527  13.108
96686SOL     OW91954   7.730   7.229   9.086
96686SOL    HW191955   7.641   7.210   9.054
96686SOL    HW291956   7.761   7.145   9.120
96687SOL     OW91957  14.273   4.852   7.931
96687SOL    HW191958  14.187   4.892   7.919
96687SOL    HW291959  14.301   4.882   8.017
96688SOL     OW91960  14.098  14.377  11.230
96688SOL    HW191961  14.163  14.369  11.299
96688SOL    HW291962  14.036  14.306  11.248
96689SOL     OW91963  13.916   5.970   5.804
96689SOL    HW191964  13.880   6.007   5.723
96689SOL    HW291965  14.006   5.947   5.781
96690SOL     OW91966  14.242  13.477  10.429
96690SOL    HW191967  14.248  13.523  10.345
96690SOL    HW291968  14.252  13.546  10.495
96691SOL     OW91969   0.730   4.394   3.721
96691SOL    HW191970   0.644   4.392   3.764
96691SOL    HW291971   0.722   4.331   3.649
96692SOL     OW91972   7.030   5.511  11.492
96692SOL    HW191973   7.118   5.477  11.473
96692SOL    HW291974   6.989   5.443  11.544
96693SOL     OW91975   1.014   7.826  10.401
96693SOL    HW191976   0.959   7.865  10.333
96693SOL    HW291977   1.098   7.812  10.358
96694SOL     OW91978   2.169   4.319   7.054
96694SOL    HW191979   2.105   4.358   6.994
96694SOL    HW291980   2.247   4.304   7.000
96695SOL     OW91981   9.246   5.465   8.358
96695SOL    HW191982   9.220   5.526   8.427
96695SOL    HW291983   9.186   5.485   8.285
96696SOL     OW91984  11.241   5.050   8.117
96696SOL    HW191985  11.166   5.007   8.158
96696SOL    HW291986  11.204   5.096   8.041
96697SOL     OW91987  12.542   1.669   4.126
96697SOL    HW191988  12.572   1.582   4.097
96697SOL    HW291989  12.451   1.673   4.097
96698SOL     OW91990   6.479   9.190   6.401
96698SOL    HW191991   6.443   9.182   6.313
96698SOL    HW291992   6.412   9.152   6.458
96699SOL     OW91993  14.219   2.579  14.664
96699SOL    HW191994  14.189   2.670  14.655
96699SOL    HW291995  14.237   2.569  14.758
96700SOL     OW91996   5.330   4.205   7.002
96700SOL    HW191997   5.344   4.265   7.076
96700SOL    HW291998   5.310   4.121   7.043
96701SOL     OW91999  13.744   7.390  13.165
96701SOL    HW192000  13.729   7.297  13.146
96701SOL    HW292001  13.804   7.419  13.095
96702SOL     OW92002   8.563   6.304   1.792
96702SOL    HW192003   8.515   6.370   1.741
96702SOL    HW292004   8.654   6.336   1.792
96703SOL     OW92005  11.862   3.580   5.432
96703SOL    HW192006  11.848   3.670   5.404
96703SOL    HW292007  11.787   3.560   5.489
96704SOL     OW92008   3.845   2.943   8.091
96704SOL    HW192009   3.896   2.889   8.031
96704SOL    HW292010   3.896   2.944   8.172
96705SOL     OW92011   6.260  12.969   3.451
96705SOL    HW192012   6.356  12.976   3.446
96705SOL    HW292013   6.228  13.054   3.421
96706SOL     OW92014   7.880   5.346   3.137
96706SOL    HW192015   7.961   5.390   3.109
96706SOL    HW292016   7.815   5.374   3.073
96707SOL     OW92017   5.571  12.293  13.544
96707SOL    HW192018   5.516  12.368  13.521
96707SOL    HW292019   5.509  12.220  13.554
96708SOL     OW92020   9.111   3.879  11.844
96708SOL    HW192021   9.189   3.933  11.838
96708SOL    HW292022   9.043   3.937  11.878
96709SOL     OW92023  13.349  13.159   0.297
96709SOL    HW192024  13.261  13.123   0.283
96709SOL    HW292025  13.334  13.244   0.339
96710SOL     OW92026   4.212  13.165   6.276
96710SOL    HW192027   4.245  13.109   6.346
96710SOL    HW292028   4.135  13.118   6.243
96711SOL     OW92029   3.623   0.644  10.580
96711SOL    HW192030   3.703   0.592  10.588
96711SOL    HW292031   3.642   0.724  10.629
96712SOL     OW92032   2.367   3.218   3.488
96712SOL    HW192033   2.328   3.220   3.401
96712SOL    HW292034   2.302   3.173   3.543
96713SOL     OW92035   6.065  13.956   0.686
96713SOL    HW192036   6.133  13.943   0.751
96713SOL    HW292037   5.987  13.982   0.736
96714SOL     OW92038   4.233  10.756  14.253
96714SOL    HW192039   4.290  10.720  14.185
96714SOL    HW292040   4.279  10.737  14.335
96715SOL     OW92041   7.596   3.098   6.048
96715SOL    HW192042   7.506   3.070   6.030
96715SOL    HW292043   7.594   3.193   6.038
96716SOL     OW92044   4.321   9.138  12.478
96716SOL    HW192045   4.334   9.087  12.558
96716SOL    HW292046   4.307   9.072  12.409
96717SOL     OW92047   0.385  14.550   5.129
96717SOL    HW192048   0.410  14.633   5.088
96717SOL    HW292049   0.292  14.541   5.111
96718SOL     OW92050  12.647  12.814  11.395
96718SOL    HW192051  12.683  12.799  11.307
96718SOL    HW292052  12.614  12.728  11.422
96719SOL     OW92053  12.992   3.192  10.263
96719SOL    HW192054  13.053   3.264  10.248
96719SOL    HW292055  13.025   3.149  10.342
96720SOL     OW92056  10.712   7.268  14.493
96720SOL    HW192057  10.660   7.241  14.417
96720SOL    HW292058  10.758   7.188  14.520
96721SOL     OW92059  11.186  11.824  10.545
96721SOL    HW192060  11.280  11.814  10.562
96721SOL    HW292061  11.151  11.736  10.551
96722SOL     OW92062   6.549   7.645   3.455
96722SOL    HW192063   6.537   7.700   3.377
96722SOL    HW292064   6.507   7.695   3.525
96723SOL     OW92065  14.801  14.758   0.045
96723SOL    HW192066  14.828  14.849   0.032
96723SOL    HW292067  14.858  14.708  14.858
96724SOL     OW92068   5.517   8.565   6.007
96724SOL    HW192069   5.499   8.555   6.101
96724SOL    HW292070   5.562   8.485   5.982
96725SOL     OW92071   3.031   2.344   7.520
96725SOL    HW192072   2.954   2.346   7.576
96725SOL    HW292073   3.096   2.397   7.568
96726SOL     OW92074  11.556   5.738   5.237
96726SOL    HW192075  11.499   5.701   5.170
96726SOL    HW292076  11.497   5.757   5.310
96727SOL     OW92077   0.016   1.208   1.461
96727SOL    HW192078   0.028   1.301   1.444
96727SOL    HW292079  14.869   1.203   1.555
96728SOL     OW92080   7.987   8.657   8.076
96728SOL    HW192081   7.897   8.686   8.065
96728SOL    HW292082   8.013   8.691   8.162
96729SOL     OW92083   7.904   2.921  10.907
96729SOL    HW192084   7.859   3.005  10.899
96729SOL    HW292085   7.982   2.941  10.959
96730SOL     OW92086   7.285   3.774   7.172
96730SOL    HW192087   7.279   3.796   7.079
96730SOL    HW292088   7.363   3.718   7.178
96731SOL     OW92089   7.730   3.504  10.658
96731SOL    HW192090   7.773   3.563  10.720
96731SOL    HW292091   7.636   3.515  10.676
96732SOL     OW92092   3.400   4.819   2.733
96732SOL    HW192093   3.461   4.844   2.803
96732SOL    HW292094   3.355   4.900   2.710
96733SOL     OW92095   1.630   9.679   8.446
96733SOL    HW192096   1.628   9.743   8.517
96733SOL    HW292097   1.626   9.732   8.366
96734SOL     OW92098   1.638   1.898  13.359
96734SOL    HW192099   1.621   1.838  13.431
96734SOL    HW292100   1.582   1.865  13.288
96735SOL     OW92101   1.060   7.031  12.875
96735SOL    HW192102   1.013   7.094  12.929
96735SOL    HW292103   1.011   7.027  12.793
96736SOL     OW92104  12.362   8.696  14.663
96736SOL    HW192105  12.444   8.658  14.632
96736SOL    HW292106  12.348   8.656  14.749
96737SOL     OW92107   3.805   8.345   1.909
96737SOL    HW192108   3.737   8.356   1.975
96737SOL    HW292109   3.864   8.418   1.924
96738SOL     OW92110   6.182  11.521  14.439
96738SOL    HW192111   6.229  11.440  14.455
96738SOL    HW292112   6.242  11.573  14.385
96739SOL     OW92113   2.308   0.909   5.100
96739SOL    HW192114   2.295   0.986   5.045
96739SOL    HW292115   2.300   0.942   5.189
96740SOL     OW92116   0.697  14.015  14.212
96740SOL    HW192117   0.736  13.982  14.293
96740SOL    HW292118   0.627  14.073  14.241
96741SOL     OW92119   5.998   7.019   9.627
96741SOL    HW192120   5.939   7.078   9.675
96741SOL    HW292121   6.036   7.074   9.559
96742SOL     OW92122   3.505   2.040  14.717
96742SOL    HW192123   3.553   2.118  14.743
96742SOL    HW292124   3.436   2.072  14.659
96743SOL     OW92125   8.595   4.079  14.131
96743SOL    HW192126   8.574   3.986  14.145
96743SOL    HW292127   8.516   4.126  14.156
96744SOL     OW92128   4.056   2.217  10.449
96744SOL    HW192129   4.147   2.189  10.456
96744SOL    HW292130   4.008   2.155  10.505
96745SOL     OW92131   8.435  12.734   1.586
96745SOL    HW192132   8.454  12.718   1.678
96745SOL    HW292133   8.463  12.824   1.570
96746SOL     OW92134  10.316  12.493   1.394
96746SOL    HW192135  10.317  12.530   1.482
96746SOL    HW292136  10.359  12.408   1.404
96747SOL     OW92137   3.666   4.200   3.406
96747SOL    HW192138   3.716   4.124   3.376
96747SOL    HW292139   3.648   4.182   3.499
96748SOL     OW92140   1.754   1.628  10.622
96748SOL    HW192141   1.825   1.682  10.589
96748SOL    HW292142   1.795   1.570  10.685
96749SOL     OW92143  10.730   3.615  13.618
96749SOL    HW192144  10.711   3.523  13.635
96749SOL    HW292145  10.767   3.647  13.701
96750SOL     OW92146   6.007   2.327  13.468
96750SOL    HW192147   6.014   2.272  13.546
96750SOL    HW292148   5.924   2.302  13.428
96751SOL     OW92149  12.695   3.511  12.543
96751SOL    HW192150  12.625   3.576  12.536
96751SOL    HW292151  12.771   3.553  12.503
96752SOL     OW92152  13.932   4.952  10.442
96752SOL    HW192153  13.897   5.020  10.383
96752SOL    HW292154  14.025   4.948  10.420
96753SOL     OW92155   3.795  10.289   1.263
96753SOL    HW192156   3.844  10.370   1.255
96753SOL    HW292157   3.832  10.246   1.340
96754SOL     OW92158   7.963  10.195   9.611
96754SOL    HW192159   7.959  10.290   9.606
96754SOL    HW292160   7.939  10.165   9.523
96755SOL     OW92161   2.135  11.403   9.239
96755SOL    HW192162   2.049  11.374   9.208
96755SOL    HW292163   2.177  11.441   9.163
96756SOL     OW92164   7.394   8.747   0.280
96756SOL    HW192165   7.484   8.719   0.293
96756SOL    HW292166   7.343   8.665   0.282
96757SOL     OW92167   9.658   9.002  10.211
96757SOL    HW192168   9.577   8.989  10.161
96757SOL    HW292169   9.648   8.946  10.288
96758SOL     OW92170   1.390   4.004  13.784
96758SOL    HW192171   1.471   3.966  13.816
96758SOL    HW292172   1.411   4.036  13.696
96759SOL     OW92173  10.512   3.297   5.175
96759SOL    HW192174  10.515   3.329   5.085
96759SOL    HW292175  10.443   3.349   5.216
96760SOL     OW92176   8.052   7.391   1.067
96760SOL    HW192177   8.052   7.304   1.107
96760SOL    HW292178   8.144   7.409   1.047
96761SOL     OW92179   5.574  12.731   9.228
96761SOL    HW192180   5.550  12.823   9.218
96761SOL    HW292181   5.523  12.686   9.160
96762SOL     OW92182  12.441  13.202   0.617
96762SOL    HW192183  12.431  13.189   0.523
96762SOL    HW292184  12.506  13.137   0.643
96763SOL     OW92185  14.048   7.474   3.714
96763SOL    HW192186  13.982   7.509   3.654
96763SOL    HW292187  14.087   7.551   3.755
96764SOL     OW92188   4.308   2.890  13.800
96764SOL    HW192189   4.231   2.935  13.766
96764SOL    HW292190   4.358   2.959  13.843
96765SOL     OW92191   3.376   5.687   2.405
96765SOL    HW192192   3.383   5.771   2.451
96765SOL    HW292193   3.332   5.708   2.323
96766SOL     OW92194  10.896  11.078  13.726
96766SOL    HW192195  10.914  11.171  13.732
96766SOL    HW292196  10.801  11.072  13.717
96767SOL     OW92197   0.968   0.682  12.307
96767SOL    HW192198   0.981   0.722  12.393
96767SOL    HW292199   0.899   0.617  12.320
96768SOL     OW92200   7.736   4.166  12.945
96768SOL    HW192201   7.715   4.120  12.864
96768SOL    HW292202   7.715   4.104  13.015
96769SOL     OW92203   6.456   0.152   9.416
96769SOL    HW192204   6.418   0.091   9.353
96769SOL    HW292205   6.545   0.167   9.384
96770SOL     OW92206   2.295  10.772   8.481
96770SOL    HW192207   2.310  10.737   8.393
96770SOL    HW292208   2.382  10.792   8.514
96771SOL     OW92209  11.499   3.722  10.809
96771SOL    HW192210  11.410   3.757  10.816
96771SOL    HW292211  11.490   3.629  10.828
96772SOL     OW92212   6.676  14.418   4.332
96772SOL    HW192213   6.708  14.503   4.302
96772SOL    HW292214   6.691  14.419   4.426
96773SOL     OW92215   0.095   8.204  11.127
96773SOL    HW192216   0.177   8.171  11.163
96773SOL    HW292217   0.027   8.162  11.180
96774SOL     OW92218   7.325   1.423   9.731
96774SOL    HW192219   7.237   1.397   9.705
96774SOL    HW292220   7.358   1.349   9.782
96775SOL     OW92221   6.243  10.902  10.786
96775SOL    HW192222   6.325  10.939  10.820
96775SOL    HW292223   6.205  10.856  10.861
96776SOL     OW92224   8.912   9.377   5.427
96776SOL    HW192225   8.882   9.449   5.482
96776SOL    HW292226   8.893   9.298   5.479
96777SOL     OW92227   5.925   9.300   2.321
96777SOL    HW192228   5.940   9.388   2.287
96777SOL    HW292229   5.952   9.305   2.413
96778SOL     OW92230   7.886   9.514   5.239
96778SOL    HW192231   7.856   9.604   5.240
96778SOL    HW292232   7.980   9.520   5.219
96779SOL     OW92233  13.414  14.266   2.380
96779SOL    HW192234  13.468  14.300   2.308
96779SOL    HW292235  13.367  14.192   2.341
96780SOL     OW92236   1.598   2.588   4.349
96780SOL    HW192237   1.546   2.510   4.328
96780SOL    HW292238   1.549   2.631   4.420
96781SOL     OW92239   9.336  13.615   5.371
96781SOL    HW192240   9.302  13.585   5.286
96781SOL    HW292241   9.431  13.613   5.360
96782SOL     OW92242   7.254   8.344   0.093
96782SOL    HW192243   7.309   8.402   0.145
96782SOL    HW292244   7.292   8.347   0.005
96783SOL     OW92245   8.006  10.246   0.571
96783SOL    HW192246   7.953  10.322   0.596
96783SOL    HW292247   7.991  10.238   0.476
96784SOL     OW92248   0.101   9.779   4.703
96784SOL    HW192249   0.017   9.795   4.746
96784SOL    HW292250   0.116   9.858   4.650
96785SOL     OW92251  13.332   2.191  10.182
96785SOL    HW192252  13.240   2.166  10.181
96785SOL    HW292253  13.380   2.107  10.180
96786SOL     OW92254   9.952   9.947   3.471
96786SOL    HW192255   9.917   9.883   3.532
96786SOL    HW292256   9.974  10.023   3.525
96787SOL     OW92257  10.445   1.175   4.780
96787SOL    HW192258  10.472   1.159   4.870
96787SOL    HW292259  10.460   1.269   4.767
96788SOL     OW92260  10.178  14.016   1.716
96788SOL    HW192261  10.200  13.934   1.761
96788SOL    HW292262  10.140  13.987   1.632
96789SOL     OW92263  11.137  14.436   4.676
96789SOL    HW192264  11.123  14.510   4.617
96789SOL    HW292265  11.052  14.423   4.719
96790SOL     OW92266   5.098   7.680   1.338
96790SOL    HW192267   5.156   7.753   1.359
96790SOL    HW292268   5.075   7.693   1.246
96791SOL     OW92269   5.131   7.580   9.608
96791SOL    HW192270   5.154   7.661   9.564
96791SOL    HW292271   5.185   7.513   9.566
96792SOL     OW92272   1.724  14.070   4.911
96792SOL    HW192273   1.692  13.984   4.884
96792SOL    HW292274   1.797  14.051   4.969
96793SOL     OW92275   4.793   7.700   3.148
96793SOL    HW192276   4.784   7.756   3.225
96793SOL    HW292277   4.729   7.733   3.086
96794SOL     OW92278   6.214  12.722  11.069
96794SOL    HW192279   6.164  12.647  11.037
96794SOL    HW292280   6.152  12.794  11.069
96795SOL     OW92281   2.232   2.887   0.274
96795SOL    HW192282   2.297   2.841   0.221
96795SOL    HW292283   2.243   2.851   0.362
96796SOL     OW92284   8.722  10.998   2.075
96796SOL    HW192285   8.817  10.998   2.085
96796SOL    HW292286   8.698  10.906   2.069
96797SOL     OW92287   2.137  10.841   5.188
96797SOL    HW192288   2.075  10.887   5.244
96797SOL    HW292289   2.180  10.910   5.138
96798SOL     OW92290  12.865  11.361   1.778
96798SOL    HW192291  12.853  11.435   1.718
96798SOL    HW292292  12.815  11.385   1.856
96799SOL     OW92293   8.646   3.238  14.831
96799SOL    HW192294   8.684   3.310   0.010
96799SOL    HW292295   8.578   3.279  14.777
96800SOL     OW92296  12.500  10.840   3.066
96800SOL    HW192297  12.570  10.823   3.003
96800SOL    HW292298  12.477  10.932   3.051
96801SOL     OW92299   1.760   1.978  14.395
96801SOL    HW192300   1.827   1.925  14.353
96801SOL    HW292301   1.792   1.992  14.484
96802SOL     OW92302   2.628   8.307   8.794
96802SOL    HW192303   2.579   8.276   8.871
96802SOL    HW292304   2.669   8.229   8.758
96803SOL     OW92305  10.066   0.163  11.724
96803SOL    HW192306  10.134   0.201  11.668
96803SOL    HW292307  10.081   0.069  11.720
96804SOL     OW92308   1.423  11.424   6.896
96804SOL    HW192309   1.352  11.410   6.958
96804SOL    HW292310   1.501  11.393   6.942
96805SOL     OW92311   3.591   3.788   4.313
96805SOL    HW192312   3.666   3.813   4.366
96805SOL    HW292313   3.628   3.769   4.227
96806SOL     OW92314   9.462  11.976   6.341
96806SOL    HW192315   9.539  11.937   6.382
96806SOL    HW292316   9.389  11.947   6.396
96807SOL     OW92317   9.335   4.303   6.014
96807SOL    HW192318   9.309   4.395   6.014
96807SOL    HW292319   9.358   4.285   6.105
96808SOL     OW92320   5.629   9.205  10.081
96808SOL    HW192321   5.601   9.154  10.158
96808SOL    HW292322   5.640   9.294  10.114
96809SOL     OW92323  13.376  13.659   8.190
96809SOL    HW192324  13.462  13.619   8.182
96809SOL    HW292325  13.393  13.753   8.201
96810SOL     OW92326   7.916   3.079   6.406
96810SOL    HW192327   7.953   2.991   6.400
96810SOL    HW292328   7.894   3.101   6.316
96811SOL     OW92329   5.676   3.111  14.709
96811SOL    HW192330   5.605   3.078  14.765
96811SOL    HW292331   5.746   3.046  14.718
96812SOL     OW92332   9.000  12.960   7.345
96812SOL    HW192333   9.054  12.954   7.424
96812SOL    HW292334   9.059  12.937   7.273
96813SOL     OW92335   9.705  14.718   4.795
96813SOL    HW192336   9.761  14.720   4.718
96813SOL    HW292337   9.747  14.779   4.857
96814SOL     OW92338   7.099   0.339   8.335
96814SOL    HW192339   7.189   0.358   8.361
96814SOL    HW292340   7.078   0.257   8.380
96815SOL     OW92341   3.699   7.877   7.460
96815SOL    HW192342   3.692   7.821   7.383
96815SOL    HW292343   3.734   7.960   7.427
96816SOL     OW92344  12.423  12.770   1.395
96816SOL    HW192345  12.329  12.754   1.391
96816SOL    HW292346  12.431  12.850   1.446
96817SOL     OW92347   0.409   0.023   1.674
96817SOL    HW192348   0.386   0.061   1.759
96817SOL    HW292349   0.325  14.864   1.638
96818SOL     OW92350   9.705  13.677  11.608
96818SOL    HW192351   9.715  13.765  11.645
96818SOL    HW292352   9.627  13.642  11.651
96819SOL     OW92353   4.352  12.806   4.019
96819SOL    HW192354   4.305  12.839   3.942
96819SOL    HW292355   4.285  12.798   4.087
96820SOL     OW92356   8.842  10.954   1.077
96820SOL    HW192357   8.929  10.974   1.111
96820SOL    HW292358   8.783  11.010   1.128
96821SOL     OW92359   4.793  11.207   9.768
96821SOL    HW192360   4.851  11.132   9.784
96821SOL    HW292361   4.835  11.280   9.814
96822SOL     OW92362   7.342   6.680   7.111
96822SOL    HW192363   7.330   6.758   7.166
96822SOL    HW292364   7.433   6.685   7.083
96823SOL     OW92365   4.873   7.907  14.771
96823SOL    HW192366   4.809   7.840  14.748
96823SOL    HW292367   4.829   7.960  14.838
96824SOL     OW92368   6.990   5.661  13.564
96824SOL    HW192369   6.934   5.647  13.487
96824SOL    HW292370   7.023   5.574  13.585
96825SOL     OW92371   4.863   9.281   4.880
96825SOL    HW192372   4.913   9.273   4.798
96825SOL    HW292373   4.893   9.363   4.919
96826SOL     OW92374   3.330   1.451   6.292
96826SOL    HW192375   3.276   1.413   6.222
96826SOL    HW292376   3.362   1.375   6.341
96827SOL     OW92377  12.835   2.643   2.089
96827SOL    HW192378  12.828   2.683   2.003
96827SOL    HW292379  12.744   2.633   2.119
96828SOL     OW92380  13.494   9.806   4.118
96828SOL    HW192381  13.419   9.865   4.132
96828SOL    HW292382  13.458   9.718   4.128
96829SOL     OW92383  11.327   0.085  14.680
96829SOL    HW192384  11.331   0.098  14.585
96829SOL    HW292385  11.281   0.001  14.690
96830SOL     OW92386  11.220  10.454  12.585
96830SOL    HW192387  11.272  10.485  12.511
96830SOL    HW292388  11.256  10.367  12.605
96831SOL     OW92389   4.451  12.062   4.296
96831SOL    HW192390   4.504  11.982   4.292
96831SOL    HW292391   4.393  12.056   4.221
96832SOL     OW92392  12.804   8.333  14.277
96832SOL    HW192393  12.728   8.345  14.219
96832SOL    HW292394  12.795   8.403  14.342
96833SOL     OW92395  13.357   7.542   4.746
96833SOL    HW192396  13.398   7.538   4.660
96833SOL    HW292397  13.422   7.505   4.806
96834SOL     OW92398   5.807  10.286   3.367
96834SOL    HW192399   5.794  10.207   3.419
96834SOL    HW292400   5.783  10.260   3.278
96835SOL     OW92401   2.321  14.478   9.948
96835SOL    HW192402   2.281  14.543  10.006
96835SOL    HW292403   2.415  14.488   9.963
96836SOL     OW92404  14.021   8.582   8.375
96836SOL    HW192405  14.060   8.498   8.348
96836SOL    HW292406  13.975   8.562   8.456
96837SOL     OW92407   9.803   4.753   7.130
96837SOL    HW192408   9.899   4.749   7.131
96837SOL    HW292409   9.782   4.774   7.039
96838SOL     OW92410   8.701  13.573   6.826
96838SOL    HW192411   8.680  13.561   6.919
96838SOL    HW292412   8.689  13.486   6.788
96839SOL     OW92413  14.423   1.029  11.662
96839SOL    HW192414  14.461   0.943  11.678
96839SOL    HW292415  14.365   1.015  11.587
96840SOL     OW92416  11.355   7.391   1.327
96840SOL    HW192417  11.361   7.311   1.379
96840SOL    HW292418  11.439   7.397   1.282
96841SOL     OW92419   7.370   0.467   0.444
96841SOL    HW192420   7.414   0.518   0.511
96841SOL    HW292421   7.434   0.458   0.374
96842SOL     OW92422   7.308   0.209  10.654
96842SOL    HW192423   7.308   0.113  10.660
96842SOL    HW292424   7.225   0.230  10.612
96843SOL     OW92425   4.140  11.123   2.300
96843SOL    HW192426   4.081  11.173   2.357
96843SOL    HW292427   4.215  11.181   2.286
96844SOL     OW92428  13.936  12.123  12.851
96844SOL    HW192429  13.998  12.059  12.885
96844SOL    HW292430  13.879  12.143  12.926
96845SOL     OW92431   9.074  11.283   3.679
96845SOL    HW192432   9.137  11.350   3.708
96845SOL    HW292433   9.042  11.243   3.759
96846SOL     OW92434  11.810   8.118   5.746
96846SOL    HW192435  11.793   8.075   5.830
96846SOL    HW292436  11.905   8.134   5.746
96847SOL     OW92437   8.679   2.354   4.569
96847SOL    HW192438   8.599   2.395   4.537
96847SOL    HW292439   8.739   2.427   4.586
96848SOL     OW92440   3.194  14.127   0.754
96848SOL    HW192441   3.264  14.149   0.692
96848SOL    HW292442   3.120  14.103   0.699
96849SOL     OW92443   5.773  10.243  11.879
96849SOL    HW192444   5.764  10.221  11.972
96849SOL    HW292445   5.846  10.304  11.876
96850SOL     OW92446   2.799   5.636  11.257
96850SOL    HW192447   2.880   5.646  11.306
96850SOL    HW292448   2.797   5.544  11.232
96851SOL     OW92449   2.956   5.045  12.266
96851SOL    HW192450   2.955   4.962  12.218
96851SOL    HW292451   2.983   5.021  12.355
96852SOL     OW92452  10.994   2.121   5.872
96852SOL    HW192453  10.981   2.196   5.814
96852SOL    HW292454  11.084   2.132   5.905
96853SOL     OW92455   5.531  11.220   3.725
96853SOL    HW192456   5.538  11.245   3.633
96853SOL    HW292457   5.446  11.175   3.732
96854SOL     OW92458   2.469   0.456   1.830
96854SOL    HW192459   2.410   0.392   1.869
96854SOL    HW292460   2.510   0.410   1.756
96855SOL     OW92461  13.827  12.975  14.634
96855SOL    HW192462  13.776  13.031  14.575
96855SOL    HW292463  13.872  13.037  14.692
96856SOL     OW92464   6.196   8.526   6.012
96856SOL    HW192465   6.132   8.579   5.965
96856SOL    HW292466   6.146   8.488   6.085
96857SOL     OW92467   4.368   4.189   2.392
96857SOL    HW192468   4.314   4.265   2.415
96857SOL    HW292469   4.434   4.224   2.332
96858SOL     OW92470  10.697   5.398   4.057
96858SOL    HW192471  10.780   5.437   4.031
96858SOL    HW292472  10.721   5.312   4.091
96859SOL     OW92473   5.108  13.575   5.223
96859SOL    HW192474   5.194  13.546   5.192
96859SOL    HW292475   5.127  13.629   5.299
96860SOL     OW92476   2.263   3.849  14.840
96860SOL    HW192477   2.304   3.849   0.055
96860SOL    HW292478   2.255   3.757  14.817
96861SOL     OW92479  14.553  11.423   9.507
96861SOL    HW192480  14.645  11.403   9.486
96861SOL    HW292481  14.522  11.472   9.431
96862SOL     OW92482  10.188   3.026   0.369
96862SOL    HW192483  10.111   2.999   0.320
96862SOL    HW292484  10.154   3.052   0.454
96863SOL     OW92485  11.595   7.698   7.594
96863SOL    HW192486  11.557   7.760   7.657
96863SOL    HW292487  11.519   7.655   7.554
96864SOL     OW92488   4.559   2.477   1.213
96864SOL    HW192489   4.494   2.428   1.164
96864SOL    HW292490   4.558   2.438   1.301
96865SOL     OW92491   8.516  13.294   8.674
96865SOL    HW192492   8.473  13.356   8.732
96865SOL    HW292493   8.609  13.301   8.696
96866SOL     OW92494   9.244  12.879   3.256
96866SOL    HW192495   9.232  12.810   3.321
96866SOL    HW292496   9.167  12.872   3.199
96867SOL     OW92497  11.893  10.404  12.677
96867SOL    HW192498  11.983  10.372  12.684
96867SOL    HW292499  11.860  10.366  12.595
96868SOL     OW92500   8.306   3.071   2.751
96868SOL    HW192501   8.352   3.022   2.682
96868SOL    HW292502   8.287   3.156   2.711
96869SOL     OW92503   6.181   9.792   8.803
96869SOL    HW192504   6.197   9.726   8.870
96869SOL    HW292505   6.180   9.743   8.721
96870SOL     OW92506  14.799   5.670   3.568
96870SOL    HW192507  14.836   5.608   3.631
96870SOL    HW292508  14.721   5.705   3.611
96871SOL     OW92509   1.472   2.370   1.415
96871SOL    HW192510   1.446   2.283   1.386
96871SOL    HW292511   1.389   2.412   1.440
96872SOL     OW92512   0.725   3.953   0.087
96872SOL    HW192513   0.692   3.972  14.871
96872SOL    HW292514   0.674   3.876   0.114
96873SOL     OW92515   7.032   5.521   5.105
96873SOL    HW192516   7.017   5.433   5.071
96873SOL    HW292517   7.112   5.513   5.157
96874SOL     OW92518   0.302   7.920  13.859
96874SOL    HW192519   0.329   7.842  13.811
96874SOL    HW292520   0.207   7.920  13.854
96875SOL     OW92521   8.632  13.899   1.718
96875SOL    HW192522   8.582  13.951   1.655
96875SOL    HW292523   8.581  13.819   1.729
96876SOL     OW92524   9.362   3.717   1.070
96876SOL    HW192525   9.457   3.707   1.065
96876SOL    HW292526   9.328   3.633   1.041
96877SOL     OW92527   2.979   2.557  12.713
96877SOL    HW192528   3.035   2.507  12.773
96877SOL    HW292529   3.038   2.584  12.642
96878SOL     OW92530   7.923  10.816   9.123
96878SOL    HW192531   7.841  10.793   9.165
96878SOL    HW292532   7.898  10.841   9.034
96879SOL     OW92533   6.018   0.902   2.058
96879SOL    HW192534   5.929   0.932   2.076
96879SOL    HW292535   6.008   0.835   1.989
96880SOL     OW92536   9.086   7.995   0.520
96880SOL    HW192537   9.170   8.023   0.485
96880SOL    HW292538   9.070   7.909   0.480
96881SOL     OW92539   2.566   0.157   2.800
96881SOL    HW192540   2.528   0.222   2.741
96881SOL    HW292541   2.541   0.187   2.887
96882SOL     OW92542  13.892   2.141   9.255
96882SOL    HW192543  13.932   2.054   9.250
96882SOL    HW292544  13.857   2.156   9.167
96883SOL     OW92545  12.183  13.620   6.893
96883SOL    HW192546  12.233  13.682   6.945
96883SOL    HW292547  12.237  13.541   6.891
96884SOL     OW92548   7.039   3.483   8.462
96884SOL    HW192549   6.946   3.506   8.453
96884SOL    HW292550   7.057   3.427   8.388
96885SOL     OW92551  12.316   4.621  11.353
96885SOL    HW192552  12.277   4.592  11.435
96885SOL    HW292553  12.407   4.591  11.358
96886SOL     OW92554  12.040   0.496  13.713
96886SOL    HW192555  12.125   0.460  13.687
96886SOL    HW292556  11.993   0.508  13.631
96887SOL     OW92557  14.225   3.156   0.183
96887SOL    HW192558  14.286   3.198   0.243
96887SOL    HW292559  14.242   3.062   0.194
96888SOL     OW92560   9.419  10.215   2.462
96888SOL    HW192561   9.365  10.136   2.470
96888SOL    HW292562   9.421  10.252   2.550
96889SOL     OW92563   1.042   1.275  10.592
96889SOL    HW192564   1.111   1.270  10.658
96889SOL    HW292565   1.065   1.351  10.538
96890SOL     OW92566   0.300  11.917   8.989
96890SOL    HW192567   0.325  11.921   9.082
96890SOL    HW292568   0.269  11.828   8.977
96891SOL     OW92569   3.263   5.578   1.218
96891SOL    HW192570   3.334   5.527   1.256
96891SOL    HW292571   3.184   5.529   1.242
96892SOL     OW92572   8.744   5.362   4.929
96892SOL    HW192573   8.785   5.321   5.006
96892SOL    HW292574   8.789   5.322   4.854
96893SOL     OW92575   0.732  13.162   1.817
96893SOL    HW192576   0.771  13.227   1.759
96893SOL    HW292577   0.706  13.211   1.895
96894SOL     OW92578  12.856   3.928  13.810
96894SOL    HW192579  12.901   3.851  13.844
96894SOL    HW292580  12.783   3.942  13.871
96895SOL     OW92581  10.019   6.275  14.704
96895SOL    HW192582  10.114   6.271  14.715
96895SOL    HW292583   9.984   6.231  14.781
96896SOL     OW92584  12.440   9.997   1.081
96896SOL    HW192585  12.533  10.017   1.075
96896SOL    HW292586  12.418  10.009   1.174
96897SOL     OW92587  10.171   4.786   0.403
96897SOL    HW192588  10.227   4.721   0.360
96897SOL    HW292589  10.229   4.860   0.418
96898SOL     OW92590   1.898   2.335   4.796
96898SOL    HW192591   1.830   2.268   4.785
96898SOL    HW292592   1.875   2.380   4.877
96899SOL     OW92593   4.014   0.546  13.489
96899SOL    HW192594   3.946   0.569  13.552
96899SOL    HW292595   4.019   0.621  13.430
96900SOL     OW92596   4.975  11.633   4.628
96900SOL    HW192597   5.004  11.580   4.554
96900SOL    HW292598   5.047  11.628   4.691
96901SOL     OW92599  10.902   8.375  11.877
96901SOL    HW192600  10.968   8.381  11.808
96901SOL    HW292601  10.918   8.451  11.933
96902SOL     OW92602   8.243   7.212  14.605
96902SOL    HW192603   8.201   7.142  14.554
96902SOL    HW292604   8.205   7.293  14.570
96903SOL     OW92605  14.579   3.083   3.333
96903SOL    HW192606  14.671   3.080   3.359
96903SOL    HW292607  14.583   3.097   3.238
96904SOL     OW92608   1.084   1.983   8.696
96904SOL    HW192609   1.116   1.967   8.607
96904SOL    HW292610   1.151   2.036   8.738
96905SOL     OW92611   6.545  12.058   2.817
96905SOL    HW192612   6.625  12.007   2.823
96905SOL    HW292613   6.521  12.055   2.724
96906SOL     OW92614  10.225   3.843  11.022
96906SOL    HW192615  10.300   3.787  11.042
96906SOL    HW292616  10.156   3.782  10.997
96907SOL     OW92617   4.822  11.678  12.412
96907SOL    HW192618   4.790  11.661  12.323
96907SOL    HW292619   4.899  11.734  12.399
96908SOL     OW92620   5.897   2.072   9.698
96908SOL    HW192621   5.914   1.979   9.706
96908SOL    HW292622   5.931   2.110   9.779
96909SOL     OW92623   4.924   5.931   9.441
96909SOL    HW192624   4.869   6.009   9.437
96909SOL    HW292625   4.952   5.917   9.350
96910SOL     OW92626  13.621   2.543   1.348
96910SOL    HW192627  13.691   2.522   1.409
96910SOL    HW292628  13.561   2.468   1.355
96911SOL     OW92629  10.060   5.005  13.319
96911SOL    HW192630   9.996   4.936  13.303
96911SOL    HW292631  10.066   5.011  13.414
96912SOL     OW92632   3.019   3.566   8.170
96912SOL    HW192633   3.058   3.552   8.084
96912SOL    HW292634   2.980   3.654   8.164
96913SOL     OW92635  14.627   4.420  11.275
96913SOL    HW192636  14.574   4.385  11.203
96913SOL    HW292637  14.716   4.422  11.240
96914SOL     OW92638  12.995   2.960   9.041
96914SOL    HW192639  13.081   3.000   9.049
96914SOL    HW292640  12.973   2.968   8.948
96915SOL     OW92641   4.747   4.748   9.325
96915SOL    HW192642   4.756   4.830   9.276
96915SOL    HW292643   4.704   4.774   9.406
96916SOL     OW92644  10.863  14.046  11.091
96916SOL    HW192645  10.774  14.063  11.122
96916SOL    HW292646  10.898  14.132  11.071
96917SOL     OW92647  12.068   6.031  12.454
96917SOL    HW192648  11.973   6.034  12.446
96917SOL    HW292649  12.097   6.119  12.431
96918SOL     OW92650   2.604   8.318   3.177
96918SOL    HW192651   2.582   8.383   3.109
96918SOL    HW292652   2.612   8.370   3.257
96919SOL     OW92653   3.894   8.452   7.022
96919SOL    HW192654   3.830   8.435   6.952
96919SOL    HW292655   3.869   8.538   7.056
96920SOL     OW92656  13.014   5.164   8.268
96920SOL    HW192657  12.931   5.200   8.300
96920SOL    HW292658  13.062   5.141   8.348
96921SOL     OW92659   0.271   4.864  10.255
96921SOL    HW192660   0.317   4.913  10.323
96921SOL    HW292661   0.306   4.898  10.173
96922SOL     OW92662  12.576   3.967  14.341
96922SOL    HW192663  12.637   4.040  14.333
96922SOL    HW292664  12.608   3.902  14.278
96923SOL     OW92665  10.430  13.891   2.955
96923SOL    HW192666  10.496  13.956   2.928
96923SOL    HW292667  10.413  13.912   3.047
96924SOL     OW92668   5.202   5.547   6.907
96924SOL    HW192669   5.171   5.461   6.881
96924SOL    HW292670   5.243   5.583   6.828
96925SOL     OW92671   4.550   6.016   7.803
96925SOL    HW192672   4.460   6.011   7.837
96925SOL    HW292673   4.604   5.980   7.873
96926SOL     OW92674  14.436   8.877   2.545
96926SOL    HW192675  14.430   8.961   2.500
96926SOL    HW292676  14.409   8.895   2.635
96927SOL     OW92677   6.875   7.602  13.797
96927SOL    HW192678   6.939   7.642  13.738
96927SOL    HW292679   6.897   7.636  13.884
96928SOL     OW92680   5.500   4.130  11.602
96928SOL    HW192681   5.504   4.086  11.517
96928SOL    HW292682   5.585   4.112  11.643
96929SOL     OW92683   2.407   6.532  10.135
96929SOL    HW192684   2.445   6.462  10.083
96929SOL    HW292685   2.469   6.545  10.207
96930SOL     OW92686   6.137  11.353   5.418
96930SOL    HW192687   6.161  11.274   5.466
96930SOL    HW292688   6.217  11.405   5.416
96931SOL     OW92689   5.456   7.639   7.355
96931SOL    HW192690   5.380   7.583   7.374
96931SOL    HW292691   5.525   7.579   7.330
96932SOL     OW92692  10.776   6.544  12.451
96932SOL    HW192693  10.729   6.627  12.460
96932SOL    HW292694  10.825   6.554  12.370
96933SOL     OW92695   2.905   1.768  14.273
96933SOL    HW192696   2.930   1.798  14.360
96933SOL    HW292697   2.870   1.846  14.230
96934SOL     OW92698  11.876   4.706  12.495
96934SOL    HW192699  11.889   4.626  12.547
96934SOL    HW292700  11.962   4.724  12.457
96935SOL     OW92701  12.464   7.079   3.560
96935SOL    HW192702  12.519   7.139   3.610
96935SOL    HW292703  12.409   7.137   3.507
96936SOL     OW92704  12.487  14.051   3.465
96936SOL    HW192705  12.418  14.029   3.528
96936SOL    HW292706  12.493  13.973   3.409
96937SOL     OW92707   5.680  12.475   2.172
96937SOL    HW192708   5.757  12.506   2.219
96937SOL    HW292709   5.640  12.410   2.229
96938SOL     OW92710  14.672  12.866   8.154
96938SOL    HW192711  14.683  12.931   8.084
96938SOL    HW292712  14.604  12.807   8.121
96939SOL     OW92713  10.213   5.799   7.352
96939SOL    HW192714  10.147   5.754   7.299
96939SOL    HW292715  10.296   5.760   7.325
96940SOL     OW92716   3.359   8.056  10.894
96940SOL    HW192717   3.430   8.092  10.948
96940SOL    HW292718   3.318   7.990  10.950
96941SOL     OW92719   8.305   0.561  13.208
96941SOL    HW192720   8.398   0.550  13.229
96941SOL    HW292721   8.282   0.483  13.158
96942SOL     OW92722   1.783  10.114   8.079
96942SOL    HW192723   1.714  10.126   8.014
96942SOL    HW292724   1.744  10.143   8.162
96943SOL     OW92725   9.190   5.370   4.330
96943SOL    HW192726   9.179   5.276   4.345
96943SOL    HW292727   9.234   5.376   4.246
96944SOL     OW92728   8.697  12.010   3.057
96944SOL    HW192729   8.786  11.979   3.073
96944SOL    HW292730   8.687  12.086   3.113
96945SOL     OW92731   9.412  11.892  12.271
96945SOL    HW192732   9.463  11.812  12.265
96945SOL    HW292733   9.451  11.950  12.206
96946SOL     OW92734   2.284  14.515   7.857
96946SOL    HW192735   2.232  14.593   7.838
96946SOL    HW292736   2.363  14.526   7.805
96947SOL     OW92737   5.324  13.453   5.738
96947SOL    HW192738   5.383  13.378   5.732
96947SOL    HW292739   5.290  13.463   5.649
96948SOL     OW92740   1.397  12.106   2.513
96948SOL    HW192741   1.402  12.147   2.600
96948SOL    HW292742   1.310  12.067   2.511
96949SOL     OW92743   6.366   5.023   3.230
96949SOL    HW192744   6.415   5.059   3.156
96949SOL    HW292745   6.429   5.019   3.301
96950SOL     OW92746   6.001   9.856  13.668
96950SOL    HW192747   5.959   9.939  13.646
96950SOL    HW292748   6.067   9.843  13.600
96951SOL     OW92749   0.763  11.105  10.233
96951SOL    HW192750   0.771  11.143  10.320
96951SOL    HW292751   0.673  11.126  10.206
96952SOL     OW92752  13.845   1.380  14.619
96952SOL    HW192753  13.793   1.405  14.695
96952SOL    HW292754  13.915   1.446  14.616
96953SOL     OW92755  12.218  12.931   5.167
96953SOL    HW192756  12.297  12.945   5.220
96953SOL    HW292757  12.231  12.987   5.090
96954SOL     OW92758  11.483  10.128   2.251
96954SOL    HW192759  11.455  10.060   2.190
96954SOL    HW292760  11.561  10.091   2.293
96955SOL     OW92761   8.814   3.478   7.315
96955SOL    HW192762   8.771   3.484   7.229
96955SOL    HW292763   8.898   3.520   7.303
96956SOL     OW92764   5.249  14.619   6.187
96956SOL    HW192765   5.253  14.674   6.265
96956SOL    HW292766   5.160  14.631   6.154
96957SOL     OW92767   1.056   7.880   9.949
96957SOL    HW192768   1.124   7.858  10.012
96957SOL    HW292769   1.096   7.860   9.864
96958SOL     OW92770   3.613  13.572   6.430
96958SOL    HW192771   3.592  13.563   6.337
96958SOL    HW292772   3.703  13.541   6.437
96959SOL     OW92773  11.223   2.772   0.107
96959SOL    HW192774  11.170   2.726   0.041
96959SOL    HW292775  11.231   2.709   0.179
96960SOL     OW92776   5.420   5.919   0.531
96960SOL    HW192777   5.345   5.923   0.589
96960SOL    HW292778   5.401   5.982   0.462
96961SOL     OW92779   0.607   7.077   8.572
96961SOL    HW192780   0.514   7.077   8.597
96961SOL    HW292781   0.652   7.112   8.649
96962SOL     OW92782   8.245  10.869  11.428
96962SOL    HW192783   8.181  10.904  11.366
96962SOL    HW292784   8.193  10.813  11.486
96963SOL     OW92785   8.735   7.342   5.926
96963SOL    HW192786   8.679   7.395   5.983
96963SOL    HW292787   8.824   7.366   5.951
96964SOL     OW92788   4.811  10.737  13.277
96964SOL    HW192789   4.776  10.821  13.245
96964SOL    HW292790   4.778  10.730  13.366
96965SOL     OW92791  10.201  13.466  13.821
96965SOL    HW192792  10.259  13.398  13.788
96965SOL    HW292793  10.254  13.513  13.886
96966SOL     OW92794   7.175   0.969   2.744
96966SOL    HW192795   7.109   0.916   2.789
96966SOL    HW292796   7.154   1.059   2.767
96967SOL     OW92797   5.106   5.725   5.638
96967SOL    HW192798   5.070   5.692   5.720
96967SOL    HW292799   5.113   5.647   5.582
96968SOL     OW92800  13.342   5.593   2.090
96968SOL    HW192801  13.284   5.620   2.018
96968SOL    HW292802  13.338   5.664   2.153
96969SOL     OW92803  10.897   6.833  12.729
96969SOL    HW192804  10.909   6.759  12.788
96969SOL    HW292805  10.803   6.851  12.732
96970SOL     OW92806  10.129   3.307   8.306
96970SOL    HW192807  10.071   3.338   8.236
96970SOL    HW292808  10.151   3.386   8.356
96971SOL     OW92809   4.170  13.497   2.102
96971SOL    HW192810   4.253  13.493   2.149
96971SOL    HW292811   4.104  13.513   2.170
96972SOL     OW92812  13.960   5.128   2.751
96972SOL    HW192813  14.018   5.132   2.676
96972SOL    HW292814  14.018   5.138   2.827
96973SOL     OW92815   0.734  14.321   0.506
96973SOL    HW192816   0.652  14.321   0.457
96973SOL    HW292817   0.728  14.399   0.562
96974SOL     OW92818   2.519   1.879   6.285
96974SOL    HW192819   2.612   1.857   6.293
96974SOL    HW292820   2.474   1.794   6.287
96975SOL     OW92821   8.910   9.206   7.823
96975SOL    HW192822   8.884   9.154   7.899
96975SOL    HW292823   8.949   9.142   7.763
96976SOL     OW92824   1.391   5.911   5.206
96976SOL    HW192825   1.474   5.958   5.209
96976SOL    HW292826   1.325   5.979   5.226
96977SOL     OW92827   6.111  11.586   2.047
96977SOL    HW192828   6.095  11.495   2.074
96977SOL    HW292829   6.066  11.638   2.113
96978SOL     OW92830   4.321   2.272   8.094
96978SOL    HW192831   4.268   2.344   8.059
96978SOL    HW292832   4.331   2.293   8.187
96979SOL     OW92833   1.710   9.957   1.178
96979SOL    HW192834   1.683   9.915   1.096
96979SOL    HW292835   1.783   9.903   1.209
96980SOL     OW92836   0.464   3.798  13.867
96980SOL    HW192837   0.379   3.761  13.841
96980SOL    HW292838   0.517   3.721  13.888
96981SOL     OW92839   2.583   6.291  10.760
96981SOL    HW192840   2.570   6.385  10.774
96981SOL    HW292841   2.541   6.249  10.835
96982SOL     OW92842  12.842   3.168   3.461
96982SOL    HW192843  12.792   3.106   3.514
96982SOL    HW292844  12.888   3.114   3.398
96983SOL     OW92845   5.045   6.486  11.505
96983SOL    HW192846   5.075   6.453  11.420
96983SOL    HW292847   5.112   6.459  11.567
96984SOL     OW92848  10.569   5.448  14.275
96984SOL    HW192849  10.545   5.520  14.217
96984SOL    HW292850  10.597   5.378  14.215
96985SOL     OW92851   8.518   4.851   2.219
96985SOL    HW192852   8.489   4.781   2.277
96985SOL    HW292853   8.539   4.807   2.137
96986SOL     OW92854   8.235   5.524   7.172
96986SOL    HW192855   8.164   5.483   7.222
96986SOL    HW292856   8.195   5.548   7.089
96987SOL     OW92857   5.772  14.451   2.769
96987SOL    HW192858   5.803  14.365   2.798
96987SOL    HW292859   5.808  14.512   2.833
96988SOL     OW92860  12.350  13.285   7.973
96988SOL    HW192861  12.298  13.365   7.963
96988SOL    HW292862  12.440  13.313   7.961
96989SOL     OW92863   7.530   6.744  10.951
96989SOL    HW192864   7.575   6.828  10.942
96989SOL    HW292865   7.495   6.745  11.040
96990SOL     OW92866  14.699   1.146   3.531
96990SOL    HW192867  14.660   1.105   3.454
96990SOL    HW292868  14.792   1.151   3.511
96991SOL     OW92869   9.773   5.786  11.263
96991SOL    HW192870   9.773   5.690  11.258
96991SOL    HW292871   9.865   5.809  11.250
96992SOL     OW92872  14.431   0.679   5.714
96992SOL    HW192873  14.359   0.620   5.737
96992SOL    HW292874  14.463   0.647   5.630
96993SOL     OW92875   7.866   1.190   8.137
96993SOL    HW192876   7.921   1.124   8.093
96993SOL    HW292877   7.796   1.207   8.074
96994SOL     OW92878   9.664   1.584  14.795
96994SOL    HW192879   9.593   1.558  14.853
96994SOL    HW292880   9.625   1.583  14.707
96995SOL     OW92881   1.433   5.232  14.570
96995SOL    HW192882   1.451   5.145  14.606
96995SOL    HW292883   1.340   5.229  14.548
96996SOL     OW92884   6.121   2.532  10.558
96996SOL    HW192885   6.084   2.454  10.599
96996SOL    HW292886   6.098   2.604  10.616
96997SOL     OW92887   9.641  12.060   4.236
96997SOL    HW192888   9.564  12.004   4.228
96997SOL    HW292889   9.650  12.101   4.150
96998SOL     OW92890   4.884  13.166  11.667
96998SOL    HW192891   4.875  13.208  11.753
96998SOL    HW292892   4.797  13.133  11.647
96999SOL     OW92893  12.161   5.233   6.885
96999SOL    HW192894  12.142   5.316   6.930
96999SOL    HW292895  12.141   5.166   6.950
97000SOL     OW92896  13.660   3.795   0.575
97000SOL    HW192897  13.681   3.880   0.615
97000SOL    HW292898  13.632   3.817   0.486
97001SOL     OW92899   7.891   9.478   4.823
97001SOL    HW192900   7.899   9.394   4.778
97001SOL    HW292901   7.803   9.477   4.861
97002SOL     OW92902   5.180   9.824  14.038
97002SOL    HW192903   5.228   9.799  14.117
97002SOL    HW292904   5.088   9.819  14.063
97003SOL     OW92905   8.693  10.766  10.273
97003SOL    HW192906   8.728  10.681  10.300
97003SOL    HW292907   8.602  10.747  10.247
97004SOL     OW92908  10.934   7.887   2.445
97004SOL    HW192909  10.860   7.836   2.411
97004SOL    HW292910  11.004   7.823   2.457
97005SOL     OW92911   7.742   8.309   4.627
97005SOL    HW192912   7.835   8.289   4.615
97005SOL    HW292913   7.738   8.404   4.621
97006SOL     OW92914   7.797   7.190   6.866
97006SOL    HW192915   7.868   7.174   6.804
97006SOL    HW292916   7.747   7.262   6.827
97007SOL     OW92917   2.717   4.384   1.416
97007SOL    HW192918   2.756   4.405   1.331
97007SOL    HW292919   2.641   4.442   1.422
97008SOL     OW92920   0.966   8.820   2.848
97008SOL    HW192921   1.023   8.883   2.803
97008SOL    HW292922   0.895   8.803   2.785
97009SOL     OW92923   3.122   9.442   9.242
97009SOL    HW192924   3.169   9.516   9.202
97009SOL    HW292925   3.064   9.411   9.172
97010SOL     OW92926   0.089  12.184   4.804
97010SOL    HW192927   0.128  12.227   4.727
97010SOL    HW292928   0.003  12.155   4.774
97011SOL     OW92929   6.966   7.945   5.596
97011SOL    HW192930   7.001   7.923   5.682
97011SOL    HW292931   6.985   7.868   5.542
97012SOL     OW92932   3.123   1.004   1.016
97012SOL    HW192933   3.073   0.950   0.954
97012SOL    HW292934   3.090   0.977   1.102
97013SOL     OW92935  12.410   2.528   8.329
97013SOL    HW192936  12.400   2.574   8.412
97013SOL    HW292937  12.322   2.523   8.293
97014SOL     OW92938   1.053   5.142  11.688
97014SOL    HW192939   1.134   5.123  11.736
97014SOL    HW292940   1.038   5.064  11.634
97015SOL     OW92941  14.538   4.418   8.670
97015SOL    HW192942  14.551   4.356   8.742
97015SOL    HW292943  14.462   4.385   8.623
97016SOL     OW92944  11.863   8.595  11.409
97016SOL    HW192945  11.893   8.587  11.318
97016SOL    HW292946  11.892   8.682  11.437
97017SOL     OW92947   1.689   0.912   5.812
97017SOL    HW192948   1.771   0.948   5.777
97017SOL    HW292949   1.663   0.845   5.749
97018SOL     OW92950  13.734   8.532   0.405
97018SOL    HW192951  13.785   8.556   0.482
97018SOL    HW292952  13.778   8.575   0.332
97019SOL     OW92953   1.038  10.429   6.610
97019SOL    HW192954   1.038  10.420   6.706
97019SOL    HW292955   1.000  10.515   6.594
97020SOL     OW92956   5.408   9.205   9.903
97020SOL    HW192957   5.482   9.184   9.960
97020SOL    HW292958   5.375   9.121   9.873
97021SOL     OW92959  13.800  14.755  11.185
97021SOL    HW192960  13.766  14.788  11.102
97021SOL    HW292961  13.841  14.672  11.164
97022SOL     OW92962   5.961   3.547   7.445
97022SOL    HW192963   5.894   3.599   7.488
97022SOL    HW292964   5.978   3.593   7.363
97023SOL     OW92965   0.552   4.929   5.407
97023SOL    HW192966   0.619   4.953   5.471
97023SOL    HW292967   0.588   4.852   5.363
97024SOL     OW92968   6.341  12.729  12.880
97024SOL    HW192969   6.371  12.725  12.971
97024SOL    HW292970   6.376  12.811  12.846
97025SOL     OW92971   5.310   3.514  14.530
97025SOL    HW192972   5.372   3.527  14.601
97025SOL    HW292973   5.313   3.595  14.480
97026SOL     OW92974   8.186   5.320   5.377
97026SOL    HW192975   8.234   5.399   5.402
97026SOL    HW292976   8.190   5.264   5.455
97027SOL     OW92977   0.994   2.548   1.768
97027SOL    HW192978   0.921   2.539   1.829
97027SOL    HW292979   1.062   2.490   1.802
97028SOL     OW92980   4.561   2.016  13.698
97028SOL    HW192981   4.494   2.007  13.765
97028SOL    HW292982   4.610   2.094  13.723
97029SOL     OW92983   6.187   9.397   6.187
97029SOL    HW192984   6.170   9.396   6.281
97029SOL    HW292985   6.110   9.355   6.148
97030SOL     OW92986   8.890  13.150   6.298
97030SOL    HW192987   8.932  13.213   6.239
97030SOL    HW292988   8.800  13.181   6.306
97031SOL     OW92989   7.150   6.286   4.194
97031SOL    HW192990   7.183   6.342   4.265
97031SOL    HW292991   7.228   6.265   4.142
97032SOL     OW92992   4.776   2.775   4.418
97032SOL    HW192993   4.768   2.808   4.508
97032SOL    HW292994   4.760   2.852   4.363
97033SOL     OW92995  13.765  14.547  13.368
97033SOL    HW192996  13.787  14.471  13.422
97033SOL    HW292997  13.688  14.585  13.410
97034SOL     OW92998   3.170   1.520  12.538
97034SOL    HW192999   3.227   1.443  12.536
97034SOL    HW293000   3.229   1.593  12.554
97035SOL     OW93001   6.211   6.575   3.176
97035SOL    HW193002   6.279   6.577   3.243
97035SOL    HW293003   6.144   6.517   3.212
97036SOL     OW93004   3.403  14.816   8.087
97036SOL    HW193005   3.351  14.852   8.159
97036SOL    HW293006   3.347  14.748   8.050
97037SOL     OW93007   1.063  11.795   7.140
97037SOL    HW193008   0.996  11.771   7.204
97037SOL    HW293009   1.124  11.850   7.189
97038SOL     OW93010  12.094   0.377   5.995
97038SOL    HW193011  12.170   0.341   6.041
97038SOL    HW293012  12.088   0.325   5.915
97039SOL     OW93013  12.811   0.172  14.587
97039SOL    HW193014  12.900   0.157  14.618
97039SOL    HW293015  12.806   0.120  14.506
97040SOL     OW93016   7.425   2.896   3.522
97040SOL    HW193017   7.402   2.897   3.429
97040SOL    HW293018   7.431   2.989   3.546
97041SOL     OW93019  11.680   0.838   5.182
97041SOL    HW193020  11.717   0.829   5.270
97041SOL    HW293021  11.707   0.926   5.153
97042SOL     OW93022   2.378  13.031  12.976
97042SOL    HW193023   2.300  12.976  12.989
97042SOL    HW293024   2.451  12.970  12.977
97043SOL     OW93025   6.793  14.731  11.436
97043SOL    HW193026   6.832  14.644  11.430
97043SOL    HW293027   6.786  14.747  11.530
97044SOL     OW93028  10.022  10.999   3.876
97044SOL    HW193029  10.078  10.933   3.917
97044SOL    HW293030   9.973  10.950   3.809
97045SOL     OW93031   8.896   1.305   2.011
97045SOL    HW193032   8.890   1.216   1.975
97045SOL    HW293033   8.990   1.322   2.015
97046SOL     OW93034  12.154  12.540  12.603
97046SOL    HW193035  12.245  12.527  12.574
97046SOL    HW293036  12.162  12.560  12.697
97047SOL     OW93037   8.927  10.939   8.658
97047SOL    HW193038   8.927  11.035   8.651
97047SOL    HW293039   8.835  10.915   8.646
97048SOL     OW93040  10.661   5.374   0.545
97048SOL    HW193041  10.645   5.366   0.639
97048SOL    HW293042  10.607   5.448   0.517
97049SOL     OW93043  11.282   4.198   3.621
97049SOL    HW193044  11.280   4.132   3.551
97049SOL    HW293045  11.315   4.150   3.697
97050SOL     OW93046  11.325  14.233   2.543
97050SOL    HW193047  11.289  14.144   2.536
97050SOL    HW293048  11.249  14.289   2.557
97051SOL     OW93049   0.566  14.680   9.102
97051SOL    HW193050   0.547  14.611   9.166
97051SOL    HW293051   0.640  14.728   9.139
97052SOL     OW93052   5.339   8.377   4.679
97052SOL    HW193053   5.405   8.384   4.610
97052SOL    HW293054   5.283   8.453   4.666
97053SOL     OW93055  12.528  12.273   7.041
97053SOL    HW193056  12.563  12.351   6.998
97053SOL    HW293057  12.593  12.205   7.023
97054SOL     OW93058   8.732  11.506   3.247
97054SOL    HW193059   8.717  11.577   3.185
97054SOL    HW293060   8.782  11.546   3.318
97055SOL     OW93061   9.958   5.085   7.272
97055SOL    HW193062   9.984   5.175   7.251
97055SOL    HW293063   9.923   5.050   7.190
97056SOL     OW93064   2.166   3.222  10.439
97056SOL    HW193065   2.172   3.240  10.533
97056SOL    HW293066   2.222   3.287  10.398
97057SOL     OW93067   2.153  14.285   5.582
97057SOL    HW193068   2.129  14.343   5.510
97057SOL    HW293069   2.131  14.197   5.551
97058SOL     OW93070   2.694   1.568   7.707
97058SOL    HW193071   2.660   1.635   7.648
97058SOL    HW293072   2.783   1.597   7.727
97059SOL     OW93073  13.579   2.282   1.865
97059SOL    HW193074  13.552   2.197   1.900
97059SOL    HW293075  13.572   2.271   1.770
97060SOL     OW93076   8.188   9.118  10.639
97060SOL    HW193077   8.201   9.026  10.663
97060SOL    HW293078   8.111   9.117  10.583
97061SOL     OW93079  14.272   4.368   4.307
97061SOL    HW193080  14.217   4.337   4.234
97061SOL    HW293081  14.214   4.426   4.357
97062SOL     OW93082  11.202  14.747   9.353
97062SOL    HW193083  11.294  14.759   9.379
97062SOL    HW293084  11.151  14.775   9.429
97063SOL     OW93085  13.300  13.291   1.791
97063SOL    HW193086  13.213  13.323   1.767
97063SOL    HW293087  13.352  13.370   1.803
97064SOL     OW93088   8.548   5.983  11.679
97064SOL    HW193089   8.549   5.972  11.774
97064SOL    HW293090   8.558   5.894  11.644
97065SOL     OW93091   8.118  13.578   9.757
97065SOL    HW193092   8.194  13.524   9.735
97065SOL    HW293093   8.058  13.565   9.683
97066SOL     OW93094  12.676  14.303   4.301
97066SOL    HW193095  12.768  14.296   4.275
97066SOL    HW293096  12.671  14.386   4.349
97067SOL     OW93097  12.202   9.535   2.426
97067SOL    HW193098  12.236   9.598   2.490
97067SOL    HW293099  12.273   9.471   2.417
97068SOL     OW93100   5.226   2.178   8.489
97068SOL    HW193101   5.273   2.139   8.416
97068SOL    HW293102   5.259   2.267   8.494
97069SOL     OW93103   9.831  11.852   2.506
97069SOL    HW193104   9.761  11.910   2.536
97069SOL    HW293105   9.830  11.861   2.411
97070SOL     OW93106  11.853   7.234   0.547
97070SOL    HW193107  11.893   7.319   0.565
97070SOL    HW293108  11.763   7.254   0.521
97071SOL     OW93109   0.370   5.150   8.473
97071SOL    HW193110   0.327   5.199   8.543
97071SOL    HW293111   0.349   5.198   8.393
97072SOL     OW93112   5.837   8.639   9.500
97072SOL    HW193113   5.929   8.660   9.516
97072SOL    HW293114   5.788   8.701   9.553
97073SOL     OW93115   9.315  11.809   8.503
97073SOL    HW193116   9.237  11.859   8.531
97073SOL    HW293117   9.280  11.740   8.446
97074SOL     OW93118  10.974   3.723   9.144
97074SOL    HW193119  10.998   3.670   9.220
97074SOL    HW293120  10.921   3.664   9.090
97075SOL     OW93121   8.550   6.061   1.543
97075SOL    HW193122   8.467   6.093   1.579
97075SOL    HW293123   8.614   6.078   1.612
97076SOL     OW93124  13.788   0.927   9.026
97076SOL    HW193125  13.846   0.920   8.950
97076SOL    HW293126  13.773   0.837   9.054
97077SOL     OW93127   9.964   2.304   9.587
97077SOL    HW193128   9.997   2.386   9.625
97077SOL    HW293129   9.978   2.315   9.493
97078SOL     OW93130   8.468   7.023   5.433
97078SOL    HW193131   8.457   7.007   5.339
97078SOL    HW293132   8.561   7.007   5.448
97079SOL     OW93133  13.875   6.329   4.019
97079SOL    HW193134  13.859   6.279   4.099
97079SOL    HW293135  13.800   6.388   4.013
97080SOL     OW93136   3.557   3.939  11.141
97080SOL    HW193137   3.478   3.984  11.112
97080SOL    HW293138   3.614   4.009  11.174
97081SOL     OW93139   8.075   5.624   9.032
97081SOL    HW193140   8.003   5.650   8.974
97081SOL    HW293141   8.060   5.675   9.112
97082SOL     OW93142  13.072   2.598  11.487
97082SOL    HW193143  12.999   2.627  11.433
97082SOL    HW293144  13.133   2.558  11.425
97083SOL     OW93145   9.396   3.568  11.756
97083SOL    HW193146   9.482   3.587  11.793
97083SOL    HW293147   9.379   3.640  11.696
97084SOL     OW93148   2.491   4.544   1.396
97084SOL    HW193149   2.479   4.631   1.359
97084SOL    HW293150   2.460   4.551   1.486
97085SOL     OW93151   6.477  12.095   2.529
97085SOL    HW193152   6.525  12.162   2.482
97085SOL    HW293153   6.495  12.014   2.481
97086SOL     OW93154  11.255   3.751   4.146
97086SOL    HW193155  11.337   3.801   4.138
97086SOL    HW293156  11.239   3.719   4.057
97087SOL     OW93157   9.618   8.095   0.049
97087SOL    HW193158   9.596   8.005   0.027
97087SOL    HW293159   9.534   8.135   0.072
97088SOL     OW93160   7.629   6.667   7.071
97088SOL    HW193161   7.638   6.572   7.064
97088SOL    HW293162   7.661   6.701   6.988
97089SOL     OW93163   0.883   8.323   3.673
97089SOL    HW193164   0.942   8.398   3.665
97089SOL    HW293165   0.842   8.333   3.759
97090SOL     OW93166  14.756   5.929   6.495
97090SOL    HW193167  14.782   6.004   6.441
97090SOL    HW293168  14.836   5.906   6.543
97091SOL     OW93169   1.599   7.933   2.959
97091SOL    HW193170   1.680   7.969   2.921
97091SOL    HW293171   1.602   7.959   3.051
97092SOL     OW93172   6.728   5.283   4.500
97092SOL    HW193173   6.746   5.197   4.537
97092SOL    HW293174   6.686   5.266   4.416
97093SOL     OW93175  11.092   3.431   8.593
97093SOL    HW193176  11.061   3.427   8.683
97093SOL    HW293177  11.013   3.447   8.541
97094SOL     OW93178   2.209  12.644  10.808
97094SOL    HW193179   2.120  12.670  10.781
97094SOL    HW293180   2.231  12.705  10.878
97095SOL     OW93181  14.452   6.310   7.184
97095SOL    HW193182  14.537   6.267   7.187
97095SOL    HW293183  14.390   6.240   7.164
97096SOL     OW93184  10.873  11.961   4.478
97096SOL    HW193185  10.908  11.970   4.389
97096SOL    HW293186  10.841  11.872   4.483
97097SOL     OW93187  11.856  11.617  10.825
97097SOL    HW193188  11.945  11.588  10.806
97097SOL    HW293189  11.809  11.538  10.851
97098SOL     OW93190   9.815   7.297  14.016
97098SOL    HW193191   9.894   7.274  13.969
97098SOL    HW293192   9.778   7.370  13.967
97099SOL     OW93193   1.108   3.313   4.926
97099SOL    HW193194   1.036   3.289   4.869
97099SOL    HW293195   1.086   3.274   5.010
97100SOL     OW93196  14.713   5.886   6.958
97100SOL    HW193197  14.728   5.860   6.867
97100SOL    HW293198  14.773   5.959   6.972
97101SOL     OW93199   7.232   7.330   9.021
97101SOL    HW193200   7.285   7.390   8.968
97101SOL    HW293201   7.186   7.386   9.083
97102SOL     OW93202   2.484  14.250   2.706
97102SOL    HW193203   2.495  14.161   2.674
97102SOL    HW293204   2.447  14.298   2.632
97103SOL     OW93205   7.810   5.644  12.347
97103SOL    HW193206   7.798   5.711  12.280
97103SOL    HW293207   7.727   5.596  12.350
97104SOL     OW93208  12.906   4.426   3.970
97104SOL    HW193209  12.970   4.390   4.030
97104SOL    HW293210  12.822   4.394   4.002
97105SOL     OW93211   5.679   1.406  11.270
97105SOL    HW193212   5.745   1.338  11.284
97105SOL    HW293213   5.673   1.451  11.355
97106SOL     OW93214  14.359   7.477   1.014
97106SOL    HW193215  14.296   7.544   0.987
97106SOL    HW293216  14.411   7.520   1.082
97107SOL     OW93217   1.563   1.133   9.858
97107SOL    HW193218   1.595   1.219   9.834
97107SOL    HW293219   1.504   1.109   9.786
97108SOL     OW93220   5.917   1.327   1.732
97108SOL    HW193221   5.872   1.257   1.684
97108SOL    HW293222   5.901   1.307   1.824
97109SOL     OW93223   1.857   6.694  13.048
97109SOL    HW193224   1.797   6.752  13.000
97109SOL    HW293225   1.908   6.753  13.103
97110SOL     OW93226   5.297   6.340   5.279
97110SOL    HW193227   5.228   6.282   5.245
97110SOL    HW293228   5.353   6.284   5.331
97111SOL     OW93229   1.616   6.446   8.897
97111SOL    HW193230   1.651   6.361   8.924
97111SOL    HW293231   1.621   6.445   8.802
97112SOL     OW93232   3.093  13.657   8.259
97112SOL    HW193233   3.155  13.690   8.324
97112SOL    HW293234   3.125  13.691   8.176
97113SOL     OW93235   2.360   4.650   4.939
97113SOL    HW193236   2.267   4.627   4.930
97113SOL    HW293237   2.369   4.733   4.892
97114SOL     OW93238  11.557   6.672  10.491
97114SOL    HW193239  11.477   6.673  10.438
97114SOL    HW293240  11.527   6.645  10.578
97115SOL     OW93241  13.870   0.024   9.520
97115SOL    HW193242  13.930  14.822   9.527
97115SOL    HW293243  13.919   0.098   9.557
97116SOL     OW93244   8.664   4.591  14.828
97116SOL    HW193245   8.729   4.602  14.759
97116SOL    HW293246   8.650   4.679  14.863
97117SOL     OW93247  13.491   9.806   8.574
97117SOL    HW193248  13.450   9.770   8.495
97117SOL    HW293249  13.584   9.810   8.552
97118SOL     OW93250   0.256  11.422  10.822
97118SOL    HW193251   0.351  11.419  10.828
97118SOL    HW293252   0.235  11.388  10.735
97119SOL     OW93253   7.093   5.663   4.875
97119SOL    HW193254   7.076   5.627   4.962
97119SOL    HW293255   7.126   5.589   4.824
97120SOL     OW93256   2.891   9.812   8.736
97120SOL    HW193257   2.813   9.833   8.684
97120SOL    HW293258   2.917   9.725   8.707
97121SOL     OW93259   9.887   4.463   0.620
97121SOL    HW193260   9.827   4.465   0.694
97121SOL    HW293261   9.932   4.548   0.623
97122SOL     OW93262  11.137  14.475   2.564
97122SOL    HW193263  11.052  14.470   2.608
97122SOL    HW293264  11.149  14.569   2.546
97123SOL     OW93265   3.937   1.165   9.523
97123SOL    HW193266   3.872   1.097   9.539
97123SOL    HW293267   3.985   1.172   9.606
97124SOL     OW93268   4.238   4.639   8.870
97124SOL    HW193269   4.257   4.562   8.923
97124SOL    HW293270   4.147   4.661   8.891
97125SOL     OW93271   8.204  11.885   9.420
97125SOL    HW193272   8.222  11.927   9.504
97125SOL    HW293273   8.182  11.794   9.442
97126SOL     OW93274   3.433   7.760   3.266
97126SOL    HW193275   3.435   7.747   3.171
97126SOL    HW293276   3.344   7.789   3.284
97127SOL     OW93277  11.702   9.714  11.281
97127SOL    HW193278  11.612   9.732  11.253
97127SOL    HW293279  11.700   9.624  11.313
97128SOL     OW93280   1.716   3.296  13.217
97128SOL    HW193281   1.642   3.242  13.245
97128SOL    HW293282   1.699   3.315  13.124
97129SOL     OW93283  11.036   7.288   3.836
97129SOL    HW193284  11.019   7.209   3.784
97129SOL    HW293285  10.955   7.301   3.886
97130SOL     OW93286   9.819  14.087   9.048
97130SOL    HW193287   9.908  14.054   9.046
97130SOL    HW293288   9.764  14.010   9.038
97131SOL     OW93289   9.363   5.933  10.988
97131SOL    HW193290   9.437   5.991  11.003
97131SOL    HW293291   9.287   5.991  10.980
97132SOL     OW93292   4.998   7.246   3.023
97132SOL    HW193293   5.024   7.332   2.991
97132SOL    HW293294   4.934   7.264   3.092
97133SOL     OW93295   4.146   1.389   9.280
97133SOL    HW193296   4.056   1.356   9.275
97133SOL    HW293297   4.191   1.327   9.337
97134SOL     OW93298   6.378   5.159   2.760
97134SOL    HW193299   6.366   5.077   2.808
97134SOL    HW293300   6.309   5.217   2.794
97135SOL     OW93301  14.569   3.078  11.525
97135SOL    HW193302  14.525   3.106  11.445
97135SOL    HW293303  14.662   3.077  11.503
97136SOL     OW93304   2.281  11.232   3.456
97136SOL    HW193305   2.319  11.174   3.389
97136SOL    HW293306   2.279  11.179   3.535
97137SOL     OW93307   1.960   5.920   0.600
97137SOL    HW193308   2.040   5.904   0.550
97137SOL    HW293309   1.913   5.987   0.551
97138SOL     OW93310   6.489   0.970  12.706
97138SOL    HW193311   6.474   1.000  12.796
97138SOL    HW293312   6.470   0.876  12.708
97139SOL     OW93313  11.848  11.566  13.831
97139SOL    HW193314  11.812  11.626  13.767
97139SOL    HW293315  11.774  11.541  13.886
97140SOL     OW93316   0.813   2.794   3.854
97140SOL    HW193317   0.837   2.712   3.896
97140SOL    HW293318   0.863   2.861   3.901
97141SOL     OW93319  10.182  11.110   6.392
97141SOL    HW193320  10.101  11.132   6.346
97141SOL    HW293321  10.204  11.022   6.362
97142SOL     OW93322   6.707   9.997   3.997
97142SOL    HW193323   6.630  10.017   3.944
97142SOL    HW293324   6.729  10.081   4.039
97143SOL     OW93325  13.216   2.537   1.795
97143SOL    HW193326  13.287   2.514   1.854
97143SOL    HW293327  13.190   2.454   1.754
97144SOL     OW93328   2.571  13.280   5.444
97144SOL    HW193329   2.631  13.354   5.436
97144SOL    HW293330   2.534  13.269   5.357
97145SOL     OW93331  10.594   7.824  14.749
97145SOL    HW193332  10.511   7.797  14.710
97145SOL    HW293333  10.576   7.911  14.785
97146SOL     OW93334  13.981   2.969   0.833
97146SOL    HW193335  14.066   3.011   0.823
97146SOL    HW293336  13.924   3.038   0.867
97147SOL     OW93337   4.938   7.033   6.223
97147SOL    HW193338   5.031   7.021   6.203
97147SOL    HW293339   4.936   7.108   6.282
97148SOL     OW93340  10.052  10.735   4.356
97148SOL    HW193341  10.115  10.712   4.288
97148SOL    HW293342   9.971  10.751   4.308
97149SOL     OW93343  10.171   7.928   5.291
97149SOL    HW193344  10.149   8.007   5.242
97149SOL    HW293345  10.133   7.943   5.378
97150SOL     OW93346   3.080   5.534  12.203
97150SOL    HW193347   3.104   5.576  12.286
97150SOL    HW293348   3.107   5.595  12.135
97151SOL     OW93349   3.789   2.908   1.312
97151SOL    HW193350   3.794   2.928   1.406
97151SOL    HW293351   3.827   2.986   1.270
97152SOL     OW93352  11.271  12.852  10.602
97152SOL    HW193353  11.324  12.839  10.681
97152SOL    HW293354  11.192  12.896  10.633
97153SOL     OW93355   5.671   8.316  11.648
97153SOL    HW193356   5.753   8.290  11.607
97153SOL    HW293357   5.686   8.304  11.742
97154SOL     OW93358   0.819   1.030   2.354
97154SOL    HW193359   0.833   1.042   2.260
97154SOL    HW293360   0.844   1.114   2.393
97155SOL     OW93361  12.312   5.979  12.850
97155SOL    HW193362  12.263   6.051  12.810
97155SOL    HW293363  12.362   5.941  12.777
97156SOL     OW93364  11.678   1.050  10.097
97156SOL    HW193365  11.728   1.114  10.046
97156SOL    HW293366  11.648   0.986  10.033
97157SOL     OW93367   2.806  11.182   9.157
97157SOL    HW193368   2.759  11.201   9.239
97157SOL    HW293369   2.801  11.087   9.147
97158SOL     OW93370   9.547   5.083  11.927
97158SOL    HW193371   9.563   5.100  11.835
97158SOL    HW293372   9.570   5.166  11.971
97159SOL     OW93373   1.175   0.029   5.504
97159SOL    HW193374   1.132  14.816   5.489
97159SOL    HW293375   1.103   0.092   5.510
97160SOL     OW93376   9.680  11.810  11.227
97160SOL    HW193377   9.611  11.865  11.191
97160SOL    HW293378   9.654  11.792  11.317
97161SOL     OW93379  12.113   9.423   5.358
97161SOL    HW193380  12.145   9.363   5.291
97161SOL    HW293381  12.078   9.498   5.310
97162SOL     OW93382   0.773  11.670  12.865
97162SOL    HW193383   0.750  11.720  12.788
97162SOL    HW293384   0.739  11.582  12.848
97163SOL     OW93385   1.416   4.986   9.354
97163SOL    HW193386   1.451   4.998   9.266
97163SOL    HW293387   1.490   4.955   9.406
97164SOL     OW93388   3.555   6.410   8.663
97164SOL    HW193389   3.500   6.388   8.738
97164SOL    HW293390   3.617   6.475   8.697
97165SOL     OW93391   8.453   9.100   6.585
97165SOL    HW193392   8.501   9.018   6.575
97165SOL    HW293393   8.368   9.074   6.622
97166SOL     OW93394   7.959   5.419  13.775
97166SOL    HW193395   7.866   5.432  13.754
97166SOL    HW293396   7.965   5.440  13.868
97167SOL     OW93397   2.293   9.089  14.796
97167SOL    HW193398   2.308   9.053   0.012
97167SOL    HW293399   2.198   9.099  14.790
97168SOL     OW93400   3.386   0.178   0.237
97168SOL    HW193401   3.408   0.089   0.267
97168SOL    HW293402   3.433   0.236   0.297
97169SOL     OW93403   0.915   3.800   4.660
97169SOL    HW193404   0.930   3.742   4.734
97169SOL    HW293405   0.964   3.880   4.681
97170SOL     OW93406   2.013  11.199  13.156
97170SOL    HW193407   1.972  11.232  13.236
97170SOL    HW293408   1.966  11.118  13.136
97171SOL     OW93409  12.783  14.397  11.941
97171SOL    HW193410  12.845  14.467  11.926
97171SOL    HW293411  12.830  14.334  11.996
97172SOL     OW93412  13.534   2.506   6.847
97172SOL    HW193413  13.530   2.491   6.752
97172SOL    HW293414  13.566   2.596   6.855
97173SOL     OW93415   1.886  12.468   3.472
97173SOL    HW193416   1.978  12.488   3.454
97173SOL    HW293417   1.841  12.551   3.457
97174SOL     OW93418   9.004  12.702   6.270
97174SOL    HW193419   9.077  12.764   6.269
97174SOL    HW293420   8.926  12.756   6.280
97175SOL     OW93421   9.468   9.525   4.301
97175SOL    HW193422   9.554   9.486   4.287
97175SOL    HW293423   9.457   9.587   4.229
97176SOL     OW93424   7.839   7.247   5.614
97176SOL    HW193425   7.928   7.281   5.609
97176SOL    HW293426   7.850   7.152   5.607
97177SOL     OW93427  11.841   3.900  10.730
97177SOL    HW193428  11.753   3.896  10.694
97177SOL    HW293429  11.871   3.989  10.712
97178SOL     OW93430   5.701  12.731   5.185
97178SOL    HW193431   5.712  12.738   5.280
97178SOL    HW293432   5.739  12.811   5.150
97179SOL     OW93433  10.425   8.267  10.111
97179SOL    HW193434  10.343   8.316  10.117
97179SOL    HW293435  10.471   8.304  10.036
97180SOL     OW93436   3.933  12.582  12.944
97180SOL    HW193437   3.967  12.531  12.871
97180SOL    HW293438   3.971  12.669  12.932
97181SOL     OW93439  11.843   4.236   6.816
97181SOL    HW193440  11.851   4.249   6.722
97181SOL    HW293441  11.933   4.230   6.847
97182SOL     OW93442  10.210   3.602   8.319
97182SOL    HW193443  10.204   3.661   8.394
97182SOL    HW293444  10.121   3.596   8.285
97183SOL     OW93445   0.484   9.235   3.181
97183SOL    HW193446   0.484   9.186   3.098
97183SOL    HW293447   0.537   9.181   3.240
97184SOL     OW93448   8.401   2.221   6.460
97184SOL    HW193449   8.342   2.194   6.531
97184SOL    HW293450   8.347   2.279   6.405
97185SOL     OW93451  13.657   6.109   5.171
97185SOL    HW193452  13.656   6.055   5.091
97185SOL    HW293453  13.634   6.048   5.241
97186SOL     OW93454   4.153   3.301  11.476
97186SOL    HW193455   4.163   3.226  11.534
97186SOL    HW293456   4.060   3.305  11.456
97187SOL     OW93457   2.590   6.017  14.083
97187SOL    HW193458   2.614   5.969  14.163
97187SOL    HW293459   2.581   6.108  14.112
97188SOL     OW93460   1.253   8.962   3.055
97188SOL    HW193461   1.308   8.992   2.982
97188SOL    HW293462   1.217   9.042   3.093
97189SOL     OW93463   4.442   8.412   7.773
97189SOL    HW193464   4.384   8.469   7.823
97189SOL    HW293465   4.485   8.357   7.839
97190SOL     OW93466   5.563   7.342   8.229
97190SOL    HW193467   5.622   7.290   8.284
97190SOL    HW293468   5.563   7.297   8.145
97191SOL     OW93469  14.332   9.261  10.233
97191SOL    HW193470  14.420   9.223  10.232
97191SOL    HW293471  14.343   9.346  10.276
97192SOL     OW93472  13.667  14.453  11.161
97192SOL    HW193473  13.595  14.478  11.103
97192SOL    HW293474  13.746  14.475  11.111
97193SOL     OW93475   3.394  11.754  13.698
97193SOL    HW193476   3.394  11.662  13.724
97193SOL    HW293477   3.305  11.784  13.715
97194SOL     OW93478  10.482   8.630   8.106
97194SOL    HW193479  10.484   8.725   8.110
97194SOL    HW293480  10.532   8.601   8.183
97195SOL     OW93481  10.485   5.360   6.572
97195SOL    HW193482  10.546   5.393   6.639
97195SOL    HW293483  10.466   5.436   6.518
97196SOL     OW93484  13.068   6.811   2.140
97196SOL    HW193485  13.110   6.833   2.223
97196SOL    HW293486  13.108   6.728   2.113
97197SOL     OW93487   7.643   2.340   0.924
97197SOL    HW193488   7.609   2.372   0.841
97197SOL    HW293489   7.567   2.304   0.969
97198SOL     OW93490  11.137   4.111   0.756
97198SOL    HW193491  11.140   4.112   0.661
97198SOL    HW293492  11.160   4.201   0.782
97199SOL     OW93493   1.975  12.392   7.595
97199SOL    HW193494   1.931  12.412   7.678
97199SOL    HW293495   2.063  12.428   7.606
97200SOL     OW93496   6.507  12.269  12.786
97200SOL    HW193497   6.505  12.262  12.690
97200SOL    HW293498   6.463  12.352  12.804
97201SOL     OW93499  14.812   2.727  10.567
97201SOL    HW193500  14.826   2.814  10.529
97201SOL    HW293501   0.029   2.690  10.574
97202SOL     OW93502   2.282   4.455  14.380
97202SOL    HW193503   2.265   4.547  14.399
97202SOL    HW293504   2.350   4.457  14.313
97203SOL     OW93505   6.963  11.271  11.477
97203SOL    HW193506   6.963  11.194  11.420
97203SOL    HW293507   7.050  11.271  11.517
97204SOL     OW93508   4.816   7.553   8.974
97204SOL    HW193509   4.752   7.482   8.970
97204SOL    HW293510   4.769   7.626   9.014
97205SOL     OW93511   1.197   6.363   7.280
97205SOL    HW193512   1.120   6.410   7.247
97205SOL    HW293513   1.261   6.432   7.299
97206SOL     OW93514   6.202   0.978   1.818
97206SOL    HW193515   6.179   0.936   1.735
97206SOL    HW293516   6.119   0.983   1.866
97207SOL     OW93517   5.969  11.991   7.822
97207SOL    HW193518   6.035  11.939   7.868
97207SOL    HW293519   5.911  12.023   7.891
97208SOL     OW93520   9.058  12.433   2.303
97208SOL    HW193521   9.081  12.525   2.313
97208SOL    HW293522   8.994  12.416   2.372
97209SOL     OW93523  13.754   7.730   9.543
97209SOL    HW193524  13.847   7.748   9.530
97209SOL    HW293525  13.751   7.679   9.625
97210SOL     OW93526   2.110  14.684  11.997
97210SOL    HW193527   2.200  14.653  11.985
97210SOL    HW293528   2.073  14.683  11.908
97211SOL     OW93529   2.322   2.781  13.465
97211SOL    HW193530   2.272   2.708  13.428
97211SOL    HW293531   2.272   2.808  13.542
97212SOL     OW93532  12.878   1.888   7.076
97212SOL    HW193533  12.895   1.974   7.114
97212SOL    HW293534  12.852   1.907   6.986
97213SOL     OW93535   4.475   8.536   7.524
97213SOL    HW193536   4.427   8.615   7.548
97213SOL    HW293537   4.493   8.493   7.608
97214SOL     OW93538   0.017  13.742  11.925
97214SOL    HW193539  14.838  13.819  11.901
97214SOL    HW293540  14.824  13.674  11.943
97215SOL     OW93541   3.393   6.154   5.152
97215SOL    HW193542   3.408   6.248   5.163
97215SOL    HW293543   3.473   6.113   5.186
97216SOL     OW93544   5.676   1.546   7.931
97216SOL    HW193545   5.770   1.560   7.929
97216SOL    HW293546   5.658   1.512   8.019
97217SOL     OW93547  13.638   6.677  11.548
97217SOL    HW193548  13.614   6.750  11.606
97217SOL    HW293549  13.621   6.709  11.460
97218SOL     OW93550   8.106   4.275  14.409
97218SOL    HW193551   8.168   4.252  14.478
97218SOL    HW293552   8.026   4.227  14.432
97219SOL     OW93553  14.114   0.669  14.751
97219SOL    HW193554  14.072   0.600  14.700
97219SOL    HW293555  14.133   0.739  14.688
97220SOL     OW93556   9.438   7.081  14.777
97220SOL    HW193557   9.531   7.095  14.759
97220SOL    HW293558   9.431   6.988  14.797
97221SOL     OW93559  11.958  11.095  12.322
97221SOL    HW193560  12.020  11.091  12.249
97221SOL    HW293561  11.879  11.053  12.288
97222SOL     OW93562  13.621  12.266   4.910
97222SOL    HW193563  13.566  12.318   4.968
97222SOL    HW293564  13.707  12.309   4.914
97223SOL     OW93565   9.130  12.783   5.543
97223SOL    HW193566   9.115  12.850   5.610
97223SOL    HW293567   9.157  12.833   5.465
97224SOL     OW93568   1.705   4.371  13.196
97224SOL    HW193569   1.631   4.406  13.246
97224SOL    HW293570   1.684   4.392  13.105
97225SOL     OW93571   0.569   4.725  11.856
97225SOL    HW193572   0.475   4.707  11.860
97225SOL    HW293573   0.610   4.645  11.890
97226SOL     OW93574  12.735   9.999   7.603
97226SOL    HW193575  12.796  10.013   7.675
97226SOL    HW293576  12.736  10.082   7.555
97227SOL     OW93577   3.059  14.744   8.848
97227SOL    HW193578   3.029  14.831   8.822
97227SOL    HW293579   3.107  14.758   8.930
97228SOL     OW93580  14.657   5.020   7.189
97228SOL    HW193581  14.705   4.969   7.123
97228SOL    HW293582  14.576   5.045   7.146
97229SOL     OW93583  13.990  12.043   8.582
97229SOL    HW193584  14.015  12.033   8.673
97229SOL    HW293585  14.035  11.973   8.536
97230SOL     OW93586   1.052   6.573  11.521
97230SOL    HW193587   1.006   6.577  11.605
97230SOL    HW293588   1.018   6.493  11.480
97231SOL     OW93589   7.071   2.859  11.414
97231SOL    HW193590   7.042   2.823  11.497
97231SOL    HW293591   6.991   2.895  11.374
97232SOL     OW93592   5.398  14.092  13.766
97232SOL    HW193593   5.490  14.097  13.792
97232SOL    HW293594   5.350  14.125  13.842
97233SOL     OW93595   4.347   0.487  10.460
97233SOL    HW193596   4.328   0.577  10.431
97233SOL    HW293597   4.308   0.481  10.547
97234SOL     OW93598  13.884  10.964   8.958
97234SOL    HW193599  13.881  10.870   8.939
97234SOL    HW293600  13.891  10.969   9.053
97235SOL     OW93601  14.686   9.799   5.456
97235SOL    HW193602  14.653   9.823   5.370
97235SOL    HW293603  14.710   9.882   5.497
97236SOL     OW93604  10.441  14.229   6.848
97236SOL    HW193605  10.527  14.187   6.855
97236SOL    HW293606  10.401  14.190   6.771
97237SOL     OW93607   6.036   7.164   0.072
97237SOL    HW193608   5.957   7.210   0.102
97237SOL    HW293609   6.104   7.231   0.072
97238SOL     OW93610  14.578   4.957  10.655
97238SOL    HW193611  14.593   4.888  10.590
97238SOL    HW293612  14.591   4.913  10.739
97239SOL     OW93613   6.389   8.854   5.831
97239SOL    HW193614   6.410   8.935   5.877
97239SOL    HW293615   6.411   8.872   5.740
97240SOL     OW93616   1.964  14.604   9.849
97240SOL    HW193617   1.994  14.527   9.897
97240SOL    HW293618   1.877  14.623   9.884
97241SOL     OW93619   5.880  11.706   5.315
97241SOL    HW193620   5.936  11.775   5.351
97241SOL    HW293621   5.851  11.741   5.231
97242SOL     OW93622   1.903   3.369   5.966
97242SOL    HW193623   1.988   3.413   5.953
97242SOL    HW293624   1.840   3.440   5.971
97243SOL     OW93625   2.015  12.684   1.916
97243SOL    HW193626   2.002  12.621   1.987
97243SOL    HW293627   2.086  12.740   1.948
97244SOL     OW93628   9.260   5.748  11.380
97244SOL    HW193629   9.340   5.780  11.339
97244SOL    HW293630   9.194   5.753  11.311
97245SOL     OW93631   5.180   5.055   2.866
97245SOL    HW193632   5.134   5.014   2.793
97245SOL    HW293633   5.119   5.048   2.939
97246SOL     OW93634   1.227   3.185  11.725
97246SOL    HW193635   1.209   3.097  11.690
97246SOL    HW293636   1.217   3.243  11.649
97247SOL     OW93637  13.847  12.591   7.005
97247SOL    HW193638  13.910  12.533   6.962
97247SOL    HW293639  13.899  12.665   7.035
97248SOL     OW93640   2.266   9.035  10.764
97248SOL    HW193641   2.349   8.994  10.739
97248SOL    HW293642   2.209   8.961  10.789
97249SOL     OW93643   5.407   3.130   4.136
97249SOL    HW193644   5.315   3.148   4.119
97249SOL    HW293645   5.442   3.212   4.171
97250SOL     OW93646   1.809   6.928  12.680
97250SOL    HW193647   1.842   6.839  12.691
97250SOL    HW293648   1.765   6.927  12.595
97251SOL     OW93649   8.207   1.765  14.120
97251SOL    HW193650   8.171   1.729  14.201
97251SOL    HW293651   8.157   1.722  14.051
97252SOL     OW93652  14.200   0.806  11.729
97252SOL    HW193653  14.177   0.899  11.724
97252SOL    HW293654  14.209   0.789  11.823
97253SOL     OW93655  12.941   3.066  14.610
97253SOL    HW193656  12.882   3.108  14.548
97253SOL    HW293657  12.944   3.126  14.685
97254SOL     OW93658   8.422   6.814   9.413
97254SOL    HW193659   8.460   6.757   9.479
97254SOL    HW293660   8.425   6.763   9.332
97255SOL     OW93661   9.078   1.746   7.261
97255SOL    HW193662   9.118   1.833   7.262
97255SOL    HW293663   9.007   1.753   7.197
97256SOL     OW93664   5.932   2.791  13.670
97256SOL    HW193665   5.966   2.756  13.752
97256SOL    HW293666   5.955   2.725  13.604
97257SOL     OW93667   8.855   2.016   5.287
97257SOL    HW193668   8.780   1.991   5.340
97257SOL    HW293669   8.839   2.107   5.262
97258SOL     OW93670   0.713  14.326   2.469
97258SOL    HW193671   0.680  14.272   2.540
97258SOL    HW293672   0.807  14.311   2.470
97259SOL     OW93673   7.128  11.081  12.472
97259SOL    HW193674   7.205  11.135  12.457
97259SOL    HW293675   7.156  10.992  12.450
97260SOL     OW93676   1.850   0.629  11.862
97260SOL    HW193677   1.852   0.724  11.861
97260SOL    HW293678   1.942   0.602  11.862
97261SOL     OW93679   4.261  10.520  13.519
97261SOL    HW193680   4.192  10.531  13.584
97261SOL    HW293681   4.223  10.555  13.438
97262SOL     OW93682   9.869   9.982  14.535
97262SOL    HW193683   9.806  10.030  14.588
97262SOL    HW293684   9.876  10.032  14.453
97263SOL     OW93685   9.148   0.504   6.535
97263SOL    HW193686   9.221   0.463   6.582
97263SOL    HW293687   9.188   0.537   6.454
97264SOL     OW93688   9.669  11.220   8.430
97264SOL    HW193689   9.753  11.264   8.424
97264SOL    HW293690   9.606  11.282   8.395
97265SOL     OW93691   8.506  10.119   4.617
97265SOL    HW193692   8.474  10.065   4.546
97265SOL    HW293693   8.427  10.156   4.657
97266SOL     OW93694  12.232   1.532   0.499
97266SOL    HW193695  12.153   1.485   0.527
97266SOL    HW293696  12.200   1.618   0.471
97267SOL     OW93697  11.052   0.721   9.575
97267SOL    HW193698  11.072   0.638   9.530
97267SOL    HW293699  11.079   0.789   9.513
97268SOL     OW93700   3.476   3.329   7.967
97268SOL    HW193701   3.453   3.344   7.875
97268SOL    HW293702   3.429   3.398   8.014
97269SOL     OW93703  13.819   1.559   2.573
97269SOL    HW193704  13.792   1.467   2.578
97269SOL    HW293705  13.851   1.569   2.483
97270SOL     OW93706  14.621  14.213   3.648
97270SOL    HW193707  14.586  14.302   3.651
97270SOL    HW293708  14.619  14.190   3.555
97271SOL     OW93709   6.261  14.560   3.910
97271SOL    HW193710   6.192  14.592   3.967
97271SOL    HW293711   6.342  14.595   3.948
97272SOL     OW93712   0.989   6.512   5.108
97272SOL    HW193713   0.895   6.494   5.108
97272SOL    HW293714   1.010   6.525   5.201
97273SOL     OW93715   5.485   5.094  14.697
97273SOL    HW193716   5.537   5.094  14.778
97273SOL    HW293717   5.529   5.159  14.642
97274SOL     OW93718   2.678   9.576   4.219
97274SOL    HW193719   2.621   9.562   4.144
97274SOL    HW293720   2.752   9.626   4.184
97275SOL     OW93721  12.252   6.592   9.091
97275SOL    HW193722  12.172   6.642   9.105
97275SOL    HW293723  12.306   6.648   9.036
97276SOL     OW93724   2.678  14.597   1.671
97276SOL    HW193725   2.598  14.620   1.718
97276SOL    HW293726   2.713  14.680   1.639
97277SOL     OW93727  10.184   0.731   6.200
97277SOL    HW193728  10.106   0.785   6.211
97277SOL    HW293729  10.168   0.654   6.255
97278SOL     OW93730   7.296   4.555   5.432
97278SOL    HW193731   7.208   4.520   5.421
97278SOL    HW293732   7.334   4.504   5.503
97279SOL     OW93733   1.283   3.738   6.238
97279SOL    HW193734   1.189   3.738   6.254
97279SOL    HW293735   1.315   3.656   6.277
97280SOL     OW93736  12.228   6.596   1.634
97280SOL    HW193737  12.321   6.586   1.654
97280SOL    HW293738  12.192   6.641   1.710
97281SOL     OW93739  12.179   9.075   7.012
97281SOL    HW193740  12.221   9.052   7.095
97281SOL    HW293741  12.155   9.167   7.022
97282SOL     OW93742  11.712   2.456  12.053
97282SOL    HW193743  11.763   2.375  12.058
97282SOL    HW293744  11.772   2.524  12.084
97283SOL     OW93745   2.653   4.899   8.269
97283SOL    HW193746   2.677   4.962   8.337
97283SOL    HW293747   2.679   4.942   8.187
97284SOL     OW93748  10.129   6.552  11.254
97284SOL    HW193749  10.045   6.562  11.300
97284SOL    HW293750  10.153   6.460  11.268
97285SOL     OW93751  13.093   0.456   4.156
97285SOL    HW193752  13.074   0.550   4.158
97285SOL    HW293753  13.112   0.434   4.247
97286SOL     OW93754   8.391   1.288   8.888
97286SOL    HW193755   8.474   1.336   8.877
97286SOL    HW293756   8.328   1.337   8.836
97287SOL     OW93757   0.056   1.830  10.037
97287SOL    HW193758   0.145   1.851  10.065
97287SOL    HW293759   0.018   1.785  10.112
97288SOL     OW93760  12.839  13.382   5.377
97288SOL    HW193761  12.758  13.336   5.401
97288SOL    HW293762  12.887  13.318   5.324
97289SOL     OW93763   8.434  13.493   0.655
97289SOL    HW193764   8.463  13.483   0.564
97289SOL    HW293765   8.477  13.573   0.685
97290SOL     OW93766   9.651   6.131   0.488
97290SOL    HW193767   9.672   6.037   0.493
97290SOL    HW293768   9.691   6.160   0.406
97291SOL     OW93769   5.209   1.586  11.687
97291SOL    HW193770   5.144   1.648  11.652
97291SOL    HW293771   5.293   1.622  11.658
97292SOL     OW93772  13.662   8.865   1.158
97292SOL    HW193773  13.723   8.873   1.085
97292SOL    HW293774  13.580   8.903   1.126
97293SOL     OW93775   3.174   0.155   6.310
97293SOL    HW193776   3.245   0.092   6.319
97293SOL    HW293777   3.216   0.240   6.318
97294SOL     OW93778   4.763   3.996   8.257
97294SOL    HW193779   4.840   3.980   8.312
97294SOL    HW293780   4.730   4.081   8.286
97295SOL     OW93781   1.778   1.066   7.970
97295SOL    HW193782   1.792   1.107   7.885
97295SOL    HW293783   1.714   1.122   8.013
97296SOL     OW93784   0.724   3.661   3.743
97296SOL    HW193785   0.713   3.577   3.699
97296SOL    HW293786   0.816   3.683   3.730
97297SOL     OW93787   7.134  11.853   3.107
97297SOL    HW193788   7.060  11.848   3.168
97297SOL    HW293789   7.131  11.943   3.074
97298SOL     OW93790  11.795   5.690   2.432
97298SOL    HW193791  11.840   5.694   2.517
97298SOL    HW293792  11.704   5.673   2.454
97299SOL     OW93793   0.071  14.474   1.860
97299SOL    HW193794   0.018  14.523   1.797
97299SOL    HW293795   0.160  14.506   1.847
97300SOL     OW93796   9.204   4.550   4.338
97300SOL    HW193797   9.224   4.522   4.428
97300SOL    HW293798   9.110   4.539   4.330
97301SOL     OW93799  12.081   7.223   1.682
97301SOL    HW193800  12.001   7.256   1.723
97301SOL    HW293801  12.146   7.290   1.700
97302SOL     OW93802   8.449   8.128   3.510
97302SOL    HW193803   8.516   8.125   3.579
97302SOL    HW293804   8.478   8.200   3.453
97303SOL     OW93805   6.820   1.840  10.212
97303SOL    HW193806   6.779   1.760  10.244
97303SOL    HW293807   6.747   1.898  10.191
97304SOL     OW93808   0.385  13.109   5.755
97304SOL    HW193809   0.450  13.100   5.685
97304SOL    HW293810   0.359  13.201   5.752
97305SOL     OW93811  13.047   3.193  13.135
97305SOL    HW193812  13.138   3.224  13.137
97305SOL    HW293813  12.995   3.272  13.152
97306SOL     OW93814  13.688   7.908   0.956
97306SOL    HW193815  13.676   7.984   1.013
97306SOL    HW293816  13.601   7.869   0.949
97307SOL     OW93817   1.868  13.328  13.510
97307SOL    HW193818   1.834  13.351  13.597
97307SOL    HW293819   1.808  13.368  13.448
97308SOL     OW93820   3.903   4.362   5.904
97308SOL    HW193821   3.934   4.310   5.978
97308SOL    HW293822   3.975   4.422   5.885
97309SOL     OW93823  11.995   2.391   9.009
97309SOL    HW193824  12.091   2.390   9.016
97309SOL    HW293825  11.964   2.372   9.098
97310SOL     OW93826   9.803   0.191  10.637
97310SOL    HW193827   9.790   0.263  10.698
97310SOL    HW293828   9.850   0.230  10.563
97311SOL     OW93829   6.646  12.866   7.513
97311SOL    HW193830   6.635  12.781   7.557
97311SOL    HW293831   6.737  12.890   7.531
97312SOL     OW93832   1.579  13.110  14.625
97312SOL    HW193833   1.648  13.102  14.691
97312SOL    HW293834   1.611  13.175  14.563
97313SOL     OW93835   5.269   8.438   7.940
97313SOL    HW193836   5.245   8.348   7.917
97313SOL    HW293837   5.359   8.431   7.972
97314SOL     OW93838  13.291  10.356   7.971
97314SOL    HW193839  13.305  10.450   7.954
97314SOL    HW293840  13.196  10.346   7.973
97315SOL     OW93841   3.157   5.113   7.500
97315SOL    HW193842   3.099   5.188   7.486
97315SOL    HW293843   3.099   5.041   7.520
97316SOL     OW93844   5.426  11.766  11.587
97316SOL    HW193845   5.470  11.736  11.508
97316SOL    HW293846   5.482  11.737  11.659
97317SOL     OW93847   5.844   5.003  12.523
97317SOL    HW193848   5.865   5.088  12.562
97317SOL    HW293849   5.760   5.017  12.479
97318SOL     OW93850   0.800   1.469   6.479
97318SOL    HW193851   0.845   1.407   6.423
97318SOL    HW293852   0.712   1.475   6.442
97319SOL     OW93853   6.412  11.280   0.046
97319SOL    HW193854   6.416  11.202   0.101
97319SOL    HW293855   6.337  11.329   0.079
97320SOL     OW93856  14.815   2.117  13.846
97320SOL    HW193857  14.829   2.044  13.786
97320SOL    HW293858  14.736   2.094  13.895
97321SOL     OW93859   8.067   7.989   7.227
97321SOL    HW193860   8.118   8.053   7.178
97321SOL    HW293861   8.056   7.915   7.168
97322SOL     OW93862  14.698   0.995   6.668
97322SOL    HW193863  14.726   0.932   6.601
97322SOL    HW293864  14.777   1.012   6.720
97323SOL     OW93865   5.842   4.651   3.432
97323SOL    HW193866   5.751   4.672   3.453
97323SOL    HW293867   5.836   4.591   3.357
97324SOL     OW93868   2.186  11.056   9.096
97324SOL    HW193869   2.174  10.971   9.054
97324SOL    HW293870   2.113  11.109   9.065
97325SOL     OW93871  12.570   6.770   8.355
97325SOL    HW193872  12.530   6.831   8.417
97325SOL    HW293873  12.544   6.802   8.269
97326SOL     OW93874   9.130  11.859  12.636
97326SOL    HW193875   9.135  11.876  12.543
97326SOL    HW293876   9.086  11.774  12.642
97327SOL     OW93877  10.895  12.497  13.817
97327SOL    HW193878  10.910  12.451  13.899
97327SOL    HW293879  10.863  12.430  13.757
97328SOL     OW93880  10.983   4.094   2.188
97328SOL    HW193881  10.930   4.077   2.265
97328SOL    HW293882  11.037   4.016   2.177
97329SOL     OW93883   2.051   8.991  14.508
97329SOL    HW193884   2.010   8.993  14.594
97329SOL    HW293885   2.142   8.968  14.525
97330SOL     OW93886   5.443  11.486   3.358
97330SOL    HW193887   5.439  11.482   3.262
97330SOL    HW293888   5.417  11.575   3.379
97331SOL     OW93889   2.239  13.815   9.070
97331SOL    HW193890   2.331  13.810   9.044
97331SOL    HW293891   2.228  13.743   9.132
97332SOL     OW93892   6.236   1.496   7.717
97332SOL    HW193893   6.278   1.577   7.745
97332SOL    HW293894   6.204   1.456   7.797
97333SOL     OW93895   4.866   5.976   3.711
97333SOL    HW193896   4.872   5.896   3.764
97333SOL    HW293897   4.941   5.971   3.652
97334SOL     OW93898   6.636   1.486   1.315
97334SOL    HW193899   6.632   1.555   1.380
97334SOL    HW293900   6.558   1.433   1.331
97335SOL     OW93901   8.885  14.140   6.361
97335SOL    HW193902   8.963  14.183   6.325
97335SOL    HW293903   8.894  14.152   6.456
97336SOL     OW93904  10.294   9.346  13.573
97336SOL    HW193905  10.332   9.392  13.648
97336SOL    HW293906  10.200   9.354  13.585
97337SOL     OW93907   0.705  11.473  12.473
97337SOL    HW193908   0.628  11.495  12.420
97337SOL    HW293909   0.675  11.404  12.531
97338SOL     OW93910   3.898   5.857  13.386
97338SOL    HW193911   3.912   5.763  13.387
97338SOL    HW293912   3.985   5.895  13.398
97339SOL     OW93913  10.878   6.647  11.615
97339SOL    HW193914  10.901   6.667  11.706
97339SOL    HW293915  10.879   6.731  11.571
97340SOL     OW93916   6.774  13.717  12.579
97340SOL    HW193917   6.798  13.705  12.487
97340SOL    HW293918   6.692  13.669  12.588
97341SOL     OW93919   3.946   0.686   6.587
97341SOL    HW193920   3.981   0.763   6.542
97341SOL    HW293921   3.993   0.612   6.548
97342SOL     OW93922  14.287  14.766   5.915
97342SOL    HW193923  14.216  14.755   5.977
97342SOL    HW293924  14.338  14.839   5.950
97343SOL     OW93925  13.187  14.627  12.110
97343SOL    HW193926  13.257  14.562  12.102
97343SOL    HW293927  13.106  14.576  12.112
97344SOL     OW93928   3.469   3.127   0.863
97344SOL    HW193929   3.556   3.154   0.892
97344SOL    HW293930   3.416   3.130   0.943
97345SOL     OW93931   1.452  14.000  10.017
97345SOL    HW193932   1.515  14.038  10.077
97345SOL    HW293933   1.370  13.997  10.067
97346SOL     OW93934  13.718   7.104   1.602
97346SOL    HW193935  13.679   7.134   1.684
97346SOL    HW293936  13.796   7.055   1.629
97347SOL     OW93937  12.430   3.871   7.103
97347SOL    HW193938  12.491   3.894   7.174
97347SOL    HW293939  12.405   3.780   7.122
97348SOL     OW93940  11.595   7.822  13.752
97348SOL    HW193941  11.643   7.770  13.687
97348SOL    HW293942  11.663   7.857  13.810
97349SOL     OW93943  13.471  11.686   2.719
97349SOL    HW193944  13.515  11.740   2.653
97349SOL    HW293945  13.387  11.663   2.679
97350SOL     OW93946   6.825   7.673   2.750
97350SOL    HW193947   6.845   7.745   2.690
97350SOL    HW293948   6.907   7.624   2.756
97351SOL     OW93949   0.542   1.093   6.330
97351SOL    HW193950   0.545   1.146   6.410
97351SOL    HW293951   0.530   1.003   6.362
97352SOL     OW93952   0.524  10.412   6.824
97352SOL    HW193953   0.440  10.393   6.866
97352SOL    HW293954   0.553  10.494   6.864
97353SOL     OW93955  10.530   7.786   7.851
97353SOL    HW193956  10.484   7.723   7.795
97353SOL    HW293957  10.622   7.775   7.829
97354SOL     OW93958  13.582   2.266  11.655
97354SOL    HW193959  13.622   2.224  11.732
97354SOL    HW293960  13.514   2.323  11.692
97355SOL     OW93961  10.279   2.187   0.838
97355SOL    HW193962  10.250   2.096   0.830
97355SOL    HW293963  10.366   2.180   0.878
97356SOL     OW93964   0.342  10.729  14.109
97356SOL    HW193965   0.276  10.734  14.040
97356SOL    HW293966   0.301  10.678  14.178
97357SOL     OW93967   5.986  10.880  11.851
97357SOL    HW193968   5.954  10.837  11.772
97357SOL    HW293969   5.915  10.870  11.915
97358SOL     OW93970   3.697   1.399   6.669
97358SOL    HW193971   3.622   1.400   6.728
97358SOL    HW293972   3.704   1.308   6.639
97359SOL     OW93973  11.080   2.166   2.583
97359SOL    HW193974  11.147   2.105   2.612
97359SOL    HW293975  11.109   2.251   2.618
97360SOL     OW93976  12.087  11.260   3.856
97360SOL    HW193977  12.143  11.223   3.788
97360SOL    HW293978  12.144  11.268   3.932
97361SOL     OW93979   5.712   1.285   7.349
97361SOL    HW193980   5.696   1.313   7.439
97361SOL    HW293981   5.723   1.366   7.299
97362SOL     OW93982   3.789   4.817  13.925
97362SOL    HW193983   3.796   4.874  13.849
97362SOL    HW293984   3.774   4.876  13.998
97363SOL     OW93985   6.199  13.348  14.176
97363SOL    HW193986   6.230  13.332  14.265
97363SOL    HW293987   6.273  13.390  14.132
97364SOL     OW93988   5.514   8.644  11.792
97364SOL    HW193989   5.484   8.722  11.839
97364SOL    HW293990   5.488   8.659  11.702
97365SOL     OW93991   3.222  12.403   0.633
97365SOL    HW193992   3.294  12.464   0.614
97365SOL    HW293993   3.257  12.346   0.702
97366SOL     OW93994  10.070   7.971   0.180
97366SOL    HW193995  10.141   7.915   0.210
97366SOL    HW293996  10.031   7.923   0.107
97367SOL     OW93997   6.029  12.973  10.502
97367SOL    HW193998   6.091  12.945  10.569
97367SOL    HW293999   5.988  12.893  10.471
97368SOL     OW94000   7.227   5.875   2.829
97368SOL    HW194001   7.160   5.820   2.788
97368SOL    HW294002   7.179   5.926   2.894
97369SOL     OW94003   3.988   3.323   7.944
97369SOL    HW194004   3.914   3.301   8.000
97369SOL    HW294005   3.970   3.412   7.913
97370SOL     OW94006  10.808   2.829   8.009
97370SOL    HW194007  10.843   2.773   7.941
97370SOL    HW294008  10.784   2.910   7.964
97371SOL     OW94009   0.336  10.056   2.583
97371SOL    HW194010   0.244  10.059   2.611
97371SOL    HW294011   0.333  10.021   2.495
97372SOL     OW94012   4.158   9.514  10.262
97372SOL    HW194013   4.096   9.443  10.244
97372SOL    HW294014   4.214   9.479  10.332
97373SOL     OW94015  11.795  14.674  10.637
97373SOL    HW194016  11.799  14.591  10.590
97373SOL    HW294017  11.848  14.734  10.585
97374SOL     OW94018   7.630  12.182   1.192
97374SOL    HW194019   7.586  12.175   1.107
97374SOL    HW294020   7.686  12.259   1.183
97375SOL     OW94021   8.853   1.901   3.346
97375SOL    HW194022   8.834   1.988   3.312
97375SOL    HW294023   8.928   1.913   3.403
97376SOL     OW94024   1.698  13.914  12.013
97376SOL    HW194025   1.734  13.999  11.987
97376SOL    HW294026   1.773  13.865  12.046
97377SOL     OW94027   7.731   7.669   8.807
97377SOL    HW194028   7.639   7.644   8.804
97377SOL    HW294029   7.744   7.722   8.728
97378SOL     OW94030  13.873   1.987   4.861
97378SOL    HW194031  13.777   1.992   4.856
97378SOL    HW294032  13.904   2.062   4.811
97379SOL     OW94033   5.445   5.223  12.050
97379SOL    HW194034   5.449   5.302  11.995
97379SOL    HW294035   5.524   5.228  12.104
97380SOL     OW94036   2.793   5.927  13.892
97380SOL    HW194037   2.861   5.884  13.945
97380SOL    HW294038   2.713   5.918  13.944
97381SOL     OW94039   9.462   8.231  12.898
97381SOL    HW194040   9.551   8.216  12.931
97381SOL    HW294041   9.435   8.147  12.863
97382SOL     OW94042  14.769   6.198  12.704
97382SOL    HW194043  14.759   6.133  12.774
97382SOL    HW294044  14.795   6.147  12.627
97383SOL     OW94045   2.472  10.240   0.810
97383SOL    HW194046   2.463  10.325   0.767
97383SOL    HW294047   2.413  10.182   0.761
97384SOL     OW94048  13.260  13.543   6.955
97384SOL    HW194049  13.250  13.639   6.953
97384SOL    HW294050  13.282  13.523   7.046
97385SOL     OW94051   5.895  14.436  10.349
97385SOL    HW194052   5.815  14.385  10.362
97385SOL    HW294053   5.865  14.519  10.314
97386SOL     OW94054   2.471  11.182   6.738
97386SOL    HW194055   2.457  11.131   6.658
97386SOL    HW294056   2.396  11.243   6.740
97387SOL     OW94057   1.207   2.932  11.618
97387SOL    HW194058   1.283   2.904  11.567
97387SOL    HW294059   1.179   2.853  11.665
97388SOL     OW94060   1.644   6.888   3.752
97388SOL    HW194061   1.604   6.973   3.773
97388SOL    HW294062   1.738   6.908   3.743
97389SOL     OW94063   3.086   2.233  14.381
97389SOL    HW194064   3.072   2.277  14.297
97389SOL    HW294065   3.042   2.290  14.445
97390SOL     OW94066   9.136   1.570   2.883
97390SOL    HW194067   9.109   1.588   2.973
97390SOL    HW294068   9.178   1.651   2.854
97391SOL     OW94069  10.681  14.750   3.221
97391SOL    HW194070  10.637  14.746   3.136
97391SOL    HW294071  10.760  14.801   3.205
97392SOL     OW94072   3.125   1.223   8.621
97392SOL    HW194073   3.057   1.286   8.647
97392SOL    HW294074   3.079   1.160   8.566
97393SOL     OW94075   4.858   2.633   9.631
97393SOL    HW194076   4.919   2.705   9.651
97393SOL    HW294077   4.795   2.671   9.570
97394SOL     OW94078   7.217  10.940   8.754
97394SOL    HW194079   7.228  10.854   8.714
97394SOL    HW294080   7.171  10.922   8.836
97395SOL     OW94081   1.056  12.008   9.718
97395SOL    HW194082   1.041  11.914   9.717
97395SOL    HW294083   1.110  12.025   9.640
97396SOL     OW94084   2.239  14.209  12.829
97396SOL    HW194085   2.148  14.181  12.842
97396SOL    HW294086   2.290  14.147  12.880
97397SOL     OW94087   2.954  12.173   6.854
97397SOL    HW194088   3.047  12.187   6.836
97397SOL    HW294089   2.908  12.229   6.792
97398SOL     OW94090   9.206  14.728   2.588
97398SOL    HW194091   9.166  14.808   2.621
97398SOL    HW294092   9.268  14.702   2.655
97399SOL     OW94093   6.161   0.986  11.829
97399SOL    HW194094   6.151   0.990  11.734
97399SOL    HW294095   6.161   1.077  11.858
97400SOL     OW94096  14.803   9.187   6.930
97400SOL    HW194097  14.726   9.131   6.936
97400SOL    HW294098   0.006   9.128   6.943
97401SOL     OW94099   2.238   6.243  13.912
97401SOL    HW194100   2.237   6.323  13.860
97401SOL    HW294101   2.224   6.272  14.002
97402SOL     OW94102  10.188  10.346   4.530
97402SOL    HW194103  10.279  10.358   4.555
97402SOL    HW294104  10.189  10.345   4.434
97403SOL     OW94105   8.867   4.731   6.658
97403SOL    HW194106   8.826   4.729   6.744
97403SOL    HW294107   8.854   4.643   6.623
97404SOL     OW94108   2.208   1.645  13.109
97404SOL    HW194109   2.222   1.629  13.016
97404SOL    HW294110   2.252   1.728  13.126
97405SOL     OW94111   6.124  14.861  13.746
97405SOL    HW194112   6.085  14.775  13.759
97405SOL    HW294113   6.094   0.040  13.822
97406SOL     OW94114  11.675   5.698  11.337
97406SOL    HW194115  11.653   5.655  11.254
97406SOL    HW294116  11.639   5.787  11.328
97407SOL     OW94117   1.845  12.675   9.599
97407SOL    HW194118   1.823  12.751   9.653
97407SOL    HW294119   1.761  12.645   9.564
97408SOL     OW94120  13.513  11.346  10.626
97408SOL    HW194121  13.510  11.416  10.561
97408SOL    HW294122  13.474  11.385  10.705
97409SOL     OW94123   9.363  11.799  11.996
97409SOL    HW194124   9.444  11.751  11.980
97409SOL    HW294125   9.304  11.733  12.034
97410SOL     OW94126   9.966   2.250   4.078
97410SOL    HW194127   9.945   2.175   4.022
97410SOL    HW294128   9.912   2.322   4.044
97411SOL     OW94129  10.689   3.183   1.081
97411SOL    HW194130  10.736   3.115   1.033
97411SOL    HW294131  10.750   3.257   1.083
97412SOL     OW94132   9.366  11.287   9.508
97412SOL    HW194133   9.398  11.339   9.435
97412SOL    HW294134   9.443  11.273   9.564
97413SOL     OW94135  14.045   8.125  12.890
97413SOL    HW194136  14.093   8.197  12.849
97413SOL    HW294137  14.030   8.063  12.818
97414SOL     OW94138   3.494   4.286   1.606
97414SOL    HW194139   3.494   4.338   1.526
97414SOL    HW294140   3.413   4.309   1.650
97415SOL     OW94141   5.600   8.007  14.553
97415SOL    HW194142   5.533   7.971  14.495
97415SOL    HW294143   5.586   7.961  14.636
97416SOL     OW94144   9.267   9.164   2.625
97416SOL    HW194145   9.278   9.077   2.662
97416SOL    HW294146   9.205   9.151   2.553
97417SOL     OW94147  14.250   7.648   6.498
97417SOL    HW194148  14.317   7.708   6.466
97417SOL    HW294149  14.292   7.562   6.500
97418SOL     OW94150  10.285   1.268  10.452
97418SOL    HW194151  10.300   1.260  10.546
97418SOL    HW294152  10.309   1.183  10.417
97419SOL     OW94153   3.281   4.149   9.310
97419SOL    HW194154   3.240   4.235   9.299
97419SOL    HW294155   3.275   4.109   9.223
97420SOL     OW94156  14.129  10.485   4.765
97420SOL    HW194157  14.190  10.423   4.726
97420SOL    HW294158  14.162  10.571   4.739
97421SOL     OW94159  11.150   1.090  13.011
97421SOL    HW194160  11.158   1.009  12.962
97421SOL    HW294161  11.241   1.120  13.021
97422SOL     OW94162   4.881  11.460  14.028
97422SOL    HW194163   4.834  11.407  14.092
97422SOL    HW294164   4.962  11.486  14.071
97423SOL     OW94165   8.225   2.886  14.053
97423SOL    HW194166   8.252   2.895  14.144
97423SOL    HW294167   8.168   2.809  14.052
97424SOL     OW94168   2.241   4.837  11.782
97424SOL    HW194169   2.177   4.903  11.810
97424SOL    HW294170   2.278   4.873  11.701
97425SOL     OW94171   8.528   2.277   9.733
97425SOL    HW194172   8.483   2.355   9.700
97425SOL    HW294173   8.621   2.297   9.724
97426SOL     OW94174   8.837   3.906   1.568
97426SOL    HW194175   8.803   3.923   1.480
97426SOL    HW294176   8.932   3.906   1.557
97427SOL     OW94177   9.564   1.878   7.711
97427SOL    HW194178   9.642   1.917   7.752
97427SOL    HW294179   9.595   1.845   7.627
97428SOL     OW94180   3.381  14.750   8.554
97428SOL    HW194181   3.470  14.779   8.574
97428SOL    HW294182   3.385  14.654   8.560
97429SOL     OW94183   1.490   9.097   3.868
97429SOL    HW194184   1.421   9.094   3.803
97429SOL    HW294185   1.445   9.084   3.952
97430SOL     OW94186   4.687   0.885   8.897
97430SOL    HW194187   4.630   0.900   8.822
97430SOL    HW294188   4.631   0.901   8.973
97431SOL     OW94189  12.385   4.537   6.362
97431SOL    HW194190  12.441   4.470   6.401
97431SOL    HW294191  12.368   4.505   6.273
97432SOL     OW94192  13.834   7.534  12.178
97432SOL    HW194193  13.767   7.601  12.162
97432SOL    HW294194  13.792   7.473  12.238
97433SOL     OW94195  11.729   6.581  12.672
97433SOL    HW194196  11.741   6.672  12.644
97433SOL    HW294197  11.728   6.586  12.768
97434SOL     OW94198   7.183  13.834  12.899
97434SOL    HW194199   7.154  13.918  12.937
97434SOL    HW294200   7.102  13.792  12.871
97435SOL     OW94201   8.195   1.275   8.522
97435SOL    HW194202   8.144   1.271   8.442
97435SOL    HW294203   8.285   1.290   8.492
97436SOL     OW94204   3.729   5.753   2.105
97436SOL    HW194205   3.674   5.716   2.174
97436SOL    HW294206   3.815   5.713   2.119
97437SOL     OW94207   0.059   4.895   3.128
97437SOL    HW194208   0.023   4.960   3.068
97437SOL    HW294209   0.130   4.941   3.173
97438SOL     OW94210   5.506   2.795  10.259
97438SOL    HW194211   5.599   2.813  10.244
97438SOL    HW294212   5.487   2.721  10.201
97439SOL     OW94213   7.140   7.511   6.326
97439SOL    HW194214   7.156   7.461   6.406
97439SOL    HW294215   7.154   7.449   6.255
97440SOL     OW94216  13.140  12.796  11.541
97440SOL    HW194217  13.128  12.704  11.563
97440SOL    HW294218  13.051  12.831  11.537
97441SOL     OW94219   6.467   5.381   8.090
97441SOL    HW194220   6.408   5.425   8.029
97441SOL    HW294221   6.410   5.322   8.140
97442SOL     OW94222   8.438   7.842  13.611
97442SOL    HW194223   8.465   7.855  13.520
97442SOL    HW294224   8.448   7.927  13.652
97443SOL     OW94225  11.649   4.258  13.733
97443SOL    HW194226  11.717   4.213  13.682
97443SOL    HW294227  11.659   4.351  13.710
97444SOL     OW94228   1.159   5.766  14.857
97444SOL    HW194229   1.068   5.743   0.002
97444SOL    HW294230   1.170   5.755  14.763
97445SOL     OW94231   0.701   7.764   5.157
97445SOL    HW194232   0.770   7.808   5.107
97445SOL    HW294233   0.742   7.683   5.188
97446SOL     OW94234  10.697   2.471  12.975
97446SOL    HW194235  10.663   2.422  12.900
97446SOL    HW294236  10.631   2.538  12.993
97447SOL     OW94237   4.408  11.652   2.516
97447SOL    HW194238   4.379  11.730   2.563
97447SOL    HW294239   4.351  11.648   2.439
97448SOL     OW94240   5.423   1.363   3.277
97448SOL    HW194241   5.341   1.402   3.308
97448SOL    HW294242   5.446   1.414   3.199
97449SOL     OW94243   2.195   1.729   1.432
97449SOL    HW194244   2.174   1.822   1.423
97449SOL    HW294245   2.220   1.718   1.523
97450SOL     OW94246   3.183   3.664   6.682
97450SOL    HW194247   3.207   3.717   6.606
97450SOL    HW294248   3.192   3.723   6.757
97451SOL     OW94249   1.184   9.682  11.968
97451SOL    HW194250   1.133   9.602  11.975
97451SOL    HW294251   1.267   9.654  11.929
97452SOL     OW94252   0.977   3.825   9.368
97452SOL    HW194253   1.028   3.795   9.443
97452SOL    HW294254   0.983   3.753   9.305
97453SOL     OW94255   0.684  14.343   4.777
97453SOL    HW194256   0.643  14.257   4.782
97453SOL    HW294257   0.761  14.330   4.722
97454SOL     OW94258   1.318   1.667  14.849
97454SOL    HW194259   1.302   1.633   0.066
97454SOL    HW294260   1.412   1.658  14.836
97455SOL     OW94261   7.508   0.433  14.433
97455SOL    HW194262   7.571   0.410  14.502
97455SOL    HW294263   7.521   0.527  14.420
97456SOL     OW94264   2.420  13.757   4.266
97456SOL    HW194265   2.433  13.706   4.186
97456SOL    HW294266   2.349  13.818   4.245
97457SOL     OW94267   6.096  10.535   5.090
97457SOL    HW194268   6.046  10.504   5.015
97457SOL    HW294269   6.048  10.612   5.121
97458SOL     OW94270   3.541   2.476   5.843
97458SOL    HW194271   3.617   2.442   5.891
97458SOL    HW294272   3.470   2.477   5.907
97459SOL     OW94273  10.862   3.324   8.813
97459SOL    HW194274  10.787   3.314   8.871
97459SOL    HW294275  10.829   3.299   8.727
97460SOL     OW94276   8.523   0.263   4.998
97460SOL    HW194277   8.551   0.177   4.965
97460SOL    HW294278   8.604   0.309   5.017
97461SOL     OW94279  13.026   9.222   4.383
97461SOL    HW194280  13.073   9.199   4.463
97461SOL    HW294281  12.973   9.145   4.363
97462SOL     OW94282  12.512   7.976   2.614
97462SOL    HW194283  12.525   7.881   2.607
97462SOL    HW294284  12.420   7.989   2.593
97463SOL     OW94285   0.220  14.489   1.271
97463SOL    HW194286   0.210  14.547   1.196
97463SOL    HW294287   0.132  14.455   1.287
97464SOL     OW94288  14.844   2.782  13.639
97464SOL    HW194289  14.805   2.699  13.666
97464SOL    HW294290  14.778   2.847  13.661
97465SOL     OW94291   8.429   2.876   6.647
97465SOL    HW194292   8.470   2.907   6.728
97465SOL    HW294293   8.501   2.838   6.596
97466SOL     OW94294  11.460  13.954   6.501
97466SOL    HW194295  11.478  13.883   6.562
97466SOL    HW294296  11.395  13.919   6.441
97467SOL     OW94297  12.981  13.894  11.287
97467SOL    HW194298  13.069  13.870  11.319
97467SOL    HW294299  12.927  13.895  11.366
97468SOL     OW94300   1.232   6.398  11.637
97468SOL    HW194301   1.174   6.341  11.687
97468SOL    HW294302   1.174   6.456  11.589
97469SOL     OW94303   2.988   8.703  14.363
97469SOL    HW194304   2.950   8.651  14.434
97469SOL    HW294305   3.002   8.641  14.292
97470SOL     OW94306   8.508   0.523  14.654
97470SOL    HW194307   8.450   0.595  14.629
97470SOL    HW294308   8.597   0.559  14.645
97471SOL     OW94309   0.692  10.418   8.172
97471SOL    HW194310   0.742  10.488   8.130
97471SOL    HW294311   0.604  10.428   8.137
97472SOL     OW94312   8.234  11.947   2.181
97472SOL    HW194313   8.237  11.867   2.129
97472SOL    HW294314   8.255  11.918   2.270
97473SOL     OW94315  11.599   3.140   1.261
97473SOL    HW194316  11.611   3.234   1.266
97473SOL    HW294317  11.628   3.107   1.346
97474SOL     OW94318   2.093   6.221   5.693
97474SOL    HW194319   2.020   6.177   5.648
97474SOL    HW294320   2.077   6.314   5.679
97475SOL     OW94321  13.681   1.764   0.654
97475SOL    HW194322  13.654   1.720   0.574
97475SOL    HW294323  13.700   1.854   0.627
97476SOL     OW94324   9.131  10.510   3.574
97476SOL    HW194325   9.044  10.478   3.551
97476SOL    HW294326   9.115  10.586   3.631
97477SOL     OW94327  13.185  13.925  12.171
97477SOL    HW194328  13.214  13.835  12.159
97477SOL    HW294329  13.238  13.975  12.109
97478SOL     OW94330   5.540  11.114   7.736
97478SOL    HW194331   5.525  11.175   7.663
97478SOL    HW294332   5.510  11.029   7.703
97479SOL     OW94333   3.834  10.998  13.412
97479SOL    HW194334   3.872  10.963  13.331
97479SOL    HW294335   3.776  10.928  13.443
97480SOL     OW94336   8.674   6.811   2.995
97480SOL    HW194337   8.743   6.746   2.982
97480SOL    HW294338   8.717   6.883   3.041
97481SOL     OW94339  11.334   8.502   4.782
97481SOL    HW194340  11.347   8.575   4.843
97481SOL    HW294341  11.330   8.544   4.696
97482SOL     OW94342   5.556  14.183  11.495
97482SOL    HW194343   5.574  14.277  11.481
97482SOL    HW294344   5.496  14.181  11.569
97483SOL     OW94345   5.458   8.177   1.408
97483SOL    HW194346   5.411   8.094   1.405
97483SOL    HW294347   5.423   8.227   1.334
97484SOL     OW94348  10.204   5.075   0.721
97484SOL    HW194349  10.275   5.070   0.785
97484SOL    HW294350  10.183   4.984   0.701
97485SOL     OW94351   1.161   5.887   4.561
97485SOL    HW194352   1.081   5.893   4.614
97485SOL    HW294353   1.209   5.814   4.599
97486SOL     OW94354   1.337   6.301   6.984
97486SOL    HW194355   1.342   6.394   6.960
97486SOL    HW294356   1.244   6.279   6.974
97487SOL     OW94357   2.004  11.109  10.751
97487SOL    HW194358   1.998  11.164  10.829
97487SOL    HW294359   2.094  11.076  10.751
97488SOL     OW94360   7.956  10.514   1.389
97488SOL    HW194361   8.022  10.469   1.336
97488SOL    HW294362   7.924  10.584   1.332
97489SOL     OW94363   5.155   9.027  14.646
97489SOL    HW194364   5.101   9.023  14.567
97489SOL    HW294365   5.177   9.120  14.655
97490SOL     OW94366   1.251   0.890   1.948
97490SOL    HW194367   1.305   0.824   1.905
97490SOL    HW294368   1.259   0.871   2.041
97491SOL     OW94369   7.090  11.874   0.255
97491SOL    HW194370   7.120  11.878   0.164
97491SOL    HW294371   6.996  11.855   0.249
97492SOL     OW94372  13.883   3.473   8.600
97492SOL    HW194373  13.859   3.485   8.508
97492SOL    HW294374  13.830   3.399   8.629
97493SOL     OW94375   7.275   1.468   2.797
97493SOL    HW194376   7.207   1.530   2.824
97493SOL    HW294377   7.336   1.520   2.745
97494SOL     OW94378   2.923   8.994  13.557
97494SOL    HW194379   2.861   8.923  13.542
97494SOL    HW294380   2.995   8.976  13.497
97495SOL     OW94381   9.012  10.427   2.478
97495SOL    HW194382   9.051  10.465   2.399
97495SOL    HW294383   8.999  10.502   2.536
97496SOL     OW94384  11.350   9.684   3.913
97496SOL    HW194385  11.349   9.588   3.915
97496SOL    HW294386  11.364   9.705   3.821
97497SOL     OW94387   6.133  12.965   7.781
97497SOL    HW194388   6.217  12.922   7.764
97497SOL    HW294389   6.095  12.916   7.854
97498SOL     OW94390  11.019  14.551  14.688
97498SOL    HW194391  10.939  14.525  14.642
97498SOL    HW294392  11.046  14.473  14.735
97499SOL     OW94393   0.864   0.216   8.077
97499SOL    HW194394   0.944   0.255   8.042
97499SOL    HW294395   0.878   0.214   8.172
97500SOL     OW94396   1.022   3.469  13.201
97500SOL    HW194397   0.949   3.462  13.263
97500SOL    HW294398   0.990   3.529  13.133
97501SOL     OW94399   3.989   8.462  12.370
97501SOL    HW194400   3.965   8.526  12.303
97501SOL    HW294401   4.034   8.512  12.437
97502SOL     OW94402   6.198   7.745  10.604
97502SOL    HW194403   6.126   7.808  10.603
97502SOL    HW294404   6.166   7.671  10.654
97503SOL     OW94405   9.179   0.388  10.365
97503SOL    HW194406   9.154   0.471  10.405
97503SOL    HW294407   9.224   0.340  10.435
97504SOL     OW94408  11.122  13.133   6.988
97504SOL    HW194409  11.193  13.193   7.012
97504SOL    HW294410  11.167  13.051   6.965
97505SOL     OW94411   7.031   0.194   6.259
97505SOL    HW194412   6.985   0.234   6.186
97505SOL    HW294413   7.119   0.175   6.225
97506SOL     OW94414  12.647   2.017   6.657
97506SOL    HW194415  12.705   2.045   6.728
97506SOL    HW294416  12.574   1.974   6.701
97507SOL     OW94417   1.156   8.994   2.257
97507SOL    HW194418   1.128   8.938   2.185
97507SOL    HW294419   1.074   9.024   2.297
97508SOL     OW94420   1.838   7.262  11.242
97508SOL    HW194421   1.775   7.227  11.305
97508SOL    HW294422   1.810   7.352  11.228
97509SOL     OW94423   3.904   1.448   1.233
97509SOL    HW194424   3.864   1.501   1.163
97509SOL    HW294425   3.901   1.504   1.310
97510SOL     OW94426  12.529   6.857  14.358
97510SOL    HW194427  12.575   6.932  14.397
97510SOL    HW294428  12.515   6.883  14.267
97511SOL     OW94429   3.640   8.644   9.227
97511SOL    HW194430   3.596   8.649   9.142
97511SOL    HW294431   3.726   8.684   9.212
97512SOL     OW94432  12.516   3.793  13.386
97512SOL    HW194433  12.522   3.726  13.453
97512SOL    HW294434  12.533   3.875  13.432
97513SOL     OW94435  14.662   6.307   5.073
97513SOL    HW194436  14.739   6.284   5.021
97513SOL    HW294437  14.595   6.331   5.009
97514SOL     OW94438  11.114   9.513   9.833
97514SOL    HW194439  11.059   9.585   9.865
97514SOL    HW294440  11.097   9.441   9.894
97515SOL     OW94441  12.102   3.238   2.305
97515SOL    HW194442  12.157   3.243   2.227
97515SOL    HW294443  12.162   3.207   2.373
97516SOL     OW94444   0.818   7.865   0.837
97516SOL    HW194445   0.830   7.951   0.879
97516SOL    HW294446   0.907   7.829   0.832
97517SOL     OW94447   2.864   4.472   1.172
97517SOL    HW194448   2.876   4.402   1.107
97517SOL    HW294449   2.904   4.549   1.131
97518SOL     OW94450  14.110  11.909   4.024
97518SOL    HW194451  14.046  11.864   3.969
97518SOL    HW294452  14.059  11.942   4.098
97519SOL     OW94453  11.089   8.889   8.235
97519SOL    HW194454  11.141   8.961   8.271
97519SOL    HW294455  10.998   8.916   8.251
97520SOL     OW94456  11.684   4.524   6.486
97520SOL    HW194457  11.681   4.430   6.507
97520SOL    HW294458  11.770   4.535   6.445
97521SOL     OW94459   6.664   1.731   2.538
97521SOL    HW194460   6.624   1.664   2.593
97521SOL    HW294461   6.737   1.765   2.590
97522SOL     OW94462   7.857   3.696   0.911
97522SOL    HW194463   7.882   3.743   0.831
97522SOL    HW294464   7.786   3.748   0.948
97523SOL     OW94465   8.641   9.847   6.097
97523SOL    HW194466   8.581   9.773   6.101
97523SOL    HW294467   8.720   9.816   6.142
97524SOL     OW94468  12.757   3.582   4.619
97524SOL    HW194469  12.770   3.638   4.542
97524SOL    HW294470  12.669   3.548   4.608
97525SOL     OW94471   7.824  13.258  10.741
97525SOL    HW194472   7.763  13.215  10.681
97525SOL    HW294473   7.769  13.311  10.798
97526SOL     OW94474   8.382  10.295   6.261
97526SOL    HW194475   8.450  10.256   6.316
97526SOL    HW294476   8.386  10.244   6.179
97527SOL     OW94477  10.896   5.211   4.577
97527SOL    HW194478  10.832   5.168   4.521
97527SOL    HW294479  10.947   5.267   4.518
97528SOL     OW94480  13.619   2.460  12.722
97528SOL    HW194481  13.654   2.548  12.735
97528SOL    HW294482  13.692   2.410  12.688
97529SOL     OW94483   8.180   9.215   4.509
97529SOL    HW194484   8.143   9.301   4.489
97529SOL    HW294485   8.192   9.174   4.423
97530SOL     OW94486   9.795   2.489   3.000
97530SOL    HW194487   9.727   2.482   3.067
97530SOL    HW294488   9.800   2.401   2.962
97531SOL     OW94489   0.740   1.879  12.778
97531SOL    HW194490   0.798   1.843  12.712
97531SOL    HW294491   0.654   1.840  12.759
97532SOL     OW94492   4.994   0.117   5.199
97532SOL    HW194493   5.006   0.164   5.282
97532SOL    HW294494   4.967   0.029   5.225
97533SOL     OW94495   6.658  11.591   5.103
97533SOL    HW194496   6.693  11.506   5.131
97533SOL    HW294497   6.563  11.581   5.107
97534SOL     OW94498   5.988  11.095   1.141
97534SOL    HW194499   5.944  11.131   1.063
97534SOL    HW294500   6.078  11.081   1.113
97535SOL     OW94501   4.903   4.886   6.138
97535SOL    HW194502   4.813   4.902   6.167
97535SOL    HW294503   4.947   4.852   6.215
97536SOL     OW94504   7.814   9.775   0.922
97536SOL    HW194505   7.768   9.698   0.955
97536SOL    HW294506   7.747   9.827   0.878
97537SOL     OW94507  11.262   8.688  14.234
97537SOL    HW194508  11.318   8.748  14.185
97537SOL    HW294509  11.289   8.601  14.206
97538SOL     OW94510  11.259   3.682   4.989
97538SOL    HW194511  11.311   3.608   4.959
97538SOL    HW294512  11.169   3.651   4.987
97539SOL     OW94513   8.005   8.254   3.264
97539SOL    HW194514   8.097   8.246   3.289
97539SOL    HW294515   7.981   8.166   3.235
97540SOL     OW94516   5.584  13.002   9.478
97540SOL    HW194517   5.492  13.003   9.504
97540SOL    HW294518   5.612  12.912   9.493
97541SOL     OW94519  10.585   0.947   9.668
97541SOL    HW194520  10.666   0.896   9.657
97541SOL    HW294521  10.532   0.925   9.592
97542SOL     OW94522   2.168  13.346  13.454
97542SOL    HW194523   2.079  13.340  13.491
97542SOL    HW294524   2.161  13.413  13.387
97543SOL     OW94525  11.128  12.961   0.362
97543SOL    HW194526  11.221  12.978   0.350
97543SOL    HW294527  11.086  13.046   0.350
97544SOL     OW94528   2.742   4.987   6.796
97544SOL    HW194529   2.715   4.994   6.888
97544SOL    HW294530   2.722   4.896   6.772
97545SOL     OW94531   0.652  12.635  12.015
97545SOL    HW194532   0.566  12.676  12.019
97545SOL    HW294533   0.693  12.671  11.937
97546SOL     OW94534   0.862   3.349   7.181
97546SOL    HW194535   0.803   3.287   7.224
97546SOL    HW294536   0.943   3.301   7.168
97547SOL     OW94537   2.850   7.857  14.515
97547SOL    HW194538   2.785   7.883  14.580
97547SOL    HW294539   2.844   7.761  14.513
97548SOL     OW94540   4.320   9.199   2.589
97548SOL    HW194541   4.237   9.152   2.578
97548SOL    HW294542   4.314   9.236   2.677
97549SOL     OW94543  10.694   3.630   6.961
97549SOL    HW194544  10.636   3.556   6.944
97549SOL    HW294545  10.649   3.682   7.027
97550SOL     OW94546   4.661  11.731   2.740
97550SOL    HW194547   4.577  11.757   2.778
97550SOL    HW294548   4.726  11.758   2.804
97551SOL     OW94549   6.524   5.370   6.635
97551SOL    HW194550   6.441   5.394   6.592
97551SOL    HW294551   6.567   5.453   6.653
97552SOL     OW94552   3.504  13.186   1.553
97552SOL    HW194553   3.512  13.142   1.468
97552SOL    HW294554   3.473  13.274   1.532
97553SOL     OW94555  14.415  14.736  13.276
97553SOL    HW194556  14.391  14.817  13.320
97553SOL    HW294557  14.510  14.736  13.276
97554SOL     OW94558  11.791   9.199   4.114
97554SOL    HW194559  11.846   9.156   4.180
97554SOL    HW294560  11.818   9.160   4.031
97555SOL     OW94561   0.682   5.235   5.347
97555SOL    HW194562   0.715   5.187   5.271
97555SOL    HW294563   0.742   5.213   5.418
97556SOL     OW94564   2.552   9.827   1.180
97556SOL    HW194565   2.616   9.855   1.245
97556SOL    HW294566   2.485   9.780   1.230
97557SOL     OW94567   9.372   4.137   1.684
97557SOL    HW194568   9.368   4.162   1.776
97557SOL    HW294569   9.284   4.153   1.650
97558SOL     OW94570   7.386   6.988  13.052
97558SOL    HW194571   7.310   6.996  12.993
97558SOL    HW294572   7.348   6.982  13.139
97559SOL     OW94573  10.149  12.893   3.063
97559SOL    HW194574  10.065  12.916   3.103
97559SOL    HW294575  10.139  12.919   2.971
97560SOL     OW94576   0.762   8.017   8.930
97560SOL    HW194577   0.792   7.949   8.869
97560SOL    HW294578   0.690   7.975   8.978
97561SOL     OW94579   8.802  13.456  14.126
97561SOL    HW194580   8.772  13.382  14.073
97561SOL    HW294581   8.810  13.421  14.214
97562SOL     OW94582   4.102   7.322  13.677
97562SOL    HW194583   4.157   7.289  13.748
97562SOL    HW294584   4.161   7.325  13.601
97563SOL     OW94585   1.504  14.848   8.263
97563SOL    HW194586   1.426  14.818   8.214
97563SOL    HW294587   1.479  14.839   8.355
97564SOL     OW94588   7.025   6.197  13.343
97564SOL    HW194589   7.050   6.218  13.432
97564SOL    HW294590   7.006   6.103  13.345
97565SOL     OW94591   3.440   9.567   6.845
97565SOL    HW194592   3.367   9.504   6.842
97565SOL    HW294593   3.403   9.646   6.807
97566SOL     OW94594   8.376  11.591   1.280
97566SOL    HW194595   8.392  11.620   1.190
97566SOL    HW294596   8.297  11.638   1.306
97567SOL     OW94597   1.733   3.756  14.378
97567SOL    HW194598   1.791   3.833  14.375
97567SOL    HW294599   1.718   3.741  14.471
97568SOL     OW94600   1.670   3.003   6.314
97568SOL    HW194601   1.648   3.035   6.227
97568SOL    HW294602   1.609   3.049   6.372
97569SOL     OW94603   1.519   0.681   8.734
97569SOL    HW194604   1.435   0.722   8.715
97569SOL    HW294605   1.558   0.664   8.648
97570SOL     OW94606  13.963   0.794  10.998
97570SOL    HW194607  13.974   0.705  11.030
97570SOL    HW294608  13.925   0.842  11.072
97571SOL     OW94609   9.895  10.894   2.642
97571SOL    HW194610   9.985  10.905   2.672
97571SOL    HW294611   9.849  10.857   2.717
97572SOL     OW94612   8.694   0.369   9.244
97572SOL    HW194613   8.745   0.289   9.233
97572SOL    HW294614   8.757   0.440   9.230
97573SOL     OW94615  12.198   7.761   7.206
97573SOL    HW194616  12.271   7.787   7.150
97573SOL    HW294617  12.139   7.714   7.148
97574SOL     OW94618   8.105   6.750   5.087
97574SOL    HW194619   8.106   6.772   4.994
97574SOL    HW294620   8.197   6.744   5.112
97575SOL     OW94621  13.145   7.491   3.413
97575SOL    HW194622  13.123   7.402   3.387
97575SOL    HW294623  13.064   7.540   3.400
97576SOL     OW94624   6.533   8.453  11.940
97576SOL    HW194625   6.583   8.434  12.020
97576SOL    HW294626   6.600   8.474  11.875
97577SOL     OW94627  13.660   8.683  13.598
97577SOL    HW194628  13.711   8.700  13.677
97577SOL    HW294629  13.573   8.658  13.630
97578SOL     OW94630   2.498   7.744   1.375
97578SOL    HW194631   2.429   7.702   1.322
97578SOL    HW294632   2.500   7.693   1.456
97579SOL     OW94633   4.384   7.231   5.673
97579SOL    HW194634   4.461   7.203   5.721
97579SOL    HW294635   4.327   7.154   5.671
97580SOL     OW94636   9.465  11.767   3.124
97580SOL    HW194637   9.556  11.780   3.152
97580SOL    HW294638   9.413  11.804   3.195
97581SOL     OW94639   6.424   2.404   6.267
97581SOL    HW194640   6.470   2.487   6.262
97581SOL    HW294641   6.490   2.338   6.243
97582SOL     OW94642   9.265   7.908  11.108
97582SOL    HW194643   9.292   7.879  11.195
97582SOL    HW294644   9.211   7.836  11.074
97583SOL     OW94645   7.975  10.418   9.926
97583SOL    HW194646   7.918  10.368   9.985
97583SOL    HW294647   7.930  10.417   9.842
97584SOL     OW94648  10.539   8.550   7.398
97584SOL    HW194649  10.541   8.595   7.313
97584SOL    HW294650  10.595   8.603   7.454
97585SOL     OW94651   1.032  14.828  12.935
97585SOL    HW194652   1.085   0.012  12.878
97585SOL    HW294653   1.081  14.823  13.017
97586SOL     OW94654   4.656   3.939  11.609
97586SOL    HW194655   4.645   3.898  11.695
97586SOL    HW294656   4.748   3.967  11.607
97587SOL     OW94657   2.194   2.874   7.082
97587SOL    HW194658   2.116   2.819   7.069
97587SOL    HW294659   2.256   2.843   7.017
97588SOL     OW94660  14.759   2.949   8.910
97588SOL    HW194661  14.717   2.908   8.986
97588SOL    HW294662  14.690   2.950   8.843
97589SOL     OW94663   8.067   9.655   2.140
97589SOL    HW194664   7.992   9.664   2.198
97589SOL    HW294665   8.030   9.630   2.055
97590SOL     OW94666  12.253   2.992   3.840
97590SOL    HW194667  12.303   2.948   3.771
97590SOL    HW294668  12.242   2.924   3.907
97591SOL     OW94669   8.818   6.231   6.025
97591SOL    HW194670   8.820   6.183   5.942
97591SOL    HW294671   8.776   6.170   6.086
97592SOL     OW94672   5.889   9.514   4.819
97592SOL    HW194673   5.978   9.549   4.808
97592SOL    HW294674   5.900   9.439   4.877
97593SOL     OW94675  11.548   6.068   1.495
97593SOL    HW194676  11.544   6.117   1.577
97593SOL    HW294677  11.628   6.016   1.502
97594SOL     OW94678   4.036  13.761  12.581
97594SOL    HW194679   4.111  13.725  12.535
97594SOL    HW294680   4.044  13.855  12.572
97595SOL     OW94681   0.911  14.188  11.480
97595SOL    HW194682   0.992  14.145  11.508
97595SOL    HW294683   0.851  14.117  11.459
97596SOL     OW94684  14.283   8.858  13.007
97596SOL    HW194685  14.307   8.804  12.931
97596SOL    HW294686  14.319   8.812  13.082
97597SOL     OW94687   3.240  10.261   4.702
97597SOL    HW194688   3.198  10.294   4.781
97597SOL    HW294689   3.307  10.326   4.681
97598SOL     OW94690  11.067   6.234  12.016
97598SOL    HW194691  11.130   6.298  12.050
97598SOL    HW294692  11.023   6.279  11.945
97599SOL     OW94693   4.730  10.563  10.442
97599SOL    HW194694   4.691  10.522  10.519
97599SOL    HW294695   4.733  10.494  10.376
97600SOL     OW94696   4.094   5.663   7.354
97600SOL    HW194697   4.052   5.726   7.414
97600SOL    HW294698   4.186   5.663   7.381
97601SOL     OW94699  13.998   9.231   6.962
97601SOL    HW194700  13.936   9.304   6.966
97601SOL    HW294701  14.007   9.203   7.054
97602SOL     OW94702   8.644   2.659   1.808
97602SOL    HW194703   8.656   2.740   1.857
97602SOL    HW294704   8.550   2.642   1.811
97603SOL     OW94705  12.411   2.503   4.232
97603SOL    HW194706  12.431   2.576   4.289
97603SOL    HW294707  12.355   2.445   4.285
97604SOL     OW94708   5.300   3.135  12.244
97604SOL    HW194709   5.327   3.226  12.234
97604SOL    HW294710   5.236   3.120  12.175
97605SOL     OW94711  11.839   0.264  14.214
97605SOL    HW194712  11.766   0.228  14.165
97605SOL    HW294713  11.806   0.348  14.247
97606SOL     OW94714   1.873   8.654   3.435
97606SOL    HW194715   1.787   8.622   3.461
97606SOL    HW294716   1.898   8.598   3.361
97607SOL     OW94717   1.338   2.712   4.998
97607SOL    HW194718   1.301   2.678   5.079
97607SOL    HW294719   1.433   2.703   5.009
97608SOL     OW94720   7.619   1.153   5.291
97608SOL    HW194721   7.566   1.098   5.349
97608SOL    HW294722   7.557   1.216   5.254
97609SOL     OW94723   7.238   2.846   9.312
97609SOL    HW194724   7.231   2.918   9.250
97609SOL    HW294725   7.196   2.878   9.392
97610SOL     OW94726  13.743   2.683  13.184
97610SOL    HW194727  13.665   2.724  13.222
97610SOL    HW294728  13.817   2.730  13.223
97611SOL     OW94729  11.086  13.662  12.299
97611SOL    HW194730  11.151  13.729  12.322
97611SOL    HW294731  11.136  13.597  12.249
97612SOL     OW94732   4.656  13.411   5.555
97612SOL    HW194733   4.596  13.337   5.546
97612SOL    HW294734   4.741  13.376   5.530
97613SOL     OW94735   8.842  10.880   7.304
97613SOL    HW194736   8.814  10.931   7.228
97613SOL    HW294737   8.761  10.861   7.351
97614SOL     OW94738   3.726  12.210   9.767
97614SOL    HW194739   3.796  12.181   9.709
97614SOL    HW294740   3.766  12.277   9.823
97615SOL     OW94741   5.285   1.167  14.335
97615SOL    HW194742   5.359   1.173  14.275
97615SOL    HW294743   5.322   1.186  14.421
97616SOL     OW94744  10.630   1.604  12.453
97616SOL    HW194745  10.693   1.669  12.423
97616SOL    HW294746  10.549   1.653  12.466
97617SOL     OW94747   9.777  12.715  10.413
97617SOL    HW194748   9.775  12.742  10.321
97617SOL    HW294749   9.790  12.796  10.461
97618SOL     OW94750  12.340  13.542  14.848
97618SOL    HW194751  12.391  13.610   0.021
97618SOL    HW294752  12.401  13.504  14.785
97619SOL     OW94753  13.668   4.615  11.648
97619SOL    HW194754  13.609   4.541  11.661
97619SOL    HW294755  13.716   4.593  11.568
97620SOL     OW94756  12.463   5.056   1.201
97620SOL    HW194757  12.400   5.117   1.240
97620SOL    HW294758  12.541   5.110   1.184
97621SOL     OW94759   7.204   2.704  12.001
97621SOL    HW194760   7.282   2.670  11.958
97621SOL    HW294761   7.146   2.728  11.930
97622SOL     OW94762   4.925   9.858   9.704
97622SOL    HW194763   4.989   9.831   9.769
97622SOL    HW294764   4.941   9.802   9.628
97623SOL     OW94765  10.825   5.268  13.212
97623SOL    HW194766  10.902   5.265  13.156
97623SOL    HW294767  10.818   5.360  13.238
97624SOL     OW94768   0.533  12.252   1.057
97624SOL    HW194769   0.557  12.340   1.087
97624SOL    HW294770   0.521  12.261   0.963
97625SOL     OW94771   4.133   6.898   7.402
97625SOL    HW194772   4.103   6.887   7.312
97625SOL    HW294773   4.087   6.976   7.434
97626SOL     OW94774   7.367  12.801   5.180
97626SOL    HW194775   7.387  12.881   5.131
97626SOL    HW294776   7.450  12.754   5.184
97627SOL     OW94777  13.612  12.961  13.914
97627SOL    HW194778  13.675  12.925  13.851
97627SOL    HW294779  13.646  13.047  13.935
97628SOL     OW94780   8.473  10.489  10.718
97628SOL    HW194781   8.535  10.557  10.693
97628SOL    HW294782   8.503  10.410  10.673
97629SOL     OW94783   7.498   7.237   2.766
97629SOL    HW194784   7.473   7.157   2.814
97629SOL    HW294785   7.427   7.248   2.702
97630SOL     OW94786   8.171   1.327   3.530
97630SOL    HW194787   8.230   1.302   3.458
97630SOL    HW294788   8.152   1.420   3.514
97631SOL     OW94789  13.738  10.150   7.920
97631SOL    HW194790  13.652  10.160   7.962
97631SOL    HW294791  13.786  10.093   7.980
97632SOL     OW94792   1.463   4.956   8.366
97632SOL    HW194793   1.551   4.989   8.382
97632SOL    HW294794   1.421   4.956   8.452
97633SOL     OW94795  11.366   9.756   4.706
97633SOL    HW194796  11.379   9.688   4.640
97633SOL    HW294797  11.453   9.795   4.718
97634SOL     OW94798   9.391  11.014   0.133
97634SOL    HW194799   9.373  10.954   0.205
97634SOL    HW294800   9.332  11.088   0.147
97635SOL     OW94801   4.152   9.274  10.665
97635SOL    HW194802   4.085   9.297  10.730
97635SOL    HW294803   4.106   9.221  10.600
97636SOL     OW94804   8.320   0.820   1.283
97636SOL    HW194805   8.228   0.834   1.307
97636SOL    HW294806   8.352   0.755   1.346
97637SOL     OW94807   0.449   1.260   8.293
97637SOL    HW194808   0.462   1.178   8.341
97637SOL    HW294809   0.379   1.241   8.231
97638SOL     OW94810   2.118  14.328   8.021
97638SOL    HW194811   2.157  14.392   7.961
97638SOL    HW294812   2.029  14.315   7.988
97639SOL     OW94813  12.281   3.802   4.926
97639SOL    HW194814  12.295   3.824   5.018
97639SOL    HW294815  12.191   3.768   4.923
97640SOL     OW94816   3.733  11.582   1.267
97640SOL    HW194817   3.798  11.512   1.256
97640SOL    HW294818   3.729  11.624   1.181
97641SOL     OW94819   6.658   6.888   5.075
97641SOL    HW194820   6.753   6.891   5.066
97641SOL    HW294821   6.625   6.918   4.990
97642SOL     OW94822   4.661  13.281   0.750
97642SOL    HW194823   4.694  13.370   0.760
97642SOL    HW294824   4.588  13.276   0.812
97643SOL     OW94825  10.547  12.410  13.952
97643SOL    HW194826  10.521  12.402  13.860
97643SOL    HW294827  10.604  12.335  13.968
97644SOL     OW94828  10.849   2.038   4.492
97644SOL    HW194829  10.822   1.947   4.486
97644SOL    HW294830  10.853   2.068   4.401
97645SOL     OW94831   3.794  12.070   5.290
97645SOL    HW194832   3.842  12.118   5.356
97645SOL    HW294833   3.861  12.023   5.240
97646SOL     OW94834  12.703   5.795  12.419
97646SOL    HW194835  12.726   5.703  12.406
97646SOL    HW294836  12.639   5.794  12.490
97647SOL     OW94837  11.624   1.564   5.193
97647SOL    HW194838  11.611   1.554   5.287
97647SOL    HW294839  11.549   1.520   5.153
97648SOL     OW94840  13.733   6.684   2.601
97648SOL    HW194841  13.801   6.735   2.644
97648SOL    HW294842  13.768   6.665   2.514
97649SOL     OW94843   1.289  11.994   1.954
97649SOL    HW194844   1.318  11.902   1.953
97649SOL    HW294845   1.325  12.031   1.874
97650SOL     OW94846   8.962   0.738   5.475
97650SOL    HW194847   8.964   0.682   5.397
97650SOL    HW294848   8.877   0.780   5.473
97651SOL     OW94849   5.891   8.897   1.365
97651SOL    HW194850   5.908   8.931   1.453
97651SOL    HW294851   5.816   8.949   1.334
97652SOL     OW94852   6.756   2.156  10.749
97652SOL    HW194853   6.781   2.208  10.826
97652SOL    HW294854   6.667   2.184  10.729
97653SOL     OW94855  11.811   7.187   8.639
97653SOL    HW194856  11.790   7.174   8.547
97653SOL    HW294857  11.820   7.282   8.649
97654SOL     OW94858  12.107  12.647  11.598
97654SOL    HW194859  12.053  12.598  11.659
97654SOL    HW294860  12.061  12.640  11.514
97655SOL     OW94861   8.674  10.609   0.580
97655SOL    HW194862   8.667  10.514   0.569
97655SOL    HW294863   8.764  10.623   0.609
97656SOL     OW94864  14.396  12.576   6.244
97656SOL    HW194865  14.367  12.666   6.260
97656SOL    HW294866  14.321  12.522   6.267
97657SOL     OW94867  11.261  14.045   7.329
97657SOL    HW194868  11.252  13.996   7.411
97657SOL    HW294869  11.262  13.978   7.261
97658SOL     OW94870  14.579   5.820  10.919
97658SOL    HW194871  14.540   5.904  10.946
97658SOL    HW294872  14.509   5.756  10.932
97659SOL     OW94873   3.305   7.521   1.823
97659SOL    HW194874   3.221   7.544   1.862
97659SOL    HW294875   3.370   7.540   1.891
97660SOL     OW94876   7.892   0.669  11.390
97660SOL    HW194877   7.972   0.721  11.403
97660SOL    HW294878   7.900   0.634  11.301
97661SOL     OW94879  12.563   4.182  12.772
97661SOL    HW194880  12.507   4.138  12.708
97661SOL    HW294881  12.565   4.122  12.847
97662SOL     OW94882   7.838  12.366   1.172
97662SOL    HW194883   7.811  12.398   1.086
97662SOL    HW294884   7.849  12.445   1.224
97663SOL     OW94885   7.770  12.504   5.612
97663SOL    HW194886   7.838  12.542   5.668
97663SOL    HW294887   7.701  12.571   5.609
97664SOL     OW94888  11.458   5.077   9.229
97664SOL    HW194889  11.375   5.094   9.274
97664SOL    HW294890  11.520   5.138   9.269
97665SOL     OW94891   8.573   6.857  12.119
97665SOL    HW194892   8.545   6.841  12.029
97665SOL    HW294893   8.505   6.913  12.156
97666SOL     OW94894  11.994  12.418  14.555
97666SOL    HW194895  11.919  12.430  14.496
97666SOL    HW294896  12.065  12.465  14.512
97667SOL     OW94897  14.395   4.373   7.478
97667SOL    HW194898  14.464   4.424   7.435
97667SOL    HW294899  14.439   4.292   7.504
97668SOL     OW94900   0.931  13.424  13.457
97668SOL    HW194901   0.988  13.501  13.455
97668SOL    HW294902   0.955  13.378  13.538
97669SOL     OW94903   9.120   1.235   2.489
97669SOL    HW194904   9.149   1.326   2.501
97669SOL    HW294905   9.112   1.225   2.394
97670SOL     OW94906   7.306   0.626   1.194
97670SOL    HW194907   7.300   0.719   1.215
97670SOL    HW294908   7.396   0.613   1.164
97671SOL     OW94909   0.773   0.976  12.142
97671SOL    HW194910   0.759   1.033  12.066
97671SOL    HW294911   0.822   0.901  12.107
97672SOL     OW94912   9.548   2.475  10.632
97672SOL    HW194913   9.479   2.425  10.676
97672SOL    HW294914   9.532   2.460  10.539
97673SOL     OW94915   0.224  10.024   3.865
97673SOL    HW194916   0.163  10.094   3.887
97673SOL    HW294917   0.265  10.002   3.949
97674SOL     OW94918   7.188   0.797  12.647
97674SOL    HW194919   7.156   0.755  12.568
97674SOL    HW294920   7.118   0.783  12.711
97675SOL     OW94921   2.103   7.070  14.345
97675SOL    HW194922   2.118   7.054  14.252
97675SOL    HW294923   2.014   7.037  14.361
97676SOL     OW94924   6.324   8.069   0.528
97676SOL    HW194925   6.338   7.976   0.544
97676SOL    HW294926   6.285   8.101   0.609
97677SOL     OW94927  14.313  13.000   6.398
97677SOL    HW194928  14.290  12.912   6.368
97677SOL    HW294929  14.309  13.054   6.319
97678SOL     OW94930   5.417   4.384   5.036
97678SOL    HW194931   5.328   4.355   5.018
97678SOL    HW294932   5.462   4.376   4.952
97679SOL     OW94933   5.711   3.471   0.479
97679SOL    HW194934   5.644   3.460   0.412
97679SOL    HW294935   5.769   3.539   0.444
97680SOL     OW94936   2.707  11.183  10.483
97680SOL    HW194937   2.712  11.243  10.408
97680SOL    HW294938   2.798  11.173  10.511
97681SOL     OW94939   4.001   8.166  14.127
97681SOL    HW194940   4.067   8.186  14.193
97681SOL    HW294941   4.009   8.236  14.063
97682SOL     OW94942   5.930   2.889   5.697
97682SOL    HW194943   5.913   2.922   5.609
97682SOL    HW294944   6.025   2.885   5.703
97683SOL     OW94945   0.591   8.630   2.892
97683SOL    HW194946   0.564   8.542   2.920
97683SOL    HW294947   0.553   8.689   2.956
97684SOL     OW94948  10.070   9.941  10.394
97684SOL    HW194949  10.042   9.851  10.405
97684SOL    HW294950  10.067   9.978  10.483
97685SOL     OW94951   9.688   1.476   9.646
97685SOL    HW194952   9.639   1.558   9.643
97685SOL    HW294953   9.773   1.498   9.609
97686SOL     OW94954   5.565   6.386  12.513
97686SOL    HW194955   5.553   6.407  12.606
97686SOL    HW294956   5.553   6.470  12.469
97687SOL     OW94957   0.337  10.705  11.480
97687SOL    HW194958   0.346  10.800  11.480
97687SOL    HW294959   0.409  10.674  11.535
97688SOL     OW94960   2.138   6.079   7.632
97688SOL    HW194961   2.162   6.125   7.552
97688SOL    HW294962   2.218   6.080   7.685
97689SOL     OW94963   1.563   4.521   5.745
97689SOL    HW194964   1.578   4.489   5.656
97689SOL    HW294965   1.469   4.539   5.748
97690SOL     OW94966  13.728   9.933   3.559
97690SOL    HW194967  13.650   9.918   3.507
97690SOL    HW294968  13.699   9.919   3.650
97691SOL     OW94969  13.912   1.308  10.203
97691SOL    HW194970  13.866   1.292  10.285
97691SOL    HW294971  13.851   1.280  10.134
97692SOL     OW94972   4.438  12.617   2.845
97692SOL    HW194973   4.443  12.662   2.760
97692SOL    HW294974   4.444  12.687   2.909
97693SOL     OW94975   6.682  11.248   8.233
97693SOL    HW194976   6.719  11.257   8.145
97693SOL    HW294977   6.728  11.174   8.272
97694SOL     OW94978   9.159   1.217   6.215
97694SOL    HW194979   9.183   1.272   6.140
97694SOL    HW294980   9.117   1.277   6.276
97695SOL     OW94981   6.401  12.108   4.759
97695SOL    HW194982   6.411  12.161   4.680
97695SOL    HW294983   6.313  12.127   4.789
97696SOL     OW94984  13.992   9.908   3.631
97696SOL    HW194985  13.905   9.948   3.630
97696SOL    HW294986  13.983   9.832   3.689
97697SOL     OW94987  10.663   6.075  14.480
97697SOL    HW194988  10.719   6.049  14.407
97697SOL    HW294989  10.671   6.171  14.483
97698SOL     OW94990  13.281  14.002   0.936
97698SOL    HW194991  13.251  14.009   0.845
97698SOL    HW294992  13.341  14.075   0.948
97699SOL     OW94993  10.064   3.753   4.156
97699SOL    HW194994  10.035   3.837   4.121
97699SOL    HW294995   9.987   3.718   4.201
97700SOL     OW94996   6.887  10.301   8.247
97700SOL    HW194997   6.909  10.297   8.154
97700SOL    HW294998   6.843  10.218   8.265
97701SOL     OW94999   7.660   3.800  13.919
97701SOL    HW195000   7.595   3.756  13.865
97701SOL    HW295001   7.633   3.892  13.920
97702SOL     OW95002  10.463  13.231   6.184
97702SOL    HW195003  10.436  13.279   6.106
97702SOL    HW295004  10.519  13.293   6.232
97703SOL     OW95005  14.244   3.078   5.814
97703SOL    HW195006  14.229   3.133   5.738
97703SOL    HW295007  14.256   2.990   5.779
97704SOL     OW95008   1.873   7.806  14.360
97704SOL    HW195009   1.782   7.788  14.384
97704SOL    HW295010   1.896   7.886  14.408
97705SOL     OW95011  10.141   1.461  12.975
97705SOL    HW195012  10.140   1.367  12.956
97705SOL    HW295013  10.148   1.502  12.889
97706SOL     OW95014   8.991   5.931   9.736
97706SOL    HW195015   9.069   5.876   9.748
97706SOL    HW295016   9.021   6.020   9.755
97707SOL     OW95017  14.181  14.773   5.466
97707SOL    HW195018  14.232  14.785   5.547
97707SOL    HW295019  14.246  14.779   5.396
97708SOL     OW95020  11.075  11.887  12.882
97708SOL    HW195021  11.130  11.964  12.870
97708SOL    HW295022  11.126  11.814  12.846
97709SOL     OW95023   9.781  10.064   0.108
97709SOL    HW195024   9.697  10.101   0.083
97709SOL    HW295025   9.835  10.139   0.132
97710SOL     OW95026   8.619   7.771   5.095
97710SOL    HW195027   8.646   7.801   5.182
97710SOL    HW295028   8.619   7.850   5.041
97711SOL     OW95029   7.170   2.747   7.845
97711SOL    HW195030   7.220   2.767   7.766
97711SOL    HW295031   7.134   2.660   7.828
97712SOL     OW95032   2.048   7.378  10.784
97712SOL    HW195033   2.032   7.305  10.724
97712SOL    HW295034   1.973   7.377  10.843
97713SOL     OW95035  13.365  11.973   0.201
97713SOL    HW195036  13.450  11.998   0.164
97713SOL    HW295037  13.387  11.940   0.288
97714SOL     OW95038  13.742   4.500   1.549
97714SOL    HW195039  13.818   4.540   1.591
97714SOL    HW295040  13.706   4.569   1.493
97715SOL     OW95041   9.510  14.224   4.320
97715SOL    HW195042   9.484  14.232   4.228
97715SOL    HW295043   9.482  14.306   4.361
97716SOL     OW95044   6.443  14.141  13.660
97716SOL    HW195045   6.443  14.157  13.566
97716SOL    HW295046   6.532  14.113  13.679
97717SOL     OW95047   9.194   3.492  11.920
97717SOL    HW195048   9.212   3.417  11.977
97717SOL    HW295049   9.254   3.480  11.846
97718SOL     OW95050   4.850   6.450  12.093
97718SOL    HW195051   4.941   6.435  12.071
97718SOL    HW295052   4.801   6.417  12.018
97719SOL     OW95053   9.355   6.343   5.636
97719SOL    HW195054   9.386   6.422   5.681
97719SOL    HW295055   9.352   6.368   5.544
97720SOL     OW95056  11.005   6.453  14.192
97720SOL    HW195057  11.009   6.358  14.204
97720SOL    HW295058  11.096   6.481  14.198
97721SOL     OW95059   8.489   1.578   7.589
97721SOL    HW195060   8.575   1.537   7.579
97721SOL    HW295061   8.448   1.533   7.663
97722SOL     OW95062   0.159  12.900  11.794
97722SOL    HW195063   0.216  12.885  11.869
97722SOL    HW295064   0.154  12.995  11.786
97723SOL     OW95065   0.198   2.809   2.382
97723SOL    HW195066   0.209   2.751   2.457
97723SOL    HW295067   0.264   2.877   2.394
97724SOL     OW95068   2.593  13.673  14.405
97724SOL    HW195069   2.675  13.689  14.452
97724SOL    HW295070   2.614  13.602  14.344
97725SOL     OW95071  11.392   2.709  12.008
97725SOL    HW195072  11.297   2.697  12.002
97725SOL    HW295073  11.421   2.643  12.072
97726SOL     OW95074  12.423  14.175   4.854
97726SOL    HW195075  12.424  14.193   4.760
97726SOL    HW295076  12.502  14.218   4.887
97727SOL     OW95077  13.874   7.733  11.392
97727SOL    HW195078  13.878   7.643  11.359
97727SOL    HW295079  13.890   7.724  11.486
97728SOL     OW95080   2.713  13.957   4.125
97728SOL    HW195081   2.689  13.981   4.036
97728SOL    HW295082   2.796  14.002   4.141
97729SOL     OW95083   3.657   6.503   4.044
97729SOL    HW195084   3.643   6.435   4.110
97729SOL    HW295085   3.610   6.471   3.967
97730SOL     OW95086   8.444   9.437  12.734
97730SOL    HW195087   8.368   9.492  12.714
97730SOL    HW295088   8.497   9.439  12.654
97731SOL     OW95089   7.212   1.414   8.724
97731SOL    HW195090   7.142   1.477   8.741
97731SOL    HW295091   7.283   1.467   8.686
97732SOL     OW95092  14.049   9.474   8.525
97732SOL    HW195093  14.121   9.515   8.477
97732SOL    HW295094  14.080   9.469   8.616
97733SOL     OW95095   9.699   4.962   6.626
97733SOL    HW195096   9.685   5.018   6.702
97733SOL    HW295097   9.649   4.883   6.644
97734SOL     OW95098  11.753   7.309   5.060
97734SOL    HW195099  11.704   7.265   5.129
97734SOL    HW295100  11.699   7.298   4.981
97735SOL     OW95101   2.176   4.222   7.775
97735SOL    HW195102   2.114   4.260   7.712
97735SOL    HW295103   2.128   4.220   7.858
97736SOL     OW95104  12.831  13.833   2.697
97736SOL    HW195105  12.845  13.924   2.673
97736SOL    HW295106  12.746  13.811   2.659
97737SOL     OW95107  13.895   4.086  13.286
97737SOL    HW195108  13.853   4.151  13.231
97737SOL    HW295109  13.852   4.094  13.371
97738SOL     OW95110   5.860  14.217   1.547
97738SOL    HW195111   5.878  14.272   1.472
97738SOL    HW295112   5.764  14.214   1.552
97739SOL     OW95113   8.917   1.674   5.320
97739SOL    HW195114   8.955   1.739   5.379
97739SOL    HW295115   8.880   1.607   5.378
97740SOL     OW95116   0.216  13.568   6.071
97740SOL    HW195117   0.126  13.573   6.103
97740SOL    HW295118   0.256  13.497   6.122
97741SOL     OW95119   8.224   6.448  12.335
97741SOL    HW195120   8.284   6.436  12.408
97741SOL    HW295121   8.211   6.543  12.330
97742SOL     OW95122   2.677  13.549   1.732
97742SOL    HW195123   2.752  13.496   1.705
97742SOL    HW295124   2.604  13.514   1.681
97743SOL     OW95125   1.408   3.718  12.068
97743SOL    HW195126   1.459   3.798  12.063
97743SOL    HW295127   1.334   3.732  12.009
97744SOL     OW95128   7.640  10.084   8.405
97744SOL    HW195129   7.554  10.064   8.441
97744SOL    HW295130   7.681   9.999   8.391
97745SOL     OW95131   9.072  11.880   1.010
97745SOL    HW195132   9.015  11.955   1.027
97745SOL    HW295133   9.118  11.866   1.092
97746SOL     OW95134   2.394   3.794   4.753
97746SOL    HW195135   2.399   3.877   4.801
97746SOL    HW295136   2.453   3.735   4.800
97747SOL     OW95137  14.207  13.338   8.621
97747SOL    HW195138  14.123  13.342   8.667
97747SOL    HW295139  14.239  13.249   8.638
97748SOL     OW95140   0.127   6.223   1.153
97748SOL    HW195141   0.164   6.307   1.179
97748SOL    HW295142   0.198   6.160   1.166
97749SOL     OW95143  13.853   1.005   1.921
97749SOL    HW195144  13.862   0.984   1.828
97749SOL    HW295145  13.895   1.091   1.930
97750SOL     OW95146   0.947  13.403   8.767
97750SOL    HW195147   0.862  13.374   8.733
97750SOL    HW295148   0.984  13.325   8.809
97751SOL     OW95149   4.170   1.669   9.397
97751SOL    HW195150   4.193   1.703   9.311
97751SOL    HW295151   4.179   1.574   9.389
97752SOL     OW95152   3.666   1.816   1.303
97752SOL    HW195153   3.649   1.836   1.211
97752SOL    HW295154   3.625   1.888   1.351
97753SOL     OW95155   3.090   6.871  14.178
97753SOL    HW195156   3.139   6.789  14.189
97753SOL    HW295157   3.023   6.868  14.246
97754SOL     OW95158  11.037   7.927   8.780
97754SOL    HW195159  11.130   7.946   8.768
97754SOL    HW295160  11.011   7.881   8.701
97755SOL     OW95161  11.514   3.124   2.768
97755SOL    HW195162  11.604   3.128   2.733
97755SOL    HW295163  11.469   3.197   2.725
97756SOL     OW95164   7.770   4.236   6.630
97756SOL    HW195165   7.740   4.224   6.720
97756SOL    HW295166   7.864   4.217   6.634
97757SOL     OW95167   0.849   1.280  11.557
97757SOL    HW195168   0.841   1.375  11.548
97757SOL    HW295169   0.931   1.259  11.511
97758SOL     OW95170  10.615   7.039   3.696
97758SOL    HW195171  10.631   7.131   3.676
97758SOL    HW295172  10.654   7.026   3.782
97759SOL     OW95173   5.875  10.294  11.493
97759SOL    HW195174   5.968  10.279  11.481
97759SOL    HW295175   5.838  10.292  11.404
97760SOL     OW95176   1.127  13.590   1.375
97760SOL    HW195177   1.058  13.609   1.312
97760SOL    HW295178   1.199  13.648   1.350
97761SOL     OW95179   1.370   2.795  12.410
97761SOL    HW195180   1.426   2.735  12.460
97761SOL    HW295181   1.285   2.751  12.408
97762SOL     OW95182  13.632   3.659  14.243
97762SOL    HW195183  13.655   3.709  14.164
97762SOL    HW295184  13.717   3.630  14.277
97763SOL     OW95185   8.573  14.446   1.662
97763SOL    HW195186   8.586  14.375   1.599
97763SOL    HW295187   8.579  14.403   1.747
97764SOL     OW95188   9.573   8.669   7.997
97764SOL    HW195189   9.636   8.636   8.061
97764SOL    HW295190   9.624   8.686   7.918
97765SOL     OW95191   2.274   3.491   5.484
97765SOL    HW195192   2.308   3.497   5.394
97765SOL    HW295193   2.324   3.556   5.533
97766SOL     OW95194   4.921   1.038   2.878
97766SOL    HW195195   4.909   0.993   2.962
97766SOL    HW295196   4.978   0.980   2.828
97767SOL     OW95197   4.892  10.477  10.801
97767SOL    HW195198   4.935  10.489  10.716
97767SOL    HW295199   4.944  10.410  10.844
97768SOL     OW95200  12.849   9.532   3.096
97768SOL    HW195201  12.811   9.612   3.059
97768SOL    HW295202  12.781   9.499   3.154
97769SOL     OW95203   6.708   1.184   0.236
97769SOL    HW195204   6.720   1.173   0.331
97769SOL    HW295205   6.665   1.269   0.227
97770SOL     OW95206  10.322   8.030   6.163
97770SOL    HW195207  10.284   8.067   6.084
97770SOL    HW295208  10.321   7.935   6.149
97771SOL     OW95209   7.821  11.874   9.370
97771SOL    HW195210   7.736  11.831   9.385
97771SOL    HW295211   7.799  11.967   9.361
97772SOL     OW95212  13.150   6.207  11.137
97772SOL    HW195213  13.181   6.157  11.212
97772SOL    HW295214  13.062   6.173  11.120
97773SOL     OW95215   2.159   2.404   8.870
97773SOL    HW195216   2.113   2.401   8.954
97773SOL    HW295217   2.233   2.463   8.885
97774SOL     OW95218   2.671   3.606   4.381
97774SOL    HW195219   2.657   3.698   4.404
97774SOL    HW295220   2.708   3.610   4.292
97775SOL     OW95221   9.591  13.788   0.394
97775SOL    HW195222   9.668  13.797   0.338
97775SOL    HW295223   9.553  13.704   0.369
97776SOL     OW95224  12.746   9.388   9.253
97776SOL    HW195225  12.699   9.468   9.276
97776SOL    HW295226  12.683   9.337   9.201
97777SOL     OW95227   7.974  12.419   0.538
97777SOL    HW195228   7.933  12.398   0.621
97777SOL    HW295229   7.951  12.346   0.480
97778SOL     OW95230   9.094   6.658   0.832
97778SOL    HW195231   9.150   6.735   0.834
97778SOL    HW295232   9.109   6.615   0.917
97779SOL     OW95233   9.304   4.401  12.000
97779SOL    HW195234   9.375   4.431  11.944
97779SOL    HW295235   9.325   4.435  12.087
97780SOL     OW95236   4.515   8.246   3.937
97780SOL    HW195237   4.440   8.293   3.902
97780SOL    HW295238   4.580   8.314   3.954
97781SOL     OW95239   8.544  14.509   3.746
97781SOL    HW195240   8.592  14.536   3.668
97781SOL    HW295241   8.522  14.591   3.791
97782SOL     OW95242   2.054   9.723   9.893
97782SOL    HW195243   2.040   9.750   9.984
97782SOL    HW295244   2.145   9.693   9.891
97783SOL     OW95245   6.373  10.574   2.594
97783SOL    HW195246   6.363  10.504   2.658
97783SOL    HW295247   6.386  10.653   2.647
97784SOL     OW95248   4.779   4.869   4.416
97784SOL    HW195249   4.697   4.860   4.368
97784SOL    HW295250   4.761   4.934   4.483
97785SOL     OW95251   3.512   7.253   2.847
97785SOL    HW195252   3.461   7.277   2.769
97785SOL    HW295253   3.449   7.207   2.903
97786SOL     OW95254   0.919   5.248  11.892
97786SOL    HW195255   0.974   5.218  11.820
97786SOL    HW295256   0.969   5.228  11.971
97787SOL     OW95257   7.942   6.554   5.154
97787SOL    HW195258   7.917   6.576   5.244
97787SOL    HW295259   8.004   6.622   5.129
97788SOL     OW95260  13.980   2.019   4.294
97788SOL    HW195261  14.060   1.966   4.290
97788SOL    HW295262  14.002   2.098   4.245
97789SOL     OW95263   1.816   1.142  13.600
97789SOL    HW195264   1.736   1.123  13.551
97789SOL    HW295265   1.813   1.237  13.613
97790SOL     OW95266   2.315   9.674   2.987
97790SOL    HW195267   2.238   9.721   3.022
97790SOL    HW295268   2.284   9.585   2.974
97791SOL     OW95269  12.404   4.196  10.695
97791SOL    HW195270  12.420   4.280  10.738
97791SOL    HW295271  12.401   4.217  10.601
97792SOL     OW95272  10.081  14.227   3.038
97792SOL    HW195273  10.164  14.197   3.074
97792SOL    HW295274  10.088  14.211   2.944
97793SOL     OW95275  10.621   3.452  10.974
97793SOL    HW195276  10.566   3.396  10.918
97793SOL    HW295277  10.603   3.423  11.063
97794SOL     OW95278   4.750   6.803   8.589
97794SOL    HW195279   4.751   6.713   8.622
97794SOL    HW295280   4.759   6.794   8.495
97795SOL     OW95281  12.389  12.883   1.711
97795SOL    HW195282  12.296  12.861   1.704
97795SOL    HW295283  12.395  12.931   1.794
97796SOL     OW95284  10.035   1.170  10.297
97796SOL    HW195285   9.949   1.178  10.256
97796SOL    HW295286  10.064   1.260  10.310
97797SOL     OW95287   9.061   3.497   3.573
97797SOL    HW195288   9.157   3.495   3.571
97797SOL    HW295289   9.036   3.519   3.483
97798SOL     OW95290   5.197  10.482   0.419
97798SOL    HW195291   5.247  10.486   0.501
97798SOL    HW295292   5.176  10.574   0.401
97799SOL     OW95293   7.450  10.218   6.529
97799SOL    HW195294   7.417  10.233   6.440
97799SOL    HW295295   7.403  10.281   6.583
97800SOL     OW95296   8.285  14.743   9.741
97800SOL    HW195297   8.195  14.721   9.765
97800SOL    HW295298   8.282  14.760   9.647
97801SOL     OW95299  13.701   6.025  14.106
97801SOL    HW195300  13.706   5.939  14.065
97801SOL    HW295301  13.791   6.044  14.133
97802SOL     OW95302   8.665   6.820   1.191
97802SOL    HW195303   8.653   6.880   1.264
97802SOL    HW295304   8.753   6.783   1.203
97803SOL     OW95305   2.240   4.251  13.579
97803SOL    HW195306   2.193   4.253  13.496
97803SOL    HW295307   2.300   4.176  13.571
97804SOL     OW95308   6.689   8.780   9.721
97804SOL    HW195309   6.727   8.867   9.707
97804SOL    HW295310   6.721   8.753   9.807
97805SOL     OW95311   2.329  14.143  10.159
97805SOL    HW195312   2.234  14.142  10.155
97805SOL    HW295313   2.350  14.107  10.245
97806SOL     OW95314   6.916  12.049   6.141
97806SOL    HW195315   6.888  12.060   6.232
97806SOL    HW295316   6.945  12.136   6.115
97807SOL     OW95317   1.150   8.697   6.376
97807SOL    HW195318   1.094   8.773   6.390
97807SOL    HW295319   1.154   8.687   6.281
97808SOL     OW95320   5.701  10.426  10.257
97808SOL    HW195321   5.668  10.505  10.214
97808SOL    HW295322   5.777  10.457  10.307
97809SOL     OW95323   3.106  12.077  11.279
97809SOL    HW195324   3.120  12.129  11.200
97809SOL    HW295325   3.123  11.987  11.251
97810SOL     OW95326  14.770   2.313  12.157
97810SOL    HW195327  14.782   2.220  12.137
97810SOL    HW295328  14.758   2.355  12.072
97811SOL     OW95329  11.429  12.379   0.455
97811SOL    HW195330  11.419  12.335   0.371
97811SOL    HW295331  11.391  12.318   0.518
97812SOL     OW95332   7.167  11.693   4.019
97812SOL    HW195333   7.102  11.694   3.949
97812SOL    HW295334   7.129  11.747   4.088
97813SOL     OW95335  10.211   3.551  11.615
97813SOL    HW195336  10.270   3.540  11.690
97813SOL    HW295337  10.235   3.480  11.556
97814SOL     OW95338   9.793   6.138  13.841
97814SOL    HW195339   9.719   6.181  13.798
97814SOL    HW295340   9.754   6.065  13.889
97815SOL     OW95341   4.787   0.011   9.641
97815SOL    HW195342   4.719   0.069   9.605
97815SOL    HW295343   4.858   0.070   9.666
97816SOL     OW95344   3.526  11.649   5.504
97816SOL    HW195345   3.580  11.725   5.481
97816SOL    HW295346   3.532  11.643   5.599
97817SOL     OW95347   9.875   1.845   8.465
97817SOL    HW195348   9.792   1.888   8.445
97817SOL    HW295349   9.935   1.917   8.485
97818SOL     OW95350   2.330   0.039  12.390
97818SOL    HW195351   2.327  14.819  12.361
97818SOL    HW295352   2.263   0.044  12.458
97819SOL     OW95353  12.714   4.111   7.877
97819SOL    HW195354  12.772   4.036   7.861
97819SOL    HW295355  12.627   4.079   7.854
97820SOL     OW95356   9.534   1.259  12.532
97820SOL    HW195357   9.463   1.201  12.502
97820SOL    HW295358   9.494   1.312  12.601
97821SOL     OW95359   9.742  13.951   1.884
97821SOL    HW195360   9.759  14.032   1.931
97821SOL    HW295361   9.647  13.946   1.876
97822SOL     OW95362   0.130   1.869  12.692
97822SOL    HW195363   0.197   1.936  12.679
97822SOL    HW295364   0.115   1.833  12.604
97823SOL     OW95365   1.734   8.384  14.842
97823SOL    HW195366   1.822   8.411  14.869
97823SOL    HW295367   1.678   8.408   0.044
97824SOL     OW95368   4.159  12.575   8.131
97824SOL    HW195369   4.177  12.520   8.055
97824SOL    HW295370   4.138  12.661   8.094
97825SOL     OW95371   9.981   7.800  11.023
97825SOL    HW195372   9.992   7.895  11.010
97825SOL    HW295373  10.053   7.761  10.973
97826SOL     OW95374  13.302  11.263   4.882
97826SOL    HW195375  13.268  11.235   4.797
97826SOL    HW295376  13.339  11.349   4.866
97827SOL     OW95377  10.929   1.639  14.351
97827SOL    HW195378  10.946   1.699  14.279
97827SOL    HW295379  10.879   1.568  14.311
97828SOL     OW95380  13.711  12.912  11.199
97828SOL    HW195381  13.700  13.003  11.169
97828SOL    HW295382  13.657  12.860  11.140
97829SOL     OW95383   9.061  14.436  12.763
97829SOL    HW195384   9.102  14.495  12.700
97829SOL    HW295385   8.969  14.432  12.735
97830SOL     OW95386   4.856  13.567   9.745
97830SOL    HW195387   4.785  13.586   9.806
97830SOL    HW295388   4.894  13.485   9.777
97831SOL     OW95389  12.479   1.821   3.030
97831SOL    HW195390  12.396   1.783   3.059
97831SOL    HW295391  12.533   1.745   3.007
97832SOL     OW95392   7.508   5.332   6.300
97832SOL    HW195393   7.575   5.358   6.363
97832SOL    HW295394   7.427   5.331   6.350
97833SOL     OW95395   1.003  13.003  12.976
97833SOL    HW195396   1.048  12.955  13.046
97833SOL    HW295397   0.989  12.938  12.908
97834SOL     OW95398   4.674  10.337  12.380
97834SOL    HW195399   4.761  10.376  12.382
97834SOL    HW295400   4.616  10.409  12.355
97835SOL     OW95401   6.819  14.011   0.351
97835SOL    HW195402   6.777  14.049   0.274
97835SOL    HW295403   6.866  14.083   0.392
97836SOL     OW95404   5.722   1.609  12.974
97836SOL    HW195405   5.692   1.680  12.917
97836SOL    HW295406   5.700   1.638  13.062
97837SOL     OW95407   5.345  10.973  14.561
97837SOL    HW195408   5.298  10.891  14.554
97837SOL    HW295409   5.410  10.958  14.630
97838SOL     OW95410  13.602   4.272   3.661
97838SOL    HW195411  13.515   4.313   3.653
97838SOL    HW295412  13.583   4.180   3.677
97839SOL     OW95413   3.891   9.845   7.812
97839SOL    HW195414   3.873   9.757   7.779
97839SOL    HW295415   3.874   9.902   7.737
97840SOL     OW95416  12.394   7.764   1.893
97840SOL    HW195417  12.438   7.705   1.954
97840SOL    HW295418  12.304   7.771   1.926
97841SOL     OW95419   5.329  13.516   4.037
97841SOL    HW195420   5.248  13.529   3.988
97841SOL    HW295421   5.307  13.451   4.104
97842SOL     OW95422   9.656   2.210   6.914
97842SOL    HW195423   9.648   2.262   6.834
97842SOL    HW295424   9.675   2.121   6.883
97843SOL     OW95425   9.669   7.267   2.217
97843SOL    HW195426   9.574   7.256   2.222
97843SOL    HW295427   9.691   7.247   2.126
97844SOL     OW95428   1.439  10.695  11.231
97844SOL    HW195429   1.398  10.772  11.271
97844SOL    HW295430   1.516  10.677  11.285
97845SOL     OW95431   9.909   9.170   8.622
97845SOL    HW195432   9.974   9.147   8.555
97845SOL    HW295433   9.833   9.201   8.573
97846SOL     OW95434  10.570  14.323  12.925
97846SOL    HW195435  10.659  14.287  12.930
97846SOL    HW295436  10.514  14.250  12.952
97847SOL     OW95437  12.360   8.265   8.648
97847SOL    HW195438  12.415   8.343   8.642
97847SOL    HW295439  12.314   8.275   8.731
97848SOL     OW95440   9.469   5.610  13.575
97848SOL    HW195441   9.521   5.606  13.655
97848SOL    HW295442   9.508   5.545  13.518
97849SOL     OW95443  11.589   3.854   1.448
97849SOL    HW195444  11.509   3.895   1.416
97849SOL    HW295445  11.631   3.922   1.501
97850SOL     OW95446   3.278  12.990   8.144
97850SOL    HW195447   3.211  12.973   8.078
97850SOL    HW295448   3.280  13.085   8.153
97851SOL     OW95449  12.002   2.478  14.308
97851SOL    HW195450  11.941   2.430  14.252
97851SOL    HW295451  11.966   2.567  14.312
97852SOL     OW95452   5.130   6.650   8.475
97852SOL    HW195453   5.119   6.556   8.491
97852SOL    HW295454   5.126   6.690   8.562
97853SOL     OW95455   6.851   6.722   9.401
97853SOL    HW195456   6.837   6.699   9.309
97853SOL    HW295457   6.784   6.788   9.420
97854SOL     OW95458   0.643   9.496   9.164
97854SOL    HW195459   0.736   9.518   9.162
97854SOL    HW295460   0.598   9.580   9.153
97855SOL     OW95461  11.980  13.532   6.184
97855SOL    HW195462  11.890  13.524   6.218
97855SOL    HW295463  12.033  13.483   6.247
97856SOL     OW95464   4.094  13.277  13.338
97856SOL    HW195465   4.046  13.285  13.420
97856SOL    HW295466   4.067  13.192  13.303
97857SOL     OW95467   6.133   6.322   9.856
97857SOL    HW195468   6.219   6.346   9.821
97857SOL    HW295469   6.119   6.232   9.828
97858SOL     OW95470  12.582  13.425   8.017
97858SOL    HW195471  12.644  13.485   7.975
97858SOL    HW295472  12.528  13.481   8.072
97859SOL     OW95473   2.007   2.365   0.806
97859SOL    HW195474   2.023   2.388   0.714
97859SOL    HW295475   2.010   2.448   0.852
97860SOL     OW95476  13.380   0.923   1.385
97860SOL    HW195477  13.392   0.882   1.470
97860SOL    HW295478  13.301   0.883   1.349
97861SOL     OW95479  13.957  10.541   7.242
97861SOL    HW195480  13.924  10.461   7.285
97861SOL    HW295481  14.052  10.533   7.249
97862SOL     OW95482  13.805  10.441  11.877
97862SOL    HW195483  13.732  10.379  11.878
97862SOL    HW295484  13.882  10.389  11.901
97863SOL     OW95485   4.278  12.806   4.592
97863SOL    HW195486   4.362  12.837   4.557
97863SOL    HW295487   4.259  12.866   4.664
97864SOL     OW95488   7.990   8.304  11.682
97864SOL    HW195489   8.000   8.220  11.726
97864SOL    HW295490   8.065   8.356  11.712
97865SOL     OW95491   9.357   6.324  13.224
97865SOL    HW195492   9.288   6.279  13.175
97865SOL    HW295493   9.426   6.340  13.160
97866SOL     OW95494   0.300   1.915  10.028
97866SOL    HW195495   0.332   1.850   9.965
97866SOL    HW295496   0.261   1.984   9.974
97867SOL     OW95497   6.806   4.544  14.343
97867SOL    HW195498   6.857   4.496  14.408
97867SOL    HW295499   6.716   4.542  14.376
97868SOL     OW95500   5.190   0.095   4.948
97868SOL    HW195501   5.137   0.136   4.879
97868SOL    HW295502   5.128   0.043   4.998
97869SOL     OW95503  10.179  11.799   3.045
97869SOL    HW195504  10.249  11.735   3.060
97869SOL    HW295505  10.176  11.851   3.125
97870SOL     OW95506   0.421  11.407   6.553
97870SOL    HW195507   0.399  11.319   6.581
97870SOL    HW295508   0.496  11.396   6.494
97871SOL     OW95509   3.110   2.680   4.307
97871SOL    HW195510   3.179   2.694   4.371
97871SOL    HW295511   3.135   2.599   4.262
97872SOL     OW95512   6.259  14.406   1.234
97872SOL    HW195513   6.260  14.461   1.155
97872SOL    HW295514   6.256  14.469   1.306
97873SOL     OW95515   6.518   6.936   5.538
97873SOL    HW195516   6.585   6.880   5.577
97873SOL    HW295517   6.565   7.013   5.507
97874SOL     OW95518  13.107  13.873   2.836
97874SOL    HW195519  13.172  13.904   2.773
97874SOL    HW295520  13.025  13.873   2.786
97875SOL     OW95521   1.289   6.829  10.828
97875SOL    HW195522   1.335   6.756  10.786
97875SOL    HW295523   1.200   6.797  10.841
97876SOL     OW95524  13.898   2.374  14.143
97876SOL    HW195525  13.856   2.411  14.220
97876SOL    HW295526  13.869   2.282  14.141
97877SOL     OW95527   7.962  13.558   1.644
97877SOL    HW195528   7.965  13.563   1.549
97877SOL    HW295529   7.978  13.466   1.664
97878SOL     OW95530   4.441  10.368  11.754
97878SOL    HW195531   4.418  10.285  11.795
97878SOL    HW295532   4.364  10.423  11.768
97879SOL     OW95533  14.468   7.418   8.322
97879SOL    HW195534  14.437   7.465   8.244
97879SOL    HW295535  14.443   7.327   8.307
97880SOL     OW95536   9.856   4.798   9.103
97880SOL    HW195537   9.910   4.751   9.167
97880SOL    HW295538   9.832   4.731   9.038
97881SOL     OW95539  10.040   8.092  12.583
97881SOL    HW195540  10.021   8.168  12.528
97881SOL    HW295541  10.058   8.021  12.521
97882SOL     OW95542   8.948   8.869   2.591
97882SOL    HW195543   9.034   8.893   2.626
97882SOL    HW295544   8.914   8.807   2.655
97883SOL     OW95545  12.841   9.529   3.845
97883SOL    HW195546  12.848   9.443   3.886
97883SOL    HW295547  12.807   9.510   3.757
97884SOL     OW95548   5.517   7.538  14.714
97884SOL    HW195549   5.595   7.497  14.751
97884SOL    HW295550   5.444   7.503  14.766
97885SOL     OW95551   8.166   4.006  10.958
97885SOL    HW195552   8.140   4.007  11.050
97885SOL    HW295553   8.256   4.036  10.958
97886SOL     OW95554   5.081   0.874   6.625
97886SOL    HW195555   5.033   0.860   6.544
97886SOL    HW295556   5.037   0.949   6.667
97887SOL     OW95557   4.211   2.366   2.104
97887SOL    HW195558   4.196   2.406   2.190
97887SOL    HW295559   4.161   2.421   2.043
97888SOL     OW95560   4.588  13.564   9.890
97888SOL    HW195561   4.496  13.587   9.906
97888SOL    HW295562   4.605  13.492   9.952
97889SOL     OW95563   1.924   0.605  14.110
97889SOL    HW195564   1.841   0.596  14.063
97889SOL    HW295565   1.920   0.691  14.150
97890SOL     OW95566  14.022   8.423   8.090
97890SOL    HW195567  14.040   8.512   8.062
97890SOL    HW295568  13.927   8.413   8.079
97891SOL     OW95569   5.447   5.541   5.383
97891SOL    HW195570   5.462   5.543   5.477
97891SOL    HW295571   5.533   5.527   5.344
97892SOL     OW95572   8.146   8.317   7.411
97892SOL    HW195573   8.086   8.393   7.409
97892SOL    HW295574   8.196   8.328   7.492
97893SOL     OW95575   8.651  10.468   7.769
97893SOL    HW195576   8.690  10.385   7.743
97893SOL    HW295577   8.711  10.535   7.737
97894SOL     OW95578  10.253   0.660  11.768
97894SOL    HW195579  10.266   0.593  11.700
97894SOL    HW295580  10.232   0.611  11.847
97895SOL     OW95581   3.010  10.895   2.820
97895SOL    HW195582   2.922  10.904   2.785
97895SOL    HW295583   2.998  10.851   2.905
97896SOL     OW95584   6.235   7.505   4.136
97896SOL    HW195585   6.165   7.523   4.198
97896SOL    HW295586   6.250   7.588   4.091
97897SOL     OW95587   8.878  14.295  13.805
97897SOL    HW195588   8.901  14.330  13.719
97897SOL    HW295589   8.862  14.202  13.789
97898SOL     OW95590  13.099   3.163   8.025
97898SOL    HW195591  13.004   3.174   8.023
97898SOL    HW295592  13.114   3.097   8.093
97899SOL     OW95593   9.521   1.535  14.507
97899SOL    HW195594   9.484   1.450  14.534
97899SOL    HW295595   9.444   1.591  14.494
97900SOL     OW95596  10.327   5.933   6.214
97900SOL    HW195597  10.376   5.851   6.218
97900SOL    HW295598  10.235   5.907   6.218
97901SOL     OW95599   8.743   9.412   7.737
97901SOL    HW195600   8.709   9.455   7.816
97901SOL    HW295601   8.792   9.336   7.770
97902SOL     OW95602  10.088   6.595  12.379
97902SOL    HW195603  10.179   6.618  12.361
97902SOL    HW295604  10.074   6.514  12.329
97903SOL     OW95605   1.232   0.888  13.451
97903SOL    HW195606   1.310   0.929  13.486
97903SOL    HW295607   1.247   0.884  13.356
97904SOL     OW95608  10.805  14.817   5.809
97904SOL    HW195609  10.736  14.752   5.795
97904SOL    HW295610  10.770   0.027   5.773
97905SOL     OW95611   5.369  13.205   9.362
97905SOL    HW195612   5.460  13.223   9.338
97905SOL    HW295613   5.362  13.237   9.452
97906SOL     OW95614   2.300   4.039  14.451
97906SOL    HW195615   2.260   4.081  14.527
97906SOL    HW295616   2.383   4.085  14.439
97907SOL     OW95617   3.561   3.248  14.441
97907SOL    HW195618   3.551   3.154  14.427
97907SOL    HW295619   3.473   3.284  14.429
97908SOL     OW95620   2.502   0.201  13.497
97908SOL    HW195621   2.444   0.127  13.479
97908SOL    HW295622   2.582   0.181  13.448
97909SOL     OW95623   0.047  14.078   0.683
97909SOL    HW195624   0.073  14.101   0.772
97909SOL    HW295625  14.823  14.070   0.687
97910SOL     OW95626   5.991   1.733   1.621
97910SOL    HW195627   6.063   1.670   1.626
97910SOL    HW295628   5.981   1.752   1.528
97911SOL     OW95629  12.448   8.671  11.011
97911SOL    HW195630  12.413   8.599  11.064
97911SOL    HW295631  12.378   8.689  10.947
97912SOL     OW95632   5.112   3.975  14.272
97912SOL    HW195633   5.175   3.949  14.205
97912SOL    HW295634   5.027   3.973  14.229
97913SOL     OW95635  11.053   3.805   1.188
97913SOL    HW195636  11.005   3.724   1.203
97913SOL    HW295637  11.114   3.785   1.116
97914SOL     OW95638   2.339  12.477   6.434
97914SOL    HW195639   2.284  12.425   6.376
97914SOL    HW295640   2.315  12.567   6.415
97915SOL     OW95641  12.534   6.611   4.657
97915SOL    HW195642  12.496   6.541   4.604
97915SOL    HW295643  12.458   6.660   4.690
97916SOL     OW95644   0.952   3.434  10.386
97916SOL    HW195645   0.957   3.529  10.376
97916SOL    HW295646   0.907   3.404  10.307
97917SOL     OW95647  13.442  14.425   3.855
97917SOL    HW195648  13.383  14.483   3.807
97917SOL    HW295649  13.386  14.351   3.881
97918SOL     OW95650   9.972   4.020   0.275
97918SOL    HW195651   9.896   3.979   0.316
97918SOL    HW295652   9.935   4.087   0.217
97919SOL     OW95653   4.261   1.751   7.209
97919SOL    HW195654   4.215   1.834   7.206
97919SOL    HW295655   4.227   1.702   7.134
97920SOL     OW95656  12.864   3.191   8.401
97920SOL    HW195657  12.829   3.231   8.480
97920SOL    HW295658  12.864   3.262   8.336
97921SOL     OW95659  14.320  14.452   8.007
97921SOL    HW195660  14.240  14.486   7.966
97921SOL    HW295661  14.315  14.357   7.994
97922SOL     OW95662   9.284   6.115   2.003
97922SOL    HW195663   9.333   6.065   1.939
97922SOL    HW295664   9.311   6.080   2.088
97923SOL     OW95665   2.388   7.482   7.076
97923SOL    HW195666   2.343   7.405   7.041
97923SOL    HW295667   2.465   7.447   7.121
97924SOL     OW95668   3.488   3.176  11.608
97924SOL    HW195669   3.508   3.220  11.526
97924SOL    HW295670   3.422   3.233  11.650
97925SOL     OW95671  14.393   3.220   4.702
97925SOL    HW195672  14.302   3.207   4.725
97925SOL    HW295673  14.404   3.173   4.619
97926SOL     OW95674   1.845   5.214   2.499
97926SOL    HW195675   1.906   5.279   2.534
97926SOL    HW295676   1.759   5.240   2.533
97927SOL     OW95677  11.926   3.929   9.732
97927SOL    HW195678  12.006   3.953   9.686
97927SOL    HW295679  11.900   3.845   9.693
97928SOL     OW95680   0.968  13.495   5.757
97928SOL    HW195681   1.053  13.518   5.793
97928SOL    HW295682   0.905  13.529   5.821
97929SOL     OW95683  10.185   0.952   9.565
97929SOL    HW195684  10.115   0.919   9.508
97929SOL    HW295685  10.160   0.923   9.653
97930SOL     OW95686   0.221  13.551   3.385
97930SOL    HW195687   0.309  13.532   3.419
97930SOL    HW295688   0.178  13.465   3.382
97931SOL     OW95689   1.382   6.339  11.394
97931SOL    HW195690   1.333   6.353  11.476
97931SOL    HW295691   1.426   6.423  11.379
97932SOL     OW95692   2.153  10.403  11.073
97932SOL    HW195693   2.132  10.426  11.163
97932SOL    HW295694   2.130  10.480  11.022
97933SOL     OW95695   0.425   4.210  10.375
97933SOL    HW195696   0.418   4.303  10.353
97933SOL    HW295697   0.419   4.165  10.291
97934SOL     OW95698   2.666   1.871  11.073
97934SOL    HW195699   2.747   1.873  11.023
97934SOL    HW295700   2.691   1.838  11.160
97935SOL     OW95701   4.597   3.860   9.426
97935SOL    HW195702   4.653   3.849   9.350
97935SOL    HW295703   4.555   3.775   9.438
97936SOL     OW95704   0.026   2.288   6.064
97936SOL    HW195705  14.842   2.221   6.104
97936SOL    HW295706   0.104   2.241   6.035
97937SOL     OW95707   9.564   7.778   8.975
97937SOL    HW195708   9.483   7.827   8.987
97937SOL    HW295709   9.609   7.786   9.059
97938SOL     OW95710   7.173   2.858   5.281
97938SOL    HW195711   7.177   2.952   5.296
97938SOL    HW295712   7.201   2.819   5.364
97939SOL     OW95713   6.012  12.597   8.064
97939SOL    HW195714   5.945  12.533   8.088
97939SOL    HW295715   6.084  12.580   8.125
97940SOL     OW95716   2.448   9.394   0.904
97940SOL    HW195717   2.378   9.332   0.883
97940SOL    HW295718   2.472   9.433   0.820
97941SOL     OW95719  13.992   6.805   0.226
97941SOL    HW195720  13.995   6.877   0.289
97941SOL    HW295721  13.934   6.740   0.265
97942SOL     OW95722   7.335   8.790   1.159
97942SOL    HW195723   7.365   8.820   1.073
97942SOL    HW295724   7.316   8.870   1.207
97943SOL     OW95725  13.000   8.999   1.233
97943SOL    HW195726  12.949   8.951   1.169
97943SOL    HW295727  13.082   8.950   1.241
97944SOL     OW95728   2.706  10.740   4.372
97944SOL    HW195729   2.799  10.729   4.354
97944SOL    HW295730   2.700  10.824   4.418
97945SOL     OW95731  11.607   4.042   4.541
97945SOL    HW195732  11.570   4.095   4.469
97945SOL    HW295733  11.674   4.098   4.580
97946SOL     OW95734   1.605  14.166  12.310
97946SOL    HW195735   1.586  14.074  12.290
97946SOL    HW295736   1.587  14.213  12.229
97947SOL     OW95737   6.125   1.224   2.748
97947SOL    HW195738   6.115   1.319   2.740
97947SOL    HW295739   6.197   1.202   2.689
97948SOL     OW95740   4.476  13.180   5.719
97948SOL    HW195741   4.456  13.092   5.750
97948SOL    HW295742   4.558  13.203   5.761
97949SOL     OW95743   8.590  12.112  12.928
97949SOL    HW195744   8.595  12.020  12.956
97949SOL    HW295745   8.500  12.137  12.948
97950SOL     OW95746  12.089   7.646  12.157
97950SOL    HW195747  12.105   7.643  12.252
97950SOL    HW295748  12.061   7.736  12.140
97951SOL     OW95749   1.861   5.166   2.226
97951SOL    HW195750   1.840   5.074   2.211
97951SOL    HW295751   1.865   5.175   2.321
97952SOL     OW95752   6.790   4.213   5.117
97952SOL    HW195753   6.882   4.188   5.102
97952SOL    HW295754   6.749   4.133   5.149
97953SOL     OW95755  10.718   8.942  14.475
97953SOL    HW195756  10.797   8.980  14.436
97953SOL    HW295757  10.681   9.013  14.528
97954SOL     OW95758   0.932  13.892   1.335
97954SOL    HW195759   0.981  13.871   1.255
97954SOL    HW295760   0.841  13.870   1.314
97955SOL     OW95761   5.160   3.063   9.580
97955SOL    HW195762   5.118   3.004   9.518
97955SOL    HW295763   5.144   3.025   9.666
97956SOL     OW95764   7.017  14.603  10.080
97956SOL    HW195765   7.076  14.650  10.021
97956SOL    HW295766   6.951  14.564  10.023
97957SOL     OW95767   0.899   4.002   4.395
97957SOL    HW195768   0.856   3.937   4.450
97957SOL    HW295769   0.828   4.041   4.344
97958SOL     OW95770   3.103  11.942   5.470
97958SOL    HW195771   3.056  11.996   5.406
97958SOL    HW295772   3.127  12.004   5.539
97959SOL     OW95773   7.214   2.647   8.160
97959SOL    HW195774   7.127   2.607   8.159
97959SOL    HW295775   7.261   2.601   8.229
97960SOL     OW95776   0.056   8.185   9.475
97960SOL    HW195777   0.019   8.247   9.411
97960SOL    HW295778   0.138   8.226   9.502
97961SOL     OW95779   5.603   3.470   7.990
97961SOL    HW195780   5.539   3.415   8.034
97961SOL    HW295781   5.589   3.558   8.024
97962SOL     OW95782   1.212  12.434   8.706
97962SOL    HW195783   1.245  12.516   8.741
97962SOL    HW295784   1.192  12.453   8.614
97963SOL     OW95785  14.071   0.747   4.420
97963SOL    HW195786  14.077   0.840   4.442
97963SOL    HW295787  13.999   0.714   4.473
97964SOL     OW95788  10.552   3.830   8.004
97964SOL    HW195789  10.471   3.792   8.036
97964SOL    HW295790  10.542   3.924   8.018
97965SOL     OW95791   5.456   3.154   9.235
97965SOL    HW195792   5.444   3.061   9.250
97965SOL    HW295793   5.476   3.190   9.321
97966SOL     OW95794   4.494   9.721   0.673
97966SOL    HW195795   4.411   9.709   0.720
97966SOL    HW295796   4.492   9.654   0.604
97967SOL     OW95797   6.372  13.399  10.197
97967SOL    HW195798   6.414  13.372  10.279
97967SOL    HW295799   6.359  13.493  10.207
97968SOL     OW95800   4.227   5.812  13.969
97968SOL    HW195801   4.198   5.853  13.888
97968SOL    HW295802   4.161   5.744  13.986
97969SOL     OW95803  13.501   1.819  11.176
97969SOL    HW195804  13.565   1.885  11.204
97969SOL    HW295805  13.456   1.859  11.102
97970SOL     OW95806   2.203   7.912  10.025
97970SOL    HW195807   2.297   7.910  10.044
97970SOL    HW295808   2.177   7.820  10.023
97971SOL     OW95809   6.959  11.887  11.285
97971SOL    HW195810   6.935  11.980  11.295
97971SOL    HW295811   7.053  11.888  11.270
97972SOL     OW95812   2.488   3.868   3.651
97972SOL    HW195813   2.445   3.798   3.701
97972SOL    HW295814   2.419   3.903   3.595
97973SOL     OW95815  10.415   4.581  14.134
97973SOL    HW195816  10.397   4.647  14.202
97973SOL    HW295817  10.337   4.581  14.079
97974SOL     OW95818   1.509  12.613   9.227
97974SOL    HW195819   1.536  12.662   9.149
97974SOL    HW295820   1.457  12.541   9.194
97975SOL     OW95821   4.958  12.429  12.078
97975SOL    HW195822   4.900  12.353  12.083
97975SOL    HW295823   5.043  12.397  12.110
97976SOL     OW95824  14.339   7.233  13.546
97976SOL    HW195825  14.287   7.164  13.505
97976SOL    HW295826  14.298   7.314  13.518
97977SOL     OW95827  14.501  12.142   0.437
97977SOL    HW195828  14.452  12.082   0.492
97977SOL    HW295829  14.442  12.162   0.364
97978SOL     OW95830   3.836   2.889  13.510
97978SOL    HW195831   3.915   2.872  13.562
97978SOL    HW295832   3.829   2.984  13.509
97979SOL     OW95833   2.226  12.852  14.310
97979SOL    HW195834   2.251  12.799  14.234
97979SOL    HW295835   2.267  12.808  14.385
97980SOL     OW95836  12.028  12.868  11.998
97980SOL    HW195837  11.966  12.801  12.026
97980SOL    HW295838  12.096  12.869  12.065
97981SOL     OW95839  11.743   1.942   8.834
97981SOL    HW195840  11.780   1.890   8.906
97981SOL    HW295841  11.801   2.018   8.827
97982SOL     OW95842   2.349  11.544   0.694
97982SOL    HW195843   2.366  11.630   0.732
97982SOL    HW295844   2.433  11.517   0.656
97983SOL     OW95845   6.779   7.300   0.055
97983SOL    HW195846   6.830   7.378   0.032
97983SOL    HW295847   6.688   7.329   0.047
97984SOL     OW95848   9.624   8.644   0.049
97984SOL    HW195849   9.617   8.665  14.828
97984SOL    HW295850   9.546   8.591   0.067
97985SOL     OW95851  10.371  11.695   3.728
97985SOL    HW195852  10.324  11.630   3.675
97985SOL    HW295853  10.302  11.753   3.762
97986SOL     OW95854  12.006   7.703   9.605
97986SOL    HW195855  11.986   7.679   9.515
97986SOL    HW295856  12.038   7.793   9.600
97987SOL     OW95857   6.710  13.816  10.694
97987SOL    HW195858   6.748  13.842  10.778
97987SOL    HW295859   6.746  13.878  10.631
97988SOL     OW95860   2.318   8.255   0.484
97988SOL    HW195861   2.319   8.190   0.554
97988SOL    HW295862   2.266   8.327   0.519
97989SOL     OW95863  13.450  11.994  13.020
97989SOL    HW195864  13.420  12.085  13.031
97989SOL    HW295865  13.528  12.002  12.964
97990SOL     OW95866  11.853  12.416  12.265
97990SOL    HW195867  11.888  12.332  12.294
97990SOL    HW295868  11.893  12.480  12.324
97991SOL     OW95869  10.763   9.491  14.536
97991SOL    HW195870  10.794   9.451  14.455
97991SOL    HW295871  10.676   9.453  14.549
97992SOL     OW95872  12.443  14.427  14.402
97992SOL    HW195873  12.368  14.463  14.450
97992SOL    HW295874  12.518  14.443  14.460
97993SOL     OW95875   6.957   3.563   3.235
97993SOL    HW195876   7.031   3.564   3.296
97993SOL    HW295877   6.891   3.619   3.277
97994SOL     OW95878  13.966  12.769  13.483
97994SOL    HW195879  13.971  12.690  13.538
97994SOL    HW295880  14.057  12.793  13.467
97995SOL     OW95881   0.552   8.123   3.820
97995SOL    HW195882   0.493   8.199   3.824
97995SOL    HW295883   0.638   8.158   3.843
97996SOL     OW95884   0.650   5.796   0.230
97996SOL    HW195885   0.596   5.760   0.301
97996SOL    HW295886   0.632   5.890   0.231
97997SOL     OW95887   8.061   7.199   7.636
97997SOL    HW195888   8.097   7.179   7.549
97997SOL    HW295889   8.115   7.148   7.696
97998SOL     OW95890   3.040  13.640  11.795
97998SOL    HW195891   2.968  13.581  11.775
97998SOL    HW295892   3.047  13.696  11.717
97999SOL     OW95893   0.228   8.643   0.424
97999SOL    HW195894   0.140   8.680   0.427
97999SOL    HW295895   0.216   8.549   0.436
98000SOL     OW95896   4.217   3.228  10.434
98000SOL    HW195897   4.147   3.181  10.387
98000SOL    HW295898   4.221   3.313  10.390
98001SOL     OW95899  10.848   8.062   4.478
98001SOL    HW195900  10.819   8.112   4.554
98001SOL    HW295901  10.901   8.123   4.427
98002SOL     OW95902   6.916   9.282   5.696
98002SOL    HW195903   6.881   9.210   5.644
98002SOL    HW295904   6.970   9.240   5.763
98003SOL     OW95905  11.986   6.429   7.181
98003SOL    HW195906  12.055   6.437   7.115
98003SOL    HW295907  11.978   6.517   7.218
98004SOL     OW95908   1.200   4.279   7.925
98004SOL    HW195909   1.207   4.238   8.011
98004SOL    HW295910   1.114   4.319   7.924
98005SOL     OW95911   7.268  11.739  13.778
98005SOL    HW195912   7.264  11.834  13.788
98005SOL    HW295913   7.358  11.722  13.750
98006SOL     OW95914   4.039   9.362   0.524
98006SOL    HW195915   4.041   9.267   0.511
98006SOL    HW295916   4.012   9.397   0.439
98007SOL     OW95917  11.216  11.991   1.937
98007SOL    HW195918  11.148  11.997   2.004
98007SOL    HW295919  11.172  12.016   1.855
98008SOL     OW95920   4.861   2.483  12.284
98008SOL    HW195921   4.894   2.397  12.256
98008SOL    HW295922   4.919   2.508  12.356
98009SOL     OW95923  13.347  12.962  12.854
98009SOL    HW195924  13.390  12.885  12.891
98009SOL    HW295925  13.350  12.949  12.759
98010SOL     OW95926   1.009   0.152   8.314
98010SOL    HW195927   0.935   0.091   8.322
98010SOL    HW295928   1.084   0.104   8.349
98011SOL     OW95929   5.827   8.670  11.293
98011SOL    HW195930   5.748   8.627  11.325
98011SOL    HW295931   5.802   8.707  11.208
98012SOL     OW95932   3.427   5.237   1.940
98012SOL    HW195933   3.349   5.261   1.890
98012SOL    HW295934   3.496   5.294   1.906
98013SOL     OW95935  12.271   5.714   2.183
98013SOL    HW195936  12.272   5.654   2.257
98013SOL    HW295937  12.210   5.784   2.209
98014SOL     OW95938   4.393  10.666   0.178
98014SOL    HW195939   4.384  10.578   0.141
98014SOL    HW295940   4.486  10.685   0.173
98015SOL     OW95941  12.254  13.962   3.603
98015SOL    HW195942  12.231  13.899   3.671
98015SOL    HW295943  12.224  14.046   3.636
98016SOL     OW95944  14.440   0.216  13.669
98016SOL    HW195945  14.529   0.218  13.635
98016SOL    HW295946  14.443   0.265  13.750
98017SOL     OW95947  11.136   8.108  11.768
98017SOL    HW195948  11.161   8.015  11.768
98017SOL    HW295949  11.041   8.107  11.778
98018SOL     OW95950  12.720   8.388   2.003
98018SOL    HW195951  12.711   8.470   1.954
98018SOL    HW295952  12.647   8.388   2.064
98019SOL     OW95953  14.541   2.804   0.243
98019SOL    HW195954  14.595   2.879   0.267
98019SOL    HW295955  14.590   2.761   0.173
98020SOL     OW95956   5.105  13.922   4.152
98020SOL    HW195957   5.151  13.911   4.068
98020SOL    HW295958   5.030  13.863   4.146
98021SOL     OW95959  10.740  12.699   6.978
98021SOL    HW195960  10.787  12.767   7.027
98021SOL    HW295961  10.686  12.748   6.916
98022SOL     OW95962   9.223   0.538   2.903
98022SOL    HW195963   9.152   0.522   2.841
98022SOL    HW295964   9.294   0.572   2.850
98023SOL     OW95965   5.765   7.514   6.311
98023SOL    HW195966   5.813   7.591   6.344
98023SOL    HW295967   5.681   7.516   6.356
98024SOL     OW95968  13.312  14.768   8.524
98024SOL    HW195969  13.331  14.703   8.591
98024SOL    HW295970  13.259  14.834   8.568
98025SOL     OW95971   4.341   7.034  10.435
98025SOL    HW195972   4.301   7.071  10.356
98025SOL    HW295973   4.402   6.968  10.403
98026SOL     OW95974   2.989   6.243   2.614
98026SOL    HW195975   2.909   6.287   2.642
98026SOL    HW295976   2.990   6.252   2.519
98027SOL     OW95977   6.816   2.433   4.492
98027SOL    HW195978   6.726   2.450   4.518
98027SOL    HW295979   6.842   2.511   4.442
98028SOL     OW95980   1.668   6.784   1.618
98028SOL    HW195981   1.640   6.823   1.534
98028SOL    HW295982   1.737   6.722   1.594
98029SOL     OW95983   6.245   9.352   9.508
98029SOL    HW195984   6.189   9.377   9.581
98029SOL    HW295985   6.298   9.281   9.542
98030SOL     OW95986   1.354   5.572   9.877
98030SOL    HW195987   1.393   5.506   9.819
98030SOL    HW295988   1.278   5.605   9.829
98031SOL     OW95989   3.627  12.390  12.567
98031SOL    HW195990   3.619  12.374  12.661
98031SOL    HW295991   3.664  12.309  12.532
98032SOL     OW95992  12.268   3.943   6.223
98032SOL    HW195993  12.353   3.942   6.181
98032SOL    HW295994  12.286   3.925   6.315
98033SOL     OW95995   1.883   6.442   9.626
98033SOL    HW195996   1.810   6.504   9.628
98033SOL    HW295997   1.936   6.471   9.552
98034SOL     OW95998   4.909  14.513   5.152
98034SOL    HW195999   5.001  14.510   5.126
98034SOL    HW296000   4.911  14.509   5.248
98035SOL     OW96001   9.615   3.373   0.844
98035SOL    HW196002   9.588   3.434   0.775
98035SOL    HW296003   9.537   3.320   0.861
98036SOL     OW96004   6.794   0.423   9.476
98036SOL    HW196005   6.745   0.391   9.551
98036SOL    HW296006   6.795   0.518   9.487
98037SOL     OW96007   6.555   3.194   4.178
98037SOL    HW196008   6.495   3.121   4.160
98037SOL    HW296009   6.531   3.223   4.266
98038SOL     OW96010   7.177   3.396   0.266
98038SOL    HW196011   7.251   3.437   0.222
98038SOL    HW296012   7.173   3.440   0.352
98039SOL     OW96013   8.153   6.070   4.857
98039SOL    HW196014   8.148   6.165   4.845
98039SOL    HW296015   8.183   6.060   4.948
98040SOL     OW96016   8.997  12.033  14.199
98040SOL    HW196017   9.026  12.118  14.168
98040SOL    HW296018   9.026  12.029  14.290
98041SOL     OW96019   0.001   3.924   4.989
98041SOL    HW196020  14.792   3.972   5.009
98041SOL    HW296021   0.071   3.990   4.995
98042SOL     OW96022  13.432   9.067  10.030
98042SOL    HW196023  13.353   9.040   9.983
98042SOL    HW296024  13.423   9.028  10.117
98043SOL     OW96025  13.835   2.516   1.522
98043SOL    HW196026  13.876   2.461   1.454
98043SOL    HW296027  13.838   2.463   1.601
98044SOL     OW96028   9.394   3.232   0.938
98044SOL    HW196029   9.427   3.199   1.022
98044SOL    HW296030   9.310   3.186   0.926
98045SOL     OW96031   2.884  13.239   1.027
98045SOL    HW196032   2.945  13.295   0.980
98045SOL    HW296033   2.929  13.155   1.035
98046SOL     OW96034   7.300   9.025   1.322
98046SOL    HW196035   7.360   9.099   1.310
98046SOL    HW296036   7.256   9.044   1.405
98047SOL     OW96037   0.620  12.677  10.807
98047SOL    HW196038   0.574  12.655  10.725
98047SOL    HW296039   0.666  12.758  10.788
98048SOL     OW96040   4.673   3.376   9.019
98048SOL    HW196041   4.741   3.310   9.005
98048SOL    HW296042   4.705   3.430   9.090
98049SOL     OW96043   6.290   2.897   3.750
98049SOL    HW196044   6.255   2.808   3.743
98049SOL    HW296045   6.384   2.886   3.759
98050SOL     OW96046   1.024   8.846   9.006
98050SOL    HW196047   1.109   8.807   8.988
98050SOL    HW296048   0.987   8.793   9.076
98051SOL     OW96049   9.715  10.021   7.774
98051SOL    HW196050   9.668   9.938   7.778
98051SOL    HW296051   9.652  10.082   7.735
98052SOL     OW96052  14.799   2.281   7.704
98052SOL    HW196053  14.704   2.273   7.701
98052SOL    HW296054  14.818   2.306   7.795
98053SOL     OW96055   0.022   8.843   4.283
98053SOL    HW196056   0.065   8.900   4.347
98053SOL    HW296057  14.854   8.903   4.220
98054SOL     OW96058   2.102  10.600  14.322
98054SOL    HW196059   2.183  10.621  14.369
98054SOL    HW296060   2.070  10.521  14.364
98055SOL     OW96061   9.014   5.580  13.347
98055SOL    HW196062   9.094   5.625  13.375
98055SOL    HW296063   9.024   5.491  13.382
98056SOL     OW96064  11.827  12.338  13.862
98056SOL    HW196065  11.811  12.332  13.768
98056SOL    HW296066  11.895  12.406  13.871
98057SOL     OW96067   6.475  11.662  13.695
98057SOL    HW196068   6.417  11.607  13.642
98057SOL    HW296069   6.503  11.732  13.635
98058SOL     OW96070  13.339   3.231   3.322
98058SOL    HW196071  13.360   3.323   3.339
98058SOL    HW296072  13.391   3.183   3.386
98059SOL     OW96073   9.454   7.340   1.059
98059SOL    HW196074   9.530   7.336   1.118
98059SOL    HW296075   9.488   7.378   0.979
98060SOL     OW96076   3.556   4.242   4.345
98060SOL    HW196077   3.585   4.319   4.395
98060SOL    HW296078   3.530   4.178   4.412
98061SOL     OW96079   8.528   7.993  13.844
98061SOL    HW196080   8.590   7.920  13.832
98061SOL    HW296081   8.549   8.027  13.931
98062SOL     OW96082   1.690   5.361   6.410
98062SOL    HW196083   1.779   5.337   6.385
98062SOL    HW296084   1.641   5.279   6.405
98063SOL     OW96085   6.441   9.610  11.714
98063SOL    HW196086   6.385   9.533  11.721
98063SOL    HW296087   6.489   9.598  11.632
98064SOL     OW96088   5.124   0.930  10.095
98064SOL    HW196089   5.139   0.951  10.003
98064SOL    HW296090   5.171   0.849  10.110
98065SOL     OW96091   7.442   6.137   0.203
98065SOL    HW196092   7.441   6.059   0.146
98065SOL    HW296093   7.419   6.104   0.289
98066SOL     OW96094  14.868   7.809   5.529
98066SOL    HW196095  14.773   7.819   5.529
98066SOL    HW296096   0.011   7.715   5.541
98067SOL     OW96097  11.050   3.524   3.614
98067SOL    HW196098  10.982   3.457   3.622
98067SOL    HW296099  11.002   3.606   3.603
98068SOL     OW96100   2.097   6.728   9.637
98068SOL    HW196101   2.149   6.648   9.628
98068SOL    HW296102   2.073   6.730   9.729
98069SOL     OW96103  10.453   9.778   8.004
98069SOL    HW196104  10.518   9.751   8.069
98069SOL    HW296105  10.426   9.866   8.032
98070SOL     OW96106   4.430   8.986  13.458
98070SOL    HW196107   4.451   9.017  13.370
98070SOL    HW296108   4.439   8.891  13.454
98071SOL     OW96109   4.984   7.829  13.716
98071SOL    HW196110   4.911   7.879  13.679
98071SOL    HW296111   5.053   7.836  13.650
98072SOL     OW96112   8.636   4.904   6.034
98072SOL    HW196113   8.665   4.888   6.124
98072SOL    HW296114   8.562   4.844   6.022
98073SOL     OW96115  13.400   8.295   8.358
98073SOL    HW196116  13.471   8.241   8.392
98073SOL    HW296117  13.408   8.288   8.263
98074SOL     OW96118   2.286   0.357  10.608
98074SOL    HW196119   2.338   0.407  10.545
98074SOL    HW296120   2.333   0.364  10.691
98075SOL     OW96121   0.970   0.340   9.311
98075SOL    HW196122   0.959   0.335   9.406
98075SOL    HW296123   0.883   0.324   9.275
98076SOL     OW96124   7.464   5.967   7.180
98076SOL    HW196125   7.376   5.973   7.143
98076SOL    HW296126   7.523   5.989   7.107
98077SOL     OW96127  13.979  10.692   5.622
98077SOL    HW196128  13.897  10.737   5.640
98077SOL    HW296129  14.033  10.758   5.578
98078SOL     OW96130  14.811   8.672   9.286
98078SOL    HW196131  14.805   8.688   9.380
98078SOL    HW296132  14.862   8.746   9.253
98079SOL     OW96133  11.022   4.277   3.098
98079SOL    HW196134  11.005   4.328   3.019
98079SOL    HW296135  11.029   4.342   3.168
98080SOL     OW96136   0.583   7.778  14.634
98080SOL    HW196137   0.611   7.870  14.637
98080SOL    HW296138   0.664   7.729  14.617
98081SOL     OW96139   8.178   4.762   7.463
98081SOL    HW196140   8.214   4.792   7.379
98081SOL    HW296141   8.095   4.808   7.471
98082SOL     OW96142   9.335  14.665   6.417
98082SOL    HW196143   9.318  14.675   6.324
98082SOL    HW296144   9.427  14.690   6.428
98083SOL     OW96145   2.058  13.431   8.111
98083SOL    HW196146   2.110  13.359   8.075
98083SOL    HW296147   2.084  13.436   8.203
98084SOL     OW96148  14.664   8.246   6.491
98084SOL    HW196149  14.747   8.214   6.455
98084SOL    HW296150  14.600   8.181   6.467
98085SOL     OW96151  14.541  10.462   6.390
98085SOL    HW196152  14.566  10.407   6.464
98085SOL    HW296153  14.605  10.441   6.322
98086SOL     OW96154   1.391   0.207   8.533
98086SOL    HW196155   1.345   0.243   8.457
98086SOL    HW296156   1.344   0.241   8.609
98087SOL     OW96157  12.007  12.986  14.102
98087SOL    HW196158  12.089  13.033  14.085
98087SOL    HW296159  12.009  12.967  14.196
98088SOL     OW96160   3.784   6.609   0.156
98088SOL    HW196161   3.752   6.604   0.246
98088SOL    HW296162   3.715   6.654   0.108
98089SOL     OW96163  11.964   9.886   5.092
98089SOL    HW196164  11.918   9.907   5.174
98089SOL    HW296165  12.050   9.927   5.102
98090SOL     OW96166   4.763   6.093   2.497
98090SOL    HW196167   4.790   6.013   2.542
98090SOL    HW296168   4.668   6.092   2.500
98091SOL     OW96169   3.704  13.463   3.655
98091SOL    HW196170   3.742  13.377   3.669
98091SOL    HW296171   3.721  13.482   3.563
98092SOL     OW96172  12.194   1.682   9.099
98092SOL    HW196173  12.248   1.701   9.176
98092SOL    HW296174  12.166   1.591   9.111
98093SOL     OW96175  11.527  13.359   8.044
98093SOL    HW196176  11.603  13.418   8.045
98093SOL    HW296177  11.455  13.412   8.079
98094SOL     OW96178   2.766   1.363   5.832
98094SOL    HW196179   2.788   1.372   5.925
98094SOL    HW296180   2.739   1.451   5.806
98095SOL     OW96181  14.602   5.672  12.773
98095SOL    HW196182  14.517   5.628  12.767
98095SOL    HW296183  14.601   5.736  12.701
98096SOL     OW96184   7.218   1.261  11.097
98096SOL    HW196185   7.284   1.227  11.036
98096SOL    HW296186   7.201   1.188  11.157
98097SOL     OW96187   9.246  11.861   3.308
98097SOL    HW196188   9.195  11.780   3.319
98097SOL    HW296189   9.264  11.890   3.397
98098SOL     OW96190   9.442   5.121   8.585
98098SOL    HW196191   9.500   5.107   8.660
98098SOL    HW296192   9.501   5.125   8.510
98099SOL     OW96193   0.788   4.118   9.205
98099SOL    HW196194   0.819   4.086   9.120
98099SOL    HW296195   0.734   4.194   9.185
98100SOL     OW96196   5.592   9.574   3.190
98100SOL    HW196197   5.654   9.597   3.260
98100SOL    HW296198   5.549   9.657   3.169
98101SOL     OW96199   3.230   6.133   2.666
98101SOL    HW196200   3.281   6.204   2.628
98101SOL    HW296201   3.143   6.172   2.680
98102SOL     OW96202  14.761   1.607  13.591
98102SOL    HW196203  14.665   1.611  13.589
98102SOL    HW296204  14.781   1.518  13.618
98103SOL     OW96205   9.675  13.700   3.870
98103SOL    HW196206   9.718  13.739   3.794
98103SOL    HW296207   9.733  13.629   3.897
98104SOL     OW96208   3.581  13.069   9.432
98104SOL    HW196209   3.504  13.113   9.469
98104SOL    HW296210   3.637  13.053   9.508
98105SOL     OW96211  11.986  11.984   5.817
98105SOL    HW196212  11.982  12.033   5.735
98105SOL    HW296213  11.931  11.907   5.801
98106SOL     OW96214   5.795  11.376  12.434
98106SOL    HW196215   5.785  11.289  12.395
98106SOL    HW296216   5.858  11.421  12.377
98107SOL     OW96217  13.675   1.859   6.668
98107SOL    HW196218  13.748   1.899   6.715
98107SOL    HW296219  13.704   1.855   6.577
98108SOL     OW96220  11.335   4.761   5.777
98108SOL    HW196221  11.402   4.782   5.842
98108SOL    HW296222  11.296   4.846   5.755
98109SOL     OW96223   0.291  11.144  13.126
98109SOL    HW196224   0.383  11.124  13.139
98109SOL    HW296225   0.257  11.071  13.074
98110SOL     OW96226   4.616   3.483   1.351
98110SOL    HW196227   4.644   3.483   1.260
98110SOL    HW296228   4.697   3.477   1.402
98111SOL     OW96229   6.006   1.393   4.542
98111SOL    HW196230   6.025   1.386   4.449
98111SOL    HW296231   6.078   1.444   4.578
98112SOL     OW96232   3.511   3.449   7.037
98112SOL    HW196233   3.553   3.488   6.960
98112SOL    HW296234   3.420   3.436   7.010
98113SOL     OW96235   1.886   1.937  11.089
98113SOL    HW196236   1.876   1.860  11.032
98113SOL    HW296237   1.961   1.916  11.144
98114SOL     OW96238   5.245   8.619  11.002
98114SOL    HW196239   5.218   8.709  11.020
98114SOL    HW296240   5.329   8.609  11.046
98115SOL     OW96241   1.082   6.719   4.119
98115SOL    HW196242   1.017   6.649   4.119
98115SOL    HW296243   1.069   6.764   4.203
98116SOL     OW96244  14.181   4.919  13.868
98116SOL    HW196245  14.227   4.886  13.791
98116SOL    HW296246  14.108   4.857  13.881
98117SOL     OW96247   9.453   0.643   0.745
98117SOL    HW196248   9.457   0.668   0.652
98117SOL    HW296249   9.528   0.584   0.757
98118SOL     OW96250  12.226  10.885   4.899
98118SOL    HW196251  12.191  10.806   4.941
98118SOL    HW296252  12.151  10.944   4.891
98119SOL     OW96253  14.566  11.898   9.334
98119SOL    HW196254  14.651  11.853   9.334
98119SOL    HW296255  14.586  11.989   9.313
98120SOL     OW96256   8.721   4.650  11.672
98120SOL    HW196257   8.646   4.703  11.700
98120SOL    HW296258   8.770   4.708  11.613
98121SOL     OW96259  14.264   8.097   6.067
98121SOL    HW196260  14.288   8.020   6.016
98121SOL    HW296261  14.296   8.171   6.015
98122SOL     OW96262   1.228  10.232   3.690
98122SOL    HW196263   1.265  10.257   3.605
98122SOL    HW296264   1.199  10.315   3.728
98123SOL     OW96265  12.703   1.910   5.828
98123SOL    HW196266  12.652   1.934   5.751
98123SOL    HW296267  12.710   1.991   5.879
98124SOL     OW96268   1.262  12.299   6.174
98124SOL    HW196269   1.191  12.268   6.118
98124SOL    HW296270   1.329  12.231   6.168
98125SOL     OW96271   1.877   6.216   8.784
98125SOL    HW196272   1.952   6.255   8.740
98125SOL    HW296273   1.883   6.248   8.874
98126SOL     OW96274   9.244   7.119  12.993
98126SOL    HW196275   9.170   7.113  13.053
98126SOL    HW296276   9.232   7.202  12.948
98127SOL     OW96277  13.736   0.743  10.751
98127SOL    HW196278  13.712   0.686  10.824
98127SOL    HW296279  13.728   0.832  10.786
98128SOL     OW96280  11.939  12.166  11.079
98128SOL    HW196281  11.948  12.075  11.107
98128SOL    HW296282  11.845  12.181  11.076
98129SOL     OW96283   0.336   1.064  13.349
98129SOL    HW196284   0.348   1.145  13.399
98129SOL    HW296285   0.380   1.080  13.266
98130SOL     OW96286  13.885   1.254   1.721
98130SOL    HW196287  13.960   1.203   1.751
98130SOL    HW296288  13.923   1.330   1.676
98131SOL     OW96289   6.942   1.053   6.981
98131SOL    HW196290   7.002   1.066   7.054
98131SOL    HW296291   6.865   1.011   7.020
98132SOL     OW96292   5.039   4.304   9.703
98132SOL    HW196293   5.021   4.382   9.650
98132SOL    HW296294   5.118   4.266   9.664
98133SOL     OW96295  12.585   8.052  12.001
98133SOL    HW196296  12.551   8.141  11.986
98133SOL    HW296297  12.591   8.013  11.914
98134SOL     OW96298   5.020   9.265  12.340
98134SOL    HW196299   4.936   9.261  12.295
98134SOL    HW296300   5.009   9.210  12.418
98135SOL     OW96301   2.608   7.707   5.840
98135SOL    HW196302   2.556   7.688   5.762
98135SOL    HW296303   2.557   7.773   5.887
98136SOL     OW96304   2.373   9.831   2.608
98136SOL    HW196305   2.387   9.925   2.619
98136SOL    HW296306   2.394   9.814   2.516
98137SOL     OW96307   9.245   5.696   0.357
98137SOL    HW196308   9.176   5.654   0.306
98137SOL    HW296309   9.316   5.709   0.295
98138SOL     OW96310   1.008   5.547  13.199
98138SOL    HW196311   0.994   5.464  13.246
98138SOL    HW296312   1.000   5.523  13.107
98139SOL     OW96313   6.576   1.909  14.335
98139SOL    HW196314   6.532   1.931  14.417
98139SOL    HW296315   6.667   1.936  14.349
98140SOL     OW96316   9.187   4.870   9.202
98140SOL    HW196317   9.123   4.804   9.177
98140SOL    HW296318   9.253   4.866   9.133
98141SOL     OW96319   5.631   8.507   1.193
98141SOL    HW196320   5.693   8.448   1.149
98141SOL    HW296321   5.636   8.482   1.285
98142SOL     OW96322   7.139   8.881  10.887
98142SOL    HW196323   7.088   8.956  10.856
98142SOL    HW296324   7.074   8.822  10.925
98143SOL     OW96325   2.018   7.156   2.067
98143SOL    HW196326   2.105   7.132   2.100
98143SOL    HW296327   1.988   7.078   2.020
98144SOL     OW96328  12.065   7.364  10.764
98144SOL    HW196329  12.049   7.270  10.751
98144SOL    HW296330  12.093   7.396  10.678
98145SOL     OW96331  11.771   4.998  11.164
98145SOL    HW196332  11.799   5.018  11.254
98145SOL    HW296333  11.838   4.938  11.131
98146SOL     OW96334  11.978   5.905   4.954
98146SOL    HW196335  11.987   5.819   4.995
98146SOL    HW296336  11.887   5.931   4.973
98147SOL     OW96337  10.553   4.872  12.519
98147SOL    HW196338  10.589   4.959  12.533
98147SOL    HW296339  10.482   4.865  12.583
98148SOL     OW96340   8.854   9.519  12.187
98148SOL    HW196341   8.824   9.444  12.137
98148SOL    HW296342   8.939   9.491  12.223
98149SOL     OW96343  12.572   1.574  14.111
98149SOL    HW196344  12.655   1.545  14.149
98149SOL    HW296345  12.591   1.590  14.019
98150SOL     OW96346  12.594   3.980   8.278
98150SOL    HW196347  12.511   3.944   8.308
98150SOL    HW296348  12.585   4.075   8.288
98151SOL     OW96349   1.261   1.130   3.993
98151SOL    HW196350   1.224   1.128   3.904
98151SOL    HW296351   1.203   1.075   4.044
98152SOL     OW96352   1.080   6.212   3.909
98152SOL    HW196353   1.099   6.119   3.895
98152SOL    HW296354   1.165   6.253   3.918
98153SOL     OW96355   7.307  12.962  11.752
98153SOL    HW196356   7.339  12.881  11.713
98153SOL    HW296357   7.348  13.031  11.700
98154SOL     OW96358  12.823   3.995   0.738
98154SOL    HW196359  12.894   3.933   0.729
98154SOL    HW296360  12.848   4.070   0.684
98155SOL     OW96361  13.536   2.162   0.762
98155SOL    HW196362  13.577   2.075   0.760
98155SOL    HW296363  13.605   2.219   0.797
98156SOL     OW96364   7.024   2.326   8.736
98156SOL    HW196365   7.004   2.362   8.650
98156SOL    HW296366   7.016   2.232   8.726
98157SOL     OW96367  10.571  13.885   1.923
98157SOL    HW196368  10.484  13.924   1.933
98157SOL    HW296369  10.600  13.869   2.013
98158SOL     OW96370   8.397   9.448   6.323
98158SOL    HW196371   8.488   9.478   6.334
98158SOL    HW296372   8.348   9.497   6.389
98159SOL     OW96373   9.136  13.387   4.385
98159SOL    HW196374   9.164  13.318   4.446
98159SOL    HW296375   9.184  13.368   4.305
98160SOL     OW96376   2.785   6.095   9.820
98160SOL    HW196377   2.727   6.096   9.896
98160SOL    HW296378   2.863   6.049   9.850
98161SOL     OW96379   9.647   7.528  13.474
98161SOL    HW196380   9.720   7.565  13.425
98161SOL    HW296381   9.622   7.450  13.425
98162SOL     OW96382   8.333   1.858  14.477
98162SOL    HW196383   8.375   1.880  14.560
98162SOL    HW296384   8.301   1.942  14.444
98163SOL     OW96385   3.183   1.629   5.089
98163SOL    HW196386   3.132   1.710   5.084
98163SOL    HW296387   3.118   1.559   5.092
98164SOL     OW96388  14.144   5.343   7.945
98164SOL    HW196389  14.130   5.298   8.029
98164SOL    HW296390  14.177   5.275   7.887
98165SOL     OW96391   1.783  11.962   5.011
98165SOL    HW196392   1.857  12.000   5.058
98165SOL    HW296393   1.817  11.947   4.922
98166SOL     OW96394  14.547   7.526   7.284
98166SOL    HW196395  14.497   7.532   7.203
98166SOL    HW296396  14.530   7.608   7.330
98167SOL     OW96397   7.916  13.677  13.166
98167SOL    HW196398   7.850  13.739  13.199
98167SOL    HW296399   7.867  13.618  13.110
98168SOL     OW96400   1.933   3.290   2.787
98168SOL    HW196401   1.918   3.381   2.812
98168SOL    HW296402   1.863   3.270   2.725
98169SOL     OW96403   1.555   8.184   1.375
98169SOL    HW196404   1.524   8.094   1.383
98169SOL    HW296405   1.479   8.234   1.348
98170SOL     OW96406  14.213   0.196  12.278
98170SOL    HW196407  14.207   0.248  12.198
98170SOL    HW296408  14.282   0.238  12.329
98171SOL     OW96409   5.978  14.749  11.487
98171SOL    HW196410   6.059  14.707  11.518
98171SOL    HW296411   5.997  14.776  11.398
98172SOL     OW96412   2.195   1.502   0.408
98172SOL    HW196413   2.122   1.478   0.464
98172SOL    HW296414   2.209   1.595   0.425
98173SOL     OW96415  10.105   5.189   2.220
98173SOL    HW196416  10.162   5.148   2.285
98173SOL    HW296417  10.121   5.283   2.230
98174SOL     OW96418   8.349  10.300   3.993
98174SOL    HW196419   8.267  10.251   3.987
98174SOL    HW296420   8.339  10.372   3.931
98175SOL     OW96421  11.577   4.093   8.203
98175SOL    HW196422  11.572   4.181   8.165
98175SOL    HW296423  11.657   4.095   8.256
98176SOL     OW96424  13.061   3.273  14.354
98176SOL    HW196425  13.115   3.211  14.304
98176SOL    HW296426  13.068   3.355  14.305
98177SOL     OW96427  11.596   3.776   8.919
98177SOL    HW196428  11.644   3.696   8.900
98177SOL    HW296429  11.542   3.790   8.841
98178SOL     OW96430  14.572   3.328   3.542
98178SOL    HW196431  14.666   3.343   3.553
98178SOL    HW296432  14.566   3.251   3.486
98179SOL     OW96433   1.964  10.428  13.068
98179SOL    HW196434   2.025  10.478  13.121
98179SOL    HW296435   2.014  10.402  12.991
98180SOL     OW96436   4.529   8.536  12.139
98180SOL    HW196437   4.453   8.487  12.107
98180SOL    HW296438   4.604   8.482  12.113
98181SOL     OW96439   6.993   1.828   9.478
98181SOL    HW196440   6.970   1.864   9.392
98181SOL    HW296441   7.007   1.735   9.461
98182SOL     OW96442  10.250  11.471   5.099
98182SOL    HW196443  10.160  11.448   5.076
98182SOL    HW296444  10.250  11.567   5.106
98183SOL     OW96445   8.341   1.560  13.472
98183SOL    HW196446   8.433   1.583  13.483
98183SOL    HW296447   8.299   1.589  13.554
98184SOL     OW96448   4.580  13.714   8.344
98184SOL    HW196449   4.514  13.775   8.375
98184SOL    HW296450   4.535  13.629   8.340
98185SOL     OW96451   5.986   6.414  14.839
98185SOL    HW196452   6.079   6.432  14.827
98185SOL    HW296453   5.960   6.467   0.043
98186SOL     OW96454   9.627   0.635   7.536
98186SOL    HW196455   9.697   0.572   7.549
98186SOL    HW296456   9.606   0.667   7.623
98187SOL     OW96457  13.286  11.261  11.173
98187SOL    HW196458  13.333  11.185  11.209
98187SOL    HW296459  13.348  11.334  11.184
98188SOL     OW96460   1.904   0.304   6.390
98188SOL    HW196461   1.896   0.208   6.390
98188SOL    HW296462   1.951   0.323   6.309
98189SOL     OW96463   9.605   5.749   1.229
98189SOL    HW196464   9.659   5.701   1.292
98189SOL    HW296465   9.601   5.838   1.263
98190SOL     OW96466  11.346   3.118   8.835
98190SOL    HW196467  11.322   3.065   8.759
98190SOL    HW296468  11.291   3.084   8.906
98191SOL     OW96469   6.762   6.445   2.764
98191SOL    HW196470   6.680   6.406   2.735
98191SOL    HW296471   6.829   6.382   2.737
98192SOL     OW96472   0.889   8.691   3.521
98192SOL    HW196473   0.926   8.758   3.463
98192SOL    HW296474   0.834   8.638   3.464
98193SOL     OW96475  11.693  10.889  10.531
98193SOL    HW196476  11.784  10.905  10.554
98193SOL    HW296477  11.647  10.968  10.557
98194SOL     OW96478  13.269  10.564  13.887
98194SOL    HW196479  13.363  10.585  13.882
98194SOL    HW296480  13.258  10.490  13.828
98195SOL     OW96481  14.832   7.234  12.340
98195SOL    HW196482   0.012   7.298  12.389
98195SOL    HW296483  14.816   7.276  12.255
98196SOL     OW96484   1.434   8.943   8.684
98196SOL    HW196485   1.492   8.986   8.747
98196SOL    HW296486   1.363   8.906   8.738
98197SOL     OW96487   8.043  14.457  13.773
98197SOL    HW196488   8.003  14.400  13.839
98197SOL    HW296489   8.013  14.545  13.796
98198SOL     OW96490   3.115  13.908  13.281
98198SOL    HW196491   3.118  13.999  13.249
98198SOL    HW296492   3.024  13.895  13.306
98199SOL     OW96493  10.388   4.088  13.682
98199SOL    HW196494  10.302   4.045  13.689
98199SOL    HW296495  10.427   4.076  13.769
98200SOL     OW96496  14.374  10.182   9.286
98200SOL    HW196497  14.291  10.166   9.331
98200SOL    HW296498  14.352  10.241   9.214
98201SOL     OW96499  10.644   4.155   5.995
98201SOL    HW196500  10.681   4.232   5.952
98201SOL    HW296501  10.699   4.082   5.967
98202SOL     OW96502  11.912  10.720   6.753
98202SOL    HW196503  11.986  10.662   6.769
98202SOL    HW296504  11.882  10.747   6.839
98203SOL     OW96505   7.278   9.018   6.772
98203SOL    HW196506   7.313   9.104   6.746
98203SOL    HW296507   7.184   9.025   6.756
98204SOL     OW96508   0.399  14.796  14.757
98204SOL    HW196509   0.317  14.828  14.794
98204SOL    HW296510   0.467  14.835  14.813
98205SOL     OW96511  14.397   3.873   2.604
98205SOL    HW196512  14.396   3.842   2.694
98205SOL    HW296513  14.306   3.896   2.586
98206SOL     OW96514   8.152   3.434  10.869
98206SOL    HW196515   8.218   3.383  10.823
98206SOL    HW296516   8.081   3.444  10.807
98207SOL     OW96517  10.155   1.564   0.674
98207SOL    HW196518  10.182   1.651   0.643
98207SOL    HW296519  10.128   1.578   0.764
98208SOL     OW96520   8.379   2.676   5.485
98208SOL    HW196521   8.406   2.585   5.501
98208SOL    HW296522   8.288   2.679   5.514
98209SOL     OW96523  12.598   3.033   7.974
98209SOL    HW196524  12.517   3.029   8.025
98209SOL    HW296525  12.665   3.055   8.039
98210SOL     OW96526   6.705   8.640   1.789
98210SOL    HW196527   6.709   8.671   1.880
98210SOL    HW296528   6.637   8.572   1.789
98211SOL     OW96529  11.509   6.185   0.579
98211SOL    HW196530  11.459   6.244   0.523
98211SOL    HW296531  11.581   6.154   0.523
98212SOL     OW96532   4.787   7.142  14.699
98212SOL    HW196533   4.865   7.109  14.655
98212SOL    HW296534   4.736   7.183  14.630
98213SOL     OW96535   3.591  12.706   4.110
98213SOL    HW196536   3.667  12.650   4.129
98213SOL    HW296537   3.553  12.669   4.031
98214SOL     OW96538  13.947   4.031   9.297
98214SOL    HW196539  14.032   4.015   9.337
98214SOL    HW296540  13.952   3.990   9.211
98215SOL     OW96541   9.386  11.488   6.661
98215SOL    HW196542   9.354  11.406   6.624
98215SOL    HW296543   9.459  11.462   6.717
98216SOL     OW96544  10.148   8.133  14.623
98216SOL    HW196545  10.208   8.149  14.696
98216SOL    HW296546  10.062   8.157  14.657
98217SOL     OW96547   9.755  10.022  11.793
98217SOL    HW196548   9.784  10.074  11.868
98217SOL    HW296549   9.670  10.060  11.770
98218SOL     OW96550   7.649   9.108   0.762
98218SOL    HW196551   7.581   9.104   0.695
98218SOL    HW296552   7.713   9.041   0.735
98219SOL     OW96553   1.226   7.560   9.997
98219SOL    HW196554   1.260   7.491  10.054
98219SOL    HW296555   1.302   7.616   9.981
98220SOL     OW96556   1.299  10.470  11.790
98220SOL    HW196557   1.211  10.439  11.810
98220SOL    HW296558   1.286  10.534  11.719
98221SOL     OW96559   1.133   1.121  10.953
98221SOL    HW196560   1.070   1.159  11.014
98221SOL    HW296561   1.135   1.181  10.879
98222SOL     OW96562  14.164  11.028  10.470
98222SOL    HW196563  14.069  11.031  10.486
98222SOL    HW296564  14.203  11.037  10.557
98223SOL     OW96565   8.819   8.069   2.105
98223SOL    HW196566   8.724   8.056   2.098
98223SOL    HW296567   8.856   7.986   2.076
98224SOL     OW96568   4.351   8.954  10.858
98224SOL    HW196569   4.292   8.960  10.783
98224SOL    HW296570   4.380   8.863  10.859
98225SOL     OW96571   2.753  12.916   6.377
98225SOL    HW196572   2.740  13.003   6.340
98225SOL    HW296573   2.706  12.918   6.461
98226SOL     OW96574   9.253   9.389   2.791
98226SOL    HW196575   9.183   9.442   2.754
98226SOL    HW296576   9.260   9.314   2.732
98227SOL     OW96577   5.656   4.888   0.534
98227SOL    HW196578   5.591   4.819   0.521
98227SOL    HW296579   5.705   4.890   0.452
98228SOL     OW96580  10.638  14.716   3.950
98228SOL    HW196581  10.557  14.699   3.998
98228SOL    HW296582  10.675  14.794   3.992
98229SOL     OW96583   4.823  10.773  10.891
98229SOL    HW196584   4.739  10.796  10.930
98229SOL    HW296585   4.830  10.679  10.905
98230SOL     OW96586   1.866   6.235  13.203
98230SOL    HW196587   1.791   6.207  13.150
98230SOL    HW296588   1.926   6.276  13.140
98231SOL     OW96589   6.607  12.227   5.472
98231SOL    HW196590   6.553  12.168   5.525
98231SOL    HW296591   6.561  12.311   5.475
98232SOL     OW96592  13.250  11.475   5.300
98232SOL    HW196593  13.297  11.520   5.369
98232SOL    HW296594  13.297  11.392   5.288
98233SOL     OW96595   6.454   4.344   5.414
98233SOL    HW196596   6.461   4.295   5.496
98233SOL    HW296597   6.396   4.418   5.435
98234SOL     OW96598   1.057   5.591  13.508
98234SOL    HW196599   1.030   5.520  13.566
98234SOL    HW296600   0.985   5.601  13.446
98235SOL     OW96601   4.721   0.698   3.838
98235SOL    HW196602   4.649   0.652   3.795
98235SOL    HW296603   4.678   0.751   3.906
98236SOL     OW96604   2.388  13.531   8.865
98236SOL    HW196605   2.312  13.581   8.835
98236SOL    HW296606   2.434  13.590   8.925
98237SOL     OW96607   9.256   5.422   4.642
98237SOL    HW196608   9.176   5.474   4.635
98237SOL    HW296609   9.295   5.449   4.726
98238SOL     OW96610   1.460   0.057   1.224
98238SOL    HW196611   1.545   0.091   1.198
98238SOL    HW296612   1.477   0.011   1.307
98239SOL     OW96613  11.081  11.161   8.665
98239SOL    HW196614  11.074  11.113   8.582
98239SOL    HW296615  11.175  11.166   8.681
98240SOL     OW96616   4.329  10.769   7.791
98240SOL    HW196617   4.313  10.851   7.838
98240SOL    HW296618   4.351  10.797   7.702
98241SOL     OW96619   6.710   4.168   2.483
98241SOL    HW196620   6.751   4.178   2.569
98241SOL    HW296621   6.758   4.229   2.427
98242SOL     OW96622   2.265   9.523  14.630
98242SOL    HW196623   2.305   9.607  14.609
98242SOL    HW296624   2.338   9.462  14.634
98243SOL     OW96625   7.179  13.853   6.125
98243SOL    HW196626   7.133  13.936   6.118
98243SOL    HW296627   7.257  13.873   6.177
98244SOL     OW96628   1.747  13.230   4.295
98244SOL    HW196629   1.747  13.161   4.228
98244SOL    HW296630   1.802  13.195   4.365
98245SOL     OW96631   3.298  14.842  12.948
98245SOL    HW196632   3.209  14.835  12.983
98245SOL    HW296633   3.322  14.752  12.926
98246SOL     OW96634  11.428   2.927   0.224
98246SOL    HW196635  11.397   2.855   0.168
98246SOL    HW296636  11.372   2.924   0.301
98247SOL     OW96637  13.296  14.846   9.632
98247SOL    HW196638  13.391  14.835   9.645
98247SOL    HW296639  13.283  14.826   9.539
98248SOL     OW96640   0.924  13.586   7.712
98248SOL    HW196641   1.003  13.534   7.700
98248SOL    HW296642   0.855  13.536   7.669
98249SOL     OW96643   1.980  14.823   6.570
98249SOL    HW196644   1.907  14.855   6.517
98249SOL    HW296645   2.022  14.755   6.517
98250SOL     OW96646   6.163   7.479   2.323
98250SOL    HW196647   6.237   7.419   2.328
98250SOL    HW296648   6.109   7.444   2.253
98251SOL     OW96649  11.519   8.380   0.341
98251SOL    HW196650  11.533   8.469   0.308
98251SOL    HW296651  11.454   8.343   0.281
98252SOL     OW96652   5.909  10.122   8.487
98252SOL    HW196653   5.935  10.077   8.567
98252SOL    HW296654   5.866  10.054   8.434
98253SOL     OW96655   6.154   2.092   2.963
98253SOL    HW196656   6.081   2.098   2.902
98253SOL    HW296657   6.213   2.164   2.938
98254SOL     OW96658   9.702  12.577   2.272
98254SOL    HW196659   9.636  12.646   2.275
98254SOL    HW296660   9.757  12.593   2.349
98255SOL     OW96661   6.196   1.800  12.607
98255SOL    HW196662   6.113   1.804  12.656
98255SOL    HW296663   6.195   1.714  12.566
98256SOL     OW96664   7.916   8.321   9.943
98256SOL    HW196665   7.857   8.264   9.993
98256SOL    HW296666   7.999   8.274   9.941
98257SOL     OW96667   3.708   7.250   4.684
98257SOL    HW196668   3.657   7.225   4.761
98257SOL    HW296669   3.771   7.314   4.717
98258SOL     OW96670  13.294  13.605   0.054
98258SOL    HW196671  13.269  13.513   0.051
98258SOL    HW296672  13.370  13.608   0.112
98259SOL     OW96673   8.301   1.137   1.646
98259SOL    HW196674   8.368   1.170   1.706
98259SOL    HW296675   8.336   1.054   1.614
98260SOL     OW96676  11.370   5.821  13.345
98260SOL    HW196677  11.343   5.743  13.393
98260SOL    HW296678  11.340   5.894  13.399
98261SOL     OW96679  10.287  14.706   7.130
98261SOL    HW196680  10.197  14.738   7.123
98261SOL    HW296681  10.282  14.636   7.195
98262SOL     OW96682  12.288   5.576   9.898
98262SOL    HW196683  12.196   5.573   9.873
98262SOL    HW296684  12.321   5.489   9.879
98263SOL     OW96685   6.691  11.271  14.871
98263SOL    HW196686   6.712  11.321  14.793
98263SOL    HW296687   6.597  11.255  14.866
98264SOL     OW96688  10.425   2.989   0.827
98264SOL    HW196689  10.493   2.939   0.872
98264SOL    HW296690  10.352   2.928   0.819
98265SOL     OW96691   6.132   0.201  12.800
98265SOL    HW196692   6.096   0.171  12.716
98265SOL    HW296693   6.186   0.276  12.777
98266SOL     OW96694   8.550   5.322   9.727
98266SOL    HW196695   8.574   5.379   9.800
98266SOL    HW296696   8.530   5.237   9.768
98267SOL     OW96697  12.943  12.086  14.218
98267SOL    HW196698  12.875  12.035  14.262
98267SOL    HW296699  12.894  12.145  14.160
98268SOL     OW96700   1.553   2.865  13.685
98268SOL    HW196701   1.470   2.852  13.639
98268SOL    HW296702   1.529   2.900  13.770
98269SOL     OW96703   6.434   3.963  13.400
98269SOL    HW196704   6.513   4.014  13.380
98269SOL    HW296705   6.425   3.971  13.495
98270SOL     OW96706   1.094   4.048   5.446
98270SOL    HW196707   1.107   4.105   5.521
98270SOL    HW296708   1.007   4.010   5.459
98271SOL     OW96709   0.224   8.168   0.892
98271SOL    HW196710   0.135   8.146   0.920
98271SOL    HW296711   0.253   8.091   0.843
98272SOL     OW96712  10.413   5.533   4.856
98272SOL    HW196713  10.481   5.585   4.813
98272SOL    HW296714  10.411   5.451   4.806
98273SOL     OW96715   8.029   7.560  11.087
98273SOL    HW196716   7.959   7.508  11.047
98273SOL    HW296717   7.987   7.603  11.161
98274SOL     OW96718  11.538   8.541   9.787
98274SOL    HW196719  11.537   8.592   9.706
98274SOL    HW296720  11.455   8.563   9.829
98275SOL     OW96721  12.380  10.185   9.374
98275SOL    HW196722  12.408  10.147   9.290
98275SOL    HW296723  12.379  10.111   9.435
98276SOL     OW96724   7.753  10.589   2.360
98276SOL    HW196725   7.834  10.539   2.367
98276SOL    HW296726   7.781  10.680   2.354
98277SOL     OW96727   6.779   9.149  14.515
98277SOL    HW196728   6.872   9.153  14.494
98277SOL    HW296729   6.775   9.161  14.610
98278SOL     OW96730   7.200  11.529  14.012
98278SOL    HW196731   7.120  11.546  13.962
98278SOL    HW296732   7.265  11.588  13.973
98279SOL     OW96733  12.255  12.474   1.278
98279SOL    HW196734  12.278  12.393   1.324
98279SOL    HW296735  12.221  12.532   1.346
98280SOL     OW96736   2.353  14.557   0.631
98280SOL    HW196737   2.407  14.616   0.578
98280SOL    HW296738   2.416  14.498   0.672
98281SOL     OW96739   9.640   5.373  13.992
98281SOL    HW196740   9.655   5.347  14.083
98281SOL    HW296741   9.618   5.292  13.947
98282SOL     OW96742  11.073  10.345   9.890
98282SOL    HW196743  11.092  10.286   9.817
98282SOL    HW296744  11.036  10.422   9.848
98283SOL     OW96745   2.059   6.603   4.569
98283SOL    HW196746   2.022   6.669   4.628
98283SOL    HW296747   2.153   6.622   4.569
98284SOL     OW96748  14.586   3.681   3.126
98284SOL    HW196749  14.630   3.600   3.152
98284SOL    HW296750  14.502   3.679   3.171
98285SOL     OW96751   3.953  10.803   2.572
98285SOL    HW196752   3.983  10.783   2.483
98285SOL    HW296753   3.928  10.719   2.609
98286SOL     OW96754  14.122   5.806   8.914
98286SOL    HW196755  14.053   5.859   8.873
98286SOL    HW296756  14.200   5.823   8.861
98287SOL     OW96757   5.607   0.920   5.940
98287SOL    HW196758   5.641   0.894   5.854
98287SOL    HW296759   5.594   1.015   5.932
98288SOL     OW96760   3.383   8.970   3.425
98288SOL    HW196761   3.301   8.933   3.459
98288SOL    HW296762   3.360   9.060   3.402
98289SOL     OW96763   1.342   4.621  13.112
98289SOL    HW196764   1.324   4.576  13.029
98289SOL    HW296765   1.278   4.691  13.116
98290SOL     OW96766   1.873   9.142   8.961
98290SOL    HW196767   1.903   9.228   8.989
98290SOL    HW296768   1.948   9.104   8.916
98291SOL     OW96769  11.986   0.522   1.135
98291SOL    HW196770  11.944   0.523   1.049
98291SOL    HW296771  11.937   0.456   1.184
98292SOL     OW96772   5.665  12.479   6.010
98292SOL    HW196773   5.576  12.470   6.044
98292SOL    HW296774   5.655  12.530   5.930
98293SOL     OW96775   1.549  10.314   2.983
98293SOL    HW196776   1.576  10.330   2.892
98293SOL    HW296777   1.535  10.401   3.019
98294SOL     OW96778   1.788   5.258  11.956
98294SOL    HW196779   1.805   5.322  12.025
98294SOL    HW296780   1.692   5.256  11.948
98295SOL     OW96781  14.158  11.279  14.619
98295SOL    HW196782  14.148  11.264  14.524
98295SOL    HW296783  14.094  11.219  14.659
98296SOL     OW96784  10.563   3.406  11.245
98296SOL    HW196785  10.610   3.457  11.311
98296SOL    HW296786  10.616   3.326  11.235
98297SOL     OW96787   3.345   8.108   0.153
98297SOL    HW196788   3.256   8.117   0.189
98297SOL    HW296789   3.382   8.033   0.199
98298SOL     OW96790   5.630   3.330  10.835
98298SOL    HW196791   5.629   3.336  10.739
98298SOL    HW296792   5.538   3.344  10.860
98299SOL     OW96793  13.094   9.109   0.752
98299SOL    HW196794  13.026   9.042   0.748
98299SOL    HW296795  13.175   9.061   0.735
98300SOL     OW96796  14.576   5.107   0.216
98300SOL    HW196797  14.599   5.094   0.124
98300SOL    HW296798  14.652   5.151   0.254
98301SOL     OW96799   5.102   0.148  11.300
98301SOL    HW196800   5.133   0.165  11.211
98301SOL    HW296801   5.007   0.159  11.295
98302SOL     OW96802   7.899   5.204   7.696
98302SOL    HW196803   7.830   5.270   7.688
98302SOL    HW296804   7.878   5.156   7.776
98303SOL     OW96805   1.458   6.692   5.954
98303SOL    HW196806   1.495   6.745   5.884
98303SOL    HW296807   1.408   6.754   6.008
98304SOL     OW96808   3.486   1.403   0.188
98304SOL    HW196809   3.494   1.484   0.239
98304SOL    HW296810   3.409   1.360   0.225
98305SOL     OW96811  10.469  10.912   0.919
98305SOL    HW196812  10.420  10.888   0.997
98305SOL    HW296813  10.443  11.002   0.900
98306SOL     OW96814   8.825   1.761  13.130
98306SOL    HW196815   8.739   1.753  13.172
98306SOL    HW296816   8.823   1.847  13.089
98307SOL     OW96817  12.656  11.376   5.812
98307SOL    HW196818  12.704  11.392   5.893
98307SOL    HW296819  12.564  11.383   5.836
98308SOL     OW96820   4.098   8.930   2.700
98308SOL    HW196821   4.031   8.941   2.768
98308SOL    HW296822   4.181   8.926   2.749
98309SOL     OW96823  10.002  14.348   9.246
98309SOL    HW196824  10.010  14.260   9.283
98309SOL    HW296825   9.909  14.370   9.257
98310SOL     OW96826  13.088   7.555   4.724
98310SOL    HW196827  13.052   7.580   4.809
98310SOL    HW296828  13.181   7.542   4.740
98311SOL     OW96829   8.702   3.268   7.438
98311SOL    HW196830   8.631   3.324   7.470
98311SOL    HW296831   8.763   3.329   7.397
98312SOL     OW96832  12.092  14.222  11.704
98312SOL    HW196833  12.131  14.238  11.618
98312SOL    HW296834  11.999  14.208  11.686
98313SOL     OW96835   4.530   0.313   4.782
98313SOL    HW196836   4.483   0.267   4.852
98313SOL    HW296837   4.501   0.404   4.789
98314SOL     OW96838  14.420   5.522   8.450
98314SOL    HW196839  14.508   5.502   8.479
98314SOL    HW296840  14.431   5.562   8.363
98315SOL     OW96841  11.294  13.474  11.839
98315SOL    HW196842  11.351  13.512  11.772
98315SOL    HW296843  11.208  13.509  11.819
98316SOL     OW96844   2.376   3.521  14.294
98316SOL    HW196845   2.361   3.474  14.213
98316SOL    HW296846   2.320   3.598  14.288
98317SOL     OW96847  11.661   5.164   8.682
98317SOL    HW196848  11.679   5.227   8.613
98317SOL    HW296849  11.566   5.149   8.677
98318SOL     OW96850   4.372   9.243   0.181
98318SOL    HW196851   4.356   9.327   0.139
98318SOL    HW296852   4.285   9.212   0.207
98319SOL     OW96853   1.963   5.259  10.016
98319SOL    HW196854   2.035   5.319   9.995
98319SOL    HW296855   1.884   5.311  10.003
98320SOL     OW96856   0.293   6.211  12.784
98320SOL    HW196857   0.249   6.132  12.817
98320SOL    HW296858   0.378   6.211  12.829
98321SOL     OW96859   1.583   5.840   2.678
98321SOL    HW196860   1.530   5.794   2.613
98321SOL    HW296861   1.673   5.814   2.657
98322SOL     OW96862   3.163   0.858  11.535
98322SOL    HW196863   3.068   0.866  11.540
98322SOL    HW296864   3.178   0.768  11.503
98323SOL     OW96865  10.869   2.023   8.777
98323SOL    HW196866  10.963   2.026   8.793
98323SOL    HW296867  10.861   2.003   8.684
98324SOL     OW96868   5.834  10.099   7.393
98324SOL    HW196869   5.926  10.073   7.388
98324SOL    HW296870   5.832  10.167   7.460
98325SOL     OW96871   6.231  12.603   4.671
98325SOL    HW196872   6.233  12.698   4.680
98325SOL    HW296873   6.299  12.584   4.606
98326SOL     OW96874  14.451   1.545   4.036
98326SOL    HW196875  14.411   1.509   3.957
98326SOL    HW296876  14.462   1.638   4.017
98327SOL     OW96877   5.675  14.051  13.321
98327SOL    HW196878   5.697  13.970  13.275
98327SOL    HW296879   5.731  14.052  13.398
98328SOL     OW96880   6.522   2.351   7.277
98328SOL    HW196881   6.526   2.447   7.280
98328SOL    HW296882   6.432   2.330   7.303
98329SOL     OW96883  14.816   2.938   6.990
98329SOL    HW196884  14.781   2.910   6.906
98329SOL    HW296885  14.768   2.888   7.055
98330SOL     OW96886  12.711   3.957   7.070
98330SOL    HW196887  12.631   3.929   7.027
98330SOL    HW296888  12.778   3.949   7.003
98331SOL     OW96889  12.109   8.321   8.572
98331SOL    HW196890  12.076   8.394   8.625
98331SOL    HW296891  12.196   8.303   8.607
98332SOL     OW96892   8.609   7.742   8.774
98332SOL    HW196893   8.520   7.745   8.811
98332SOL    HW296894   8.597   7.704   8.687
98333SOL     OW96895   5.351   3.621  10.685
98333SOL    HW196896   5.441   3.638  10.658
98333SOL    HW296897   5.314   3.708  10.700
98334SOL     OW96898  10.273   3.530   7.199
98334SOL    HW196899  10.340   3.464   7.218
98334SOL    HW296900  10.288   3.554   7.108
98335SOL     OW96901   4.227   6.256   5.867
98335SOL    HW196902   4.296   6.322   5.872
98335SOL    HW296903   4.150   6.304   5.835
98336SOL     OW96904   2.986   9.120   7.185
98336SOL    HW196905   2.972   9.078   7.270
98336SOL    HW296906   2.906   9.100   7.136
98337SOL     OW96907   1.870   9.304   7.663
98337SOL    HW196908   1.844   9.287   7.753
98337SOL    HW296909   1.857   9.221   7.617
98338SOL     OW96910   7.790   4.868   3.598
98338SOL    HW196911   7.826   4.870   3.509
98338SOL    HW296912   7.805   4.957   3.631
98339SOL     OW96913  12.060   0.715   1.350
98339SOL    HW196914  11.978   0.750   1.385
98339SOL    HW296915  12.035   0.630   1.313
98340SOL     OW96916   0.083   6.973   5.223
98340SOL    HW196917   0.050   6.924   5.147
98340SOL    HW296918   0.061   6.917   5.298
98341SOL     OW96919   9.841   5.804  10.984
98341SOL    HW196920   9.927   5.823  10.947
98341SOL    HW296921   9.780   5.854  10.930
98342SOL     OW96922   8.594  12.325  10.351
98342SOL    HW196923   8.634  12.238  10.350
98342SOL    HW296924   8.631  12.369  10.274
98343SOL     OW96925  11.508   7.901   5.073
98343SOL    HW196926  11.544   7.812   5.074
98343SOL    HW296927  11.529   7.936   5.160
98344SOL     OW96928   6.624  12.776  12.602
98344SOL    HW196929   6.576  12.697  12.578
98344SOL    HW296930   6.708  12.744  12.637
98345SOL     OW96931  14.013   4.820   1.320
98345SOL    HW196932  13.961   4.742   1.304
98345SOL    HW296933  13.952   4.893   1.307
98346SOL     OW96934  12.802   2.404   6.438
98346SOL    HW196935  12.732   2.462   6.407
98346SOL    HW296936  12.880   2.459   6.437
98347SOL     OW96937  13.748   4.356  11.947
98347SOL    HW196938  13.746   4.329  11.855
98347SOL    HW296939  13.826   4.411  11.954
98348SOL     OW96940  13.555   2.988  13.270
98348SOL    HW196941  13.500   2.918  13.305
98348SOL    HW296942  13.566   2.965  13.177
98349SOL     OW96943  12.376  13.395   6.842
98349SOL    HW196944  12.463  13.364   6.868
98349SOL    HW296945  12.321  13.317   6.844
98350SOL     OW96946   5.434  14.639  12.490
98350SOL    HW196947   5.476  14.716  12.529
98350SOL    HW296948   5.370  14.676  12.429
98351SOL     OW96949  10.639   1.367   6.536
98351SOL    HW196950  10.618   1.416   6.457
98351SOL    HW296951  10.636   1.432   6.607
98352SOL     OW96952   9.499   0.982   4.711
98352SOL    HW196953   9.445   0.905   4.731
98352SOL    HW296954   9.589   0.950   4.719
98353SOL     OW96955   5.792   9.467  11.200
98353SOL    HW196956   5.864   9.478  11.138
98353SOL    HW296957   5.715   9.501  11.154
98354SOL     OW96958   7.760   9.715   1.357
98354SOL    HW196959   7.732   9.758   1.437
98354SOL    HW296960   7.853   9.698   1.370
98355SOL     OW96961  11.114   5.975   4.941
98355SOL    HW196962  11.170   5.905   4.975
98355SOL    HW296963  11.025   5.947   4.963
98356SOL     OW96964   1.878  10.598  14.795
98356SOL    HW196965   1.884  10.504  14.776
98356SOL    HW296966   1.920  10.640  14.720
98357SOL     OW96967   3.297   3.347   3.702
98357SOL    HW196968   3.275   3.438   3.726
98357SOL    HW296969   3.369   3.324   3.760
98358SOL     OW96970   4.475  11.612   3.206
98358SOL    HW196971   4.481  11.667   3.284
98358SOL    HW296972   4.565  11.592   3.183
98359SOL     OW96973   6.107  11.951   0.740
98359SOL    HW196974   6.168  11.946   0.813
98359SOL    HW296975   6.020  11.953   0.781
98360SOL     OW96976   5.633  12.155   7.773
98360SOL    HW196977   5.558  12.102   7.745
98360SOL    HW296978   5.612  12.180   7.862
98361SOL     OW96979   2.441  11.132   1.265
98361SOL    HW196980   2.455  11.093   1.179
98361SOL    HW296981   2.508  11.200   1.271
98362SOL     OW96982  14.471  12.883  13.977
98362SOL    HW196983  14.546  12.937  14.000
98362SOL    HW296984  14.504  12.794  13.979
98363SOL     OW96985   4.734   9.558  11.566
98363SOL    HW196986   4.804   9.576  11.504
98363SOL    HW296987   4.660   9.610  11.534
98364SOL     OW96988  14.633   8.340   7.832
98364SOL    HW196989  14.660   8.401   7.901
98364SOL    HW296990  14.577   8.276   7.877
98365SOL     OW96991  14.319   4.931   4.286
98365SOL    HW196992  14.356   4.904   4.202
98365SOL    HW296993  14.383   4.993   4.321
98366SOL     OW96994  11.251   8.007   4.629
98366SOL    HW196995  11.164   8.044   4.642
98366SOL    HW296996  11.288   8.002   4.717
98367SOL     OW96997   0.089   9.652   7.300
98367SOL    HW196998   0.100   9.559   7.278
98367SOL    HW296999   0.178   9.682   7.320
98368SOL     OW97000   7.326   5.378   1.742
98368SOL    HW197001   7.391   5.308   1.730
98368SOL    HW297002   7.242   5.334   1.727
98369SOL     OW97003   0.839   5.940  13.485
98369SOL    HW197004   0.823   5.904  13.398
98369SOL    HW297005   0.932   5.927  13.500
98370SOL     OW97006  11.067   8.259   7.255
98370SOL    HW197007  11.018   8.342   7.259
98370SOL    HW297008  11.142   8.272   7.313
98371SOL     OW97009  10.158   0.715   9.316
98371SOL    HW197010  10.214   0.637   9.308
98371SOL    HW297011  10.101   0.696   9.390
98372SOL     OW97012   5.802   5.981   8.852
98372SOL    HW197013   5.764   5.950   8.934
98372SOL    HW297014   5.803   5.904   8.795
98373SOL     OW97015  11.332   2.376  13.568
98373SOL    HW197016  11.348   2.304  13.629
98373SOL    HW297017  11.412   2.380  13.515
98374SOL     OW97018   0.924   3.100  10.387
98374SOL    HW197019   0.993   3.165  10.403
98374SOL    HW297020   0.933   3.078  10.294
98375SOL     OW97021  14.302   1.947  10.207
98375SOL    HW197022  14.209   1.966  10.219
98375SOL    HW297023  14.330   2.010  10.141
98376SOL     OW97024   4.489  11.516   9.687
98376SOL    HW197025   4.577  11.524   9.724
98376SOL    HW297026   4.446  11.599   9.710
98377SOL     OW97027  11.980  14.214   3.993
98377SOL    HW197028  12.044  14.278   3.963
98377SOL    HW297029  11.912  14.266   4.035
98378SOL     OW97030  10.622  11.856   0.602
98378SOL    HW197031  10.716  11.847   0.591
98378SOL    HW297032  10.596  11.780   0.654
98379SOL     OW97033  12.711  13.777   6.415
98379SOL    HW197034  12.741  13.760   6.505
98379SOL    HW297035  12.714  13.872   6.406
98380SOL     OW97036  12.291  12.521  10.789
98380SOL    HW197037  12.275  12.600  10.738
98380SOL    HW297038  12.210  12.471  10.784
98381SOL     OW97039   7.465   1.212   2.746
98381SOL    HW197040   7.418   1.291   2.772
98381SOL    HW297041   7.460   1.154   2.822
98382SOL     OW97042  10.261   8.489  12.935
98382SOL    HW197043  10.296   8.552  12.872
98382SOL    HW297044  10.273   8.404  12.892
98383SOL     OW97045  14.827   1.297  14.713
98383SOL    HW197046  14.807   1.211  14.676
98383SOL    HW297047   0.018   1.335  14.652
98384SOL     OW97048  11.962  11.232   0.209
98384SOL    HW197049  11.954  11.137   0.197
98384SOL    HW297050  11.878  11.267   0.181
98385SOL     OW97051   1.244   4.333  12.534
98385SOL    HW197052   1.256   4.363  12.443
98385SOL    HW297053   1.249   4.412  12.586
98386SOL     OW97054   6.896   4.847   6.388
98386SOL    HW197055   6.928   4.762   6.418
98386SOL    HW297056   6.896   4.840   6.292
98387SOL     OW97057  14.324  12.084   2.547
98387SOL    HW197058  14.415  12.056   2.540
98387SOL    HW297059  14.287  12.069   2.460
98388SOL     OW97060   1.265  13.849  12.338
98388SOL    HW197061   1.254  13.754  12.329
98388SOL    HW297062   1.222  13.885  12.260
98389SOL     OW97063   6.005   1.462  13.894
98389SOL    HW197064   6.001   1.380  13.942
98389SOL    HW297065   6.084   1.505  13.925
98390SOL     OW97066   1.159   1.956   7.070
98390SOL    HW197067   1.242   1.912   7.054
98390SOL    HW297068   1.157   2.028   7.008
98391SOL     OW97069  13.856   7.408   3.197
98391SOL    HW197070  13.875   7.375   3.109
98391SOL    HW297071  13.847   7.329   3.251
98392SOL     OW97072   3.809   5.995   4.715
98392SOL    HW197073   3.818   5.969   4.624
98392SOL    HW297074   3.894   6.032   4.739
98393SOL     OW97075   1.998   2.523  11.324
98393SOL    HW197076   1.938   2.463  11.280
98393SOL    HW297077   1.943   2.598  11.349
98394SOL     OW97078  11.031   6.442   0.267
98394SOL    HW197079  11.098   6.451   0.335
98394SOL    HW297080  11.014   6.348   0.263
98395SOL     OW97081   5.399  14.510   6.941
98395SOL    HW197082   5.338  14.583   6.931
98395SOL    HW297083   5.475  14.548   6.985
98396SOL     OW97084   1.934   7.088  10.239
98396SOL    HW197085   1.886   7.089  10.156
98396SOL    HW297086   1.882   7.144  10.297
98397SOL     OW97087  13.793  10.718  11.127
98397SOL    HW197088  13.836  10.647  11.080
98397SOL    HW297089  13.707  10.724  11.087
98398SOL     OW97090  11.594   3.802  11.463
98398SOL    HW197091  11.603   3.890  11.426
98398SOL    HW297092  11.544   3.754  11.396
98399SOL     OW97093   2.900  10.054   9.714
98399SOL    HW197094   2.947   9.980   9.752
98399SOL    HW297095   2.853  10.093   9.787
98400SOL     OW97096   1.478   9.938  11.606
98400SOL    HW197097   1.573   9.934  11.620
98400SOL    HW297098   1.455  10.029  11.627
98401SOL     OW97099  14.336   8.288  14.470
98401SOL    HW197100  14.256   8.283  14.521
98401SOL    HW297101  14.348   8.381  14.452
98402SOL     OW97102  14.780   7.527   6.662
98402SOL    HW197103  14.759   7.602   6.717
98402SOL    HW297104  14.705   7.469   6.672
98403SOL     OW97105  13.484   3.368  12.373
98403SOL    HW197106  13.502   3.287  12.421
98403SOL    HW297107  13.494   3.437  12.440
98404SOL     OW97108   7.983   6.825   4.500
98404SOL    HW197109   7.986   6.837   4.405
98404SOL    HW297110   8.075   6.823   4.527
98405SOL     OW97111   9.832  14.612  11.370
98405SOL    HW197112   9.800  14.533  11.326
98405SOL    HW297113   9.919  14.625  11.334
98406SOL     OW97114  14.055   5.249   1.872
98406SOL    HW197115  14.001   5.271   1.797
98406SOL    HW297116  14.064   5.154   1.868
98407SOL     OW97117  10.089  12.072  12.996
98407SOL    HW197118  10.012  12.053  13.048
98407SOL    HW297119  10.070  12.035  12.910
98408SOL     OW97120  10.690  14.651  14.603
98408SOL    HW197121  10.708  14.558  14.589
98408SOL    HW297122  10.754  14.696  14.547
98409SOL     OW97123  12.614   7.494   5.127
98409SOL    HW197124  12.694   7.451   5.096
98409SOL    HW297125  12.581   7.436   5.196
98410SOL     OW97126   6.134  12.412   1.733
98410SOL    HW197127   6.214  12.365   1.713
98410SOL    HW297128   6.133  12.419   1.828
98411SOL     OW97129   6.680   3.342  14.742
98411SOL    HW197130   6.618   3.270  14.756
98411SOL    HW297131   6.626   3.416  14.715
98412SOL     OW97132   5.687  11.460   5.806
98412SOL    HW197133   5.667  11.449   5.899
98412SOL    HW297134   5.748  11.534   5.803
98413SOL     OW97135   0.613   8.175   6.814
98413SOL    HW197136   0.522   8.195   6.839
98413SOL    HW297137   0.652   8.261   6.800
98414SOL     OW97138   4.445   6.357  12.376
98414SOL    HW197139   4.497   6.433  12.400
98414SOL    HW297140   4.364   6.367  12.426
98415SOL     OW97141   2.857  11.743  11.830
98415SOL    HW197142   2.813  11.669  11.871
98415SOL    HW297143   2.837  11.734  11.737
98416SOL     OW97144  13.420   9.141   5.582
98416SOL    HW197145  13.343   9.096   5.546
98416SOL    HW297146  13.386   9.188   5.658
98417SOL     OW97147   4.642  11.781  10.509
98417SOL    HW197148   4.716  11.840  10.528
98417SOL    HW297149   4.568  11.819  10.557
98418SOL     OW97150  13.473  12.529   9.518
98418SOL    HW197151  13.479  12.459   9.584
98418SOL    HW297152  13.379  12.543   9.506
98419SOL     OW97153   1.486   7.065  12.177
98419SOL    HW197154   1.450   7.129  12.116
98419SOL    HW297155   1.446   7.087  12.262
98420SOL     OW97156   6.452   9.196  12.303
98420SOL    HW197157   6.527   9.162  12.352
98420SOL    HW297158   6.398   9.239  12.369
98421SOL     OW97159  12.975  12.412   3.649
98421SOL    HW197160  12.997  12.373   3.734
98421SOL    HW297161  13.060  12.434   3.611
98422SOL     OW97162  13.289  11.248   1.549
98422SOL    HW197163  13.212  11.211   1.507
98422SOL    HW297164  13.267  11.253   1.641
98423SOL     OW97165   9.428   5.054  12.463
98423SOL    HW197166   9.375   5.096  12.395
98423SOL    HW297167   9.366   4.997  12.509
98424SOL     OW97168   7.337  10.566  12.516
98424SOL    HW197169   7.298  10.485  12.484
98424SOL    HW297170   7.428  10.563  12.485
98425SOL     OW97171   8.997   3.550   8.016
98425SOL    HW197172   8.999   3.589   8.103
98425SOL    HW297173   8.996   3.625   7.956
98426SOL     OW97174  10.276   1.336   7.653
98426SOL    HW197175  10.210   1.287   7.604
98426SOL    HW297176  10.353   1.337   7.596
98427SOL     OW97177   7.794   3.478   7.925
98427SOL    HW197178   7.758   3.426   7.853
98427SOL    HW297179   7.737   3.555   7.930
98428SOL     OW97180   5.943   4.233   7.570
98428SOL    HW197181   5.948   4.324   7.597
98428SOL    HW297182   6.034   4.207   7.556
98429SOL     OW97183  12.519   3.809   2.864
98429SOL    HW197184  12.442   3.822   2.808
98429SOL    HW297185  12.571   3.744   2.817
98430SOL     OW97186   0.050   1.495   1.425
98430SOL    HW197187   0.040   1.545   1.506
98430SOL    HW297188   0.110   1.548   1.372
98431SOL     OW97189  13.036  14.182  13.407
98431SOL    HW197190  13.101  14.246  13.376
98431SOL    HW297191  12.993  14.225  13.480
98432SOL     OW97192   9.940  11.529   7.601
98432SOL    HW197193   9.967  11.615   7.635
98432SOL    HW297194   9.859  11.547   7.552
98433SOL     OW97195   9.244   8.121   2.664
98433SOL    HW197196   9.231   8.207   2.704
98433SOL    HW297197   9.324   8.129   2.613
98434SOL     OW97198   8.640   9.610   7.535
98434SOL    HW197199   8.553   9.638   7.564
98434SOL    HW297200   8.649   9.521   7.570
98435SOL     OW97201   5.003   4.410   4.633
98435SOL    HW197202   4.911   4.436   4.627
98435SOL    HW297203   5.000   4.321   4.669
98436SOL     OW97204   2.617   6.561  10.776
98436SOL    HW197205   2.655   6.597  10.696
98436SOL    HW297206   2.601   6.637  10.832
98437SOL     OW97207   2.313   6.606   7.890
98437SOL    HW197208   2.355   6.625   7.974
98437SOL    HW297209   2.323   6.686   7.839
98438SOL     OW97210  11.256  11.428  13.536
98438SOL    HW197211  11.192  11.421  13.465
98438SOL    HW297212  11.267  11.338  13.567
98439SOL     OW97213   3.349   1.033   0.894
98439SOL    HW197214   3.265   1.007   0.930
98439SOL    HW297215   3.332   1.051   0.802
98440SOL     OW97216   5.228   1.212   1.007
98440SOL    HW197217   5.135   1.216   0.986
98440SOL    HW297218   5.262   1.298   0.983
98441SOL     OW97219   8.748   2.556   8.920
98441SOL    HW197220   8.811   2.490   8.949
98441SOL    HW297221   8.749   2.622   8.990
98442SOL     OW97222   0.976   0.693   5.810
98442SOL    HW197223   0.909   0.737   5.757
98442SOL    HW297224   1.053   0.691   5.754
98443SOL     OW97225  14.152   8.215  12.063
98443SOL    HW197226  14.154   8.166  11.981
98443SOL    HW297227  14.207   8.291  12.046
98444SOL     OW97228   1.092   2.775   1.409
98444SOL    HW197229   1.177   2.811   1.382
98444SOL    HW297230   1.088   2.791   1.503
98445SOL     OW97231  10.143   3.972   5.409
98445SOL    HW197232  10.180   4.034   5.347
98445SOL    HW297233  10.206   3.970   5.481
98446SOL     OW97234   5.108  14.169   7.689
98446SOL    HW197235   5.024  14.172   7.644
98446SOL    HW297236   5.134  14.077   7.684
98447SOL     OW97237   9.483  12.290  11.731
98447SOL    HW197238   9.543  12.236  11.783
98447SOL    HW297239   9.439  12.227  11.674
98448SOL     OW97240   9.855  13.305   0.973
98448SOL    HW197241   9.817  13.233   1.024
98448SOL    HW297242   9.884  13.263   0.891
98449SOL     OW97243   5.019  13.945   9.886
98449SOL    HW197244   4.947  13.948   9.823
98449SOL    HW297245   5.083  14.007   9.851
98450SOL     OW97246  11.191   6.218   9.925
98450SOL    HW197247  11.159   6.266   9.849
98450SOL    HW297248  11.116   6.216   9.986
98451SOL     OW97249   4.517   9.272   1.006
98451SOL    HW197250   4.438   9.262   0.953
98451SOL    HW297251   4.490   9.246   1.094
98452SOL     OW97252   2.616   2.147  13.803
98452SOL    HW197253   2.616   2.216  13.736
98452SOL    HW297254   2.532   2.102  13.790
98453SOL     OW97255   4.053   1.913   3.419
98453SOL    HW197256   3.967   1.888   3.450
98453SOL    HW297257   4.100   1.830   3.406
98454SOL     OW97258  13.620   6.558   9.797
98454SOL    HW197259  13.566   6.480   9.813
98454SOL    HW297260  13.602   6.615   9.872
98455SOL     OW97261   7.173   5.139   2.044
98455SOL    HW197262   7.151   5.223   2.005
98455SOL    HW297263   7.117   5.076   1.998
98456SOL     OW97264   1.795   8.542   0.607
98456SOL    HW197265   1.799   8.555   0.512
98456SOL    HW297266   1.841   8.618   0.643
98457SOL     OW97267  14.187   3.943   2.201
98457SOL    HW197268  14.140   3.885   2.261
98457SOL    HW297269  14.119   3.996   2.160
98458SOL     OW97270   3.871  12.488   2.025
98458SOL    HW197271   3.877  12.420   2.093
98458SOL    HW297272   3.896  12.443   1.944
98459SOL     OW97273   6.985   8.461   3.905
98459SOL    HW197274   6.906   8.487   3.858
98459SOL    HW297275   7.012   8.540   3.952
98460SOL     OW97276  14.457   5.611   7.834
98460SOL    HW197277  14.388   5.622   7.899
98460SOL    HW297278  14.536   5.642   7.878
98461SOL     OW97279   9.116  10.329   5.240
98461SOL    HW197280   9.150  10.414   5.213
98461SOL    HW297281   9.032  10.348   5.282
98462SOL     OW97282  14.852   1.238  10.630
98462SOL    HW197283   0.064   1.260  10.673
98462SOL    HW297284   0.006   1.188  10.553
98463SOL     OW97285  14.836   0.883   9.309
98463SOL    HW197286   0.054   0.852   9.319
98463SOL    HW297287  14.824   0.945   9.381
98464SOL     OW97288   4.168   3.324   2.296
98464SOL    HW197289   4.110   3.374   2.238
98464SOL    HW297290   4.235   3.288   2.238
98465SOL     OW97291   6.572   6.710   5.269
98465SOL    HW197292   6.587   6.779   5.205
98465SOL    HW297293   6.477   6.700   5.273
98466SOL     OW97294  13.354   3.364   4.135
98466SOL    HW197295  13.405   3.338   4.058
98466SOL    HW297296  13.418   3.403   4.194
98467SOL     OW97297  11.900   3.609   6.996
98467SOL    HW197298  11.829   3.589   7.056
98467SOL    HW297299  11.932   3.524   6.966
98468SOL     OW97300  11.866   3.927   4.855
98468SOL    HW197301  11.889   3.915   4.947
98468SOL    HW297302  11.877   3.841   4.816
98469SOL     OW97303  14.083  13.764  12.524
98469SOL    HW197304  14.092  13.748  12.618
98469SOL    HW297305  14.172  13.784  12.495
98470SOL     OW97306   6.039   7.640   9.515
98470SOL    HW197307   6.024   7.702   9.443
98470SOL    HW297308   6.126   7.661   9.547
98471SOL     OW97309   0.276   0.790  10.532
98471SOL    HW197310   0.343   0.829  10.475
98471SOL    HW297311   0.295   0.696  10.529
98472SOL     OW97312  13.668   9.096  10.326
98472SOL    HW197313  13.673   9.010  10.368
98472SOL    HW297314  13.719   9.087  10.246
98473SOL     OW97315  10.733   5.839   2.634
98473SOL    HW197316  10.691   5.917   2.597
98473SOL    HW297317  10.810   5.872   2.678
98474SOL     OW97318  11.158   8.862   1.237
98474SOL    HW197319  11.239   8.899   1.273
98474SOL    HW297320  11.103   8.937   1.220
98475SOL     OW97321   4.978   5.636   6.260
98475SOL    HW197322   5.061   5.640   6.308
98475SOL    HW297323   4.994   5.572   6.191
98476SOL     OW97324  12.445   8.288   4.755
98476SOL    HW197325  12.507   8.239   4.700
98476SOL    HW297326  12.499   8.354   4.798
98477SOL     OW97327   4.171   5.236   2.998
98477SOL    HW197328   4.110   5.307   3.017
98477SOL    HW297329   4.189   5.244   2.904
98478SOL     OW97330   6.560   8.183   0.425
98478SOL    HW197331   6.573   8.248   0.493
98478SOL    HW297332   6.475   8.143   0.445
98479SOL     OW97333   6.169  13.790   3.164
98479SOL    HW197334   6.221  13.865   3.192
98479SOL    HW297335   6.185  13.783   3.070
98480SOL     OW97336   8.005   3.755   7.989
98480SOL    HW197337   8.082   3.811   8.001
98480SOL    HW297338   8.039   3.676   7.946
98481SOL     OW97339  13.608   2.026  13.288
98481SOL    HW197340  13.685   2.039  13.232
98481SOL    HW297341  13.542   1.988  13.230
98482SOL     OW97342   5.971   4.378   9.050
98482SOL    HW197343   6.025   4.313   9.094
98482SOL    HW297344   6.027   4.455   9.044
98483SOL     OW97345  10.381   7.129  11.784
98483SOL    HW197346  10.426   7.211  11.762
98483SOL    HW297347  10.403   7.069  11.712
98484SOL     OW97348   7.340   2.336  10.429
98484SOL    HW197349   7.389   2.350  10.510
98484SOL    HW297350   7.356   2.245  10.406
98485SOL     OW97351   5.032   8.891   9.463
98485SOL    HW197352   5.024   8.973   9.415
98485SOL    HW297353   4.951   8.885   9.514
98486SOL     OW97354   0.644   7.641   7.187
98486SOL    HW197355   0.565   7.692   7.203
98486SOL    HW297356   0.690   7.690   7.119
98487SOL     OW97357   4.679   4.680   4.036
98487SOL    HW197358   4.758   4.685   4.090
98487SOL    HW297359   4.607   4.683   4.098
98488SOL     OW97360   0.153   3.020   2.908
98488SOL    HW197361   0.105   3.101   2.890
98488SOL    HW297362   0.209   3.041   2.983
98489SOL     OW97363   4.350   5.167  12.379
98489SOL    HW197364   4.288   5.121  12.436
98489SOL    HW297365   4.312   5.254  12.368
98490SOL     OW97366   9.333   1.216   6.583
98490SOL    HW197367   9.366   1.157   6.515
98490SOL    HW297368   9.334   1.303   6.542
98491SOL     OW97369   8.508   5.560  14.264
98491SOL    HW197370   8.485   5.615  14.189
98491SOL    HW297371   8.548   5.482  14.226
98492SOL     OW97372   5.178   6.126   9.865
98492SOL    HW197373   5.182   6.205   9.917
98492SOL    HW297374   5.154   6.057   9.927
98493SOL     OW97375   6.719  12.308   3.563
98493SOL    HW197376   6.778  12.244   3.524
98493SOL    HW297377   6.676  12.262   3.635
98494SOL     OW97378   9.579   1.715  10.630
98494SOL    HW197379   9.497   1.764  10.627
98494SOL    HW297380   9.646   1.781  10.649
98495SOL     OW97381   6.595  14.282   7.103
98495SOL    HW197382   6.580  14.250   7.014
98495SOL    HW297383   6.608  14.203   7.155
98496SOL     OW97384  11.343   9.652   5.482
98496SOL    HW197385  11.406   9.696   5.425
98496SOL    HW297386  11.291   9.724   5.518
98497SOL     OW97387   3.128   9.948   7.777
98497SOL    HW197388   3.119   9.900   7.859
98497SOL    HW297389   3.114  10.040   7.801
98498SOL     OW97390   5.585   2.769   1.928
98498SOL    HW197391   5.678   2.786   1.919
98498SOL    HW297392   5.555   2.830   1.996
98499SOL     OW97393   1.208   9.217   1.349
98499SOL    HW197394   1.242   9.286   1.406
98499SOL    HW297395   1.195   9.259   1.265
98500SOL     OW97396   8.905  12.803   7.822
98500SOL    HW197397   8.985  12.765   7.788
98500SOL    HW297398   8.873  12.739   7.886
98501SOL     OW97399   0.170   6.212   0.719
98501SOL    HW197400   0.173   6.289   0.661
98501SOL    HW297401   0.118   6.241   0.794
98502SOL     OW97402  12.126   0.801  12.686
98502SOL    HW197403  12.115   0.780  12.593
98502SOL    HW297404  12.168   0.723  12.723
98503SOL     OW97405  11.111   4.550   1.418
98503SOL    HW197406  11.181   4.562   1.483
98503SOL    HW297407  11.116   4.458   1.394
98504SOL     OW97408   7.039   0.786   2.394
98504SOL    HW197409   7.125   0.794   2.435
98504SOL    HW297410   6.990   0.728   2.453
98505SOL     OW97411   7.963   1.020   6.872
98505SOL    HW197412   7.945   1.076   6.796
98505SOL    HW297413   8.002   1.078   6.936
98506SOL     OW97414   6.700   9.308   4.853
98506SOL    HW197415   6.778   9.292   4.801
98506SOL    HW297416   6.628   9.302   4.791
98507SOL     OW97417   9.546   9.025   0.214
98507SOL    HW197418   9.550   8.976   0.296
98507SOL    HW297419   9.483   8.977   0.160
98508SOL     OW97420  14.821   3.604  10.123
98508SOL    HW197421  14.763   3.642  10.188
98508SOL    HW297422   0.023   3.570  10.174
98509SOL     OW97423   3.787   4.488   1.659
98509SOL    HW197424   3.781   4.392   1.668
98509SOL    HW297425   3.721   4.521   1.720
98510SOL     OW97426   6.986   6.831  12.105
98510SOL    HW197427   6.983   6.926  12.100
98510SOL    HW297428   6.906   6.801  12.061
98511SOL     OW97429   6.384   7.503   1.473
98511SOL    HW197430   6.443   7.428   1.466
98511SOL    HW297431   6.396   7.551   1.391
98512SOL     OW97432   3.702   4.137   4.116
98512SOL    HW197433   3.643   4.165   4.187
98512SOL    HW297434   3.772   4.091   4.160
98513SOL     OW97435  12.299   9.754  14.158
98513SOL    HW197436  12.319   9.663  14.180
98513SOL    HW297437  12.206   9.764  14.178
98514SOL     OW97438   5.191   3.066   0.857
98514SOL    HW197439   5.232   2.992   0.902
98514SOL    HW297440   5.214   3.054   0.765
98515SOL     OW97441   8.395   2.853   8.351
98515SOL    HW197442   8.401   2.937   8.395
98515SOL    HW297443   8.301   2.834   8.347
98516SOL     OW97444   0.106   8.553  14.654
98516SOL    HW197445   0.016   8.521  14.652
98516SOL    HW297446   0.098   8.648  14.662
98517SOL     OW97447   3.254   4.209  13.837
98517SOL    HW197448   3.194   4.175  13.771
98517SOL    HW297449   3.305   4.133  13.865
98518SOL     OW97450   5.812   8.571   0.609
98518SOL    HW197451   5.895   8.604   0.643
98518SOL    HW297452   5.804   8.610   0.522
98519SOL     OW97453  11.248   3.233   8.460
98519SOL    HW197454  11.182   3.200   8.399
98519SOL    HW297455  11.198   3.283   8.525
98520SOL     OW97456  12.977   2.544   0.491
98520SOL    HW197457  13.013   2.476   0.433
98520SOL    HW297458  13.053   2.577   0.539
98521SOL     OW97459   3.593   8.115   1.741
98521SOL    HW197460   3.654   8.184   1.713
98521SOL    HW297461   3.544   8.093   1.663
98522SOL     OW97462   5.024   1.573  14.056
98522SOL    HW197463   4.938   1.534  14.074
98522SOL    HW297464   5.086   1.504  14.076
98523SOL     OW97465  14.785   7.414  14.554
98523SOL    HW197466  14.861   7.431  14.609
98523SOL    HW297467  14.710   7.422  14.613
98524SOL     OW97468  10.455   2.265  13.994
98524SOL    HW197469  10.471   2.225  14.079
98524SOL    HW297470  10.529   2.324  13.980
98525SOL     OW97471   2.776   6.971  14.080
98525SOL    HW197472   2.690   6.979  14.123
98525SOL    HW297473   2.835   6.947  14.151
98526SOL     OW97474   0.926   0.726   0.612
98526SOL    HW197475   0.886   0.784   0.547
98526SOL    HW297476   0.863   0.654   0.621
98527SOL     OW97477   5.916  10.580  10.362
98527SOL    HW197478   5.921  10.605  10.454
98527SOL    HW297479   5.993  10.620  10.322
98528SOL     OW97480   2.146   6.045   1.356
98528SOL    HW197481   2.100   5.968   1.391
98528SOL    HW297482   2.227   6.010   1.319
98529SOL     OW97483   3.978   5.262   7.273
98529SOL    HW197484   3.909   5.254   7.338
98529SOL    HW297485   4.028   5.180   7.280
98530SOL     OW97486   8.105  12.352   7.743
98530SOL    HW197487   8.020  12.319   7.713
98530SOL    HW297488   8.103  12.445   7.719
98531SOL     OW97489   4.490   9.315   7.642
98531SOL    HW197490   4.533   9.360   7.715
98531SOL    HW297491   4.474   9.384   7.577
98532SOL     OW97492  12.325   4.303  13.610
98532SOL    HW197493  12.261   4.349  13.663
98532SOL    HW297494  12.339   4.360  13.534
98533SOL     OW97495  14.477  12.192  11.168
98533SOL    HW197496  14.463  12.286  11.168
98533SOL    HW297497  14.412  12.157  11.107
98534SOL     OW97498   1.692  12.448   4.106
98534SOL    HW197499   1.763  12.389   4.134
98534SOL    HW297500   1.612  12.406   4.140
98535SOL     OW97501   2.445   5.154   2.135
98535SOL    HW197502   2.374   5.096   2.107
98535SOL    HW297503   2.522   5.098   2.139
98536SOL     OW97504   0.299   9.575   6.967
98536SOL    HW197505   0.380   9.524   6.980
98536SOL    HW297506   0.230   9.509   6.959
98537SOL     OW97507  14.493  10.783   1.070
98537SOL    HW197508  14.470  10.815   0.983
98537SOL    HW297509  14.409  10.763   1.111
98538SOL     OW97510  13.930   9.205  12.765
98538SOL    HW197511  14.012   9.193  12.813
98538SOL    HW297512  13.868   9.146  12.809
98539SOL     OW97513   1.536   9.910   3.542
98539SOL    HW197514   1.510   9.866   3.623
98539SOL    HW297515   1.555  10.000   3.569
98540SOL     OW97516   6.317  14.084  11.611
98540SOL    HW197517   6.237  14.123  11.647
98540SOL    HW297518   6.346  14.022  11.677
98541SOL     OW97519   0.153   7.754  14.290
98541SOL    HW197520   0.218   7.824  14.295
98541SOL    HW297521   0.098   7.766  14.367
98542SOL     OW97522   4.860   2.678   5.121
98542SOL    HW197523   4.813   2.597   5.105
98542SOL    HW297524   4.952   2.653   5.120
98543SOL     OW97525   6.870  11.656   2.022
98543SOL    HW197526   6.873  11.684   1.931
98543SOL    HW297527   6.806  11.585   2.023
98544SOL     OW97528   5.585   5.347   2.346
98544SOL    HW197529   5.669   5.379   2.380
98544SOL    HW297530   5.528   5.424   2.348
98545SOL     OW97531  13.729   6.085  13.622
98545SOL    HW197532  13.643   6.116  13.595
98545SOL    HW297533  13.777   6.164  13.648
98546SOL     OW97534  10.457  12.062   8.157
98546SOL    HW197535  10.499  12.144   8.131
98546SOL    HW297536  10.368  12.069   8.122
98547SOL     OW97537  12.920   3.659  13.016
98547SOL    HW197538  12.860   3.699  13.078
98547SOL    HW297539  12.866   3.601  12.963
98548SOL     OW97540   7.045   6.752  11.793
98548SOL    HW197541   6.966   6.720  11.749
98548SOL    HW297542   7.026   6.843  11.813
98549SOL     OW97543   9.747   6.268  13.447
98549SOL    HW197544   9.658   6.262  13.481
98549SOL    HW297545   9.737   6.299  13.357
98550SOL     OW97546  11.705  11.940   4.408
98550SOL    HW197547  11.627  11.995   4.401
98550SOL    HW297548  11.778  12.001   4.395
98551SOL     OW97549  13.850   7.748   1.085
98551SOL    HW197550  13.878   7.798   1.162
98551SOL    HW297551  13.815   7.815   1.025
98552SOL     OW97552   0.595  13.570   3.289
98552SOL    HW197553   0.620  13.639   3.227
98552SOL    HW297554   0.627  13.602   3.373
98553SOL     OW97555   9.300   9.562  11.915
98553SOL    HW197556   9.303   9.610  11.832
98553SOL    HW297557   9.350   9.616  11.976
98554SOL     OW97558   3.309   4.803   8.132
98554SOL    HW197559   3.346   4.882   8.171
98554SOL    HW297560   3.218   4.803   8.162
98555SOL     OW97561  11.313   4.844  13.332
98555SOL    HW197562  11.303   4.892  13.249
98555SOL    HW297563  11.282   4.906  13.399
98556SOL     OW97564   7.065   7.775   1.058
98556SOL    HW197565   7.140   7.801   1.111
98556SOL    HW297566   7.102   7.720   0.989
98557SOL     OW97567   5.826   9.698   7.327
98557SOL    HW197568   5.857   9.738   7.408
98557SOL    HW297569   5.904   9.689   7.273
98558SOL     OW97570   8.350  14.112   9.570
98558SOL    HW197571   8.331  14.023   9.598
98558SOL    HW297572   8.433  14.106   9.522
98559SOL     OW97573   1.729  13.416  14.827
98559SOL    HW197574   1.692  13.377   0.035
98559SOL    HW297575   1.658  13.410  14.763
98560SOL     OW97576   9.209   3.939  14.054
98560SOL    HW197577   9.176   3.929  14.144
98560SOL    HW297578   9.153   3.883  14.001
98561SOL     OW97579  11.635   3.704  13.020
98561SOL    HW197580  11.574   3.636  12.991
98561SOL    HW297581  11.693   3.719  12.946
98562SOL     OW97582   9.602   3.721   6.108
98562SOL    HW197583   9.555   3.699   6.188
98562SOL    HW297584   9.645   3.639   6.082
98563SOL     OW97585   9.459  13.008   5.741
98563SOL    HW197586   9.384  13.065   5.759
98563SOL    HW297587   9.456  12.943   5.812
98564SOL     OW97588   9.733  14.389   7.686
98564SOL    HW197589   9.813  14.338   7.699
98564SOL    HW297590   9.723  14.394   7.591
98565SOL     OW97591   8.468   3.095   3.487
98565SOL    HW197592   8.497   3.026   3.548
98565SOL    HW297593   8.391   3.058   3.444
98566SOL     OW97594   4.501   4.509   5.729
98566SOL    HW197595   4.416   4.534   5.692
98566SOL    HW297596   4.479   4.442   5.794
98567SOL     OW97597  12.775   1.187   3.214
98567SOL    HW197598  12.834   1.111   3.210
98567SOL    HW297599  12.822   1.251   3.267
98568SOL     OW97600  10.777  12.084  13.252
98568SOL    HW197601  10.789  11.993  13.225
98568SOL    HW297602  10.682  12.094  13.261
98569SOL     OW97603  13.354   9.848   5.317
98569SOL    HW197604  13.337   9.823   5.226
98569SOL    HW297605  13.391   9.936   5.311
98570SOL     OW97606   5.575   6.764   1.165
98570SOL    HW197607   5.601   6.810   1.244
98570SOL    HW297608   5.501   6.815   1.130
98571SOL     OW97609  14.360   5.308   5.098
98571SOL    HW197610  14.305   5.235   5.069
98571SOL    HW297611  14.449   5.271   5.099
98572SOL     OW97612   6.460   8.626   5.976
98572SOL    HW197613   6.379   8.579   5.956
98572SOL    HW297614   6.440   8.718   5.956
98573SOL     OW97615  14.711   4.921   0.503
98573SOL    HW197616  14.690   5.014   0.495
98573SOL    HW297617  14.701   4.902   0.597
98574SOL     OW97618   6.148   0.510   9.642
98574SOL    HW197619   6.223   0.521   9.700
98574SOL    HW297620   6.186   0.492   9.556
98575SOL     OW97621   9.092   6.262   6.062
98575SOL    HW197622   9.099   6.245   6.156
98575SOL    HW297623   8.998   6.276   6.047
98576SOL     OW97624   1.354   2.966  14.216
98576SOL    HW197625   1.369   2.959  14.310
98576SOL    HW297626   1.410   3.038  14.188
98577SOL     OW97627   2.767  13.219   4.676
98577SOL    HW197628   2.830  13.291   4.673
98577SOL    HW297629   2.687  13.256   4.638
98578SOL     OW97630   1.565  10.359   0.066
98578SOL    HW197631   1.660  10.354   0.073
98578SOL    HW297632   1.545  10.452   0.081
98579SOL     OW97633   6.386   8.249   2.970
98579SOL    HW197634   6.376   8.339   3.003
98579SOL    HW297635   6.354   8.253   2.880
98580SOL     OW97636  12.075   5.402   2.044
98580SOL    HW197637  12.149   5.363   2.091
98580SOL    HW297638  12.016   5.433   2.112
98581SOL     OW97639   1.795  14.500   8.663
98581SOL    HW197640   1.855  14.431   8.635
98581SOL    HW297641   1.737  14.513   8.588
98582SOL     OW97642   9.509  12.277   2.870
98582SOL    HW197643   9.447  12.212   2.837
98582SOL    HW297644   9.544  12.319   2.791
98583SOL     OW97645   2.053   4.563   1.264
98583SOL    HW197646   2.118   4.535   1.200
98583SOL    HW297647   2.102   4.612   1.329
98584SOL     OW97648  13.503   2.951   5.468
98584SOL    HW197649  13.565   2.938   5.541
98584SOL    HW297650  13.422   2.910   5.498
98585SOL     OW97651   7.793   5.349  10.603
98585SOL    HW197652   7.733   5.374  10.674
98585SOL    HW297653   7.767   5.404  10.529
98586SOL     OW97654   1.598   5.070   1.596
98586SOL    HW197655   1.534   5.019   1.646
98586SOL    HW297656   1.592   5.036   1.507
98587SOL     OW97657   4.459   2.203   1.048
98587SOL    HW197658   4.422   2.146   1.115
98587SOL    HW297659   4.549   2.172   1.036
98588SOL     OW97660   4.427   1.197  14.016
98588SOL    HW197661   4.393   1.110  13.993
98588SOL    HW297662   4.517   1.181  14.044
98589SOL     OW97663   4.434   7.039  13.011
98589SOL    HW197664   4.498   7.054  13.081
98589SOL    HW297665   4.369   6.980  13.049
98590SOL     OW97666   6.184  11.612  11.640
98590SOL    HW197667   6.271  11.574  11.649
98590SOL    HW297668   6.170  11.658  11.723
98591SOL     OW97669   3.196   4.539   7.560
98591SOL    HW197670   3.253   4.519   7.634
98591SOL    HW297671   3.242   4.504   7.484
98592SOL     OW97672   1.115   3.330  11.508
98592SOL    HW197673   1.076   3.261  11.454
98592SOL    HW297674   1.059   3.334  11.585
98593SOL     OW97675   9.750   4.527   3.271
98593SOL    HW197676   9.764   4.438   3.239
98593SOL    HW297677   9.803   4.533   3.350
98594SOL     OW97678  10.567   8.631   0.015
98594SOL    HW197679  10.480   8.592   0.012
98594SOL    HW297680  10.550   8.724   0.031
98595SOL     OW97681  13.617   9.805   6.697
98595SOL    HW197682  13.581   9.804   6.786
98595SOL    HW297683  13.550   9.761   6.644
98596SOL     OW97684   7.145  13.832   4.425
98596SOL    HW197685   7.130  13.737   4.425
98596SOL    HW297686   7.080  13.867   4.364
98597SOL     OW97687   5.306   0.114  13.486
98597SOL    HW197688   5.349   0.154  13.409
98597SOL    HW297689   5.270   0.189  13.533
98598SOL     OW97690   9.532   1.027   6.120
98598SOL    HW197691   9.617   0.987   6.100
98598SOL    HW297692   9.522   1.096   6.054
98599SOL     OW97693   0.238  13.732   7.854
98599SOL    HW197694   0.262  13.644   7.883
98599SOL    HW297695   0.314  13.764   7.806
98600SOL     OW97696  12.839   3.210   8.042
98600SOL    HW197697  12.867   3.277   7.980
98600SOL    HW297698  12.803   3.260   8.116
98601SOL     OW97699  14.031   2.496  10.477
98601SOL    HW197700  14.033   2.476  10.570
98601SOL    HW297701  13.979   2.576  10.470
98602SOL     OW97702   5.518   2.045   8.343
98602SOL    HW197703   5.446   2.062   8.282
98602SOL    HW297704   5.562   2.129   8.353
98603SOL     OW97705   8.793   1.428   0.116
98603SOL    HW197706   8.839   1.355   0.074
98603SOL    HW297707   8.803   1.501   0.055
98604SOL     OW97708  10.509   9.487   0.007
98604SOL    HW197709  10.581   9.437   0.046
98604SOL    HW297710  10.430   9.440   0.033
98605SOL     OW97711   4.221  12.084  11.128
98605SOL    HW197712   4.204  12.014  11.065
98605SOL    HW297713   4.155  12.073  11.195
98606SOL     OW97714   5.002   0.386   6.011
98606SOL    HW197715   5.086   0.354   5.978
98606SOL    HW297716   4.989   0.470   5.966
98607SOL     OW97717   5.963  10.133   4.673
98607SOL    HW197718   6.013  10.059   4.639
98607SOL    HW297719   5.911  10.097   4.744
98608SOL     OW97720   3.302  14.766   0.149
98608SOL    HW197721   3.254  14.772   0.065
98608SOL    HW297722   3.390  14.795   0.127
98609SOL     OW97723   2.682   8.246   5.257
98609SOL    HW197724   2.730   8.169   5.228
98609SOL    HW297725   2.660   8.228   5.349
98610SOL     OW97726   5.994  14.053   4.252
98610SOL    HW197727   6.062  14.119   4.244
98610SOL    HW297728   5.979  14.045   4.347
98611SOL     OW97729   5.331  10.960   8.622
98611SOL    HW197730   5.299  10.873   8.644
98611SOL    HW297731   5.263  10.997   8.566
98612SOL     OW97732   4.171   8.930   5.193
98612SOL    HW197733   4.151   9.000   5.131
98612SOL    HW297734   4.087   8.906   5.231
98613SOL     OW97735  12.453   2.151  12.385
98613SOL    HW197736  12.513   2.086  12.422
98613SOL    HW297737  12.383   2.159  12.450
98614SOL     OW97738   6.335   3.972   9.673
98614SOL    HW197739   6.277   4.033   9.628
98614SOL    HW297740   6.404   4.027   9.710
98615SOL     OW97741   4.979   7.579   1.580
98615SOL    HW197742   5.017   7.615   1.500
98615SOL    HW297743   4.913   7.516   1.549
98616SOL     OW97744   0.461  14.761   9.635
98616SOL    HW197745   0.537  14.724   9.678
98616SOL    HW297746   0.402  14.785   9.707
98617SOL     OW97747  14.047   4.174   4.467
98617SOL    HW197748  14.084   4.110   4.408
98617SOL    HW297749  14.018   4.123   4.543
98618SOL     OW97750   7.023   3.318  11.437
98618SOL    HW197751   6.980   3.269  11.507
98618SOL    HW297752   6.992   3.408  11.449
98619SOL     OW97753   9.348  13.580   7.897
98619SOL    HW197754   9.271  13.554   7.847
98619SOL    HW297755   9.375  13.500   7.943
98620SOL     OW97756   7.842  13.063   9.472
98620SOL    HW197757   7.821  12.981   9.516
98620SOL    HW297758   7.771  13.123   9.499
98621SOL     OW97759   7.445  11.114   8.700
98621SOL    HW197760   7.360  11.069   8.704
98621SOL    HW297761   7.475  11.100   8.610
98622SOL     OW97762  12.803   4.233  11.589
98622SOL    HW197763  12.717   4.237  11.631
98622SOL    HW297764  12.816   4.321  11.554
98623SOL     OW97765  10.297   8.329  13.849
98623SOL    HW197766  10.337   8.401  13.800
98623SOL    HW297767  10.331   8.339  13.939
98624SOL     OW97768   1.505   1.285   7.700
98624SOL    HW197769   1.535   1.342   7.629
98624SOL    HW297770   1.502   1.198   7.662
98625SOL     OW97771   5.646   1.326   2.759
98625SOL    HW197772   5.715   1.363   2.814
98625SOL    HW297773   5.565   1.350   2.804
98626SOL     OW97774  13.712   0.535   5.831
98626SOL    HW197775  13.624   0.552   5.865
98626SOL    HW297776  13.704   0.451   5.787
98627SOL     OW97777   8.637   2.923  14.404
98627SOL    HW197778   8.590   3.007  14.399
98627SOL    HW297779   8.574   2.859  14.372
98628SOL     OW97780  14.266   6.306  14.221
98628SOL    HW197781  14.250   6.375  14.156
98628SOL    HW297782  14.343   6.260  14.190
98629SOL     OW97783   3.833   2.240  13.064
98629SOL    HW197784   3.762   2.300  13.083
98629SOL    HW297785   3.909   2.277  13.108
98630SOL     OW97786   0.545   8.240   5.641
98630SOL    HW197787   0.615   8.223   5.578
98630SOL    HW297788   0.465   8.223   5.592
98631SOL     OW97789  10.298   4.839   8.084
98631SOL    HW197790  10.256   4.892   8.151
98631SOL    HW297791  10.248   4.857   8.004
98632SOL     OW97792   4.338   4.788  11.159
98632SOL    HW197793   4.405   4.856  11.165
98632SOL    HW297794   4.302   4.781  11.247
98633SOL     OW97795   7.753   9.274   8.756
98633SOL    HW197796   7.752   9.294   8.662
98633SOL    HW297797   7.779   9.182   8.761
98634SOL     OW97798   6.410   9.356   7.649
98634SOL    HW197799   6.349   9.430   7.649
98634SOL    HW297800   6.356   9.281   7.671
98635SOL     OW97801   9.418   0.943   3.018
98635SOL    HW197802   9.479   0.983   3.080
98635SOL    HW297803   9.334   0.940   3.064
98636SOL     OW97804  14.691   4.081   8.487
98636SOL    HW197805  14.634   4.038   8.551
98636SOL    HW297806  14.671   4.038   8.404
98637SOL     OW97807   1.229   7.572  13.311
98637SOL    HW197808   1.189   7.658  13.321
98637SOL    HW297809   1.273   7.575  13.227
98638SOL     OW97810   2.327   7.726   9.264
98638SOL    HW197811   2.357   7.640   9.294
98638SOL    HW297812   2.403   7.764   9.220
98639SOL     OW97813   0.072   5.841   1.600
98639SOL    HW197814   0.047   5.824   1.510
98639SOL    HW297815   0.074   5.754   1.641
98640SOL     OW97816  13.229   1.860   7.271
98640SOL    HW197817  13.159   1.914   7.310
98640SOL    HW297818  13.183   1.784   7.236
98641SOL     OW97819  13.622  14.115  11.204
98641SOL    HW197820  13.599  14.208  11.197
98641SOL    HW297821  13.636  14.087  11.114
98642SOL     OW97822  11.005   1.298   8.533
98642SOL    HW197823  11.066   1.341   8.593
98642SOL    HW297824  11.060   1.268   8.461
98643SOL     OW97825   8.044  10.622  10.790
98643SOL    HW197826   8.030  10.651  10.880
98643SOL    HW297827   7.956  10.612  10.755
98644SOL     OW97828   1.371   6.445   1.685
98644SOL    HW197829   1.337   6.461   1.597
98644SOL    HW297830   1.366   6.529   1.730
98645SOL     OW97831   4.415  14.347   8.645
98645SOL    HW197832   4.458  14.348   8.730
98645SOL    HW297833   4.361  14.426   8.644
98646SOL     OW97834  13.707  10.959  14.289
98646SOL    HW197835  13.684  10.869  14.313
98646SOL    HW297836  13.718  10.956  14.194
98647SOL     OW97837   2.268   5.993  10.673
98647SOL    HW197838   2.359   6.021  10.660
98647SOL    HW297839   2.266   5.959  10.762
98648SOL     OW97840   5.959  14.772   9.466
98648SOL    HW197841   6.009  14.853   9.458
98648SOL    HW297842   5.874  14.799   9.500
98649SOL     OW97843   8.784   3.198   9.798
98649SOL    HW197844   8.865   3.216   9.750
98649SOL    HW297845   8.809   3.206   9.890
98650SOL     OW97846  12.021   3.750  11.174
98650SOL    HW197847  12.037   3.843  11.156
98650SOL    HW297848  12.018   3.709  11.087
98651SOL     OW97849  10.402   5.124  13.054
98651SOL    HW197850  10.319   5.161  13.025
98651SOL    HW297851  10.378   5.038  13.090
98652SOL     OW97852   0.705   8.796   5.264
98652SOL    HW197853   0.755   8.738   5.207
98652SOL    HW297854   0.624   8.748   5.282
98653SOL     OW97855   3.782   6.116   2.295
98653SOL    HW197856   3.847   6.105   2.225
98653SOL    HW297857   3.819   6.182   2.353
98654SOL     OW97858   8.925   6.483   3.872
98654SOL    HW197859   8.907   6.525   3.956
98654SOL    HW297860   8.986   6.412   3.893
98655SOL     OW97861   8.570  12.631  11.305
98655SOL    HW197862   8.495  12.576  11.329
98655SOL    HW297863   8.601  12.594  11.221
98656SOL     OW97864   7.238   4.653  11.203
98656SOL    HW197865   7.308   4.617  11.149
98656SOL    HW297866   7.161   4.602  11.180
98657SOL     OW97867   9.384  14.502   8.651
98657SOL    HW197868   9.353  14.592   8.663
98657SOL    HW297869   9.326  14.449   8.705
98658SOL     OW97870   2.260  11.600  12.658
98658SOL    HW197871   2.324  11.664  12.688
98658SOL    HW297872   2.176  11.646  12.659
98659SOL     OW97873   9.908   5.594   9.230
98659SOL    HW197874   9.960   5.670   9.206
98659SOL    HW297875   9.818   5.617   9.208
98660SOL     OW97876  12.780  12.479   1.716
98660SOL    HW197877  12.803  12.414   1.782
98660SOL    HW297878  12.847  12.546   1.724
98661SOL     OW97879   3.244   5.332   6.223
98661SOL    HW197880   3.163   5.318   6.272
98661SOL    HW297881   3.267   5.423   6.241
98662SOL     OW97882   7.588  14.829  10.527
98662SOL    HW197883   7.535  14.787  10.459
98662SOL    HW297884   7.599  14.762  10.594
98663SOL     OW97885   8.633   8.347   8.341
98663SOL    HW197886   8.600   8.272   8.292
98663SOL    HW297887   8.556   8.387   8.379
98664SOL     OW97888   2.958   0.901   0.780
98664SOL    HW197889   2.992   0.918   0.693
98664SOL    HW297890   2.872   0.943   0.781
98665SOL     OW97891   8.466  14.695   3.951
98665SOL    HW197892   8.536  14.758   3.966
98665SOL    HW297893   8.428  14.680   4.038
98666SOL     OW97894   7.385  14.491   3.285
98666SOL    HW197895   7.395  14.417   3.345
98666SOL    HW297896   7.354  14.562   3.341
98667SOL     OW97897  14.784   1.942   1.574
98667SOL    HW197898  14.830   1.945   1.490
98667SOL    HW297899  14.844   1.897   1.632
98668SOL     OW97900  10.442   1.444   2.950
98668SOL    HW197901  10.527   1.401   2.939
98668SOL    HW297902  10.447   1.522   2.894
98669SOL     OW97903   2.187   5.284   9.651
98669SOL    HW197904   2.197   5.320   9.739
98669SOL    HW297905   2.250   5.212   9.647
98670SOL     OW97906  10.770   9.845   8.018
98670SOL    HW197907  10.734   9.933   8.008
98670SOL    HW297908  10.860   9.851   7.985
98671SOL     OW97909   8.332   9.265   7.677
98671SOL    HW197910   8.421   9.272   7.643
98671SOL    HW297911   8.319   9.345   7.728
98672SOL     OW97912  12.266   0.359  13.638
98672SOL    HW197913  12.344   0.331  13.590
98672SOL    HW297914  12.255   0.292  13.706
98673SOL     OW97915   1.328   1.426   5.388
98673SOL    HW197916   1.333   1.506   5.440
98673SOL    HW297917   1.318   1.456   5.298
98674SOL     OW97918   4.289  11.576   6.460
98674SOL    HW197919   4.209  11.530   6.487
98674SOL    HW297920   4.283  11.578   6.365
98675SOL     OW97921   1.229  10.074   5.962
98675SOL    HW197922   1.264   9.992   5.997
98675SOL    HW297923   1.172  10.108   6.032
98676SOL     OW97924   1.288   2.673  11.061
98676SOL    HW197925   1.236   2.748  11.035
98676SOL    HW297926   1.372   2.711  11.088
98677SOL     OW97927  12.425  13.367   9.085
98677SOL    HW197928  12.422  13.290   9.143
98677SOL    HW297929  12.446  13.331   8.999
98678SOL     OW97930  12.579   9.424  13.520
98678SOL    HW197931  12.569   9.330  13.532
98678SOL    HW297932  12.555   9.440  13.429
98679SOL     OW97933  10.923   0.014   6.410
98679SOL    HW197934  10.840   0.054   6.383
98679SOL    HW297935  10.912  14.793   6.390
98680SOL     OW97936   1.861   1.310   5.705
98680SOL    HW197937   1.767   1.290   5.709
98680SOL    HW297938   1.866   1.390   5.652
98681SOL     OW97939   8.163   9.529   5.198
98681SOL    HW197940   8.207   9.467   5.139
98681SOL    HW297941   8.228   9.596   5.215
98682SOL     OW97942  12.752  14.828   9.957
98682SOL    HW197943  12.736  14.757   9.895
98682SOL    HW297944  12.678   0.017   9.943
98683SOL     OW97945  12.795   2.071  13.528
98683SOL    HW197946  12.829   2.116  13.606
98683SOL    HW297947  12.725   2.015  13.561
98684SOL     OW97948   3.406  13.507  10.309
98684SOL    HW197949   3.405  13.574  10.376
98684SOL    HW297950   3.344  13.440  10.340
98685SOL     OW97951   6.780  14.494   7.897
98685SOL    HW197952   6.830  14.524   7.821
98685SOL    HW297953   6.799  14.558   7.966
98686SOL     OW97954  14.639   2.181  11.824
98686SOL    HW197955  14.656   2.095  11.860
98686SOL    HW297956  14.725   2.214  11.797
98687SOL     OW97957  14.437   7.032  11.645
98687SOL    HW197958  14.454   7.039  11.551
98687SOL    HW297959  14.345   7.005  11.651
98688SOL     OW97960   1.459   3.916   6.444
98688SOL    HW197961   1.473   3.957   6.359
98688SOL    HW297962   1.364   3.913   6.455
98689SOL     OW97963   3.290   3.599   3.935
98689SOL    HW197964   3.378   3.569   3.958
98689SOL    HW297965   3.289   3.602   3.839
98690SOL     OW97966  14.582   8.184   3.258
98690SOL    HW197967  14.502   8.181   3.310
98690SOL    HW297968  14.652   8.191   3.323
98691SOL     OW97969  10.777   3.362   3.163
98691SOL    HW197970  10.786   3.440   3.218
98691SOL    HW297971  10.849   3.369   3.101
98692SOL     OW97972   8.049  10.797   4.013
98692SOL    HW197973   7.957  10.801   4.040
98692SOL    HW297974   8.059  10.710   3.975
98693SOL     OW97975   5.883   9.889   9.931
98693SOL    HW197976   5.879   9.854   9.842
98693SOL    HW297977   5.886   9.984   9.920
98694SOL     OW97978   7.776   2.918   8.872
98694SOL    HW197979   7.686   2.924   8.906
98694SOL    HW297980   7.770   2.855   8.800
98695SOL     OW97981  14.280  14.218  10.585
98695SOL    HW197982  14.242  14.270  10.656
98695SOL    HW297983  14.335  14.279  10.537
98696SOL     OW97984   5.071  11.998  10.417
98696SOL    HW197985   5.116  12.025  10.338
98696SOL    HW297986   4.981  11.981  10.389
98697SOL     OW97987   8.487   1.942   5.948
98697SOL    HW197988   8.581   1.929   5.942
98697SOL    HW297989   8.449   1.855   5.939
98698SOL     OW97990  11.329   1.468   1.476
98698SOL    HW197991  11.240   1.467   1.442
98698SOL    HW297992  11.319   1.491   1.568
98699SOL     OW97993   8.899   2.759  12.550
98699SOL    HW197994   8.832   2.702  12.511
98699SOL    HW297995   8.861   2.784  12.635
98700SOL     OW97996   7.225   2.289   1.304
98700SOL    HW197997   7.179   2.255   1.381
98700SOL    HW297998   7.163   2.348   1.263
98701SOL     OW97999  11.803   2.307   1.844
98701SOL    HW198000  11.762   2.388   1.873
98701SOL    HW298001  11.870   2.290   1.910
98702SOL     OW98002   6.069  13.139  14.006
98702SOL    HW198003   6.019  13.070  14.049
98702SOL    HW298004   6.101  13.194  14.077
98703SOL     OW98005   4.256   3.204   7.217
98703SOL    HW198006   4.235   3.273   7.154
98703SOL    HW298007   4.177   3.196   7.271
98704SOL     OW98008   9.762   0.464  11.866
98704SOL    HW198009   9.701   0.538  11.860
98704SOL    HW298010   9.815   0.483  11.943
98705SOL     OW98011   5.887  12.722  12.479
98705SOL    HW198012   5.978  12.737  12.454
98705SOL    HW298013   5.865  12.796  12.535
98706SOL     OW98014   9.707   0.179  14.484
98706SOL    HW198015   9.696   0.238  14.559
98706SOL    HW298016   9.764   0.110  14.516
98707SOL     OW98017   4.904   4.450  10.122
98707SOL    HW198018   4.830   4.510  10.126
98707SOL    HW298019   4.936   4.444  10.212
98708SOL     OW98020  13.175   3.603   9.986
98708SOL    HW198021  13.123   3.546  10.042
98708SOL    HW298022  13.253   3.622  10.037
98709SOL     OW98023  13.141  10.493  10.052
98709SOL    HW198024  13.110  10.514   9.964
98709SOL    HW298025  13.069  10.521  10.109
98710SOL     OW98026   4.764   0.467   9.628
98710SOL    HW198027   4.748   0.554   9.591
98710SOL    HW298028   4.859   0.461   9.636
98711SOL     OW98029   5.013  13.226   1.405
98711SOL    HW198030   5.047  13.137   1.395
98711SOL    HW298031   4.919  13.215   1.421
98712SOL     OW98032  13.690   1.502  14.820
98712SOL    HW198033  13.608   1.474  14.860
98712SOL    HW298034  13.687   1.597  14.823
98713SOL     OW98035  13.992   6.598   8.123
98713SOL    HW198036  13.979   6.522   8.066
98713SOL    HW298037  14.047   6.657   8.071
98714SOL     OW98038   5.838  11.509   4.216
98714SOL    HW198039   5.869  11.562   4.142
98714SOL    HW298040   5.850  11.565   4.292
98715SOL     OW98041  12.694   9.374  10.053
98715SOL    HW198042  12.662   9.283  10.053
98715SOL    HW298043  12.788   9.366  10.038
98716SOL     OW98044   2.054   9.664  13.261
98716SOL    HW198045   2.085   9.598  13.322
98716SOL    HW298046   2.089   9.637  13.176
98717SOL     OW98047   3.623   7.142   7.799
98717SOL    HW198048   3.643   7.050   7.820
98717SOL    HW298049   3.543   7.160   7.850
98718SOL     OW98050  12.601   1.856  13.947
98718SOL    HW198051  12.530   1.795  13.929
98718SOL    HW298052  12.562   1.921  14.005
98719SOL     OW98053  14.385  11.487  14.375
98719SOL    HW198054  14.417  11.521  14.292
98719SOL    HW298055  14.305  11.536  14.392
98720SOL     OW98056  12.576  13.492   0.623
98720SOL    HW198057  12.526  13.411   0.628
98720SOL    HW298058  12.590  13.518   0.714
98721SOL     OW98059   5.261   8.091  10.044
98721SOL    HW198060   5.168   8.073  10.054
98721SOL    HW298061   5.298   8.072  10.131
98722SOL     OW98062  12.149   6.172   2.348
98722SOL    HW198063  12.158   6.253   2.399
98722SOL    HW298064  12.143   6.201   2.257
98723SOL     OW98065   2.401   4.078  14.760
98723SOL    HW198066   2.390   4.149  14.823
98723SOL    HW298067   2.344   4.008  14.793
98724SOL     OW98068   8.799   6.962  10.677
98724SOL    HW198069   8.758   6.950  10.762
98724SOL    HW298070   8.866   6.893  10.672
98725SOL     OW98071  13.329  13.135   7.232
98725SOL    HW198072  13.370  13.093   7.157
98725SOL    HW298073  13.260  13.190   7.194
98726SOL     OW98074  13.584  10.973   8.858
98726SOL    HW198075  13.628  11.058   8.855
98726SOL    HW298076  13.650  10.913   8.891
98727SOL     OW98077   7.645  14.818   0.752
98727SOL    HW198078   7.577  14.836   0.687
98727SOL    HW298079   7.719  14.785   0.701
98728SOL     OW98080  11.437  13.890  13.985
98728SOL    HW198081  11.448  13.984  13.993
98728SOL    HW298082  11.521  13.853  14.013
98729SOL     OW98083   1.708   3.053   3.262
98729SOL    HW198084   1.691   3.065   3.355
98729SOL    HW298085   1.780   2.989   3.258
98730SOL     OW98086   9.865  14.124   4.866
98730SOL    HW198087   9.883  14.071   4.788
98730SOL    HW298088   9.915  14.081   4.935
98731SOL     OW98089   4.842   9.961  13.053
98731SOL    HW198090   4.851   9.883  13.107
98731SOL    HW298091   4.853  10.034  13.113
98732SOL     OW98092  11.383  10.158   3.082
98732SOL    HW198093  11.477  10.172   3.068
98732SOL    HW298094  11.370  10.172   3.176
98733SOL     OW98095  14.728   0.314   2.552
98733SOL    HW198096  14.681   0.238   2.518
98733SOL    HW298097  14.818   0.285   2.562
98734SOL     OW98098   4.390   6.911   8.338
98734SOL    HW198099   4.353   6.889   8.253
98734SOL    HW298100   4.457   6.977   8.319
98735SOL     OW98101  13.699  13.864   1.475
98735SOL    HW198102  13.728  13.892   1.562
98735SOL    HW298103  13.701  13.768   1.479
98736SOL     OW98104   3.164   9.795  11.890
98736SOL    HW198105   3.104   9.739  11.841
98736SOL    HW298106   3.233   9.817  11.828
98737SOL     OW98107  14.109  12.270   2.076
98737SOL    HW198108  14.116  12.249   1.983
98737SOL    HW298109  14.197  12.297   2.102
98738SOL     OW98110   6.891   3.767   4.766
98738SOL    HW198111   6.812   3.785   4.714
98738SOL    HW298112   6.871   3.686   4.812
98739SOL     OW98113  11.692   4.307   8.929
98739SOL    HW198114  11.746   4.378   8.895
98739SOL    HW298115  11.713   4.232   8.873
98740SOL     OW98116   4.727   6.905  12.517
98740SOL    HW198117   4.702   6.961  12.443
98740SOL    HW298118   4.810   6.866  12.490
98741SOL     OW98119   1.709  12.950   1.208
98741SOL    HW198120   1.697  12.938   1.302
98741SOL    HW298121   1.670  12.872   1.168
98742SOL     OW98122   9.800   1.346  12.595
98742SOL    HW198123   9.767   1.435  12.582
98742SOL    HW298124   9.722   1.295  12.615
98743SOL     OW98125  10.425   3.769  11.811
98743SOL    HW198126  10.495   3.832  11.825
98743SOL    HW298127  10.458   3.710  11.743
98744SOL     OW98128   1.198   7.467   9.327
98744SOL    HW198129   1.167   7.385   9.366
98744SOL    HW298130   1.277   7.442   9.279
98745SOL     OW98131   3.507  12.680  13.145
98745SOL    HW198132   3.481  12.699  13.055
98745SOL    HW298133   3.425  12.662  13.191
98746SOL     OW98134   5.490  14.556   2.848
98746SOL    HW198135   5.553  14.536   2.779
98746SOL    HW298136   5.435  14.478   2.853
98747SOL     OW98137   4.776  14.200   5.358
98747SOL    HW198138   4.858  14.242   5.333
98747SOL    HW298139   4.708  14.250   5.313
98748SOL     OW98140   5.181  10.007   0.390
98748SOL    HW198141   5.268  10.036   0.419
98748SOL    HW298142   5.138   9.977   0.470
98749SOL     OW98143   7.840   5.854  10.409
98749SOL    HW198144   7.873   5.899  10.487
98749SOL    HW298145   7.918   5.820  10.366
98750SOL     OW98146   3.928   1.115   4.268
98750SOL    HW198147   3.857   1.154   4.318
98750SOL    HW298148   3.957   1.185   4.209
98751SOL     OW98149   4.148   8.996   0.805
98751SOL    HW198150   4.118   9.045   0.881
98751SOL    HW298151   4.077   9.003   0.741
98752SOL     OW98152  11.054   1.112   6.402
98752SOL    HW198153  11.126   1.076   6.453
98752SOL    HW298154  11.032   1.044   6.339
98753SOL     OW98155  14.825  13.128  14.592
98753SOL    HW198156  14.812  13.062  14.524
98753SOL    HW298157  14.775  13.204  14.562
98754SOL     OW98158  11.967  14.827   4.421
98754SOL    HW198159  11.994  14.737   4.437
98754SOL    HW298160  12.007  14.850   4.337
98755SOL     OW98161   0.815  12.821  10.711
98755SOL    HW198162   0.796  12.905  10.752
98755SOL    HW298163   0.809  12.838  10.617
98756SOL     OW98164   1.108   0.264   6.666
98756SOL    HW198165   1.201   0.280   6.650
98756SOL    HW298166   1.063   0.324   6.607
98757SOL     OW98167   0.465  13.552  14.062
98757SOL    HW198168   0.559  13.532  14.063
98757SOL    HW298169   0.460  13.647  14.072
98758SOL     OW98170   7.307   2.021  12.486
98758SOL    HW198171   7.338   1.931  12.494
98758SOL    HW298172   7.250   2.033  12.563
98759SOL     OW98173   6.937   2.176   9.880
98759SOL    HW198174   6.944   2.081   9.877
98759SOL    HW298175   6.962   2.204   9.792
98760SOL     OW98176   2.573  12.793   3.900
98760SOL    HW198177   2.611  12.839   3.825
98760SOL    HW298178   2.497  12.747   3.865
98761SOL     OW98179  12.523  13.304   3.823
98761SOL    HW198180  12.503  13.397   3.812
98761SOL    HW298181  12.616  13.298   3.804
98762SOL     OW98182   7.383  13.608   9.322
98762SOL    HW198183   7.370  13.615   9.417
98762SOL    HW298184   7.312  13.658   9.284
98763SOL     OW98185  12.748   6.345   1.565
98763SOL    HW198186  12.834   6.353   1.524
98763SOL    HW298187  12.691   6.400   1.511
98764SOL     OW98188   4.821   7.143   2.086
98764SOL    HW198189   4.883   7.123   2.016
98764SOL    HW298190   4.743   7.174   2.041
98765SOL     OW98191  14.041   1.143   1.108
98765SOL    HW198192  13.994   1.185   1.037
98765SOL    HW298193  14.081   1.065   1.069
98766SOL     OW98194   7.900   6.615  12.834
98766SOL    HW198195   7.931   6.700  12.865
98766SOL    HW298196   7.898   6.622  12.739
98767SOL     OW98197  11.823   3.911   3.013
98767SOL    HW198198  11.764   3.959   3.070
98767SOL    HW298199  11.800   3.819   3.027
98768SOL     OW98200   9.474   0.507   0.419
98768SOL    HW198201   9.422   0.588   0.426
98768SOL    HW298202   9.499   0.503   0.327
98769SOL     OW98203   8.127   4.916   2.444
98769SOL    HW198204   8.037   4.885   2.454
98769SOL    HW298205   8.117   5.010   2.428
98770SOL     OW98206   4.285  11.651  10.469
98770SOL    HW198207   4.209  11.706  10.489
98770SOL    HW298208   4.270  11.570  10.518
98771SOL     OW98209   3.571   4.469  14.504
98771SOL    HW198210   3.524   4.543  14.466
98771SOL    HW298211   3.607   4.503  14.586
98772SOL     OW98212   2.299   6.799   6.356
98772SOL    HW198213   2.363   6.845   6.302
98772SOL    HW298214   2.221   6.856   6.354
98773SOL     OW98215   7.182   8.835   0.663
98773SOL    HW198216   7.109   8.860   0.719
98773SOL    HW298217   7.142   8.785   0.591
98774SOL     OW98218   1.094  10.149  12.941
98774SOL    HW198219   1.139  10.215  12.994
98774SOL    HW298220   1.140  10.067  12.960
98775SOL     OW98221   4.176   7.582  10.824
98775SOL    HW198222   4.215   7.667  10.844
98775SOL    HW298223   4.226   7.549  10.750
98776SOL     OW98224   3.352  14.550  11.527
98776SOL    HW198225   3.440  14.580  11.504
98776SOL    HW298226   3.324  14.497  11.451
98777SOL     OW98227  13.605  14.306   3.689
98777SOL    HW198228  13.668  14.264   3.748
98777SOL    HW298229  13.544  14.351   3.747
98778SOL     OW98230  13.562   1.710   1.342
98778SOL    HW198231  13.623   1.692   1.270
98778SOL    HW298232  13.574   1.637   1.402
98779SOL     OW98233   2.999  12.389  10.765
98779SOL    HW198234   2.951  12.438  10.697
98779SOL    HW298235   3.028  12.309  10.721
98780SOL     OW98236  10.312  12.810  13.430
98780SOL    HW198237  10.394  12.852  13.405
98780SOL    HW298238  10.245  12.856  13.380
98781SOL     OW98239   2.536  13.120  14.762
98781SOL    HW198240   2.538  13.158  14.674
98781SOL    HW298241   2.541  13.195  14.821
98782SOL     OW98242   9.381   3.925  12.314
98782SOL    HW198243   9.348   3.935  12.404
98782SOL    HW298244   9.468   3.964  12.316
98783SOL     OW98245   9.517   5.366   0.356
98783SOL    HW198246   9.560   5.422   0.291
98783SOL    HW298247   9.424   5.376   0.338
98784SOL     OW98248  11.284   9.100   5.373
98784SOL    HW198249  11.323   9.147   5.447
98784SOL    HW298250  11.199   9.144   5.359
98785SOL     OW98251   2.232  12.998   9.066
98785SOL    HW198252   2.328  13.003   9.063
98785SOL    HW298253   2.212  12.980   9.158
98786SOL     OW98254   1.870   1.412   0.486
98786SOL    HW198255   1.806   1.437   0.553
98786SOL    HW298256   1.855   1.473   0.414
98787SOL     OW98257   4.021   7.661   6.058
98787SOL    HW198258   3.996   7.732   6.117
98787SOL    HW298259   4.117   7.667   6.051
98788SOL     OW98260   2.660   0.612   8.071
98788SOL    HW198261   2.632   0.695   8.033
98788SOL    HW298262   2.645   0.547   8.002
98789SOL     OW98263   3.394   6.926   6.156
98789SOL    HW198264   3.339   6.917   6.234
98789SOL    HW298265   3.396   6.838   6.118
98790SOL     OW98266  11.802   8.863   7.997
98790SOL    HW198267  11.800   8.856   8.092
98790SOL    HW298268  11.752   8.943   7.978
98791SOL     OW98269  13.858  13.796   4.059
98791SOL    HW198270  13.942  13.837   4.083
98791SOL    HW298271  13.857  13.714   4.108
98792SOL     OW98272   3.898   4.002   8.919
98792SOL    HW198273   3.952   4.052   8.859
98792SOL    HW298274   3.889   4.058   8.996
98793SOL     OW98275  14.580   7.104   4.538
98793SOL    HW198276  14.562   7.018   4.501
98793SOL    HW298277  14.639   7.146   4.476
98794SOL     OW98278   9.334   1.351   3.945
98794SOL    HW198279   9.380   1.313   4.019
98794SOL    HW298280   9.348   1.445   3.954
98795SOL     OW98281  12.166  12.234   4.795
98795SOL    HW198282  12.079  12.195   4.787
98795SOL    HW298283  12.211  12.179   4.859
98796SOL     OW98284  12.762   6.473   4.295
98796SOL    HW198285  12.689   6.481   4.234
98796SOL    HW298286  12.825   6.417   4.249
98797SOL     OW98287   7.514   3.947   9.135
98797SOL    HW198288   7.554   4.013   9.191
98797SOL    HW298289   7.478   3.883   9.196
98798SOL     OW98290  14.109   7.877   0.934
98798SOL    HW198291  14.201   7.855   0.923
98798SOL    HW298292  14.067   7.794   0.958
98799SOL     OW98293  14.040  12.077   3.671
98799SOL    HW198294  14.051  12.024   3.592
98799SOL    HW298295  13.981  12.148   3.644
98800SOL     OW98296  12.138   9.389   4.959
98800SOL    HW198297  12.132   9.424   4.871
98800SOL    HW298298  12.096   9.455   5.014
98801SOL     OW98299  14.518  10.556   0.781
98801SOL    HW198300  14.501  10.573   0.873
98801SOL    HW298301  14.442  10.507   0.751
98802SOL     OW98302  12.846   2.269   1.307
98802SOL    HW198303  12.783   2.217   1.358
98802SOL    HW298304  12.931   2.229   1.326
98803SOL     OW98305  12.430  12.296   3.461
98803SOL    HW198306  12.442  12.205   3.491
98803SOL    HW298307  12.501  12.344   3.503
98804SOL     OW98308   3.447  14.083   0.920
98804SOL    HW198309   3.470  14.169   0.887
98804SOL    HW298310   3.352  14.076   0.907
98805SOL     OW98311   8.432  10.499   9.841
98805SOL    HW198312   8.344  10.473   9.869
98805SOL    HW298313   8.489  10.474   9.914
98806SOL     OW98314  12.875   6.307   5.225
98806SOL    HW198315  12.789   6.297   5.183
98806SOL    HW298316  12.928   6.237   5.187
98807SOL     OW98317   0.096   9.466   9.557
98807SOL    HW198318   0.137   9.552   9.547
98807SOL    HW298319   0.125   9.416   9.481
98808SOL     OW98320   6.681  11.419   3.337
98808SOL    HW198321   6.662  11.389   3.248
98808SOL    HW298322   6.766  11.379   3.358
98809SOL     OW98323  11.092  10.634  11.576
98809SOL    HW198324  11.096  10.724  11.546
98809SOL    HW298325  11.052  10.586  11.504
98810SOL     OW98326   1.555   0.406   4.912
98810SOL    HW198327   1.502   0.379   4.837
98810SOL    HW298328   1.638   0.433   4.874
98811SOL     OW98329   8.445   4.944  10.470
98811SOL    HW198330   8.386   4.885  10.515
98811SOL    HW298331   8.443   5.025  10.521
98812SOL     OW98332   0.066   5.746  10.504
98812SOL    HW198333  14.853   5.715  10.472
98812SOL    HW298334   0.048   5.778  10.592
98813SOL     OW98335   3.432  12.982   6.749
98813SOL    HW198336   3.393  12.922   6.686
98813SOL    HW298337   3.370  13.056   6.753
98814SOL     OW98338   0.549   7.751  10.670
98814SOL    HW198339   0.555   7.821  10.736
98814SOL    HW298340   0.623   7.767  10.612
98815SOL     OW98341  10.863   3.121   7.670
98815SOL    HW198342  10.818   3.195   7.630
98815SOL    HW298343  10.939   3.160   7.713
98816SOL     OW98344   4.018   0.461  10.325
98816SOL    HW198345   4.043   0.541  10.279
98816SOL    HW298346   3.940   0.430  10.278
98817SOL     OW98347  11.403   0.591   4.216
98817SOL    HW198348  11.453   0.667   4.247
98817SOL    HW298349  11.429   0.520   4.274
98818SOL     OW98350  13.883   2.525  10.048
98818SOL    HW198351  13.895   2.612  10.087
98818SOL    HW298352  13.898   2.539   9.954
98819SOL     OW98353   3.959   1.127   3.743
98819SOL    HW198354   4.039   1.175   3.762
98819SOL    HW298355   3.907   1.132   3.824
98820SOL     OW98356   2.237   0.374   1.114
98820SOL    HW198357   2.162   0.328   1.076
98820SOL    HW298358   2.198   0.438   1.173
98821SOL     OW98359   0.164   0.946   6.292
98821SOL    HW198360   0.229   0.886   6.255
98821SOL    HW298361   0.110   0.891   6.348
98822SOL     OW98362   3.161   8.644  10.093
98822SOL    HW198363   3.252   8.664  10.073
98822SOL    HW298364   3.124   8.617  10.009
98823SOL     OW98365   8.873   7.179   8.735
98823SOL    HW198366   8.905   7.095   8.766
98823SOL    HW298367   8.800   7.200   8.794
98824SOL     OW98368  11.394   7.220   8.549
98824SOL    HW198369  11.460   7.289   8.542
98824SOL    HW298370  11.319   7.253   8.498
98825SOL     OW98371  13.712   5.731   7.050
98825SOL    HW198372  13.626   5.700   7.024
98825SOL    HW298373  13.765   5.652   7.058
98826SOL     OW98374   2.735   4.445   7.552
98826SOL    HW198375   2.680   4.452   7.473
98826SOL    HW298376   2.823   4.431   7.519
98827SOL     OW98377  13.666   9.768  11.198
98827SOL    HW198378  13.642   9.784  11.107
98827SOL    HW298379  13.613   9.830  11.248
98828SOL     OW98380   9.500   9.187   7.790
98828SOL    HW198381   9.513   9.198   7.884
98828SOL    HW298382   9.479   9.275   7.758
98829SOL     OW98383  12.698   5.466   7.519
98829SOL    HW198384  12.633   5.396   7.528
98829SOL    HW298385  12.777   5.420   7.489
98830SOL     OW98386   1.535  14.503  12.643
98830SOL    HW198387   1.591  14.425  12.634
98830SOL    HW298388   1.463  14.473  12.699
98831SOL     OW98389   1.018   7.385   3.318
98831SOL    HW198390   1.074   7.311   3.295
98831SOL    HW298391   1.041   7.406   3.409
98832SOL     OW98392   7.013   7.245  12.853
98832SOL    HW198393   6.976   7.234  12.940
98832SOL    HW298394   7.105   7.221  12.863
98833SOL     OW98395   2.208   8.648   9.630
98833SOL    HW198396   2.238   8.688   9.712
98833SOL    HW298397   2.250   8.700   9.562
98834SOL     OW98398  12.863  10.068   3.523
98834SOL    HW198399  12.915  10.114   3.589
98834SOL    HW298400  12.833  10.136   3.464
98835SOL     OW98401  11.927   7.007   6.185
98835SOL    HW198402  11.954   6.950   6.113
98835SOL    HW298403  11.889   7.083   6.142
98836SOL     OW98404   8.826   3.552   1.935
98836SOL    HW198405   8.837   3.629   1.879
98836SOL    HW298406   8.846   3.584   2.023
98837SOL     OW98407   5.793   2.065   9.391
98837SOL    HW198408   5.830   2.064   9.479
98837SOL    HW298409   5.807   2.154   9.360
98838SOL     OW98410  10.511   3.078  12.930
98838SOL    HW198411  10.482   3.096  13.020
98838SOL    HW298412  10.445   3.121  12.875
98839SOL     OW98413  11.612   0.293  12.292
98839SOL    HW198414  11.585   0.378  12.255
98839SOL    HW298415  11.557   0.229  12.247
98840SOL     OW98416   1.325   3.566   7.472
98840SOL    HW198417   1.360   3.579   7.383
98840SOL    HW298418   1.277   3.483   7.468
98841SOL     OW98419   4.523   0.201   3.839
98841SOL    HW198420   4.487   0.157   3.916
98841SOL    HW298421   4.458   0.268   3.816
98842SOL     OW98422   7.146  10.912   5.247
98842SOL    HW198423   7.113  10.841   5.192
98842SOL    HW298424   7.132  10.992   5.196
98843SOL     OW98425   9.508   2.399  11.072
98843SOL    HW198426   9.474   2.455  11.141
98843SOL    HW298427   9.537   2.459  11.004
98844SOL     OW98428   3.025   7.224   0.148
98844SOL    HW198429   3.082   7.217   0.071
98844SOL    HW298430   2.995   7.315   0.147
98845SOL     OW98431   0.356   4.606  12.599
98845SOL    HW198432   0.386   4.684  12.553
98845SOL    HW298433   0.284   4.636  12.654
98846SOL     OW98434   5.885  12.563  13.544
98846SOL    HW198435   5.881  12.569  13.639
98846SOL    HW298436   5.871  12.470  13.525
98847SOL     OW98437   6.657   3.959   6.166
98847SOL    HW198438   6.626   3.974   6.077
98847SOL    HW298439   6.583   3.982   6.222
98848SOL     OW98440   1.689   5.280  13.053
98848SOL    HW198441   1.754   5.210  13.048
98848SOL    HW298442   1.607   5.236  13.075
98849SOL     OW98443   3.103   9.140  11.312
98849SOL    HW198444   3.184   9.090  11.322
98849SOL    HW298445   3.049   9.087  11.253
98850SOL     OW98446   9.748  13.195  10.338
98850SOL    HW198447   9.671  13.191  10.282
98850SOL    HW298448   9.717  13.239  10.418
98851SOL     OW98449   1.603  13.167  13.689
98851SOL    HW198450   1.587  13.105  13.760
98851SOL    HW298451   1.630  13.248  13.732
98852SOL     OW98452   0.436  12.888  14.436
98852SOL    HW198453   0.438  12.933  14.521
98852SOL    HW298454   0.518  12.912  14.394
98853SOL     OW98455   4.046   1.004   5.670
98853SOL    HW198456   3.963   0.955   5.665
98853SOL    HW298457   4.059   1.021   5.763
98854SOL     OW98458   1.809  14.102   3.474
98854SOL    HW198459   1.783  14.134   3.387
98854SOL    HW298460   1.902  14.084   3.466
98855SOL     OW98461   3.509   8.706   2.795
98855SOL    HW198462   3.466   8.660   2.723
98855SOL    HW298463   3.555   8.637   2.844
98856SOL     OW98464   3.619   7.362  12.052
98856SOL    HW198465   3.713   7.375  12.045
98856SOL    HW298466   3.581   7.443  12.017
98857SOL     OW98467   4.685   6.554  10.531
98857SOL    HW198468   4.685   6.458  10.536
98857SOL    HW298469   4.593   6.578  10.522
98858SOL     OW98470   8.592   4.767   9.585
98858SOL    HW198471   8.604   4.845   9.640
98858SOL    HW298472   8.510   4.783   9.539
98859SOL     OW98473  13.230   4.800   9.605
98859SOL    HW198474  13.207   4.884   9.566
98859SOL    HW298475  13.200   4.735   9.542
98860SOL     OW98476   5.445   4.217   8.102
98860SOL    HW198477   5.430   4.167   8.022
98860SOL    HW298478   5.520   4.273   8.081
98861SOL     OW98479   8.585   4.899  11.763
98861SOL    HW198480   8.559   4.886  11.855
98861SOL    HW298481   8.503   4.890  11.714
98862SOL     OW98482   1.340  10.664   5.634
98862SOL    HW198483   1.364  10.633   5.721
98862SOL    HW298484   1.352  10.588   5.577
98863SOL     OW98485   6.902   8.295   2.360
98863SOL    HW198486   6.841   8.320   2.291
98863SOL    HW298487   6.971   8.246   2.315
98864SOL     OW98488  11.292  14.474  10.097
98864SOL    HW198489  11.221  14.460  10.159
98864SOL    HW298490  11.262  14.546  10.041
98865SOL     OW98491  10.500  11.959  11.104
98865SOL    HW198492  10.461  11.908  11.032
98865SOL    HW298493  10.465  12.048  11.091
98866SOL     OW98494  14.068   0.987  10.121
98866SOL    HW198495  14.019   0.941  10.053
98866SOL    HW298496  14.000   1.022  10.180
98867SOL     OW98497   2.263   3.513   1.178
98867SOL    HW198498   2.355   3.535   1.194
98867SOL    HW298499   2.236   3.573   1.108
98868SOL     OW98500   5.175  12.597   4.378
98868SOL    HW198501   5.177  12.565   4.288
98868SOL    HW298502   5.257  12.565   4.417
98869SOL     OW98503   2.043   6.601  13.983
98869SOL    HW198504   2.076   6.526  14.031
98869SOL    HW298505   1.999   6.655  14.050
98870SOL     OW98506   5.282   8.416  11.393
98870SOL    HW198507   5.320   8.404  11.480
98870SOL    HW298508   5.232   8.498  11.400
98871SOL     OW98509   2.692  13.593   3.852
98871SOL    HW198510   2.769  13.567   3.902
98871SOL    HW298511   2.656  13.512   3.817
98872SOL     OW98512   3.551   8.934  13.737
98872SOL    HW198513   3.584   8.851  13.704
98872SOL    HW298514   3.592   8.944  13.823
98873SOL     OW98515   4.105  11.440  13.726
98873SOL    HW198516   4.022  11.470  13.687
98873SOL    HW298517   4.165  11.434  13.652
98874SOL     OW98518  12.892   4.536   1.008
98874SOL    HW198519  12.841   4.611   0.980
98874SOL    HW298520  12.843   4.500   1.082
98875SOL     OW98521   5.177   0.466  14.622
98875SOL    HW198522   5.217   0.537  14.571
98875SOL    HW298523   5.246   0.440  14.683
98876SOL     OW98524  10.040   2.189   5.823
98876SOL    HW198525  10.033   2.284   5.819
98876SOL    HW298526  10.066   2.171   5.913
98877SOL     OW98527   4.562  14.299  13.082
98877SOL    HW198528   4.549  14.212  13.119
98877SOL    HW298529   4.637  14.289  13.022
98878SOL     OW98530   6.470   3.523  13.968
98878SOL    HW198531   6.560   3.553  13.983
98878SOL    HW298532   6.452   3.467  14.044
98879SOL     OW98533   3.375   8.409   5.696
98879SOL    HW198534   3.431   8.486   5.700
98879SOL    HW298535   3.355   8.390   5.788
98880SOL     OW98536   5.052   1.357  13.471
98880SOL    HW198537   5.048   1.334  13.378
98880SOL    HW298538   4.962   1.378  13.495
98881SOL     OW98539   6.201  13.754   4.527
98881SOL    HW198540   6.169  13.774   4.440
98881SOL    HW298541   6.145  13.683   4.559
98882SOL     OW98542   0.256  12.883   1.670
98882SOL    HW198543   0.188  12.854   1.610
98882SOL    HW298544   0.329  12.907   1.613
98883SOL     OW98545   8.783   9.622   7.305
98883SOL    HW198546   8.751   9.662   7.386
98883SOL    HW298547   8.757   9.530   7.313
98884SOL     OW98548   2.861   5.458   6.736
98884SOL    HW198549   2.794   5.396   6.706
98884SOL    HW298550   2.927   5.457   6.667
98885SOL     OW98551   7.398  14.342   1.051
98885SOL    HW198552   7.420  14.285   1.125
98885SOL    HW298553   7.418  14.430   1.082
98886SOL     OW98554  10.628  11.547   8.500
98886SOL    HW198555  10.697  11.614   8.497
98886SOL    HW298556  10.588  11.558   8.586
98887SOL     OW98557  11.104  12.433   0.709
98887SOL    HW198558  11.026  12.440   0.765
98887SOL    HW298559  11.139  12.346   0.729
98888SOL     OW98560   6.856  12.879  11.517
98888SOL    HW198561   6.798  12.804  11.514
98888SOL    HW298562   6.932  12.853  11.464
98889SOL     OW98563  12.431  14.264   3.878
98889SOL    HW198564  12.454  14.318   3.953
98889SOL    HW298565  12.487  14.296   3.807
98890SOL     OW98566  14.304   4.071   4.798
98890SOL    HW198567  14.286   4.024   4.879
98890SOL    HW298568  14.287   4.007   4.729
98891SOL     OW98569   7.671   1.446   7.301
98891SOL    HW198570   7.697   1.532   7.268
98891SOL    HW298571   7.656   1.459   7.395
98892SOL     OW98572   3.037   9.464   5.532
98892SOL    HW198573   2.955   9.414   5.534
98892SOL    HW298574   3.011   9.551   5.499
98893SOL     OW98575   8.922   0.442  13.742
98893SOL    HW198576   8.849   0.382  13.756
98893SOL    HW298577   8.954   0.422  13.654
98894SOL     OW98578   5.507   4.581  14.538
98894SOL    HW198579   5.548   4.577  14.451
98894SOL    HW298580   5.581   4.584  14.599
98895SOL     OW98581   7.824   3.771   5.463
98895SOL    HW198582   7.766   3.821   5.406
98895SOL    HW298583   7.852   3.834   5.529
98896SOL     OW98584  12.339   4.300  10.394
98896SOL    HW198585  12.341   4.328  10.303
98896SOL    HW298586  12.431   4.292  10.419
98897SOL     OW98587  11.770  11.661   7.557
98897SOL    HW198588  11.793  11.733   7.617
98897SOL    HW298589  11.843  11.600   7.562
98898SOL     OW98590   1.935   7.937   0.111
98898SOL    HW198591   2.010   7.966   0.059
98898SOL    HW298592   1.935   7.996   0.187
98899SOL     OW98593   7.425  12.731   9.057
98899SOL    HW198594   7.514  12.715   9.025
98899SOL    HW298595   7.434  12.732   9.153
98900SOL     OW98596   5.377   2.901   2.926
98900SOL    HW198597   5.438   2.936   2.862
98900SOL    HW298598   5.428   2.892   3.006
98901SOL     OW98599   7.566   8.230  11.651
98901SOL    HW198600   7.569   8.215  11.746
98901SOL    HW298601   7.474   8.251  11.633
98902SOL     OW98602   2.011  13.224   5.261
98902SOL    HW198603   1.921  13.201   5.239
98902SOL    HW298604   2.009  13.319   5.277
98903SOL     OW98605  12.640  13.176  14.564
98903SOL    HW198606  12.603  13.239  14.502
98903SOL    HW298607  12.676  13.106  14.509
98904SOL     OW98608   1.595  10.612   5.069
98904SOL    HW198609   1.519  10.611   5.011
98904SOL    HW298610   1.602  10.522   5.101
98905SOL     OW98611  10.781   3.087   7.942
98905SOL    HW198612  10.827   3.124   7.866
98905SOL    HW298613  10.756   3.163   7.994
98906SOL     OW98614   8.349  10.614  11.311
98906SOL    HW198615   8.311  10.538  11.268
98906SOL    HW298616   8.345  10.684  11.246
98907SOL     OW98617   1.039  10.192   8.529
98907SOL    HW198618   1.079  10.184   8.615
98907SOL    HW298619   0.957  10.238   8.544
98908SOL     OW98620  14.829  14.074   3.144
98908SOL    HW198621   0.003  14.147   3.104
98908SOL    HW298622  14.739  14.079   3.111
98909SOL     OW98623   6.820   6.451  11.863
98909SOL    HW198624   6.815   6.485  11.774
98909SOL    HW298625   6.908   6.412  11.868
98910SOL     OW98626  14.098   0.968   7.074
98910SOL    HW198627  14.156   0.961   7.150
98910SOL    HW298628  14.018   0.923   7.102
98911SOL     OW98629   4.996   7.926  12.546
98911SOL    HW198630   5.035   7.915  12.459
98911SOL    HW298631   5.043   7.865  12.602
98912SOL     OW98632   7.683   8.830   8.198
98912SOL    HW198633   7.627   8.861   8.269
98912SOL    HW298634   7.688   8.736   8.210
98913SOL     OW98635   2.752   8.734  11.755
98913SOL    HW198636   2.751   8.780  11.839
98913SOL    HW298637   2.751   8.804  11.690
98914SOL     OW98638   5.118  10.646   3.208
98914SOL    HW198639   5.149  10.737   3.214
98914SOL    HW298640   5.063  10.634   3.285
98915SOL     OW98641  12.925   9.755   2.246
98915SOL    HW198642  12.862   9.796   2.306
98915SOL    HW298643  12.997   9.727   2.303
98916SOL     OW98644  11.744   1.804   2.656
98916SOL    HW198645  11.757   1.774   2.566
98916SOL    HW298646  11.652   1.784   2.674
98917SOL     OW98647  10.414  11.174   4.273
98917SOL    HW198648  10.372  11.196   4.190
98917SOL    HW298649  10.363  11.100   4.307
98918SOL     OW98650   8.834  13.923  12.294
98918SOL    HW198651   8.863  13.986  12.227
98918SOL    HW298652   8.764  13.874  12.251
98919SOL     OW98653  11.605  13.308   8.379
98919SOL    HW198654  11.647  13.232   8.341
98919SOL    HW298655  11.673  13.376   8.379
98920SOL     OW98656  12.752  14.227  14.150
98920SOL    HW198657  12.776  14.238  14.242
98920SOL    HW298658  12.788  14.304  14.107
98921SOL     OW98659  12.303  11.820  14.358
98921SOL    HW198660  12.313  11.725  14.350
98921SOL    HW298661  12.329  11.839  14.448
98922SOL     OW98662  14.091  10.655   3.902
98922SOL    HW198663  14.112  10.561   3.907
98922SOL    HW298664  14.094  10.684   3.993
98923SOL     OW98665   2.836   5.234   1.984
98923SOL    HW198666   2.772   5.170   2.012
98923SOL    HW298667   2.880   5.261   2.065
98924SOL     OW98668   8.317   4.683   5.381
98924SOL    HW198669   8.223   4.697   5.390
98924SOL    HW298670   8.327   4.635   5.298
98925SOL     OW98671  12.549  12.201   1.855
98925SOL    HW198672  12.597  12.145   1.794
98925SOL    HW298673  12.475  12.148   1.882
98926SOL     OW98674   5.489  11.405  11.571
98926SOL    HW198675   5.563  11.416  11.631
98926SOL    HW298676   5.460  11.315  11.585
98927SOL     OW98677   4.301   8.093  11.131
98927SOL    HW198678   4.230   8.133  11.181
98927SOL    HW298679   4.284   7.999  11.137
98928SOL     OW98680   1.552   1.268  10.289
98928SOL    HW198681   1.632   1.300  10.331
98928SOL    HW298682   1.482   1.309  10.338
98929SOL     OW98683  14.564   2.057   3.398
98929SOL    HW198684  14.527   2.126   3.344
98929SOL    HW298685  14.493   1.994   3.409
98930SOL     OW98686   9.683   3.526   0.559
98930SOL    HW198687   9.752   3.498   0.619
98930SOL    HW298688   9.720   3.602   0.513
98931SOL     OW98689   7.965  10.839   9.444
98931SOL    HW198690   8.001  10.832   9.355
98931SOL    HW298691   8.019  10.780   9.496
98932SOL     OW98692  14.677   4.653  13.450
98932SOL    HW198693  14.679   4.582  13.385
98932SOL    HW298694  14.628   4.723  13.406
98933SOL     OW98695  11.358  14.175   4.317
98933SOL    HW198696  11.277  14.124   4.315
98933SOL    HW298697  11.356  14.221   4.401
98934SOL     OW98698   0.559   4.918   4.137
98934SOL    HW198699   0.468   4.944   4.146
98934SOL    HW298700   0.604   4.964   4.208
98935SOL     OW98701   8.715   5.980   5.511
98935SOL    HW198702   8.633   6.029   5.518
98935SOL    HW298703   8.715   5.922   5.587
98936SOL     OW98704  14.728  13.722  14.607
98936SOL    HW198705  14.688  13.792  14.658
98936SOL    HW298706  14.810  13.759  14.575
98937SOL     OW98707   2.335   4.451  12.641
98937SOL    HW198708   2.377   4.499  12.712
98937SOL    HW298709   2.328   4.515  12.569
98938SOL     OW98710  14.758   2.867   4.013
98938SOL    HW198711  14.732   2.860   4.105
98938SOL    HW298712  14.692   2.817   3.965
98939SOL     OW98713   3.362  13.613   8.660
98939SOL    HW198714   3.313  13.531   8.669
98939SOL    HW298715   3.301  13.681   8.689
98940SOL     OW98716   2.394   7.962   4.002
98940SOL    HW198717   2.321   8.010   3.964
98940SOL    HW298718   2.365   7.871   4.001
98941SOL     OW98719   3.680   0.241   6.715
98941SOL    HW198720   3.688   0.333   6.690
98941SOL    HW298721   3.601   0.238   6.768
98942SOL     OW98722   1.171   4.203  13.675
98942SOL    HW198723   1.166   4.108  13.677
98942SOL    HW298724   1.262   4.224  13.695
98943SOL     OW98725   5.800   6.358   3.207
98943SOL    HW198726   5.856   6.283   3.188
98943SOL    HW298727   5.798   6.362   3.303
98944SOL     OW98728   0.958   1.246   0.009
98944SOL    HW198729   0.876   1.287   0.037
98944SOL    HW298730   0.970   1.274  14.790
98945SOL     OW98731   3.947  14.445   7.805
98945SOL    HW198732   3.857  14.413   7.811
98945SOL    HW298733   4.001  14.371   7.832
98946SOL     OW98734  14.456   7.573   3.612
98946SOL    HW198735  14.495   7.507   3.668
98946SOL    HW298736  14.516   7.581   3.538
98947SOL     OW98737   1.813  10.034  11.083
98947SOL    HW198738   1.828  10.093  11.157
98947SOL    HW298739   1.893   9.981  11.079
98948SOL     OW98740  11.066   2.426   2.631
98948SOL    HW198741  10.971   2.419   2.639
98948SOL    HW298742  11.080   2.464   2.544
98949SOL     OW98743  12.752   2.388   1.986
98949SOL    HW198744  12.773   2.469   2.031
98949SOL    HW298745  12.657   2.392   1.972
98950SOL     OW98746   2.560  13.582   5.579
98950SOL    HW198747   2.492  13.613   5.519
98950SOL    HW298748   2.624  13.540   5.523
98951SOL     OW98749   4.482   8.908   3.861
98951SOL    HW198750   4.473   8.900   3.956
98951SOL    HW298751   4.400   8.871   3.827
98952SOL     OW98752   0.523   8.896   4.610
98952SOL    HW198753   0.577   8.975   4.610
98952SOL    HW298754   0.504   8.879   4.702
98953SOL     OW98755  14.389  14.372  14.796
98953SOL    HW198756  14.414  14.446  14.740
98953SOL    HW298757  14.467  14.316  14.796
98954SOL     OW98758   6.179  14.733   3.201
98954SOL    HW198759   6.269  14.767   3.197
98954SOL    HW298760   6.129  14.803   3.242
98955SOL     OW98761   8.529  10.864  14.164
98955SOL    HW198762   8.606  10.846  14.110
98955SOL    HW298763   8.473  10.918  14.107
98956SOL     OW98764   7.346   2.063  10.008
98956SOL    HW198765   7.441   2.051  10.003
98956SOL    HW298766   7.324   2.116   9.931
98957SOL     OW98767  13.593  13.026   9.552
98957SOL    HW198768  13.617  12.934   9.553
98957SOL    HW298769  13.503  13.028   9.585
98958SOL     OW98770   9.121  10.528   0.048
98958SOL    HW198771   9.072  10.472  14.859
98958SOL    HW298772   9.208  10.489   0.052
98959SOL     OW98773   0.786   7.308   1.911
98959SOL    HW198774   0.755   7.230   1.958
98959SOL    HW298775   0.707   7.360   1.897
98960SOL     OW98776   6.572   2.976  10.306
98960SOL    HW198777   6.600   2.956  10.217
98960SOL    HW298778   6.586   3.070  10.315
98961SOL     OW98779   2.371   3.218   1.851
98961SOL    HW198780   2.376   3.263   1.936
98961SOL    HW298781   2.454   3.172   1.844
98962SOL     OW98782  13.625  12.344  11.508
98962SOL    HW198783  13.621  12.412  11.441
98962SOL    HW298784  13.699  12.289  11.481
98963SOL     OW98785  11.468   1.150  10.819
98963SOL    HW198786  11.412   1.080  10.786
98963SOL    HW298787  11.437   1.166  10.908
98964SOL     OW98788  13.905   9.836  13.486
98964SOL    HW198789  13.938   9.747  13.483
98964SOL    HW298790  13.904   9.858  13.579
98965SOL     OW98791   5.248   0.001   2.138
98965SOL    HW198792   5.256  14.843   2.229
98965SOL    HW298793   5.304  14.813   2.088
98966SOL     OW98794   2.836   5.278   7.289
98966SOL    HW198795   2.741   5.262   7.286
98966SOL    HW298796   2.872   5.217   7.225
98967SOL     OW98797   5.533   2.355  11.750
98967SOL    HW198798   5.487   2.428  11.791
98967SOL    HW298799   5.544   2.382  11.659
98968SOL     OW98800   1.503   0.769  11.530
98968SOL    HW198801   1.553   0.849  11.514
98968SOL    HW298802   1.440   0.766  11.458
98969SOL     OW98803   9.317   4.189   0.790
98969SOL    HW198804   9.295   4.160   0.701
98969SOL    HW298805   9.365   4.114   0.827
98970SOL     OW98806   8.810  13.877   9.917
98970SOL    HW198807   8.801  13.939   9.844
98970SOL    HW298808   8.896  13.895   9.953
98971SOL     OW98809  13.387   9.124   8.316
98971SOL    HW198810  13.436   9.046   8.342
98971SOL    HW298811  13.329   9.142   8.390
98972SOL     OW98812   7.882  14.225  13.849
98972SOL    HW198813   7.942  14.239  13.922
98972SOL    HW298814   7.836  14.144  13.871
98973SOL     OW98815   1.647   6.138   2.708
98973SOL    HW198816   1.597   6.057   2.701
98973SOL    HW298817   1.738   6.112   2.688
98974SOL     OW98818  10.935   9.288   4.286
98974SOL    HW198819  10.996   9.336   4.342
98974SOL    HW298820  10.907   9.214   4.339
98975SOL     OW98821   2.094   2.369   9.154
98975SOL    HW198822   2.151   2.292   9.163
98975SOL    HW298823   2.139   2.438   9.202
98976SOL     OW98824  10.802   1.061  10.856
98976SOL    HW198825  10.771   1.112  10.781
98976SOL    HW298826  10.777   0.971  10.836
98977SOL     OW98827   7.059  13.211  14.462
98977SOL    HW198828   6.994  13.237  14.396
98977SOL    HW298829   7.116  13.287  14.471
98978SOL     OW98830  14.535   1.703  11.553
98978SOL    HW198831  14.491   1.678  11.634
98978SOL    HW298832  14.463   1.730  11.495
98979SOL     OW98833  10.664   7.306   0.037
98979SOL    HW198834  10.675   7.401   0.028
98979SOL    HW298835  10.597   7.296   0.105
98980SOL     OW98836  13.859   1.136  12.483
98980SOL    HW198837  13.929   1.201  12.477
98980SOL    HW298838  13.904   1.055  12.507
98981SOL     OW98839  11.492   1.900   0.187
98981SOL    HW198840  11.404   1.877   0.157
98981SOL    HW298841  11.494   1.996   0.186
98982SOL     OW98842   0.484  10.999  14.786
98982SOL    HW198843   0.486  10.904  14.791
98982SOL    HW298844   0.482  11.018  14.692
98983SOL     OW98845   0.392  11.397   2.414
98983SOL    HW198846   0.443  11.426   2.490
98983SOL    HW298847   0.354  11.477   2.379
98984SOL     OW98848   3.861   1.839   9.056
98984SOL    HW198849   3.877   1.840   9.150
98984SOL    HW298850   3.949   1.840   9.017
98985SOL     OW98851   5.060  14.680   8.747
98985SOL    HW198852   5.039  14.756   8.802
98985SOL    HW298853   5.108  14.621   8.806
98986SOL     OW98854   9.988  11.847  13.476
98986SOL    HW198855   9.930  11.904  13.526
98986SOL    HW298856   9.929  11.803  13.414
98987SOL     OW98857   9.881   8.184  13.415
98987SOL    HW198858   9.934   8.255  13.451
98987SOL    HW298859   9.823   8.227  13.352
98988SOL     OW98860   4.092  10.531   3.084
98988SOL    HW198861   4.107  10.559   3.175
98988SOL    HW298862   4.045  10.448   3.092
98989SOL     OW98863  14.855  10.316   2.164
98989SOL    HW198864   0.049  10.306   2.095
98989SOL    HW298865  14.796  10.242   2.151
98990SOL     OW98866  13.814  12.733  10.141
98990SOL    HW198867  13.788  12.700  10.227
98990SOL    HW298868  13.790  12.663  10.080
98991SOL     OW98869   8.821   0.065  11.507
98991SOL    HW198870   8.835   0.080  11.414
98991SOL    HW298871   8.860   0.141  11.550
98992SOL     OW98872  13.996  14.856   0.783
98992SOL    HW198873  14.040  14.774   0.760
98992SOL    HW298874  13.929  14.831   0.846
98993SOL     OW98875   8.409   2.739   9.171
98993SOL    HW198876   8.465   2.816   9.162
98993SOL    HW298877   8.404   2.702   9.083
98994SOL     OW98878  11.995   3.082   6.782
98994SOL    HW198879  12.049   3.151   6.743
98994SOL    HW298880  11.912   3.125   6.801
98995SOL     OW98881   2.581  12.551   2.322
98995SOL    HW198882   2.644  12.491   2.282
98995SOL    HW298883   2.542  12.501   2.393
98996SOL     OW98884   5.706   5.875  11.321
98996SOL    HW198885   5.729   5.811  11.254
98996SOL    HW298886   5.620   5.848  11.352
98997SOL     OW98887   4.413   4.630   3.546
98997SOL    HW198888   4.454   4.641   3.631
98997SOL    HW298889   4.479   4.661   3.483
98998SOL     OW98890  11.330   5.164  11.776
98998SOL    HW198891  11.371   5.232  11.829
98998SOL    HW298892  11.261   5.128  11.831
98999SOL     OW98893   2.646  10.822   9.502
98999SOL    HW198894   2.555  10.795   9.516
98999SOL    HW298895   2.652  10.909   9.542
99000SOL     OW98896   1.891   7.063   4.066
99000SOL    HW198897   1.944   7.099   4.137
99000SOL    HW298898   1.869   7.138   4.011
99001SOL     OW98899   4.115   3.976   3.753
99001SOL    HW198900   4.191   3.921   3.739
99001SOL    HW298901   4.065   3.931   3.821
99002SOL     OW98902  13.539   2.931   0.123
99002SOL    HW198903  13.519   2.865   0.190
99002SOL    HW298904  13.618   2.898   0.080
99003SOL     OW98905   9.840  13.931  11.200
99003SOL    HW198906   9.799  13.877  11.267
99003SOL    HW298907   9.766  13.967  11.149
99004SOL     OW98908   8.624   6.635   2.163
99004SOL    HW198909   8.680   6.558   2.155
99004SOL    HW298910   8.607   6.662   2.073
99005SOL     OW98911  10.877   4.134   9.549
99005SOL    HW198912  10.860   4.044   9.575
99005SOL    HW298913  10.792   4.178   9.557
99006SOL     OW98914  10.219   9.677   5.820
99006SOL    HW198915  10.228   9.754   5.876
99006SOL    HW298916  10.132   9.642   5.840
99007SOL     OW98917  14.666   5.688  10.430
99007SOL    HW198918  14.640   5.602  10.462
99007SOL    HW298919  14.653   5.746  10.506
99008SOL     OW98920   6.633   5.252   7.595
99008SOL    HW198921   6.673   5.253   7.682
99008SOL    HW298922   6.690   5.195   7.543
99009SOL     OW98923   7.453   5.228   8.250
99009SOL    HW198924   7.436   5.134   8.258
99009SOL    HW298925   7.440   5.262   8.339
99010SOL     OW98926   4.765   7.150   4.595
99010SOL    HW198927   4.860   7.156   4.601
99010SOL    HW298928   4.744   7.061   4.622
99011SOL     OW98929   5.426  12.524   6.593
99011SOL    HW198930   5.370  12.564   6.526
99011SOL    HW298931   5.426  12.586   6.665
99012SOL     OW98932   5.600   9.356  13.699
99012SOL    HW198933   5.543   9.280  13.707
99012SOL    HW298934   5.588   9.386  13.609
99013SOL     OW98935   3.101   1.109   5.666
99013SOL    HW198936   3.116   1.093   5.573
99013SOL    HW298937   3.009   1.087   5.680
99014SOL     OW98938   9.908  12.955  11.515
99014SOL    HW198939   9.918  12.940  11.609
99014SOL    HW298940   9.838  13.020  11.508
99015SOL     OW98941  14.312   3.897   9.842
99015SOL    HW198942  14.399   3.904   9.881
99015SOL    HW298943  14.328   3.886   9.748
99016SOL     OW98944   9.003   9.587   7.685
99016SOL    HW198945   9.053   9.666   7.705
99016SOL    HW298946   8.916   9.604   7.722
99017SOL     OW98947   7.231   1.664  13.024
99017SOL    HW198948   7.190   1.590  12.979
99017SOL    HW298949   7.273   1.714  12.955
99018SOL     OW98950   2.956   9.872   5.762
99018SOL    HW198951   3.005   9.887   5.681
99018SOL    HW298952   2.978   9.948   5.817
99019SOL     OW98953   2.954  14.240   5.888
99019SOL    HW198954   2.987  14.168   5.941
99019SOL    HW298955   2.969  14.318   5.941
99020SOL     OW98956   4.300   7.026   8.952
99020SOL    HW198957   4.376   7.009   9.008
99020SOL    HW298958   4.334   7.079   8.880
99021SOL     OW98959   9.982  11.157  13.528
99021SOL    HW198960  10.012  11.069  13.551
99021SOL    HW298961  10.023  11.174  13.443
99022SOL     OW98962  12.500  10.571   3.191
99022SOL    HW198963  12.479  10.517   3.115
99022SOL    HW298964  12.483  10.661   3.161
99023SOL     OW98965   4.090  12.540  10.532
99023SOL    HW198966   4.136  12.558  10.450
99023SOL    HW298967   4.116  12.450  10.555
99024SOL     OW98968   3.473   8.364   5.019
99024SOL    HW198969   3.493   8.272   5.038
99024SOL    HW298970   3.472   8.406   5.105
99025SOL     OW98971  12.939   3.184   5.822
99025SOL    HW198972  12.989   3.266   5.818
99025SOL    HW298973  12.914   3.175   5.914
99026SOL     OW98974  11.311   5.399   4.126
99026SOL    HW198975  11.359   5.436   4.052
99026SOL    HW298976  11.380   5.371   4.187
99027SOL     OW98977  13.143   2.999   9.620
99027SOL    HW198978  13.152   3.067   9.687
99027SOL    HW298979  13.208   3.022   9.554
99028SOL     OW98980  12.076  11.827   0.061
99028SOL    HW198981  12.027  11.896   0.016
99028SOL    HW298982  12.050  11.833   0.152
99029SOL     OW98983   4.854   8.780   7.056
99029SOL    HW198984   4.849   8.794   6.961
99029SOL    HW298985   4.776   8.823   7.091
99030SOL     OW98986   3.097   0.463   6.562
99030SOL    HW198987   3.057   0.493   6.644
99030SOL    HW298988   3.032   0.404   6.524
99031SOL     OW98989   1.598  11.613   5.007
99031SOL    HW198990   1.638  11.597   4.921
99031SOL    HW298991   1.596  11.527   5.049
99032SOL     OW98992   0.682   7.183  13.913
99032SOL    HW198993   0.635   7.128  13.850
99032SOL    HW298994   0.614   7.238  13.952
99033SOL     OW98995   4.501   5.195  12.160
99033SOL    HW198996   4.591   5.180  12.187
99033SOL    HW298997   4.448   5.160  12.231
99034SOL     OW98998   7.378  11.741   5.722
99034SOL    HW198999   7.382  11.803   5.794
99034SOL    HW299000   7.288  11.708   5.722
99035SOL     OW99001  13.807  13.426  12.177
99035SOL    HW199002  13.760  13.509  12.188
99035SOL    HW299003  13.803  13.384  12.263
99036SOL     OW99004  12.650  10.782   0.167
99036SOL    HW199005  12.674  10.875   0.166
99036SOL    HW299006  12.698  10.744   0.093
99037SOL     OW99007   5.995  12.606   3.905
99037SOL    HW199008   5.915  12.628   3.856
99037SOL    HW299009   5.972  12.527   3.953
99038SOL     OW99010   2.625  10.515   9.822
99038SOL    HW199011   2.624  10.468   9.906
99038SOL    HW299012   2.675  10.595   9.840
99039SOL     OW99013   1.143   6.598   8.803
99039SOL    HW199014   1.184   6.609   8.718
99039SOL    HW299015   1.214   6.573   8.862
99040SOL     OW99016  11.121  14.088   5.831
99040SOL    HW199017  11.179  14.028   5.782
99040SOL    HW299018  11.094  14.153   5.767
99041SOL     OW99019  11.808   8.287   7.671
99041SOL    HW199020  11.870   8.240   7.615
99041SOL    HW299021  11.814   8.378   7.642
99042SOL     OW99022   5.468   0.423  12.339
99042SOL    HW199023   5.411   0.360  12.382
99042SOL    HW299024   5.521   0.371  12.279
99043SOL     OW99025   6.435   7.081   4.227
99043SOL    HW199026   6.374   7.010   4.207
99043SOL    HW299027   6.509   7.065   4.169
99044SOL     OW99028   7.599   6.425   3.361
99044SOL    HW199029   7.640   6.359   3.417
99044SOL    HW299030   7.668   6.490   3.346
99045SOL     OW99031  13.990   9.841   0.678
99045SOL    HW199032  13.976   9.887   0.760
99045SOL    HW299033  14.066   9.785   0.694
99046SOL     OW99034  14.296  13.973   3.751
99046SOL    HW199035  14.201  13.986   3.759
99046SOL    HW299036  14.332  14.062   3.748
99047SOL     OW99037  11.797   0.947   6.095
99047SOL    HW199038  11.783   0.887   6.022
99047SOL    HW299039  11.729   0.925   6.159
99048SOL     OW99040  10.505   7.324   5.331
99048SOL    HW199041  10.430   7.304   5.387
99048SOL    HW299042  10.560   7.381   5.385
99049SOL     OW99043  10.697  13.879  13.735
99049SOL    HW199044  10.638  13.953  13.720
99049SOL    HW299045  10.767  13.890  13.672
99050SOL     OW99046  10.817   1.816   2.541
99050SOL    HW199047  10.823   1.752   2.471
99050SOL    HW299048  10.725   1.844   2.541
99051SOL     OW99049   9.742   9.765   4.392
99051SOL    HW199050   9.796   9.756   4.313
99051SOL    HW299051   9.752   9.857   4.417
99052SOL     OW99052   2.611   5.906  11.724
99052SOL    HW199053   2.657   5.935  11.803
99052SOL    HW299054   2.600   5.985  11.672
99053SOL     OW99055  11.608   0.475   9.294
99053SOL    HW199056  11.628   0.529   9.218
99053SOL    HW299057  11.659   0.395   9.282
99054SOL     OW99058   8.341  11.439   9.420
99054SOL    HW199059   8.325  11.456   9.513
99054SOL    HW299060   8.426  11.397   9.418
99055SOL     OW99061   0.214  12.453   0.711
99055SOL    HW199062   0.181  12.437   0.623
99055SOL    HW299063   0.293  12.507   0.698
99056SOL     OW99064   0.264  12.013   7.789
99056SOL    HW199065   0.269  12.014   7.884
99056SOL    HW299066   0.224  11.928   7.768
99057SOL     OW99067  10.941   4.180  11.968
99057SOL    HW199068  11.004   4.203  12.036
99057SOL    HW299069  10.879   4.121  12.011
99058SOL     OW99070   0.149   5.789   9.748
99058SOL    HW199071   0.121   5.847   9.677
99058SOL    HW299072   0.135   5.840   9.828
99059SOL     OW99073   9.203   3.483   8.729
99059SOL    HW199074   9.238   3.565   8.693
99059SOL    HW299075   9.258   3.415   8.692
99060SOL     OW99076   4.560  14.679   2.399
99060SOL    HW199077   4.645  14.635   2.402
99060SOL    HW299078   4.513  14.646   2.475
99061SOL     OW99079   7.910   6.028   8.920
99061SOL    HW199080   7.966   6.053   8.847
99061SOL    HW299081   7.851   6.102   8.931
99062SOL     OW99082   4.251   0.188   0.022
99062SOL    HW199083   4.267   0.243  14.817
99062SOL    HW299084   4.339   0.166   0.054
99063SOL     OW99085   5.846   5.711   1.729
99063SOL    HW199086   5.796   5.710   1.810
99063SOL    HW299087   5.913   5.778   1.743
99064SOL     OW99088   2.799   1.747   0.795
99064SOL    HW199089   2.839   1.760   0.882
99064SOL    HW299090   2.706   1.739   0.813
99065SOL     OW99091  13.666  12.151   2.997
99065SOL    HW199092  13.571  12.148   2.987
99065SOL    HW299093  13.690  12.061   3.021
99066SOL     OW99094   9.016   8.289   8.007
99066SOL    HW199095   9.103   8.260   8.034
99066SOL    HW299096   9.027   8.318   7.917
99067SOL     OW99097  14.226   9.648  11.339
99067SOL    HW199098  14.273   9.729  11.358
99067SOL    HW299099  14.148   9.676  11.291
99068SOL     OW99100   9.613   1.266  14.848
99068SOL    HW199101   9.671   1.309   0.040
99068SOL    HW299102   9.545   1.331  14.830
99069SOL     OW99103  14.489   8.175   9.599
99069SOL    HW199104  14.419   8.112   9.615
99069SOL    HW299105  14.478   8.242   9.667
99070SOL     OW99106   2.668   7.119   0.914
99070SOL    HW199107   2.692   7.153   0.828
99070SOL    HW299108   2.741   7.144   0.972
99071SOL     OW99109  11.974   2.134   8.847
99071SOL    HW199110  11.947   2.219   8.881
99071SOL    HW299111  12.009   2.087   8.923
99072SOL     OW99112   7.573   4.270   2.226
99072SOL    HW199113   7.498   4.300   2.174
99072SOL    HW299114   7.548   4.182   2.255
99073SOL     OW99115  14.818   8.541   8.057
99073SOL    HW199116   0.002   8.587   8.120
99073SOL    HW299117   0.007   8.486   8.008
99074SOL     OW99118   8.815   3.135  13.178
99074SOL    HW199119   8.755   3.076  13.224
99074SOL    HW299120   8.813   3.216  13.229
99075SOL     OW99121  12.698   0.739   7.601
99075SOL    HW199122  12.746   0.656   7.592
99075SOL    HW299123  12.609   0.718   7.572
99076SOL     OW99124   0.235  13.130  14.522
99076SOL    HW199125   0.224  13.174  14.438
99076SOL    HW299126   0.146  13.116  14.555
99077SOL     OW99127   7.367   5.554  12.301
99077SOL    HW199128   7.445   5.513  12.338
99077SOL    HW299129   7.339   5.617  12.367
99078SOL     OW99130   9.782   0.074   3.990
99078SOL    HW199131   9.716   0.130   4.030
99078SOL    HW299132   9.805   0.118   3.908
99079SOL     OW99133  10.118   2.885   6.494
99079SOL    HW199134  10.185   2.940   6.454
99079SOL    HW299135  10.036   2.914   6.453
99080SOL     OW99136   0.019   3.530   2.226
99080SOL    HW199137  14.819   3.518   2.164
99080SOL    HW299138   0.026   3.625   2.236
99081SOL     OW99139   6.253   3.765   0.631
99081SOL    HW199140   6.257   3.860   0.630
99081SOL    HW299141   6.175   3.744   0.681
99082SOL     OW99142   6.513   4.316  11.442
99082SOL    HW199143   6.563   4.383  11.488
99082SOL    HW299144   6.575   4.245  11.426
99083SOL     OW99145  12.043   8.988   9.483
99083SOL    HW199146  12.089   8.905   9.498
99083SOL    HW299147  12.112   9.054   9.480
99084SOL     OW99148   5.630   4.839  11.292
99084SOL    HW199149   5.641   4.750  11.326
99084SOL    HW299150   5.704   4.851  11.232
99085SOL     OW99151   0.487   8.332   1.683
99085SOL    HW199152   0.543   8.305   1.756
99085SOL    HW299153   0.480   8.427   1.692
99086SOL     OW99154   2.492   5.976   3.280
99086SOL    HW199155   2.499   6.039   3.208
99086SOL    HW299156   2.481   6.031   3.358
99087SOL     OW99157   5.437   4.741   5.921
99087SOL    HW199158   5.429   4.745   6.017
99087SOL    HW299159   5.363   4.686   5.894
99088SOL     OW99160   9.671  11.240   7.582
99088SOL    HW199161   9.675  11.216   7.490
99088SOL    HW299162   9.724  11.320   7.588
99089SOL     OW99163  10.813  12.668   5.901
99089SOL    HW199164  10.757  12.590   5.908
99089SOL    HW299165  10.831  12.676   5.808
99090SOL     OW99166  10.110   1.265   8.666
99090SOL    HW199167  10.143   1.176   8.660
99090SOL    HW299168  10.173   1.318   8.618
99091SOL     OW99169   6.343  10.417   5.076
99091SOL    HW199170   6.395  10.351   5.123
99091SOL    HW299171   6.263  10.425   5.128
99092SOL     OW99172   3.898  13.336   5.622
99092SOL    HW199173   3.909  13.257   5.568
99092SOL    HW299174   3.959  13.399   5.583
99093SOL     OW99175   9.619   9.390   7.577
99093SOL    HW199176   9.710   9.407   7.604
99093SOL    HW299177   9.627   9.322   7.510
99094SOL     OW99178  11.696   5.355   8.475
99094SOL    HW199179  11.732   5.444   8.470
99094SOL    HW299180  11.654   5.342   8.389
99095SOL     OW99181  10.473   0.798   6.183
99095SOL    HW199182  10.513   0.764   6.263
99095SOL    HW299183  10.387   0.757   6.180
99096SOL     OW99184  12.182   0.960   1.011
99096SOL    HW199185  12.100   0.914   0.994
99096SOL    HW299186  12.190   1.023   0.939
99097SOL     OW99187   0.475   7.554   5.805
99097SOL    HW199188   0.555   7.517   5.767
99097SOL    HW299189   0.417   7.567   5.731
99098SOL     OW99190   9.382  11.378  11.904
99098SOL    HW199191   9.465  11.356  11.947
99098SOL    HW299192   9.405  11.398  11.814
99099SOL     OW99193   8.502   7.211  13.986
99099SOL    HW199194   8.487   7.127  14.028
99099SOL    HW299195   8.518   7.190  13.894
99100SOL     OW99196   0.305   2.168  13.522
99100SOL    HW199197   0.329   2.164  13.614
99100SOL    HW299198   0.389   2.173  13.476
99101SOL     OW99199   1.523   3.948   6.134
99101SOL    HW199200   1.568   3.884   6.190
99101SOL    HW299201   1.555   3.929   6.046
99102SOL     OW99202  10.572   9.196   2.744
99102SOL    HW199203  10.534   9.194   2.832
99102SOL    HW299204  10.504   9.158   2.688
99103SOL     OW99205   0.567   1.710   8.701
99103SOL    HW199206   0.522   1.787   8.665
99103SOL    HW299207   0.657   1.718   8.670
99104SOL     OW99208   0.298   7.631   4.400
99104SOL    HW199209   0.349   7.662   4.475
99104SOL    HW299210   0.301   7.703   4.337
99105SOL     OW99211   5.287   2.855   6.568
99105SOL    HW199212   5.329   2.941   6.572
99105SOL    HW299213   5.357   2.794   6.543
99106SOL     OW99214  11.489   4.205   4.312
99106SOL    HW199215  11.484   4.181   4.220
99106SOL    HW299216  11.454   4.294   4.315
99107SOL     OW99217  12.142  13.916  10.844
99107SOL    HW199218  12.237  13.915  10.855
99107SOL    HW299219  12.115  13.826  10.864
99108SOL     OW99220  14.112  13.269   9.859
99108SOL    HW199221  14.082  13.178   9.863
99108SOL    HW299222  14.197  13.264   9.817
99109SOL     OW99223  14.765   7.501  13.782
99109SOL    HW199224  14.799   7.448  13.710
99109SOL    HW299225  14.842   7.541  13.821
99110SOL     OW99226   5.287   8.425  10.780
99110SOL    HW199227   5.377   8.399  10.802
99110SOL    HW299228   5.268   8.497  10.840
99111SOL     OW99229   4.845   2.031  11.484
99111SOL    HW199230   4.797   2.092  11.429
99111SOL    HW299231   4.931   2.071  11.495
99112SOL     OW99232  13.963   8.142   2.182
99112SOL    HW199233  14.009   8.161   2.100
99112SOL    HW299234  14.025   8.091   2.234
99113SOL     OW99235   4.882   6.338   0.295
99113SOL    HW199236   4.866   6.299   0.381
99113SOL    HW299237   4.957   6.396   0.309
99114SOL     OW99238   8.868   5.801   9.236
99114SOL    HW199239   8.773   5.806   9.223
99114SOL    HW299240   8.887   5.869   9.301
99115SOL     OW99241   8.065   7.286   2.029
99115SOL    HW199242   8.013   7.206   2.019
99115SOL    HW299243   8.053   7.332   1.946
99116SOL     OW99244   4.883   7.060  13.061
99116SOL    HW199245   4.880   6.989  12.998
99116SOL    HW299246   4.862   7.139  13.010
99117SOL     OW99247   6.755   7.959   9.915
99117SOL    HW199248   6.806   8.020   9.969
99117SOL    HW299249   6.791   7.969   9.827
99118SOL     OW99250   5.300   8.864   9.524
99118SOL    HW199251   5.333   8.949   9.497
99118SOL    HW299252   5.214   8.858   9.482
99119SOL     OW99253   0.376   8.834   4.387
99119SOL    HW199254   0.428   8.853   4.465
99119SOL    HW299255   0.357   8.740   4.392
99120SOL     OW99256   2.414   1.896   6.794
99120SOL    HW199257   2.343   1.833   6.782
99120SOL    HW299258   2.389   1.972   6.741
99121SOL     OW99259  12.887   1.031  14.568
99121SOL    HW199260  12.937   0.999  14.643
99121SOL    HW299261  12.953   1.053  14.502
99122SOL     OW99262   4.619  11.516   8.955
99122SOL    HW199263   4.626  11.565   9.037
99122SOL    HW299264   4.635  11.580   8.886
99123SOL     OW99265   1.292  11.257   3.919
99123SOL    HW199266   1.234  11.274   3.844
99123SOL    HW299267   1.264  11.321   3.985
99124SOL     OW99268   0.141  10.401   7.290
99124SOL    HW199269   0.074  10.339   7.262
99124SOL    HW299270   0.159  10.378   7.381
99125SOL     OW99271  14.280   7.769   5.316
99125SOL    HW199272  14.278   7.862   5.340
99125SOL    HW299273  14.350   7.763   5.251
99126SOL     OW99274  11.993  11.494   7.599
99126SOL    HW199275  12.021  11.405   7.621
99126SOL    HW299276  12.072  11.547   7.605
99127SOL     OW99277   1.380  13.249   3.177
99127SOL    HW199278   1.455  13.263   3.234
99127SOL    HW299279   1.415  13.200   3.102
99128SOL     OW99280   2.150  13.238   9.475
99128SOL    HW199281   2.214  13.293   9.520
99128SOL    HW299282   2.097  13.299   9.424
99129SOL     OW99283   6.486   7.390   9.913
99129SOL    HW199284   6.575   7.356   9.905
99129SOL    HW299285   6.477   7.452   9.840
99130SOL     OW99286  13.226   9.199   5.173
99130SOL    HW199287  13.213   9.208   5.078
99130SOL    HW299288  13.140   9.213   5.211
99131SOL     OW99289   6.605   3.449  12.500
99131SOL    HW199290   6.565   3.462  12.414
99131SOL    HW299291   6.626   3.355  12.502
99132SOL     OW99292   1.140  14.046  12.143
99132SOL    HW199293   1.205  14.054  12.073
99132SOL    HW299294   1.062  14.012  12.100
99133SOL     OW99295   1.176  11.973   6.673
99133SOL    HW199296   1.220  12.022   6.604
99133SOL    HW299297   1.132  11.901   6.628
99134SOL     OW99298  11.013  12.407   2.398
99134SOL    HW199299  10.996  12.484   2.343
99134SOL    HW299300  11.094  12.429   2.445
99135SOL     OW99301   9.199   6.604   4.878
99135SOL    HW199302   9.231   6.565   4.797
99135SOL    HW299303   9.179   6.695   4.855
99136SOL     OW99304   9.816  10.329   3.204
99136SOL    HW199305   9.830  10.357   3.114
99136SOL    HW299306   9.845  10.238   3.206
99137SOL     OW99307  14.294   3.738   0.818
99137SOL    HW199308  14.322   3.693   0.898
99137SOL    HW299309  14.207   3.772   0.839
99138SOL     OW99310   4.080   9.120   2.500
99138SOL    HW199311   4.071   9.051   2.565
99138SOL    HW299312   3.995   9.123   2.456
99139SOL     OW99313   4.098   6.472   4.257
99139SOL    HW199314   4.073   6.529   4.184
99139SOL    HW299315   4.015   6.439   4.290
99140SOL     OW99316   2.044   0.918  13.280
99140SOL    HW199317   1.951   0.939  13.292
99140SOL    HW299318   2.052   0.827  13.309
99141SOL     OW99319   7.854   6.805  13.868
99141SOL    HW199320   7.916   6.801  13.940
99141SOL    HW299321   7.775   6.845  13.905
99142SOL     OW99322   2.577  10.953   7.595
99142SOL    HW199323   2.643  10.884   7.591
99142SOL    HW299324   2.568  10.982   7.504
99143SOL     OW99325  11.518  14.746   7.312
99143SOL    HW199326  11.433  14.709   7.335
99143SOL    HW299327  11.567  14.673   7.273
99144SOL     OW99328  13.192   3.034  10.501
99144SOL    HW199329  13.178   3.129  10.502
99144SOL    HW299330  13.211   3.014  10.409
99145SOL     OW99331   3.316   1.418   3.719
99145SOL    HW199332   3.235   1.370   3.737
99145SOL    HW299333   3.302   1.503   3.762
99146SOL     OW99334  14.022   8.959  12.955
99146SOL    HW199335  14.107   8.930  12.986
99146SOL    HW299336  14.003   8.904  12.879
99147SOL     OW99337  11.049   5.952   7.747
99147SOL    HW199338  10.989   5.890   7.789
99147SOL    HW299339  11.004   6.036   7.750
99148SOL     OW99340  12.155   5.810   0.257
99148SOL    HW199341  12.168   5.872   0.185
99148SOL    HW299342  12.219   5.741   0.240
99149SOL     OW99343  13.518   7.968  11.171
99149SOL    HW199344  13.579   8.032  11.209
99149SOL    HW299345  13.559   7.883  11.188
99150SOL     OW99346   6.528   6.506   8.890
99150SOL    HW199347   6.480   6.524   8.971
99150SOL    HW299348   6.561   6.416   8.901
99151SOL     OW99349  14.641   3.047   7.343
99151SOL    HW199350  14.644   3.143   7.352
99151SOL    HW299351  14.725   3.023   7.305
99152SOL     OW99352  10.327   2.774   5.343
99152SOL    HW199353  10.235   2.795   5.329
99152SOL    HW299354  10.375   2.849   5.308
99153SOL     OW99355   8.068  12.928  11.922
99153SOL    HW199356   7.977  12.908  11.898
99153SOL    HW299357   8.094  12.857  11.980
99154SOL     OW99358  10.383  11.252   5.173
99154SOL    HW199359  10.316  11.190   5.147
99154SOL    HW299360  10.347  11.338   5.151
99155SOL     OW99361   5.385  11.995   3.038
99155SOL    HW199362   5.478  11.983   3.016
99155SOL    HW299363   5.341  11.920   2.997
99156SOL     OW99364   3.820  12.583   4.163
99156SOL    HW199365   3.842  12.583   4.256
99156SOL    HW299366   3.861  12.663   4.129
99157SOL     OW99367   7.823  10.361   7.967
99157SOL    HW199368   7.797  10.315   8.047
99157SOL    HW299369   7.817  10.454   7.989
99158SOL     OW99370   7.213   0.065   9.713
99158SOL    HW199371   7.142   0.094   9.656
99158SOL    HW299372   7.267   0.008   9.659
99159SOL     OW99373  13.878   5.884  14.491
99159SOL    HW199374  13.799   5.855  14.537
99159SOL    HW299375  13.862   5.862  14.400
99160SOL     OW99376   4.658   8.433   4.989
99160SOL    HW199377   4.666   8.528   5.000
99160SOL    HW299378   4.748   8.401   4.988
99161SOL     OW99379   4.910   2.731  13.452
99161SOL    HW199380   4.944   2.668  13.515
99161SOL    HW299381   4.968   2.721  13.376
99162SOL     OW99382   1.229  12.799  13.859
99162SOL    HW199383   1.253  12.783  13.950
99162SOL    HW299384   1.313  12.820  13.816
99163SOL     OW99385   9.241   4.163   4.920
99163SOL    HW199386   9.254   4.229   4.988
99163SOL    HW299387   9.254   4.079   4.965
99164SOL     OW99388   8.547  13.679   7.128
99164SOL    HW199389   8.496  13.599   7.138
99164SOL    HW299390   8.565  13.707   7.217
99165SOL     OW99391   3.384   8.889   1.959
99165SOL    HW199392   3.405   8.857   2.046
99165SOL    HW299393   3.417   8.822   1.900
99166SOL     OW99394   1.691   9.162   0.021
99166SOL    HW199395   1.741   9.139  14.814
99166SOL    HW299396   1.610   9.199  14.859
99167SOL     OW99397  13.408   4.131   7.923
99167SOL    HW199398  13.429   4.065   7.857
99167SOL    HW299399  13.385   4.209   7.872
99168SOL     OW99400   2.932   0.772  11.101
99168SOL    HW199401   2.857   0.796  11.046
99168SOL    HW299402   2.892   0.742  11.183
99169SOL     OW99403  13.364  13.057   0.552
99169SOL    HW199404  13.393  13.083   0.465
99169SOL    HW299405  13.405  12.971   0.566
99170SOL     OW99406  14.321   0.657   1.016
99170SOL    HW199407  14.412   0.640   0.990
99170SOL    HW299408  14.282   0.570   1.024
99171SOL     OW99409   1.762   4.606  11.168
99171SOL    HW199410   1.685   4.657  11.191
99171SOL    HW299411   1.786   4.636  11.080
99172SOL     OW99412  11.385  13.186  12.372
99172SOL    HW199413  11.434  13.183  12.290
99172SOL    HW299414  11.401  13.101  12.414
99173SOL     OW99415   2.503   0.276   3.040
99173SOL    HW199416   2.430   0.258   3.099
99173SOL    HW299417   2.572   0.312   3.096
99174SOL     OW99418   9.766  10.713  14.162
99174SOL    HW199419   9.838  10.684  14.218
99174SOL    HW299420   9.743  10.799  14.195
99175SOL     OW99421   2.795   7.982   5.962
99175SOL    HW199422   2.796   7.887   5.964
99175SOL    HW299423   2.863   8.008   6.025
99176SOL     OW99424   4.200   4.100  12.485
99176SOL    HW199425   4.196   4.163  12.558
99176SOL    HW299426   4.109   4.079  12.467
99177SOL     OW99427   7.742   5.755   6.876
99177SOL    HW199428   7.651   5.743   6.901
99177SOL    HW299429   7.748   5.715   6.789
99178SOL     OW99430   4.558  12.303  14.063
99178SOL    HW199431   4.642  12.270  14.095
99178SOL    HW299432   4.508  12.225  14.038
99179SOL     OW99433   7.653   0.034   7.306
99179SOL    HW199434   7.618   0.051   7.393
99179SOL    HW299435   7.661   0.120   7.266
99180SOL     OW99436   7.292   4.482   4.369
99180SOL    HW199437   7.228   4.526   4.314
99180SOL    HW299438   7.244   4.409   4.409
99181SOL     OW99439  10.358  14.255   4.273
99181SOL    HW199440  10.359  14.178   4.331
99181SOL    HW299441  10.436  14.245   4.220
99182SOL     OW99442   4.857   6.230  12.993
99182SOL    HW199443   4.805   6.276  13.059
99182SOL    HW299444   4.886   6.149  13.035
99183SOL     OW99445   5.943  10.806  10.906
99183SOL    HW199446   6.024  10.769  10.940
99183SOL    HW299447   5.878  10.737  10.918
99184SOL     OW99448  12.636   2.740   4.775
99184SOL    HW199449  12.570   2.727   4.708
99184SOL    HW299450  12.589   2.726   4.858
99185SOL     OW99451   3.724   9.080  13.514
99185SOL    HW199452   3.683   9.040  13.590
99185SOL    HW299453   3.780   9.012  13.478
99186SOL     OW99454   8.475   4.353  11.861
99186SOL    HW199455   8.505   4.263  11.874
99186SOL    HW299456   8.435   4.353  11.773
99187SOL     OW99457   9.843   8.360  13.792
99187SOL    HW199458   9.881   8.335  13.876
99187SOL    HW299459   9.890   8.308  13.727
99188SOL     OW99460   1.942   0.399   0.682
99188SOL    HW199461   1.921   0.434   0.595
99188SOL    HW299462   1.878   0.328   0.695
99189SOL     OW99463  14.700   0.669   1.201
99189SOL    HW199464  14.647   0.626   1.134
99189SOL    HW299465  14.735   0.597   1.253
99190SOL     OW99466   1.642   2.632   9.091
99190SOL    HW199467   1.604   2.621   9.004
99190SOL    HW299468   1.708   2.562   9.096
99191SOL     OW99469   4.092  11.941  10.879
99191SOL    HW199470   4.032  11.994  10.932
99191SOL    HW299471   4.136  12.004  10.822
99192SOL     OW99472   6.520   4.211   9.774
99192SOL    HW199473   6.603   4.185   9.734
99192SOL    HW299474   6.522   4.307   9.774
99193SOL     OW99475  10.396   5.554   3.759
99193SOL    HW199476  10.412   5.460   3.751
99193SOL    HW299477  10.415   5.589   3.672
99194SOL     OW99478   4.785   7.066   3.552
99194SOL    HW199479   4.808   6.979   3.585
99194SOL    HW299480   4.868   7.114   3.551
99195SOL     OW99481   1.041   4.229   0.727
99195SOL    HW199482   1.024   4.173   0.651
99195SOL    HW299483   1.009   4.315   0.701
99196SOL     OW99484  12.934   8.983  13.800
99196SOL    HW199485  12.944   8.907  13.742
99196SOL    HW299486  12.926   9.057  13.741
99197SOL     OW99487   7.696   3.752   2.886
99197SOL    HW199488   7.646   3.696   2.826
99197SOL    HW299489   7.631   3.809   2.927
99198SOL     OW99490   1.928  11.633  12.173
99198SOL    HW199491   1.854  11.576  12.154
99198SOL    HW299492   1.988  11.580  12.225
99199SOL     OW99493   7.168   9.982   3.277
99199SOL    HW199494   7.089   9.964   3.224
99199SOL    HW299495   7.239   9.984   3.213
99200SOL     OW99496   1.534   0.990   1.495
99200SOL    HW199497   1.490   0.912   1.463
99200SOL    HW299498   1.462   1.047   1.524
99201SOL     OW99499  12.754  13.181  13.578
99201SOL    HW199500  12.796  13.248  13.525
99201SOL    HW299501  12.672  13.162  13.533
99202SOL     OW99502   9.816  14.343   0.764
99202SOL    HW199503   9.890  14.292   0.796
99202SOL    HW299504   9.807  14.318   0.672
99203SOL     OW99505   2.965   1.603   7.691
99203SOL    HW199506   3.031   1.672   7.688
99203SOL    HW299507   2.940   1.591   7.599
99204SOL     OW99508  14.392  10.717  11.242
99204SOL    HW199509  14.485  10.711  11.265
99204SOL    HW299510  14.374  10.636  11.195
99205SOL     OW99511   3.109  10.068  14.686
99205SOL    HW199512   3.194  10.050  14.726
99205SOL    HW299513   3.088   9.988  14.638
99206SOL     OW99514  11.533  10.918  11.828
99206SOL    HW199515  11.533  10.958  11.915
99206SOL    HW299516  11.456  10.862  11.828
99207SOL     OW99517   3.254   3.007   5.505
99207SOL    HW199518   3.341   3.048   5.504
99207SOL    HW299519   3.206   3.053   5.436
99208SOL     OW99520   0.518  11.753   5.863
99208SOL    HW199521   0.430  11.730   5.832
99208SOL    HW299522   0.521  11.720   5.952
99209SOL     OW99523   6.642   2.198  14.603
99209SOL    HW199524   6.628   2.177  14.695
99209SOL    HW299525   6.682   2.285  14.603
99210SOL     OW99526   1.565  14.413   9.263
99210SOL    HW199527   1.632  14.350   9.237
99210SOL    HW299528   1.525  14.441   9.180
99211SOL     OW99529  12.881   4.374   7.759
99211SOL    HW199530  12.880   4.306   7.826
99211SOL    HW299531  12.789   4.400   7.749
99212SOL     OW99532   4.571   7.728   7.877
99212SOL    HW199533   4.598   7.652   7.929
99212SOL    HW299534   4.637   7.795   7.897
99213SOL     OW99535   5.819   1.358   6.115
99213SOL    HW199536   5.885   1.394   6.056
99213SOL    HW299537   5.858   1.368   6.202
99214SOL     OW99538   7.240  12.057   7.786
99214SOL    HW199539   7.165  12.098   7.744
99214SOL    HW299540   7.205  11.979   7.828
99215SOL     OW99541   0.753   4.521   9.488
99215SOL    HW199542   0.659   4.504   9.485
99215SOL    HW299543   0.779   4.528   9.396
99216SOL     OW99544   5.169   9.147   9.769
99216SOL    HW199545   5.197   9.218   9.828
99216SOL    HW299546   5.118   9.192   9.701
99217SOL     OW99547   2.433   1.165  11.826
99217SOL    HW199548   2.404   1.255  11.816
99217SOL    HW299549   2.520   1.172  11.867
99218SOL     OW99550  11.374   4.445   9.149
99218SOL    HW199551  11.298   4.502   9.161
99218SOL    HW299552  11.362   4.376   9.214
99219SOL     OW99553   4.663   7.504   1.195
99219SOL    HW199554   4.605   7.519   1.120
99219SOL    HW299555   4.707   7.421   1.175
99220SOL     OW99556   0.456   7.488   0.914
99220SOL    HW199557   0.540   7.532   0.901
99220SOL    HW299558   0.449   7.426   0.841
99221SOL     OW99559  10.712   6.035   6.507
99221SOL    HW199560  10.633   6.040   6.453
99221SOL    HW299561  10.779   5.998   6.449
99222SOL     OW99562   6.102  12.649  10.072
99222SOL    HW199563   6.059  12.729  10.104
99222SOL    HW299564   6.176  12.681  10.020
99223SOL     OW99565   0.155   0.124   7.291
99223SOL    HW199566   0.148   0.178   7.212
99223SOL    HW299567   0.066   0.096   7.310
99224SOL     OW99568  12.412   7.750  10.217
99224SOL    HW199569  12.427   7.670  10.167
99224SOL    HW299570  12.489   7.758  10.274
99225SOL     OW99571   7.012   3.510   1.744
99225SOL    HW199572   7.058   3.498   1.662
99225SOL    HW299573   7.073   3.560   1.799
99226SOL     OW99574  13.768  14.182   1.294
99226SOL    HW199575  13.733  14.207   1.208
99226SOL    HW299576  13.800  14.093   1.281
99227SOL     OW99577  13.707  12.666   5.122
99227SOL    HW199578  13.780  12.613   5.155
99227SOL    HW299579  13.749  12.732   5.067
99228SOL     OW99580   6.328   1.543   2.208
99228SOL    HW199581   6.361   1.624   2.247
99228SOL    HW299582   6.375   1.535   2.125
99229SOL     OW99583  11.114  14.101   4.863
99229SOL    HW199584  11.195  14.134   4.903
99229SOL    HW299585  11.058  14.178   4.857
99230SOL     OW99586   2.110  13.829   8.569
99230SOL    HW199587   2.019  13.845   8.543
99230SOL    HW299588   2.117  13.868   8.657
99231SOL     OW99589  13.059   0.140   1.028
99231SOL    HW199590  12.979   0.091   1.012
99231SOL    HW299591  13.118   0.076   1.067
99232SOL     OW99592   3.061   5.511  10.624
99232SOL    HW199593   3.035   5.603  10.623
99232SOL    HW299594   3.132   5.506  10.688
99233SOL     OW99595   8.649   7.715   9.787
99233SOL    HW199596   8.587   7.720   9.714
99233SOL    HW299597   8.594   7.703   9.864
99234SOL     OW99598   5.249   8.288  12.257
99234SOL    HW199599   5.330   8.339  12.259
99234SOL    HW299600   5.258   8.226  12.329
99235SOL     OW99601  14.395  11.629   8.044
99235SOL    HW199602  14.339  11.578   8.103
99235SOL    HW299603  14.346  11.710   8.031
99236SOL     OW99604  14.130   7.932  10.643
99236SOL    HW199605  14.049   7.897  10.681
99236SOL    HW299606  14.157   8.001  10.704
99237SOL     OW99607   7.671   3.558   6.201
99237SOL    HW199608   7.604   3.568   6.269
99237SOL    HW299609   7.699   3.648   6.182
99238SOL     OW99610   4.101   8.351   1.047
99238SOL    HW199611   4.171   8.294   1.080
99238SOL    HW299612   4.032   8.343   1.112
99239SOL     OW99613   4.126  10.593   0.010
99239SOL    HW199614   4.131  10.605   0.105
99239SOL    HW299615   4.217  10.586  14.854
99240SOL     OW99616   4.811   0.744   3.337
99240SOL    HW199617   4.755   0.669   3.357
99240SOL    HW299618   4.775   0.780   3.256
99241SOL     OW99619  12.422  12.978  11.418
99241SOL    HW199620  12.504  12.929  11.416
99241SOL    HW299621  12.366  12.929  11.477
99242SOL     OW99622  14.430   5.831   2.180
99242SOL    HW199623  14.461   5.882   2.255
99242SOL    HW299624  14.474   5.871   2.104
99243SOL     OW99625   0.289   3.249   8.141
99243SOL    HW199626   0.248   3.172   8.180
99243SOL    HW299627   0.312   3.222   8.052
99244SOL     OW99628   1.081   9.674   2.876
99244SOL    HW199629   1.167   9.707   2.902
99244SOL    HW299630   1.093   9.580   2.867
99245SOL     OW99631  12.988  14.094   3.936
99245SOL    HW199632  13.047  14.057   4.001
99245SOL    HW299633  12.902  14.057   3.957
99246SOL     OW99634   4.065   8.708   3.558
99246SOL    HW199635   3.981   8.693   3.600
99246SOL    HW299636   4.051   8.783   3.501
99247SOL     OW99637   2.304   4.954   9.125
99247SOL    HW199638   2.363   4.883   9.098
99247SOL    HW299639   2.286   4.936   9.217
99248SOL     OW99640  11.483  14.840  12.742
99248SOL    HW199641  11.552  14.827  12.677
99248SOL    HW299642  11.407  14.868  12.691
99249SOL     OW99643  13.016   8.653   1.976
99249SOL    HW199644  13.086   8.712   1.947
99249SOL    HW299645  13.016   8.660   2.071
99250SOL     OW99646   4.985  10.299  13.998
99250SOL    HW199647   5.047  10.343  13.940
99250SOL    HW299648   4.932  10.245  13.939
99251SOL     OW99649  11.061   7.097  10.574
99251SOL    HW199650  11.018   7.155  10.636
99251SOL    HW299651  11.152   7.094  10.602
99252SOL     OW99652   4.244   5.792   6.448
99252SOL    HW199653   4.238   5.876   6.403
99252SOL    HW299654   4.229   5.727   6.380
99253SOL     OW99655   7.429   4.605   9.382
99253SOL    HW199656   7.496   4.583   9.447
99253SOL    HW299657   7.451   4.694   9.355
99254SOL     OW99658   5.624   2.667   3.428
99254SOL    HW199659   5.556   2.713   3.378
99254SOL    HW299660   5.619   2.577   3.398
99255SOL     OW99661   3.171   2.011   8.737
99255SOL    HW199662   3.222   1.938   8.702
99255SOL    HW299663   3.236   2.072   8.772
99256SOL     OW99664   2.648  10.315   0.079
99256SOL    HW199665   2.565  10.357   0.102
99256SOL    HW299666   2.712  10.386   0.083
99257SOL     OW99667   9.374  13.118   0.112
99257SOL    HW199668   9.286  13.142   0.140
99257SOL    HW299669   9.367  13.025   0.089
99258SOL     OW99670  10.882  12.133   5.431
99258SOL    HW199671  10.857  12.176   5.350
99258SOL    HW299672  10.807  12.080   5.455
99259SOL     OW99673  14.730   6.155   8.599
99259SOL    HW199674  14.659   6.109   8.554
99259SOL    HW299675  14.688   6.191   8.678
99260SOL     OW99676   7.499   5.566   0.805
99260SOL    HW199677   7.510   5.534   0.894
99260SOL    HW299678   7.569   5.524   0.755
99261SOL     OW99679   0.682  14.003   8.726
99261SOL    HW199680   0.742  13.993   8.799
99261SOL    HW299681   0.727  13.961   8.652
99262SOL     OW99682   9.380   0.748   4.825
99262SOL    HW199683   9.386   0.775   4.917
99262SOL    HW299684   9.365   0.653   4.829
99263SOL     OW99685  13.897   0.428   8.703
99263SOL    HW199686  13.880   0.494   8.770
99263SOL    HW299687  13.912   0.347   8.751
99264SOL     OW99688   5.721  12.405   1.901
99264SOL    HW199689   5.725  12.402   1.996
99264SOL    HW299690   5.732  12.314   1.874
99265SOL     OW99691   8.287   3.974  11.895
99265SOL    HW199692   8.380   3.991  11.907
99265SOL    HW299693   8.243   4.037  11.953
99266SOL     OW99694   8.497   1.174   3.563
99266SOL    HW199695   8.419   1.224   3.541
99266SOL    HW299696   8.466   1.104   3.620
99267SOL     OW99697   3.573   4.261   7.668
99267SOL    HW199698   3.503   4.202   7.642
99267SOL    HW299699   3.604   4.298   7.585
99268SOL     OW99700   5.835  10.092  10.989
99268SOL    HW199701   5.910  10.046  10.953
99268SOL    HW299702   5.856  10.185  10.979
99269SOL     OW99703  13.016   7.222   2.516
99269SOL    HW199704  12.995   7.131   2.534
99269SOL    HW299705  12.971   7.271   2.585
99270SOL     OW99706  11.235   7.860   6.882
99270SOL    HW199707  11.178   7.827   6.813
99270SOL    HW299708  11.248   7.952   6.860
99271SOL     OW99709  13.609   7.863   7.129
99271SOL    HW199710  13.549   7.839   7.058
99271SOL    HW299711  13.622   7.958   7.119
99272SOL     OW99712   6.648   4.532   9.398
99272SOL    HW199713   6.556   4.537   9.424
99272SOL    HW299714   6.696   4.564   9.475
99273SOL     OW99715   9.439  10.835  10.554
99273SOL    HW199716   9.529  10.810  10.576
99273SOL    HW299717   9.441  10.849  10.459
99274SOL     OW99718   7.304  13.358  13.162
99274SOL    HW199719   7.312  13.264  13.177
99274SOL    HW299720   7.357  13.374  13.083
99275SOL     OW99721  11.624   9.012   5.947
99275SOL    HW199722  11.532   8.990   5.960
99275SOL    HW299723  11.625   9.108   5.941
99276SOL     OW99724  12.284   4.052  11.606
99276SOL    HW199725  12.229   4.022  11.678
99276SOL    HW299726  12.374   4.042  11.638
99277SOL     OW99727   7.244   4.965  12.333
99277SOL    HW199728   7.178   5.023  12.296
99277SOL    HW299729   7.213   4.947  12.422
99278SOL     OW99730   2.008   3.848   4.537
99278SOL    HW199731   2.025   3.918   4.475
99278SOL    HW299732   1.953   3.786   4.489
99279SOL     OW99733   1.960   9.519  12.195
99279SOL    HW199734   2.000   9.544  12.111
99279SOL    HW299735   1.880   9.474  12.171
99280SOL     OW99736  10.483   8.487  11.173
99280SOL    HW199737  10.524   8.435  11.104
99280SOL    HW299738  10.545   8.485  11.245
99281SOL     OW99739   0.082  11.916  13.595
99281SOL    HW199740   0.027  11.867  13.534
99281SOL    HW299741   0.092  11.858  13.671
99282SOL     OW99742  14.591   4.838  10.291
99282SOL    HW199743  14.649   4.892  10.343
99282SOL    HW299744  14.645   4.763  10.264
99283SOL     OW99745   1.826   6.605  10.752
99283SOL    HW199746   1.770   6.593  10.829
99283SOL    HW299747   1.840   6.517  10.719
99284SOL     OW99748   0.995   6.988   6.575
99284SOL    HW199749   0.980   6.894   6.582
99284SOL    HW299750   1.052   7.009   6.648
99285SOL     OW99751   0.268   5.831  14.478
99285SOL    HW199752   0.212   5.906  14.460
99285SOL    HW299753   0.332   5.831  14.406
99286SOL     OW99754   0.888   9.298   8.412
99286SOL    HW199755   0.944   9.311   8.335
99286SOL    HW299756   0.822   9.235   8.384
99287SOL     OW99757   9.984  13.464   3.056
99287SOL    HW199758   9.942  13.521   3.120
99287SOL    HW299759  10.076  13.460   3.083
99288SOL     OW99760   2.212   3.650   6.543
99288SOL    HW199761   2.276   3.677   6.609
99288SOL    HW299762   2.215   3.554   6.545
99289SOL     OW99763  11.134   6.138   2.130
99289SOL    HW199764  11.123   6.065   2.069
99289SOL    HW299765  11.172   6.208   2.077
99290SOL     OW99766  12.421   9.962   6.987
99290SOL    HW199767  12.447  10.047   7.021
99290SOL    HW299768  12.351   9.933   7.046
99291SOL     OW99769   6.970   9.633   1.275
99291SOL    HW199770   6.954   9.566   1.209
99291SOL    HW299771   6.988   9.584   1.355
99292SOL     OW99772   0.735   6.369   8.576
99292SOL    HW199773   0.783   6.305   8.628
99292SOL    HW299774   0.801   6.433   8.549
99293SOL     OW99775  11.805  12.048  12.955
99293SOL    HW199776  11.833  12.067  12.865
99293SOL    HW299777  11.885  12.046  13.006
99294SOL     OW99778  12.218   2.193  10.234
99294SOL    HW199779  12.187   2.109  10.268
99294SOL    HW299780  12.306   2.174  10.201
99295SOL     OW99781   0.452   5.953   7.506
99295SOL    HW199782   0.498   6.020   7.455
99295SOL    HW299783   0.502   5.945   7.587
99296SOL     OW99784   6.237   2.835  13.462
99296SOL    HW199785   6.259   2.758  13.410
99296SOL    HW299786   6.189   2.892  13.402
99297SOL     OW99787   8.404   7.707   1.389
99297SOL    HW199788   8.440   7.764   1.457
99297SOL    HW299789   8.481   7.670   1.345
99298SOL     OW99790  14.698   4.201  10.179
99298SOL    HW199791  14.732   4.215  10.091
99298SOL    HW299792  14.605   4.220  10.172
99299SOL     OW99793  11.212   1.390  10.765
99299SOL    HW199794  11.258   1.324  10.818
99299SOL    HW299795  11.125   1.396  10.804
99300SOL     OW99796   8.646   1.170  11.837
99300SOL    HW199797   8.668   1.260  11.863
99300SOL    HW299798   8.625   1.177  11.744
99301SOL     OW99799   7.784  10.413   2.067
99301SOL    HW199800   7.863  10.450   2.108
99301SOL    HW299801   7.806  10.407   1.974
99302SOL     OW99802   5.430  11.966   8.055
99302SOL    HW199803   5.395  12.007   7.975
99302SOL    HW299804   5.352  11.933   8.101
99303SOL     OW99805   0.744   8.595   0.984
99303SOL    HW199806   0.809   8.587   1.055
99303SOL    HW299807   0.735   8.506   0.950
99304SOL     OW99808   6.574   6.612   0.142
99304SOL    HW199809   6.516   6.620   0.067
99304SOL    HW299810   6.606   6.701   0.158
99305SOL     OW99811   1.990  14.212   0.434
99305SOL    HW199812   1.986  14.125   0.393
99305SOL    HW299813   1.899  14.239   0.442
99306SOL     OW99814   7.970   6.093   1.282
99306SOL    HW199815   7.954   6.090   1.376
99306SOL    HW299816   8.048   6.040   1.269
99307SOL     OW99817   1.641   1.682  11.946
99307SOL    HW199818   1.595   1.636  12.016
99307SOL    HW299819   1.640   1.621  11.872
99308SOL     OW99820  11.407   8.782   2.564
99308SOL    HW199821  11.375   8.866   2.597
99308SOL    HW299822  11.451   8.805   2.482
99309SOL     OW99823   8.971   3.158  14.283
99309SOL    HW199824   8.966   3.082  14.342
99309SOL    HW299825   9.009   3.123  14.203
99310SOL     OW99826   1.429   4.307   3.874
99310SOL    HW199827   1.492   4.246   3.836
99310SOL    HW299828   1.384   4.256   3.942
99311SOL     OW99829   3.599   5.694  13.232
99311SOL    HW199830   3.625   5.613  13.188
99311SOL    HW299831   3.515   5.672  13.274
99312SOL     OW99832  12.166   9.694   6.765
99312SOL    HW199833  12.201   9.684   6.853
99312SOL    HW299834  12.196   9.780   6.737
99313SOL     OW99835   0.818   1.561   3.502
99313SOL    HW199836   0.823   1.492   3.568
99313SOL    HW299837   0.730   1.596   3.511
99314SOL     OW99838   0.921   4.820   1.552
99314SOL    HW199839   0.985   4.813   1.481
99314SOL    HW299840   0.841   4.852   1.509
99315SOL     OW99841   1.450   2.020   0.591
99315SOL    HW199842   1.437   1.995   0.683
99315SOL    HW299843   1.411   1.947   0.541
99316SOL     OW99844   8.080   2.029  12.986
99316SOL    HW199845   8.015   2.007  13.053
99316SOL    HW299846   8.129   1.948  12.973
99317SOL     OW99847  14.849   9.113   2.218
99317SOL    HW199848   0.063   9.083   2.189
99317SOL    HW299849  14.815   9.041   2.271
99318SOL     OW99850   8.492   4.172   3.614
99318SOL    HW199851   8.457   4.165   3.525
99318SOL    HW299852   8.438   4.239   3.655
99319SOL     OW99853  13.515   2.944   7.697
99319SOL    HW199854  13.454   2.994   7.752
99319SOL    HW299855  13.577   3.009   7.664
99320SOL     OW99856  11.082   2.705   3.331
99320SOL    HW199857  11.028   2.747   3.264
99320SOL    HW299858  11.166   2.750   3.324
99321SOL     OW99859   3.442   6.914  13.299
99321SOL    HW199860   3.486   6.997  13.287
99321SOL    HW299861   3.497   6.850  13.254
99322SOL     OW99862  12.153  14.192   4.663
99322SOL    HW199863  12.068  14.147   4.659
99322SOL    HW299864  12.217  14.123   4.646
99323SOL     OW99865   1.698  13.195   2.565
99323SOL    HW199866   1.605  13.187   2.586
99323SOL    HW299867   1.730  13.265   2.622
99324SOL     OW99868   7.982   6.271  12.889
99324SOL    HW199869   8.024   6.334  12.949
99324SOL    HW299870   7.893   6.262  12.922
99325SOL     OW99871   6.015   1.441  11.338
99325SOL    HW199872   6.104   1.426  11.370
99325SOL    HW299873   5.968   1.360  11.361
99326SOL     OW99874  11.588   4.504   2.599
99326SOL    HW199875  11.612   4.575   2.659
99326SOL    HW299876  11.660   4.442   2.605
99327SOL     OW99877   9.395   1.173   6.859
99327SOL    HW199878   9.424   1.253   6.902
99327SOL    HW299879   9.368   1.201   6.772
99328SOL     OW99880   9.834   1.596  11.826
99328SOL    HW199881   9.836   1.629  11.736
99328SOL    HW299882   9.867   1.669  11.878
99329SOL     OW99883   9.149   3.382   5.046
99329SOL    HW199884   9.162   3.338   5.130
99329SOL    HW299885   9.186   3.322   4.981
99330SOL     OW99886  13.392   8.675  12.288
99330SOL    HW199887  13.320   8.732  12.314
99330SOL    HW299888  13.453   8.732  12.243
99331SOL     OW99889   4.517   8.549  14.264
99331SOL    HW199890   4.434   8.539  14.217
99331SOL    HW299891   4.527   8.643  14.278
99332SOL     OW99892  13.215  12.606   8.152
99332SOL    HW199893  13.277  12.538   8.125
99332SOL    HW299894  13.264  12.658   8.217
99333SOL     OW99895  11.624   4.203  11.656
99333SOL    HW199896  11.641   4.210  11.750
99333SOL    HW299897  11.593   4.290  11.631
99334SOL     OW99898   4.974  10.914   6.732
99334SOL    HW199899   4.929  10.859   6.668
99334SOL    HW299900   5.034  10.968   6.680
99335SOL     OW99901   0.656  14.539  12.955
99335SOL    HW199902   0.696  14.594  12.887
99335SOL    HW299903   0.674  14.449  12.927
99336SOL     OW99904   2.805   6.263   6.674
99336SOL    HW199905   2.746   6.207   6.724
99336SOL    HW299906   2.891   6.223   6.685
99337SOL     OW99907   9.858   1.213   6.764
99337SOL    HW199908   9.872   1.120   6.778
99337SOL    HW299909   9.763   1.224   6.770
99338SOL     OW99910   7.873  10.209   7.425
99338SOL    HW199911   7.807  10.140   7.419
99338SOL    HW299912   7.846  10.275   7.361
99339SOL     OW99913   5.930  12.561  14.803
99339SOL    HW199914   5.994  12.632  14.805
99339SOL    HW299915   5.846  12.605  14.791
99340SOL     OW99916   8.414  12.080  12.269
99340SOL    HW199917   8.428  12.170  12.298
99340SOL    HW299918   8.352  12.043  12.332
99341SOL     OW99919   7.286   9.420   1.172
99341SOL    HW199920   7.284   9.510   1.139
99341SOL    HW299921   7.323   9.369   1.101
99342SOL     OW99922   0.588   8.079  11.913
99342SOL    HW199923   0.508   8.045  11.873
99342SOL    HW299924   0.642   8.106  11.838
99343SOL     OW99925  10.530   3.371   6.435
99343SOL    HW199926  10.482   3.345   6.515
99343SOL    HW299927  10.618   3.337   6.448
99344SOL     OW99928  13.314   5.741   7.367
99344SOL    HW199929  13.330   5.798   7.443
99344SOL    HW299930  13.384   5.675   7.373
99345SOL     OW99931   3.717  11.156   7.625
99345SOL    HW199932   3.774  11.087   7.661
99345SOL    HW299933   3.700  11.214   7.699
99346SOL     OW99934  10.691  14.312   6.509
99346SOL    HW199935  10.693  14.216   6.512
99346SOL    HW299936  10.689  14.339   6.601
99347SOL     OW99937   6.068  14.669  11.806
99347SOL    HW199938   5.978  14.637  11.813
99347SOL    HW299939   6.093  14.650  11.715
99348SOL     OW99940  10.117   4.652  10.404
99348SOL    HW199941  10.090   4.614  10.488
99348SOL    HW299942  10.048   4.715  10.383
99349SOL     OW99943   2.094  14.292   4.333
99349SOL    HW199944   2.000  14.311   4.336
99349SOL    HW299945   2.121  14.287   4.424
99350SOL     OW99946   0.914   0.709   6.066
99350SOL    HW199947   0.942   0.635   6.119
99350SOL    HW299948   0.947   0.689   5.978
99351SOL     OW99949  10.520   0.113  13.511
99351SOL    HW199950  10.502   0.093  13.603
99351SOL    HW299951  10.434   0.129  13.473
99352SOL     OW99952   9.735   3.219   1.031
99352SOL    HW199953   9.762   3.144   0.978
99352SOL    HW299954   9.685   3.274   0.970
99353SOL     OW99955  14.639   8.734  10.059
99353SOL    HW199956  14.608   8.648  10.085
99353SOL    HW299957  14.639   8.732   9.963
99354SOL     OW99958  10.124   0.267   1.041
99354SOL    HW199959  10.109   0.315   1.123
99354SOL    HW299960  10.135   0.336   0.975
99355SOL     OW99961  11.963   2.177  11.438
99355SOL    HW199962  11.873   2.190  11.466
99355SOL    HW299963  11.957   2.159  11.344
99356SOL     OW99964   8.048  14.082   1.943
99356SOL    HW199965   7.975  14.056   1.888
99356SOL    HW299966   8.021  14.061   2.032
99357SOL     OW99967   0.429  12.563   2.679
99357SOL    HW199968   0.482  12.635   2.645
99357SOL    HW299969   0.381  12.600   2.752
99358SOL     OW99970   1.512   9.315   9.473
99358SOL    HW199971   1.505   9.254   9.400
99358SOL    HW299972   1.504   9.402   9.432
99359SOL     OW99973  11.917   4.442  13.259
99359SOL    HW199974  11.895   4.354  13.228
99359SOL    HW299975  11.847   4.464  13.321
99360SOL     OW99976   4.414   5.579   0.132
99360SOL    HW199977   4.323   5.555   0.113
99360SOL    HW299978   4.440   5.633   0.057
99361SOL     OW99979   3.924   2.043   8.502
99361SOL    HW199980   3.975   1.976   8.459
99361SOL    HW299981   3.880   1.997   8.574
99362SOL     OW99982  10.830   3.576  10.863
99362SOL    HW199983  10.838   3.497  10.809
99362SOL    HW299984  10.745   3.567  10.906
99363SOL     OW99985   0.665   2.201   9.018
99363SOL    HW199986   0.725   2.134   9.052
99363SOL    HW299987   0.596   2.152   8.974
99364SOL     OW99988   1.560   0.588  11.886
99364SOL    HW199989   1.564   0.492  11.895
99364SOL    HW299990   1.639   0.610  11.837
99365SOL     OW99991   2.430   7.906   8.549
99365SOL    HW199992   2.514   7.873   8.583
99365SOL    HW299993   2.384   7.828   8.519
99366SOL     OW99994   8.378  10.642   8.708
99366SOL    HW199995   8.362  10.731   8.737
99366SOL    HW299996   8.345  10.638   8.619
99367SOL     OW99997  11.831   8.698  12.085
99367SOL    HW199998  11.835   8.737  12.173
99367SOL    HW299999  11.761   8.746  12.040
99368SOL     OW    0  12.265  12.760   3.322
99368SOL    HW1    1  12.190  12.818   3.334
99368SOL    HW2    2  12.240  12.680   3.368
99369SOL     OW    3   8.958  12.078   1.846
99369SOL    HW1    4   8.910  12.059   1.927
99369SOL    HW2    5   8.893  12.120   1.789
99370SOL     OW    6  12.775   0.010   1.882
99370SOL    HW1    7  12.738  14.833   1.808
99370SOL    HW2    8  12.840   0.068   1.842
99371SOL     OW    9  13.067   3.055  10.764
99371SOL    HW1   10  13.140   3.034  10.822
99371SOL    HW2   11  13.106   3.058  10.677
99372SOL     OW   12  14.493   9.974  10.209
99372SOL    HW1   13  14.435   9.976  10.285
99372SOL    HW2   14  14.550  10.050  10.219
99373SOL     OW   15   5.184   9.896   3.483
99373SOL    HW1   16   5.147   9.981   3.458
99373SOL    HW2   17   5.275   9.900   3.453
99374SOL     OW   18   3.634   7.018  12.309
99374SOL    HW1   19   3.591   7.050  12.230
99374SOL    HW2   20   3.727   7.016  12.286
99375SOL     OW   21  13.042   5.890   4.303
99375SOL    HW1   22  12.972   5.829   4.326
99375SOL    HW2   23  13.111   5.834   4.267
99376SOL     OW   24   2.453  13.635   7.124
99376SOL    HW1   25   2.531  13.649   7.070
99376SOL    HW2   26   2.448  13.713   7.179
99377SOL     OW   27   4.549  12.307   3.894
99377SOL    HW1   28   4.632  12.262   3.909
99377SOL    HW2   29   4.536  12.360   3.973
99378SOL     OW   30  10.043   2.765   9.818
99378SOL    HW1   31  10.120   2.711   9.797
99378SOL    HW2   32  10.030   2.752   9.912
99379SOL     OW   33   5.816   3.237  14.463
99379SOL    HW1   34   5.724   3.235  14.489
99379SOL    HW2   35   5.853   3.157  14.501
99380SOL     OW   36   9.927   7.301   6.226
99380SOL    HW1   37   9.955   7.214   6.256
99380SOL    HW2   38   9.962   7.362   6.291
99381SOL     OW   39   0.596   0.314   3.652
99381SOL    HW1   40   0.685   0.287   3.675
99381SOL    HW2   41   0.597   0.320   3.557
99382SOL     OW   42  12.872   5.006  12.214
99382SOL    HW1   43  12.856   5.077  12.151
99382SOL    HW2   44  12.900   5.050  12.294
99383SOL     OW   45   6.400  12.753   5.239
99383SOL    HW1   46   6.469  12.740   5.304
99383SOL    HW2   47   6.445  12.782   5.160
99384SOL     OW   48  11.524  10.450   5.280
99384SOL    HW1   49  11.468  10.456   5.203
99384SOL    HW2   50  11.507  10.363   5.316
99385SOL     OW   51   0.430  13.223  11.513
99385SOL    HW1   52   0.490  13.251  11.444
99385SOL    HW2   53   0.344  13.220  11.471
99386SOL     OW   54   0.391   2.197   6.361
99386SOL    HW1   55   0.299   2.222   6.373
99386SOL    HW2   56   0.409   2.218   6.269
99387SOL     OW   57  12.608   1.469  12.898
99387SOL    HW1   58  12.534   1.514  12.857
99387SOL    HW2   59  12.637   1.528  12.967
99388SOL     OW   60   5.983  11.223  11.141
99388SOL    HW1   61   5.994  11.160  11.212
99388SOL    HW2   62   5.993  11.171  11.061
99389SOL     OW   63   0.677   9.723   2.652
99389SOL    HW1   64   0.607   9.785   2.673
99389SOL    HW2   65   0.676   9.660   2.724
99390SOL     OW   66  14.821  12.643   2.417
99390SOL    HW1   67  14.733  12.653   2.382
99390SOL    HW2   68  14.850  12.732   2.435
99391SOL     OW   69   1.122  12.217   3.512
99391SOL    HW1   70   1.097  12.145   3.454
99391SOL    HW2   71   1.184  12.179   3.573
99392SOL     OW   72   2.576   3.756   1.714
99392SOL    HW1   73   2.511   3.708   1.765
99392SOL    HW2   74   2.627   3.688   1.670
99393SOL     OW   75  13.399   8.625   3.022
99393SOL    HW1   76  13.421   8.660   3.108
99393SOL    HW2   77  13.364   8.538   3.040
99394SOL     OW   78  10.081   8.495   7.998
99394SOL    HW1   79  10.165   8.454   7.978
99394SOL    HW2   80  10.033   8.493   7.915
99395SOL     OW   81   4.329   6.790   2.169
99395SOL    HW1   82   4.272   6.742   2.229
99395SOL    HW2   83   4.385   6.723   2.129
99396SOL     OW   84   9.383  12.326   5.822
99396SOL    HW1   85   9.296  12.337   5.861
99396SOL    HW2   86   9.368  12.329   5.728
99397SOL     OW   87  12.637  14.023   7.472
99397SOL    HW1   88  12.688  13.950   7.437
99397SOL    HW2   89  12.546  13.994   7.466
99398SOL     OW   90   8.933   2.589  13.963
99398SOL    HW1   91   8.844   2.596  13.930
99398SOL    HW2   92   8.948   2.672  14.008
99399SOL     OW   93   4.411  10.156   1.422
99399SOL    HW1   94   4.443  10.133   1.335
99399SOL    HW2   95   4.413  10.074   1.471
99400SOL     OW   96   2.174   1.394   2.476
99400SOL    HW1   97   2.118   1.469   2.492
99400SOL    HW2   98   2.238   1.425   2.412
99401SOL     OW   99   2.436   5.713   6.818
99401SOL    HW1  100   2.518   5.748   6.853
99401SOL    HW2  101   2.461   5.632   6.775
99402SOL     OW  102   6.780   1.776   6.336
99402SOL    HW1  103   6.804   1.742   6.423
99402SOL    HW2  104   6.854   1.830   6.311
99403SOL     OW  105   1.359  12.101  13.980
99403SOL    HW1  106   1.309  12.180  13.959
99403SOL    HW2  107   1.359  12.097  14.075
99404SOL     OW  108  14.108   0.574   4.722
99404SOL    HW1  109  14.112   0.508   4.653
99404SOL    HW2  110  14.045   0.540   4.785
99405SOL     OW  111   4.565  10.228   0.355
99405SOL    HW1  112   4.528  10.289   0.291
99405SOL    HW2  113   4.649  10.202   0.317
99406SOL     OW  114  13.970   3.844  12.594
99406SOL    HW1  115  13.921   3.820  12.515
99406SOL    HW2  116  13.953   3.772  12.655
99407SOL     OW  117   1.343   3.367  10.329
99407SOL    HW1  118   1.421   3.312  10.327
99407SOL    HW2  119   1.376   3.455  10.347
99408SOL     OW  120   9.355  10.837  13.358
99408SOL    HW1  121   9.440  10.875  13.336
99408SOL    HW2  122   9.370  10.792  13.442
99409SOL     OW  123   3.601  10.535   4.177
99409SOL    HW1  124   3.693  10.553   4.196
99409SOL    HW2  125   3.559  10.621   4.183
99410SOL     OW  126  10.695  10.172  10.898
99410SOL    HW1  127  10.753  10.234  10.853
99410SOL    HW2  128  10.633  10.227  10.946
99411SOL     OW  129  11.517   4.303   8.586
99411SOL    HW1  130  11.487   4.214   8.570
99411SOL    HW2  131  11.612   4.299   8.577
99412SOL     OW  132   9.362   2.566   7.310
99412SOL    HW1  133   9.268   2.575   7.327
99412SOL    HW2  134   9.393   2.656   7.302
99413SOL     OW  135   6.027   8.480  13.869
99413SOL    HW1  136   6.012   8.542  13.799
99413SOL    HW2  137   6.086   8.526  13.930
99414SOL     OW  138   4.411   9.016  13.201
99414SOL    HW1  139   4.343   9.033  13.137
99414SOL    HW2  140   4.492   9.011  13.150
99415SOL     OW  141   5.337   5.226   9.741
99415SOL    HW1  142   5.245   5.250   9.736
99415SOL    HW2  143   5.382   5.287   9.682
99416SOL     OW  144  14.193   0.783  12.391
99416SOL    HW1  145  14.205   0.688  12.380
99416SOL    HW2  146  14.280   0.819  12.372
99417SOL     OW  147   7.377  12.454   3.476
99417SOL    HW1  148   7.413  12.543   3.474
99417SOL    HW2  149   7.286  12.465   3.448
99418SOL     OW  150   7.758  12.591   8.198
99418SOL    HW1  151   7.773  12.503   8.232
99418SOL    HW2  152   7.821  12.601   8.126
99419SOL     OW  153  13.779  12.520   5.904
99419SOL    HW1  154  13.840  12.480   5.843
99419SOL    HW2  155  13.724  12.448   5.934
99420SOL     OW  156  12.373   6.542  10.685
99420SOL    HW1  157  12.465   6.533  10.662
99420SOL    HW2  158  12.340   6.452  10.688
99421SOL     OW  159   9.847   5.716   9.814
99421SOL    HW1  160   9.939   5.737   9.830
99421SOL    HW2  161   9.811   5.795   9.775
99422SOL     OW  162   7.471  12.696   2.379
99422SOL    HW1  163   7.400  12.664   2.435
99422SOL    HW2  164   7.501  12.619   2.332
99423SOL     OW  165   0.839   2.031  13.720
99423SOL    HW1  166   0.826   2.112  13.771
99423SOL    HW2  167   0.756   1.984  13.727
99424SOL     OW  168   5.493   5.494   3.695
99424SOL    HW1  169   5.507   5.564   3.632
99424SOL    HW2  170   5.576   5.486   3.741
99425SOL     OW  171  14.859  13.725  12.642
99425SOL    HW1  172  14.780  13.727  12.696
99425SOL    HW2  173   0.054  13.687  12.699
99426SOL     OW  174   4.845   5.142  13.583
99426SOL    HW1  175   4.750   5.132  13.576
99426SOL    HW2  176   4.880   5.055  13.564
99427SOL     OW  177  11.689   3.921  11.984
99427SOL    HW1  178  11.662   4.006  11.950
99427SOL    HW2  179  11.633   3.858  11.939
99428SOL     OW  180   5.008   1.952  13.089
99428SOL    HW1  181   4.933   1.980  13.142
99428SOL    HW2  182   4.985   1.979  12.999
99429SOL     OW  183   7.959  14.331   6.536
99429SOL    HW1  184   8.021  14.274   6.492
99429SOL    HW2  185   7.892  14.350   6.470
99430SOL     OW  186  14.860   4.465   4.533
99430SOL    HW1  187  14.769   4.490   4.547
99430SOL    HW2  188   0.037   4.548   4.541
99431SOL     OW  189  10.916   5.114  12.281
99431SOL    HW1  190  10.930   5.030  12.325
99431SOL    HW2  191  10.847   5.097  12.217
99432SOL     OW  192  13.180   6.068   4.055
99432SOL    HW1  193  13.133   5.985   4.042
99432SOL    HW2  194  13.161   6.093   4.145
99433SOL     OW  195   2.123   6.196  13.312
99433SOL    HW1  196   2.034   6.206  13.277
99433SOL    HW2  197   2.161   6.124  13.261
99434SOL     OW  198   4.856  11.853   1.367
99434SOL    HW1  199   4.865  11.939   1.409
99434SOL    HW2  200   4.945  11.831   1.341
99435SOL     OW  201   4.708   9.052  11.371
99435SOL    HW1  202   4.619   9.023  11.353
99435SOL    HW2  203   4.698   9.124  11.433
99436SOL     OW  204   3.921  11.649  14.590
99436SOL    HW1  205   4.001  11.655  14.537
99436SOL    HW2  206   3.859  11.603  14.533
99437SOL     OW  207  13.195   6.270   9.308
99437SOL    HW1  208  13.209   6.363   9.287
99437SOL    HW2  209  13.128   6.242   9.246
99438SOL     OW  210  13.719   9.699   0.827
99438SOL    HW1  211  13.777   9.623   0.816
99438SOL    HW2  212  13.634   9.661   0.849
99439SOL     OW  213   6.210   8.768  14.577
99439SOL    HW1  214   6.284   8.726  14.533
99439SOL    HW2  215   6.237   8.773  14.669
99440SOL     OW  216   0.116   1.740   2.719
99440SOL    HW1  217   0.194   1.693   2.688
99440SOL    HW2  218   0.151   1.805   2.780
99441SOL     OW  219   3.299   3.901   2.960
99441SOL    HW1  220   3.238   3.974   2.956
99441SOL    HW2  221   3.256   3.836   3.016
99442SOL     OW  222   2.382   9.407  10.722
99442SOL    HW1  223   2.373   9.374  10.812
99442SOL    HW2  224   2.376   9.330  10.667
99443SOL     OW  225   5.702  12.122   3.517
99443SOL    HW1  226   5.623  12.156   3.476
99443SOL    HW2  227   5.772  12.143   3.456
99444SOL     OW  228  12.270  11.962   4.317
99444SOL    HW1  229  12.274  11.890   4.380
99444SOL    HW2  230  12.253  11.920   4.233
99445SOL     OW  231  12.109   9.607   5.573
99445SOL    HW1  232  12.143   9.565   5.652
99445SOL    HW2  233  12.133   9.548   5.502
99446SOL     OW  234   8.793   8.698   6.361
99446SOL    HW1  235   8.753   8.733   6.282
99446SOL    HW2  236   8.727   8.638   6.397
99447SOL     OW  237   9.015   6.803   5.105
99447SOL    HW1  238   8.974   6.765   5.183
99447SOL    HW2  239   8.987   6.746   5.034
99448SOL     OW  240   0.991   3.208   5.495
99448SOL    HW1  241   0.971   3.217   5.402
99448SOL    HW2  242   1.048   3.132   5.500
99449SOL     OW  243   5.886   4.106   6.941
99449SOL    HW1  244   5.806   4.056   6.957
99449SOL    HW2  245   5.942   4.047   6.891
99450SOL     OW  246   0.703   3.806  14.294
99450SOL    HW1  247   0.748   3.734  14.338
99450SOL    HW2  248   0.611   3.795  14.317
99451SOL     OW  249   3.378   7.108   0.650
99451SOL    HW1  250   3.342   7.190   0.685
99451SOL    HW2  251   3.382   7.123   0.556
99452SOL     OW  252   6.512   1.659   7.619
99452SOL    HW1  253   6.565   1.654   7.698
99452SOL    HW2  254   6.489   1.568   7.599
99453SOL     OW  255   3.140   9.882   0.376
99453SOL    HW1  256   3.232   9.875   0.404
99453SOL    HW2  257   3.108   9.962   0.417
99454SOL     OW  258  13.015  12.982   7.369
99454SOL    HW1  259  13.047  12.929   7.295
99454SOL    HW2  260  12.983  13.063   7.328
99455SOL     OW  261  12.772   7.027  10.422
99455SOL    HW1  262  12.777   7.095  10.490
99455SOL    HW2  263  12.775   7.076  10.340
99456SOL     OW  264  12.089   7.135   9.264
99456SOL    HW1  265  12.079   7.061   9.323
99456SOL    HW2  266  12.081   7.097   9.176
99457SOL     OW  267   4.299   2.896   3.835
99457SOL    HW1  268   4.246   2.817   3.842
99457SOL    HW2  269   4.292   2.938   3.921
99458SOL     OW  270   0.066   6.328  13.975
99458SOL    HW1  271   0.137   6.279  13.933
99458SOL    HW2  272   0.097   6.419  13.974
99459SOL     OW  273   9.967  11.326  14.704
99459SOL    HW1  274   9.905  11.321  14.631
99459SOL    HW2  275  10.000  11.416  14.701
99460SOL     OW  276  14.807   4.010   7.432
99460SOL    HW1  277   0.009   4.071   7.421
99460SOL    HW2  278  14.733   4.054   7.389
99461SOL     OW  279   0.987   8.670  14.246
99461SOL    HW1  280   0.948   8.597  14.197
99461SOL    HW2  281   0.954   8.659  14.335
99462SOL     OW  282  10.713  14.265   8.875
99462SOL    HW1  283  10.691  14.354   8.902
99462SOL    HW2  284  10.794  14.245   8.921
99463SOL     OW  285  13.771   9.685   3.262
99463SOL    HW1  286  13.839   9.649   3.205
99463SOL    HW2  287  13.816   9.753   3.312
99464SOL     OW  288   3.725   4.237   1.225
99464SOL    HW1  289   3.638   4.200   1.240
99464SOL    HW2  290   3.716   4.284   1.141
99465SOL     OW  291   2.729   4.122   8.816
99465SOL    HW1  292   2.771   4.208   8.811
99465SOL    HW2  293   2.644   4.140   8.857
99466SOL     OW  294   7.294  12.517   9.842
99466SOL    HW1  295   7.246  12.595   9.816
99466SOL    HW2  296   7.268  12.502   9.933
99467SOL     OW  297  12.422  10.732   8.310
99467SOL    HW1  298  12.502  10.687   8.284
99467SOL    HW2  299  12.448  10.783   8.387
99468SOL     OW  300  14.174   4.381   8.251
99468SOL    HW1  301  14.155   4.410   8.162
99468SOL    HW2  302  14.208   4.292   8.242
99469SOL     OW  303   4.245   0.468   6.062
99469SOL    HW1  304   4.299   0.547   6.057
99469SOL    HW2  305   4.282   0.418   6.134
99470SOL     OW  306   7.448   6.943   2.554
99470SOL    HW1  307   7.378   6.947   2.619
99470SOL    HW2  308   7.526   6.970   2.602
99471SOL     OW  309   0.171  14.458   3.495
99471SOL    HW1  310   0.143  14.405   3.421
99471SOL    HW2  311   0.264  14.439   3.505
99472SOL     OW  312   9.456   0.257   9.244
99472SOL    HW1  313   9.454   0.267   9.339
99472SOL    HW2  314   9.522   0.320   9.215
99473SOL     OW  315   0.250   9.080   0.938
99473SOL    HW1  316   0.167   9.033   0.929
99473SOL    HW2  317   0.256   9.101   1.031
99474SOL     OW  318   3.594  13.514  14.628
99474SOL    HW1  319   3.499  13.528  14.618
99474SOL    HW2  320   3.632  13.601  14.617
99475SOL     OW  321  13.620   8.486   0.717
99475SOL    HW1  322  13.665   8.482   0.802
99475SOL    HW2  323  13.678   8.440   0.657
99476SOL     OW  324  11.344   2.060  11.442
99476SOL    HW1  325  11.268   2.078  11.497
99476SOL    HW2  326  11.400   2.005  11.497
99477SOL     OW  327   0.977   0.598  11.250
99477SOL    HW1  328   1.014   0.551  11.324
99477SOL    HW2  329   0.968   0.689  11.280
99478SOL     OW  330   6.271  13.089   1.462
99478SOL    HW1  331   6.354  13.102   1.507
99478SOL    HW2  332   6.211  13.059   1.531
99479SOL     OW  333   0.433   3.103  13.066
99479SOL    HW1  334   0.424   3.121  12.973
99479SOL    HW2  335   0.345   3.082  13.096
99480SOL     OW  336   8.985   5.737   6.356
99480SOL    HW1  337   8.974   5.704   6.267
99480SOL    HW2  338   9.046   5.676   6.397
99481SOL     OW  339   9.491   4.599  12.788
99481SOL    HW1  340   9.406   4.553  12.789
99481SOL    HW2  341   9.502   4.631  12.877
99482SOL     OW  342   3.121  14.664   1.786
99482SOL    HW1  343   3.153  14.753   1.796
99482SOL    HW2  344   3.164  14.632   1.707
99483SOL     OW  345   9.917   0.580  11.046
99483SOL    HW1  346   9.965   0.619  11.119
99483SOL    HW2  347   9.828   0.569  11.078
99484SOL     OW  348   4.279   7.656   7.962
99484SOL    HW1  349   4.303   7.686   8.049
99484SOL    HW2  350   4.355   7.676   7.907
99485SOL     OW  351  14.642   0.179   0.810
99485SOL    HW1  352  14.584   0.190   0.885
99485SOL    HW2  353  14.644   0.084   0.795
99486SOL     OW  354   5.977  11.311   8.093
99486SOL    HW1  355   5.998  11.311   8.187
99486SOL    HW2  356   6.010  11.227   8.062
99487SOL     OW  357   4.285   5.578  14.530
99487SOL    HW1  358   4.299   5.623  14.447
99487SOL    HW2  359   4.226   5.505  14.510
99488SOL     OW  360   6.755   9.394   5.091
99488SOL    HW1  361   6.720   9.375   5.004
99488SOL    HW2  362   6.708   9.472   5.120
99489SOL     OW  363   5.789   6.707   1.955
99489SOL    HW1  364   5.750   6.619   1.949
99489SOL    HW2  365   5.831   6.709   2.041
99490SOL     OW  366   0.451   3.606   5.074
99490SOL    HW1  367   0.455   3.641   4.985
99490SOL    HW2  368   0.365   3.633   5.106
99491SOL     OW  369  11.016  12.018   2.707
99491SOL    HW1  370  11.001  12.060   2.791
99491SOL    HW2  371  10.944  11.956   2.697
99492SOL     OW  372   9.752   8.754   7.775
99492SOL    HW1  373   9.724   8.701   7.700
99492SOL    HW2  374   9.739   8.845   7.746
99493SOL     OW  375   8.910  10.492   3.816
99493SOL    HW1  376   8.983  10.450   3.862
99493SOL    HW2  377   8.924  10.470   3.724
99494SOL     OW  378  12.810   9.183   6.597
99494SOL    HW1  379  12.732   9.164   6.649
99494SOL    HW2  380  12.812   9.114   6.531
99495SOL     OW  381   2.145   3.856  10.836
99495SOL    HW1  382   2.057   3.883  10.860
99495SOL    HW2  383   2.202   3.917  10.882
99496SOL     OW  384   6.349  10.721  11.574
99496SOL    HW1  385   6.387  10.750  11.656
99496SOL    HW2  386   6.365  10.793  11.513
99497SOL     OW  387   5.777  11.107   2.008
99497SOL    HW1  388   5.772  11.011   2.004
99497SOL    HW2  389   5.826  11.131   1.930
99498SOL     OW  390  12.418  12.899   2.484
99498SOL    HW1  391  12.465  12.929   2.562
99498SOL    HW2  392  12.487  12.878   2.421
99499SOL     OW  393   7.551   9.315   1.790
99499SOL    HW1  394   7.539   9.394   1.844
99499SOL    HW2  395   7.596   9.347   1.711
99500SOL     OW  396   6.881  12.147  11.386
99500SOL    HW1  397   6.911  12.139  11.477
99500SOL    HW2  398   6.896  12.239  11.364
99501SOL     OW  399  10.202  10.359  11.114
99501SOL    HW1  400  10.234  10.408  11.190
99501SOL    HW2  401  10.108  10.375  11.112
99502SOL     OW  402   3.884  10.408   8.053
99502SOL    HW1  403   3.929  10.484   8.017
99502SOL    HW2  404   3.908  10.408   8.146
99503SOL     OW  405  13.789   7.375   8.884
99503SOL    HW1  406  13.714   7.334   8.842
99503SOL    HW2  407  13.865   7.339   8.838
99504SOL     OW  408   5.816  11.879   6.811
99504SOL    HW1  409   5.842  11.842   6.895
99504SOL    HW2  410   5.885  11.943   6.791
99505SOL     OW  411  13.769   0.104   4.873
99505SOL    HW1  412  13.678   0.115   4.900
99505SOL    HW2  413  13.814   0.181   4.906
99506SOL     OW  414   6.054   0.202   5.257
99506SOL    HW1  415   6.065   0.262   5.331
99506SOL    HW2  416   6.115   0.235   5.191
99507SOL     OW  417  13.985   4.992  13.453
99507SOL    HW1  418  13.987   5.016  13.360
99507SOL    HW2  419  14.054   5.045  13.493
99508SOL     OW  420   2.072   2.796   4.704
99508SOL    HW1  421   2.008   2.737   4.743
99508SOL    HW2  422   2.044   2.884   4.731
99509SOL     OW  423  11.478   9.908   9.261
99509SOL    HW1  424  11.451   9.934   9.173
99509SOL    HW2  425  11.414   9.842   9.288
99510SOL     OW  426   7.006   6.703   7.770
99510SOL    HW1  427   6.915   6.676   7.764
99510SOL    HW2  428   7.004   6.789   7.811
99511SOL     OW  429   1.117   4.429   1.742
99511SOL    HW1  430   1.091   4.521   1.745
99511SOL    HW2  431   1.201   4.426   1.788
99512SOL     OW  432  12.655  11.892  13.400
99512SOL    HW1  433  12.649  11.801  13.371
99512SOL    HW2  434  12.676  11.886  13.493
99513SOL     OW  435   9.201   7.569  13.853
99513SOL    HW1  436   9.208   7.657  13.816
99513SOL    HW2  437   9.220   7.510  13.780
99514SOL     OW  438  13.953  11.809   4.816
99514SOL    HW1  439  13.919  11.875   4.756
99514SOL    HW2  440  14.048  11.810   4.800
99515SOL     OW  441  11.213   0.401  12.266
99515SOL    HW1  442  11.294   0.452  12.266
99515SOL    HW2  443  11.153   0.451  12.321
99516SOL     OW  444  12.241  10.920   6.646
99516SOL    HW1  445  12.269  11.009   6.625
99516SOL    HW2  446  12.323  10.870   6.652
99517SOL     OW  447   4.558   3.127   2.567
99517SOL    HW1  448   4.631   3.156   2.511
99517SOL    HW2  449   4.490   3.192   2.552
99518SOL     OW  450   5.853  11.791   0.203
99518SOL    HW1  451   5.832  11.843   0.125
99518SOL    HW2  452   5.767  11.772   0.242
99519SOL     OW  453   5.916  12.154   4.410
99519SOL    HW1  454   5.862  12.233   4.416
99519SOL    HW2  455   5.892  12.102   4.486
99520SOL     OW  456  13.174   3.232   9.918
99520SOL    HW1  457  13.215   3.284   9.850
99520SOL    HW2  458  13.224   3.253   9.997
99521SOL     OW  459   5.823  10.291   1.264
99521SOL    HW1  460   5.877  10.311   1.188
99521SOL    HW2  461   5.886  10.278   1.335
99522SOL     OW  462  10.938   6.504  11.313
99522SOL    HW1  463  10.893   6.451  11.379
99522SOL    HW2  464  11.015   6.453  11.290
99523SOL     OW  465   6.401  11.541   5.711
99523SOL    HW1  466   6.422  11.460   5.757
99523SOL    HW2  467   6.397  11.516   5.619
99524SOL     OW  468   7.853   2.374   6.561
99524SOL    HW1  469   7.823   2.434   6.492
99524SOL    HW2  470   7.806   2.292   6.544
99525SOL     OW  471  14.714   3.889   2.777
99525SOL    HW1  472  14.734   3.949   2.849
99525SOL    HW2  473  14.668   3.943   2.713
99526SOL     OW  474   0.580   4.120   4.001
99526SOL    HW1  475   0.605   4.028   4.007
99526SOL    HW2  476   0.542   4.130   3.914
99527SOL     OW  477  12.545   5.666  14.509
99527SOL    HW1  478  12.547   5.670  14.414
99527SOL    HW2  479  12.474   5.606  14.530
99528SOL     OW  480   2.075   0.438   8.774
99528SOL    HW1  481   2.095   0.369   8.712
99528SOL    HW2  482   2.006   0.490   8.732
99529SOL     OW  483   5.443   4.850  14.830
99529SOL    HW1  484   5.495   4.884  14.757
99529SOL    HW2  485   5.396   4.775  14.793
99530SOL     OW  486   4.089   2.975   0.388
99530SOL    HW1  487   4.132   3.034   0.326
99530SOL    HW2  488   3.998   3.005   0.392
99531SOL     OW  489   0.557   3.288   6.582
99531SOL    HW1  490   0.494   3.223   6.551
99531SOL    HW2  491   0.635   3.237   6.605
99532SOL     OW  492   8.240   4.180   1.559
99532SOL    HW1  493   8.290   4.212   1.484
99532SOL    HW2  494   8.217   4.259   1.608
99533SOL     OW  495   5.373   1.102   8.081
99533SOL    HW1  496   5.287   1.139   8.100
99533SOL    HW2  497   5.353   1.013   8.050
99534SOL     OW  498   5.601   1.571   7.007
99534SOL    HW1  499   5.638   1.648   6.963
99534SOL    HW2  500   5.619   1.498   6.948
99535SOL     OW  501   0.613   9.629   6.221
99535SOL    HW1  502   0.659   9.701   6.179
99535SOL    HW2  503   0.561   9.671   6.291
99536SOL     OW  504   6.909  14.398   2.761
99536SOL    HW1  505   6.945  14.452   2.832
99536SOL    HW2  506   6.845  14.341   2.804
99537SOL     OW  507  10.275   0.477   4.221
99537SOL    HW1  508  10.330   0.447   4.148
99537SOL    HW2  509  10.195   0.509   4.180
99538SOL     OW  510  13.958  14.709   3.965
99538SOL    HW1  511  14.012  14.785   3.943
99538SOL    HW2  512  13.949  14.661   3.883
99539SOL     OW  513   2.045   9.000   3.227
99539SOL    HW1  514   2.125   8.977   3.179
99539SOL    HW2  515   1.977   8.947   3.187
99540SOL     OW  516   2.249  10.829   2.023
99540SOL    HW1  517   2.187  10.801   1.957
99540SOL    HW2  518   2.216  10.791   2.105
99541SOL     OW  519  14.504   3.996  14.566
99541SOL    HW1  520  14.599   3.986  14.557
99541SOL    HW2  521  14.486   3.973  14.658
99542SOL     OW  522  13.762   9.812   8.560
99542SOL    HW1  523  13.790   9.745   8.497
99542SOL    HW2  524  13.763   9.767   8.645
99543SOL     OW  525   4.655   8.426  11.741
99543SOL    HW1  526   4.739   8.468  11.720
99543SOL    HW2  527   4.642   8.444  11.834
99544SOL     OW  528  12.245  13.866   8.214
99544SOL    HW1  529  12.210  13.802   8.276
99544SOL    HW2  530  12.219  13.833   8.128
99545SOL     OW  531   3.121   4.221   1.183
99545SOL    HW1  532   3.150   4.289   1.244
99545SOL    HW2  533   3.046   4.259   1.138
99546SOL     OW  534   8.444   0.061  12.697
99546SOL    HW1  535   8.521   0.035  12.747
99546SOL    HW2  536   8.392   0.114  12.759
99547SOL     OW  537  12.417  12.169  14.388
99547SOL    HW1  538  12.354  12.104  14.357
99547SOL    HW2  539  12.366  12.227  14.445
99548SOL     OW  540  12.919  12.576   5.422
99548SOL    HW1  541  12.888  12.589   5.511
99548SOL    HW2  542  12.932  12.665   5.388
99549SOL     OW  543   0.902   7.055  14.046
99549SOL    HW1  544   0.845   7.131  14.031
99549SOL    HW2  545   0.866   6.986  13.990
99550SOL     OW  546   3.984   5.222  11.022
99550SOL    HW1  547   3.901   5.240  11.066
99550SOL    HW2  548   3.995   5.127  11.031
99551SOL     OW  549   5.809  13.074  13.939
99551SOL    HW1  550   5.782  13.019  13.866
99551SOL    HW2  551   5.728  13.087  13.990
99552SOL     OW  552   2.104   3.045   7.655
99552SOL    HW1  553   2.053   2.969   7.683
99552SOL    HW2  554   2.038   3.113   7.639
99553SOL     OW  555   0.853   4.523  14.741
99553SOL    HW1  556   0.772   4.500  14.696
99553SOL    HW2  557   0.872   4.612  14.713
99554SOL     OW  558  14.097   5.242   6.676
99554SOL    HW1  559  14.021   5.248   6.618
99554SOL    HW2  560  14.070   5.288   6.756
99555SOL     OW  561  12.061   0.522   2.922
99555SOL    HW1  562  11.977   0.513   2.877
99555SOL    HW2  563  12.064   0.448   2.982
99556SOL     OW  564   0.554   1.221  12.077
99556SOL    HW1  565   0.607   1.278  12.134
99556SOL    HW2  566   0.613   1.195  12.007
99557SOL     OW  567   9.621   6.617   4.773
99557SOL    HW1  568   9.637   6.523   4.781
99557SOL    HW2  569   9.580   6.641   4.856
99558SOL     OW  570  13.968   7.803   5.236
99558SOL    HW1  571  14.041   7.801   5.298
99558SOL    HW2  572  13.961   7.896   5.211
99559SOL     OW  573  13.699  10.331   0.768
99559SOL    HW1  574  13.761  10.340   0.696
99559SOL    HW2  575  13.613  10.327   0.725
99560SOL     OW  576   7.140   3.033  10.762
99560SOL    HW1  577   7.183   2.948  10.750
99560SOL    HW2  578   7.172   3.064  10.846
99561SOL     OW  579   5.604  13.277   2.355
99561SOL    HW1  580   5.553  13.355   2.332
99561SOL    HW2  581   5.631  13.240   2.271
99562SOL     OW  582   2.478   6.552   6.341
99562SOL    HW1  583   2.446   6.462   6.339
99562SOL    HW2  584   2.398   6.605   6.345
99563SOL     OW  585  14.195   5.130  14.221
99563SOL    HW1  586  14.179   5.104  14.312
99563SOL    HW2  587  14.243   5.056  14.184
99564SOL     OW  588   6.272   9.047  10.841
99564SOL    HW1  589   6.215   9.056  10.918
99564SOL    HW2  590   6.359   9.071  10.873
99565SOL     OW  591   9.910  10.316  13.068
99565SOL    HW1  592   9.845  10.302  12.999
99565SOL    HW2  593   9.971  10.379  13.030
99566SOL     OW  594  12.522  10.677   1.961
99566SOL    HW1  595  12.573  10.758   1.973
99566SOL    HW2  596  12.530  10.658   1.868
99567SOL     OW  597  10.293   0.823   5.656
99567SOL    HW1  598  10.283   0.823   5.751
99567SOL    HW2  599  10.228   0.885   5.624
99568SOL     OW  600   4.507   3.132   9.779
99568SOL    HW1  601   4.517   3.184   9.700
99568SOL    HW2  602   4.564   3.173   9.843
99569SOL     OW  603   7.481  11.414  10.722
99569SOL    HW1  604   7.481  11.429  10.627
99569SOL    HW2  605   7.539  11.339  10.734
99570SOL     OW  606   6.835   6.052  14.813
99570SOL    HW1  607   6.913   6.107  14.817
99570SOL    HW2  608   6.762   6.113  14.801
99571SOL     OW  609   2.716   6.430   5.795
99571SOL    HW1  610   2.627   6.428   5.759
99571SOL    HW2  611   2.726   6.345   5.838
99572SOL     OW  612  13.720   1.902   5.432
99572SOL    HW1  613  13.735   1.997   5.435
99572SOL    HW2  614  13.775   1.871   5.360
99573SOL     OW  615   2.714  13.448   3.458
99573SOL    HW1  616   2.711  13.517   3.391
99573SOL    HW2  617   2.627  13.410   3.457
99574SOL     OW  618  12.210  11.805  11.985
99574SOL    HW1  619  12.231  11.800  12.078
99574SOL    HW2  620  12.280  11.755  11.943
99575SOL     OW  621   1.664   9.798   5.404
99575SOL    HW1  622   1.686   9.720   5.456
99575SOL    HW2  623   1.661   9.766   5.314
99576SOL     OW  624   1.514  14.466  14.014
99576SOL    HW1  625   1.426  14.462  14.051
99576SOL    HW2  626   1.501  14.499  13.925
99577SOL     OW  627   4.856   4.830   4.694
99577SOL    HW1  628   4.922   4.891   4.726
99577SOL    HW2  629   4.881   4.812   4.604
99578SOL     OW  630   1.885   3.595  14.752
99578SOL    HW1  631   1.955   3.585  14.817
99578SOL    HW2  632   1.827   3.662  14.789
99579SOL     OW  633   2.152   5.608   4.164
99579SOL    HW1  634   2.170   5.518   4.139
99579SOL    HW2  635   2.093   5.641   4.096
99580SOL     OW  636   5.475   0.311  10.384
99580SOL    HW1  637   5.442   0.270  10.464
99580SOL    HW2  638   5.553   0.360  10.413
99581SOL     OW  639   2.348   3.959   9.139
99581SOL    HW1  640   2.302   3.887   9.097
99581SOL    HW2  641   2.282   4.001   9.196
99582SOL     OW  642  14.735  10.927   2.908
99582SOL    HW1  643  14.763  11.014   2.935
99582SOL    HW2  644  14.763  10.870   2.980
99583SOL     OW  645   7.385   3.310   4.089
99583SOL    HW1  646   7.313   3.331   4.031
99583SOL    HW2  647   7.449   3.265   4.033
99584SOL     OW  648  10.173  13.522   1.366
99584SOL    HW1  649  10.145  13.588   1.430
99584SOL    HW2  650  10.091  13.482   1.337
99585SOL     OW  651   3.848   7.791   8.599
99585SOL    HW1  652   3.854   7.856   8.669
99585SOL    HW2  653   3.931   7.743   8.603
99586SOL     OW  654  14.436   8.663   8.395
99586SOL    HW1  655  14.400   8.590   8.446
99586SOL    HW2  656  14.471   8.621   8.316
99587SOL     OW  657   2.237   9.257   6.021
99587SOL    HW1  658   2.208   9.247   6.112
99587SOL    HW2  659   2.203   9.342   5.994
99588SOL     OW  660  11.933  10.626  10.660
99588SOL    HW1  661  11.998  10.681  10.616
99588SOL    HW2  662  11.973  10.540  10.665
99589SOL     OW  663   3.831  12.665   8.216
99589SOL    HW1  664   3.894  12.733   8.190
99589SOL    HW2  665   3.822  12.610   8.138
99590SOL     OW  666  10.340   7.579  14.824
99590SOL    HW1  667  10.333   7.490  14.858
99590SOL    HW2  668  10.263   7.590  14.768
99591SOL     OW  669  10.819   8.512   3.476
99591SOL    HW1  670  10.856   8.458   3.546
99591SOL    HW2  671  10.759   8.571   3.522
99592SOL     OW  672  12.184   2.751   4.972
99592SOL    HW1  673  12.096   2.722   4.947
99592SOL    HW2  674  12.229   2.672   5.001
99593SOL     OW  675   9.433   4.186   6.245
99593SOL    HW1  676   9.482   4.217   6.321
99593SOL    HW2  677   9.499   4.148   6.188
99594SOL     OW  678   2.490  14.334   1.345
99594SOL    HW1  679   2.452  14.247   1.351
99594SOL    HW2  680   2.420  14.388   1.309
99595SOL     OW  681   5.781  13.996  13.829
99595SOL    HW1  682   5.771  14.089  13.807
99595SOL    HW2  683   5.704  13.976  13.881
99596SOL     OW  684   9.389  11.347  10.988
99596SOL    HW1  685   9.377  11.344  10.893
99596SOL    HW2  686   9.357  11.262  11.018
99597SOL     OW  687   3.186  13.382   7.461
99597SOL    HW1  688   3.185  13.321   7.388
99597SOL    HW2  689   3.112  13.440   7.445
99598SOL     OW  690   0.091  14.274   7.166
99598SOL    HW1  691   0.165  14.327   7.138
99598SOL    HW2  692   0.014  14.327   7.145
99599SOL     OW  693   1.810   1.872   5.671
99599SOL    HW1  694   1.904   1.872   5.649
99599SOL    HW2  695   1.790   1.963   5.689
99600SOL     OW  696   9.800   8.934  11.703
99600SOL    HW1  697   9.827   9.014  11.747
99600SOL    HW2  698   9.880   8.901  11.663
99601SOL     OW  699  11.578   2.166   2.978
99601SOL    HW1  700  11.583   2.247   2.928
99601SOL    HW2  701  11.608   2.190   3.066
99602SOL     OW  702   6.804   8.731   7.482
99602SOL    HW1  703   6.843   8.735   7.570
99602SOL    HW2  704   6.711   8.713   7.497
99603SOL     OW  705  10.399   4.854  14.551
99603SOL    HW1  706  10.350   4.871  14.631
99603SOL    HW2  707  10.438   4.768  14.565
99604SOL     OW  708   5.457  12.714   6.343
99604SOL    HW1  709   5.523  12.647   6.363
99604SOL    HW2  710   5.481  12.789   6.397
99605SOL     OW  711  14.664   1.479   4.421
99605SOL    HW1  712  14.592   1.471   4.359
99605SOL    HW2  713  14.621   1.502   4.504
99606SOL     OW  714  13.643  11.078  14.047
99606SOL    HW1  715  13.606  11.165  14.060
99606SOL    HW2  716  13.568  11.019  14.058
99607SOL     OW  717   7.055   1.062  13.051
99607SOL    HW1  718   7.116   1.121  13.096
99607SOL    HW2  719   7.049   1.096  12.962
99608SOL     OW  720   3.381  12.720  10.396
99608SOL    HW1  721   3.441  12.650  10.370
99608SOL    HW2  722   3.300  12.675  10.420
99609SOL     OW  723   3.615   5.427   3.834
99609SOL    HW1  724   3.542   5.481   3.805
99609SOL    HW2  725   3.660   5.481   3.899
99610SOL     OW  726   8.445  11.880   6.547
99610SOL    HW1  727   8.459  11.932   6.627
99610SOL    HW2  728   8.421  11.793   6.579
99611SOL     OW  729   2.162   7.174   4.827
99611SOL    HW1  730   2.201   7.256   4.856
99611SOL    HW2  731   2.166   7.116   4.903
99612SOL     OW  732   4.081   9.599  11.811
99612SOL    HW1  733   4.056   9.639  11.894
99612SOL    HW2  734   4.175   9.618  11.802
99613SOL     OW  735   3.100  13.461   0.973
99613SOL    HW1  736   3.165  13.442   1.041
99613SOL    HW2  737   3.111  13.555   0.955
99614SOL     OW  738  12.186  10.993  11.897
99614SOL    HW1  739  12.204  11.015  11.806
99614SOL    HW2  740  12.115  10.928  11.892
99615SOL     OW  741   4.975  14.239  12.462
99615SOL    HW1  742   5.021  14.219  12.380
99615SOL    HW2  743   4.941  14.328  12.449
99616SOL     OW  744  12.268   3.778   0.236
99616SOL    HW1  745  12.244   3.819   0.153
99616SOL    HW2  746  12.321   3.844   0.281
99617SOL     OW  747   0.952  12.313   5.583
99617SOL    HW1  748   0.907  12.378   5.637
99617SOL    HW2  749   0.920  12.229   5.617
99618SOL     OW  750  10.155   0.216   2.147
99618SOL    HW1  751  10.198   0.131   2.145
99618SOL    HW2  752  10.192   0.263   2.072
99619SOL     OW  753   6.247   3.676  10.460
99619SOL    HW1  754   6.193   3.612  10.508
99619SOL    HW2  755   6.228   3.760  10.503
99620SOL     OW  756   6.622  10.899  11.613
99620SOL    HW1  757   6.703  10.886  11.664
99620SOL    HW2  758   6.552  10.880  11.675
99621SOL     OW  759   3.275   8.629   5.109
99621SOL    HW1  760   3.326   8.673   5.040
99621SOL    HW2  761   3.308   8.667   5.191
99622SOL     OW  762  14.455   2.740   8.463
99622SOL    HW1  763  14.432   2.703   8.378
99622SOL    HW2  764  14.405   2.689   8.527
99623SOL     OW  765   0.592   7.921   3.638
99623SOL    HW1  766   0.582   7.998   3.694
99623SOL    HW2  767   0.521   7.862   3.664
99624SOL     OW  768  14.285   9.974  10.397
99624SOL    HW1  769  14.239  10.027  10.333
99624SOL    HW2  770  14.217   9.943  10.456
99625SOL     OW  771   9.375  12.610   5.520
99625SOL    HW1  772   9.312  12.672   5.485
99625SOL    HW2  773   9.372  12.623   5.614
99626SOL     OW  774   4.336  11.683  14.055
99626SOL    HW1  775   4.398  11.633  14.000
99626SOL    HW2  776   4.288  11.737  13.992
99627SOL     OW  777   9.722  14.778   5.211
99627SOL    HW1  778   9.704  14.813   5.298
99627SOL    HW2  779   9.683  14.691   5.211
99628SOL     OW  780   0.943  12.990  10.996
99628SOL    HW1  781   0.858  12.988  11.041
99628SOL    HW2  782   0.949  13.078  10.960
99629SOL     OW  783   3.544   9.618   6.367
99629SOL    HW1  784   3.548   9.547   6.431
99629SOL    HW2  785   3.597   9.688   6.406
99630SOL     OW  786   2.873   8.697   6.428
99630SOL    HW1  787   2.929   8.761   6.472
99630SOL    HW2  788   2.895   8.705   6.336
99631SOL     OW  789   1.395   1.405  10.477
99631SOL    HW1  790   1.437   1.460  10.544
99631SOL    HW2  791   1.309   1.445  10.465
99632SOL     OW  792  14.621   3.030  10.111
99632SOL    HW1  793  14.646   3.064  10.025
99632SOL    HW2  794  14.669   2.948  10.119
99633SOL     OW  795   3.991   4.336   6.392
99633SOL    HW1  796   3.987   4.425   6.426
99633SOL    HW2  797   4.073   4.301   6.427
99634SOL     OW  798  10.454   9.700  10.074
99634SOL    HW1  799  10.526   9.715  10.013
99634SOL    HW2  800  10.380   9.748  10.037
99635SOL     OW  801   2.791   8.002  10.506
99635SOL    HW1  802   2.862   7.945  10.475
99635SOL    HW2  803   2.825   8.042  10.586
99636SOL     OW  804  12.929  14.439  12.878
99636SOL    HW1  805  13.000  14.461  12.938
99636SOL    HW2  806  12.942  14.346  12.859
99637SOL     OW  807  10.752   4.440   0.415
99637SOL    HW1  808  10.737   4.475   0.327
99637SOL    HW2  809  10.843   4.412   0.414
99638SOL     OW  810   4.101  14.241   9.325
99638SOL    HW1  811   4.098  14.146   9.338
99638SOL    HW2  812   4.045  14.276   9.394
99639SOL     OW  813  13.931   9.871  14.556
99639SOL    HW1  814  13.964   9.931  14.624
99639SOL    HW2  815  13.959   9.910  14.474
99640SOL     OW  816   1.314   6.799   2.222
99640SOL    HW1  817   1.386   6.753   2.176
99640SOL    HW2  818   1.285   6.736   2.288
99641SOL     OW  819   3.046   8.062  12.051
99641SOL    HW1  820   3.044   7.999  12.123
99641SOL    HW2  821   2.954   8.074  12.027
99642SOL     OW  822   0.879   9.838  10.305
99642SOL    HW1  823   0.876   9.753  10.348
99642SOL    HW2  824   0.950   9.885  10.348
99643SOL     OW  825   8.577  10.057   9.155
99643SOL    HW1  826   8.672  10.056   9.167
99643SOL    HW2  827   8.560   9.994   9.085
99644SOL     OW  828  14.003  10.589   0.028
99644SOL    HW1  829  13.924  10.639   0.009
99644SOL    HW2  830  14.050  10.641   0.093
99645SOL     OW  831  11.518  12.934   3.316
99645SOL    HW1  832  11.464  13.002   3.358
99645SOL    HW2  833  11.470  12.853   3.331
99646SOL     OW  834   1.804   3.475  14.426
99646SOL    HW1  835   1.775   3.564  14.409
99646SOL    HW2  836   1.886   3.467  14.377
99647SOL     OW  837   3.572   8.090   1.414
99647SOL    HW1  838   3.477   8.102   1.423
99647SOL    HW2  839   3.582   7.997   1.393
99648SOL     OW  840  14.799   9.615   8.406
99648SOL    HW1  841  14.853   9.631   8.483
99648SOL    HW2  842  14.755   9.533   8.425
99649SOL     OW  843   9.834   1.876  14.348
99649SOL    HW1  844   9.787   1.798  14.317
99649SOL    HW2  845   9.825   1.939  14.277
99650SOL     OW  846   2.059   9.751  14.785
99650SOL    HW1  847   2.032   9.686  14.720
99650SOL    HW2  848   2.104   9.818  14.734
99651SOL     OW  849   5.113  11.848   2.419
99651SOL    HW1  850   5.037  11.903   2.400
99651SOL    HW2  851   5.172  11.862   2.345
99652SOL     OW  852   5.028   9.758  10.299
99652SOL    HW1  853   5.080   9.753  10.380
99652SOL    HW2  854   5.087   9.801  10.236
99653SOL     OW  855   3.566  12.471  12.242
99653SOL    HW1  856   3.501  12.427  12.297
99653SOL    HW2  857   3.645  12.418  12.251
99654SOL     OW  858  13.162  11.230   2.827
99654SOL    HW1  859  13.249  11.263   2.847
99654SOL    HW2  860  13.121  11.298   2.774
99655SOL     OW  861   8.551   5.151   8.248
99655SOL    HW1  862   8.476   5.094   8.231
99655SOL    HW2  863   8.626   5.104   8.210
99656SOL     OW  864   7.721  11.467  14.597
99656SOL    HW1  865   7.627  11.447  14.596
99656SOL    HW2  866   7.763  11.385  14.571
99657SOL     OW  867  11.903   3.357  10.485
99657SOL    HW1  868  11.854   3.436  10.462
99657SOL    HW2  869  11.835   3.289  10.492
99658SOL     OW  870   1.603  11.692   3.621
99658SOL    HW1  871   1.611  11.598   3.606
99658SOL    HW2  872   1.665  11.710   3.691
99659SOL     OW  873   1.641   1.558   0.045
99659SOL    HW1  874   1.680   1.610  14.846
99659SOL    HW2  875   1.689   1.584   0.123
99660SOL     OW  876  14.755   2.431   0.981
99660SOL    HW1  877  14.841   2.466   0.957
99660SOL    HW2  878  14.708   2.426   0.898
99661SOL     OW  879   4.504   7.084  10.962
99661SOL    HW1  880   4.512   7.051  11.052
99661SOL    HW2  881   4.556   7.165  10.962
99662SOL     OW  882   6.289   6.100  11.827
99662SOL    HW1  883   6.213   6.119  11.772
99662SOL    HW2  884   6.364   6.131  11.776
99663SOL     OW  885  10.557   2.304   4.882
99663SOL    HW1  886  10.590   2.218   4.857
99663SOL    HW2  887  10.517   2.291   4.968
99664SOL     OW  888  14.261  13.435   3.418
99664SOL    HW1  889  14.179  13.391   3.394
99664SOL    HW2  890  14.291  13.388   3.495
99665SOL     OW  891   5.144   7.152   5.725
99665SOL    HW1  892   5.211   7.205   5.681
99665SOL    HW2  893   5.066   7.207   5.723
99666SOL     OW  894   2.346  13.560  13.153
99666SOL    HW1  895   2.312  13.473  13.177
99666SOL    HW2  896   2.277  13.621  13.179
99667SOL     OW  897   6.703  14.173   8.995
99667SOL    HW1  898   6.609  14.152   8.992
99667SOL    HW2  899   6.732  14.142   9.081
99668SOL     OW  900  10.901   8.452   7.202
99668SOL    HW1  901  10.860   8.519   7.147
99668SOL    HW2  902  10.837   8.437   7.272
99669SOL     OW  903  11.268  10.528   3.221
99669SOL    HW1  904  11.194  10.482   3.260
99669SOL    HW2  905  11.344  10.472   3.239
99670SOL     OW  906   5.905   7.339  11.489
99670SOL    HW1  907   5.882   7.379  11.573
99670SOL    HW2  908   5.987   7.293  11.505
99671SOL     OW  909  12.229  13.817  12.468
99671SOL    HW1  910  12.176  13.858  12.399
99671SOL    HW2  911  12.198  13.859  12.549
99672SOL     OW  912   3.741   3.593   4.857
99672SOL    HW1  913   3.721   3.686   4.848
99672SOL    HW2  914   3.836   3.587   4.851
99673SOL     OW  915   5.140  14.336   5.588
99673SOL    HW1  916   5.082  14.279   5.639
99673SOL    HW2  917   5.218  14.346   5.642
99674SOL     OW  918   5.022  14.638  12.032
99674SOL    HW1  919   5.116  14.650  12.027
99674SOL    HW2  920   5.002  14.577  11.961
99675SOL     OW  921   1.434   5.723  11.862
99675SOL    HW1  922   1.428   5.630  11.886
99675SOL    HW2  923   1.512   5.754  11.909
99676SOL     OW  924  10.668  13.658   8.854
99676SOL    HW1  925  10.615  13.731   8.821
99676SOL    HW2  926  10.612  13.581   8.843
99677SOL     OW  927   7.001  12.067   1.795
99677SOL    HW1  928   6.975  12.085   1.885
99677SOL    HW2  929   7.088  12.106   1.786
99678SOL     OW  930  12.837   8.506   1.477
99678SOL    HW1  931  12.780   8.430   1.486
99678SOL    HW2  932  12.906   8.478   1.416
99679SOL     OW  933   1.313   6.528  10.397
99679SOL    HW1  934   1.300   6.460  10.463
99679SOL    HW2  935   1.266   6.497  10.320
99680SOL     OW  936   5.165  14.357   6.091
99680SOL    HW1  937   5.241  14.336   6.037
99680SOL    HW2  938   5.200  14.413   6.160
99681SOL     OW  939  10.103  12.864  11.337
99681SOL    HW1  940  10.115  12.941  11.281
99681SOL    HW2  941  10.056  12.896  11.413
99682SOL     OW  942   1.827  14.871  10.931
99682SOL    HW1  943   1.789   0.034  10.851
99682SOL    HW2  944   1.917  14.848  10.907
99683SOL     OW  945  14.326   5.385  10.821
99683SOL    HW1  946  14.254   5.334  10.784
99683SOL    HW2  947  14.330   5.357  10.913
99684SOL     OW  948   2.639   3.840   9.950
99684SOL    HW1  949   2.700   3.780   9.993
99684SOL    HW2  950   2.661   3.834   9.857
99685SOL     OW  951  11.817   1.089  13.549
99685SOL    HW1  952  11.771   1.173  13.555
99685SOL    HW2  953  11.771   1.042  13.480
99686SOL     OW  954   8.295  14.491   6.738
99686SOL    HW1  955   8.200  14.476   6.738
99686SOL    HW2  956   8.329  14.430   6.673
99687SOL     OW  957   6.055   3.715   0.385
99687SOL    HW1  958   6.008   3.777   0.330
99687SOL    HW2  959   6.047   3.632   0.339
99688SOL     OW  960   5.339  14.503   2.460
99688SOL    HW1  961   5.264  14.563   2.464
99688SOL    HW2  962   5.308  14.424   2.504
99689SOL     OW  963   7.440   4.496  12.276
99689SOL    HW1  964   7.444   4.416  12.224
99689SOL    HW2  965   7.414   4.467  12.364
99690SOL     OW  966  12.457   3.400   4.063
99690SOL    HW1  967  12.375   3.382   4.017
99690SOL    HW2  968  12.491   3.314   4.087
99691SOL     OW  969   9.297   8.372  13.955
99691SOL    HW1  970   9.305   8.319  13.876
99691SOL    HW2  971   9.230   8.437  13.935
99692SOL     OW  972   6.637  14.721   9.730
99692SOL    HW1  973   6.598  14.633   9.730
99692SOL    HW2  974   6.674  14.730   9.818
99693SOL     OW  975   1.875   7.597  13.462
99693SOL    HW1  976   1.887   7.687  13.434
99693SOL    HW2  977   1.797   7.599  13.518
99694SOL     OW  978  11.603   7.864  12.023
99694SOL    HW1  979  11.570   7.830  11.940
99694SOL    HW2  980  11.526   7.898  12.068
99695SOL     OW  981  12.098  13.906   1.206
99695SOL    HW1  982  12.117  13.880   1.296
99695SOL    HW2  983  12.005  13.889   1.195
99696SOL     OW  984  10.420   5.361   4.041
99696SOL    HW1  985  10.377   5.422   4.102
99696SOL    HW2  986  10.513   5.376   4.055
99697SOL     OW  987   0.909   4.336  13.921
99697SOL    HW1  988   0.992   4.367  13.958
99697SOL    HW2  989   0.852   4.325  13.997
99698SOL     OW  990  13.415   2.598   5.510
99698SOL    HW1  991  13.395   2.656   5.584
99698SOL    HW2  992  13.333   2.593   5.461
99699SOL     OW  993   5.530   9.553   7.645
99699SOL    HW1  994   5.448   9.564   7.693
99699SOL    HW2  995   5.503   9.532   7.556
99700SOL     OW  996   7.281   1.616   7.817
99700SOL    HW1  997   7.350   1.552   7.799
99700SOL    HW2  998   7.247   1.590   7.903
99701SOL     OW  999   8.345   4.503   7.143
99701SOL    HW1 1000   8.262   4.549   7.136
99701SOL    HW2 1001   8.321   4.410   7.145
99702SOL     OW 1002   4.721   7.485  11.550
99702SOL    HW1 1003   4.787   7.415  11.553
99702SOL    HW2 1004   4.694   7.489  11.459
99703SOL     OW 1005   7.786   8.624   2.050
99703SOL    HW1 1006   7.877   8.632   2.079
99703SOL    HW2 1007   7.743   8.574   2.119
99704SOL     OW 1008  11.617   8.265   6.249
99704SOL    HW1 1009  11.675   8.215   6.307
99704SOL    HW2 1010  11.675   8.300   6.181
99705SOL     OW 1011  13.367   3.851   7.303
99705SOL    HW1 1012  13.405   3.787   7.243
99705SOL    HW2 1013  13.415   3.840   7.385
99706SOL     OW 1014   7.863   9.019   1.879
99706SOL    HW1 1015   7.951   9.046   1.906
99706SOL    HW2 1016   7.873   8.927   1.856
99707SOL     OW 1017   3.075   3.420   6.633
99707SOL    HW1 1018   3.101   3.512   6.638
99707SOL    HW2 1019   3.037   3.410   6.546
99708SOL     OW 1020   6.343   4.526  12.563
99708SOL    HW1 1021   6.358   4.464  12.634
99708SOL    HW2 1022   6.285   4.592  12.601
99709SOL     OW 1023   6.666   1.213   3.122
99709SOL    HW1 1024   6.579   1.251   3.130
99709SOL    HW2 1025   6.699   1.210   3.212
99710SOL     OW 1026  11.324   3.727   6.967
99710SOL    HW1 1027  11.349   3.817   6.950
99710SOL    HW2 1028  11.371   3.703   7.047
99711SOL     OW 1029  12.072   3.942   0.053
99711SOL    HW1 1030  12.006   3.953  14.855
99711SOL    HW2 1031  12.070   3.848   0.073
99712SOL     OW 1032   7.577   5.947   2.428
99712SOL    HW1 1033   7.620   6.031   2.442
99712SOL    HW2 1034   7.580   5.934   2.333
99713SOL     OW 1035   8.625   5.775  12.422
99713SOL    HW1 1036   8.591   5.850  12.375
99713SOL    HW2 1037   8.687   5.811  12.485
99714SOL     OW 1038   9.512   3.060  13.434
99714SOL    HW1 1039   9.495   3.148  13.398
99714SOL    HW2 1040   9.505   3.002  13.358
99715SOL     OW 1041   9.714   8.483   2.931
99715SOL    HW1 1042   9.647   8.484   3.000
99715SOL    HW2 1043   9.766   8.562   2.946
99716SOL     OW 1044  13.129  13.573   9.765
99716SOL    HW1 1045  13.216  13.553   9.732
99716SOL    HW2 1046  13.097  13.645   9.710
99717SOL     OW 1047   2.880  12.244   6.338
99717SOL    HW1 1048   2.805  12.216   6.286
99717SOL    HW2 1049   2.952  12.250   6.275
99718SOL     OW 1050   6.413   9.845   7.490
99718SOL    HW1 1051   6.354   9.770   7.489
99718SOL    HW2 1052   6.405   9.884   7.403
99719SOL     OW 1053  13.524   6.312   0.157
99719SOL    HW1 1054  13.522   6.216   0.162
99719SOL    HW2 1055  13.432   6.338   0.156
99720SOL     OW 1056   4.279   3.238  10.704
99720SOL    HW1 1057   4.347   3.303  10.686
99720SOL    HW2 1058   4.238   3.221  10.619
99721SOL     OW 1059  10.637   1.738  13.118
99721SOL    HW1 1060  10.605   1.792  13.190
99721SOL    HW2 1061  10.565   1.741  13.054
99722SOL     OW 1062   9.744   7.443   0.395
99722SOL    HW1 1063   9.683   7.383   0.352
99722SOL    HW2 1064   9.784   7.492   0.323
99723SOL     OW 1065   1.660   5.130  14.768
99723SOL    HW1 1066   1.653   5.040  14.802
99723SOL    HW2 1067   1.593   5.179  14.815
99724SOL     OW 1068   4.701   0.532  10.972
99724SOL    HW1 1069   4.762   0.603  10.951
99724SOL    HW2 1070   4.665   0.555  11.058
99725SOL     OW 1071   0.542   6.678  10.985
99725SOL    HW1 1072   0.549   6.690  10.891
99725SOL    HW2 1073   0.481   6.746  11.014
99726SOL     OW 1074   2.903  10.228   0.283
99726SOL    HW1 1075   2.919  10.166   0.212
99726SOL    HW2 1076   2.880  10.309   0.239
99727SOL     OW 1077  10.714  11.999   4.179
99727SOL    HW1 1078  10.722  12.077   4.234
99727SOL    HW2 1079  10.801  11.988   4.140
99728SOL     OW 1080  10.137  14.022   5.877
99728SOL    HW1 1081  10.044  14.042   5.877
99728SOL    HW2 1082  10.142  13.928   5.860
99729SOL     OW 1083   6.814  14.390   5.087
99729SOL    HW1 1084   6.806  14.481   5.115
99729SOL    HW2 1085   6.831  14.341   5.168
99730SOL     OW 1086  10.552  13.225   0.656
99730SOL    HW1 1087  10.470  13.222   0.705
99730SOL    HW2 1088  10.526  13.222   0.564
99731SOL     OW 1089   1.087   2.366  14.568
99731SOL    HW1 1090   1.072   2.273  14.551
99731SOL    HW2 1091   1.007   2.410  14.537
99732SOL     OW 1092   7.017   0.345   1.944
99732SOL    HW1 1093   6.944   0.305   1.991
99732SOL    HW2 1094   7.006   0.439   1.958
99733SOL     OW 1095  12.327   3.097   5.771
99733SOL    HW1 1096  12.348   3.023   5.714
99733SOL    HW2 1097  12.411   3.124   5.807
99734SOL     OW 1098   6.757   3.859   6.745
99734SOL    HW1 1099   6.663   3.877   6.742
99734SOL    HW2 1100   6.766   3.789   6.810
99735SOL     OW 1101  11.184  10.264   2.914
99735SOL    HW1 1102  11.242  10.249   2.989
99735SOL    HW2 1103  11.182  10.180   2.868
99736SOL     OW 1104   0.804   4.688  12.900
99736SOL    HW1 1105   0.892   4.679  12.936
99736SOL    HW2 1106   0.788   4.605  12.855
99737SOL     OW 1107  13.664   0.729  10.468
99737SOL    HW1 1108  13.698   0.738  10.557
99737SOL    HW2 1109  13.619   0.644  10.468
99738SOL     OW 1110  10.174   0.529   1.408
99738SOL    HW1 1111  10.112   0.472   1.364
99738SOL    HW2 1112  10.212   0.474   1.477
99739SOL     OW 1113   1.700   5.352   5.741
99739SOL    HW1 1114   1.657   5.339   5.657
99739SOL    HW2 1115   1.792   5.367   5.718
99740SOL     OW 1116   6.135   3.441   9.962
99740SOL    HW1 1117   6.171   3.361  10.000
99740SOL    HW2 1118   6.122   3.499  10.037
99741SOL     OW 1119   0.136   4.264   4.014
99741SOL    HW1 1120   0.094   4.181   4.035
99741SOL    HW2 1121   0.229   4.248   4.029
99742SOL     OW 1122   5.572   5.370  14.178
99742SOL    HW1 1123   5.656   5.394  14.139
99742SOL    HW2 1124   5.549   5.287  14.137
99743SOL     OW 1125  10.354   6.795  10.495
99743SOL    HW1 1126  10.299   6.872  10.478
99743SOL    HW2 1127  10.329   6.766  10.583
99744SOL     OW 1128   3.497  12.577   8.419
99744SOL    HW1 1129   3.419  12.524   8.433
99744SOL    HW2 1130   3.524  12.558   8.330
99745SOL     OW 1131   3.026  11.686  10.490
99745SOL    HW1 1132   2.934  11.701  10.512
99745SOL    HW2 1133   3.024  11.634  10.410
99746SOL     OW 1134  14.466   0.446  12.780
99746SOL    HW1 1135  14.396   0.384  12.760
99746SOL    HW2 1136  14.505   0.413  12.862
99747SOL     OW 1137  13.110  10.292   0.772
99747SOL    HW1 1138  13.040  10.278   0.836
99747SOL    HW2 1139  13.190  10.295   0.824
99748SOL     OW 1140  13.935  14.678   2.486
99748SOL    HW1 1141  13.975  14.601   2.446
99748SOL    HW2 1142  13.961  14.751   2.430
99749SOL     OW 1143  11.815   6.910   4.410
99749SOL    HW1 1144  11.733   6.938   4.371
99749SOL    HW2 1145  11.872   6.891   4.335
99750SOL     OW 1146  11.441  10.577   3.581
99750SOL    HW1 1147  11.463  10.660   3.538
99750SOL    HW2 1148  11.512  10.563   3.644
99751SOL     OW 1149  13.381   2.502  12.279
99751SOL    HW1 1150  13.444   2.573  12.267
99751SOL    HW2 1151  13.420   2.447  12.348
99752SOL     OW 1152  12.483   2.826   9.505
99752SOL    HW1 1153  12.528   2.911   9.508
99752SOL    HW2 1154  12.413   2.838   9.442
99753SOL     OW 1155  12.569  11.722   2.095
99753SOL    HW1 1156  12.517  11.643   2.108
99753SOL    HW2 1157  12.576  11.731   2.000
99754SOL     OW 1158   1.397   1.487  13.594
99754SOL    HW1 1159   1.374   1.544  13.667
99754SOL    HW2 1160   1.328   1.420  13.593
99755SOL     OW 1161   1.348  13.222  11.056
99755SOL    HW1 1162   1.438  13.240  11.083
99755SOL    HW2 1163   1.346  13.127  11.044
99756SOL     OW 1164   4.160  10.796   4.831
99756SOL    HW1 1165   4.187  10.705   4.840
99756SOL    HW2 1166   4.120  10.800   4.743
99757SOL     OW 1167  12.085   5.066   4.178
99757SOL    HW1 1168  12.018   5.005   4.146
99757SOL    HW2 1169  12.152   5.010   4.216
99758SOL     OW 1170   2.879  11.932   1.210
99758SOL    HW1 1171   2.799  11.901   1.167
99758SOL    HW2 1172   2.945  11.865   1.191
99759SOL     OW 1173   8.759  14.235   3.134
99759SOL    HW1 1174   8.683  14.221   3.077
99759SOL    HW2 1175   8.807  14.306   3.092
99760SOL     OW 1176   8.567   7.500   2.741
99760SOL    HW1 1177   8.643   7.559   2.742
99760SOL    HW2 1178   8.597   7.423   2.789
99761SOL     OW 1179   3.698   5.699  12.594
99761SOL    HW1 1180   3.656   5.704  12.508
99761SOL    HW2 1181   3.792   5.696  12.574
99762SOL     OW 1182  12.880   3.859   2.575
99762SOL    HW1 1183  12.826   3.802   2.629
99762SOL    HW2 1184  12.956   3.806   2.552
99763SOL     OW 1185   5.123   1.976   3.594
99763SOL    HW1 1186   5.171   1.945   3.670
99763SOL    HW2 1187   5.044   2.016   3.630
99764SOL     OW 1188   0.805   6.232  13.058
99764SOL    HW1 1189   0.783   6.283  12.979
99764SOL    HW2 1190   0.862   6.163  13.026
99765SOL     OW 1191   3.636   0.105   6.473
99765SOL    HW1 1192   3.702   0.048   6.432
99765SOL    HW2 1193   3.684   0.150   6.543
99766SOL     OW 1194  10.636   8.569   5.604
99766SOL    HW1 1195  10.710   8.569   5.665
99766SOL    HW2 1196  10.559   8.584   5.658
99767SOL     OW 1197   5.414   1.093   4.947
99767SOL    HW1 1198   5.440   1.024   4.886
99767SOL    HW2 1199   5.443   1.174   4.905
99768SOL     OW 1200  14.312  11.337   6.326
99768SOL    HW1 1201  14.344  11.426   6.340
99768SOL    HW2 1202  14.341  11.288   6.403
99769SOL     OW 1203   7.700   0.788  10.841
99769SOL    HW1 1204   7.656   0.739  10.772
99769SOL    HW2 1205   7.688   0.734  10.920
99770SOL     OW 1206   7.598  11.821  14.025
99770SOL    HW1 1207   7.503  11.828  14.022
99770SOL    HW2 1208   7.626  11.895  14.079
99771SOL     OW 1209  10.940   2.737   6.441
99771SOL    HW1 1210  10.999   2.749   6.516
99771SOL    HW2 1211  10.876   2.673   6.471
99772SOL     OW 1212   3.605  11.027  13.721
99772SOL    HW1 1213   3.520  10.984  13.723
99772SOL    HW2 1214   3.638  11.010  13.633
99773SOL     OW 1215   9.063   3.147   2.616
99773SOL    HW1 1216   9.131   3.193   2.567
99773SOL    HW2 1217   9.029   3.212   2.678
99774SOL     OW 1218   9.089   1.820   8.925
99774SOL    HW1 1219   9.089   1.915   8.912
99774SOL    HW2 1220   9.055   1.808   9.013
99775SOL     OW 1221   2.369  11.672   5.092
99775SOL    HW1 1222   2.431  11.664   5.020
99775SOL    HW2 1223   2.341  11.763   5.090
99776SOL     OW 1224   7.667   4.245   5.754
99776SOL    HW1 1225   7.693   4.258   5.662
99776SOL    HW2 1226   7.621   4.162   5.754
99777SOL     OW 1227   9.800   2.855  12.200
99777SOL    HW1 1228   9.777   2.944  12.226
99777SOL    HW2 1229   9.823   2.862  12.107
99778SOL     OW 1230   5.409   8.862   3.675
99778SOL    HW1 1231   5.398   8.790   3.737
99778SOL    HW2 1232   5.440   8.821   3.595
99779SOL     OW 1233   3.135   0.316   8.824
99779SOL    HW1 1234   3.196   0.255   8.782
99779SOL    HW2 1235   3.059   0.262   8.846
99780SOL     OW 1236   7.646  10.292   9.574
99780SOL    HW1 1237   7.558  10.329   9.569
99780SOL    HW2 1238   7.666  10.267   9.484
99781SOL     OW 1239  12.305  12.606   1.848
99781SOL    HW1 1240  12.312  12.699   1.824
99781SOL    HW2 1241  12.393  12.583   1.879
99782SOL     OW 1242   5.883   9.653  11.976
99782SOL    HW1 1243   5.852   9.741  11.955
99782SOL    HW2 1244   5.979   9.659  11.971
99783SOL     OW 1245   0.645  13.423   2.532
99783SOL    HW1 1246   0.657  13.518   2.531
99783SOL    HW2 1247   0.587  13.406   2.606
99784SOL     OW 1248  11.248   2.009   3.849
99784SOL    HW1 1249  11.300   2.084   3.821
99784SOL    HW2 1250  11.313   1.944   3.877
99785SOL     OW 1251  11.655   0.251  10.197
99785SOL    HW1 1252  11.738   0.290  10.168
99785SOL    HW2 1253  11.679   0.198  10.273
99786SOL     OW 1254   8.860   2.261   7.106
99786SOL    HW1 1255   8.810   2.341   7.087
99786SOL    HW2 1256   8.903   2.279   7.190
99787SOL     OW 1257   2.136  13.913   8.822
99787SOL    HW1 1258   2.180  13.851   8.881
99787SOL    HW2 1259   2.179  13.997   8.840
99788SOL     OW 1260   2.586   1.090  14.750
99788SOL    HW1 1261   2.643   1.028  14.706
99788SOL    HW2 1262   2.596   1.070  14.843
99789SOL     OW 1263   2.273   8.981  10.392
99789SOL    HW1 1264   2.207   8.942  10.449
99789SOL    HW2 1265   2.301   8.909  10.335
99790SOL     OW 1266   9.405  14.727  12.691
99790SOL    HW1 1267   9.451  14.663  12.746
99790SOL    HW2 1268   9.472  14.758  12.630
99791SOL     OW 1269   2.186  14.353   0.281
99791SOL    HW1 1270   2.099  14.391   0.267
99791SOL    HW2 1271   2.174  14.292   0.354
99792SOL     OW 1272  12.565   9.737   4.506
99792SOL    HW1 1273  12.521   9.660   4.469
99792SOL    HW2 1274  12.642   9.749   4.451
99793SOL     OW 1275   0.300   8.975  12.490
99793SOL    HW1 1276   0.389   8.990  12.523
99793SOL    HW2 1277   0.247   8.962  12.568
99794SOL     OW 1278   7.240  13.006   0.658
99794SOL    HW1 1279   7.323  13.018   0.703
99794SOL    HW2 1280   7.178  12.980   0.727
99795SOL     OW 1281   7.821   2.087   7.087
99795SOL    HW1 1282   7.786   2.006   7.124
99795SOL    HW2 1283   7.835   2.144   7.163
99796SOL     OW 1284   8.641   4.079   3.145
99796SOL    HW1 1285   8.725   4.115   3.173
99796SOL    HW2 1286   8.599   4.151   3.097
99797SOL     OW 1287   2.471   9.223  12.072
99797SOL    HW1 1288   2.409   9.280  12.026
99797SOL    HW2 1289   2.443   9.227  12.164
99798SOL     OW 1290   4.852   3.131   3.923
99798SOL    HW1 1291   4.838   3.088   3.839
99798SOL    HW2 1292   4.831   3.223   3.907
99799SOL     OW 1293  11.721   1.686   0.599
99799SOL    HW1 1294  11.720   1.767   0.651
99799SOL    HW2 1295  11.656   1.630   0.641
99800SOL     OW 1296  14.768   4.574   4.250
99800SOL    HW1 1297  14.839   4.607   4.194
99800SOL    HW2 1298  14.812   4.516   4.312
99801SOL     OW 1299   0.276  11.054   5.503
99801SOL    HW1 1300   0.219  11.089   5.571
99801SOL    HW2 1301   0.261  11.111   5.427
99802SOL     OW 1302   9.034  10.713   8.749
99802SOL    HW1 1303   9.003  10.795   8.711
99802SOL    HW2 1304   9.119  10.735   8.786
99803SOL     OW 1305   9.430   2.493   6.261
99803SOL    HW1 1306   9.396   2.581   6.244
99803SOL    HW2 1307   9.367   2.435   6.217
99804SOL     OW 1308  12.637   0.104   7.523
99804SOL    HW1 1309  12.717   0.090   7.575
99804SOL    HW2 1310  12.639   0.197   7.501
99805SOL     OW 1311   8.289   5.801   2.371
99805SOL    HW1 1312   8.212   5.853   2.391
99805SOL    HW2 1313   8.362   5.849   2.409
99806SOL     OW 1314   8.857   9.074  13.273
99806SOL    HW1 1315   8.834   9.003  13.213
99806SOL    HW2 1316   8.848   9.154  13.222
99807SOL     OW 1317  12.826  13.833   1.542
99807SOL    HW1 1318  12.806  13.750   1.498
99807SOL    HW2 1319  12.742  13.861   1.580
99808SOL     OW 1320   4.661   0.872   6.544
99808SOL    HW1 1321   4.622   0.820   6.474
99808SOL    HW2 1322   4.669   0.810   6.617
99809SOL     OW 1323   9.119   5.848   3.290
99809SOL    HW1 1324   9.150   5.794   3.363
99809SOL    HW2 1325   9.030   5.871   3.313
99810SOL     OW 1326   9.524   0.710   3.824
99810SOL    HW1 1327   9.599   0.689   3.880
99810SOL    HW2 1328   9.480   0.626   3.811
99811SOL     OW 1329   0.958   1.852   0.095
99811SOL    HW1 1330   0.948   1.763   0.062
99811SOL    HW2 1331   1.007   1.897   0.026
99812SOL     OW 1332   3.004   1.838   5.062
99812SOL    HW1 1333   3.036   1.921   5.097
99812SOL    HW2 1334   2.982   1.856   4.971
99813SOL     OW 1335   6.794   8.435  10.573
99813SOL    HW1 1336   6.837   8.507  10.619
99813SOL    HW2 1337   6.738   8.395  10.640
99814SOL     OW 1338   2.031   8.396  14.516
99814SOL    HW1 1339   1.940   8.372  14.532
99814SOL    HW2 1340   2.038   8.404  14.421
99815SOL     OW 1341   6.003   4.768  13.546
99815SOL    HW1 1342   5.985   4.780  13.639
99815SOL    HW2 1343   5.930   4.716  13.513
99816SOL     OW 1344  14.605   5.228   5.212
99816SOL    HW1 1345  14.577   5.219   5.303
99816SOL    HW2 1346  14.652   5.147   5.193
99817SOL     OW 1347   9.124   4.037   5.639
99817SOL    HW1 1348   9.138   3.958   5.691
99817SOL    HW2 1349   9.177   4.104   5.682
99818SOL     OW 1350  13.783  12.130  14.588
99818SOL    HW1 1351  13.811  12.214  14.552
99818SOL    HW2 1352  13.786  12.142  14.683
99819SOL     OW 1353   5.495   9.791  14.373
99819SOL    HW1 1354   5.565   9.747  14.420
99819SOL    HW2 1355   5.530   9.877  14.351
99820SOL     OW 1356   7.476   2.821  13.290
99820SOL    HW1 1357   7.545   2.887  13.289
99820SOL    HW2 1358   7.479   2.781  13.203
99821SOL     OW 1359   2.031  14.657   5.430
99821SOL    HW1 1360   1.952  14.603   5.440
99821SOL    HW2 1361   2.099  14.594   5.405
99822SOL     OW 1362   8.579   8.630   0.232
99822SOL    HW1 1363   8.640   8.564   0.266
99822SOL    HW2 1364   8.627   8.673   0.161
99823SOL     OW 1365   8.093   4.972  12.960
99823SOL    HW1 1366   8.185   4.996  12.954
99823SOL    HW2 1367   8.064   4.966  12.868
99824SOL     OW 1368  12.097  14.199  14.217
99824SOL    HW1 1369  12.156  14.239  14.153
99824SOL    HW2 1370  12.075  14.270  14.277
99825SOL     OW 1371   1.178   2.360   7.491
99825SOL    HW1 1372   1.133   2.413   7.424
99825SOL    HW2 1373   1.138   2.386   7.573
99826SOL     OW 1374   7.754   3.060  12.305
99826SOL    HW1 1375   7.717   2.976  12.275
99826SOL    HW2 1376   7.848   3.046  12.305
99827SOL     OW 1377  14.706   7.180   4.115
99827SOL    HW1 1378  14.754   7.097   4.108
99827SOL    HW2 1379  14.762   7.236   4.168
99828SOL     OW 1380   4.988   4.012  11.074
99828SOL    HW1 1381   5.003   3.936  11.018
99828SOL    HW2 1382   4.949   3.975  11.153
99829SOL     OW 1383   1.514  10.636   5.881
99829SOL    HW1 1384   1.528  10.551   5.839
99829SOL    HW2 1385   1.575  10.695   5.836
99830SOL     OW 1386   8.202   1.512   9.685
99830SOL    HW1 1387   8.178   1.456   9.758
99830SOL    HW2 1388   8.260   1.458   9.631
99831SOL     OW 1389   2.523   9.872   2.378
99831SOL    HW1 1390   2.451   9.918   2.334
99831SOL    HW2 1391   2.602   9.902   2.333
99832SOL     OW 1392   9.391   6.931  13.559
99832SOL    HW1 1393   9.303   6.917  13.595
99832SOL    HW2 1394   9.445   6.953  13.634
99833SOL     OW 1395   9.022   7.323   4.668
99833SOL    HW1 1396   8.964   7.396   4.691
99833SOL    HW2 1397   9.071   7.305   4.749
99834SOL     OW 1398   3.923   8.176  12.443
99834SOL    HW1 1399   3.989   8.142  12.503
99834SOL    HW2 1400   3.953   8.264  12.420
99835SOL     OW 1401   7.171   1.801  14.342
99835SOL    HW1 1402   7.228   1.839  14.408
99835SOL    HW2 1403   7.226   1.793  14.264
99836SOL     OW 1404   2.147   9.145  10.094
99836SOL    HW1 1405   2.058   9.147  10.129
99836SOL    HW2 1406   2.158   9.230  10.051
99837SOL     OW 1407   7.102   7.775  13.276
99837SOL    HW1 1408   7.042   7.725  13.332
99837SOL    HW2 1409   7.055   7.857  13.259
99838SOL     OW 1410  12.280  12.443   6.231
99838SOL    HW1 1411  12.220  12.401   6.293
99838SOL    HW2 1412  12.223  12.475   6.161
99839SOL     OW 1413   8.954   9.836   7.797
99839SOL    HW1 1414   8.978   9.927   7.814
99839SOL    HW2 1415   8.861   9.831   7.820
99840SOL     OW 1416  10.472   5.013   8.926
99840SOL    HW1 1417  10.484   4.920   8.905
99840SOL    HW2 1418  10.384   5.033   8.895
99841SOL     OW 1419  10.184  14.746   7.495
99841SOL    HW1 1420  10.161  14.838   7.495
99841SOL    HW2 1421  10.264  14.740   7.547
99842SOL     OW 1422   8.705   0.316  10.330
99842SOL    HW1 1423   8.722   0.249  10.264
99842SOL    HW2 1424   8.781   0.314  10.387
99843SOL     OW 1425   1.966   6.439  13.062
99843SOL    HW1 1426   2.035   6.419  12.999
99843SOL    HW2 1427   1.922   6.516  13.026
99844SOL     OW 1428   2.167  12.573  13.622
99844SOL    HW1 1429   2.134  12.540  13.706
99844SOL    HW2 1430   2.198  12.495  13.576
99845SOL     OW 1431  14.250  14.404   5.582
99845SOL    HW1 1432  14.341  14.429   5.566
99845SOL    HW2 1433  14.202  14.444   5.510
99846SOL     OW 1434   0.017  13.600   0.137
99846SOL    HW1 1435   0.081  13.648   0.083
99846SOL    HW2 1436   0.041  13.508   0.125
99847SOL     OW 1437   5.540   4.163   2.379
99847SOL    HW1 1438   5.471   4.200   2.435
99847SOL    HW2 1439   5.582   4.239   2.340
99848SOL     OW 1440  13.491   2.538   9.118
99848SOL    HW1 1441  13.581   2.571   9.116
99848SOL    HW2 1442  13.436   2.614   9.102
99849SOL     OW 1443  14.215   8.356   8.471
99849SOL    HW1 1444  14.146   8.298   8.439
99849SOL    HW2 1445  14.294   8.329   8.424
99850SOL     OW 1446  13.745   9.179   0.743
99850SOL    HW1 1447  13.651   9.165   0.734
99850SOL    HW2 1448  13.785   9.106   0.696
99851SOL     OW 1449   1.821   7.361   9.854
99851SOL    HW1 1450   1.858   7.449   9.862
99851SOL    HW2 1451   1.727   7.373   9.871
99852SOL     OW 1452   8.432   0.522  10.034
99852SOL    HW1 1453   8.340   0.497  10.049
99852SOL    HW2 1454   8.427   0.599   9.978
99853SOL     OW 1455  11.797  14.533   2.795
99853SOL    HW1 1456  11.799  14.591   2.719
99853SOL    HW2 1457  11.707  14.502   2.800
99854SOL     OW 1458   6.391   0.297   6.192
99854SOL    HW1 1459   6.401   0.224   6.130
99854SOL    HW2 1460   6.387   0.254   6.277
99855SOL     OW 1461   6.073   7.750   7.646
99855SOL    HW1 1462   5.999   7.806   7.623
99855SOL    HW2 1463   6.072   7.680   7.581
99856SOL     OW 1464   1.321  10.769  14.833
99856SOL    HW1 1465   1.291  10.837  14.772
99856SOL    HW2 1466   1.240  10.725  14.860
99857SOL     OW 1467   1.046   9.338   8.155
99857SOL    HW1 1468   1.072   9.422   8.191
99857SOL    HW2 1469   0.967   9.356   8.105
99858SOL     OW 1470  14.666  12.418   0.592
99858SOL    HW1 1471  14.714  12.385   0.668
99858SOL    HW2 1472  14.701  12.367   0.518
99859SOL     OW 1473   7.620   0.034   8.956
99859SOL    HW1 1474   7.532   0.009   8.927
99859SOL    HW2 1475   7.677   0.008   8.883
99860SOL     OW 1476   0.151   6.807   0.565
99860SOL    HW1 1477   0.062   6.772   0.572
99860SOL    HW2 1478   0.170   6.806   0.471
99861SOL     OW 1479  14.586  10.320   9.333
99861SOL    HW1 1480  14.509  10.266   9.320
99861SOL    HW2 1481  14.646  10.294   9.263
99862SOL     OW 1482   8.212   8.557   9.422
99862SOL    HW1 1483   8.269   8.579   9.496
99862SOL    HW2 1484   8.245   8.473   9.390
99863SOL     OW 1485   9.169  10.344   3.371
99863SOL    HW1 1486   9.162  10.422   3.426
99863SOL    HW2 1487   9.152  10.271   3.430
99864SOL     OW 1488   9.106  12.534   8.159
99864SOL    HW1 1489   9.173  12.483   8.113
99864SOL    HW2 1490   9.057  12.577   8.089
99865SOL     OW 1491  11.307   4.743  11.277
99865SOL    HW1 1492  11.284   4.686  11.204
99865SOL    HW2 1493  11.369   4.806  11.240
99866SOL     OW 1494   6.933   2.372   0.401
99866SOL    HW1 1495   6.909   2.411   0.485
99866SOL    HW2 1496   7.018   2.331   0.417
99867SOL     OW 1497   4.362   8.771   2.063
99867SOL    HW1 1498   4.390   8.686   2.097
99867SOL    HW2 1499   4.329   8.751   1.975
99868SOL     OW 1500   0.011   5.283  12.192
99868SOL    HW1 1501  14.838   5.218  12.137
99868SOL    HW2 1502   0.003   5.365  12.144
99869SOL     OW 1503  10.825  11.842  14.639
99869SOL    HW1 1504  10.812  11.789  14.718
99869SOL    HW2 1505  10.894  11.904  14.663
99870SOL     OW 1506  10.063  13.715   4.375
99870SOL    HW1 1507   9.971  13.703   4.399
99870SOL    HW2 1508  10.080  13.646   4.310
99871SOL     OW 1509   6.536  14.046   9.740
99871SOL    HW1 1510   6.476  14.020   9.669
99871SOL    HW2 1511   6.482  14.098   9.799
99872SOL     OW 1512  12.383  10.021   9.635
99872SOL    HW1 1513  12.475  10.039   9.655
99872SOL    HW2 1514  12.343  10.003   9.720
99873SOL     OW 1515   6.394   0.624  12.471
99873SOL    HW1 1516   6.443   0.691  12.423
99873SOL    HW2 1517   6.429   0.628  12.560
99874SOL     OW 1518   7.239   1.433   0.983
99874SOL    HW1 1519   7.254   1.432   0.888
99874SOL    HW2 1520   7.275   1.350   1.013
99875SOL     OW 1521   4.346   3.540   7.330
99875SOL    HW1 1522   4.284   3.556   7.259
99875SOL    HW2 1523   4.295   3.554   7.410
99876SOL     OW 1524   0.404  10.032  14.491
99876SOL    HW1 1525   0.461  10.109  14.503
99876SOL    HW2 1526   0.316  10.068  14.491
99877SOL     OW 1527  10.957   5.984   1.416
99877SOL    HW1 1528  10.993   6.071   1.402
99877SOL    HW2 1529  10.882   5.979   1.357
99878SOL     OW 1530   3.754   0.778   1.786
99878SOL    HW1 1531   3.688   0.802   1.850
99878SOL    HW2 1532   3.744   0.684   1.774
99879SOL     OW 1533   5.466   6.455  10.943
99879SOL    HW1 1534   5.419   6.372  10.938
99879SOL    HW2 1535   5.517   6.458  10.862
99880SOL     OW 1536   9.017   9.369   0.337
99880SOL    HW1 1537   8.936   9.329   0.305
99880SOL    HW2 1538   9.080   9.297   0.337
99881SOL     OW 1539  12.913  13.960  14.377
99881SOL    HW1 1540  12.946  13.923  14.459
99881SOL    HW2 1541  12.914  14.054  14.391
99882SOL     OW 1542  12.332  13.151   0.361
99882SOL    HW1 1543  12.320  13.246   0.367
99882SOL    HW2 1544  12.275  13.124   0.288
99883SOL     OW 1545   9.656   0.637   8.684
99883SOL    HW1 1546   9.583   0.698   8.684
99883SOL    HW2 1547   9.730   0.687   8.649
99884SOL     OW 1548  10.422  14.278   2.714
99884SOL    HW1 1549  10.366  14.313   2.645
99884SOL    HW2 1550  10.368  14.215   2.761
99885SOL     OW 1551   9.510  11.222   2.447
99885SOL    HW1 1552   9.574  11.164   2.489
99885SOL    HW2 1553   9.459  11.165   2.390
99886SOL     OW 1554   1.446  14.861   7.258
99886SOL    HW1 1555   1.486   0.070   7.288
99886SOL    HW2 1556   1.487  14.792   7.311
99887SOL     OW 1557   9.269   6.135  11.532
99887SOL    HW1 1558   9.313   6.191  11.597
99887SOL    HW2 1559   9.237   6.060  11.583
99888SOL     OW 1560   3.815  11.132   3.223
99888SOL    HW1 1561   3.844  11.216   3.187
99888SOL    HW2 1562   3.861  11.124   3.307
99889SOL     OW 1563  10.502   6.566   7.439
99889SOL    HW1 1564  10.529   6.477   7.464
99889SOL    HW2 1565  10.579   6.602   7.395
99890SOL     OW 1566  13.390   3.286   2.910
99890SOL    HW1 1567  13.443   3.238   2.847
99890SOL    HW2 1568  13.305   3.242   2.909
99891SOL     OW 1569   6.692   9.277   3.407
99891SOL    HW1 1570   6.761   9.216   3.381
99891SOL    HW2 1571   6.615   9.223   3.422
99892SOL     OW 1572  11.270  13.268   2.655
99892SOL    HW1 1573  11.246  13.246   2.565
99892SOL    HW2 1574  11.344  13.211   2.675
99893SOL     OW 1575   8.788   3.652  10.571
99893SOL    HW1 1576   8.699   3.619  10.557
99893SOL    HW2 1577   8.845   3.581  10.543
99894SOL     OW 1578  10.055  12.079   8.225
99894SOL    HW1 1579  10.106  12.121   8.155
99894SOL    HW2 1580  10.100  11.996   8.241
99895SOL     OW 1581   0.236  11.007  13.459
99895SOL    HW1 1582   0.262  11.037  13.546
99895SOL    HW2 1583   0.252  11.082  13.402
99896SOL     OW 1584   4.742   9.809  13.773
99896SOL    HW1 1585   4.828   9.776  13.799
99896SOL    HW2 1586   4.759   9.861  13.694
99897SOL     OW 1587   9.064   1.163   7.560
99897SOL    HW1 1588   9.008   1.119   7.624
99897SOL    HW2 1589   9.153   1.151   7.593
99898SOL     OW 1590  14.135   5.192  14.805
99898SOL    HW1 1591  14.169   5.103  14.797
99898SOL    HW2 1592  14.170   5.224   0.016
99899SOL     OW 1593   0.841   2.222   9.404
99899SOL    HW1 1594   0.890   2.169   9.341
99899SOL    HW2 1595   0.824   2.304   9.358
99900SOL     OW 1596   7.287   6.910   2.335
99900SOL    HW1 1597   7.337   6.911   2.417
99900SOL    HW2 1598   7.313   6.829   2.291
99901SOL     OW 1599  11.450   6.221  13.859
99901SOL    HW1 1600  11.520   6.266  13.907
99901SOL    HW2 1601  11.495   6.173  13.790
99902SOL     OW 1602   9.016   8.790   3.614
99902SOL    HW1 1603   8.973   8.845   3.679
99902SOL    HW2 1604   9.030   8.707   3.659
99903SOL     OW 1605  14.054  11.871  10.310
99903SOL    HW1 1606  14.026  11.962  10.295
99903SOL    HW2 1607  13.997  11.840  10.380
99904SOL     OW 1608  11.466   7.100   1.407
99904SOL    HW1 1609  11.489   7.136   1.322
99904SOL    HW2 1610  11.464   7.005   1.394
99905SOL     OW 1611  11.601  10.100  11.837
99905SOL    HW1 1612  11.695  10.096  11.852
99905SOL    HW2 1613  11.588  10.057  11.752
99906SOL     OW 1614   4.099   7.676   6.810
99906SOL    HW1 1615   4.146   7.758   6.824
99906SOL    HW2 1616   4.061   7.655   6.895
99907SOL     OW 1617   9.164  14.299  10.282
99907SOL    HW1 1618   9.184  14.207  10.266
99907SOL    HW2 1619   9.145  14.303  10.376
99908SOL     OW 1620  13.431   6.134   3.963
99908SOL    HW1 1621  13.470   6.074   3.899
99908SOL    HW2 1622  13.342   6.102   3.975
99909SOL     OW 1623  10.595   5.985   9.560
99909SOL    HW1 1624  10.616   5.993   9.467
99909SOL    HW2 1625  10.612   5.893   9.580
99910SOL     OW 1626  10.186   5.443   1.994
99910SOL    HW1 1627  10.273   5.482   1.982
99910SOL    HW2 1628  10.185   5.368   1.934
99911SOL     OW 1629  11.497   8.382   2.242
99911SOL    HW1 1630  11.434   8.313   2.266
99911SOL    HW2 1631  11.445   8.445   2.192
99912SOL     OW 1632  13.924  10.330  14.793
99912SOL    HW1 1633  13.972  10.296  14.868
99912SOL    HW2 1634  13.914  10.423  14.811
99913SOL     OW 1635  13.681  13.291   5.965
99913SOL    HW1 1636  13.719  13.204   5.958
99913SOL    HW2 1637  13.587  13.277   5.964
99914SOL     OW 1638  10.877   1.439   7.144
99914SOL    HW1 1639  10.813   1.479   7.203
99914SOL    HW2 1640  10.825   1.408   7.070
99915SOL     OW 1641   0.392  14.212  14.721
99915SOL    HW1 1642   0.358  14.300  14.702
99915SOL    HW2 1643   0.390  14.167  14.636
99916SOL     OW 1644  13.015  10.208   8.016
99916SOL    HW1 1645  13.077  10.156   8.067
99916SOL    HW2 1646  12.945  10.229   8.077
99917SOL     OW 1647   6.132  12.424   9.300
99917SOL    HW1 1648   6.141  12.329   9.291
99917SOL    HW2 1649   6.097  12.452   9.216
99918SOL     OW 1650  13.006  13.778   6.282
99918SOL    HW1 1651  13.032  13.698   6.327
99918SOL    HW2 1652  12.916  13.761   6.253
99919SOL     OW 1653  13.070   6.860   5.548
99919SOL    HW1 1654  13.003   6.831   5.486
99919SOL    HW2 1655  13.108   6.937   5.507
99920SOL     OW 1656   2.177   7.256   7.576
99920SOL    HW1 1657   2.105   7.315   7.553
99920SOL    HW2 1658   2.222   7.300   7.648
99921SOL     OW 1659   4.264  12.521   5.692
99921SOL    HW1 1660   4.170  12.538   5.689
99921SOL    HW2 1661   4.278  12.454   5.626
99922SOL     OW 1662   6.287   1.838   7.648
99922SOL    HW1 1663   6.337   1.893   7.709
99922SOL    HW2 1664   6.353   1.787   7.602
99923SOL     OW 1665   7.860  10.830   8.864
99923SOL    HW1 1666   7.777  10.803   8.825
99923SOL    HW2 1667   7.891  10.901   8.808
99924SOL     OW 1668  10.972  12.286   8.413
99924SOL    HW1 1669  11.037  12.356   8.426
99924SOL    HW2 1670  10.974  12.236   8.494
99925SOL     OW 1671   1.277   6.642  12.416
99925SOL    HW1 1672   1.345   6.692  12.460
99925SOL    HW2 1673   1.248   6.699  12.344
99926SOL     OW 1674   1.209   6.235   7.751
99926SOL    HW1 1675   1.275   6.263   7.814
99926SOL    HW2 1676   1.131   6.287   7.772
99927SOL     OW 1677  12.324  12.075  10.727
99927SOL    HW1 1678  12.269  12.029  10.791
99927SOL    HW2 1679  12.298  12.039  10.643
99928SOL     OW 1680   5.493  14.856  14.191
99928SOL    HW1 1681   5.564  14.796  14.210
99928SOL    HW2 1682   5.421  14.800  14.163
99929SOL     OW 1683   1.227  10.051  13.361
99929SOL    HW1 1684   1.316  10.062  13.327
99929SOL    HW2 1685   1.205  10.135  13.400
99930SOL     OW 1686   3.295   8.973  11.361
99930SOL    HW1 1687   3.356   9.003  11.294
99930SOL    HW2 1688   3.335   8.894  11.396
99931SOL     OW 1689  10.272   8.260   5.348
99931SOL    HW1 1690  10.313   8.339   5.313
99931SOL    HW2 1691  10.178   8.276   5.341
99932SOL     OW 1692   8.807  14.488   9.480
99932SOL    HW1 1693   8.718  14.510   9.506
99932SOL    HW2 1694   8.843  14.440   9.555
99933SOL     OW 1695  13.601   3.762   5.759
99933SOL    HW1 1696  13.607   3.784   5.666
99933SOL    HW2 1697  13.514   3.723   5.769
99934SOL     OW 1698   8.209  14.737   9.425
99934SOL    HW1 1699   8.149  14.812   9.422
99934SOL    HW2 1700   8.239  14.727   9.335
99935SOL     OW 1701   5.629   5.007   4.550
99935SOL    HW1 1702   5.611   4.925   4.504
99935SOL    HW2 1703   5.614   5.075   4.485
99936SOL     OW 1704  11.872   6.410   2.469
99936SOL    HW1 1705  11.872   6.314   2.468
99936SOL    HW2 1706  11.865   6.433   2.562
99937SOL     OW 1707  14.516   4.250   0.879
99937SOL    HW1 1708  14.518   4.334   0.833
99937SOL    HW2 1709  14.510   4.274   0.972
99938SOL     OW 1710   6.107   4.175   7.898
99938SOL    HW1 1711   6.048   4.126   7.955
99938SOL    HW2 1712   6.189   4.180   7.948
99939SOL     OW 1713   6.074   8.275   4.077
99939SOL    HW1 1714   5.982   8.253   4.059
99939SOL    HW2 1715   6.081   8.271   4.173
99940SOL     OW 1716  12.900  12.801   2.178
99940SOL    HW1 1717  12.871  12.793   2.088
99940SOL    HW2 1718  12.857  12.880   2.210
99941SOL     OW 1719   5.427   5.000  11.200
99941SOL    HW1 1720   5.428   5.084  11.246
99941SOL    HW2 1721   5.499   4.951  11.240
99942SOL     OW 1722   2.659  11.188   0.006
99942SOL    HW1 1723   2.699  11.101   0.009
99942SOL    HW2 1724   2.728  11.247   0.037
99943SOL     OW 1725   0.022   1.375   1.910
99943SOL    HW1 1726   0.073   1.455   1.897
99943SOL    HW2 1727  14.803   1.405   1.919
99944SOL     OW 1728   0.607   7.928   5.345
99944SOL    HW1 1729   0.674   7.996   5.333
99944SOL    HW2 1730   0.616   7.872   5.268
99945SOL     OW 1731   3.297   4.491  12.952
99945SOL    HW1 1732   3.232   4.548  12.993
99945SOL    HW2 1733   3.378   4.507  13.000
99946SOL     OW 1734   2.062  10.814  10.804
99946SOL    HW1 1735   2.109  10.812  10.720
99946SOL    HW2 1736   1.999  10.886  10.794
99947SOL     OW 1737   5.390   6.473   5.735
99947SOL    HW1 1738   5.427   6.535   5.672
99947SOL    HW2 1739   5.422   6.503   5.820
99948SOL     OW 1740   7.747  11.355   1.685
99948SOL    HW1 1741   7.827  11.305   1.703
99948SOL    HW2 1742   7.747  11.367   1.590
99949SOL     OW 1743   6.400   7.787  13.394
99949SOL    HW1 1744   6.378   7.754  13.308
99949SOL    HW2 1745   6.384   7.714  13.454
99950SOL     OW 1746   1.694   6.836   3.501
99950SOL    HW1 1747   1.672   6.849   3.593
99950SOL    HW2 1748   1.706   6.741   3.493
99951SOL     OW 1749   5.735   8.198   6.057
99951SOL    HW1 1750   5.758   8.116   6.099
99951SOL    HW2 1751   5.698   8.173   5.973
99952SOL     OW 1752   2.932  11.637   3.428
99952SOL    HW1 1753   2.895  11.695   3.362
99952SOL    HW2 1754   3.025  11.658   3.430
99953SOL     OW 1755   9.025   4.279   3.649
99953SOL    HW1 1756   9.104   4.323   3.683
99953SOL    HW2 1757   8.965   4.277   3.723
99954SOL     OW 1758   0.898   6.565   5.725
99954SOL    HW1 1759   0.954   6.504   5.774
99954SOL    HW2 1760   0.842   6.508   5.672
99955SOL     OW 1761  10.458   1.243   5.865
99955SOL    HW1 1762  10.442   1.197   5.948
99955SOL    HW2 1763  10.403   1.196   5.802
99956SOL     OW 1764   4.579   4.803   9.861
99956SOL    HW1 1765   4.542   4.723   9.823
99956SOL    HW2 1766   4.673   4.790   9.857
99957SOL     OW 1767  12.853   7.496   8.724
99957SOL    HW1 1768  12.762   7.524   8.727
99957SOL    HW2 1769  12.849   7.403   8.705
99958SOL     OW 1770   8.545   8.469   2.222
99958SOL    HW1 1771   8.587   8.554   2.238
99958SOL    HW2 1772   8.572   8.414   2.295
99959SOL     OW 1773   1.541  14.811  10.410
99959SOL    HW1 1774   1.512   0.031  10.413
99959SOL    HW2 1775   1.546  14.791  10.317
99960SOL     OW 1776   9.992  14.220   6.716
99960SOL    HW1 1777   9.966  14.199   6.626
99960SOL    HW2 1778   9.910  14.239   6.761
99961SOL     OW 1779   9.587   2.717   8.591
99961SOL    HW1 1780   9.622   2.790   8.539
99961SOL    HW2 1781   9.664   2.666   8.616
99962SOL     OW 1782   9.837  11.395   9.447
99962SOL    HW1 1783   9.800  11.311   9.420
99962SOL    HW2 1784   9.932  11.381   9.446
99963SOL     OW 1785   6.755   0.660   8.520
99963SOL    HW1 1786   6.828   0.699   8.471
99963SOL    HW2 1787   6.677   0.689   8.472
99964SOL     OW 1788   0.025   2.335  13.979
99964SOL    HW1 1789  14.870   2.266  13.919
99964SOL    HW2 1790  14.846   2.412  13.953
99965SOL     OW 1791  10.367   6.937   5.436
99965SOL    HW1 1792  10.362   7.004   5.504
99965SOL    HW2 1793  10.435   6.877   5.466
99966SOL     OW 1794  12.408   6.849   1.678
99966SOL    HW1 1795  12.338   6.875   1.618
99966SOL    HW2 1796  12.470   6.801   1.623
99967SOL     OW 1797   3.338   1.245   9.661
99967SOL    HW1 1798   3.315   1.170   9.606
99967SOL    HW2 1799   3.427   1.225   9.691
99968SOL     OW 1800   5.829  13.156  13.305
99968SOL    HW1 1801   5.903  13.159  13.366
99968SOL    HW2 1802   5.774  13.230  13.331
99969SOL     OW 1803  11.207   8.152   0.374
99969SOL    HW1 1804  11.142   8.132   0.307
99969SOL    HW2 1805  11.283   8.099   0.352
99970SOL     OW 1806   9.068   3.770  10.222
99970SOL    HW1 1807   8.977   3.778  10.250
99970SOL    HW2 1808   9.111   3.723  10.294
99971SOL     OW 1809   0.564   5.101   0.360
99971SOL    HW1 1810   0.550   5.147   0.277
99971SOL    HW2 1811   0.629   5.034   0.339
99972SOL     OW 1812   0.162   6.951  11.628
99972SOL    HW1 1813   0.112   7.029  11.602
99972SOL    HW2 1814   0.096   6.884  11.642
99973SOL     OW 1815  13.586   8.672  13.190
99973SOL    HW1 1816  13.527   8.747  13.188
99973SOL    HW2 1817  13.662   8.704  13.239
99974SOL     OW 1818  10.143   3.014   7.620
99974SOL    HW1 1819  10.166   2.921   7.615
99974SOL    HW2 1820  10.141   3.033   7.714
99975SOL     OW 1821   0.384   9.858  14.122
99975SOL    HW1 1822   0.461   9.802  14.128
99975SOL    HW2 1823   0.416   9.945  14.147
99976SOL     OW 1824   5.302   2.641  10.868
99976SOL    HW1 1825   5.324   2.579  10.799
99976SOL    HW2 1826   5.209   2.658  10.855
99977SOL     OW 1827   5.642   1.602   4.813
99977SOL    HW1 1828   5.675   1.544   4.882
99977SOL    HW2 1829   5.680   1.567   4.732
99978SOL     OW 1830  14.583  12.063   7.410
99978SOL    HW1 1831  14.676  12.082   7.393
99978SOL    HW2 1832  14.550  12.030   7.326
99979SOL     OW 1833  10.517   0.609  10.676
99979SOL    HW1 1834  10.563   0.577  10.754
99979SOL    HW2 1835  10.469   0.686  10.706
99980SOL     OW 1836   5.249  10.393   0.943
99980SOL    HW1 1837   5.273  10.316   0.891
99980SOL    HW2 1838   5.159  10.377   0.971
99981SOL     OW 1839  13.598  12.041   7.207
99981SOL    HW1 1840  13.504  12.049   7.197
99981SOL    HW2 1841  13.614  12.057   7.300
99982SOL     OW 1842   4.318   7.753  11.010
99982SOL    HW1 1843   4.239   7.799  10.981
99982SOL    HW2 1844   4.344   7.798  11.090
99983SOL     OW 1845   8.396   7.304   0.743
99983SOL    HW1 1846   8.375   7.255   0.663
99983SOL    HW2 1847   8.332   7.273   0.807
99984SOL     OW 1848  11.541  11.090  11.561
99984SOL    HW1 1849  11.556  11.002  11.528
99984SOL    HW2 1850  11.448  11.106  11.546
99985SOL     OW 1851   3.309   5.728   0.839
99985SOL    HW1 1852   3.252   5.679   0.780
99985SOL    HW2 1853   3.313   5.815   0.800
99986SOL     OW 1854   4.938   5.535  12.235
99986SOL    HW1 1855   4.967   5.481  12.162
99986SOL    HW2 1856   4.967   5.624  12.212
99987SOL     OW 1857   7.677   2.075  10.450
99987SOL    HW1 1858   7.693   1.996  10.502
99987SOL    HW2 1859   7.687   2.147  10.513
99988SOL     OW 1860  13.372   4.081   0.195
99988SOL    HW1 1861  13.351   4.060   0.286
99988SOL    HW2 1862  13.445   4.143   0.201
99989SOL     OW 1863  10.905   0.984  10.426
99989SOL    HW1 1864  10.844   1.058  10.415
99989SOL    HW2 1865  10.907   0.942  10.340
99990SOL     OW 1866  11.191   1.904  14.466
99990SOL    HW1 1867  11.256   1.955  14.418
99990SOL    HW2 1868  11.222   1.814  14.461
99991SOL     OW 1869   8.000   0.361   8.800
99991SOL    HW1 1870   7.944   0.389   8.728
99991SOL    HW2 1871   8.014   0.268   8.784
99992SOL     OW 1872  11.577   0.405   7.546
99992SOL    HW1 1873  11.522   0.459   7.490
99992SOL    HW2 1874  11.606   0.333   7.489
99993SOL     OW 1875   2.299   7.565   0.210
99993SOL    HW1 1876   2.330   7.649   0.243
99993SOL    HW2 1877   2.273   7.516   0.289
99994SOL     OW 1878   6.483   8.326  13.295
99994SOL    HW1 1879   6.406   8.318  13.239
99994SOL    HW2 1880   6.531   8.244  13.281
99995SOL     OW 1881  14.833  12.870   9.130
99995SOL    HW1 1882   0.032  12.814   9.096
99995SOL    HW2 1883  14.752  12.825   9.105
99996SOL     OW 1884   4.227   9.164  11.009
99996SOL    HW1 1885   4.141   9.134  11.041
99996SOL    HW2 1886   4.270   9.084  10.979
99997SOL     OW 1887   2.291   8.860   4.506
99997SOL    HW1 1888   2.370   8.807   4.508
99997SOL    HW2 1889   2.322   8.950   4.519
99998SOL     OW 1890  14.395  12.197   2.221
99998SOL    HW1 1891  14.426  12.157   2.140
99998SOL    HW2 1892  14.350  12.126   2.268
99999SOL     OW 1893  12.220   5.200   3.437
99999SOL    HW1 1894  12.208   5.286   3.477
99999SOL    HW2 1895  12.313   5.181   3.448
    0SOL     OW 1896  13.263   4.547   7.451
    0SOL    HW1 1897  13.219   4.474   7.409
    0SOL    HW2 1898  13.257   4.619   7.387
    1SOL     OW 1899   8.851   0.741   3.772
    1SOL    HW1 1900   8.878   0.786   3.852
    1SOL    HW2 1901   8.774   0.789   3.742
    2SOL     OW 1902   0.467   2.634   2.011
    2SOL    HW1 1903   0.500   2.724   2.015
    2SOL    HW2 1904   0.383   2.637   2.057
    3SOL     OW 1905   2.167  11.742   5.444
    3SOL    HW1 1906   2.156  11.667   5.386
    3SOL    HW2 1907   2.125  11.716   5.526
    4SOL     OW 1908   8.199  10.307   0.274
    4SOL    HW1 1909   8.129  10.358   0.233
    4SOL    HW2 1910   8.256  10.372   0.313
    5SOL     OW 1911   4.074  11.992   6.673
    5SOL    HW1 1912   3.985  12.026   6.682
    5SOL    HW2 1913   4.063  11.905   6.635
    6SOL     OW 1914   5.815   9.829  12.461
    6SOL    HW1 1915   5.907   9.803  12.469
    6SOL    HW2 1916   5.771   9.752  12.427
    7SOL     OW 1917   9.726   2.504   5.272
    7SOL    HW1 1918   9.729   2.460   5.187
    7SOL    HW2 1919   9.688   2.589   5.253
    8SOL     OW 1920  11.510  10.116   0.815
    8SOL    HW1 1921  11.519  10.117   0.910
    8SOL    HW2 1922  11.592  10.155   0.783
    9SOL     OW 1923   0.900   2.973   9.800
    9SOL    HW1 1924   0.909   3.012   9.714
    9SOL    HW2 1925   0.810   2.941   9.803
   10SOL     OW 1926   5.317   4.070   0.681
   10SOL    HW1 1927   5.396   4.018   0.694
   10SOL    HW2 1928   5.286   4.045   0.594
   11SOL     OW 1929   1.767  10.993  13.352
   11SOL    HW1 1930   1.775  11.006  13.257
   11SOL    HW2 1931   1.808  10.908  13.368
   12SOL     OW 1932   5.604  12.843  11.302
   12SOL    HW1 1933   5.644  12.801  11.378
   12SOL    HW2 1934   5.569  12.926  11.335
   13SOL     OW 1935   2.971   4.715   6.577
   13SOL    HW1 1936   2.901   4.772   6.608
   13SOL    HW2 1937   3.038   4.775   6.545
   14SOL     OW 1938   5.571   4.271  14.285
   14SOL    HW1 1939   5.532   4.234  14.206
   14SOL    HW2 1940   5.496   4.297  14.339
   15SOL     OW 1941   4.985   8.298   2.748
   15SOL    HW1 1942   5.060   8.320   2.692
   15SOL    HW2 1943   4.945   8.222   2.705
   16SOL     OW 1944   5.098   4.741  11.571
   16SOL    HW1 1945   5.053   4.751  11.487
   16SOL    HW2 1946   5.189   4.763  11.552
   17SOL     OW 1947  11.968   7.966  12.275
   17SOL    HW1 1948  11.895   7.905  12.278
   17SOL    HW2 1949  11.929   8.049  12.245
   18SOL     OW 1950   1.378  12.141   2.915
   18SOL    HW1 1951   1.422  12.070   2.868
   18SOL    HW2 1952   1.449  12.195   2.949
   19SOL     OW 1953  13.816  13.893  12.037
   19SOL    HW1 1954  13.841  13.905  11.945
   19SOL    HW2 1955  13.899  13.881  12.083
   20SOL     OW 1956   0.809   9.916  14.214
   20SOL    HW1 1957   0.827   9.989  14.274
   20SOL    HW2 1958   0.890   9.866  14.211
   21SOL     OW 1959   6.896  10.935   2.800
   21SOL    HW1 1960   6.967  10.875   2.823
   21SOL    HW2 1961   6.825  10.878   2.771
   22SOL     OW 1962   0.475   8.721  11.073
   22SOL    HW1 1963   0.387   8.749  11.095
   22SOL    HW2 1964   0.482   8.733  10.978
   23SOL     OW 1965   6.229   4.711  11.867
   23SOL    HW1 1966   6.135   4.718  11.885
   23SOL    HW2 1967   6.269   4.698  11.953
   24SOL     OW 1968   6.931   7.543  12.845
   24SOL    HW1 1969   6.964   7.630  12.821
   24SOL    HW2 1970   7.004   7.484  12.830
   25SOL     OW 1971   4.647  10.045   9.927
   25SOL    HW1 1972   4.624  10.051  10.020
   25SOL    HW2 1973   4.731  10.090   9.920
   26SOL     OW 1974  14.065   0.186  13.008
   26SOL    HW1 1975  14.046   0.231  13.090
   26SOL    HW2 1976  14.093   0.099  13.033
   27SOL     OW 1977   6.798   5.413   0.152
   27SOL    HW1 1978   6.753   5.342   0.106
   27SOL    HW2 1979   6.749   5.492   0.127
   28SOL     OW 1980   0.091   4.714  12.692
   28SOL    HW1 1981   0.085   4.695  12.598
   28SOL    HW2 1982   0.001   4.733  12.719
   29SOL     OW 1983  14.639   4.594   0.751
   29SOL    HW1 1984  14.640   4.569   0.658
   29SOL    HW2 1985  14.656   4.688   0.751
   30SOL     OW 1986   3.797   6.651  14.406
   30SOL    HW1 1987   3.789   6.653  14.501
   30SOL    HW2 1988   3.720   6.698  14.375
   31SOL     OW 1989   0.608   4.372   4.284
   31SOL    HW1 1990   0.595   4.448   4.226
   31SOL    HW2 1991   0.617   4.410   4.371
   32SOL     OW 1992   3.305   2.559   2.466
   32SOL    HW1 1993   3.281   2.509   2.544
   32SOL    HW2 1994   3.379   2.613   2.493
   33SOL     OW 1995   8.567  14.448   0.658
   33SOL    HW1 1996   8.657  14.479   0.670
   33SOL    HW2 1997   8.544  14.473   0.569
   34SOL     OW 1998   0.444  14.707  11.913
   34SOL    HW1 1999   0.447  14.617  11.945
   34SOL    HW2 2000   0.433  14.698  11.818
   35SOL     OW 2001  11.745   0.255   0.691
   35SOL    HW1 2002  11.745   0.171   0.736
   35SOL    HW2 2003  11.652   0.276   0.679
   36SOL     OW 2004  11.135  10.921   1.814
   36SOL    HW1 2005  11.198  10.993   1.819
   36SOL    HW2 2006  11.100  10.914   1.903
   37SOL     OW 2007   6.433   6.954   9.428
   37SOL    HW1 2008   6.367   6.920   9.369
   37SOL    HW2 2009   6.506   6.980   9.371
   38SOL     OW 2010   6.134   2.187   7.479
   38SOL    HW1 2011   6.177   2.268   7.451
   38SOL    HW2 2012   6.184   2.157   7.554
   39SOL     OW 2013   0.998  14.732   0.064
   39SOL    HW1 2014   1.002  14.821   0.097
   39SOL    HW2 2015   1.073  14.688   0.104
   40SOL     OW 2016   1.525  14.020   9.163
   40SOL    HW1 2017   1.597  14.078   9.185
   40SOL    HW2 2018   1.446  14.072   9.178
   41SOL     OW 2019  13.109  10.107   3.902
   41SOL    HW1 2020  13.075  10.018   3.896
   41SOL    HW2 2021  13.043  10.160   3.857
   42SOL     OW 2022   5.552  10.237   2.203
   42SOL    HW1 2023   5.626  10.255   2.145
   42SOL    HW2 2024   5.475  10.262   2.153
   43SOL     OW 2025  13.312   5.103  12.685
   43SOL    HW1 2026  13.239   5.045  12.707
   43SOL    HW2 2027  13.281   5.153  12.610
   44SOL     OW 2028  13.234  11.878   4.932
   44SOL    HW1 2029  13.147  11.912   4.911
   44SOL    HW2 2030  13.285  11.956   4.953
   45SOL     OW 2031  11.051   1.727  11.117
   45SOL    HW1 2032  11.051   1.821  11.135
   45SOL    HW2 2033  11.110   1.690  11.183
   46SOL     OW 2034   8.969   0.494   6.102
   46SOL    HW1 2035   9.046   0.461   6.055
   46SOL    HW2 2036   9.001   0.572   6.147
   47SOL     OW 2037   8.124  12.887   5.375
   47SOL    HW1 2038   8.198  12.944   5.354
   47SOL    HW2 2039   8.156  12.799   5.355
   48SOL     OW 2040   8.142   0.740   7.211
   48SOL    HW1 2041   8.124   0.757   7.118
   48SOL    HW2 2042   8.207   0.807   7.235
   49SOL     OW 2043   1.727  14.343  13.336
   49SOL    HW1 2044   1.742  14.341  13.430
   49SOL    HW2 2045   1.755  14.431  13.309
   50SOL     OW 2046  13.748   1.030   2.749
   50SOL    HW1 2047  13.786   1.045   2.836
   50SOL    HW2 2048  13.820   1.045   2.688
   51SOL     OW 2049   6.242   7.356  10.147
   51SOL    HW1 2050   6.257   7.383  10.057
   51SOL    HW2 2051   6.169   7.411  10.177
   52SOL     OW 2052   0.062  11.065  11.859
   52SOL    HW1 2053   0.096  11.069  11.949
   52SOL    HW2 2054  14.851  11.112  11.862
   53SOL     OW 2055  11.913   3.065  12.583
   53SOL    HW1 2056  11.918   3.120  12.661
   53SOL    HW2 2057  11.961   3.114  12.516
   54SOL     OW 2058  14.514  14.283   9.930
   54SOL    HW1 2059  14.539  14.337   9.855
   54SOL    HW2 2060  14.490  14.199   9.892
   55SOL     OW 2061   7.737  14.274   5.581
   55SOL    HW1 2062   7.644  14.280   5.563
   55SOL    HW2 2063   7.743  14.262   5.676
   56SOL     OW 2064  11.915   4.590   2.873
   56SOL    HW1 2065  11.940   4.522   2.936
   56SOL    HW2 2066  11.843   4.637   2.914
   57SOL     OW 2067   5.771  13.981   4.985
   57SOL    HW1 2068   5.708  13.911   4.968
   57SOL    HW2 2069   5.773  13.989   5.080
   58SOL     OW 2070  12.998  13.497  11.527
   58SOL    HW1 2071  12.933  13.519  11.593
   58SOL    HW2 2072  13.080  13.535  11.559
   59SOL     OW 2073   8.625   5.185  11.879
   59SOL    HW1 2074   8.707   5.222  11.913
   59SOL    HW2 2075   8.653   5.126  11.809
   60SOL     OW 2076   4.723  11.299  14.156
   60SOL    HW1 2077   4.764  11.239  14.218
   60SOL    HW2 2078   4.664  11.243  14.105
   61SOL     OW 2079   0.147   7.375  12.498
   61SOL    HW1 2080   0.240   7.364  12.479
   61SOL    HW2 2081   0.141   7.367  12.593
   62SOL     OW 2082   4.278   8.583  14.142
   62SOL    HW1 2083   4.227   8.571  14.222
   62SOL    HW2 2084   4.217   8.627  14.082
   63SOL     OW 2085   6.865   3.750   1.911
   63SOL    HW1 2086   6.858   3.686   1.841
   63SOL    HW2 2087   6.882   3.833   1.866
   64SOL     OW 2088   7.291   4.206   4.158
   64SOL    HW1 2089   7.360   4.215   4.224
   64SOL    HW2 2090   7.299   4.285   4.105
   65SOL     OW 2091   6.196   5.571   1.962
   65SOL    HW1 2092   6.156   5.541   2.043
   65SOL    HW2 2093   6.226   5.660   1.981
   66SOL     OW 2094   0.627   4.259  14.759
   66SOL    HW1 2095   0.590   4.333  14.808
   66SOL    HW2 2096   0.579   4.183  14.791
   67SOL     OW 2097   8.865   8.346  11.077
   67SOL    HW1 2098   8.812   8.280  11.123
   67SOL    HW2 2099   8.804   8.387  11.016
   68SOL     OW 2100   8.199   8.541  12.577
   68SOL    HW1 2101   8.185   8.477  12.646
   68SOL    HW2 2102   8.135   8.610  12.594
   69SOL     OW 2103  13.284   3.703  10.355
   69SOL    HW1 2104  13.336   3.778  10.325
   69SOL    HW2 2105  13.306   3.695  10.448
   70SOL     OW 2106   9.837   7.560   4.612
   70SOL    HW1 2107   9.828   7.465   4.601
   70SOL    HW2 2108   9.912   7.570   4.670
   71SOL     OW 2109   8.175   0.720   0.913
   71SOL    HW1 2110   8.231   0.702   0.988
   71SOL    HW2 2111   8.225   0.692   0.837
   72SOL     OW 2112   9.570   2.409   7.658
   72SOL    HW1 2113   9.597   2.326   7.619
   72SOL    HW2 2114   9.500   2.441   7.601
   73SOL     OW 2115   9.268   3.270  12.053
   73SOL    HW1 2116   9.265   3.186  12.007
   73SOL    HW2 2117   9.280   3.246  12.145
   74SOL     OW 2118   5.991   2.101   4.204
   74SOL    HW1 2119   6.006   2.094   4.298
   74SOL    HW2 2120   6.065   2.153   4.172
   75SOL     OW 2121  10.523   4.958   7.821
   75SOL    HW1 2122  10.478   4.926   7.743
   75SOL    HW2 2123  10.538   4.880   7.874
   76SOL     OW 2124  10.106   8.826  14.128
   76SOL    HW1 2125  10.017   8.791  14.141
   76SOL    HW2 2126  10.159   8.781  14.194
   77SOL     OW 2127   9.094   1.900  13.926
   77SOL    HW1 2128   9.017   1.947  13.893
   77SOL    HW2 2129   9.059   1.844  13.996
   78SOL     OW 2130  10.948   3.173   0.339
   78SOL    HW1 2131  11.041   3.190   0.352
   78SOL    HW2 2132  10.933   3.088   0.381
   79SOL     OW 2133  11.973   2.739  14.354
   79SOL    HW1 2134  11.982   2.819  14.302
   79SOL    HW2 2135  12.040   2.747  14.422
   80SOL     OW 2136  12.882   0.448   1.592
   80SOL    HW1 2137  12.929   0.506   1.532
   80SOL    HW2 2138  12.839   0.508   1.653
   81SOL     OW 2139  11.646   9.974  11.009
   81SOL    HW1 2140  11.584   9.960  10.938
   81SOL    HW2 2141  11.732   9.971  10.968
   82SOL     OW 2142  13.879   5.602  13.472
   82SOL    HW1 2143  13.815   5.673  13.469
   82SOL    HW2 2144  13.827   5.522  13.473
   83SOL     OW 2145   3.715   2.027   7.644
   83SOL    HW1 2146   3.787   2.047   7.584
   83SOL    HW2 2147   3.755   1.975   7.714
   84SOL     OW 2148   7.661   5.897   1.394
   84SOL    HW1 2149   7.595   5.872   1.329
   84SOL    HW2 2150   7.627   5.977   1.433
   85SOL     OW 2151  13.339  11.838   5.733
   85SOL    HW1 2152  13.273  11.783   5.776
   85SOL    HW2 2153  13.318  11.927   5.760
   86SOL     OW 2154   0.027  14.468   6.396
   86SOL    HW1 2155  14.804  14.480   6.389
   86SOL    HW2 2156   0.038  14.381   6.434
   87SOL     OW 2157  14.187   6.479  10.660
   87SOL    HW1 2158  14.167   6.411  10.596
   87SOL    HW2 2159  14.232   6.547  10.609
   88SOL     OW 2160   2.493   6.265  14.192
   88SOL    HW1 2161   2.424   6.223  14.243
   88SOL    HW2 2162   2.527   6.334  14.248
   89SOL     OW 2163   2.289   5.718   9.873
   89SOL    HW1 2164   2.241   5.781   9.927
   89SOL    HW2 2165   2.378   5.753   9.869
   90SOL     OW 2166   2.657   5.282  10.154
   90SOL    HW1 2167   2.685   5.254  10.241
   90SOL    HW2 2168   2.712   5.359  10.135
   91SOL     OW 2169  10.325   3.707   4.324
   91SOL    HW1 2170  10.336   3.651   4.400
   91SOL    HW2 2171  10.235   3.692   4.295
   92SOL     OW 2172   8.698  11.092  13.869
   92SOL    HW1 2173   8.700  11.083  13.964
   92SOL    HW2 2174   8.624  11.038  13.842
   93SOL     OW 2175   0.360  11.531  13.732
   93SOL    HW1 2176   0.439  11.479  13.746
   93SOL    HW2 2177   0.388  11.622  13.744
   94SOL     OW 2178   8.752   3.951   3.854
   94SOL    HW1 2179   8.679   4.004   3.887
   94SOL    HW2 2180   8.719   3.861   3.855
   95SOL     OW 2181   3.456   2.917   4.463
   95SOL    HW1 2182   3.540   2.875   4.482
   95SOL    HW2 2183   3.480   3.005   4.434
   96SOL     OW 2184   3.481  12.511   3.890
   96SOL    HW1 2185   3.545  12.453   3.849
   96SOL    HW2 2186   3.438  12.457   3.957
   97SOL     OW 2187   5.047   4.826  10.352
   97SOL    HW1 2188   5.049   4.918  10.376
   97SOL    HW2 2189   5.093   4.821  10.268
   98SOL     OW 2190   0.724   0.157   6.616
   98SOL    HW1 2191   0.801   0.102   6.602
   98SOL    HW2 2192   0.653   0.110   6.572
   99SOL     OW 2193   5.871   5.242   9.870
   99SOL    HW1 2194   5.847   5.235   9.963
   99SOL    HW2 2195   5.810   5.306   9.834
  100SOL     OW 2196  11.358   2.057   7.322
  100SOL    HW1 2197  11.330   1.981   7.373
  100SOL    HW2 2198  11.448   2.073   7.350
  101SOL     OW 2199   0.230  13.556   2.017
  101SOL    HW1 2200   0.303  13.551   2.078
  101SOL    HW2 2201   0.197  13.466   2.011
  102SOL     OW 2202   4.514   1.986   4.370
  102SOL    HW1 2203   4.519   1.996   4.465
  102SOL    HW2 2204   4.604   1.968   4.343
  103SOL     OW 2205  10.223   0.060   2.865
  103SOL    HW1 2206  10.200   0.142   2.909
  103SOL    HW2 2207  10.263   0.086   2.783
  104SOL     OW 2208  12.108  13.288   8.677
  104SOL    HW1 2209  12.148  13.311   8.761
  104SOL    HW2 2210  12.061  13.206   8.695
  105SOL     OW 2211  10.757   6.115   2.037
  105SOL    HW1 2212  10.823   6.176   2.002
  105SOL    HW2 2213  10.805   6.062   2.101
  106SOL     OW 2214   1.762   9.835  11.603
  106SOL    HW1 2215   1.783   9.837  11.696
  106SOL    HW2 2216   1.771   9.743  11.578
  107SOL     OW 2217   4.690   1.525   7.369
  107SOL    HW1 2218   4.751   1.477   7.425
  107SOL    HW2 2219   4.651   1.458   7.314
  108SOL     OW 2220   7.969   2.764  10.027
  108SOL    HW1 2221   8.018   2.833  10.072
  108SOL    HW2 2222   7.994   2.683  10.073
  109SOL     OW 2223   3.164   5.016   9.136
  109SOL    HW1 2224   3.246   5.053   9.166
  109SOL    HW2 2225   3.142   5.065   9.057
  110SOL     OW 2226   6.468   1.886   9.380
  110SOL    HW1 2227   6.436   1.851   9.463
  110SOL    HW2 2228   6.533   1.823   9.351
  111SOL     OW 2229   9.743   9.569  14.144
  111SOL    HW1 2230   9.659   9.546  14.105
  111SOL    HW2 2231   9.734   9.661  14.169
  112SOL     OW 2232  13.785   2.886   9.134
  112SOL    HW1 2233  13.869   2.931   9.137
  112SOL    HW2 2234  13.724   2.943   9.181
  113SOL     OW 2235  10.869  13.362  14.405
  113SOL    HW1 2236  10.951  13.313  14.411
  113SOL    HW2 2237  10.831  13.355  14.493
  114SOL     OW 2238  11.439  13.614   4.444
  114SOL    HW1 2239  11.479  13.547   4.388
  114SOL    HW2 2240  11.436  13.693   4.389
  115SOL     OW 2241  10.393  12.234  14.379
  115SOL    HW1 2242  10.328  12.193  14.322
  115SOL    HW2 2243  10.345  12.304  14.424
  116SOL     OW 2244   1.522  14.622  11.272
  116SOL    HW1 2245   1.442  14.570  11.276
  116SOL    HW2 2246   1.494  14.711  11.293
  117SOL     OW 2247   5.621  11.691  11.414
  117SOL    HW1 2248   5.707  11.651  11.400
  117SOL    HW2 2249   5.565  11.652  11.345
  118SOL     OW 2250   3.768   8.979   1.596
  118SOL    HW1 2251   3.814   9.063   1.595
  118SOL    HW2 2252   3.771   8.948   1.506
  119SOL     OW 2253  13.811   3.777  13.355
  119SOL    HW1 2254  13.851   3.739  13.433
  119SOL    HW2 2255  13.730   3.727  13.343
  120SOL     OW 2256   3.496   9.125   0.271
  120SOL    HW1 2257   3.445   9.044   0.273
  120SOL    HW2 2258   3.436   9.190   0.234
  121SOL     OW 2259  13.621   0.704   0.147
  121SOL    HW1 2260  13.677   0.771   0.187
  121SOL    HW2 2261  13.552   0.688   0.212
  122SOL     OW 2262   3.169  10.850   6.730
  122SOL    HW1 2263   3.260  10.821   6.722
  122SOL    HW2 2264   3.120  10.790   6.674
  123SOL     OW 2265  13.171   5.403   2.376
  123SOL    HW1 2266  13.266   5.418   2.372
  123SOL    HW2 2267  13.134   5.462   2.311
  124SOL     OW 2268   3.169   2.085   1.270
  124SOL    HW1 2269   3.170   1.995   1.305
  124SOL    HW2 2270   3.089   2.123   1.307
  125SOL     OW 2271   3.590   0.988  14.762
  125SOL    HW1 2272   3.549   1.068  14.730
  125SOL    HW2 2273   3.645   1.016  14.835
  126SOL     OW 2274  10.717   6.544   1.484
  126SOL    HW1 2275  10.779   6.552   1.411
  126SOL    HW2 2276  10.682   6.455   1.475
  127SOL     OW 2277   4.596   3.851   1.282
  127SOL    HW1 2278   4.678   3.804   1.266
  127SOL    HW2 2279   4.600   3.876   1.374
  128SOL     OW 2280   8.513   6.739  13.617
  128SOL    HW1 2281   8.421   6.715  13.627
  128SOL    HW2 2282   8.542   6.695  13.537
  129SOL     OW 2283   1.052  13.413  10.053
  129SOL    HW1 2284   1.136  13.382  10.019
  129SOL    HW2 2285   1.075  13.464  10.130
  130SOL     OW 2286   1.756   9.083  14.269
  130SOL    HW1 2287   1.695   9.133  14.324
  130SOL    HW2 2288   1.785   9.012  14.326
  131SOL     OW 2289   3.932   7.294   9.762
  131SOL    HW1 2290   3.897   7.382   9.772
  131SOL    HW2 2291   4.020   7.306   9.727
  132SOL     OW 2292   1.272   0.169   2.954
  132SOL    HW1 2293   1.288   0.254   2.913
  132SOL    HW2 2294   1.262   0.189   3.047
  133SOL     OW 2295   2.766   0.934  13.699
  133SOL    HW1 2296   2.699   0.912  13.763
  133SOL    HW2 2297   2.777   0.855  13.646
  134SOL     OW 2298   0.605   6.639   5.698
  134SOL    HW1 2299   0.653   6.572   5.649
  134SOL    HW2 2300   0.673   6.698   5.730
  135SOL     OW 2301  11.042   0.586   1.301
  135SOL    HW1 2302  11.066   0.530   1.375
  135SOL    HW2 2303  10.962   0.630   1.329
  136SOL     OW 2304   3.803   0.239  12.603
  136SOL    HW1 2305   3.714   0.208  12.590
  136SOL    HW2 2306   3.855   0.160  12.615
  137SOL     OW 2307   4.734   7.134   4.918
  137SOL    HW1 2308   4.802   7.106   4.978
  137SOL    HW2 2309   4.780   7.184   4.851
  138SOL     OW 2310   3.152  14.788  14.808
  138SOL    HW1 2311   3.113  14.802  14.721
  138SOL    HW2 2312   3.080  14.753  14.861
  139SOL     OW 2313  11.502   9.151  13.129
  139SOL    HW1 2314  11.530   9.069  13.171
  139SOL    HW2 2315  11.491   9.212  13.202
  140SOL     OW 2316   3.345   5.221   2.220
  140SOL    HW1 2317   3.293   5.300   2.232
  140SOL    HW2 2318   3.358   5.214   2.125
  141SOL     OW 2319   1.065  13.583  14.549
  141SOL    HW1 2320   1.060  13.562  14.642
  141SOL    HW2 2321   1.111  13.667  14.546
  142SOL     OW 2322  11.006  13.122  11.482
  142SOL    HW1 2323  11.062  13.180  11.430
  142SOL    HW2 2324  10.917  13.145  11.455
  143SOL     OW 2325  11.100   9.840   4.685
  143SOL    HW1 2326  11.086   9.881   4.771
  143SOL    HW2 2327  11.194   9.829   4.679
  144SOL     OW 2328   8.449   5.158   0.237
  144SOL    HW1 2329   8.483   5.092   0.297
  144SOL    HW2 2330   8.423   5.109   0.159
  145SOL     OW 2331   2.812   5.628   1.804
  145SOL    HW1 2332   2.783   5.583   1.884
  145SOL    HW2 2333   2.807   5.721   1.827
  146SOL     OW 2334   3.761   4.327   3.058
  146SOL    HW1 2335   3.816   4.344   2.981
  146SOL    HW2 2336   3.774   4.234   3.076
  147SOL     OW 2337  11.836   4.604   7.510
  147SOL    HW1 2338  11.825   4.579   7.418
  147SOL    HW2 2339  11.809   4.696   7.513
  148SOL     OW 2340  14.666  12.236  13.435
  148SOL    HW1 2341  14.617  12.288  13.372
  148SOL    HW2 2342  14.736  12.196  13.383
  149SOL     OW 2343  13.229  14.668   4.962
  149SOL    HW1 2344  13.196  14.580   4.979
  149SOL    HW2 2345  13.256  14.667   4.871
  150SOL     OW 2346   5.772   4.614   5.489
  150SOL    HW1 2347   5.762   4.678   5.418
  150SOL    HW2 2348   5.699   4.631   5.548
  151SOL     OW 2349   5.440   8.967   2.927
  151SOL    HW1 2350   5.502   8.897   2.948
  151SOL    HW2 2351   5.373   8.924   2.873
  152SOL     OW 2352  13.182  12.585   0.889
  152SOL    HW1 2353  13.259  12.556   0.840
  152SOL    HW2 2354  13.144  12.505   0.924
  153SOL     OW 2355   4.305   0.767   3.519
  153SOL    HW1 2356   4.335   0.831   3.584
  153SOL    HW2 2357   4.363   0.779   3.444
  154SOL     OW 2358   7.719   3.428   6.598
  154SOL    HW1 2359   7.717   3.333   6.612
  154SOL    HW2 2360   7.781   3.441   6.527
  155SOL     OW 2361   2.098   8.642  12.150
  155SOL    HW1 2362   2.010   8.617  12.181
  155SOL    HW2 2363   2.130   8.564  12.105
  156SOL     OW 2364   3.997   1.568   8.173
  156SOL    HW1 2365   4.020   1.477   8.153
  156SOL    HW2 2366   4.038   1.620   8.104
  157SOL     OW 2367  10.232   0.193   6.383
  157SOL    HW1 2368  10.265   0.255   6.318
  157SOL    HW2 2369  10.210   0.115   6.333
  158SOL     OW 2370   6.450  10.085  13.773
  158SOL    HW1 2371   6.485   9.996  13.777
  158SOL    HW2 2372   6.525  10.140  13.750
  159SOL     OW 2373  13.225   7.058   9.049
  159SOL    HW1 2374  13.193   7.138   9.090
  159SOL    HW2 2375  13.258   7.087   8.964
  160SOL     OW 2376   2.717   6.559  11.737
  160SOL    HW1 2377   2.671   6.587  11.658
  160SOL    HW2 2378   2.757   6.475  11.714
  161SOL     OW 2379  10.223  12.976   5.228
  161SOL    HW1 2380  10.270  12.963   5.311
  161SOL    HW2 2381  10.221  12.890   5.188
  162SOL     OW 2382  14.317   3.057  10.426
  162SOL    HW1 2383  14.318   3.149  10.453
  162SOL    HW2 2384  14.293   3.009  10.505
  163SOL     OW 2385  14.024  11.164   5.007
  163SOL    HW1 2386  14.087  11.113   4.956
  163SOL    HW2 2387  14.049  11.150   5.098
  164SOL     OW 2388   2.623   3.346   1.977
  164SOL    HW1 2389   2.614   3.432   2.018
  164SOL    HW2 2390   2.617   3.363   1.883
  165SOL     OW 2391   4.708   4.605   1.913
  165SOL    HW1 2392   4.754   4.621   1.830
  165SOL    HW2 2393   4.778   4.605   1.979
  166SOL     OW 2394   2.024  12.955   6.688
  166SOL    HW1 2395   2.026  13.050   6.699
  166SOL    HW2 2396   1.968  12.924   6.759
  167SOL     OW 2397   9.333  14.339   0.638
  167SOL    HW1 2398   9.270  14.402   0.603
  167SOL    HW2 2399   9.312  14.257   0.593
  168SOL     OW 2400   6.139   2.265   3.855
  168SOL    HW1 2401   6.126   2.289   3.947
  168SOL    HW2 2402   6.200   2.330   3.822
  169SOL     OW 2403  12.135   2.577   5.243
  169SOL    HW1 2404  12.085   2.653   5.275
  169SOL    HW2 2405  12.068   2.517   5.210
  170SOL     OW 2406  11.812  13.489   9.580
  170SOL    HW1 2407  11.824  13.397   9.602
  170SOL    HW2 2408  11.719  13.505   9.597
  171SOL     OW 2409   5.390  11.828   9.623
  171SOL    HW1 2410   5.332  11.901   9.643
  171SOL    HW2 2411   5.471  11.848   9.670
  172SOL     OW 2412   0.610  11.398  10.017
  172SOL    HW1 2413   0.656  11.419  10.098
  172SOL    HW2 2414   0.521  11.377  10.043
  173SOL     OW 2415  12.411   4.358   5.685
  173SOL    HW1 2416  12.320   4.362   5.656
  173SOL    HW2 2417  12.438   4.449   5.695
  174SOL     OW 2418   0.009  12.582   5.263
  174SOL    HW1 2419  14.793  12.546   5.246
  174SOL    HW2 2420  14.871  12.676   5.251
  175SOL     OW 2421  10.325   0.134  12.730
  175SOL    HW1 2422  10.250   0.107  12.782
  175SOL    HW2 2423  10.330   0.229  12.743
  176SOL     OW 2424   8.057   9.000   3.175
  176SOL    HW1 2425   8.024   9.090   3.186
  176SOL    HW2 2426   8.134   8.996   3.232
  177SOL     OW 2427  12.845   1.008   2.656
  177SOL    HW1 2428  12.845   1.102   2.637
  177SOL    HW2 2429  12.876   0.967   2.575
  178SOL     OW 2430   2.631   3.363   1.714
  178SOL    HW1 2431   2.708   3.308   1.698
  178SOL    HW2 2432   2.569   3.335   1.647
  179SOL     OW 2433   2.881   0.411  11.258
  179SOL    HW1 2434   2.823   0.473  11.215
  179SOL    HW2 2435   2.924   0.462  11.327
  180SOL     OW 2436  12.807   7.874  14.131
  180SOL    HW1 2437  12.898   7.903  14.126
  180SOL    HW2 2438  12.765   7.936  14.191
  181SOL     OW 2439   3.338   4.517  11.902
  181SOL    HW1 2440   3.296   4.500  11.818
  181SOL    HW2 2441   3.403   4.447  11.910
  182SOL     OW 2442   9.288   6.843  12.655
  182SOL    HW1 2443   9.240   6.857  12.736
  182SOL    HW2 2444   9.321   6.929  12.631
  183SOL     OW 2445   1.369  10.873   0.357
  183SOL    HW1 2446   1.291  10.928   0.349
  183SOL    HW2 2447   1.336  10.784   0.353
  184SOL     OW 2448   2.288   7.374  11.153
  184SOL    HW1 2449   2.255   7.306  11.094
  184SOL    HW2 2450   2.356   7.331  11.205
  185SOL     OW 2451   3.784   7.034  11.456
  185SOL    HW1 2452   3.799   6.950  11.500
  185SOL    HW2 2453   3.744   7.010  11.373
  186SOL     OW 2454  14.472  12.535  14.267
  186SOL    HW1 2455  14.511  12.616  14.300
  186SOL    HW2 2456  14.485  12.538  14.173
  187SOL     OW 2457   3.373   0.512   1.706
  187SOL    HW1 2458   3.337   0.493   1.619
  187SOL    HW2 2459   3.398   0.604   1.702
  188SOL     OW 2460   5.290  12.371   7.655
  188SOL    HW1 2461   5.365  12.408   7.701
  188SOL    HW2 2462   5.328  12.303   7.599
  189SOL     OW 2463   8.312  13.361  11.494
  189SOL    HW1 2464   8.320  13.402  11.407
  189SOL    HW2 2465   8.361  13.279  11.486
  190SOL     OW 2466   2.957   9.604   3.896
  190SOL    HW1 2467   2.960   9.511   3.916
  190SOL    HW2 2468   2.961   9.609   3.800
  191SOL     OW 2469   8.623  10.721   2.759
  191SOL    HW1 2470   8.612  10.813   2.736
  191SOL    HW2 2471   8.599  10.673   2.680
  192SOL     OW 2472   9.997   8.075  12.144
  192SOL    HW1 2473  10.077   8.071  12.091
  192SOL    HW2 2474   9.927   8.060  12.081
  193SOL     OW 2475  11.918  11.812   4.143
  193SOL    HW1 2476  11.920  11.786   4.235
  193SOL    HW2 2477  11.958  11.899   4.141
  194SOL     OW 2478   8.615   1.530   5.738
  194SOL    HW1 2479   8.556   1.586   5.789
  194SOL    HW2 2480   8.576   1.443   5.742
  195SOL     OW 2481   3.036   4.829  13.933
  195SOL    HW1 2482   3.017   4.870  13.849
  195SOL    HW2 2483   3.131   4.823  13.937
  196SOL     OW 2484   6.279  14.595  10.157
  196SOL    HW1 2485   6.342  14.644  10.103
  196SOL    HW2 2486   6.199  14.647  10.152
  197SOL     OW 2487   1.017   0.433  11.454
  197SOL    HW1 2488   0.950   0.379  11.495
  197SOL    HW2 2489   1.098   0.382  11.464
  198SOL     OW 2490  10.125   5.947   9.977
  198SOL    HW1 2491  10.148   5.858  10.007
  198SOL    HW2 2492  10.043   5.966  10.022
  199SOL     OW 2493   8.499   7.252   9.422
  199SOL    HW1 2494   8.565   7.320   9.408
  199SOL    HW2 2495   8.430   7.273   9.359
  200SOL     OW 2496  12.446   3.628  10.906
  200SOL    HW1 2497  12.448   3.533  10.900
  200SOL    HW2 2498  12.411   3.646  10.994
  201SOL     OW 2499   3.045   8.943  10.398
  201SOL    HW1 2500   3.033   9.026  10.445
  201SOL    HW2 2501   3.135   8.918  10.417
  202SOL     OW 2502   6.789   8.229  12.415
  202SOL    HW1 2503   6.730   8.226  12.490
  202SOL    HW2 2504   6.849   8.301  12.435
  203SOL     OW 2505   3.520   1.808  11.306
  203SOL    HW1 2506   3.522   1.716  11.333
  203SOL    HW2 2507   3.449   1.812  11.242
  204SOL     OW 2508  12.328   3.547  14.201
  204SOL    HW1 2509  12.359   3.635  14.180
  204SOL    HW2 2510  12.303   3.510  14.116
  205SOL     OW 2511  10.158   0.885   7.672
  205SOL    HW1 2512  10.205   0.883   7.755
  205SOL    HW2 2513  10.080   0.938   7.689
  206SOL     OW 2514   1.967   6.032  10.452
  206SOL    HW1 2515   1.908   6.087  10.402
  206SOL    HW2 2516   1.932   6.032  10.541
  207SOL     OW 2517   8.949   5.468  14.867
  207SOL    HW1 2518   8.866   5.502  14.836
  207SOL    HW2 2519   9.015   5.511  14.813
  208SOL     OW 2520   2.916   7.440  12.279
  208SOL    HW1 2521   2.830   7.423  12.239
  208SOL    HW2 2522   2.979   7.419  12.210
  209SOL     OW 2523   1.100  12.207   3.965
  209SOL    HW1 2524   1.098  12.160   4.048
  209SOL    HW2 2525   1.010  12.205   3.933
  210SOL     OW 2526   6.063  11.722   8.262
  210SOL    HW1 2527   6.126  11.650   8.260
  210SOL    HW2 2528   6.088  11.778   8.188
  211SOL     OW 2529   4.557   6.459   6.639
  211SOL    HW1 2530   4.623   6.391   6.653
  211SOL    HW2 2531   4.608   6.539   6.623
  212SOL     OW 2532  13.159   3.723   6.079
  212SOL    HW1 2533  13.194   3.796   6.131
  212SOL    HW2 2534  13.133   3.763   5.996
  213SOL     OW 2535   1.917  13.507   9.731
  213SOL    HW1 2536   1.901  13.490   9.638
  213SOL    HW2 2537   1.836  13.546   9.762
  214SOL     OW 2538   9.010  13.882  12.678
  214SOL    HW1 2539   9.068  13.928  12.617
  214SOL    HW2 2540   8.930  13.867  12.629
  215SOL     OW 2541  12.278   2.395   8.988
  215SOL    HW1 2542  12.318   2.400   8.902
  215SOL    HW2 2543  12.318   2.318   9.029
  216SOL     OW 2544   0.769   0.105   8.515
  216SOL    HW1 2545   0.793   0.036   8.453
  216SOL    HW2 2546   0.788   0.067   8.601
  217SOL     OW 2547   5.899   8.547   0.287
  217SOL    HW1 2548   5.988   8.579   0.304
  217SOL    HW2 2549   5.868   8.599   0.213
  218SOL     OW 2550  13.990   2.359   5.112
  218SOL    HW1 2551  13.995   2.274   5.155
  218SOL    HW2 2552  13.946   2.343   5.029
  219SOL     OW 2553   0.783  10.539  14.426
  219SOL    HW1 2554   0.718  10.588  14.478
  219SOL    HW2 2555   0.868  10.569  14.459
  220SOL     OW 2556   0.961  10.667   7.083
  220SOL    HW1 2557   0.987  10.587   7.128
  220SOL    HW2 2558   0.995  10.738   7.137
  221SOL     OW 2559   4.389   7.950   4.884
  221SOL    HW1 2560   4.372   8.029   4.935
  221SOL    HW2 2561   4.457   7.904   4.933
  222SOL     OW 2562  14.341   6.862   9.987
  222SOL    HW1 2563  14.403   6.903   9.927
  222SOL    HW2 2564  14.255   6.886   9.954
  223SOL     OW 2565   8.052  14.568  12.214
  223SOL    HW1 2566   8.143  14.538  12.220
  223SOL    HW2 2567   8.056  14.647  12.160
  224SOL     OW 2568   3.328  14.313  10.171
  224SOL    HW1 2569   3.312  14.222  10.145
  224SOL    HW2 2570   3.365  14.354  10.092
  225SOL     OW 2571   7.229   8.756  13.263
  225SOL    HW1 2572   7.260   8.836  13.221
  225SOL    HW2 2573   7.146   8.780  13.304
  226SOL     OW 2574  11.916   5.373   5.525
  226SOL    HW1 2575  11.994   5.423   5.500
  226SOL    HW2 2576  11.943   5.323   5.601
  227SOL     OW 2577  11.507  13.328  14.552
  227SOL    HW1 2578  11.479  13.269  14.622
  227SOL    HW2 2579  11.445  13.401  14.556
  228SOL     OW 2580   4.101   8.404  10.926
  228SOL    HW1 2581   4.028   8.422  10.985
  228SOL    HW2 2582   4.084   8.316  10.893
  229SOL     OW 2583   7.394   1.735   0.422
  229SOL    HW1 2584   7.422   1.651   0.385
  229SOL    HW2 2585   7.405   1.798   0.351
  230SOL     OW 2586   5.653  14.792  10.235
  230SOL    HW1 2587   5.610  14.866  10.192
  230SOL    HW2 2588   5.614  14.788  10.322
  231SOL     OW 2589  12.827   9.024   4.542
  231SOL    HW1 2590  12.766   9.073   4.487
  231SOL    HW2 2591  12.805   8.932   4.525
  232SOL     OW 2592   1.702   2.795   6.989
  232SOL    HW1 2593   1.787   2.752   6.984
  232SOL    HW2 2594   1.715   2.868   7.049
  233SOL     OW 2595   0.557   3.422  12.220
  233SOL    HW1 2596   0.649   3.444  12.201
  233SOL    HW2 2597   0.532   3.365  12.147
  234SOL     OW 2598   7.206   0.121   5.933
  234SOL    HW1 2599   7.226   0.124   6.027
  234SOL    HW2 2600   7.291   0.127   5.890
  235SOL     OW 2601   1.068   7.949  11.317
  235SOL    HW1 2602   1.128   8.022  11.334
  235SOL    HW2 2603   1.115   7.892  11.257
  236SOL     OW 2604   3.345   8.324   9.088
  236SOL    HW1 2605   3.306   8.259   9.147
  236SOL    HW2 2606   3.287   8.400   9.095
  237SOL     OW 2607   9.831   8.898   7.478
  237SOL    HW1 2608   9.897   8.964   7.455
  237SOL    HW2 2609   9.781   8.939   7.549
  238SOL     OW 2610  11.313   1.642  10.367
  238SOL    HW1 2611  11.293   1.559  10.410
  238SOL    HW2 2612  11.296   1.626  10.274
  239SOL     OW 2613   6.883  12.663  11.342
  239SOL    HW1 2614   6.964  12.712  11.356
  239SOL    HW2 2615   6.832  12.718  11.282
  240SOL     OW 2616   1.840   5.091  14.511
  240SOL    HW1 2617   1.763   5.095  14.568
  240SOL    HW2 2618   1.841   5.176  14.466
  241SOL     OW 2619   5.797  14.781   1.496
  241SOL    HW1 2620   5.848  14.703   1.473
  241SOL    HW2 2621   5.746  14.755   1.572
  242SOL     OW 2622  12.433   3.299  11.020
  242SOL    HW1 2623  12.439   3.324  11.112
  242SOL    HW2 2624  12.340   3.280  11.007
  243SOL     OW 2625   3.029   1.605   1.379
  243SOL    HW1 2626   3.089   1.531   1.389
  243SOL    HW2 2627   2.970   1.578   1.308
  244SOL     OW 2628   4.344  14.231   5.324
  244SOL    HW1 2629   4.409  14.258   5.259
  244SOL    HW2 2630   4.358  14.137   5.334
  245SOL     OW 2631  12.689   9.300   6.979
  245SOL    HW1 2632  12.636   9.300   7.059
  245SOL    HW2 2633  12.711   9.392   6.966
  246SOL     OW 2634  12.821   2.254   5.508
  246SOL    HW1 2635  12.822   2.339   5.552
  246SOL    HW2 2636  12.731   2.225   5.514
  247SOL     OW 2637  13.757   0.068   1.785
  247SOL    HW1 2638  13.766   0.103   1.874
  247SOL    HW2 2639  13.678   0.111   1.752
  248SOL     OW 2640   1.295   8.620   7.225
  248SOL    HW1 2641   1.224   8.555   7.220
  248SOL    HW2 2642   1.269   8.677   7.298
  249SOL     OW 2643   9.215   1.621  11.186
  249SOL    HW1 2644   9.213   1.567  11.265
  249SOL    HW2 2645   9.125   1.649  11.174
  250SOL     OW 2646  11.978   3.387   9.933
  250SOL    HW1 2647  11.943   3.298   9.937
  250SOL    HW2 2648  11.946   3.429  10.013
  251SOL     OW 2649   7.228  11.965  11.225
  251SOL    HW1 2650   7.309  11.915  11.228
  251SOL    HW2 2651   7.230  12.018  11.305
  252SOL     OW 2652   4.186  14.644   5.463
  252SOL    HW1 2653   4.153  14.562   5.499
  252SOL    HW2 2654   4.114  14.707   5.477
  253SOL     OW 2655   5.665  13.484   5.856
  253SOL    HW1 2656   5.644  13.467   5.948
  253SOL    HW2 2657   5.741  13.542   5.860
  254SOL     OW 2658  11.995  13.104   7.024
  254SOL    HW1 2659  12.012  13.072   6.936
  254SOL    HW2 2660  12.065  13.166   7.042
  255SOL     OW 2661   6.580   4.839  11.558
  255SOL    HW1 2662   6.526   4.910  11.594
  255SOL    HW2 2663   6.550   4.760  11.605
  256SOL     OW 2664   0.681   3.682  10.804
  256SOL    HW1 2665   0.668   3.695  10.710
  256SOL    HW2 2666   0.616   3.739  10.846
  257SOL     OW 2667   0.342   1.063   5.740
  257SOL    HW1 2668   0.291   1.123   5.686
  257SOL    HW2 2669   0.276   1.006   5.781
  258SOL     OW 2670   1.231  10.462   8.403
  258SOL    HW1 2671   1.285  10.537   8.380
  258SOL    HW2 2672   1.149  10.500   8.435
  259SOL     OW 2673   3.240   2.847   7.355
  259SOL    HW1 2674   3.319   2.902   7.357
  259SOL    HW2 2675   3.217   2.835   7.447
  260SOL     OW 2676  13.054   1.841   3.471
  260SOL    HW1 2677  13.032   1.805   3.557
  260SOL    HW2 2678  13.068   1.763   3.416
  261SOL     OW 2679   4.154   8.147  12.589
  261SOL    HW1 2680   4.235   8.144  12.539
  261SOL    HW2 2681   4.150   8.063  12.633
  262SOL     OW 2682  14.232  12.839   9.838
  262SOL    HW1 2683  14.298  12.844   9.907
  262SOL    HW2 2684  14.155  12.881   9.876
  263SOL     OW 2685   1.640   9.627   8.088
  263SOL    HW1 2686   1.661   9.556   8.027
  263SOL    HW2 2687   1.553   9.657   8.061
  264SOL     OW 2688  13.649   5.945   5.861
  264SOL    HW1 2689  13.622   6.035   5.878
  264SOL    HW2 2690  13.741   5.952   5.834
  265SOL     OW 2691   4.147  10.671  12.837
  265SOL    HW1 2692   4.229  10.704  12.800
  265SOL    HW2 2693   4.080  10.698  12.775
  266SOL     OW 2694   7.588   1.064   9.251
  266SOL    HW1 2695   7.665   1.090   9.200
  266SOL    HW2 2696   7.612   1.083   9.342
  267SOL     OW 2697  14.115   9.222  14.785
  267SOL    HW1 2698  14.097   9.129  14.779
  267SOL    HW2 2699  14.074   9.249  14.867
  268SOL     OW 2700  11.640   1.562   0.314
  268SOL    HW1 2701  11.673   1.607   0.392
  268SOL    HW2 2702  11.708   1.576   0.248
  269SOL     OW 2703   9.380   9.546   4.028
  269SOL    HW1 2704   9.428   9.465   4.038
  269SOL    HW2 2705   9.437   9.602   3.975
  270SOL     OW 2706  10.781  13.982   9.496
  270SOL    HW1 2707  10.776  13.975   9.401
  270SOL    HW2 2708  10.772  13.892   9.528
  271SOL     OW 2709  10.399  14.691   2.763
  271SOL    HW1 2710  10.430  14.777   2.736
  271SOL    HW2 2711  10.341  14.663   2.692
  272SOL     OW 2712   8.244   5.922   9.345
  272SOL    HW1 2713   8.256   6.011   9.379
  272SOL    HW2 2714   8.195   5.934   9.263
  273SOL     OW 2715   6.020  13.213   6.219
  273SOL    HW1 2716   5.987  13.270   6.289
  273SOL    HW2 2717   6.068  13.144   6.264
  274SOL     OW 2718   8.285  13.647   5.377
  274SOL    HW1 2719   8.349  13.611   5.439
  274SOL    HW2 2720   8.201  13.639   5.422
  275SOL     OW 2721   0.645   4.837   2.603
  275SOL    HW1 2722   0.619   4.756   2.648
  275SOL    HW2 2723   0.580   4.901   2.631
  276SOL     OW 2724   7.394  13.089   2.697
  276SOL    HW1 2725   7.300  13.073   2.684
  276SOL    HW2 2726   7.436  13.016   2.651
  277SOL     OW 2727   0.755   2.185  13.032
  277SOL    HW1 2728   0.802   2.260  13.069
  277SOL    HW2 2729   0.673   2.222  12.998
  278SOL     OW 2730   9.582   3.364  11.820
  278SOL    HW1 2731   9.501   3.405  11.790
  278SOL    HW2 2732   9.593   3.395  11.910
  279SOL     OW 2733   0.506  13.193   7.240
  279SOL    HW1 2734   0.435  13.256   7.230
  279SOL    HW2 2735   0.461  13.108   7.249
  280SOL     OW 2736  10.234  13.473   7.810
  280SOL    HW1 2737  10.170  13.455   7.741
  280SOL    HW2 2738  10.182  13.491   7.888
  281SOL     OW 2739  13.625  12.185   4.643
  281SOL    HW1 2740  13.715  12.151   4.646
  281SOL    HW2 2741  13.600  12.193   4.735
  282SOL     OW 2742   8.457   6.419   6.041
  282SOL    HW1 2743   8.435   6.353   6.108
  282SOL    HW2 2744   8.407   6.497   6.067
  283SOL     OW 2745   4.598   9.973   0.595
  283SOL    HW1 2746   4.661   9.956   0.525
  283SOL    HW2 2747   4.571   9.886   0.624
  284SOL     OW 2748  13.419   5.108  10.798
  284SOL    HW1 2749  13.428   5.079  10.707
  284SOL    HW2 2750  13.474   5.187  10.804
  285SOL     OW 2751   3.017   7.648  14.859
  285SOL    HW1 2752   3.008   7.677   0.078
  285SOL    HW2 2753   2.927   7.636  14.828
  286SOL     OW 2754   9.675  12.917   1.302
  286SOL    HW1 2755   9.646  12.827   1.318
  286SOL    HW2 2756   9.663  12.962   1.385
  287SOL     OW 2757  11.762   5.824   7.227
  287SOL    HW1 2758  11.790   5.744   7.273
  287SOL    HW2 2759  11.760   5.891   7.295
  288SOL     OW 2760   4.785  12.155   3.906
  288SOL    HW1 2761   4.778  12.083   3.968
  288SOL    HW2 2762   4.877  12.181   3.909
  289SOL     OW 2763   6.238  11.768  13.516
  289SOL    HW1 2764   6.253  11.795  13.425
  289SOL    HW2 2765   6.154  11.722  13.513
  290SOL     OW 2766  13.087   4.518   7.171
  290SOL    HW1 2767  13.096   4.612   7.186
  290SOL    HW2 2768  13.002   4.508   7.129
  291SOL     OW 2769   0.083   7.698   9.605
  291SOL    HW1 2770   0.065   7.606   9.623
  291SOL    HW2 2771   0.152   7.722   9.666
  292SOL     OW 2772   4.531   9.867  13.117
  292SOL    HW1 2773   4.530   9.806  13.043
  292SOL    HW2 2774   4.587   9.825  13.182
  293SOL     OW 2775  12.032   1.441  12.959
  293SOL    HW1 2776  12.068   1.356  12.988
  293SOL    HW2 2777  12.047   1.499  13.034
  294SOL     OW 2778   6.948   4.383   2.915
  294SOL    HW1 2779   7.021   4.438   2.884
  294SOL    HW2 2780   6.947   4.398   3.010
  295SOL     OW 2781   5.714  14.033  10.308
  295SOL    HW1 2782   5.621  14.048  10.292
  295SOL    HW2 2783   5.759  14.083  10.240
  296SOL     OW 2784   8.112  12.491   1.185
  296SOL    HW1 2785   8.171  12.429   1.227
  296SOL    HW2 2786   8.057  12.524   1.256
  297SOL     OW 2787  14.427  12.906   5.572
  297SOL    HW1 2788  14.404  12.814   5.561
  297SOL    HW2 2789  14.376  12.935   5.648
  298SOL     OW 2790  10.448  10.749   6.130
  298SOL    HW1 2791  10.383  10.769   6.197
  298SOL    HW2 2792  10.437  10.655   6.114
  299SOL     OW 2793  13.916   8.729   6.181
  299SOL    HW1 2794  13.854   8.755   6.112
  299SOL    HW2 2795  13.900   8.636   6.194
  300SOL     OW 2796   0.208  11.778   4.261
  300SOL    HW1 2797   0.134  11.790   4.321
  300SOL    HW2 2798   0.185  11.700   4.211
  301SOL     OW 2799   6.529   5.288   0.782
  301SOL    HW1 2800   6.434   5.292   0.790
  301SOL    HW2 2801   6.546   5.215   0.722
  302SOL     OW 2802   5.959  14.275  12.713
  302SOL    HW1 2803   6.010  14.245  12.788
  302SOL    HW2 2804   6.022  14.318  12.655
  303SOL     OW 2805  13.616   5.781  11.315
  303SOL    HW1 2806  13.669   5.860  11.320
  303SOL    HW2 2807  13.670   5.713  11.355
  304SOL     OW 2808   8.801   5.816   8.050
  304SOL    HW1 2809   8.800   5.753   8.122
  304SOL    HW2 2810   8.724   5.794   7.998
  305SOL     OW 2811  13.559  13.783   7.966
  305SOL    HW1 2812  13.645  13.795   7.926
  305SOL    HW2 2813  13.573  13.717   8.034
  306SOL     OW 2814  12.112  10.485   0.035
  306SOL    HW1 2815  12.132  10.465   0.126
  306SOL    HW2 2816  12.033  10.436   0.016
  307SOL     OW 2817  11.261   2.585   3.114
  307SOL    HW1 2818  11.243   2.662   3.060
  307SOL    HW2 2819  11.195   2.588   3.184
  308SOL     OW 2820  14.189   7.522   5.296
  308SOL    HW1 2821  14.280   7.496   5.310
  308SOL    HW2 2822  14.192   7.618   5.288
  309SOL     OW 2823  10.458   5.969   2.423
  309SOL    HW1 2824  10.382   6.026   2.424
  309SOL    HW2 2825  10.526   6.018   2.469
  310SOL     OW 2826  10.214   8.762   0.856
  310SOL    HW1 2827  10.170   8.685   0.891
  310SOL    HW2 2828  10.176   8.836   0.902
  311SOL     OW 2829   8.535   4.792   3.009
  311SOL    HW1 2830   8.618   4.840   3.007
  311SOL    HW2 2831   8.516   4.780   3.102
  312SOL     OW 2832  11.685   0.426  10.764
  312SOL    HW1 2833  11.591   0.421  10.779
  312SOL    HW2 2834  11.702   0.362  10.695
  313SOL     OW 2835  11.302  13.137   3.353
  313SOL    HW1 2836  11.279  13.217   3.400
  313SOL    HW2 2837  11.312  13.071   3.422
  314SOL     OW 2838  13.082  10.577   3.767
  314SOL    HW1 2839  13.097  10.671   3.779
  314SOL    HW2 2840  13.153  10.548   3.709
  315SOL     OW 2841  12.038   9.760   2.839
  315SOL    HW1 2842  11.949   9.777   2.870
  315SOL    HW2 2843  12.057   9.832   2.779
  316SOL     OW 2844   2.074   0.251   5.129
  316SOL    HW1 2845   2.084   0.344   5.150
  316SOL    HW2 2846   2.019   0.250   5.050
  317SOL     OW 2847   3.951   4.911   7.898
  317SOL    HW1 2848   3.862   4.877   7.911
  317SOL    HW2 2849   4.002   4.834   7.872
  318SOL     OW 2850   3.949   4.052  14.051
  318SOL    HW1 2851   3.961   4.147  14.055
  318SOL    HW2 2852   3.951   4.023  14.142
  319SOL     OW 2853   6.105   8.089   9.353
  319SOL    HW1 2854   6.163   8.157   9.387
  319SOL    HW2 2855   6.090   8.114   9.262
  320SOL     OW 2856   8.143   2.445   0.114
  320SOL    HW1 2857   8.132   2.433   0.208
  320SOL    HW2 2858   8.222   2.394   0.093
  321SOL     OW 2859   5.183   3.970   2.654
  321SOL    HW1 2860   5.224   3.915   2.721
  321SOL    HW2 2861   5.233   3.954   2.575
  322SOL     OW 2862   6.031   2.354  13.150
  322SOL    HW1 2863   6.095   2.378  13.082
  322SOL    HW2 2864   5.995   2.437  13.180
  323SOL     OW 2865   1.823  13.836  11.219
  323SOL    HW1 2866   1.901  13.815  11.272
  323SOL    HW2 2867   1.859  13.867  11.136
  324SOL     OW 2868   5.220  14.251   6.844
  324SOL    HW1 2869   5.206  14.333   6.797
  324SOL    HW2 2870   5.135  14.207   6.842
  325SOL     OW 2871  11.086  11.413   7.692
  325SOL    HW1 2872  11.045  11.342   7.643
  325SOL    HW2 2873  11.026  11.487   7.682
  326SOL     OW 2874   9.088   0.110   9.575
  326SOL    HW1 2875   9.056   0.030   9.534
  326SOL    HW2 2876   9.020   0.133   9.639
  327SOL     OW 2877   0.421   7.489  12.903
  327SOL    HW1 2878   0.369   7.514  12.980
  327SOL    HW2 2879   0.503   7.537  12.913
  328SOL     OW 2880   7.563  11.827   4.939
  328SOL    HW1 2881   7.536  11.751   4.992
  328SOL    HW2 2882   7.626  11.873   4.994
  329SOL     OW 2883  13.723  14.479   5.860
  329SOL    HW1 2884  13.789  14.411   5.875
  329SOL    HW2 2885  13.766  14.543   5.803
  330SOL     OW 2886  12.285   3.124  11.213
  330SOL    HW1 2887  12.229   3.201  11.223
  330SOL    HW2 2888  12.230   3.050  11.238
  331SOL     OW 2889   7.545  12.422   9.950
  331SOL    HW1 2890   7.496  12.469   9.883
  331SOL    HW2 2891   7.539  12.477  10.028
  332SOL     OW 2892   0.518   8.031   4.981
  332SOL    HW1 2893   0.589   8.027   5.045
  332SOL    HW2 2894   0.525   8.118   4.943
  333SOL     OW 2895   4.409  13.922   9.872
  333SOL    HW1 2896   4.380  13.838   9.908
  333SOL    HW2 2897   4.345  13.986   9.903
  334SOL     OW 2898   0.746   3.152   0.558
  334SOL    HW1 2899   0.833   3.159   0.518
  334SOL    HW2 2900   0.713   3.068   0.528
  335SOL     OW 2901   2.049   3.091   9.196
  335SOL    HW1 2902   2.024   3.064   9.108
  335SOL    HW2 2903   2.090   3.014   9.234
  336SOL     OW 2904   1.365   6.266   8.482
  336SOL    HW1 2905   1.377   6.240   8.573
  336SOL    HW2 2906   1.452   6.257   8.442
  337SOL     OW 2907   9.176   9.604   4.863
  337SOL    HW1 2908   9.200   9.586   4.954
  337SOL    HW2 2909   9.260   9.610   4.817
  338SOL     OW 2910  11.091   0.307  12.036
  338SOL    HW1 2911  11.163   0.339  11.982
  338SOL    HW2 2912  11.120   0.321  12.126
  339SOL     OW 2913   2.503  11.688  11.872
  339SOL    HW1 2914   2.493  11.679  11.966
  339SOL    HW2 2915   2.552  11.770  11.861
  340SOL     OW 2916   1.972   2.099   1.471
  340SOL    HW1 2917   1.942   2.139   1.553
  340SOL    HW2 2918   2.049   2.048   1.496
  341SOL     OW 2919   6.376  13.298   6.671
  341SOL    HW1 2920   6.287  13.264   6.661
  341SOL    HW2 2921   6.421  13.231   6.721
  342SOL     OW 2922  10.721   7.993   2.755
  342SOL    HW1 2923  10.647   8.009   2.697
  342SOL    HW2 2924  10.718   8.064   2.819
  343SOL     OW 2925  11.117   4.287   6.761
  343SOL    HW1 2926  11.158   4.213   6.715
  343SOL    HW2 2927  11.150   4.280   6.850
  344SOL     OW 2928   7.302   3.905   5.742
  344SOL    HW1 2929   7.247   3.954   5.804
  344SOL    HW2 2930   7.250   3.829   5.718
  345SOL     OW 2931  11.920   2.596  10.174
  345SOL    HW1 2932  11.916   2.651  10.252
  345SOL    HW2 2933  11.989   2.532  10.193
  346SOL     OW 2934   1.879  11.245   6.063
  346SOL    HW1 2935   1.934  11.319   6.089
  346SOL    HW2 2936   1.839  11.214   6.144
  347SOL     OW 2937   5.400   4.442   6.447
  347SOL    HW1 2938   5.427   4.499   6.375
  347SOL    HW2 2939   5.479   4.426   6.497
  348SOL     OW 2940   7.516   8.053   5.906
  348SOL    HW1 2941   7.480   8.127   5.955
  348SOL    HW2 2942   7.442   8.019   5.855
  349SOL     OW 2943   5.807   9.651   4.315
  349SOL    HW1 2944   5.752   9.716   4.360
  349SOL    HW2 2945   5.840   9.697   4.238
  350SOL     OW 2946  10.591   1.950  12.584
  350SOL    HW1 2947  10.554   2.039  12.581
  350SOL    HW2 2948  10.544   1.902  12.516
  351SOL     OW 2949   2.642  10.428   5.036
  351SOL    HW1 2950   2.583  10.383   5.096
  351SOL    HW2 2951   2.609  10.518   5.032
  352SOL     OW 2952  10.717   7.446   9.921
  352SOL    HW1 2953  10.704   7.495  10.003
  352SOL    HW2 2954  10.708   7.512   9.852
  353SOL     OW 2955   3.032   0.703   6.380
  353SOL    HW1 2956   3.035   0.745   6.466
  353SOL    HW2 2957   3.090   0.627   6.387
  354SOL     OW 2958   8.595   3.021  10.973
  354SOL    HW1 2959   8.500   3.008  10.969
  354SOL    HW2 2960   8.629   2.940  11.011
  355SOL     OW 2961  10.043   5.861   4.153
  355SOL    HW1 2962  10.096   5.927   4.108
  355SOL    HW2 2963  10.086   5.778   4.134
  356SOL     OW 2964  13.250  14.096  11.080
  356SOL    HW1 2965  13.311  14.029  11.111
  356SOL    HW2 2966  13.248  14.161  11.151
  357SOL     OW 2967   2.332   5.814   0.985
  357SOL    HW1 2968   2.409   5.759   1.001
  357SOL    HW2 2969   2.263   5.752   0.960
  358SOL     OW 2970   6.492   0.669  10.880
  358SOL    HW1 2971   6.519   0.584  10.845
  358SOL    HW2 2972   6.544   0.680  10.960
  359SOL     OW 2973   8.287  10.540   4.256
  359SOL    HW1 2974   8.345  10.543   4.180
  359SOL    HW2 2975   8.336  10.490   4.321
  360SOL     OW 2976   2.738  11.127   4.938
  360SOL    HW1 2977   2.778  11.065   4.877
  360SOL    HW2 2978   2.794  11.123   5.015
  361SOL     OW 2979  13.867   9.718   5.049
  361SOL    HW1 2980  13.864   9.745   5.141
  361SOL    HW2 2981  13.776   9.702   5.025
  362SOL     OW 2982  12.806   0.831   3.722
  362SOL    HW1 2983  12.815   0.766   3.652
  362SOL    HW2 2984  12.847   0.910   3.687
  363SOL     OW 2985   8.433   9.125   1.671
  363SOL    HW1 2986   8.401   9.139   1.582
  363SOL    HW2 2987   8.528   9.136   1.664
  364SOL     OW 2988  13.268  12.338  12.391
  364SOL    HW1 2989  13.208  12.268  12.365
  364SOL    HW2 2990  13.351  12.294  12.407
  365SOL     OW 2991   2.681   3.737  12.214
  365SOL    HW1 2992   2.673   3.663  12.154
  365SOL    HW2 2993   2.595   3.779  12.212
  366SOL     OW 2994   7.523   4.239   8.835
  366SOL    HW1 2995   7.546   4.162   8.783
  366SOL    HW2 2996   7.428   4.247   8.827
  367SOL     OW 2997   8.593  14.832   1.447
  367SOL    HW1 2998   8.532  14.795   1.383
  367SOL    HW2 2999   8.635  14.755   1.486
  368SOL     OW 3000  12.007  11.358   4.984
  368SOL    HW1 3001  12.096  11.325   4.974
  368SOL    HW2 3002  11.963  11.334   4.903
  369SOL     OW 3003   3.126   6.000  12.860
  369SOL    HW1 3004   3.197   6.060  12.883
  369SOL    HW2 3005   3.165   5.939  12.796
  370SOL     OW 3006   4.091   6.673   8.318
  370SOL    HW1 3007   4.177   6.632   8.314
  370SOL    HW2 3008   4.063   6.662   8.409
  371SOL     OW 3009  11.521  11.835   3.110
  371SOL    HW1 3010  11.596  11.793   3.152
  371SOL    HW2 3011  11.448  11.819   3.170
  372SOL     OW 3012  13.723   1.840   8.989
  372SOL    HW1 3013  13.717   1.857   9.083
  372SOL    HW2 3014  13.775   1.913   8.955
  373SOL     OW 3015   4.063   2.212   0.513
  373SOL    HW1 3016   4.073   2.181   0.604
  373SOL    HW2 3017   4.018   2.140   0.469
  374SOL     OW 3018   6.586   5.509   4.464
  374SOL    HW1 3019   6.525   5.485   4.393
  374SOL    HW2 3020   6.631   5.427   4.485
  375SOL     OW 3021  12.333   0.051  13.656
  375SOL    HW1 3022  12.328   0.093  13.741
  375SOL    HW2 3023  12.246   0.063  13.618
  376SOL     OW 3024   8.758   4.843   1.943
  376SOL    HW1 3025   8.672   4.810   1.916
  376SOL    HW2 3026   8.747   4.938   1.945
  377SOL     OW 3027   1.959   1.196   8.288
  377SOL    HW1 3028   1.882   1.140   8.294
  377SOL    HW2 3029   2.033   1.135   8.295
  378SOL     OW 3030   0.070   3.958   8.702
  378SOL    HW1 3031   0.134   4.017   8.743
  378SOL    HW2 3032   0.026   3.915   8.776
  379SOL     OW 3033   3.340  12.107   8.666
  379SOL    HW1 3034   3.311  12.054   8.740
  379SOL    HW2 3035   3.435  12.113   8.675
  380SOL     OW 3036   0.310   0.353   7.006
  380SOL    HW1 3037   0.377   0.421   7.005
  380SOL    HW2 3038   0.265   0.361   6.922
  381SOL     OW 3039   5.551   0.546   6.621
  381SOL    HW1 3040   5.629   0.575   6.574
  381SOL    HW2 3041   5.480   0.600   6.585
  382SOL     OW 3042   6.043   9.266   7.536
  382SOL    HW1 3043   5.954   9.242   7.514
  382SOL    HW2 3044   6.060   9.345   7.485
  383SOL     OW 3045   8.079   7.978   4.058
  383SOL    HW1 3046   8.003   7.972   4.001
  383SOL    HW2 3047   8.062   7.915   4.128
  384SOL     OW 3048   4.928   0.804   6.402
  384SOL    HW1 3049   4.910   0.763   6.317
  384SOL    HW2 3050   4.853   0.779   6.456
  385SOL     OW 3051  11.138   1.139   7.807
  385SOL    HW1 3052  11.069   1.180   7.860
  385SOL    HW2 3053  11.118   1.045   7.811
  386SOL     OW 3054   0.725  12.440   3.699
  386SOL    HW1 3055   0.750  12.488   3.620
  386SOL    HW2 3056   0.741  12.501   3.771
  387SOL     OW 3057  11.139   3.311   3.840
  387SOL    HW1 3058  11.201   3.279   3.906
  387SOL    HW2 3059  11.190   3.317   3.759
  388SOL     OW 3060  10.787   2.665   3.217
  388SOL    HW1 3061  10.857   2.672   3.153
  388SOL    HW2 3062  10.832   2.644   3.299
  389SOL     OW 3063   6.986   4.098   1.191
  389SOL    HW1 3064   6.896   4.123   1.171
  389SOL    HW2 3065   6.983   4.003   1.202
  390SOL     OW 3066  13.491  12.225  12.492
  390SOL    HW1 3067  13.495  12.312  12.533
  390SOL    HW2 3068  13.570  12.221  12.438
  391SOL     OW 3069   7.107  14.705   7.987
  391SOL    HW1 3070   7.137  14.774   8.046
  391SOL    HW2 3071   7.051  14.649   8.042
  392SOL     OW 3072   8.873  10.382   5.342
  392SOL    HW1 3073   8.855  10.293   5.371
  392SOL    HW2 3074   8.787  10.418   5.320
  393SOL     OW 3075   3.452   7.046   4.041
  393SOL    HW1 3076   3.518   7.098   3.995
  393SOL    HW2 3077   3.372   7.055   3.989
  394SOL     OW 3078  10.497  12.044   0.915
  394SOL    HW1 3079  10.501  12.082   0.827
  394SOL    HW2 3080  10.405  12.054   0.941
  395SOL     OW 3081   2.695   5.831   6.875
  395SOL    HW1 3082   2.751   5.787   6.811
  395SOL    HW2 3083   2.755   5.886   6.925
  396SOL     OW 3084   0.998  13.906  10.431
  396SOL    HW1 3085   0.940  13.846  10.384
  396SOL    HW2 3086   0.951  13.925  10.513
  397SOL     OW 3087  12.628   9.885   0.265
  397SOL    HW1 3088  12.684   9.898   0.342
  397SOL    HW2 3089  12.548   9.932   0.285
  398SOL     OW 3090   0.208  11.399   3.559
  398SOL    HW1 3091   0.241  11.480   3.519
  398SOL    HW2 3092   0.287  11.351   3.584
  399SOL     OW 3093  10.634   1.165   4.093
  399SOL    HW1 3094  10.618   1.173   3.999
  399SOL    HW2 3095  10.654   1.072   4.106
  400SOL     OW 3096   2.801   9.658  11.242
  400SOL    HW1 3097   2.896   9.653  11.236
  400SOL    HW2 3098   2.769   9.606  11.167
  401SOL     OW 3099   0.684   5.143   7.167
  401SOL    HW1 3100   0.670   5.054   7.201
  401SOL    HW2 3101   0.753   5.133   7.102
  402SOL     OW 3102   6.028   1.621   3.559
  402SOL    HW1 3103   5.960   1.609   3.492
  402SOL    HW2 3104   5.981   1.655   3.635
  403SOL     OW 3105   6.762   9.055   8.045
  403SOL    HW1 3106   6.743   8.985   8.107
  403SOL    HW2 3107   6.839   9.024   7.997
  404SOL     OW 3108   1.110  13.948  11.838
  404SOL    HW1 3109   1.077  14.037  11.851
  404SOL    HW2 3110   1.205  13.959  11.832
  405SOL     OW 3111   6.157   1.393   1.793
  405SOL    HW1 3112   6.065   1.366   1.790
  405SOL    HW2 3113   6.166   1.457   1.723
  406SOL     OW 3114   3.305  13.895  12.922
  406SOL    HW1 3115   3.307  13.799  12.919
  406SOL    HW2 3116   3.212  13.917  12.927
  407SOL     OW 3117   7.748   5.506   5.723
  407SOL    HW1 3118   7.676   5.477   5.667
  407SOL    HW2 3119   7.826   5.498   5.667
  408SOL     OW 3120   5.961   6.508  14.374
  408SOL    HW1 3121   5.922   6.513  14.461
  408SOL    HW2 3122   6.048   6.548  14.384
  409SOL     OW 3123   0.781   9.082   4.426
  409SOL    HW1 3124   0.865   9.079   4.380
  409SOL    HW2 3125   0.717   9.107   4.359
  410SOL     OW 3126  12.708  14.713   2.696
  410SOL    HW1 3127  12.714  14.767   2.775
  410SOL    HW2 3128  12.640  14.649   2.715
  411SOL     OW 3129   2.054   2.531   8.003
  411SOL    HW1 3130   2.146   2.523   8.028
  411SOL    HW2 3131   2.042   2.625   7.986
  412SOL     OW 3132   9.052  10.781   4.983
  412SOL    HW1 3133   9.050  10.708   5.044
  412SOL    HW2 3134   9.122  10.838   5.016
  413SOL     OW 3135   2.237   4.174  10.713
  413SOL    HW1 3136   2.245   4.257  10.760
  413SOL    HW2 3137   2.295   4.114  10.759
  414SOL     OW 3138   0.134  11.467  11.928
  414SOL    HW1 3139   0.048  11.502  11.907
  414SOL    HW2 3140   0.186  11.480  11.848
  415SOL     OW 3141   1.557   9.278   1.245
  415SOL    HW1 3142   1.596   9.292   1.332
  415SOL    HW2 3143   1.498   9.353   1.234
  416SOL     OW 3144   9.376   3.238  12.669
  416SOL    HW1 3145   9.436   3.279  12.731
  416SOL    HW2 3146   9.382   3.293  12.591
  417SOL     OW 3147   8.600   4.633   0.355
  417SOL    HW1 3148   8.544   4.622   0.431
  417SOL    HW2 3149   8.568   4.569   0.292
  418SOL     OW 3150   3.258  14.458   4.120
  418SOL    HW1 3151   3.261  14.550   4.093
  418SOL    HW2 3152   3.321  14.414   4.063
  419SOL     OW 3153  13.681   8.056   1.979
  419SOL    HW1 3154  13.602   8.111   1.983
  419SOL    HW2 3155  13.753   8.117   1.992
  420SOL     OW 3156   2.856  12.461  13.876
  420SOL    HW1 3157   2.779  12.502  13.916
  420SOL    HW2 3158   2.830  12.442  13.786
  421SOL     OW 3159  13.058   8.873   9.780
  421SOL    HW1 3160  13.022   8.851   9.694
  421SOL    HW2 3161  12.990   8.845   9.842
  422SOL     OW 3162   6.180   6.280  12.781
  422SOL    HW1 3163   6.096   6.291  12.737
  422SOL    HW2 3164   6.207   6.370  12.803
  423SOL     OW 3165   1.349   2.138   5.689
  423SOL    HW1 3166   1.277   2.117   5.630
  423SOL    HW2 3167   1.394   2.054   5.703
  424SOL     OW 3168   6.490  14.249   9.933
  424SOL    HW1 3169   6.436  14.260  10.012
  424SOL    HW2 3170   6.574  14.218   9.966
  425SOL     OW 3171   1.600  13.228   1.084
  425SOL    HW1 3172   1.573  13.278   1.007
  425SOL    HW2 3173   1.641  13.150   1.048
  426SOL     OW 3174  13.020   2.113   2.342
  426SOL    HW1 3175  13.093   2.125   2.403
  426SOL    HW2 3176  13.036   2.026   2.303
  427SOL     OW 3177  11.896   6.736   4.602
  427SOL    HW1 3178  11.840   6.806   4.569
  427SOL    HW2 3179  11.919   6.684   4.525
  428SOL     OW 3180   7.306   2.542   1.892
  428SOL    HW1 3181   7.245   2.572   1.959
  428SOL    HW2 3182   7.307   2.447   1.901
  429SOL     OW 3183   5.013   2.394   9.807
  429SOL    HW1 3184   4.995   2.323   9.746
  429SOL    HW2 3185   5.069   2.455   9.759
  430SOL     OW 3186   1.254   1.112   1.809
  430SOL    HW1 3187   1.260   1.028   1.853
  430SOL    HW2 3188   1.189   1.161   1.859
  431SOL     OW 3189  11.601  13.274  11.923
  431SOL    HW1 3190  11.581  13.347  11.981
  431SOL    HW2 3191  11.664  13.310  11.860
  432SOL     OW 3192   4.410  10.277   2.065
  432SOL    HW1 3193   4.394  10.341   2.135
  432SOL    HW2 3194   4.427  10.195   2.111
  433SOL     OW 3195   5.826   4.285   8.803
  433SOL    HW1 3196   5.816   4.232   8.882
  433SOL    HW2 3197   5.762   4.356   8.812
  434SOL     OW 3198  13.103   0.735   2.688
  434SOL    HW1 3199  13.154   0.658   2.665
  434SOL    HW2 3200  13.152   0.776   2.759
  435SOL     OW 3201  13.887   5.634   3.766
  435SOL    HW1 3202  13.859   5.724   3.783
  435SOL    HW2 3203  13.972   5.627   3.808
  436SOL     OW 3204   2.275   9.850   7.088
  436SOL    HW1 3205   2.208   9.872   7.023
  436SOL    HW2 3206   2.342   9.918   7.078
  437SOL     OW 3207  12.833  10.915  14.583
  437SOL    HW1 3208  12.800  10.826  14.567
  437SOL    HW2 3209  12.770  10.973  14.540
  438SOL     OW 3210   8.869   4.217   1.781
  438SOL    HW1 3211   8.905   4.187   1.865
  438SOL    HW2 3212   8.847   4.308   1.796
  439SOL     OW 3213  10.527   6.865  10.219
  439SOL    HW1 3214  10.581   6.943  10.204
  439SOL    HW2 3215  10.450   6.898  10.266
  440SOL     OW 3216  11.934   0.060   7.444
  440SOL    HW1 3217  12.000   0.100   7.388
  440SOL    HW2 3218  11.971  14.847   7.468
  441SOL     OW 3219   5.530  12.815  10.744
  441SOL    HW1 3220   5.441  12.792  10.773
  441SOL    HW2 3221   5.529  12.910  10.739
  442SOL     OW 3222  13.287  12.836   7.403
  442SOL    HW1 3223  13.333  12.920   7.400
  442SOL    HW2 3224  13.199  12.857   7.433
  443SOL     OW 3225   4.714  13.166   4.928
  443SOL    HW1 3226   4.658  13.112   4.872
  443SOL    HW2 3227   4.653  13.213   4.985
  444SOL     OW 3228   4.688   0.482   8.095
  444SOL    HW1 3229   4.749   0.450   8.028
  444SOL    HW2 3230   4.625   0.410   8.106
  445SOL     OW 3231   1.954  14.314   8.559
  445SOL    HW1 3232   2.018  14.354   8.618
  445SOL    HW2 3233   2.006  14.257   8.502
  446SOL     OW 3234   3.693   0.111   4.334
  446SOL    HW1 3235   3.645   0.092   4.415
  446SOL    HW2 3236   3.728   0.200   4.348
  447SOL     OW 3237  10.037   3.916   0.928
  447SOL    HW1 3238   9.956   3.885   0.886
  447SOL    HW2 3239  10.096   3.934   0.855
  448SOL     OW 3240   4.047   9.646   0.261
  448SOL    HW1 3241   3.989   9.677   0.331
  448SOL    HW2 3242   4.126   9.699   0.272
  449SOL     OW 3243  14.654   0.654  12.862
  449SOL    HW1 3244  14.583   0.596  12.836
  449SOL    HW2 3245  14.611   0.727  12.906
  450SOL     OW 3246   8.818   0.513   4.292
  450SOL    HW1 3247   8.797   0.537   4.382
  450SOL    HW2 3248   8.857   0.593   4.255
  451SOL     OW 3249  12.040   3.623   8.127
  451SOL    HW1 3250  12.051   3.546   8.183
  451SOL    HW2 3251  12.055   3.591   8.038
  452SOL     OW 3252  11.704   1.516  12.603
  452SOL    HW1 3253  11.766   1.560  12.662
  452SOL    HW2 3254  11.670   1.443  12.655
  453SOL     OW 3255   8.215   9.368   3.157
  453SOL    HW1 3256   8.310   9.359   3.147
  453SOL    HW2 3257   8.179   9.325   3.079
  454SOL     OW 3258   0.939   9.240   2.265
  454SOL    HW1 3259   0.903   9.153   2.248
  454SOL    HW2 3260   0.905   9.295   2.194
  455SOL     OW 3261  13.710  13.715   2.875
  455SOL    HW1 3262  13.665  13.642   2.834
  455SOL    HW2 3263  13.801  13.705   2.851
  456SOL     OW 3264   0.943  14.627   6.252
  456SOL    HW1 3265   0.958  14.720   6.268
  456SOL    HW2 3266   0.938  14.588   6.339
  457SOL     OW 3267   0.345   1.218  11.095
  457SOL    HW1 3268   0.379   1.225  11.184
  457SOL    HW2 3269   0.370   1.300  11.053
  458SOL     OW 3270  14.128   5.433   5.905
  458SOL    HW1 3271  14.064   5.426   5.976
  458SOL    HW2 3272  14.079   5.407   5.826
  459SOL     OW 3273   3.135  10.673   6.486
  459SOL    HW1 3274   3.124  10.596   6.542
  459SOL    HW2 3275   3.129  10.639   6.397
  460SOL     OW 3276   3.985   7.728   2.054
  460SOL    HW1 3277   3.979   7.661   1.986
  460SOL    HW2 3278   4.072   7.715   2.092
  461SOL     OW 3279   9.908  13.910   8.646
  461SOL    HW1 3280   9.904  14.006   8.648
  461SOL    HW2 3281   9.952  13.890   8.563
  462SOL     OW 3282   1.009  13.695  13.439
  462SOL    HW1 3283   1.037  13.720  13.351
  462SOL    HW2 3284   0.971  13.775  13.475
  463SOL     OW 3285   9.771   1.949   0.417
  463SOL    HW1 3286   9.861   1.965   0.446
  463SOL    HW2 3287   9.729   2.035   0.419
  464SOL     OW 3288  14.602  13.629   6.921
  464SOL    HW1 3289  14.600  13.550   6.866
  464SOL    HW2 3290  14.620  13.596   7.009
  465SOL     OW 3291   9.080   2.747   0.020
  465SOL    HW1 3292   9.159   2.704  14.859
  465SOL    HW2 3293   9.111   2.831   0.053
  466SOL     OW 3294   8.327   7.615   2.682
  466SOL    HW1 3295   8.346   7.600   2.590
  466SOL    HW2 3296   8.398   7.572   2.729
  467SOL     OW 3297   3.361  14.537   9.004
  467SOL    HW1 3298   3.271  14.510   9.022
  467SOL    HW2 3299   3.360  14.632   9.016
  468SOL     OW 3300   2.086   3.269   9.801
  468SOL    HW1 3301   2.149   3.254   9.730
  468SOL    HW2 3302   2.095   3.362   9.822
  469SOL     OW 3303  11.044   9.634  11.088
  469SOL    HW1 3304  11.002   9.710  11.128
  469SOL    HW2 3305  10.995   9.620  11.006
  470SOL     OW 3306  14.158   6.621   3.957
  470SOL    HW1 3307  14.189   6.531   3.960
  470SOL    HW2 3308  14.226   6.667   3.908
  471SOL     OW 3309   4.710   3.980  10.442
  471SOL    HW1 3310   4.755   3.934  10.513
  471SOL    HW2 3311   4.781   4.016  10.388
  472SOL     OW 3312   4.916  14.056   2.074
  472SOL    HW1 3313   4.956  14.014   1.998
  472SOL    HW2 3314   4.982  14.119   2.104
  473SOL     OW 3315   7.512   5.220   7.486
  473SOL    HW1 3316   7.577   5.150   7.482
  473SOL    HW2 3317   7.559   5.298   7.455
  474SOL     OW 3318  12.573  10.739  12.854
  474SOL    HW1 3319  12.556  10.683  12.930
  474SOL    HW2 3320  12.667  10.728  12.838
  475SOL     OW 3321  11.318  11.486  12.579
  475SOL    HW1 3322  11.350  11.474  12.489
  475SOL    HW2 3323  11.292  11.399  12.608
  476SOL     OW 3324   9.996  13.962  13.702
  476SOL    HW1 3325   9.953  14.018  13.767
  476SOL    HW2 3326  10.086  13.955  13.732
  477SOL     OW 3327   4.447   5.772  14.807
  477SOL    HW1 3328   4.394   5.849  14.830
  477SOL    HW2 3329   4.446   5.770  14.711
  478SOL     OW 3330   2.449  11.473   1.834
  478SOL    HW1 3331   2.446  11.543   1.769
  478SOL    HW2 3332   2.442  11.519   1.918
  479SOL     OW 3333  12.251  11.191  13.905
  479SOL    HW1 3334  12.306  11.254  13.857
  479SOL    HW2 3335  12.189  11.159  13.839
  480SOL     OW 3336   0.228  12.021   5.010
  480SOL    HW1 3337   0.196  12.064   5.089
  480SOL    HW2 3338   0.178  12.063   4.939
  481SOL     OW 3339  11.352   0.010  10.298
  481SOL    HW1 3340  11.426  14.827  10.327
  481SOL    HW2 3341  11.339  14.859  10.207
  482SOL     OW 3342   6.893   7.061   4.195
  482SOL    HW1 3343   6.950   7.050   4.272
  482SOL    HW2 3344   6.865   6.972   4.174
  483SOL     OW 3345  14.816   2.842  10.102
  483SOL    HW1 3346  14.765   2.824  10.024
  483SOL    HW2 3347   0.002   2.766  10.111
  484SOL     OW 3348   1.564   8.183  11.761
  484SOL    HW1 3349   1.633   8.147  11.705
  484SOL    HW2 3350   1.546   8.114  11.825
  485SOL     OW 3351   9.614   4.813   3.033
  485SOL    HW1 3352   9.599   4.751   3.104
  485SOL    HW2 3353   9.664   4.884   3.073
  486SOL     OW 3354   9.388  14.301   3.774
  486SOL    HW1 3355   9.413  14.217   3.734
  486SOL    HW2 3356   9.470  14.338   3.805
  487SOL     OW 3357  12.025   2.662   3.386
  487SOL    HW1 3358  12.066   2.691   3.304
  487SOL    HW2 3359  11.981   2.740   3.419
  488SOL     OW 3360   9.892  12.489   0.164
  488SOL    HW1 3361   9.985  12.486   0.141
  488SOL    HW2 3362   9.888  12.459   0.254
  489SOL     OW 3363   1.443   8.257   7.840
  489SOL    HW1 3364   1.349   8.243   7.846
  489SOL    HW2 3365   1.477   8.174   7.807
  490SOL     OW 3366   4.602  10.455   5.849
  490SOL    HW1 3367   4.600  10.370   5.892
  490SOL    HW2 3368   4.688  10.491   5.870
  491SOL     OW 3369   2.916   0.133   2.140
  491SOL    HW1 3370   2.891   0.054   2.188
  491SOL    HW2 3371   2.833   0.180   2.127
  492SOL     OW 3372  10.631  12.106   2.355
  492SOL    HW1 3373  10.613  12.027   2.405
  492SOL    HW2 3374  10.687  12.159   2.412
  493SOL     OW 3375   7.535   9.564   3.213
  493SOL    HW1 3376   7.466   9.603   3.267
  493SOL    HW2 3377   7.529   9.611   3.130
  494SOL     OW 3378  10.543  10.155   7.122
  494SOL    HW1 3379  10.612  10.190   7.179
  494SOL    HW2 3380  10.482  10.111   7.182
  495SOL     OW 3381  14.174  11.009  13.448
  495SOL    HW1 3382  14.126  10.938  13.407
  495SOL    HW2 3383  14.161  11.084  13.390
  496SOL     OW 3384   8.115  13.674   0.049
  496SOL    HW1 3385   8.146  13.585   0.061
  496SOL    HW2 3386   8.064  13.694   0.128
  497SOL     OW 3387   1.316   1.128  14.223
  497SOL    HW1 3388   1.381   1.066  14.189
  497SOL    HW2 3389   1.232   1.088  14.201
  498SOL     OW 3390   6.352   1.236   4.735
  498SOL    HW1 3391   6.344   1.183   4.814
  498SOL    HW2 3392   6.299   1.314   4.752
  499SOL     OW 3393   2.412   1.075   3.766
  499SOL    HW1 3394   2.460   1.142   3.814
  499SOL    HW2 3395   2.335   1.058   3.819
  500SOL     OW 3396   4.302  14.725  13.950
  500SOL    HW1 3397   4.221  14.766  13.920
  500SOL    HW2 3398   4.303  14.742  14.045
  501SOL     OW 3399  14.645   5.719   4.805
  501SOL    HW1 3400  14.675   5.807   4.782
  501SOL    HW2 3401  14.550   5.724   4.802
  502SOL     OW 3402  13.649   5.869   9.843
  502SOL    HW1 3403  13.713   5.810   9.883
  502SOL    HW2 3404  13.688   5.893   9.760
  503SOL     OW 3405   2.473  10.792   5.513
  503SOL    HW1 3406   2.502  10.875   5.474
  503SOL    HW2 3407   2.554  10.745   5.533
  504SOL     OW 3408   7.524  11.695  13.718
  504SOL    HW1 3409   7.598  11.753  13.701
  504SOL    HW2 3410   7.563  11.618  13.760
  505SOL     OW 3411   9.525   7.655  10.660
  505SOL    HW1 3412   9.524   7.713  10.736
  505SOL    HW2 3413   9.576   7.703  10.594
  506SOL     OW 3414   6.381   1.444   0.994
  506SOL    HW1 3415   6.332   1.499   1.056
  506SOL    HW2 3416   6.321   1.373   0.974
  507SOL     OW 3417   9.167   2.492  10.376
  507SOL    HW1 3418   9.235   2.450  10.324
  507SOL    HW2 3419   9.158   2.437  10.454
  508SOL     OW 3420   3.889   9.326   8.039
  508SOL    HW1 3421   3.903   9.299   8.129
  508SOL    HW2 3422   3.794   9.327   8.028
  509SOL     OW 3423   8.694  10.800   9.803
  509SOL    HW1 3424   8.697  10.780   9.709
  509SOL    HW2 3425   8.601  10.794   9.826
  510SOL     OW 3426  11.712  10.368   4.997
  510SOL    HW1 3427  11.692  10.461   4.983
  510SOL    HW2 3428  11.799  10.367   5.037
  511SOL     OW 3429   5.788   3.720   6.734
  511SOL    HW1 3430   5.766   3.716   6.641
  511SOL    HW2 3431   5.794   3.629   6.761
  512SOL     OW 3432   1.720  12.812   5.917
  512SOL    HW1 3433   1.640  12.862   5.897
  512SOL    HW2 3434   1.770  12.815   5.835
  513SOL     OW 3435   9.864   7.689   2.120
  513SOL    HW1 3436   9.864   7.637   2.040
  513SOL    HW2 3437   9.956   7.704   2.140
  514SOL     OW 3438   5.087   3.518  13.483
  514SOL    HW1 3439   5.131   3.600  13.506
  514SOL    HW2 3440   4.995   3.534  13.504
  515SOL     OW 3441   4.953  12.303   2.328
  515SOL    HW1 3442   4.930  12.323   2.418
  515SOL    HW2 3443   4.969  12.388   2.287
  516SOL     OW 3444  11.092   3.780   2.969
  516SOL    HW1 3445  11.000   3.764   2.950
  516SOL    HW2 3446  11.128   3.694   2.988
  517SOL     OW 3447  13.549   1.210   2.881
  517SOL    HW1 3448  13.618   1.145   2.879
  517SOL    HW2 3449  13.497   1.188   2.958
  518SOL     OW 3450   7.084   5.330   3.531
  518SOL    HW1 3451   7.022   5.387   3.577
  518SOL    HW2 3452   7.031   5.286   3.464
  519SOL     OW 3453  11.052   4.633   0.419
  519SOL    HW1 3454  11.146   4.649   0.419
  519SOL    HW2 3455  11.043   4.541   0.445
  520SOL     OW 3456   2.777  11.955   6.879
  520SOL    HW1 3457   2.851  12.010   6.906
  520SOL    HW2 3458   2.703  12.015   6.874
  521SOL     OW 3459  11.888   8.802   4.019
  521SOL    HW1 3460  11.814   8.746   4.044
  521SOL    HW2 3461  11.958   8.778   4.080
  522SOL     OW 3462   4.500   4.636  12.689
  522SOL    HW1 3463   4.424   4.681  12.725
  522SOL    HW2 3464   4.575   4.686  12.721
  523SOL     OW 3465   5.100  10.727   0.841
  523SOL    HW1 3466   5.170  10.666   0.815
  523SOL    HW2 3467   5.052  10.681   0.909
  524SOL     OW 3468  10.889  13.749   2.146
  524SOL    HW1 3469  10.920  13.835   2.177
  524SOL    HW2 3470  10.892  13.756   2.051
  525SOL     OW 3471   9.959   5.615   5.154
  525SOL    HW1 3472  10.012   5.682   5.198
  525SOL    HW2 3473   9.974   5.535   5.206
  526SOL     OW 3474   9.313  13.176   1.330
  526SOL    HW1 3475   9.298  13.227   1.250
  526SOL    HW2 3476   9.271  13.227   1.399
  527SOL     OW 3477   6.399   2.912   2.538
  527SOL    HW1 3478   6.380   2.960   2.457
  527SOL    HW2 3479   6.319   2.860   2.554
  528SOL     OW 3480  14.736   4.670   5.098
  528SOL    HW1 3481  14.658   4.617   5.081
  528SOL    HW2 3482  14.791   4.616   5.155
  529SOL     OW 3483   5.397  14.268   7.316
  529SOL    HW1 3484   5.440  14.183   7.324
  529SOL    HW2 3485   5.328  14.254   7.251
  530SOL     OW 3486   3.281   6.448   4.155
  530SOL    HW1 3487   3.268   6.543   4.149
  530SOL    HW2 3488   3.354   6.438   4.216
  531SOL     OW 3489   2.256   3.725  12.187
  531SOL    HW1 3490   2.326   3.788  12.202
  531SOL    HW2 3491   2.193   3.772  12.133
  532SOL     OW 3492  11.499   0.480   8.742
  532SOL    HW1 3493  11.431   0.435   8.793
  532SOL    HW2 3494  11.485   0.573   8.761
  533SOL     OW 3495   8.777   4.883  13.776
  533SOL    HW1 3496   8.684   4.906  13.769
  533SOL    HW2 3497   8.785   4.841  13.862
  534SOL     OW 3498   7.700  10.776   3.286
  534SOL    HW1 3499   7.730  10.686   3.290
  534SOL    HW2 3500   7.725  10.814   3.370
  535SOL     OW 3501   8.388  12.290   4.962
  535SOL    HW1 3502   8.419  12.223   5.022
  535SOL    HW2 3503   8.413  12.373   5.003
  536SOL     OW 3504  10.977  11.232  12.425
  536SOL    HW1 3505  10.889  11.204  12.401
  536SOL    HW2 3506  10.977  11.327  12.416
  537SOL     OW 3507   8.348  11.370   9.015
  537SOL    HW1 3508   8.425  11.415   8.979
  537SOL    HW2 3509   8.296  11.439   9.056
  538SOL     OW 3510   2.952  12.876  12.876
  538SOL    HW1 3511   2.913  12.932  12.809
  538SOL    HW2 3512   3.046  12.888  12.865
  539SOL     OW 3513   5.255   1.054   9.216
  539SOL    HW1 3514   5.176   1.031   9.166
  539SOL    HW2 3515   5.284   0.971   9.254
  540SOL     OW 3516   9.128  11.258   7.000
  540SOL    HW1 3517   9.189  11.207   6.948
  540SOL    HW2 3518   9.141  11.349   6.972
  541SOL     OW 3519  13.592  12.337  13.285
  541SOL    HW1 3520  13.571  12.302  13.372
  541SOL    HW2 3521  13.676  12.380  13.297
  542SOL     OW 3522  14.121   1.824   4.016
  542SOL    HW1 3523  14.120   1.918   3.998
  542SOL    HW2 3524  14.109   1.817   4.111
  543SOL     OW 3525   9.051  13.027  14.271
  543SOL    HW1 3526   9.059  12.986  14.357
  543SOL    HW2 3527   8.957  13.043  14.261
  544SOL     OW 3528  12.977  11.249   5.545
  544SOL    HW1 3529  12.984  11.315   5.476
  544SOL    HW2 3530  13.032  11.282   5.616
  545SOL     OW 3531  14.127   4.863   4.488
  545SOL    HW1 3532  14.191   4.881   4.420
  545SOL    HW2 3533  14.056   4.925   4.471
  546SOL     OW 3534   8.094  11.097   8.983
  546SOL    HW1 3535   8.113  11.106   9.077
  546SOL    HW2 3536   8.055  11.181   8.958
  547SOL     OW 3537  14.124  11.011   7.638
  547SOL    HW1 3538  14.055  11.063   7.597
  547SOL    HW2 3539  14.130  10.932   7.584
  548SOL     OW 3540   4.401  14.179   4.560
  548SOL    HW1 3541   4.395  14.087   4.585
  548SOL    HW2 3542   4.424  14.224   4.641
  549SOL     OW 3543   1.381  14.228  10.265
  549SOL    HW1 3544   1.426  14.215  10.348
  549SOL    HW2 3545   1.330  14.148  10.252
  550SOL     OW 3546   5.287  12.167   1.956
  550SOL    HW1 3547   5.192  12.174   1.965
  550SOL    HW2 3548   5.314  12.254   1.925
  551SOL     OW 3549  12.139   0.737   2.307
  551SOL    HW1 3550  12.193   0.712   2.232
  551SOL    HW2 3551  12.050   0.743   2.272
  552SOL     OW 3552   8.994  14.029   4.329
  552SOL    HW1 3553   9.068  13.974   4.358
  552SOL    HW2 3554   8.946  14.048   4.409
  553SOL     OW 3555   4.215  13.898   6.352
  553SOL    HW1 3556   4.257  13.945   6.424
  553SOL    HW2 3557   4.270  13.821   6.339
  554SOL     OW 3558  10.874  13.300  13.973
  554SOL    HW1 3559  10.910  13.242  14.041
  554SOL    HW2 3560  10.875  13.247  13.894
  555SOL     OW 3561   1.575   2.262   9.399
  555SOL    HW1 3562   1.484   2.257   9.428
  555SOL    HW2 3563   1.617   2.186   9.439
  556SOL     OW 3564   0.284   6.973  12.250
  556SOL    HW1 3565   0.202   6.965  12.297
  556SOL    HW2 3566   0.276   6.912  12.176
  557SOL     OW 3567   8.605  11.948  10.167
  557SOL    HW1 3568   8.607  11.880  10.234
  557SOL    HW2 3569   8.584  11.901  10.086
  558SOL     OW 3570   0.050  11.249  10.900
  558SOL    HW1 3571   0.055  11.304  10.978
  558SOL    HW2 3572   0.141  11.225  10.883
  559SOL     OW 3573   9.785   5.034   7.057
  559SOL    HW1 3574   9.699   5.007   7.089
  559SOL    HW2 3575   9.788   5.001   6.967
  560SOL     OW 3576   9.276   0.616  13.448
  560SOL    HW1 3577   9.239   0.546  13.395
  560SOL    HW2 3578   9.228   0.694  13.422
  561SOL     OW 3579   5.942   7.825  11.404
  561SOL    HW1 3580   6.026   7.812  11.449
  561SOL    HW2 3581   5.885   7.757  11.440
  562SOL     OW 3582  13.088   3.671   6.381
  562SOL    HW1 3583  13.001   3.696   6.349
  562SOL    HW2 3584  13.070   3.609   6.452
  563SOL     OW 3585   4.661   9.573   5.702
  563SOL    HW1 3586   4.732   9.536   5.648
  563SOL    HW2 3587   4.705   9.634   5.761
  564SOL     OW 3588   8.035   1.576   9.453
  564SOL    HW1 3589   8.078   1.554   9.535
  564SOL    HW2 3590   8.016   1.670   9.460
  565SOL     OW 3591  13.389   3.436  10.520
  565SOL    HW1 3592  13.427   3.449  10.433
  565SOL    HW2 3593  13.374   3.524  10.554
  566SOL     OW 3594   6.906   9.705   2.667
  566SOL    HW1 3595   6.918   9.613   2.647
  566SOL    HW2 3596   6.842   9.706   2.739
  567SOL     OW 3597  14.160  11.442   3.987
  567SOL    HW1 3598  14.186  11.529   3.958
  567SOL    HW2 3599  14.230  11.385   3.954
  568SOL     OW 3600  11.434  10.524  12.935
  568SOL    HW1 3601  11.442  10.509  12.841
  568SOL    HW2 3602  11.453  10.439  12.974
  569SOL     OW 3603   9.864  12.734   3.607
  569SOL    HW1 3604   9.819  12.748   3.691
  569SOL    HW2 3605   9.873  12.822   3.570
  570SOL     OW 3606   2.782   9.353   1.299
  570SOL    HW1 3607   2.744   9.440   1.304
  570SOL    HW2 3608   2.783   9.322   1.390
  571SOL     OW 3609  14.228   6.610   5.223
  571SOL    HW1 3610  14.319   6.596   5.198
  571SOL    HW2 3611  14.186   6.646   5.144
  572SOL     OW 3612   1.634  13.484   1.470
  572SOL    HW1 3613   1.567  13.549   1.493
  572SOL    HW2 3614   1.706  13.500   1.531
  573SOL     OW 3615  14.120   4.344  11.703
  573SOL    HW1 3616  14.214   4.328  11.713
  573SOL    HW2 3617  14.113   4.399  11.625
  574SOL     OW 3618   3.122   4.306   1.585
  574SOL    HW1 3619   3.035   4.288   1.620
  574SOL    HW2 3620   3.178   4.313   1.662
  575SOL     OW 3621  12.366  12.356  10.409
  575SOL    HW1 3622  12.284  12.335  10.453
  575SOL    HW2 3623  12.433  12.351  10.477
  576SOL     OW 3624   4.763   8.786   6.292
  576SOL    HW1 3625   4.749   8.872   6.252
  576SOL    HW2 3626   4.858   8.779   6.304
  577SOL     OW 3627   0.090  12.360   3.736
  577SOL    HW1 3628   0.055  12.271   3.745
  577SOL    HW2 3629   0.088  12.377   3.642
  578SOL     OW 3630   7.915   1.371   7.612
  578SOL    HW1 3631   7.880   1.327   7.534
  578SOL    HW2 3632   7.902   1.464   7.595
  579SOL     OW 3633  11.798  13.756   9.392
  579SOL    HW1 3634  11.776  13.828   9.332
  579SOL    HW2 3635  11.771  13.677   9.346
  580SOL     OW 3636   8.588   8.495   4.612
  580SOL    HW1 3637   8.675   8.535   4.601
  580SOL    HW2 3638   8.550   8.541   4.686
  581SOL     OW 3639  14.003   2.586   4.878
  581SOL    HW1 3640  13.980   2.494   4.889
  581SOL    HW2 3641  13.945   2.616   4.807
  582SOL     OW 3642   4.366   3.255   8.651
  582SOL    HW1 3643   4.413   3.177   8.683
  582SOL    HW2 3644   4.402   3.327   8.702
  583SOL     OW 3645   5.401  11.575   1.784
  583SOL    HW1 3646   5.318  11.529   1.796
  583SOL    HW2 3647   5.405  11.637   1.857
  584SOL     OW 3648   8.868   8.507   9.888
  584SOL    HW1 3649   8.856   8.601   9.902
  584SOL    HW2 3650   8.908   8.501   9.802
  585SOL     OW 3651  13.188   0.458   1.914
  585SOL    HW1 3652  13.281   0.478   1.928
  585SOL    HW2 3653  13.188   0.402   1.836
  586SOL     OW 3654  14.851  10.823   4.992
  586SOL    HW1 3655  14.827  10.730   4.987
  586SOL    HW2 3656   0.066  10.826   4.952
  587SOL     OW 3657   2.061  10.456  13.596
  587SOL    HW1 3658   1.977  10.480  13.635
  587SOL    HW2 3659   2.110  10.415  13.668
  588SOL     OW 3660   9.478  11.493   2.176
  588SOL    HW1 3661   9.504  11.570   2.124
  588SOL    HW2 3662   9.447  11.530   2.259
  589SOL     OW 3663   8.098   6.439   2.036
  589SOL    HW1 3664   8.150   6.372   2.080
  589SOL    HW2 3665   8.121   6.521   2.081
  590SOL     OW 3666  11.225   2.888   5.242
  590SOL    HW1 3667  11.232   2.823   5.173
  590SOL    HW2 3668  11.265   2.967   5.205
  591SOL     OW 3669   3.628   7.975   5.839
  591SOL    HW1 3670   3.697   7.912   5.818
  591SOL    HW2 3671   3.641   8.046   5.775
  592SOL     OW 3672   2.704  10.754   3.140
  592SOL    HW1 3673   2.608  10.750   3.135
  592SOL    HW2 3674   2.725  10.711   3.223
  593SOL     OW 3675  13.593   5.921  11.728
  593SOL    HW1 3676  13.682   5.937  11.761
  593SOL    HW2 3677  13.548   5.878  11.800
  594SOL     OW 3678  14.279  10.586  14.446
  594SOL    HW1 3679  14.245  10.671  14.475
  594SOL    HW2 3680  14.267  10.587  14.351
  595SOL     OW 3681   1.003   6.455   0.358
  595SOL    HW1 3682   1.072   6.399   0.395
  595SOL    HW2 3683   1.042   6.490   0.278
  596SOL     OW 3684   7.677   5.227   5.623
  596SOL    HW1 3685   7.618   5.301   5.607
  596SOL    HW2 3686   7.649   5.192   5.708
  597SOL     OW 3687   5.293   1.187   5.930
  597SOL    HW1 3688   5.360   1.254   5.917
  597SOL    HW2 3689   5.235   1.224   5.997
  598SOL     OW 3690   9.585  12.150   4.476
  598SOL    HW1 3691   9.588  12.133   4.382
  598SOL    HW2 3692   9.501  12.114   4.504
  599SOL     OW 3693   3.848   0.489   0.100
  599SOL    HW1 3694   3.901   0.546   0.044
  599SOL    HW2 3695   3.894   0.491   0.185
  600SOL     OW 3696   6.547  13.090   1.545
  600SOL    HW1 3697   6.581  13.057   1.628
  600SOL    HW2 3698   6.592  13.174   1.532
  601SOL     OW 3699   7.350   2.382  13.957
  601SOL    HW1 3700   7.306   2.444  13.898
  601SOL    HW2 3701   7.279   2.332  13.997
  602SOL     OW 3702  13.378  13.040   4.826
  602SOL    HW1 3703  13.323  13.083   4.892
  602SOL    HW2 3704  13.356  13.083   4.744
  603SOL     OW 3705  11.067  10.677   5.983
  603SOL    HW1 3706  11.059  10.757   5.930
  603SOL    HW2 3707  11.148  10.637   5.954
  604SOL     OW 3708   0.992   4.769  13.871
  604SOL    HW1 3709   1.081   4.796  13.850
  604SOL    HW2 3710   0.994   4.749  13.965
  605SOL     OW 3711  11.390  12.422   8.567
  605SOL    HW1 3712  11.329  12.480   8.520
  605SOL    HW2 3713  11.366  12.432   8.659
  606SOL     OW 3714   6.303  10.179   9.701
  606SOL    HW1 3715   6.223  10.203   9.654
  606SOL    HW2 3716   6.322  10.254   9.756
  607SOL     OW 3717   6.339   8.175   4.450
  607SOL    HW1 3718   6.265   8.212   4.401
  607SOL    HW2 3719   6.313   8.184   4.542
  608SOL     OW 3720   7.975   1.739  10.248
  608SOL    HW1 3721   7.914   1.781  10.307
  608SOL    HW2 3722   8.000   1.808  10.186
  609SOL     OW 3723  13.849   4.707  14.306
  609SOL    HW1 3724  13.838   4.735  14.214
  609SOL    HW2 3725  13.937   4.734  14.329
  610SOL     OW 3726   1.671   6.221   3.749
  610SOL    HW1 3727   1.714   6.303   3.770
  610SOL    HW2 3728   1.712   6.191   3.668
  611SOL     OW 3729   9.768  10.919  13.547
  611SOL    HW1 3730   9.768  10.996  13.603
  611SOL    HW2 3731   9.723  10.852  13.599
  612SOL     OW 3732   8.956   2.515  12.741
  612SOL    HW1 3733   8.906   2.564  12.806
  612SOL    HW2 3734   8.899   2.443  12.715
  613SOL     OW 3735   8.061   5.401   7.615
  613SOL    HW1 3736   8.010   5.322   7.633
  613SOL    HW2 3737   8.029   5.464   7.680
  614SOL     OW 3738   3.170   3.637   4.763
  614SOL    HW1 3739   3.194   3.681   4.682
  614SOL    HW2 3740   3.251   3.636   4.815
  615SOL     OW 3741   5.981  13.597  13.197
  615SOL    HW1 3742   5.922  13.525  13.175
  615SOL    HW2 3743   6.057  13.583  13.140
  616SOL     OW 3744   7.904   1.911   8.119
  616SOL    HW1 3745   7.913   1.857   8.041
  616SOL    HW2 3746   7.968   1.874   8.181
  617SOL     OW 3747  11.142   4.227   4.460
  617SOL    HW1 3748  11.187   4.272   4.531
  617SOL    HW2 3749  11.119   4.141   4.496
  618SOL     OW 3750  11.887   8.457   3.879
  618SOL    HW1 3751  11.872   8.489   3.790
  618SOL    HW2 3752  11.799   8.443   3.915
  619SOL     OW 3753   0.957   5.733   5.192
  619SOL    HW1 3754   0.914   5.677   5.256
  619SOL    HW2 3755   0.888   5.756   5.129
  620SOL     OW 3756   5.187  12.548   2.480
  620SOL    HW1 3757   5.167  12.641   2.470
  620SOL    HW2 3758   5.165  12.509   2.396
  621SOL     OW 3759  10.827   5.418   9.233
  621SOL    HW1 3760  10.886   5.358   9.277
  621SOL    HW2 3761  10.798   5.371   9.155
  622SOL     OW 3762   5.389   1.186  14.586
  622SOL    HW1 3763   5.407   1.096  14.613
  622SOL    HW2 3764   5.455   1.238  14.631
  623SOL     OW 3765  11.764  12.628   6.849
  623SOL    HW1 3766  11.775  12.654   6.758
  623SOL    HW2 3767  11.680  12.582   6.851
  624SOL     OW 3768   7.925   3.103  10.537
  624SOL    HW1 3769   7.844   3.142  10.505
  624SOL    HW2 3770   7.930   3.017  10.495
  625SOL     OW 3771   0.171   4.912   5.289
  625SOL    HW1 3772   0.160   4.965   5.368
  625SOL    HW2 3773   0.181   4.823   5.322
  626SOL     OW 3774  13.030  12.505   7.236
  626SOL    HW1 3775  12.980  12.424   7.244
  626SOL    HW2 3776  13.121  12.479   7.247
  627SOL     OW 3777   1.040   0.871   5.544
  627SOL    HW1 3778   1.052   0.851   5.452
  627SOL    HW2 3779   0.953   0.837   5.565
  628SOL     OW 3780   6.140   3.742   5.498
  628SOL    HW1 3781   6.235   3.751   5.489
  628SOL    HW2 3782   6.119   3.661   5.452
  629SOL     OW 3783   4.485   8.443   1.491
  629SOL    HW1 3784   4.402   8.428   1.445
  629SOL    HW2 3785   4.459   8.470   1.579
  630SOL     OW 3786   5.839   7.041   2.219
  630SOL    HW1 3787   5.817   7.129   2.249
  630SOL    HW2 3788   5.812   7.040   2.127
  631SOL     OW 3789   6.150   8.509   0.185
  631SOL    HW1 3790   6.164   8.490   0.278
  631SOL    HW2 3791   6.215   8.455   0.139
  632SOL     OW 3792   0.430  14.552  13.161
  632SOL    HW1 3793   0.497  14.620  13.171
  632SOL    HW2 3794   0.459  14.501  13.085
  633SOL     OW 3795   0.195   2.774   5.779
  633SOL    HW1 3796   0.284   2.805   5.762
  633SOL    HW2 3797   0.153   2.845   5.828
  634SOL     OW 3798   0.347   3.028   3.455
  634SOL    HW1 3799   0.345   3.039   3.550
  634SOL    HW2 3800   0.256   3.036   3.428
  635SOL     OW 3801  13.043  13.831  10.071
  635SOL    HW1 3802  13.040  13.741  10.039
  635SOL    HW2 3803  12.953  13.850  10.098
  636SOL     OW 3804  11.140  10.941   1.343
  636SOL    HW1 3805  11.127  11.033   1.368
  636SOL    HW2 3806  11.186  10.903   1.418
  637SOL     OW 3807  14.103  11.224  11.452
  637SOL    HW1 3808  14.009  11.219  11.465
  637SOL    HW2 3809  14.116  11.297  11.391
  638SOL     OW 3810   1.005   6.949  13.394
  638SOL    HW1 3811   1.016   6.856  13.416
  638SOL    HW2 3812   0.965   6.948  13.307
  639SOL     OW 3813   9.811   0.246   6.583
  639SOL    HW1 3814   9.856   0.175   6.539
  639SOL    HW2 3815   9.869   0.271   6.656
  640SOL     OW 3816  11.692  10.173   5.378
  640SOL    HW1 3817  11.709  10.236   5.448
  640SOL    HW2 3818  11.763  10.109   5.384
  641SOL     OW 3819  12.356   3.423   8.049
  641SOL    HW1 3820  12.333   3.341   8.006
  641SOL    HW2 3821  12.314   3.490   7.995
  642SOL     OW 3822   4.168   0.256   7.052
  642SOL    HW1 3823   4.180   0.161   7.055
  642SOL    HW2 3824   4.250   0.289   7.015
  643SOL     OW 3825   8.879   7.352   0.941
  643SOL    HW1 3826   8.784   7.356   0.952
  643SOL    HW2 3827   8.912   7.326   1.027
  644SOL     OW 3828  10.027  12.125  11.476
  644SOL    HW1 3829  10.053  12.084  11.559
  644SOL    HW2 3830   9.933  12.107  11.469
  645SOL     OW 3831   9.462  11.361   9.246
  645SOL    HW1 3832   9.410  11.395   9.173
  645SOL    HW2 3833   9.518  11.295   9.206
  646SOL     OW 3834   2.485   9.423   9.762
  646SOL    HW1 3835   2.546   9.421   9.836
  646SOL    HW2 3836   2.541   9.415   9.685
  647SOL     OW 3837   7.407   1.981   0.298
  647SOL    HW1 3838   7.337   1.987   0.233
  647SOL    HW2 3839   7.385   2.048   0.363
  648SOL     OW 3840   0.344  13.237  12.413
  648SOL    HW1 3841   0.385  13.228  12.500
  648SOL    HW2 3842   0.322  13.147  12.388
  649SOL     OW 3843  13.763  12.082   9.313
  649SOL    HW1 3844  13.821  12.156   9.332
  649SOL    HW2 3845  13.768  12.071   9.218
  650SOL     OW 3846  10.768   6.555  14.276
  650SOL    HW1 3847  10.855   6.520  14.258
  650SOL    HW2 3848  10.772   6.646  14.249
  651SOL     OW 3849  10.880   7.903   0.702
  651SOL    HW1 3850  10.846   7.873   0.618
  651SOL    HW2 3851  10.967   7.937   0.682
  652SOL     OW 3852   9.084   4.590   9.308
  652SOL    HW1 3853   9.132   4.630   9.381
  652SOL    HW2 3854   9.030   4.661   9.274
  653SOL     OW 3855  14.872   9.172   5.491
  653SOL    HW1 3856   0.024   9.250   5.440
  653SOL    HW2 3857   0.024   9.099   5.434
  654SOL     OW 3858  11.248  11.339   6.897
  654SOL    HW1 3859  11.328  11.316   6.851
  654SOL    HW2 3860  11.273  11.340   6.989
  655SOL     OW 3861  12.925  13.438   4.623
  655SOL    HW1 3862  12.839  13.416   4.588
  655SOL    HW2 3863  12.910  13.452   4.717
  656SOL     OW 3864   9.878   6.333   4.513
  656SOL    HW1 3865   9.821   6.284   4.572
  656SOL    HW2 3866   9.838   6.420   4.507
  657SOL     OW 3867   4.600   9.303  10.483
  657SOL    HW1 3868   4.665   9.319  10.415
  657SOL    HW2 3869   4.635   9.346  10.561
  658SOL     OW 3870   4.407   7.919   7.470
  658SOL    HW1 3871   4.489   7.881   7.501
  658SOL    HW2 3872   4.349   7.918   7.546
  659SOL     OW 3873  12.870   2.278   3.365
  659SOL    HW1 3874  12.855   2.272   3.459
  659SOL    HW2 3875  12.921   2.359   3.353
  660SOL     OW 3876  14.455   8.157  12.740
  660SOL    HW1 3877  14.511   8.162  12.663
  660SOL    HW2 3878  14.366   8.167  12.706
  661SOL     OW 3879  13.741   8.887   2.873
  661SOL    HW1 3880  13.836   8.879   2.879
  661SOL    HW2 3881  13.720   8.972   2.912
  662SOL     OW 3882  10.049   3.987  13.239
  662SOL    HW1 3883  10.133   3.959  13.277
  662SOL    HW2 3884  10.070   4.006  13.148
  663SOL     OW 3885   3.781   8.702   3.357
  663SOL    HW1 3886   3.808   8.768   3.421
  663SOL    HW2 3887   3.857   8.644   3.349
  664SOL     OW 3888   4.391   6.056  11.004
  664SOL    HW1 3889   4.344   6.048  10.921
  664SOL    HW2 3890   4.418   6.147  11.008
  665SOL     OW 3891  13.885   4.280   0.527
  665SOL    HW1 3892  13.849   4.192   0.532
  665SOL    HW2 3893  13.949   4.285   0.598
  666SOL     OW 3894   3.352  13.964   8.853
  666SOL    HW1 3895   3.273  14.018   8.860
  666SOL    HW2 3896   3.394  13.995   8.772
  667SOL     OW 3897  11.450   3.728   7.250
  667SOL    HW1 3898  11.431   3.819   7.273
  667SOL    HW2 3899  11.372   3.679   7.278
  668SOL     OW 3900  12.299   5.384  12.155
  668SOL    HW1 3901  12.383   5.345  12.179
  668SOL    HW2 3902  12.303   5.473  12.192
  669SOL     OW 3903  11.363   5.822   2.637
  669SOL    HW1 3904  11.419   5.755   2.598
  669SOL    HW2 3905  11.424   5.886   2.673
  670SOL     OW 3906  11.433   8.170  12.327
  670SOL    HW1 3907  11.475   8.172  12.241
  670SOL    HW2 3908  11.501   8.135  12.386
  671SOL     OW 3909  11.856   7.601   7.815
  671SOL    HW1 3910  11.817   7.687   7.800
  671SOL    HW2 3911  11.878   7.600   7.908
  672SOL     OW 3912   9.531  13.610  14.219
  672SOL    HW1 3913   9.583  13.643  14.293
  672SOL    HW2 3914   9.596  13.582  14.155
  673SOL     OW 3915   2.125   2.498  13.078
  673SOL    HW1 3916   2.218   2.497  13.100
  673SOL    HW2 3917   2.112   2.580  13.031
  674SOL     OW 3918  12.080   6.823   5.900
  674SOL    HW1 3919  12.074   6.916   5.879
  674SOL    HW2 3920  12.173   6.802   5.889
  675SOL     OW 3921  13.746  11.138   1.354
  675SOL    HW1 3922  13.689  11.166   1.426
  675SOL    HW2 3923  13.835  11.156   1.384
  676SOL     OW 3924  13.207   6.916  13.622
  676SOL    HW1 3925  13.292   6.901  13.581
  676SOL    HW2 3926  13.227   6.948  13.709
  677SOL     OW 3927   5.211  10.135   6.878
  677SOL    HW1 3928   5.139  10.094   6.830
  677SOL    HW2 3929   5.281  10.145   6.813
  678SOL     OW 3930   8.751  11.321   8.468
  678SOL    HW1 3931   8.816  11.348   8.403
  678SOL    HW2 3932   8.682  11.386   8.461
  679SOL     OW 3933   8.059   4.277   3.524
  679SOL    HW1 3934   8.098   4.194   3.494
  679SOL    HW2 3935   8.105   4.344   3.474
  680SOL     OW 3936   9.126   0.758   6.593
  680SOL    HW1 3937   9.036   0.783   6.614
  680SOL    HW2 3938   9.121   0.664   6.573
  681SOL     OW 3939   0.956  12.009   7.358
  681SOL    HW1 3940   0.932  11.998   7.450
  681SOL    HW2 3941   1.052  12.004   7.357
  682SOL     OW 3942   4.353   0.595  14.849
  682SOL    HW1 3943   4.389   0.600  14.760
  682SOL    HW2 3944   4.424   0.627   0.033
  683SOL     OW 3945   0.344  11.678  14.244
  683SOL    HW1 3946   0.292  11.599  14.230
  683SOL    HW2 3947   0.365  11.676  14.337
  684SOL     OW 3948   4.576   3.466   3.095
  684SOL    HW1 3949   4.592   3.559   3.079
  684SOL    HW2 3950   4.619   3.421   3.022
  685SOL     OW 3951  11.560   5.631  12.567
  685SOL    HW1 3952  11.493   5.677  12.619
  685SOL    HW2 3953  11.641   5.647  12.615
  686SOL     OW 3954   6.581   8.248   1.875
  686SOL    HW1 3955   6.530   8.311   1.823
  686SOL    HW2 3956   6.548   8.163   1.849
  687SOL     OW 3957   4.352   2.741  10.310
  687SOL    HW1 3958   4.324   2.654  10.284
  687SOL    HW2 3959   4.433   2.756  10.262
  688SOL     OW 3960   4.677   3.661  11.477
  688SOL    HW1 3961   4.729   3.728  11.522
  688SOL    HW2 3962   4.597   3.655  11.528
  689SOL     OW 3963   8.191  13.199   8.956
  689SOL    HW1 3964   8.229  13.281   8.927
  689SOL    HW2 3965   8.235  13.132   8.904
  690SOL     OW 3966   3.316   2.020  11.724
  690SOL    HW1 3967   3.390   1.982  11.677
  690SOL    HW2 3968   3.268   2.068  11.656
  691SOL     OW 3969   8.806   5.186  12.441
  691SOL    HW1 3970   8.801   5.150  12.529
  691SOL    HW2 3971   8.721   5.166  12.402
  692SOL     OW 3972  14.798  10.627  13.150
  692SOL    HW1 3973   0.008  10.580  13.131
  692SOL    HW2 3974  14.821  10.720  13.144
  693SOL     OW 3975  10.218   0.706   8.090
  693SOL    HW1 3976  10.148   0.642   8.103
  693SOL    HW2 3977  10.294   0.654   8.062
  694SOL     OW 3978   4.255   5.379   8.368
  694SOL    HW1 3979   4.334   5.354   8.321
  694SOL    HW2 3980   4.280   5.379   8.460
  695SOL     OW 3981   8.314  13.086  13.162
  695SOL    HW1 3982   8.280  13.129  13.084
  695SOL    HW2 3983   8.285  13.140  13.235
  696SOL     OW 3984   5.654  13.977   3.584
  696SOL    HW1 3985   5.705  14.052   3.615
  696SOL    HW2 3986   5.581  13.971   3.645
  697SOL     OW 3987  10.187   2.593   1.743
  697SOL    HW1 3988  10.166   2.530   1.812
  697SOL    HW2 3989  10.117   2.658   1.749
  698SOL     OW 3990   2.116   7.099   2.381
  698SOL    HW1 3991   2.166   7.097   2.300
  698SOL    HW2 3992   2.118   7.009   2.413
  699SOL     OW 3993  14.061   6.955   8.202
  699SOL    HW1 3994  14.106   6.926   8.281
  699SOL    HW2 3995  13.971   6.923   8.213
  700SOL     OW 3996   6.246  13.599  13.386
  700SOL    HW1 3997   6.311  13.666  13.404
  700SOL    HW2 3998   6.168  13.627  13.434
  701SOL     OW 3999   9.136  11.889  12.365
  701SOL    HW1 4000   9.164  11.806  12.327
  701SOL    HW2 4001   9.153  11.954  12.296
  702SOL     OW 4002   5.909   4.335   6.745
  702SOL    HW1 4003   5.901   4.272   6.818
  702SOL    HW2 4004   5.992   4.311   6.703
  703SOL     OW 4005  12.047   1.833  12.170
  703SOL    HW1 4006  12.093   1.875  12.243
  703SOL    HW2 4007  12.069   1.887  12.094
  704SOL     OW 4008   0.118   8.090   3.793
  704SOL    HW1 4009   0.133   8.167   3.849
  704SOL    HW2 4010   0.177   8.103   3.719
  705SOL     OW 4011   6.209   8.303   5.660
  705SOL    HW1 4012   6.215   8.393   5.628
  705SOL    HW2 4013   6.147   8.308   5.733
  706SOL     OW 4014  12.612   5.735   7.204
  706SOL    HW1 4015  12.591   5.643   7.192
  706SOL    HW2 4016  12.695   5.735   7.251
  707SOL     OW 4017   7.199   5.252   6.168
  707SOL    HW1 4018   7.141   5.316   6.128
  707SOL    HW2 4019   7.271   5.242   6.105
  708SOL     OW 4020   0.322   0.755   1.205
  708SOL    HW1 4021   0.404   0.795   1.235
  708SOL    HW2 4022   0.303   0.688   1.270
  709SOL     OW 4023  10.398  13.658   5.511
  709SOL    HW1 4024  10.308  13.626   5.501
  709SOL    HW2 4025  10.388  13.748   5.542
  710SOL     OW 4026   1.975   8.243   5.408
  710SOL    HW1 4027   2.041   8.198   5.356
  710SOL    HW2 4028   1.915   8.174   5.437
  711SOL     OW 4029   1.286   9.484   3.485
  711SOL    HW1 4030   1.238   9.465   3.404
  711SOL    HW2 4031   1.230   9.546   3.532
  712SOL     OW 4032  10.436   5.890  13.121
  712SOL    HW1 4033  10.394   5.857  13.201
  712SOL    HW2 4034  10.483   5.968  13.149
  713SOL     OW 4035   5.514  10.955   1.905
  713SOL    HW1 4036   5.474  10.874   1.936
  713SOL    HW2 4037   5.443  11.019   1.906
  714SOL     OW 4038   5.996   1.388  14.338
  714SOL    HW1 4039   6.039   1.322  14.283
  714SOL    HW2 4040   5.926   1.422  14.283
  715SOL     OW 4041  13.306   9.963   9.464
  715SOL    HW1 4042  13.391  10.007   9.470
  715SOL    HW2 4043  13.253  10.003   9.533
  716SOL     OW 4044   0.931  14.416  10.606
  716SOL    HW1 4045   0.845  14.417  10.648
  716SOL    HW2 4046   0.978  14.491  10.644
  717SOL     OW 4047   9.039   8.069   7.202
  717SOL    HW1 4048   8.950   8.034   7.193
  717SOL    HW2 4049   9.096   7.993   7.186
  718SOL     OW 4050   1.975   8.466   1.798
  718SOL    HW1 4051   2.018   8.510   1.724
  718SOL    HW2 4052   2.006   8.513   1.875
  719SOL     OW 4053   2.864  12.509   8.128
  719SOL    HW1 4054   2.805  12.442   8.093
  719SOL    HW2 4055   2.859  12.580   8.065
  720SOL     OW 4056   9.797   2.432  13.358
  720SOL    HW1 4057   9.770   2.470  13.442
  720SOL    HW2 4058   9.720   2.442  13.302
  721SOL     OW 4059   6.448  14.812  10.909
  721SOL    HW1 4060   6.400  14.730  10.897
  721SOL    HW2 4061   6.414  14.870  10.841
  722SOL     OW 4062  13.265  10.807   7.636
  722SOL    HW1 4063  13.296  10.897   7.644
  722SOL    HW2 4064  13.180  10.815   7.592
  723SOL     OW 4065   6.828  13.280   0.073
  723SOL    HW1 4066   6.884  13.259  14.870
  723SOL    HW2 4067   6.810  13.195   0.115
  724SOL     OW 4068   4.070   0.872   7.662
  724SOL    HW1 4069   4.080   0.808   7.592
  724SOL    HW2 4070   4.049   0.820   7.739
  725SOL     OW 4071  11.185   5.698   0.072
  725SOL    HW1 4072  11.191   5.788   0.039
  725SOL    HW2 4073  11.130   5.652   0.008
  726SOL     OW 4074  13.122   1.150  10.936
  726SOL    HW1 4075  13.070   1.228  10.954
  726SOL    HW2 4076  13.068   1.100  10.874
  727SOL     OW 4077   0.032  14.715   9.664
  727SOL    HW1 4078  14.820  14.671   9.681
  727SOL    HW2 4079   0.061  14.746   9.750
  728SOL     OW 4080   9.479   1.534   4.878
  728SOL    HW1 4081   9.529   1.613   4.898
  728SOL    HW2 4082   9.389   1.556   4.902
  729SOL     OW 4083   6.276   9.047   5.151
  729SOL    HW1 4084   6.209   9.033   5.084
  729SOL    HW2 4085   6.358   9.055   5.101
  730SOL     OW 4086   0.652   5.182   6.441
  730SOL    HW1 4087   0.576   5.124   6.444
  730SOL    HW2 4088   0.644   5.228   6.357
  731SOL     OW 4089   1.351   7.978   4.422
  731SOL    HW1 4090   1.270   7.974   4.371
  731SOL    HW2 4091   1.419   7.994   4.358
  732SOL     OW 4092   8.706   6.123   8.810
  732SOL    HW1 4093   8.614   6.115   8.787
  732SOL    HW2 4094   8.707   6.118   8.906
  733SOL     OW 4095   3.057   3.533  12.905
  733SOL    HW1 4096   3.121   3.523  12.835
  733SOL    HW2 4097   3.058   3.449  12.951
  734SOL     OW 4098   6.763   2.785   6.355
  734SOL    HW1 4099   6.706   2.712   6.331
  734SOL    HW2 4100   6.810   2.754   6.433
  735SOL     OW 4101  10.407  13.247   3.561
  735SOL    HW1 4102  10.315  13.272   3.549
  735SOL    HW2 4103  10.454  13.297   3.495
  736SOL     OW 4104   2.057  14.624   3.165
  736SOL    HW1 4105   2.115  14.599   3.236
  736SOL    HW2 4106   1.985  14.560   3.169
  737SOL     OW 4107   3.532  11.687  12.115
  737SOL    HW1 4108   3.552  11.742  12.040
  737SOL    HW2 4109   3.437  11.676  12.112
  738SOL     OW 4110   9.622   1.432  11.826
  738SOL    HW1 4111   9.632   1.401  11.916
  738SOL    HW2 4112   9.707   1.472  11.804
  739SOL     OW 4113   3.256   6.925   4.589
  739SOL    HW1 4114   3.174   6.955   4.550
  739SOL    HW2 4115   3.305   6.887   4.516
  740SOL     OW 4116   9.743  12.373   5.143
  740SOL    HW1 4117   9.706  12.412   5.064
  740SOL    HW2 4118   9.675  12.313   5.174
  741SOL     OW 4119   7.769   8.610   0.040
  741SOL    HW1 4120   7.813   8.548  14.853
  741SOL    HW2 4121   7.697   8.645  14.859
  742SOL     OW 4122   1.972  11.118   1.701
  742SOL    HW1 4123   1.925  11.169   1.767
  742SOL    HW2 4124   1.994  11.182   1.633
  743SOL     OW 4125   9.760  10.412  12.340
  743SOL    HW1 4126   9.734  10.497  12.305
  743SOL    HW2 4127   9.682  10.357  12.329
  744SOL     OW 4128   4.805   2.990  10.820
  744SOL    HW1 4129   4.846   3.068  10.859
  744SOL    HW2 4130   4.720   2.984  10.862
  745SOL     OW 4131  11.128   9.938  10.475
  745SOL    HW1 4132  11.182  10.005  10.434
  745SOL    HW2 4133  11.047   9.983  10.498
  746SOL     OW 4134   8.529   4.618  12.856
  746SOL    HW1 4135   8.520   4.549  12.790
  746SOL    HW2 4136   8.568   4.691  12.809
  747SOL     OW 4137   9.128   3.928   8.526
  747SOL    HW1 4138   9.059   3.863   8.536
  747SOL    HW2 4139   9.096   4.005   8.574
  748SOL     OW 4140   2.989   3.537   8.444
  748SOL    HW1 4141   2.992   3.550   8.349
  748SOL    HW2 4142   3.061   3.589   8.478
  749SOL     OW 4143   2.207   1.585   9.579
  749SOL    HW1 4144   2.266   1.565   9.506
  749SOL    HW2 4145   2.143   1.646   9.543
  750SOL     OW 4146  10.534  11.811   8.082
  750SOL    HW1 4147  10.488  11.887   8.117
  750SOL    HW2 4148  10.607  11.797   8.142
  751SOL     OW 4149   3.412   0.205   1.707
  751SOL    HW1 4150   3.508   0.202   1.703
  751SOL    HW2 4151   3.390   0.296   1.690
  752SOL     OW 4152   7.630   7.580   7.601
  752SOL    HW1 4153   7.655   7.509   7.543
  752SOL    HW2 4154   7.707   7.594   7.656
  753SOL     OW 4155   5.086   9.824   1.003
  753SOL    HW1 4156   5.089   9.863   1.090
  753SOL    HW2 4157   5.177   9.828   0.972
  754SOL     OW 4158   0.648   6.778   6.035
  754SOL    HW1 4159   0.647   6.700   5.981
  754SOL    HW2 4160   0.636   6.850   5.974
  755SOL     OW 4161   2.045  14.530   9.256
  755SOL    HW1 4162   2.045  14.439   9.225
  755SOL    HW2 4163   2.118  14.534   9.318
  756SOL     OW 4164   4.929   9.220   5.363
  756SOL    HW1 4165   4.871   9.295   5.357
  756SOL    HW2 4166   4.906   9.165   5.288
  757SOL     OW 4167   9.239  13.973  12.920
  757SOL    HW1 4168   9.229  13.945  12.829
  757SOL    HW2 4169   9.314  14.032  12.918
  758SOL     OW 4170   4.916  13.336   0.405
  758SOL    HW1 4171   4.871  13.331   0.320
  758SOL    HW2 4172   4.862  13.396   0.457
  759SOL     OW 4173   7.996  12.349  10.457
  759SOL    HW1 4174   7.935  12.307  10.518
  759SOL    HW2 4175   8.071  12.375  10.511
  760SOL     OW 4176   9.254  13.477   3.627
  760SOL    HW1 4177   9.300  13.528   3.693
  760SOL    HW2 4178   9.309  13.482   3.549
  761SOL     OW 4179   9.917   2.260  13.928
  761SOL    HW1 4180   9.886   2.223  13.845
  761SOL    HW2 4181  10.009   2.232  13.933
  762SOL     OW 4182  10.058  13.475   4.257
  762SOL    HW1 4183  10.079  13.437   4.343
  762SOL    HW2 4184   9.968  13.447   4.241
  763SOL     OW 4185   2.230   7.480   0.876
  763SOL    HW1 4186   2.280   7.412   0.829
  763SOL    HW2 4187   2.297   7.532   0.921
  764SOL     OW 4188   2.760   3.186  13.773
  764SOL    HW1 4189   2.768   3.109  13.716
  764SOL    HW2 4190   2.791   3.156  13.858
  765SOL     OW 4191   1.893  13.477   6.492
  765SOL    HW1 4192   1.930  13.497   6.578
  765SOL    HW2 4193   1.967  13.485   6.432
  766SOL     OW 4194   3.309   2.429  13.509
  766SOL    HW1 4195   3.293   2.341  13.542
  766SOL    HW2 4196   3.328   2.417  13.416
  767SOL     OW 4197  10.818  11.643   1.239
  767SOL    HW1 4198  10.770  11.594   1.173
  767SOL    HW2 4199  10.759  11.714   1.264
  768SOL     OW 4200   2.345  14.559  11.980
  768SOL    HW1 4201   2.324  14.468  12.003
  768SOL    HW2 4202   2.375  14.554  11.889
  769SOL     OW 4203  13.142   8.439   9.850
  769SOL    HW1 4204  13.112   8.368   9.908
  769SOL    HW2 4205  13.136   8.402   9.762
  770SOL     OW 4206  11.031   4.568  10.443
  770SOL    HW1 4207  11.110   4.621  10.444
  770SOL    HW2 4208  10.959   4.631  10.435
  771SOL     OW 4209  12.256  13.093   6.416
  771SOL    HW1 4210  12.271  13.028   6.485
  771SOL    HW2 4211  12.341  13.136   6.404
  772SOL     OW 4212   9.426   6.012  11.882
  772SOL    HW1 4213   9.399   6.096  11.847
  772SOL    HW2 4214   9.345   5.972  11.913
  773SOL     OW 4215  12.590   8.415   0.440
  773SOL    HW1 4216  12.496   8.425   0.454
  773SOL    HW2 4217  12.630   8.446   0.522
  774SOL     OW 4218  10.166  10.620   1.135
  774SOL    HW1 4219  10.210  10.565   1.070
  774SOL    HW2 4220  10.073  10.598   1.127
  775SOL     OW 4221   0.893   7.640   2.575
  775SOL    HW1 4222   0.806   7.649   2.536
  775SOL    HW2 4223   0.878   7.591   2.656
  776SOL     OW 4224   3.277   4.713   2.436
  776SOL    HW1 4225   3.272   4.744   2.526
  776SOL    HW2 4226   3.316   4.626   2.442
  777SOL     OW 4227   8.547   9.373  10.494
  777SOL    HW1 4228   8.551   9.309  10.423
  777SOL    HW2 4229   8.535   9.457  10.449
  778SOL     OW 4230   3.539   4.735  13.843
  778SOL    HW1 4231   3.515   4.794  13.772
  778SOL    HW2 4232   3.616   4.775  13.884
  779SOL     OW 4233   7.931  14.392   3.204
  779SOL    HW1 4234   7.838  14.386   3.222
  779SOL    HW2 4235   7.972  14.334   3.269
  780SOL     OW 4236   2.268  12.673   1.688
  780SOL    HW1 4237   2.184  12.634   1.711
  780SOL    HW2 4238   2.332  12.603   1.700
  781SOL     OW 4239  10.478   6.914   9.550
  781SOL    HW1 4240  10.542   6.879   9.487
  781SOL    HW2 4241  10.405   6.941   9.495
  782SOL     OW 4242   1.696   9.663  10.563
  782SOL    HW1 4243   1.779   9.617  10.561
  782SOL    HW2 4244   1.666   9.655  10.654
  783SOL     OW 4245   1.265  14.680  12.620
  783SOL    HW1 4246   1.244  14.631  12.699
  783SOL    HW2 4247   1.205  14.647  12.553
  784SOL     OW 4248  12.615   6.633  10.936
  784SOL    HW1 4249  12.673   6.709  10.934
  784SOL    HW2 4250  12.661   6.566  10.885
  785SOL     OW 4251  13.327   4.417  11.946
  785SOL    HW1 4252  13.284   4.466  12.016
  785SOL    HW2 4253  13.261   4.354  11.916
  786SOL     OW 4254  11.459   2.160  12.755
  786SOL    HW1 4255  11.425   2.090  12.811
  786SOL    HW2 4256  11.383   2.212  12.733
  787SOL     OW 4257  13.597  14.372   4.099
  787SOL    HW1 4258  13.539  14.298   4.118
  787SOL    HW2 4259  13.577  14.394   4.008
  788SOL     OW 4260   8.447   4.955   4.943
  788SOL    HW1 4261   8.356   4.927   4.954
  788SOL    HW2 4262   8.449   5.045   4.976
  789SOL     OW 4263   8.923   4.242  12.670
  789SOL    HW1 4264   8.899   4.162  12.623
  789SOL    HW2 4265   8.904   4.313  12.608
  790SOL     OW 4266  13.019   0.640  14.581
  790SOL    HW1 4267  13.032   0.661  14.488
  790SOL    HW2 4268  12.952   0.571  14.580
  791SOL     OW 4269  13.665   5.309   8.662
  791SOL    HW1 4270  13.594   5.245   8.666
  791SOL    HW2 4271  13.706   5.295   8.576
  792SOL     OW 4272   7.517   8.891  13.907
  792SOL    HW1 4273   7.425   8.910  13.887
  792SOL    HW2 4274   7.567   8.948  13.850
  793SOL     OW 4275   2.401  12.922   0.411
  793SOL    HW1 4276   2.318  12.881   0.433
  793SOL    HW2 4277   2.456  12.908   0.488
  794SOL     OW 4278  11.715   1.157  10.955
  794SOL    HW1 4279  11.656   1.113  10.893
  794SOL    HW2 4280  11.765   1.218  10.900
  795SOL     OW 4281   2.501   1.405   5.362
  795SOL    HW1 4282   2.499   1.447   5.448
  795SOL    HW2 4283   2.592   1.414   5.333
  796SOL     OW 4284   5.755   3.844   1.384
  796SOL    HW1 4285   5.843   3.832   1.419
  796SOL    HW2 4286   5.712   3.902   1.446
  797SOL     OW 4287   2.646  10.112   1.690
  797SOL    HW1 4288   2.692  10.172   1.748
  797SOL    HW2 4289   2.692  10.121   1.606
  798SOL     OW 4290  10.549  11.593   0.668
  798SOL    HW1 4291  10.606  11.559   0.599
  798SOL    HW2 4292  10.460  11.574   0.638
  799SOL     OW 4293   8.546  12.226   6.052
  799SOL    HW1 4294   8.579  12.210   5.963
  799SOL    HW2 4295   8.625  12.238   6.104
  800SOL     OW 4296   8.334  12.457   9.930
  800SOL    HW1 4297   8.378  12.384   9.974
  800SOL    HW2 4298   8.391  12.479   9.857
  801SOL     OW 4299  14.618   2.746   4.587
  801SOL    HW1 4300  14.712   2.733   4.572
  801SOL    HW2 4301  14.614   2.800   4.666
  802SOL     OW 4302   2.185   0.992   3.093
  802SOL    HW1 4303   2.272   0.994   3.053
  802SOL    HW2 4304   2.137   0.925   3.045
  803SOL     OW 4305   6.665  10.608   6.228
  803SOL    HW1 4306   6.570  10.594   6.225
  803SOL    HW2 4307   6.691  10.575   6.314
  804SOL     OW 4308  10.077  12.671   6.725
  804SOL    HW1 4309  10.026  12.630   6.795
  804SOL    HW2 4310  10.161  12.627   6.727
  805SOL     OW 4311   4.606   5.560   4.376
  805SOL    HW1 4312   4.552   5.495   4.332
  805SOL    HW2 4313   4.696   5.530   4.362
  806SOL     OW 4314  14.094  12.364   0.853
  806SOL    HW1 4315  14.049  12.307   0.915
  806SOL    HW2 4316  14.075  12.325   0.767
  807SOL     OW 4317  14.451   4.603  10.118
  807SOL    HW1 4318  14.439   4.556  10.036
  807SOL    HW2 4319  14.499   4.682  10.093
  808SOL     OW 4320   6.731   7.091   3.597
  808SOL    HW1 4321   6.641   7.120   3.604
  808SOL    HW2 4322   6.758   7.119   3.509
  809SOL     OW 4323  12.660   8.426  10.207
  809SOL    HW1 4324  12.730   8.431  10.273
  809SOL    HW2 4325  12.591   8.482  10.241
  810SOL     OW 4326   0.174   3.506   4.378
  810SOL    HW1 4327   0.145   3.427   4.424
  810SOL    HW2 4328   0.229   3.473   4.307
  811SOL     OW 4329   2.335   5.299  14.136
  811SOL    HW1 4330   2.274   5.254  14.194
  811SOL    HW2 4331   2.414   5.311  14.189
  812SOL     OW 4332   4.262   5.918   0.066
  812SOL    HW1 4333   4.227   6.000   0.101
  812SOL    HW2 4334   4.190   5.879   0.017
  813SOL     OW 4335   3.057   4.732  10.238
  813SOL    HW1 4336   3.115   4.793  10.193
  813SOL    HW2 4337   3.072   4.648  10.195
  814SOL     OW 4338  10.917  13.053   6.498
  814SOL    HW1 4339  10.835  13.084   6.458
  814SOL    HW2 4340  10.941  12.976   6.446
  815SOL     OW 4341   1.618   7.805   0.667
  815SOL    HW1 4342   1.602   7.882   0.720
  815SOL    HW2 4343   1.706   7.777   0.690
  816SOL     OW 4344   2.926   3.577   4.886
  816SOL    HW1 4345   2.877   3.552   4.808
  816SOL    HW2 4346   3.014   3.597   4.854
  817SOL     OW 4347   8.515  10.405   1.165
  817SOL    HW1 4348   8.477  10.439   1.084
  817SOL    HW2 4349   8.608  10.429   1.159
  818SOL     OW 4350   5.701   2.581  13.784
  818SOL    HW1 4351   5.777   2.538  13.822
  818SOL    HW2 4352   5.682   2.654  13.842
  819SOL     OW 4353  11.044   5.848   6.517
  819SOL    HW1 4354  11.126   5.800   6.527
  819SOL    HW2 4355  10.981   5.782   6.486
  820SOL     OW 4356  12.189  11.293  10.135
  820SOL    HW1 4357  12.239  11.287  10.216
  820SOL    HW2 4358  12.189  11.387  10.114
  821SOL     OW 4359   1.777   5.546   2.286
  821SOL    HW1 4360   1.843   5.611   2.310
  821SOL    HW2 4361   1.813   5.502   2.209
  822SOL     OW 4362   0.142   0.759   5.731
  822SOL    HW1 4363   0.198   0.682   5.719
  822SOL    HW2 4364   0.187   0.811   5.798
  823SOL     OW 4365   9.518  12.567   3.213
  823SOL    HW1 4366   9.455  12.515   3.164
  823SOL    HW2 4367   9.599  12.517   3.211
  824SOL     OW 4368  10.262   4.967  12.608
  824SOL    HW1 4369  10.168   4.958  12.594
  824SOL    HW2 4370  10.275   4.946  12.700
  825SOL     OW 4371   1.784   6.105   6.725
  825SOL    HW1 4372   1.872   6.108   6.687
  825SOL    HW2 4373   1.763   6.197   6.745
  826SOL     OW 4374   7.071   5.251   7.783
  826SOL    HW1 4375   7.155   5.263   7.826
  826SOL    HW2 4376   7.030   5.178   7.829
  827SOL     OW 4377   2.043   9.296   6.876
  827SOL    HW1 4378   1.991   9.219   6.897
  827SOL    HW2 4379   2.134   9.270   6.891
  828SOL     OW 4380  13.979   6.970   3.088
  828SOL    HW1 4381  14.056   6.935   3.043
  828SOL    HW2 4382  13.920   6.997   3.018
  829SOL     OW 4383   8.182   8.018   3.821
  829SOL    HW1 4384   8.228   7.936   3.800
  829SOL    HW2 4385   8.142   8.002   3.906
  830SOL     OW 4386   3.153   3.081   3.758
  830SOL    HW1 4387   3.073   3.100   3.808
  830SOL    HW2 4388   3.191   3.167   3.741
  831SOL     OW 4389   4.714   2.768   0.007
  831SOL    HW1 4390   4.674   2.739  14.797
  831SOL    HW2 4391   4.661   2.844   0.034
  832SOL     OW 4392   4.524   3.395   4.519
  832SOL    HW1 4393   4.584   3.463   4.550
  832SOL    HW2 4394   4.465   3.380   4.593
  833SOL     OW 4395   4.791   3.942   2.428
  833SOL    HW1 4396   4.798   3.854   2.463
  833SOL    HW2 4397   4.705   3.945   2.386
  834SOL     OW 4398  13.886   8.889   6.436
  834SOL    HW1 4399  13.965   8.943   6.444
  834SOL    HW2 4400  13.905   8.831   6.363
  835SOL     OW 4401   0.045   3.729   3.888
  835SOL    HW1 4402   0.064   3.800   3.826
  835SOL    HW2 4403   0.011   3.658   3.834
  836SOL     OW 4404   5.786   2.455  10.290
  836SOL    HW1 4405   5.881   2.451  10.288
  836SOL    HW2 4406   5.764   2.476  10.381
  837SOL     OW 4407   6.876   4.159   5.823
  837SOL    HW1 4408   6.808   4.134   5.760
  837SOL    HW2 4409   6.907   4.077   5.859
  838SOL     OW 4410   9.973   7.927   7.150
  838SOL    HW1 4411  10.020   7.850   7.118
  838SOL    HW2 4412   9.914   7.893   7.217
  839SOL     OW 4413   1.619  13.500   0.960
  839SOL    HW1 4414   1.691  13.507   1.023
  839SOL    HW2 4415   1.540  13.517   1.012
  840SOL     OW 4416   6.869  13.032  11.879
  840SOL    HW1 4417   6.778  13.002  11.888
  840SOL    HW2 4418   6.886  13.080  11.960
  841SOL     OW 4419   4.606   5.219  11.484
  841SOL    HW1 4420   4.683   5.220  11.428
  841SOL    HW2 4421   4.544   5.278  11.441
  842SOL     OW 4422   0.765   3.431   9.942
  842SOL    HW1 4423   0.734   3.435  10.033
  842SOL    HW2 4424   0.714   3.360   9.903
  843SOL     OW 4425   4.059   5.130  12.205
  843SOL    HW1 4426   4.006   5.072  12.150
  843SOL    HW2 4427   4.002   5.206  12.221
  844SOL     OW 4428   3.102   7.683   1.436
  844SOL    HW1 4429   3.022   7.682   1.489
  844SOL    HW2 4430   3.172   7.699   1.499
  845SOL     OW 4431  14.393   3.638  11.296
  845SOL    HW1 4432  14.374   3.672  11.209
  845SOL    HW2 4433  14.339   3.560  11.304
  846SOL     OW 4434  11.640   4.715  12.918
  846SOL    HW1 4435  11.553   4.676  12.930
  846SOL    HW2 4436  11.700   4.654  12.961
  847SOL     OW 4437   9.309  13.391   7.496
  847SOL    HW1 4438   9.374  13.333   7.537
  847SOL    HW2 4439   9.357  13.434   7.426
  848SOL     OW 4440  12.033   9.731  11.444
  848SOL    HW1 4441  12.093   9.713  11.516
  848SOL    HW2 4442  12.044   9.657  11.384
  849SOL     OW 4443  10.071   6.867   3.261
  849SOL    HW1 4444  10.094   6.832   3.347
  849SOL    HW2 4445  10.113   6.807   3.199
  850SOL     OW 4446   4.772   9.169  14.048
  850SOL    HW1 4447   4.719   9.247  14.064
  850SOL    HW2 4448   4.804   9.181  13.959
  851SOL     OW 4449   1.166  10.289  13.492
  851SOL    HW1 4450   1.076  10.296  13.459
  851SOL    HW2 4451   1.203  10.376  13.481
  852SOL     OW 4452   2.832  12.385  12.684
  852SOL    HW1 4453   2.881  12.452  12.731
  852SOL    HW2 4454   2.894  12.349  12.621
  853SOL     OW 4455  11.690   4.667  10.472
  853SOL    HW1 4456  11.596   4.646  10.473
  853SOL    HW2 4457  11.702   4.722  10.395
  854SOL     OW 4458   8.855   0.363   3.953
  854SOL    HW1 4459   8.850   0.358   4.049
  854SOL    HW2 4460   8.772   0.328   3.922
  855SOL     OW 4461   7.325  13.345   4.147
  855SOL    HW1 4462   7.346  13.330   4.239
  855SOL    HW2 4463   7.304  13.438   4.142
  856SOL     OW 4464  11.681   1.708   3.255
  856SOL    HW1 4465  11.614   1.769   3.286
  856SOL    HW2 4466  11.665   1.699   3.162
  857SOL     OW 4467   6.714   7.604   4.819
  857SOL    HW1 4468   6.632   7.555   4.811
  857SOL    HW2 4469   6.703   7.657   4.898
  858SOL     OW 4470  11.323  11.186  13.582
  858SOL    HW1 4471  11.370  11.127  13.524
  858SOL    HW2 4472  11.375  11.186  13.663
  859SOL     OW 4473   8.347   0.942   5.423
  859SOL    HW1 4474   8.361   0.905   5.336
  859SOL    HW2 4475   8.418   1.006   5.433
  860SOL     OW 4476  12.343   6.975   5.061
  860SOL    HW1 4477  12.349   6.987   4.966
  860SOL    HW2 4478  12.264   6.922   5.073
  861SOL     OW 4479  12.850   5.568  12.771
  861SOL    HW1 4480  12.902   5.648  12.778
  861SOL    HW2 4481  12.838   5.555  12.677
  862SOL     OW 4482   6.198  13.723   6.201
  862SOL    HW1 4483   6.217  13.630   6.205
  862SOL    HW2 4484   6.173  13.738   6.109
  863SOL     OW 4485   6.083   6.559   3.916
  863SOL    HW1 4486   6.028   6.521   3.985
  863SOL    HW2 4487   6.163   6.586   3.961
  864SOL     OW 4488  11.328  12.241  12.626
  864SOL    HW1 4489  11.322  12.305  12.555
  864SOL    HW2 4490  11.422  12.228  12.638
  865SOL     OW 4491  13.565   9.837  10.962
  865SOL    HW1 4492  13.579   9.823  10.869
  865SOL    HW2 4493  13.589   9.928  10.977
  866SOL     OW 4494   2.056  13.014  14.624
  866SOL    HW1 4495   2.048  13.101  14.585
  866SOL    HW2 4496   1.984  12.964  14.586
  867SOL     OW 4497  11.382  12.047   6.740
  867SOL    HW1 4498  11.330  12.052   6.660
  867SOL    HW2 4499  11.394  11.954   6.755
  868SOL     OW 4500   1.177   5.794   2.909
  868SOL    HW1 4501   1.209   5.751   2.831
  868SOL    HW2 4502   1.082   5.782   2.906
  869SOL     OW 4503   6.949   7.051   9.875
  869SOL    HW1 4504   7.010   7.061   9.949
  869SOL    HW2 4505   6.934   7.140   9.844
  870SOL     OW 4506   3.094   5.017   0.917
  870SOL    HW1 4507   3.179   4.997   0.878
  870SOL    HW2 4508   3.030   4.980   0.857
  871SOL     OW 4509   2.714   5.014   2.150
  871SOL    HW1 4510   2.709   4.922   2.126
  871SOL    HW2 4511   2.784   5.018   2.215
  872SOL     OW 4512   0.442  11.274   1.739
  872SOL    HW1 4513   0.522  11.228   1.715
  872SOL    HW2 4514   0.446  11.281   1.835
  873SOL     OW 4515   1.824  10.960   5.577
  873SOL    HW1 4516   1.815  11.055   5.578
  873SOL    HW2 4517   1.915  10.943   5.599
  874SOL     OW 4518  14.224   0.093   4.871
  874SOL    HW1 4519  14.225   0.026   4.803
  874SOL    HW2 4520  14.134   0.126   4.871
  875SOL     OW 4521   7.570   5.373   1.005
  875SOL    HW1 4522   7.648   5.343   1.052
  875SOL    HW2 4523   7.538   5.295   0.960
  876SOL     OW 4524   3.382  12.069  10.932
  876SOL    HW1 4525   3.383  11.985  10.976
  876SOL    HW2 4526   3.453  12.119  10.973
  877SOL     OW 4527   0.932   5.705  11.048
  877SOL    HW1 4528   0.985   5.625  11.057
  877SOL    HW2 4529   0.979   5.770  11.100
  878SOL     OW 4530   1.834  11.278   6.599
  878SOL    HW1 4531   1.839  11.303   6.691
  878SOL    HW2 4532   1.745  11.247   6.587
  879SOL     OW 4533   3.277   7.839   7.052
  879SOL    HW1 4534   3.347   7.776   7.039
  879SOL    HW2 4535   3.282   7.897   6.976
  880SOL     OW 4536  14.096   6.144   9.053
  880SOL    HW1 4537  14.077   6.088   9.128
  880SOL    HW2 4538  14.189   6.129   9.035
  881SOL     OW 4539   4.268   9.865   3.575
  881SOL    HW1 4540   4.264   9.812   3.655
  881SOL    HW2 4541   4.184   9.911   3.573
  882SOL     OW 4542  12.385   5.211   6.544
  882SOL    HW1 4543  12.463   5.245   6.501
  882SOL    HW2 4544  12.415   5.184   6.631
  883SOL     OW 4545   0.153  14.443   0.849
  883SOL    HW1 4546   0.195  14.427   0.765
  883SOL    HW2 4547   0.168  14.363   0.899
  884SOL     OW 4548   0.998  11.535  14.853
  884SOL    HW1 4549   1.061  11.542  14.781
  884SOL    HW2 4550   0.925  11.486  14.816
  885SOL     OW 4551  12.988   9.318   6.728
  885SOL    HW1 4552  13.059   9.325   6.664
  885SOL    HW2 4553  12.923   9.262   6.685
  886SOL     OW 4554  11.232  11.359   7.387
  886SOL    HW1 4555  11.279  11.403   7.457
  886SOL    HW2 4556  11.156  11.320   7.430
  887SOL     OW 4557  14.557  12.183   8.196
  887SOL    HW1 4558  14.528  12.104   8.150
  887SOL    HW2 4559  14.557  12.157   8.289
  888SOL     OW 4560   7.700   1.587   2.275
  888SOL    HW1 4561   7.706   1.656   2.342
  888SOL    HW2 4562   7.756   1.517   2.307
  889SOL     OW 4563  10.400  10.855  11.858
  889SOL    HW1 4564  10.449  10.896  11.929
  889SOL    HW2 4565  10.432  10.898  11.778
  890SOL     OW 4566  11.260  11.058   0.974
  890SOL    HW1 4567  11.180  11.094   1.013
  890SOL    HW2 4568  11.254  11.082   0.882
  891SOL     OW 4569   7.341  14.527   4.842
  891SOL    HW1 4570   7.327  14.464   4.772
  891SOL    HW2 4571   7.257  14.529   4.889
  892SOL     OW 4572  12.115   7.297  13.110
  892SOL    HW1 4573  12.194   7.343  13.084
  892SOL    HW2 4574  12.146   7.218  13.154
  893SOL     OW 4575   8.403   7.376   6.357
  893SOL    HW1 4576   8.449   7.420   6.428
  893SOL    HW2 4577   8.341   7.318   6.401
  894SOL     OW 4578  12.951  14.455   9.361
  894SOL    HW1 4579  12.864  14.466   9.398
  894SOL    HW2 4580  12.969  14.539   9.317
  895SOL     OW 4581  14.081   5.790   9.886
  895SOL    HW1 4582  14.156   5.823   9.936
  895SOL    HW2 4583  14.120   5.727   9.824
  896SOL     OW 4584   7.824   0.515   5.133
  896SOL    HW1 4585   7.777   0.469   5.202
  896SOL    HW2 4586   7.789   0.604   5.135
  897SOL     OW 4587   6.579  13.035  10.225
  897SOL    HW1 4588   6.634  13.113  10.230
  897SOL    HW2 4589   6.491  13.069  10.207
  898SOL     OW 4590  10.250  12.668   3.916
  898SOL    HW1 4591  10.240  12.610   3.840
  898SOL    HW2 4592  10.313  12.734   3.887
  899SOL     OW 4593   1.995   0.019  10.063
  899SOL    HW1 4594   2.032   0.103  10.036
  899SOL    HW2 4595   1.915   0.042  10.109
  900SOL     OW 4596   3.599  13.733   2.301
  900SOL    HW1 4597   3.694  13.745   2.299
  900SOL    HW2 4598   3.566  13.795   2.235
  901SOL     OW 4599   4.799   7.398  12.338
  901SOL    HW1 4600   4.885   7.439  12.338
  901SOL    HW2 4601   4.750   7.444  12.270
  902SOL     OW 4602  13.700   2.284   0.944
  902SOL    HW1 4603  13.703   2.195   0.979
  902SOL    HW2 4604  13.628   2.327   0.992
  903SOL     OW 4605   1.807   5.511  13.031
  903SOL    HW1 4606   1.740   5.447  13.054
  903SOL    HW2 4607   1.885   5.484  13.080
  904SOL     OW 4608   4.970  11.369   7.121
  904SOL    HW1 4609   4.890  11.358   7.070
  904SOL    HW2 4610   4.942  11.361   7.212
  905SOL     OW 4611   2.202  12.360  14.409
  905SOL    HW1 4612   2.221  12.266  14.405
  905SOL    HW2 4613   2.160  12.372  14.495
  906SOL     OW 4614   8.838  10.253  10.102
  906SOL    HW1 4615   8.886  10.253  10.185
  906SOL    HW2 4616   8.790  10.171  10.102
  907SOL     OW 4617   4.870   4.996   1.661
  907SOL    HW1 4618   4.943   4.941   1.631
  907SOL    HW2 4619   4.861   5.062   1.592
  908SOL     OW 4620   8.174   5.160  13.284
  908SOL    HW1 4621   8.122   5.238  13.302
  908SOL    HW2 4622   8.114   5.087  13.300
  909SOL     OW 4623  11.147  11.208   1.410
  909SOL    HW1 4624  11.083  11.231   1.343
  909SOL    HW2 4625  11.157  11.287   1.462
  910SOL     OW 4626   4.257   5.211   0.996
  910SOL    HW1 4627   4.322   5.218   0.926
  910SOL    HW2 4628   4.309   5.206   1.076
  911SOL     OW 4629  11.031  13.661   4.195
  911SOL    HW1 4630  11.075  13.744   4.178
  911SOL    HW2 4631  10.964  13.683   4.260
  912SOL     OW 4632   7.171  12.766  12.223
  912SOL    HW1 4633   7.170  12.735  12.314
  912SOL    HW2 4634   7.262  12.755  12.195
  913SOL     OW 4635   3.759   8.252  14.596
  913SOL    HW1 4636   3.743   8.166  14.635
  913SOL    HW2 4637   3.839   8.283  14.638
  914SOL     OW 4638   7.263  14.269   3.854
  914SOL    HW1 4639   7.298  14.357   3.866
  914SOL    HW2 4640   7.189  14.280   3.794
  915SOL     OW 4641   7.948   1.055  14.736
  915SOL    HW1 4642   7.956   1.059  14.640
  915SOL    HW2 4643   7.859   1.085  14.753
  916SOL     OW 4644   9.900  14.000   2.725
  916SOL    HW1 4645   9.850  13.986   2.805
  916SOL    HW2 4646   9.862  13.937   2.663
  917SOL     OW 4647  11.300  10.562   8.533
  917SOL    HW1 4648  11.232  10.619   8.497
  917SOL    HW2 4649  11.303  10.487   8.473
  918SOL     OW 4650   2.229   4.957   7.550
  918SOL    HW1 4651   2.321   4.979   7.559
  918SOL    HW2 4652   2.184   5.018   7.608
  919SOL     OW 4653   7.571   2.980  10.969
  919SOL    HW1 4654   7.565   3.020  10.883
  919SOL    HW2 4655   7.549   3.050  11.030
  920SOL     OW 4656   7.118   4.094   1.864
  920SOL    HW1 4657   7.043   4.123   1.812
  920SOL    HW2 4658   7.190   4.087   1.802
  921SOL     OW 4659   7.672  13.841   3.806
  921SOL    HW1 4660   7.597  13.860   3.751
  921SOL    HW2 4661   7.726  13.920   3.803
  922SOL     OW 4662   5.552   2.358  10.182
  922SOL    HW1 4663   5.505   2.420  10.127
  922SOL    HW2 4664   5.625   2.409  10.217
  923SOL     OW 4665   6.984   0.882   1.057
  923SOL    HW1 4666   7.020   0.898   1.144
  923SOL    HW2 4667   6.899   0.840   1.073
  924SOL     OW 4668  12.922  14.189   6.339
  924SOL    HW1 4669  12.985  14.250   6.378
  924SOL    HW2 4670  12.851  14.183   6.402
  925SOL     OW 4671   3.321   6.184   9.658
  925SOL    HW1 4672   3.238   6.135   9.661
  925SOL    HW2 4673   3.298   6.272   9.686
  926SOL     OW 4674  11.065   3.832   6.356
  926SOL    HW1 4675  11.145   3.862   6.314
  926SOL    HW2 4676  11.090   3.814   6.447
  927SOL     OW 4677   5.589   2.282  10.876
  927SOL    HW1 4678   5.550   2.359  10.834
  927SOL    HW2 4679   5.600   2.307  10.968
  928SOL     OW 4680   5.100  11.363   8.451
  928SOL    HW1 4681   5.156  11.437   8.475
  928SOL    HW2 4682   5.115  11.350   8.358
  929SOL     OW 4683  14.348  12.565   2.592
  929SOL    HW1 4684  14.341  12.498   2.524
  929SOL    HW2 4685  14.388  12.519   2.666
  930SOL     OW 4686  11.233  12.203   4.429
  930SOL    HW1 4687  11.148  12.229   4.396
  930SOL    HW2 4688  11.291  12.276   4.408
  931SOL     OW 4689  10.700   6.183   8.466
  931SOL    HW1 4690  10.760   6.220   8.530
  931SOL    HW2 4691  10.621   6.237   8.473
  932SOL     OW 4692   3.177  10.817  13.254
  932SOL    HW1 4693   3.106  10.755  13.241
  932SOL    HW2 4694   3.177  10.833  13.348
  933SOL     OW 4695  12.656   1.178   4.929
  933SOL    HW1 4696  12.595   1.113   4.893
  933SOL    HW2 4697  12.727   1.125   4.967
  934SOL     OW 4698  13.356  13.115  14.537
  934SOL    HW1 4699  13.360  13.038  14.480
  934SOL    HW2 4700  13.263  13.133  14.547
  935SOL     OW 4701   1.997   7.416   7.445
  935SOL    HW1 4702   2.048   7.442   7.369
  935SOL    HW2 4703   1.954   7.496   7.474
  936SOL     OW 4704   7.380   2.449  13.085
  936SOL    HW1 4705   7.393   2.443  12.990
  936SOL    HW2 4706   7.342   2.365  13.110
  937SOL     OW 4707   0.406   8.447  11.107
  937SOL    HW1 4708   0.339   8.384  11.079
  937SOL    HW2 4709   0.417   8.504  11.031
  938SOL     OW 4710  11.124  14.739   5.910
  938SOL    HW1 4711  11.033  14.715   5.925
  938SOL    HW2 4712  11.132  14.827   5.945
  939SOL     OW 4713  12.775  12.244   8.350
  939SOL    HW1 4714  12.865  12.222   8.372
  939SOL    HW2 4715  12.743  12.168   8.301
  940SOL     OW 4716   6.050  14.583   9.227
  940SOL    HW1 4717   6.096  14.618   9.151
  940SOL    HW2 4718   6.005  14.659   9.265
  941SOL     OW 4719  12.268  13.094   4.949
  941SOL    HW1 4720  12.351  13.138   4.970
  941SOL    HW2 4721  12.223  13.155   4.891
  942SOL     OW 4722   2.369   7.705   4.598
  942SOL    HW1 4723   2.340   7.624   4.555
  942SOL    HW2 4724   2.464   7.702   4.593
  943SOL     OW 4725   9.807  14.555   9.567
  943SOL    HW1 4726   9.715  14.578   9.576
  943SOL    HW2 4727   9.811  14.503   9.487
  944SOL     OW 4728  11.949   4.747   5.286
  944SOL    HW1 4729  11.924   4.683   5.352
  944SOL    HW2 4730  11.868   4.768   5.240
  945SOL     OW 4731   0.059  14.259   3.803
  945SOL    HW1 4732   0.090  14.238   3.715
  945SOL    HW2 4733   0.023  14.177   3.836
  946SOL     OW 4734   9.994   9.232   6.846
  946SOL    HW1 4735   9.979   9.189   6.931
  946SOL    HW2 4736  10.063   9.180   6.805
  947SOL     OW 4737   7.715   7.180   5.255
  947SOL    HW1 4738   7.670   7.132   5.324
  947SOL    HW2 4739   7.717   7.271   5.286
  948SOL     OW 4740  10.571  10.315  13.511
  948SOL    HW1 4741  10.651  10.361  13.537
  948SOL    HW2 4742  10.601  10.242  13.456
  949SOL     OW 4743  12.068   3.962   2.863
  949SOL    HW1 4744  12.031   3.932   2.946
  949SOL    HW2 4745  11.992   3.988   2.811
  950SOL     OW 4746   8.040   2.994   2.815
  950SOL    HW1 4747   8.099   3.043   2.758
  950SOL    HW2 4748   8.047   3.038   2.900
  951SOL     OW 4749   3.306   7.307  14.286
  951SOL    HW1 4750   3.396   7.339  14.281
  951SOL    HW2 4751   3.305   7.230  14.230
  952SOL     OW 4752   0.237  14.419  13.821
  952SOL    HW1 4753   0.317  14.375  13.793
  952SOL    HW2 4754   0.204  14.366  13.894
  953SOL     OW 4755  12.209  10.533   3.303
  953SOL    HW1 4756  12.273  10.484   3.355
  953SOL    HW2 4757  12.218  10.497   3.215
  954SOL     OW 4758   6.467   5.808   7.957
  954SOL    HW1 4759   6.451   5.809   8.051
  954SOL    HW2 4760   6.395   5.860   7.920
  955SOL     OW 4761  10.707   0.028   3.720
  955SOL    HW1 4762  10.675  14.840   3.652
  955SOL    HW2 4763  10.754  14.842   3.781
  956SOL     OW 4764   5.530  11.979   4.448
  956SOL    HW1 4765   5.511  12.073   4.451
  956SOL    HW2 4766   5.583  11.968   4.368
  957SOL     OW 4767   8.236  12.734  13.170
  957SOL    HW1 4768   8.285  12.652  13.163
  957SOL    HW2 4769   8.219  12.759  13.079
  958SOL     OW 4770   0.287  13.882  13.311
  958SOL    HW1 4771   0.248  13.821  13.374
  958SOL    HW2 4772   0.230  13.875  13.234
  959SOL     OW 4773   7.555   4.590   3.152
  959SOL    HW1 4774   7.592   4.640   3.225
  959SOL    HW2 4775   7.604   4.508   3.152
  960SOL     OW 4776  14.192   3.563  12.390
  960SOL    HW1 4777  14.151   3.649  12.400
  960SOL    HW2 4778  14.138   3.518  12.326
  961SOL     OW 4779   7.996   9.791   9.304
  961SOL    HW1 4780   7.903   9.814   9.309
  961SOL    HW2 4781   8.039   9.873   9.280
  962SOL     OW 4782  14.288   5.740   8.531
  962SOL    HW1 4783  14.214   5.738   8.471
  962SOL    HW2 4784  14.332   5.656   8.519
  963SOL     OW 4785  14.344   6.189  13.037
  963SOL    HW1 4786  14.384   6.223  12.957
  963SOL    HW2 4787  14.260   6.155  13.009
  964SOL     OW 4788   6.651  11.948   5.699
  964SOL    HW1 4789   6.614  11.880   5.756
  964SOL    HW2 4790   6.743  11.922   5.688
  965SOL     OW 4791  10.726   4.946   9.139
  965SOL    HW1 4792  10.766   4.864   9.168
  965SOL    HW2 4793  10.659   4.965   9.205
  966SOL     OW 4794   5.245   7.933  13.179
  966SOL    HW1 4795   5.160   7.977  13.187
  966SOL    HW2 4796   5.224   7.840  13.189
  967SOL     OW 4797   1.056   9.943   6.973
  967SOL    HW1 4798   1.113   9.898   6.911
  967SOL    HW2 4799   0.968   9.909   6.954
  968SOL     OW 4800   2.825   7.784   2.943
  968SOL    HW1 4801   2.754   7.830   2.987
  968SOL    HW2 4802   2.798   7.780   2.851
  969SOL     OW 4803  11.622  12.839  12.162
  969SOL    HW1 4804  11.580  12.925  12.172
  969SOL    HW2 4805  11.551  12.776  12.165
  970SOL     OW 4806   8.444   6.356  10.273
  970SOL    HW1 4807   8.517   6.302  10.245
  970SOL    HW2 4808   8.485   6.435  10.309
  971SOL     OW 4809  13.721   6.955  11.219
  971SOL    HW1 4810  13.816   6.958  11.205
  971SOL    HW2 4811  13.685   7.019  11.158
  972SOL     OW 4812   4.739   9.719   8.145
  972SOL    HW1 4813   4.659   9.696   8.098
  972SOL    HW2 4814   4.726   9.809   8.174
  973SOL     OW 4815   6.373  12.281   2.203
  973SOL    HW1 4816   6.354  12.238   2.286
  973SOL    HW2 4817   6.378  12.210   2.139
  974SOL     OW 4818  10.768   6.920   9.797
  974SOL    HW1 4819  10.851   6.967   9.801
  974SOL    HW2 4820  10.780   6.856   9.727
  975SOL     OW 4821   0.219  13.734  12.391
  975SOL    HW1 4822   0.152  13.666  12.384
  975SOL    HW2 4823   0.192  13.801  12.329
  976SOL     OW 4824   7.771   5.707   1.971
  976SOL    HW1 4825   7.858   5.683   2.005
  976SOL    HW2 4826   7.712   5.688   2.044
  977SOL     OW 4827   8.152   1.456  13.960
  977SOL    HW1 4828   8.147   1.367  13.996
  977SOL    HW2 4829   8.076   1.501  13.998
  978SOL     OW 4830  11.769   5.728  12.088
  978SOL    HW1 4831  11.859   5.701  12.066
  978SOL    HW2 4832  11.714   5.671  12.035
  979SOL     OW 4833   5.649   5.968   6.628
  979SOL    HW1 4834   5.630   5.938   6.539
  979SOL    HW2 4835   5.709   6.042   6.616
  980SOL     OW 4836   7.837   7.758   2.615
  980SOL    HW1 4837   7.909   7.696   2.628
  980SOL    HW2 4838   7.810   7.782   2.703
  981SOL     OW 4839   4.547  11.127   8.679
  981SOL    HW1 4840   4.631  11.120   8.632
  981SOL    HW2 4841   4.571  11.162   8.765
  982SOL     OW 4842   8.722   1.335   4.020
  982SOL    HW1 4843   8.731   1.255   3.968
  982SOL    HW2 4844   8.642   1.376   3.989
  983SOL     OW 4845   2.801  13.687   6.681
  983SOL    HW1 4846   2.807  13.595   6.658
  983SOL    HW2 4847   2.803  13.688   6.777
  984SOL     OW 4848   2.298  12.696   0.910
  984SOL    HW1 4849   2.380  12.691   0.860
  984SOL    HW2 4850   2.312  12.766   0.973
  985SOL     OW 4851  14.457   9.456   3.396
  985SOL    HW1 4852  14.509   9.537   3.398
  985SOL    HW2 4853  14.419   9.450   3.484
  986SOL     OW 4854   5.153   1.467   5.056
  986SOL    HW1 4855   5.110   1.463   4.971
  986SOL    HW2 4856   5.131   1.553   5.091
  987SOL     OW 4857   8.950  13.710   2.478
  987SOL    HW1 4858   9.016  13.728   2.546
  987SOL    HW2 4859   8.966  13.619   2.454
  988SOL     OW 4860   0.325  10.895   6.217
  988SOL    HW1 4861   0.300  10.802   6.215
  988SOL    HW2 4862   0.243  10.942   6.207
  989SOL     OW 4863   2.146   1.396   6.571
  989SOL    HW1 4864   2.162   1.344   6.492
  989SOL    HW2 4865   2.227   1.446   6.583
  990SOL     OW 4866  10.540   3.757   8.594
  990SOL    HW1 4867  10.459   3.767   8.543
  990SOL    HW2 4868  10.520   3.686   8.655
  991SOL     OW 4869   5.591  14.609  14.804
  991SOL    HW1 4870   5.609  14.529  14.853
  991SOL    HW2 4871   5.645  14.602  14.725
  992SOL     OW 4872   8.095   4.386   4.390
  992SOL    HW1 4873   8.122   4.386   4.482
  992SOL    HW2 4874   8.157   4.326   4.347
  993SOL     OW 4875  14.269   2.383  11.111
  993SOL    HW1 4876  14.358   2.418  11.113
  993SOL    HW2 4877  14.215   2.457  11.082
  994SOL     OW 4878   0.994  14.755   3.350
  994SOL    HW1 4879   1.034  14.836   3.382
  994SOL    HW2 4880   0.970  14.774   3.259
  995SOL     OW 4881   5.158   8.990   2.998
  995SOL    HW1 4882   5.199   8.925   2.940
  995SOL    HW2 4883   5.227   9.054   3.016
  996SOL     OW 4884   6.308  10.207  13.971
  996SOL    HW1 4885   6.351  10.193  13.887
  996SOL    HW2 4886   6.379  10.206  14.035
  997SOL     OW 4887  10.005   3.361   6.104
  997SOL    HW1 4888  10.011   3.303   6.180
  997SOL    HW2 4889   9.935   3.422   6.126
  998SOL     OW 4890  11.098   4.997   1.551
  998SOL    HW1 4891  11.176   4.979   1.605
  998SOL    HW2 4892  11.133   5.030   1.468
  999SOL     OW 4893   3.052   4.356  12.317
  999SOL    HW1 4894   3.070   4.262  12.310
  999SOL    HW2 4895   3.094   4.383  12.399
 1000SOL     OW 4896   0.446  11.126   1.279
 1000SOL    HW1 4897   0.406  11.054   1.327
 1000SOL    HW2 4898   0.535  11.131   1.315
 1001SOL     OW 4899  12.946  14.062   4.325
 1001SOL    HW1 4900  12.883  14.020   4.383
 1001SOL    HW2 4901  13.025  14.072   4.379
 1002SOL     OW 4902   3.484   9.232   2.697
 1002SOL    HW1 4903   3.389   9.240   2.693
 1002SOL    HW2 4904   3.499   9.139   2.715
 1003SOL     OW 4905   2.836  13.812  10.359
 1003SOL    HW1 4906   2.769  13.816  10.291
 1003SOL    HW2 4907   2.914  13.778  10.315
 1004SOL     OW 4908   9.825  13.959  10.875
 1004SOL    HW1 4909   9.757  13.991  10.936
 1004SOL    HW2 4910   9.791  13.876  10.843
 1005SOL     OW 4911   4.929  10.442   1.552
 1005SOL    HW1 4912   4.961  10.384   1.621
 1005SOL    HW2 4913   4.848  10.402   1.522
 1006SOL     OW 4914  11.940   4.505   6.386
 1006SOL    HW1 4915  11.934   4.464   6.299
 1006SOL    HW2 4916  12.020   4.467   6.424
 1007SOL     OW 4917   6.026  12.932   5.533
 1007SOL    HW1 4918   6.079  13.010   5.549
 1007SOL    HW2 4919   6.029  12.884   5.616
 1008SOL     OW 4920  10.461  14.123   1.290
 1008SOL    HW1 4921  10.375  14.122   1.249
 1008SOL    HW2 4922  10.445  14.098   1.381
 1009SOL     OW 4923  13.916   0.682   3.661
 1009SOL    HW1 4924  13.875   0.755   3.615
 1009SOL    HW2 4925  13.926   0.713   3.751
 1010SOL     OW 4926   4.910   9.432   0.569
 1010SOL    HW1 4927   4.874   9.457   0.484
 1010SOL    HW2 4928   4.959   9.509   0.598
 1011SOL     OW 4929   6.027  10.702   0.972
 1011SOL    HW1 4930   5.948  10.705   1.026
 1011SOL    HW2 4931   6.007  10.759   0.898
 1012SOL     OW 4932   4.666  11.210   2.477
 1012SOL    HW1 4933   4.653  11.242   2.388
 1012SOL    HW2 4934   4.625  11.277   2.532
 1013SOL     OW 4935   4.002   1.861   4.386
 1013SOL    HW1 4936   4.089   1.899   4.382
 1013SOL    HW2 4937   4.004   1.802   4.462
 1014SOL     OW 4938   2.370  10.756   9.485
 1014SOL    HW1 4939   2.348  10.696   9.413
 1014SOL    HW2 4940   2.345  10.842   9.453
 1015SOL     OW 4941   7.925  13.113   5.130
 1015SOL    HW1 4942   8.000  13.164   5.099
 1015SOL    HW2 4943   7.895  13.159   5.208
 1016SOL     OW 4944   3.169   2.381   6.630
 1016SOL    HW1 4945   3.096   2.351   6.576
 1016SOL    HW2 4946   3.206   2.455   6.582
 1017SOL     OW 4947   2.722   0.038   0.901
 1017SOL    HW1 4948   2.705   0.100   0.830
 1017SOL    HW2 4949   2.809   0.062   0.933
 1018SOL     OW 4950   2.992   5.106   6.822
 1018SOL    HW1 4951   2.901   5.078   6.825
 1018SOL    HW2 4952   3.004   5.138   6.732
 1019SOL     OW 4953   0.808   2.553   4.307
 1019SOL    HW1 4954   0.731   2.523   4.355
 1019SOL    HW2 4955   0.864   2.476   4.300
 1020SOL     OW 4956   6.133  11.223   6.324
 1020SOL    HW1 4957   6.042  11.219   6.354
 1020SOL    HW2 4958   6.180  11.269   6.394
 1021SOL     OW 4959   7.745   6.681   4.939
 1021SOL    HW1 4960   7.790   6.631   5.007
 1021SOL    HW2 4961   7.800   6.673   4.862
 1022SOL     OW 4962   7.764   0.144   0.013
 1022SOL    HW1 4963   7.736   0.235   0.005
 1022SOL    HW2 4964   7.791   0.136   0.105
 1023SOL     OW 4965   7.011   1.430   2.435
 1023SOL    HW1 4966   7.049   1.483   2.365
 1023SOL    HW2 4967   7.064   1.350   2.435
 1024SOL     OW 4968   0.109  14.202  12.311
 1024SOL    HW1 4969   0.149  14.120  12.341
 1024SOL    HW2 4970   0.036  14.216  12.372
 1025SOL     OW 4971   3.110  13.871  13.935
 1025SOL    HW1 4972   3.079  13.949  13.888
 1025SOL    HW2 4973   3.097  13.799  13.874
 1026SOL     OW 4974   6.162   1.688   4.977
 1026SOL    HW1 4975   6.075   1.680   5.017
 1026SOL    HW2 4976   6.222   1.693   5.052
 1027SOL     OW 4977   5.401  11.047   9.585
 1027SOL    HW1 4978   5.328  11.057   9.523
 1027SOL    HW2 4979   5.390  10.959   9.621
 1028SOL     OW 4980   7.040   1.364   4.778
 1028SOL    HW1 4981   6.979   1.290   4.768
 1028SOL    HW2 4982   7.046   1.377   4.872
 1029SOL     OW 4983   4.670   8.679   2.687
 1029SOL    HW1 4984   4.719   8.739   2.631
 1029SOL    HW2 4985   4.736   8.622   2.726
 1030SOL     OW 4986   5.421   7.374   4.767
 1030SOL    HW1 4987   5.410   7.299   4.825
 1030SOL    HW2 4988   5.481   7.343   4.699
 1031SOL     OW 4989   2.533  13.678   4.514
 1031SOL    HW1 4990   2.496  13.724   4.439
 1031SOL    HW2 4991   2.458  13.660   4.570
 1032SOL     OW 4992  12.082  12.972   3.985
 1032SOL    HW1 4993  12.145  12.983   3.915
 1032SOL    HW2 4994  11.997  12.994   3.946
 1033SOL     OW 4995  14.349  13.452  11.424
 1033SOL    HW1 4996  14.363  13.528  11.367
 1033SOL    HW2 4997  14.408  13.385  11.390
 1034SOL     OW 4998   1.310  12.219   0.379
 1034SOL    HW1 4999   1.395  12.204   0.421
 1034SOL    HW2 5000   1.324  12.196   0.288
 1035SOL     OW 5001  11.170   8.859   9.904
 1035SOL    HW1 5002  11.181   8.913   9.826
 1035SOL    HW2 5003  11.249   8.875   9.956
 1036SOL     OW 5004   3.308   0.324  10.549
 1036SOL    HW1 5005   3.359   0.257  10.593
 1036SOL    HW2 5006   3.325   0.310  10.456
 1037SOL     OW 5007   4.982  11.084   3.586
 1037SOL    HW1 5008   5.024  11.004   3.553
 1037SOL    HW2 5009   5.035  11.155   3.551
 1038SOL     OW 5010  12.152   3.271   9.360
 1038SOL    HW1 5011  12.220   3.205   9.372
 1038SOL    HW2 5012  12.103   3.241   9.284
 1039SOL     OW 5013   2.592  12.883   7.119
 1039SOL    HW1 5014   2.568  12.973   7.096
 1039SOL    HW2 5015   2.534  12.860   7.191
 1040SOL     OW 5016  10.386   7.386   9.921
 1040SOL    HW1 5017  10.394   7.464   9.975
 1040SOL    HW2 5018  10.369   7.418   9.833
 1041SOL     OW 5019   5.611   6.668  11.715
 1041SOL    HW1 5020   5.528   6.628  11.742
 1041SOL    HW2 5021   5.625   6.740  11.777
 1042SOL     OW 5022  12.102   6.898  10.246
 1042SOL    HW1 5023  12.088   6.968  10.310
 1042SOL    HW2 5024  12.023   6.897  10.193
 1043SOL     OW 5025  10.410  13.065   2.181
 1043SOL    HW1 5026  10.412  12.973   2.154
 1043SOL    HW2 5027  10.479  13.107   2.129
 1044SOL     OW 5028   3.557   0.328   9.197
 1044SOL    HW1 5029   3.635   0.334   9.252
 1044SOL    HW2 5030   3.544   0.234   9.184
 1045SOL     OW 5031   7.115   1.609  10.875
 1045SOL    HW1 5032   7.120   1.513  10.866
 1045SOL    HW2 5033   7.093   1.624  10.966
 1046SOL     OW 5034   2.254  11.859   9.767
 1046SOL    HW1 5035   2.311  11.783   9.753
 1046SOL    HW2 5036   2.274  11.888   9.856
 1047SOL     OW 5037   7.639  11.329   4.664
 1047SOL    HW1 5038   7.708  11.296   4.721
 1047SOL    HW2 5039   7.655  11.424   4.660
 1048SOL     OW 5040   0.996   8.112   8.478
 1048SOL    HW1 5041   1.072   8.161   8.447
 1048SOL    HW2 5042   0.971   8.154   8.560
 1049SOL     OW 5043  14.521   3.008   1.434
 1049SOL    HW1 5044  14.564   2.930   1.470
 1049SOL    HW2 5045  14.490   2.979   1.348
 1050SOL     OW 5046  13.649   6.130   3.148
 1050SOL    HW1 5047  13.691   6.065   3.205
 1050SOL    HW2 5048  13.712   6.143   3.077
 1051SOL     OW 5049   8.077  12.593   7.681
 1051SOL    HW1 5050   8.155  12.624   7.726
 1051SOL    HW2 5051   8.016  12.667   7.685
 1052SOL     OW 5052   1.348   9.107   0.691
 1052SOL    HW1 5053   1.374   9.099   0.599
 1052SOL    HW2 5054   1.261   9.068   0.694
 1053SOL     OW 5055   8.795  13.689  13.351
 1053SOL    HW1 5056   8.887  13.663  13.362
 1053SOL    HW2 5057   8.766  13.708  13.440
 1054SOL     OW 5058   0.740   3.286  10.856
 1054SOL    HW1 5059   0.735   3.230  10.933
 1054SOL    HW2 5060   0.788   3.235  10.792
 1055SOL     OW 5061   5.716   9.311   6.630
 1055SOL    HW1 5062   5.806   9.320   6.661
 1055SOL    HW2 5063   5.713   9.227   6.585
 1056SOL     OW 5064   3.379  14.828  14.552
 1056SOL    HW1 5065   3.410  14.859  14.637
 1056SOL    HW2 5066   3.413   0.021  14.490
 1057SOL     OW 5067  14.319  13.389  11.704
 1057SOL    HW1 5068  14.413  13.371  11.714
 1057SOL    HW2 5069  14.316  13.459  11.639
 1058SOL     OW 5070   7.091  13.970   2.640
 1058SOL    HW1 5071   7.090  14.066   2.639
 1058SOL    HW2 5072   7.146  13.948   2.715
 1059SOL     OW 5073   0.319   0.222   2.926
 1059SOL    HW1 5074   0.301   0.245   3.017
 1059SOL    HW2 5075   0.266   0.144   2.910
 1060SOL     OW 5076  10.401  12.712   8.562
 1060SOL    HW1 5077  10.397  12.665   8.479
 1060SOL    HW2 5078  10.384  12.646   8.629
 1061SOL     OW 5079  10.846   3.791  10.423
 1061SOL    HW1 5080  10.925   3.757  10.465
 1061SOL    HW2 5081  10.781   3.794  10.493
 1062SOL     OW 5082   4.254   4.152   3.345
 1062SOL    HW1 5083   4.237   4.245   3.356
 1062SOL    HW2 5084   4.349   4.143   3.355
 1063SOL     OW 5085   0.653  13.436  14.353
 1063SOL    HW1 5086   0.715  13.407  14.420
 1063SOL    HW2 5087   0.698  13.423  14.270
 1064SOL     OW 5088   3.178   6.475  13.860
 1064SOL    HW1 5089   3.090   6.441  13.841
 1064SOL    HW2 5090   3.180   6.561  13.818
 1065SOL     OW 5091   5.152   8.912   3.567
 1065SOL    HW1 5092   5.133   8.998   3.530
 1065SOL    HW2 5093   5.241   8.921   3.603
 1066SOL     OW 5094   7.004   5.654   8.931
 1066SOL    HW1 5095   6.951   5.720   8.976
 1066SOL    HW2 5096   6.958   5.572   8.946
 1067SOL     OW 5097   3.051  12.109  10.780
 1067SOL    HW1 5098   3.033  12.113  10.686
 1067SOL    HW2 5099   3.081  12.020  10.795
 1068SOL     OW 5100  13.052   4.382  10.522
 1068SOL    HW1 5101  13.096   4.348  10.444
 1068SOL    HW2 5102  13.024   4.470  10.497
 1069SOL     OW 5103  13.707  14.817  11.613
 1069SOL    HW1 5104  13.631  14.860  11.574
 1069SOL    HW2 5105  13.704  14.727  11.578
 1070SOL     OW 5106   7.398  11.017   3.244
 1070SOL    HW1 5107   7.462  10.971   3.190
 1070SOL    HW2 5108   7.445  11.093   3.278
 1071SOL     OW 5109  12.741   1.384   7.761
 1071SOL    HW1 5110  12.769   1.347   7.844
 1071SOL    HW2 5111  12.771   1.321   7.695
 1072SOL     OW 5112   6.828   7.072   2.113
 1072SOL    HW1 5113   6.795   7.025   2.036
 1072SOL    HW2 5114   6.783   7.157   2.111
 1073SOL     OW 5115   1.140  11.016   0.331
 1073SOL    HW1 5116   1.075  10.981   0.270
 1073SOL    HW2 5117   1.103  11.100   0.359
 1074SOL     OW 5118   8.941   3.363   4.749
 1074SOL    HW1 5119   9.030   3.342   4.777
 1074SOL    HW2 5120   8.921   3.297   4.683
 1075SOL     OW 5121   0.032   6.026   4.273
 1075SOL    HW1 5122   0.061   6.105   4.317
 1075SOL    HW2 5123   0.032   5.959   4.341
 1076SOL     OW 5124  14.597   0.287  11.698
 1076SOL    HW1 5125  14.681   0.293  11.653
 1076SOL    HW2 5126  14.569   0.378  11.710
 1077SOL     OW 5127   5.386  12.769   4.596
 1077SOL    HW1 5128   5.358  12.835   4.533
 1077SOL    HW2 5129   5.357  12.802   4.681
 1078SOL     OW 5130   3.859  10.191   1.869
 1078SOL    HW1 5131   3.769  10.176   1.898
 1078SOL    HW2 5132   3.864  10.284   1.850
 1079SOL     OW 5133   0.688   2.891   0.090
 1079SOL    HW1 5134   0.722   2.927   0.008
 1079SOL    HW2 5135   0.672   2.798   0.070
 1080SOL     OW 5136   4.826   6.045  10.956
 1080SOL    HW1 5137   4.810   5.954  10.981
 1080SOL    HW2 5138   4.796   6.096  11.032
 1081SOL     OW 5139  10.129   7.843   9.308
 1081SOL    HW1 5140  10.138   7.805   9.221
 1081SOL    HW2 5141  10.204   7.901   9.318
 1082SOL     OW 5142   7.788  11.467  10.011
 1082SOL    HW1 5143   7.844  11.464   9.933
 1082SOL    HW2 5144   7.763  11.559  10.019
 1083SOL     OW 5145  11.954   4.574   2.149
 1083SOL    HW1 5146  11.989   4.512   2.085
 1083SOL    HW2 5147  12.027   4.590   2.210
 1084SOL     OW 5148  10.394  12.500   6.644
 1084SOL    HW1 5149  10.376  12.517   6.551
 1084SOL    HW2 5150  10.346  12.419   6.663
 1085SOL     OW 5151   8.729  13.626   5.654
 1085SOL    HW1 5152   8.757  13.622   5.563
 1085SOL    HW2 5153   8.663  13.694   5.657
 1086SOL     OW 5154   7.855   5.880   0.801
 1086SOL    HW1 5155   7.832   5.938   0.729
 1086SOL    HW2 5156   7.912   5.933   0.858
 1087SOL     OW 5157  13.770   8.435   7.969
 1087SOL    HW1 5158  13.702   8.457   8.033
 1087SOL    HW2 5159  13.727   8.443   7.884
 1088SOL     OW 5160   7.208   2.587   5.895
 1088SOL    HW1 5161   7.278   2.542   5.941
 1088SOL    HW2 5162   7.158   2.517   5.853
 1089SOL     OW 5163   8.340   9.064   6.270
 1089SOL    HW1 5164   8.335   9.022   6.356
 1089SOL    HW2 5165   8.416   9.024   6.229
 1090SOL     OW 5166  10.155  10.043   0.210
 1090SOL    HW1 5167  10.105   9.962   0.217
 1090SOL    HW2 5168  10.152  10.066   0.117
 1091SOL     OW 5169   2.550  14.128   1.028
 1091SOL    HW1 5170   2.536  14.069   0.953
 1091SOL    HW2 5171   2.469  14.123   1.079
 1092SOL     OW 5172  10.654   4.580   5.211
 1092SOL    HW1 5173  10.732   4.538   5.174
 1092SOL    HW2 5174  10.581   4.541   5.163
 1093SOL     OW 5175   3.470  11.533   1.092
 1093SOL    HW1 5176   3.539  11.550   1.157
 1093SOL    HW2 5177   3.391  11.521   1.144
 1094SOL     OW 5178  13.150   8.689   0.998
 1094SOL    HW1 5179  13.101   8.620   1.042
 1094SOL    HW2 5180  13.172   8.654   0.912
 1095SOL     OW 5181   4.174   5.632   5.484
 1095SOL    HW1 5182   4.130   5.713   5.459
 1095SOL    HW2 5183   4.109   5.563   5.468
 1096SOL     OW 5184  11.518   1.338  10.477
 1096SOL    HW1 5185  11.554   1.256  10.509
 1096SOL    HW2 5186  11.543   1.342  10.385
 1097SOL     OW 5187   3.472   7.121  14.497
 1097SOL    HW1 5188   3.516   7.205  14.511
 1097SOL    HW2 5189   3.454   7.119  14.403
 1098SOL     OW 5190  11.027   4.280   9.760
 1098SOL    HW1 5191  10.972   4.297   9.836
 1098SOL    HW2 5192  10.977   4.219   9.706
 1099SOL     OW 5193   0.777   7.095   5.687
 1099SOL    HW1 5194   0.732   7.109   5.603
 1099SOL    HW2 5195   0.799   7.002   5.687
 1100SOL     OW 5196   2.598   1.116   7.369
 1100SOL    HW1 5197   2.573   1.203   7.400
 1100SOL    HW2 5198   2.578   1.117   7.276
 1101SOL     OW 5199  13.318  10.494   4.377
 1101SOL    HW1 5200  13.362  10.541   4.448
 1101SOL    HW2 5201  13.263  10.430   4.422
 1102SOL     OW 5202   4.410  11.303   1.720
 1102SOL    HW1 5203   4.491  11.289   1.769
 1102SOL    HW2 5204   4.391  11.396   1.731
 1103SOL     OW 5205   5.392  13.644   8.679
 1103SOL    HW1 5206   5.464  13.694   8.640
 1103SOL    HW2 5207   5.313  13.690   8.651
 1104SOL     OW 5208   4.909  10.007   0.892
 1104SOL    HW1 5209   4.951   9.975   0.813
 1104SOL    HW2 5210   4.950   9.957   0.963
 1105SOL     OW 5211  12.770   5.885   2.670
 1105SOL    HW1 5212  12.767   5.791   2.686
 1105SOL    HW2 5213  12.703   5.921   2.728
 1106SOL     OW 5214  11.366  14.838  13.378
 1106SOL    HW1 5215  11.315  14.865  13.454
 1106SOL    HW2 5216  11.387   0.048  13.333
 1107SOL     OW 5217   5.019  13.357   9.158
 1107SOL    HW1 5218   5.068  13.378   9.237
 1107SOL    HW2 5219   5.061  13.278   9.125
 1108SOL     OW 5220   9.584   6.830   3.783
 1108SOL    HW1 5221   9.502   6.794   3.750
 1108SOL    HW2 5222   9.560   6.915   3.821
 1109SOL     OW 5223   5.546   1.449  10.053
 1109SOL    HW1 5224   5.551   1.530  10.103
 1109SOL    HW2 5225   5.489   1.392  10.106
 1110SOL     OW 5226  11.792   4.961   1.228
 1110SOL    HW1 5227  11.774   5.004   1.312
 1110SOL    HW2 5228  11.717   4.986   1.173
 1111SOL     OW 5229   7.189   5.378  12.230
 1111SOL    HW1 5230   7.273   5.423  12.215
 1111SOL    HW2 5231   7.164   5.404  12.318
 1112SOL     OW 5232   6.889   9.137   5.345
 1112SOL    HW1 5233   6.968   9.191   5.352
 1112SOL    HW2 5234   6.877   9.099   5.432
 1113SOL     OW 5235   9.470  13.808   8.358
 1113SOL    HW1 5236   9.390  13.828   8.309
 1113SOL    HW2 5237   9.439  13.769   8.440
 1114SOL     OW 5238  13.261   9.270  12.849
 1114SOL    HW1 5239  13.355   9.268  12.868
 1114SOL    HW2 5240  13.255   9.278  12.754
 1115SOL     OW 5241   2.072   9.345   6.548
 1115SOL    HW1 5242   2.002   9.304   6.599
 1115SOL    HW2 5243   2.034   9.428   6.519
 1116SOL     OW 5244  11.618  14.694  13.149
 1116SOL    HW1 5245  11.566  14.646  13.214
 1116SOL    HW2 5246  11.709  14.670  13.170
 1117SOL     OW 5247   3.196   6.121  11.816
 1117SOL    HW1 5248   3.172   6.152  11.729
 1117SOL    HW2 5249   3.180   6.027  11.813
 1118SOL     OW 5250  11.390  10.296  14.550
 1118SOL    HW1 5251  11.453  10.226  14.567
 1118SOL    HW2 5252  11.440  10.361  14.499
 1119SOL     OW 5253  14.126  14.486   2.694
 1119SOL    HW1 5254  14.073  14.566   2.696
 1119SOL    HW2 5255  14.067  14.419   2.661
 1120SOL     OW 5256  10.084   7.052   3.053
 1120SOL    HW1 5257  10.157   7.005   3.015
 1120SOL    HW2 5258  10.084   7.028   3.145
 1121SOL     OW 5259   2.600  10.894   9.007
 1121SOL    HW1 5260   2.548  10.960   9.052
 1121SOL    HW2 5261   2.585  10.912   8.914
 1122SOL     OW 5262  14.090   7.387  12.350
 1122SOL    HW1 5263  14.115   7.470  12.390
 1122SOL    HW2 5264  14.075   7.408  12.258
 1123SOL     OW 5265  12.406  12.366   7.793
 1123SOL    HW1 5266  12.497  12.373   7.763
 1123SOL    HW2 5267  12.413  12.337   7.884
 1124SOL     OW 5268   9.694   1.084  11.080
 1124SOL    HW1 5269   9.753   1.127  11.141
 1124SOL    HW2 5270   9.661   1.008  11.128
 1125SOL     OW 5271   4.356   9.635   4.591
 1125SOL    HW1 5272   4.402   9.554   4.611
 1125SOL    HW2 5273   4.283   9.608   4.535
 1126SOL     OW 5274  14.098  12.864  12.519
 1126SOL    HW1 5275  14.120  12.881  12.428
 1126SOL    HW2 5276  14.174  12.895  12.568
 1127SOL     OW 5277   8.826   8.713  11.482
 1127SOL    HW1 5278   8.809   8.774  11.410
 1127SOL    HW2 5279   8.902   8.662  11.452
 1128SOL     OW 5280   7.493   4.111   5.979
 1128SOL    HW1 5281   7.402   4.141   5.981
 1128SOL    HW2 5282   7.509   4.088   5.887
 1129SOL     OW 5283   8.450   4.104  10.329
 1129SOL    HW1 5284   8.492   4.134  10.410
 1129SOL    HW2 5285   8.515   4.045  10.290
 1130SOL     OW 5286  14.458   2.097   1.247
 1130SOL    HW1 5287  14.516   2.172   1.236
 1130SOL    HW2 5288  14.477   2.064   1.335
 1131SOL     OW 5289   7.513  10.923   2.471
 1131SOL    HW1 5290   7.466  10.961   2.396
 1131SOL    HW2 5291   7.444  10.908   2.536
 1132SOL     OW 5292   0.359   9.450   3.353
 1132SOL    HW1 5293   0.342   9.539   3.382
 1132SOL    HW2 5294   0.298   9.436   3.280
 1133SOL     OW 5295   5.880   8.793   8.030
 1133SOL    HW1 5296   5.835   8.744   8.099
 1133SOL    HW2 5297   5.939   8.729   7.989
 1134SOL     OW 5298   2.688   7.536   0.566
 1134SOL    HW1 5299   2.706   7.629   0.583
 1134SOL    HW2 5300   2.642   7.506   0.645
 1135SOL     OW 5301   9.387  12.288   4.032
 1135SOL    HW1 5302   9.309  12.341   4.045
 1135SOL    HW2 5303   9.363  12.201   4.064
 1136SOL     OW 5304   5.257  11.980   6.062
 1136SOL    HW1 5305   5.244  12.026   6.145
 1136SOL    HW2 5306   5.283  12.049   6.001
 1137SOL     OW 5307   9.182   0.578   1.850
 1137SOL    HW1 5308   9.141   0.531   1.922
 1137SOL    HW2 5309   9.213   0.660   1.889
 1138SOL     OW 5310   9.898   1.348   8.500
 1138SOL    HW1 5311   9.863   1.409   8.564
 1138SOL    HW2 5312   9.984   1.322   8.535
 1139SOL     OW 5313  13.816   2.944  12.262
 1139SOL    HW1 5314  13.854   2.954  12.175
 1139SOL    HW2 5315  13.892   2.933  12.320
 1140SOL     OW 5316   7.864  10.130   2.348
 1140SOL    HW1 5317   7.917  10.178   2.411
 1140SOL    HW2 5318   7.919  10.123   2.270
 1141SOL     OW 5319   2.546   3.160   2.502
 1141SOL    HW1 5320   2.621   3.165   2.561
 1141SOL    HW2 5321   2.471   3.150   2.559
 1142SOL     OW 5322   5.314  13.585   0.810
 1142SOL    HW1 5323   5.257  13.543   0.874
 1142SOL    HW2 5324   5.379  13.633   0.862
 1143SOL     OW 5325   7.913  12.120  10.194
 1143SOL    HW1 5326   7.933  12.213  10.198
 1143SOL    HW2 5327   7.873  12.108  10.108
 1144SOL     OW 5328   3.130  14.209   5.697
 1144SOL    HW1 5329   3.093  14.223   5.610
 1144SOL    HW2 5330   3.056  14.219   5.757
 1145SOL     OW 5331   0.208   5.041   2.910
 1145SOL    HW1 5332   0.218   5.136   2.902
 1145SOL    HW2 5333   0.259   5.017   2.987
 1146SOL     OW 5334   1.372  13.555   8.827
 1146SOL    HW1 5335   1.283  13.589   8.837
 1146SOL    HW2 5336   1.369  13.468   8.868
 1147SOL     OW 5337  10.900  13.075   2.034
 1147SOL    HW1 5338  10.939  13.033   2.111
 1147SOL    HW2 5339  10.911  13.169   2.050
 1148SOL     OW 5340  10.471   7.662   9.679
 1148SOL    HW1 5341  10.399   7.725   9.683
 1148SOL    HW2 5342  10.430   7.577   9.693
 1149SOL     OW 5343   7.010   5.902   4.717
 1149SOL    HW1 5344   7.034   5.850   4.793
 1149SOL    HW2 5345   6.927   5.864   4.688
 1150SOL     OW 5346   3.369   6.858   5.242
 1150SOL    HW1 5347   3.400   6.789   5.300
 1150SOL    HW2 5348   3.274   6.854   5.248
 1151SOL     OW 5349  13.787   8.163   7.717
 1151SOL    HW1 5350  13.733   8.093   7.681
 1151SOL    HW2 5351  13.727   8.237   7.726
 1152SOL     OW 5352  14.847  14.431   5.348
 1152SOL    HW1 5353  14.754  14.453   5.342
 1152SOL    HW2 5354  14.849  14.345   5.390
 1153SOL     OW 5355  13.465  10.164   3.019
 1153SOL    HW1 5356  13.542  10.206   2.980
 1153SOL    HW2 5357  13.495  10.075   3.039
 1154SOL     OW 5358  12.654   6.973   9.230
 1154SOL    HW1 5359  12.587   6.905   9.224
 1154SOL    HW2 5360  12.737   6.925   9.239
 1155SOL     OW 5361   2.949   6.736   6.482
 1155SOL    HW1 5362   3.025   6.680   6.471
 1155SOL    HW2 5363   2.983   6.825   6.476
 1156SOL     OW 5364   2.697   1.799   9.141
 1156SOL    HW1 5365   2.755   1.738   9.185
 1156SOL    HW2 5366   2.618   1.802   9.196
 1157SOL     OW 5367   5.736   1.750  13.348
 1157SOL    HW1 5368   5.663   1.747  13.286
 1157SOL    HW2 5369   5.809   1.709  13.301
 1158SOL     OW 5370   3.943  13.170  13.743
 1158SOL    HW1 5371   3.934  13.078  13.718
 1158SOL    HW2 5372   4.037  13.188  13.737
 1159SOL     OW 5373   8.086   4.651   4.342
 1159SOL    HW1 5374   8.056   4.700   4.418
 1159SOL    HW2 5375   8.098   4.561   4.373
 1160SOL     OW 5376   0.000  11.762  10.697
 1160SOL    HW1 5377  14.847  11.695  10.761
 1160SOL    HW2 5378  14.796  11.769  10.639
 1161SOL     OW 5379  13.008   8.952   8.920
 1161SOL    HW1 5380  12.998   8.858   8.938
 1161SOL    HW2 5381  12.932   8.975   8.868
 1162SOL     OW 5382  11.482   8.895   8.577
 1162SOL    HW1 5383  11.468   8.959   8.648
 1162SOL    HW2 5384  11.430   8.820   8.603
 1163SOL     OW 5385   7.481   8.202   5.189
 1163SOL    HW1 5386   7.526   8.240   5.264
 1163SOL    HW2 5387   7.519   8.247   5.113
 1164SOL     OW 5388   6.307   2.550  11.984
 1164SOL    HW1 5389   6.386   2.507  12.017
 1164SOL    HW2 5390   6.236   2.513  12.036
 1165SOL     OW 5391   2.488   8.363   6.908
 1165SOL    HW1 5392   2.421   8.431   6.907
 1165SOL    HW2 5393   2.460   8.302   6.976
 1166SOL     OW 5394   5.452   9.988   5.798
 1166SOL    HW1 5395   5.512   9.997   5.872
 1166SOL    HW2 5396   5.383  10.052   5.814
 1167SOL     OW 5397   0.494  10.288   5.830
 1167SOL    HW1 5398   0.418  10.278   5.773
 1167SOL    HW2 5399   0.547  10.355   5.787
 1168SOL     OW 5400  12.551  10.903   7.797
 1168SOL    HW1 5401  12.615  10.956   7.748
 1168SOL    HW2 5402  12.563  10.814   7.763
 1169SOL     OW 5403  14.361  12.839   2.615
 1169SOL    HW1 5404  14.427  12.877   2.556
 1169SOL    HW2 5405  14.378  12.745   2.613
 1170SOL     OW 5406   0.266   0.703   6.147
 1170SOL    HW1 5407   0.346   0.746   6.116
 1170SOL    HW2 5408   0.292   0.614   6.167
 1171SOL     OW 5409   4.559   9.926  11.174
 1171SOL    HW1 5410   4.555   9.845  11.124
 1171SOL    HW2 5411   4.571   9.994  11.108
 1172SOL     OW 5412   8.547   0.295  11.295
 1172SOL    HW1 5413   8.573   0.266  11.207
 1172SOL    HW2 5414   8.498   0.221  11.330
 1173SOL     OW 5415   0.479  14.323   6.833
 1173SOL    HW1 5416   0.564  14.280   6.825
 1173SOL    HW2 5417   0.493  14.411   6.799
 1174SOL     OW 5418   3.222   5.328   1.708
 1174SOL    HW1 5419   3.229   5.414   1.666
 1174SOL    HW2 5420   3.214   5.267   1.635
 1175SOL     OW 5421   1.289   7.564   7.199
 1175SOL    HW1 5422   1.270   7.497   7.134
 1175SOL    HW2 5423   1.230   7.544   7.272
 1176SOL     OW 5424  11.430   5.576   2.268
 1176SOL    HW1 5425  11.352   5.620   2.235
 1176SOL    HW2 5426  11.499   5.600   2.206
 1177SOL     OW 5427   5.272   3.120  11.368
 1177SOL    HW1 5428   5.185   3.101  11.333
 1177SOL    HW2 5429   5.260   3.201  11.418
 1178SOL     OW 5430   5.471  11.103  14.346
 1178SOL    HW1 5431   5.559  11.084  14.378
 1178SOL    HW2 5432   5.413  11.063  14.411
 1179SOL     OW 5433   9.574  13.940   3.558
 1179SOL    HW1 5434   9.508  13.933   3.488
 1179SOL    HW2 5435   9.524  13.969   3.634
 1180SOL     OW 5436  14.069   5.848   7.242
 1180SOL    HW1 5437  13.979   5.879   7.235
 1180SOL    HW2 5438  14.076   5.779   7.177
 1181SOL     OW 5439   8.558   9.138   8.240
 1181SOL    HW1 5440   8.599   9.055   8.263
 1181SOL    HW2 5441   8.546   9.183   8.324
 1182SOL     OW 5442   2.279   0.885  11.955
 1182SOL    HW1 5443   2.294   0.831  12.033
 1182SOL    HW2 5444   2.277   0.822  11.882
 1183SOL     OW 5445   2.304   3.140   0.619
 1183SOL    HW1 5446   2.264   3.053   0.612
 1183SOL    HW2 5447   2.395   3.123   0.644
 1184SOL     OW 5448  14.102   0.729   6.005
 1184SOL    HW1 5449  14.100   0.825   6.013
 1184SOL    HW2 5450  14.047   0.711   5.929
 1185SOL     OW 5451   7.643   1.739   1.370
 1185SOL    HW1 5452   7.653   1.703   1.282
 1185SOL    HW2 5453   7.619   1.663   1.424
 1186SOL     OW 5454  13.135   2.380   6.187
 1186SOL    HW1 5455  13.089   2.296   6.180
 1186SOL    HW2 5456  13.205   2.375   6.122
 1187SOL     OW 5457  10.679   4.961   9.873
 1187SOL    HW1 5458  10.740   4.962   9.946
 1187SOL    HW2 5459  10.660   5.054   9.856
 1188SOL     OW 5460   6.532   8.872  10.874
 1188SOL    HW1 5461   6.519   8.963  10.899
 1188SOL    HW2 5462   6.567   8.830  10.953
 1189SOL     OW 5463  13.255  12.833   5.112
 1189SOL    HW1 5464  13.255  12.774   5.036
 1189SOL    HW2 5465  13.232  12.778   5.186
 1190SOL     OW 5466   0.915   6.511   4.831
 1190SOL    HW1 5467   0.823   6.487   4.832
 1190SOL    HW2 5468   0.915   6.607   4.834
 1191SOL     OW 5469   1.032  13.262  10.934
 1191SOL    HW1 5470   1.002  13.345  10.970
 1191SOL    HW2 5471   1.127  13.267  10.936
 1192SOL     OW 5472  12.158  12.805  11.318
 1192SOL    HW1 5473  12.112  12.884  11.346
 1192SOL    HW2 5474  12.181  12.822  11.227
 1193SOL     OW 5475   0.310  12.432   7.752
 1193SOL    HW1 5476   0.224  12.390   7.741
 1193SOL    HW2 5477   0.358  12.410   7.672
 1194SOL     OW 5478   4.994  14.209  10.444
 1194SOL    HW1 5479   4.914  14.159  10.431
 1194SOL    HW2 5480   4.963  14.299  10.460
 1195SOL     OW 5481   0.966   7.965  13.586
 1195SOL    HW1 5482   1.045   8.017  13.571
 1195SOL    HW2 5483   0.901   8.003  13.528
 1196SOL     OW 5484  11.434   9.975  14.410
 1196SOL    HW1 5485  11.446  10.046  14.348
 1196SOL    HW2 5486  11.511   9.919  14.399
 1197SOL     OW 5487   4.425   6.444   5.865
 1197SOL    HW1 5488   4.475   6.501   5.807
 1197SOL    HW2 5489   4.483   6.369   5.882
 1198SOL     OW 5490  12.937  10.360   1.880
 1198SOL    HW1 5491  13.023  10.322   1.897
 1198SOL    HW2 5492  12.933  10.438   1.936
 1199SOL     OW 5493   7.367   4.937   3.619
 1199SOL    HW1 5494   7.297   5.003   3.617
 1199SOL    HW2 5495   7.371   4.909   3.710
 1200SOL     OW 5496   4.181   8.770  13.872
 1200SOL    HW1 5497   4.173   8.821  13.792
 1200SOL    HW2 5498   4.159   8.831  13.942
 1201SOL     OW 5499   5.918   9.081   4.766
 1201SOL    HW1 5500   5.922   9.009   4.702
 1201SOL    HW2 5501   5.994   9.066   4.823
 1202SOL     OW 5502   1.610  14.705   8.782
 1202SOL    HW1 5503   1.687  14.692   8.836
 1202SOL    HW2 5504   1.545  14.744   8.840
 1203SOL     OW 5505   4.471   3.704   9.766
 1203SOL    HW1 5506   4.399   3.765   9.752
 1203SOL    HW2 5507   4.435   3.619   9.741
 1204SOL     OW 5508   6.091  10.656   8.150
 1204SOL    HW1 5509   6.184  10.665   8.171
 1204SOL    HW2 5510   6.047  10.670   8.233
 1205SOL     OW 5511   9.082   9.324   9.232
 1205SOL    HW1 5512   8.996   9.283   9.236
 1205SOL    HW2 5513   9.110   9.312   9.141
 1206SOL     OW 5514   7.480  12.022   2.985
 1206SOL    HW1 5515   7.468  11.934   3.019
 1206SOL    HW2 5516   7.551  12.015   2.923
 1207SOL     OW 5517  11.369  14.250  13.801
 1207SOL    HW1 5518  11.306  14.259  13.729
 1207SOL    HW2 5519  11.315  14.239  13.879
 1208SOL     OW 5520  10.101   8.434   4.622
 1208SOL    HW1 5521  10.187   8.477   4.626
 1208SOL    HW2 5522  10.096   8.383   4.703
 1209SOL     OW 5523   7.937   5.113  13.947
 1209SOL    HW1 5524   7.946   5.072  14.033
 1209SOL    HW2 5525   8.028   5.127  13.918
 1210SOL     OW 5526   7.632   2.431  12.705
 1210SOL    HW1 5527   7.606   2.358  12.648
 1210SOL    HW2 5528   7.642   2.505  12.645
 1211SOL     OW 5529   7.626   1.377   0.896
 1211SOL    HW1 5530   7.619   1.365   0.991
 1211SOL    HW2 5531   7.704   1.327   0.871
 1212SOL     OW 5532   7.190   4.250   7.101
 1212SOL    HW1 5533   7.218   4.207   7.020
 1212SOL    HW2 5534   7.228   4.338   7.096
 1213SOL     OW 5535   2.554   9.036   4.424
 1213SOL    HW1 5536   2.535   8.962   4.366
 1213SOL    HW2 5537   2.577   9.108   4.365
 1214SOL     OW 5538   4.404   2.884   5.453
 1214SOL    HW1 5539   4.395   2.927   5.368
 1214SOL    HW2 5540   4.455   2.805   5.435
 1215SOL     OW 5541  14.169  12.278   4.399
 1215SOL    HW1 5542  14.074  12.283   4.411
 1215SOL    HW2 5543  14.195  12.195   4.438
 1216SOL     OW 5544  13.216   1.340   7.513
 1216SOL    HW1 5545  13.133   1.388   7.515
 1216SOL    HW2 5546  13.249   1.355   7.424
 1217SOL     OW 5547  14.285   0.785   4.144
 1217SOL    HW1 5548  14.211   0.796   4.204
 1217SOL    HW2 5549  14.355   0.750   4.198
 1218SOL     OW 5550   9.497   4.356   1.813
 1218SOL    HW1 5551   9.505   4.331   1.905
 1218SOL    HW2 5552   9.571   4.313   1.771
 1219SOL     OW 5553   6.816  12.631   1.143
 1219SOL    HW1 5554   6.872  12.650   1.218
 1219SOL    HW2 5555   6.794  12.717   1.107
 1220SOL     OW 5556   5.174   6.627  11.265
 1220SOL    HW1 5557   5.257   6.628  11.313
 1220SOL    HW2 5558   5.112   6.671  11.323
 1221SOL     OW 5559   7.234   9.036  14.766
 1221SOL    HW1 5560   7.270   8.963  14.817
 1221SOL    HW2 5561   7.306   9.062  14.709
 1222SOL     OW 5562   4.178   0.500   5.324
 1222SOL    HW1 5563   4.226   0.582   5.316
 1222SOL    HW2 5564   4.231   0.436   5.275
 1223SOL     OW 5565   2.244   2.322   5.561
 1223SOL    HW1 5566   2.188   2.400   5.563
 1223SOL    HW2 5567   2.266   2.307   5.653
 1224SOL     OW 5568   7.102   2.679   4.159
 1224SOL    HW1 5569   7.037   2.664   4.227
 1224SOL    HW2 5570   7.098   2.773   4.141
 1225SOL     OW 5571   5.585  13.649   1.274
 1225SOL    HW1 5572   5.573  13.739   1.244
 1225SOL    HW2 5573   5.538  13.595   1.211
 1226SOL     OW 5574  10.953  13.761   5.352
 1226SOL    HW1 5575  10.914  13.801   5.429
 1226SOL    HW2 5576  11.015  13.826   5.319
 1227SOL     OW 5577   7.781   7.870   2.874
 1227SOL    HW1 5578   7.705   7.894   2.928
 1227SOL    HW2 5579   7.855   7.912   2.919
 1228SOL     OW 5580   9.852  10.098   6.527
 1228SOL    HW1 5581   9.873  10.048   6.449
 1228SOL    HW2 5582   9.916  10.070   6.592
 1229SOL     OW 5583  11.873   6.432   3.489
 1229SOL    HW1 5584  11.963   6.406   3.467
 1229SOL    HW2 5585  11.818   6.380   3.431
 1230SOL     OW 5586   3.890  11.258  12.791
 1230SOL    HW1 5587   3.794  11.266  12.788
 1230SOL    HW2 5588   3.918  11.327  12.852
 1231SOL     OW 5589   1.308   9.291   7.936
 1231SOL    HW1 5590   1.274   9.343   8.009
 1231SOL    HW2 5591   1.277   9.336   7.858
 1232SOL     OW 5592  12.807   8.274   4.668
 1232SOL    HW1 5593  12.837   8.183   4.673
 1232SOL    HW2 5594  12.885   8.324   4.645
 1233SOL     OW 5595   8.201  14.644   4.866
 1233SOL    HW1 5596   8.215  14.733   4.897
 1233SOL    HW2 5597   8.124  14.613   4.914
 1234SOL     OW 5598   7.692   3.697   9.945
 1234SOL    HW1 5599   7.607   3.727   9.976
 1234SOL    HW2 5600   7.754   3.721  10.014
 1235SOL     OW 5601   0.626  11.912   8.276
 1235SOL    HW1 5602   0.595  11.919   8.367
 1235SOL    HW2 5603   0.557  11.954   8.225
 1236SOL     OW 5604   0.014  12.798  14.098
 1236SOL    HW1 5605   0.005  12.819  14.006
 1236SOL    HW2 5606   0.093  12.843  14.126
 1237SOL     OW 5607   0.432   2.318  14.376
 1237SOL    HW1 5608   0.493   2.249  14.353
 1237SOL    HW2 5609   0.352   2.272  14.401
 1238SOL     OW 5610   7.701   7.855   4.805
 1238SOL    HW1 5611   7.692   7.928   4.866
 1238SOL    HW2 5612   7.735   7.895   4.725
 1239SOL     OW 5613   2.229  12.297  10.616
 1239SOL    HW1 5614   2.197  12.337  10.535
 1239SOL    HW2 5615   2.278  12.367  10.659
 1240SOL     OW 5616   6.359   8.454  11.260
 1240SOL    HW1 5617   6.349   8.495  11.175
 1240SOL    HW2 5618   6.337   8.523  11.323
 1241SOL     OW 5619  14.481  13.421   2.805
 1241SOL    HW1 5620  14.400  13.469   2.789
 1241SOL    HW2 5621  14.488  13.360   2.731
 1242SOL     OW 5622   6.894   2.359   5.965
 1242SOL    HW1 5623   6.889   2.276   5.918
 1242SOL    HW2 5624   6.830   2.415   5.921
 1243SOL     OW 5625   1.312  11.453   0.338
 1243SOL    HW1 5626   1.285  11.439   0.428
 1243SOL    HW2 5627   1.234  11.433   0.286
 1244SOL     OW 5628   1.619   7.473   1.361
 1244SOL    HW1 5629   1.686   7.419   1.402
 1244SOL    HW2 5630   1.656   7.496   1.275
 1245SOL     OW 5631  10.473   9.481  14.622
 1245SOL    HW1 5632  10.478   9.488  14.717
 1245SOL    HW2 5633  10.391   9.525  14.599
 1246SOL     OW 5634   4.822   1.405  11.748
 1246SOL    HW1 5635   4.902   1.368  11.785
 1246SOL    HW2 5636   4.821   1.495  11.778
 1247SOL     OW 5637   0.123   7.456  11.214
 1247SOL    HW1 5638   0.044   7.484  11.260
 1247SOL    HW2 5639   0.168   7.400  11.277
 1248SOL     OW 5640   1.949   1.917   1.260
 1248SOL    HW1 5641   1.864   1.897   1.220
 1248SOL    HW2 5642   1.930   1.987   1.322
 1249SOL     OW 5643   8.666   0.785   9.316
 1249SOL    HW1 5644   8.574   0.766   9.338
 1249SOL    HW2 5645   8.666   0.877   9.290
 1250SOL     OW 5646   2.455   8.098  11.860
 1250SOL    HW1 5647   2.477   8.118  11.769
 1250SOL    HW2 5648   2.467   8.004  11.868
 1251SOL     OW 5649  10.263   9.109   7.066
 1251SOL    HW1 5650  10.209   9.034   7.041
 1251SOL    HW2 5651  10.353   9.076   7.059
 1252SOL     OW 5652   2.153  14.285   5.910
 1252SOL    HW1 5653   2.185  14.289   5.820
 1252SOL    HW2 5654   2.197  14.208   5.948
 1253SOL     OW 5655   3.522   8.966   9.674
 1253SOL    HW1 5656   3.552   8.891   9.623
 1253SOL    HW2 5657   3.427   8.970   9.658
 1254SOL     OW 5658  11.650   2.070   3.461
 1254SOL    HW1 5659  11.571   2.015   3.458
 1254SOL    HW2 5660  11.721   2.008   3.478
 1255SOL     OW 5661  11.052   0.107   2.120
 1255SOL    HW1 5662  10.990   0.039   2.147
 1255SOL    HW2 5663  11.011   0.189   2.148
 1256SOL     OW 5664   8.724  13.192  11.155
 1256SOL    HW1 5665   8.677  13.266  11.195
 1256SOL    HW2 5666   8.817  13.212  11.172
 1257SOL     OW 5667   5.092  14.864  13.011
 1257SOL    HW1 5668   5.007  14.822  12.998
 1257SOL    HW2 5669   5.140  14.845  12.930
 1258SOL     OW 5670   8.145  13.161   8.319
 1258SOL    HW1 5671   8.201  13.189   8.391
 1258SOL    HW2 5672   8.174  13.072   8.299
 1259SOL     OW 5673  10.218   2.663   6.323
 1259SOL    HW1 5674  10.163   2.725   6.370
 1259SOL    HW2 5675  10.166   2.638   6.247
 1260SOL     OW 5676  14.250   8.462  12.015
 1260SOL    HW1 5677  14.339   8.496  12.022
 1260SOL    HW2 5678  14.217   8.498  11.933
 1261SOL     OW 5679  12.938  13.114   9.649
 1261SOL    HW1 5680  12.846  13.126   9.626
 1261SOL    HW2 5681  12.978  13.199   9.633
 1262SOL     OW 5682  13.635   5.087  14.838
 1262SOL    HW1 5683  13.579   5.011  14.823
 1262SOL    HW2 5684  13.578   5.153   0.006
 1263SOL     OW 5685  14.235   5.071   8.689
 1263SOL    HW1 5686  14.279   4.996   8.730
 1263SOL    HW2 5687  14.256   5.145   8.746
 1264SOL     OW 5688  14.381   3.323  14.110
 1264SOL    HW1 5689  14.396   3.239  14.066
 1264SOL    HW2 5690  14.448   3.327  14.178
 1265SOL     OW 5691   9.632   6.479  12.343
 1265SOL    HW1 5692   9.564   6.532  12.300
 1265SOL    HW2 5693   9.633   6.398  12.292
 1266SOL     OW 5694   5.161  12.577   1.077
 1266SOL    HW1 5695   5.179  12.654   1.023
 1266SOL    HW2 5696   5.197  12.503   1.028
 1267SOL     OW 5697   3.750  13.433   7.469
 1267SOL    HW1 5698   3.778  13.342   7.457
 1267SOL    HW2 5699   3.655  13.428   7.470
 1268SOL     OW 5700   9.161   6.995   2.246
 1268SOL    HW1 5701   9.149   6.900   2.234
 1268SOL    HW2 5702   9.097   7.018   2.314
 1269SOL     OW 5703  11.245   7.515  12.729
 1269SOL    HW1 5704  11.321   7.538  12.676
 1269SOL    HW2 5705  11.274   7.530  12.819
 1270SOL     OW 5706  11.574   3.366   8.464
 1270SOL    HW1 5707  11.651   3.396   8.511
 1270SOL    HW2 5708  11.600   3.364   8.372
 1271SOL     OW 5709  12.123   6.959   4.549
 1271SOL    HW1 5710  12.115   7.005   4.633
 1271SOL    HW2 5711  12.076   6.877   4.563
 1272SOL     OW 5712   4.002   2.542   5.871
 1272SOL    HW1 5713   3.921   2.511   5.910
 1272SOL    HW2 5714   4.024   2.475   5.806
 1273SOL     OW 5715  12.393  13.563   9.746
 1273SOL    HW1 5716  12.418  13.487   9.798
 1273SOL    HW2 5717  12.372  13.631   9.811
 1274SOL     OW 5718   9.851  12.670  13.132
 1274SOL    HW1 5719   9.919  12.681  13.065
 1274SOL    HW2 5720   9.799  12.596  13.100
 1275SOL     OW 5721   5.665   4.323   1.802
 1275SOL    HW1 5722   5.698   4.370   1.726
 1275SOL    HW2 5723   5.742   4.308   1.857
 1276SOL     OW 5724  13.329   7.952  10.601
 1276SOL    HW1 5725  13.293   7.899  10.530
 1276SOL    HW2 5726  13.291   7.915  10.681
 1277SOL     OW 5727  14.308  13.659   0.380
 1277SOL    HW1 5728  14.350  13.742   0.354
 1277SOL    HW2 5729  14.373  13.592   0.361
 1278SOL     OW 5730   0.755  10.091   5.636
 1278SOL    HW1 5731   0.821  10.154   5.665
 1278SOL    HW2 5732   0.757  10.022   5.703
 1279SOL     OW 5733   2.972   6.530   7.313
 1279SOL    HW1 5734   2.950   6.583   7.390
 1279SOL    HW2 5735   2.955   6.440   7.342
 1280SOL     OW 5736   9.439   6.408   7.447
 1280SOL    HW1 5737   9.441   6.407   7.352
 1280SOL    HW2 5738   9.359   6.455   7.469
 1281SOL     OW 5739  12.057   4.523   3.408
 1281SOL    HW1 5740  12.006   4.467   3.466
 1281SOL    HW2 5741  12.125   4.466   3.373
 1282SOL     OW 5742   7.605   0.939  12.716
 1282SOL    HW1 5743   7.594   1.030  12.688
 1282SOL    HW2 5744   7.584   0.887  12.638
 1283SOL     OW 5745  14.822  12.237  10.334
 1283SOL    HW1 5746   0.026  12.180  10.348
 1283SOL    HW2 5747  14.747  12.177  10.336
 1284SOL     OW 5748   0.167   5.357   1.781
 1284SOL    HW1 5749   0.153   5.268   1.812
 1284SOL    HW2 5750   0.128   5.358   1.693
 1285SOL     OW 5751  10.581   6.460  11.510
 1285SOL    HW1 5752  10.564   6.450  11.416
 1285SOL    HW2 5753  10.676   6.466  11.516
 1286SOL     OW 5754  12.308   1.053   3.806
 1286SOL    HW1 5755  12.320   1.145   3.830
 1286SOL    HW2 5756  12.395   1.014   3.817
 1287SOL     OW 5757  14.740   4.545   1.910
 1287SOL    HW1 5758  14.807   4.527   1.976
 1287SOL    HW2 5759  14.657   4.531   1.955
 1288SOL     OW 5760   4.759   4.404   8.884
 1288SOL    HW1 5761   4.755   4.342   8.957
 1288SOL    HW2 5762   4.744   4.489   8.925
 1289SOL     OW 5763  12.022  10.971  13.076
 1289SOL    HW1 5764  11.958  10.902  13.060
 1289SOL    HW2 5765  12.026  10.978  13.171
 1290SOL     OW 5766   5.422   9.599   3.760
 1290SOL    HW1 5767   5.335   9.636   3.778
 1290SOL    HW2 5768   5.480   9.644   3.821
 1291SOL     OW 5769  10.323   5.684   8.619
 1291SOL    HW1 5770  10.322   5.778   8.635
 1291SOL    HW2 5771  10.326   5.676   8.524
 1292SOL     OW 5772  14.118  12.576   4.655
 1292SOL    HW1 5773  14.080  12.584   4.568
 1292SOL    HW2 5774  14.209  12.552   4.640
 1293SOL     OW 5775   6.489   5.913  13.566
 1293SOL    HW1 5776   6.495   5.984  13.630
 1293SOL    HW2 5777   6.395   5.894  13.560
 1294SOL     OW 5778  11.692   4.795   4.857
 1294SOL    HW1 5779  11.692   4.828   4.947
 1294SOL    HW2 5780  11.736   4.710   4.863
 1295SOL     OW 5781   6.249   7.395  10.512
 1295SOL    HW1 5782   6.284   7.376  10.600
 1295SOL    HW2 5783   6.168   7.444  10.529
 1296SOL     OW 5784   3.445  12.031   2.393
 1296SOL    HW1 5785   3.378  12.055   2.457
 1296SOL    HW2 5786   3.395  11.992   2.321
 1297SOL     OW 5787  13.212   1.156   2.938
 1297SOL    HW1 5788  13.169   1.235   2.905
 1297SOL    HW2 5789  13.269   1.187   3.008
 1298SOL     OW 5790  10.479   4.364   1.842
 1298SOL    HW1 5791  10.567   4.402   1.843
 1298SOL    HW2 5792  10.423   4.434   1.809
 1299SOL     OW 5793  11.589  13.437   7.606
 1299SOL    HW1 5794  11.619  13.401   7.522
 1299SOL    HW2 5795  11.625  13.378   7.672
 1300SOL     OW 5796   4.422   7.683   4.749
 1300SOL    HW1 5797   4.415   7.775   4.724
 1300SOL    HW2 5798   4.407   7.635   4.668
 1301SOL     OW 5799   3.906   3.156   2.123
 1301SOL    HW1 5800   3.920   3.127   2.213
 1301SOL    HW2 5801   3.881   3.248   2.131
 1302SOL     OW 5802   4.174   2.780   8.496
 1302SOL    HW1 5803   4.260   2.742   8.515
 1302SOL    HW2 5804   4.123   2.767   8.575
 1303SOL     OW 5805  13.167   0.323   6.223
 1303SOL    HW1 5806  13.249   0.368   6.244
 1303SOL    HW2 5807  13.185   0.231   6.243
 1304SOL     OW 5808   2.597  12.460   0.102
 1304SOL    HW1 5809   2.580  12.554   0.104
 1304SOL    HW2 5810   2.552  12.425   0.179
 1305SOL     OW 5811  14.748   5.031   2.216
 1305SOL    HW1 5812  14.689   4.968   2.175
 1305SOL    HW2 5813  14.690   5.102   2.246
 1306SOL     OW 5814   2.483   0.329  12.186
 1306SOL    HW1 5815   2.419   0.314  12.116
 1306SOL    HW2 5816   2.516   0.242  12.207
 1307SOL     OW 5817   3.876   8.867   8.588
 1307SOL    HW1 5818   3.899   8.915   8.509
 1307SOL    HW2 5819   3.791   8.827   8.569
 1308SOL     OW 5820   8.211   2.088   7.079
 1308SOL    HW1 5821   8.272   2.044   7.138
 1308SOL    HW2 5822   8.153   2.018   7.047
 1309SOL     OW 5823   1.229   7.169   6.067
 1309SOL    HW1 5824   1.193   7.257   6.055
 1309SOL    HW2 5825   1.268   7.148   5.983
 1310SOL     OW 5826   3.283  10.282   9.068
 1310SOL    HW1 5827   3.283  10.249   9.158
 1310SOL    HW2 5828   3.372  10.265   9.036
 1311SOL     OW 5829   1.257   4.193   3.059
 1311SOL    HW1 5830   1.177   4.148   3.087
 1311SOL    HW2 5831   1.238   4.286   3.074
 1312SOL     OW 5832   9.140   9.526   8.300
 1312SOL    HW1 5833   9.122   9.575   8.380
 1312SOL    HW2 5834   9.124   9.435   8.323
 1313SOL     OW 5835   0.501   7.101   7.920
 1313SOL    HW1 5836   0.568   7.170   7.921
 1313SOL    HW2 5837   0.465   7.103   7.832
 1314SOL     OW 5838  12.043  13.824   8.416
 1314SOL    HW1 5839  12.032  13.773   8.496
 1314SOL    HW2 5840  12.113  13.886   8.437
 1315SOL     OW 5841   3.317   2.871  12.479
 1315SOL    HW1 5842   3.269   2.895  12.400
 1315SOL    HW2 5843   3.252   2.874  12.549
 1316SOL     OW 5844   9.146   8.623   0.721
 1316SOL    HW1 5845   9.082   8.554   0.739
 1316SOL    HW2 5846   9.094   8.701   0.703
 1317SOL     OW 5847   0.669   2.619  13.818
 1317SOL    HW1 5848   0.590   2.673  13.824
 1317SOL    HW2 5849   0.680   2.604  13.724
 1318SOL     OW 5850  12.594   6.999  13.749
 1318SOL    HW1 5851  12.591   6.904  13.748
 1318SOL    HW2 5852  12.591   7.024  13.656
 1319SOL     OW 5853  14.203  13.845   7.639
 1319SOL    HW1 5854  14.242  13.801   7.715
 1319SOL    HW2 5855  14.176  13.931   7.673
 1320SOL     OW 5856   2.877  13.829   1.176
 1320SOL    HW1 5857   2.812  13.818   1.107
 1320SOL    HW2 5858   2.863  13.918   1.209
 1321SOL     OW 5859   8.576   1.442  10.995
 1321SOL    HW1 5860   8.533   1.407  11.073
 1321SOL    HW2 5861   8.668   1.418  11.005
 1322SOL     OW 5862   6.254   0.135   6.408
 1322SOL    HW1 5863   6.279   0.143   6.501
 1322SOL    HW2 5864   6.159   0.131   6.410
 1323SOL     OW 5865  14.111  11.400  13.997
 1323SOL    HW1 5866  14.053  11.466  14.035
 1323SOL    HW2 5867  14.194  11.445  13.984
 1324SOL     OW 5868   2.690  12.583   4.059
 1324SOL    HW1 5869   2.778  12.604   4.028
 1324SOL    HW2 5870   2.633  12.644   4.013
 1325SOL     OW 5871  14.449   9.681   9.818
 1325SOL    HW1 5872  14.376   9.652   9.764
 1325SOL    HW2 5873  14.408   9.729   9.890
 1326SOL     OW 5874   6.853   7.742   3.082
 1326SOL    HW1 5875   6.874   7.834   3.097
 1326SOL    HW2 5876   6.844   7.705   3.170
 1327SOL     OW 5877   1.414  10.821   9.524
 1327SOL    HW1 5878   1.357  10.897   9.509
 1327SOL    HW2 5879   1.481  10.853   9.584
 1328SOL     OW 5880   3.972   6.181   6.981
 1328SOL    HW1 5881   4.036   6.236   7.026
 1328SOL    HW2 5882   4.019   6.100   6.963
 1329SOL     OW 5883   5.198   1.471   6.025
 1329SOL    HW1 5884   5.285   1.491   6.058
 1329SOL    HW2 5885   5.144   1.546   6.050
 1330SOL     OW 5886   0.085   3.542   5.969
 1330SOL    HW1 5887   0.106   3.457   6.007
 1330SOL    HW2 5888   0.042   3.590   6.040
 1331SOL     OW 5889   5.723  11.388   0.229
 1331SOL    HW1 5890   5.666  11.397   0.152
 1331SOL    HW2 5891   5.776  11.310   0.210
 1332SOL     OW 5892  10.276   8.881  11.477
 1332SOL    HW1 5893  10.323   8.934  11.412
 1332SOL    HW2 5894  10.207   8.837  11.427
 1333SOL     OW 5895   4.221   2.066  11.543
 1333SOL    HW1 5896   4.230   2.121  11.465
 1333SOL    HW2 5897   4.203   1.978  11.508
 1334SOL     OW 5898  13.906   8.954   9.799
 1334SOL    HW1 5899  13.958   8.952   9.718
 1334SOL    HW2 5900  13.956   8.899   9.860
 1335SOL     OW 5901   6.356   1.919   1.342
 1335SOL    HW1 5902   6.332   1.897   1.432
 1335SOL    HW2 5903   6.436   1.972   1.351
 1336SOL     OW 5904  13.352   0.771   3.685
 1336SOL    HW1 5905  13.360   0.700   3.622
 1336SOL    HW2 5906  13.266   0.810   3.668
 1337SOL     OW 5907   3.538  10.020  11.747
 1337SOL    HW1 5908   3.611   9.978  11.793
 1337SOL    HW2 5909   3.578  10.060  11.670
 1338SOL     OW 5910   8.891  14.650  12.259
 1338SOL    HW1 5911   8.963  14.592  12.232
 1338SOL    HW2 5912   8.821  14.631  12.197
 1339SOL     OW 5913   1.633   7.481   4.523
 1339SOL    HW1 5914   1.537   7.474   4.527
 1339SOL    HW2 5915   1.649   7.576   4.527
 1340SOL     OW 5916   1.719  13.541   4.323
 1340SOL    HW1 5917   1.740  13.518   4.413
 1340SOL    HW2 5918   1.763  13.475   4.269
 1341SOL     OW 5919  13.944   9.581   1.851
 1341SOL    HW1 5920  13.983   9.648   1.907
 1341SOL    HW2 5921  13.878   9.539   1.906
 1342SOL     OW 5922   7.095  13.791   5.802
 1342SOL    HW1 5923   7.090  13.821   5.893
 1342SOL    HW2 5924   7.187  13.773   5.787
 1343SOL     OW 5925  12.850   4.425   2.114
 1343SOL    HW1 5926  12.941   4.442   2.088
 1343SOL    HW2 5927  12.845   4.330   2.123
 1344SOL     OW 5928   4.202   6.569  14.495
 1344SOL    HW1 5929   4.259   6.562  14.571
 1344SOL    HW2 5930   4.253   6.534  14.423
 1345SOL     OW 5931   0.134   3.944  12.875
 1345SOL    HW1 5932   0.086   3.931  12.957
 1345SOL    HW2 5933   0.083   3.895  12.810
 1346SOL     OW 5934  12.683  12.144   2.691
 1346SOL    HW1 5935  12.684  12.238   2.711
 1346SOL    HW2 5936  12.600  12.131   2.646
 1347SOL     OW 5937   7.371   2.799   6.146
 1347SOL    HW1 5938   7.389   2.777   6.055
 1347SOL    HW2 5939   7.285   2.840   6.144
 1348SOL     OW 5940   9.681   2.749   1.004
 1348SOL    HW1 5941   9.630   2.668   1.013
 1348SOL    HW2 5942   9.772   2.720   0.999
 1349SOL     OW 5943  13.836   0.388   0.992
 1349SOL    HW1 5944  13.804   0.330   0.924
 1349SOL    HW2 5945  13.773   0.461   0.994
 1350SOL     OW 5946   9.566   5.151  11.663
 1350SOL    HW1 5947   9.569   5.246  11.654
 1350SOL    HW2 5948   9.480   5.126  11.631
 1351SOL     OW 5949   9.746  10.396   8.095
 1351SOL    HW1 5950   9.810  10.466   8.080
 1351SOL    HW2 5951   9.794  10.333   8.150
 1352SOL     OW 5952  11.378   5.160   6.156
 1352SOL    HW1 5953  11.345   5.114   6.233
 1352SOL    HW2 5954  11.354   5.251   6.170
 1353SOL     OW 5955   4.854  10.478   6.674
 1353SOL    HW1 5956   4.871  10.412   6.741
 1353SOL    HW2 5957   4.840  10.427   6.593
 1354SOL     OW 5958  13.878   8.205   0.973
 1354SOL    HW1 5959  13.783   8.197   0.985
 1354SOL    HW2 5960  13.915   8.149   1.040
 1355SOL     OW 5961   8.009   0.422  13.698
 1355SOL    HW1 5962   7.985   0.329  13.695
 1355SOL    HW2 5963   8.077   0.426  13.765
 1356SOL     OW 5964   2.611  10.006  12.986
 1356SOL    HW1 5965   2.645   9.917  12.983
 1356SOL    HW2 5966   2.517   9.996  12.970
 1357SOL     OW 5967   2.537   5.281   4.392
 1357SOL    HW1 5968   2.577   5.304   4.476
 1357SOL    HW2 5969   2.592   5.210   4.359
 1358SOL     OW 5970   9.921   3.481  10.726
 1358SOL    HW1 5971   9.969   3.466  10.807
 1358SOL    HW2 5972   9.984   3.462  10.657
 1359SOL     OW 5973   8.121   5.931   2.871
 1359SOL    HW1 5974   8.199   5.876   2.876
 1359SOL    HW2 5975   8.154   6.020   2.878
 1360SOL     OW 5976  13.899   8.183   8.645
 1360SOL    HW1 5977  13.833   8.117   8.622
 1360SOL    HW2 5978  13.948   8.196   8.564
 1361SOL     OW 5979   6.134  11.071  11.495
 1361SOL    HW1 5980   6.160  11.120  11.574
 1361SOL    HW2 5981   6.043  11.098  11.480
 1362SOL     OW 5982  14.740   2.639  12.974
 1362SOL    HW1 5983  14.647   2.653  12.954
 1362SOL    HW2 5984  14.777   2.606  12.892
 1363SOL     OW 5985   4.514  14.848  13.840
 1363SOL    HW1 5986   4.426  14.823  13.869
 1363SOL    HW2 5987   4.500   0.055  13.788
 1364SOL     OW 5988   7.360   9.477  10.003
 1364SOL    HW1 5989   7.267   9.481  10.025
 1364SOL    HW2 5990   7.366   9.514   9.915
 1365SOL     OW 5991  13.336  13.519   4.139
 1365SOL    HW1 5992  13.263  13.514   4.200
 1365SOL    HW2 5993  13.314  13.592   4.080
 1366SOL     OW 5994  12.307   0.757   9.248
 1366SOL    HW1 5995  12.312   0.693   9.177
 1366SOL    HW2 5996  12.264   0.710   9.320
 1367SOL     OW 5997  14.641   4.636   8.014
 1367SOL    HW1 5998  14.729   4.604   7.994
 1367SOL    HW2 5999  14.641   4.648   8.109
 1368SOL     OW 6000   9.582  12.699   4.556
 1368SOL    HW1 6001   9.545  12.730   4.473
 1368SOL    HW2 6002   9.539  12.615   4.572
 1369SOL     OW 6003   7.168   4.553  12.642
 1369SOL    HW1 6004   7.201   4.550  12.732
 1369SOL    HW2 6005   7.093   4.612  12.646
 1370SOL     OW 6006   5.301   0.010   0.714
 1370SOL    HW1 6007   5.388   0.047   0.725
 1370SOL    HW2 6008   5.312  14.789   0.732
 1371SOL     OW 6009   4.284   7.987   5.856
 1371SOL    HW1 6010   4.192   7.992   5.831
 1371SOL    HW2 6011   4.326   8.058   5.806
 1372SOL     OW 6012  10.775   2.603   5.118
 1372SOL    HW1 6013  10.793   2.619   5.210
 1372SOL    HW2 6014  10.766   2.508   5.111
 1373SOL     OW 6015   0.826   2.992   8.201
 1373SOL    HW1 6016   0.759   2.924   8.195
 1373SOL    HW2 6017   0.778   3.074   8.203
 1374SOL     OW 6018  12.604  11.770  12.218
 1374SOL    HW1 6019  12.640  11.741  12.303
 1374SOL    HW2 6020  12.512  11.746  12.222
 1375SOL     OW 6021   2.246  10.657  12.417
 1375SOL    HW1 6022   2.193  10.588  12.376
 1375SOL    HW2 6023   2.269  10.716  12.345
 1376SOL     OW 6024  10.282  12.418   5.862
 1376SOL    HW1 6025  10.281  12.511   5.842
 1376SOL    HW2 6026  10.197  12.386   5.832
 1377SOL     OW 6027  14.664   9.431   7.342
 1377SOL    HW1 6028  14.665   9.342   7.378
 1377SOL    HW2 6029  14.703   9.486   7.410
 1378SOL     OW 6030  12.193  13.269   2.193
 1378SOL    HW1 6031  12.275  13.315   2.214
 1378SOL    HW2 6032  12.185  13.278   2.098
 1379SOL     OW 6033   5.563   4.988   5.231
 1379SOL    HW1 6034   5.601   5.036   5.158
 1379SOL    HW2 6035   5.475   4.965   5.201
 1380SOL     OW 6036   1.664  13.549   0.390
 1380SOL    HW1 6037   1.655  13.522   0.482
 1380SOL    HW2 6038   1.665  13.466   0.341
 1381SOL     OW 6039   3.634   5.651   2.343
 1381SOL    HW1 6040   3.541   5.652   2.368
 1381SOL    HW2 6041   3.674   5.588   2.402
 1382SOL     OW 6042   5.600  11.863  13.945
 1382SOL    HW1 6043   5.642  11.837  14.027
 1382SOL    HW2 6044   5.593  11.958  13.951
 1383SOL     OW 6045   5.753   3.288   5.558
 1383SOL    HW1 6046   5.775   3.381   5.560
 1383SOL    HW2 6047   5.801   3.251   5.632
 1384SOL     OW 6048  11.188   3.975  11.911
 1384SOL    HW1 6049  11.233   4.046  11.865
 1384SOL    HW2 6050  11.257   3.931  11.961
 1385SOL     OW 6051   7.995   4.997   6.507
 1385SOL    HW1 6052   8.070   4.979   6.563
 1385SOL    HW2 6053   7.949   5.069   6.551
 1386SOL     OW 6054  12.358   4.908   0.561
 1386SOL    HW1 6055  12.289   4.970   0.539
 1386SOL    HW2 6056  12.394   4.881   0.477
 1387SOL     OW 6057   5.881   9.547   1.930
 1387SOL    HW1 6058   5.785   9.545   1.928
 1387SOL    HW2 6059   5.902   9.639   1.947
 1388SOL     OW 6060  12.032   0.939  13.603
 1388SOL    HW1 6061  12.063   0.896  13.524
 1388SOL    HW2 6062  11.957   0.991  13.575
 1389SOL     OW 6063  11.165   0.764   3.629
 1389SOL    HW1 6064  11.255   0.787   3.654
 1389SOL    HW2 6065  11.175   0.707   3.553
 1390SOL     OW 6066   1.705   7.847  14.687
 1390SOL    HW1 6067   1.799   7.868  14.691
 1390SOL    HW2 6068   1.682   7.819  14.775
 1391SOL     OW 6069  14.692   4.049   5.768
 1391SOL    HW1 6070  14.709   3.992   5.843
 1391SOL    HW2 6071  14.632   3.998   5.713
 1392SOL     OW 6072   7.147   2.855   0.735
 1392SOL    HW1 6073   7.090   2.871   0.660
 1392SOL    HW2 6074   7.230   2.896   0.711
 1393SOL     OW 6075  13.497  10.249   3.409
 1393SOL    HW1 6076  13.430  10.310   3.380
 1393SOL    HW2 6077  13.577  10.301   3.413
 1394SOL     OW 6078   1.797   9.361   4.097
 1394SOL    HW1 6079   1.838   9.414   4.029
 1394SOL    HW2 6080   1.820   9.406   4.179
 1395SOL     OW 6081   4.945   4.970   3.164
 1395SOL    HW1 6082   4.917   4.902   3.226
 1395SOL    HW2 6083   4.910   4.940   3.079
 1396SOL     OW 6084  14.797   7.941   4.554
 1396SOL    HW1 6085  14.835   7.906   4.474
 1396SOL    HW2 6086  14.855   8.013   4.579
 1397SOL     OW 6087   0.948  11.070  10.060
 1397SOL    HW1 6088   0.976  11.160  10.048
 1397SOL    HW2 6089   0.889  11.074  10.136
 1398SOL     OW 6090  12.855   5.925  12.223
 1398SOL    HW1 6091  12.941   5.905  12.262
 1398SOL    HW2 6092  12.793   5.876  12.277
 1399SOL     OW 6093   7.435   7.736  11.005
 1399SOL    HW1 6094   7.499   7.748  11.076
 1399SOL    HW2 6095   7.353   7.769  11.042
 1400SOL     OW 6096   6.901  11.651   6.156
 1400SOL    HW1 6097   6.864  11.586   6.215
 1400SOL    HW2 6098   6.833  11.718   6.147
 1401SOL     OW 6099   7.114   8.690   4.408
 1401SOL    HW1 6100   7.126   8.739   4.489
 1401SOL    HW2 6101   7.030   8.720   4.373
 1402SOL     OW 6102   1.471   7.317   7.495
 1402SOL    HW1 6103   1.399   7.261   7.525
 1402SOL    HW2 6104   1.550   7.275   7.527
 1403SOL     OW 6105  12.709   4.448  14.588
 1403SOL    HW1 6106  12.752   4.533  14.593
 1403SOL    HW2 6107  12.743   4.399  14.663
 1404SOL     OW 6108  14.600   6.174   4.605
 1404SOL    HW1 6109  14.667   6.231   4.567
 1404SOL    HW2 6110  14.517   6.221   4.590
 1405SOL     OW 6111  10.034   3.124   1.878
 1405SOL    HW1 6112  10.106   3.188   1.882
 1405SOL    HW2 6113   9.960   3.173   1.842
 1406SOL     OW 6114   1.040   8.644   5.864
 1406SOL    HW1 6115   1.025   8.698   5.787
 1406SOL    HW2 6116   0.955   8.641   5.908
 1407SOL     OW 6117   5.646   0.249   6.176
 1407SOL    HW1 6118   5.690   0.181   6.127
 1407SOL    HW2 6119   5.716   0.294   6.224
 1408SOL     OW 6120  10.549   2.493  14.758
 1408SOL    HW1 6121  10.485   2.554  14.794
 1408SOL    HW2 6122  10.509   2.460  14.678
 1409SOL     OW 6123   9.579   7.501   4.279
 1409SOL    HW1 6124   9.523   7.436   4.322
 1409SOL    HW2 6125   9.656   7.452   4.252
 1410SOL     OW 6126  13.612   3.898   7.829
 1410SOL    HW1 6127  13.700   3.870   7.803
 1410SOL    HW2 6128  13.553   3.840   7.781
 1411SOL     OW 6129   2.020   3.757   9.348
 1411SOL    HW1 6130   1.935   3.728   9.314
 1411SOL    HW2 6131   2.034   3.703   9.425
 1412SOL     OW 6132  14.090   8.260  13.201
 1412SOL    HW1 6133  14.122   8.187  13.148
 1412SOL    HW2 6134  13.995   8.253  13.198
 1413SOL     OW 6135  12.953  13.984   5.518
 1413SOL    HW1 6136  12.998  13.907   5.483
 1413SOL    HW2 6137  12.862  13.974   5.488
 1414SOL     OW 6138   4.387   4.902  11.686
 1414SOL    HW1 6139   4.440   4.940  11.756
 1414SOL    HW2 6140   4.449   4.879  11.617
 1415SOL     OW 6141  13.126   8.263   3.349
 1415SOL    HW1 6142  13.155   8.207   3.276
 1415SOL    HW2 6143  13.206   8.285   3.396
 1416SOL     OW 6144   9.391  13.132   6.818
 1416SOL    HW1 6145   9.451  13.097   6.752
 1416SOL    HW2 6146   9.369  13.220   6.787
 1417SOL     OW 6147   6.309  14.238   3.577
 1417SOL    HW1 6148   6.256  14.160   3.562
 1417SOL    HW2 6149   6.319  14.277   3.491
 1418SOL     OW 6150   7.896  14.484   2.400
 1418SOL    HW1 6151   7.846  14.445   2.327
 1418SOL    HW2 6152   7.892  14.418   2.469
 1419SOL     OW 6153   5.341  11.323   3.067
 1419SOL    HW1 6154   5.293  11.252   3.025
 1419SOL    HW2 6155   5.325  11.399   3.012
 1420SOL     OW 6156   3.495  13.359   7.472
 1420SOL    HW1 6157   3.406  13.377   7.504
 1420SOL    HW2 6158   3.525  13.284   7.524
 1421SOL     OW 6159   2.327   4.515   9.904
 1421SOL    HW1 6160   2.285   4.595   9.937
 1421SOL    HW2 6161   2.332   4.457   9.980
 1422SOL     OW 6162  12.212  14.810   7.117
 1422SOL    HW1 6163  12.179  14.721   7.106
 1422SOL    HW2 6164  12.224  14.842   7.027
 1423SOL     OW 6165  11.734   7.412   7.676
 1423SOL    HW1 6166  11.785   7.480   7.720
 1423SOL    HW2 6167  11.701   7.455   7.597
 1424SOL     OW 6168   2.144   6.453   1.645
 1424SOL    HW1 6169   2.212   6.386   1.653
 1424SOL    HW2 6170   2.140   6.493   1.732
 1425SOL     OW 6171   1.864   3.152   5.681
 1425SOL    HW1 6172   1.855   3.093   5.756
 1425SOL    HW2 6173   1.957   3.147   5.659
 1426SOL     OW 6174   9.677  10.302   7.497
 1426SOL    HW1 6175   9.735  10.334   7.567
 1426SOL    HW2 6176   9.595  10.282   7.541
 1427SOL     OW 6177   1.974   3.934  12.949
 1427SOL    HW1 6178   1.950   3.855  12.998
 1427SOL    HW2 6179   1.948   4.006  13.005
 1428SOL     OW 6180   6.463   7.338   0.704
 1428SOL    HW1 6181   6.443   7.244   0.707
 1428SOL    HW2 6182   6.503   7.351   0.618
 1429SOL     OW 6183   4.621   4.883   9.529
 1429SOL    HW1 6184   4.677   4.948   9.571
 1429SOL    HW2 6185   4.597   4.822   9.600
 1430SOL     OW 6186   0.005   5.274  13.811
 1430SOL    HW1 6187  14.784   5.261  13.791
 1430SOL    HW2 6188   0.035   5.339  13.746
 1431SOL     OW 6189   3.840   9.719   9.802
 1431SOL    HW1 6190   3.833   9.624   9.800
 1431SOL    HW2 6191   3.834   9.742   9.895
 1432SOL     OW 6192  13.681  12.275  12.824
 1432SOL    HW1 6193  13.644  12.220  12.893
 1432SOL    HW2 6194  13.689  12.216  12.749
 1433SOL     OW 6195   4.885   1.583   3.523
 1433SOL    HW1 6196   4.903   1.590   3.617
 1433SOL    HW2 6197   4.898   1.672   3.489
 1434SOL     OW 6198   5.721   8.840  12.548
 1434SOL    HW1 6199   5.691   8.884  12.627
 1434SOL    HW2 6200   5.816   8.850  12.549
 1435SOL     OW 6201  12.861   9.934   8.025
 1435SOL    HW1 6202  12.807  10.001   8.067
 1435SOL    HW2 6203  12.802   9.861   8.009
 1436SOL     OW 6204   9.154   4.082   6.963
 1436SOL    HW1 6205   9.192   3.998   6.940
 1436SOL    HW2 6206   9.103   4.108   6.887
 1437SOL     OW 6207   8.432   1.640   7.325
 1437SOL    HW1 6208   8.522   1.653   7.295
 1437SOL    HW2 6209   8.441   1.618   7.417
 1438SOL     OW 6210  12.932  13.693   7.504
 1438SOL    HW1 6211  12.890  13.628   7.447
 1438SOL    HW2 6212  13.023  13.662   7.512
 1439SOL     OW 6213  12.501   6.486   1.717
 1439SOL    HW1 6214  12.573   6.546   1.737
 1439SOL    HW2 6215  12.543   6.413   1.671
 1440SOL     OW 6216   7.064  10.739   3.189
 1440SOL    HW1 6217   6.983  10.789   3.182
 1440SOL    HW2 6218   7.132  10.800   3.160
 1441SOL     OW 6219  12.374   1.054  14.397
 1441SOL    HW1 6220  12.300   1.110  14.374
 1441SOL    HW2 6221  12.430   1.110  14.451
 1442SOL     OW 6222   3.084  13.900  14.219
 1442SOL    HW1 6223   3.069  13.967  14.153
 1442SOL    HW2 6224   3.173  13.869  14.202
 1443SOL     OW 6225   9.289   9.645  11.632
 1443SOL    HW1 6226   9.224   9.583  11.599
 1443SOL    HW2 6227   9.336   9.674  11.554
 1444SOL     OW 6228   3.855   2.169   2.457
 1444SOL    HW1 6229   3.925   2.167   2.392
 1444SOL    HW2 6230   3.875   2.245   2.511
 1445SOL     OW 6231   3.679   1.199   4.353
 1445SOL    HW1 6232   3.659   1.284   4.314
 1445SOL    HW2 6233   3.593   1.159   4.368
 1446SOL     OW 6234  11.951  12.057  12.005
 1446SOL    HW1 6235  11.977  11.964  12.007
 1446SOL    HW2 6236  11.951  12.084  12.097
 1447SOL     OW 6237  13.071   1.045   0.549
 1447SOL    HW1 6238  13.072   1.084   0.462
 1447SOL    HW2 6239  13.067   1.120   0.609
 1448SOL     OW 6240   7.037   8.907   4.892
 1448SOL    HW1 6241   7.005   8.997   4.891
 1448SOL    HW2 6242   7.019   8.875   4.803
 1449SOL     OW 6243  13.440   5.518   5.209
 1449SOL    HW1 6244  13.361   5.468   5.228
 1449SOL    HW2 6245  13.511   5.465   5.245
 1450SOL     OW 6246   6.699   7.823  12.771
 1450SOL    HW1 6247   6.759   7.897  12.755
 1450SOL    HW2 6248   6.739   7.749  12.726
 1451SOL     OW 6249  14.503   9.851   9.391
 1451SOL    HW1 6250  14.543   9.826   9.474
 1451SOL    HW2 6251  14.479   9.943   9.403
 1452SOL     OW 6252   7.655   0.184  12.330
 1452SOL    HW1 6253   7.624   0.203  12.419
 1452SOL    HW2 6254   7.724   0.249  12.315
 1453SOL     OW 6255  14.711  10.113   2.070
 1453SOL    HW1 6256  14.669  10.166   2.003
 1453SOL    HW2 6257  14.729  10.030   2.027
 1454SOL     OW 6258   5.119   0.358   3.137
 1454SOL    HW1 6259   5.101   0.445   3.172
 1454SOL    HW2 6260   5.074   0.299   3.197
 1455SOL     OW 6261  12.207  12.625   4.300
 1455SOL    HW1 6262  12.230  12.702   4.250
 1455SOL    HW2 6263  12.282  12.610   4.358
 1456SOL     OW 6264  10.080   6.318   5.596
 1456SOL    HW1 6265  10.050   6.359   5.515
 1456SOL    HW2 6266  10.148   6.257   5.569
 1457SOL     OW 6267   8.280  12.204   5.652
 1457SOL    HW1 6268   8.227  12.134   5.691
 1457SOL    HW2 6269   8.277  12.275   5.716
 1458SOL     OW 6270  13.808   9.419  10.160
 1458SOL    HW1 6271  13.726   9.401  10.205
 1458SOL    HW2 6272  13.844   9.332  10.141
 1459SOL     OW 6273   0.010  13.752   8.066
 1459SOL    HW1 6274   0.100  13.768   8.091
 1459SOL    HW2 6275   0.016  13.699   7.986
 1460SOL     OW 6276  12.248   1.160   8.526
 1460SOL    HW1 6277  12.314   1.226   8.545
 1460SOL    HW2 6278  12.233   1.168   8.432
 1461SOL     OW 6279  12.102  11.043  13.718
 1461SOL    HW1 6280  12.157  11.016  13.644
 1461SOL    HW2 6281  12.052  10.964  13.740
 1462SOL     OW 6282   3.795   0.408   1.976
 1462SOL    HW1 6283   3.807   0.437   1.885
 1462SOL    HW2 6284   3.884   0.389   2.007
 1463SOL     OW 6285   5.581   4.586  12.028
 1463SOL    HW1 6286   5.655   4.588  11.967
 1463SOL    HW2 6287   5.619   4.608  12.113
 1464SOL     OW 6288  11.740   1.639   4.980
 1464SOL    HW1 6289  11.823   1.593   4.972
 1464SOL    HW2 6290  11.705   1.610   5.064
 1465SOL     OW 6291  13.887  11.559   0.194
 1465SOL    HW1 6292  13.913  11.547   0.286
 1465SOL    HW2 6293  13.872  11.470   0.162
 1466SOL     OW 6294   5.842  13.725  14.820
 1466SOL    HW1 6295   5.857  13.817  14.844
 1466SOL    HW2 6296   5.804  13.686   0.027
 1467SOL     OW 6297  11.265  12.248  10.538
 1467SOL    HW1 6298  11.214  12.175  10.575
 1467SOL    HW2 6299  11.235  12.325  10.587
 1468SOL     OW 6300   3.006  14.052  11.276
 1468SOL    HW1 6301   2.958  14.104  11.341
 1468SOL    HW2 6302   3.089  14.097  11.266
 1469SOL     OW 6303  12.802   2.765  10.041
 1469SOL    HW1 6304  12.785   2.859  10.057
 1469SOL    HW2 6305  12.738   2.721  10.097
 1470SOL     OW 6306  11.795   1.372  11.703
 1470SOL    HW1 6307  11.715   1.344  11.659
 1470SOL    HW2 6308  11.765   1.422  11.779
 1471SOL     OW 6309   3.066   4.248   0.099
 1471SOL    HW1 6310   3.140   4.223   0.044
 1471SOL    HW2 6311   2.995   4.190   0.072
 1472SOL     OW 6312   3.331  10.898   3.810
 1472SOL    HW1 6313   3.259  10.941   3.765
 1472SOL    HW2 6314   3.290  10.854   3.885
 1473SOL     OW 6315   1.574   7.103   4.511
 1473SOL    HW1 6316   1.540   7.155   4.438
 1473SOL    HW2 6317   1.503   7.043   4.532
 1474SOL     OW 6318  12.773   4.951   7.399
 1474SOL    HW1 6319  12.805   4.889   7.466
 1474SOL    HW2 6320  12.852   4.983   7.356
 1475SOL     OW 6321   9.674   9.703   8.335
 1475SOL    HW1 6322   9.762   9.684   8.368
 1475SOL    HW2 6323   9.685   9.780   8.280
 1476SOL     OW 6324   6.996   1.088   2.267
 1476SOL    HW1 6325   7.077   1.133   2.293
 1476SOL    HW2 6326   6.944   1.084   2.347
 1477SOL     OW 6327   6.179   9.838  13.447
 1477SOL    HW1 6328   6.154   9.893  13.373
 1477SOL    HW2 6329   6.266   9.869  13.472
 1478SOL     OW 6330   8.224   0.923  12.801
 1478SOL    HW1 6331   8.289   0.994  12.799
 1478SOL    HW2 6332   8.141   0.967  12.819
 1479SOL     OW 6333   1.338   1.776   7.319
 1479SOL    HW1 6334   1.422   1.806   7.284
 1479SOL    HW2 6335   1.291   1.743   7.242
 1480SOL     OW 6336  14.144   7.566  12.713
 1480SOL    HW1 6337  14.080   7.617  12.663
 1480SOL    HW2 6338  14.109   7.562  12.802
 1481SOL     OW 6339   2.344   4.048  11.658
 1481SOL    HW1 6340   2.302   4.049  11.743
 1481SOL    HW2 6341   2.368   3.956  11.643
 1482SOL     OW 6342   7.669   5.152   5.870
 1482SOL    HW1 6343   7.645   5.223   5.929
 1482SOL    HW2 6344   7.664   5.073   5.924
 1483SOL     OW 6345  10.590  12.439  14.651
 1483SOL    HW1 6346  10.590  12.345  14.631
 1483SOL    HW2 6347  10.624  12.479  14.571
 1484SOL     OW 6348   7.018  11.452   2.264
 1484SOL    HW1 6349   7.042  11.532   2.217
 1484SOL    HW2 6350   6.925  11.440   2.246
 1485SOL     OW 6351  11.045  10.159  14.408
 1485SOL    HW1 6352  11.056  10.185  14.499
 1485SOL    HW2 6353  11.121  10.195  14.363
 1486SOL     OW 6354   5.116   4.804  13.219
 1486SOL    HW1 6355   5.177   4.815  13.147
 1486SOL    HW2 6356   5.037   4.852  13.192
 1487SOL     OW 6357   5.100   2.147   5.804
 1487SOL    HW1 6358   5.072   2.056   5.792
 1487SOL    HW2 6359   5.181   2.141   5.854
 1488SOL     OW 6360  10.705   1.779  10.601
 1488SOL    HW1 6361  10.769   1.838  10.640
 1488SOL    HW2 6362  10.706   1.702  10.659
 1489SOL     OW 6363  10.452  11.042   3.315
 1489SOL    HW1 6364  10.370  11.043   3.267
 1489SOL    HW2 6365  10.449  10.960   3.365
 1490SOL     OW 6366  12.833   3.701   8.648
 1490SOL    HW1 6367  12.829   3.710   8.553
 1490SOL    HW2 6368  12.758   3.647   8.671
 1491SOL     OW 6369  12.186  13.999   4.324
 1491SOL    HW1 6370  12.280  14.010   4.310
 1491SOL    HW2 6371  12.175  14.000   4.419
 1492SOL     OW 6372  11.478  11.448   7.512
 1492SOL    HW1 6373  11.560  11.399   7.502
 1492SOL    HW2 6374  11.507  11.539   7.526
 1493SOL     OW 6375   3.705  11.047  12.558
 1493SOL    HW1 6376   3.795  11.050  12.592
 1493SOL    HW2 6377   3.653  11.015  12.631
 1494SOL     OW 6378  12.726  11.002   6.597
 1494SOL    HW1 6379  12.675  10.935   6.642
 1494SOL    HW2 6380  12.677  11.083   6.610
 1495SOL     OW 6381  14.458  12.247   6.142
 1495SOL    HW1 6382  14.433  12.189   6.214
 1495SOL    HW2 6383  14.491  12.325   6.186
 1496SOL     OW 6384  14.673   1.409  11.450
 1496SOL    HW1 6385  14.630   1.494  11.458
 1496SOL    HW2 6386  14.755   1.419  11.499
 1497SOL     OW 6387   7.966  12.365  11.454
 1497SOL    HW1 6388   7.940  12.387  11.543
 1497SOL    HW2 6389   7.903  12.299  11.426
 1498SOL     OW 6390   1.187   1.607   3.970
 1498SOL    HW1 6391   1.160   1.625   3.879
 1498SOL    HW2 6392   1.282   1.605   3.967
 1499SOL     OW 6393  12.002   1.124  12.513
 1499SOL    HW1 6394  11.981   1.142  12.421
 1499SOL    HW2 6395  12.034   1.207  12.547
 1500SOL     OW 6396  13.170   4.848   6.344
 1500SOL    HW1 6397  13.083   4.886   6.347
 1500SOL    HW2 6398  13.161   4.761   6.383
 1501SOL     OW 6399   3.980   9.310   4.345
 1501SOL    HW1 6400   3.943   9.257   4.274
 1501SOL    HW2 6401   3.930   9.391   4.342
 1502SOL     OW 6402   2.697   4.865   6.490
 1502SOL    HW1 6403   2.637   4.865   6.565
 1502SOL    HW2 6404   2.646   4.903   6.419
 1503SOL     OW 6405   2.748  11.850   0.170
 1503SOL    HW1 6406   2.731  11.861   0.076
 1503SOL    HW2 6407   2.812  11.919   0.190
 1504SOL     OW 6408  11.855   0.021   9.664
 1504SOL    HW1 6409  11.780  14.837   9.645
 1504SOL    HW2 6410  11.818   0.110   9.668
 1505SOL     OW 6411  11.211   5.036  13.534
 1505SOL    HW1 6412  11.204   5.125  13.569
 1505SOL    HW2 6413  11.223   4.981  13.611
 1506SOL     OW 6414   1.864  11.552  13.862
 1506SOL    HW1 6415   1.895  11.606  13.789
 1506SOL    HW2 6416   1.847  11.466  13.824
 1507SOL     OW 6417   0.933   6.195   5.493
 1507SOL    HW1 6418   0.990   6.217   5.419
 1507SOL    HW2 6419   0.860   6.256   5.487
 1508SOL     OW 6420  14.337   8.171   4.644
 1508SOL    HW1 6421  14.375   8.222   4.716
 1508SOL    HW2 6422  14.243   8.171   4.662
 1509SOL     OW 6423   3.811   7.307  11.411
 1509SOL    HW1 6424   3.843   7.306  11.321
 1509SOL    HW2 6425   3.792   7.215  11.431
 1510SOL     OW 6426   0.291   9.686  11.125
 1510SOL    HW1 6427   0.301   9.773  11.164
 1510SOL    HW2 6428   0.379   9.660  11.101
 1511SOL     OW 6429   8.150  13.164  11.996
 1511SOL    HW1 6430   8.093  13.088  11.984
 1511SOL    HW2 6431   8.199  13.170  11.914
 1512SOL     OW 6432   1.748   9.313   1.029
 1512SOL    HW1 6433   1.672   9.283   1.080
 1512SOL    HW2 6434   1.783   9.386   1.079
 1513SOL     OW 6435   1.372  12.401   0.776
 1513SOL    HW1 6436   1.354  12.383   0.868
 1513SOL    HW2 6437   1.391  12.494   0.773
 1514SOL     OW 6438  12.750  10.198   0.185
 1514SOL    HW1 6439  12.842  10.221   0.173
 1514SOL    HW2 6440  12.745  10.160   0.273
 1515SOL     OW 6441  13.228   2.828  10.230
 1515SOL    HW1 6442  13.267   2.745  10.261
 1515SOL    HW2 6443  13.144   2.833  10.276
 1516SOL     OW 6444  14.603   7.069  13.879
 1516SOL    HW1 6445  14.601   7.053  13.785
 1516SOL    HW2 6446  14.696   7.063  13.902
 1517SOL     OW 6447   5.282  14.093   8.354
 1517SOL    HW1 6448   5.246  14.081   8.442
 1517SOL    HW2 6449   5.227  14.038   8.298
 1518SOL     OW 6450   4.748  14.179   9.669
 1518SOL    HW1 6451   4.837  14.201   9.698
 1518SOL    HW2 6452   4.754  14.086   9.646
 1519SOL     OW 6453   9.455   7.370   5.415
 1519SOL    HW1 6454   9.494   7.290   5.379
 1519SOL    HW2 6455   9.361   7.354   5.412
 1520SOL     OW 6456   4.057   5.657   5.776
 1520SOL    HW1 6457   4.069   5.749   5.801
 1520SOL    HW2 6458   4.064   5.657   5.680
 1521SOL     OW 6459   3.063   2.696   2.026
 1521SOL    HW1 6460   3.110   2.633   2.081
 1521SOL    HW2 6461   3.000   2.643   1.978
 1522SOL     OW 6462   4.956   4.128   2.585
 1522SOL    HW1 6463   5.036   4.081   2.611
 1522SOL    HW2 6464   4.904   4.062   2.539
 1523SOL     OW 6465   1.113  11.610  12.653
 1523SOL    HW1 6466   1.162  11.668  12.712
 1523SOL    HW2 6467   1.047  11.668  12.614
 1524SOL     OW 6468   9.481   8.965   7.644
 1524SOL    HW1 6469   9.420   8.989   7.574
 1524SOL    HW2 6470   9.489   9.045   7.696
 1525SOL     OW 6471  12.914   5.382  12.955
 1525SOL    HW1 6472  12.860   5.409  13.029
 1525SOL    HW2 6473  12.885   5.438  12.883
 1526SOL     OW 6474   4.125   0.028   1.819
 1526SOL    HW1 6475   4.036   0.024   1.853
 1526SOL    HW2 6476   4.123  14.848   1.739
 1527SOL     OW 6477   1.452   1.008   3.311
 1527SOL    HW1 6478   1.415   0.926   3.278
 1527SOL    HW2 6479   1.547   0.997   3.302
 1528SOL     OW 6480  10.003   8.419   4.165
 1528SOL    HW1 6481  10.042   8.369   4.093
 1528SOL    HW2 6482   9.947   8.356   4.210
 1529SOL     OW 6483  10.452   3.058   7.403
 1529SOL    HW1 6484  10.441   3.096   7.490
 1529SOL    HW2 6485  10.547   3.059   7.389
 1530SOL     OW 6486   5.125   2.633  10.024
 1530SOL    HW1 6487   5.068   2.680   9.963
 1530SOL    HW2 6488   5.070   2.563  10.058
 1531SOL     OW 6489   2.605   5.018   9.826
 1531SOL    HW1 6490   2.531   5.035   9.884
 1531SOL    HW2 6491   2.682   5.018   9.883
 1532SOL     OW 6492  10.720   9.160   1.273
 1532SOL    HW1 6493  10.634   9.204   1.274
 1532SOL    HW2 6494  10.699   9.068   1.261
 1533SOL     OW 6495  12.456   4.275   4.599
 1533SOL    HW1 6496  12.539   4.257   4.644
 1533SOL    HW2 6497  12.393   4.216   4.640
 1534SOL     OW 6498  10.731   4.392   5.905
 1534SOL    HW1 6499  10.667   4.446   5.859
 1534SOL    HW2 6500  10.814   4.437   5.892
 1535SOL     OW 6501   6.149  14.506  14.519
 1535SOL    HW1 6502   6.201  14.558  14.458
 1535SOL    HW2 6503   6.149  14.418  14.481
 1536SOL     OW 6504   0.860   0.476   0.350
 1536SOL    HW1 6505   0.822   0.421   0.419
 1536SOL    HW2 6506   0.944   0.503   0.386
 1537SOL     OW 6507   0.827   1.655   9.079
 1537SOL    HW1 6508   0.886   1.716   9.033
 1537SOL    HW2 6509   0.859   1.568   9.056
 1538SOL     OW 6510  11.773  13.320   7.396
 1538SOL    HW1 6511  11.789  13.229   7.422
 1538SOL    HW2 6512  11.845  13.340   7.336
 1539SOL     OW 6513   9.264  14.717  13.467
 1539SOL    HW1 6514   9.223  14.714  13.380
 1539SOL    HW2 6515   9.317  14.797  13.465
 1540SOL     OW 6516  14.758   6.726   6.715
 1540SOL    HW1 6517  14.669   6.694   6.724
 1540SOL    HW2 6518  14.781   6.760   6.802
 1541SOL     OW 6519   9.463   4.506  10.658
 1541SOL    HW1 6520   9.522   4.523  10.732
 1541SOL    HW2 6521   9.425   4.420  10.678
 1542SOL     OW 6522   0.595   1.274   6.920
 1542SOL    HW1 6523   0.554   1.354   6.953
 1542SOL    HW2 6524   0.672   1.305   6.872
 1543SOL     OW 6525   7.670   4.878   0.302
 1543SOL    HW1 6526   7.701   4.903   0.215
 1543SOL    HW2 6527   7.740   4.825   0.339
 1544SOL     OW 6528  11.168   7.125  14.861
 1544SOL    HW1 6529  11.178   7.056   0.055
 1544SOL    HW2 6530  11.212   7.201   0.028
 1545SOL     OW 6531  10.273   5.299  14.439
 1545SOL    HW1 6532  10.189   5.324  14.399
 1545SOL    HW2 6533  10.312   5.383  14.465
 1546SOL     OW 6534   9.624   3.117  12.912
 1546SOL    HW1 6535   9.604   3.193  12.857
 1546SOL    HW2 6536   9.560   3.051  12.886
 1547SOL     OW 6537   7.987   6.888   1.594
 1547SOL    HW1 6538   8.030   6.803   1.585
 1547SOL    HW2 6539   8.035   6.946   1.535
 1548SOL     OW 6540   2.133  11.825   2.586
 1548SOL    HW1 6541   2.059  11.886   2.586
 1548SOL    HW2 6542   2.171  11.833   2.674
 1549SOL     OW 6543  11.906   8.733   4.674
 1549SOL    HW1 6544  11.815   8.713   4.651
 1549SOL    HW2 6545  11.908   8.729   4.770
 1550SOL     OW 6546   2.169   7.105  13.250
 1550SOL    HW1 6547   2.219   7.141  13.323
 1550SOL    HW2 6548   2.098   7.056  13.292
 1551SOL     OW 6549   7.607  11.818   9.716
 1551SOL    HW1 6550   7.694  11.808   9.755
 1551SOL    HW2 6551   7.559  11.871   9.780
 1552SOL     OW 6552   6.292   0.816   4.198
 1552SOL    HW1 6553   6.226   0.824   4.130
 1552SOL    HW2 6554   6.321   0.725   4.193
 1553SOL     OW 6555  13.189   0.727   9.694
 1553SOL    HW1 6556  13.264   0.682   9.655
 1553SOL    HW2 6557  13.197   0.711   9.788
 1554SOL     OW 6558   2.083   2.153  11.290
 1554SOL    HW1 6559   2.003   2.200  11.264
 1554SOL    HW2 6560   2.068   2.130  11.381
 1555SOL     OW 6561   0.572  13.926   2.809
 1555SOL    HW1 6562   0.621  13.910   2.890
 1555SOL    HW2 6563   0.480  13.929   2.837
 1556SOL     OW 6564   3.579   0.430  14.126
 1556SOL    HW1 6565   3.627   0.366  14.074
 1556SOL    HW2 6566   3.639   0.456  14.195
 1557SOL     OW 6567  14.704  11.116   9.507
 1557SOL    HW1 6568  14.795  11.104   9.480
 1557SOL    HW2 6569  14.709  11.167   9.588
 1558SOL     OW 6570   0.473   3.074  12.320
 1558SOL    HW1 6571   0.483   2.985  12.354
 1558SOL    HW2 6572   0.488   3.066  12.226
 1559SOL     OW 6573   6.190   4.104   6.110
 1559SOL    HW1 6574   6.255   4.166   6.142
 1559SOL    HW2 6575   6.241   4.034   6.069
 1560SOL     OW 6576   6.393   5.054   8.824
 1560SOL    HW1 6577   6.370   5.147   8.833
 1560SOL    HW2 6578   6.333   5.009   8.883
 1561SOL     OW 6579   0.489  11.935  13.262
 1561SOL    HW1 6580   0.570  11.983  13.280
 1561SOL    HW2 6581   0.483  11.870  13.331
 1562SOL     OW 6582  13.306   3.227   6.900
 1562SOL    HW1 6583  13.396   3.255   6.916
 1562SOL    HW2 6584  13.287   3.167   6.972
 1563SOL     OW 6585   7.066   8.457  13.852
 1563SOL    HW1 6586   7.085   8.551  13.858
 1563SOL    HW2 6587   7.149   8.414  13.873
 1564SOL     OW 6588  11.124   8.636  10.651
 1564SOL    HW1 6589  11.149   8.663  10.563
 1564SOL    HW2 6590  11.183   8.683  10.709
 1565SOL     OW 6591   7.250   4.412   3.965
 1565SOL    HW1 6592   7.165   4.456   3.966
 1565SOL    HW2 6593   7.286   4.432   3.878
 1566SOL     OW 6594   6.720  11.494   1.834
 1566SOL    HW1 6595   6.664  11.571   1.824
 1566SOL    HW2 6596   6.784  11.503   1.763
 1567SOL     OW 6597  13.549   8.547   8.671
 1567SOL    HW1 6598  13.545   8.451   8.672
 1567SOL    HW2 6599  13.492   8.574   8.743
 1568SOL     OW 6600   7.914   0.079   2.121
 1568SOL    HW1 6601   7.895   0.093   2.214
 1568SOL    HW2 6602   7.986   0.139   2.101
 1569SOL     OW 6603   7.334   3.929   8.496
 1569SOL    HW1 6604   7.358   3.850   8.446
 1569SOL    HW2 6605   7.329   3.998   8.430
 1570SOL     OW 6606   5.663   0.658   6.257
 1570SOL    HW1 6607   5.716   0.663   6.337
 1570SOL    HW2 6608   5.691   0.734   6.205
 1571SOL     OW 6609   2.684  12.043  11.285
 1571SOL    HW1 6610   2.765  11.999  11.259
 1571SOL    HW2 6611   2.711  12.131  11.309
 1572SOL     OW 6612   0.730  10.948   3.587
 1572SOL    HW1 6613   0.764  10.863   3.558
 1572SOL    HW2 6614   0.644  10.955   3.546
 1573SOL     OW 6615   5.887   4.022  11.239
 1573SOL    HW1 6616   5.821   4.004  11.173
 1573SOL    HW2 6617   5.969   4.030  11.190
 1574SOL     OW 6618   8.753   3.547   5.339
 1574SOL    HW1 6619   8.665   3.550   5.375
 1574SOL    HW2 6620   8.801   3.615   5.385
 1575SOL     OW 6621   5.980   4.436  13.623
 1575SOL    HW1 6622   5.980   4.410  13.531
 1575SOL    HW2 6623   6.018   4.523  13.624
 1576SOL     OW 6624   3.501   3.657  13.064
 1576SOL    HW1 6625   3.558   3.584  13.086
 1576SOL    HW2 6626   3.460   3.682  13.147
 1577SOL     OW 6627   5.612   5.801  10.526
 1577SOL    HW1 6628   5.612   5.712  10.490
 1577SOL    HW2 6629   5.565   5.794  10.609
 1578SOL     OW 6630  12.890   6.274   2.838
 1578SOL    HW1 6631  12.816   6.214   2.834
 1578SOL    HW2 6632  12.947   6.238   2.906
 1579SOL     OW 6633   0.683   8.793   4.823
 1579SOL    HW1 6634   0.758   8.841   4.859
 1579SOL    HW2 6635   0.608   8.828   4.870
 1580SOL     OW 6636  14.302   8.586   6.894
 1580SOL    HW1 6637  14.268   8.512   6.842
 1580SOL    HW2 6638  14.225   8.640   6.911
 1581SOL     OW 6639   3.905   2.238  14.156
 1581SOL    HW1 6640   3.896   2.333  14.159
 1581SOL    HW2 6641   3.980   2.222  14.099
 1582SOL     OW 6642   1.673   1.693   7.898
 1582SOL    HW1 6643   1.756   1.669   7.941
 1582SOL    HW2 6644   1.643   1.611   7.859
 1583SOL     OW 6645   8.771   0.840   3.020
 1583SOL    HW1 6646   8.738   0.915   2.970
 1583SOL    HW2 6647   8.697   0.813   3.074
 1584SOL     OW 6648  12.939   2.021   6.521
 1584SOL    HW1 6649  12.927   2.102   6.571
 1584SOL    HW2 6650  12.854   2.006   6.479
 1585SOL     OW 6651   6.761   7.254   4.709
 1585SOL    HW1 6652   6.696   7.226   4.773
 1585SOL    HW2 6653   6.727   7.336   4.673
 1586SOL     OW 6654   3.981   8.049  12.110
 1586SOL    HW1 6655   4.041   7.978  12.134
 1586SOL    HW2 6656   4.017   8.126  12.154
 1587SOL     OW 6657   7.888   7.974  11.321
 1587SOL    HW1 6658   7.976   8.000  11.348
 1587SOL    HW2 6659   7.839   7.967  11.403
 1588SOL     OW 6660   2.300   7.340   9.939
 1588SOL    HW1 6661   2.297   7.416   9.997
 1588SOL    HW2 6662   2.306   7.377   9.851
 1589SOL     OW 6663  14.101   0.123   6.274
 1589SOL    HW1 6664  14.191   0.100   6.250
 1589SOL    HW2 6665  14.109   0.165   6.360
 1590SOL     OW 6666   2.966  14.588  12.786
 1590SOL    HW1 6667   2.902  14.659  12.785
 1590SOL    HW2 6668   2.999  14.586  12.876
 1591SOL     OW 6669   4.454   8.022   2.030
 1591SOL    HW1 6670   4.479   7.962   2.101
 1591SOL    HW2 6671   4.522   8.009   1.963
 1592SOL     OW 6672   0.032   7.260   8.471
 1592SOL    HW1 6673   0.047   7.168   8.490
 1592SOL    HW2 6674   0.032   7.265   8.375
 1593SOL     OW 6675   9.626  11.120   5.392
 1593SOL    HW1 6676   9.593  11.047   5.444
 1593SOL    HW2 6677   9.599  11.198   5.439
 1594SOL     OW 6678   8.523  14.487   8.899
 1594SOL    HW1 6679   8.525  14.583   8.904
 1594SOL    HW2 6680   8.586  14.466   8.830
 1595SOL     OW 6681  11.818  13.824   7.833
 1595SOL    HW1 6682  11.778  13.763   7.895
 1595SOL    HW2 6683  11.786  13.795   7.748
 1596SOL     OW 6684  13.070   1.122   2.423
 1596SOL    HW1 6685  13.124   1.081   2.491
 1596SOL    HW2 6686  13.118   1.200   2.398
 1597SOL     OW 6687   1.526   5.368  13.348
 1597SOL    HW1 6688   1.560   5.280  13.334
 1597SOL    HW2 6689   1.604   5.423  13.359
 1598SOL     OW 6690  10.659  14.665   8.416
 1598SOL    HW1 6691  10.616  14.734   8.467
 1598SOL    HW2 6692  10.595  14.594   8.413
 1599SOL     OW 6693  13.358   3.611  13.795
 1599SOL    HW1 6694  13.444   3.568  13.798
 1599SOL    HW2 6695  13.330   3.615  13.887
 1600SOL     OW 6696  13.372   2.984   0.462
 1600SOL    HW1 6697  13.375   2.958   0.554
 1600SOL    HW2 6698  13.417   2.913   0.416
 1601SOL     OW 6699  10.476   2.545   6.315
 1601SOL    HW1 6700  10.387   2.575   6.333
 1601SOL    HW2 6701  10.475   2.523   6.222
 1602SOL     OW 6702  14.097   4.237   7.382
 1602SOL    HW1 6703  14.177   4.255   7.430
 1602SOL    HW2 6704  14.079   4.318   7.333
 1603SOL     OW 6705  14.026   8.811   2.597
 1603SOL    HW1 6706  13.942   8.834   2.557
 1603SOL    HW2 6707  14.004   8.746   2.663
 1604SOL     OW 6708  10.332   0.646  11.110
 1604SOL    HW1 6709  10.285   0.682  11.035
 1604SOL    HW2 6710  10.324   0.713  11.178
 1605SOL     OW 6711   3.149  14.491   5.370
 1605SOL    HW1 6712   3.242  14.500   5.390
 1605SOL    HW2 6713   3.130  14.563   5.310
 1606SOL     OW 6714   9.705  11.997   1.899
 1606SOL    HW1 6715   9.705  11.925   1.961
 1606SOL    HW2 6716   9.763  12.063   1.938
 1607SOL     OW 6717   9.325   5.780   4.709
 1607SOL    HW1 6718   9.352   5.863   4.746
 1607SOL    HW2 6719   9.405   5.743   4.671
 1608SOL     OW 6720   4.046   8.016   0.424
 1608SOL    HW1 6721   4.124   8.054   0.385
 1608SOL    HW2 6722   4.062   7.921   0.421
 1609SOL     OW 6723   1.354   9.835   6.020
 1609SOL    HW1 6724   1.431   9.877   5.982
 1609SOL    HW2 6725   1.334   9.763   5.960
 1610SOL     OW 6726  12.540  11.394   6.826
 1610SOL    HW1 6727  12.445  11.392   6.818
 1610SOL    HW2 6728  12.570  11.447   6.753
 1611SOL     OW 6729   5.650   6.804  12.906
 1611SOL    HW1 6730   5.710   6.855  12.851
 1611SOL    HW2 6731   5.614   6.868  12.967
 1612SOL     OW 6732  14.675   5.654  11.283
 1612SOL    HW1 6733  14.739   5.636  11.351
 1612SOL    HW2 6734  14.597   5.682  11.331
 1613SOL     OW 6735   1.554   9.329   0.681
 1613SOL    HW1 6736   1.499   9.286   0.615
 1613SOL    HW2 6737   1.640   9.335   0.640
 1614SOL     OW 6738   6.830  14.822  10.888
 1614SOL    HW1 6739   6.746  14.810  10.933
 1614SOL    HW2 6740   6.888  14.757  10.928
 1615SOL     OW 6741  11.214   9.424   7.935
 1615SOL    HW1 6742  11.126   9.462   7.926
 1615SOL    HW2 6743  11.273   9.496   7.915
 1616SOL     OW 6744   5.636   6.285   2.750
 1616SOL    HW1 6745   5.641   6.379   2.767
 1616SOL    HW2 6746   5.719   6.250   2.781
 1617SOL     OW 6747   8.784   1.419  12.138
 1617SOL    HW1 6748   8.860   1.477  12.144
 1617SOL    HW2 6749   8.744   1.441  12.054
 1618SOL     OW 6750   8.418   8.791  14.263
 1618SOL    HW1 6751   8.391   8.880  14.238
 1618SOL    HW2 6752   8.513   8.797  14.273
 1619SOL     OW 6753   5.700   3.406   3.827
 1619SOL    HW1 6754   5.654   3.385   3.746
 1619SOL    HW2 6755   5.665   3.492   3.852
 1620SOL     OW 6756   0.698   8.564   9.600
 1620SOL    HW1 6757   0.689   8.656   9.628
 1620SOL    HW2 6758   0.668   8.514   9.676
 1621SOL     OW 6759   2.294   2.312  10.610
 1621SOL    HW1 6760   2.282   2.220  10.588
 1621SOL    HW2 6761   2.207   2.341  10.640
 1622SOL     OW 6762   9.110  14.708   3.161
 1622SOL    HW1 6763   9.087  14.638   3.224
 1622SOL    HW2 6764   9.177  14.669   3.105
 1623SOL     OW 6765  14.380  10.274  13.451
 1623SOL    HW1 6766  14.467  10.271  13.412
 1623SOL    HW2 6767  14.321  10.255  13.379
 1624SOL     OW 6768  13.539   4.521   4.480
 1624SOL    HW1 6769  13.623   4.566   4.476
 1624SOL    HW2 6770  13.553   4.451   4.544
 1625SOL     OW 6771  13.360  10.926   7.941
 1625SOL    HW1 6772  13.420  11.000   7.937
 1625SOL    HW2 6773  13.408  10.854   7.900
 1626SOL     OW 6774   8.055   8.886   0.251
 1626SOL    HW1 6775   7.969   8.917   0.225
 1626SOL    HW2 6776   8.116   8.948   0.213
 1627SOL     OW 6777   2.734  12.587  14.494
 1627SOL    HW1 6778   2.745  12.492  14.492
 1627SOL    HW2 6779   2.806  12.618  14.549
 1628SOL     OW 6780   0.804   9.748  11.466
 1628SOL    HW1 6781   0.811   9.697  11.547
 1628SOL    HW2 6782   0.874   9.713  11.410
 1629SOL     OW 6783  13.087  11.249   5.872
 1629SOL    HW1 6784  13.000  11.211   5.863
 1629SOL    HW2 6785  13.112  11.232   5.963
 1630SOL     OW 6786  10.044   3.800   8.679
 1630SOL    HW1 6787   9.955   3.764   8.671
 1630SOL    HW2 6788  10.049   3.866   8.611
 1631SOL     OW 6789   9.002   9.921  10.940
 1631SOL    HW1 6790   9.020   9.909  11.033
 1631SOL    HW2 6791   9.062   9.991  10.913
 1632SOL     OW 6792   3.464   1.711   4.493
 1632SOL    HW1 6793   3.450   1.618   4.506
 1632SOL    HW2 6794   3.500   1.741   4.576
 1633SOL     OW 6795  10.911  13.540  13.500
 1633SOL    HW1 6796  10.889  13.454  13.464
 1633SOL    HW2 6797  10.994  13.527  13.545
 1634SOL     OW 6798   8.709   4.424  11.136
 1634SOL    HW1 6799   8.734   4.392  11.223
 1634SOL    HW2 6800   8.694   4.517  11.148
 1635SOL     OW 6801   5.561  11.893   5.320
 1635SOL    HW1 6802   5.601  11.926   5.240
 1635SOL    HW2 6803   5.479  11.942   5.328
 1636SOL     OW 6804   9.550   1.811  11.862
 1636SOL    HW1 6805   9.646   1.812  11.873
 1636SOL    HW2 6806   9.517   1.773  11.944
 1637SOL     OW 6807  12.948  12.144   3.931
 1637SOL    HW1 6808  12.936  12.091   4.010
 1637SOL    HW2 6809  12.981  12.083   3.866
 1638SOL     OW 6810  11.358   2.160  14.058
 1638SOL    HW1 6811  11.347   2.250  14.091
 1638SOL    HW2 6812  11.341   2.105  14.134
 1639SOL     OW 6813   6.663   6.911  11.497
 1639SOL    HW1 6814   6.690   6.845  11.434
 1639SOL    HW2 6815   6.594   6.960  11.452
 1640SOL     OW 6816  13.314   5.267   3.679
 1640SOL    HW1 6817  13.398   5.275   3.725
 1640SOL    HW2 6818  13.335   5.288   3.588
 1641SOL     OW 6819   2.809   7.927   0.148
 1641SOL    HW1 6820   2.878   7.987   0.119
 1641SOL    HW2 6821   2.843   7.890   0.230
 1642SOL     OW 6822  10.707   7.118   4.432
 1642SOL    HW1 6823  10.723   7.212   4.446
 1642SOL    HW2 6824  10.772   7.074   4.487
 1643SOL     OW 6825   0.165   8.195   1.996
 1643SOL    HW1 6826   0.097   8.173   2.060
 1643SOL    HW2 6827   0.246   8.193   2.047
 1644SOL     OW 6828   2.290   2.165  14.778
 1644SOL    HW1 6829   2.292   2.168  14.682
 1644SOL    HW2 6830   2.295   2.257  14.804
 1645SOL     OW 6831   1.556   7.650   5.882
 1645SOL    HW1 6832   1.499   7.583   5.843
 1645SOL    HW2 6833   1.499   7.699   5.941
 1646SOL     OW 6834  10.686  11.744   7.223
 1646SOL    HW1 6835  10.616  11.774   7.166
 1646SOL    HW2 6836  10.765  11.785   7.189
 1647SOL     OW 6837  14.018   0.393  14.223
 1647SOL    HW1 6838  14.031   0.339  14.146
 1647SOL    HW2 6839  13.936   0.440  14.206
 1648SOL     OW 6840   0.769   0.488  14.515
 1648SOL    HW1 6841   0.707   0.532  14.572
 1648SOL    HW2 6842   0.799   0.412  14.566
 1649SOL     OW 6843   5.272   0.973   5.491
 1649SOL    HW1 6844   5.303   1.060   5.518
 1649SOL    HW2 6845   5.177   0.978   5.500
 1650SOL     OW 6846   0.797   0.045   4.455
 1650SOL    HW1 6847   0.827  14.838   4.410
 1650SOL    HW2 6848   0.727   0.080   4.399
 1651SOL     OW 6849   2.047   0.879  10.854
 1651SOL    HW1 6850   2.036   0.968  10.888
 1651SOL    HW2 6851   2.137   0.855  10.877
 1652SOL     OW 6852   7.518  12.900   2.536
 1652SOL    HW1 6853   7.518  12.831   2.469
 1652SOL    HW2 6854   7.589  12.959   2.510
 1653SOL     OW 6855   2.867  10.933  11.186
 1653SOL    HW1 6856   2.884  10.924  11.092
 1653SOL    HW2 6857   2.951  10.958  11.224
 1654SOL     OW 6858  13.804   0.323  12.959
 1654SOL    HW1 6859  13.884   0.270  12.963
 1654SOL    HW2 6860  13.807   0.378  13.036
 1655SOL     OW 6861  11.212   0.719   6.916
 1655SOL    HW1 6862  11.165   0.763   6.987
 1655SOL    HW2 6863  11.222   0.629   6.946
 1656SOL     OW 6864   2.231   7.613   5.094
 1656SOL    HW1 6865   2.155   7.647   5.141
 1656SOL    HW2 6866   2.302   7.618   5.157
 1657SOL     OW 6867   1.108   1.983   0.301
 1657SOL    HW1 6868   1.057   2.059   0.328
 1657SOL    HW2 6869   1.058   1.944   0.230
 1658SOL     OW 6870  10.051   9.681   6.979
 1658SOL    HW1 6871  10.049   9.616   7.049
 1658SOL    HW2 6872  10.054   9.630   6.899
 1659SOL     OW 6873   9.820   5.850   5.784
 1659SOL    HW1 6874   9.873   5.876   5.709
 1659SOL    HW2 6875   9.884   5.831   5.852
 1660SOL     OW 6876   3.582   2.764  11.172
 1660SOL    HW1 6877   3.656   2.810  11.131
 1660SOL    HW2 6878   3.591   2.673  11.143
 1661SOL     OW 6879   1.632  14.373   8.867
 1661SOL    HW1 6880   1.663  14.430   8.797
 1661SOL    HW2 6881   1.711  14.326   8.896
 1662SOL     OW 6882   8.582   6.557   2.810
 1662SOL    HW1 6883   8.646   6.593   2.871
 1662SOL    HW2 6884   8.531   6.495   2.862
 1663SOL     OW 6885   5.742   4.898   8.183
 1663SOL    HW1 6886   5.650   4.876   8.196
 1663SOL    HW2 6887   5.770   4.840   8.112
 1664SOL     OW 6888   5.876  12.304   1.606
 1664SOL    HW1 6889   5.897  12.374   1.668
 1664SOL    HW2 6890   5.961  12.270   1.579
 1665SOL     OW 6891  11.096   9.020  10.770
 1665SOL    HW1 6892  11.140   8.978  10.843
 1665SOL    HW2 6893  11.066   9.104  10.805
 1666SOL     OW 6894   3.103   0.739   2.681
 1666SOL    HW1 6895   3.066   0.790   2.752
 1666SOL    HW2 6896   3.187   0.781   2.662
 1667SOL     OW 6897   1.911  11.089  11.638
 1667SOL    HW1 6898   1.941  11.012  11.590
 1667SOL    HW2 6899   1.966  11.160  11.605
 1668SOL     OW 6900   7.861   2.173  13.649
 1668SOL    HW1 6901   7.910   2.230  13.591
 1668SOL    HW2 6902   7.897   2.190  13.736
 1669SOL     OW 6903   7.778   5.489   3.346
 1669SOL    HW1 6904   7.783   5.414   3.287
 1669SOL    HW2 6905   7.834   5.555   3.304
 1670SOL     OW 6906   3.071   7.929   2.028
 1670SOL    HW1 6907   3.166   7.931   2.043
 1670SOL    HW2 6908   3.059   7.974   1.944
 1671SOL     OW 6909   9.941   0.849   0.459
 1671SOL    HW1 6910   9.985   0.833   0.542
 1671SOL    HW2 6911   9.903   0.764   0.435
 1672SOL     OW 6912   8.442  13.141  12.149
 1672SOL    HW1 6913   8.454  13.052  12.117
 1672SOL    HW2 6914   8.375  13.134  12.217
 1673SOL     OW 6915   5.906  12.520   9.628
 1673SOL    HW1 6916   5.905  12.425   9.637
 1673SOL    HW2 6917   5.985  12.539   9.579
 1674SOL     OW 6918   2.840   3.478  10.307
 1674SOL    HW1 6919   2.840   3.454  10.400
 1674SOL    HW2 6920   2.916   3.536  10.297
 1675SOL     OW 6921   9.330  11.610   8.702
 1675SOL    HW1 6922   9.332  11.696   8.661
 1675SOL    HW2 6923   9.418  11.575   8.687
 1676SOL     OW 6924  11.849  11.979   9.305
 1676SOL    HW1 6925  11.910  12.035   9.353
 1676SOL    HW2 6926  11.828  12.029   9.226
 1677SOL     OW 6927  10.747   1.430   6.910
 1677SOL    HW1 6928  10.818   1.450   6.849
 1677SOL    HW2 6929  10.690   1.506   6.907
 1678SOL     OW 6930  12.298   7.166  12.886
 1678SOL    HW1 6931  12.223   7.215  12.852
 1678SOL    HW2 6932  12.277   7.074  12.865
 1679SOL     OW 6933  11.511   2.988   7.176
 1679SOL    HW1 6934  11.478   2.899   7.163
 1679SOL    HW2 6935  11.484   3.009   7.266
 1680SOL     OW 6936  12.438   4.705  12.231
 1680SOL    HW1 6937  12.489   4.644  12.284
 1680SOL    HW2 6938  12.351   4.666  12.225
 1681SOL     OW 6939  12.649   6.341   0.673
 1681SOL    HW1 6940  12.716   6.401   0.706
 1681SOL    HW2 6941  12.660   6.261   0.724
 1682SOL     OW 6942   9.295  14.087   8.027
 1682SOL    HW1 6943   9.291  13.991   8.025
 1682SOL    HW2 6944   9.349  14.108   8.102
 1683SOL     OW 6945   4.475   0.955   9.788
 1683SOL    HW1 6946   4.531   0.917   9.855
 1683SOL    HW2 6947   4.432   0.880   9.746
 1684SOL     OW 6948   7.749   1.656  13.604
 1684SOL    HW1 6949   7.824   1.628  13.551
 1684SOL    HW2 6950   7.677   1.601  13.574
 1685SOL     OW 6951   2.848  10.825   9.140
 1685SOL    HW1 6952   2.824  10.788   9.225
 1685SOL    HW2 6953   2.771  10.811   9.085
 1686SOL     OW 6954   7.145  13.418  11.336
 1686SOL    HW1 6955   7.145  13.332  11.293
 1686SOL    HW2 6956   7.217  13.413  11.399
 1687SOL     OW 6957  11.829   3.812   7.999
 1687SOL    HW1 6958  11.812   3.906   8.002
 1687SOL    HW2 6959  11.866   3.791   8.085
 1688SOL     OW 6960  11.278   3.963   2.654
 1688SOL    HW1 6961  11.258   3.958   2.747
 1688SOL    HW2 6962  11.374   3.971   2.651
 1689SOL     OW 6963   1.547   4.156   8.876
 1689SOL    HW1 6964   1.471   4.206   8.847
 1689SOL    HW2 6965   1.566   4.190   8.963
 1690SOL     OW 6966  10.407  11.882   4.066
 1690SOL    HW1 6967  10.333  11.893   4.006
 1690SOL    HW2 6968  10.479  11.928   4.023
 1691SOL     OW 6969   7.160  14.174   3.352
 1691SOL    HW1 6970   7.155  14.227   3.432
 1691SOL    HW2 6971   7.142  14.085   3.381
 1692SOL     OW 6972   7.334   9.626   7.445
 1692SOL    HW1 6973   7.428   9.641   7.432
 1692SOL    HW2 6974   7.316   9.660   7.532
 1693SOL     OW 6975  12.464   4.097   8.578
 1693SOL    HW1 6976  12.404   4.156   8.624
 1693SOL    HW2 6977  12.467   4.130   8.489
 1694SOL     OW 6978  12.512   6.045   3.200
 1694SOL    HW1 6979  12.461   6.055   3.120
 1694SOL    HW2 6980  12.538   5.953   3.200
 1695SOL     OW 6981   1.563  11.699  12.118
 1695SOL    HW1 6982   1.565  11.655  12.204
 1695SOL    HW2 6983   1.600  11.785  12.135
 1696SOL     OW 6984  12.829   5.522   9.749
 1696SOL    HW1 6985  12.840   5.432   9.716
 1696SOL    HW2 6986  12.751   5.554   9.705
 1697SOL     OW 6987   5.431  11.611  14.290
 1697SOL    HW1 6988   5.416  11.576  14.203
 1697SOL    HW2 6989   5.486  11.546  14.334
 1698SOL     OW 6990  10.781  10.155   5.800
 1698SOL    HW1 6991  10.719  10.151   5.728
 1698SOL    HW2 6992  10.736  10.206   5.868
 1699SOL     OW 6993   3.521  11.085   4.143
 1699SOL    HW1 6994   3.477  11.158   4.101
 1699SOL    HW2 6995   3.463  11.010   4.128
 1700SOL     OW 6996   2.230   6.663   6.634
 1700SOL    HW1 6997   2.202   6.742   6.681
 1700SOL    HW2 6998   2.268   6.696   6.553
 1701SOL     OW 6999   3.665   4.767  11.420
 1701SOL    HW1 7000   3.585   4.715  11.410
 1701SOL    HW2 7001   3.654   4.840  11.359
 1702SOL     OW 7002  12.666   0.720  14.033
 1702SOL    HW1 7003  12.576   0.751  14.024
 1702SOL    HW2 7004  12.715   0.769  13.967
 1703SOL     OW 7005  12.297   1.423   6.981
 1703SOL    HW1 7006  12.306   1.399   6.888
 1703SOL    HW2 7007  12.286   1.340   7.026
 1704SOL     OW 7008  11.448  11.625  11.443
 1704SOL    HW1 7009  11.376  11.572  11.478
 1704SOL    HW2 7010  11.527  11.588  11.480
 1705SOL     OW 7011  11.245  11.563   2.342
 1705SOL    HW1 7012  11.268  11.471   2.335
 1705SOL    HW2 7013  11.322  11.604   2.381
 1706SOL     OW 7014  11.689   0.973  13.336
 1706SOL    HW1 7015  11.642   1.047  13.374
 1706SOL    HW2 7016  11.630   0.899  13.347
 1707SOL     OW 7017   2.908  12.724   2.319
 1707SOL    HW1 7018   2.946  12.646   2.360
 1707SOL    HW2 7019   2.902  12.702   2.226
 1708SOL     OW 7020  13.974   0.853   8.811
 1708SOL    HW1 7021  14.030   0.854   8.733
 1708SOL    HW2 7022  13.951   0.761   8.822
 1709SOL     OW 7023   3.970   1.051   6.785
 1709SOL    HW1 7024   3.998   1.141   6.802
 1709SOL    HW2 7025   3.902   1.034   6.850
 1710SOL     OW 7026   8.218   0.953   9.335
 1710SOL    HW1 7027   8.168   0.941   9.255
 1710SOL    HW2 7028   8.261   1.038   9.324
 1711SOL     OW 7029   2.461   9.603   5.689
 1711SOL    HW1 7030   2.500   9.522   5.723
 1711SOL    HW2 7031   2.534   9.665   5.684
 1712SOL     OW 7032   1.199  11.350   1.630
 1712SOL    HW1 7033   1.152  11.378   1.552
 1712SOL    HW2 7034   1.272  11.298   1.597
 1713SOL     OW 7035  12.318   2.965  11.837
 1713SOL    HW1 7036  12.245   2.972  11.775
 1713SOL    HW2 7037  12.275   2.958  11.923
 1714SOL     OW 7038   4.482   1.647   4.049
 1714SOL    HW1 7039   4.448   1.654   4.138
 1714SOL    HW2 7040   4.568   1.690   4.052
 1715SOL     OW 7041   5.563   7.870   3.535
 1715SOL    HW1 7042   5.494   7.929   3.504
 1715SOL    HW2 7043   5.535   7.783   3.508
 1716SOL     OW 7044   2.033   8.486  10.982
 1716SOL    HW1 7045   2.040   8.506  11.075
 1716SOL    HW2 7046   2.070   8.563  10.939
 1717SOL     OW 7047  12.692   1.344   7.382
 1717SOL    HW1 7048  12.760   1.276   7.383
 1717SOL    HW2 7049  12.617   1.304   7.427
 1718SOL     OW 7050  10.413  12.183   6.445
 1718SOL    HW1 7051  10.492  12.134   6.419
 1718SOL    HW2 7052  10.372  12.207   6.362
 1719SOL     OW 7053  14.861   9.285  10.391
 1719SOL    HW1 7054   0.011   9.334  10.470
 1719SOL    HW2 7055   0.028   9.337  10.320
 1720SOL     OW 7056  13.604  13.667   1.136
 1720SOL    HW1 7057  13.670  13.649   1.203
 1720SOL    HW2 7058  13.528  13.616   1.163
 1721SOL     OW 7059  10.110   5.017   3.795
 1721SOL    HW1 7060  10.152   5.093   3.836
 1721SOL    HW2 7061  10.177   4.983   3.736
 1722SOL     OW 7062   9.878   1.825   6.971
 1722SOL    HW1 7063   9.961   1.794   7.007
 1722SOL    HW2 7064   9.835   1.869   7.044
 1723SOL     OW 7065  14.423   6.100   7.884
 1723SOL    HW1 7066  14.507   6.105   7.930
 1723SOL    HW2 7067  14.444   6.061   7.799
 1724SOL     OW 7068  12.992   7.679   4.958
 1724SOL    HW1 7069  13.027   7.768   4.962
 1724SOL    HW2 7070  12.898   7.691   4.942
 1725SOL     OW 7071  14.366   7.850   0.791
 1725SOL    HW1 7072  14.409   7.764   0.783
 1725SOL    HW2 7073  14.439   7.911   0.805
 1726SOL     OW 7074  13.843   7.023   5.533
 1726SOL    HW1 7075  13.751   7.045   5.521
 1726SOL    HW2 7076  13.886   7.106   5.554
 1727SOL     OW 7077  13.579   8.503   5.821
 1727SOL    HW1 7078  13.607   8.433   5.763
 1727SOL    HW2 7079  13.646   8.570   5.812
 1728SOL     OW 7080   7.706   0.881   0.543
 1728SOL    HW1 7081   7.697   0.854   0.635
 1728SOL    HW2 7082   7.628   0.847   0.500
 1729SOL     OW 7083  10.287  14.839   4.741
 1729SOL    HW1 7084  10.238  14.834   4.659
 1729SOL    HW2 7085  10.259  14.762   4.790
 1730SOL     OW 7086   8.271   8.678   3.824
 1730SOL    HW1 7087   8.328   8.674   3.747
 1730SOL    HW2 7088   8.283   8.593   3.867
 1731SOL     OW 7089   4.231   0.730  13.090
 1731SOL    HW1 7090   4.186   0.675  13.026
 1731SOL    HW2 7091   4.313   0.685  13.108
 1732SOL     OW 7092   2.700   5.572   2.301
 1732SOL    HW1 7093   2.764   5.582   2.371
 1732SOL    HW2 7094   2.678   5.479   2.301
 1733SOL     OW 7095  13.639   1.591  10.930
 1733SOL    HW1 7096  13.605   1.530  10.995
 1733SOL    HW2 7097  13.597   1.566  10.848
 1734SOL     OW 7098   2.840   1.640   5.140
 1734SOL    HW1 7099   2.891   1.716   5.111
 1734SOL    HW2 7100   2.904   1.584   5.184
 1735SOL     OW 7101   3.091   7.170  11.756
 1735SOL    HW1 7102   3.167   7.142  11.807
 1735SOL    HW2 7103   3.083   7.264  11.776
 1736SOL     OW 7104  10.253   4.313   6.708
 1736SOL    HW1 7105  10.293   4.391   6.747
 1736SOL    HW2 7106  10.210   4.345   6.629
 1737SOL     OW 7107  11.767  10.576   7.608
 1737SOL    HW1 7108  11.738  10.511   7.672
 1737SOL    HW2 7109  11.722  10.551   7.527
 1738SOL     OW 7110   3.234   6.896   1.710
 1738SOL    HW1 7111   3.206   6.806   1.726
 1738SOL    HW2 7112   3.182   6.924   1.635
 1739SOL     OW 7113  13.790   0.106  13.942
 1739SOL    HW1 7114  13.733   0.039  13.980
 1739SOL    HW2 7115  13.843   0.059  13.879
 1740SOL     OW 7116   4.835   8.490   7.808
 1740SOL    HW1 7117   4.760   8.549   7.817
 1740SOL    HW2 7118   4.802   8.405   7.839
 1741SOL     OW 7119   2.289   1.531   0.802
 1741SOL    HW1 7120   2.231   1.571   0.737
 1741SOL    HW2 7121   2.271   1.437   0.795
 1742SOL     OW 7122   4.725  11.304   6.970
 1742SOL    HW1 7123   4.678  11.375   6.926
 1742SOL    HW2 7124   4.743  11.240   6.901
 1743SOL     OW 7125   1.039   6.467  13.972
 1743SOL    HW1 7126   1.064   6.496  14.060
 1743SOL    HW2 7127   1.114   6.417  13.941
 1744SOL     OW 7128   4.494   9.128  12.045
 1744SOL    HW1 7129   4.514   9.112  11.952
 1744SOL    HW2 7130   4.565   9.185  12.075
 1745SOL     OW 7131   3.583   2.100  13.091
 1745SOL    HW1 7132   3.669   2.139  13.107
 1745SOL    HW2 7133   3.550   2.147  13.013
 1746SOL     OW 7134   8.384   1.132  12.876
 1746SOL    HW1 7135   8.478   1.123  12.858
 1746SOL    HW2 7136   8.369   1.227  12.877
 1747SOL     OW 7137   1.408  10.673   2.026
 1747SOL    HW1 7138   1.376  10.588   2.056
 1747SOL    HW2 7139   1.445  10.656   1.940
 1748SOL     OW 7140   9.814  13.190  13.469
 1748SOL    HW1 7141   9.776  13.183  13.381
 1748SOL    HW2 7142   9.838  13.283  13.476
 1749SOL     OW 7143   1.317   3.734   1.376
 1749SOL    HW1 7144   1.395   3.679   1.386
 1749SOL    HW2 7145   1.293   3.725   1.284
 1750SOL     OW 7146   6.440   3.942   1.132
 1750SOL    HW1 7147   6.389   4.008   1.084
 1750SOL    HW2 7148   6.462   3.877   1.065
 1751SOL     OW 7149  10.673   5.603   4.928
 1751SOL    HW1 7150  10.673   5.511   4.902
 1751SOL    HW2 7151  10.612   5.607   5.002
 1752SOL     OW 7152   1.845   5.259   4.438
 1752SOL    HW1 7153   1.893   5.290   4.515
 1752SOL    HW2 7154   1.753   5.262   4.465
 1753SOL     OW 7155   2.944  11.406   8.128
 1753SOL    HW1 7156   2.866  11.400   8.182
 1753SOL    HW2 7157   2.987  11.321   8.139
 1754SOL     OW 7158   4.954  13.480   5.822
 1754SOL    HW1 7159   4.979  13.568   5.848
 1754SOL    HW2 7160   4.941  13.433   5.904
 1755SOL     OW 7161  11.595   4.604   7.772
 1755SOL    HW1 7162  11.691   4.605   7.780
 1755SOL    HW2 7163  11.568   4.689   7.808
 1756SOL     OW 7164  10.484   8.987   4.642
 1756SOL    HW1 7165  10.400   9.017   4.606
 1756SOL    HW2 7166  10.465   8.967   4.734
 1757SOL     OW 7167   0.937  13.703  12.804
 1757SOL    HW1 7168   0.844  13.720  12.819
 1757SOL    HW2 7169   0.957  13.751  12.724
 1758SOL     OW 7170   2.821  14.580  13.410
 1758SOL    HW1 7171   2.780  14.530  13.481
 1758SOL    HW2 7172   2.775  14.664  13.410
 1759SOL     OW 7173   8.743   3.659   5.732
 1759SOL    HW1 7174   8.671   3.608   5.695
 1759SOL    HW2 7175   8.710   3.749   5.737
 1760SOL     OW 7176  11.483  12.612   7.294
 1760SOL    HW1 7177  11.470  12.599   7.388
 1760SOL    HW2 7178  11.395  12.626   7.259
 1761SOL     OW 7179   9.737  12.067   7.742
 1761SOL    HW1 7180   9.652  12.090   7.705
 1761SOL    HW2 7181   9.788  12.148   7.737
 1762SOL     OW 7182   2.859   9.059  11.824
 1762SOL    HW1 7183   2.953   9.055  11.803
 1762SOL    HW2 7184   2.822   9.115  11.756
 1763SOL     OW 7185   8.535   8.056   0.939
 1763SOL    HW1 7186   8.490   8.110   1.003
 1763SOL    HW2 7187   8.556   7.975   0.986
 1764SOL     OW 7188  13.406   3.297   7.602
 1764SOL    HW1 7189  13.371   3.383   7.625
 1764SOL    HW2 7190  13.344   3.262   7.538
 1765SOL     OW 7191   9.473  11.443   8.400
 1765SOL    HW1 7192   9.446  11.505   8.468
 1765SOL    HW2 7193   9.432  11.360   8.424
 1766SOL     OW 7194   8.853   0.562   3.025
 1766SOL    HW1 7195   8.855   0.657   3.036
 1766SOL    HW2 7196   8.783   0.547   2.961
 1767SOL     OW 7197   6.603  12.945  11.823
 1767SOL    HW1 7198   6.517  12.975  11.853
 1767SOL    HW2 7199   6.615  12.860  11.865
 1768SOL     OW 7200   5.568   0.270   9.710
 1768SOL    HW1 7201   5.653   0.238   9.679
 1768SOL    HW2 7202   5.504   0.226   9.655
 1769SOL     OW 7203   0.916  11.329   5.564
 1769SOL    HW1 7204   0.947  11.250   5.518
 1769SOL    HW2 7205   0.915  11.303   5.656
 1770SOL     OW 7206   4.691   7.427   8.130
 1770SOL    HW1 7207   4.691   7.407   8.224
 1770SOL    HW2 7208   4.679   7.341   8.088
 1771SOL     OW 7209   9.572   5.043   7.344
 1771SOL    HW1 7210   9.498   5.032   7.283
 1771SOL    HW2 7211   9.603   4.954   7.360
 1772SOL     OW 7212   6.893   0.446   4.908
 1772SOL    HW1 7213   6.915   0.457   5.000
 1772SOL    HW2 7214   6.797   0.447   4.906
 1773SOL     OW 7215   7.803   9.571   3.199
 1773SOL    HW1 7216   7.817   9.666   3.200
 1773SOL    HW2 7217   7.708   9.561   3.206
 1774SOL     OW 7218  12.986   4.266  10.015
 1774SOL    HW1 7219  12.917   4.327   9.989
 1774SOL    HW2 7220  13.032   4.310  10.086
 1775SOL     OW 7221   6.992  14.841   0.227
 1775SOL    HW1 7222   6.956  14.757   0.199
 1775SOL    HW2 7223   6.917   0.029   0.228
 1776SOL     OW 7224  14.544   3.305  12.251
 1776SOL    HW1 7225  14.515   3.339  12.336
 1776SOL    HW2 7226  14.465   3.310  12.196
 1777SOL     OW 7227  14.700   7.385   4.875
 1777SOL    HW1 7228  14.677   7.317   4.812
 1777SOL    HW2 7229  14.737   7.338   4.949
 1778SOL     OW 7230   8.233  12.782  14.539
 1778SOL    HW1 7231   8.328  12.790  14.548
 1778SOL    HW2 7232   8.213  12.693  14.568
 1779SOL     OW 7233   8.440   3.468   2.958
 1779SOL    HW1 7234   8.466   3.391   3.009
 1779SOL    HW2 7235   8.409   3.531   3.023
 1780SOL     OW 7236  13.335   4.206  13.004
 1780SOL    HW1 7237  13.285   4.273  12.958
 1780SOL    HW2 7238  13.284   4.126  12.994
 1781SOL     OW 7239   9.882   7.208   2.965
 1781SOL    HW1 7240   9.954   7.168   3.013
 1781SOL    HW2 7241   9.896   7.182   2.874
 1782SOL     OW 7242   2.341  11.726  14.350
 1782SOL    HW1 7243   2.417  11.777  14.378
 1782SOL    HW2 7244   2.303  11.777  14.279
 1783SOL     OW 7245   5.261   4.123   7.729
 1783SOL    HW1 7246   5.247   4.194   7.792
 1783SOL    HW2 7247   5.345   4.144   7.688
 1784SOL     OW 7248   4.343   9.952   5.202
 1784SOL    HW1 7249   4.378   9.988   5.121
 1784SOL    HW2 7250   4.418   9.949   5.261
 1785SOL     OW 7251   5.241  14.708   0.176
 1785SOL    HW1 7252   5.287  14.734   0.096
 1785SOL    HW2 7253   5.214  14.790   0.217
 1786SOL     OW 7254   1.016  11.792   0.145
 1786SOL    HW1 7255   0.951  11.847   0.102
 1786SOL    HW2 7256   1.012  11.709   0.097
 1787SOL     OW 7257   5.458  10.329   2.606
 1787SOL    HW1 7258   5.376  10.286   2.582
 1787SOL    HW2 7259   5.513  10.319   2.528
 1788SOL     OW 7260   6.035   6.754  11.379
 1788SOL    HW1 7261   5.985   6.828  11.414
 1788SOL    HW2 7262   6.125   6.785  11.375
 1789SOL     OW 7263   3.310   2.000   9.485
 1789SOL    HW1 7264   3.294   2.014   9.392
 1789SOL    HW2 7265   3.343   2.084   9.517
 1790SOL     OW 7266   4.974   0.555   7.749
 1790SOL    HW1 7267   4.889   0.515   7.734
 1790SOL    HW2 7268   4.970   0.587   7.839
 1791SOL     OW 7269  10.592   3.512   8.720
 1791SOL    HW1 7270  10.558   3.549   8.802
 1791SOL    HW2 7271  10.515   3.473   8.678
 1792SOL     OW 7272   6.547   3.665   1.351
 1792SOL    HW1 7273   6.502   3.697   1.429
 1792SOL    HW2 7274   6.479   3.619   1.301
 1793SOL     OW 7275   7.952   7.496  10.709
 1793SOL    HW1 7276   7.998   7.580  10.707
 1793SOL    HW2 7277   7.867   7.517  10.747
 1794SOL     OW 7278   3.567   3.616  11.899
 1794SOL    HW1 7279   3.588   3.528  11.870
 1794SOL    HW2 7280   3.476   3.630  11.872
 1795SOL     OW 7281   4.260   0.365  14.393
 1795SOL    HW1 7282   4.264   0.439  14.332
 1795SOL    HW2 7283   4.169   0.336  14.388
 1796SOL     OW 7284  11.239  10.367  12.185
 1796SOL    HW1 7285  11.229  10.280  12.146
 1796SOL    HW2 7286  11.152  10.388  12.218
 1797SOL     OW 7287   1.818  12.488   2.390
 1797SOL    HW1 7288   1.777  12.408   2.358
 1797SOL    HW2 7289   1.905  12.461   2.419
 1798SOL     OW 7290   5.769   9.391   9.641
 1798SOL    HW1 7291   5.786   9.453   9.712
 1798SOL    HW2 7292   5.834   9.412   9.574
 1799SOL     OW 7293   6.492  14.800   2.367
 1799SOL    HW1 7294   6.454   0.005   2.324
 1799SOL    HW2 7295   6.442  14.726   2.334
 1800SOL     OW 7296   6.346   9.663   0.309
 1800SOL    HW1 7297   6.302   9.673   0.393
 1800SOL    HW2 7298   6.356   9.568   0.298
 1801SOL     OW 7299   7.060  14.444   9.171
 1801SOL    HW1 7300   6.988  14.454   9.110
 1801SOL    HW2 7301   7.020  14.453   9.258
 1802SOL     OW 7302   4.273   8.141   4.223
 1802SOL    HW1 7303   4.196   8.116   4.273
 1802SOL    HW2 7304   4.251   8.226   4.185
 1803SOL     OW 7305   3.602   0.126  10.289
 1803SOL    HW1 7306   3.551   0.199  10.252
 1803SOL    HW2 7307   3.587   0.132  10.383
 1804SOL     OW 7308   8.865   6.344   9.749
 1804SOL    HW1 7309   8.816   6.349   9.832
 1804SOL    HW2 7310   8.942   6.291   9.769
 1805SOL     OW 7311  10.556  11.498   8.964
 1805SOL    HW1 7312  10.619  11.460   9.026
 1805SOL    HW2 7313  10.478  11.515   9.016
 1806SOL     OW 7314   4.290  12.640   7.777
 1806SOL    HW1 7315   4.327  12.728   7.787
 1806SOL    HW2 7316   4.362  12.581   7.799
 1807SOL     OW 7317  14.250   0.450  14.340
 1807SOL    HW1 7318  14.164   0.430  14.304
 1807SOL    HW2 7319  14.287   0.513  14.278
 1808SOL     OW 7320   5.793   0.503   4.023
 1808SOL    HW1 7321   5.763   0.415   4.045
 1808SOL    HW2 7322   5.824   0.496   3.933
 1809SOL     OW 7323   6.233   6.215   8.143
 1809SOL    HW1 7324   6.321   6.208   8.105
 1809SOL    HW2 7325   6.219   6.310   8.153
 1810SOL     OW 7326  10.670   4.957   9.568
 1810SOL    HW1 7327  10.603   4.966   9.636
 1810SOL    HW2 7328  10.648   5.024   9.504
 1811SOL     OW 7329  12.626   8.583   1.826
 1811SOL    HW1 7330  12.689   8.610   1.759
 1811SOL    HW2 7331  12.624   8.655   1.888
 1812SOL     OW 7332  13.072  14.389   6.418
 1812SOL    HW1 7333  13.072  14.460   6.354
 1812SOL    HW2 7334  13.105  14.429   6.498
 1813SOL     OW 7335   6.232   5.751   2.518
 1813SOL    HW1 7336   6.311   5.704   2.492
 1813SOL    HW2 7337   6.264   5.826   2.569
 1814SOL     OW 7338  10.240  13.035   3.327
 1814SOL    HW1 7339  10.264  13.122   3.294
 1814SOL    HW2 7340  10.194  12.993   3.254
 1815SOL     OW 7341   9.919   8.148   7.349
 1815SOL    HW1 7342   9.999   8.121   7.304
 1815SOL    HW2 7343   9.851   8.142   7.281
 1816SOL     OW 7344   9.481   3.246  13.950
 1816SOL    HW1 7345   9.491   3.325  14.004
 1816SOL    HW2 7346   9.552   3.251  13.887
 1817SOL     OW 7347   2.542   7.817  12.957
 1817SOL    HW1 7348   2.621   7.842  12.909
 1817SOL    HW2 7349   2.479   7.886  12.938
 1818SOL     OW 7350  11.012  11.019   0.443
 1818SOL    HW1 7351  10.958  10.958   0.493
 1818SOL    HW2 7352  11.043  10.968   0.369
 1819SOL     OW 7353  14.271  13.164   1.060
 1819SOL    HW1 7354  14.229  13.249   1.073
 1819SOL    HW2 7355  14.209  13.101   1.098
 1820SOL     OW 7356   9.188   6.383  14.648
 1820SOL    HW1 7357   9.219   6.325  14.718
 1820SOL    HW2 7358   9.182   6.326  14.571
 1821SOL     OW 7359   4.248   2.591   4.780
 1821SOL    HW1 7360   4.159   2.572   4.751
 1821SOL    HW2 7361   4.293   2.622   4.702
 1822SOL     OW 7362  11.261   7.933   4.956
 1822SOL    HW1 7363  11.351   7.916   4.985
 1822SOL    HW2 7364  11.207   7.900   5.027
 1823SOL     OW 7365  12.574   6.141   0.972
 1823SOL    HW1 7366  12.511   6.212   0.960
 1823SOL    HW2 7367  12.586   6.104   0.884
 1824SOL     OW 7368  12.893   2.316   6.689
 1824SOL    HW1 7369  12.858   2.345   6.605
 1824SOL    HW2 7370  12.957   2.383   6.712
 1825SOL     OW 7371   1.231   0.365  11.141
 1825SOL    HW1 7372   1.242   0.271  11.151
 1825SOL    HW2 7373   1.267   0.402  11.222
 1826SOL     OW 7374   5.245   0.708   4.880
 1826SOL    HW1 7375   5.178   0.742   4.938
 1826SOL    HW2 7376   5.231   0.614   4.879
 1827SOL     OW 7377  11.053  10.487   1.805
 1827SOL    HW1 7378  10.975  10.432   1.798
 1827SOL    HW2 7379  11.033  10.564   1.752
 1828SOL     OW 7380   9.814   8.521   1.124
 1828SOL    HW1 7381   9.725   8.555   1.139
 1828SOL    HW2 7382   9.844   8.494   1.211
 1829SOL     OW 7383   4.232   0.303   5.710
 1829SOL    HW1 7384   4.270   0.238   5.769
 1829SOL    HW2 7385   4.157   0.338   5.757
 1830SOL     OW 7386  12.618   5.463   7.152
 1830SOL    HW1 7387  12.682   5.393   7.157
 1830SOL    HW2 7388  12.538   5.426   7.189
 1831SOL     OW 7389   4.400   3.376  10.278
 1831SOL    HW1 7390   4.385   3.303  10.218
 1831SOL    HW2 7391   4.406   3.336  10.365
 1832SOL     OW 7392   6.654  10.501   8.177
 1832SOL    HW1 7393   6.746  10.483   8.198
 1832SOL    HW2 7394   6.616  10.415   8.160
 1833SOL     OW 7395  11.229  14.778   1.403
 1833SOL    HW1 7396  11.234  14.817   1.315
 1833SOL    HW2 7397  11.154  14.718   1.397
 1834SOL     OW 7398   8.200   1.430   8.745
 1834SOL    HW1 7399   8.156   1.514   8.736
 1834SOL    HW2 7400   8.183   1.385   8.662
 1835SOL     OW 7401   9.376   7.048   8.387
 1835SOL    HW1 7402   9.378   7.130   8.437
 1835SOL    HW2 7403   9.308   6.996   8.430
 1836SOL     OW 7404  11.018   0.491  11.204
 1836SOL    HW1 7405  11.062   0.553  11.146
 1836SOL    HW2 7406  11.088   0.436  11.239
 1837SOL     OW 7407   3.076   9.322   8.473
 1837SOL    HW1 7408   3.063   9.241   8.425
 1837SOL    HW2 7409   3.097   9.294   8.563
 1838SOL     OW 7410  13.983  10.295   4.558
 1838SOL    HW1 7411  13.907  10.249   4.595
 1838SOL    HW2 7412  14.055  10.273   4.617
 1839SOL     OW 7413   8.741   8.206   8.545
 1839SOL    HW1 7414   8.665   8.161   8.583
 1839SOL    HW2 7415   8.709   8.243   8.463
 1840SOL     OW 7416   0.542   1.502  14.607
 1840SOL    HW1 7417   0.508   1.584  14.643
 1840SOL    HW2 7418   0.620   1.483  14.660
 1841SOL     OW 7419   2.485   5.426   2.025
 1841SOL    HW1 7420   2.441   5.345   1.997
 1841SOL    HW2 7421   2.431   5.458   2.098
 1842SOL     OW 7422   1.343   6.380   5.540
 1842SOL    HW1 7423   1.303   6.322   5.605
 1842SOL    HW2 7424   1.386   6.448   5.592
 1843SOL     OW 7425   6.314  12.580   0.015
 1843SOL    HW1 7426   6.253  12.509  14.866
 1843SOL    HW2 7427   6.326  12.625  14.803
 1844SOL     OW 7428   5.159   0.428   2.226
 1844SOL    HW1 7429   5.085   0.384   2.184
 1844SOL    HW2 7430   5.227   0.361   2.231
 1845SOL     OW 7431  14.501   1.141   1.329
 1845SOL    HW1 7432  14.472   1.223   1.369
 1845SOL    HW2 7433  14.552   1.097   1.397
 1846SOL     OW 7434   1.467   5.900  11.618
 1846SOL    HW1 7435   1.509   5.967  11.672
 1846SOL    HW2 7436   1.478   5.819  11.668
 1847SOL     OW 7437  12.828   4.734   4.356
 1847SOL    HW1 7438  12.828   4.741   4.452
 1847SOL    HW2 7439  12.865   4.647   4.339
 1848SOL     OW 7440   8.198   0.102  13.858
 1848SOL    HW1 7441   8.212   0.121  13.765
 1848SOL    HW2 7442   8.285   0.111  13.897
 1849SOL     OW 7443  10.802  13.274   6.764
 1849SOL    HW1 7444  10.895  13.251   6.754
 1849SOL    HW2 7445  10.803  13.368   6.782
 1850SOL     OW 7446  11.240  12.019  10.062
 1850SOL    HW1 7447  11.255  12.083  10.131
 1850SOL    HW2 7448  11.153  12.042  10.027
 1851SOL     OW 7449   5.948   5.017   5.537
 1851SOL    HW1 7450   5.978   5.107   5.538
 1851SOL    HW2 7451   5.853   5.024   5.524
 1852SOL     OW 7452  13.240  14.526  13.580
 1852SOL    HW1 7453  13.327  14.514  13.542
 1852SOL    HW2 7454  13.220  14.618  13.565
 1853SOL     OW 7455  14.757   8.553  11.246
 1853SOL    HW1 7456  14.814   8.619  11.287
 1853SOL    HW2 7457  14.707   8.602  11.181
 1854SOL     OW 7458   4.488   5.657  10.513
 1854SOL    HW1 7459   4.466   5.571  10.548
 1854SOL    HW2 7460   4.514   5.640  10.422
 1855SOL     OW 7461   5.577   3.433  13.828
 1855SOL    HW1 7462   5.620   3.400  13.907
 1855SOL    HW2 7463   5.535   3.356  13.789
 1856SOL     OW 7464   7.724   7.020   8.829
 1856SOL    HW1 7465   7.704   7.010   8.736
 1856SOL    HW2 7466   7.814   7.051   8.831
 1857SOL     OW 7467   9.612   1.206   6.394
 1857SOL    HW1 7468   9.649   1.187   6.308
 1857SOL    HW2 7469   9.636   1.131   6.449
 1858SOL     OW 7470   4.012   7.248   6.400
 1858SOL    HW1 7471   3.988   7.314   6.465
 1858SOL    HW2 7472   4.030   7.169   6.452
 1859SOL     OW 7473  14.734   7.729   5.064
 1859SOL    HW1 7474  14.765   7.681   4.987
 1859SOL    HW2 7475  14.719   7.818   5.033
 1860SOL     OW 7476  13.527   5.789  12.369
 1860SOL    HW1 7477  13.451   5.751  12.324
 1860SOL    HW2 7478  13.556   5.720  12.430
 1861SOL     OW 7479   9.220  14.324  11.076
 1861SOL    HW1 7480   9.248  14.283  10.994
 1861SOL    HW2 7481   9.280  14.290  11.142
 1862SOL     OW 7482  13.403   8.116   6.412
 1862SOL    HW1 7483  13.491   8.081   6.397
 1862SOL    HW2 7484  13.369   8.133   6.324
 1863SOL     OW 7485   3.748   3.202   8.378
 1863SOL    HW1 7486   3.741   3.281   8.432
 1863SOL    HW2 7487   3.711   3.133   8.432
 1864SOL     OW 7488   4.989   1.899   6.339
 1864SOL    HW1 7489   5.035   1.956   6.402
 1864SOL    HW2 7490   4.922   1.855   6.391
 1865SOL     OW 7491   5.832   3.315   1.495
 1865SOL    HW1 7492   5.869   3.392   1.453
 1865SOL    HW2 7493   5.781   3.272   1.427
 1866SOL     OW 7494  10.532   8.917  10.664
 1866SOL    HW1 7495  10.624   8.922  10.691
 1866SOL    HW2 7496  10.525   8.981  10.594
 1867SOL     OW 7497  10.365  10.315  12.983
 1867SOL    HW1 7498  10.454  10.320  13.017
 1867SOL    HW2 7499  10.312  10.359  13.050
 1868SOL     OW 7500   0.230   8.331  12.859
 1868SOL    HW1 7501   0.199   8.356  12.772
 1868SOL    HW2 7502   0.209   8.406  12.914
 1869SOL     OW 7503  12.481   5.768   6.162
 1869SOL    HW1 7504  12.460   5.853   6.124
 1869SOL    HW2 7505  12.575   5.757   6.145
 1870SOL     OW 7506   7.630   7.173   6.081
 1870SOL    HW1 7507   7.662   7.176   5.991
 1870SOL    HW2 7508   7.703   7.204   6.134
 1871SOL     OW 7509   8.105   7.135   8.275
 1871SOL    HW1 7510   8.045   7.063   8.296
 1871SOL    HW2 7511   8.058   7.214   8.301
 1872SOL     OW 7512  14.384  12.459   2.320
 1872SOL    HW1 7513  14.296  12.479   2.288
 1872SOL    HW2 7514  14.400  12.369   2.293
 1873SOL     OW 7515  10.839   0.824  13.507
 1873SOL    HW1 7516  10.818   0.915  13.486
 1873SOL    HW2 7517  10.873   0.827  13.596
 1874SOL     OW 7518  14.575   2.736   5.719
 1874SOL    HW1 7519  14.623   2.819   5.722
 1874SOL    HW2 7520  14.643   2.670   5.708
 1875SOL     OW 7521   0.517   6.456   3.796
 1875SOL    HW1 7522   0.425   6.465   3.772
 1875SOL    HW2 7523   0.550   6.388   3.738
 1876SOL     OW 7524   6.455   8.926   1.321
 1876SOL    HW1 7525   6.377   8.973   1.352
 1876SOL    HW2 7526   6.444   8.837   1.356
 1877SOL     OW 7527   6.172   5.485   9.684
 1877SOL    HW1 7528   6.090   5.532   9.671
 1877SOL    HW2 7529   6.156   5.427   9.758
 1878SOL     OW 7530   8.717   7.294   0.557
 1878SOL    HW1 7531   8.754   7.290   0.645
 1878SOL    HW2 7532   8.702   7.203   0.533
 1879SOL     OW 7533   8.662   5.054  14.124
 1879SOL    HW1 7534   8.731   5.109  14.087
 1879SOL    HW2 7535   8.620   5.014  14.048
 1880SOL     OW 7536   3.471   2.672   3.834
 1880SOL    HW1 7537   3.512   2.619   3.766
 1880SOL    HW2 7538   3.540   2.730   3.866
 1881SOL     OW 7539   1.170   2.148   5.390
 1881SOL    HW1 7540   1.075   2.162   5.399
 1881SOL    HW2 7541   1.184   2.060   5.425
 1882SOL     OW 7542   8.958  12.140   9.224
 1882SOL    HW1 7543   9.050  12.153   9.204
 1882SOL    HW2 7544   8.934  12.060   9.177
 1883SOL     OW 7545   1.876   9.734  13.596
 1883SOL    HW1 7546   1.925   9.676  13.654
 1883SOL    HW2 7547   1.812   9.678  13.553
 1884SOL     OW 7548  14.762   6.682   0.060
 1884SOL    HW1 7549  14.726   6.764   0.027
 1884SOL    HW2 7550  14.685   6.628   0.078
 1885SOL     OW 7551   2.091   5.609  11.453
 1885SOL    HW1 7552   2.012   5.599  11.505
 1885SOL    HW2 7553   2.095   5.530  11.398
 1886SOL     OW 7554   1.067  13.332   2.903
 1886SOL    HW1 7555   1.016  13.252   2.890
 1886SOL    HW2 7556   1.066  13.375   2.818
 1887SOL     OW 7557   5.184   2.845   9.818
 1887SOL    HW1 7558   5.215   2.786   9.749
 1887SOL    HW2 7559   5.260   2.857   9.875
 1888SOL     OW 7560   0.388  13.419   2.255
 1888SOL    HW1 7561   0.399  13.343   2.198
 1888SOL    HW2 7562   0.370  13.382   2.341
 1889SOL     OW 7563  12.899   5.176   6.450
 1889SOL    HW1 7564  12.942   5.189   6.365
 1889SOL    HW2 7565  12.968   5.142   6.507
 1890SOL     OW 7566  11.854   8.564  11.843
 1890SOL    HW1 7567  11.834   8.578  11.935
 1890SOL    HW2 7568  11.907   8.639  11.818
 1891SOL     OW 7569   4.159   3.149  14.238
 1891SOL    HW1 7570   4.188   3.058  14.239
 1891SOL    HW2 7571   4.084   3.151  14.298
 1892SOL     OW 7572  11.936   3.551  12.492
 1892SOL    HW1 7573  11.900   3.462  12.490
 1892SOL    HW2 7574  11.990   3.557  12.413
 1893SOL     OW 7575  13.634  10.157   0.447
 1893SOL    HW1 7576  13.579  10.134   0.372
 1893SOL    HW2 7577  13.724  10.146   0.416
 1894SOL     OW 7578  10.780   8.779   5.259
 1894SOL    HW1 7579  10.810   8.739   5.340
 1894SOL    HW2 7580  10.808   8.718   5.191
 1895SOL     OW 7581  11.528  14.506  14.366
 1895SOL    HW1 7582  11.465  14.511  14.294
 1895SOL    HW2 7583  11.547  14.598  14.386
 1896SOL     OW 7584  10.719   7.428   5.959
 1896SOL    HW1 7585  10.803   7.464   5.930
 1896SOL    HW2 7586  10.708   7.461   6.048
 1897SOL     OW 7587   6.006   3.125   3.458
 1897SOL    HW1 7588   5.996   3.200   3.517
 1897SOL    HW2 7589   5.920   3.084   3.456
 1898SOL     OW 7590   4.231   9.465  13.173
 1898SOL    HW1 7591   4.173   9.533  13.206
 1898SOL    HW2 7592   4.269   9.425  13.251
 1899SOL     OW 7593   0.557  12.911   4.725
 1899SOL    HW1 7594   0.619  12.952   4.665
 1899SOL    HW2 7595   0.481  12.891   4.671
 1900SOL     OW 7596  12.019   3.913  11.513
 1900SOL    HW1 7597  11.949   3.979  11.512
 1900SOL    HW2 7598  12.098   3.962  11.492
 1901SOL     OW 7599  10.973   7.429  14.808
 1901SOL    HW1 7600  10.951   7.519  14.830
 1901SOL    HW2 7601  11.063   7.418  14.837
 1902SOL     OW 7602  11.458   0.943   8.403
 1902SOL    HW1 7603  11.516   0.868   8.388
 1902SOL    HW2 7604  11.431   0.936   8.494
 1903SOL     OW 7605   2.762   9.291   6.008
 1903SOL    HW1 7606   2.758   9.386   6.001
 1903SOL    HW2 7607   2.673   9.264   6.027
 1904SOL     OW 7608   0.237   4.904   8.388
 1904SOL    HW1 7609   0.278   4.970   8.444
 1904SOL    HW2 7610   0.271   4.923   8.301
 1905SOL     OW 7611  10.648  11.242   7.598
 1905SOL    HW1 7612  10.620  11.326   7.635
 1905SOL    HW2 7613  10.630  11.178   7.668
 1906SOL     OW 7614  14.576  11.930  11.144
 1906SOL    HW1 7615  14.666  11.937  11.113
 1906SOL    HW2 7616  14.542  12.019  11.140
 1907SOL     OW 7617   7.805   6.637   4.286
 1907SOL    HW1 7618   7.873   6.636   4.354
 1907SOL    HW2 7619   7.834   6.705   4.225
 1908SOL     OW 7620  11.002  10.261  12.779
 1908SOL    HW1 7621  10.959  10.319  12.716
 1908SOL    HW2 7622  10.935  10.244  12.846
 1909SOL     OW 7623   4.682  14.240   4.793
 1909SOL    HW1 7624   4.613  14.297   4.760
 1909SOL    HW2 7625   4.640  14.185   4.859
 1910SOL     OW 7626   6.000   0.435   1.161
 1910SOL    HW1 7627   5.981   0.359   1.105
 1910SOL    HW2 7628   5.924   0.491   1.151
 1911SOL     OW 7629   6.957   5.469  14.252
 1911SOL    HW1 7630   6.888   5.429  14.305
 1911SOL    HW2 7631   6.911   5.505  14.176
 1912SOL     OW 7632   7.015  13.312   3.041
 1912SOL    HW1 7633   7.006  13.399   3.003
 1912SOL    HW2 7634   7.095  13.277   3.002
 1913SOL     OW 7635   3.716   7.403   7.366
 1913SOL    HW1 7636   3.795   7.434   7.408
 1913SOL    HW2 7637   3.693   7.323   7.413
 1914SOL     OW 7638   9.832   3.028   2.452
 1914SOL    HW1 7639   9.895   2.985   2.509
 1914SOL    HW2 7640   9.881   3.051   2.374
 1915SOL     OW 7641   9.760   8.933  12.557
 1915SOL    HW1 7642   9.838   8.888  12.526
 1915SOL    HW2 7643   9.716   8.962  12.476
 1916SOL     OW 7644   0.016  10.435   4.762
 1916SOL    HW1 7645   0.084  10.495   4.731
 1916SOL    HW2 7646  14.808  10.463   4.717
 1917SOL     OW 7647   3.173   7.377   2.864
 1917SOL    HW1 7648   3.103   7.367   2.801
 1917SOL    HW2 7649   3.253   7.364   2.814
 1918SOL     OW 7650  10.358  11.308   2.411
 1918SOL    HW1 7651  10.299  11.261   2.470
 1918SOL    HW2 7652  10.379  11.245   2.342
 1919SOL     OW 7653   6.775   1.338  10.571
 1919SOL    HW1 7654   6.776   1.249  10.537
 1919SOL    HW2 7655   6.687   1.371  10.553
 1920SOL     OW 7656  13.335  13.857  12.859
 1920SOL    HW1 7657  13.347  13.817  12.944
 1920SOL    HW2 7658  13.246  13.833  12.833
 1921SOL     OW 7659  10.228   6.609   7.394
 1921SOL    HW1 7660  10.319   6.587   7.374
 1921SOL    HW2 7661  10.181   6.595   7.311
 1922SOL     OW 7662   0.084   2.958   6.143
 1922SOL    HW1 7663   0.098   3.018   6.217
 1922SOL    HW2 7664   0.085   3.016   6.066
 1923SOL     OW 7665   1.639  11.258   3.832
 1923SOL    HW1 7666   1.586  11.322   3.879
 1923SOL    HW2 7667   1.727  11.294   3.834
 1924SOL     OW 7668   6.263  14.785  11.951
 1924SOL    HW1 7669   6.222  14.868  11.926
 1924SOL    HW2 7670   6.206  14.718  11.914
 1925SOL     OW 7671   6.166  13.821   2.501
 1925SOL    HW1 7672   6.107  13.873   2.556
 1925SOL    HW2 7673   6.150  13.730   2.529
 1926SOL     OW 7674  13.027  13.453   3.004
 1926SOL    HW1 7675  12.995  13.450   3.094
 1926SOL    HW2 7676  13.063  13.365   2.989
 1927SOL     OW 7677   2.030   2.623   7.520
 1927SOL    HW1 7678   2.070   2.677   7.451
 1927SOL    HW2 7679   1.945   2.597   7.483
 1928SOL     OW 7680   3.994   3.891   5.118
 1928SOL    HW1 7681   3.899   3.897   5.125
 1928SOL    HW2 7682   4.016   3.943   5.041
 1929SOL     OW 7683   5.637  13.201   0.761
 1929SOL    HW1 7684   5.567  13.167   0.816
 1929SOL    HW2 7685   5.650  13.291   0.790
 1930SOL     OW 7686  13.507  14.193  12.515
 1930SOL    HW1 7687  13.474  14.153  12.435
 1930SOL    HW2 7688  13.589  14.147  12.534
 1931SOL     OW 7689   0.352   6.008   6.628
 1931SOL    HW1 7690   0.401   6.090   6.635
 1931SOL    HW2 7691   0.393   5.961   6.556
 1932SOL     OW 7692  10.530  11.601  10.506
 1932SOL    HW1 7693  10.548  11.640  10.421
 1932SOL    HW2 7694  10.558  11.667  10.570
 1933SOL     OW 7695  12.075  10.108  10.545
 1933SOL    HW1 7696  12.051  10.015  10.552
 1933SOL    HW2 7697  12.136  10.123  10.616
 1934SOL     OW 7698   3.901  11.790  14.182
 1934SOL    HW1 7699   3.904  11.763  14.091
 1934SOL    HW2 7700   3.906  11.886  14.180
 1935SOL     OW 7701  13.656   0.449   8.291
 1935SOL    HW1 7702  13.717   0.498   8.236
 1935SOL    HW2 7703  13.586   0.422   8.231
 1936SOL     OW 7704   9.950   1.455  12.046
 1936SOL    HW1 7705   9.914   1.480  11.960
 1936SOL    HW2 7706   9.879   1.409  12.089
 1937SOL     OW 7707   4.697   2.315  12.050
 1937SOL    HW1 7708   4.712   2.222  12.035
 1937SOL    HW2 7709   4.784   2.355  12.042
 1938SOL     OW 7710   9.802   2.223   2.283
 1938SOL    HW1 7711   9.778   2.132   2.264
 1938SOL    HW2 7712   9.719   2.271   2.276
 1939SOL     OW 7713   0.601  11.639   6.647
 1939SOL    HW1 7714   0.612  11.561   6.700
 1939SOL    HW2 7715   0.508  11.642   6.626
 1940SOL     OW 7716   1.065  11.836   2.324
 1940SOL    HW1 7717   1.074  11.772   2.253
 1940SOL    HW2 7718   0.978  11.820   2.360
 1941SOL     OW 7719  12.682   9.680   1.686
 1941SOL    HW1 7720  12.660   9.767   1.721
 1941SOL    HW2 7721  12.635   9.619   1.743
 1942SOL     OW 7722  14.425  13.440   2.013
 1942SOL    HW1 7723  14.341  13.403   2.041
 1942SOL    HW2 7724  14.456  13.490   2.089
 1943SOL     OW 7725   0.247   9.981   8.027
 1943SOL    HW1 7726   0.245   9.956   8.119
 1943SOL    HW2 7727   0.336   9.959   7.998
 1944SOL     OW 7728   4.931  12.462   2.550
 1944SOL    HW1 7729   4.928  12.505   2.636
 1944SOL    HW2 7730   5.022  12.472   2.521
 1945SOL     OW 7731   5.000  11.042   6.312
 1945SOL    HW1 7732   4.966  11.072   6.396
 1945SOL    HW2 7733   5.084  11.002   6.333
 1946SOL     OW 7734  12.251   5.884  11.944
 1946SOL    HW1 7735  12.231   5.797  11.911
 1946SOL    HW2 7736  12.305   5.924  11.875
 1947SOL     OW 7737   2.876   7.370   5.238
 1947SOL    HW1 7738   2.799   7.333   5.195
 1947SOL    HW2 7739   2.919   7.422   5.171
 1948SOL     OW 7740   8.480   4.499   9.565
 1948SOL    HW1 7741   8.393   4.517   9.530
 1948SOL    HW2 7742   8.535   4.570   9.530
 1949SOL     OW 7743  13.880   3.995  10.579
 1949SOL    HW1 7744  13.874   4.039  10.664
 1949SOL    HW2 7745  13.808   4.031  10.528
 1950SOL     OW 7746  10.422   6.489   9.447
 1950SOL    HW1 7747  10.419   6.499   9.542
 1950SOL    HW2 7748  10.350   6.544   9.415
 1951SOL     OW 7749  10.974  10.269   6.850
 1951SOL    HW1 7750  10.921  10.196   6.882
 1951SOL    HW2 7751  10.937  10.289   6.764
 1952SOL     OW 7752   3.739   8.837   0.783
 1952SOL    HW1 7753   3.763   8.752   0.746
 1952SOL    HW2 7754   3.703   8.886   0.709
 1953SOL     OW 7755   7.309   3.303   7.766
 1953SOL    HW1 7756   7.280   3.344   7.847
 1953SOL    HW2 7757   7.257   3.223   7.759
 1954SOL     OW 7758   2.195   7.591   3.624
 1954SOL    HW1 7759   2.252   7.518   3.648
 1954SOL    HW2 7760   2.224   7.664   3.678
 1955SOL     OW 7761   8.484   3.589   5.395
 1955SOL    HW1 7762   8.417   3.614   5.331
 1955SOL    HW2 7763   8.450   3.510   5.436
 1956SOL     OW 7764   6.448  14.844   9.177
 1956SOL    HW1 7765   6.535   0.011   9.179
 1956SOL    HW2 7766   6.418  14.856   9.087
 1957SOL     OW 7767   2.422  11.195  11.864
 1957SOL    HW1 7768   2.496  11.241  11.824
 1957SOL    HW2 7769   2.389  11.139  11.794
 1958SOL     OW 7770   4.243  12.323   0.581
 1958SOL    HW1 7771   4.174  12.258   0.593
 1958SOL    HW2 7772   4.250  12.332   0.486
 1959SOL     OW 7773   4.534  11.319   3.337
 1959SOL    HW1 7774   4.524  11.364   3.422
 1959SOL    HW2 7775   4.581  11.382   3.282
 1960SOL     OW 7776  13.978  12.933  10.063
 1960SOL    HW1 7777  13.996  12.948   9.970
 1960SOL    HW2 7778  13.896  12.884  10.064
 1961SOL     OW 7779   1.318   4.351   2.764
 1961SOL    HW1 7780   1.321   4.257   2.784
 1961SOL    HW2 7781   1.410   4.379   2.770
 1962SOL     OW 7782   6.754   0.505   2.050
 1962SOL    HW1 7783   6.738   0.458   1.968
 1962SOL    HW2 7784   6.674   0.555   2.065
 1963SOL     OW 7785  14.170   0.198   5.652
 1963SOL    HW1 7786  14.223   0.153   5.718
 1963SOL    HW2 7787  14.232   0.225   5.585
 1964SOL     OW 7788   5.880  13.258   8.208
 1964SOL    HW1 7789   5.941  13.251   8.134
 1964SOL    HW2 7790   5.930  13.303   8.276
 1965SOL     OW 7791   0.900  10.049   3.805
 1965SOL    HW1 7792   0.926   9.957   3.799
 1965SOL    HW2 7793   0.925  10.086   3.721
 1966SOL     OW 7794   2.053   0.984   4.269
 1966SOL    HW1 7795   2.144   0.961   4.252
 1966SOL    HW2 7796   2.057   1.060   4.326
 1967SOL     OW 7797  12.873   6.593   1.986
 1967SOL    HW1 7798  12.964   6.610   1.964
 1967SOL    HW2 7799  12.863   6.498   1.973
 1968SOL     OW 7800   0.577   3.565   2.954
 1968SOL    HW1 7801   0.486   3.584   2.930
 1968SOL    HW2 7802   0.622   3.552   2.870
 1969SOL     OW 7803   2.545   8.007   4.668
 1969SOL    HW1 7804   2.496   7.966   4.597
 1969SOL    HW2 7805   2.627   7.957   4.673
 1970SOL     OW 7806  14.322   1.563  13.835
 1970SOL    HW1 7807  14.383   1.634  13.816
 1970SOL    HW2 7808  14.375   1.496  13.876
 1971SOL     OW 7809   8.181   6.826  10.067
 1971SOL    HW1 7810   8.238   6.763  10.022
 1971SOL    HW2 7811   8.242   6.879  10.119
 1972SOL     OW 7812   7.597  13.198  13.902
 1972SOL    HW1 7813   7.637  13.233  13.981
 1972SOL    HW2 7814   7.545  13.123  13.932
 1973SOL     OW 7815   0.967   2.964   4.026
 1973SOL    HW1 7816   0.957   2.881   4.072
 1973SOL    HW2 7817   1.037   3.010   4.073
 1974SOL     OW 7818  12.824   8.259   9.658
 1974SOL    HW1 7819  12.761   8.272   9.729
 1974SOL    HW2 7820  12.858   8.171   9.674
 1975SOL     OW 7821   5.447   7.336  14.285
 1975SOL    HW1 7822   5.411   7.395  14.352
 1975SOL    HW2 7823   5.370   7.295  14.246
 1976SOL     OW 7824  10.238   3.447  13.888
 1976SOL    HW1 7825  10.283   3.454  13.804
 1976SOL    HW2 7826  10.286   3.380  13.936
 1977SOL     OW 7827   7.994   1.898  14.582
 1977SOL    HW1 7828   8.027   1.940  14.662
 1977SOL    HW2 7829   7.962   1.970  14.528
 1978SOL     OW 7830   0.446   5.889   7.957
 1978SOL    HW1 7831   0.476   5.914   7.870
 1978SOL    HW2 7832   0.526   5.869   8.005
 1979SOL     OW 7833   2.916   5.198  13.831
 1979SOL    HW1 7834   2.821   5.202  13.822
 1979SOL    HW2 7835   2.937   5.261  13.899
 1980SOL     OW 7836  13.422   0.007  12.831
 1980SOL    HW1 7837  13.355  14.810  12.830
 1980SOL    HW2 7838  13.398   0.065  12.759
 1981SOL     OW 7839   2.221   7.793   8.805
 1981SOL    HW1 7840   2.141   7.819   8.851
 1981SOL    HW2 7841   2.261   7.876   8.778
 1982SOL     OW 7842   7.104   5.756  13.338
 1982SOL    HW1 7843   7.116   5.849  13.318
 1982SOL    HW2 7844   7.088   5.754  13.433
 1983SOL     OW 7845   4.861   4.666   4.962
 1983SOL    HW1 7846   4.847   4.586   4.910
 1983SOL    HW2 7847   4.818   4.735   4.911
 1984SOL     OW 7848   0.547   1.768   4.512
 1984SOL    HW1 7849   0.474   1.788   4.453
 1984SOL    HW2 7850   0.618   1.826   4.483
 1985SOL     OW 7851  11.899   2.540  13.275
 1985SOL    HW1 7852  11.836   2.591  13.225
 1985SOL    HW2 7853  11.916   2.463  13.221
 1986SOL     OW 7854  10.898   0.163  13.618
 1986SOL    HW1 7855  10.993   0.158  13.610
 1986SOL    HW2 7856  10.871   0.221  13.547
 1987SOL     OW 7857   7.844   4.192   6.009
 1987SOL    HW1 7858   7.795   4.263   5.968
 1987SOL    HW2 7859   7.803   4.112   5.974
 1988SOL     OW 7860   1.510  11.541  13.271
 1988SOL    HW1 7861   1.514  11.624  13.223
 1988SOL    HW2 7862   1.472  11.564  13.355
 1989SOL     OW 7863   4.953  10.610   1.040
 1989SOL    HW1 7864   4.858  10.615   1.039
 1989SOL    HW2 7865   4.972  10.520   1.067
 1990SOL     OW 7866   5.012  11.200   0.014
 1990SOL    HW1 7867   4.939  11.166   0.065
 1990SOL    HW2 7868   5.051  11.122  14.845
 1991SOL     OW 7869   6.667  11.894  11.247
 1991SOL    HW1 7870   6.668  11.864  11.156
 1991SOL    HW2 7871   6.759  11.910  11.267
 1992SOL     OW 7872   4.393   7.922   1.670
 1992SOL    HW1 7873   4.355   8.003   1.706
 1992SOL    HW2 7874   4.392   7.861   1.744
 1993SOL     OW 7875   6.201   4.262   1.901
 1993SOL    HW1 7876   6.243   4.299   1.823
 1993SOL    HW2 7877   6.258   4.287   1.974
 1994SOL     OW 7878   5.006   1.282   6.051
 1994SOL    HW1 7879   5.067   1.355   6.042
 1994SOL    HW2 7880   5.021   1.250   6.140
 1995SOL     OW 7881   8.019   5.411  13.410
 1995SOL    HW1 7882   8.023   5.440  13.319
 1995SOL    HW2 7883   8.026   5.492  13.461
 1996SOL     OW 7884   1.284   2.940  13.019
 1996SOL    HW1 7885   1.293   3.035  13.020
 1996SOL    HW2 7886   1.347   2.911  12.953
 1997SOL     OW 7887   4.350   9.277   8.602
 1997SOL    HW1 7888   4.274   9.226   8.633
 1997SOL    HW2 7889   4.425   9.236   8.645
 1998SOL     OW 7890  11.270  14.408  14.634
 1998SOL    HW1 7891  11.348  14.374  14.590
 1998SOL    HW2 7892  11.207  14.420  14.563
 1999SOL     OW 7893   6.321   3.533   3.879
 1999SOL    HW1 7894   6.343   3.576   3.962
 1999SOL    HW2 7895   6.273   3.454   3.904
 2000SOL     OW 7896  10.716   6.005  12.862
 2000SOL    HW1 7897  10.644   6.067  12.871
 2000SOL    HW2 7898  10.686   5.943  12.795
 2001SOL     OW 7899   4.022   7.770   3.073
 2001SOL    HW1 7900   4.081   7.719   3.019
 2001SOL    HW2 7901   4.001   7.847   3.020
 2002SOL     OW 7902   3.759  10.358   6.450
 2002SOL    HW1 7903   3.716  10.308   6.381
 2002SOL    HW2 7904   3.808  10.426   6.404
 2003SOL     OW 7905   9.252   8.542  12.129
 2003SOL    HW1 7906   9.331   8.542  12.075
 2003SOL    HW2 7907   9.269   8.607  12.197
 2004SOL     OW 7908   9.210  11.585  12.045
 2004SOL    HW1 7909   9.261  11.507  12.023
 2004SOL    HW2 7910   9.144  11.590  11.976
 2005SOL     OW 7911   8.060   9.731  14.773
 2005SOL    HW1 7912   7.983   9.750  14.720
 2005SOL    HW2 7913   8.107   9.663  14.725
 2006SOL     OW 7914   8.122  11.639   4.677
 2006SOL    HW1 7915   8.074  11.573   4.728
 2006SOL    HW2 7916   8.098  11.620   4.586
 2007SOL     OW 7917   5.805   2.462  14.467
 2007SOL    HW1 7918   5.882   2.516  14.452
 2007SOL    HW2 7919   5.840   2.374  14.484
 2008SOL     OW 7920   4.681  10.442   7.363
 2008SOL    HW1 7921   4.734  10.478   7.435
 2008SOL    HW2 7922   4.744  10.426   7.293
 2009SOL     OW 7923   8.718  10.322   2.745
 2009SOL    HW1 7924   8.794  10.337   2.801
 2009SOL    HW2 7925   8.646  10.307   2.807
 2010SOL     OW 7926   3.035   7.696   3.481
 2010SOL    HW1 7927   3.034   7.716   3.575
 2010SOL    HW2 7928   3.079   7.611   3.475
 2011SOL     OW 7929   2.290   6.489   5.085
 2011SOL    HW1 7930   2.267   6.405   5.126
 2011SOL    HW2 7931   2.384   6.485   5.072
 2012SOL     OW 7932   3.539   6.557   1.832
 2012SOL    HW1 7933   3.619   6.604   1.810
 2012SOL    HW2 7934   3.551   6.470   1.794
 2013SOL     OW 7935  14.442   2.659  13.570
 2013SOL    HW1 7936  14.523   2.671  13.520
 2013SOL    HW2 7937  14.407   2.575  13.540
 2014SOL     OW 7938   1.531   4.883  13.440
 2014SOL    HW1 7939   1.564   4.926  13.518
 2014SOL    HW2 7940   1.447   4.845  13.467
 2015SOL     OW 7941  14.580   5.390   0.973
 2015SOL    HW1 7942  14.505   5.357   1.022
 2015SOL    HW2 7943  14.653   5.384   1.035
 2016SOL     OW 7944  10.947   5.000   9.598
 2016SOL    HW1 7945  10.856   4.986   9.572
 2016SOL    HW2 7946  10.999   4.968   9.525
 2017SOL     OW 7947  12.718   0.390   1.156
 2017SOL    HW1 7948  12.701   0.483   1.168
 2017SOL    HW2 7949  12.678   0.348   1.231
 2018SOL     OW 7950  12.876  12.366   7.601
 2018SOL    HW1 7951  12.966  12.385   7.575
 2018SOL    HW2 7952  12.878  12.275   7.631
 2019SOL     OW 7953  13.108   4.069   3.023
 2019SOL    HW1 7954  13.077   3.996   2.970
 2019SOL    HW2 7955  13.141   4.133   2.959
 2020SOL     OW 7956   0.951  10.699  12.496
 2020SOL    HW1 7957   0.963  10.617  12.448
 2020SOL    HW2 7958   0.857  10.715  12.493
 2021SOL     OW 7959  12.909  12.928   9.964
 2021SOL    HW1 7960  13.002  12.908   9.955
 2021SOL    HW2 7961  12.865  12.854   9.922
 2022SOL     OW 7962   0.880  10.362  11.436
 2022SOL    HW1 7963   0.791  10.340  11.409
 2022SOL    HW2 7964   0.935  10.295  11.396
 2023SOL     OW 7965   9.054   2.491   5.751
 2023SOL    HW1 7966   9.036   2.578   5.788
 2023SOL    HW2 7967   8.971   2.466   5.709
 2024SOL     OW 7968   4.176  14.202   7.887
 2024SOL    HW1 7969   4.135  14.223   7.971
 2024SOL    HW2 7970   4.264  14.173   7.910
 2025SOL     OW 7971  10.954   9.622   1.822
 2025SOL    HW1 7972  10.912   9.538   1.805
 2025SOL    HW2 7973  11.042   9.600   1.852
 2026SOL     OW 7974   0.887   6.902   8.177
 2026SOL    HW1 7975   0.827   6.830   8.156
 2026SOL    HW2 7976   0.850   6.942   8.256
 2027SOL     OW 7977   4.343   0.476   7.963
 2027SOL    HW1 7978   4.405   0.404   7.952
 2027SOL    HW2 7979   4.367   0.539   7.896
 2028SOL     OW 7980  12.119   0.639  12.980
 2028SOL    HW1 7981  12.140   0.708  13.043
 2028SOL    HW2 7982  12.111   0.560  13.033
 2029SOL     OW 7983   8.027   6.341   6.883
 2029SOL    HW1 7984   8.055   6.357   6.793
 2029SOL    HW2 7985   8.104   6.361   6.936
 2030SOL     OW 7986  10.001  14.415  12.339
 2030SOL    HW1 7987  10.027  14.334  12.382
 2030SOL    HW2 7988  10.081  14.468  12.338
 2031SOL     OW 7989   8.987   4.650   8.176
 2031SOL    HW1 7990   8.942   4.565   8.179
 2031SOL    HW2 7991   8.943   4.698   8.107
 2032SOL     OW 7992   9.500   0.284  11.182
 2032SOL    HW1 7993   9.588   0.258  11.209
 2032SOL    HW2 7994   9.442   0.232  11.236
 2033SOL     OW 7995   7.766   1.377  14.864
 2033SOL    HW1 7996   7.825   1.400  14.793
 2033SOL    HW2 7997   7.769   1.282  14.868
 2034SOL     OW 7998   9.124  13.688  11.844
 2034SOL    HW1 7999   9.066  13.613  11.860
 2034SOL    HW2 8000   9.074  13.745  11.785
 2035SOL     OW 8001  12.804  11.366   1.217
 2035SOL    HW1 8002  12.874  11.307   1.190
 2035SOL    HW2 8003  12.821  11.382   1.310
 2036SOL     OW 8004  14.641   3.680  14.389
 2036SOL    HW1 8005  14.693   3.761  14.388
 2036SOL    HW2 8006  14.575   3.693  14.321
 2037SOL     OW 8007   7.919   6.862   1.851
 2037SOL    HW1 8008   7.996   6.813   1.878
 2037SOL    HW2 8009   7.936   6.886   1.760
 2038SOL     OW 8010   4.730   9.234   6.975
 2038SOL    HW1 8011   4.733   9.291   6.898
 2038SOL    HW2 8012   4.822   9.213   6.993
 2039SOL     OW 8013   5.062   2.772   4.383
 2039SOL    HW1 8014   5.088   2.821   4.461
 2039SOL    HW2 8015   4.971   2.798   4.368
 2040SOL     OW 8016   5.201   2.214   5.121
 2040SOL    HW1 8017   5.290   2.200   5.087
 2040SOL    HW2 8018   5.205   2.180   5.211
 2041SOL     OW 8019   5.725   5.195  12.867
 2041SOL    HW1 8020   5.707   5.243  12.786
 2041SOL    HW2 8021   5.819   5.208  12.882
 2042SOL     OW 8022  13.341   1.898   9.285
 2042SOL    HW1 8023  13.383   1.822   9.244
 2042SOL    HW2 8024  13.256   1.904   9.243
 2043SOL     OW 8025   9.956   3.069  14.858
 2043SOL    HW1 8026   9.900   3.136  14.819
 2043SOL    HW2 8027  10.037   3.074  14.808
 2044SOL     OW 8028   3.116   0.721   1.456
 2044SOL    HW1 8029   3.094   0.701   1.547
 2044SOL    HW2 8030   3.206   0.691   1.447
 2045SOL     OW 8031   0.782   9.578  14.376
 2045SOL    HW1 8032   0.782   9.647  14.443
 2045SOL    HW2 8033   0.787   9.497  14.427
 2046SOL     OW 8034   6.780   5.042  13.254
 2046SOL    HW1 8035   6.802   4.949  13.259
 2046SOL    HW2 8036   6.684   5.044  13.256
 2047SOL     OW 8037  10.637   2.664   2.587
 2047SOL    HW1 8038  10.554   2.617   2.573
 2047SOL    HW2 8039  10.614   2.756   2.579
 2048SOL     OW 8040   5.846   0.666   9.500
 2048SOL    HW1 8041   5.882   0.584   9.468
 2048SOL    HW2 8042   5.790   0.642   9.573
 2049SOL     OW 8043  14.325   6.083   1.840
 2049SOL    HW1 8044  14.317   6.131   1.758
 2049SOL    HW2 8045  14.253   6.118   1.894
 2050SOL     OW 8046   3.055   3.248   8.340
 2050SOL    HW1 8047   3.099   3.276   8.420
 2050SOL    HW2 8048   2.968   3.287   8.345
 2051SOL     OW 8049   8.323  13.921   5.979
 2051SOL    HW1 8050   8.305  14.014   5.995
 2051SOL    HW2 8051   8.407  13.920   5.934
 2052SOL     OW 8052   3.246  12.654  11.063
 2052SOL    HW1 8053   3.266  12.642  11.156
 2052SOL    HW2 8054   3.322  12.619  11.017
 2053SOL     OW 8055  13.061  11.367   1.447
 2053SOL    HW1 8056  13.082  11.455   1.417
 2053SOL    HW2 8057  13.010  11.379   1.526
 2054SOL     OW 8058   4.098   9.582  12.650
 2054SOL    HW1 8059   4.076   9.521  12.721
 2054SOL    HW2 8060   4.192   9.569  12.636
 2055SOL     OW 8061   2.871   5.295   9.828
 2055SOL    HW1 8062   2.846   5.352   9.901
 2055SOL    HW2 8063   2.926   5.228   9.867
 2056SOL     OW 8064   0.535   8.462   5.164
 2056SOL    HW1 8065   0.594   8.433   5.095
 2056SOL    HW2 8066   0.467   8.395   5.168
 2057SOL     OW 8067   2.288  14.655  11.659
 2057SOL    HW1 8068   2.268  14.636  11.568
 2057SOL    HW2 8069   2.359  14.594  11.681
 2058SOL     OW 8070   8.838  12.711  12.996
 2058SOL    HW1 8071   8.753  12.735  12.957
 2058SOL    HW2 8072   8.902  12.764  12.948
 2059SOL     OW 8073   8.840   9.225   1.105
 2059SOL    HW1 8074   8.785   9.203   1.180
 2059SOL    HW2 8075   8.784   9.211   1.029
 2060SOL     OW 8076   7.546   4.172   9.905
 2060SOL    HW1 8077   7.456   4.184   9.875
 2060SOL    HW2 8078   7.588   4.119   9.837
 2061SOL     OW 8079   6.943   8.799   2.591
 2061SOL    HW1 8080   6.929   8.760   2.505
 2061SOL    HW2 8081   6.986   8.731   2.642
 2062SOL     OW 8082  11.668   9.657   3.523
 2062SOL    HW1 8083  11.592   9.644   3.580
 2062SOL    HW2 8084  11.710   9.736   3.557
 2063SOL     OW 8085   6.992   3.839   8.533
 2063SOL    HW1 8086   7.053   3.805   8.468
 2063SOL    HW2 8087   6.942   3.906   8.487
 2064SOL     OW 8088  10.669   8.344  10.230
 2064SOL    HW1 8089  10.596   8.286  10.209
 2064SOL    HW2 8090  10.642   8.387  10.311
 2065SOL     OW 8091   5.726   6.815   2.262
 2065SOL    HW1 8092   5.702   6.871   2.336
 2065SOL    HW2 8093   5.795   6.864   2.217
 2066SOL     OW 8094  11.576   8.752  10.053
 2066SOL    HW1 8095  11.599   8.663  10.081
 2066SOL    HW2 8096  11.603   8.755   9.961
 2067SOL     OW 8097   1.325   8.199   4.088
 2067SOL    HW1 8098   1.233   8.193   4.113
 2067SOL    HW2 8099   1.345   8.112   4.053
 2068SOL     OW 8100   0.600   1.839   9.961
 2068SOL    HW1 8101   0.618   1.773  10.027
 2068SOL    HW2 8102   0.574   1.916  10.010
 2069SOL     OW 8103  10.864  11.112  14.246
 2069SOL    HW1 8104  10.840  11.034  14.296
 2069SOL    HW2 8105  10.780  11.149  14.217
 2070SOL     OW 8106   2.540   0.077  12.218
 2070SOL    HW1 8107   2.593   0.000  12.242
 2070SOL    HW2 8108   2.452   0.056  12.248
 2071SOL     OW 8109  13.462   3.761   0.779
 2071SOL    HW1 8110  13.520   3.795   0.711
 2071SOL    HW2 8111  13.411   3.693   0.735
 2072SOL     OW 8112   5.431  12.743  11.733
 2072SOL    HW1 8113   5.412  12.696  11.651
 2072SOL    HW2 8114   5.460  12.675  11.793
 2073SOL     OW 8115  12.701  10.418   8.033
 2073SOL    HW1 8116  12.705  10.498   8.086
 2073SOL    HW2 8117  12.615  10.422   7.990
 2074SOL     OW 8118  11.734  13.358  10.033
 2074SOL    HW1 8119  11.690  13.427   9.984
 2074SOL    HW2 8120  11.677  13.281  10.022
 2075SOL     OW 8121  13.807   8.022   0.727
 2075SOL    HW1 8122  13.774   7.982   0.807
 2075SOL    HW2 8123  13.732   8.072   0.693
 2076SOL     OW 8124   7.226  14.710   0.166
 2076SOL    HW1 8125   7.149  14.761   0.191
 2076SOL    HW2 8126   7.300  14.768   0.182
 2077SOL     OW 8127   2.562   3.362   2.347
 2077SOL    HW1 8128   2.474   3.398   2.340
 2077SOL    HW2 8129   2.553   3.287   2.406
 2078SOL     OW 8130   8.718  10.104  10.469
 2078SOL    HW1 8131   8.791  10.046  10.489
 2078SOL    HW2 8132   8.695  10.082  10.379
 2079SOL     OW 8133  13.075   3.371   6.854
 2079SOL    HW1 8134  13.036   3.385   6.940
 2079SOL    HW2 8135  13.142   3.305   6.869
 2080SOL     OW 8136  12.041   8.340   4.708
 2080SOL    HW1 8137  11.977   8.269   4.709
 2080SOL    HW2 8138  12.013   8.398   4.778
 2081SOL     OW 8139   5.639   8.159   6.442
 2081SOL    HW1 8140   5.688   8.118   6.514
 2081SOL    HW2 8141   5.606   8.086   6.390
 2082SOL     OW 8142   9.149  14.194   3.424
 2082SOL    HW1 8143   9.067  14.168   3.384
 2082SOL    HW2 8144   9.182  14.115   3.466
 2083SOL     OW 8145   2.667   7.543  12.010
 2083SOL    HW1 8146   2.593   7.514  11.957
 2083SOL    HW2 8147   2.661   7.491  12.090
 2084SOL     OW 8148   7.091   6.992  13.667
 2084SOL    HW1 8149   7.053   7.057  13.726
 2084SOL    HW2 8150   7.127   7.043  13.594
 2085SOL     OW 8151   8.705   1.316   9.664
 2085SOL    HW1 8152   8.661   1.401   9.679
 2085SOL    HW2 8153   8.787   1.323   9.713
 2086SOL     OW 8154   9.169  13.876   3.825
 2086SOL    HW1 8155   9.156  13.781   3.827
 2086SOL    HW2 8156   9.146  13.906   3.913
 2087SOL     OW 8157  13.684   9.417  13.952
 2087SOL    HW1 8158  13.635   9.381  14.027
 2087SOL    HW2 8159  13.649   9.505  13.940
 2088SOL     OW 8160   4.971   7.264  14.330
 2088SOL    HW1 8161   4.887   7.265  14.284
 2088SOL    HW2 8162   5.010   7.349  14.310
 2089SOL     OW 8163   2.312   1.423  11.851
 2089SOL    HW1 8164   2.328   1.478  11.775
 2089SOL    HW2 8165   2.322   1.482  11.926
 2090SOL     OW 8166  10.132   8.828  13.012
 2090SOL    HW1 8167  10.136   8.737  13.042
 2090SOL    HW2 8168  10.061   8.868  13.063
 2091SOL     OW 8169   6.243  14.308  12.356
 2091SOL    HW1 8170   6.266  14.349  12.273
 2091SOL    HW2 8171   6.218  14.219  12.333
 2092SOL     OW 8172   1.284   2.268   9.327
 2092SOL    HW1 8173   1.222   2.340   9.345
 2092SOL    HW2 8174   1.333   2.299   9.251
 2093SOL     OW 8175   3.796   6.665   0.878
 2093SOL    HW1 8176   3.768   6.688   0.967
 2093SOL    HW2 8177   3.734   6.597   0.850
 2094SOL     OW 8178   1.369  11.358  12.100
 2094SOL    HW1 8179   1.337  11.441  12.065
 2094SOL    HW2 8180   1.431  11.326  12.034
 2095SOL     OW 8181  12.593   8.103   4.064
 2095SOL    HW1 8182  12.551   8.117   4.148
 2095SOL    HW2 8183  12.574   8.012   4.042
 2096SOL     OW 8184  10.741   2.315  12.360
 2096SOL    HW1 8185  10.763   2.287  12.271
 2096SOL    HW2 8186  10.815   2.372  12.386
 2097SOL     OW 8187  13.939  14.391  12.296
 2097SOL    HW1 8188  13.986  14.384  12.378
 2097SOL    HW2 8189  13.959  14.310  12.249
 2098SOL     OW 8190   9.025   0.725  14.535
 2098SOL    HW1 8191   9.103   0.672  14.517
 2098SOL    HW2 8192   9.021   0.730  14.631
 2099SOL     OW 8193   8.871   3.769   4.123
 2099SOL    HW1 8194   8.795   3.814   4.158
 2099SOL    HW2 8195   8.850   3.676   4.130
 2100SOL     OW 8196  14.146  10.917  10.102
 2100SOL    HW1 8197  14.112  10.913  10.191
 2100SOL    HW2 8198  14.121  10.834  10.063
 2101SOL     OW 8199   4.550   8.155  11.215
 2101SOL    HW1 8200   4.455   8.159  11.205
 2101SOL    HW2 8201   4.581   8.119  11.132
 2102SOL     OW 8202   2.914   9.698  10.747
 2102SOL    HW1 8203   2.865   9.769  10.704
 2102SOL    HW2 8204   3.006   9.720  10.732
 2103SOL     OW 8205   4.439   7.217   9.711
 2103SOL    HW1 8206   4.494   7.159   9.765
 2103SOL    HW2 8207   4.458   7.191   9.621
 2104SOL     OW 8208  14.001  14.459   1.626
 2104SOL    HW1 8209  13.954  14.431   1.548
 2104SOL    HW2 8210  13.934  14.494   1.684
 2105SOL     OW 8211   3.957  13.919   3.387
 2105SOL    HW1 8212   3.974  14.013   3.378
 2105SOL    HW2 8213   3.895  13.900   3.317
 2106SOL     OW 8214  10.740   0.875   6.053
 2106SOL    HW1 8215  10.681   0.907   6.122
 2106SOL    HW2 8216  10.723   0.933   5.979
 2107SOL     OW 8217   3.608   3.031   5.209
 2107SOL    HW1 8218   3.700   3.056   5.201
 2107SOL    HW2 8219   3.592   2.975   5.133
 2108SOL     OW 8220   8.807   4.084  13.002
 2108SOL    HW1 8221   8.713   4.096  13.018
 2108SOL    HW2 8222   8.835   4.166  12.961
 2109SOL     OW 8223   1.870   2.735  11.452
 2109SOL    HW1 8224   1.909   2.816  11.418
 2109SOL    HW2 8225   1.921   2.714  11.529
 2110SOL     OW 8226  14.745  13.952  11.887
 2110SOL    HW1 8227  14.697  14.022  11.843
 2110SOL    HW2 8228  14.736  13.972  11.981
 2111SOL     OW 8229   1.948   1.482  13.140
 2111SOL    HW1 8230   2.034   1.524  13.130
 2111SOL    HW2 8231   1.954   1.402  13.088
 2112SOL     OW 8232   6.100   7.945   5.245
 2112SOL    HW1 8233   6.084   7.852   5.260
 2112SOL    HW2 8234   6.066   7.988   5.324
 2113SOL     OW 8235   8.168  14.494  12.951
 2113SOL    HW1 8236   8.202  14.406  12.935
 2113SOL    HW2 8237   8.129  14.520  12.867
 2114SOL     OW 8238  11.697   7.023  11.991
 2114SOL    HW1 8239  11.620   7.012  12.047
 2114SOL    HW2 8240  11.666   7.000  11.904
 2115SOL     OW 8241   6.730  12.529   2.541
 2115SOL    HW1 8242   6.749  12.437   2.522
 2115SOL    HW2 8243   6.808  12.561   2.586
 2116SOL     OW 8244  11.694  10.685  11.731
 2116SOL    HW1 8245  11.654  10.624  11.793
 2116SOL    HW2 8246  11.666  10.772  11.760
 2117SOL     OW 8247   0.299  10.528  10.460
 2117SOL    HW1 8248   0.368  10.475  10.420
 2117SOL    HW2 8249   0.260  10.576  10.387
 2118SOL     OW 8250   6.921   9.800  14.726
 2118SOL    HW1 8251   6.869   9.769  14.652
 2118SOL    HW2 8252   6.972   9.872  14.691
 2119SOL     OW 8253   8.301  11.136   2.775
 2119SOL    HW1 8254   8.343  11.113   2.692
 2119SOL    HW2 8255   8.304  11.055   2.826
 2120SOL     OW 8256  12.255   9.374   3.394
 2120SOL    HW1 8257  12.208   9.379   3.478
 2120SOL    HW2 8258  12.203   9.428   3.335
 2121SOL     OW 8259   7.591   6.058   0.803
 2121SOL    HW1 8260   7.623   6.059   0.894
 2121SOL    HW2 8261   7.658   6.107   0.755
 2122SOL     OW 8262  11.734   4.828   7.273
 2122SOL    HW1 8263  11.793   4.753   7.263
 2122SOL    HW2 8264  11.760   4.868   7.356
 2123SOL     OW 8265   2.668  13.134  12.393
 2123SOL    HW1 8266   2.741  13.124  12.455
 2123SOL    HW2 8267   2.671  13.226  12.367
 2124SOL     OW 8268   7.727   1.172  12.378
 2124SOL    HW1 8269   7.726   1.183  12.473
 2124SOL    HW2 8270   7.738   1.261  12.344
 2125SOL     OW 8271  14.186  10.567   8.710
 2125SOL    HW1 8272  14.251  10.632   8.737
 2125SOL    HW2 8273  14.150  10.601   8.628
 2126SOL     OW 8274   2.422   3.627   2.921
 2126SOL    HW1 8275   2.344   3.597   2.968
 2126SOL    HW2 8276   2.455   3.548   2.878
 2127SOL     OW 8277  10.744  10.604   9.644
 2127SOL    HW1 8278  10.714  10.627   9.731
 2127SOL    HW2 8279  10.707  10.518   9.627
 2128SOL     OW 8280  13.876   9.289   4.054
 2128SOL    HW1 8281  13.939   9.271   4.123
 2128SOL    HW2 8282  13.913   9.248   3.976
 2129SOL     OW 8283   4.873  12.119  14.056
 2129SOL    HW1 8284   4.949  12.128  14.000
 2129SOL    HW2 8285   4.907  12.128  14.145
 2130SOL     OW 8286   3.854   7.878  13.043
 2130SOL    HW1 8287   3.930   7.932  13.021
 2130SOL    HW2 8288   3.797   7.936  13.093
 2131SOL     OW 8289   0.839   8.459   6.907
 2131SOL    HW1 8290   0.819   8.465   7.000
 2131SOL    HW2 8291   0.755   8.469   6.863
 2132SOL     OW 8292   9.552  11.006   1.110
 2132SOL    HW1 8293   9.526  11.097   1.102
 2132SOL    HW2 8294   9.598  10.987   1.028
 2133SOL     OW 8295  11.159  14.768  11.551
 2133SOL    HW1 8296  11.233  14.743  11.606
 2133SOL    HW2 8297  11.139  14.858  11.578
 2134SOL     OW 8298  11.276   4.243  14.401
 2134SOL    HW1 8299  11.280   4.246  14.306
 2134SOL    HW2 8300  11.303   4.154  14.424
 2135SOL     OW 8301   4.574  11.918  14.228
 2135SOL    HW1 8302   4.648  11.860  14.209
 2135SOL    HW2 8303   4.597  11.961  14.310
 2136SOL     OW 8304  13.062  13.407   1.785
 2136SOL    HW1 8305  13.025  13.490   1.755
 2136SOL    HW2 8306  13.094  13.424   1.873
 2137SOL     OW 8307  10.890   6.470   7.313
 2137SOL    HW1 8308  10.955   6.447   7.247
 2137SOL    HW2 8309  10.931   6.447   7.396
 2138SOL     OW 8310   8.845  12.068  13.416
 2138SOL    HW1 8311   8.822  12.124  13.490
 2138SOL    HW2 8312   8.795  12.104  13.343
 2139SOL     OW 8313   6.018   3.582   9.381
 2139SOL    HW1 8314   5.955   3.525   9.425
 2139SOL    HW2 8315   6.070   3.524   9.327
 2140SOL     OW 8316  12.757   5.347   2.643
 2140SOL    HW1 8317  12.802   5.340   2.558
 2140SOL    HW2 8318  12.822   5.316   2.707
 2141SOL     OW 8319  10.945   5.988  14.690
 2141SOL    HW1 8320  10.903   5.915  14.736
 2141SOL    HW2 8321  10.945   5.960  14.598
 2142SOL     OW 8322   5.369   5.806   9.040
 2142SOL    HW1 8323   5.322   5.885   9.013
 2142SOL    HW2 8324   5.368   5.810   9.135
 2143SOL     OW 8325   6.425   1.156  11.642
 2143SOL    HW1 8326   6.454   1.241  11.608
 2143SOL    HW2 8327   6.419   1.169  11.737
 2144SOL     OW 8328  10.234  10.671  10.867
 2144SOL    HW1 8329  10.315  10.672  10.919
 2144SOL    HW2 8330  10.236  10.753  10.818
 2145SOL     OW 8331   6.820   0.763   3.068
 2145SOL    HW1 8332   6.854   0.844   3.031
 2145SOL    HW2 8333   6.800   0.785   3.159
 2146SOL     OW 8334  14.628   1.203   5.453
 2146SOL    HW1 8335  14.670   1.149   5.520
 2146SOL    HW2 8336  14.534   1.193   5.469
 2147SOL     OW 8337   7.474   6.877   1.150
 2147SOL    HW1 8338   7.553   6.828   1.127
 2147SOL    HW2 8339   7.470   6.874   1.245
 2148SOL     OW 8340   8.566   7.135   3.110
 2148SOL    HW1 8341   8.493   7.074   3.106
 2148SOL    HW2 8342   8.644   7.080   3.104
 2149SOL     OW 8343  12.262  13.741  12.973
 2149SOL    HW1 8344  12.353  13.767  12.967
 2149SOL    HW2 8345  12.246  13.730  13.067
 2150SOL     OW 8346   6.231   1.465  11.487
 2150SOL    HW1 8347   6.273   1.551  11.485
 2150SOL    HW2 8348   6.166   1.472  11.558
 2151SOL     OW 8349  12.144   6.273   8.221
 2151SOL    HW1 8350  12.165   6.327   8.145
 2151SOL    HW2 8351  12.135   6.335   8.293
 2152SOL     OW 8352  11.139   0.291   1.190
 2152SOL    HW1 8353  11.048   0.297   1.160
 2152SOL    HW2 8354  11.133   0.291   1.285
 2153SOL     OW 8355   0.769   2.035  13.248
 2153SOL    HW1 8356   0.744   2.099  13.182
 2153SOL    HW2 8357   0.860   2.057  13.270
 2154SOL     OW 8358  13.565   9.855   9.813
 2154SOL    HW1 8359  13.615   9.879   9.891
 2154SOL    HW2 8360  13.550   9.761   9.823
 2155SOL     OW 8361   4.291   6.401   2.120
 2155SOL    HW1 8362   4.209   6.393   2.169
 2155SOL    HW2 8363   4.327   6.313   2.120
 2156SOL     OW 8364   9.711   1.160  10.830
 2156SOL    HW1 8365   9.702   1.121  10.917
 2156SOL    HW2 8366   9.804   1.181  10.823
 2157SOL     OW 8367   6.167  11.677   2.399
 2157SOL    HW1 8368   6.206  11.601   2.356
 2157SOL    HW2 8369   6.114  11.640   2.470
 2158SOL     OW 8370   6.769   8.776  13.179
 2158SOL    HW1 8371   6.722   8.807  13.256
 2158SOL    HW2 8372   6.825   8.850  13.155
 2159SOL     OW 8373   9.258  12.495   1.700
 2159SOL    HW1 8374   9.221  12.497   1.788
 2159SOL    HW2 8375   9.222  12.416   1.660
 2160SOL     OW 8376   8.586   5.427   9.974
 2160SOL    HW1 8377   8.674   5.438  10.011
 2160SOL    HW2 8378   8.527   5.437  10.048
 2161SOL     OW 8379  14.350   0.894  12.688
 2161SOL    HW1 8380  14.380   0.806  12.664
 2161SOL    HW2 8381  14.372   0.948  12.612
 2162SOL     OW 8382   8.915   0.618   5.225
 2162SOL    HW1 8383   8.866   0.683   5.174
 2162SOL    HW2 8384   8.850   0.555   5.253
 2163SOL     OW 8385   8.988   2.371   4.485
 2163SOL    HW1 8386   8.900   2.384   4.450
 2163SOL    HW2 8387   9.032   2.315   4.421
 2164SOL     OW 8388   8.296   8.449   0.151
 2164SOL    HW1 8389   8.351   8.515   0.110
 2164SOL    HW2 8390   8.212   8.493   0.165
 2165SOL     OW 8391   5.313   1.415   0.138
 2165SOL    HW1 8392   5.390   1.450   0.095
 2165SOL    HW2 8393   5.239   1.462   0.098
 2166SOL     OW 8394   9.149   6.224   3.377
 2166SOL    HW1 8395   9.091   6.185   3.443
 2166SOL    HW2 8396   9.232   6.177   3.387
 2167SOL     OW 8397   7.708   0.556   0.350
 2167SOL    HW1 8398   7.722   0.540   0.443
 2167SOL    HW2 8399   7.641   0.624   0.347
 2168SOL     OW 8400  13.944   6.127   3.521
 2168SOL    HW1 8401  13.981   6.210   3.490
 2168SOL    HW2 8402  13.850   6.145   3.529
 2169SOL     OW 8403   0.244  14.299   9.039
 2169SOL    HW1 8404   0.247  14.364   9.110
 2169SOL    HW2 8405   0.154  14.267   9.039
 2170SOL     OW 8406   6.964   0.290   3.324
 2170SOL    HW1 8407   6.932   0.213   3.370
 2170SOL    HW2 8408   7.028   0.255   3.261
 2171SOL     OW 8409  13.240  10.012  13.035
 2171SOL    HW1 8410  13.242  10.107  13.040
 2171SOL    HW2 8411  13.300   9.991  12.963
 2172SOL     OW 8412   8.870  10.367   5.045
 2172SOL    HW1 8413   8.799  10.314   5.010
 2172SOL    HW2 8414   8.866  10.353   5.140
 2173SOL     OW 8415   0.838   0.187   2.588
 2173SOL    HW1 8416   0.924   0.199   2.630
 2173SOL    HW2 8417   0.795   0.120   2.641
 2174SOL     OW 8418  12.516   1.624   9.694
 2174SOL    HW1 8419  12.524   1.691   9.761
 2174SOL    HW2 8420  12.478   1.548   9.739
 2175SOL     OW 8421   0.264  12.099   9.434
 2175SOL    HW1 8422   0.195  12.165   9.428
 2175SOL    HW2 8423   0.304  12.114   9.519
 2176SOL     OW 8424   6.476   5.902  14.689
 2176SOL    HW1 8425   6.410   5.970  14.693
 2176SOL    HW2 8426   6.516   5.902  14.776
 2177SOL     OW 8427   9.060   4.899   1.333
 2177SOL    HW1 8428   9.133   4.883   1.274
 2177SOL    HW2 8429   8.982   4.885   1.280
 2178SOL     OW 8430   3.762   0.825   2.812
 2178SOL    HW1 8431   3.750   0.814   2.906
 2178SOL    HW2 8432   3.706   0.900   2.790
 2179SOL     OW 8433   9.177  12.297  10.692
 2179SOL    HW1 8434   9.141  12.328  10.609
 2179SOL    HW2 8435   9.236  12.367  10.721
 2180SOL     OW 8436   0.080   5.647   4.009
 2180SOL    HW1 8437   0.118   5.713   4.067
 2180SOL    HW2 8438  14.859   5.669   4.004
 2181SOL     OW 8439   8.263   1.011  11.274
 2181SOL    HW1 8440   8.279   1.017  11.368
 2181SOL    HW2 8441   8.346   1.033  11.233
 2182SOL     OW 8442   8.646   8.769  12.702
 2182SOL    HW1 8443   8.582   8.839  12.715
 2182SOL    HW2 8444   8.593   8.692  12.683
 2183SOL     OW 8445  13.499   7.867   2.653
 2183SOL    HW1 8446  13.546   7.902   2.578
 2183SOL    HW2 8447  13.540   7.909   2.729
 2184SOL     OW 8448   2.597  12.997   4.094
 2184SOL    HW1 8449   2.654  12.969   4.166
 2184SOL    HW2 8450   2.580  12.917   4.044
 2185SOL     OW 8451   1.218   4.716   6.620
 2185SOL    HW1 8452   1.278   4.736   6.691
 2185SOL    HW2 8453   1.207   4.800   6.574
 2186SOL     OW 8454   9.245   9.053  12.154
 2186SOL    HW1 8455   9.201   9.058  12.239
 2186SOL    HW2 8456   9.228   8.963  12.124
 2187SOL     OW 8457  10.883  11.772  10.690
 2187SOL    HW1 8458  10.904  11.704  10.754
 2187SOL    HW2 8459  10.868  11.723  10.608
 2188SOL     OW 8460   1.546   8.230  12.823
 2188SOL    HW1 8461   1.619   8.292  12.821
 2188SOL    HW2 8462   1.585   8.146  12.799
 2189SOL     OW 8463   3.844  12.017  11.815
 2189SOL    HW1 8464   3.839  12.020  11.911
 2189SOL    HW2 8465   3.859  11.924  11.795
 2190SOL     OW 8466   1.859   6.813   7.590
 2190SOL    HW1 8467   1.908   6.818   7.508
 2190SOL    HW2 8468   1.927   6.805   7.658
 2191SOL     OW 8469  13.247  14.059   4.776
 2191SOL    HW1 8470  13.338  14.057   4.804
 2191SOL    HW2 8471  13.198  14.019   4.848
 2192SOL     OW 8472   2.889   3.784   8.100
 2192SOL    HW1 8473   2.947   3.854   8.070
 2192SOL    HW2 8474   2.819   3.828   8.148
 2193SOL     OW 8475   2.803  10.800   7.501
 2193SOL    HW1 8476   2.892  10.836   7.512
 2193SOL    HW2 8477   2.805  10.717   7.549
 2194SOL     OW 8478   2.149   3.676   9.109
 2194SOL    HW1 8479   2.084   3.714   9.168
 2194SOL    HW2 8480   2.132   3.717   9.025
 2195SOL     OW 8481  12.053  10.332   9.460
 2195SOL    HW1 8482  12.120  10.398   9.480
 2195SOL    HW2 8483  12.098  10.265   9.410
 2196SOL     OW 8484  13.302   8.631  11.724
 2196SOL    HW1 8485  13.274   8.695  11.790
 2196SOL    HW2 8486  13.281   8.546  11.763
 2197SOL     OW 8487  11.992  14.820   6.932
 2197SOL    HW1 8488  11.934  14.767   6.986
 2197SOL    HW2 8489  11.959  14.808   6.843
 2198SOL     OW 8490   4.586  12.495   4.119
 2198SOL    HW1 8491   4.514  12.519   4.178
 2198SOL    HW2 8492   4.665  12.511   4.169
 2199SOL     OW 8493   3.059  10.160  12.304
 2199SOL    HW1 8494   3.129  10.211  12.263
 2199SOL    HW2 8495   3.105  10.088  12.349
 2200SOL     OW 8496   3.238  11.461   2.002
 2200SOL    HW1 8497   3.321  11.507   2.015
 2200SOL    HW2 8498   3.226  11.457   1.907
 2201SOL     OW 8499   1.985   4.934  14.841
 2201SOL    HW1 8500   2.026   5.017  14.814
 2201SOL    HW2 8501   1.982   4.938   0.065
 2202SOL     OW 8502   1.366  11.199   4.542
 2202SOL    HW1 8503   1.300  11.141   4.581
 2202SOL    HW2 8504   1.392  11.257   4.614
 2203SOL     OW 8505   1.223   9.873  11.290
 2203SOL    HW1 8506   1.221   9.940  11.358
 2203SOL    HW2 8507   1.176   9.912  11.216
 2204SOL     OW 8508   9.879   6.707   8.323
 2204SOL    HW1 8509   9.899   6.790   8.367
 2204SOL    HW2 8510   9.813   6.731   8.258
 2205SOL     OW 8511   8.238   7.364  14.851
 2205SOL    HW1 8512   8.237   7.425  14.777
 2205SOL    HW2 8513   8.258   7.279  14.812
 2206SOL     OW 8514  13.993   1.188   2.630
 2206SOL    HW1 8515  14.078   1.144   2.631
 2206SOL    HW2 8516  13.967   1.187   2.538
 2207SOL     OW 8517   5.777   2.496   9.900
 2207SOL    HW1 8518   5.863   2.458   9.916
 2207SOL    HW2 8519   5.774   2.574   9.956
 2208SOL     OW 8520  11.183   1.005   4.010
 2208SOL    HW1 8521  11.248   0.958   4.062
 2208SOL    HW2 8522  11.220   1.093   4.000
 2209SOL     OW 8523   7.866  12.431   2.948
 2209SOL    HW1 8524   7.886  12.507   3.002
 2209SOL    HW2 8525   7.771  12.422   2.953
 2210SOL     OW 8526   5.320   7.298   9.271
 2210SOL    HW1 8527   5.381   7.341   9.331
 2210SOL    HW2 8528   5.267   7.369   9.236
 2211SOL     OW 8529   0.177   5.172  12.756
 2211SOL    HW1 8530   0.236   5.248  12.762
 2211SOL    HW2 8531   0.163   5.160  12.662
 2212SOL     OW 8532   1.288  14.814  13.025
 2212SOL    HW1 8533   1.352  14.842  12.959
 2212SOL    HW2 8534   1.300   0.004  13.097
 2213SOL     OW 8535  13.329   1.772   4.404
 2213SOL    HW1 8536  13.364   1.695   4.358
 2213SOL    HW2 8537  13.235   1.757   4.407
 2214SOL     OW 8538   5.791  10.202  12.150
 2214SOL    HW1 8539   5.880  10.212  12.183
 2214SOL    HW2 8540   5.742  10.274  12.189
 2215SOL     OW 8541   3.971  14.104  10.586
 2215SOL    HW1 8542   3.909  14.139  10.521
 2215SOL    HW2 8543   3.935  14.130  10.670
 2216SOL     OW 8544   8.334  11.069  13.584
 2216SOL    HW1 8545   8.424  11.100  13.588
 2216SOL    HW2 8546   8.290  11.132  13.526
 2217SOL     OW 8547  13.896   2.806   9.614
 2217SOL    HW1 8548  13.805   2.786   9.594
 2217SOL    HW2 8549  13.901   2.802   9.709
 2218SOL     OW 8550   4.322  13.065   6.491
 2218SOL    HW1 8551   4.259  13.029   6.554
 2218SOL    HW2 8552   4.394  13.002   6.490
 2219SOL     OW 8553   1.106  10.944   7.772
 2219SOL    HW1 8554   1.011  10.944   7.762
 2219SOL    HW2 8555   1.133  10.855   7.749
 2220SOL     OW 8556   0.650   1.560   9.291
 2220SOL    HW1 8557   0.710   1.585   9.221
 2220SOL    HW2 8558   0.637   1.466   9.280
 2221SOL     OW 8559   7.854   1.200   5.748
 2221SOL    HW1 8560   7.827   1.160   5.831
 2221SOL    HW2 8561   7.779   1.186   5.690
 2222SOL     OW 8562   0.855   2.933   8.860
 2222SOL    HW1 8563   0.852   2.847   8.904
 2222SOL    HW2 8564   0.773   2.937   8.811
 2223SOL     OW 8565  10.672   3.302   7.388
 2223SOL    HW1 8566  10.619   3.376   7.417
 2223SOL    HW2 8567  10.758   3.317   7.428
 2224SOL     OW 8568   0.531   5.485   2.075
 2224SOL    HW1 8569   0.612   5.510   2.031
 2224SOL    HW2 8570   0.537   5.524   2.162
 2225SOL     OW 8571   1.474   6.258  13.860
 2225SOL    HW1 8572   1.564   6.255  13.826
 2225SOL    HW2 8573   1.442   6.168  13.853
 2226SOL     OW 8574  12.839   5.337   6.674
 2226SOL    HW1 8575  12.877   5.350   6.588
 2226SOL    HW2 8576  12.768   5.402   6.679
 2227SOL     OW 8577  11.092  11.386   1.593
 2227SOL    HW1 8578  11.157  11.437   1.642
 2227SOL    HW2 8579  11.017  11.380   1.651
 2228SOL     OW 8580   0.628  13.421   4.007
 2228SOL    HW1 8581   0.714  13.410   3.966
 2228SOL    HW2 8582   0.616  13.340   4.058
 2229SOL     OW 8583   3.006  14.224   8.460
 2229SOL    HW1 8584   3.020  14.318   8.457
 2229SOL    HW2 8585   3.042  14.191   8.378
 2230SOL     OW 8586   4.008  10.647   7.027
 2230SOL    HW1 8587   4.055  10.729   7.018
 2230SOL    HW2 8588   3.994  10.638   7.122
 2231SOL     OW 8589  12.889   4.997  10.427
 2231SOL    HW1 8590  12.864   5.086  10.401
 2231SOL    HW2 8591  12.966   5.010  10.484
 2232SOL     OW 8592   6.328   5.016   6.079
 2232SOL    HW1 8593   6.343   5.059   5.994
 2232SOL    HW2 8594   6.318   5.088   6.141
 2233SOL     OW 8595   1.335   4.933   7.460
 2233SOL    HW1 8596   1.289   4.951   7.378
 2233SOL    HW2 8597   1.305   4.845   7.486
 2234SOL     OW 8598  10.966   2.243   2.309
 2234SOL    HW1 8599  10.954   2.337   2.324
 2234SOL    HW2 8600  11.024   2.214   2.379
 2235SOL     OW 8601   2.084   2.530  12.301
 2235SOL    HW1 8602   2.035   2.609  12.281
 2235SOL    HW2 8603   2.018   2.466  12.328
 2236SOL     OW 8604  14.332  12.993  10.375
 2236SOL    HW1 8605  14.288  13.074  10.350
 2236SOL    HW2 8606  14.276  12.923  10.339
 2237SOL     OW 8607   8.056   9.875  10.952
 2237SOL    HW1 8608   8.009   9.950  10.988
 2237SOL    HW2 8609   8.147   9.889  10.977
 2238SOL     OW 8610  10.162  14.527   7.314
 2238SOL    HW1 8611  10.073  14.497   7.300
 2238SOL    HW2 8612  10.153  14.614   7.352
 2239SOL     OW 8613  10.080   7.518   6.873
 2239SOL    HW1 8614  10.032   7.456   6.928
 2239SOL    HW2 8615  10.016   7.587   6.854
 2240SOL     OW 8616   4.125  13.142   2.302
 2240SOL    HW1 8617   4.133  13.083   2.377
 2240SOL    HW2 8618   4.068  13.096   2.241
 2241SOL     OW 8619   4.826   2.543   6.355
 2241SOL    HW1 8620   4.898   2.480   6.358
 2241SOL    HW2 8621   4.869   2.628   6.344
 2242SOL     OW 8622  10.592  14.265   8.359
 2242SOL    HW1 8623  10.603  14.342   8.414
 2242SOL    HW2 8624  10.680  14.227   8.353
 2243SOL     OW 8625  14.756  10.528   3.862
 2243SOL    HW1 8626  14.816  10.593   3.826
 2243SOL    HW2 8627  14.786  10.445   3.825
 2244SOL     OW 8628   3.450   4.197  12.272
 2244SOL    HW1 8629   3.388   4.197  12.199
 2244SOL    HW2 8630   3.394   4.204  12.350
 2245SOL     OW 8631   6.298  12.349  14.344
 2245SOL    HW1 8632   6.382  12.361  14.300
 2245SOL    HW2 8633   6.244  12.303  14.279
 2246SOL     OW 8634  12.649   4.147   5.386
 2246SOL    HW1 8635  12.718   4.187   5.334
 2246SOL    HW2 8636  12.581   4.214   5.394
 2247SOL     OW 8637   2.894  13.670   2.507
 2247SOL    HW1 8638   2.981  13.708   2.514
 2247SOL    HW2 8639   2.853  13.687   2.591
 2248SOL     OW 8640  10.684   6.643   3.456
 2248SOL    HW1 8641  10.596   6.656   3.420
 2248SOL    HW2 8642  10.735   6.607   3.384
 2249SOL     OW 8643   2.814   2.367   7.713
 2249SOL    HW1 8644   2.736   2.421   7.702
 2249SOL    HW2 8645   2.842   2.383   7.803
 2250SOL     OW 8646   3.854  11.953  12.069
 2250SOL    HW1 8647   3.888  11.864  12.073
 2250SOL    HW2 8648   3.793  11.960  12.141
 2251SOL     OW 8649  13.092   8.500   4.161
 2251SOL    HW1 8650  13.130   8.575   4.207
 2251SOL    HW2 8651  13.166   8.443   4.142
 2252SOL     OW 8652  13.657   7.375   2.399
 2252SOL    HW1 8653  13.647   7.446   2.335
 2252SOL    HW2 8654  13.653   7.419   2.484
 2253SOL     OW 8655  10.817  13.618   3.499
 2253SOL    HW1 8656  10.892  13.673   3.519
 2253SOL    HW2 8657  10.834  13.582   3.412
 2254SOL     OW 8658  11.378   0.565   0.421
 2254SOL    HW1 8659  11.446   0.631   0.420
 2254SOL    HW2 8660  11.338   0.573   0.507
 2255SOL     OW 8661  12.416   0.393  14.736
 2255SOL    HW1 8662  12.508   0.367  14.732
 2255SOL    HW2 8663  12.388   0.397  14.645
 2256SOL     OW 8664   2.213  12.765   6.727
 2256SOL    HW1 8665   2.294  12.792   6.771
 2256SOL    HW2 8666   2.168  12.846   6.707
 2257SOL     OW 8667  12.411   3.727   7.934
 2257SOL    HW1 8668  12.351   3.793   7.968
 2257SOL    HW2 8669  12.368   3.693   7.855
 2258SOL     OW 8670   2.645  10.968   1.620
 2258SOL    HW1 8671   2.601  10.925   1.694
 2258SOL    HW2 8672   2.584  10.959   1.547
 2259SOL     OW 8673  11.917  11.825   8.402
 2259SOL    HW1 8674  11.912  11.912   8.364
 2259SOL    HW2 8675  11.947  11.839   8.492
 2260SOL     OW 8676  13.465   0.776  13.322
 2260SOL    HW1 8677  13.399   0.762  13.390
 2260SOL    HW2 8678  13.527   0.837  13.361
 2261SOL     OW 8679  13.484  13.897  14.188
 2261SOL    HW1 8680  13.449  13.874  14.102
 2261SOL    HW2 8681  13.496  13.814  14.233
 2262SOL     OW 8682   5.026  12.523   9.176
 2262SOL    HW1 8683   5.072  12.440   9.165
 2262SOL    HW2 8684   4.978  12.513   9.259
 2263SOL     OW 8685  13.437   6.622   4.157
 2263SOL    HW1 8686  13.476   6.687   4.099
 2263SOL    HW2 8687  13.344   6.645   4.159
 2264SOL     OW 8688  12.231   9.772  12.001
 2264SOL    HW1 8689  12.183   9.690  11.998
 2264SOL    HW2 8690  12.323   9.746  11.996
 2265SOL     OW 8691   3.998   0.140   7.942
 2265SOL    HW1 8692   3.989   0.073   7.875
 2265SOL    HW2 8693   4.010   0.222   7.894
 2266SOL     OW 8694   3.354   7.194   6.847
 2266SOL    HW1 8695   3.263   7.170   6.863
 2266SOL    HW2 8696   3.354   7.232   6.760
 2267SOL     OW 8697  12.377   2.290  10.590
 2267SOL    HW1 8698  12.406   2.341  10.665
 2267SOL    HW2 8699  12.293   2.328  10.565
 2268SOL     OW 8700   7.728   2.147   3.130
 2268SOL    HW1 8701   7.770   2.201   3.197
 2268SOL    HW2 8702   7.796   2.132   3.065
 2269SOL     OW 8703  13.435  12.178   1.769
 2269SOL    HW1 8704  13.402  12.115   1.834
 2269SOL    HW2 8705  13.424  12.263   1.812
 2270SOL     OW 8706   9.555   2.206   6.507
 2270SOL    HW1 8707   9.628   2.224   6.448
 2270SOL    HW2 8708   9.557   2.111   6.521
 2271SOL     OW 8709   4.551   7.671  10.497
 2271SOL    HW1 8710   4.478   7.674  10.435
 2271SOL    HW2 8711   4.612   7.737  10.465
 2272SOL     OW 8712   2.258  10.799   4.655
 2272SOL    HW1 8713   2.292  10.820   4.742
 2272SOL    HW2 8714   2.272  10.704   4.646
 2273SOL     OW 8715  12.189   3.163   6.299
 2273SOL    HW1 8716  12.149   3.097   6.355
 2273SOL    HW2 8717  12.278   3.173   6.334
 2274SOL     OW 8718   1.977  11.526   5.225
 2274SOL    HW1 8719   1.989  11.549   5.317
 2274SOL    HW2 8720   1.922  11.597   5.189
 2275SOL     OW 8721   9.660  11.679   4.310
 2275SOL    HW1 8722   9.590  11.629   4.267
 2275SOL    HW2 8723   9.693  11.737   4.241
 2276SOL     OW 8724   5.420  14.537   5.011
 2276SOL    HW1 8725   5.394  14.620   4.973
 2276SOL    HW2 8726   5.516  14.541   5.014
 2277SOL     OW 8727   1.366   7.537   5.723
 2277SOL    HW1 8728   1.273   7.515   5.714
 2277SOL    HW2 8729   1.394   7.557   5.634
 2278SOL     OW 8730   3.780   9.581  10.881
 2278SOL    HW1 8731   3.782   9.674  10.903
 2278SOL    HW2 8732   3.752   9.579  10.789
 2279SOL     OW 8733   5.955   5.381   3.597
 2279SOL    HW1 8734   6.015   5.337   3.657
 2279SOL    HW2 8735   5.905   5.310   3.557
 2280SOL     OW 8736   8.951   7.288   8.348
 2280SOL    HW1 8737   8.867   7.260   8.385
 2280SOL    HW2 8738   8.998   7.326   8.422
 2281SOL     OW 8739   2.278   6.479   5.947
 2281SOL    HW1 8740   2.256   6.543   6.014
 2281SOL    HW2 8741   2.312   6.531   5.874
 2282SOL     OW 8742   0.128   4.407   0.111
 2282SOL    HW1 8743   0.138   4.315   0.135
 2282SOL    HW2 8744   0.081   4.446   0.184
 2283SOL     OW 8745   1.445   0.769  10.669
 2283SOL    HW1 8746   1.417   0.799  10.582
 2283SOL    HW2 8747   1.364   0.756  10.718
 2284SOL     OW 8748  13.111  10.130   0.235
 2284SOL    HW1 8749  13.180  10.191   0.263
 2284SOL    HW2 8750  13.096  10.152   0.143
 2285SOL     OW 8751   6.763  12.228  10.715
 2285SOL    HW1 8752   6.689  12.168  10.707
 2285SOL    HW2 8753   6.767  12.249  10.808
 2286SOL     OW 8754   7.918   8.651   3.539
 2286SOL    HW1 8755   7.908   8.664   3.444
 2286SOL    HW2 8756   7.979   8.578   3.547
 2287SOL     OW 8757   5.729  10.312   1.973
 2287SOL    HW1 8758   5.701  10.397   1.939
 2287SOL    HW2 8759   5.825  10.314   1.965
 2288SOL     OW 8760  10.088   9.696  10.904
 2288SOL    HW1 8761  10.095   9.791  10.897
 2288SOL    HW2 8762  10.116   9.663  10.818
 2289SOL     OW 8763   4.013   3.533   3.677
 2289SOL    HW1 8764   3.980   3.609   3.725
 2289SOL    HW2 8765   4.049   3.569   3.596
 2290SOL     OW 8766  13.173   8.838   1.898
 2290SOL    HW1 8767  13.265   8.857   1.912
 2290SOL    HW2 8768  13.162   8.844   1.803
 2291SOL     OW 8769   3.617   2.818   6.954
 2291SOL    HW1 8770   3.604   2.855   7.042
 2291SOL    HW2 8771   3.688   2.755   6.964
 2292SOL     OW 8772  11.351   0.228   8.044
 2292SOL    HW1 8773  11.264   0.198   8.070
 2292SOL    HW2 8774  11.369   0.182   7.962
 2293SOL     OW 8775  10.445   8.744  10.846
 2293SOL    HW1 8776  10.432   8.809  10.777
 2293SOL    HW2 8777  10.364   8.694  10.848
 2294SOL     OW 8778  13.284   7.567  14.311
 2294SOL    HW1 8779  13.338   7.542  14.386
 2294SOL    HW2 8780  13.217   7.624  14.347
 2295SOL     OW 8781   5.097  13.730   7.284
 2295SOL    HW1 8782   5.036  13.677   7.336
 2295SOL    HW2 8783   5.181  13.686   7.294
 2296SOL     OW 8784   9.213  10.163  10.207
 2296SOL    HW1 8785   9.308  10.174  10.209
 2296SOL    HW2 8786   9.198  10.106  10.131
 2297SOL     OW 8787   3.894   4.587  12.542
 2297SOL    HW1 8788   3.867   4.511  12.594
 2297SOL    HW2 8789   3.982   4.565  12.511
 2298SOL     OW 8790   0.689   5.039   7.522
 2298SOL    HW1 8791   0.624   5.004   7.583
 2298SOL    HW2 8792   0.646   5.113   7.480
 2299SOL     OW 8793  10.588   3.189  11.882
 2299SOL    HW1 8794  10.673   3.213  11.843
 2299SOL    HW2 8795  10.531   3.173  11.806
 2300SOL     OW 8796   0.735  11.672   1.601
 2300SOL    HW1 8797   0.826  11.664   1.573
 2300SOL    HW2 8798   0.739  11.669   1.696
 2301SOL     OW 8799  10.534   9.088   1.493
 2301SOL    HW1 8800  10.462   9.092   1.431
 2301SOL    HW2 8801  10.534   9.174   1.536
 2302SOL     OW 8802   1.467  14.785   9.699
 2302SOL    HW1 8803   1.547  14.762   9.653
 2302SOL    HW2 8804   1.432  14.860   9.652
 2303SOL     OW 8805   0.803   5.719  10.244
 2303SOL    HW1 8806   0.859   5.776  10.296
 2303SOL    HW2 8807   0.724   5.707  10.297
 2304SOL     OW 8808  13.783  14.015   5.914
 2304SOL    HW1 8809  13.747  14.102   5.929
 2304SOL    HW2 8810  13.820  13.989   5.999
 2305SOL     OW 8811  14.242  11.332   1.394
 2305SOL    HW1 8812  14.238  11.360   1.485
 2305SOL    HW2 8813  14.215  11.409   1.344
 2306SOL     OW 8814   5.009   0.930  11.064
 2306SOL    HW1 8815   5.080   0.961  11.007
 2306SOL    HW2 8816   4.945   1.001  11.062
 2307SOL     OW 8817  13.320   5.297   2.074
 2307SOL    HW1 8818  13.311   5.392   2.078
 2307SOL    HW2 8819  13.372   5.275   2.152
 2308SOL     OW 8820   2.772   5.233   6.615
 2308SOL    HW1 8821   2.860   5.212   6.584
 2308SOL    HW2 8822   2.742   5.154   6.659
 2309SOL     OW 8823   0.528   1.286  12.866
 2309SOL    HW1 8824   0.589   1.332  12.808
 2309SOL    HW2 8825   0.444   1.293  12.821
 2310SOL     OW 8826   6.027  14.837   2.862
 2310SOL    HW1 8827   5.975   0.018   2.924
 2310SOL    HW2 8828   6.008  14.747   2.886
 2311SOL     OW 8829   1.858  13.724  13.526
 2311SOL    HW1 8830   1.866  13.814  13.560
 2311SOL    HW2 8831   1.764  13.705  13.533
 2312SOL     OW 8832   4.308   2.849  11.386
 2312SOL    HW1 8833   4.381   2.796  11.356
 2312SOL    HW2 8834   4.245   2.848  11.314
 2313SOL     OW 8835  10.672  11.266   6.452
 2313SOL    HW1 8836  10.581  11.237   6.450
 2313SOL    HW2 8837  10.690  11.285   6.544
 2314SOL     OW 8838   1.856  11.655   2.602
 2314SOL    HW1 8839   1.923  11.665   2.670
 2314SOL    HW2 8840   1.840  11.561   2.598
 2315SOL     OW 8841   9.933   6.819  11.173
 2315SOL    HW1 8842   9.951   6.740  11.224
 2315SOL    HW2 8843   9.941   6.890  11.236
 2316SOL     OW 8844   8.754   1.105   3.858
 2316SOL    HW1 8845   8.740   1.020   3.900
 2316SOL    HW2 8846   8.848   1.110   3.843
 2317SOL     OW 8847   9.007   6.659  11.698
 2317SOL    HW1 8848   8.924   6.654  11.652
 2317SOL    HW2 8849   9.073   6.639  11.632
 2318SOL     OW 8850   2.615   1.766   7.544
 2318SOL    HW1 8851   2.658   1.849   7.524
 2318SOL    HW2 8852   2.535   1.767   7.492
 2319SOL     OW 8853   6.263   7.374   8.328
 2319SOL    HW1 8854   6.177   7.408   8.352
 2319SOL    HW2 8855   6.303   7.443   8.276
 2320SOL     OW 8856   5.694   6.773   7.258
 2320SOL    HW1 8857   5.758   6.798   7.191
 2320SOL    HW2 8858   5.695   6.846   7.320
 2321SOL     OW 8859   8.506   2.979   7.794
 2321SOL    HW1 8860   8.438   3.037   7.829
 2321SOL    HW2 8861   8.575   2.979   7.860
 2322SOL     OW 8862   4.567   1.394  14.497
 2322SOL    HW1 8863   4.535   1.331  14.562
 2322SOL    HW2 8864   4.553   1.480  14.538
 2323SOL     OW 8865   3.134   3.050   8.918
 2323SOL    HW1 8866   3.223   3.065   8.884
 2323SOL    HW2 8867   3.127   2.955   8.924
 2324SOL     OW 8868  11.357   0.023   4.182
 2324SOL    HW1 8869  11.369   0.118   4.184
 2324SOL    HW2 8870  11.440  14.861   4.148
 2325SOL     OW 8871  13.265   2.421  11.705
 2325SOL    HW1 8872  13.206   2.437  11.779
 2325SOL    HW2 8873  13.306   2.505  11.688
 2326SOL     OW 8874   0.172   4.794  10.653
 2326SOL    HW1 8875   0.120   4.745  10.716
 2326SOL    HW2 8876   0.160   4.747  10.570
 2327SOL     OW 8877   0.845   7.286   4.008
 2327SOL    HW1 8878   0.820   7.360   4.062
 2327SOL    HW2 8879   0.865   7.324   3.922
 2328SOL     OW 8880   7.688   3.518   1.555
 2328SOL    HW1 8881   7.776   3.517   1.516
 2328SOL    HW2 8882   7.643   3.590   1.510
 2329SOL     OW 8883  13.015  12.741   2.412
 2329SOL    HW1 8884  12.993  12.759   2.321
 2329SOL    HW2 8885  13.028  12.827   2.451
 2330SOL     OW 8886   2.340   0.331   4.359
 2330SOL    HW1 8887   2.338   0.370   4.272
 2330SOL    HW2 8888   2.430   0.344   4.389
 2331SOL     OW 8889   8.916   8.177  13.446
 2331SOL    HW1 8890   8.931   8.250  13.386
 2331SOL    HW2 8891   8.932   8.099  13.392
 2332SOL     OW 8892  12.495   5.709  10.884
 2332SOL    HW1 8893  12.441   5.630  10.877
 2332SOL    HW2 8894  12.434   5.781  10.869
 2333SOL     OW 8895   2.386   3.906   0.221
 2333SOL    HW1 8896   2.405   3.973   0.287
 2333SOL    HW2 8897   2.451   3.837   0.238
 2334SOL     OW 8898   6.582   8.483   5.271
 2334SOL    HW1 8899   6.589   8.396   5.310
 2334SOL    HW2 8900   6.516   8.528   5.324
 2335SOL     OW 8901  12.414  14.382   9.393
 2335SOL    HW1 8902  12.334  14.415   9.434
 2335SOL    HW2 8903  12.429  14.297   9.435
 2336SOL     OW 8904   7.471   5.059   1.746
 2336SOL    HW1 8905   7.475   5.016   1.831
 2336SOL    HW2 8906   7.557   5.099   1.735
 2337SOL     OW 8907   8.288   2.480   9.286
 2337SOL    HW1 8908   8.282   2.422   9.210
 2337SOL    HW2 8909   8.332   2.559   9.253
 2338SOL     OW 8910   0.091   3.503   2.505
 2338SOL    HW1 8911   0.063   3.506   2.414
 2338SOL    HW2 8912   0.152   3.430   2.510
 2339SOL     OW 8913   2.040   1.834   8.509
 2339SOL    HW1 8914   2.067   1.835   8.418
 2339SOL    HW2 8915   2.001   1.748   8.523
 2340SOL     OW 8916   3.829   9.743   6.866
 2340SOL    HW1 8917   3.920   9.769   6.874
 2340SOL    HW2 8918   3.782   9.802   6.925
 2341SOL     OW 8919   0.213   4.580   7.521
 2341SOL    HW1 8920   0.307   4.565   7.531
 2341SOL    HW2 8921   0.204   4.675   7.521
 2342SOL     OW 8922   2.768   2.394   6.486
 2342SOL    HW1 8923   2.756   2.431   6.573
 2342SOL    HW2 8924   2.682   2.357   6.464
 2343SOL     OW 8925   6.255   2.909   1.004
 2343SOL    HW1 8926   6.279   2.995   1.039
 2343SOL    HW2 8927   6.284   2.912   0.913
 2344SOL     OW 8928   3.722  12.948  12.403
 2344SOL    HW1 8929   3.720  13.016  12.471
 2344SOL    HW2 8930   3.813  12.948  12.373
 2345SOL     OW 8931   2.608   8.184   1.266
 2345SOL    HW1 8932   2.688   8.197   1.317
 2345SOL    HW2 8933   2.538   8.207   1.327
 2346SOL     OW 8934   0.032  12.899  10.015
 2346SOL    HW1 8935   0.078  12.982  10.025
 2346SOL    HW2 8936   0.067  12.844  10.085
 2347SOL     OW 8937  11.383   5.156   3.725
 2347SOL    HW1 8938  11.318   5.225   3.739
 2347SOL    HW2 8939  11.349   5.080   3.773
 2348SOL     OW 8940  11.482   6.615   6.400
 2348SOL    HW1 8941  11.560   6.670   6.388
 2348SOL    HW2 8942  11.505   6.557   6.472
 2349SOL     OW 8943   1.410   7.667   5.193
 2349SOL    HW1 8944   1.345   7.732   5.222
 2349SOL    HW2 8945   1.393   7.657   5.099
 2350SOL     OW 8946   1.752   9.318  12.098
 2350SOL    HW1 8947   1.743   9.232  12.058
 2350SOL    HW2 8948   1.672   9.365  12.074
 2351SOL     OW 8949   4.340   4.822   6.786
 2351SOL    HW1 8950   4.357   4.761   6.858
 2351SOL    HW2 8951   4.379   4.904   6.814
 2352SOL     OW 8952   8.850   4.494   6.543
 2352SOL    HW1 8953   8.927   4.440   6.524
 2352SOL    HW2 8954   8.784   4.432   6.573
 2353SOL     OW 8955   6.337  11.978   1.703
 2353SOL    HW1 8956   6.363  12.009   1.617
 2353SOL    HW2 8957   6.332  11.883   1.695
 2354SOL     OW 8958   2.626   2.334   7.444
 2354SOL    HW1 8959   2.622   2.413   7.391
 2354SOL    HW2 8960   2.711   2.337   7.487
 2355SOL     OW 8961   1.258   6.961   7.184
 2355SOL    HW1 8962   1.338   6.972   7.236
 2355SOL    HW2 8963   1.213   7.045   7.190
 2356SOL     OW 8964  13.391  13.279   7.473
 2356SOL    HW1 8965  13.400  13.207   7.410
 2356SOL    HW2 8966  13.300  13.277   7.500
 2357SOL     OW 8967   0.126   5.968   3.701
 2357SOL    HW1 8968   0.111   5.913   3.623
 2357SOL    HW2 8969   0.056   5.944   3.761
 2358SOL     OW 8970   5.997   2.019   2.130
 2358SOL    HW1 8971   6.072   2.002   2.187
 2358SOL    HW2 8972   5.921   1.995   2.182
 2359SOL     OW 8973  13.915   0.893   9.901
 2359SOL    HW1 8974  13.895   0.801   9.921
 2359SOL    HW2 8975  13.942   0.892   9.809
 2360SOL     OW 8976   4.895   0.114   1.790
 2360SOL    HW1 8977   4.823   0.071   1.836
 2360SOL    HW2 8978   4.958   0.045   1.773
 2361SOL     OW 8979  12.903   7.725  11.298
 2361SOL    HW1 8980  12.914   7.675  11.380
 2361SOL    HW2 8981  12.986   7.772  11.288
 2362SOL     OW 8982  14.846   6.590  11.290
 2362SOL    HW1 8983   0.001   6.679  11.313
 2362SOL    HW2 8984  14.779   6.601  11.223
 2363SOL     OW 8985   3.592  12.513   9.348
 2363SOL    HW1 8986   3.683  12.516   9.377
 2363SOL    HW2 8987   3.546  12.469   9.419
 2364SOL     OW 8988   3.664   1.780   0.012
 2364SOL    HW1 8989   3.614   1.860  14.868
 2364SOL    HW2 8990   3.612   1.732   0.076
 2365SOL     OW 8991  13.098   4.459   4.603
 2365SOL    HW1 8992  13.073   4.546   4.634
 2365SOL    HW2 8993  13.142   4.474   4.519
 2366SOL     OW 8994   8.478  14.477   0.398
 2366SOL    HW1 8995   8.408  14.543   0.398
 2366SOL    HW2 8996   8.500  14.465   0.306
 2367SOL     OW 8997   5.515   7.343   1.668
 2367SOL    HW1 8998   5.510   7.314   1.759
 2367SOL    HW2 8999   5.587   7.292   1.631
 2368SOL     OW 9000  10.398   1.026   2.500
 2368SOL    HW1 9001  10.431   1.046   2.587
 2368SOL    HW2 9002  10.475   1.002   2.449
 2369SOL     OW 9003   1.439   6.192  13.175
 2369SOL    HW1 9004   1.355   6.171  13.134
 2369SOL    HW2 9005   1.422   6.183  13.269
 2370SOL     OW 9006   3.042  14.718   6.346
 2370SOL    HW1 9007   3.003  14.635   6.372
 2370SOL    HW2 9008   2.981  14.785   6.377
 2371SOL     OW 9009   5.936   1.619   7.451
 2371SOL    HW1 9010   5.891   1.551   7.401
 2371SOL    HW2 9011   5.866   1.667   7.495
 2372SOL     OW 9012  14.101  10.171   5.237
 2372SOL    HW1 9013  14.165  10.195   5.170
 2372SOL    HW2 9014  14.087  10.252   5.286
 2373SOL     OW 9015  12.281   7.350   9.344
 2373SOL    HW1 9016  12.287   7.423   9.283
 2373SOL    HW2 9017  12.217   7.290   9.305
 2374SOL     OW 9018   9.691  12.314   7.188
 2374SOL    HW1 9019   9.771  12.353   7.222
 2374SOL    HW2 9020   9.720  12.251   7.122
 2375SOL     OW 9021   3.967   5.222   2.720
 2375SOL    HW1 9022   3.938   5.216   2.629
 2375SOL    HW2 9023   3.944   5.310   2.747
 2376SOL     OW 9024  11.891  11.811   6.109
 2376SOL    HW1 9025  11.853  11.812   6.021
 2376SOL    HW2 9026  11.846  11.739   6.154
 2377SOL     OW 9027   5.413   6.715   1.523
 2377SOL    HW1 9028   5.461   6.792   1.493
 2377SOL    HW2 9029   5.481   6.656   1.557
 2378SOL     OW 9030  13.143  12.720   2.657
 2378SOL    HW1 9031  13.126  12.721   2.563
 2378SOL    HW2 9032  13.094  12.644   2.689
 2379SOL     OW 9033   7.350   9.251   6.683
 2379SOL    HW1 9034   7.420   9.281   6.624
 2379SOL    HW2 9035   7.354   9.311   6.757
 2380SOL     OW 9036   2.272   4.627   0.094
 2380SOL    HW1 9037   2.261   4.667   0.180
 2380SOL    HW2 9038   2.348   4.570   0.102
 2381SOL     OW 9039   5.224   2.725   6.843
 2381SOL    HW1 9040   5.147   2.755   6.892
 2381SOL    HW2 9041   5.212   2.761   6.756
 2382SOL     OW 9042   2.374   3.595  10.310
 2382SOL    HW1 9043   2.379   3.662  10.242
 2382SOL    HW2 9044   2.377   3.512  10.262
 2383SOL     OW 9045   7.322   5.148   1.129
 2383SOL    HW1 9046   7.282   5.122   1.046
 2383SOL    HW2 9047   7.287   5.235   1.147
 2384SOL     OW 9048   3.513   2.804   7.652
 2384SOL    HW1 9049   3.531   2.720   7.694
 2384SOL    HW2 9050   3.595   2.828   7.610
 2385SOL     OW 9051   3.591   1.134   2.243
 2385SOL    HW1 9052   3.668   1.146   2.298
 2385SOL    HW2 9053   3.621   1.153   2.155
 2386SOL     OW 9054   0.785   4.687   7.396
 2386SOL    HW1 9055   0.820   4.613   7.347
 2386SOL    HW2 9056   0.767   4.652   7.483
 2387SOL     OW 9057   5.204   5.923  10.738
 2387SOL    HW1 9058   5.179   5.916  10.831
 2387SOL    HW2 9059   5.172   6.009  10.711
 2388SOL     OW 9060   6.215   1.249  11.848
 2388SOL    HW1 9061   6.193   1.269  11.757
 2388SOL    HW2 9062   6.310   1.258  11.852
 2389SOL     OW 9063   8.774  12.144   3.596
 2389SOL    HW1 9064   8.820  12.065   3.625
 2389SOL    HW2 9065   8.712  12.163   3.666
 2390SOL     OW 9066   9.146   6.840   9.624
 2390SOL    HW1 9067   9.069   6.872   9.577
 2390SOL    HW2 9068   9.147   6.746   9.607
 2391SOL     OW 9069   1.502   9.530   0.889
 2391SOL    HW1 9070   1.438   9.542   0.819
 2391SOL    HW2 9071   1.559   9.460   0.858
 2392SOL     OW 9072   1.160   7.901  10.964
 2392SOL    HW1 9073   1.242   7.897  10.914
 2392SOL    HW2 9074   1.185   7.874  11.052
 2393SOL     OW 9075  11.287   1.545  14.046
 2393SOL    HW1 9076  11.288   1.622  14.103
 2393SOL    HW2 9077  11.199   1.508  14.056
 2394SOL     OW 9078   8.749   4.210  10.967
 2394SOL    HW1 9079   8.786   4.144  11.026
 2394SOL    HW2 9080   8.744   4.289  11.020
 2395SOL     OW 9081   9.664   4.630   0.099
 2395SOL    HW1 9082   9.749   4.593   0.072
 2395SOL    HW2 9083   9.602   4.558   0.089
 2396SOL     OW 9084  14.230   4.313   3.721
 2396SOL    HW1 9085  14.168   4.266   3.665
 2396SOL    HW2 9086  14.313   4.309   3.674
 2397SOL     OW 9087   3.180   7.680   5.574
 2397SOL    HW1 9088   3.199   7.729   5.495
 2397SOL    HW2 9089   3.173   7.746   5.643
 2398SOL     OW 9090   8.580   1.014   4.209
 2398SOL    HW1 9091   8.607   1.056   4.290
 2398SOL    HW2 9092   8.519   0.946   4.236
 2399SOL     OW 9093   8.510  12.797  14.423
 2399SOL    HW1 9094   8.601  12.805  14.449
 2399SOL    HW2 9095   8.487  12.882  14.386
 2400SOL     OW 9096  11.103   8.305  10.979
 2400SOL    HW1 9097  11.065   8.312  11.066
 2400SOL    HW2 9098  11.189   8.347  10.987
 2401SOL     OW 9099  13.103   7.592  12.980
 2401SOL    HW1 9100  13.145   7.563  12.899
 2401SOL    HW2 9101  13.033   7.529  12.995
 2402SOL     OW 9102   2.612  12.461   7.809
 2402SOL    HW1 9103   2.548  12.466   7.738
 2402SOL    HW2 9104   2.681  12.522   7.785
 2403SOL     OW 9105  12.286  12.678   4.849
 2403SOL    HW1 9106  12.333  12.731   4.913
 2403SOL    HW2 9107  12.246  12.742   4.790
 2404SOL     OW 9108   3.010   0.183   1.705
 2404SOL    HW1 9109   3.036   0.236   1.781
 2404SOL    HW2 9110   3.082   0.195   1.642
 2405SOL     OW 9111   4.054   5.395  13.346
 2405SOL    HW1 9112   4.070   5.302  13.358
 2405SOL    HW2 9113   4.141   5.434  13.342
 2406SOL     OW 9114   3.483   9.795   3.127
 2406SOL    HW1 9115   3.566   9.820   3.167
 2406SOL    HW2 9116   3.420   9.797   3.199
 2407SOL     OW 9117  10.130   3.877   8.933
 2407SOL    HW1 9118  10.096   3.835   8.855
 2407SOL    HW2 9119  10.219   3.904   8.910
 2408SOL     OW 9120   2.764  10.168   3.394
 2408SOL    HW1 9121   2.696  10.102   3.405
 2408SOL    HW2 9122   2.842  10.118   3.370
 2409SOL     OW 9123   9.714   2.769   7.343
 2409SOL    HW1 9124   9.633   2.786   7.295
 2409SOL    HW2 9125   9.782   2.811   7.291
 2410SOL     OW 9126   4.533   7.024  14.676
 2410SOL    HW1 9127   4.543   6.961  14.605
 2410SOL    HW2 9128   4.622   7.045  14.702
 2411SOL     OW 9129   8.691  14.841   9.903
 2411SOL    HW1 9130   8.762  14.796   9.858
 2411SOL    HW2 9131   8.646   0.018   9.834
 2412SOL     OW 9132  13.930   0.237   8.902
 2412SOL    HW1 9133  13.881   0.157   8.925
 2412SOL    HW2 9134  13.925   0.291   8.981
 2413SOL     OW 9135  13.853  11.472  13.772
 2413SOL    HW1 9136  13.944  11.443  13.764
 2413SOL    HW2 9137  13.849  11.555  13.724
 2414SOL     OW 9138  11.220  12.201   1.490
 2414SOL    HW1 9139  11.245  12.266   1.555
 2414SOL    HW2 9140  11.297  12.193   1.433
 2415SOL     OW 9141  10.363  13.971   2.393
 2415SOL    HW1 9142  10.280  14.001   2.430
 2415SOL    HW2 9143  10.364  13.877   2.409
 2416SOL     OW 9144   2.077   8.431  12.986
 2416SOL    HW1 9145   2.044   8.489  12.917
 2416SOL    HW2 9146   2.132   8.368  12.939
 2417SOL     OW 9147   1.892   4.490   7.468
 2417SOL    HW1 9148   1.898   4.575   7.425
 2417SOL    HW2 9149   1.798   4.478   7.483
 2418SOL     OW 9150  10.102   5.015  11.046
 2418SOL    HW1 9151  10.109   4.982  11.136
 2418SOL    HW2 9152  10.152   5.096  11.046
 2419SOL     OW 9153  13.781  10.444   4.815
 2419SOL    HW1 9154  13.865  10.419   4.852
 2419SOL    HW2 9155  13.718  10.381   4.850
 2420SOL     OW 9156   6.856  13.290   8.833
 2420SOL    HW1 9157   6.924  13.225   8.817
 2420SOL    HW2 9158   6.859  13.305   8.928
 2421SOL     OW 9159  10.406   5.025  13.365
 2421SOL    HW1 9160  10.399   5.119  13.382
 2421SOL    HW2 9161  10.361   5.012  13.281
 2422SOL     OW 9162   0.758  11.668   5.089
 2422SOL    HW1 9163   0.790  11.736   5.149
 2422SOL    HW2 9164   0.669  11.694   5.068
 2423SOL     OW 9165   5.435  14.473   0.190
 2423SOL    HW1 9166   5.374  14.417   0.143
 2423SOL    HW2 9167   5.380  14.527   0.246
 2424SOL     OW 9168  10.606   0.955   7.051
 2424SOL    HW1 9169  10.617   1.038   7.005
 2424SOL    HW2 9170  10.514   0.955   7.078
 2425SOL     OW 9171   2.000   4.770   2.590
 2425SOL    HW1 9172   2.021   4.815   2.508
 2425SOL    HW2 9173   1.911   4.737   2.576
 2426SOL     OW 9174  12.464   7.586   2.103
 2426SOL    HW1 9175  12.541   7.600   2.158
 2426SOL    HW2 9176  12.391   7.575   2.164
 2427SOL     OW 9177   7.448   5.747   6.901
 2427SOL    HW1 9178   7.377   5.728   6.840
 2427SOL    HW2 9179   7.410   5.732   6.987
 2428SOL     OW 9180  12.910  12.641  12.711
 2428SOL    HW1 9181  12.949  12.564  12.670
 2428SOL    HW2 9182  12.976  12.671  12.774
 2429SOL     OW 9183   4.673  12.980   7.427
 2429SOL    HW1 9184   4.669  13.038   7.503
 2429SOL    HW2 9185   4.728  12.907   7.455
 2430SOL     OW 9186   4.171   2.228  11.289
 2430SOL    HW1 9187   4.136   2.317  11.296
 2430SOL    HW2 9188   4.141   2.197  11.204
 2431SOL     OW 9189   2.993   5.891   0.841
 2431SOL    HW1 9190   3.003   5.884   0.746
 2431SOL    HW2 9191   3.061   5.834   0.877
 2432SOL     OW 9192  12.389  10.754   6.135
 2432SOL    HW1 9193  12.366  10.712   6.052
 2432SOL    HW2 9194  12.462  10.812   6.113
 2433SOL     OW 9195  14.753   0.863  13.109
 2433SOL    HW1 9196  14.767   0.805  13.184
 2433SOL    HW2 9197  14.833   0.855  13.057
 2434SOL     OW 9198  10.318  13.555   9.504
 2434SOL    HW1 9199  10.409  13.527   9.504
 2434SOL    HW2 9200  10.320  13.645   9.472
 2435SOL     OW 9201   4.766   9.901   5.994
 2435SOL    HW1 9202   4.826   9.932   6.062
 2435SOL    HW2 9203   4.693   9.862   6.041
 2436SOL     OW 9204   9.917  14.556   2.771
 2436SOL    HW1 9205   9.935  14.468   2.736
 2436SOL    HW2 9206   9.946  14.551   2.862
 2437SOL     OW 9207   3.449   4.743   4.734
 2437SOL    HW1 9208   3.388   4.719   4.804
 2437SOL    HW2 9209   3.425   4.686   4.661
 2438SOL     OW 9210   9.138   2.006  10.505
 2438SOL    HW1 9211   9.212   2.028  10.448
 2438SOL    HW2 9212   9.065   1.995  10.445
 2439SOL     OW 9213   2.647  11.908   5.646
 2439SOL    HW1 9214   2.659  11.859   5.727
 2439SOL    HW2 9215   2.553  11.907   5.630
 2440SOL     OW 9216   5.094  12.582  10.557
 2440SOL    HW1 9217   5.086  12.662  10.506
 2440SOL    HW2 9218   5.173  12.595  10.609
 2441SOL     OW 9219   8.435   5.599  10.838
 2441SOL    HW1 9220   8.496   5.540  10.883
 2441SOL    HW2 9221   8.379   5.633  10.908
 2442SOL     OW 9222  12.104  13.652   1.009
 2442SOL    HW1 9223  12.099  13.597   0.931
 2442SOL    HW2 9224  12.043  13.611   1.070
 2443SOL     OW 9225   7.883   3.293   2.241
 2443SOL    HW1 9226   7.911   3.261   2.327
 2443SOL    HW2 9227   7.795   3.258   2.230
 2444SOL     OW 9228  13.564  11.511  12.499
 2444SOL    HW1 9229  13.566  11.605  12.518
 2444SOL    HW2 9230  13.507  11.503  12.422
 2445SOL     OW 9231   5.747   5.973  13.267
 2445SOL    HW1 9232   5.805   5.985  13.193
 2445SOL    HW2 9233   5.731   5.878  13.270
 2446SOL     OW 9234   5.601  11.034   4.451
 2446SOL    HW1 9235   5.559  11.013   4.535
 2446SOL    HW2 9236   5.664  11.103   4.472
 2447SOL     OW 9237   9.486   0.653   5.716
 2447SOL    HW1 9238   9.507   0.564   5.742
 2447SOL    HW2 9239   9.479   0.650   5.621
 2448SOL     OW 9240  13.568   8.385   6.388
 2448SOL    HW1 9241  13.499   8.358   6.328
 2448SOL    HW2 9242  13.632   8.313   6.387
 2449SOL     OW 9243   5.681  10.737   5.420
 2449SOL    HW1 9244   5.599  10.742   5.371
 2449SOL    HW2 9245   5.694  10.644   5.436
 2450SOL     OW 9246   0.834   4.375  13.641
 2450SOL    HW1 9247   0.842   4.349  13.732
 2450SOL    HW2 9248   0.915   4.422  13.622
 2451SOL     OW 9249   7.157  10.262   5.289
 2451SOL    HW1 9250   7.178  10.189   5.231
 2451SOL    HW2 9251   7.083  10.232   5.341
 2452SOL     OW 9252   6.930   4.851  13.482
 2452SOL    HW1 9253   6.843   4.831  13.446
 2452SOL    HW2 9254   6.913   4.879  13.572
 2453SOL     OW 9255  13.596   1.487   7.553
 2453SOL    HW1 9256  13.570   1.572   7.518
 2453SOL    HW2 9257  13.620   1.505   7.644
 2454SOL     OW 9258   8.711   9.166   8.994
 2454SOL    HW1 9259   8.712   9.230   8.923
 2454SOL    HW2 9260   8.698   9.082   8.950
 2455SOL     OW 9261   5.162   1.472   2.953
 2455SOL    HW1 9262   5.081   1.437   2.916
 2455SOL    HW2 9263   5.158   1.566   2.936
 2456SOL     OW 9264   7.799   1.817   2.110
 2456SOL    HW1 9265   7.801   1.751   2.179
 2456SOL    HW2 9266   7.717   1.864   2.124
 2457SOL     OW 9267  13.813   6.352  10.735
 2457SOL    HW1 9268  13.785   6.344  10.826
 2457SOL    HW2 9269  13.736   6.329  10.684
 2458SOL     OW 9270   3.232   5.065  13.638
 2458SOL    HW1 9271   3.230   5.107  13.552
 2458SOL    HW2 9272   3.304   5.002  13.631
 2459SOL     OW 9273  11.683   9.913  14.122
 2459SOL    HW1 9274  11.617   9.981  14.133
 2459SOL    HW2 9275  11.634   9.831  14.126
 2460SOL     OW 9276   3.150  11.708  14.129
 2460SOL    HW1 9277   3.102  11.758  14.062
 2460SOL    HW2 9278   3.239  11.701  14.094
 2461SOL     OW 9279   8.643  13.256  10.887
 2461SOL    HW1 9280   8.669  13.209  10.966
 2461SOL    HW2 9281   8.548  13.246  10.883
 2462SOL     OW 9282   5.631   9.575   5.483
 2462SOL    HW1 9283   5.548   9.569   5.529
 2462SOL    HW2 9284   5.639   9.492   5.436
 2463SOL     OW 9285  10.198  11.086   4.662
 2463SOL    HW1 9286  10.233  11.002   4.693
 2463SOL    HW2 9287  10.143  11.063   4.587
 2464SOL     OW 9288   0.957  11.625   1.410
 2464SOL    HW1 9289   0.911  11.685   1.351
 2464SOL    HW2 9290   1.018  11.681   1.458
 2465SOL     OW 9291   5.582  12.547   8.631
 2465SOL    HW1 9292   5.581  12.607   8.706
 2465SOL    HW2 9293   5.506  12.491   8.644
 2466SOL     OW 9294   8.903  10.509   8.044
 2466SOL    HW1 9295   8.957  10.475   8.116
 2466SOL    HW2 9296   8.899  10.438   7.981
 2467SOL     OW 9297   8.671   4.384   5.595
 2467SOL    HW1 9298   8.737   4.349   5.536
 2467SOL    HW2 9299   8.720   4.410   5.674
 2468SOL     OW 9300  10.454   5.485   6.299
 2468SOL    HW1 9301  10.436   5.509   6.208
 2468SOL    HW2 9302  10.549   5.497   6.308
 2469SOL     OW 9303   3.388   4.479   4.046
 2469SOL    HW1 9304   3.335   4.399   4.043
 2469SOL    HW2 9305   3.358   4.530   3.971
 2470SOL     OW 9306   2.271   6.360   2.033
 2470SOL    HW1 9307   2.366   6.350   2.026
 2470SOL    HW2 9308   2.251   6.342   2.125
 2471SOL     OW 9309   2.574   8.766   2.989
 2471SOL    HW1 9310   2.616   8.841   2.946
 2471SOL    HW2 9311   2.557   8.796   3.079
 2472SOL     OW 9312  11.294   5.879   5.855
 2472SOL    HW1 9313  11.312   5.902   5.946
 2472SOL    HW2 9314  11.378   5.851   5.820
 2473SOL     OW 9315   2.588  12.338   3.743
 2473SOL    HW1 9316   2.684  12.337   3.738
 2473SOL    HW2 9317   2.566  12.430   3.758
 2474SOL     OW 9318   3.270   2.939   4.750
 2474SOL    HW1 9319   3.360   2.954   4.776
 2474SOL    HW2 9320   3.218   2.959   4.828
 2475SOL     OW 9321  12.814  14.499  13.443
 2475SOL    HW1 9322  12.772  14.490  13.358
 2475SOL    HW2 9323  12.784  14.584  13.475
 2476SOL     OW 9324  12.153   0.403   6.341
 2476SOL    HW1 9325  12.202   0.370   6.266
 2476SOL    HW2 9326  12.073   0.352   6.342
 2477SOL     OW 9327   8.977   6.723  13.799
 2477SOL    HW1 9328   8.997   6.747  13.889
 2477SOL    HW2 9329   8.883   6.739  13.790
 2478SOL     OW 9330   7.289   2.263   1.888
 2478SOL    HW1 9331   7.217   2.210   1.920
 2478SOL    HW2 9332   7.355   2.259   1.957
 2479SOL     OW 9333   5.466   7.069   9.573
 2479SOL    HW1 9334   5.445   7.004   9.505
 2479SOL    HW2 9335   5.512   7.138   9.527
 2480SOL     OW 9336  12.089   1.550   3.973
 2480SOL    HW1 9337  12.147   1.616   4.011
 2480SOL    HW2 9338  12.122   1.537   3.885
 2481SOL     OW 9339  13.781  12.133   4.368
 2481SOL    HW1 9340  13.813  12.213   4.410
 2481SOL    HW2 9341  13.716  12.097   4.429
 2482SOL     OW 9342   1.707   7.008  14.602
 2482SOL    HW1 9343   1.646   6.959  14.657
 2482SOL    HW2 9344   1.685   7.100  14.616
 2483SOL     OW 9345   2.630  12.983   1.767
 2483SOL    HW1 9346   2.668  12.926   1.701
 2483SOL    HW2 9347   2.652  12.941   1.850
 2484SOL     OW 9348   2.198   5.427   1.556
 2484SOL    HW1 9349   2.207   5.504   1.500
 2484SOL    HW2 9350   2.285   5.416   1.595
 2485SOL     OW 9351   0.820  11.837   2.713
 2485SOL    HW1 9352   0.727  11.846   2.736
 2485SOL    HW2 9353   0.865  11.886   2.781
 2486SOL     OW 9354   4.720  13.031   0.715
 2486SOL    HW1 9355   4.792  13.036   0.652
 2486SOL    HW2 9356   4.693  13.122   0.728
 2487SOL     OW 9357  10.732   5.954   1.240
 2487SOL    HW1 9358  10.742   5.891   1.169
 2487SOL    HW2 9359  10.710   5.901   1.317
 2488SOL     OW 9360  11.789  10.615   8.974
 2488SOL    HW1 9361  11.790  10.591   8.881
 2488SOL    HW2 9362  11.697  10.626   8.996
 2489SOL     OW 9363   6.900   5.115   6.508
 2489SOL    HW1 9364   6.850   5.087   6.584
 2489SOL    HW2 9365   6.888   5.044   6.444
 2490SOL     OW 9366  12.168   7.498  11.937
 2490SOL    HW1 9367  12.157   7.410  11.973
 2490SOL    HW2 9368  12.131   7.556  12.004
 2491SOL     OW 9369  10.971   9.890   7.174
 2491SOL    HW1 9370  10.967   9.898   7.079
 2491SOL    HW2 9371  10.993   9.798   7.190
 2492SOL     OW 9372   7.218   2.985  10.025
 2492SOL    HW1 9373   7.290   2.959   9.968
 2492SOL    HW2 9374   7.260   3.008  10.108
 2493SOL     OW 9375   2.206   6.304  11.918
 2493SOL    HW1 9376   2.289   6.261  11.896
 2493SOL    HW2 9377   2.166   6.322  11.833
 2494SOL     OW 9378  13.556   3.979  11.628
 2494SOL    HW1 9379  13.542   3.953  11.719
 2494SOL    HW2 9380  13.499   4.054  11.615
 2495SOL     OW 9381   1.504   9.263   9.749
 2495SOL    HW1 9382   1.418   9.272   9.791
 2495SOL    HW2 9383   1.491   9.291   9.659
 2496SOL     OW 9384   7.293   4.494   8.413
 2496SOL    HW1 9385   7.283   4.423   8.477
 2496SOL    HW2 9386   7.376   4.474   8.368
 2497SOL     OW 9387   0.169  10.801   9.786
 2497SOL    HW1 9388   0.246  10.743   9.782
 2497SOL    HW2 9389   0.123  10.774   9.865
 2498SOL     OW 9390   7.089   1.435   6.604
 2498SOL    HW1 9391   7.149   1.397   6.539
 2498SOL    HW2 9392   7.102   1.529   6.596
 2499SOL     OW 9393   0.641   4.614   6.031
 2499SOL    HW1 9394   0.549   4.585   6.032
 2499SOL    HW2 9395   0.663   4.621   5.939
 2500SOL     OW 9396   4.388   0.817   0.291
 2500SOL    HW1 9397   4.470   0.780   0.324
 2500SOL    HW2 9398   4.388   0.907   0.324
 2501SOL     OW 9399   0.470  13.688  10.751
 2501SOL    HW1 9400   0.561  13.682  10.780
 2501SOL    HW2 9401   0.419  13.652  10.823
 2502SOL     OW 9402   3.553   6.830  10.525
 2502SOL    HW1 9403   3.497   6.906  10.514
 2502SOL    HW2 9404   3.518   6.784  10.601
 2503SOL     OW 9405   8.714   1.504   1.894
 2503SOL    HW1 9406   8.736   1.436   1.831
 2503SOL    HW2 9407   8.760   1.480   1.974
 2504SOL     OW 9408   3.026  10.675  13.424
 2504SOL    HW1 9409   2.978  10.651  13.345
 2504SOL    HW2 9410   2.971  10.740  13.467
 2505SOL     OW 9411   2.861   6.375   9.009
 2505SOL    HW1 9412   2.952   6.345   9.020
 2505SOL    HW2 9413   2.832   6.333   8.928
 2506SOL     OW 9414   5.875   2.064   4.931
 2506SOL    HW1 9415   5.810   1.997   4.952
 2506SOL    HW2 9416   5.833   2.118   4.864
 2507SOL     OW 9417   5.492  11.598   9.895
 2507SOL    HW1 9418   5.580  11.560   9.897
 2507SOL    HW2 9419   5.464  11.591   9.804
 2508SOL     OW 9420   2.924   1.346   8.150
 2508SOL    HW1 9421   2.907   1.319   8.240
 2508SOL    HW2 9422   2.918   1.442   8.152
 2509SOL     OW 9423  14.552   9.677  11.192
 2509SOL    HW1 9424  14.630   9.708  11.147
 2509SOL    HW2 9425  14.569   9.584  11.208
 2510SOL     OW 9426  10.488   8.406  13.508
 2510SOL    HW1 9427  10.561   8.343  13.505
 2510SOL    HW2 9428  10.485   8.443  13.420
 2511SOL     OW 9429  10.534  10.902   7.231
 2511SOL    HW1 9430  10.609  10.891   7.173
 2511SOL    HW2 9431  10.537  10.994   7.257
 2512SOL     OW 9432   4.353  12.254   8.849
 2512SOL    HW1 9433   4.324  12.197   8.920
 2512SOL    HW2 9434   4.426  12.303   8.886
 2513SOL     OW 9435   1.397  14.320  12.927
 2513SOL    HW1 9436   1.442  14.376  12.991
 2513SOL    HW2 9437   1.319  14.369  12.903
 2514SOL     OW 9438   3.670   0.073   9.555
 2514SOL    HW1 9439   3.612   0.075   9.631
 2514SOL    HW2 9440   3.623   0.021   9.489
 2515SOL     OW 9441  12.385   0.325  14.247
 2515SOL    HW1 9442  12.376   0.373  14.329
 2515SOL    HW2 9443  12.403   0.393  14.181
 2516SOL     OW 9444   4.989   8.375  11.875
 2516SOL    HW1 9445   4.913   8.414  11.916
 2516SOL    HW2 9446   5.022   8.311  11.938
 2517SOL     OW 9447   1.980   0.352   7.811
 2517SOL    HW1 9448   1.953   0.439   7.780
 2517SOL    HW2 9449   1.929   0.338   7.890
 2518SOL     OW 9450   2.155   8.897   2.884
 2518SOL    HW1 9451   2.135   8.834   2.815
 2518SOL    HW2 9452   2.207   8.965   2.840
 2519SOL     OW 9453   1.067   6.055  14.553
 2519SOL    HW1 9454   0.976   6.067  14.579
 2519SOL    HW2 9455   1.065   6.051  14.457
 2520SOL     OW 9456  11.472  12.766   9.881
 2520SOL    HW1 9457  11.399  12.793   9.826
 2520SOL    HW2 9458  11.433  12.750   9.966
 2521SOL     OW 9459   5.353   1.040   8.923
 2521SOL    HW1 9460   5.393   1.039   9.010
 2521SOL    HW2 9461   5.424   1.017   8.863
 2522SOL     OW 9462   4.387   4.502   7.733
 2522SOL    HW1 9463   4.322   4.571   7.716
 2522SOL    HW2 9464   4.396   4.501   7.828
 2523SOL     OW 9465   5.137   5.838  14.449
 2523SOL    HW1 9466   5.196   5.829  14.523
 2523SOL    HW2 9467   5.085   5.916  14.470
 2524SOL     OW 9468   1.687   8.051   4.544
 2524SOL    HW1 9469   1.699   8.022   4.454
 2524SOL    HW2 9470   1.736   8.133   4.550
 2525SOL     OW 9471  10.697   1.937  11.664
 2525SOL    HW1 9472  10.612   1.980  11.651
 2525SOL    HW2 9473  10.699   1.914  11.757
 2526SOL     OW 9474  12.445   4.414  10.848
 2526SOL    HW1 9475  12.528   4.440  10.887
 2526SOL    HW2 9476  12.410   4.494  10.808
 2527SOL     OW 9477  11.059   4.672   7.691
 2527SOL    HW1 9478  11.096   4.653   7.605
 2527SOL    HW2 9479  10.965   4.656   7.680
 2528SOL     OW 9480  10.889  13.599   3.222
 2528SOL    HW1 9481  10.846  13.595   3.137
 2528SOL    HW2 9482  10.909  13.508   3.243
 2529SOL     OW 9483   4.904   2.006  12.222
 2529SOL    HW1 9484   4.842   2.045  12.161
 2529SOL    HW2 9485   4.967   2.076  12.240
 2530SOL     OW 9486   7.167  13.783   9.101
 2530SOL    HW1 9487   7.236  13.823   9.049
 2530SOL    HW2 9488   7.100  13.851   9.109
 2531SOL     OW 9489   8.693  14.688   4.974
 2531SOL    HW1 9490   8.689  14.627   5.048
 2531SOL    HW2 9491   8.605  14.724   4.968
 2532SOL     OW 9492  10.680   9.073   3.936
 2532SOL    HW1 9493  10.607   9.114   3.983
 2532SOL    HW2 9494  10.741   9.047   4.005
 2533SOL     OW 9495   6.849  12.509   8.933
 2533SOL    HW1 9496   6.838  12.589   8.880
 2533SOL    HW2 9497   6.813  12.532   9.018
 2534SOL     OW 9498   4.585   8.883   9.767
 2534SOL    HW1 9499   4.551   8.957   9.818
 2534SOL    HW2 9500   4.589   8.811   9.830
 2535SOL     OW 9501   9.719  11.020  11.143
 2535SOL    HW1 9502   9.759  11.085  11.085
 2535SOL    HW2 9503   9.639  11.061  11.174
 2536SOL     OW 9504  14.179   6.373  10.921
 2536SOL    HW1 9505  14.146   6.413  10.841
 2536SOL    HW2 9506  14.104   6.328  10.959
 2537SOL     OW 9507   2.320   2.277   7.096
 2537SOL    HW1 9508   2.379   2.219   7.143
 2537SOL    HW2 9509   2.337   2.259   7.004
 2538SOL     OW 9510  14.466   1.380  13.653
 2538SOL    HW1 9511  14.516   1.361  13.573
 2538SOL    HW2 9512  14.394   1.435  13.623
 2539SOL     OW 9513   6.641   4.958   3.807
 2539SOL    HW1 9514   6.570   5.010   3.844
 2539SOL    HW2 9515   6.596   4.889   3.758
 2540SOL     OW 9516  10.302   4.876   3.643
 2540SOL    HW1 9517  10.317   4.784   3.623
 2540SOL    HW2 9518  10.389   4.916   3.638
 2541SOL     OW 9519   5.287   7.913  11.754
 2541SOL    HW1 9520   5.324   7.828  11.778
 2541SOL    HW2 9521   5.361   7.962  11.718
 2542SOL     OW 9522  11.585   9.096  11.546
 2542SOL    HW1 9523  11.666   9.139  11.517
 2542SOL    HW2 9524  11.541   9.072  11.465
 2543SOL     OW 9525   6.830   8.414   6.419
 2543SOL    HW1 9526   6.771   8.385   6.349
 2543SOL    HW2 9527   6.774   8.417   6.497
 2544SOL     OW 9528   9.754   0.192   5.785
 2544SOL    HW1 9529   9.688   0.179   5.853
 2544SOL    HW2 9530   9.836   0.161   5.824
 2545SOL     OW 9531   1.662   4.333   0.742
 2545SOL    HW1 9532   1.676   4.427   0.755
 2545SOL    HW2 9533   1.594   4.310   0.806
 2546SOL     OW 9534   2.188  14.657  10.113
 2546SOL    HW1 9535   2.113  14.699  10.071
 2546SOL    HW2 9536   2.224  14.724  10.171
 2547SOL     OW 9537   0.323   0.481   8.724
 2547SOL    HW1 9538   0.234   0.449   8.713
 2547SOL    HW2 9539   0.379   0.406   8.701
 2548SOL     OW 9540   7.534   3.269  12.703
 2548SOL    HW1 9541   7.516   3.191  12.650
 2548SOL    HW2 9542   7.599   3.317  12.653
 2549SOL     OW 9543  12.550  14.486   8.907
 2549SOL    HW1 9544  12.554  14.562   8.966
 2549SOL    HW2 9545  12.578  14.412   8.962
 2550SOL     OW 9546   1.236  14.339  14.248
 2550SOL    HW1 9547   1.222  14.244  14.240
 2550SOL    HW2 9548   1.179  14.377  14.182
 2551SOL     OW 9549  11.530   9.097  11.267
 2551SOL    HW1 9550  11.512   9.004  11.279
 2551SOL    HW2 9551  11.492   9.118  11.181
 2552SOL     OW 9552   5.836  13.895  10.513
 2552SOL    HW1 9553   5.926  13.923  10.500
 2552SOL    HW2 9554   5.784  13.953  10.457
 2553SOL     OW 9555   7.036  10.776   0.741
 2553SOL    HW1 9556   7.064  10.790   0.831
 2553SOL    HW2 9557   6.996  10.688   0.742
 2554SOL     OW 9558   8.592   6.974   0.952
 2554SOL    HW1 9559   8.650   6.945   1.022
 2554SOL    HW2 9560   8.645   7.033   0.899
 2555SOL     OW 9561  13.092   5.256  11.855
 2555SOL    HW1 9562  13.127   5.249  11.766
 2555SOL    HW2 9563  13.138   5.189  11.904
 2556SOL     OW 9564   6.471   9.363   3.587
 2556SOL    HW1 9565   6.461   9.290   3.648
 2556SOL    HW2 9566   6.565   9.369   3.571
 2557SOL     OW 9567  12.034   7.201   2.542
 2557SOL    HW1 9568  11.963   7.149   2.505
 2557SOL    HW2 9569  12.067   7.252   2.468
 2558SOL     OW 9570  11.293   4.343  11.781
 2558SOL    HW1 9571  11.357   4.403  11.740
 2558SOL    HW2 9572  11.295   4.265  11.725
 2559SOL     OW 9573   5.146   2.816   5.851
 2559SOL    HW1 9574   5.077   2.763   5.810
 2559SOL    HW2 9575   5.183   2.867   5.779
 2560SOL     OW 9576   9.517   5.452   8.256
 2560SOL    HW1 9577   9.521   5.488   8.344
 2560SOL    HW2 9578   9.423   5.443   8.238
 2561SOL     OW 9579   2.404  11.039   1.956
 2561SOL    HW1 9580   2.387  11.105   1.888
 2561SOL    HW2 9581   2.323  11.037   2.007
 2562SOL     OW 9582   4.794   2.134   2.739
 2562SOL    HW1 9583   4.719   2.191   2.752
 2562SOL    HW2 9584   4.756   2.047   2.725
 2563SOL     OW 9585   9.645   2.508  11.577
 2563SOL    HW1 9586   9.609   2.438  11.632
 2563SOL    HW2 9587   9.608   2.589  11.615
 2564SOL     OW 9588   1.922  12.400   4.447
 2564SOL    HW1 9589   1.830  12.419   4.428
 2564SOL    HW2 9590   1.967  12.408   4.363
 2565SOL     OW 9591   5.469  13.549  11.763
 2565SOL    HW1 9592   5.376  13.550  11.741
 2565SOL    HW2 9593   5.471  13.559  11.858
 2566SOL     OW 9594   5.648  12.860   2.295
 2566SOL    HW1 9595   5.611  12.771   2.292
 2566SOL    HW2 9596   5.737  12.848   2.328
 2567SOL     OW 9597   5.437   0.084   0.161
 2567SOL    HW1 9598   5.408   0.028   0.089
 2567SOL    HW2 9599   5.532   0.084   0.155
 2568SOL     OW 9600   1.319   6.867   3.287
 2568SOL    HW1 9601   1.275   6.950   3.268
 2568SOL    HW2 9602   1.268   6.829   3.359
 2569SOL     OW 9603  10.396   2.906   2.818
 2569SOL    HW1 9604  10.353   2.821   2.805
 2569SOL    HW2 9605  10.325   2.965   2.844
 2570SOL     OW 9606   6.989   4.508   3.841
 2570SOL    HW1 9607   7.010   4.597   3.870
 2570SOL    HW2 9608   7.004   4.509   3.747
 2571SOL     OW 9609   2.829   3.225   5.281
 2571SOL    HW1 9610   2.741   3.241   5.317
 2571SOL    HW2 9611   2.814   3.206   5.189
 2572SOL     OW 9612   5.545   6.204   6.904
 2572SOL    HW1 9613   5.468   6.258   6.887
 2572SOL    HW2 9614   5.619   6.264   6.894
 2573SOL     OW 9615   6.758   4.661   3.996
 2573SOL    HW1 9616   6.827   4.707   3.948
 2573SOL    HW2 9617   6.803   4.584   4.034
 2574SOL     OW 9618   5.900   6.291   8.974
 2574SOL    HW1 9619   5.987   6.319   9.001
 2574SOL    HW2 9620   5.914   6.242   8.893
 2575SOL     OW 9621  11.484   3.877   4.075
 2575SOL    HW1 9622  11.569   3.834   4.072
 2575SOL    HW2 9623  11.504   3.970   4.061
 2576SOL     OW 9624  11.790   3.228   2.749
 2576SOL    HW1 9625  11.869   3.276   2.723
 2576SOL    HW2 9626  11.772   3.259   2.838
 2577SOL     OW 9627   2.652   8.976   8.018
 2577SOL    HW1 9628   2.584   8.913   8.042
 2577SOL    HW2 9629   2.621   9.060   8.053
 2578SOL     OW 9630   8.112   5.571   9.573
 2578SOL    HW1 9631   8.170   5.574   9.649
 2578SOL    HW2 9632   8.127   5.484   9.535
 2579SOL     OW 9633  13.853   1.214   0.934
 2579SOL    HW1 9634  13.862   1.197   0.841
 2579SOL    HW2 9635  13.768   1.177   0.957
 2580SOL     OW 9636   2.735   4.921  10.756
 2580SOL    HW1 9637   2.735   5.015  10.776
 2580SOL    HW2 9638   2.819   4.906  10.711
 2581SOL     OW 9639   2.478  11.674   1.597
 2581SOL    HW1 9640   2.404  11.719   1.637
 2581SOL    HW2 9641   2.520  11.740   1.542
 2582SOL     OW 9642  13.564  13.077   4.507
 2582SOL    HW1 9643  13.559  13.004   4.446
 2582SOL    HW2 9644  13.487  13.130   4.488
 2583SOL     OW 9645   3.859   9.889   9.556
 2583SOL    HW1 9646   3.821   9.848   9.634
 2583SOL    HW2 9647   3.939   9.840   9.540
 2584SOL     OW 9648   2.525   7.636   1.868
 2584SOL    HW1 9649   2.442   7.668   1.833
 2584SOL    HW2 9650   2.534   7.680   1.953
 2585SOL     OW 9651  10.562   8.925   0.016
 2585SOL    HW1 9652  10.473   8.926  14.851
 2585SOL    HW2 9653  10.553   8.965   0.103
 2586SOL     OW 9654   6.877   0.365   9.220
 2586SOL    HW1 9655   6.841   0.449   9.191
 2586SOL    HW2 9656   6.877   0.370   9.315
 2587SOL     OW 9657   7.371   4.337   1.527
 2587SOL    HW1 9658   7.355   4.289   1.609
 2587SOL    HW2 9659   7.284   4.345   1.487
 2588SOL     OW 9660   8.248   5.162  12.716
 2588SOL    HW1 9661   8.328   5.121  12.748
 2588SOL    HW2 9662   8.266   5.183  12.625
 2589SOL     OW 9663   9.976   4.620  14.584
 2589SOL    HW1 9664  10.012   4.539  14.620
 2589SOL    HW2 9665  10.014   4.625  14.496
 2590SOL     OW 9666   1.749   3.476   3.766
 2590SOL    HW1 9667   1.780   3.566   3.754
 2590SOL    HW2 9668   1.679   3.483   3.830
 2591SOL     OW 9669  12.092  12.358   7.871
 2591SOL    HW1 9670  12.167  12.332   7.925
 2591SOL    HW2 9671  12.017  12.353   7.931
 2592SOL     OW 9672   2.902  10.362   5.061
 2592SOL    HW1 9673   2.812  10.395   5.052
 2592SOL    HW2 9674   2.955  10.421   5.007
 2593SOL     OW 9675   5.399   3.850   1.038
 2593SOL    HW1 9676   5.315   3.885   1.010
 2593SOL    HW2 9677   5.412   3.772   0.984
 2594SOL     OW 9678   1.838  14.490  13.014
 2594SOL    HW1 9679   1.928  14.465  13.031
 2594SOL    HW2 9680   1.798  14.410  12.979
 2595SOL     OW 9681   7.392   6.724   7.519
 2595SOL    HW1 9682   7.323   6.658   7.530
 2595SOL    HW2 9683   7.357   6.785   7.455
 2596SOL     OW 9684   7.556   1.251   0.547
 2596SOL    HW1 9685   7.502   1.177   0.577
 2596SOL    HW2 9686   7.589   1.291   0.628
 2597SOL     OW 9687   9.721   8.255   5.119
 2597SOL    HW1 9688   9.673   8.233   5.199
 2597SOL    HW2 9689   9.673   8.329   5.082
 2598SOL     OW 9690   4.867   1.495   6.641
 2598SOL    HW1 9691   4.922   1.445   6.581
 2598SOL    HW2 9692   4.783   1.448   6.642
 2599SOL     OW 9693   4.785  12.715  12.848
 2599SOL    HW1 9694   4.780  12.810  12.852
 2599SOL    HW2 9695   4.876  12.697  12.823
 2600SOL     OW 9696  14.649  11.787   0.415
 2600SOL    HW1 9697  14.675  11.856   0.477
 2600SOL    HW2 9698  14.615  11.717   0.470
 2601SOL     OW 9699  14.727   7.074   1.964
 2601SOL    HW1 9700  14.708   7.019   2.040
 2601SOL    HW2 9701  14.644   7.119   1.945
 2602SOL     OW 9702   7.086   7.400   3.286
 2602SOL    HW1 9703   7.169   7.358   3.262
 2602SOL    HW2 9704   7.043   7.417   3.202
 2603SOL     OW 9705  13.427   9.886   1.603
 2603SOL    HW1 9706  13.453   9.936   1.680
 2603SOL    HW2 9707  13.494   9.905   1.537
 2604SOL     OW 9708  11.230   0.306   9.747
 2604SOL    HW1 9709  11.244   0.331   9.839
 2604SOL    HW2 9710  11.139   0.329   9.730
 2605SOL     OW 9711   1.353  10.861   8.993
 2605SOL    HW1 9712   1.404  10.852   8.913
 2605SOL    HW2 9713   1.340  10.771   9.024
 2606SOL     OW 9714   1.662   9.318  10.261
 2606SOL    HW1 9715   1.755   9.333  10.273
 2606SOL    HW2 9716   1.630   9.398  10.219
 2607SOL     OW 9717   8.034  11.547   2.267
 2607SOL    HW1 9718   7.944  11.563   2.239
 2607SOL    HW2 9719   8.073  11.634   2.274
 2608SOL     OW 9720  14.576  11.202   3.499
 2608SOL    HW1 9721  14.620  11.230   3.419
 2608SOL    HW2 9722  14.608  11.262   3.566
 2609SOL     OW 9723  11.626   4.780   6.396
 2609SOL    HW1 9724  11.532   4.798   6.392
 2609SOL    HW2 9725  11.632   4.695   6.439
 2610SOL     OW 9726   7.779   7.716   3.973
 2610SOL    HW1 9727   7.840   7.716   3.900
 2610SOL    HW2 9728   7.831   7.690   4.048
 2611SOL     OW 9729  12.923   1.158   7.355
 2611SOL    HW1 9730  12.887   1.070   7.343
 2611SOL    HW2 9731  12.976   1.173   7.277
 2612SOL     OW 9732   7.553  11.360   0.888
 2612SOL    HW1 9733   7.605  11.433   0.920
 2612SOL    HW2 9734   7.476  11.400   0.848
 2613SOL     OW 9735   7.627   6.728   2.977
 2613SOL    HW1 9736   7.613   6.792   2.907
 2613SOL    HW2 9737   7.717   6.698   2.964
 2614SOL     OW 9738   1.072   2.015   5.750
 2614SOL    HW1 9739   1.094   2.004   5.843
 2614SOL    HW2 9740   1.074   2.109   5.736
 2615SOL     OW 9741  13.020   5.033   2.462
 2615SOL    HW1 9742  13.005   4.938   2.469
 2615SOL    HW2 9743  13.113   5.044   2.481
 2616SOL     OW 9744  14.289  14.599   4.259
 2616SOL    HW1 9745  14.326  14.546   4.188
 2616SOL    HW2 9746  14.274  14.685   4.219
 2617SOL     OW 9747  12.626  10.081   5.153
 2617SOL    HW1 9748  12.675  10.154   5.191
 2617SOL    HW2 9749  12.537  10.115   5.143
 2618SOL     OW 9750   9.907   3.373   8.166
 2618SOL    HW1 9751   9.860   3.354   8.085
 2618SOL    HW2 9752   9.854   3.334   8.235
 2619SOL     OW 9753  10.003   3.859   1.428
 2619SOL    HW1 9754   9.974   3.912   1.354
 2619SOL    HW2 9755   9.925   3.810   1.454
 2620SOL     OW 9756   5.603  14.691   8.418
 2620SOL    HW1 9757   5.670  14.753   8.391
 2620SOL    HW2 9758   5.646  14.605   8.416
 2621SOL     OW 9759   2.225   4.059   3.618
 2621SOL    HW1 9760   2.153   4.007   3.654
 2621SOL    HW2 9761   2.207   4.063   3.524
 2622SOL     OW 9762  13.706   3.102   7.545
 2622SOL    HW1 9763  13.783   3.055   7.513
 2622SOL    HW2 9764  13.644   3.101   7.472
 2623SOL     OW 9765  11.270  11.030   4.903
 2623SOL    HW1 9766  11.336  10.986   4.850
 2623SOL    HW2 9767  11.205  10.961   4.922
 2624SOL     OW 9768   5.281   9.904  12.538
 2624SOL    HW1 9769   5.346   9.970  12.562
 2624SOL    HW2 9770   5.218   9.905  12.610
 2625SOL     OW 9771   8.969   4.771   8.526
 2625SOL    HW1 9772   8.938   4.744   8.613
 2625SOL    HW2 9773   8.936   4.702   8.467
 2626SOL     OW 9774   5.469   5.908  13.150
 2626SOL    HW1 9775   5.495   5.949  13.067
 2626SOL    HW2 9776   5.427   5.978  13.200
 2627SOL     OW 9777   9.026   7.040  14.677
 2627SOL    HW1 9778   9.105   6.997  14.711
 2627SOL    HW2 9779   8.968   6.967  14.653
 2628SOL     OW 9780  11.747  12.227   3.996
 2628SOL    HW1 9781  11.780  12.223   4.086
 2628SOL    HW2 9782  11.826  12.226   3.941
 2629SOL     OW 9783   3.199   0.654  14.016
 2629SOL    HW1 9784   3.231   0.564  14.021
 2629SOL    HW2 9785   3.131   0.652  13.949
 2630SOL     OW 9786   7.426   0.662  12.783
 2630SOL    HW1 9787   7.421   0.713  12.702
 2630SOL    HW2 9788   7.345   0.681  12.829
 2631SOL     OW 9789   7.486   4.016   1.966
 2631SOL    HW1 9790   7.421   4.012   2.036
 2631SOL    HW2 9791   7.552   4.077   1.999
 2632SOL     OW 9792  11.240   6.663   6.628
 2632SOL    HW1 9793  11.302   6.595   6.654
 2632SOL    HW2 9794  11.288   6.745   6.637
 2633SOL     OW 9795   5.478   7.206   3.788
 2633SOL    HW1 9796   5.530   7.257   3.727
 2633SOL    HW2 9797   5.442   7.135   3.735
 2634SOL     OW 9798   7.739  11.185   2.745
 2634SOL    HW1 9799   7.823  11.139   2.755
 2634SOL    HW2 9800   7.759  11.276   2.764
 2635SOL     OW 9801   3.327  13.595   3.693
 2635SOL    HW1 9802   3.282  13.614   3.775
 2635SOL    HW2 9803   3.385  13.670   3.679
 2636SOL     OW 9804   6.334  13.295   3.683
 2636SOL    HW1 9805   6.429  13.292   3.697
 2636SOL    HW2 9806   6.319  13.377   3.636
 2637SOL     OW 9807   3.252   1.101   3.593
 2637SOL    HW1 9808   3.300   1.173   3.551
 2637SOL    HW2 9809   3.270   1.026   3.537
 2638SOL     OW 9810   0.047  13.401  14.730
 2638SOL    HW1 9811   0.036  13.365  14.818
 2638SOL    HW2 9812   0.140  13.424  14.725
 2639SOL     OW 9813   4.332   4.659   0.628
 2639SOL    HW1 9814   4.383   4.727   0.585
 2639SOL    HW2 9815   4.298   4.605   0.557
 2640SOL     OW 9816  10.081  14.683   8.348
 2640SOL    HW1 9817   9.998  14.651   8.382
 2640SOL    HW2 9818  10.081  14.777   8.368
 2641SOL     OW 9819   2.065   8.746  10.892
 2641SOL    HW1 9820   1.980   8.747  10.848
 2641SOL    HW2 9821   2.063   8.823  10.949
 2642SOL     OW 9822  12.511   6.558   7.011
 2642SOL    HW1 9823  12.435   6.616   7.015
 2642SOL    HW2 9824  12.475   6.472   6.989
 2643SOL     OW 9825   4.112  13.046   8.943
 2643SOL    HW1 9826   4.171  13.022   9.014
 2643SOL    HW2 9827   4.118  13.141   8.937
 2644SOL     OW 9828  12.554  10.698   2.276
 2644SOL    HW1 9829  12.460  10.690   2.258
 2644SOL    HW2 9830  12.592  10.726   2.192
 2645SOL     OW 9831   7.585   0.000   1.330
 2645SOL    HW1 9832   7.549   0.074   1.379
 2645SOL    HW2 9833   7.636   0.041   1.260
 2646SOL     OW 9834   7.225  14.774   2.930
 2646SOL    HW1 9835   7.256  14.686   2.909
 2646SOL    HW2 9836   7.263  14.792   3.017
 2647SOL     OW 9837   5.754   6.991   6.771
 2647SOL    HW1 9838   5.761   6.971   6.677
 2647SOL    HW2 9839   5.660   6.991   6.788
 2648SOL     OW 9840   3.370   7.952  13.124
 2648SOL    HW1 9841   3.403   7.986  13.041
 2648SOL    HW2 9842   3.282   7.989  13.131
 2649SOL     OW 9843   6.323   9.553   8.768
 2649SOL    HW1 9844   6.396   9.611   8.746
 2649SOL    HW2 9845   6.333   9.535   8.861
 2650SOL     OW 9846   4.555   9.486   5.949
 2650SOL    HW1 9847   4.627   9.529   5.995
 2650SOL    HW2 9848   4.568   9.510   5.857
 2651SOL     OW 9849   3.545  13.752   3.982
 2651SOL    HW1 9850   3.594  13.749   3.900
 2651SOL    HW2 9851   3.594  13.813   4.036
 2652SOL     OW 9852   0.165  10.600   7.926
 2652SOL    HW1 9853   0.181  10.571   8.015
 2652SOL    HW2 9854   0.182  10.523   7.872
 2653SOL     OW 9855  11.331   9.392   5.393
 2653SOL    HW1 9856  11.323   9.474   5.442
 2653SOL    HW2 9857  11.313   9.416   5.302
 2654SOL     OW 9858   7.842   1.187   1.587
 2654SOL    HW1 9859   7.787   1.125   1.635
 2654SOL    HW2 9860   7.804   1.273   1.608
 2655SOL     OW 9861   6.775   1.036  14.853
 2655SOL    HW1 9862   6.693   1.012  14.809
 2655SOL    HW2 9863   6.747   1.076   0.064
 2656SOL     OW 9864   1.316   3.843   5.356
 2656SOL    HW1 9865   1.228   3.879   5.368
 2656SOL    HW2 9866   1.371   3.891   5.418
 2657SOL     OW 9867   3.951   2.546   3.412
 2657SOL    HW1 9868   3.895   2.469   3.412
 2657SOL    HW2 9869   4.039   2.512   3.393
 2658SOL     OW 9870   3.162   1.860   5.469
 2658SOL    HW1 9871   3.185   1.948   5.439
 2658SOL    HW2 9872   3.221   1.802   5.422
 2659SOL     OW 9873  10.299  12.449   0.362
 2659SOL    HW1 9874  10.350  12.442   0.281
 2659SOL    HW2 9875  10.353  12.504   0.420
 2660SOL     OW 9876   9.960  14.645   9.930
 2660SOL    HW1 9877   9.918  14.559   9.939
 2660SOL    HW2 9878   9.893  14.708   9.955
 2661SOL     OW 9879   7.883   0.930   5.590
 2661SOL    HW1 9880   7.952   0.873   5.625
 2661SOL    HW2 9881   7.893   1.012   5.638
 2662SOL     OW 9882   7.855   4.141   3.089
 2662SOL    HW1 9883   7.914   4.128   3.015
 2662SOL    HW2 9884   7.863   4.060   3.140
 2663SOL     OW 9885   8.053   1.804   3.732
 2663SOL    HW1 9886   8.053   1.781   3.825
 2663SOL    HW2 9887   8.008   1.731   3.689
 2664SOL     OW 9888   6.168  12.208  13.728
 2664SOL    HW1 9889   6.194  12.249  13.646
 2664SOL    HW2 9890   6.186  12.114  13.715
 2665SOL     OW 9891  13.506   1.508  12.504
 2665SOL    HW1 9892  13.554   1.572  12.556
 2665SOL    HW2 9893  13.557   1.427  12.511
 2666SOL     OW 9894  14.780   0.279   8.263
 2666SOL    HW1 9895  14.865   0.237   8.253
 2666SOL    HW2 9896  14.765   0.280   8.358
 2667SOL     OW 9897   2.420   1.935   9.983
 2667SOL    HW1 9898   2.459   2.021   9.998
 2667SOL    HW2 9899   2.398   1.903  10.071
 2668SOL     OW 9900   5.594   4.063   9.574
 2668SOL    HW1 9901   5.516   4.010   9.589
 2668SOL    HW2 9902   5.644   4.015   9.508
 2669SOL     OW 9903  12.284  12.126   8.306
 2669SOL    HW1 9904  12.328  12.085   8.380
 2669SOL    HW2 9905  12.317  12.216   8.306
 2670SOL     OW 9906   2.480  11.179   5.023
 2670SOL    HW1 9907   2.571  11.152   5.013
 2670SOL    HW2 9908   2.432  11.096   5.032
 2671SOL     OW 9909   1.692   9.125  10.039
 2671SOL    HW1 9910   1.652   9.166  10.115
 2671SOL    HW2 9911   1.645   9.161   9.964
 2672SOL     OW 9912   5.499   7.632   1.241
 2672SOL    HW1 9913   5.549   7.654   1.320
 2672SOL    HW2 9914   5.467   7.716   1.209
 2673SOL     OW 9915  14.785  14.024   3.782
 2673SOL    HW1 9916  14.708  14.065   3.743
 2673SOL    HW2 9917  14.752  13.949   3.830
 2674SOL     OW 9918   1.163  13.088   2.108
 2674SOL    HW1 9919   1.109  13.088   2.029
 2674SOL    HW2 9920   1.195  12.998   2.114
 2675SOL     OW 9921  11.509   1.435   3.893
 2675SOL    HW1 9922  11.588   1.383   3.877
 2675SOL    HW2 9923  11.445   1.402   3.830
 2676SOL     OW 9924   9.928  11.967   5.799
 2676SOL    HW1 9925   9.850  11.918   5.772
 2676SOL    HW2 9926   9.899  12.059   5.802
 2677SOL     OW 9927  14.463   2.851   3.392
 2677SOL    HW1 9928  14.465   2.842   3.487
 2677SOL    HW2 9929  14.508   2.934   3.375
 2678SOL     OW 9930   7.728   8.894   5.303
 2678SOL    HW1 9931   7.706   8.960   5.237
 2678SOL    HW2 9932   7.666   8.823   5.289
 2679SOL     OW 9933  10.563  13.444  13.655
 2679SOL    HW1 9934  10.645  13.477  13.692
 2679SOL    HW2 9935  10.507  13.522  13.648
 2680SOL     OW 9936  11.325   6.983   7.664
 2680SOL    HW1 9937  11.333   7.076   7.639
 2680SOL    HW2 9938  11.247   6.953   7.617
 2681SOL     OW 9939  11.398   5.470   3.308
 2681SOL    HW1 9940  11.413   5.414   3.232
 2681SOL    HW2 9941  11.482   5.469   3.355
 2682SOL     OW 9942   4.870   6.411   8.581
 2682SOL    HW1 9943   4.959   6.440   8.596
 2682SOL    HW2 9944   4.828   6.484   8.536
 2683SOL     OW 9945  14.830   5.135   1.144
 2683SOL    HW1 9946  14.820   5.040   1.149
 2683SOL    HW2 9947   0.051   5.149   1.122
 2684SOL     OW 9948  11.146  10.069   3.711
 2684SOL    HW1 9949  11.064  10.046   3.756
 2684SOL    HW2 9950  11.214  10.055   3.777
 2685SOL     OW 9951   3.032   3.709  11.930
 2685SOL    HW1 9952   3.078   3.786  11.896
 2685SOL    HW2 9953   3.003   3.735  12.017
 2686SOL     OW 9954   7.413   6.607   8.368
 2686SOL    HW1 9955   7.359   6.552   8.312
 2686SOL    HW2 9956   7.394   6.696   8.339
 2687SOL     OW 9957   5.699   8.995  13.669
 2687SOL    HW1 9958   5.697   8.967  13.760
 2687SOL    HW2 9959   5.624   9.054  13.660
 2688SOL     OW 9960   7.555   5.441   0.151
 2688SOL    HW1 9961   7.622   5.380   0.119
 2688SOL    HW2 9962   7.557   5.514   0.089
 2689SOL     OW 9963  11.623   9.246  10.391
 2689SOL    HW1 9964  11.568   9.322  10.370
 2689SOL    HW2 9965  11.691   9.245  10.323
 2690SOL     OW 9966  11.106  12.206   0.912
 2690SOL    HW1 9967  11.052  12.127   0.911
 2690SOL    HW2 9968  11.196  12.173   0.904
 2691SOL     OW 9969   8.717   1.270   8.505
 2691SOL    HW1 9970   8.668   1.339   8.460
 2691SOL    HW2 9971   8.801   1.267   8.459
 2692SOL     OW 9972   3.099  12.095  12.844
 2692SOL    HW1 9973   3.136  12.015  12.882
 2692SOL    HW2 9974   3.097  12.077  12.749
 2693SOL     OW 9975   4.806   9.885   4.676
 2693SOL    HW1 9976   4.792   9.800   4.716
 2693SOL    HW2 9977   4.745   9.888   4.603
 2694SOL     OW 9978   7.270   1.391   0.176
 2694SOL    HW1 9979   7.216   1.465   0.203
 2694SOL    HW2 9980   7.349   1.430   0.139
 2695SOL     OW 9981   4.524   1.648  14.665
 2695SOL    HW1 9982   4.491   1.648  14.576
 2695SOL    HW2 9983   4.448   1.625  14.719
 2696SOL     OW 9984   0.164   4.678   0.858
 2696SOL    HW1 9985   0.110   4.628   0.798
 2696SOL    HW2 9986   0.197   4.751   0.806
 2697SOL     OW 9987   7.074  10.326   0.453
 2697SOL    HW1 9988   7.017  10.358   0.524
 2697SOL    HW2 9989   7.134  10.399   0.436
 2698SOL     OW 9990   6.363  11.565   0.738
 2698SOL    HW1 9991   6.362  11.654   0.704
 2698SOL    HW2 9992   6.446  11.529   0.708
 2699SOL     OW 9993   3.303  11.710  13.405
 2699SOL    HW1 9994   3.386  11.665  13.420
 2699SOL    HW2 9995   3.273  11.678  13.320
 2700SOL     OW 9996   0.226   6.434   0.563
 2700SOL    HW1 9997   0.308   6.455   0.518
 2700SOL    HW2 9998   0.161   6.427   0.493
 2701SOL     OW 9999   4.299  13.448   3.831
 2701SOL    HW110000   4.250  13.421   3.909
 2701SOL    HW210001   4.389  13.455   3.861
 2702SOL     OW10002   1.747   0.826   6.643
 2702SOL    HW110003   1.755   0.913   6.604
 2702SOL    HW210004   1.720   0.843   6.733
 2703SOL     OW10005   2.254   4.439   6.112
 2703SOL    HW110006   2.171   4.485   6.097
 2703SOL    HW210007   2.230   4.362   6.164
 2704SOL     OW10008   7.207   6.918   9.951
 2704SOL    HW110009   7.166   6.847   9.902
 2704SOL    HW210010   7.234   6.981   9.884
 2705SOL     OW10011   0.751   0.063   3.481
 2705SOL    HW110012   0.787   0.043   3.567
 2705SOL    HW210013   0.748  14.851   3.435
 2706SOL     OW10014   2.440   5.393   7.137
 2706SOL    HW110015   2.515   5.405   7.080
 2706SOL    HW210016   2.401   5.481   7.143
 2707SOL     OW10017  13.146  14.176   1.680
 2707SOL    HW110018  13.067  14.205   1.633
 2707SOL    HW210019  13.117  14.101   1.731
 2708SOL     OW10020   8.513   4.823   0.841
 2708SOL    HW110021   8.608   4.817   0.836
 2708SOL    HW210022   8.495   4.857   0.929
 2709SOL     OW10023  12.461  10.527  12.009
 2709SOL    HW110024  12.471  10.474  11.930
 2709SOL    HW210025  12.434  10.613  11.977
 2710SOL     OW10026   3.596   6.170  13.071
 2710SOL    HW110027   3.682   6.139  13.045
 2710SOL    HW210028   3.538   6.095  13.056
 2711SOL     OW10029   6.955   1.799   1.750
 2711SOL    HW110030   7.039   1.844   1.743
 2711SOL    HW210031   6.963   1.746   1.829
 2712SOL     OW10032   8.805  11.283   5.144
 2712SOL    HW110033   8.884  11.327   5.111
 2712SOL    HW210034   8.823  11.190   5.129
 2713SOL     OW10035   2.544   2.137  11.067
 2713SOL    HW110036   2.580   2.050  11.087
 2713SOL    HW210037   2.450   2.129  11.084
 2714SOL     OW10038   6.589   5.840   0.490
 2714SOL    HW110039   6.616   5.899   0.419
 2714SOL    HW210040   6.512   5.882   0.528
 2715SOL     OW10041  14.789  13.639   8.585
 2715SOL    HW110042  14.822  13.718   8.627
 2715SOL    HW210043  14.826  13.642   8.497
 2716SOL     OW10044   2.350   3.927   1.643
 2716SOL    HW110045   2.417   3.859   1.649
 2716SOL    HW210046   2.271   3.887   1.679
 2717SOL     OW10047  10.460   0.664   4.300
 2717SOL    HW110048  10.427   0.575   4.292
 2717SOL    HW210049  10.413   0.713   4.232
 2718SOL     OW10050   2.170  13.840  11.099
 2718SOL    HW110051   2.257  13.801  11.103
 2718SOL    HW210052   2.186  13.931  11.073
 2719SOL     OW10053   2.511  13.450   7.517
 2719SOL    HW110054   2.590  13.411   7.481
 2719SOL    HW210055   2.444  13.435   7.451
 2720SOL     OW10056   6.835  13.985  10.062
 2720SOL    HW110057   6.789  13.929  10.000
 2720SOL    HW210058   6.826  13.940  10.146
 2721SOL     OW10059   8.087   1.785   2.510
 2721SOL    HW110060   8.183   1.788   2.518
 2721SOL    HW210061   8.065   1.694   2.530
 2722SOL     OW10062  10.996   5.357   7.506
 2722SOL    HW110063  10.981   5.422   7.575
 2722SOL    HW210064  10.952   5.278   7.537
 2723SOL     OW10065   7.715  12.330  13.321
 2723SOL    HW110066   7.631  12.329  13.275
 2723SOL    HW210067   7.763  12.256  13.283
 2724SOL     OW10068  13.029   4.142   5.720
 2724SOL    HW110069  13.040   4.159   5.814
 2724SOL    HW210070  13.106   4.090   5.696
 2725SOL     OW10071   7.662   1.104  10.268
 2725SOL    HW110072   7.647   1.195  10.295
 2725SOL    HW210073   7.743   1.079  10.314
 2726SOL     OW10074   1.352   2.327   3.327
 2726SOL    HW110075   1.282   2.282   3.281
 2726SOL    HW210076   1.380   2.266   3.395
 2727SOL     OW10077  13.196   6.551  12.523
 2727SOL    HW110078  13.110   6.559  12.480
 2727SOL    HW210079  13.175   6.535  12.615
 2728SOL     OW10080  14.335   0.962   6.136
 2728SOL    HW110081  14.262   1.022   6.121
 2728SOL    HW210082  14.366   0.940   6.048
 2729SOL     OW10083   6.223  13.979  14.384
 2729SOL    HW110084   6.191  13.981  14.474
 2729SOL    HW210085   6.171  13.911  14.341
 2730SOL     OW10086  10.232  13.911   5.259
 2730SOL    HW110087  10.276  13.993   5.236
 2730SOL    HW210088  10.271  13.885   5.342
 2731SOL     OW10089   3.004   1.146   7.021
 2731SOL    HW110090   3.093   1.163   6.988
 2731SOL    HW210091   3.013   1.148   7.116
 2732SOL     OW10092   6.311  14.047   4.996
 2732SOL    HW110093   6.271  14.130   4.969
 2732SOL    HW210094   6.404  14.057   4.975
 2733SOL     OW10095   6.869  12.575  14.025
 2733SOL    HW110096   6.810  12.598  14.097
 2733SOL    HW210097   6.948  12.628  14.040
 2734SOL     OW10098  12.332   8.533  11.807
 2734SOL    HW110099  12.397   8.558  11.742
 2734SOL    HW210100  12.256   8.589  11.788
 2735SOL     OW10101   3.867  10.752   1.103
 2735SOL    HW110102   3.814  10.675   1.122
 2735SOL    HW210103   3.815  10.826   1.135
 2736SOL     OW10104  13.858   5.018   3.886
 2736SOL    HW110105  13.789   5.048   3.826
 2736SOL    HW210106  13.812   4.966   3.952
 2737SOL     OW10107   0.427   6.883   5.189
 2737SOL    HW110108   0.361   6.814   5.187
 2737SOL    HW210109   0.504   6.845   5.147
 2738SOL     OW10110   0.544  12.786   0.716
 2738SOL    HW110111   0.540  12.863   0.772
 2738SOL    HW210112   0.635  12.757   0.721
 2739SOL     OW10113   0.723   2.485  14.463
 2739SOL    HW110114   0.694   2.403  14.423
 2739SOL    HW210115   0.665   2.497  14.538
 2740SOL     OW10116  14.389  12.079   6.755
 2740SOL    HW110117  14.338  12.027   6.693
 2740SOL    HW210118  14.369  12.169   6.733
 2741SOL     OW10119  14.135   3.744   5.959
 2741SOL    HW110120  14.040   3.751   5.954
 2741SOL    HW210121  14.152   3.710   6.047
 2742SOL     OW10122   8.811   9.225   9.224
 2742SOL    HW110123   8.797   9.213   9.130
 2742SOL    HW210124   8.760   9.303   9.246
 2743SOL     OW10125   9.254  13.341   4.730
 2743SOL    HW110126   9.199  13.280   4.682
 2743SOL    HW210127   9.317  13.286   4.777
 2744SOL     OW10128  12.437   8.522   6.748
 2744SOL    HW110129  12.503   8.458   6.773
 2744SOL    HW210130  12.446   8.593   6.811
 2745SOL     OW10131   5.292   3.204   8.612
 2745SOL    HW110132   5.219   3.177   8.668
 2745SOL    HW210133   5.280   3.299   8.602
 2746SOL     OW10134  12.399   2.168   0.744
 2746SOL    HW110135  12.458   2.119   0.800
 2746SOL    HW210136  12.443   2.168   0.658
 2747SOL     OW10137   7.286   5.151  12.745
 2747SOL    HW110138   7.201   5.144  12.701
 2747SOL    HW210139   7.265   5.157  12.838
 2748SOL     OW10140   7.078   2.088   4.030
 2748SOL    HW110141   7.085   2.114   4.122
 2748SOL    HW210142   7.163   2.113   3.992
 2749SOL     OW10143   1.086   5.466   5.545
 2749SOL    HW110144   1.144   5.494   5.616
 2749SOL    HW210145   1.034   5.544   5.525
 2750SOL     OW10146   2.324   2.486   8.046
 2750SOL    HW110147   2.390   2.555   8.055
 2750SOL    HW210148   2.354   2.435   7.971
 2751SOL     OW10149   7.226   3.113  11.002
 2751SOL    HW110150   7.139   3.088  11.035
 2751SOL    HW210151   7.270   3.151  11.078
 2752SOL     OW10152   0.228   2.093  11.471
 2752SOL    HW110153   0.274   2.133  11.545
 2752SOL    HW210154   0.146   2.142  11.464
 2753SOL     OW10155  13.995   7.565   7.534
 2753SOL    HW110156  13.968   7.483   7.492
 2753SOL    HW210157  14.089   7.569   7.519
 2754SOL     OW10158   8.228   3.326   8.639
 2754SOL    HW110159   8.160   3.283   8.586
 2754SOL    HW210160   8.252   3.260   8.705
 2755SOL     OW10161   5.449   6.863   8.410
 2755SOL    HW110162   5.408   6.906   8.335
 2755SOL    HW210163   5.387   6.795   8.435
 2756SOL     OW10164   8.000   2.245   8.132
 2756SOL    HW110165   8.010   2.150   8.140
 2756SOL    HW210166   7.991   2.260   8.038
 2757SOL     OW10167  12.688  10.325  11.147
 2757SOL    HW110168  12.671  10.334  11.241
 2757SOL    HW210169  12.634  10.252  11.119
 2758SOL     OW10170  12.644   6.120   6.944
 2758SOL    HW110171  12.618   6.061   6.873
 2758SOL    HW210172  12.607   6.081   7.023
 2759SOL     OW10173   7.521  12.171  10.577
 2759SOL    HW110174   7.469  12.128  10.509
 2759SOL    HW210175   7.596  12.208  10.531
 2760SOL     OW10176  11.257   0.079  12.616
 2760SOL    HW110177  11.174   0.039  12.641
 2760SOL    HW210178  11.239   0.173  12.612
 2761SOL     OW10179   2.387   3.407   0.421
 2761SOL    HW110180   2.295   3.417   0.446
 2761SOL    HW210181   2.435   3.432   0.500
 2762SOL     OW10182   0.567   5.094  13.755
 2762SOL    HW110183   0.518   5.019  13.788
 2762SOL    HW210184   0.656   5.062  13.744
 2763SOL     OW10185   1.992   9.161  14.143
 2763SOL    HW110186   1.939   9.156  14.222
 2763SOL    HW210187   2.083   9.160  14.175
 2764SOL     OW10188  13.552  10.826  14.837
 2764SOL    HW110189  13.485  10.840  14.770
 2764SOL    HW210190  13.539  10.736  14.866
 2765SOL     OW10191   2.718  13.813  11.496
 2765SOL    HW110192   2.746  13.816  11.404
 2765SOL    HW210193   2.775  13.877  11.540
 2766SOL     OW10194   2.648  10.981   3.384
 2766SOL    HW110195   2.589  11.034   3.332
 2766SOL    HW210196   2.735  11.015   3.365
 2767SOL     OW10197  10.274   7.394  14.146
 2767SOL    HW110198  10.284   7.454  14.220
 2767SOL    HW210199  10.211   7.437  14.089
 2768SOL     OW10200   4.899   7.080   0.124
 2768SOL    HW110201   4.889   7.116   0.036
 2768SOL    HW210202   4.824   7.114   0.173
 2769SOL     OW10203   3.921  10.070  11.020
 2769SOL    HW110204   3.944  10.124  10.944
 2769SOL    HW210205   4.006  10.040  11.054
 2770SOL     OW10206  10.568   7.345   2.052
 2770SOL    HW110207  10.649   7.295   2.040
 2770SOL    HW210208  10.507   7.307   1.989
 2771SOL     OW10209  13.271  13.603   6.062
 2771SOL    HW110210  13.186  13.648   6.061
 2771SOL    HW210211  13.320  13.644   5.990
 2772SOL     OW10212   7.914   6.687   6.829
 2772SOL    HW110213   7.822   6.708   6.815
 2772SOL    HW210214   7.920   6.593   6.810
 2773SOL     OW10215   0.955   3.554   2.948
 2773SOL    HW110216   0.867   3.582   2.974
 2773SOL    HW210217   0.940   3.481   2.888
 2774SOL     OW10218  14.220  12.373   9.911
 2774SOL    HW110219  14.298  12.338   9.869
 2774SOL    HW210220  14.175  12.296   9.947
 2775SOL     OW10221   5.180  10.116   3.299
 2775SOL    HW110222   5.158  10.080   3.213
 2775SOL    HW210223   5.273  10.137   3.294
 2776SOL     OW10224  10.770   9.924  13.183
 2776SOL    HW110225  10.798   9.877  13.261
 2776SOL    HW210226  10.692   9.878  13.154
 2777SOL     OW10227   5.881   8.361   2.361
 2777SOL    HW110228   5.844   8.307   2.431
 2777SOL    HW210229   5.962   8.396   2.399
 2778SOL     OW10230  10.642  10.093   7.971
 2778SOL    HW110231  10.682  10.149   8.038
 2778SOL    HW210232  10.567  10.052   8.016
 2779SOL     OW10233   5.876   9.284   1.028
 2779SOL    HW110234   5.926   9.358   1.063
 2779SOL    HW210235   5.785   9.306   1.045
 2780SOL     OW10236   9.720   7.846  12.809
 2780SOL    HW110237   9.802   7.895  12.818
 2780SOL    HW210238   9.741   7.778  12.745
 2781SOL     OW10239   2.514   0.220   5.018
 2781SOL    HW110240   2.431   0.179   4.996
 2781SOL    HW210241   2.531   0.195   5.108
 2782SOL     OW10242   1.920  13.944   5.061
 2782SOL    HW110243   1.988  13.907   5.005
 2782SOL    HW210244   1.968  13.982   5.135
 2783SOL     OW10245   5.766  12.284  10.678
 2783SOL    HW110246   5.804  12.369  10.698
 2783SOL    HW210247   5.826  12.221  10.718
 2784SOL     OW10248   0.922   7.120   2.390
 2784SOL    HW110249   0.853   7.067   2.352
 2784SOL    HW210250   0.976   7.057   2.438
 2785SOL     OW10251   1.473   7.964  10.362
 2785SOL    HW110252   1.407   7.902  10.331
 2785SOL    HW210253   1.468   8.037  10.300
 2786SOL     OW10254   0.692   8.950   2.959
 2786SOL    HW110255   0.633   8.881   2.989
 2786SOL    HW210256   0.775   8.931   3.003
 2787SOL     OW10257   5.487  10.066  10.344
 2787SOL    HW110258   5.433  10.029  10.414
 2787SOL    HW210259   5.508   9.991  10.288
 2788SOL     OW10260   5.929   4.862   7.283
 2788SOL    HW110261   5.916   4.927   7.352
 2788SOL    HW210262   5.874   4.788   7.309
 2789SOL     OW10263   5.952  12.957   3.954
 2789SOL    HW110264   5.985  12.984   3.869
 2789SOL    HW210265   5.874  12.905   3.935
 2790SOL     OW10266   3.687   0.758  11.981
 2790SOL    HW110267   3.752   0.784  11.916
 2790SOL    HW210268   3.735   0.757  12.064
 2791SOL     OW10269   5.133   4.109   5.310
 2791SOL    HW110270   5.075   4.168   5.358
 2791SOL    HW210271   5.206   4.165   5.282
 2792SOL     OW10272   8.319   5.534   2.856
 2792SOL    HW110273   8.390   5.507   2.915
 2792SOL    HW210274   8.323   5.471   2.784
 2793SOL     OW10275  12.554   8.161   9.734
 2793SOL    HW110276  12.601   8.184   9.814
 2793SOL    HW210277  12.462   8.174   9.756
 2794SOL     OW10278   7.474   4.560   7.465
 2794SOL    HW110279   7.440   4.539   7.552
 2794SOL    HW210280   7.554   4.509   7.457
 2795SOL     OW10281   1.242  13.299   9.358
 2795SOL    HW110282   1.217  13.309   9.266
 2795SOL    HW210283   1.196  13.220   9.386
 2796SOL     OW10284  12.237  13.932  12.737
 2796SOL    HW110285  12.244  13.847  12.781
 2796SOL    HW210286  12.260  13.996  12.805
 2797SOL     OW10287   4.793   8.424   8.996
 2797SOL    HW110288   4.850   8.394   9.067
 2797SOL    HW210289   4.732   8.484   9.039
 2798SOL     OW10290   6.067   5.851   3.684
 2798SOL    HW110291   6.121   5.863   3.763
 2798SOL    HW210292   6.102   5.772   3.643
 2799SOL     OW10293   7.101  13.653  13.572
 2799SOL    HW110294   7.056  13.731  13.539
 2799SOL    HW210295   7.031  13.589  13.584
 2800SOL     OW10296   6.571   4.822   3.388
 2800SOL    HW110297   6.618   4.756   3.439
 2800SOL    HW210298   6.630   4.842   3.315
 2801SOL     OW10299   5.247  11.832  11.038
 2801SOL    HW110300   5.239  11.927  11.045
 2801SOL    HW210301   5.159  11.802  11.015
 2802SOL     OW10302   9.823  13.147   2.224
 2802SOL    HW110303   9.819  13.090   2.147
 2802SOL    HW210304   9.879  13.219   2.197
 2803SOL     OW10305  13.623   4.679  12.532
 2803SOL    HW110306  13.699   4.736  12.541
 2803SOL    HW210307  13.585   4.703  12.447
 2804SOL     OW10308   6.665   0.060   8.094
 2804SOL    HW110309   6.601   0.013   8.041
 2804SOL    HW210310   6.615   0.096   8.167
 2805SOL     OW10311   3.093  13.426   4.400
 2805SOL    HW110312   3.185  13.452   4.391
 2805SOL    HW210313   3.072  13.385   4.316
 2806SOL     OW10314   5.625   4.517   8.785
 2806SOL    HW110315   5.600   4.515   8.693
 2806SOL    HW210316   5.560   4.462   8.829
 2807SOL     OW10317   4.136   4.852   9.807
 2807SOL    HW110318   4.175   4.786   9.865
 2807SOL    HW210319   4.184   4.843   9.725
 2808SOL     OW10320  12.535   3.520   5.660
 2808SOL    HW110321  12.507   3.473   5.581
 2808SOL    HW210322  12.509   3.611   5.643
 2809SOL     OW10323   9.059  11.389  14.347
 2809SOL    HW110324   8.996  11.366  14.279
 2809SOL    HW210325   9.079  11.481  14.331
 2810SOL     OW10326   6.723   4.061   8.795
 2810SOL    HW110327   6.683   4.001   8.731
 2810SOL    HW210328   6.651   4.117   8.824
 2811SOL     OW10329   1.800   1.364  12.825
 2811SOL    HW110330   1.708   1.341  12.833
 2811SOL    HW210331   1.841   1.328  12.903
 2812SOL     OW10332   0.307  14.841  12.126
 2812SOL    HW110333   0.274  14.760  12.163
 2812SOL    HW210334   0.351  14.814  12.045
 2813SOL     OW10335   8.154  13.951  14.605
 2813SOL    HW110336   8.103  14.008  14.547
 2813SOL    HW210337   8.093  13.882  14.630
 2814SOL     OW10338  12.554   3.606  13.595
 2814SOL    HW110339  12.467   3.584  13.630
 2814SOL    HW210340  12.610   3.534  13.623
 2815SOL     OW10341   0.050   8.118   1.592
 2815SOL    HW110342   0.132   8.099   1.546
 2815SOL    HW210343   0.014   8.032   1.614
 2816SOL     OW10344   6.485   0.391  10.513
 2816SOL    HW110345   6.524   0.462  10.563
 2816SOL    HW210346   6.555   0.362  10.454
 2817SOL     OW10347   7.035  12.200   4.679
 2817SOL    HW110348   7.071  12.141   4.746
 2817SOL    HW210349   6.967  12.249   4.724
 2818SOL     OW10350  11.553   6.913   3.556
 2818SOL    HW110351  11.643   6.946   3.551
 2818SOL    HW210352  11.561   6.818   3.551
 2819SOL     OW10353   8.583   0.819   9.611
 2819SOL    HW110354   8.573   0.908   9.578
 2819SOL    HW210355   8.677   0.809   9.627
 2820SOL     OW10356   2.309   6.009   6.681
 2820SOL    HW110357   2.373   6.051   6.624
 2820SOL    HW210358   2.224   6.040   6.649
 2821SOL     OW10359  13.813  13.181   8.070
 2821SOL    HW110360  13.873  13.201   7.999
 2821SOL    HW210361  13.865  13.195   8.150
 2822SOL     OW10362   1.906   1.382   0.849
 2822SOL    HW110363   1.915   1.287   0.857
 2822SOL    HW210364   1.958   1.405   0.772
 2823SOL     OW10365   5.779   3.476   9.957
 2823SOL    HW110366   5.713   3.543   9.974
 2823SOL    HW210367   5.847   3.521   9.907
 2824SOL     OW10368   4.160   7.148   2.358
 2824SOL    HW110369   4.143   7.228   2.308
 2824SOL    HW210370   4.246   7.163   2.398
 2825SOL     OW10371   7.117   9.472  14.392
 2825SOL    HW110372   7.171   9.394  14.383
 2825SOL    HW210373   7.037   9.453  14.343
 2826SOL     OW10374   8.099   8.104   5.920
 2826SOL    HW110375   8.013   8.066   5.904
 2826SOL    HW210376   8.125   8.069   6.005
 2827SOL     OW10377   7.814   1.636  11.469
 2827SOL    HW110378   7.739   1.687  11.437
 2827SOL    HW210379   7.890   1.683  11.435
 2828SOL     OW10380   6.277   9.867   7.252
 2828SOL    HW110381   6.312   9.848   7.165
 2828SOL    HW210382   6.232   9.952   7.241
 2829SOL     OW10383   9.946   7.986   2.055
 2829SOL    HW110384   9.962   8.048   2.126
 2829SOL    HW210385   9.860   7.948   2.074
 2830SOL     OW10386   0.798   9.066   5.312
 2830SOL    HW110387   0.784   8.972   5.307
 2830SOL    HW210388   0.803   9.095   5.221
 2831SOL     OW10389   8.539   4.895   9.183
 2831SOL    HW110390   8.614   4.911   9.241
 2831SOL    HW210391   8.539   4.970   9.124
 2832SOL     OW10392   8.989   4.475   5.518
 2832SOL    HW110393   9.015   4.460   5.427
 2832SOL    HW210394   8.951   4.563   5.518
 2833SOL     OW10395   4.624   4.588   1.070
 2833SOL    HW110396   4.664   4.545   0.994
 2833SOL    HW210397   4.548   4.633   1.033
 2834SOL     OW10398   7.860   4.719   1.782
 2834SOL    HW110399   7.863   4.634   1.826
 2834SOL    HW210400   7.939   4.721   1.728
 2835SOL     OW10401   5.243   4.402   0.923
 2835SOL    HW110402   5.281   4.395   1.010
 2835SOL    HW210403   5.164   4.455   0.935
 2836SOL     OW10404   7.990   7.173   9.755
 2836SOL    HW110405   7.968   7.265   9.770
 2836SOL    HW210406   8.039   7.174   9.673
 2837SOL     OW10407  14.013   2.101  13.226
 2837SOL    HW110408  13.940   2.128  13.170
 2837SOL    HW210409  14.012   2.005  13.221
 2838SOL     OW10410   2.331  10.569   6.305
 2838SOL    HW110411   2.349  10.506   6.235
 2838SOL    HW210412   2.414  10.575   6.353
 2839SOL     OW10413  11.469  13.097   4.348
 2839SOL    HW110414  11.394  13.145   4.313
 2839SOL    HW210415  11.449  13.084   4.440
 2840SOL     OW10416   2.769   2.400   1.312
 2840SOL    HW110417   2.690   2.398   1.367
 2840SOL    HW210418   2.809   2.484   1.331
 2841SOL     OW10419  12.155   2.202   1.974
 2841SOL    HW110420  12.201   2.126   2.008
 2841SOL    HW210421  12.188   2.213   1.885
 2842SOL     OW10422  14.257   3.599  11.550
 2842SOL    HW110423  14.216   3.671  11.502
 2842SOL    HW210424  14.280   3.638  11.635
 2843SOL     OW10425   9.751   2.419   5.018
 2843SOL    HW110426   9.781   2.338   4.978
 2843SOL    HW210427   9.683   2.451   4.959
 2844SOL     OW10428   2.102  11.021   5.701
 2844SOL    HW110429   2.160  11.021   5.777
 2844SOL    HW210430   2.148  11.073   5.635
 2845SOL     OW10431   4.297   3.249  12.652
 2845SOL    HW110432   4.321   3.291  12.735
 2845SOL    HW210433   4.362   3.281  12.589
 2846SOL     OW10434   9.911  12.582  10.144
 2846SOL    HW110435   9.872  12.668  10.132
 2846SOL    HW210436   9.866  12.526  10.080
 2847SOL     OW10437  10.969   9.664   1.222
 2847SOL    HW110438  10.964   9.630   1.311
 2847SOL    HW210439  11.062   9.666   1.201
 2848SOL     OW10440   7.623   4.848   5.576
 2848SOL    HW110441   7.627   4.797   5.657
 2848SOL    HW210442   7.578   4.928   5.601
 2849SOL     OW10443  12.466   0.476   3.727
 2849SOL    HW110444  12.523   0.452   3.800
 2849SOL    HW210445  12.384   0.428   3.744
 2850SOL     OW10446   7.297   7.285   1.762
 2850SOL    HW110447   7.257   7.360   1.716
 2850SOL    HW210448   7.365   7.324   1.817
 2851SOL     OW10449  10.093  11.576   4.149
 2851SOL    HW110450  10.048  11.655   4.118
 2851SOL    HW210451  10.152  11.608   4.218
 2852SOL     OW10452  14.486   3.035   8.151
 2852SOL    HW110453  14.557   2.989   8.197
 2852SOL    HW210454  14.415   2.972   8.146
 2853SOL     OW10455  14.680  14.856   4.022
 2853SOL    HW110456  14.701  14.797   3.949
 2853SOL    HW210457  14.668   0.070   3.982
 2854SOL     OW10458  10.457  13.641  13.324
 2854SOL    HW110459  10.416  13.563  13.360
 2854SOL    HW210460  10.384  13.693  13.289
 2855SOL     OW10461   5.190   4.780   6.273
 2855SOL    HW110462   5.218   4.847   6.211
 2855SOL    HW210463   5.176   4.828   6.355
 2856SOL     OW10464   8.453   2.781   2.955
 2856SOL    HW110465   8.535   2.732   2.961
 2856SOL    HW210466   8.480   2.872   2.946
 2857SOL     OW10467   5.183   5.310  12.304
 2857SOL    HW110468   5.185   5.377  12.235
 2857SOL    HW210469   5.191   5.360  12.386
 2858SOL     OW10470   8.005   0.574   5.733
 2858SOL    HW110471   8.043   0.661   5.723
 2858SOL    HW210472   7.954   0.579   5.814
 2859SOL     OW10473   2.937   4.057   6.475
 2859SOL    HW110474   2.932   3.981   6.532
 2859SOL    HW210475   2.853   4.059   6.429
 2860SOL     OW10476   9.165   2.627  13.766
 2860SOL    HW110477   9.089   2.581  13.802
 2860SOL    HW210478   9.227   2.629  13.839
 2861SOL     OW10479  10.783   0.542  12.394
 2861SOL    HW110480  10.756   0.454  12.421
 2861SOL    HW210481  10.775   0.595  12.473
 2862SOL     OW10482   7.637  14.592   2.173
 2862SOL    HW110483   7.562  14.648   2.154
 2862SOL    HW210484   7.707  14.624   2.117
 2863SOL     OW10485   3.649   4.342   7.410
 2863SOL    HW110486   3.733   4.303   7.385
 2863SOL    HW210487   3.600   4.349   7.328
 2864SOL     OW10488  11.462  11.661   6.920
 2864SOL    HW110489  11.384  11.624   6.879
 2864SOL    HW210490  11.528  11.659   6.850
 2865SOL     OW10491   2.957   8.331   3.848
 2865SOL    HW110492   2.889   8.284   3.800
 2865SOL    HW210493   3.039   8.302   3.808
 2866SOL     OW10494  12.219   4.002  14.236
 2866SOL    HW110495  12.284   4.070  14.256
 2866SOL    HW210496  12.192   4.021  14.146
 2867SOL     OW10497  12.443   1.815   4.922
 2867SOL    HW110498  12.510   1.870   4.962
 2867SOL    HW210499  12.428   1.855   4.836
 2868SOL     OW10500  10.828  11.640  14.211
 2868SOL    HW110501  10.887  11.652  14.286
 2868SOL    HW210502  10.743  11.673  14.242
 2869SOL     OW10503  10.886   9.693   6.369
 2869SOL    HW110504  10.904   9.669   6.278
 2869SOL    HW210505  10.790   9.693   6.375
 2870SOL     OW10506   0.675   7.371   5.712
 2870SOL    HW110507   0.757   7.415   5.732
 2870SOL    HW210508   0.683   7.343   5.621
 2871SOL     OW10509   1.036   2.825  12.977
 2871SOL    HW110510   1.015   2.874  13.055
 2871SOL    HW210511   1.132   2.822  12.976
 2872SOL     OW10512   5.178   5.363   5.921
 2872SOL    HW110513   5.240   5.382   5.992
 2872SOL    HW210514   5.128   5.288   5.953
 2873SOL     OW10515  10.182   9.399  10.340
 2873SOL    HW110516  10.265   9.442  10.318
 2873SOL    HW210517  10.117   9.442  10.284
 2874SOL     OW10518   2.598   9.025   8.774
 2874SOL    HW110519   2.576   9.072   8.855
 2874SOL    HW210520   2.632   8.941   8.803
 2875SOL     OW10521   5.208   9.628   9.612
 2875SOL    HW110522   5.174   9.551   9.566
 2875SOL    HW210523   5.142   9.648   9.678
 2876SOL     OW10524  12.332   8.934   2.687
 2876SOL    HW110525  12.276   8.950   2.763
 2876SOL    HW210526  12.357   8.842   2.696
 2877SOL     OW10527  13.646   0.293   5.359
 2877SOL    HW110528  13.659   0.215   5.306
 2877SOL    HW210529  13.592   0.350   5.304
 2878SOL     OW10530  14.403  11.003   3.553
 2878SOL    HW110531  14.455  11.076   3.585
 2878SOL    HW210532  14.393  10.946   3.629
 2879SOL     OW10533   1.770   1.898  10.350
 2879SOL    HW110534   1.814   1.926  10.270
 2879SOL    HW210535   1.697   1.960  10.360
 2880SOL     OW10536   6.197   0.412  11.986
 2880SOL    HW110537   6.142   0.443  11.913
 2880SOL    HW210538   6.255   0.485  12.006
 2881SOL     OW10539   4.011   3.725   3.902
 2881SOL    HW110540   4.005   3.673   3.983
 2881SOL    HW210541   3.924   3.761   3.890
 2882SOL     OW10542   1.590   8.563  10.833
 2882SOL    HW110543   1.570   8.470  10.824
 2882SOL    HW210544   1.582   8.581  10.926
 2883SOL     OW10545  10.583   3.472   1.166
 2883SOL    HW110546  10.576   3.378   1.153
 2883SOL    HW210547  10.644   3.482   1.240
 2884SOL     OW10548   6.359   4.121   9.989
 2884SOL    HW110549   6.400   4.156   9.910
 2884SOL    HW210550   6.365   4.192  10.053
 2885SOL     OW10551   7.880   9.580  10.123
 2885SOL    HW110552   7.822   9.656  10.124
 2885SOL    HW210553   7.941   9.598  10.051
 2886SOL     OW10554  11.581   8.898  10.704
 2886SOL    HW110555  11.605   8.811  10.736
 2886SOL    HW210556  11.620   8.904  10.617
 2887SOL     OW10557   0.776   6.826  10.999
 2887SOL    HW110558   0.710   6.816  10.931
 2887SOL    HW210559   0.726   6.849  11.078
 2888SOL     OW10560  12.408   6.722   4.288
 2888SOL    HW110561  12.418   6.743   4.195
 2888SOL    HW210562  12.426   6.804   4.334
 2889SOL     OW10563   1.454   6.112  10.183
 2889SOL    HW110564   1.546   6.136  10.176
 2889SOL    HW210565   1.437   6.058  10.106
 2890SOL     OW10566  10.107  11.249   0.339
 2890SOL    HW110567  10.105  11.169   0.287
 2890SOL    HW210568  10.178  11.236   0.401
 2891SOL     OW10569   9.663   8.290  13.332
 2891SOL    HW110570   9.604   8.234  13.282
 2891SOL    HW210571   9.610   8.322  13.404
 2892SOL     OW10572   5.373  13.372   6.872
 2892SOL    HW110573   5.394  13.282   6.847
 2892SOL    HW210574   5.323  13.407   6.799
 2893SOL     OW10575  14.695   3.335   4.896
 2893SOL    HW110576  14.764   3.358   4.958
 2893SOL    HW210577  14.622   3.307   4.951
 2894SOL     OW10578  10.960  12.207  12.145
 2894SOL    HW110579  10.936  12.228  12.235
 2894SOL    HW210580  11.007  12.124  12.152
 2895SOL     OW10581  10.186  14.366   2.542
 2895SOL    HW110582  10.187  14.364   2.446
 2895SOL    HW210583  10.105  14.322   2.566
 2896SOL     OW10584   3.531  13.320  12.156
 2896SOL    HW110585   3.604  13.309  12.217
 2896SOL    HW210586   3.549  13.402  12.111
 2897SOL     OW10587   4.066   0.226   4.730
 2897SOL    HW110588   4.109   0.201   4.649
 2897SOL    HW210589   4.107   0.172   4.797
 2898SOL     OW10590  12.643   8.712   7.091
 2898SOL    HW110591  12.596   8.748   7.017
 2898SOL    HW210592  12.736   8.719   7.066
 2899SOL     OW10593   5.344   9.054   8.200
 2899SOL    HW110594   5.426   9.064   8.249
 2899SOL    HW210595   5.363   9.089   8.113
 2900SOL     OW10596   3.030   6.527  12.339
 2900SOL    HW110597   2.941   6.559  12.355
 2900SOL    HW210598   3.086   6.602  12.356
 2901SOL     OW10599   7.923  10.025  14.850
 2901SOL    HW110600   8.002  10.070   0.008
 2901SOL    HW210601   7.917   9.947   0.033
 2902SOL     OW10602   6.020  10.449   9.376
 2902SOL    HW110603   6.022  10.403   9.460
 2902SOL    HW210604   6.053  10.385   9.313
 2903SOL     OW10605  12.675   5.832  11.848
 2903SOL    HW110606  12.622   5.756  11.823
 2903SOL    HW210607  12.613   5.890  11.892
 2904SOL     OW10608   5.232  12.900  11.272
 2904SOL    HW110609   5.266  12.812  11.256
 2904SOL    HW210610   5.182  12.891  11.353
 2905SOL     OW10611   5.837   9.266   1.415
 2905SOL    HW110612   5.803   9.294   1.499
 2905SOL    HW210613   5.760   9.259   1.359
 2906SOL     OW10614  11.592  13.287   1.306
 2906SOL    HW110615  11.534  13.226   1.350
 2906SOL    HW210616  11.540  13.367   1.297
 2907SOL     OW10617  11.370   8.503   4.219
 2907SOL    HW110618  11.349   8.426   4.164
 2907SOL    HW210619  11.406   8.566   4.157
 2908SOL     OW10620   9.739  10.858   5.928
 2908SOL    HW110621   9.664  10.833   5.874
 2908SOL    HW210622   9.782  10.775   5.948
 2909SOL     OW10623   3.772   4.804   4.116
 2909SOL    HW110624   3.697   4.804   4.057
 2909SOL    HW210625   3.822   4.726   4.092
 2910SOL     OW10626   3.963   6.431  14.520
 2910SOL    HW110627   3.899   6.473  14.462
 2910SOL    HW210628   4.041   6.486  14.515
 2911SOL     OW10629   4.662   2.242   5.091
 2911SOL    HW110630   4.637   2.216   5.179
 2911SOL    HW210631   4.739   2.189   5.070
 2912SOL     OW10632  12.477   6.611   3.872
 2912SOL    HW110633  12.460   6.674   3.802
 2912SOL    HW210634  12.495   6.666   3.949
 2913SOL     OW10635   1.735   5.168   6.152
 2913SOL    HW110636   1.692   5.229   6.092
 2913SOL    HW210637   1.666   5.142   6.213
 2914SOL     OW10638  12.197   1.771   5.347
 2914SOL    HW110639  12.107   1.802   5.358
 2914SOL    HW210640  12.237   1.835   5.289
 2915SOL     OW10641   8.014  13.871   8.543
 2915SOL    HW110642   8.039  13.919   8.464
 2915SOL    HW210643   8.096  13.830   8.572
 2916SOL     OW10644   4.333   7.855   0.521
 2916SOL    HW110645   4.310   7.830   0.431
 2916SOL    HW210646   4.249   7.865   0.565
 2917SOL     OW10647   4.818   0.862  12.819
 2917SOL    HW110648   4.900   0.902  12.790
 2917SOL    HW210649   4.843   0.809  12.894
 2918SOL     OW10650  10.075  11.586   0.469
 2918SOL    HW110651  10.054  11.676   0.495
 2918SOL    HW210652  10.012  11.567   0.399
 2919SOL     OW10653  13.216   7.597  10.004
 2919SOL    HW110654  13.209   7.505   9.978
 2919SOL    HW210655  13.288   7.631   9.950
 2920SOL     OW10656   0.128   3.278  13.102
 2920SOL    HW110657   0.131   3.368  13.071
 2920SOL    HW210658   0.189   3.275  13.175
 2921SOL     OW10659   2.759   9.834   6.852
 2921SOL    HW110660   2.712   9.836   6.936
 2921SOL    HW210661   2.748   9.744   6.821
 2922SOL     OW10662  10.199  10.046   1.832
 2922SOL    HW110663  10.290  10.038   1.804
 2922SOL    HW210664  10.148  10.002   1.764
 2923SOL     OW10665   4.058   8.621   9.254
 2923SOL    HW110666   4.070   8.601   9.161
 2923SOL    HW210667   4.090   8.544   9.300
 2924SOL     OW10668  13.889   5.371   5.728
 2924SOL    HW110669  13.829   5.316   5.676
 2924SOL    HW210670  13.883   5.334   5.816
 2925SOL     OW10671   6.340   3.425   6.767
 2925SOL    HW110672   6.289   3.345   6.776
 2925SOL    HW210673   6.306   3.467   6.688
 2926SOL     OW10674   8.864   7.829  13.097
 2926SOL    HW110675   8.786   7.788  13.061
 2926SOL    HW210676   8.860   7.920  13.067
 2927SOL     OW10677   5.975  10.882   4.286
 2927SOL    HW110678   6.049  10.942   4.298
 2927SOL    HW210679   5.903  10.939   4.259
 2928SOL     OW10680   3.259  14.179   6.713
 2928SOL    HW110681   3.351  14.159   6.694
 2928SOL    HW210682   3.260  14.270   6.742
 2929SOL     OW10683  12.998   1.765   3.732
 2929SOL    HW110684  13.002   1.860   3.730
 2929SOL    HW210685  13.068   1.739   3.793
 2930SOL     OW10686   6.337   1.839   0.561
 2930SOL    HW110687   6.332   1.779   0.635
 2930SOL    HW210688   6.252   1.884   0.560
 2931SOL     OW10689   0.203   8.847  11.686
 2931SOL    HW110690   0.214   8.773  11.627
 2931SOL    HW210691   0.218   8.811  11.773
 2932SOL     OW10692   3.411  12.977  14.193
 2932SOL    HW110693   3.402  13.028  14.274
 2932SOL    HW210694   3.501  12.993  14.165
 2933SOL     OW10695   2.056  12.829   8.933
 2933SOL    HW110696   2.109  12.882   8.993
 2933SOL    HW210697   2.064  12.873   8.848
 2934SOL     OW10698  12.616   4.455   7.734
 2934SOL    HW110699  12.622   4.457   7.639
 2934SOL    HW210700  12.547   4.518   7.755
 2935SOL     OW10701   1.750   9.411   2.611
 2935SOL    HW110702   1.679   9.475   2.623
 2935SOL    HW210703   1.739   9.381   2.521
 2936SOL     OW10704   2.415   0.857  13.224
 2936SOL    HW110705   2.455   0.771  13.215
 2936SOL    HW210706   2.396   0.865  13.318
 2937SOL     OW10707   6.484  11.488   9.188
 2937SOL    HW110708   6.502  11.563   9.244
 2937SOL    HW210709   6.388  11.481   9.188
 2938SOL     OW10710  14.667   9.495   0.901
 2938SOL    HW110711  14.632   9.410   0.925
 2938SOL    HW210712  14.762   9.483   0.899
 2939SOL     OW10713   1.692  12.822   4.380
 2939SOL    HW110714   1.759  12.887   4.358
 2939SOL    HW210715   1.660  12.791   4.295
 2940SOL     OW10716   4.438   0.438  12.095
 2940SOL    HW110717   4.514   0.422  12.039
 2940SOL    HW210718   4.411   0.351  12.124
 2941SOL     OW10719  11.883   4.899   4.080
 2941SOL    HW110720  11.835   4.906   4.163
 2941SOL    HW210721  11.836   4.958   4.020
 2942SOL     OW10722   1.298  14.568   9.208
 2942SOL    HW110723   1.364  14.543   9.144
 2942SOL    HW210724   1.338  14.641   9.256
 2943SOL     OW10725  12.564   7.947   2.017
 2943SOL    HW110726  12.493   7.898   1.974
 2943SOL    HW210727  12.537   8.038   2.010
 2944SOL     OW10728  14.699   5.171   2.666
 2944SOL    HW110729  14.709   5.237   2.597
 2944SOL    HW210730  14.777   5.116   2.657
 2945SOL     OW10731   3.424   6.273  10.912
 2945SOL    HW110732   3.338   6.316  10.910
 2945SOL    HW210733   3.424   6.217  10.835
 2946SOL     OW10734   7.940   9.560   8.190
 2946SOL    HW110735   7.908   9.508   8.263
 2946SOL    HW210736   7.904   9.648   8.204
 2947SOL     OW10737   3.572  10.811   0.798
 2947SOL    HW110738   3.538  10.893   0.832
 2947SOL    HW210739   3.504  10.747   0.818
 2948SOL     OW10740  11.468   7.795  12.881
 2948SOL    HW110741  11.405   7.739  12.925
 2948SOL    HW210742  11.551   7.778  12.926
 2949SOL     OW10743  10.197   8.459  11.562
 2949SOL    HW110744  10.226   8.502  11.481
 2949SOL    HW210745  10.262   8.391  11.577
 2950SOL     OW10746   8.156   3.380  11.142
 2950SOL    HW110747   8.077   3.396  11.193
 2950SOL    HW210748   8.133   3.405  11.053
 2951SOL     OW10749  13.846   6.297   6.255
 2951SOL    HW110750  13.850   6.253   6.170
 2951SOL    HW210751  13.917   6.361   6.252
 2952SOL     OW10752   7.137   6.139   3.751
 2952SOL    HW110753   7.096   6.212   3.797
 2952SOL    HW210754   7.167   6.081   3.821
 2953SOL     OW10755   5.212   0.171   6.136
 2953SOL    HW110756   5.278   0.190   6.202
 2953SOL    HW210757   5.262   0.160   6.055
 2954SOL     OW10758  10.552   7.020   7.880
 2954SOL    HW110759  10.483   6.990   7.822
 2954SOL    HW210760  10.554   7.115   7.867
 2955SOL     OW10761   8.678   9.234   5.847
 2955SOL    HW110762   8.613   9.279   5.902
 2955SOL    HW210763   8.634   9.153   5.820
 2956SOL     OW10764   9.173   1.041   4.376
 2956SOL    HW110765   9.220   1.096   4.438
 2956SOL    HW210766   9.219   0.957   4.377
 2957SOL     OW10767  13.174   6.126   2.057
 2957SOL    HW110768  13.155   6.157   2.145
 2957SOL    HW210769  13.243   6.184   2.025
 2958SOL     OW10770   6.118  12.360  12.937
 2958SOL    HW110771   6.129  12.265  12.932
 2958SOL    HW210772   6.024  12.374  12.943
 2959SOL     OW10773  11.916   8.756  12.661
 2959SOL    HW110774  11.982   8.687  12.660
 2959SOL    HW210775  11.967   8.838  12.657
 2960SOL     OW10776   5.049   3.387   2.273
 2960SOL    HW110777   4.995   3.464   2.256
 2960SOL    HW210778   4.986   3.315   2.279
 2961SOL     OW10779  12.460   4.788   6.482
 2961SOL    HW110780  12.451   4.697   6.455
 2961SOL    HW210781  12.551   4.810   6.462
 2962SOL     OW10782   6.080   0.366   8.160
 2962SOL    HW110783   6.062   0.443   8.214
 2962SOL    HW210784   6.067   0.397   8.070
 2963SOL     OW10785   7.273   2.719   5.500
 2963SOL    HW110786   7.198   2.664   5.522
 2963SOL    HW210787   7.349   2.660   5.504
 2964SOL     OW10788   3.103  14.847  13.744
 2964SOL    HW110789   3.023  14.845  13.691
 2964SOL    HW210790   3.155   0.047  13.706
 2965SOL     OW10791  12.659  12.175   4.628
 2965SOL    HW110792  12.660  12.121   4.549
 2965SOL    HW210793  12.570  12.208   4.633
 2966SOL     OW10794   0.669   4.374   6.164
 2966SOL    HW110795   0.750   4.324   6.174
 2966SOL    HW210796   0.684   4.432   6.089
 2967SOL     OW10797   5.302   2.889  10.427
 2967SOL    HW110798   5.234   2.883  10.360
 2967SOL    HW210799   5.379   2.850  10.386
 2968SOL     OW10800  13.397   1.640   2.358
 2968SOL    HW110801  13.377   1.549   2.380
 2968SOL    HW210802  13.447   1.672   2.433
 2969SOL     OW10803   4.966   2.457   8.018
 2969SOL    HW110804   4.897   2.460   8.084
 2969SOL    HW210805   4.983   2.549   7.997
 2970SOL     OW10806   4.127   6.906   4.918
 2970SOL    HW110807   4.149   6.954   4.838
 2970SOL    HW210808   4.063   6.961   4.963
 2971SOL     OW10809   9.461   1.813  12.731
 2971SOL    HW110810   9.369   1.795  12.711
 2971SOL    HW210811   9.461   1.831  12.825
 2972SOL     OW10812   9.508  10.562   8.072
 2972SOL    HW110813   9.550  10.648   8.079
 2972SOL    HW210814   9.576  10.500   8.098
 2973SOL     OW10815   8.124  13.820   0.478
 2973SOL    HW110816   8.197  13.856   0.427
 2973SOL    HW210817   8.160  13.741   0.518
 2974SOL     OW10818   5.061   9.074  12.545
 2974SOL    HW110819   5.052   8.978  12.543
 2974SOL    HW210820   5.009   9.102  12.620
 2975SOL     OW10821   8.431   3.283  13.035
 2975SOL    HW110822   8.338   3.272  13.017
 2975SOL    HW210823   8.437   3.287  13.130
 2976SOL     OW10824   8.949   7.954   8.335
 2976SOL    HW110825   8.955   8.044   8.303
 2976SOL    HW210826   8.908   7.906   8.263
 2977SOL     OW10827   9.916  13.456   0.414
 2977SOL    HW110828   9.955  13.535   0.376
 2977SOL    HW210829   9.892  13.482   0.503
 2978SOL     OW10830   9.471   0.128   1.050
 2978SOL    HW110831   9.450   0.201   1.107
 2978SOL    HW210832   9.556   0.096   1.081
 2979SOL     OW10833   7.428  14.269   2.391
 2979SOL    HW110834   7.504  14.217   2.366
 2979SOL    HW210835   7.355  14.228   2.346
 2980SOL     OW10836  11.235  14.501   6.025
 2980SOL    HW110837  11.201  14.575   5.974
 2980SOL    HW210838  11.272  14.442   5.959
 2981SOL     OW10839   1.593  12.558   9.497
 2981SOL    HW110840   1.579  12.558   9.402
 2981SOL    HW210841   1.633  12.473   9.516
 2982SOL     OW10842   8.036   5.453  12.275
 2982SOL    HW110843   7.969   5.520  12.281
 2982SOL    HW210844   7.998   5.377  12.319
 2983SOL     OW10845   7.538   8.280  12.567
 2983SOL    HW110846   7.556   8.277  12.473
 2983SOL    HW210847   7.625   8.287  12.608
 2984SOL     OW10848  14.423  11.584   2.539
 2984SOL    HW110849  14.358  11.523   2.577
 2984SOL    HW210850  14.456  11.634   2.613
 2985SOL     OW10851   8.051  13.314  14.162
 2985SOL    HW110852   8.089  13.322  14.074
 2985SOL    HW210853   8.069  13.399  14.203
 2986SOL     OW10854  14.035   7.692  12.029
 2986SOL    HW110855  13.956   7.646  12.000
 2986SOL    HW210856  14.011   7.785  12.024
 2987SOL     OW10857  11.271   0.122  12.268
 2987SOL    HW110858  11.321   0.142  12.189
 2987SOL    HW210859  11.248   0.207  12.305
 2988SOL     OW10860  13.168   0.412   6.784
 2988SOL    HW110861  13.262   0.394   6.790
 2988SOL    HW210862  13.129   0.358   6.852
 2989SOL     OW10863   9.691  10.090   1.008
 2989SOL    HW110864   9.740  10.027   1.059
 2989SOL    HW210865   9.748  10.167   1.004
 2990SOL     OW10866   7.576   3.700  12.794
 2990SOL    HW110867   7.594   3.687  12.887
 2990SOL    HW210868   7.662   3.714  12.754
 2991SOL     OW10869   4.197  11.728   4.108
 2991SOL    HW110870   4.179  11.780   4.030
 2991SOL    HW210871   4.118  11.675   4.121
 2992SOL     OW10872  12.379   9.124   3.387
 2992SOL    HW110873  12.314   9.193   3.372
 2992SOL    HW210874  12.461   9.162   3.356
 2993SOL     OW10875  12.038  12.300  11.428
 2993SOL    HW110876  12.077  12.381  11.397
 2993SOL    HW210877  11.967  12.328  11.487
 2994SOL     OW10878   0.373   0.987   4.122
 2994SOL    HW110879   0.444   1.016   4.064
 2994SOL    HW210880   0.341   1.067   4.163
 2995SOL     OW10881  10.062   8.381   7.135
 2995SOL    HW110882  10.082   8.302   7.186
 2995SOL    HW210883   9.999   8.353   7.070
 2996SOL     OW10884   9.440   4.683  13.049
 2996SOL    HW110885   9.525   4.710  13.085
 2996SOL    HW210886   9.390   4.656  13.126
 2997SOL     OW10887  11.733   1.175   6.283
 2997SOL    HW110888  11.698   1.087   6.298
 2997SOL    HW210889  11.716   1.192   6.190
 2998SOL     OW10890  12.505   3.397  10.573
 2998SOL    HW110891  12.599   3.418  10.574
 2998SOL    HW210892  12.474   3.431  10.489
 2999SOL     OW10893  12.899   1.529   7.287
 2999SOL    HW110894  12.876   1.467   7.218
 2999SOL    HW210895  12.984   1.564   7.260
 3000SOL     OW10896   6.644   5.469  14.742
 3000SOL    HW110897   6.650   5.527  14.817
 3000SOL    HW210898   6.564   5.419  14.756
 3001SOL     OW10899   1.029   2.427   7.073
 3001SOL    HW110900   0.978   2.356   7.035
 3001SOL    HW210901   1.109   2.384   7.105
 3002SOL     OW10902  14.322  12.750   1.328
 3002SOL    HW110903  14.277  12.665   1.330
 3002SOL    HW210904  14.296  12.788   1.244
 3003SOL     OW10905   0.697   7.131   9.528
 3003SOL    HW110906   0.692   7.160   9.437
 3003SOL    HW210907   0.754   7.196   9.571
 3004SOL     OW10908  10.725   8.143   3.275
 3004SOL    HW110909  10.697   8.081   3.342
 3004SOL    HW210910  10.652   8.147   3.213
 3005SOL     OW10911   8.445   3.764  11.421
 3005SOL    HW110912   8.481   3.678  11.444
 3005SOL    HW210913   8.387   3.786  11.493
 3006SOL     OW10914   7.981   7.616   0.352
 3006SOL    HW110915   7.928   7.667   0.413
 3006SOL    HW210916   8.037   7.681   0.309
 3007SOL     OW10917   8.578  11.613  12.409
 3007SOL    HW110918   8.493  11.651  12.388
 3007SOL    HW210919   8.558  11.529  12.449
 3008SOL     OW10920   2.270   7.959   8.075
 3008SOL    HW110921   2.354   7.940   8.115
 3008SOL    HW210922   2.259   8.054   8.085
 3009SOL     OW10923  11.600  11.407   5.595
 3009SOL    HW110924  11.591  11.502   5.589
 3009SOL    HW210925  11.647  11.382   5.515
 3010SOL     OW10926  10.300  12.292   0.646
 3010SOL    HW110927  10.300  12.305   0.741
 3010SOL    HW210928  10.380  12.244   0.628
 3011SOL     OW10929   4.246  12.912   3.783
 3011SOL    HW110930   4.232  12.821   3.758
 3011SOL    HW210931   4.301  12.949   3.714
 3012SOL     OW10932   3.327   1.311   7.310
 3012SOL    HW110933   3.240   1.272   7.312
 3012SOL    HW210934   3.386   1.238   7.328
 3013SOL     OW10935  14.000  10.760   4.780
 3013SOL    HW110936  13.984  10.685   4.722
 3013SOL    HW210937  13.918  10.810   4.777
 3014SOL     OW10938   9.802  11.404  13.966
 3014SOL    HW110939   9.734  11.436  13.907
 3014SOL    HW210940   9.883  11.442  13.932
 3015SOL     OW10941  11.176  10.531  12.982
 3015SOL    HW110942  11.269  10.517  12.962
 3015SOL    HW210943  11.137  10.444  12.976
 3016SOL     OW10944   3.204  10.963  10.036
 3016SOL    HW110945   3.292  10.986  10.006
 3016SOL    HW210946   3.216  10.931  10.125
 3017SOL     OW10947  12.313   4.263   8.712
 3017SOL    HW110948  12.372   4.303   8.775
 3017SOL    HW210949  12.289   4.334   8.652
 3018SOL     OW10950   0.715   5.402   8.164
 3018SOL    HW110951   0.800   5.358   8.156
 3018SOL    HW210952   0.720   5.476   8.103
 3019SOL     OW10953   1.763   8.919  10.931
 3019SOL    HW110954   1.679   8.889  10.964
 3019SOL    HW210955   1.796   8.847  10.877
 3020SOL     OW10956   1.207  14.047  13.322
 3020SOL    HW110957   1.198  13.983  13.393
 3020SOL    HW210958   1.285  14.019  13.275
 3021SOL     OW10959   6.961   4.282   8.362
 3021SOL    HW110960   7.047   4.267   8.401
 3021SOL    HW210961   6.966   4.370   8.326
 3022SOL     OW10962  13.712   7.269  12.851
 3022SOL    HW110963  13.638   7.231  12.898
 3022SOL    HW210964  13.672   7.321  12.781
 3023SOL     OW10965   0.456   8.657   0.316
 3023SOL    HW110966   0.503   8.582   0.352
 3023SOL    HW210967   0.366   8.648   0.347
 3024SOL     OW10968   2.585   6.403   9.515
 3024SOL    HW110969   2.613   6.397   9.423
 3024SOL    HW210970   2.597   6.314   9.549
 3025SOL     OW10971   1.305  12.520   6.628
 3025SOL    HW110972   1.235  12.537   6.690
 3025SOL    HW210973   1.320  12.604   6.585
 3026SOL     OW10974  13.369   4.183  11.636
 3026SOL    HW110975  13.331   4.235  11.566
 3026SOL    HW210976  13.313   4.199  11.712
 3027SOL     OW10977  14.636   4.518  14.535
 3027SOL    HW110978  14.684   4.438  14.556
 3027SOL    HW210979  14.697   4.589  14.555
 3028SOL     OW10980  11.006   2.209   4.958
 3028SOL    HW110981  11.031   2.278   4.897
 3028SOL    HW210982  10.978   2.136   4.903
 3029SOL     OW10983  14.196   2.320   5.820
 3029SOL    HW110984  14.179   2.389   5.756
 3029SOL    HW210985  14.146   2.346   5.897
 3030SOL     OW10986   8.905   1.912   1.616
 3030SOL    HW110987   8.971   1.903   1.547
 3030SOL    HW210988   8.925   1.996   1.658
 3031SOL     OW10989  13.326   9.290   0.247
 3031SOL    HW110990  13.325   9.243   0.331
 3031SOL    HW210991  13.234   9.297   0.223
 3032SOL     OW10992   9.507   1.164   9.109
 3032SOL    HW110993   9.464   1.095   9.159
 3032SOL    HW210994   9.476   1.151   9.019
 3033SOL     OW10995   0.781  14.791   2.729
 3033SOL    HW110996   0.737  14.847   2.793
 3033SOL    HW210997   0.799  14.710   2.776
 3034SOL     OW10998   1.966   4.575   4.272
 3034SOL    HW110999   1.884   4.540   4.237
 3034SOL    HW211000   1.952   4.580   4.367
 3035SOL     OW11001   1.455  11.828  13.912
 3035SOL    HW111002   1.437  11.916  13.945
 3035SOL    HW211003   1.395  11.772  13.962
 3036SOL     OW11004   2.874   6.370   3.789
 3036SOL    HW111005   2.907   6.448   3.834
 3036SOL    HW211006   2.802   6.339   3.845
 3037SOL     OW11007   9.918  13.616  14.338
 3037SOL    HW111008   9.993  13.619  14.279
 3037SOL    HW211009   9.876  13.701  14.328
 3038SOL     OW11010  11.395   3.514   0.806
 3038SOL    HW111011  11.371   3.539   0.896
 3038SOL    HW211012  11.438   3.592   0.771
 3039SOL     OW11013   5.755  12.798  12.194
 3039SOL    HW111014   5.698  12.808  12.271
 3039SOL    HW211015   5.841  12.775  12.230
 3040SOL     OW11016   4.182   7.649   4.441
 3040SOL    HW111017   4.123   7.705   4.391
 3040SOL    HW211018   4.195   7.573   4.385
 3041SOL     OW11019   5.829   0.580   2.124
 3041SOL    HW111020   5.765   0.510   2.109
 3041SOL    HW211021   5.908   0.535   2.154
 3042SOL     OW11022  13.239  12.599  12.484
 3042SOL    HW111023  13.327  12.613  12.449
 3042SOL    HW211024  13.181  12.638  12.419
 3043SOL     OW11025   8.642   2.587  10.487
 3043SOL    HW111026   8.646   2.549  10.399
 3043SOL    HW211027   8.704   2.535  10.538
 3044SOL     OW11028   3.375   5.056   9.405
 3044SOL    HW111029   3.379   5.142   9.363
 3044SOL    HW211030   3.309   5.066   9.473
 3045SOL     OW11031   2.175  12.102   4.932
 3045SOL    HW111032   2.218  12.187   4.924
 3045SOL    HW211033   2.156  12.076   4.842
 3046SOL     OW11034   0.905  12.923   9.502
 3046SOL    HW111035   0.838  12.945   9.437
 3046SOL    HW211036   0.933  12.835   9.479
 3047SOL     OW11037   2.178  12.455   3.452
 3047SOL    HW111038   2.196  12.401   3.529
 3047SOL    HW211039   2.243  12.525   3.457
 3048SOL     OW11040   2.889  13.029  13.746
 3048SOL    HW111041   2.869  12.938  13.726
 3048SOL    HW211042   2.942  13.059  13.672
 3049SOL     OW11043   8.534  11.455   7.334
 3049SOL    HW111044   8.465  11.518   7.316
 3049SOL    HW211045   8.519  11.429   7.425
 3050SOL     OW11046  11.764   1.017   1.303
 3050SOL    HW111047  11.669   1.006   1.308
 3050SOL    HW211048  11.799   0.939   1.345
 3051SOL     OW11049   5.308   1.705   7.468
 3051SOL    HW111050   5.393   1.728   7.432
 3051SOL    HW211051   5.325   1.682   7.559
 3052SOL     OW11052   8.725   4.062   8.474
 3052SOL    HW111053   8.786   4.127   8.438
 3052SOL    HW211054   8.638   4.094   8.448
 3053SOL     OW11055  14.039   0.128  14.664
 3053SOL    HW111056  14.052   0.152  14.756
 3053SOL    HW211057  14.123   0.088  14.639
 3054SOL     OW11058   0.050   1.376   0.935
 3054SOL    HW111059  14.859   1.356   1.005
 3054SOL    HW211060   0.103   1.448   0.971
 3055SOL     OW11061  12.420  12.982   2.814
 3055SOL    HW111062  12.393  13.068   2.784
 3055SOL    HW211063  12.473  12.998   2.892
 3056SOL     OW11064   8.030  11.273   7.384
 3056SOL    HW111065   8.015  11.314   7.299
 3056SOL    HW211066   8.080  11.194   7.364
 3057SOL     OW11067   9.870   8.240   1.830
 3057SOL    HW111068   9.805   8.200   1.889
 3057SOL    HW211069   9.897   8.169   1.773
 3058SOL     OW11070   0.786   8.621   5.961
 3058SOL    HW111071   0.746   8.681   5.897
 3058SOL    HW211072   0.730   8.543   5.959
 3059SOL     OW11073   3.784   4.667  13.423
 3059SOL    HW111074   3.776   4.648  13.517
 3059SOL    HW211075   3.774   4.581  13.381
 3060SOL     OW11076   3.463   4.685   7.939
 3060SOL    HW111077   3.417   4.601   7.936
 3060SOL    HW211078   3.412   4.738   8.001
 3061SOL     OW11079   6.933   3.251  13.682
 3061SOL    HW111080   6.872   3.289  13.619
 3061SOL    HW211081   6.893   3.268  13.767
 3062SOL     OW11082   2.972  10.761  10.703
 3062SOL    HW111083   2.988  10.759  10.609
 3062SOL    HW211084   3.002  10.676  10.735
 3063SOL     OW11085  11.657   2.147  10.033
 3063SOL    HW111086  11.592   2.131   9.965
 3063SOL    HW211087  11.658   2.242  10.043
 3064SOL     OW11088   7.529   7.688   1.583
 3064SOL    HW111089   7.553   7.684   1.491
 3064SOL    HW211090   7.512   7.781   1.599
 3065SOL     OW11091   9.548   4.271   2.074
 3065SOL    HW111092   9.591   4.185   2.074
 3065SOL    HW211093   9.613   4.330   2.110
 3066SOL     OW11094   6.726   4.014   4.382
 3066SOL    HW111095   6.756   3.954   4.314
 3066SOL    HW211096   6.758   4.100   4.353
 3067SOL     OW11097   8.041  11.379   4.077
 3067SOL    HW111098   8.074  11.416   4.159
 3067SOL    HW211099   8.104  11.311   4.053
 3068SOL     OW11100  14.063   3.746   0.973
 3068SOL    HW111101  14.090   3.761   1.063
 3068SOL    HW211102  14.043   3.653   0.969
 3069SOL     OW11103   0.483   8.288   6.260
 3069SOL    HW111104   0.464   8.219   6.197
 3069SOL    HW211105   0.560   8.332   6.225
 3070SOL     OW11106   3.859   1.493   5.455
 3070SOL    HW111107   3.809   1.569   5.484
 3070SOL    HW211108   3.950   1.515   5.476
 3071SOL     OW11109   3.768   0.450  10.197
 3071SOL    HW111110   3.691   0.440  10.252
 3071SOL    HW211111   3.757   0.537  10.158
 3072SOL     OW11112  13.572  10.030   6.068
 3072SOL    HW111113  13.608  10.038   5.979
 3072SOL    HW211114  13.640   9.983   6.117
 3073SOL     OW11115   6.760   9.025   1.079
 3073SOL    HW111116   6.758   9.071   1.163
 3073SOL    HW211117   6.669   8.998   1.065
 3074SOL     OW11118   4.696   8.031   7.926
 3074SOL    HW111119   4.755   8.001   7.858
 3074SOL    HW211120   4.748   8.028   8.007
 3075SOL     OW11121   8.618   1.948   7.326
 3075SOL    HW111122   8.680   1.890   7.370
 3075SOL    HW211123   8.652   1.956   7.237
 3076SOL     OW11124  14.383   2.443  12.957
 3076SOL    HW111125  14.405   2.382  13.028
 3076SOL    HW211126  14.318   2.396  12.904
 3077SOL     OW11127   7.716   8.715   7.477
 3077SOL    HW111128   7.738   8.796   7.431
 3077SOL    HW211129   7.620   8.714   7.480
 3078SOL     OW11130   7.084  10.324   4.855
 3078SOL    HW111131   6.992  10.327   4.830
 3078SOL    HW211132   7.117  10.242   4.818
 3079SOL     OW11133  12.381  14.258   0.925
 3079SOL    HW111134  12.339  14.190   0.978
 3079SOL    HW211135  12.338  14.339   0.951
 3080SOL     OW11136   1.462   0.744   1.370
 3080SOL    HW111137   1.402   0.702   1.432
 3080SOL    HW211138   1.408   0.803   1.319
 3081SOL     OW11139   9.764   7.766   2.360
 3081SOL    HW111140   9.744   7.690   2.415
 3081SOL    HW211141   9.803   7.729   2.281
 3082SOL     OW11142   4.241  13.391  14.585
 3082SOL    HW111143   4.281  13.476  14.602
 3082SOL    HW211144   4.268  13.336  14.659
 3083SOL     OW11145   7.990   8.341   0.224
 3083SOL    HW111146   7.903   8.327   0.261
 3083SOL    HW211147   7.995   8.435   0.207
 3084SOL     OW11148   0.074   9.264   5.757
 3084SOL    HW111149   0.065   9.245   5.664
 3084SOL    HW211150   0.040   9.353   5.767
 3085SOL     OW11151  11.329   5.066   3.412
 3085SOL    HW111152  11.352   4.973   3.412
 3085SOL    HW211153  11.320   5.088   3.505
 3086SOL     OW11154   6.662   1.422  13.713
 3086SOL    HW111155   6.603   1.438  13.639
 3086SOL    HW211156   6.741   1.472  13.692
 3087SOL     OW11157  12.354   3.737  11.912
 3087SOL    HW111158  12.360   3.718  12.005
 3087SOL    HW211159  12.444   3.730  11.880
 3088SOL     OW11160   2.605  10.284  10.923
 3088SOL    HW111161   2.569  10.338  10.994
 3088SOL    HW211162   2.546  10.209  10.918
 3089SOL     OW11163   6.098   4.219  13.752
 3089SOL    HW111164   6.064   4.295  13.705
 3089SOL    HW211165   6.078   4.145  13.695
 3090SOL     OW11166   8.337  12.387  11.132
 3090SOL    HW111167   8.352  12.342  11.049
 3090SOL    HW211168   8.410  12.361  11.188
 3091SOL     OW11169  12.456   4.824   8.328
 3091SOL    HW111170  12.546   4.844   8.354
 3091SOL    HW211171  12.431   4.897   8.271
 3092SOL     OW11172   5.326   9.975   4.762
 3092SOL    HW111173   5.290   9.956   4.676
 3092SOL    HW211174   5.280  10.055   4.790
 3093SOL     OW11175   4.260   8.599  10.806
 3093SOL    HW111176   4.208   8.547  10.867
 3093SOL    HW211177   4.206   8.603  10.726
 3094SOL     OW11178   5.816   7.264   6.600
 3094SOL    HW111179   5.788   7.274   6.691
 3094SOL    HW211180   5.744   7.300   6.548
 3095SOL     OW11181  14.077  14.746  10.938
 3095SOL    HW111182  14.019  14.713  11.007
 3095SOL    HW211183  14.165  14.733  10.971
 3096SOL     OW11184   6.753   5.928   9.499
 3096SOL    HW111185   6.709   5.951   9.580
 3096SOL    HW211186   6.736   6.002   9.440
 3097SOL     OW11187   5.132  11.082  10.208
 3097SOL    HW111188   5.114  11.160  10.157
 3097SOL    HW211189   5.048  11.057  10.246
 3098SOL     OW11190   6.165  12.398   7.043
 3098SOL    HW111191   6.208  12.455   6.979
 3098SOL    HW211192   6.073  12.398   7.018
 3099SOL     OW11193   0.624   7.493  11.431
 3099SOL    HW111194   0.706   7.500  11.382
 3099SOL    HW211195   0.604   7.399  11.429
 3100SOL     OW11196  12.834   6.099  10.508
 3100SOL    HW111197  12.836   6.081  10.414
 3100SOL    HW211198  12.850   6.014  10.549
 3101SOL     OW11199   6.396   4.712   2.217
 3101SOL    HW111200   6.342   4.694   2.294
 3101SOL    HW211201   6.483   4.680   2.241
 3102SOL     OW11202   4.110   7.467   0.120
 3102SOL    HW111203   4.157   7.426   0.192
 3102SOL    HW211204   4.038   7.514   0.162
 3103SOL     OW11205   4.486  12.863   2.980
 3103SOL    HW111206   4.510  12.911   3.059
 3103SOL    HW211207   4.548  12.895   2.914
 3104SOL     OW11208   8.003   7.028   2.265
 3104SOL    HW111209   7.961   6.943   2.251
 3104SOL    HW211210   7.966   7.084   2.197
 3105SOL     OW11211  11.751   1.319   0.629
 3105SOL    HW111212  11.670   1.366   0.612
 3105SOL    HW211213  11.743   1.288   0.719
 3106SOL     OW11214   4.326   3.759  13.857
 3106SOL    HW111215   4.389   3.712  13.803
 3106SOL    HW211216   4.243   3.712  13.845
 3107SOL     OW11217   8.126  10.688  11.922
 3107SOL    HW111218   8.149  10.728  12.006
 3107SOL    HW211219   8.150  10.754  11.857
 3108SOL     OW11220  14.431   2.861   2.663
 3108SOL    HW111221  14.388   2.786   2.703
 3108SOL    HW211222  14.516   2.827   2.634
 3109SOL     OW11223  11.268  14.607  12.035
 3109SOL    HW111224  11.307  14.529  12.076
 3109SOL    HW211225  11.216  14.647  12.105
 3110SOL     OW11226   7.258   0.321   5.164
 3110SOL    HW111227   7.286   0.265   5.091
 3110SOL    HW211228   7.162   0.325   5.155
 3111SOL     OW11229   3.442   6.103   3.434
 3111SOL    HW111230   3.404   6.023   3.396
 3111SOL    HW211231   3.388   6.174   3.399
 3112SOL     OW11232   6.292  11.890  10.151
 3112SOL    HW111233   6.242  11.969  10.132
 3112SOL    HW211234   6.287  11.880  10.246
 3113SOL     OW11235   2.426   0.954   9.792
 3113SOL    HW111236   2.353   1.016   9.795
 3113SOL    HW211237   2.490   0.996   9.735
 3114SOL     OW11238   6.158   7.879   2.634
 3114SOL    HW111239   6.099   7.817   2.590
 3114SOL    HW211240   6.142   7.962   2.590
 3115SOL     OW11241   1.959   1.217  11.745
 3115SOL    HW111242   1.966   1.230  11.839
 3115SOL    HW211243   2.049   1.213  11.714
 3116SOL     OW11244   8.922   3.061   1.077
 3116SOL    HW111245   8.897   3.110   1.156
 3116SOL    HW211246   8.849   3.075   1.016
 3117SOL     OW11247   4.704   4.938   1.331
 3117SOL    HW111248   4.661   4.918   1.414
 3117SOL    HW211249   4.745   4.855   1.305
 3118SOL     OW11250   1.756  11.393  12.939
 3118SOL    HW111251   1.674  11.442  12.941
 3118SOL    HW211252   1.774  11.372  13.030
 3119SOL     OW11253  10.439   2.099  11.641
 3119SOL    HW111254  10.401   2.083  11.555
 3119SOL    HW211255  10.376   2.157  11.684
 3120SOL     OW11256   8.000  13.006  10.733
 3120SOL    HW111257   7.961  12.948  10.668
 3120SOL    HW211258   8.019  13.087  10.684
 3121SOL     OW11259   5.930   6.813   5.462
 3121SOL    HW111260   5.994   6.877   5.430
 3121SOL    HW211261   5.891   6.776   5.383
 3122SOL     OW11262   0.689   6.254   4.921
 3122SOL    HW111263   0.720   6.239   4.831
 3122SOL    HW211264   0.656   6.169   4.949
 3123SOL     OW11265   6.394  11.618  11.195
 3123SOL    HW111266   6.378  11.533  11.153
 3123SOL    HW211267   6.416  11.677  11.123
 3124SOL     OW11268   1.376   0.463   1.243
 3124SOL    HW111269   1.350   0.385   1.194
 3124SOL    HW211270   1.344   0.536   1.190
 3125SOL     OW11271  14.361   4.923   4.684
 3125SOL    HW111272  14.295   4.981   4.647
 3125SOL    HW211273  14.384   4.963   4.768
 3126SOL     OW11274   6.403   4.627   6.375
 3126SOL    HW111275   6.357   4.700   6.334
 3126SOL    HW211276   6.411   4.561   6.306
 3127SOL     OW11277  13.019  12.556  13.750
 3127SOL    HW111278  13.093  12.516  13.706
 3127SOL    HW211279  13.058  12.619  13.810
 3128SOL     OW11280   0.292   1.548  11.191
 3128SOL    HW111281   0.233   1.592  11.129
 3128SOL    HW211282   0.312   1.616  11.256
 3129SOL     OW11283  13.591  13.257   7.092
 3129SOL    HW111284  13.509  13.294   7.060
 3129SOL    HW211285  13.568  13.170   7.125
 3130SOL     OW11286   4.783   6.965  12.009
 3130SOL    HW111287   4.810   7.024  12.079
 3130SOL    HW211288   4.688   6.977  12.003
 3131SOL     OW11289   1.428   0.775   7.540
 3131SOL    HW111290   1.490   0.702   7.542
 3131SOL    HW211291   1.348   0.738   7.504
 3132SOL     OW11292   5.621  13.813   3.366
 3132SOL    HW111293   5.550  13.836   3.305
 3132SOL    HW211294   5.625  13.887   3.427
 3133SOL     OW11295   1.589   9.934  13.751
 3133SOL    HW111296   1.563   9.992  13.823
 3133SOL    HW211297   1.552   9.849  13.775
 3134SOL     OW11298   0.261  11.932   5.660
 3134SOL    HW111299   0.301  12.017   5.645
 3134SOL    HW211300   0.292  11.877   5.588
 3135SOL     OW11301  11.489  10.609   6.502
 3135SOL    HW111302  11.535  10.667   6.441
 3135SOL    HW211303  11.548  10.535   6.515
 3136SOL     OW11304  14.069  14.107   0.743
 3136SOL    HW111305  14.015  14.148   0.810
 3136SOL    HW211306  14.016  14.111   0.663
 3137SOL     OW11307   0.055   9.900   2.746
 3137SOL    HW111308  14.865   9.923   2.677
 3137SOL    HW211309   0.056   9.976   2.804
 3138SOL     OW11310  14.585   7.781  10.410
 3138SOL    HW111311  14.497   7.818  10.410
 3138SOL    HW211312  14.576   7.698  10.456
 3139SOL     OW11313   6.429   3.543   0.543
 3139SOL    HW111314   6.390   3.459   0.569
 3139SOL    HW211315   6.355   3.604   0.539
 3140SOL     OW11316   3.841  14.356   3.931
 3140SOL    HW111317   3.856  14.331   4.022
 3140SOL    HW211318   3.908  14.307   3.882
 3141SOL     OW11319  11.749   9.851   7.706
 3141SOL    HW111320  11.797   9.799   7.641
 3141SOL    HW211321  11.663   9.810   7.712
 3142SOL     OW11322   7.510   9.154   2.777
 3142SOL    HW111323   7.493   9.076   2.830
 3142SOL    HW211324   7.598   9.182   2.804
 3143SOL     OW11325  11.622   4.922   0.320
 3143SOL    HW111326  11.648   4.969   0.241
 3143SOL    HW211327  11.526   4.919   0.315
 3144SOL     OW11328   9.812   0.906  14.079
 3144SOL    HW111329   9.872   0.945  14.015
 3144SOL    HW211330   9.838   0.947  14.163
 3145SOL     OW11331  13.211  10.540   2.103
 3145SOL    HW111332  13.171  10.623   2.074
 3145SOL    HW211333  13.233  10.495   2.021
 3146SOL     OW11334   4.473   8.322   0.831
 3146SOL    HW111335   4.426   8.370   0.762
 3146SOL    HW211336   4.445   8.365   0.912
 3147SOL     OW11337   9.456   1.594   6.053
 3147SOL    HW111338   9.463   1.503   6.082
 3147SOL    HW211339   9.416   1.588   5.966
 3148SOL     OW11340   3.092   9.941   4.193
 3148SOL    HW111341   3.177   9.949   4.236
 3148SOL    HW211342   3.111   9.899   4.109
 3149SOL     OW11343   7.653  13.447   7.780
 3149SOL    HW111344   7.687  13.360   7.758
 3149SOL    HW211345   7.558  13.436   7.782
 3150SOL     OW11346   4.078   4.217  14.755
 3150SOL    HW111347   4.132   4.280  14.706
 3150SOL    HW211348   4.068   4.143  14.695
 3151SOL     OW11349  11.040   5.654   6.817
 3151SOL    HW111350  11.063   5.662   6.724
 3151SOL    HW211351  11.089   5.724   6.860
 3152SOL     OW11352   1.277   1.045   2.479
 3152SOL    HW111353   1.288   1.008   2.567
 3152SOL    HW211354   1.353   1.102   2.468
 3153SOL     OW11355   3.464   5.441   2.543
 3153SOL    HW111356   3.391   5.406   2.594
 3153SOL    HW211357   3.427   5.513   2.493
 3154SOL     OW11358  11.641  13.644  14.531
 3154SOL    HW111359  11.695  13.631  14.453
 3154SOL    HW211360  11.705  13.644  14.603
 3155SOL     OW11361   0.382   6.267   1.786
 3155SOL    HW111362   0.301   6.249   1.834
 3155SOL    HW211363   0.355   6.268   1.694
 3156SOL     OW11364   1.645  13.460   9.876
 3156SOL    HW111365   1.686  13.541   9.906
 3156SOL    HW211366   1.631  13.410   9.956
 3157SOL     OW11367   3.233  10.543   0.613
 3157SOL    HW111368   3.285  10.476   0.659
 3157SOL    HW211369   3.260  10.534   0.522
 3158SOL     OW11370   4.970   8.743   5.259
 3158SOL    HW111371   5.058   8.727   5.291
 3158SOL    HW211372   4.982   8.803   5.185
 3159SOL     OW11373   1.957  10.141  13.386
 3159SOL    HW111374   1.869  10.179  13.390
 3159SOL    HW211375   1.960  10.079  13.459
 3160SOL     OW11376   2.125  12.933   4.156
 3160SOL    HW111377   2.184  12.939   4.231
 3160SOL    HW211378   2.173  12.881   4.092
 3161SOL     OW11379  12.402  13.562   0.885
 3161SOL    HW111380  12.336  13.494   0.897
 3161SOL    HW211381  12.477  13.532   0.936
 3162SOL     OW11382  13.275   0.651  12.890
 3162SOL    HW111383  13.348   0.705  12.923
 3162SOL    HW211384  13.266   0.677  12.799
 3163SOL     OW11385  10.698   0.762   0.141
 3163SOL    HW111386  10.678   0.853   0.117
 3163SOL    HW211387  10.619   0.714   0.116
 3164SOL     OW11388  14.011   4.049  11.640
 3164SOL    HW111389  14.006   4.063  11.735
 3164SOL    HW211390  14.008   4.138  11.603
 3165SOL     OW11391   2.401   0.958  14.397
 3165SOL    HW111392   2.390   1.053  14.397
 3165SOL    HW211393   2.495   0.945  14.401
 3166SOL     OW11394  12.512  11.619   7.362
 3166SOL    HW111395  12.555  11.542   7.399
 3166SOL    HW211396  12.541  11.620   7.271
 3167SOL     OW11397  13.093   4.240   7.572
 3167SOL    HW111398  13.003   4.272   7.566
 3167SOL    HW211399  13.130   4.253   7.485
 3168SOL     OW11400   4.516  10.976   2.791
 3168SOL    HW111401   4.487  10.912   2.727
 3168SOL    HW211402   4.604  11.000   2.763
 3169SOL     OW11403  10.179   2.159   1.239
 3169SOL    HW111404  10.241   2.086   1.238
 3169SOL    HW211405  10.100   2.123   1.199
 3170SOL     OW11406   1.274   6.761   3.543
 3170SOL    HW111407   1.350   6.702   3.550
 3170SOL    HW211408   1.223   6.744   3.622
 3171SOL     OW11409   9.452   2.338  11.692
 3171SOL    HW111410   9.411   2.334  11.605
 3171SOL    HW211411   9.482   2.249  11.708
 3172SOL     OW11412   6.559   0.782  11.875
 3172SOL    HW111413   6.498   0.778  11.801
 3172SOL    HW211414   6.613   0.704  11.866
 3173SOL     OW11415   1.891   3.491   6.694
 3173SOL    HW111416   1.822   3.445   6.646
 3173SOL    HW211417   1.846   3.530   6.768
 3174SOL     OW11418  13.476  13.871   1.856
 3174SOL    HW111419  13.549  13.928   1.881
 3174SOL    HW211420  13.497  13.841   1.768
 3175SOL     OW11421   2.191   0.353  10.907
 3175SOL    HW111422   2.103   0.314  10.903
 3175SOL    HW211423   2.178   0.445  10.885
 3176SOL     OW11424   0.247  11.885  11.279
 3176SOL    HW111425   0.334  11.922  11.296
 3176SOL    HW211426   0.230  11.906  11.187
 3177SOL     OW11427   0.322  13.597   5.475
 3177SOL    HW111428   0.297  13.676   5.426
 3177SOL    HW211429   0.416  13.588   5.460
 3178SOL     OW11430  14.434  13.082   2.276
 3178SOL    HW111431  14.343  13.076   2.304
 3178SOL    HW211432  14.457  13.174   2.290
 3179SOL     OW11433   1.523   8.383   4.015
 3179SOL    HW111434   1.580   8.308   3.997
 3179SOL    HW211435   1.440   8.343   4.044
 3180SOL     OW11436   7.745  10.957   0.697
 3180SOL    HW111437   7.825  11.009   0.692
 3180SOL    HW211438   7.733  10.923   0.608
 3181SOL     OW11439   8.406   5.345  11.378
 3181SOL    HW111440   8.491   5.365  11.339
 3181SOL    HW211441   8.346   5.338  11.304
 3182SOL     OW11442   8.381  12.312   6.294
 3182SOL    HW111443   8.425  12.271   6.220
 3182SOL    HW211444   8.433  12.287   6.370
 3183SOL     OW11445   8.958   5.968   5.360
 3183SOL    HW111446   8.881   5.986   5.413
 3183SOL    HW211447   8.927   5.975   5.269
 3184SOL     OW11448   9.058   8.312  13.808
 3184SOL    HW111449   9.146   8.286  13.784
 3184SOL    HW211450   9.009   8.230  13.814
 3185SOL     OW11451   4.168   6.886   1.367
 3185SOL    HW111452   4.178   6.834   1.287
 3185SOL    HW211453   4.233   6.850   1.427
 3186SOL     OW11454   4.930  13.527  11.175
 3186SOL    HW111455   4.929  13.431  11.182
 3186SOL    HW211456   4.837  13.551  11.171
 3187SOL     OW11457  13.495  12.529   8.127
 3187SOL    HW111458  13.494  12.531   8.222
 3187SOL    HW211459  13.575  12.575   8.102
 3188SOL     OW11460   7.800   2.706  11.457
 3188SOL    HW111461   7.790   2.798  11.433
 3188SOL    HW211462   7.775   2.658  11.378
 3189SOL     OW11463   8.701   9.833   9.845
 3189SOL    HW111464   8.733   9.781   9.772
 3189SOL    HW211465   8.607   9.844   9.828
 3190SOL     OW11466  14.675   2.025   4.940
 3190SOL    HW111467  14.675   2.003   5.033
 3190SOL    HW211468  14.740   2.095   4.933
 3191SOL     OW11469  14.747  11.497   5.881
 3191SOL    HW111470  14.725  11.548   5.803
 3191SOL    HW211471  14.718  11.552   5.954
 3192SOL     OW11472  10.781   7.411  13.550
 3192SOL    HW111473  10.782   7.355  13.629
 3192SOL    HW211474  10.849   7.476  13.566
 3193SOL     OW11475   2.002   7.857   3.783
 3193SOL    HW111476   2.041   7.908   3.855
 3193SOL    HW211477   2.066   7.787   3.766
 3194SOL     OW11478  13.120   2.867  12.005
 3194SOL    HW111479  13.058   2.831  12.069
 3194SOL    HW211480  13.205   2.860  12.048
 3195SOL     OW11481   8.388   4.780  14.716
 3195SOL    HW111482   8.466   4.787  14.771
 3195SOL    HW211483   8.418   4.732  14.639
 3196SOL     OW11484   6.835  13.410   4.938
 3196SOL    HW111485   6.817  13.375   5.025
 3196SOL    HW211486   6.874  13.336   4.890
 3197SOL     OW11487   5.638   4.366   6.667
 3197SOL    HW111488   5.731   4.346   6.680
 3197SOL    HW211489   5.593   4.294   6.712
 3198SOL     OW11490   8.007  14.027  11.442
 3198SOL    HW111491   8.089  14.036  11.490
 3198SOL    HW211492   7.942  14.067  11.498
 3199SOL     OW11493  14.521  14.117   3.378
 3199SOL    HW111494  14.532  14.191   3.318
 3199SOL    HW211495  14.530  14.040   3.322
 3200SOL     OW11496   8.502  10.073   8.338
 3200SOL    HW111497   8.480   9.983   8.360
 3200SOL    HW211498   8.498  10.120   8.421
 3201SOL     OW11499   9.588   8.022   9.142
 3201SOL    HW111500   9.667   8.029   9.089
 3201SOL    HW211501   9.583   8.106   9.189
 3202SOL     OW11502  12.958   7.308   5.848
 3202SOL    HW111503  13.008   7.298   5.929
 3202SOL    HW211504  12.869   7.328   5.878
 3203SOL     OW11505   0.621  12.171   5.755
 3203SOL    HW111506   0.572  12.161   5.836
 3203SOL    HW211507   0.689  12.104   5.760
 3204SOL     OW11508   1.854   1.968  13.551
 3204SOL    HW111509   1.909   1.889  13.554
 3204SOL    HW211510   1.777   1.941  13.500
 3205SOL     OW11511   8.854   1.126  13.447
 3205SOL    HW111512   8.933   1.087  13.485
 3205SOL    HW211513   8.802   1.052  13.417
 3206SOL     OW11514   7.583   6.566   9.217
 3206SOL    HW111515   7.591   6.655   9.251
 3206SOL    HW211516   7.540   6.577   9.132
 3207SOL     OW11517   6.536   4.156   6.404
 3207SOL    HW111518   6.556   4.193   6.490
 3207SOL    HW211519   6.586   4.075   6.400
 3208SOL     OW11520  14.438  11.548   7.081
 3208SOL    HW111521  14.515  11.535   7.136
 3208SOL    HW211522  14.432  11.643   7.070
 3209SOL     OW11523   2.926   1.482  12.406
 3209SOL    HW111524   2.994   1.503  12.471
 3209SOL    HW211525   2.883   1.404  12.441
 3210SOL     OW11526   1.308  14.393   1.075
 3210SOL    HW111527   1.296  14.452   1.150
 3210SOL    HW211528   1.306  14.449   0.999
 3211SOL     OW11529   4.492   3.895   7.620
 3211SOL    HW111530   4.463   3.900   7.712
 3211SOL    HW211531   4.560   3.962   7.613
 3212SOL     OW11532   3.269   1.430  13.368
 3212SOL    HW111533   3.175   1.412  13.378
 3212SOL    HW211534   3.294   1.474  13.449
 3213SOL     OW11535   6.060  10.221  12.224
 3213SOL    HW111536   6.093  10.224  12.313
 3213SOL    HW211537   6.123  10.166  12.177
 3214SOL     OW11538  14.565  12.656  13.261
 3214SOL    HW111539  14.495  12.616  13.313
 3214SOL    HW211540  14.645  12.630  13.306
 3215SOL     OW11541   4.621  10.632   4.184
 3215SOL    HW111542   4.693  10.600   4.130
 3215SOL    HW211543   4.631  10.727   4.184
 3216SOL     OW11544  10.222  10.150   3.071
 3216SOL    HW111545  10.162  10.159   2.997
 3216SOL    HW211546  10.211  10.232   3.121
 3217SOL     OW11547   2.766  10.947   0.107
 3217SOL    HW111548   2.787  10.975   0.197
 3217SOL    HW211549   2.813  10.865   0.095
 3218SOL     OW11550  12.336   6.523   6.491
 3218SOL    HW111551  12.366   6.562   6.409
 3218SOL    HW211552  12.410   6.472   6.523
 3219SOL     OW11553   4.119  13.443   4.048
 3219SOL    HW111554   4.034  13.472   4.014
 3219SOL    HW211555   4.108  13.349   4.063
 3220SOL     OW11556   0.831  12.892   3.870
 3220SOL    HW111557   0.838  12.797   3.864
 3220SOL    HW211558   0.890  12.917   3.941
 3221SOL     OW11559   7.595  12.897   6.371
 3221SOL    HW111560   7.508  12.856   6.365
 3221SOL    HW211561   7.579  12.990   6.356
 3222SOL     OW11562   0.512   5.239   7.353
 3222SOL    HW111563   0.582   5.222   7.290
 3222SOL    HW211564   0.470   5.319   7.321
 3223SOL     OW11565   3.073   5.976  11.316
 3223SOL    HW111566   3.060   6.040  11.246
 3223SOL    HW211567   3.118   5.903  11.274
 3224SOL     OW11568   2.808   6.415  10.222
 3224SOL    HW111569   2.744   6.373  10.164
 3224SOL    HW211570   2.766   6.413  10.308
 3225SOL     OW11571  14.452  10.122  11.225
 3225SOL    HW111572  14.386  10.185  11.195
 3225SOL    HW211573  14.402  10.046  11.252
 3226SOL     OW11574   3.216  13.299  12.389
 3226SOL    HW111575   3.306  13.265  12.388
 3226SOL    HW211576   3.193  13.303  12.482
 3227SOL     OW11577   4.805   2.030  10.024
 3227SOL    HW111578   4.823   1.984   9.942
 3227SOL    HW211579   4.833   1.969  10.093
 3228SOL     OW11580   1.325  10.049   4.238
 3228SOL    HW111581   1.278  10.057   4.154
 3228SOL    HW211582   1.415  10.031   4.213
 3229SOL     OW11583  10.378   8.374   1.246
 3229SOL    HW111584  10.378   8.401   1.154
 3229SOL    HW211585  10.286   8.358   1.267
 3230SOL     OW11586   3.628   2.689   5.664
 3230SOL    HW111587   3.596   2.655   5.748
 3230SOL    HW211588   3.721   2.708   5.680
 3231SOL     OW11589   4.860  10.123  11.350
 3231SOL    HW111590   4.907  10.163  11.276
 3231SOL    HW211591   4.903  10.159  11.427
 3232SOL     OW11592   3.859   7.816   5.778
 3232SOL    HW111593   3.893   7.747   5.835
 3232SOL    HW211594   3.907   7.804   5.696
 3233SOL     OW11595   9.654   6.286   9.336
 3233SOL    HW111596   9.584   6.277   9.401
 3233SOL    HW211597   9.721   6.223   9.363
 3234SOL     OW11598   2.635   0.243   0.744
 3234SOL    HW111599   2.678   0.269   0.663
 3234SOL    HW211600   2.567   0.181   0.716
 3235SOL     OW11601  13.490   2.600   3.659
 3235SOL    HW111602  13.515   2.644   3.740
 3235SOL    HW211603  13.402   2.566   3.676
 3236SOL     OW11604  11.016  11.088  10.398
 3236SOL    HW111605  11.013  11.081  10.303
 3236SOL    HW211606  10.994  11.000  10.429
 3237SOL     OW11607  10.396   8.874   3.512
 3237SOL    HW111608  10.424   8.931   3.583
 3237SOL    HW211609  10.477   8.834   3.479
 3238SOL     OW11610  12.254  11.346   6.863
 3238SOL    HW111611  12.179  11.306   6.820
 3238SOL    HW211612  12.236  11.335   6.956
 3239SOL     OW11613   0.290   2.280   2.097
 3239SOL    HW111614   0.257   2.352   2.043
 3239SOL    HW211615   0.213   2.226   2.115
 3240SOL     OW11616  14.574  14.003   7.626
 3240SOL    HW111617  14.561  13.915   7.662
 3240SOL    HW211618  14.538  13.998   7.537
 3241SOL     OW11619   9.940   1.276  11.802
 3241SOL    HW111620   9.860   1.228  11.822
 3241SOL    HW211621  10.000   1.254  11.873
 3242SOL     OW11622   7.461  11.639  14.246
 3242SOL    HW111623   7.376  11.679  14.226
 3242SOL    HW211624   7.524  11.710  14.234
 3243SOL     OW11625   5.732   4.328   8.234
 3243SOL    HW111626   5.638   4.335   8.251
 3243SOL    HW211627   5.757   4.241   8.267
 3244SOL     OW11628   8.781   3.587   6.512
 3244SOL    HW111629   8.706   3.607   6.455
 3244SOL    HW211630   8.746   3.523   6.575
 3245SOL     OW11631   4.323   3.227   6.485
 3245SOL    HW111632   4.380   3.181   6.547
 3245SOL    HW211633   4.235   3.197   6.507
 3246SOL     OW11634   9.184   4.161   6.406
 3246SOL    HW111635   9.270   4.186   6.372
 3246SOL    HW211636   9.128   4.156   6.329
 3247SOL     OW11637   1.728  12.283   7.454
 3247SOL    HW111638   1.683  12.314   7.375
 3247SOL    HW211639   1.805  12.339   7.462
 3248SOL     OW11640  12.517   3.467   7.390
 3248SOL    HW111641  12.427   3.493   7.412
 3248SOL    HW211642  12.550   3.424   7.469
 3249SOL     OW11643  11.514   3.504   8.098
 3249SOL    HW111644  11.582   3.526   8.034
 3249SOL    HW211645  11.512   3.409   8.100
 3250SOL     OW11646  14.230   3.762   5.285
 3250SOL    HW111647  14.310   3.746   5.334
 3250SOL    HW211648  14.173   3.810   5.346
 3251SOL     OW11649   2.502  13.791  13.554
 3251SOL    HW111650   2.517  13.707  13.510
 3251SOL    HW211651   2.544  13.781  13.640
 3252SOL     OW11652   1.832  13.436   9.469
 3252SOL    HW111653   1.778  13.385   9.529
 3252SOL    HW211654   1.768  13.486   9.417
 3253SOL     OW11655   2.469  12.667   3.136
 3253SOL    HW111656   2.559  12.639   3.118
 3253SOL    HW211657   2.421  12.640   3.057
 3254SOL     OW11658  11.179  13.319   2.922
 3254SOL    HW111659  11.103  13.260   2.930
 3254SOL    HW211660  11.210  13.306   2.832
 3255SOL     OW11661   9.294   8.845   7.832
 3255SOL    HW111662   9.349   8.902   7.778
 3255SOL    HW211663   9.223   8.901   7.862
 3256SOL     OW11664  12.128   0.389   2.262
 3256SOL    HW111665  12.120   0.326   2.191
 3256SOL    HW211666  12.117   0.474   2.221
 3257SOL     OW11667   8.563   4.159   3.943
 3257SOL    HW111668   8.518   4.223   3.888
 3257SOL    HW211669   8.493   4.115   3.992
 3258SOL     OW11670  11.694   3.755   5.756
 3258SOL    HW111671  11.787   3.745   5.737
 3258SOL    HW211672  11.681   3.703   5.836
 3259SOL     OW11673   4.514  12.019   1.310
 3259SOL    HW111674   4.511  12.008   1.405
 3259SOL    HW211675   4.530  12.112   1.298
 3260SOL     OW11676  14.544   9.463   9.665
 3260SOL    HW111677  14.498   9.522   9.606
 3260SOL    HW211678  14.530   9.500   9.752
 3261SOL     OW11679   1.806  12.548   0.764
 3261SOL    HW111680   1.838  12.464   0.798
 3261SOL    HW211681   1.861  12.614   0.806
 3262SOL     OW11682   6.341  10.433   3.639
 3262SOL    HW111683   6.299  10.516   3.619
 3262SOL    HW211684   6.345  10.430   3.735
 3263SOL     OW11685   6.510   1.832  10.274
 3263SOL    HW111686   6.458   1.891  10.328
 3263SOL    HW211687   6.478   1.847  10.185
 3264SOL     OW11688   7.000   2.220   6.200
 3264SOL    HW111689   7.093   2.221   6.177
 3264SOL    HW211690   6.962   2.290   6.147
 3265SOL     OW11691   4.338   5.644   7.503
 3265SOL    HW111692   4.399   5.716   7.489
 3265SOL    HW211693   4.375   5.596   7.577
 3266SOL     OW11694   1.730   2.917  11.098
 3266SOL    HW111695   1.729   3.007  11.066
 3266SOL    HW211696   1.787   2.920  11.175
 3267SOL     OW11697   9.366  10.524   4.066
 3267SOL    HW111698   9.339  10.559   4.151
 3267SOL    HW211699   9.330  10.585   4.002
 3268SOL     OW11700   7.700  14.173   4.421
 3268SOL    HW111701   7.624  14.209   4.376
 3268SOL    HW211702   7.732  14.103   4.364
 3269SOL     OW11703   7.979   5.776   8.809
 3269SOL    HW111704   8.068   5.795   8.778
 3269SOL    HW211705   7.944   5.860   8.837
 3270SOL     OW11706  13.167   8.121   3.128
 3270SOL    HW111707  13.243   8.074   3.093
 3270SOL    HW211708  13.106   8.052   3.154
 3271SOL     OW11709   7.018   1.191   8.128
 3271SOL    HW111710   6.987   1.252   8.194
 3271SOL    HW211711   7.052   1.117   8.177
 3272SOL     OW11712  10.330   6.076   4.106
 3272SOL    HW111713  10.380   6.082   4.188
 3272SOL    HW211714  10.397   6.063   4.039
 3273SOL     OW11715  10.311  14.440   6.960
 3273SOL    HW111716  10.375  14.377   6.928
 3273SOL    HW211717  10.272  14.398   7.037
 3274SOL     OW11718  11.280  10.740   9.691
 3274SOL    HW111719  11.196  10.696   9.679
 3274SOL    HW211720  11.341  10.669   9.711
 3275SOL     OW11721  11.697  14.729   7.539
 3275SOL    HW111722  11.770  14.670   7.558
 3275SOL    HW211723  11.660  14.696   7.457
 3276SOL     OW11724   5.291   5.963  10.421
 3276SOL    HW111725   5.217   6.012  10.387
 3276SOL    HW211726   5.368   6.009  10.387
 3277SOL     OW11727   5.150  14.674   2.861
 3277SOL    HW111728   5.158  14.580   2.879
 3277SOL    HW211729   5.096  14.679   2.782
 3278SOL     OW11730  10.165  14.847   5.967
 3278SOL    HW111731  10.128  14.866   5.880
 3278SOL    HW211732  10.257  14.869   5.958
 3279SOL     OW11733   7.070   1.969   8.679
 3279SOL    HW111734   7.096   1.994   8.591
 3279SOL    HW211735   6.990   1.917   8.667
 3280SOL     OW11736  10.335  12.237   3.078
 3280SOL    HW111737  10.294  12.228   3.164
 3280SOL    HW211738  10.411  12.294   3.093
 3281SOL     OW11739   5.663   5.791   2.836
 3281SOL    HW111740   5.575   5.824   2.858
 3281SOL    HW211741   5.661   5.699   2.862
 3282SOL     OW11742  10.472   0.247   1.040
 3282SOL    HW111743  10.492   0.167   1.088
 3282SOL    HW211744  10.540   0.309   1.066
 3283SOL     OW11745   2.728  10.448   3.391
 3283SOL    HW111746   2.775  10.369   3.419
 3283SOL    HW211747   2.641  10.416   3.367
 3284SOL     OW11748   2.476   6.909   7.705
 3284SOL    HW111749   2.496   6.972   7.636
 3284SOL    HW211750   2.464   6.962   7.783
 3285SOL     OW11751   3.674   6.050  12.618
 3285SOL    HW111752   3.678   5.983  12.686
 3285SOL    HW211753   3.607   6.020  12.557
 3286SOL     OW11754  14.109   5.352  12.661
 3286SOL    HW111755  14.119   5.263  12.629
 3286SOL    HW211756  14.092   5.404  12.583
 3287SOL     OW11757   9.297   9.626  11.341
 3287SOL    HW111758   9.305   9.548  11.286
 3287SOL    HW211759   9.376   9.677  11.322
 3288SOL     OW11760   1.216   3.837   4.836
 3288SOL    HW111761   1.190   3.803   4.922
 3288SOL    HW211762   1.299   3.883   4.852
 3289SOL     OW11763  14.143   1.539   3.211
 3289SOL    HW111764  14.096   1.483   3.272
 3289SOL    HW211765  14.080   1.607   3.186
 3290SOL     OW11766  13.022  13.995   1.889
 3290SOL    HW111767  13.060  13.913   1.921
 3290SOL    HW211768  12.929  13.975   1.878
 3291SOL     OW11769   8.847   1.057   0.467
 3291SOL    HW111770   8.800   1.069   0.550
 3291SOL    HW211771   8.784   1.084   0.400
 3292SOL     OW11772   2.433   0.974   2.967
 3292SOL    HW111773   2.484   1.054   2.957
 3292SOL    HW211774   2.461   0.918   2.895
 3293SOL     OW11775   4.269   4.214   3.758
 3293SOL    HW111776   4.308   4.223   3.670
 3293SOL    HW211777   4.217   4.133   3.753
 3294SOL     OW11778  10.714   5.080  12.093
 3294SOL    HW111779  10.643   5.105  12.034
 3294SOL    HW211780  10.793   5.094  12.041
 3295SOL     OW11781  14.050   5.872   1.272
 3295SOL    HW111782  14.082   5.843   1.186
 3295SOL    HW211783  13.957   5.847   1.272
 3296SOL     OW11784  14.402  11.263   1.880
 3296SOL    HW111785  14.352  11.307   1.949
 3296SOL    HW211786  14.401  11.171   1.906
 3297SOL     OW11787   7.907   2.355   5.670
 3297SOL    HW111788   7.881   2.312   5.588
 3297SOL    HW211789   7.940   2.440   5.643
 3298SOL     OW11790   3.521   4.981   0.967
 3298SOL    HW111791   3.611   4.965   0.942
 3298SOL    HW211792   3.526   5.013   1.057
 3299SOL     OW11793  12.615  10.288   2.308
 3299SOL    HW111794  12.702  10.306   2.271
 3299SOL    HW211795  12.554  10.314   2.239
 3300SOL     OW11796   2.696  10.696   7.265
 3300SOL    HW111797   2.640  10.635   7.313
 3300SOL    HW211798   2.749  10.739   7.332
 3301SOL     OW11799   3.426   5.970   6.368
 3301SOL    HW111800   3.448   6.046   6.314
 3301SOL    HW211801   3.502   5.912   6.362
 3302SOL     OW11802  11.628   0.439  13.077
 3302SOL    HW111803  11.666   0.489  13.149
 3302SOL    HW211804  11.699   0.432  13.013
 3303SOL     OW11805  14.017   9.716   4.491
 3303SOL    HW111806  14.025   9.624   4.514
 3303SOL    HW211807  14.025   9.719   4.396
 3304SOL     OW11808   3.039   5.861   1.811
 3304SOL    HW111809   2.996   5.911   1.880
 3304SOL    HW211810   3.038   5.771   1.843
 3305SOL     OW11811  14.598   5.078   9.953
 3305SOL    HW111812  14.539   5.082   9.878
 3305SOL    HW211813  14.540   5.076  10.030
 3306SOL     OW11814   8.393   4.877   1.094
 3306SOL    HW111815   8.415   4.818   1.166
 3306SOL    HW211816   8.339   4.824   1.035
 3307SOL     OW11817  14.203   4.603   2.307
 3307SOL    HW111818  14.234   4.599   2.398
 3307SOL    HW211819  14.231   4.689   2.276
 3308SOL     OW11820  10.706   7.282   8.186
 3308SOL    HW111821  10.775   7.321   8.240
 3308SOL    HW211822  10.753   7.241   8.113
 3309SOL     OW11823   6.125  11.637   3.023
 3309SOL    HW111824   6.068  11.634   3.100
 3309SOL    HW211825   6.165  11.724   3.028
 3310SOL     OW11826  13.673   1.664   3.050
 3310SOL    HW111827  13.738   1.637   3.114
 3310SOL    HW211828  13.654   1.755   3.072
 3311SOL     OW11829  10.805  10.488   7.513
 3311SOL    HW111830  10.749  10.548   7.561
 3311SOL    HW211831  10.804  10.407   7.565
 3312SOL     OW11832   8.734  11.100  14.144
 3312SOL    HW111833   8.674  11.107  14.219
 3312SOL    HW211834   8.814  11.143  14.173
 3313SOL     OW11835  12.961   4.233   9.112
 3313SOL    HW111836  12.960   4.265   9.203
 3313SOL    HW211837  12.885   4.175   9.106
 3314SOL     OW11838  10.670   9.195  11.641
 3314SOL    HW111839  10.734   9.253  11.681
 3314SOL    HW211840  10.589   9.210  11.691
 3315SOL     OW11841  13.267   7.616   0.727
 3315SOL    HW111842  13.283   7.653   0.814
 3315SOL    HW211843  13.172   7.607   0.722
 3316SOL     OW11844   6.326  12.596   8.583
 3316SOL    HW111845   6.350  12.684   8.556
 3316SOL    HW211846   6.247  12.608   8.636
 3317SOL     OW11847  13.716  11.566   7.073
 3317SOL    HW111848  13.652  11.610   7.129
 3317SOL    HW211849  13.799  11.607   7.095
 3318SOL     OW11850   7.600  12.172   3.848
 3318SOL    HW111851   7.653  12.251   3.843
 3318SOL    HW211852   7.605  12.134   3.761
 3319SOL     OW11853   0.858  10.903  10.503
 3319SOL    HW111854   0.869  10.901  10.599
 3319SOL    HW211855   0.764  10.909  10.490
 3320SOL     OW11856   4.644   6.976   1.111
 3320SOL    HW111857   4.732   6.939   1.115
 3320SOL    HW211858   4.609   6.947   1.027
 3321SOL     OW11859   9.827   6.560   8.720
 3321SOL    HW111860   9.766   6.487   8.708
 3321SOL    HW211861   9.881   6.560   8.641
 3322SOL     OW11862   4.680  13.406  11.068
 3322SOL    HW111863   4.660  13.387  11.160
 3322SOL    HW211864   4.768  13.372  11.055
 3323SOL     OW11865   8.540   7.530   6.545
 3323SOL    HW111866   8.497   7.602   6.590
 3323SOL    HW211867   8.601   7.572   6.485
 3324SOL     OW11868  13.855   2.516  14.393
 3324SOL    HW111869  13.877   2.425  14.412
 3324SOL    HW211870  13.868   2.562  14.476
 3325SOL     OW11871   3.563   5.851   9.275
 3325SOL    HW111872   3.501   5.799   9.327
 3325SOL    HW211873   3.639   5.861   9.333
 3326SOL     OW11874  11.674   0.753   1.051
 3326SOL    HW111875  11.631   0.670   1.034
 3326SOL    HW211876  11.724   0.739   1.131
 3327SOL     OW11877   4.774  11.802   4.301
 3327SOL    HW111878   4.826  11.835   4.374
 3327SOL    HW211879   4.703  11.752   4.343
 3328SOL     OW11880   2.259   6.511   8.536
 3328SOL    HW111881   2.255   6.604   8.511
 3328SOL    HW211882   2.260   6.464   8.452
 3329SOL     OW11883   8.905   6.965  14.274
 3329SOL    HW111884   8.859   6.921  14.345
 3329SOL    HW211885   8.996   6.940  14.284
 3330SOL     OW11886  10.003  13.486   6.388
 3330SOL    HW111887  10.054  13.454   6.313
 3330SOL    HW211888  10.064  13.480   6.462
 3331SOL     OW11889   0.041   3.652   1.915
 3331SOL    HW111890   0.003   3.576   1.958
 3331SOL    HW211891  14.868   3.727   1.955
 3332SOL     OW11892   6.224   6.699   6.258
 3332SOL    HW111893   6.234   6.784   6.301
 3332SOL    HW211894   6.311   6.680   6.222
 3333SOL     OW11895   0.668  13.906   1.289
 3333SOL    HW111896   0.575  13.888   1.279
 3333SOL    HW211897   0.673  14.002   1.299
 3334SOL     OW11898   1.348   5.757   8.792
 3334SOL    HW111899   1.297   5.714   8.861
 3334SOL    HW211900   1.311   5.724   8.711
 3335SOL     OW11901  11.113   9.752   7.688
 3335SOL    HW111902  11.102   9.847   7.687
 3335SOL    HW211903  11.173   9.734   7.616
 3336SOL     OW11904   8.833   5.858   3.391
 3336SOL    HW111905   8.789   5.818   3.315
 3336SOL    HW211906   8.870   5.783   3.439
 3337SOL     OW11907  11.406   7.682   1.913
 3337SOL    HW111908  11.329   7.722   1.955
 3337SOL    HW211909  11.436   7.617   1.977
 3338SOL     OW11910   3.349   1.774   2.396
 3338SOL    HW111911   3.254   1.778   2.382
 3338SOL    HW211912   3.386   1.765   2.308
 3339SOL     OW11913   1.687   5.021  11.156
 3339SOL    HW111914   1.634   5.098  11.137
 3339SOL    HW211915   1.690   5.016  11.252
 3340SOL     OW11916   2.965  10.035   6.840
 3340SOL    HW111917   2.932  10.113   6.886
 3340SOL    HW211918   2.896   9.970   6.851
 3341SOL     OW11919   0.457   7.944   0.516
 3341SOL    HW111920   0.478   7.901   0.599
 3341SOL    HW211921   0.375   7.903   0.488
 3342SOL     OW11922   6.175   8.696  10.276
 3342SOL    HW111923   6.106   8.743  10.229
 3342SOL    HW211924   6.225   8.764  10.320
 3343SOL     OW11925   5.152  13.281   0.505
 3343SOL    HW111926   5.132  13.201   0.554
 3343SOL    HW211927   5.066  13.320   0.488
 3344SOL     OW11928  14.563   7.832   6.039
 3344SOL    HW111929  14.540   7.901   5.977
 3344SOL    HW211930  14.599   7.761   5.985
 3345SOL     OW11931  13.385   7.037   0.185
 3345SOL    HW111932  13.476   7.061   0.165
 3345SOL    HW211933  13.391   6.979   0.261
 3346SOL     OW11934   8.367   5.441   8.073
 3346SOL    HW111935   8.334   5.521   8.033
 3346SOL    HW211936   8.428   5.471   8.141
 3347SOL     OW11937  12.745   5.595   4.852
 3347SOL    HW111938  12.839   5.594   4.832
 3347SOL    HW211939  12.718   5.503   4.843
 3348SOL     OW11940   1.263   6.761   8.549
 3348SOL    HW111941   1.180   6.785   8.508
 3348SOL    HW211942   1.306   6.705   8.485
 3349SOL     OW11943  13.920   4.832   9.356
 3349SOL    HW111944  13.940   4.843   9.449
 3349SOL    HW211945  13.830   4.863   9.346
 3350SOL     OW11946   2.469  12.270  12.434
 3350SOL    HW111947   2.409  12.268  12.360
 3350SOL    HW211948   2.415  12.294  12.509
 3351SOL     OW11949  12.588   7.638  13.715
 3351SOL    HW111950  12.499   7.664  13.739
 3351SOL    HW211951  12.640   7.719  13.723
 3352SOL     OW11952   9.003  10.427   7.577
 3352SOL    HW111953   9.051  10.477   7.643
 3352SOL    HW211954   8.931  10.485   7.551
 3353SOL     OW11955   6.552   6.407  10.372
 3353SOL    HW111956   6.564   6.501  10.364
 3353SOL    HW211957   6.492   6.397  10.447
 3354SOL     OW11958  10.072  13.590  14.604
 3354SOL    HW111959  10.026  13.609  14.522
 3354SOL    HW211960  10.005  13.599  14.672
 3355SOL     OW11961   7.648   1.092   2.538
 3355SOL    HW111962   7.743   1.091   2.552
 3355SOL    HW211963   7.615   1.159   2.597
 3356SOL     OW11964  13.431   9.982   0.641
 3356SOL    HW111965  13.416  10.045   0.571
 3356SOL    HW211966  13.517   9.945   0.621
 3357SOL     OW11967   4.292   6.830   1.609
 3357SOL    HW111968   4.260   6.743   1.633
 3357SOL    HW211969   4.349   6.856   1.682
 3358SOL     OW11970  11.739   1.033   5.563
 3358SOL    HW111971  11.655   0.999   5.531
 3358SOL    HW211972  11.732   1.128   5.552
 3359SOL     OW11973  10.531   7.130   9.722
 3359SOL    HW111974  10.599   7.079   9.767
 3359SOL    HW211975  10.507   7.076   9.647
 3360SOL     OW11976  10.472   7.505   5.812
 3360SOL    HW111977  10.562   7.478   5.830
 3360SOL    HW211978  10.448   7.457   5.733
 3361SOL     OW11979   5.051   1.112   0.569
 3361SOL    HW111980   5.094   1.115   0.483
 3361SOL    HW211981   5.089   1.187   0.616
 3362SOL     OW11982   7.980   2.680   8.680
 3362SOL    HW111983   7.964   2.648   8.769
 3362SOL    HW211984   7.924   2.625   8.625
 3363SOL     OW11985  11.410   7.874   2.784
 3363SOL    HW111986  11.323   7.881   2.826
 3363SOL    HW211987  11.397   7.811   2.713
 3364SOL     OW11988   0.684   8.228   4.133
 3364SOL    HW111989   0.613   8.276   4.175
 3364SOL    HW211990   0.705   8.157   4.194
 3365SOL     OW11991   3.600   5.189  12.094
 3365SOL    HW111992   3.673   5.240  12.061
 3365SOL    HW211993   3.584   5.223  12.181
 3366SOL     OW11994  13.308  13.667  13.098
 3366SOL    HW111995  13.318  13.578  13.066
 3366SOL    HW211996  13.304  13.658  13.194
 3367SOL     OW11997   1.296  12.945   1.216
 3367SOL    HW111998   1.356  12.873   1.238
 3367SOL    HW211999   1.287  12.994   1.297
 3368SOL     OW12000   5.231   3.359  11.505
 3368SOL    HW112001   5.290   3.351  11.580
 3368SOL    HW212002   5.179   3.437  11.523
 3369SOL     OW12003  10.232  12.904  12.794
 3369SOL    HW112004  10.301  12.919  12.858
 3369SOL    HW212005  10.187  12.988  12.787
 3370SOL     OW12006   0.913   6.881  13.779
 3370SOL    HW112007   0.823   6.885  13.745
 3370SOL    HW212008   0.955   6.814  13.726
 3371SOL     OW12009   8.764  11.817   2.231
 3371SOL    HW112010   8.737  11.735   2.191
 3371SOL    HW212011   8.687  11.848   2.278
 3372SOL     OW12012   9.444   6.122   3.218
 3372SOL    HW112013   9.536   6.098   3.234
 3372SOL    HW212014   9.423   6.080   3.135
 3373SOL     OW12015   4.620  11.620   6.089
 3373SOL    HW112016   4.615  11.526   6.072
 3373SOL    HW212017   4.664  11.627   6.174
 3374SOL     OW12018  12.288   6.986   8.803
 3374SOL    HW112019  12.353   7.007   8.736
 3374SOL    HW212020  12.204   6.995   8.759
 3375SOL     OW12021   3.182  13.634  13.334
 3375SOL    HW112022   3.166  13.728  13.341
 3375SOL    HW212023   3.231  13.612  13.414
 3376SOL     OW12024   6.697   5.480   8.283
 3376SOL    HW112025   6.627   5.473   8.219
 3376SOL    HW212026   6.777   5.484   8.231
 3377SOL     OW12027   8.965  12.650  11.035
 3377SOL    HW112028   8.972  12.602  11.117
 3377SOL    HW212029   9.040  12.621  10.983
 3378SOL     OW12030   6.837   5.925   7.014
 3378SOL    HW112031   6.835   6.018   7.037
 3378SOL    HW212032   6.802   5.922   6.924
 3379SOL     OW12033   1.121  13.394   7.641
 3379SOL    HW112034   1.175  13.421   7.567
 3379SOL    HW212035   1.062  13.328   7.605
 3380SOL     OW12036  13.099   1.338   6.994
 3380SOL    HW112037  13.171   1.336   7.057
 3380SOL    HW212038  13.021   1.328   7.048
 3381SOL     OW12039   9.747   8.761   8.788
 3381SOL    HW112040   9.745   8.677   8.744
 3381SOL    HW212041   9.719   8.824   8.721
 3382SOL     OW12042  11.519   3.433   9.085
 3382SOL    HW112043  11.561   3.379   9.018
 3382SOL    HW212044  11.427   3.409   9.082
 3383SOL     OW12045  10.324   2.985  14.092
 3383SOL    HW112046  10.240   2.974  14.136
 3383SOL    HW212047  10.368   2.901  14.101
 3384SOL     OW12048   9.522   3.816  12.824
 3384SOL    HW112049   9.431   3.788  12.818
 3384SOL    HW212050   9.566   3.767  12.754
 3385SOL     OW12051  13.093   7.370  11.055
 3385SOL    HW112052  13.136   7.336  11.133
 3385SOL    HW212053  13.120   7.310  10.985
 3386SOL     OW12054   7.332   8.093  11.867
 3386SOL    HW112055   7.401   8.125  11.925
 3386SOL    HW212056   7.263   8.063  11.926
 3387SOL     OW12057  14.166  14.544   1.868
 3387SOL    HW112058  14.131  14.505   1.788
 3387SOL    HW212059  14.241  14.595   1.840
 3388SOL     OW12060  12.649   4.527   5.476
 3388SOL    HW112061  12.615   4.438   5.469
 3388SOL    HW212062  12.639   4.563   5.388
 3389SOL     OW12063  11.113  12.715  13.170
 3389SOL    HW112064  11.089  12.801  13.134
 3389SOL    HW212065  11.208  12.719  13.178
 3390SOL     OW12066  13.761  12.021  10.021
 3390SOL    HW112067  13.793  12.010  10.111
 3390SOL    HW212068  13.841  12.034   9.969
 3391SOL     OW12069  13.750   1.662   7.935
 3391SOL    HW112070  13.720   1.578   7.970
 3391SOL    HW212071  13.734   1.656   7.841
 3392SOL     OW12072   2.138   0.395   6.586
 3392SOL    HW112073   2.123   0.323   6.648
 3392SOL    HW212074   2.052   0.435   6.576
 3393SOL     OW12075   2.299   5.455   3.414
 3393SOL    HW112076   2.247   5.384   3.375
 3393SOL    HW212077   2.388   5.422   3.415
 3394SOL     OW12078   3.066  11.970   9.564
 3394SOL    HW112079   3.078  11.920   9.483
 3394SOL    HW212080   2.987  12.022   9.549
 3395SOL     OW12081   6.659   5.739   3.237
 3395SOL    HW112082   6.726   5.782   3.290
 3395SOL    HW212083   6.613   5.681   3.298
 3396SOL     OW12084   0.466   6.830   3.681
 3396SOL    HW112085   0.378   6.792   3.680
 3396SOL    HW212086   0.508   6.798   3.601
 3397SOL     OW12087   5.526  11.786   4.655
 3397SOL    HW112088   5.549  11.844   4.583
 3397SOL    HW212089   5.538  11.698   4.620
 3398SOL     OW12090   5.860   1.538   0.102
 3398SOL    HW112091   5.898   1.506   0.184
 3398SOL    HW212092   5.849   1.632   0.116
 3399SOL     OW12093   1.919   2.029   6.257
 3399SOL    HW112094   2.004   1.985   6.254
 3399SOL    HW212095   1.923   2.085   6.335
 3400SOL     OW12096  13.206   5.835   0.430
 3400SOL    HW112097  13.140   5.774   0.396
 3400SOL    HW212098  13.282   5.822   0.373
 3401SOL     OW12099  10.893   9.414   6.479
 3401SOL    HW112100  10.956   9.473   6.519
 3401SOL    HW212101  10.809   9.458   6.488
 3402SOL     OW12102  13.342  10.470   0.257
 3402SOL    HW112103  13.399  10.395   0.244
 3402SOL    HW212104  13.400  10.539   0.289
 3403SOL     OW12105   8.973  14.458   9.937
 3403SOL    HW112106   8.979  14.544   9.896
 3403SOL    HW212107   9.064  14.432   9.951
 3404SOL     OW12108   6.811   4.085   3.368
 3404SOL    HW112109   6.762   4.040   3.437
 3404SOL    HW212110   6.780   4.175   3.371
 3405SOL     OW12111   9.465   3.743   4.317
 3405SOL    HW112112   9.370   3.742   4.306
 3405SOL    HW212113   9.499   3.695   4.241
 3406SOL     OW12114   9.268   7.973   5.327
 3406SOL    HW112115   9.232   7.952   5.241
 3406SOL    HW212116   9.288   7.889   5.367
 3407SOL     OW12117  10.245  14.750  13.452
 3407SOL    HW112118  10.233  14.844  13.444
 3407SOL    HW212119  10.174  14.722  13.510
 3408SOL     OW12120   1.343  12.420   7.252
 3408SOL    HW112121   1.422  12.367   7.255
 3408SOL    HW212122   1.319  12.422   7.160
 3409SOL     OW12123  10.621  14.101  10.029
 3409SOL    HW112124  10.704  14.120  10.073
 3409SOL    HW212125  10.625  14.008  10.009
 3410SOL     OW12126   3.455  11.799  11.052
 3410SOL    HW112127   3.395  11.729  11.076
 3410SOL    HW212128   3.466  11.790  10.957
 3411SOL     OW12129   3.353   2.810  13.917
 3411SOL    HW112130   3.410   2.882  13.891
 3411SOL    HW212131   3.370   2.741  13.853
 3412SOL     OW12132   3.637   1.735  14.498
 3412SOL    HW112133   3.712   1.763  14.551
 3412SOL    HW212134   3.650   1.777  14.413
 3413SOL     OW12135  13.729   4.857   8.185
 3413SOL    HW112136  13.810   4.894   8.220
 3413SOL    HW212137  13.700   4.921   8.119
 3414SOL     OW12138   5.581  14.745  13.526
 3414SOL    HW112139   5.588  14.791  13.610
 3414SOL    HW212140   5.489  14.753  13.502
 3415SOL     OW12141   6.571  14.290  12.794
 3415SOL    HW112142   6.610  14.369  12.755
 3415SOL    HW212143   6.565  14.228  12.722
 3416SOL     OW12144  10.499  10.932  12.689
 3416SOL    HW112145  10.435  10.861  12.696
 3416SOL    HW212146  10.513  10.942  12.594
 3417SOL     OW12147   5.319  13.145   6.573
 3417SOL    HW112148   5.241  13.201   6.574
 3417SOL    HW212149   5.318  13.102   6.659
 3418SOL     OW12150  12.883   0.634   6.301
 3418SOL    HW112151  12.911   0.542   6.301
 3418SOL    HW212152  12.811   0.637   6.237
 3419SOL     OW12153  13.198  12.333  13.916
 3419SOL    HW112154  13.230  12.384  13.841
 3419SOL    HW212155  13.113  12.300  13.888
 3420SOL     OW12156  14.770   5.394   1.954
 3420SOL    HW112157  14.768   5.360   1.864
 3420SOL    HW212158  14.683   5.431   1.968
 3421SOL     OW12159   9.563   1.161   7.939
 3421SOL    HW112160   9.615   1.217   7.882
 3421SOL    HW212161   9.618   1.147   8.016
 3422SOL     OW12162  10.175   5.115   3.235
 3422SOL    HW112163  10.118   5.050   3.274
 3422SOL    HW212164  10.190   5.179   3.304
 3423SOL     OW12165   8.739  13.746   6.578
 3423SOL    HW112166   8.701  13.808   6.640
 3423SOL    HW212167   8.778  13.678   6.633
 3424SOL     OW12168  11.152   7.785   7.582
 3424SOL    HW112169  11.080   7.768   7.521
 3424SOL    HW212170  11.205   7.851   7.538
 3425SOL     OW12171   6.005   5.828   0.064
 3425SOL    HW112172   5.923   5.798   0.105
 3425SOL    HW212173   5.978   5.864  14.852
 3426SOL     OW12174   9.277  12.226   6.481
 3426SOL    HW112175   9.353  12.170   6.497
 3426SOL    HW212176   9.202  12.166   6.481
 3427SOL     OW12177   0.178   0.951   5.937
 3427SOL    HW112178   0.177   0.905   6.021
 3427SOL    HW212179   0.130   1.032   5.954
 3428SOL     OW12180  10.914   3.627   2.627
 3428SOL    HW112181  10.875   3.655   2.709
 3428SOL    HW212182  10.979   3.561   2.652
 3429SOL     OW12183  11.576  11.193   9.999
 3429SOL    HW112184  11.625  11.134   9.941
 3429SOL    HW212185  11.551  11.266   9.942
 3430SOL     OW12186  13.437   1.461   1.985
 3430SOL    HW112187  13.471   1.392   1.927
 3430SOL    HW212188  13.509   1.479   2.046
 3431SOL     OW12189   5.635   0.311  11.656
 3431SOL    HW112190   5.586   0.357  11.588
 3431SOL    HW212191   5.579   0.313  11.733
 3432SOL     OW12192   7.915  11.983  14.102
 3432SOL    HW112193   7.893  11.992  14.194
 3432SOL    HW212194   7.984  11.917  14.100
 3433SOL     OW12195  11.263   9.910  11.463
 3433SOL    HW112196  11.314   9.912  11.544
 3433SOL    HW212197  11.285   9.826  11.423
 3434SOL     OW12198  14.391  13.306   1.711
 3434SOL    HW112199  14.353  13.388   1.744
 3434SOL    HW212200  14.343  13.289   1.630
 3435SOL     OW12201   4.805   1.181   0.718
 3435SOL    HW112202   4.868   1.147   0.655
 3435SOL    HW212203   4.744   1.109   0.732
 3436SOL     OW12204   3.110   1.255   8.996
 3436SOL    HW112205   3.194   1.281   8.959
 3436SOL    HW212206   3.127   1.169   9.035
 3437SOL     OW12207  11.757   1.778  11.191
 3437SOL    HW112208  11.829   1.838  11.209
 3437SOL    HW212209  11.725   1.804  11.105
 3438SOL     OW12210  12.865   8.800   7.508
 3438SOL    HW112211  12.838   8.838   7.424
 3438SOL    HW212212  12.957   8.825   7.517
 3439SOL     OW12213   3.293   5.249   3.706
 3439SOL    HW112214   3.282   5.302   3.784
 3439SOL    HW212215   3.331   5.167   3.737
 3440SOL     OW12216  12.473   4.342   0.040
 3440SOL    HW112217  12.424   4.263   0.017
 3440SOL    HW212218  12.406   4.403   0.072
 3441SOL     OW12219   5.973   7.864  12.672
 3441SOL    HW112220   5.915   7.818  12.611
 3441SOL    HW212221   6.030   7.917  12.616
 3442SOL     OW12222  10.998  11.422   8.499
 3442SOL    HW112223  11.055  11.496   8.517
 3442SOL    HW212224  11.047  11.345   8.529
 3443SOL     OW12225   4.696   7.103   8.893
 3443SOL    HW112226   4.603   7.087   8.877
 3443SOL    HW212227   4.706   7.197   8.882
 3444SOL     OW12228   4.617  10.026  11.417
 3444SOL    HW112229   4.706  10.056  11.399
 3444SOL    HW212230   4.587   9.988  11.334
 3445SOL     OW12231   6.760  14.277  14.416
 3445SOL    HW112232   6.831  14.313  14.363
 3445SOL    HW212233   6.697  14.242  14.352
 3446SOL     OW12234  13.921   1.769   2.199
 3446SOL    HW112235  13.865   1.847   2.203
 3446SOL    HW212236  13.907   1.734   2.111
 3447SOL     OW12237   7.804   7.337  13.431
 3447SOL    HW112238   7.857   7.415  13.448
 3447SOL    HW212239   7.867   7.269  13.410
 3448SOL     OW12240   6.472  14.580   6.950
 3448SOL    HW112241   6.508  14.522   7.017
 3448SOL    HW212242   6.514  14.551   6.869
 3449SOL     OW12243   8.751   4.453  11.852
 3449SOL    HW112244   8.725   4.522  11.791
 3449SOL    HW212245   8.671   4.430  11.898
 3450SOL     OW12246   2.108   1.979   0.044
 3450SOL    HW112247   2.163   2.047   0.005
 3450SOL    HW212248   2.040   2.027   0.090
 3451SOL     OW12249   8.296   1.798   3.933
 3451SOL    HW112250   8.332   1.712   3.909
 3451SOL    HW212251   8.373   1.854   3.944
 3452SOL     OW12252  11.391   5.854  12.647
 3452SOL    HW112253  11.321   5.854  12.712
 3452SOL    HW212254  11.347   5.872  12.564
 3453SOL     OW12255   5.405  11.805   0.521
 3453SOL    HW112256   5.393  11.858   0.442
 3453SOL    HW212257   5.380  11.717   0.495
 3454SOL     OW12258  13.799   0.825   0.371
 3454SOL    HW112259  13.755   0.876   0.438
 3454SOL    HW212260  13.783   0.734   0.395
 3455SOL     OW12261   8.690  12.809   1.131
 3455SOL    HW112262   8.772  12.787   1.087
 3455SOL    HW212263   8.659  12.888   1.087
 3456SOL     OW12264   4.509   6.038   4.439
 3456SOL    HW112265   4.477   6.009   4.525
 3456SOL    HW212266   4.600   6.008   4.436
 3457SOL     OW12267  11.212   2.152   2.051
 3457SOL    HW112268  11.219   2.248   2.048
 3457SOL    HW212269  11.251   2.128   2.135
 3458SOL     OW12270   0.485   3.695   3.950
 3458SOL    HW112271   0.492   3.770   3.891
 3458SOL    HW212272   0.549   3.633   3.917
 3459SOL     OW12273   6.239   6.487   5.922
 3459SOL    HW112274   6.291   6.493   6.002
 3459SOL    HW212275   6.259   6.400   5.887
 3460SOL     OW12276   6.374   4.826   0.074
 3460SOL    HW112277   6.422   4.807  14.865
 3460SOL    HW212278   6.382   4.746   0.127
 3461SOL     OW12279  10.586   8.616  10.614
 3461SOL    HW112280  10.542   8.674  10.676
 3461SOL    HW212281  10.675   8.608  10.648
 3462SOL     OW12282   3.527   9.462   3.824
 3462SOL    HW112283   3.512   9.535   3.765
 3462SOL    HW212284   3.506   9.384   3.772
 3463SOL     OW12285  11.569  12.760   1.188
 3463SOL    HW112286  11.661  12.736   1.183
 3463SOL    HW212287  11.522  12.677   1.194
 3464SOL     OW12288  12.762  10.241   6.258
 3464SOL    HW112289  12.701  10.173   6.231
 3464SOL    HW212290  12.721  10.283   6.334
 3465SOL     OW12291  12.014   0.778  10.386
 3465SOL    HW112292  12.051   0.829  10.314
 3465SOL    HW212293  11.920   0.798  10.384
 3466SOL     OW12294   1.734   0.402   3.523
 3466SOL    HW112295   1.806   0.465   3.528
 3466SOL    HW212296   1.698   0.414   3.435
 3467SOL     OW12297   1.346   7.963   3.956
 3467SOL    HW112298   1.320   7.913   3.879
 3467SOL    HW212299   1.390   7.899   4.013
 3468SOL     OW12300   9.071  10.797   3.710
 3468SOL    HW112301   9.045  10.831   3.795
 3468SOL    HW212302   9.130  10.864   3.675
 3469SOL     OW12303   7.267  13.716   7.604
 3469SOL    HW112304   7.272  13.811   7.588
 3469SOL    HW212305   7.358  13.686   7.599
 3470SOL     OW12306  11.827   8.301  14.614
 3470SOL    HW112307  11.770   8.373  14.640
 3470SOL    HW212308  11.845   8.317  14.521
 3471SOL     OW12309  11.329   2.571   5.279
 3471SOL    HW112310  11.287   2.606   5.200
 3471SOL    HW212311  11.360   2.648   5.326
 3472SOL     OW12312   0.785   4.072   4.680
 3472SOL    HW112313   0.880   4.067   4.689
 3472SOL    HW212314   0.755   3.981   4.687
 3473SOL     OW12315   1.589   4.336  14.082
 3473SOL    HW112316   1.668   4.322  14.030
 3473SOL    HW212317   1.615   4.400  14.149
 3474SOL     OW12318  11.521   7.115   3.181
 3474SOL    HW112319  11.455   7.185   3.183
 3474SOL    HW212320  11.544   7.107   3.088
 3475SOL     OW12321   8.902   9.345  13.254
 3475SOL    HW112322   8.944   9.358  13.339
 3475SOL    HW212323   8.809   9.335  13.274
 3476SOL     OW12324   7.383   7.782   5.997
 3476SOL    HW112325   7.439   7.831   5.936
 3476SOL    HW212326   7.439   7.712   6.030
 3477SOL     OW12327  11.191   5.924  14.243
 3477SOL    HW112328  11.172   5.836  14.210
 3477SOL    HW212329  11.222   5.972  14.166
 3478SOL     OW12330  12.466  13.887   7.224
 3478SOL    HW112331  12.450  13.916   7.313
 3478SOL    HW212332  12.561  13.877   7.219
 3479SOL     OW12333  14.834  11.784   8.925
 3479SOL    HW112334   0.036  11.724   8.909
 3479SOL    HW212335  14.778  11.738   8.988
 3480SOL     OW12336   2.265   2.713   0.774
 3480SOL    HW112337   2.256   2.720   0.870
 3480SOL    HW212338   2.335   2.650   0.761
 3481SOL     OW12339   3.346   8.021   8.435
 3481SOL    HW112340   3.405   8.044   8.363
 3481SOL    HW212341   3.401   8.025   8.513
 3482SOL     OW12342   6.820  14.515  13.908
 3482SOL    HW112343   6.820  14.595  13.959
 3482SOL    HW212344   6.912  14.490  13.901
 3483SOL     OW12345   2.704  12.254  14.840
 3483SOL    HW112346   2.618  12.212  14.835
 3483SOL    HW212347   2.691  12.329   0.027
 3484SOL     OW12348   5.788   1.174   5.773
 3484SOL    HW112349   5.840   1.203   5.698
 3484SOL    HW212350   5.853   1.146   5.838
 3485SOL     OW12351   8.643   5.573   4.172
 3485SOL    HW112352   8.691   5.600   4.250
 3485SOL    HW212353   8.697   5.503   4.134
 3486SOL     OW12354   7.727   7.240  10.682
 3486SOL    HW112355   7.665   7.169  10.665
 3486SOL    HW212356   7.784   7.206  10.751
 3487SOL     OW12357   1.104   0.690   8.324
 3487SOL    HW112358   1.148   0.712   8.406
 3487SOL    HW212359   1.048   0.766   8.307
 3488SOL     OW12360   2.200  14.586   3.397
 3488SOL    HW112361   2.148  14.521   3.443
 3488SOL    HW212362   2.259  14.535   3.341
 3489SOL     OW12363  10.407   3.489   1.430
 3489SOL    HW112364  10.340   3.557   1.435
 3489SOL    HW212365  10.490   3.536   1.427
 3490SOL     OW12366  14.428  11.243  12.588
 3490SOL    HW112367  14.370  11.299  12.641
 3490SOL    HW212368  14.415  11.155  12.622
 3491SOL     OW12369   4.159  11.149  13.821
 3491SOL    HW112370   4.162  11.096  13.741
 3491SOL    HW212371   4.155  11.239  13.789
 3492SOL     OW12372  10.235  13.674   5.119
 3492SOL    HW112373  10.217  13.758   5.161
 3492SOL    HW212374  10.180  13.611   5.167
 3493SOL     OW12375   1.067   6.035   7.895
 3493SOL    HW112376   1.048   6.090   7.971
 3493SOL    HW212377   1.152   6.065   7.863
 3494SOL     OW12378  13.241   1.152   1.284
 3494SOL    HW112379  13.276   1.089   1.347
 3494SOL    HW212380  13.301   1.226   1.288
 3495SOL     OW12381   1.081  12.153   9.021
 3495SOL    HW112382   1.115  12.242   9.034
 3495SOL    HW212383   1.157  12.103   8.990
 3496SOL     OW12384   7.005   6.222   7.413
 3496SOL    HW112385   6.922   6.251   7.375
 3496SOL    HW212386   6.983   6.142   7.461
 3497SOL     OW12387   5.692   9.812   1.344
 3497SOL    HW112388   5.781   9.846   1.333
 3497SOL    HW212389   5.637   9.876   1.299
 3498SOL     OW12390   8.980   7.223   3.685
 3498SOL    HW112391   8.994   7.135   3.719
 3498SOL    HW212392   8.958   7.276   3.762
 3499SOL     OW12393   7.309   1.043   9.871
 3499SOL    HW112394   7.296   1.026   9.777
 3499SOL    HW212395   7.375   0.980   9.897
 3500SOL     OW12396   8.530  10.765   2.242
 3500SOL    HW112397   8.594  10.816   2.292
 3500SOL    HW212398   8.582  10.720   2.176
 3501SOL     OW12399  11.773  12.080   6.469
 3501SOL    HW112400  11.714  12.008   6.491
 3501SOL    HW212401  11.828  12.046   6.398
 3502SOL     OW12402   0.039   7.734  10.726
 3502SOL    HW112403   0.020   7.682  10.648
 3502SOL    HW212404   0.114   7.690  10.765
 3503SOL     OW12405   0.483  13.545   8.805
 3503SOL    HW112406   0.447  13.457   8.792
 3503SOL    HW212407   0.408  13.604   8.794
 3504SOL     OW12408   6.037  13.426   8.383
 3504SOL    HW112409   6.132  13.423   8.397
 3504SOL    HW212410   6.003  13.476   8.457
 3505SOL     OW12411   6.639   1.345   2.875
 3505SOL    HW112412   6.697   1.308   2.942
 3505SOL    HW212413   6.552   1.311   2.896
 3506SOL     OW12414   4.120   4.085  10.601
 3506SOL    HW112415   4.058   4.157  10.591
 3506SOL    HW212416   4.189   4.104  10.537
 3507SOL     OW12417   8.935   2.281   0.690
 3507SOL    HW112418   8.956   2.370   0.717
 3507SOL    HW212419   8.879   2.247   0.759
 3508SOL     OW12420   3.131  12.737   6.538
 3508SOL    HW112421   3.102  12.779   6.456
 3508SOL    HW212422   3.132  12.644   6.518
 3509SOL     OW12423   6.716   3.051   6.118
 3509SOL    HW112424   6.784   3.108   6.082
 3509SOL    HW212425   6.712   3.076   6.211
 3510SOL     OW12426   7.271   1.302   4.677
 3510SOL    HW112427   7.186   1.333   4.708
 3510SOL    HW212428   7.315   1.270   4.755
 3511SOL     OW12429  11.844   5.700   6.507
 3511SOL    HW112430  11.918   5.676   6.451
 3511SOL    HW212431  11.883   5.742   6.583
 3512SOL     OW12432   0.633   9.159  12.072
 3512SOL    HW112433   0.555   9.169  12.125
 3512SOL    HW212434   0.611   9.201  11.989
 3513SOL     OW12435   0.449   8.602  13.111
 3513SOL    HW112436   0.489   8.525  13.072
 3513SOL    HW212437   0.442   8.582  13.204
 3514SOL     OW12438   1.232  12.858  14.211
 3514SOL    HW112439   1.255  12.788  14.272
 3514SOL    HW212440   1.287  12.932  14.237
 3515SOL     OW12441  11.020  13.161   1.243
 3515SOL    HW112442  10.985  13.093   1.301
 3515SOL    HW212443  10.969  13.239   1.264
 3516SOL     OW12444  11.828  12.961  13.226
 3516SOL    HW112445  11.778  12.973  13.146
 3516SOL    HW212446  11.767  12.916  13.286
 3517SOL     OW12447  12.926   0.290   2.306
 3517SOL    HW112448  12.876   0.237   2.367
 3517SOL    HW212449  13.018   0.275   2.331
 3518SOL     OW12450  14.859   8.382   4.450
 3518SOL    HW112451  14.830   8.308   4.396
 3518SOL    HW212452  14.804   8.455   4.421
 3519SOL     OW12453   8.651  12.204   2.514
 3519SOL    HW112454   8.611  12.170   2.434
 3519SOL    HW212455   8.671  12.126   2.566
 3520SOL     OW12456   8.205  11.719   8.691
 3520SOL    HW112457   8.133  11.772   8.657
 3520SOL    HW212458   8.183  11.629   8.667
 3521SOL     OW12459   8.927   2.335  13.640
 3521SOL    HW112460   8.866   2.278  13.592
 3521SOL    HW212461   9.013   2.313  13.604
 3522SOL     OW12462  14.378   7.686   3.022
 3522SOL    HW112463  14.418   7.600   3.032
 3522SOL    HW212464  14.440   7.736   2.969
 3523SOL     OW12465   8.509  13.019   5.700
 3523SOL    HW112466   8.545  12.941   5.741
 3523SOL    HW212467   8.514  13.002   5.606
 3524SOL     OW12468   1.238   8.949   0.348
 3524SOL    HW112469   1.198   8.944   0.434
 3524SOL    HW212470   1.315   9.004   0.360
 3525SOL     OW12471   5.506   1.967   4.341
 3525SOL    HW112472   5.452   1.949   4.264
 3525SOL    HW212473   5.592   1.987   4.305
 3526SOL     OW12474   9.879   5.736   8.516
 3526SOL    HW112475   9.962   5.773   8.548
 3526SOL    HW212476   9.854   5.794   8.444
 3527SOL     OW12477   4.174   3.364   4.468
 3527SOL    HW112478   4.079   3.367   4.477
 3527SOL    HW212479   4.201   3.456   4.470
 3528SOL     OW12480  14.541   4.259   2.800
 3528SOL    HW112481  14.561   4.207   2.722
 3528SOL    HW212482  14.625   4.269   2.844
 3529SOL     OW12483   0.755   7.578   1.195
 3529SOL    HW112484   0.720   7.514   1.256
 3529SOL    HW212485   0.758   7.531   1.111
 3530SOL     OW12486  13.501   2.245   0.475
 3530SOL    HW112487  13.531   2.228   0.564
 3530SOL    HW212488  13.481   2.339   0.474
 3531SOL     OW12489  10.263   0.277  11.579
 3531SOL    HW112490  10.254   0.371  11.562
 3531SOL    HW212491  10.351   0.255  11.548
 3532SOL     OW12492  14.302  11.243   7.688
 3532SOL    HW112493  14.391  11.211   7.674
 3532SOL    HW212494  14.253  11.213   7.612
 3533SOL     OW12495   0.356  13.632   9.810
 3533SOL    HW112496   0.427  13.695   9.807
 3533SOL    HW212497   0.321  13.630   9.721
 3534SOL     OW12498   4.778  12.808   3.071
 3534SOL    HW112499   4.720  12.877   3.102
 3534SOL    HW212500   4.765  12.804   2.977
 3535SOL     OW12501   4.576   2.436  10.831
 3535SOL    HW112502   4.607   2.488  10.758
 3535SOL    HW212503   4.613   2.477  10.908
 3536SOL     OW12504  14.128  10.759   0.165
 3536SOL    HW112505  14.221  10.747   0.180
 3536SOL    HW212506  14.109  10.847   0.197
 3537SOL     OW12507   1.268   2.014   9.410
 3537SOL    HW112508   1.265   2.101   9.370
 3537SOL    HW212509   1.241   2.028   9.501
 3538SOL     OW12510   1.661  14.297   3.828
 3538SOL    HW112511   1.653  14.346   3.910
 3538SOL    HW212512   1.736  14.239   3.842
 3539SOL     OW12513   0.156  13.370   8.966
 3539SOL    HW112514   0.237  13.322   8.950
 3539SOL    HW212515   0.087  13.304   8.962
 3540SOL     OW12516   4.765  11.942   5.892
 3540SOL    HW112517   4.698  11.949   5.960
 3540SOL    HW212518   4.794  11.851   5.896
 3541SOL     OW12519   6.957  11.388  10.554
 3541SOL    HW112520   6.946  11.484  10.555
 3541SOL    HW212521   6.911  11.360  10.474
 3542SOL     OW12522  13.508   5.259   8.349
 3542SOL    HW112523  13.581   5.240   8.289
 3542SOL    HW212524  13.539   5.334   8.400
 3543SOL     OW12525  13.469  14.570   7.976
 3543SOL    HW112526  13.422  14.517   8.041
 3543SOL    HW212527  13.529  14.508   7.934
 3544SOL     OW12528   7.205   6.118  10.730
 3544SOL    HW112529   7.133   6.056  10.747
 3544SOL    HW212530   7.199   6.181  10.802
 3545SOL     OW12531  13.463   3.254   8.458
 3545SOL    HW112532  13.436   3.310   8.386
 3545SOL    HW212533  13.513   3.312   8.516
 3546SOL     OW12534   4.097   9.447   0.782
 3546SOL    HW112535   4.075   9.428   0.691
 3546SOL    HW212536   4.020   9.494   0.816
 3547SOL     OW12537   8.187  12.926   9.071
 3547SOL    HW112538   8.262  12.894   9.123
 3547SOL    HW212539   8.202  13.020   9.063
 3548SOL     OW12540   7.386  11.320   8.010
 3548SOL    HW112541   7.431  11.318   8.094
 3548SOL    HW212542   7.438  11.264   7.953
 3549SOL     OW12543   0.333   8.294   7.134
 3549SOL    HW112544   0.399   8.363   7.133
 3549SOL    HW212545   0.310   8.281   7.042
 3550SOL     OW12546   6.696   8.000  12.355
 3550SOL    HW112547   6.604   8.011  12.331
 3550SOL    HW212548   6.736   8.085  12.339
 3551SOL     OW12549  12.725   5.730   2.326
 3551SOL    HW112550  12.741   5.755   2.235
 3551SOL    HW212551  12.746   5.637   2.330
 3552SOL     OW12552   4.925  12.780   5.125
 3552SOL    HW112553   4.872  12.762   5.047
 3552SOL    HW212554   4.945  12.873   5.120
 3553SOL     OW12555   9.063  13.062   7.816
 3553SOL    HW112556   9.018  13.145   7.802
 3553SOL    HW212557   9.007  13.014   7.876
 3554SOL     OW12558   8.139   0.528  14.809
 3554SOL    HW112559   8.106   0.513   0.026
 3554SOL    HW212560   8.119   0.446  14.762
 3555SOL     OW12561   9.265   4.778   4.776
 3555SOL    HW112562   9.192   4.840   4.769
 3555SOL    HW212563   9.314   4.806   4.853
 3556SOL     OW12564  11.988  10.981   9.302
 3556SOL    HW112565  12.041  11.024   9.235
 3556SOL    HW212566  12.045  10.914   9.339
 3557SOL     OW12567   8.770  11.730  11.473
 3557SOL    HW112568   8.838  11.793  11.500
 3557SOL    HW212569   8.812  11.679  11.403
 3558SOL     OW12570   5.021   1.167   6.774
 3558SOL    HW112571   4.942   1.140   6.725
 3558SOL    HW212572   4.988   1.219   6.847
 3559SOL     OW12573  13.127   3.962   7.684
 3559SOL    HW112574  13.121   3.888   7.623
 3559SOL    HW212575  13.124   4.039   7.628
 3560SOL     OW12576  12.156   2.007   3.363
 3560SOL    HW112577  12.171   2.055   3.445
 3560SOL    HW212578  12.068   2.032   3.336
 3561SOL     OW12579   0.844  13.038  11.323
 3561SOL    HW112580   0.799  13.040  11.238
 3561SOL    HW212581   0.798  12.969  11.372
 3562SOL     OW12582   6.211  12.074   8.013
 3562SOL    HW112583   6.245  12.045   8.098
 3562SOL    HW212584   6.273  12.142   7.984
 3563SOL     OW12585   2.708   2.622   4.804
 3563SOL    HW112586   2.747   2.645   4.888
 3563SOL    HW212587   2.633   2.567   4.826
 3564SOL     OW12588   7.108  11.555  14.261
 3564SOL    HW112589   7.129  11.543  14.168
 3564SOL    HW212590   7.104  11.466  14.296
 3565SOL     OW12591   2.542   9.151   0.521
 3565SOL    HW112592   2.567   9.216   0.455
 3565SOL    HW212593   2.549   9.067   0.477
 3566SOL     OW12594   3.281  14.035  10.841
 3566SOL    HW112595   3.217  14.086  10.790
 3566SOL    HW212596   3.295  13.956  10.789
 3567SOL     OW12597  14.567   9.288   6.029
 3567SOL    HW112598  14.659   9.264   6.046
 3567SOL    HW212599  14.517   9.227   6.083
 3568SOL     OW12600   5.691   8.756   5.490
 3568SOL    HW112601   5.664   8.722   5.575
 3568SOL    HW212602   5.785   8.776   5.500
 3569SOL     OW12603   3.646   3.509  12.618
 3569SOL    HW112604   3.635   3.544  12.529
 3569SOL    HW212605   3.620   3.582  12.675
 3570SOL     OW12606  13.065   1.337  12.161
 3570SOL    HW112607  12.971   1.333  12.181
 3570SOL    HW212608  13.072   1.302  12.073
 3571SOL     OW12609   4.887   3.967  14.466
 3571SOL    HW112610   4.854   3.984  14.378
 3571SOL    HW212611   4.963   3.910  14.452
 3572SOL     OW12612   4.762   4.785   0.225
 3572SOL    HW112613   4.752   4.727   0.301
 3572SOL    HW212614   4.846   4.829   0.240
 3573SOL     OW12615   8.175   6.993  11.645
 3573SOL    HW112616   8.127   6.950  11.715
 3573SOL    HW212617   8.118   6.986  11.568
 3574SOL     OW12618  11.593  10.423   7.754
 3574SOL    HW112619  11.537  10.358   7.712
 3574SOL    HW212620  11.538  10.464   7.820
 3575SOL     OW12621   3.748   8.924   7.259
 3575SOL    HW112622   3.768   9.013   7.227
 3575SOL    HW212623   3.763   8.929   7.354
 3576SOL     OW12624   5.298   4.970   5.131
 3576SOL    HW112625   5.299   4.924   5.047
 3576SOL    HW212626   5.211   5.009   5.136
 3577SOL     OW12627   0.373  12.997  11.992
 3577SOL    HW112628   0.389  13.090  12.006
 3577SOL    HW212629   0.451  12.965  11.946
 3578SOL     OW12630  10.135   6.345  12.249
 3578SOL    HW112631  10.106   6.254  12.237
 3578SOL    HW212632  10.224   6.346  12.214
 3579SOL     OW12633   0.464   3.696   4.813
 3579SOL    HW112634   0.527   3.661   4.751
 3579SOL    HW212635   0.408   3.753   4.760
 3580SOL     OW12636   5.995   3.898   2.500
 3580SOL    HW112637   6.061   3.930   2.438
 3580SOL    HW212638   5.921   3.958   2.489
 3581SOL     OW12639   5.267   4.592   6.972
 3581SOL    HW112640   5.241   4.566   6.883
 3581SOL    HW212641   5.315   4.517   7.006
 3582SOL     OW12642  10.894   4.917   6.322
 3582SOL    HW112643  10.867   4.983   6.258
 3582SOL    HW212644  10.953   4.963   6.381
 3583SOL     OW12645   0.285  10.747   9.067
 3583SOL    HW112646   0.324  10.735   9.154
 3583SOL    HW212647   0.200  10.703   9.072
 3584SOL     OW12648   4.094   2.305  10.775
 3584SOL    HW112649   4.047   2.229  10.739
 3584SOL    HW212650   4.041   2.332  10.850
 3585SOL     OW12651   8.392  12.506   3.126
 3585SOL    HW112652   8.377  12.529   3.218
 3585SOL    HW212653   8.305  12.494   3.089
 3586SOL     OW12654  13.965  14.389   5.434
 3586SOL    HW112655  13.929  14.355   5.352
 3586SOL    HW212656  13.961  14.484   5.424
 3587SOL     OW12657   0.303   6.422  11.383
 3587SOL    HW112658   0.344   6.449  11.301
 3587SOL    HW212659   0.359   6.460  11.452
 3588SOL     OW12660   9.933   9.413   0.616
 3588SOL    HW112661   9.970   9.464   0.688
 3588SOL    HW212662   9.981   9.330   0.618
 3589SOL     OW12663   3.484   5.271  12.805
 3589SOL    HW112664   3.489   5.365  12.788
 3589SOL    HW212665   3.562   5.235  12.764
 3590SOL     OW12666  12.920   7.654  14.654
 3590SOL    HW112667  12.832   7.623  14.633
 3590SOL    HW212668  12.919   7.666  14.749
 3591SOL     OW12669  13.834   7.492  11.273
 3591SOL    HW112670  13.918   7.453  11.296
 3591SOL    HW212671  13.803   7.440  11.199
 3592SOL     OW12672   5.462   9.112  13.646
 3592SOL    HW112673   5.394   9.099  13.713
 3592SOL    HW212674   5.434   9.057  13.573
 3593SOL     OW12675  10.055   5.050   6.489
 3593SOL    HW112676  10.094   5.058   6.576
 3593SOL    HW212677  10.119   5.000   6.439
 3594SOL     OW12678  13.175   9.002   6.628
 3594SOL    HW112679  13.164   9.075   6.567
 3594SOL    HW212680  13.262   9.016   6.666
 3595SOL     OW12681   7.961   0.740   9.958
 3595SOL    HW112682   7.938   0.825   9.996
 3595SOL    HW212683   8.049   0.722   9.991
 3596SOL     OW12684  10.809   9.954   6.235
 3596SOL    HW112685  10.846   9.914   6.156
 3596SOL    HW212686  10.870   9.929   6.305
 3597SOL     OW12687   9.041   6.044   8.299
 3597SOL    HW112688   9.032   6.027   8.205
 3597SOL    HW212689   9.071   5.960   8.336
 3598SOL     OW12690   5.083   5.054   8.953
 3598SOL    HW112691   5.174   5.078   8.934
 3598SOL    HW212692   5.055   5.117   9.019
 3599SOL     OW12693   1.939  11.605   1.354
 3599SOL    HW112694   1.893  11.637   1.432
 3599SOL    HW212695   1.928  11.675   1.290
 3600SOL     OW12696   8.460  13.591  14.498
 3600SOL    HW112697   8.430  13.681  14.495
 3600SOL    HW212698   8.533  13.588  14.436
 3601SOL     OW12699   7.738   4.230   8.325
 3601SOL    HW112700   7.708   4.139   8.322
 3601SOL    HW212701   7.822   4.226   8.370
 3602SOL     OW12702  12.558  13.258  13.024
 3602SOL    HW112703  12.510  13.179  13.047
 3602SOL    HW212704  12.500  13.330  13.048
 3603SOL     OW12705  13.396   8.259   8.065
 3603SOL    HW112706  13.387   8.354   8.073
 3603SOL    HW212707  13.371   8.240   7.974
 3604SOL     OW12708   4.284   5.319   7.513
 3604SOL    HW112709   4.300   5.381   7.443
 3604SOL    HW212710   4.311   5.234   7.477
 3605SOL     OW12711   7.480   6.995   2.933
 3605SOL    HW112712   7.468   7.011   3.026
 3605SOL    HW212713   7.396   6.961   2.903
 3606SOL     OW12714  13.373   4.260   6.421
 3606SOL    HW112715  13.454   4.310   6.437
 3606SOL    HW212716  13.395   4.171   6.447
 3607SOL     OW12717  13.862   7.337   5.065
 3607SOL    HW112718  13.848   7.331   4.971
 3607SOL    HW212719  13.859   7.431   5.084
 3608SOL     OW12720   4.881   6.268   9.945
 3608SOL    HW112721   4.827   6.321  10.004
 3608SOL    HW212722   4.971   6.294   9.966
 3609SOL     OW12723   3.193   3.481   7.936
 3609SOL    HW112724   3.115   3.496   7.883
 3609SOL    HW212725   3.181   3.392   7.971
 3610SOL     OW12726   5.381  11.558   6.159
 3610SOL    HW112727   5.364  11.545   6.066
 3610SOL    HW212728   5.408  11.650   6.166
 3611SOL     OW12729  12.880  14.000   3.451
 3611SOL    HW112730  12.917  13.915   3.427
 3611SOL    HW212731  12.911  14.015   3.540
 3612SOL     OW12732   9.116   1.521  14.831
 3612SOL    HW112733   9.032   1.561  14.854
 3612SOL    HW212734   9.098   1.427  14.833
 3613SOL     OW12735  13.102  12.311   4.121
 3613SOL    HW112736  13.098  12.373   4.048
 3613SOL    HW212737  13.111  12.226   4.079
 3614SOL     OW12738   3.163  13.818  14.800
 3614SOL    HW112739   3.127  13.732  14.821
 3614SOL    HW212740   3.099  13.880  14.836
 3615SOL     OW12741  11.494   9.966  10.459
 3615SOL    HW112742  11.469   9.900  10.394
 3615SOL    HW212743  11.589   9.965  10.459
 3616SOL     OW12744   6.821  11.993   4.268
 3616SOL    HW112745   6.869  12.048   4.206
 3616SOL    HW212746   6.877  11.917   4.281
 3617SOL     OW12747   0.725  10.622   7.466
 3617SOL    HW112748   0.716  10.552   7.531
 3617SOL    HW212749   0.814  10.654   7.477
 3618SOL     OW12750   1.865   6.157  12.425
 3618SOL    HW112751   1.909   6.074  12.406
 3618SOL    HW212752   1.918   6.224  12.381
 3619SOL     OW12753  10.176   6.215   6.457
 3619SOL    HW112754  10.182   6.249   6.547
 3619SOL    HW212755  10.259   6.240   6.418
 3620SOL     OW12756   8.095   0.120   7.559
 3620SOL    HW112757   8.018   0.121   7.615
 3620SOL    HW212758   8.075   0.056   7.491
 3621SOL     OW12759   0.698   3.179   4.405
 3621SOL    HW112760   0.698   3.275   4.407
 3621SOL    HW212761   0.646   3.154   4.482
 3622SOL     OW12762   4.017  12.892   1.015
 3622SOL    HW112763   3.992  12.880   0.924
 3622SOL    HW212764   3.939  12.931   1.056
 3623SOL     OW12765   8.552   9.978   6.822
 3623SOL    HW112766   8.596  10.058   6.850
 3623SOL    HW212767   8.477  10.008   6.770
 3624SOL     OW12768   5.779  13.733   8.189
 3624SOL    HW112769   5.774  13.707   8.281
 3624SOL    HW212770   5.792  13.651   8.142
 3625SOL     OW12771   7.203   2.506   7.665
 3625SOL    HW112772   7.158   2.554   7.596
 3625SOL    HW212773   7.136   2.489   7.731
 3626SOL     OW12774   2.384   9.615   6.919
 3626SOL    HW112775   2.296   9.584   6.894
 3626SOL    HW212776   2.368   9.690   6.976
 3627SOL     OW12777  12.365  13.940   6.582
 3627SOL    HW112778  12.281  13.905   6.611
 3627SOL    HW212779  12.430  13.883   6.623
 3628SOL     OW12780   8.831   5.454  14.537
 3628SOL    HW112781   8.909   5.480  14.586
 3628SOL    HW212782   8.796   5.536  14.502
 3629SOL     OW12783   4.130  10.353   9.978
 3629SOL    HW112784   4.197  10.383  10.039
 3629SOL    HW212785   4.086  10.281  10.024
 3630SOL     OW12786  13.136  11.751  11.716
 3630SOL    HW112787  13.224  11.717  11.730
 3630SOL    HW212788  13.105  11.775  11.803
 3631SOL     OW12789   5.190   2.400   3.535
 3631SOL    HW112790   5.168   2.391   3.628
 3631SOL    HW212791   5.268   2.455   3.534
 3632SOL     OW12792  11.750   3.571   8.841
 3632SOL    HW112793  11.703   3.560   8.758
 3632SOL    HW212794  11.797   3.488   8.853
 3633SOL     OW12795   2.782   8.700   3.691
 3633SOL    HW112796   2.859   8.716   3.746
 3633SOL    HW212797   2.734   8.782   3.692
 3634SOL     OW12798   2.336   7.445   9.681
 3634SOL    HW112799   2.403   7.509   9.658
 3634SOL    HW212800   2.256   7.480   9.642
 3635SOL     OW12801   6.951   9.614   6.372
 3635SOL    HW112802   6.922   9.634   6.461
 3635SOL    HW212803   6.963   9.699   6.330
 3636SOL     OW12804   8.011   9.626   9.859
 3636SOL    HW112805   7.921   9.657   9.849
 3636SOL    HW212806   8.047   9.629   9.770
 3637SOL     OW12807   7.297   3.751   4.307
 3637SOL    HW112808   7.258   3.711   4.230
 3637SOL    HW212809   7.284   3.687   4.377
 3638SOL     OW12810   1.789   3.233   8.586
 3638SOL    HW112811   1.831   3.147   8.588
 3638SOL    HW212812   1.845   3.289   8.639
 3639SOL     OW12813   1.384   0.152  10.711
 3639SOL    HW112814   1.292   0.168  10.728
 3639SOL    HW212815   1.398   0.061  10.738
 3640SOL     OW12816   3.991   0.173  12.923
 3640SOL    HW112817   4.009   0.122  12.845
 3640SOL    HW212818   4.065   0.233  12.930
 3641SOL     OW12819  13.984   8.402   2.597
 3641SOL    HW112820  13.969   8.308   2.583
 3641SOL    HW212821  13.934   8.445   2.527
 3642SOL     OW12822   4.468  10.339   9.663
 3642SOL    HW112823   4.491  10.296   9.580
 3642SOL    HW212824   4.373  10.328   9.669
 3643SOL     OW12825   2.163   7.148   3.689
 3643SOL    HW112826   2.174   7.156   3.784
 3643SOL    HW212827   2.209   7.225   3.654
 3644SOL     OW12828  11.228  13.614  13.259
 3644SOL    HW112829  11.292  13.572  13.201
 3644SOL    HW212830  11.178  13.541  13.296
 3645SOL     OW12831   4.354   3.641  12.378
 3645SOL    HW112832   4.401   3.580  12.436
 3645SOL    HW212833   4.372   3.727  12.415
 3646SOL     OW12834  10.418   4.523   5.092
 3646SOL    HW112835  10.452   4.586   5.028
 3646SOL    HW212836  10.396   4.576   5.168
 3647SOL     OW12837  11.246   4.368   9.592
 3647SOL    HW112838  11.164   4.335   9.630
 3647SOL    HW212839  11.281   4.426   9.660
 3648SOL     OW12840   2.944   4.861   5.753
 3648SOL    HW112841   2.961   4.879   5.846
 3648SOL    HW212842   3.029   4.833   5.718
 3649SOL     OW12843  14.318   2.231  11.390
 3649SOL    HW112844  14.285   2.182  11.315
 3649SOL    HW212845  14.285   2.320  11.378
 3650SOL     OW12846   3.235   4.520   5.680
 3650SOL    HW112847   3.316   4.491   5.638
 3650SOL    HW212848   3.227   4.464   5.758
 3651SOL     OW12849  12.421  13.466  12.721
 3651SOL    HW112850  12.462  13.542  12.679
 3651SOL    HW212851  12.336  13.498  12.750
 3652SOL     OW12852   7.626   0.333   9.380
 3652SOL    HW112853   7.653   0.406   9.324
 3652SOL    HW212854   7.639   0.255   9.326
 3653SOL     OW12855   4.799  13.967   2.317
 3653SOL    HW112856   4.754  14.051   2.317
 3653SOL    HW212857   4.874  13.979   2.260
 3654SOL     OW12858   3.981  11.104   7.390
 3654SOL    HW112859   4.000  11.154   7.469
 3654SOL    HW212860   3.900  11.143   7.356
 3655SOL     OW12861   2.689  14.647  14.309
 3655SOL    HW112862   2.738  14.714  14.358
 3655SOL    HW212863   2.650  14.593  14.377
 3656SOL     OW12864  12.409  12.259   4.620
 3656SOL    HW112865  12.322  12.254   4.658
 3656SOL    HW212866  12.397  12.229   4.530
 3657SOL     OW12867   9.136  12.641   5.898
 3657SOL    HW112868   9.114  12.557   5.857
 3657SOL    HW212869   9.082  12.705   5.852
 3658SOL     OW12870  13.192   2.818  10.865
 3658SOL    HW112871  13.172   2.742  10.920
 3658SOL    HW212872  13.267   2.859  10.908
 3659SOL     OW12873  10.681  12.755   4.476
 3659SOL    HW112874  10.620  12.817   4.436
 3659SOL    HW212875  10.752  12.809   4.509
 3660SOL     OW12876  14.461  10.689  10.442
 3660SOL    HW112877  14.556  10.697  10.433
 3660SOL    HW212878  14.449  10.614  10.501
 3661SOL     OW12879   9.274   5.425   2.555
 3661SOL    HW112880   9.215   5.478   2.609
 3661SOL    HW212881   9.341   5.394   2.615
 3662SOL     OW12882   0.065   4.158   5.751
 3662SOL    HW112883  14.854   4.111   5.742
 3662SOL    HW212884   0.125   4.094   5.789
 3663SOL     OW12885   3.495   4.642  12.109
 3663SOL    HW112886   3.535   4.561  12.078
 3663SOL    HW212887   3.517   4.707  12.042
 3664SOL     OW12888  10.147   1.893   6.016
 3664SOL    HW112889  10.226   1.916   5.967
 3664SOL    HW212890  10.172   1.817   6.068
 3665SOL     OW12891   6.959   1.116   2.560
 3665SOL    HW112892   6.974   1.025   2.586
 3665SOL    HW212893   7.020   1.167   2.613
 3666SOL     OW12894   5.509  10.220  13.661
 3666SOL    HW112895   5.465  10.140  13.689
 3666SOL    HW212896   5.561  10.193  13.584
 3667SOL     OW12897   5.376   7.111   4.823
 3667SOL    HW112898   5.345   7.050   4.890
 3667SOL    HW212899   5.360   7.065   4.740
 3668SOL     OW12900  11.451  11.092  14.823
 3668SOL    HW112901  11.407  11.105  14.739
 3668SOL    HW212902  11.531  11.144  14.816
 3669SOL     OW12903   2.104   7.027   9.755
 3669SOL    HW112904   2.032   6.964   9.744
 3669SOL    HW212905   2.183   6.976   9.740
 3670SOL     OW12906   6.041   2.953  13.255
 3670SOL    HW112907   5.988   2.981  13.181
 3670SOL    HW212908   5.980   2.954  13.329
 3671SOL     OW12909   5.592   7.048   3.491
 3671SOL    HW112910   5.563   7.011   3.574
 3671SOL    HW212911   5.520   7.028   3.430
 3672SOL     OW12912   2.259   3.694   4.523
 3672SOL    HW112913   2.169   3.718   4.545
 3672SOL    HW212914   2.311   3.725   4.598
 3673SOL     OW12915  12.965  11.822   8.904
 3673SOL    HW112916  12.999  11.843   8.991
 3673SOL    HW212917  12.953  11.727   8.906
 3674SOL     OW12918   5.996   3.623   4.548
 3674SOL    HW112919   5.968   3.606   4.458
 3674SOL    HW212920   6.065   3.689   4.540
 3675SOL     OW12921   8.473   8.613   9.462
 3675SOL    HW112922   8.504   8.613   9.371
 3675SOL    HW212923   8.518   8.688   9.502
 3676SOL     OW12924  13.449   7.107  11.513
 3676SOL    HW112925  13.382   7.164  11.475
 3676SOL    HW212926  13.429   7.106  11.606
 3677SOL     OW12927  10.398   1.729  11.679
 3677SOL    HW112928  10.455   1.805  11.667
 3677SOL    HW212929  10.309   1.765  11.681
 3678SOL     OW12930  13.114   5.730   5.125
 3678SOL    HW112931  13.075   5.785   5.193
 3678SOL    HW212932  13.203   5.763   5.116
 3679SOL     OW12933   0.202  10.618  14.317
 3679SOL    HW112934   0.128  10.661  14.275
 3679SOL    HW212935   0.199  10.528  14.285
 3680SOL     OW12936   7.033  13.593  10.313
 3680SOL    HW112937   7.067  13.521  10.259
 3680SOL    HW212938   6.943  13.567  10.333
 3681SOL     OW12939   0.398   7.511  10.639
 3681SOL    HW112940   0.485   7.552  10.647
 3681SOL    HW212941   0.347   7.549  10.711
 3682SOL     OW12942   6.512   7.097   0.412
 3682SOL    HW112943   6.559   7.047   0.479
 3682SOL    HW212944   6.571   7.169   0.391
 3683SOL     OW12945   4.194  10.179   5.674
 3683SOL    HW112946   4.218  10.103   5.620
 3683SOL    HW212947   4.268  10.190   5.733
 3684SOL     OW12948   8.128  14.242   5.148
 3684SOL    HW112949   8.119  14.155   5.187
 3684SOL    HW212950   8.163  14.225   5.061
 3685SOL     OW12951  10.337   5.747   2.317
 3685SOL    HW112952  10.270   5.698   2.365
 3685SOL    HW212953  10.360   5.819   2.376
 3686SOL     OW12954   6.206   3.118  13.634
 3686SOL    HW112955   6.167   3.205  13.624
 3686SOL    HW212956   6.133   3.058  13.622
 3687SOL     OW12957   8.468   9.944   1.763
 3687SOL    HW112958   8.405   9.982   1.701
 3687SOL    HW212959   8.542   9.918   1.709
 3688SOL     OW12960   6.738   8.226  11.357
 3688SOL    HW112961   6.780   8.299  11.402
 3688SOL    HW212962   6.764   8.235  11.266
 3689SOL     OW12963  10.911  11.638   6.371
 3689SOL    HW112964  10.820  11.663   6.386
 3689SOL    HW212965  10.926  11.567   6.434
 3690SOL     OW12966  13.694   8.519   1.293
 3690SOL    HW112967  13.720   8.431   1.321
 3690SOL    HW212968  13.777   8.563   1.274
 3691SOL     OW12969   5.991  13.144   1.322
 3691SOL    HW112970   5.964  13.068   1.271
 3691SOL    HW212971   6.083  13.128   1.342
 3692SOL     OW12972   0.688  12.904   4.958
 3692SOL    HW112973   0.628  12.960   5.008
 3692SOL    HW212974   0.644  12.891   4.874
 3693SOL     OW12975   7.652   6.027   8.205
 3693SOL    HW112976   7.741   6.015   8.173
 3693SOL    HW212977   7.657   6.105   8.260
 3694SOL     OW12978   2.847   4.873   7.660
 3694SOL    HW112979   2.933   4.856   7.622
 3694SOL    HW212980   2.857   4.852   7.753
 3695SOL     OW12981   5.405   0.264   6.292
 3695SOL    HW112982   5.389   0.356   6.274
 3695SOL    HW212983   5.494   0.248   6.259
 3696SOL     OW12984  10.594   0.319   0.342
 3696SOL    HW112985  10.645   0.393   0.309
 3696SOL    HW212986  10.506   0.355   0.354
 3697SOL     OW12987   5.657   8.134  13.186
 3697SOL    HW112988   5.605   8.054  13.192
 3697SOL    HW212989   5.697   8.143  13.273
 3698SOL     OW12990   4.391   2.169  14.524
 3698SOL    HW112991   4.442   2.172  14.443
 3698SOL    HW212992   4.316   2.113  14.503
 3699SOL     OW12993   2.427  12.050   1.309
 3699SOL    HW112994   2.460  12.139   1.293
 3699SOL    HW212995   2.372  12.030   1.234
 3700SOL     OW12996   4.424   3.297   0.496
 3700SOL    HW112997   4.414   3.211   0.537
 3700SOL    HW212998   4.390   3.359   0.561
 3701SOL     OW12999  14.100   4.333   7.025
 3701SOL    HW113000  14.028   4.374   6.976
 3701SOL    HW213001  14.108   4.387   7.103
 3702SOL     OW13002   1.631   7.060   0.211
 3702SOL    HW113003   1.660   7.144   0.176
 3702SOL    HW213004   1.573   7.082   0.284
 3703SOL     OW13005  12.743  10.528   2.409
 3703SOL    HW113006  12.686  10.572   2.346
 3703SOL    HW213007  12.789  10.462   2.358
 3704SOL     OW13008   5.569   5.652   8.860
 3704SOL    HW113009   5.548   5.709   8.934
 3704SOL    HW213010   5.598   5.712   8.791
 3705SOL     OW13011   2.157   0.811   7.512
 3705SOL    HW113012   2.245   0.785   7.541
 3705SOL    HW213013   2.112   0.728   7.498
 3706SOL     OW13014   0.610  11.436  11.778
 3706SOL    HW113015   0.579  11.524  11.802
 3706SOL    HW213016   0.668  11.451  11.703
 3707SOL     OW13017   3.284   8.768   1.626
 3707SOL    HW113018   3.369   8.764   1.671
 3707SOL    HW213019   3.307   8.792   1.536
 3708SOL     OW13020   5.835  12.226  13.493
 3708SOL    HW113021   5.748  12.256  13.518
 3708SOL    HW213022   5.869  12.182  13.570
 3709SOL     OW13023  12.640   5.368  14.339
 3709SOL    HW113024  12.698   5.420  14.395
 3709SOL    HW213025  12.552   5.399  14.361
 3710SOL     OW13026   6.355   0.102  11.701
 3710SOL    HW113027   6.280   0.081  11.645
 3710SOL    HW213028   6.380   0.191  11.675
 3711SOL     OW13029  10.252   2.147   8.213
 3711SOL    HW113030  10.294   2.170   8.130
 3711SOL    HW213031  10.186   2.215   8.227
 3712SOL     OW13032  12.599   5.408  10.334
 3712SOL    HW113033  12.559   5.452  10.409
 3712SOL    HW213034  12.557   5.447  10.257
 3713SOL     OW13035  11.002   0.505   1.027
 3713SOL    HW113036  11.092   0.521   1.001
 3713SOL    HW213037  11.003   0.506   1.122
 3714SOL     OW13038  10.605   8.134   9.038
 3714SOL    HW113039  10.634   8.073   9.106
 3714SOL    HW213040  10.553   8.199   9.086
 3715SOL     OW13041   4.076   2.541  10.101
 3715SOL    HW113042   4.153   2.509  10.146
 3715SOL    HW213043   4.035   2.463  10.064
 3716SOL     OW13044   1.380  12.107   1.704
 3716SOL    HW113045   1.313  12.134   1.642
 3716SOL    HW213046   1.444  12.178   1.702
 3717SOL     OW13047   2.479   4.343   1.187
 3717SOL    HW113048   2.494   4.412   1.251
 3717SOL    HW213049   2.387   4.318   1.199
 3718SOL     OW13050  11.104  13.924   5.537
 3718SOL    HW113051  11.195  13.935   5.564
 3718SOL    HW213052  11.109  13.902   5.444
 3719SOL     OW13053   8.211   1.611   7.114
 3719SOL    HW113054   8.182   1.561   7.191
 3719SOL    HW213055   8.299   1.642   7.138
 3720SOL     OW13056   4.800   0.360   5.374
 3720SOL    HW113057   4.770   0.282   5.328
 3720SOL    HW213058   4.825   0.329   5.461
 3721SOL     OW13059   6.876   0.893  10.089
 3721SOL    HW113060   6.910   0.978  10.120
 3721SOL    HW213061   6.840   0.852  10.167
 3722SOL     OW13062   1.338   8.530   6.172
 3722SOL    HW113063   1.407   8.545   6.107
 3722SOL    HW213064   1.371   8.569   6.252
 3723SOL     OW13065  13.126   9.645   0.815
 3723SOL    HW113066  13.186   9.578   0.846
 3723SOL    HW213067  13.079   9.673   0.893
 3724SOL     OW13068   1.447   0.186  10.435
 3724SOL    HW113069   1.474   0.278  10.435
 3724SOL    HW213070   1.400   0.174  10.518
 3725SOL     OW13071   5.667   5.747   7.461
 3725SOL    HW113072   5.642   5.706   7.378
 3725SOL    HW213073   5.757   5.777   7.448
 3726SOL     OW13074   7.048  11.292   5.289
 3726SOL    HW113075   7.038  11.388   5.288
 3726SOL    HW213076   6.958  11.259   5.291
 3727SOL     OW13077   7.910   0.985  14.228
 3727SOL    HW113078   7.983   0.932  14.197
 3727SOL    HW213079   7.844   0.922  14.256
 3728SOL     OW13080   1.077   8.834   6.808
 3728SOL    HW113081   1.037   8.778   6.741
 3728SOL    HW213082   1.057   8.789   6.891
 3729SOL     OW13083  11.823  13.551  13.583
 3729SOL    HW113084  11.870  13.635  13.580
 3729SOL    HW213085  11.771  13.556  13.663
 3730SOL     OW13086   6.804  10.499  14.582
 3730SOL    HW113087   6.769  10.419  14.622
 3730SOL    HW213088   6.806  10.480  14.488
 3731SOL     OW13089   2.014   5.765   1.688
 3731SOL    HW113090   2.033   5.679   1.724
 3731SOL    HW213091   2.100   5.802   1.667
 3732SOL     OW13092  14.494   0.251   1.011
 3732SOL    HW113093  14.405   0.284   1.023
 3732SOL    HW213094  14.536   0.261   1.096
 3733SOL     OW13095   2.159  10.939   1.537
 3733SOL    HW113096   2.138  10.970   1.449
 3733SOL    HW213097   2.120  11.003   1.596
 3734SOL     OW13098   4.483   4.601   9.697
 3734SOL    HW113099   4.551   4.535   9.686
 3734SOL    HW213100   4.447   4.613   9.609
 3735SOL     OW13101  14.676  12.950   8.846
 3735SOL    HW113102  14.655  13.043   8.848
 3735SOL    HW213103  14.648  12.917   8.931
 3736SOL     OW13104   3.438   1.458   4.558
 3736SOL    HW113105   3.352   1.417   4.546
 3736SOL    HW213106   3.492   1.389   4.597
 3737SOL     OW13107   7.574   2.859   4.452
 3737SOL    HW113108   7.519   2.781   4.445
 3737SOL    HW213109   7.663   2.825   4.466
 3738SOL     OW13110   0.718   0.989  10.795
 3738SOL    HW113111   0.743   1.073  10.757
 3738SOL    HW213112   0.672   1.012  10.875
 3739SOL     OW13113   1.992  14.008   9.313
 3739SOL    HW113114   1.969  13.917   9.330
 3739SOL    HW213115   1.950  14.057   9.384
 3740SOL     OW13116   9.991   9.627   3.067
 3740SOL    HW113117   9.974   9.540   3.103
 3740SOL    HW213118   9.904   9.663   3.050
 3741SOL     OW13119  14.827   8.151   4.287
 3741SOL    HW113120  14.805   8.062   4.259
 3741SOL    HW213121  14.819   8.204   4.208
 3742SOL     OW13122   9.618   6.828   9.930
 3742SOL    HW113123   9.528   6.805   9.907
 3742SOL    HW213124   9.611   6.869  10.016
 3743SOL     OW13125   3.801   9.091  12.396
 3743SOL    HW113126   3.876   9.054  12.349
 3743SOL    HW213127   3.840   9.155  12.455
 3744SOL     OW13128   4.197   4.771  11.419
 3744SOL    HW113129   4.210   4.732  11.505
 3744SOL    HW213130   4.104   4.757  11.399
 3745SOL     OW13131   6.226   8.010  11.662
 3745SOL    HW113132   6.312   8.014  11.704
 3745SOL    HW213133   6.222   7.921  11.625
 3746SOL     OW13134   2.497   4.520   4.342
 3746SOL    HW113135   2.575   4.527   4.397
 3746SOL    HW213136   2.502   4.432   4.304
 3747SOL     OW13137   3.906   0.667  14.045
 3747SOL    HW113138   3.896   0.685  14.138
 3747SOL    HW213139   3.855   0.737  14.002
 3748SOL     OW13140   6.641  13.062  14.401
 3748SOL    HW113141   6.609  13.131  14.459
 3748SOL    HW213142   6.637  13.101  14.313
 3749SOL     OW13143   0.487  14.797   1.279
 3749SOL    HW113144   0.456   0.001   1.330
 3749SOL    HW213145   0.433  14.799   1.200
 3750SOL     OW13146  13.572  13.291  14.239
 3750SOL    HW113147  13.542  13.374  14.276
 3750SOL    HW213148  13.493  13.239  14.228
 3751SOL     OW13149   9.677   3.119   1.474
 3751SOL    HW113150   9.665   3.155   1.386
 3751SOL    HW213151   9.758   3.160   1.505
 3752SOL     OW13152  11.989   4.788   0.400
 3752SOL    HW113153  11.988   4.699   0.363
 3752SOL    HW213154  12.007   4.845   0.325
 3753SOL     OW13155   6.317   3.235   8.299
 3753SOL    HW113156   6.358   3.236   8.212
 3753SOL    HW213157   6.290   3.326   8.313
 3754SOL     OW13158   2.163   6.173   4.958
 3754SOL    HW113159   2.112   6.254   4.956
 3754SOL    HW213160   2.098   6.104   4.972
 3755SOL     OW13161   7.504  13.565  13.928
 3755SOL    HW113162   7.416  13.579  13.892
 3755SOL    HW213163   7.553  13.526  13.855
 3756SOL     OW13164  12.343  14.588   1.256
 3756SOL    HW113165  12.317  14.660   1.313
 3756SOL    HW213166  12.310  14.510   1.300
 3757SOL     OW13167  11.907   4.091  12.958
 3757SOL    HW113168  11.890   4.009  12.911
 3757SOL    HW213169  11.990   4.076  13.003
 3758SOL     OW13170  10.812   3.737   8.106
 3758SOL    HW113171  10.833   3.810   8.164
 3758SOL    HW213172  10.720   3.751   8.082
 3759SOL     OW13173   5.075   3.935   7.642
 3759SOL    HW113174   5.047   3.875   7.711
 3759SOL    HW213175   5.149   3.982   7.679
 3760SOL     OW13176   2.472  12.259   7.415
 3760SOL    HW113177   2.527  12.186   7.385
 3760SOL    HW213178   2.393  12.217   7.449
 3761SOL     OW13179  11.646   6.640   4.628
 3761SOL    HW113180  11.629   6.617   4.536
 3761SOL    HW213181  11.741   6.652   4.632
 3762SOL     OW13182  13.652   1.634   1.091
 3762SOL    HW113183  13.624   1.674   1.009
 3762SOL    HW213184  13.733   1.588   1.069
 3763SOL     OW13185  10.859   5.021  14.055
 3763SOL    HW113186  10.806   4.942  14.059
 3763SOL    HW213187  10.919   5.007  13.982
 3764SOL     OW13188   8.189   9.159  12.115
 3764SOL    HW113189   8.110   9.202  12.083
 3764SOL    HW213190   8.208   9.091  12.051
 3765SOL     OW13191  14.409  10.085   7.951
 3765SOL    HW113192  14.449  10.156   7.901
 3765SOL    HW213193  14.314  10.100   7.941
 3766SOL     OW13194   0.117   4.019   2.021
 3766SOL    HW113195   0.084   4.101   2.059
 3766SOL    HW213196   0.168   3.979   2.091
 3767SOL     OW13197   1.721  14.698  11.558
 3767SOL    HW113198   1.747  14.784  11.525
 3767SOL    HW213199   1.626  14.704  11.568
 3768SOL     OW13200  11.401   5.949   6.097
 3768SOL    HW113201  11.448   5.877   6.140
 3768SOL    HW213202  11.426   6.027   6.147
 3769SOL     OW13203   7.106   7.974   0.619
 3769SOL    HW113204   7.165   7.981   0.694
 3769SOL    HW213205   7.027   8.021   0.648
 3770SOL     OW13206   3.943   9.419  13.371
 3770SOL    HW113207   3.926   9.357  13.441
 3770SOL    HW213208   3.957   9.503  13.415
 3771SOL     OW13209  13.641   4.132  12.959
 3771SOL    HW113210  13.628   4.062  13.022
 3771SOL    HW213211  13.561   4.184  12.963
 3772SOL     OW13212   7.906   5.511  14.511
 3772SOL    HW113213   7.871   5.494  14.598
 3772SOL    HW213214   7.962   5.588  14.522
 3773SOL     OW13215   5.835   2.501   0.412
 3773SOL    HW113216   5.813   2.530   0.501
 3773SOL    HW213217   5.766   2.438   0.390
 3774SOL     OW13218   4.651   5.392   2.632
 3774SOL    HW113219   4.729   5.362   2.679
 3774SOL    HW213220   4.578   5.371   2.690
 3775SOL     OW13221   2.362   1.348  13.573
 3775SOL    HW113222   2.353   1.438  13.603
 3775SOL    HW213223   2.351   1.353  13.478
 3776SOL     OW13224   7.366   1.122   3.422
 3776SOL    HW113225   7.305   1.171   3.368
 3776SOL    HW213226   7.412   1.065   3.360
 3777SOL     OW13227  10.294   5.427  12.188
 3777SOL    HW113228  10.385   5.413  12.164
 3777SOL    HW213229  10.263   5.341  12.218
 3778SOL     OW13230   3.217  13.352   2.156
 3778SOL    HW113231   3.300  13.387   2.185
 3778SOL    HW213232   3.174  13.322   2.236
 3779SOL     OW13233   7.430   2.194   8.831
 3779SOL    HW113234   7.504   2.250   8.855
 3779SOL    HW213235   7.381   2.245   8.766
 3780SOL     OW13236   2.775   8.538   0.808
 3780SOL    HW113237   2.855   8.487   0.793
 3780SOL    HW213238   2.798   8.627   0.781
 3781SOL     OW13239   3.486  10.493   1.224
 3781SOL    HW113240   3.461  10.475   1.134
 3781SOL    HW213241   3.453  10.418   1.274
 3782SOL     OW13242   5.738   3.843   4.408
 3782SOL    HW113243   5.653   3.799   4.414
 3782SOL    HW213244   5.756   3.872   4.497
 3783SOL     OW13245  13.400   4.482   5.530
 3783SOL    HW113246  13.444   4.463   5.447
 3783SOL    HW213247  13.460   4.540   5.577
 3784SOL     OW13248   8.444   4.668   2.445
 3784SOL    HW113249   8.361   4.716   2.445
 3784SOL    HW213250   8.421   4.579   2.420
 3785SOL     OW13251   1.113  13.354   6.527
 3785SOL    HW113252   1.025  13.346   6.491
 3785SOL    HW213253   1.167  13.300   6.469
 3786SOL     OW13254  12.795   7.985  11.715
 3786SOL    HW113255  12.702   7.964  11.701
 3786SOL    HW213256  12.841   7.938  11.645
 3787SOL     OW13257  12.625   0.217   1.525
 3787SOL    HW113258  12.671   0.142   1.487
 3787SOL    HW213259  12.656   0.222   1.615
 3788SOL     OW13260   5.823   2.756  13.015
 3788SOL    HW113261   5.743   2.709  13.039
 3788SOL    HW213262   5.838   2.732  12.924
 3789SOL     OW13263  12.982   0.038   4.385
 3789SOL    HW113264  13.054   0.098   4.404
 3789SOL    HW213265  12.955   0.058   4.296
 3790SOL     OW13266   3.169   6.770  12.409
 3790SOL    HW113267   3.146   6.837  12.345
 3790SOL    HW213268   3.166   6.814  12.493
 3791SOL     OW13269  13.350   7.481   8.190
 3791SOL    HW113270  13.433   7.434   8.183
 3791SOL    HW213271  13.292   7.437   8.127
 3792SOL     OW13272   5.449   0.947   7.075
 3792SOL    HW113273   5.491   0.950   6.989
 3792SOL    HW213274   5.355   0.954   7.056
 3793SOL     OW13275   3.603   1.892   1.064
 3793SOL    HW113276   3.553   1.837   1.004
 3793SOL    HW213277   3.611   1.976   1.018
 3794SOL     OW13278  10.990  11.209   1.935
 3794SOL    HW113279  10.895  11.216   1.944
 3794SOL    HW213280  11.002  11.146   1.864
 3795SOL     OW13281   4.228  12.759   0.357
 3795SOL    HW113282   4.176  12.750   0.277
 3795SOL    HW213283   4.317  12.736   0.330
 3796SOL     OW13284   0.211  12.476   6.777
 3796SOL    HW113285   0.293  12.464   6.729
 3796SOL    HW213286   0.209  12.403   6.838
 3797SOL     OW13287   0.529   3.228   8.693
 3797SOL    HW113288   0.617   3.192   8.690
 3797SOL    HW213289   0.519   3.274   8.610
 3798SOL     OW13290   6.957  13.764   1.142
 3798SOL    HW113291   6.955  13.695   1.208
 3798SOL    HW213292   7.011  13.728   1.071
 3799SOL     OW13293   1.553   4.094  14.388
 3799SOL    HW113294   1.639   4.086  14.431
 3799SOL    HW213295   1.570   4.066  14.298
 3800SOL     OW13296   1.087   0.282  13.094
 3800SOL    HW113297   1.174   0.316  13.073
 3800SOL    HW213298   1.100   0.229  13.173
 3801SOL     OW13299  12.446  13.617  13.878
 3801SOL    HW113300  12.371  13.663  13.841
 3801SOL    HW213301  12.420  13.597  13.968
 3802SOL     OW13302  11.318   0.299   1.731
 3802SOL    HW113303  11.387   0.345   1.779
 3802SOL    HW213304  11.358   0.216   1.704
 3803SOL     OW13305  13.375  10.062   9.913
 3803SOL    HW113306  13.358  10.015   9.994
 3803SOL    HW213307  13.436  10.006   9.865
 3804SOL     OW13308  12.349   7.170   7.294
 3804SOL    HW113309  12.307   7.177   7.379
 3804SOL    HW213310  12.279   7.141   7.235
 3805SOL     OW13311   2.450   5.906   2.941
 3805SOL    HW113312   2.487   5.918   3.028
 3805SOL    HW213313   2.526   5.911   2.882
 3806SOL     OW13314  10.904   3.324   3.929
 3806SOL    HW113315  10.895   3.380   4.006
 3806SOL    HW213316  10.992   3.344   3.895
 3807SOL     OW13317   3.317  12.065   6.087
 3807SOL    HW113318   3.337  12.106   6.172
 3807SOL    HW213319   3.352  11.976   6.095
 3808SOL     OW13320  13.430   3.421   4.485
 3808SOL    HW113321  13.335   3.417   4.491
 3808SOL    HW213322  13.448   3.494   4.427
 3809SOL     OW13323  12.734   4.586  12.182
 3809SOL    HW113324  12.700   4.653  12.124
 3809SOL    HW213325  12.815   4.623  12.217
 3810SOL     OW13326   5.662  11.168   8.107
 3810SOL    HW113327   5.670  11.233   8.037
 3810SOL    HW213328   5.707  11.091   8.073
 3811SOL     OW13329   5.276   3.709   6.361
 3811SOL    HW113330   5.191   3.681   6.325
 3811SOL    HW213331   5.324   3.740   6.285
 3812SOL     OW13332  14.015   4.317   5.843
 3812SOL    HW113333  13.921   4.304   5.841
 3812SOL    HW213334  14.040   4.327   5.751
 3813SOL     OW13335   8.430   6.485   0.853
 3813SOL    HW113336   8.435   6.572   0.894
 3813SOL    HW213337   8.354   6.443   0.894
 3814SOL     OW13338   2.014  11.947   0.541
 3814SOL    HW113339   2.054  11.999   0.472
 3814SOL    HW213340   1.962  11.881   0.494
 3815SOL     OW13341   2.678  11.158  12.486
 3815SOL    HW113342   2.620  11.232  12.467
 3815SOL    HW213343   2.685  11.111  12.404
 3816SOL     OW13344  14.301   4.237   6.523
 3816SOL    HW113345  14.277   4.302   6.457
 3816SOL    HW213346  14.286   4.280   6.607
 3817SOL     OW13347   1.713   6.066  13.499
 3817SOL    HW113348   1.646   6.129  13.474
 3817SOL    HW213349   1.708   6.062  13.594
 3818SOL     OW13350   7.968   9.399   6.075
 3818SOL    HW113351   7.878   9.395   6.109
 3818SOL    HW213352   8.022   9.370   6.149
 3819SOL     OW13353  11.741  12.667   9.709
 3819SOL    HW113354  11.745  12.649   9.803
 3819SOL    HW213355  11.800  12.741   9.696
 3820SOL     OW13356   3.345   2.222   0.326
 3820SOL    HW113357   3.439   2.238   0.319
 3820SOL    HW213358   3.314   2.217   0.235
 3821SOL     OW13359   5.517   8.953   7.066
 3821SOL    HW113360   5.528   8.867   7.024
 3821SOL    HW213361   5.556   8.942   7.153
 3822SOL     OW13362   2.732   5.126   9.234
 3822SOL    HW113363   2.677   5.052   9.210
 3822SOL    HW213364   2.813   5.087   9.267
 3823SOL     OW13365  14.361   1.017   7.638
 3823SOL    HW113366  14.288   1.064   7.599
 3823SOL    HW213367  14.409   1.083   7.687
 3824SOL     OW13368  10.442   3.334   9.967
 3824SOL    HW113369  10.362   3.283   9.952
 3824SOL    HW213370  10.421   3.423   9.938
 3825SOL     OW13371  12.273   3.276   6.836
 3825SOL    HW113372  12.314   3.265   6.921
 3825SOL    HW213373  12.186   3.310   6.855
 3826SOL     OW13374   0.403   3.268   0.212
 3826SOL    HW113375   0.329   3.215   0.183
 3826SOL    HW213376   0.409   3.252   0.306
 3827SOL     OW13377   3.716   2.201   2.923
 3827SOL    HW113378   3.721   2.193   3.019
 3827SOL    HW213379   3.666   2.125   2.895
 3828SOL     OW13380   5.692   4.025  10.103
 3828SOL    HW113381   5.619   4.073  10.063
 3828SOL    HW213382   5.733   4.088  10.162
 3829SOL     OW13383   6.167   0.807  12.057
 3829SOL    HW113384   6.177   0.871  12.127
 3829SOL    HW213385   6.184   0.856  11.977
 3830SOL     OW13386  11.079   3.745   7.679
 3830SOL    HW113387  11.113   3.759   7.767
 3830SOL    HW213388  10.984   3.737   7.691
 3831SOL     OW13389   9.575   4.083  11.411
 3831SOL    HW113390   9.637   4.010  11.408
 3831SOL    HW213391   9.516   4.061  11.483
 3832SOL     OW13392   5.761   8.460  13.979
 3832SOL    HW113393   5.733   8.526  13.916
 3832SOL    HW213394   5.855   8.451  13.963
 3833SOL     OW13395   8.460   0.645   8.955
 3833SOL    HW113396   8.416   0.730   8.960
 3833SOL    HW213397   8.464   0.615   9.046
 3834SOL     OW13398   7.055   3.332   5.182
 3834SOL    HW113399   7.002   3.400   5.141
 3834SOL    HW213400   7.145   3.364   5.176
 3835SOL     OW13401   1.103   9.875   8.295
 3835SOL    HW113402   1.021   9.884   8.344
 3835SOL    HW213403   1.166   9.928   8.344
 3836SOL     OW13404  11.813   7.977   4.971
 3836SOL    HW113405  11.888   8.024   5.007
 3836SOL    HW213406  11.740   8.038   4.978
 3837SOL     OW13407   1.554  12.416   2.965
 3837SOL    HW113408   1.557  12.470   3.044
 3837SOL    HW213409   1.522  12.475   2.896
 3838SOL     OW13410   0.624   6.860  13.438
 3838SOL    HW113411   0.591   6.949  13.446
 3838SOL    HW213412   0.559   6.814  13.386
 3839SOL     OW13413  12.459  13.322   4.384
 3839SOL    HW113414  12.458  13.252   4.448
 3839SOL    HW213415  12.547  13.319   4.346
 3840SOL     OW13416   2.805   4.466   6.675
 3840SOL    HW113417   2.719   4.494   6.644
 3840SOL    HW213418   2.860   4.545   6.669
 3841SOL     OW13419  10.812   2.736   4.720
 3841SOL    HW113420  10.717   2.752   4.722
 3841SOL    HW213421  10.821   2.641   4.731
 3842SOL     OW13422   4.690   0.851   9.515
 3842SOL    HW113423   4.716   0.918   9.578
 3842SOL    HW213424   4.772   0.815   9.483
 3843SOL     OW13425  14.531   7.782   3.229
 3843SOL    HW113426  14.455   7.779   3.172
 3843SOL    HW213427  14.589   7.847   3.188
 3844SOL     OW13428   9.835   7.508   1.227
 3844SOL    HW113429   9.907   7.472   1.279
 3844SOL    HW213430   9.846   7.603   1.233
 3845SOL     OW13431   8.943   3.455   0.798
 3845SOL    HW113432   8.886   3.409   0.860
 3845SOL    HW213433   9.003   3.388   0.766
 3846SOL     OW13434   7.797  11.230   0.948
 3846SOL    HW113435   7.722  11.281   0.918
 3846SOL    HW213436   7.771  11.197   1.034
 3847SOL     OW13437  10.581  14.844   9.170
 3847SOL    HW113438  10.551  14.756   9.192
 3847SOL    HW213439  10.500   0.021   9.153
 3848SOL     OW13440   7.578   2.470   2.349
 3848SOL    HW113441   7.662   2.516   2.355
 3848SOL    HW213442   7.595   2.397   2.289
 3849SOL     OW13443   6.970  12.384  12.448
 3849SOL    HW113444   7.058  12.402  12.480
 3849SOL    HW213445   6.930  12.329  12.515
 3850SOL     OW13446   8.962   5.686  11.639
 3850SOL    HW113447   9.007   5.610  11.602
 3850SOL    HW213448   8.927   5.654  11.723
 3851SOL     OW13449  13.399   4.096  12.173
 3851SOL    HW113450  13.342   4.172  12.184
 3851SOL    HW213451  13.342   4.021  12.194
 3852SOL     OW13452   1.985   9.941   2.562
 3852SOL    HW113453   1.917   9.983   2.509
 3852SOL    HW213454   2.056  10.005   2.564
 3853SOL     OW13455   1.094  10.036   1.355
 3853SOL    HW113456   1.000  10.046   1.365
 3853SOL    HW213457   1.107  10.007   1.265
 3854SOL     OW13458   3.376   8.851   4.373
 3854SOL    HW113459   3.447   8.903   4.335
 3854SOL    HW213460   3.400   8.842   4.465
 3855SOL     OW13461  11.789  13.477   3.731
 3855SOL    HW113462  11.806  13.547   3.668
 3855SOL    HW213463  11.693  13.469   3.733
 3856SOL     OW13464   1.039   7.055   1.489
 3856SOL    HW113465   1.102   7.114   1.449
 3856SOL    HW213466   1.014   7.098   1.571
 3857SOL     OW13467   8.023  13.594  12.435
 3857SOL    HW113468   7.927  13.592  12.445
 3857SOL    HW213469   8.049  13.678  12.473
 3858SOL     OW13470   4.714  10.402   0.565
 3858SOL    HW113471   4.670  10.318   0.548
 3858SOL    HW213472   4.777  10.382   0.635
 3859SOL     OW13473  11.026  10.966   3.537
 3859SOL    HW113474  11.115  10.938   3.516
 3859SOL    HW213475  10.970  10.911   3.482
 3860SOL     OW13476   3.372  13.115   7.765
 3860SOL    HW113477   3.453  13.148   7.725
 3860SOL    HW213478   3.398  13.033   7.808
 3861SOL     OW13479   9.286  13.025   0.427
 3861SOL    HW113480   9.368  13.037   0.474
 3861SOL    HW213481   9.269  12.931   0.431
 3862SOL     OW13482   5.237   5.478   8.713
 3862SOL    HW113483   5.247   5.569   8.740
 3862SOL    HW213484   5.322   5.438   8.733
 3863SOL     OW13485   5.895   0.607  11.277
 3863SOL    HW113486   5.883   0.542  11.207
 3863SOL    HW213487   5.987   0.633  11.270
 3864SOL     OW13488   7.677   3.769   7.419
 3864SOL    HW113489   7.641   3.767   7.508
 3864SOL    HW213490   7.691   3.677   7.397
 3865SOL     OW13491  13.154   8.970  11.167
 3865SOL    HW113492  13.110   8.900  11.118
 3865SOL    HW213493  13.171   9.038  11.103
 3866SOL     OW13494  12.044   2.207   7.296
 3866SOL    HW113495  12.026   2.135   7.236
 3866SOL    HW213496  12.014   2.175   7.381
 3867SOL     OW13497   9.343  14.530   7.418
 3867SOL    HW113498   9.293  14.450   7.434
 3867SOL    HW213499   9.318  14.556   7.329
 3868SOL     OW13500   1.953  13.963   8.238
 3868SOL    HW113501   2.021  14.030   8.227
 3868SOL    HW213502   1.975  13.895   8.175
 3869SOL     OW13503  13.936   5.209   2.270
 3869SOL    HW113504  13.973   5.221   2.183
 3869SOL    HW213505  13.902   5.295   2.294
 3870SOL     OW13506   7.322  10.522   0.324
 3870SOL    HW113507   7.265  10.569   0.264
 3870SOL    HW213508   7.341  10.439   0.280
 3871SOL     OW13509   4.700   6.748   6.872
 3871SOL    HW113510   4.617   6.733   6.916
 3871SOL    HW213511   4.766   6.737   6.941
 3872SOL     OW13512   6.102   0.324  14.708
 3872SOL    HW113513   6.014   0.363  14.701
 3872SOL    HW213514   6.094   0.240  14.663
 3873SOL     OW13515  11.133   3.463   2.679
 3873SOL    HW113516  11.183   3.382   2.674
 3873SOL    HW213517  11.198   3.531   2.692
 3874SOL     OW13518  13.182  13.475   5.180
 3874SOL    HW113519  13.172  13.433   5.095
 3874SOL    HW213520  13.168  13.568   5.163
 3875SOL     OW13521  14.865   5.310   4.466
 3875SOL    HW113522  14.820   5.258   4.532
 3875SOL    HW213523  14.806   5.383   4.447
 3876SOL     OW13524   1.591   5.295   2.932
 3876SOL    HW113525   1.649   5.295   3.008
 3876SOL    HW213526   1.564   5.387   2.923
 3877SOL     OW13527  14.010   6.874  12.762
 3877SOL    HW113528  13.925   6.915  12.779
 3877SOL    HW213529  13.995   6.820  12.685
 3878SOL     OW13530  11.310  10.406   5.104
 3878SOL    HW113531  11.235  10.444   5.058
 3878SOL    HW213532  11.278  10.391   5.193
 3879SOL     OW13533  10.809  13.035  12.077
 3879SOL    HW113534  10.899  13.019  12.106
 3879SOL    HW213535  10.760  13.048  12.158
 3880SOL     OW13536   1.870  12.798   4.820
 3880SOL    HW113537   1.842  12.884   4.788
 3880SOL    HW213538   1.902  12.753   4.743
 3881SOL     OW13539   0.393  10.331  10.806
 3881SOL    HW113540   0.383  10.251  10.857
 3881SOL    HW213541   0.466  10.312  10.747
 3882SOL     OW13542  10.586   3.872   6.296
 3882SOL    HW113543  10.609   3.953   6.340
 3882SOL    HW213544  10.563   3.812   6.367
 3883SOL     OW13545   3.162   6.368   8.665
 3883SOL    HW113546   3.207   6.336   8.586
 3883SOL    HW213547   3.106   6.295   8.692
 3884SOL     OW13548  14.864   4.144   6.243
 3884SOL    HW113549  14.807   4.220   6.256
 3884SOL    HW213550  14.804   4.073   6.220
 3885SOL     OW13551   2.008   9.064   8.601
 3885SOL    HW113552   2.054   9.003   8.543
 3885SOL    HW213553   1.919   9.031   8.604
 3886SOL     OW13554   8.833   3.391  10.736
 3886SOL    HW113555   8.808   3.428  10.821
 3886SOL    HW213556   8.786   3.308  10.731
 3887SOL     OW13557   3.007   5.617   2.122
 3887SOL    HW113558   3.045   5.609   2.034
 3887SOL    HW213559   2.912   5.608   2.108
 3888SOL     OW13560   8.423  10.088   1.175
 3888SOL    HW113561   8.499  10.147   1.173
 3888SOL    HW213562   8.355  10.139   1.220
 3889SOL     OW13563   2.729   6.463   4.881
 3889SOL    HW113564   2.682   6.455   4.798
 3889SOL    HW213565   2.793   6.392   4.879
 3890SOL     OW13566   9.722   8.043  10.992
 3890SOL    HW113567   9.633   8.063  10.962
 3890SOL    HW213568   9.771   8.024  10.912
 3891SOL     OW13569   1.099  11.510   7.461
 3891SOL    HW113570   1.115  11.416   7.474
 3891SOL    HW213571   1.009  11.515   7.429
 3892SOL     OW13572   8.802   7.574   9.603
 3892SOL    HW113573   8.759   7.644   9.653
 3892SOL    HW213574   8.764   7.493   9.637
 3893SOL     OW13575  13.547  12.874  12.119
 3893SOL    HW113576  13.476  12.885  12.056
 3893SOL    HW213577  13.622  12.917  12.078
 3894SOL     OW13578   9.465   0.072   8.600
 3894SOL    HW113579   9.479   0.131   8.526
 3894SOL    HW213580   9.506   0.117   8.674
 3895SOL     OW13581  11.122  10.432   3.936
 3895SOL    HW113582  11.200  10.426   3.880
 3895SOL    HW213583  11.112  10.344   3.972
 3896SOL     OW13584   4.452   8.076   3.270
 3896SOL    HW113585   4.428   8.168   3.286
 3896SOL    HW213586   4.546   8.073   3.286
 3897SOL     OW13587  13.711   7.356  11.029
 3897SOL    HW113588  13.674   7.268  11.035
 3897SOL    HW213589  13.726   7.369  10.936
 3898SOL     OW13590   3.077   6.079   9.704
 3898SOL    HW113591   3.017   6.152   9.711
 3898SOL    HW213592   3.031   6.013   9.652
 3899SOL     OW13593   7.916   1.355   4.638
 3899SOL    HW113594   7.903   1.287   4.704
 3899SOL    HW213595   7.994   1.328   4.591
 3900SOL     OW13596   9.073   7.020  13.194
 3900SOL    HW113597   9.021   7.063  13.262
 3900SOL    HW213598   9.070   6.927  13.217
 3901SOL     OW13599   6.991   3.113   5.531
 3901SOL    HW113600   6.930   3.041   5.513
 3901SOL    HW213601   7.054   3.110   5.459
 3902SOL     OW13602   6.994  11.171  10.279
 3902SOL    HW113603   6.913  11.137  10.318
 3902SOL    HW213604   6.964  11.240  10.219
 3903SOL     OW13605   4.045   1.654   5.728
 3903SOL    HW113606   4.070   1.588   5.793
 3903SOL    HW213607   4.079   1.620   5.645
 3904SOL     OW13608  11.632   3.714   2.066
 3904SOL    HW113609  11.698   3.644   2.063
 3904SOL    HW213610  11.673   3.783   2.118
 3905SOL     OW13611  13.404  14.163   0.107
 3905SOL    HW113612  13.484  14.124   0.071
 3905SOL    HW213613  13.377  14.228   0.042
 3906SOL     OW13614   8.609  10.318   5.558
 3906SOL    HW113615   8.522  10.289   5.586
 3906SOL    HW213616   8.654  10.341   5.639
 3907SOL     OW13617  13.118   2.861  12.386
 3907SOL    HW113618  13.088   2.839  12.474
 3907SOL    HW213619  13.070   2.800  12.329
 3908SOL     OW13620   4.381   6.188  10.342
 3908SOL    HW113621   4.400   6.100  10.310
 3908SOL    HW213622   4.331   6.229  10.271
 3909SOL     OW13623   6.194   0.644   6.760
 3909SOL    HW113624   6.243   0.570   6.725
 3909SOL    HW213625   6.150   0.609   6.838
 3910SOL     OW13626   8.408   8.875   6.047
 3910SOL    HW113627   8.372   8.787   6.059
 3910SOL    HW213628   8.472   8.884   6.118
 3911SOL     OW13629  10.974   2.998   2.038
 3911SOL    HW113630  10.912   2.999   2.111
 3911SOL    HW213631  10.918   2.989   1.960
 3912SOL     OW13632   7.239   4.249   8.831
 3912SOL    HW113633   7.243   4.163   8.873
 3912SOL    HW213634   7.145   4.267   8.822
 3913SOL     OW13635   7.283   1.894   4.384
 3913SOL    HW113636   7.288   1.844   4.466
 3913SOL    HW213637   7.316   1.834   4.317
 3914SOL     OW13638  11.078   4.151   8.700
 3914SOL    HW113639  11.117   4.091   8.636
 3914SOL    HW213640  11.027   4.212   8.647
 3915SOL     OW13641  11.064   3.850  13.719
 3915SOL    HW113642  11.121   3.874  13.647
 3915SOL    HW213643  11.117   3.791  13.773
 3916SOL     OW13644   2.269   2.177  12.453
 3916SOL    HW113645   2.316   2.094  12.439
 3916SOL    HW213646   2.337   2.244  12.444
 3917SOL     OW13647  12.464  10.283   6.116
 3917SOL    HW113648  12.374  10.302   6.143
 3917SOL    HW213649  12.479  10.192   6.142
 3918SOL     OW13650   1.145  12.141  14.641
 3918SOL    HW113651   1.113  12.160  14.729
 3918SOL    HW213652   1.066  12.128  14.589
 3919SOL     OW13653   3.549   5.974   0.927
 3919SOL    HW113654   3.518   5.893   0.967
 3919SOL    HW213655   3.474   6.008   0.879
 3920SOL     OW13656   1.515   3.265   8.325
 3920SOL    HW113657   1.574   3.277   8.251
 3920SOL    HW213658   1.498   3.354   8.357
 3921SOL     OW13659   8.138  11.476  14.774
 3921SOL    HW113660   8.227  11.491  14.743
 3921SOL    HW213661   8.143  11.398  14.828
 3922SOL     OW13662   6.936  10.269  14.038
 3922SOL    HW113663   6.874  10.251  14.108
 3922SOL    HW213664   6.887  10.254  13.957
 3923SOL     OW13665  12.913   6.154  11.488
 3923SOL    HW113666  12.896   6.098  11.412
 3923SOL    HW213667  12.898   6.098  11.563
 3924SOL     OW13668   1.027  11.929   1.897
 3924SOL    HW113669   1.095  11.985   1.934
 3924SOL    HW213670   1.008  11.865   1.967
 3925SOL     OW13671   7.389  10.018   8.528
 3925SOL    HW113672   7.327   9.952   8.560
 3925SOL    HW213673   7.346  10.058   8.453
 3926SOL     OW13674   7.912   8.907   9.810
 3926SOL    HW113675   7.929   8.821   9.772
 3926SOL    HW213676   7.888   8.962   9.735
 3927SOL     OW13677   9.022   4.007  12.383
 3927SOL    HW113678   9.100   4.041  12.338
 3927SOL    HW213679   8.969   3.969  12.313
 3928SOL     OW13680   4.350   8.747   7.610
 3928SOL    HW113681   4.286   8.770   7.543
 3928SOL    HW213682   4.397   8.829   7.627
 3929SOL     OW13683  14.061  11.883   9.065
 3929SOL    HW113684  14.038  11.810   9.122
 3929SOL    HW213685  14.155  11.875   9.052
 3930SOL     OW13686   7.883  14.717   7.513
 3930SOL    HW113687   7.933  14.731   7.433
 3930SOL    HW213688   7.842  14.802   7.531
 3931SOL     OW13689   6.996   2.814   6.501
 3931SOL    HW113690   6.962   2.902   6.485
 3931SOL    HW213691   7.011   2.777   6.414
 3932SOL     OW13692   8.389   6.549   4.666
 3932SOL    HW113693   8.345   6.620   4.619
 3932SOL    HW213694   8.368   6.471   4.615
 3933SOL     OW13695   7.326   3.262   1.001
 3933SOL    HW113696   7.309   3.191   1.063
 3933SOL    HW213697   7.421   3.268   0.996
 3934SOL     OW13698   1.671   2.502  14.839
 3934SOL    HW113699   1.666   2.427  14.779
 3934SOL    HW213700   1.714   2.571  14.788
 3935SOL     OW13701  10.716   0.497   1.745
 3935SOL    HW113702  10.729   0.413   1.702
 3935SOL    HW213703  10.630   0.527   1.714
 3936SOL     OW13704   0.399  12.559  13.003
 3936SOL    HW113705   0.493  12.571  13.021
 3936SOL    HW213706   0.385  12.604  12.919
 3937SOL     OW13707  13.769   7.938  13.276
 3937SOL    HW113708  13.761   8.034  13.276
 3937SOL    HW213709  13.750   7.913  13.367
 3938SOL     OW13710   8.182  13.595   1.265
 3938SOL    HW113711   8.231  13.526   1.309
 3938SOL    HW213712   8.245  13.667   1.256
 3939SOL     OW13713   8.591   8.956  10.802
 3939SOL    HW113714   8.496   8.955  10.815
 3939SOL    HW213715   8.608   9.040  10.760
 3940SOL     OW13716  13.666   1.412  14.067
 3940SOL    HW113717  13.603   1.384  14.133
 3940SOL    HW213718  13.739   1.448  14.116
 3941SOL     OW13719  13.753   7.851  14.314
 3941SOL    HW113720  13.742   7.877  14.222
 3941SOL    HW213721  13.847   7.831  14.322
 3942SOL     OW13722   9.788  14.796  14.694
 3942SOL    HW113723   9.832  14.847  14.762
 3942SOL    HW213724   9.860  14.758  14.643
 3943SOL     OW13725  13.919  10.729   7.901
 3943SOL    HW113726  13.935  10.809   7.950
 3943SOL    HW213727  13.878  10.758   7.819
 3944SOL     OW13728  13.338   8.133  14.842
 3944SOL    HW113729  13.318   8.159   0.060
 3944SOL    HW213730  13.267   8.169  14.789
 3945SOL     OW13731   8.183   3.141   7.642
 3945SOL    HW113732   8.127   3.067   7.666
 3945SOL    HW213733   8.137   3.217   7.678
 3946SOL     OW13734   5.966   5.365   0.105
 3946SOL    HW113735   6.055   5.391   0.131
 3946SOL    HW213736   5.916   5.366   0.186
 3947SOL     OW13737   3.822   7.507   5.128
 3947SOL    HW113738   3.809   7.430   5.185
 3947SOL    HW213739   3.908   7.494   5.089
 3948SOL     OW13740   1.112   4.824  12.699
 3948SOL    HW113741   1.103   4.763  12.626
 3948SOL    HW213742   1.147   4.904  12.659
 3949SOL     OW13743   0.644  11.433  12.834
 3949SOL    HW113744   0.559  11.465  12.866
 3949SOL    HW213745   0.622  11.354  12.785
 3950SOL     OW13746   8.881   0.844  12.967
 3950SOL    HW113747   8.890   0.934  12.999
 3950SOL    HW213748   8.946   0.838  12.896
 3951SOL     OW13749   7.400  12.692  10.587
 3951SOL    HW113750   7.410  12.597  10.575
 3951SOL    HW213751   7.333  12.717  10.524
 3952SOL     OW13752   9.452   0.361  12.431
 3952SOL    HW113753   9.545   0.377  12.413
 3952SOL    HW213754   9.445   0.364  12.526
 3953SOL     OW13755   6.241   3.249  10.485
 3953SOL    HW113756   6.303   3.195  10.536
 3953SOL    HW213757   6.294   3.286  10.415
 3954SOL     OW13758   0.565  10.843  11.212
 3954SOL    HW113759   0.609  10.774  11.263
 3954SOL    HW213760   0.636  10.894  11.174
 3955SOL     OW13761   7.099  12.221   8.440
 3955SOL    HW113762   7.168  12.232   8.374
 3955SOL    HW213763   7.034  12.287   8.416
 3956SOL     OW13764  12.174   1.225   9.462
 3956SOL    HW113765  12.158   1.318   9.451
 3956SOL    HW213766  12.090   1.183   9.440
 3957SOL     OW13767  13.165   0.789   1.268
 3957SOL    HW113768  13.134   0.827   1.186
 3957SOL    HW213769  13.152   0.695   1.257
 3958SOL     OW13770   9.957  14.679   5.453
 3958SOL    HW113771  10.017  14.656   5.524
 3958SOL    HW213772   9.968  14.609   5.389
 3959SOL     OW13773   0.410  11.364   8.854
 3959SOL    HW113774   0.463  11.413   8.917
 3959SOL    HW213775   0.371  11.432   8.798
 3960SOL     OW13776   4.452  14.529   2.867
 3960SOL    HW113777   4.459  14.569   2.954
 3960SOL    HW213778   4.367  14.484   2.869
 3961SOL     OW13779   8.061   1.187   6.628
 3961SOL    HW113780   8.055   1.194   6.532
 3961SOL    HW213781   8.152   1.161   6.644
 3962SOL     OW13782  12.582   5.939  13.330
 3962SOL    HW113783  12.597   5.961  13.237
 3962SOL    HW213784  12.533   5.857  13.327
 3963SOL     OW13785   8.454   8.971   3.013
 3963SOL    HW113786   8.422   8.991   3.101
 3963SOL    HW213787   8.376   8.943   2.965
 3964SOL     OW13788  14.797   6.112   8.231
 3964SOL    HW113789   0.011   6.133   8.267
 3964SOL    HW213790  14.735   6.166   8.280
 3965SOL     OW13791   4.634   8.534   7.310
 3965SOL    HW113792   4.724   8.514   7.337
 3965SOL    HW213793   4.581   8.508   7.385
 3966SOL     OW13794  10.225   9.618   7.666
 3966SOL    HW113795  10.175   9.598   7.587
 3966SOL    HW213796  10.222   9.714   7.673
 3967SOL     OW13797  13.125   4.409   4.138
 3967SOL    HW113798  13.155   4.498   4.157
 3967SOL    HW213799  13.139   4.361   4.219
 3968SOL     OW13800  14.009  12.849   9.532
 3968SOL    HW113801  13.966  12.819   9.452
 3968SOL    HW213802  13.953  12.818   9.603
 3969SOL     OW13803   5.393   0.304   7.373
 3969SOL    HW113804   5.451   0.290   7.448
 3969SOL    HW213805   5.305   0.308   7.410
 3970SOL     OW13806  11.837   7.370   3.747
 3970SOL    HW113807  11.756   7.420   3.739
 3970SOL    HW213808  11.893   7.424   3.804
 3971SOL     OW13809   1.677   2.881   1.861
 3971SOL    HW113810   1.676   2.855   1.769
 3971SOL    HW213811   1.586   2.898   1.883
 3972SOL     OW13812   6.019   2.454   5.961
 3972SOL    HW113813   5.999   2.537   5.918
 3972SOL    HW213814   6.102   2.427   5.922
 3973SOL     OW13815   4.256   2.199  12.520
 3973SOL    HW113816   4.227   2.251  12.595
 3973SOL    HW213817   4.301   2.262  12.464
 3974SOL     OW13818  14.637   1.915   0.290
 3974SOL    HW113819  14.543   1.906   0.279
 3974SOL    HW213820  14.672   1.828   0.270
 3975SOL     OW13821   5.630   6.539   2.623
 3975SOL    HW113822   5.703   6.598   2.640
 3975SOL    HW213823   5.562   6.567   2.685
 3976SOL     OW13824   1.448   4.731   8.090
 3976SOL    HW113825   1.411   4.676   8.021
 3976SOL    HW213826   1.500   4.670   8.143
 3977SOL     OW13827   1.331   2.995  10.216
 3977SOL    HW113828   1.302   2.945  10.140
 3977SOL    HW213829   1.411   3.039  10.186
 3978SOL     OW13830   6.637  12.225   2.358
 3978SOL    HW113831   6.613  12.260   2.272
 3978SOL    HW213832   6.733  12.227   2.359
 3979SOL     OW13833  10.023   5.834   4.959
 3979SOL    HW113834  10.084   5.799   4.895
 3979SOL    HW213835   9.985   5.756   5.001
 3980SOL     OW13836   2.401   9.799   8.460
 3980SOL    HW113837   2.307   9.817   8.450
 3980SOL    HW213838   2.410   9.707   8.436
 3981SOL     OW13839  11.998   4.989  11.367
 3981SOL    HW113840  12.022   4.896  11.366
 3981SOL    HW213841  11.982   5.008  11.460
 3982SOL     OW13842   8.231  12.067  12.481
 3982SOL    HW113843   8.268  12.032  12.562
 3982SOL    HW213844   8.157  12.121  12.511
 3983SOL     OW13845  10.635  13.563   5.007
 3983SOL    HW113846  10.725  13.533   4.995
 3983SOL    HW213847  10.642  13.658   5.015
 3984SOL     OW13848   3.456  12.610   6.637
 3984SOL    HW113849   3.413  12.630   6.720
 3984SOL    HW213850   3.478  12.517   6.643
 3985SOL     OW13851  10.893   1.372  12.171
 3985SOL    HW113852  10.801   1.389  12.194
 3985SOL    HW213853  10.904   1.278  12.182
 3986SOL     OW13854  13.275  13.704   5.319
 3986SOL    HW113855  13.269  13.608   5.325
 3986SOL    HW213856  13.364  13.724   5.347
 3987SOL     OW13857   0.193   8.743   8.034
 3987SOL    HW113858   0.165   8.699   8.114
 3987SOL    HW213859   0.278   8.780   8.055
 3988SOL     OW13860  10.049  11.713   2.679
 3988SOL    HW113861   9.967  11.729   2.631
 3988SOL    HW213862  10.091  11.799   2.683
 3989SOL     OW13863   2.743  13.076   0.354
 3989SOL    HW113864   2.692  13.057   0.276
 3989SOL    HW213865   2.831  13.097   0.321
 3990SOL     OW13866  13.078   0.214   3.076
 3990SOL    HW113867  13.005   0.242   3.020
 3990SOL    HW213868  13.113   0.296   3.112
 3991SOL     OW13869   1.942   4.461   1.788
 3991SOL    HW113870   1.947   4.402   1.712
 3991SOL    HW213871   1.900   4.408   1.856
 3992SOL     OW13872   5.461   1.101   0.047
 3992SOL    HW113873   5.553   1.078   0.042
 3992SOL    HW213874   5.448   1.162  14.846
 3993SOL     OW13875   2.847   8.117  14.074
 3993SOL    HW113876   2.784   8.118  14.002
 3993SOL    HW213877   2.926   8.078  14.036
 3994SOL     OW13878  13.128  11.427  11.680
 3994SOL    HW113879  13.191  11.444  11.610
 3994SOL    HW213880  13.061  11.495  11.669
 3995SOL     OW13881   1.994   6.206   1.587
 3995SOL    HW113882   2.052   6.196   1.511
 3995SOL    HW213883   2.010   6.295   1.618
 3996SOL     OW13884   6.393   7.753  13.107
 3996SOL    HW113885   6.315   7.800  13.076
 3996SOL    HW213886   6.465   7.794  13.059
 3997SOL     OW13887   8.699   1.964   6.253
 3997SOL    HW113888   8.730   1.962   6.162
 3997SOL    HW213889   8.731   1.883   6.291
 3998SOL     OW13890   4.673   9.339  13.661
 3998SOL    HW113891   4.742   9.292  13.707
 3998SOL    HW213892   4.603   9.275  13.650
 3999SOL     OW13893  10.943  11.917  11.309
 3999SOL    HW113894  11.024  11.916  11.257
 3999SOL    HW213895  10.968  11.877  11.393
 4000SOL     OW13896   6.913   8.171  12.164
 4000SOL    HW113897   6.856   8.204  12.233
 4000SOL    HW213898   7.002   8.180  12.199
 4001SOL     OW13899  11.618   8.122  13.603
 4001SOL    HW113900  11.710   8.142  13.623
 4001SOL    HW213901  11.604   8.159  13.516
 4002SOL     OW13902  12.584  12.919  12.839
 4002SOL    HW113903  12.559  13.009  12.818
 4002SOL    HW213904  12.508  12.867  12.816
 4003SOL     OW13905   2.904  13.928   3.522
 4003SOL    HW113906   2.905  13.850   3.467
 4003SOL    HW213907   2.957  13.904   3.599
 4004SOL     OW13908  12.681   3.374   9.763
 4004SOL    HW113909  12.640   3.397   9.846
 4004SOL    HW213910  12.721   3.289   9.778
 4005SOL     OW13911  14.350   6.977   0.553
 4005SOL    HW113912  14.345   6.984   0.458
 4005SOL    HW213913  14.355   7.067   0.584
 4006SOL     OW13914   6.945   5.241   2.924
 4006SOL    HW113915   6.908   5.248   2.836
 4006SOL    HW213916   7.039   5.229   2.910
 4007SOL     OW13917   9.582   7.556   0.064
 4007SOL    HW113918   9.499   7.509   0.075
 4007SOL    HW213919   9.638   7.494   0.018
 4008SOL     OW13920   5.325  12.902   3.393
 4008SOL    HW113921   5.263  12.973   3.409
 4008SOL    HW213922   5.405  12.928   3.439
 4009SOL     OW13923  13.669   6.661   2.104
 4009SOL    HW113924  13.736   6.708   2.055
 4009SOL    HW213925  13.665   6.574   2.063
 4010SOL     OW13926   5.404   6.994   8.805
 4010SOL    HW113927   5.343   7.055   8.764
 4010SOL    HW213928   5.460   7.049   8.861
 4011SOL     OW13929   0.046  11.946   1.185
 4011SOL    HW113930  14.848  11.886   1.156
 4011SOL    HW213931   0.019  12.031   1.150
 4012SOL     OW13932  14.291   2.943  13.714
 4012SOL    HW113933  14.223   2.900  13.765
 4012SOL    HW213934  14.280   2.908  13.626
 4013SOL     OW13935  13.179  11.675   2.629
 4013SOL    HW113936  13.158  11.601   2.685
 4013SOL    HW213937  13.151  11.752   2.679
 4014SOL     OW13938  14.159   2.822   3.376
 4014SOL    HW113939  14.068   2.821   3.346
 4014SOL    HW213940  14.188   2.912   3.360
 4015SOL     OW13941   5.906   6.223   2.771
 4015SOL    HW113942   5.938   6.291   2.711
 4015SOL    HW213943   5.957   6.145   2.748
 4016SOL     OW13944   8.442  14.821  11.836
 4016SOL    HW113945   8.454   0.022  11.775
 4016SOL    HW213946   8.457  14.860  11.922
 4017SOL     OW13947   0.682   7.769   7.831
 4017SOL    HW113948   0.700   7.850   7.878
 4017SOL    HW213949   0.686   7.793   7.738
 4018SOL     OW13950  11.925   4.470  11.489
 4018SOL    HW113951  11.954   4.384  11.460
 4018SOL    HW213952  11.952   4.475  11.580
 4019SOL     OW13953   5.042   7.101   2.472
 4019SOL    HW113954   4.986   7.122   2.546
 4019SOL    HW213955   4.980   7.079   2.401
 4020SOL     OW13956   9.547   9.810   7.799
 4020SOL    HW113957   9.535   9.717   7.780
 4020SOL    HW213958   9.458   9.844   7.812
 4021SOL     OW13959   2.754   7.303   1.670
 4021SOL    HW113960   2.690   7.343   1.728
 4021SOL    HW213961   2.722   7.323   1.582
 4022SOL     OW13962   1.241   0.145   3.671
 4022SOL    HW113963   1.255   0.122   3.763
 4022SOL    HW213964   1.324   0.125   3.629
 4023SOL     OW13965   2.822   6.703   5.153
 4023SOL    HW113966   2.754   6.706   5.221
 4023SOL    HW213967   2.883   6.636   5.184
 4024SOL     OW13968   5.558   7.239   8.831
 4024SOL    HW113969   5.613   7.293   8.774
 4024SOL    HW213970   5.491   7.299   8.863
 4025SOL     OW13971   6.750   5.422   3.206
 4025SOL    HW113972   6.669   5.464   3.235
 4025SOL    HW213973   6.768   5.460   3.120
 4026SOL     OW13974   4.355  10.672   4.612
 4026SOL    HW113975   4.409  10.715   4.545
 4026SOL    HW213976   4.274  10.650   4.568
 4027SOL     OW13977  14.239   9.806  14.689
 4027SOL    HW113978  14.237   9.901  14.692
 4027SOL    HW213979  14.186   9.778  14.764
 4028SOL     OW13980  14.213  11.871  13.459
 4028SOL    HW113981  14.237  11.951  13.504
 4028SOL    HW213982  14.255  11.801  13.509
 4029SOL     OW13983  13.706  12.526   3.470
 4029SOL    HW113984  13.675  12.615   3.455
 4029SOL    HW213985  13.776  12.513   3.406
 4030SOL     OW13986  14.813  10.742   9.598
 4030SOL    HW113987  14.786  10.656   9.629
 4030SOL    HW213988   0.027  10.726   9.558
 4031SOL     OW13989   8.956  14.084  12.863
 4031SOL    HW113990   8.920  14.003  12.899
 4031SOL    HW213991   9.012  14.056  12.790
 4032SOL     OW13992  10.688   6.293   3.762
 4032SOL    HW113993  10.778   6.271   3.740
 4032SOL    HW213994  10.642   6.209   3.761
 4033SOL     OW13995   4.483  12.388  12.891
 4033SOL    HW113996   4.515  12.299  12.906
 4033SOL    HW213997   4.536  12.420  12.817
 4034SOL     OW13998   1.284  10.377   5.614
 4034SOL    HW113999   1.203  10.386   5.664
 4034SOL    HW214000   1.256  10.339   5.530
 4035SOL     OW14001   1.584  11.425   7.483
 4035SOL    HW114002   1.556  11.515   7.502
 4035SOL    HW214003   1.667  11.436   7.436
 4036SOL     OW14004  11.645   0.428   8.531
 4036SOL    HW114005  11.739   0.439   8.547
 4036SOL    HW214006  11.604   0.451   8.615
 4037SOL     OW14007   7.451  10.600  10.137
 4037SOL    HW114008   7.459  10.516  10.091
 4037SOL    HW214009   7.371  10.638  10.102
 4038SOL     OW14010  11.798   3.608  11.266
 4038SOL    HW114011  11.724   3.663  11.293
 4038SOL    HW214012  11.866   3.670  11.242
 4039SOL     OW14013  10.985   3.770   7.312
 4039SOL    HW114014  11.064   3.726   7.343
 4039SOL    HW214015  10.994   3.860   7.345
 4040SOL     OW14016   1.637   3.370   1.838
 4040SOL    HW114017   1.679   3.403   1.918
 4040SOL    HW214018   1.588   3.446   1.805
 4041SOL     OW14019   7.524   7.030   4.827
 4041SOL    HW114020   7.456   6.963   4.835
 4041SOL    HW214021   7.547   7.030   4.734
 4042SOL     OW14022  10.270   1.794   4.448
 4042SOL    HW114023  10.184   1.754   4.461
 4042SOL    HW214024  10.312   1.742   4.380
 4043SOL     OW14025  13.422   4.596   6.133
 4043SOL    HW114026  13.488   4.527   6.122
 4043SOL    HW214027  13.340   4.548   6.147
 4044SOL     OW14028   8.558   4.721  12.574
 4044SOL    HW114029   8.469   4.693  12.594
 4044SOL    HW214030   8.565   4.715  12.479
 4045SOL     OW14031   6.592   2.473   2.734
 4045SOL    HW114032   6.569   2.523   2.812
 4045SOL    HW214033   6.513   2.473   2.681
 4046SOL     OW14034   7.407  12.340  13.303
 4046SOL    HW114035   7.373  12.419  13.260
 4046SOL    HW214036   7.331  12.283  13.312
 4047SOL     OW14037  10.273  11.491   0.649
 4047SOL    HW114038  10.241  11.509   0.560
 4047SOL    HW214039  10.211  11.536   0.706
 4048SOL     OW14040  14.373   5.315  12.240
 4048SOL    HW114041  14.285   5.335  12.208
 4048SOL    HW214042  14.418   5.399  12.238
 4049SOL     OW14043  10.022   0.410   8.680
 4049SOL    HW114044   9.928   0.416   8.660
 4049SOL    HW214045  10.065   0.453   8.606
 4050SOL     OW14046  10.085   9.842   1.024
 4050SOL    HW114047  10.072   9.923   1.073
 4050SOL    HW214048  10.023   9.848   0.951
 4051SOL     OW14049  14.359   1.302  13.201
 4051SOL    HW114050  14.393   1.296  13.112
 4051SOL    HW214051  14.381   1.219  13.242
 4052SOL     OW14052   8.418   3.552  12.776
 4052SOL    HW114053   8.328   3.560  12.808
 4052SOL    HW214054   8.409   3.512  12.690
 4053SOL     OW14055   2.138   3.693  11.832
 4053SOL    HW114056   2.212   3.747  11.861
 4053SOL    HW214057   2.082   3.754  11.784
 4054SOL     OW14058  12.318  10.152   0.123
 4054SOL    HW114059  12.289  10.104   0.045
 4054SOL    HW214060  12.312  10.244   0.097
 4055SOL     OW14061   3.013  11.692   8.904
 4055SOL    HW114062   2.978  11.613   8.864
 4055SOL    HW214063   3.095  11.664   8.945
 4056SOL     OW14064   8.901  12.134   5.220
 4056SOL    HW114065   8.847  12.101   5.148
 4056SOL    HW214066   8.839  12.167   5.284
 4057SOL     OW14067  12.526   0.987   6.956
 4057SOL    HW114068  12.438   1.001   6.922
 4057SOL    HW214069  12.575   0.952   6.882
 4058SOL     OW14070   6.144   4.060  11.154
 4058SOL    HW114071   6.199   3.995  11.109
 4058SOL    HW214072   6.207   4.125  11.187
 4059SOL     OW14073   2.942  14.426   1.269
 4059SOL    HW114074   2.936  14.502   1.211
 4059SOL    HW214075   2.859  14.425   1.316
 4060SOL     OW14076  10.854   9.601  12.648
 4060SOL    HW114077  10.806   9.640  12.575
 4060SOL    HW214078  10.891   9.521  12.612
 4061SOL     OW14079   5.846   6.147   2.184
 4061SOL    HW114080   5.880   6.097   2.110
 4061SOL    HW214081   5.843   6.084   2.256
 4062SOL     OW14082   7.984   5.172   8.000
 4062SOL    HW114083   7.931   5.101   8.037
 4062SOL    HW214084   8.031   5.132   7.927
 4063SOL     OW14085  12.254  14.506   1.012
 4063SOL    HW114086  12.296  14.556   1.083
 4063SOL    HW214087  12.179  14.560   0.987
 4064SOL     OW14088   1.660   6.920   4.247
 4064SOL    HW114089   1.686   6.860   4.176
 4064SOL    HW214090   1.734   6.917   4.308
 4065SOL     OW14091  11.062   6.281   9.689
 4065SOL    HW114092  10.979   6.321   9.661
 4065SOL    HW214093  11.122   6.299   9.617
 4066SOL     OW14094  14.704   7.795   9.650
 4066SOL    HW114095  14.796   7.772   9.647
 4066SOL    HW214096  14.700   7.883   9.612
 4067SOL     OW14097  14.808  10.965  11.652
 4067SOL    HW114098   0.000  11.001  11.713
 4067SOL    HW214099  14.738  10.931  11.707
 4068SOL     OW14100  10.702  13.937   5.305
 4068SOL    HW114101  10.682  13.852   5.343
 4068SOL    HW214102  10.716  13.994   5.381
 4069SOL     OW14103   5.881   2.123   7.548
 4069SOL    HW114104   5.963   2.162   7.518
 4069SOL    HW214105   5.897   2.029   7.542
 4070SOL     OW14106   6.901   7.258  10.567
 4070SOL    HW114107   6.838   7.188  10.550
 4070SOL    HW214108   6.852   7.338  10.550
 4071SOL     OW14109   5.009   7.202   3.582
 4071SOL    HW114110   5.040   7.188   3.672
 4071SOL    HW214111   5.089   7.200   3.529
 4072SOL     OW14112  10.892  10.821   1.209
 4072SOL    HW114113  10.977  10.845   1.173
 4072SOL    HW214114  10.890  10.863   1.295
 4073SOL     OW14115  14.039  13.713   0.393
 4073SOL    HW114116  14.132  13.693   0.388
 4073SOL    HW214117  14.018  13.704   0.486
 4074SOL     OW14118   3.219  11.683  12.384
 4074SOL    HW114119   3.289  11.747  12.380
 4074SOL    HW214120   3.185  11.680  12.294
 4075SOL     OW14121   2.765  13.044   5.959
 4075SOL    HW114122   2.681  13.044   5.913
 4075SOL    HW214123   2.829  13.058   5.890
 4076SOL     OW14124  12.966  12.064   3.495
 4076SOL    HW114125  13.043  12.067   3.552
 4076SOL    HW214126  12.893  12.086   3.552
 4077SOL     OW14127  14.745   5.598   1.184
 4077SOL    HW114128  14.675   5.630   1.240
 4077SOL    HW214129  14.763   5.509   1.216
 4078SOL     OW14130  13.605  12.489   8.392
 4078SOL    HW114131  13.535  12.549   8.418
 4078SOL    HW214132  13.686  12.531   8.422
 4079SOL     OW14133   8.629   9.639   6.418
 4079SOL    HW114134   8.647   9.682   6.502
 4079SOL    HW214135   8.713   9.605   6.390
 4080SOL     OW14136   8.811   6.145  11.818
 4080SOL    HW114137   8.755   6.074  11.848
 4080SOL    HW214138   8.885   6.144  11.879
 4081SOL     OW14139   6.225  14.778   6.992
 4081SOL    HW114140   6.308  14.777   7.040
 4081SOL    HW214141   6.173  14.709   7.032
 4082SOL     OW14142  10.147   2.146   1.923
 4082SOL    HW114143  10.117   2.110   2.006
 4082SOL    HW214144  10.211   2.083   1.891
 4083SOL     OW14145   0.883   6.804   3.648
 4083SOL    HW114146   0.830   6.738   3.693
 4083SOL    HW214147   0.953   6.826   3.710
 4084SOL     OW14148   0.446   1.146   3.512
 4084SOL    HW114149   0.415   1.199   3.438
 4084SOL    HW214150   0.366   1.116   3.555
 4085SOL     OW14151   0.562   7.970  13.940
 4085SOL    HW114152   0.467   7.963  13.932
 4085SOL    HW214153   0.587   8.030  13.869
 4086SOL     OW14154   1.763   0.186   0.640
 4086SOL    HW114155   1.806   0.107   0.673
 4086SOL    HW214156   1.677   0.156   0.612
 4087SOL     OW14157   3.947   1.790   5.977
 4087SOL    HW114158   3.993   1.727   5.922
 4087SOL    HW214159   3.993   1.788   6.061
 4088SOL     OW14160   1.129   3.059   2.205
 4088SOL    HW114161   1.122   3.045   2.299
 4088SOL    HW214162   1.217   3.095   2.193
 4089SOL     OW14163  12.932   1.050  10.765
 4089SOL    HW114164  12.929   1.099  10.683
 4089SOL    HW214165  12.901   0.962  10.742
 4090SOL     OW14166   7.105  11.568   4.659
 4090SOL    HW114167   7.124  11.645   4.713
 4090SOL    HW214168   7.176  11.507   4.679
 4091SOL     OW14169   8.850   0.984  14.232
 4091SOL    HW114170   8.925   1.043  14.237
 4091SOL    HW214171   8.826   0.968  14.324
 4092SOL     OW14172   9.681   0.370   7.335
 4092SOL    HW114173   9.696   0.289   7.286
 4092SOL    HW214174   9.585   0.377   7.339
 4093SOL     OW14175  11.092   5.621   6.169
 4093SOL    HW114176  11.055   5.650   6.085
 4093SOL    HW214177  11.027   5.648   6.234
 4094SOL     OW14178   2.328  12.670  14.533
 4094SOL    HW114179   2.407  12.655  14.584
 4094SOL    HW214180   2.261  12.691  14.598
 4095SOL     OW14181  14.253   3.150   1.436
 4095SOL    HW114182  14.317   3.085   1.464
 4095SOL    HW214183  14.168   3.112   1.460
 4096SOL     OW14184   7.254   7.321   4.500
 4096SOL    HW114185   7.173   7.279   4.529
 4096SOL    HW214186   7.322   7.285   4.556
 4097SOL     OW14187  12.812  14.185   6.071
 4097SOL    HW114188  12.887  14.127   6.088
 4097SOL    HW214189  12.781  14.210   6.158
 4098SOL     OW14190   8.587   8.740  10.572
 4098SOL    HW114191   8.615   8.779  10.655
 4098SOL    HW214192   8.574   8.648  10.592
 4099SOL     OW14193   4.050   9.841   3.961
 4099SOL    HW114194   4.080   9.888   4.039
 4099SOL    HW214195   3.965   9.880   3.940
 4100SOL     OW14196  10.478   7.107   7.454
 4100SOL    HW114197  10.416   7.060   7.510
 4100SOL    HW214198  10.531   7.038   7.414
 4101SOL     OW14199  11.247   9.963   0.788
 4101SOL    HW114200  11.189  10.014   0.844
 4101SOL    HW214201  11.335   9.989   0.815
 4102SOL     OW14202  12.443  12.902   4.945
 4102SOL    HW114203  12.510  12.960   4.907
 4102SOL    HW214204  12.364  12.956   4.948
 4103SOL     OW14205   4.364   4.222   8.224
 4103SOL    HW114206   4.409   4.290   8.274
 4103SOL    HW214207   4.350   4.151   8.286
 4104SOL     OW14208   3.443   3.545   4.364
 4104SOL    HW114209   3.428   3.600   4.440
 4104SOL    HW214210   3.487   3.602   4.301
 4105SOL     OW14211   3.391  10.665  12.211
 4105SOL    HW114212   3.443  10.732  12.256
 4105SOL    HW214213   3.434  10.582  12.234
 4106SOL     OW14214   0.260  10.303   5.049
 4106SOL    HW114215   0.175  10.281   5.089
 4106SOL    HW214216   0.314  10.333   5.122
 4107SOL     OW14217   6.411   0.804  13.183
 4107SOL    HW114218   6.369   0.815  13.098
 4107SOL    HW214219   6.338   0.783  13.243
 4108SOL     OW14220   3.792   1.389   6.991
 4108SOL    HW114221   3.845   1.393   7.070
 4108SOL    HW214222   3.735   1.467   6.996
 4109SOL     OW14223  10.953   9.905  13.670
 4109SOL    HW114224  10.886   9.847  13.708
 4109SOL    HW214225  11.035   9.857  13.680
 4110SOL     OW14226  14.499   8.021   5.838
 4110SOL    HW114227  14.553   8.012   5.759
 4110SOL    HW214228  14.470   8.112   5.836
 4111SOL     OW14229  10.016  11.265   6.001
 4111SOL    HW114230   9.974  11.277   5.915
 4111SOL    HW214231   9.985  11.180   6.032
 4112SOL     OW14232  13.122   4.905  12.211
 4112SOL    HW114233  13.167   4.941  12.133
 4112SOL    HW214234  13.034   4.940  12.205
 4113SOL     OW14235   1.942   2.761   9.436
 4113SOL    HW114236   1.872   2.781   9.373
 4113SOL    HW214237   1.946   2.665   9.436
 4114SOL     OW14238  11.070   8.241   4.359
 4114SOL    HW114239  11.056   8.231   4.265
 4114SOL    HW214240  11.155   8.201   4.376
 4115SOL     OW14241  13.830  10.955   6.838
 4115SOL    HW114242  13.918  10.984   6.862
 4115SOL    HW214243  13.840  10.861   6.822
 4116SOL     OW14244  11.390  10.365   8.363
 4116SOL    HW114245  11.469  10.340   8.411
 4116SOL    HW214246  11.383  10.300   8.293
 4117SOL     OW14247  13.430   6.980   4.158
 4117SOL    HW114248  13.504   6.926   4.132
 4117SOL    HW214249  13.469   7.060   4.192
 4118SOL     OW14250   9.693   2.101  14.866
 4118SOL    HW114251   9.740   2.058   0.065
 4118SOL    HW214252   9.675   2.031  14.803
 4119SOL     OW14253   1.673   8.441   7.115
 4119SOL    HW114254   1.734   8.429   7.188
 4119SOL    HW214255   1.664   8.353   7.077
 4120SOL     OW14256   3.124   5.451   8.421
 4120SOL    HW114257   3.211   5.430   8.387
 4120SOL    HW214258   3.064   5.417   8.355
 4121SOL     OW14259   2.312  11.951  10.030
 4121SOL    HW114260   2.332  11.865  10.067
 4121SOL    HW214261   2.397  11.983   9.997
 4122SOL     OW14262   2.028   0.998  13.665
 4122SOL    HW114263   2.044   1.046  13.746
 4122SOL    HW214264   1.947   1.035  13.631
 4123SOL     OW14265   1.735  13.711  14.612
 4123SOL    HW114266   1.694  13.787  14.571
 4123SOL    HW214267   1.736  13.732  14.706
 4124SOL     OW14268  11.109  13.926   0.829
 4124SOL    HW114269  11.073  13.845   0.866
 4124SOL    HW214270  11.044  13.993   0.849
 4125SOL     OW14271  11.666   6.556   7.349
 4125SOL    HW114272  11.648   6.492   7.280
 4125SOL    HW214273  11.759   6.544   7.368
 4126SOL     OW14274   5.321   9.736  12.053
 4126SOL    HW114275   5.296   9.829  12.052
 4126SOL    HW214276   5.374   9.726  12.132
 4127SOL     OW14277   3.923   5.450   3.299
 4127SOL    HW114278   3.912   5.544   3.283
 4127SOL    HW214279   4.013   5.441   3.329
 4128SOL     OW14280   9.104   8.183   3.529
 4128SOL    HW114281   9.122   8.099   3.489
 4128SOL    HW214282   9.153   8.246   3.476
 4129SOL     OW14283   2.947   0.684  10.556
 4129SOL    HW114284   2.883   0.614  10.544
 4129SOL    HW214285   3.024   0.641  10.591
 4130SOL     OW14286  11.013  12.936   0.873
 4130SOL    HW114287  10.933  12.906   0.829
 4130SOL    HW214288  11.083  12.918   0.811
 4131SOL     OW14289  13.272   0.414   2.188
 4131SOL    HW114290  13.355   0.377   2.157
 4131SOL    HW214291  13.217   0.418   2.109
 4132SOL     OW14292   2.767   0.805   0.253
 4132SOL    HW114293   2.678   0.799   0.288
 4132SOL    HW214294   2.824   0.787   0.328
 4133SOL     OW14295   0.584   3.316  11.939
 4133SOL    HW114296   0.601   3.378  11.868
 4133SOL    HW214297   0.499   3.344  11.975
 4134SOL     OW14298   6.628   7.842   6.751
 4134SOL    HW114299   6.637   7.834   6.846
 4134SOL    HW214300   6.567   7.915   6.739
 4135SOL     OW14301   8.711   6.503   1.194
 4135SOL    HW114302   8.743   6.554   1.119
 4135SOL    HW214303   8.776   6.434   1.205
 4136SOL     OW14304   2.800  11.509   0.293
 4136SOL    HW114305   2.877  11.547   0.336
 4136SOL    HW214306   2.826  11.501   0.201
 4137SOL     OW14307  11.958  10.155  11.851
 4137SOL    HW114308  12.030  10.092  11.854
 4137SOL    HW214309  12.002  10.241  11.853
 4138SOL     OW14310   5.249  13.224   1.894
 4138SOL    HW114311   5.177  13.163   1.912
 4138SOL    HW214312   5.229  13.261   1.808
 4139SOL     OW14313   7.129   2.390  11.790
 4139SOL    HW114314   7.035   2.402  11.796
 4139SOL    HW214315   7.163   2.479  11.775
 4140SOL     OW14316   7.905   6.342   2.473
 4140SOL    HW114317   7.862   6.424   2.449
 4140SOL    HW214318   7.955   6.363   2.552
 4141SOL     OW14319   5.458   8.986   6.167
 4141SOL    HW114320   5.491   9.076   6.161
 4141SOL    HW214321   5.440   8.973   6.260
 4142SOL     OW14322   8.537   3.793   1.853
 4142SOL    HW114323   8.543   3.764   1.944
 4142SOL    HW214324   8.599   3.866   1.847
 4143SOL     OW14325  14.025   0.569  11.167
 4143SOL    HW114326  14.018   0.513  11.244
 4143SOL    HW214327  14.110   0.613  11.177
 4144SOL     OW14328  10.407  13.059   9.883
 4144SOL    HW114329  10.439  13.043   9.794
 4144SOL    HW214330  10.315  13.032   9.881
 4145SOL     OW14331   2.082  14.719  13.695
 4145SOL    HW114332   2.079  14.733  13.600
 4145SOL    HW214333   2.124  14.798  13.729
 4146SOL     OW14334   8.326   5.997   7.635
 4146SOL    HW114335   8.334   5.928   7.569
 4146SOL    HW214336   8.415   6.007   7.670
 4147SOL     OW14337   9.785   0.429   8.520
 4147SOL    HW114338   9.759   0.502   8.577
 4147SOL    HW214339   9.733   0.441   8.441
 4148SOL     OW14340  10.338   7.411  11.761
 4148SOL    HW114341  10.342   7.377  11.672
 4148SOL    HW214342  10.425   7.448  11.777
 4149SOL     OW14343   1.230   0.522   9.097
 4149SOL    HW114344   1.174   0.544   9.023
 4149SOL    HW214345   1.259   0.432   9.080
 4150SOL     OW14346   6.071  12.810  14.788
 4150SOL    HW114347   6.121  12.857  14.722
 4150SOL    HW214348   5.994  12.865  14.804
 4151SOL     OW14349  12.336  10.460  13.334
 4151SOL    HW114350  12.259  10.410  13.307
 4151SOL    HW214351  12.304  10.549  13.349
 4152SOL     OW14352   5.154   1.778   2.821
 4152SOL    HW114353   5.162   1.771   2.726
 4152SOL    HW214354   5.144   1.872   2.837
 4153SOL     OW14355   4.892   6.399  14.078
 4153SOL    HW114356   4.887   6.435  13.989
 4153SOL    HW214357   4.906   6.305  14.064
 4154SOL     OW14358   1.001  11.218   2.978
 4154SOL    HW114359   0.992  11.312   2.960
 4154SOL    HW214360   1.021  11.180   2.892
 4155SOL     OW14361   8.465  12.187   3.455
 4155SOL    HW114362   8.371  12.180   3.437
 4155SOL    HW214363   8.472  12.262   3.514
 4156SOL     OW14364   5.952  13.575  10.048
 4156SOL    HW114365   5.873  13.612  10.088
 4156SOL    HW214366   5.978  13.504  10.107
 4157SOL     OW14367  11.647  10.796   4.419
 4157SOL    HW114368  11.653  10.725   4.354
 4157SOL    HW214369  11.609  10.754   4.496
 4158SOL     OW14370  14.716  14.474   3.870
 4158SOL    HW114371  14.760  14.393   3.846
 4158SOL    HW214372  14.656  14.492   3.798
 4159SOL     OW14373   8.686   5.634   7.748
 4159SOL    HW114374   8.635   5.692   7.805
 4159SOL    HW214375   8.623   5.601   7.684
 4160SOL     OW14376   1.526   6.783   8.912
 4160SOL    HW114377   1.567   6.728   8.978
 4160SOL    HW214378   1.569   6.758   8.830
 4161SOL     OW14379   1.910   3.736  11.015
 4161SOL    HW114380   1.852   3.801  10.976
 4161SOL    HW214381   1.852   3.663  11.039
 4162SOL     OW14382  10.146   6.210   7.831
 4162SOL    HW114383  10.070   6.157   7.852
 4162SOL    HW214384  10.219   6.166   7.875
 4163SOL     OW14385  11.691  12.898   1.815
 4163SOL    HW114386  11.709  12.826   1.875
 4163SOL    HW214387  11.633  12.859   1.749
 4164SOL     OW14388   9.442   8.272   7.240
 4164SOL    HW114389   9.358   8.316   7.254
 4164SOL    HW214390   9.436   8.192   7.292
 4165SOL     OW14391   8.109   0.398  11.403
 4165SOL    HW114392   8.016   0.418  11.419
 4165SOL    HW214393   8.108   0.307  11.372
 4166SOL     OW14394   7.377   5.504   1.982
 4166SOL    HW114395   7.354   5.469   1.896
 4166SOL    HW214396   7.421   5.587   1.963
 4167SOL     OW14397  13.101  11.114   7.689
 4167SOL    HW114398  13.068  11.197   7.655
 4167SOL    HW214399  13.179  11.096   7.638
 4168SOL     OW14400   8.122   9.824   0.508
 4168SOL    HW114401   8.059   9.807   0.578
 4168SOL    HW214402   8.069   9.850   0.433
 4169SOL     OW14403  11.372   3.007   1.590
 4169SOL    HW114404  11.435   2.938   1.609
 4169SOL    HW214405  11.300   2.991   1.651
 4170SOL     OW14406  10.740   6.914  11.306
 4170SOL    HW114407  10.705   6.953  11.226
 4170SOL    HW214408  10.701   6.966  11.377
 4171SOL     OW14409   2.285  10.067   0.700
 4171SOL    HW114410   2.258  10.001   0.764
 4171SOL    HW214411   2.219  10.062   0.631
 4172SOL     OW14412  10.666   7.536   7.660
 4172SOL    HW114413  10.573   7.542   7.637
 4172SOL    HW214414  10.711   7.588   7.593
 4173SOL     OW14415  11.871   6.189   3.702
 4173SOL    HW114416  11.964   6.185   3.682
 4173SOL    HW214417  11.841   6.271   3.663
 4174SOL     OW14418   0.106  13.107   5.238
 4174SOL    HW114419   0.201  13.106   5.255
 4174SOL    HW214420   0.099  13.130   5.145
 4175SOL     OW14421   8.346   4.392   9.992
 4175SOL    HW114422   8.439   4.380   9.972
 4175SOL    HW214423   8.342   4.396  10.088
 4176SOL     OW14424   8.037   7.482  12.670
 4176SOL    HW114425   8.047   7.450  12.580
 4176SOL    HW214426   8.070   7.572  12.667
 4177SOL     OW14427   7.730  11.477   4.074
 4177SOL    HW114428   7.708  11.563   4.110
 4177SOL    HW214429   7.821  11.485   4.045
 4178SOL     OW14430   0.335   8.340  12.339
 4178SOL    HW114431   0.415   8.347  12.286
 4178SOL    HW214432   0.325   8.247  12.355
 4179SOL     OW14433  13.467   6.457  11.331
 4179SOL    HW114434  13.559   6.434  11.338
 4179SOL    HW214435  13.452   6.467  11.237
 4180SOL     OW14436   8.603   3.214   1.975
 4180SOL    HW114437   8.677   3.190   2.031
 4180SOL    HW214438   8.642   3.233   1.890
 4181SOL     OW14439   1.561  13.942   8.903
 4181SOL    HW114440   1.549  13.966   8.995
 4181SOL    HW214441   1.582  13.849   8.905
 4182SOL     OW14442  14.415   9.063  10.821
 4182SOL    HW114443  14.339   9.085  10.768
 4182SOL    HW214444  14.425   9.138  10.880
 4183SOL     OW14445  10.381  10.606   9.759
 4183SOL    HW114446  10.410  10.547   9.690
 4183SOL    HW214447  10.463  10.640   9.797
 4184SOL     OW14448   4.488   3.199  11.184
 4184SOL    HW114449   4.470   3.288  11.215
 4184SOL    HW214450   4.425   3.185  11.113
 4185SOL     OW14451   8.266   6.755   9.187
 4185SOL    HW114452   8.224   6.780   9.269
 4185SOL    HW214453   8.215   6.681   9.155
 4186SOL     OW14454   9.633   5.386   6.494
 4186SOL    HW114455   9.584   5.381   6.576
 4186SOL    HW214456   9.668   5.297   6.482
 4187SOL     OW14457   2.308   3.251   7.500
 4187SOL    HW114458   2.366   3.254   7.424
 4187SOL    HW214459   2.337   3.174   7.549
 4188SOL     OW14460   3.645  11.691  13.492
 4188SOL    HW114461   3.656  11.782  13.462
 4188SOL    HW214462   3.621  11.699  13.584
 4189SOL     OW14463   5.530  11.172   5.630
 4189SOL    HW114464   5.615  11.153   5.670
 4189SOL    HW214465   5.541  11.258   5.589
 4190SOL     OW14466  10.632   0.985   5.245
 4190SOL    HW114467  10.621   0.957   5.154
 4190SOL    HW214468  10.631   0.904   5.296
 4191SOL     OW14469   5.937   1.537   5.321
 4191SOL    HW114470   6.009   1.563   5.379
 4191SOL    HW214471   5.858   1.557   5.371
 4192SOL     OW14472   5.411  12.584   7.831
 4192SOL    HW114473   5.453  12.669   7.836
 4192SOL    HW214474   5.381  12.577   7.741
 4193SOL     OW14475   4.169   5.774   0.310
 4193SOL    HW114476   4.209   5.687   0.300
 4193SOL    HW214477   4.242   5.832   0.330
 4194SOL     OW14478   3.525   9.035   6.678
 4194SOL    HW114479   3.615   9.052   6.650
 4194SOL    HW214480   3.517   8.939   6.678
 4195SOL     OW14481  11.642   1.697  14.865
 4195SOL    HW114482  11.724   1.746  14.857
 4195SOL    HW214483  11.577   1.763   0.020
 4196SOL     OW14484   5.726   6.379   6.806
 4196SOL    HW114485   5.712   6.347   6.717
 4196SOL    HW214486   5.758   6.469   6.794
 4197SOL     OW14487   9.387   8.755   0.698
 4197SOL    HW114488   9.391   8.849   0.682
 4197SOL    HW214489   9.303   8.728   0.661
 4198SOL     OW14490   4.447  14.670   4.607
 4198SOL    HW114491   4.434  14.764   4.616
 4198SOL    HW214492   4.529  14.662   4.558
 4199SOL     OW14493  13.999   2.081   5.106
 4199SOL    HW114494  13.965   2.061   5.018
 4199SOL    HW214495  14.091   2.053   5.103
 4200SOL     OW14496  11.110  10.170   4.092
 4200SOL    HW114497  11.175  10.204   4.154
 4200SOL    HW214498  11.140  10.082   4.071
 4201SOL     OW14499   5.238   9.802   2.965
 4201SOL    HW114500   5.270   9.734   2.905
 4201SOL    HW214501   5.280   9.781   3.048
 4202SOL     OW14502   6.927   6.415   9.599
 4202SOL    HW114503   6.980   6.426   9.520
 4202SOL    HW214504   6.987   6.380   9.664
 4203SOL     OW14505   1.992   4.237   4.128
 4203SOL    HW114506   2.056   4.304   4.153
 4203SOL    HW214507   1.978   4.250   4.035
 4204SOL     OW14508   1.934  13.193   7.636
 4204SOL    HW114509   1.908  13.126   7.573
 4204SOL    HW214510   1.925  13.275   7.588
 4205SOL     OW14511  12.701   7.572   6.147
 4205SOL    HW114512  12.749   7.491   6.163
 4205SOL    HW214513  12.610   7.550   6.170
 4206SOL     OW14514   5.871  11.202   0.932
 4206SOL    HW114515   5.886  11.271   0.869
 4206SOL    HW214516   5.776  11.205   0.949
 4207SOL     OW14517  12.864   9.626  14.234
 4207SOL    HW114518  12.922   9.700  14.247
 4207SOL    HW214519  12.874   9.573  14.313
 4208SOL     OW14520  13.587   2.191   6.316
 4208SOL    HW114521  13.593   2.162   6.407
 4208SOL    HW214522  13.530   2.127   6.273
 4209SOL     OW14523  10.662   2.199   8.117
 4209SOL    HW114524  10.578   2.228   8.080
 4209SOL    HW214525  10.655   2.220   8.211
 4210SOL     OW14526   6.759  10.033   2.269
 4210SOL    HW114527   6.848  10.057   2.297
 4210SOL    HW214528   6.729   9.971   2.336
 4211SOL     OW14529  10.665   2.053   8.973
 4211SOL    HW114530  10.749   2.046   8.929
 4211SOL    HW214531  10.603   2.075   8.903
 4212SOL     OW14532   8.584   2.389   0.990
 4212SOL    HW114533   8.557   2.322   1.053
 4212SOL    HW214534   8.643   2.343   0.930
 4213SOL     OW14535   3.933   3.672   6.000
 4213SOL    HW114536   3.932   3.593   5.945
 4213SOL    HW214537   3.930   3.745   5.938
 4214SOL     OW14538   1.817  10.274   3.090
 4214SOL    HW114539   1.728  10.286   3.056
 4214SOL    HW214540   1.805  10.265   3.184
 4215SOL     OW14541   9.596   0.757   8.048
 4215SOL    HW114542   9.675   0.809   8.037
 4215SOL    HW214543   9.587   0.747   8.143
 4216SOL     OW14544   6.884   6.134  10.448
 4216SOL    HW114545   6.909   6.110  10.359
 4216SOL    HW214546   6.948   6.089  10.504
 4217SOL     OW14547  14.821  11.202   1.123
 4217SOL    HW114548   0.038  11.189   1.154
 4217SOL    HW214549  14.809  11.134   1.056
 4218SOL     OW14550   6.228  11.755   9.185
 4218SOL    HW114551   6.200  11.665   9.202
 4218SOL    HW214552   6.240  11.759   9.090
 4219SOL     OW14553  14.583   9.414  11.243
 4219SOL    HW114554  14.509   9.372  11.199
 4219SOL    HW214555  14.565   9.402  11.337
 4220SOL     OW14556   0.195   9.497  10.372
 4220SOL    HW114557   0.253   9.478  10.446
 4220SOL    HW214558   0.135   9.564  10.405
 4221SOL     OW14559  13.662   9.014  10.651
 4221SOL    HW114560  13.583   9.064  10.633
 4221SOL    HW214561  13.631   8.927  10.677
 4222SOL     OW14562   9.620   5.462   5.578
 4222SOL    HW114563   9.680   5.403   5.624
 4222SOL    HW214564   9.609   5.536   5.638
 4223SOL     OW14565   3.147   1.482  14.690
 4223SOL    HW114566   3.087   1.441  14.628
 4223SOL    HW214567   3.188   1.552  14.641
 4224SOL     OW14568  10.439  12.459   7.547
 4224SOL    HW114569  10.423  12.484   7.638
 4224SOL    HW214570  10.443  12.363   7.548
 4225SOL     OW14571   5.798  10.356   4.360
 4225SOL    HW114572   5.822  10.357   4.453
 4225SOL    HW214573   5.711  10.395   4.357
 4226SOL     OW14574   0.636   7.440  12.220
 4226SOL    HW114575   0.623   7.502  12.292
 4226SOL    HW214576   0.548   7.424  12.186
 4227SOL     OW14577   2.804  13.025   6.741
 4227SOL    HW114578   2.824  13.050   6.650
 4227SOL    HW214579   2.873  12.963   6.764
 4228SOL     OW14580   0.226   8.271   4.841
 4228SOL    HW114581   0.316   8.245   4.864
 4228SOL    HW214582   0.200   8.331   4.911
 4229SOL     OW14583   4.042   6.185   1.580
 4229SOL    HW114584   4.030   6.206   1.487
 4229SOL    HW214585   3.965   6.134   1.603
 4230SOL     OW14586   0.328   7.130   1.045
 4230SOL    HW114587   0.234   7.140   1.030
 4230SOL    HW214588   0.355   7.212   1.086
 4231SOL     OW14589   3.030   1.577   4.395
 4231SOL    HW114590   2.935   1.578   4.383
 4231SOL    HW214591   3.064   1.561   4.307
 4232SOL     OW14592   7.134  11.776   9.206
 4232SOL    HW114593   7.079  11.699   9.192
 4232SOL    HW214594   7.222  11.741   9.221
 4233SOL     OW14595   1.151   1.864   2.188
 4233SOL    HW114596   1.181   1.782   2.149
 4233SOL    HW214597   1.129   1.842   2.278
 4234SOL     OW14598   5.423   2.622   3.098
 4234SOL    HW114599   5.482   2.697   3.099
 4234SOL    HW214600   5.440   2.579   3.014
 4235SOL     OW14601   1.181   4.430   3.765
 4235SOL    HW114602   1.250   4.389   3.816
 4235SOL    HW214603   1.207   4.522   3.760
 4236SOL     OW14604  14.036   0.009   7.612
 4236SOL    HW114605  14.066   0.099   7.623
 4236SOL    HW214606  13.990  14.861   7.694
 4237SOL     OW14607  10.855   6.502   2.216
 4237SOL    HW114608  10.841   6.414   2.252
 4237SOL    HW214609  10.946   6.522   2.240
 4238SOL     OW14610   1.217   4.550  12.718
 4238SOL    HW114611   1.218   4.628  12.773
 4238SOL    HW214612   1.303   4.509  12.733
 4239SOL     OW14613   9.708   0.984   0.480
 4239SOL    HW114614   9.701   0.969   0.574
 4239SOL    HW214615   9.788   0.940   0.454
 4240SOL     OW14616  10.052   1.867   2.249
 4240SOL    HW114617  10.041   1.917   2.168
 4240SOL    HW214618   9.972   1.885   2.299
 4241SOL     OW14619   6.197  11.604   1.382
 4241SOL    HW114620   6.188  11.650   1.299
 4241SOL    HW214621   6.108  11.578   1.405
 4242SOL     OW14622   5.177   0.173   6.772
 4242SOL    HW114623   5.175   0.259   6.813
 4242SOL    HW214624   5.196   0.190   6.679
 4243SOL     OW14625   6.577   7.152  12.649
 4243SOL    HW114626   6.520   7.179  12.578
 4243SOL    HW214627   6.549   7.206  12.724
 4244SOL     OW14628   0.749   5.677   8.780
 4244SOL    HW114629   0.690   5.662   8.854
 4244SOL    HW214630   0.814   5.739   8.813
 4245SOL     OW14631   0.880   3.184   3.675
 4245SOL    HW114632   0.865   3.099   3.633
 4245SOL    HW214633   0.837   3.247   3.617
 4246SOL     OW14634   1.688   7.144   5.281
 4246SOL    HW114635   1.674   7.239   5.279
 4246SOL    HW214636   1.705   7.124   5.373
 4247SOL     OW14637   9.637   0.868   5.740
 4247SOL    HW114638   9.668   0.892   5.828
 4247SOL    HW214639   9.586   0.788   5.754
 4248SOL     OW14640   2.678  11.829   1.051
 4248SOL    HW114641   2.659  11.753   1.106
 4248SOL    HW214642   2.593  11.871   1.038
 4249SOL     OW14643   5.047   0.025   0.349
 4249SOL    HW114644   4.988   0.084   0.302
 4249SOL    HW214645   4.989  14.845   0.406
 4250SOL     OW14646   2.588  14.313  11.489
 4250SOL    HW114647   2.570  14.334  11.398
 4250SOL    HW214648   2.677  14.279  11.489
 4251SOL     OW14649   9.667   1.105   1.487
 4251SOL    HW114650   9.754   1.068   1.501
 4251SOL    HW214651   9.608   1.044   1.530
 4252SOL     OW14652  12.991   4.856  14.382
 4252SOL    HW114653  12.991   4.936  14.329
 4252SOL    HW214654  13.011   4.786  14.319
 4253SOL     OW14655   1.241  13.117  12.690
 4253SOL    HW114656   1.145  13.127  12.686
 4253SOL    HW214657   1.271  13.197  12.733
 4254SOL     OW14658  14.552   3.712   7.855
 4254SOL    HW114659  14.547   3.665   7.938
 4254SOL    HW214660  14.466   3.756   7.847
 4255SOL     OW14661  14.416   2.631  11.349
 4255SOL    HW114662  14.342   2.578  11.379
 4255SOL    HW214663  14.409   2.712  11.398
 4256SOL     OW14664   0.085   9.240  13.261
 4256SOL    HW114665   0.036   9.162  13.288
 4256SOL    HW214666   0.167   9.236  13.311
 4257SOL     OW14667   7.752   8.110   7.900
 4257SOL    HW114668   7.662   8.097   7.929
 4257SOL    HW214669   7.746   8.111   7.804
 4258SOL     OW14670   6.680  13.278   8.600
 4258SOL    HW114671   6.746  13.267   8.669
 4258SOL    HW214672   6.606  13.318   8.645
 4259SOL     OW14673   1.395   1.697   3.719
 4259SOL    HW114674   1.465   1.652   3.672
 4259SOL    HW214675   1.429   1.707   3.808
 4260SOL     OW14676  11.304   1.241   1.771
 4260SOL    HW114677  11.393   1.233   1.737
 4260SOL    HW214678  11.293   1.164   1.827
 4261SOL     OW14679   8.238   8.146   3.342
 4261SOL    HW114680   8.234   8.061   3.300
 4261SOL    HW214681   8.302   8.136   3.412
 4262SOL     OW14682   1.978   4.750   4.663
 4262SOL    HW114683   1.994   4.744   4.757
 4262SOL    HW214684   1.904   4.691   4.647
 4263SOL     OW14685   2.415   3.155  12.046
 4263SOL    HW114686   2.496   3.108  12.024
 4263SOL    HW214687   2.396   3.129  12.136
 4264SOL     OW14688  13.645  12.355  10.600
 4264SOL    HW114689  13.568  12.401  10.566
 4264SOL    HW214690  13.705  12.425  10.626
 4265SOL     OW14691   2.304  10.106   4.801
 4265SOL    HW114692   2.399  10.112   4.812
 4265SOL    HW214693   2.287  10.147   4.716
 4266SOL     OW14694   7.687   3.076   8.038
 4266SOL    HW114695   7.669   3.115   8.123
 4266SOL    HW214696   7.675   2.982   8.052
 4267SOL     OW14697  10.506   5.711   1.110
 4267SOL    HW114698  10.473   5.779   1.168
 4267SOL    HW214699  10.467   5.731   1.025
 4268SOL     OW14700  12.762  13.410  14.414
 4268SOL    HW114701  12.774  13.505  14.423
 4268SOL    HW214702  12.851  13.377  14.403
 4269SOL     OW14703   6.047   7.631  12.378
 4269SOL    HW114704   6.030   7.609  12.287
 4269SOL    HW214705   5.961   7.637  12.419
 4270SOL     OW14706  12.784   9.252  12.280
 4270SOL    HW114707  12.816   9.342  12.269
 4270SOL    HW214708  12.734   9.235  12.200
 4271SOL     OW14709  14.215   3.842   5.007
 4271SOL    HW114710  14.229   3.802   5.093
 4271SOL    HW214711  14.280   3.799   4.950
 4272SOL     OW14712   4.716   0.406   3.744
 4272SOL    HW114713   4.756   0.444   3.822
 4272SOL    HW214714   4.671   0.328   3.775
 4273SOL     OW14715  11.943   6.269  12.386
 4273SOL    HW114716  12.020   6.320  12.364
 4273SOL    HW214717  11.869   6.319  12.350
 4274SOL     OW14718   6.384   8.755   2.742
 4274SOL    HW114719   6.382   8.751   2.838
 4274SOL    HW214720   6.472   8.725   2.719
 4275SOL     OW14721   6.676  13.317   1.508
 4275SOL    HW114722   6.759  13.351   1.540
 4275SOL    HW214723   6.687  13.313   1.413
 4276SOL     OW14724   0.604   1.832  13.072
 4276SOL    HW114725   0.668   1.861  13.137
 4276SOL    HW214726   0.636   1.869  12.989
 4277SOL     OW14727   6.202   5.057   9.525
 4277SOL    HW114728   6.279   5.104   9.558
 4277SOL    HW214729   6.128   5.114   9.545
 4278SOL     OW14730  12.508   3.462   0.008
 4278SOL    HW114731  12.432   3.407  14.861
 4278SOL    HW214732  12.576   3.430  14.820
 4279SOL     OW14733  12.143   7.773   1.990
 4279SOL    HW114734  12.087   7.707   1.948
 4279SOL    HW214735  12.081   7.831   2.034
 4280SOL     OW14736  12.922   0.098   4.129
 4280SOL    HW114737  12.876   0.037   4.071
 4280SOL    HW214738  12.869   0.178   4.126
 4281SOL     OW14739   9.672  10.615   9.713
 4281SOL    HW114740   9.597  10.649   9.763
 4281SOL    HW214741   9.748  10.659   9.751
 4282SOL     OW14742   5.839  11.686   2.077
 4282SOL    HW114743   5.805  11.775   2.068
 4282SOL    HW214744   5.802  11.639   2.002
 4283SOL     OW14745  14.059   8.259   1.661
 4283SOL    HW114746  14.094   8.347   1.679
 4283SOL    HW214747  13.964   8.269   1.673
 4284SOL     OW14748   3.310   4.188   7.902
 4284SOL    HW114749   3.384   4.172   7.844
 4284SOL    HW214750   3.250   4.115   7.885
 4285SOL     OW14751   7.249   0.402   6.694
 4285SOL    HW114752   7.223   0.454   6.770
 4285SOL    HW214753   7.240   0.462   6.620
 4286SOL     OW14754   7.207   9.746   6.144
 4286SOL    HW114755   7.201   9.837   6.175
 4286SOL    HW214756   7.163   9.695   6.212
 4287SOL     OW14757   1.180  10.867  13.066
 4287SOL    HW114758   1.137  10.878  12.981
 4287SOL    HW214759   1.228  10.949  13.080
 4288SOL     OW14760   5.389   0.290   4.968
 4288SOL    HW114761   5.417   0.334   4.888
 4288SOL    HW214762   5.368   0.201   4.940
 4289SOL     OW14763  13.384   2.201   1.397
 4289SOL    HW114764  13.370   2.114   1.433
 4289SOL    HW214765  13.472   2.225   1.426
 4290SOL     OW14766  10.112   0.675  13.931
 4290SOL    HW114767  10.068   0.591  13.943
 4290SOL    HW214768  10.087   0.703  13.843
 4291SOL     OW14769   3.105  10.470   6.722
 4291SOL    HW114770   3.179  10.431   6.676
 4291SOL    HW214771   3.123  10.453   6.815
 4292SOL     OW14772   6.874   6.596  13.316
 4292SOL    HW114773   6.827   6.515  13.335
 4292SOL    HW214774   6.894   6.634  13.402
 4293SOL     OW14775   2.111   0.603  11.182
 4293SOL    HW114776   2.116   0.671  11.116
 4293SOL    HW214777   2.034   0.626  11.234
 4294SOL     OW14778  14.266   0.694   2.773
 4294SOL    HW114779  14.283   0.606   2.809
 4294SOL    HW214780  14.239   0.745   2.849
 4295SOL     OW14781   9.617   1.884   0.656
 4295SOL    HW114782   9.538   1.872   0.603
 4295SOL    HW214783   9.679   1.927   0.598
 4296SOL     OW14784   9.448   4.662   4.290
 4296SOL    HW114785   9.523   4.614   4.326
 4296SOL    HW214786   9.371   4.617   4.324
 4297SOL     OW14787   8.123   6.272   8.206
 4297SOL    HW114788   8.131   6.343   8.270
 4297SOL    HW214789   8.144   6.313   8.122
 4298SOL     OW14790   8.182  12.535   6.735
 4298SOL    HW114791   8.227  12.538   6.820
 4298SOL    HW214792   8.228  12.466   6.687
 4299SOL     OW14793   5.318   8.815   0.025
 4299SOL    HW114794   5.311   8.899  14.851
 4299SOL    HW214795   5.227   8.785   0.033
 4300SOL     OW14796   0.497   9.982   9.402
 4300SOL    HW114797   0.471  10.064   9.359
 4300SOL    HW214798   0.459   9.913   9.348
 4301SOL     OW14799   0.503   1.755   4.786
 4301SOL    HW114800   0.588   1.725   4.817
 4301SOL    HW214801   0.518   1.780   4.695
 4302SOL     OW14802   2.364  13.671  14.115
 4302SOL    HW114803   2.375  13.598  14.055
 4302SOL    HW214804   2.271  13.695  14.108
 4303SOL     OW14805   3.997   8.972  12.631
 4303SOL    HW114806   3.977   9.036  12.563
 4303SOL    HW214807   3.964   8.889  12.596
 4304SOL     OW14808  11.001   8.587  12.032
 4304SOL    HW114809  11.094   8.599  12.050
 4304SOL    HW214810  10.983   8.647  11.960
 4305SOL     OW14811  10.771  14.577  12.097
 4305SOL    HW114812  10.707  14.593  12.167
 4305SOL    HW214813  10.755  14.647  12.034
 4306SOL     OW14814   4.628  13.855  10.852
 4306SOL    HW114815   4.655  13.947  10.846
 4306SOL    HW214816   4.578  13.840  10.772
 4307SOL     OW14817  14.257   2.531   0.792
 4307SOL    HW114818  14.297   2.467   0.851
 4307SOL    HW214819  14.235   2.481   0.713
 4308SOL     OW14820   9.345  13.968  12.650
 4308SOL    HW114821   9.386  13.996  12.568
 4308SOL    HW214822   9.290  14.042  12.676
 4309SOL     OW14823   0.886   9.355   2.019
 4309SOL    HW114824   0.907   9.296   1.946
 4309SOL    HW214825   0.923   9.439   1.993
 4310SOL     OW14826   6.735  11.713  11.660
 4310SOL    HW114827   6.768  11.762  11.584
 4310SOL    HW214828   6.761  11.623  11.644
 4311SOL     OW14829   9.171   9.907  11.163
 4311SOL    HW114830   9.092   9.912  11.217
 4311SOL    HW214831   9.178   9.815  11.138
 4312SOL     OW14832   0.579   1.944  13.733
 4312SOL    HW114833   0.551   2.033  13.712
 4312SOL    HW214834   0.513   1.888  13.692
 4313SOL     OW14835   8.052   9.228   2.202
 4313SOL    HW114836   8.142   9.196   2.195
 4313SOL    HW214837   8.051   9.281   2.281
 4314SOL     OW14838   7.589  10.282   7.654
 4314SOL    HW114839   7.612  10.373   7.671
 4314SOL    HW214840   7.631  10.262   7.570
 4315SOL     OW14841   7.216   7.356   0.622
 4315SOL    HW114842   7.270   7.369   0.543
 4315SOL    HW214843   7.272   7.387   0.694
 4316SOL     OW14844  11.587  13.431   5.559
 4316SOL    HW114845  11.581  13.370   5.485
 4316SOL    HW214846  11.579  13.375   5.636
 4317SOL     OW14847  10.021   2.659   0.395
 4317SOL    HW114848  10.006   2.598   0.467
 4317SOL    HW214849  10.109   2.695   0.412
 4318SOL     OW14850   0.039  14.338   6.090
 4318SOL    HW114851   0.098  14.374   6.157
 4318SOL    HW214852   0.097  14.314   6.018
 4319SOL     OW14853  13.447   6.098   1.373
 4319SOL    HW114854  13.389   6.131   1.303
 4319SOL    HW214855  13.518   6.054   1.326
 4320SOL     OW14856   8.639   1.133  12.831
 4320SOL    HW114857   8.661   1.154  12.741
 4320SOL    HW214858   8.719   1.152  12.881
 4321SOL     OW14859   4.135   1.409   1.414
 4321SOL    HW114860   4.056   1.395   1.466
 4321SOL    HW214861   4.189   1.332   1.432
 4322SOL     OW14862   5.619  11.769  12.051
 4322SOL    HW114863   5.698  11.786  11.999
 4322SOL    HW214864   5.638  11.809  12.136
 4323SOL     OW14865   1.298  12.498   6.351
 4323SOL    HW114866   1.298  12.429   6.285
 4323SOL    HW214867   1.312  12.453   6.434
 4324SOL     OW14868   4.813  12.991  12.590
 4324SOL    HW114869   4.874  12.937  12.640
 4324SOL    HW214870   4.794  13.065  12.648
 4325SOL     OW14871   0.928   0.182   7.185
 4325SOL    HW114872   0.918   0.087   7.177
 4325SOL    HW214873   0.968   0.209   7.103
 4326SOL     OW14874   4.678   1.015   1.343
 4326SOL    HW114875   4.754   0.965   1.371
 4326SOL    HW214876   4.629   1.031   1.424
 4327SOL     OW14877  14.606   2.049  12.356
 4327SOL    HW114878  14.695   2.015  12.360
 4327SOL    HW214879  14.578   2.032  12.266
 4328SOL     OW14880   1.415   0.931  10.449
 4328SOL    HW114881   1.511   0.938  10.449
 4328SOL    HW214882   1.386   1.010  10.494
 4329SOL     OW14883   3.598   1.393  12.524
 4329SOL    HW114884   3.679   1.444  12.533
 4329SOL    HW214885   3.626   1.302  12.524
 4330SOL     OW14886  10.523   5.113  11.888
 4330SOL    HW114887  10.531   5.127  11.794
 4330SOL    HW214888  10.451   5.169  11.915
 4331SOL     OW14889   1.158  14.332   0.323
 4331SOL    HW114890   1.084  14.390   0.343
 4331SOL    HW214891   1.151  14.317   0.229
 4332SOL     OW14892  11.988   9.081   4.828
 4332SOL    HW114893  11.928   9.102   4.900
 4332SOL    HW214894  12.011   8.990   4.842
 4333SOL     OW14895   0.163   4.871   3.383
 4333SOL    HW114896   0.162   4.828   3.469
 4333SOL    HW214897   0.217   4.813   3.328
 4334SOL     OW14898  13.545   6.425   3.960
 4334SOL    HW114899  13.521   6.332   3.963
 4334SOL    HW214900  13.503   6.463   4.037
 4335SOL     OW14901   5.743   4.375   0.285
 4335SOL    HW114902   5.770   4.294   0.329
 4335SOL    HW214903   5.738   4.440   0.355
 4336SOL     OW14904  11.443   8.625   0.208
 4336SOL    HW114905  11.457   8.580   0.125
 4336SOL    HW214906  11.348   8.636   0.213
 4337SOL     OW14907  14.823  11.309   6.783
 4337SOL    HW114908   0.006  11.360   6.843
 4337SOL    HW214909  14.735  11.346   6.793
 4338SOL     OW14910   6.769  14.523   5.820
 4338SOL    HW114911   6.681  14.489   5.836
 4338SOL    HW214912   6.827  14.450   5.843
 4339SOL     OW14913   0.090   6.945   0.814
 4339SOL    HW114914   0.038   6.976   0.740
 4339SOL    HW214915   0.167   6.903   0.774
 4340SOL     OW14916  12.349   4.163   2.393
 4340SOL    HW114917  12.435   4.188   2.425
 4340SOL    HW214918  12.290   4.229   2.429
 4341SOL     OW14919   5.718   8.985   8.417
 4341SOL    HW114920   5.709   8.952   8.506
 4341SOL    HW214921   5.807   8.960   8.390
 4342SOL     OW14922   7.971   9.121   7.283
 4342SOL    HW114923   7.942   9.180   7.213
 4342SOL    HW214924   8.009   9.180   7.348
 4343SOL     OW14925   6.643   7.810  11.005
 4343SOL    HW114926   6.644   7.742  10.937
 4343SOL    HW214927   6.657   7.891  10.957
 4344SOL     OW14928  11.574   1.340   6.588
 4344SOL    HW114929  11.592   1.368   6.499
 4344SOL    HW214930  11.652   1.291   6.614
 4345SOL     OW14931   1.422  11.495   0.041
 4345SOL    HW114932   1.386  11.581   0.064
 4345SOL    HW214933   1.462  11.464   0.122
 4346SOL     OW14934   1.321   0.559  11.691
 4346SOL    HW114935   1.341   0.653  11.698
 4346SOL    HW214936   1.407   0.517  11.689
 4347SOL     OW14937  12.311   1.476   8.180
 4347SOL    HW114938  12.391   1.437   8.146
 4347SOL    HW214939  12.340   1.551   8.232
 4348SOL     OW14940   8.666  10.551  14.796
 4348SOL    HW114941   8.722  10.474  14.789
 4348SOL    HW214942   8.586  10.527  14.749
 4349SOL     OW14943  12.999   4.896  11.625
 4349SOL    HW114944  12.925   4.953  11.647
 4349SOL    HW214945  13.032   4.929  11.542
 4350SOL     OW14946   6.228  13.777   8.689
 4350SOL    HW114947   6.288  13.832   8.739
 4350SOL    HW214948   6.147  13.777   8.740
 4351SOL     OW14949   8.106   5.915  14.163
 4351SOL    HW114950   8.104   5.828  14.123
 4351SOL    HW214951   8.118   5.898  14.256
 4352SOL     OW14952   8.946  10.019   0.701
 4352SOL    HW114953   8.873  10.057   0.651
 4352SOL    HW214954   8.988   9.958   0.641
 4353SOL     OW14955  12.101   5.708   9.435
 4353SOL    HW114956  12.041   5.781   9.423
 4353SOL    HW214957  12.154   5.706   9.356
 4354SOL     OW14958   8.994   8.041  10.668
 4354SOL    HW114959   9.020   8.012  10.755
 4354SOL    HW214960   9.046   7.986  10.608
 4355SOL     OW14961   0.513   1.683   2.828
 4355SOL    HW114962   0.570   1.739   2.775
 4355SOL    HW214963   0.463   1.633   2.764
 4356SOL     OW14964  12.531   4.745  13.303
 4356SOL    HW114965  12.557   4.837  13.306
 4356SOL    HW214966  12.473   4.739  13.226
 4357SOL     OW14967   6.014   7.860   1.472
 4357SOL    HW114968   5.966   7.815   1.542
 4357SOL    HW214969   6.004   7.802   1.396
 4358SOL     OW14970   1.063  13.950   0.506
 4358SOL    HW114971   1.133  13.985   0.561
 4358SOL    HW214972   1.079  13.855   0.504
 4359SOL     OW14973  12.020   9.002   8.327
 4359SOL    HW114974  12.105   8.965   8.352
 4359SOL    HW214975  12.037   9.045   8.244
 4360SOL     OW14976  13.598   1.410  11.339
 4360SOL    HW114977  13.569   1.397  11.249
 4360SOL    HW214978  13.575   1.501  11.358
 4361SOL     OW14979   4.379   5.537   6.796
 4361SOL    HW114980   4.432   5.606   6.756
 4361SOL    HW214981   4.302   5.530   6.739
 4362SOL     OW14982   2.052   1.121   5.373
 4362SOL    HW114983   2.027   1.208   5.405
 4362SOL    HW214984   2.029   1.122   5.280
 4363SOL     OW14985   0.343   6.402  12.204
 4363SOL    HW114986   0.363   6.494  12.219
 4363SOL    HW214987   0.273   6.382  12.266
 4364SOL     OW14988  12.281   5.720   3.270
 4364SOL    HW114989  12.359   5.665   3.261
 4364SOL    HW214990  12.208   5.662   3.250
 4365SOL     OW14991   3.359   1.684   1.166
 4365SOL    HW114992   3.331   1.731   1.087
 4365SOL    HW214993   3.437   1.635   1.138
 4366SOL     OW14994  11.984   1.894  11.526
 4366SOL    HW114995  11.922   1.966  11.538
 4366SOL    HW214996  11.936   1.816  11.555
 4367SOL     OW14997  13.849   2.044   8.814
 4367SOL    HW114998  13.915   2.015   8.751
 4367SOL    HW214999  13.892   2.116   8.861
 4368SOL     OW15000  12.698   7.657   8.368
 4368SOL    HW115001  12.697   7.695   8.456
 4368SOL    HW215002  12.695   7.732   8.310
 4369SOL     OW15003  14.194   5.635   3.856
 4369SOL    HW115004  14.198   5.557   3.801
 4369SOL    HW215005  14.239   5.702   3.806
 4370SOL     OW15006  14.819   4.204   4.303
 4370SOL    HW115007   0.024   4.259   4.315
 4370SOL    HW215008  14.759   4.256   4.250
 4371SOL     OW15009  12.474   1.783   6.405
 4371SOL    HW115010  12.441   1.842   6.472
 4371SOL    HW215011  12.435   1.698   6.426
 4372SOL     OW15012   0.563   7.289  14.514
 4372SOL    HW115013   0.591   7.205  14.551
 4372SOL    HW215014   0.629   7.351  14.543
 4373SOL     OW15015   2.269   4.811   0.688
 4373SOL    HW115016   2.249   4.769   0.772
 4373SOL    HW215017   2.246   4.903   0.701
 4374SOL     OW15018   2.093   9.110   1.809
 4374SOL    HW115019   2.015   9.141   1.855
 4374SOL    HW215020   2.068   9.110   1.716
 4375SOL     OW15021   8.398   0.992   8.054
 4375SOL    HW115022   8.443   0.907   8.050
 4375SOL    HW215023   8.370   1.008   7.964
 4376SOL     OW15024  11.668  14.554  10.145
 4376SOL    HW115025  11.666  14.538  10.050
 4376SOL    HW215026  11.758  14.536  10.170
 4377SOL     OW15027   2.880   2.184   5.543
 4377SOL    HW115028   2.940   2.177   5.617
 4377SOL    HW215029   2.803   2.133   5.570
 4378SOL     OW15030   2.590   9.153  12.682
 4378SOL    HW115031   2.618   9.127  12.769
 4378SOL    HW215032   2.502   9.115  12.673
 4379SOL     OW15033   1.942   7.049   3.174
 4379SOL    HW115034   1.875   7.037   3.107
 4379SOL    HW215035   2.005   7.109   3.134
 4380SOL     OW15036   4.814  11.031   1.608
 4380SOL    HW115037   4.750  10.960   1.620
 4380SOL    HW215038   4.860  11.035   1.692
 4381SOL     OW15039   3.713  12.775   5.865
 4381SOL    HW115040   3.669  12.858   5.884
 4381SOL    HW215041   3.793  12.801   5.819
 4382SOL     OW15042  10.918   0.578   7.837
 4382SOL    HW115043  10.990   0.519   7.815
 4382SOL    HW215044  10.946   0.622   7.917
 4383SOL     OW15045   9.501   2.489  13.922
 4383SOL    HW115046   9.495   2.429  13.848
 4383SOL    HW215047   9.515   2.575  13.882
 4384SOL     OW15048  13.539  11.302   1.187
 4384SOL    HW115049  13.603  11.232   1.200
 4384SOL    HW215050  13.539  11.349   1.270
 4385SOL     OW15051   2.743   5.715   2.993
 4385SOL    HW115052   2.764   5.790   2.937
 4385SOL    HW215053   2.827   5.689   3.030
 4386SOL     OW15054   2.258   0.600   8.430
 4386SOL    HW115055   2.284   0.515   8.393
 4386SOL    HW215056   2.242   0.655   8.353
 4387SOL     OW15057  10.693   0.220  14.470
 4387SOL    HW115058  10.624   0.253  14.528
 4387SOL    HW215059  10.653   0.144  14.428
 4388SOL     OW15060   8.081  14.587   2.207
 4388SOL    HW115061   8.006  14.617   2.156
 4388SOL    HW215062   8.046  14.572   2.294
 4389SOL     OW15063  11.784   7.832   2.330
 4389SOL    HW115064  11.855   7.769   2.343
 4389SOL    HW215065  11.788   7.889   2.407
 4390SOL     OW15066   5.617   4.615   7.459
 4390SOL    HW115067   5.639   4.680   7.392
 4390SOL    HW215068   5.697   4.606   7.511
 4391SOL     OW15069  12.863   2.181  13.786
 4391SOL    HW115070  12.943   2.228  13.810
 4391SOL    HW215071  12.803   2.249  13.755
 4392SOL     OW15072   9.768   3.001   8.368
 4392SOL    HW115073   9.710   3.012   8.292
 4392SOL    HW215074   9.794   2.909   8.365
 4393SOL     OW15075   4.784  11.634   8.094
 4393SOL    HW115076   4.717  11.702   8.085
 4393SOL    HW215077   4.826  11.652   8.178
 4394SOL     OW15078   1.664   0.369  11.264
 4394SOL    HW115079   1.661   0.450  11.213
 4394SOL    HW215080   1.578   0.329  11.248
 4395SOL     OW15081   0.540  10.405  12.183
 4395SOL    HW115082   0.462  10.376  12.137
 4395SOL    HW215083   0.543  10.500  12.169
 4396SOL     OW15084   6.219  12.105  14.537
 4396SOL    HW115085   6.303  12.136  14.505
 4396SOL    HW215086   6.186  12.049  14.467
 4397SOL     OW15087  12.638   0.462   5.871
 4397SOL    HW115088  12.559   0.412   5.889
 4397SOL    HW215089  12.707   0.395   5.864
 4398SOL     OW15090   2.435   5.724   8.512
 4398SOL    HW115091   2.421   5.801   8.457
 4398SOL    HW215092   2.372   5.659   8.481
 4399SOL     OW15093   0.320  13.926  10.194
 4399SOL    HW115094   0.318  13.863  10.121
 4399SOL    HW215095   0.319  14.011  10.151
 4400SOL     OW15096   3.287   2.093  14.557
 4400SOL    HW115097   3.197   2.073  14.529
 4400SOL    HW215098   3.337   2.095  14.476
 4401SOL     OW15099   1.116  13.273   1.215
 4401SOL    HW115100   1.049  13.214   1.181
 4401SOL    HW215101   1.070  13.326   1.281
 4402SOL     OW15102   7.525  12.653   1.946
 4402SOL    HW115103   7.514  12.601   1.867
 4402SOL    HW215104   7.436  12.666   1.979
 4403SOL     OW15105  14.161  14.537  10.465
 4403SOL    HW115106  14.189  14.555  10.555
 4403SOL    HW215107  14.234  14.487  10.427
 4404SOL     OW15108   7.689   6.919  12.496
 4404SOL    HW115109   7.712   6.972  12.419
 4404SOL    HW215110   7.756   6.851  12.498
 4405SOL     OW15111   9.249  11.138  11.065
 4405SOL    HW115112   9.176  11.146  11.004
 4405SOL    HW215113   9.237  11.052  11.105
 4406SOL     OW15114   8.269  11.306   5.902
 4406SOL    HW115115   8.184  11.279   5.867
 4406SOL    HW215116   8.248  11.374   5.966
 4407SOL     OW15117   7.365  14.118   7.415
 4407SOL    HW115118   7.402  14.192   7.462
 4407SOL    HW215119   7.333  14.154   7.332
 4408SOL     OW15120   7.157   5.754   5.968
 4408SOL    HW115121   7.137   5.677   5.915
 4408SOL    HW215122   7.189   5.719   6.051
 4409SOL     OW15123  14.626   3.692   0.264
 4409SOL    HW115124  14.686   3.622   0.289
 4409SOL    HW215125  14.628   3.693   0.169
 4410SOL     OW15126   3.139   7.850  13.371
 4410SOL    HW115127   3.184   7.773  13.338
 4410SOL    HW215128   3.207   7.900  13.417
 4411SOL     OW15129   5.032  12.172   6.781
 4411SOL    HW115130   5.052  12.212   6.866
 4411SOL    HW215131   5.107  12.194   6.725
 4412SOL     OW15132   4.402   8.417   4.319
 4412SOL    HW115133   4.418   8.489   4.380
 4412SOL    HW215134   4.355   8.352   4.370
 4413SOL     OW15135   9.515  10.365   4.245
 4413SOL    HW115136   9.474  10.328   4.324
 4413SOL    HW215137   9.443  10.406   4.198
 4414SOL     OW15138   3.900   4.936  10.537
 4414SOL    HW115139   3.974   4.887  10.501
 4414SOL    HW215140   3.933   5.025  10.547
 4415SOL     OW15141  13.826   9.848  12.370
 4415SOL    HW115142  13.875   9.884  12.296
 4415SOL    HW215143  13.853   9.756  12.375
 4416SOL     OW15144   2.925   6.453  13.538
 4416SOL    HW115145   2.947   6.534  13.492
 4416SOL    HW215146   2.836   6.432  13.508
 4417SOL     OW15147  12.244   1.160   7.004
 4417SOL    HW115148  12.264   1.164   6.910
 4417SOL    HW215149  12.194   1.080   7.015
 4418SOL     OW15150   4.947  14.524  13.189
 4418SOL    HW115151   4.956  14.501  13.097
 4418SOL    HW215152   4.907  14.447  13.229
 4419SOL     OW15153  12.619   9.196   5.506
 4419SOL    HW115154  12.645   9.157   5.423
 4419SOL    HW215155  12.526   9.214   5.496
 4420SOL     OW15156   4.200   4.450  14.678
 4420SOL    HW115157   4.243   4.452  14.764
 4420SOL    HW215158   4.211   4.538  14.643
 4421SOL     OW15159  14.605   1.674   9.173
 4421SOL    HW115160  14.654   1.600   9.137
 4421SOL    HW215161  14.521   1.636   9.198
 4422SOL     OW15162   2.116  13.585   8.861
 4422SOL    HW115163   2.108  13.575   8.767
 4422SOL    HW215164   2.051  13.652   8.884
 4423SOL     OW15165  11.600   3.318  10.205
 4423SOL    HW115166  11.593   3.412  10.221
 4423SOL    HW215167  11.531   3.298  10.142
 4424SOL     OW15168   6.319  12.801   2.607
 4424SOL    HW115169   6.249  12.866   2.602
 4424SOL    HW215170   6.394  12.849   2.641
 4425SOL     OW15171  14.676   8.426  13.401
 4425SOL    HW115172  14.666   8.348  13.455
 4425SOL    HW215173  14.620   8.491  13.442
 4426SOL     OW15174  12.825  12.410  13.559
 4426SOL    HW115175  12.733  12.431  13.570
 4426SOL    HW215176  12.872  12.475  13.612
 4427SOL     OW15177   5.569   8.172   7.242
 4427SOL    HW115178   5.626   8.174   7.164
 4427SOL    HW215179   5.552   8.079   7.256
 4428SOL     OW15180   7.467   5.035   5.728
 4428SOL    HW115181   7.395   5.008   5.785
 4428SOL    HW215182   7.527   5.083   5.787
 4429SOL     OW15183  10.042   6.508  12.882
 4429SOL    HW115184  10.119   6.551  12.919
 4429SOL    HW215185  10.020   6.559  12.804
 4430SOL     OW15186   1.669   7.215  12.964
 4430SOL    HW115187   1.710   7.255  13.041
 4430SOL    HW215188   1.687   7.276  12.892
 4431SOL     OW15189   8.172   1.981  11.649
 4431SOL    HW115190   8.218   1.932  11.717
 4431SOL    HW215191   8.154   2.066  11.690
 4432SOL     OW15192   0.371   7.729   3.724
 4432SOL    HW115193   0.425   7.666   3.773
 4432SOL    HW215194   0.294   7.743   3.779
 4433SOL     OW15195  13.017   3.438   5.868
 4433SOL    HW115196  12.935   3.475   5.836
 4433SOL    HW215197  13.020   3.462   5.960
 4434SOL     OW15198   4.230   7.303   8.558
 4434SOL    HW115199   4.301   7.351   8.516
 4434SOL    HW215200   4.243   7.212   8.531
 4435SOL     OW15201  10.749   9.017   1.817
 4435SOL    HW115202  10.669   9.054   1.854
 4435SOL    HW215203  10.775   8.949   1.879
 4436SOL     OW15204  11.321   3.459   6.439
 4436SOL    HW115205  11.324   3.494   6.528
 4436SOL    HW215206  11.370   3.522   6.387
 4437SOL     OW15207  10.995   8.353   5.693
 4437SOL    HW115208  11.064   8.310   5.642
 4437SOL    HW215209  10.999   8.310   5.779
 4438SOL     OW15210   7.105   7.040   4.391
 4438SOL    HW115211   7.189   7.064   4.352
 4438SOL    HW215212   7.116   6.949   4.417
 4439SOL     OW15213  14.116   5.332  14.559
 4439SOL    HW115214  14.111   5.273  14.634
 4439SOL    HW215215  14.034   5.318  14.512
 4440SOL     OW15216  10.174   8.222   0.999
 4440SOL    HW115217  10.124   8.203   0.920
 4440SOL    HW215218  10.217   8.305   0.982
 4441SOL     OW15219   2.801   0.619  10.846
 4441SOL    HW115220   2.766   0.617  10.756
 4441SOL    HW215221   2.896   0.627  10.834
 4442SOL     OW15222   4.157  14.327   4.213
 4442SOL    HW115223   4.185  14.357   4.299
 4442SOL    HW215224   4.197  14.240   4.204
 4443SOL     OW15225   4.827  14.004  11.916
 4443SOL    HW115226   4.755  14.008  11.853
 4443SOL    HW215227   4.786  14.018  12.001
 4444SOL     OW15228   5.827   4.508   2.142
 4444SOL    HW115229   5.824   4.420   2.102
 4444SOL    HW215230   5.921   4.529   2.145
 4445SOL     OW15231   3.540   6.537   6.468
 4445SOL    HW115232   3.567   6.549   6.559
 4445SOL    HW215233   3.592   6.602   6.420
 4446SOL     OW15234   1.472  13.708   6.505
 4446SOL    HW115235   1.561  13.715   6.470
 4446SOL    HW215236   1.465  13.781   6.566
 4447SOL     OW15237  10.227  13.618   2.714
 4447SOL    HW115238  10.260  13.639   2.627
 4447SOL    HW215239  10.277  13.540   2.740
 4448SOL     OW15240   7.977   0.291  10.396
 4448SOL    HW115241   8.052   0.245  10.357
 4448SOL    HW215242   8.000   0.300  10.488
 4449SOL     OW15243   7.472   4.133   4.383
 4449SOL    HW115244   7.539   4.066   4.369
 4449SOL    HW215245   7.520   4.213   4.401
 4450SOL     OW15246   8.585   3.311   4.359
 4450SOL    HW115247   8.504   3.262   4.372
 4450SOL    HW215248   8.557   3.403   4.359
 4451SOL     OW15249   1.633  11.897   9.469
 4451SOL    HW115250   1.555  11.949   9.452
 4451SOL    HW215251   1.601  11.823   9.522
 4452SOL     OW15252   7.598  13.222   8.033
 4452SOL    HW115253   7.592  13.241   8.127
 4452SOL    HW215254   7.548  13.141   8.022
 4453SOL     OW15255  14.662  11.044   6.087
 4453SOL    HW115256  14.669  11.077   6.177
 4453SOL    HW215257  14.668  10.949   6.096
 4454SOL     OW15258  12.122   5.015   1.262
 4454SOL    HW115259  12.054   5.050   1.205
 4454SOL    HW215260  12.096   5.042   1.350
 4455SOL     OW15261  10.816   8.121   6.296
 4455SOL    HW115262  10.727   8.121   6.261
 4455SOL    HW215263  10.806   8.098   6.388
 4456SOL     OW15264   2.557   0.861   3.286
 4456SOL    HW115265   2.564   0.885   3.378
 4456SOL    HW215266   2.465   0.873   3.264
 4457SOL     OW15267   3.208   4.438   8.498
 4457SOL    HW115268   3.130   4.492   8.504
 4457SOL    HW215269   3.213   4.412   8.406
 4458SOL     OW15270  14.207   5.393   2.052
 4458SOL    HW115271  14.165   5.343   1.982
 4458SOL    HW215272  14.154   5.471   2.062
 4459SOL     OW15273   7.791   2.825   0.989
 4459SOL    HW115274   7.700   2.833   0.963
 4459SOL    HW215275   7.812   2.732   0.977
 4460SOL     OW15276   9.294   4.142   3.153
 4460SOL    HW115277   9.361   4.210   3.155
 4460SOL    HW215278   9.234   4.171   3.084
 4461SOL     OW15279   8.768   7.499   6.995
 4461SOL    HW115280   8.854   7.517   6.955
 4461SOL    HW215281   8.721   7.450   6.928
 4462SOL     OW15282   7.210  11.647   2.952
 4462SOL    HW115283   7.199  11.711   3.023
 4462SOL    HW215284   7.127  11.650   2.904
 4463SOL     OW15285   0.325  10.276   5.313
 4463SOL    HW115286   0.418  10.263   5.328
 4463SOL    HW215287   0.301  10.350   5.369
 4464SOL     OW15288   6.244   3.094  14.006
 4464SOL    HW115289   6.246   3.087  14.101
 4464SOL    HW215290   6.279   3.011  13.974
 4465SOL     OW15291   3.699   8.375   6.849
 4465SOL    HW115292   3.700   8.468   6.825
 4465SOL    HW215293   3.665   8.331   6.772
 4466SOL     OW15294   4.904   2.284  12.614
 4466SOL    HW115295   4.977   2.251  12.666
 4466SOL    HW215296   4.862   2.206  12.579
 4467SOL     OW15297  12.206   4.491   0.032
 4467SOL    HW115298  12.145   4.418   0.015
 4467SOL    HW215299  12.256   4.500  14.822
 4468SOL     OW15300  11.240  13.030   0.069
 4468SOL    HW115301  11.302  13.029   0.142
 4468SOL    HW215302  11.156  13.008   0.108
 4469SOL     OW15303  13.792   4.576   4.053
 4469SOL    HW115304  13.744   4.494   4.036
 4469SOL    HW215305  13.840   4.559   4.134
 4470SOL     OW15306   2.569   9.485   3.227
 4470SOL    HW115307   2.475   9.478   3.244
 4470SOL    HW215308   2.580   9.572   3.189
 4471SOL     OW15309  14.591   6.099   0.341
 4471SOL    HW115310  14.663   6.043   0.316
 4471SOL    HW215311  14.514   6.043   0.337
 4472SOL     OW15312   2.192   2.746   3.067
 4472SOL    HW115313   2.167   2.837   3.053
 4472SOL    HW215314   2.167   2.701   2.986
 4473SOL     OW15315   2.465   5.877  10.054
 4473SOL    HW115316   2.560   5.873  10.050
 4473SOL    HW215317   2.440   5.921   9.972
 4474SOL     OW15318   9.217   0.783   7.656
 4474SOL    HW115319   9.160   0.736   7.716
 4474SOL    HW215320   9.188   0.755   7.569
 4475SOL     OW15321   3.279   0.133   5.586
 4475SOL    HW115322   3.269   0.045   5.622
 4475SOL    HW215323   3.287   0.120   5.491
 4476SOL     OW15324   0.915   7.513   0.065
 4476SOL    HW115325   0.829   7.494   0.102
 4476SOL    HW215326   0.914   7.607   0.048
 4477SOL     OW15327   0.052  10.065   5.763
 4477SOL    HW115328   0.038  10.159   5.752
 4477SOL    HW215329   0.009  10.025   5.688
 4478SOL     OW15330   0.805   4.940  13.718
 4478SOL    HW115331   0.812   4.943  13.622
 4478SOL    HW215332   0.884   4.894  13.746
 4479SOL     OW15333   8.336   3.905   1.416
 4479SOL    HW115334   8.389   3.966   1.467
 4479SOL    HW215335   8.267   3.960   1.377
 4480SOL     OW15336   8.101   7.316   5.648
 4480SOL    HW115337   8.177   7.259   5.645
 4480SOL    HW215338   8.124   7.384   5.711
 4481SOL     OW15339   9.248   0.375   5.668
 4481SOL    HW115340   9.167   0.412   5.633
 4481SOL    HW215341   9.288   0.329   5.594
 4482SOL     OW15342  14.146   2.400   2.488
 4482SOL    HW115343  14.108   2.471   2.539
 4482SOL    HW215344  14.070   2.351   2.455
 4483SOL     OW15345   4.751   5.602   8.036
 4483SOL    HW115346   4.843   5.619   8.019
 4483SOL    HW215347   4.724   5.541   7.968
 4484SOL     OW15348  13.247  11.002  11.917
 4484SOL    HW115349  13.174  11.047  11.961
 4484SOL    HW215350  13.206  10.953  11.846
 4485SOL     OW15351   7.150   2.356   5.728
 4485SOL    HW115352   7.245   2.352   5.717
 4485SOL    HW215353   7.122   2.264   5.727
 4486SOL     OW15354   9.973  14.314   5.539
 4486SOL    HW115355  10.034  14.295   5.469
 4486SOL    HW215356  10.026  14.312   5.619
 4487SOL     OW15357  11.088   9.517   8.368
 4487SOL    HW115358  11.060   9.529   8.278
 4487SOL    HW215359  11.042   9.439   8.398
 4488SOL     OW15360   1.671  11.133   3.194
 4488SOL    HW115361   1.702  11.210   3.242
 4488SOL    HW215362   1.704  11.059   3.245
 4489SOL     OW15363   5.940  12.001   3.112
 4489SOL    HW115364   5.902  12.014   3.199
 4489SOL    HW215365   5.997  11.924   3.122
 4490SOL     OW15366   4.819   0.644   6.164
 4490SOL    HW115367   4.889   0.659   6.101
 4490SOL    HW215368   4.763   0.579   6.123
 4491SOL     OW15369   3.141   2.281   4.479
 4491SOL    HW115370   3.234   2.305   4.482
 4491SOL    HW215371   3.138   2.193   4.518
 4492SOL     OW15372  12.693  14.429   2.507
 4492SOL    HW115373  12.730  14.516   2.515
 4492SOL    HW215374  12.600  14.440   2.529
 4493SOL     OW15375   2.183  11.332   8.876
 4493SOL    HW115376   2.146  11.291   8.954
 4493SOL    HW215377   2.161  11.425   8.884
 4494SOL     OW15378   5.785   0.908   6.791
 4494SOL    HW115379   5.826   0.927   6.876
 4494SOL    HW215380   5.852   0.861   6.742
 4495SOL     OW15381   7.728  13.552   0.904
 4495SOL    HW115382   7.814  13.530   0.938
 4495SOL    HW215383   7.740  13.556   0.809
 4496SOL     OW15384  14.008   4.445  11.927
 4496SOL    HW115385  14.028   4.399  11.845
 4496SOL    HW215386  14.082   4.505  11.939
 4497SOL     OW15387   1.309  10.761  10.585
 4497SOL    HW115388   1.245  10.784  10.518
 4497SOL    HW215389   1.388  10.810  10.560
 4498SOL     OW15390   8.951  10.125   8.708
 4498SOL    HW115391   9.009  10.197   8.685
 4498SOL    HW215392   8.878  10.132   8.646
 4499SOL     OW15393  14.146  11.584  14.423
 4499SOL    HW115394  14.118  11.493  14.425
 4499SOL    HW215395  14.065  11.634  14.409
 4500SOL     OW15396   8.602  14.548   7.240
 4500SOL    HW115397   8.691  14.560   7.205
 4500SOL    HW215398   8.574  14.464   7.205
 4501SOL     OW15399  11.650  13.055   1.530
 4501SOL    HW115400  11.649  13.115   1.604
 4501SOL    HW215401  11.558  13.044   1.508
 4502SOL     OW15402   9.837  10.751   2.908
 4502SOL    HW115403   9.742  10.758   2.906
 4502SOL    HW215404   9.867  10.839   2.933
 4503SOL     OW15405  13.412  11.306   8.133
 4503SOL    HW115406  13.325  11.272   8.109
 4503SOL    HW215407  13.435  11.260   8.213
 4504SOL     OW15408   5.015   8.897   3.198
 4504SOL    HW115409   4.965   8.859   3.125
 4504SOL    HW215410   5.078   8.955   3.156
 4505SOL     OW15411  12.970   0.078  14.265
 4505SOL    HW115412  13.053   0.071  14.312
 4505SOL    HW215413  12.925  14.867  14.283
 4506SOL     OW15414   9.929   1.894   0.917
 4506SOL    HW115415   9.839   1.881   0.887
 4506SOL    HW215416   9.956   1.808   0.949
 4507SOL     OW15417  12.257  14.084   9.971
 4507SOL    HW115418  12.326  14.147   9.988
 4507SOL    HW215419  12.244  14.087   9.876
 4508SOL     OW15420   3.732  12.010   4.934
 4508SOL    HW115421   3.719  11.923   4.898
 4508SOL    HW215422   3.772  11.994   5.020
 4509SOL     OW15423   7.124  14.547   3.935
 4509SOL    HW115424   7.135  14.486   4.008
 4509SOL    HW215425   7.201  14.604   3.940
 4510SOL     OW15426   9.374  10.551  14.250
 4510SOL    HW115427   9.304  10.544  14.185
 4510SOL    HW215428   9.334  10.523  14.332
 4511SOL     OW15429  10.143  13.889   1.223
 4511SOL    HW115430  10.216  13.844   1.181
 4511SOL    HW215431  10.065  13.846   1.187
 4512SOL     OW15432  11.182  12.350   5.157
 4512SOL    HW115433  11.171  12.335   5.063
 4512SOL    HW215434  11.223  12.436   5.163
 4513SOL     OW15435   0.270   7.518  13.754
 4513SOL    HW115436   0.234   7.605  13.769
 4513SOL    HW215437   0.345   7.513  13.813
 4514SOL     OW15438   3.763   2.552   5.137
 4514SOL    HW115439   3.852   2.588   5.137
 4514SOL    HW215440   3.751   2.517   5.225
 4515SOL     OW15441   0.955   7.860   7.712
 4515SOL    HW115442   0.881   7.800   7.705
 4515SOL    HW215443   0.992   7.863   7.624
 4516SOL     OW15444   4.895   8.346   1.681
 4516SOL    HW115445   4.832   8.323   1.749
 4516SOL    HW215446   4.852   8.320   1.599
 4517SOL     OW15447   3.912  13.164   4.676
 4517SOL    HW115448   3.988  13.121   4.714
 4517SOL    HW215449   3.854  13.093   4.650
 4518SOL     OW15450  10.718   8.562   6.643
 4518SOL    HW115451  10.625   8.545   6.627
 4518SOL    HW215452  10.743   8.497   6.708
 4519SOL     OW15453   1.420  12.376   9.090
 4519SOL    HW115454   1.515  12.386   9.085
 4519SOL    HW215455   1.396  12.340   9.004
 4520SOL     OW15456   6.189  11.487   9.251
 4520SOL    HW115457   6.161  11.413   9.196
 4520SOL    HW215458   6.150  11.469   9.336
 4521SOL     OW15459   1.314   6.315   3.888
 4521SOL    HW115460   1.380   6.263   3.933
 4521SOL    HW215461   1.327   6.404   3.922
 4522SOL     OW15462   0.877  13.601   4.082
 4522SOL    HW115463   0.834  13.659   4.144
 4522SOL    HW215464   0.962  13.581   4.123
 4523SOL     OW15465  14.151   3.734   7.666
 4523SOL    HW115466  14.063   3.716   7.634
 4523SOL    HW215467  14.202   3.657   7.640
 4524SOL     OW15468  14.260   4.166   3.178
 4524SOL    HW115469  14.198   4.122   3.119
 4524SOL    HW215470  14.273   4.252   3.138
 4525SOL     OW15471  12.358   8.498   0.535
 4525SOL    HW115472  12.268   8.531   0.542
 4525SOL    HW215473  12.402   8.533   0.613
 4526SOL     OW15474  10.656   7.041   5.961
 4526SOL    HW115475  10.747   7.067   5.978
 4526SOL    HW215476  10.616   7.037   6.047
 4527SOL     OW15477   2.878   3.807   1.626
 4527SOL    HW115478   2.827   3.728   1.610
 4527SOL    HW215479   2.812   3.877   1.632
 4528SOL     OW15480   9.377  11.305   2.000
 4528SOL    HW115481   9.371  11.350   1.915
 4528SOL    HW215482   9.426  11.365   2.056
 4529SOL     OW15483   3.891  11.319  12.161
 4529SOL    HW115484   3.853  11.282  12.241
 4529SOL    HW215485   3.970  11.268  12.146
 4530SOL     OW15486   6.394   3.899   9.026
 4530SOL    HW115487   6.478   3.899   9.072
 4530SOL    HW215488   6.392   3.816   8.979
 4531SOL     OW15489   3.268   4.730   4.952
 4531SOL    HW115490   3.213   4.807   4.962
 4531SOL    HW215491   3.219   4.659   4.993
 4532SOL     OW15492   2.245  10.895  13.654
 4532SOL    HW115493   2.282  10.807  13.643
 4532SOL    HW215494   2.289  10.930  13.732
 4533SOL     OW15495   9.410  13.860   1.306
 4533SOL    HW115496   9.375  13.911   1.232
 4533SOL    HW215497   9.364  13.895   1.382
 4534SOL     OW15498   0.757  10.323  11.892
 4534SOL    HW115499   0.844  10.341  11.856
 4534SOL    HW215500   0.734  10.237  11.855
 4535SOL     OW15501   8.608  14.867   6.768
 4535SOL    HW115502   8.611   0.052   6.846
 4535SOL    HW215503   8.700  14.846   6.751
 4536SOL     OW15504   2.710   0.136   8.697
 4536SOL    HW115505   2.657   0.082   8.638
 4536SOL    HW215506   2.647   0.191   8.743
 4537SOL     OW15507   9.886  14.682   8.740
 4537SOL    HW115508   9.943  14.605   8.745
 4537SOL    HW215509   9.869  14.693   8.646
 4538SOL     OW15510   4.634   0.309  12.788
 4538SOL    HW115511   4.719   0.319  12.745
 4538SOL    HW215512   4.653   0.319  12.881
 4539SOL     OW15513   2.213   3.069  10.127
 4539SOL    HW115514   2.174   3.002  10.182
 4539SOL    HW215515   2.139   3.110  10.082
 4540SOL     OW15516   0.403  12.821   8.024
 4540SOL    HW115517   0.408  12.731   7.994
 4540SOL    HW215518   0.401  12.815   8.120
 4541SOL     OW15519   4.936   0.651   8.736
 4541SOL    HW115520   4.878   0.597   8.683
 4541SOL    HW215521   4.903   0.740   8.725
 4542SOL     OW15522  13.872   3.794  12.303
 4542SOL    HW115523  13.963   3.787  12.274
 4542SOL    HW215524  13.824   3.828  12.228
 4543SOL     OW15525  12.157  14.048  10.479
 4543SOL    HW115526  12.181  13.956  10.491
 4543SOL    HW215527  12.152  14.059  10.384
 4544SOL     OW15528   9.733  12.842  10.182
 4544SOL    HW115529   9.800  12.903  10.153
 4544SOL    HW215530   9.651  12.881  10.154
 4545SOL     OW15531   3.378   3.894   4.815
 4545SOL    HW115532   3.343   3.980   4.839
 4545SOL    HW215533   3.374   3.843   4.896
 4546SOL     OW15534   0.647   4.401   1.580
 4546SOL    HW115535   0.653   4.490   1.615
 4546SOL    HW215536   0.583   4.407   1.509
 4547SOL     OW15537   8.523  10.328   8.548
 4547SOL    HW115538   8.437  10.337   8.508
 4547SOL    HW215539   8.509  10.350   8.640
 4548SOL     OW15540   2.845   1.167  13.598
 4548SOL    HW115541   2.883   1.138  13.515
 4548SOL    HW215542   2.825   1.086  13.645
 4549SOL     OW15543   6.038   5.470   7.807
 4549SOL    HW115544   5.957   5.420   7.820
 4549SOL    HW215545   6.008   5.554   7.773
 4550SOL     OW15546   9.688  12.829   5.042
 4550SOL    HW115547   9.649  12.911   5.076
 4550SOL    HW215548   9.676  12.834   4.948
 4551SOL     OW15549  12.932   7.129  14.441
 4551SOL    HW115550  12.856   7.182  14.464
 4551SOL    HW215551  12.986   7.186  14.386
 4552SOL     OW15552   6.002   7.511   5.759
 4552SOL    HW115553   6.088   7.552   5.773
 4552SOL    HW215554   6.011   7.423   5.794
 4553SOL     OW15555   5.507  13.688   0.398
 4553SOL    HW115556   5.542  13.600   0.383
 4553SOL    HW215557   5.431  13.674   0.454
 4554SOL     OW15558   0.543  10.684   3.234
 4554SOL    HW115559   0.517  10.601   3.274
 4554SOL    HW215560   0.613  10.661   3.174
 4555SOL     OW15561   1.873   0.043   1.361
 4555SOL    HW115562   1.816   0.063   1.287
 4555SOL    HW215563   1.962   0.046   1.324
 4556SOL     OW15564   9.447   3.651   5.243
 4556SOL    HW115565   9.534   3.611   5.237
 4556SOL    HW215566   9.389   3.591   5.196
 4557SOL     OW15567  11.304   1.019  11.241
 4557SOL    HW115568  11.353   1.017  11.323
 4557SOL    HW215569  11.229   0.962  11.256
 4558SOL     OW15570   4.965  10.347   9.862
 4558SOL    HW115571   4.870  10.351   9.858
 4558SOL    HW215572   4.989  10.280   9.798
 4559SOL     OW15573   7.633   9.350   7.719
 4559SOL    HW115574   7.612   9.285   7.651
 4559SOL    HW215575   7.705   9.310   7.768
 4560SOL     OW15576   6.781   4.788   6.057
 4560SOL    HW115577   6.799   4.882   6.061
 4560SOL    HW215578   6.688   4.783   6.033
 4561SOL     OW15579   6.864   6.459  10.917
 4561SOL    HW115580   6.944   6.511  10.909
 4561SOL    HW215581   6.816   6.476  10.836
 4562SOL     OW15582  14.842   1.864  11.199
 4562SOL    HW115583  14.870   1.948  11.162
 4562SOL    HW215584   0.031   1.800  11.161
 4563SOL     OW15585   3.392  14.850   1.552
 4563SOL    HW115586   3.469   0.013   1.507
 4563SOL    HW215587   3.388   0.026   1.635
 4564SOL     OW15588  14.440  14.540  14.520
 4564SOL    HW115589  14.527  14.543  14.560
 4564SOL    HW215590  14.445  14.601  14.447
 4565SOL     OW15591   3.267  10.573  13.474
 4565SOL    HW115592   3.181  10.583  13.432
 4565SOL    HW215593   3.273  10.647  13.534
 4566SOL     OW15594   9.393   4.156  12.869
 4566SOL    HW115595   9.432   4.147  12.956
 4566SOL    HW215596   9.446   4.223  12.826
 4567SOL     OW15597   7.000   8.443   5.566
 4567SOL    HW115598   6.913   8.406   5.582
 4567SOL    HW215599   7.007   8.447   5.470
 4568SOL     OW15600   6.243  11.299   0.739
 4568SOL    HW115601   6.306  11.238   0.701
 4568SOL    HW215602   6.295  11.375   0.764
 4569SOL     OW15603   5.789   3.268   4.055
 4569SOL    HW115604   5.766   3.311   3.973
 4569SOL    HW215605   5.749   3.322   4.123
 4570SOL     OW15606   8.099   6.869  10.711
 4570SOL    HW115607   8.167   6.933  10.733
 4570SOL    HW215608   8.145   6.785  10.717
 4571SOL     OW15609   5.425  10.019   2.342
 4571SOL    HW115610   5.450  10.083   2.275
 4571SOL    HW215611   5.370   9.956   2.295
 4572SOL     OW15612   3.511  10.178  11.362
 4572SOL    HW115613   3.537  10.106  11.304
 4572SOL    HW215614   3.435  10.144  11.410
 4573SOL     OW15615  12.054   3.848  13.699
 4573SOL    HW115616  12.101   3.922  13.736
 4573SOL    HW215617  12.004   3.812  13.772
 4574SOL     OW15618  11.746  10.803   7.004
 4574SOL    HW115619  11.710  10.839   6.923
 4574SOL    HW215620  11.689  10.729   7.024
 4575SOL     OW15621   3.517   2.721  11.417
 4575SOL    HW115622   3.560   2.654  11.469
 4575SOL    HW215623   3.561   2.717  11.332
 4576SOL     OW15624  10.769   0.524   6.540
 4576SOL    HW115625  10.771   0.553   6.631
 4576SOL    HW215626  10.800   0.433   6.544
 4577SOL     OW15627   9.085  12.375   8.976
 4577SOL    HW115628   9.146  12.382   8.902
 4577SOL    HW215629   9.115  12.297   9.023
 4578SOL     OW15630   5.268  13.736   6.429
 4578SOL    HW115631   5.249  13.642   6.425
 4578SOL    HW215632   5.192  13.778   6.390
 4579SOL     OW15633  11.709   6.320   5.758
 4579SOL    HW115634  11.669   6.268   5.689
 4579SOL    HW215635  11.638   6.375   5.791
 4580SOL     OW15636  13.595  13.494   5.761
 4580SOL    HW115637  13.633  13.579   5.783
 4580SOL    HW215638  13.653  13.431   5.805
 4581SOL     OW15639  13.580   2.505   0.294
 4581SOL    HW115640  13.641   2.546   0.355
 4581SOL    HW215641  13.632   2.439   0.248
 4582SOL     OW15642  14.629   9.195  12.029
 4582SOL    HW115643  14.633   9.099  12.034
 4582SOL    HW215644  14.680   9.216  11.950
 4583SOL     OW15645   5.215   5.548   0.371
 4583SOL    HW115646   5.248   5.462   0.396
 4583SOL    HW215647   5.294   5.599   0.352
 4584SOL     OW15648   1.459  11.836   4.115
 4584SOL    HW115649   1.501  11.751   4.126
 4584SOL    HW215650   1.514  11.882   4.052
 4585SOL     OW15651   8.649   7.989   0.520
 4585SOL    HW115652   8.664   8.034   0.603
 4585SOL    HW215653   8.560   8.015   0.494
 4586SOL     OW15654   8.264   3.649   5.229
 4586SOL    HW115655   8.197   3.679   5.291
 4586SOL    HW215656   8.216   3.630   5.149
 4587SOL     OW15657   9.148   9.286   8.438
 4587SOL    HW115658   9.199   9.204   8.440
 4587SOL    HW215659   9.146   9.315   8.529
 4588SOL     OW15660   6.200   6.917  10.085
 4588SOL    HW115661   6.223   6.824  10.077
 4588SOL    HW215662   6.270   6.963  10.038
 4589SOL     OW15663  12.299  11.429   9.287
 4589SOL    HW115664  12.306  11.422   9.382
 4589SOL    HW215665  12.245  11.355   9.261
 4590SOL     OW15666  10.214  13.211   1.252
 4590SOL    HW115667  10.169  13.277   1.199
 4590SOL    HW215668  10.306  13.236   1.250
 4591SOL     OW15669   3.720   4.015   2.485
 4591SOL    HW115670   3.814   4.033   2.477
 4591SOL    HW215671   3.702   4.022   2.579
 4592SOL     OW15672   1.516  14.359   6.750
 4592SOL    HW115673   1.438  14.344   6.804
 4592SOL    HW215674   1.589  14.333   6.806
 4593SOL     OW15675   6.785  10.818   8.931
 4593SOL    HW115676   6.848  10.751   8.956
 4593SOL    HW215677   6.838  10.892   8.904
 4594SOL     OW15678   0.810   8.915  13.873
 4594SOL    HW115679   0.794   8.927  13.780
 4594SOL    HW215680   0.733   8.868  13.906
 4595SOL     OW15681  13.054   3.050  14.001
 4595SOL    HW115682  13.093   3.116  13.944
 4595SOL    HW215683  13.081   3.076  14.090
 4596SOL     OW15684   0.444   1.772   0.265
 4596SOL    HW115685   0.502   1.766   0.341
 4596SOL    HW215686   0.383   1.843   0.286
 4597SOL     OW15687   1.817  10.228  13.999
 4597SOL    HW115688   1.810  10.323  14.006
 4597SOL    HW215689   1.728  10.200  13.976
 4598SOL     OW15690   3.767   1.681  11.453
 4598SOL    HW115691   3.793   1.768  11.420
 4598SOL    HW215692   3.810   1.674  11.538
 4599SOL     OW15693   5.459   5.474   2.568
 4599SOL    HW115694   5.411   5.394   2.544
 4599SOL    HW215695   5.540   5.442   2.608
 4600SOL     OW15696   8.070   9.122   9.924
 4600SOL    HW115697   8.008   9.194   9.931
 4600SOL    HW215698   8.017   9.047   9.896
 4601SOL     OW15699  14.135   1.429  12.899
 4601SOL    HW115700  14.220   1.472  12.891
 4601SOL    HW215701  14.138   1.386  12.985
 4602SOL     OW15702   0.986   2.415  10.305
 4602SOL    HW115703   0.980   2.351  10.234
 4602SOL    HW215704   0.958   2.497  10.266
 4603SOL     OW15705   8.387   6.471   5.328
 4603SOL    HW115706   8.453   6.419   5.282
 4603SOL    HW215707   8.305   6.423   5.314
 4604SOL     OW15708   0.334   7.581   5.588
 4604SOL    HW115709   0.239   7.577   5.596
 4604SOL    HW215710   0.349   7.645   5.519
 4605SOL     OW15711  13.883   4.711  11.770
 4605SOL    HW115712  13.802   4.678  11.731
 4605SOL    HW215713  13.910   4.642  11.831
 4606SOL     OW15714   2.370   2.745   6.911
 4606SOL    HW115715   2.451   2.768   6.957
 4606SOL    HW215716   2.380   2.784   6.824
 4607SOL     OW15717  11.775  11.749   9.737
 4607SOL    HW115718  11.749  11.666   9.697
 4607SOL    HW215719  11.753  11.815   9.672
 4608SOL     OW15720   3.810   2.460  13.452
 4608SOL    HW115721   3.888   2.467  13.396
 4608SOL    HW215722   3.845   2.458  13.541
 4609SOL     OW15723   3.100   9.309   8.161
 4609SOL    HW115724   3.050   9.227   8.159
 4609SOL    HW215725   3.132   9.320   8.072
 4610SOL     OW15726  13.104   6.313  12.266
 4610SOL    HW115727  13.171   6.278  12.325
 4610SOL    HW215728  13.023   6.270  12.294
 4611SOL     OW15729  12.579   6.018   7.200
 4611SOL    HW115730  12.498   6.061   7.228
 4611SOL    HW215731  12.567   5.926   7.221
 4612SOL     OW15732  13.357   6.891   1.638
 4612SOL    HW115733  13.284   6.887   1.576
 4612SOL    HW215734  13.325   6.948   1.708
 4613SOL     OW15735   7.754  13.564   9.733
 4613SOL    HW115736   7.792  13.560   9.821
 4613SOL    HW215737   7.665  13.598   9.748
 4614SOL     OW15738   0.032   1.022   9.900
 4614SOL    HW115739   0.114   1.048   9.859
 4614SOL    HW215740  14.839   1.029   9.830
 4615SOL     OW15741  12.171   0.713  12.410
 4615SOL    HW115742  12.164   0.666  12.327
 4615SOL    HW215743  12.256   0.686  12.446
 4616SOL     OW15744  10.858   5.090  10.613
 4616SOL    HW115745  10.881   5.131  10.697
 4616SOL    HW215746  10.936   5.041  10.588
 4617SOL     OW15747   1.732   2.326   0.220
 4617SOL    HW115748   1.645   2.298   0.249
 4617SOL    HW215749   1.715   2.372   0.138
 4618SOL     OW15750   5.137   8.748  10.625
 4618SOL    HW115751   5.095   8.707  10.550
 4618SOL    HW215752   5.225   8.710  10.628
 4619SOL     OW15753   5.151   7.892   3.551
 4619SOL    HW115754   5.084   7.834   3.515
 4619SOL    HW215755   5.104   7.949   3.612
 4620SOL     OW15756   3.655   4.994   2.165
 4620SOL    HW115757   3.578   4.969   2.216
 4620SOL    HW215758   3.638   4.959   2.078
 4621SOL     OW15759   0.577   7.537   1.711
 4621SOL    HW115760   0.543   7.514   1.798
 4621SOL    HW215761   0.617   7.455   1.679
 4622SOL     OW15762  11.972   1.465   4.947
 4622SOL    HW115763  12.021   1.438   5.025
 4622SOL    HW215764  12.040   1.483   4.881
 4623SOL     OW15765   1.105  11.739   1.623
 4623SOL    HW115766   1.114  11.824   1.666
 4623SOL    HW215767   1.110  11.675   1.694
 4624SOL     OW15768  13.981   5.572  11.850
 4624SOL    HW115769  14.035   5.548  11.925
 4624SOL    HW215770  13.989   5.668  11.845
 4625SOL     OW15771  13.151   5.399  13.150
 4625SOL    HW115772  13.068   5.389  13.105
 4625SOL    HW215773  13.157   5.492  13.171
 4626SOL     OW15774  11.167   2.597  14.377
 4626SOL    HW115775  11.219   2.621  14.453
 4626SOL    HW215776  11.117   2.520  14.404
 4627SOL     OW15777   6.522   3.400   7.860
 4627SOL    HW115778   6.531   3.475   7.919
 4627SOL    HW215779   6.465   3.339   7.908
 4628SOL     OW15780   0.946   1.782   5.966
 4628SOL    HW115781   0.921   1.838   6.040
 4628SOL    HW215782   1.027   1.820   5.933
 4629SOL     OW15783   9.540  10.653  12.447
 4629SOL    HW115784   9.615  10.671  12.503
 4629SOL    HW215785   9.573  10.667  12.358
 4630SOL     OW15786   0.402   7.642   2.463
 4630SOL    HW115787   0.345   7.673   2.392
 4630SOL    HW215788   0.383   7.701   2.536
 4631SOL     OW15789   1.232   5.697   9.038
 4631SOL    HW115790   1.224   5.652   9.122
 4631SOL    HW215791   1.142   5.720   9.015
 4632SOL     OW15792  13.493   0.106   3.173
 4632SOL    HW115793  13.455   0.159   3.243
 4632SOL    HW215794  13.421   0.090   3.113
 4633SOL     OW15795   1.227   3.766  12.327
 4633SOL    HW115796   1.200   3.679  12.298
 4633SOL    HW215797   1.309   3.750  12.375
 4634SOL     OW15798   5.168  10.799  11.825
 4634SOL    HW115799   5.204  10.792  11.914
 4634SOL    HW215800   5.193  10.716  11.783
 4635SOL     OW15801   9.349   6.523  11.314
 4635SOL    HW115802   9.383   6.466  11.245
 4635SOL    HW215803   9.421   6.531  11.377
 4636SOL     OW15804  12.855   2.689  14.520
 4636SOL    HW115805  12.853   2.747  14.444
 4636SOL    HW215806  12.778   2.714  14.572
 4637SOL     OW15807   4.747   9.518   4.737
 4637SOL    HW115808   4.770   9.576   4.810
 4637SOL    HW215809   4.706   9.442   4.779
 4638SOL     OW15810   2.258  11.924  11.569
 4638SOL    HW115811   2.193  11.988  11.598
 4638SOL    HW215812   2.226  11.894  11.484
 4639SOL     OW15813  10.827   6.945   6.863
 4639SOL    HW115814  10.740   6.906   6.849
 4639SOL    HW215815  10.860   6.962   6.775
 4640SOL     OW15816  14.771   8.477   2.010
 4640SOL    HW115817  14.812   8.422   1.942
 4640SOL    HW215818  14.703   8.422   2.047
 4641SOL     OW15819  10.061   0.955   2.790
 4641SOL    HW115820  10.020   0.875   2.822
 4641SOL    HW215821  10.136   0.925   2.739
 4642SOL     OW15822   0.764  11.177   4.561
 4642SOL    HW115823   0.780  11.272   4.562
 4642SOL    HW215824   0.771  11.153   4.468
 4643SOL     OW15825   6.539  13.346   4.170
 4643SOL    HW115826   6.615  13.402   4.188
 4643SOL    HW215827   6.477  13.368   4.240
 4644SOL     OW15828   4.025  14.445   1.185
 4644SOL    HW115829   4.065  14.500   1.118
 4644SOL    HW215830   3.987  14.372   1.137
 4645SOL     OW15831   1.604   7.329   8.787
 4645SOL    HW115832   1.531   7.364   8.736
 4645SOL    HW215833   1.682   7.359   8.741
 4646SOL     OW15834  13.671  13.461  11.914
 4646SOL    HW115835  13.726  13.462  11.993
 4646SOL    HW215836  13.727  13.421  11.847
 4647SOL     OW15837   3.918   9.164  10.551
 4647SOL    HW115838   3.931   9.120  10.635
 4647SOL    HW215839   3.866   9.102  10.500
 4648SOL     OW15840   3.117  11.189   9.816
 4648SOL    HW115841   3.138  11.186   9.723
 4648SOL    HW215842   3.200  11.211   9.859
 4649SOL     OW15843   8.327  12.362   4.431
 4649SOL    HW115844   8.401  12.353   4.492
 4649SOL    HW215845   8.304  12.272   4.409
 4650SOL     OW15846  10.636  10.633  13.634
 4650SOL    HW115847  10.623  10.693  13.561
 4650SOL    HW215848  10.695  10.679  13.693
 4651SOL     OW15849   9.263   8.715  10.871
 4651SOL    HW115850   9.248   8.694  10.779
 4651SOL    HW215851   9.182   8.690  10.914
 4652SOL     OW15852  10.072   1.733  12.160
 4652SOL    HW115853  10.070   1.817  12.206
 4652SOL    HW215854  10.045   1.754  12.070
 4653SOL     OW15855   6.274   2.559   3.597
 4653SOL    HW115856   6.204   2.621   3.619
 4653SOL    HW215857   6.262   2.543   3.503
 4654SOL     OW15858   8.909   5.196  14.642
 4654SOL    HW115859   8.855   5.262  14.599
 4654SOL    HW215860   8.854   5.118  14.644
 4655SOL     OW15861   3.015   1.828   3.349
 4655SOL    HW115862   3.007   1.878   3.268
 4655SOL    HW215863   3.019   1.894   3.418
 4656SOL     OW15864   4.196   0.025  13.409
 4656SOL    HW115865   4.224   0.112  13.436
 4656SOL    HW215866   4.147   0.040  13.328
 4657SOL     OW15867   9.803   4.216  14.522
 4657SOL    HW115868   9.783   4.267  14.601
 4657SOL    HW215869   9.731   4.236  14.462
 4658SOL     OW15870   4.838  13.111   8.038
 4658SOL    HW115871   4.854  13.025   8.076
 4658SOL    HW215872   4.820  13.094   7.946
 4659SOL     OW15873   3.630   7.521   1.488
 4659SOL    HW115874   3.583   7.570   1.556
 4659SOL    HW215875   3.584   7.438   1.483
 4660SOL     OW15876   4.735  10.394   1.153
 4660SOL    HW115877   4.790  10.350   1.218
 4660SOL    HW215878   4.700  10.471   1.198
 4661SOL     OW15879  14.145   0.302  11.539
 4661SOL    HW115880  14.193   0.336  11.615
 4661SOL    HW215881  14.189   0.219  11.519
 4662SOL     OW15882   3.089  11.617   6.019
 4662SOL    HW115883   3.026  11.545   6.022
 4662SOL    HW215884   3.087  11.647   5.929
 4663SOL     OW15885   0.818   1.005   6.431
 4663SOL    HW115886   0.772   0.922   6.420
 4663SOL    HW215887   0.813   1.023   6.525
 4664SOL     OW15888  13.258   2.671   6.633
 4664SOL    HW115889  13.332   2.697   6.578
 4664SOL    HW215890  13.223   2.753   6.667
 4665SOL     OW15891  13.831   7.338  11.571
 4665SOL    HW115892  13.832   7.431  11.596
 4665SOL    HW215893  13.761   7.300  11.625
 4666SOL     OW15894  10.526  13.690  10.997
 4666SOL    HW115895  10.533  13.668  10.904
 4666SOL    HW215896  10.434  13.675  11.018
 4667SOL     OW15897   8.678  10.928   7.012
 4667SOL    HW115898   8.711  11.016   6.997
 4667SOL    HW215899   8.622  10.910   6.937
 4668SOL     OW15900  10.827  12.969  10.490
 4668SOL    HW115901  10.800  12.886  10.450
 4668SOL    HW215902  10.911  12.949  10.531
 4669SOL     OW15903   2.897   2.647  10.621
 4669SOL    HW115904   2.941   2.681  10.543
 4669SOL    HW215905   2.960   2.586  10.659
 4670SOL     OW15906  14.613   9.819  13.415
 4670SOL    HW115907  14.645   9.735  13.383
 4670SOL    HW215908  14.530   9.833  13.368
 4671SOL     OW15909  12.960   1.669   2.819
 4671SOL    HW115910  12.910   1.619   2.754
 4671SOL    HW215911  13.001   1.739   2.769
 4672SOL     OW15912   5.489  12.792   5.428
 4672SOL    HW115913   5.442  12.865   5.388
 4672SOL    HW215914   5.581  12.809   5.410
 4673SOL     OW15915  13.566   9.714   2.749
 4673SOL    HW115916  13.561   9.658   2.827
 4673SOL    HW215917  13.623   9.786   2.774
 4674SOL     OW15918  11.105   3.624  10.229
 4674SOL    HW115919  11.132   3.683  10.299
 4674SOL    HW215920  11.023   3.586  10.260
 4675SOL     OW15921   1.093  10.510   9.852
 4675SOL    HW115922   1.139  10.592   9.832
 4675SOL    HW215923   1.154  10.442   9.825
 4676SOL     OW15924  11.241  14.151   9.619
 4676SOL    HW115925  11.217  14.203   9.696
 4676SOL    HW215926  11.334  14.134   9.630
 4677SOL     OW15927   8.621   3.582   0.851
 4677SOL    HW115928   8.587   3.645   0.787
 4677SOL    HW215929   8.631   3.501   0.801
 4678SOL     OW15930   0.177   8.542  13.587
 4678SOL    HW115931   0.196   8.635  13.599
 4678SOL    HW215932   0.201   8.525  13.496
 4679SOL     OW15933  11.327   6.376   8.428
 4679SOL    HW115934  11.359   6.327   8.505
 4679SOL    HW215935  11.235   6.354   8.422
 4680SOL     OW15936   6.325   8.677   1.819
 4680SOL    HW115937   6.403   8.629   1.791
 4680SOL    HW215938   6.280   8.698   1.738
 4681SOL     OW15939   3.289   0.397   6.364
 4681SOL    HW115940   3.257   0.437   6.284
 4681SOL    HW215941   3.222   0.415   6.429
 4682SOL     OW15942  11.109   4.670   9.454
 4682SOL    HW115943  11.066   4.687   9.538
 4682SOL    HW215944  11.091   4.748   9.402
 4683SOL     OW15945   7.391   4.097  10.188
 4683SOL    HW115946   7.437   4.155  10.248
 4683SOL    HW215947   7.333   4.045  10.244
 4684SOL     OW15948   5.984   9.054   3.906
 4684SOL    HW115949   5.920   9.086   3.842
 4684SOL    HW215950   6.025   8.979   3.862
 4685SOL     OW15951   6.306  10.086   4.122
 4685SOL    HW115952   6.343  10.004   4.091
 4685SOL    HW215953   6.250  10.115   4.051
 4686SOL     OW15954   7.561  14.058   6.672
 4686SOL    HW115955   7.570  14.113   6.594
 4686SOL    HW215956   7.613  13.980   6.652
 4687SOL     OW15957   4.494  11.198  12.784
 4687SOL    HW115958   4.514  11.288  12.760
 4687SOL    HW215959   4.553  11.179  12.857
 4688SOL     OW15960   9.140   7.602  14.760
 4688SOL    HW115961   9.207   7.546  14.720
 4688SOL    HW215962   9.190   7.672  14.803
 4689SOL     OW15963  11.916   3.025   2.306
 4689SOL    HW115964  11.983   3.012   2.239
 4689SOL    HW215965  11.949   3.098   2.359
 4690SOL     OW15966   0.661   7.060   1.556
 4690SOL    HW115967   0.597   7.054   1.628
 4690SOL    HW215968   0.713   6.980   1.564
 4691SOL     OW15969   0.875  14.385   4.593
 4691SOL    HW115970   0.835  14.429   4.518
 4691SOL    HW215971   0.932  14.451   4.632
 4692SOL     OW15972   2.689   1.319   4.949
 4692SOL    HW115973   2.653   1.406   4.933
 4692SOL    HW215974   2.783   1.329   4.937
 4693SOL     OW15975   8.986   4.327   9.381
 4693SOL    HW115976   8.998   4.419   9.357
 4693SOL    HW215977   8.891   4.317   9.388
 4694SOL     OW15978   8.944  13.270   8.226
 4694SOL    HW115979   8.851  13.280   8.208
 4694SOL    HW215980   8.962  13.334   8.295
 4695SOL     OW15981  11.289   5.276   1.130
 4695SOL    HW115982  11.347   5.336   1.176
 4695SOL    HW215983  11.322   5.274   1.040
 4696SOL     OW15984   4.258   5.877  12.633
 4696SOL    HW115985   4.288   5.894  12.543
 4696SOL    HW215986   4.318   5.810  12.666
 4697SOL     OW15987   8.387   8.332   2.067
 4697SOL    HW115988   8.444   8.387   2.121
 4697SOL    HW215989   8.302   8.335   2.112
 4698SOL     OW15990   3.967   8.917  11.171
 4698SOL    HW115991   3.957   8.905  11.265
 4698SOL    HW215992   3.977   9.012  11.160
 4699SOL     OW15993  11.260   1.977   2.640
 4699SOL    HW115994  11.221   1.895   2.671
 4699SOL    HW215995  11.352   1.955   2.626
 4700SOL     OW15996  14.208   9.903  13.770
 4700SOL    HW115997  14.126   9.941  13.740
 4700SOL    HW215998  14.249   9.972  13.823
 4701SOL     OW15999   4.031   6.915   7.165
 4701SOL    HW116000   4.080   6.988   7.129
 4701SOL    HW216001   3.983   6.878   7.091
 4702SOL     OW16002   0.101   4.673  12.417
 4702SOL    HW116003   0.151   4.607  12.370
 4702SOL    HW216004   0.138   4.757  12.389
 4703SOL     OW16005  12.326   2.102  14.436
 4703SOL    HW116006  12.282   2.044  14.374
 4703SOL    HW216007  12.331   2.186  14.391
 4704SOL     OW16008   5.582   0.467   5.977
 4704SOL    HW116009   5.662   0.515   5.999
 4704SOL    HW216010   5.561   0.416   6.055
 4705SOL     OW16011   9.694   4.104   3.847
 4705SOL    HW116012   9.659   4.078   3.762
 4705SOL    HW216013   9.617   4.120   3.901
 4706SOL     OW16014  10.479  13.819   6.431
 4706SOL    HW116015  10.436  13.847   6.512
 4706SOL    HW216016  10.549  13.761   6.460
 4707SOL     OW16017   6.900  10.200  13.110
 4707SOL    HW116018   6.932  10.134  13.049
 4707SOL    HW216019   6.979  10.241  13.146
 4708SOL     OW16020  12.079   7.096   5.858
 4708SOL    HW116021  12.167   7.128   5.839
 4708SOL    HW216022  12.035   7.095   5.773
 4709SOL     OW16023  13.184   4.811   2.590
 4709SOL    HW116024  13.171   4.761   2.671
 4709SOL    HW216025  13.137   4.762   2.523
 4710SOL     OW16026  13.348   7.392  13.080
 4710SOL    HW116027  13.263   7.358  13.051
 4710SOL    HW216028  13.359   7.356  13.168
 4711SOL     OW16029   5.282  11.537   0.243
 4711SOL    HW116030   5.260  11.444   0.234
 4711SOL    HW216031   5.310  11.563   0.155
 4712SOL     OW16032   5.693  11.318   2.207
 4712SOL    HW116033   5.632  11.377   2.162
 4712SOL    HW216034   5.707  11.247   2.145
 4713SOL     OW16035  12.242   0.059   6.567
 4713SOL    HW116036  12.325   0.060   6.615
 4713SOL    HW216037  12.233  14.839   6.538
 4714SOL     OW16038  14.729   0.314   9.082
 4714SOL    HW116039  14.641   0.349   9.068
 4714SOL    HW216040  14.719   0.251   9.153
 4715SOL     OW16041  10.341  13.835  10.117
 4715SOL    HW116042  10.327  13.913  10.063
 4715SOL    HW216043  10.312  13.860  10.205
 4716SOL     OW16044   2.238  13.869   1.493
 4716SOL    HW116045   2.271  13.894   1.579
 4716SOL    HW216046   2.265  13.778   1.482
 4717SOL     OW16047   8.109   4.765  14.494
 4717SOL    HW116048   8.191   4.743  14.450
 4717SOL    HW216049   8.107   4.708  14.571
 4718SOL     OW16050   3.407   4.880  13.632
 4718SOL    HW116051   3.338   4.833  13.679
 4718SOL    HW216052   3.436   4.820  13.564
 4719SOL     OW16053   6.204   1.405   6.135
 4719SOL    HW116054   6.211   1.442   6.047
 4719SOL    HW216055   6.275   1.447   6.184
 4720SOL     OW16056   0.735   3.356   9.041
 4720SOL    HW116057   0.724   3.439   8.995
 4720SOL    HW216058   0.646   3.328   9.063
 4721SOL     OW16059  13.832   4.531  14.014
 4721SOL    HW116060  13.862   4.454  13.965
 4721SOL    HW216061  13.770   4.496  14.077
 4722SOL     OW16062  11.698   2.252   3.191
 4722SOL    HW116063  11.771   2.275   3.248
 4722SOL    HW216064  11.620   2.264   3.246
 4723SOL     OW16065   6.891   7.995   4.946
 4723SOL    HW116066   6.948   8.067   4.917
 4723SOL    HW216067   6.950   7.934   4.990
 4724SOL     OW16068  14.633   0.210   8.502
 4724SOL    HW116069  14.665   0.275   8.565
 4724SOL    HW216070  14.539   0.205   8.518
 4725SOL     OW16071   7.078   9.162  12.810
 4725SOL    HW116072   7.059   9.068  12.811
 4725SOL    HW216073   7.127   9.175  12.730
 4726SOL     OW16074   7.229   0.213   0.368
 4726SOL    HW116075   7.264   0.225   0.280
 4726SOL    HW216076   7.280   0.274   0.422
 4727SOL     OW16077  10.393  12.192  14.728
 4727SOL    HW116078  10.480  12.156  14.709
 4727SOL    HW216079  10.332  12.132  14.686
 4728SOL     OW16080   0.553   6.111  13.032
 4728SOL    HW116081   0.507   6.049  13.089
 4728SOL    HW216082   0.631   6.137  13.082
 4729SOL     OW16083  10.608   0.606   9.580
 4729SOL    HW116084  10.538   0.542   9.573
 4729SOL    HW216085  10.625   0.614   9.674
 4730SOL     OW16086   2.340   3.761  12.491
 4730SOL    HW116087   2.348   3.851  12.462
 4730SOL    HW216088   2.272   3.764  12.559
 4731SOL     OW16089   3.546   7.752   6.157
 4731SOL    HW116090   3.606   7.704   6.100
 4731SOL    HW216091   3.477   7.689   6.177
 4732SOL     OW16092   7.093   9.745  12.264
 4732SOL    HW116093   7.090   9.839  12.283
 4732SOL    HW216094   7.004   9.715  12.278
 4733SOL     OW16095  12.070   1.588  11.069
 4733SOL    HW116096  12.126   1.614  10.996
 4733SOL    HW216097  11.986   1.565  11.027
 4734SOL     OW16098   9.108   2.296  10.576
 4734SOL    HW116099   9.198   2.288  10.607
 4734SOL    HW216100   9.077   2.206  10.570
 4735SOL     OW16101   8.632   7.467   4.269
 4735SOL    HW116102   8.556   7.449   4.324
 4735SOL    HW216103   8.673   7.382   4.255
 4736SOL     OW16104   7.845   5.081  14.514
 4736SOL    HW116105   7.808   4.999  14.546
 4736SOL    HW216106   7.932   5.086  14.554
 4737SOL     OW16107   7.053   8.872   3.427
 4737SOL    HW116108   7.107   8.872   3.348
 4737SOL    HW216109   7.115   8.855   3.498
 4738SOL     OW16110  12.953   5.365  10.126
 4738SOL    HW116111  13.023   5.388  10.066
 4738SOL    HW216112  12.883   5.427  10.107
 4739SOL     OW16113  13.749  12.680  10.389
 4739SOL    HW116114  13.713  12.748  10.446
 4739SOL    HW216115  13.785  12.615  10.449
 4740SOL     OW16116   2.865  13.466  14.584
 4740SOL    HW116117   2.876  13.561  14.592
 4740SOL    HW216118   2.915  13.443  14.505
 4741SOL     OW16119  14.781  12.729   0.580
 4741SOL    HW116120  14.723  12.661   0.546
 4741SOL    HW216121  14.723  12.788   0.629
 4742SOL     OW16122   6.355   9.631  14.746
 4742SOL    HW116123   6.428   9.573  14.724
 4742SOL    HW216124   6.397   9.709  14.785
 4743SOL     OW16125   9.062  13.599   3.907
 4743SOL    HW116126   9.061  13.635   3.996
 4743SOL    HW216127   9.065  13.504   3.919
 4744SOL     OW16128   3.916   7.416   5.606
 4744SOL    HW116129   3.999   7.425   5.653
 4744SOL    HW216130   3.853   7.390   5.673
 4745SOL     OW16131   6.751   9.297   4.479
 4745SOL    HW116132   6.679   9.317   4.539
 4745SOL    HW216133   6.723   9.217   4.435
 4746SOL     OW16134  12.817   3.809   5.221
 4746SOL    HW116135  12.824   3.728   5.272
 4746SOL    HW216136  12.862   3.875   5.274
 4747SOL     OW16137   3.945  10.751  11.549
 4747SOL    HW116138   3.913  10.841  11.552
 4747SOL    HW216139   3.996  10.745  11.469
 4748SOL     OW16140  14.576   6.862   9.798
 4748SOL    HW116141  14.653   6.915   9.817
 4748SOL    HW216142  14.600   6.774   9.828
 4749SOL     OW16143   0.828   9.780   2.964
 4749SOL    HW116144   0.910   9.749   2.924
 4749SOL    HW216145   0.856   9.833   3.039
 4750SOL     OW16146  12.625   1.534  11.235
 4750SOL    HW116147  12.543   1.527  11.187
 4750SOL    HW216148  12.648   1.443  11.255
 4751SOL     OW16149  11.860   0.414  14.533
 4751SOL    HW116150  11.850   0.319  14.532
 4751SOL    HW216151  11.899   0.434  14.618
 4752SOL     OW16152   8.858   6.562   7.449
 4752SOL    HW116153   8.900   6.500   7.509
 4752SOL    HW216154   8.924   6.629   7.435
 4753SOL     OW16155   5.504  11.676  12.863
 4753SOL    HW116156   5.475  11.765  12.886
 4753SOL    HW216157   5.591  11.688  12.826
 4754SOL     OW16158   1.746   9.354   2.319
 4754SOL    HW116159   1.670   9.399   2.280
 4754SOL    HW216160   1.760   9.279   2.262
 4755SOL     OW16161  10.553  13.532   7.616
 4755SOL    HW116162  10.556  13.595   7.544
 4755SOL    HW216163  10.484  13.564   7.674
 4756SOL     OW16164   2.925   3.883  14.838
 4756SOL    HW116165   2.916   3.898  14.744
 4756SOL    HW216166   3.005   3.832  14.847
 4757SOL     OW16167   8.711   0.618  10.742
 4757SOL    HW116168   8.680   0.580  10.824
 4757SOL    HW216169   8.642   0.677  10.714
 4758SOL     OW16170   4.880   1.080   8.461
 4758SOL    HW116171   4.953   1.044   8.411
 4758SOL    HW216172   4.827   1.003   8.485
 4759SOL     OW16173  12.519  11.383  14.826
 4759SOL    HW116174  12.510  11.398   0.049
 4759SOL    HW216175  12.463  11.307  14.809
 4760SOL     OW16176  11.028   7.615  10.345
 4760SOL    HW116177  11.011   7.572  10.429
 4760SOL    HW216178  11.011   7.708  10.362
 4761SOL     OW16179  13.040  12.327  12.809
 4761SOL    HW116180  13.028  12.338  12.715
 4761SOL    HW216181  13.088  12.406  12.837
 4762SOL     OW16182   4.502   7.002   0.177
 4762SOL    HW116183   4.527   6.971   0.090
 4762SOL    HW216184   4.547   6.942   0.237
 4763SOL     OW16185   8.679  10.643  11.261
 4763SOL    HW116186   8.640  10.573  11.313
 4763SOL    HW216187   8.745  10.599  11.207
 4764SOL     OW16188  12.590   9.607  13.219
 4764SOL    HW116189  12.679   9.582  13.245
 4764SOL    HW216190  12.578   9.694  13.259
 4765SOL     OW16191   6.186   3.008  11.897
 4765SOL    HW116192   6.158   2.919  11.879
 4765SOL    HW216193   6.139   3.062  11.833
 4766SOL     OW16194   3.269   5.584  10.776
 4766SOL    HW116195   3.329   5.546  10.840
 4766SOL    HW216196   3.314   5.663  10.746
 4767SOL     OW16197  11.096   3.760   2.453
 4767SOL    HW116198  11.165   3.795   2.509
 4767SOL    HW216199  11.036   3.717   2.513
 4768SOL     OW16200   7.708   1.818   7.484
 4768SOL    HW116201   7.647   1.766   7.432
 4768SOL    HW216202   7.654   1.863   7.548
 4769SOL     OW16203   2.738   7.011   2.486
 4769SOL    HW116204   2.643   7.020   2.489
 4769SOL    HW216205   2.763   7.057   2.405
 4770SOL     OW16206   1.572  12.010   9.006
 4770SOL    HW116207   1.611  12.097   8.999
 4770SOL    HW216208   1.621  11.967   9.075
 4771SOL     OW16209  11.117  13.014   7.626
 4771SOL    HW116210  11.112  12.978   7.714
 4771SOL    HW216211  11.199  12.980   7.590
 4772SOL     OW16212   0.850  11.226   3.950
 4772SOL    HW116213   0.879  11.314   3.927
 4772SOL    HW216214   0.929  11.179   3.975
 4773SOL     OW16215   8.412  14.172  12.640
 4773SOL    HW116216   8.453  14.101  12.690
 4773SOL    HW216217   8.450  14.252  12.676
 4774SOL     OW16218   0.639   9.029   0.267
 4774SOL    HW116219   0.664   8.960   0.328
 4774SOL    HW216220   0.543   9.023   0.263
 4775SOL     OW16221   2.447   3.103   4.591
 4775SOL    HW116222   2.473   3.011   4.599
 4775SOL    HW216223   2.359   3.100   4.555
 4776SOL     OW16224   3.144   6.290   0.655
 4776SOL    HW116225   3.123   6.279   0.747
 4776SOL    HW216226   3.239   6.295   0.652
 4777SOL     OW16227  12.459  11.770  11.142
 4777SOL    HW116228  12.394  11.749  11.075
 4777SOL    HW216229  12.543  11.766  11.096
 4778SOL     OW16230  10.674   4.987   0.859
 4778SOL    HW116231  10.742   5.000   0.793
 4778SOL    HW216232  10.684   4.895   0.886
 4779SOL     OW16233   1.534   1.840   0.952
 4779SOL    HW116234   1.550   1.914   1.010
 4779SOL    HW216235   1.457   1.865   0.901
 4780SOL     OW16236   0.378   4.096   9.789
 4780SOL    HW116237   0.395   4.147   9.710
 4780SOL    HW216238   0.457   4.106   9.842
 4781SOL     OW16239   1.095  11.059   3.389
 4781SOL    HW116240   1.021  11.120   3.392
 4781SOL    HW216241   1.071  10.990   3.451
 4782SOL     OW16242   9.698   3.795   9.005
 4782SOL    HW116243   9.674   3.767   9.094
 4782SOL    HW216244   9.640   3.744   8.948
 4783SOL     OW16245   8.559  11.747  10.386
 4783SOL    HW116246   8.474  11.726  10.347
 4783SOL    HW216247   8.612  11.669  10.369
 4784SOL     OW16248   3.823   1.569   1.728
 4784SOL    HW116249   3.885   1.628   1.771
 4784SOL    HW216250   3.870   1.486   1.723
 4785SOL     OW16251   7.521   8.967  13.453
 4785SOL    HW116252   7.556   8.905  13.389
 4785SOL    HW216253   7.541   9.053  13.417
 4786SOL     OW16254   1.341   9.249  10.744
 4786SOL    HW116255   1.334   9.169  10.692
 4786SOL    HW216256   1.394   9.224  10.820
 4787SOL     OW16257   2.122   4.031   3.361
 4787SOL    HW116258   2.107   3.976   3.284
 4787SOL    HW216259   2.094   4.118   3.335
 4788SOL     OW16260   0.340   4.341  14.839
 4788SOL    HW116261   0.260   4.381   0.001
 4788SOL    HW216262   0.389   4.315   0.046
 4789SOL     OW16263  13.326   0.598  13.639
 4789SOL    HW116264  13.270   0.556  13.705
 4789SOL    HW216265  13.415   0.584  13.671
 4790SOL     OW16266  11.574  10.714   8.568
 4790SOL    HW116267  11.598  10.757   8.485
 4790SOL    HW216268  11.483  10.688   8.556
 4791SOL     OW16269  13.492   0.128  11.864
 4791SOL    HW116270  13.586   0.111  11.865
 4791SOL    HW216271  13.484   0.215  11.824
 4792SOL     OW16272   3.458  13.070   5.094
 4792SOL    HW116273   3.417  13.012   5.158
 4792SOL    HW216274   3.401  13.065   5.017
 4793SOL     OW16275   8.473   7.746   9.590
 4793SOL    HW116276   8.461   7.799   9.511
 4793SOL    HW216277   8.399   7.686   9.590
 4794SOL     OW16278  13.096   2.765   2.217
 4794SOL    HW116279  13.168   2.711   2.183
 4794SOL    HW216280  13.065   2.718   2.294
 4795SOL     OW16281  10.577  12.888   3.081
 4795SOL    HW116282  10.534  12.890   3.166
 4795SOL    HW216283  10.559  12.801   3.046
 4796SOL     OW16284  10.379   9.593   4.126
 4796SOL    HW116285  10.336   9.598   4.041
 4796SOL    HW216286  10.472   9.599   4.106
 4797SOL     OW16287   1.537   7.375  13.303
 4797SOL    HW116288   1.592   7.345  13.375
 4797SOL    HW216289   1.449   7.345  13.325
 4798SOL     OW16290   7.417  10.764   2.865
 4798SOL    HW116291   7.507  10.787   2.845
 4798SOL    HW216292   7.422  10.714   2.946
 4799SOL     OW16293   9.057   7.359  13.071
 4799SOL    HW116294   9.066   7.410  12.991
 4799SOL    HW216295   8.974   7.312  13.060
 4800SOL     OW16296   2.115   8.268  13.453
 4800SOL    HW116297   2.123   8.363  13.456
 4800SOL    HW216298   2.168   8.236  13.525
 4801SOL     OW16299  14.839   1.394   6.314
 4801SOL    HW116300   0.041   1.371   6.257
 4801SOL    HW216301  14.806   1.309   6.345
 4802SOL     OW16302   6.277   0.202   2.955
 4802SOL    HW116303   6.308   0.127   2.904
 4802SOL    HW216304   6.351   0.263   2.954
 4803SOL     OW16305   1.083   5.293   8.603
 4803SOL    HW116306   1.005   5.343   8.577
 4803SOL    HW216307   1.114   5.337   8.682
 4804SOL     OW16308   4.649   2.708  13.263
 4804SOL    HW116309   4.568   2.677  13.302
 4804SOL    HW216310   4.711   2.713  13.336
 4805SOL     OW16311  13.163  10.996  14.009
 4805SOL    HW116312  13.132  11.063  13.948
 4805SOL    HW216313  13.114  10.917  13.984
 4806SOL     OW16314  14.742   3.211   2.082
 4806SOL    HW116315  14.780   3.246   2.001
 4806SOL    HW216316  14.714   3.123   2.060
 4807SOL     OW16317   6.075   0.865  14.392
 4807SOL    HW116318   6.164   0.846  14.364
 4807SOL    HW216319   6.083   0.944  14.446
 4808SOL     OW16320   2.094   6.567  13.615
 4808SOL    HW116321   2.139   6.540  13.695
 4808SOL    HW216322   2.001   6.570  13.640
 4809SOL     OW16323   7.689   5.841  12.970
 4809SOL    HW116324   7.599   5.833  13.003
 4809SOL    HW216325   7.740   5.866  13.047
 4810SOL     OW16326   1.821  12.769   1.561
 4810SOL    HW116327   1.802  12.863   1.556
 4810SOL    HW216328   1.736  12.727   1.548
 4811SOL     OW16329  14.383  13.064   8.289
 4811SOL    HW116330  14.459  13.011   8.265
 4811SOL    HW216331  14.415  13.122   8.358
 4812SOL     OW16332  10.999   5.900   4.393
 4812SOL    HW116333  11.080   5.950   4.400
 4812SOL    HW216334  10.952   5.919   4.474
 4813SOL     OW16335   5.084   3.626  11.350
 4813SOL    HW116336   5.017   3.689  11.322
 4813SOL    HW216337   5.063   3.609  11.442
 4814SOL     OW16338   1.516   1.775   5.047
 4814SOL    HW116339   1.564   1.777   4.964
 4814SOL    HW216340   1.575   1.732   5.108
 4815SOL     OW16341   5.961  12.447  11.723
 4815SOL    HW116342   5.970  12.364  11.675
 4815SOL    HW216343   6.030  12.444  11.789
 4816SOL     OW16344   3.281   7.925  12.451
 4816SOL    HW116345   3.237   7.942  12.368
 4816SOL    HW216346   3.368   7.895  12.426
 4817SOL     OW16347   9.064   5.904   0.849
 4817SOL    HW116348   9.157   5.924   0.856
 4817SOL    HW216349   9.031   5.966   0.784
 4818SOL     OW16350  12.852   3.906   7.536
 4818SOL    HW116351  12.898   3.880   7.457
 4818SOL    HW216352  12.840   4.001   7.527
 4819SOL     OW16353   4.684   8.183  11.634
 4819SOL    HW116354   4.680   8.273  11.666
 4819SOL    HW216355   4.769   8.177  11.590
 4820SOL     OW16356   1.050   9.566   1.381
 4820SOL    HW116357   0.980   9.558   1.315
 4820SOL    HW216358   1.128   9.589   1.331
 4821SOL     OW16359   6.716   2.419   0.898
 4821SOL    HW116360   6.697   2.328   0.922
 4821SOL    HW216361   6.740   2.414   0.805
 4822SOL     OW16362   7.990   5.353   8.627
 4822SOL    HW116363   8.016   5.269   8.665
 4822SOL    HW216364   7.943   5.330   8.547
 4823SOL     OW16365  12.273  12.319   6.852
 4823SOL    HW116366  12.243  12.299   6.940
 4823SOL    HW216367  12.368  12.333   6.862
 4824SOL     OW16368  13.199   0.833  10.897
 4824SOL    HW116369  13.144   0.828  10.975
 4824SOL    HW216370  13.202   0.926  10.876
 4825SOL     OW16371   4.735  13.170   1.463
 4825SOL    HW116372   4.708  13.081   1.444
 4825SOL    HW216373   4.723  13.218   1.380
 4826SOL     OW16374  10.393  10.005  13.763
 4826SOL    HW116375  10.488  10.001  13.755
 4826SOL    HW216376  10.377  10.004  13.858
 4827SOL     OW16377   3.295   3.051  13.759
 4827SOL    HW116378   3.283   3.119  13.825
 4827SOL    HW216379   3.366   3.084  13.703
 4828SOL     OW16380   3.700   1.327  13.497
 4828SOL    HW116381   3.675   1.372  13.577
 4828SOL    HW216382   3.721   1.238  13.524
 4829SOL     OW16383   5.164  13.166   8.024
 4829SOL    HW116384   5.069  13.182   8.020
 4829SOL    HW216385   5.191  13.208   8.106
 4830SOL     OW16386   4.146  10.019   7.756
 4830SOL    HW116387   4.140   9.926   7.778
 4830SOL    HW216388   4.080  10.061   7.811
 4831SOL     OW16389  12.538   8.708  11.707
 4831SOL    HW116390  12.619   8.698  11.756
 4831SOL    HW216391  12.470   8.717  11.773
 4832SOL     OW16392  14.494   3.076  10.746
 4832SOL    HW116393  14.507   3.161  10.705
 4832SOL    HW216394  14.412   3.043  10.710
 4833SOL     OW16395   3.803   5.737  14.177
 4833SOL    HW116396   3.731   5.787  14.137
 4833SOL    HW216397   3.803   5.654  14.130
 4834SOL     OW16398  12.573  12.997   0.258
 4834SOL    HW116399  12.589  13.028   0.169
 4834SOL    HW216400  12.496  13.045   0.287
 4835SOL     OW16401   4.443   0.012  11.862
 4835SOL    HW116402   4.494   0.063  11.799
 4835SOL    HW216403   4.352   0.026  11.836
 4836SOL     OW16404  12.873  12.228  10.228
 4836SOL    HW116405  12.893  12.206  10.319
 4836SOL    HW216406  12.946  12.191  10.178
 4837SOL     OW16407   8.479   2.698  14.323
 4837SOL    HW116408   8.480   2.613  14.368
 4837SOL    HW216409   8.398   2.697  14.272
 4838SOL     OW16410   4.335   0.652  13.392
 4838SOL    HW116411   4.305   0.666  13.303
 4838SOL    HW216412   4.269   0.693  13.447
 4839SOL     OW16413   6.184   2.798   4.702
 4839SOL    HW116414   6.096   2.777   4.732
 4839SOL    HW216415   6.216   2.864   4.764
 4840SOL     OW16416   5.836   0.946   7.059
 4840SOL    HW116417   5.893   1.010   7.101
 4840SOL    HW216418   5.749   0.964   7.095
 4841SOL     OW16419   9.026  11.299   2.753
 4841SOL    HW116420   9.011  11.293   2.658
 4841SOL    HW216421   8.975  11.375   2.780
 4842SOL     OW16422  12.626  10.603   9.902
 4842SOL    HW116423  12.573  10.637   9.831
 4842SOL    HW216424  12.656  10.517   9.872
 4843SOL     OW16425   6.211  12.172   8.547
 4843SOL    HW116426   6.131  12.213   8.579
 4843SOL    HW216427   6.250  12.131   8.625
 4844SOL     OW16428  10.394  13.831   8.128
 4844SOL    HW116429  10.448  13.906   8.155
 4844SOL    HW216430  10.317  13.836   8.185
 4845SOL     OW16431  14.665   9.541   5.831
 4845SOL    HW116432  14.663   9.590   5.913
 4845SOL    HW216433  14.757   9.545   5.803
 4846SOL     OW16434   1.263   8.787   2.593
 4846SOL    HW116435   1.346   8.796   2.547
 4846SOL    HW216436   1.262   8.696   2.623
 4847SOL     OW16437   7.518  13.490   1.755
 4847SOL    HW116438   7.540  13.545   1.680
 4847SOL    HW216439   7.550  13.403   1.732
 4848SOL     OW16440  14.344  11.870   9.129
 4848SOL    HW116441  14.393  11.930   9.073
 4848SOL    HW216442  14.375  11.889   9.217
 4849SOL     OW16443  13.895   1.427   8.524
 4849SOL    HW116444  13.832   1.497   8.543
 4849SOL    HW216445  13.892   1.417   8.429
 4850SOL     OW16446   0.762  10.508  10.818
 4850SOL    HW116447   0.844  10.540  10.781
 4850SOL    HW216448   0.760  10.543  10.907
 4851SOL     OW16449  10.001   1.389   2.645
 4851SOL    HW116450   9.932   1.411   2.582
 4851SOL    HW216451  10.082   1.417   2.602
 4852SOL     OW16452   2.620  14.755   6.430
 4852SOL    HW116453   2.673  14.798   6.363
 4852SOL    HW216454   2.677  14.751   6.507
 4853SOL     OW16455   9.775  10.245   9.790
 4853SOL    HW116456   9.857  10.292   9.799
 4853SOL    HW216457   9.723  10.271   9.865
 4854SOL     OW16458   6.997   2.022   3.135
 4854SOL    HW116459   7.039   2.038   3.051
 4854SOL    HW216460   7.052   2.070   3.198
 4855SOL     OW16461  12.433   0.084   9.622
 4855SOL    HW116462  12.347   0.120   9.599
 4855SOL    HW216463  12.417  14.863   9.639
 4856SOL     OW16464   5.023   1.441  10.346
 4856SOL    HW116465   5.075   1.371  10.306
 4856SOL    HW216466   4.942   1.398  10.373
 4857SOL     OW16467   6.692  11.679   3.870
 4857SOL    HW116468   6.636  11.699   3.795
 4857SOL    HW216469   6.674  11.749   3.933
 4858SOL     OW16470   5.736   6.679  13.899
 4858SOL    HW116471   5.821   6.711  13.927
 4858SOL    HW216472   5.721   6.601  13.953
 4859SOL     OW16473   0.656   2.126   3.433
 4859SOL    HW116474   0.616   2.051   3.389
 4859SOL    HW216475   0.750   2.110   3.428
 4860SOL     OW16476  14.814   0.673   2.009
 4860SOL    HW116477  14.758   0.623   2.068
 4860SOL    HW216478   0.031   0.643   2.028
 4861SOL     OW16479  11.695  10.109   4.832
 4861SOL    HW116480  11.742  10.173   4.885
 4861SOL    HW216481  11.652  10.051   4.896
 4862SOL     OW16482   3.995  10.452  14.569
 4862SOL    HW116483   4.071  10.510  14.561
 4862SOL    HW216484   3.923  10.510  14.593
 4863SOL     OW16485   1.730   6.318   4.057
 4863SOL    HW116486   1.814   6.284   4.026
 4863SOL    HW216487   1.667   6.249   4.037
 4864SOL     OW16488   0.776  12.966   7.544
 4864SOL    HW116489   0.750  13.025   7.474
 4864SOL    HW216490   0.827  12.898   7.501
 4865SOL     OW16491   5.620   8.381   3.850
 4865SOL    HW116492   5.639   8.328   3.928
 4865SOL    HW216493   5.695   8.366   3.792
 4866SOL     OW16494   4.578  12.508  10.453
 4866SOL    HW116495   4.570  12.498  10.359
 4866SOL    HW216496   4.616  12.595  10.465
 4867SOL     OW16497   0.923   4.507   3.861
 4867SOL    HW116498   0.864   4.461   3.801
 4867SOL    HW216499   1.009   4.504   3.817
 4868SOL     OW16500  10.572   8.600   8.378
 4868SOL    HW116501  10.597   8.633   8.464
 4868SOL    HW216502  10.510   8.529   8.396
 4869SOL     OW16503  12.409   9.276   3.969
 4869SOL    HW116504  12.418   9.370   3.985
 4869SOL    HW216505  12.333   9.251   4.021
 4870SOL     OW16506   2.723  14.343   9.253
 4870SOL    HW116507   2.722  14.303   9.340
 4870SOL    HW216508   2.700  14.271   9.193
 4871SOL     OW16509   2.565   9.970   8.346
 4871SOL    HW116510   2.506   9.910   8.392
 4871SOL    HW216511   2.629   9.913   8.303
 4872SOL     OW16512  11.629   3.721   2.738
 4872SOL    HW116513  11.589   3.805   2.714
 4872SOL    HW216514  11.704   3.712   2.678
 4873SOL     OW16515   3.318  10.591   8.607
 4873SOL    HW116516   3.394  10.533   8.601
 4873SOL    HW216517   3.329  10.637   8.690
 4874SOL     OW16518   7.728   4.140   0.133
 4874SOL    HW116519   7.791   4.206   0.162
 4874SOL    HW216520   7.771   4.096   0.060
 4875SOL     OW16521  11.743  14.823   7.803
 4875SOL    HW116522  11.720  14.786   7.718
 4875SOL    HW216523  11.676  14.789   7.863
 4876SOL     OW16524   9.565   5.961   1.372
 4876SOL    HW116525   9.551   6.030   1.307
 4876SOL    HW216526   9.604   6.006   1.447
 4877SOL     OW16527  14.564   5.514  14.691
 4877SOL    HW116528  14.540   5.554  14.774
 4877SOL    HW216529  14.531   5.425  14.696
 4878SOL     OW16530   7.673   9.560  14.198
 4878SOL    HW116531   7.755   9.542  14.152
 4878SOL    HW216532   7.696   9.632  14.258
 4879SOL     OW16533   7.875   8.554  11.900
 4879SOL    HW116534   7.955   8.540  11.850
 4879SOL    HW216535   7.812   8.586  11.836
 4880SOL     OW16536  10.293   3.717   0.846
 4880SOL    HW116537  10.386   3.737   0.835
 4880SOL    HW216538  10.248   3.797   0.818
 4881SOL     OW16539  13.654   5.474  10.495
 4881SOL    HW116540  13.673   5.503  10.405
 4881SOL    HW216541  13.562   5.496  10.508
 4882SOL     OW16542   9.579   4.948  11.228
 4882SOL    HW116543   9.667   4.972  11.200
 4882SOL    HW216544   9.523   4.968  11.153
 4883SOL     OW16545   5.836  12.027   4.945
 4883SOL    HW116546   5.749  12.000   4.973
 4883SOL    HW216547   5.867  12.086   5.014
 4884SOL     OW16548  12.384  14.134  10.258
 4884SOL    HW116549  12.295  14.148  10.225
 4884SOL    HW216550  12.395  14.039  10.257
 4885SOL     OW16551  12.023   4.412   6.150
 4885SOL    HW116552  12.002   4.452   6.066
 4885SOL    HW216553  12.114   4.436   6.167
 4886SOL     OW16554  14.192   7.707   0.193
 4886SOL    HW116555  14.101   7.731   0.210
 4886SOL    HW216556  14.189   7.654   0.114
 4887SOL     OW16557   2.344   4.878   0.440
 4887SOL    HW116558   2.312   4.862   0.529
 4887SOL    HW216559   2.378   4.793   0.411
 4888SOL     OW16560   0.480   6.151   2.533
 4888SOL    HW116561   0.404   6.161   2.591
 4888SOL    HW216562   0.555   6.161   2.591
 4889SOL     OW16563   8.841  12.681  11.348
 4889SOL    HW116564   8.902  12.626  11.299
 4889SOL    HW216565   8.756  12.666  11.307
 4890SOL     OW16566   1.234   9.626  10.113
 4890SOL    HW116567   1.299   9.556  10.110
 4890SOL    HW216568   1.169   9.601  10.048
 4891SOL     OW16569  10.092  13.497   1.018
 4891SOL    HW116570   9.997  13.500   1.012
 4891SOL    HW216571  10.118  13.585   1.043
 4892SOL     OW16572  13.163   4.103   9.391
 4892SOL    HW116573  13.196   4.083   9.479
 4892SOL    HW216574  13.200   4.189   9.371
 4893SOL     OW16575   4.601   4.844  11.540
 4893SOL    HW116576   4.661   4.911  11.572
 4893SOL    HW216577   4.636   4.762  11.573
 4894SOL     OW16578   4.114   0.221  11.188
 4894SOL    HW116579   4.183   0.240  11.125
 4894SOL    HW216580   4.061   0.153  11.146
 4895SOL     OW16581   4.914  10.710   7.199
 4895SOL    HW116582   4.826  10.726   7.163
 4895SOL    HW216583   4.925  10.776   7.267
 4896SOL     OW16584   0.869   1.112  13.542
 4896SOL    HW116585   0.794   1.171  13.531
 4896SOL    HW216586   0.945   1.168  13.527
 4897SOL     OW16587   0.916   4.969   9.109
 4897SOL    HW116588   0.983   4.903   9.094
 4897SOL    HW216589   0.889   4.955   9.200
 4898SOL     OW16590   7.159   7.508   5.481
 4898SOL    HW116591   7.171   7.505   5.386
 4898SOL    HW216592   7.220   7.442   5.515
 4899SOL     OW16593   0.682  14.091   1.583
 4899SOL    HW116594   0.665  14.119   1.674
 4899SOL    HW216595   0.601  14.047   1.556
 4900SOL     OW16596  13.765   6.090  10.442
 4900SOL    HW116597  13.802   6.006  10.469
 4900SOL    HW216598  13.738   6.077  10.351
 4901SOL     OW16599   6.507   9.824  10.588
 4901SOL    HW116600   6.513   9.729  10.575
 4901SOL    HW216601   6.597   9.852  10.600
 4902SOL     OW16602  12.898   9.491  14.478
 4902SOL    HW116603  12.864   9.401  14.476
 4902SOL    HW216604  12.832   9.540  14.528
 4903SOL     OW16605   5.128  10.132   5.077
 4903SOL    HW116606   5.170  10.159   5.159
 4903SOL    HW216607   5.036  10.154   5.089
 4904SOL     OW16608   5.789   0.149  11.823
 4904SOL    HW116609   5.738   0.162  11.743
 4904SOL    HW216610   5.796   0.236  11.862
 4905SOL     OW16611   6.012   4.168   0.878
 4905SOL    HW116612   6.034   4.114   0.802
 4905SOL    HW216613   6.041   4.256   0.855
 4906SOL     OW16614   8.960   5.645   3.547
 4906SOL    HW116615   8.912   5.564   3.566
 4906SOL    HW216616   9.025   5.651   3.617
 4907SOL     OW16617   1.230   2.595   6.511
 4907SOL    HW116618   1.194   2.625   6.595
 4907SOL    HW216619   1.243   2.676   6.461
 4908SOL     OW16620   1.339   3.342   0.991
 4908SOL    HW116621   1.339   3.300   0.905
 4908SOL    HW216622   1.406   3.295   1.041
 4909SOL     OW16623   6.829   4.178  12.496
 4909SOL    HW116624   6.778   4.160  12.575
 4909SOL    HW216625   6.817   4.101  12.441
 4910SOL     OW16626  14.734   7.788   2.671
 4910SOL    HW116627  14.800   7.797   2.603
 4910SOL    HW216628  14.714   7.694   2.673
 4911SOL     OW16629   1.012   9.263   8.794
 4911SOL    HW116630   1.009   9.170   8.771
 4911SOL    HW216631   1.094   9.295   8.756
 4912SOL     OW16632   5.524  13.763   0.886
 4912SOL    HW116633   5.549  13.786   0.797
 4912SOL    HW216634   5.589  13.806   0.942
 4913SOL     OW16635  12.650   5.977   4.566
 4913SOL    HW116636  12.615   5.970   4.477
 4913SOL    HW216637  12.712   6.050   4.561
 4914SOL     OW16638   8.597   2.152   2.607
 4914SOL    HW116639   8.593   2.247   2.604
 4914SOL    HW216640   8.566   2.124   2.521
 4915SOL     OW16641   6.413   1.360   7.117
 4915SOL    HW116642   6.488   1.388   7.065
 4915SOL    HW216643   6.344   1.422   7.095
 4916SOL     OW16644  14.676   1.850   3.037
 4916SOL    HW116645  14.623   1.848   2.958
 4916SOL    HW216646  14.701   1.759   3.052
 4917SOL     OW16647   3.670   9.507   2.614
 4917SOL    HW116648   3.756   9.547   2.630
 4917SOL    HW216649   3.653   9.456   2.693
 4918SOL     OW16650   9.766  12.476   8.057
 4918SOL    HW116651   9.791  12.440   7.971
 4918SOL    HW216652   9.675  12.504   8.046
 4919SOL     OW16653   6.922   7.723  12.595
 4919SOL    HW116654   6.881   7.728  12.508
 4919SOL    HW216655   6.972   7.642  12.593
 4920SOL     OW16656  14.303   5.196   5.602
 4920SOL    HW116657  14.319   5.272   5.658
 4920SOL    HW216658  14.360   5.210   5.526
 4921SOL     OW16659  14.710   5.458  12.342
 4921SOL    HW116660  14.774   5.413  12.287
 4921SOL    HW216661  14.722   5.420  12.429
 4922SOL     OW16662   7.949   5.444   5.047
 4922SOL    HW116663   7.888   5.518   5.039
 4922SOL    HW216664   7.923   5.402   5.129
 4923SOL     OW16665  11.844   5.001   7.766
 4923SOL    HW116666  11.924   5.054   7.768
 4923SOL    HW216667  11.796   5.028   7.844
 4924SOL     OW16668  13.544   6.684   1.713
 4924SOL    HW116669  13.473   6.623   1.692
 4924SOL    HW216670  13.501   6.769   1.721
 4925SOL     OW16671  14.250   2.563   6.750
 4925SOL    HW116672  14.303   2.639   6.726
 4925SOL    HW216673  14.219   2.583   6.839
 4926SOL     OW16674   0.901  12.030   5.579
 4926SOL    HW116675   0.913  12.066   5.491
 4926SOL    HW216676   0.823  11.975   5.571
 4927SOL     OW16677  14.319  12.443  11.729
 4927SOL    HW116678  14.233  12.426  11.692
 4927SOL    HW216679  14.377  12.447  11.654
 4928SOL     OW16680   3.917   4.363   4.023
 4928SOL    HW116681   3.826   4.339   4.041
 4928SOL    HW216682   3.956   4.283   3.988
 4929SOL     OW16683   6.302  13.585   1.118
 4929SOL    HW116684   6.297  13.562   1.210
 4929SOL    HW216685   6.342  13.509   1.076
 4930SOL     OW16686   0.329  13.404  14.776
 4930SOL    HW116687   0.393  13.415  14.846
 4930SOL    HW216688   0.381  13.396  14.696
 4931SOL     OW16689  11.068  13.739   3.543
 4931SOL    HW116690  11.105  13.784   3.620
 4931SOL    HW216691  11.135  13.748   3.476
 4932SOL     OW16692   9.439   2.540   4.577
 4932SOL    HW116693   9.504   2.581   4.521
 4932SOL    HW216694   9.382   2.493   4.517
 4933SOL     OW16695   0.678   1.290   4.561
 4933SOL    HW116696   0.699   1.257   4.649
 4933SOL    HW216697   0.635   1.374   4.576
 4934SOL     OW16698   5.451   0.082   9.020
 4934SOL    HW116699   5.399   0.129   8.955
 4934SOL    HW216700   5.440  14.861   8.997
 4935SOL     OW16701   9.478   4.389   3.828
 4935SOL    HW116702   9.446   4.300   3.815
 4935SOL    HW216703   9.568   4.387   3.797
 4936SOL     OW16704  10.334   8.014  11.828
 4936SOL    HW116705  10.416   7.978  11.795
 4936SOL    HW216706  10.330   7.983  11.919
 4937SOL     OW16707   5.666   3.901   7.642
 4937SOL    HW116708   5.651   3.979   7.588
 4937SOL    HW216709   5.687   3.833   7.579
 4938SOL     OW16710   2.446   1.430   6.534
 4938SOL    HW116711   2.403   1.407   6.452
 4938SOL    HW216712   2.481   1.518   6.518
 4939SOL     OW16713   2.722   6.433  11.231
 4939SOL    HW116714   2.700   6.494  11.161
 4939SOL    HW216715   2.641   6.383  11.245
 4940SOL     OW16716   2.967  12.394   0.989
 4940SOL    HW116717   3.012  12.433   0.914
 4940SOL    HW216718   3.019  12.317   1.011
 4941SOL     OW16719   6.387   6.002   8.451
 4941SOL    HW116720   6.361   5.931   8.509
 4941SOL    HW216721   6.424   6.069   8.510
 4942SOL     OW16722   8.253  10.062   6.433
 4942SOL    HW116723   8.197  10.054   6.357
 4942SOL    HW216724   8.302   9.979   6.435
 4943SOL     OW16725   5.568  10.089  11.862
 4943SOL    HW116726   5.591  10.055  11.949
 4943SOL    HW216727   5.624  10.166  11.850
 4944SOL     OW16728   6.466  10.898   1.420
 4944SOL    HW116729   6.403  10.849   1.473
 4944SOL    HW216730   6.551  10.860   1.443
 4945SOL     OW16731   8.689  11.798   1.060
 4945SOL    HW116732   8.765  11.746   1.035
 4945SOL    HW216733   8.696  11.878   1.007
 4946SOL     OW16734  11.792   4.532   8.608
 4946SOL    HW116735  11.732   4.598   8.644
 4946SOL    HW216736  11.809   4.562   8.518
 4947SOL     OW16737  11.514   6.847  13.150
 4947SOL    HW116738  11.533   6.935  13.183
 4947SOL    HW216739  11.431   6.856  13.104
 4948SOL     OW16740   6.921   0.467   4.451
 4948SOL    HW116741   6.829   0.492   4.451
 4948SOL    HW216742   6.965   0.533   4.398
 4949SOL     OW16743   2.031   8.641   5.171
 4949SOL    HW116744   2.039   8.589   5.251
 4949SOL    HW216745   2.027   8.576   5.101
 4950SOL     OW16746  13.683   6.057  10.692
 4950SOL    HW116747  13.728   6.074  10.610
 4950SOL    HW216748  13.752   6.035  10.754
 4951SOL     OW16749   4.270   5.458   0.747
 4951SOL    HW116750   4.319   5.383   0.782
 4951SOL    HW216751   4.308   5.473   0.661
 4952SOL     OW16752   5.427  10.629   2.203
 4952SOL    HW116753   5.454  10.546   2.244
 4952SOL    HW216754   5.361  10.664   2.263
 4953SOL     OW16755  11.191   5.377   3.692
 4953SOL    HW116756  11.222   5.456   3.738
 4953SOL    HW216757  11.108   5.356   3.734
 4954SOL     OW16758  12.218  11.418   3.418
 4954SOL    HW116759  12.270  11.363   3.476
 4954SOL    HW216760  12.276  11.438   3.345
 4955SOL     OW16761  10.240   7.405   3.198
 4955SOL    HW116762  10.177   7.470   3.232
 4955SOL    HW216763  10.193   7.322   3.202
 4956SOL     OW16764  14.271  13.677   2.417
 4956SOL    HW116765  14.177  13.658   2.416
 4956SOL    HW216766  14.288  13.711   2.505
 4957SOL     OW16767   8.300   7.827   1.165
 4957SOL    HW116768   8.348   7.804   1.245
 4957SOL    HW216769   8.348   7.783   1.095
 4958SOL     OW16770  13.102   0.126  14.619
 4958SOL    HW116771  13.173   0.188  14.634
 4958SOL    HW216772  13.143   0.040  14.626
 4959SOL     OW16773   6.678  13.110   9.424
 4959SOL    HW116774   6.631  13.033   9.391
 4959SOL    HW216775   6.684  13.096   9.519
 4960SOL     OW16776   7.017  10.067   2.412
 4960SOL    HW116777   6.980  10.019   2.486
 4960SOL    HW216778   7.076  10.004   2.370
 4961SOL     OW16779   9.116   1.413  14.460
 4961SOL    HW116780   9.022   1.414  14.478
 4961SOL    HW216781   9.122   1.424  14.365
 4962SOL     OW16782  10.524   7.349   3.256
 4962SOL    HW116783  10.548   7.417   3.319
 4962SOL    HW216784  10.443   7.381   3.216
 4963SOL     OW16785   1.963   4.880   3.044
 4963SOL    HW116786   2.002   4.862   3.129
 4963SOL    HW216787   1.869   4.871   3.059
 4964SOL     OW16788   9.533   5.024   1.114
 4964SOL    HW116789   9.542   5.118   1.126
 4964SOL    HW216790   9.620   4.988   1.134
 4965SOL     OW16791   2.517   2.409   4.820
 4965SOL    HW116792   2.427   2.441   4.827
 4965SOL    HW216793   2.508   2.317   4.796
 4966SOL     OW16794   8.348   6.671  10.877
 4966SOL    HW116795   8.356   6.585  10.836
 4966SOL    HW216796   8.368   6.733  10.807
 4967SOL     OW16797   9.586   4.731   6.703
 4967SOL    HW116798   9.509   4.675   6.694
 4967SOL    HW216799   9.650   4.694   6.642
 4968SOL     OW16800   7.967   9.321  12.710
 4968SOL    HW116801   7.899   9.279  12.657
 4968SOL    HW216802   7.939   9.411  12.720
 4969SOL     OW16803  12.221   2.455   5.501
 4969SOL    HW116804  12.199   2.466   5.408
 4969SOL    HW216805  12.225   2.544   5.535
 4970SOL     OW16806   7.014  12.213   9.814
 4970SOL    HW116807   7.023  12.299   9.854
 4970SOL    HW216808   7.097  12.200   9.767
 4971SOL     OW16809  13.234   1.891   8.629
 4971SOL    HW116810  13.215   1.905   8.537
 4971SOL    HW216811  13.218   1.797   8.644
 4972SOL     OW16812  11.648   1.055  12.980
 4972SOL    HW116813  11.689   1.139  13.003
 4972SOL    HW216814  11.721   0.993  12.976
 4973SOL     OW16815   7.001   0.643   1.769
 4973SOL    HW116816   6.955   0.711   1.818
 4973SOL    HW216817   6.967   0.560   1.804
 4974SOL     OW16818   0.610  13.489   2.026
 4974SOL    HW116819   0.695  13.453   1.999
 4974SOL    HW216820   0.600  13.461   2.117
 4975SOL     OW16821   4.039   3.141  14.739
 4975SOL    HW116822   4.088   3.082  14.797
 4975SOL    HW216823   4.014   3.214  14.796
 4976SOL     OW16824  10.801   2.432  14.596
 4976SOL    HW116825  10.802   2.341  14.566
 4976SOL    HW216826  10.713   2.446  14.629
 4977SOL     OW16827   4.256   2.753   4.220
 4977SOL    HW116828   4.325   2.803   4.264
 4977SOL    HW216829   4.201   2.720   4.291
 4978SOL     OW16830   0.152   0.141  10.118
 4978SOL    HW116831   0.137   0.189  10.036
 4978SOL    HW216832   0.095   0.184  10.182
 4979SOL     OW16833  13.212   3.788   4.870
 4979SOL    HW116834  13.220   3.828   4.957
 4979SOL    HW216835  13.127   3.816   4.838
 4980SOL     OW16836   0.541   2.749  13.504
 4980SOL    HW116837   0.494   2.829  13.480
 4980SOL    HW216838   0.518   2.686  13.435
 4981SOL     OW16839  10.317   6.695  13.335
 4981SOL    HW116840  10.376   6.750  13.283
 4981SOL    HW216841  10.248   6.754  13.363
 4982SOL     OW16842  12.543   6.039   3.871
 4982SOL    HW116843  12.577   6.118   3.829
 4982SOL    HW216844  12.448   6.044   3.857
 4983SOL     OW16845   7.117  14.855  11.586
 4983SOL    HW116846   7.060   0.045  11.632
 4983SOL    HW216847   7.102   0.001  11.493
 4984SOL     OW16848   3.883   6.476   7.760
 4984SOL    HW116849   3.900   6.386   7.732
 4984SOL    HW216850   3.793   6.493   7.732
 4985SOL     OW16851   9.993   6.502   2.620
 4985SOL    HW116852   9.963   6.488   2.709
 4985SOL    HW216853   9.918   6.543   2.576
 4986SOL     OW16854   3.436   3.126  11.911
 4986SOL    HW116855   3.439   3.183  11.834
 4986SOL    HW216856   3.379   3.172  11.972
 4987SOL     OW16857   1.567   4.920   2.573
 4987SOL    HW116858   1.572   4.947   2.481
 4987SOL    HW216859   1.506   4.983   2.613
 4988SOL     OW16860  12.513   9.418   1.488
 4988SOL    HW116861  12.449   9.385   1.552
 4988SOL    HW216862  12.598   9.399   1.527
 4989SOL     OW16863  14.365   6.955   2.564
 4989SOL    HW116864  14.411   6.888   2.614
 4989SOL    HW216865  14.277   6.957   2.602
 4990SOL     OW16866   6.530   4.556  14.353
 4990SOL    HW116867   6.492   4.582  14.437
 4990SOL    HW216868   6.480   4.604  14.288
 4991SOL     OW16869   5.112   5.758  10.529
 4991SOL    HW116870   5.196   5.769  10.484
 4991SOL    HW216871   5.112   5.826  10.595
 4992SOL     OW16872  10.422   3.899   4.754
 4992SOL    HW116873  10.442   3.916   4.847
 4992SOL    HW216874  10.406   3.985   4.717
 4993SOL     OW16875  13.982   8.040  12.263
 4993SOL    HW116876  13.991   8.037  12.167
 4993SOL    HW216877  13.975   8.134  12.283
 4994SOL     OW16878  11.996  10.560  13.236
 4994SOL    HW116879  12.014  10.478  13.189
 4994SOL    HW216880  12.073  10.574  13.291
 4995SOL     OW16881   7.797   3.648  10.450
 4995SOL    HW116882   7.847   3.715  10.497
 4995SOL    HW216883   7.763   3.590  10.518
 4996SOL     OW16884   5.117  12.934   1.029
 4996SOL    HW116885   5.159  12.910   1.112
 4996SOL    HW216886   5.127  12.855   0.975
 4997SOL     OW16887   6.023   3.174   1.000
 4997SOL    HW116888   6.012   3.220   1.083
 4997SOL    HW216889   5.957   3.212   0.942
 4998SOL     OW16890   2.694  11.447   7.914
 4998SOL    HW116891   2.604  11.420   7.934
 4998SOL    HW216892   2.740  11.441   7.998
 4999SOL     OW16893   1.155   2.556   8.297
 4999SOL    HW116894   1.088   2.608   8.342
 4999SOL    HW216895   1.106   2.483   8.259
 5000SOL     OW16896  11.320   1.386   3.708
 5000SOL    HW116897  11.238   1.428   3.732
 5000SOL    HW216898  11.296   1.296   3.685
 5001SOL     OW16899   2.117  10.034   4.021
 5001SOL    HW116900   2.205  10.063   4.000
 5001SOL    HW216901   2.126   9.993   4.108
 5002SOL     OW16902   3.978   4.597   4.728
 5002SOL    HW116903   4.016   4.684   4.713
 5002SOL    HW216904   3.888   4.615   4.757
 5003SOL     OW16905   1.462   5.892   7.646
 5003SOL    HW116906   1.412   5.912   7.725
 5003SOL    HW216907   1.536   5.841   7.677
 5004SOL     OW16908   7.629  14.034   7.107
 5004SOL    HW116909   7.591  13.956   7.066
 5004SOL    HW216910   7.632  14.098   7.036
 5005SOL     OW16911   3.183   2.677   3.233
 5005SOL    HW116912   3.169   2.762   3.275
 5005SOL    HW216913   3.273   2.681   3.200
 5006SOL     OW16914   3.975   8.178   0.623
 5006SOL    HW116915   4.046   8.171   0.688
 5006SOL    HW216916   3.988   8.103   0.566
 5007SOL     OW16917   6.504  10.708  13.961
 5007SOL    HW116918   6.533  10.784  14.012
 5007SOL    HW216919   6.584  10.675  13.920
 5008SOL     OW16920  10.272  13.899  10.876
 5008SOL    HW116921  10.352  13.913  10.826
 5008SOL    HW216922  10.264  13.804  10.883
 5009SOL     OW16923   0.680   4.087   2.323
 5009SOL    HW116924   0.656   4.125   2.238
 5009SOL    HW216925   0.765   4.125   2.343
 5010SOL     OW16926   3.857   3.844   1.390
 5010SOL    HW116927   3.848   3.793   1.309
 5010SOL    HW216928   3.773   3.887   1.401
 5011SOL     OW16929   5.814   0.905  10.377
 5011SOL    HW116930   5.761   0.930  10.454
 5011SOL    HW216931   5.750   0.881  10.311
 5012SOL     OW16932   2.227   3.176   3.247
 5012SOL    HW116933   2.225   3.188   3.152
 5012SOL    HW216934   2.143   3.211   3.277
 5013SOL     OW16935   0.028   3.596   0.214
 5013SOL    HW116936  14.870   3.633   0.130
 5013SOL    HW216937   0.122   3.583   0.202
 5014SOL     OW16938   2.770   5.876   8.470
 5014SOL    HW116939   2.807   5.832   8.547
 5014SOL    HW216940   2.696   5.822   8.444
 5015SOL     OW16941  11.715   0.462   6.668
 5015SOL    HW116942  11.695   0.368   6.665
 5015SOL    HW216943  11.810   0.467   6.662
 5016SOL     OW16944  10.746  12.228   0.505
 5016SOL    HW116945  10.741  12.317   0.470
 5016SOL    HW216946  10.838  12.217   0.531
 5017SOL     OW16947   1.409   5.995   3.545
 5017SOL    HW116948   1.394   5.903   3.521
 5017SOL    HW216949   1.464   5.990   3.623
 5018SOL     OW16950   9.116   3.256   0.725
 5018SOL    HW116951   9.128   3.164   0.748
 5018SOL    HW216952   9.204   3.292   0.725
 5019SOL     OW16953  10.184   1.728   6.325
 5019SOL    HW116954  10.229   1.676   6.259
 5019SOL    HW216955  10.092   1.703   6.317
 5020SOL     OW16956  12.691  13.974   5.438
 5020SOL    HW116957  12.636  14.052   5.435
 5020SOL    HW216958  12.672  13.928   5.356
 5021SOL     OW16959   3.405   3.915  12.582
 5021SOL    HW116960   3.430   3.843  12.639
 5021SOL    HW216961   3.316   3.893  12.553
 5022SOL     OW16962  10.127   8.255   2.081
 5022SOL    HW116963  10.125   8.288   1.991
 5022SOL    HW216964  10.161   8.328   2.132
 5023SOL     OW16965   7.448  12.460  11.785
 5023SOL    HW116966   7.373  12.500  11.830
 5023SOL    HW216967   7.478  12.391  11.844
 5024SOL     OW16968   0.872  12.292   9.449
 5024SOL    HW116969   0.819  12.213   9.456
 5024SOL    HW216970   0.834  12.340   9.376
 5025SOL     OW16971   1.676   8.035   0.378
 5025SOL    HW116972   1.632   8.118   0.359
 5025SOL    HW216973   1.764   8.061   0.405
 5026SOL     OW16974   4.915   1.842   8.285
 5026SOL    HW116975   4.993   1.838   8.230
 5026SOL    HW216976   4.904   1.752   8.317
 5027SOL     OW16977   7.065   0.259   1.330
 5027SOL    HW116978   7.063   0.210   1.248
 5027SOL    HW216979   7.142   0.315   1.323
 5028SOL     OW16980   1.170  12.696   9.515
 5028SOL    HW116981   1.249  12.736   9.479
 5028SOL    HW216982   1.171  12.607   9.482
 5029SOL     OW16983  13.797   3.508  12.385
 5029SOL    HW116984  13.829   3.596  12.367
 5029SOL    HW216985  13.786   3.505  12.480
 5030SOL     OW16986   2.319   3.226   5.779
 5030SOL    HW116987   2.247   3.198   5.835
 5030SOL    HW216988   2.283   3.223   5.690
 5031SOL     OW16989   9.246   9.776  13.173
 5031SOL    HW116990   9.216   9.829  13.247
 5031SOL    HW216991   9.249   9.687  13.207
 5032SOL     OW16992   5.030   5.002  11.769
 5032SOL    HW116993   5.116   5.035  11.791
 5032SOL    HW216994   5.047   4.918  11.725
 5033SOL     OW16995  14.649   3.576   2.044
 5033SOL    HW116996  14.565   3.579   2.089
 5033SOL    HW216997  14.647   3.651   1.985
 5034SOL     OW16998   0.110   8.046  12.419
 5034SOL    HW116999   0.083   8.096  12.342
 5034SOL    HW217000   0.206   8.055  12.420
 5035SOL     OW17001   5.845   3.758   7.192
 5035SOL    HW117002   5.873   3.804   7.272
 5035SOL    HW217003   5.923   3.759   7.136
 5036SOL     OW17004   0.694   2.349   6.030
 5036SOL    HW117005   0.718   2.257   6.038
 5036SOL    HW217006   0.606   2.354   6.066
 5037SOL     OW17007   5.923   1.195  14.542
 5037SOL    HW117008   5.924   1.267  14.478
 5037SOL    HW217009   6.014   1.165  14.545
 5038SOL     OW17010   5.794   6.938   0.983
 5038SOL    HW117011   5.873   6.908   1.028
 5038SOL    HW217012   5.722   6.893   1.027
 5039SOL     OW17013  11.965   4.228   0.653
 5039SOL    HW117014  11.917   4.244   0.734
 5039SOL    HW217015  12.000   4.140   0.662
 5040SOL     OW17016   6.002   3.038   6.903
 5040SOL    HW117017   5.985   2.959   6.955
 5040SOL    HW217018   5.992   3.009   6.813
 5041SOL     OW17019  11.442  12.794   6.824
 5041SOL    HW117020  11.522  12.811   6.874
 5041SOL    HW217021  11.440  12.699   6.813
 5042SOL     OW17022   5.066  10.082   1.481
 5042SOL    HW117023   5.136  10.029   1.519
 5042SOL    HW217024   5.024  10.124   1.556
 5043SOL     OW17025   6.953  11.729   2.698
 5043SOL    HW117026   6.938  11.765   2.610
 5043SOL    HW217027   6.960  11.634   2.683
 5044SOL     OW17028   1.860   1.528   5.537
 5044SOL    HW117029   1.765   1.528   5.552
 5044SOL    HW217030   1.881   1.620   5.520
 5045SOL     OW17031  10.422  12.957   7.463
 5045SOL    HW117032  10.408  12.868   7.431
 5045SOL    HW217033  10.336  12.998   7.458
 5046SOL     OW17034   3.389   9.464   9.816
 5046SOL    HW117035   3.298   9.493   9.821
 5046SOL    HW217036   3.426   9.512   9.741
 5047SOL     OW17037   8.124   4.115   8.054
 5047SOL    HW117038   8.141   4.057   7.980
 5047SOL    HW217039   8.029   4.121   8.059
 5048SOL     OW17040   0.111   5.482  11.631
 5048SOL    HW117041   0.197   5.519  11.654
 5048SOL    HW217042   0.062   5.556  11.596
 5049SOL     OW17043   4.104   2.798   8.769
 5049SOL    HW117044   4.087   2.734   8.838
 5049SOL    HW217045   4.192   2.830   8.787
 5050SOL     OW17046  11.476  12.349   3.897
 5050SOL    HW117047  11.509  12.346   3.807
 5050SOL    HW217048  11.541  12.301   3.948
 5051SOL     OW17049  14.190   7.855   7.764
 5051SOL    HW117050  14.173   7.779   7.820
 5051SOL    HW217051  14.282   7.875   7.776
 5052SOL     OW17052   2.135   9.251   8.351
 5052SOL    HW117053   2.195   9.232   8.279
 5052SOL    HW217054   2.114   9.165   8.387
 5053SOL     OW17055   7.635  11.813   1.131
 5053SOL    HW117056   7.701  11.880   1.149
 5053SOL    HW217057   7.646  11.748   1.200
 5054SOL     OW17058   0.315   3.501  14.683
 5054SOL    HW117059   0.294   3.409  14.701
 5054SOL    HW217060   0.410   3.507  14.693
 5055SOL     OW17061   0.419  10.440   4.857
 5055SOL    HW117062   0.345  10.398   4.899
 5055SOL    HW217063   0.452  10.502   4.922
 5056SOL     OW17064   7.462   4.267  12.900
 5056SOL    HW117065   7.547   4.273  12.857
 5056SOL    HW217066   7.482   4.231  12.987
 5057SOL     OW17067   6.484  14.682   0.652
 5057SOL    HW117068   6.461  14.599   0.610
 5057SOL    HW217069   6.443  14.678   0.738
 5058SOL     OW17070   6.072   2.525  11.185
 5058SOL    HW117071   6.100   2.615  11.170
 5058SOL    HW217072   6.152   2.474  11.181
 5059SOL     OW17073  11.460  13.257   3.136
 5059SOL    HW117074  11.371  13.268   3.104
 5059SOL    HW217075  11.449  13.223   3.225
 5060SOL     OW17076   0.037   2.419  10.814
 5060SOL    HW117077  14.835   2.413  10.875
 5060SOL    HW217078  14.869   2.438  10.730
 5061SOL     OW17079   4.157  11.868   3.204
 5061SOL    HW117080   4.157  11.916   3.287
 5061SOL    HW217081   4.148  11.936   3.137
 5062SOL     OW17082   5.513   2.106   7.400
 5062SOL    HW117083   5.434   2.105   7.455
 5062SOL    HW217084   5.485   2.149   7.319
 5063SOL     OW17085  14.116   6.389   3.350
 5063SOL    HW117086  14.075   6.464   3.307
 5063SOL    HW217087  14.088   6.396   3.441
 5064SOL     OW17088   2.324  13.613   1.506
 5064SOL    HW117089   2.410  13.606   1.466
 5064SOL    HW217090   2.286  13.526   1.496
 5065SOL     OW17091  11.399   7.951   2.344
 5065SOL    HW117092  11.483   7.953   2.390
 5065SOL    HW217093  11.354   8.030   2.373
 5066SOL     OW17094  13.631   3.479   0.940
 5066SOL    HW117095  13.617   3.385   0.953
 5066SOL    HW217096  13.689   3.484   0.864
 5067SOL     OW17097   5.825  11.453  11.061
 5067SOL    HW117098   5.753  11.420  11.006
 5067SOL    HW217099   5.872  11.374  11.089
 5068SOL     OW17100   7.024   7.617   9.975
 5068SOL    HW117101   6.989   7.577   9.896
 5068SOL    HW217102   7.030   7.711   9.955
 5069SOL     OW17103  11.477   9.071   0.950
 5069SOL    HW117104  11.494   9.164   0.934
 5069SOL    HW217105  11.433   9.040   0.871
 5070SOL     OW17106   7.462   2.929   9.922
 5070SOL    HW117107   7.549   2.968   9.932
 5070SOL    HW217108   7.470   2.873   9.846
 5071SOL     OW17109   3.724  13.326  13.159
 5071SOL    HW117110   3.658  13.392  13.178
 5071SOL    HW217111   3.770  13.314  13.243
 5072SOL     OW17112  12.952   0.134   8.319
 5072SOL    HW117113  12.963   0.203   8.254
 5072SOL    HW217114  12.961   0.178   8.404
 5073SOL     OW17115   6.913  14.565   2.533
 5073SOL    HW117116   6.819  14.567   2.519
 5073SOL    HW217117   6.927  14.492   2.593
 5074SOL     OW17118  10.656   2.868   3.456
 5074SOL    HW117119  10.615   2.948   3.423
 5074SOL    HW217120  10.708   2.836   3.382
 5075SOL     OW17121   4.390   1.235   1.813
 5075SOL    HW117122   4.312   1.192   1.847
 5075SOL    HW217123   4.409   1.190   1.731
 5076SOL     OW17124   6.858  11.355   9.562
 5076SOL    HW117125   6.940  11.308   9.546
 5076SOL    HW217126   6.801  11.291   9.604
 5077SOL     OW17127   6.740  14.781   2.136
 5077SOL    HW117128   6.736   0.006   2.133
 5077SOL    HW217129   6.662  14.756   2.186
 5078SOL     OW17130  13.971   3.309   7.593
 5078SOL    HW117131  13.877   3.312   7.609
 5078SOL    HW217132  14.004   3.393   7.626
 5079SOL     OW17133  13.532   2.570   1.686
 5079SOL    HW117134  13.545   2.630   1.759
 5079SOL    HW217135  13.617   2.526   1.676
 5080SOL     OW17136  13.142  12.801  12.268
 5080SOL    HW117137  13.085  12.730  12.239
 5080SOL    HW217138  13.214  12.801  12.205
 5081SOL     OW17139   4.926   5.618  10.840
 5081SOL    HW117140   4.993   5.565  10.796
 5081SOL    HW217141   4.976   5.684  10.889
 5082SOL     OW17142  12.018   5.089  10.848
 5082SOL    HW117143  12.028   4.995  10.831
 5082SOL    HW217144  11.945   5.116  10.793
 5083SOL     OW17145  11.580   9.464  13.882
 5083SOL    HW117146  11.584   9.486  13.789
 5083SOL    HW217147  11.665   9.490  13.917
 5084SOL     OW17148   4.749  13.328   8.149
 5084SOL    HW117149   4.779  13.258   8.091
 5084SOL    HW217150   4.801  13.404   8.123
 5085SOL     OW17151  12.709  14.334   3.160
 5085SOL    HW117152  12.749  14.282   3.090
 5085SOL    HW217153  12.708  14.275   3.236
 5086SOL     OW17154   5.971   9.152   5.777
 5086SOL    HW117155   5.881   9.121   5.767
 5086SOL    HW217156   6.022   9.098   5.716
 5087SOL     OW17157   8.248   4.375  10.719
 5087SOL    HW117158   8.230   4.283  10.738
 5087SOL    HW217159   8.183   4.399  10.653
 5088SOL     OW17160  14.017   3.719  14.621
 5088SOL    HW117161  14.027   3.787  14.689
 5088SOL    HW217162  14.104   3.679  14.615
 5089SOL     OW17163   8.377   0.902   2.720
 5089SOL    HW117164   8.318   0.972   2.693
 5089SOL    HW217165   8.358   0.890   2.813
 5090SOL     OW17166   1.579  12.559  10.345
 5090SOL    HW117167   1.593  12.540  10.437
 5090SOL    HW217168   1.607  12.650  10.334
 5091SOL     OW17169   9.866   9.504  13.908
 5091SOL    HW117170   9.827   9.417  13.901
 5091SOL    HW217171   9.818   9.546  13.980
 5092SOL     OW17172  12.381   3.680   6.804
 5092SOL    HW117173  12.288   3.698   6.787
 5092SOL    HW217174  12.381   3.634   6.888
 5093SOL     OW17175  14.058  12.262   1.327
 5093SOL    HW117176  14.000  12.195   1.362
 5093SOL    HW217177  14.118  12.214   1.270
 5094SOL     OW17178   7.625  13.365   2.922
 5094SOL    HW117179   7.581  13.422   2.859
 5094SOL    HW217180   7.644  13.285   2.873
 5095SOL     OW17181  11.643   0.452  14.377
 5095SOL    HW117182  11.703   0.420  14.445
 5095SOL    HW217183  11.558   0.457  14.422
 5096SOL     OW17184   1.536   3.067   5.772
 5096SOL    HW117185   1.587   3.010   5.714
 5096SOL    HW217186   1.450   3.073   5.729
 5097SOL     OW17187  12.419   4.236   3.241
 5097SOL    HW117188  12.506   4.242   3.282
 5097SOL    HW217189  12.435   4.194   3.156
 5098SOL     OW17190   1.901  12.136   5.387
 5098SOL    HW117191   1.811  12.130   5.417
 5098SOL    HW217192   1.897  12.113   5.294
 5099SOL     OW17193  12.699   1.120   8.655
 5099SOL    HW117194  12.660   1.202   8.626
 5099SOL    HW217195  12.723   1.136   8.746
 5100SOL     OW17196   5.851   2.958   1.266
 5100SOL    HW117197   5.829   2.867   1.286
 5100SOL    HW217198   5.773   3.007   1.292
 5101SOL     OW17199   0.660   0.060   4.192
 5101SOL    HW117200   0.645  14.840   4.169
 5101SOL    HW217201   0.575   0.102   4.183
 5102SOL     OW17202   2.241   9.139  11.475
 5102SOL    HW117203   2.197   9.216  11.509
 5102SOL    HW217204   2.330   9.144  11.511
 5103SOL     OW17205   6.745   2.838   4.043
 5103SOL    HW117206   6.725   2.875   4.128
 5103SOL    HW217207   6.835   2.865   4.025
 5104SOL     OW17208  14.503  11.566  11.536
 5104SOL    HW117209  14.409  11.557  11.520
 5104SOL    HW217210  14.538  11.477  11.529
 5105SOL     OW17211   6.814  14.148   4.272
 5105SOL    HW117212   6.761  14.086   4.323
 5105SOL    HW217213   6.811  14.229   4.323
 5106SOL     OW17214  10.037  11.634   4.566
 5106SOL    HW117215  10.130  11.647   4.584
 5106SOL    HW217216  10.035  11.573   4.492
 5107SOL     OW17217  10.226   7.364   9.188
 5107SOL    HW117218  10.277   7.285   9.207
 5107SOL    HW217219  10.186   7.387   9.272
 5108SOL     OW17220  10.109  13.813  12.726
 5108SOL    HW117221  10.162  13.792  12.650
 5108SOL    HW217222  10.032  13.757  12.718
 5109SOL     OW17223   9.091   3.473   6.920
 5109SOL    HW117224   9.077   3.550   6.865
 5109SOL    HW217225   9.057   3.400   6.869
 5110SOL     OW17226   5.444  11.021  13.382
 5110SOL    HW117227   5.490  11.103  13.364
 5110SOL    HW217228   5.357  11.033  13.345
 5111SOL     OW17229   2.878  10.658   6.896
 5111SOL    HW117230   2.964  10.648   6.854
 5111SOL    HW217231   2.815  10.648   6.825
 5112SOL     OW17232  14.760   0.068   7.341
 5112SOL    HW117233  14.754   0.094   7.433
 5112SOL    HW217234  14.681   0.105   7.301
 5113SOL     OW17235   5.701   5.792   1.989
 5113SOL    HW117236   5.714   5.733   2.063
 5113SOL    HW217237   5.609   5.782   1.965
 5114SOL     OW17238   2.947   0.849   2.923
 5114SOL    HW117239   2.905   0.786   2.864
 5114SOL    HW217240   2.874   0.890   2.970
 5115SOL     OW17241   1.371  11.431   8.081
 5115SOL    HW117242   1.457  11.422   8.039
 5115SOL    HW217243   1.351  11.524   8.073
 5116SOL     OW17244   7.824   7.771   0.498
 5116SOL    HW117245   7.783   7.837   0.443
 5116SOL    HW217246   7.764   7.761   0.572
 5117SOL     OW17247  11.371   9.928   6.669
 5117SOL    HW117248  11.340   9.935   6.759
 5117SOL    HW217249  11.462   9.900   6.677
 5118SOL     OW17250   2.880  12.147   3.281
 5118SOL    HW117251   2.900  12.096   3.359
 5118SOL    HW217252   2.833  12.087   3.223
 5119SOL     OW17253   4.097   1.416   8.586
 5119SOL    HW117254   4.061   1.450   8.668
 5119SOL    HW217255   4.024   1.371   8.544
 5120SOL     OW17256   4.360   6.095   2.804
 5120SOL    HW117257   4.396   6.115   2.717
 5120SOL    HW217258   4.266   6.084   2.789
 5121SOL     OW17259   8.047   0.007   1.759
 5121SOL    HW117260   8.096  14.824   1.820
 5121SOL    HW217261   7.965  14.831   1.745
 5122SOL     OW17262   3.793  13.962   9.161
 5122SOL    HW117263   3.813  13.869   9.149
 5122SOL    HW217264   3.740  13.985   9.085
 5123SOL     OW17265   3.857   6.874   0.314
 5123SOL    HW117266   3.951   6.865   0.326
 5123SOL    HW217267   3.847   6.944   0.249
 5124SOL     OW17268  10.870  12.489   1.709
 5124SOL    HW117269  10.831  12.406   1.737
 5124SOL    HW217270  10.943  12.464   1.653
 5125SOL     OW17271   7.048   1.465  13.200
 5125SOL    HW117272   6.961   1.505  13.204
 5125SOL    HW217273   7.068   1.461  13.107
 5126SOL     OW17274   1.020   8.284   5.616
 5126SOL    HW117275   1.051   8.317   5.700
 5126SOL    HW217276   1.090   8.226   5.586
 5127SOL     OW17277   6.336   1.703   3.239
 5127SOL    HW117278   6.341   1.709   3.334
 5127SOL    HW217279   6.419   1.740   3.208
 5128SOL     OW17280  14.530   6.309  14.823
 5128SOL    HW117281  14.481   6.350  14.751
 5128SOL    HW217282  14.598   6.257  14.780
 5129SOL     OW17283   1.959   2.946   0.854
 5129SOL    HW117284   2.047   2.963   0.886
 5129SOL    HW217285   1.923   3.033   0.835
 5130SOL     OW17286   5.928  10.829   8.896
 5130SOL    HW117287   5.833  10.825   8.903
 5130SOL    HW217288   5.960  10.754   8.947
 5131SOL     OW17289   2.717  10.795  10.779
 5131SOL    HW117290   2.714  10.750  10.863
 5131SOL    HW217291   2.810  10.793  10.754
 5132SOL     OW17292   5.081   1.635  13.627
 5132SOL    HW117293   5.138   1.597  13.561
 5132SOL    HW217294   5.095   1.581  13.705
 5133SOL     OW17295  13.430   5.007   8.131
 5133SOL    HW117296  13.399   4.917   8.146
 5133SOL    HW217297  13.413   5.052   8.213
 5134SOL     OW17298   3.463   6.828   3.369
 5134SOL    HW117299   3.457   6.923   3.375
 5134SOL    HW217300   3.376   6.800   3.340
 5135SOL     OW17301  13.645  12.630   1.611
 5135SOL    HW117302  13.558  12.596   1.591
 5135SOL    HW217303  13.692  12.626   1.528
 5136SOL     OW17304   2.625   4.173   8.544
 5136SOL    HW117305   2.534   4.144   8.544
 5136SOL    HW217306   2.658   4.150   8.631
 5137SOL     OW17307  12.632   3.362   1.656
 5137SOL    HW117308  12.704   3.312   1.619
 5137SOL    HW217309  12.631   3.444   1.607
 5138SOL     OW17310   2.730  12.813   2.489
 5138SOL    HW117311   2.664  12.759   2.447
 5138SOL    HW217312   2.803  12.815   2.427
 5139SOL     OW17313  14.450   7.018  12.663
 5139SOL    HW117314  14.394   7.033  12.740
 5139SOL    HW217315  14.514   7.089  12.666
 5140SOL     OW17316   2.528   2.296   9.172
 5140SOL    HW117317   2.598   2.234   9.152
 5140SOL    HW217318   2.534   2.363   9.104
 5141SOL     OW17319  14.402   1.816   3.949
 5141SOL    HW117320  14.422   1.854   3.863
 5141SOL    HW217321  14.307   1.818   3.954
 5142SOL     OW17322   5.869   7.330   4.314
 5142SOL    HW117323   5.905   7.243   4.299
 5142SOL    HW217324   5.819   7.349   4.234
 5143SOL     OW17325   0.187   2.278   6.861
 5143SOL    HW117326   0.106   2.278   6.810
 5143SOL    HW217327   0.159   2.255   6.950
 5144SOL     OW17328  12.831  14.671   8.725
 5144SOL    HW117329  12.806  14.578   8.725
 5144SOL    HW217330  12.753  14.716   8.757
 5145SOL     OW17331   5.415   8.218   2.402
 5145SOL    HW117332   5.380   8.302   2.371
 5145SOL    HW217333   5.350   8.154   2.375
 5146SOL     OW17334   5.983   2.999   3.086
 5146SOL    HW117335   5.947   2.923   3.039
 5146SOL    HW217336   5.907   3.053   3.105
 5147SOL     OW17337   8.690   2.101  11.032
 5147SOL    HW117338   8.670   2.024  10.978
 5147SOL    HW217339   8.607   2.122  11.075
 5148SOL     OW17340   2.790  11.030   6.518
 5148SOL    HW117341   2.852  11.102   6.534
 5148SOL    HW217342   2.838  10.970   6.460
 5149SOL     OW17343   7.532   8.394   7.216
 5149SOL    HW117344   7.497   8.477   7.183
 5149SOL    HW217345   7.579   8.418   7.296
 5150SOL     OW17346  13.448  11.893  11.733
 5150SOL    HW117347  13.454  11.976  11.686
 5150SOL    HW217348  13.383  11.909  11.801
 5151SOL     OW17349   8.244   5.616   5.170
 5151SOL    HW117350   8.165   5.669   5.174
 5151SOL    HW217351   8.228   5.553   5.100
 5152SOL     OW17352  13.840   3.217   6.629
 5152SOL    HW117353  13.866   3.283   6.694
 5152SOL    HW217354  13.919   3.163   6.617
 5153SOL     OW17355   4.698   1.351  10.234
 5153SOL    HW117356   4.716   1.281  10.171
 5153SOL    HW217357   4.722   1.313  10.318
 5154SOL     OW17358   1.684  12.007   7.854
 5154SOL    HW117359   1.728  11.981   7.936
 5154SOL    HW217360   1.750  12.057   7.807
 5155SOL     OW17361   9.872   1.018  12.781
 5155SOL    HW117362   9.941   1.082  12.797
 5155SOL    HW217363   9.901   0.939  12.826
 5156SOL     OW17364  10.309   8.210   9.475
 5156SOL    HW117365  10.368   8.166   9.415
 5156SOL    HW217366  10.244   8.253   9.418
 5157SOL     OW17367  13.963   5.277  13.770
 5157SOL    HW117368  13.910   5.201  13.793
 5157SOL    HW217369  14.051   5.256  13.802
 5158SOL     OW17370   2.561   0.662  11.816
 5158SOL    HW117371   2.537   0.592  11.755
 5158SOL    HW217372   2.502   0.735  11.794
 5159SOL     OW17373   6.536   3.306   3.931
 5159SOL    HW117374   6.483   3.264   3.863
 5159SOL    HW217375   6.505   3.267   4.013
 5160SOL     OW17376   7.659  12.265  12.247
 5160SOL    HW117377   7.629  12.205  12.315
 5160SOL    HW217378   7.678  12.346  12.292
 5161SOL     OW17379   4.331  12.667  10.643
 5161SOL    HW117380   4.364  12.753  10.616
 5161SOL    HW217381   4.272  12.640  10.574
 5162SOL     OW17382  10.405   4.940   1.653
 5162SOL    HW117383  10.498   4.920   1.659
 5162SOL    HW217384  10.368   4.912   1.736
 5163SOL     OW17385   9.912  12.191   9.615
 5163SOL    HW117386   9.935  12.131   9.687
 5163SOL    HW217387   9.905  12.134   9.539
 5164SOL     OW17388   8.314   2.038   5.726
 5164SOL    HW117389   8.372   1.998   5.792
 5164SOL    HW217390   8.240   1.979   5.720
 5165SOL     OW17391   8.506   7.209  12.421
 5165SOL    HW117392   8.530   7.299  12.398
 5165SOL    HW217393   8.417   7.198  12.386
 5166SOL     OW17394   0.068   6.744  10.288
 5166SOL    HW117395   0.008   6.795  10.233
 5166SOL    HW217396   0.087   6.666  10.236
 5167SOL     OW17397   3.848   7.527  11.835
 5167SOL    HW117398   3.846   7.611  11.880
 5167SOL    HW217399   3.846   7.462  11.905
 5168SOL     OW17400  10.009   8.485   2.748
 5168SOL    HW117401  10.024   8.435   2.828
 5168SOL    HW217402   9.934   8.541   2.767
 5169SOL     OW17403   9.262   0.327   8.020
 5169SOL    HW117404   9.344   0.372   8.001
 5169SOL    HW217405   9.214   0.330   7.937
 5170SOL     OW17406  12.481   1.903  13.043
 5170SOL    HW117407  12.453   1.811  13.042
 5170SOL    HW217408  12.509   1.920  12.953
 5171SOL     OW17409   5.983   8.581  14.343
 5171SOL    HW117410   6.006   8.493  14.374
 5171SOL    HW217411   5.940   8.622  14.417
 5172SOL     OW17412   1.030   2.386   6.430
 5172SOL    HW117413   1.027   2.415   6.339
 5172SOL    HW217414   1.111   2.421   6.464
 5173SOL     OW17415   0.886  14.286   7.377
 5173SOL    HW117416   0.854  14.274   7.288
 5173SOL    HW217417   0.810  14.269   7.433
 5174SOL     OW17418   9.461   7.284   1.648
 5174SOL    HW117419   9.372   7.290   1.615
 5174SOL    HW217420   9.466   7.351   1.717
 5175SOL     OW17421   0.544  12.430  14.199
 5175SOL    HW117422   0.489  12.481  14.258
 5175SOL    HW217423   0.482  12.384  14.142
 5176SOL     OW17424   8.835   7.527   1.644
 5176SOL    HW117425   8.835   7.510   1.550
 5176SOL    HW217426   8.875   7.449   1.682
 5177SOL     OW17427   4.655   6.008   5.186
 5177SOL    HW117428   4.684   5.969   5.268
 5177SOL    HW217429   4.567   5.973   5.172
 5178SOL     OW17430   2.811   8.782  13.809
 5178SOL    HW117431   2.814   8.748  13.720
 5178SOL    HW217432   2.831   8.706  13.864
 5179SOL     OW17433  11.493   3.907   2.252
 5179SOL    HW117434  11.502   3.811   2.255
 5179SOL    HW217435  11.399   3.923   2.262
 5180SOL     OW17436  12.482  10.626  11.716
 5180SOL    HW117437  12.569  10.623  11.754
 5180SOL    HW217438  12.464  10.719  11.701
 5181SOL     OW17439  13.144   4.455   9.041
 5181SOL    HW117440  13.073   4.404   9.080
 5181SOL    HW217441  13.105   4.497   8.964
 5182SOL     OW17442  13.567   8.876   5.619
 5182SOL    HW117443  13.657   8.847   5.601
 5182SOL    HW217444  13.561   8.962   5.577
 5183SOL     OW17445   8.875   9.510  11.501
 5183SOL    HW117446   8.820   9.521  11.578
 5183SOL    HW217447   8.818   9.528  11.426
 5184SOL     OW17448  14.218   3.378   3.413
 5184SOL    HW117449  14.281   3.310   3.388
 5184SOL    HW217450  14.149   3.372   3.347
 5185SOL     OW17451   4.634   4.897   5.255
 5185SOL    HW117452   4.570   4.847   5.306
 5185SOL    HW217453   4.586   4.923   5.176
 5186SOL     OW17454   9.957   2.067   1.118
 5186SOL    HW117455   9.904   2.020   1.183
 5186SOL    HW217456   9.949   2.015   1.038
 5187SOL     OW17457   0.836   0.868   2.578
 5187SOL    HW117458   0.913   0.819   2.547
 5187SOL    HW217459   0.833   0.945   2.521
 5188SOL     OW17460   3.795   2.376   1.007
 5188SOL    HW117461   3.784   2.358   0.913
 5188SOL    HW217462   3.889   2.378   1.021
 5189SOL     OW17463   1.192   7.041  11.226
 5189SOL    HW117464   1.149   6.956  11.220
 5189SOL    HW217465   1.253   7.042  11.152
 5190SOL     OW17466   4.993   3.610   0.679
 5190SOL    HW117467   4.934   3.673   0.638
 5190SOL    HW217468   5.080   3.643   0.659
 5191SOL     OW17469   1.712  14.189   2.457
 5191SOL    HW117470   1.680  14.186   2.367
 5191SOL    HW217471   1.760  14.107   2.467
 5192SOL     OW17472  11.069   9.054   0.795
 5192SOL    HW117473  11.034   9.136   0.829
 5192SOL    HW217474  11.010   9.031   0.723
 5193SOL     OW17475   2.550   7.901   8.834
 5193SOL    HW117476   2.614   7.954   8.881
 5193SOL    HW217477   2.473   7.957   8.827
 5194SOL     OW17478  10.009  14.225   7.263
 5194SOL    HW117479  10.102  14.249   7.265
 5194SOL    HW217480  10.004  14.144   7.313
 5195SOL     OW17481  13.034   9.299   5.526
 5195SOL    HW117482  12.952   9.321   5.483
 5195SOL    HW217483  13.094   9.369   5.501
 5196SOL     OW17484   7.960   2.236   6.927
 5196SOL    HW117485   7.899   2.178   6.973
 5196SOL    HW217486   7.934   2.231   6.835
 5197SOL     OW17487  11.505   4.240   0.002
 5197SOL    HW117488  11.419   4.282  14.863
 5197SOL    HW217489  11.497   4.193   0.085
 5198SOL     OW17490  12.971   8.398   3.661
 5198SOL    HW117491  12.898   8.457   3.639
 5198SOL    HW217492  12.957   8.321   3.606
 5199SOL     OW17493   8.057  14.374   2.047
 5199SOL    HW117494   8.140  14.328   2.059
 5199SOL    HW217495   8.052  14.437   2.119
 5200SOL     OW17496   9.051  11.388   8.446
 5200SOL    HW117497   9.127  11.335   8.470
 5200SOL    HW217498   9.045  11.380   8.350
 5201SOL     OW17499  10.897  13.734   5.078
 5201SOL    HW117500  10.889  13.754   5.171
 5201SOL    HW217501  10.975  13.679   5.071
 5202SOL     OW17502  11.059  12.073  13.383
 5202SOL    HW117503  11.000  12.048  13.312
 5202SOL    HW217504  11.142  12.093  13.340
 5203SOL     OW17505   4.248  12.101  12.839
 5203SOL    HW117506   4.237  12.174  12.778
 5203SOL    HW217507   4.281  12.029  12.785
 5204SOL     OW17508   5.682  12.157  11.061
 5204SOL    HW117509   5.620  12.085  11.056
 5204SOL    HW217510   5.753  12.131  11.002
 5205SOL     OW17511   5.084   8.679  14.694
 5205SOL    HW117512   5.031   8.655  14.769
 5205SOL    HW217513   5.125   8.598  14.665
 5206SOL     OW17514  13.547   6.378  11.898
 5206SOL    HW117515  13.634   6.382  11.937
 5206SOL    HW217516  13.552   6.437  11.822
 5207SOL     OW17517   6.515  11.712  11.410
 5207SOL    HW117518   6.464  11.675  11.338
 5207SOL    HW217519   6.566  11.782  11.370
 5208SOL     OW17520   3.146  13.805   4.961
 5208SOL    HW117521   3.172  13.895   4.942
 5208SOL    HW217522   3.147  13.761   4.876
 5209SOL     OW17523   1.806   1.197   3.745
 5209SOL    HW117524   1.838   1.282   3.715
 5209SOL    HW217525   1.712   1.210   3.760
 5210SOL     OW17526   3.449   4.005   0.549
 5210SOL    HW117527   3.430   4.065   0.621
 5210SOL    HW217528   3.393   4.034   0.478
 5211SOL     OW17529   7.631  10.910   1.176
 5211SOL    HW117530   7.618  10.893   1.269
 5211SOL    HW217531   7.544  10.935   1.144
 5212SOL     OW17532  12.922  14.300   4.171
 5212SOL    HW117533  12.970  14.217   4.176
 5212SOL    HW217534  12.984  14.365   4.204
 5213SOL     OW17535   5.413   8.714   0.267
 5213SOL    HW117536   5.351   8.661   0.316
 5213SOL    HW217537   5.368   8.736   0.186
 5214SOL     OW17538   3.160   3.302   4.829
 5214SOL    HW117539   3.219   3.345   4.767
 5214SOL    HW217540   3.202   3.314   4.914
 5215SOL     OW17541   1.678   0.758   8.019
 5215SOL    HW117542   1.773   0.757   8.018
 5215SOL    HW217543   1.654   0.842   7.980
 5216SOL     OW17544  11.178   9.768  10.244
 5216SOL    HW117545  11.134   9.831  10.302
 5216SOL    HW217546  11.109   9.706  10.220
 5217SOL     OW17547  14.418   0.390   4.650
 5217SOL    HW117548  14.393   0.477   4.621
 5217SOL    HW217549  14.350   0.332   4.616
 5218SOL     OW17550   3.192   3.788  14.827
 5218SOL    HW117551   3.283   3.813  14.845
 5218SOL    HW217552   3.190   3.773  14.733
 5219SOL     OW17553   2.716  10.989  13.192
 5219SOL    HW117554   2.640  11.042  13.216
 5219SOL    HW217555   2.679  10.916  13.141
 5220SOL     OW17556   8.766  13.591   9.557
 5220SOL    HW117557   8.825  13.659   9.590
 5220SOL    HW217558   8.796  13.574   9.468
 5221SOL     OW17559   8.358   8.856   8.177
 5221SOL    HW117560   8.321   8.774   8.210
 5221SOL    HW217561   8.419   8.884   8.246
 5222SOL     OW17562   2.503   4.636  12.442
 5222SOL    HW117563   2.538   4.719  12.477
 5222SOL    HW217564   2.569   4.571  12.467
 5223SOL     OW17565   1.302  10.931   7.386
 5223SOL    HW117566   1.361  10.914   7.313
 5223SOL    HW217567   1.359  10.960   7.458
 5224SOL     OW17568   1.828   2.811  10.268
 5224SOL    HW117569   1.816   2.751  10.342
 5224SOL    HW217570   1.923   2.824  10.264
 5225SOL     OW17571   3.148   6.387  14.409
 5225SOL    HW117572   3.171   6.389  14.316
 5225SOL    HW217573   3.053   6.387  14.411
 5226SOL     OW17574   3.489  13.102  13.557
 5226SOL    HW117575   3.476  13.171  13.622
 5226SOL    HW217576   3.442  13.133  13.480
 5227SOL     OW17577   5.299  13.780  13.109
 5227SOL    HW117578   5.337  13.859  13.146
 5227SOL    HW217579   5.339  13.773  13.022
 5228SOL     OW17580   7.936  13.050   7.779
 5228SOL    HW117581   7.911  13.128   7.829
 5228SOL    HW217582   8.022  13.025   7.815
 5229SOL     OW17583   3.512   3.169   9.274
 5229SOL    HW117584   3.432   3.222   9.280
 5229SOL    HW217585   3.497   3.098   9.338
 5230SOL     OW17586   7.638   2.508   2.825
 5230SOL    HW117587   7.566   2.530   2.766
 5230SOL    HW217588   7.673   2.593   2.852
 5231SOL     OW17589   7.558   0.483   7.449
 5231SOL    HW117590   7.594   0.505   7.535
 5231SOL    HW217591   7.584   0.555   7.392
 5232SOL     OW17592   6.696  12.964  13.823
 5232SOL    HW117593   6.722  12.872  13.830
 5232SOL    HW217594   6.620  12.964  13.765
 5233SOL     OW17595   2.351  12.579   2.902
 5233SOL    HW117596   2.326  12.489   2.883
 5233SOL    HW217597   2.274  12.631   2.878
 5234SOL     OW17598  10.627  12.770   3.653
 5234SOL    HW117599  10.588  12.756   3.567
 5234SOL    HW217600  10.717  12.741   3.644
 5235SOL     OW17601   4.193  11.154   5.068
 5235SOL    HW117602   4.212  11.171   4.976
 5235SOL    HW217603   4.197  11.058   5.076
 5236SOL     OW17604   3.702   4.624  14.203
 5236SOL    HW117605   3.747   4.562  14.146
 5236SOL    HW217606   3.741   4.609  14.290
 5237SOL     OW17607   2.538  14.155  12.679
 5237SOL    HW117608   2.512  14.071  12.717
 5237SOL    HW217609   2.458  14.187  12.637
 5238SOL     OW17610   6.707   9.613   8.085
 5238SOL    HW117611   6.635   9.549   8.081
 5238SOL    HW217612   6.754   9.600   8.003
 5239SOL     OW17613   0.667  14.356   2.144
 5239SOL    HW117614   0.761  14.374   2.151
 5239SOL    HW217615   0.657  14.268   2.180
 5240SOL     OW17616   5.800   2.098  10.239
 5240SOL    HW117617   5.804   2.120  10.146
 5240SOL    HW217618   5.723   2.042  10.247
 5241SOL     OW17619   3.788  10.640   5.502
 5241SOL    HW117620   3.802  10.557   5.547
 5241SOL    HW217621   3.836  10.704   5.555
 5242SOL     OW17622  10.386   6.493   0.249
 5242SOL    HW117623  10.398   6.582   0.283
 5242SOL    HW217624  10.427   6.437   0.316
 5243SOL     OW17625  10.662  12.048   6.431
 5243SOL    HW117626  10.684  11.957   6.411
 5243SOL    HW217627  10.719  12.099   6.374
 5244SOL     OW17628   3.229   7.562   0.486
 5244SOL    HW117629   3.154   7.563   0.545
 5244SOL    HW217630   3.258   7.653   0.483
 5245SOL     OW17631   4.891   7.476   9.659
 5245SOL    HW117632   4.812   7.518   9.693
 5245SOL    HW217633   4.953   7.548   9.648
 5246SOL     OW17634   5.214  12.908  10.102
 5246SOL    HW117635   5.291  12.899  10.159
 5246SOL    HW217636   5.204  13.003  10.091
 5247SOL     OW17637   5.626   0.521  13.980
 5247SOL    HW117638   5.555   0.542  13.919
 5247SOL    HW217639   5.675   0.451  13.938
 5248SOL     OW17640   5.182   3.932   0.893
 5248SOL    HW117641   5.207   3.928   0.801
 5248SOL    HW217642   5.088   3.951   0.891
 5249SOL     OW17643   2.551   0.971  11.656
 5249SOL    HW117644   2.514   1.048  11.700
 5249SOL    HW217645   2.615   1.007  11.594
 5250SOL     OW17646   7.854   3.897   2.219
 5250SOL    HW117647   7.793   3.838   2.175
 5250SOL    HW217648   7.805   3.929   2.295
 5251SOL     OW17649   7.354  11.015   2.273
 5251SOL    HW117650   7.303  11.095   2.264
 5251SOL    HW217651   7.321  10.958   2.204
 5252SOL     OW17652   4.098   9.022  10.290
 5252SOL    HW117653   4.168   8.967  10.325
 5252SOL    HW217654   4.047   8.964  10.233
 5253SOL     OW17655   9.325   1.016   0.364
 5253SOL    HW117656   9.258   0.975   0.310
 5253SOL    HW217657   9.277   1.076   0.421
 5254SOL     OW17658  11.954   2.169   7.854
 5254SOL    HW117659  11.918   2.163   7.766
 5254SOL    HW217660  11.969   2.078   7.880
 5255SOL     OW17661  11.978   9.559   1.602
 5255SOL    HW117662  11.906   9.604   1.646
 5255SOL    HW217663  11.964   9.467   1.620
 5256SOL     OW17664   3.822  14.323  12.720
 5256SOL    HW117665   3.740  14.280  12.697
 5256SOL    HW217666   3.797  14.410  12.752
 5257SOL     OW17667  11.481   7.304  11.561
 5257SOL    HW117668  11.568   7.340  11.581
 5257SOL    HW217669  11.453   7.262  11.642
 5258SOL     OW17670   4.106   9.194   0.236
 5258SOL    HW117671   4.038   9.258   0.215
 5258SOL    HW217672   4.062   9.109   0.227
 5259SOL     OW17673   8.088   6.964   5.409
 5259SOL    HW117674   8.029   6.921   5.347
 5259SOL    HW217675   8.161   6.996   5.355
 5260SOL     OW17676  12.728  13.342  12.847
 5260SOL    HW117677  12.660  13.309  12.906
 5260SOL    HW217678  12.784  13.266  12.829
 5261SOL     OW17679  13.481  10.579   0.015
 5261SOL    HW117680  13.530  10.563  14.806
 5261SOL    HW217681  13.521  10.520   0.079
 5262SOL     OW17682  10.614   3.624  10.396
 5262SOL    HW117683  10.696   3.662  10.427
 5262SOL    HW217684  10.546   3.681  10.432
 5263SOL     OW17685  10.780   6.690   7.225
 5263SOL    HW117686  10.733   6.671   7.144
 5263SOL    HW217687  10.799   6.604   7.263
 5264SOL     OW17688  14.548   9.981   0.513
 5264SOL    HW117689  14.535   9.942   0.600
 5264SOL    HW217690  14.535   9.909   0.452
 5265SOL     OW17691  11.699  10.940   3.676
 5265SOL    HW117692  11.644  10.932   3.754
 5265SOL    HW217693  11.787  10.955   3.710
 5266SOL     OW17694  14.174   2.531  13.311
 5266SOL    HW117695  14.243   2.581  13.267
 5266SOL    HW217696  14.102   2.528  13.247
 5267SOL     OW17697   5.535   0.704   9.571
 5267SOL    HW117698   5.591   0.651   9.629
 5267SOL    HW217699   5.577   0.790   9.569
 5268SOL     OW17700   2.508  11.992   9.318
 5268SOL    HW117701   2.457  11.983   9.399
 5268SOL    HW217702   2.527  12.085   9.312
 5269SOL     OW17703   6.626  11.631   8.928
 5269SOL    HW117704   6.561  11.581   8.878
 5269SOL    HW217705   6.663  11.568   8.989
 5270SOL     OW17706   5.117   8.847  12.044
 5270SOL    HW117707   5.080   8.875  12.128
 5270SOL    HW217708   5.133   8.753  12.055
 5271SOL     OW17709   8.711  11.943   0.382
 5271SOL    HW117710   8.665  11.859   0.387
 5271SOL    HW217711   8.800  11.919   0.355
 5272SOL     OW17712   5.682   8.495   1.743
 5272SOL    HW117713   5.614   8.557   1.770
 5272SOL    HW217714   5.673   8.421   1.804
 5273SOL     OW17715   5.189  13.910   6.138
 5273SOL    HW117716   5.251  13.953   6.197
 5273SOL    HW217717   5.226  13.824   6.122
 5274SOL     OW17718  10.231   3.818  11.394
 5274SOL    HW117719  10.185   3.804  11.476
 5274SOL    HW217720  10.185   3.890  11.352
 5275SOL     OW17721  10.654   3.341  10.415
 5275SOL    HW117722  10.635   3.434  10.399
 5275SOL    HW217723  10.617   3.296  10.340
 5276SOL     OW17724   1.980   1.779  13.350
 5276SOL    HW117725   1.960   1.844  13.283
 5276SOL    HW217726   1.904   1.721  13.350
 5277SOL     OW17727   1.492   5.911   2.940
 5277SOL    HW117728   1.523   5.894   2.851
 5277SOL    HW217729   1.571   5.932   2.989
 5278SOL     OW17730   9.245   6.122  12.720
 5278SOL    HW117731   9.324   6.174  12.704
 5278SOL    HW217732   9.275   6.031  12.713
 5279SOL     OW17733   1.354  14.033   0.113
 5279SOL    HW117734   1.373  14.098   0.181
 5279SOL    HW217735   1.261  14.046   0.094
 5280SOL     OW17736  11.230  13.416  12.265
 5280SOL    HW117737  11.298  13.430  12.331
 5280SOL    HW217738  11.195  13.329  12.284
 5281SOL     OW17739   1.081  14.179   1.708
 5281SOL    HW117740   1.127  14.254   1.672
 5281SOL    HW217741   1.029  14.146   1.635
 5282SOL     OW17742  11.120   3.221   4.855
 5282SOL    HW117743  11.152   3.187   4.771
 5282SOL    HW217744  11.025   3.206   4.852
 5283SOL     OW17745   6.826   7.851  11.943
 5283SOL    HW117746   6.781   7.896  11.872
 5283SOL    HW217747   6.844   7.764  11.908
 5284SOL     OW17748   2.249  11.600   2.209
 5284SOL    HW117749   2.209  11.644   2.284
 5284SOL    HW217750   2.213  11.511   2.211
 5285SOL     OW17751  14.553   1.064  10.781
 5285SOL    HW117752  14.531   1.136  10.722
 5285SOL    HW217753  14.630   1.094  10.828
 5286SOL     OW17754   6.946   2.267   2.802
 5286SOL    HW117755   6.858   2.228   2.808
 5286SOL    HW217756   6.979   2.265   2.892
 5287SOL     OW17757  14.261  12.587   0.025
 5287SOL    HW117758  14.328  12.527  14.865
 5287SOL    HW217759  14.207  12.605  14.819
 5288SOL     OW17760   1.022  11.181   5.158
 5288SOL    HW117761   0.993  11.145   5.242
 5288SOL    HW217762   1.008  11.276   5.167
 5289SOL     OW17763  12.715   7.166   4.989
 5289SOL    HW117764  12.779   7.225   5.028
 5289SOL    HW217765  12.691   7.106   5.059
 5290SOL     OW17766   5.329   7.104   2.270
 5290SOL    HW117767   5.311   7.198   2.271
 5290SOL    HW217768   5.320   7.077   2.362
 5291SOL     OW17769   8.470   7.831   7.221
 5291SOL    HW117770   8.536   7.769   7.251
 5291SOL    HW217771   8.402   7.776   7.181
 5292SOL     OW17772   8.118   0.774   6.332
 5292SOL    HW117773   8.134   0.792   6.239
 5292SOL    HW217774   8.092   0.682   6.334
 5293SOL     OW17775   0.168  14.412   8.207
 5293SOL    HW117776   0.260  14.422   8.186
 5293SOL    HW217777   0.128  14.494   8.178
 5294SOL     OW17778  14.461   8.414   7.067
 5294SOL    HW117779  14.419   8.421   7.152
 5294SOL    HW217780  14.400   8.456   7.006
 5295SOL     OW17781   3.522  13.706   3.474
 5295SOL    HW117782   3.611  13.690   3.503
 5295SOL    HW217783   3.529  13.781   3.415
 5296SOL     OW17784   7.631   1.121   6.455
 5296SOL    HW117785   7.547   1.119   6.501
 5296SOL    HW217786   7.683   1.052   6.496
 5297SOL     OW17787   6.926  10.815   5.730
 5297SOL    HW117788   6.954  10.794   5.641
 5297SOL    HW217789   6.955  10.905   5.743
 5298SOL     OW17790   7.702   3.845  11.740
 5298SOL    HW117791   7.609   3.837  11.758
 5298SOL    HW217792   7.727   3.929  11.778
 5299SOL     OW17793   1.475   1.642   6.535
 5299SOL    HW117794   1.456   1.549   6.531
 5299SOL    HW217795   1.570   1.647   6.542
 5300SOL     OW17796  12.920   7.588   1.063
 5300SOL    HW117797  12.877   7.555   1.142
 5300SOL    HW217798  12.984   7.520   1.040
 5301SOL     OW17799   7.186   3.154   6.711
 5301SOL    HW117800   7.225   3.176   6.796
 5301SOL    HW217801   7.094   3.175   6.721
 5302SOL     OW17802   4.144   2.306   5.788
 5302SOL    HW117803   4.143   2.244   5.861
 5302SOL    HW217804   4.205   2.267   5.725
 5303SOL     OW17805   7.095  14.783   1.212
 5303SOL    HW117806   7.188  14.765   1.215
 5303SOL    HW217807   7.057  14.727   1.280
 5304SOL     OW17808   4.755   0.083   5.593
 5304SOL    HW117809   4.818   0.045   5.531
 5304SOL    HW217810   4.757   0.024   5.668
 5305SOL     OW17811   9.960  11.596   5.378
 5305SOL    HW117812  10.033  11.641   5.421
 5305SOL    HW217813   9.967  11.505   5.407
 5306SOL     OW17814   2.309   8.162   8.563
 5306SOL    HW117815   2.337   8.234   8.506
 5306SOL    HW217816   2.347   8.084   8.524
 5307SOL     OW17817   9.946   7.444  11.912
 5307SOL    HW117818  10.010   7.403  11.854
 5307SOL    HW217819   9.915   7.519  11.863
 5308SOL     OW17820   8.436  13.339  10.075
 5308SOL    HW117821   8.451  13.254  10.034
 5308SOL    HW217822   8.516  13.389  10.058
 5309SOL     OW17823   1.804   3.271   4.064
 5309SOL    HW117824   1.812   3.265   4.159
 5309SOL    HW217825   1.713   3.246   4.046
 5310SOL     OW17826  11.752  11.739   8.773
 5310SOL    HW117827  11.726  11.824   8.738
 5310SOL    HW217828  11.826  11.758   8.830
 5311SOL     OW17829   4.960   4.508  13.155
 5311SOL    HW117830   4.934   4.416  13.152
 5311SOL    HW217831   4.997   4.519  13.243
 5312SOL     OW17832  14.042  11.536   0.480
 5312SOL    HW117833  14.087  11.492   0.552
 5312SOL    HW217834  13.970  11.583   0.522
 5313SOL     OW17835   8.843   2.850   8.207
 5313SOL    HW117836   8.871   2.873   8.296
 5313SOL    HW217837   8.763   2.799   8.220
 5314SOL     OW17838   5.578   2.213  10.446
 5314SOL    HW117839   5.650   2.248  10.499
 5314SOL    HW217840   5.578   2.265  10.366
 5315SOL     OW17841  13.644   5.263   2.948
 5315SOL    HW117842  13.559   5.303   2.933
 5315SOL    HW217843  13.645   5.186   2.891
 5316SOL     OW17844  13.655   5.898   4.997
 5316SOL    HW117845  13.587   5.907   4.930
 5316SOL    HW217846  13.734   5.875   4.949
 5317SOL     OW17847   7.026  11.498   1.752
 5317SOL    HW117848   7.102  11.442   1.766
 5317SOL    HW217849   7.055  11.585   1.782
 5318SOL     OW17850   1.046   5.466  11.273
 5318SOL    HW117851   1.025   5.446  11.182
 5318SOL    HW217852   0.962   5.487  11.313
 5319SOL     OW17853  14.207  11.784   7.834
 5319SOL    HW117854  14.151  11.842   7.886
 5319SOL    HW217855  14.146  11.724   7.792
 5320SOL     OW17856   9.040   4.878   4.234
 5320SOL    HW117857   9.115   4.895   4.291
 5320SOL    HW217858   8.976   4.836   4.291
 5321SOL     OW17859   3.324   0.692   0.372
 5321SOL    HW117860   3.390   0.624   0.362
 5321SOL    HW217861   3.306   0.694   0.466
 5322SOL     OW17862   4.473  14.804  11.105
 5322SOL    HW117863   4.405  14.760  11.054
 5322SOL    HW217864   4.505  14.737  11.166
 5323SOL     OW17865   3.000   3.927   4.791
 5323SOL    HW117866   3.026   3.925   4.883
 5323SOL    HW217867   3.049   3.857   4.750
 5324SOL     OW17868   8.404   2.441  11.207
 5324SOL    HW117869   8.448   2.506  11.153
 5324SOL    HW217870   8.342   2.493  11.260
 5325SOL     OW17871   9.457  11.915   1.510
 5325SOL    HW117872   9.469  12.010   1.504
 5325SOL    HW217873   9.370  11.905   1.549
 5326SOL     OW17874  13.391   9.616   1.311
 5326SOL    HW117875  13.387   9.584   1.401
 5326SOL    HW217876  13.472   9.667   1.307
 5327SOL     OW17877  12.284  14.340   7.013
 5327SOL    HW117878  12.336  14.290   6.949
 5327SOL    HW217879  12.233  14.273   7.059
 5328SOL     OW17880   3.862   1.594   8.670
 5328SOL    HW117881   3.856   1.635   8.756
 5328SOL    HW217882   3.787   1.534   8.667
 5329SOL     OW17883   8.455  14.056   6.451
 5329SOL    HW117884   8.520  14.000   6.409
 5329SOL    HW217885   8.419  14.002   6.521
 5330SOL     OW17886   9.059   3.399   0.476
 5330SOL    HW117887   8.999   3.343   0.427
 5330SOL    HW217888   9.053   3.369   0.566
 5331SOL     OW17889   2.650   5.500   3.380
 5331SOL    HW117890   2.668   5.412   3.347
 5331SOL    HW217891   2.627   5.487   3.472
 5332SOL     OW17892   6.580   0.007   5.880
 5332SOL    HW117893   6.656  14.864   5.825
 5332SOL    HW217894   6.615   0.010   5.969
 5333SOL     OW17895   5.513  14.658   6.132
 5333SOL    HW117896   5.419  14.646   6.148
 5333SOL    HW217897   5.524  14.753   6.128
 5334SOL     OW17898   8.838  12.951   5.084
 5334SOL    HW117899   8.872  13.038   5.105
 5334SOL    HW217900   8.917  12.899   5.066
 5335SOL     OW17901  13.608   7.116   0.489
 5335SOL    HW117902  13.595   7.187   0.552
 5335SOL    HW217903  13.689   7.140   0.442
 5336SOL     OW17904   5.746  10.224   7.768
 5336SOL    HW117905   5.787  10.266   7.692
 5336SOL    HW217906   5.688  10.291   7.804
 5337SOL     OW17907  11.589   4.766   5.517
 5337SOL    HW117908  11.542   4.806   5.444
 5337SOL    HW217909  11.559   4.812   5.595
 5338SOL     OW17910   8.411   0.924   4.487
 5338SOL    HW117911   8.493   0.892   4.524
 5338SOL    HW217912   8.386   0.996   4.544
 5339SOL     OW17913  14.611   9.150   0.424
 5339SOL    HW117914  14.591   9.198   0.504
 5339SOL    HW217915  14.677   9.086   0.451
 5340SOL     OW17916   6.900   5.513  11.991
 5340SOL    HW117917   6.972   5.576  11.987
 5340SOL    HW217918   6.936   5.434  11.950
 5341SOL     OW17919   0.431  12.974  11.109
 5341SOL    HW117920   0.410  13.010  11.022
 5341SOL    HW217921   0.346  12.959  11.150
 5342SOL     OW17922   4.320   1.448   8.947
 5342SOL    HW117923   4.336   1.367   8.898
 5342SOL    HW217924   4.371   1.439   9.027
 5343SOL     OW17925   2.763  13.964   6.567
 5343SOL    HW117926   2.825  14.037   6.570
 5343SOL    HW217927   2.811  13.891   6.605
 5344SOL     OW17928   3.394   5.104  14.348
 5344SOL    HW117929   3.359   5.072  14.265
 5344SOL    HW217930   3.332   5.073  14.414
 5345SOL     OW17931  11.436   5.819   1.121
 5345SOL    HW117932  11.394   5.735   1.104
 5345SOL    HW217933  11.364   5.877   1.144
 5346SOL     OW17934  11.936   0.431   8.859
 5346SOL    HW117935  11.930   0.418   8.764
 5346SOL    HW217936  12.026   0.461   8.873
 5347SOL     OW17937  13.090  10.938   0.475
 5347SOL    HW117938  13.031  10.882   0.424
 5347SOL    HW217939  13.058  10.930   0.565
 5348SOL     OW17940   2.009   9.689   8.049
 5348SOL    HW117941   2.038   9.739   7.973
 5348SOL    HW217942   2.090   9.651   8.084
 5349SOL     OW17943  12.889   0.394  13.001
 5349SOL    HW117944  12.871   0.345  13.082
 5349SOL    HW217945  12.805   0.436  12.980
 5350SOL     OW17946  11.244   4.276   4.219
 5350SOL    HW117947  11.227   4.251   4.310
 5350SOL    HW217948  11.228   4.196   4.169
 5351SOL     OW17949   5.745   3.605  13.274
 5351SOL    HW117950   5.726   3.569  13.361
 5351SOL    HW217951   5.666   3.589  13.223
 5352SOL     OW17952   6.872   4.348  14.797
 5352SOL    HW117953   6.926   4.389  14.865
 5352SOL    HW217954   6.796   4.315  14.845
 5353SOL     OW17955   8.887   6.593   2.964
 5353SOL    HW117956   8.933   6.530   2.909
 5353SOL    HW217957   8.910   6.568   3.054
 5354SOL     OW17958  13.301  14.512   2.232
 5354SOL    HW117959  13.274  14.502   2.141
 5354SOL    HW217960  13.219  14.520   2.281
 5355SOL     OW17961   6.291  11.875  11.771
 5355SOL    HW117962   6.367  11.908  11.722
 5355SOL    HW217963   6.330  11.820  11.840
 5356SOL     OW17964  12.150   3.685   5.506
 5356SOL    HW117965  12.167   3.662   5.414
 5356SOL    HW217966  12.064   3.647   5.524
 5357SOL     OW17967  11.277   7.909   1.208
 5357SOL    HW117968  11.214   7.949   1.148
 5357SOL    HW217969  11.252   7.941   1.295
 5358SOL     OW17970   2.406  10.179   1.762
 5358SOL    HW117971   2.409  10.203   1.670
 5358SOL    HW217972   2.491  10.140   1.780
 5359SOL     OW17973  13.502  10.354   1.143
 5359SOL    HW117974  13.566  10.325   1.209
 5359SOL    HW217975  13.482  10.444   1.168
 5360SOL     OW17976  10.685   5.120  11.144
 5360SOL    HW117977  10.766   5.076  11.119
 5360SOL    HW217978  10.651   5.154  11.061
 5361SOL     OW17979  11.793  12.068   9.745
 5361SOL    HW117980  11.723  12.055   9.681
 5361SOL    HW217981  11.770  12.150   9.789
 5362SOL     OW17982  12.337   8.293  14.798
 5362SOL    HW117983  12.249   8.270  14.768
 5362SOL    HW217984  12.330   8.385  14.825
 5363SOL     OW17985   3.455   2.949  10.886
 5363SOL    HW117986   3.384   2.953  10.950
 5363SOL    HW217987   3.518   3.015  10.916
 5364SOL     OW17988   0.278   6.372   7.792
 5364SOL    HW117989   0.367   6.345   7.770
 5364SOL    HW217990   0.224   6.334   7.723
 5365SOL     OW17991  12.119  12.315   5.987
 5365SOL    HW117992  12.050  12.374   6.016
 5365SOL    HW217993  12.088  12.228   6.012
 5366SOL     OW17994   8.161  13.738   4.621
 5366SOL    HW117995   8.110  13.816   4.601
 5366SOL    HW217996   8.251  13.761   4.598
 5367SOL     OW17997   4.540  11.083  12.313
 5367SOL    HW117998   4.462  11.058  12.364
 5367SOL    HW217999   4.530  11.177  12.298
 5368SOL     OW18000   0.527   8.005  12.165
 5368SOL    HW118001   0.532   8.019  12.070
 5368SOL    HW218002   0.455   7.943  12.176
 5369SOL     OW18003   4.045   8.446  11.439
 5369SOL    HW118004   4.092   8.363  11.431
 5369SOL    HW218005   4.084   8.503  11.373
 5370SOL     OW18006   8.061   4.873   1.631
 5370SOL    HW118007   8.049   4.872   1.536
 5370SOL    HW218008   8.095   4.960   1.650
 5371SOL     OW18009   4.424   5.419  14.188
 5371SOL    HW118010   4.354   5.430  14.253
 5371SOL    HW218011   4.382   5.435  14.104
 5372SOL     OW18012  10.278   4.157   7.958
 5372SOL    HW118013  10.211   4.209   7.913
 5372SOL    HW218014  10.358   4.173   7.910
 5373SOL     OW18015  12.164   8.267  10.293
 5373SOL    HW118016  12.256   8.256  10.316
 5373SOL    HW218017  12.118   8.259  10.376
 5374SOL     OW18018  10.974  14.311   4.143
 5374SOL    HW118019  11.059  14.273   4.119
 5374SOL    HW218020  10.910  14.255   4.099
 5375SOL     OW18021  11.098  12.691   0.249
 5375SOL    HW118022  11.109  12.778   0.287
 5375SOL    HW218023  11.099  12.632   0.325
 5376SOL     OW18024   2.380   1.389   1.077
 5376SOL    HW118025   2.408   1.480   1.086
 5376SOL    HW218026   2.315   1.391   1.007
 5377SOL     OW18027   1.554  10.449  11.915
 5377SOL    HW118028   1.546  10.395  11.993
 5377SOL    HW218029   1.477  10.505  11.917
 5378SOL     OW18030   5.874   1.187   2.301
 5378SOL    HW118031   5.969   1.199   2.294
 5378SOL    HW218032   5.856   1.197   2.394
 5379SOL     OW18033   9.522   8.055   6.636
 5379SOL    HW118034   9.504   8.108   6.714
 5379SOL    HW218035   9.585   7.989   6.667
 5380SOL     OW18036  12.730   8.670   3.221
 5380SOL    HW118037  12.791   8.609   3.262
 5380SOL    HW218038  12.674   8.699   3.294
 5381SOL     OW18039   0.964   9.997  12.550
 5381SOL    HW118040   0.983   9.904  12.555
 5381SOL    HW218041   0.980  10.020  12.458
 5382SOL     OW18042  12.430   6.960   9.879
 5382SOL    HW118043  12.469   6.884   9.837
 5382SOL    HW218044  12.373   6.923   9.947
 5383SOL     OW18045   5.544  13.753  11.606
 5383SOL    HW118046   5.599  13.715  11.537
 5383SOL    HW218047   5.527  13.681  11.666
 5384SOL     OW18048   2.243  10.726  10.262
 5384SOL    HW118049   2.178  10.745  10.195
 5384SOL    HW218050   2.308  10.671  10.217
 5385SOL     OW18051   3.614   4.276   2.405
 5385SOL    HW118052   3.636   4.208   2.469
 5385SOL    HW218053   3.611   4.230   2.321
 5386SOL     OW18054   6.496   3.969   6.739
 5386SOL    HW118055   6.477   4.014   6.821
 5386SOL    HW218056   6.534   4.037   6.683
 5387SOL     OW18057   1.090   7.085  13.785
 5387SOL    HW118058   1.040   7.005  13.798
 5387SOL    HW218059   1.159   7.081  13.852
 5388SOL     OW18060  11.152   1.978  11.231
 5388SOL    HW118061  11.234   1.937  11.201
 5388SOL    HW218062  11.164   1.987  11.326
 5389SOL     OW18063  11.412  10.307  13.159
 5389SOL    HW118064  11.353  10.273  13.092
 5389SOL    HW218065  11.354  10.335  13.230
 5390SOL     OW18066  13.388   7.095  13.810
 5390SOL    HW118067  13.429   7.138  13.885
 5390SOL    HW218068  13.296   7.118  13.817
 5391SOL     OW18069  12.665  11.827  10.807
 5391SOL    HW118070  12.673  11.846  10.901
 5391SOL    HW218071  12.571  11.818  10.792
 5392SOL     OW18072   8.886  10.186   7.996
 5392SOL    HW118073   8.961  10.133   7.970
 5392SOL    HW218074   8.810  10.137   7.966
 5393SOL     OW18075   7.073  12.237   7.586
 5393SOL    HW118076   7.128  12.231   7.508
 5393SOL    HW218077   6.986  12.209   7.556
 5394SOL     OW18078  10.607  13.513  11.205
 5394SOL    HW118079  10.608  13.516  11.109
 5394SOL    HW218080  10.552  13.587  11.231
 5395SOL     OW18081  10.156  12.985  14.605
 5395SOL    HW118082  10.093  12.917  14.582
 5395SOL    HW218083  10.122  13.065  14.566
 5396SOL     OW18084   1.274   2.821   4.123
 5396SOL    HW118085   1.242   2.873   4.050
 5396SOL    HW218086   1.365   2.850   4.136
 5397SOL     OW18087   8.472  11.689  10.639
 5397SOL    HW118088   8.522  11.728  10.568
 5397SOL    HW218089   8.480  11.594  10.625
 5398SOL     OW18090  12.634  12.373   5.670
 5398SOL    HW118091  12.709  12.331   5.711
 5398SOL    HW218092  12.588  12.415   5.742
 5399SOL     OW18093   9.936   6.849   4.383
 5399SOL    HW118094   9.933   6.889   4.470
 5399SOL    HW218095  10.022   6.807   4.379
 5400SOL     OW18096   9.403   3.742   8.329
 5400SOL    HW118097   9.476   3.737   8.268
 5400SOL    HW218098   9.345   3.808   8.291
 5401SOL     OW18099   0.589  13.021   0.940
 5401SOL    HW118100   0.683  13.009   0.927
 5401SOL    HW218101   0.577  13.010   1.035
 5402SOL     OW18102   5.032   7.538  12.317
 5402SOL    HW118103   5.079   7.621  12.325
 5402SOL    HW218104   5.068   7.497  12.239
 5403SOL     OW18105  14.063   9.783   9.548
 5403SOL    HW118106  14.082   9.864   9.595
 5403SOL    HW218107  14.045   9.811   9.458
 5404SOL     OW18108   8.302   4.338  12.235
 5404SOL    HW118109   8.355   4.259  12.244
 5404SOL    HW218110   8.365   4.409  12.226
 5405SOL     OW18111   3.095  12.414  14.120
 5405SOL    HW118112   3.091  12.412  14.024
 5405SOL    HW218113   3.180  12.453  14.140
 5406SOL     OW18114   1.060   1.090   0.376
 5406SOL    HW118115   1.010   1.038   0.313
 5406SOL    HW218116   0.993   1.138   0.426
 5407SOL     OW18117  13.437   3.892  10.232
 5407SOL    HW118118  13.493   3.907  10.157
 5407SOL    HW218119  13.404   3.978  10.256
 5408SOL     OW18120  10.152   0.084   3.493
 5408SOL    HW118121  10.143   0.167   3.446
 5408SOL    HW218122  10.069   0.039   3.478
 5409SOL     OW18123   6.220   5.328  11.787
 5409SOL    HW118124   6.164   5.392  11.831
 5409SOL    HW218125   6.252   5.374  11.709
 5410SOL     OW18126   6.750   5.512   8.974
 5410SOL    HW118127   6.723   5.508   9.066
 5410SOL    HW218128   6.761   5.420   8.948
 5411SOL     OW18129   4.336   9.900  12.784
 5411SOL    HW118130   4.279   9.830  12.816
 5411SOL    HW218131   4.355   9.953  12.861
 5412SOL     OW18132   6.767   1.686   3.599
 5412SOL    HW118133   6.852   1.715   3.633
 5412SOL    HW218134   6.717   1.662   3.677
 5413SOL     OW18135   3.704   7.693  11.172
 5413SOL    HW118136   3.636   7.760  11.165
 5413SOL    HW218137   3.760   7.722  11.244
 5414SOL     OW18138   7.321   2.195   0.485
 5414SOL    HW118139   7.335   2.261   0.553
 5414SOL    HW218140   7.238   2.153   0.508
 5415SOL     OW18141  14.525   4.831   3.056
 5415SOL    HW118142  14.574   4.887   2.995
 5415SOL    HW218143  14.589   4.810   3.124
 5416SOL     OW18144   3.216  12.523   3.774
 5416SOL    HW118145   3.194  12.603   3.727
 5416SOL    HW218146   3.267  12.553   3.850
 5417SOL     OW18147   0.318  13.664   5.755
 5417SOL    HW118148   0.405  13.703   5.747
 5417SOL    HW218149   0.307  13.613   5.675
 5418SOL     OW18150   5.954  11.709   4.401
 5418SOL    HW118151   5.897  11.725   4.476
 5418SOL    HW218152   6.023  11.775   4.409
 5419SOL     OW18153   4.350   6.158   3.257
 5419SOL    HW118154   4.288   6.084   3.261
 5419SOL    HW218155   4.294   6.236   3.260
 5420SOL     OW18156  12.614   8.149   2.317
 5420SOL    HW118157  12.693   8.148   2.263
 5420SOL    HW218158  12.607   8.060   2.350
 5421SOL     OW18159  13.736   2.138   5.189
 5421SOL    HW118160  13.831   2.137   5.178
 5421SOL    HW218161  13.723   2.116   5.281
 5422SOL     OW18162  13.092   0.645  10.688
 5422SOL    HW118163  13.054   0.560  10.706
 5422SOL    HW218164  13.122   0.677  10.773
 5423SOL     OW18165  13.307  12.395   8.787
 5423SOL    HW118166  13.353  12.411   8.869
 5423SOL    HW218167  13.251  12.320   8.805
 5424SOL     OW18168   1.248  13.598   6.442
 5424SOL    HW118169   1.339  13.617   6.466
 5424SOL    HW218170   1.238  13.505   6.460
 5425SOL     OW18171  10.332  11.324   6.290
 5425SOL    HW118172  10.307  11.286   6.206
 5425SOL    HW218173  10.292  11.267   6.355
 5426SOL     OW18174  12.216   2.383   4.387
 5426SOL    HW118175  12.186   2.297   4.416
 5426SOL    HW218176  12.196   2.442   4.460
 5427SOL     OW18177   9.077   0.055   1.771
 5427SOL    HW118178   9.038   0.023   1.690
 5427SOL    HW218179   9.020   0.023   1.841
 5428SOL     OW18180  12.349   1.595   4.496
 5428SOL    HW118181  12.268   1.570   4.451
 5428SOL    HW218182  12.377   1.516   4.540
 5429SOL     OW18183  11.330   8.475  11.814
 5429SOL    HW118184  11.253   8.464  11.758
 5429SOL    HW218185  11.383   8.397  11.799
 5430SOL     OW18186   6.059  11.584  13.931
 5430SOL    HW118187   6.045  11.673  13.898
 5430SOL    HW218188   6.148  11.562  13.906
 5431SOL     OW18189   5.075   6.305   9.407
 5431SOL    HW118190   5.128   6.297   9.486
 5431SOL    HW218191   5.076   6.399   9.386
 5432SOL     OW18192  12.998  13.090   1.282
 5432SOL    HW118193  12.980  13.160   1.345
 5432SOL    HW218194  12.962  13.121   1.200
 5433SOL     OW18195   9.006   4.988   7.517
 5433SOL    HW118196   8.947   4.986   7.441
 5433SOL    HW218197   8.999   5.077   7.551
 5434SOL     OW18198  10.937   4.347   4.307
 5434SOL    HW118199  11.019   4.300   4.324
 5434SOL    HW218200  10.960   4.439   4.318
 5435SOL     OW18201  10.865   5.351  14.249
 5435SOL    HW118202  10.861   5.281  14.314
 5435SOL    HW218203  10.796   5.329  14.186
 5436SOL     OW18204   0.947   4.368   7.921
 5436SOL    HW118205   0.946   4.294   7.981
 5436SOL    HW218206   0.854   4.386   7.904
 5437SOL     OW18207  14.460   4.527   3.448
 5437SOL    HW118208  14.468   4.433   3.460
 5437SOL    HW218209  14.378   4.539   3.401
 5438SOL     OW18210  12.456   9.185   0.286
 5438SOL    HW118211  12.443   9.119   0.354
 5438SOL    HW218212  12.438   9.269   0.329
 5439SOL     OW18213  12.203  13.183  10.969
 5439SOL    HW118214  12.152  13.105  10.950
 5439SOL    HW218215  12.254  13.160  11.047
 5440SOL     OW18216   3.903   8.498  13.549
 5440SOL    HW118217   3.954   8.489  13.629
 5440SOL    HW218218   3.855   8.415  13.541
 5441SOL     OW18219   8.023   8.064  12.766
 5441SOL    HW118220   8.012   7.996  12.833
 5441SOL    HW218221   7.971   8.138  12.798
 5442SOL     OW18222   0.329  10.086   9.124
 5442SOL    HW118223   0.278  10.009   9.147
 5442SOL    HW218224   0.401  10.052   9.070
 5443SOL     OW18225   9.535   2.053   9.332
 5443SOL    HW118226   9.624   2.088   9.344
 5443SOL    HW218227   9.512   2.018   9.418
 5444SOL     OW18228   5.364  12.422  11.805
 5444SOL    HW118229   5.458  12.435  11.809
 5444SOL    HW218230   5.351  12.363  11.731
 5445SOL     OW18231   1.009   9.183  11.941
 5445SOL    HW118232   0.980   9.101  11.982
 5445SOL    HW218233   0.953   9.192  11.864
 5446SOL     OW18234   6.198   0.433   5.010
 5446SOL    HW118235   6.121   0.431   4.952
 5446SOL    HW218236   6.253   0.361   4.979
 5447SOL     OW18237   1.156   5.967  10.967
 5447SOL    HW118238   1.197   5.898  10.914
 5447SOL    HW218239   1.136   5.924  11.051
 5448SOL     OW18240   2.038  10.265   6.947
 5448SOL    HW118241   2.035  10.267   7.042
 5448SOL    HW218242   1.985  10.189   6.922
 5449SOL     OW18243   9.372  13.032   5.491
 5449SOL    HW118244   9.416  12.998   5.568
 5449SOL    HW218245   9.422  13.109   5.466
 5450SOL     OW18246   6.140   7.031   6.976
 5450SOL    HW118247   6.131   7.121   7.005
 5450SOL    HW218248   6.054   7.008   6.941
 5451SOL     OW18249   5.080   4.606  12.915
 5451SOL    HW118250   5.046   4.592  13.004
 5451SOL    HW218251   5.056   4.697  12.895
 5452SOL     OW18252   6.147   7.212   9.479
 5452SOL    HW118253   6.181   7.173   9.398
 5452SOL    HW218254   6.193   7.296   9.486
 5453SOL     OW18255   4.616   6.306   4.424
 5453SOL    HW118256   4.545   6.367   4.403
 5453SOL    HW218257   4.576   6.219   4.418
 5454SOL     OW18258  10.229   5.618  12.020
 5454SOL    HW118259  10.289   5.588  11.952
 5454SOL    HW218260  10.237   5.553  12.089
 5455SOL     OW18261   8.549   8.248   1.618
 5455SOL    HW118262   8.481   8.231   1.682
 5455SOL    HW218263   8.631   8.230   1.664
 5456SOL     OW18264  10.775  10.557   8.898
 5456SOL    HW118265  10.750  10.570   8.990
 5456SOL    HW218266  10.692  10.536   8.854
 5457SOL     OW18267  12.466   5.802   0.576
 5457SOL    HW118268  12.516   5.881   0.596
 5457SOL    HW218269  12.421   5.781   0.658
 5458SOL     OW18270   6.400   6.165  14.197
 5458SOL    HW118271   6.314   6.129  14.220
 5458SOL    HW218272   6.444   6.094  14.151
 5459SOL     OW18273   9.287   9.084  14.092
 5459SOL    HW118274   9.361   9.066  14.149
 5459SOL    HW218275   9.250   9.165  14.126
 5460SOL     OW18276  11.686   0.028  11.914
 5460SOL    HW118277  11.706   0.113  11.874
 5460SOL    HW218278  11.772  14.860  11.929
 5461SOL     OW18279   7.927  14.405   3.821
 5461SOL    HW118280   7.924  14.413   3.916
 5461SOL    HW218281   7.848  14.450   3.791
 5462SOL     OW18282   1.397   8.044   2.820
 5462SOL    HW118283   1.461   7.992   2.868
 5462SOL    HW218284   1.370   8.113   2.881
 5463SOL     OW18285   2.852   4.161   0.586
 5463SOL    HW118286   2.882   4.162   0.496
 5463SOL    HW218287   2.821   4.071   0.600
 5464SOL     OW18288   8.320  14.490   6.327
 5464SOL    HW118289   8.353  14.424   6.388
 5464SOL    HW218290   8.233  14.511   6.360
 5465SOL     OW18291   0.016  10.525  10.014
 5465SOL    HW118292   0.004  10.482   9.929
 5465SOL    HW218293  14.808  10.577  10.026
 5466SOL     OW18294   1.130   8.938  12.010
 5466SOL    HW118295   1.035   8.925  12.018
 5466SOL    HW218296   1.161   8.947  12.100
 5467SOL     OW18297   3.973   9.844   7.272
 5467SOL    HW118298   3.950   9.790   7.348
 5467SOL    HW218299   3.899   9.834   7.212
 5468SOL     OW18300   2.453   3.981   2.499
 5468SOL    HW118301   2.529   3.924   2.490
 5468SOL    HW218302   2.393   3.933   2.556
 5469SOL     OW18303  14.145   8.518   2.358
 5469SOL    HW118304  14.057   8.551   2.344
 5469SOL    HW218305  14.169   8.549   2.446
 5470SOL     OW18306   3.065  10.891  12.367
 5470SOL    HW118307   3.136  10.954  12.377
 5470SOL    HW218308   2.996  10.923  12.427
 5471SOL     OW18309   4.341   9.326   7.299
 5471SOL    HW118310   4.407   9.315   7.230
 5471SOL    HW218311   4.371   9.401   7.350
 5472SOL     OW18312   6.009  14.027  14.584
 5472SOL    HW118313   6.036  14.074  14.663
 5472SOL    HW218314   5.961  14.092  14.533
 5473SOL     OW18315   5.042  13.443   8.771
 5473SOL    HW118316   5.036  13.352   8.742
 5473SOL    HW218317   5.116  13.479   8.722
 5474SOL     OW18318   3.219  12.279   3.618
 5474SOL    HW118319   3.231  12.313   3.530
 5474SOL    HW218320   3.260  12.344   3.675
 5475SOL     OW18321  11.957   3.911   1.650
 5475SOL    HW118322  11.969   3.988   1.705
 5475SOL    HW218323  11.948   3.838   1.711
 5476SOL     OW18324   9.781   9.908   3.710
 5476SOL    HW118325   9.774   9.829   3.656
 5476SOL    HW218326   9.804   9.875   3.797
 5477SOL     OW18327   8.790   7.855   9.941
 5477SOL    HW118328   8.743   7.798   9.880
 5477SOL    HW218329   8.883   7.832   9.929
 5478SOL     OW18330   7.558  12.776   7.983
 5478SOL    HW118331   7.562  12.763   8.078
 5478SOL    HW218332   7.637  12.733   7.950
 5479SOL     OW18333  12.956   1.627  10.793
 5479SOL    HW118334  13.048   1.604  10.810
 5479SOL    HW218335  12.907   1.575  10.857
 5480SOL     OW18336   4.293  13.908   1.946
 5480SOL    HW118337   4.366  13.866   1.993
 5480SOL    HW218338   4.220  13.847   1.958
 5481SOL     OW18339   7.351   0.885   1.304
 5481SOL    HW118340   7.400   0.860   1.383
 5481SOL    HW218341   7.413   0.936   1.253
 5482SOL     OW18342   4.741   4.300   6.164
 5482SOL    HW118343   4.651   4.332   6.175
 5482SOL    HW218344   4.778   4.357   6.096
 5483SOL     OW18345  14.294   7.328   6.705
 5483SOL    HW118346  14.216   7.380   6.683
 5483SOL    HW218347  14.263   7.267   6.773
 5484SOL     OW18348  11.170   1.504   9.450
 5484SOL    HW118349  11.250   1.488   9.400
 5484SOL    HW218350  11.118   1.561   9.394
 5485SOL     OW18351   3.166  10.259  13.387
 5485SOL    HW118352   3.194  10.327  13.449
 5485SOL    HW218353   3.227  10.268  13.313
 5486SOL     OW18354   0.249  13.703   7.537
 5486SOL    HW118355   0.295  13.619   7.530
 5486SOL    HW218356   0.315  13.764   7.570
 5487SOL     OW18357   6.934   4.236  13.117
 5487SOL    HW118358   6.914   4.200  13.030
 5487SOL    HW218359   6.871   4.308  13.127
 5488SOL     OW18360  10.279   3.623   4.710
 5488SOL    HW118361  10.187   3.641   4.729
 5488SOL    HW218362  10.326   3.696   4.752
 5489SOL     OW18363   5.782   5.671   2.219
 5489SOL    HW118364   5.862   5.682   2.270
 5489SOL    HW218365   5.717   5.640   2.283
 5490SOL     OW18366   8.449  14.687   9.979
 5490SOL    HW118367   8.486  14.774   9.995
 5490SOL    HW218368   8.386  14.700   9.908
 5491SOL     OW18369  14.492  14.397   7.650
 5491SOL    HW118370  14.515  14.343   7.574
 5491SOL    HW218371  14.512  14.487   7.622
 5492SOL     OW18372   4.600   7.126   8.559
 5492SOL    HW118373   4.573   7.209   8.598
 5492SOL    HW218374   4.617   7.068   8.634
 5493SOL     OW18375   8.413  14.626  13.270
 5493SOL    HW118376   8.358  14.550  13.292
 5493SOL    HW218377   8.350  14.698  13.260
 5494SOL     OW18378   1.122   6.575   3.684
 5494SOL    HW118379   1.027   6.566   3.691
 5494SOL    HW218380   1.154   6.570   3.774
 5495SOL     OW18381   4.262   3.045   9.790
 5495SOL    HW118382   4.353   3.073   9.800
 5495SOL    HW218383   4.259   2.958   9.830
 5496SOL     OW18384   4.060   7.299  10.530
 5496SOL    HW118385   3.974   7.257  10.526
 5496SOL    HW218386   4.102   7.262  10.607
 5497SOL     OW18387   5.657   6.934   8.205
 5497SOL    HW118388   5.669   6.876   8.129
 5497SOL    HW218389   5.596   6.886   8.261
 5498SOL     OW18390   6.447  12.174   7.652
 5498SOL    HW118391   6.471  12.095   7.603
 5498SOL    HW218392   6.519  12.186   7.714
 5499SOL     OW18393   4.790   0.759   9.175
 5499SOL    HW118394   4.880   0.774   9.204
 5499SOL    HW218395   4.750   0.846   9.175
 5500SOL     OW18396   0.919  13.867   7.772
 5500SOL    HW118397   0.918  13.776   7.743
 5500SOL    HW218398   0.949  13.864   7.863
 5501SOL     OW18399  12.976   7.176   0.910
 5501SOL    HW118400  13.003   7.254   0.958
 5501SOL    HW218401  12.996   7.195   0.818
 5502SOL     OW18402  14.039  11.042   0.314
 5502SOL    HW118403  14.069  11.129   0.289
 5502SOL    HW218404  14.098  11.016   0.385
 5503SOL     OW18405   4.132   8.913   9.688
 5503SOL    HW118406   4.173   8.952   9.765
 5503SOL    HW218407   4.205   8.881   9.636
 5504SOL     OW18408  12.021   9.912  12.437
 5504SOL    HW118409  12.086   9.854  12.475
 5504SOL    HW218410  12.069   9.992  12.416
 5505SOL     OW18411   1.571   6.938  14.826
 5505SOL    HW118412   1.611   7.001   0.014
 5505SOL    HW218413   1.566   6.857   0.005
 5506SOL     OW18414  11.856   0.598  13.476
 5506SOL    HW118415  11.905   0.668  13.434
 5506SOL    HW218416  11.782   0.582  13.418
 5507SOL     OW18417   6.002  10.055  11.326
 5507SOL    HW118418   6.081  10.060  11.380
 5507SOL    HW218419   5.931  10.041  11.389
 5508SOL     OW18420   1.918   0.892  10.612
 5508SOL    HW118421   1.939   0.890  10.705
 5508SOL    HW218422   1.958   0.973  10.580
 5509SOL     OW18423   0.924   1.518   5.971
 5509SOL    HW118424   0.952   1.528   5.880
 5509SOL    HW218425   0.909   1.607   6.002
 5510SOL     OW18426   0.704  12.460  12.303
 5510SOL    HW118427   0.761  12.384  12.313
 5510SOL    HW218428   0.740  12.507  12.228
 5511SOL     OW18429   3.279   3.271  14.536
 5511SOL    HW118430   3.247   3.310  14.618
 5511SOL    HW218431   3.200   3.256  14.484
 5512SOL     OW18432   8.814   1.199  10.416
 5512SOL    HW118433   8.724   1.228  10.404
 5512SOL    HW218434   8.807   1.105  10.435
 5513SOL     OW18435   5.567   7.203  11.677
 5513SOL    HW118436   5.598   7.113  11.678
 5513SOL    HW218437   5.538   7.218  11.587
 5514SOL     OW18438  12.867  11.165   6.897
 5514SOL    HW118439  12.865  11.071   6.912
 5514SOL    HW218440  12.941  11.178   6.838
 5515SOL     OW18441   3.590   2.281  11.592
 5515SOL    HW118442   3.658   2.218  11.617
 5515SOL    HW218443   3.522   2.228  11.552
 5516SOL     OW18444  10.041   9.136   3.102
 5516SOL    HW118445   9.982   9.116   3.028
 5516SOL    HW218446  10.123   9.091   3.080
 5517SOL     OW18447  12.564  10.130  12.467
 5517SOL    HW118448  12.569  10.041  12.504
 5517SOL    HW218449  12.646  10.172  12.494
 5518SOL     OW18450   1.733   3.597   8.405
 5518SOL    HW118451   1.814   3.576   8.453
 5518SOL    HW218452   1.756   3.581   8.313
 5519SOL     OW18453  12.537   5.597   9.138
 5519SOL    HW118454  12.537   5.619   9.045
 5519SOL    HW218455  12.625   5.564   9.155
 5520SOL     OW18456   2.784   5.163  10.893
 5520SOL    HW118457   2.877   5.172  10.872
 5520SOL    HW218458   2.783   5.117  10.978
 5521SOL     OW18459  11.511  10.775  10.267
 5521SOL    HW118460  11.430  10.825  10.270
 5521SOL    HW218461  11.580  10.841  10.259
 5522SOL     OW18462  12.016   4.528  13.613
 5522SOL    HW118463  12.076   4.585  13.566
 5522SOL    HW218464  12.003   4.454  13.555
 5523SOL     OW18465   3.589   0.058   3.141
 5523SOL    HW118466   3.643   0.096   3.211
 5523SOL    HW218467   3.566  14.842   3.173
 5524SOL     OW18468  10.796  13.288   5.068
 5524SOL    HW118469  10.713  13.252   5.036
 5524SOL    HW218470  10.818  13.356   5.006
 5525SOL     OW18471  14.562  14.054   8.318
 5525SOL    HW118472  14.637  14.005   8.286
 5525SOL    HW218473  14.570  14.141   8.277
 5526SOL     OW18474   7.826  10.011   0.425
 5526SOL    HW118475   7.857  10.091   0.382
 5526SOL    HW218476   7.766   9.972   0.361
 5527SOL     OW18477   1.665  12.869   8.488
 5527SOL    HW118478   1.618  12.823   8.418
 5527SOL    HW218479   1.741  12.908   8.445
 5528SOL     OW18480   3.827   6.618  11.941
 5528SOL    HW118481   3.853   6.534  11.903
 5528SOL    HW218482   3.737   6.630  11.911
 5529SOL     OW18483   0.845   2.382   2.801
 5529SOL    HW118484   0.882   2.413   2.884
 5529SOL    HW218485   0.834   2.461   2.749
 5530SOL     OW18486   9.293  12.115  10.892
 5530SOL    HW118487   9.262  12.179  10.827
 5530SOL    HW218488   9.255  12.032  10.863
 5531SOL     OW18489   5.782   6.294  13.205
 5531SOL    HW118490   5.800   6.208  13.166
 5531SOL    HW218491   5.857   6.311  13.261
 5532SOL     OW18492   4.324   7.116   1.343
 5532SOL    HW118493   4.275   7.034   1.339
 5532SOL    HW218494   4.415   7.090   1.329
 5533SOL     OW18495   0.957  10.255  11.183
 5533SOL    HW118496   0.899  10.197  11.135
 5533SOL    HW218497   1.004  10.304  11.116
 5534SOL     OW18498  10.926  11.283   5.793
 5534SOL    HW118499  10.866  11.222   5.835
 5534SOL    HW218500  10.934  11.356   5.856
 5535SOL     OW18501   9.113   3.906   5.406
 5535SOL    HW118502   9.207   3.891   5.396
 5535SOL    HW218503   9.104   3.948   5.492
 5536SOL     OW18504   0.227   4.791   2.721
 5536SOL    HW118505   0.223   4.793   2.817
 5536SOL    HW218506   0.183   4.710   2.697
 5537SOL     OW18507   6.236   4.790  11.489
 5537SOL    HW118508   6.200   4.796  11.401
 5537SOL    HW218509   6.236   4.697  11.510
 5538SOL     OW18510   1.534   0.340  10.871
 5538SOL    HW118511   1.483   0.267  10.837
 5538SOL    HW218512   1.604   0.352  10.808
 5539SOL     OW18513   5.441  11.925  12.635
 5539SOL    HW118514   5.510  11.863  12.613
 5539SOL    HW218515   5.434  11.920  12.731
 5540SOL     OW18516   1.304   4.469   0.724
 5540SOL    HW118517   1.365   4.397   0.736
 5540SOL    HW218518   1.262   4.452   0.640
 5541SOL     OW18519   9.407   8.431  10.709
 5541SOL    HW118520   9.394   8.353  10.655
 5541SOL    HW218521   9.345   8.495  10.674
 5542SOL     OW18522   5.223   7.313   0.168
 5542SOL    HW118523   5.164   7.308   0.093
 5542SOL    HW218524   5.198   7.393   0.213
 5543SOL     OW18525   1.189  10.189  14.212
 5543SOL    HW118526   1.124  10.158  14.149
 5543SOL    HW218527   1.142  10.253  14.265
 5544SOL     OW18528   9.052   5.685   9.482
 5544SOL    HW118529   8.988   5.679   9.411
 5544SOL    HW218530   9.135   5.662   9.442
 5545SOL     OW18531  14.730   9.386   6.379
 5545SOL    HW118532  14.759   9.420   6.295
 5545SOL    HW218533  14.685   9.459   6.420
 5546SOL     OW18534   5.972   0.408   9.395
 5546SOL    HW118535   6.063   0.428   9.418
 5546SOL    HW218536   5.960   0.445   9.308
 5547SOL     OW18537  12.632  11.577  12.975
 5547SOL    HW118538  12.538  11.573  12.956
 5547SOL    HW218539  12.653  11.492  13.013
 5548SOL     OW18540   1.739   6.484   3.816
 5548SOL    HW118541   1.656   6.531   3.828
 5548SOL    HW218542   1.761   6.452   3.903
 5549SOL     OW18543   9.938  12.683   7.015
 5549SOL    HW118544   9.889  12.763   7.030
 5549SOL    HW218545   9.953  12.647   7.103
 5550SOL     OW18546  10.936   7.140   0.549
 5550SOL    HW118547  10.842   7.150   0.565
 5550SOL    HW218548  10.967   7.229   0.529
 5551SOL     OW18549  14.719   5.511   0.359
 5551SOL    HW118550  14.653   5.580   0.364
 5551SOL    HW218551  14.796   5.548   0.402
 5552SOL     OW18552   6.132   9.065   7.359
 5552SOL    HW118553   6.117   9.160   7.358
 5552SOL    HW218554   6.064   9.029   7.303
 5553SOL     OW18555   2.292   2.171   0.316
 5553SOL    HW118556   2.242   2.123   0.382
 5553SOL    HW218557   2.310   2.256   0.357
 5554SOL     OW18558   0.436  10.972   1.038
 5554SOL    HW118559   0.414  11.010   1.123
 5554SOL    HW218560   0.498  11.034   0.999
 5555SOL     OW18561  13.316   2.844   7.522
 5555SOL    HW118562  13.391   2.898   7.497
 5555SOL    HW218563  13.275   2.892   7.594
 5556SOL     OW18564   4.767   3.467  12.527
 5556SOL    HW118565   4.856   3.502  12.527
 5556SOL    HW218566   4.776   3.379  12.491
 5557SOL     OW18567   6.905   5.076  11.112
 5557SOL    HW118568   6.862   5.153  11.075
 5557SOL    HW218569   6.981   5.111  11.158
 5558SOL     OW18570   0.442  14.079  12.814
 5558SOL    HW118571   0.462  14.091  12.721
 5558SOL    HW218572   0.430  13.985  12.824
 5559SOL     OW18573   7.233  13.386  10.562
 5559SOL    HW118574   7.266  13.432  10.485
 5559SOL    HW218575   7.205  13.456  10.622
 5560SOL     OW18576   0.108  12.244   9.661
 5560SOL    HW118577   0.171  12.187   9.704
 5560SOL    HW218578   0.079  12.305   9.729
 5561SOL     OW18579   2.666   4.852   2.588
 5561SOL    HW118580   2.577   4.871   2.617
 5561SOL    HW218581   2.655   4.804   2.506
 5562SOL     OW18582   0.706  10.683   4.306
 5562SOL    HW118583   0.778  10.645   4.256
 5562SOL    HW218584   0.667  10.747   4.247
 5563SOL     OW18585   3.659   0.341   3.427
 5563SOL    HW118586   3.661   0.318   3.335
 5563SOL    HW218587   3.630   0.433   3.428
 5564SOL     OW18588   6.775   3.405   8.560
 5564SOL    HW118589   6.687   3.441   8.566
 5564SOL    HW218590   6.829   3.464   8.613
 5565SOL     OW18591   7.393   0.375  13.325
 5565SOL    HW118592   7.339   0.300  13.352
 5565SOL    HW218593   7.472   0.335  13.288
 5566SOL     OW18594   5.931   3.184   5.767
 5566SOL    HW118595   5.897   3.095   5.759
 5566SOL    HW218596   6.026   3.174   5.758
 5567SOL     OW18597   2.272   5.440  12.776
 5567SOL    HW118598   2.220   5.361  12.772
 5567SOL    HW218599   2.220   5.506  12.731
 5568SOL     OW18600  12.697   9.272   0.492
 5568SOL    HW118601  12.628   9.329   0.460
 5568SOL    HW218602  12.694   9.281   0.587
 5569SOL     OW18603   1.661  13.079   6.912
 5569SOL    HW118604   1.611  13.140   6.966
 5569SOL    HW218605   1.636  12.993   6.945
 5570SOL     OW18606   9.272   1.975  10.020
 5570SOL    HW118607   9.359   1.986  10.058
 5570SOL    HW218608   9.231   1.908  10.075
 5571SOL     OW18609   5.076   8.893   6.612
 5571SOL    HW118610   5.024   8.863   6.686
 5571SOL    HW218611   5.166   8.893   6.644
 5572SOL     OW18612   7.515  11.677  14.535
 5572SOL    HW118613   7.423  11.681  14.559
 5572SOL    HW218614   7.516  11.635  14.449
 5573SOL     OW18615  14.044  13.882   8.468
 5573SOL    HW118616  14.022  13.818   8.535
 5573SOL    HW218617  14.103  13.943   8.512
 5574SOL     OW18618  12.561   7.993   0.486
 5574SOL    HW118619  12.639   7.940   0.471
 5574SOL    HW218620  12.552   7.995   0.581
 5575SOL     OW18621   7.155   9.849   4.789
 5575SOL    HW118622   7.147   9.851   4.694
 5575SOL    HW218623   7.080   9.900   4.820
 5576SOL     OW18624   2.605   4.284   5.237
 5576SOL    HW118625   2.587   4.365   5.190
 5576SOL    HW218626   2.631   4.312   5.324
 5577SOL     OW18627   6.849  13.206  11.340
 5577SOL    HW118628   6.935  13.195  11.300
 5577SOL    HW218629   6.865  13.199  11.435
 5578SOL     OW18630   1.074   8.274  10.331
 5578SOL    HW118631   1.106   8.345  10.388
 5578SOL    HW218632   1.111   8.294  10.245
 5579SOL     OW18633   7.216   9.840   4.492
 5579SOL    HW118634   7.233   9.746   4.480
 5579SOL    HW218635   7.147   9.860   4.429
 5580SOL     OW18636   6.465  10.027   1.295
 5580SOL    HW118637   6.476  10.119   1.317
 5580SOL    HW218638   6.376  10.022   1.259
 5581SOL     OW18639   7.179   2.793   2.702
 5581SOL    HW118640   7.176   2.824   2.612
 5581SOL    HW218641   7.209   2.869   2.752
 5582SOL     OW18642   3.564  10.406   7.075
 5582SOL    HW118643   3.563  10.328   7.020
 5582SOL    HW218644   3.614  10.470   7.024
 5583SOL     OW18645   4.449   3.734   8.096
 5583SOL    HW118646   4.473   3.641   8.099
 5583SOL    HW218647   4.531   3.779   8.074
 5584SOL     OW18648   7.334  10.619  12.832
 5584SOL    HW118649   7.361  10.558  12.764
 5584SOL    HW218650   7.409  10.677  12.845
 5585SOL     OW18651   1.748  14.042   6.922
 5585SOL    HW118652   1.838  14.040   6.956
 5585SOL    HW218653   1.757  14.021   6.829
 5586SOL     OW18654   4.219   9.431  11.083
 5586SOL    HW118655   4.220   9.335  11.082
 5586SOL    HW218656   4.168   9.456  11.006
 5587SOL     OW18657   8.885   3.687   2.190
 5587SOL    HW118658   8.939   3.761   2.216
 5587SOL    HW218659   8.838   3.662   2.270
 5588SOL     OW18660   3.015  11.246   2.585
 5588SOL    HW118661   2.942  11.256   2.648
 5588SOL    HW218662   2.977  11.269   2.501
 5589SOL     OW18663   7.908  10.730   6.903
 5589SOL    HW118664   7.970  10.779   6.956
 5589SOL    HW218665   7.848  10.796   6.867
 5590SOL     OW18666  11.971  10.750   1.242
 5590SOL    HW118667  11.974  10.838   1.278
 5590SOL    HW218668  11.907  10.755   1.171
 5591SOL     OW18669  10.718  11.149  13.465
 5591SOL    HW118670  10.625  11.131  13.480
 5591SOL    HW218671  10.760  11.063  13.465
 5592SOL     OW18672   1.808  14.052   2.718
 5592SOL    HW118673   1.896  14.057   2.679
 5592SOL    HW218674   1.787  13.958   2.716
 5593SOL     OW18675   9.088   2.840   5.975
 5593SOL    HW118676   9.055   2.930   5.977
 5593SOL    HW218677   9.050   2.802   5.896
 5594SOL     OW18678   4.943  10.171   8.252
 5594SOL    HW118679   4.915  10.169   8.161
 5594SOL    HW218680   4.868  10.136   8.301
 5595SOL     OW18681  13.841  11.382   4.356
 5595SOL    HW118682  13.856  11.356   4.447
 5595SOL    HW218683  13.875  11.309   4.305
 5596SOL     OW18684   6.533   8.846   5.214
 5596SOL    HW118685   6.452   8.894   5.234
 5596SOL    HW218686   6.565   8.884   5.132
 5597SOL     OW18687  12.296   7.569  10.787
 5597SOL    HW118688  12.381   7.613  10.788
 5597SOL    HW218689  12.251   7.606  10.711
 5598SOL     OW18690   6.649   1.048   0.933
 5598SOL    HW118691   6.721   0.995   0.965
 5598SOL    HW218692   6.570   1.006   0.968
 5599SOL     OW18693   8.596   3.474   5.071
 5599SOL    HW118694   8.684   3.455   5.037
 5599SOL    HW218695   8.608   3.545   5.133
 5600SOL     OW18696   6.311   1.825   6.381
 5600SOL    HW118697   6.296   1.811   6.288
 5600SOL    HW218698   6.306   1.920   6.392
 5601SOL     OW18699   8.012   4.249   6.526
 5601SOL    HW118700   8.035   4.342   6.530
 5601SOL    HW218701   7.981   4.236   6.436
 5602SOL     OW18702   5.298   2.795  12.330
 5602SOL    HW118703   5.284   2.845  12.250
 5602SOL    HW218704   5.341   2.856  12.390
 5603SOL     OW18705   9.638  10.496   0.257
 5603SOL    HW118706   9.699  10.497   0.330
 5603SOL    HW218707   9.607  10.586   0.250
 5604SOL     OW18708   6.970  13.302   9.774
 5604SOL    HW118709   7.044  13.362   9.778
 5604SOL    HW218710   6.915  13.335   9.703
 5605SOL     OW18711   7.538   2.834   4.828
 5605SOL    HW118712   7.477   2.898   4.791
 5605SOL    HW218713   7.489   2.795   4.901
 5606SOL     OW18714   5.220  12.654  13.284
 5606SOL    HW118715   5.268  12.605  13.218
 5606SOL    HW218716   5.153  12.594  13.316
 5607SOL     OW18717   9.707   3.499   9.194
 5607SOL    HW118718   9.655   3.420   9.177
 5607SOL    HW218719   9.796   3.475   9.168
 5608SOL     OW18720   9.028   7.782   0.749
 5608SOL    HW118721   8.948   7.731   0.737
 5608SOL    HW218722   9.079   7.764   0.670
 5609SOL     OW18723   5.371   3.017  11.766
 5609SOL    HW118724   5.295   3.001  11.709
 5609SOL    HW218725   5.400   3.106  11.744
 5610SOL     OW18726   9.302  13.459   9.611
 5610SOL    HW118727   9.224  13.406   9.627
 5610SOL    HW218728   9.311  13.513   9.689
 5611SOL     OW18729   5.216   8.021   6.855
 5611SOL    HW118730   5.258   7.948   6.898
 5611SOL    HW218731   5.183   8.076   6.926
 5612SOL     OW18732   1.974   6.364   5.051
 5612SOL    HW118733   1.994   6.292   5.111
 5612SOL    HW218734   1.879   6.361   5.040
 5613SOL     OW18735   7.500   8.002   4.466
 5613SOL    HW118736   7.545   8.003   4.382
 5613SOL    HW218737   7.530   8.081   4.511
 5614SOL     OW18738   7.248   0.209  12.175
 5614SOL    HW118739   7.204   0.188  12.092
 5614SOL    HW218740   7.238   0.131  12.228
 5615SOL     OW18741   5.066   3.400   4.289
 5615SOL    HW118742   5.106   3.338   4.228
 5615SOL    HW218743   4.984   3.359   4.314
 5616SOL     OW18744   2.825   3.549   3.683
 5616SOL    HW118745   2.808   3.635   3.722
 5616SOL    HW218746   2.905   3.561   3.633
 5617SOL     OW18747  12.326   2.878  10.781
 5617SOL    HW118748  12.321   2.948  10.716
 5617SOL    HW218749  12.317   2.921  10.865
 5618SOL     OW18750   1.330   3.379  11.908
 5618SOL    HW118751   1.317   3.316  11.836
 5618SOL    HW218752   1.243   3.416  11.923
 5619SOL     OW18753   6.706   3.446   1.679
 5619SOL    HW118754   6.790   3.435   1.723
 5619SOL    HW218755   6.657   3.505   1.737
 5620SOL     OW18756  14.373  14.633   3.844
 5620SOL    HW118757  14.377  14.579   3.923
 5620SOL    HW218758  14.353  14.571   3.774
 5621SOL     OW18759  13.151  14.359  14.372
 5621SOL    HW118760  13.204  14.326  14.444
 5621SOL    HW218761  13.214  14.394  14.310
 5622SOL     OW18762   4.396  12.342   9.789
 5622SOL    HW118763   4.446  12.286   9.731
 5622SOL    HW218764   4.355  12.283   9.851
 5623SOL     OW18765   6.314   9.614  11.013
 5623SOL    HW118766   6.338   9.655  10.931
 5623SOL    HW218767   6.223   9.641  11.028
 5624SOL     OW18768   3.070   7.210   3.201
 5624SOL    HW118769   3.123   7.278   3.243
 5624SOL    HW218770   2.984   7.218   3.244
 5625SOL     OW18771   9.539  13.918   3.989
 5625SOL    HW118772   9.500  13.902   4.076
 5625SOL    HW218773   9.573  13.833   3.963
 5626SOL     OW18774  10.712  11.220   1.991
 5626SOL    HW118775  10.648  11.220   1.920
 5626SOL    HW218776  10.685  11.147   2.047
 5627SOL     OW18777   5.176  13.852   4.425
 5627SOL    HW118778   5.155  13.862   4.332
 5627SOL    HW218779   5.111  13.906   4.470
 5628SOL     OW18780   6.869   4.653   8.967
 5628SOL    HW118781   6.872   4.601   8.887
 5628SOL    HW218782   6.910   4.597   9.034
 5629SOL     OW18783  10.501   2.434   3.512
 5629SOL    HW118784  10.500   2.422   3.607
 5629SOL    HW218785  10.512   2.528   3.499
 5630SOL     OW18786  13.274   1.062   2.627
 5630SOL    HW118787  13.319   0.995   2.678
 5630SOL    HW218788  13.293   1.144   2.673
 5631SOL     OW18789   1.344   0.406   9.728
 5631SOL    HW118790   1.398   0.450   9.794
 5631SOL    HW218791   1.343   0.314   9.756
 5632SOL     OW18792  13.708   3.998   2.510
 5632SOL    HW118793  13.733   3.967   2.423
 5632SOL    HW218794  13.654   4.075   2.494
 5633SOL     OW18795   0.302   2.185   8.306
 5633SOL    HW118796   0.271   2.096   8.321
 5633SOL    HW218797   0.223   2.239   8.307
 5634SOL     OW18798  10.994   6.633  12.925
 5634SOL    HW118799  11.054   6.705  12.943
 5634SOL    HW218800  11.045   6.554  12.942
 5635SOL     OW18801   3.594  14.668  11.476
 5635SOL    HW118802   3.667  14.616  11.509
 5635SOL    HW218803   3.627  14.708  11.396
 5636SOL     OW18804  14.664   9.009   9.115
 5636SOL    HW118805  14.756   8.992   9.138
 5636SOL    HW218806  14.628   9.054   9.192
 5637SOL     OW18807   9.774  11.004   1.480
 5637SOL    HW118808   9.694  11.035   1.522
 5637SOL    HW218809   9.817  10.950   1.546
 5638SOL     OW18810  11.563   6.612   3.502
 5638SOL    HW118811  11.648   6.570   3.497
 5638SOL    HW218812  11.502   6.549   3.463
 5639SOL     OW18813   0.450  10.316   0.879
 5639SOL    HW118814   0.527  10.273   0.842
 5639SOL    HW218815   0.446  10.284   0.970
 5640SOL     OW18816  10.392  14.771   6.554
 5640SOL    HW118817  10.407  14.718   6.633
 5640SOL    HW218818  10.322  14.831   6.579
 5641SOL     OW18819   5.439   6.721   5.577
 5641SOL    HW118820   5.498   6.794   5.597
 5641SOL    HW218821   5.434   6.720   5.482
 5642SOL     OW18822   4.421  14.643   2.086
 5642SOL    HW118823   4.469  14.564   2.061
 5642SOL    HW218824   4.489  14.709   2.100
 5643SOL     OW18825  12.349   6.562   3.506
 5643SOL    HW118826  12.337   6.553   3.412
 5643SOL    HW218827  12.271   6.522   3.544
 5644SOL     OW18828   3.984   4.045   2.411
 5644SOL    HW118829   4.001   4.112   2.478
 5644SOL    HW218830   3.993   4.092   2.328
 5645SOL     OW18831   0.761  14.402   1.594
 5645SOL    HW118832   0.756  14.311   1.625
 5645SOL    HW218833   0.756  14.455   1.674
 5646SOL     OW18834   7.817   4.434  12.204
 5646SOL    HW118835   7.850   4.452  12.116
 5646SOL    HW218836   7.722   4.435  12.195
 5647SOL     OW18837  14.323  10.373  12.451
 5647SOL    HW118838  14.242  10.423  12.452
 5647SOL    HW218839  14.392  10.440  12.441
 5648SOL     OW18840   6.686   3.842   4.612
 5648SOL    HW118841   6.686   3.906   4.541
 5648SOL    HW218842   6.624   3.775   4.583
 5649SOL     OW18843   4.584   9.973  10.879
 5649SOL    HW118844   4.618   9.968  10.790
 5649SOL    HW218845   4.495   9.940  10.874
 5650SOL     OW18846   0.914   3.915  12.939
 5650SOL    HW118847   0.822   3.918  12.966
 5650SOL    HW218848   0.918   3.968  12.860
 5651SOL     OW18849  11.293   4.509   3.290
 5651SOL    HW118850  11.348   4.438   3.256
 5651SOL    HW218851  11.333   4.589   3.256
 5652SOL     OW18852  12.058   9.631  13.468
 5652SOL    HW118853  12.071   9.624  13.563
 5652SOL    HW218854  12.125   9.573  13.431
 5653SOL     OW18855  11.705   0.246   9.585
 5653SOL    HW118856  11.610   0.243   9.574
 5653SOL    HW218857  11.738   0.267   9.498
 5654SOL     OW18858   4.998   5.790  12.241
 5654SOL    HW118859   5.018   5.884  12.234
 5654SOL    HW218860   4.970   5.778  12.332
 5655SOL     OW18861   4.585   3.267   3.737
 5655SOL    HW118862   4.499   3.297   3.768
 5655SOL    HW218863   4.568   3.179   3.703
 5656SOL     OW18864   8.765   2.814  13.510
 5656SOL    HW118865   8.840   2.873  13.499
 5656SOL    HW218866   8.760   2.798  13.604
 5657SOL     OW18867   5.925  13.096   7.055
 5657SOL    HW118868   5.940  13.086   6.961
 5657SOL    HW218869   5.985  13.034   7.096
 5658SOL     OW18870  12.866   8.963   6.399
 5658SOL    HW118871  12.897   8.911   6.325
 5658SOL    HW218872  12.782   8.998   6.369
 5659SOL     OW18873   1.144   9.444   7.753
 5659SOL    HW118874   1.049   9.433   7.752
 5659SOL    HW218875   1.158   9.526   7.799
 5660SOL     OW18876   2.557   7.246   9.345
 5660SOL    HW118877   2.601   7.164   9.371
 5660SOL    HW218878   2.464   7.225   9.348
 5661SOL     OW18879   6.012  13.600  13.798
 5661SOL    HW118880   6.032  13.509  13.819
 5661SOL    HW218881   6.038  13.649  13.877
 5662SOL     OW18882   2.556   2.742  10.402
 5662SOL    HW118883   2.586   2.742  10.311
 5662SOL    HW218884   2.604   2.670  10.443
 5663SOL     OW18885   9.133   4.152   6.688
 5663SOL    HW118886   9.172   4.236   6.711
 5663SOL    HW218887   9.155   4.140   6.595
 5664SOL     OW18888  13.240   0.427  12.022
 5664SOL    HW118889  13.191   0.346  12.029
 5664SOL    HW218890  13.183   0.486  11.972
 5665SOL     OW18891  11.709   5.371  10.142
 5665SOL    HW118892  11.725   5.462  10.169
 5665SOL    HW218893  11.770   5.320  10.195
 5666SOL     OW18894   7.334   3.570  10.007
 5666SOL    HW118895   7.348   3.624   9.929
 5666SOL    HW218896   7.242   3.586  10.031
 5667SOL     OW18897   2.860   4.365   8.819
 5667SOL    HW118898   2.812   4.404   8.892
 5667SOL    HW218899   2.882   4.439   8.762
 5668SOL     OW18900   1.463  14.764   4.653
 5668SOL    HW118901   1.458  14.670   4.634
 5668SOL    HW218902   1.416  14.806   4.581
 5669SOL     OW18903   4.422   7.739   3.701
 5669SOL    HW118904   4.492   7.803   3.688
 5669SOL    HW218905   4.363   7.780   3.764
 5670SOL     OW18906  11.952   6.369   1.069
 5670SOL    HW118907  11.975   6.455   1.105
 5670SOL    HW218908  11.893   6.389   0.996
 5671SOL     OW18909  10.910   9.338   8.757
 5671SOL    HW118910  10.958   9.351   8.676
 5671SOL    HW218911  10.833   9.394   8.750
 5672SOL     OW18912   2.100  13.283  14.520
 5672SOL    HW118913   2.044  13.338  14.465
 5672SOL    HW218914   2.186  13.325  14.517
 5673SOL     OW18915   6.658  10.544  13.049
 5673SOL    HW118916   6.585  10.590  13.009
 5673SOL    HW218917   6.629  10.526  13.139
 5674SOL     OW18918   2.062   6.602  14.450
 5674SOL    HW118919   2.094   6.609  14.360
 5674SOL    HW218920   1.968   6.586  14.440
 5675SOL     OW18921   3.369   3.898   5.277
 5675SOL    HW118922   3.283   3.855   5.274
 5675SOL    HW218923   3.420   3.843   5.337
 5676SOL     OW18924   4.494  10.655   7.466
 5676SOL    HW118925   4.465  10.613   7.546
 5676SOL    HW218926   4.557  10.594   7.428
 5677SOL     OW18927   6.196  12.078  11.886
 5677SOL    HW118928   6.260  12.064  11.955
 5677SOL    HW218929   6.214  12.011  11.821
 5678SOL     OW18930  11.540  11.429  10.695
 5678SOL    HW118931  11.629  11.409  10.723
 5678SOL    HW218932  11.529  11.522  10.713
 5679SOL     OW18933  12.559  13.322  14.779
 5679SOL    HW118934  12.577  13.278  14.696
 5679SOL    HW218935  12.613  13.401  14.776
 5680SOL     OW18936   0.472  11.299   9.606
 5680SOL    HW118937   0.509  11.240   9.672
 5680SOL    HW218938   0.541  11.362   9.589
 5681SOL     OW18939   6.619   7.514   5.642
 5681SOL    HW118940   6.542   7.571   5.652
 5681SOL    HW218941   6.693   7.568   5.669
 5682SOL     OW18942   8.672   3.842   4.884
 5682SOL    HW118943   8.759   3.823   4.848
 5682SOL    HW218944   8.683   3.832   4.979
 5683SOL     OW18945   8.176   3.202   5.980
 5683SOL    HW118946   8.155   3.270   5.916
 5683SOL    HW218947   8.137   3.122   5.944
 5684SOL     OW18948   3.676   0.536   5.425
 5684SOL    HW118949   3.651   0.445   5.412
 5684SOL    HW218950   3.744   0.533   5.492
 5685SOL     OW18951  13.583   6.028   2.809
 5685SOL    HW118952  13.524   6.099   2.832
 5685SOL    HW218953  13.670   6.066   2.817
 5686SOL     OW18954  11.324  14.108   8.514
 5686SOL    HW118955  11.408  14.073   8.543
 5686SOL    HW218956  11.314  14.076   8.425
 5687SOL     OW18957   2.712  11.122   3.914
 5687SOL    HW118958   2.650  11.100   3.844
 5687SOL    HW218959   2.657  11.143   3.989
 5688SOL     OW18960   5.350  12.476   9.708
 5688SOL    HW118961   5.310  12.445   9.627
 5688SOL    HW218962   5.427  12.526   9.679
 5689SOL     OW18963   4.900   3.746   9.920
 5689SOL    HW118964   4.832   3.682   9.936
 5689SOL    HW218965   4.868   3.826   9.961
 5690SOL     OW18966  12.442   6.943   3.260
 5690SOL    HW118967  12.429   6.964   3.352
 5690SOL    HW218968  12.443   6.847   3.257
 5691SOL     OW18969  12.695   7.548   2.234
 5691SOL    HW118970  12.695   7.458   2.266
 5691SOL    HW218971  12.786   7.575   2.237
 5692SOL     OW18972  12.276   8.715   3.850
 5692SOL    HW118973  12.270   8.740   3.758
 5692SOL    HW218974  12.359   8.667   3.856
 5693SOL     OW18975   4.931   1.402  12.940
 5693SOL    HW118976   5.016   1.411  12.895
 5693SOL    HW218977   4.898   1.317  12.911
 5694SOL     OW18978   6.323   7.092   2.766
 5694SOL    HW118979   6.308   6.998   2.757
 5694SOL    HW218980   6.418   7.101   2.771
 5695SOL     OW18981   3.726   1.844   5.783
 5695SOL    HW118982   3.674   1.915   5.822
 5695SOL    HW218983   3.786   1.817   5.852
 5696SOL     OW18984   2.962   0.126  13.066
 5696SOL    HW118985   3.001   0.115  12.980
 5696SOL    HW218986   2.917   0.211  13.062
 5697SOL     OW18987  13.555  10.604   7.176
 5697SOL    HW118988  13.594  10.629   7.093
 5697SOL    HW218989  13.513  10.684   7.208
 5698SOL     OW18990  14.670   6.973  11.011
 5698SOL    HW118991  14.741   6.935  10.960
 5698SOL    HW218992  14.699   7.063  11.029
 5699SOL     OW18993   0.930   9.441  14.835
 5699SOL    HW118994   0.991   9.491  14.781
 5699SOL    HW218995   0.852   9.496  14.839
 5700SOL     OW18996   1.583   9.562   1.399
 5700SOL    HW118997   1.516   9.624   1.371
 5700SOL    HW218998   1.641   9.553   1.324
 5701SOL     OW18999   3.890   1.275   8.892
 5701SOL    HW119000   3.809   1.325   8.880
 5701SOL    HW219001   3.960   1.338   8.875
 5702SOL     OW19002   2.846   7.556   3.731
 5702SOL    HW119003   2.913   7.607   3.686
 5702SOL    HW219004   2.778   7.620   3.753
 5703SOL     OW19005  11.335   1.053   0.344
 5703SOL    HW119006  11.280   1.115   0.295
 5703SOL    HW219007  11.419   1.054   0.299
 5704SOL     OW19008  11.426  14.456   1.347
 5704SOL    HW119009  11.478  14.523   1.390
 5704SOL    HW219010  11.470  14.440   1.264
 5705SOL     OW19011   0.663  13.870  10.561
 5705SOL    HW119012   0.656  13.904  10.472
 5705SOL    HW219013   0.626  13.782  10.556
 5706SOL     OW19014   4.537   8.321   8.770
 5706SOL    HW119015   4.514   8.408   8.801
 5706SOL    HW219016   4.581   8.336   8.686
 5707SOL     OW19017   9.928  10.538   8.949
 5707SOL    HW119018   9.835  10.551   8.969
 5707SOL    HW219019   9.964  10.626   8.943
 5708SOL     OW19020   6.776   9.698   7.387
 5708SOL    HW119021   6.721   9.633   7.343
 5708SOL    HW219022   6.839   9.646   7.437
 5709SOL     OW19023  11.109  10.346   3.610
 5709SOL    HW119024  11.063  10.382   3.686
 5709SOL    HW219025  11.099  10.251   3.619
 5710SOL     OW19026  11.819   1.223   6.690
 5710SOL    HW119027  11.888   1.187   6.633
 5710SOL    HW219028  11.850   1.203   6.779
 5711SOL     OW19029   1.502   9.467  12.020
 5711SOL    HW119030   1.493   9.562  12.012
 5711SOL    HW219031   1.437   9.442  12.086
 5712SOL     OW19032   2.653  12.919  12.717
 5712SOL    HW119033   2.664  13.009  12.746
 5712SOL    HW219034   2.640  12.868  12.797
 5713SOL     OW19035   0.344   9.962  14.743
 5713SOL    HW119036   0.373   9.972  14.652
 5713SOL    HW219037   0.398  10.022  14.793
 5714SOL     OW19038   5.076   0.817   5.053
 5714SOL    HW119039   5.051   0.754   5.120
 5714SOL    HW219040   5.042   0.901   5.085
 5715SOL     OW19041  13.414   1.795  12.383
 5715SOL    HW119042  13.498   1.832  12.356
 5715SOL    HW219043  13.423   1.701  12.370
 5716SOL     OW19044  10.764   8.704  12.369
 5716SOL    HW119045  10.830   8.641  12.341
 5716SOL    HW219046  10.680   8.663  12.347
 5717SOL     OW19047   1.813   1.714   3.520
 5717SOL    HW119048   1.800   1.684   3.430
 5717SOL    HW219049   1.828   1.808   3.512
 5718SOL     OW19050   9.850   1.370   3.624
 5718SOL    HW119051   9.766   1.337   3.593
 5718SOL    HW219052   9.912   1.342   3.556
 5719SOL     OW19053   3.756   8.092  11.758
 5719SOL    HW119054   3.742   8.160  11.824
 5719SOL    HW219055   3.851   8.076  11.760
 5720SOL     OW19056   0.879   7.899  10.962
 5720SOL    HW119057   0.974   7.899  10.953
 5720SOL    HW219058   0.846   7.904  10.872
 5721SOL     OW19059  12.837  14.154   5.027
 5721SOL    HW119060  12.806  14.127   5.114
 5721SOL    HW219061  12.769  14.213   4.994
 5722SOL     OW19062  10.603   5.566  13.579
 5722SOL    HW119063  10.550   5.491  13.552
 5722SOL    HW219064  10.649   5.594  13.500
 5723SOL     OW19065   9.976   2.458   0.592
 5723SOL    HW119066   9.912   2.394   0.623
 5723SOL    HW219067  10.051   2.449   0.652
 5724SOL     OW19068  12.886   0.201   1.693
 5724SOL    HW119069  12.887   0.296   1.693
 5724SOL    HW219070  12.939   0.175   1.618
 5725SOL     OW19071   7.368   8.980  14.296
 5725SOL    HW119072   7.293   9.020  14.340
 5725SOL    HW219073   7.444   9.009  14.348
 5726SOL     OW19074  14.107   3.147   8.901
 5726SOL    HW119075  14.133   3.127   8.811
 5726SOL    HW219076  14.077   3.238   8.897
 5727SOL     OW19077   9.227   8.199   5.707
 5727SOL    HW119078   9.144   8.246   5.701
 5727SOL    HW219079   9.258   8.217   5.796
 5728SOL     OW19080   8.956   9.727   7.105
 5728SOL    HW119081   8.975   9.811   7.148
 5728SOL    HW219082   8.902   9.680   7.168
 5729SOL     OW19083   8.180   3.344   4.285
 5729SOL    HW119084   8.216   3.433   4.293
 5729SOL    HW219085   8.116   3.337   4.355
 5730SOL     OW19086   5.078   6.510   0.386
 5730SOL    HW119087   5.156   6.503   0.442
 5730SOL    HW219088   5.111   6.540   0.302
 5731SOL     OW19089   5.607   1.112   9.071
 5731SOL    HW119090   5.696   1.133   9.098
 5731SOL    HW219091   5.609   1.115   8.976
 5732SOL     OW19092   8.376   6.931   1.986
 5732SOL    HW119093   8.370   7.026   1.971
 5732SOL    HW219094   8.450   6.921   2.045
 5733SOL     OW19095   6.210  10.195  12.903
 5733SOL    HW119096   6.239  10.175  12.814
 5733SOL    HW219097   6.282  10.163  12.958
 5734SOL     OW19098   8.871   2.107  11.359
 5734SOL    HW119099   8.858   2.173  11.291
 5734SOL    HW219100   8.791   2.054  11.357
 5735SOL     OW19101   1.742   0.753   6.022
 5735SOL    HW119102   1.664   0.698   6.027
 5735SOL    HW219103   1.727   0.811   5.948
 5736SOL     OW19104  10.275  12.964   7.974
 5736SOL    HW119105  10.260  12.881   8.019
 5736SOL    HW219106  10.361  12.954   7.934
 5737SOL     OW19107   8.887   7.626  12.580
 5737SOL    HW119108   8.811   7.646  12.526
 5737SOL    HW219109   8.926   7.549  12.539
 5738SOL     OW19110  14.360   1.570  13.025
 5738SOL    HW119111  14.453   1.569  13.000
 5738SOL    HW219112  14.360   1.557  13.119
 5739SOL     OW19113   2.502   5.027   3.548
 5739SOL    HW119114   2.444   4.957   3.518
 5739SOL    HW219115   2.493   5.026   3.643
 5740SOL     OW19116   6.965   6.865   2.222
 5740SOL    HW119117   6.915   6.933   2.177
 5740SOL    HW219118   7.043   6.854   2.169
 5741SOL     OW19119  13.434   0.014  10.000
 5741SOL    HW119120  13.505  14.853   9.944
 5741SOL    HW219121  13.415  14.813  10.060
 5742SOL     OW19122   9.409   9.746   6.130
 5742SOL    HW119123   9.504   9.747   6.129
 5742SOL    HW219124   9.386   9.657   6.158
 5743SOL     OW19125   7.321   4.339   2.110
 5743SOL    HW119126   7.345   4.426   2.142
 5743SOL    HW219127   7.262   4.304   2.177
 5744SOL     OW19128   3.101  10.294   0.666
 5744SOL    HW119129   3.026  10.295   0.726
 5744SOL    HW219130   3.139  10.382   0.674
 5745SOL     OW19131   1.383   1.779  13.476
 5745SOL    HW119132   1.314   1.769  13.542
 5745SOL    HW219133   1.465   1.768  13.525
 5746SOL     OW19134   2.434   1.452   3.634
 5746SOL    HW119135   2.483   1.527   3.668
 5746SOL    HW219136   2.402   1.406   3.711
 5747SOL     OW19137  11.458   9.606   5.973
 5747SOL    HW119138  11.471   9.622   5.880
 5747SOL    HW219139  11.540   9.633   6.014
 5748SOL     OW19140   2.182   4.095  12.867
 5748SOL    HW119141   2.155   4.186  12.876
 5748SOL    HW219142   2.103   4.044  12.889
 5749SOL     OW19143  12.806  12.722   0.650
 5749SOL    HW119144  12.886  12.730   0.599
 5749SOL    HW219145  12.736  12.748   0.590
 5750SOL     OW19146   7.285   0.528   3.594
 5750SOL    HW119147   7.259   0.460   3.657
 5750SOL    HW219148   7.205   0.579   3.580
 5751SOL     OW19149   4.388   2.074   5.223
 5751SOL    HW119150   4.368   1.992   5.176
 5751SOL    HW219151   4.479   2.063   5.253
 5752SOL     OW19152  13.230   7.268  14.856
 5752SOL    HW119153  13.199   7.245   0.072
 5752SOL    HW219154  13.154   7.255  14.799
 5753SOL     OW19155  13.486   5.652   1.032
 5753SOL    HW119156  13.494   5.669   0.938
 5753SOL    HW219157  13.434   5.726   1.065
 5754SOL     OW19158   1.118   2.973   0.705
 5754SOL    HW119159   1.176   2.907   0.666
 5754SOL    HW219160   1.152   2.984   0.794
 5755SOL     OW19161   4.821  11.211   7.743
 5755SOL    HW119162   4.837  11.305   7.753
 5755SOL    HW219163   4.793  11.182   7.830
 5756SOL     OW19164   7.505   9.359   2.264
 5756SOL    HW119165   7.485   9.287   2.324
 5756SOL    HW219166   7.442   9.427   2.287
 5757SOL     OW19167   5.423  11.065  14.826
 5757SOL    HW119168   5.489  11.001  14.799
 5757SOL    HW219169   5.451  11.093   0.041
 5758SOL     OW19170   2.525   3.369   4.699
 5758SOL    HW119171   2.537   3.285   4.656
 5758SOL    HW219172   2.476   3.422   4.635
 5759SOL     OW19173  10.959  14.732   4.009
 5759SOL    HW119174  10.876  14.735   4.057
 5759SOL    HW219175  10.981  14.823   3.993
 5760SOL     OW19176  11.113   0.645   9.154
 5760SOL    HW119177  11.197   0.632   9.109
 5760SOL    HW219178  11.099   0.739   9.151
 5761SOL     OW19179   3.549   1.898   0.627
 5761SOL    HW119180   3.590   1.919   0.543
 5761SOL    HW219181   3.476   1.959   0.634
 5762SOL     OW19182   4.429  14.437  12.875
 5762SOL    HW119183   4.380  14.359  12.850
 5762SOL    HW219184   4.476  14.411  12.954
 5763SOL     OW19185   2.397   7.369   5.262
 5763SOL    HW119186   2.474   7.391   5.315
 5763SOL    HW219187   2.418   7.400   5.174
 5764SOL     OW19188  14.040  12.332  11.692
 5764SOL    HW119189  13.967  12.391  11.711
 5764SOL    HW219190  14.045  12.331  11.596
 5765SOL     OW19191   8.340   2.972  13.385
 5765SOL    HW119192   8.348   3.016  13.470
 5765SOL    HW219193   8.291   2.892  13.404
 5766SOL     OW19194   4.985  13.100   1.703
 5766SOL    HW119195   4.970  13.023   1.647
 5766SOL    HW219196   4.899  13.139   1.714
 5767SOL     OW19197   5.820  13.735   5.115
 5767SOL    HW119198   5.901  13.736   5.065
 5767SOL    HW219199   5.822  13.818   5.164
 5768SOL     OW19200   1.158   5.611   7.201
 5768SOL    HW119201   1.204   5.691   7.175
 5768SOL    HW219202   1.138   5.624   7.293
 5769SOL     OW19203   1.760  13.711   6.473
 5769SOL    HW119204   1.790  13.620   6.464
 5769SOL    HW219205   1.840  13.760   6.496
 5770SOL     OW19206  14.175   7.503  11.641
 5770SOL    HW119207  14.203   7.424  11.688
 5770SOL    HW219208  14.146   7.472  11.555
 5771SOL     OW19209   5.671   6.458  10.102
 5771SOL    HW119210   5.650   6.392  10.035
 5771SOL    HW219211   5.739   6.512  10.061
 5772SOL     OW19212   0.420  12.580   3.773
 5772SOL    HW119213   0.387  12.629   3.698
 5772SOL    HW219214   0.427  12.490   3.741
 5773SOL     OW19215   8.960   8.875  10.318
 5773SOL    HW119216   8.992   8.949  10.370
 5773SOL    HW219217   8.869   8.898  10.297
 5774SOL     OW19218   8.524   5.695   9.856
 5774SOL    HW119219   8.521   5.606   9.891
 5774SOL    HW219220   8.552   5.684   9.765
 5775SOL     OW19221  13.318  12.959  12.579
 5775SOL    HW119222  13.372  12.905  12.522
 5775SOL    HW219223  13.264  13.011  12.519
 5776SOL     OW19224   3.644   0.238   8.549
 5776SOL    HW119225   3.674   0.281   8.469
 5776SOL    HW219226   3.639   0.308   8.614
 5777SOL     OW19227   4.355   5.507   8.865
 5777SOL    HW119228   4.291   5.562   8.911
 5777SOL    HW219229   4.403   5.568   8.809
 5778SOL     OW19230   8.151  11.463  13.205
 5778SOL    HW119231   8.140  11.405  13.130
 5778SOL    HW219232   8.147  11.405  13.281
 5779SOL     OW19233  11.026   6.082  13.092
 5779SOL    HW119234  11.042   6.114  13.003
 5779SOL    HW219235  10.976   6.001  13.080
 5780SOL     OW19236   4.153   3.567   8.713
 5780SOL    HW119237   4.126   3.498   8.774
 5780SOL    HW219238   4.151   3.525   8.627
 5781SOL     OW19239  11.028   6.183  12.841
 5781SOL    HW119240  11.008   6.101  12.796
 5781SOL    HW219241  11.101   6.221  12.791
 5782SOL     OW19242   2.351   5.875   7.195
 5782SOL    HW119243   2.296   5.821   7.138
 5782SOL    HW219244   2.395   5.811   7.252
 5783SOL     OW19245  10.256  10.265   7.262
 5783SOL    HW119246  10.175  10.220   7.238
 5783SOL    HW219247  10.252  10.348   7.214
 5784SOL     OW19248   6.406   5.795   7.214
 5784SOL    HW119249   6.373   5.710   7.244
 5784SOL    HW219250   6.496   5.777   7.187
 5785SOL     OW19251   0.741   9.175   0.963
 5785SOL    HW119252   0.659   9.147   1.004
 5785SOL    HW219253   0.732   9.148   0.872
 5786SOL     OW19254   8.933  12.333   6.885
 5786SOL    HW119255   9.000  12.326   6.817
 5786SOL    HW219256   8.981  12.323   6.967
 5787SOL     OW19257   1.424  10.948   5.641
 5787SOL    HW119258   1.518  10.939   5.657
 5787SOL    HW219259   1.391  10.858   5.643
 5788SOL     OW19260   3.340  10.413   7.609
 5788SOL    HW119261   3.331  10.406   7.704
 5788SOL    HW219262   3.251  10.427   7.577
 5789SOL     OW19263   7.509   9.837   7.198
 5789SOL    HW119264   7.592   9.862   7.156
 5789SOL    HW219265   7.535   9.779   7.269
 5790SOL     OW19266   0.016  12.951  14.371
 5790SOL    HW119267   0.098  12.905  14.351
 5790SOL    HW219268   0.012  13.020  14.305
 5791SOL     OW19269   2.883   8.583   2.389
 5791SOL    HW119270   2.834   8.580   2.471
 5791SOL    HW219271   2.972   8.557   2.413
 5792SOL     OW19272   6.145   8.025   6.077
 5792SOL    HW119273   6.142   7.930   6.093
 5792SOL    HW219274   6.092   8.063   6.148
 5793SOL     OW19275  11.354  11.811   5.108
 5793SOL    HW119276  11.396  11.749   5.049
 5793SOL    HW219277  11.295  11.861   5.052
 5794SOL     OW19278   8.824  14.056   8.610
 5794SOL    HW119279   8.755  14.031   8.672
 5794SOL    HW219280   8.823  14.152   8.611
 5795SOL     OW19281   7.812  13.488  12.209
 5795SOL    HW119282   7.804  13.571  12.255
 5795SOL    HW219283   7.818  13.512  12.116
 5796SOL     OW19284   8.507  10.903  13.882
 5796SOL    HW119285   8.567  10.835  13.912
 5796SOL    HW219286   8.428  10.856  13.855
 5797SOL     OW19287   1.273  10.697   3.848
 5797SOL    HW119288   1.272  10.774   3.791
 5797SOL    HW219289   1.301  10.730   3.933
 5798SOL     OW19290  11.783  10.490   3.647
 5798SOL    HW119291  11.709  10.527   3.696
 5798SOL    HW219292  11.852  10.557   3.654
 5799SOL     OW19293   6.055   2.735   3.667
 5799SOL    HW119294   5.964   2.738   3.697
 5799SOL    HW219295   6.057   2.793   3.591
 5800SOL     OW19296  10.192   3.091   7.072
 5800SOL    HW119297  10.173   3.089   7.166
 5800SOL    HW219298  10.236   3.008   7.055
 5801SOL     OW19299   0.980   6.993  11.540
 5801SOL    HW119300   0.942   6.950  11.617
 5801SOL    HW219301   0.934   6.954  11.466
 5802SOL     OW19302   9.447   7.485   7.284
 5802SOL    HW119303   9.449   7.398   7.324
 5802SOL    HW219304   9.460   7.546   7.356
 5803SOL     OW19305   6.747   8.983   8.547
 5803SOL    HW119306   6.798   8.987   8.628
 5803SOL    HW219307   6.672   8.928   8.568
 5804SOL     OW19308   3.951   8.552   3.931
 5804SOL    HW119309   3.973   8.644   3.940
 5804SOL    HW219310   3.878   8.550   3.868
 5805SOL     OW19311  12.637  10.445   7.096
 5805SOL    HW119312  12.641  10.539   7.083
 5805SOL    HW219313  12.728  10.418   7.104
 5806SOL     OW19314   8.539   2.601  13.048
 5806SOL    HW119315   8.502   2.569  12.966
 5806SOL    HW219316   8.465   2.607  13.108
 5807SOL     OW19317   3.994   1.505   2.472
 5807SOL    HW119318   4.020   1.413   2.486
 5807SOL    HW219319   4.008   1.520   2.379
 5808SOL     OW19320   1.717   6.341   6.808
 5808SOL    HW119321   1.784   6.367   6.871
 5808SOL    HW219322   1.663   6.420   6.796
 5809SOL     OW19323   4.199  14.167   0.059
 5809SOL    HW119324   4.272  14.111   0.086
 5809SOL    HW219325   4.190  14.151  14.837
 5810SOL     OW19326   0.955   9.219  14.684
 5810SOL    HW119327   0.929   9.280  14.752
 5810SOL    HW219328   0.933   9.133  14.720
 5811SOL     OW19329   4.284   2.428  12.728
 5811SOL    HW119330   4.375   2.458  12.736
 5811SOL    HW219331   4.241   2.494  12.675
 5812SOL     OW19332   0.485  14.770  10.256
 5812SOL    HW119333   0.498  14.841  10.319
 5812SOL    HW219334   0.413  14.718  10.293
 5813SOL     OW19335   1.876   1.341   7.291
 5813SOL    HW119336   1.915   1.255   7.272
 5813SOL    HW219337   1.898   1.358   7.382
 5814SOL     OW19338   2.232  11.513   3.359
 5814SOL    HW119339   2.146  11.553   3.367
 5814SOL    HW219340   2.214  11.419   3.350
 5815SOL     OW19341  10.979   2.804   5.043
 5815SOL    HW119342  10.898   2.768   5.078
 5815SOL    HW219343  10.979   2.895   5.072
 5816SOL     OW19344   3.863  12.796  14.330
 5816SOL    HW119345   3.841  12.887  14.308
 5816SOL    HW219346   3.953  12.785  14.300
 5817SOL     OW19347  12.076   8.436   7.073
 5817SOL    HW119348  12.040   8.357   7.111
 5817SOL    HW219349  12.009   8.465   7.010
 5818SOL     OW19350  11.030   7.755   9.743
 5818SOL    HW119351  11.088   7.764   9.818
 5818SOL    HW219352  11.075   7.695   9.684
 5819SOL     OW19353   0.888   1.110   5.928
 5819SOL    HW119354   0.819   1.117   5.995
 5819SOL    HW219355   0.964   1.080   5.976
 5820SOL     OW19356  14.254   6.302  12.690
 5820SOL    HW119357  14.234   6.218  12.732
 5820SOL    HW219358  14.349   6.309  12.694
 5821SOL     OW19359   1.878   1.639  14.453
 5821SOL    HW119360   1.864   1.547  14.430
 5821SOL    HW219361   1.931   1.636  14.533
 5822SOL     OW19362  11.533  11.598  11.177
 5822SOL    HW119363  11.601  11.531  11.186
 5822SOL    HW219364  11.520  11.632  11.266
 5823SOL     OW19365   1.975   2.498   6.630
 5823SOL    HW119366   2.001   2.561   6.564
 5823SOL    HW219367   2.050   2.492   6.689
 5824SOL     OW19368  10.973   5.485   0.812
 5824SOL    HW119369  10.963   5.391   0.801
 5824SOL    HW219370  11.068   5.500   0.809
 5825SOL     OW19371  12.188   4.949  13.687
 5825SOL    HW119372  12.275   4.926  13.655
 5825SOL    HW219373  12.128   4.910  13.623
 5826SOL     OW19374   8.480  14.110   5.491
 5826SOL    HW119375   8.487  14.197   5.529
 5826SOL    HW219376   8.405  14.070   5.535
 5827SOL     OW19377   3.271  11.784  10.386
 5827SOL    HW119378   3.180  11.789  10.416
 5827SOL    HW219379   3.320  11.832  10.452
 5828SOL     OW19380  12.373   1.648  13.055
 5828SOL    HW119381  12.283   1.681  13.058
 5828SOL    HW219382  12.370   1.566  13.104
 5829SOL     OW19383   6.863   4.473   6.411
 5829SOL    HW119384   6.776   4.513   6.421
 5829SOL    HW219385   6.923   4.536   6.450
 5830SOL     OW19386   4.878   7.813  12.279
 5830SOL    HW119387   4.971   7.793  12.266
 5830SOL    HW219388   4.864   7.894  12.231
 5831SOL     OW19389   5.536   3.755   2.559
 5831SOL    HW119390   5.484   3.825   2.519
 5831SOL    HW219391   5.617   3.754   2.508
 5832SOL     OW19392   5.508   3.021   6.161
 5832SOL    HW119393   5.517   3.068   6.078
 5832SOL    HW219394   5.418   2.988   6.160
 5833SOL     OW19395   8.216   5.546   8.744
 5833SOL    HW119396   8.292   5.604   8.749
 5833SOL    HW219397   8.250   5.463   8.710
 5834SOL     OW19398   5.983   9.591   5.163
 5834SOL    HW119399   6.047   9.541   5.214
 5834SOL    HW219400   5.950   9.656   5.224
 5835SOL     OW19401   1.134  12.999   0.480
 5835SOL    HW119402   1.070  13.053   0.433
 5835SOL    HW219403   1.202  12.981   0.415
 5836SOL     OW19404  13.627   6.874   7.176
 5836SOL    HW119405  13.614   6.842   7.266
 5836SOL    HW219406  13.545   6.919   7.155
 5837SOL     OW19407  13.791   0.911   7.472
 5837SOL    HW119408  13.762   0.838   7.527
 5837SOL    HW219409  13.881   0.929   7.501
 5838SOL     OW19410   8.235  10.801   5.487
 5838SOL    HW119411   8.283  10.739   5.541
 5838SOL    HW219412   8.256  10.887   5.524
 5839SOL     OW19413   1.531   6.008   9.921
 5839SOL    HW119414   1.486   5.953   9.857
 5839SOL    HW219415   1.528   6.096   9.883
 5840SOL     OW19416   3.894   2.016   4.029
 5840SOL    HW119417   3.944   2.088   4.066
 5840SOL    HW219418   3.925   2.008   3.939
 5841SOL     OW19419   8.874   1.352  14.181
 5841SOL    HW119420   8.967   1.349  14.161
 5841SOL    HW219421   8.870   1.354  14.276
 5842SOL     OW19422   3.191  12.786  13.590
 5842SOL    HW119423   3.240  12.751  13.665
 5842SOL    HW219424   3.145  12.862  13.626
 5843SOL     OW19425  11.822   0.533  10.451
 5843SOL    HW119426  11.781   0.582  10.522
 5843SOL    HW219427  11.915   0.552  10.460
 5844SOL     OW19428  10.409   5.277   1.042
 5844SOL    HW119429  10.325   5.322   1.034
 5844SOL    HW219430  10.460   5.331   1.102
 5845SOL     OW19431  14.606  11.790   0.021
 5845SOL    HW119432  14.670  11.817  14.827
 5845SOL    HW219433  14.548  11.865   0.030
 5846SOL     OW19434  12.737   5.512  13.232
 5846SOL    HW119435  12.686   5.496  13.311
 5846SOL    HW219436  12.821   5.546  13.264
 5847SOL     OW19437  10.892   2.517  14.850
 5847SOL    HW119438  10.869   2.479  14.765
 5847SOL    HW219439  10.964   2.463   0.010
 5848SOL     OW19440   8.102   2.849   8.496
 5848SOL    HW119441   8.173   2.897   8.538
 5848SOL    HW219442   8.032   2.848   8.561
 5849SOL     OW19443  11.421  14.451   0.920
 5849SOL    HW119444  11.328  14.431   0.912
 5849SOL    HW219445  11.432  14.532   0.870
 5850SOL     OW19446   5.941  13.230   1.606
 5850SOL    HW119447   5.951  13.206   1.514
 5850SOL    HW219448   6.016  13.189   1.650
 5851SOL     OW19449   3.004   0.641  13.799
 5851SOL    HW119450   2.988   0.546  13.795
 5851SOL    HW219451   2.977   0.673  13.713
 5852SOL     OW19452   0.943   5.979   7.661
 5852SOL    HW119453   0.993   6.004   7.739
 5852SOL    HW219454   0.904   5.895   7.684
 5853SOL     OW19455   0.906  12.152  11.342
 5853SOL    HW119456   0.811  12.156  11.327
 5853SOL    HW219457   0.931  12.242  11.359
 5854SOL     OW19458   8.308  11.683  13.099
 5854SOL    HW119459   8.287  11.618  13.166
 5854SOL    HW219460   8.309  11.633  13.018
 5855SOL     OW19461   8.996  14.736   4.572
 5855SOL    HW119462   9.031  14.654   4.537
 5855SOL    HW219463   8.956  14.711   4.655
 5856SOL     OW19464   8.910   0.400   4.819
 5856SOL    HW119465   8.947   0.313   4.803
 5856SOL    HW219466   8.983   0.452   4.852
 5857SOL     OW19467   2.434   3.984   8.474
 5857SOL    HW119468   2.393   3.957   8.556
 5857SOL    HW219469   2.497   3.915   8.454
 5858SOL     OW19470  14.029   0.687  13.576
 5858SOL    HW119471  13.989   0.601  13.563
 5858SOL    HW219472  13.960   0.750  13.555
 5859SOL     OW19473  12.752   8.794   5.816
 5859SOL    HW119474  12.759   8.744   5.734
 5859SOL    HW219475  12.706   8.874   5.790
 5860SOL     OW19476  12.948   7.691   9.043
 5860SOL    HW119477  12.981   7.749   9.112
 5860SOL    HW219478  12.903   7.749   8.982
 5861SOL     OW19479  11.894   9.939  10.862
 5861SOL    HW119480  11.977   9.957  10.818
 5861SOL    HW219481  11.917   9.882  10.935
 5862SOL     OW19482   9.818   1.230   6.202
 5862SOL    HW119483   9.857   1.292   6.263
 5862SOL    HW219484   9.770   1.284   6.140
 5863SOL     OW19485   3.710  11.905  10.779
 5863SOL    HW119486   3.772  11.955  10.832
 5863SOL    HW219487   3.683  11.833  10.836
 5864SOL     OW19488  13.290   5.919  11.632
 5864SOL    HW119489  13.357   5.978  11.669
 5864SOL    HW219490  13.232   5.901  11.706
 5865SOL     OW19491  11.653  13.914  11.115
 5865SOL    HW119492  11.558  13.913  11.115
 5865SOL    HW219493  11.677  14.007  11.118
 5866SOL     OW19494   4.827  10.723  11.623
 5866SOL    HW119495   4.833  10.749  11.715
 5866SOL    HW219496   4.744  10.676  11.617
 5867SOL     OW19497   2.331   0.315   0.188
 5867SOL    HW119498   2.367   0.254   0.253
 5867SOL    HW219499   2.343   0.270   0.104
 5868SOL     OW19500   1.423   2.429   8.721
 5868SOL    HW119501   1.493   2.365   8.709
 5868SOL    HW219502   1.365   2.415   8.646
 5869SOL     OW19503   9.898   5.037  12.102
 5869SOL    HW119504   9.919   5.130  12.113
 5869SOL    HW219505   9.899   5.024  12.007
 5870SOL     OW19506  12.980   7.735   1.462
 5870SOL    HW119507  12.912   7.796   1.490
 5870SOL    HW219508  12.932   7.664   1.419
 5871SOL     OW19509   8.702   2.192   7.413
 5871SOL    HW119510   8.650   2.112   7.404
 5871SOL    HW219511   8.641   2.262   7.392
 5872SOL     OW19512  14.643  11.315  12.474
 5872SOL    HW119513  14.643  11.313  12.378
 5872SOL    HW219514  14.558  11.280  12.498
 5873SOL     OW19515  10.363  13.432   6.706
 5873SOL    HW119516  10.352  13.417   6.612
 5873SOL    HW219517  10.442  13.486   6.713
 5874SOL     OW19518  14.046   9.222   4.282
 5874SOL    HW119519  14.024   9.161   4.353
 5874SOL    HW219520  14.125   9.265   4.313
 5875SOL     OW19521   0.386   7.342  13.356
 5875SOL    HW119522   0.473   7.308  13.378
 5875SOL    HW219523   0.326   7.280  13.397
 5876SOL     OW19524  13.410   3.881  14.469
 5876SOL    HW119525  13.429   3.858  14.560
 5876SOL    HW219526  13.404   3.977  14.468
 5877SOL     OW19527   1.356   3.929   7.631
 5877SOL    HW119528   1.429   3.870   7.650
 5877SOL    HW219529   1.364   3.998   7.696
 5878SOL     OW19530   5.397  11.173  10.141
 5878SOL    HW119531   5.406  11.244  10.205
 5878SOL    HW219532   5.322  11.123  10.172
 5879SOL     OW19533  11.725   8.914   5.697
 5879SOL    HW119534  11.809   8.876   5.723
 5879SOL    HW219535  11.680   8.931   5.780
 5880SOL     OW19536  14.382   6.918   3.163
 5880SOL    HW119537  14.445   6.971   3.114
 5880SOL    HW219538  14.434   6.874   3.230
 5881SOL     OW19539  14.541  14.149   1.466
 5881SOL    HW119540  14.561  14.229   1.513
 5881SOL    HW219541  14.627  14.113   1.443
 5882SOL     OW19542  13.171  12.791   6.109
 5882SOL    HW119543  13.149  12.729   6.179
 5882SOL    HW219544  13.247  12.839   6.143
 5883SOL     OW19545  10.821   7.637  12.795
 5883SOL    HW119546  10.763   7.712  12.797
 5883SOL    HW219547  10.903   7.670  12.759
 5884SOL     OW19548  13.228   3.603  13.550
 5884SOL    HW119549  13.292   3.658  13.504
 5884SOL    HW219550  13.264   3.593  13.638
 5885SOL     OW19551  12.347   1.564   4.976
 5885SOL    HW119552  12.433   1.523   4.968
 5885SOL    HW219553  12.362   1.656   4.952
 5886SOL     OW19554  12.192  13.091   1.461
 5886SOL    HW119555  12.283  13.111   1.441
 5886SOL    HW219556  12.152  13.074   1.375
 5887SOL     OW19557   0.989   9.344   9.688
 5887SOL    HW119558   1.026   9.257   9.709
 5887SOL    HW219559   1.002   9.353   9.594
 5888SOL     OW19560  14.805  13.447  14.462
 5888SOL    HW119561  14.833  13.530  14.424
 5888SOL    HW219562  14.819  13.457  14.556
 5889SOL     OW19563   3.227   6.462  10.019
 5889SOL    HW119564   3.317   6.497  10.026
 5889SOL    HW219565   3.173   6.527  10.064
 5890SOL     OW19566   5.478   6.655   7.339
 5890SOL    HW119567   5.443   6.595   7.273
 5890SOL    HW219568   5.559   6.688   7.301
 5891SOL     OW19569   2.800  10.646   8.712
 5891SOL    HW119570   2.843  10.722   8.751
 5891SOL    HW219571   2.868  10.604   8.660
 5892SOL     OW19572  11.408   5.216  12.208
 5892SOL    HW119573  11.392   5.127  12.239
 5892SOL    HW219574  11.334   5.267  12.243
 5893SOL     OW19575  14.664   1.806   9.729
 5893SOL    HW119576  14.630   1.869   9.665
 5893SOL    HW219577  14.611   1.727   9.714
 5894SOL     OW19578   3.511   9.015   3.885
 5894SOL    HW119579   3.462   9.075   3.829
 5894SOL    HW219580   3.529   9.065   3.964
 5895SOL     OW19581   2.410  14.762  14.306
 5895SOL    HW119582   2.503  14.751  14.324
 5895SOL    HW219583   2.375  14.673  14.302
 5896SOL     OW19584   8.408   0.109   8.880
 5896SOL    HW119585   8.314   0.106   8.897
 5896SOL    HW219586   8.431   0.201   8.886
 5897SOL     OW19587   3.998  13.495   6.857
 5897SOL    HW119588   4.030  13.534   6.776
 5897SOL    HW219589   3.995  13.401   6.840
 5898SOL     OW19590  12.305   9.205   4.852
 5898SOL    HW119591  12.234   9.246   4.901
 5898SOL    HW219592  12.344   9.277   4.802
 5899SOL     OW19593  14.180   1.452   4.262
 5899SOL    HW119594  14.091   1.487   4.267
 5899SOL    HW219595  14.203   1.431   4.352
 5900SOL     OW19596  10.368   5.611   9.346
 5900SOL    HW119597  10.411   5.531   9.317
 5900SOL    HW219598  10.398   5.678   9.285
 5901SOL     OW19599  12.734   0.098  11.759
 5901SOL    HW119600  12.697   0.106  11.672
 5901SOL    HW219601  12.827   0.078  11.744
 5902SOL     OW19602  13.562   2.997  10.083
 5902SOL    HW119603  13.577   2.903  10.093
 5902SOL    HW219604  13.495   3.004  10.016
 5903SOL     OW19605   1.567   4.890   6.005
 5903SOL    HW119606   1.545   4.976   5.969
 5903SOL    HW219607   1.494   4.868   6.063
 5904SOL     OW19608   8.285   8.898   1.687
 5904SOL    HW119609   8.351   8.967   1.690
 5904SOL    HW219610   8.273   8.873   1.779
 5905SOL     OW19611   1.564   6.771  10.623
 5905SOL    HW119612   1.549   6.683  10.657
 5905SOL    HW219613   1.659   6.782  10.626
 5906SOL     OW19614   1.128  13.911  10.771
 5906SOL    HW119615   1.193  13.969  10.732
 5906SOL    HW219616   1.048  13.926  10.720
 5907SOL     OW19617   5.262  12.660   5.911
 5907SOL    HW119618   5.311  12.710   5.977
 5907SOL    HW219619   5.199  12.608   5.962
 5908SOL     OW19620  14.779  12.078  13.877
 5908SOL    HW119621  14.734  12.049  13.798
 5908SOL    HW219622  14.840  12.145  13.846
 5909SOL     OW19623   5.071   0.394   6.508
 5909SOL    HW119624   5.078   0.483   6.541
 5909SOL    HW219625   5.013   0.401   6.432
 5910SOL     OW19626   6.259   2.346   7.261
 5910SOL    HW119627   6.203   2.422   7.272
 5910SOL    HW219628   6.255   2.326   7.167
 5911SOL     OW19629   7.359  13.480  10.322
 5911SOL    HW119630   7.377  13.574  10.331
 5911SOL    HW219631   7.432  13.447  10.269
 5912SOL     OW19632   1.522  13.694   4.184
 5912SOL    HW119633   1.450  13.650   4.229
 5912SOL    HW219634   1.601  13.655   4.223
 5913SOL     OW19635   5.542  10.281   9.249
 5913SOL    HW119636   5.528  10.332   9.328
 5913SOL    HW219637   5.580  10.199   9.279
 5914SOL     OW19638   9.617  10.906   8.971
 5914SOL    HW119639   9.629  10.826   8.920
 5914SOL    HW219640   9.569  10.878   9.049
 5915SOL     OW19641   6.441  14.530  11.286
 5915SOL    HW119642   6.467  14.596  11.350
 5915SOL    HW219643   6.378  14.575  11.229
 5916SOL     OW19644   2.591  12.538   9.039
 5916SOL    HW119645   2.562  12.451   9.011
 5916SOL    HW219646   2.685  12.529   9.052
 5917SOL     OW19647   8.321  10.585   1.915
 5917SOL    HW119648   8.336  10.582   2.009
 5917SOL    HW219649   8.407  10.607   1.878
 5918SOL     OW19650  12.097   0.318  12.627
 5918SOL    HW119651  12.011   0.299  12.588
 5918SOL    HW219652  12.138   0.233  12.638
 5919SOL     OW19653  13.605   3.925  10.019
 5919SOL    HW119654  13.667   3.997  10.011
 5919SOL    HW219655  13.557   3.926   9.936
 5920SOL     OW19656  10.878   1.508   0.150
 5920SOL    HW119657  10.869   1.585   0.206
 5920SOL    HW219658  10.814   1.521   0.080
 5921SOL     OW19659  10.370  14.742  13.925
 5921SOL    HW119660  10.353  14.743  13.831
 5921SOL    HW219661  10.455  14.698  13.933
 5922SOL     OW19662   1.865   9.001   3.721
 5922SOL    HW119663   1.840   8.993   3.629
 5922SOL    HW219664   1.791   8.965   3.769
 5923SOL     OW19665   2.224   4.606   8.189
 5923SOL    HW119666   2.201   4.550   8.115
 5923SOL    HW219667   2.188   4.692   8.166
 5924SOL     OW19668   8.478   5.341   8.881
 5924SOL    HW119669   8.427   5.259   8.876
 5924SOL    HW219670   8.505   5.357   8.790
 5925SOL     OW19671   8.752  11.715   6.684
 5925SOL    HW119672   8.707  11.664   6.616
 5925SOL    HW219673   8.714  11.684   6.766
 5926SOL     OW19674   9.051   1.155   3.473
 5926SOL    HW119675   8.976   1.197   3.433
 5926SOL    HW219676   9.016   1.111   3.550
 5927SOL     OW19677   4.460  12.997  13.500
 5927SOL    HW119678   4.451  13.021  13.408
 5927SOL    HW219679   4.400  12.924  13.512
 5928SOL     OW19680   2.984   8.999  13.819
 5928SOL    HW119681   2.926   8.933  13.856
 5928SOL    HW219682   2.964   8.999  13.725
 5929SOL     OW19683   2.948   2.298   2.721
 5929SOL    HW119684   2.942   2.358   2.796
 5929SOL    HW219685   2.861   2.260   2.713
 5930SOL     OW19686  14.112   5.228   2.960
 5930SOL    HW119687  14.040   5.218   3.023
 5930SOL    HW219688  14.143   5.318   2.973
 5931SOL     OW19689  11.850   1.560  14.619
 5931SOL    HW119690  11.882   1.471  14.635
 5931SOL    HW219691  11.928   1.608  14.591
 5932SOL     OW19692   8.699  11.520  10.307
 5932SOL    HW119693   8.741  11.450  10.356
 5932SOL    HW219694   8.648  11.476  10.239
 5933SOL     OW19695  14.794   3.407  10.510
 5933SOL    HW119696  14.719   3.357  10.543
 5933SOL    HW219697  14.842   3.346  10.455
 5934SOL     OW19698   1.441  12.478  12.437
 5934SOL    HW119699   1.450  12.515  12.525
 5934SOL    HW219700   1.412  12.551  12.383
 5935SOL     OW19701   8.192   7.524   1.420
 5935SOL    HW119702   8.261   7.591   1.416
 5935SOL    HW219703   8.238   7.441   1.404
 5936SOL     OW19704   5.997   2.599  13.222
 5936SOL    HW119705   5.938   2.627  13.152
 5936SOL    HW219706   5.950   2.617  13.303
 5937SOL     OW19707  11.984   9.267   0.243
 5937SOL    HW119708  11.986   9.172   0.253
 5937SOL    HW219709  11.897   9.293   0.274
 5938SOL     OW19710  11.990  12.301   9.273
 5938SOL    HW119711  12.085  12.292   9.263
 5938SOL    HW219712  11.977  12.393   9.298
 5939SOL     OW19713  10.446   9.268   1.238
 5939SOL    HW119714  10.464   9.269   1.144
 5939SOL    HW219715  10.355   9.241   1.245
 5940SOL     OW19716   5.084   9.909  14.479
 5940SOL    HW119717   5.013   9.953  14.431
 5940SOL    HW219718   5.040   9.868  14.553
 5941SOL     OW19719  13.002  14.843   9.521
 5941SOL    HW119720  13.038  14.755   9.508
 5941SOL    HW219721  13.020  14.863   9.613
 5942SOL     OW19722  13.008   5.056   0.575
 5942SOL    HW119723  12.921   5.086   0.602
 5942SOL    HW219724  13.018   5.090   0.486
 5943SOL     OW19725   2.653   1.472  11.807
 5943SOL    HW119726   2.711   1.491  11.733
 5943SOL    HW219727   2.703   1.495  11.884
 5944SOL     OW19728   9.233  10.736  10.692
 5944SOL    HW119729   9.301  10.788  10.649
 5944SOL    HW219730   9.241  10.649  10.653
 5945SOL     OW19731   8.014   6.121   6.539
 5945SOL    HW119732   7.982   6.080   6.619
 5945SOL    HW219733   7.987   6.061   6.469
 5946SOL     OW19734   0.491  11.156  12.807
 5946SOL    HW119735   0.477  11.062  12.803
 5946SOL    HW219736   0.562  11.167  12.870
 5947SOL     OW19737   6.092   1.209   9.287
 5947SOL    HW119738   6.118   1.299   9.267
 5947SOL    HW219739   6.175   1.162   9.301
 5948SOL     OW19740   4.645   1.943   7.650
 5948SOL    HW119741   4.635   2.018   7.591
 5948SOL    HW219742   4.717   1.892   7.611
 5949SOL     OW19743   2.909   5.900   2.034
 5949SOL    HW119744   2.972   5.925   2.101
 5949SOL    HW219745   2.828   5.882   2.083
 5950SOL     OW19746  10.627  11.224   2.512
 5950SOL    HW119747  10.636  11.211   2.418
 5950SOL    HW219748  10.543  11.268   2.522
 5951SOL     OW19749  10.285  11.587   5.631
 5951SOL    HW119750  10.321  11.508   5.590
 5951SOL    HW219751  10.214  11.555   5.687
 5952SOL     OW19752   1.109   2.479  13.884
 5952SOL    HW119753   1.028   2.467  13.934
 5952SOL    HW219754   1.087   2.448  13.796
 5953SOL     OW19755  11.900   3.983   6.454
 5953SOL    HW119756  11.808   3.956   6.449
 5953SOL    HW219757  11.921   4.011   6.365
 5954SOL     OW19758  10.806   7.114   4.948
 5954SOL    HW119759  10.814   7.053   5.021
 5954SOL    HW219760  10.873   7.180   4.964
 5955SOL     OW19761   8.403  11.035  12.610
 5955SOL    HW119762   8.355  10.976  12.551
 5955SOL    HW219763   8.444  10.977  12.674
 5956SOL     OW19764   3.586   7.339   3.267
 5956SOL    HW119765   3.575   7.376   3.180
 5956SOL    HW219766   3.662   7.383   3.303
 5957SOL     OW19767   1.343  11.412   5.579
 5957SOL    HW119768   1.325  11.500   5.545
 5957SOL    HW219769   1.435  11.414   5.603
 5958SOL     OW19770   0.051   6.978   5.636
 5958SOL    HW119771   0.055   6.937   5.723
 5958SOL    HW219772   0.064   7.071   5.652
 5959SOL     OW19773   7.806   4.136   0.966
 5959SOL    HW119774   7.870   4.206   0.982
 5959SOL    HW219775   7.730   4.181   0.928
 5960SOL     OW19776   5.622  10.592   4.173
 5960SOL    HW119777   5.592  10.674   4.212
 5960SOL    HW219778   5.716  10.591   4.188
 5961SOL     OW19779  13.091  11.153   3.698
 5961SOL    HW119780  13.120  11.081   3.642
 5961SOL    HW219781  13.045  11.212   3.640
 5962SOL     OW19782   3.124  10.001  12.067
 5962SOL    HW119783   3.030   9.997  12.082
 5962SOL    HW219784   3.138   9.949  11.988
 5963SOL     OW19785   0.366   3.867   0.324
 5963SOL    HW119786   0.314   3.853   0.245
 5963SOL    HW219787   0.406   3.954   0.312
 5964SOL     OW19788  13.354  10.786  11.575
 5964SOL    HW119789  13.407  10.829  11.643
 5964SOL    HW219790  13.284  10.848  11.556
 5965SOL     OW19791   2.198   7.585   9.005
 5965SOL    HW119792   2.222   7.676   9.022
 5965SOL    HW219793   2.215   7.573   8.912
 5966SOL     OW19794   2.988   8.470  11.908
 5966SOL    HW119795   3.047   8.545  11.916
 5966SOL    HW219796   2.980   8.454  11.814
 5967SOL     OW19797   4.492   9.077   1.873
 5967SOL    HW119798   4.560   9.144   1.866
 5967SOL    HW219799   4.539   8.995   1.886
 5968SOL     OW19800  11.158   3.955  13.475
 5968SOL    HW119801  11.122   4.016  13.411
 5968SOL    HW219802  11.240   3.924  13.436
 5969SOL     OW19803   8.800   1.083   9.310
 5969SOL    HW119804   8.824   1.063   9.220
 5969SOL    HW219805   8.882   1.075   9.359
 5970SOL     OW19806  12.749  14.350   9.754
 5970SOL    HW119807  12.836  14.320   9.780
 5970SOL    HW219808  12.715  14.281   9.698
 5971SOL     OW19809  13.512   4.802   3.705
 5971SOL    HW119810  13.568   4.741   3.657
 5971SOL    HW219811  13.434   4.810   3.650
 5972SOL     OW19812   2.952   3.331   5.800
 5972SOL    HW119813   2.963   3.300   5.710
 5972SOL    HW219814   2.976   3.424   5.796
 5973SOL     OW19815   6.602  10.518   1.361
 5973SOL    HW119816   6.569  10.563   1.284
 5973SOL    HW219817   6.569  10.570   1.435
 5974SOL     OW19818   4.387   8.372  14.461
 5974SOL    HW119819   4.292   8.377  14.452
 5974SOL    HW219820   4.421   8.448  14.414
 5975SOL     OW19821   4.065  12.061  14.684
 5975SOL    HW119822   4.031  12.143  14.720
 5975SOL    HW219823   3.997  12.032  14.624
 5976SOL     OW19824   5.884   3.078   9.513
 5976SOL    HW119825   5.901   3.090   9.606
 5976SOL    HW219826   5.791   3.059   9.508
 5977SOL     OW19827   1.824  14.408   3.579
 5977SOL    HW119828   1.759  14.349   3.616
 5977SOL    HW219829   1.787  14.496   3.592
 5978SOL     OW19830  13.915  11.339   4.767
 5978SOL    HW119831  13.924  11.302   4.854
 5978SOL    HW219832  13.869  11.422   4.780
 5979SOL     OW19833   7.760  12.261   9.620
 5979SOL    HW119834   7.769  12.240   9.527
 5979SOL    HW219835   7.784  12.353   9.627
 5980SOL     OW19836   6.374   5.822   3.427
 5980SOL    HW119837   6.329   5.832   3.510
 5980SOL    HW219838   6.314   5.772   3.372
 5981SOL     OW19839  10.064   2.225   4.461
 5981SOL    HW119840   9.978   2.195   4.430
 5981SOL    HW219841  10.113   2.145   4.478
 5982SOL     OW19842  12.607  12.213   5.407
 5982SOL    HW119843  12.656  12.133   5.427
 5982SOL    HW219844  12.621  12.270   5.482
 5983SOL     OW19845   5.743   0.537   1.411
 5983SOL    HW119846   5.800   0.594   1.463
 5983SOL    HW219847   5.761   0.562   1.320
 5984SOL     OW19848   5.600   8.117   3.273
 5984SOL    HW119849   5.507   8.127   3.292
 5984SOL    HW219850   5.644   8.154   3.350
 5985SOL     OW19851   8.142   9.403   2.438
 5985SOL    HW119852   8.082   9.477   2.448
 5985SOL    HW219853   8.211   9.435   2.379
 5986SOL     OW19854   2.249  12.516   8.468
 5986SOL    HW119855   2.308  12.573   8.419
 5986SOL    HW219856   2.180  12.574   8.500
 5987SOL     OW19857   3.694   4.797   7.866
 5987SOL    HW119858   3.682   4.754   7.781
 5987SOL    HW219859   3.612   4.780   7.913
 5988SOL     OW19860   6.300   7.023  12.709
 5988SOL    HW119861   6.279   6.934  12.679
 5988SOL    HW219862   6.392   7.035  12.686
 5989SOL     OW19863   4.865   3.821   5.801
 5989SOL    HW119864   4.948   3.812   5.755
 5989SOL    HW219865   4.801   3.841   5.733
 5990SOL     OW19866   4.547   7.256  13.859
 5990SOL    HW119867   4.613   7.288  13.922
 5990SOL    HW219868   4.570   7.300  13.777
 5991SOL     OW19869   1.085   4.089  11.844
 5991SOL    HW119870   1.048   4.086  11.932
 5991SOL    HW219871   1.018   4.049  11.788
 5992SOL     OW19872   7.138   8.848  14.472
 5992SOL    HW119873   7.143   8.801  14.555
 5992SOL    HW219874   7.217   8.821  14.425
 5993SOL     OW19875   6.837  11.551  11.444
 5993SOL    HW119876   6.859  11.458  11.441
 5993SOL    HW219877   6.823  11.575  11.352
 5994SOL     OW19878  11.992  12.068   3.607
 5994SOL    HW119879  11.911  12.035   3.569
 5994SOL    HW219880  12.013  12.006   3.676
 5995SOL     OW19881   8.660   6.048   1.294
 5995SOL    HW119882   8.579   6.069   1.247
 5995SOL    HW219883   8.634   6.043   1.386
 5996SOL     OW19884   3.690   8.766   3.103
 5996SOL    HW119885   3.601   8.801   3.104
 5996SOL    HW219886   3.711   8.749   3.195
 5997SOL     OW19887   8.546   0.079   0.873
 5997SOL    HW119888   8.553  14.865   0.831
 5997SOL    HW219889   8.635   0.099   0.903
 5998SOL     OW19890  10.387  11.707  12.650
 5998SOL    HW119891  10.310  11.764  12.659
 5998SOL    HW219892  10.428  11.708  12.736
 5999SOL     OW19893   5.782  12.373   4.414
 5999SOL    HW119894   5.759  12.427   4.339
 5999SOL    HW219895   5.848  12.425   4.461
 6000SOL     OW19896   2.320  10.049  11.474
 6000SOL    HW119897   2.382  10.047  11.547
 6000SOL    HW219898   2.367  10.006  11.402
 6001SOL     OW19899   9.526   5.007   1.680
 6001SOL    HW119900   9.514   4.976   1.590
 6001SOL    HW219901   9.438   5.025   1.711
 6002SOL     OW19902   0.240   5.447   0.592
 6002SOL    HW119903   0.253   5.405   0.507
 6002SOL    HW219904   0.277   5.534   0.582
 6003SOL     OW19905  14.865  13.989  13.368
 6003SOL    HW119906   0.071  13.963  13.417
 6003SOL    HW219907   0.021  14.067  13.319
 6004SOL     OW19908   5.269   9.616   7.797
 6004SOL    HW119909   5.237   9.698   7.834
 6004SOL    HW219910   5.239   9.618   7.706
 6005SOL     OW19911  14.692   0.933  14.296
 6005SOL    HW119912  14.631   0.862  14.277
 6005SOL    HW219913  14.745   0.899  14.369
 6006SOL     OW19914   2.707   7.485   4.079
 6006SOL    HW119915   2.638   7.526   4.132
 6006SOL    HW219916   2.788   7.523   4.111
 6007SOL     OW19917   0.631   6.011  14.790
 6007SOL    HW119918   0.659   5.920  14.797
 6007SOL    HW219919   0.565   6.021  14.858
 6008SOL     OW19920   7.810  12.872   9.186
 6008SOL    HW119921   7.839  12.963   9.187
 6008SOL    HW219922   7.859  12.831   9.257
 6009SOL     OW19923  12.756  13.521  12.291
 6009SOL    HW119924  12.688  13.504  12.226
 6009SOL    HW219925  12.735  13.463  12.364
 6010SOL     OW19926   3.393   9.772  13.904
 6010SOL    HW119927   3.362   9.682  13.916
 6010SOL    HW219928   3.467   9.764  13.844
 6011SOL     OW19929   0.856   5.396   3.078
 6011SOL    HW119930   0.800   5.437   3.012
 6011SOL    HW219931   0.818   5.310   3.091
 6012SOL     OW19932  11.611   6.097   8.070
 6012SOL    HW119933  11.657   6.180   8.083
 6012SOL    HW219934  11.681   6.033   8.052
 6013SOL     OW19935  10.240   7.807   8.479
 6013SOL    HW119936  10.244   7.877   8.414
 6013SOL    HW219937  10.218   7.728   8.428
 6014SOL     OW19938   3.223   9.557  14.600
 6014SOL    HW119939   3.304   9.591  14.564
 6014SOL    HW219940   3.231   9.462  14.592
 6015SOL     OW19941   8.427  14.542   6.053
 6015SOL    HW119942   8.467  14.623   6.022
 6015SOL    HW219943   8.441  14.543   6.148
 6016SOL     OW19944   9.039   2.505   6.582
 6016SOL    HW119945   9.048   2.443   6.509
 6016SOL    HW219946   9.123   2.501   6.627
 6017SOL     OW19947   0.462   9.785   5.111
 6017SOL    HW119948   0.422   9.776   5.025
 6017SOL    HW219949   0.554   9.764   5.097
 6018SOL     OW19950   0.434  11.608  11.468
 6018SOL    HW119951   0.522  11.645  11.457
 6018SOL    HW219952   0.449  11.516  11.488
 6019SOL     OW19953   2.824   8.123   1.008
 6019SOL    HW119954   2.793   8.085   1.090
 6019SOL    HW219955   2.821   8.218   1.024
 6020SOL     OW19956   1.926  14.478   1.440
 6020SOL    HW119957   1.884  14.543   1.382
 6020SOL    HW219958   1.958  14.529   1.514
 6021SOL     OW19959   7.059   2.170  14.458
 6021SOL    HW119960   7.070   2.111  14.383
 6021SOL    HW219961   7.145   2.171  14.501
 6022SOL     OW19962   8.290   2.100   3.001
 6022SOL    HW119963   8.221   2.148   2.955
 6022SOL    HW219964   8.362   2.095   2.939
 6023SOL     OW19965  10.927   4.015   3.132
 6023SOL    HW119966  11.004   4.072   3.135
 6023SOL    HW219967  10.950   3.946   3.070
 6024SOL     OW19968   6.029   2.790   7.379
 6024SOL    HW119969   5.950   2.793   7.326
 6024SOL    HW219970   6.010   2.727   7.448
 6025SOL     OW19971   1.088   2.271   7.941
 6025SOL    HW119972   1.177   2.291   7.910
 6025SOL    HW219973   1.095   2.182   7.976
 6026SOL     OW19974  11.878  14.584   4.829
 6026SOL    HW119975  11.892  14.585   4.924
 6026SOL    HW219976  11.963  14.556   4.793
 6027SOL     OW19977   1.639   7.025   9.838
 6027SOL    HW119978   1.627   7.050   9.929
 6027SOL    HW219979   1.724   6.980   9.836
 6028SOL     OW19980  10.791   6.689   9.945
 6028SOL    HW119981  10.783   6.759   9.880
 6028SOL    HW219982  10.801   6.735  10.028
 6029SOL     OW19983   3.604   0.476   2.953
 6029SOL    HW119984   3.588   0.570   2.953
 6029SOL    HW219985   3.595   0.449   2.862
 6030SOL     OW19986   8.961   8.682   1.238
 6030SOL    HW119987   9.020   8.612   1.211
 6030SOL    HW219988   9.009   8.763   1.219
 6031SOL     OW19989   2.977   0.015   4.088
 6031SOL    HW119990   2.888  14.856   4.072
 6031SOL    HW219991   3.023   0.003   4.005
 6032SOL     OW19992  14.230   7.065   4.826
 6032SOL    HW119993  14.314   7.035   4.861
 6032SOL    HW219994  14.241   7.159   4.813
 6033SOL     OW19995  12.870   6.296   7.375
 6033SOL    HW119996  12.894   6.237   7.304
 6033SOL    HW219997  12.799   6.251   7.420
 6034SOL     OW19998   8.555   0.859  11.712
 6034SOL    HW119999   8.595   0.905  11.787
 6034SOL    HW220000   8.474   0.908  11.695
 6035SOL     OW20001   9.565   7.826   7.747
 6035SOL    HW120002   9.644   7.772   7.740
 6035SOL    HW220003   9.502   7.770   7.791
 6036SOL     OW20004   4.051  13.530   9.203
 6036SOL    HW120005   4.087  13.597   9.261
 6036SOL    HW220006   4.123  13.468   9.192
 6037SOL     OW20007   9.444  11.139   4.515
 6037SOL    HW120008   9.432  11.232   4.533
 6037SOL    HW220009   9.452  11.134   4.420
 6038SOL     OW20010  14.787   7.520   6.050
 6038SOL    HW120011  14.792   7.453   6.118
 6038SOL    HW220012  14.694   7.528   6.031
 6039SOL     OW20013   0.184   3.233  13.597
 6039SOL    HW120014   0.237   3.158  13.570
 6039SOL    HW220015   0.238   3.277  13.664
 6040SOL     OW20016   8.081   0.765   6.931
 6040SOL    HW120017   8.027   0.704   6.881
 6040SOL    HW220018   8.036   0.849   6.925
 6041SOL     OW20019   0.063   7.561   5.578
 6041SOL    HW120020   0.077   7.484   5.522
 6041SOL    HW220021   0.072   7.528   5.667
 6042SOL     OW20022   0.403   8.052  10.577
 6042SOL    HW120023   0.347   7.999  10.633
 6042SOL    HW220024   0.408   8.137  10.621
 6043SOL     OW20025   0.924   5.911  14.134
 6043SOL    HW120026   0.856   5.886  14.072
 6043SOL    HW220027   0.885   5.897  14.220
 6044SOL     OW20028  12.293  12.222   4.345
 6044SOL    HW120029  12.279  12.128   4.337
 6044SOL    HW220030  12.371  12.239   4.292
 6045SOL     OW20031   0.454   9.806   9.611
 6045SOL    HW120032   0.501   9.874   9.562
 6045SOL    HW220033   0.372   9.795   9.565
 6046SOL     OW20034  11.417   5.344  11.963
 6046SOL    HW120035  11.469   5.304  12.032
 6046SOL    HW220036  11.467   5.421  11.937
 6047SOL     OW20037  10.750   8.446   0.796
 6047SOL    HW120038  10.686   8.399   0.742
 6047SOL    HW220039  10.776   8.521   0.742
 6048SOL     OW20040   1.438   9.361  13.742
 6048SOL    HW120041   1.527   9.396  13.746
 6048SOL    HW220042   1.447   9.279  13.692
 6049SOL     OW20043   3.276   3.580  10.920
 6049SOL    HW120044   3.186   3.606  10.940
 6049SOL    HW220045   3.278   3.486  10.935
 6050SOL     OW20046  13.596   1.146   0.994
 6050SOL    HW120047  13.531   1.215   0.984
 6050SOL    HW220048  13.605   1.135   1.089
 6051SOL     OW20049  11.498  13.995  10.851
 6051SOL    HW120050  11.561  13.945  10.799
 6051SOL    HW220051  11.454  13.928  10.904
 6052SOL     OW20052   7.707   5.170   5.225
 6052SOL    HW120053   7.785   5.215   5.257
 6052SOL    HW220054   7.737   5.121   5.149
 6053SOL     OW20055   1.849   4.317   1.987
 6053SOL    HW120056   1.876   4.370   2.062
 6053SOL    HW220057   1.904   4.239   1.991
 6054SOL     OW20058   3.953   5.546   6.574
 6054SOL    HW120059   3.979   5.638   6.569
 6054SOL    HW220060   4.029   5.497   6.542
 6055SOL     OW20061  11.538  11.712   6.214
 6055SOL    HW120062  11.459  11.663   6.193
 6055SOL    HW220063  11.520  11.801   6.186
 6056SOL     OW20064  10.352   5.823   4.275
 6056SOL    HW120065  10.280   5.880   4.249
 6056SOL    HW220066  10.373   5.851   4.364
 6057SOL     OW20067   9.209   4.922   5.640
 6057SOL    HW120068   9.215   5.013   5.611
 6057SOL    HW220069   9.225   4.870   5.561
 6058SOL     OW20070  11.998   1.222  13.366
 6058SOL    HW120071  11.918   1.177  13.390
 6058SOL    HW220072  11.977   1.315  13.376
 6059SOL     OW20073   1.932   8.779   0.683
 6059SOL    HW120074   2.005   8.825   0.642
 6059SOL    HW220075   1.871   8.848   0.707
 6060SOL     OW20076   7.699  12.820  10.318
 6060SOL    HW120077   7.702  12.761  10.394
 6060SOL    HW220078   7.606  12.833  10.300
 6061SOL     OW20079   4.502   1.740   2.767
 6061SOL    HW120080   4.408   1.753   2.753
 6061SOL    HW220081   4.507   1.681   2.842
 6062SOL     OW20082   5.435   6.564   5.280
 6062SOL    HW120083   5.383   6.487   5.256
 6062SOL    HW220084   5.375   6.638   5.273
 6063SOL     OW20085  12.135   5.221   3.158
 6063SOL    HW120086  12.186   5.146   3.125
 6063SOL    HW220087  12.153   5.222   3.252
 6064SOL     OW20088   7.518  14.411  13.952
 6064SOL    HW120089   7.442  14.360  13.978
 6064SOL    HW220090   7.587  14.384  14.013
 6065SOL     OW20091  14.221  13.294  14.867
 6065SOL    HW120092  14.301  13.347  14.869
 6065SOL    HW220093  14.167  13.334  14.799
 6066SOL     OW20094   4.931   4.053   0.932
 6066SOL    HW120095   4.941   4.141   0.895
 6066SOL    HW220096   4.865   4.064   1.001
 6067SOL     OW20097  10.521   3.111   4.422
 6067SOL    HW120098  10.571   3.032   4.405
 6067SOL    HW220099  10.492   3.140   4.335
 6068SOL     OW20100   8.594  13.255   5.837
 6068SOL    HW120101   8.545  13.255   5.919
 6068SOL    HW220102   8.556  13.183   5.786
 6069SOL     OW20103   8.919   9.703  13.494
 6069SOL    HW120104   9.012   9.726  13.502
 6069SOL    HW220105   8.895   9.729  13.405
 6070SOL     OW20106  10.749   9.127   6.290
 6070SOL    HW120107  10.781   9.139   6.200
 6070SOL    HW220108  10.828   9.119   6.343
 6071SOL     OW20109   6.571   3.902  10.393
 6071SOL    HW120110   6.489   3.921  10.347
 6071SOL    HW220111   6.571   3.806  10.403
 6072SOL     OW20112   2.879   5.506   2.774
 6072SOL    HW120113   2.882   5.542   2.686
 6072SOL    HW220114   2.786   5.498   2.794
 6073SOL     OW20115   8.101   0.075  14.849
 6073SOL    HW120116   8.031   0.023   0.017
 6073SOL    HW220117   8.177   0.016  14.846
 6074SOL     OW20118   8.748   0.346   8.600
 6074SOL    HW120119   8.839   0.340   8.631
 6074SOL    HW220120   8.702   0.391   8.671
 6075SOL     OW20121   8.794   5.246  10.232
 6075SOL    HW120122   8.744   5.168  10.256
 6075SOL    HW220123   8.769   5.312  10.296
 6076SOL     OW20124   7.313  12.236  12.294
 6076SOL    HW120125   7.324  12.214  12.387
 6076SOL    HW220126   7.329  12.155  12.247
 6077SOL     OW20127   9.519   9.879  13.916
 6077SOL    HW120128   9.595   9.919  13.957
 6077SOL    HW220129   9.458   9.952  13.900
 6078SOL     OW20130   3.342   5.515   5.414
 6078SOL    HW120131   3.320   5.577   5.344
 6078SOL    HW220132   3.270   5.452   5.415
 6079SOL     OW20133   8.655   5.983  14.627
 6079SOL    HW120134   8.687   6.069  14.598
 6079SOL    HW220135   8.674   5.981  14.721
 6080SOL     OW20136   3.774   2.197   0.159
 6080SOL    HW120137   3.731   2.254   0.222
 6080SOL    HW220138   3.754   2.236   0.074
 6081SOL     OW20139   2.511  12.594   5.136
 6081SOL    HW120140   2.545  12.523   5.081
 6081SOL    HW220141   2.495  12.553   5.221
 6082SOL     OW20142   4.231  11.072   5.753
 6082SOL    HW120143   4.309  11.019   5.770
 6082SOL    HW220144   4.171  11.049   5.824
 6083SOL     OW20145   4.296   3.910  14.464
 6083SOL    HW120146   4.363   3.975  14.443
 6083SOL    HW220147   4.345   3.829  14.479
 6084SOL     OW20148   7.014   3.078  12.198
 6084SOL    HW120149   7.047   2.990  12.220
 6084SOL    HW220150   7.091   3.135  12.208
 6085SOL     OW20151  14.546   8.124   2.731
 6085SOL    HW120152  14.587   8.152   2.813
 6085SOL    HW220153  14.454   8.148   2.741
 6086SOL     OW20154   9.251   5.584   8.622
 6086SOL    HW120155   9.183   5.554   8.682
 6086SOL    HW220156   9.259   5.678   8.639
 6087SOL     OW20157   5.675   9.542   2.537
 6087SOL    HW120158   5.625   9.465   2.510
 6087SOL    HW220159   5.637   9.614   2.486
 6088SOL     OW20160   9.578   0.780  14.152
 6088SOL    HW120161   9.593   0.686  14.142
 6088SOL    HW220162   9.653   0.821  14.109
 6089SOL     OW20163   3.299  13.857   7.036
 6089SOL    HW120164   3.248  13.827   6.961
 6089SOL    HW220165   3.385  13.878   7.001
 6090SOL     OW20166  11.152   9.728   5.064
 6090SOL    HW120167  11.202   9.798   5.022
 6090SOL    HW220168  11.116   9.769   5.143
 6091SOL     OW20169   1.858  11.293   5.124
 6091SOL    HW120170   1.768  11.322   5.137
 6091SOL    HW220171   1.911  11.371   5.138
 6092SOL     OW20172   8.878   6.613  10.025
 6092SOL    HW120173   8.813   6.669   9.982
 6092SOL    HW220174   8.951   6.609   9.963
 6093SOL     OW20175   9.009  11.330  13.844
 6093SOL    HW120176   9.099  11.346  13.818
 6093SOL    HW220177   8.960  11.331  13.762
 6094SOL     OW20178   1.184   4.398   7.576
 6094SOL    HW120179   1.097   4.363   7.557
 6094SOL    HW220180   1.206   4.362   7.662
 6095SOL     OW20181   0.037   0.177  10.908
 6095SOL    HW120182   0.063   0.266  10.932
 6095SOL    HW220183  14.835   0.189  10.848
 6096SOL     OW20184  10.752   6.049  12.141
 6096SOL    HW120185  10.782   5.960  12.124
 6096SOL    HW220186  10.730   6.083  12.054
 6097SOL     OW20187   3.796  14.021   9.431
 6097SOL    HW120188   3.749  14.001   9.350
 6097SOL    HW220189   3.886  13.994   9.415
 6098SOL     OW20190   5.837  11.674   5.862
 6098SOL    HW120191   5.854  11.703   5.773
 6098SOL    HW220192   5.921  11.685   5.907
 6099SOL     OW20193   7.918  11.730  13.876
 6099SOL    HW120194   7.883  11.736  13.786
 6099SOL    HW220195   7.970  11.810  13.886
 6100SOL     OW20196   0.335  12.424   1.538
 6100SOL    HW120197   0.319  12.479   1.461
 6100SOL    HW220198   0.281  12.346   1.523
 6101SOL     OW20199   5.740   2.952   2.136
 6101SOL    HW120200   5.753   3.043   2.109
 6101SOL    HW220201   5.645   2.942   2.139
 6102SOL     OW20202   5.775   5.761   8.690
 6102SOL    HW120203   5.783   5.773   8.596
 6102SOL    HW220204   5.846   5.700   8.712
 6103SOL     OW20205   6.854  10.024   2.007
 6103SOL    HW120206   6.782  10.018   2.070
 6103SOL    HW220207   6.916  10.086   2.046
 6104SOL     OW20208   3.355   2.961  14.613
 6104SOL    HW120209   3.269   2.985  14.578
 6104SOL    HW220210   3.375   3.029  14.677
 6105SOL     OW20211  10.867  11.135   8.839
 6105SOL    HW120212  10.952  11.125   8.796
 6105SOL    HW220213  10.814  11.181   8.774
 6106SOL     OW20214   1.036   0.414  13.469
 6106SOL    HW120215   1.126   0.436  13.444
 6106SOL    HW220216   1.032   0.431  13.563
 6107SOL     OW20217   8.539   5.406  14.572
 6107SOL    HW120218   8.628   5.438  14.563
 6107SOL    HW220219   8.530   5.338  14.505
 6108SOL     OW20220   9.384   1.277   3.649
 6108SOL    HW120221   9.347   1.273   3.737
 6108SOL    HW220222   9.307   1.279   3.591
 6109SOL     OW20223   7.727   9.983   7.382
 6109SOL    HW120224   7.632   9.975   7.390
 6109SOL    HW220225   7.750   9.929   7.307
 6110SOL     OW20226  13.497   7.944   1.577
 6110SOL    HW120227  13.504   7.852   1.551
 6110SOL    HW220228  13.413   7.972   1.542
 6111SOL     OW20229  12.012   9.315   9.132
 6111SOL    HW120230  11.959   9.342   9.207
 6111SOL    HW220231  12.027   9.395   9.082
 6112SOL     OW20232  13.486  13.057  10.716
 6112SOL    HW120233  13.402  13.047  10.671
 6112SOL    HW220234  13.468  13.117  10.788
 6113SOL     OW20235   9.201   4.402   7.393
 6113SOL    HW120236   9.112   4.371   7.375
 6113SOL    HW220237   9.245   4.326   7.431
 6114SOL     OW20238   5.759   6.368   8.558
 6114SOL    HW120239   5.834   6.426   8.549
 6114SOL    HW220240   5.714   6.399   8.637
 6115SOL     OW20241   5.896   1.085   7.626
 6115SOL    HW120242   5.953   1.094   7.703
 6115SOL    HW220243   5.816   1.132   7.650
 6116SOL     OW20244   0.321   8.246   9.556
 6116SOL    HW120245   0.326   8.194   9.476
 6116SOL    HW220246   0.377   8.200   9.619
 6117SOL     OW20247   6.290   4.539   8.731
 6117SOL    HW120248   6.374   4.510   8.766
 6117SOL    HW220249   6.304   4.545   8.637
 6118SOL     OW20250   2.730  10.239  10.686
 6118SOL    HW120251   2.696  10.263  10.772
 6118SOL    HW220252   2.825  10.248  10.695
 6119SOL     OW20253   7.709   0.192   8.317
 6119SOL    HW120254   7.792   0.232   8.290
 6119SOL    HW220255   7.713   0.104   8.281
 6120SOL     OW20256   6.719   4.336   7.491
 6120SOL    HW120257   6.709   4.380   7.407
 6120SOL    HW220258   6.676   4.394   7.554
 6121SOL     OW20259   4.991   5.611   9.310
 6121SOL    HW120260   5.014   5.696   9.271
 6121SOL    HW220261   4.896   5.614   9.320
 6122SOL     OW20262  13.297   9.674   8.787
 6122SOL    HW120263  13.359   9.602   8.775
 6122SOL    HW220264  13.328   9.742   8.727
 6123SOL     OW20265   9.121  11.829  10.508
 6123SOL    HW120266   9.041  11.786  10.480
 6123SOL    HW220267   9.154  11.872  10.429
 6124SOL     OW20268   1.869   4.218   5.445
 6124SOL    HW120269   1.822   4.271   5.381
 6124SOL    HW220270   1.817   4.227   5.526
 6125SOL     OW20271   5.994   6.868   7.991
 6125SOL    HW120272   6.027   6.920   7.917
 6125SOL    HW220273   6.073   6.840   8.038
 6126SOL     OW20274   3.700   4.124   8.202
 6126SOL    HW120275   3.760   4.132   8.276
 6126SOL    HW220276   3.751   4.156   8.127
 6127SOL     OW20277   0.089  13.554   6.996
 6127SOL    HW120278   0.061  13.633   6.949
 6127SOL    HW220279   0.114  13.586   7.083
 6128SOL     OW20280   1.236  11.725   1.127
 6128SOL    HW120281   1.210  11.721   1.219
 6128SOL    HW220282   1.328  11.697   1.126
 6129SOL     OW20283   1.687   9.980   3.839
 6129SOL    HW120284   1.661  10.050   3.779
 6129SOL    HW220285   1.751  10.021   3.897
 6130SOL     OW20286   8.670   2.879   0.781
 6130SOL    HW120287   8.728   2.954   0.765
 6130SOL    HW220288   8.686   2.856   0.873
 6131SOL     OW20289   2.924  12.428   3.184
 6131SOL    HW120290   2.972  12.485   3.244
 6131SOL    HW220291   2.926  12.342   3.226
 6132SOL     OW20292   1.590  11.962   1.572
 6132SOL    HW120293   1.528  12.030   1.600
 6132SOL    HW220294   1.560  11.936   1.485
 6133SOL     OW20295   2.232   9.010   8.383
 6133SOL    HW120296   2.321   8.976   8.396
 6133SOL    HW220297   2.196   8.955   8.313
 6134SOL     OW20298  14.264  13.260   7.079
 6134SOL    HW120299  14.344  13.214   7.105
 6134SOL    HW220300  14.240  13.221   6.995
 6135SOL     OW20301   6.703  13.825   8.387
 6135SOL    HW120302   6.673  13.839   8.298
 6135SOL    HW220303   6.704  13.729   8.397
 6136SOL     OW20304  14.200   4.665   9.915
 6136SOL    HW120305  14.184   4.718   9.993
 6136SOL    HW220306  14.150   4.585   9.929
 6137SOL     OW20307   5.783  14.151  14.509
 6137SOL    HW120308   5.729  14.087  14.556
 6137SOL    HW220309   5.758  14.140  14.417
 6138SOL     OW20310   9.438  13.161   7.183
 6138SOL    HW120311   9.423  13.132   7.273
 6138SOL    HW220312   9.350  13.166   7.145
 6139SOL     OW20313   2.087   8.792   8.551
 6139SOL    HW120314   2.041   8.741   8.484
 6139SOL    HW220315   2.176   8.802   8.516
 6140SOL     OW20316   9.974   9.321  11.615
 6140SOL    HW120317  10.023   9.373  11.552
 6140SOL    HW220318   9.914   9.268  11.562
 6141SOL     OW20319   5.436   4.059   7.257
 6141SOL    HW120320   5.364   4.011   7.217
 6141SOL    HW220321   5.420   4.050   7.352
 6142SOL     OW20322  10.393   8.944   7.904
 6142SOL    HW120323  10.479   8.979   7.929
 6142SOL    HW220324  10.346   8.937   7.987
 6143SOL     OW20325   5.776   4.845   0.260
 6143SOL    HW120326   5.729   4.927   0.243
 6143SOL    HW220327   5.838   4.838   0.188
 6144SOL     OW20328  14.469   4.320   1.679
 6144SOL    HW120329  14.430   4.405   1.697
 6144SOL    HW220330  14.476   4.278   1.765
 6145SOL     OW20331   8.629   0.809   0.410
 6145SOL    HW120332   8.689   0.787   0.481
 6145SOL    HW220333   8.573   0.877   0.446
 6146SOL     OW20334   4.639   6.088   0.691
 6146SOL    HW120335   4.679   6.025   0.751
 6146SOL    HW220336   4.603   6.156   0.748
 6147SOL     OW20337   0.702   7.802   7.559
 6147SOL    HW120338   0.688   7.707   7.551
 6147SOL    HW220339   0.661   7.838   7.480
 6148SOL     OW20340   1.256  11.938   2.738
 6148SOL    HW120341   1.201  11.860   2.741
 6148SOL    HW220342   1.212  11.995   2.675
 6149SOL     OW20343  12.204   5.345  14.280
 6149SOL    HW120344  12.249   5.292  14.214
 6149SOL    HW220345  12.112   5.343  14.254
 6150SOL     OW20346  12.948  14.221  12.270
 6150SOL    HW120347  12.932  14.131  12.296
 6150SOL    HW220348  12.881  14.272  12.316
 6151SOL     OW20349  13.271   1.375   7.220
 6151SOL    HW120350  13.301   1.458   7.184
 6151SOL    HW220351  13.341   1.313   7.200
 6152SOL     OW20352   0.086   7.226   5.707
 6152SOL    HW120353   0.180   7.238   5.690
 6152SOL    HW220354   0.060   7.305   5.754
 6153SOL     OW20355   2.433  13.704  10.539
 6153SOL    HW120356   2.355  13.667  10.580
 6153SOL    HW220357   2.450  13.647  10.464
 6154SOL     OW20358   2.474   7.107  13.095
 6154SOL    HW120359   2.390   7.064  13.116
 6154SOL    HW220360   2.502   7.147  13.177
 6155SOL     OW20361   8.058  13.754  10.358
 6155SOL    HW120362   7.985  13.728  10.415
 6155SOL    HW220363   8.028  13.732  10.270
 6156SOL     OW20364   6.821   6.802   8.695
 6156SOL    HW120365   6.738   6.797   8.647
 6156SOL    HW220366   6.865   6.880   8.660
 6157SOL     OW20367   6.169   0.294   6.709
 6157SOL    HW120368   6.213   0.216   6.743
 6157SOL    HW220369   6.076   0.271   6.709
 6158SOL     OW20370  11.675   0.206  12.799
 6158SOL    HW120371  11.680   0.135  12.736
 6158SOL    HW220372  11.647   0.164  12.880
 6159SOL     OW20373   1.561  10.061   5.351
 6159SOL    HW120374   1.483  10.025   5.308
 6159SOL    HW220375   1.620   9.986   5.361
 6160SOL     OW20376  12.875   7.532   8.037
 6160SOL    HW120377  12.803   7.591   8.017
 6160SOL    HW220378  12.952   7.573   7.997
 6161SOL     OW20379   3.995   4.503   8.650
 6161SOL    HW120380   4.064   4.541   8.596
 6161SOL    HW220381   3.996   4.553   8.731
 6162SOL     OW20382   2.436   4.898   1.494
 6162SOL    HW120383   2.375   4.972   1.492
 6162SOL    HW220384   2.517   4.933   1.458
 6163SOL     OW20385   2.264   7.952  14.421
 6163SOL    HW120386   2.267   8.040  14.458
 6163SOL    HW220387   2.355   7.929  14.404
 6164SOL     OW20388  12.131   0.533  10.397
 6164SOL    HW120389  12.075   0.610  10.394
 6164SOL    HW220390  12.211   0.560  10.353
 6165SOL     OW20391   2.747  12.179   6.558
 6165SOL    HW120392   2.801  12.203   6.482
 6165SOL    HW220393   2.758  12.251   6.619
 6166SOL     OW20394  12.631   0.175   8.566
 6166SOL    HW120395  12.660   0.142   8.481
 6166SOL    HW220396  12.658   0.267   8.566
 6167SOL     OW20397   7.542   4.167  14.652
 6167SOL    HW120398   7.478   4.237  14.664
 6167SOL    HW220399   7.625   4.212  14.639
 6168SOL     OW20400   0.140   1.957   3.386
 6168SOL    HW120401   0.182   2.033   3.425
 6168SOL    HW220402   0.128   1.981   3.294
 6169SOL     OW20403  14.381   2.923   0.670
 6169SOL    HW120404  14.349   2.973   0.745
 6169SOL    HW220405  14.429   2.987   0.617
 6170SOL     OW20406   3.503   1.054  12.524
 6170SOL    HW120407   3.485   1.104  12.444
 6170SOL    HW220408   3.424   1.063  12.576
 6171SOL     OW20409   5.168   4.383   5.938
 6171SOL    HW120410   5.151   4.453   5.875
 6171SOL    HW220411   5.106   4.400   6.009
 6172SOL     OW20412   7.504   7.809  13.235
 6172SOL    HW120413   7.547   7.723  13.236
 6172SOL    HW220414   7.491   7.828  13.142
 6173SOL     OW20415  12.677   9.343   6.415
 6173SOL    HW120416  12.696   9.381   6.501
 6173SOL    HW220417  12.662   9.250   6.433
 6174SOL     OW20418   8.659   6.046  13.027
 6174SOL    HW120419   8.685   6.090  13.108
 6174SOL    HW220420   8.740   6.013  12.990
 6175SOL     OW20421  10.028   6.546  12.057
 6175SOL    HW120422  10.038   6.536  11.963
 6175SOL    HW220423  10.034   6.457  12.092
 6176SOL     OW20424  13.662   4.856   9.322
 6176SOL    HW120425  13.618   4.841   9.406
 6176SOL    HW220426  13.596   4.832   9.256
 6177SOL     OW20427  10.290  10.581  14.653
 6177SOL    HW120428  10.372  10.592  14.702
 6177SOL    HW220429  10.273  10.487  14.655
 6178SOL     OW20430  13.852  13.796   7.856
 6178SOL    HW120431  13.877  13.715   7.901
 6178SOL    HW220432  13.816  13.767   7.773
 6179SOL     OW20433   5.043   0.645  12.929
 6179SOL    HW120434   5.041   0.634  13.024
 6179SOL    HW220435   5.129   0.612  12.902
 6180SOL     OW20436   0.979   5.646  11.965
 6180SOL    HW120437   1.003   5.704  12.037
 6180SOL    HW220438   0.999   5.696  11.886
 6181SOL     OW20439   8.369   5.137   7.462
 6181SOL    HW120440   8.430   5.085   7.515
 6181SOL    HW220441   8.286   5.132   7.510
 6182SOL     OW20442  13.811   9.651   8.797
 6182SOL    HW120443  13.853   9.570   8.768
 6182SOL    HW220444  13.839   9.661   8.888
 6183SOL     OW20445  13.092   8.889  12.684
 6183SOL    HW120446  13.039   8.963  12.712
 6183SOL    HW220447  13.109   8.904  12.591
 6184SOL     OW20448   4.950  10.411   8.626
 6184SOL    HW120449   4.915  10.322   8.627
 6184SOL    HW220450   5.044  10.399   8.644
 6185SOL     OW20451   1.416  11.747  11.118
 6185SOL    HW120452   1.365  11.745  11.199
 6185SOL    HW220453   1.415  11.840  11.092
 6186SOL     OW20454   1.396   0.483   7.395
 6186SOL    HW120455   1.422   0.396   7.365
 6186SOL    HW220456   1.316   0.469   7.445
 6187SOL     OW20457   4.496   1.986   2.539
 6187SOL    HW120458   4.538   1.949   2.617
 6187SOL    HW220459   4.404   1.997   2.565
 6188SOL     OW20460  11.405   3.250   9.965
 6188SOL    HW120461  11.310   3.250   9.971
 6188SOL    HW220462  11.427   3.336   9.929
 6189SOL     OW20463   7.307   1.993   1.069
 6189SOL    HW120464   7.274   1.904   1.083
 6189SOL    HW220465   7.388   1.997   1.120
 6190SOL     OW20466   3.700   5.454   7.210
 6190SOL    HW120467   3.650   5.380   7.244
 6190SOL    HW220468   3.785   5.447   7.252
 6191SOL     OW20469   2.042   8.111   8.229
 6191SOL    HW120470   2.009   8.200   8.245
 6191SOL    HW220471   1.965   8.055   8.239
 6192SOL     OW20472  13.444  12.708   9.060
 6192SOL    HW120473  13.449  12.613   9.074
 6192SOL    HW220474  13.353  12.722   9.031
 6193SOL     OW20475   2.692   8.193   6.519
 6193SOL    HW120476   2.705   8.288   6.522
 6193SOL    HW220477   2.780   8.157   6.507
 6194SOL     OW20478  12.552   3.874  14.589
 6194SOL    HW120479  12.576   3.959  14.625
 6194SOL    HW220480  12.543   3.888  14.495
 6195SOL     OW20481   5.451   1.365  10.566
 6195SOL    HW120482   5.412   1.439  10.518
 6195SOL    HW220483   5.513   1.406  10.626
 6196SOL     OW20484   1.704   4.398   8.432
 6196SOL    HW120485   1.653   4.320   8.410
 6196SOL    HW220486   1.789   4.384   8.391
 6197SOL     OW20487   4.765   7.008  13.838
 6197SOL    HW120488   4.751   7.036  13.748
 6197SOL    HW220489   4.677   6.986  13.870
 6198SOL     OW20490   0.367  10.218   3.195
 6198SOL    HW120491   0.367  10.205   3.290
 6198SOL    HW220492   0.354  10.312   3.184
 6199SOL     OW20493  11.070   3.935  10.547
 6199SOL    HW120494  11.075   3.863  10.610
 6199SOL    HW220495  11.121   3.906  10.472
 6200SOL     OW20496  11.126  14.742   2.546
 6200SOL    HW120497  11.178  14.795   2.486
 6200SOL    HW220498  11.065  14.804   2.586
 6201SOL     OW20499  12.660   6.141  11.826
 6201SOL    HW120500  12.667   6.236  11.828
 6201SOL    HW220501  12.724   6.110  11.890
 6202SOL     OW20502  13.550  12.634  12.229
 6202SOL    HW120503  13.567  12.715  12.180
 6202SOL    HW220504  13.637  12.598  12.245
 6203SOL     OW20505   1.328  14.768  11.869
 6203SOL    HW120506   1.400  14.753  11.808
 6203SOL    HW220507   1.274  14.689  11.861
 6204SOL     OW20508   9.837  11.572  11.545
 6204SOL    HW120509   9.931  11.584  11.557
 6204SOL    HW220510   9.829  11.492  11.493
 6205SOL     OW20511   8.496  11.401   4.515
 6205SOL    HW120512   8.481  11.440   4.601
 6205SOL    HW220513   8.443  11.321   4.514
 6206SOL     OW20514   2.682   2.074   9.110
 6206SOL    HW120515   2.703   2.070   9.016
 6206SOL    HW220516   2.707   1.988   9.143
 6207SOL     OW20517  13.697   6.440   2.493
 6207SOL    HW120518  13.702   6.521   2.544
 6207SOL    HW220519  13.679   6.372   2.558
 6208SOL     OW20520   2.991   9.141   0.683
 6208SOL    HW120521   2.964   9.230   0.707
 6208SOL    HW220522   2.948   9.125   0.599
 6209SOL     OW20523   1.627   6.744   8.660
 6209SOL    HW120524   1.588   6.689   8.592
 6209SOL    HW220525   1.707   6.698   8.686
 6210SOL     OW20526   7.705   5.494  13.847
 6210SOL    HW120527   7.702   5.571  13.904
 6210SOL    HW220528   7.615   5.463  13.843
 6211SOL     OW20529   8.195  11.226   1.123
 6211SOL    HW120530   8.288  11.207   1.113
 6211SOL    HW220531   8.151  11.150   1.085
 6212SOL     OW20532  13.227   6.494   9.827
 6212SOL    HW120533  13.226   6.526   9.737
 6212SOL    HW220534  13.304   6.437   9.831
 6213SOL     OW20535  12.562   0.714   8.498
 6213SOL    HW120536  12.519   0.798   8.483
 6213SOL    HW220537  12.619   0.702   8.422
 6214SOL     OW20538  14.818   7.586  12.888
 6214SOL    HW120539  14.869   7.661  12.858
 6214SOL    HW220540  14.747   7.624  12.940
 6215SOL     OW20541   3.049   3.107   8.632
 6215SOL    HW120542   3.120   3.169   8.612
 6215SOL    HW220543   3.055   3.094   8.727
 6216SOL     OW20544   3.039  12.339  10.155
 6216SOL    HW120545   3.057  12.355  10.062
 6216SOL    HW220546   2.944  12.341  10.162
 6217SOL     OW20547  11.886  13.995   1.730
 6217SOL    HW120548  11.793  13.973   1.721
 6217SOL    HW220549  11.894  14.027   1.820
 6218SOL     OW20550   0.503   1.701   1.074
 6218SOL    HW120551   0.515   1.704   0.979
 6218SOL    HW220552   0.559   1.629   1.104
 6219SOL     OW20553   4.747   2.614   8.788
 6219SOL    HW120554   4.746   2.704   8.753
 6219SOL    HW220555   4.654   2.593   8.800
 6220SOL     OW20556  14.725   1.207   8.029
 6220SOL    HW120557  14.686   1.178   8.111
 6220SOL    HW220558  14.790   1.141   8.008
 6221SOL     OW20559  14.609   7.620   0.172
 6221SOL    HW120560  14.535   7.561   0.189
 6221SOL    HW220561  14.582   7.670   0.095
 6222SOL     OW20562   2.234   5.264   7.261
 6222SOL    HW120563   2.308   5.291   7.206
 6222SOL    HW220564   2.222   5.171   7.241
 6223SOL     OW20565   1.385  11.507   2.855
 6223SOL    HW120566   1.467  11.546   2.885
 6223SOL    HW220567   1.322  11.526   2.925
 6224SOL     OW20568  11.704   4.002   9.090
 6224SOL    HW120569  11.647   3.972   9.019
 6224SOL    HW220570  11.700   3.932   9.155
 6225SOL     OW20571   9.694   5.525  11.655
 6225SOL    HW120572   9.681   5.617  11.631
 6225SOL    HW220573   9.688   5.525  11.751
 6226SOL     OW20574  10.455   2.363  12.308
 6226SOL    HW120575  10.401   2.422  12.360
 6226SOL    HW220576  10.545   2.382  12.336
 6227SOL     OW20577   9.459  14.668   4.691
 6227SOL    HW120578   9.538  14.716   4.719
 6227SOL    HW220579   9.396  14.737   4.672
 6228SOL     OW20580   0.448   1.388   0.506
 6228SOL    HW120581   0.533   1.380   0.463
 6228SOL    HW220582   0.462   1.351   0.593
 6229SOL     OW20583  12.143  12.000   9.027
 6229SOL    HW120584  12.105  12.070   8.975
 6229SOL    HW220585  12.144  12.034   9.117
 6230SOL     OW20586  14.178  12.020  12.642
 6230SOL    HW120587  14.116  11.949  12.661
 6230SOL    HW220588  14.240  11.982  12.580
 6231SOL     OW20589  13.749  10.896   1.579
 6231SOL    HW120590  13.679  10.834   1.596
 6231SOL    HW220591  13.705  10.973   1.544
 6232SOL     OW20592  10.103  13.718  12.006
 6232SOL    HW120593  10.009  13.697  12.004
 6232SOL    HW220594  10.114  13.772  12.084
 6233SOL     OW20595  12.066   7.485   3.974
 6233SOL    HW120596  12.112   7.406   3.946
 6233SOL    HW220597  12.093   7.552   3.912
 6234SOL     OW20598   4.701   1.747  13.106
 6234SOL    HW120599   4.709   1.653  13.122
 6234SOL    HW220600   4.781   1.771  13.060
 6235SOL     OW20601   5.044  12.717  14.619
 6235SOL    HW120602   5.050  12.641  14.678
 6235SOL    HW220603   5.116  12.704  14.557
 6236SOL     OW20604   4.295  11.468  12.561
 6236SOL    HW120605   4.238  11.516  12.500
 6236SOL    HW220606   4.275  11.376  12.545
 6237SOL     OW20607  14.843   5.944  14.109
 6237SOL    HW120608  14.871   5.988  14.189
 6237SOL    HW220609  14.752   5.920  14.126
 6238SOL     OW20610   0.118   0.256   7.646
 6238SOL    HW120611   0.065   0.250   7.726
 6238SOL    HW220612   0.074   0.325   7.595
 6239SOL     OW20613  10.881   5.784   9.619
 6239SOL    HW120614  10.924   5.856   9.572
 6239SOL    HW220615  10.892   5.806   9.711
 6240SOL     OW20616   4.483   6.189  10.578
 6240SOL    HW120617   4.567   6.151  10.553
 6240SOL    HW220618   4.434   6.195  10.496
 6241SOL     OW20619   7.979   2.282   4.167
 6241SOL    HW120620   8.037   2.302   4.240
 6241SOL    HW220621   8.038   2.259   4.095
 6242SOL     OW20622   3.910  14.644   9.284
 6242SOL    HW120623   3.852  14.712   9.249
 6242SOL    HW220624   3.923  14.667   9.376
 6243SOL     OW20625  12.771   5.267  14.826
 6243SOL    HW120626  12.841   5.204  14.841
 6243SOL    HW220627  12.776   5.327   0.029
 6244SOL     OW20628   7.063   1.102   1.877
 6244SOL    HW120629   7.142   1.080   1.828
 6244SOL    HW220630   6.995   1.048   1.837
 6245SOL     OW20631  10.454   4.729  11.301
 6245SOL    HW120632  10.395   4.766  11.235
 6245SOL    HW220633  10.542   4.749  11.269
 6246SOL     OW20634  11.751   3.073   7.120
 6246SOL    HW120635  11.781   2.985   7.098
 6246SOL    HW220636  11.655   3.066   7.120
 6247SOL     OW20637   4.191  12.791   1.506
 6247SOL    HW120638   4.227  12.849   1.573
 6247SOL    HW220639   4.182  12.846   1.429
 6248SOL     OW20640  12.873   0.282   2.884
 6248SOL    HW120641  12.898   0.371   2.859
 6248SOL    HW220642  12.780   0.288   2.904
 6249SOL     OW20643  14.178   1.952   4.811
 6249SOL    HW120644  14.272   1.969   4.823
 6249SOL    HW220645  14.150   2.020   4.749
 6250SOL     OW20646  13.474  14.761   6.308
 6250SOL    HW120647  13.386  14.757   6.347
 6250SOL    HW220648  13.460  14.796   6.220
 6251SOL     OW20649  10.163   0.958   5.249
 6251SOL    HW120650  10.173   1.038   5.197
 6251SOL    HW220651  10.243   0.955   5.303
 6252SOL     OW20652   4.558  11.247  13.196
 6252SOL    HW120653   4.587  11.159  13.223
 6252SOL    HW220654   4.487  11.231  13.134
 6253SOL     OW20655   9.274  13.501  13.560
 6253SOL    HW120656   9.353  13.454  13.584
 6253SOL    HW220657   9.273  13.501  13.465
 6254SOL     OW20658  10.089   6.848  10.857
 6254SOL    HW120659  10.017   6.907  10.880
 6254SOL    HW220660  10.096   6.855  10.762
 6255SOL     OW20661   2.531  14.657   7.201
 6255SOL    HW120662   2.483  14.681   7.280
 6255SOL    HW220663   2.508  14.724   7.137
 6256SOL     OW20664   1.151   3.208  10.237
 6256SOL    HW120665   1.196   3.128  10.208
 6256SOL    HW220666   1.219   3.258  10.282
 6257SOL     OW20667  10.288   1.701   6.584
 6257SOL    HW120668  10.268   1.696   6.491
 6257SOL    HW220669  10.204   1.720   6.626
 6258SOL     OW20670  10.375   2.522   8.534
 6258SOL    HW120671  10.305   2.458   8.520
 6258SOL    HW220672  10.445   2.472   8.577
 6259SOL     OW20673   4.197  10.252  13.588
 6259SOL    HW120674   4.282  10.217  13.561
 6259SOL    HW220675   4.163  10.295  13.509
 6260SOL     OW20676  14.152   7.689  11.124
 6260SOL    HW120677  14.207   7.612  11.107
 6260SOL    HW220678  14.177   7.752  11.056
 6261SOL     OW20679  10.069  14.272  10.639
 6261SOL    HW120680  10.109  14.304  10.720
 6261SOL    HW220681  10.027  14.348  10.601
 6262SOL     OW20682   9.347   5.704   2.915
 6262SOL    HW120683   9.271   5.721   2.971
 6262SOL    HW220684   9.392   5.631   2.958
 6263SOL     OW20685   9.154   7.516   5.217
 6263SOL    HW120686   9.136   7.604   5.251
 6263SOL    HW220687   9.219   7.529   5.148
 6264SOL     OW20688   8.793   3.183  10.073
 6264SOL    HW120689   8.747   3.101  10.055
 6264SOL    HW220690   8.859   3.161  10.139
 6265SOL     OW20691   6.438  11.801   1.072
 6265SOL    HW120692   6.524  11.835   1.047
 6265SOL    HW220693   6.412  11.853   1.147
 6266SOL     OW20694   5.574  11.273   0.429
 6266SOL    HW120695   5.576  11.190   0.381
 6266SOL    HW220696   5.617  11.336   0.370
 6267SOL     OW20697  11.019   2.349  14.402
 6267SOL    HW120698  10.971   2.284  14.350
 6267SOL    HW220699  10.964   2.363  14.479
 6268SOL     OW20700   6.317   8.752   3.089
 6268SOL    HW120701   6.296   8.842   3.112
 6268SOL    HW220702   6.232   8.709   3.079
 6269SOL     OW20703   1.220   3.090  11.289
 6269SOL    HW120704   1.287   3.145  11.328
 6269SOL    HW220705   1.145   3.097  11.348
 6270SOL     OW20706   8.947  11.923  10.201
 6270SOL    HW120707   8.921  11.949  10.113
 6270SOL    HW220708   9.038  11.952  10.210
 6271SOL     OW20709   5.074   3.459  13.194
 6271SOL    HW120710   5.048   3.367  13.182
 6271SOL    HW220711   5.086   3.468  13.288
 6272SOL     OW20712   0.023   1.610   8.313
 6272SOL    HW120713  14.799   1.608   8.315
 6272SOL    HW220714   0.044   1.691   8.266
 6273SOL     OW20715   6.977   8.870  12.865
 6273SOL    HW120716   7.039   8.800  12.884
 6273SOL    HW220717   6.961   8.912  12.950
 6274SOL     OW20718   3.831   3.696   8.501
 6274SOL    HW120719   3.892   3.661   8.566
 6274SOL    HW220720   3.880   3.764   8.456
 6275SOL     OW20721   7.722   3.064   4.995
 6275SOL    HW120722   7.683   3.105   4.918
 6275SOL    HW220723   7.781   3.131   5.030
 6276SOL     OW20724  13.744   7.342   9.658
 6276SOL    HW120725  13.680   7.402   9.697
 6276SOL    HW220726  13.804   7.400   9.610
 6277SOL     OW20727   4.275   0.489  10.730
 6277SOL    HW120728   4.203   0.426  10.725
 6277SOL    HW220729   4.295   0.496  10.823
 6278SOL     OW20730   9.108  11.154  14.019
 6278SOL    HW120731   9.058  11.225  13.978
 6278SOL    HW220732   9.156  11.114  13.946
 6279SOL     OW20733  14.654   4.676   8.568
 6279SOL    HW120734  14.621   4.599   8.613
 6279SOL    HW220735  14.637   4.749   8.628
 6280SOL     OW20736   8.016   8.600   0.184
 6280SOL    HW120737   8.035   8.689   0.213
 6280SOL    HW220738   7.949   8.610   0.116
 6281SOL     OW20739   9.161   9.363   5.337
 6281SOL    HW120740   9.174   9.268   5.334
 6281SOL    HW220741   9.068   9.374   5.358
 6282SOL     OW20742   5.073   6.790   6.139
 6282SOL    HW120743   5.091   6.741   6.059
 6282SOL    HW220744   5.157   6.793   6.185
 6283SOL     OW20745   8.724   7.282   9.579
 6283SOL    HW120746   8.629   7.281   9.577
 6283SOL    HW220747   8.748   7.256   9.668
 6284SOL     OW20748   6.916   1.401  13.434
 6284SOL    HW120749   6.860   1.327  13.407
 6284SOL    HW220750   6.985   1.405  13.368
 6285SOL     OW20751   7.210   8.181   6.416
 6285SOL    HW120752   7.120   8.154   6.435
 6285SOL    HW220753   7.259   8.164   6.496
 6286SOL     OW20754   2.761   5.301   7.606
 6286SOL    HW120755   2.838   5.357   7.612
 6286SOL    HW220756   2.739   5.301   7.513
 6287SOL     OW20757   4.858   0.396  14.052
 6287SOL    HW120758   4.886   0.467  14.109
 6287SOL    HW220759   4.820   0.331  14.111
 6288SOL     OW20760   5.200  10.199  11.341
 6288SOL    HW120761   5.200  10.127  11.404
 6288SOL    HW220762   5.263  10.172  11.274
 6289SOL     OW20763   7.081  13.597   8.889
 6289SOL    HW120764   7.092  13.670   8.950
 6289SOL    HW220765   6.996  13.612   8.848
 6290SOL     OW20766   1.418   2.594   9.949
 6290SOL    HW120767   1.479   2.556  10.013
 6290SOL    HW220768   1.434   2.545   9.869
 6291SOL     OW20769   8.320  11.953   7.802
 6291SOL    HW120770   8.240  11.914   7.768
 6291SOL    HW220771   8.377  11.879   7.821
 6292SOL     OW20772   5.636   1.637   6.330
 6292SOL    HW120773   5.690   1.688   6.269
 6292SOL    HW220774   5.682   1.643   6.414
 6293SOL     OW20775   1.356   7.465   4.511
 6293SOL    HW120776   1.302   7.525   4.460
 6293SOL    HW220777   1.318   7.378   4.495
 6294SOL     OW20778   6.648  10.257   9.849
 6294SOL    HW120779   6.647  10.214   9.763
 6294SOL    HW220780   6.696  10.339   9.834
 6295SOL     OW20781  10.915   6.862   3.798
 6295SOL    HW120782  10.850   6.896   3.860
 6295SOL    HW220783  10.931   6.936   3.738
 6296SOL     OW20784   5.879   7.721   7.861
 6296SOL    HW120785   5.942   7.693   7.795
 6296SOL    HW220786   5.929   7.776   7.921
 6297SOL     OW20787   4.049   6.687  14.303
 6297SOL    HW120788   3.962   6.690  14.342
 6297SOL    HW220789   4.106   6.655  14.373
 6298SOL     OW20790   2.889  12.200  13.007
 6298SOL    HW120791   2.807  12.153  12.989
 6298SOL    HW220792   2.954  12.156  12.952
 6299SOL     OW20793   1.705   8.474  12.797
 6299SOL    HW120794   1.788   8.505  12.759
 6299SOL    HW220795   1.638   8.526  12.752
 6300SOL     OW20796  14.425   3.663   5.463
 6300SOL    HW120797  14.376   3.654   5.545
 6300SOL    HW220798  14.499   3.719   5.486
 6301SOL     OW20799   8.436   1.400  12.897
 6301SOL    HW120800   8.435   1.386  12.803
 6301SOL    HW220801   8.428   1.495  12.908
 6302SOL     OW20802  10.681  10.601   6.700
 6302SOL    HW120803  10.624  10.590   6.777
 6302SOL    HW220804  10.622  10.591   6.625
 6303SOL     OW20805   6.361   4.390   0.111
 6303SOL    HW120806   6.373   4.480   0.142
 6303SOL    HW220807   6.429   4.379   0.044
 6304SOL     OW20808   7.685   6.594   8.342
 6304SOL    HW120809   7.591   6.582   8.359
 6304SOL    HW220810   7.689   6.645   8.262
 6305SOL     OW20811   4.788   9.063   8.189
 6305SOL    HW120812   4.787   8.976   8.151
 6305SOL    HW220813   4.847   9.056   8.265
 6306SOL     OW20814   1.755  14.136   8.610
 6306SOL    HW120815   1.805  14.217   8.599
 6306SOL    HW220816   1.691  14.137   8.539
 6307SOL     OW20817   6.608   5.020   2.540
 6307SOL    HW120818   6.606   4.925   2.528
 6307SOL    HW220819   6.655   5.033   2.622
 6308SOL     OW20820   0.151   2.213   0.290
 6308SOL    HW120821   0.120   2.254   0.370
 6308SOL    HW220822   0.154   2.284   0.226
 6309SOL     OW20823  14.747   6.451  10.038
 6309SOL    HW120824  14.733   6.357  10.028
 6309SOL    HW220825  14.834   6.458  10.076
 6310SOL     OW20826  14.490   1.955   8.310
 6310SOL    HW120827  14.531   2.023   8.257
 6310SOL    HW220828  14.491   1.877   8.254
 6311SOL     OW20829   6.390  12.339   3.198
 6311SOL    HW120830   6.443  12.379   3.267
 6311SOL    HW220831   6.454  12.311   3.132
 6312SOL     OW20832   5.574  14.452  11.465
 6312SOL    HW120833   5.515  14.483  11.397
 6312SOL    HW220834   5.655  14.500  11.451
 6313SOL     OW20835   9.813  12.396   8.315
 6313SOL    HW120836   9.869  12.468   8.342
 6313SOL    HW220837   9.782  12.421   8.228
 6314SOL     OW20838   5.719   9.966   6.157
 6314SOL    HW120839   5.799   9.987   6.109
 6314SOL    HW220840   5.748   9.916   6.233
 6315SOL     OW20841  11.956   2.108  12.533
 6315SOL    HW120842  11.906   2.150  12.604
 6315SOL    HW220843  11.950   2.015  12.552
 6316SOL     OW20844  11.940  12.551   2.310
 6316SOL    HW120845  11.958  12.632   2.358
 6316SOL    HW220846  12.026  12.512   2.295
 6317SOL     OW20847  12.665   0.120  12.012
 6317SOL    HW120848  12.590   0.085  11.964
 6317SOL    HW220849  12.733   0.131  11.946
 6318SOL     OW20850   5.023   1.546   0.886
 6318SOL    HW120851   5.022   1.530   0.981
 6318SOL    HW220852   4.958   1.485   0.851
 6319SOL     OW20853  11.683   7.975   5.568
 6319SOL    HW120854  11.602   8.020   5.591
 6319SOL    HW220855  11.751   8.021   5.616
 6320SOL     OW20856  14.451  13.999  10.571
 6320SOL    HW120857  14.525  14.027  10.625
 6320SOL    HW220858  14.399  14.078  10.558
 6321SOL     OW20859  12.767   4.591   8.045
 6321SOL    HW120860  12.861   4.581   8.031
 6321SOL    HW220861  12.741   4.510   8.089
 6322SOL     OW20862  13.096  12.079  12.957
 6322SOL    HW120863  13.057  12.159  12.923
 6322SOL    HW220864  13.045  12.008  12.917
 6323SOL     OW20865  14.569  13.909   7.999
 6323SOL    HW120866  14.629  13.968   8.046
 6323SOL    HW220867  14.622  13.875   7.927
 6324SOL     OW20868   6.674   1.253  13.407
 6324SOL    HW120869   6.650   1.345  13.392
 6324SOL    HW220870   6.591   1.209  13.422
 6325SOL     OW20871  12.904   0.372   9.922
 6325SOL    HW120872  12.888   0.366   9.828
 6325SOL    HW220873  12.993   0.406   9.929
 6326SOL     OW20874  10.988   2.830   6.906
 6326SOL    HW120875  10.983   2.926   6.912
 6326SOL    HW220876  10.897   2.801   6.897
 6327SOL     OW20877   7.568  11.056   0.915
 6327SOL    HW120878   7.566  11.152   0.905
 6327SOL    HW220879   7.660  11.033   0.902
 6328SOL     OW20880   1.817   5.411   7.923
 6328SOL    HW120881   1.895   5.438   7.971
 6328SOL    HW220882   1.815   5.315   7.932
 6329SOL     OW20883   3.120   5.610   8.105
 6329SOL    HW120884   3.169   5.652   8.175
 6329SOL    HW220885   3.180   5.546   8.068
 6330SOL     OW20886  10.145   1.852   8.022
 6330SOL    HW120887  10.088   1.913   7.974
 6330SOL    HW220888  10.103   1.843   8.107
 6331SOL     OW20889   4.057  12.692   5.925
 6331SOL    HW120890   3.989  12.664   5.864
 6331SOL    HW220891   4.016  12.761   5.976
 6332SOL     OW20892   1.687   6.307  11.345
 6332SOL    HW120893   1.633   6.251  11.400
 6332SOL    HW220894   1.675   6.395  11.381
 6333SOL     OW20895  14.300  14.222   3.485
 6333SOL    HW120896  14.211  14.186   3.485
 6333SOL    HW220897  14.356  14.150   3.457
 6334SOL     OW20898   7.686   7.425   9.260
 6334SOL    HW120899   7.620   7.453   9.198
 6334SOL    HW220900   7.713   7.338   9.229
 6335SOL     OW20901  11.788   4.818   6.665
 6335SOL    HW120902  11.703   4.776   6.677
 6335SOL    HW220903  11.802   4.868   6.745
 6336SOL     OW20904  13.814   4.210  12.517
 6336SOL    HW120905  13.837   4.249  12.601
 6336SOL    HW220906  13.766   4.278  12.470
 6337SOL     OW20907   5.309   4.953   5.515
 6337SOL    HW120908   5.248   5.014   5.473
 6337SOL    HW220909   5.317   4.985   5.605
 6338SOL     OW20910   3.732   6.867  11.207
 6338SOL    HW120911   3.667   6.796  11.213
 6338SOL    HW220912   3.814   6.823  11.187
 6339SOL     OW20913   8.941   7.815   3.046
 6339SOL    HW120914   8.898   7.825   3.130
 6339SOL    HW220915   8.913   7.729   3.014
 6340SOL     OW20916  14.238   5.388  14.204
 6340SOL    HW120917  14.227   5.440  14.284
 6340SOL    HW220918  14.241   5.298  14.235
 6341SOL     OW20919   9.789   4.040   6.392
 6341SOL    HW120920   9.752   4.013   6.477
 6341SOL    HW220921   9.881   4.059   6.411
 6342SOL     OW20922  13.109  10.406   0.369
 6342SOL    HW120923  13.126  10.430   0.460
 6342SOL    HW220924  13.192  10.422   0.324
 6343SOL     OW20925  12.319   7.265   5.803
 6343SOL    HW120926  12.396   7.210   5.790
 6343SOL    HW220927  12.286   7.282   5.715
 6344SOL     OW20928   3.077  10.468   4.876
 6344SOL    HW120929   3.049  10.502   4.791
 6344SOL    HW220930   3.146  10.527   4.904
 6345SOL     OW20931   0.493  10.781   9.272
 6345SOL    HW120932   0.451  10.775   9.358
 6345SOL    HW220933   0.534  10.695   9.260
 6346SOL     OW20934   7.015   3.203   1.643
 6346SOL    HW120935   7.109   3.185   1.652
 6346SOL    HW220936   7.011   3.296   1.622
 6347SOL     OW20937  10.467   6.224  11.214
 6347SOL    HW120938  10.559   6.247  11.223
 6347SOL    HW220939  10.458   6.198  11.123
 6348SOL     OW20940   3.965  11.121   0.698
 6348SOL    HW120941   4.052  11.083   0.713
 6348SOL    HW220942   3.904  11.059   0.737
 6349SOL     OW20943   5.220  13.294  11.886
 6349SOL    HW120944   5.311  13.262  11.887
 6349SOL    HW220945   5.226  13.380  11.845
 6350SOL     OW20946   9.456   3.367   4.901
 6350SOL    HW120947   9.504   3.432   4.849
 6350SOL    HW220948   9.453   3.405   4.989
 6351SOL     OW20949   2.101   6.713  10.441
 6351SOL    HW120950   2.084   6.630  10.396
 6351SOL    HW220951   2.093   6.779  10.373
 6352SOL     OW20952   9.658  14.180  13.908
 6352SOL    HW120953   9.569  14.201  13.881
 6352SOL    HW220954   9.713  14.207  13.834
 6353SOL     OW20955   8.776  13.098   4.788
 6353SOL    HW120956   8.795  13.187   4.818
 6353SOL    HW220957   8.804  13.042   4.860
 6354SOL     OW20958   2.019  10.537   6.870
 6354SOL    HW120959   2.099  10.587   6.883
 6354SOL    HW220960   2.036  10.453   6.914
 6355SOL     OW20961   5.217   0.654  12.629
 6355SOL    HW120962   5.248   0.583  12.573
 6355SOL    HW220963   5.239   0.624  12.718
 6356SOL     OW20964   9.736   2.966  14.452
 6356SOL    HW120965   9.691   3.016  14.519
 6356SOL    HW220966   9.675   2.964  14.378
 6357SOL     OW20967   2.355  12.202   3.938
 6357SOL    HW120968   2.339  12.108   3.944
 6357SOL    HW220969   2.441  12.209   3.898
 6358SOL     OW20970   1.986   2.804   9.948
 6358SOL    HW120971   1.994   2.877  10.009
 6358SOL    HW220972   2.067   2.808   9.897
 6359SOL     OW20973   5.102   3.728   5.621
 6359SOL    HW120974   5.186   3.688   5.598
 6359SOL    HW220975   5.067   3.759   5.537
 6360SOL     OW20976  11.363   7.549   5.208
 6360SOL    HW120977  11.307   7.493   5.260
 6360SOL    HW220978  11.338   7.531   5.117
 6361SOL     OW20979  10.567   3.755   7.151
 6361SOL    HW120980  10.638   3.798   7.198
 6361SOL    HW220981  10.491   3.765   7.207
 6362SOL     OW20982   4.335   9.813   7.550
 6362SOL    HW120983   4.412   9.864   7.575
 6362SOL    HW220984   4.290   9.795   7.632
 6363SOL     OW20985   1.867   5.651   0.674
 6363SOL    HW120986   1.864   5.743   0.649
 6363SOL    HW220987   1.914   5.608   0.602
 6364SOL     OW20988   9.235   0.758   9.687
 6364SOL    HW120989   9.179   0.816   9.738
 6364SOL    HW220990   9.178   0.688   9.658
 6365SOL     OW20991   1.207   2.455  10.047
 6365SOL    HW120992   1.273   2.512  10.007
 6365SOL    HW220993   1.233   2.449  10.139
 6366SOL     OW20994  13.695   0.799   4.146
 6366SOL    HW120995  13.663   0.735   4.082
 6366SOL    HW220996  13.761   0.751   4.196
 6367SOL     OW20997   4.355   1.870   6.761
 6367SOL    HW120998   4.279   1.928   6.760
 6367SOL    HW220999   4.419   1.914   6.817
 6368SOL     OW21000   1.156   6.503   9.937
 6368SOL    HW121001   1.130   6.418   9.904
 6368SOL    HW221002   1.211   6.540   9.867
 6369SOL     OW21003  14.302   5.908   8.725
 6369SOL    HW121004  14.389   5.939   8.701
 6369SOL    HW221005  14.282   5.841   8.659
 6370SOL     OW21006   2.487   6.611   1.693
 6370SOL    HW121007   2.577   6.638   1.712
 6370SOL    HW221008   2.454   6.678   1.633
 6371SOL     OW21009   5.676  10.487   5.546
 6371SOL    HW121010   5.628  10.419   5.593
 6371SOL    HW221011   5.751  10.507   5.602
 6372SOL     OW21012  13.897   7.354   2.598
 6372SOL    HW121013  13.890   7.411   2.674
 6372SOL    HW221014  13.990   7.355   2.575
 6373SOL     OW21015  12.736  14.285  10.746
 6373SOL    HW121016  12.664  14.341  10.775
 6373SOL    HW221017  12.748  14.223  10.817
 6374SOL     OW21018   9.106   0.924   0.252
 6374SOL    HW121019   9.116   0.832   0.229
 6374SOL    HW221020   9.014   0.943   0.236
 6375SOL     OW21021   6.542   5.567   1.291
 6375SOL    HW121022   6.452   5.594   1.311
 6375SOL    HW221023   6.596   5.618   1.351
 6376SOL     OW21024   2.955   7.227   0.646
 6376SOL    HW121025   2.865   7.232   0.677
 6376SOL    HW221026   2.981   7.136   0.659
 6377SOL     OW21027   6.119   7.456   5.059
 6377SOL    HW121028   6.109   7.427   5.150
 6377SOL    HW221029   6.163   7.384   5.015
 6378SOL     OW21030   0.797  13.331  10.786
 6378SOL    HW121031   0.775  13.405  10.843
 6378SOL    HW221032   0.887  13.309  10.808
 6379SOL     OW21033   1.284   0.623   1.530
 6379SOL    HW121034   1.259   0.535   1.558
 6379SOL    HW221035   1.230   0.640   1.452
 6380SOL     OW21036   6.836   4.183  13.792
 6380SOL    HW121037   6.853   4.237  13.869
 6380SOL    HW221038   6.862   4.238  13.718
 6381SOL     OW21039   2.196   9.876  13.496
 6381SOL    HW121040   2.171   9.868  13.404
 6381SOL    HW221041   2.248   9.956  13.499
 6382SOL     OW21042   2.953  10.669   5.531
 6382SOL    HW121043   2.939  10.711   5.446
 6382SOL    HW221044   2.993  10.585   5.509
 6383SOL     OW21045  13.154   6.614   8.598
 6383SOL    HW121046  13.147   6.691   8.542
 6383SOL    HW221047  13.248   6.599   8.608
 6384SOL     OW21048   1.734   1.499   3.887
 6384SOL    HW121049   1.810   1.449   3.917
 6384SOL    HW221050   1.667   1.483   3.953
 6385SOL     OW21051   8.991   4.690   1.853
 6385SOL    HW121052   8.932   4.765   1.857
 6385SOL    HW221053   9.006   4.667   1.945
 6386SOL     OW21054   3.125   9.747  11.424
 6386SOL    HW121055   3.125   9.688  11.348
 6386SOL    HW221056   3.093   9.693  11.496
 6387SOL     OW21057   1.526   3.743   4.068
 6387SOL    HW121058   1.511   3.719   4.159
 6387SOL    HW221059   1.537   3.659   4.022
 6388SOL     OW21060   9.369   5.621  14.533
 6388SOL    HW121061   9.452   5.654  14.501
 6388SOL    HW221062   9.323   5.591  14.455
 6389SOL     OW21063  11.522  11.123   2.547
 6389SOL    HW121064  11.574  11.121   2.627
 6389SOL    HW221065  11.451  11.060   2.562
 6390SOL     OW21066   1.023   0.043   6.565
 6390SOL    HW121067   1.057   0.112   6.622
 6390SOL    HW221068   1.046  14.833   6.610
 6391SOL     OW21069   7.384   3.669   5.484
 6391SOL    HW121070   7.418   3.597   5.432
 6391SOL    HW221071   7.289   3.663   5.474
 6392SOL     OW21072   9.707   2.187  12.490
 6392SOL    HW121073   9.640   2.119  12.490
 6392SOL    HW221074   9.660   2.268  12.509
 6393SOL     OW21075  12.478   7.770   3.218
 6393SOL    HW121076  12.447   7.780   3.128
 6393SOL    HW221077  12.403   7.735   3.265
 6394SOL     OW21078   2.048  12.364   1.130
 6394SOL    HW121079   2.084  12.342   1.216
 6394SOL    HW221080   2.109  12.429   1.095
 6395SOL     OW21081   3.974   2.065   4.664
 6395SOL    HW121082   3.890   2.035   4.629
 6395SOL    HW221083   4.002   1.996   4.724
 6396SOL     OW21084  14.140   9.489   8.785
 6396SOL    HW121085  14.098   9.414   8.828
 6396SOL    HW221086  14.155   9.552   8.856
 6397SOL     OW21087   5.127   6.206   1.825
 6397SOL    HW121088   5.082   6.162   1.753
 6397SOL    HW221089   5.071   6.192   1.901
 6398SOL     OW21090   4.391  14.588   8.077
 6398SOL    HW121091   4.428  14.576   7.989
 6398SOL    HW221092   4.299  14.608   8.061
 6399SOL     OW21093  12.924   2.386   9.497
 6399SOL    HW121094  12.967   2.346   9.421
 6399SOL    HW221095  12.906   2.476   9.470
 6400SOL     OW21096   9.178   1.787   5.673
 6400SOL    HW121097   9.112   1.807   5.607
 6400SOL    HW221098   9.153   1.838   5.750
 6401SOL     OW21099   9.138   1.008  14.359
 6401SOL    HW121100   9.105   1.041  14.443
 6401SOL    HW221101   9.188   0.930  14.382
 6402SOL     OW21102   5.360  10.980   5.747
 6402SOL    HW121103   5.410  11.040   5.693
 6402SOL    HW221104   5.308  10.929   5.685
 6403SOL     OW21105   2.627  11.527   9.003
 6403SOL    HW121106   2.553  11.530   9.064
 6403SOL    HW221107   2.633  11.435   8.978
 6404SOL     OW21108   5.383   3.647  13.205
 6404SOL    HW121109   5.354   3.737  13.193
 6404SOL    HW221110   5.314   3.593  13.166
 6405SOL     OW21111   0.586   1.448  13.223
 6405SOL    HW121112   0.597   1.370  13.168
 6405SOL    HW221113   0.521   1.422  13.289
 6406SOL     OW21114   6.403   6.190   2.881
 6406SOL    HW121115   6.437   6.242   2.954
 6406SOL    HW221116   6.480   6.172   2.826
 6407SOL     OW21117   0.456  13.258   5.537
 6407SOL    HW121118   0.493  13.171   5.524
 6407SOL    HW221119   0.526  13.309   5.578
 6408SOL     OW21120   0.971   7.978  12.382
 6408SOL    HW121121   1.045   7.996  12.325
 6408SOL    HW221122   0.948   7.887  12.364
 6409SOL     OW21123   3.926   1.105  14.375
 6409SOL    HW121124   3.991   1.080  14.441
 6409SOL    HW221125   3.975   1.160  14.313
 6410SOL     OW21126   1.272   3.221  13.071
 6410SOL    HW121127   1.197   3.236  13.013
 6410SOL    HW221128   1.288   3.306  13.113
 6411SOL     OW21129  12.637  11.463  13.339
 6411SOL    HW121130  12.699  11.535  13.336
 6411SOL    HW221131  12.598  11.469  13.426
 6412SOL     OW21132   2.623   7.188  12.385
 6412SOL    HW121133   2.539   7.144  12.375
 6412SOL    HW221134   2.688   7.120  12.369
 6413SOL     OW21135  10.008   5.988   5.617
 6413SOL    HW121136  10.030   6.076   5.586
 6413SOL    HW221137   9.985   5.940   5.538
 6414SOL     OW21138   7.728   6.032  14.103
 6414SOL    HW121139   7.785   6.106  14.122
 6414SOL    HW221140   7.773   5.957  14.142
 6415SOL     OW21141   7.510  11.086  14.338
 6415SOL    HW121142   7.547  11.043  14.261
 6415SOL    HW221143   7.505  11.179  14.315
 6416SOL     OW21144   0.486  12.876   5.926
 6416SOL    HW121145   0.458  12.803   5.870
 6416SOL    HW221146   0.470  12.954   5.874
 6417SOL     OW21147   4.425   3.582   5.481
 6417SOL    HW121148   4.439   3.500   5.434
 6417SOL    HW221149   4.383   3.555   5.563
 6418SOL     OW21150  11.793  11.812  14.515
 6418SOL    HW121151  11.791  11.726  14.474
 6418SOL    HW221152  11.841  11.867  14.453
 6419SOL     OW21153  11.909  10.647   0.978
 6419SOL    HW121154  11.828  10.662   0.929
 6419SOL    HW221155  11.972  10.708   0.940
 6420SOL     OW21156   4.919   3.030   3.394
 6420SOL    HW121157   4.936   3.122   3.378
 6420SOL    HW221158   4.834   3.014   3.354
 6421SOL     OW21159  14.171   2.843  14.849
 6421SOL    HW121160  14.224   2.823   0.054
 6421SOL    HW221161  14.124   2.923   0.001
 6422SOL     OW21162  10.356   1.891   1.899
 6422SOL    HW121163  10.425   1.904   1.964
 6422SOL    HW221164  10.297   1.827   1.939
 6423SOL     OW21165   1.051  10.874  10.911
 6423SOL    HW121166   0.959  10.848  10.909
 6423SOL    HW221167   1.076  10.867  11.003
 6424SOL     OW21168  11.343   9.490  14.669
 6424SOL    HW121169  11.295   9.545  14.607
 6424SOL    HW221170  11.324   9.528  14.755
 6425SOL     OW21171  11.298   8.606   7.083
 6425SOL    HW121172  11.228   8.639   7.140
 6425SOL    HW221173  11.306   8.513   7.108
 6426SOL     OW21174   3.461   6.881   9.675
 6426SOL    HW121175   3.556   6.885   9.676
 6426SOL    HW221176   3.437   6.876   9.768
 6427SOL     OW21177   9.695   0.896   9.047
 6427SOL    HW121178   9.607   0.910   9.011
 6427SOL    HW221179   9.684   0.902   9.141
 6428SOL     OW21180  13.571   3.531  12.907
 6428SOL    HW121181  13.640   3.575  12.957
 6428SOL    HW221182  13.544   3.595  12.842
 6429SOL     OW21183  10.746   0.430   4.830
 6429SOL    HW121184  10.822   0.472   4.788
 6429SOL    HW221185  10.670   0.466   4.784
 6430SOL     OW21186   5.393   3.751   6.886
 6430SOL    HW121187   5.384   3.720   6.795
 6430SOL    HW221188   5.409   3.672   6.937
 6431SOL     OW21189  11.173  11.992   8.277
 6431SOL    HW121190  11.186  12.068   8.334
 6431SOL    HW221191  11.259  11.976   8.239
 6432SOL     OW21192   6.119   3.002   8.296
 6432SOL    HW121193   6.176   3.078   8.290
 6432SOL    HW221194   6.129   2.958   8.212
 6433SOL     OW21195  10.422   9.228  10.297
 6433SOL    HW121196  10.403   9.247  10.206
 6433SOL    HW221197  10.507   9.268  10.314
 6434SOL     OW21198  14.171  13.697   2.101
 6434SOL    HW121199  14.161  13.659   2.188
 6434SOL    HW221200  14.106  13.767   2.098
 6435SOL     OW21201  10.107   5.268   0.532
 6435SOL    HW121202  10.157   5.346   0.558
 6435SOL    HW221203  10.143   5.198   0.586
 6436SOL     OW21204   7.882  11.118  13.622
 6436SOL    HW121205   7.887  11.198  13.570
 6436SOL    HW221206   7.803  11.129  13.676
 6437SOL     OW21207  11.815  14.438   0.088
 6437SOL    HW121208  11.774  14.415   0.005
 6437SOL    HW221209  11.777  14.523   0.112
 6438SOL     OW21210   4.418   8.610   5.721
 6438SOL    HW121211   4.397   8.593   5.629
 6438SOL    HW221212   4.513   8.620   5.722
 6439SOL     OW21213  13.658   5.318   8.086
 6439SOL    HW121214  13.723   5.378   8.122
 6439SOL    HW221215  13.574   5.362   8.099
 6440SOL     OW21216   6.437  12.748   5.577
 6440SOL    HW121217   6.473  12.809   5.641
 6440SOL    HW221218   6.347  12.733   5.606
 6441SOL     OW21219  12.521   5.875  11.564
 6441SOL    HW121220  12.491   5.904  11.650
 6441SOL    HW221221  12.440   5.857  11.515
 6442SOL     OW21222  11.733   8.915   7.550
 6442SOL    HW121223  11.693   8.830   7.571
 6442SOL    HW221224  11.793   8.931   7.623
 6443SOL     OW21225   7.980   1.338  13.731
 6443SOL    HW121226   7.897   1.360  13.775
 6443SOL    HW221227   8.047   1.377  13.786
 6444SOL     OW21228  10.344  12.472   8.697
 6444SOL    HW121229  10.295  12.485   8.778
 6444SOL    HW221230  10.299  12.400   8.653
 6445SOL     OW21231   9.525  11.085  14.509
 6445SOL    HW121232   9.505  11.038  14.590
 6445SOL    HW221233   9.448  11.140  14.494
 6446SOL     OW21234  10.032   9.555  10.106
 6446SOL    HW121235  10.080   9.497  10.047
 6446SOL    HW221236   9.943   9.557  10.069
 6447SOL     OW21237   9.072   4.708  10.070
 6447SOL    HW121238   9.033   4.795  10.057
 6447SOL    HW221239   9.152   4.710  10.018
 6448SOL     OW21240   2.998   2.806   8.159
 6448SOL    HW121241   3.020   2.742   8.226
 6448SOL    HW221242   3.080   2.818   8.110
 6449SOL     OW21243  10.233  12.071  10.454
 6449SOL    HW121244  10.202  12.161  10.460
 6449SOL    HW221245  10.201  12.029  10.534
 6450SOL     OW21246   6.250  11.807   8.643
 6450SOL    HW121247   6.318  11.782   8.581
 6450SOL    HW221248   6.260  11.902   8.652
 6451SOL     OW21249  12.676   1.675   4.778
 6451SOL    HW121250  12.683   1.637   4.866
 6451SOL    HW221251  12.588   1.713   4.776
 6452SOL     OW21252   7.227  10.677   9.438
 6452SOL    HW121253   7.208  10.590   9.402
 6452SOL    HW221254   7.244  10.660   9.531
 6453SOL     OW21255  12.757  13.495   9.550
 6453SOL    HW121256  12.693  13.564   9.531
 6453SOL    HW221257  12.716  13.442   9.618
 6454SOL     OW21258   3.903   5.734   8.225
 6454SOL    HW121259   3.960   5.692   8.289
 6454SOL    HW221260   3.897   5.671   8.153
 6455SOL     OW21261   5.211   5.712   7.237
 6455SOL    HW121262   5.215   5.617   7.248
 6455SOL    HW221263   5.144   5.725   7.170
 6456SOL     OW21264  13.584  14.486   8.983
 6456SOL    HW121265  13.612  14.556   9.043
 6456SOL    HW221266  13.641  14.413   9.004
 6457SOL     OW21267   2.119   7.273   6.424
 6457SOL    HW121268   2.062   7.349   6.413
 6457SOL    HW221269   2.197   7.294   6.373
 6458SOL     OW21270  11.533   5.636   2.515
 6458SOL    HW121271  11.559   5.565   2.573
 6458SOL    HW221272  11.484   5.593   2.444
 6459SOL     OW21273   5.029   3.833  11.987
 6459SOL    HW121274   5.051   3.902  12.050
 6459SOL    HW221275   5.010   3.756  12.040
 6460SOL     OW21276  13.937   0.463  11.430
 6460SOL    HW121277  13.959   0.542  11.480
 6460SOL    HW221278  14.006   0.400  11.453
 6461SOL     OW21279  14.257   0.822  13.680
 6461SOL    HW121280  14.167   0.790  13.676
 6461SOL    HW221281  14.278   0.825  13.773
 6462SOL     OW21282   3.601   0.945   6.010
 6462SOL    HW121283   3.667   0.986   5.954
 6462SOL    HW221284   3.518   0.981   5.980
 6463SOL     OW21285  11.302   4.690  12.171
 6463SOL    HW121286  11.292   4.636  12.250
 6463SOL    HW221287  11.393   4.677  12.145
 6464SOL     OW21288  14.841  12.697   7.895
 6464SOL    HW121289   0.027  12.679   7.820
 6464SOL    HW221290  14.794  12.776   7.871
 6465SOL     OW21291   0.056  14.006  10.894
 6465SOL    HW121292  14.864  13.936  10.902
 6465SOL    HW221293   0.131  13.966  10.849
 6466SOL     OW21294   5.543  13.873   8.639
 6466SOL    HW121295   5.490  13.944   8.676
 6466SOL    HW221296   5.545  13.893   8.545
 6467SOL     OW21297   1.504   0.026   3.102
 6467SOL    HW121298   1.478  14.871   3.189
 6467SOL    HW221299   1.449  14.847   3.043
 6468SOL     OW21300   6.517  11.911  10.014
 6468SOL    HW121301   6.431  11.893  10.053
 6468SOL    HW221302   6.519  11.858   9.935
 6469SOL     OW21303   3.992   0.718   3.873
 6469SOL    HW121304   4.007   0.625   3.859
 6469SOL    HW221305   3.995   0.729   3.968
 6470SOL     OW21306   6.099   2.172   4.778
 6470SOL    HW121307   6.033   2.143   4.840
 6470SOL    HW221308   6.053   2.230   4.718
 6471SOL     OW21309   2.972   2.964   2.885
 6471SOL    HW121310   3.014   2.966   2.971
 6471SOL    HW221311   2.904   3.031   2.889
 6472SOL     OW21312   3.145  11.229  13.960
 6472SOL    HW121313   3.236  11.200  13.971
 6472SOL    HW221314   3.098  11.185  14.031
 6473SOL     OW21315   1.538   3.569   1.686
 6473SOL    HW121316   1.530   3.664   1.693
 6473SOL    HW221317   1.532   3.551   1.592
 6474SOL     OW21318  14.331  12.070  10.948
 6474SOL    HW121319  14.245  12.110  10.933
 6474SOL    HW221320  14.371  12.069  10.861
 6475SOL     OW21321   2.340  11.683  10.140
 6475SOL    HW121322   2.290  11.607  10.111
 6475SOL    HW221323   2.370  11.660  10.228
 6476SOL     OW21324  13.748  11.729   2.839
 6476SOL    HW121325  13.706  11.815   2.840
 6476SOL    HW221326  13.676  11.668   2.822
 6477SOL     OW21327  13.569   7.091   9.483
 6477SOL    HW121328  13.475   7.094   9.502
 6477SOL    HW221329  13.610   7.076   9.568
 6478SOL     OW21330  12.625   4.942  10.428
 6478SOL    HW121331  12.608   5.011  10.492
 6478SOL    HW221332  12.720   4.929  10.431
 6479SOL     OW21333  11.273   9.354   9.499
 6479SOL    HW121334  11.293   9.368   9.406
 6479SOL    HW221335  11.268   9.442   9.536
 6480SOL     OW21336   8.530   1.329  11.318
 6480SOL    HW121337   8.477   1.407  11.338
 6480SOL    HW221338   8.620   1.361  11.319
 6481SOL     OW21339  14.566   2.543   2.409
 6481SOL    HW121340  14.640   2.585   2.366
 6481SOL    HW221341  14.594   2.533   2.500
 6482SOL     OW21342   2.760   6.772   1.782
 6482SOL    HW121343   2.711   6.850   1.758
 6482SOL    HW221344   2.789   6.790   1.872
 6483SOL     OW21345  10.276   3.399   9.154
 6483SOL    HW121346  10.223   3.479   9.146
 6483SOL    HW221347  10.361   3.429   9.186
 6484SOL     OW21348   8.888  12.506   6.119
 6484SOL    HW121349   8.879  12.528   6.027
 6484SOL    HW221350   8.936  12.580   6.157
 6485SOL     OW21351  13.315   6.761   5.738
 6485SOL    HW121352  13.248   6.810   5.691
 6485SOL    HW221353  13.341   6.819   5.809
 6486SOL     OW21354   4.466   8.408  12.748
 6486SOL    HW121355   4.473   8.341  12.681
 6486SOL    HW221356   4.404   8.372  12.812
 6487SOL     OW21357   7.393   9.332   0.909
 6487SOL    HW121358   7.429   9.316   0.822
 6487SOL    HW221359   7.455   9.291   0.969
 6488SOL     OW21360   7.519  14.633   4.658
 6488SOL    HW121361   7.463  14.568   4.702
 6488SOL    HW221362   7.463  14.710   4.648
 6489SOL     OW21363   0.883   4.705   1.868
 6489SOL    HW121364   0.876   4.771   1.937
 6489SOL    HW221365   0.828   4.633   1.898
 6490SOL     OW21366   6.757   6.687   2.289
 6490SOL    HW121367   6.695   6.701   2.218
 6490SOL    HW221368   6.825   6.752   2.274
 6491SOL     OW21369   4.049   5.299   5.877
 6491SOL    HW121370   3.964   5.253   5.871
 6491SOL    HW221371   4.090   5.283   5.792
 6492SOL     OW21372   3.579  10.910  12.364
 6492SOL    HW121373   3.614  10.975  12.425
 6492SOL    HW221374   3.649  10.897  12.300
 6493SOL     OW21375   1.534  10.733  12.635
 6493SOL    HW121376   1.629  10.734  12.648
 6493SOL    HW221377   1.513  10.819  12.598
 6494SOL     OW21378  13.446   9.025   7.208
 6494SOL    HW121379  13.535   9.029   7.174
 6494SOL    HW221380  13.404   9.105   7.176
 6495SOL     OW21381  14.828  13.502   6.090
 6495SOL    HW121382  14.819  13.430   6.151
 6495SOL    HW221383  14.747  13.502   6.040
 6496SOL     OW21384   9.977  13.194   3.976
 6496SOL    HW121385   9.954  13.168   4.065
 6496SOL    HW221386   9.988  13.112   3.929
 6497SOL     OW21387   4.591  13.725  11.666
 6497SOL    HW121388   4.654  13.767  11.724
 6497SOL    HW221389   4.548  13.658  11.720
 6498SOL     OW21390  14.246   3.445   5.979
 6498SOL    HW121391  14.223   3.376   6.042
 6498SOL    HW221392  14.220   3.526   6.021
 6499SOL     OW21393   2.577   4.834   0.921
 6499SOL    HW121394   2.617   4.820   0.835
 6499SOL    HW221395   2.574   4.747   0.960
 6500SOL     OW21396  11.218   6.360   6.209
 6500SOL    HW121397  11.129   6.329   6.190
 6500SOL    HW221398  11.224   6.445   6.164
 6501SOL     OW21399  11.541  10.368   0.138
 6501SOL    HW121400  11.464  10.325   0.174
 6501SOL    HW221401  11.602  10.297   0.119
 6502SOL     OW21402  10.073   0.983   1.762
 6502SOL    HW121403  10.149   0.925   1.766
 6502SOL    HW221404  10.037   0.969   1.675
 6503SOL     OW21405  14.674   6.952   2.681
 6503SOL    HW121406  14.734   6.942   2.607
 6503SOL    HW221407  14.634   7.038   2.670
 6504SOL     OW21408  13.080   1.792   5.491
 6504SOL    HW121409  13.018   1.770   5.561
 6504SOL    HW221410  13.123   1.872   5.522
 6505SOL     OW21411   7.211   2.302   2.368
 6505SOL    HW121412   7.155   2.278   2.442
 6505SOL    HW221413   7.160   2.279   2.291
 6506SOL     OW21414   1.359   7.321  11.257
 6506SOL    HW121415   1.427   7.269  11.301
 6506SOL    HW221416   1.286   7.322  11.319
 6507SOL     OW21417   5.620   5.999  13.797
 6507SOL    HW121418   5.568   6.075  13.825
 6507SOL    HW221419   5.620   6.004  13.702
 6508SOL     OW21420   9.586   6.363   7.687
 6508SOL    HW121421   9.577   6.371   7.592
 6508SOL    HW221422   9.628   6.445   7.714
 6509SOL     OW21423   8.346   1.147   6.172
 6509SOL    HW121424   8.428   1.195   6.175
 6509SOL    HW221425   8.301   1.180   6.094
 6510SOL     OW21426  13.542   0.729  11.286
 6510SOL    HW121427  13.510   0.777  11.363
 6510SOL    HW221428  13.541   0.794  11.216
 6511SOL     OW21429  11.250   1.217   2.082
 6511SOL    HW121430  11.231   1.133   2.038
 6511SOL    HW221431  11.329   1.248   2.039
 6512SOL     OW21432   6.176   9.615   5.757
 6512SOL    HW121433   6.117   9.658   5.820
 6512SOL    HW221434   6.255   9.669   5.758
 6513SOL     OW21435   7.080   3.204   2.033
 6513SOL    HW121436   6.997   3.217   1.987
 6513SOL    HW221437   7.066   3.124   2.085
 6514SOL     OW21438  11.123  12.720   2.595
 6514SOL    HW121439  11.044  12.666   2.603
 6514SOL    HW221440  11.099  12.790   2.534
 6515SOL     OW21441  11.166   7.832   8.136
 6515SOL    HW121442  11.076   7.819   8.105
 6515SOL    HW221443  11.190   7.920   8.106
 6516SOL     OW21444   1.286   1.511  14.412
 6516SOL    HW121445   1.355   1.467  14.363
 6516SOL    HW221446   1.272   1.456  14.489
 6517SOL     OW21447  14.102   3.250   5.472
 6517SOL    HW121448  14.158   3.307   5.526
 6517SOL    HW221449  14.043   3.310   5.426
 6518SOL     OW21450   3.415   4.149   1.205
 6518SOL    HW121451   3.420   4.198   1.288
 6518SOL    HW221452   3.325   4.162   1.175
 6519SOL     OW21453  13.407   3.186   2.138
 6519SOL    HW121454  13.378   3.135   2.214
 6519SOL    HW221455  13.488   3.228   2.168
 6520SOL     OW21456  13.747  12.357   0.130
 6520SOL    HW121457  13.691  12.416   0.079
 6520SOL    HW221458  13.770  12.407   0.208
 6521SOL     OW21459   2.728  10.306   7.935
 6521SOL    HW121460   2.658  10.240   7.932
 6521SOL    HW221461   2.715  10.357   7.855
 6522SOL     OW21462   3.366   3.724   2.048
 6522SOL    HW121463   3.306   3.788   2.008
 6522SOL    HW221464   3.315   3.685   2.119
 6523SOL     OW21465   0.447   0.101   5.844
 6523SOL    HW121466   0.390   0.081   5.919
 6523SOL    HW221467   0.522   0.043   5.854
 6524SOL     OW21468   1.048  14.822  10.542
 6524SOL    HW121469   1.119  14.804  10.481
 6524SOL    HW221470   1.068   0.037  10.577
 6525SOL     OW21471   0.922   9.825   6.683
 6525SOL    HW121472   0.976   9.850   6.608
 6525SOL    HW221473   0.905   9.732   6.671
 6526SOL     OW21474  11.534   4.208  10.819
 6526SOL    HW121475  11.513   4.261  10.742
 6526SOL    HW221476  11.628   4.219  10.831
 6527SOL     OW21477   9.959   5.157  14.240
 6527SOL    HW121478  10.052   5.169  14.223
 6527SOL    HW221479   9.955   5.105  14.320
 6528SOL     OW21480   5.254   0.637  14.395
 6528SOL    HW121481   5.270   0.684  14.313
 6528SOL    HW221482   5.238   0.705  14.460
 6529SOL     OW21483   6.317   3.819  14.154
 6529SOL    HW121484   6.329   3.881  14.081
 6529SOL    HW221485   6.406   3.789  14.174
 6530SOL     OW21486  13.425   9.275   9.459
 6530SOL    HW121487  13.497   9.242   9.514
 6530SOL    HW221488  13.438   9.231   9.375
 6531SOL     OW21489   4.656   1.215   2.156
 6531SOL    HW121490   4.632   1.123   2.155
 6531SOL    HW221491   4.576   1.262   2.133
 6532SOL     OW21492   4.376  12.458   1.153
 6532SOL    HW121493   4.341  12.485   1.238
 6532SOL    HW221494   4.300  12.454   1.096
 6533SOL     OW21495  10.806  13.752   4.813
 6533SOL    HW121496  10.823  13.749   4.908
 6533SOL    HW221497  10.881  13.798   4.776
 6534SOL     OW21498   7.630  14.492  13.447
 6534SOL    HW121499   7.712  14.496  13.497
 6534SOL    HW221500   7.567  14.538  13.502
 6535SOL     OW21501   7.828   5.402   2.074
 6535SOL    HW121502   7.831   5.327   2.133
 6535SOL    HW221503   7.793   5.473   2.128
 6536SOL     OW21504   9.147   7.928   3.831
 6536SOL    HW121505   9.063   7.936   3.785
 6536SOL    HW221506   9.187   7.850   3.793
 6537SOL     OW21507   8.250   9.913   2.065
 6537SOL    HW121508   8.205   9.879   1.988
 6537SOL    HW221509   8.196   9.987   2.094
 6538SOL     OW21510   0.556  12.822   3.854
 6538SOL    HW121511   0.521  12.734   3.838
 6538SOL    HW221512   0.650  12.812   3.843
 6539SOL     OW21513   2.605   8.603  14.371
 6539SOL    HW121514   2.687   8.591  14.420
 6539SOL    HW221515   2.624   8.675  14.311
 6540SOL     OW21516   2.003   5.267   4.668
 6540SOL    HW121517   1.981   5.176   4.646
 6540SOL    HW221518   2.091   5.262   4.706
 6541SOL     OW21519  12.509  12.878  10.044
 6541SOL    HW121520  12.597  12.851  10.020
 6541SOL    HW221521  12.464  12.892   9.961
 6542SOL     OW21522   1.074  13.578  10.271
 6542SOL    HW121523   1.168  13.585  10.254
 6542SOL    HW221524   1.068  13.536  10.356
 6543SOL     OW21525   3.406  13.758   0.612
 6543SOL    HW121526   3.466  13.761   0.686
 6543SOL    HW221527   3.422  13.839   0.564
 6544SOL     OW21528   5.159   6.284  14.705
 6544SOL    HW121529   5.119   6.350  14.762
 6544SOL    HW221530   5.203   6.224  14.766
 6545SOL     OW21531  13.560   0.536  13.308
 6545SOL    HW121532  13.540   0.630  13.301
 6545SOL    HW221533  13.489   0.493  13.261
 6546SOL     OW21534  13.877   6.201  11.595
 6546SOL    HW121535  13.920   6.211  11.680
 6546SOL    HW221536  13.797   6.254  11.603
 6547SOL     OW21537  12.229   7.024   2.369
 6547SOL    HW121538  12.306   7.009   2.313
 6547SOL    HW221539  12.189   7.102   2.332
 6548SOL     OW21540   6.584   3.414   0.363
 6548SOL    HW121541   6.517   3.454   0.419
 6548SOL    HW221542   6.658   3.399   0.421
 6549SOL     OW21543  12.016   7.481   1.522
 6549SOL    HW121544  11.927   7.504   1.549
 6549SOL    HW221545  12.005   7.444   1.435
 6550SOL     OW21546   4.441   4.769   5.389
 6550SOL    HW121547   4.350   4.754   5.363
 6550SOL    HW221548   4.436   4.838   5.455
 6551SOL     OW21549   6.939  13.162   7.405
 6551SOL    HW121550   7.031  13.187   7.408
 6551SOL    HW221551   6.936  13.075   7.446
 6552SOL     OW21552   4.907   5.469   7.245
 6552SOL    HW121553   4.888   5.559   7.218
 6552SOL    HW221554   4.824   5.422   7.234
 6553SOL     OW21555  11.274  13.819   7.152
 6553SOL    HW121556  11.249  13.780   7.068
 6553SOL    HW221557  11.230  13.764   7.217
 6554SOL     OW21558   5.647   0.841  14.484
 6554SOL    HW121559   5.665   0.904  14.414
 6554SOL    HW221560   5.707   0.769  14.466
 6555SOL     OW21561   7.214  12.682  12.746
 6555SOL    HW121562   7.200  12.730  12.827
 6555SOL    HW221563   7.154  12.607  12.752
 6556SOL     OW21564   5.490   2.647   1.683
 6556SOL    HW121565   5.556   2.591   1.642
 6556SOL    HW221566   5.533   2.680   1.763
 6557SOL     OW21567   5.609   8.432   0.190
 6557SOL    HW121568   5.677   8.368   0.170
 6557SOL    HW221569   5.654   8.517   0.189
 6558SOL     OW21570  14.707  11.687   8.303
 6558SOL    HW121571  14.769  11.720   8.368
 6558SOL    HW221572  14.760  11.674   8.225
 6559SOL     OW21573   2.305  10.616  13.651
 6559SOL    HW121574   2.233  10.570  13.608
 6559SOL    HW221575   2.383  10.591  13.601
 6560SOL     OW21576   8.838   0.163   9.167
 6560SOL    HW121577   8.916   0.115   9.194
 6560SOL    HW221578   8.807   0.116   9.090
 6561SOL     OW21579  11.630   4.535   9.107
 6561SOL    HW121580  11.676   4.452   9.099
 6561SOL    HW221581  11.537   4.510   9.112
 6562SOL     OW21582  11.953   6.373  14.002
 6562SOL    HW121583  12.033   6.396  14.049
 6562SOL    HW221584  11.883   6.411  14.055
 6563SOL     OW21585  14.315   0.366   2.740
 6563SOL    HW121586  14.404   0.399   2.735
 6563SOL    HW221587  14.321   0.286   2.791
 6564SOL     OW21588   5.625  14.428   2.068
 6564SOL    HW121589   5.683  14.502   2.047
 6564SOL    HW221590   5.594  14.447   2.156
 6565SOL     OW21591   7.749   4.718   8.642
 6565SOL    HW121592   7.726   4.628   8.622
 6565SOL    HW221593   7.760   4.760   8.556
 6566SOL     OW21594   2.722   4.783  11.534
 6566SOL    HW121595   2.689   4.862  11.492
 6566SOL    HW221596   2.780   4.814  11.603
 6567SOL     OW21597   2.357  14.587   6.894
 6567SOL    HW121598   2.380  14.677   6.913
 6567SOL    HW221599   2.386  14.537   6.970
 6568SOL     OW21600  13.725   1.872   0.887
 6568SOL    HW121601  13.720   1.844   0.796
 6568SOL    HW221602  13.812   1.912   0.895
 6569SOL     OW21603   9.476  11.931  10.298
 6569SOL    HW121604   9.465  11.858  10.359
 6569SOL    HW221605   9.535  11.991  10.344
 6570SOL     OW21606  14.652   8.379   2.646
 6570SOL    HW121607  14.602   8.458   2.668
 6570SOL    HW221608  14.616   8.311   2.701
 6571SOL     OW21609   1.368  10.277   8.564
 6571SOL    HW121610   1.390  10.211   8.498
 6571SOL    HW221611   1.307  10.336   8.519
 6572SOL     OW21612   2.170   4.074  13.837
 6572SOL    HW121613   2.192   4.120  13.756
 6572SOL    HW221614   2.123   3.996  13.809
 6573SOL     OW21615   7.789  13.994  10.891
 6573SOL    HW121616   7.852  13.928  10.864
 6573SOL    HW221617   7.820  14.023  10.977
 6574SOL     OW21618  12.076   3.004   8.173
 6574SOL    HW121619  12.065   3.033   8.264
 6574SOL    HW221620  12.157   2.954   8.174
 6575SOL     OW21621  10.065   6.035   9.359
 6575SOL    HW121622  10.145   6.058   9.406
 6575SOL    HW221623  10.087   5.956   9.309
 6576SOL     OW21624   6.110   4.720   1.060
 6576SOL    HW121625   6.072   4.743   0.975
 6576SOL    HW221626   6.042   4.742   1.124
 6577SOL     OW21627   1.497   4.903   0.477
 6577SOL    HW121628   1.560   4.894   0.549
 6577SOL    HW221629   1.416   4.868   0.512
 6578SOL     OW21630   3.616  13.305  14.195
 6578SOL    HW121631   3.537  13.359  14.197
 6578SOL    HW221632   3.636  13.295  14.102
 6579SOL     OW21633   2.290   0.032   2.619
 6579SOL    HW121634   2.292   0.045   2.714
 6579SOL    HW221635   2.363  14.844   2.602
 6580SOL     OW21636   6.298   8.844  11.235
 6580SOL    HW121637   6.242   8.767  11.237
 6580SOL    HW221638   6.281   8.888  11.318
 6581SOL     OW21639   0.181   2.657   8.525
 6581SOL    HW121640   0.201   2.734   8.578
 6581SOL    HW221641   0.260   2.604   8.529
 6582SOL     OW21642  10.629   2.212   7.139
 6582SOL    HW121643  10.611   2.303   7.117
 6582SOL    HW221644  10.663   2.214   7.228
 6583SOL     OW21645   7.913   4.721  10.203
 6583SOL    HW121646   7.898   4.724  10.109
 6583SOL    HW221647   7.990   4.777  10.218
 6584SOL     OW21648  11.363  14.041   0.839
 6584SOL    HW121649  11.276  14.002   0.831
 6584SOL    HW221650  11.386  14.030   0.931
 6585SOL     OW21651   3.417   5.078   0.218
 6585SOL    HW121652   3.430   5.091   0.124
 6585SOL    HW221653   3.385   4.988   0.225
 6586SOL     OW21654   0.047  14.224  11.715
 6586SOL    HW121655   0.127  14.223  11.767
 6586SOL    HW221656  14.848  14.225  11.780
 6587SOL     OW21657   5.715   1.505  11.015
 6587SOL    HW121658   5.692   1.592  11.046
 6587SOL    HW221659   5.710   1.450  11.093
 6588SOL     OW21660  10.535   1.100   0.181
 6588SOL    HW121661  10.561   1.068   0.094
 6588SOL    HW221662  10.500   1.188   0.165
 6589SOL     OW21663   0.037   7.613  13.314
 6589SOL    HW121664  14.819   7.645  13.325
 6589SOL    HW221665   0.092   7.686  13.343
 6590SOL     OW21666  13.989   8.323   7.815
 6590SOL    HW121667  13.945   8.265   7.753
 6590SOL    HW221668  13.919   8.365   7.863
 6591SOL     OW21669   3.642   4.820   9.621
 6591SOL    HW121670   3.561   4.778   9.650
 6591SOL    HW221671   3.708   4.789   9.683
 6592SOL     OW21672   8.924  14.563  10.517
 6592SOL    HW121673   8.874  14.566  10.435
 6592SOL    HW221674   8.948  14.471  10.527
 6593SOL     OW21675  13.337   1.544   0.394
 6593SOL    HW121676  13.369   1.454   0.400
 6593SOL    HW221677  13.271   1.541   0.325
 6594SOL     OW21678   6.689   1.424   4.174
 6594SOL    HW121679   6.619   1.397   4.115
 6594SOL    HW221680   6.670   1.515   4.194
 6595SOL     OW21681   4.105   7.558   4.675
 6595SOL    HW121682   4.104   7.616   4.598
 6595SOL    HW221683   4.175   7.496   4.657
 6596SOL     OW21684   2.689   3.727  13.489
 6596SOL    HW121685   2.667   3.807  13.442
 6596SOL    HW221686   2.648   3.657  13.438
 6597SOL     OW21687   7.552  11.043   3.957
 6597SOL    HW121688   7.530  11.133   3.932
 6597SOL    HW221689   7.478  11.015   4.012
 6598SOL     OW21690   5.449   8.149   8.777
 6598SOL    HW121691   5.387   8.082   8.805
 6598SOL    HW221692   5.409   8.187   8.698
 6599SOL     OW21693  12.815   1.051   1.293
 6599SOL    HW121694  12.719   1.045   1.299
 6599SOL    HW221695  12.840   1.104   1.368
 6600SOL     OW21696   4.579  14.073  13.665
 6600SOL    HW121697   4.666  14.105  13.639
 6600SOL    HW221698   4.526  14.152  13.673
 6601SOL     OW21699   5.767   3.819   0.021
 6601SOL    HW121700   5.739   3.745   0.074
 6601SOL    HW221701   5.756   3.790  14.803
 6602SOL     OW21702   9.282  10.909   3.014
 6602SOL    HW121703   9.358  10.959   2.985
 6602SOL    HW221704   9.209  10.942   2.961
 6603SOL     OW21705   6.015   6.502   6.197
 6603SOL    HW121706   6.076   6.562   6.239
 6603SOL    HW221707   6.004   6.537   6.109
 6604SOL     OW21708   7.938   7.868   9.745
 6604SOL    HW121709   7.935   7.773   9.734
 6604SOL    HW221710   7.876   7.902   9.680
 6605SOL     OW21711  13.151   2.466  10.171
 6605SOL    HW121712  13.231   2.519  10.164
 6605SOL    HW221713  13.181   2.376  10.156
 6606SOL     OW21714   2.596   9.853   1.734
 6606SOL    HW121715   2.529   9.845   1.802
 6606SOL    HW221716   2.606   9.948   1.721
 6607SOL     OW21717   0.897   6.251   1.646
 6607SOL    HW121718   0.810   6.292   1.641
 6607SOL    HW221719   0.944   6.302   1.711
 6608SOL     OW21720  12.993  14.732   7.388
 6608SOL    HW121721  12.910  14.741   7.435
 6608SOL    HW221722  12.970  14.742   7.296
 6609SOL     OW21723   2.557  13.596   1.329
 6609SOL    HW121724   2.605  13.534   1.274
 6609SOL    HW221725   2.625  13.648   1.372
 6610SOL     OW21726   5.316   9.185   7.685
 6610SOL    HW121727   5.268   9.234   7.619
 6610SOL    HW221728   5.382   9.136   7.636
 6611SOL     OW21729   3.383   7.850   7.430
 6611SOL    HW121730   3.302   7.813   7.397
 6611SOL    HW221731   3.452   7.808   7.378
 6612SOL     OW21732   0.969  10.911   0.133
 6612SOL    HW121733   0.876  10.894   0.122
 6612SOL    HW221734   1.013  10.836   0.092
 6613SOL     OW21735   5.755   5.548   0.637
 6613SOL    HW121736   5.733   5.641   0.643
 6613SOL    HW221737   5.849   5.547   0.622
 6614SOL     OW21738   4.019   9.160  13.860
 6614SOL    HW121739   4.041   9.239  13.910
 6614SOL    HW221740   4.046   9.088  13.916
 6615SOL     OW21741   5.523   9.764   9.783
 6615SOL    HW121742   5.449   9.706   9.765
 6615SOL    HW221743   5.561   9.730   9.864
 6616SOL     OW21744  12.818  12.454   6.636
 6616SOL    HW121745  12.853  12.443   6.547
 6616SOL    HW221746  12.740  12.509   6.623
 6617SOL     OW21747   0.946   7.920  13.865
 6617SOL    HW121748   0.910   8.007  13.847
 6617SOL    HW221749   0.974   7.887  13.780
 6618SOL     OW21750   8.879   7.242  12.088
 6618SOL    HW121751   8.861   7.302  12.015
 6618SOL    HW221752   8.805   7.255  12.148
 6619SOL     OW21753   9.688   9.788   5.030
 6619SOL    HW121754   9.733   9.873   5.027
 6619SOL    HW221755   9.740   9.735   5.090
 6620SOL     OW21756   6.583   6.460  12.636
 6620SOL    HW121757   6.581   6.381  12.689
 6620SOL    HW221758   6.558   6.432  12.548
 6621SOL     OW21759   8.962   0.819   2.030
 6621SOL    HW121760   9.023   0.768   2.083
 6621SOL    HW221761   8.884   0.764   2.022
 6622SOL     OW21762   2.533  13.296   4.070
 6622SOL    HW121763   2.529  13.333   3.982
 6622SOL    HW221764   2.507  13.205   4.059
 6623SOL     OW21765   9.254   4.558   3.453
 6623SOL    HW121766   9.229   4.636   3.404
 6623SOL    HW221767   9.337   4.581   3.494
 6624SOL     OW21768  13.310  13.926  13.898
 6624SOL    HW121769  13.224  13.925  13.940
 6624SOL    HW221770  13.311  14.007  13.847
 6625SOL     OW21771   8.105  10.795   7.955
 6625SOL    HW121772   8.169  10.861   7.982
 6625SOL    HW221773   8.158  10.718   7.935
 6626SOL     OW21774   7.059  14.248   2.592
 6626SOL    HW121775   7.010  14.290   2.664
 6626SOL    HW221776   6.992  14.201   2.543
 6627SOL     OW21777   1.951   2.897  14.383
 6627SOL    HW121778   2.006   2.960  14.430
 6627SOL    HW221779   1.945   2.931  14.294
 6628SOL     OW21780  11.734  14.334  13.055
 6628SOL    HW121781  11.767  14.244  13.055
 6628SOL    HW221782  11.717  14.353  12.962
 6629SOL     OW21783  10.335   4.826  10.689
 6629SOL    HW121784  10.242   4.816  10.709
 6629SOL    HW221785  10.357   4.747  10.639
 6630SOL     OW21786   8.179   3.396   0.604
 6630SOL    HW121787   8.204   3.431   0.689
 6630SOL    HW221788   8.231   3.316   0.594
 6631SOL     OW21789   5.250   9.836   2.266
 6631SOL    HW121790   5.277   9.759   2.216
 6631SOL    HW221791   5.180   9.804   2.323
 6632SOL     OW21792   1.252  10.577   9.306
 6632SOL    HW121793   1.324  10.588   9.369
 6632SOL    HW221794   1.233  10.666   9.277
 6633SOL     OW21795   5.516   8.944   5.585
 6633SOL    HW121796   5.445   8.907   5.638
 6633SOL    HW221797   5.558   8.868   5.544
 6634SOL     OW21798  12.650   3.824  12.017
 6634SOL    HW121799  12.623   3.738  12.050
 6634SOL    HW221800  12.662   3.876  12.096
 6635SOL     OW21801   6.770   4.539   6.116
 6635SOL    HW121802   6.772   4.635   6.114
 6635SOL    HW221803   6.847   4.515   6.167
 6636SOL     OW21804   4.597   5.732   1.777
 6636SOL    HW121805   4.504   5.717   1.793
 6636SOL    HW221806   4.603   5.823   1.750
 6637SOL     OW21807   8.816  10.829   6.035
 6637SOL    HW121808   8.757  10.778   6.091
 6637SOL    HW221809   8.901  10.787   6.045
 6638SOL     OW21810   8.260   4.923  12.556
 6638SOL    HW121811   8.251   4.861  12.629
 6638SOL    HW221812   8.212   5.001  12.585
 6639SOL     OW21813   3.852   2.498  14.101
 6639SOL    HW121814   3.809   2.509  14.186
 6639SOL    HW221815   3.790   2.535  14.038
 6640SOL     OW21816  10.006   7.393   1.013
 6640SOL    HW121817   9.938   7.428   1.071
 6640SOL    HW221818  10.021   7.463   0.950
 6641SOL     OW21819   5.925   6.674  14.116
 6641SOL    HW121820   5.852   6.659  14.176
 6641SOL    HW221821   6.002   6.643  14.164
 6642SOL     OW21822   6.544  13.882   7.666
 6642SOL    HW121823   6.487  13.812   7.633
 6642SOL    HW221824   6.485  13.940   7.714
 6643SOL     OW21825   3.100   5.782   2.486
 6643SOL    HW121826   3.173   5.828   2.444
 6643SOL    HW221827   3.137   5.749   2.568
 6644SOL     OW21828   7.324   9.537   5.561
 6644SOL    HW121829   7.242   9.538   5.610
 6644SOL    HW221830   7.305   9.588   5.482
 6645SOL     OW21831  13.022  11.204   0.464
 6645SOL    HW121832  12.929  11.193   0.441
 6645SOL    HW221833  13.057  11.115   0.464
 6646SOL     OW21834  13.908   0.038  11.418
 6646SOL    HW121835  13.823   0.082  11.417
 6646SOL    HW221836  13.907  14.855  11.340
 6647SOL     OW21837  13.955  10.360   4.997
 6647SOL    HW121838  14.043  10.364   4.961
 6647SOL    HW221839  13.947  10.272   5.032
 6648SOL     OW21840  10.590  14.721   5.413
 6648SOL    HW121841  10.590  14.688   5.323
 6648SOL    HW221842  10.608  14.645   5.467
 6649SOL     OW21843  13.325   8.530   8.030
 6649SOL    HW121844  13.408   8.578   8.028
 6649SOL    HW221845  13.261   8.590   7.992
 6650SOL     OW21846   4.729  11.710  12.694
 6650SOL    HW121847   4.787  11.647  12.737
 6650SOL    HW221848   4.754  11.706  12.601
 6651SOL     OW21849   5.268   3.894   5.844
 6651SOL    HW121850   5.213   3.968   5.869
 6651SOL    HW221851   5.259   3.888   5.749
 6652SOL     OW21852   2.641   4.355   2.266
 6652SOL    HW121853   2.708   4.352   2.334
 6652SOL    HW221854   2.640   4.268   2.228
 6653SOL     OW21855  13.883   6.856  11.998
 6653SOL    HW121856  13.921   6.891  12.078
 6653SOL    HW221857  13.879   6.931  11.938
 6654SOL     OW21858   6.329  11.005   1.978
 6654SOL    HW121859   6.362  11.041   1.896
 6654SOL    HW221860   6.382  10.926   1.993
 6655SOL     OW21861   3.890   4.551   3.158
 6655SOL    HW121862   3.824   4.485   3.139
 6655SOL    HW221863   3.971   4.517   3.121
 6656SOL     OW21864   7.042  14.317   3.595
 6656SOL    HW121865   6.971  14.381   3.596
 6656SOL    HW221866   7.001  14.236   3.625
 6657SOL     OW21867   3.573   7.962   4.587
 6657SOL    HW121868   3.543   7.873   4.570
 6657SOL    HW221869   3.544   8.013   4.511
 6658SOL     OW21870   1.227   2.935   7.287
 6658SOL    HW121871   1.322   2.927   7.284
 6658SOL    HW221872   1.201   2.884   7.364
 6659SOL     OW21873   3.016  14.536  14.087
 6659SOL    HW121874   3.014  14.551  13.992
 6659SOL    HW221875   2.926  14.512  14.108
 6660SOL     OW21876  13.782   6.099   1.011
 6660SOL    HW121877  13.779   6.054   1.096
 6660SOL    HW221878  13.747   6.035   0.949
 6661SOL     OW21879   3.655   2.401   2.159
 6661SOL    HW121880   3.577   2.360   2.121
 6661SOL    HW221881   3.628   2.426   2.247
 6662SOL     OW21882   2.820  13.730  14.580
 6662SOL    HW121883   2.861  13.816  14.570
 6662SOL    HW221884   2.763  13.740  14.657
 6663SOL     OW21885   2.491   1.001  10.952
 6663SOL    HW121886   2.546   1.017  11.029
 6663SOL    HW221887   2.546   0.948  10.894
 6664SOL     OW21888   1.657  13.457  13.977
 6664SOL    HW121889   1.637  13.548  13.999
 6664SOL    HW221890   1.651  13.410  14.060
 6665SOL     OW21891   5.047   7.044  12.396
 6665SOL    HW121892   4.981   7.067  12.331
 6665SOL    HW221893   5.030   6.952  12.416
 6666SOL     OW21894  11.409   3.909  13.714
 6666SOL    HW121895  11.441   3.863  13.636
 6666SOL    HW221896  11.488   3.936  13.760
 6667SOL     OW21897   8.282   5.370  10.560
 6667SOL    HW121898   8.239   5.389  10.643
 6667SOL    HW221899   8.334   5.291  10.577
 6668SOL     OW21900   2.116  12.698  13.392
 6668SOL    HW121901   2.128  12.661  13.480
 6668SOL    HW221902   2.188  12.662  13.341
 6669SOL     OW21903   9.950   5.856   3.304
 6669SOL    HW121904  10.046   5.850   3.302
 6669SOL    HW221905   9.928   5.913   3.230
 6670SOL     OW21906  13.158   8.873   8.281
 6670SOL    HW121907  13.212   8.803   8.317
 6670SOL    HW221908  13.076   8.868   8.329
 6671SOL     OW21909   4.604   6.115  11.366
 6671SOL    HW121910   4.617   6.171  11.290
 6671SOL    HW221911   4.681   6.059  11.368
 6672SOL     OW21912  14.826   4.843   4.913
 6672SOL    HW121913  14.790   4.785   4.980
 6672SOL    HW221914  14.809   4.798   4.830
 6673SOL     OW21915  10.298   6.991  13.685
 6673SOL    HW121916  10.322   6.906  13.723
 6673SOL    HW221917  10.215   7.013  13.726
 6674SOL     OW21918  12.494  14.259  10.018
 6674SOL    HW121919  12.523  14.344  10.052
 6674SOL    HW221920  12.491  14.202  10.095
 6675SOL     OW21921   3.951   9.988   1.182
 6675SOL    HW121922   3.899   9.908   1.172
 6675SOL    HW221923   3.952  10.003   1.277
 6676SOL     OW21924  10.125   4.397  14.260
 6676SOL    HW121925  10.135   4.473  14.316
 6676SOL    HW221926  10.030   4.383  14.254
 6677SOL     OW21927   1.226   0.866   8.037
 6677SOL    HW121928   1.164   0.852   8.108
 6677SOL    HW221929   1.222   0.961   8.021
 6678SOL     OW21930  11.260   5.015   5.653
 6678SOL    HW121931  11.288   5.043   5.566
 6678SOL    HW221932  11.306   5.072   5.713
 6679SOL     OW21933   0.949   3.532   1.355
 6679SOL    HW121934   1.015   3.553   1.289
 6679SOL    HW221935   0.971   3.442   1.382
 6680SOL     OW21936   3.907  10.867  13.091
 6680SOL    HW121937   3.862  10.827  13.016
 6680SOL    HW221938   3.924  10.793  13.150
 6681SOL     OW21939   1.105   9.650  11.378
 6681SOL    HW121940   1.170   9.713  11.347
 6681SOL    HW221941   1.151   9.600  11.446
 6682SOL     OW21942  14.349  13.778  14.644
 6682SOL    HW121943  14.406  13.727  14.586
 6682SOL    HW221944  14.262  13.737  14.633
 6683SOL     OW21945   8.681  14.494  13.777
 6683SOL    HW121946   8.733  14.415  13.792
 6683SOL    HW221947   8.741  14.566  13.797
 6684SOL     OW21948   0.375   5.690   3.311
 6684SOL    HW121949   0.405   5.637   3.385
 6684SOL    HW221950   0.289   5.722   3.338
 6685SOL     OW21951  11.262  13.980   4.643
 6685SOL    HW121952  11.284  13.888   4.658
 6685SOL    HW221953  11.226  14.011   4.726
 6686SOL     OW21954   5.419  11.821  14.493
 6686SOL    HW121955   5.327  11.847  14.501
 6686SOL    HW221956   5.416  11.730  14.465
 6687SOL     OW21957  11.860   5.638   0.671
 6687SOL    HW121958  11.936   5.658   0.617
 6687SOL    HW221959  11.870   5.693   0.749
 6688SOL     OW21960   1.420   3.738  14.450
 6688SOL    HW121961   1.500   3.713  14.495
 6688SOL    HW221962   1.358   3.757  14.521
 6689SOL     OW21963   5.113   7.132   3.823
 6689SOL    HW121964   5.040   7.153   3.881
 6689SOL    HW221965   5.185   7.186   3.854
 6690SOL     OW21966   7.667   5.909   3.654
 6690SOL    HW121967   7.579   5.916   3.690
 6690SOL    HW221968   7.678   5.815   3.636
 6691SOL     OW21969   1.303  10.884  11.613
 6691SOL    HW121970   1.280  10.957  11.671
 6691SOL    HW221971   1.397  10.873  11.624
 6692SOL     OW21972   4.970   8.276   3.416
 6692SOL    HW121973   5.055   8.315   3.396
 6692SOL    HW221974   4.928   8.340   3.475
 6693SOL     OW21975  14.837  13.651  13.006
 6693SOL    HW121976   0.049  13.614  12.980
 6693SOL    HW221977  14.776  13.626  12.937
 6694SOL     OW21978  14.216   3.768   8.172
 6694SOL    HW121979  14.177   3.785   8.087
 6694SOL    HW221980  14.144   3.780   8.234
 6695SOL     OW21981   0.840   5.548  14.473
 6695SOL    HW121982   0.744   5.547  14.463
 6695SOL    HW221983   0.856   5.490  14.548
 6696SOL     OW21984   2.777   8.066   8.657
 6696SOL    HW121985   2.859   8.047   8.612
 6696SOL    HW221986   2.795   8.047   8.749
 6697SOL     OW21987  11.085   5.500   7.311
 6697SOL    HW121988  11.118   5.578   7.356
 6697SOL    HW221989  11.049   5.446   7.382
 6698SOL     OW21990   8.636   6.618  13.394
 6698SOL    HW121991   8.580   6.627  13.317
 6698SOL    HW221992   8.724   6.604  13.359
 6699SOL     OW21993   9.630   1.238   9.763
 6699SOL    HW121994   9.641   1.321   9.717
 6699SOL    HW221995   9.705   1.185   9.734
 6700SOL     OW21996   4.838   0.895   4.584
 6700SOL    HW121997   4.932   0.903   4.600
 6700SOL    HW221998   4.831   0.871   4.491
 6701SOL     OW21999  14.521   1.120   0.096
 6701SOL    HW122000  14.445   1.133   0.153
 6701SOL    HW222001  14.518   1.194   0.035
 6702SOL     OW22002   2.300   8.668  12.398
 6702SOL    HW122003   2.343   8.639  12.318
 6702SOL    HW222004   2.207   8.669  12.377
 6703SOL     OW22005  13.229   5.178  13.338
 6703SOL    HW122006  13.314   5.193  13.296
 6703SOL    HW222007  13.172   5.244  13.299
 6704SOL     OW22008   1.533   5.276   2.255
 6704SOL    HW122009   1.553   5.190   2.292
 6704SOL    HW222010   1.571   5.274   2.167
 6705SOL     OW22011  13.001  10.758   6.136
 6705SOL    HW122012  12.929  10.785   6.194
 6705SOL    HW222013  13.068  10.825   6.149
 6706SOL     OW22014  14.602   8.537   8.911
 6706SOL    HW122015  14.540   8.598   8.953
 6706SOL    HW222016  14.683   8.587   8.904
 6707SOL     OW22017   1.467   4.213   2.084
 6707SOL    HW122018   1.493   4.294   2.127
 6707SOL    HW222019   1.470   4.147   2.153
 6708SOL     OW22020   0.248   4.853   0.658
 6708SOL    HW122021   0.235   4.913   0.584
 6708SOL    HW222022   0.343   4.847   0.667
 6709SOL     OW22023   0.214   3.306   1.135
 6709SOL    HW122024   0.299   3.350   1.128
 6709SOL    HW222025   0.225   3.243   1.206
 6710SOL     OW22026   4.320  11.912   2.599
 6710SOL    HW122027   4.235  11.872   2.585
 6710SOL    HW222028   4.362  11.911   2.513
 6711SOL     OW22029   2.592   6.297  12.580
 6711SOL    HW122030   2.542   6.298  12.662
 6711SOL    HW222031   2.683   6.301  12.607
 6712SOL     OW22032   8.027  13.168  14.398
 6712SOL    HW122033   8.090  13.096  14.395
 6712SOL    HW222034   8.028  13.204  14.309
 6713SOL     OW22035   7.705   7.476  10.821
 6713SOL    HW122036   7.663   7.458  10.905
 6713SOL    HW222037   7.686   7.399  10.768
 6714SOL     OW22038  13.487   7.512   7.171
 6714SOL    HW122039  13.538   7.521   7.252
 6714SOL    HW222040  13.444   7.597   7.160
 6715SOL     OW22041  14.519   2.615   1.282
 6715SOL    HW122042  14.458   2.679   1.319
 6715SOL    HW222043  14.558   2.661   1.207
 6716SOL     OW22044  10.566   0.066   0.126
 6716SOL    HW122045  10.613  14.869   0.077
 6716SOL    HW222046  10.624   0.087   0.199
 6717SOL     OW22047   0.644   2.516   7.664
 6717SOL    HW122048   0.603   2.488   7.582
 6717SOL    HW222049   0.631   2.442   7.724
 6718SOL     OW22050   4.361   3.320  12.355
 6718SOL    HW122051   4.441   3.348  12.400
 6718SOL    HW222052   4.390   3.298  12.267
 6719SOL     OW22053  11.289   6.744  12.533
 6719SOL    HW122054  11.226   6.814  12.546
 6719SOL    HW222055  11.238   6.663  12.541
 6720SOL     OW22056   1.342  12.983   0.928
 6720SOL    HW122057   1.381  12.972   1.015
 6720SOL    HW222058   1.296  13.067   0.933
 6721SOL     OW22059   4.365   8.231  13.775
 6721SOL    HW122060   4.350   8.138  13.789
 6721SOL    HW222061   4.377   8.267  13.863
 6722SOL     OW22062   2.242  11.425   3.666
 6722SOL    HW122063   2.274  11.401   3.753
 6722SOL    HW222064   2.271  11.354   3.609
 6723SOL     OW22065   7.657  12.617   1.438
 6723SOL    HW122066   7.601  12.691   1.463
 6723SOL    HW222067   7.611  12.576   1.365
 6724SOL     OW22068   6.508   5.397  13.187
 6724SOL    HW122069   6.422   5.409  13.227
 6724SOL    HW222070   6.517   5.472  13.128
 6725SOL     OW22071  14.115   6.513   3.053
 6725SOL    HW122072  14.196   6.497   3.005
 6725SOL    HW222073  14.143   6.554   3.135
 6726SOL     OW22074   2.495   7.288  10.538
 6726SOL    HW122075   2.418   7.284  10.482
 6726SOL    HW222076   2.462   7.274  10.627
 6727SOL     OW22077   5.112   2.662  10.540
 6727SOL    HW122078   5.032   2.626  10.501
 6727SOL    HW222079   5.123   2.747  10.498
 6728SOL     OW22080   0.613  12.468   7.069
 6728SOL    HW122081   0.662  12.409   7.012
 6728SOL    HW222082   0.660  12.467   7.152
 6729SOL     OW22083  14.084  13.989   2.601
 6729SOL    HW122084  14.093  14.012   2.509
 6729SOL    HW222085  14.066  14.072   2.645
 6730SOL     OW22086   9.959  14.580  14.352
 6730SOL    HW122087   9.880  14.534  14.326
 6730SOL    HW222088   9.946  14.670  14.323
 6731SOL     OW22089  14.560   7.492   9.924
 6731SOL    HW122090  14.637   7.531   9.881
 6731SOL    HW222091  14.545   7.549  10.000
 6732SOL     OW22092   6.210   3.033   4.401
 6732SOL    HW122093   6.262   3.082   4.465
 6732SOL    HW222094   6.124   3.076   4.402
 6733SOL     OW22095  14.778   2.355   2.486
 6733SOL    HW122096  14.700   2.354   2.541
 6733SOL    HW222097  14.749   2.319   2.402
 6734SOL     OW22098   3.674  12.096   4.691
 6734SOL    HW122099   3.687  12.190   4.681
 6734SOL    HW222100   3.662  12.084   4.785
 6735SOL     OW22101   3.149   1.168   9.462
 6735SOL    HW122102   3.135   1.261   9.446
 6735SOL    HW222103   3.177   1.133   9.377
 6736SOL     OW22104   8.401  10.666   5.904
 6736SOL    HW122105   8.451  10.712   5.971
 6736SOL    HW222106   8.432  10.576   5.909
 6737SOL     OW22107   3.229   9.329  11.544
 6737SOL    HW122108   3.177   9.249  11.543
 6737SOL    HW222109   3.280   9.326  11.463
 6738SOL     OW22110  13.504  13.574  13.619
 6738SOL    HW122111  13.590  13.543  13.648
 6738SOL    HW222112  13.523  13.633  13.546
 6739SOL     OW22113  14.276   5.522   6.312
 6739SOL    HW122114  14.232   5.548   6.393
 6739SOL    HW222115  14.355   5.476   6.341
 6740SOL     OW22116   2.438   8.694   5.084
 6740SOL    HW122117   2.468   8.622   5.139
 6740SOL    HW222118   2.452   8.664   4.994
 6741SOL     OW22119   1.065   4.090   2.218
 6741SOL    HW122120   1.014   4.158   2.262
 6741SOL    HW222121   1.154   4.126   2.213
 6742SOL     OW22122   6.584   4.170   8.450
 6742SOL    HW122123   6.515   4.116   8.489
 6742SOL    HW222124   6.664   4.119   8.459
 6743SOL     OW22125   1.898   4.679   9.954
 6743SOL    HW122126   1.902   4.746   9.887
 6743SOL    HW222127   1.989   4.669   9.984
 6744SOL     OW22128   9.368   0.592   9.366
 6744SOL    HW122129   9.388   0.586   9.273
 6744SOL    HW222130   9.274   0.605   9.371
 6745SOL     OW22131   3.191  13.638   3.934
 6745SOL    HW122132   3.236  13.716   3.967
 6745SOL    HW222133   3.251  13.566   3.952
 6746SOL     OW22134   4.072   7.363   3.807
 6746SOL    HW122135   4.114   7.334   3.888
 6746SOL    HW222136   4.141   7.409   3.760
 6747SOL     OW22137   5.231  11.971   8.661
 6747SOL    HW122138   5.318  11.993   8.627
 6747SOL    HW222139   5.170  12.003   8.594
 6748SOL     OW22140  10.734   4.381   3.053
 6748SOL    HW122141  10.750   4.321   3.126
 6748SOL    HW222142  10.641   4.401   3.059
 6749SOL     OW22143  12.542   8.208  13.782
 6749SOL    HW122144  12.585   8.148  13.843
 6749SOL    HW222145  12.449   8.205  13.808
 6750SOL     OW22146  10.650   3.245   9.807
 6750SOL    HW122147  10.625   3.176   9.746
 6750SOL    HW222148  10.570   3.268   9.853
 6751SOL     OW22149   7.092   9.911   8.975
 6751SOL    HW122150   7.076  10.005   8.983
 6751SOL    HW222151   7.038   9.872   9.044
 6752SOL     OW22152  13.445  13.004   3.431
 6752SOL    HW122153  13.415  13.040   3.347
 6752SOL    HW222154  13.481  13.080   3.478
 6753SOL     OW22155   8.757   0.622   1.957
 6753SOL    HW122156   8.662   0.631   1.951
 6753SOL    HW222157   8.784   0.594   1.870
 6754SOL     OW22158   9.955   1.692  14.722
 6754SOL    HW122159  10.011   1.615  14.718
 6754SOL    HW222160   9.928   1.697  14.814
 6755SOL     OW22161  13.157   7.560  13.414
 6755SOL    HW122162  13.122   7.474  13.388
 6755SOL    HW222163  13.209   7.541  13.493
 6756SOL     OW22164   2.165   2.723   2.420
 6756SOL    HW122165   2.210   2.754   2.341
 6756SOL    HW222166   2.205   2.638   2.438
 6757SOL     OW22167  10.375  10.939   2.467
 6757SOL    HW122168  10.361  10.984   2.550
 6757SOL    HW222169  10.430  10.864   2.489
 6758SOL     OW22170   6.433   0.875  11.218
 6758SOL    HW122171   6.439   0.794  11.268
 6758SOL    HW222172   6.470   0.942  11.276
 6759SOL     OW22173   6.376   5.476  12.062
 6759SOL    HW122174   6.300   5.534  12.060
 6759SOL    HW222175   6.437   5.514  11.999
 6760SOL     OW22176   9.566   5.353  12.330
 6760SOL    HW122177   9.557   5.446  12.354
 6760SOL    HW222178   9.492   5.310  12.373
 6761SOL     OW22179   6.337   5.231   4.588
 6761SOL    HW122180   6.284   5.280   4.525
 6761SOL    HW222181   6.274   5.197   4.651
 6762SOL     OW22182  10.008  12.995   0.533
 6762SOL    HW122183  10.026  13.061   0.466
 6762SOL    HW222184  10.094  12.975   0.570
 6763SOL     OW22185  11.543   6.205   6.853
 6763SOL    HW122186  11.466   6.157   6.826
 6763SOL    HW222187  11.597   6.141   6.900
 6764SOL     OW22188   2.171   9.181  13.030
 6764SOL    HW122189   2.204   9.094  13.010
 6764SOL    HW222190   2.212   9.204  13.113
 6765SOL     OW22191   1.841  12.125   4.100
 6765SOL    HW122192   1.784  12.049   4.083
 6765SOL    HW222193   1.847  12.169   4.015
 6766SOL     OW22194   7.745   8.542  10.182
 6766SOL    HW122195   7.650   8.545  10.195
 6766SOL    HW222196   7.758   8.564  10.090
 6767SOL     OW22197  11.106   2.483  11.796
 6767SOL    HW122198  11.087   2.550  11.731
 6767SOL    HW222199  11.024   2.473  11.845
 6768SOL     OW22200   2.983  11.586   9.447
 6768SOL    HW122201   3.056  11.611   9.391
 6768SOL    HW222202   2.907  11.584   9.389
 6769SOL     OW22203   8.897  11.374  14.131
 6769SOL    HW122204   8.867  11.463  14.110
 6769SOL    HW222205   8.928  11.339  14.048
 6770SOL     OW22206   6.016   2.496   1.643
 6770SOL    HW122207   6.000   2.576   1.694
 6770SOL    HW222208   6.050   2.434   1.707
 6771SOL     OW22209   0.632   2.475   7.950
 6771SOL    HW122210   0.633   2.544   7.884
 6771SOL    HW222211   0.541   2.445   7.952
 6772SOL     OW22212  11.991  12.726   9.083
 6772SOL    HW122213  12.008  12.795   9.019
 6772SOL    HW222214  11.896  12.723   9.091
 6773SOL     OW22215   2.799   2.819  11.807
 6773SOL    HW122216   2.825   2.732  11.839
 6773SOL    HW222217   2.725   2.802  11.749
 6774SOL     OW22218   5.088   6.221   0.634
 6774SOL    HW122219   5.005   6.191   0.598
 6774SOL    HW222220   5.103   6.166   0.711
 6775SOL     OW22221  13.209  10.247   5.919
 6775SOL    HW122222  13.175  10.186   5.853
 6775SOL    HW222223  13.203  10.198   6.001
 6776SOL     OW22224   7.567   3.098   2.647
 6776SOL    HW122225   7.578   3.074   2.555
 6776SOL    HW222226   7.609   3.183   2.655
 6777SOL     OW22227  11.813   5.222  10.371
 6777SOL    HW122228  11.887   5.268  10.412
 6777SOL    HW222229  11.852   5.178  10.296
 6778SOL     OW22230   7.087  14.480   4.955
 6778SOL    HW122231   7.050  14.391   4.948
 6778SOL    HW222232   7.011  14.538   4.947
 6779SOL     OW22233   8.135   8.210   9.594
 6779SOL    HW122234   8.155   8.116   9.595
 6779SOL    HW222235   8.152   8.237   9.504
 6780SOL     OW22236   1.381   0.727  12.022
 6780SOL    HW122237   1.451   0.677  11.980
 6780SOL    HW222238   1.407   0.731  12.114
 6781SOL     OW22239  11.535   7.112   5.181
 6781SOL    HW122240  11.500   7.162   5.255
 6781SOL    HW222241  11.467   7.119   5.113
 6782SOL     OW22242   3.933   7.115   7.483
 6782SOL    HW122243   3.960   7.124   7.574
 6782SOL    HW222244   3.840   7.134   7.483
 6783SOL     OW22245  12.015  14.855   4.844
 6783SOL    HW122246  11.961  14.780   4.817
 6783SOL    HW222247  11.955   0.058   4.843
 6784SOL     OW22248  14.072   8.793   4.250
 6784SOL    HW122249  14.128   8.723   4.283
 6784SOL    HW222250  13.998   8.794   4.311
 6785SOL     OW22251   6.970   9.970  12.442
 6785SOL    HW122252   6.978   9.895  12.500
 6785SOL    HW222253   6.888   9.956  12.395
 6786SOL     OW22254  13.379   3.247  10.961
 6786SOL    HW122255  13.290   3.278  10.980
 6786SOL    HW222256  13.429   3.266  11.040
 6787SOL     OW22257   4.984   0.755   8.282
 6787SOL    HW122258   4.892   0.739   8.300
 6787SOL    HW222259   5.028   0.674   8.309
 6788SOL     OW22260   1.374  10.838   3.361
 6788SOL    HW122261   1.311  10.891   3.410
 6788SOL    HW222262   1.320  10.780   3.308
 6789SOL     OW22263   9.967   7.250  12.600
 6789SOL    HW122264   9.872   7.255  12.592
 6789SOL    HW222265  10.000   7.267  12.512
 6790SOL     OW22266   0.402   5.496  12.371
 6790SOL    HW122267   0.469   5.492  12.302
 6790SOL    HW222268   0.401   5.408  12.408
 6791SOL     OW22269  14.156   2.228   1.138
 6791SOL    HW122270  14.119   2.293   1.079
 6791SOL    HW222271  14.243   2.211   1.103
 6792SOL     OW22272   7.097  11.058   5.768
 6792SOL    HW122273   7.056  11.144   5.779
 6792SOL    HW222274   7.109  11.026   5.858
 6793SOL     OW22275   6.222   4.398   3.856
 6793SOL    HW122276   6.209   4.479   3.906
 6793SOL    HW222277   6.159   4.405   3.784
 6794SOL     OW22278   9.676   5.158   7.975
 6794SOL    HW122279   9.643   5.077   7.937
 6794SOL    HW222280   9.679   5.220   7.902
 6795SOL     OW22281   2.026   4.576   6.005
 6795SOL    HW122282   1.937   4.588   5.972
 6795SOL    HW222283   2.072   4.530   5.935
 6796SOL     OW22284   7.952   7.037  13.696
 6796SOL    HW122285   7.904   7.100  13.750
 6796SOL    HW222286   7.889   6.969  13.677
 6797SOL     OW22287  10.122   3.482  10.518
 6797SOL    HW122288  10.158   3.553  10.572
 6797SOL    HW222289  10.185   3.411  10.527
 6798SOL     OW22290  14.661   1.789  14.161
 6798SOL    HW122291  14.586   1.751  14.207
 6798SOL    HW222292  14.685   1.722  14.096
 6799SOL     OW22293   0.263   1.626  13.839
 6799SOL    HW122294   0.233   1.600  13.927
 6799SOL    HW222295   0.354   1.596  13.835
 6800SOL     OW22296   4.030   4.375   1.199
 6800SOL    HW122297   3.959   4.323   1.237
 6800SOL    HW222298   4.110   4.333   1.229
 6801SOL     OW22299  13.541  14.727   9.151
 6801SOL    HW122300  13.552  14.770   9.066
 6801SOL    HW222301  13.605  14.770   9.207
 6802SOL     OW22302  13.017   1.500   6.491
 6802SOL    HW122303  12.922   1.499   6.478
 6802SOL    HW222304  13.031   1.448   6.570
 6803SOL     OW22305   7.049  10.493   1.673
 6803SOL    HW122306   7.097  10.573   1.691
 6803SOL    HW222307   7.105  10.423   1.706
 6804SOL     OW22308   6.865   5.802   7.738
 6804SOL    HW122309   6.884   5.830   7.827
 6804SOL    HW222310   6.781   5.755   7.745
 6805SOL     OW22311   7.913   3.756   0.271
 6805SOL    HW122312   7.965   3.686   0.231
 6805SOL    HW222313   7.829   3.752   0.226
 6806SOL     OW22314  12.943  12.479   2.711
 6806SOL    HW122315  12.874  12.457   2.773
 6806SOL    HW222316  12.900  12.479   2.626
 6807SOL     OW22317  13.155   0.673  10.215
 6807SOL    HW122318  13.202   0.597  10.249
 6807SOL    HW222319  13.145   0.731  10.290
 6808SOL     OW22320   5.282  13.813  11.577
 6808SOL    HW122321   5.371  13.784  11.598
 6808SOL    HW222322   5.238  13.735  11.544
 6809SOL     OW22323   1.566   5.341   1.239
 6809SOL    HW122324   1.580   5.429   1.273
 6809SOL    HW222325   1.540   5.289   1.315
 6810SOL     OW22326   0.297   7.877  12.132
 6810SOL    HW122327   0.218   7.867  12.079
 6810SOL    HW222328   0.311   7.790  12.169
 6811SOL     OW22329   9.085   4.457  14.813
 6811SOL    HW122330   9.116   4.376  14.775
 6811SOL    HW222331   9.161   4.516  14.812
 6812SOL     OW22332   7.501  14.579   2.418
 6812SOL    HW122333   7.500  14.492   2.459
 6812SOL    HW222334   7.554  14.567   2.339
 6813SOL     OW22335  11.257   2.944   8.646
 6813SOL    HW122336  11.204   2.893   8.707
 6813SOL    HW222337  11.194   2.986   8.588
 6814SOL     OW22338   8.322   4.444   2.387
 6814SOL    HW122339   8.265   4.415   2.458
 6814SOL    HW222340   8.281   4.410   2.308
 6815SOL     OW22341   6.612   6.109  13.741
 6815SOL    HW122342   6.702   6.077  13.747
 6815SOL    HW222343   6.619   6.203  13.755
 6816SOL     OW22344   3.789   7.127  13.897
 6816SOL    HW122345   3.705   7.134  13.942
 6816SOL    HW222346   3.794   7.036  13.867
 6817SOL     OW22347  10.489  12.940   6.595
 6817SOL    HW122348  10.504  13.017   6.651
 6817SOL    HW222349  10.496  12.865   6.656
 6818SOL     OW22350  13.716   1.756   3.861
 6818SOL    HW122351  13.734   1.728   3.951
 6818SOL    HW222352  13.766   1.837   3.850
 6819SOL     OW22353  11.226  12.598  10.980
 6819SOL    HW122354  11.314  12.587  11.015
 6819SOL    HW222355  11.174  12.531  11.024
 6820SOL     OW22356  10.607   3.833  11.088
 6820SOL    HW122357  10.531   3.888  11.111
 6820SOL    HW222358  10.573   3.744  11.089
 6821SOL     OW22359   8.270   4.711  12.731
 6821SOL    HW122360   8.212   4.639  12.759
 6821SOL    HW222361   8.329   4.724  12.805
 6822SOL     OW22362   2.091   5.814   2.049
 6822SOL    HW122363   2.064   5.768   1.969
 6822SOL    HW222364   2.186   5.807   2.049
 6823SOL     OW22365  11.145   1.125   3.359
 6823SOL    HW122366  11.241   1.130   3.356
 6823SOL    HW222367  11.120   1.179   3.434
 6824SOL     OW22368   6.976   5.127   4.702
 6824SOL    HW122369   6.942   5.123   4.791
 6824SOL    HW222370   6.925   5.062   4.653
 6825SOL     OW22371   1.207  13.142   3.841
 6825SOL    HW122372   1.164  13.227   3.831
 6825SOL    HW222373   1.273  13.157   3.909
 6826SOL     OW22374   1.856   7.365   1.427
 6826SOL    HW122375   1.867   7.275   1.396
 6826SOL    HW222376   1.901   7.367   1.511
 6827SOL     OW22377   4.669  13.465   6.625
 6827SOL    HW122378   4.588  13.422   6.599
 6827SOL    HW222379   4.735  13.430   6.565
 6828SOL     OW22380   4.161   2.440  10.537
 6828SOL    HW122381   4.145   2.427  10.630
 6828SOL    HW222382   4.152   2.353  10.499
 6829SOL     OW22383   4.576   9.473   9.272
 6829SOL    HW122384   4.491   9.442   9.303
 6829SOL    HW222385   4.568   9.569   9.270
 6830SOL     OW22386  10.213   9.534  10.702
 6830SOL    HW122387  10.213   9.472  10.775
 6830SOL    HW222388  10.127   9.521  10.660
 6831SOL     OW22389   6.471   4.436  12.914
 6831SOL    HW122390   6.481   4.349  12.952
 6831SOL    HW222391   6.554   4.452  12.869
 6832SOL     OW22392  13.781  14.596  13.096
 6832SOL    HW122393  13.720  14.538  13.050
 6832SOL    HW222394  13.767  14.576  13.189
 6833SOL     OW22395  13.202  13.115  13.053
 6833SOL    HW122396  13.250  13.188  13.092
 6833SOL    HW222397  13.267  13.071  12.998
 6834SOL     OW22398   9.350   0.903  13.326
 6834SOL    HW122399   9.344   0.943  13.413
 6834SOL    HW222400   9.411   0.959  13.279
 6835SOL     OW22401   2.985  14.645   5.587
 6835SOL    HW122402   2.905  14.595   5.571
 6835SOL    HW222403   3.007  14.683   5.502
 6836SOL     OW22404   8.090   2.168  11.284
 6836SOL    HW122405   8.026   2.239  11.275
 6836SOL    HW222406   8.039   2.094  11.317
 6837SOL     OW22407   3.385   7.221   6.574
 6837SOL    HW122408   3.481   7.218   6.574
 6837SOL    HW222409   3.360   7.170   6.497
 6838SOL     OW22410   4.659   0.617   6.691
 6838SOL    HW122411   4.568   0.587   6.692
 6838SOL    HW222412   4.694   0.587   6.607
 6839SOL     OW22413  12.674  12.407   3.550
 6839SOL    HW122414  12.742  12.365   3.603
 6839SOL    HW222415  12.652  12.487   3.599
 6840SOL     OW22416   5.773   6.425   1.131
 6840SOL    HW122417   5.731   6.382   1.205
 6840SOL    HW222418   5.703   6.440   1.068
 6841SOL     OW22419   2.778   7.250   5.562
 6841SOL    HW122420   2.796   7.179   5.501
 6841SOL    HW222421   2.772   7.328   5.507
 6842SOL     OW22422   9.412   0.076  14.521
 6842SOL    HW122423   9.328   0.085  14.474
 6842SOL    HW222424   9.467   0.026  14.460
 6843SOL     OW22425  12.737   3.621   6.859
 6843SOL    HW122426  12.730   3.577   6.943
 6843SOL    HW222427  12.689   3.565   6.798
 6844SOL     OW22428  11.234   1.491   7.927
 6844SOL    HW122429  11.235   1.396   7.916
 6844SOL    HW222430  11.231   1.503   8.022
 6845SOL     OW22431   9.172   6.198   1.046
 6845SOL    HW122432   9.168   6.246   0.963
 6845SOL    HW222433   9.265   6.195   1.068
 6846SOL     OW22434   2.224   8.197  14.493
 6846SOL    HW122435   2.291   8.265  14.492
 6846SOL    HW222436   2.144   8.242  14.468
 6847SOL     OW22437  14.798  10.152   8.264
 6847SOL    HW122438  14.871  10.090   8.252
 6847SOL    HW222439  14.739  10.134   8.190
 6848SOL     OW22440  14.647   2.648   6.164
 6848SOL    HW122441  14.628   2.721   6.223
 6848SOL    HW222442  14.666   2.690   6.080
 6849SOL     OW22443   9.009   4.048  10.651
 6849SOL    HW122444   8.978   4.049  10.560
 6849SOL    HW222445   8.971   3.969  10.688
 6850SOL     OW22446   9.521   7.762   8.423
 6850SOL    HW122447   9.561   7.840   8.463
 6850SOL    HW222448   9.595   7.707   8.398
 6851SOL     OW22449  11.841   8.840  12.325
 6851SOL    HW122450  11.790   8.798  12.393
 6851SOL    HW222451  11.819   8.933  12.332
 6852SOL     OW22452  11.875   3.761  13.873
 6852SOL    HW122453  11.918   3.769  13.958
 6852SOL    HW222454  11.809   3.693  13.885
 6853SOL     OW22455   6.591  12.052  10.505
 6853SOL    HW122456   6.500  12.078  10.517
 6853SOL    HW222457   6.593  12.009  10.419
 6854SOL     OW22458  14.391  14.554  11.545
 6854SOL    HW122459  14.334  14.627  11.569
 6854SOL    HW222460  14.479  14.585  11.565
 6855SOL     OW22461   5.413   2.928   9.976
 6855SOL    HW122462   5.443   3.012   9.941
 6855SOL    HW222463   5.370   2.951  10.059
 6856SOL     OW22464   0.401   0.598  12.818
 6856SOL    HW122465   0.378   0.581  12.726
 6856SOL    HW222466   0.481   0.547  12.832
 6857SOL     OW22467   2.621  11.515   9.530
 6857SOL    HW122468   2.578  11.575   9.469
 6857SOL    HW222469   2.661  11.572   9.595
 6858SOL     OW22470   4.098  11.584   8.129
 6858SOL    HW122471   4.142  11.587   8.214
 6858SOL    HW222472   4.150  11.639   8.072
 6859SOL     OW22473  14.511   7.763   7.902
 6859SOL    HW122474  14.488   7.731   7.815
 6859SOL    HW222475  14.563   7.692   7.941
 6860SOL     OW22476  10.042   3.702   6.480
 6860SOL    HW122477   9.986   3.743   6.546
 6860SOL    HW222478  10.092   3.637   6.529
 6861SOL     OW22479  13.176   3.748   7.839
 6861SOL    HW122480  13.170   3.834   7.797
 6861SOL    HW222481  13.150   3.765   7.930
 6862SOL     OW22482  12.065   3.017  14.850
 6862SOL    HW122483  12.072   3.060   0.063
 6862SOL    HW222484  12.096   3.082  14.787
 6863SOL     OW22485   0.211  13.495   7.985
 6863SOL    HW122486   0.225  13.448   8.068
 6863SOL    HW222487   0.162  13.433   7.931
 6864SOL     OW22488   4.389   6.177   6.115
 6864SOL    HW122489   4.314   6.196   6.058
 6864SOL    HW222490   4.466   6.194   6.061
 6865SOL     OW22491   7.060  12.860   8.451
 6865SOL    HW122492   7.074  12.767   8.472
 6865SOL    HW222493   6.968  12.865   8.426
 6866SOL     OW22494   7.275   7.953   4.019
 6866SOL    HW122495   7.279   8.043   3.985
 6866SOL    HW222496   7.182   7.939   4.037
 6867SOL     OW22497  12.032   8.900   4.471
 6867SOL    HW122498  12.087   8.929   4.544
 6867SOL    HW222499  11.969   8.839   4.511
 6868SOL     OW22500   3.809   4.498  12.085
 6868SOL    HW122501   3.802   4.408  12.116
 6868SOL    HW222502   3.778   4.551  12.158
 6869SOL     OW22503   2.465   9.174   9.240
 6869SOL    HW122504   2.429   9.124   9.314
 6869SOL    HW222505   2.558   9.150   9.239
 6870SOL     OW22506   5.436   6.411   3.089
 6870SOL    HW122507   5.468   6.346   3.152
 6870SOL    HW222508   5.354   6.442   3.126
 6871SOL     OW22509  13.341   0.370   5.326
 6871SOL    HW122510  13.248   0.394   5.325
 6871SOL    HW222511  13.342   0.277   5.348
 6872SOL     OW22512  12.021  14.380   3.645
 6872SOL    HW122513  11.936  14.423   3.650
 6872SOL    HW222514  12.061  14.416   3.566
 6873SOL     OW22515   9.794  11.481  12.372
 6873SOL    HW122516   9.725  11.467  12.306
 6873SOL    HW222517   9.754  11.455  12.455
 6874SOL     OW22518   3.241  12.471   5.745
 6874SOL    HW122519   3.240  12.464   5.650
 6874SOL    HW222520   3.180  12.405   5.776
 6875SOL     OW22521   0.937  13.099   2.840
 6875SOL    HW122522   0.972  13.036   2.903
 6875SOL    HW222523   0.864  13.053   2.799
 6876SOL     OW22524  13.362  10.340  13.746
 6876SOL    HW122525  13.363  10.276  13.675
 6876SOL    HW222526  13.415  10.300  13.816
 6877SOL     OW22527   1.557   7.826  12.600
 6877SOL    HW122528   1.493   7.804  12.668
 6877SOL    HW222529   1.604   7.902  12.635
 6878SOL     OW22530  10.427   1.028   6.790
 6878SOL    HW122531  10.446   1.065   6.704
 6878SOL    HW222532  10.442   1.100   6.851
 6879SOL     OW22533   0.263   1.699   4.888
 6879SOL    HW122534   0.239   1.630   4.825
 6879SOL    HW222535   0.352   1.723   4.863
 6880SOL     OW22536   3.438   8.567  10.350
 6880SOL    HW122537   3.476   8.548  10.264
 6880SOL    HW222538   3.392   8.487  10.374
 6881SOL     OW22539   4.342   1.776   5.538
 6881SOL    HW122540   4.351   1.765   5.633
 6881SOL    HW222541   4.431   1.789   5.506
 6882SOL     OW22542  10.374   0.074   5.836
 6882SOL    HW122543  10.428   0.151   5.819
 6882SOL    HW222544  10.364   0.032   5.751
 6883SOL     OW22545   3.392  13.971   6.447
 6883SOL    HW122546   3.475  13.979   6.401
 6883SOL    HW222547   3.343  14.049   6.423
 6884SOL     OW22548  10.704  12.651   7.540
 6884SOL    HW122549  10.610  12.667   7.549
 6884SOL    HW222550  10.735  12.643   7.631
 6885SOL     OW22551   7.055   9.584   0.753
 6885SOL    HW122552   7.106   9.664   0.760
 6885SOL    HW222553   6.972   9.611   0.715
 6886SOL     OW22554   5.106   9.293   0.385
 6886SOL    HW122555   5.050   9.320   0.457
 6886SOL    HW222556   5.146   9.375   0.354
 6887SOL     OW22557   8.999   6.722  10.689
 6887SOL    HW122558   8.987   6.655  10.755
 6887SOL    HW222559   9.037   6.676  10.614
 6888SOL     OW22560   7.453  14.472   7.736
 6888SOL    HW122561   7.380  14.490   7.795
 6888SOL    HW222562   7.530  14.508   7.781
 6889SOL     OW22563   3.354   1.226  13.655
 6889SOL    HW122564   3.427   1.274  13.695
 6889SOL    HW222565   3.302   1.294  13.611
 6890SOL     OW22566  11.160  13.822   6.077
 6890SOL    HW122567  11.143  13.807   5.984
 6890SOL    HW222568  11.115  13.904   6.097
 6891SOL     OW22569   4.917   5.705  10.354
 6891SOL    HW122570   4.992   5.696  10.413
 6891SOL    HW222571   4.907   5.800  10.342
 6892SOL     OW22572  10.863  13.911  12.662
 6892SOL    HW122573  10.818  13.837  12.622
 6892SOL    HW222574  10.914  13.950  12.592
 6893SOL     OW22575   6.435  10.902   9.893
 6893SOL    HW122576   6.415  10.937   9.980
 6893SOL    HW222577   6.351  10.904   9.846
 6894SOL     OW22578   3.816   2.705   1.161
 6894SOL    HW122579   3.744   2.643   1.148
 6894SOL    HW222580   3.778   2.776   1.213
 6895SOL     OW22581   3.589  14.272   3.996
 6895SOL    HW122582   3.510  14.312   3.960
 6895SOL    HW222583   3.661  14.320   3.956
 6896SOL     OW22584   2.814   5.368   3.570
 6896SOL    HW122585   2.903   5.380   3.604
 6896SOL    HW222586   2.777   5.298   3.623
 6897SOL     OW22587   8.139   8.225  11.909
 6897SOL    HW122588   8.214   8.168  11.925
 6897SOL    HW222589   8.152   8.299  11.969
 6898SOL     OW22590  10.367   8.762   4.012
 6898SOL    HW122591  10.311   8.696   3.971
 6898SOL    HW222592  10.426   8.712   4.069
 6899SOL     OW22593   0.123   6.622   0.196
 6899SOL    HW122594   0.116   6.702   0.247
 6899SOL    HW222595   0.047   6.624   0.138
 6900SOL     OW22596   1.005   1.607  14.860
 6900SOL    HW122597   0.991   1.536  14.798
 6900SOL    HW222598   1.099   1.627  14.854
 6901SOL     OW22599  11.636   1.577   5.504
 6901SOL    HW122600  11.554   1.584   5.553
 6901SOL    HW222601  11.654   1.667   5.474
 6902SOL     OW22602   7.188   8.170  12.278
 6902SOL    HW122603   7.252   8.112  12.319
 6902SOL    HW222604   7.183   8.245  12.336
 6903SOL     OW22605  10.682   0.087   0.534
 6903SOL    HW122606  10.684   0.168   0.483
 6903SOL    HW222607  10.731   0.107   0.614
 6904SOL     OW22608  13.342   9.475  11.833
 6904SOL    HW122609  13.422   9.438  11.796
 6904SOL    HW222610  13.358   9.570  11.835
 6905SOL     OW22611   9.198   7.373   8.929
 6905SOL    HW122612   9.108   7.404   8.926
 6905SOL    HW222613   9.240   7.428   8.996
 6906SOL     OW22614  12.747   8.461   2.522
 6906SOL    HW122615  12.735   8.453   2.428
 6906SOL    HW222616  12.822   8.405   2.542
 6907SOL     OW22617  11.367   0.820   1.028
 6907SOL    HW122618  11.461   0.836   1.027
 6907SOL    HW222619  11.331   0.891   0.974
 6908SOL     OW22620   8.043   7.692   1.237
 6908SOL    HW122621   8.122   7.746   1.238
 6908SOL    HW222622   8.069   7.611   1.281
 6909SOL     OW22623   8.183  13.581  12.754
 6909SOL    HW122624   8.223  13.658  12.795
 6909SOL    HW222625   8.089  13.592  12.766
 6910SOL     OW22626   8.770  11.012   2.978
 6910SOL    HW122627   8.744  11.102   2.996
 6910SOL    HW222628   8.753  10.965   3.060
 6911SOL     OW22629   7.940  13.398  10.287
 6911SOL    HW122630   7.893  13.468  10.243
 6911SOL    HW222631   8.030  13.405  10.255
 6912SOL     OW22632   2.196   4.169   5.696
 6912SOL    HW122633   2.152   4.085   5.709
 6912SOL    HW222634   2.185   4.188   5.603
 6913SOL     OW22635  13.625   3.285   2.282
 6913SOL    HW122636  13.721   3.286   2.286
 6913SOL    HW222637  13.597   3.334   2.359
 6914SOL     OW22638  13.323   3.661   1.556
 6914SOL    HW122639  13.236   3.693   1.583
 6914SOL    HW222640  13.355   3.613   1.632
 6915SOL     OW22641   8.090  10.999   9.862
 6915SOL    HW122642   8.086  11.060   9.936
 6915SOL    HW222643   8.043  11.044   9.792
 6916SOL     OW22644   5.582  13.841   4.849
 6916SOL    HW122645   5.548  13.813   4.934
 6916SOL    HW222646   5.504  13.863   4.798
 6917SOL     OW22647   1.589   8.246   8.583
 6917SOL    HW122648   1.602   8.223   8.491
 6917SOL    HW222649   1.657   8.198   8.630
 6918SOL     OW22650   5.861   7.582   3.997
 6918SOL    HW122651   5.814   7.499   3.996
 6918SOL    HW222652   5.794   7.648   3.984
 6919SOL     OW22653   3.980   6.131   6.329
 6919SOL    HW122654   4.013   6.138   6.419
 6919SOL    HW222655   3.896   6.087   6.338
 6920SOL     OW22656  12.364  10.089   7.517
 6920SOL    HW122657  12.290  10.054   7.566
 6920SOL    HW222658  12.345  10.065   7.426
 6921SOL     OW22659   3.270   7.441  13.477
 6921SOL    HW122660   3.302   7.504  13.413
 6921SOL    HW222661   3.261   7.359  13.428
 6922SOL     OW22662  12.555  14.496   8.138
 6922SOL    HW122663  12.544  14.585   8.170
 6922SOL    HW222664  12.520  14.440   8.208
 6923SOL     OW22665   6.216   3.463   4.622
 6923SOL    HW122666   6.144   3.521   4.597
 6923SOL    HW222667   6.285   3.522   4.652
 6924SOL     OW22668   5.379   8.206   6.742
 6924SOL    HW122669   5.464   8.162   6.751
 6924SOL    HW222670   5.315   8.141   6.772
 6925SOL     OW22671   5.892  11.340   6.418
 6925SOL    HW122672   5.892  11.309   6.509
 6925SOL    HW222673   5.833  11.415   6.418
 6926SOL     OW22674   6.169   3.398   9.204
 6926SOL    HW122675   6.155   3.323   9.261
 6926SOL    HW222676   6.139   3.369   9.118
 6927SOL     OW22677  10.325   3.829   1.782
 6927SOL    HW122678  10.245   3.829   1.731
 6927SOL    HW222679  10.339   3.920   1.806
 6928SOL     OW22680  14.121   4.095   6.897
 6928SOL    HW122681  14.126   4.026   6.963
 6928SOL    HW222682  14.133   4.176   6.947
 6929SOL     OW22683   0.821   8.510  12.896
 6929SOL    HW122684   0.863   8.484  12.814
 6929SOL    HW222685   0.884   8.569  12.938
 6930SOL     OW22686   6.221  12.605   3.289
 6930SOL    HW122687   6.167  12.539   3.246
 6930SOL    HW222688   6.254  12.660   3.218
 6931SOL     OW22689   8.020   0.098   3.603
 6931SOL    HW122690   7.967   0.021   3.583
 6931SOL    HW222691   7.956   0.168   3.618
 6932SOL     OW22692   3.615  11.341   0.955
 6932SOL    HW122693   3.547  11.381   1.009
 6932SOL    HW222694   3.657  11.415   0.911
 6933SOL     OW22695   7.863  11.381  10.730
 6933SOL    HW122696   7.797  11.395  10.662
 6933SOL    HW222697   7.901  11.296  10.708
 6934SOL     OW22698   8.341   9.896   2.368
 6934SOL    HW122699   8.397   9.974   2.368
 6934SOL    HW222700   8.292   9.902   2.286
 6935SOL     OW22701  11.593   1.376  14.028
 6935SOL    HW122702  11.604   1.329  13.945
 6935SOL    HW222703  11.502   1.404  14.028
 6936SOL     OW22704  10.183   6.607  13.917
 6936SOL    HW122705  10.221   6.519  13.920
 6936SOL    HW222706  10.118   6.607  13.987
 6937SOL     OW22707  14.239   3.189   6.065
 6937SOL    HW122708  14.173   3.156   6.126
 6937SOL    HW222709  14.220   3.144   5.983
 6938SOL     OW22710  12.093   1.375  11.693
 6938SOL    HW122711  11.998   1.378  11.692
 6938SOL    HW222712  12.120   1.455  11.739
 6939SOL     OW22713  14.746  13.789  13.216
 6939SOL    HW122714  14.811  13.855  13.242
 6939SOL    HW222715  14.775  13.760  13.130
 6940SOL     OW22716   4.999  11.729  12.064
 6940SOL    HW122717   4.931  11.678  12.021
 6940SOL    HW222718   5.037  11.669  12.128
 6941SOL     OW22719   1.089  11.873  10.796
 6941SOL    HW122720   1.024  11.939  10.773
 6941SOL    HW222721   1.130  11.849  10.713
 6942SOL     OW22722  13.543  10.717  11.004
 6942SOL    HW122723  13.458  10.680  11.028
 6942SOL    HW222724  13.537  10.731  10.909
 6943SOL     OW22725  11.773   2.814   8.743
 6943SOL    HW122726  11.680   2.807   8.725
 6943SOL    HW222727  11.801   2.725   8.763
 6944SOL     OW22728   5.686  10.366   5.265
 6944SOL    HW122729   5.661  10.417   5.343
 6944SOL    HW222730   5.624  10.293   5.263
 6945SOL     OW22731   8.535   1.924   3.973
 6945SOL    HW122732   8.529   1.865   4.048
 6945SOL    HW222733   8.554   1.866   3.899
 6946SOL     OW22734   1.646   4.994   5.456
 6946SOL    HW122735   1.718   4.990   5.519
 6946SOL    HW222736   1.585   4.926   5.483
 6947SOL     OW22737   8.291  12.927  10.052
 6947SOL    HW122738   8.224  12.876  10.097
 6947SOL    HW222739   8.315  12.874   9.976
 6948SOL     OW22740   9.738   3.322   8.372
 6948SOL    HW122741   9.708   3.231   8.364
 6948SOL    HW222742   9.761   3.331   8.464
 6949SOL     OW22743   9.338  14.521  10.369
 6949SOL    HW122744   9.286  14.445  10.342
 6949SOL    HW222745   9.428  14.496  10.347
 6950SOL     OW22746  12.446   6.528   4.959
 6950SOL    HW122747  12.392   6.461   4.916
 6950SOL    HW222748  12.448   6.601   4.897
 6951SOL     OW22749  11.988   8.082   8.568
 6951SOL    HW122750  11.993   8.051   8.658
 6951SOL    HW222751  12.035   8.165   8.567
 6952SOL     OW22752   7.763   9.093   2.438
 6952SOL    HW122753   7.787   9.043   2.360
 6952SOL    HW222754   7.832   9.075   2.501
 6953SOL     OW22755   2.488   2.255  13.214
 6953SOL    HW122756   2.576   2.260  13.250
 6953SOL    HW222757   2.432   2.232  13.288
 6954SOL     OW22758  11.645  13.276  12.694
 6954SOL    HW122759  11.581  13.208  12.712
 6954SOL    HW222760  11.650  13.280  12.598
 6955SOL     OW22761  12.225   9.064   2.280
 6955SOL    HW122762  12.279   9.133   2.242
 6955SOL    HW222763  12.288   9.002   2.317
 6956SOL     OW22764   5.051   6.809  10.480
 6956SOL    HW122765   5.147   6.810  10.484
 6956SOL    HW222766   5.031   6.831  10.389
 6957SOL     OW22767   0.885  13.316  12.186
 6957SOL    HW122768   0.855  13.346  12.272
 6957SOL    HW222769   0.899  13.397  12.136
 6958SOL     OW22770   1.908   2.103   9.750
 6958SOL    HW122771   1.977   2.136   9.692
 6958SOL    HW222772   1.883   2.179   9.802
 6959SOL     OW22773   7.733  10.960  10.422
 6959SOL    HW122774   7.650  10.997  10.452
 6959SOL    HW222775   7.708  10.898  10.353
 6960SOL     OW22776   7.262  14.498  14.232
 6960SOL    HW122777   7.291  14.577  14.186
 6960SOL    HW222778   7.331  14.481  14.296
 6961SOL     OW22779  11.187  13.589   2.588
 6961SOL    HW122780  11.264  13.536   2.607
 6961SOL    HW222781  11.153  13.555   2.506
 6962SOL     OW22782  11.760   2.819   2.723
 6962SOL    HW122783  11.778   2.725   2.722
 6962SOL    HW222784  11.688   2.829   2.785
 6963SOL     OW22785   9.827   9.502   3.390
 6963SOL    HW122786   9.755   9.439   3.388
 6963SOL    HW222787   9.898   9.459   3.343
 6964SOL     OW22788   3.557   3.731   9.970
 6964SOL    HW122789   3.573   3.775   9.886
 6964SOL    HW222790   3.469   3.694   9.961
 6965SOL     OW22791   7.019   3.529  10.572
 6965SOL    HW122792   7.041   3.467  10.642
 6965SOL    HW222793   7.088   3.594  10.575
 6966SOL     OW22794   1.955  14.833  11.190
 6966SOL    HW122795   1.985   0.051  11.205
 6966SOL    HW222796   1.912  14.836  11.104
 6967SOL     OW22797   2.275   5.015   6.248
 6967SOL    HW122798   2.363   4.979   6.262
 6967SOL    HW222799   2.224   4.941   6.215
 6968SOL     OW22800   2.502   7.644   9.613
 6968SOL    HW122801   2.426   7.703   9.613
 6968SOL    HW222802   2.573   7.698   9.647
 6969SOL     OW22803   9.751   9.722  10.166
 6969SOL    HW122804   9.754   9.814  10.139
 6969SOL    HW222805   9.798   9.720  10.249
 6970SOL     OW22806   0.458   4.240   9.022
 6970SOL    HW122807   0.522   4.291   9.071
 6970SOL    HW222808   0.508   4.206   8.947
 6971SOL     OW22809   0.106   1.568   2.254
 6971SOL    HW122810   0.113   1.581   2.349
 6971SOL    HW222811   0.023   1.523   2.243
 6972SOL     OW22812  14.361  11.739   2.081
 6972SOL    HW122813  14.352  11.771   2.171
 6972SOL    HW222814  14.406  11.655   2.089
 6973SOL     OW22815   6.129   8.006   7.074
 6973SOL    HW122816   6.168   7.931   7.119
 6973SOL    HW222817   6.204   8.052   7.035
 6974SOL     OW22818   2.398   0.071   9.175
 6974SOL    HW122819   2.331   0.135   9.197
 6974SOL    HW222820   2.451   0.064   9.255
 6975SOL     OW22821  10.638  12.281   2.949
 6975SOL    HW122822  10.646  12.331   3.030
 6975SOL    HW222823  10.656  12.190   2.974
 6976SOL     OW22824  11.585   5.736   6.203
 6976SOL    HW122825  11.653   5.786   6.249
 6976SOL    HW222826  11.621   5.722   6.116
 6977SOL     OW22827   4.188   7.988   8.422
 6977SOL    HW122828   4.184   7.968   8.328
 6977SOL    HW222829   4.212   7.905   8.463
 6978SOL     OW22830  10.817   0.520   3.980
 6978SOL    HW122831  10.795   0.551   4.068
 6978SOL    HW222832  10.894   0.571   3.955
 6979SOL     OW22833   9.051   0.453   2.650
 6979SOL    HW122834   8.958   0.434   2.636
 6979SOL    HW222835   9.071   0.522   2.587
 6980SOL     OW22836   6.628   5.847   3.580
 6980SOL    HW122837   6.689   5.863   3.508
 6980SOL    HW222838   6.545   5.824   3.537
 6981SOL     OW22839  14.039  10.938   8.450
 6981SOL    HW122840  14.080  11.015   8.410
 6981SOL    HW222841  14.106  10.903   8.509
 6982SOL     OW22842   1.649  11.166   2.642
 6982SOL    HW122843   1.690  11.103   2.701
 6982SOL    HW222844   1.555  11.149   2.650
 6983SOL     OW22845  14.071  14.753   6.889
 6983SOL    HW122846  14.116  14.825   6.933
 6983SOL    HW222847  14.055  14.689   6.958
 6984SOL     OW22848   6.039  13.482   0.005
 6984SOL    HW122849   6.041  13.566   0.051
 6984SOL    HW222850   5.946  13.467  14.860
 6985SOL     OW22851   7.974   3.765  12.960
 6985SOL    HW122852   7.953   3.842  13.012
 6985SOL    HW222853   7.900   3.706  12.973
 6986SOL     OW22854   3.746   8.582   0.198
 6986SOL    HW122855   3.826   8.608   0.245
 6986SOL    HW222856   3.681   8.567   0.266
 6987SOL     OW22857   1.516   2.888   1.095
 6987SOL    HW122858   1.611   2.872   1.098
 6987SOL    HW222859   1.480   2.831   1.162
 6988SOL     OW22860   8.699   5.101   1.878
 6988SOL    HW122861   8.619   5.153   1.868
 6988SOL    HW222862   8.770   5.162   1.854
 6989SOL     OW22863   6.019  14.675   1.166
 6989SOL    HW122864   6.073  14.602   1.134
 6989SOL    HW222865   6.078  14.727   1.220
 6990SOL     OW22866   9.372  12.201   9.508
 6990SOL    HW122867   9.287  12.169   9.538
 6990SOL    HW222868   9.425  12.122   9.498
 6991SOL     OW22869   2.685  13.721   6.256
 6991SOL    HW122870   2.641  13.805   6.269
 6991SOL    HW222871   2.675  13.704   6.162
 6992SOL     OW22872  12.941  11.364   9.829
 6992SOL    HW122873  13.023  11.315   9.828
 6992SOL    HW222874  12.878  11.305   9.870
 6993SOL     OW22875   4.413   2.401   2.950
 6993SOL    HW122876   4.367   2.343   3.011
 6993SOL    HW222877   4.347   2.465   2.924
 6994SOL     OW22878  14.319   2.567   3.928
 6994SOL    HW122879  14.320   2.489   3.985
 6994SOL    HW222880  14.304   2.531   3.840
 6995SOL     OW22881   8.438   8.037   6.253
 6995SOL    HW122882   8.490   8.097   6.306
 6995SOL    HW222883   8.432   7.958   6.306
 6996SOL     OW22884   3.202  12.026  13.564
 6996SOL    HW122885   3.151  11.973  13.625
 6996SOL    HW222886   3.290  12.028  13.603
 6997SOL     OW22887  12.194   8.506   6.598
 6997SOL    HW122888  12.274   8.503   6.651
 6997SOL    HW222889  12.222   8.550   6.517
 6998SOL     OW22890   3.744   8.473   8.418
 6998SOL    HW122891   3.657   8.443   8.389
 6998SOL    HW222892   3.801   8.453   8.344
 6999SOL     OW22893   3.244  11.775   5.846
 6999SOL    HW122894   3.295  11.759   5.767
 6999SOL    HW222895   3.305  11.763   5.918
 7000SOL     OW22896   1.432  14.013  11.050
 7000SOL    HW122897   1.407  14.084  11.110
 7000SOL    HW222898   1.511  14.045  11.007
 7001SOL     OW22899  11.180  12.072   9.225
 7001SOL    HW122900  11.159  12.001   9.165
 7001SOL    HW222901  11.116  12.064   9.296
 7002SOL     OW22902   6.874  13.690   4.939
 7002SOL    HW122903   6.895  13.726   4.853
 7002SOL    HW222904   6.864  13.596   4.923
 7003SOL     OW22905   7.875   0.187   5.926
 7003SOL    HW122906   7.903   0.214   6.013
 7003SOL    HW222907   7.957   0.171   5.879
 7004SOL     OW22908   6.010  13.365   8.654
 7004SOL    HW122909   6.058  13.370   8.737
 7004SOL    HW222910   6.028  13.278   8.621
 7005SOL     OW22911   9.497   4.100   9.633
 7005SOL    HW122912   9.433   4.049   9.583
 7005SOL    HW222913   9.564   4.125   9.570
 7006SOL     OW22914   8.625   8.639   4.863
 7006SOL    HW122915   8.564   8.567   4.877
 7006SOL    HW222916   8.573   8.718   4.880
 7007SOL     OW22917   4.485  12.850   5.591
 7007SOL    HW122918   4.446  12.793   5.525
 7007SOL    HW222919   4.422  12.847   5.664
 7008SOL     OW22920   4.812  13.985  14.449
 7008SOL    HW122921   4.795  13.999  14.356
 7008SOL    HW222922   4.898  14.023  14.464
 7009SOL     OW22923  10.197   4.989   1.481
 7009SOL    HW122924  10.277   4.974   1.530
 7009SOL    HW222925  10.226   5.026   1.398
 7010SOL     OW22926   0.949   0.201  11.206
 7010SOL    HW122927   0.863   0.173  11.175
 7010SOL    HW222928   0.997   0.227  11.128
 7011SOL     OW22929   5.598   8.044   2.324
 7011SOL    HW122930   5.669   8.053   2.387
 7011SOL    HW222931   5.532   8.108   2.352
 7012SOL     OW22932   6.033   5.065   0.246
 7012SOL    HW122933   5.976   5.027   0.179
 7012SOL    HW222934   6.004   5.025   0.328
 7013SOL     OW22935   4.385   3.530   6.452
 7013SOL    HW122936   4.355   3.442   6.430
 7013SOL    HW222937   4.399   3.528   6.547
 7014SOL     OW22938   0.043  13.785   0.580
 7014SOL    HW122939   0.004  13.824   0.658
 7014SOL    HW222940   0.014  13.694   0.580
 7015SOL     OW22941   9.585  12.120  10.461
 7015SOL    HW122942   9.675  12.152  10.462
 7015SOL    HW222943   9.532  12.196  10.436
 7016SOL     OW22944  12.071   9.432   6.437
 7016SOL    HW122945  12.079   9.423   6.532
 7016SOL    HW222946  11.995   9.489   6.425
 7017SOL     OW22947   9.771   7.966   8.349
 7017SOL    HW122948   9.828   7.889   8.349
 7017SOL    HW222949   9.813   8.026   8.288
 7018SOL     OW22950   0.655   7.705   2.404
 7018SOL    HW122951   0.569   7.676   2.434
 7018SOL    HW222952   0.656   7.799   2.419
 7019SOL     OW22953  11.163   5.119  10.997
 7019SOL    HW122954  11.184   5.212  10.999
 7019SOL    HW222955  11.149   5.094  11.088
 7020SOL     OW22956   5.092   5.193   0.602
 7020SOL    HW122957   5.165   5.254   0.588
 7020SOL    HW222958   5.066   5.206   0.693
 7021SOL     OW22959  12.213  10.028   5.798
 7021SOL    HW122960  12.220   9.937   5.827
 7021SOL    HW222961  12.294  10.044   5.750
 7022SOL     OW22962   9.512   4.595   3.181
 7022SOL    HW122963   9.595   4.566   3.219
 7022SOL    HW222964   9.477   4.658   3.244
 7023SOL     OW22965   0.958  14.782  12.111
 7023SOL    HW122966   1.007  14.821  12.038
 7023SOL    HW222967   0.867  14.784  12.082
 7024SOL     OW22968   4.552   2.261   6.052
 7024SOL    HW122969   4.542   2.306   5.968
 7024SOL    HW222970   4.559   2.332   6.116
 7025SOL     OW22971   3.333   2.183  13.601
 7025SOL    HW122972   3.369   2.119  13.662
 7025SOL    HW222973   3.312   2.133  13.523
 7026SOL     OW22974  14.784   2.944   2.012
 7026SOL    HW122975   0.001   2.928   2.043
 7026SOL    HW222976  14.789   2.930   1.917
 7027SOL     OW22977  12.072   6.497  12.271
 7027SOL    HW122978  12.077   6.434  12.199
 7027SOL    HW222979  12.061   6.582  12.229
 7028SOL     OW22980  10.276   5.820   0.534
 7028SOL    HW122981  10.367   5.823   0.562
 7028SOL    HW222982  10.242   5.908   0.554
 7029SOL     OW22983  12.183  11.191   8.894
 7029SOL    HW122984  12.111  11.237   8.852
 7029SOL    HW222985  12.141  11.135   8.959
 7030SOL     OW22986   0.377   8.575   8.434
 7030SOL    HW122987   0.412   8.656   8.398
 7030SOL    HW222988   0.430   8.559   8.513
 7031SOL     OW22989   1.175   5.129  10.593
 7031SOL    HW122990   1.098   5.164  10.548
 7031SOL    HW222991   1.213   5.205  10.639
 7032SOL     OW22992  12.251  11.653   7.422
 7032SOL    HW122993  12.341  11.644   7.389
 7032SOL    HW222994  12.207  11.574   7.391
 7033SOL     OW22995  12.079   1.488   8.026
 7033SOL    HW122996  12.036   1.542   8.092
 7033SOL    HW222997  12.171   1.488   8.052
 7034SOL     OW22998   6.800   9.106  13.304
 7034SOL    HW122999   6.816   9.199  13.285
 7034SOL    HW223000   6.719   9.105  13.354
 7035SOL     OW23001   7.761   7.645  11.703
 7035SOL    HW123002   7.713   7.700  11.641
 7035SOL    HW223003   7.694   7.611  11.762
 7036SOL     OW23004  14.758   9.617  13.661
 7036SOL    HW123005  14.847   9.616  13.697
 7036SOL    HW223006  14.760   9.555  13.589
 7037SOL     OW23007  13.214   4.846   0.457
 7037SOL    HW123008  13.142   4.887   0.506
 7037SOL    HW223009  13.170   4.794   0.390
 7038SOL     OW23010   7.517   9.476  14.391
 7038SOL    HW123011   7.462   9.555  14.390
 7038SOL    HW223012   7.590   9.497  14.334
 7039SOL     OW23013   5.827  10.041   4.901
 7039SOL    HW123014   5.857  10.129   4.927
 7039SOL    HW223015   5.731  10.046   4.908
 7040SOL     OW23016  12.087  14.818   9.568
 7040SOL    HW123017  12.141  14.806   9.646
 7040SOL    HW223018  12.000  14.839   9.602
 7041SOL     OW23019   5.751  14.465  14.345
 7041SOL    HW123020   5.790  14.377  14.339
 7041SOL    HW223021   5.664  14.455  14.305
 7042SOL     OW23022  14.468   8.487  12.843
 7042SOL    HW123023  14.538   8.460  12.783
 7042SOL    HW223024  14.488   8.442  12.925
 7043SOL     OW23025   7.946   2.884   0.342
 7043SOL    HW123026   7.870   2.838   0.377
 7043SOL    HW223027   7.977   2.828   0.271
 7044SOL     OW23028  11.139   6.398  13.010
 7044SOL    HW123029  11.122   6.314  12.967
 7044SOL    HW223030  11.088   6.394  13.091
 7045SOL     OW23031  13.624   2.858   8.178
 7045SOL    HW123032  13.638   2.833   8.087
 7045SOL    HW223033  13.603   2.776   8.222
 7046SOL     OW23034   0.863   6.795   7.082
 7046SOL    HW123035   0.778   6.786   7.038
 7046SOL    HW223036   0.924   6.819   7.011
 7047SOL     OW23037   4.245   4.341  14.020
 7047SOL    HW123038   4.311   4.323  13.953
 7047SOL    HW223039   4.278   4.419  14.065
 7048SOL     OW23040   6.202  14.409   6.920
 7048SOL    HW123041   6.289  14.450   6.929
 7048SOL    HW223042   6.217  14.335   6.862
 7049SOL     OW23043   4.257   3.081   9.502
 7049SOL    HW123044   4.226   3.171   9.486
 7049SOL    HW223045   4.249   3.070   9.597
 7050SOL     OW23046   3.378  10.051   1.725
 7050SOL    HW123047   3.330  10.061   1.643
 7050SOL    HW223048   3.310  10.052   1.793
 7051SOL     OW23049   0.069  13.521  11.401
 7051SOL    HW123050   0.089  13.458  11.331
 7051SOL    HW223051  14.856  13.493  11.436
 7052SOL     OW23052   4.482   7.236   0.953
 7052SOL    HW123053   4.551   7.205   0.894
 7052SOL    HW223054   4.484   7.175   1.026
 7053SOL     OW23055  12.572   1.737   5.972
 7053SOL    HW123056  12.628   1.807   5.939
 7053SOL    HW223057  12.570   1.673   5.901
 7054SOL     OW23058   0.698  12.618  13.142
 7054SOL    HW123059   0.744  12.539  13.168
 7054SOL    HW223060   0.706  12.676  13.218
 7055SOL     OW23061   8.281   5.171  13.875
 7055SOL    HW123062   8.313   5.252  13.915
 7055SOL    HW223063   8.217   5.200  13.810
 7056SOL     OW23064   3.438   7.559  13.057
 7056SOL    HW123065   3.514   7.518  13.017
 7056SOL    HW223066   3.422   7.638  13.004
 7057SOL     OW23067   1.106   4.468   9.461
 7057SOL    HW123068   1.119   4.376   9.436
 7057SOL    HW223069   1.052   4.504   9.391
 7058SOL     OW23070   0.083  10.937  10.052
 7058SOL    HW123071   0.080  11.031  10.066
 7058SOL    HW223072   0.003  10.917  10.003
 7059SOL     OW23073  11.887   0.836   4.497
 7059SOL    HW123074  11.975   0.840   4.535
 7059SOL    HW223075  11.877   0.919   4.452
 7060SOL     OW23076  10.853  12.541   0.798
 7060SOL    HW123077  10.882  12.598   0.869
 7060SOL    HW223078  10.770  12.504   0.829
 7061SOL     OW23079   2.647  10.052  10.163
 7061SOL    HW123080   2.592  10.119  10.203
 7061SOL    HW223081   2.597   9.971  10.173
 7062SOL     OW23082   3.741   9.829   0.891
 7062SOL    HW123083   3.654   9.829   0.930
 7062SOL    HW223084   3.786   9.903   0.931
 7063SOL     OW23085   8.217   6.169   0.096
 7063SOL    HW123086   8.272   6.143   0.022
 7063SOL    HW223087   8.143   6.214   0.056
 7064SOL     OW23088  13.198   8.331   2.814
 7064SOL    HW123089  13.126   8.380   2.852
 7064SOL    HW223090  13.162   8.243   2.798
 7065SOL     OW23091   7.734   1.802  12.604
 7065SOL    HW123092   7.710   1.856  12.680
 7065SOL    HW223093   7.677   1.726  12.610
 7066SOL     OW23094  13.873  12.736   9.763
 7066SOL    HW123095  13.899  12.657   9.810
 7066SOL    HW223096  13.780  12.746   9.782
 7067SOL     OW23097   6.948   1.649  10.051
 7067SOL    HW123098   7.001   1.597  10.112
 7067SOL    HW223099   6.880   1.687  10.106
 7068SOL     OW23100   8.423  10.140  13.662
 7068SOL    HW123101   8.484  10.194  13.611
 7068SOL    HW223102   8.358  10.203  13.695
 7069SOL     OW23103  10.872   9.753  13.375
 7069SOL    HW123104  10.963   9.759  13.348
 7069SOL    HW223105  10.875   9.720  13.465
 7070SOL     OW23106  14.316   8.716   7.654
 7070SOL    HW123107  14.233   8.701   7.608
 7070SOL    HW223108  14.332   8.634   7.701
 7071SOL     OW23109   0.382   2.724  13.254
 7071SOL    HW123110   0.350   2.762  13.171
 7071SOL    HW223111   0.315   2.747  13.318
 7072SOL     OW23112   9.220  13.353  12.374
 7072SOL    HW123113   9.233  13.323  12.284
 7072SOL    HW223114   9.149  13.417  12.367
 7073SOL     OW23115   4.034  10.175   3.753
 7073SOL    HW123116   3.997  10.092   3.783
 7073SOL    HW223117   4.102  10.195   3.818
 7074SOL     OW23118   2.274  11.325   6.591
 7074SOL    HW123119   2.343  11.392   6.590
 7074SOL    HW223120   2.274  11.290   6.502
 7075SOL     OW23121   3.128  10.956  11.291
 7075SOL    HW123122   3.093  10.890  11.350
 7075SOL    HW223123   3.212  10.920  11.262
 7076SOL     OW23124   1.197   9.043   9.497
 7076SOL    HW123125   1.183   9.098   9.574
 7076SOL    HW223126   1.140   8.967   9.511
 7077SOL     OW23127   5.993   1.157   5.950
 7077SOL    HW123128   6.022   1.096   6.018
 7077SOL    HW223129   6.034   1.240   5.973
 7078SOL     OW23130   8.291   1.597  13.193
 7078SOL    HW123131   8.287   1.509  13.156
 7078SOL    HW223132   8.298   1.583  13.287
 7079SOL     OW23133  14.638   4.452  11.621
 7079SOL    HW123134  14.600   4.395  11.554
 7079SOL    HW223135  14.731   4.456  11.598
 7080SOL     OW23136  14.487   6.767   6.685
 7080SOL    HW123137  14.392   6.757   6.682
 7080SOL    HW223138  14.508   6.820   6.607
 7081SOL     OW23139   8.861   3.154  14.679
 7081SOL    HW123140   8.830   3.066  14.660
 7081SOL    HW223141   8.791   3.194  14.730
 7082SOL     OW23142   3.692   6.934   1.535
 7082SOL    HW123143   3.716   6.843   1.518
 7082SOL    HW223144   3.763   6.985   1.496
 7083SOL     OW23145   5.000   5.816   8.605
 7083SOL    HW123146   4.947   5.751   8.559
 7083SOL    HW223147   5.060   5.850   8.538
 7084SOL     OW23148   1.299   3.811  12.760
 7084SOL    HW123149   1.231   3.754  12.725
 7084SOL    HW223150   1.294   3.890  12.706
 7085SOL     OW23151   9.719   6.072   2.166
 7085SOL    HW123152   9.794   6.023   2.132
 7085SOL    HW223153   9.672   6.102   2.087
 7086SOL     OW23154   5.130   7.036   1.633
 7086SOL    HW123155   5.069   7.027   1.560
 7086SOL    HW223156   5.157   6.947   1.654
 7087SOL     OW23157   1.150  13.783   5.659
 7087SOL    HW123158   1.219  13.791   5.724
 7087SOL    HW223159   1.193  13.806   5.576
 7088SOL     OW23160  10.469   1.194   9.606
 7088SOL    HW123161  10.440   1.219   9.694
 7088SOL    HW223162  10.531   1.123   9.621
 7089SOL     OW23163   8.854  12.899  11.525
 7089SOL    HW123164   8.878  12.969  11.464
 7089SOL    HW223165   8.831  12.825  11.469
 7090SOL     OW23166   1.790   5.005  12.658
 7090SOL    HW123167   1.850   4.951  12.607
 7090SOL    HW223168   1.833   5.015  12.743
 7091SOL     OW23169   1.884  14.305   4.082
 7091SOL    HW123170   1.881  14.282   4.175
 7091SOL    HW223171   1.806  14.358   4.067
 7092SOL     OW23172  12.029  11.473   2.040
 7092SOL    HW123173  11.940  11.473   2.005
 7092SOL    HW223174  12.018  11.462   2.134
 7093SOL     OW23175   4.027   2.621   7.265
 7093SOL    HW123176   4.105   2.565   7.269
 7093SOL    HW223177   3.986   2.599   7.181
 7094SOL     OW23178   0.140   1.361   6.102
 7094SOL    HW123179   0.112   1.270   6.107
 7094SOL    HW223180   0.080   1.401   6.038
 7095SOL     OW23181   8.476   5.650   5.001
 7095SOL    HW123182   8.436   5.632   5.086
 7095SOL    HW223183   8.488   5.563   4.962
 7096SOL     OW23184  11.536  12.331   1.789
 7096SOL    HW123185  11.471  12.339   1.718
 7096SOL    HW223186  11.492  12.279   1.856
 7097SOL     OW23187   2.589   9.224   1.112
 7097SOL    HW123188   2.515   9.274   1.076
 7097SOL    HW223189   2.613   9.272   1.191
 7098SOL     OW23190   2.814   1.738   6.764
 7098SOL    HW123191   2.903   1.704   6.778
 7098SOL    HW223192   2.828   1.820   6.716
 7099SOL     OW23193  14.806  14.815  14.556
 7099SOL    HW123194  14.804   0.038  14.549
 7099SOL    HW223195  14.777  14.783  14.471
 7100SOL     OW23196  11.450  11.236   4.877
 7100SOL    HW123197  11.397  11.157   4.887
 7100SOL    HW223198  11.485  11.253   4.965
 7101SOL     OW23199  10.856  13.335  11.388
 7101SOL    HW123200  10.772  13.363  11.426
 7101SOL    HW223201  10.907  13.415  11.380
 7102SOL     OW23202  13.064   7.351   7.695
 7102SOL    HW123203  12.994   7.298   7.734
 7102SOL    HW223204  13.018   7.413   7.639
 7103SOL     OW23205  14.316  12.425   1.039
 7103SOL    HW123206  14.258  12.442   1.113
 7103SOL    HW223207  14.256  12.416   0.964
 7104SOL     OW23208   2.325  13.266   2.384
 7104SOL    HW123209   2.350  13.356   2.364
 7104SOL    HW223210   2.238  13.273   2.422
 7105SOL     OW23211   7.578   5.400  14.522
 7105SOL    HW123212   7.629   5.433  14.597
 7105SOL    HW223213   7.623   5.319  14.497
 7106SOL     OW23214   1.464   4.515   6.457
 7106SOL    HW123215   1.468   4.489   6.366
 7106SOL    HW223216   1.424   4.440   6.502
 7107SOL     OW23217  12.678  13.100  11.465
 7107SOL    HW123218  12.725  13.139  11.539
 7107SOL    HW223219  12.587  13.095  11.495
 7108SOL     OW23220   0.222  13.182  11.362
 7108SOL    HW123221   0.132  13.212  11.373
 7108SOL    HW223222   0.223  13.143  11.274
 7109SOL     OW23223   0.106   3.762   7.461
 7109SOL    HW123224   0.194   3.740   7.489
 7109SOL    HW223225   0.075   3.825   7.525
 7110SOL     OW23226  13.846   3.306   8.358
 7110SOL    HW123227  13.799   3.269   8.283
 7110SOL    HW223228  13.912   3.241   8.379
 7111SOL     OW23229   6.764   4.532   4.284
 7111SOL    HW123230   6.751   4.580   4.366
 7111SOL    HW223231   6.719   4.585   4.218
 7112SOL     OW23232   5.725  13.681   9.325
 7112SOL    HW123233   5.659  13.683   9.394
 7112SOL    HW223234   5.706  13.759   9.272
 7113SOL     OW23235   4.939   2.479  11.631
 7113SOL    HW123236   4.919   2.529  11.552
 7113SOL    HW223237   4.854   2.452  11.665
 7114SOL     OW23238  14.296   6.616   9.093
 7114SOL    HW123239  14.273   6.538   9.143
 7114SOL    HW223240  14.341   6.582   9.015
 7115SOL     OW23241  12.224  10.727   2.027
 7115SOL    HW123242  12.179  10.766   1.952
 7115SOL    HW223243  12.294  10.675   1.988
 7116SOL     OW23244   5.184   3.822   4.334
 7116SOL    HW123245   5.144   3.816   4.421
 7116SOL    HW223246   5.129   3.767   4.279
 7117SOL     OW23247   6.543   4.057   2.654
 7117SOL    HW123248   6.598   4.080   2.579
 7117SOL    HW223249   6.524   3.964   2.643
 7118SOL     OW23250  13.922   5.540   2.415
 7118SOL    HW123251  13.998   5.599   2.424
 7118SOL    HW223252  13.869   5.580   2.346
 7119SOL     OW23253   1.406   0.921   2.235
 7119SOL    HW123254   1.341   0.866   2.279
 7119SOL    HW223255   1.481   0.863   2.222
 7120SOL     OW23256   0.976   6.078   8.401
 7120SOL    HW123257   0.905   6.014   8.410
 7120SOL    HW223258   0.937   6.150   8.352
 7121SOL     OW23259  10.094   5.099   5.122
 7121SOL    HW123260  10.055   5.101   5.209
 7121SOL    HW223261  10.130   5.010   5.115
 7122SOL     OW23262   4.600   9.549  13.820
 7122SOL    HW123263   4.640   9.481  13.764
 7122SOL    HW223264   4.627   9.631  13.780
 7123SOL     OW23265  10.541   3.283   3.069
 7123SOL    HW123266  10.619   3.335   3.089
 7123SOL    HW223267  10.575   3.208   3.020
 7124SOL     OW23268   2.857  10.383  14.202
 7124SOL    HW123269   2.852  10.474  14.173
 7124SOL    HW223270   2.946  10.355  14.181
 7125SOL     OW23271   1.549   7.246  10.594
 7125SOL    HW123272   1.497   7.168  10.615
 7125SOL    HW223273   1.551   7.296  10.675
 7126SOL     OW23274   4.101   9.993   4.172
 7126SOL    HW123275   4.149  10.076   4.182
 7126SOL    HW223276   4.137   9.937   4.240
 7127SOL     OW23277   8.533   1.952   2.053
 7127SOL    HW123278   8.503   2.032   2.010
 7127SOL    HW223279   8.596   1.914   1.992
 7128SOL     OW23280   0.346  13.428   7.156
 7128SOL    HW123281   0.317  13.495   7.217
 7128SOL    HW223282   0.387  13.476   7.084
 7129SOL     OW23283   0.727   4.564   0.583
 7129SOL    HW123284   0.654   4.624   0.595
 7129SOL    HW223285   0.787   4.584   0.655
 7130SOL     OW23286   4.701  10.102   1.678
 7130SOL    HW123287   4.788  10.106   1.638
 7130SOL    HW223288   4.683  10.009   1.687
 7131SOL     OW23289  12.144   8.018   9.722
 7131SOL    HW123290  12.196   7.947   9.761
 7131SOL    HW223291  12.183   8.098   9.756
 7132SOL     OW23292   8.503   6.022   9.247
 7132SOL    HW123293   8.540   5.936   9.264
 7132SOL    HW223294   8.455   6.044   9.327
 7133SOL     OW23295   6.361   4.918  10.006
 7133SOL    HW123296   6.452   4.893  10.019
 7133SOL    HW223297   6.327   4.854   9.944
 7134SOL     OW23298  12.212  11.295   2.997
 7134SOL    HW123299  12.261  11.358   2.945
 7134SOL    HW223300  12.185  11.344   3.075
 7135SOL     OW23301  10.180   4.247   9.770
 7135SOL    HW123302  10.157   4.191   9.696
 7135SOL    HW223303  10.236   4.191   9.825
 7136SOL     OW23304   2.518   5.901   0.438
 7136SOL    HW123305   2.557   5.987   0.424
 7136SOL    HW223306   2.566   5.842   0.380
 7137SOL     OW23307   5.329   7.980   7.966
 7137SOL    HW123308   5.355   7.897   7.926
 7137SOL    HW223309   5.371   7.979   8.052
 7138SOL     OW23310  10.254   6.473  13.485
 7138SOL    HW123311  10.163   6.489  13.510
 7138SOL    HW223312  10.281   6.553  13.440
 7139SOL     OW23313   7.624   7.898  14.347
 7139SOL    HW123314   7.638   7.843  14.424
 7139SOL    HW223315   7.694   7.964  14.351
 7140SOL     OW23316   0.453   7.681  10.094
 7140SOL    HW123317   0.410   7.766  10.090
 7140SOL    HW223318   0.546   7.701  10.105
 7141SOL     OW23319  10.201  14.561  13.214
 7141SOL    HW123320  10.165  14.595  13.296
 7141SOL    HW223321  10.267  14.625  13.189
 7142SOL     OW23322  11.655   6.092  14.619
 7142SOL    HW123323  11.645   6.077  14.525
 7142SOL    HW223324  11.627   6.183  14.632
 7143SOL     OW23325   9.139  10.968   6.330
 7143SOL    HW123326   9.094  11.047   6.358
 7143SOL    HW223327   9.101  10.899   6.384
 7144SOL     OW23328   0.386   5.103   1.348
 7144SOL    HW123329   0.424   5.171   1.404
 7144SOL    HW223330   0.300   5.085   1.387
 7145SOL     OW23331   9.790   0.732  13.354
 7145SOL    HW123332   9.764   0.721  13.445
 7145SOL    HW223333   9.707   0.736  13.306
 7146SOL     OW23334  11.485  10.092  11.576
 7146SOL    HW123335  11.464  10.183  11.554
 7146SOL    HW223336  11.558  10.070  11.518
 7147SOL     OW23337   1.270   7.687   3.065
 7147SOL    HW123338   1.198   7.625   3.059
 7147SOL    HW223339   1.233   7.763   3.109
 7148SOL     OW23340   4.840   6.920   5.951
 7148SOL    HW123341   4.879   6.976   6.018
 7148SOL    HW223342   4.907   6.912   5.883
 7149SOL     OW23343   5.101  13.684  12.556
 7149SOL    HW123344   5.133  13.596  12.576
 7149SOL    HW223345   5.071  13.679  12.465
 7150SOL     OW23346   5.957   0.899   4.457
 7150SOL    HW123347   5.900   0.827   4.482
 7150SOL    HW223348   5.916   0.977   4.493
 7151SOL     OW23349   3.044   8.111   1.826
 7151SOL    HW123350   3.048   8.109   1.731
 7151SOL    HW223351   3.066   8.201   1.850
 7152SOL     OW23352  11.292   4.960   3.027
 7152SOL    HW123353  11.218   4.914   2.987
 7152SOL    HW223354  11.336   4.893   3.080
 7153SOL     OW23355   2.912   2.319   9.853
 7153SOL    HW123356   2.941   2.320   9.762
 7153SOL    HW223357   2.821   2.349   9.850
 7154SOL     OW23358   7.231  13.469  14.495
 7154SOL    HW123359   7.246  13.519  14.575
 7154SOL    HW223360   7.304  13.407  14.492
 7155SOL     OW23361   0.707   0.680   3.049
 7155SOL    HW123362   0.715   0.702   2.956
 7155SOL    HW223363   0.637   0.614   3.051
 7156SOL     OW23364   4.104   0.456  12.483
 7156SOL    HW123365   4.185   0.404  12.487
 7156SOL    HW223366   4.113   0.520  12.553
 7157SOL     OW23367   8.047   7.309  11.660
 7157SOL    HW123368   7.986   7.236  11.675
 7157SOL    HW223369   8.016   7.350  11.579
 7158SOL     OW23370   6.336   9.124   3.766
 7158SOL    HW123371   6.375   9.041   3.740
 7158SOL    HW223372   6.248   9.122   3.728
 7159SOL     OW23373  11.721  12.222   0.985
 7159SOL    HW123374  11.814  12.200   0.975
 7159SOL    HW223375  11.678  12.138   0.995
 7160SOL     OW23376   4.003   1.652  10.617
 7160SOL    HW123377   3.940   1.674  10.686
 7160SOL    HW223378   4.082   1.624  10.664
 7161SOL     OW23379  10.523   0.117  12.554
 7161SOL    HW123380  10.474   0.070  12.487
 7161SOL    HW223381  10.457   0.147  12.617
 7162SOL     OW23382   6.744  10.665  13.824
 7162SOL    HW123383   6.791  10.736  13.782
 7162SOL    HW223384   6.788  10.655  13.909
 7163SOL     OW23385  11.668  12.020   5.621
 7163SOL    HW123386  11.718  12.078   5.563
 7163SOL    HW223387  11.577  12.029   5.592
 7164SOL     OW23388   1.646   4.886   9.549
 7164SOL    HW123389   1.692   4.831   9.487
 7164SOL    HW223390   1.702   4.963   9.559
 7165SOL     OW23391  10.415   4.460  11.381
 7165SOL    HW123392  10.438   4.547  11.349
 7165SOL    HW223393  10.397   4.410  11.301
 7166SOL     OW23394   9.693  13.001   7.202
 7166SOL    HW123395   9.716  12.966   7.116
 7166SOL    HW223396   9.606  13.039   7.190
 7167SOL     OW23397   4.106  14.628   1.999
 7167SOL    HW123398   4.100  14.706   2.055
 7167SOL    HW223399   4.196  14.598   2.010
 7168SOL     OW23400   7.600   3.810   7.141
 7168SOL    HW123401   7.595   3.781   7.232
 7168SOL    HW223402   7.587   3.905   7.145
 7169SOL     OW23403   1.953  10.814   6.066
 7169SOL    HW123404   2.035  10.769   6.087
 7169SOL    HW223405   1.906  10.818   6.150
 7170SOL     OW23406  12.372   1.527  12.052
 7170SOL    HW123407  12.452   1.512  12.001
 7170SOL    HW223408  12.346   1.616  12.027
 7171SOL     OW23409  14.005   3.759   3.266
 7171SOL    HW123410  14.052   3.826   3.316
 7171SOL    HW223411  13.922   3.749   3.313
 7172SOL     OW23412   0.623  11.989   3.083
 7172SOL    HW123413   0.664  12.060   3.033
 7172SOL    HW223414   0.651  12.006   3.174
 7173SOL     OW23415  12.692  10.105   1.046
 7173SOL    HW123416  12.787  10.113   1.042
 7173SOL    HW223417  12.659  10.194   1.039
 7174SOL     OW23418   9.755   4.400   7.108
 7174SOL    HW123419   9.818   4.342   7.064
 7174SOL    HW223420   9.802   4.483   7.118
 7175SOL     OW23421  14.671   0.849  14.689
 7175SOL    HW123422  14.622   0.771  14.665
 7175SOL    HW223423  14.647   0.866  14.780
 7176SOL     OW23424  10.120   1.120   0.416
 7176SOL    HW123425  10.160   1.033   0.423
 7176SOL    HW223426  10.099   1.144   0.506
 7177SOL     OW23427   4.479  14.688  11.524
 7177SOL    HW123428   4.564  14.709  11.562
 7177SOL    HW223429   4.441  14.772  11.501
 7178SOL     OW23430  12.377  14.484   3.608
 7178SOL    HW123431  12.455  14.452   3.653
 7178SOL    HW223432  12.366  14.424   3.534
 7179SOL     OW23433   2.763   7.707   8.825
 7179SOL    HW123434   2.834   7.742   8.771
 7179SOL    HW223435   2.692   7.770   8.815
 7180SOL     OW23436   6.919  12.517   2.741
 7180SOL    HW123437   6.872  12.574   2.802
 7180SOL    HW223438   6.990  12.480   2.793
 7181SOL     OW23439  12.143   5.578   1.023
 7181SOL    HW123440  12.111   5.554   1.110
 7181SOL    HW223441  12.080   5.643   0.992
 7182SOL     OW23442   7.130   2.234   5.202
 7182SOL    HW123443   7.090   2.318   5.226
 7182SOL    HW223444   7.082   2.206   5.124
 7183SOL     OW23445   2.638   6.576   8.271
 7183SOL    HW123446   2.693   6.611   8.200
 7183SOL    HW223447   2.698   6.562   8.344
 7184SOL     OW23448  13.847   2.487   7.560
 7184SOL    HW123449  13.876   2.524   7.477
 7184SOL    HW223450  13.764   2.532   7.578
 7185SOL     OW23451  14.380   2.906   7.067
 7185SOL    HW123452  14.358   2.846   7.138
 7185SOL    HW223453  14.366   2.855   6.987
 7186SOL     OW23454   2.470  14.248   6.266
 7186SOL    HW123455   2.536  14.278   6.205
 7186SOL    HW223456   2.400  14.313   6.261
 7187SOL     OW23457  12.574   4.772   7.073
 7187SOL    HW123458  12.658   4.811   7.046
 7187SOL    HW223459  12.536   4.739   6.992
 7188SOL     OW23460  12.418   4.544   4.502
 7188SOL    HW123461  12.491   4.558   4.442
 7188SOL    HW223462  12.435   4.459   4.542
 7189SOL     OW23463   5.818   3.736   4.008
 7189SOL    HW123464   5.799   3.829   4.023
 7189SOL    HW223465   5.733   3.693   4.017
 7190SOL     OW23466   1.591   6.854   3.228
 7190SOL    HW123467   1.614   6.860   3.320
 7190SOL    HW223468   1.495   6.847   3.227
 7191SOL     OW23469  14.844  11.340   5.507
 7191SOL    HW123470  14.797  11.260   5.486
 7191SOL    HW223471  14.863  11.333   5.600
 7192SOL     OW23472   7.429  11.995   7.591
 7192SOL    HW123473   7.476  11.936   7.650
 7192SOL    HW223474   7.363  12.036   7.647
 7193SOL     OW23475   9.465  10.722   9.993
 7193SOL    HW123476   9.385  10.670  10.000
 7193SOL    HW223477   9.526  10.682  10.055
 7194SOL     OW23478  10.714  11.237   5.983
 7194SOL    HW123479  10.710  11.330   6.006
 7194SOL    HW223480  10.740  11.194   6.064
 7195SOL     OW23481   5.781   0.981  13.002
 7195SOL    HW123482   5.839   1.012  13.071
 7195SOL    HW223483   5.705   1.039  13.008
 7196SOL     OW23484  10.812   4.584  10.071
 7196SOL    HW123485  10.764   4.611   9.992
 7196SOL    HW223486  10.904   4.595  10.049
 7197SOL     OW23487   8.308   8.395   7.690
 7197SOL    HW123488   8.291   8.481   7.727
 7197SOL    HW223489   8.221   8.355   7.682
 7198SOL     OW23490  13.378   3.000   2.354
 7198SOL    HW123491  13.464   2.986   2.395
 7198SOL    HW223492  13.321   2.934   2.394
 7199SOL     OW23493   3.551  14.447  10.863
 7199SOL    HW123494   3.476  14.443  10.804
 7199SOL    HW223495   3.627  14.450  10.805
 7200SOL     OW23496   6.039  10.487  13.352
 7200SOL    HW123497   6.121  10.515  13.311
 7200SOL    HW223498   6.027  10.547  13.426
 7201SOL     OW23499  14.218   1.872   4.275
 7201SOL    HW123500  14.171   1.803   4.321
 7201SOL    HW223501  14.310   1.854   4.290
 7202SOL     OW23502   2.378  11.479  12.967
 7202SOL    HW123503   2.369  11.409  13.031
 7202SOL    HW223504   2.288  11.494  12.936
 7203SOL     OW23505  14.254   7.334   7.085
 7203SOL    HW123506  14.229   7.409   7.139
 7203SOL    HW223507  14.183   7.271   7.096
 7204SOL     OW23508   7.013   6.533   7.350
 7204SOL    HW123509   6.986   6.493   7.268
 7204SOL    HW223510   6.947   6.601   7.367
 7205SOL     OW23511  11.784  13.826  11.363
 7205SOL    HW123512  11.861  13.848  11.311
 7205SOL    HW223513  11.710  13.844  11.305
 7206SOL     OW23514   4.545   7.571   6.289
 7206SOL    HW123515   4.631   7.577   6.247
 7206SOL    HW223516   4.510   7.487   6.258
 7207SOL     OW23517  11.013  10.939  14.760
 7207SOL    HW123518  11.028  11.033  14.750
 7207SOL    HW223519  11.057  10.900  14.684
 7208SOL     OW23520   6.006   0.999   3.270
 7208SOL    HW123521   5.911   1.007   3.283
 7208SOL    HW223522   6.019   0.908   3.245
 7209SOL     OW23523  11.603   5.936  14.004
 7209SOL    HW123524  11.665   5.864  14.014
 7209SOL    HW223525  11.658   6.015  13.998
 7210SOL     OW23526   8.053   1.204  11.987
 7210SOL    HW123527   7.993   1.237  12.054
 7210SOL    HW223528   8.122   1.159  12.036
 7211SOL     OW23529   3.655   7.147  10.305
 7211SOL    HW123530   3.730   7.105  10.264
 7211SOL    HW223531   3.609   7.189  10.233
 7212SOL     OW23532   1.205   0.111  14.454
 7212SOL    HW123533   1.113   0.099  14.430
 7212SOL    HW223534   1.244   0.024  14.446
 7213SOL     OW23535   7.250   0.712   9.163
 7213SOL    HW123536   7.238   0.650   9.091
 7213SOL    HW223537   7.331   0.759   9.140
 7214SOL     OW23538   5.527   4.251   0.121
 7214SOL    HW123539   5.593   4.305   0.165
 7214SOL    HW223540   5.578   4.185   0.074
 7215SOL     OW23541  12.188  13.495  11.171
 7215SOL    HW123542  12.242  13.545  11.232
 7215SOL    HW223543  12.199  13.404  11.197
 7216SOL     OW23544   6.832   9.065   5.588
 7216SOL    HW123545   6.878   9.018   5.657
 7216SOL    HW223546   6.775   8.999   5.548
 7217SOL     OW23547  10.566   0.623   1.175
 7217SOL    HW123548  10.590   0.707   1.213
 7217SOL    HW223549  10.494   0.643   1.115
 7218SOL     OW23550   2.559   7.309   3.929
 7218SOL    HW123551   2.612   7.377   3.971
 7218SOL    HW223552   2.515   7.265   4.001
 7219SOL     OW23553   7.416   5.785  10.565
 7219SOL    HW123554   7.433   5.703  10.518
 7219SOL    HW223555   7.473   5.849  10.522
 7220SOL     OW23556  12.208   0.196   7.638
 7220SOL    HW123557  12.192   0.166   7.548
 7220SOL    HW223558  12.177   0.286   7.638
 7221SOL     OW23559   2.184   4.734   0.953
 7221SOL    HW123560   2.208   4.775   1.036
 7221SOL    HW223561   2.095   4.764   0.935
 7222SOL     OW23562  14.867  10.434  10.847
 7222SOL    HW123563   0.072  10.479  10.813
 7222SOL    HW223564  14.798  10.501  10.849
 7223SOL     OW23565  10.351   5.417   2.958
 7223SOL    HW123566  10.273   5.376   2.994
 7223SOL    HW223567  10.419   5.350   2.964
 7224SOL     OW23568   0.217  13.520  10.852
 7224SOL    HW123569   0.178  13.556  10.773
 7224SOL    HW223570   0.206  13.589  10.918
 7225SOL     OW23571  11.527  14.221   3.819
 7225SOL    HW123572  11.615  14.183   3.823
 7225SOL    HW223573  11.469  14.151   3.851
 7226SOL     OW23574   2.813  12.755  13.089
 7226SOL    HW123575   2.885  12.729  13.146
 7226SOL    HW223576   2.852  12.821  13.031
 7227SOL     OW23577  11.855  11.627   1.335
 7227SOL    HW123578  11.838  11.555   1.395
 7227SOL    HW223579  11.856  11.587   1.248
 7228SOL     OW23580  10.669   8.028   6.510
 7228SOL    HW123581  10.661   8.073   6.594
 7228SOL    HW223582  10.608   7.954   6.517
 7229SOL     OW23583  13.440  11.804  14.794
 7229SOL    HW123584  13.407  11.725  14.836
 7229SOL    HW223585  13.483  11.852  14.864
 7230SOL     OW23586   1.317   2.252  10.289
 7230SOL    HW123587   1.313   2.346  10.301
 7230SOL    HW223588   1.381   2.239  10.219
 7231SOL     OW23589   1.369  14.079  12.488
 7231SOL    HW123590   1.370  13.999  12.434
 7231SOL    HW223591   1.453  14.122  12.468
 7232SOL     OW23592   8.245   2.174   2.145
 7232SOL    HW123593   8.217   2.116   2.216
 7232SOL    HW223594   8.172   2.172   2.083
 7233SOL     OW23595   3.754  13.181   0.991
 7233SOL    HW123596   3.801  13.157   0.911
 7233SOL    HW223597   3.689  13.111   1.003
 7234SOL     OW23598   8.997  12.814   3.115
 7234SOL    HW123599   8.956  12.765   3.186
 7234SOL    HW223600   9.062  12.754   3.078
 7235SOL     OW23601  13.475   3.256  13.280
 7235SOL    HW123602  13.515   3.169  13.285
 7235SOL    HW223603  13.431   3.267  13.364
 7236SOL     OW23604   1.579  10.985   0.144
 7236SOL    HW123605   1.499  10.947   0.106
 7236SOL    HW223606   1.570  10.970   0.238
 7237SOL     OW23607   6.549   6.356  13.232
 7237SOL    HW123608   6.587   6.271  13.210
 7237SOL    HW223609   6.576   6.414  13.160
 7238SOL     OW23610  10.158   3.301   9.383
 7238SOL    HW123611  10.165   3.376   9.442
 7238SOL    HW223612  10.204   3.328   9.303
 7239SOL     OW23613  12.504   6.897   8.128
 7239SOL    HW123614  12.415   6.912   8.159
 7239SOL    HW223615  12.532   6.982   8.095
 7240SOL     OW23616   3.865   8.260   7.538
 7240SOL    HW123617   3.871   8.199   7.465
 7240SOL    HW223618   3.821   8.211   7.607
 7241SOL     OW23619   3.134   8.358  12.516
 7241SOL    HW123620   3.158   8.352  12.424
 7241SOL    HW223621   3.139   8.268  12.548
 7242SOL     OW23622   5.660   4.905  13.504
 7242SOL    HW123623   5.573   4.871  13.524
 7242SOL    HW223624   5.714   4.880  13.579
 7243SOL     OW23625   8.788  13.796   8.155
 7243SOL    HW123626   8.880  13.769   8.154
 7243SOL    HW223627   8.790  13.887   8.185
 7244SOL     OW23628   8.515  12.685   9.068
 7244SOL    HW123629   8.564  12.639   9.137
 7244SOL    HW223630   8.579  12.746   9.031
 7245SOL     OW23631   8.324   5.719   8.030
 7245SOL    HW123632   8.279   5.743   7.949
 7245SOL    HW223633   8.264   5.746   8.099
 7246SOL     OW23634  14.374   9.251   3.004
 7246SOL    HW123635  14.298   9.286   3.051
 7246SOL    HW223636  14.431   9.326   2.990
 7247SOL     OW23637   3.215   0.696  14.597
 7247SOL    HW123638   3.172   0.640  14.662
 7247SOL    HW223639   3.168   0.779  14.602
 7248SOL     OW23640  11.563   6.052   3.763
 7248SOL    HW123641  11.619   6.109   3.817
 7248SOL    HW223642  11.575   6.084   3.674
 7249SOL     OW23643   6.815   3.696  13.192
 7249SOL    HW123644   6.886   3.704  13.128
 7249SOL    HW223645   6.850   3.635  13.257
 7250SOL     OW23646   0.438   8.608   8.899
 7250SOL    HW123647   0.530   8.610   8.875
 7250SOL    HW223648   0.438   8.606   8.995
 7251SOL     OW23649  12.358  12.856   8.730
 7251SOL    HW123650  12.375  12.812   8.814
 7251SOL    HW223651  12.362  12.949   8.751
 7252SOL     OW23652   8.150   3.806  11.209
 7252SOL    HW123653   8.237   3.795  11.169
 7252SOL    HW223654   8.159   3.885  11.262
 7253SOL     OW23655   7.137   6.549   9.274
 7253SOL    HW123656   7.131   6.603   9.352
 7253SOL    HW223657   7.154   6.610   9.203
 7254SOL     OW23658   0.298  14.401  10.161
 7254SOL    HW123659   0.214  14.354  10.169
 7254SOL    HW223660   0.278  14.475  10.104
 7255SOL     OW23661  12.561   9.227  12.474
 7255SOL    HW123662  12.554   9.133  12.458
 7255SOL    HW223663  12.632   9.256  12.417
 7256SOL     OW23664   8.698  13.630   2.283
 7256SOL    HW123665   8.719  13.537   2.289
 7256SOL    HW223666   8.669  13.653   2.371
 7257SOL     OW23667  12.179  10.146   2.328
 7257SOL    HW123668  12.229  10.225   2.308
 7257SOL    HW223669  12.216  10.113   2.410
 7258SOL     OW23670   8.005  10.767  11.571
 7258SOL    HW123671   7.923  10.782  11.619
 7258SOL    HW223672   8.017  10.672  11.575
 7259SOL     OW23673   0.186   9.091   6.443
 7259SOL    HW123674   0.187   9.046   6.359
 7259SOL    HW223675   0.110   9.054   6.489
 7260SOL     OW23676   4.721   9.456   2.130
 7260SOL    HW123677   4.734   9.517   2.203
 7260SOL    HW223678   4.774   9.493   2.059
 7261SOL     OW23679   0.793  13.345   9.987
 7261SOL    HW123680   0.880  13.364  10.021
 7261SOL    HW223681   0.759  13.430   9.959
 7262SOL     OW23682   0.354  13.436   4.480
 7262SOL    HW123683   0.308  13.449   4.563
 7262SOL    HW223684   0.387  13.523   4.456
 7263SOL     OW23685  11.068   0.699   2.229
 7263SOL    HW123686  11.040   0.790   2.220
 7263SOL    HW223687  11.124   0.698   2.307
 7264SOL     OW23688   0.837   2.694  12.746
 7264SOL    HW123689   0.750   2.660  12.767
 7264SOL    HW223690   0.861   2.745  12.823
 7265SOL     OW23691   7.736   2.044   6.694
 7265SOL    HW123692   7.806   2.045   6.629
 7265SOL    HW223693   7.770   1.991   6.766
 7266SOL     OW23694   0.184   5.056   5.936
 7266SOL    HW123695   0.193   4.965   5.965
 7266SOL    HW223696   0.092   5.077   5.952
 7267SOL     OW23697   8.454   9.390   9.762
 7267SOL    HW123698   8.412   9.308   9.789
 7267SOL    HW223699   8.417   9.407   9.675
 7268SOL     OW23700   4.199  14.096  13.750
 7268SOL    HW123701   4.254  14.162  13.792
 7268SOL    HW223702   4.110  14.120  13.775
 7269SOL     OW23703  12.144   1.816   5.893
 7269SOL    HW123704  12.057   1.780   5.875
 7269SOL    HW223705  12.201   1.739   5.896
 7270SOL     OW23706  11.154  11.638  11.535
 7270SOL    HW123707  11.071  11.683  11.551
 7270SOL    HW223708  11.139  11.589  11.454
 7271SOL     OW23709  14.673  13.318  10.635
 7271SOL    HW123710  14.589  13.328  10.680
 7271SOL    HW223711  14.738  13.324  10.705
 7272SOL     OW23712   4.341   4.413   4.991
 7272SOL    HW123713   4.434   4.391   4.986
 7272SOL    HW223714   4.333   4.465   5.071
 7273SOL     OW23715   7.677   6.930  10.787
 7273SOL    HW123716   7.595   6.909  10.742
 7273SOL    HW223717   7.745   6.911  10.721
 7274SOL     OW23718   3.220   4.682  12.067
 7274SOL    HW123719   3.291   4.719  12.120
 7274SOL    HW223720   3.263   4.615  12.013
 7275SOL     OW23721   4.827  11.954  11.302
 7275SOL    HW123722   4.752  11.975  11.358
 7275SOL    HW223723   4.837  12.032  11.247
 7276SOL     OW23724   2.285   1.683   8.691
 7276SOL    HW123725   2.267   1.775   8.677
 7276SOL    HW223726   2.221   1.655   8.757
 7277SOL     OW23727   1.766   6.668   4.141
 7277SOL    HW123728   1.839   6.700   4.089
 7277SOL    HW223729   1.807   6.611   4.207
 7278SOL     OW23730   7.030  11.271   8.927
 7278SOL    HW123731   6.979  11.204   8.974
 7278SOL    HW223732   7.055  11.228   8.845
 7279SOL     OW23733   3.984   3.220  10.254
 7279SOL    HW123734   3.978   3.315  10.243
 7279SOL    HW223735   3.949   3.204  10.341
 7280SOL     OW23736   2.551  10.528  14.503
 7280SOL    HW123737   2.558  10.499  14.412
 7280SOL    HW223738   2.551  10.447  14.553
 7281SOL     OW23739   5.379  10.197   8.622
 7281SOL    HW123740   5.443  10.131   8.648
 7281SOL    HW223741   5.294  10.160   8.648
 7282SOL     OW23742  12.355   9.368   0.673
 7282SOL    HW123743  12.398   9.428   0.735
 7282SOL    HW223744  12.344   9.287   0.722
 7283SOL     OW23745   5.767   3.929  13.361
 7283SOL    HW123746   5.827   3.982  13.308
 7283SOL    HW223747   5.824   3.884  13.423
 7284SOL     OW23748   3.785  12.743   1.989
 7284SOL    HW123749   3.721  12.780   2.049
 7284SOL    HW223750   3.818  12.666   2.034
 7285SOL     OW23751   3.688   8.317  13.209
 7285SOL    HW123752   3.708   8.410  13.211
 7285SOL    HW223753   3.627   8.307  13.136
 7286SOL     OW23754  12.177   4.185   6.321
 7286SOL    HW123755  12.198   4.096   6.292
 7286SOL    HW223756  12.122   4.221   6.251
 7287SOL     OW23757   8.507  11.150   1.384
 7287SOL    HW123758   8.475  11.230   1.426
 7287SOL    HW223759   8.434  11.120   1.331
 7288SOL     OW23760   3.378  14.687   1.322
 7288SOL    HW123761   3.292  14.649   1.307
 7288SOL    HW223762   3.379  14.709   1.416
 7289SOL     OW23763   4.951   8.260  10.453
 7289SOL    HW123764   4.859   8.257  10.476
 7289SOL    HW223765   4.997   8.261  10.537
 7290SOL     OW23766  12.915   2.481   3.039
 7290SOL    HW123767  12.906   2.540   2.964
 7290SOL    HW223768  12.829   2.439   3.048
 7291SOL     OW23769  11.194  11.001   9.594
 7291SOL    HW123770  11.204  10.907   9.610
 7291SOL    HW223771  11.184  11.008   9.499
 7292SOL     OW23772   4.341   2.613  14.110
 7292SOL    HW123773   4.322   2.582  14.021
 7292SOL    HW223774   4.348   2.533  14.162
 7293SOL     OW23775  11.253   1.905  12.843
 7293SOL    HW123776  11.280   1.914  12.752
 7293SOL    HW223777  11.197   1.828  12.844
 7294SOL     OW23778   2.571   7.363   7.207
 7294SOL    HW123779   2.667   7.360   7.209
 7294SOL    HW223780   2.543   7.282   7.250
 7295SOL     OW23781  12.116   0.439   7.277
 7295SOL    HW123782  12.106   0.347   7.252
 7295SOL    HW223783  12.026   0.471   7.286
 7296SOL     OW23784   0.247  10.841  10.881
 7296SOL    HW123785   0.213  10.870  10.966
 7296SOL    HW223786   0.175  10.792  10.842
 7297SOL     OW23787   9.083   6.570   5.517
 7297SOL    HW123788   9.002   6.599   5.560
 7297SOL    HW223789   9.150   6.629   5.550
 7298SOL     OW23790  13.639   7.439   0.121
 7298SOL    HW123791  13.698   7.366   0.136
 7298SOL    HW223792  13.632   7.482   0.207
 7299SOL     OW23793   1.370   2.112   3.567
 7299SOL    HW123794   1.377   2.092   3.660
 7299SOL    HW223795   1.448   2.075   3.527
 7300SOL     OW23796  12.096   4.119   6.886
 7300SOL    HW123797  12.191   4.117   6.878
 7300SOL    HW223798  12.074   4.037   6.929
 7301SOL     OW23799  11.782   4.839  11.892
 7301SOL    HW123800  11.749   4.927  11.908
 7301SOL    HW223801  11.745   4.813  11.807
 7302SOL     OW23802   0.969   1.252   6.383
 7302SOL    HW123803   1.019   1.320   6.337
 7302SOL    HW223804   0.949   1.187   6.315
 7303SOL     OW23805   2.832   0.914   5.632
 7303SOL    HW123806   2.832   0.919   5.536
 7303SOL    HW223807   2.871   0.829   5.652
 7304SOL     OW23808   9.098   3.356   1.932
 7304SOL    HW123809   9.021   3.327   1.884
 7304SOL    HW223810   9.160   3.383   1.865
 7305SOL     OW23811   0.393  13.909   6.799
 7305SOL    HW123812   0.302  13.888   6.781
 7305SOL    HW223813   0.416  13.973   6.731
 7306SOL     OW23814   7.788   6.332   7.473
 7306SOL    HW123815   7.775   6.248   7.516
 7306SOL    HW223816   7.709   6.344   7.420
 7307SOL     OW23817  14.093   3.004  11.067
 7307SOL    HW123818  14.120   3.076  11.124
 7307SOL    HW223819  14.133   2.926  11.105
 7308SOL     OW23820   8.958   4.907  14.447
 7308SOL    HW123821   9.018   4.973  14.412
 7308SOL    HW223822   9.008   4.864  14.516
 7309SOL     OW23823   1.483   8.425   4.355
 7309SOL    HW123824   1.559   8.480   4.376
 7309SOL    HW223825   1.426   8.434   4.431
 7310SOL     OW23826   8.406   9.287  13.713
 7310SOL    HW123827   8.436   9.378  13.703
 7310SOL    HW223828   8.431   9.264  13.802
 7311SOL     OW23829   8.777   3.740   7.027
 7311SOL    HW123830   8.870   3.745   7.047
 7311SOL    HW223831   8.741   3.824   7.057
 7312SOL     OW23832   8.632   1.005   2.106
 7312SOL    HW123833   8.637   0.940   2.176
 7312SOL    HW223834   8.634   0.953   2.026
 7313SOL     OW23835   8.333  13.434   1.858
 7313SOL    HW123836   8.337  13.461   1.766
 7313SOL    HW223837   8.278  13.355   1.858
 7314SOL     OW23838  11.797  12.566   3.716
 7314SOL    HW123839  11.853  12.489   3.709
 7314SOL    HW223840  11.818  12.619   3.640
 7315SOL     OW23841   4.967   2.094   6.140
 7315SOL    HW123842   4.968   2.022   6.204
 7315SOL    HW223843   5.047   2.143   6.158
 7316SOL     OW23844  11.147   6.335   7.332
 7316SOL    HW123845  11.167   6.333   7.239
 7316SOL    HW223846  11.151   6.428   7.356
 7317SOL     OW23847   7.018   7.079  11.807
 7317SOL    HW123848   6.932   7.077  11.764
 7317SOL    HW223849   6.997   7.084  11.901
 7318SOL     OW23850  13.350   8.738  13.318
 7318SOL    HW123851  13.343   8.833  13.332
 7318SOL    HW223852  13.264   8.712  13.284
 7319SOL     OW23853   7.784   2.738   6.526
 7319SOL    HW123854   7.760   2.664   6.470
 7319SOL    HW223855   7.880   2.740   6.523
 7320SOL     OW23856   8.016   1.645  12.870
 7320SOL    HW123857   8.007   1.701  12.793
 7320SOL    HW223858   7.950   1.576  12.858
 7321SOL     OW23859   5.803  10.947   9.501
 7321SOL    HW123860   5.753  10.883   9.550
 7321SOL    HW223861   5.768  10.943   9.412
 7322SOL     OW23862   2.865  12.934   8.383
 7322SOL    HW123863   2.816  12.865   8.338
 7322SOL    HW223864   2.800  13.004   8.396
 7323SOL     OW23865  12.035   7.480  14.303
 7323SOL    HW123866  12.077   7.561  14.273
 7323SOL    HW223867  12.048   7.418  14.231
 7324SOL     OW23868   0.527  12.637   9.900
 7324SOL    HW123869   0.526  12.564   9.837
 7324SOL    HW223870   0.451  12.690   9.876
 7325SOL     OW23871   6.812  11.356  14.389
 7325SOL    HW123872   6.751  11.284  14.408
 7325SOL    HW223873   6.791  11.381  14.299
 7326SOL     OW23874  10.598  11.809   2.095
 7326SOL    HW123875  10.621  11.732   2.147
 7326SOL    HW223876  10.627  11.788   2.006
 7327SOL     OW23877  10.350   3.419  12.446
 7327SOL    HW123878  10.435   3.379  12.427
 7327SOL    HW223879  10.371   3.497  12.497
 7328SOL     OW23880   0.787  14.336  11.073
 7328SOL    HW123881   0.699  14.368  11.088
 7328SOL    HW223882   0.833  14.351  11.156
 7329SOL     OW23883   2.250  13.655   1.785
 7329SOL    HW123884   2.302  13.735   1.786
 7329SOL    HW223885   2.243  13.633   1.692
 7330SOL     OW23886   0.426  13.094   2.532
 7330SOL    HW123887   0.410  13.054   2.447
 7330SOL    HW223888   0.521  13.102   2.538
 7331SOL     OW23889  13.274   2.188   0.010
 7331SOL    HW123890  13.259   2.203   0.104
 7331SOL    HW223891  13.355   2.138   0.006
 7332SOL     OW23892  14.045   0.064  13.477
 7332SOL    HW123893  14.008   0.004  13.412
 7332SOL    HW223894  14.132   0.029  13.495
 7333SOL     OW23895   9.400   2.457  14.697
 7333SOL    HW123896   9.314   2.417  14.690
 7333SOL    HW223897   9.459   2.395  14.656
 7334SOL     OW23898   5.747   9.043  11.535
 7334SOL    HW123899   5.668   9.004  11.498
 7334SOL    HW223900   5.715   9.094  11.610
 7335SOL     OW23901  10.172  13.523   8.725
 7335SOL    HW123902  10.078  13.521   8.711
 7335SOL    HW223903  10.197  13.431   8.737
 7336SOL     OW23904   3.000   0.229   3.686
 7336SOL    HW123905   2.912   0.210   3.654
 7336SOL    HW223906   3.052   0.245   3.607
 7337SOL     OW23907  10.900  11.801   0.621
 7337SOL    HW123908  10.914  11.716   0.580
 7337SOL    HW223909  10.988  11.833   0.640
 7338SOL     OW23910   4.198   4.023   1.324
 7338SOL    HW123911   4.116   4.052   1.366
 7338SOL    HW223912   4.194   4.062   1.236
 7339SOL     OW23913   1.861  13.765   9.359
 7339SOL    HW123914   1.827  13.687   9.404
 7339SOL    HW223915   1.812  13.767   9.276
 7340SOL     OW23916   3.328   7.637   6.506
 7340SOL    HW123917   3.339   7.689   6.586
 7340SOL    HW223918   3.276   7.562   6.533
 7341SOL     OW23919   5.960  12.004   5.969
 7341SOL    HW123920   5.940  12.090   6.006
 7341SOL    HW223921   5.888  11.988   5.908
 7342SOL     OW23922   5.715   4.510   9.410
 7342SOL    HW123923   5.695   4.418   9.426
 7342SOL    HW223924   5.720   4.518   9.315
 7343SOL     OW23925   6.525  11.441   1.569
 7343SOL    HW123926   6.619  11.442   1.581
 7343SOL    HW223927   6.503  11.349   1.552
 7344SOL     OW23928   6.354   8.966   1.838
 7344SOL    HW123929   6.333   8.875   1.857
 7344SOL    HW223930   6.322   8.980   1.748
 7345SOL     OW23931   8.340   3.536  14.186
 7345SOL    HW123932   8.293   3.461  14.151
 7345SOL    HW223933   8.383   3.502  14.265
 7346SOL     OW23934   4.650   6.549  12.421
 7346SOL    HW123935   4.607   6.615  12.476
 7346SOL    HW223936   4.709   6.600  12.365
 7347SOL     OW23937   9.147   4.762   8.814
 7347SOL    HW123938   9.208   4.787   8.882
 7347SOL    HW223939   9.167   4.821   8.741
 7348SOL     OW23940   7.560   7.101   1.991
 7348SOL    HW123941   7.464   7.101   1.991
 7348SOL    HW223942   7.584   7.018   2.034
 7349SOL     OW23943  13.763   0.489   2.027
 7349SOL    HW123944  13.758   0.582   2.006
 7349SOL    HW223945  13.759   0.486   2.123
 7350SOL     OW23946   5.060   4.642   0.964
 7350SOL    HW123947   5.005   4.699   0.910
 7350SOL    HW223948   4.999   4.579   1.002
 7351SOL     OW23949  10.091   1.269   1.999
 7351SOL    HW123950  10.033   1.335   2.037
 7351SOL    HW223951  10.049   1.186   2.021
 7352SOL     OW23952   3.371  14.824   3.870
 7352SOL    HW123953   3.334  14.818   3.958
 7352SOL    HW223954   3.465  14.832   3.883
 7353SOL     OW23955   5.381   5.382   3.376
 7353SOL    HW123956   5.295   5.391   3.418
 7353SOL    HW223957   5.414   5.472   3.371
 7354SOL     OW23958   9.794   2.232   4.342
 7354SOL    HW123959   9.756   2.291   4.278
 7354SOL    HW223960   9.788   2.145   4.301
 7355SOL     OW23961   8.826   4.297   2.541
 7355SOL    HW123962   8.763   4.315   2.471
 7355SOL    HW223963   8.830   4.379   2.591
 7356SOL     OW23964   7.043  13.114   5.682
 7356SOL    HW123965   6.984  13.161   5.623
 7356SOL    HW223966   7.098  13.061   5.624
 7357SOL     OW23967  10.408  14.225   2.243
 7357SOL    HW123968  10.414  14.147   2.298
 7357SOL    HW223969  10.489  14.273   2.259
 7358SOL     OW23970   8.274   2.102   4.183
 7358SOL    HW123971   8.302   2.168   4.120
 7358SOL    HW223972   8.355   2.071   4.223
 7359SOL     OW23973  13.133   9.308   2.009
 7359SOL    HW123974  13.116   9.321   2.102
 7359SOL    HW223975  13.063   9.356   1.965
 7360SOL     OW23976   5.507   1.372   6.319
 7360SOL    HW123977   5.476   1.442   6.376
 7360SOL    HW223978   5.590   1.405   6.284
 7361SOL     OW23979   6.294   9.585  13.452
 7361SOL    HW123980   6.277   9.671  13.492
 7361SOL    HW223981   6.307   9.604  13.359
 7362SOL     OW23982  11.910   5.672   3.934
 7362SOL    HW123983  11.886   5.749   3.881
 7362SOL    HW223984  11.907   5.599   3.872
 7363SOL     OW23985   1.790   8.695  13.994
 7363SOL    HW123986   1.752   8.688  14.081
 7363SOL    HW223987   1.736   8.761  13.949
 7364SOL     OW23988  13.876   3.542   9.579
 7364SOL    HW123989  13.898   3.632   9.555
 7364SOL    HW223990  13.955   3.508   9.621
 7365SOL     OW23991   3.469   9.264   3.009
 7365SOL    HW123992   3.376   9.246   2.994
 7365SOL    HW223993   3.490   9.335   2.949
 7366SOL     OW23994   1.937  10.578   3.734
 7366SOL    HW123995   2.015  10.522   3.735
 7366SOL    HW223996   1.936  10.616   3.646
 7367SOL     OW23997   2.188   2.528   6.867
 7367SOL    HW123998   2.196   2.491   6.955
 7367SOL    HW223999   2.266   2.582   6.856
 7368SOL     OW24000   3.130   7.913   6.782
 7368SOL    HW124001   3.070   7.967   6.834
 7368SOL    HW224002   3.169   7.975   6.720
 7369SOL     OW24003   9.244  11.411   3.900
 7369SOL    HW124004   9.323  11.368   3.933
 7369SOL    HW224005   9.174  11.381   3.958
 7370SOL     OW24006  12.385   3.023  13.504
 7370SOL    HW124007  12.351   2.941  13.467
 7370SOL    HW224008  12.375   3.087  13.433
 7371SOL     OW24009   4.100   0.950  10.912
 7371SOL    HW124010   4.022   0.938  10.965
 7371SOL    HW224011   4.133   0.862  10.895
 7372SOL     OW24012   8.491  11.618  13.689
 7372SOL    HW124013   8.586  11.611  13.688
 7372SOL    HW224014   8.472  11.692  13.631
 7373SOL     OW24015   6.931  13.398   5.627
 7373SOL    HW124016   7.021  13.424   5.644
 7373SOL    HW224017   6.892  13.474   5.583
 7374SOL     OW24018  11.711   9.535   6.650
 7374SOL    HW124019  11.647   9.605   6.645
 7374SOL    HW224020  11.681   9.479   6.722
 7375SOL     OW24021  12.550  12.837   4.254
 7375SOL    HW124022  12.571  12.753   4.296
 7375SOL    HW224023  12.454  12.839   4.253
 7376SOL     OW24024   3.050  11.299   9.510
 7376SOL    HW124025   3.128  11.307   9.565
 7376SOL    HW224026   3.039  11.386   9.472
 7377SOL     OW24027   7.151   0.038   8.183
 7377SOL    HW124028   7.112   0.067   8.266
 7377SOL    HW224029   7.173   0.119   8.138
 7378SOL     OW24030   8.834   9.951   8.901
 7378SOL    HW124031   8.805  10.037   8.930
 7378SOL    HW224032   8.902   9.969   8.836
 7379SOL     OW24033  10.176   3.058   5.803
 7379SOL    HW124034  10.138   3.043   5.716
 7379SOL    HW224035  10.208   3.148   5.800
 7380SOL     OW24036   3.726   7.821   1.355
 7380SOL    HW124037   3.657   7.788   1.413
 7380SOL    HW224038   3.775   7.883   1.409
 7381SOL     OW24039   8.196   2.989  11.043
 7381SOL    HW124040   8.216   3.003  10.950
 7381SOL    HW224041   8.281   2.993  11.087
 7382SOL     OW24042   3.770   9.323  12.753
 7382SOL    HW124043   3.708   9.273  12.699
 7382SOL    HW224044   3.755   9.414  12.727
 7383SOL     OW24045   6.743   7.459  13.461
 7383SOL    HW124046   6.778   7.402  13.393
 7383SOL    HW224047   6.662   7.416  13.488
 7384SOL     OW24048   4.097  11.231  13.422
 7384SOL    HW124049   4.125  11.322  13.435
 7384SOL    HW224050   4.123  11.187  13.502
 7385SOL     OW24051   2.723  13.384   2.139
 7385SOL    HW124052   2.801  13.369   2.085
 7385SOL    HW224053   2.676  13.301   2.137
 7386SOL     OW24054   2.735   1.299   6.938
 7386SOL    HW124055   2.809   1.240   6.921
 7386SOL    HW224056   2.684   1.297   6.857
 7387SOL     OW24057   1.650  11.877  11.681
 7387SOL    HW124058   1.716  11.907  11.619
 7387SOL    HW224059   1.661  11.933  11.758
 7388SOL     OW24060  12.438   4.274   9.541
 7388SOL    HW124061  12.485   4.255   9.460
 7388SOL    HW224062  12.404   4.189   9.569
 7389SOL     OW24063   2.528   4.760  11.234
 7389SOL    HW124064   2.570   4.762  11.148
 7389SOL    HW224065   2.560   4.839  11.278
 7390SOL     OW24066   6.899  11.042   6.161
 7390SOL    HW124067   6.989  11.029   6.132
 7390SOL    HW224068   6.897  11.002   6.249
 7391SOL     OW24069   8.121   8.782   5.741
 7391SOL    HW124070   8.098   8.693   5.769
 7391SOL    HW224071   8.166   8.770   5.657
 7392SOL     OW24072  13.847   4.267   5.569
 7392SOL    HW124073  13.936   4.300   5.557
 7392SOL    HW224074  13.793   4.346   5.575
 7393SOL     OW24075   3.390  14.834  11.587
 7393SOL    HW124076   3.450  14.790  11.526
 7393SOL    HW224077   3.318  14.773  11.599
 7394SOL     OW24078  13.448   1.742   3.263
 7394SOL    HW124079  13.384   1.671   3.265
 7394SOL    HW224080  13.482   1.748   3.352
 7395SOL     OW24081  13.259  12.475   5.820
 7395SOL    HW124082  13.348  12.497   5.794
 7395SOL    HW224083  13.205  12.544   5.781
 7396SOL     OW24084   0.344   2.567   7.370
 7396SOL    HW124085   0.286   2.557   7.445
 7396SOL    HW224086   0.292   2.537   7.295
 7397SOL     OW24087   1.496   2.129   4.495
 7397SOL    HW124088   1.434   2.200   4.481
 7397SOL    HW224089   1.572   2.152   4.441
 7398SOL     OW24090   5.405   0.756   2.164
 7398SOL    HW124091   5.466   0.719   2.228
 7398SOL    HW224092   5.394   0.688   2.098
 7399SOL     OW24093   3.695   0.465   0.650
 7399SOL    HW124094   3.616   0.495   0.696
 7399SOL    HW224095   3.758   0.449   0.721
 7400SOL     OW24096   2.742   4.178  14.045
 7400SOL    HW124097   2.686   4.256  14.038
 7400SOL    HW224098   2.815   4.196  13.985
 7401SOL     OW24099  11.392   7.588   4.891
 7401SOL    HW124100  11.354   7.577   4.804
 7401SOL    HW224101  11.485   7.568   4.878
 7402SOL     OW24102  13.395   2.438   0.816
 7402SOL    HW124103  13.409   2.438   0.911
 7402SOL    HW224104  13.401   2.346   0.790
 7403SOL     OW24105  13.160   8.838   8.603
 7403SOL    HW124106  13.232   8.802   8.552
 7403SOL    HW224107  13.121   8.761   8.646
 7404SOL     OW24108   8.961   6.551  10.895
 7404SOL    HW124109   8.875   6.520  10.864
 7404SOL    HW224110   9.018   6.475  10.886
 7405SOL     OW24111  11.130   0.029  11.927
 7405SOL    HW124112  11.131   0.084  12.006
 7405SOL    HW224113  11.100   0.088  11.858
 7406SOL     OW24114   1.461   1.973   5.910
 7406SOL    HW124115   1.494   1.891   5.874
 7406SOL    HW224116   1.520   1.993   5.982
 7407SOL     OW24117   1.619   4.508   3.215
 7407SOL    HW124118   1.578   4.486   3.299
 7407SOL    HW224119   1.577   4.589   3.188
 7408SOL     OW24120   2.426   1.596   4.085
 7408SOL    HW124121   2.399   1.559   4.169
 7408SOL    HW224122   2.434   1.690   4.102
 7409SOL     OW24123  14.530   0.844   7.191
 7409SOL    HW124124  14.600   0.796   7.146
 7409SOL    HW224125  14.496   0.904   7.124
 7410SOL     OW24126   0.807   7.004   3.942
 7410SOL    HW124127   0.888   6.953   3.939
 7410SOL    HW224128   0.835   7.090   3.975
 7411SOL     OW24129  11.512   3.749   0.726
 7411SOL    HW124130  11.547   3.757   0.815
 7411SOL    HW224131  11.476   3.836   0.707
 7412SOL     OW24132   8.167  13.009  11.564
 7412SOL    HW124133   8.170  13.013  11.469
 7412SOL    HW224134   8.140  13.098  11.591
 7413SOL     OW24135   5.293   7.712   9.233
 7413SOL    HW124136   5.388   7.708   9.246
 7413SOL    HW224137   5.275   7.645   9.167
 7414SOL     OW24138  10.752   9.912   2.996
 7414SOL    HW124139  10.717   9.987   2.948
 7414SOL    HW224140  10.697   9.838   2.968
 7415SOL     OW24141  10.959  13.021   4.745
 7415SOL    HW124142  10.897  13.014   4.817
 7415SOL    HW224143  10.905  13.034   4.667
 7416SOL     OW24144  13.654   8.791  10.416
 7416SOL    HW124145  13.622   8.798  10.506
 7416SOL    HW224146  13.747   8.769  10.425
 7417SOL     OW24147  10.640   0.223   9.605
 7417SOL    HW124148  10.700   0.273   9.549
 7417SOL    HW224149  10.694   0.194   9.678
 7418SOL     OW24150  11.859  10.224   8.094
 7418SOL    HW124151  11.818  10.245   8.010
 7418SOL    HW224152  11.827  10.136   8.115
 7419SOL     OW24153  14.591   2.486   2.676
 7419SOL    HW124154  14.637   2.532   2.746
 7419SOL    HW224155  14.509   2.457   2.716
 7420SOL     OW24156   7.980   7.118  10.861
 7420SOL    HW124157   8.033   7.050  10.820
 7420SOL    HW224158   8.044   7.179  10.899
 7421SOL     OW24159   2.377  13.799  14.343
 7421SOL    HW124160   2.460  13.771  14.381
 7421SOL    HW224161   2.364  13.741  14.268
 7422SOL     OW24162   0.557   4.863   9.310
 7422SOL    HW124163   0.594   4.780   9.278
 7422SOL    HW224164   0.624   4.898   9.368
 7423SOL     OW24165   7.184  12.608   4.639
 7423SOL    HW124166   7.238  12.685   4.619
 7423SOL    HW224167   7.201  12.547   4.567
 7424SOL     OW24168  11.141   3.189   6.827
 7424SOL    HW124169  11.057   3.161   6.863
 7424SOL    HW224170  11.156   3.275   6.866
 7425SOL     OW24171  10.422   9.565   6.848
 7425SOL    HW124172  10.383   9.497   6.904
 7425SOL    HW224173  10.453   9.518   6.771
 7426SOL     OW24174  10.119   0.137   7.562
 7426SOL    HW124175  10.073   0.213   7.527
 7426SOL    HW224176  10.091   0.130   7.653
 7427SOL     OW24177  12.546   8.038   4.594
 7427SOL    HW124178  12.535   8.011   4.686
 7427SOL    HW224179  12.611   7.977   4.559
 7428SOL     OW24180   6.414   1.711   8.505
 7428SOL    HW124181   6.323   1.739   8.515
 7428SOL    HW224182   6.464   1.780   8.548
 7429SOL     OW24183  12.693   1.249  14.335
 7429SOL    HW124184  12.745   1.209  14.405
 7429SOL    HW224185  12.670   1.177  14.277
 7430SOL     OW24186   8.633  14.587   7.851
 7430SOL    HW124187   8.708  14.640   7.877
 7430SOL    HW224188   8.609  14.620   7.765
 7431SOL     OW24189   6.227   2.556   9.291
 7431SOL    HW124190   6.161   2.511   9.344
 7431SOL    HW224191   6.310   2.514   9.317
 7432SOL     OW24192   5.171  13.855  10.088
 7432SOL    HW124193   5.114  13.901  10.025
 7432SOL    HW224194   5.117  13.782  10.119
 7433SOL     OW24195   0.830   8.090   3.914
 7433SOL    HW124196   0.918   8.126   3.900
 7433SOL    HW224197   0.796   8.140   3.988
 7434SOL     OW24198   3.810   4.381   0.950
 7434SOL    HW124199   3.900   4.400   0.924
 7434SOL    HW224200   3.768   4.466   0.955
 7435SOL     OW24201   4.793   1.393  13.543
 7435SOL    HW124202   4.732   1.458  13.510
 7435SOL    HW224203   4.746   1.349  13.614
 7436SOL     OW24204  12.860   8.869  13.203
 7436SOL    HW124205  12.941   8.828  13.174
 7436SOL    HW224206  12.821   8.905  13.123
 7437SOL     OW24207   2.323  11.787   9.231
 7437SOL    HW124208   2.404  11.835   9.248
 7437SOL    HW224209   2.254  11.846   9.263
 7438SOL     OW24210  11.703  10.853   6.094
 7438SOL    HW124211  11.667  10.900   6.020
 7438SOL    HW224212  11.735  10.770   6.058
 7439SOL     OW24213  10.822   8.572   3.193
 7439SOL    HW124214  10.810   8.574   3.288
 7439SOL    HW224215  10.832   8.480   3.172
 7440SOL     OW24216  13.615   4.840   9.604
 7440SOL    HW124217  13.553   4.832   9.676
 7440SOL    HW224218  13.669   4.761   9.609
 7441SOL     OW24219  13.192   9.506   2.225
 7441SOL    HW124220  13.204   9.601   2.223
 7441SOL    HW224221  13.278   9.470   2.205
 7442SOL     OW24222   2.533   3.048   5.783
 7442SOL    HW124223   2.472   2.974   5.783
 7442SOL    HW224224   2.478   3.124   5.798
 7443SOL     OW24225  10.980  13.399  11.959
 7443SOL    HW124226  11.042  13.339  12.001
 7443SOL    HW224227  10.970  13.364  11.871
 7444SOL     OW24228   9.895   1.026   7.494
 7444SOL    HW124229   9.910   1.040   7.587
 7444SOL    HW224230   9.800   1.016   7.487
 7445SOL     OW24231   1.585  11.013   7.534
 7445SOL    HW124232   1.635  10.977   7.607
 7445SOL    HW224233   1.520  11.070   7.576
 7446SOL     OW24234   3.913   2.963   8.658
 7446SOL    HW124235   3.984   3.018   8.625
 7446SOL    HW224236   3.956   2.900   8.716
 7447SOL     OW24237   8.980   8.277   0.123
 7447SOL    HW124238   8.895   8.315   0.102
 7447SOL    HW224239   8.970   8.246   0.213
 7448SOL     OW24240   0.638   0.923   9.540
 7448SOL    HW124241   0.700   0.851   9.531
 7448SOL    HW224242   0.648   0.952   9.631
 7449SOL     OW24243   3.030   6.336  12.974
 7449SOL    HW124244   3.120   6.326  13.004
 7449SOL    HW224245   3.035   6.324  12.879
 7450SOL     OW24246   1.600  14.169   8.358
 7450SOL    HW124247   1.552  14.086   8.347
 7450SOL    HW224248   1.664  14.168   8.286
 7451SOL     OW24249   2.126  13.556   6.320
 7451SOL    HW124250   2.141  13.651   6.322
 7451SOL    HW224251   2.188  13.524   6.255
 7452SOL     OW24252   0.784   5.874   8.461
 7452SOL    HW124253   0.694   5.841   8.457
 7452SOL    HW224254   0.835   5.811   8.409
 7453SOL     OW24255   4.606   7.059  10.123
 7453SOL    HW124256   4.647   7.140  10.151
 7453SOL    HW224257   4.658   6.990  10.164
 7454SOL     OW24258   7.377   7.973  13.436
 7454SOL    HW124259   7.463   7.951  13.402
 7454SOL    HW224260   7.316   7.945  13.368
 7455SOL     OW24261  10.981   2.061  11.923
 7455SOL    HW124262  10.892   2.078  11.894
 7455SOL    HW224263  10.977   1.975  11.965
 7456SOL     OW24264  14.796   5.292  14.133
 7456SOL    HW124265  14.719   5.311  14.186
 7456SOL    HW224266  14.814   5.374  14.087
 7457SOL     OW24267  11.230  13.918   9.172
 7457SOL    HW124268  11.266  13.852   9.113
 7457SOL    HW224269  11.216  13.995   9.116
 7458SOL     OW24270  14.510   4.272   7.753
 7458SOL    HW124271  14.525   4.366   7.755
 7458SOL    HW224272  14.591   4.234   7.720
 7459SOL     OW24273   3.623  11.911   1.523
 7459SOL    HW124274   3.656  11.822   1.513
 7459SOL    HW224275   3.529  11.901   1.535
 7460SOL     OW24276  12.395   9.085   6.526
 7460SOL    HW124277  12.317   9.038   6.497
 7460SOL    HW224278  12.409   9.056   6.616
 7461SOL     OW24279   1.699   0.152  13.456
 7461SOL    HW124280   1.693   0.238  13.415
 7461SOL    HW224281   1.687   0.169  13.549
 7462SOL     OW24282  13.619   7.406   6.805
 7462SOL    HW124283  13.658   7.493   6.793
 7462SOL    HW224284  13.679   7.347   6.758
 7463SOL     OW24285   7.254   7.995   1.538
 7463SOL    HW124286   7.226   7.925   1.596
 7463SOL    HW224287   7.341   8.019   1.570
 7464SOL     OW24288  12.594   4.521   1.779
 7464SOL    HW124289  12.510   4.566   1.766
 7464SOL    HW224290  12.644   4.538   1.699
 7465SOL     OW24291   0.062   5.422  10.450
 7465SOL    HW124292   0.073   5.469  10.367
 7465SOL    HW224293   0.092   5.333  10.431
 7466SOL     OW24294   5.286  14.173   8.051
 7466SOL    HW124295   5.198  14.208   8.062
 7466SOL    HW224296   5.317  14.158   8.141
 7467SOL     OW24297   1.752   5.733   3.835
 7467SOL    HW124298   1.692   5.705   3.905
 7467SOL    HW224299   1.705   5.804   3.791
 7468SOL     OW24300  11.167   4.487   8.774
 7468SOL    HW124301  11.175   4.575   8.738
 7468SOL    HW224302  11.257   4.455   8.781
 7469SOL     OW24303  12.300   3.561  14.532
 7469SOL    HW124304  12.353   3.523  14.462
 7469SOL    HW224305  12.328   3.514  14.611
 7470SOL     OW24306  11.422  13.950   7.840
 7470SOL    HW124307  11.515  13.971   7.840
 7470SOL    HW224308  11.380  14.028   7.876
 7471SOL     OW24309   1.929   4.202   3.238
 7471SOL    HW124310   1.971   4.180   3.154
 7471SOL    HW224311   1.836   4.188   3.223
 7472SOL     OW24312   3.737  12.918   2.329
 7472SOL    HW124313   3.759  12.825   2.333
 7472SOL    HW224314   3.811  12.959   2.284
 7473SOL     OW24315   2.156   5.989  12.044
 7473SOL    HW124316   2.089   6.057  12.038
 7473SOL    HW224317   2.152   5.944  11.959
 7474SOL     OW24318   8.750   0.272   3.659
 7474SOL    HW124319   8.655   0.283   3.670
 7474SOL    HW224320   8.763   0.177   3.665
 7475SOL     OW24321   0.170   4.940   4.695
 7475SOL    HW124322   0.119   4.921   4.774
 7475SOL    HW224323   0.129   5.018   4.658
 7476SOL     OW24324   4.013   8.873   8.853
 7476SOL    HW124325   3.997   8.942   8.917
 7476SOL    HW224326   3.953   8.891   8.782
 7477SOL     OW24327   8.840   8.035   6.673
 7477SOL    HW124328   8.905   8.047   6.742
 7477SOL    HW224329   8.889   7.994   6.602
 7478SOL     OW24330   9.663  12.097   5.607
 7478SOL    HW124331   9.710  12.131   5.684
 7478SOL    HW224332   9.709  12.135   5.532
 7479SOL     OW24333   5.079   2.859   7.665
 7479SOL    HW124334   5.096   2.877   7.757
 7479SOL    HW224335   5.148   2.906   7.618
 7480SOL     OW24336  12.567   2.429   2.312
 7480SOL    HW124337  12.508   2.458   2.382
 7480SOL    HW224338  12.568   2.501   2.250
 7481SOL     OW24339   0.446   1.338   9.446
 7481SOL    HW124340   0.400   1.421   9.433
 7481SOL    HW224341   0.479   1.343   9.536
 7482SOL     OW24342   1.119  10.491   1.910
 7482SOL    HW124343   1.196  10.470   1.964
 7482SOL    HW224344   1.137  10.448   1.826
 7483SOL     OW24345  11.561   5.003   5.649
 7483SOL    HW124346  11.611   5.020   5.729
 7483SOL    HW224347  11.572   5.083   5.597
 7484SOL     OW24348   1.353   7.430   0.632
 7484SOL    HW124349   1.408   7.354   0.653
 7484SOL    HW224350   1.290   7.396   0.568
 7485SOL     OW24351   4.981   6.042   6.747
 7485SOL    HW124352   5.010   6.106   6.811
 7485SOL    HW224353   5.059   5.989   6.729
 7486SOL     OW24354  12.629   7.530  14.112
 7486SOL    HW124355  12.582   7.449  14.092
 7486SOL    HW224356  12.636   7.531  14.207
 7487SOL     OW24357   3.987  14.087  11.314
 7487SOL    HW124358   3.995  13.994  11.291
 7487SOL    HW224359   4.077  14.117  11.324
 7488SOL     OW24360   0.583  12.318  13.246
 7488SOL    HW124361   0.575  12.236  13.295
 7488SOL    HW224362   0.677  12.334  13.241
 7489SOL     OW24363   6.699   4.585   8.280
 7489SOL    HW124364   6.720   4.592   8.187
 7489SOL    HW224365   6.748   4.656   8.321
 7490SOL     OW24366   7.275   3.938   6.184
 7490SOL    HW124367   7.237   3.998   6.249
 7490SOL    HW224368   7.369   3.939   6.202
 7491SOL     OW24369   0.720   9.330  13.349
 7491SOL    HW124370   0.803   9.337  13.396
 7491SOL    HW224371   0.676   9.256  13.390
 7492SOL     OW24372   4.942  10.223  10.663
 7492SOL    HW124373   5.024  10.228  10.713
 7492SOL    HW224374   4.958  10.156  10.597
 7493SOL     OW24375   9.271   4.995   1.836
 7493SOL    HW124376   9.185   5.024   1.807
 7493SOL    HW224377   9.271   4.901   1.822
 7494SOL     OW24378   9.603  11.137  10.299
 7494SOL    HW124379   9.606  11.173  10.387
 7494SOL    HW224380   9.513  11.106  10.289
 7495SOL     OW24381   8.935   1.714   6.124
 7495SOL    HW124382   8.942   1.700   6.029
 7495SOL    HW224383   9.024   1.699   6.156
 7496SOL     OW24384   8.296   2.458  10.795
 7496SOL    HW124385   8.260   2.424  10.713
 7496SOL    HW224386   8.222   2.457  10.856
 7497SOL     OW24387  11.464  13.681   7.408
 7497SOL    HW124388  11.455  13.764   7.362
 7497SOL    HW224389  11.374  13.654   7.428
 7498SOL     OW24390   4.168  12.018   7.867
 7498SOL    HW124391   4.107  12.046   7.798
 7498SOL    HW224392   4.163  12.088   7.933
 7499SOL     OW24393   1.091   4.738   9.083
 7499SOL    HW124394   1.120   4.685   9.157
 7499SOL    HW224395   1.169   4.747   9.028
 7500SOL     OW24396   5.463   7.666   6.322
 7500SOL    HW124397   5.454   7.575   6.294
 7500SOL    HW224398   5.527   7.663   6.393
 7501SOL     OW24399   7.303   1.904  13.426
 7501SOL    HW124400   7.373   1.969  13.433
 7501SOL    HW224401   7.225   1.955  13.404
 7502SOL     OW24402   5.042  14.396  10.972
 7502SOL    HW124403   4.997  14.338  10.910
 7502SOL    HW224404   5.038  14.483  10.931
 7503SOL     OW24405   4.269  13.375   9.198
 7503SOL    HW124406   4.364  13.381   9.204
 7503SOL    HW224407   4.246  13.301   9.254
 7504SOL     OW24408  12.513   3.883   5.428
 7504SOL    HW124409  12.498   3.857   5.519
 7504SOL    HW224410  12.565   3.963   5.433
 7505SOL     OW24411   5.930   9.130  10.921
 7505SOL    HW124412   5.967   9.217  10.938
 7505SOL    HW224413   5.988   9.070  10.968
 7506SOL     OW24414  13.573   4.769   7.570
 7506SOL    HW124415  13.580   4.837   7.637
 7506SOL    HW224416  13.505   4.710   7.602
 7507SOL     OW24417   7.105  11.440   6.586
 7507SOL    HW124418   7.048  11.496   6.640
 7507SOL    HW224419   7.078  11.351   6.607
 7508SOL     OW24420   7.761   4.042  10.571
 7508SOL    HW124421   7.775   4.010  10.482
 7508SOL    HW224422   7.747   4.136  10.560
 7509SOL     OW24423   6.751   2.444   6.967
 7509SOL    HW124424   6.701   2.364   6.982
 7509SOL    HW224425   6.807   2.452   7.045
 7510SOL     OW24426   6.346  14.319   5.424
 7510SOL    HW124427   6.311  14.245   5.374
 7510SOL    HW224428   6.401  14.366   5.361
 7511SOL     OW24429   2.979   1.644   8.858
 7511SOL    HW124430   2.903   1.703   8.853
 7511SOL    HW224431   3.034   1.670   8.784
 7512SOL     OW24432   1.248   7.996   7.292
 7512SOL    HW124433   1.324   8.049   7.315
 7512SOL    HW224434   1.188   8.057   7.249
 7513SOL     OW24435  13.017   7.617   0.743
 7513SOL    HW124436  13.014   7.705   0.704
 7513SOL    HW224437  12.967   7.626   0.824
 7514SOL     OW24438   3.242  12.106   2.559
 7514SOL    HW124439   3.166  12.064   2.601
 7514SOL    HW224440   3.258  12.184   2.612
 7515SOL     OW24441  12.451   6.991  10.628
 7515SOL    HW124442  12.379   7.034  10.674
 7515SOL    HW224443  12.526   6.998  10.687
 7516SOL     OW24444   1.831  14.220  10.374
 7516SOL    HW124445   1.855  14.169  10.451
 7516SOL    HW224446   1.807  14.306  10.410
 7517SOL     OW24447   9.563   9.449   5.761
 7517SOL    HW124448   9.585   9.511   5.831
 7517SOL    HW224449   9.510   9.382   5.804
 7518SOL     OW24450  12.101   6.185   5.822
 7518SOL    HW124451  12.147   6.119   5.874
 7518SOL    HW224452  12.162   6.209   5.753
 7519SOL     OW24453  13.389   2.207   7.146
 7519SOL    HW124454  13.380   2.187   7.239
 7519SOL    HW224455  13.440   2.135   7.110
 7520SOL     OW24456   6.435   6.146   9.914
 7520SOL    HW124457   6.526   6.130   9.939
 7520SOL    HW224458   6.400   6.059   9.895
 7521SOL     OW24459   7.044   9.903   3.765
 7521SOL    HW124460   6.969   9.870   3.813
 7521SOL    HW224461   7.071   9.982   3.813
 7522SOL     OW24462   2.861  14.255   0.422
 7522SOL    HW124463   2.830  14.341   0.450
 7522SOL    HW224464   2.901  14.270   0.337
 7523SOL     OW24465  13.737   4.754   1.018
 7523SOL    HW124466  13.811   4.707   0.980
 7523SOL    HW224467  13.676   4.765   0.945
 7524SOL     OW24468   5.981   5.578   5.028
 7524SOL    HW124469   5.946   5.520   4.960
 7524SOL    HW224470   6.029   5.645   4.979
 7525SOL     OW24471  13.047  11.214   8.820
 7525SOL    HW124472  13.038  11.215   8.916
 7525SOL    HW224473  13.047  11.121   8.797
 7526SOL     OW24474   9.680  10.324   6.504
 7526SOL    HW124475   9.719  10.239   6.521
 7526SOL    HW224476   9.713  10.350   6.418
 7527SOL     OW24477   0.513  14.375  13.770
 7527SOL    HW124478   0.503  14.467  13.792
 7527SOL    HW224479   0.607  14.361  13.765
 7528SOL     OW24480  11.799  12.535  14.396
 7528SOL    HW124481  11.863  12.565  14.332
 7528SOL    HW224482  11.789  12.609  14.457
 7529SOL     OW24483  11.482  10.659   8.244
 7529SOL    HW124484  11.549  10.596   8.216
 7529SOL    HW224485  11.530  10.723   8.296
 7530SOL     OW24486   4.471   0.543   3.926
 7530SOL    HW124487   4.398   0.490   3.893
 7530SOL    HW224488   4.537   0.478   3.951
 7531SOL     OW24489  13.324  10.972   3.578
 7531SOL    HW124490  13.362  10.949   3.663
 7531SOL    HW224491  13.389  11.029   3.538
 7532SOL     OW24492   2.763   5.858   1.001
 7532SOL    HW124493   2.831   5.876   0.936
 7532SOL    HW224494   2.711   5.787   0.962
 7533SOL     OW24495  14.652   8.258   5.492
 7533SOL    HW124496  14.590   8.249   5.420
 7533SOL    HW224497  14.730   8.297   5.453
 7534SOL     OW24498  13.289   9.331   1.751
 7534SOL    HW124499  13.288   9.248   1.702
 7534SOL    HW224500  13.220   9.321   1.817
 7535SOL     OW24501  12.538  12.675  14.236
 7535SOL    HW124502  12.541  12.579  14.240
 7535SOL    HW224503  12.628  12.701  14.217
 7536SOL     OW24504  10.432   4.562  12.956
 7536SOL    HW124505  10.454   4.597  13.042
 7536SOL    HW224506  10.337   4.547  12.960
 7537SOL     OW24507   4.532  10.661  11.591
 7537SOL    HW124508   4.579  10.580  11.614
 7537SOL    HW224509   4.472  10.635  11.522
 7538SOL     OW24510  10.260   6.561   5.288
 7538SOL    HW124511  10.236   6.605   5.370
 7538SOL    HW224512  10.332   6.614   5.253
 7539SOL     OW24513   6.776  11.049  14.000
 7539SOL    HW124514   6.838  10.988  14.040
 7539SOL    HW224515   6.825  11.091  13.929
 7540SOL     OW24516   4.884   9.445   6.798
 7540SOL    HW124517   4.842   9.446   6.713
 7540SOL    HW224518   4.968   9.400   6.783
 7541SOL     OW24519  14.488  12.703   8.037
 7541SOL    HW124520  14.434  12.624   8.041
 7541SOL    HW224521  14.502  12.719   7.944
 7542SOL     OW24522  11.786  11.616   6.589
 7542SOL    HW124523  11.832  11.700   6.585
 7542SOL    HW224524  11.827  11.569   6.661
 7543SOL     OW24525   7.699   0.711   9.799
 7543SOL    HW124526   7.795   0.718   9.796
 7543SOL    HW224527   7.681   0.624   9.765
 7544SOL     OW24528   2.010  11.496   4.895
 7544SOL    HW124529   2.069  11.437   4.943
 7544SOL    HW224530   2.044  11.583   4.913
 7545SOL     OW24531   7.233   0.502   5.777
 7545SOL    HW124532   7.241   0.481   5.870
 7545SOL    HW224533   7.288   0.579   5.764
 7546SOL     OW24534   3.143  11.081   3.198
 7546SOL    HW124535   3.178  11.160   3.241
 7546SOL    HW224536   3.139  11.104   3.105
 7547SOL     OW24537   8.388  11.316  14.150
 7547SOL    HW124538   8.399  11.249  14.083
 7547SOL    HW224539   8.408  11.272  14.232
 7548SOL     OW24540   9.465  12.641   8.981
 7548SOL    HW124541   9.406  12.646   9.056
 7548SOL    HW224542   9.466  12.730   8.946
 7549SOL     OW24543   9.327   9.812  14.835
 7549SOL    HW124544   9.315   9.784   0.054
 7549SOL    HW224545   9.391   9.750  14.800
 7550SOL     OW24546   6.659   9.732  12.060
 7550SOL    HW124547   6.647   9.803  11.997
 7550SOL    HW224548   6.713   9.668  12.014
 7551SOL     OW24549  10.344  14.355  13.689
 7551SOL    HW124550  10.345  14.311  13.773
 7551SOL    HW224551  10.426  14.330  13.647
 7552SOL     OW24552  11.478  11.441  12.321
 7552SOL    HW124553  11.523  11.500  12.381
 7552SOL    HW224554  11.509  11.354  12.345
 7553SOL     OW24555  13.922  13.352  10.094
 7553SOL    HW124556  13.962  13.297  10.162
 7553SOL    HW224557  13.988  13.355  10.025
 7554SOL     OW24558   3.146   0.453   8.527
 7554SOL    HW124559   3.060   0.410   8.532
 7554SOL    HW224560   3.207   0.382   8.509
 7555SOL     OW24561   1.991   4.839   4.205
 7555SOL    HW124562   1.968   4.748   4.224
 7555SOL    HW224563   1.908   4.883   4.190
 7556SOL     OW24564   3.350   2.532   6.180
 7556SOL    HW124565   3.307   2.494   6.103
 7556SOL    HW224566   3.410   2.464   6.210
 7557SOL     OW24567  11.027   4.803  12.232
 7557SOL    HW124568  11.056   4.711  12.228
 7557SOL    HW224569  10.935   4.798  12.256
 7558SOL     OW24570  13.135  13.181   3.012
 7558SOL    HW124571  13.201  13.169   2.944
 7558SOL    HW224572  13.186  13.199   3.092
 7559SOL     OW24573  13.380  13.947   8.206
 7559SOL    HW124574  13.331  14.023   8.177
 7559SOL    HW224575  13.472  13.972   8.196
 7560SOL     OW24576   9.071   1.700   4.764
 7560SOL    HW124577   9.114   1.784   4.747
 7560SOL    HW224578   9.125   1.659   4.831
 7561SOL     OW24579  13.187   7.298  14.381
 7561SOL    HW124580  13.143   7.345  14.310
 7561SOL    HW224581  13.177   7.356  14.457
 7562SOL     OW24582   2.972   4.342   5.402
 7562SOL    HW124583   2.884   4.308   5.388
 7562SOL    HW224584   3.007   4.288   5.473
 7563SOL     OW24585   7.250  10.934   9.540
 7563SOL    HW124586   7.245  10.915   9.633
 7563SOL    HW224587   7.230  10.851   9.497
 7564SOL     OW24588   8.712  13.242   9.542
 7564SOL    HW124589   8.740  13.264   9.631
 7564SOL    HW224590   8.675  13.154   9.550
 7565SOL     OW24591   1.006   0.163   2.843
 7565SOL    HW124592   0.956   0.221   2.899
 7565SOL    HW224593   1.087   0.146   2.891
 7566SOL     OW24594   7.932   0.314   8.269
 7566SOL    HW124595   7.921   0.409   8.278
 7566SOL    HW224596   8.004   0.304   8.207
 7567SOL     OW24597  10.976   1.676   6.277
 7567SOL    HW124598  11.042   1.741   6.300
 7567SOL    HW224599  10.985   1.607   6.343
 7568SOL     OW24600   1.895  14.869   4.051
 7568SOL    HW124601   1.963   0.063   4.066
 7568SOL    HW224602   1.816   0.048   4.034
 7569SOL     OW24603   9.233  13.854   4.371
 7569SOL    HW124604   9.199  13.892   4.452
 7569SOL    HW224605   9.313  13.807   4.398
 7570SOL     OW24606   6.209  10.548   9.660
 7570SOL    HW124607   6.215  10.572   9.567
 7570SOL    HW224608   6.295  10.511   9.681
 7571SOL     OW24609   0.577   6.995  13.079
 7571SOL    HW124610   0.591   7.086  13.051
 7571SOL    HW224611   0.570   6.946  12.997
 7572SOL     OW24612   4.477   9.117   4.170
 7572SOL    HW124613   4.451   9.043   4.225
 7572SOL    HW224614   4.396   9.167   4.159
 7573SOL     OW24615   9.437   2.393   5.460
 7573SOL    HW124616   9.505   2.325   5.464
 7573SOL    HW224617   9.396   2.391   5.546
 7574SOL     OW24618   9.821  14.308   1.690
 7574SOL    HW124619   9.800  14.294   1.782
 7574SOL    HW224620   9.789  14.229   1.646
 7575SOL     OW24621   2.031  14.236   2.138
 7575SOL    HW124622   1.991  14.222   2.052
 7575SOL    HW224623   1.964  14.207   2.200
 7576SOL     OW24624   8.268   3.367   9.650
 7576SOL    HW124625   8.349   3.378   9.600
 7576SOL    HW224626   8.215   3.307   9.598
 7577SOL     OW24627   6.154  12.209  14.185
 7577SOL    HW124628   6.196  12.171  14.108
 7577SOL    HW224629   6.126  12.133  14.237
 7578SOL     OW24630   4.763   6.003  10.653
 7578SOL    HW124631   4.821   6.020  10.728
 7578SOL    HW224632   4.683   5.970  10.692
 7579SOL     OW24633   6.795  10.906  10.103
 7579SOL    HW124634   6.749  10.968  10.046
 7579SOL    HW224635   6.784  10.821  10.060
 7580SOL     OW24636   7.294   0.116   1.706
 7580SOL    HW124637   7.223   0.053   1.691
 7580SOL    HW224638   7.334   0.128   1.621
 7581SOL     OW24639   5.666   9.766   0.484
 7581SOL    HW124640   5.742   9.722   0.445
 7581SOL    HW224641   5.703   9.832   0.541
 7582SOL     OW24642  10.656   6.911   0.772
 7582SOL    HW124643  10.746   6.887   0.751
 7582SOL    HW224644  10.648   7.003   0.746
 7583SOL     OW24645  13.838   1.707   2.837
 7583SOL    HW124646  13.777   1.691   2.909
 7583SOL    HW224647  13.808   1.651   2.766
 7584SOL     OW24648   7.631   1.090   4.565
 7584SOL    HW124649   7.637   1.162   4.502
 7584SOL    HW224650   7.684   1.021   4.527
 7585SOL     OW24651   3.898   1.173   1.880
 7585SOL    HW124652   3.806   1.181   1.907
 7585SOL    HW224653   3.943   1.142   1.958
 7586SOL     OW24654   5.476   8.823  13.507
 7586SOL    HW124655   5.463   8.808  13.413
 7586SOL    HW224656   5.553   8.880  13.511
 7587SOL     OW24657   5.446   6.616   7.652
 7587SOL    HW124658   5.523   6.663   7.620
 7587SOL    HW224659   5.381   6.626   7.583
 7588SOL     OW24660  14.484   5.689   9.911
 7588SOL    HW124661  14.441   5.752   9.969
 7588SOL    HW224662  14.501   5.613   9.966
 7589SOL     OW24663  10.653  13.430   3.115
 7589SOL    HW124664  10.719  13.461   3.053
 7589SOL    HW224665  10.649  13.335   3.099
 7590SOL     OW24666   9.171  14.274   5.806
 7590SOL    HW124667   9.180  14.305   5.896
 7590SOL    HW224668   9.241  14.209   5.796
 7591SOL     OW24669   4.639  14.094  11.719
 7591SOL    HW124670   4.593  14.173  11.748
 7591SOL    HW224671   4.661  14.112  11.627
 7592SOL     OW24672   6.683   7.434   5.088
 7592SOL    HW124673   6.672   7.527   5.107
 7592SOL    HW224674   6.776   7.425   5.066
 7593SOL     OW24675   7.160  10.224  13.197
 7593SOL    HW124676   7.212  10.210  13.277
 7593SOL    HW224677   7.211  10.286  13.146
 7594SOL     OW24678   3.252   5.461  14.421
 7594SOL    HW124679   3.276   5.497  14.336
 7594SOL    HW224680   3.203   5.532  14.463
 7595SOL     OW24681   0.631  12.439   7.341
 7595SOL    HW124682   0.601  12.521   7.381
 7595SOL    HW224683   0.700  12.409   7.400
 7596SOL     OW24684   1.886  14.653  10.715
 7596SOL    HW124685   1.838  14.733  10.693
 7596SOL    HW224686   1.977  14.681  10.721
 7597SOL     OW24687   9.573  13.301   4.385
 7597SOL    HW124688   9.635  13.297   4.458
 7597SOL    HW224689   9.529  13.216   4.386
 7598SOL     OW24690   0.053   7.226  10.713
 7598SOL    HW124691  14.830   7.240  10.702
 7598SOL    HW224692   0.068   7.235  10.807
 7599SOL     OW24693   0.327   8.291   5.184
 7599SOL    HW124694   0.256   8.339   5.141
 7599SOL    HW224695   0.332   8.330   5.272
 7600SOL     OW24696   3.814   3.625   0.992
 7600SOL    HW124697   3.758   3.694   1.028
 7600SOL    HW224698   3.831   3.566   1.066
 7601SOL     OW24699  11.343  13.794  11.792
 7601SOL    HW124700  11.260  13.843  11.788
 7601SOL    HW224701  11.336  13.731  11.720
 7602SOL     OW24702   5.068   6.120  14.485
 7602SOL    HW124703   4.978   6.089  14.490
 7602SOL    HW224704   5.084   6.162  14.570
 7603SOL     OW24705   1.297   7.343   1.978
 7603SOL    HW124706   1.260   7.272   1.925
 7603SOL    HW224707   1.229   7.360   2.044
 7604SOL     OW24708   5.808   5.580  11.878
 7604SOL    HW124709   5.865   5.613  11.809
 7604SOL    HW224710   5.751   5.654  11.899
 7605SOL     OW24711  12.757   9.627   7.291
 7605SOL    HW124712  12.835   9.576   7.314
 7605SOL    HW224713  12.742   9.682   7.368
 7606SOL     OW24714   5.386   0.105  10.759
 7606SOL    HW124715   5.452   0.175  10.756
 7606SOL    HW224716   5.333   0.118  10.681
 7607SOL     OW24717  13.079  12.912   7.105
 7607SOL    HW124718  13.162  12.864   7.110
 7607SOL    HW224719  13.076  12.945   7.015
 7608SOL     OW24720  12.056  11.866   9.985
 7608SOL    HW124721  11.960  11.872   9.977
 7608SOL    HW224722  12.082  11.810   9.911
 7609SOL     OW24723   4.456   1.029   5.449
 7609SOL    HW124724   4.456   1.109   5.500
 7609SOL    HW224725   4.398   0.969   5.497
 7610SOL     OW24726   7.767   1.093  13.798
 7610SOL    HW124727   7.713   1.032  13.747
 7610SOL    HW224728   7.837   1.037  13.834
 7611SOL     OW24729   9.777   6.790   8.838
 7611SOL    HW124730   9.810   6.707   8.803
 7611SOL    HW224731   9.730   6.766   8.918
 7612SOL     OW24732  14.845   6.648  10.704
 7612SOL    HW124733  14.824   6.574  10.762
 7612SOL    HW224734   0.025   6.609  10.634
 7613SOL     OW24735   8.044  13.016   8.635
 7613SOL    HW124736   8.067  12.925   8.653
 7613SOL    HW224737   8.124  13.054   8.598
 7614SOL     OW24738  13.853   8.866   0.930
 7614SOL    HW124739  13.823   8.778   0.904
 7614SOL    HW224740  13.848   8.917   0.849
 7615SOL     OW24741   1.578   8.186   4.273
 7615SOL    HW124742   1.571   8.184   4.177
 7615SOL    HW224743   1.529   8.264   4.298
 7616SOL     OW24744  13.700   9.886   0.635
 7616SOL    HW124745  13.781   9.935   0.654
 7616SOL    HW224746  13.692   9.825   0.708
 7617SOL     OW24747   8.992  12.859   4.355
 7617SOL    HW124748   8.951  12.866   4.269
 7617SOL    HW224749   8.942  12.920   4.410
 7618SOL     OW24750   3.128  11.016  12.054
 7618SOL    HW124751   3.036  11.017  12.028
 7618SOL    HW224752   3.144  10.925  12.081
 7619SOL     OW24753  13.138   0.895  13.756
 7619SOL    HW124754  13.217   0.862  13.712
 7619SOL    HW224755  13.088   0.937  13.686
 7620SOL     OW24756   5.509   8.721   2.314
 7620SOL    HW124757   5.450   8.792   2.289
 7620SOL    HW224758   5.573   8.717   2.243
 7621SOL     OW24759  12.543   6.338   6.614
 7621SOL    HW124760  12.575   6.255   6.578
 7621SOL    HW224761  12.557   6.330   6.708
 7622SOL     OW24762   1.329   1.459   5.131
 7622SOL    HW124763   1.284   1.516   5.068
 7622SOL    HW224764   1.343   1.377   5.083
 7623SOL     OW24765  10.795   1.773  11.257
 7623SOL    HW124766  10.868   1.730  11.300
 7623SOL    HW224767  10.835   1.847  11.211
 7624SOL     OW24768  10.858   7.345   7.744
 7624SOL    HW124769  10.813   7.429   7.741
 7624SOL    HW224770  10.802   7.286   7.693
 7625SOL     OW24771   6.366  14.591   4.398
 7625SOL    HW124772   6.335  14.598   4.307
 7625SOL    HW224773   6.397  14.500   4.405
 7626SOL     OW24774   6.498   1.954  14.082
 7626SOL    HW124775   6.550   2.027  14.049
 7626SOL    HW224776   6.530   1.940  14.171
 7627SOL     OW24777   0.162   2.538   6.454
 7627SOL    HW124778   0.194   2.524   6.365
 7627SOL    HW224779   0.120   2.456   6.478
 7628SOL     OW24780  11.811   7.398   9.941
 7628SOL    HW124781  11.735   7.342   9.960
 7628SOL    HW224782  11.843   7.366   9.857
 7629SOL     OW24783   8.816   3.735   0.513
 7629SOL    HW124784   8.765   3.658   0.488
 7629SOL    HW224785   8.784   3.805   0.456
 7630SOL     OW24786   4.439   4.317   3.558
 7630SOL    HW124787   4.393   4.400   3.545
 7630SOL    HW224788   4.515   4.340   3.612
 7631SOL     OW24789  13.552  14.148   4.768
 7631SOL    HW124790  13.629  14.117   4.720
 7631SOL    HW224791  13.582  14.158   4.858
 7632SOL     OW24792   4.319   1.189   3.483
 7632SOL    HW124793   4.347   1.234   3.403
 7632SOL    HW224794   4.388   1.126   3.500
 7633SOL     OW24795  12.528   9.200   9.388
 7633SOL    HW124796  12.608   9.153   9.364
 7633SOL    HW224797  12.508   9.254   9.311
 7634SOL     OW24798  12.704   3.215   7.181
 7634SOL    HW124799  12.652   3.193   7.258
 7634SOL    HW224800  12.664   3.166   7.109
 7635SOL     OW24801  12.444   8.126   5.832
 7635SOL    HW124802  12.397   8.069   5.893
 7635SOL    HW224803  12.378   8.189   5.803
 7636SOL     OW24804  12.704   8.904  12.590
 7636SOL    HW124805  12.701   8.825  12.645
 7636SOL    HW224806  12.761   8.964  12.637
 7637SOL     OW24807   6.401   9.162   9.638
 7637SOL    HW124808   6.442   9.108   9.706
 7637SOL    HW224809   6.446   9.246   9.645
 7638SOL     OW24810   5.347   2.443  13.076
 7638SOL    HW124811   5.418   2.469  13.135
 7638SOL    HW224812   5.292   2.520  13.069
 7639SOL     OW24813  12.419   7.003   3.859
 7639SOL    HW124814  12.485   7.066   3.832
 7639SOL    HW224815  12.413   6.942   3.786
 7640SOL     OW24816   6.298   1.219  13.976
 7640SOL    HW124817   6.377   1.266  14.004
 7640SOL    HW224818   6.241   1.221  14.053
 7641SOL     OW24819   9.454   0.069   2.947
 7641SOL    HW124820   9.375   0.115   2.977
 7641SOL    HW224821   9.512   0.138   2.915
 7642SOL     OW24822  11.260   6.729   7.190
 7642SOL    HW124823  11.303   6.802   7.234
 7642SOL    HW224824  11.223   6.676   7.261
 7643SOL     OW24825  11.499   6.196   6.518
 7643SOL    HW124826  11.489   6.101   6.522
 7643SOL    HW224827  11.423   6.231   6.564
 7644SOL     OW24828  12.208   0.094   8.836
 7644SOL    HW124829  12.135   0.099   8.774
 7644SOL    HW224830  12.284   0.124   8.787
 7645SOL     OW24831   4.006   4.091  12.053
 7645SOL    HW124832   3.986   4.018  11.994
 7645SOL    HW224833   4.100   4.085  12.067
 7646SOL     OW24834   3.616   9.117   9.188
 7646SOL    HW124835   3.586   9.178   9.121
 7646SOL    HW224836   3.711   9.116   9.179
 7647SOL     OW24837  13.566  14.428   2.220
 7647SOL    HW124838  13.611  14.476   2.150
 7647SOL    HW224839  13.485  14.476   2.234
 7648SOL     OW24840  12.626   1.469   4.957
 7648SOL    HW124841  12.628   1.374   4.944
 7648SOL    HW224842  12.715   1.492   4.983
 7649SOL     OW24843   6.856   8.278  13.223
 7649SOL    HW124844   6.856   8.373  13.240
 7649SOL    HW224845   6.811   8.240  13.299
 7650SOL     OW24846   3.589   4.021   6.898
 7650SOL    HW124847   3.628   4.071   6.970
 7650SOL    HW224848   3.660   4.008   6.836
 7651SOL     OW24849   8.598  10.051   2.425
 7651SOL    HW124850   8.596  10.147   2.430
 7651SOL    HW224851   8.627  10.023   2.512
 7652SOL     OW24852  13.725  10.813   9.698
 7652SOL    HW124853  13.632  10.806   9.674
 7652SOL    HW224854  13.744  10.907   9.691
 7653SOL     OW24855  10.133  12.287   9.779
 7653SOL    HW124856  10.063  12.260   9.720
 7653SOL    HW224857  10.211  12.292   9.724
 7654SOL     OW24858  12.740   4.246   7.004
 7654SOL    HW124859  12.648   4.273   7.008
 7654SOL    HW224860  12.741   4.156   7.037
 7655SOL     OW24861  11.774  11.456   4.268
 7655SOL    HW124862  11.690  11.440   4.312
 7655SOL    HW224863  11.815  11.370   4.261
 7656SOL     OW24864   1.312   3.488   7.757
 7656SOL    HW124865   1.293   3.579   7.782
 7656SOL    HW224866   1.300   3.486   7.662
 7657SOL     OW24867  13.366   2.534   4.969
 7657SOL    HW124868  13.324   2.494   4.893
 7657SOL    HW224869  13.382   2.461   5.029
 7658SOL     OW24870   9.069   4.221  13.940
 7658SOL    HW124871   9.113   4.147  13.898
 7658SOL    HW224872   9.132   4.254  14.003
 7659SOL     OW24873  12.142  13.930   5.587
 7659SOL    HW124874  12.076  13.992   5.616
 7659SOL    HW224875  12.206  13.926   5.659
 7660SOL     OW24876   7.404  12.398   0.764
 7660SOL    HW124877   7.347  12.334   0.806
 7660SOL    HW224878   7.374  12.400   0.673
 7661SOL     OW24879  11.674   3.540   7.154
 7661SOL    HW124880  11.629   3.482   7.094
 7661SOL    HW224881  11.604   3.587   7.200
 7662SOL     OW24882  11.417   9.895   1.428
 7662SOL    HW124883  11.402   9.958   1.498
 7662SOL    HW224884  11.393   9.811   1.467
 7663SOL     OW24885   4.864   9.118   7.265
 7663SOL    HW124886   4.903   9.205   7.265
 7663SOL    HW224887   4.938   9.059   7.280
 7664SOL     OW24888   2.853   5.121   1.263
 7664SOL    HW124889   2.919   5.060   1.232
 7664SOL    HW224890   2.865   5.199   1.208
 7665SOL     OW24891   1.305   2.362   5.411
 7665SOL    HW124892   1.332   2.361   5.503
 7665SOL    HW224893   1.260   2.279   5.398
 7666SOL     OW24894  11.288   7.810  14.720
 7666SOL    HW124895  11.367   7.849  14.758
 7666SOL    HW224896  11.287   7.841  14.630
 7667SOL     OW24897   2.767   8.417   7.009
 7667SOL    HW124898   2.759   8.439   7.102
 7667SOL    HW224899   2.680   8.384   6.984
 7668SOL     OW24900   3.812  10.462   8.410
 7668SOL    HW124901   3.809  10.499   8.498
 7668SOL    HW224902   3.734  10.495   8.367
 7669SOL     OW24903   5.339  14.336   5.318
 7669SOL    HW124904   5.295  14.323   5.402
 7669SOL    HW224905   5.370  14.427   5.321
 7670SOL     OW24906   9.165   6.688   2.559
 7670SOL    HW124907   9.195   6.599   2.576
 7670SOL    HW224908   9.239   6.731   2.516
 7671SOL     OW24909   5.641  10.870  13.217
 7671SOL    HW124910   5.629  10.780  13.247
 7671SOL    HW224911   5.703  10.863  13.144
 7672SOL     OW24912   6.522  13.916  14.103
 7672SOL    HW124913   6.540  13.869  14.184
 7672SOL    HW224914   6.427  13.912  14.093
 7673SOL     OW24915  13.077   4.127  13.464
 7673SOL    HW124916  13.093   4.037  13.436
 7673SOL    HW224917  13.068   4.122  13.559
 7674SOL     OW24918   3.194   1.625   9.737
 7674SOL    HW124919   3.163   1.538   9.763
 7674SOL    HW224920   3.129   1.656   9.674
 7675SOL     OW24921   4.868  10.326   0.764
 7675SOL    HW124922   4.887  10.233   0.757
 7675SOL    HW224923   4.913  10.353   0.844
 7676SOL     OW24924  14.384   0.437  13.847
 7676SOL    HW124925  14.410   0.480  13.766
 7676SOL    HW224926  14.292   0.459  13.858
 7677SOL     OW24927   8.436   4.961  10.928
 7677SOL    HW124928   8.490   4.883  10.910
 7677SOL    HW224929   8.393   4.941  11.011
 7678SOL     OW24930   7.815  10.845  13.515
 7678SOL    HW124931   7.722  10.862  13.499
 7678SOL    HW224932   7.848  10.929  13.549
 7679SOL     OW24933   4.459   8.868   4.838
 7679SOL    HW124934   4.413   8.786   4.854
 7679SOL    HW224935   4.504   8.887   4.920
 7680SOL     OW24936  10.066   4.649   5.265
 7680SOL    HW124937  10.035   4.713   5.201
 7680SOL    HW224938  10.157   4.673   5.281
 7681SOL     OW24939   4.134   1.512   5.514
 7681SOL    HW124940   4.128   1.418   5.531
 7681SOL    HW224941   4.225   1.526   5.488
 7682SOL     OW24942  12.164  11.974   0.510
 7682SOL    HW124943  12.201  12.049   0.557
 7682SOL    HW224944  12.130  12.011   0.428
 7683SOL     OW24945  13.373  13.757   0.412
 7683SOL    HW124946  13.378  13.844   0.452
 7683SOL    HW224947  13.400  13.697   0.481
 7684SOL     OW24948  13.580  10.024  14.297
 7684SOL    HW124949  13.651  10.052  14.239
 7684SOL    HW224950  13.590  10.078  14.375
 7685SOL     OW24951  12.677  12.873   1.731
 7685SOL    HW124952  12.683  12.855   1.638
 7685SOL    HW224953  12.583  12.889   1.747
 7686SOL     OW24954   9.911  10.321   6.715
 7686SOL    HW124955   9.926  10.259   6.643
 7686SOL    HW224956   9.998  10.339   6.750
 7687SOL     OW24957  10.987   7.208  13.744
 7687SOL    HW124958  11.040   7.135  13.775
 7687SOL    HW224959  10.967   7.186  13.653
 7688SOL     OW24960  11.052  13.289   8.503
 7688SOL    HW124961  11.015  13.274   8.590
 7688SOL    HW224962  11.058  13.201   8.464
 7689SOL     OW24963   4.271   6.167   7.967
 7689SOL    HW124964   4.204   6.131   8.025
 7689SOL    HW224965   4.353   6.152   8.014
 7690SOL     OW24966  11.571  11.223   8.402
 7690SOL    HW124967  11.511  11.153   8.425
 7690SOL    HW224968  11.572  11.224   8.306
 7691SOL     OW24969  14.653  12.044   8.455
 7691SOL    HW124970  14.744  12.026   8.430
 7691SOL    HW224971  14.625  11.963   8.499
 7692SOL     OW24972  13.519  10.484   8.789
 7692SOL    HW124973  13.543  10.460   8.878
 7692SOL    HW224974  13.424  10.478   8.787
 7693SOL     OW24975  10.105   8.893  13.357
 7693SOL    HW124976  10.190   8.857  13.331
 7693SOL    HW224977  10.086   8.850  13.441
 7694SOL     OW24978   9.369   2.413   3.160
 7694SOL    HW124979   9.391   2.408   3.067
 7694SOL    HW224980   9.445   2.457   3.200
 7695SOL     OW24981   0.125   9.952   8.276
 7695SOL    HW124982   0.220   9.945   8.282
 7695SOL    HW224983   0.093   9.913   8.358
 7696SOL     OW24984   4.935  11.426   8.901
 7696SOL    HW124985   4.932  11.367   8.826
 7696SOL    HW224986   4.871  11.390   8.962
 7697SOL     OW24987   3.757   1.622   2.609
 7697SOL    HW124988   3.714   1.676   2.544
 7697SOL    HW224989   3.817   1.567   2.559
 7698SOL     OW24990   1.287  11.747  14.754
 7698SOL    HW124991   1.261  11.748  14.846
 7698SOL    HW224992   1.376  11.783  14.753
 7699SOL     OW24993   2.133  11.496   6.738
 7699SOL    HW124994   2.193  11.442   6.686
 7699SOL    HW224995   2.095  11.557   6.675
 7700SOL     OW24996  14.731  10.838   3.238
 7700SOL    HW124997  14.636  10.838   3.224
 7700SOL    HW224998  14.757  10.929   3.222
 7701SOL     OW24999  12.111   8.306  10.033
 7701SOL    HW125000  12.027   8.260  10.034
 7701SOL    HW225001  12.155   8.276  10.113
 7702SOL     OW25002   9.327  12.826   3.729
 7702SOL    HW125003   9.296  12.892   3.791
 7702SOL    HW225004   9.256  12.761   3.725
 7703SOL     OW25005   7.035   5.308   1.767
 7703SOL    HW125006   7.006   5.219   1.745
 7703SOL    HW225007   6.996   5.326   1.853
 7704SOL     OW25008   0.589   5.325   6.222
 7704SOL    HW125009   0.497   5.348   6.208
 7704SOL    HW225010   0.623   5.306   6.134
 7705SOL     OW25011  14.459   2.726   0.823
 7705SOL    HW125012  14.431   2.789   0.757
 7705SOL    HW225013  14.384   2.668   0.833
 7706SOL     OW25014  14.273   3.709  11.054
 7706SOL    HW125015  14.320   3.728  10.974
 7706SOL    HW225016  14.257   3.614  11.050
 7707SOL     OW25017  10.909   5.867   8.509
 7707SOL    HW125018  10.861   5.911   8.439
 7707SOL    HW225019  10.958   5.938   8.552
 7708SOL     OW25020   0.771   4.532   2.966
 7708SOL    HW125021   0.793   4.448   2.925
 7708SOL    HW225022   0.807   4.526   3.054
 7709SOL     OW25023  10.639   4.635  12.460
 7709SOL    HW125024  10.650   4.577  12.535
 7709SOL    HW225025  10.592   4.711  12.494
 7710SOL     OW25026  11.385   9.223   7.607
 7710SOL    HW125027  11.326   9.150   7.587
 7710SOL    HW225028  11.459   9.212   7.547
 7711SOL     OW25029   2.949   2.574  11.876
 7711SOL    HW125030   2.860   2.542  11.858
 7711SOL    HW225031   3.004   2.496  11.875
 7712SOL     OW25032  11.920   0.242   8.091
 7712SOL    HW125033  11.945   0.306   8.158
 7712SOL    HW225034  11.850   0.285   8.042
 7713SOL     OW25035   2.096   0.959   4.650
 7713SOL    HW125036   2.075   0.881   4.598
 7713SOL    HW225037   2.191   0.953   4.664
 7714SOL     OW25038  12.516   9.187   1.742
 7714SOL    HW125039  12.535   9.115   1.682
 7714SOL    HW225040  12.596   9.196   1.795
 7715SOL     OW25041  10.242   6.213   3.362
 7715SOL    HW125042  10.185   6.197   3.437
 7715SOL    HW225043  10.250   6.309   3.359
 7716SOL     OW25044   7.385  13.162  12.369
 7716SOL    HW125045   7.384  13.125  12.281
 7716SOL    HW225046   7.456  13.226  12.367
 7717SOL     OW25047   7.602   4.002   0.353
 7717SOL    HW125048   7.567   4.090   0.365
 7717SOL    HW225049   7.649   4.006   0.270
 7718SOL     OW25050   3.157   0.198   7.128
 7718SOL    HW125051   3.210   0.132   7.172
 7718SOL    HW225052   3.174   0.185   7.035
 7719SOL     OW25053   2.157   9.600   0.768
 7719SOL    HW125054   2.104   9.619   0.845
 7719SOL    HW225055   2.123   9.516   0.735
 7720SOL     OW25056  13.834  10.002   6.186
 7720SOL    HW125057  13.818  10.081   6.238
 7720SOL    HW225058  13.923  10.013   6.152
 7721SOL     OW25059   3.654   6.882  12.918
 7721SOL    HW125060   3.560   6.883  12.934
 7721SOL    HW225061   3.686   6.964  12.955
 7722SOL     OW25062  14.812   3.966   1.771
 7722SOL    HW125063   0.001   4.039   1.757
 7722SOL    HW225064  14.806   3.923   1.685
 7723SOL     OW25065   8.173   9.337   6.647
 7723SOL    HW125066   8.172   9.243   6.630
 7723SOL    HW225067   8.083   9.366   6.630
 7724SOL     OW25068   9.610   3.114   7.628
 7724SOL    HW125069   9.593   3.026   7.596
 7724SOL    HW225070   9.704   3.117   7.646
 7725SOL     OW25071   5.558   1.998   9.266
 7725SOL    HW125072   5.634   2.034   9.312
 7725SOL    HW225073   5.578   1.905   9.256
 7726SOL     OW25074   2.597   3.448   3.445
 7726SOL    HW125075   2.689   3.438   3.470
 7726SOL    HW225076   2.548   3.432   3.527
 7727SOL     OW25077  12.162  11.322   1.864
 7727SOL    HW125078  12.232  11.327   1.929
 7727SOL    HW225079  12.093  11.379   1.898
 7728SOL     OW25080   8.802  11.627   4.167
 7728SOL    HW125081   8.733  11.613   4.102
 7728SOL    HW225082   8.768  11.695   4.225
 7729SOL     OW25083   3.628   1.800  12.019
 7729SOL    HW125084   3.630   1.704  12.013
 7729SOL    HW225085   3.545   1.824  11.978
 7730SOL     OW25086  10.817   8.593   4.915
 7730SOL    HW125087  10.884   8.615   4.980
 7730SOL    HW225088  10.739   8.573   4.966
 7731SOL     OW25089   1.414   2.742  14.080
 7731SOL    HW125090   1.385   2.823  14.122
 7731SOL    HW225091   1.442   2.686  14.153
 7732SOL     OW25092  10.462   2.492  14.200
 7732SOL    HW125093  10.540   2.477  14.146
 7732SOL    HW225094  10.400   2.425  14.171
 7733SOL     OW25095  12.608  10.034   8.340
 7733SOL    HW125096  12.575  10.121   8.319
 7733SOL    HW225097  12.626   9.995   8.255
 7734SOL     OW25098   3.152  14.627   3.310
 7734SOL    HW125099   3.212  14.614   3.235
 7734SOL    HW225100   3.210  14.637   3.385
 7735SOL     OW25101   5.187   6.516   5.082
 7735SOL    HW125102   5.210   6.444   5.140
 7735SOL    HW225103   5.271   6.550   5.052
 7736SOL     OW25104  10.334   4.954  13.694
 7736SOL    HW125105  10.378   5.038  13.680
 7736SOL    HW225106  10.345   4.907  13.612
 7737SOL     OW25107  11.233   9.313   4.965
 7737SOL    HW125108  11.150   9.295   4.920
 7737SOL    HW225109  11.298   9.263   4.915
 7738SOL     OW25110  10.430   7.507   8.352
 7738SOL    HW125111  10.465   7.490   8.264
 7738SOL    HW225112  10.335   7.506   8.341
 7739SOL     OW25113   0.050   1.405  14.204
 7739SOL    HW125114   0.062   1.328  14.147
 7739SOL    HW225115   0.062   1.371  14.292
 7740SOL     OW25116   7.844  11.319   4.862
 7740SOL    HW125117   7.838  11.317   4.957
 7740SOL    HW225118   7.934  11.292   4.843
 7741SOL     OW25119  11.833   1.465   2.588
 7741SOL    HW125120  11.923   1.453   2.557
 7741SOL    HW225121  11.780   1.464   2.509
 7742SOL     OW25122   4.923  10.489   8.381
 7742SOL    HW125123   4.835  10.456   8.365
 7742SOL    HW225124   4.943  10.462   8.471
 7743SOL     OW25125  10.478   8.688  12.362
 7743SOL    HW125126  10.519   8.731  12.437
 7743SOL    HW225127  10.393   8.732  12.354
 7744SOL     OW25128   8.072   5.964   1.941
 7744SOL    HW125129   8.164   5.989   1.935
 7744SOL    HW225130   8.024   6.045   1.924
 7745SOL     OW25131   0.396   4.899   4.525
 7745SOL    HW125132   0.343   4.941   4.593
 7745SOL    HW225133   0.336   4.837   4.483
 7746SOL     OW25134   7.425   8.231  13.587
 7746SOL    HW125135   7.363   8.203  13.655
 7746SOL    HW225136   7.392   8.191  13.507
 7747SOL     OW25137   8.072   7.222   4.408
 7747SOL    HW125138   7.995   7.242   4.356
 7747SOL    HW225139   8.101   7.136   4.377
 7748SOL     OW25140   9.242  13.638   0.346
 7748SOL    HW125141   9.304  13.570   0.370
 7748SOL    HW225142   9.285  13.687   0.276
 7749SOL     OW25143   9.538   7.768   2.050
 7749SOL    HW125144   9.482   7.783   1.973
 7749SOL    HW225145   9.593   7.693   2.025
 7750SOL     OW25146  10.749   1.644  13.516
 7750SOL    HW125147  10.715   1.720  13.562
 7750SOL    HW225148  10.783   1.678  13.433
 7751SOL     OW25149  10.200   3.752   1.114
 7751SOL    HW125150  10.291   3.729   1.098
 7751SOL    HW225151  10.162   3.759   1.026
 7752SOL     OW25152   1.119  10.562   8.126
 7752SOL    HW125153   1.167  10.631   8.173
 7752SOL    HW225154   1.124  10.486   8.183
 7753SOL     OW25155   6.599   9.279   2.416
 7753SOL    HW125156   6.690   9.249   2.422
 7753SOL    HW225157   6.586   9.296   2.323
 7754SOL     OW25158  13.864  11.731  13.747
 7754SOL    HW125159  13.955  11.749  13.773
 7754SOL    HW225160  13.811  11.780  13.810
 7755SOL     OW25161  13.466  11.665  10.189
 7755SOL    HW125162  13.489  11.616  10.268
 7755SOL    HW225163  13.550  11.694  10.154
 7756SOL     OW25164  11.052   0.909  10.634
 7756SOL    HW125165  11.015   0.821  10.643
 7756SOL    HW225166  10.993   0.953  10.573
 7757SOL     OW25167   8.035  12.373   2.168
 7757SOL    HW125168   8.111  12.335   2.214
 7757SOL    HW225169   8.052  12.467   2.167
 7758SOL     OW25170   4.635  12.981  12.829
 7758SOL    HW125171   4.557  12.939  12.793
 7758SOL    HW225172   4.656  13.050  12.766
 7759SOL     OW25173  12.647   1.616   2.343
 7759SOL    HW125174  12.556   1.620   2.371
 7759SOL    HW225175  12.652   1.538   2.289
 7760SOL     OW25176  13.488   6.403   8.349
 7760SOL    HW125177  13.541   6.348   8.407
 7760SOL    HW225178  13.536   6.405   8.267
 7761SOL     OW25179   1.358   1.186   1.562
 7761SOL    HW125180   1.386   1.278   1.570
 7761SOL    HW225181   1.325   1.163   1.649
 7762SOL     OW25182  12.925   6.067   5.796
 7762SOL    HW125183  12.963   6.000   5.739
 7762SOL    HW225184  12.957   6.045   5.883
 7763SOL     OW25185   2.509   7.524   9.349
 7763SOL    HW125186   2.508   7.565   9.436
 7763SOL    HW225187   2.541   7.435   9.366
 7764SOL     OW25188  12.760   2.644  12.126
 7764SOL    HW125189  12.755   2.549  12.130
 7764SOL    HW225190  12.674   2.673  12.157
 7765SOL     OW25191   1.987  10.241  12.828
 7765SOL    HW125192   2.002  10.185  12.904
 7765SOL    HW225193   1.901  10.214  12.795
 7766SOL     OW25194  13.355   2.657   2.390
 7766SOL    HW125195  13.355   2.640   2.296
 7766SOL    HW225196  13.447   2.652   2.416
 7767SOL     OW25197  11.403  12.772   8.497
 7767SOL    HW125198  11.337  12.841   8.500
 7767SOL    HW225199  11.400  12.731   8.583
 7768SOL     OW25200   6.373   3.478  14.847
 7768SOL    HW125201   6.283   3.477  14.817
 7768SOL    HW225202   6.425   3.479  14.767
 7769SOL     OW25203   1.629   7.272  13.547
 7769SOL    HW125204   1.559   7.257  13.611
 7769SOL    HW225205   1.693   7.325  13.594
 7770SOL     OW25206  13.925   2.736  10.201
 7770SOL    HW125207  13.862   2.693  10.258
 7770SOL    HW225208  13.946   2.818  10.245
 7771SOL     OW25209   4.277   1.631   5.212
 7771SOL    HW125210   4.198   1.669   5.248
 7771SOL    HW225211   4.256   1.612   5.121
 7772SOL     OW25212   5.939   0.927  14.098
 7772SOL    HW125213   6.020   0.907  14.051
 7772SOL    HW225214   5.882   0.852  14.079
 7773SOL     OW25215   3.891   9.622   8.972
 7773SOL    HW125216   3.953   9.695   8.977
 7773SOL    HW225217   3.818   9.649   9.027
 7774SOL     OW25218   8.572  11.124   9.608
 7774SOL    HW125219   8.570  11.074   9.690
 7774SOL    HW225220   8.614  11.065   9.546
 7775SOL     OW25221   3.620   4.712  12.785
 7775SOL    HW125222   3.549   4.775  12.795
 7775SOL    HW225223   3.623   4.665  12.869
 7776SOL     OW25224  10.078   3.601  10.282
 7776SOL    HW125225   9.998   3.576  10.235
 7776SOL    HW225226  10.078   3.546  10.360
 7777SOL     OW25227   6.049   3.362   1.185
 7777SOL    HW125228   6.122   3.324   1.234
 7777SOL    HW225229   6.076   3.452   1.168
 7778SOL     OW25230  12.856   8.296   0.859
 7778SOL    HW125231  12.869   8.201   0.854
 7778SOL    HW225232  12.768   8.306   0.895
 7779SOL     OW25233  13.720   9.332   5.969
 7779SOL    HW125234  13.689   9.379   5.892
 7779SOL    HW225235  13.642   9.319   6.023
 7780SOL     OW25236   4.684   1.811  13.579
 7780SOL    HW125237   4.642   1.885  13.623
 7780SOL    HW225238   4.760   1.790  13.634
 7781SOL     OW25239   0.859   4.046  12.709
 7781SOL    HW125240   0.791   4.113  12.709
 7781SOL    HW225241   0.908   4.062  12.629
 7782SOL     OW25242   1.977   5.742   3.982
 7782SOL    HW125243   1.882   5.743   3.970
 7782SOL    HW225244   2.011   5.714   3.897
 7783SOL     OW25245   0.448  12.933   6.965
 7783SOL    HW125246   0.529  12.981   6.947
 7783SOL    HW225247   0.470  12.877   7.040
 7784SOL     OW25248  10.334   9.988   6.815
 7784SOL    HW125249  10.376  10.070   6.841
 7784SOL    HW225250  10.384   9.920   6.859
 7785SOL     OW25251  13.774   7.655   7.006
 7785SOL    HW125252  13.705   7.692   7.061
 7785SOL    HW225253  13.729   7.620   6.930
 7786SOL     OW25254   3.093   8.890   0.716
 7786SOL    HW125255   3.188   8.891   0.716
 7786SOL    HW225256   3.067   8.981   0.707
 7787SOL     OW25257   5.605   1.240  12.242
 7787SOL    HW125258   5.572   1.188  12.316
 7787SOL    HW225259   5.589   1.185  12.166
 7788SOL     OW25260   2.932   5.743   7.105
 7788SOL    HW125261   2.912   5.787   7.188
 7788SOL    HW225262   2.993   5.802   7.060
 7789SOL     OW25263   0.588   0.562  10.962
 7789SOL    HW125264   0.519   0.628  10.958
 7789SOL    HW225265   0.643   0.579  10.886
 7790SOL     OW25266   7.900   6.869   5.213
 7790SOL    HW125267   7.833   6.897   5.151
 7790SOL    HW225268   7.978   6.856   5.159
 7791SOL     OW25269   2.234  10.758  10.545
 7791SOL    HW125270   2.330  10.760  10.547
 7791SOL    HW225271   2.212  10.802  10.463
 7792SOL     OW25272   5.894   4.794   6.939
 7792SOL    HW125273   5.974   4.751   6.908
 7792SOL    HW225274   5.863   4.739   7.010
 7793SOL     OW25275  13.079   6.309   6.998
 7793SOL    HW125276  13.168   6.329   7.028
 7793SOL    HW225277  13.026   6.382   7.029
 7794SOL     OW25278  14.264  11.024  13.810
 7794SOL    HW125279  14.202  11.082  13.854
 7794SOL    HW225280  14.210  10.965  13.758
 7795SOL     OW25281  13.763  11.331   7.673
 7795SOL    HW125282  13.840  11.369   7.630
 7795SOL    HW225283  13.737  11.396   7.738
 7796SOL     OW25284  12.728  10.632  11.843
 7796SOL    HW125285  12.772  10.645  11.928
 7796SOL    HW225286  12.752  10.543  11.817
 7797SOL     OW25287   7.766   1.565  11.741
 7797SOL    HW125288   7.771   1.598  11.651
 7797SOL    HW225289   7.682   1.522  11.746
 7798SOL     OW25290  10.089  13.731   7.237
 7798SOL    HW125291  10.059  13.645   7.206
 7798SOL    HW225292  10.148  13.762   7.169
 7799SOL     OW25293   7.180  10.662   5.458
 7799SOL    HW125294   7.132  10.627   5.383
 7799SOL    HW225295   7.151  10.753   5.463
 7800SOL     OW25296   6.746   5.820   0.868
 7800SOL    HW125297   6.773   5.775   0.788
 7800SOL    HW225298   6.650   5.823   0.863
 7801SOL     OW25299   8.162   0.413   2.358
 7801SOL    HW125300   8.143   0.366   2.439
 7801SOL    HW225301   8.076   0.427   2.318
 7802SOL     OW25302   6.131   6.356  10.701
 7802SOL    HW125303   6.132   6.306  10.619
 7802SOL    HW225304   6.068   6.426  10.685
 7803SOL     OW25305   0.780   6.265  12.323
 7803SOL    HW125306   0.856   6.314  12.294
 7803SOL    HW225307   0.739   6.235  12.241
 7804SOL     OW25308   5.452   5.452  12.260
 7804SOL    HW125309   5.460   5.505  12.181
 7804SOL    HW225310   5.373   5.400  12.247
 7805SOL     OW25311  11.660   8.241  12.684
 7805SOL    HW125312  11.596   8.180  12.647
 7805SOL    HW225313  11.613   8.287  12.754
 7806SOL     OW25314  12.554   8.285  14.589
 7806SOL    HW125315  12.513   8.209  14.548
 7806SOL    HW225316  12.503   8.300  14.668
 7807SOL     OW25317   2.688   3.165   8.194
 7807SOL    HW125318   2.772   3.211   8.192
 7807SOL    HW225319   2.710   3.074   8.177
 7808SOL     OW25320   0.364   2.117   0.030
 7808SOL    HW125321   0.335   2.031   0.061
 7808SOL    HW225322   0.441   2.137   0.083
 7809SOL     OW25323   4.207  10.183   7.294
 7809SOL    HW125324   4.217  10.153   7.384
 7809SOL    HW225325   4.198  10.278   7.301
 7810SOL     OW25326  13.762  11.595   4.756
 7810SOL    HW125327  13.818  11.652   4.703
 7810SOL    HW225328  13.723  11.654   4.821
 7811SOL     OW25329   6.822  10.805   5.365
 7811SOL    HW125330   6.779  10.720   5.372
 7811SOL    HW225331   6.898  10.798   5.423
 7812SOL     OW25332  14.573   3.208   8.558
 7812SOL    HW125333  14.562   3.291   8.604
 7812SOL    HW225334  14.516   3.216   8.481
 7813SOL     OW25335   7.318   9.208   1.903
 7813SOL    HW125336   7.312   9.121   1.942
 7813SOL    HW225337   7.409   9.215   1.875
 7814SOL     OW25338  10.039   4.755  13.800
 7814SOL    HW125339  10.029   4.694  13.726
 7814SOL    HW225340   9.950   4.779  13.823
 7815SOL     OW25341   4.150  14.596   0.282
 7815SOL    HW125342   4.090  14.544   0.229
 7815SOL    HW225343   4.093  14.657   0.330
 7816SOL     OW25344   5.778   9.255   7.445
 7816SOL    HW125345   5.805   9.213   7.363
 7816SOL    HW225346   5.727   9.331   7.417
 7817SOL     OW25347   6.855  12.088   1.100
 7817SOL    HW125348   6.918  12.023   1.129
 7817SOL    HW225349   6.801  12.107   1.177
 7818SOL     OW25350   7.964   6.698   6.112
 7818SOL    HW125351   8.026   6.646   6.061
 7818SOL    HW225352   7.885   6.645   6.115
 7819SOL     OW25353   7.718   8.541   2.689
 7819SOL    HW125354   7.656   8.473   2.662
 7819SOL    HW225355   7.782   8.496   2.744
 7820SOL     OW25356   7.304   6.620   0.004
 7820SOL    HW125357   7.372   6.671   0.048
 7820SOL    HW225358   7.231   6.619   0.066
 7821SOL     OW25359   0.826   5.214   9.801
 7821SOL    HW125360   0.757   5.156   9.771
 7821SOL    HW225361   0.784   5.299   9.810
 7822SOL     OW25362   9.356  14.483   5.164
 7822SOL    HW125363   9.417  14.436   5.107
 7822SOL    HW225364   9.412  14.530   5.225
 7823SOL     OW25365   5.350   7.636  12.391
 7823SOL    HW125366   5.338   7.553  12.437
 7823SOL    HW225367   5.380   7.611  12.303
 7824SOL     OW25368   2.088   9.023   2.539
 7824SOL    HW125369   2.025   8.980   2.597
 7824SOL    HW225370   2.072   8.984   2.453
 7825SOL     OW25371   8.889  14.270   4.311
 7825SOL    HW125372   8.944  14.192   4.302
 7825SOL    HW225373   8.800  14.239   4.292
 7826SOL     OW25374   4.585   6.569   9.278
 7826SOL    HW125375   4.524   6.566   9.352
 7826SOL    HW225376   4.672   6.564   9.318
 7827SOL     OW25377  13.061   4.198   0.301
 7827SOL    HW125378  13.141   4.165   0.260
 7827SOL    HW225379  12.993   4.137   0.272
 7828SOL     OW25380  14.293  13.001   5.134
 7828SOL    HW125381  14.205  12.998   5.170
 7828SOL    HW225382  14.305  13.093   5.107
 7829SOL     OW25383   3.574  10.487  10.298
 7829SOL    HW125384   3.616  10.492  10.212
 7829SOL    HW225385   3.595  10.571  10.340
 7830SOL     OW25386  13.747   7.429   5.708
 7830SOL    HW125387  13.740   7.393   5.797
 7830SOL    HW225388  13.692   7.506   5.709
 7831SOL     OW25389   7.787   0.713   1.380
 7831SOL    HW125390   7.742   0.637   1.343
 7831SOL    HW225391   7.859   0.730   1.319
 7832SOL     OW25392   7.882  13.632   8.954
 7832SOL    HW125393   7.809  13.686   8.983
 7832SOL    HW225394   7.849  13.542   8.962
 7833SOL     OW25395  13.952   2.881   9.879
 7833SOL    HW125396  13.962   2.923   9.964
 7833SOL    HW225397  13.965   2.952   9.816
 7834SOL     OW25398   4.990   4.581   3.984
 7834SOL    HW125399   5.076   4.613   4.009
 7834SOL    HW225400   4.935   4.598   4.061
 7835SOL     OW25401  12.566   0.715  13.477
 7835SOL    HW125402  12.584   0.807  13.457
 7835SOL    HW225403  12.471   0.708  13.476
 7836SOL     OW25404   3.382   2.491  14.850
 7836SOL    HW125405   3.441   2.518  14.780
 7836SOL    HW225406   3.430   2.510   0.060
 7837SOL     OW25407   7.998  11.370   3.466
 7837SOL    HW125408   7.989  11.275   3.456
 7837SOL    HW225409   7.914  11.406   3.437
 7838SOL     OW25410  11.416   7.711   0.566
 7838SOL    HW125411  11.342   7.732   0.624
 7838SOL    HW225412  11.477   7.784   0.578
 7839SOL     OW25413   1.033   1.397   5.057
 7839SOL    HW125414   1.091   1.471   5.075
 7839SOL    HW225415   1.050   1.375   4.965
 7840SOL     OW25416   9.998  11.229  12.756
 7840SOL    HW125417  10.000  11.265  12.668
 7840SOL    HW225418   9.910  11.246  12.788
 7841SOL     OW25419   1.238  11.802   1.393
 7841SOL    HW125420   1.251  11.896   1.391
 7841SOL    HW225421   1.192  11.786   1.476
 7842SOL     OW25422  10.888   9.073  13.749
 7842SOL    HW125423  10.840   9.048  13.670
 7842SOL    HW225424  10.914   9.164  13.734
 7843SOL     OW25425   5.103   9.791   5.336
 7843SOL    HW125426   5.161   9.827   5.404
 7843SOL    HW225427   5.084   9.702   5.366
 7844SOL     OW25428   2.697   5.000  14.275
 7844SOL    HW125429   2.786   4.977  14.249
 7844SOL    HW225430   2.678   4.943  14.350
 7845SOL     OW25431  11.900   0.502   0.845
 7845SOL    HW125432  11.841   0.438   0.807
 7845SOL    HW225433  11.970   0.512   0.780
 7846SOL     OW25434  12.847   8.037   7.144
 7846SOL    HW125435  12.871   8.055   7.235
 7846SOL    HW225436  12.752   8.024   7.147
 7847SOL     OW25437  11.391   6.954  10.986
 7847SOL    HW125438  11.319   6.894  11.007
 7847SOL    HW225439  11.461   6.897  10.955
 7848SOL     OW25440   0.475   4.615   0.990
 7848SOL    HW125441   0.538   4.585   1.055
 7848SOL    HW225442   0.413   4.542   0.981
 7849SOL     OW25443  12.563   3.266   5.797
 7849SOL    HW125444  12.571   3.344   5.742
 7849SOL    HW225445  12.503   3.292   5.867
 7850SOL     OW25446   0.130   7.304  11.983
 7850SOL    HW125447   0.137   7.217  12.022
 7850SOL    HW225448   0.125   7.288  11.888
 7851SOL     OW25449  14.702   3.920  12.165
 7851SOL    HW125450  14.719   3.839  12.213
 7851SOL    HW225451  14.712   3.896  12.073
 7852SOL     OW25452   0.076  11.974   1.606
 7852SOL    HW125453   0.039  11.929   1.530
 7852SOL    HW225454  14.871  12.000   1.658
 7853SOL     OW25455   2.651   8.424   6.699
 7853SOL    HW125456   2.626   8.349   6.752
 7853SOL    HW225457   2.603   8.498   6.736
 7854SOL     OW25458   5.588   8.011   6.849
 7854SOL    HW125459   5.548   7.939   6.897
 7854SOL    HW225460   5.619   8.071   6.917
 7855SOL     OW25461   3.187   9.736   7.964
 7855SOL    HW125462   3.272   9.699   7.940
 7855SOL    HW225463   3.206   9.790   8.041
 7856SOL     OW25464   3.551  12.989  13.154
 7856SOL    HW125465   3.506  12.910  13.124
 7856SOL    HW225466   3.554  13.046  13.078
 7857SOL     OW25467  14.640  11.945   6.901
 7857SOL    HW125468  14.734  11.938   6.882
 7857SOL    HW225469  14.612  12.022   6.851
 7858SOL     OW25470   9.460   2.397   1.267
 7858SOL    HW125471   9.393   2.449   1.311
 7858SOL    HW225472   9.542   2.422   1.309
 7859SOL     OW25473   4.107   3.131   3.743
 7859SOL    HW125474   4.056   3.058   3.776
 7859SOL    HW225475   4.185   3.091   3.704
 7860SOL     OW25476  10.355   0.506   8.998
 7860SOL    HW125477  10.275   0.557   9.011
 7860SOL    HW225478  10.380   0.523   8.907
 7861SOL     OW25479  12.506  13.265  10.824
 7861SOL    HW125480  12.417  13.299  10.824
 7861SOL    HW225481  12.499  13.175  10.856
 7862SOL     OW25482   2.584   3.274   5.402
 7862SOL    HW125483   2.561   3.340   5.466
 7862SOL    HW225484   2.565   3.191   5.445
 7863SOL     OW25485   4.160  13.362  10.881
 7863SOL    HW125486   4.172  13.421  10.806
 7863SOL    HW225487   4.122  13.416  10.949
 7864SOL     OW25488   7.759  12.589   2.318
 7864SOL    HW125489   7.762  12.659   2.253
 7864SOL    HW225490   7.752  12.508   2.267
 7865SOL     OW25491   3.155   3.884   3.640
 7865SOL    HW125492   3.241   3.924   3.635
 7865SOL    HW225493   3.107   3.936   3.705
 7866SOL     OW25494  12.922   8.409   3.935
 7866SOL    HW125495  12.995   8.396   3.995
 7866SOL    HW225496  12.960   8.398   3.848
 7867SOL     OW25497  13.933  11.279   8.456
 7867SOL    HW125498  14.011  11.254   8.505
 7867SOL    HW225499  13.877  11.202   8.459
 7868SOL     OW25500  12.326  12.007   3.484
 7868SOL    HW125501  12.376  11.926   3.478
 7868SOL    HW225502  12.238  11.982   3.457
 7869SOL     OW25503   5.164   5.167  13.201
 7869SOL    HW125504   5.190   5.136  13.114
 7869SOL    HW225505   5.239   5.146  13.257
 7870SOL     OW25506   1.459  13.078  11.514
 7870SOL    HW125507   1.489  13.063  11.424
 7870SOL    HW225508   1.448  12.990  11.551
 7871SOL     OW25509  10.597   7.024   8.601
 7871SOL    HW125510  10.599   7.111   8.562
 7871SOL    HW225511  10.510   7.017   8.640
 7872SOL     OW25512   1.565  12.686   0.524
 7872SOL    HW125513   1.533  12.690   0.614
 7872SOL    HW225514   1.494  12.725   0.472
 7873SOL     OW25515   0.963   2.563   3.909
 7873SOL    HW125516   1.058   2.557   3.919
 7873SOL    HW225517   0.939   2.485   3.859
 7874SOL     OW25518   2.561   0.674   8.382
 7874SOL    HW125519   2.643   0.628   8.399
 7874SOL    HW225520   2.493   0.606   8.388
 7875SOL     OW25521  14.058   9.358  14.268
 7875SOL    HW125522  13.987   9.357  14.205
 7875SOL    HW225523  14.018   9.328  14.350
 7876SOL     OW25524   7.087   1.747   5.036
 7876SOL    HW125525   7.017   1.790   4.986
 7876SOL    HW225526   7.140   1.702   4.969
 7877SOL     OW25527  11.585   3.517  11.600
 7877SOL    HW125528  11.563   3.593  11.547
 7877SOL    HW225529  11.581   3.548  11.690
 7878SOL     OW25530   2.230   2.399   1.432
 7878SOL    HW125531   2.194   2.476   1.387
 7878SOL    HW225532   2.237   2.333   1.363
 7879SOL     OW25533   3.820   1.550  14.860
 7879SOL    HW125534   3.757   1.621  14.869
 7879SOL    HW225535   3.901   1.584   0.025
 7880SOL     OW25536   1.242   5.445   4.806
 7880SOL    HW125537   1.154   5.432   4.843
 7880SOL    HW225538   1.244   5.390   4.728
 7881SOL     OW25539  12.051   8.240   0.461
 7881SOL    HW125540  11.957   8.240   0.475
 7881SOL    HW225541  12.074   8.333   0.456
 7882SOL     OW25542   7.603   7.072   4.086
 7882SOL    HW125543   7.658   7.150   4.098
 7882SOL    HW225544   7.535   7.101   4.026
 7883SOL     OW25545  13.058  14.253  14.832
 7883SOL    HW125546  13.141  14.238  14.787
 7883SOL    HW225547  12.994  14.202  14.783
 7884SOL     OW25548   9.520   7.642   4.867
 7884SOL    HW125549   9.555   7.682   4.788
 7884SOL    HW225550   9.425   7.643   4.854
 7885SOL     OW25551   1.708   5.119  14.250
 7885SOL    HW125552   1.801   5.138  14.263
 7885SOL    HW225553   1.663   5.198  14.279
 7886SOL     OW25554   6.405   2.028  12.425
 7886SOL    HW125555   6.435   2.017  12.516
 7886SOL    HW225556   6.476   1.994  12.372
 7887SOL     OW25557  10.656   6.950   5.689
 7887SOL    HW125558  10.743   6.911   5.702
 7887SOL    HW225559  10.650   7.017   5.758
 7888SOL     OW25560   4.902   6.218  11.644
 7888SOL    HW125561   4.845   6.188  11.574
 7888SOL    HW225562   4.950   6.292  11.607
 7889SOL     OW25563   4.211   3.906   4.066
 7889SOL    HW125564   4.146   3.846   4.028
 7889SOL    HW225565   4.286   3.850   4.087
 7890SOL     OW25566  13.067   1.048   7.884
 7890SOL    HW125567  13.023   1.102   7.950
 7890SOL    HW225568  12.996   1.001   7.841
 7891SOL     OW25569  11.763   2.710   3.729
 7891SOL    HW125570  11.754   2.659   3.648
 7891SOL    HW225571  11.725   2.655   3.797
 7892SOL     OW25572   8.904   7.518  11.090
 7892SOL    HW125573   8.830   7.502  11.031
 7892SOL    HW225574   8.874   7.485  11.175
 7893SOL     OW25575   4.062  12.050  13.771
 7893SOL    HW125576   4.019  12.092  13.697
 7893SOL    HW225577   4.002  12.062  13.844
 7894SOL     OW25578  14.107   0.177   0.915
 7894SOL    HW125579  14.088   0.090   0.881
 7894SOL    HW225580  14.083   0.173   1.008
 7895SOL     OW25581   9.644  14.016   2.543
 7895SOL    HW125582   9.687  13.972   2.470
 7895SOL    HW225583   9.714  14.063   2.588
 7896SOL     OW25584   9.456   0.780   4.154
 7896SOL    HW125585   9.389   0.717   4.128
 7896SOL    HW225586   9.539   0.736   4.136
 7897SOL     OW25587   9.459  14.626   0.249
 7897SOL    HW125588   9.385  14.566   0.259
 7897SOL    HW225589   9.434  14.684   0.177
 7898SOL     OW25590   4.994   4.089   7.412
 7898SOL    HW125591   4.985   4.026   7.484
 7898SOL    HW225592   4.919   4.072   7.355
 7899SOL     OW25593  10.692  13.214   8.313
 7899SOL    HW125594  10.711  13.184   8.402
 7899SOL    HW225595  10.650  13.299   8.325
 7900SOL     OW25596   7.320   1.059   8.077
 7900SOL    HW125597   7.278   1.052   8.163
 7900SOL    HW225598   7.264   1.009   8.018
 7901SOL     OW25599   4.109   5.366   4.209
 7901SOL    HW125600   4.170   5.401   4.144
 7901SOL    HW225601   4.091   5.276   4.180
 7902SOL     OW25602   9.022   0.987   1.636
 7902SOL    HW125603   9.113   1.014   1.627
 7902SOL    HW225604   8.995   0.962   1.547
 7903SOL     OW25605   5.798  11.744   0.875
 7903SOL    HW125606   5.820  11.835   0.897
 7903SOL    HW225607   5.862  11.692   0.923
 7904SOL     OW25608  11.918   0.199  13.727
 7904SOL    HW125609  11.972   0.148  13.667
 7904SOL    HW225610  11.963   0.192  13.812
 7905SOL     OW25611  12.392  10.374   7.457
 7905SOL    HW125612  12.398  10.356   7.363
 7905SOL    HW225613  12.343  10.300   7.492
 7906SOL     OW25614   5.152  11.881   3.504
 7906SOL    HW125615   5.072  11.890   3.555
 7906SOL    HW225616   5.222  11.903   3.565
 7907SOL     OW25617   7.026   2.745  10.880
 7907SOL    HW125618   7.099   2.756  10.819
 7907SOL    HW225619   7.031   2.653  10.906
 7908SOL     OW25620   4.236  14.193  11.802
 7908SOL    HW125621   4.237  14.129  11.873
 7908SOL    HW225622   4.210  14.143  11.725
 7909SOL     OW25623  12.474   2.729  14.504
 7909SOL    HW125624  12.520   2.714  14.422
 7909SOL    HW225625  12.474   2.644  14.548
 7910SOL     OW25626  10.723   2.034   3.415
 7910SOL    HW125627  10.712   1.975   3.340
 7910SOL    HW225628  10.770   1.982   3.480
 7911SOL     OW25629   4.948   6.779  13.911
 7911SOL    HW125630   5.029   6.822  13.883
 7911SOL    HW225631   4.883   6.849  13.913
 7912SOL     OW25632  10.497   0.346   5.809
 7912SOL    HW125633  10.472   0.384   5.725
 7912SOL    HW225634  10.481   0.416   5.873
 7913SOL     OW25635   9.207   3.400   8.355
 7913SOL    HW125636   9.165   3.477   8.394
 7913SOL    HW225637   9.298   3.428   8.340
 7914SOL     OW25638   3.388  13.660   7.374
 7914SOL    HW125639   3.473  13.630   7.342
 7914SOL    HW225640   3.325  13.611   7.321
 7915SOL     OW25641  12.434   4.088   6.610
 7915SOL    HW125642  12.365   4.035   6.570
 7915SOL    HW225643  12.488   4.026   6.658
 7916SOL     OW25644   7.216  10.453   3.077
 7916SOL    HW125645   7.162  10.508   3.021
 7916SOL    HW225646   7.276  10.408   3.018
 7917SOL     OW25647   6.305  10.500   9.121
 7917SOL    HW125648   6.295  10.422   9.176
 7917SOL    HW225649   6.281  10.573   9.179
 7918SOL     OW25650   1.052   0.668  11.593
 7918SOL    HW125651   1.056   0.585  11.547
 7918SOL    HW225652   1.140   0.680  11.629
 7919SOL     OW25653  11.675   2.573   3.516
 7919SOL    HW125654  11.624   2.494   3.532
 7919SOL    HW225655  11.639   2.610   3.436
 7920SOL     OW25656  10.916  12.446  10.051
 7920SOL    HW125657  10.843  12.446  10.112
 7920SOL    HW225658  10.901  12.523   9.995
 7921SOL     OW25659   3.586   8.011   6.087
 7921SOL    HW125660   3.599   7.991   5.994
 7921SOL    HW225661   3.598   7.927   6.131
 7922SOL     OW25662  11.393  13.537   7.840
 7922SOL    HW125663  11.468  13.559   7.784
 7922SOL    HW225664  11.373  13.446   7.818
 7923SOL     OW25665  10.908   3.291   1.203
 7923SOL    HW125666  10.961   3.215   1.177
 7923SOL    HW225667  10.875   3.267   1.290
 7924NA      NA25668   6.012   6.419   7.402
 7925NA      NA25669   6.085   4.914   5.692
 7926NA      NA25670  11.874  12.540   8.524
 7927NA      NA25671   8.010   9.470  10.286
 7928NA      NA25672   8.299  11.798  10.838
 7929NA      NA25673   7.461   7.499   7.765
 7930NA      NA25674  12.452   1.199   1.427
 7931NA      NA25675   3.339   1.304  13.166
 7932NA      NA25676   6.749   7.690   6.580
 7933NA      NA25677   7.050   6.591  13.169
 7934NA      NA25678   5.565   9.127   2.788
 7935NA      NA25679   7.886  10.731   8.074
 7936NA      NA25680   7.185   6.382   7.419
 7937NA      NA25681  13.507   5.544   9.569
 7938NA      NA25682   6.055   9.523   3.999
 7939NA      NA25683   4.883   6.814   6.313
 7940NA      NA25684   6.067   7.683   4.994
 7941NA      NA25685   7.087   6.292   6.240
 7942NA      NA25686   7.958   9.390  11.071
 7943NA      NA25687   9.978   3.831   5.286
 7944NA      NA25688   6.019   4.763   2.544
 7945NA      NA25689   7.025  10.275   3.402
 7946NA      NA25690   6.328   7.296   4.218
 7947NA      NA25691   2.885   2.040  10.169
 7948NA      NA25692   7.610   7.545   8.500
 7949NA      NA25693   5.542   5.908   4.598
 7950NA      NA25694  13.153  13.377   5.671
 7951NA      NA25695   4.133  11.456   5.465
 7952NA      NA25696   6.336   8.805   8.108
 7953NA      NA25697   6.547  11.105  11.522
 7954NA      NA25698  12.522   3.682   0.078
 7955NA      NA25699  10.219   2.717   4.217
 7956NA      NA25700   7.715  10.586   5.671
 7957NA      NA25701   6.389  10.002  10.119
 7958NA      NA25702   7.917   8.905   9.225
 7959NA      NA25703   7.165   8.455   5.718
 7960NA      NA25704   8.013  11.189  11.856
 7961NA      NA25705   9.135   6.997  12.472
 7962NA      NA25706  12.707   1.569   7.424
 7963NA      NA25707   6.008   7.673   8.223
 7964NA      NA25708   7.673  10.545   9.233
 7965NA      NA25709   7.331  13.511   8.720
 7966NA      NA25710   8.478  12.422  12.031
 7967NA      NA25711  10.230   8.872  13.927
 7968NA      NA25712  10.676  12.450   7.058
 7969NA      NA25713   7.976   5.705   8.334
 7970NA      NA25714   6.856   6.476   4.695
 7971NA      NA25715   8.299  11.531  14.123
 7972NA      NA25716   8.227  10.496  10.722
 7973NA      NA25717   6.809   9.740   8.241
 7974NA      NA25718   7.198   8.503  11.179
 7975NA      NA25719   7.092   9.926  11.392
 7976NA      NA25720   0.460   1.073   6.982
 7977NA      NA25721   7.615   7.103   5.060
 7978NA      NA25722   7.402  13.918  14.552
 7979NA      NA25723   4.690  11.715  13.800
 7980NA      NA25724   7.958   6.835  10.125
 7981NA      NA25725   3.092   2.750   5.734
 7982NA      NA25726   6.170   8.531  10.460
 7983NA      NA25727   7.461   7.085   6.214
 7984NA      NA25728   4.866  10.927  14.370
 7985NA      NA25729   7.082  12.945  11.805
 7986NA      NA25730   8.530  11.476  11.371
 7987NA      NA25731   0.193   7.131  12.844
  14.87157  14.87157  14.87157
